ITEM: TIMESTEP
40400
ITEM: NUMBER OF ATOMS
25128
ITEM: BOX BOUNDS pp pp ss
0.0000000000000000e+00 3.1748021039364001e+01
0.0000000000000000e+00 3.1748021039364001e+01
-7.4106354507405200e-04 3.1750676264988886e+01
ITEM: ATOMS id x y z c_phase c_temp c_nbond c_rho
37 9.63995 1.37474 0.0900752 4 0 0 0.999528
39 10.3637 1.04743 0.823114 4 0 0 0.999536
41 11.2856 1.01846 1.41785 4 0 0 0.999547
42 10.5797 1.67706 1.72992 4 0 0 0.999539
45 12.0457 1.07408 0.506655 4 0 0 0.999546
47 12.7194 1.19864 1.3723 4 0 0 0.999555
48 14.3729 0.318493 0.764646 4 0 0 0.999579
49 13.5924 1.113 0.843618 4 0 0 0.999555
50 14.0399 1.55958 0.167469 4 0 0 0.999537
51 13.6075 0.359834 1.6352 4 0 0 0.999585
52 14.3777 1.14948 1.47647 4 0 0 0.999562
53 14.8761 1.55337 0.662943 4 0 0 0.999542
54 15.7061 0.770636 0.788259 4 0 0 0.99957
55 16.5532 1.54451 0.681338 4 0 0 0.999542
56 15.1422 0.4642 1.64149 4 0 0 0.999582
57 16.547 0.712289 1.3421 4 0 0 0.999572
58 15.6341 1.48544 1.3916 4 0 0 0.999549
59 15.1049 0.711806 0.0677822 4 0 0 0.999571
60 17.2544 0.732268 0.547589 4 0 0 0.999566
61 17.9231 1.58109 0.757246 4 0 0 0.999536
62 17.916 0.742935 1.42801 4 0 0 0.999565
63 17.2202 1.74884 1.56274 4 0 0 0.999538
65 18.7918 0.725074 0.684829 4 0 0 0.999555
66 19.5395 1.55488 0.841653 4 0 0 0.999531
68 19.5934 0.967491 1.68957 4 0 0 0.999552
69 18.6564 1.51302 1.50035 4 0 0 0.99954
71 20.2493 0.776373 0.980057 4 0 0 0.999547
72 21.1062 1.65725 0.951506 4 0 0 0.999532
74 20.3457 1.51479 0.193617 4 0 0 0.999529
78 21.9982 1.59955 0.538558 4 0 0 0.999532
123 6.52037 3.06691 1.5557 4 0 0 0.999531
126 8.08209 2.20208 0.930382 4 0 0 0.999525
127 7.40132 3.06835 0.934051 4 0 0 0.999523
129 8.18545 3.00183 1.65211 4 0 0 0.999527
130 8.26934 2.9712 0.0392146 4 0 0 0.999516
131 8.90393 2.08699 0.252387 4 0 0 0.999522
132 9.77243 2.0246 1.10996 4 0 0 0.999527
133 8.92671 2.97262 0.928693 4 0 0 0.999517
134 9.03062 2.22066 1.70398 4 0 0 0.999532
135 9.56096 2.90576 0.21312 4 0 0 0.999511
136 10.2834 2.1137 0.214297 4 0 0 0.999523
137 11.1583 1.82604 0.771092 4 0 0 0.999531
138 10.6214 2.80819 0.921535 4 0 0 0.999511
139 11.4444 2.82964 1.57484 4 0 0 0.999513
140 12.6737 1.94118 0.593851 4 0 0 0.999529
141 11.928 2.64099 0.742299 4 0 0 0.99951
142 11.9239 1.9206 1.46509 4 0 0 0.999536
143 12.8449 3.01766 1.68597 4 0 1 0.999498
144 13.1791 3.03035 0.848852 4 0 0 0.999486
145 13.3784 1.9912 1.48064 4 0 0 0.999534
146 14.0206 2.44438 0.927124 4 0 0 0.999508
147 14.0279 3.38359 1.55716 4 0 0 0.999464
148 14.6961 3.43698 0.884932 4 0 0 0.999446
149 14.7823 2.29758 1.44821 4 0 0 0.999517
150 14.8418 2.51505 0.136557 4 0 0 0.999493
151 14.1591 3.2262 0.0325348 4 0 0 0.999461
152 13.4137 2.29398 0.0590902 4 0 0 0.999514
153 15.6993 2.44373 0.692668 4 0 0 0.999497
154 16.3029 3.20095 0.662084 4 0 0 0.999453
155 16.308 2.47951 1.52575 4 0 1 0.999505
156 15.3694 3.25723 1.50191 4 0 2 0.999461
157 15.5706 3.25854 0.0192499 4 0 0 0.999447
158 17.0646 2.35032 0.682778 4 0 0 0.999504
159 17.944 2.92608 0.699539 4 0 0 0.99947
160 18.0193 2.43917 1.58112 4 0 0 0.999507
161 17.0918 3.1162 1.49491 4 0 2 0.999467
162 18.8908 2.35742 1.01358 4 0 0 0.999505
163 19.7027 3.2427 1.27782 4 0 0 0.999474
164 18.884 2.99607 0.196019 4 0 0 0.999469
165 19.587 2.34239 0.101452 4 0 0 0.999504
166 20.3251 1.78863 1.72442 4 0 0 0.999536
167 21.1565 2.41663 0.458355 4 0 0 0.999516
168 20.1948 2.46882 1.11433 4 0 0 0.99951
169 21.31 3.29463 1.39314 4 0 0 0.999495
170 20.4222 2.99313 0.334941 4 0 0 0.999491
171 22.8719 2.07007 1.50872 4 0 0 0.999535
172 22.9717 2.60199 0.735523 4 0 0 0.999523
173 22.0961 2.49917 1.23787 4 0 0 0.999523
174 21.9898 3.20043 0.598797 4 0 0 0.999504
175 22.6771 3.40124 0.07601 4 0 0 0.999507
178 24.342 2.68296 0.775192 4 0 0 0.999532
179 23.6887 2.90303 1.53628 4 0 0 0.99953
180 24.4728 3.51078 1.55704 4 0 0 0.999528
186 25.7213 3.49812 1.51211 4 0 0 0.999538
220 5.00947 4.74001 0.341082 4 0 0 0.999521
221 5.77735 3.9378 0.198707 4 0 0 0.999522
222 6.48883 3.76611 0.772067 4 0 0 0.999522
223 5.68025 4.73638 1.02487 4 0 0 0.999522
224 6.66321 4.5115 1.6428 4 0 0 0.999523
225 6.68072 5.1315 0.885352 4 0 0 0.999508
226 8.1982 3.892 0.700757 4 0 0 0.999507
227 7.40842 4.46072 0.5468 4 0 0 0.999505
228 7.39886 3.87029 1.49684 4 0 0 0.999522
229 8.20004 4.61106 1.48677 4 0 1 0.9995
230 9.8976 3.57792 0.885667 4 0 0 0.999496
231 9.07913 4.56551 0.821335 4 0 0 0.999479
232 9.86266 4.50302 0.126324 4 0 0 0.999465
233 9.07829 3.76256 1.49819 4 0 1 0.999508
234 9.86881 4.3462 1.65532 4 0 3 0.999482
235 8.98541 3.86821 0.0631775 4 0 0 0.999496
236 11.408 3.64493 0.778297 4 0 0 0.999471
237 10.5891 4.66652 0.906264 4 0 0 0.999444
238 11.3867 4.69403 0.230734 4 0 0 0.999412
239 10.7059 3.56689 1.58785 4 0 1 0.999495
240 11.3652 4.3716 1.70545 4 0 3 0.999451
241 11.3894 5.27213 0.983682 4 0 0 0.999383
242 10.5826 3.84888 0.176129 4 0 0 0.999473
243 12.5168 3.57716 0.814749 4 0 0 0.99946
244 12.1916 4.55033 1.00021 4 0 0 0.999407
245 12.7362 4.99738 1.68903 4 0 4 0.999374
246 13.2258 4.67863 0.80017 4 0 0 0.999369
247 12.6435 4.61885 0.0632315 4 0 0 0.999376
248 13.9891 4.12825 0.69648 4 0 0 0.999399
249 13.4832 4.21781 1.59317 4 0 3 0.999415
250 14.2046 5.11838 1.52001 4 0 3 0.999321
251 14.9402 5.01141 0.811699 4 0 0 0.999308
252 14.9642 4.4167 1.59432 4 0 2 0.999376
253 14.1405 4.90647 0.0597868 4 0 0 0.999325
254 14.961 4.19423 0.096508 4 0 0 0.99938
255 15.6685 4.06642 0.926277 4 0 0 0.99939
256 15.8798 4.77595 0.186426 4 0 0 0.999314
257 16.5936 4.58036 0.900182 4 0 0 0.999335
258 16.3184 3.95875 1.6903 4 0 4 0.999408
259 15.8111 5.05317 1.64084 4 0 4 0.999302
260 17.2689 3.83372 0.811237 4 0 0 0.999404
261 18.0864 4.48855 1.09806 4 0 0 0.999361
262 17.9525 3.63794 1.65602 4 0 2 0.999436
263 17.4569 4.57727 0.0147963 4 0 0 0.99934
264 18.1348 3.8547 0.0583493 4 0 0 0.999406
265 18.8779 3.70667 0.95022 4 0 0 0.999433
266 18.8235 4.60949 0.361826 4 0 0 0.999367
267 19.6906 4.67872 1.0803 4 0 0 0.999376
268 18.7859 5.27693 1.20102 4 0 0 0.999292
269 19.5987 3.76722 0.227421 4 0 0 0.99944
270 20.4384 3.82188 1.23329 4 0 0 0.999454
271 20.8846 4.71868 1.39403 4 0 1 0.999406
272 21.5775 4.95128 0.810455 4 0 0 0.999407
273 21.0824 3.93136 0.512408 4 0 0 0.999459
274 20.1339 4.78559 0.352846 4 0 0 0.999379
275 22.8205 3.63186 1.42135 4 0 0 0.999505
276 21.9406 4.13318 1.31068 4 0 0 0.999469
277 22.4705 5.17735 1.27286 4 0 0 0.999427
278 22.6119 4.34705 0.510028 4 0 0 0.999474
279 23.5735 3.63903 0.782677 4 0 0 0.999512
280 24.336 4.32055 0.625018 4 0 0 0.999508
281 23.4679 4.54946 1.33355 4 0 0 0.999487
282 24.8518 5.25716 0.566763 4 0 0 0.999495
283 23.5518 5.06386 0.533607 4 0 0 0.999466
284 25.0086 4.50055 1.62342 4 0 0 0.999522
285 25.0629 3.68037 0.802132 4 0 0 0.999527
286 24.363 5.28843 1.43377 4 0 0 0.999486
287 25.6904 5.1389 1.34266 4 0 0 0.99952
288 26.3575 4.29031 1.37159 4 0 0 0.999537
289 26.5026 4.97257 0.640732 4 0 0 0.999529
290 25.5284 4.40089 0.388179 4 0 0 0.999523
310 3.25442 6.96226 1.12748 4 0 0 0.999529
312 3.39503 6.28191 0.500536 4 0 0 0.999525
313 4.18979 5.46246 0.325783 4 0 0 0.999523
314 4.93434 5.42873 1.31778 4 0 0 0.999526
315 4.13622 6.09659 1.22779 4 0 0 0.999527
316 4.82567 6.23357 0.333842 4 0 0 0.999516
317 4.77312 6.79931 1.15967 4 0 0 0.999518
318 4.00267 7.02511 0.221759 4 0 0 0.999519
319 5.78575 5.42185 0.301847 4 0 0 0.999512
320 5.6935 6.24342 0.9632 4 0 0 0.999508
321 6.4578 5.98425 1.59671 4 0 0 0.999506
322 6.43234 6.86927 1.00965 4 0 0 0.999483
323 6.37773 6.04115 0.154639 4 0 0 0.999497
324 5.54993 7.05206 0.147147 4 0 0 0.999496
325 8.21355 5.31419 0.694273 4 0 0 0.999473
326 7.32761 6.15925 0.754293 4 0 0 0.999475
327 7.39163 5.41839 1.49138 4 0 1 0.999497
328 8.23884 6.11028 1.49159 4 0 3 0.999455
329 8.01352 6.85364 0.728993 4 0 0 0.999424
330 7.28191 6.86379 1.59601 4 0 3 0.999464
331 7.33029 5.3575 0.0461812 4 0 0 0.999491
332 9.76796 5.3194 0.792562 4 0 0 0.999433
333 8.88016 6.18865 0.736908 4 0 0 0.99942
334 9.05434 5.3271 1.5973 4 0 4 0.999463
335 9.73844 6.19052 1.46731 4 0 3 0.999394
336 9.09351 6.95013 1.463 4 0 3 0.999379
337 9.76329 6.23201 0.0941385 4 0 0 0.999375
338 8.99733 5.46479 0.012702 4 0 0 0.999443
339 10.5831 6.02196 0.964384 4 0 0 0.999359
340 11.3128 6.37134 0.0776634 4 0 0 0.999298
341 10.5187 6.94145 0.15452 4 0 0 0.999284
342 10.4686 6.92564 1.49614 4 0 3 0.999303
343 11.9994 5.6274 0.183157 4 0 0 0.999336
344 12.6757 5.81849 0.861776 4 0 0 0.999294
345 11.7774 6.20735 1.05291 4 0 0 0.999295
346 13.3219 5.86668 1.55471 4 0 4 0.999269
347 13.3506 6.58297 0.813679 4 0 0 0.999171
348 13.3212 5.53867 0.0424813 4 0 0 0.999296
349 14.0617 5.71565 0.77266 4 0 0 0.999254
350 14.3278 6.65176 1.40646 4 0 2 0.999119
351 14.1303 6.38483 0.0380077 4 0 0 0.999185
352 15.0282 5.64393 0.034369 4 0 0 0.999239
353 15.8305 5.73813 0.95832 4 0 0 0.999208
354 15.0472 6.45091 0.806774 4 0 0 0.999129
355 16.491 6.45257 1.1401 4 0 0 0.999088
356 15.1058 5.87594 1.69804 4 0 3 0.999212
357 16.62 5.41933 0.276819 4 0 0 0.999242
358 15.6753 6.3382 0.0390223 4 0 0 0.999139
359 17.8271 5.30128 0.541411 4 0 0 0.99927
360 17.113 5.42499 1.24767 4 0 0 0.999245
361 17.0619 6.27419 0.411469 4 0 0 0.999115
362 17.6649 6.24649 1.38542 4 0 0 0.999128
363 18.2745 7.0517 1.13153 4 0 0 0.998993
364 18.3714 6.23173 0.609762 4 0 0 0.999137
365 19.429 5.75829 0.62055 4 0 0 0.999253
366 19.3279 6.55755 1.35081 4 0 0 0.99913
367 19.9942 6.75229 0.610261 4 0 0 0.99913
368 20.7494 5.77593 0.653722 4 0 0 0.999305
369 20.1931 5.61076 1.39557 4 0 1 0.9993
370 20.7787 6.6124 1.30355 4 0 0 0.999208
371 21.6592 6.66248 0.666524 4 0 0 0.999261
372 21.6631 5.87866 1.38528 4 0 0 0.999341
373 21.6904 5.73259 0.0517844 4 0 0 0.999353
374 22.6732 5.8279 0.674154 4 0 0 0.99939
375 22.6319 6.69333 1.20734 4 0 0 0.999323
376 23.3484 6.78052 0.267835 4 0 0 0.999359
377 23.4822 5.88496 1.30013 4 0 0 0.999426
378 24.3197 6.56281 1.15825 4 0 0 0.999428
379 24.1457 6.00685 0.427617 4 0 0 0.999442
380 25.6831 5.86213 0.700952 4 0 0 0.999501
381 25.1124 6.04132 1.67733 4 0 1 0.999488
382 25.1593 6.74159 0.495153 4 0 0 0.999453
383 25.8251 6.59457 1.40775 4 0 0 0.999493
384 26.6903 5.84511 1.4763 4 0 0 0.999529
385 27.4966 5.54334 0.722172 4 0 0 0.999537
386 26.7485 6.36567 0.651888 4 0 0 0.999518
387 27.7011 6.47315 1.36539 4 0 0 0.99954
389 27.7097 7.0074 0.530173 4 0 0 0.99953
409 2.19177 8.6335 0.399707 4 0 0 0.999535
410 2.39416 7.81099 1.27726 4 0 0 0.999537
411 3.01349 8.51445 0.935533 4 0 0 0.99953
412 3.24418 7.77117 0.327041 4 0 0 0.999525
413 3.81243 8.45898 0.0822892 4 0 0 0.999516
414 3.97971 7.67009 1.24863 4 0 0 0.999524
415 4.70459 8.25653 0.921772 4 0 0 0.999504
416 4.67023 7.63706 0.247803 4 0 0 0.999507
417 3.81127 8.34851 1.76162 4 0 0 0.999531
418 5.86955 8.34822 0.169905 4 0 0 0.999467
419 5.48363 7.59071 1.03232 4 0 0 0.999494
420 6.49365 7.53799 0.169175 4 0 0 0.999462
421 6.39674 8.23976 1.04384 4 0 0 0.999451
422 7.28583 7.76918 0.746313 4 0 0 0.999421
423 8.2859 8.31376 0.868772 4 0 0 0.999338
424 7.27857 8.18368 1.7015 4 0 2 0.99942
425 8.05208 7.48784 1.5604 4 0 3 0.999406
426 7.99895 7.60312 0.0282118 4 0 0 0.999388
427 9.84313 7.22199 0.72344 4 0 0 0.999304
428 8.91207 7.61626 0.661731 4 0 0 0.999339
429 9.73234 8.61964 0.693151 4 0 0 0.999177
430 9.09265 8.69904 1.44495 4 0 2 0.999251
431 9.64026 7.88932 1.60055 4 0 5 0.999278
432 11.3161 7.14287 0.810636 4 0 0 0.999221
433 10.5731 7.9454 0.844311 4 0 0 0.999179
434 10.5877 8.70196 1.4255 4 0 3 0.999098
435 11.4057 7.80503 1.60301 4 0 5 0.999141
436 11.227 8.11851 0.0422735 4 0 0 0.999108
437 12.7061 7.28322 0.565784 4 0 0 0.999099
438 12.178 8.23518 0.590765 4 0 0 0.998997
439 12.0637 7.15788 1.37768 4 0 2 0.999171
440 12.0887 8.68064 1.49044 4 0 2 0.998928
441 12.8601 7.99585 1.47598 4 0 4 0.998973
442 14.3373 7.3542 0.580954 4 0 0 0.999
443 13.6169 8.09282 0.464536 4 0 0 0.998891
444 13.458 7.34024 1.34133 4 0 2 0.999045
445 14.2471 8.18371 1.35246 4 0 1 0.998811
446 16.4328 7.18497 0.276798 4 0 0 0.998944
447 15.6276 7.3114 0.923132 4 0 0 0.998935
448 15.0689 8.29247 0.865596 4 0 0 0.998715
449 16.26 8.16052 1.11176 4 0 0 0.998718
450 15.1452 7.52269 1.62484 4 0 4 0.99891
451 15.8668 8.31534 0.152632 4 0 0 0.99867
452 16.977 7.36262 1.11681 4 0 0 0.998905
453 17.0683 8.10487 0.342208 4 0 0 0.998737
454 17.703 8.02386 1.02699 4 0 0 0.99877
455 17.816 7.16593 0.212954 4 0 0 0.998947
456 19.0043 7.33822 0.644529 4 0 0 0.998961
457 18.9276 8.15325 1.18625 4 0 0 0.998801
458 19.871 7.65743 1.3273 4 0 0 0.998974
459 19.8034 8.14191 0.360639 4 0 0 0.998861
460 18.4485 8.18989 0.168602 4 0 0 0.998757
461 20.6988 7.46059 0.673449 4 0 0 0.999072
462 20.6463 8.44048 1.03669 4 0 0 0.998907
463 21.5411 7.67297 1.15048 4 0 0 0.999126
464 21.6115 8.34459 0.258573 4 0 0 0.999036
465 22.5864 8.17833 1.02102 4 0 0 0.999171
466 22.417 7.50131 1.75996 4 0 3 0.999233
467 22.3364 7.48462 0.386381 4 0 0 0.99922
468 23.4446 7.32194 1.0516 4 0 0 0.999327
469 23.4881 8.07549 0.386864 4 0 0 0.999272
470 24.3435 8.10177 1.00287 4 0 0 0.999343
471 24.2519 8.71797 1.68854 4 0 5 0.999298
472 24.3392 7.32545 0.26928 4 0 0 0.999384
473 25.1162 7.39484 1.25566 4 0 1 0.999432
474 26.02 8.00574 0.988901 4 0 0 0.999456
475 26.0181 8.62842 1.75809 4 0 3 0.999444
476 26.0919 7.27875 0.36814 4 0 0 0.999476
477 25.2288 8.1324 0.307821 4 0 0 0.999404
478 26.2729 8.58549 0.0891813 4 0 0 0.999449
479 26.7829 7.11176 1.34398 4 0 0 0.999512
480 27.9642 8.50472 0.429665 4 0 0 0.999522
481 27.7958 7.83833 1.21519 4 0 0 0.99953
482 26.9761 8.65498 1.02594 4 0 0 0.999486
483 26.996 7.78335 0.434662 4 0 0 0.999499
484 28.6515 7.11327 1.23056 4 0 0 0.999549
485 29.5942 8.35338 0.54453 4 0 0 0.999552
487 28.7798 8.55882 1.18636 4 0 0 0.999545
488 28.6951 7.71879 0.416043 4 0 0 0.999542
494 1.11992 10.2843 0.274311 4 0 0 0.999547
499 1.75605 9.44536 0.452252 4 0 0 0.99954
500 1.82419 10.3747 0.969875 4 0 0 0.999546
501 2.59083 10.2762 0.0854603 4 0 0 0.999534
502 2.37359 9.44609 1.22278 4 0 0 0.99954
503 2.76915 10.2344 1.66375 4 0 0 0.999541
504 3.19729 9.23695 1.65194 4 0 0 0.999535
505 3.07153 9.37068 0.0798637 4 0 0 0.999526
506 3.3764 10.0336 0.729636 4 0 0 0.999521
507 3.93083 9.10878 0.853479 4 0 0 0.999513
508 4.57569 9.17985 0.00735123 4 0 0 0.999495
509 4.60565 9.97638 0.570406 4 0 0 0.999483
510 4.11895 9.97134 1.6172 4 0 1 0.99951
511 4.67201 9.06702 1.64809 4 0 1 0.999504
512 5.32886 8.94347 0.658838 4 0 0 0.999475
513 6.23892 9.79241 0.51167 4 0 0 0.999406
514 5.3095 9.83096 1.15767 4 0 0 0.999461
515 6.15157 9.05029 1.25461 4 0 0 0.999441
516 6.23427 10.5093 1.18094 4 0 0 0.999388
517 7.16567 8.87998 0.708464 4 0 0 0.999381
518 8.09535 9.0463 0.0802495 4 0 0 0.999304
519 7.95867 9.92351 0.574229 4 0 0 0.999261
520 7.17876 9.73611 1.18759 4 0 0 0.999347
521 8.04515 9.16584 1.39501 4 0 1 0.99931
522 8.93974 9.45316 0.72455 4 0 0 0.999191
523 9.64533 10.3362 0.655345 4 0 0 0.998994
524 8.74986 10.2664 1.40028 4 0 0 0.99915
525 9.83115 9.58902 1.40598 4 0 1 0.999076
526 11.3751 8.84686 0.729954 4 0 0 0.998988
527 10.4031 8.88547 0.040013 4 0 0 0.999083
528 10.4642 9.68094 0.652445 4 0 0 0.998966
529 10.6327 10.1668 1.62642 4 0 2 0.998878
530 11.3015 9.63391 1.31015 4 0 2 0.998853
531 13.0078 8.96564 0.784741 4 0 0 0.998745
532 12.1098 9.81377 0.682872 4 0 0 0.998668
533 12.8214 10.4728 0.956288 4 0 0 0.998392
534 12.5445 9.61336 1.60503 4 0 3 0.998663
535 13.6911 8.84089 1.56381 4 0 4 0.9987
536 14.4701 9.19794 0.757688 4 0 0 0.998508
537 13.5317 9.67756 0.832116 4 0 0 0.99848
538 13.498 10.4076 1.70237 4 0 5 0.998288
539 14.2759 10.1516 0.212809 4 0 0 0.99826
540 15.9037 9.16019 1.13615 4 0 0 0.998453
541 15.0541 9.0672 1.75884 4 0 3 0.998508
542 15.1352 9.85683 1.0083 4 0 0 0.998281
543 15.695 10.1814 0.251776 4 0 0 0.998192
544 16.5108 9.95951 0.961184 4 0 0 0.99821
545 16.5143 9.03182 0.259112 4 0 0 0.998501
546 15.3043 9.20714 0.0898472 4 0 0 0.998459
547 18.3024 8.89967 0.945652 4 0 0 0.998588
548 17.0975 9.07233 1.12972 4 0 0 0.99848
549 17.1586 10.0288 0.207964 4 0 0 0.998235
550 17.7795 9.87441 1.07576 4 0 0 0.998276
551 17.7682 9.11154 0.116035 4 0 0 0.998519
552 19.8239 8.96559 1.07128 4 0 0 0.998709
553 18.6032 9.73724 0.300656 4 0 0 0.998419
554 19.512 9.90276 0.854756 4 0 0 0.99846
555 18.7284 10.4596 1.1511 4 0 0 0.998187
556 18.6615 9.59153 1.71891 4 0 2 0.998401
557 19.2484 8.96684 0.211989 4 0 0 0.998653
558 19.9932 9.79255 0.07389 4 0 0 0.998567
559 20.9349 9.81687 0.757206 4 0 0 0.998704
560 20.2547 9.67159 1.68572 4 0 2 0.998598
561 20.7963 9.08945 0.209734 4 0 0 0.998813
562 21.6352 9.04567 0.98794 4 0 0 0.998939
563 22.3976 8.89936 1.59932 4 0 2 0.999063
564 22.8355 9.69743 0.812537 4 0 0 0.999029
565 22.1025 10.5361 0.885872 4 0 0 0.998781
566 21.9206 9.79926 1.55977 4 0 3 0.998859
567 23.037 10.5243 1.46855 4 0 3 0.998952
568 22.7607 8.87875 0.203008 4 0 0 0.999118
569 21.9754 9.81742 0.212099 4 0 0 0.998894
570 23.4324 8.98904 0.982659 4 0 0 0.999186
571 24.5162 9.57705 0.769972 4 0 0 0.999268
572 23.6926 9.61738 1.57959 4 0 3 0.999159
573 24.3766 10.3664 1.47684 4 0 2 0.999188
574 25.0637 9.53508 1.67575 4 0 2 0.999325
575 23.607 10.5555 0.630744 4 0 0 0.999065
576 24.3138 8.82642 0.209603 4 0 0 0.999301
577 24.4428 10.3356 0.111736 4 0 0 0.999222
578 25.2824 8.85953 1.01124 4 0 0 0.999376
579 26.224 9.39608 0.886798 4 0 0 0.999423
580 25.3822 10.2667 0.835515 4 0 0 0.999312
581 25.9688 10.3091 1.59107 4 0 2 0.999372
582 26.6471 9.44462 1.73985 4 0 4 0.999458
583 25.6018 9.52349 0.179476 4 0 0 0.999369
584 28.2862 10.152 0.305647 4 0 0 0.999517
585 27.9652 9.36022 0.955926 4 0 0 0.999516
586 26.9944 10.1666 0.831438 4 0 0 0.999453
587 27.6518 9.98114 1.54201 4 0 2 0.999499
588 27.1861 9.38966 0.228832 4 0 0 0.99948
589 29.6009 9.91576 0.329908 4 0 0 0.99955
590 29.6825 9.14643 1.32918 4 0 0 0.999558
591 28.8698 9.79309 1.29071 4 0 0 0.999542
592 28.8871 9.25543 0.26698 4 0 0 0.99954
594 30.3989 9.83697 1.03252 4 0 0 0.999562
597 0.884307 11.0829 0.861497 4 0 0 0.999556
599 1.66792 11.1804 0.0305073 4 0 0 0.999547
601 1.01218 11.7704 1.43909 4 0 0 0.999565
602 1.88908 11.9639 0.667798 4 0 0 0.999549
603 1.72025 11.0233 1.57495 4 0 0 0.999555
604 2.57572 10.9565 0.706043 4 0 0 0.999536
605 3.3109 11.6496 0.70437 4 0 0 0.999512
606 2.52012 11.7602 1.41471 4 0 0 0.999542
607 3.53613 10.7904 1.44896 4 0 1 0.999519
608 4.11159 10.9261 0.546717 4 0 0 0.999487
609 4.7892 11.6902 0.339223 4 0 0 0.999444
610 4.19768 11.6478 1.31608 4 0 2 0.999484
611 4.81597 10.843 1.47138 4 0 1 0.999469
612 5.39439 10.7046 0.434902 4 0 0 0.999429
613 6.16593 11.4412 0.388009 4 0 0 0.999357
614 5.53205 11.4075 1.24887 4 0 2 0.999413
615 6.25475 12.2081 1.12053 4 0 0 0.999331
616 5.43648 12.3206 1.67918 4 0 2 0.99941
617 6.92391 10.7003 0.458607 4 0 0 0.999321
618 7.93838 11.3927 0.716117 4 0 0 0.999164
619 7.02439 11.5601 1.11606 4 0 0 0.999276
620 7.64249 10.6327 1.36043 4 0 0 0.999259
621 8.04484 12.2669 1.29354 4 0 0 0.999097
622 8.75665 10.878 0.688582 4 0 0 0.999077
623 9.50691 11.8688 0.520922 4 0 0 0.998816
624 8.80274 11.7692 1.35257 4 0 0 0.999
625 9.67507 11.1357 1.36846 4 0 0 0.998903
626 11.2153 10.596 0.711587 4 0 0 0.998662
627 10.2834 12.255 0.115866 4 0 0 0.998618
628 10.3669 11.1421 0.680182 4 0 0 0.998737
629 11.0549 11.5983 0.194953 4 0 0 0.998531
630 10.5173 11.8691 1.53217 4 0 2 0.998628
631 11.2341 11.2478 1.5177 4 0 2 0.998563
632 11.976 10.5949 1.59771 4 0 2 0.998536
633 12.0903 11.4605 0.999413 4 0 0 0.998325
634 12.5748 11.4039 0.278125 4 0 0 0.998241
635 12.112 12.3106 1.58763 4 0 3 0.99811
636 12.9977 11.6151 1.6826 4 0 5 0.998039
637 11.7607 10.7147 0.0383943 4 0 0 0.998521
638 11.8129 12.3439 0.271498 4 0 0 0.998238
639 14.9194 10.6409 1.7197 4 0 2 0.997998
640 14.2168 10.7626 1.01656 4 0 0 0.998097
641 14.9558 10.9953 0.27394 4 0 0 0.997995
642 13.419 12.206 0.294374 4 0 0 0.997875
643 13.455 11.3195 0.944061 4 0 0 0.998066
644 14.9217 11.7683 1.00327 4 0 0 0.997687
645 14.1738 11.6169 0.089015 4 0 0 0.997906
646 13.4118 10.6812 0.00468363 4 0 0 0.998227
647 15.6443 10.9195 1.05081 4 0 0 0.997911
648 16.4751 10.7382 1.63549 4 0 2 0.997873
649 16.3924 11.5474 0.992531 4 0 0 0.997661
650 16.4403 10.8138 0.15589 4 0 0 0.99799
651 16.6776 12.1548 0.0969389 4 0 0 0.997534
652 18.2686 10.7518 0.315828 4 0 0 0.998092
653 17.3287 10.7543 1.02503 4 0 0 0.997964
654 18.2373 12.1981 0.29695 4 0 0 0.997649
655 18.1157 11.3858 1.19295 4 0 0 0.997803
656 17.2968 12.1131 1.0179 4 0 0 0.997491
657 17.4291 11.4396 0.214002 4 0 0 0.997797
658 19.026 11.5039 0.45649 4 0 0 0.997973
659 19.9822 11.9648 0.106136 4 0 0 0.998046
660 19.6635 11.1707 1.15739 4 0 0 0.998131
661 18.981 12.0427 1.39 4 0 0 0.997711
662 19.5169 10.7559 0.104792 4 0 0 0.998265
663 20.4403 10.6508 0.830456 4 0 0 0.998426
664 21.516 11.8189 0.177245 4 0 0 0.998399
665 21.2562 11.0335 0.907806 4 0 0 0.998505
666 20.408 11.8293 1.05787 4 0 0 0.99813
667 22.9838 11.3834 0.592585 4 0 0 0.998833
668 22.1789 12.0164 0.83328 4 0 0 0.998541
669 22.0471 11.1259 1.54785 4 0 4 0.998652
670 23.1395 11.7208 1.45426 4 0 3 0.998819
671 24.6647 11.1978 0.733723 4 0 0 0.999178
672 24.0295 11.9347 0.833319 4 0 0 0.998991
673 23.9185 11.0869 1.72317 4 0 4 0.99905
674 24.6381 11.8746 1.71962 4 0 4 0.999112
675 26.2388 11.8285 0.0889694 4 0 0 0.999344
676 26.1677 10.9659 0.639512 4 0 0 0.999356
677 25.4647 11.9029 0.890297 4 0 0 0.999245
678 25.2805 11.0051 1.63227 4 0 3 0.999265
679 26.1994 11.6412 1.61836 4 0 3 0.999345
680 25.4203 11.1028 0.0258328 4 0 0 0.999287
681 27.4806 10.9749 0.222741 4 0 0 0.999459
682 28.1753 10.8126 0.955353 4 0 0 0.999505
683 27.1163 11.5707 0.810264 4 0 0 0.999421
684 26.8876 10.8282 1.54303 4 0 2 0.999433
685 28.0034 11.5015 1.47807 4 0 1 0.999492
686 27.2403 12.2814 0.0549416 4 0 0 0.999407
687 28.1487 12.2478 0.705241 4 0 0 0.999479
688 27.2261 12.2984 1.52476 4 0 1 0.999424
689 29.6024 10.5987 0.964666 4 0 0 0.999553
690 29.0843 10.8079 0.126121 4 0 0 0.999539
691 30.0142 11.448 0.200894 4 0 0 0.999558
692 29.027 11.6131 0.729414 4 0 0 0.999534
693 29.6446 11.6164 1.41109 4 0 0 0.999557
694 30.712 10.6944 0.164178 4 0 0 0.999564
696 30.8268 11.4119 0.768316 4 0 0 0.999568
697 30.2837 10.6379 1.55752 4 0 0 0.999568
698 31.1984 11.737 1.47761 4 0 0 0.999577
699 1.13682 12.8099 0.40217 4 0 0 0.999563
700 0.509747 13.7264 0.353066 4 0 0 0.999574
701 0.482049 12.6523 1.33598 4 0 0 0.999576
702 1.14086 13.5857 1.07465 4 0 0 0.99957
703 2.02605 13.5951 0.0514267 4 0 0 0.999548
704 1.7309 12.7253 1.26502 4 0 0 0.999559
705 2.5702 12.6974 0.404418 4 0 0 0.999533
706 3.2224 13.4346 0.560222 4 0 0 0.99951
707 2.41394 13.4305 1.22965 4 0 0 0.999544
708 3.18984 12.4814 1.27431 4 0 0 0.99952
709 3.90604 12.4375 0.332755 4 0 0 0.999479
710 4.71541 13.3639 0.114075 4 0 0 0.999422
711 4.04445 13.2162 1.12496 4 0 0 0.999475
712 4.61524 12.4602 1.09881 4 0 0 0.99945
713 4.91483 14.0502 0.967971 4 0 0 0.999411
714 5.40272 12.5268 0.401777 4 0 0 0.999389
715 6.38981 13.1223 0.384615 4 0 0 0.999284
716 5.57052 13.2306 1.0342 4 0 0 0.999368
717 5.76935 13.9823 0.214111 4 0 0 0.999333
718 6.45429 13.9552 1.03291 4 0 0 0.999261
719 7.07599 12.4039 0.476696 4 0 0 0.999228
720 7.96078 13.4073 0.407944 4 0 0 0.99903
721 7.34813 13.0508 1.20568 4 0 0 0.999165
722 7.1891 14.0984 0.453594 4 0 0 0.999146
723 7.97663 13.9471 1.27615 4 0 0 0.999019
724 8.63216 12.717 0.637914 4 0 0 0.998938
725 9.44503 13.4479 0.44985 4 0 0 0.998713
726 8.93695 13.309 1.33907 4 0 2 0.99885
727 9.6154 12.515 1.38306 4 0 2 0.99876
728 11.0864 12.3741 0.954094 4 0 0 0.998409
729 10.2708 12.9073 0.823199 4 0 0 0.998555
730 11.2466 13.8783 0.66118 4 0 0 0.998143
731 10.5672 13.6244 1.43869 4 0 2 0.998375
732 12.7251 12.4829 0.847683 4 0 0 0.997944
733 11.8204 13.1895 0.794407 4 0 0 0.998056
734 12.6352 13.4654 0.131866 4 0 0 0.997768
735 12.6753 14.0093 1.11987 4 0 0 0.997614
736 11.8584 13.9267 1.62434 4 0 3 0.997871
737 13.2343 13.2705 1.02959 4 0 0 0.997603
738 14.1554 12.3753 0.994802 4 0 0 0.997625
739 14.0304 13.2174 0.339444 4 0 0 0.997488
740 14.8228 13.2535 1.01098 4 0 0 0.99724
741 14.8665 13.818 0.167348 4 0 0 0.997224
742 14.913 12.4603 0.108402 4 0 0 0.997549
743 13.5415 14.0828 0.123918 4 0 0 0.997447
744 13.9581 14.0918 1.18846 4 0 0 0.997199
745 15.045 12.6947 1.72232 4 0 4 0.997201
746 15.7008 12.402 0.738125 4 0 0 0.997416
747 16.3159 12.3639 1.59971 4 0 2 0.997238
748 15.7393 13.7108 0.907589 4 0 0 0.997016
749 15.9609 13.3138 1.66769 4 0 3 0.996885
750 16.6702 13.0784 0.751182 4 0 0 0.997195
751 15.9055 13.1317 0.0412274 4 0 0 0.997278
752 16.7734 13.9029 1.64309 4 0 3 0.996695
753 18.2702 12.7839 1.07986 4 0 0 0.997392
754 17.654 13.9054 1.13941 4 0 0 0.996959
755 17.36 12.9877 1.55243 4 0 3 0.997073
756 17.0036 13.76 0.172621 4 0 0 0.997115
757 17.5662 12.9328 0.182832 4 0 0 0.997365
758 18.5806 13.4329 0.346901 4 0 0 0.99737
759 19.2894 12.5811 0.411016 4 0 0 0.997753
760 19.2684 13.3815 1.07561 4 0 0 0.997465
761 19.9872 12.7327 1.12856 4 0 0 0.997817
762 20.1679 13.5462 0.243518 4 0 0 0.997821
763 20.7 12.6827 0.0999099 4 0 0 0.998093
764 21.7077 13.3099 0.131266 4 0 0 0.998283
765 21.2975 12.411 0.875788 4 0 0 0.998255
766 20.9082 13.4196 0.907757 4 0 0 0.997988
767 21.581 13.1029 1.49061 4 0 3 0.998196
768 23.3438 12.6785 0.451688 4 0 0 0.998766
769 22.4925 13.5156 0.303288 4 0 0 0.998483
770 22.4382 12.6547 1.22326 4 0 1 0.998526
771 23.1408 13.414 1.09013 4 0 0 0.99865
772 22.2802 14.0759 1.30689 4 0 2 0.998329
773 24.7825 12.7628 0.489903 4 0 0 0.999072
774 23.8708 13.5268 0.225948 4 0 0 0.998822
775 23.9248 12.7025 1.36441 4 0 2 0.998899
776 24.7244 13.2416 1.35584 4 0 3 0.999038
777 24.5772 13.9944 0.787163 4 0 0 0.99897
778 26.6079 13.1622 0.118101 4 0 0 0.99934
779 26.4177 12.4201 0.902953 4 0 0 0.999339
780 25.7114 13.174 0.775672 4 0 0 0.999221
781 25.4227 12.5216 1.67069 4 0 4 0.999206
782 26.4654 13.3264 1.43368 4 0 1 0.999321
783 26.2189 14.0478 0.738107 4 0 0 0.999263
784 25.2455 14.0214 1.63999 4 0 4 0.999114
785 27.4852 13.2226 0.493244 4 0 0 0.999418
786 27.9453 13.0183 1.30011 4 0 0 0.999467
787 28.1563 13.9584 0.463173 4 0 0 0.999474
788 27.259 13.954 1.23196 4 0 0 0.999399
789 29.2131 13.1525 0.433997 4 0 0 0.999535
790 28.9498 12.4747 1.27276 4 0 0 0.999529
791 29.8196 13.1701 1.20585 4 0 0 0.999558
792 28.9216 13.8612 1.15898 4 0 0 0.999524
793 29.8057 14.0661 0.312757 4 0 0 0.999554
794 30.0913 12.3501 0.550294 4 0 0 0.999561
796 30.7962 13.3015 0.315268 4 0 0 0.999572
797 30.6557 12.5155 1.19597 4 0 0 0.999573
798 31.4292 13.436 1.03503 4 0 0 0.99958
799 30.5104 13.9286 1.08077 4 0 0 0.999573
800 1.19675 14.3549 0.25577 4 0 0 0.999567
801 0.159909 15.2708 0.457481 4 0 0 0.999582
802 1.00982 15.6443 0.316477 4 0 0 0.999574
803 0.206538 14.4114 1.19976 4 0 0 0.999584
804 0.78544 15.1764 1.2936 4 0 0 0.999583
805 1.45443 14.8648 1.70063 4 0 0 0.999577
806 1.89767 15.134 0.173788 4 0 0 0.999555
807 1.7999 14.2572 1.01337 4 0 0 0.99956
808 2.63361 14.2969 0.200904 4 0 0 0.999533
809 2.54995 15.8455 0.279852 4 0 0 0.999539
810 2.36595 15.1416 1.07187 4 0 0 0.999548
811 3.19045 14.3237 1.10337 4 0 0 0.999515
812 2.35063 15.7549 1.73211 4 0 1 0.999559
813 3.40559 15.0919 0.408722 4 0 0 0.999501
814 4.11016 14.115 0.483814 4 0 0 0.999459
815 4.77626 14.8432 0.256265 4 0 0 0.999411
816 4.02196 15.0328 1.16577 4 0 0 0.999473
817 4.76569 15.7706 1.04237 4 0 0 0.999421
818 6.19925 15.7371 1.00479 4 0 0 0.999279
819 6.24842 14.9422 0.388109 4 0 0 0.999271
820 5.41853 15.7514 0.189836 4 0 0 0.999358
821 5.47016 14.9007 1.05659 4 0 0 0.99936
822 5.67501 14.1466 1.75721 4 0 3 0.999362
823 7.99284 15.0132 0.553329 4 0 0 0.998979
824 7.02912 15.7332 0.370189 4 0 0 0.99916
825 7.14263 14.8311 1.12548 4 0 0 0.999147
826 7.78716 15.7265 1.32497 4 0 0 0.999028
827 8.66162 14.2054 0.453706 4 0 0 0.998854
828 9.5283 15.0317 0.689373 4 0 0 0.998576
829 8.74984 15.6228 0.629615 4 0 0 0.998793
830 8.72198 14.8511 1.41222 4 0 0 0.998823
831 9.54456 14.226 1.23854 4 0 0 0.998628
832 10.3761 14.1887 0.643597 4 0 0 0.998386
833 10.2398 15.0757 0.06111 4 0 0 0.998349
834 11.0587 15.1699 0.692795 4 0 0 0.998095
835 10.1776 15.1862 1.54062 4 0 1 0.998376
836 11.1234 14.8654 1.53343 4 0 3 0.998054
837 11.9533 15.3008 0.114109 4 0 0 0.997791
838 11.9908 14.7851 0.998024 4 0 0 0.997768
839 12.9881 14.7419 0.265888 4 0 0 0.997492
840 12.7407 15.474 0.951826 4 0 0 0.997466
841 11.8453 15.7565 1.73538 4 0 5 0.997698
842 13.5712 14.9741 1.28037 4 0 0 0.997158
843 14.3973 14.7319 0.524825 4 0 0 0.997104
844 14.3156 15.7006 1.21 4 0 0 0.996885
845 13.5915 15.5711 0.274632 4 0 0 0.997278
846 15.308 15.3847 0.496822 4 0 0 0.996843
847 15.1113 14.6533 1.12041 4 0 0 0.996833
848 15.9703 14.5075 0.370402 4 0 0 0.996917
849 16.078 15.5318 1.08858 4 0 0 0.996611
850 15.9982 14.6888 1.65285 4 0 4 0.996502
851 17.1056 15.1642 0.236597 4 0 0 0.996854
852 16.7815 14.5807 0.852267 4 0 0 0.996805
853 16.7847 15.4204 1.66386 4 0 3 0.996368
854 17.9812 14.2288 0.255715 4 0 0 0.997093
855 17.8826 15.1757 0.892654 4 0 0 0.996829
856 18.4408 14.9466 0.0560899 4 0 0 0.99708
857 18.7649 14.2843 1.11794 4 0 0 0.997099
858 18.8382 15.7144 0.513002 4 0 0 0.997084
859 18.6322 15.1767 1.57699 4 0 2 0.996784
860 20.0176 14.1711 1.02045 4 0 0 0.997549
861 19.4732 15.0172 0.765558 4 0 0 0.997269
862 19.4797 15.8461 1.42627 4 0 3 0.997093
863 20.2449 15.1618 1.71018 4 0 4 0.99736
864 21.5599 14.192 0.87232 4 0 0 0.998108
865 20.6494 14.7346 0.640232 4 0 0 0.997737
866 21.4734 15.5726 0.46359 4 0 0 0.998004
867 20.8261 15.6698 1.26355 4 0 1 0.997671
868 20.1802 15.7419 0.389939 4 0 0 0.99753
869 21.3586 14.8379 1.70191 4 0 5 0.997869
870 23.1535 14.3697 0.318853 4 0 0 0.998612
871 22.1662 14.9486 0.542537 4 0 0 0.998282
872 22.9521 15.5711 0.33158 4 0 0 0.998511
873 22.8851 14.9479 1.26481 4 0 1 0.998475
874 22.0663 15.5583 1.5184 4 0 2 0.998144
875 23.6846 15.673 1.52694 4 0 4 0.998698
876 23.9475 14.853 0.471826 4 0 0 0.99879
877 24.4367 15.5145 0.771254 4 0 0 0.998907
878 23.5944 14.1486 1.35148 4 0 3 0.99872
879 24.3489 14.7209 1.59128 4 0 3 0.998895
880 25.1391 15.4346 1.51562 4 0 2 0.999069