ITEM: TIMESTEP
41300
ITEM: NUMBER OF ATOMS
25128
ITEM: BOX BOUNDS pp pp ss
0.0000000000000000e+00 3.1748021039364001e+01
0.0000000000000000e+00 3.1748021039364001e+01
-5.2561193036688856e+01 3.1750676264988886e+01
ITEM: ATOMS id x y z c_phase c_temp c_nbond c_rho
21680 24.1717 4.52965 -12.0426 0 0.603808 0 0.277649
6327 9.18072 1.62399 16.284 4 0 0 1.00057
6329 9.94535 1.51464 16.9784 4 0 0 1.00053
6332 10.7173 1.35751 16.232 4 0 0 1.00063
6333 11.4934 1.41834 16.9978 4 0 0 1.00059
6335 12.3589 0.777665 17.243 4 0 0 1.00051
6336 13.0219 0.500472 16.4956 4 0 0 1.00058
6337 13.1462 1.34232 17.3389 4 0 0 1.0006
6338 12.2729 1.22545 16.1823 4 0 0 1.00068
6339 13.8151 0.404508 17.3844 4 0 0 1.0005
6340 14.5831 1.20659 17.4659 4 0 0 1.0006
6341 14.007 1.2561 16.671 4 0 0 1.00069
6342 14.7873 0.437917 16.8349 4 0 0 1.00057
6343 13.8758 0.516781 15.909 4 0 0 1.00065
6344 15.5494 0.649476 17.4815 4 0 0 1.00053
6345 16.2336 1.50732 17.4248 4 0 0 1.00069
6346 16.167 0.7639 16.4703 4 0 0 1.00066
6347 15.3097 1.56758 16.6877 4 0 2 1.00079
6348 16.1212 1.49491 15.9216 4 0 2 1.00085
6349 16.7786 0.741849 17.2737 4 0 0 1.00058
6350 17.5773 1.41442 17.2026 4 0 0 1.00068
6351 17.9694 0.575771 16.372 4 0 0 1.00065
6352 17.0945 1.29469 16.3539 4 0 0 1.00076
6353 18.3484 0.766913 17.2769 4 0 0 1.00057
6355 19.3842 1.3684 17.5593 4 0 0 1.00056
6356 19.4755 0.862182 16.6025 4 0 0 1.00062
6357 18.6568 1.5183 16.6188 4 0 0 1.00073
6359 20.3491 1.15304 17.3075 4 0 0 1.00053
6361 21.1715 1.05335 16.4352 4 0 0 1.00059
6362 20.6077 1.73367 16.402 4 0 0 1.00068
6364 22.9205 1.75065 17.247 4 0 0 1.00048
6367 22.1498 1.65847 16.533 4 0 0 1.00058
6417 7.34479 2.89674 17.5403 4 0 0 1.00043
6418 8.1047 2.2696 16.0525 4 0 0 1.0006
6419 7.26778 2.99669 16.0865 4 0 0 1.0006
6420 8.17849 3.16012 16.7309 4 0 0 1.00061
6421 9.03141 2.38572 17.0508 4 0 0 1.00055
6422 9.73971 3.14821 17.0005 4 0 3 1.00075
6423 9.05138 3.0748 16.1962 4 0 0 1.00074
6424 9.97603 2.35045 16.1972 4 0 0 1.0007
6425 10.4197 2.35784 17.1231 4 0 1 1.00064
6426 11.2774 3.06509 16.9211 4 0 8 1.00097
6427 10.6713 3.12309 16.1924 4 0 7 1.00097
6428 11.3752 2.20307 16.2692 4 0 2 1.00079
6429 12.141 2.0688 17.0162 4 0 2 1.00074
6430 12.7563 2.8942 17.0619 4 0 11 1.00109
6431 12.9463 1.97243 16.3758 4 0 2 1.00085
6432 12.1196 2.76286 16.031 4 0 6 1.00107
6433 13.6305 2.16439 17.1492 4 0 5 1.00086
6434 14.4978 2.62944 17.1258 4 0 8 1.00112
6435 13.7181 2.84942 16.321 4 0 13 1.00129
6436 14.5548 2.15868 16.3035 4 0 6 1.00101
6437 16.161 2.26353 16.6904 4 0 6 1.00104
6438 15.4247 2.01062 17.5399 4 0 4 1.00082
6439 16.0892 2.93061 17.6272 4 0 12 1.00123
6440 15.3497 2.9337 16.5617 4 0 13 1.00142
6441 15.2579 3.48031 17.3017 4 0.132948 33 1.00173
6443 16.3117 3.11137 15.9224 4 0.102213 32 1.00162
6442 16.4846 3.51739 16.8327 4 0.136537 32 1.00186
6444 17.0718 2.31866 17.6189 4 0 6 1.0009
6445 17.9528 2.84507 17.56 4 0 12 1.00108
6446 17.7125 2.06683 16.4958 4 0 4 1.00093
6447 16.9913 2.67225 16.7814 4 0 9 1.0012
6448 17.9265 2.91375 16.0974 4 0 14 1.00132
6543 17.9907 3.5051 16.7984 4 0.123598 32 1.00165
6449 18.7855 2.77296 16.7527 4 0 9 1.00108
6450 18.5523 2.05996 17.4612 4 0 3 1.00076
6451 19.6387 2.85388 17.3557 4 0 10 1.00092
6452 19.6137 2.01436 16.688 4 0 3 1.00076
6453 19.5072 2.94301 16.0239 4 0 9 1.00112
6454 21.4098 1.76886 17.4229 4 0 0 1.00053
6455 20.3974 2.20725 17.3594 4 0 3 1.00066
6456 21.3679 3.07282 17.3726 4 0 4 1.00075
6457 20.5092 2.9585 16.5514 4 0 8 1.00093
6458 21.4214 2.40601 16.591 4 0 0 1.0007
6459 22.2941 2.53265 17.3003 4 0 0 1.00057
6460 22.9812 3.28265 17.1073 4 0 1 1.00064
6461 22.8935 2.37769 16.1713 4 0 0 1.00063
6462 21.91 3.07155 16.1496 4 0 3 1.00081
6463 23.5575 2.43502 16.8179 4 0 0 1.00054
6464 24.5082 2.99755 16.8919 4 0 0 1.00052
6465 23.7457 3.41496 16.3273 4 0 0 1.00066
6470 25.093 3.10498 16.12 4 0 0 1.00056
6502 5.69435 3.82427 16.4651 4 0 0 1.00051
6503 5.20465 4.67518 16.5711 4 0 0 1.00052
6505 6.14899 4.61088 17.2148 4 0 0 1.00052
6506 6.57839 3.63738 17.2275 4 0 0 1.00047
6507 6.64768 4.57351 16.3962 4 0 1 1.00067
6508 7.40127 3.84853 16.7027 4 0 0 1.00063
6509 7.4414 4.61234 17.39 4 0 3 1.00067
6510 7.6092 5.17972 16.388 4 0 6 1.001
6511 8.24564 3.86493 17.5501 4 0 2 1.00062
6512 8.3172 4.47773 16.6259 4 0 4 1.00092
6513 9.08854 4.00128 16.8209 4 0 6 1.00091
6514 8.97953 5.1508 16.6322 4 0.0992529 31 1.00143
6515 9.90433 4.76759 17.0546 4 0.115211 31 1.00149
6516 9.95547 3.89947 16.158 4 0 11 1.00115
6517 9.38088 4.65582 15.8818 4 0 12 1.00138
6518 10.5421 3.96379 17.0858 4 0 14 1.0012
6519 11.5022 4.53609 16.8437 4 0.156359 33 1.002
6520 10.6527 4.50633 16.1212 4 0.124047 35 1.00175
6521 11.5568 3.64513 16.1321 4 0 16 1.00141
6522 11.3978 5.26832 16.0678 4 0.203182 33 1.00297
6523 12.2116 3.67651 17.0481 4 0.110827 36 1.00146
6524 13.0483 4.18163 17.1958 4 0.167696 32 1.00209
6525 12.2966 5.13571 16.8417 4 0.217785 32 1.00309
6526 13.0255 5.00385 16.2402 4 0.222838 33 1.00346
6527 13.0164 3.53645 16.2954 4 0.11595 33 1.00166
6528 12.3568 4.3416 16.015 4 0.163193 31 1.00228
7412 13.0226 5.07573 17.6265 4 0.228844 33 1.00299
6529 13.9518 3.61389 17.2293 4 0.138147 36 1.00173
6530 13.9316 5.08504 17.1209 4 0.243359 32 1.00369
6531 14.4784 3.61032 16.3408 4 0.140797 33 1.00198
6532 14.6208 5.03662 16.305 4 0.246483 32 1.00425
6533 13.7979 4.36502 16.439 4 0.191276 34 1.00274
6534 14.8045 4.44108 17.1277 4 0.207476 32 1.00287
6535 16.3713 4.4574 17.2712 4 0.211836 34 1.0029
6536 15.6436 5.16509 17.2223 4 0.262074 32 1.00426
6537 15.6395 4.29916 16.6302 4 0.200468 32 1.00293
6538 16.499 5.25011 16.4712 4 0.265961 34 1.00488
6539 16.4307 4.43559 15.9618 4 0.207759 33 1.00322
6541 17.2133 3.70293 17.576 4 0.147968 34 1.00177
6542 17.3332 5.08644 17.3958 4 0.249649 33 1.00364
6544 18.0831 5.06741 16.5677 4 0.238466 34 1.00365
6545 17.3419 4.39053 16.713 4 0.199814 33 1.0028
6546 18.2113 4.27233 17.4827 4 0.181812 32 1.00216
6547 17.2443 3.78267 16.01 4 0.152885 33 1.00216
6548 18.2594 4.53445 15.8807 4 0.197767 34 1.00281
6549 19.1017 3.68446 17.3929 4 0.122391 34 1.00144
6550 19.0019 4.46583 16.7421 4 0.181852 31 1.0023
6551 19.923 3.7489 16.5689 4 0.106397 32 1.0014
6552 18.8485 3.6864 16.1202 4 0.124672 32 1.00168
6553 19.9245 4.78987 17.4241 4 0.184069 33 1.00208
6554 19.6395 4.64804 15.9942 4 0.179666 31 1.00231
6555 20.6969 3.76108 17.2387 4 0 15 1.00113
6556 21.4979 4.41345 17.0651 4 0.100037 30 1.00127
6557 20.5561 4.78205 16.5913 4 0.165022 33 1.00197
6558 21.1468 3.81818 16.1827 4 0 12 1.00117
6559 22.0945 3.7409 17.0483 4 0 7 1.00086
6560 23.0886 4.73606 17.0888 4 0 12 1.00097
6561 22.316 4.55553 16.3301 4 0 13 1.00118
6562 22.7269 3.69932 16.2263 4 0 4 1.00083
6563 23.7968 4.23264 16.802 4 0 3 1.00073
6564 24.7479 4.80452 16.8906 4 0 3 1.00069
6565 24.4622 3.80742 17.5904 4 0 0 1.00051
6566 23.7359 5.05547 16.2113 4 0 11 1.001
6567 24.4941 4.04241 16.0331 4 0 0 1.00068
6568 25.283 3.86283 16.9619 4 0 0 1.00052
6569 26.0325 4.73225 17.0092 4 0 0 1.00053
6570 25.8672 3.88677 16.172 4 0 0 1.00056
6571 25.3935 4.76795 16.102 4 0 0 1.00067
6577 26.9048 4.87553 16.1874 4 0 0 1.00056
6601 4.65009 5.3469 16.2703 4 0 0 1.00056
6602 4.12095 6.30991 16.4706 4 0 0 1.00055
6603 3.94018 5.68427 17.3735 4 0 0 1.00038
6604 4.84845 6.06615 17.4725 4 0 0 1.00048
6605 4.90755 6.82867 16.3072 4 0 2 1.00074
6606 4.0588 6.85956 17.3747 4 0 0 1.00047
6607 6.09311 5.54226 16.3101 4 0 3 1.00075
6608 5.47179 6.10115 16.4272 4 0 0 1.00072
6609 5.41803 5.41962 17.2708 4 0 0 1.00051
6610 6.35261 6.31249 17.0516 4 0 8 1.00089
6611 6.54404 6.928 16.3048 4 0 16 1.0013
6612 5.69476 6.76675 17.4002 4 0 5 1.00076
6613 7.18911 6.12908 16.1344 4 0 12 1.00126
6614 6.85588 5.43545 17.1223 4 0 4 1.00078
6615 7.78496 5.95661 16.9993 4 0.0981489 31 1.00129
6616 7.25762 6.75038 17.2684 4 0.121259 31 1.00139
6618 8.30364 5.32034 17.5478 4 0 12 1.00108
6617 8.01233 7.04938 16.3894 4 0.180316 36 1.00236
6619 8.54716 5.96751 16.406 4 0.137812 31 1.00182
6620 9.15333 6.16541 17.4048 4 0.182158 32 1.00211
6621 9.86655 5.68295 17.4496 4 0.180719 32 1.00211
6622 9.23406 6.84079 16.6453 4 0.224364 32 1.00318
6623 8.4689 6.76897 17.5294 4 0.187431 33 1.00208
6624 10.0334 5.54447 16.0463 4 0.176917 33 1.00246
6625 10.722 5.44742 16.8255 4 0.195396 31 1.00259
6626 10.0545 6.39775 16.5911 4 0.230901 31 1.0034
6627 11.5679 5.3936 17.5307 4 0.216976 34 1.00273
6628 10.0915 6.91777 17.4109 4 0.262714 32 1.00374
6629 10.8233 6.18592 15.9674 4 0.243646 31 1.004
6630 11.6067 6.20484 16.8301 4 0.269325 34 1.00446
7506 10.7661 6.24303 17.5546 4 0.246337 34 1.00329
7507 11.5779 6.85981 17.4488 4 0.311675 34 1.00542
6631 13.1228 5.905 16.7779 4 0.286102 32 1.00525
6633 12.1563 5.94971 16.0757 4 0.266959 32 1.00481
6635 12.4768 6.97364 16.5511 4 0.347396 31 1.00835
7513 12.5445 6.03293 17.4904 4 0.282625 31 1.00445
7514 13.3298 6.84673 17.2466 4 0.360371 32 1.00834
6636 14.1664 6.81288 16.4594 4 0.374766 33 1.01133
6637 13.9519 5.87871 16.2662 4 0.298269 32 1.00632
6638 14.9346 5.88864 16.8731 4 0.311087 30 1.00663
7520 14.064 5.99567 17.4625 4 0.309759 28 1.00566
7521 14.8948 6.99502 17.0201 4 0.398455 29 1.01251
6640 15.9015 6.74361 16.4312 4 0.385103 28 1.01353
6641 15.5196 5.86731 16.1434 4 0.312448 30 1.00758
6642 16.5665 5.83456 17.1866 4 0.309117 31 1.00614
6643 16.665 6.61713 15.9496 4 0.371874 31 1.01248
7526 15.6619 6.2085 17.5079 4 0.339644 29 1.00718
7527 16.5911 6.83998 17.375 4 0.389033 32 1.01079
6644 18.1402 6.03237 17.3285 4 0.306175 34 1.00543
6645 17.2992 6.79858 16.7318 4 0.380828 32 1.01146
6646 18.061 6.89853 16.1721 4 0.376305 34 1.01105
6647 17.4935 5.85258 16.5283 4 0.302635 31 1.00626
7534 18.285 6.91124 17.6128 4 0.371225 30 1.00803
6649 18.8378 5.29685 17.2859 4 0.241791 32 1.0033
6650 18.9333 6.91164 16.8963 4 0.355052 33 1.00798
6651 19.7665 6.99723 16.3177 4 0.335821 31 1.00721
6652 19.0556 6.09739 16.5756 4 0.292053 30 1.00518
6653 19.7665 5.43887 16.7256 4 0.230545 32 1.00313
6654 18.8759 5.47092 15.9388 4 0.251753 32 1.00402
6656 20.1392 6.46186 17.2322 4 0.287152 33 1.00441
6657 20.8669 5.56869 17.2596 4 0.208736 32 1.00245
6658 20.598 6.26338 16.4792 4 0.260093 33 1.00386
6659 21.6331 6.29266 17.2003 4 0.227597 32 1.00278
6660 21.5435 5.46801 16.5074 4 0.178792 35 1.0021
6663 22.3961 5.35143 17.2046 4 0.134384 34 1.00149
6664 22.9564 6.43184 17.104 4 0.182478 33 1.00201
6665 22.2196 6.31316 16.3412 4 0.206173 36 1.00251
6666 22.8326 5.51034 16.2386 4 0.126958 33 1.0015
6667 23.9152 5.63368 17.0658 4 0 15 1.00107
6668 24.492 6.46748 17.0134 4 0.107277 31 1.00122
6669 23.6914 6.40368 16.381 4 0.145363 34 1.00162
6670 24.6272 5.68466 16.2361 4 0 8 1.00095
6671 25.3014 5.6633 17.0592 4 0 7 1.00073
6672 26.01 6.32234 16.8613 4 0 6 1.00073
6673 26.0974 5.54938 16.1972 4 0 1 1.00067
6674 25.2576 6.46393 16.035 4 0 13 1.001
6675 26.8444 5.61629 16.962 4 0 0 1.00053
6676 27.8084 6.04427 16.9099 4 0 0 1.00048
6677 27.0016 6.48709 17.5803 4 0 1 1.00052
6678 27.0345 6.88651 16.6967 4 0 1 1.00064
6680 27.843 6.88925 16.0819 4 0 0 1.00059
6681 26.9465 6.26167 15.9393 4 0 1 1.00065
6684 28.5543 6.84083 16.8642 4 0 0 1.00048
6704 1.85529 8.7477 16.5574 4 0 0 1.00049
6705 2.59704 7.92933 16.6307 4 0 0 1.00051
6706 2.62295 8.48076 17.4843 4 0 0 1.00043
6707 2.75192 7.16389 15.9388 4 0 0 1.00055
6709 3.36516 7.08856 16.7215 4 0 0 1.00051
6710 3.53125 8.50213 16.464 4 0 2 1.00069
6711 3.35902 7.73492 17.4072 4 0 0 1.00047
6712 4.36938 7.81154 16.5602 4 0 3 1.00076
6713 4.94442 8.5262 16.4652 4 0 13 1.00113
6714 4.16162 8.35521 17.4784 4 0 7 1.00066
6715 4.90422 7.41123 17.151 4 0 4 1.00073
6716 5.78565 7.58437 16.6319 4 0 12 1.00116
6717 6.39958 8.64716 16.5797 4 0.173906 30 1.00211
6718 5.58648 8.33472 17.2935 4 0.103135 31 1.0012
6719 6.54149 7.52508 17.4336 4 0.122068 27 1.00134
6720 6.39493 7.81207 15.8918 4 0.126319 33 1.00173
6721 7.36013 7.71824 16.519 4 0.182861 31 1.00232
6722 7.75991 8.55154 16.5036 4 0.2441 32 1.00355
6723 6.95962 8.47448 17.2824 4 0.199354 33 1.00223
6724 7.92049 7.55919 17.3663 4 0.204063 30 1.00235
6725 8.70029 7.66494 16.4683 4 0.245361 31 1.00374
6726 9.45094 8.35464 16.1855 4 0.319012 32 1.00689
6727 8.62956 8.34782 17.2649 4 0.277763 34 1.00403
6728 9.38006 7.63173 17.2844 4 0.274311 30 1.00407
6729 10.9475 7.10398 16.4622 4 0.305591 34 1.00611
6730 10.2303 7.74789 16.3624 4 0.318395 34 1.00682
6731 11.0959 8.72694 15.9902 4 0.426482 32 1.01592
6732 10.2235 8.48648 16.8658 4 0.36535 33 1.00871
7615 10.8971 7.70548 17.2852 4 0.343546 31 1.00687
7618 10.8723 8.65751 17.6442 4 0.404895 29 1.00924
6733 11.7789 7.87502 16.3202 4 0.392491 32 1.01184
7622 12.581 7.82999 16.8342 4 0.414103 30 1.01255
7623 13.2637 8.67698 16.5472 4 0.487771 23 1.01938
7626 13.0227 7.82764 17.587 4 0.426896 27 1.01178
7616 11.7542 8.76334 16.6478 4 0.451859 28 1.01631
6738 13.4505 7.62465 16.0578 4 0.420104 30 1.01545
7628 14.0419 7.84985 16.732 4 0.448886 24 1.01709
7631 14.9157 8.02209 17.0247 4 0.474394 23 1.01965
6739 14.2374 8.40867 15.9136 4 0.488044 21 1.02493
6743 15.1364 7.7088 15.976 4 0.456827 23 1.02271
6744 16.5314 7.63808 15.9369 4 0.454071 25 1.02229
7633 15.8536 7.75783 16.5866 4 0.46462 25 1.02198
7638 16.5738 7.92095 17.2929 4 0.472045 24 1.01897
1854 15.8695 7.63574 15.9672 0 0.502561 0 1.02647
6742 14.6555 7.96731 15.9637 4 0.494918 22 1.02327
6749 17.932 7.81709 16.1297 4 0.447898 26 1.01823
7641 18.1713 8.57232 17.032 4 0.492304 21 1.01857
7640 17.3735 7.68009 16.8937 4 0.448677 27 1.01714
6750 17.545 8.24892 16.8208 4 0.493346 23 1.01996
6757 19.9043 7.95181 16.7439 4 0.400615 30 1.01171
7645 19.0146 7.78425 17.0106 4 0.418739 31 1.01231
7648 18.8454 8.78282 17.3217 4 0.488054 21 1.01749
6661 21.4116 7.04973 16.4147 4 0.280865 32 1.00448
6758 21.0487 7.25652 17.2378 4 0.307934 29 1.0051
6759 21.5806 8.07814 16.9361 4 0.338472 30 1.00683
6761 20.5609 7.82447 16.1829 4 0.36561 31 1.00937
7650 20.672 8.05147 17.6052 4 0.377081 32 1.00804
6763 22.312 7.17709 17.0916 4 0.252781 31 1.00338
6764 23.0528 8.14354 17.1053 4 0.272324 31 1.00398
6766 22.9238 7.38867 16.3153 4 0.237961 31 1.00316
6767 22.8225 8.61943 16.0435 4 0.308925 34 1.00578
6768 22.1034 7.89407 16.0795 4 0.302497 32 1.00542
6765 22.2585 8.79708 16.8597 4 0.350443 34 1.00774
6769 23.7585 7.36766 16.9703 4 0.198022 34 1.00226
6770 24.6288 8.0941 16.6309 4 0.189741 34 1.00218
6771 24.6574 7.27118 17.5787 4 0.145553 34 1.00146
6772 24.0576 8.19229 17.4392 4 0.225355 31 1.00267
6773 23.6428 7.99314 15.9798 4 0.235542 30 1.0031
6774 24.4579 7.16276 16.0747 4 0.149365 34 1.00165
6775 25.3759 7.22525 16.7282 4 0.0986168 34 1.00117
6776 26.1743 8.04526 16.917 4 0 14 1.0011
6778 26.4248 7.26051 17.4578 4 0 7 1.00076
6779 25.5282 7.99586 17.6156 4 0.129874 35 1.00133
6780 26.1862 7.15536 16.1302 4 0 9 1.0009
6781 25.3956 8.01691 15.9415 4 0.137219 32 1.00153
6782 27.7676 7.72034 16.7597 4 0 2 1.00061
6783 27.4154 8.67435 17.0802 4 0 5 1.00078
6784 28.0033 7.16822 17.5745 4 0 0 1.00047
6785 27.2353 8.008 17.6158 4 0 7 1.00067
6786 28.0556 8.59092 16.0928 4 0 2 1.00068
6787 26.9822 8.04907 16.2845 4 0 7 1.00085
6789 28.9502 8.52907 16.9226 4 0 0 1.0005
6790 28.6767 7.89752 17.6016 4 0 0 1.00043
6791 29.6685 8.42819 16.1701 4 0 0 1.00049
6792 28.6982 7.85573 16.2047 4 0 0 1.00055
6803 1.86788 10.2907 16.4299 4 0 0 1.0006
6804 1.91231 9.2565 17.4199 4 0 0 1.00042
6805 2.82225 9.28052 16.458 4 0 0 1.00064
6806 3.27694 10.1878 16.576 4 0 5 1.00085
6807 2.42484 10.0303 17.2667 4 0 0 1.00054
6808 3.26816 9.1525 17.3926 4 0 2 1.00058
6809 1.95628 9.45927 15.9531 4 0 0 1.00061
6810 4.14967 9.21105 16.6778 4 0 10 1.00095
6811 4.85076 10.1727 16.6488 4 0.135454 31 1.00162
6812 3.95433 10.0727 17.1889 4 0 11 1.00097
6813 4.84306 9.31553 17.3981 4 0.103104 35 1.00113
6814 5.62329 9.39117 16.6029 4 0.158663 34 1.00188
6815 5.67223 10.2342 17.2652 4 0.19478 34 1.00213
6816 6.32909 9.44153 17.1778 4 0.204996 36 1.00233
6818 6.46293 10.5108 16.1871 4 0.252159 30 1.00385
6819 6.96233 9.58203 16.2479 4 0.246045 32 1.00366
6820 7.83895 10.0312 16.2184 4 0.315731 33 1.00614
6821 6.99995 10.2451 17.049 4 0.274772 35 1.00387
6822 7.68427 9.30381 17.1201 4 0.27456 31 1.00388
6823 8.56408 9.11156 16.4665 4 0.313568 35 1.00597
6825 8.80517 10.0294 16.7159 4 0.375009 28 1.0085
6826 9.44377 9.16282 16.8893 4 0.365334 33 1.00812
7709 9.60817 10.1237 17.2057 4 0.426738 26 1.01041
6831 10.3163 10.2467 16.2462 4 0.475314 23 1.01971
7713 10.9511 9.55342 16.4396 4 0.468949 24 1.01916
7712 10.1294 9.23857 17.4574 4 0.405656 29 1.00926
7716 11.113 9.67846 17.6183 4 0.480111 20 1.01368
7624 12.3658 8.86712 17.2574 4 0.477407 18 1.01546
7717 12.0635 9.84443 17.8317 0 0.527732 0 1.01972
7721 12.7454 10.1881 18.0299 0 0.547484 0 1.0111
6836 12.4168 10.0593 16.7996 0 0.532671 0 1.02421
7718 12.7835 10.3449 17.3691 0 0.545497 0 1.01064
6834 11.9455 9.18644 16.0678 4 0.485615 21 1.0213
6830 11.5845 10.108 16.9363 0 0.523036 0 1.02899
6837 12.8668 9.05689 16.2685 0 0.517518 0 1.02429
7627 13.0096 8.50042 17.8563 0 0.504439 0 1.01725
7719 13.3699 9.69962 17.6166 0 0.541186 0 1.01884
7629 13.9683 8.96109 17.8028 0 0.529637 0 1.02283
7724 14.7165 10.2196 17.5724 0 0.555892 0 1.00383
8621 13.7906 10.3025 18.0403 0 0.556138 0 1.00533
6838 14.1156 9.56022 17.4836 0 0.541301 0 1.01657
1193 13.3651 9.90057 16.7947 0 0.540576 0 1.01882
1185 14.2355 9.43498 16.8041 0 0.537303 0 1.02308
6835 13.784 10.2165 17.2958 0 0.55107 0 1.00679
7634 16.7997 8.863 17.7499 0 0.522031 0 1.02639
7632 15.1158 9.67814 18.2014 0 0.548241 0 1.01034
7636 15.9141 9.48034 17.9201 0 0.54072 0 1.01662
6848 16.4887 9.44982 17.0523 0 0.538331 0 1.01809
7723 14.8715 9.5467 17.4591 0 0.542529 0 1.01579
6746 14.8353 8.69564 17.3602 0 0.519616 0 1.02629
6843 15.9885 9.79013 17.4339 0 0.547347 0 1.00944
1189 15.3001 9.16492 16.8042 0 0.533432 0 1.02903
6745 15.9643 8.70864 17.0326 0 0.519881 0 1.03692
7728 16.785 10.0726 17.75 0 0.551834 0 1.00479
6841 15.4456 9.87902 17.0814 0 0.547774 0 1.00759
7639 16.8663 9.62386 18.1806 0 0.545458 0 1.01252
7642 17.5692 9.02288 18.0676 0 0.528516 0 1.01943
1850 17.8914 9.97719 16.7029 0 0.538978 0 1.01539
7735 17.8161 9.76706 18.0439 0 0.544873 0 1.0097
6852 18.0451 9.70783 17.3198 0 0.53819 0 1.01913
6844 17.3769 10.0297 17.4358 0 0.54753 0 1.00678
6747 16.7753 8.63523 16.7831 0 0.518547 0 1.03306
1181 17.2167 9.35022 17.0498 0 0.533704 0 1.02353
7646 19.4129 8.913 16.5223 4 0.482087 22 1.02296
6853 19.7378 10.233 17.4846 0 0.532687 0 1.02755
6855 19.3701 9.6643 17.1375 0 0.525105 0 1.03449
6849 18.6679 10.124 17.6235 0 0.543996 0 1.01407
1175 18.6857 10.1402 16.7796 0 0.539174 0 1.0205
1171 19.8299 10.092 16.5251 0 0.529403 0 1.04318
6858 20.4419 8.94909 16.378 4 0.446743 30 1.01894
6859 21.4118 9.55971 16.1758 4 0.43853 26 1.01822
7745 21.3884 10.4216 16.8492 4 0.489794 22 1.02246
7746 20.6938 9.80246 16.8207 4 0.486031 22 1.02259
7651 21.4385 8.85322 17.4402 4 0.396954 32 1.0099
7654 20.3761 9.02786 17.4885 4 0.453426 25 1.01505
6863 23.0735 9.5754 16.8211 4 0.348143 31 1.00799
6864 22.1855 10.2899 16.0627 4 0.437953 26 1.01951
7751 23.0899 10.4945 17.2421 4 0.396023 29 1.01177
7750 22.2005 9.73242 17.2153 4 0.409819 32 1.01187
6867 23.8169 8.87399 16.7162 4 0.270097 30 1.0041
6868 24.6053 9.42539 16.897 4 0.251844 34 1.00354
6869 23.9004 10.387 16.7093 4 0.336357 31 1.00783
6870 24.4219 10.278 15.9076 4 0.297695 35 1.00553
6871 23.5863 9.56014 15.9871 4 0.315654 32 1.00635
6872 24.4517 8.85291 15.917 4 0.234636 35 1.00308
7754 24.8442 10.2907 17.5065 4 0.272957 32 1.00398
7757 23.971 9.74247 17.6431 4 0.301911 34 1.00491
6777 25.3893 8.82188 16.7767 4 0.179702 31 1.00202
6873 26.4328 9.52046 16.8398 4 0.141129 34 1.00152
6874 25.2899 10.421 16.5211 4 0.2507 32 1.00358
6875 25.5327 9.63165 17.4182 4 0.206442 31 1.00235
6876 26.2514 10.3363 17.4832 4 0.187808 35 1.002
6877 25.2409 9.60327 16.0637 4 0.222052 31 1.00281
6878 26.3261 8.89955 16.2586 4 0.117005 36 1.00135
7760 26.5759 8.88037 17.6341 4 0.103357 32 1.0011
6879 28.1599 9.3507 16.7421 4 0 6 1.0007
6880 27.186 10.2699 16.4056 4 0.115029 33 1.00128
6881 27.375 9.69573 17.4745 4 0 13 1.00096
6882 28.1016 10.3618 17.0396 4 0 9 1.00083
6883 27.2641 9.36475 16.1416 4 0 13 1.00101
6884 29.748 9.4577 16.9106 4 0 0 1.00046
6885 28.9514 10.1958 16.3524 4 0 1 1.00062
6886 28.9081 9.60363 17.3827 4 0 1 1.00052
6887 29.7751 10.3322 17.4314 4 0 0 1.00043
6888 28.9919 9.29698 16.0719 4 0 0 1.00058
6891 30.5654 10.1535 16.7973 4 0 0 1.00042
6892 30.3507 9.38773 16.0512 4 0 0 1.00047
6894 1.09637 11.1161 16.4174 4 0 0 1.00056
6897 1.0067 11.828 16.9896 4 0 0 1.0005
6898 1.88603 11.884 16.1552 4 0 0 1.00072
6899 1.83532 10.8766 17.2114 4 0 0 1.00053
6900 2.72348 11.1154 16.4521 4 0 3 1.00082
6901 2.37002 11.8851 16.9766 4 0 4 1.00073
6902 3.23364 11.0381 17.2393 4 0 9 1.00085
6903 3.43322 12.0071 16.2251 4 0 16 1.0013
6904 4.13045 10.9329 16.3224 4 0.104732 28 1.00145
6905 4.79847 11.7257 16.5188 4 0.181831 33 1.00228
6906 3.94079 11.7476 17.1326 4 0.115898 32 1.00137
6907 4.60932 10.9492 17.3784 4 0.144985 35 1.00152
6908 5.57008 11.1239 16.5405 4 0.21684 33 1.00286
6909 6.35496 11.8565 16.2384 4 0.288963 32 1.00503
6910 6.39633 11.1389 17.0468 4 0.269472 35 1.00372
6911 5.46742 11.8641 17.3868 4 0.231511 34 1.00269
6912 7.23162 11.0608 15.9415 4 0.319964 31 1.00661
6914 7.35534 11.7739 16.713 4 0.355274 33 1.00715
6915 7.88521 10.8419 16.704 4 0.354285 31 1.00715
7803 8.23786 11.6626 17.0347 4 0.411736 27 1.00926
6919 9.62459 11.0756 16.2148 4 0.476132 21 1.01854
7806 8.82447 10.865 17.1986 4 0.417075 29 1.00925
7809 9.83306 11.2449 17.5375 4 0.494699 15 1.01177
7808 9.14734 11.8746 17.5378 4 0.478398 21 1.01071
7807 10.2203 12.065 17.3612 0 0.533834 0 1.01822
8708 10.5511 12.4229 17.9926 0 0.549739 0 1.00414
7813 11.1474 11.4178 17.579 0 0.540917 0 1.01408
8711 11.1023 11.6369 18.29 0 0.548699 0 1.00378
6917 10.9576 11.6361 16.8802 0 0.539339 0 1.01756
6922 11.3257 10.9562 16.8786 0 0.533696 0 1.02476
491 10.2436 11.96 16.5986 0 0.532165 0 1.02536
7714 11.7633 10.827 17.5891 0 0.54108 0 1.01408
7815 11.8806 11.8058 17.0861 0 0.557657 0 1.00154
8714 12.7573 11.3955 17.3097 0 0.566386 0 0.999132
8618 13.003 10.9022 17.8385 0 0.560825 0 1.00229
6924 12.4219 10.7523 16.8178 0 0.546142 0 1.00821
6925 12.3455 11.3286 16.5071 0 0.550493 0 1.00088
7811 13.1845 11.0795 16.6871 0 0.559079 0 0.998354
7812 12.2654 11.0359 17.5929 0 0.55152 0 1.00531
7816 15.6433 11.0471 16.2111 0 0.570548 0 0.990945
6483 30.7701 13.5798 30.6073 4 0 0 0.999241
8616 14.1751 10.7853 17.0882 0 0.565032 0 0.998892
9477 15.5015 10.7949 16.9783 0 0.572278 0 0.996149
10367 16.7935 11.5727 16.3318 0 0.588139 0 0.98649
10461 14.7784 11.3456 16.6117 0 0.585256 0 0.991006
6926 14.1088 10.6112 16.5831 0 0.555945 0 1.00087
6928 16.3851 10.9667 16.1988 0 0.564574 0 0.991232
6842 14.8977 10.2828 16.8296 0 0.554058 0 1.00199
7727 16.1356 10.4219 17.2182 0 0.561114 0 0.99985
8624 16.9683 11.1659 16.8639 0 0.57733 0 0.994202
8626 19.1079 13.7662 15.9751 0 0.585214 0 0.967656
6845 18.9598 12.5613 16.3136 0 0.568389 0 0.982722
6304 29.6923 15.8258 30.6544 4 0 2 0.999248
7720 18.177 12.2422 16.2454 0 0.576683 0 0.979576
7730 17.7087 10.996 16.9357 0 0.565394 0 0.996761
489 9.68353 13.2094 16.3763 0 0.527763 0 1.01838
10377 17.8082 11.7123 16.7201 0 0.588795 0 0.988128
7722 16.4871 10.5705 16.7475 0 0.561275 0 0.997251
6943 17.3456 10.5602 16.6069 0 0.555995 0 0.999056
8630 19.6413 14.231 15.9731 0 0.587518 0 0.969268
7738 18.6553 10.8838 17.6415 0 0.555878 0 1.00313
8631 19.0784 11.5102 17.1156 0 0.563553 0 0.99719
8634 19.4002 12.4735 16.8486 0 0.576959 0 0.991162
7737 17.9373 10.6507 17.4201 0 0.55925 0 1.00219
1176 18.6331 10.8118 17.0035 0 0.55282 0 1.00253
3077 22.475 15.5769 16.1715 0 0.534361 0 1.0147
6850 19.9195 13.1226 16.3592 0 0.568668 0 0.982646
6847 18.4075 11.3678 16.6804 0 0.557976 0 0.993134
7742 19.858 10.5054 18.1428 0 0.540675 0 1.01624
8640 20.0056 12.6576 17.0156 0 0.567346 0 0.993737
7741 19.4114 11.0028 17.701 0 0.550418 0 1.00671
7740 20.3548 12.11 17.4389 0 0.5553 0 1.00259
970 20.7365 12.6345 16.7533 0 0.551123 0 0.997043
1174 19.5582 11.7024 16.5934 0 0.553502 0 0.995496
6854 19.8901 11.7369 17.2436 0 0.554798 0 1.00149
6856 20.098 11.0684 17.2153 0 0.542163 0 1.01503
6947 20.2049 12.2646 16.3938 0 0.552275 0 0.992819
6851 20.3957 13.6692 16.2543 0 0.565432 0 0.981075
6857 19.4892 10.6656 16.9889 0 0.541763 0 1.01525
1103 20.7447 11.1204 16.6268 0 0.53014 0 1.03668
7748 20.4718 11.2762 18.2086 0 0.54585 0 1.0132
964 21.5749 11.8297 16.7523 0 0.529782 0 1.0329
6951 21.0517 12.0939 17.3305 0 0.543465 0 1.01121
6948 21.4966 11.5921 17.5699 0 0.530011 0 1.02728
6860 20.6678 11.3116 17.5508 0 0.540134 0 1.01701
959 20.9178 11.8455 16.4942 0 0.540255 0 1.01538
6953 22.988 11.2772 16.1963 4 0.442071 26 1.02076
7852 22.2365 11.0086 16.5986 4 0.475168 22 1.02358
7854 22.2119 12.0544 17.8075 0 0.519923 0 1.02833
7856 23.2252 11.9436 16.811 4 0.454272 23 1.0196
6954 22.7106 11.8292 17.1541 0 0.510028 0 1.02469
933 23.1004 11.8366 16.0793 0 0.503418 0 1.0295
6957 24.7317 11.2373 16.6628 4 0.315889 33 1.00649
6958 23.8765 12.0863 16.2127 4 0.413766 32 1.0158
7858 24.2005 11.1726 17.4341 4 0.350966 32 1.00803
6961 25.0404 11.9079 17.3177 4 0.317674 35 1.00578
6962 26.2407 10.7816 16.4955 4 0.202885 33 1.00237
6963 25.8437 11.7785 16.5222 4 0.258766 32 1.0037
6964 25.6379 11.0524 17.4213 4 0.251044 32 1.0033
6966 26.7101 11.7107 17.0503 4 0.199952 30 1.00221
6967 28.1348 11.1176 16.0407 4 0 12 1.00095
6968 27.2973 11.5799 16.168 4 0.151662 32 1.00157
6969 27.2306 10.8875 17.1585 4 0.135716 32 1.00139
6970 28.1084 11.6736 16.9945 4 0 16 1.00102
6971 29.6983 10.9562 16.3818 4 0 0 1.00054
6972 28.8829 11.7552 16.0513 4 0 6 1.00075
6973 28.8451 10.9224 17.0269 4 0 6 1.00066
6974 29.5769 11.7002 17.0598 4 0 3 1.00054
6976 30.2429 11.7326 15.9427 4 0 0 1.00052
6977 30.3982 11.2151 17.2137 4 0 0 1.00041
6978 31.2324 12.0822 16.8121 4 0 0 1.0004
6979 0.901749 12.6065 16.0896 4 0 0 1.00061
6980 0.765927 13.5839 16.4996 4 0 0 1.00056
6981 1.62888 12.8245 16.6991 4 0 2 1.00066
6982 1.61461 13.5617 17.3436 4 0 1 1.00059
6984 0.810861 12.913 17.5124 4 0 0 1.00043
6985 1.70201 13.713 15.9491 4 0 2 1.0008
6986 2.51785 12.8632 16.1225 4 0 8 1.00099
6987 2.50011 13.6923 16.9158 4 0 10 1.00094
6988 3.19926 12.5904 16.8728 4 0 14 1.00115
6989 2.38234 12.7081 17.5684 4 0 5 1.0007
6990 3.2788 13.3749 17.5794 4 0.100676 34 1.00115
6991 3.33028 13.4242 16.2598 4 0.105414 35 1.00149
6992 4.29378 12.6973 16.3583 4 0.168918 31 1.00217
6993 4.93171 13.3743 16.4864 4 0.227996 32 1.00316
6994 4.15257 13.5241 17.1296 4 0.175638 32 1.00201
6995 4.12631 14.0981 16.0965 4 0.181586 34 1.00242
6996 4.80445 12.6175 17.4446 4 0.205494 33 1.00226
6997 5.44454 12.4768 16.4672 4 0.244487 30 1.00354
6998 6.31727 13.2925 16.3361 4 0.323638 32 1.00635
6999 6.30397 12.4468 17.1502 4 0.301148 30 1.00456
7000 5.62005 14.0363 16.2108 4 0.285742 34 1.00494
7001 5.63799 13.3264 17.2323 4 0.2749 33 1.00381
7002 6.44873 14.091 16.9619 4 0.348692 32 1.00674
7003 7.09606 12.6433 16.0799 4 0.36643 31 1.00899
7005 7.35364 13.5039 16.4977 4 0.407112 31 1.01075
7900 7.30145 12.5197 17.315 4 0.375554 32 1.007
7902 7.72657 13.5484 17.4879 4 0.433564 26 1.00958
7901 8.30593 13.2807 16.5426 4 0.469363 19 1.01418
7903 8.31424 12.6096 17.4933 4 0.448345 23 1.0097
7006 8.21137 12.7366 15.8823 4 0.451318 24 1.01621
7810 8.98388 12.4819 16.707 4 0.489809 19 1.01452
7010 9.13883 13.515 17.2042 0 0.525382 0 1.01666
8005 9.36622 14.3072 17.4391 0 0.538759 0 1.00892
7905 9.94292 13.2525 17.6716 0 0.544181 0 1.00741
8799 9.95087 13.8171 18.0912 0 0.551998 0 1.00435
7906 10.9677 12.3665 17.1691 0 0.552323 0 1.00486
8800 11.2772 12.6572 17.2872 0 0.563463 0 1.00003
7011 10.1652 12.7563 17.2584 0 0.540096 0 1.00947
8881 10.5099 13.799 17.0497 0 0.558034 0 0.999766
9647 11.7978 12.6402 16.5887 0 0.571068 0 0.995148
6983 1.75811 12.952 31.3275 4 0 0 0.999206
7904 10.8689 13.0933 16.741 0 0.554986 0 0.999487
7112 10.0316 13.4598 16.8905 0 0.54117 0 1.00614
7009 11.0342 12.2351 16.496 0 0.546798 0 1.00554
8713 13.9983 11.3521 16.4631 0 0.574125 0 0.992396
997 10.6862 11.3177 16.2335 0 0.528316 0 1.02842
6572 24.3236 13.7394 30.4152 4 0.332792 17 0.999328
11589 21.7087 15.7757 20.3284 0 0.566923 0 1.00353
9567 12.7728 12.0421 16.8153 0 0.579953 0 0.992714
6788 8.35913 12.701 30.0696 4 0.368656 17 0.999201
11460 13.3561 12.1389 16.2356 0 0.595464 0 0.983423
6478 0.194414 14.2676 31.2109 4 0 0 0.999225
4566 20.3886 10.6624 16.0853 0 0.53134 0 1.04479
6413 5.77938 15.6674 30.1638 4 0.265009 24 0.999207
6475 2.74528 14.398 30.311 4 0 12 0.999214
11369 15.9033 11.5473 16.5359 0 0.601629 0 0.989404
6896 1.74982 13.7279 30.3152 4 0 2 0.999218
1852 17.0182 8.07479 16.0145 0 0.510844 0 1.02673
6890 4.12946 13.3772 31.2753 4 0.149005 18 0.999196
6472 1.79823 14.4693 31.0171 4 0 1 0.999214
966 20.2601 11.4443 16.3296 0 0.542374 0 1.01052
1186 14.9427 9.58449 16.4424 0 0.539212 0 1.01749
6414 3.49786 14.2792 31.3751 4 0.124237 14 0.999199
11374 18.411 13.5538 15.9867 0 0.607544 0 0.961274
6479 1.09602 14.4894 30.2876 4 0 0 0.999225
3685 21.408 13.0025 16.1196 0 0.543875 0 1.00125
3599 8.69791 13.9275 16.3858 0 0.520748 0 1.01882
6308 26.9376 14.1428 31.5038 4 0.190512 18 0.999264
1184 14.1458 9.93066 16.3871 0 0.542424 0 1.01426
6314 27.9859 14.7654 31.4368 4 0.139318 20 0.999255
6481 31.4354 13.329 31.253 4 0 0 0.999229
6303 28.9544 15.8537 31.5462 4 0 6 0.999246
18863 9.79316 15.7614 16.4614 0 0.550005 0 1.00117
6482 30.3288 12.4914 30.9041 4 0 0 0.999245
6802 4.12589 12.4435 30.4326 4 0.1368 29 0.999201
10383 19.4475 15.238 15.9899 0 0.593891 0 0.966724
3778 10.4239 12.7162 16.3325 0 0.540696 0 1.01007
6889 4.95621 13.5881 30.152 4 0.206089 31 0.999204
7743 20.2732 14.7327 16.1221 0 0.573743 0 0.974842
6466 3.55647 15.1068 30.2808 4 0.133214 30 0.999211
6484 30.0608 13.2201 31.4091 4 0 1 0.999242
9589 20.6171 14.1818 16.7342 0 0.57669 0 0.986264
6490 29.355 12.3528 31.6093 4 0 2 0.999247
6801 3.49064 13.2599 30.3314 4 0.106268 26 0.999207
6944 20.674 15.0592 16.4581 0 0.565605 0 0.982026
6474 1.89683 15.2341 30.1836 4 0 4 0.999222