Sinusoidal surface atom positions

10500 atoms
2 atom types

0.0 10.0 xlo xhi
-0.9998741276738751 10.999874127673875 ylo yhi
-0.010000000000000002 0.010000000000000002 zlo zhi

Masses 

1 0.25 
2 0.25 

Atoms # rheo 

1 2 1.0 1.0 0 0.0 0.0 0.0 0 0 0
2 2 1.0 1.0 0 0.0 10.0 0.0 0 0 0
3 1 1.0 1.0 0 0.0 0.0 0.0 0 0 0
4 1 1.0 1.0 0 0.0 0.10101010101010101 0.0 0 0 0
5 1 1.0 1.0 0 0.0 0.20202020202020202 0.0 0 0 0
6 1 1.0 1.0 0 0.0 0.30303030303030304 0.0 0 0 0
7 1 1.0 1.0 0 0.0 0.40404040404040403 0.0 0 0 0
8 1 1.0 1.0 0 0.0 0.5050505050505051 0.0 0 0 0
9 1 1.0 1.0 0 0.0 0.6060606060606061 0.0 0 0 0
10 1 1.0 1.0 0 0.0 0.7070707070707071 0.0 0 0 0
11 1 1.0 1.0 0 0.0 0.8080808080808081 0.0 0 0 0
12 1 1.0 1.0 0 0.0 0.9090909090909091 0.0 0 0 0
13 1 1.0 1.0 0 0.0 1.0101010101010102 0.0 0 0 0
14 1 1.0 1.0 0 0.0 1.1111111111111112 0.0 0 0 0
15 1 1.0 1.0 0 0.0 1.2121212121212122 0.0 0 0 0
16 1 1.0 1.0 0 0.0 1.3131313131313131 0.0 0 0 0
17 1 1.0 1.0 0 0.0 1.4141414141414141 0.0 0 0 0
18 1 1.0 1.0 0 0.0 1.5151515151515151 0.0 0 0 0
19 1 1.0 1.0 0 0.0 1.6161616161616161 0.0 0 0 0
20 1 1.0 1.0 0 0.0 1.7171717171717171 0.0 0 0 0
21 1 1.0 1.0 0 0.0 1.8181818181818181 0.0 0 0 0
22 1 1.0 1.0 0 0.0 1.9191919191919191 0.0 0 0 0
23 1 1.0 1.0 0 0.0 2.0202020202020203 0.0 0 0 0
24 1 1.0 1.0 0 0.0 2.121212121212121 0.0 0 0 0
25 1 1.0 1.0 0 0.0 2.2222222222222223 0.0 0 0 0
26 1 1.0 1.0 0 0.0 2.323232323232323 0.0 0 0 0
27 1 1.0 1.0 0 0.0 2.4242424242424243 0.0 0 0 0
28 1 1.0 1.0 0 0.0 2.525252525252525 0.0 0 0 0
29 1 1.0 1.0 0 0.0 2.6262626262626263 0.0 0 0 0
30 1 1.0 1.0 0 0.0 2.727272727272727 0.0 0 0 0
31 1 1.0 1.0 0 0.0 2.8282828282828283 0.0 0 0 0
32 1 1.0 1.0 0 0.0 2.929292929292929 0.0 0 0 0
33 1 1.0 1.0 0 0.0 3.0303030303030303 0.0 0 0 0
34 1 1.0 1.0 0 0.0 3.131313131313131 0.0 0 0 0
35 1 1.0 1.0 0 0.0 3.2323232323232323 0.0 0 0 0
36 1 1.0 1.0 0 0.0 3.3333333333333335 0.0 0 0 0
37 1 1.0 1.0 0 0.0 3.4343434343434343 0.0 0 0 0
38 1 1.0 1.0 0 0.0 3.5353535353535355 0.0 0 0 0
39 1 1.0 1.0 0 0.0 3.6363636363636362 0.0 0 0 0
40 1 1.0 1.0 0 0.0 3.7373737373737375 0.0 0 0 0
41 1 1.0 1.0 0 0.0 3.8383838383838382 0.0 0 0 0
42 1 1.0 1.0 0 0.0 3.9393939393939394 0.0 0 0 0
43 1 1.0 1.0 0 0.0 4.040404040404041 0.0 0 0 0
44 1 1.0 1.0 0 0.0 4.141414141414141 0.0 0 0 0
45 1 1.0 1.0 0 0.0 4.242424242424242 0.0 0 0 0
46 1 1.0 1.0 0 0.0 4.343434343434343 0.0 0 0 0
47 1 1.0 1.0 0 0.0 4.444444444444445 0.0 0 0 0
48 1 1.0 1.0 0 0.0 4.545454545454545 0.0 0 0 0
49 1 1.0 1.0 0 0.0 4.646464646464646 0.0 0 0 0
50 1 1.0 1.0 0 0.0 4.747474747474747 0.0 0 0 0
51 1 1.0 1.0 0 0.0 4.848484848484849 0.0 0 0 0
52 1 1.0 1.0 0 0.0 4.94949494949495 0.0 0 0 0
53 1 1.0 1.0 0 0.0 5.05050505050505 0.0 0 0 0
54 1 1.0 1.0 0 0.0 5.151515151515151 0.0 0 0 0
55 1 1.0 1.0 0 0.0 5.252525252525253 0.0 0 0 0
56 1 1.0 1.0 0 0.0 5.353535353535354 0.0 0 0 0
57 1 1.0 1.0 0 0.0 5.454545454545454 0.0 0 0 0
58 1 1.0 1.0 0 0.0 5.555555555555555 0.0 0 0 0
59 1 1.0 1.0 0 0.0 5.656565656565657 0.0 0 0 0
60 1 1.0 1.0 0 0.0 5.757575757575758 0.0 0 0 0
61 1 1.0 1.0 0 0.0 5.858585858585858 0.0 0 0 0
62 1 1.0 1.0 0 0.0 5.959595959595959 0.0 0 0 0
63 1 1.0 1.0 0 0.0 6.0606060606060606 0.0 0 0 0
64 1 1.0 1.0 0 0.0 6.161616161616162 0.0 0 0 0
65 1 1.0 1.0 0 0.0 6.262626262626262 0.0 0 0 0
66 1 1.0 1.0 0 0.0 6.363636363636363 0.0 0 0 0
67 1 1.0 1.0 0 0.0 6.4646464646464645 0.0 0 0 0
68 1 1.0 1.0 0 0.0 6.565656565656566 0.0 0 0 0
69 1 1.0 1.0 0 0.0 6.666666666666667 0.0 0 0 0
70 1 1.0 1.0 0 0.0 6.767676767676767 0.0 0 0 0
71 1 1.0 1.0 0 0.0 6.8686868686868685 0.0 0 0 0
72 1 1.0 1.0 0 0.0 6.96969696969697 0.0 0 0 0
73 1 1.0 1.0 0 0.0 7.070707070707071 0.0 0 0 0
74 1 1.0 1.0 0 0.0 7.171717171717171 0.0 0 0 0
75 1 1.0 1.0 0 0.0 7.2727272727272725 0.0 0 0 0
76 1 1.0 1.0 0 0.0 7.373737373737374 0.0 0 0 0
77 1 1.0 1.0 0 0.0 7.474747474747475 0.0 0 0 0
78 1 1.0 1.0 0 0.0 7.575757575757575 0.0 0 0 0
79 1 1.0 1.0 0 0.0 7.6767676767676765 0.0 0 0 0
80 1 1.0 1.0 0 0.0 7.777777777777778 0.0 0 0 0
81 1 1.0 1.0 0 0.0 7.878787878787879 0.0 0 0 0
82 1 1.0 1.0 0 0.0 7.979797979797979 0.0 0 0 0
83 1 1.0 1.0 0 0.0 8.080808080808081 0.0 0 0 0
84 1 1.0 1.0 0 0.0 8.181818181818182 0.0 0 0 0
85 1 1.0 1.0 0 0.0 8.282828282828282 0.0 0 0 0
86 1 1.0 1.0 0 0.0 8.383838383838384 0.0 0 0 0
87 1 1.0 1.0 0 0.0 8.484848484848484 0.0 0 0 0
88 1 1.0 1.0 0 0.0 8.585858585858587 0.0 0 0 0
89 1 1.0 1.0 0 0.0 8.686868686868687 0.0 0 0 0
90 1 1.0 1.0 0 0.0 8.787878787878787 0.0 0 0 0
91 1 1.0 1.0 0 0.0 8.88888888888889 0.0 0 0 0
92 1 1.0 1.0 0 0.0 8.98989898989899 0.0 0 0 0
93 1 1.0 1.0 0 0.0 9.09090909090909 0.0 0 0 0
94 1 1.0 1.0 0 0.0 9.191919191919192 0.0 0 0 0
95 1 1.0 1.0 0 0.0 9.292929292929292 0.0 0 0 0
96 1 1.0 1.0 0 0.0 9.393939393939394 0.0 0 0 0
97 1 1.0 1.0 0 0.0 9.494949494949495 0.0 0 0 0
98 1 1.0 1.0 0 0.0 9.595959595959595 0.0 0 0 0
99 1 1.0 1.0 0 0.0 9.696969696969697 0.0 0 0 0
100 1 1.0 1.0 0 0.0 9.797979797979798 0.0 0 0 0
101 1 1.0 1.0 0 0.0 9.8989898989899 0.0 0 0 0
102 1 1.0 1.0 0 0.0 10.0 0.0 0 0 0
103 2 1.0 1.0 0 10.0 -2.4492935982947064e-16 0.0 0 0 0
104 2 1.0 1.0 0 10.0 10.0 0.0 0 0 0
105 1 1.0 1.0 0 10.0 10.0 0.0 0 0 0
106 2 1.0 1.0 0 0.10101010101010101 0.0634239196565645 0.0 0 0 0
107 2 1.0 1.0 0 0.10101010101010101 10.063423919656564 0.0 0 0 0
108 1 1.0 1.0 0 0.10101010101010101 0.0634239196565645 0.0 0 0 0
109 1 1.0 1.0 0 0.10101010101010101 0.16443402066666551 0.0 0 0 0
110 1 1.0 1.0 0 0.10101010101010101 0.2654441216767665 0.0 0 0 0
111 1 1.0 1.0 0 0.10101010101010101 0.36645422268686756 0.0 0 0 0
112 1 1.0 1.0 0 0.10101010101010101 0.46746432369696855 0.0 0 0 0
113 1 1.0 1.0 0 0.10101010101010101 0.5684744247070695 0.0 0 0 0
114 1 1.0 1.0 0 0.10101010101010101 0.6694845257171705 0.0 0 0 0
115 1 1.0 1.0 0 0.10101010101010101 0.7704946267272715 0.0 0 0 0
116 1 1.0 1.0 0 0.10101010101010101 0.8715047277373725 0.0 0 0 0
117 1 1.0 1.0 0 0.10101010101010101 0.9725148287474735 0.0 0 0 0
118 1 1.0 1.0 0 0.10101010101010101 1.0735249297575746 0.0 0 0 0
119 1 1.0 1.0 0 0.10101010101010101 1.1745350307676756 0.0 0 0 0
120 1 1.0 1.0 0 0.10101010101010101 1.2755451317777766 0.0 0 0 0
121 1 1.0 1.0 0 0.10101010101010101 1.3765552327878776 0.0 0 0 0
122 1 1.0 1.0 0 0.10101010101010101 1.4775653337979786 0.0 0 0 0
123 1 1.0 1.0 0 0.10101010101010101 1.5785754348080796 0.0 0 0 0
124 1 1.0 1.0 0 0.10101010101010101 1.6795855358181806 0.0 0 0 0
125 1 1.0 1.0 0 0.10101010101010101 1.7805956368282816 0.0 0 0 0
126 1 1.0 1.0 0 0.10101010101010101 1.8816057378383826 0.0 0 0 0
127 1 1.0 1.0 0 0.10101010101010101 1.9826158388484836 0.0 0 0 0
128 1 1.0 1.0 0 0.10101010101010101 2.083625939858585 0.0 0 0 0
129 1 1.0 1.0 0 0.10101010101010101 2.1846360408686856 0.0 0 0 0
130 1 1.0 1.0 0 0.10101010101010101 2.285646141878787 0.0 0 0 0
131 1 1.0 1.0 0 0.10101010101010101 2.3866562428888876 0.0 0 0 0
132 1 1.0 1.0 0 0.10101010101010101 2.4876663438989888 0.0 0 0 0
133 1 1.0 1.0 0 0.10101010101010101 2.5886764449090895 0.0 0 0 0
134 1 1.0 1.0 0 0.10101010101010101 2.6896865459191908 0.0 0 0 0
135 1 1.0 1.0 0 0.10101010101010101 2.7906966469292915 0.0 0 0 0
136 1 1.0 1.0 0 0.10101010101010101 2.8917067479393928 0.0 0 0 0
137 1 1.0 1.0 0 0.10101010101010101 2.9927168489494935 0.0 0 0 0
138 1 1.0 1.0 0 0.10101010101010101 3.0937269499595947 0.0 0 0 0
139 1 1.0 1.0 0 0.10101010101010101 3.1947370509696955 0.0 0 0 0
140 1 1.0 1.0 0 0.10101010101010101 3.2957471519797967 0.0 0 0 0
141 1 1.0 1.0 0 0.10101010101010101 3.396757252989898 0.0 0 0 0
142 1 1.0 1.0 0 0.10101010101010101 3.4977673539999987 0.0 0 0 0
143 1 1.0 1.0 0 0.10101010101010101 3.5987774550101 0.0 0 0 0
144 1 1.0 1.0 0 0.10101010101010101 3.6997875560202007 0.0 0 0 0
145 1 1.0 1.0 0 0.10101010101010101 3.800797657030302 0.0 0 0 0
146 1 1.0 1.0 0 0.10101010101010101 3.9018077580404027 0.0 0 0 0
147 1 1.0 1.0 0 0.10101010101010101 4.002817859050504 0.0 0 0 0
148 1 1.0 1.0 0 0.10101010101010101 4.103827960060605 0.0 0 0 0
149 1 1.0 1.0 0 0.10101010101010101 4.2048380610707055 0.0 0 0 0
150 1 1.0 1.0 0 0.10101010101010101 4.305848162080807 0.0 0 0 0
151 1 1.0 1.0 0 0.10101010101010101 4.406858263090908 0.0 0 0 0
152 1 1.0 1.0 0 0.10101010101010101 4.507868364101009 0.0 0 0 0
153 1 1.0 1.0 0 0.10101010101010101 4.608878465111109 0.0 0 0 0
154 1 1.0 1.0 0 0.10101010101010101 4.709888566121211 0.0 0 0 0
155 1 1.0 1.0 0 0.10101010101010101 4.810898667131312 0.0 0 0 0
156 1 1.0 1.0 0 0.10101010101010101 4.911908768141413 0.0 0 0 0
157 1 1.0 1.0 0 0.10101010101010101 5.012918869151514 0.0 0 0 0
158 1 1.0 1.0 0 0.10101010101010101 5.113928970161615 0.0 0 0 0
159 1 1.0 1.0 0 0.10101010101010101 5.214939071171716 0.0 0 0 0
160 1 1.0 1.0 0 0.10101010101010101 5.315949172181817 0.0 0 0 0
161 1 1.0 1.0 0 0.10101010101010101 5.416959273191918 0.0 0 0 0
162 1 1.0 1.0 0 0.10101010101010101 5.517969374202019 0.0 0 0 0
163 1 1.0 1.0 0 0.10101010101010101 5.61897947521212 0.0 0 0 0
164 1 1.0 1.0 0 0.10101010101010101 5.719989576222221 0.0 0 0 0
165 1 1.0 1.0 0 0.10101010101010101 5.820999677232322 0.0 0 0 0
166 1 1.0 1.0 0 0.10101010101010101 5.922009778242423 0.0 0 0 0
167 1 1.0 1.0 0 0.10101010101010101 6.023019879252524 0.0 0 0 0
168 1 1.0 1.0 0 0.10101010101010101 6.124029980262625 0.0 0 0 0
169 1 1.0 1.0 0 0.10101010101010101 6.225040081272726 0.0 0 0 0
170 1 1.0 1.0 0 0.10101010101010101 6.326050182282827 0.0 0 0 0
171 1 1.0 1.0 0 0.10101010101010101 6.427060283292928 0.0 0 0 0
172 1 1.0 1.0 0 0.10101010101010101 6.528070384303029 0.0 0 0 0
173 1 1.0 1.0 0 0.10101010101010101 6.62908048531313 0.0 0 0 0
174 1 1.0 1.0 0 0.10101010101010101 6.730090586323231 0.0 0 0 0
175 1 1.0 1.0 0 0.10101010101010101 6.831100687333332 0.0 0 0 0
176 1 1.0 1.0 0 0.10101010101010101 6.932110788343433 0.0 0 0 0
177 1 1.0 1.0 0 0.10101010101010101 7.033120889353534 0.0 0 0 0
178 1 1.0 1.0 0 0.10101010101010101 7.134130990363635 0.0 0 0 0
179 1 1.0 1.0 0 0.10101010101010101 7.235141091373736 0.0 0 0 0
180 1 1.0 1.0 0 0.10101010101010101 7.336151192383837 0.0 0 0 0
181 1 1.0 1.0 0 0.10101010101010101 7.437161293393938 0.0 0 0 0
182 1 1.0 1.0 0 0.10101010101010101 7.538171394404039 0.0 0 0 0
183 1 1.0 1.0 0 0.10101010101010101 7.63918149541414 0.0 0 0 0
184 1 1.0 1.0 0 0.10101010101010101 7.740191596424241 0.0 0 0 0
185 1 1.0 1.0 0 0.10101010101010101 7.841201697434342 0.0 0 0 0
186 1 1.0 1.0 0 0.10101010101010101 7.942211798444443 0.0 0 0 0
187 1 1.0 1.0 0 0.10101010101010101 8.043221899454544 0.0 0 0 0
188 1 1.0 1.0 0 0.10101010101010101 8.144232000464646 0.0 0 0 0
189 1 1.0 1.0 0 0.10101010101010101 8.245242101474746 0.0 0 0 0
190 1 1.0 1.0 0 0.10101010101010101 8.346252202484846 0.0 0 0 0
191 1 1.0 1.0 0 0.10101010101010101 8.447262303494949 0.0 0 0 0
192 1 1.0 1.0 0 0.10101010101010101 8.548272404505049 0.0 0 0 0
193 1 1.0 1.0 0 0.10101010101010101 8.649282505515151 0.0 0 0 0
194 1 1.0 1.0 0 0.10101010101010101 8.750292606525251 0.0 0 0 0
195 1 1.0 1.0 0 0.10101010101010101 8.851302707535352 0.0 0 0 0
196 1 1.0 1.0 0 0.10101010101010101 8.952312808545454 0.0 0 0 0
197 1 1.0 1.0 0 0.10101010101010101 9.053322909555554 0.0 0 0 0
198 1 1.0 1.0 0 0.10101010101010101 9.154333010565654 0.0 0 0 0
199 1 1.0 1.0 0 0.10101010101010101 9.255343111575757 0.0 0 0 0
200 1 1.0 1.0 0 0.10101010101010101 9.356353212585857 0.0 0 0 0
201 1 1.0 1.0 0 0.10101010101010101 9.457363313595959 0.0 0 0 0
202 1 1.0 1.0 0 0.10101010101010101 9.55837341460606 0.0 0 0 0
203 1 1.0 1.0 0 0.10101010101010101 9.65938351561616 0.0 0 0 0
204 1 1.0 1.0 0 0.10101010101010101 9.760393616626262 0.0 0 0 0
205 1 1.0 1.0 0 0.10101010101010101 9.861403717636362 0.0 0 0 0
206 1 1.0 1.0 0 0.10101010101010101 9.962413818646464 0.0 0 0 0
207 1 1.0 1.0 0 0.10101010101010101 10.063423919656564 0.0 0 0 0
208 2 1.0 1.0 0 10.0 -2.4492935982947064e-16 0.0 0 0 0
209 2 1.0 1.0 0 10.0 10.0 0.0 0 0 0
210 1 1.0 1.0 0 10.0 10.0 0.0 0 0 0
211 2 1.0 1.0 0 0.20202020202020202 0.12659245357374926 0.0 0 0 0
212 2 1.0 1.0 0 0.20202020202020202 10.12659245357375 0.0 0 0 0
213 1 1.0 1.0 0 0.20202020202020202 0.12659245357374926 0.0 0 0 0
214 1 1.0 1.0 0 0.20202020202020202 0.22760255458385026 0.0 0 0 0
215 1 1.0 1.0 0 0.20202020202020202 0.32861265559395125 0.0 0 0 0
216 1 1.0 1.0 0 0.20202020202020202 0.4296227566040523 0.0 0 0 0
217 1 1.0 1.0 0 0.20202020202020202 0.5306328576141532 0.0 0 0 0
218 1 1.0 1.0 0 0.20202020202020202 0.6316429586242543 0.0 0 0 0
219 1 1.0 1.0 0 0.20202020202020202 0.7326530596343553 0.0 0 0 0
220 1 1.0 1.0 0 0.20202020202020202 0.8336631606444563 0.0 0 0 0
221 1 1.0 1.0 0 0.20202020202020202 0.9346732616545573 0.0 0 0 0
222 1 1.0 1.0 0 0.20202020202020202 1.0356833626646584 0.0 0 0 0
223 1 1.0 1.0 0 0.20202020202020202 1.1366934636747594 0.0 0 0 0
224 1 1.0 1.0 0 0.20202020202020202 1.2377035646848604 0.0 0 0 0
225 1 1.0 1.0 0 0.20202020202020202 1.3387136656949614 0.0 0 0 0
226 1 1.0 1.0 0 0.20202020202020202 1.4397237667050624 0.0 0 0 0
227 1 1.0 1.0 0 0.20202020202020202 1.5407338677151634 0.0 0 0 0
228 1 1.0 1.0 0 0.20202020202020202 1.6417439687252644 0.0 0 0 0
229 1 1.0 1.0 0 0.20202020202020202 1.7427540697353654 0.0 0 0 0
230 1 1.0 1.0 0 0.20202020202020202 1.8437641707454664 0.0 0 0 0
231 1 1.0 1.0 0 0.20202020202020202 1.9447742717555674 0.0 0 0 0
232 1 1.0 1.0 0 0.20202020202020202 2.0457843727656684 0.0 0 0 0
233 1 1.0 1.0 0 0.20202020202020202 2.1467944737757696 0.0 0 0 0
234 1 1.0 1.0 0 0.20202020202020202 2.2478045747858704 0.0 0 0 0
235 1 1.0 1.0 0 0.20202020202020202 2.3488146757959716 0.0 0 0 0
236 1 1.0 1.0 0 0.20202020202020202 2.4498247768060724 0.0 0 0 0
237 1 1.0 1.0 0 0.20202020202020202 2.5508348778161736 0.0 0 0 0
238 1 1.0 1.0 0 0.20202020202020202 2.6518449788262743 0.0 0 0 0
239 1 1.0 1.0 0 0.20202020202020202 2.7528550798363756 0.0 0 0 0
240 1 1.0 1.0 0 0.20202020202020202 2.8538651808464763 0.0 0 0 0
241 1 1.0 1.0 0 0.20202020202020202 2.9548752818565776 0.0 0 0 0
242 1 1.0 1.0 0 0.20202020202020202 3.0558853828666783 0.0 0 0 0
243 1 1.0 1.0 0 0.20202020202020202 3.1568954838767795 0.0 0 0 0
244 1 1.0 1.0 0 0.20202020202020202 3.2579055848868803 0.0 0 0 0
245 1 1.0 1.0 0 0.20202020202020202 3.3589156858969815 0.0 0 0 0
246 1 1.0 1.0 0 0.20202020202020202 3.4599257869070827 0.0 0 0 0
247 1 1.0 1.0 0 0.20202020202020202 3.5609358879171835 0.0 0 0 0
248 1 1.0 1.0 0 0.20202020202020202 3.6619459889272847 0.0 0 0 0
249 1 1.0 1.0 0 0.20202020202020202 3.7629560899373855 0.0 0 0 0
250 1 1.0 1.0 0 0.20202020202020202 3.8639661909474867 0.0 0 0 0
251 1 1.0 1.0 0 0.20202020202020202 3.9649762919575875 0.0 0 0 0
252 1 1.0 1.0 0 0.20202020202020202 4.065986392967689 0.0 0 0 0
253 1 1.0 1.0 0 0.20202020202020202 4.1669964939777895 0.0 0 0 0
254 1 1.0 1.0 0 0.20202020202020202 4.26800659498789 0.0 0 0 0
255 1 1.0 1.0 0 0.20202020202020202 4.369016695997992 0.0 0 0 0
256 1 1.0 1.0 0 0.20202020202020202 4.470026797008092 0.0 0 0 0
257 1 1.0 1.0 0 0.20202020202020202 4.571036898018194 0.0 0 0 0
258 1 1.0 1.0 0 0.20202020202020202 4.672046999028295 0.0 0 0 0
259 1 1.0 1.0 0 0.20202020202020202 4.773057100038395 0.0 0 0 0
260 1 1.0 1.0 0 0.20202020202020202 4.874067201048497 0.0 0 0 0
261 1 1.0 1.0 0 0.20202020202020202 4.975077302058597 0.0 0 0 0
262 1 1.0 1.0 0 0.20202020202020202 5.0760874030686995 0.0 0 0 0
263 1 1.0 1.0 0 0.20202020202020202 5.1770975040788 0.0 0 0 0
264 1 1.0 1.0 0 0.20202020202020202 5.2781076050889 0.0 0 0 0
265 1 1.0 1.0 0 0.20202020202020202 5.379117706099002 0.0 0 0 0
266 1 1.0 1.0 0 0.20202020202020202 5.480127807109103 0.0 0 0 0
267 1 1.0 1.0 0 0.20202020202020202 5.581137908119203 0.0 0 0 0
268 1 1.0 1.0 0 0.20202020202020202 5.682148009129305 0.0 0 0 0
269 1 1.0 1.0 0 0.20202020202020202 5.783158110139405 0.0 0 0 0
270 1 1.0 1.0 0 0.20202020202020202 5.8841682111495075 0.0 0 0 0
271 1 1.0 1.0 0 0.20202020202020202 5.985178312159608 0.0 0 0 0
272 1 1.0 1.0 0 0.20202020202020202 6.086188413169708 0.0 0 0 0
273 1 1.0 1.0 0 0.20202020202020202 6.18719851417981 0.0 0 0 0
274 1 1.0 1.0 0 0.20202020202020202 6.288208615189911 0.0 0 0 0
275 1 1.0 1.0 0 0.20202020202020202 6.389218716200011 0.0 0 0 0
276 1 1.0 1.0 0 0.20202020202020202 6.490228817210113 0.0 0 0 0
277 1 1.0 1.0 0 0.20202020202020202 6.591238918220213 0.0 0 0 0
278 1 1.0 1.0 0 0.20202020202020202 6.6922490192303155 0.0 0 0 0
279 1 1.0 1.0 0 0.20202020202020202 6.793259120240416 0.0 0 0 0
280 1 1.0 1.0 0 0.20202020202020202 6.894269221250516 0.0 0 0 0
281 1 1.0 1.0 0 0.20202020202020202 6.995279322260618 0.0 0 0 0
282 1 1.0 1.0 0 0.20202020202020202 7.0962894232707185 0.0 0 0 0
283 1 1.0 1.0 0 0.20202020202020202 7.197299524280821 0.0 0 0 0
284 1 1.0 1.0 0 0.20202020202020202 7.298309625290921 0.0 0 0 0
285 1 1.0 1.0 0 0.20202020202020202 7.399319726301021 0.0 0 0 0
286 1 1.0 1.0 0 0.20202020202020202 7.500329827311123 0.0 0 0 0
287 1 1.0 1.0 0 0.20202020202020202 7.601339928321224 0.0 0 0 0
288 1 1.0 1.0 0 0.20202020202020202 7.702350029331324 0.0 0 0 0
289 1 1.0 1.0 0 0.20202020202020202 7.803360130341426 0.0 0 0 0
290 1 1.0 1.0 0 0.20202020202020202 7.9043702313515265 0.0 0 0 0
291 1 1.0 1.0 0 0.20202020202020202 8.005380332361629 0.0 0 0 0
292 1 1.0 1.0 0 0.20202020202020202 8.106390433371729 0.0 0 0 0
293 1 1.0 1.0 0 0.20202020202020202 8.207400534381831 0.0 0 0 0
294 1 1.0 1.0 0 0.20202020202020202 8.308410635391931 0.0 0 0 0
295 1 1.0 1.0 0 0.20202020202020202 8.409420736402032 0.0 0 0 0
296 1 1.0 1.0 0 0.20202020202020202 8.510430837412134 0.0 0 0 0
297 1 1.0 1.0 0 0.20202020202020202 8.611440938422234 0.0 0 0 0
298 1 1.0 1.0 0 0.20202020202020202 8.712451039432336 0.0 0 0 0
299 1 1.0 1.0 0 0.20202020202020202 8.813461140442437 0.0 0 0 0
300 1 1.0 1.0 0 0.20202020202020202 8.914471241452537 0.0 0 0 0
301 1 1.0 1.0 0 0.20202020202020202 9.015481342462639 0.0 0 0 0
302 1 1.0 1.0 0 0.20202020202020202 9.11649144347274 0.0 0 0 0
303 1 1.0 1.0 0 0.20202020202020202 9.21750154448284 0.0 0 0 0
304 1 1.0 1.0 0 0.20202020202020202 9.318511645492942 0.0 0 0 0
305 1 1.0 1.0 0 0.20202020202020202 9.419521746503042 0.0 0 0 0
306 1 1.0 1.0 0 0.20202020202020202 9.520531847513144 0.0 0 0 0
307 1 1.0 1.0 0 0.20202020202020202 9.621541948523245 0.0 0 0 0
308 1 1.0 1.0 0 0.20202020202020202 9.722552049533345 0.0 0 0 0
309 1 1.0 1.0 0 0.20202020202020202 9.823562150543447 0.0 0 0 0
310 1 1.0 1.0 0 0.20202020202020202 9.924572251553547 0.0 0 0 0
311 1 1.0 1.0 0 0.20202020202020202 10.02558235256365 0.0 0 0 0
312 1 1.0 1.0 0 0.20202020202020202 10.12659245357375 0.0 0 0 0
313 2 1.0 1.0 0 10.0 -2.4492935982947064e-16 0.0 0 0 0
314 2 1.0 1.0 0 10.0 10.0 0.0 0 0 0
315 1 1.0 1.0 0 10.0 10.0 0.0 0 0 0
316 2 1.0 1.0 0 0.30303030303030304 0.18925124436041021 0.0 0 0 0
317 2 1.0 1.0 0 0.30303030303030304 10.18925124436041 0.0 0 0 0
318 1 1.0 1.0 0 0.30303030303030304 0.18925124436041021 0.0 0 0 0
319 1 1.0 1.0 0 0.30303030303030304 0.29026134537051124 0.0 0 0 0
320 1 1.0 1.0 0 0.30303030303030304 0.39127144638061223 0.0 0 0 0
321 1 1.0 1.0 0 0.30303030303030304 0.4922815473907133 0.0 0 0 0
322 1 1.0 1.0 0 0.30303030303030304 0.5932916484008143 0.0 0 0 0
323 1 1.0 1.0 0 0.30303030303030304 0.6943017494109153 0.0 0 0 0
324 1 1.0 1.0 0 0.30303030303030304 0.7953118504210163 0.0 0 0 0
325 1 1.0 1.0 0 0.30303030303030304 0.8963219514311173 0.0 0 0 0
326 1 1.0 1.0 0 0.30303030303030304 0.9973320524412183 0.0 0 0 0
327 1 1.0 1.0 0 0.30303030303030304 1.0983421534513194 0.0 0 0 0
328 1 1.0 1.0 0 0.30303030303030304 1.1993522544614204 0.0 0 0 0
329 1 1.0 1.0 0 0.30303030303030304 1.3003623554715213 0.0 0 0 0
330 1 1.0 1.0 0 0.30303030303030304 1.4013724564816223 0.0 0 0 0
331 1 1.0 1.0 0 0.30303030303030304 1.5023825574917233 0.0 0 0 0
332 1 1.0 1.0 0 0.30303030303030304 1.6033926585018243 0.0 0 0 0
333 1 1.0 1.0 0 0.30303030303030304 1.7044027595119253 0.0 0 0 0
334 1 1.0 1.0 0 0.30303030303030304 1.8054128605220263 0.0 0 0 0
335 1 1.0 1.0 0 0.30303030303030304 1.9064229615321273 0.0 0 0 0
336 1 1.0 1.0 0 0.30303030303030304 2.0074330625422285 0.0 0 0 0
337 1 1.0 1.0 0 0.30303030303030304 2.1084431635523293 0.0 0 0 0
338 1 1.0 1.0 0 0.30303030303030304 2.2094532645624305 0.0 0 0 0
339 1 1.0 1.0 0 0.30303030303030304 2.3104633655725313 0.0 0 0 0
340 1 1.0 1.0 0 0.30303030303030304 2.4114734665826325 0.0 0 0 0
341 1 1.0 1.0 0 0.30303030303030304 2.5124835675927333 0.0 0 0 0
342 1 1.0 1.0 0 0.30303030303030304 2.6134936686028345 0.0 0 0 0
343 1 1.0 1.0 0 0.30303030303030304 2.7145037696129353 0.0 0 0 0
344 1 1.0 1.0 0 0.30303030303030304 2.8155138706230365 0.0 0 0 0
345 1 1.0 1.0 0 0.30303030303030304 2.9165239716331373 0.0 0 0 0
346 1 1.0 1.0 0 0.30303030303030304 3.0175340726432385 0.0 0 0 0
347 1 1.0 1.0 0 0.30303030303030304 3.1185441736533392 0.0 0 0 0
348 1 1.0 1.0 0 0.30303030303030304 3.2195542746634405 0.0 0 0 0
349 1 1.0 1.0 0 0.30303030303030304 3.3205643756735412 0.0 0 0 0
350 1 1.0 1.0 0 0.30303030303030304 3.4215744766836425 0.0 0 0 0
351 1 1.0 1.0 0 0.30303030303030304 3.5225845776937437 0.0 0 0 0
352 1 1.0 1.0 0 0.30303030303030304 3.6235946787038444 0.0 0 0 0
353 1 1.0 1.0 0 0.30303030303030304 3.7246047797139457 0.0 0 0 0
354 1 1.0 1.0 0 0.30303030303030304 3.8256148807240464 0.0 0 0 0
355 1 1.0 1.0 0 0.30303030303030304 3.9266249817341476 0.0 0 0 0
356 1 1.0 1.0 0 0.30303030303030304 4.027635082744249 0.0 0 0 0
357 1 1.0 1.0 0 0.30303030303030304 4.12864518375435 0.0 0 0 0
358 1 1.0 1.0 0 0.30303030303030304 4.229655284764451 0.0 0 0 0
359 1 1.0 1.0 0 0.30303030303030304 4.330665385774552 0.0 0 0 0
360 1 1.0 1.0 0 0.30303030303030304 4.431675486784653 0.0 0 0 0
361 1 1.0 1.0 0 0.30303030303030304 4.532685587794754 0.0 0 0 0
362 1 1.0 1.0 0 0.30303030303030304 4.633695688804855 0.0 0 0 0
363 1 1.0 1.0 0 0.30303030303030304 4.734705789814956 0.0 0 0 0
364 1 1.0 1.0 0 0.30303030303030304 4.835715890825057 0.0 0 0 0
365 1 1.0 1.0 0 0.30303030303030304 4.936725991835158 0.0 0 0 0
366 1 1.0 1.0 0 0.30303030303030304 5.037736092845259 0.0 0 0 0
367 1 1.0 1.0 0 0.30303030303030304 5.1387461938553605 0.0 0 0 0
368 1 1.0 1.0 0 0.30303030303030304 5.239756294865461 0.0 0 0 0
369 1 1.0 1.0 0 0.30303030303030304 5.340766395875562 0.0 0 0 0
370 1 1.0 1.0 0 0.30303030303030304 5.441776496885663 0.0 0 0 0
371 1 1.0 1.0 0 0.30303030303030304 5.5427865978957644 0.0 0 0 0
372 1 1.0 1.0 0 0.30303030303030304 5.643796698905865 0.0 0 0 0
373 1 1.0 1.0 0 0.30303030303030304 5.744806799915966 0.0 0 0 0
374 1 1.0 1.0 0 0.30303030303030304 5.845816900926067 0.0 0 0 0
375 1 1.0 1.0 0 0.30303030303030304 5.946827001936168 0.0 0 0 0
376 1 1.0 1.0 0 0.30303030303030304 6.047837102946269 0.0 0 0 0
377 1 1.0 1.0 0 0.30303030303030304 6.14884720395637 0.0 0 0 0
378 1 1.0 1.0 0 0.30303030303030304 6.249857304966471 0.0 0 0 0
379 1 1.0 1.0 0 0.30303030303030304 6.350867405976572 0.0 0 0 0
380 1 1.0 1.0 0 0.30303030303030304 6.451877506986673 0.0 0 0 0
381 1 1.0 1.0 0 0.30303030303030304 6.552887607996774 0.0 0 0 0
382 1 1.0 1.0 0 0.30303030303030304 6.653897709006875 0.0 0 0 0
383 1 1.0 1.0 0 0.30303030303030304 6.754907810016976 0.0 0 0 0
384 1 1.0 1.0 0 0.30303030303030304 6.855917911027078 0.0 0 0 0
385 1 1.0 1.0 0 0.30303030303030304 6.956928012037178 0.0 0 0 0
386 1 1.0 1.0 0 0.30303030303030304 7.057938113047279 0.0 0 0 0
387 1 1.0 1.0 0 0.30303030303030304 7.15894821405738 0.0 0 0 0
388 1 1.0 1.0 0 0.30303030303030304 7.259958315067482 0.0 0 0 0
389 1 1.0 1.0 0 0.30303030303030304 7.360968416077582 0.0 0 0 0
390 1 1.0 1.0 0 0.30303030303030304 7.461978517087683 0.0 0 0 0
391 1 1.0 1.0 0 0.30303030303030304 7.562988618097784 0.0 0 0 0
392 1 1.0 1.0 0 0.30303030303030304 7.6639987191078855 0.0 0 0 0
393 1 1.0 1.0 0 0.30303030303030304 7.765008820117986 0.0 0 0 0
394 1 1.0 1.0 0 0.30303030303030304 7.866018921128087 0.0 0 0 0
395 1 1.0 1.0 0 0.30303030303030304 7.967029022138188 0.0 0 0 0
396 1 1.0 1.0 0 0.30303030303030304 8.068039123148289 0.0 0 0 0
397 1 1.0 1.0 0 0.30303030303030304 8.169049224158389 0.0 0 0 0
398 1 1.0 1.0 0 0.30303030303030304 8.270059325168491 0.0 0 0 0
399 1 1.0 1.0 0 0.30303030303030304 8.371069426178591 0.0 0 0 0
400 1 1.0 1.0 0 0.30303030303030304 8.472079527188692 0.0 0 0 0
401 1 1.0 1.0 0 0.30303030303030304 8.573089628198794 0.0 0 0 0
402 1 1.0 1.0 0 0.30303030303030304 8.674099729208894 0.0 0 0 0
403 1 1.0 1.0 0 0.30303030303030304 8.775109830218996 0.0 0 0 0
404 1 1.0 1.0 0 0.30303030303030304 8.876119931229097 0.0 0 0 0
405 1 1.0 1.0 0 0.30303030303030304 8.977130032239197 0.0 0 0 0
406 1 1.0 1.0 0 0.30303030303030304 9.078140133249299 0.0 0 0 0
407 1 1.0 1.0 0 0.30303030303030304 9.1791502342594 0.0 0 0 0
408 1 1.0 1.0 0 0.30303030303030304 9.2801603352695 0.0 0 0 0
409 1 1.0 1.0 0 0.30303030303030304 9.381170436279602 0.0 0 0 0
410 1 1.0 1.0 0 0.30303030303030304 9.482180537289702 0.0 0 0 0
411 1 1.0 1.0 0 0.30303030303030304 9.583190638299804 0.0 0 0 0
412 1 1.0 1.0 0 0.30303030303030304 9.684200739309905 0.0 0 0 0
413 1 1.0 1.0 0 0.30303030303030304 9.785210840320005 0.0 0 0 0
414 1 1.0 1.0 0 0.30303030303030304 9.886220941330107 0.0 0 0 0
415 1 1.0 1.0 0 0.30303030303030304 9.987231042340207 0.0 0 0 0
416 1 1.0 1.0 0 0.30303030303030304 10.08824114335031 0.0 0 0 0
417 1 1.0 1.0 0 0.30303030303030304 10.18925124436041 0.0 0 0 0
418 2 1.0 1.0 0 10.0 -2.4492935982947064e-16 0.0 0 0 0
419 2 1.0 1.0 0 10.0 10.0 0.0 0 0 0
420 1 1.0 1.0 0 10.0 10.0 0.0 0 0 0
421 2 1.0 1.0 0 0.40404040404040403 0.2511479871810792 0.0 0 0 0
422 2 1.0 1.0 0 0.40404040404040403 10.25114798718108 0.0 0 0 0
423 1 1.0 1.0 0 0.40404040404040403 0.2511479871810792 0.0 0 0 0
424 1 1.0 1.0 0 0.40404040404040403 0.3521580881911802 0.0 0 0 0
425 1 1.0 1.0 0 0.40404040404040403 0.4531681892012812 0.0 0 0 0
426 1 1.0 1.0 0 0.40404040404040403 0.5541782902113823 0.0 0 0 0
427 1 1.0 1.0 0 0.40404040404040403 0.6551883912214833 0.0 0 0 0
428 1 1.0 1.0 0 0.40404040404040403 0.7561984922315843 0.0 0 0 0
429 1 1.0 1.0 0 0.40404040404040403 0.8572085932416853 0.0 0 0 0
430 1 1.0 1.0 0 0.40404040404040403 0.9582186942517863 0.0 0 0 0
431 1 1.0 1.0 0 0.40404040404040403 1.0592287952618873 0.0 0 0 0
432 1 1.0 1.0 0 0.40404040404040403 1.1602388962719883 0.0 0 0 0
433 1 1.0 1.0 0 0.40404040404040403 1.2612489972820895 0.0 0 0 0
434 1 1.0 1.0 0 0.40404040404040403 1.3622590982921903 0.0 0 0 0
435 1 1.0 1.0 0 0.40404040404040403 1.4632691993022915 0.0 0 0 0
436 1 1.0 1.0 0 0.40404040404040403 1.5642793003123923 0.0 0 0 0
437 1 1.0 1.0 0 0.40404040404040403 1.6652894013224935 0.0 0 0 0
438 1 1.0 1.0 0 0.40404040404040403 1.7662995023325943 0.0 0 0 0
439 1 1.0 1.0 0 0.40404040404040403 1.8673096033426955 0.0 0 0 0
440 1 1.0 1.0 0 0.40404040404040403 1.9683197043527962 0.0 0 0 0
441 1 1.0 1.0 0 0.40404040404040403 2.0693298053628975 0.0 0 0 0
442 1 1.0 1.0 0 0.40404040404040403 2.1703399063729982 0.0 0 0 0
443 1 1.0 1.0 0 0.40404040404040403 2.2713500073830994 0.0 0 0 0
444 1 1.0 1.0 0 0.40404040404040403 2.3723601083932 0.0 0 0 0
445 1 1.0 1.0 0 0.40404040404040403 2.4733702094033014 0.0 0 0 0
446 1 1.0 1.0 0 0.40404040404040403 2.574380310413402 0.0 0 0 0
447 1 1.0 1.0 0 0.40404040404040403 2.6753904114235034 0.0 0 0 0
448 1 1.0 1.0 0 0.40404040404040403 2.776400512433604 0.0 0 0 0
449 1 1.0 1.0 0 0.40404040404040403 2.8774106134437054 0.0 0 0 0
450 1 1.0 1.0 0 0.40404040404040403 2.978420714453806 0.0 0 0 0
451 1 1.0 1.0 0 0.40404040404040403 3.0794308154639074 0.0 0 0 0
452 1 1.0 1.0 0 0.40404040404040403 3.180440916474008 0.0 0 0 0
453 1 1.0 1.0 0 0.40404040404040403 3.2814510174841094 0.0 0 0 0
454 1 1.0 1.0 0 0.40404040404040403 3.38246111849421 0.0 0 0 0
455 1 1.0 1.0 0 0.40404040404040403 3.4834712195043114 0.0 0 0 0
456 1 1.0 1.0 0 0.40404040404040403 3.5844813205144126 0.0 0 0 0
457 1 1.0 1.0 0 0.40404040404040403 3.6854914215245134 0.0 0 0 0
458 1 1.0 1.0 0 0.40404040404040403 3.7865015225346146 0.0 0 0 0
459 1 1.0 1.0 0 0.40404040404040403 3.8875116235447154 0.0 0 0 0
460 1 1.0 1.0 0 0.40404040404040403 3.9885217245548166 0.0 0 0 0
461 1 1.0 1.0 0 0.40404040404040403 4.089531825564918 0.0 0 0 0
462 1 1.0 1.0 0 0.40404040404040403 4.190541926575019 0.0 0 0 0
463 1 1.0 1.0 0 0.40404040404040403 4.29155202758512 0.0 0 0 0
464 1 1.0 1.0 0 0.40404040404040403 4.3925621285952205 0.0 0 0 0
465 1 1.0 1.0 0 0.40404040404040403 4.493572229605322 0.0 0 0 0
466 1 1.0 1.0 0 0.40404040404040403 4.594582330615423 0.0 0 0 0
467 1 1.0 1.0 0 0.40404040404040403 4.695592431625524 0.0 0 0 0
468 1 1.0 1.0 0 0.40404040404040403 4.7966025326356245 0.0 0 0 0
469 1 1.0 1.0 0 0.40404040404040403 4.897612633645726 0.0 0 0 0
470 1 1.0 1.0 0 0.40404040404040403 4.998622734655827 0.0 0 0 0
471 1 1.0 1.0 0 0.40404040404040403 5.099632835665928 0.0 0 0 0
472 1 1.0 1.0 0 0.40404040404040403 5.200642936676029 0.0 0 0 0
473 1 1.0 1.0 0 0.40404040404040403 5.30165303768613 0.0 0 0 0
474 1 1.0 1.0 0 0.40404040404040403 5.402663138696231 0.0 0 0 0
475 1 1.0 1.0 0 0.40404040404040403 5.503673239706332 0.0 0 0 0
476 1 1.0 1.0 0 0.40404040404040403 5.604683340716433 0.0 0 0 0
477 1 1.0 1.0 0 0.40404040404040403 5.705693441726534 0.0 0 0 0
478 1 1.0 1.0 0 0.40404040404040403 5.806703542736635 0.0 0 0 0
479 1 1.0 1.0 0 0.40404040404040403 5.907713643746736 0.0 0 0 0
480 1 1.0 1.0 0 0.40404040404040403 6.008723744756837 0.0 0 0 0
481 1 1.0 1.0 0 0.40404040404040403 6.109733845766938 0.0 0 0 0
482 1 1.0 1.0 0 0.40404040404040403 6.210743946777039 0.0 0 0 0
483 1 1.0 1.0 0 0.40404040404040403 6.31175404778714 0.0 0 0 0
484 1 1.0 1.0 0 0.40404040404040403 6.412764148797241 0.0 0 0 0
485 1 1.0 1.0 0 0.40404040404040403 6.513774249807342 0.0 0 0 0
486 1 1.0 1.0 0 0.40404040404040403 6.614784350817443 0.0 0 0 0
487 1 1.0 1.0 0 0.40404040404040403 6.715794451827544 0.0 0 0 0
488 1 1.0 1.0 0 0.40404040404040403 6.816804552837645 0.0 0 0 0
489 1 1.0 1.0 0 0.40404040404040403 6.9178146538477465 0.0 0 0 0
490 1 1.0 1.0 0 0.40404040404040403 7.018824754857847 0.0 0 0 0
491 1 1.0 1.0 0 0.40404040404040403 7.119834855867948 0.0 0 0 0
492 1 1.0 1.0 0 0.40404040404040403 7.220844956878049 0.0 0 0 0
493 1 1.0 1.0 0 0.40404040404040403 7.3218550578881505 0.0 0 0 0
494 1 1.0 1.0 0 0.40404040404040403 7.422865158898251 0.0 0 0 0