ITEM: TIMESTEP
2000
ITEM: NUMBER OF ATOMS
32000
ITEM: BOX BOUNDS pp pp pp
0.0000000000000000e+00 3.1748021039364001e+01
0.0000000000000000e+00 3.1748021039364001e+01
0.0000000000000000e+00 3.1748021039364001e+01
ITEM: ATOMS id x y z c_phase c_nbond c_rho vx
4 0.118435 1.10255 0.46442 0 0 0.999999 0.000700581
83 0.976198 1.66863 0.77811 0 0 0.999883 0.000702181
842 0.716777 0.793587 1.41299 0 0 0.999916 0.000701975
921 0.00563487 1.60267 1.37446 0 0 1.00001 0.000722893
3 0.731895 0.063479 0.616151 0 0 0.999912 0.000685002
8 1.71216 0.809268 1.01562 0 0 0.999782 0.000661771
85 1.80264 1.47505 0.221046 0 0 0.999773 0.000658893
925 1.82253 1.66079 1.76147 0 0 0.999779 0.000685689
6 2.52273 0.749254 0.203872 0 0 0.999679 0.000607098
7 2.59328 0.0539575 1.03751 0 0 0.999671 0.000605772
87 2.65111 1.54139 0.883021 0 0 0.999674 0.000613798
846 2.67037 0.815811 1.74602 0 0 0.999673 0.000616337
12 3.43552 0.933954 0.956737 0 0 0.999584 0.00054377
849 3.50093 0.0925798 1.70627 0 0 0.999582 0.000544032
929 3.60836 1.70852 1.72049 0 0 0.999588 0.000548495
10 4.10737 0.858652 0.325394 0 0 0.999519 0.00047432
16 4.96304 0.568087 1.17504 0 0 0.999461 0.000381908
93 4.92086 1.60052 0.383724 0 0 0.99947 0.000392361
850 4.34862 0.941967 1.62956 0 0 0.999513 0.000461207
9 3.47772 0.111405 0.171129 0 0 0.999572 0.000528533
14 5.6485 0.645908 0.325974 0 0 0.999417 0.00029542
95 5.8852 1.31116 0.93859 0 0 0.999422 0.000272437
97 6.57557 1.39178 0.218513 0 0 0.999398 0.000178457
854 5.78489 0.460874 1.69978 0 0 0.999428 0.000283697
933 5.03255 1.72483 1.43666 0 0 0.999477 0.000385201
20 6.71453 0.390587 0.865787 0 0 0.999388 0.000160976
937 6.69183 1.01021 1.69464 0 0 0.999409 0.000167887
24 8.26794 0.409133 1.07394 0 0 0.999398 -5.01704e-05
99 7.36828 1.22354 0.954712 0 0 0.999395 7.18711e-05
101 8.24714 1.39168 0.236952 0 0 0.999403 -4.94309e-05
941 8.12881 1.27291 1.60748 0 0 0.999416 -3.52859e-05
18 7.58282 0.64821 0.140424 0 0 0.999382 4.2393e-05
22 8.85827 0.508801 0.274123 0 0 0.99941 -0.000129299
28 9.55249 0.338779 0.889175 0 0 0.999444 -0.000220664
103 9.02551 1.30791 1.11386 0 0 0.999434 -0.000153689
945 9.5737 0.973762 1.7643 0 0 0.999465 -0.000231933
105 9.63933 1.37542 0.0901938 0 0 0.999455 -0.000233382
32 11.2114 0.216008 0.63305 0 0 0.999549 -0.000414903
107 10.3627 1.048 0.82358 0 0 0.999497 -0.000324421
866 10.522 0.196451 1.44613 0 0 0.999508 -0.000342955
949 11.2842 1.0189 1.41853 0 0 0.999568 -0.000435276
946 10.5785 1.67797 1.73078 0 0 0.999533 -0.000363154
26 10.2423 0.368052 0.0781187 0 0 0.999479 -0.000305026
36 12.8738 0.211853 0.637096 0 0 0.999693 -0.000568094
111 12.044 1.07452 0.506983 0 0 0.999622 -0.000503001
870 12.1301 0.316576 1.30016 0 0 0.999631 -0.000512458
953 12.7174 1.19899 1.37286 0 0 0.999689 -0.000570886
40 14.3706 0.318766 0.765109 0 0 0.999843 -0.000655116
115 13.5901 1.11322 0.843911 0 0 0.999767 -0.000624122
117 14.0376 1.55988 0.167376 0 0 0.999812 -0.000652658
874 13.6054 0.359962 1.63565 0 0 0.99977 -0.000628904
957 14.3752 1.14973 1.47684 0 0 0.999848 -0.000670667
119 14.8737 1.55355 0.663073 0 0 0.999897 -0.000684033
44 15.7037 0.770518 0.788266 0 0 0.999983 -0.000687467
123 16.5506 1.54431 0.681325 0 0 1.00007 -0.000691706
878 15.1397 0.464236 1.64163 0 0 0.999924 -0.000690005
882 16.5444 0.712152 1.34204 0 0 1.00007 -0.000688312
961 15.6313 1.48557 1.39169 0 0 0.999975 -0.000704463
38 15.1025 0.711821 0.0677633 0 0 0.999919 -0.000675371
48 17.2522 0.732089 0.547655 0 0 1.00015 -0.000661228
127 17.9208 1.58075 0.757032 0 0 1.00021 -0.000644465
886 17.9137 0.742773 1.42765 0 0 1.00021 -0.000641721
965 17.2175 1.74851 1.56253 0 0 1.00013 -0.00068932
51 19.5356 0.0166799 0.662556 0 0 1.00037 -0.000513461
52 18.7899 0.724873 0.684656 0 0 1.0003 -0.000578299
131 19.5377 1.55425 0.841331 0 0 1.00036 -0.000527388
889 19.0256 0.158439 1.5446 0 0 1.00032 -0.000568731
890 19.5916 0.967081 1.68899 0 0 1.00036 -0.000525594
969 18.6543 1.51243 1.4999 0 0 1.00027 -0.000605697
55 21.0881 0.349635 1.06699 0 0 1.0005 -0.000358511
56 20.2478 0.776025 0.979577 0 0 1.00043 -0.00045174
135 21.1051 1.65629 0.95111 0 0 1.00048 -0.000364385
54 21.1864 0.765204 0.218664 0 0 1.00051 -0.000343545
133 20.3443 1.51408 0.193609 0 0 1.00043 -0.000445191
57 22.0082 0.262402 0.539456 0 0 1.00056 -0.000243456
59 22.7911 0.429983 1.40656 0 0 1.00059 -0.000146664
60 22.11 1.14701 1.3291 0 0 1.00055 -0.000237707
137 21.9975 1.59873 0.538178 0 0 1.00054 -0.000253821
58 22.9155 1.07394 0.444977 0 0 1.0006 -0.000130971
63 24.2285 0.379937 1.45119 0 0 1.00062 5.30383e-05
61 23.5673 0.357314 0.573381 0 0 1.00063 -3.67427e-05
62 24.4372 1.18615 0.754284 0 0 1.00063 7.8098e-05
64 23.4758 1.24912 1.40198 0 0 1.0006 -5.41712e-05
65 24.9558 0.315502 0.551667 0 0 1.00064 0.000152994
67 26.0096 0.383114 1.17093 0 0 1.0006 0.000286562
68 25.1698 1.12517 1.48001 0 0 1.00061 0.000181312
147 25.9313 1.73392 1.35721 0 0 1.00058 0.00028614
66 25.8927 0.928807 0.431832 0 0 1.00061 0.000274708
70 27.5752 1.27985 0.388852 0 0 1.00051 0.000474627
71 27.6157 0.509033 0.873979 0 0 1.00051 0.000474494
72 26.7572 1.02762 1.26285 0 0 1.00056 0.000384431
913 28.3767 0.337433 1.39784 0 0 1.00044 0.000551521
69 26.7938 0.240233 0.226541 0 0 1.00057 0.000380705
76 28.6508 1.24215 0.74201 0 0 1.00041 0.000574518
914 29.393 0.945579 1.56843 0 0 1.00032 0.000636403
993 28.5247 1.71872 1.4971 0 0 1.00041 0.000578919
917 29.8154 0.173807 1.46093 0 0 1.00027 0.000654252
75 29.2753 0.354619 0.615128 0 0 1.00035 0.000610741
841 31.5895 0.266165 1.25662 0 0 1.00004 0.000702344
79 30.7037 0.489961 0.470777 0 0 1.00016 0.000679512
80 30.1028 1.19858 0.773986 0 0 1.00024 0.000667929
918 30.867 0.971853 1.39372 0 0 1.00014 0.000701003
82 1.11303 2.43634 0.129223 0 0 0.99987 0.000716384
84 0.135714 2.38216 0.812203 0 0 0.999998 0.000736161
163 1.29085 3.23796 0.949271 0 0 0.999857 0.000745796
922 1.14211 2.36111 1.59177 0 0 0.999869 0.000729887
1001 0.389199 3.03023 1.5495 0 0 0.999967 0.000771032
161 0.334661 3.09603 0.131298 0 0 0.999974 0.000756956
88 1.91194 2.41909 0.783939 0 0 0.999771 0.000683277
167 2.66072 3.28108 0.861098 0 0 0.999704 0.000661605
926 2.67147 2.22986 1.53423 0 0 0.999688 0.000637864
1009 3.26021 3.42761 1.65002 0 0 0.99966 0.000624195
86 2.72806 2.38231 0.0557367 0 0 0.999675 0.000622719
92 3.38389 2.55497 0.779625 0 0 0.999615 0.000574273
91 4.00848 1.84164 0.711486 0 0 0.999543 0.000493952
96 4.91528 2.5738 0.816098 0 0 0.999498 0.000407878
171 4.20334 3.31868 0.749824 0 0 0.999568 0.000508318
930 4.1344 2.64207 1.58389 0 0 0.999564 0.000508205
94 5.65169 2.44384 0.132879 0 0 0.999453 0.000306442
100 6.55863 2.18175 0.773095 0 0 0.999422 0.000184793
175 5.65012 3.19738 0.953089 0 0 0.999486 0.00031992
934 5.86219 2.19542 1.49749 0 0 0.999453 0.00028652
1017 6.52146 3.06847 1.55658 0 0 0.999468 0.000197656
177 6.65116 2.92929 0.134318 0 0 0.999441 0.00017654
98 7.45449 2.22703 0.139954 0 0 0.999413 5.97832e-05
104 8.08229 2.20326 0.930999 0 0 0.999425 -3.01367e-05
179 7.40185 3.06989 0.934622 0 0 0.999449 6.74534e-05
938 7.29985 2.06151 1.56948 0 0 0.999426 8.37392e-05
1021 8.1856 3.00344 1.65317 0 0 0.99947 -4.83809e-05
181 8.26943 2.97271 0.039298 0 0 0.999449 -5.92889e-05
102 8.90371 2.08814 0.252575 0 0 0.999439 -0.000143664
108 9.77176 2.02564 1.11054 0 0 0.999483 -0.000259727
183 8.92637 2.97415 0.929355 0 0 0.999474 -0.000156424
942 9.03027 2.22191 1.70504 0 0 0.999467 -0.00016412
185 9.56035 2.90721 0.213236 0 0 0.999492 -0.000242678
106 10.2824 2.11471 0.214417 0 0 0.999508 -0.000324908
112 11.1569 1.82693 0.771521 0 0 0.999563 -0.000424351
187 10.6202 2.80948 0.922081 0 0 0.999552 -0.000379235
1029 11.4426 2.83094 1.57578 0 0 0.999616 -0.000479162
116 12.6717 1.94183 0.594158 0 0 0.999688 -0.000572047
191 11.9261 2.64209 0.742634 0 0 0.999638 -0.000520505
950 11.9221 1.92136 1.46581 0 0 0.999631 -0.000512837
1033 12.8425 3.01866 1.68681 0 0 0.999729 -0.000622376
195 13.1769 3.03103 0.849014 0 0 0.99975 -0.000638404
954 13.3761 1.99178 1.48112 0 0 0.999758 -0.000633815
120 14.018 2.44491 0.927255 0 0 0.999819 -0.000673932
1037 14.025 3.38435 1.55755 0 0 0.999833 -0.000711631
199 14.6932 3.43737 0.884956 0 0 0.99989 -0.000733853
958 14.7798 2.29794 1.44822 0 0 0.999892 -0.00070783
118 14.8391 2.51523 0.13664 0 0 0.999897 -0.000703522
197 14.1562 3.22663 0.0327257 0 0 0.999838 -0.000698016
114 13.4114 2.29465 0.0590908 0 0 0.999759 -0.000630664
124 15.6965 2.44364 0.692822 0 0 0.999981 -0.00071796
203 16.3 3.20075 0.662287 0 0 1.00004 -0.000739609
962 16.3051 2.4793 1.52565 0 0 1.00004 -0.000727901
1041 15.3665 3.25737 1.50207 0 0 0.99995 -0.000750965
201 15.5676 3.25862 0.0194079 0 0 0.999969 -0.000739667
128 17.0621 2.35008 0.682703 0 0 1.00012 -0.000696298
207 17.9414 2.92548 0.699437 0 0 1.00019 -0.000673848
966 18.0167 2.4385 1.58081 0 0 1.0002 -0.000668227
1045 17.0888 3.1157 1.49474 0 0 1.00011 -0.00072914
132 18.8886 2.35669 1.0132 0 0 1.00029 -0.000599887
211 19.7005 3.24132 1.27718 0 0 1.00033 -0.000554363
209 18.8817 2.99517 0.195864 0 0 1.00028 -0.000609885
130 19.5852 2.34138 0.101457 0 0 1.00035 -0.000533278
973 20.3235 1.78768 1.72372 0 0 1.00041 -0.000463364
134 21.1555 2.41549 0.458052 0 0 1.00047 -0.000368629
136 20.1932 2.46764 1.11374 0 0 1.00039 -0.000481712
215 21.3088 3.2931 1.39217 0 0 1.00044 -0.000372909
213 20.4206 2.99193 0.334689 0 0 1.0004 -0.000461048
139 22.8717 2.06879 1.5079 0 0 1.00056 -0.000146382
138 22.9715 2.60062 0.735016 0 0 1.00056 -0.000133212
140 22.0953 2.49781 1.23716 0 0 1.00052 -0.000252346
217 21.989 3.19885 0.598459 0 0 1.00049 -0.000272889
16179 22.6769 3.39947 0.075777 0 0 1.00052 -0.000180087
141 23.744 1.80746 0.623638 0 0 1.00061 -1.69841e-05
143 24.4294 1.98649 1.60999 0 0 1.00059 7.75215e-05
142 24.3426 2.68154 0.77468 0 0 1.00058 6.70528e-05
144 23.6888 2.90134 1.53529 0 0 1.00055 -3.15251e-05
223 24.4735 3.50895 1.55599 0 0 1.00053 8.59803e-05
16108 24.957 2.84413 0.014659 0 0 1.00058 0.00015752
149 26.5496 1.79333 0.511101 0 0 1.00057 0.00036314
145 25.1331 1.85516 0.509171 0 0 1.00061 0.000177852
146 25.793 2.61074 0.707037 0 0 1.00057 0.000273148
148 25.1589 2.55421 1.52452 0 0 1.00057 0.000182307
227 25.7226 3.49641 1.51124 0 0 1.00052 0.000273629
152 26.5379 2.55891 1.52968 0 0 1.00053 0.000375219
229 26.1701 3.49916 0.598599 0 0 1.00053 0.000337795
151 27.5055 1.98468 1.23733 0 0 1.00049 0.000480094
153 28.2508 2.08956 0.343598 0 0 1.00044 0.000552974
150 27.0883 2.69131 0.644948 0 0 1.00051 0.000441586
231 27.2017 3.35262 1.41605 0 0 1.00047 0.00047484
156 28.2556 2.75706 1.20584 0 0 1.00041 0.000574499
233 27.984 3.21891 0.326337 0 0 1.00043 0.00055422
997 29.9591 1.8087 1.7073 0 0 1.00024 0.000688521
155 29.4497 2.04639 0.879543 0 0 1.00031 0.000650031
154 29.1977 2.65845 0.290539 0 0 1.00033 0.000646354
235 29.2519 3.26423 1.17343 0 0 1.00031 0.000678858
159 30.9136 1.98478 0.92411 0 0 1.00013 0.000716914
160 30.1839 2.71053 1.00167 0 0 1.00021 0.000713456
239 31.0272 3.35265 0.971017 0 0 1.0001 0.000768326
998 30.9889 2.6946 1.72633 0 0 1.00011 0.000755048
237 30.1118 3.2588 0.132404 0 0 1.00022 0.000725235
157 30.4136 1.90881 0.0256128 0 0 1.0002 0.000690947
158 31.1456 2.6638 0.0761141 0 0 1.0001 0.000737298
164 0.296564 3.78507 0.918622 0 0 0.999981 0.000794481
241 0.145985 4.59463 0.482005 0 0 1 0.000833909
243 1.1432 4.67133 0.986815 0 0 0.999892 0.000819279
244 0.0918671 5.26686 1.27757 0 0 1.00001 0.000880883
162 1.04336 3.86445 0.0597438 0 0 0.999892 0.00077518
168 1.84394 4.04664 0.847326 0 0 0.999806 0.000751183
247 2.54325 4.85692 1.13772 0 0 0.99976 0.000741522
166 2.652 4.14568 0.206766 0 0 0.999723 0.000691297
245 1.90049 4.96961 0.278528 0 0 0.999818 0.000790499
249 3.41026 4.86319 0.161739 0 0 0.999681 0.000647951
172 3.49622 4.07796 0.886308 0 0 0.99965 0.000612972
176 4.91418 4.0017 1.18398 0 0 0.999556 0.000438552
251 4.04908 4.88162 1.14705 0 0 0.999645 0.000577263
170 4.26224 4.18646 0.149039 0 0 0.999592 0.000523132
253 5.01138 4.74186 0.341235 0 0 0.999575 0.000440693
174 5.77858 3.93953 0.198776 0 0 0.999506 0.000310411
180 6.49004 3.76795 0.772706 0 0 0.999484 0.000206134
255 5.68203 4.73829 1.02571 0 0 0.999556 0.000341281
1097 6.66435 4.51378 1.64411 0 0 0.999536 0.000191058
260 6.68178 5.1339 0.885979 0 0 0.999552 0.000191817
184 8.19835 3.89391 0.701367 0 0 0.999491 -5.54477e-05
259 7.40902 4.46288 0.547316 0 0 0.999509 6.763e-05
1018 7.39952 3.87228 1.49797 0 0 0.999495 7.05454e-05
1101 8.20022 4.6134 1.488 0 0 0.99954 -5.99766e-05
188 9.89666 3.57973 0.886337 0 0 0.999538 -0.000298239
263 9.07862 4.56776 0.822064 0 0 0.999547 -0.000194042
265 9.86161 4.50522 0.126521 0 0 0.999569 -0.000309709
1022 9.07774 3.76459 1.49932 0 0 0.999521 -0.000188478
1105 9.86785 4.34848 1.65665 0 0 0.999581 -0.00031198
182 8.98504 3.87009 0.0632603 0 0 0.999506 -0.000172873
192 11.4061 3.64644 0.778985 0 0 0.999628 -0.000490753
267 10.5875 4.66849 0.907016 0 0 0.999617 -0.000416309
269 11.3846 4.69587 0.230839 0 0 0.999659 -0.000513312
1026 10.7045 3.56869 1.58896 0 0 0.999591 -0.000409432
1109 11.3631 4.37372 1.70658 0 0 0.999661 -0.000513723
272 11.3871 5.27433 0.984718 0 0 0.999685 -0.000535511
186 10.5813 3.85056 0.176256 0 0 0.99958 -0.000395008
196 12.5142 3.57861 0.815151 0 0 0.999707 -0.000599746
271 12.189 4.55195 1.00082 0 0 0.999711 -0.000604275
1113 12.7334 4.99881 1.69 0 0 0.999767 -0.000681282
275 13.2227 4.68012 0.800605 0 0 0.999786 -0.000698501
273 12.6406 4.62024 0.0632314 0 0 0.99974 -0.00064353
200 13.9861 4.12896 0.696758 0 0 0.999836 -0.000726415
1034 13.4802 4.21896 1.59382 0 0 0.999802 -0.000709815
1117 14.2007 5.11915 1.52066 0 0 0.999869 -0.000790807
279 14.9365 5.0119 0.811883 0 0 0.999921 -0.00080676
1038 14.9607 4.41698 1.59459 0 0 0.999921 -0.000791212
277 14.137 4.9071 0.0600826 0 0 0.999858 -0.000764469
198 14.9577 4.19449 0.0966948 0 0 0.999917 -0.0007659
204 15.665 4.06646 0.926251 0 0 0.999977 -0.000777954
281 15.8759 4.77579 0.18648 0 0 0.999994 -0.00080494
283 16.59 4.58 0.900111 0 0 1.00005 -0.00079299
1042 16.3149 3.95854 1.69016 0 0 1.00003 -0.000783766
1121 15.8071 5.05297 1.64094 0 0 0.999988 -0.000835735
208 17.2658 3.83307 0.811064 0 0 1.00012 -0.00074046
287 18.0831 4.48744 1.09765 0 0 1.00017 -0.000728162
1046 17.9495 3.63711 1.65553 0 0 1.00018 -0.000710653
285 17.4534 4.57648 0.0148836 0 0 1.00012 -0.000759594
206 18.132 3.8537 0.0584577 0 0 1.00019 -0.000693019
212 18.8752 3.70554 0.949914 0 0 1.00026 -0.000639994
289 18.8207 4.60815 0.36163 0 0 1.00023 -0.000673195
291 19.6879 4.67684 1.07999 0 0 1.00029 -0.000601192
292 18.7825 5.27537 1.20036 0 0 1.0002 -0.000711443
210 19.5965 3.7658 0.227404 0 0 1.00032 -0.000571374
216 20.4365 3.82022 1.23259 0 0 1.00037 -0.000491772
295 20.8828 4.71653 1.393 0 0 1.00036 -0.000462859
297 21.5764 4.94901 0.809677 0 0 1.00039 -0.000368575
214 21.0811 3.92961 0.512065 0 0 1.00041 -0.000408504
293 20.1319 4.78373 0.352436 0 0 1.00032 -0.000548941
219 22.8202 3.62983 1.42028 0 0 1.0005 -0.000166045
220 21.9397 4.13109 1.30972 0 0 1.00044 -0.000302512
299 22.4699 5.17463 1.27185 0 0 1.00041 -0.000241449
218 22.6116 4.34488 0.509766 0 0 1.00047 -0.000203608
221 23.5737 3.63707 0.78206 0 0 1.00053 -5.14521e-05
222 24.3366 4.31849 0.624524 0 0 1.00051 6.46351e-05
224 23.4679 4.54704 1.33253 0 0 1.00047 -7.5329e-05
305 24.853 5.25463 0.566231 0 0 1.00046 0.000153025
301 23.5519 5.06146 0.533081 0 0 1.00046 -6.68043e-05
228 25.0097 4.49817 1.6221 0 0 1.00048 0.000174676
225 25.0639 3.67839 0.801469 0 0 1.00054 0.000176128
303 24.3637 5.28587 1.43252 0 0 1.00044 6.99399e-05
307 25.6921 5.13658 1.34168 0 0 1.00044 0.000291469
232 26.3593 4.2884 1.37073 0 0 1.00047 0.000378749
309 26.5046 4.97059 0.640282 0 0 1.00044 0.000412291
226 25.5298 4.3989 0.387984 0 0 1.0005 0.000252273
311 27.3326 4.86781 1.40481 0 0 1.0004 0.000531767
236 27.9646 3.97501 1.10358 0 0 1.0004 0.000578738
313 28.2797 4.73341 0.705932 0 0 1.00035 0.000637853
230 27.0693 4.04159 0.569816 0 0 1.00046 0.000468566
234 28.9344 3.76927 0.486875 0 0 1.00033 0.000665144
315 29.09 4.52203 1.33026 0 0 1.00029 0.000716967
240 30.0005 4.07116 1.02292 0 0 1.00021 0.0007598
238 31.0323 3.97372 0.373123 0 0 1.0001 0.000792868
317 30.2075 4.67724 0.490939 0 0 1.00018 0.00079718
319 30.9813 4.59908 1.41088 0 0 1.0001 0.000835448
242 0.911654 5.53237 0.461713 0 0 0.999926 0.000872762
248 1.53502 5.51252 1.37998 0 0 0.999871 0.000852339
323 0.797579 6.22036 1.27695 0 0 0.999946 0.0009261
324 0.261048 6.91768 1.50735 0 0 0.999995 0.000982805
322 0.974026 6.94577 0.573419 0 0 0.999938 0.0009591
328 1.70933 7.02967 1.23861 0 0 0.999889 0.000927715
325 1.89921 6.20057 0.519051 0 0 0.999849 0.000858654
252 3.10798 5.61868 1.30111 0 0 0.999744 0.000723304
327 2.26727 6.1547 1.41038 0 0 0.999827 0.000833834
332 3.25792 6.96399 1.1284 0 0 0.999784 0.000771587
246 2.68484 5.61392 0.273711 0 0 0.999765 0.000758958
329 3.39819 6.28334 0.500699 0 0 0.99974 0.000712579
250 4.19232 5.46421 0.326004 0 0 0.999653 0.000575598
256 4.93662 5.43083 1.31853 0 0 0.999627 0.000476075
331 4.1389 6.0984 1.22864 0 0 0.999698 0.000615247
333 4.82815 6.23569 0.334072 0 0 0.999658 0.000509607
336 4.77592 6.80175 1.16065 0 0 0.999703 0.00054266
330 4.00575 7.02685 0.222042 0 0 0.999737 0.000663815
254 5.78727 5.42385 0.302077 0 0 0.99958 0.000336701
335 5.69538 6.24572 0.964017 0 0 0.999637 0.000375276
1177 6.45946 5.98696 1.59822 0 0 0.999621 0.000242828
340 6.43408 6.87206 1.01051 0 0 0.999659 0.000255375
337 6.37943 6.04388 0.154758 0 0 0.999601 0.000248783
334 5.55217 7.05446 0.147391 0 0 0.999677 0.000413839
264 8.21365 5.31672 0.695001 0 0 0.999563 -6.38471e-05
339 7.32838 6.16186 0.755119 0 0 0.999605 8.69675e-05
1098 7.39248 5.42094 1.49282 0 0 0.999578 7.626e-05
1181 8.23891 6.11321 1.49324 0 0 0.999624 -7.06439e-05
344 8.01397 6.85661 0.729851 0 0 0.999648 -3.76525e-05
1178 7.28299 6.86668 1.59784 0 0 0.999666 0.000104805
258 7.33099 5.35994 0.0462096 0 0 0.999554 7.98847e-05
268 9.76692 5.32191 0.79336 0 0 0.999608 -0.000313637
343 8.87983 6.19141 0.737732 0 0 0.999624 -0.000184408
1102 9.05373 5.32979 1.59868 0 0 0.999599 -0.000201791
1185 9.73725 6.19324 1.46897 0 0 0.999661 -0.000329174
1182 9.09277 6.95335 1.46474 0 0 0.999684 -0.000229901
345 9.76208 6.2347 0.0943502 0 0 0.999649 -0.000330314
262 8.99691 5.46743 0.012926 0 0 0.999584 -0.000195433
347 10.5814 6.0245 0.96524 0 0 0.999676 -0.000452811
349 11.3103 6.37362 0.0777887 0 0 0.999719 -0.00056112
346 10.5168 6.94422 0.154683 0 0 0.999709 -0.000468421
1186 10.4666 6.92863 1.49783 0 0 0.99972 -0.00046081
270 11.9966 5.62922 0.183345 0 0 0.999728 -0.000619827
276 12.6724 5.82004 0.862409 0 0 0.999778 -0.000700701
351 11.7745 6.20964 1.05385 0 0 0.999741 -0.000618684
1114 13.3182 5.86817 1.55585 0 0 0.999824 -0.000768273
355 13.3467 6.58429 0.814083 0 0 0.999836 -0.000796307
274 13.3177 5.54002 0.0425567 0 0 0.999809 -0.000740732
280 14.0579 5.71671 0.773078 0 0 0.999864 -0.000803066
1197 14.3229 6.65271 1.40727 0 0 0.999897 -0.000875846
357 14.1261 6.38585 0.0381103 0 0 0.999877 -0.000836932
278 15.0239 5.64416 0.0344964 0 0 0.999931 -0.000835729
284 15.8262 5.73807 0.958193 0 0 0.999988 -0.000860583
359 15.0425 6.45139 0.806968 0 0 0.999937 -0.000884292
363 16.4863 6.45219 1.14014 0 0 1.00003 -0.000895585
1118 15.1013 5.87631 1.69836 0 0 0.999939 -0.000869641
282 16.6161 5.4189 0.276735 0 0 1.00005 -0.000828034
361 15.6709 6.3384 0.0391613 0 0 0.999977 -0.000884467
286 17.8235 5.30039 0.541207 0 0 1.00014 -0.000776629
288 17.1089 5.42427 1.24739 0 0 1.00008 -0.000824354
365 17.0577 6.27356 0.411332 0 0 1.00007 -0.000861495
367 17.6605 6.24538 1.38477 0 0 1.00011 -0.000843766
372 18.27 7.05025 1.13114 0 0 1.00012 -0.000841062
369 18.3677 6.2302 0.609541 0 0 1.00015 -0.00078389
290 19.4261 5.75634 0.620094 0 0 1.00024 -0.000665712
371 19.3242 6.55544 1.34959 0 0 1.0002 -0.000721077
373 19.9912 6.74987 0.60969 0 0 1.00023 -0.000643406
294 20.7475 5.77351 0.653065 0 0 1.00031 -0.000507138
296 20.1904 5.60848 1.3945 0 0 1.00028 -0.000581998
375 20.7763 6.60968 1.30227 0 0 1.00027 -0.000536594
377 21.6576 6.65972 0.665862 0 0 1.00031 -0.000402462
300 21.6616 5.87585 1.38382 0 0 1.00034 -0.000384046
16260 21.6892 5.73008 0.0517685 0 0 1.00036 -0.00036892
298 22.6727 5.82531 0.673276 0 0 1.00039 -0.000218486
379 22.6313 6.69025 1.20595 0 0 1.00033 -0.000239602
381 23.3485 6.77742 0.267539 0 0 1.00036 -0.000113517
304 23.4823 5.88216 1.29869 0 0 1.0004 -8.31115e-05
383 24.3206 6.55997 1.15714 0 0 1.00037 6.62776e-05
302 24.1463 6.00405 0.427076 0 0 1.00041 3.31926e-05
306 25.6849 5.85969 0.700193 0 0 1.00041 0.000299788
308 25.1138 6.03845 1.67567 0 0 1.00039 0.000204841
385 25.1609 6.73871 0.494559 0 0 1.00037 0.000218165
387 25.8273 6.592 1.40641 0 0 1.00035 0.000342484
312 26.6927 5.84293 1.47509 0 0 1.00037 0.000467352
310 27.4992 5.54158 0.721597 0 0 1.00037 0.000573297
389 26.751 6.36345 0.651208 0 0 1.00036 0.000485786
391 27.7042 6.47104 1.36447 0 0 1.0003 0.000638851
316 28.3678 5.52052 1.48621 0 0 1.0003 0.000690349
390 27.713 7.00541 0.529663 0 0 1.00029 0.00065665
314 29.392 5.30785 0.81829 0 0 1.00024 0.000775534
395 29.4414 6.18111 1.32153 0 0 1.0002 0.000830324
394 29.5822 6.89702 0.506332 0 0 1.00018 0.000876815
393 28.4718 6.2044 0.638366 0 0 1.00028 0.000726409
16355 29.3795 6.15259 0.0799915 0 0 1.00022 0.000815045
16276 28.485 5.38844 0.0590929 0 0 1.00032 0.000688304
318 30.9669 5.3679 0.594912 0 0 1.0001 0.000869121
320 30.2194 5.45868 1.46758 0 0 1.00016 0.000850117
397 30.3993 6.18192 0.649481 0 0 1.00014 0.000894633
399 31.2227 6.15479 1.38422 0 0 1.00006 0.000929724
398 31.2036 6.9537 0.603407 0 0 1.00006 0.000972605
321 31.7272 5.99628 0.446583 0 0 1.00002 0.000915958
401 0.266281 7.63221 0.661787 0 0 0.999997 0.00102038
402 0.836087 8.46399 0.61926 0 0 0.999967 0.00105721
403 1.11665 7.86431 1.49738 0 0 0.999947 0.00101767
404 0.361947 8.56262 1.47038 0 0 0.999995 0.0010838
405 1.59705 7.76555 0.372098 0 0 0.999908 0.000972608
408 1.72886 8.61839 1.46522 0 0 0.999929 0.00102248
326 2.49168 7.15098 0.47645 0 0 0.999832 0.000861501
406 2.1966 8.6344 0.399934 0 0 0.999895 0.000971684
407 2.39847 7.81224 1.27796 0 0 0.999868 0.000913197
412 3.01801 8.51612 0.936276 0 0 0.999857 0.000876406
409 3.24793 7.77263 0.327304 0 0 0.999809 0.000803687
410 3.81639 8.46091 0.0823029 0 0 0.999812 0.00075468
411 3.98331 7.67167 1.24929 0 0 0.999783 0.000701805
416 4.70784 8.25903 0.922922 0 0 0.999778 0.000603564
413 4.67342 7.63936 0.247889 0 0 0.999738 0.000582934
1250 3.81543 8.351 1.76329 0 0 0.999837 0.000765416
414 5.87206 8.35088 0.170245 0 0 0.999743 0.000387985
415 5.4863 7.59308 1.0332 0 0 0.999721 0.000445275
417 6.49531 7.54089 0.169423 0 0 0.999687 0.000250469
420 6.39882 8.2422 1.04519 0 0 0.99974 0.000284458
419 7.28701 7.77207 0.747356 0 0 0.9997 0.000103679
424 8.28593 8.31695 0.870111 0 0 0.999735 -9.0871e-05
1258 7.27981 8.18662 1.70365 0 0 0.999747 0.000116429
1261 8.05255 7.49104 1.56234 0 0 0.999703 -4.1173e-05
421 7.99939 7.60615 0.0282883 0 0 0.999686 -3.86486e-05
348 9.84157 7.22483 0.724485 0 0 0.999703 -0.000363974
423 8.91162 7.61928 0.662683 0 0 0.999702 -0.000207678
428 9.73081 8.62263 0.694338 0 0 0.999767 -0.0003766
1262 9.09176 8.7023 1.44726 0 0 0.999773 -0.00024804
1265 9.63919 7.89246 1.60265 0 0 0.999746 -0.000344425
352 11.3131 7.14539 0.811502 0 0 0.999753 -0.000590791
427 10.5708 7.94812 0.845438 0 0 0.999759 -0.000505677
1266 10.585 8.70528 1.42777 0 0 0.999799 -0.000529983
1269 11.4022 7.80809 1.60489 0 0 0.99979 -0.000634805
429 11.224 8.12114 0.0424724 0 0 0.999783 -0.000614507
356 12.7022 7.2854 0.566452 0 0 0.999818 -0.000769181
431 12.174 8.23727 0.59165 0 0 0.999822 -0.000751443
1190 12.0605 7.16031 1.3792 0 0 0.999791 -0.000697897
1270 12.0842 8.68319 1.49245 0 0 0.99984 -0.000766895
1273 12.8552 7.99812 1.47748 0 0 0.999849 -0.00083031
360 14.3319 7.35518 0.581932 0 0 0.999903 -0.000904634
435 13.6118 8.09445 0.465225 0 0 0.999878 -0.000895682
1194 13.4536 7.3418 1.34259 0 0 0.99986 -0.000853702
1277 14.2416 8.18447 1.35341 0 0 0.999911 -0.000959783
362 16.4279 7.18453 0.276983 0 0 1.00002 -0.000930721
364 15.6226 7.31141 0.922855 0 0 0.999974 -0.000948405
439 15.0634 8.29305 0.865859 0 0 0.999948 -0.000995532
443 16.2543 8.16019 1.11162 0 0 1 -0.00100209
1198 15.1392 7.52318 1.62575 0 0 0.99995 -0.000966441
441 15.8607 8.31501 0.152708 0 0 0.999984 -0.00100384
368 16.9719 7.36168 1.1165 0 0 1.00005 -0.000936056
445 17.0626 8.10412 0.341733 0 0 1.00004 -0.000967067
447 17.6981 8.02265 1.02668 0 0 1.00007 -0.000935155
366 17.8115 7.16485 0.213118 0 0 1.0001 -0.000872577
370 19.0006 7.33621 0.643772 0 0 1.00016 -0.000782978
451 18.923 8.15116 1.18509 0 0 1.00013 -0.000838966
376 19.8675 7.65484 1.32578 0 0 1.00018 -0.000704598
453 19.7998 8.13937 0.360238 0 0 1.00017 -0.00072517
449 18.444 8.18822 0.168896 0 0 1.00011 -0.000878223
374 20.6963 7.4579 0.672518 0 0 1.00023 -0.000573812
455 20.6434 8.43749 1.03527 0 0 1.00018 -0.000621913
380 21.5394 7.66986 1.14896 0 0 1.00025 -0.000450239
457 21.6097 8.34155 0.258277 0 0 1.00022 -0.000454405
459 22.5857 8.17515 1.01946 0 0 1.00025 -0.000272678
1218 22.4161 7.49792 1.75769 0 0 1.00027 -0.000293306
378 22.3355 7.48155 0.385864 0 0 1.00029 -0.000307143
384 23.4449 7.31889 1.05047 0 0 1.00032 -0.000100958
461 23.4883 8.07244 0.386146 0 0 1.00028 -9.90044e-05
463 24.3446 8.09852 1.0014 0 0 1.00028 7.25317e-05
1302 24.253 8.71487 1.6863 0 0 1.00022 6.23656e-05
382 24.3401 7.32245 0.268983 0 0 1.00034 6.67773e-05
388 25.1179 7.39185 1.25414 0 0 1.00031 0.000220832
467 26.0226 8.00306 0.987858 0 0 1.00027 0.000403598
1306 26.021 8.62549 1.75599 0 0 1.00021 0.00042649
386 26.0942 7.27602 0.367778 0 0 1.00033 0.000394576
465 25.2307 8.12934 0.307485 0 0 1.00029 0.000249279
466 26.2757 8.58293 0.0890657 0 0 1.00025 0.000462014
392 26.7858 7.1094 1.34267 0 0 1.0003 0.000520128
470 27.9681 8.50277 0.429069 0 0 1.00021 0.000760341
471 27.7996 7.83613 1.21412 0 0 1.00023 0.000710853
472 26.9797 8.65261 1.02484 0 0 1.00022 0.000602048
469 26.9992 7.78102 0.43419 0 0 1.00027 0.000571558
396 28.6551 7.11154 1.2298 0 0 1.00022 0.000795169
474 29.5988 8.3525 0.544198 0 0 1.00014 0.000961075
475 29.502 7.67686 1.27614 0 0 1.00015 0.00091674
476 28.7841 8.55716 1.18553 0 0 1.00016 0.000882196
473 28.6991 7.71732 0.415759 0 0 1.00021 0.000826454
400 30.3291 7.09101 1.1794 0 0 1.00012 0.000948219
479 31.255 7.82394 1.30156 0 0 1.00005 0.00103366
480 30.4348 8.49112 1.18391 0 0 1.00008 0.00103803
477 30.6412 7.87247 0.379901 0 0 1.00009 0.00100752
478 31.4298 8.62288 0.390568 0 0 1.00003 0.00108114
482 1.12562 10.2847 0.274253 0 0 0.999975 0.00114884
483 1.01855 9.37777 1.20657 0 0 0.999972 0.00110928
484 0.258401 9.92951 0.898586 0 0 1 0.00116135
481 0.372823 9.33551 0.122642 0 0 0.999998 0.00112302
1322 0.815268 10.1272 1.75294 0 0 0.99999 0.00116559
485 1.76106 9.44646 0.452328 0 0 0.999936 0.00105851
488 1.82987 10.3751 0.97027 0 0 0.999957 0.00110432
486 2.59594 10.2773 0.0853037 0 0 0.999925 0.00101219
487 2.3786 9.44725 1.22336 0 0 0.999919 0.00100315
1326 2.77453 10.2357 1.66504 0 0 0.99994 0.00100156
1329 3.20246 9.23872 1.65343 0 0 0.999893 0.000896033
489 3.07618 9.37203 0.0801102 0 0 0.999878 0.000907126
492 3.38128 10.0353 0.730573 0 0 0.999897 0.000895404
491 3.93501 9.11077 0.854381 0 0 0.999844 0.000769556
493 4.57928 9.1822 0.00738151 0 0 0.999819 0.000656231
496 4.60944 9.97862 0.571063 0 0 0.999859 0.0006812
1330 4.12349 9.97331 1.61854 0 0 0.999895 0.000782316
1333 4.67579 9.06936 1.6497 0 0 0.99984 0.000649431
495 5.33194 8.94614 0.659673 0 0 0.999792 0.000510252
500 6.24137 9.79518 0.512618 0 0 0.999817 0.000344879
1334 5.31323 9.83348 1.15954 0 0 0.999848 0.000543964
1337 6.15408 9.05343 1.25643 0 0 0.999794 0.000354964
1417 6.2371 10.512 1.18303 0 0 0.999865 0.000368908
499 7.16707 8.88296 0.709644 0 0 0.999762 0.000138738
501 8.09577 9.04934 0.0805473 0 0 0.999766 -5.71736e-05
504 7.95935 9.92656 0.575339 0 0 0.999812 -2.74651e-05
1338 7.18016 9.73919 1.18966 0 0 0.999817 0.000149327
1341 8.04563 9.16906 1.39726 0 0 0.99979 -3.7082e-05
503 8.93911 9.45619 0.725869 0 0 0.999795 -0.000230342
508 9.64365 10.339 0.656808 0 0 0.999838 -0.000383797
1342 8.74949 10.2693 1.40305 0 0 0.999842 -0.000188609
1345 9.82919 9.59202 1.40859 0 0 0.999822 -0.000408623
432 11.3714 8.84949 0.731095 0 0 0.999817 -0.000661628
426 10.4008 8.88821 0.0401025 0 0 0.999789 -0.000501584
507 10.4616 9.68378 0.653752 0 0 0.999824 -0.000532238
1346 10.6295 10.1701 1.62947 0 0 0.999856 -0.000574845
1349 11.2981 9.6365 1.31249 0 0 0.999846 -0.000680386
436 13.0022 8.9671 0.785631 0 0 0.999873 -0.000885253
511 12.1048 9.81595 0.684122 0 0 0.999865 -0.000808307
516 12.8155 10.4749 0.957621 0 0 0.999898 -0.00093469
1353 12.5394 9.61581 1.60733 0 0 0.999878 -0.000871569
1274 13.6849 8.84294 1.56531 0 0 0.999899 -0.000959078
440 14.4636 9.19865 0.758329 0 0 0.999929 -0.00102101
515 13.526 9.67979 0.833251 0 0 0.999903 -0.000974062
1354 13.4912 10.4098 1.70426 0 0 0.999917 -0.00102801
517 14.2691 10.1524 0.213346 0 0 0.99993 -0.00105507
444 15.8968 9.16001 1.13613 0 0 0.999985 -0.00106903
1278 15.0472 9.0678 1.75948 0 0 0.999953 -0.00106612
519 15.1282 9.85769 1.00896 0 0 0.999957 -0.00109318
521 15.6878 10.1814 0.251746 0 0 0.999975 -0.00111323
523 16.5036 9.9591 0.961157 0 0 1 -0.00110424
442 16.5078 9.0317 0.2593 0 0 1.00001 -0.00103914
438 15.2975 9.2073 0.0908362 0 0 0.99996 -0.00104742
452 18.2971 8.89817 0.944956 0 0 1.00008 -0.000935798
448 17.0911 9.0712 1.12922 0 0 1.00003 -0.00103523
525 17.1521 10.0279 0.207717 0 0 1.00002 -0.00107288
527 17.773 9.87287 1.07491 0 0 1.00005 -0.00103663
446 17.7625 9.11024 0.116146 0 0 1.00006 -0.000984035
456 19.8199 8.96305 1.06968 0 0 1.00014 -0.000761358
529 18.5977 9.7356 0.300437 0 0 1.00008 -0.000941682
531 19.507 9.90064 0.853898 0 0 1.0001 -0.000846677
532 18.7223 10.458 1.1498 0 0 1.00006 -0.000974436
1369 18.6553 9.58964 1.71703 0 0 1.00008 -0.000954785
450 19.2438 8.96472 0.211733 0 0 1.00012 -0.000833989
533 19.9893 9.79019 0.0736393 0 0 1.00012 -0.000764583