ITEM: TIMESTEP
25000
ITEM: NUMBER OF ATOMS
32000
ITEM: BOX BOUNDS pp pp pp
0.0000000000000000e+00 3.1748021039364001e+01
0.0000000000000000e+00 3.1748021039364001e+01
0.0000000000000000e+00 3.1748021039364001e+01
ITEM: ATOMS id x y z c_phase c_nbond c_rho vx
4 0.302322 1.09723 0.470854 0 0 1.00003 0.00141838
83 1.15953 1.66713 0.783874 0 0 1.00003 0.00145767
842 0.905392 0.790988 1.40936 0 0 1.00003 0.00144529
921 0.196454 1.59718 1.38046 0 0 1.00003 0.00144764
3 0.915032 0.070218 0.623644 0 0 1.00003 0.00142156
841 0.0263768 0.268083 1.25676 0 0 1.00003 0.00141147
8 1.8969 0.822422 1.01528 0 0 1.00003 0.00144465
85 1.98978 1.48801 0.215234 0 0 1.00003 0.00144992
925 2.02415 1.66252 1.75822 0 0 1.00003 0.0014897
6 2.69652 0.74763 0.20484 0 0 1.00003 0.00142578
7 2.76433 0.0587457 1.04124 0 0 1.00003 0.00142971
87 2.82706 1.54738 0.881575 0 0 1.00003 0.00145146
846 2.85914 0.825398 1.74522 0 0 1.00003 0.00145693
12 3.60022 0.933097 0.96795 0 0 1.00002 0.00141795
849 3.66541 0.0892671 1.71902 0 0 1.00002 0.00142702
929 3.78113 1.71495 1.72675 0 0 1.00002 0.00145713
10 4.27323 0.863636 0.323717 0 0 1.00002 0.00138053
850 4.49724 0.950546 1.64716 0 0 1.00002 0.00140139
9 3.63968 0.105848 0.176518 0 0 1.00002 0.00139585
93 5.07171 1.61086 0.38955 0 0 1.00002 0.00136142
16 5.12109 0.570395 1.17251 0 0 1.00002 0.00134643
14 5.78453 0.648953 0.324605 0 0 1.00002 0.00129139
95 6.01888 1.32597 0.955608 0 0 1.00002 0.00129925
854 5.92573 0.463247 1.7175 0 0 1.00002 0.00130994
933 5.1774 1.73134 1.44937 0 0 1.00002 0.00138063
97 6.69529 1.40913 0.222128 0 0 1.00002 0.00123935
20 6.82978 0.400251 0.880426 0 0 1.00002 0.00121682
937 6.81228 1.02328 1.71402 0 0 1.00002 0.00125269
24 8.34591 0.415907 1.08404 0 0 1.00001 0.00108469
99 7.47093 1.23949 0.963889 0 0 1.00001 0.00117896
101 8.32821 1.40717 0.240975 0 0 1.00001 0.00109408
941 8.21761 1.28826 1.63055 0 0 1.00001 0.00113065
18 7.67805 0.660868 0.149302 0 0 1.00001 0.00113713
22 8.92252 0.515216 0.274058 0 0 1.00001 0.00101647
28 9.6042 0.341128 0.904243 0 0 1.00001 0.000953949
103 9.08787 1.32468 1.12255 0 0 1.00001 0.00103138
105 9.68663 1.38795 0.0952156 0 0 1.00001 0.000957074
32 11.2205 0.218715 0.644994 0 0 1.00001 0.000783453
107 10.3954 1.06213 0.835876 0 0 1.00001 0.000882879
866 10.5496 0.201225 1.46526 0 0 1.00001 0.000870066
949 11.2996 1.02855 1.43595 0 0 1.00001 0.000804063
946 10.6086 1.70019 1.75022 0 0 1.00001 0.000906104
26 10.2759 0.371743 0.0802984 0 0 1.00001 0.000876249
36 12.8542 0.215911 0.646109 0 0 1.00001 0.000627172
111 12.0355 1.08557 0.517143 0 0 1.00001 0.00071329
870 12.1228 0.319862 1.31702 0 0 1.00001 0.000709386
953 12.7014 1.20755 1.3891 0 0 1.00001 0.00067074
40 14.3284 0.327231 0.780369 0 0 1.00001 0.000512066
115 13.5558 1.11971 0.85291 0 0 1.00001 0.000583528
117 14.0027 1.56894 0.164926 0 0 1.00001 0.000552027
874 13.5765 0.363686 1.64995 0 0 1.00001 0.000589742
957 14.3345 1.15869 1.49006 0 0 1.00001 0.000540449
119 14.829 1.56071 0.668633 0 0 1.00001 0.000501317
38 15.0495 0.713373 0.0679715 0 0 1.00001 0.0004645
44 15.6516 0.768494 0.791058 0 0 1.00001 0.000440622
123 16.491 1.54348 0.683895 0 0 1.00002 0.00042567
878 15.0903 0.4661 1.64934 0 0 1.00001 0.000485815
882 16.4861 0.710338 1.34526 0 0 1.00002 0.00042047
961 15.5757 1.49302 1.3985 0 0 1.00001 0.000473687
48 17.1987 0.729324 0.552679 0 0 1.00002 0.000391944
127 17.8674 1.57741 0.754974 0 0 1.00002 0.000408791
886 17.8596 0.741452 1.42404 0 0 1.00002 0.000403929
965 17.1618 1.74521 1.56304 0 0 1.00002 0.000436258
51 19.4947 0.0134938 0.660444 0 0 1.00002 0.000416281
52 18.7413 0.722718 0.683734 0 0 1.00002 0.000399447
131 19.4991 1.54329 0.837009 0 0 1.00002 0.000440821
889 18.9775 0.154153 1.53869 0 0 1.00002 0.000416426
890 19.5542 0.960326 1.68126 0 0 1.00002 0.000448651
969 18.6108 1.50232 1.49456 0 0 1.00002 0.000429303
55 21.0797 0.345528 1.05863 0 0 1.00003 0.000505805
56 20.2176 0.769842 0.970988 0 0 1.00003 0.000458783
135 21.091 1.63583 0.945889 0 0 1.00003 0.000529969
54 21.1714 0.757876 0.215769 0 0 1.00003 0.000507122
133 20.3167 1.50077 0.195599 0 0 1.00003 0.000470221
57 22.0122 0.261351 0.533781 0 0 1.00003 0.000567054
59 22.8153 0.42414 1.3907 0 0 1.00003 0.000652512
60 22.1183 1.13543 1.31625 0 0 1.00003 0.000601754
137 22.0012 1.58266 0.529543 0 0 1.00003 0.000589125
58 22.939 1.05692 0.444183 0 0 1.00003 0.000657322
63 24.2926 0.374879 1.42723 0 0 1.00004 0.000798591
61 23.6068 0.35113 0.568225 0 0 1.00003 0.000712365
62 24.4972 1.16875 0.744737 0 0 1.00004 0.000816706
64 23.5183 1.23121 1.38492 0 0 1.00004 0.000733827
65 25.03 0.311922 0.543809 0 0 1.00004 0.000857889
67 26.1054 0.375646 1.15887 0 0 1.00004 0.00097908
68 25.2494 1.11209 1.45872 0 0 1.00004 0.00091084
147 26.0315 1.71575 1.33986 0 0 1.00004 0.00100591
66 25.9873 0.922615 0.423963 0 0 1.00004 0.000963186
70 27.7079 1.26986 0.382903 0 0 1.00004 0.00114254
71 27.7469 0.500531 0.866586 0 0 1.00004 0.00113807
72 26.871 1.01734 1.2471 0 0 1.00004 0.0010699
69 26.9056 0.238356 0.227656 0 0 1.00004 0.00104566
913 28.5309 0.339526 1.39768 0 0 1.00004 0.00121739
76 28.8028 1.22491 0.729766 0 0 1.00004 0.00124052
914 29.546 0.951067 1.55992 0 0 1.00004 0.00131054
993 28.6736 1.70962 1.49135 0 0 1.00004 0.00126163
917 29.9923 0.165641 1.45068 0 0 1.00004 0.00132839
75 29.4339 0.352226 0.61277 0 0 1.00004 0.00127225
79 30.8883 0.47699 0.477078 0 0 1.00003 0.0013619
80 30.2674 1.19174 0.769684 0 0 1.00004 0.00134516
918 31.0421 0.968594 1.38889 0 0 1.00003 0.00139525
82 1.30057 2.43858 0.123471 0 0 1.00003 0.00148583
84 0.325865 2.37995 0.808627 0 0 1.00003 0.0014702
163 1.48226 3.23482 0.946969 0 0 1.00003 0.00154379
922 1.33398 2.36657 1.59215 0 0 1.00003 0.00151181
1001 0.582932 3.03538 1.54937 0 0 1.00003 0.00153447
161 0.525646 3.10145 0.130757 0 0 1.00003 0.00150781
88 2.10217 2.42149 0.78815 0 0 1.00003 0.00149475
167 2.84604 3.29294 0.862679 0 0 1.00003 0.00153914
926 2.86046 2.24674 1.54726 0 0 1.00003 0.00149792
86 2.90566 2.39421 0.0555332 0 0 1.00003 0.00147672
1009 3.45242 3.43631 1.66183 0 0 1.00002 0.0015601
92 3.5613 2.57146 0.788905 0 0 1.00002 0.00147669
91 4.17497 1.84906 0.718914 0 0 1.00002 0.00141827
171 4.37456 3.34008 0.758947 0 0 1.00002 0.00149106
930 4.31307 2.65957 1.59338 0 0 1.00002 0.00147557
96 5.06776 2.5893 0.826575 0 0 1.00002 0.0014119
94 5.7939 2.46742 0.138591 0 0 1.00002 0.00134982
100 6.68423 2.20564 0.786299 0 0 1.00002 0.00127859
175 5.80206 3.22551 0.966723 0 0 1.00002 0.00140653
934 6.00301 2.22208 1.51091 0 0 1.00002 0.00135146
1017 6.66181 3.09844 1.57156 0 0 1.00002 0.0013531
173 5.15107 3.35694 0.00218045 0 0 1.00002 0.00144488
177 6.77437 2.96351 0.13539 0 0 1.00002 0.00130415
98 7.5582 2.25153 0.142158 0 0 1.00001 0.00119906
104 8.17728 2.22744 0.946048 0 0 1.00001 0.00115112
179 7.5158 3.09901 0.942906 0 0 1.00001 0.00126196
938 7.41188 2.08579 1.58878 0 0 1.00001 0.00123428
1021 8.28482 3.03574 1.67519 0 0 1.00001 0.0012098
181 8.36191 3.0037 0.0424524 0 0 1.00001 0.00116423
102 8.97639 2.11538 0.256842 0 0 1.00001 0.00105678
108 9.8244 2.04814 1.12198 0 0 1.00001 0.000982337
183 9.00205 3.00663 0.945032 0 0 1.00001 0.00111308
942 9.10174 2.24889 1.72949 0 0 1.00001 0.00108549
185 9.62189 2.94004 0.215276 0 0 1.00001 0.00103364
106 10.3201 2.13752 0.215996 0 0 1.00001 0.000919375
112 11.1744 1.84905 0.782784 0 0 1.00001 0.000826711
187 10.6548 2.83894 0.934757 0 0 1.00001 0.000930559
1029 11.4591 2.86264 1.60024 0 0 1.00001 0.00087181
116 12.6577 1.95877 0.603719 0 0 1.00001 0.000682871
191 11.9306 2.67044 0.751534 0 0 1.00001 0.000787621
950 11.9266 1.9406 1.48479 0 0 1.00001 0.000771466
1033 12.834 3.04559 1.70944 0 0 1.00001 0.000752081
195 13.1676 3.05004 0.854282 0 0 1.00001 0.000694935
954 13.3539 2.00837 1.49534 0 0 1.00001 0.000643387
114 13.3859 2.31394 0.0594558 0 0 1.00001 0.000629625
120 13.9851 2.46145 0.932499 0 0 1.00001 0.000598425
1037 13.9989 3.40807 1.57089 0 0 1.00001 0.000670007
199 14.658 3.45302 0.888174 0 0 1.00001 0.000604845
958 14.7439 2.3116 1.45231 0 0 1.00001 0.000551785
118 14.7949 2.52382 0.139486 0 0 1.00001 0.000535372
197 14.1219 3.24218 0.0382839 0 0 1.00001 0.000619811
124 15.644 2.4468 0.699613 0 0 1.00001 0.000491067
203 16.2533 3.20396 0.670497 0 0 1.00002 0.000504021
962 16.2544 2.4807 1.5287 0 0 1.00002 0.00048705
1041 15.3293 3.26798 1.51142 0 0 1.00001 0.000570278
201 15.5203 3.26787 0.0240857 0 0 1.00001 0.000533433
128 17.0097 2.35105 0.683861 0 0 1.00002 0.000442159
207 17.8925 2.9195 0.700594 0 0 1.00002 0.000461621
966 17.9666 2.42959 1.58 0 0 1.00002 0.000459033
1045 17.0386 3.11245 1.49726 0 0 1.00002 0.000497696
132 18.8455 2.34618 1.00805 0 0 1.00002 0.000452129
211 19.6673 3.21713 1.26747 0 0 1.00003 0.000527271
209 18.8386 2.98184 0.193145 0 0 1.00002 0.000471235
130 19.5512 2.3228 0.102969 0 0 1.00002 0.000462924
973 20.2985 1.76948 1.71365 0 0 1.00003 0.00050494
134 21.1483 2.3946 0.452415 0 0 1.00003 0.000553719
136 20.1688 2.4457 1.10354 0 0 1.00003 0.000507829
215 21.3088 3.26467 1.37396 0 0 1.00003 0.000627162
213 20.3985 2.97105 0.330147 0 0 1.00003 0.000533633
139 22.9018 2.04089 1.49325 0 0 1.00003 0.000701125
138 23.0014 2.57278 0.724955 0 0 1.00003 0.000717168
140 22.1038 2.4705 1.22392 0 0 1.00003 0.000644399
217 21.9977 3.16775 0.592738 0 0 1.00003 0.000658649
16179 22.7096 3.36257 0.0696521 0 0 1.00003 0.000726129
141 23.7883 1.78665 0.615767 0 0 1.00004 0.000761382
143 24.4934 1.96205 1.58602 0 0 1.00004 0.000861907
142 24.4078 2.65032 0.763995 0 0 1.00004 0.000862484
144 23.7396 2.86421 1.51511 0 0 1.00004 0.000824437
223 24.5507 3.46954 1.53415 0 0 1.00004 0.000944614
16108 25.0367 2.8077 0.0141331 0 0 1.00004 0.000931052
149 26.6628 1.77368 0.50592 0 0 1.00004 0.00105748
145 25.213 1.83294 0.506433 0 0 1.00004 0.000908491
146 25.8941 2.58036 0.696026 0 0 1.00004 0.00101426
148 25.248 2.52793 1.50287 0 0 1.00004 0.000961891
227 25.8295 3.45738 1.49362 0 0 1.00004 0.0010797
152 26.6545 2.53524 1.51046 0 0 1.00004 0.00111148
229 26.2903 3.46464 0.587511 0 0 1.00004 0.0011065
151 27.6386 1.9655 1.22086 0 0 1.00004 0.00117436
153 28.4007 2.07305 0.340789 0 0 1.00004 0.00123184
150 27.2185 2.66455 0.632419 0 0 1.00004 0.00115376
231 27.3469 3.32007 1.39833 0 0 1.00004 0.0012239
156 28.4076 2.73175 1.18987 0 0 1.00004 0.00127907
233 28.134 3.19549 0.329301 0 0 1.00004 0.00126544
155 29.6107 2.02185 0.878407 0 0 1.00004 0.00133141
154 29.36 2.65377 0.284492 0 0 1.00004 0.00133541
235 29.4291 3.23723 1.17258 0 0 1.00004 0.00139078
997 30.1393 1.79677 1.6974 0 0 1.00004 0.00138046
159 31.0944 1.97205 0.920828 0 0 1.00003 0.00141824
160 30.3627 2.69704 0.996439 0 0 1.00004 0.00141524
239 31.2206 3.32956 0.972516 0 0 1.00003 0.00149692
998 31.177 2.68324 1.72245 0 0 1.00003 0.00147989
237 30.3032 3.23024 0.146524 0 0 1.00004 0.00143137
157 30.5828 1.89766 0.032759 0 0 1.00004 0.00137853
158 31.329 2.65128 0.0761802 0 0 1.00003 0.0014503
164 0.498473 3.77827 0.919845 0 0 1.00003 0.00156252
241 0.353763 4.597 0.473283 0 0 1.00003 0.00161597
243 1.34654 4.67004 0.989553 0 0 1.00003 0.00165205
244 0.316014 5.26036 1.27343 0 0 1.00003 0.00169429
162 1.24608 3.86023 0.0705891 0 0 1.00003 0.00157216
168 2.05516 4.05041 0.852561 0 0 1.00003 0.00160131
247 2.74877 4.87425 1.13502 0 0 1.00003 0.001673
166 2.84954 4.1592 0.204181 0 0 1.00003 0.00159281
245 2.11053 4.97165 0.28387 0 0 1.00003 0.00166989
249 3.61066 4.88237 0.165414 0 0 1.00002 0.001635
172 3.68076 4.09889 0.894479 0 0 1.00002 0.00157676
251 4.24979 4.90906 1.16042 0 0 1.00002 0.00163356
170 4.43746 4.20662 0.147952 0 0 1.00002 0.00154555
176 5.08593 4.03651 1.18663 0 0 1.00002 0.00151743
253 5.18667 4.77726 0.340091 0 0 1.00002 0.00155682
174 5.92215 3.97324 0.196038 0 0 1.00002 0.00144015
180 6.63847 3.80725 0.789922 0 0 1.00002 0.00138228
255 5.85776 4.77017 1.04517 0 0 1.00002 0.00152766
1097 6.8133 4.56225 1.67247 0 0 1.00001 0.00146191
260 6.8271 5.18538 0.89512 0 0 1.00001 0.00149052
184 8.30226 3.93089 0.716951 0 0 1.00001 0.00124282
259 7.53378 4.50764 0.560889 0 0 1.00001 0.00135917
1018 7.52597 3.91156 1.52316 0 0 1.00001 0.00133938
1101 8.31471 4.66194 1.51282 0 0 1.00001 0.00132889
188 9.95313 3.62158 0.902064 0 0 1.00001 0.00105529
263 9.16386 4.61689 0.838051 0 0 1.00001 0.0012171
265 9.92445 4.55779 0.131601 0 0 1.00001 0.00112091
1022 9.15506 3.80934 1.52545 0 0 1.00001 0.00117294
1105 9.93974 4.4002 1.68718 0 0 1.00001 0.00114877
182 9.06679 3.91044 0.0647222 0 0 1.00001 0.0011576
192 11.4273 3.68263 0.797724 0 0 1.00001 0.000902859
267 10.6364 4.71162 0.92476 0 0 1.00001 0.0010728
269 11.413 4.74105 0.232925 0 0 1.00001 0.000981064
1026 10.7448 3.61169 1.61577 0 0 1.00001 0.000995054
1109 11.3937 4.42664 1.73275 0 0 1.00001 0.000999052
186 10.6255 3.88854 0.178984 0 0 1.00001 0.000992413
196 12.506 3.61764 0.826402 0 0 1.00001 0.000792178
271 12.1981 4.59313 1.01676 0 0 1.00001 0.000903517
1113 12.7504 5.03581 1.71512 0 0 1.00001 0.000918962
275 13.2153 4.72202 0.812601 0 0 1.00001 0.000811824
273 12.6367 4.65734 0.0637556 0 0 1.00001 0.000850196
200 13.9643 4.15199 0.705758 0 0 1.00001 0.000700338
1034 13.4692 4.25151 1.61252 0 0 1.00001 0.00077862
1117 14.1799 5.14622 1.54076 0 0 1.00001 0.000793942
279 14.9074 5.03345 0.820072 0 0 1.00001 0.000706073
1038 14.9314 4.4327 1.60664 0 0 1.00001 0.000681554
277 14.1142 4.92983 0.0677421 0 0 1.00001 0.000743293
198 14.9195 4.20877 0.102012 0 0 1.00001 0.000629359
204 15.6207 4.07656 0.92941 0 0 1.00001 0.000591752
281 15.8308 4.78312 0.189019 0 0 1.00001 0.000623674
283 16.5461 4.58299 0.903225 0 0 1.00002 0.000591517
1042 16.2723 3.96409 1.69409 0 0 1.00001 0.000581181
1121 15.7734 5.06098 1.65097 0 0 1.00001 0.000689282
208 17.2188 3.82786 0.811072 0 0 1.00002 0.000520581
287 18.0403 4.47352 1.09364 0 0 1.00002 0.000567923
1046 17.9053 3.62796 1.65158 0 0 1.00002 0.000527077
285 17.4037 4.56931 0.0178174 0 0 1.00002 0.000561128
206 18.0877 3.84027 0.0621515 0 0 1.00002 0.000509271
212 18.8333 3.68884 0.947443 0 0 1.00002 0.000521165
289 18.7854 4.58805 0.359582 0 0 1.00002 0.000571847
291 19.6608 4.64449 1.07786 0 0 1.00003 0.000616964
292 18.7502 5.2521 1.19212 0 0 1.00002 0.000641469
210 19.5653 3.74174 0.228859 0 0 1.00002 0.000536884
216 20.4204 3.78974 1.22144 0 0 1.00003 0.000597167
295 20.8809 4.67646 1.37508 0 0 1.00003 0.000695117
297 21.5957 4.90481 0.795246 0 0 1.00003 0.000748132
214 21.0807 3.89667 0.506603 0 0 1.00003 0.000630837
293 20.1206 4.75051 0.345179 0 0 1.00003 0.000632716
219 22.8579 3.58726 1.39881 0 0 1.00004 0.000777803
220 21.9568 4.08955 1.29224 0 0 1.00003 0.000728661
299 22.5114 5.11815 1.25362 0 0 1.00004 0.000856124
218 22.6488 4.29996 0.506854 0 0 1.00003 0.000787234
221 23.627 3.59457 0.768924 0 0 1.00004 0.000837002
222 24.4136 4.27421 0.61539 0 0 1.00004 0.00096274
224 23.5264 4.49507 1.31355 0 0 1.00004 0.000906176
305 24.9564 5.19588 0.555068 0 0 1.00004 0.00109637
301 23.614 5.011 0.522331 0 0 1.00004 0.000936327
303 24.4534 5.23019 1.40715 0 0 1.00004 0.00106882
228 25.1128 4.44335 1.59238 0 0 1.00004 0.00108039
225 25.1549 3.63036 0.785115 0 0 1.00004 0.00100007
307 25.8193 5.08305 1.32246 0 0 1.00004 0.00119988
232 26.4921 4.24282 1.35254 0 0 1.00004 0.00120215
309 26.6448 4.9242 0.630664 0 0 1.00004 0.00125416
226 25.6411 4.35402 0.386696 0 0 1.00004 0.00109687
311 27.4923 4.82356 1.38357 0 0 1.00004 0.00135178
236 28.1228 3.93808 1.09265 0 0 1.00004 0.00132841
230 27.2085 3.99979 0.568438 0 0 1.00004 0.00123565
313 28.4524 4.69953 0.695232 0 0 1.00004 0.0014099
234 29.1058 3.74735 0.474535 0 0 1.00004 0.00138538
315 29.2734 4.48943 1.31206 0 0 1.00004 0.00147573
314 29.5889 5.27891 0.804956 0 0 1.00004 0.0015542
240 30.1882 4.03677 1.02155 0 0 1.00004 0.00149386
238 31.229 3.97086 0.360528 0 0 1.00004 0.00153341
317 30.4095 4.66671 0.474846 0 0 1.00004 0.00154853
319 31.1899 4.59093 1.38999 0 0 1.00004 0.00160572
242 1.13851 5.52784 0.461554 0 0 1.00003 0.0017174
323 1.04005 6.20722 1.27686 0 0 1.00003 0.00180581
324 0.50204 6.92098 1.49826 0 0 1.00003 0.00188002
322 1.22357 6.94047 0.569328 0 0 1.00003 0.00186604
321 0.214749 5.99199 0.447987 0 0 1.00003 0.00174068
248 1.76588 5.51717 1.37892 0 0 1.00003 0.00174906
328 1.95712 7.03607 1.24846 0 0 1.00003 0.00190284
325 2.1211 6.21109 0.513616 0 0 1.00003 0.00179185
252 3.33638 5.64874 1.30568 0 0 1.00002 0.00174156
327 2.50848 6.17591 1.41954 0 0 1.00003 0.00181369
246 2.90309 5.62312 0.276229 0 0 1.00003 0.00172228
332 3.49065 6.99513 1.15185 0 0 1.00002 0.00187502
329 3.62155 6.3024 0.497787 0 0 1.00002 0.00177573
250 4.3941 5.49584 0.330637 0 0 1.00002 0.00166381
331 4.34435 6.12868 1.24495 0 0 1.00002 0.00175397
336 4.99186 6.85324 1.1795 0 0 1.00002 0.0017988
330 4.22878 7.05168 0.23115 0 0 1.00002 0.00183325
333 5.03131 6.27627 0.336147 0 0 1.00002 0.00171209
256 5.13068 5.47267 1.32606 0 0 1.00002 0.00165019
254 5.9492 5.4578 0.304553 0 0 1.00002 0.00157085
335 5.87644 6.28339 0.978866 0 0 1.00002 0.00167763
1177 6.63787 6.04254 1.62902 0 0 1.00001 0.00162349
340 6.6206 6.92843 1.02017 0 0 1.00001 0.00169509
337 6.55771 6.10687 0.155143 0 0 1.00001 0.00159064
264 8.32915 5.37089 0.712565 0 0 1.00001 0.00136917
339 7.4748 6.21166 0.773137 0 0 1.00001 0.00153775
1098 7.53859 5.47047 1.52419 0 0 1.00001 0.00148187
344 8.16181 6.92037 0.746423 0 0 1.00001 0.00155003
1178 7.45297 6.92091 1.63532 0 0 1.00001 0.00165814
258 7.46661 5.41033 0.0452582 0 0 1.00001 0.00144383
1181 8.36743 6.17584 1.52957 0 0 1.00001 0.00148135
268 9.84537 5.3798 0.811747 0 0 1.00001 0.00121664
343 8.99518 6.25083 0.755404 0 0 1.00001 0.00139537
1102 9.1519 5.38811 1.62626 0 0 1.00001 0.00132404
1185 9.83083 6.25137 1.50663 0 0 1.00001 0.0013385
1182 9.21038 7.02442 1.50126 0 0 1.00001 0.00149242
345 9.84764 6.29684 0.0997262 0 0 1.00001 0.00129998
262 9.09705 5.52671 0.0200549 0 0 1.00001 0.00129853
272 11.4259 5.32771 1.01068 0 0 1.00001 0.00105109
347 10.6514 6.08383 0.982312 0 0 1.00001 0.00120774
349 11.3611 6.42781 0.0807539 0 0 1.00001 0.00115179
346 10.596 7.01019 0.155998 0 0 1 0.00129648
1186 10.5521 6.99714 1.535 0 0 1 0.00135029
270 12.0191 5.67432 0.188632 0 0 1.00001 0.00100474
276 12.6855 5.86074 0.878929 0 0 1.00001 0.000971455
351 11.8111 6.26723 1.07592 0 0 1.00001 0.00110738
1114 13.3264 5.91072 1.58649 0 0 1.00001 0.000944162
355 13.3565 6.62286 0.826215 0 0 1.00001 0.000982475
274 13.3113 5.57852 0.0450247 0 0 1.00001 0.000868874
280 14.0452 5.75024 0.785768 0 0 1.00001 0.000834
1197 14.3137 6.68545 1.43175 0 0 1.00001 0.000934057
357 14.1164 6.41954 0.0415015 0 0 1.00001 0.000881664
278 14.9899 5.66095 0.0384044 0 0 1.00001 0.000744724
359 15.0209 6.47467 0.815936 0 0 1.00001 0.000833832
284 15.793 5.74918 0.961011 0 0 1.00001 0.000722853
363 16.4561 6.4577 1.14769 0 0 1.00001 0.000769025
1118 15.0816 5.89681 1.71353 0 0 1.00001 0.000811853
282 16.5763 5.42159 0.277167 0 0 1.00001 0.000647969
361 15.6441 6.3554 0.0434136 0 0 1.00001 0.000770706
286 17.7865 5.29239 0.539979 0 0 1.00002 0.000620074
288 17.0688 5.42108 1.24804 0 0 1.00002 0.000658314
365 17.0274 6.27259 0.411736 0 0 1.00002 0.000713747
367 17.6303 6.23486 1.37952 0 0 1.00002 0.000731284
372 18.2497 7.03193 1.13027 0 0 1.00002 0.000798953
369 18.3424 6.20923 0.608905 0 0 1.00002 0.000703394
290 19.4089 5.72363 0.614238 0 0 1.00002 0.000684523
371 19.3102 6.52147 1.33239 0 0 1.00002 0.000777949
373 19.9903 6.70649 0.601897 0 0 1.00003 0.000799148
294 20.7551 5.72771 0.641954 0 0 1.00003 0.000753652
296 20.1807 5.5678 1.37775 0 0 1.00003 0.000727906
375 20.7908 6.55885 1.28169 0 0 1.00003 0.00085438
377 21.6889 6.60556 0.654981 0 0 1.00003 0.000903568
300 21.687 5.82012 1.35732 0 0 1.00003 0.000852639
16260 21.7159 5.68033 0.0524912 0 0 1.00003 0.000813183
298 22.7226 5.77251 0.654871 0 0 1.00004 0.000917355
379 22.6915 6.62624 1.17996 0 0 1.00004 0.00101368
381 23.4268 6.70866 0.262818 0 0 1.00004 0.00106875
304 23.558 5.82302 1.26803 0 0 1.00004 0.0010238
383 24.4286 6.49847 1.13684 0 0 1.00004 0.00117918
302 24.2349 5.94049 0.414405 0 0 1.00004 0.00108214
306 25.8196 5.80286 0.68159 0 0 1.00004 0.00124747
308 25.2352 5.9729 1.63808 0 0 1.00004 0.00123572
385 25.2892 6.66952 0.481879 0 0 1.00004 0.00127002
387 25.9851 6.5336 1.37769 0 0 1.00004 0.00136401
312 26.8519 5.79153 1.44642 0 0 1.00004 0.00138189
310 27.6726 5.49896 0.706105 0 0 1.00004 0.00141099
389 26.9158 6.31056 0.632784 0 0 1.00004 0.00141248
391 27.8909 6.41514 1.34365 0 0 1.00004 0.00154306
390 27.9095 6.95504 0.515722 0 0 1.00004 0.00157461
392 26.9712 7.05372 1.31179 0 0 1.00004 0.00152048
316 28.5599 5.48137 1.45759 0 0 1.00004 0.00151511
395 29.6554 6.15476 1.30544 0 0 1.00004 0.00166164
394 29.8082 6.88378 0.50198 0 0 1.00004 0.0017245
393 28.6729 6.16742 0.634245 0 0 1.00004 0.00156554
16355 29.5862 6.10964 0.0741495 0 0 1.00004 0.00162334
16276 28.6709 5.35621 0.0500455 0 0 1.00004 0.00148066
318 31.1865 5.34613 0.589966 0 0 1.00004 0.00165106
320 30.4376 5.43062 1.44646 0 0 1.00004 0.0016449
397 30.6186 6.16138 0.638401 0 0 1.00004 0.00170245
399 31.4522 6.136 1.37558 0 0 1.00004 0.0017634
398 31.4519 6.93372 0.603717 0 0 1.00004 0.00182311
401 0.523954 7.63168 0.654105 0 0 1.00003 0.0019271
402 1.11995 8.46997 0.608509 0 0 1.00003 0.00203125
403 1.37787 7.8557 1.4948 0 0 1.00003 0.00200277
404 0.63391 8.54836 1.46281 0 0 1.00004 0.00206404
405 1.85909 7.77219 0.380041 0 0 1.00003 0.00195767
408 2.01125 8.63076 1.46852 0 0 1.00003 0.00209282
326 2.73042 7.16038 0.47441 0 0 1.00003 0.00188851
406 2.47785 8.63806 0.402541 0 0 1.00003 0.00205227
407 2.66082 7.82907 1.28967 0 0 1.00003 0.00198972
412 3.29338 8.54544 0.952855 0 0 1.00002 0.0020466
409 3.49297 7.7918 0.333246 0 0 1.00002 0.00193949
410 4.07462 8.49406 0.0807508 0 0 1.00002 0.0019985
411 4.22649 7.68825 1.24997 0 0 1.00002 0.00193099
416 4.944 8.31134 0.950641 0 0 1.00002 0.00195914
413 4.90688 7.68717 0.24465 0 0 1.00002 0.00187087
334 5.75077 7.0967 0.155345 0 0 1.00002 0.00175719
414 6.09075 8.40414 0.180187 0 0 1.00001 0.00188236
415 5.70499 7.63293 1.04431 0 0 1.00002 0.001841
417 6.68288 7.60452 0.173265 0 0 1.00001 0.00174726
420 6.60615 8.27969 1.07143 0 0 1.00001 0.00185367
419 7.46788 7.82848 0.768952 0 0 1.00001 0.0017204
1258 7.46889 8.24104 1.74118 0 0 1.00001 0.00182072
1261 8.21629 7.55744 1.59974 0 0 1.00001 0.00166143
421 8.15552 7.67187 0.0288281 0 0 1.00001 0.00162566
424 8.43866 8.38687 0.89833 0 0 1.00001 0.00170183
348 9.93638 7.28649 0.748561 0 0 1 0.00141321
423 9.04439 7.6848 0.683078 0 0 1.00001 0.00154958
428 9.8534 8.68833 0.72 0 0 1 0.00158457
1262 9.23435 8.77057 1.49364 0 0 1 0.00170357
1265 9.77286 7.95886 1.64267 0 0 1 0.00155781
352 11.368 7.20558 0.831185 0 0 1 0.00125206
427 10.6637 8.00952 0.869527 0 0 1 0.001423
1266 10.689 8.78242 1.47635 0 0 1 0.00154824
1269 11.47 7.8802 1.64472 0 0 1 0.00136415
429 11.2976 8.18369 0.0477046 0 0 1 0.00135285
356 12.7309 7.34157 0.583997 0 0 1 0.00111534
431 12.225 8.28865 0.613746 0 0 1 0.00127719
1190 12.1157 7.21921 1.41531 0 0 1 0.0012015
1270 12.1461 8.74559 1.53785 0 0 1 0.00138869
1273 12.8891 8.05663 1.5143 0 0 1 0.00122607
350 11.9408 7.44583 0.000913508 0 0 1 0.00119954
360 14.3196 7.38866 0.605416 0 0 1.00001 0.000974898
435 13.6275 8.14055 0.483451 0 0 1 0.00111445
1194 13.4766 7.38541 1.37527 0 0 1 0.00108107
1277 14.2555 8.21477 1.3812 0 0 1 0.00110672
439 15.0657 8.3187 0.878041 0 0 1.00001 0.00102902
362 16.4044 7.18913 0.283282 0 0 1.00001 0.000820323
364 15.6087 7.32611 0.92505 0 0 1.00001 0.000888155
443 16.2453 8.16825 1.1177 0 0 1.00001 0.000955368
1198 15.1284 7.54832 1.65282 0 0 1.00001 0.000984022
441 15.8432 8.32329 0.156534 0 0 1.00001 0.000962607
368 16.9513 7.35678 1.11816 0 0 1.00001 0.000844132
445 17.0412 8.10216 0.337046 0 0 1.00001 0.000894435
447 17.6901 8.011 1.02763 0 0 1.00002 0.000895303
366 17.7896 7.1543 0.218032 0 0 1.00002 0.000786169
370 18.9946 7.30433 0.6334 0 0 1.00002 0.000820585
451 18.9229 8.11971 1.1706 0 0 1.00002 0.000923454
376 19.8774 7.61003 1.30295 0 0 1.00003 0.000909959
453 19.8089 8.09516 0.35578 0 0 1.00003 0.000923139
449 18.4387 8.1649 0.175944 0 0 1.00002 0.000888535
374 20.7174 7.4076 0.656935 0 0 1.00003 0.000910814
455 20.6783 8.3817 1.01285 0 0 1.00003 0.00102055
380 21.5862 7.60818 1.12166 0 0 1.00003 0.001012
457 21.6615 8.28066 0.254278 0 0 1.00004 0.001061
459 22.6662 8.1097 0.990052 0 0 1.00004 0.00115646
1218 22.4867 7.42891 1.71542 0 0 1.00004 0.00110651
378 22.3968 7.41797 0.376616 0 0 1.00004 0.00103994
458 22.8448 8.81398 0.196617 0 0 1.00004 0.00122499
384 23.5377 7.25376 1.03076 0 0 1.00004 0.00115576
461 23.5868 8.00748 0.370465 0 0 1.00004 0.00122172
463 24.4728 8.02377 0.970254 0 0 1.00004 0.00133676
1302 24.3936 8.6499 1.64527 0 0 1.00005 0.00143885
382 24.4495 7.25392 0.264789 0 0 1.00004 0.00123299
462 24.447 8.7491 0.201551 0 0 1.00004 0.00139106
388 25.2606 7.32305 1.2211 0 0 1.00004 0.00136094
467 26.1982 7.94083 0.96634 0 0 1.00005 0.00151929
1306 26.2115 8.55692 1.71092 0 0 1.00005 0.00163605
386 26.2504 7.20777 0.361827 0 0 1.00004 0.00142802
465 25.3783 8.0537 0.302335 0 0 1.00004 0.00142213
466 26.4565 8.52062 0.0882942 0 0 1.00005 0.00159018
468 25.4506 8.78484 0.978605 0 0 1.00005 0.00153169
470 28.19 8.45141 0.41051 0 0 1.00005 0.00176162
471 28.0183 7.77816 1.18815 0 0 1.00005 0.00169742
472 27.1898 8.5949 1.00117 0 0 1.00005 0.00169982
469 27.191 7.72321 0.423232 0 0 1.00004 0.00158329
1310 28.0217 8.63833 1.75707 0 0 1.00005 0.00183098
396 28.8709 7.06296 1.20998 0 0 1.00004 0.00169389
474 29.85 8.33186 0.534566 0 0 1.00004 0.00188513
475 29.7422 7.64236 1.26208 0 0 1.00004 0.00182463
476 29.0224 8.50995 1.16523 0 0 1.00004 0.00186433
473 28.9281 7.68063 0.408349 0 0 1.00004 0.00174205
400 30.5721 7.06264 1.16984 0 0 1.00004 0.00181034
479 31.5119 7.80008 1.29069 0 0 1.00004 0.00194277
480 30.7001 8.46222 1.17556 0 0 1.00004 0.0019724
477 30.893 7.85002 0.379726 0 0 1.00004 0.0018912
478 31.7025 8.59979 0.389313 0 0 1.00004 0.00200948
482 1.42881 10.2824 0.268373 0 0 1.00003 0.00222331
483 1.31577 9.36457 1.19982 0 0 1.00003 0.0021558
484 0.560228 9.92664 0.900561 0 0 1.00004 0.00218632
481 0.658172 9.33311 0.124487 0 0 1.00003 0.00210952
1322 1.12794 10.125 1.75135 0 0 1.00003 0.00227172
485 2.04344 9.46382 0.446791 0 0 1.00003 0.00214624
488 2.13424 10.3666 0.975456 0 0 1.00003 0.00225746
486 2.88466 10.2926 0.0781409 0 0 1.00003 0.00222162
487 2.66444 9.46093 1.2256 0 0 1.00003 0.00217092
1326 3.07258 10.2529 1.6845 0 0 1.00003 0.00228194
489 3.3541 9.38614 0.0925813 0 0 1.00002 0.00211864
1329 3.50074 9.27 1.68492 0 0 1.00002 0.00216373
492 3.66712 10.0675 0.753558 0 0 1.00002 0.0021974
491 4.2014 9.14471 0.871501 0 0 1.00002 0.00208415
493 4.82906 9.23269 0.00627198 0 0 1.00002 0.00204914
496 4.8705 10.0222 0.581146 0 0 1.00002 0.00214396
1330 4.40763 10.0049 1.63124 0 0 1.00002 0.00221543
1333 4.93682 9.10919 1.67191 0 0 1.00002 0.00209423
495 5.57019 9.00369 0.674436 0 0 1.00002 0.00199544
500 6.47091 9.85252 0.532471 0 0 1.00001 0.00202744
1334 5.5822 9.88373 1.2035 0 0 1.00001 0.00211665
1337 6.38406 9.12133 1.2922 0 0 1.00001 0.00198358
1417 6.48849 10.5719 1.22637 0 0 1.00001 0.0021356
499 7.36309 8.94383 0.735427 0 0 1.00001 0.00185999
501 8.27106 9.11521 0.0885468 0 0 1.00001 0.00178299
504 8.15469 9.99417 0.596844 0 0 1.00001 0.00190371
1338 7.38528 9.80403 1.23129 0 0 1.00001 0.00198206
1341 8.22889 9.23493 1.44003 0 0 1 0.00185526
503 9.09787 9.52031 0.751974 0 0 1 0.00176467
508 9.79277 10.399 0.688664 0 0 1 0.00178823
1342 8.93151 10.3235 1.45728 0 0 1 0.00191686
1345 9.96544 9.65463 1.46265 0 0 1 0.00173152
432 11.4463 8.91189 0.756149 0 0 1 0.00143795
426 10.509 8.9491 0.0404011 0 0 1 0.00152915
507 10.5807 9.74727 0.682554 0 0 1 0.00162976
1346 10.7567 10.2446 1.69008 0 0 0.999998 0.00173549
1349 11.4079 9.69408 1.36416 0 0 0.999999 0.00157127
436 13.032 9.00892 0.807362 0 0 1 0.00128233
511 12.1728 9.86818 0.711757 0 0 0.999999 0.00146768
516 12.8797 10.528 0.987385 0 0 0.999999 0.00147655
1353 12.6153 9.67606 1.65875 0 0 0.999999 0.00146288
1274 13.7126 8.89844 1.60337 0 0 1 0.00125363
440 14.4737 9.22671 0.777473 0 0 1 0.00117124
515 13.5681 9.73622 0.8613 0 0 1 0.00131361
1354 13.5506 10.4651 1.75057 0 0 0.999998 0.00146613
517 14.2927 10.181 0.225571 0 0 1 0.00127162
444 15.8939 9.17145 1.146 0 0 1.00001 0.00108551
519 15.1425 9.8881 1.03021 0 0 1.00001 0.00120355
521 15.6926 10.1942 0.254822 0 0 1.00001 0.00116741
523 16.5056 9.96481 0.969941 0 0 1.00001 0.00112899
442 16.4952 9.04225 0.265538 0 0 1.00001 0.00100859
438 15.2912 9.2261 0.108544 0 0 1.00001 0.00109119
452 18.2972 8.87909 0.939356 0 0 1.00002 0.000982104
448 17.086 9.06341 1.12973 0 0 1.00001 0.0010239
525 17.155 10.0217 0.206837 0 0 1.00001 0.00108583
527 17.7795 9.85562 1.06933 0 0 1.00002 0.00109115
446 17.7565 9.09592 0.119953 0 0 1.00002 0.000981705
456 19.8451 8.91949 1.046 0 0 1.00003 0.0010337
529 18.6057 9.71262 0.300021 0 0 1.00002 0.00104911
531 19.5289 9.86549 0.84471 0 0 1.00003 0.00110717
532 18.7426 10.4348 1.13628 0 0 1.00002 0.00115877
1369 18.6691 9.56368 1.69639 0 0 1.00002 0.00111192
450 19.249 8.93108 0.209842 0 0 1.00002 0.000983683
533 20.0249 9.74871 0.07054 0 0 1.00003 0.00109751
535 20.9885 9.7638 0.742159 0 0 1.00003 0.00117493
1373 20.2899 9.62361 1.6445 0 0 1.00003 0.00117429
454 20.8309 9.03055 0.200649 0 0 1.00003 0.00107469
460 21.6938 8.98037 0.95826 0 0 1.00004 0.00115806
1374 21.157 10.0617 1.74836 0 0 1.00004 0.0012879
1298 22.4894 8.82692 1.55566 0 0 1.00004 0.00124979
539 22.9371 9.63558 0.787709 0 0 1.00004 0.00133715
540 22.2001 10.4711 0.843739 0 0 1.00004 0.00135096
1377 22.013 9.73502 1.50669 0 0 1.00004 0.00130209
1378 23.1642 10.4571 1.41092 0 0 1.00005 0.00148582
537 22.051 9.75547 0.209815 0 0 1.00004 0.00124647
464 23.5503 8.90348 0.948451 0 0 1.00004 0.00132999
543 24.6704 9.50757 0.74712 0 0 1.00005 0.00151346
1381 23.8329 9.5499 1.52606 0 0 1.00005 0.00147198
1382 24.5587 10.2865 1.42297 0 0 1.00005 0.00162249
544 23.7532 10.4883 0.610311 0 0 1.00005 0.00150477
542 24.6109 10.2728 0.101242 0 0 1.00005 0.00156737
1385 25.2449 9.46143 1.62283 0 0 1.00005 0.00162579