ITEM: TIMESTEP
28500
ITEM: NUMBER OF ATOMS
32000
ITEM: BOX BOUNDS pp pp pp
0.0000000000000000e+00 3.1748021039364001e+01
0.0000000000000000e+00 3.1748021039364001e+01
0.0000000000000000e+00 3.1748021039364001e+01
ITEM: ATOMS id x y z c_phase c_nbond c_rho vx
4 0.356562 1.09602 0.472446 0 0 1.00004 0.00166408
83 1.21444 1.66648 0.785261 0 0 1.00003 0.0017078
842 0.96184 0.790262 1.40823 0 0 1.00003 0.001694
921 0.25266 1.59601 1.38204 0 0 1.00004 0.00169405
3 0.96993 0.0715789 0.625272 0 0 1.00003 0.00166957
841 0.0811315 0.268472 1.25688 0 0 1.00004 0.00165629
8 1.9529 0.825385 1.01496 0 0 1.00003 0.00169811
85 2.04622 1.49077 0.213296 0 0 1.00003 0.00170413
925 2.08377 1.66196 1.75658 0 0 1.00003 0.00174495
6 2.75078 0.746404 0.204669 0 0 1.00003 0.00168362
7 2.81774 0.0598021 1.04146 0 0 1.00003 0.00168805
87 2.88187 1.54813 0.880432 0 0 1.00003 0.00171105
846 2.91676 0.827258 1.74408 0 0 1.00003 0.0017167
12 3.65362 0.931618 0.969774 0 0 1.00003 0.00168232
849 3.71849 0.0879508 1.72111 0 0 1.00003 0.0016922
929 3.8366 1.71541 1.72668 0 0 1.00003 0.00172403
10 4.32793 0.863982 0.322811 0 0 1.00003 0.00164934
850 4.5481 0.95121 1.64995 0 0 1.00003 0.00167315
9 3.69196 0.104409 0.177874 0 0 1.00003 0.00165986
93 5.12472 1.61171 0.390481 0 0 1.00003 0.00163711
16 5.17575 0.57058 1.17011 0 0 1.00003 0.00162195
14 5.83549 0.649076 0.323452 0 0 1.00002 0.0015721
95 6.06928 1.32834 0.959344 0 0 1.00002 0.00158265
854 5.9781 0.463414 1.72039 0 0 1.00002 0.00159254
933 5.22837 1.73061 1.45129 0 0 1.00002 0.00165819
97 6.74372 1.41223 0.222611 0 0 1.00002 0.00152802
20 6.87747 0.402572 0.883331 0 0 1.00002 0.00150623
937 6.86141 1.02561 1.71703 0 0 1.00002 0.00154288
99 7.51719 1.24242 0.964573 0 0 1.00002 0.00147414
941 8.2628 1.29035 1.63491 0 0 1.00002 0.00143253
18 7.72277 0.663568 0.152016 0 0 1.00002 0.00143324
101 8.37125 1.40937 0.241449 0 0 1.00002 0.0013959
24 8.38785 0.417363 1.08452 0 0 1.00002 0.00138647
22 8.96258 0.516146 0.272384 0 0 1.00002 0.0013221
28 9.64344 0.340809 0.907802 0 0 1.00002 0.00126437
103 9.12777 1.32736 1.12199 0 0 1.00002 0.00133918
105 9.7243 1.38855 0.0969134 0 0 1.00002 0.00126861
32 11.252 0.219249 0.64794 0 0 1.00002 0.00110303
107 10.4317 1.06499 0.838208 0 0 1.00002 0.00119872
866 10.5846 0.202751 1.46881 0 0 1.00002 0.00118694
949 11.3341 1.02963 1.43883 0 0 1.00002 0.00112495
946 10.6449 1.70436 1.75249 0 0 1.00002 0.00122487
26 10.312 0.372109 0.0805586 0 0 1.00002 0.0011906
36 12.8823 0.217104 0.647964 0 0 1.00002 0.000951639
111 12.0643 1.0876 0.519661 0 0 1.00002 0.00103654
870 12.1526 0.320416 1.32051 0 0 1.00002 0.00103294
953 12.7304 1.20859 1.3923 0 0 1.00002 0.000996484
40 14.3522 0.329458 0.78396 0 0 1.00002 0.00083706
115 13.581 1.12081 0.854552 0 0 1.00002 0.000909604
117 14.0285 1.57056 0.163864 0 0 1.00002 0.000878139
874 13.6035 0.364559 1.65267 0 0 1.00002 0.000916077
957 14.3592 1.16091 1.49297 0 0 1.00002 0.00086688
119 14.8528 1.56231 0.669867 0 0 1.00002 0.000826486
38 15.0708 0.713791 0.0679671 0 0 1.00002 0.000787904
44 15.6733 0.768161 0.791786 0 0 1.00002 0.0007624
123 16.5109 1.54391 0.684713 0 0 1.00002 0.000744594
878 15.113 0.466619 1.65102 0 0 1.00002 0.000810461
882 16.5061 0.710277 1.34647 0 0 1.00002 0.000739113
961 15.5971 1.49505 1.40029 0 0 1.00002 0.000797472
48 17.219 0.729127 0.554086 0 0 1.00002 0.000705583
127 17.8874 1.5778 0.755008 0 0 1.00002 0.000718993
886 17.8794 0.741796 1.42413 0 0 1.00002 0.000713988
965 17.1824 1.74537 1.5639 0 0 1.00002 0.000752476
51 19.5145 0.0128204 0.660587 0 0 1.00003 0.000711986
52 18.7606 0.722967 0.68411 0 0 1.00003 0.000701831
131 19.5199 1.54227 0.836808 0 0 1.00003 0.000737769
889 18.9967 0.153373 1.53858 0 0 1.00003 0.000717595
890 19.5753 0.959875 1.68109 0 0 1.00003 0.000745455
969 18.6322 1.50126 1.49457 0 0 1.00003 0.000734378
55 21.1049 0.345077 1.05798 0 0 1.00003 0.000788003
56 20.2386 0.76933 0.969778 0 0 1.00003 0.000748619
135 21.1139 1.63237 0.946185 0 0 1.00003 0.000812647
54 21.1936 0.757297 0.215074 0 0 1.00003 0.000788015
133 20.3382 1.49927 0.196554 0 0 1.00003 0.000759554
57 22.0377 0.262366 0.532873 0 0 1.00003 0.000840633
59 22.8442 0.423491 1.38819 0 0 1.00004 0.000920103
60 22.1447 1.1347 1.31488 0 0 1.00003 0.000875468
137 22.0263 1.58117 0.527364 0 0 1.00003 0.000863671
58 22.9663 1.05306 0.445688 0 0 1.00004 0.0009234
63 24.3288 0.374251 1.42147 0 0 1.00004 0.00105534
61 23.6371 0.349866 0.567944 0 0 1.00004 0.000973152
62 24.5298 1.16545 0.743067 0 0 1.00004 0.0010718
64 23.5501 1.2279 1.38221 0 0 1.00004 0.000996337
65 25.0658 0.31162 0.542196 0 0 1.00004 0.0011094
67 26.1435 0.374015 1.15717 0 0 1.00004 0.00122549
68 25.2854 1.11049 1.45447 0 0 1.00004 0.00116196
147 26.0711 1.71329 1.33705 0 0 1.00004 0.00125376
66 26.0255 0.922694 0.422172 0 0 1.00004 0.00121003
70 27.7526 1.26836 0.38176 0 0 1.00004 0.00138408
71 27.7912 0.498574 0.865546 0 0 1.00004 0.00137922
72 26.9121 1.01583 1.24419 0 0 1.00004 0.00131376
69 26.9462 0.238342 0.228735 0 0 1.00004 0.00128861
913 28.5799 0.340477 1.3986 0 0 1.00004 0.00145809
76 28.8506 1.22125 0.727165 0 0 1.00004 0.00148065
914 29.5933 0.952835 1.55843 0 0 1.00004 0.00155119
993 28.7204 1.70867 1.49097 0 0 1.00004 0.00150297
917 30.0457 0.1641 1.44842 0 0 1.00004 0.00156926
75 29.4831 0.351621 0.612701 0 0 1.00004 0.00151202
79 30.9431 0.473711 0.47875 0 0 1.00004 0.00160378
80 30.3175 1.18994 0.768781 0 0 1.00004 0.00158619
918 31.0942 0.968068 1.38773 0 0 1.00004 0.0016382
82 1.35642 2.43813 0.121914 0 0 1.00003 0.00173749
84 0.381892 2.37894 0.807767 0 0 1.00004 0.00171768
163 1.53897 3.23263 0.946044 0 0 1.00003 0.00179789
922 1.39093 2.36677 1.59195 0 0 1.00003 0.00176434
1001 0.639598 3.03585 1.54936 0 0 1.00004 0.00178471
161 0.58154 3.10239 0.130437 0 0 1.00004 0.00175725
88 2.15942 2.42059 0.788915 0 0 1.00003 0.00175088
167 2.90309 3.29388 0.862431 0 0 1.00003 0.0018015
926 2.91875 2.2497 1.54955 0 0 1.00003 0.00175922
86 2.96096 2.39577 0.0552682 0 0 1.00003 0.00173772
1009 3.51245 3.43554 1.66322 0 0 1.00003 0.00182714
92 3.61757 2.57364 0.79073 0 0 1.00003 0.00174266
91 4.22949 1.84889 0.720149 0 0 1.00003 0.00168762
171 4.43049 3.34271 0.760738 0 0 1.00003 0.00176429
930 4.37105 2.66144 1.5945 0 0 1.00003 0.00174754
96 5.12071 2.59022 0.828428 0 0 1.00003 0.0016892
94 5.84603 2.47059 0.139997 0 0 1.00002 0.00163276
175 5.85674 3.22922 0.968818 0 0 1.00002 0.00169097
934 6.05493 2.22657 1.51232 0 0 1.00002 0.00163612
173 5.20468 3.35843 0.00420282 0 0 1.00002 0.00172407
1017 6.71587 3.10223 1.57281 0 0 1.00002 0.00164458
100 6.73441 2.20926 0.788763 0 0 1.00002 0.00156844
177 6.82359 2.96941 0.135186 0 0 1.00002 0.00159606
98 7.60505 2.25507 0.142201 0 0 1.00002 0.0014959
104 8.22444 2.23054 0.948792 0 0 1.00002 0.00145304
179 7.56547 3.10228 0.942683 0 0 1.00002 0.00156006
938 7.4607 2.08942 1.59148 0 0 1.00002 0.00153046
1021 8.33308 3.03972 1.6781 0 0 1.00002 0.0015146
181 8.40862 3.00772 0.0431904 0 0 1.00002 0.00146868
102 9.01992 2.12044 0.257281 0 0 1.00002 0.0013643
108 9.86494 2.05121 1.12249 0 0 1.00002 0.00129591
183 9.04628 3.01102 0.947686 0 0 1.00002 0.00142292
942 9.14501 2.2527 1.73355 0 0 1.00002 0.00139534
185 9.66466 2.94523 0.214956 0 0 1.00002 0.0013473
106 10.3579 2.14077 0.215261 0 0 1.00002 0.00123594
112 11.2092 1.85333 0.784758 0 0 1.00002 0.00114762
187 10.6929 2.84314 0.936379 0 0 1.00001 0.00125073
1029 11.4945 2.86787 1.60483 0 0 1.00001 0.00119689
116 12.6873 1.96167 0.605874 0 0 1.00002 0.0010089
191 11.9641 2.67578 0.752756 0 0 1.00001 0.00111326
950 11.9601 1.94379 1.48811 0 0 1.00002 0.00109615
1033 12.8664 3.05019 1.71349 0 0 1.00001 0.00108199
195 13.2003 3.0528 0.854536 0 0 1.00002 0.00102399
954 13.3829 2.01152 1.49784 0 0 1.00002 0.000971283
114 13.4138 2.31777 0.0591748 0 0 1.00002 0.000957223
120 14.012 2.46468 0.933137 0 0 1.00002 0.000926757
1037 14.0287 3.41273 1.5733 0 0 1.00001 0.00100154
199 14.686 3.45621 0.888396 0 0 1.00002 0.000935098
958 14.7708 2.31479 1.45291 0 0 1.00002 0.000879271
118 14.8195 2.52554 0.139955 0 0 1.00002 0.000862503
197 14.1491 3.24505 0.0395599 0 0 1.00002 0.000949823
124 15.6666 2.44789 0.701234 0 0 1.00002 0.000815693
203 16.2779 3.20563 0.672633 0 0 1.00002 0.000827974
962 16.2775 2.48173 1.52981 0 0 1.00002 0.000809858
1041 15.3569 3.27059 1.51369 0 0 1.00002 0.000898822
201 15.545 3.27039 0.0250863 0 0 1.00002 0.000860589
128 17.0314 2.35239 0.684422 0 0 1.00002 0.000759618
207 17.9146 2.92004 0.701476 0 0 1.00002 0.000774456
966 17.9881 2.42917 1.58104 0 0 1.00002 0.000770989
1045 17.0618 3.11323 1.49871 0 0 1.00002 0.000817631
132 18.8668 2.34583 1.00776 0 0 1.00003 0.00075628
211 19.6901 3.21449 1.26663 0 0 1.00003 0.000826501
209 18.8605 2.98124 0.192571 0 0 1.00003 0.000776525
130 19.5734 2.3205 0.103539 0 0 1.00003 0.000760396
973 20.3213 1.76701 1.71355 0 0 1.00003 0.000796011
134 21.1737 2.39266 0.451507 0 0 1.00003 0.000837122
136 20.1924 2.44299 1.10224 0 0 1.00003 0.000800537
215 21.3359 3.26203 1.37141 0 0 1.00003 0.000911454
213 20.4219 2.96953 0.329369 0 0 1.00003 0.000824924
139 22.9318 2.03617 1.49218 0 0 1.00004 0.000969586
138 23.0304 2.56954 0.723335 0 0 1.00004 0.000984914
140 22.1299 2.46699 1.22256 0 0 1.00004 0.000919649
217 22.0245 3.16437 0.592401 0 0 1.00004 0.000935968
16179 22.7415 3.35748 0.0674187 0 0 1.00004 0.000997843
141 23.8185 1.78412 0.614551 0 0 1.00004 0.00102177
143 24.527 1.95868 1.58145 0 0 1.00004 0.00111841
142 24.4424 2.64587 0.762419 0 0 1.00004 0.00112015
144 23.7721 2.85836 1.51235 0 0 1.00004 0.00108742
223 24.588 3.46429 1.53115 0 0 1.00004 0.00120342
16108 25.0735 2.80127 0.013786 0 0 1.00004 0.00118481
149 26.7044 1.77043 0.505365 0 0 1.00004 0.00130238
145 25.2492 1.82954 0.506989 0 0 1.00004 0.00116001
146 25.9342 2.57546 0.693961 0 0 1.00004 0.00126345
148 25.2866 2.52482 1.49934 0 0 1.00004 0.00121496
227 25.8711 3.45146 1.49142 0 0 1.00004 0.00133134
152 26.6966 2.53213 1.50731 0 0 1.00004 0.00135804
229 26.3347 3.45944 0.585529 0 0 1.00004 0.00135578
151 27.6832 1.96217 1.21765 0 0 1.00004 0.00141705
150 27.2632 2.65998 0.629712 0 0 1.00004 0.00139822
231 27.3954 3.31456 1.39566 0 0 1.00004 0.00146984
233 28.1822 3.19192 0.33037 0 0 1.00004 0.00150906
153 28.4488 2.07015 0.34037 0 0 1.00004 0.00147319
156 28.4561 2.72704 1.18691 0 0 1.00004 0.00152173
155 29.6597 2.01668 0.87839 0 0 1.00004 0.00157245
154 29.4101 2.65396 0.283377 0 0 1.00004 0.00157747
235 29.4825 3.23194 1.173 0 0 1.00004 0.00163421
997 30.1935 1.7943 1.69544 0 0 1.00004 0.0016228
159 31.1485 1.9687 0.920155 0 0 1.00004 0.00166202
160 30.4158 2.69395 0.995571 0 0 1.00004 0.00165848
239 31.2773 3.3243 0.972454 0 0 1.00004 0.00174318
998 31.2325 2.68022 1.72192 0 0 1.00004 0.00172558
237 30.3596 3.22444 0.149857 0 0 1.00004 0.00167524
157 30.6334 1.89533 0.0347551 0 0 1.00004 0.00162058
158 31.3833 2.64794 0.0762497 0 0 1.00004 0.00169541
164 0.556799 3.77627 0.919875 0 0 1.00004 0.0018133
241 0.413957 4.59668 0.47082 0 0 1.00004 0.00186829
243 1.40597 4.66804 0.989779 0 0 1.00003 0.00190884
244 0.38009 5.2579 1.27253 0 0 1.00004 0.00194841
162 1.30534 3.85845 0.0730734 0 0 1.00003 0.00182623
168 2.11749 4.04953 0.853725 0 0 1.00003 0.0018603
247 2.81071 4.87606 1.13381 0 0 1.00003 0.00193844
166 2.90969 4.16024 0.20305 0 0 1.00003 0.00185691
245 2.1723 4.96997 0.285066 0 0 1.00003 0.00193129
249 3.67254 4.88366 0.166257 0 0 1.00003 0.00190587
172 3.7385 4.10144 0.895951 0 0 1.00003 0.00184655
251 4.31277 4.91174 1.16232 0 0 1.00003 0.0019094
170 4.49435 4.20798 0.14753 0 0 1.00003 0.00182088
176 5.14354 4.0415 1.1851 0 0 1.00002 0.00179786
253 5.24549 4.78167 0.33905 0 0 1.00002 0.00183952
174 5.97473 3.97748 0.194611 0 0 1.00002 0.00172722
180 6.69477 3.81343 0.793234 0 0 1.00002 0.00167463
255 5.91883 4.77288 1.04834 0 0 1.00002 0.0018157
1097 6.86969 4.56981 1.67676 0 0 1.00002 0.00175808
260 6.88231 5.19352 0.895354 0 0 1.00002 0.00178806
184 8.35209 3.9349 0.719932 0 0 1.00002 0.00154908
259 7.58628 4.51398 0.563736 0 0 1.00002 0.0016608
1018 7.5791 3.91644 1.52713 0 0 1.00002 0.00163962
1101 8.36705 4.66849 1.51595 0 0 1.00002 0.00163747
188 9.9951 3.62847 0.904553 0 0 1.00002 0.00137324
263 9.21132 4.62406 0.84019 0 0 1.00002 0.00153212
265 9.96824 4.56712 0.132414 0 0 1.00001 0.00144124
1022 9.19991 3.81617 1.52966 0 0 1.00002 0.00148647
1105 9.98649 4.40842 1.69198 0 0 1.00001 0.00146903
182 9.11314 3.91609 0.0645887 0 0 1.00002 0.00146968
192 11.4644 3.68829 0.802052 0 0 1.00001 0.00122908
267 10.679 4.71685 0.927346 0 0 1.00001 0.00139794
269 11.4524 4.74854 0.232402 0 0 1.00001 0.00131028
1026 10.785 3.61906 1.62032 0 0 1.00001 0.00131836
1109 11.4337 4.43652 1.73627 0 0 1.00001 0.00132829
186 10.6669 3.89381 0.178875 0 0 1.00001 0.00131471
196 12.5377 3.62566 0.828237 0 0 1.00001 0.00112246
271 12.2344 4.59999 1.01918 0 0 1.00001 0.0012359
1113 12.7914 5.04086 1.71892 0 0 1.00001 0.00125418
275 13.2499 4.73077 0.814414 0 0 1.00001 0.00114699
273 12.6705 4.66362 0.0633743 0 0 1.00001 0.0011838
200 13.9956 4.15612 0.707408 0 0 1.00001 0.00103344
1034 13.503 4.25737 1.61551 0 0 1.00001 0.00111283
1117 14.2129 5.15123 1.54474 0 0 1.00001 0.00113138
279 14.9387 5.03843 0.821761 0 0 1.00002 0.00104156
1038 14.9622 4.43586 1.60903 0 0 1.00002 0.00101511
277 14.1461 4.93374 0.0695821 0 0 1.00001 0.00107912
198 14.9474 4.21179 0.103148 0 0 1.00002 0.000961401
204 15.6471 4.07939 0.929972 0 0 1.00002 0.000921537
281 15.8575 4.78562 0.189411 0 0 1.00002 0.000955001
283 16.5728 4.5854 0.904344 0 0 1.00002 0.000918827
1042 16.2992 3.9666 1.69546 0 0 1.00002 0.00090841
1121 15.804 5.0634 1.65357 0 0 1.00002 0.00102256
208 17.2431 3.82851 0.811538 0 0 1.00002 0.000840985
287 18.0653 4.47327 1.09372 0 0 1.00002 0.00088476
1046 17.9294 3.62838 1.65209 0 0 1.00002 0.000842637
285 17.4278 4.57005 0.018544 0 0 1.00002 0.000882773
206 18.1114 3.83969 0.0631228 0 0 1.00002 0.000823128
212 18.856 3.68806 0.948029 0 0 1.00003 0.000828805
289 18.8109 4.58694 0.35946 0 0 1.00003 0.000882636
291 19.6862 4.64096 1.0794 0 0 1.00003 0.00092033
292 18.7772 5.25071 1.19182 0 0 1.00003 0.000955199
210 19.5892 3.73953 0.229696 0 0 1.00003 0.000837823
216 20.446 3.7865 1.22064 0 0 1.00003 0.000890896
295 20.9095 4.6721 1.37305 0 0 1.00003 0.000987054
297 21.6282 4.89968 0.792996 0 0 1.00003 0.00103392
214 21.1089 3.89332 0.506203 0 0 1.00003 0.000918422
293 20.1494 4.74715 0.343878 0 0 1.00003 0.00093176
219 22.8904 3.58097 1.39562 0 0 1.00004 0.00104914
220 21.9866 4.08438 1.29035 0 0 1.00004 0.00100897
299 22.5466 5.10996 1.2521 0 0 1.00004 0.00113434
218 22.6823 4.29391 0.507762 0 0 1.00004 0.00106179
221 23.6611 3.58814 0.766729 0 0 1.00004 0.00110196
222 24.4514 4.26841 0.614593 0 0 1.00004 0.00122389
224 23.5623 4.4874 1.31189 0 0 1.00004 0.00117434
305 25.0002 5.18622 0.553521 0 0 1.00004 0.00135651
301 23.6504 5.0044 0.520777 0 0 1.00004 0.0012051
303 24.4944 5.22231 1.40388 0 0 1.00004 0.00133243
228 25.1554 4.43445 1.58738 0 0 1.00004 0.00133784
225 25.1944 3.62162 0.781736 0 0 1.00004 0.00125489
307 25.8664 5.07469 1.32038 0 0 1.00004 0.00145549
232 26.539 4.23529 1.35005 0 0 1.00004 0.00145264
309 26.6935 4.91691 0.629283 0 0 1.00004 0.00150575
226 25.6847 4.34727 0.387466 0 0 1.00004 0.00135111
311 27.544 4.8162 1.37989 0 0 1.00004 0.00160078
236 28.1731 3.93153 1.09111 0 0 1.00004 0.00157382
230 27.2556 3.99263 0.568909 0 0 1.00004 0.00148285
313 28.5057 4.6935 0.693288 0 0 1.00004 0.00165678
234 29.1583 3.74352 0.471903 0 0 1.00004 0.00162955
315 29.3284 4.48315 1.30825 0 0 1.00004 0.0017219
314 29.647 5.27332 0.80267 0 0 1.00004 0.00180265
240 30.2437 4.02969 1.02084 0 0 1.00004 0.00173941
238 31.2864 3.96967 0.357835 0 0 1.00004 0.00178119
317 30.468 4.66393 0.471777 0 0 1.00004 0.00179628
319 31.2501 4.58862 1.38531 0 0 1.00004 0.00185527
242 1.2038 5.52525 0.461043 0 0 1.00004 0.00197534
323 1.10838 6.20301 1.27645 0 0 1.00004 0.00206532
324 0.570107 6.92047 1.49534 0 0 1.00004 0.00213993
322 1.29405 6.93737 0.568245 0 0 1.00004 0.00212852
321 0.281624 5.99034 0.448481 0 0 1.00004 0.00199657
248 1.83315 5.51604 1.3774 0 0 1.00003 0.00201045
328 2.02752 7.03503 1.24974 0 0 1.00003 0.00216949
325 2.18582 6.21099 0.511904 0 0 1.00003 0.00205697
327 2.57823 6.17816 1.41986 0 0 1.00003 0.00208133
246 2.96774 5.62251 0.276664 0 0 1.00003 0.00199017
252 3.40447 5.65193 1.30503 0 0 1.00003 0.00201285
332 3.5594 6.99863 1.15593 0 0 1.00003 0.00215113
329 3.68841 6.30347 0.4962 0 0 1.00003 0.00205038
250 4.45765 5.49962 0.331394 0 0 1.00003 0.00194212
331 4.40862 6.132 1.24697 0 0 1.00003 0.00203371
330 4.29739 7.05334 0.233132 0 0 1.00003 0.00211437
336 5.05984 6.86057 1.18188 0 0 1.00002 0.00208571
333 5.09678 6.2814 0.335785 0 0 1.00002 0.00199752
256 5.19409 5.4786 1.32542 0 0 1.00002 0.00193431
254 6.00669 5.46144 0.304084 0 0 1.00002 0.0018615
335 5.93835 6.28641 0.980661 0 0 1.00002 0.00196964
1177 6.70102 6.05042 1.63334 0 0 1.00002 0.00192149
340 6.68593 6.93584 1.01948 0 0 1.00002 0.0019951
337 6.62067 6.11712 0.154627 0 0 1.00002 0.0018884
339 7.53259 6.21743 0.775986 0 0 1.00002 0.00184328
1098 7.59651 5.47623 1.52895 0 0 1.00002 0.00178589
344 8.22261 6.92962 0.748175 0 0 1.00001 0.00186337
1178 7.51669 6.92672 1.64042 0 0 1.00002 0.00196488
258 7.52161 5.41734 0.0445318 0 0 1.00002 0.00174725
264 8.38178 5.37878 0.715614 0 0 1.00002 0.0016797
1181 8.42342 6.18506 1.53517 0 0 1.00001 0.00179457
268 9.89375 5.38917 0.814652 0 0 1.00001 0.00153889
343 9.05073 6.25924 0.757915 0 0 1.00001 0.00171348
1102 9.20281 5.39662 1.62922 0 0 1.00001 0.00164122
1185 9.8833 6.25892 1.51283 0 0 1.00001 0.00166302
1182 9.2665 7.03529 1.50635 0 0 1.00001 0.00181484
345 9.89818 6.30689 0.10054 0 0 1.00001 0.00162507
262 9.14886 5.53594 0.0216576 0 0 1.00001 0.00161558
272 11.469 5.33665 1.01578 0 0 1.00001 0.00138265
347 10.7008 6.09336 0.983476 0 0 1.00001 0.00153713
349 11.408 6.43606 0.0808145 0 0 1.00001 0.00148637
346 10.648 7.0215 0.154666 0 0 1.00001 0.00162897
1186 10.6054 7.00796 1.54025 0 0 1.00001 0.00168217
266 10.5867 5.64342 0.0014639 0 0 1.00001 0.00148443
270 12.0596 5.68095 0.189404 0 0 1.00001 0.00133984
276 12.7256 5.86674 0.881512 0 0 1.00001 0.00130941
351 11.8551 6.27753 1.07896 0 0 1.00001 0.00144406
1114 13.3668 5.9184 1.59241 0 0 1.00001 0.00128404
274 13.347 5.58558 0.0452342 0 0 1.00001 0.00120718
355 13.3979 6.62906 0.827521 0 0 1.00001 0.00132462
280 14.0809 5.75684 0.788104 0 0 1.00001 0.00117347
1197 14.3516 6.69157 1.43681 0 0 1.00001 0.00127742
357 14.1539 6.42628 0.0420459 0 0 1.00001 0.00122366
278 15.0203 5.66449 0.039236 0 0 1.00002 0.00108242
359 15.056 6.48003 0.817533 0 0 1.00001 0.00117504
284 15.8244 5.75248 0.961367 0 0 1.00002 0.00105844
363 16.4889 6.46089 1.1502 0 0 1.00002 0.00110454
1118 15.1168 5.90115 1.71652 0 0 1.00001 0.00115071
282 16.6051 5.42407 0.277158 0 0 1.00002 0.000978207
361 15.678 6.36023 0.0444159 0 0 1.00002 0.00110938
286 17.8144 5.29385 0.540052 0 0 1.00002 0.000941875
288 17.097 5.42276 1.24906 0 0 1.00002 0.000985929
365 17.0597 6.27501 0.411939 0 0 1.00002 0.00104489
367 17.6615 6.23577 1.37956 0 0 1.00002 0.00105816
372 18.2835 7.03206 1.13237 0 0 1.00002 0.00112417
369 18.3735 6.20826 0.609749 0 0 1.00002 0.00102417
290 19.439 5.72037 0.613958 0 0 1.00003 0.000993908
371 19.3419 6.51867 1.33084 0 0 1.00003 0.00109136
373 20.024 6.70149 0.601465 0 0 1.00003 0.00110661
294 20.7879 5.72211 0.640488 0 0 1.00003 0.00105001
296 20.21 5.56349 1.37635 0 0 1.00003 0.00102945
375 20.8255 6.55288 1.28009 0 0 1.00003 0.00115327
377 21.7249 6.59913 0.654266 0 0 1.00004 0.00119412
300 21.7207 5.81274 1.3539 0 0 1.00004 0.00114028
16260 21.7504 5.67422 0.0528858 0 0 1.00004 0.00110032
298 22.7594 5.76612 0.651474 0 0 1.00004 0.00119571
379 22.7315 6.61733 1.17698 0 0 1.00004 0.00129486
381 23.469 6.69783 0.262739 0 0 1.00004 0.00134418
304 23.5987 5.81509 1.26311 0 0 1.00004 0.00129549
383 24.4752 6.4898 1.13512 0 0 1.00004 0.00144692
302 24.2768 5.93044 0.412181 0 0 1.00004 0.00134908
306 25.8688 5.79374 0.678294 0 0 1.00004 0.00150503
308 25.2823 5.96263 1.63187 0 0 1.00004 0.00149652
385 25.338 6.65759 0.480062 0 0 1.00005 0.0015327
387 26.0398 6.52465 1.37384 0 0 1.00005 0.00162333
312 26.9044 5.78322 1.44176 0 0 1.00005 0.00163536
310 27.7274 5.49187 0.703116 0 0 1.00004 0.00166151
389 26.9699 6.30201 0.629227 0 0 1.00005 0.00166734
391 27.9481 6.40479 1.34051 0 0 1.00005 0.00179563
390 27.9696 6.94637 0.513023 0 0 1.00005 0.00182914
392 27.0303 7.0451 1.30675 0 0 1.00005 0.00177765
316 28.6181 5.47437 1.4522 0 0 1.00004 0.00176441
395 29.7175 6.15013 1.30247 0 0 1.00004 0.0019131
394 29.8732 6.8819 0.500898 0 0 1.00004 0.00197863
393 28.7331 6.16118 0.634092 0 0 1.00004 0.00181687
16355 29.6468 6.10157 0.0734932 0 0 1.00004 0.00187401
16276 28.7272 5.35083 0.0477631 0 0 1.00004 0.00172933
318 31.2496 5.34116 0.588694 0 0 1.00004 0.00190225
320 30.4999 5.42456 1.44178 0 0 1.00004 0.00189484
397 30.6812 6.1574 0.635742 0 0 1.00004 0.00195485
399 31.5169 6.13146 1.37344 0 0 1.00004 0.00201775
398 31.5214 6.92864 0.603828 0 0 1.00004 0.00207995
401 0.596237 7.6309 0.651821 0 0 1.00004 0.00218926
402 1.19841 8.46988 0.605406 0 0 1.00004 0.0022983
403 1.45094 7.85196 1.49295 0 0 1.00004 0.00226853
404 0.708704 8.54379 1.46001 0 0 1.00004 0.00232871
478 0.0299467 8.59372 0.388776 0 0 1.00004 0.00227224
405 1.93296 7.77164 0.381871 0 0 1.00003 0.00222601
408 2.08948 8.63049 1.4677 0 0 1.00003 0.00236415
326 2.80015 7.15901 0.473443 0 0 1.00003 0.00215977
406 2.55685 8.63589 0.402444 0 0 1.00003 0.00232616
407 2.73576 7.82983 1.2907 0 0 1.00003 0.00226253
412 3.37245 8.5485 0.955653 0 0 1.00003 0.00232552
409 3.56504 7.79277 0.334248 0 0 1.00003 0.00221752
410 4.15083 8.49708 0.0804335 0 0 1.00003 0.00228251
411 4.29909 7.68817 1.24776 0 0 1.00003 0.00221319
416 5.01689 8.31852 0.955243 0 0 1.00002 0.00224955
413 4.97876 7.6944 0.243326 0 0 1.00002 0.00215915
334 5.81673 7.10088 0.156998 0 0 1.00002 0.00205046
414 6.16214 8.41159 0.182278 0 0 1.00002 0.00218195
415 5.77533 7.63703 1.0446 0 0 1.00002 0.0021348
420 6.67574 8.28248 1.07488 0 0 1.00002 0.00215644
417 6.7491 7.61429 0.173178 0 0 1.00002 0.00205016
419 7.53494 7.83522 0.771747 0 0 1.00002 0.00202986
1258 7.53669 8.24727 1.74492 0 0 1.00001 0.0021304
1261 8.28145 7.56656 1.60427 0 0 1.00001 0.00197627
421 8.21861 7.68182 0.0283347 0 0 1.00001 0.00194113
424 8.50101 8.39752 0.902324 0 0 1.00001 0.00202161
348 9.98991 7.29461 0.752588 0 0 1.00001 0.00174186
423 9.10442 7.69451 0.685914 0 0 1.00001 0.00187228
428 9.91417 8.69777 0.723818 0 0 1.00001 0.00191648
1262 9.2968 8.77959 1.49993 0 0 1.00001 0.00203007
1265 9.83639 7.96766 1.64674 0 0 1.00001 0.0018858
352 11.416 7.21501 0.833797 0 0 1.00001 0.0015898
427 10.7199 8.0182 0.872549 0 0 1.00001 0.00175858
1266 10.7478 8.79543 1.48351 0 0 1.00001 0.0018863
1269 11.5217 7.89232 1.64946 0 0 1.00001 0.00170448
429 11.351 8.19359 0.0484605 0 0 1.00001 0.00169347
356 12.7768 7.35194 0.587445 0 0 1.00001 0.00145938
431 12.2757 8.29598 0.617929 0 0 1.00001 0.00162247
1190 12.167 7.22872 1.42133 0 0 1.00001 0.00154243
1270 12.199 8.75613 1.54486 0 0 1.00001 0.00173492
1273 12.9368 8.06727 1.52025 0 0 1.00001 0.00157312
350 11.9891 7.45335 0.00102692 0 0 1.00001 0.00154065
360 14.3575 7.39521 0.611251 0 0 1.00001 0.00132131
435 13.6726 8.14949 0.487709 0 0 1.00001 0.00146354
1194 13.5227 7.39263 1.38167 0 0 1.00001 0.00142646
1277 14.3013 8.21969 1.38664 0 0 1.00001 0.00145549
439 15.11 8.32423 0.880326 0 0 1.00001 0.00137757
362 16.4403 7.1919 0.285024 0 0 1.00002 0.00115919
364 15.6472 7.32996 0.924954 0 0 1.00001 0.00123082
443 16.2864 8.17156 1.11932 0 0 1.00002 0.00129892
1198 15.1679 7.55401 1.659 0 0 1.00001 0.00132967
441 15.8819 8.32569 0.157149 0 0 1.00001 0.00130894
368 16.9876 7.35796 1.11932 0 0 1.00002 0.00118027
445 17.078 8.10462 0.335517 0 0 1.00002 0.00123352
447 17.7296 8.01209 1.02957 0 0 1.00002 0.00122898
366 17.8241 7.15572 0.219639 0 0 1.00002 0.00111577
370 19.0307 7.3015 0.631857 0 0 1.00003 0.00114002
451 18.9616 8.11753 1.1698 0 0 1.00003 0.00124669
376 19.9152 7.6053 1.30073 0 0 1.00003 0.00122187
453 19.8473 8.09019 0.355882 0 0 1.00003 0.00123781
449 18.4774 8.16382 0.178424 0 0 1.00002 0.00121664
374 20.7552 7.40183 0.654656 0 0 1.00003 0.0012138
455 20.7205 8.37468 1.01085 0 0 1.00003 0.00132726
380 21.6276 7.59999 1.11833 0 0 1.00004 0.00130679
457 21.7044 8.27252 0.254352 0 0 1.00004 0.00135792
459 22.7124 8.10116 0.986226 0 0 1.00004 0.00144302
1218 22.5302 7.41963 1.71046 0 0 1.00004 0.00139186
378 22.4388 7.4091 0.375577 0 0 1.00004 0.00132683
458 22.8913 8.80646 0.196184 0 0 1.00004 0.00151284
384 23.5835 7.24474 1.02947 0 0 1.00004 0.0014324
461 23.634 7.99857 0.367456 0 0 1.00004 0.00150054
463 24.5244 8.01208 0.965843 0 0 1.00005 0.00160875
1302 24.4483 8.64148 1.64125 0 0 1.00005 0.00171342
382 24.4961 7.24304 0.264888 0 0 1.00004 0.00150281
462 24.5 8.73725 0.200556 0 0 1.00005 0.00166594
1301 23.5216 7.96926 1.75515 0 0 1.00004 0.00154886
388 25.3134 7.31227 1.21616 0 0 1.00005 0.00162593
467 26.2568 7.93125 0.963441 0 0 1.00005 0.00178215
1306 26.2731 8.54653 1.70461 0 0 1.00005 0.00190017
386 26.3037 7.19606 0.361423 0 0 1.00005 0.00168779
465 25.4321 8.04062 0.302108 0 0 1.00005 0.00168889
466 26.5155 8.51033 0.0885661 0 0 1.00005 0.00185388
468 25.5087 8.77336 0.974126 0 0 1.00005 0.0018004
470 28.2554 8.44222 0.406527 0 0 1.00005 0.00202062
471 28.0833 7.76791 1.18386 0 0 1.00005 0.00195437
472 27.2546 8.58553 0.997851 0 0 1.00005 0.00196147
469 27.2509 7.71352 0.421524 0 0 1.00005 0.00184199
1310 28.0904 8.62759 1.75114 0 0 1.00005 0.00209036
396 28.9342 7.05373 1.20647 0 0 1.00004 0.00194767
474 29.9209 8.3286 0.532704 0 0 1.00005 0.00214407
475 29.8101 7.63582 1.25963 0 0 1.00004 0.00208082
476 29.0903 8.50085 1.16187 0 0 1.00005 0.00212269
473 28.9947 7.67453 0.406893 0 0 1.00005 0.0019983
400 30.6404 7.05632 1.16806 0 0 1.00004 0.00206558
479 31.583 7.79401 1.28827 0 0 1.00004 0.00220232
480 30.7734 8.45597 1.17424 0 0 1.00004 0.00223234
477 30.9631 7.84506 0.379693 0 0 1.00004 0.00214959
482 1.51193 10.2804 0.266631 0 0 1.00004 0.00249657
483 1.39664 9.3595 1.19773 0 0 1.00004 0.00242551
484 0.642168 9.92518 0.901817 0 0 1.00004 0.00245541
481 0.736902 9.33069 0.12497 0 0 1.00004 0.00237723
1322 1.2124 10.123 1.75014 0 0 1.00004 0.00254294
485 2.12247 9.46471 0.444427 0 0 1.00003 0.00242048
488 2.21773 10.3629 0.97614 0 0 1.00003 0.00253389
486 2.96571 10.2934 0.0767653 0 0 1.00003 0.00250257
487 2.74492 9.46082 1.22413 0 0 1.00003 0.00244801
1326 3.15538 10.2535 1.68566 0 0 1.00003 0.00256293
489 3.43355 9.38558 0.0959004 0 0 1.00003 0.00239978
1329 3.58425 9.27355 1.68969 0 0 1.00003 0.00244544
492 3.74805 10.0714 0.757163 0 0 1.00003 0.00248264
491 4.2796 9.14795 0.873312 0 0 1.00003 0.00237053
493 4.90507 9.24027 0.00569749 0 0 1.00002 0.00234102
496 4.94975 10.0277 0.581989 0 0 1.00002 0.00243763
1330 4.49018 10.0077 1.63062 0 0 1.00002 0.00250419
1333 5.01583 9.11293 1.67317 0 0 1.00002 0.00238519
495 5.64508 9.01246 0.676089 0 0 1.00002 0.00229247
500 6.54598 9.86019 0.534726 0 0 1.00002 0.00233353
1334 5.66375 9.89052 1.21079 0 0 1.00002 0.0024151
1337 6.45939 9.13092 1.29676 0 0 1.00002 0.00228712
1417 6.56862 10.5811 1.23245 0 0 1.00002 0.00244239
499 7.43275 8.95207 0.739367 0 0 1.00001 0.00217147
501 8.33921 9.12502 0.0900228 0 0 1.00001 0.00210295
504 8.22727 10.0046 0.599685 0 0 1.00001 0.00222452
1338 7.45696 9.81336 1.23686 0 0 1.00001 0.00229548
1341 8.29827 9.24387 1.44538 0 0 1.00001 0.00217412
503 9.16502 9.52894 0.755129 0 0 1.00001 0.00209214
508 9.86058 10.4072 0.693788 0 0 1.00001 0.00212319
1342 9.00308 10.3294 1.46424 0 0 1.00001 0.00224317
1345 10.0296 9.66267 1.47049 0 0 1.00001 0.00206567
432 11.5004 8.92176 0.759597 0 0 1.00001 0.00178152
426 10.5691 8.95747 0.039494 0 0 1.00001 0.00186648
507 10.6442 9.75654 0.687286 0 0 1.00001 0.00196948
1346 10.8214 10.2571 1.69787 0 0 1 0.0020765
1349 11.472 9.70162 1.37281 0 0 1.00001 0.00191528
436 13.0795 9.01525 0.810493 0 0 1.00001 0.00163297
511 12.2287 9.87585 0.715989 0 0 1 0.00181756
516 12.937 10.5376 0.991088 0 0 1 0.00183072
1353 12.6751 9.68635 1.66655 0 0 1 0.00181299
1274 13.7613 8.91001 1.60972 0 0 1.00001 0.00160526
440 14.5194 9.23138 0.781465 0 0 1.00001 0.00152417
515 13.6212 9.74781 0.866553 0 0 1.00001 0.00166796
1354 13.6082 10.4764 1.75758 0 0 1 0.00182096
517 14.3434 10.1854 0.227945 0 0 1.00001 0.0016279
444 15.9373 9.17478 1.14822 0 0 1.00001 0.00143465
519 15.1912 9.89566 1.03485 0 0 1.00001 0.00155794
521 15.7395 10.1972 0.254808 0 0 1.00001 0.00152138
523 16.5512 9.9681 0.972911 0 0 1.00002 0.00147819
442 16.5358 9.04738 0.267117 0 0 1.00002 0.0013551
438 15.3338 9.23052 0.113104 0 0 1.00001 0.00144316
452 18.3385 8.87937 0.94019 0 0 1.00002 0.00131425
448 17.1281 9.06389 1.13096 0 0 1.00002 0.00136588
525 17.2007 10.0227 0.206362 0 0 1.00002 0.00143142
527 17.8242 9.85486 1.07006 0 0 1.00002 0.00143071
446 17.7974 9.09603 0.121079 0 0 1.00002 0.00131943
456 19.8885 8.91512 1.0433 0 0 1.00003 0.00135054
529 18.6491 9.71208 0.300828 0 0 1.00003 0.00138171
531 19.5727 9.86261 0.845895 0 0 1.00003 0.00143125
532 18.7888 10.4343 1.13657 0 0 1.00003 0.00149184
1369 18.7128 9.56283 1.69608 0 0 1.00003 0.00144206
450 19.2889 8.92857 0.210122 0 0 1.00003 0.00130741
533 20.0715 9.74461 0.0699795 0 0 1.00003 0.00141624
535 21.0363 9.75827 0.742522 0 0 1.00004 0.00148358
1373 20.3348 9.61962 1.64126 0 0 1.00003 0.00148819
454 20.8736 9.02324 0.19911 0 0 1.00004 0.00138233
1374 21.2065 10.0557 1.74272 0 0 1.00004 0.00159371
460 21.7388 8.97233 0.955336 0 0 1.00004 0.00145663
1298 22.5394 8.81778 1.5521 0 0 1.00004 0.00153992
539 22.9884 9.62823 0.786041 0 0 1.00004 0.00162682
540 22.2537 10.4625 0.837438 0 0 1.00004 0.00164915
1377 22.0658 9.72772 1.50095 0 0 1.00004 0.00159935
1378 23.2204 10.4484 1.4044 0 0 1.00005 0.00177455
537 22.0992 9.7474 0.210734 0 0 1.00004 0.00154463
464 23.6029 8.8898 0.94442 0 0 1.00005 0.00161141
543 24.7278 9.4974 0.744768 0 0 1.00005 0.0017893
1381 23.8895 9.54166 1.51938 0 0 1.00005 0.00175291