ITEM: TIMESTEP
32500
ITEM: NUMBER OF ATOMS
32000
ITEM: BOX BOUNDS pp pp pp
0.0000000000000000e+00 3.1748021039364001e+01
0.0000000000000000e+00 3.1748021039364001e+01
0.0000000000000000e+00 3.1748021039364001e+01
ITEM: ATOMS id x y z c_phase c_nbond c_rho vx
4 0.429241 1.09463 0.474476 0 0 1.00004 0.00195496
83 1.28823 1.66573 0.787032 0 0 1.00004 0.00200263
842 1.03773 0.789391 1.40685 0 0 1.00004 0.00198763
921 0.327893 1.59472 1.38417 0 0 1.00004 0.00198507
3 1.04383 0.0731089 0.627243 0 0 1.00004 0.00196296
841 0.15466 0.26895 1.25715 0 0 1.00004 0.00194634
8 2.02828 0.829026 1.01456 0 0 1.00004 0.00199662
85 2.12197 1.49416 0.210653 0 0 1.00004 0.00200329
925 2.16318 1.66101 1.75437 0 0 1.00004 0.00204433
6 2.82421 0.744609 0.204248 0 0 1.00004 0.00198675
7 2.89004 0.0610395 1.04154 0 0 1.00003 0.00199158
87 2.95592 1.54898 0.878793 0 0 1.00003 0.00201539
846 2.99401 0.829452 1.74257 0 0 1.00003 0.00202111
12 3.72636 0.929338 0.971693 0 0 1.00003 0.00199182
849 3.79061 0.0860894 1.72353 0 0 1.00003 0.00200232
929 3.91171 1.71584 1.72619 0 0 1.00003 0.00203518
10 4.40237 0.864148 0.321567 0 0 1.00003 0.00196366
850 4.61803 0.951395 1.65291 0 0 1.00003 0.00198983
9 3.76304 0.102683 0.17961 0 0 1.00003 0.00196943
93 5.1977 1.61235 0.391421 0 0 1.00003 0.00195808
16 5.25049 0.570889 1.16672 0 0 1.00003 0.00194299
14 5.90639 0.649231 0.321808 0 0 1.00003 0.00189884
95 6.13922 1.33096 0.963878 0 0 1.00003 0.00191169
854 6.05055 0.463678 1.72369 0 0 1.00003 0.00192065
933 5.29849 1.72909 1.45353 0 0 1.00003 0.00198051
97 6.81142 1.4158 0.223035 0 0 1.00003 0.00186274
20 6.9444 0.405331 0.886618 0 0 1.00003 0.00184204
937 6.93016 1.02839 1.72035 0 0 1.00003 0.00187873
99 7.58276 1.24594 0.965048 0 0 1.00003 0.00181563
941 8.3277 1.29246 1.64005 0 0 1.00002 0.00178071
18 7.78643 0.66641 0.155281 0 0 1.00003 0.00177627
101 8.43342 1.41182 0.241815 0 0 1.00002 0.00174458
24 8.44867 0.419128 1.08462 0 0 1.00002 0.00173533
22 9.0214 0.517029 0.26986 0 0 1.00002 0.00167539
28 9.70155 0.34015 0.912308 0 0 1.00002 0.00162276
103 9.18634 1.33024 1.12063 0 0 1.00002 0.00169404
105 9.78038 1.38846 0.0992213 0 0 1.00002 0.00162788
32 11.3013 0.219863 0.651694 0 0 1.00002 0.00147191
107 10.4867 1.06844 0.840952 0 0 1.00002 0.00156283
866 10.6378 0.204851 1.47306 0 0 1.00002 0.00155215
949 11.3877 1.03056 1.44203 0 0 1.00002 0.00149438
946 10.6997 1.7094 1.75458 0 0 1.00002 0.001591
26 10.3669 0.372424 0.0808347 0 0 1.00002 0.00155357
36 12.9284 0.218865 0.650256 0 0 1.00002 0.00132653
111 12.1104 1.08999 0.522981 0 0 1.00002 0.00140944
870 12.2002 0.320988 1.32484 0 0 1.00002 0.00140608
953 12.7774 1.2094 1.39618 0 0 1.00002 0.00137179
40 14.3936 0.332941 0.789099 0 0 1.00002 0.00121348
115 13.6233 1.12197 0.856357 0 0 1.00002 0.00128624
117 14.0723 1.57223 0.161862 0 0 1.00002 0.0012549
874 13.6486 0.365719 1.65582 0 0 1.00002 0.00129269
957 14.4014 1.16404 1.49672 0 0 1.00002 0.00124396
119 14.8942 1.56419 0.671378 0 0 1.00002 0.0012027
38 15.1085 0.714195 0.0677605 0 0 1.00002 0.00116321
44 15.7123 0.76733 0.792517 0 0 1.00002 0.00113614
123 16.5469 1.54444 0.685783 0 0 1.00003 0.00111543
878 15.1529 0.467318 1.65283 0 0 1.00002 0.00118637
882 16.5425 0.71012 1.34812 0 0 1.00003 0.00110979
961 15.635 1.49792 1.40261 0 0 1.00002 0.00117249
48 17.2562 0.728844 0.556372 0 0 1.00003 0.00107177
127 17.9236 1.57887 0.755001 0 0 1.00003 0.00108128
886 17.9153 0.742652 1.42429 0 0 1.00003 0.00107627
965 17.2195 1.74559 1.56504 0 0 1.00003 0.00112009
51 19.5499 0.011827 0.661035 0 0 1.00003 0.00106033
52 18.7958 0.723818 0.68488 0 0 1.00003 0.00105682
131 19.5564 1.54145 0.836767 0 0 1.00003 0.00108662
889 19.0311 0.15224 1.53882 0 0 1.00003 0.00107098
890 19.6123 0.959739 1.68145 0 0 1.00003 0.00109403
969 18.6704 1.50004 1.49492 0 0 1.00003 0.00109113
55 21.1472 0.344613 1.05764 0 0 1.00004 0.00112189
56 20.2753 0.768998 0.96825 0 0 1.00003 0.00109051
135 21.1522 1.62812 0.94717 0 0 1.00004 0.00114636
54 21.231 0.757027 0.214046 0 0 1.00004 0.00112069
133 20.3753 1.49786 0.198143 0 0 1.00003 0.00110069
57 22.079 0.264224 0.531824 0 0 1.00004 0.00116556
59 22.8893 0.422919 1.38544 0 0 1.00004 0.001238
60 22.1872 1.13453 1.31367 0 0 1.00004 0.00119983
137 22.0667 1.58015 0.524289 0 0 1.00004 0.00118896
58 23.009 1.04832 0.448175 0 0 1.00004 0.00123982
63 24.3824 0.373516 1.41456 0 0 1.00004 0.00136125
61 23.6835 0.348305 0.567807 0 0 1.00004 0.00128406
62 24.5781 1.16166 0.741098 0 0 1.00004 0.00137588
64 23.5985 1.22395 1.37925 0 0 1.00004 0.00130827
65 25.1183 0.311336 0.540263 0 0 1.00004 0.00140997
67 26.1979 0.372016 1.15543 0 0 1.00004 0.00151981
68 25.3376 1.10904 1.44942 0 0 1.00004 0.00146116
147 26.1272 1.71081 1.33408 0 0 1.00005 0.00154881
66 26.0802 0.923314 0.419975 0 0 1.00004 0.001505
70 27.8146 1.26673 0.380455 0 0 1.00004 0.00167241
71 27.8528 0.496119 0.864511 0 0 1.00005 0.0016673
72 26.9698 1.01423 1.24086 0 0 1.00004 0.00160468
69 27.0033 0.238503 0.230482 0 0 1.00004 0.00157925
913 28.647 0.341811 1.40002 0 0 1.00004 0.00174509
76 28.9156 1.2169 0.724114 0 0 1.00004 0.00176682
914 29.6578 0.955178 1.55679 0 0 1.00004 0.00183732
993 28.7842 1.70792 1.49083 0 0 1.00004 0.00178975
75 29.5502 0.350813 0.612834 0 0 1.00004 0.00179798
917 30.1179 0.162474 1.44571 0 0 1.00004 0.00185575
79 31.0168 0.46958 0.480891 0 0 1.00004 0.00189136
80 30.3854 1.18756 0.767705 0 0 1.00004 0.0018727
918 31.1645 0.967572 1.38634 0 0 1.00004 0.00192622
82 1.43123 2.43733 0.119938 0 0 1.00004 0.00203326
84 0.456852 2.37762 0.806764 0 0 1.00004 0.00200933
163 1.61463 3.22955 0.944847 0 0 1.00004 0.00209495
922 1.46705 2.36673 1.59174 0 0 1.00004 0.00206055
1001 0.71509 3.03624 1.54948 0 0 1.00004 0.002078
161 0.656067 3.10355 0.129968 0 0 1.00004 0.0020502
88 2.23608 2.41907 0.789861 0 0 1.00004 0.00205099
167 2.97968 3.29458 0.862015 0 0 1.00003 0.00210686
926 2.99714 2.25314 1.55219 0 0 1.00003 0.00206445
86 3.03554 2.3974 0.0548474 0 0 1.00003 0.00204294
1005 2.44054 3.10949 1.76326 0 0 1.00004 0.00212373
1009 3.59308 3.43379 1.66461 0 0 1.00003 0.00213657
92 3.69355 2.57585 0.792935 0 0 1.00003 0.00205263
91 4.30353 1.84809 0.721536 0 0 1.00003 0.00200173
171 4.50614 3.34536 0.762982 0 0 1.00003 0.00208073
930 4.44937 2.6631 1.59579 0 0 1.00003 0.00206312
96 5.19328 2.59055 0.830599 0 0 1.00003 0.00201072
94 5.91793 2.4737 0.141711 0 0 1.00003 0.00196045
175 5.93168 3.23305 0.971057 0 0 1.00003 0.00201906
934 6.12642 2.23161 1.51367 0 0 1.00003 0.00196539
173 5.27791 3.35925 0.00692589 0 0 1.00003 0.00204668
1017 6.79041 3.10604 1.57383 0 0 1.00003 0.00197978
100 6.80437 2.2132 0.791553 0 0 1.00003 0.00190353
177 6.89203 2.97617 0.134808 0 0 1.00003 0.00193258
98 7.67137 2.25885 0.142056 0 0 1.00003 0.00183847
104 8.29177 2.23358 0.951954 0 0 1.00002 0.00180077
179 7.63521 3.10535 0.941726 0 0 1.00002 0.00190256
938 7.52941 2.09337 1.59429 0 0 1.00003 0.00187187
1021 8.40147 3.04367 1.68125 0 0 1.00002 0.00186384
181 8.47514 3.01184 0.0440631 0 0 1.00002 0.00181834
102 9.0832 2.12633 0.257579 0 0 1.00002 0.00171847
108 9.92485 2.05446 1.1225 0 0 1.00002 0.00165636
183 9.11036 3.01554 0.950729 0 0 1.00002 0.00177812
942 9.20793 2.25662 1.73819 0 0 1.00002 0.00175104
185 9.72737 2.95106 0.214391 0 0 1.00002 0.001707
106 10.4147 2.14415 0.213857 0 0 1.00002 0.00159999
112 11.2628 1.85847 0.787031 0 0 1.00002 0.00151679
187 10.7501 2.84756 0.937991 0 0 1.00002 0.00161753
1029 11.5489 2.87364 1.61027 0 0 1.00002 0.00156876
116 12.7351 1.96487 0.608715 0 0 1.00002 0.00138422
191 12.0164 2.68213 0.754045 0 0 1.00002 0.0014868
950 12.0125 1.94747 1.49184 0 0 1.00002 0.00146911
1033 12.9178 3.05525 1.71802 0 0 1.00002 0.00145924
195 13.2525 3.05547 0.854335 0 0 1.00002 0.001401
954 13.4303 2.01524 1.5006 0 0 1.00002 0.00134839
114 13.4598 2.32234 0.0584938 0 0 1.00002 0.00133433
120 14.057 2.46836 0.933464 0 0 1.00002 0.00130454
1037 14.077 3.41817 1.57597 0 0 1.00002 0.00138076
199 14.7325 3.45974 0.888101 0 0 1.00002 0.00131375
958 14.8163 2.31889 1.45305 0 0 1.00002 0.00125648
118 14.8618 2.52718 0.140361 0 0 1.00002 0.00123982
197 14.1941 3.24808 0.041233 0 0 1.00002 0.00132857
124 15.7063 2.44892 0.703398 0 0 1.00002 0.00119093
203 16.3205 3.20778 0.675732 0 0 1.00003 0.00120169
962 16.3179 2.48287 1.53108 0 0 1.00003 0.00118296
1041 15.4034 3.27358 1.51654 0 0 1.00002 0.00127604
201 15.5874 3.27343 0.0264454 0 0 1.00002 0.00123728
128 17.0702 2.35456 0.68511 0 0 1.00003 0.0011283
207 17.9534 2.92141 0.702945 0 0 1.00003 0.00113795
966 18.0261 2.42886 1.58288 0 0 1.00003 0.00113374
1045 17.1022 3.11444 1.50084 0 0 1.00003 0.00118731
132 18.9044 2.3462 1.00747 0 0 1.00003 0.00111159
211 19.7285 3.21181 1.26578 0 0 1.00003 0.00117542
209 18.8985 2.98134 0.191523 0 0 1.00003 0.00113247
130 19.612 2.31788 0.104448 0 0 1.00003 0.00110915
973 20.3599 1.76418 1.71438 0 0 1.00003 0.00113797
134 21.2154 2.39121 0.450409 0 0 1.00004 0.001171
136 20.2324 2.4401 1.10068 0 0 1.00003 0.0011439
215 21.3791 3.25993 1.36859 0 0 1.00004 0.00124454
213 20.4611 2.96888 0.328319 0 0 1.00004 0.0011664
139 22.9781 2.03072 1.49147 0 0 1.00004 0.00128722
138 23.075 2.56651 0.721472 0 0 1.00004 0.00130157
140 22.1713 2.46345 1.22134 0 0 1.00004 0.00124437
217 22.067 3.16143 0.592223 0 0 1.00004 0.00126226
16179 22.7901 3.35215 0.0642264 0 0 1.00004 0.00131777
141 23.864 1.78175 0.613234 0 0 1.00004 0.00133127
143 24.5766 1.95528 1.5761 0 0 1.00004 0.00142281
142 24.4931 2.64126 0.760705 0 0 1.00004 0.00142557
144 23.8205 2.85187 1.50938 0 0 1.00004 0.00139793
223 24.6417 3.45902 1.52794 0 0 1.00004 0.00150832
16108 25.1268 2.79391 0.0131053 0 0 1.00004 0.00148577
145 25.3017 1.82593 0.508125 0 0 1.00004 0.0014596
146 25.9911 2.57015 0.691518 0 0 1.00005 0.00155938
148 25.3419 2.52192 1.49549 0 0 1.00005 0.0015149
227 25.9296 3.44515 1.4892 0 0 1.00005 0.00162817
229 26.3966 3.45391 0.583331 0 0 1.00005 0.00165041
149 26.7629 1.76684 0.504939 0 0 1.00005 0.00159436
152 26.7554 2.52909 1.50383 0 0 1.00005 0.00165045
151 27.7448 1.9584 1.21391 0 0 1.00005 0.00170567
150 27.3252 2.65486 0.626434 0 0 1.00005 0.00168844
231 27.4619 3.30836 1.39289 0 0 1.00005 0.00176027
233 28.2479 3.18819 0.331716 0 0 1.00005 0.00179737
153 28.5147 2.06691 0.339922 0 0 1.00005 0.00176034
156 28.5222 2.72165 1.18357 0 0 1.00005 0.00180917
155 29.7259 2.01063 0.878414 0 0 1.00004 0.00185854
154 29.4779 2.65468 0.282179 0 0 1.00004 0.00186435
235 29.5544 3.22587 1.17372 0 0 1.00004 0.00192137
997 30.2666 1.79141 1.69316 0 0 1.00004 0.00190984
159 31.2213 1.96446 0.919391 0 0 1.00004 0.00195048
160 30.4871 2.69011 0.994717 0 0 1.00004 0.00194583
239 31.353 3.31798 0.972186 0 0 1.00004 0.00203257
998 31.3068 2.6764 1.7215 0 0 1.00004 0.00201478
237 30.4349 3.21777 0.153867 0 0 1.00004 0.00196287
157 30.7016 1.89268 0.0373747 0 0 1.00004 0.00190765
158 31.4561 2.64369 0.0763631 0 0 1.00004 0.00198465
164 0.634126 3.77385 0.919849 0 0 1.00004 0.00210649
241 0.493738 4.59611 0.467606 0 0 1.00004 0.00216192
243 1.48476 4.66514 0.989982 0 0 1.00004 0.00220648
244 0.464491 5.25471 1.27152 0 0 1.00004 0.00224239
162 1.38409 3.85626 0.0760801 0 0 1.00004 0.00212271
168 2.20019 4.04803 0.855286 0 0 1.00004 0.00216124
247 2.89313 4.87776 1.13238 0 0 1.00004 0.00224436
166 2.99004 4.16101 0.201452 0 0 1.00003 0.00216295
245 2.25404 4.96738 0.286537 0 0 1.00004 0.00223319
249 3.75509 4.88442 0.167301 0 0 1.00003 0.00221751
172 3.81588 4.10406 0.89779 0 0 1.00003 0.00215831
251 4.39683 4.91404 1.1644 0 0 1.00003 0.00222574
170 4.57103 4.20879 0.147017 0 0 1.00003 0.00213818
176 5.22146 4.04677 1.18265 0 0 1.00003 0.00212041
253 5.32488 4.78599 0.337633 0 0 1.00003 0.00216339
174 6.04708 3.98163 0.192696 0 0 1.00003 0.00205702
255 6.00144 4.77492 1.05181 0 0 1.00003 0.00214479
180 6.772 3.82034 0.797049 0 0 1.00003 0.00201016
1097 6.94688 4.5782 1.68143 0 0 1.00003 0.00209572
260 6.95784 5.20267 0.895296 0 0 1.00002 0.00212633
259 7.65921 4.5207 0.567303 0 0 1.00002 0.00200478
1018 7.65294 3.92126 1.53155 0 0 1.00002 0.00198271
184 8.4224 3.93849 0.723396 0 0 1.00002 0.00189891
1101 8.44005 4.67531 1.5192 0 0 1.00002 0.00198791
263 9.27897 4.63167 0.842353 0 0 1.00002 0.0018899
265 10.0317 4.5779 0.133213 0 0 1.00002 0.00180518
1022 9.26443 3.82359 1.53441 0 0 1.00002 0.00184393
182 9.17964 3.92207 0.0643091 0 0 1.00002 0.00182593
188 10.0565 3.63621 0.907298 0 0 1.00002 0.00173626
1105 10.0537 4.4175 1.69737 0 0 1.00002 0.00183239
192 11.5205 3.69446 0.807572 0 0 1.00002 0.00160127
267 10.7414 4.72175 0.930064 0 0 1.00002 0.00176637
269 11.511 4.75699 0.231409 0 0 1.00002 0.00168357
1026 10.8445 3.62748 1.62551 0 0 1.00002 0.0016868
1109 11.4933 4.44819 1.73989 0 0 1.00002 0.00170156
186 10.7281 3.89923 0.178465 0 0 1.00002 0.00168211
196 12.5876 3.63543 0.830301 0 0 1.00002 0.0014997
271 12.2898 4.60765 1.02181 0 0 1.00002 0.00161295
1113 12.853 5.04571 1.72303 0 0 1.00002 0.00163273
275 13.3038 4.74158 0.816196 0 0 1.00002 0.00152744
273 12.7227 4.6706 0.0626628 0 0 1.00002 0.00156256
200 14.0458 4.16057 0.709297 0 0 1.00002 0.00141327
1034 13.556 4.26389 1.61865 0 0 1.00002 0.00149278
1117 14.2647 5.15677 1.54949 0 0 1.00002 0.00151331
279 14.9891 5.04451 0.823786 0 0 1.00002 0.00142261
1038 15.0119 4.43916 1.61168 0 0 1.00002 0.00139491
277 14.1967 4.93778 0.0720024 0 0 1.00002 0.00146035
198 14.9932 4.21502 0.104573 0 0 1.00002 0.0013409
204 15.6913 4.08276 0.930236 0 0 1.00002 0.0012992
281 15.9017 4.78865 0.189682 0 0 1.00002 0.00133313
283 16.6174 4.58884 0.905756 0 0 1.00002 0.00129348
1042 16.3442 3.96992 1.69702 0 0 1.00002 0.00128352
1121 15.8536 5.0661 1.65676 0 0 1.00002 0.00140123
208 17.2848 3.82962 0.81209 0 0 1.00003 0.00121035
287 18.107 4.47369 1.09389 0 0 1.00003 0.00124939
1046 17.9705 3.62967 1.65306 0 0 1.00003 0.00120716
285 17.4684 4.57155 0.0195818 0 0 1.00003 0.00125229
206 18.1521 3.83952 0.0645639 0 0 1.00003 0.00118624
212 18.8948 3.68807 0.949221 0 0 1.00003 0.00118578
289 18.8534 4.58655 0.359259 0 0 1.00003 0.00124126
291 19.7276 4.63742 1.08217 0 0 1.00003 0.00127097
292 18.8211 5.25 1.19174 0 0 1.00003 0.00131508
210 19.6294 3.73774 0.23111 0 0 1.00003 0.00118803
216 20.4875 3.7835 1.22008 0 0 1.00004 0.00123313
295 20.9544 4.66813 1.37081 0 0 1.00004 0.00132552
297 21.6781 4.89479 0.790278 0 0 1.00004 0.00136574
214 21.1539 3.89054 0.505968 0 0 1.00004 0.00125435
293 20.1956 4.7441 0.342246 0 0 1.00003 0.00127795
219 22.9392 3.57408 1.39207 0 0 1.00004 0.00136768
220 22.0327 4.0792 1.28855 0 0 1.00004 0.0013364
299 22.5989 5.10116 1.25087 0 0 1.00004 0.00145733
218 22.7328 4.28763 0.5094 0 0 1.00004 0.00138296
221 23.7116 3.58115 0.764193 0 0 1.00004 0.00141392
222 24.506 4.2626 0.614091 0 0 1.00004 0.00153041
224 23.6148 4.47913 1.31064 0 0 1.00004 0.00148776
305 25.0616 5.17544 0.551916 0 0 1.00005 0.00165982
301 23.7033 4.99768 0.519138 0 0 1.00004 0.00151843
303 24.5524 5.21398 1.40049 0 0 1.00005 0.00163911
228 25.2155 4.42458 1.58161 0 0 1.00005 0.0016392
225 25.2505 3.6115 0.777562 0 0 1.00005 0.00155542
307 25.9314 5.06559 1.31848 0 0 1.00005 0.00175362
232 26.6037 4.22691 1.34747 0 0 1.00005 0.00174672
226 25.7459 4.34006 0.38876 0 0 1.00005 0.00164975
309 26.7601 4.90904 0.62778 0 0 1.00005 0.00180002
311 27.6139 4.80809 1.37565 0 0 1.00005 0.00189177
236 28.2414 3.92418 1.08955 0 0 1.00005 0.00186261
230 27.3203 3.98472 0.56966 0 0 1.00005 0.00177399
313 28.5773 4.68668 0.691008 0 0 1.00005 0.00194572
234 29.2291 3.73924 0.468793 0 0 1.00005 0.00191717
315 29.4019 4.47586 1.30365 0 0 1.00005 0.00200986
314 29.7241 5.26685 0.80019 0 0 1.00005 0.00209168
240 30.3178 4.02144 1.01972 0 0 1.00004 0.00202729
238 31.3627 3.968 0.354695 0 0 1.00004 0.00207139
317 30.5456 4.66033 0.468339 0 0 1.00004 0.00208549
319 31.3298 4.58568 1.37972 0 0 1.00004 0.00214586
242 1.28978 5.52173 0.460225 0 0 1.00004 0.00227284
323 1.19768 6.19775 1.27595 0 0 1.00004 0.0023628
324 0.659123 6.91951 1.49154 0 0 1.00004 0.00243637
322 1.38601 6.93316 0.566969 0 0 1.00004 0.00242775
321 0.369439 5.9882 0.449187 0 0 1.00004 0.00229138
248 1.92192 5.51411 1.37518 0 0 1.00004 0.00231097
328 2.11942 7.03316 1.25108 0 0 1.00004 0.0024724
325 2.27108 6.21022 0.509742 0 0 1.00004 0.00236027
327 2.66973 6.18027 1.4197 0 0 1.00004 0.00238693
246 3.05311 5.62117 0.277195 0 0 1.00004 0.00229741
252 3.49434 5.65468 1.30381 0 0 1.00003 0.0023231
332 3.6496 7.00188 1.16058 0 0 1.00003 0.00246363
329 3.77649 6.3041 0.494079 0 0 1.00003 0.00236305
250 4.5423 5.50337 0.3323 0 0 1.00003 0.00226017
331 4.49406 6.13531 1.24903 0 0 1.00003 0.00235158
330 4.3881 7.05445 0.235556 0 0 1.00003 0.00243199
336 5.14981 6.86823 1.18436 0 0 1.00003 0.0024094
333 5.184 6.28658 0.33515 0 0 1.00003 0.00232119
256 5.27898 5.48494 1.32409 0 0 1.00003 0.00225795
254 6.08484 5.46504 0.303174 0 0 1.00003 0.00219218
335 6.02163 6.28859 0.982625 0 0 1.00003 0.00229964
337 6.70521 6.12835 0.153888 0 0 1.00003 0.00222514
1177 6.78594 6.05885 1.63807 0 0 1.00002 0.00225794
340 6.77343 6.9434 1.01804 0 0 1.00002 0.00233192
339 7.61157 6.22306 0.779251 0 0 1.00002 0.00218748
1098 7.67572 5.48171 1.53417 0 0 1.00002 0.00212979
344 8.30538 6.93945 0.749846 0 0 1.00002 0.00221407
1178 7.60262 6.93215 1.64586 0 0 1.00002 0.00230812
258 7.59729 5.42469 0.0435487 0 0 1.00002 0.00209129
264 8.45506 5.38723 0.71911 0 0 1.00002 0.00203113
1181 8.50056 6.19506 1.54139 0 0 1.00002 0.00214653
268 9.9628 5.39962 0.817936 0 0 1.00002 0.00190274
343 9.12794 6.26815 0.760723 0 0 1.00002 0.00207075
1102 9.27448 5.40573 1.63208 0 0 1.00002 0.00199906
1185 9.95709 6.26662 1.51994 0 0 1.00002 0.00202661
1182 9.34399 7.04711 1.51198 0 0 1.00002 0.00217438
345 9.96975 6.31816 0.101348 0 0 1.00002 0.00198984
262 9.22176 5.54585 0.0233191 0 0 1.00002 0.00197363
272 11.5324 5.34666 1.02186 0 0 1.00002 0.00175674
347 10.7715 6.1041 0.984091 0 0 1.00002 0.00190681
349 11.4758 6.445 0.0806724 0 0 1.00002 0.00186102
346 10.7215 7.0345 0.152386 0 0 1.00002 0.00199981
1186 10.6805 7.01989 1.54605 0 0 1.00002 0.00205172
266 10.654 5.65033 0.00560295 0 0 1.00002 0.00185317
270 12.1198 5.68781 0.190257 0 0 1.00002 0.00171723
276 12.7859 5.87291 0.884381 0 0 1.00002 0.00168942
351 11.9195 6.28963 1.08208 0 0 1.00002 0.00182137
274 13.4019 5.5937 0.0452891 0 0 1.00002 0.00158903
1114 13.4276 5.92724 1.59952 0 0 1.00002 0.00166599
355 13.4598 6.63573 0.828578 0 0 1.00002 0.00170741
280 14.1364 5.76453 0.790802 0 0 1.00002 0.00155632
1197 14.4094 6.69839 1.44302 0 0 1.00002 0.00166172
357 14.2114 6.43423 0.0426128 0 0 1.00002 0.00160764
278 15.0689 5.66835 0.0402625 0 0 1.00002 0.0014645
359 15.1104 6.48653 0.819231 0 0 1.00002 0.00155851
284 15.8745 5.75643 0.961292 0 0 1.00002 0.00143834
363 16.5405 6.46518 1.15349 0 0 1.00002 0.00148298
1118 15.1714 5.90599 1.71986 0 0 1.00002 0.00153262
282 16.652 5.42756 0.276884 0 0 1.00002 0.00135416
361 15.7312 6.36634 0.0457531 0 0 1.00002 0.00149114
286 17.8603 5.29679 0.540015 0 0 1.00003 0.00130998
288 17.1428 5.42537 1.25038 0 0 1.00003 0.00135907
365 17.1112 6.2787 0.412051 0 0 1.00003 0.00141987
367 17.7109 6.23768 1.37957 0 0 1.00003 0.00142874
372 18.3359 7.03333 1.13567 0 0 1.00003 0.00149144
369 18.423 6.208 0.611066 0 0 1.00003 0.00138911
290 19.4868 5.71722 0.613833 0 0 1.00003 0.0013485
371 19.3911 6.51642 1.3293 0 0 1.00003 0.00144781
373 20.0757 6.69637 0.60122 0 0 1.00003 0.00145681
294 20.8383 5.71639 0.63881 0 0 1.00004 0.00139108
296 20.2557 5.55943 1.37506 0 0 1.00004 0.00137595
375 20.8777 6.54693 1.27885 0 0 1.00004 0.00149466
377 21.7782 6.59282 0.653774 0 0 1.00004 0.00152694
300 21.7713 5.80501 1.35021 0 0 1.00004 0.00147156
16260 21.8025 5.66814 0.0533793 0 0 1.00004 0.00143194
298 22.8132 5.75982 0.647436 0 0 1.00004 0.00151757
379 22.7891 6.60787 1.17406 0 0 1.00004 0.00161733
381 23.5291 6.68592 0.262932 0 0 1.00005 0.00166058
304 23.6569 5.80693 1.25749 0 0 1.00005 0.0016097
383 24.54 6.48059 1.13368 0 0 1.00005 0.0017552
302 24.3363 5.91934 0.409656 0 0 1.00005 0.00165821
306 25.9364 5.78363 0.674522 0 0 1.00005 0.00180394
308 25.3473 5.95138 1.62467 0 0 1.00005 0.00179805
385 25.405 6.64397 0.478132 0 0 1.00005 0.00183512
387 26.1138 6.51486 1.3698 0 0 1.00005 0.00192201
312 26.9754 5.774 1.43654 0 0 1.00005 0.00192919
310 27.8011 5.48401 0.699556 0 0 1.00005 0.00195298
389 27.0429 6.29262 0.625014 0 0 1.00005 0.0019619
391 28.0242 6.39282 1.33707 0 0 1.00005 0.00208676
390 28.0494 6.93663 0.509831 0 0 1.00005 0.00212159
392 27.1091 7.03578 1.30107 0 0 1.00005 0.0020726
316 28.6957 5.46638 1.446 0 0 1.00005 0.00205393
395 29.7995 6.14492 1.29904 0 0 1.00005 0.00220324
394 29.9586 6.87995 0.499442 0 0 1.00005 0.00227035
393 28.8131 6.15426 0.634104 0 0 1.00005 0.0021075
16355 29.7271 6.09244 0.0730083 0 0 1.00005 0.00216386
16276 28.8023 5.34492 0.0448671 0 0 1.00005 0.00201892
396 29.0175 7.04305 1.20243 0 0 1.00005 0.00223846
318 31.3329 5.33527 0.587062 0 0 1.00004 0.00219356
320 30.5818 5.41734 1.43611 0 0 1.00005 0.00218443
397 30.7635 6.15285 0.632435 0 0 1.00005 0.00224593
399 31.6015 6.12598 1.3708 0 0 1.00004 0.00231027
398 31.612 6.92243 0.603949 0 0 1.00004 0.00237375
400 30.7297 7.04871 1.16604 0 0 1.00005 0.00235745
401 0.6904 7.62988 0.648906 0 0 1.00004 0.00248699
402 1.29985 8.46949 0.601497 0 0 1.00004 0.00259919
403 1.54586 7.84714 1.49043 0 0 1.00004 0.00256871
404 0.805325 8.53798 1.45627 0 0 1.00004 0.0026265
478 0.127674 8.58627 0.388015 0 0 1.00004 0.00256862
405 2.02904 7.77052 0.384148 0 0 1.00004 0.00252951
408 2.19052 8.62928 1.46636 0 0 1.00004 0.00266836
326 2.89166 7.15638 0.472226 0 0 1.00004 0.00246722
406 2.65908 8.63257 0.402179 0 0 1.00004 0.00263332
407 2.83333 7.82999 1.29153 0 0 1.00004 0.00256995
412 3.4751 8.55127 0.958963 0 0 1.00003 0.00263774
409 3.65928 7.79321 0.335432 0 0 1.00003 0.00253055
410 4.25016 8.4995 0.0801716 0 0 1.00003 0.00260003
411 4.39408 7.68741 1.24464 0 0 1.00003 0.00253018
413 5.07315 7.70237 0.241651 0 0 1.00003 0.00248281
416 5.11268 8.3259 0.96037 0 0 1.00003 0.0025737
334 5.90467 7.1045 0.158967 0 0 1.00003 0.00238021
414 6.25623 8.41959 0.184767 0 0 1.00002 0.00251534
415 5.86822 7.64091 1.04459 0 0 1.00003 0.00246373
420 6.76776 8.28478 1.07858 0 0 1.00002 0.00249293
417 6.83785 7.62492 0.172741 0 0 1.00002 0.00238868
419 7.62493 7.84187 0.774618 0 0 1.00002 0.00237429
1258 7.62701 8.25359 1.74856 0 0 1.00002 0.00247355
421 8.30412 7.69274 0.0275534 0 0 1.00002 0.00229235
1261 8.36956 7.57624 1.60904 0 0 1.00002 0.00232643
424 8.58531 8.40921 0.906679 0 0 1.00002 0.00237536
423 9.18649 7.70522 0.688992 0 0 1.00002 0.00223086
428 9.99746 8.70795 0.728064 0 0 1.00002 0.002282
1262 9.38135 8.78881 1.50682 0 0 1.00002 0.00238932
1265 9.92326 7.97681 1.65056 0 0 1.00002 0.00224845
348 10.0649 7.30271 0.757194 0 0 1.00002 0.00210754
352 11.4851 7.22537 0.836662 0 0 1.00002 0.00196554
427 10.7984 8.02753 0.875726 0 0 1.00001 0.00212969
1266 10.8289 8.81011 1.49143 0 0 1.00001 0.00225775
1269 11.5946 7.90587 1.65415 0 0 1.00001 0.00208067
429 11.4263 8.20445 0.0491504 0 0 1.00002 0.00206977
356 12.8439 7.36394 0.591686 0 0 1.00002 0.00184203
431 12.3481 8.30366 0.622976 0 0 1.00001 0.00200346
1190 12.2407 7.23926 1.42826 0 0 1.00002 0.00192134
1270 12.2736 8.76824 1.55275 0 0 1.00001 0.00211533
1273 13.0058 8.07957 1.52701 0 0 1.00001 0.00195662
350 12.0586 7.46117 0.00105986 0 0 1.00002 0.00191958
360 14.4152 7.40277 0.618744 0 0 1.00002 0.00170734
435 13.7389 8.16004 0.493214 0 0 1.00002 0.00184986
1194 13.5902 7.40052 1.38948 0 0 1.00002 0.00181032
1277 14.3683 8.22504 1.39325 0 0 1.00002 0.00184112
439 15.1759 8.3306 0.882987 0 0 1.00002 0.00176351
362 16.4959 7.19556 0.287324 0 0 1.00002 0.00153936
364 15.7058 7.33453 0.924385 0 0 1.00002 0.00161373
443 16.3482 8.17573 1.1211 0 0 1.00002 0.00168088
1198 15.2276 7.5608 1.6665 0 0 1.00002 0.00171443
441 15.9403 8.3284 0.157733 0 0 1.00002 0.00169337
368 17.0437 7.3597 1.12067 0 0 1.00002 0.00155714
445 17.1344 8.10837 0.333143 0 0 1.00002 0.00161191
447 17.7894 8.01434 1.03228 0 0 1.00003 0.0016021
366 17.8778 7.15853 0.221862 0 0 1.00003 0.0014873
370 19.086 7.2989 0.629828 0 0 1.00003 0.00150088
451 19.0199 8.11601 1.16922 0 0 1.00003 0.00160919
376 19.9717 7.60074 1.2985 0 0 1.00004 0.00157403
453 19.9045 8.08525 0.356308 0 0 1.00003 0.00159195
449 18.536 8.16343 0.181837 0 0 1.00003 0.00158412
374 20.8113 7.39611 0.651914 0 0 1.00004 0.00155757
455 20.7819 8.36738 1.00909 0 0 1.00004 0.0016722
380 21.6874 7.59135 1.11476 0 0 1.00004 0.00164122
457 21.7662 8.26396 0.254579 0 0 1.00004 0.00169319
459 22.7776 8.09241 0.982123 0 0 1.00005 0.00176754
1218 22.592 7.40992 1.70537 0 0 1.00004 0.00171638
378 22.4993 7.39963 0.374501 0 0 1.00004 0.00165369
458 22.9561 8.7991 0.195908 0 0 1.00005 0.00183716
1298 22.6091 8.80824 1.54905 0 0 1.00005 0.00186611
384 23.6476 7.23516 1.02857 0 0 1.00005 0.00174846
461 23.6998 7.98919 0.3638 0 0 1.00005 0.00181721
463 24.5951 7.99933 0.961151 0 0 1.00005 0.00191781
1302 24.5226 8.63274 1.63737 0 0 1.00005 0.00202327
382 24.5605 7.23095 0.265264 0 0 1.00005 0.00181164
462 24.5723 8.72421 0.199525 0 0 1.00005 0.00197647
1301 23.5902 7.95614 1.7464 0 0 1.00005 0.00186418
388 25.3852 7.30043 1.21067 0 0 1.00005 0.00192894
467 26.3352 7.92086 0.96027 0 0 1.00005 0.0020814
1306 26.3547 8.53537 1.69777 0 0 1.00005 0.00219872
386 26.3756 7.18292 0.361156 0 0 1.00005 0.00198565
465 25.505 8.02582 0.301963 0 0 1.00005 0.00199231
466 26.594 8.49885 0.0890049 0 0 1.00005 0.00215273
468 25.5866 8.76067 0.969218 0 0 1.00005 0.00210386
470 28.341 8.43176 0.401677 0 0 1.00005 0.00231423
471 28.1687 7.75631 1.17897 0 0 1.00005 0.00224712
472 27.3399 8.57517 0.994244 0 0 1.00005 0.00225764
469 27.3305 7.70275 0.419624 0 0 1.00005 0.00213728
1310 28.1801 8.61529 1.7447 0 0 1.00005 0.00238326
474 30.0134 8.32511 0.530542 0 0 1.00005 0.0024376
475 29.8987 7.62834 1.2568 0 0 1.00005 0.00237266
476 29.1787 8.49027 1.15806 0 0 1.00005 0.00241497
473 29.0822 7.66785 0.405111 0 0 1.00005 0.0022907
479 31.6752 7.78653 1.28543 0 0 1.00005 0.00249672
480 30.8684 8.44856 1.17283 0 0 1.00005 0.00252608
477 31.0542 7.83913 0.379607 0 0 1.00005 0.00244325
482 1.61872 10.2778 0.264363 0 0 1.00004 0.00280018
483 1.50056 9.35296 1.19517 0 0 1.00004 0.00272685
484 0.747384 9.92329 0.903694 0 0 1.00004 0.00275551
481 0.838621 9.32732 0.125629 0 0 1.00004 0.00267711
1322 1.32073 10.1203 1.74858 0 0 1.00004 0.00284411
485 2.22465 9.46487 0.441248 0 0 1.00004 0.00272639
488 2.32488 10.3582 0.976996 0 0 1.00004 0.00284015
486 3.0702 10.2937 0.0752398 0 0 1.00004 0.00281366
487 2.84899 9.45983 1.22195 0 0 1.00004 0.00275639
1326 3.2618 10.2535 1.68634 0 0 1.00004 0.00287337
489 3.53639 9.38404 0.100104 0 0 1.00003 0.00271261
1329 3.69171 9.27704 1.69505 0 0 1.00003 0.0027586
492 3.85236 10.0754 0.761068 0 0 1.00003 0.00279821
491 4.3812 9.15081 0.874996 0 0 1.00003 0.00268887
493 5.00441 9.2485 0.00491992 0 0 1.00003 0.00266498
1330 4.59688 10.0102 1.62936 0 0 1.00003 0.00282273
496 5.05317 10.0332 0.582808 0 0 1.00003 0.00276157
1333 5.11897 9.11618 1.67409 0 0 1.00003 0.00270761
495 5.74328 9.02208 0.67777 0 0 1.00003 0.00262191
500 6.64452 9.86814 0.536868 0 0 1.00002 0.00267014
1334 5.76955 9.89769 1.21911 0 0 1.00003 0.00274388
1337 6.55861 9.14087 1.30152 0 0 1.00002 0.00262242
499 7.52525 8.9607 0.743746 0 0 1.00002 0.00251545
504 8.32358 10.0162 0.602789 0 0 1.00002 0.00257567
1338 7.55181 9.82343 1.2428 0 0 1.00002 0.00263926
1341 8.39084 9.25339 1.45111 0 0 1.00002 0.00252451
501 8.43041 9.13579 0.0916892 0 0 1.00002 0.00245532
503 9.25548 9.53792 0.758339 0 0 1.00002 0.00245097
508 9.95219 10.416 0.699613 0 0 1.00001 0.00248773
1342 9.09839 10.3353 1.47158 0 0 1.00001 0.00259856
1345 10.1167 9.67102 1.47915 0 0 1.00001 0.00243069
432 11.576 8.9327 0.763236 0 0 1.00001 0.00215889
426 10.6518 8.96628 0.0382034 0 0 1.00001 0.00223713
507 10.7312 9.76649 0.692795 0 0 1.00001 0.00234047
1346 10.909 10.2712 1.70599 0 0 1.00001 0.00244721
1349 11.56 9.70943 1.38302 0 0 1.00001 0.00229062
436 13.1479 9.02235 0.813879 0 0 1.00001 0.00201803
511 12.3071 9.8841 0.720546 0 0 1.00001 0.00219915
516 13.0171 10.5488 0.994817 0 0 1.00001 0.00221545
1353 12.7587 9.698 1.67518 0 0 1.00001 0.00219497
1274 13.8314 8.92397 1.61682 0 0 1.00001 0.00199174
440 14.586 9.23635 0.786442 0 0 1.00002 0.00191184
515 13.6965 9.76145 0.872772 0 0 1.00001 0.00205531
517 14.4163 10.19 0.230587 0 0 1.00001 0.00201657
444 16.0014 9.17878 1.15071 0 0 1.00002 0.00181943
519 15.2617 9.90504 1.04047 0 0 1.00002 0.00194597
521 15.8078 10.2005 0.254415 0 0 1.00002 0.0019087
523 16.6179 9.97249 0.976685 0 0 1.00002 0.00186167
442 16.5965 9.05447 0.268999 0 0 1.00002 0.00173843
438 15.3968 9.23586 0.118788 0 0 1.00002 0.00183073
448 17.1905 9.06468 1.13243 0 0 1.00002 0.00174433
525 17.2678 10.0243 0.205547 0 0 1.00002 0.00181153
527 17.8895 9.8545 1.07124 0 0 1.00003 0.00180515
446 17.8584 9.09679 0.122514 0 0 1.00003 0.00169413
452 18.4 8.8809 0.94163 0 0 1.00003 0.00168394
456 19.9517 8.91105 1.0404 0 0 1.00004 0.0017046
529 18.7129 9.71262 0.302007 0 0 1.00003 0.00175006
531 19.6363 9.86014 0.848017 0 0 1.00003 0.00179055
532 18.8553 10.435 1.13743 0 0 1.00003 0.00185879
1369 18.7762 9.56293 1.69646 0 0 1.00003 0.00180769
450 19.348 8.9268 0.210692 0 0 1.00003 0.00166873
533 20.1387 9.74084 0.0694099 0 0 1.00004 0.00177048
535 21.1042 9.75283 0.743743 0 0 1.00004 0.00182731
1373 20.3991 9.61616 1.63827 0 0 1.00004 0.00183725
454 20.9353 9.01561 0.197339 0 0 1.00004 0.00172686
1374 21.2759 10.0499 1.73699 0 0 1.00004 0.00193331
460 21.8026 8.96398 0.952572 0 0 1.00004 0.00179164
539 23.0596 9.62055 0.784939 0 0 1.00005 0.00195094
540 22.3275 10.4537 0.830415 0 0 1.00005 0.00198019
1377 22.1389 9.72038 1.4951 0 0 1.00005 0.00193084
1378 23.2966 10.4393 1.39773 0 0 1.00005 0.00209537
537 22.1665 9.73859 0.212099 0 0 1.00005 0.00187742
464 23.675 8.8745 0.940383 0 0 1.00005 0.00192832
543 24.8051 9.48614 0.742346 0 0 1.00005 0.00209882
1381 23.9658 9.53315 1.51197 0 0 1.00005 0.00206738
1382 24.7091 10.2606 1.41153 0 0 1.00005 0.00221068
544 23.8945 10.4678 0.607685 0 0 1.00005 0.00210839