ITEM: TIMESTEP
8000
ITEM: NUMBER OF ATOMS
32000
ITEM: BOX BOUNDS pp pp pp
0.0000000000000000e+00 3.1748021039364001e+01
0.0000000000000000e+00 3.1748021039364001e+01
0.0000000000000000e+00 3.1748021039364001e+01
ITEM: ATOMS id x y z c_phase c_nbond c_rho vx
4 0.144144 1.10175 0.46565 0 0 1.00001 0.000583565
83 1.00108 1.66865 0.779198 0 0 0.999992 0.000590361
842 0.742581 0.793274 1.41265 0 0 0.999996 0.000588814
921 0.0322034 1.6019 1.3757 0 0 1.00001 0.000599047
3 0.757026 0.0648198 0.617651 0 0 0.999996 0.000576832
8 1.73692 0.811691 1.01572 0 0 0.99998 0.00056657
85 1.8278 1.47749 0.220308 0 0 0.999978 0.000566078
925 1.84998 1.66161 1.76141 0 0 0.999978 0.000586089
6 2.54512 0.749352 0.204213 0 0 0.999968 0.000531819
7 2.61524 0.0548171 1.03847 0 0 0.999966 0.000531673
87 2.67364 1.54272 0.88315 0 0 0.999966 0.000538882
846 2.69511 0.817648 1.74635 0 0 0.999965 0.000541434
12 3.45552 0.934337 0.958959 0 0 0.999955 0.000491324
849 3.52091 0.0922396 1.7088 0 0 0.999954 0.000492632
929 3.62926 1.71009 1.72224 0 0 0.999952 0.000500721
10 4.12701 0.85981 0.325345 0 0 0.999947 0.000441938
16 4.98023 0.56868 1.17545 0 0 0.999938 0.000378848
93 4.93688 1.60287 0.384838 0 0 0.999938 0.000387456
850 4.36508 0.94388 1.63298 0 0 0.999944 0.000437399
9 3.49757 0.110535 0.172029 0 0 0.999955 0.000479289
14 5.66144 0.646717 0.326137 0 0 0.999933 0.000312971
95 5.89742 1.31401 0.94141 0 0 0.999931 0.000299373
97 6.58469 1.39495 0.21922 0 0 0.999927 0.000226639
854 5.79813 0.461505 1.70319 0 0 0.999931 0.000310361
933 5.04761 1.72688 1.43925 0 0 0.999936 0.000386727
20 6.72289 0.391996 0.868225 0 0 0.999927 0.000209505
937 6.70066 1.01267 1.69842 0 0 0.999926 0.000222847
24 8.26854 0.410248 1.07641 0 0 0.999925 4.04773e-05
99 7.37357 1.22645 0.956861 0 0 0.999925 0.000143729
101 8.24794 1.39479 0.237763 0 0 0.999925 4.37094e-05
941 8.13048 1.27601 1.61162 0 0 0.999923 6.30126e-05
18 7.58691 0.650014 0.141313 0 0 0.999926 0.000114119
22 8.85591 0.51002 0.274721 0 0 0.999927 -2.89299e-05
28 9.54697 0.339373 0.891799 0 0 0.999929 -0.00010604
103 9.02221 1.3111 1.11619 0 0 0.999925 -4.18028e-05
105 9.63287 1.37807 0.0909796 0 0 0.999929 -0.000114745
32 11.1971 0.216547 0.635457 0 0 0.999941 -0.000283776
107 10.353 1.0507 0.8259 0 0 0.999934 -0.000195351
866 10.5112 0.197331 1.44972 0 0 0.999935 -0.000211824
949 11.2706 1.0206 1.42177 0 0 0.99994 -0.000292409
946 10.5671 1.68225 1.73448 0 0 0.999933 -0.000216544
26 10.2332 0.368739 0.078496 0 0 0.999934 -0.000183059
36 12.8542 0.213 0.63897 0 0 0.999959 -0.000432058
111 12.0255 1.07662 0.509138 0 0 0.999949 -0.00036468
870 12.112 0.31718 1.30344 0 0 0.99995 -0.000371588
953 12.6973 1.20014 1.37593 0 0 0.999956 -0.000424875
40 14.3468 0.321636 0.769511 0 0 0.999979 -0.000525282
115 13.5665 1.11397 0.845614 0 0 0.999968 -0.000485286
117 14.0149 1.56124 0.165867 0 0 0.999974 -0.000514287
874 13.5835 0.360768 1.63809 0 0 0.999967 -0.000487507
957 14.3506 1.15143 1.47934 0 0 0.999978 -0.000531821
119 14.8492 1.55459 0.66393 0 0 0.999986 -0.000551325
44 15.6788 0.769265 0.788236 0 0 0.999999 -0.000567619
123 16.5232 1.54342 0.681558 0 0 1.00001 -0.000575901
878 15.1139 0.464519 1.64244 0 0 0.99999 -0.000559754
882 16.5178 0.711251 1.34219 0 0 1.00001 -0.000574071
961 15.6035 1.48718 1.39255 0 0 0.999997 -0.000574434
38 15.0765 0.711738 0.0673473 0 0 0.99999 -0.00055225
48 17.2286 0.731136 0.549082 0 0 1.00002 -0.0005594
127 17.8964 1.57985 0.756001 0 0 1.00003 -0.000544261
886 17.8892 0.74252 1.42611 0 0 1.00003 -0.000543276
965 17.1909 1.74711 1.56206 0 0 1.00002 -0.000572693
51 19.5156 0.0157871 0.66203 0 0 1.00005 -0.000443699
52 18.7677 0.724653 0.684338 0 0 1.00004 -0.000495587
131 19.5175 1.55168 0.840168 0 0 1.00005 -0.000449447
889 19.003 0.157209 1.54299 0 0 1.00005 -0.000485185
890 19.5715 0.965617 1.68722 0 0 1.00006 -0.000446392
969 18.6326 1.50956 1.49821 0 0 1.00004 -0.000511265
55 21.0764 0.348909 1.06506 0 0 1.00007 -0.000310732
56 20.2301 0.774879 0.977281 0 0 1.00006 -0.000388445
135 21.0907 1.65157 0.950148 0 0 1.00007 -0.000308922
54 21.1727 0.763771 0.217873 0 0 1.00007 -0.000299782
133 20.3271 1.5111 0.19422 0 0 1.00006 -0.00038166
57 21.999 0.262303 0.5382 0 0 1.00008 -0.000214762
59 22.7858 0.428779 1.40333 0 0 1.00008 -0.000127438
60 22.101 1.14464 1.32635 0 0 1.00008 -0.000202646
137 21.9876 1.59544 0.536254 0 0 1.00008 -0.000215928
58 22.9104 1.07074 0.444561 0 0 1.00008 -0.000113373
63 24.2308 0.378896 1.44741 0 0 1.00009 4.10048e-05
61 23.5656 0.35622 0.572222 0 0 1.00009 -3.90499e-05
62 24.4398 1.18309 0.752526 0 0 1.00009 6.31323e-05
64 23.474 1.24575 1.39865 0 0 1.00009 -4.47615e-05
65 24.9612 0.314749 0.550337 0 0 1.00008 0.00012002
67 26.0195 0.381877 1.16869 0 0 1.00008 0.000234961
68 25.1762 1.12259 1.47632 0 0 1.00009 0.000151679
147 25.9415 1.73049 1.35403 0 0 1.00008 0.000239108
66 25.9024 0.927414 0.430559 0 0 1.00008 0.000222295
70 27.5921 1.27816 0.387838 0 0 1.00007 0.000386551
71 27.6324 0.507702 0.872663 0 0 1.00007 0.000386495
72 26.7705 1.02578 1.26012 0 0 1.00008 0.000315447
913 28.3974 0.337768 1.39791 0 0 1.00006 0.00044953
69 26.8071 0.239858 0.226536 0 0 1.00008 0.000308
76 28.6714 1.2393 0.739958 0 0 1.00006 0.00046899
914 29.4136 0.946688 1.56715 0 0 1.00005 0.000519821
993 28.5445 1.71713 1.49613 0 0 1.00006 0.00047402
917 29.8401 0.17225 1.45944 0 0 1.00004 0.000535511
75 29.297 0.354353 0.614712 0 0 1.00005 0.000499286
841 31.6153 0.266623 1.25684 0 0 1.00001 0.000582507
79 30.7298 0.487841 0.471995 0 0 1.00003 0.00055957
80 30.1253 1.19778 0.773397 0 0 1.00004 0.000547465
918 30.8913 0.971384 1.3932 0 0 1.00002 0.000576507
82 1.13842 2.43738 0.128358 0 0 0.999989 0.000601139
84 0.162002 2.38233 0.811731 0 0 1.00001 0.00060891
163 1.31651 3.23831 0.949176 0 0 0.999986 0.000626124
922 1.16805 2.36276 1.59214 0 0 0.999989 0.00061372
1001 0.41574 3.03181 1.54971 0 0 1 0.000638357
161 0.360971 3.09745 0.131357 0 0 1 0.000624868
88 1.93722 2.42026 0.784837 0 0 0.999976 0.000584804
167 2.68421 3.28397 0.861727 0 0 0.999964 0.000579491
926 2.6957 2.23323 1.53686 0 0 0.999964 0.000559907
1009 3.28383 3.43039 1.65275 0 0 0.999954 0.000564308
86 2.7506 2.3849 0.0558131 0 0 0.999964 0.000547411
92 3.40568 2.55845 0.781378 0 0 0.999955 0.000519034
91 4.02815 1.84366 0.712949 0 0 0.999947 0.000461618
96 4.93136 2.5775 0.818116 0 0 0.999937 0.000406999
171 4.22301 3.32326 0.751568 0 0 0.999943 0.000482587
930 4.15532 2.64596 1.58608 0 0 0.999944 0.000480753
94 5.66521 2.44859 0.133759 0 0 0.999931 0.000331751
100 6.56825 2.18642 0.775454 0 0 0.999925 0.000239975
175 5.66463 3.20321 0.955834 0 0 0.999929 0.000353597
934 5.87517 2.20047 1.50049 0 0 0.999929 0.000320251
1017 6.53258 3.07478 1.5602 0 0 0.999922 0.000267515
177 6.66022 2.93567 0.134717 0 0 0.999923 0.000239444
98 7.4595 2.23187 0.140491 0 0 0.999923 0.000140835
104 8.08448 2.2082 0.933762 0 0 0.999922 7.14345e-05
179 7.40774 3.07617 0.936998 0 0 0.99992 0.000162806
938 7.30602 2.06633 1.57342 0 0 0.999923 0.000165288
1021 8.18758 3.01028 1.65792 0 0 0.999919 7.58277e-05
181 8.27068 2.97907 0.0397901 0 0 0.999921 5.51619e-05
102 8.90154 2.09311 0.253467 0 0 0.999925 -2.75527e-05
108 9.76517 2.03006 1.113 0 0 0.999927 -0.00012528
183 8.92391 2.98072 0.932429 0 0 0.999921 -2.05499e-05
942 9.02728 2.22731 1.70981 0 0 0.999923 -3.42828e-05
185 9.55483 2.91355 0.213796 0 0 0.999925 -9.9923e-05
106 10.273 2.11907 0.214758 0 0 0.999932 -0.000186229
112 11.1434 1.83123 0.773644 0 0 0.999939 -0.000279868
187 10.609 2.81512 0.924578 0 0 0.999931 -0.000221772
1029 11.4267 2.83707 1.58066 0 0 0.999938 -0.000307982
116 12.6518 1.94488 0.596038 0 0 0.999955 -0.000422891
191 11.9089 2.64753 0.744063 0 0 0.999945 -0.000359536
950 11.9055 1.92473 1.46946 0 0 0.999945 -0.000357067
1033 12.8211 3.0235 1.69151 0 0 0.999954 -0.000443908
195 13.1575 3.03355 0.849079 0 0 0.999959 -0.000471048
954 13.3542 1.99471 1.48354 0 0 0.999963 -0.000479269
120 13.9938 2.44777 0.927393 0 0 0.999972 -0.000521543
1037 13.9999 3.38852 1.55941 0 0 0.99997 -0.000533026
199 14.6672 3.43944 0.884497 0 0 0.999981 -0.000567786
958 14.7561 2.30037 1.44743 0 0 0.999983 -0.000558858
118 14.8131 2.51581 0.1372 0 0 0.999985 -0.000559933
197 14.1305 3.2283 0.0343375 0 0 0.999974 -0.000536628
114 13.389 2.29831 0.05882 0 0 0.999964 -0.000480631
124 15.669 2.44295 0.694358 0 0 0.999998 -0.000582084
203 16.2738 3.2003 0.664527 0 0 1.00001 -0.000597897
962 16.2782 2.4785 1.52536 0 0 1.00001 -0.00059141
1041 15.341 3.25836 1.50329 0 0 0.999992 -0.000589529
201 15.5401 3.25953 0.020806 0 0 0.999996 -0.000590901
128 17.0365 2.35007 0.682571 0 0 1.00002 -0.00057776
207 17.9161 2.92383 0.699567 0 0 1.00003 -0.000557277
966 17.991 2.43577 1.58037 0 0 1.00003 -0.000552269
1045 17.0613 3.11379 1.49475 0 0 1.00002 -0.000590902
132 18.8661 2.35422 1.01154 0 0 1.00005 -0.000501912
211 19.6785 3.23528 1.27455 0 0 1.00006 -0.000450417
209 18.8583 2.99197 0.194749 0 0 1.00005 -0.000506641
130 19.5657 2.33668 0.101824 0 0 1.00006 -0.00044948
973 20.3057 1.78333 1.72149 0 0 1.00007 -0.000387456
134 21.1424 2.41108 0.456622 0 0 1.00007 -0.000306793
136 20.1754 2.46239 1.11105 0 0 1.00006 -0.000400557
215 21.2954 3.28704 1.38772 0 0 1.00008 -0.000291098
213 20.4027 2.98755 0.333324 0 0 1.00007 -0.000380837
139 22.8668 2.06318 1.50468 0 0 1.00009 -0.000115156
138 22.9666 2.59489 0.732915 0 0 1.00009 -0.000101737
140 22.0852 2.49208 1.2342 0 0 1.00008 -0.000201718
217 21.9783 3.19228 0.597189 0 0 1.00008 -0.000213646
16179 22.6714 3.39194 0.0745987 0 0 1.00009 -0.000132911
141 23.7431 1.80327 0.622093 0 0 1.00009 -1.32011e-05
143 24.4321 1.98167 1.60565 0 0 1.00009 7.38706e-05
142 24.3451 2.67547 0.772547 0 0 1.00009 6.53976e-05
144 23.6878 2.89406 1.53107 0 0 1.00009 -6.79065e-06
223 24.4773 3.50104 1.55144 0 0 1.00009 9.8869e-05
16108 24.9626 2.83754 0.0146178 0 0 1.00009 0.000139578
149 26.5626 1.78986 0.510088 0 0 1.00008 0.000298729
145 25.1394 1.85102 0.508359 0 0 1.00009 0.000147687
146 25.803 2.60521 0.705058 0 0 1.00009 0.000232059
148 25.1661 2.54895 1.52041 0 0 1.00009 0.000164386
227 25.7328 3.48904 1.50763 0 0 1.00009 0.00024897
152 26.551 2.55446 1.52616 0 0 1.00008 0.000318153
229 26.183 3.49279 0.596568 0 0 1.00009 0.000291476
151 27.5222 1.9814 1.23452 0 0 1.00007 0.00039663
153 28.2705 2.08687 0.343141 0 0 1.00006 0.00045217
150 27.1041 2.68668 0.642847 0 0 1.00008 0.000366802
231 27.2195 3.34689 1.41271 0 0 1.00008 0.000401969
156 28.2754 2.75286 1.20305 0 0 1.00006 0.000473312
233 28.0033 3.21486 0.326805 0 0 1.00007 0.000455767
997 29.984 1.80692 1.70583 0 0 1.00004 0.000562675
155 29.4717 2.04232 0.879513 0 0 1.00005 0.000531065
154 29.2196 2.65779 0.289457 0 0 1.00005 0.000526854
235 29.276 3.25985 1.17334 0 0 1.00005 0.000554894
159 30.9385 1.9831 0.923706 0 0 1.00002 0.000587896
160 30.2086 2.70873 1.00089 0 0 1.00004 0.000582155
239 31.0539 3.3491 0.971712 0 0 1.00002 0.000627062
998 31.0148 2.69329 1.72584 0 0 1.00002 0.000618838
237 30.1384 3.25407 0.134929 0 0 1.00004 0.000589039
157 30.437 1.90716 0.0268121 0 0 1.00003 0.000566178
158 31.1709 2.66223 0.0761595 0 0 1.00002 0.00060344
164 0.324449 3.78452 0.919121 0 0 1 0.000653334
241 0.174332 4.59594 0.480838 0 0 1.00001 0.000680978
243 1.17033 4.67223 0.987628 0 0 0.999988 0.00068299
244 0.122449 5.26679 1.27709 0 0 1.00001 0.000722639
162 1.07088 3.8644 0.0616523 0 0 0.99999 0.000644897
168 1.87198 4.04829 0.848362 0 0 0.999976 0.000638629
247 2.56926 4.861 1.13778 0 0 0.999963 0.000648584
166 2.67708 4.14899 0.206616 0 0 0.999963 0.000604224
245 1.92804 4.97119 0.279496 0 0 0.999975 0.000669923
249 3.43467 4.86789 0.162388 0 0 0.99995 0.000589005
172 3.51853 4.08255 0.887981 0 0 0.99995 0.000558977
176 4.9325 4.00879 1.18556 0 0 0.999933 0.000449383
251 4.07262 4.88789 1.15 0 0 0.999941 0.00055402
170 4.28214 4.19131 0.148996 0 0 0.99994 0.000501636
253 5.02972 4.74934 0.341532 0 0 0.99993 0.000457525
174 5.79152 3.94657 0.198785 0 0 0.999926 0.000354494
180 6.50201 3.77565 0.775816 0 0 0.999921 0.000278829
255 5.69891 4.74567 1.02962 0 0 0.999923 0.000396512
1097 6.67559 4.52344 1.65005 0 0 0.999916 0.000293103
260 6.69238 5.14407 0.888686 0 0 0.999915 0.000298598
184 8.20046 3.90191 0.704256 0 0 0.999917 7.93027e-05
259 7.41551 4.47196 0.549798 0 0 0.999916 0.000187301
1018 7.40636 3.88061 1.50312 0 0 0.999916 0.000186225
1101 8.20296 4.62355 1.49361 0 0 0.999913 0.000102312
188 9.88895 3.58784 0.889556 0 0 0.999924 -0.000132738
263 9.07553 4.57763 0.825531 0 0 0.999916 -1.90405e-05
265 9.85381 4.51525 0.127571 0 0 0.999921 -0.00012377
1022 9.07425 3.7735 1.50467 0 0 0.999918 -2.52276e-05
1105 9.86093 4.35878 1.66307 0 0 0.999919 -0.000113957
182 8.98253 3.87821 0.0637022 0 0 0.999919 -2.08002e-05
192 11.3905 3.65323 0.782884 0 0 0.999936 -0.000308158
267 10.5756 4.67713 0.91075 0 0 0.999924 -0.000209775
269 11.3684 4.70441 0.231139 0 0 0.999932 -0.000306146
1026 10.6925 3.5771 1.59439 0 0 0.999928 -0.00022521
1109 11.3468 4.38415 1.71197 0 0 0.999931 -0.000297044
272 11.3711 5.28482 0.990296 0 0 0.999929 -0.000300645
186 10.5705 3.85793 0.176843 0 0 0.999929 -0.000216999
196 12.4919 3.5865 0.817116 0 0 0.999949 -0.000418226
271 12.1683 4.55969 1.00388 0 0 0.999942 -0.000391524
1113 12.713 5.00536 1.69502 0 0 0.999946 -0.000441778
275 13.1986 4.68834 0.802869 0 0 0.999956 -0.000488606
273 12.6172 4.62689 0.0630102 0 0 0.999948 -0.000437685
200 13.9612 4.13231 0.69833 0 0 0.999969 -0.00053912
1034 13.4559 4.22486 1.59723 0 0 0.99996 -0.000503455
1117 14.1714 5.123 1.52449 0 0 0.999969 -0.000561456
279 14.9078 5.01502 0.813047 0 0 0.999983 -0.000601337
1038 14.9329 4.41836 1.59622 0 0 0.999983 -0.000592437
277 14.1097 4.90987 0.0622709 0 0 0.99997 -0.000559215
198 14.9294 4.19575 0.0981506 0 0 0.999985 -0.000589018
204 15.6357 4.06715 0.925956 0 0 0.999996 -0.000607363
281 15.8447 4.77539 0.186834 0 0 1 -0.000622754
283 16.5604 4.57922 0.90014 0 0 1.00001 -0.000620253
1042 16.2863 3.9584 1.68978 0 0 1.00001 -0.000612714
1121 15.7766 5.05227 1.64211 0 0 0.999998 -0.000624354
208 17.2384 3.83064 0.810423 0 0 1.00002 -0.000595932
287 18.055 4.48305 1.09588 0 0 1.00004 -0.000575002
1046 17.9227 3.63421 1.65372 0 0 1.00003 -0.000569645
285 17.423 4.57355 0.0156016 0 0 1.00003 -0.000602819
206 18.1062 3.84958 0.0595341 0 0 1.00004 -0.000562026
212 18.8498 3.70131 0.949148 0 0 1.00005 -0.000517013
289 18.7954 4.60289 0.360765 0 0 1.00005 -0.000532192
291 19.6641 4.66868 1.07975 0 0 1.00006 -0.000463728
292 18.7549 5.26898 1.19746 0 0 1.00005 -0.000542021
210 19.5747 3.75996 0.227832 0 0 1.00006 -0.000461759
216 20.4181 3.81329 1.22976 0 0 1.00007 -0.000385746
295 20.8656 4.70732 1.38843 0 0 1.00008 -0.000338987
297 21.5646 4.93934 0.806041 0 0 1.00009 -0.000258435
214 21.0671 3.92242 0.51063 0 0 1.00008 -0.000318138
293 20.1131 4.77596 0.35007 0 0 1.00007 -0.000421376
219 22.815 3.62107 1.41559 0 0 1.00009 -0.000108803
220 21.9288 4.12216 1.30555 0 0 1.00009 -0.000215368
299 22.4627 5.16267 1.26731 0 0 1.0001 -0.000140027
218 22.6055 4.33556 0.508816 0 0 1.00009 -0.000132795
221 23.5725 3.62869 0.779376 0 0 1.00009 -1.7701e-05
222 24.3398 4.3096 0.622414 0 0 1.0001 8.84634e-05
224 23.4662 4.53655 1.32798 0 0 1.0001 -1.4799e-05
305 24.8601 5.24358 0.563826 0 0 1.0001 0.000176524
301 23.5507 5.05108 0.530713 0 0 1.0001 -2.52095e-06
228 25.0175 4.48774 1.61618 0 0 1.0001 0.000189224
303 24.3677 5.27464 1.42683 0 0 1.0001 0.000121356
225 25.0708 3.66973 0.798515 0 0 1.00009 0.000168586
307 25.7043 5.12645 1.33738 0 0 1.0001 0.000288049
232 26.3738 4.28009 1.36706 0 0 1.00009 0.000340649
309 26.5201 4.96209 0.638332 0 0 1.00009 0.000368836
226 25.54 4.39044 0.387348 0 0 1.00009 0.000237222
311 27.352 4.85991 1.40086 0 0 1.00008 0.000462364
236 27.9848 3.96867 1.10155 0 0 1.00007 0.0004831
313 28.3021 4.72778 0.704005 0 0 1.00007 0.000531905
230 27.0858 4.03422 0.569363 0 0 1.00008 0.000398096
234 28.9573 3.76578 0.484783 0 0 1.00006 0.000543287
315 29.1145 4.51675 1.3273 0 0 1.00006 0.000591304
240 30.0261 4.06558 1.02315 0 0 1.00004 0.000618634
238 31.0594 3.97408 0.370953 0 0 1.00002 0.000644282
317 30.2354 4.67641 0.488008 0 0 1.00004 0.000646771
319 31.0099 4.59854 1.40757 0 0 1.00002 0.000681894
242 0.942149 5.53276 0.462005 0 0 0.999993 0.000720379
248 1.56538 5.51468 1.38067 0 0 0.99998 0.000722254
323 0.830442 6.21931 1.27742 0 0 0.999995 0.000769822
324 0.293468 6.91933 1.50662 0 0 1.00001 0.000816991
322 1.00746 6.9463 0.573006 0 0 0.999991 0.000795078
321 0.0113309 5.99641 0.446844 0 0 1.00001 0.000745234
328 1.74197 7.03235 1.24099 0 0 0.999976 0.000794997
325 1.928 6.2038 0.518535 0 0 0.999974 0.00072998
252 3.13658 5.62551 1.30295 0 0 0.999953 0.000656026
327 2.29864 6.15972 1.41302 0 0 0.999966 0.000729023
332 3.28656 6.97103 1.13312 0 0 0.999947 0.000712861
246 2.71265 5.61695 0.274275 0 0 0.99996 0.000665312
329 3.42561 6.28828 0.500861 0 0 0.999947 0.000655201
250 4.21556 5.47109 0.327006 0 0 0.999938 0.000557034
256 4.95729 5.4395 1.32124 0 0 0.999928 0.000503841
331 4.16235 6.10534 1.23245 0 0 0.999936 0.000603635
333 4.84996 6.24438 0.334961 0 0 0.999927 0.000534028
336 4.79948 6.81237 1.1651 0 0 0.999924 0.00057841
330 4.03153 7.03313 0.223649 0 0 0.999936 0.000645197
254 5.80184 5.43155 0.303048 0 0 0.999921 0.000402593
335 5.7123 6.25473 0.967631 0 0 0.999917 0.000454826
1177 6.47425 5.99855 1.60512 0 0 0.999911 0.000369901
340 6.44948 6.88403 1.01416 0 0 0.999908 0.000394528
337 6.39449 6.05594 0.155253 0 0 0.999914 0.000357187
264 8.21612 5.3277 0.698539 0 0 0.999911 0.000108218
339 7.33662 6.17287 0.759012 0 0 0.999908 0.000249537
1098 7.40086 5.43181 1.49951 0 0 0.99991 0.000230096
1181 8.24199 6.12616 1.50113 0 0 0.999905 0.000140552
344 8.0195 6.8697 0.733994 0 0 0.999902 0.000177781
1178 7.2936 6.87917 1.60649 0 0 0.999902 0.000302226
258 7.33849 5.37028 0.046389 0 0 0.999912 0.000217993
268 9.76017 5.33331 0.797299 0 0 0.999916 -9.83186e-05
343 8.87921 6.20369 0.741746 0 0 0.999906 3.96775e-05
1102 9.05117 5.34177 1.60528 0 0 0.99991 1.08026e-05
1185 9.73093 6.2056 1.47714 0 0 0.999909 -6.83242e-05
1182 9.09068 6.96793 1.4733 0 0 0.999901 4.42101e-05
345 9.75499 6.247 0.0954828 0 0 0.999912 -8.68624e-05
262 8.99496 5.47907 0.0140455 0 0 0.999912 2.81877e-06
347 10.5702 6.03629 0.969376 0 0 0.999917 -0.000195285
349 11.2942 6.38424 0.078432 0 0 0.999924 -0.000291414
346 10.5056 6.95723 0.155457 0 0 0.999913 -0.000182588
1186 10.4556 6.94264 1.50638 0 0 0.999909 -0.000152805
270 11.9764 5.6377 0.184349 0 0 0.999936 -0.000376963
276 12.649 5.8273 0.865767 0 0 0.999944 -0.000444699
351 11.7551 6.22079 1.05862 0 0 0.999929 -0.000343401
1114 13.2931 5.87581 1.56237 0 0 0.999952 -0.000499478
355 13.3205 6.59077 0.816121 0 0 0.999951 -0.000514189
274 13.2914 5.54686 0.0429353 0 0 0.999955 -0.0005069
280 14.0298 5.72246 0.775524 0 0 0.999966 -0.000563227
1197 14.2909 6.65796 1.41219 0 0 0.999967 -0.000583395
357 14.0968 6.3914 0.0387178 0 0 0.999966 -0.000578097
278 14.9916 5.64545 0.0353639 0 0 0.999984 -0.000615842
359 15.0102 6.45452 0.808211 0 0 0.999982 -0.000626495
284 15.7944 5.7385 0.957478 0 0 0.999998 -0.00063834
363 16.4529 6.45151 1.14112 0 0 1.00001 -0.000650843
1118 15.0704 5.87861 1.7005 0 0 0.999983 -0.000614063
282 16.5853 5.41788 0.276217 0 0 1.00001 -0.000635822
361 15.6394 6.34057 0.040105 0 0 0.999995 -0.000647738
286 17.795 5.2978 0.540324 0 0 1.00003 -0.000601127
288 17.0772 5.42191 1.24643 0 0 1.00002 -0.000626304
365 17.027 6.2719 0.41072 0 0 1.00002 -0.000644226
367 17.6288 6.24135 1.38189 0 0 1.00003 -0.000617886
372 18.2388 7.04466 1.13025 0 0 1.00005 -0.000596383
369 18.3395 6.22394 0.608974 0 0 1.00005 -0.000584163
290 19.4024 5.74804 0.618087 0 0 1.00006 -0.000497185
371 19.2973 6.5465 1.34385 0 0 1.00007 -0.000508178
373 19.9686 6.73914 0.607155 0 0 1.00008 -0.000447295
294 20.7306 5.76294 0.64994 0 0 1.00008 -0.000358196
296 20.1684 5.59858 1.38977 0 0 1.00007 -0.000417603
375 20.7577 6.59767 1.29639 0 0 1.00009 -0.000347886
377 21.6445 6.64763 0.662852 0 0 1.0001 -0.000240362
300 21.6484 5.86339 1.37702 0 0 1.00009 -0.000238305
16260 21.6776 5.71923 0.0518204 0 0 1.00009 -0.000243276
298 22.6665 5.81402 0.669165 0 0 1.0001 -0.000109149
379 22.6249 6.67655 1.1994 0 0 1.00011 -9.41119e-05
381 23.347 6.76369 0.266123 0 0 1.00011 -3.5302e-08
304 23.4816 5.8698 1.29199 0 0 1.00011 1.19454e-05
383 24.3259 6.54742 1.1519 0 0 1.00011 0.000147577
302 24.1493 5.9917 0.424489 0 0 1.00011 9.77432e-05
306 25.6977 5.84904 0.696568 0 0 1.0001 0.000302069
308 25.1232 6.02569 1.66787 0 0 1.00011 0.000250037
385 25.1711 6.72586 0.491788 0 0 1.00011 0.000259771
387 25.8431 6.58073 1.40008 0 0 1.0001 0.000360787
312 26.7107 5.83345 1.46939 0 0 1.00009 0.00043524
310 27.5206 5.53408 0.718802 0 0 1.00008 0.000495234
389 26.7697 6.35377 0.647806 0 0 1.00009 0.000448262
391 27.7273 6.46141 1.36029 0 0 1.00008 0.000566623
316 28.3926 5.5139 1.48109 0 0 1.00007 0.000586056
390 27.7373 6.99655 0.527138 0 0 1.00009 0.000577859
314 29.4184 5.30334 0.815855 0 0 1.00005 0.000635586
395 29.4701 6.17687 1.31876 0 0 1.00006 0.000690243
394 29.6124 6.89504 0.505729 0 0 1.00005 0.000721958
393 28.4979 6.19807 0.637386 0 0 1.00007 0.000611021
16355 29.407 6.14545 0.0787255 0 0 1.00006 0.000668156
16276 28.5093 5.383 0.0576719 0 0 1.00007 0.000571775
318 30.997 5.36492 0.594286 0 0 1.00002 0.000703694
320 30.2494 5.45458 1.46427 0 0 1.00004 0.000697067
397 30.4292 6.17888 0.647854 0 0 1.00004 0.000726147
399 31.2541 6.15244 1.38316 0 0 1.00002 0.000762652
398 31.2376 6.95134 0.603546 0 0 1.00002 0.000791004
401 0.300962 7.63294 0.661007 0 0 1.00001 0.000838603
402 0.874257 8.46615 0.618109 0 0 0.999994 0.000882959
403 1.15139 7.86439 1.49804 0 0 0.999988 0.000866845
404 0.398668 8.56158 1.47009 0 0 1 0.000914302
405 1.63166 7.76805 0.37348 0 0 0.999978 0.000823918
408 1.7662 8.62237 1.46707 0 0 0.999974 0.00089516
326 2.52193 7.15455 0.476572 0 0 0.999961 0.000755036
406 2.23315 8.63699 0.4009 0 0 0.999964 0.000850468
407 2.43212 7.81689 1.28107 0 0 0.999961 0.000813386
412 3.05244 8.52297 0.939848 0 0 0.999948 0.000809846
409 3.27795 7.77776 0.328591 0 0 0.999946 0.000741596
410 3.84715 8.46877 0.0821706 0 0 0.999934 0.000735052
411 4.012 7.67683 1.25125 0 0 0.999933 0.000697498
416 4.73366 8.27003 0.928639 0 0 0.99992 0.000654599
413 4.69937 7.64912 0.247892 0 0 0.999923 0.000615067
334 5.57138 7.06416 0.148808 0 0 0.999916 0.000495072
414 5.89256 8.36218 0.172036 0 0 0.999906 0.000518223
415 5.50822 7.60246 1.03682 0 0 0.999913 0.000540734
417 6.51018 7.55361 0.17062 0 0 0.999905 0.000403235
420 6.41649 8.25204 1.05151 0 0 0.999901 0.000459995
419 7.29827 7.78463 0.752386 0 0 0.999899 0.000314483
424 8.29002 8.33136 0.876713 0 0 0.999893 0.000194109
1258 7.29209 8.19947 1.71373 0 0 0.999893 0.000364024
1261 8.05912 7.50537 1.57165 0 0 0.999895 0.000217934
421 8.00532 7.61954 0.0287642 0 0 0.999899 0.000198534
348 9.83367 7.23784 0.729724 0 0 0.999905 -7.351e-05
423 8.91145 7.63293 0.667442 0 0 0.999898 7.17173e-05
428 9.72486 8.63654 0.700321 0 0 0.999896 -2.53567e-05
1262 9.09074 8.71728 1.45858 0 0 0.99989 0.000104903
1265 9.63569 7.90698 1.61301 0 0 0.999897 -3.10613e-06
352 11.2951 7.15744 0.815972 0 0 0.999919 -0.000279915
427 10.559 7.96092 0.851226 0 0 0.999906 -0.000163956
1266 10.5727 8.72112 1.43928 0 0 0.9999 -0.000130414
1269 11.3837 7.82292 1.61443 0 0 0.999914 -0.000264227
429 11.2075 8.13372 0.0436145 0 0 0.999914 -0.000267183
356 12.6776 7.2965 0.570206 0 0 0.999938 -0.000453997
431 12.151 8.24736 0.596456 0 0 0.999925 -0.000386889
1190 12.0413 7.17215 1.38719 0 0 0.999927 -0.000366546
1270 12.0608 8.69578 1.503 0 0 0.999918 -0.00034578
1273 12.8274 8.00972 1.48553 0 0 0.999934 -0.000450196
360 14.297 7.36067 0.587921 0 0 0.999966 -0.000600198
435 13.5812 8.10311 0.46926 0 0 0.99995 -0.000548679
1194 13.4268 7.34981 1.34969 0 0 0.999948 -0.000519355
1277 14.2093 8.18874 1.35896 0 0 0.99996 -0.000585463
439 15.0297 8.29681 0.867668 0 0 0.999979 -0.00064639
362 16.3946 7.18342 0.278413 0 0 1.00001 -0.000668538
364 15.5898 7.31225 0.921441 0 0 0.999992 -0.000656682
443 16.2193 8.15971 1.11147 0 0 1 -0.000670564
1198 15.1029 7.52653 1.63146 0 0 0.999981 -0.000628641
441 15.8229 8.31405 0.153259 0 0 0.999997 -0.000680366
368 16.9381 7.35808 1.11554 0 0 1.00002 -0.00065704
445 17.0262 8.1018 0.339148 0 0 1.00002 -0.000671815
447 17.6665 8.01816 1.02596 0 0 1.00004 -0.000638295
366 17.7804 7.1612 0.214457 0 0 1.00004 -0.000631543
370 18.9741 7.32757 0.639955 0 0 1.00006 -0.000548023
451 18.8935 8.14223 1.17977 0 0 1.00006 -0.000551046
376 19.8433 7.64336 1.31863 0 0 1.00008 -0.000453477
453 19.7749 8.12806 0.358517 0 0 1.00008 -0.000473021
449 18.4142 8.18133 0.170965 0 0 1.00005 -0.000602784
374 20.6774 7.44606 0.66802 0 0 1.00009 -0.000363075
455 20.6242 8.42397 1.02852 0 0 1.00009 -0.000359798
380 21.5262 7.65587 1.14162 0 0 1.0001 -0.000239312
457 21.5965 8.32789 0.256923 0 0 1.0001 -0.000233412
459 22.58 8.16078 1.01198 0 0 1.00011 -7.53883e-05
1218 22.409 7.4826 1.74677 0 0 1.00011 -9.70787e-05
378 22.3276 7.46789 0.383385 0 0 1.00011 -0.000136757
384 23.4448 7.30519 1.04494 0 0 1.00011 3.58868e-05
461 23.4884 8.05876 0.382833 0 0 1.00012 5.29866e-05
463 24.3514 8.08373 0.994273 0 0 1.00012 0.00019584
1302 24.2604 8.70069 1.6753 0 0 1.00013 0.000228344
382 24.3452 7.30905 0.267581 0 0 1.00011 0.000158692
462 24.3215 8.80875 0.207348 0 0 1.00012 0.000203638
388 25.1294 7.37842 1.24688 0 0 1.00011 0.000291518
467 26.0404 7.99105 0.982912 0 0 1.00011 0.00043453
1306 26.0405 8.61193 1.74576 0 0 1.00012 0.000492046
386 26.11 7.26358 0.366209 0 0 1.0001 0.000401918
465 25.2427 8.11533 0.305895 0 0 1.00012 0.000318361
466 26.2946 8.57131 0.0886335 0 0 1.00011 0.000481398
392 26.8071 7.09889 1.33643 0 0 1.0001 0.000499213
470 27.996 8.49385 0.425887 0 0 1.00009 0.000677918
471 27.827 7.8259 1.20896 0 0 1.00009 0.000642623
472 27.004 8.64184 1.01962 0 0 1.0001 0.000589398
469 27.0215 7.77054 0.431914 0 0 1.0001 0.00053596
396 28.6831 7.10344 1.22613 0 0 1.00007 0.000681236
474 29.6323 8.34909 0.54254 0 0 1.00006 0.000802673
475 29.5342 7.67134 1.27359 0 0 1.00006 0.0007726
476 28.8153 8.54936 1.18157 0 0 1.00008 0.000769389
473 28.7289 7.71097 0.414437 0 0 1.00007 0.00070279
400 30.3621 7.08701 1.17786 0 0 1.00004 0.000781137
479 31.2899 7.82104 1.30006 0 0 1.00002 0.000855759
480 30.4707 8.48694 1.18244 0 0 1.00004 0.000866181
477 30.6754 7.86941 0.379927 0 0 1.00004 0.000823364
478 31.4666 8.62022 0.390587 0 0 1.00002 0.000886953
482 1.16585 10.2855 0.273629 0 0 0.999987 0.000978366
483 1.05859 9.37732 1.2062 0 0 0.999989 0.000949375
484 0.299227 9.92994 0.8987 0 0 1.00001 0.000977419
481 0.411107 9.33662 0.122981 0 0 1 0.000932126
1322 0.857468 10.128 1.75373 0 0 0.999994 0.00102099
485 1.79779 9.45112 0.452242 0 0 0.999973 0.00091633
488 1.86985 10.3752 0.971823 0 0 0.99997 0.000976626
486 2.63258 10.2815 0.084171 0 0 0.999953 0.000918872
487 2.41514 9.45152 1.22537 0 0 0.999958 0.000908398
1326 2.81254 10.2408 1.6708 0 0 0.999948 0.00095293
1329 3.24016 9.24605 1.66054 0 0 0.999941 0.000865994
489 3.11072 9.37669 0.081863 0 0 0.999945 0.000841145
492 3.41664 10.0426 0.735415 0 0 0.999937 0.00086419
491 3.96644 9.11891 0.858667 0 0 0.999929 0.000772296
493 4.60684 9.19254 0.0074366 0 0 0.999919 0.000703485
496 4.63802 9.98823 0.574002 0 0 0.999915 0.0007483
1330 4.15676 9.98126 1.62383 0 0 0.999922 0.000833667
1333 4.70461 9.07908 1.65653 0 0 0.999916 0.000730447
495 5.3562 8.95786 0.663441 0 0 0.999909 0.000617998
500 6.26147 9.80749 0.517348 0 0 0.999895 0.000543452
1334 5.34159 9.84444 1.16883 0 0 0.999905 0.00067967
1337 6.17469 9.06753 1.26505 0 0 0.999898 0.000540697
1417 6.25984 10.5245 1.19325 0 0 0.99989 0.000600676
499 7.18018 8.89611 0.715394 0 0 0.999893 0.000378704
501 8.10251 9.06308 0.082059 0 0 0.999891 0.000237655
504 7.96842 9.94046 0.580713 0 0 0.999885 0.000297266
1338 7.19397 9.75304 1.19969 0 0 0.999887 0.000430203
1341 8.05349 9.1836 1.40813 0 0 0.999886 0.000284545
503 8.93992 9.47018 0.732449 0 0 0.999887 0.000129617
508 9.63911 10.3522 0.664136 0 0 0.999885 4.14392e-05
1342 8.75327 10.2824 1.41669 0 0 0.999879 0.000219216
1345 9.82293 9.60613 1.42163 0 0 0.999888 1.56283e-05
432 11.3525 8.86221 0.737021 0 0 0.999911 -0.000267309
426 10.3901 8.90113 0.0405869 0 0 0.999901 -0.00013028
507 10.4505 9.69726 0.660403 0 0 0.999895 -0.00011162
1346 10.6176 10.1856 1.64478 0 0 0.99989 -8.20826e-05
1349 11.2826 9.64907 1.32452 0 0 0.999903 -0.000221006
436 12.9709 8.97456 0.790408 0 0 0.999935 -0.00047854
511 12.0801 9.82667 0.690633 0 0 0.999915 -0.000357633
516 12.7866 10.4856 0.964654 0 0 0.999924 -0.000435329
1353 12.5146 9.62815 1.61939 0 0 0.99992 -0.000382735
1274 13.6519 8.85392 1.57351 0 0 0.999946 -0.000526121
440 14.4271 9.20276 0.762141 0 0 0.999963 -0.000615961
515 13.4951 9.6915 0.839461 0 0 0.999941 -0.0005294
1354 13.4591 10.4209 1.71459 0 0 0.999934 -0.000477542
517 14.2325 10.1569 0.216262 0 0 0.999957 -0.000609399
1278 15.0106 9.07173 1.7638 0 0 0.999974 -0.000618834
444 15.8578 9.16012 1.13674 0 0 0.999996 -0.000671831
519 15.0901 9.86301 1.01302 0 0 0.999976 -0.000648932
521 15.6478 10.1821 0.251759 0 0 0.99999 -0.000687992
523 16.4638 9.95828 0.961822 0 0 1.00001 -0.000681617
442 16.469 9.0326 0.260567 0 0 1.00001 -0.00068995
438 15.2578 9.209 0.0963203 0 0 0.999983 -0.00067013
452 18.2643 8.89219 0.942105 0 0 1.00005 -0.000607923
448 17.0539 9.06677 1.12747 0 0 1.00002 -0.000665747
525 17.1149 10.0243 0.206605 0 0 1.00003 -0.000684352
527 17.7369 9.86645 1.07139 0 0 1.00004 -0.000638998
446 17.7276 9.10501 0.116954 0 0 1.00004 -0.000654203
456 19.7952 8.95178 1.06206 0 0 1.00008 -0.000455565
529 18.565 9.7288 0.29967 0 0 1.00006 -0.000595135
531 19.4779 9.89135 0.850216 0 0 1.00008 -0.000495686
532 18.6887 10.4511 1.14416 0 0 1.00006 -0.000562141
1369 18.6214 9.58172 1.70882 0 0 1.00006 -0.000550843
450 19.2141 8.95563 0.210644 0 0 1.00007 -0.000536817
533 19.9656 9.77973 0.0724182 0 0 1.00009 -0.000445915
535 20.914 9.80205 0.751281 0 0 1.00011 -0.00030625
1373 20.2257 9.65723 1.6709 0 0 1.0001 -0.000370211