ITEM: TIMESTEP
16000
ITEM: NUMBER OF ATOMS
32000
ITEM: BOX BOUNDS pp pp pp
0.0000000000000000e+00 3.1748021039364001e+01
0.0000000000000000e+00 3.1748021039364001e+01
0.0000000000000000e+00 3.1748021039364001e+01
ITEM: ATOMS id x y z c_phase c_nbond c_rho vx
4 0.200079 1.10003 0.467634 0 0 1.00001 0.000849445
83 1.05658 1.66837 0.781048 0 0 1.00002 0.000873651
842 0.799658 0.792515 1.41164 0 0 1.00002 0.000866322
921 0.0902912 1.60007 1.3775 0 0 1.00001 0.000872756
3 0.812405 0.0670188 0.620077 0 0 1.00002 0.000847591
8 1.79246 0.815996 1.01582 0 0 1.00002 0.00085464
85 1.88414 1.48188 0.21869 0 0 1.00002 0.000857287
925 1.9111 1.66272 1.76091 0 0 1.00002 0.000888929
6 2.59669 0.749283 0.204693 0 0 1.00002 0.00082696
7 2.66602 0.0563665 1.04008 0 0 1.00002 0.000829053
87 2.72591 1.54515 0.883155 0 0 1.00002 0.000844505
846 2.75151 0.820993 1.74677 0 0 1.00002 0.000848844
12 3.5035 0.934767 0.963033 0 0 1.00002 0.000802442
849 3.56892 0.0914175 1.71359 0 0 1.00002 0.000808081
929 3.67975 1.71296 1.72523 0 0 1.00002 0.000829233
10 4.17464 0.861946 0.325119 0 0 1.00002 0.000757157
93 4.97877 1.60726 0.386977 0 0 1.00002 0.000720306
850 4.40719 0.947373 1.63953 0 0 1.00002 0.000766895
9 3.54478 0.108877 0.173745 0 0 1.00002 0.000784195
16 5.02431 0.569774 1.17578 0 0 1.00002 0.000707722
14 5.69766 0.648188 0.326183 0 0 1.00002 0.000644452
95 5.93279 1.3196 0.947234 0 0 1.00002 0.000642709
97 6.61469 1.40136 0.220598 0 0 1.00002 0.000573766
854 5.83571 0.462624 1.70991 0 0 1.00002 0.000654457
933 5.08784 1.7304 1.44419 0 0 1.00002 0.000731218
20 6.75126 0.395148 0.873366 0 0 1.00002 0.00055223
937 6.73068 1.01752 1.70583 0 0 1.00002 0.000580393
24 8.28309 0.412597 1.08092 0 0 1.00002 0.000396648
99 7.397 1.23234 0.960789 0 0 1.00002 0.000500164
101 8.26328 1.40088 0.23934 0 0 1.00002 0.000404119
941 8.14825 1.28201 1.62 0 0 1.00002 0.000435773
18 7.6077 0.654259 0.143834 0 0 1.00002 0.000461097
22 8.86517 0.512457 0.275741 0 0 1.00002 0.000324094
28 9.55074 0.340724 0.896788 0 0 1.00002 0.000252421
103 9.03078 1.31739 1.12074 0 0 1.00002 0.000328687
105 9.63571 1.38368 0.092293 0 0 1.00002 0.00025086
32 11.1857 0.217495 0.63934 0 0 1.00002 7.05382e-05
107 10.3498 1.05563 0.8303 0 0 1.00002 0.000170592
866 10.5064 0.198674 1.45669 0 0 1.00002 0.000155707
949 11.2604 1.02455 1.42831 0 0 1.00002 8.17644e-05
946 10.5629 1.69029 1.74238 0 0 1.00002 0.000178636
26 10.2305 0.370318 0.0794148 0 0 1.00002 0.000170931
36 12.8315 0.214394 0.642214 0 0 1.00001 -8.8169e-05
111 12.0073 1.08068 0.512562 0 0 1.00001 -6.24495e-06
870 12.094 0.318398 1.30947 0 0 1.00001 -1.11151e-05
953 12.6757 1.20348 1.38182 0 0 1.00001 -5.58187e-05
40 14.3158 0.324911 0.775269 0 0 1.00001 -0.000196919
115 13.5383 1.11634 0.848874 0 0 1.00001 -0.000135628
117 13.9865 1.56448 0.164868 0 0 1.00001 -0.000166269
874 13.5571 0.362103 1.64329 0 0 1.00001 -0.00013204
957 14.32 1.15468 1.48411 0 0 1.00001 -0.000179323
119 14.8172 1.55705 0.665875 0 0 1.00001 -0.000211559
44 15.6446 0.768188 0.789034 0 0 1 -0.000255857
123 16.4861 1.54273 0.68234 0 0 1 -0.000264969
878 15.0803 0.465156 1.64501 0 0 1.00001 -0.000224259
882 16.4813 0.710336 1.3431 0 0 1 -0.00026799
961 15.5674 1.48985 1.39485 0 0 1 -0.000235423
38 15.0416 0.712167 0.0672847 0 0 1.00001 -0.000236634
48 17.1947 0.729871 0.551053 0 0 1 -0.000278784
127 17.8622 1.57837 0.754911 0 0 1 -0.000257931
886 17.8549 0.741968 1.4243 0 0 1 -0.00026115
965 17.1554 1.74543 1.56185 0 0 1 -0.000252388
51 19.4871 0.0144995 0.661069 0 0 0.999997 -0.000208346
52 18.7359 0.723827 0.683838 0 0 0.999998 -0.000242373
131 19.4896 1.54721 0.838287 0 0 0.999997 -0.000193398
889 18.9712 0.155443 1.54039 0 0 0.999998 -0.000225711
890 19.544 0.962879 1.68392 0 0 0.999997 -0.000186689
969 18.6025 1.50531 1.4958 0 0 0.999999 -0.000227757
55 21.0604 0.347268 1.06162 0 0 0.999996 -9.15279e-05
56 20.2058 0.7724 0.973731 0 0 0.999996 -0.000155574
135 21.0726 1.64368 0.947782 0 0 0.999996 -7.42221e-05
54 21.1545 0.760814 0.216732 0 0 0.999996 -8.62687e-05
133 20.3037 1.50575 0.194895 0 0 0.999997 -0.000144944
57 21.988 0.261476 0.535998 0 0 0.999996 -1.13675e-05
59 22.7821 0.426433 1.39733 0 0 0.999996 8.06244e-05
60 22.0915 1.13976 1.32113 0 0 0.999996 1.65185e-05
137 21.9766 1.58887 0.53323 0 0 0.999996 3.05511e-06
58 22.9071 1.06494 0.44338 0 0 0.999996 9.01792e-05
63 24.2413 0.376819 1.43957 0 0 0.999997 0.000243894
61 23.5681 0.35402 0.569919 0 0 0.999996 0.000155818
62 24.4504 1.17682 0.748955 0 0 0.999997 0.000265152
64 23.4771 1.23918 1.39218 0 0 0.999997 0.000167446
65 24.9767 0.313184 0.547558 0 0 0.999998 0.000314381
67 26.0437 0.379299 1.16397 0 0 1 0.000438521
68 25.194 1.11737 1.46874 0 0 0.999999 0.000360997
147 25.9669 1.72329 1.34752 0 0 1 0.000456311
66 25.9259 0.924392 0.427889 0 0 1 0.000423066
70 27.6296 1.2742 0.385714 0 0 1 0.000602332
71 27.6695 0.504795 0.869751 0 0 1 0.00059987
72 26.8013 1.02173 1.25436 0 0 1 0.000528118
69 26.8372 0.238967 0.22647 0 0 1 0.000510317
913 28.4424 0.338109 1.39703 0 0 1.00001 0.000674047
76 28.7161 1.23338 0.735781 0 0 1.00001 0.000696812
914 29.4592 0.947992 1.5639 0 0 1.00001 0.000759641
993 28.5884 1.71329 1.49347 0 0 1.00001 0.000710933
917 29.8932 0.169502 1.45585 0 0 1.00001 0.000776971
75 29.3441 0.353495 0.613624 0 0 1.00001 0.000728664
841 31.6715 0.267232 1.25679 0 0 1.00001 0.000845069
79 30.7857 0.483759 0.47383 0 0 1.00001 0.000807011
80 30.1748 1.19546 0.77184 0 0 1.00001 0.000792085
918 30.9444 0.970156 1.39152 0 0 1.00001 0.000833478
82 1.19531 2.4386 0.1266 0 0 1.00002 0.00089406
84 0.219929 2.38177 0.810571 0 0 1.00001 0.000889658
163 1.37474 3.23807 0.948649 0 0 1.00002 0.00093805
922 1.22635 2.36505 1.59247 0 0 1.00002 0.000914626
1001 0.474998 3.03375 1.54966 0 0 1.00002 0.000939017
161 0.41934 3.09931 0.131238 0 0 1.00002 0.00091762
88 1.9946 2.42186 0.786359 0 0 1.00002 0.000890886
167 2.73959 3.28899 0.862634 0 0 1.00002 0.000912928
926 2.75205 2.23937 1.54157 0 0 1.00002 0.00088044
1009 3.34082 3.43492 1.65745 0 0 1.00002 0.000918176
86 2.80337 2.38957 0.0558385 0 0 1.00002 0.000862569
92 3.45784 2.56489 0.784659 0 0 1.00002 0.000848807
91 4.07623 1.84722 0.715702 0 0 1.00002 0.000788307
96 4.97403 2.58425 0.821967 0 0 1.00002 0.000759016
171 4.27255 3.33183 0.754856 0 0 1.00002 0.000839924
930 4.20713 2.65308 1.59002 0 0 1.00002 0.000830426
94 5.70357 2.45777 0.13559 0 0 1.00002 0.00068768
100 6.60007 2.19558 0.78018 0 0 1.00002 0.00060375
175 5.7061 3.21431 0.960966 0 0 1.00002 0.000731949
934 5.91297 2.21038 1.50602 0 0 1.00002 0.00068377
1017 6.56907 3.08669 1.56653 0 0 1.00002 0.000662478
177 6.69143 2.9484 0.135325 0 0 1.00002 0.000618872
98 7.48313 2.24137 0.141454 0 0 1.00002 0.000511562
104 8.10399 2.21776 0.939241 0 0 1.00002 0.000452481
179 7.43459 3.088 0.940937 0 0 1.00002 0.000561088
938 7.33241 2.07567 1.58093 0 0 1.00002 0.000544374
1021 8.20851 3.02316 1.6666 0 0 1.00002 0.000492724
181 8.28925 2.99134 0.0408164 0 0 1.00002 0.000454154
102 8.91273 2.10299 0.255182 0 0 1.00002 0.000351195
108 9.76881 2.03896 1.1182 0 0 1.00002 0.000264084
183 8.93633 2.9935 0.938248 0 0 1.00002 0.000391183
942 9.03826 2.23775 1.71895 0 0 1.00002 0.000367562
185 9.56142 2.92609 0.215022 0 0 1.00002 0.000307848
106 10.2713 2.12797 0.21596 0 0 1.00002 0.000198626
112 11.1341 1.83915 0.7778 0 0 1.00002 0.000101493
187 10.6058 2.82663 0.92961 0 0 1.00002 0.000193229
1029 11.4168 2.84888 1.58941 0 0 1.00002 0.000122826
116 12.6308 1.95118 0.599419 0 0 1.00001 -4.6862e-05
191 11.8944 2.65783 0.747597 0 0 1.00001 4.67856e-05
950 11.891 1.93205 1.47642 0 0 1.00001 3.68851e-05
1033 12.8015 3.0335 1.69964 0 0 1.00001 -5.00434e-06
195 13.1372 3.04086 0.85132 0 0 1.00001 -5.39035e-05
954 13.33 2.00077 1.48875 0 0 1.00001 -9.21024e-05
114 13.3637 2.30529 0.0589892 0 0 1.00001 -0.000102602
120 13.9657 2.45372 0.929298 0 0 1.00001 -0.000136474
1037 13.9737 3.39704 1.56427 0 0 1.00001 -8.93695e-05
199 14.6379 3.44492 0.88561 0 0 1.00001 -0.000145132
958 14.7271 2.3052 1.44869 0 0 1.00001 -0.000178739
118 14.781 2.51867 0.138193 0 0 1.00001 -0.000190934
197 14.1015 3.2339 0.0362828 0 0 1.00001 -0.000126578
124 15.6339 2.44364 0.696795 0 0 1 -0.000225626
203 16.241 3.20093 0.667556 0 0 1 -0.000218799
962 16.244 2.47849 1.52609 0 0 1 -0.000227977
1041 15.3111 3.26183 1.50649 0 0 1 -0.000173182
201 15.5067 3.26252 0.0225558 0 0 1 -0.00019979
128 17.0023 2.35011 0.682781 0 0 1 -0.000251192
207 17.8832 2.92107 0.699849 0 0 1 -0.000225492
966 17.9577 2.43183 1.57974 0 0 1 -0.000224553
1045 17.0273 3.11192 1.49535 0 0 1 -0.000215674
132 18.8359 2.34981 1.00925 0 0 0.999998 -0.00020734
211 19.6519 3.22548 1.2705 0 0 0.999998 -0.000132826
209 18.8279 2.98636 0.193521 0 0 0.999998 -0.000196312
130 19.5393 2.32911 0.102341 0 0 0.999997 -0.000178005
973 20.283 1.77609 1.71722 0 0 0.999997 -0.000123077
134 21.1265 2.4026 0.454422 0 0 0.999996 -5.73435e-05
136 20.1527 2.45361 1.1069 0 0 0.999997 -0.000126521
215 21.2818 3.27538 1.38068 0 0 0.999997 -5.21561e-07
213 20.3809 2.97898 0.331523 0 0 0.999997 -0.00010113
139 22.8651 2.05278 1.49842 0 0 0.999997 0.000117819
138 22.9653 2.5837 0.729112 0 0 0.999997 0.00013378
140 22.0758 2.48131 1.22883 0 0 0.999997 4.58428e-05
217 21.9687 3.17976 0.594704 0 0 0.999997 5.01242e-05
16179 22.67 3.37753 0.07296 0 0 0.999997 0.000126734
141 23.7479 1.79495 0.619088 0 0 0.999997 0.000198316
143 24.4441 1.97213 1.597 0 0 0.999998 0.000298295
142 24.3571 2.66333 0.76842 0 0 0.999998 0.000294556
144 23.6944 2.87996 1.52317 0 0 0.999998 0.000241826
223 24.4933 3.48555 1.54291 0 0 0.999999 0.000360834
16108 24.9801 2.82406 0.0144747 0 0 0.999999 0.00036816
149 26.5928 1.78242 0.507978 0 0 1 0.000513181
145 25.1572 1.8425 0.50675 0 0 0.999999 0.000357599
146 25.8284 2.59369 0.701047 0 0 1 0.000458305
148 25.1868 2.53831 1.51228 0 0 1 0.000398074
227 25.7602 3.47406 1.50054 0 0 1 0.000506083
152 26.5825 2.54501 1.51892 0 0 1 0.000554186
229 26.2149 3.47942 0.592546 0 0 1 0.000539164
151 27.56 1.97418 1.22861 0 0 1 0.000625792
153 28.3142 2.08064 0.342015 0 0 1.00001 0.000683741
150 27.1404 2.6766 0.638533 0 0 1 0.000600185
231 27.2607 3.33461 1.40595 0 0 1 0.000657095
156 28.3199 2.74358 1.19729 0 0 1.00001 0.000720603
233 28.0469 3.20577 0.327425 0 0 1.00001 0.000704255
997 30.0383 1.80268 1.70223 0 0 1.00001 0.000818636
155 29.52 2.0339 0.878824 0 0 1.00001 0.000776895
154 29.268 2.65522 0.287336 0 0 1.00001 0.000776522
235 29.3292 3.25019 1.17252 0 0 1.00001 0.000820952
159 30.9932 1.97899 0.922512 0 0 1.00001 0.000851312
160 30.2628 2.704 0.998905 0 0 1.00001 0.000847157
239 31.1129 3.3414 0.972231 0 0 1.00001 0.000913224
998 31.0721 2.68956 1.72428 0 0 1.00001 0.000900113
237 30.1966 3.24418 0.139356 0 0 1.00001 0.000859034
157 30.4883 1.90327 0.0289304 0 0 1.00001 0.000819466
158 31.2267 2.65818 0.0761292 0 0 1.00001 0.000876197
164 0.386469 3.78249 0.919589 0 0 1.00002 0.000961409
241 0.23813 4.59701 0.478141 0 0 1.00002 0.00100351
243 1.23259 4.67269 0.988728 0 0 1.00002 0.00102487
244 0.19165 5.26499 1.27567 0 0 1.00002 0.00106711
162 1.13285 3.86353 0.0651513 0 0 1.00002 0.000962429
168 1.93622 4.05057 0.850177 0 0 1.00002 0.000975705
247 2.6313 4.86807 1.13734 0 0 1.00002 0.00102095
166 2.73636 4.15475 0.206014 0 0 1.00002 0.000954579
245 1.99209 4.97312 0.281272 0 0 1.00002 0.00102845
249 3.49436 4.87614 0.163614 0 0 1.00002 0.000971779
172 3.57318 4.09096 0.891012 0 0 1.00002 0.000924587
176 4.98144 4.02222 1.18768 0 0 1.00002 0.000840961
251 4.13186 4.89917 1.15514 0 0 1.00002 0.000956192
170 4.33302 4.20004 0.148769 0 0 1.00002 0.000880405
253 5.07965 4.76337 0.341624 0 0 1.00002 0.000867697
174 5.83042 3.95993 0.198347 0 0 1.00002 0.000752367
180 6.54095 3.79062 0.781904 0 0 1.00002 0.000684849
255 5.74785 4.75906 1.03681 0 0 1.00002 0.000825066
1097 6.71491 4.54187 1.66078 0 0 1.00002 0.000741789
260 6.7307 5.16361 0.892827 0 0 1.00002 0.000761116
184 8.2227 3.91696 0.709795 0 0 1.00002 0.000515127
259 7.44587 4.48935 0.554548 0 0 1.00002 0.000632648
1018 7.43714 3.8962 1.51259 0 0 1.00002 0.0006206
1101 8.22881 4.64252 1.50335 0 0 1.00002 0.00058143
188 9.8938 3.60352 0.895426 0 0 1.00002 0.000310002
263 9.09073 4.59651 0.831685 0 0 1.00002 0.000460449
265 9.86073 4.53448 0.129375 0 0 1.00002 0.00035698
1022 9.08726 3.79052 1.51443 0 0 1.00002 0.00042941
1105 9.87043 4.3782 1.67448 0 0 1.00002 0.00038136
182 8.99656 3.89398 0.0644734 0 0 1.00002 0.00042015
192 11.3819 3.66702 0.789046 0 0 1.00002 0.000143801
267 10.577 4.69439 0.917471 0 0 1.00002 0.000294629
269 11.3621 4.72139 0.232525 0 0 1.00001 0.000197705
1026 10.691 3.59296 1.60424 0 0 1.00002 0.000236467
1109 11.3414 4.40311 1.72215 0 0 1.00001 0.000215268
186 10.5699 3.87279 0.178192 0 0 1.00002 0.000236833
196 12.473 3.60022 0.821369 0 0 1.00001 3.00845e-05
271 12.1549 4.57507 1.00994 0 0 1.00001 0.000116569
1113 12.7008 5.01981 1.70448 0 0 1.00001 0.000113767
275 13.1786 4.70306 0.807339 0 0 1.00001 2.1561e-05
273 12.5993 4.64074 0.0635062 0 0 1.00001 6.36778e-05
200 13.9361 4.14073 0.70159 0 0 1.00001 -7.12276e-05
1034 13.4347 4.23671 1.60415 0 0 1.00001 -4.56114e-06
1117 14.1466 5.13294 1.5316 0 0 1.00001 -1.0154e-05
279 14.8797 5.02247 0.815946 0 0 1.00001 -8.40889e-05
1038 14.9051 4.42386 1.60046 0 0 1.00001 -9.67321e-05
277 14.084 4.9183 0.0647744 0 0 1.00001 -4.76975e-05
198 14.8986 4.20064 0.100019 0 0 1.00001 -0.000134518
204 15.6029 4.07033 0.926907 0 0 1 -0.000163233
281 15.8113 4.77746 0.187698 0 0 1 -0.000145468
283 16.5278 4.57954 0.901014 0 0 1 -0.000162804
1042 16.2544 3.95978 1.69082 0 0 1 -0.00016775
1121 15.7471 5.05471 1.64542 0 0 1 -9.71253e-05
208 17.2054 3.82793 0.810137 0 0 1 -0.000200947
287 18.0234 4.47694 1.094 0 0 1 -0.000155535
1046 17.891 3.63003 1.65176 0 0 1 -0.000182375
285 17.3885 4.57 0.0166472 0 0 1 -0.000174333
206 18.0745 3.84375 0.0608955 0 0 1 -0.000192829
212 18.8194 3.69426 0.947925 0 0 0.999999 -0.000164438
289 18.7669 4.59441 0.359839 0 0 0.999999 -0.000135136
291 19.6392 4.65568 1.07826 0 0 0.999998 -7.49306e-05
292 18.7272 5.25921 1.19397 0 0 0.999999 -8.84336e-05
210 19.5486 3.75012 0.22824 0 0 0.999998 -0.000131116
216 20.398 3.80101 1.22513 0 0 0.999997 -5.80359e-05
295 20.8506 4.6913 1.38131 0 0 0.999998 2.79582e-05
297 21.557 4.92171 0.800672 0 0 0.999998 9.34838e-05
214 21.0528 3.90909 0.508377 0 0 0.999998 -9.51812e-06
293 20.0939 4.76251 0.347421 0 0 0.999998 -4.81457e-05
219 22.8157 3.6047 1.40741 0 0 0.999998 0.000171196
220 21.9216 4.10573 1.29858 0 0 0.999998 9.74008e-05
299 22.4638 5.14106 1.25978 0 0 0.999999 0.000211418
218 22.6054 4.31797 0.506971 0 0 0.999998 0.000167296
221 23.5794 3.6124 0.774485 0 0 0.999998 0.000245071
222 24.3554 4.29211 0.618671 0 0 0.999999 0.00036742
224 23.4746 4.51658 1.3202 0 0 0.999999 0.000291806
305 24.8848 5.2215 0.55954 0 0 1 0.000486716
301 23.5603 5.03119 0.526646 0 0 1 0.000315327
228 25.0425 4.46712 1.60513 0 0 1 0.000483252
303 24.3876 5.25304 1.41693 0 0 1 0.000449485
225 25.0921 3.65212 0.792758 0 0 1 0.000423522
307 25.7379 5.10604 1.3296 0 0 1 0.000596151
232 26.4101 4.2629 1.35992 0 0 1 0.000618747
309 26.559 4.94437 0.634581 0 0 1 0.00066069
226 25.5682 4.37313 0.386279 0 0 1 0.00051095
311 27.3982 4.84324 1.39295 0 0 1.00001 0.000758883
236 28.0311 3.95502 1.09724 0 0 1.00001 0.000753242
313 28.3534 4.7151 0.700075 0 0 1.00001 0.00082174
230 27.1251 4.01867 0.568318 0 0 1 0.000661844
234 29.0084 3.75747 0.480588 0 0 1.00001 0.000812051
315 29.1698 4.50491 1.32089 0 0 1.00001 0.000885848
240 30.0831 4.05361 1.02263 0 0 1.00001 0.000908034
238 31.1196 3.9731 0.366749 0 0 1.00001 0.000941027
317 30.2972 4.67262 0.482437 0 0 1.00001 0.000950867
319 31.074 4.59576 1.40055 0 0 1.00001 0.000999271
242 1.01198 5.53207 0.46214 0 0 1.00002 0.00107833
248 1.63611 5.51741 1.38095 0 0 1.00002 0.00109811
323 0.905741 6.21559 1.27757 0 0 1.00002 0.0011516
324 0.368322 6.92093 1.50393 0 0 1.00002 0.00121505
322 1.08489 6.9455 0.571722 0 0 1.00002 0.00119618
321 0.0842585 5.99518 0.447199 0 0 1.00002 0.00110251
328 1.8187 7.03585 1.24476 0 0 1.00002 0.00121853
325 1.99597 6.20869 0.516991 0 0 1.00002 0.00112491
252 3.20572 5.63755 1.3054 0 0 1.00002 0.00106427
327 2.37273 6.16827 1.41695 0 0 1.00002 0.00113818
246 2.77893 5.62169 0.275202 0 0 1.00002 0.00105639
332 3.35738 6.9835 1.1416 0 0 1.00002 0.00116727
329 3.49309 6.29668 0.500411 0 0 1.00002 0.00108348
250 4.275 5.48377 0.328748 0 0 1.00002 0.000974724
256 5.01339 5.45572 1.3251 0 0 1.00002 0.000945139
331 4.22322 6.1177 1.23883 0 0 1.00002 0.00104965
333 4.90911 6.26044 0.336113 0 0 1.00002 0.000994425
336 4.86315 6.83213 1.17244 0 0 1.00002 0.00106667
330 4.09811 7.04387 0.226742 0 0 1.00002 0.00111401
254 5.84656 5.44556 0.304415 0 0 1.00002 0.000853606
335 5.76343 6.27061 0.97352 0 0 1.00002 0.000942202
1177 6.52349 6.02002 1.61691 0 0 1.00002 0.000875788
340 6.50132 6.90606 1.01895 0 0 1.00002 0.000930396
337 6.44356 6.07945 0.155729 0 0 1.00002 0.000847243
264 8.24233 5.34856 0.704928 0 0 1.00002 0.000608846
339 7.37423 6.19288 0.765738 0 0 1.00002 0.000772971
1098 7.43818 5.45161 1.51129 0 0 1.00002 0.000730402
1181 8.27262 6.15013 1.51466 0 0 1.00002 0.000697002
344 8.05627 6.89414 0.74058 0 0 1.00002 0.000754879
1178 7.339 6.90107 1.62079 0 0 1.00002 0.00087428
258 7.37251 5.3899 0.0463651 0 0 1.00002 0.00069928
268 9.77189 5.35497 0.804123 0 0 1.00002 0.000431663
343 8.90399 6.22665 0.748483 0 0 1.00002 0.000601944
1102 9.07071 5.36408 1.61636 0 0 1.00002 0.000545072
1185 9.74779 6.22842 1.4909 0 0 1.00002 0.00052769
1182 9.11665 6.99469 1.48717 0 0 1.00002 0.000671058
345 9.76908 6.27027 0.0974318 0 0 1.00002 0.000491794
262 9.01463 5.50136 0.0162285 0 0 1.00002 0.000522563
272 11.3678 5.30452 0.999139 0 0 1.00001 0.00024895
347 10.5777 6.05861 0.976625 0 0 1.00002 0.000393181
349 11.2945 6.40492 0.0798074 0 0 1.00001 0.000321409
346 10.516 6.98149 0.156805 0 0 1.00001 0.000457337
1186 10.4688 6.96821 1.52046 0 0 1.00001 0.000507916
270 11.9672 5.65506 0.186399 0 0 1.00001 0.000191058
276 12.6359 5.84303 0.87194 0 0 1.00001 0.000147526
351 11.7507 6.24184 1.06705 0 0 1.00001 0.000274905
1114 13.2777 5.89141 1.57303 0 0 1.00001 0.000113821
355 13.3053 6.60546 0.821108 0 0 1.00001 0.000134362
274 13.2716 5.56092 0.0439349 0 0 1.00001 5.53085e-05
280 14.0071 5.73444 0.780069 0 0 1.00001 1.53818e-05
1197 14.2696 6.66983 1.4206 0 0 1.00001 8.30704e-05
357 14.0748 6.40346 0.039969 0 0 1.00001 4.38271e-05
278 14.9617 5.65137 0.0367023 0 0 1.00001 -6.1889e-05
359 14.9841 6.46254 0.81148 0 0 1 -1.09932e-06
284 15.7648 5.74194 0.958468 0 0 1 -7.94783e-05
363 16.4242 6.45256 1.14338 0 0 1 -4.65799e-05
1118 15.0453 5.88581 1.70589 0 0 1 -9.45382e-06
282 16.5537 5.418 0.276291 0 0 1 -0.000128702
361 15.6114 6.34598 0.0415554 0 0 1 -5.07626e-05
286 17.7649 5.29376 0.539673 0 0 1 -0.000129775
288 17.0457 5.41976 1.24629 0 0 1 -0.000113754
365 16.9983 6.27045 0.410781 0 0 1 -8.22839e-05
367 17.6007 6.23626 1.3796 0 0 1 -5.51684e-05
372 18.2142 7.03642 1.12896 0 0 1 2.30782e-06
369 18.3134 6.21501 0.608372 0 0 1 -6.21409e-05
290 19.38 5.73477 0.615668 0 0 0.999999 -4.12033e-05
371 19.276 6.53259 1.33718 0 0 1 2.25761e-05
373 19.952 6.722 0.603993 0 0 0.999999 5.82384e-05
294 20.7179 5.74486 0.645732 0 0 0.999999 5.97334e-05
296 20.1498 5.58231 1.38298 0 0 0.999999 2.14934e-05
375 20.7475 6.57762 1.28811 0 0 0.999999 0.000134975
377 21.6409 6.62617 0.658316 0 0 1 0.000205679
300 21.6433 5.84177 1.36694 0 0 0.999999 0.000173758
16260 21.6724 5.69954 0.0519162 0 0 0.999998 0.000142354
298 22.6706 5.79298 0.662699 0 0 1 0.000262775
379 22.6323 6.65187 1.18929 0 0 1 0.000334101
381 23.3612 6.73778 0.264052 0 0 1 0.00040252
304 23.4954 5.84672 1.28065 0 0 1 0.000379362
383 24.3513 6.52354 1.14354 0 0 1 0.000529823
302 24.1682 5.96764 0.419925 0 0 1 0.00044735
306 25.7337 5.82746 0.689827 0 0 1 0.000630312
308 25.1544 6.00087 1.6539 0 0 1 0.000606153
385 25.2044 6.70016 0.486983 0 0 1 0.00062863
387 25.8868 6.55834 1.38898 0 0 1 0.000727288
312 26.7562 5.8139 1.45867 0 0 1.00001 0.000767074
310 27.5713 5.51792 0.713243 0 0 1.00001 0.000806811
389 26.8168 6.3337 0.641254 0 0 1.00001 0.000789267
391 27.7829 6.44096 1.3523 0 0 1.00001 0.000916933
390 27.7958 6.97773 0.522158 0 0 1.00001 0.000938484
316 28.4502 5.49932 1.47083 0 0 1.00001 0.000907086
314 29.4783 5.29275 0.81099 0 0 1.00001 0.000949559
395 29.5356 6.16692 1.31287 0 0 1.00001 0.00103579
394 29.6819 6.88953 0.504183 0 0 1.00001 0.00108398
393 28.5584 6.18408 0.63548 0 0 1.00001 0.000945643
16355 29.47 6.12995 0.0764983 0 0 1.00001 0.00100314
16276 28.565 5.37073 0.0547717 0 0 1.00001 0.000879446
318 31.0645 5.35751 0.592633 0 0 1.00001 0.00103402
320 30.3167 5.44474 1.45703 0 0 1.00001 0.00102905
397 30.4968 6.17138 0.644143 0 0 1.00001 0.00107322
399 31.3254 6.14612 1.38025 0 0 1.00002 0.00112501
398 31.3148 6.94474 0.603556 0 0 1.00002 0.00117016
401 0.381169 7.63302 0.658652 0 0 1.00002 0.00124984
402 0.963143 8.46887 0.614808 0 0 1.00002 0.00132926
403 1.23285 7.86245 1.49777 0 0 1.00002 0.00130843
404 0.484051 8.55739 1.46799 0 0 1.00002 0.00136415
405 1.71305 7.77142 0.376121 0 0 1.00002 0.00126143
408 1.85461 8.62811 1.46895 0 0 1.00002 0.00137329
326 2.595 7.15965 0.476176 0 0 1.00002 0.00119227
406 2.32062 8.6399 0.402108 0 0 1.00002 0.00132903
407 2.51318 7.82424 1.2858 0 0 1.00002 0.00127812
412 3.13729 8.53482 0.945924 0 0 1.00002 0.00131017
409 3.35264 7.78621 0.330769 0 0 1.00002 0.00121737
410 3.92571 8.48242 0.0816689 0 0 1.00002 0.00125069
411 4.08563 7.68478 1.25277 0 0 1.00002 0.00119696
416 4.80409 8.29023 0.938745 0 0 1.00002 0.00119634
413 4.76892 7.66739 0.247151 0 0 1.00002 0.00112487
334 5.62831 7.08149 0.151541 0 0 1.00002 0.0010072
414 5.95583 8.38282 0.175432 0 0 1.00002 0.00109594
415 5.572 7.61881 1.04176 0 0 1.00002 0.00107943
417 6.56214 7.57771 0.172367 0 0 1.00002 0.000965997
420 6.47568 8.26804 1.06156 0 0 1.00002 0.00105886
419 7.34686 7.80705 0.760648 0 0 1.00002 0.000917714
424 8.32867 8.35782 0.887302 0 0 1.00002 0.000863289
1258 7.34428 8.22126 1.72867 0 0 1.00002 0.00100599
1261 8.1012 7.53104 1.58617 0 0 1.00002 0.000847166
421 8.04478 7.64455 0.029258 0 0 1.00002 0.000812285
348 9.85091 7.26185 0.738394 0 0 1.00002 0.000575053
423 8.94209 7.65799 0.67514 0 0 1.00002 0.000717807
428 9.75111 8.66169 0.709781 0 0 1.00001 0.000710467
1262 9.12532 8.74367 1.47606 0 0 1.00002 0.000837945
1265 9.66534 7.93277 1.62889 0 0 1.00001 0.000703371
352 11.2975 7.18008 0.823629 0 0 1.00001 0.000395885
427 10.5741 7.98468 0.860548 0 0 1.00001 0.000553661
1266 10.5923 8.74909 1.45714 0 0 1.00001 0.000654581
1269 11.3907 7.84903 1.62988 0 0 1.00001 0.000483537
429 11.2153 8.15709 0.045488 0 0 1.00001 0.000469922
356 12.669 7.31644 0.576265 0 0 1.00001 0.000245349
431 12.1505 8.2673 0.604095 0 0 1.00001 0.000380977
1190 12.0416 7.19398 1.40021 0 0 1.00001 0.00033606
1270 12.065 8.7187 1.5195 0 0 1.00001 0.000476878
1273 12.8215 8.03057 1.49896 0 0 1.00001 0.000329317
350 11.8715 7.42393 0.000153765 0 0 1.00001 0.000332478
360 14.2748 7.37266 0.594952 0 0 1.00001 0.000104122
435 13.5678 8.11937 0.475041 0 0 1.00001 0.000217288
1194 13.4156 7.36604 1.36089 0 0 1.00001 0.000205341
1277 14.1951 8.20064 1.36866 0 0 1 0.000206766
439 15.0106 8.30567 0.872169 0 0 1 0.000133065
362 16.3675 7.18424 0.280377 0 0 1 -1.80809e-05
364 15.5658 7.3172 0.922852 0 0 1 3.18287e-05
443 16.1968 8.16186 1.11361 0 0 1 7.97052e-05
1198 15.0811 7.53522 1.64009 0 0 1 0.000109649
441 15.798 8.31703 0.154684 0 0 1 7.69796e-05
368 16.9124 7.3555 1.11582 0 0 1 8.0395e-06
445 17.0001 8.09981 0.338122 0 0 1 3.72966e-05
447 17.6447 8.01245 1.02542 0 0 1 5.44111e-05
366 17.7545 7.15583 0.215853 0 0 1 -2.28911e-05
370 18.9543 7.31458 0.636304 0 0 1 3.57183e-05
451 18.8758 8.12932 1.17408 0 0 1 0.000109226
376 19.8301 7.62561 1.3099 0 0 1 0.000135796
453 19.7609 8.11075 0.356607 0 0 1 0.000135078
449 18.3936 8.17139 0.172625 0 0 1 6.26635e-05
374 20.6687 7.42612 0.662407 0 0 1 0.000166287
455 20.6197 8.40252 1.01984 0 0 1 0.000245446
380 21.5272 7.63206 1.13127 0 0 1 0.000281762
457 21.5989 8.3044 0.255026 0 0 1 0.000314634
459 22.5935 8.13533 1.00092 0 0 1 0.000436368
1218 22.4196 7.45602 1.73049 0 0 1 0.000398678
378 22.3343 7.44339 0.379802 0 0 1 0.000334448
384 23.4638 7.27994 1.03668 0 0 1 0.000474369
461 23.5093 8.03352 0.377376 0 0 1 0.000522702
463 24.3834 8.05558 0.982584 0 0 1 0.000650457
1302 24.2967 8.67525 1.65894 0 0 1.00001 0.000732134
382 24.3712 7.28312 0.265631 0 0 1 0.000567561
462 24.3547 8.78096 0.204446 0 0 1.00001 0.000686609
388 25.1673 7.35235 1.23445 0 0 1 0.000700546
467 26.0902 7.96731 0.974567 0 0 1.00001 0.000851747
1306 26.0956 8.58587 1.72859 0 0 1.00001 0.00095152
386 26.1537 7.23825 0.363677 0 0 1.00001 0.00078159
465 25.2823 8.08739 0.303643 0 0 1.00001 0.000746927
466 26.3466 8.54789 0.0881307 0 0 1.00001 0.000912147
468 25.3444 8.81567 0.990923 0 0 1.00001 0.000837696
392 26.861 7.07763 1.32494 0 0 1.00001 0.000877068
470 28.0632 8.47487 0.4195 0 0 1.00001 0.00109062
471 27.893 7.8045 1.19929 0 0 1.00001 0.00103987
472 27.0663 8.62005 1.01054 0 0 1.00001 0.00102143
469 27.0779 7.74885 0.427795 0 0 1.00001 0.000927626
396 28.7487 7.08577 1.21881 0 0 1.00001 0.00105198
474 29.7101 8.34103 0.539076 0 0 1.00001 0.00121163
475 29.6085 7.65871 1.26832 0 0 1.00001 0.00116568
476 28.8887 8.53225 1.17396 0 0 1.00001 0.00118947
473 28.7987 7.69707 0.411746 0 0 1.00001 0.0010874
400 30.4375 7.07712 1.17434 0 0 1.00001 0.00115994
479 31.3703 7.81318 1.29631 0 0 1.00002 0.0012684
480 30.5538 8.4768 1.17924 0 0 1.00002 0.00129025
477 30.7539 7.86155 0.379788 0 0 1.00002 0.00122332
478 31.5519 8.61274 0.390229 0 0 1.00002 0.00131826
482 1.26114 10.2855 0.271819 0 0 1.00002 0.00148186
483 1.1523 9.37395 1.20419 0 0 1.00002 0.00143227
484 0.394458 9.92929 0.898942 0 0 1.00002 0.00146007
481 0.500556 9.33665 0.123561 0 0 1.00002 0.00139516
1322 0.95645 10.1279 1.75354 0 0 1.00002 0.00153249
485 1.88582 9.4585 0.450899 0 0 1.00002 0.00141136
488 1.96553 10.3733 0.973803 0 0 1.00002 0.00150408
486 2.72247 10.2882 0.0816529 0 0 1.00002 0.00145838
487 2.50406 9.45785 1.22709 0 0 1.00002 0.00142573
1326 2.90585 10.2483 1.67889 0 0 1.00002 0.00151376
1329 3.33313 9.25855 1.67229 0 0 1.00002 0.00140682
489 3.19654 9.38355 0.0858015 0 0 1.00002 0.00136582
492 3.50531 10.0553 0.743874 0 0 1.00002 0.00142402
491 4.04776 9.13283 0.86542 0 0 1.00002 0.00131944
493 4.68183 9.21175 0.00722257 0 0 1.00002 0.00127052
496 4.71656 10.0053 0.578105 0 0 1.00002 0.00134863
1330 4.24403 9.99428 1.62984 0 0 1.00002 0.0014296
1333 4.78331 9.09539 1.6659 0 0 1.00002 0.00131448
495 5.4266 8.97969 0.669244 0 0 1.00002 0.0012057
500 6.32805 9.82974 0.525057 0 0 1.00002 0.00120077
1334 5.42253 9.86393 1.18484 0 0 1.00002 0.00130851
1337 6.24136 9.09348 1.27875 0 0 1.00002 0.00117257
1417 6.33388 10.5471 1.20949 0 0 1.00002 0.00129523
499 7.23443 8.91972 0.724931 0 0 1.00002 0.00103296
501 8.14833 9.08815 0.0848701 0 0 1.00002 0.000932442
504 8.02125 9.96589 0.588845 0 0 1.00002 0.00103557
1338 7.25161 9.77781 1.21541 0 0 1.00002 0.00113459
1341 8.10259 9.20905 1.42449 0 0 1.00002 0.00100133
503 8.97926 9.49496 0.742426 0 0 1.00001 0.000886061
508 9.67441 10.3753 0.675561 0 0 1.00001 0.000875221
1342 8.80129 10.3041 1.4371 0 0 1.00001 0.00102468
1345 9.85445 9.63055 1.44154 0 0 1.00001 0.000830413
432 11.3615 8.88554 0.746383 0 0 1.00001 0.000531461
426 10.4103 8.92474 0.0413804 0 0 1.00001 0.000637398
507 10.4744 9.72132 0.670719 0 0 1.00001 0.000715775
1346 10.6455 10.2126 1.66749 0 0 1.00001 0.000805517
1349 11.3021 9.67151 1.34289 0 0 1.00001 0.000645011
436 12.964 8.99114 0.798597 0 0 1.00001 0.000358811
511 12.086 9.84663 0.700456 0 0 1.00001 0.000526584
516 12.7904 10.5043 0.976103 0 0 1 0.000512746
1353 12.5221 9.64989 1.63804 0 0 1.00001 0.00052205
1274 13.6436 8.87254 1.58712 0 0 1 0.000329247
440 14.4119 9.21354 0.768658 0 0 1 0.000241831
515 13.4901 9.70995 0.849011 0 0 1 0.000367278
1354 13.4615 10.4395 1.73181 0 0 1 0.000500043
517 14.2213 10.168 0.220092 0 0 1 0.000314479
444 15.838 9.16398 1.14037 0 0 1 0.000171523
519 15.0757 9.87252 1.02001 0 0 1 0.000259209
521 15.63 10.1867 0.253443 0 0 1 0.000221533
523 16.4454 9.95932 0.964293 0 0 1 0.000202304
442 16.4457 9.0346 0.262422 0 0 1 0.000110156
438 15.2369 9.21574 0.100741 0 0 1 0.000169478
452 18.2458 8.88343 0.939403 0 0 1 0.000128599
448 17.0333 9.06347 1.12739 0 0 1 0.000135665
525 17.0959 10.0212 0.206837 0 0 1 0.000171386
527 17.7203 9.85958 1.069 0 0 1 0.000195998
446 17.7064 9.09862 0.117987 0 0 1 0.000109071
456 19.7864 8.93447 1.05349 0 0 1 0.000221412
529 18.549 9.71873 0.299139 0 0 1 0.000180055
531 19.4682 9.87686 0.845443 0 0 1 0.000258079
532 18.6779 10.4408 1.13834 0 0 1 0.000273066
1369 18.6092 9.57051 1.70045 0 0 1 0.000247069
450 19.1983 8.9418 0.209838 0 0 1 0.00015462
533 19.9595 9.76305 0.0716466 0 0 1 0.000266679
535 20.9168 9.78197 0.744833 0 0 1 0.000369763
1373 20.2237 9.63872 1.65598 0 0 1 0.000353701
454 20.7703 9.05185 0.204005 0 0 1 0.000286688
460 21.6254 9.00426 0.967688 0 0 1 0.000392092
1298 22.4081 8.85381 1.56886 0 0 1 0.000504658
539 22.852 9.65796 0.7949 0 0 1 0.000581899
540 22.1113 10.4957 0.859818 0 0 1.00001 0.00056004
1377 21.927 9.75784 1.52408 0 0 1.00001 0.00052323
1378 23.0663 10.4823 1.43052 0 0 1.00001 0.000716609
458 22.7701 8.83774 0.198456 0 0 1 0.000490391
537 21.9745 9.7785 0.209085 0 0 1 0.000469105
464 23.461 8.93906 0.960554 0 0 1 0.000606275
543 24.5674 9.5353 0.754509 0 0 1.00001 0.000792389
1381 23.733 9.57479 1.54474 0 0 1.00001 0.000735651
1382 24.4396 10.3194 1.44128 0 0 1.00001 0.000880244
544 23.6475 10.5149 0.616067 0 0 1.00001 0.000744985
542 24.4989 10.2973 0.106183 0 0 1.00001 0.000826646
1385 25.1304 9.49083 1.64129 0 0 1.00001 0.000910304
547 26.3059 9.35877 0.869273 0 0 1.00001 0.000994009
548 25.4519 10.2282 0.813357 0 0 1.00001 0.000961564
1386 26.0631 10.2663 1.56038 0 0 1.00001 0.00108868
545 25.67 9.48133 0.172874 0 0 1.00001 0.000911629
1389 26.7464 9.40563 1.71045 0 0 1.00001 0.00110138
550 28.4014 10.1208 0.296113 0 0 1.00001 0.00125999