ITEM: TIMESTEP
6500
ITEM: NUMBER OF ATOMS
32000
ITEM: BOX BOUNDS pp pp pp
0.0000000000000000e+00 3.1748021039364001e+01
0.0000000000000000e+00 3.1748021039364001e+01
0.0000000000000000e+00 3.1748021039364001e+01
ITEM: ATOMS id x y z c_phase c_nbond c_rho vx
4 0.137495 1.10195 0.4654 0 0 1 0.000267667
83 0.994548 1.66864 0.778958 0 0 0.999988 0.000276515
842 0.735858 0.793349 1.41274 0 0 0.999992 0.00027378
921 0.0253093 1.60211 1.37547 0 0 1 0.00027994
3 0.750494 0.0645317 0.617333 0 0 0.999991 0.000264287
8 1.73043 0.811128 1.01568 0 0 0.999976 0.000264948
85 1.82123 1.4769 0.220483 0 0 0.999975 0.000265602
925 1.84282 1.66138 1.76139 0 0 0.999977 0.00028198
6 2.53919 0.7493 0.204135 0 0 0.999964 0.000249426
7 2.60941 0.0546206 1.03821 0 0 0.999963 0.000250578
87 2.66765 1.54234 0.883085 0 0 0.999964 0.000257453
846 2.6886 0.817186 1.7462 0 0 0.999964 0.000260001
12 3.45014 0.93419 0.958391 0 0 0.999953 0.000235944
849 3.51553 0.0923154 1.70811 0 0 0.999953 0.000238475
929 3.62362 1.7096 1.72172 0 0 0.999956 0.00024768
10 4.12175 0.859472 0.325332 0 0 0.999944 0.000213513
16 4.97556 0.568489 1.17526 0 0 0.999938 0.000188255
93 4.93247 1.60218 0.38454 0 0 0.99994 0.000193301
850 4.36054 0.943352 1.63205 0 0 0.999946 0.00021645
9 3.49226 0.110726 0.171816 0 0 0.99995 0.000227371
14 5.65782 0.646463 0.326066 0 0 0.999932 0.000157626
95 5.89395 1.31319 0.940636 0 0 0.999934 0.000154452
97 6.58201 1.39404 0.219025 0 0 0.999931 0.000120495
854 5.79441 0.461307 1.70222 0 0 0.999935 0.000159994
933 5.04341 1.72624 1.43851 0 0 0.999943 0.000196498
20 6.72041 0.3916 0.867536 0 0 0.999928 0.000112037
937 6.69803 1.01195 1.69733 0 0 0.999934 0.000121421
24 8.26802 0.409926 1.07569 0 0 0.99993 3.4344e-05
99 7.37185 1.22561 0.956241 0 0 0.999931 8.30214e-05
101 8.24736 1.39388 0.237532 0 0 0.999931 3.5498e-05
941 8.12966 1.2751 1.61042 0 0 0.999935 4.62321e-05
18 7.58551 0.64948 0.141062 0 0 0.999927 6.77384e-05
22 8.85614 0.509664 0.274505 0 0 0.99993 8.91931e-07
28 9.54804 0.33917 0.891076 0 0 0.999935 -3.57921e-05
103 9.02264 1.31017 1.11546 0 0 0.999935 -4.81799e-06
105 9.63413 1.37724 0.0907955 0 0 0.999937 -4.08026e-05
32 11.2004 0.2164 0.634835 0 0 0.999946 -0.00012279
107 10.3551 1.04994 0.82525 0 0 0.999942 -8.02029e-05
866 10.5136 0.197111 1.4487 0 0 0.999943 -8.80667e-05
949 11.2738 1.02005 1.42082 0 0 0.99995 -0.000129778
946 10.5695 1.68103 1.73334 0 0 0.999949 -9.31717e-05
26 10.2352 0.368518 0.0783825 0 0 0.999938 -7.30778e-05
36 12.859 0.212742 0.638478 0 0 0.999962 -0.000198383
111 12.0299 1.07602 0.508588 0 0 0.999955 -0.00016534
870 12.1163 0.317002 1.30254 0 0 0.999957 -0.000168709
953 12.7022 1.19972 1.37507 0 0 0.999964 -0.000199326
40 14.3527 0.321019 0.768512 0 0 0.99998 -0.000248599
115 13.5722 1.11368 0.845142 0 0 0.999972 -0.00022943
117 14.0206 1.56081 0.166147 0 0 0.999977 -0.00024633
874 13.5888 0.360559 1.63738 0 0 0.999973 -0.000231578
957 14.3567 1.15096 1.47866 0 0 0.999981 -0.000257692
119 14.8553 1.55427 0.66368 0 0 0.999986 -0.000267724
44 15.6851 0.76952 0.788196 0 0 0.999996 -0.000274456
123 16.5301 1.54362 0.68149 0 0 1.00001 -0.000284533
878 15.1204 0.46444 1.64216 0 0 0.99999 -0.000272505
882 16.5245 0.711456 1.34214 0 0 1.00001 -0.000282164
961 15.6104 1.48679 1.39229 0 0 0.999995 -0.000284345
38 15.0829 0.711723 0.0674134 0 0 0.999988 -0.000263564
48 17.2347 0.731377 0.548771 0 0 1.00001 -0.000273414
127 17.9026 1.58012 0.756256 0 0 1.00002 -0.000272333
886 17.8955 0.742622 1.4265 0 0 1.00002 -0.000270742
965 17.1976 1.74747 1.56219 0 0 1.00001 -0.000290485
51 19.5208 0.0160049 0.662205 0 0 1.00004 -0.000220309
52 18.7734 0.724775 0.684451 0 0 1.00003 -0.000245532
131 19.5227 1.55242 0.840511 0 0 1.00004 -0.000227963
889 19.0088 0.157517 1.54347 0 0 1.00003 -0.0002435
890 19.5767 0.966063 1.68778 0 0 1.00004 -0.000227722
969 18.6382 1.51033 1.49868 0 0 1.00003 -0.000260179
55 21.0795 0.349148 1.06563 0 0 1.00006 -0.000159366
56 20.2347 0.77525 0.977907 0 0 1.00005 -0.000196455
135 21.0944 1.65286 0.950502 0 0 1.00005 -0.000160671
54 21.1763 0.764212 0.218086 0 0 1.00006 -0.000153198
133 20.3316 1.51196 0.194104 0 0 1.00005 -0.000194117
57 22.0015 0.262373 0.538568 0 0 1.00006 -0.000113067
59 22.7872 0.429138 1.40428 0 0 1.00007 -7.29019e-05
60 22.1034 1.14537 1.32718 0 0 1.00006 -0.00010918
137 21.9902 1.59642 0.536783 0 0 1.00006 -0.000114999
58 22.9118 1.07165 0.444722 0 0 1.00007 -6.51967e-05
63 24.2303 0.379211 1.4485 0 0 1.00007 7.55587e-06
61 23.5661 0.356542 0.572578 0 0 1.00007 -3.01614e-05
62 24.4392 1.18398 0.753059 0 0 1.00007 1.84184e-05
64 23.4745 1.24673 1.39964 0 0 1.00007 -3.29867e-05
65 24.9598 0.314987 0.550732 0 0 1.00008 4.44674e-05
67 26.017 0.382225 1.16938 0 0 1.00007 9.88234e-05
68 25.1746 1.12337 1.4774 0 0 1.00007 6.1156e-05
147 25.9389 1.73155 1.35497 0 0 1.00007 0.00010402
66 25.9 0.927885 0.430922 0 0 1.00007 9.28204e-05
70 27.5878 1.27872 0.388133 0 0 1.00006 0.000170948
71 27.6281 0.50808 0.873082 0 0 1.00006 0.00016965
72 26.7671 1.02636 1.26092 0 0 1.00007 0.000138147
913 28.3922 0.337744 1.39808 0 0 1.00005 0.000200602
69 26.8037 0.23999 0.22658 0 0 1.00007 0.000131799
76 28.6661 1.24007 0.740509 0 0 1.00005 0.000210331
914 29.4082 0.946546 1.56759 0 0 1.00004 0.000236561
993 28.5394 1.71769 1.49653 0 0 1.00005 0.000217097
917 29.8338 0.17261 1.4599 0 0 1.00003 0.000242383
75 29.2914 0.354459 0.614874 0 0 1.00004 0.000222393
841 31.6087 0.266536 1.25684 0 0 1.00001 0.000266819
79 30.7232 0.488343 0.471772 0 0 1.00002 0.000252333
80 30.1195 1.19805 0.773603 0 0 1.00003 0.000248463
918 30.885 0.971539 1.3934 0 0 1.00002 0.000264703
82 1.13174 2.43713 0.128567 0 0 0.999987 0.000286037
84 0.155138 2.38234 0.81187 0 0 1 0.000287742
163 1.30969 3.2382 0.949199 0 0 0.999987 0.000307599
922 1.1612 2.36237 1.59205 0 0 0.999988 0.000296705
1001 0.408729 3.03149 1.54969 0 0 0.999999 0.000311962
161 0.354058 3.09716 0.131363 0 0 0.999999 0.000300632
88 1.93054 2.41993 0.784613 0 0 0.999976 0.000281971
167 2.67788 3.28316 0.861544 0 0 0.999971 0.000289929
926 2.68924 2.23234 1.53618 0 0 0.999968 0.00027477
1009 3.27741 3.42956 1.652 0 0 0.999968 0.000290313
86 2.74457 2.3842 0.0558006 0 0 0.999965 0.000265504
92 3.39981 2.55749 0.780917 0 0 0.99996 0.000256891
91 4.02284 1.84306 0.712556 0 0 0.999949 0.000226859
96 4.92688 2.57641 0.817556 0 0 0.999947 0.000208604
171 4.2176 3.32195 0.751088 0 0 0.999957 0.000248123
930 4.14963 2.64485 1.58544 0 0 0.999955 0.000245247
94 5.66138 2.44723 0.133532 0 0 0.999941 0.00017223
100 6.5654 2.18507 0.774794 0 0 0.999936 0.00012998
175 5.6605 3.20153 0.955065 0 0 0.999948 0.000188878
934 5.87146 2.19903 1.49962 0 0 0.999942 0.000169585
1017 6.52926 3.07295 1.55914 0 0 0.999947 0.000149674
177 6.65747 2.93383 0.134605 0 0 0.999941 0.00013184
98 7.45782 2.23046 0.140337 0 0 0.999935 8.28873e-05
104 8.0835 2.20676 0.932965 0 0 0.999937 5.04067e-05
179 7.40577 3.07433 0.936303 0 0 0.999944 9.722e-05
938 7.30401 2.06492 1.57228 0 0 0.999938 9.66174e-05
1021 8.18656 3.00828 1.65654 0 0 0.999947 5.53024e-05
181 8.2699 2.97721 0.0396582 0 0 0.999942 4.27765e-05
102 8.90171 2.09168 0.25321 0 0 0.999937 1.58078e-06
108 9.76645 2.02873 1.11223 0 0 0.999943 -4.6625e-05
183 8.92407 2.97879 0.931545 0 0 0.999946 5.66889e-06
942 9.02758 2.22573 1.70843 0 0 0.999944 -9.94441e-07
185 9.55581 2.91169 0.213612 0 0 0.999947 -3.50795e-05
106 10.275 2.11777 0.214605 0 0 0.999945 -7.74801e-05
112 11.1465 1.83002 0.773034 0 0 0.999951 -0.000124647
187 10.6114 2.81342 0.923827 0 0 0.999953 -9.8374e-05
1029 11.4303 2.83529 1.5793 0 0 0.999961 -0.000145537
116 12.6566 1.94397 0.59553 0 0 0.999964 -0.000199856
191 11.9129 2.64598 0.743593 0 0 0.999961 -0.000170404
950 11.9094 1.92369 1.46842 0 0 0.999959 -0.000166762
1033 12.8261 3.02205 1.69022 0 0 0.999973 -0.00022279
195 13.1622 3.03264 0.8489 0 0 0.999974 -0.00023486
954 13.3595 1.99384 1.48281 0 0 0.999973 -0.00023365
120 13.9998 2.44693 0.927237 0 0 0.999979 -0.000258308
1037 14.0059 3.38729 1.55878 0 0 0.999983 -0.000277123
199 14.6736 3.43876 0.88449 0 0 0.999988 -0.000295429
958 14.762 2.29969 1.44746 0 0 0.999987 -0.000281039
118 14.8195 2.51553 0.137056 0 0 0.999987 -0.000279373
197 14.1367 3.22766 0.0339753 0 0 0.999982 -0.00027261
114 13.3945 2.29727 0.0588534 0 0 0.999972 -0.000232656
124 15.6758 2.44303 0.693985 0 0 0.999995 -0.000293351
203 16.2804 3.20037 0.66401 0 0 1 -0.000311763
962 16.2849 2.47865 1.52538 0 0 1 -0.000304505
1041 15.3472 3.25799 1.5029 0 0 0.999993 -0.000309905
201 15.5468 3.25922 0.0204881 0 0 0.999994 -0.000305825
128 17.043 2.35012 0.682599 0 0 1.00001 -0.000293552
207 17.9225 2.92434 0.699562 0 0 1.00002 -0.000290527
966 17.9975 2.43652 1.58055 0 0 1.00002 -0.000287559
1045 17.0681 3.11427 1.49475 0 0 1.00001 -0.000313001
132 18.8718 2.35496 1.01199 0 0 1.00003 -0.000259408
211 19.684 3.23696 1.2753 0 0 1.00003 -0.000242577
209 18.8642 2.99291 0.195016 0 0 1.00003 -0.000265238
130 19.5707 2.33796 0.101749 0 0 1.00004 -0.000231382
973 20.3103 1.78454 1.72219 0 0 1.00004 -0.000202584
134 21.1458 2.4124 0.457018 0 0 1.00005 -0.000161847
136 20.1799 2.46385 1.1118 0 0 1.00004 -0.000210421
215 21.2987 3.28887 1.38896 0 0 1.00004 -0.000160062
213 20.4073 2.98889 0.333677 0 0 1.00004 -0.000201909
139 22.8681 2.0648 1.50567 0 0 1.00006 -6.79201e-05
138 22.9678 2.59659 0.733537 0 0 1.00006 -6.10025e-05
140 22.0878 2.49376 1.23507 0 0 1.00005 -0.000110889
217 21.981 3.19421 0.597592 0 0 1.00005 -0.000118174
16179 22.6728 3.39415 0.0749023 0 0 1.00005 -7.73745e-05
141 23.7434 1.80451 0.622559 0 0 1.00007 -1.74133e-05
143 24.4315 1.9831 1.60693 0 0 1.00006 2.53897e-05
142 24.3445 2.67727 0.773191 0 0 1.00006 2.15591e-05
144 23.6881 2.8962 1.53233 0 0 1.00006 -1.35774e-05
223 24.4763 3.50339 1.5528 0 0 1.00005 4.11182e-05
16108 24.9611 2.83948 0.0146466 0 0 1.00006 5.82234e-05
149 26.5593 1.79091 0.510409 0 0 1.00007 0.000131271
145 25.1378 1.85225 0.50864 0 0 1.00007 5.96252e-05
146 25.8004 2.60685 0.705645 0 0 1.00006 0.000102622
148 25.1643 2.55056 1.52163 0 0 1.00006 7.08478e-05
227 25.7301 3.49124 1.50875 0 0 1.00005 0.000117257
152 26.5476 2.55585 1.52723 0 0 1.00006 0.000146423
229 26.1797 3.49472 0.597162 0 0 1.00005 0.0001361
151 27.5179 1.98241 1.23534 0 0 1.00006 0.000180504
153 28.2655 2.08772 0.343309 0 0 1.00005 0.000205701
150 27.1 2.68809 0.643441 0 0 1.00006 0.000168453
231 27.2149 3.34864 1.41373 0 0 1.00005 0.000192514
156 28.2703 2.75413 1.20385 0 0 1.00005 0.00022231
233 27.9983 3.21614 0.326769 0 0 1.00005 0.000214796
997 29.9775 1.80747 1.70631 0 0 1.00003 0.000262318
155 29.466 2.0434 0.879626 0 0 1.00004 0.000244617
154 29.2139 2.65818 0.289747 0 0 1.00004 0.000245412
235 29.2697 3.26114 1.17351 0 0 1.00003 0.000266618
159 30.932 1.98358 0.923859 0 0 1.00002 0.000273385
160 30.2022 2.70932 1.00116 0 0 1.00002 0.000275083
239 31.0469 3.35006 0.971628 0 0 1.00001 0.000303893
998 31.008 2.69373 1.72605 0 0 1.00001 0.000297811
237 30.1315 3.25535 0.134381 0 0 1.00002 0.000281117
157 30.4309 1.90765 0.026562 0 0 1.00002 0.00026003
158 31.1643 2.6627 0.0761686 0 0 1.00001 0.00028441
164 0.317092 3.7847 0.919037 0 0 1 0.000323338
241 0.166795 4.5957 0.481155 0 0 1 0.000344886
243 1.16304 4.672 0.987437 0 0 0.999993 0.000351582
244 0.114264 5.26691 1.27726 0 0 1 0.000378538
162 1.06359 3.8644 0.061212 0 0 0.999991 0.000320177
168 1.8645 4.04783 0.848095 0 0 0.999984 0.000323947
247 2.56217 4.85986 1.13772 0 0 0.999983 0.000342862
166 2.67031 4.14806 0.206656 0 0 0.999976 0.000309215
245 1.9206 4.97074 0.279258 0 0 0.999988 0.000349196
249 3.42798 4.86655 0.162225 0 0 0.999976 0.000312515
172 3.51241 4.08124 0.88751 0 0 0.999969 0.000290844
176 4.92735 4.00678 1.18506 0 0 0.99996 0.000241675
251 4.0661 4.88611 1.14918 0 0 0.999974 0.000300922
170 4.27662 4.18989 0.148999 0 0 0.999964 0.000264442
253 5.02451 4.7472 0.341424 0 0 0.999966 0.000250329
174 5.78774 3.94454 0.198763 0 0 0.999954 0.000193054
180 6.49845 3.77343 0.774945 0 0 0.999951 0.000156696
255 5.69404 4.74352 1.02851 0 0 0.999966 0.000223027
1097 6.67211 4.52065 1.64835 0 0 0.999964 0.000172689
260 6.68904 5.14114 0.887901 0 0 0.999969 0.000176595
184 8.19938 3.89957 0.703431 0 0 0.999953 5.72e-05
259 7.41328 4.46932 0.549093 0 0 0.999959 0.000114199
1018 7.40404 3.87819 1.50164 0 0 0.999955 0.000113883
1101 8.20159 4.62061 1.49199 0 0 0.999965 7.27129e-05
188 9.89039 3.58549 0.888638 0 0 0.999956 -5.34917e-05
263 9.07569 4.57476 0.824534 0 0 0.999964 5.90738e-06
265 9.8552 4.51238 0.127291 0 0 0.999965 -5.13068e-05
1022 9.07456 3.77092 1.50313 0 0 0.999957 3.62263e-06
1105 9.86204 4.3558 1.66124 0 0 0.999967 -4.52361e-05
182 8.98265 3.87583 0.0635705 0 0 0.999954 4.70169e-06
192 11.394 3.6512 0.781865 0 0 0.999964 -0.000148709
267 10.578 4.67453 0.909675 0 0 0.999971 -0.000100068
269 11.372 4.7019 0.230976 0 0 0.999973 -0.000154713
1026 10.695 3.57469 1.59285 0 0 0.999962 -0.000104312
1109 11.3503 4.38122 1.71037 0 0 0.999973 -0.000149301
272 11.3745 5.28181 0.98881 0 0 0.99998 -0.000156182
186 10.5727 3.85573 0.176652 0 0 0.999961 -9.98868e-05
196 12.4971 3.58435 0.816512 0 0 0.999971 -0.000209549
271 12.1729 4.55742 1.00296 0 0 0.999977 -0.000203833
1113 12.7176 5.00331 1.69354 0 0 0.999984 -0.000241281
275 13.2042 4.68606 0.8022 0 0 0.999983 -0.000262012
273 12.6226 4.6249 0.0630125 0 0 0.999979 -0.000230081
200 13.9672 4.13122 0.697865 0 0 0.999984 -0.00028579
1034 13.4616 4.22312 1.59621 0 0 0.999983 -0.000269385
1117 14.1782 5.12173 1.5234 0 0 0.99999 -0.000316259
279 14.9146 5.01406 0.812675 0 0 0.999992 -0.000336893
1038 14.9396 4.41779 1.59569 0 0 0.999992 -0.000327283
277 14.1161 4.90888 0.0617685 0 0 0.999988 -0.000306942
198 14.9362 4.19524 0.0978103 0 0 0.999991 -0.000315794
204 15.6428 4.06687 0.925953 0 0 0.999995 -0.000328389
281 15.8523 4.77536 0.186732 0 0 0.999997 -0.000345972
283 16.5676 4.57938 0.900107 0 0 1 -0.000344959
1042 16.2933 3.95838 1.68981 0 0 1 -0.000336222
1121 15.7837 5.05227 1.64174 0 0 0.999996 -0.000358221
208 17.2452 3.83127 0.810575 0 0 1.00001 -0.000321706
287 18.0619 4.48424 1.09634 0 0 1.00001 -0.000321965
1046 17.9293 3.63502 1.6542 0 0 1.00001 -0.000310612
285 17.4304 4.57432 0.0154289 0 0 1.00001 -0.000334559
206 18.1127 3.85069 0.0592918 0 0 1.00001 -0.000303187
212 18.8561 3.70252 0.949403 0 0 1.00002 -0.000280251
289 18.8016 4.60437 0.360994 0 0 1.00001 -0.000297719
291 19.6699 4.67094 1.07996 0 0 1.00002 -0.000263153
292 18.7616 5.27075 1.19823 0 0 1.00001 -0.000315124
210 19.5801 3.76162 0.22776 0 0 1.00003 -0.000249907
216 20.4227 3.81529 1.23059 0 0 1.00003 -0.000212858
295 20.8698 4.70995 1.38973 0 0 1.00002 -0.000195133
297 21.5675 4.94214 0.807043 0 0 1.00003 -0.000150326
214 21.0706 3.92453 0.511044 0 0 1.00004 -0.000176046
293 20.1178 4.77819 0.350645 0 0 1.00002 -0.000238397
219 22.8163 3.62362 1.41696 0 0 1.00005 -6.62073e-05
220 21.9315 4.12476 1.30676 0 0 1.00004 -0.000123649
299 22.4643 5.1661 1.26865 0 0 1.00003 -8.61644e-05
218 22.607 4.33828 0.509143 0 0 1.00004 -7.94409e-05
221 23.5728 3.63115 0.780165 0 0 1.00005 -1.88806e-05
222 24.3389 4.31223 0.623048 0 0 1.00004 3.66487e-05
224 23.4665 4.53962 1.32932 0 0 1.00004 -1.69343e-05
305 24.8581 5.24684 0.564538 0 0 1.00003 8.616e-05
301 23.5509 5.05413 0.531405 0 0 1.00003 -1.02305e-05
228 25.0154 4.49081 1.61793 0 0 1.00004 9.19913e-05
303 24.3665 5.27795 1.42851 0 0 1.00003 5.82293e-05
225 25.069 3.67226 0.799379 0 0 1.00005 7.58754e-05
307 25.701 5.12947 1.33869 0 0 1.00003 0.000146552
232 26.3699 4.28258 1.36819 0 0 1.00004 0.00016849
309 26.516 4.96465 0.638941 0 0 1.00004 0.000185694
226 25.5373 4.39298 0.38759 0 0 1.00004 0.000113616
311 27.3468 4.8623 1.40207 0 0 1.00003 0.000236143
236 27.9795 3.97056 1.1022 0 0 1.00004 0.000236646
313 28.2962 4.72953 0.70459 0 0 1.00003 0.000267629
230 27.0815 4.0364 0.569589 0 0 1.00004 0.000192862
234 28.9513 3.76692 0.485349 0 0 1.00003 0.00026308
315 29.108 4.51836 1.3282 0 0 1.00003 0.00029838
240 30.0193 4.06713 1.02322 0 0 1.00002 0.00030628
238 31.0523 3.97415 0.371501 0 0 1.00001 0.00031742
317 30.228 4.67686 0.488761 0 0 1.00002 0.000325992
319 31.0023 4.59884 1.40847 0 0 1.00001 0.000348034
242 0.933954 5.53269 0.461953 0 0 0.999997 0.000379323
248 1.55715 5.51411 1.3805 0 0 0.999994 0.000387486
323 0.821551 6.21963 1.27732 0 0 1 0.000418768
324 0.28464 6.91899 1.50688 0 0 1 0.000454674
322 0.998363 6.9462 0.573133 0 0 1 0.000439403
328 1.73302 7.03164 1.24036 0 0 1 0.000447562
325 1.92014 6.20292 0.518667 0 0 0.999995 0.000397072
252 3.12873 5.62364 1.30242 0 0 0.999986 0.000360103
327 2.29006 6.15835 1.41231 0 0 0.999994 0.000402949
332 3.27855 6.96906 1.13183 0 0 0.999998 0.000408077
246 2.70506 5.61607 0.274128 0 0 0.999987 0.000358165
329 3.41801 6.28685 0.500797 0 0 0.99999 0.000364809
250 4.20908 5.46913 0.326726 0 0 0.999978 0.000306146
256 4.95139 5.43702 1.32043 0 0 0.999977 0.000285108
331 4.15571 6.10335 1.23138 0 0 0.999987 0.000342157
333 4.84372 6.2419 0.334706 0 0 0.999986 0.000305169
336 4.79269 6.80937 1.16384 0 0 0.999995 0.000339327
330 4.02424 7.03132 0.223215 0 0 0.999997 0.000371302
254 5.79751 5.4293 0.302769 0 0 0.999973 0.000230014
335 5.70725 6.25212 0.966597 0 0 0.999986 0.000267958
1177 6.46967 5.99522 1.60315 0 0 0.999984 0.000225123
340 6.44468 6.8806 1.01311 0 0 0.999995 0.000242804
337 6.38992 6.0525 0.155111 0 0 0.999981 0.000212015
264 8.21479 5.32452 0.697534 0 0 0.999972 7.59293e-05
339 7.33374 6.16969 0.757901 0 0 0.999984 0.000156895
1098 7.39796 5.42867 1.49759 0 0 0.999976 0.000144953
1181 8.24033 6.12243 1.49888 0 0 0.999986 9.90958e-05
344 8.01715 6.86593 0.732822 0 0 0.999995 0.000120001
1178 7.28991 6.87559 1.60404 0 0 0.999998 0.000195871
258 7.33592 5.36729 0.046341 0 0 0.999971 0.000134193
268 9.76117 5.33003 0.796183 0 0 0.999976 -3.88174e-05
343 8.87852 6.20014 0.740604 0 0 0.999985 3.97497e-05
1102 9.05102 5.33831 1.60338 0 0 0.999976 2.4463e-05
1185 9.73159 6.20201 1.47484 0 0 0.99999 -2.22944e-05
1182 9.09013 6.96375 1.47088 0 0 1 4.42246e-05
345 9.75594 6.24346 0.0951729 0 0 0.999988 -3.49365e-05
262 8.99474 5.47571 0.0137558 0 0 0.999974 1.73504e-05
347 10.5722 6.03288 0.968141 0 0 0.999987 -9.80177e-05
349 11.2975 6.38112 0.0782251 0 0 0.999991 -0.000158196
346 10.5075 6.95352 0.155199 0 0 0.999998 -9.55897e-05
1186 10.4572 6.93864 1.50396 0 0 1 -7.6392e-05
270 11.9808 5.63516 0.184049 0 0 0.999985 -0.000204238
276 12.6542 5.82506 0.864792 0 0 0.999989 -0.000248839
351 11.7591 6.21758 1.05724 0 0 0.999991 -0.000189811
1114 13.2986 5.87354 1.56059 0 0 0.999992 -0.00028695
355 13.3263 6.58874 0.815439 0 0 0.999995 -0.000302725
274 13.2974 5.54483 0.0428132 0 0 0.999988 -0.000282593
280 14.0362 5.72076 0.774824 0 0 0.999991 -0.000322022
1197 14.298 6.65634 1.41082 0 0 0.999996 -0.000352408
357 14.1035 6.38972 0.0385422 0 0 0.999994 -0.000339868
278 14.9992 5.64489 0.0351441 0 0 0.999994 -0.000353671
359 15.0176 6.45352 0.807802 0 0 0.999995 -0.000375406
284 15.8019 5.73826 0.957557 0 0 0.999996 -0.000373437
363 16.4606 6.45162 1.14084 0 0 0.999996 -0.000395581
1118 15.0775 5.87779 1.69981 0 0 0.999995 -0.000363876
282 16.5927 5.4181 0.276313 0 0 0.999999 -0.000365552
361 15.6468 6.33991 0.0398598 0 0 0.999996 -0.000386132
286 17.802 5.29856 0.540541 0 0 1 -0.000346332
288 17.0848 5.42251 1.24664 0 0 1 -0.000365594
365 17.0343 6.27232 0.410841 0 0 0.999997 -0.000386552
367 17.6362 6.24242 1.38258 0 0 0.999998 -0.000375116
372 18.2459 7.04621 1.13055 0 0 0.999994 -0.000373894
369 18.3462 6.22564 0.609148 0 0 1 -0.000351052
290 19.4081 5.75036 0.618621 0 0 1.00001 -0.000293391
371 19.3035 6.54898 1.34532 0 0 0.999999 -0.000313112
373 19.9739 6.74212 0.607838 0 0 0.999998 -0.000275251
294 20.7346 5.76594 0.650782 0 0 1.00001 -0.000212521
296 20.1736 5.60136 1.39109 0 0 1.00001 -0.000247791
375 20.7619 6.60105 1.29802 0 0 1 -0.0002152
377 21.6474 6.65111 0.663719 0 0 1 -0.000149615
300 21.6514 5.86693 1.3789 0 0 1.00001 -0.000145085
16260 21.6803 5.72237 0.0518268 0 0 1.00002 -0.000145559
298 22.6679 5.81733 0.670308 0 0 1.00002 -7.0097e-05
379 22.6261 6.68049 1.20126 0 0 1 -6.32917e-05
381 23.347 6.76768 0.266533 0 0 1.00001 -9.27276e-06
304 23.4815 5.8734 1.29392 0 0 1.00002 -1.17876e-06
383 24.3242 6.55111 1.15344 0 0 1.00001 7.64616e-05
302 24.1483 5.99532 0.425235 0 0 1.00002 4.54065e-05
306 25.6942 5.85222 0.697622 0 0 1.00002 0.000156989
308 25.1205 6.02944 1.67016 0 0 1.00002 0.000133781
385 25.1682 6.72965 0.492604 0 0 1.00001 0.00013872
387 25.8387 6.58411 1.40195 0 0 1.00001 0.000197376
312 26.7058 5.83632 1.47109 0 0 1.00002 0.000231885
310 27.5149 5.53638 0.719634 0 0 1.00003 0.000257066
389 26.7646 6.35669 0.648797 0 0 1.00002 0.000240136
391 27.7211 6.4643 1.36159 0 0 1.00001 0.000308878
316 28.386 5.51594 1.48258 0 0 1.00002 0.000308412
390 27.7307 6.99923 0.527894 0 0 1.00001 0.00031667
314 29.4114 5.30477 0.816555 0 0 1.00002 0.000328043
395 29.4624 6.17825 1.31963 0 0 1.00001 0.000371066
394 29.6043 6.89584 0.50597 0 0 1.00001 0.000393132
393 28.4909 6.20004 0.637742 0 0 1.00002 0.000325162
16355 29.3996 6.14753 0.0790589 0 0 1.00001 0.000353772
16276 28.5029 5.38472 0.0580478 0 0 1.00002 0.000294227
318 30.989 5.36582 0.594499 0 0 1.00001 0.000364958
320 30.2414 5.45585 1.46524 0 0 1.00001 0.0003664
397 30.4212 6.17986 0.648344 0 0 1.00001 0.000386914
399 31.2457 6.1532 1.38352 0 0 1.00001 0.000411641
398 31.2284 6.95211 0.603561 0 0 1 0.000433386
321 31.7507 5.99648 0.446809 0 0 1 0.000395851
401 0.291507 7.63283 0.661261 0 0 1 0.000470725
402 0.863775 8.46563 0.618453 0 0 1.00001 0.000508873
403 1.14182 7.86441 1.4979 0 0 1.00001 0.000499578
404 0.388554 8.56196 1.47025 0 0 1.00001 0.000533204
405 1.62215 7.76739 0.373121 0 0 1 0.000468246
408 1.75583 8.62132 1.46659 0 0 1.00001 0.000528758
326 2.51356 7.15355 0.476536 0 0 1 0.000426229
406 2.223 8.63628 0.400649 0 0 1.00001 0.000498013
407 2.42277 7.81561 1.28022 0 0 1.00001 0.000472892
412 3.04276 8.52107 0.93886 0 0 1.00001 0.00048088
409 3.26954 7.7763 0.328241 0 0 1.00001 0.00043034
410 3.83841 8.46656 0.0822044 0 0 1.00001 0.000437723
411 4.00384 7.67531 1.25066 0 0 1.00001 0.000413383
416 4.72614 8.26693 0.927042 0 0 1.00001 0.000397545
413 4.69191 7.64634 0.24788 0 0 1 0.00036458
334 5.56568 7.06138 0.148423 0 0 0.999997 0.000294666
414 5.88631 8.35895 0.171538 0 0 1.00002 0.000321088
415 5.5017 7.59975 1.03578 0 0 1.00001 0.000329102
417 6.50547 7.54997 0.170287 0 0 1 0.000250146
420 6.4109 8.24923 1.04973 0 0 1.00002 0.000291898
419 7.29435 7.78104 0.750965 0 0 1.00001 0.000203798
424 8.28778 8.32723 0.874867 0 0 1.00002 0.00013518
1258 7.28773 8.19582 1.71092 0 0 1.00002 0.000241919
1261 8.05628 7.50127 1.56903 0 0 1.00001 0.000150833
421 8.00278 7.61569 0.0286379 0 0 1.00001 0.000133533
348 9.83458 7.23408 0.728267 0 0 1 -2.91037e-05
423 8.91039 7.62901 0.66611 0 0 1.00001 5.89625e-05
428 9.725 8.63256 0.698666 0 0 1.00002 -2.07152e-06
1262 9.08952 8.71301 1.45544 0 0 1.00003 8.32133e-05
1265 9.63522 7.90283 1.6101 0 0 1.00001 1.63931e-05
352 11.2985 7.15395 0.814678 0 0 1 -0.00015801
427 10.5607 7.95719 0.849584 0 0 1.00001 -8.81505e-05
1266 10.5742 8.71672 1.43612 0 0 1.00002 -6.9954e-05
1269 11.3869 7.81879 1.61172 0 0 1.00001 -0.000153611
429 11.2104 8.1301 0.0433125 0 0 1.00001 -0.000157325
356 12.6828 7.29338 0.569182 0 0 1 -0.000271703
431 12.1555 8.24436 0.595148 0 0 1.00001 -0.000237597
1190 12.045 7.16876 1.38498 0 0 1 -0.000214965
1270 12.0649 8.69218 1.50012 0 0 1.00002 -0.000216179
1273 12.8329 8.00646 1.48327 0 0 1.00001 -0.00028058
360 14.3047 7.359 0.586474 0 0 0.999999 -0.000370664
435 13.5877 8.10064 0.468215 0 0 1 -0.000346002
1194 13.4325 7.34743 1.34777 0 0 1 -0.000319328
1277 14.2161 8.18726 1.35739 0 0 1 -0.000376881
362 16.4023 7.18362 0.278058 0 0 0.999995 -0.000416108
364 15.5972 7.31184 0.921608 0 0 0.999996 -0.000410871
439 15.037 8.29565 0.86708 0 0 0.999999 -0.000418996
443 16.227 8.15971 1.11139 0 0 0.999993 -0.0004368
1198 15.1107 7.52545 1.62997 0 0 0.999998 -0.000399982
441 15.8313 8.31408 0.153089 0 0 0.999995 -0.000441862
368 16.9457 7.35892 1.11573 0 0 0.999993 -0.000416368
445 17.0343 8.10238 0.339689 0 0 0.99999 -0.000435128
447 17.6736 8.01936 1.02617 0 0 0.999988 -0.000414418
366 17.7877 7.16223 0.214159 0 0 0.999993 -0.000394038
370 18.9803 7.32994 0.640881 0 0 0.999991 -0.000345392
451 18.9 8.14464 1.18112 0 0 0.999984 -0.000360875
376 19.8487 7.64651 1.3205 0 0 0.999987 -0.000292542
453 19.7805 8.13115 0.358971 0 0 0.999983 -0.000307506
449 18.4209 8.1832 0.170528 0 0 0.999985 -0.000391303
374 20.6816 7.44941 0.669198 0 0 0.999991 -0.000231411
455 20.6283 8.42769 1.03031 0 0 0.999978 -0.000238427
380 21.5289 7.65982 1.14362 0 0 0.999988 -0.000155815
457 21.5993 8.33176 0.257325 0 0 0.999979 -0.000155732
459 22.5808 8.1649 1.01405 0 0 0.999981 -5.5612e-05
1218 22.4101 7.48696 1.74981 0 0 0.999989 -6.68109e-05
378 22.3291 7.47182 0.38408 0 0 0.999993 -9.15543e-05
384 23.4444 7.30917 1.04652 0 0 0.999996 1.25843e-05
461 23.4879 8.06273 0.38378 0 0 0.999985 2.25049e-05
463 24.3491 8.08803 0.996317 0 0 0.999986 0.000109684
1302 24.2578 8.7048 1.67842 0 0 0.999974 0.000135048
382 24.3436 7.31298 0.267996 0 0 0.999999 8.33456e-05
462 24.3193 8.81297 0.207883 0 0 0.999975 0.000114473
388 25.126 7.38237 1.249 0 0 0.999999 0.000163512
467 26.0354 7.99462 0.984395 0 0 0.999992 0.000248153
1306 26.0348 8.61591 1.74876 0 0 0.99998 0.000294416
386 26.1056 7.26724 0.366698 0 0 1 0.000222041
465 25.2392 8.11944 0.306369 0 0 0.999988 0.000179322
466 26.2893 8.57477 0.088782 0 0 0.999985 0.000277376
392 26.8012 7.10204 1.33828 0 0 1.00001 0.000278773
470 27.9883 8.49655 0.426816 0 0 0.999992 0.000388538
471 27.8195 7.82895 1.21052 0 0 0.999998 0.000365453
472 26.9972 8.64506 1.02119 0 0 0.999985 0.000343169
469 27.0154 7.77368 0.432596 0 0 0.999997 0.000300957
396 28.6755 7.10589 1.22726 0 0 1.00001 0.000377709
474 29.6231 8.35024 0.543063 0 0 0.999998 0.000456823
475 29.5254 7.67307 1.27442 0 0 1 0.00043547
476 28.8067 8.55174 1.1828 0 0 0.999993 0.000445106
473 28.7208 7.71295 0.414862 0 0 1 0.000393011
400 30.3532 7.08829 1.17839 0 0 1.00001 0.000431896
479 31.2804 7.82197 1.30055 0 0 1 0.00048576
480 30.4609 8.48826 1.18295 0 0 0.999999 0.000498908
477 30.6661 7.8704 0.379972 0 0 1 0.000462208
478 31.4565 8.62107 0.390628 0 0 1 0.000508757
482 1.15465 10.2853 0.273818 0 0 1.00001 0.000586975
483 1.04749 9.37751 1.20634 0 0 1.00001 0.000564654
484 0.287929 9.92991 0.898702 0 0 1.00001 0.000582318
481 0.400556 9.33642 0.12291 0 0 1.00001 0.000545521
1322 0.845694 10.1279 1.75358 0 0 1.00001 0.000623076
485 1.78756 9.44989 0.452289 0 0 1.00001 0.000544629
488 1.85864 10.3752 0.971408 0 0 1.00002 0.000594787
486 2.62224 10.2803 0.0844864 0 0 1.00003 0.000558765
487 2.40486 9.45036 1.22483 0 0 1.00002 0.000548934
1326 2.80173 10.2394 1.66923 0 0 1.00003 0.00059359
1329 3.22947 9.24401 1.65856 0 0 1.00002 0.000531781
489 3.10096 9.37538 0.0813886 0 0 1.00002 0.000505829
492 3.40656 10.0406 0.734082 0 0 1.00003 0.00053166
491 3.95742 9.11663 0.857481 0 0 1.00002 0.000471051
493 4.5988 9.18962 0.00742676 0 0 1.00002 0.000431684
496 4.62961 9.98552 0.573186 0 0 1.00004 0.000469353
1330 4.14706 9.97903 1.62235 0 0 1.00003 0.000528318
1333 4.69612 9.07634 1.65461 0 0 1.00003 0.000459504
495 5.34894 8.95453 0.662376 0 0 1.00002 0.000385124
500 6.25509 9.804 0.516029 0 0 1.00004 0.000351203
1334 5.33307 9.84134 1.16622 0 0 1.00004 0.000434899
1337 6.16821 9.06351 1.26262 0 0 1.00003 0.000348109
1417 6.25258 10.521 1.1904 0 0 1.00005 0.000397796
499 7.17562 8.89235 0.713779 0 0 1.00003 0.000248185
501 8.09949 9.05915 0.0816312 0 0 1.00003 0.000162376
504 7.96462 9.93649 0.579223 0 0 1.00004 0.000203668
1338 7.18906 9.7491 1.19689 0 0 1.00004 0.000288778
1341 8.05003 9.17947 1.40511 0 0 1.00003 0.000197755
503 8.93821 9.46621 0.730632 0 0 1.00004 9.72467e-05
508 9.63848 10.3485 0.662147 0 0 1.00005 3.93208e-05
1342 8.7505 10.2787 1.41295 0 0 1.00005 0.000160126
1345 9.82272 9.60211 1.41807 0 0 1.00004 2.52004e-05
432 11.3557 8.85856 0.735378 0 0 1.00002 -0.00016281
426 10.3914 8.89739 0.040402 0 0 1.00002 -7.25414e-05
507 10.4516 9.69343 0.658593 0 0 1.00003 -6.18804e-05
1346 10.6184 10.1813 1.6406 0 0 1.00004 -4.1671e-05
1349 11.2847 9.64545 1.32127 0 0 1.00003 -0.000135695
436 12.977 8.97221 0.789044 0 0 1.00001 -0.000309487
511 12.0844 9.82355 0.688896 0 0 1.00003 -0.000233103
516 12.7918 10.4827 0.962668 0 0 1.00003 -0.00029545
1353 12.5188 9.6247 1.61611 0 0 1.00002 -0.000250384
1274 13.6583 8.85094 1.57123 0 0 1.00001 -0.00034519
440 14.4347 9.2014 0.761078 0 0 1.00001 -0.000410252
515 13.5011 9.68842 0.837798 0 0 1.00001 -0.000354358
1354 13.4646 10.4179 1.71167 0 0 1.00002 -0.000328857
517 14.2398 10.1554 0.215542 0 0 1.00001 -0.000416494
1278 15.0179 9.07048 1.76247 0 0 1 -0.000417685
444 15.866 9.1599 1.13643 0 0 0.999994 -0.000453472
519 15.0978 9.86155 1.01189 0 0 1 -0.000445125
521 15.6561 10.1818 0.251661 0 0 0.999996 -0.000476123
523 16.472 9.95841 0.961583 0 0 0.999988 -0.000471878
442 16.4775 9.03236 0.260247 0 0 0.99999 -0.000461145
438 15.2662 9.20833 0.0951241 0 0 0.999999 -0.000447948
452 18.2714 8.89383 0.942821 0 0 0.99998 -0.000408007
448 17.0619 9.0678 1.12783 0 0 0.999986 -0.000449355
525 17.1228 10.0251 0.206802 0 0 0.999982 -0.000473131
527 17.7444 9.86803 1.07219 0 0 0.999977 -0.000442161
446 17.7353 9.10638 0.116768 0 0 0.999982 -0.000439031
456 19.8004 8.95487 1.06398 0 0 0.999973 -0.000306271
529 18.572 9.73067 0.299865 0 0 0.999972 -0.000407784
531 19.484 9.89393 0.851236 0 0 0.999965 -0.000343135
532 18.6955 10.453 1.14558 0 0 0.999966 -0.000396019
1369 18.6282 9.58386 1.71086 0 0 0.999972 -0.000381263
450 19.2206 8.95813 0.210902 0 0 0.999975 -0.000358893
533 19.9706 9.78265 0.0726808 0 0 0.999964 -0.00030622
535 20.9176 9.80547 0.752636 0 0 0.99996 -0.000212758
1373 20.2304 9.6605 1.67408 0 0 0.999963 -0.000256566
454 20.7777 9.07688 0.207311 0 0 0.99997 -0.000230941
460 21.6221 9.03224 0.980451 0 0 0.999969 -0.000144213
1298 22.3913 8.88478 1.58849 0 0 0.999969 -5.385e-05
539 22.8311 9.68508 0.806209 0 0 0.999958 -1.30341e-05