ITEM: TIMESTEP
18000
ITEM: NUMBER OF ATOMS
32000
ITEM: BOX BOUNDS pp pp pp
0.0000000000000000e+00 3.1748021039364001e+01
0.0000000000000000e+00 3.1748021039364001e+01
0.0000000000000000e+00 3.1748021039364001e+01
ITEM: ATOMS id x y z c_phase c_nbond c_rho vx
4 0.218369 1.09948 0.468233 0 0 1.00003 0.000982796
83 1.07492 1.66817 0.781582 0 0 1.00002 0.00100985
842 0.818486 0.792232 1.41123 0 0 1.00002 0.00100155
921 0.109309 1.59948 1.37802 0 0 1.00003 0.00100818
3 0.830656 0.0676605 0.620774 0 0 1.00002 0.000981248
8 1.81097 0.817254 1.01575 0 0 1.00002 0.000990326
85 1.9029 1.4831 0.218102 0 0 1.00002 0.000993406
925 1.93135 1.66282 1.76052 0 0 1.00002 0.00102769
6 2.61419 0.749093 0.204776 0 0 1.00001 0.000962167
7 2.68326 0.0568345 1.04041 0 0 1.00001 0.000964579
87 2.74368 1.5457 0.882974 0 0 1.00001 0.00098169
846 2.77055 0.82191 1.74662 0 0 1.00001 0.000986344
12 3.52022 0.934643 0.964113 0 0 1.00001 0.000938527
849 3.58564 0.0910801 1.7148 0 0 1.00001 0.000944932
929 3.69737 1.71353 1.72578 0 0 1.00001 0.000968358
10 4.19156 0.862411 0.324929 0 0 1 0.000892193
93 4.99435 1.60823 0.387546 0 0 1 0.000856052
850 4.42246 0.948198 1.64123 0 0 1 0.000903911
9 3.56121 0.108316 0.17427 0 0 1.00001 0.000918879
16 5.04062 0.569965 1.17544 0 0 1 0.000842469
14 5.71183 0.648445 0.326009 0 0 0.999998 0.000777365
95 5.94683 1.32104 0.948921 0 0 0.999997 0.000777341
97 6.62745 1.40305 0.220954 0 0 0.999994 0.000706814
854 5.85046 0.462818 1.71161 0 0 0.999997 0.000789332
933 5.10287 1.73096 1.44538 0 0 1 0.00086889
20 6.76358 0.396141 0.874837 0 0 0.999994 0.000683985
937 6.74359 1.01878 1.7077 0 0 0.999993 0.000714903
24 8.29192 0.413272 1.08184 0 0 0.99999 0.000525722
99 7.40821 1.23389 0.961639 0 0 0.999992 0.00063221
101 8.27247 1.40236 0.239734 0 0 0.99999 0.000534039
941 8.15827 1.28348 1.62225 0 0 0.99999 0.00056792
18 7.61816 0.655594 0.144801 0 0 0.999992 0.00059082
22 8.87272 0.51309 0.275688 0 0 0.99999 0.000450921
28 9.5572 0.340959 0.89824 0 0 0.999989 0.000378163
103 9.03828 1.31903 1.12154 0 0 0.999989 0.000457995
105 9.64181 1.38492 0.092769 0 0 0.999989 0.00037771
32 11.1883 0.217738 0.64035 0 0 0.99999 0.00019144
107 10.3545 1.05696 0.831475 0 0 0.999989 0.000295422
866 10.5107 0.199083 1.45852 0 0 0.999989 0.000280408
949 11.2635 1.02557 1.43002 0 0 0.99999 0.000205519
946 10.5677 1.69239 1.74434 0 0 0.999988 0.000307481
26 10.2352 0.370695 0.0796406 0 0 0.999989 0.000294014
36 12.8311 0.214578 0.642974 0 0 0.999994 2.79122e-05
111 12.0085 1.08172 0.513357 0 0 0.999991 0.000113641
870 12.0951 0.318718 1.31098 0 0 0.999992 0.000108741
953 12.676 1.20451 1.38333 0 0 0.999993 6.44087e-05
40 14.3133 0.325285 0.776208 0 0 0.999999 -8.49404e-05
115 13.5369 1.11712 0.849727 0 0 0.999996 -1.96022e-05
117 13.9847 1.56545 0.165029 0 0 0.999998 -5.09861e-05
874 13.5559 0.362397 1.64471 0 0 0.999996 -1.51266e-05
957 14.3178 1.15545 1.4853 0 0 0.999999 -6.36756e-05
119 14.8145 1.55779 0.666436 0 0 1 -9.81508e-05
44 15.641 0.768205 0.78942 0 0 1.00001 -0.000147084
123 16.482 1.54278 0.68262 0 0 1.00001 -0.000156274
878 15.0772 0.465332 1.64589 0 0 1 -0.000111675
882 16.4772 0.710273 1.34347 0 0 1.00001 -0.000160065
961 15.564 1.49044 1.39556 0 0 1.00001 -0.000122552
38 15.0381 0.712399 0.0674277 0 0 1 -0.000127037
48 17.1906 0.72968 0.551392 0 0 1.00001 -0.00017448
127 17.8585 1.57803 0.754835 0 0 1.00002 -0.000152161
886 17.851 0.741793 1.4241 0 0 1.00002 -0.000155955
965 17.1517 1.74524 1.56197 0 0 1.00001 -0.000142103
51 19.4842 0.0142804 0.66085 0 0 1.00003 -0.000107897
52 18.7324 0.72352 0.68374 0 0 1.00002 -0.000140637
131 19.487 1.5462 0.837907 0 0 1.00003 -8.97597e-05
889 18.9679 0.15514 1.53986 0 0 1.00003 -0.000122657
890 19.5416 0.962197 1.68314 0 0 1.00003 -8.22836e-05
969 18.5995 1.50451 1.49537 0 0 1.00002 -0.00012153
55 21.0599 0.346814 1.06082 0 0 1.00004 9.77259e-06
56 20.2039 0.771726 0.973073 0 0 1.00003 -5.41069e-05
135 21.0723 1.64199 0.947101 0 0 1.00004 2.96592e-05
54 21.154 0.76002 0.216574 0 0 1.00004 1.45137e-05
133 20.3021 1.50451 0.194939 0 0 1.00003 -4.26091e-05
57 21.989 0.26115 0.535514 0 0 1.00004 9.01259e-05
59 22.785 0.425858 1.39585 0 0 1.00004 0.000185459
60 22.093 1.13854 1.31989 0 0 1.00004 0.000121202
137 21.9778 1.58724 0.532584 0 0 1.00004 0.000106999
58 22.91 1.0634 0.443209 0 0 1.00004 0.000194031
63 24.2481 0.376332 1.43718 0 0 1.00005 0.000352734
61 23.5724 0.353417 0.569419 0 0 1.00004 0.000260903
62 24.4567 1.1751 0.74802 0 0 1.00005 0.000374061
64 23.4818 1.23746 1.39054 0 0 1.00005 0.000275152
65 24.9843 0.312836 0.546776 0 0 1.00005 0.0004241
67 26.0533 0.378555 1.16277 0 0 1.00005 0.000552782
68 25.2022 1.11608 1.46663 0 0 1.00005 0.000473945
147 25.9771 1.72148 1.3458 0 0 1.00005 0.000573286
66 25.9355 0.923771 0.427104 0 0 1.00005 0.000536767
70 27.6428 1.27317 0.385116 0 0 1.00004 0.000723309
71 27.6825 0.50394 0.868999 0 0 1.00004 0.000720291
72 26.8128 1.0207 1.25279 0 0 1.00005 0.00064637
69 26.8483 0.23877 0.226568 0 0 1.00005 0.000626714
913 28.4577 0.338295 1.39695 0 0 1.00004 0.00079823
76 28.7312 1.23165 0.734555 0 0 1.00004 0.000821656
914 29.4744 0.948475 1.563 0 0 1.00004 0.000888181
993 28.6032 1.71234 1.49286 0 0 1.00004 0.000837694
917 29.9108 0.168704 1.45479 0 0 1.00004 0.000905992
75 29.3598 0.353238 0.613365 0 0 1.00004 0.000854688
841 31.6899 0.267398 1.25675 0 0 1.00003 0.000978131
79 30.804 0.482478 0.47441 0 0 1.00003 0.000937296
80 30.1911 1.19473 0.771382 0 0 1.00004 0.000921873
918 30.9618 0.9698 1.39098 0 0 1.00003 0.000965832
82 1.21412 2.43873 0.126023 0 0 1.00002 0.00103232
84 0.23892 2.38147 0.810186 0 0 1.00003 0.00102667
163 1.39402 3.23765 0.948374 0 0 1.00002 0.00108019
922 1.24562 2.36549 1.59244 0 0 1.00002 0.00105445
1001 0.494438 3.03415 1.54958 0 0 1.00003 0.0010802
161 0.438467 3.09974 0.131167 0 0 1.00003 0.00105721
88 2.01375 2.42201 0.786739 0 0 1.00002 0.00103021
167 2.75842 3.29005 0.862739 0 0 1.00001 0.00105614
926 2.77118 2.24097 1.5428 0 0 1.00001 0.0010208
86 2.82136 2.39067 0.0558092 0 0 1.00001 0.00100165
1009 3.36048 3.43564 1.65852 0 0 1.00001 0.00106362
92 3.47592 2.56644 0.785543 0 0 1.00001 0.000989022
91 4.09325 1.84789 0.716411 0 0 1.00001 0.000925782
96 4.98986 2.58568 0.822968 0 0 1 0.000898558
171 4.29021 3.33384 0.755716 0 0 1 0.000983203
930 4.2255 2.65472 1.59086 0 0 1 0.000972199
94 5.7185 2.46005 0.136165 0 0 0.999998 0.000825493
100 6.6135 2.19788 0.781482 0 0 0.999994 0.000739913
175 5.72212 3.21698 0.962268 0 0 0.999997 0.000873882
934 5.92783 2.21296 1.50726 0 0 0.999996 0.000822288
1017 6.58417 3.08953 1.56788 0 0 0.999993 0.000804136
177 6.70471 2.95172 0.135409 0 0 0.999993 0.000757901
98 7.49453 2.24374 0.141666 0 0 0.999991 0.000645911
104 8.11471 2.22008 0.940707 0 0 0.999989 0.000586331
179 7.44717 3.09075 0.941664 0 0 0.99999 0.000700207
938 7.34468 2.078 1.58277 0 0 0.999991 0.000680561
1021 8.21986 3.02622 1.66865 0 0 0.999988 0.000632119
181 8.29985 2.99431 0.0411355 0 0 0.999989 0.000590705
102 8.92132 2.10564 0.255596 0 0 0.999989 0.000482131
108 9.77557 2.04115 1.11932 0 0 0.999988 0.000394235
183 8.94539 2.99662 0.939744 0 0 0.999987 0.00052724
942 9.04687 2.24035 1.7213 0 0 0.999988 0.000501881
185 9.56915 2.92926 0.215219 0 0 0.999988 0.000441531
106 10.2767 2.13021 0.216175 0 0 0.999989 0.000326661
112 11.1375 1.84121 0.778887 0 0 0.999989 0.000226781
187 10.611 2.82953 0.930859 0 0 0.999987 0.000325226
1029 11.4206 2.85193 1.59168 0 0 0.999988 0.000254978
116 12.6313 1.95285 0.600247 0 0 0.999993 7.45861e-05
191 11.8968 2.66049 0.748566 0 0 0.99999 0.000174202
950 11.8933 1.934 1.47823 0 0 0.99999 0.000162241
1033 12.8029 3.03618 1.70169 0 0 0.999992 0.000125327
195 13.1379 3.04308 0.852203 0 0 0.999993 7.30735e-05
954 13.3297 2.00239 1.4902 0 0 0.999994 2.98174e-05
114 13.3631 2.30706 0.059183 0 0 0.999995 1.81595e-05
120 13.9644 2.45534 0.9301 0 0 0.999997 -1.54972e-05
1037 13.9735 3.39934 1.56575 0 0 0.999996 3.98969e-05
199 14.6366 3.44662 0.886293 0 0 0.999999 -1.92747e-05
958 14.7252 2.30646 1.44956 0 0 1 -5.9365e-05
118 14.7786 2.51977 0.138467 0 0 1 -7.30845e-05
197 14.1005 3.23576 0.0366052 0 0 0.999997 -1.852e-06
124 15.6308 2.44423 0.697337 0 0 1.00001 -0.00011008
203 16.2383 3.2014 0.668076 0 0 1.00001 -9.99047e-05
962 16.2409 2.47882 1.52656 0 0 1.00001 -0.000111631
1041 15.3094 3.26306 1.50746 0 0 1 -4.89416e-05
201 15.5042 3.26353 0.0228372 0 0 1 -7.88836e-05
128 16.9988 2.35014 0.682949 0 0 1.00001 -0.000139854
207 17.8801 2.92047 0.699912 0 0 1.00002 -0.00011263
966 17.9546 2.43113 1.57961 0 0 1.00002 -0.000112556
1045 17.0245 3.11181 1.4956 0 0 1.00001 -9.74405e-05
132 18.8331 2.34877 1.00888 0 0 1.00002 -9.90927e-05
211 19.6505 3.22338 1.26969 0 0 1.00003 -1.93376e-05
209 18.8253 2.98507 0.193441 0 0 1.00002 -8.52334e-05
130 19.5372 2.32755 0.10243 0 0 1.00003 -7.17619e-05
973 20.2818 1.77452 1.71613 0 0 1.00003 -1.63911e-05
134 21.1267 2.40051 0.453988 0 0 1.00004 4.90534e-05
136 20.1515 2.45168 1.10608 0 0 1.00003 -1.85071e-05
215 21.2831 3.27256 1.37914 0 0 1.00004 0.000112628
213 20.3801 2.97682 0.331241 0 0 1.00003 8.50995e-06
139 22.8688 2.05016 1.49697 0 0 1.00004 0.000226951
138 22.9691 2.58098 0.72818 0 0 1.00004 0.00024354
140 22.0777 2.4787 1.22757 0 0 1.00004 0.000154874
217 21.9707 3.17673 0.594128 0 0 1.00004 0.000161793
16179 22.6741 3.37399 0.0724836 0 0 1.00004 0.000239893
141 23.7528 1.79292 0.618329 0 0 1.00005 0.000306641
143 24.4509 1.96975 1.59466 0 0 1.00005 0.000411308
142 24.3642 2.66028 0.767392 0 0 1.00005 0.000408481
144 23.7002 2.87638 1.52125 0 0 1.00005 0.000356481
223 24.5017 3.48173 1.54083 0 0 1.00005 0.000480868
16108 24.9885 2.82047 0.0144308 0 0 1.00005 0.000484217
149 26.6042 1.78045 0.507459 0 0 1.00005 0.000631369
145 25.1654 1.8403 0.506485 0 0 1.00005 0.000470647
146 25.8388 2.59067 0.699965 0 0 1.00005 0.000576638
148 25.1961 2.53574 1.51017 0 0 1.00005 0.000515372
227 25.7713 3.47022 1.49885 0 0 1.00005 0.00062981
152 26.5944 2.54265 1.51701 0 0 1.00005 0.000676504
229 26.2272 3.47599 0.591455 0 0 1.00005 0.000663098
151 27.5733 1.97225 1.22696 0 0 1.00005 0.000749051
153 28.3291 2.07895 0.341723 0 0 1.00004 0.000809148
150 27.1535 2.67391 0.637287 0 0 1.00005 0.000723563
231 27.2754 3.33135 1.4042 0 0 1.00005 0.000785218
156 28.3351 2.74101 1.1957 0 0 1.00004 0.000849345
233 28.062 3.20338 0.327709 0 0 1.00004 0.000833147
997 30.0562 1.80144 1.70119 0 0 1.00004 0.000951087
155 29.536 2.03143 0.87867 0 0 1.00004 0.000906538
154 29.2842 2.65466 0.286732 0 0 1.00004 0.000907231
235 29.3469 3.24744 1.17239 0 0 1.00004 0.000955214
159 31.0113 1.97766 0.922149 0 0 1.00003 0.000985352
160 30.2807 2.70257 0.998347 0 0 1.00004 0.000981587
239 31.1323 3.33903 0.972319 0 0 1.00003 0.00105242
998 31.0909 2.68834 1.72383 0 0 1.00003 0.00103812
237 30.2157 3.24128 0.140724 0 0 1.00004 0.000994833
157 30.5051 1.9021 0.0296167 0 0 1.00003 0.000951095
158 31.245 2.65686 0.0761249 0 0 1.00003 0.00101227
164 0.406746 3.7817 0.919661 0 0 1.00003 0.00110458
241 0.259068 4.59709 0.477245 0 0 1.00003 0.0011504
243 1.25318 4.6724 0.98894 0 0 1.00002 0.00117414
244 0.214318 5.26418 1.2752 0 0 1.00003 0.00121884
162 1.15326 3.863 0.0662101 0 0 1.00002 0.00110645
168 1.95761 4.05081 0.85065 0 0 1.00002 0.0011221
247 2.65232 4.86963 1.13697 0 0 1.00001 0.00117295
166 2.75649 4.15596 0.205731 0 0 1.00001 0.00110156
245 2.01346 4.97316 0.281783 0 0 1.00002 0.00117969
249 3.51498 4.87787 0.163966 0 0 1.00001 0.0011232
172 3.59214 4.0929 0.891762 0 0 1.00001 0.00107208
176 4.9994 4.02554 1.18781 0 0 0.999999 0.000988209
251 4.15267 4.90171 1.15636 0 0 1 0.00110877
170 4.35118 4.20187 0.148635 0 0 1 0.0010279
253 5.09807 4.76672 0.341444 0 0 0.999998 0.00101842
174 5.84566 3.96314 0.198018 0 0 0.999996 0.000897717
180 6.55695 3.79439 0.783589 0 0 0.999993 0.000828907
255 5.76655 4.76201 1.03866 0 0 0.999995 0.000975956
1097 6.73116 4.5465 1.66344 0 0 0.999991 0.000892231
260 6.74662 5.16854 0.893571 0 0 0.99999 0.000914568
184 8.23465 3.92046 0.711302 0 0 0.999988 0.000657925
259 7.45979 4.49362 0.555849 0 0 0.999989 0.000780217
1018 7.45119 3.89992 1.51497 0 0 0.999989 0.000765788
1101 8.24206 4.64712 1.50562 0 0 0.999986 0.000730963
188 9.90133 3.60754 0.896913 0 0 0.999987 0.000448404
263 9.10121 4.60123 0.833181 0 0 0.999985 0.000607501
265 9.86915 4.53954 0.129859 0 0 0.999985 0.000501764
1022 9.09678 3.79481 1.5169 0 0 0.999986 0.000571785
1105 9.87981 4.38315 1.67734 0 0 0.999985 0.00052758
182 9.00643 3.89785 0.0646016 0 0 0.999987 0.000561225
192 11.3863 3.67058 0.790679 0 0 0.999987 0.000279421
267 10.5843 4.69861 0.919143 0 0 0.999985 0.000440622
269 11.3675 4.72579 0.232821 0 0 0.999986 0.000341867
1026 10.6972 3.59706 1.60676 0 0 0.999986 0.000375282
1109 11.3472 4.40808 1.72467 0 0 0.999986 0.000359472
186 10.5763 3.87651 0.178484 0 0 0.999987 0.000375161
196 12.4748 3.60369 0.822518 0 0 0.99999 0.000162737
271 12.1587 4.57908 1.01152 0 0 0.999988 0.000258758
1113 12.7053 5.02363 1.70692 0 0 0.999989 0.000261057
275 13.1807 4.70685 0.808538 0 0 0.999991 0.0001622
273 12.6019 4.64442 0.0636993 0 0 0.99999 0.000204357
200 13.9364 4.14323 0.702489 0 0 0.999995 6.22286e-05
1034 13.4363 4.2399 1.60604 0 0 0.999992 0.000133459
1117 14.148 5.13587 1.53349 0 0 0.999994 0.000134199
279 14.8798 5.02465 0.816823 0 0 0.999999 5.54805e-05
1038 14.9049 4.42579 1.60179 0 0 0.999999 3.90254e-05
277 14.0847 4.92095 0.0652267 0 0 0.999995 9.21657e-05
198 14.8976 4.20238 0.100365 0 0 1 -3.90239e-06
204 15.6012 4.07152 0.927486 0 0 1 -3.47724e-05
281 15.8099 4.77854 0.187994 0 0 1 -1.19348e-05
283 16.5262 4.57997 0.901403 0 0 1.00001 -3.24721e-05
1042 16.2526 3.96046 1.69144 0 0 1.00001 -3.98589e-05
1121 15.7469 5.05601 1.64648 0 0 1 4.24509e-05
208 17.2029 3.82764 0.810264 0 0 1.00001 -7.94112e-05
287 18.0218 4.47582 1.0938 0 0 1.00002 -2.97093e-05
1046 17.8888 3.62923 1.65152 0 0 1.00002 -6.18517e-05
285 17.3865 4.56951 0.0168553 0 0 1.00002 -4.7441e-05
206 18.0722 3.84269 0.0611051 0 0 1.00002 -7.4111e-05
212 18.8174 3.69269 0.947635 0 0 1.00002 -4.73668e-05
289 18.7657 4.59259 0.359751 0 0 1.00002 -1.11585e-05
291 19.6391 4.65289 1.07773 0 0 1.00003 4.91113e-05
292 18.727 5.25719 1.19339 0 0 1.00002 4.32742e-05
210 19.5474 3.74793 0.228257 0 0 1.00003 -1.57456e-05
216 20.3982 3.79815 1.22411 0 0 1.00003 5.83736e-05
295 20.8525 4.68758 1.37976 0 0 1.00004 0.000151663
297 21.5605 4.91752 0.799473 0 0 1.00004 0.000217727
214 21.0541 3.90591 0.507896 0 0 1.00004 0.000106344
293 20.0945 4.75944 0.347017 0 0 1.00003 7.49578e-05
219 22.8205 3.60066 1.40544 0 0 1.00004 0.000288051
220 21.9248 4.1018 1.29699 0 0 1.00004 0.00021633
299 22.4695 5.13576 1.25813 0 0 1.00004 0.000338762
218 22.6103 4.31368 0.506662 0 0 1.00004 0.000286999
221 23.5855 3.60829 0.773253 0 0 1.00005 0.000361969
222 24.3639 4.2878 0.617815 0 0 1.00005 0.000490327
224 23.4815 4.5116 1.31846 0 0 1.00005 0.000415736
305 24.896 5.21575 0.558494 0 0 1.00005 0.000617573
301 23.5677 5.02634 0.525655 0 0 1.00005 0.000441607
228 25.0536 4.46177 1.6023 0 0 1.00005 0.000611009
303 24.3976 5.24768 1.41459 0 0 1.00005 0.000580754
225 25.1017 3.64739 0.791174 0 0 1.00005 0.000544659
307 25.7513 5.10079 1.3278 0 0 1.00005 0.000729701
232 26.4238 4.25838 1.35816 0 0 1.00005 0.000748738
309 26.5734 4.93977 0.633661 0 0 1.00005 0.000794605
226 25.5799 4.3687 0.386182 0 0 1.00005 0.000637562
311 27.4145 4.83882 1.39088 0 0 1.00005 0.000895992
236 28.047 3.9513 1.09615 0 0 1.00005 0.000886634
313 28.3709 4.71165 0.699019 0 0 1.00005 0.000959799
230 27.1392 4.01448 0.568192 0 0 1.00005 0.000791785
234 29.0256 3.7552 0.479358 0 0 1.00004 0.000947017
315 29.1883 4.50158 1.31906 0 0 1.00004 0.00102636
314 29.4982 5.28976 0.809665 0 0 1.00004 0.00109493
240 30.1019 4.05012 1.02244 0 0 1.00004 0.00104807
238 31.1393 3.97267 0.365496 0 0 1.00003 0.00108275
317 30.3175 4.67142 0.480845 0 0 1.00004 0.0010944
319 31.095 4.59481 1.39843 0 0 1.00003 0.00114563
242 1.03499 5.53145 0.462086 0 0 1.00002 0.00123191
248 1.65963 5.51768 1.38073 0 0 1.00002 0.00125362
323 0.930404 6.21409 1.27748 0 0 1.00002 0.00131043
324 0.392883 6.92109 1.50291 0 0 1.00003 0.00137838
322 1.11036 6.94477 0.571262 0 0 1.00002 0.00135931
321 0.108123 5.9946 0.447318 0 0 1.00003 0.00125763
328 1.8441 7.03626 1.24562 0 0 1.00002 0.00138405
325 2.01866 6.20954 0.51639 0 0 1.00002 0.00128412
252 3.22924 5.64034 1.30571 0 0 1.00001 0.00122176
327 2.39745 6.17018 1.41772 0 0 1.00001 0.00129874
246 2.80131 5.62241 0.275423 0 0 1.00001 0.00121219
332 3.38153 6.98637 1.14382 0 0 1.00001 0.00133389
329 3.51621 6.29834 0.50003 0 0 1.00001 0.00124434
250 4.29601 5.48672 0.329167 0 0 1 0.00113023
331 4.2447 6.12046 1.24029 0 0 1 0.00121056
333 4.93055 6.26425 0.336246 0 0 0.999998 0.00115547
336 4.88599 6.83703 1.17412 0 0 0.999997 0.00123287
330 4.12145 7.04606 0.227628 0 0 1 0.00128036
256 5.03384 5.45967 1.32565 0 0 0.999998 0.00110163
254 5.86392 5.44867 0.304599 0 0 0.999994 0.0010087
335 5.78288 6.27405 0.974824 0 0 0.999993 0.00110412
1177 6.54297 6.02527 1.61972 0 0 0.99999 0.00103697
340 6.52176 6.91138 1.01962 0 0 0.999989 0.00109717
337 6.46299 6.08557 0.155704 0 0 0.999991 0.00100714
264 8.25579 5.35373 0.706587 0 0 0.999985 0.000762527
339 7.39072 6.19752 0.767397 0 0 0.999987 0.000933993
1098 7.45458 5.45625 1.51421 0 0 0.999987 0.000886761
1181 8.28769 6.15605 1.51802 0 0 0.999984 0.000858807
344 8.07343 6.90021 0.742041 0 0 0.999983 0.000921594
1178 7.35814 6.90605 1.62419 0 0 0.999985 0.00104233
258 7.3877 5.3947 0.0462241 0 0 0.999988 0.000853251
268 9.78214 5.36053 0.80583 0 0 0.999984 0.00058413
343 8.91797 6.23229 0.750088 0 0 0.999982 0.000762659
1102 9.0828 5.36963 1.61885 0 0 0.999983 0.000699918
1185 9.75997 6.23391 1.49437 0 0 0.999982 0.000689392
1182 9.13126 7.00144 1.49044 0 0 0.99998 0.00084018
345 9.78035 6.27623 0.0979436 0 0 0.999983 0.000652178
262 9.02684 5.50709 0.0169709 0 0 0.999984 0.000676485
272 11.3745 5.30962 1.00148 0 0 0.999985 0.00039938
347 10.5876 6.06428 0.978198 0 0 0.999982 0.000551602
349 11.3028 6.41016 0.0801061 0 0 0.999983 0.000481781
346 10.5272 6.98779 0.156913 0 0 0.999981 0.000624275
1186 10.4807 6.97471 1.52382 0 0 0.99998 0.000676606
270 11.9726 5.65952 0.186927 0 0 0.999986 0.000342987
276 12.6406 5.84717 0.873523 0 0 0.999988 0.000301002
351 11.7578 6.24733 1.06912 0 0 0.999984 0.000434106
1114 13.282 5.8956 1.57578 0 0 0.999989 0.000268272
355 13.3101 6.60944 0.822436 0 0 0.999989 0.000294787
274 13.2743 5.56471 0.0442262 0 0 0.999991 0.000203619
280 14.0093 5.73775 0.781278 0 0 0.999994 0.000164575
1197 14.273 6.6732 1.42283 0 0 0.999993 0.000243368
357 14.0776 6.40684 0.0403165 0 0 0.999993 0.000199465
278 14.9621 5.65348 0.0370248 0 0 0.999999 8.32219e-05
359 14.986 6.46498 0.812482 0 0 0.999998 0.000153757
284 15.765 5.74332 0.959165 0 0 1 6.53225e-05
363 16.4251 6.45328 1.14405 0 0 1.00001 0.000104395
1118 15.047 5.88815 1.70753 0 0 0.999998 0.000141124
282 16.5528 5.41843 0.27655 0 0 1.00001 9.23376e-06
361 15.6123 6.34765 0.0418868 0 0 1 0.000100135
286 17.764 5.29288 0.539711 0 0 1.00002 3.59384e-06
288 17.0451 5.41965 1.24654 0 0 1.00001 2.44705e-05
365 16.9985 6.27039 0.411025 0 0 1.00001 6.37253e-05
367 17.6014 6.23545 1.37951 0 0 1.00002 9.02218e-05
372 18.216 7.0348 1.12874 0 0 1.00002 0.000154005
369 18.3139 6.2133 0.608286 0 0 1.00002 7.9312e-05
290 19.3809 5.73191 0.615252 0 0 1.00003 9.2722e-05
371 19.278 6.52962 1.33599 0 0 1.00003 0.000166105
373 19.9549 6.71819 0.603398 0 0 1.00003 0.000200845
294 20.7208 5.74069 0.644865 0 0 1.00004 0.000191482
296 20.1515 5.57866 1.38158 0 0 1.00003 0.000153796
375 20.7517 6.57302 1.28639 0 0 1.00004 0.000275786
377 21.6464 6.62111 0.657378 0 0 1.00004 0.000344931
300 21.648 5.83663 1.36468 0 0 1.00004 0.000306998
16260 21.6769 5.69486 0.05198 0 0 1.00004 0.000272777
298 22.6772 5.78795 0.661066 0 0 1.00005 0.000394519
379 22.6404 6.64586 1.18701 0 0 1.00005 0.000474338
381 23.3707 6.73119 0.263656 0 0 1.00005 0.000542821
304 23.5044 5.84108 1.27784 0 0 1.00005 0.000513337
383 24.3634 6.51764 1.14175 0 0 1.00005 0.000670809
302 24.1782 5.96148 0.418735 0 0 1.00005 0.000582373
306 25.7479 5.82188 0.688042 0 0 1.00005 0.000768045
308 25.1676 5.99451 1.65038 0 0 1.00005 0.00074529
385 25.2184 6.69338 0.485804 0 0 1.00005 0.000771574
387 25.9035 6.55265 1.38631 0 0 1.00005 0.000872369
312 26.7727 5.80882 1.45592 0 0 1.00005 0.000908736
310 27.589 5.51365 0.711727 0 0 1.00005 0.00094784
389 26.8339 6.32846 0.639464 0 0 1.00005 0.000933654
391 27.8021 6.43536 1.3503 0 0 1.00005 0.00106575
390 27.8161 6.97269 0.520796 0 0 1.00005 0.00109026
316 28.4698 5.49536 1.46801 0 0 1.00005 0.00105207
395 29.5573 6.16421 1.31126 0 0 1.00004 0.00118795
394 29.7049 6.88811 0.503741 0 0 1.00004 0.00124064
393 28.5789 6.18033 0.635093 0 0 1.00005 0.00109435
16355 29.491 6.12558 0.0759309 0 0 1.00004 0.00115341
16276 28.5839 5.36745 0.0538686 0 0 1.00004 0.00102205
318 31.0867 5.3552 0.592111 0 0 1.00003 0.0011836
320 30.3387 5.44182 1.45489 0 0 1.00004 0.00117859
397 30.5191 6.16922 0.64301 0 0 1.00004 0.00122684
399 31.3487 6.1441 1.37933 0 0 1.00003 0.00128114
398 31.34 6.94258 0.603565 0 0 1.00003 0.00133067
401 0.407474 7.63281 0.657818 0 0 1.00003 0.00141677
402 0.992234 8.46928 0.613644 0 0 1.00002 0.00150269
403 1.25964 7.86136 1.49735 0 0 1.00002 0.00147924
404 0.511915 8.55575 1.46709 0 0 1.00003 0.00153849
405 1.73994 7.77187 0.376887 0 0 1.00002 0.00143091
408 1.88369 8.62909 1.46908 0 0 1.00002 0.00155013
326 2.61961 7.16034 0.475897 0 0 1.00001 0.00135855
406 2.34966 8.63999 0.402292 0 0 1.00001 0.001505
407 2.54026 7.82566 1.2868 0 0 1.00001 0.00144974
412 3.16592 8.53749 0.947437 0 0 1.00001 0.001487
409 3.37813 7.78785 0.331309 0 0 1.00001 0.00138843
410 3.95279 8.48544 0.0814777 0 0 1 0.0014273
411 4.11113 7.68608 1.25256 0 0 1 0.00136863
416 4.82917 8.29518 0.941355 0 0 0.999997 0.00137292
413 4.79363 7.67192 0.246736 0 0 0.999997 0.00129615
334 5.64965 7.08539 0.152318 0 0 0.999993 0.00117465
414 5.97961 8.38781 0.176397 0 0 0.999989 0.00127353
415 5.59551 7.62241 1.04259 0 0 0.999992 0.0012515
417 6.58281 7.58381 0.172687 0 0 0.999988 0.0011376
420 6.49851 8.27126 1.06388 0 0 0.999987 0.00123629
419 7.36731 7.81228 0.762609 0 0 0.999984 0.00109177
424 8.34679 8.36444 0.889839 0 0 0.99998 0.00104316
1258 7.36568 8.22616 1.73184 0 0 0.999982 0.00118486
1261 8.12024 7.53724 1.58945 0 0 0.999981 0.00102049
421 8.06297 7.6508 0.0292637 0 0 0.999983 0.00098521
348 9.86354 7.2677 0.740614 0 0 0.99998 0.000745403
423 8.95834 7.66416 0.676979 0 0 0.99998 0.000891465
428 9.76707 8.66786 0.712093 0 0 0.999977 0.000893763
1262 9.14304 8.75003 1.48015 0 0 0.999977 0.00102278
1265 9.68224 7.93895 1.63236 0 0 0.999977 0.000881028
352 11.3067 7.18584 0.825429 0 0 0.999981 0.000565123
427 10.5872 7.99048 0.862697 0 0 0.999978 0.000730876
1266 10.607 8.75639 1.46149 0 0 0.999977 0.000840477
1269 11.4017 7.85585 1.63348 0 0 0.999979 0.000661102
429 11.2267 8.16307 0.045984 0 0 0.99998 0.000648564
356 12.676 7.32174 0.57785 0 0 0.999985 0.000414371
431 12.1601 8.27229 0.6061 0 0 0.999981 0.000560708
1190 12.051 7.19961 1.4035 0 0 0.999982 0.000505793
1270 12.0762 8.72462 1.52359 0 0 0.999979 0.000662756
1273 12.8298 8.03612 1.50235 0 0 0.999983 0.000507475
350 11.8802 7.42903 0.000379171 0 0 0.999982 0.000503141
360 14.2784 7.37604 0.596666 0 0 0.999992 0.00027083
435 13.5741 8.12379 0.476601 0 0 0.999987 0.000393718
1194 13.4221 7.37036 1.36382 0 0 0.999987 0.000375214
1277 14.2015 8.20394 1.37126 0 0 0.999989 0.000384159
439 15.0157 8.30833 0.873467 0 0 0.999995 0.000308849
362 16.3691 7.18499 0.280812 0 0 1.00001 0.000140284
364 15.5686 7.319 0.923644 0 0 1 0.000194766
443 16.2006 8.16295 1.11447 0 0 1 0.000250633
1198 15.0851 7.53788 1.64245 0 0 0.999996 0.000278383
441 15.8014 8.3184 0.15511 0 0 1 0.000250054
368 16.9145 7.35552 1.11621 0 0 1.00001 0.000167654
445 17.0028 8.0998 0.338242 0 0 1.00001 0.000203979
447 17.648 8.01156 1.02551 0 0 1.00001 0.000218377
366 17.756 7.15483 0.216082 0 0 1.00002 0.000130452
370 18.957 7.31189 0.635757 0 0 1.00003 0.000187184
451 18.88 8.12667 1.17311 0 0 1.00002 0.000270579
376 19.8347 7.62171 1.30818 0 0 1.00003 0.000289334
453 19.7655 8.10693 0.356293 0 0 1.00003 0.000292495
449 18.3971 8.16945 0.172953 0 0 1.00002 0.000224812
374 20.6738 7.42154 0.661207 0 0 1.00004 0.000314933
455 20.6267 8.39755 1.01806 0 0 1.00004 0.000404134
380 21.5347 7.6264 1.12897 0 0 1.00004 0.000431498
457 21.6071 8.29878 0.254716 0 0 1.00004 0.000469922
459 22.6041 8.12921 0.998369 0 0 1.00005 0.000589765
1218 22.4291 7.44962 1.72684 0 0 1.00005 0.00054735
378 22.3428 7.43742 0.37902 0 0 1.00005 0.000480946
384 23.475 7.27376 1.03502 0 0 1.00005 0.000620389
461 23.5212 8.02736 0.375933 0 0 1.00005 0.000674628
463 24.3979 8.04836 0.979744 0 0 1.00005 0.000803728
1302 24.3128 8.66916 1.65544 0 0 1.00006 0.000891982
382 24.3836 7.2765 0.265303 0 0 1.00005 0.00071361
462 24.3698 8.77378 0.203764 0 0 1.00005 0.000845551
388 25.1829 7.34568 1.23141 0 0 1.00005 0.000849694
467 26.109 7.96124 0.972621 0 0 1.00005 0.0010076
1306 26.1161 8.57923 1.72447 0 0 1.00006 0.00111322
386 26.1703 7.2315 0.363158 0 0 1.00005 0.000930655
465 25.2985 8.07996 0.303239 0 0 1.00005 0.000901508
466 26.3658 8.54177 0.0880952 0 0 1.00005 0.00107221
468 25.3627 8.80871 0.988085 0 0 1.00006 0.000998667
392 26.8804 7.07215 1.322 0 0 1.00005 0.0010284
470 28.0862 8.46972 0.417668 0 0 1.00005 0.0012543
471 27.9156 7.79872 1.19681 0 0 1.00005 0.00119911
472 27.0884 8.61437 1.00835 0 0 1.00005 0.0011847
469 27.0979 7.74311 0.426762 0 0 1.00005 0.00108343
396 28.7709 7.08086 1.21688 0 0 1.00005 0.00120822
474 29.7358 8.3389 0.538117 0 0 1.00004 0.00137869
475 29.6331 7.65517 1.26694 0 0 1.00004 0.00132836
476 28.9133 8.52747 1.172 0 0 1.00005 0.00135624
473 28.8222 7.69336 0.411024 0 0 1.00005 0.00124739
400 30.4623 7.07415 1.17336 0 0 1.00004 0.00132026
479 31.3965 7.81062 1.29516 0 0 1.00003 0.00143587
480 30.5809 8.47378 1.17839 0 0 1.00004 0.00146055
477 30.7796 7.85917 0.379761 0 0 1.00004 0.00138881
478 31.5798 8.61024 0.390073 0 0 1.00003 0.00149063
482 1.29241 10.285 0.271184 0 0 1.00002 0.00166712
483 1.18285 9.37237 1.20338 0 0 1.00002 0.00161251
484 0.425462 9.92885 0.899119 0 0 1.00003 0.00164252
481 0.529836 9.3362 0.123731 0 0 1.00003 0.00157348
1322 0.988627 10.1275 1.7532 0 0 1.00002 0.00171839
485 1.91498 9.46001 0.45024 0 0 1.00002 0.00159249
488 1.99702 10.3722 0.974182 0 0 1.00001 0.00169125
486 2.75251 10.2895 0.080906 0 0 1.00001 0.00164558
487 2.5337 9.45895 1.22707 0 0 1.00001 0.0016083
1326 2.93689 10.2497 1.68047 0 0 1.00001 0.00170253
489 3.22552 9.38465 0.0870735 0 0 1.00001 0.0015478
1329 3.36424 9.26137 1.67513 0 0 1.00001 0.00158991
492 3.53524 10.0582 0.746032 0 0 1 0.00161126
491 4.0758 9.13589 0.866931 0 0 1 0.00150115
493 4.70838 9.21653 0.00708021 0 0 0.999996 0.00145291
496 4.74438 10.0094 0.578913 0 0 0.999995 0.00153641
1330 4.27407 9.99706 1.6306 0 0 0.999998 0.00161762
1333 4.81108 9.09896 1.66763 0 0 0.999995 0.00149736
495 5.45225 8.98516 0.670522 0 0 0.999992 0.00138755
500 6.35334 9.83512 0.526873 0 0 0.999985 0.00138958
1334 5.45149 9.86859 1.18894 0 0 0.999991 0.0014969
1337 6.26657 9.09995 1.28194 0 0 0.999987 0.0013568
1417 6.36156 10.5527 1.21338 0 0 0.999984 0.00148909
499 7.25659 8.92541 0.727295 0 0 0.999982 0.00121623
501 8.16892 9.09436 0.0856521 0 0 0.99998 0.00111754
504 8.04406 9.9723 0.590719 0 0 0.999978 0.00122762
1338 7.27484 9.78388 1.21912 0 0 0.999981 0.00132474
1341 8.12403 9.21514 1.42819 0 0 0.999978 0.00118861
503 8.99874 9.50094 0.744713 0 0 0.999976 0.00107578
508 9.69357 10.3809 0.678448 0 0 0.999974 0.00107271
1342 8.82331 10.3089 1.44185 0 0 0.999974 0.00122112
1345 9.87225 9.6363 1.44634 0 0 0.999974 0.00102315
432 11.3736 8.89146 0.74864 0 0 0.999978 0.000717856
426 10.4252 8.93046 0.0413505 0 0 0.999977 0.000823322
507 10.4908 9.72729 0.673312 0 0 0.999975 0.000909097
1346 10.6632 10.2197 1.6728 0 0 0.999972 0.0010044
1349 11.318 9.67688 1.34752 0 0 0.999976 0.00083916
436 12.9725 8.99532 0.800621 0 0 0.999983 0.00054571
511 12.0982 9.8516 0.702961 0 0 0.999977 0.000722214
516 12.8029 10.5094 0.978804 0 0 0.999978 0.000714402
1353 12.5352 9.65559 1.64268 0 0 0.999978 0.000716746
1274 13.652 8.87774 1.59066 0 0 0.999984 0.000515505
440 14.4187 9.21654 0.770439 0 0 0.99999 0.000428932
515 13.5 9.71518 0.851558 0 0 0.999984 0.000561117
1354 13.4738 10.4447 1.73607 0 0 0.99998 0.000701697
517 14.2298 10.171 0.221163 0 0 0.999987 0.000511003
444 15.8435 9.16545 1.14158 0 0 1 0.000354794
519 15.0832 9.87542 1.02202 0 0 0.999993 0.000451706
521 15.6367 10.1883 0.253911 0 0 0.999997 0.000414998
523 16.4517 9.96012 0.965255 0 0 1 0.000391276
442 16.4499 9.03555 0.262954 0 0 1 0.000289039
438 15.2422 9.21789 0.10185 0 0 0.999995 0.000354039
452 18.2506 8.88181 0.939092 0 0 1.00002 0.000299817
448 17.0382 9.06325 1.12776 0 0 1.00001 0.000313475
525 17.1018 10.021 0.206992 0 0 1.00001 0.000357994
527 17.7265 9.85843 1.06885 0 0 1.00001 0.00037901
446 17.7108 9.09759 0.118284 0 0 1.00002 0.000283804
456 19.793 8.93067 1.05175 0 0 1.00003 0.00038763
529 18.5549 9.71678 0.299171 0 0 1.00002 0.000357825
531 19.4753 9.87379 0.844756 0 0 1.00003 0.000434454
532 18.6855 10.4388 1.13747 0 0 1.00002 0.000457699
1369 18.6161 9.56837 1.6991 0 0 1.00002 0.000424749
450 19.2033 8.93888 0.209762 0 0 1.00003 0.000322329
533 19.9674 9.75937 0.0714725 0 0 1.00003 0.000439704
535 20.9265 9.77742 0.743761 0 0 1.00004 0.000540448
1373 20.2323 9.63472 1.65299 0 0 1.00004 0.000526121
454 20.7778 9.04683 0.203355 0 0 1.00004 0.00045038
460 21.6348 8.99857 0.965368 0 0 1.00005 0.000554579
1374 21.09 10.0766 1.76161 0 0 1.00004 0.000654239
1298 22.4203 8.84743 1.56541 0 0 1.00005 0.000665784
539 22.8651 9.65252 0.792958 0 0 1.00005 0.000748658
540 22.1249 10.4899 0.856309 0 0 1.00005 0.000733839
1377 21.9399 9.75227 1.51988 0 0 1.00005 0.000692488
1378 23.0822 10.4764 1.42582 0 0 1.00006 0.00088989
458 22.7812 8.83195 0.197963 0 0 1.00005 0.000649268
537 21.9856 9.77306 0.209016 0 0 1.00005 0.000637134