ITEM: TIMESTEP
26000
ITEM: NUMBER OF ATOMS
32000
ITEM: BOX BOUNDS pp pp pp
0.0000000000000000e+00 3.1748021039364001e+01
0.0000000000000000e+00 3.1748021039364001e+01
0.0000000000000000e+00 3.1748021039364001e+01
ITEM: ATOMS id x y z c_phase c_nbond c_rho vx
4 0.316964 1.09689 0.471292 0 0 1.00003 0.00148082
83 1.17433 1.66695 0.784255 0 0 1.00003 0.00152155
842 0.920612 0.790786 1.40905 0 0 1.00003 0.00150865
921 0.211632 1.59685 1.38089 0 0 1.00003 0.00151031
3 0.929828 0.0706059 0.624099 0 0 1.00003 0.00148467
841 0.0411464 0.268192 1.25678 0 0 1.00003 0.00147361
8 1.91199 0.823246 1.01519 0 0 1.00003 0.00150972
85 2.005 1.48878 0.214716 0 0 1.00003 0.00151528
925 2.04028 1.66239 1.75778 0 0 1.00003 0.00155547
6 2.71111 0.747313 0.204808 0 0 1.00003 0.00149256
7 2.7787 0.0590434 1.04132 0 0 1.00003 0.00149669
87 2.84181 1.5476 0.881278 0 0 1.00003 0.00151889
846 2.87469 0.825924 1.74492 0 0 1.00003 0.00152446
12 3.61454 0.932723 0.968484 0 0 1.00002 0.00148733
849 3.67966 0.0889199 1.71962 0 0 1.00002 0.00149671
929 3.79604 1.71509 1.72676 0 0 1.00002 0.00152749
10 4.2879 0.863754 0.323477 0 0 1.00002 0.00145179
850 4.51083 0.950779 1.64797 0 0 1.00002 0.00147379
9 3.65371 0.105447 0.17689 0 0 1.00002 0.00146512
93 5.08586 1.61113 0.389825 0 0 1.00002 0.00143554
16 5.13571 0.570444 1.17189 0 0 1.00002 0.00142055
14 5.79807 0.648992 0.324305 0 0 1.00002 0.00136774
95 6.03228 1.32666 0.956653 0 0 1.00002 0.0013767
854 5.93967 0.463294 1.71833 0 0 1.00002 0.00138707
933 5.19101 1.73119 1.44992 0 0 1.00002 0.00145549
97 6.70812 1.41002 0.222276 0 0 1.00002 0.00131916
20 6.84239 0.400902 0.881256 0 0 1.00002 0.00129698
937 6.82529 1.02394 1.71489 0 0 1.00002 0.00133313
24 8.35684 0.416314 1.08422 0 0 1.00002 0.00117044
99 7.48311 1.24032 0.964114 0 0 1.00002 0.00126167
101 8.33945 1.40781 0.241124 0 0 1.00002 0.00117983
941 8.22944 1.28888 1.63179 0 0 1.00002 0.00121635
18 7.6898 0.66165 0.150056 0 0 1.00002 0.00122033
22 8.9329 0.515494 0.273636 0 0 1.00002 0.00110404
28 9.61432 0.341064 0.905223 0 0 1.00002 0.00104377
103 9.09821 1.32546 1.12246 0 0 1.00002 0.00111986
105 9.69633 1.38819 0.0956693 0 0 1.00002 0.00104735
32 11.2284 0.218866 0.645798 0 0 1.00001 0.000877769
107 10.4046 1.06294 0.836536 0 0 1.00001 0.000975256
866 10.5585 0.20163 1.46626 0 0 1.00001 0.000962923
949 11.3083 1.02889 1.43678 0 0 1.00001 0.000898946
946 10.6179 1.70136 1.75092 0 0 1.00001 0.000999706
26 10.2851 0.371858 0.0803766 0 0 1.00001 0.000968004
36 12.8611 0.216217 0.646623 0 0 1.00001 0.000724356
111 12.0426 1.08614 0.517823 0 0 1.00001 0.000809489
870 12.1302 0.320024 1.31799 0 0 1.00001 0.000805768
953 12.7085 1.20788 1.39 0 0 1.00001 0.00076829
40 14.334 0.327781 0.781296 0 0 1.00002 0.000610218
115 13.5619 1.12004 0.853382 0 0 1.00001 0.000681679
117 14.0089 1.56942 0.164694 0 0 1.00002 0.000650445
874 13.583 0.36392 1.65073 0 0 1.00001 0.000688011
957 14.3404 1.15928 1.49085 0 0 1.00002 0.000639114
119 14.8346 1.56116 0.668978 0 0 1.00002 0.000599751
38 15.0544 0.713499 0.0679905 0 0 1.00002 0.00056238
44 15.6566 0.768438 0.791276 0 0 1.00002 0.000538136
123 16.4956 1.5436 0.684117 0 0 1.00002 0.000522346
878 15.0956 0.466239 1.64983 0 0 1.00002 0.000584154
882 16.4907 0.710329 1.34558 0 0 1.00002 0.000517047
961 15.5807 1.49355 1.39899 0 0 1.00002 0.000571876
48 17.2033 0.729272 0.553022 0 0 1.00002 0.000486834
127 17.872 1.57747 0.754989 0 0 1.00002 0.000502468
886 17.8642 0.741512 1.42406 0 0 1.00002 0.000497549
965 17.1666 1.74525 1.56327 0 0 1.00002 0.000532067
51 19.4993 0.0133219 0.660461 0 0 1.00002 0.000504516
52 18.7457 0.72274 0.683814 0 0 1.00002 0.00049025
131 19.504 1.54297 0.836936 0 0 1.00002 0.000529519
889 18.9819 0.153952 1.53863 0 0 1.00002 0.00050676
890 19.5592 0.960164 1.68116 0 0 1.00002 0.000537266
969 18.6157 1.50202 1.49453 0 0 1.00002 0.000521102
55 21.0858 0.34539 1.05841 0 0 1.00003 0.000588605
56 20.2225 0.769669 0.970657 0 0 1.00003 0.000544699
135 21.0965 1.63487 0.945914 0 0 1.00003 0.00061297
54 21.1767 0.757677 0.215592 0 0 1.00003 0.00058941
133 20.3218 1.50031 0.195828 0 0 1.00003 0.000555928
57 22.0185 0.261578 0.533525 0 0 1.00003 0.000646234
59 22.8225 0.42394 1.38998 0 0 1.00003 0.000729026
60 22.1248 1.13517 1.31583 0 0 1.00003 0.000680899
137 22.0074 1.58218 0.528971 0 0 1.00003 0.000668682
58 22.9458 1.05586 0.444544 0 0 1.00003 0.000733262
63 24.3019 0.374697 1.42563 0 0 1.00003 0.000870063
61 23.6145 0.350778 0.568126 0 0 1.00003 0.000785841
62 24.5056 1.16781 0.744264 0 0 1.00003 0.000887482
64 23.5264 1.23027 1.38413 0 0 1.00003 0.000808016
65 25.0393 0.311828 0.543357 0 0 1.00003 0.000926822
67 26.1154 0.375192 1.15837 0 0 1.00003 0.00104533
68 25.2588 1.11161 1.45753 0 0 1.00003 0.000979513
147 26.0419 1.71502 1.33905 0 0 1.00003 0.00107273
66 25.9973 0.922592 0.423466 0 0 1.00003 0.00102966
70 27.7198 1.26943 0.382578 0 0 1.00003 0.00120568
71 27.7587 0.49999 0.866277 0 0 1.00003 0.00120105
72 26.8819 1.01689 1.24627 0 0 1.00003 0.0011346
69 26.9163 0.238338 0.227924 0 0 1.00003 0.00110996
913 28.544 0.339776 1.39791 0 0 1.00003 0.00127962
76 28.8156 1.22388 0.729034 0 0 1.00003 0.00130244
914 29.5587 0.951544 1.55949 0 0 1.00003 0.0013721
993 28.6862 1.70932 1.49122 0 0 1.00003 0.00132406
917 30.0067 0.165195 1.45005 0 0 1.00003 0.00138978
75 29.4471 0.352061 0.612734 0 0 1.00003 0.00133355
79 30.903 0.476087 0.477536 0 0 1.00003 0.00142325
80 30.2808 1.19125 0.76943 0 0 1.00003 0.00140645
918 31.0561 0.968437 1.38856 0 0 1.00003 0.00145695
82 1.31565 2.43847 0.123044 0 0 1.00003 0.00155025
84 0.340998 2.37968 0.808385 0 0 1.00003 0.00153322
163 1.4976 3.23425 0.946719 0 0 1.00003 0.0016091
922 1.34937 2.36665 1.5921 0 0 1.00003 0.00157655
1001 0.598262 3.03553 1.54936 0 0 1.00003 0.00159844
161 0.540762 3.10171 0.130675 0 0 1.00003 0.0015715
88 2.11763 2.42128 0.788364 0 0 1.00003 0.00156083
167 2.86142 3.29325 0.862622 0 0 1.00003 0.00160757
926 2.87617 2.24758 1.54791 0 0 1.00003 0.00156597
86 2.92055 2.39467 0.0554673 0 0 1.00003 0.00154466
1009 3.46861 3.43616 1.66225 0 0 1.00002 0.0016304
92 3.57644 2.57211 0.789418 0 0 1.00002 0.00154662
91 4.1896 1.84906 0.71927 0 0 1.00002 0.00148968
171 4.3896 3.34086 0.759446 0 0 1.00002 0.00156395
930 4.32866 2.66015 1.59371 0 0 1.00002 0.00154798
96 5.08192 2.58963 0.827102 0 0 1.00002 0.00148661
94 5.8078 2.46836 0.138983 0 0 1.00002 0.00142698
100 6.69754 2.20669 0.787004 0 0 1.00002 0.00135882
175 5.81667 3.22661 0.967334 0 0 1.00002 0.00148425
934 6.01686 2.22337 1.51134 0 0 1.00002 0.00142937
1017 6.67621 3.09957 1.57195 0 0 1.00002 0.00143395
173 5.16542 3.35744 0.00272454 0 0 1.00002 0.00152032
177 6.78744 2.9652 0.135345 0 0 1.00002 0.00138517
98 7.57055 2.25257 0.142186 0 0 1.00002 0.00128243
104 8.18965 2.22837 0.94683 0 0 1.00002 0.00123681
179 7.52893 3.1 0.942901 0 0 1.00002 0.0013458
938 7.42477 2.08685 1.58957 0 0 1.00002 0.00131732
1021 8.29752 3.03693 1.67604 0 0 1.00002 0.00129664
181 8.37417 3.00489 0.04266 0 0 1.00002 0.00125097
102 8.98772 2.11681 0.256983 0 0 1.00002 0.00114509
108 9.83486 2.04904 1.12218 0 0 1.00001 0.00107349
183 9.01358 3.00793 0.945791 0 0 1.00001 0.00120227
942 9.113 2.25001 1.73065 0 0 1.00002 0.00117475
185 9.63297 2.94154 0.215206 0 0 1.00001 0.00112468
106 10.3298 2.13848 0.215833 0 0 1.00001 0.00101197
112 11.1832 1.85025 0.783348 0 0 1.00001 0.000921495
187 10.6646 2.84018 0.935243 0 0 1.00001 0.00102471
1029 11.4681 2.86415 1.60153 0 0 1.00001 0.000968295
116 12.665 1.9596 0.604305 0 0 1.00001 0.000780494
191 11.939 2.67195 0.751898 0 0 1.00001 0.000884646
950 11.935 1.94152 1.48574 0 0 1.00001 0.000868159
1033 12.842 3.04692 1.7106 0 0 1.00001 0.000851229
195 13.1757 3.05088 0.854406 0 0 1.00001 0.000793993
954 13.361 2.00926 1.49607 0 0 1.00001 0.000742105
114 13.3927 2.31501 0.0594064 0 0 1.00001 0.000728229
120 13.9916 2.46237 0.932721 0 0 1.00001 0.000697622
1037 14.0062 3.40939 1.57159 0 0 1.00001 0.000770386
199 14.6648 3.45394 0.888289 0 0 1.00001 0.00070506
958 14.7503 2.31248 1.45253 0 0 1.00002 0.000651038
118 14.8008 2.52434 0.139628 0 0 1.00002 0.000634497
197 14.1285 3.24302 0.0386238 0 0 1.00001 0.000719671
124 15.6493 2.44713 0.700046 0 0 1.00002 0.00058959
203 16.2591 3.20441 0.671046 0 0 1.00002 0.000602473
962 16.2598 2.481 1.52902 0 0 1.00002 0.000585091
1041 15.3359 3.26872 1.51205 0 0 1.00002 0.000670142
201 15.5262 3.26857 0.0243487 0 0 1.00002 0.000632827
128 17.0147 2.35137 0.684017 0 0 1.00002 0.000538391
207 17.8977 2.91959 0.700808 0 0 1.00002 0.000556241
966 17.9716 2.42945 1.58024 0 0 1.00002 0.000553345
1045 17.0441 3.11265 1.49763 0 0 1.00002 0.000594844
132 18.8505 2.34601 1.00796 0 0 1.00002 0.000543567
211 19.6728 3.21635 1.26722 0 0 1.00003 0.000616775
209 18.8438 2.9816 0.193015 0 0 1.00002 0.000563067
130 19.5564 2.32214 0.10311 0 0 1.00002 0.000551806
973 20.304 1.76878 1.71354 0 0 1.00003 0.00059128
134 21.1545 2.39398 0.452164 0 0 1.00003 0.00063696
136 20.1745 2.44491 1.10317 0 0 1.00003 0.000594802
215 21.3155 3.26383 1.37323 0 0 1.00003 0.000710684
213 20.4042 2.97052 0.329942 0 0 1.00003 0.000620021
139 22.9094 2.03955 1.49289 0 0 1.00003 0.000777944
138 23.0087 2.57179 0.724494 0 0 1.00003 0.000793687
140 22.1103 2.46946 1.2235 0 0 1.00003 0.000724172
217 22.0043 3.16671 0.592621 0 0 1.00003 0.000739217
16179 22.7177 3.36108 0.0690717 0 0 1.00003 0.00080427
141 23.796 1.78588 0.615415 0 0 1.00003 0.000834642
143 24.5021 1.96105 1.58473 0 0 1.00003 0.000933203
142 24.4168 2.64901 0.763538 0 0 1.00003 0.000934249
144 23.748 2.86252 1.5143 0 0 1.00003 0.000898691
223 24.5604 3.46798 1.53327 0 0 1.00003 0.00101672
16108 25.0463 2.80587 0.0140535 0 0 1.00003 0.00100088
149 26.6738 1.77274 0.505746 0 0 1.00003 0.0011227
145 25.2224 1.83195 0.506551 0 0 1.00003 0.000977339
146 25.9046 2.57894 0.695443 0 0 1.00003 0.00108171
148 25.2581 2.52699 1.50185 0 0 1.00003 0.00103132
227 25.8405 3.45565 1.49297 0 0 1.00004 0.00114813
152 26.6657 2.53431 1.50955 0 0 1.00004 0.00117735
229 26.302 3.46312 0.586943 0 0 1.00004 0.00117364
151 27.6505 1.96454 1.21995 0 0 1.00003 0.00123803
153 28.4136 2.07222 0.340667 0 0 1.00003 0.0012944
150 27.2304 2.66324 0.631663 0 0 1.00004 0.0012184
231 27.3599 3.31849 1.39755 0 0 1.00004 0.00128897
156 28.4206 2.7304 1.18903 0 0 1.00003 0.00134213
233 28.1469 3.19445 0.329593 0 0 1.00004 0.00132902
155 29.6239 2.02039 0.878398 0 0 1.00003 0.00139314
154 29.3735 2.65378 0.28417 0 0 1.00003 0.00139757
235 29.4435 3.23573 1.17268 0 0 1.00003 0.00145344
997 30.1539 1.79607 1.69685 0 0 1.00003 0.00144229
159 31.109 1.97113 0.920636 0 0 1.00003 0.00148016
160 30.377 2.69618 0.996183 0 0 1.00003 0.00147733
239 31.2359 3.32808 0.972514 0 0 1.00003 0.00155972
998 31.192 2.68241 1.72229 0 0 1.00003 0.00154248
237 30.3184 3.2286 0.147454 0 0 1.00003 0.00149369
157 30.5965 1.897 0.0333014 0 0 1.00003 0.00144009
158 31.3437 2.65036 0.0761976 0 0 1.00003 0.00151265
164 0.514279 3.77771 0.919859 0 0 1.00003 0.00162672
241 0.370077 4.59693 0.472613 0 0 1.00003 0.0016807
243 1.36265 4.66952 0.989623 0 0 1.00003 0.0017183
244 0.333417 5.25969 1.27317 0 0 1.00003 0.00175968
162 1.26213 3.85974 0.0712835 0 0 1.00003 0.00163745
168 2.07204 4.05021 0.852878 0 0 1.00003 0.0016684
247 2.76553 4.8748 1.13468 0 0 1.00003 0.00174251
166 2.86579 4.15954 0.203883 0 0 1.00003 0.00166186
245 2.12728 4.97123 0.284203 0 0 1.00003 0.00173785
249 3.62738 4.8828 0.165648 0 0 1.00002 0.00170673
172 3.69634 4.09965 0.89489 0 0 1.00002 0.00164812
251 4.2668 4.90989 1.16098 0 0 1.00002 0.00170737
170 4.45277 4.20708 0.147835 0 0 1.00002 0.00161924
176 5.10141 4.03798 1.18625 0 0 1.00002 0.00159329
253 5.20249 4.77858 0.339815 0 0 1.00002 0.00163355
174 5.93618 3.97451 0.195657 0 0 1.00002 0.00151888
180 6.6535 3.80904 0.790864 0 0 1.00002 0.0014634
255 5.87416 4.77104 1.04609 0 0 1.00002 0.00160677
1097 6.82837 4.56444 1.67372 0 0 1.00002 0.00154456
260 6.84186 5.18773 0.89522 0 0 1.00002 0.00157366
184 8.3154 3.93212 0.717796 0 0 1.00002 0.0013302
259 7.54772 4.5095 0.561679 0 0 1.00002 0.00144429
1018 7.54007 3.91302 1.52431 0 0 1.00002 0.00142402
1101 8.32857 4.66387 1.51375 0 0 1.00001 0.00141716
188 9.96401 3.62356 0.902784 0 0 1.00001 0.00114811
263 9.17631 4.61899 0.838686 0 0 1.00001 0.00130829
265 9.93585 4.56045 0.131841 0 0 1.00001 0.00121457
1022 9.16678 3.81132 1.52666 0 0 1.00001 0.0012636
1105 9.95195 4.40258 1.68856 0 0 1.00001 0.00124247
182 9.07891 3.9121 0.0646965 0 0 1.00001 0.00124765
192 11.4368 3.68427 0.798909 0 0 1.00001 0.00099976
267 10.6475 4.71321 0.925518 0 0 1.00001 0.00116878
269 11.4231 4.7432 0.232813 0 0 1.00001 0.00107902
1026 10.7552 3.6138 1.61707 0 0 1.00001 0.0010904
1109 11.404 4.42943 1.73379 0 0 1.00001 0.00109704
186 10.6362 3.8901 0.178978 0 0 1.00001 0.00108733
196 12.5139 3.61987 0.826933 0 0 1.00001 0.00089122
271 12.2073 4.59511 1.01746 0 0 1.00001 0.00100317
1113 12.7608 5.03733 1.71623 0 0 1.00001 0.00102007
275 13.224 4.72445 0.81314 0 0 1.00001 0.000913073
273 12.6453 4.65915 0.0636733 0 0 1.00001 0.000950538
200 13.972 4.1532 0.706231 0 0 1.00001 0.000801256
1034 13.4776 4.2532 1.61339 0 0 1.00001 0.000879699
1117 14.1881 5.14767 1.54188 0 0 1.00001 0.000896569
279 14.9151 5.03484 0.820551 0 0 1.00001 0.000808276
1038 14.939 4.43363 1.60733 0 0 1.00001 0.000783097
277 14.1221 4.93099 0.0682342 0 0 1.00001 0.000845264
198 14.9263 4.20965 0.10232 0 0 1.00001 0.000730309
204 15.6271 4.07735 0.929603 0 0 1.00002 0.000692142
281 15.8373 4.78382 0.189143 0 0 1.00002 0.000724673
283 16.5526 4.58363 0.903534 0 0 1.00002 0.000691249
1042 16.2788 3.96477 1.69448 0 0 1.00002 0.000680847
1121 15.7809 5.06168 1.65169 0 0 1.00001 0.000791035
208 17.2246 3.82801 0.811204 0 0 1.00002 0.00061792
287 18.0463 4.47339 1.09366 0 0 1.00002 0.000664026
1046 17.911 3.62801 1.65169 0 0 1.00002 0.000622719
285 17.4095 4.56947 0.0180079 0 0 1.00002 0.000658921
206 18.0933 3.84007 0.0623986 0 0 1.00002 0.000604281
212 18.8387 3.68854 0.947565 0 0 1.00002 0.000613872
289 18.7916 4.58766 0.359552 0 0 1.00002 0.000665706
291 19.6671 4.64344 1.07821 0 0 1.00003 0.000708013
292 18.7568 5.25163 1.19202 0 0 1.00002 0.000736436
210 19.571 3.74105 0.22906 0 0 1.00002 0.000627044
216 20.4267 3.78875 1.22118 0 0 1.00003 0.0006845
295 20.8881 4.67513 1.37449 0 0 1.00003 0.000781656
297 21.6039 4.90326 0.794616 0 0 1.00003 0.00083207
214 21.0877 3.89562 0.506472 0 0 1.00003 0.000715642
293 20.1277 4.74948 0.34483 0 0 1.00003 0.000722072
219 22.8662 3.58544 1.39789 0 0 1.00003 0.000855736
220 21.9643 4.08801 1.29167 0 0 1.00003 0.000810416
299 22.5204 5.11577 1.25314 0 0 1.00003 0.000936826
218 22.6574 4.29818 0.507059 0 0 1.00003 0.000866467
221 23.6358 3.5927 0.7683 0 0 1.00003 0.00091206
222 24.4235 4.27248 0.615131 0 0 1.00004 0.0010358
224 23.5357 4.49284 1.31302 0 0 1.00003 0.000982499
305 24.968 5.1931 0.554614 0 0 1.00004 0.00116864
301 23.6234 5.00904 0.521878 0 0 1.00004 0.00101283
303 24.4641 5.22788 1.40619 0 0 1.00004 0.00114281
228 25.124 4.44079 1.59096 0 0 1.00004 0.0011516
225 25.1653 3.62787 0.784176 0 0 1.00004 0.00107024
307 25.8318 5.08063 1.32182 0 0 1.00004 0.00126978
232 26.5046 4.24065 1.3518 0 0 1.00004 0.00126962
309 26.6578 4.92208 0.630262 0 0 1.00004 0.00132184
226 25.6526 4.35205 0.386881 0 0 1.00004 0.0011664
311 27.5062 4.82143 1.38252 0 0 1.00004 0.00141785
236 28.1363 3.9362 1.09219 0 0 1.00004 0.00139266
230 27.2211 3.99773 0.568553 0 0 1.00004 0.00130127
313 28.4668 4.6978 0.694681 0 0 1.00004 0.00147447
234 29.1199 3.74625 0.473795 0 0 1.00004 0.00144845
315 29.2883 4.48765 1.31099 0 0 1.00004 0.00153946
314 29.6046 5.27732 0.804294 0 0 1.00004 0.00161855
240 30.2032 4.03477 1.02137 0 0 1.00003 0.00155687
238 31.2446 3.97055 0.359768 0 0 1.00003 0.00159675
317 30.4254 4.66595 0.473967 0 0 1.00003 0.00161221
319 31.2062 4.5903 1.38868 0 0 1.00003 0.00166971
242 1.15624 5.52715 0.461428 0 0 1.00003 0.00178405
323 1.05866 6.20606 1.27675 0 0 1.00003 0.00187307
324 0.520575 6.92087 1.49747 0 0 1.00003 0.00194742
322 1.24278 6.93965 0.569025 0 0 1.00003 0.00193434
321 0.232933 5.99154 0.448117 0 0 1.00003 0.00180668
248 1.78413 5.51691 1.37853 0 0 1.00003 0.00181697
328 1.9763 7.03583 1.24884 0 0 1.00003 0.00197269
325 2.13867 6.21112 0.513146 0 0 1.00003 0.00186112
252 3.35486 5.64972 1.30554 0 0 1.00002 0.00181338
327 2.52745 6.1766 1.41967 0 0 1.00003 0.00188395
246 2.92063 5.62301 0.276352 0 0 1.00003 0.00179273
332 3.50934 6.9962 1.15302 0 0 1.00002 0.00194862
329 3.6397 6.30277 0.497362 0 0 1.00002 0.00184886
250 4.41128 5.49697 0.330852 0 0 1.00002 0.00173856
331 4.36174 6.12968 1.24555 0 0 1.00002 0.00182925
336 5.01027 6.8554 1.1802 0 0 1.00002 0.001877
330 4.24738 7.05223 0.231703 0 0 1.00002 0.00190898
333 5.049 6.2778 0.336064 0 0 1.00002 0.00178976
256 5.14778 5.47441 1.32593 0 0 1.00002 0.00172744
254 5.96461 5.45889 0.304451 0 0 1.00002 0.00165095
335 5.8931 6.28437 0.979391 0 0 1.00002 0.00175823
1177 6.65486 6.04485 1.63028 0 0 1.00002 0.00170676
340 6.6382 6.93063 1.02003 0 0 1.00002 0.00177911
337 6.57466 6.10984 0.15501 0 0 1.00002 0.00167368
264 8.3431 5.3732 0.713435 0 0 1.00001 0.00145813
339 7.49024 6.2134 0.773953 0 0 1.00001 0.00162433
1098 7.55406 5.47221 1.52557 0 0 1.00001 0.00156795
344 8.17807 6.92308 0.746953 0 0 1.00001 0.00163998
1178 7.47009 6.92268 1.63681 0 0 1.00001 0.00174527
258 7.48127 5.41239 0.0450654 0 0 1.00002 0.00152958
1181 8.38233 6.17853 1.53119 0 0 1.00001 0.0015714
268 9.85804 5.3825 0.812582 0 0 1.00001 0.001311
343 9.00991 6.2533 0.75613 0 0 1.00001 0.00148766
1102 9.16532 5.3906 1.62715 0 0 1.00001 0.0014161
1185 9.84467 6.25361 1.5084 0 0 1.00001 0.00143379
1182 9.2253 7.02758 1.50273 0 0 1.00001 0.00158649
345 9.86093 6.29974 0.0999673 0 0 1.00001 0.00139538
262 9.11071 5.5294 0.0205197 0 0 1.00001 0.00139043
272 11.437 5.33028 1.01211 0 0 1.00001 0.00114995
347 10.6643 6.08657 0.982707 0 0 1.00001 0.00130534
349 11.3733 6.43022 0.0807898 0 0 1.00001 0.00125175
346 10.6097 7.01342 0.15568 0 0 1.00001 0.00139516
1186 10.5661 7.00027 1.53652 0 0 1.00001 0.00144881
270 12.0295 5.67628 0.188857 0 0 1.00001 0.0011053
276 12.6958 5.86252 0.879676 0 0 1.00001 0.00107349
351 11.8225 6.27015 1.07682 0 0 1.00001 0.00120841
1114 13.3367 5.91291 1.58815 0 0 1.00001 0.00104726
355 13.3671 6.62467 0.826629 0 0 1.00001 0.00108643
274 13.3203 5.58054 0.0450995 0 0 1.00001 0.000971336
280 14.0541 5.75211 0.786433 0 0 1.00001 0.000937286
1197 14.3233 6.68721 1.43316 0 0 1.00001 0.00103894
357 14.1259 6.42145 0.0416616 0 0 1.00001 0.000985909
278 14.9974 5.66198 0.0386342 0 0 1.00001 0.000847751
359 15.0297 6.47617 0.816404 0 0 1.00001 0.000938175
284 15.8008 5.75011 0.961155 0 0 1.00001 0.000825428
363 16.4643 6.45856 1.14837 0 0 1.00002 0.000871743
1118 15.0904 5.89806 1.71439 0 0 1.00001 0.00091542
282 16.5833 5.42224 0.277188 0 0 1.00002 0.000748762
361 15.6525 6.35673 0.0436839 0 0 1.00001 0.000874329
286 17.7933 5.29269 0.540009 0 0 1.00002 0.000717961
288 17.0757 5.4215 1.24832 0 0 1.00002 0.000758269
365 17.0354 6.2732 0.411805 0 0 1.00002 0.000814966
367 17.6381 6.23504 1.37954 0 0 1.00002 0.000831068
372 18.2582 7.03187 1.13079 0 0 1.00002 0.000898147
369 18.3501 6.20888 0.609113 0 0 1.00002 0.000800948
290 19.4163 5.72265 0.614143 0 0 1.00002 0.000777818
371 19.3182 6.52059 1.33193 0 0 1.00002 0.0008728
373 19.9988 6.70501 0.601753 0 0 1.00003 0.000891659
294 20.7634 5.72605 0.641537 0 0 1.00003 0.000841851
296 20.1881 5.5665 1.37732 0 0 1.00003 0.000818225
375 20.7996 6.55707 1.28118 0 0 1.00003 0.000943566
377 21.6982 6.60364 0.654747 0 0 1.00003 0.000989275
300 21.6956 5.81796 1.35633 0 0 1.00003 0.00093731
16260 21.7247 5.67851 0.0525976 0 0 1.00003 0.00089756
298 22.7321 5.7706 0.653919 0 0 1.00003 0.000997983
379 22.7019 6.62364 1.17907 0 0 1.00004 0.00109543
381 23.4379 6.70553 0.262772 0 0 1.00004 0.00114785
304 23.5686 5.82068 1.26663 0 0 1.00004 0.00110146
383 24.4409 6.49593 1.1363 0 0 1.00004 0.00125469
302 24.246 5.93759 0.413771 0 0 1.00004 0.00115747
306 25.8327 5.80023 0.680651 0 0 1.00004 0.00131807
308 25.2477 5.96993 1.63631 0 0 1.00004 0.00130811
385 25.3022 6.66612 0.481349 0 0 1.00004 0.001343
387 25.9998 6.531 1.37656 0 0 1.00004 0.00143513
312 26.866 5.78913 1.44508 0 0 1.00004 0.00145017
310 27.6873 5.49692 0.705263 0 0 1.00004 0.00147745
389 26.9303 6.30809 0.631782 0 0 1.00004 0.00148116
391 27.9064 6.4122 1.34274 0 0 1.00004 0.00161018
390 27.9258 6.95255 0.514961 0 0 1.00004 0.00164235
392 26.9872 7.05122 1.31035 0 0 1.00004 0.00158997
316 28.5756 5.47937 1.45606 0 0 1.00004 0.00158044
395 29.6723 6.15343 1.3046 0 0 1.00004 0.00172701
394 29.8258 6.88323 0.501688 0 0 1.00004 0.00179067
393 28.6892 6.16562 0.634185 0 0 1.00004 0.00163148
16355 29.6027 6.10734 0.0739422 0 0 1.00004 0.00168847
16276 28.6861 5.35465 0.0494182 0 0 1.00004 0.0015457
318 31.2036 5.34474 0.589617 0 0 1.00003 0.00171563
320 30.4545 5.42892 1.44515 0 0 1.00004 0.00170938
397 30.6356 6.16025 0.637665 0 0 1.00004 0.00176767
399 31.4698 6.13473 1.37498 0 0 1.00003 0.00182907
398 31.4708 6.93231 0.603749 0 0 1.00003 0.00188963
401 0.543662 7.63147 0.65348 0 0 1.00003 0.00199527
402 1.1414 8.46997 0.607656 0 0 1.00003 0.00210112
403 1.39781 7.85468 1.49431 0 0 1.00003 0.00207228
404 0.654363 8.54711 1.46206 0 0 1.00003 0.00213319
405 1.87924 7.77208 0.380549 0 0 1.00003 0.00202807
408 2.03265 8.63076 1.46832 0 0 1.00003 0.00216437
326 2.74938 7.16008 0.474146 0 0 1.00003 0.00196014
406 2.49944 8.63752 0.402528 0 0 1.00003 0.0021248
407 2.68125 7.82935 1.28999 0 0 1.00003 0.0020619
412 3.31496 8.54638 0.953648 0 0 1.00003 0.00212116
409 3.51259 7.79214 0.33353 0 0 1.00003 0.00201379
410 4.09539 8.49501 0.0806542 0 0 1.00002 0.00207522
411 4.24624 7.6883 1.24939 0 0 1.00002 0.0020072
416 4.9638 8.31346 0.951965 0 0 1.00002 0.00203862
413 4.92641 7.68927 0.244287 0 0 1.00002 0.00194952
334 5.76858 7.098 0.15581 0 0 1.00002 0.00183817
414 6.1101 8.40632 0.180775 0 0 1.00002 0.00196588
415 5.72405 7.63418 1.04443 0 0 1.00002 0.0019222
417 6.70072 7.60736 0.173268 0 0 1.00002 0.00183235
420 6.62499 8.28058 1.07243 0 0 1.00002 0.0019388
419 7.48592 7.8305 0.769779 0 0 1.00001 0.00180852
1258 7.48719 8.2429 1.74231 0 0 1.00001 0.00190906
1261 8.23377 7.56012 1.60107 0 0 1.00001 0.00175213
421 8.17243 7.67476 0.0287059 0 0 1.00001 0.00171641
424 8.45538 8.38996 0.89949 0 0 1.00001 0.00179441
348 9.95051 7.28891 0.749711 0 0 1.00001 0.00151006
423 9.06041 7.68762 0.683904 0 0 1.00001 0.00164364
428 9.86959 8.69109 0.721102 0 0 1.00001 0.00168267
1262 9.25108 8.77324 1.49547 0 0 1.00001 0.00179931
1265 9.7898 7.96145 1.64391 0 0 1.00001 0.00165453
352 11.3805 7.20832 0.831946 0 0 1.00001 0.00135321
427 10.6785 8.01206 0.870417 0 0 1.00001 0.00152299
1266 10.7046 8.78615 1.47842 0 0 1.00001 0.00164922
1269 11.4836 7.88368 1.64614 0 0 1.00001 0.00146643
429 11.3116 8.18656 0.0479323 0 0 1.00001 0.00145504
356 12.7427 7.34452 0.584958 0 0 1.00001 0.00121962
431 12.2382 8.29081 0.614918 0 0 1.00001 0.00138173
1190 12.1291 7.22195 1.41702 0 0 1.00001 0.00130438
1270 12.16 8.7486 1.53986 0 0 1.00001 0.00149361
1273 12.9015 8.05966 1.516 0 0 1.00001 0.00133165
350 11.9534 7.44804 0.000955827 0 0 1.00001 0.00130231
360 14.3292 7.39053 0.606999 0 0 1.00001 0.00108085
435 13.6391 8.14307 0.484613 0 0 1.00001 0.00122109
1194 13.4885 7.3875 1.37706 0 0 1.00001 0.00118634
1277 14.2673 8.21621 1.38273 0 0 1.00001 0.00121367
439 15.0771 8.32027 0.878694 0 0 1.00001 0.00113615
362 16.4134 7.18988 0.28375 0 0 1.00002 0.000924246
364 15.6185 7.3272 0.925071 0 0 1.00001 0.000993302
443 16.2557 8.16916 1.11816 0 0 1.00001 0.00106105
1198 15.1385 7.54992 1.65454 0 0 1.00001 0.00109011
441 15.853 8.32398 0.156719 0 0 1.00001 0.00106915
368 16.9604 7.35709 1.11849 0 0 1.00002 0.000947233
445 17.0505 8.10278 0.33667 0 0 1.00002 0.000998584
447 17.7001 8.01122 1.02813 0 0 1.00002 0.000997606
366 17.7982 7.1546 0.218453 0 0 1.00002 0.000886916
370 19.0037 7.30347 0.632985 0 0 1.00002 0.000917656
451 18.9328 8.11901 1.17035 0 0 1.00002 0.00102197
376 19.8871 7.60861 1.3023 0 0 1.00003 0.0010042
453 19.8187 8.09368 0.355784 0 0 1.00003 0.00101836
449 18.4485 8.16451 0.176595 0 0 1.00002 0.000988809
374 20.7271 7.40588 0.656297 0 0 1.00003 0.00100149
455 20.6892 8.37964 1.01224 0 0 1.00003 0.0011127
380 21.597 7.60578 1.12069 0 0 1.00003 0.0010994
457 21.6727 8.27827 0.254284 0 0 1.00003 0.00114908
459 22.6783 8.10718 0.988937 0 0 1.00004 0.00124023
1218 22.4981 7.42619 1.71396 0 0 1.00004 0.00119002
378 22.4077 7.41538 0.37631 0 0 1.00004 0.00112393
458 22.8571 8.81173 0.196476 0 0 1.00004 0.00130911
384 23.5498 7.25112 1.03034 0 0 1.00004 0.00123526
461 23.5992 8.00486 0.369625 0 0 1.00004 0.00130198
463 24.4865 8.02039 0.968968 0 0 1.00004 0.00141388
1302 24.4082 8.64742 1.64406 0 0 1.00004 0.00151704
382 24.4619 7.25078 0.264795 0 0 1.00004 0.0013093
462 24.4612 8.74568 0.201259 0 0 1.00004 0.00146921
388 25.2747 7.31993 1.21968 0 0 1.00004 0.00143483
467 26.214 7.93805 0.965498 0 0 1.00004 0.00159151
1306 26.2281 8.55389 1.70908 0 0 1.00004 0.00170887
386 26.2647 7.20441 0.361695 0 0 1.00004 0.00149912
465 25.3928 8.04996 0.302258 0 0 1.00004 0.0014965
466 26.4725 8.51766 0.0883611 0 0 1.00004 0.00166249
468 25.4662 8.78153 0.977308 0 0 1.00004 0.00160678
470 28.2078 8.44879 0.409398 0 0 1.00004 0.00183074
471 28.036 7.77523 1.18692 0 0 1.00004 0.00176596
472 27.2074 8.59219 1.00021 0 0 1.00004 0.00177071
469 27.2072 7.72042 0.42274 0 0 1.00004 0.00165312
1310 28.0404 8.63527 1.75535 0 0 1.00004 0.0019005
396 28.888 7.06034 1.20898 0 0 1.00004 0.00176064
474 29.8693 8.33091 0.534039 0 0 1.00004 0.00195299
475 29.7607 7.6405 1.26139 0 0 1.00004 0.00189164
476 29.0409 8.50737 1.16427 0 0 1.00004 0.00193265
473 28.9462 7.67886 0.407943 0 0 1.00004 0.00180957
400 30.5907 7.06087 1.16933 0 0 1.00004 0.00187662
479 31.5313 7.7984 1.29001 0 0 1.00004 0.00201026
480 30.7202 8.46046 1.17517 0 0 1.00004 0.0020403
477 30.9121 7.84863 0.37972 0 0 1.00004 0.00195845
478 31.7231 8.59811 0.389172 0 0 1.00003 0.002078
482 1.45158 10.2819 0.267899 0 0 1.00003 0.00229542
483 1.33793 9.3632 1.19924 0 0 1.00003 0.00222672
484 0.582682 9.92625 0.900883 0 0 1.00003 0.00225696
481 0.6797 9.33248 0.124618 0 0 1.00003 0.00217966
1322 1.1511 10.1244 1.75102 0 0 1.00003 0.00234318
485 2.06505 9.46415 0.446157 0 0 1.00003 0.00221877
488 2.15712 10.3656 0.975647 0 0 1.00003 0.00233086
486 2.90683 10.2929 0.077745 0 0 1.00003 0.00229678
487 2.68644 9.46098 1.22523 0 0 1.00003 0.00224468
1326 3.09526 10.2531 1.68489 0 0 1.00003 0.00235731
489 3.3758 9.38606 0.0934944 0 0 1.00003 0.00219406
1329 3.5236 9.27107 1.68629 0 0 1.00002 0.00223945
492 3.68926 10.0687 0.754604 0 0 1.00002 0.00227442
491 4.22273 9.14572 0.872052 0 0 1.00002 0.00216183
493 4.84974 9.23489 0.00611885 0 0 1.00002 0.00212909
496 4.89208 10.0238 0.581403 0 0 1.00002 0.00222467
1330 4.43019 10.0058 1.63112 0 0 1.00002 0.00229424
1333 4.95833 9.11035 1.67232 0 0 1.00002 0.00217409
495 5.59054 9.00623 0.674928 0 0 1.00002 0.00207771
500 6.49129 9.85478 0.533155 0 0 1.00001 0.00211369
1334 5.60445 9.88573 1.20559 0 0 1.00002 0.00219956
1337 6.40449 9.12416 1.29354 0 0 1.00001 0.00206884
1417 6.5103 10.5746 1.22813 0 0 1.00001 0.00222224
499 7.38191 8.94626 0.736564 0 0 1.00001 0.0019488
501 8.28941 9.11806 0.0889694 0 0 1.00001 0.00187555
504 8.1743 9.9972 0.59767 0 0 1.00001 0.0019966
1338 7.40468 9.80675 1.23292 0 0 1.00001 0.00207172
1341 8.24759 9.23755 1.4416 0 0 1.00001 0.00194752
503 9.1159 9.52286 0.75291 0 0 1.00001 0.00186069
508 9.81095 10.4014 0.69013 0 0 1.00001 0.00188761
1342 8.95081 10.3252 1.45932 0 0 1.00001 0.00201254
1345 9.98262 9.65701 1.46492 0 0 1.00001 0.00183073
432 11.4606 8.91474 0.757159 0 0 1.00001 0.00154139
426 10.525 8.95156 0.0401674 0 0 1.00001 0.0016297
507 10.5976 9.74998 0.683899 0 0 1.00001 0.00173136
1346 10.774 10.2482 1.69237 0 0 1 0.00183783
1349 11.4249 9.69631 1.36661 0 0 1 0.00167508
436 13.0444 9.01076 0.808275 0 0 1.00001 0.00138932
511 12.1876 9.87042 0.712986 0 0 1 0.001574
516 12.8948 10.5307 0.988486 0 0 1 0.0015849
1353 12.6311 9.67901 1.661 0 0 1 0.00156969
1274 13.7253 8.90167 1.60519 0 0 1.00001 0.00136135
440 14.4855 9.22808 0.778581 0 0 1.00001 0.00127976
515 13.582 9.73948 0.862781 0 0 1.00001 0.00142223
1354 13.5658 10.4683 1.75259 0 0 1 0.00157518
517 14.3059 10.1823 0.226248 0 0 1.00001 0.00138135
444 15.905 9.17239 1.14664 0 0 1.00001 0.00119318
519 15.1551 9.89019 1.03151 0 0 1.00001 0.00131291
521 15.7047 10.1951 0.254852 0 0 1.00001 0.00127678
523 16.5174 9.96569 0.970754 0 0 1.00001 0.00123686
442 16.5055 9.0436 0.265977 0 0 1.00001 0.00111534
438 15.3021 9.22734 0.109788 0 0 1.00001 0.00119962
452 18.3078 8.87906 0.939551 0 0 1.00002 0.00108389
448 17.0968 9.06353 1.13007 0 0 1.00002 0.00112924
525 17.1668 10.0219 0.206727 0 0 1.00002 0.00119247
527 17.791 9.85536 1.06951 0 0 1.00002 0.00119572
446 17.767 9.09589 0.120259 0 0 1.00002 0.00108549
456 19.8563 8.91816 1.04522 0 0 1.00003 0.0011298
529 18.6169 9.71237 0.300228 0 0 1.00002 0.00115106
531 19.5403 9.86459 0.844976 0 0 1.00003 0.00120596
532 18.7546 10.4346 1.13632 0 0 1.00002 0.001261
1369 18.6804 9.56334 1.69624 0 0 1.00002 0.00121314
450 19.2593 8.93027 0.209903 0 0 1.00003 0.00108231
533 20.037 9.74746 0.0703805 0 0 1.00003 0.00119421
535 21.001 9.76214 0.742189 0 0 1.00003 0.00126768
1373 20.3016 9.62237 1.64351 0 0 1.00003 0.00126934
454 20.842 9.02841 0.200217 0 0 1.00003 0.00116711
460 21.7056 8.978 0.957379 0 0 1.00004 0.00124681
1374 21.17 10.0599 1.74669 0 0 1.00004 0.00137975
1298 22.5026 8.82424 1.55456 0 0 1.00004 0.00133506
539 22.9507 9.63342 0.787166 0 0 1.00004 0.00142187
540 22.2143 10.4685 0.841932 0 0 1.00004 0.00143942
1377 22.027 9.73285 1.50499 0 0 1.00004 0.00139033
1378 23.1792 10.4546 1.409 0 0 1.00004 0.00157025
537 22.0637 9.75313 0.210047 0 0 1.00004 0.00133488
464 23.5643 8.89956 0.947255 0 0 1.00004 0.00141133
543 24.6858 9.50463 0.746424 0 0 1.00004 0.0015918
1381 23.8481 9.54747 1.52413 0 0 1.00004 0.00155301
1382 24.5761 10.283 1.42123 0 0 1.00005 0.00170191