ITEM: TIMESTEP
22500
ITEM: NUMBER OF ATOMS
32000
ITEM: BOX BOUNDS pp pp pp
0.0000000000000000e+00 3.1748021039364001e+01
0.0000000000000000e+00 3.1748021039364001e+01
0.0000000000000000e+00 3.1748021039364001e+01
ITEM: ATOMS id x y z c_phase c_nbond c_rho vx
4 0.2688 1.09808 0.469834 0 0 1.00002 0.00124275
83 1.12567 1.66755 0.782987 0 0 1.00002 0.00127859
842 0.87061 0.791472 1.4101 0 0 1.00002 0.00126731
921 0.16168 1.59803 1.37949 0 0 1.00003 0.00127098
3 0.881241 0.0692684 0.622559 0 0 1.00002 0.00124445
8 1.86244 0.82046 1.01549 0 0 1.00002 0.00126374
85 1.95498 1.48616 0.216406 0 0 1.00002 0.00126844
925 1.98715 1.66276 1.75921 0 0 1.00002 0.00130687
6 2.66333 0.7483 0.20487 0 0 1.00002 0.00124242
7 2.73166 0.0580262 1.04101 0 0 1.00002 0.00124596
87 2.79349 1.54682 0.882213 0 0 1.00002 0.0012665
846 2.82362 0.824117 1.74587 0 0 1.00002 0.0012718
12 3.56777 0.933858 0.966597 0 0 1.00002 0.00123049
849 3.63309 0.0900327 1.71752 0 0 1.00002 0.00123886
929 3.74725 1.71453 1.72657 0 0 1.00002 0.00126732
10 4.24002 0.863279 0.324245 0 0 1.00002 0.00119078
850 4.46663 0.949838 1.64508 0 0 1.00002 0.00120931
9 3.60787 0.106804 0.175646 0 0 1.00002 0.001209
93 5.03991 1.61006 0.388847 0 0 1.00002 0.0011674
16 5.08812 0.57027 1.17386 0 0 1.00002 0.00115281
14 5.7543 0.64883 0.325248 0 0 1.00002 0.00109523
95 5.98893 1.32424 0.953098 0 0 1.00002 0.00110105
97 6.66678 1.40695 0.221734 0 0 1.00002 0.00103852
854 5.89452 0.463126 1.71542 0 0 1.00002 0.00111213
933 5.14678 1.73149 1.44798 0 0 1.00002 0.00118499
20 6.80184 0.398688 0.87838 0 0 1.00002 0.00101591
937 6.78339 1.02166 1.71182 0 0 1.00002 0.00105058
24 8.32223 0.414922 1.08346 0 0 1.00002 0.000877379
99 7.44414 1.23746 0.963226 0 0 1.00002 0.000974637
101 8.30383 1.40552 0.240569 0 0 1.00002 0.000886513
941 8.19184 1.28664 1.62753 0 0 1.00002 0.000922451
18 7.6523 0.658922 0.147523 0 0 1.00002 0.000932906
22 8.90026 0.514487 0.27491 0 0 1.00002 0.000807555
28 9.58273 0.341194 0.901932 0 0 1.00001 0.000742582
103 9.06569 1.32269 1.12253 0 0 1.00001 0.00082056
105 9.6661 1.38714 0.0941973 0 0 1.00001 0.000744795
32 11.2044 0.218347 0.643134 0 0 1.00001 0.000568261
107 10.3761 1.0602 0.834261 0 0 1.00001 0.000668712
866 10.5311 0.200322 1.4628 0 0 1.00001 0.000655358
949 11.2817 1.02762 1.43386 0 0 1.00001 0.000587379
946 10.5893 1.69733 1.74833 0 0 1.00001 0.000689245
26 10.2566 0.371421 0.0800891 0 0 1.00001 0.000663381
36 12.8411 0.215273 0.644894 0 0 1.00001 0.000410659
111 12.0213 1.08416 0.515596 0 0 1.00001 0.000496378
870 12.1082 0.319455 1.31473 0 0 1.00001 0.000492311
953 12.6875 1.20661 1.38694 0 0 1.00001 0.000452422
40 14.3181 0.326164 0.778424 0 0 1.00001 0.000296617
115 13.5443 1.11885 0.851745 0 0 1.00001 0.000366262
117 13.9913 1.56771 0.165263 0 0 1.00001 0.00033501
874 13.5642 0.363155 1.64804 0 0 1.00001 0.000372083
957 14.3237 1.15737 1.4882 0 0 1.00001 0.000323246
119 14.8189 1.55961 0.667808 0 0 1.00001 0.000285501
38 15.0407 0.71304 0.0678554 0 0 1.00001 0.00025073
44 15.6429 0.76851 0.790491 0 0 1.00001 0.00022812
123 16.4832 1.5432 0.683385 0 0 1.00001 0.000215024
878 15.0807 0.465785 1.64811 0 0 1.00001 0.000270581
882 16.4783 0.710332 1.34452 0 0 1.00001 0.000210167
961 15.5668 1.49188 1.39736 0 0 1.00001 0.000259008
48 17.1911 0.729445 0.552024 0 0 1.00001 0.000185558
127 17.8596 1.57744 0.754924 0 0 1.00001 0.000204141
886 17.852 0.741435 1.42402 0 0 1.00001 0.000199503
965 17.1535 1.74516 1.56256 0 0 1.00001 0.000226907
51 19.4866 0.0138527 0.660489 0 0 1.00002 0.000221524
52 18.7337 0.722828 0.68363 0 0 1.00002 0.000200437
131 19.4905 1.5442 0.837254 0 0 1.00002 0.000244531
889 18.9698 0.154582 1.53897 0 0 1.00002 0.000217795
890 19.5453 0.960852 1.6817 0 0 1.00002 0.000252262
969 18.602 1.50308 1.49472 0 0 1.00002 0.000227589
55 21.0681 0.345919 1.05929 0 0 1.00002 0.000318647
56 20.2085 0.770378 0.971778 0 0 1.00002 0.000267184
135 21.0803 1.63815 0.946046 0 0 1.00002 0.000341871
54 21.1612 0.758494 0.216143 0 0 1.00002 0.000320853
133 20.3072 1.50199 0.195182 0 0 1.00002 0.000278687
57 21.9999 0.261001 0.534415 0 0 1.00002 0.000384797
59 22.8004 0.424692 1.39254 0 0 1.00002 0.000472784
60 22.1052 1.1363 1.31741 0 0 1.00002 0.000418585
137 21.9889 1.58405 0.530819 0 0 1.00002 0.000405661
58 22.9248 1.05944 0.443525 0 0 1.00002 0.000478707
63 24.2726 0.375357 1.43106 0 0 1.00002 0.000623924
61 23.5907 0.351982 0.56855 0 0 1.00002 0.000536442
62 24.4791 1.17107 0.745916 0 0 1.00002 0.000642949
64 23.5013 1.23349 1.3869 0 0 1.00002 0.000556205
65 25.0099 0.312194 0.544911 0 0 1.00002 0.000685939
67 26.0833 0.376739 1.1602 0 0 1.00003 0.000808728
68 25.2289 1.11341 1.46164 0 0 1.00002 0.000738197
147 26.0085 1.71768 1.34195 0 0 1.00003 0.000833974
66 25.9652 0.922834 0.425155 0 0 1.00002 0.000792759
70 27.6811 1.271 0.383709 0 0 1.00003 0.000973023
71 27.7204 0.501823 0.867403 0 0 1.00003 0.000968945
72 26.8468 1.01849 1.24916 0 0 1.00003 0.00089987
69 26.8817 0.23845 0.22712 0 0 1.00003 0.000876667
913 28.5011 0.338985 1.39725 0 0 1.00003 0.00104743
76 28.7738 1.22742 0.731552 0 0 1.00003 0.00107068
914 29.5171 0.949995 1.56101 0 0 1.00003 0.00113927
993 28.6451 1.71048 1.49177 0 0 1.00003 0.00109054
917 29.9596 0.166757 1.45221 0 0 1.00003 0.00115687
75 29.404 0.352612 0.612922 0 0 1.00003 0.00110225
841 31.7406 0.267825 1.25673 0 0 1.00002 0.00123644
79 30.8545 0.479116 0.476022 0 0 1.00003 0.00118942
80 30.2367 1.1929 0.770309 0 0 1.00003 0.00117329
918 31.0099 0.969011 1.38967 0 0 1.00003 0.00122152
82 1.26603 2.43875 0.124471 0 0 1.00002 0.00130524
84 0.291183 2.38057 0.809216 0 0 1.00002 0.00129243
163 1.44708 3.23608 0.947546 0 0 1.00002 0.00136062
922 1.29872 2.36629 1.59229 0 0 1.00002 0.00133025
1001 0.54772 3.03499 1.54944 0 0 1.00003 0.00135387
161 0.49094 3.10082 0.130937 0 0 1.00002 0.00132814
88 2.0668 2.42187 0.787634 0 0 1.00002 0.00131123
167 2.81089 3.29208 0.862775 0 0 1.00002 0.00135081
926 2.82461 2.24466 1.54565 0 0 1.00002 0.00131106
86 2.87174 2.39301 0.0556675 0 0 1.00002 0.00129038
1009 3.41547 3.43641 1.66074 0 0 1.00002 0.00136839
92 3.52685 2.56976 0.787665 0 0 1.00002 0.00128711
91 4.1418 1.84887 0.718026 0 0 1.00002 0.00122748
171 4.3404 3.33801 0.757752 0 0 1.00002 0.00129637
930 4.27763 2.65801 1.59256 0 0 1.00002 0.00128206
96 5.03584 2.58828 0.825276 0 0 1.00002 0.00121588
94 5.76274 2.46493 0.137661 0 0 1.00002 0.00115101
100 6.6546 2.20295 0.784552 0 0 1.00002 0.00107623
175 5.76917 3.22264 0.965169 0 0 1.00002 0.0012057
934 5.97193 2.21884 1.50974 0 0 1.00002 0.00115147
1017 6.62956 3.09547 1.57044 0 0 1.00002 0.00114831
173 5.11867 3.35543 0.000946863 0 0 1.00002 0.00124696
177 6.74523 2.9593 0.135456 0 0 1.00002 0.00109983
98 7.53103 2.24886 0.142038 0 0 1.00002 0.000993158
104 8.15023 2.22498 0.944116 0 0 1.00001 0.000942433
179 7.48673 3.09633 0.942715 0 0 1.00002 0.00105404
938 7.38337 2.0831 1.58673 0 0 1.00002 0.00102826
1021 8.25692 3.03258 1.67298 0 0 1.00001 0.000998
181 8.33507 3.00055 0.0419527 0 0 1.00001 0.000953371
102 8.95197 2.11184 0.256446 0 0 1.00001 0.00084568
108 9.80214 2.04578 1.12128 0 0 1.00001 0.000768021
183 8.9771 3.00325 0.943144 0 0 1.00001 0.000899293
942 9.07745 2.24597 1.72658 0 0 1.00001 0.000872192
185 9.59816 2.93627 0.215373 0 0 1.00001 0.00081834
106 10.2998 2.13503 0.21625 0 0 1.00001 0.000703944
112 11.1564 1.84614 0.781385 0 0 1.00001 0.000609615
187 10.6343 2.83574 0.933467 0 0 1.00001 0.000712073
1029 11.4405 2.85884 1.59708 0 0 1.00001 0.000650618
116 12.6433 1.95666 0.602359 0 0 1.00001 0.000464062
191 11.9136 2.66678 0.750567 0 0 1.00001 0.000567386
950 11.9097 1.93829 1.48242 0 0 1.00001 0.000552305
1033 12.8178 3.04225 1.70659 0 0 1.00001 0.000528843
195 13.1515 3.04778 0.853792 0 0 1.00001 0.000473055
954 13.3402 2.00618 1.49352 0 0 1.00001 0.000423533
114 13.3728 2.31135 0.0594795 0 0 1.00001 0.000410241
120 13.9727 2.4592 0.931813 0 0 1.00001 0.00037869
1037 13.9847 3.40485 1.56911 0 0 1.00001 0.000446374
199 14.6452 3.45072 0.887716 0 0 1.00001 0.000382931
958 14.7319 2.30958 1.45156 0 0 1.00001 0.000333107
118 14.7842 2.52244 0.139124 0 0 1.00001 0.00031732
197 14.1093 3.23999 0.0375382 0 0 1.00001 0.000398208
124 15.6345 2.44593 0.698654 0 0 1.00001 0.000275234
203 16.2428 3.20292 0.669355 0 0 1.00001 0.000287856
962 16.2446 2.47999 1.52791 0 0 1.00001 0.000272194
1041 15.3168 3.26616 1.50992 0 0 1.00001 0.000349922
201 15.5096 3.2662 0.02352 0 0 1.00001 0.000314776
128 17.001 2.35046 0.683498 0 0 1.00001 0.000231796
207 17.8834 2.91954 0.700195 0 0 1.00001 0.000253698
966 17.9577 2.43002 1.57961 0 0 1.00001 0.000251849
1045 17.0287 3.11208 1.49648 0 0 1.00001 0.000284197
132 18.8365 2.34682 1.0083 0 0 1.00002 0.000250468
211 19.657 3.21921 1.26817 0 0 1.00002 0.000327189
209 18.8294 2.98269 0.193364 0 0 1.00002 0.000268212
130 19.5417 2.32446 0.102692 0 0 1.00002 0.000265669
973 20.2883 1.77125 1.71421 0 0 1.00002 0.000311311
134 21.1363 2.39641 0.453015 0 0 1.00002 0.000364555
136 20.1583 2.44775 1.10444 0 0 1.00002 0.000312903
215 21.2954 3.26708 1.3758 0 0 1.00002 0.000435745
213 20.3877 2.9727 0.330607 0 0 1.00002 0.000339113
139 22.886 2.04424 1.49432 0 0 1.00002 0.000519753
138 22.986 2.57545 0.726109 0 0 1.00002 0.000536022
140 22.0906 2.47325 1.22508 0 0 1.00002 0.000459202
217 21.9841 3.17063 0.593117 0 0 1.00002 0.000471573
16179 22.6927 3.36646 0.0709107 0 0 1.00002 0.000541816
141 23.772 1.78872 0.616666 0 0 1.00002 0.000584798
143 24.4746 1.96466 1.58919 0 0 1.00002 0.000686221
142 24.3885 2.65372 0.765172 0 0 1.00002 0.000685883
144 23.7218 2.86849 1.5172 0 0 1.00002 0.000644651
223 24.5294 3.47365 1.53643 0 0 1.00003 0.000765686
16108 25.0158 2.81228 0.0142827 0 0 1.00003 0.000756035
149 26.6383 1.77607 0.506413 0 0 1.00003 0.000886858
145 25.1924 1.8355 0.506283 0 0 1.00002 0.000735597
146 25.8707 2.58398 0.697461 0 0 1.00003 0.000841185
148 25.2257 2.53049 1.50545 0 0 1.00003 0.000786934
227 25.805 3.46183 1.49536 0 0 1.00003 0.000903709
152 26.6295 2.53771 1.51278 0 0 1.00003 0.000938737
229 26.264 3.46856 0.588934 0 0 1.00003 0.000931763
151 27.6118 1.9679 1.22309 0 0 1.00003 0.00100352
153 28.3716 2.07514 0.341108 0 0 1.00003 0.00106112
150 27.1917 2.66787 0.634245 0 0 1.00003 0.000981887
231 27.3177 3.32406 1.40036 0 0 1.00003 0.00104982
156 28.3782 2.73509 1.19198 0 0 1.00003 0.00110662
233 28.1047 3.19821 0.32864 0 0 1.00003 0.0010924
155 29.5807 2.02541 0.878463 0 0 1.00003 0.00115961
154 29.3295 2.6539 0.285302 0 0 1.00003 0.0011627
235 29.3961 3.24096 1.17241 0 0 1.00003 0.00121625
997 30.106 1.79849 1.69878 0 0 1.00003 0.00120707
159 31.0611 1.97422 0.921308 0 0 1.00003 0.0012435
160 30.3299 2.69912 0.997106 0 0 1.00003 0.00124073
239 31.1854 3.33312 0.972487 0 0 1.00003 0.00131922
998 31.1426 2.68521 1.72291 0 0 1.00003 0.00130288
237 30.2682 3.23431 0.144304 0 0 1.00003 0.0012561
157 30.5517 1.8993 0.0315106 0 0 1.00003 0.00120553
158 31.2955 2.65344 0.0761489 0 0 1.00003 0.00127419
164 0.462076 3.77961 0.9198 0 0 1.00003 0.00138103
241 0.316189 4.59712 0.474843 0 0 1.00003 0.00143245
243 1.30947 4.67114 0.989363 0 0 1.00002 0.00146521
244 0.275802 5.26191 1.27408 0 0 1.00003 0.00150831
162 1.20918 3.86136 0.0689277 0 0 1.00002 0.00138847
168 2.01635 4.05078 0.851829 0 0 1.00002 0.00141403
247 2.71029 4.87277 1.13581 0 0 1.00002 0.00148034
166 2.81231 4.15823 0.204839 0 0 1.00002 0.00140236
245 2.07197 4.97249 0.283079 0 0 1.00002 0.00147978
249 3.57234 4.88107 0.164861 0 0 1.00002 0.00143934
172 3.64516 4.09691 0.893488 0 0 1.00002 0.00138288
251 4.21082 4.90674 1.15902 0 0 1.00002 0.00143471
170 4.40259 4.20525 0.148227 0 0 1.00002 0.00134843
176 5.05079 4.03275 1.18734 0 0 1.00002 0.00131744
253 5.15072 4.77376 0.340695 0 0 1.00002 0.00135453
174 5.89061 3.96988 0.196887 0 0 1.00002 0.00123684
180 6.60472 3.80275 0.787605 0 0 1.00002 0.00117633
255 5.82056 4.76768 1.04286 0 0 1.00002 0.00132226
1097 6.77938 4.55674 1.66932 0 0 1.00002 0.00125203
260 6.79388 5.17947 0.894749 0 0 1.00002 0.001279
184 8.27332 3.92754 0.714879 0 0 1.00001 0.00102924
259 7.50273 4.50285 0.559 0 0 1.00001 0.00114694
1018 7.49456 3.90769 1.52028 0 0 1.00001 0.0011286
1101 8.28394 4.65692 1.5104 0 0 1.00001 0.00111221
188 9.92981 3.61661 0.900248 0 0 1.00001 0.000836327
263 9.13664 4.6115 0.836396 0 0 1.00001 0.000997457
265 9.89984 4.5512 0.130985 0 0 1.00001 0.000898908
1022 9.12956 3.80428 1.52243 0 0 1.00001 0.000955414
1105 9.91326 4.3942 1.68371 0 0 1.00001 0.000926468
182 9.04039 3.90615 0.0647416 0 0 1.00001 0.000941206
192 11.4077 3.67843 0.794957 0 0 1.00001 0.000680089
267 10.6128 4.70735 0.922815 0 0 1.00001 0.00084782
269 11.3917 4.73565 0.233072 0 0 1.00001 0.000754371
1026 10.7229 3.60645 1.61254 0 0 1.00001 0.000773044
1109 11.372 4.41982 1.73003 0 0 1.00001 0.000772394
186 10.6029 3.88447 0.178914 0 0 1.00001 0.000771047
196 12.4901 3.61232 0.825055 0 0 1.00001 0.000568077
271 12.179 4.58815 1.01495 0 0 1.00001 0.000675697
1113 12.7287 5.03176 1.71228 0 0 1.00001 0.000688343
275 13.1977 4.71624 0.811201 0 0 1.00001 0.000583035
273 12.6193 4.65277 0.0638666 0 0 1.00001 0.000622144
200 13.949 4.14893 0.704584 0 0 1.00001 0.000474692
1034 13.4521 4.24733 1.61026 0 0 1.00001 0.000551115
1117 14.1633 5.14258 1.53806 0 0 1.00001 0.000563192
279 14.8922 5.03013 0.818897 0 0 1.00001 0.000477772
1038 14.9166 4.4303 1.60492 0 0 1.00001 0.000455348
277 14.0984 4.92682 0.0666482 0 0 1.00001 0.000514498
198 14.9066 4.20652 0.101316 0 0 1.00001 0.000405281
204 15.6087 4.07465 0.928834 0 0 1.00001 0.000369702
281 15.8184 4.78142 0.188679 0 0 1.00001 0.000399489
283 16.5339 4.58164 0.902507 0 0 1.00001 0.000370625
1042 16.2601 3.96258 1.69312 0 0 1.00001 0.000360921
1121 15.7586 5.05922 1.64925 0 0 1.00001 0.000462507
208 17.2082 3.8276 0.81076 0 0 1.00001 0.000305984
287 18.029 4.47407 1.09365 0 0 1.00001 0.000354451
1046 17.8946 3.62809 1.65141 0 0 1.00001 0.000315683
285 17.3929 4.56913 0.0174007 0 0 1.00001 0.000344508
206 18.0774 3.84094 0.0616435 0 0 1.00001 0.00029928
212 18.8231 3.68987 0.947306 0 0 1.00002 0.000315284
289 18.7737 4.58932 0.359648 0 0 1.00002 0.000362375
291 19.6487 4.64728 1.07735 0 0 1.00002 0.000411806
292 18.7372 5.25356 1.19247 0 0 1.00002 0.000428383
210 19.5544 3.74368 0.228488 0 0 1.00002 0.000335313
216 20.4082 3.79245 1.22222 0 0 1.00002 0.000399508
295 20.8665 4.68007 1.37664 0 0 1.00002 0.000496603
297 21.5786 4.90898 0.796791 0 0 1.00002 0.000552921
214 21.0668 3.89959 0.506993 0 0 1.00002 0.000436819
293 20.1066 4.75337 0.345966 0 0 1.00002 0.000430249
219 22.8405 3.59191 1.40114 0 0 1.00002 0.00059273
220 21.9412 4.09364 1.29379 0 0 1.00002 0.000537979
299 22.4922 5.12427 1.25499 0 0 1.00002 0.000664352
218 22.6308 4.30461 0.506535 0 0 1.00002 0.00059955
221 23.6083 3.59934 0.77048 0 0 1.00002 0.000655472
222 24.392 4.27877 0.616142 0 0 1.00003 0.000781664
224 23.5064 4.5008 1.31507 0 0 1.00003 0.000720936
305 24.9309 5.20291 0.556246 0 0 1.00003 0.000913574
301 23.5935 5.01615 0.523492 0 0 1.00003 0.000750044
303 24.4295 5.23618 1.40967 0 0 1.00003 0.000884052
228 25.0877 4.44985 1.59593 0 0 1.00003 0.000900027
225 25.1322 3.63651 0.787382 0 0 1.00003 0.000823027
307 25.7911 5.08925 1.32419 0 0 1.00003 0.00101885
232 26.4639 4.24831 1.35445 0 0 1.00003 0.00102497
309 26.6155 4.92963 0.631697 0 0 1.00003 0.00107517
226 25.6154 4.3591 0.386358 0 0 1.00003 0.000918567
311 27.4608 4.82894 1.38619 0 0 1.00003 0.00117332
236 28.0921 3.94281 1.09384 0 0 1.00003 0.00115302
230 27.1801 4.00501 0.568237 0 0 1.00003 0.00106029
313 28.4196 4.70386 0.696599 0 0 1.00003 0.00123227
234 29.0735 3.75013 0.476335 0 0 1.00003 0.00121017
315 29.2394 4.49385 1.31466 0 0 1.00003 0.00129775
314 29.5528 5.28285 0.806631 0 0 1.00003 0.00137345
240 30.1538 4.04169 1.02193 0 0 1.00003 0.00131635
238 31.1934 3.97159 0.362381 0 0 1.00003 0.00135407
317 30.373 4.66852 0.47703 0 0 1.00003 0.00136869
319 31.1523 4.59243 1.39316 0 0 1.00003 0.001424
242 1.09755 5.52939 0.461814 0 0 1.00003 0.0015286
323 0.996875 6.20994 1.27713 0 0 1.00003 0.0016146
324 0.459051 6.92117 1.50011 0 0 1.00003 0.00168722
322 1.179 6.94232 0.570065 0 0 1.00003 0.00167181
321 0.172664 5.99304 0.447704 0 0 1.00003 0.00155264
248 1.72376 5.51763 1.37975 0 0 1.00002 0.00155771
328 1.9126 7.03644 1.2475 0 0 1.00002 0.00170552
325 2.08052 6.21082 0.514714 0 0 1.00002 0.00159723
252 3.2938 5.64604 1.30589 0 0 1.00002 0.00154392
327 2.46459 6.17407 1.41907 0 0 1.00002 0.00161726
246 2.86265 5.62319 0.275936 0 0 1.00002 0.00152708
332 3.44742 6.99228 1.14896 0 0 1.00002 0.00167198
329 3.57969 6.30127 0.49874 0 0 1.00002 0.00157517
250 4.35475 5.49283 0.330111 0 0 1.00002 0.00146269
331 4.30446 6.12602 1.24338 0 0 1.00002 0.0015505
333 4.9908 6.27225 0.336283 0 0 1.00002 0.00150529
336 4.94952 6.84768 1.17768 0 0 1.00002 0.00158973
330 4.18597 7.05005 0.229825 0 0 1.00002 0.00162737
256 5.09162 5.46821 1.32618 0 0 1.00002 0.00144548
254 5.91432 5.45485 0.304702 0 0 1.00002 0.00136277
335 5.83849 6.28057 0.977509 0 0 1.00002 0.00146688
1177 6.59923 6.03661 1.6258 0 0 1.00002 0.00140962
340 6.58047 6.92268 1.02029 0 0 1.00001 0.00147845
337 6.51915 6.09937 0.155423 0 0 1.00002 0.00137719
264 8.29814 5.36498 0.71041 0 0 1.00001 0.00115025
339 7.44001 6.20702 0.771102 0 0 1.00001 0.00131962
1098 7.50377 5.4658 1.52069 0 0 1.00001 0.00126591
1181 8.33406 6.16899 1.5255 0 0 1.00001 0.00125877
344 8.12517 6.91342 0.744996 0 0 1.00001 0.00132597
1178 7.41414 6.91611 1.63149 0 0 1.00001 0.00143745
258 7.43375 5.405 0.0456842 0 0 1.00001 0.0012288
268 9.8177 5.37299 0.809653 0 0 1.00001 0.000991516
343 8.96245 6.24448 0.753561 0 0 1.00001 0.0011703
1102 9.12227 5.38173 1.62385 0 0 1.00001 0.00110113
1185 9.80033 6.2455 1.50223 0 0 1.00001 0.00110969
1182 9.17705 7.01639 1.49751 0 0 1.00001 0.00126276
345 9.81846 6.28956 0.0991038 0 0 1.00001 0.00107114
262 9.06691 5.51985 0.0188998 0 0 1.00001 0.00107587
272 11.4023 5.32126 1.00722 0 0 1.00001 0.000821467
347 10.6232 6.07694 0.981117 0 0 1.00001 0.000977111
349 11.3349 6.42169 0.0806031 0 0 1.00001 0.000917813
346 10.566 7.00217 0.156582 0 0 1.00001 0.00106185
1186 10.5212 6.98925 1.53112 0 0 1.00001 0.00111561
270 11.9973 5.66926 0.188053 0 0 1.00001 0.000772792
276 12.6641 5.85613 0.877037 0 0 1.00001 0.000737637
351 11.7868 6.26003 1.0736 0 0 1.00001 0.000872684
1114 13.305 5.90528 1.58247 0 0 1.00001 0.000709238
355 13.3343 6.61822 0.82505 0 0 1.00001 0.000744659
274 13.2929 5.57353 0.0447933 0 0 1.00001 0.000636331
280 14.0269 5.74565 0.784131 0 0 1.00001 0.000600767
1197 14.2937 6.68105 1.42837 0 0 1.00001 0.000695913
357 14.097 6.41488 0.0410912 0 0 1.00001 0.000645342
278 14.9749 5.65834 0.0378644 0 0 1.00001 0.000513767
359 15.003 6.47105 0.814738 0 0 1.00001 0.000598425
284 15.7777 5.74696 0.960522 0 0 1.00001 0.000493391
363 16.4397 6.45581 1.14617 0 0 1.00001 0.000538228
1118 15.0638 5.89369 1.71138 0 0 1.00001 0.00057895
282 16.5627 5.42018 0.277044 0 0 1.00001 0.000423458
361 15.6272 6.35232 0.0427958 0 0 1.00001 0.00053788
286 17.7734 5.29204 0.539894 0 0 1.00001 0.000401791
288 17.0553 5.42027 1.24742 0 0 1.00001 0.000435396
365 17.0116 6.27139 0.411529 0 0 1.00001 0.000486775
367 17.6149 6.23468 1.3795 0 0 1.00001 0.000507079
372 18.2325 7.03247 1.1293 0 0 1.00002 0.000574166
369 18.327 6.21035 0.608511 0 0 1.00002 0.000483703
290 19.394 5.72631 0.614533 0 0 1.00002 0.000473347
371 19.2939 6.52399 1.3336 0 0 1.00002 0.00056207
373 19.9728 6.71041 0.602335 0 0 1.00002 0.000586827
294 20.7382 5.73206 0.642995 0 0 1.00002 0.000550471
296 20.1659 5.57134 1.37894 0 0 1.00002 0.000521697
375 20.7722 6.56356 1.28313 0 0 1.00002 0.000647438
377 21.6693 6.61071 0.65568 0 0 1.00002 0.000701646
300 21.6687 5.82575 1.35987 0 0 1.00002 0.000654023
16260 21.6975 5.68517 0.0522587 0 0 1.00002 0.000615539
298 22.7022 5.77761 0.657184 0 0 1.00003 0.000724261
379 22.6689 6.63298 1.18231 0 0 1.00003 0.000816728
381 23.4025 6.71659 0.263016 0 0 1.00003 0.00087486
304 23.5347 5.82914 1.27154 0 0 1.00003 0.000833815
383 24.4011 6.50504 1.13836 0 0 1.00003 0.000989349
302 24.2106 5.94787 0.415978 0 0 1.00003 0.000894398
306 25.79 5.80955 0.683924 0 0 1.00003 0.00106409
308 25.2071 5.98047 1.64248 0 0 1.00003 0.00105025
385 25.2599 6.67805 0.483241 0 0 1.00003 0.00108231
387 25.9518 6.54023 1.38063 0 0 1.00003 0.00117756
312 26.8198 5.79761 1.44979 0 0 1.00003 0.00119962
310 27.6389 5.50414 0.708167 0 0 1.00003 0.00123048
389 26.8826 6.31685 0.63524 0 0 1.00003 0.00122857
391 27.8554 6.42246 1.34597 0 0 1.00003 0.00135909
390 27.8722 6.96132 0.517586 0 0 1.00003 0.0013886
316 28.5239 5.48639 1.46139 0 0 1.00003 0.00133407
395 29.6165 6.15812 1.30755 0 0 1.00003 0.00147716
394 29.7673 6.88524 0.502662 0 0 1.00003 0.00153709
393 28.6354 6.17198 0.634464 0 0 1.00003 0.0013822
16355 29.5484 6.1154 0.0747285 0 0 1.00003 0.00143982
16276 28.6361 5.36016 0.0515245 0 0 1.00003 0.00130065
318 31.147 5.34953 0.590792 0 0 1.00003 0.00146742
320 30.3985 5.43478 1.44962 0 0 1.00003 0.00146205
397 30.5792 6.16422 0.640159 0 0 1.00003 0.00151693
399 31.4114 6.13906 1.37701 0 0 1.00003 0.001576
398 31.4079 6.93711 0.603651 0 0 1.00003 0.00163294
401 0.478162 7.63216 0.655567 0 0 1.00003 0.00173192
402 1.06994 8.46987 0.610516 0 0 1.00003 0.0018313
403 1.33146 7.85803 1.4959 0 0 1.00003 0.00180441
404 0.586184 8.55129 1.46455 0 0 1.00003 0.00186525
405 1.81225 7.77231 0.378839 0 0 1.00003 0.00175817
408 1.96132 8.63051 1.4689 0 0 1.00003 0.00188948
326 2.68658 7.1608 0.47502 0 0 1.00002 0.00168827
406 2.42756 8.63915 0.402524 0 0 1.00002 0.00184767
407 2.61335 7.82815 1.28877 0 0 1.00002 0.00178705
412 3.24321 8.54289 0.950903 0 0 1.00002 0.00183893
409 3.44754 7.79072 0.332549 0 0 1.00002 0.00173399
410 4.02647 8.49138 0.0810075 0 0 1.00002 0.001788
411 4.18079 7.68788 1.25119 0 0 1.00002 0.00172304
416 4.8983 8.30584 0.947327 0 0 1.00002 0.00174509
413 4.86181 7.68186 0.245492 0 0 1.00002 0.00165955
334 5.71 7.09312 0.154218 0 0 1.00002 0.00154412
414 6.04621 8.39854 0.178769 0 0 1.00001 0.00166291
415 5.66115 7.62956 1.04389 0 0 1.00002 0.0016264
417 6.64223 7.59729 0.173168 0 0 1.00001 0.00152763
420 6.56287 8.27717 1.06884 0 0 1.00001 0.00163255
419 7.42682 7.82312 0.766798 0 0 1.00001 0.00149647
1258 7.42705 8.23614 1.73815 0 0 1.00001 0.00159547
1261 8.17673 7.55054 1.59627 0 0 1.00001 0.00143482
421 8.11731 7.66454 0.0290685 0 0 1.00001 0.0013987
424 8.40079 8.37904 0.895377 0 0 1.00001 0.00147062
348 9.90513 7.28015 0.745702 0 0 1.00001 0.00117973
423 9.00842 7.67764 0.680968 0 0 1.00001 0.00131848
428 9.8171 8.68127 0.717219 0 0 1.00001 0.00134581
1262 9.19653 8.7636 1.48897 0 0 1.00001 0.00146742
1265 9.73484 7.95211 1.63934 0 0 1.00001 0.00132283
352 11.3408 7.19866 0.829228 0 0 1.00001 0.00101403
427 10.6308 8.00299 0.867217 0 0 1.00001 0.00118395
1266 10.6542 8.7731 1.47113 0 0 1 0.0013056
1269 11.4402 7.87148 1.64097 0 0 1.00001 0.00112258
429 11.2666 8.17644 0.0471086 0 0 1.00001 0.00111067
356 12.7056 7.33432 0.581691 0 0 1.00001 0.000874079
431 12.1961 8.28307 0.610904 0 0 1 0.00103233
1190 12.0867 7.21228 1.41105 0 0 1.00001 0.000961721
1270 12.1155 8.73809 1.53279 0 0 1 0.00114182
1273 12.8623 8.04917 1.51004 0 0 1 0.000980898
350 11.9135 7.44009 0.00077301 0 0 1.00001 0.000959319
360 14.2995 7.38407 0.601794 0 0 1.00001 0.000733324
435 13.6027 8.13437 0.480747 0 0 1.00001 0.000868678
1194 13.4513 7.38011 1.37097 0 0 1.00001 0.000839078
1277 14.2303 8.21107 1.37751 0 0 1.00001 0.00086112
439 15.0418 8.31486 0.876416 0 0 1.00001 0.000784096
362 16.3862 7.18742 0.282232 0 0 1.00001 0.000585656
364 15.5886 7.32348 0.924821 0 0 1.00001 0.000649995
443 16.2235 8.16614 1.11653 0 0 1.00001 0.000714857
1198 15.1074 7.54444 1.64877 0 0 1.00001 0.000742692
441 15.8228 8.32157 0.15605 0 0 1.00001 0.000719797
368 16.9326 7.35616 1.11739 0 0 1.00001 0.000610873
445 17.022 8.10091 0.337779 0 0 1.00001 0.000657668
447 17.6693 8.01077 1.02657 0 0 1.00001 0.00066244
366 17.7721 7.15396 0.217124 0 0 1.00001 0.000558322
370 18.9758 7.30673 0.634358 0 0 1.00002 0.000599121
451 18.9022 8.1218 1.17136 0 0 1.00002 0.000697364
376 19.8571 7.61385 1.3047 0 0 1.00002 0.000692354
453 19.7883 8.09909 0.355857 0 0 1.00002 0.000702854
449 18.4182 8.16614 0.174542 0 0 1.00002 0.000659312
374 20.697 7.41221 0.658501 0 0 1.00002 0.000699439
455 20.6547 8.3871 1.01453 0 0 1.00002 0.000804443
380 21.5631 7.61441 1.12416 0 0 1.00003 0.000804934
457 21.6372 8.28685 0.254329 0 0 1.00003 0.000851148
459 22.6393 8.1163 0.992921 0 0 1.00003 0.000952872
1218 22.4616 7.43599 1.71926 0 0 1.00003 0.000905032
378 22.3729 7.42466 0.377422 0 0 1.00003 0.000838028
384 23.5109 7.26061 1.032 0 0 1.00003 0.000959639
461 23.5589 8.01426 0.372502 0 0 1.00003 0.00102267
463 24.4417 8.0324 0.973554 0 0 1.00003 0.00114105
1302 24.3603 8.65641 1.64855 0 0 1.00003 0.00123995
382 24.4219 7.26186 0.264861 0 0 1.00003 0.0010405
462 24.415 8.7578 0.20231 0 0 1.00003 0.00119208
388 25.2286 7.33098 1.22472 0 0 1.00003 0.00117023
467 26.1621 7.94794 0.9685 0 0 1.00003 0.00132765
1306 26.1732 8.56468 1.71561 0 0 1.00004 0.00144212
386 26.2178 7.21623 0.36222 0 0 1.00003 0.00124004
465 25.3456 8.0631 0.302578 0 0 1.00003 0.00122878
466 26.42 8.5281 0.0881693 0 0 1.00003 0.00139675
468 25.4149 8.79325 0.981911 0 0 1.00003 0.00133543
392 26.9347 7.06014 1.31543 0 0 1.00003 0.00133329
470 28.1489 8.45799 0.413193 0 0 1.00003 0.00156951
471 27.9776 7.78552 1.19124 0 0 1.00003 0.00150787
472 27.1494 8.60176 1.00365 0 0 1.00004 0.00150652
469 27.1537 7.73025 0.424476 0 0 1.00003 0.00139383
1310 27.9782 8.64597 1.76146 0 0 1.00004 0.00163799
396 28.8312 7.06946 1.21246 0 0 1.00003 0.00150693
474 29.805 8.33431 0.535866 0 0 1.00003 0.00169187
475 29.6992 7.647 1.26383 0 0 1.00003 0.00163429
476 28.9794 8.51633 1.16764 0 0 1.00003 0.00167161
473 28.8862 7.68511 0.409337 0 0 1.00003 0.00155251
400 30.5288 7.06695 1.17111 0 0 1.00003 0.0016212
479 31.4666 7.80411 1.29235 0 0 1.00003 0.00174897
480 30.6534 8.46651 1.17655 0 0 1.00003 0.00177758
477 30.8485 7.85343 0.379739 0 0 1.00003 0.00169865
478 31.6544 8.60381 0.389631 0 0 1.00003 0.00181231
482 1.37555 10.2836 0.269479 0 0 1.00003 0.00201626
483 1.26392 9.36775 1.2012 0 0 1.00003 0.00195234
484 0.507676 9.92755 0.899892 0 0 1.00003 0.00198255
481 0.607945 9.33449 0.12419 0 0 1.00003 0.00190769
1322 1.07369 10.1261 1.75212 0 0 1.00003 0.0020658
485 1.99308 9.46277 0.448222 0 0 1.00003 0.00193986
488 2.08069 10.3689 0.974999 0 0 1.00003 0.00204812
486 2.83289 10.2918 0.0791356 0 0 1.00002 0.00200967
487 2.61316 9.46058 1.22636 0 0 1.00002 0.00196258
1326 3.01956 10.2521 1.68333 0 0 1.00002 0.00206966
489 3.30357 9.38603 0.090439 0 0 1.00002 0.00190818
1329 3.44733 9.26717 1.68147 0 0 1.00002 0.00195276
492 3.61543 10.0644 0.750907 0 0 1.00002 0.00198311
491 4.15185 9.14193 0.870014 0 0 1.00002 0.00187086
493 4.78118 9.22708 0.00661482 0 0 1.00002 0.00183255
496 4.82051 10.0179 0.580446 0 0 1.00002 0.00192481
1330 4.3551 10.0024 1.63133 0 0 1.00002 0.00199906
1333 4.88699 9.10597 1.67068 0 0 1.00002 0.00187814
495 5.5232 8.99723 0.673139 0 0 1.00002 0.00177617
500 6.42389 9.84662 0.530633 0 0 1.00001 0.00180117
1334 5.53052 9.87857 1.19829 0 0 1.00002 0.00189476
1337 6.33701 9.11401 1.28871 0 0 1.00001 0.00176007
1417 6.43799 10.5652 1.22186 0 0 1.00001 0.00190761
499 7.31999 8.93756 0.732561 0 0 1.00001 0.00163238
501 8.22929 9.10796 0.0874971 0 0 1.00001 0.00155019
504 8.10981 9.98651 0.594733 0 0 1.00001 0.00166855
1338 7.34076 9.79708 1.22711 0 0 1.00001 0.0017515
1341 8.18619 9.22818 1.436 0 0 1.00001 0.00162259
503 9.05699 9.51372 0.749526 0 0 1.00001 0.00152656
508 9.75165 10.3928 0.685008 0 0 1 0.00154399
1342 8.88741 10.3187 1.452 0 0 1 0.00167767
1345 9.92667 9.64844 1.45693 0 0 1 0.00148912
432 11.4148 8.9047 0.753555 0 0 1 0.00119215
426 10.4734 8.94275 0.0408868 0 0 1.00001 0.00128677
507 10.5428 9.74035 0.679225 0 0 1 0.00138412
1346 10.7176 10.2357 1.68416 0 0 1 0.00148784
1349 11.3697 9.68827 1.35813 0 0 1 0.00132326
436 13.0052 9.00426 0.80503 0 0 1 0.00103283
511 12.1404 9.86245 0.708643 0 0 1 0.00121609
516 12.8462 10.5212 0.984498 0 0 1 0.00122122
1353 12.5805 9.66872 1.65307 0 0 1 0.00121167
1274 13.6852 8.89063 1.59881 0 0 1 0.00100404
440 14.4483 9.2232 0.77482 0 0 1.00001 0.000920764
515 13.5377 9.7283 0.85769 0 0 1 0.00106036
1354 13.5171 10.4575 1.74548 0 0 1 0.00121078
517 14.2642 10.1776 0.22391 0 0 1 0.00101673
444 15.8701 9.1692 1.14442 0 0 1.00001 0.000838592
519 15.1153 9.88317 1.0271 0 0 1.00001 0.000951103
521 15.6667 10.192 0.254642 0 0 1.00001 0.000914987
523 16.4805 9.96283 0.968056 0 0 1.00001 0.0008807
442 16.4733 9.03928 0.264504 0 0 1.00001 0.000764372
438 15.268 9.22308 0.105696 0 0 1.00001 0.000842108
452 18.2749 8.87954 0.939034 0 0 1.00002 0.000748336
448 17.0632 9.06323 1.12893 0 0 1.00001 0.00078268
525 17.13 10.0212 0.207025 0 0 1.00001 0.000840224
527 17.7548 9.85643 1.069 0 0 1.00001 0.000850057
446 17.7345 9.09621 0.119254 0 0 1.00001 0.000743708
456 19.8212 8.92311 1.04801 0 0 1.00002 0.000809949
529 18.5819 9.71363 0.299593 0 0 1.00002 0.000813337
531 19.5044 9.86804 0.844322 0 0 1.00002 0.000876635
532 18.7166 10.4357 1.13641 0 0 1.00002 0.000921041
1369 18.6448 9.56488 1.69703 0 0 1.00002 0.000877794
450 19.2274 8.93344 0.209749 0 0 1.00002 0.000755565
533 19.9988 9.75213 0.0709245 0 0 1.00002 0.000870778
535 20.9611 9.76826 0.742354 0 0 1.00003 0.000954459
1373 20.2643 9.62707 1.6472 0 0 1.00002 0.000950688
454 20.8069 9.03613 0.201694 0 0 1.00002 0.000856631
460 21.6679 8.98656 0.960616 0 0 1.00003 0.000945414
1374 21.128 10.0666 1.75278 0 0 1.00003 0.00106838
1298 22.4599 8.83391 1.55873 0 0 1.00003 0.00104221
539 22.9066 9.64127 0.789297 0 0 1.00003 0.00112805
540 22.1682 10.4776 0.848266 0 0 1.00003 0.00113532
1377 21.9818 9.74078 1.51114 0 0 1.00003 0.00108839
1378 23.1301 10.4637 1.41597 0 0 1.00004 0.00127549
458 22.8176 8.81997 0.197028 0 0 1.00003 0.00101907
537 22.0228 9.76151 0.209354 0 0 1.00003 0.00103238
464 23.5189 8.91336 0.951584 0 0 1.00003 0.00112721
543 24.6353 9.51505 0.74896 0 0 1.00004 0.00131199
1381 23.7985 9.55629 1.531 0 0 1.00004 0.00126778