ITEM: TIMESTEP
5000
ITEM: NUMBER OF ATOMS
32000
ITEM: BOX BOUNDS pp pp pp
0.0000000000000000e+00 3.1748021039364001e+01
0.0000000000000000e+00 3.1748021039364001e+01
0.0000000000000000e+00 3.1748021039364001e+01
ITEM: ATOMS id x y z c_phase c_nbond c_rho vx
4 0.130097 1.10215 0.465086 0 0 1.00001 0.0008831
83 0.987329 1.66859 0.778647 0 0 1.00002 0.00087392
842 0.728408 0.793412 1.41279 0 0 1.00002 0.000878905
921 0.0176398 1.60231 1.37514 0 0 1.00001 0.000888019
3 0.743256 0.0642015 0.616941 0 0 1.00002 0.000875082
8 1.72329 0.810475 1.01559 0 0 1.00002 0.000840453
85 1.81398 1.4762 0.22065 0 0 1.00002 0.000835939
925 1.83493 1.66109 1.7613 0 0 1.00002 0.000842111
6 2.53271 0.749222 0.204025 0 0 1.00002 0.000784515
7 2.60303 0.0543985 1.03788 0 0 1.00002 0.000780289
87 2.6611 1.54188 0.882975 0 0 1.00002 0.000778074
846 2.68149 0.816649 1.74597 0 0 1.00002 0.000777844
12 3.44431 0.934007 0.957722 0 0 1.00003 0.00070256
849 3.5097 0.0923889 1.70728 0 0 1.00002 0.000697727
929 3.61753 1.70902 1.72109 0 0 1.00002 0.000690873
10 4.11611 0.859083 0.325297 0 0 1.00003 0.000623492
16 4.97062 0.568251 1.17499 0 0 1.00003 0.000510974
93 4.92781 1.60136 0.384191 0 0 1.00003 0.000519728
850 4.35569 0.942749 1.63097 0 0 1.00003 0.000598398
9 3.4865 0.110926 0.171558 0 0 1.00003 0.000694548
14 5.65405 0.646153 0.325974 0 0 1.00004 0.000407843
95 5.8904 1.31227 0.939752 0 0 1.00004 0.000374641
97 6.57936 1.393 0.218795 0 0 1.00004 0.000260971
854 5.79056 0.461069 1.70109 0 0 1.00003 0.000390845
933 5.039 1.7255 1.43763 0 0 1.00003 0.000505697
20 6.71798 0.391173 0.866763 0 0 1.00004 0.000237254
937 6.69545 1.01116 1.69608 0 0 1.00004 0.000245765
24 8.26782 0.409561 1.07487 0 0 1.00005 -2.94445e-05
99 7.3703 1.22465 0.955519 0 0 1.00004 0.000127487
101 8.24711 1.39286 0.237271 0 0 1.00005 -2.54891e-05
941 8.12915 1.2741 1.60907 0 0 1.00004 -2.77369e-06
18 7.58431 0.648915 0.140782 0 0 1.00005 8.81188e-05
22 8.8568 0.50927 0.274295 0 0 1.00005 -0.000132766
28 9.54963 0.338965 0.890246 0 0 1.00005 -0.000249925
103 9.02358 1.30914 1.11467 0 0 1.00005 -0.000158251
105 9.63597 1.37635 0.0905568 0 0 1.00005 -0.000263804
32 11.2045 0.216232 0.63412 0 0 1.00005 -0.000508537
107 10.3579 1.0491 0.824507 0 0 1.00005 -0.000381744
866 10.5167 0.196855 1.44754 0 0 1.00005 -0.000406162
949 11.2777 1.01947 1.41977 0 0 1.00004 -0.00052085
946 10.5728 1.67968 1.73212 0 0 1.00004 -0.000416101
26 10.2378 0.368285 0.0782444 0 0 1.00005 -0.00036259
36 12.8647 0.212438 0.637919 0 0 1.00003 -0.000714116
111 12.0351 1.07536 0.507963 0 0 1.00004 -0.000621298
870 12.1215 0.316812 1.30152 0 0 1.00004 -0.000631179
953 12.708 1.1993 1.37412 0 0 1.00003 -0.000702519
40 14.3596 0.3203 0.76736 0 0 1.00001 -0.000835247
115 13.579 1.1134 0.844625 0 0 1.00002 -0.000783067
117 14.0272 1.56037 0.16649 0 0 1.00002 -0.0008188
874 13.5952 0.360327 1.6366 0 0 1.00002 -0.000785304
957 14.3638 1.15046 1.47792 0 0 1.00001 -0.000840809
119 14.8624 1.55395 0.663412 0 0 1.00001 -0.000864152
44 15.6923 0.76983 0.788168 0 0 0.999995 -0.000882459
123 16.538 1.54388 0.681424 0 0 0.999984 -0.000883469
878 15.1278 0.464359 1.64188 0 0 1 -0.000873679
882 16.5322 0.711704 1.3421 0 0 0.999984 -0.000882264
961 15.6184 1.48636 1.39202 0 0 0.999996 -0.000888103
38 15.0904 0.711723 0.0674896 0 0 1 -0.000867569
48 17.2416 0.731658 0.548421 0 0 0.999974 -0.000857933
127 17.9097 1.58046 0.756543 0 0 0.999969 -0.000826885
886 17.9026 0.742745 1.42696 0 0 0.999968 -0.000826614
965 17.2054 1.7479 1.56235 0 0 0.999977 -0.000869464
51 19.5266 0.0162487 0.6624 0 0 0.999952 -0.000676942
52 18.7799 0.724909 0.684579 0 0 0.999958 -0.000754996
131 19.5286 1.55326 0.840883 0 0 0.999956 -0.000681353
889 19.0154 0.157858 1.544 0 0 0.999958 -0.000735951
890 19.5826 0.966552 1.6884 0 0 0.999956 -0.000675986
969 18.6446 1.5112 1.49921 0 0 0.999963 -0.000773356
55 21.083 0.349389 1.06626 0 0 0.999949 -0.000474707
56 20.2399 0.775654 0.978597 0 0 0.99995 -0.000591538
135 21.0986 1.65432 0.950864 0 0 0.999953 -0.000472004
54 21.1803 0.764697 0.218313 0 0 0.999948 -0.000458845
133 20.3366 1.51292 0.193958 0 0 0.999952 -0.000580488
57 22.0042 0.262448 0.538963 0 0 0.999948 -0.000330675
59 22.7889 0.429516 1.40532 0 0 0.999954 -0.000199905
60 22.1061 1.14615 1.32807 0 0 0.999954 -0.000313724
137 21.9932 1.59752 0.537359 0 0 0.999954 -0.000333438
58 22.9133 1.07266 0.444885 0 0 0.999955 -0.000178718
63 24.2297 0.379549 1.44969 0 0 0.999964 5.34213e-05
61 23.5667 0.356891 0.572961 0 0 0.999957 -6.49216e-05
62 24.4385 1.18496 0.753617 0 0 0.999966 8.72569e-05
64 23.4751 1.24782 1.40071 0 0 0.999962 -7.88595e-05
65 24.9584 0.315247 0.551143 0 0 0.999968 0.000178312
67 26.0142 0.382603 1.17011 0 0 0.99998 0.000352607
68 25.1728 1.12422 1.47856 0 0 0.999975 0.000217421
147 25.936 1.7327 1.35598 0 0 0.999984 0.000345305
66 25.8972 0.92841 0.431306 0 0 0.999978 0.000334079
70 27.583 1.27931 0.38843 0 0 0.999993 0.000585258
71 27.6234 0.508491 0.873516 0 0 0.999993 0.000589614
72 26.7633 1.02698 1.26178 0 0 0.999987 0.000471363
913 28.3863 0.337716 1.39822 0 0 0.999999 0.000682539
69 26.7999 0.240135 0.226619 0 0 0.999985 0.000471892
76 28.6602 1.24091 0.741091 0 0 1 0.000711763
914 29.4022 0.946354 1.56803 0 0 1.00001 0.000782558
993 28.5336 1.71828 1.49693 0 0 1 0.000702303
917 29.8267 0.173012 1.46036 0 0 1.00001 0.000813521
75 29.2852 0.354566 0.615026 0 0 1 0.000768118
841 31.6012 0.266431 1.25678 0 0 1.00001 0.00088217
79 30.7157 0.488889 0.471484 0 0 1.00001 0.000858731
80 30.113 1.19833 0.773788 0 0 1.00001 0.000831487
918 30.8779 0.971695 1.39357 0 0 1.00001 0.000868452
82 1.12436 2.4368 0.128778 0 0 1.00002 0.000873338
84 0.147511 2.3823 0.811979 0 0 1.00001 0.000890942
163 1.30217 3.23801 0.94918 0 0 1.00001 0.000876204
922 1.15364 2.36187 1.5919 0 0 1.00001 0.000877057
1001 0.400961 3.03105 1.54961 0 0 1.00001 0.000899705
161 0.34638 3.09677 0.131341 0 0 1.00001 0.00089461
88 1.92321 2.41951 0.784329 0 0 1.00002 0.000836688
167 2.67098 3.28219 0.861301 0 0 1.00001 0.000791137
926 2.6822 2.23131 1.53537 0 0 1.00002 0.000783959
1009 3.27048 3.42857 1.65112 0 0 1.00001 0.00074291
86 2.73799 2.38335 0.0557654 0 0 1.00002 0.000775639
92 3.39346 2.55636 0.780376 0 0 1.00002 0.000715597
91 4.01713 1.84234 0.712082 0 0 1.00003 0.000638606
96 4.92217 2.57515 0.81691 0 0 1.00002 0.000526962
171 4.21184 3.32041 0.750523 0 0 1.00002 0.000628412
930 4.14355 2.64356 1.58468 0 0 1.00002 0.000634644
94 5.65744 2.44568 0.133269 0 0 1.00003 0.000413282
100 6.5626 2.18354 0.774042 0 0 1.00003 0.000268168
175 5.65626 3.1996 0.954194 0 0 1.00002 0.000422842
934 5.86767 2.19742 1.49862 0 0 1.00003 0.00038633
1017 6.52603 3.07088 1.55795 0 0 1.00002 0.000283689
177 6.65484 2.93175 0.134464 0 0 1.00003 0.000256258
98 7.45636 2.22888 0.140172 0 0 1.00004 0.000115471
104 8.08285 2.20514 0.932076 0 0 1.00004 6.47913e-06
179 7.40405 3.07227 0.935539 0 0 1.00003 0.000131213
938 7.30221 2.06336 1.571 0 0 1.00004 0.00014505
1021 8.18598 3.00606 1.65503 0 0 1.00003 -5.24364e-06
181 8.26954 2.97512 0.0394996 0 0 1.00003 -2.42117e-05
102 8.90232 2.09006 0.252924 0 0 1.00004 -0.000138106
108 9.76836 2.02729 1.11141 0 0 1.00004 -0.000284506
183 8.92477 2.97665 0.930572 0 0 1.00003 -0.00013881
942 9.02845 2.22399 1.70691 0 0 1.00004 -0.000157274
185 9.55741 2.90962 0.213408 0 0 1.00004 -0.000250115
106 10.2777 2.11634 0.214476 0 0 1.00004 -0.000369925
112 11.1504 1.82868 0.77236 0 0 1.00004 -0.000503071
187 10.6147 2.81159 0.923027 0 0 1.00003 -0.000424251
1029 11.4349 2.83336 1.5778 0 0 1.00003 -0.000546581
116 12.6623 1.94299 0.594958 0 0 1.00003 -0.000698578
191 11.9179 2.64428 0.743102 0 0 1.00003 -0.000612501
950 11.9142 1.92258 1.46728 0 0 1.00003 -0.000610619
1033 12.8324 3.02052 1.68883 0 0 1.00002 -0.000727155
195 13.168 3.03174 0.848773 0 0 1.00002 -0.000759059
954 13.3659 1.99292 1.48204 0 0 1.00002 -0.000772627
120 14.0068 2.44605 0.927106 0 0 1.00001 -0.000824878
1037 14.0132 3.38601 1.55817 0 0 1.00001 -0.000838448
199 14.6812 3.43809 0.88455 0 0 1 -0.000876384
958 14.769 2.29897 1.44757 0 0 1.00001 -0.000870352
118 14.8271 2.51528 0.136891 0 0 1.00001 -0.000870159
197 14.1442 3.22705 0.0335402 0 0 1.00001 -0.000839717
114 13.401 2.29617 0.0588926 0 0 1.00002 -0.000773431
124 15.6838 2.44318 0.69356 0 0 0.999995 -0.000893809
203 16.2881 3.20051 0.663406 0 0 0.999989 -0.000903935
962 16.2928 2.47888 1.52545 0 0 0.999988 -0.000900145
1041 15.3548 3.25767 1.50252 0 0 0.999997 -0.000902618
201 15.5549 3.25894 0.0201042 0 0 0.999996 -0.000900281
128 17.0505 2.3502 0.682638 0 0 0.999979 -0.000876117
207 17.9299 2.92493 0.699556 0 0 0.999973 -0.000836499
966 18.005 2.43738 1.58074 0 0 0.999972 -0.000831569
1045 17.0762 3.11486 1.49477 0 0 0.999982 -0.000888982
132 18.8785 2.3558 1.01249 0 0 0.999964 -0.000755711
211 19.6905 3.23886 1.27611 0 0 0.999967 -0.000675713
209 18.8711 2.99399 0.195317 0 0 0.999967 -0.000759201
130 19.5765 2.33942 0.101653 0 0 0.999959 -0.000678406
973 20.3155 1.78589 1.72295 0 0 0.999958 -0.000587282
134 21.1497 2.41385 0.457446 0 0 0.999957 -0.000467819
136 20.1852 2.46551 1.11262 0 0 0.99996 -0.000605527
215 21.3028 3.29084 1.39032 0 0 0.999969 -0.000447872
213 20.4125 2.99037 0.33407 0 0 0.999962 -0.000575211
139 22.8696 2.06659 1.5067 0 0 0.999964 -0.000187507
138 22.9693 2.59846 0.734189 0 0 0.999966 -0.000168357
140 22.0908 2.49561 1.23602 0 0 0.999963 -0.000316131
217 21.9842 3.19636 0.598003 0 0 0.999968 -0.000334237
16179 22.6746 3.39659 0.0752337 0 0 0.999972 -0.000218208
141 23.7437 1.80588 0.623055 0 0 0.999964 -3.19181e-05
143 24.4307 1.98466 1.60829 0 0 0.999974 9.10728e-05
142 24.3438 2.67926 0.773864 0 0 0.999976 7.63489e-05
144 23.6884 2.89854 1.53366 0 0 0.999976 -3.72554e-05
223 24.4752 3.50595 1.55423 0 0 0.999989 0.000106337
16108 24.9596 2.8416 0.014656 0 0 0.999982 0.000185619
149 26.5556 1.79205 0.510734 0 0 0.999987 0.000441772
145 25.136 1.85361 0.508934 0 0 0.999976 0.000210602
146 25.7976 2.60867 0.70626 0 0 0.999987 0.000326177
148 25.1623 2.5523 1.52293 0 0 0.999984 0.000219221
227 25.7272 3.49363 1.50992 0 0 0.999997 0.00032399
152 26.5438 2.55735 1.52835 0 0 0.999994 0.000447715
229 26.176 3.49684 0.597772 0 0 0.999997 0.000395197
151 27.5131 1.98349 1.23621 0 0 0.999997 0.000581902
153 28.2598 2.08863 0.34346 0 0 1 0.000672541
150 27.0955 2.68962 0.644062 0 0 0.999997 0.000527155
231 27.2098 3.35052 1.41476 0 0 1 0.000553128
156 28.2645 2.75549 1.20469 0 0 1.00001 0.000680125
233 27.9927 3.21751 0.326686 0 0 1.00001 0.000648337
997 29.9704 1.80804 1.70678 0 0 1.00001 0.000829539
155 29.4596 2.04459 0.879694 0 0 1.00001 0.000789952
154 29.2075 2.65856 0.290044 0 0 1.00001 0.000771807
235 29.2627 3.26251 1.17362 0 0 1.00001 0.00078581
159 30.9248 1.98408 0.923986 0 0 1.00001 0.000873459
160 30.195 2.70992 1.00141 0 0 1.00001 0.000846184
239 31.0391 3.35106 0.971465 0 0 1.00001 0.00088833
998 31.0004 2.69414 1.72621 0 0 1.00001 0.000885585
237 30.1238 3.25673 0.13373 0 0 1.00001 0.00084483
157 30.4241 1.90816 0.0262561 0 0 1.00001 0.000850282
158 31.157 2.66316 0.0761551 0 0 1.00001 0.000882979
164 0.308928 3.78483 0.918891 0 0 1.00001 0.000904434
241 0.158437 4.59534 0.481469 0 0 1.00001 0.000913312
243 1.155 4.67166 0.987178 0 0 1.00001 0.000899427
244 0.105206 5.26692 1.27739 0 0 1.00001 0.00092909
162 1.05553 3.86432 0.0606947 0 0 1.00001 0.000888721
168 1.85629 4.04722 0.847761 0 0 1.00001 0.000857725
247 2.55446 4.85851 1.13763 0 0 1 0.00082326
166 2.66293 4.14693 0.206674 0 0 1.00001 0.000799259
245 1.91246 4.97012 0.278969 0 0 1.00001 0.000864801
249 3.42078 4.86495 0.162016 0 0 1 0.000737605
172 3.50584 4.0797 0.886969 0 0 1.00001 0.000720711
176 4.92197 4.00448 1.1845 0 0 1.00001 0.00054325
251 4.05917 4.88403 1.14825 0 0 1 0.000669762
170 4.27076 4.18823 0.148978 0 0 1.00001 0.000628957
253 5.01911 4.74474 0.341299 0 0 1 0.000535561
174 5.78392 3.94223 0.198726 0 0 1.00002 0.000407453
180 6.49497 3.77091 0.773982 0 0 1.00002 0.000292621
255 5.68908 4.74106 1.02732 0 0 1 0.000436435
1097 6.66881 4.51753 1.64651 0 0 1.00001 0.00027848
260 6.68593 5.13784 0.887035 0 0 1 0.000277945
184 8.19877 3.89697 0.702524 0 0 1.00002 -5.91409e-06
259 7.41139 4.46636 0.54832 0 0 1.00001 0.000139682
1018 7.40205 3.87549 1.50002 0 0 1.00002 0.000141353
1101 8.20081 4.61734 1.49027 0 0 1.00001 2.90672e-06
188 9.89265 3.58289 0.887639 0 0 1.00003 -0.00030503
263 9.07662 4.57158 0.823474 0 0 1.00001 -0.000158576
265 9.8575 4.50917 0.126974 0 0 1.00002 -0.000298327
1022 9.07558 3.76806 1.50146 0 0 1.00002 -0.000161262
1105 9.8641 4.35254 1.65927 0 0 1.00001 -0.000295955
182 8.98339 3.87318 0.0634337 0 0 1.00003 -0.000146817
192 11.3986 3.64903 0.780722 0 0 1.00002 -0.000544821
267 10.5815 4.67175 0.908536 0 0 1.00001 -0.000420148
269 11.3767 4.69916 0.230856 0 0 1.00001 -0.000544334
1026 10.6985 3.57203 1.59118 0 0 1.00002 -0.000437834
1109 11.355 4.37798 1.70872 0 0 1.00001 -0.000541952
272 11.3792 5.27852 0.98717 0 0 1 -0.000546012
186 10.5759 3.85333 0.176454 0 0 1.00003 -0.000420064
196 12.5035 3.58195 0.81588 0 0 1.00002 -0.000690435
271 12.179 4.55496 1.00202 0 0 1.00001 -0.000658014
1113 12.7237 5.00121 1.69202 0 0 1 -0.000732018
275 13.2113 4.68355 0.801514 0 0 1.00001 -0.000779076
273 12.6294 4.62277 0.063048 0 0 1.00001 -0.000712989
200 13.9745 4.13012 0.697379 0 0 1.00001 -0.000840205
1034 13.4687 4.2213 1.59516 0 0 1.00001 -0.000803245
1117 14.1868 5.12049 1.52226 0 0 0.999997 -0.000874355
279 14.9231 5.01309 0.812312 0 0 0.999997 -0.000910706
1038 14.9478 4.41731 1.59518 0 0 0.999998 -0.000907647
277 14.1242 4.90793 0.061156 0 0 1 -0.000860603
198 14.9445 4.1948 0.0974029 0 0 1 -0.000896171
204 15.6514 4.06664 0.926006 0 0 0.999994 -0.000916803
281 15.8615 4.77545 0.186622 0 0 0.999993 -0.000927944
283 16.5763 4.57964 0.900092 0 0 0.999989 -0.000922407
1042 16.3017 3.95844 1.6899 0 0 0.99999 -0.000922744
1121 15.7928 5.05244 1.64138 0 0 0.999993 -0.000941606
208 17.2533 3.83203 0.810754 0 0 0.999982 -0.00088778
287 18.0702 4.48562 1.09685 0 0 0.999982 -0.000850444
1046 17.9372 3.63597 1.65475 0 0 0.999978 -0.000851247
285 17.4394 4.57526 0.0152225 0 0 0.999985 -0.000888252
206 18.1203 3.85198 0.0589952 0 0 0.999977 -0.000833533
212 18.8636 3.70391 0.949663 0 0 0.999973 -0.000769494
289 18.8091 4.60607 0.361238 0 0 0.999981 -0.000783992
291 19.677 4.6735 1.08009 0 0 0.999982 -0.000690061
292 18.7698 5.27276 1.19908 0 0 0.999989 -0.000800376
210 19.5866 3.76349 0.227658 0 0 0.99997 -0.000688274
216 20.4282 3.81752 1.23146 0 0 0.999973 -0.000582267
295 20.8749 4.71288 1.3911 0 0 0.999986 -0.000520174
297 21.5711 4.94525 0.808114 0 0 0.99999 -0.000406452
214 21.0748 3.92687 0.511482 0 0 0.999974 -0.000484439
293 20.1234 4.78068 0.351324 0 0 0.999983 -0.000627942
219 22.8179 3.62642 1.4184 0 0 0.999979 -0.000191095
220 21.9348 4.12762 1.30804 0 0 0.999981 -0.0003448
299 22.4666 5.1699 1.27001 0 0 1 -0.000251098
218 22.6089 4.34129 0.509442 0 0 0.999985 -0.000226592
221 23.5732 3.63386 0.781 0 0 0.999981 -5.68638e-05
222 24.338 4.31514 0.623694 0 0 0.999995 8.45092e-05
224 23.4671 4.54298 1.33071 0 0 0.999995 -7.04615e-05
305 24.8561 5.25039 0.565265 0 0 1.00001 0.000186746
301 23.5513 5.05748 0.532121 0 0 1 -5.4994e-05
228 25.0132 4.49414 1.61974 0 0 1.00001 0.000211803
303 24.3654 5.28156 1.43023 0 0 1.00001 0.00010105
225 25.067 3.67503 0.800271 0 0 0.999992 0.000210631
307 25.6975 5.13275 1.34001 0 0 1.00002 0.000336456
232 26.3658 4.28527 1.36934 0 0 1.00001 0.000436342
309 26.5115 4.96743 0.639543 0 0 1.00002 0.000462617
226 25.5344 4.39574 0.387807 0 0 1 0.000295049
311 27.3412 4.86486 1.40329 0 0 1.00002 0.0005889
236 27.9736 3.9726 1.10286 0 0 1.00001 0.000657044
313 28.2896 4.7314 0.705166 0 0 1.00002 0.000702467
230 27.0767 4.03878 0.569778 0 0 1.00001 0.000536294
234 28.9446 3.76811 0.485932 0 0 1.00001 0.000758401
315 29.1008 4.52005 1.32909 0 0 1.00002 0.000787635
240 30.0118 4.06881 1.02321 0 0 1.00002 0.000849535
238 31.0443 3.97414 0.372081 0 0 1.00001 0.000893196
317 30.2199 4.67725 0.489574 0 0 1.00002 0.000867669
319 30.9939 4.59907 1.4094 0 0 1.00002 0.000906478
242 0.924908 5.53249 0.461855 0 0 1.00001 0.00091676
248 1.54813 5.51337 1.38026 0 0 1 0.000900842
323 0.81176 6.21986 1.27716 0 0 1.00001 0.000938505
324 0.274922 6.91848 1.50708 0 0 1.00001 0.000963266
322 0.988354 6.94597 0.573238 0 0 1 0.000940891
328 1.72324 7.03072 1.23964 0 0 0.999995 0.000920097
325 1.91154 6.20183 0.518787 0 0 0.999999 0.000885604
252 3.12026 5.62145 1.30182 0 0 0.999996 0.000787426
327 2.28072 6.15672 1.4115 0 0 0.999996 0.000869378
332 3.27 6.96677 1.13041 0 0 0.999981 0.000798332
246 2.69681 5.61497 0.273941 0 0 0.999999 0.000818509
329 3.40986 6.28515 0.500713 0 0 0.99999 0.000762773
250 4.20221 5.46685 0.326405 0 0 0.999996 0.000656521
256 4.94529 5.4342 1.31954 0 0 0.999993 0.000563285
331 4.14874 6.10103 1.23021 0 0 0.999987 0.000681866
333 4.83726 6.23905 0.334415 0 0 0.999985 0.000583897
336 4.7857 6.80596 1.16248 0 0 0.999974 0.000609382
330 4.01654 7.02919 0.222734 0 0 0.999978 0.000706993
254 5.79319 5.4267 0.302455 0 0 0.999996 0.000425957
335 5.70224 6.24916 0.965479 0 0 0.999981 0.000459656
1177 6.46533 5.99149 1.60105 0 0 0.999982 0.000336037
340 6.44015 6.87675 1.01199 0 0 0.999969 0.000347996
337 6.38551 6.04863 0.154945 0 0 0.999986 0.000336854
264 8.2141 5.32097 0.696446 0 0 1 4.31407e-06
339 7.33134 6.16612 0.756725 0 0 0.999983 0.000175935
1098 7.39553 5.42517 1.49556 0 0 0.999994 0.000160619
1181 8.23948 6.11831 1.49651 0 0 0.999981 1.47248e-05
344 8.01557 6.86174 0.731588 0 0 0.999969 5.75613e-05
1178 7.28682 6.8716 1.60146 0 0 0.999965 0.000206686
258 7.33373 5.36392 0.0462764 0 0 0.999999 0.000161686
268 9.7632 5.32639 0.794996 0 0 1 -0.000278353
343 8.87876 6.19621 0.739401 0 0 0.999983 -0.000110431
1102 9.05182 5.3345 1.60138 0 0 0.999997 -0.000143725
1185 9.73351 6.19809 1.47241 0 0 0.999983 -0.000265382
1182 9.09083 6.95917 1.46835 0 0 0.999965 -0.000136735
345 9.7581 6.23953 0.0948382 0 0 0.999987 -0.000273834
262 8.99536 5.47198 0.0134262 0 0 0.999999 -0.00014012
347 10.5756 6.02914 0.966906 0 0 0.999989 -0.000418195
349 11.3023 6.37775 0.0780288 0 0 0.999987 -0.000538011
346 10.5109 6.94941 0.154971 0 0 0.999974 -0.000408106
1186 10.4606 6.93427 1.50145 0 0 0.999969 -0.000390908
270 11.9868 5.63244 0.183741 0 0 0.999999 -0.000639192
276 12.6611 5.82274 0.86379 0 0 0.999995 -0.000728944
351 11.7649 6.21408 1.05583 0 0 0.999988 -0.000609906
1114 13.3061 5.87115 1.55868 0 0 0.999992 -0.000806578
355 13.3341 6.58668 0.814825 0 0 0.999986 -0.000816111
274 13.3052 5.54267 0.0426932 0 0 0.999999 -0.000798498
280 14.0446 5.71897 0.774098 0 0 0.999995 -0.000868627
1197 14.3074 6.65471 1.40938 0 0 0.999987 -0.000906497
357 14.1122 6.38798 0.0383612 0 0 0.99999 -0.000883004
278 15.0087 5.64443 0.0348904 0 0 0.999995 -0.000922939
359 15.0272 6.45254 0.807427 0 0 0.999991 -0.000940738
284 15.8113 5.73811 0.957745 0 0 0.999993 -0.000948926
363 16.4706 6.45184 1.14054 0 0 0.999994 -0.000961569
1118 15.0866 5.87706 1.69916 0 0 0.999992 -0.000939274
282 16.6019 5.41843 0.27645 0 0 0.999991 -0.000934402
361 15.6562 6.33925 0.0395804 0 0 0.999993 -0.000955089
286 17.8104 5.29944 0.540789 0 0 0.999988 -0.000879312
288 17.0942 5.42325 1.24691 0 0 0.999991 -0.000924743
365 17.0435 6.27287 0.411007 0 0 0.999994 -0.000937536
367 17.6456 6.24369 1.3834 0 0 0.999997 -0.000911502
372 18.2552 7.04796 1.13078 0 0 1.00001 -0.000876342
369 18.3546 6.2276 0.609306 0 0 0.999998 -0.00085122
290 19.4152 5.75298 0.619198 0 0 0.999995 -0.000732078
371 19.3116 6.55176 1.34697 0 0 1.00001 -0.00075827
373 19.9808 6.74548 0.608557 0 0 1.00001 -0.000666944
294 20.7398 5.76929 0.65169 0 0 1 -0.000544879
296 20.1802 5.60447 1.39248 0 0 0.999997 -0.000631802
375 20.7676 6.60481 1.29972 0 0 1.00002 -0.000545351
377 21.6515 6.65495 0.664593 0 0 1.00002 -0.000395814
300 21.6554 5.87085 1.3809 0 0 1.00001 -0.000393653
16260 21.6839 5.72584 0.0518045 0 0 1 -0.000388276
298 22.6698 5.82095 0.671524 0 0 1.00001 -0.000212213
379 22.6282 6.68482 1.20318 0 0 1.00003 -0.000213384
381 23.3476 6.77206 0.266945 0 0 1.00003 -8.18049e-05
304 23.4819 5.87735 1.29592 0 0 1.00002 -5.85789e-05
383 24.3228 6.55513 1.15499 0 0 1.00004 0.000107114
302 24.1476 5.99929 0.426012 0 0 1.00002 6.30718e-05
306 25.6905 5.85567 0.698697 0 0 1.00003 0.000340576
308 25.1178 6.0335 1.67249 0 0 1.00003 0.00024968
385 25.1653 6.73375 0.493417 0 0 1.00004 0.000258107
387 25.8342 6.58774 1.40385 0 0 1.00004 0.000383785
312 26.7005 5.8394 1.47281 0 0 1.00003 0.000511668
310 27.5087 5.53885 0.720461 0 0 1.00003 0.00061723
389 26.7591 6.35984 0.649802 0 0 1.00004 0.00052057
391 27.7142 6.46737 1.36286 0 0 1.00004 0.000665239
316 28.3787 5.51811 1.4841 0 0 1.00003 0.0007324
390 27.7235 7.0021 0.528635 0 0 1.00004 0.000667746
314 29.4036 5.30625 0.81727 0 0 1.00002 0.000821772
395 29.4539 6.17967 1.32046 0 0 1.00003 0.000845907
394 29.5953 6.8966 0.506155 0 0 1.00003 0.000862752
393 28.4832 6.20213 0.638059 0 0 1.00003 0.000747523
16355 29.3915 6.14977 0.0794108 0 0 1.00003 0.000830908
16276 28.4957 5.38654 0.0584377 0 0 1.00002 0.000733626
318 30.9801 5.36674 0.59468 0 0 1.00002 0.000911547
320 30.2325 5.45715 1.46621 0 0 1.00002 0.000887588
397 30.4123 6.18085 0.648818 0 0 1.00002 0.000902211
399 31.2363 6.15392 1.38383 0 0 1.00002 0.00093893
398 31.2183 6.95284 0.603514 0 0 1.00002 0.000945442
321 31.7412 5.99644 0.446724 0 0 1.00001 0.000934312
401 0.281078 7.63258 0.661485 0 0 1.00001 0.000966497
402 0.852248 8.46492 0.618789 0 0 0.999999 0.000975199
403 1.13136 7.86431 1.49769 0 0 0.999997 0.000968715
404 0.377462 8.56224 1.47033 0 0 1.00001 0.000999188
405 1.61175 7.76652 0.372697 0 0 0.999992 0.000931242
408 1.74456 8.62002 1.46602 0 0 0.999984 0.000959608
326 2.5045 7.15232 0.476476 0 0 0.999988 0.000862731
406 2.21198 8.63536 0.400355 0 0 0.999978 0.000914136
407 2.41265 7.81406 1.27928 0 0 0.999981 0.000894088
412 3.03241 8.51884 0.937781 0 0 0.999967 0.000852408
409 3.26053 7.77455 0.327847 0 0 0.999974 0.000806731
410 3.82919 8.46399 0.0822322 0 0 0.99996 0.000758793
411 3.99527 7.67351 1.25004 0 0 0.999967 0.000733307
416 4.71842 8.26341 0.925347 0 0 0.999953 0.00064729
413 4.68419 7.64317 0.247853 0 0 0.999964 0.000632272
334 5.55998 7.0582 0.147991 0 0 0.99997 0.000489948
414 5.88024 8.3553 0.171006 0 0 0.999943 0.000465053
415 5.49521 7.59667 1.03467 0 0 0.999959 0.00051912
417 6.50108 7.54589 0.169926 0 0 0.999958 0.000342688
420 6.4057 8.24599 1.04786 0 0 0.999942 0.000380262
419 7.29106 7.777 0.749479 0 0 0.99995 0.000209131
424 8.28667 8.32267 0.872933 0 0 0.999937 3.1205e-05
1258 7.28416 8.19173 1.70796 0 0 0.999937 0.000235271
1261 8.05441 7.49675 1.56629 0 0 0.999952 7.19909e-05
421 8.00109 7.61141 0.0284951 0 0 0.999955 6.7436e-05
348 9.837 7.22996 0.726734 0 0 0.999965 -0.000280496
423 8.91054 7.62467 0.664709 0 0 0.999954 -0.000102572
428 9.72689 8.62819 0.696937 0 0 0.999934 -0.000250628
1262 9.08994 8.70834 1.45217 0 0 0.999927 -0.000110053
1265 9.63635 7.89829 1.6071 0 0 0.999946 -0.000228061
352 11.3039 7.15017 0.813363 0 0 0.999971 -0.000539333
427 10.5644 7.95316 0.847903 0 0 0.999952 -0.000410337
1266 10.5779 8.71184 1.43282 0 0 0.999934 -0.000401955
1269 11.3925 7.81425 1.60898 0 0 0.999956 -0.000551201
429 11.2155 8.12617 0.0429778 0 0 0.999954 -0.000530231
356 12.6901 7.28997 0.568082 0 0 0.999975 -0.000747549
431 12.1624 8.24119 0.593756 0 0 0.999957 -0.000680109
1190 12.0508 7.1651 1.38265 0 0 0.999972 -0.000656767
1270 12.0719 8.68832 1.49711 0 0 0.999945 -0.000663429
1273 12.8412 8.00291 1.48096 0 0 0.999963 -0.000772884
360 14.3151 7.35729 0.584736 0 0 0.999983 -0.000915532
435 13.5969 8.09796 0.467037 0 0 0.999971 -0.000863295
1194 13.4405 7.34494 1.3457 0 0 0.999976 -0.00083928
1277 14.2256 8.1859 1.35578 0 0 0.999974 -0.000924519
362 16.4122 7.18396 0.277629 0 0 0.999996 -0.000973597
364 15.607 7.31156 0.922011 0 0 0.999991 -0.000976607
439 15.047 8.29449 0.866546 0 0 0.999983 -0.00097654
443 16.2374 8.15985 1.11142 0 0 0.999996 -0.000997701
1198 15.1214 7.52441 1.6283 0 0 0.999986 -0.000969753
441 15.8426 8.31435 0.152923 0 0 0.999992 -0.000997904
368 16.9558 7.36001 1.11598 0 0 1 -0.000966366
445 17.0453 8.1031 0.340437 0 0 1 -0.000974163
447 17.683 8.02075 1.02634 0 0 1.00001 -0.000938157
366 17.797 7.16339 0.213761 0 0 1 -0.000912833
370 18.9883 7.33263 0.641966 0 0 1.00001 -0.000803433
451 18.9089 8.14739 1.1826 0 0 1.00003 -0.000824354
376 19.856 7.65006 1.32253 0 0 1.00003 -0.000694856
453 19.788 8.13466 0.359443 0 0 1.00003 -0.000706838
449 18.4299 8.18535 0.169909 0 0 1.00002 -0.000875169
374 20.6874 7.45312 0.670477 0 0 1.00003 -0.000562972
455 20.6342 8.43187 1.03222 0 0 1.00005 -0.00057694
380 21.533 7.66419 1.14573 0 0 1.00004 -0.000415494
457 21.6034 8.33605 0.257696 0 0 1.00006 -0.000405257
459 22.5827 8.16941 1.0162 0 0 1.00006 -0.00021463
1218 22.4124 7.49173 1.75297 0 0 1.00005 -0.000246289
378 22.3317 7.47614 0.384793 0 0 1.00004 -0.000270861
384 23.4445 7.31352 1.04813 0 0 1.00005 -5.49197e-05
461 23.488 8.06708 0.384733 0 0 1.00006 -4.25109e-05
463 24.3472 8.09271 0.998387 0 0 1.00007 0.000129167
1302 24.2558 8.70926 1.68159 0 0 1.00008 0.00013362
382 24.3422 7.31727 0.2684 0 0 1.00005 0.000111678
388 25.1227 7.38664 1.25113 0 0 1.00005 0.000268127
467 26.0301 7.99847 0.985856 0 0 1.00007 0.000435185
1306 26.0291 8.62018 1.75175 0 0 1.00008 0.000464924
386 26.1009 7.27121 0.36716 0 0 1.00005 0.000427398
465 25.2357 8.12389 0.306836 0 0 1.00007 0.000291088
466 26.2837 8.5785 0.0888998 0 0 1.00007 0.000481342
392 26.795 7.10544 1.34013 0 0 1.00005 0.000547596
470 27.98 8.49942 0.427741 0 0 1.00006 0.000730421
471 27.8113 7.83221 1.21205 0 0 1.00006 0.000704985
472 26.99 8.64851 1.02272 0 0 1.00007 0.0006045
469 27.0088 7.77706 0.433265 0 0 1.00006 0.000581082
396 28.6672 7.10847 1.22836 0 0 1.00004 0.00078958
474 29.6131 8.3514 0.543547 0 0 1.00004 0.000893237
475 29.5158 7.67485 1.27519 0 0 1.00004 0.000879865
476 28.7974 8.55423 1.18397 0 0 1.00005 0.000833318
473 28.7119 7.71503 0.415253 0 0 1.00005 0.000798084
400 30.3433 7.08956 1.17885 0 0 1.00003 0.000920901
479 31.2699 7.82286 1.30099 0 0 1.00002 0.000972923
480 30.4501 8.48958 1.18338 0 0 1.00003 0.000956301
477 30.6558 7.87138 0.379959 0 0 1.00003 0.000943052
478 31.4454 8.62188 0.390613 0 0 1.00002 0.000981638
482 1.14242 10.285 0.274002 0 0 0.999987 0.00100409
483 1.03537 9.37758 1.20644 0 0 0.999993 0.00100063
484 0.275526 9.92976 0.898652 0 0 1.00001 0.00101961
481 0.388944 9.33606 0.122799 0 0 1.00001 0.000998104
1322 0.832884 10.1276 1.75333 0 0 0.999993 0.00103984
485 1.77643 9.44838 0.452313 0 0 0.999979 0.000959754
488 1.84651 10.375 0.970936 0 0 0.999971 0.000983765
486 2.61113 10.2789 0.0848165 0 0 0.999957 0.000919035
487 2.39381 9.44894 1.22423 0 0 0.999967 0.000932648
1326 2.79024 10.2378 1.66752 0 0 0.999952 0.000934332
1329 3.21813 9.24165 1.65645 0 0 0.999955 0.000869316
489 3.09054 9.37381 0.0808531 0 0 0.999958 0.000858035
492 3.39589 10.0382 0.732642 0 0 0.999945 0.000847948
491 3.94798 9.11398 0.856205 0 0 0.999949 0.000767315
493 4.59053 9.18629 0.00740739 0 0 0.99994 0.000678118
496 4.62102 9.98244 0.57232 0 0 0.999927 0.000696088
1330 4.13706 9.97646 1.6208 0 0 0.999932 0.000784989
1333 4.6875 9.07322 1.65259 0 0 0.999938 0.000689245
495 5.34171 8.95078 0.661269 0 0 0.999936 0.00056806
500 6.24914 9.80008 0.514654 0 0 0.999912 0.00043555
1334 5.32462 9.83784 1.16351 0 0 0.99992 0.00059996
1337 6.16211 9.05908 1.2601 0 0 0.999926 0.00044728
1417 6.24585 10.517 1.18745 0 0 0.999898 0.000467007
499 7.1718 8.88817 0.712101 0 0 0.999926 0.000253314
501 8.09759 9.05479 0.0811901 0 0 0.999923 7.35982e-05
504 7.96204 9.93212 0.57768 0 0 0.999902 0.00011718
1338 7.18503 9.74475 1.19399 0 0 0.999907 0.000277511
1341 8.0478 9.17492 1.40197 0 0 0.999916 0.000104451
503 8.9381 9.46181 0.728741 0 0 0.999913 -8.10642e-05
508 9.63998 10.3444 0.660062 0 0 0.999896 -0.000210772
1342 8.74952 10.2746 1.40907 0 0 0.999891 -1.41268e-05
1345 9.8247 9.59773 1.41435 0 0 0.99991 -0.000245427
432 11.3614 8.85461 0.733682 0 0 0.99994 -0.000550858
426 10.3947 8.89333 0.040267 0 0 0.999933 -0.000378617
507 10.455 9.68924 0.656698 0 0 0.999915 -0.000380296
1346 10.6221 10.1766 1.63629 0 0 0.999902 -0.000390293
1349 11.2894 9.64158 1.31785 0 0 0.999921 -0.000528796
436 12.9864 8.96985 0.787682 0 0 0.999953 -0.000800627
511 12.0919 9.82024 0.687048 0 0 0.999929 -0.000673457
516 12.8004 10.4794 0.960699 0 0 0.999929 -0.000781602
1353 12.5262 9.62096 1.61271 0 0 0.999934 -0.000731627
1274 13.6681 8.84763 1.5689 0 0 0.99996 -0.000877849
440 14.4456 9.20012 0.759971 0 0 0.99997 -0.000954104
515 13.5104 9.68488 0.836023 0 0 0.99995 -0.000869705
1354 13.4741 10.4146 1.70877 0 0 0.999938 -0.000861886
517 14.2508 10.154 0.214699 0 0 0.99996 -0.000951481
1278 15.0287 9.06929 1.76122 0 0 0.999977 -0.000989276
444 15.8776 9.15985 1.13623 0 0 0.999992 -0.00101537
519 15.1092 9.85993 1.01071 0 0 0.999977 -0.00100321
521 15.6681 10.1815 0.251662 0 0 0.999987 -0.00102784
523 16.4839 9.95865 0.961347 0 0 1 -0.00102388
442 16.4891 9.03209 0.259867 0 0 1 -0.00100843
438 15.2781 9.20778 0.0935116 0 0 0.999983 -0.00100009
452 18.2813 8.89568 0.943589 0 0 1.00003 -0.000901275
448 17.073 9.06913 1.12829 0 0 1.00001 -0.000991965
525 17.134 10.0262 0.207116 0 0 1.00002 -0.00100314
527 17.7553 9.86997 1.07314 0 0 1.00003 -0.000960052
446 17.7458 9.10799 0.116516 0 0 1.00002 -0.000950542
456 19.8079 8.95834 1.06612 0 0 1.00005 -0.000708069
529 18.5819 9.73276 0.300052 0 0 1.00004 -0.000879052
531 19.4928 9.89679 0.85221 0 0 1.00006 -0.000764788
532 18.7056 10.4551 1.14709 0 0 1.00005 -0.000869826
1369 18.6383 9.58625 1.71309 0 0 1.00004 -0.000869342
450 19.2296 8.96094 0.211196 0 0 1.00004 -0.000794429
533 19.9778 9.78588 0.073021 0 0 1.00007 -0.000688786
535 20.9231 9.80922 0.75397 0 0 1.00008 -0.000525719
1373 20.2379 9.66408 1.67745 0 0 1.00007 -0.000636441
454 20.7838 9.08101 0.208027 0 0 1.00006 -0.000552701
460 21.6264 9.03667 0.982693 0 0 1.00007 -0.000396464
1298 22.3933 8.8896 1.5918 0 0 1.00008 -0.000240008