ITEM: TIMESTEP
39000
ITEM: NUMBER OF ATOMS
32000
ITEM: BOX BOUNDS pp pp pp
0.0000000000000000e+00 3.1748021039364001e+01
0.0000000000000000e+00 3.1748021039364001e+01
0.0000000000000000e+00 3.1748021039364001e+01
ITEM: ATOMS id x y z c_phase c_nbond c_rho vx
4 0.572032 1.09253 0.478194 0 0 1.00005 0.00243669
83 1.43377 1.66464 0.790233 0 0 1.00005 0.00248899
842 1.18739 0.787968 1.40459 0 0 1.00005 0.00247278
921 0.475533 1.59292 1.38836 0 0 1.00005 0.0024661
3 1.18977 0.0753487 0.630586 0 0 1.00005 0.0024485
841 0.299554 0.269814 1.25792 0 0 1.00005 0.00242704
8 2.17702 0.835357 1.01392 0 0 1.00005 0.00248847
85 2.27091 1.50002 0.205426 0 0 1.00004 0.00249579
925 2.31787 1.65885 1.75021 0 0 1.00005 0.00253579
6 2.96991 0.740919 0.202953 0 0 1.00004 0.00248503
7 3.03359 0.0630187 1.04134 0 0 1.00004 0.00249022
87 3.10269 1.55041 0.875506 0 0 1.00004 0.00251441
846 3.14548 0.833117 1.73989 0 0 1.00004 0.00252004
12 3.8716 0.924373 0.974311 0 0 1.00004 0.00249814
849 3.93426 0.082283 1.72758 0 0 1.00004 0.00250916
929 4.06061 1.71648 1.7246 0 0 1.00004 0.00254233
10 4.55057 0.86389 0.319165 0 0 1.00004 0.00247679
850 4.759 0.95014 1.65706 0 0 1.00004 0.00250508
9 3.90463 0.099849 0.182831 0 0 1.00004 0.00247651
93 5.34477 1.61268 0.392534 0 0 1.00004 0.00247943
16 5.39982 0.571831 1.16013 0 0 1.00004 0.00246484
14 6.05068 0.649738 0.318512 0 0 1.00004 0.00242876
95 6.28105 1.33495 0.971692 0 0 1.00004 0.00244395
854 6.19692 0.464449 1.72909 0 0 1.00004 0.00245154
933 5.4397 1.7253 1.45735 0 0 1.00004 0.00250281
97 6.94937 1.42174 0.223386 0 0 1.00004 0.00240292
20 7.08144 0.40985 0.891689 0 0 1.00004 0.00238408
937 7.07054 1.03325 1.72555 0 0 1.00003 0.00241971
99 7.71824 1.25215 0.965298 0 0 1.00003 0.00236479
18 7.91833 0.669974 0.160551 0 0 1.00003 0.00232833
941 8.46336 1.29526 1.64863 0 0 1.00003 0.00233834
101 8.56404 1.41587 0.241923 0 0 1.00003 0.00230373
24 8.577 0.422214 1.08403 0 0 1.00003 0.00229501
22 9.1468 0.517927 0.264693 0 0 1.00003 0.00224158
28 9.82579 0.338547 0.920467 0 0 1.00003 0.00219584
103 9.31116 1.3344 1.11723 0 0 1.00003 0.00226127
105 9.90114 1.38662 0.10368 0 0 1.00003 0.00220172
32 11.4118 0.220796 0.65826 0 0 1.00003 0.00206015
107 10.6068 1.0743 0.845515 0 0 1.00003 0.00214357
866 10.7546 0.208971 1.48054 0 0 1.00003 0.00213442
949 11.5063 1.03155 1.44706 0 0 1.00003 0.00208217
946 10.8195 1.7182 1.75695 0 0 1.00003 0.002173
26 10.4868 0.372768 0.0813439 0 0 1.00003 0.0021334
36 13.0354 0.222496 0.654213 0 0 1.00003 0.00192384
111 12.2157 1.09402 0.529119 0 0 1.00003 0.00200327
870 12.3088 0.321664 1.33263 0 0 1.00003 0.00200009
953 12.8853 1.20997 1.40295 0 0 1.00003 0.00196845
40 14.4929 0.340212 0.798912 0 0 1.00003 0.00181395
115 13.7232 1.12386 0.858862 0 0 1.00003 0.00188591
117 14.1756 1.5743 0.157163 0 0 1.00003 0.00185473
874 13.7539 0.367851 1.66094 0 0 1.00003 0.00189187
957 14.5015 1.17064 1.50357 0 0 1.00003 0.00184425
119 14.9936 1.56711 0.674007 0 0 1.00003 0.00180229
38 15.2007 0.714702 0.0671693 0 0 1.00003 0.00176286
44 15.8079 0.765048 0.7935 0 0 1.00003 0.00173368
123 16.6361 1.54538 0.687812 0 0 1.00003 0.00170912
878 15.2497 0.468674 1.6554 0 0 1.00003 0.00178586
882 16.6327 0.70976 1.35142 0 0 1.00003 0.00170344
961 15.7277 1.50349 1.40707 0 0 1.00003 0.00177079
48 17.3489 0.728212 0.561453 0 0 1.00003 0.00166015
127 18.0133 1.58201 0.754949 0 0 1.00004 0.00166392
886 18.0046 0.745054 1.42485 0 0 1.00004 0.0016591
965 17.3105 1.74587 1.56704 0 0 1.00003 0.00170876
51 19.6374 0.00983796 0.662371 0 0 1.00004 0.00162543
52 18.8831 0.72637 0.686928 0 0 1.00004 0.00163064
131 19.6455 1.54081 0.837118 0 0 1.00004 0.00165135
889 19.1159 0.149992 1.5399 0 0 1.00004 0.00164213
890 19.7025 0.960223 1.68303 0 0 1.00004 0.00165826
969 18.7638 1.49819 1.49628 0 0 1.00004 0.00166586
129 18.9616 1.57319 0.00050875 0 0 1.00004 0.00164441
55 21.2464 0.343676 1.05804 0 0 1.00004 0.00166667
56 20.3644 0.768677 0.965533 0 0 1.00004 0.00164635
135 21.2424 1.62082 0.949824 0 0 1.00004 0.00169008
54 21.3197 0.757357 0.211993 0 0 1.00004 0.00166409
133 20.4649 1.49623 0.201611 0 0 1.00004 0.00165522
973 20.4519 1.75953 1.7178 0 0 1.00004 0.00169226
57 22.1748 0.268515 0.53018 0 0 1.00005 0.0016982
59 22.9906 0.422299 1.38151 0 0 1.00005 0.00176
60 22.2849 1.13565 1.31239 0 0 1.00005 0.0017308
137 22.1601 1.57988 0.51806 0 0 1.00005 0.00172125
58 23.1047 1.04042 0.453606 0 0 1.00005 0.00175997
63 24.4974 0.372027 1.40349 0 0 1.00005 0.00186616
61 23.7863 0.345496 0.567729 0 0 1.00005 0.00179679
62 24.6823 1.15563 0.737649 0 0 1.00005 0.00187813
64 23.7052 1.21719 1.37494 0 0 1.00005 0.00182129
65 25.2312 0.310838 0.536977 0 0 1.00005 0.00190799
67 26.3119 0.368515 1.15308 0 0 1.00005 0.0020082
68 25.4486 1.10751 1.44092 0 0 1.00005 0.00195591
147 26.244 1.70752 1.32997 0 0 1.00005 0.00203704
66 26.1948 0.925402 0.416179 0 0 1.00005 0.00199454
70 27.9409 1.26414 0.378381 0 0 1.00005 0.00215183
71 27.9784 0.49164 0.863171 0 0 1.00005 0.00214662
72 27.0886 1.01188 1.23547 0 0 1.00005 0.00208758
69 27.1213 0.239186 0.23456 0 0 1.00005 0.00206279
149 26.8837 1.76128 0.504749 0 0 1.00005 0.00207857
913 28.7815 0.344427 1.40294 0 0 1.00005 0.00222237
76 29.0456 1.2097 0.719204 0 0 1.00005 0.00224263
914 29.7868 0.95954 1.55422 0 0 1.00005 0.0023125
993 28.9117 1.7074 1.49113 0 0 1.00005 0.00226537
75 29.6846 0.34918 0.613513 0 0 1.00005 0.00227411
917 30.2608 0.160444 1.44108 0 0 1.00005 0.00233189
79 31.1622 0.462176 0.484744 0 0 1.00005 0.00236935
80 30.5207 1.18294 0.765842 0 0 1.00005 0.0023487
918 31.3034 0.967054 1.38401 0 0 1.00005 0.00240381
82 1.57811 2.43553 0.116393 0 0 1.00005 0.00251993
84 0.603935 2.37521 0.805181 0 0 1.00005 0.00249052
922 1.61621 2.36607 1.59152 0 0 1.00005 0.00254706
1001 0.862506 3.03651 1.55006 0 0 1.00005 0.00255956
161 0.801746 3.10552 0.128994 0 0 1.00005 0.00253204
163 1.7625 3.2234 0.942667 0 0 1.00005 0.00258145
88 2.3864 2.41562 0.791579 0 0 1.00004 0.0025432
167 3.13035 3.29499 0.861144 0 0 1.00004 0.00260443
926 3.15148 2.25881 1.55651 0 0 1.00004 0.00256334
86 3.18292 2.39977 0.0539074 0 0 1.00004 0.00254229
1005 2.59046 3.10962 1.76014 0 0 1.00004 0.00261597
1009 3.75151 3.42917 1.6665 0 0 1.00004 0.00263848
92 3.84382 2.57875 0.796754 0 0 1.00004 0.00255778
91 4.45076 1.84543 0.723727 0 0 1.00004 0.00251346
171 4.65579 3.34896 0.767141 0 0 1.00004 0.00259303
930 4.60408 2.66478 1.59827 0 0 1.00004 0.00257493
96 5.33885 2.58958 0.834268 0 0 1.00004 0.00253114
94 6.06288 2.47745 0.144633 0 0 1.00004 0.00248964
175 6.0817 3.23843 0.974261 0 0 1.00004 0.00254701
934 6.27011 2.23946 1.51541 0 0 1.00004 0.00249635
173 5.4242 3.35872 0.0122033 0 0 1.00004 0.00256725
1017 6.94027 3.1112 1.5748 0 0 1.00003 0.00251696
100 6.94671 2.21919 0.795898 0 0 1.00004 0.00244292
177 7.03083 2.98713 0.133935 0 0 1.00003 0.00247286
98 7.80814 2.26441 0.141397 0 0 1.00003 0.00238815
179 7.7779 3.10904 0.938667 0 0 1.00003 0.00245009
938 7.67031 2.09938 1.59828 0 0 1.00003 0.00241928
104 8.43153 2.23735 0.957069 0 0 1.00003 0.00235711
1021 8.54236 3.04885 1.68609 0 0 1.00003 0.00242002
181 8.61274 3.01764 0.0455011 0 0 1.00003 0.00237625
102 9.21655 2.13604 0.25749 0 0 1.00003 0.00228425
183 9.2453 3.02186 0.955692 0 0 1.00003 0.00234328
942 9.34083 2.26189 1.74579 0 0 1.00003 0.00231757
185 9.8605 2.96053 0.213247 0 0 1.00003 0.0022789
108 10.0527 2.05935 1.12141 0 0 1.00003 0.00223042
106 10.5378 2.14887 0.210284 0 0 1.00003 0.00217951
112 11.3816 1.86733 0.790748 0 0 1.00003 0.0021039
187 10.8737 2.85408 0.940169 0 0 1.00003 0.00219929
1029 11.6683 2.88238 1.61933 0 0 1.00003 0.00215717
116 12.8446 1.96976 0.614212 0 0 1.00003 0.00198053
191 12.1334 2.69296 0.7562 0 0 1.00003 0.00207892
950 12.13 1.95386 1.49755 0 0 1.00003 0.00206101
1033 13.0333 3.06285 1.7247 0 0 1.00003 0.00205512
195 13.3697 3.05923 0.853405 0 0 1.00003 0.00199749
954 13.5396 2.02155 1.50482 0 0 1.00003 0.00194675
114 13.5662 2.32978 0.0566197 0 0 1.00003 0.00193317
120 14.1623 2.47393 0.933365 0 0 1.00003 0.001904
1037 14.1876 3.427 1.58023 0 0 1.00003 0.00197961
199 14.8411 3.46493 0.886719 0 0 1.00003 0.00191271
958 14.9235 2.32653 1.45261 0 0 1.00003 0.00185548
118 14.9627 2.52901 0.140489 0 0 1.00003 0.00183962
197 14.2988 3.25267 0.0440301 0 0 1.00003 0.00192834
124 15.8024 2.4502 0.707282 0 0 1.00003 0.00178856
203 16.4225 3.21168 0.681795 0 0 1.00003 0.00179606
962 16.4154 2.48445 1.53311 0 0 1.00003 0.00177728
1041 15.5125 3.27834 1.52177 0 0 1.00003 0.00187346
201 15.6885 3.27847 0.0288311 0 0 1.00003 0.00183531
128 17.1651 2.35917 0.686263 0 0 1.00003 0.00171812
207 18.0479 2.925 0.706362 0 0 1.00004 0.00172017
966 18.1185 2.42849 1.58711 0 0 1.00004 0.00171516
1045 17.199 3.11706 1.50528 0 0 1.00003 0.0017764
132 18.9955 2.34834 1.00708 0 0 1.00004 0.00168379
211 19.8198 3.20806 1.26443 0 0 1.00004 0.00173714
209 18.9906 2.98309 0.18898 0 0 1.00004 0.0017048
130 19.7053 2.31371 0.10647 0 0 1.00004 0.00167288
134 21.3123 2.3903 0.44871 0 0 1.00004 0.00171408
136 20.3276 2.43585 1.09788 0 0 1.00004 0.00169967
215 21.4775 3.25791 1.3645 0 0 1.00004 0.00178419
213 20.5534 2.97 0.32644 0 0 1.00004 0.00171907
139 23.0806 2.02193 1.49098 0 0 1.00005 0.00180723
138 23.1736 2.5629 0.718412 0 0 1.00005 0.00181992
140 22.2659 2.45873 1.21996 0 0 1.00005 0.00177409
217 22.164 3.15868 0.59217 0 0 1.00005 0.00179333
16179 22.8973 3.34448 0.0578168 0 0 1.00005 0.00183935
141 23.9635 1.77914 0.611324 0 0 1.00005 0.00184066
143 24.6829 1.95075 1.56729 0 0 1.00005 0.00192392
142 24.6016 2.63488 0.75806 0 0 1.00005 0.00192772
144 23.9254 2.84171 1.50481 0 0 1.00005 0.00190629
223 24.7548 3.45208 1.52313 0 0 1.00005 0.00200732
16108 25.2396 2.78193 0.011111 0 0 1.00005 0.00198139
145 25.4129 1.82069 0.511076 0 0 1.00005 0.00195482
146 26.1094 2.5623 0.687352 0 0 1.00005 0.002048
148 25.4576 2.51859 1.48973 0 0 1.00005 0.00200878
227 26.0501 3.43602 1.48608 0 0 1.00005 0.00211554
229 26.5233 3.44574 0.580105 0 0 1.00005 0.00213531
152 26.8758 2.52533 1.49852 0 0 1.00005 0.0021333
151 27.8695 1.95232 1.20772 0 0 1.00005 0.00218403
150 27.4511 2.64683 0.620822 0 0 1.00005 0.00216847
231 27.5955 3.29842 1.38916 0 0 1.00005 0.00223868
233 28.3796 3.1829 0.333931 0 0 1.00005 0.00227363
153 28.6472 2.06176 0.339237 0 0 1.00005 0.00223696
156 28.6547 2.71303 1.17836 0 0 1.00005 0.00228454
155 29.8574 2.00079 0.878438 0 0 1.00005 0.00233299
154 29.6132 2.65675 0.28055 0 0 1.00005 0.00233947
235 29.6962 3.21621 1.17529 0 0 1.00005 0.00239512
997 30.4111 1.78669 1.68933 0 0 1.00005 0.00238528
159 31.3652 1.95679 0.918161 0 0 1.00005 0.00242806
160 30.6273 2.6831 0.99379 0 0 1.00005 0.00242069
239 31.501 3.30726 0.971224 0 0 1.00005 0.0025089
998 31.4527 2.66947 1.72122 0 0 1.00005 0.00249146
237 30.5826 3.20715 0.160465 0 0 1.00005 0.0024376
157 30.8363 1.8886 0.042337 0 0 1.00005 0.00238371
158 31.5993 2.6358 0.0766106 0 0 1.00005 0.00246235
164 0.78423 3.76983 0.91966 0 0 1.00005 0.00258683
241 0.648553 4.59475 0.461506 0 0 1.00005 0.00264106
243 1.63767 4.65915 0.990208 0 0 1.00005 0.00269031
244 0.62702 5.24887 1.26994 0 0 1.00005 0.00271963
162 1.53735 3.85261 0.0812055 0 0 1.00005 0.00260758
1081 0.984148 4.39111 1.76005 0 0 1.00005 0.00267315
168 2.3606 4.04468 0.858405 0 0 1.00005 0.00265125
247 3.05355 4.87978 1.1302 0 0 1.00004 0.00273863
166 3.14707 4.16145 0.198171 0 0 1.00004 0.0026597
245 2.41218 4.96184 0.289097 0 0 1.00005 0.00272211
249 3.91604 4.88426 0.169091 0 0 1.00004 0.00271968
172 3.9675 4.10783 0.901196 0 0 1.00004 0.00266255
251 4.56061 4.91621 1.16756 0 0 1.00004 0.00273359
170 4.72215 4.20866 0.146143 0 0 1.00004 0.0026496
176 5.37546 4.05437 1.17729 0 0 1.00004 0.00263886
253 5.48131 4.79142 0.334974 0 0 1.00004 0.00268202
174 6.19275 3.9868 0.189124 0 0 1.00004 0.00258573
255 6.16425 4.77603 1.0569 0 0 1.00004 0.00266997
180 6.92625 3.8313 0.803154 0 0 1.00003 0.00254696
1097 7.10084 4.59127 1.68848 0 0 1.00003 0.00263256
260 7.10856 5.21733 0.894706 0 0 1.00003 0.00266287
259 7.80688 4.53056 0.573852 0 0 1.00003 0.00255111
1018 7.80231 3.92746 1.53844 0 0 1.00003 0.00252858
184 8.56655 3.94227 0.728987 0 0 1.00003 0.00245447
1101 8.58804 4.68504 1.52386 0 0 1.00003 0.00254171
263 9.41903 4.64276 0.845213 0 0 1.00003 0.00245445
1022 9.39943 3.83473 1.54201 0 0 1.00003 0.0024098
182 9.31814 3.93086 0.0636707 0 0 1.00003 0.00239069
265 10.1649 4.59551 0.134071 0 0 1.00003 0.00237895
188 10.1865 3.6485 0.911481 0 0 1.00003 0.00231096
1105 10.1937 4.43151 1.70591 0 0 1.00003 0.00240452
192 11.6428 3.70387 0.817546 0 0 1.00003 0.00218889
267 10.8733 4.72737 0.93387 0 0 1.00003 0.0023452
269 11.6366 4.77057 0.229143 0 0 1.00003 0.00226993
1026 10.9715 3.64102 1.63385 0 0 1.00003 0.00226847
1109 11.6214 4.46766 1.74508 0 0 1.00003 0.00228774
186 10.8585 3.9068 0.177239 0 0 1.00003 0.00226242
196 12.7003 3.65198 0.833711 0 0 1.00003 0.00209517
271 12.4108 4.61967 1.02585 0 0 1.00003 0.00220488
1113 12.9855 5.05159 1.72932 0 0 1.00003 0.00222442
273 12.8384 4.68141 0.0610635 0 0 1.00003 0.00215738
275 13.4234 4.76062 0.818246 0 0 1.00003 0.00212458
200 14.1594 4.16717 0.712426 0 0 1.00003 0.00201154
1034 13.6742 4.27369 1.62299 0 0 1.00003 0.00208976
1117 14.3807 5.16545 1.55755 0 0 1.00003 0.0021111
277 14.3104 4.94347 0.0762422 0 0 1.00003 0.00205859
279 15.1034 5.05509 0.827455 0 0 1.00003 0.00202074
198 15.0993 4.2197 0.106831 0 0 1.00003 0.0019397
1038 15.1249 4.44372 1.61578 0 0 1.00003 0.00199229
204 15.7948 4.08835 0.929803 0 0 1.00003 0.00189612
281 16.0043 4.79405 0.189546 0 0 1.00003 0.00192923
283 16.7215 4.5959 0.908265 0 0 1.00003 0.00188574
1042 16.4499 3.97612 1.6995 0 0 1.00003 0.00187704
1121 15.9664 5.07041 1.66231 0 0 1.00003 0.00199589
208 17.384 3.83205 0.812993 0 0 1.00003 0.00179788
287 18.2048 4.47597 1.09423 0 0 1.00004 0.00182909
1046 18.0681 3.63347 1.65553 0 0 1.00004 0.0017884
285 17.5645 4.5754 0.0217515 0 0 1.00003 0.0018386
206 18.2492 3.84036 0.0674589 0 0 1.00004 0.00176601
212 18.9871 3.68998 0.952177 0 0 1.00004 0.00175767
289 18.9528 4.58776 0.358761 0 0 1.00004 0.00181314
291 19.8234 4.63273 1.08823 0 0 1.00004 0.00183156
292 18.9218 5.2507 1.19212 0 0 1.00004 0.0018862
210 19.7244 3.73646 0.234417 0 0 1.00004 0.00175088
216 20.5833 3.77998 1.21976 0 0 1.00004 0.00178436
295 21.0553 4.6639 1.36706 0 0 1.00004 0.00186895
214 21.256 3.88826 0.506133 0 0 1.00004 0.00179707
293 20.3004 4.74069 0.339866 0 0 1.00004 0.00183237
297 21.7884 4.88888 0.785537 0 0 1.00005 0.00189972
219 23.0458 3.56338 1.38653 0 0 1.00005 0.00188595
220 22.1353 4.07226 1.28644 0 0 1.00005 0.00186621
299 22.7116 5.08825 1.24982 0 0 1.00005 0.00197786
218 22.8429 4.27866 0.51316 0 0 1.00005 0.00190383
221 23.8205 3.57059 0.760024 0 0 1.00005 0.00192335
222 24.6206 4.25487 0.61431 0 0 1.00005 0.00203043
224 23.7269 4.46671 1.31005 0 0 1.00005 0.00199654
301 23.8153 4.98844 0.516894 0 0 1.00005 0.002026
303 24.6723 5.2018 1.39565 0 0 1.00005 0.00213578
305 25.188 5.15861 0.54972 0 0 1.00005 0.00215232
228 25.3388 4.40932 1.57207 0 0 1.00005 0.00213027
225 25.3676 3.59481 0.770072 0 0 1.00005 0.00204819
307 26.0629 5.05182 1.31646 0 0 1.00006 0.00223857
232 26.7342 4.21384 1.34389 0 0 1.00005 0.00222818
226 25.8711 4.32939 0.391768 0 0 1.00005 0.00213822
309 26.894 4.89735 0.62547 0 0 1.00005 0.00228035
311 27.7526 4.79567 1.3687 0 0 1.00006 0.00236699
236 28.3776 3.91272 1.08751 0 0 1.00005 0.00233742
230 27.4506 3.97266 0.571166 0 0 1.00005 0.00225242
313 28.7182 4.67574 0.687084 0 0 1.00006 0.00241868
234 29.3693 3.73246 0.463676 0 0 1.00005 0.00239093
315 29.5461 4.46379 1.29573 0 0 1.00006 0.00248144
314 29.8741 5.25619 0.796551 0 0 1.00005 0.00256282
240 30.463 4.00795 1.01705 0 0 1.00005 0.00249998
238 31.5116 3.96451 0.349671 0 0 1.00005 0.00254754
317 30.6962 4.65345 0.463075 0 0 1.00005 0.00255851
319 31.4842 4.58017 1.37023 0 0 1.00005 0.00262029
242 1.45516 5.51496 0.458315 0 0 1.00005 0.0027544
323 1.36798 6.18845 1.27515 0 0 1.00005 0.00284171
324 0.829084 6.91713 1.48443 0 0 1.00005 0.00291146
322 1.56094 6.92504 0.5649 0 0 1.00005 0.00290698
321 0.537954 5.98416 0.450634 0 0 1.00005 0.00276819
398 0.0365409 6.91169 0.604039 0 0 1.00005 0.00284592
248 2.09302 5.50967 1.37052 0 0 1.00005 0.00279592
328 2.29435 7.02878 1.25297 0 0 1.00005 0.00295576
325 2.43515 6.20757 0.505873 0 0 1.00005 0.0028473
327 2.84493 6.18276 1.41825 0 0 1.00005 0.00287665
246 3.21767 5.61784 0.278111 0 0 1.00004 0.00279156
252 3.66739 5.65716 1.30085 0 0 1.00004 0.0028205
332 3.82212 7.00546 1.168 0 0 1.00004 0.00295984
329 3.94573 6.30412 0.490098 0 0 1.00004 0.0028622
250 4.70684 5.50829 0.333873 0 0 1.00004 0.00276908
331 4.65981 6.13993 1.25179 0 0 1.00004 0.00285769
330 4.56297 7.05481 0.239794 0 0 1.00004 0.00293515
336 5.32328 6.87894 1.18783 0 0 1.00004 0.00292088
333 5.35334 6.29354 0.333719 0 0 1.00004 0.00283498
256 5.44475 5.49422 1.32069 0 0 1.00004 0.00277372
254 6.23994 5.46993 0.300876 0 0 1.00004 0.00271787
335 6.18504 6.28966 0.985801 0 0 1.00004 0.00282116
337 6.87026 6.14537 0.15243 0 0 1.00003 0.00275699
1177 6.95219 6.07137 1.64536 0 0 1.00003 0.00278854
340 6.94393 6.95377 1.01451 0 0 1.00003 0.0028604
339 7.76875 6.23032 0.784592 0 0 1.00003 0.00272839
1098 7.83334 5.48826 1.54207 0 0 1.00003 0.00267213
1178 7.77115 6.93864 1.65381 0 0 1.00003 0.00284436
258 7.74897 5.43525 0.0417007 0 0 1.00003 0.00263504
344 8.469 6.95371 0.751897 0 0 1.00003 0.00276133
264 8.60346 5.39982 0.724732 0 0 1.00003 0.00258479
1181 8.65515 6.21016 1.55103 0 0 1.00003 0.00269751
343 9.28369 6.2812 0.765267 0 0 1.00003 0.00262919
1102 9.42106 5.41909 1.63576 0 0 1.00003 0.00256046
262 9.37059 5.56026 0.0253021 0 0 1.00003 0.00253586
268 10.1056 5.41598 0.823236 0 0 1.00003 0.00247334
1185 10.1077 6.27727 1.53145 0 0 1.00003 0.00259299
345 10.1168 6.33595 0.102317 0 0 1.00003 0.00255876
272 11.667 5.36224 1.0319 0 0 1.00003 0.00234174
347 10.9174 6.12143 0.983582 0 0 1.00003 0.0024829
349 11.6173 6.4585 0.0800004 0 0 1.00003 0.00244315
346 10.8715 7.05586 0.146974 0 0 1.00003 0.00257459
1186 10.8337 7.03818 1.55511 0 0 1.00002 0.0026236
266 10.7949 5.65913 0.0130137 0 0 1.00003 0.00242961
270 12.249 5.69723 0.191661 0 0 1.00003 0.00230611
276 12.9159 5.88144 0.888955 0 0 1.00003 0.00228121
351 12.0558 6.31002 1.08631 0 0 1.00003 0.00240782
274 13.5226 5.60688 0.0449103 0 0 1.00003 0.00218547
1114 13.5588 5.94167 1.61147 0 0 1.00003 0.00226036
355 13.5923 6.64572 0.829475 0 0 1.00003 0.00230076
280 14.259 5.7771 0.795187 0 0 1.00003 0.00215371
1197 14.5352 6.70879 1.45389 0 0 1.00003 0.00225735
357 14.3373 6.44764 0.0433709 0 0 1.00003 0.00220449
278 15.1787 5.6743 0.0419886 0 0 1.00003 0.00206236
359 15.2307 6.49782 0.821728 0 0 1.00003 0.00215506
284 15.9878 5.76302 0.960153 0 0 1.00003 0.00203307
363 16.6556 6.47335 1.15948 0 0 1.00003 0.00207385
1118 15.2923 5.91336 1.72501 0 0 1.00003 0.00212809
361 15.8498 6.37719 0.0483254 0 0 1.00003 0.00208664
282 16.7598 5.43459 0.27588 0 0 1.00003 0.0019458
286 17.9662 5.30412 0.539527 0 0 1.00003 0.00189216
288 17.2478 5.43095 1.25278 0 0 1.00003 0.00194673
365 17.2275 6.28648 0.412013 0 0 1.00003 0.00200751
367 17.8219 6.24243 1.37944 0 0 1.00003 0.00201038
372 18.4524 7.03755 1.14273 0 0 1.00004 0.00206638
369 18.5346 6.20938 0.613764 0 0 1.00004 0.00196402
290 19.5949 5.71308 0.614115 0 0 1.00004 0.00191121
371 19.5002 6.51467 1.32748 0 0 1.00004 0.00200994
373 20.1896 6.6892 0.601354 0 0 1.00004 0.00201019
294 20.9497 5.70841 0.636174 0 0 1.00004 0.00193525
296 20.3579 5.55469 1.37334 0 0 1.00004 0.00192773
375 20.9911 6.53899 1.2781 0 0 1.00004 0.00203602
377 21.8925 6.58472 0.653523 0 0 1.00005 0.0020567
300 21.881 5.79394 1.34474 0 0 1.00005 0.00200133
16260 21.9157 5.66015 0.0540715 0 0 1.00005 0.00196337
298 22.9277 5.75146 0.640792 0 0 1.00005 0.00203472
379 22.9097 6.59403 1.17041 0 0 1.00005 0.002132
381 23.6534 6.66781 0.263851 0 0 1.00005 0.00216678
304 23.7781 5.79564 1.2485 0 0 1.00005 0.00211537
383 24.6717 6.467 1.13231 0 0 1.00005 0.0022501
302 24.4594 5.90218 0.405751 0 0 1.00005 0.00215677
306 26.0723 5.76783 0.668498 0 0 1.00006 0.00228807
308 25.4784 5.93421 1.61265 0 0 1.00006 0.00228443
385 25.539 6.62187 0.475374 0 0 1.00006 0.00232114
387 26.2601 6.49984 1.36402 0 0 1.00006 0.00240275
312 27.1157 5.7595 1.42828 0 0 1.00006 0.0024053
310 27.9461 5.47177 0.693454 0 0 1.00006 0.00242726
389 27.1869 6.2782 0.617914 0 0 1.00006 0.002438
391 28.1722 6.37318 1.33174 0 0 1.00006 0.00255678
390 28.2042 6.92129 0.504481 0 0 1.00006 0.00259241
392 27.2627 7.02187 1.29205 0 0 1.00006 0.00254619
316 28.8471 5.45348 1.43602 0 0 1.00006 0.00252478
395 29.9577 6.13668 1.29351 0 0 1.00006 0.00267283
393 28.9683 6.14346 0.634434 0 0 1.00006 0.00257835
16355 29.8825 6.078 0.0728758 0 0 1.00006 0.00263383
16276 28.9493 5.33586 0.0395715 0 0 1.00006 0.00249102
396 29.178 7.02555 1.19581 0 0 1.00006 0.00270591
394 30.1226 6.87703 0.496509 0 0 1.00006 0.00274029
318 31.4937 5.32547 0.583973 0 0 1.00005 0.0026675
320 30.7395 5.40516 1.42632 0 0 1.00005 0.00265508
397 30.9219 6.14548 0.626537 0 0 1.00005 0.00271704
399 31.7631 6.11657 1.36619 0 0 1.00005 0.00278265
400 30.8996 7.03566 1.16288 0 0 1.00005 0.00282627
401 0.869244 7.62801 0.643606 0 0 1.00005 0.00296227
402 1.49068 8.46835 0.594472 0 0 1.00005 0.00307591
404 0.986949 8.52746 1.44908 0 0 1.00005 0.00309786
478 0.311801 8.57333 0.386428 0 0 1.00005 0.00303878
479 0.101635 7.77342 1.28075 0 0 1.00005 0.00296619
403 1.72545 7.83843 1.48561 0 0 1.00005 0.00304549
405 2.21113 7.76774 0.388181 0 0 1.00005 0.00301191
408 2.38033 8.62544 1.46338 0 0 1.00005 0.00314795
326 3.06683 7.14995 0.470118 0 0 1.00004 0.00295652
406 2.85146 8.62566 0.401482 0 0 1.00005 0.00311749
407 3.01823 7.8288 1.29214 0 0 1.00005 0.00305665
412 3.66888 8.55425 0.964647 0 0 1.00004 0.00312869
409 3.83866 7.79263 0.337448 0 0 1.00004 0.00302528
410 4.43846 8.50132 0.0800705 0 0 1.00004 0.0030982
411 4.57498 7.6852 1.23847 0 0 1.00004 0.00302983
413 5.25355 7.71471 0.238652 0 0 1.00004 0.00299214
416 5.29588 8.33603 0.968188 0 0 1.00004 0.00308093
334 6.07541 7.10813 0.162264 0 0 1.00004 0.00289902
414 6.43634 8.43156 0.188841 0 0 1.00003 0.00303471
415 6.04668 7.64572 1.04396 0 0 1.00004 0.00297937
420 6.94466 8.28701 1.084 0 0 1.00003 0.00301621
417 7.01094 7.64092 0.171265 0 0 1.00003 0.0029176
419 7.80023 7.85047 0.778602 0 0 1.00003 0.00290975
1258 7.80178 8.26241 1.75324 0 0 1.00003 0.003005
1182 9.49937 7.06478 1.52075 0 0 1.00003 0.00273257
421 8.47246 7.70955 0.0258337 0 0 1.00003 0.00283788
1261 8.54247 7.59048 1.61605 0 0 1.00003 0.00286982
424 8.75082 8.42716 0.913243 0 0 1.00003 0.00292137
423 9.34929 7.72194 0.693661 0 0 1.00003 0.0027861
1262 9.54743 8.80126 1.51742 0 0 1.00002 0.00294039
1265 10.0952 7.98985 1.65506 0 0 1.00002 0.0028068
428 10.1628 8.72321 0.734687 0 0 1.00002 0.00284265
348 10.2174 7.31306 0.764606 0 0 1.00003 0.00267344
352 11.6287 7.24125 0.841191 0 0 1.00002 0.00254598
427 10.9568 8.04157 0.880332 0 0 1.00002 0.00270044
429 11.5796 8.22088 0.0497156 0 0 1.00002 0.00264753
1269 11.7435 7.92679 1.66019 0 0 1.00002 0.00265835
356 12.9854 7.38333 0.599147 0 0 1.00002 0.00243228
431 12.4968 8.31462 0.631654 0 0 1.00002 0.00258726
1190 12.3929 7.25559 1.43958 0 0 1.00002 0.0025057
1270 12.4255 8.78802 1.56517 0 0 1.00002 0.00269609
1273 13.1497 8.09956 1.53788 0 0 1.00002 0.00254465
350 12.2029 7.47215 0.000991834 0 0 1.00002 0.00250389
360 14.5412 7.41502 0.632006 0 0 1.00003 0.00230341
435 13.8786 8.17764 0.503443 0 0 1.00002 0.00244288
1194 13.7318 7.41243 1.40309 0 0 1.00002 0.00240184
1277 14.5091 8.23346 1.40487 0 0 1.00002 0.00243258
439 15.3156 8.34066 0.887566 0 0 1.00003 0.00235609
362 16.6186 7.20238 0.291459 0 0 1.00003 0.00213014
364 15.8327 7.34231 0.922869 0 0 1.00003 0.00220659
443 16.4811 8.18307 1.1237 0 0 1.00003 0.00226972
1198 15.357 7.57227 1.67895 0 0 1.00003 0.00230796
441 16.0665 8.33278 0.158365 0 0 1.00003 0.0022851
368 17.167 7.36331 1.12271 0 0 1.00003 0.00214273
445 17.2575 8.11628 0.328239 0 0 1.00003 0.00219751
447 17.9182 8.02001 1.03733 0 0 1.00003 0.00218092
366 17.9969 7.16536 0.226037 0 0 1.00003 0.00206766
370 19.2068 7.29581 0.626067 0 0 1.00004 0.00206636
451 19.1456 8.11559 1.16901 0 0 1.00004 0.00217373
453 20.0275 8.07885 0.357688 0 0 1.00004 0.00214575
449 18.6621 8.16443 0.188197 0 0 1.00004 0.00215542
376 20.0933 7.59501 1.29562 0 0 1.00004 0.00212636
374 20.9316 7.38854 0.64715 0 0 1.00004 0.00209956
455 20.9111 8.35713 1.00749 0 0 1.00004 0.002212
380 21.8131 7.57883 1.10947 0 0 1.00005 0.00216914
457 21.8949 8.25166 0.255089 0 0 1.00005 0.00222029
459 22.9109 8.08035 0.976073 0 0 1.00005 0.00227985
1218 22.7194 7.39614 1.69835 0 0 1.00005 0.00223052
378 22.6254 7.38565 0.373004 0 0 1.00005 0.00217215
458 23.0877 8.78985 0.196 0 0 1.00005 0.00234697
1298 22.7499 8.79466 1.54627 0 0 1.00005 0.0023777
384 23.7786 7.22103 1.02805 0 0 1.00005 0.00225182
461 23.8334 7.9755 0.357447 0 0 1.00005 0.00231899
463 24.7359 7.98013 0.954456 0 0 1.00006 0.0024084
1302 24.6692 8.62026 1.63233 0 0 1.00006 0.00251205
382 24.6904 7.21204 0.266402 0 0 1.00005 0.0023049
462 24.716 8.70427 0.19811 0 0 1.00006 0.00246682
1301 23.7277 7.93721 1.73351 0 0 1.00005 0.00236309
388 25.5278 7.28227 1.20212 0 0 1.00006 0.00241315
467 26.4883 7.90517 0.95539 0 0 1.00006 0.00255825
1306 26.5124 8.51894 1.68751 0 0 1.00006 0.00267154
386 26.5174 7.16228 0.361121 0 0 1.00006 0.00246337
465 25.6491 8.00233 0.30186 0 0 1.00006 0.00247491
466 26.7465 8.48091 0.0899798 0 0 1.00006 0.00262711
468 25.7385 8.74107 0.961733 0 0 1.00006 0.0025835
471 28.3324 7.7379 1.17104 0 0 1.00006 0.00271495
472 27.5039 8.55914 0.988729 0 0 1.00006 0.00272766
469 27.4845 7.68603 0.416653 0 0 1.00006 0.00260945
1310 28.3506 8.5954 1.73505 0 0 1.00006 0.00284758
470 28.5046 8.41501 0.393217 0 0 1.00006 0.00278128
475 30.0675 7.61633 1.25212 0 0 1.00006 0.00283961
476 29.3465 8.47289 1.15185 0 0 1.00006 0.00287941
473 29.2496 7.65774 0.401934 0 0 1.00006 0.00275894
474 30.1888 8.31992 0.52706 0 0 1.00006 0.00290513
480 31.0474 8.43607 1.17085 0 0 1.00006 0.00299276
477 31.2268 7.8291 0.379283 0 0 1.00005 0.00291227
483 1.69463 9.34111 1.19065 0 0 1.00005 0.00320056
484 0.943648 9.91981 0.907624 0 0 1.00005 0.00322647
481 1.02986 9.32076 0.126987 0 0 1.00005 0.00314964
1322 1.52274 10.1148 1.74579 0 0 1.00005 0.00331489
559 0.166246 9.24284 1.12299 0 0 1.00005 0.00312833
558 0.169189 9.91749 0.0649552 0 0 1.00005 0.00317394
482 1.81789 10.2726 0.260046 0 0 1.00005 0.00327481
485 2.41671 9.46332 0.435155 0 0 1.00005 0.00320625
488 2.52445 10.3493 0.978521 0 0 1.00005 0.0033175
486 3.26582 10.293 0.0728799 0 0 1.00005 0.00329792
487 3.04458 9.45646 1.21742 0 0 1.00005 0.00323893
1326 3.46045 10.2522 1.68611 0 0 1.00004 0.00335567
489 3.72984 9.3799 0.107695 0 0 1.00004 0.00320175
1329 3.89254 9.28163 1.70355 0 0 1.00004 0.0032478
492 4.04768 10.0808 0.766802 0 0 1.00004 0.00328871
491 4.57303 9.15389 0.876935 0 0 1.00004 0.00318569
1330 4.79698 10.0128 1.62631 0 0 1.00004 0.00331628
493 5.19308 9.26087 0.00342851 0 0 1.00004 0.00316939
496 5.2492 10.0408 0.583969 0 0 1.00004 0.00326302
1333 5.31461 9.11947 1.67472 0 0 1.00004 0.00320894
495 5.93033 9.03687 0.680134 0 0 1.00004 0.00313395
1334 5.96867 9.9081 1.23252 0 0 1.00004 0.0032517
1337 6.74841 9.15473 1.30834 0 0 1.00003 0.00314093
500 6.83225 9.87943 0.539576 0 0 1.00003 0.00318851
499 7.70357 8.97311 0.750545 0 0 1.00003 0.00304649
1338 7.73408 9.83862 1.25153 0 0 1.00003 0.00316667
504 8.50893 10.034 0.607557 0 0 1.00003 0.00311266
1341 8.5701 9.26765 1.45968 0 0 1.00003 0.00306227
501 8.60738 9.15248 0.0942969 0 0 1.00003 0.00299717
503 9.43206 9.55065 0.76267 0 0 1.00002 0.00299942
1342 9.28246 10.3432 1.4821 0 0 1.00002 0.00313892
1266 10.9909 8.83317 1.5037 0 0 1.00002 0.00282563
508 10.1314 10.4288 0.708875 0 0 1.00002 0.00304087
1345 10.2878 9.68288 1.49249 0 0 1.00002 0.00298634
426 10.8167 8.97911 0.0357667 0 0 1.00002 0.00280398
507 10.9036 9.78115 0.70193 0 0 1.00002 0.00290455
1346 11.081 10.2936 1.71729 0 0 1.00002 0.00300843
432 11.7291 8.94964 0.768371 0 0 1.00002 0.00273516
1349 11.7341 9.72057 1.40043 0 0 1.00002 0.00286041
436 13.29 9.034 0.818951 0 0 1.00002 0.00260526
511 12.4657 9.89641 0.727148 0 0 1.00002 0.00277765
516 13.1781 10.5674 0.999718 0 0 1.00002 0.00279638
1353 12.9277 9.71643 1.68849 0 0 1.00002 0.00277398
1274 13.9768 8.94762 1.62779 0 0 1.00002 0.00258127
440 14.7255 9.24351 0.795498 0 0 1.00002 0.00250289
515 13.85 9.78371 0.883182 0 0 1.00002 0.00264339
517 14.5674 10.1962 0.234403 0 0 1.00002 0.00260533
444 16.137 9.18562 1.1546 0 0 1.00003 0.00240795
519 15.4081 9.92145 1.05007 0 0 1.00002 0.00253584
521 15.9507 10.2054 0.253022 0 0 1.00002 0.00249718
442 16.7264 9.06829 0.271905 0 0 1.00003 0.00232698
438 15.5309 9.24513 0.128227 0 0 1.00002 0.00242295
523 16.758 9.98079 0.983427 0 0 1.00003 0.00244649
448 17.3234 9.0663 1.13476 0 0 1.00003 0.00232577
525 17.409 10.0277 0.20374 0 0 1.00003 0.00239232
527 18.0262 9.85501 1.07383 0 0 1.00003 0.00237903
446 17.9885 9.09909 0.125002 0 0 1.00003 0.00227144
452 18.5313 8.8858 0.944904 0 0 1.00003 0.00225546
529 18.8474 9.71594 0.304364 0 0 1.00004 0.00231723
531 19.7691 9.85755 0.852754 0 0 1.00004 0.00234486
532 18.9931 10.4383 1.13967 0 0 1.00004 0.00242128
1369 18.9092 9.56511 1.69865 0 0 1.00004 0.00237082
450 19.4741 8.92621 0.212262 0 0 1.00004 0.00222936
456 20.0846 8.90638 1.03632 0 0 1.00004 0.00225495
533 20.2785 9.73647 0.0689422 0 0 1.00004 0.00231848
535 21.2436 9.74567 0.747201 0 0 1.00005 0.0023607
1373 20.5321 9.61253 1.63481 0 0 1.00004 0.00237785
454 21.0642 9.00491 0.194749 0 0 1.00005 0.0022641
1374 21.4169 10.043 1.72928 0 0 1.00005 0.00245931
536 20.7244 10.5781 0.799457 0 0 1.00004 0.0024296
460 21.9342 8.95223 0.949499 0 0 1.00005 0.00231558
539 23.2026 9.60934 0.784939 0 0 1.00005 0.00245728
540 22.4747 10.4415 0.819707 0 0 1.00005 0.00249335
1377 22.2859 9.71055 1.48718 0 0 1.00005 0.00244668
537 22.3029 9.72487 0.214811 0 0 1.00005 0.00239553
1378 23.4468 10.4263 1.38867 0 0 1.00006 0.00259374