ITEM: TIMESTEP
38500
ITEM: NUMBER OF ATOMS
32000
ITEM: BOX BOUNDS pp pp pp
0.0000000000000000e+00 3.1748021039364001e+01
0.0000000000000000e+00 3.1748021039364001e+01
0.0000000000000000e+00 3.1748021039364001e+01
ITEM: ATOMS id x y z c_phase c_nbond c_rho vx
4 0.559965 1.09268 0.477891 0 0 1.00005 0.00240018
83 1.42145 1.66471 0.789977 0 0 1.00005 0.00245219
842 1.17472 0.788076 1.40476 0 0 1.00005 0.00243605
921 0.463063 1.59305 1.38801 0 0 1.00005 0.00242967
3 1.17741 0.0751919 0.630326 0 0 1.00005 0.00241172
841 0.287291 0.269743 1.25785 0 0 1.00005 0.00239059
8 2.16443 0.834857 1.01396 0 0 1.00004 0.00245127
85 2.25832 1.49956 0.205866 0 0 1.00004 0.00245855
925 2.30486 1.65904 1.75055 0 0 1.00004 0.00249867
6 2.95755 0.741232 0.203081 0 0 1.00004 0.00244736
7 3.0214 0.0628702 1.04137 0 0 1.00004 0.00245253
87 3.09024 1.5503 0.875781 0 0 1.00004 0.00247671
846 3.1327 0.832831 1.7401 0 0 1.00004 0.00248235
12 3.85924 0.924806 0.974133 0 0 1.00004 0.0024599
849 3.92205 0.0826078 1.72726 0 0 1.00004 0.00247089
929 4.04798 1.71643 1.72475 0 0 1.00004 0.00250408
10 4.53798 0.863933 0.319364 0 0 1.00004 0.00243803
850 4.74696 0.950309 1.65678 0 0 1.00004 0.00246621
9 3.8926 0.100065 0.182567 0 0 1.00004 0.00243819
93 5.33221 1.61268 0.39247 0 0 1.00004 0.00244008
16 5.38712 0.571735 1.16068 0 0 1.00004 0.00242543
14 6.03831 0.649683 0.318789 0 0 1.00004 0.00238873
95 6.26891 1.33466 0.971076 0 0 1.00004 0.00240377
854 6.18442 0.464371 1.72867 0 0 1.00004 0.00241146
933 5.42764 1.72564 1.45705 0 0 1.00004 0.00246342
97 6.93754 1.42128 0.223374 0 0 1.00003 0.00236212
20 7.06967 0.409505 0.891314 0 0 1.00003 0.00234313
937 7.0585 1.03286 1.72516 0 0 1.00003 0.00237887
99 7.70656 1.25165 0.965297 0 0 1.00003 0.00232331
18 7.90695 0.669756 0.160156 0 0 1.00003 0.0022866
941 8.45161 1.29507 1.64796 0 0 1.00003 0.00229622
101 8.55271 1.41555 0.241938 0 0 1.00003 0.00226146
24 8.56584 0.421967 1.08411 0 0 1.00003 0.00225269
22 9.13585 0.517884 0.265127 0 0 1.00003 0.00219873
28 9.81494 0.338689 0.919809 0 0 1.00003 0.00215245
103 9.30027 1.3341 1.11753 0 0 1.00003 0.00221838
105 9.89056 1.38683 0.103311 0 0 1.00003 0.00215829
32 11.402 0.220728 0.657748 0 0 1.00003 0.00201552
107 10.5962 1.07384 0.845162 0 0 1.00003 0.00209958
866 10.7443 0.208627 1.47994 0 0 1.00003 0.0020903
949 11.4959 1.03149 1.44668 0 0 1.00003 0.0020376
946 10.809 1.71749 1.7568 0 0 1.00003 0.00212895
26 10.4762 0.372747 0.0812984 0 0 1.00003 0.00208946
36 13.0257 0.222188 0.653902 0 0 1.00003 0.00187841
111 12.2062 1.09371 0.528622 0 0 1.00003 0.00195818
870 12.2991 0.321626 1.332 0 0 1.00003 0.00195498
953 12.8756 1.20995 1.40241 0 0 1.00003 0.00192312
40 14.4838 0.339599 0.798121 0 0 1.00003 0.00176816
115 13.7141 1.12371 0.858695 0 0 1.00003 0.00184026
117 14.1662 1.57417 0.157575 0 0 1.00003 0.00180905
874 13.7444 0.36768 1.66054 0 0 1.00003 0.00184628
957 14.4924 1.17007 1.50302 0 0 1.00003 0.00179851
119 14.9846 1.5669 0.673799 0 0 1.00003 0.00175656
38 15.1923 0.714668 0.0672189 0 0 1.00003 0.00171707
44 15.7991 0.76526 0.793432 0 0 1.00003 0.00168801
123 16.6279 1.54531 0.687644 0 0 1.00003 0.00166369
878 15.2409 0.46856 1.65522 0 0 1.00003 0.00174011
882 16.6244 0.709789 1.35113 0 0 1.00003 0.00165801
961 15.7192 1.50303 1.40669 0 0 1.00003 0.0017251
48 17.3404 0.72827 0.561009 0 0 1.00003 0.00161505
127 18.005 1.58171 0.754952 0 0 1.00004 0.00161923
886 17.9964 0.744828 1.42479 0 0 1.00004 0.00161439
965 17.3022 1.74586 1.56689 0 0 1.00003 0.0016637
51 19.6294 0.0100022 0.662243 0 0 1.00004 0.00158196
52 18.8751 0.726128 0.686735 0 0 1.00004 0.00158655
131 19.6374 1.54083 0.837072 0 0 1.00004 0.00160794
889 19.1081 0.150178 1.53979 0 0 1.00004 0.00159825
890 19.6942 0.960161 1.68288 0 0 1.00004 0.00161489
969 18.7552 1.49833 1.49614 0 0 1.00004 0.00162175
129 18.9535 1.57317 0.000398184 0 0 1.00004 0.00160041
55 21.2374 0.343764 1.05797 0 0 1.00004 0.00162473
56 20.3562 0.768703 0.965748 0 0 1.00004 0.00160357
135 21.2342 1.62138 0.949588 0 0 1.00004 0.00164823
54 21.3116 0.757303 0.212161 0 0 1.00004 0.00162224
133 20.4567 1.49633 0.201315 0 0 1.00004 0.00161255
973 20.4435 1.75989 1.71746 0 0 1.00004 0.00164965
57 22.1662 0.268141 0.530301 0 0 1.00005 0.00165717
59 22.9815 0.422336 1.38178 0 0 1.00005 0.00171983
60 22.2761 1.13551 1.31246 0 0 1.00005 0.00168993
137 22.1517 1.57984 0.518587 0 0 1.00005 0.00168027
58 23.0962 1.04102 0.45314 0 0 1.00005 0.00171992
63 24.4874 0.372162 1.40431 0 0 1.00005 0.00182735
61 23.7772 0.345723 0.567738 0 0 1.00005 0.00175733
62 24.6732 1.15609 0.737929 0 0 1.00005 0.00183953
64 23.6958 1.21772 1.37525 0 0 1.00005 0.00178184
65 25.2213 0.310882 0.537234 0 0 1.00005 0.00186973
67 26.302 0.368793 1.15324 0 0 1.00005 0.00197075
68 25.4389 1.10759 1.44158 0 0 1.00005 0.00191794
147 26.2339 1.70774 1.33025 0 0 1.00005 0.00199964
66 26.1848 0.925199 0.416477 0 0 1.00005 0.00195699
70 27.9301 1.26434 0.378537 0 0 1.00005 0.00211519
71 27.9676 0.492005 0.863259 0 0 1.00005 0.00210999
72 27.0784 1.01205 1.23588 0 0 1.00005 0.00205062
69 27.1111 0.239114 0.234192 0 0 1.00005 0.00202576
149 26.8733 1.7617 0.504742 0 0 1.00005 0.00204151
913 28.7701 0.34421 1.4027 0 0 1.00005 0.00218596
76 29.0345 1.21026 0.719573 0 0 1.00005 0.00220636
914 29.7758 0.959185 1.55442 0 0 1.00005 0.00227635
993 28.9009 1.70742 1.49109 0 0 1.00005 0.00222914
75 29.6731 0.349321 0.613443 0 0 1.00005 0.00223784
917 30.2487 0.160566 1.44144 0 0 1.00005 0.00229568
79 31.1499 0.46277 0.484436 0 0 1.00005 0.00233304
80 30.5092 1.18333 0.76599 0 0 1.00005 0.00231252
918 31.2916 0.967081 1.38419 0 0 1.00005 0.00236757
82 1.5657 2.43569 0.116676 0 0 1.00005 0.00248315
84 0.591511 2.3754 0.805298 0 0 1.00005 0.0024541
922 1.60362 2.36614 1.59153 0 0 1.00005 0.00251031
1001 0.850081 3.03651 1.55 0 0 1.00005 0.0025232
161 0.789461 3.10537 0.129077 0 0 1.00005 0.00249562
163 1.75003 3.22392 0.942843 0 0 1.00005 0.00254475
88 2.37371 2.41592 0.791439 0 0 1.00004 0.00250603
167 3.11761 3.29498 0.861217 0 0 1.00004 0.00256694
926 3.13843 2.25837 1.55618 0 0 1.00004 0.0025257
86 3.17043 2.3996 0.0539895 0 0 1.00004 0.0025046
1005 2.57783 3.10964 1.76039 0 0 1.00004 0.00257888
1009 3.73813 3.4296 1.66637 0 0 1.00004 0.00260071
92 3.83109 2.57856 0.796451 0 0 1.00004 0.00251969
91 4.43826 1.84569 0.723561 0 0 1.00004 0.00247484
171 4.64312 3.34871 0.766797 0 0 1.00004 0.00255446
930 4.59098 2.6647 1.59806 0 0 1.00004 0.00253637
96 5.32645 2.58972 0.833979 0 0 1.00004 0.00249191
94 6.05051 2.47722 0.144405 0 0 1.00004 0.00244974
175 6.06894 3.23805 0.974036 0 0 1.00004 0.00250725
934 6.25786 2.23887 1.51529 0 0 1.00004 0.00245632
173 5.41175 3.35884 0.0117638 0 0 1.00004 0.00252806
1017 6.9275 3.11084 1.57475 0 0 1.00003 0.00247651
100 6.93451 2.21874 0.795574 0 0 1.00003 0.00240223
177 7.01896 2.98629 0.13401 0 0 1.00003 0.00243214
98 7.79636 2.264 0.141464 0 0 1.00003 0.00234665
179 7.76565 3.1088 0.938963 0 0 1.00003 0.00240882
938 7.6582 2.09893 1.598 0 0 1.00003 0.00237799
104 8.41946 2.23711 0.956679 0 0 1.00003 0.00231511
1021 8.53024 3.0485 1.68573 0 0 1.00003 0.0023781
181 8.60088 3.01723 0.04539 0 0 1.00003 0.00233416
102 9.20497 2.13529 0.257525 0 0 1.00003 0.00224149
183 9.23358 3.02142 0.95531 0 0 1.00003 0.00230063
942 9.32928 2.26154 1.7452 0 0 1.00003 0.00227479
185 9.84891 2.9598 0.213339 0 0 1.00003 0.0022357
108 10.0416 2.05898 1.12153 0 0 1.00003 0.00218701
106 10.527 2.14854 0.210615 0 0 1.00003 0.00213565
112 11.3711 1.86663 0.790462 0 0 1.00003 0.00205941
187 10.8628 2.8536 0.940017 0 0 1.00003 0.0021553
1029 11.6578 2.88174 1.61863 0 0 1.00003 0.00211264
116 12.8348 1.9694 0.613751 0 0 1.00003 0.00193524
191 12.123 2.69211 0.756023 0 0 1.00003 0.00203404
950 12.1195 1.95334 1.49713 0 0 1.00003 0.00201613
1033 13.023 3.0623 1.72423 0 0 1.00003 0.00200995
195 13.3593 3.05895 0.853488 0 0 1.00003 0.00195222
954 13.5298 2.02105 1.5045 0 0 1.00003 0.00190127
114 13.5566 2.32922 0.056795 0 0 1.00003 0.00188764
120 14.1528 2.47353 0.933392 0 0 1.00003 0.0018584
1037 14.1777 3.42633 1.57991 0 0 1.00003 0.00193414
199 14.8313 3.46456 0.886853 0 0 1.00003 0.00186717
958 14.9138 2.3259 1.45265 0 0 1.00003 0.00180986
118 14.9535 2.52891 0.140509 0 0 1.00003 0.00179392
197 14.2894 3.25232 0.0438228 0 0 1.00003 0.00188275
124 15.7936 2.45012 0.706978 0 0 1.00003 0.00174295
203 16.4132 3.21136 0.681299 0 0 1.00003 0.00175071
962 16.4065 2.48435 1.53295 0 0 1.00003 0.0017319
1041 15.5026 3.27798 1.52134 0 0 1.00003 0.00182798
201 15.6793 3.27809 0.028649 0 0 1.00003 0.00178974
128 17.1564 2.35878 0.686175 0 0 1.00003 0.00167299
207 18.0392 2.92468 0.706055 0 0 1.00003 0.00167559
966 18.11 2.42852 1.58674 0 0 1.00004 0.00167063
1045 17.1902 3.11683 1.5049 0 0 1.00003 0.00173139
132 18.9872 2.34811 1.0071 0 0 1.00004 0.00163988
211 19.8115 3.20833 1.26453 0 0 1.00004 0.00169405
209 18.9822 2.9829 0.189209 0 0 1.00004 0.0016609
130 19.6968 2.31402 0.106293 0 0 1.00004 0.00162957
134 21.3036 2.39032 0.448829 0 0 1.00004 0.00167232
136 20.319 2.43616 1.09811 0 0 1.00004 0.00165697
215 21.4687 3.25803 1.36479 0 0 1.00004 0.00174276
213 20.545 2.96983 0.326586 0 0 1.00004 0.00167661
139 23.0715 2.0226 1.49101 0 0 1.00005 0.00176726
138 23.1648 2.56313 0.718649 0 0 1.00005 0.00178008
140 22.2574 2.45905 1.22004 0 0 1.00005 0.00173337
217 22.1553 3.1588 0.59217 0 0 1.00005 0.00175253
16179 22.8878 3.34503 0.0583548 0 0 1.00005 0.00179931
141 23.9547 1.77929 0.611458 0 0 1.00005 0.00180149
143 24.6736 1.95106 1.56797 0 0 1.00005 0.00188545
142 24.5921 2.63533 0.75826 0 0 1.00005 0.00188919
144 23.9162 2.84248 1.50516 0 0 1.00005 0.00186728
223 24.7449 3.45255 1.52349 0 0 1.00005 0.00196911
16108 25.2298 2.78285 0.0113092 0 0 1.00005 0.0019434
145 25.4032 1.82106 0.510803 0 0 1.00005 0.00191682
146 26.0992 2.56287 0.68768 0 0 1.00005 0.00201059
148 25.4476 2.51879 1.49015 0 0 1.00005 0.00197094
227 26.0397 3.43667 1.4863 0 0 1.00005 0.0020783
229 26.5124 3.44634 0.580333 0 0 1.00005 0.00209827
152 26.8654 2.52556 1.49892 0 0 1.00005 0.0020964
151 27.8589 1.95278 1.2082 0 0 1.00005 0.00214752
150 27.4403 2.64743 0.621261 0 0 1.00005 0.00213181
231 27.5841 3.29918 1.38941 0 0 1.00005 0.00220223
233 28.3683 3.18327 0.333767 0 0 1.00005 0.00223736
153 28.6359 2.06215 0.339288 0 0 1.00005 0.00220062
156 28.6434 2.71368 1.17874 0 0 1.00005 0.00224835
155 29.8463 2.00154 0.878439 0 0 1.00005 0.00229692
154 29.6017 2.65656 0.280658 0 0 1.00005 0.00230335
235 29.6842 3.21694 1.17515 0 0 1.00005 0.00235916
997 30.3988 1.78705 1.68963 0 0 1.00005 0.00234918
159 31.353 1.95741 0.918256 0 0 1.00005 0.00239185
160 30.6154 2.68367 0.993837 0 0 1.00005 0.00238467
239 31.4885 3.3081 0.971322 0 0 1.00005 0.00247288
998 31.4404 2.67003 1.72122 0 0 1.00005 0.00245539
237 30.5702 3.20795 0.159964 0 0 1.00005 0.00240162
157 30.8249 1.8889 0.0419266 0 0 1.00005 0.00234756
158 31.5872 2.63645 0.0765894 0 0 1.00005 0.00242617
164 0.771614 3.77014 0.919681 0 0 1.00005 0.00255059
241 0.635544 4.59487 0.462012 0 0 1.00005 0.00260497
243 1.62482 4.65966 0.990195 0 0 1.00005 0.00265392
244 0.613414 5.24934 1.27006 0 0 1.00005 0.00268375
162 1.52445 3.85289 0.080804 0 0 1.00005 0.00257102
1081 0.971341 4.39137 1.76038 0 0 1.00005 0.00263706
168 2.34713 4.04497 0.858139 0 0 1.00004 0.00261436
247 3.04005 4.87965 1.13035 0 0 1.00004 0.00270153
166 3.13384 4.16145 0.198452 0 0 1.00004 0.00262234
245 2.39892 4.96232 0.288895 0 0 1.00005 0.00268539
249 3.90249 4.88432 0.168953 0 0 1.00004 0.00268198
172 3.95471 4.10756 0.900915 0 0 1.00004 0.00262463
251 4.54683 4.91611 1.16733 0 0 1.00004 0.00269549
170 4.70937 4.20872 0.146212 0 0 1.00004 0.00261116
176 5.36243 4.05383 1.17775 0 0 1.00004 0.00259989
253 5.46809 4.79107 0.33519 0 0 1.00004 0.00264309
174 6.18032 3.98647 0.189413 0 0 1.00004 0.00254598
255 6.1505 4.77604 1.05654 0 0 1.00004 0.00263056
180 6.91315 3.83047 0.802692 0 0 1.00003 0.00250656
1097 7.08777 4.59029 1.68796 0 0 1.00003 0.00259225
260 7.09575 5.2162 0.894766 0 0 1.00003 0.00262262
259 7.79426 4.52985 0.573314 0 0 1.00003 0.00251004
1018 7.78955 3.92705 1.53793 0 0 1.00003 0.00248752
184 8.55417 3.94206 0.728564 0 0 1.00003 0.00241264
1101 8.57539 4.68434 1.52352 0 0 1.00003 0.00250009
263 9.40696 4.64196 0.845021 0 0 1.00003 0.00241198
1022 9.38773 3.83391 1.54143 0 0 1.00003 0.00236717
182 9.30617 3.93022 0.0637245 0 0 1.00003 0.00234813
265 10.1533 4.59415 0.134027 0 0 1.00003 0.00233573
188 10.1752 3.64757 0.911173 0 0 1.00003 0.0022676
1105 10.1816 4.43047 1.70526 0 0 1.00003 0.00236144
192 11.6321 3.70317 0.816745 0 0 1.00003 0.00214446
267 10.8619 4.72704 0.933605 0 0 1.00003 0.00230159
269 11.6256 4.76953 0.229338 0 0 1.00003 0.00222569
1026 10.9604 3.63999 1.63321 0 0 1.00003 0.00222456
1109 11.6102 4.46615 1.74471 0 0 1.00003 0.00224352
186 10.8471 3.90627 0.177354 0 0 1.00003 0.00221861
196 12.6902 3.6507 0.833443 0 0 1.00003 0.00205007
271 12.4002 4.61877 1.02555 0 0 1.00003 0.00216017
1113 12.974 5.05122 1.72884 0 0 1.00003 0.00217976
273 12.8282 4.68061 0.0612006 0 0 1.00003 0.00211241
275 13.4128 4.7591 0.818129 0 0 1.00003 0.0020794
200 14.1493 4.16669 0.71218 0 0 1.00003 0.00196617
1034 13.6637 4.27299 1.62269 0 0 1.00003 0.00204457
1117 14.3704 5.16479 1.55692 0 0 1.00003 0.00206586
277 14.3003 4.94306 0.075914 0 0 1.00003 0.00201328
279 15.0932 5.05425 0.82715 0 0 1.00003 0.00197538
198 15.0898 4.21937 0.106669 0 0 1.00003 0.0018942
1038 15.1149 4.4434 1.61547 0 0 1.00003 0.00194695
204 15.7855 4.08792 0.929873 0 0 1.00003 0.0018507
281 15.9951 4.79361 0.189586 0 0 1.00003 0.00188391
283 16.7121 4.5953 0.908065 0 0 1.00003 0.00184064
1042 16.4404 3.97561 1.69931 0 0 1.00003 0.00183183
1121 15.9564 5.07008 1.66188 0 0 1.00003 0.00195075
208 17.375 3.83184 0.812924 0 0 1.00003 0.00175302
287 18.196 4.47573 1.0942 0 0 1.00003 0.00178482
1046 18.0593 3.63311 1.6553 0 0 1.00003 0.00174396
285 17.5558 4.57505 0.0215626 0 0 1.00003 0.00179387
206 18.2404 3.84025 0.0672187 0 0 1.00004 0.00172166
212 18.9787 3.68976 0.951911 0 0 1.00004 0.00171387
289 18.9438 4.5876 0.358806 0 0 1.00004 0.00176942
291 19.8147 4.63305 1.08772 0 0 1.00004 0.00178867
292 18.9128 5.25057 1.19207 0 0 1.00004 0.00184261
210 19.7158 3.73649 0.23412 0 0 1.00004 0.00170773
216 20.5747 3.78019 1.21976 0 0 1.00004 0.00174209
295 21.0463 4.66413 1.36736 0 0 1.00004 0.00182735
214 21.2469 3.88834 0.506095 0 0 1.00004 0.00175543
293 20.2911 4.7409 0.340019 0 0 1.00004 0.00178994
297 21.7787 4.88925 0.785914 0 0 1.00005 0.00185885
219 23.0365 3.56418 1.38694 0 0 1.00005 0.0018462
220 22.1262 4.07274 1.28657 0 0 1.00005 0.0018256
299 22.7017 5.08917 1.24987 0 0 1.00005 0.00193806
218 22.8332 4.2793 0.512831 0 0 1.00005 0.00186392
221 23.811 3.57137 0.760346 0 0 1.00005 0.00188429
222 24.6106 4.2554 0.614246 0 0 1.00005 0.00199218
224 23.7171 4.46762 1.31003 0 0 1.00005 0.0019576
301 23.8056 4.98908 0.517045 0 0 1.00005 0.0019872
303 24.662 5.20268 1.396 0 0 1.00005 0.00209789
305 25.1771 5.15987 0.54987 0 0 1.00005 0.00211476
228 25.3282 4.41046 1.57281 0 0 1.00005 0.00209278
225 25.3574 3.5961 0.770678 0 0 1.00005 0.00201049
307 26.0516 5.05283 1.31657 0 0 1.00005 0.00220165
232 26.7231 4.21482 1.34414 0 0 1.00005 0.0021915
226 25.8604 4.33017 0.391497 0 0 1.00005 0.00210093
309 26.8826 4.8982 0.625643 0 0 1.00005 0.00224382
311 27.7409 4.79659 1.36924 0 0 1.00006 0.00233092
236 28.366 3.91358 1.08765 0 0 1.00005 0.00230133
230 27.4394 3.97355 0.571043 0 0 1.00005 0.00221599
313 28.7063 4.67657 0.687399 0 0 1.00005 0.00238283
234 29.3574 3.73298 0.464068 0 0 1.00005 0.00235498
315 29.5339 4.46473 1.29636 0 0 1.00005 0.00244575
314 29.8615 5.25702 0.796812 0 0 1.00005 0.00252725
240 30.4507 4.00899 1.01729 0 0 1.00005 0.00246422
238 31.499 3.96482 0.350048 0 0 1.00005 0.00251157
317 30.6835 4.65402 0.463464 0 0 1.00005 0.00252279
319 31.4712 4.58062 1.37098 0 0 1.00005 0.00258452
242 1.44132 5.51552 0.458488 0 0 1.00005 0.00271825
323 1.35379 6.18919 1.27521 0 0 1.00005 0.00280584
324 0.814912 6.91735 1.48501 0 0 1.00005 0.00287595
322 1.54638 6.92572 0.565057 0 0 1.00005 0.00287117
321 0.523868 5.98449 0.450511 0 0 1.00005 0.0027324
398 0.0221816 6.91253 0.60404 0 0 1.00005 0.00281057
248 2.07869 5.51007 1.37092 0 0 1.00005 0.00275956
328 2.27978 7.02917 1.25284 0 0 1.00005 0.00291968
325 2.42143 6.20783 0.506183 0 0 1.00005 0.00281085
327 2.8303 6.1826 1.41841 0 0 1.00004 0.00284002
246 3.20389 5.61814 0.27804 0 0 1.00004 0.00275453
252 3.65291 5.65705 1.30112 0 0 1.00004 0.00278325
332 3.80773 7.00526 1.16744 0 0 1.00004 0.00292283
329 3.93159 6.30415 0.490423 0 0 1.00004 0.00282488
250 4.69302 5.50796 0.333748 0 0 1.00004 0.00273095
331 4.6459 6.1396 1.2516 0 0 1.00004 0.00281984
330 4.54833 7.05484 0.239457 0 0 1.00004 0.00289762
336 5.30876 6.87819 1.18759 0 0 1.00004 0.00288271
333 5.33912 6.29306 0.333843 0 0 1.00004 0.00279656
256 5.43079 5.49356 1.321 0 0 1.00004 0.00273509
254 6.2268 5.46959 0.301087 0 0 1.00004 0.00267847
335 6.17125 6.28967 0.985553 0 0 1.00004 0.00278218
337 6.85638 6.14412 0.152551 0 0 1.00003 0.00271718
1177 6.93819 6.07046 1.64481 0 0 1.00003 0.00274884
340 6.9296 6.95305 1.01483 0 0 1.00003 0.00282095
339 7.75541 6.22984 0.784181 0 0 1.00003 0.00268791
1098 7.81997 5.48786 1.54149 0 0 1.00003 0.00263148
1178 7.75695 6.93823 1.65324 0 0 1.00003 0.00280433
258 7.73607 5.4345 0.0418512 0 0 1.00003 0.00259425
344 8.45517 6.95269 0.751765 0 0 1.00003 0.00272043
264 8.59079 5.3989 0.724305 0 0 1.00003 0.00254324
1181 8.642 6.20904 1.55031 0 0 1.00003 0.00265626
343 9.27041 6.28025 0.764916 0 0 1.00003 0.00258735
1102 9.40849 5.41812 1.63551 0 0 1.00003 0.00251832
262 9.35784 5.55923 0.0251869 0 0 1.00003 0.00249365
268 10.0933 5.41475 0.822828 0 0 1.00003 0.00243046
1185 10.0948 6.27653 1.53057 0 0 1.00003 0.00255054
345 10.1041 6.33461 0.102259 0 0 1.00003 0.00251609
272 11.6553 5.36107 1.03113 0 0 1.00003 0.00229769
347 10.9049 6.1201 0.983683 0 0 1.00003 0.00243963
349 11.6051 6.4575 0.0800698 0 0 1.00002 0.00239943
346 10.8587 7.05421 0.147462 0 0 1.00002 0.00253152
1186 10.8206 7.03682 1.55443 0 0 1.00002 0.00258078
266 10.7827 5.65856 0.0124232 0 0 1.00003 0.00238628
270 12.2377 5.69658 0.19155 0 0 1.00003 0.00226175
276 12.9045 5.88084 0.888603 0 0 1.00003 0.00223661
351 12.0439 6.30843 1.08602 0 0 1.00002 0.00236373
274 13.5119 5.60587 0.0449611 0 0 1.00003 0.00214043
1114 13.5473 5.94056 1.61055 0 0 1.00002 0.00221554
355 13.5807 6.64499 0.829435 0 0 1.00002 0.00225609
280 14.2482 5.77614 0.79485 0 0 1.00003 0.00210857
1197 14.5241 6.70803 1.45302 0 0 1.00002 0.00221244
357 14.3263 6.44659 0.0433209 0 0 1.00003 0.00215945
278 15.1689 5.67386 0.0418567 0 0 1.00003 0.00201708
359 15.2201 6.49692 0.821545 0 0 1.00003 0.00210997
284 15.9777 5.76251 0.960281 0 0 1.00003 0.00198798
363 16.6454 6.47268 1.159 0 0 1.00003 0.00202907
1118 15.2817 5.91282 1.72463 0 0 1.00003 0.00208305
361 15.8393 6.37633 0.0481116 0 0 1.00003 0.00204156
282 16.7501 5.434 0.27598 0 0 1.00003 0.00190083
286 17.9567 5.30346 0.539587 0 0 1.00003 0.0018478
288 17.2384 5.43047 1.25259 0 0 1.00003 0.00190203
365 17.2171 6.28581 0.412023 0 0 1.00003 0.0019629
367 17.8121 6.242 1.37946 0 0 1.00003 0.00196618
372 18.4421 7.03714 1.14212 0 0 1.00003 0.00202274
369 18.5247 6.2092 0.61354 0 0 1.00004 0.00192027
290 19.5853 5.71336 0.614072 0 0 1.00004 0.00186828
371 19.4905 6.51473 1.32759 0 0 1.00004 0.00196715
373 20.1795 6.68971 0.601321 0 0 1.00004 0.00196806
294 20.9398 5.70897 0.636369 0 0 1.00004 0.00189369
296 20.3488 5.55498 1.37346 0 0 1.00004 0.00188559
375 20.9811 6.53953 1.2781 0 0 1.00004 0.00199477
377 21.8825 6.58525 0.653524 0 0 1.00005 0.00201632
300 21.8714 5.79473 1.34514 0 0 1.00005 0.00196088
16260 21.9058 5.66069 0.0540294 0 0 1.00005 0.00192277
298 22.9177 5.75203 0.641298 0 0 1.00005 0.00199524
379 22.8992 6.59503 1.17064 0 0 1.00005 0.00209281
381 23.6427 6.66915 0.263756 0 0 1.00005 0.00212826
304 23.7676 5.79643 1.24918 0 0 1.00005 0.00207681
383 24.6604 6.46799 1.13238 0 0 1.00005 0.00221248
302 24.4487 5.90346 0.406038 0 0 1.00005 0.00211878
306 26.0607 5.76902 0.668954 0 0 1.00006 0.00225127
308 25.4672 5.93548 1.61359 0 0 1.00006 0.00224746
385 25.5276 6.62357 0.475569 0 0 1.00006 0.00228426
387 26.2477 6.50096 1.36443 0 0 1.00006 0.00236633
312 27.1038 5.76059 1.42891 0 0 1.00006 0.00236921
310 27.9338 5.47269 0.693937 0 0 1.00006 0.00239133
389 27.1748 6.27927 0.618468 0 0 1.00006 0.00240196
391 28.1598 6.3747 1.33214 0 0 1.00006 0.00252131
390 28.1912 6.92245 0.504897 0 0 1.00006 0.00255692
392 27.2498 7.02289 1.29273 0 0 1.00006 0.00251044
316 28.8344 5.45446 1.43678 0 0 1.00006 0.0024892
395 29.9445 6.1373 1.29393 0 0 1.00006 0.00263749
393 28.9553 6.14428 0.634399 0 0 1.00006 0.00254283
16355 29.8695 6.07909 0.0728577 0 0 1.00005 0.00259843
16276 28.9369 5.33654 0.0400023 0 0 1.00005 0.00245531
396 29.1645 7.02689 1.19632 0 0 1.00006 0.00267078
394 30.1089 6.87725 0.496761 0 0 1.00006 0.00270501
318 31.4802 5.32623 0.584231 0 0 1.00005 0.00263182
320 30.7263 5.40611 1.4271 0 0 1.00005 0.00261963
397 30.9086 6.14605 0.627011 0 0 1.00005 0.00268163
399 31.7496 6.11731 1.36656 0 0 1.00005 0.00274721
400 30.8855 7.03669 1.16312 0 0 1.00005 0.00279114
401 0.854372 7.62816 0.644034 0 0 1.00005 0.00292681
402 1.47489 8.46846 0.595037 0 0 1.00005 0.00304045
404 0.971923 8.52831 1.44968 0 0 1.00005 0.00306282
478 0.296553 8.57435 0.386566 0 0 1.00005 0.00300378
479 0.0871578 7.77447 1.28111 0 0 1.00005 0.00293116
403 1.71054 7.83913 1.48601 0 0 1.00005 0.00300999
405 2.196 7.76799 0.387859 0 0 1.00005 0.00297597
408 2.36463 8.62581 1.46364 0 0 1.00005 0.00311235
326 3.05221 7.15053 0.470282 0 0 1.00004 0.00292003
406 2.83553 8.62625 0.401545 0 0 1.00005 0.00308153
407 3.00288 7.82895 1.29212 0 0 1.00004 0.00302043
412 3.65283 8.55409 0.964196 0 0 1.00004 0.00309223
409 3.82374 7.79272 0.337289 0 0 1.00004 0.00298846
410 4.42282 8.50127 0.0800618 0 0 1.00004 0.0030612
411 4.55993 7.6854 1.23899 0 0 1.00004 0.00299263
413 5.23851 7.71379 0.238892 0 0 1.00004 0.00295421
416 5.28061 8.33533 0.967615 0 0 1.00004 0.00304324
334 6.06108 7.10794 0.162008 0 0 1.00003 0.00286032
414 6.42133 8.43068 0.188532 0 0 1.00003 0.0029961
415 6.03177 7.64541 1.04403 0 0 1.00003 0.00294097
420 6.92988 8.28689 1.08361 0 0 1.00003 0.00297729
417 6.99639 7.63974 0.171411 0 0 1.00003 0.00287819
419 7.78551 7.8499 0.778323 0 0 1.00003 0.00286986
1258 7.78714 8.26179 1.75293 0 0 1.00003 0.00296546
1182 9.48615 7.06349 1.52009 0 0 1.00003 0.00269084
421 8.45826 7.7083 0.0259838 0 0 1.00003 0.00279719
1261 8.52791 7.58944 1.61554 0 0 1.00003 0.00282929
424 8.73687 8.42583 0.912762 0 0 1.00003 0.00288072
423 9.33551 7.72068 0.693315 0 0 1.00003 0.00274465
1262 9.53343 8.80041 1.51663 0 0 1.00002 0.0028994
1265 10.0806 7.98892 1.65478 0 0 1.00002 0.00276515
428 10.1488 8.72209 0.734189 0 0 1.00002 0.00280089
348 10.2044 7.31239 0.764041 0 0 1.00003 0.00263113
352 11.6163 7.24007 0.840846 0 0 1.00002 0.00250249
427 10.9433 8.04053 0.88 0 0 1.00002 0.0026578
429 11.5665 8.21967 0.0497004 0 0 1.00002 0.00260435
1269 11.7307 7.92524 1.65979 0 0 1.00002 0.00261516
356 12.9732 7.38185 0.598554 0 0 1.00002 0.00238797
431 12.4841 8.31383 0.630969 0 0 1.00002 0.00254358
1190 12.3798 7.25437 1.43871 0 0 1.00002 0.00246188
1270 12.4125 8.7865 1.56423 0 0 1.00002 0.00265272
1273 13.1372 8.09803 1.53705 0 0 1.00002 0.0025006
350 12.1905 7.47138 0.000999078 0 0 1.00002 0.00246009
360 14.5301 7.41409 0.630958 0 0 1.00002 0.00225854
435 13.8665 8.17628 0.502606 0 0 1.00002 0.00239838
1194 13.7196 7.41155 1.40201 0 0 1.00002 0.0023574
1277 14.4969 8.23282 1.40394 0 0 1.00002 0.00238817
439 15.3035 8.33991 0.887198 0 0 1.00002 0.00231154
362 16.6077 7.20182 0.291133 0 0 1.00003 0.00208546
364 15.8216 7.3417 0.923 0 0 1.00003 0.00216185
443 16.4695 8.18249 1.12351 0 0 1.00003 0.00222533
1198 15.3456 7.57137 1.678 0 0 1.00002 0.00226325
441 16.0554 8.33244 0.15833 0 0 1.00003 0.00224054
368 17.1562 7.36301 1.12256 0 0 1.00003 0.00209843
445 17.2467 8.1156 0.32865 0 0 1.00003 0.00215327
447 17.907 8.01949 1.03692 0 0 1.00003 0.00213715
366 17.9864 7.16475 0.2257 0 0 1.00003 0.00202365
370 19.1962 7.296 0.626372 0 0 1.00004 0.00202342
451 19.1346 8.11554 1.16899 0 0 1.00004 0.00213097
453 20.0168 8.07927 0.357553 0 0 1.00004 0.00210375
449 18.6511 8.16429 0.187686 0 0 1.00003 0.00211217
376 20.0827 7.59539 1.29581 0 0 1.00004 0.00208443
374 20.9211 7.38906 0.64753 0 0 1.00004 0.00205835
455 20.8999 8.35785 1.00755 0 0 1.00004 0.00217108
380 21.8022 7.57973 1.10986 0 0 1.00005 0.00212903
457 21.8838 8.25254 0.255048 0 0 1.00005 0.00218031
459 22.8994 8.08119 0.976512 0 0 1.00005 0.002241
1218 22.7085 7.39712 1.69884 0 0 1.00005 0.00219146
378 22.6145 7.38667 0.373107 0 0 1.00005 0.00213274
458 23.0765 8.79045 0.195968 0 0 1.00005 0.00230839
1298 22.7379 8.79563 1.54639 0 0 1.00005 0.002339
384 23.7674 7.22206 1.02806 0 0 1.00005 0.00221359
461 23.822 7.97649 0.35795 0 0 1.00005 0.00228096
463 24.724 7.98154 0.954927 0 0 1.00006 0.00237128
1302 24.6568 8.62115 1.63267 0 0 1.00006 0.00247515
382 24.6793 7.21346 0.266294 0 0 1.00005 0.00226748
462 24.7038 8.70575 0.198207 0 0 1.00006 0.00242979
1301 23.716 7.93855 1.73443 0 0 1.00005 0.00232529
388 25.5157 7.28362 1.20276 0 0 1.00006 0.0023765
467 26.4754 7.90632 0.955754 0 0 1.00006 0.00252229
1306 26.4992 8.52013 1.68826 0 0 1.00006 0.00263598
386 26.5054 7.16383 0.361107 0 0 1.00006 0.00242725
465 25.6369 8.00411 0.301865 0 0 1.00006 0.00243846
466 26.7337 8.48226 0.0898942 0 0 1.00006 0.00259142
468 25.7257 8.74253 0.962287 0 0 1.00006 0.00254737
471 28.3187 7.7393 1.17165 0 0 1.00006 0.0026798
472 27.4902 8.56034 0.989141 0 0 1.00006 0.00269238
469 27.4716 7.68728 0.416876 0 0 1.00006 0.0025739
1310 28.3364 8.59692 1.73575 0 0 1.00006 0.00281282
470 28.4909 8.41628 0.39389 0 0 1.00006 0.00274627
475 30.0535 7.61725 1.25248 0 0 1.00006 0.00280464
476 29.3326 8.47422 1.15233 0 0 1.00006 0.00284468
473 29.2357 7.65848 0.402191 0 0 1.00006 0.0027238
474 30.1742 8.3203 0.527323 0 0 1.00006 0.0028702
480 31.0326 8.43705 1.17099 0 0 1.00006 0.00295796
477 31.2124 7.82989 0.379318 0 0 1.00005 0.00287723
483 1.67862 9.34206 1.19101 0 0 1.00005 0.00316544
484 0.927473 9.92009 0.907288 0 0 1.00005 0.00319158
481 1.01403 9.3213 0.126869 0 0 1.00005 0.00311458
1322 1.50609 10.1153 1.74601 0 0 1.00005 0.00328009
559 0.150561 9.24382 1.12339 0 0 1.00005 0.00309361
558 0.153033 9.91834 0.06439 0 0 1.00005 0.00313925
482 1.80148 10.273 0.260405 0 0 1.00005 0.00323971
485 2.40082 9.46352 0.435659 0 0 1.00005 0.00317071
488 2.50802 10.35 0.9784 0 0 1.00005 0.00328223
486 3.24967 10.2931 0.0730566 0 0 1.00004 0.00326214
487 3.02841 9.45679 1.2178 0 0 1.00005 0.00320321
1326 3.44407 10.2523 1.68618 0 0 1.00004 0.00332005
489 3.71384 9.38028 0.107084 0 0 1.00004 0.00316551
1329 3.87597 9.28132 1.70291 0 0 1.00004 0.00321156
492 4.03155 10.0804 0.766391 0 0 1.00004 0.00325245
491 4.55713 9.15371 0.876817 0 0 1.00004 0.00314887
1330 4.78046 10.0127 1.62658 0 0 1.00004 0.0032798
493 5.17741 9.25996 0.00355183 0 0 1.00004 0.003132
496 5.23293 10.0403 0.583883 0 0 1.00004 0.00322594
1333 5.29837 9.11929 1.6747 0 0 1.00004 0.00317179
495 5.91478 9.03577 0.679965 0 0 1.00004 0.00309597
1334 5.9522 9.90735 1.23149 0 0 1.00003 0.00321413
1337 6.7326 9.15376 1.30785 0 0 1.00003 0.00310248
500 6.81664 9.87863 0.539393 0 0 1.00003 0.00315013
499 7.68866 8.97222 0.750036 0 0 1.00003 0.00300705
1338 7.71887 9.8375 1.2509 0 0 1.00003 0.0031276
504 8.49345 10.0326 0.607202 0 0 1.00003 0.00307286
1341 8.55508 9.26659 1.45905 0 0 1.00003 0.00302235
501 8.59255 9.15123 0.0941016 0 0 1.00003 0.00295691
503 9.41723 9.54975 0.762375 0 0 1.00002 0.0029587
1342 9.26706 10.3427 1.48135 0 0 1.00002 0.0030989
1266 10.9772 8.83145 1.50278 0 0 1.00002 0.00278331
508 10.1163 10.4279 0.708176 0 0 1.00002 0.00299985
1345 10.2734 9.68203 1.4915 0 0 1.00002 0.00294507
426 10.8027 8.97818 0.0359619 0 0 1.00002 0.00276175
507 10.8891 9.78009 0.701222 0 0 1.00002 0.00286262
1346 11.0666 10.2919 1.71651 0 0 1.00002 0.00296677
432 11.716 8.94838 0.768012 0 0 1.00002 0.00269217
1349 11.7194 9.71978 1.39906 0 0 1.00002 0.00281801
436 13.2778 9.03309 0.818579 0 0 1.00002 0.00256135
511 12.4521 9.89551 0.726677 0 0 1.00002 0.00273456
516 13.1644 10.566 0.999391 0 0 1.00002 0.00275314
1353 12.9133 9.71504 1.6875 0 0 1.00002 0.00273082
1274 13.9642 8.94578 1.62698 0 0 1.00002 0.00253715
440 14.7134 9.243 0.794759 0 0 1.00002 0.00245862
515 13.8369 9.78201 0.882373 0 0 1.00002 0.00259947
517 14.5544 10.1958 0.234136 0 0 1.00002 0.00256135
444 16.1252 9.18509 1.15431 0 0 1.00003 0.00236374
519 15.3955 9.92016 1.04932 0 0 1.00002 0.00249167
521 15.9383 10.2051 0.253157 0 0 1.00002 0.0024531
442 16.7151 9.06714 0.271697 0 0 1.00003 0.00228268
438 15.5192 9.24439 0.127511 0 0 1.00002 0.0023785
523 16.7459 9.98011 0.982889 0 0 1.00003 0.00240259
448 17.3118 9.06617 1.13459 0 0 1.00003 0.00228197
525 17.3968 10.0274 0.203896 0 0 1.00003 0.00234868
527 18.0144 9.85493 1.07361 0 0 1.00003 0.00233584
446 17.9772 9.09887 0.124808 0 0 1.00003 0.0022279
452 18.5198 8.88533 0.944616 0 0 1.00003 0.00221229
529 18.8357 9.71558 0.304168 0 0 1.00004 0.00227446
531 19.7576 9.8577 0.852345 0 0 1.00004 0.00230304
532 18.9812 10.4379 1.13947 0 0 1.00004 0.00237894
1369 18.8977 9.56487 1.69842 0 0 1.00003 0.00232834
450 19.4631 8.92616 0.212112 0 0 1.00004 0.00218696
456 20.0731 8.90666 1.0366 0 0 1.00004 0.00221331
533 20.2665 9.73674 0.0689508 0 0 1.00004 0.0022771
535 21.2316 9.74616 0.746882 0 0 1.00005 0.00232042
1373 20.5207 9.61274 1.63502 0 0 1.00004 0.00233702
454 21.053 9.00566 0.194927 0 0 1.00004 0.00222343
1374 21.4048 10.0434 1.72981 0 0 1.00005 0.00241961
536 20.7129 10.5788 0.799616 0 0 1.00004 0.00238903
460 21.9229 8.95306 0.949671 0 0 1.00005 0.00227593
539 23.1904 9.61016 0.784864 0 0 1.00005 0.00241907
540 22.4622 10.4424 0.820494 0 0 1.00005 0.00245469
1377 22.2734 9.71122 1.48772 0 0 1.00005 0.00240774
537 22.2912 9.72591 0.214586 0 0 1.00005 0.00235642
1378 23.4342 10.4272 1.38929 0 0 1.00006 0.00255624