ITEM: TIMESTEP
32000
ITEM: NUMBER OF ATOMS
32000
ITEM: BOX BOUNDS pp pp pp
0.0000000000000000e+00 3.1748021039364001e+01
0.0000000000000000e+00 3.1748021039364001e+01
0.0000000000000000e+00 3.1748021039364001e+01
ITEM: ATOMS id x y z c_phase c_nbond c_rho vx
4 0.419523 1.09481 0.474211 0 0 1.00004 0.00191915
83 1.27835 1.66583 0.7868 0 0 1.00004 0.00196639
842 1.02757 0.789501 1.40702 0 0 1.00004 0.00195153
921 0.317838 1.59488 1.38388 0 0 1.00004 0.00194927
3 1.03393 0.0729218 0.626992 0 0 1.00004 0.00192686
841 0.144819 0.268888 1.25711 0 0 1.00004 0.00191061
8 2.01818 0.828558 1.01461 0 0 1.00004 0.00195992
85 2.11184 1.49372 0.211008 0 0 1.00004 0.00196651
925 2.15259 1.66115 1.75466 0 0 1.00004 0.00200757
6 2.81435 0.744856 0.204315 0 0 1.00003 0.00194946
7 2.88033 0.0608845 1.04154 0 0 1.00003 0.00195425
87 2.94599 1.54887 0.879015 0 0 1.00003 0.00197798
846 2.98368 0.829174 1.74277 0 0 1.00003 0.00198369
12 3.71657 0.929657 0.971465 0 0 1.00003 0.00195373
849 3.78091 0.0863429 1.72323 0 0 1.00003 0.00196416
929 3.90163 1.71579 1.72627 0 0 1.00003 0.00199693
10 4.39236 0.864141 0.321734 0 0 1.00003 0.00192492
850 4.60859 0.95141 1.65256 0 0 1.00003 0.00195083
9 3.75348 0.102901 0.179383 0 0 1.00003 0.0019313
93 5.18784 1.61229 0.391312 0 0 1.00003 0.00191848
16 5.24043 0.570841 1.16718 0 0 1.00003 0.00190336
14 5.89678 0.649208 0.322031 0 0 1.00003 0.00185843
95 6.12975 1.33064 0.963298 0 0 1.00003 0.001871
854 6.04076 0.463638 1.72328 0 0 1.00003 0.00188009
933 5.28902 1.72932 1.45324 0 0 1.00003 0.00194077
97 6.80223 1.41535 0.22299 0 0 1.00003 0.00182126
20 6.93531 0.404983 0.886212 0 0 1.00003 0.00180039
937 6.92082 1.02803 1.71994 0 0 1.00003 0.00183712
99 7.57382 1.24548 0.965005 0 0 1.00002 0.00177322
941 8.31881 1.29221 1.6394 0 0 1.00002 0.00173738
18 7.77774 0.666077 0.154869 0 0 1.00002 0.00173361
101 8.42488 1.41152 0.241781 0 0 1.00002 0.00170115
24 8.4403 0.418901 1.08463 0 0 1.00002 0.00169186
22 9.01328 0.516931 0.270207 0 0 1.00002 0.00163127
28 9.69351 0.340248 0.91172 0 0 1.00002 0.00157791
103 9.17826 1.3299 1.12084 0 0 1.00002 0.00164974
105 9.7726 1.38851 0.0989126 0 0 1.00002 0.00158292
32 11.2944 0.219788 0.651207 0 0 1.00002 0.00142549
107 10.479 1.068 0.840605 0 0 1.00002 0.00151716
866 10.6304 0.204569 1.47252 0 0 1.00002 0.00150632
949 11.3802 1.03046 1.44164 0 0 1.00002 0.00144791
946 10.6921 1.70875 1.75435 0 0 1.00002 0.0015451
26 10.3592 0.372389 0.0808 0 0 1.00002 0.00150803
36 12.9219 0.218623 0.649962 0 0 1.00002 0.00127911
111 12.1039 1.08968 0.522543 0 0 1.00002 0.0013624
870 12.1935 0.320921 1.32428 0 0 1.00002 0.001359
953 12.7707 1.20932 1.39569 0 0 1.00002 0.00132438
40 14.3876 0.332457 0.788407 0 0 1.00002 0.00116566
115 13.6172 1.12182 0.856139 0 0 1.00002 0.00123852
117 14.066 1.57203 0.162154 0 0 1.00002 0.00120711
874 13.6421 0.365566 1.65542 0 0 1.00002 0.00124498
957 14.3953 1.16362 1.49623 0 0 1.00002 0.00119611
119 14.8882 1.56395 0.671184 0 0 1.00002 0.00115489
38 15.103 0.714149 0.0677957 0 0 1.00002 0.00111544
44 15.7066 0.767459 0.792431 0 0 1.00002 0.00108852
123 16.5416 1.54437 0.685642 0 0 1.00003 0.00106812
878 15.1471 0.467224 1.65261 0 0 1.00002 0.00113856
882 16.5372 0.710144 1.3479 0 0 1.00003 0.0010625
961 15.6295 1.49753 1.4023 0 0 1.00002 0.00112476
48 17.2507 0.728883 0.556049 0 0 1.00003 0.00102498
127 17.9183 1.5787 0.755003 0 0 1.00003 0.00103497
886 17.91 0.742518 1.42427 0 0 1.00003 0.00102996
965 17.2141 1.74556 1.56489 0 0 1.00003 0.00107318
51 19.5447 0.0119627 0.660963 0 0 1.00003 0.00101572
52 18.7906 0.72368 0.684764 0 0 1.00003 0.00101139
131 19.5511 1.54154 0.836761 0 0 1.00003 0.00104199
889 19.0261 0.152394 1.53877 0 0 1.00003 0.00102577
890 19.6069 0.959736 1.68137 0 0 1.00003 0.00104945
969 18.6648 1.50019 1.49485 0 0 1.00003 0.00104552
55 21.1412 0.344672 1.05765 0 0 1.00004 0.0010792
56 20.27 0.769029 0.968449 0 0 1.00003 0.00104676
135 21.1467 1.62866 0.947014 0 0 1.00004 0.00110373
54 21.2256 0.757039 0.214187 0 0 1.00004 0.00107815
133 20.3699 1.49802 0.197918 0 0 1.00003 0.00105706
57 22.0731 0.263955 0.531955 0 0 1.00004 0.00112407
59 22.8829 0.422981 1.38577 0 0 1.00004 0.00119752
60 22.1811 1.13452 1.31381 0 0 1.00004 0.00115846
137 22.061 1.58024 0.524707 0 0 1.00004 0.00114746
58 23.003 1.04892 0.447824 0 0 1.00004 0.00119953
63 24.375 0.373613 1.41543 0 0 1.00004 0.00132249
61 23.677 0.348507 0.567816 0 0 1.00004 0.00124454
62 24.5714 1.16213 0.741349 0 0 1.00004 0.00133737
64 23.5917 1.22445 1.37961 0 0 1.00004 0.00126865
65 25.1111 0.311371 0.540509 0 0 1.00004 0.00137198
67 26.1905 0.372273 1.15563 0 0 1.00004 0.00148279
68 25.3304 1.1092 1.45006 0 0 1.00004 0.00142341
147 26.1195 1.7111 1.33443 0 0 1.00004 0.00151173
66 26.0727 0.923207 0.420257 0 0 1.00004 0.00146788
70 27.8062 1.26694 0.380618 0 0 1.00004 0.00163641
71 27.8444 0.496439 0.864631 0 0 1.00004 0.00163133
72 26.962 1.01443 1.24127 0 0 1.00004 0.00156823
69 26.9955 0.238472 0.230232 0 0 1.00004 0.00154281
913 28.638 0.341631 1.39983 0 0 1.00004 0.00170939
76 28.9068 1.21745 0.724497 0 0 1.00004 0.00173126
914 29.6491 0.954869 1.557 0 0 1.00004 0.00180189
993 28.7756 1.708 1.49084 0 0 1.00004 0.00175414
75 29.5412 0.350922 0.612805 0 0 1.00004 0.00176252
917 30.1082 0.162665 1.44605 0 0 1.00004 0.00182032
79 31.0069 0.470116 0.480612 0 0 1.00004 0.00185586
80 30.3763 1.18788 0.767842 0 0 1.00004 0.00183729
918 31.1551 0.967627 1.38652 0 0 1.00004 0.00189071
82 1.42123 2.43745 0.120195 0 0 1.00004 0.00199695
84 0.446835 2.37779 0.80689 0 0 1.00004 0.00197349
163 1.60454 3.22996 0.945003 0 0 1.00004 0.00205855
922 1.45688 2.36675 1.59176 0 0 1.00004 0.0020242
1001 0.705019 3.0362 1.54946 0 0 1.00004 0.00204203
161 0.646122 3.10341 0.130033 0 0 1.00004 0.00201424
88 2.22583 2.41929 0.789738 0 0 1.00004 0.00201415
167 2.96944 3.29451 0.862073 0 0 1.00003 0.00206943
926 2.98664 2.25271 1.55186 0 0 1.00003 0.00202698
86 3.02554 2.39721 0.0549069 0 0 1.00003 0.00200545
1005 2.43029 3.10945 1.76348 0 0 1.00004 0.00208677
1009 3.58229 3.43406 1.66445 0 0 1.00003 0.00209865
92 3.68337 2.57559 0.792652 0 0 1.00003 0.00201455
91 4.29358 1.84822 0.721364 0 0 1.00003 0.00196306
171 4.496 3.34504 0.762689 0 0 1.00003 0.00204186
930 4.43887 2.66292 1.59563 0 0 1.00003 0.00202433
96 5.1835 2.59055 0.830324 0 0 1.00003 0.00197111
94 5.90822 2.47334 0.141491 0 0 1.00003 0.00191999
175 5.92158 3.2326 0.970787 0 0 1.00003 0.00197861
934 6.11677 2.23098 1.51351 0 0 1.00003 0.00192473
173 5.26805 3.3592 0.0065621 0 0 1.00003 0.00200698
1017 6.78035 3.10559 1.57373 0 0 1.00003 0.00193837
100 6.79488 2.21272 0.791207 0 0 1.00003 0.00186204
177 6.88276 2.97532 0.134863 0 0 1.00003 0.00189095
98 7.66233 2.25839 0.142085 0 0 1.00002 0.00179594
104 8.28257 2.23323 0.951558 0 0 1.00002 0.00175753
179 7.62573 3.105 0.941886 0 0 1.00002 0.00186011
938 7.52006 2.09288 1.59396 0 0 1.00002 0.00182953
1021 8.39215 3.04321 1.68086 0 0 1.00002 0.00182047
181 8.46606 3.01135 0.0439531 0 0 1.00002 0.00177487
102 9.0745 2.12559 0.257555 0 0 1.00002 0.00167429
108 9.91657 2.05407 1.12253 0 0 1.00002 0.00161128
183 9.10155 3.015 0.950348 0 0 1.00002 0.00173388
942 9.19927 2.25616 1.73761 0 0 1.00002 0.0017067
185 9.71872 2.95034 0.21447 0 0 1.00002 0.00166208
106 10.4068 2.14375 0.214066 0 0 1.00002 0.00155438
112 11.2553 1.85782 0.786746 0 0 1.00002 0.00147039
187 10.7422 2.84703 0.937802 0 0 1.00002 0.00157158
1029 11.5413 2.87294 1.60958 0 0 1.00002 0.00152208
116 12.7283 1.96448 0.608337 0 0 1.00002 0.00133683
191 12.0091 2.68132 0.753886 0 0 1.00002 0.00143979
950 12.0052 1.94701 1.49138 0 0 1.00002 0.00142215
1033 12.9105 3.05463 1.71747 0 0 1.00002 0.00141169
195 13.2452 3.05516 0.854382 0 0 1.00002 0.00135341
954 13.4236 2.01477 1.50026 0 0 1.00002 0.0013007
114 13.4532 2.32177 0.0585995 0 0 1.00002 0.00128663
120 14.0506 2.46791 0.933443 0 0 1.00002 0.00125669
1037 14.0701 3.41749 1.57564 0 0 1.00002 0.00133283
199 14.7259 3.45931 0.888166 0 0 1.00002 0.00126579
958 14.8098 2.31835 1.45306 0 0 1.00002 0.00120862
118 14.8557 2.527 0.140321 0 0 1.00002 0.00119192
197 14.1876 3.24771 0.0410167 0 0 1.00002 0.00128063
124 15.7005 2.4488 0.703114 0 0 1.00002 0.0011432
203 16.3143 3.2075 0.675312 0 0 1.00002 0.00115416
962 16.3121 2.48274 1.53092 0 0 1.00002 0.00113547
1041 15.3967 3.27321 1.51617 0 0 1.00002 0.00122819
201 15.5813 3.27305 0.0262669 0 0 1.00002 0.00118944
128 17.0646 2.35426 0.685022 0 0 1.00003 0.00108127
207 17.9478 2.9212 0.702735 0 0 1.00003 0.00109157
966 18.0205 2.42889 1.58261 0 0 1.00003 0.00108744
1045 17.0963 3.11427 1.50054 0 0 1.00003 0.00114024
132 18.8989 2.34611 1.00751 0 0 1.00003 0.0010662
211 19.723 3.21213 1.26588 0 0 1.00003 0.0011309
209 18.893 2.98129 0.191677 0 0 1.00003 0.00108702
130 19.6064 2.3182 0.10432 0 0 1.00003 0.00106457
973 20.3543 1.76453 1.71422 0 0 1.00003 0.00109428
134 21.2094 2.39135 0.450547 0 0 1.00004 0.00112838
136 20.2266 2.44045 1.10088 0 0 1.00003 0.00110004
215 21.373 3.26015 1.36894 0 0 1.00004 0.00120212
213 20.4555 2.9689 0.328457 0 0 1.00003 0.00112281
139 22.9716 2.0314 1.49154 0 0 1.00004 0.00124684
138 23.0687 2.56685 0.721705 0 0 1.00004 0.00126133
140 22.1654 2.46386 1.22147 0 0 1.00004 0.00120301
217 22.061 3.16174 0.592236 0 0 1.00004 0.00122072
16179 22.7833 3.35279 0.0646599 0 0 1.00004 0.00127713
141 23.8577 1.78202 0.613393 0 0 1.00004 0.001292
143 24.5697 1.95568 1.57677 0 0 1.00004 0.00138432
142 24.4861 2.64181 0.760914 0 0 1.00004 0.00138696
144 23.8138 2.85267 1.50974 0 0 1.00004 0.00135861
223 24.6343 3.45963 1.52833 0 0 1.00004 0.00146988
16108 25.1194 2.79483 0.0132103 0 0 1.00004 0.00144783
145 25.2944 1.82636 0.507954 0 0 1.00004 0.0014218
146 25.9834 2.5708 0.691828 0 0 1.00004 0.00152219
148 25.3344 2.52225 1.49596 0 0 1.00004 0.00147712
227 25.9217 3.44591 1.48946 0 0 1.00005 0.00159095
229 26.3882 3.45458 0.583599 0 0 1.00005 0.00161352
149 26.7549 1.76728 0.50498 0 0 1.00004 0.00155775
152 26.7474 2.52944 1.50426 0 0 1.00005 0.00161386
151 27.7365 1.95887 1.21438 0 0 1.00005 0.00166968
150 27.3168 2.65549 0.626853 0 0 1.00005 0.0016522
231 27.4529 3.30913 1.39322 0 0 1.00005 0.0017241
233 28.239 3.18864 0.331544 0 0 1.00005 0.00176155
153 28.5058 2.06731 0.339977 0 0 1.00005 0.00172463
156 28.5133 2.72232 1.18398 0 0 1.00005 0.00177348
155 29.717 2.01139 0.87841 0 0 1.00004 0.00182314
154 29.4688 2.65456 0.282322 0 0 1.00004 0.00182885
235 29.5448 3.22663 1.17362 0 0 1.00004 0.0018859
997 30.2568 1.79177 1.69345 0 0 1.00004 0.00187441
159 31.2115 1.96502 0.919486 0 0 1.00004 0.00191495
160 30.4775 2.69061 0.994814 0 0 1.00004 0.0019104
239 31.3429 3.31879 0.972232 0 0 1.00004 0.00199702
998 31.2969 2.6769 1.72154 0 0 1.00004 0.00197923
237 30.4249 3.2186 0.153359 0 0 1.00004 0.00192742
157 30.6924 1.89301 0.0370282 0 0 1.00004 0.00187222
158 31.4464 2.64425 0.076347 0 0 1.00004 0.00194906
164 0.623831 3.77416 0.919856 0 0 1.00004 0.00207056
241 0.483118 4.59619 0.468031 0 0 1.00004 0.002126
243 1.47427 4.66553 0.98996 0 0 1.00004 0.00217012
244 0.453286 5.25513 1.27164 0 0 1.00004 0.00220651
162 1.3736 3.85654 0.0756963 0 0 1.00004 0.0020864
168 2.18918 4.04824 0.855076 0 0 1.00004 0.00212442
247 2.88214 4.87757 1.13256 0 0 1.00003 0.002207
166 2.97931 4.16094 0.201669 0 0 1.00003 0.00212549
245 2.24317 4.96774 0.286348 0 0 1.00004 0.00219633
249 3.74408 4.88436 0.167167 0 0 1.00003 0.0021794
172 3.80554 4.10375 0.897549 0 0 1.00003 0.00212012
251 4.38561 4.9138 1.16415 0 0 1.00003 0.00218703
170 4.56076 4.20873 0.147083 0 0 1.00003 0.00209927
176 5.21101 4.04614 1.18299 0 0 1.00003 0.00208079
253 5.31425 4.7855 0.337821 0 0 1.00003 0.00212365
174 6.03731 3.98115 0.192949 0 0 1.00003 0.00201641
255 5.99037 4.77472 1.05139 0 0 1.00003 0.00210435
180 6.7616 3.81948 0.796573 0 0 1.00003 0.00196874
1097 6.93649 4.57716 1.68086 0 0 1.00002 0.00205411
260 6.94767 5.20153 0.895319 0 0 1.00002 0.00208468
259 7.64934 4.51989 0.566838 0 0 1.00002 0.00196226
1018 7.64294 3.9207 1.53101 0 0 1.00002 0.00194028
184 8.41283 3.9381 0.722961 0 0 1.00002 0.00185551
1101 8.43015 4.6745 1.51881 0 0 1.00002 0.00194452
263 9.26973 4.63075 0.8421 0 0 1.00002 0.00184546
265 10.023 4.57655 0.133122 0 0 1.00002 0.00175984
1022 9.25559 3.82269 1.53382 0 0 1.00002 0.00179946
182 9.17054 3.92134 0.0643501 0 0 1.00002 0.00178162
188 10.048 3.63525 0.906961 0 0 1.00002 0.00169095
1105 10.0445 4.41639 1.6967 0 0 1.00002 0.00178714
192 11.5127 3.69371 0.806852 0 0 1.00002 0.00155459
267 10.7328 4.7212 0.929739 0 0 1.00002 0.00172039
269 11.5029 4.75594 0.231553 0 0 1.00002 0.00163686
1026 10.8362 3.62643 1.62486 0 0 1.00002 0.00164071
1109 11.485 4.44672 1.73946 0 0 1.00002 0.00165485
186 10.7197 3.89859 0.178532 0 0 1.00002 0.00163617
196 12.5805 3.63418 0.830043 0 0 1.00002 0.00145222
271 12.2821 4.60671 1.02149 0 0 1.00002 0.00156564
1113 12.8444 5.04515 1.72252 0 0 1.00002 0.00158524
275 13.2962 4.74019 0.815993 0 0 1.00002 0.00147957
273 12.7154 4.66974 0.0627654 0 0 1.00002 0.00151497
200 14.0387 4.16003 0.70906 0 0 1.00002 0.00136531
1034 13.5485 4.26309 1.61827 0 0 1.00002 0.00144491
1117 14.2574 5.15609 1.54889 0 0 1.00002 0.00146519
279 14.982 5.04373 0.823525 0 0 1.00002 0.00137448
1038 15.0048 4.43877 1.61135 0 0 1.00002 0.00134689
277 14.1895 4.9373 0.0716868 0 0 1.00002 0.00141228
198 14.9866 4.21463 0.104392 0 0 1.00002 0.00129286
204 15.685 4.08234 0.930226 0 0 1.00002 0.00125131
281 15.8954 4.78826 0.189661 0 0 1.00002 0.00128523
283 16.611 4.58837 0.905572 0 0 1.00002 0.00124594
1042 16.3378 3.96948 1.69683 0 0 1.00002 0.0012359
1121 15.8465 5.06577 1.65635 0 0 1.00002 0.00135334
208 17.2788 3.82946 0.81202 0 0 1.00003 0.00116335
287 18.101 4.4736 1.09386 0 0 1.00003 0.00120301
1046 17.9646 3.62947 1.65292 0 0 1.00003 0.00116074
285 17.4626 4.57133 0.0194398 0 0 1.00003 0.00120532
206 18.1462 3.83952 0.0643668 0 0 1.00003 0.00113998
212 18.8892 3.68802 0.949044 0 0 1.00003 0.00114027
289 18.8473 4.58655 0.359288 0 0 1.00003 0.00119563
291 19.7217 4.63784 1.08177 0 0 1.00003 0.00122637
292 18.8148 5.25004 1.19173 0 0 1.00003 0.00126937
210 19.6236 3.73792 0.230907 0 0 1.00003 0.00114337
216 20.4816 3.78384 1.22013 0 0 1.00003 0.00118953
295 20.9481 4.66857 1.37109 0 0 1.00004 0.00128252
297 21.6712 4.89534 0.790626 0 0 1.00004 0.00132364
214 21.1475 3.89083 0.505984 0 0 1.00004 0.00121158
293 20.189 4.74444 0.342451 0 0 1.00003 0.00123392
219 22.9324 3.57493 1.39251 0 0 1.00004 0.00132728
220 22.0262 4.0798 1.28875 0 0 1.00004 0.00129482
299 22.5916 5.10222 1.251 0 0 1.00004 0.00141647
218 22.7257 4.28838 0.509163 0 0 1.00004 0.00134225
221 23.7046 3.582 0.764512 0 0 1.00004 0.00137443
222 24.4985 4.26328 0.614128 0 0 1.00004 0.00149179
224 23.6075 4.48013 1.31076 0 0 1.00004 0.00144818
305 25.0533 5.17677 0.552106 0 0 1.00005 0.00162179
301 23.696 4.99848 0.519334 0 0 1.00004 0.0014789
303 24.5445 5.21498 1.40089 0 0 1.00005 0.0016006
228 25.2073 4.4258 1.58234 0 0 1.00005 0.00160138
225 25.2428 3.61277 0.778102 0 0 1.00004 0.00151762
307 25.9226 5.0667 1.31869 0 0 1.00005 0.00171639
232 26.5949 4.22795 1.34778 0 0 1.00005 0.00171002
226 25.7376 4.34094 0.388575 0 0 1.00005 0.00161232
309 26.7511 4.91 0.627964 0 0 1.00005 0.00176338
311 27.6045 4.80909 1.37618 0 0 1.00005 0.00185568
236 28.2323 3.92509 1.08973 0 0 1.00005 0.0018268
230 27.3115 3.98569 0.569556 0 0 1.00005 0.00173774
313 28.5677 4.68753 0.691298 0 0 1.00005 0.00191001
234 29.2196 3.73977 0.469185 0 0 1.00005 0.00188163
315 29.3921 4.47678 1.30424 0 0 1.00005 0.00197438
314 29.7138 5.26766 0.80049 0 0 1.00005 0.00205618
240 30.3079 4.02248 1.01988 0 0 1.00004 0.00199188
238 31.3526 3.96823 0.355088 0 0 1.00004 0.00203578
317 30.5353 4.6608 0.468762 0 0 1.00004 0.00204999
319 31.3192 4.58606 1.38043 0 0 1.00004 0.00211028
242 1.27837 5.5222 0.460341 0 0 1.00004 0.00223657
323 1.18587 6.19843 1.27601 0 0 1.00004 0.00232662
324 0.647341 6.91965 1.49204 0 0 1.00004 0.0024004
322 1.37385 6.93372 0.567129 0 0 1.00004 0.00239143
321 0.357795 5.98848 0.44909 0 0 1.00004 0.00225545
248 1.91013 5.51439 1.37549 0 0 1.00004 0.00227437
328 2.10727 7.03343 1.25092 0 0 1.00004 0.00243566
325 2.25976 6.21035 0.510023 0 0 1.00004 0.00232337
327 2.65761 6.18004 1.41975 0 0 1.00004 0.00234976
246 3.04177 5.62137 0.277127 0 0 1.00003 0.00225994
252 3.4824 5.65439 1.30399 0 0 1.00003 0.00228528
332 3.63765 7.00152 1.16 0 0 1.00003 0.00242567
329 3.7648 6.30405 0.49436 0 0 1.00003 0.00232497
250 4.53102 5.50293 0.332184 0 0 1.00003 0.00222129
331 4.48268 6.13492 1.24878 0 0 1.00003 0.00231281
330 4.37604 7.05435 0.235245 0 0 1.00003 0.00239335
336 5.13785 6.86731 1.18406 0 0 1.00003 0.00236994
333 5.17238 6.28597 0.335241 0 0 1.00003 0.00228166
256 5.26765 5.48417 1.32429 0 0 1.00003 0.00221833
254 6.07435 5.46461 0.30331 0 0 1.00003 0.0021516
335 6.01049 6.28839 0.982382 0 0 1.00003 0.00225926
337 6.69391 6.12698 0.153988 0 0 1.00002 0.00218381
1177 6.77459 6.05783 1.63749 0 0 1.00002 0.00221666
340 6.76175 6.9425 1.01825 0 0 1.00002 0.00229068
339 7.60094 6.22241 0.778842 0 0 1.00002 0.00214514
1098 7.66507 5.48109 1.53353 0 0 1.00002 0.00208742
344 8.29427 6.93826 0.749656 0 0 1.00002 0.00217091
1178 7.59112 6.93154 1.6452 0 0 1.00002 0.00226601
258 7.58708 5.42381 0.0436791 0 0 1.00002 0.00204887
264 8.44514 5.38621 0.718674 0 0 1.00002 0.00198768
1181 8.49016 6.19384 1.54062 0 0 1.00002 0.00210312
268 9.95337 5.39833 0.817527 0 0 1.00002 0.00185752
343 9.11749 6.26708 0.760374 0 0 1.00002 0.00202658
1102 9.26473 5.40463 1.63175 0 0 1.00002 0.00195472
1185 9.94707 6.26571 1.51905 0 0 1.00002 0.00198155
1182 9.33353 7.04567 1.51128 0 0 1.00002 0.00213001
345 9.96 6.31676 0.101256 0 0 1.00002 0.00194461
262 9.21185 5.54465 0.0231264 0 0 1.00002 0.00192926
272 11.5237 5.34542 1.02109 0 0 1.00002 0.00171
347 10.7619 6.10277 0.984055 0 0 1.00002 0.00186083
349 11.4665 6.44391 0.080702 0 0 1.00002 0.00181435
346 10.7115 7.03287 0.152715 0 0 1.00002 0.0019538
1186 10.6703 7.01842 1.54534 0 0 1.00002 0.0020059
266 10.6448 5.64953 0.00506339 0 0 1.00002 0.00180727
270 12.1115 5.68699 0.190151 0 0 1.00002 0.00167003
276 12.7775 5.87217 0.884026 0 0 1.00002 0.00164182
351 11.9107 6.2881 1.08171 0 0 1.00002 0.00177429
274 13.3942 5.59268 0.0452936 0 0 1.00002 0.00154107
1114 13.4192 5.92613 1.59862 0 0 1.00002 0.00161808
355 13.4513 6.63492 0.828469 0 0 1.00002 0.00165947
280 14.1286 5.76356 0.790464 0 0 1.00002 0.00150816
1197 14.4013 6.69755 1.44222 0 0 1.00002 0.00161347
357 14.2034 6.43322 0.0425455 0 0 1.00002 0.0015594
278 15.062 5.66787 0.0401312 0 0 1.00002 0.0014163
359 15.1028 6.4857 0.819026 0 0 1.00002 0.00151024
284 15.8674 5.75593 0.961328 0 0 1.00002 0.00139035
363 16.5332 6.46461 1.15306 0 0 1.00002 0.0014352
1118 15.1638 5.9054 1.71945 0 0 1.00002 0.0014845
282 16.6453 5.42709 0.276933 0 0 1.00002 0.00130654
361 15.7237 6.36555 0.045575 0 0 1.00002 0.001443
286 17.8537 5.29635 0.540028 0 0 1.00003 0.00126326
288 17.1363 5.425 1.25021 0 0 1.00002 0.00131178
365 17.1039 6.27819 0.412043 0 0 1.00002 0.00137245
367 17.7039 6.23739 1.37958 0 0 1.00003 0.00138185
372 18.3286 7.03311 1.13521 0 0 1.00003 0.00144504
369 18.416 6.20799 0.610884 0 0 1.00003 0.00134289
290 19.48 5.71759 0.613836 0 0 1.00003 0.00130351
371 19.3842 6.51665 1.32948 0 0 1.00003 0.00140269
373 20.0685 6.69698 0.601237 0 0 1.00003 0.00141251
294 20.8312 5.71707 0.639019 0 0 1.00004 0.00134784
296 20.2493 5.55989 1.37521 0 0 1.00003 0.00133199
375 20.8705 6.54762 1.27897 0 0 1.00004 0.00145149
377 21.7708 6.59355 0.653819 0 0 1.00004 0.00148492
300 21.7643 5.80594 1.35066 0 0 1.00004 0.00142966
16260 21.7952 5.66885 0.0533176 0 0 1.00004 0.00138996
298 22.8058 5.76056 0.647946 0 0 1.00004 0.00147694
379 22.7812 6.60901 1.1744 0 0 1.00004 0.00157674
381 23.5209 6.68738 0.262891 0 0 1.00004 0.00162085
304 23.6489 5.8079 1.25819 0 0 1.00004 0.00157017
383 24.5312 6.4817 1.13383 0 0 1.00005 0.00171663
302 24.3282 5.9207 0.409969 0 0 1.00005 0.00161941
306 25.9273 5.78488 0.674992 0 0 1.00005 0.00176668
308 25.3385 5.95276 1.62558 0 0 1.00005 0.0017604
385 25.396 6.64567 0.478364 0 0 1.00005 0.00179743
387 26.1039 6.51605 1.37028 0 0 1.00005 0.00188491
312 26.9659 5.77514 1.43719 0 0 1.00005 0.00189276
310 27.7912 5.48498 0.70001 0 0 1.00005 0.00191692
389 27.0331 6.29377 0.625548 0 0 1.00005 0.00192542
391 28.0141 6.39432 1.33749 0 0 1.00005 0.0020509
390 28.0388 6.93784 0.510235 0 0 1.00005 0.00208562
392 27.0986 7.03691 1.30177 0 0 1.00005 0.00203619
316 28.6853 5.46738 1.44677 0 0 1.00005 0.00201827
395 29.7886 6.14557 1.29947 0 0 1.00005 0.00216773
394 29.9472 6.88018 0.499638 0 0 1.00005 0.00223472
393 28.8024 6.15512 0.634093 0 0 1.00005 0.00207178
16355 29.7164 6.09357 0.0730523 0 0 1.00005 0.00212834
16276 28.7923 5.34565 0.0452451 0 0 1.00005 0.00198323
396 29.0065 7.04439 1.20293 0 0 1.00005 0.00220287
318 31.3218 5.33601 0.587277 0 0 1.00004 0.00215794
320 30.5709 5.41826 1.43683 0 0 1.00005 0.00214899
397 30.7526 6.15342 0.632863 0 0 1.00005 0.00221039
399 31.5903 6.12668 1.37114 0 0 1.00004 0.00227463
398 31.6001 6.92323 0.603936 0 0 1.00004 0.00233803
400 30.7179 7.04968 1.16629 0 0 1.00005 0.00232192
401 0.677958 7.63002 0.649287 0 0 1.00004 0.00245091
402 1.28649 8.46955 0.602005 0 0 1.00004 0.00256284
403 1.53333 7.84777 1.49077 0 0 1.00004 0.00253241
404 0.792604 8.53873 1.45677 0 0 1.00004 0.00259056
478 0.114797 8.58723 0.388119 0 0 1.00004 0.0025328
405 2.01635 7.77069 0.383853 0 0 1.00004 0.00249276
408 2.17722 8.62948 1.46654 0 0 1.00004 0.00263166
326 2.87953 7.15676 0.472383 0 0 1.00004 0.00242992
406 2.64561 8.63303 0.40222 0 0 1.00004 0.00259623
407 2.82044 7.83001 1.29145 0 0 1.00004 0.00253274
412 3.46156 8.55097 0.958542 0 0 1.00003 0.0026
409 3.64682 7.79319 0.335282 0 0 1.00003 0.0024926
410 4.23704 8.49926 0.080197 0 0 1.00003 0.00256158
411 4.38151 7.68754 1.24506 0 0 1.00003 0.00249171
413 5.06065 7.70138 0.241868 0 0 1.00003 0.00244344
416 5.09998 8.32502 0.959739 0 0 1.00003 0.00253436
334 5.89295 7.10411 0.158718 0 0 1.00003 0.00233995
414 6.24375 8.41862 0.184452 0 0 1.00002 0.00247474
415 5.85589 7.64047 1.04461 0 0 1.00003 0.00242364
420 6.75554 8.28454 1.07813 0 0 1.00002 0.00245189
417 6.826 7.62362 0.172815 0 0 1.00002 0.0023473
419 7.61292 7.8411 0.774278 0 0 1.00002 0.00233211
1258 7.61498 8.25284 1.74814 0 0 1.00002 0.0024316
421 8.29267 7.6914 0.0276633 0 0 1.00002 0.00224921
1261 8.35777 7.57507 1.60846 0 0 1.00002 0.00228343
424 8.57402 8.40777 0.906147 0 0 1.00002 0.00233197
423 9.17546 7.7039 0.688616 0 0 1.00002 0.00218669
428 9.98626 8.70671 0.72754 0 0 1.00001 0.00223698
1262 9.37002 8.78773 1.50598 0 0 1.00001 0.00234521
1265 9.91159 7.97572 1.65013 0 0 1.00001 0.00220373
348 10.0548 7.30177 0.756619 0 0 1.00002 0.00206232
352 11.4756 7.2241 0.836308 0 0 1.00001 0.00191885
427 10.7878 8.02639 0.875344 0 0 1.00001 0.00208377
1266 10.818 8.80829 1.49046 0 0 1.00001 0.0022119
1269 11.5846 7.9042 1.65361 0 0 1.00001 0.00203401
429 11.4161 8.20312 0.0490766 0 0 1.00001 0.00202314
356 12.8347 7.36243 0.591139 0 0 1.00002 0.00179429
431 12.3382 8.30274 0.622331 0 0 1.00001 0.00195612
1190 12.2306 7.23796 1.42739 0 0 1.00001 0.00187415
1270 12.2634 8.76672 1.55177 0 0 1.00001 0.00206815
1273 12.9964 8.07803 1.52617 0 0 1.00001 0.00190885
350 12.0491 7.46023 0.00106013 0 0 1.00001 0.00187243
360 14.4072 7.40183 0.61777 0 0 1.00002 0.00165896
435 13.7298 8.15871 0.492491 0 0 1.00001 0.00180163
1194 13.5809 7.39955 1.38847 0 0 1.00001 0.00176234
1277 14.3591 8.22439 1.3924 0 0 1.00001 0.00179292
439 15.1668 8.3298 0.882649 0 0 1.00002 0.00171519
362 16.4881 7.19507 0.287022 0 0 1.00002 0.00149146
364 15.6977 7.33395 0.924476 0 0 1.00002 0.00156559
443 16.3396 8.17519 1.12088 0 0 1.00002 0.00163291
1198 15.2193 7.55994 1.66555 0 0 1.00002 0.00166615
441 15.9322 8.32806 0.157667 0 0 1.00002 0.00164514
368 17.0359 7.35946 1.1205 0 0 1.00002 0.00150965
445 17.1265 8.10785 0.333471 0 0 1.00002 0.0015643
447 17.7811 8.014 1.03192 0 0 1.00003 0.00155512
366 17.8703 7.15811 0.221566 0 0 1.00003 0.00144038
370 19.0783 7.29919 0.630096 0 0 1.00003 0.00145531
451 19.0118 8.11615 1.16927 0 0 1.00003 0.00156351
376 19.9639 7.60127 1.29876 0 0 1.00003 0.00152961
453 19.8966 8.08583 0.356237 0 0 1.00003 0.00154732
449 18.5278 8.16343 0.181383 0 0 1.00003 0.00153783
374 20.8035 7.39678 0.652264 0 0 1.00004 0.0015142
455 20.7735 8.36825 1.00928 0 0 1.00004 0.00162882
380 21.6792 7.59239 1.11519 0 0 1.00004 0.00159913
457 21.7577 8.26499 0.254545 0 0 1.00004 0.00165107
459 22.7687 8.09345 0.98262 0 0 1.00004 0.00172687
1218 22.5835 7.41108 1.70597 0 0 1.00004 0.00167562
378 22.491 7.40078 0.374629 0 0 1.00004 0.0016126
458 22.9473 8.79995 0.195929 0 0 1.00005 0.00179662
1298 22.5997 8.80938 1.54937 0 0 1.00005 0.00182531
384 23.6389 7.23632 1.02865 0 0 1.00005 0.00170886
461 23.6909 7.99032 0.364269 0 0 1.00005 0.00177763
463 24.5856 8.00088 0.961715 0 0 1.00005 0.00187933
1302 24.5126 8.63378 1.63782 0 0 1.00005 0.00198478
382 24.5518 7.23245 0.265203 0 0 1.00005 0.00177308
462 24.5626 8.72581 0.199647 0 0 1.00005 0.00193789
1301 23.5809 7.95773 1.74746 0 0 1.00005 0.00182477
388 25.3755 7.30188 1.21134 0 0 1.00005 0.00189127
467 26.3248 7.92213 0.960659 0 0 1.00005 0.00204443
1306 26.3439 8.53672 1.69861 0 0 1.00005 0.00216193
386 26.366 7.18454 0.361178 0 0 1.00005 0.00194876
465 25.4953 8.02766 0.301977 0 0 1.00005 0.00195468
466 26.5836 8.50026 0.0889429 0 0 1.00005 0.00211591
468 25.5762 8.76223 0.969819 0 0 1.00005 0.00206634
470 28.3297 8.43307 0.402299 0 0 1.00005 0.00227834
471 28.1574 7.75775 1.17958 0 0 1.00005 0.00221124
472 27.3286 8.57645 0.994685 0 0 1.00005 0.0022213
469 27.3199 7.70408 0.419858 0 0 1.00005 0.00210093
1310 28.1683 8.61683 1.74548 0 0 1.00005 0.00234748
474 30.0012 8.32554 0.530813 0 0 1.00005 0.00240193
475 29.887 7.62928 1.25716 0 0 1.00005 0.00233712
476 29.167 8.4916 1.15853 0 0 1.00005 0.00237939
473 29.0706 7.66867 0.405341 0 0 1.00005 0.00225497
479 31.663 7.7875 1.28578 0 0 1.00004 0.00246105
480 30.8559 8.4495 1.173 0 0 1.00005 0.0024905
477 31.0422 7.83989 0.379621 0 0 1.00005 0.00240761
482 1.6047 10.2781 0.264663 0 0 1.00004 0.00276371
483 1.48691 9.35382 1.1955 0 0 1.00004 0.00269057
484 0.733568 9.92354 0.903435 0 0 1.00004 0.00271941
481 0.825228 9.32777 0.12554 0 0 1.00004 0.00264097
1322 1.30651 10.1207 1.74879 0 0 1.00004 0.00280795
485 2.2112 9.4649 0.441671 0 0 1.00004 0.00268956
488 2.31082 10.3588 0.976885 0 0 1.00004 0.00280337
486 3.05646 10.2937 0.0754273 0 0 1.00004 0.00277626
487 2.83529 9.46 1.22225 0 0 1.00004 0.00271925
1326 3.24783 10.2535 1.68629 0 0 1.00004 0.00283606
489 3.52284 9.38428 0.0995563 0 0 1.00003 0.00267488
1329 3.67758 9.27664 1.69439 0 0 1.00003 0.00272083
492 3.83864 10.075 0.760594 0 0 1.00003 0.0027602
491 4.3678 9.1505 0.874807 0 0 1.00003 0.0026504
493 4.99127 9.24749 0.00502352 0 0 1.00003 0.00262577
1330 4.58284 10.0099 1.62954 0 0 1.00003 0.00278432
496 5.03951 10.0326 0.582712 0 0 1.00003 0.00272245
1333 5.10534 9.11583 1.674 0 0 1.00003 0.00266859
495 5.73028 9.0209 0.677571 0 0 1.00003 0.00258194
500 6.63147 9.86719 0.536624 0 0 1.00002 0.00262928
1334 5.75561 9.89683 1.21807 0 0 1.00003 0.00270408
1337 6.54545 9.13969 1.30095 0 0 1.00002 0.00258167
499 7.51295 8.95967 0.743206 0 0 1.00002 0.00247348
504 8.31078 10.0147 0.602409 0 0 1.00002 0.00253282
1338 7.53921 9.8222 1.24208 0 0 1.00002 0.00259741
1341 8.37851 9.25224 1.45041 0 0 1.00002 0.00248168
501 8.41825 9.13447 0.0914829 0 0 1.00002 0.0024122
503 9.24339 9.53685 0.757961 0 0 1.00001 0.002407
508 9.93994 10.4149 0.698888 0 0 1.00001 0.00244304
1342 9.08571 10.3346 1.4707 0 0 1.00001 0.00255514
1345 10.1051 9.67003 1.47809 0 0 1.00001 0.00238585
432 11.5657 8.93135 0.7628 0 0 1.00001 0.0021122
426 10.6407 8.96522 0.0383764 0 0 1.00001 0.00219141
507 10.7195 9.76528 0.6921 0 0 1.00001 0.0022948
1346 10.8973 10.2694 1.70502 0 0 1.00001 0.00240162
1349 11.5482 9.7085 1.38173 0 0 1.00001 0.00224429
436 13.1386 9.02147 0.813467 0 0 1.00001 0.00197016
511 12.2965 9.8831 0.719996 0 0 1.00001 0.00215194
516 13.0062 10.5474 0.99438 0 0 1.00001 0.00216783
1353 12.7474 9.69655 1.67412 0 0 1.00001 0.00214764
1274 13.8218 8.92219 1.61594 0 0 1.00001 0.0019436
440 14.5769 9.23575 0.785795 0 0 1.00001 0.00186348
515 13.6863 9.75973 0.871985 0 0 1.00001 0.00200718
517 14.4063 10.1895 0.230266 0 0 1.00001 0.00196823
444 15.9926 9.17827 1.15041 0 0 1.00002 0.00177127
519 15.2521 9.90383 1.03976 0 0 1.00002 0.00189756
521 15.7984 10.2001 0.254485 0 0 1.00002 0.00186036
523 16.6087 9.97191 0.976195 0 0 1.00002 0.00181371
442 16.5881 9.05352 0.268763 0 0 1.00002 0.00169036
438 15.3881 9.23517 0.118063 0 0 1.00002 0.00178228
448 17.1819 9.06457 1.13225 0 0 1.00002 0.00169685
525 17.2586 10.024 0.205663 0 0 1.00002 0.00176395
527 17.8805 9.85452 1.07107 0 0 1.00003 0.00175823
446 17.85 9.09666 0.122329 0 0 1.00003 0.00164708
452 18.3915 8.88064 0.941424 0 0 1.00003 0.00163746
456 19.943 8.9115 1.04075 0 0 1.00003 0.0016601
529 18.7041 9.71248 0.301846 0 0 1.00003 0.00170385
531 19.6276 9.86041 0.847714 0 0 1.00003 0.0017455
532 18.8462 10.4348 1.13729 0 0 1.00003 0.00181284
1369 18.7675 9.56286 1.69637 0 0 1.00003 0.00176181
450 19.3398 8.92696 0.210605 0 0 1.00003 0.0016233
533 20.1295 9.74126 0.0694727 0 0 1.00004 0.00172606
535 21.0949 9.75347 0.743548 0 0 1.00004 0.00178426
1373 20.3903 9.61653 1.63861 0 0 1.00004 0.00179348
454 20.9268 9.01652 0.197557 0 0 1.00004 0.0016836
1374 21.2665 10.0506 1.73766 0 0 1.00004 0.00189083
460 21.7939 8.96498 0.952883 0 0 1.00004 0.00174965
539 23.0499 9.62148 0.78503 0 0 1.00005 0.00191054
540 22.3176 10.4547 0.831277 0 0 1.00005 0.00193893
1377 22.1291 9.72124 1.49579 0 0 1.00005 0.00188943
1378 23.2864 10.4404 1.39852 0 0 1.00005 0.00205552
537 22.1574 9.73967 0.211913 0 0 1.00004 0.00183584
464 23.6653 8.87639 0.940852 0 0 1.00005 0.00188882
543 24.7948 9.48753 0.742635 0 0 1.00005 0.0020605
1381 23.9556 9.53416 1.51289 0 0 1.00005 0.00202832
1382 24.6977 10.2622 1.41218 0 0 1.00005 0.00217239
544 23.8836 10.4691 0.607806 0 0 1.00005 0.00206899
542 24.7444 10.2558 0.0964959 0 0 1.00005 0.00211999