ITEM: TIMESTEP
23500
ITEM: NUMBER OF ATOMS
32000
ITEM: BOX BOUNDS pp pp pp
0.0000000000000000e+00 3.1748021039364001e+01
0.0000000000000000e+00 3.1748021039364001e+01
0.0000000000000000e+00 3.1748021039364001e+01
ITEM: ATOMS id x y z c_phase c_nbond c_rho vx
4 0.281663 1.09774 0.470229 0 0 1.00003 0.00130344
83 1.13866 1.66739 0.78333 0 0 1.00002 0.00134037
842 0.883948 0.791283 1.40981 0 0 1.00003 0.00132868
921 0.175028 1.59769 1.37986 0 0 1.00003 0.00133215
3 0.894194 0.0696431 0.622983 0 0 1.00003 0.00130546
841 0.00555033 0.267925 1.25673 0 0 1.00003 0.00129704
8 1.87565 0.821226 1.01541 0 0 1.00002 0.00132617
85 1.96833 1.48688 0.21596 0 0 1.00002 0.00133111
925 2.00137 1.66268 1.75884 0 0 1.00002 0.00137015
6 2.67604 0.748053 0.204866 0 0 1.00002 0.00130596
7 2.74417 0.0583088 1.04111 0 0 1.00002 0.00130969
87 2.80635 1.54705 0.881977 0 0 1.00002 0.00133075
846 2.83725 0.824623 1.74563 0 0 1.00002 0.00133617
12 3.58017 0.933583 0.967141 0 0 1.00002 0.00129609
849 3.64545 0.0897437 1.71812 0 0 1.00002 0.0013048
929 3.76022 1.71471 1.72667 0 0 1.00002 0.00133402
10 4.25271 0.863432 0.324047 0 0 1.00002 0.00125783
850 4.4783 0.950141 1.64592 0 0 1.00001 0.00127743
9 3.62004 0.106431 0.175985 0 0 1.00002 0.00127439
93 5.05203 1.6104 0.389131 0 0 1.00001 0.00123686
16 5.1007 0.570321 1.17336 0 0 1.00001 0.0012222
14 5.76578 0.648885 0.32501 0 0 1.00001 0.00116633
95 6.00031 1.32494 0.954085 0 0 1.00001 0.00117335
97 6.67758 1.40782 0.221896 0 0 1.00001 0.00111283
854 5.90639 0.463177 1.71625 0 0 1.00001 0.00118415
933 5.15845 1.73147 1.44854 0 0 1.00001 0.00125527
20 6.81242 0.399301 0.879193 0 0 1.00001 0.0010904
937 6.79433 1.02231 1.71271 0 0 1.00001 0.00112559
24 8.3311 0.41531 1.08372 0 0 1.00001 0.000956823
99 7.45425 1.23827 0.96351 0 0 1.00001 0.00105151
101 8.31297 1.40619 0.240738 0 0 1.00001 0.000966067
941 8.20152 1.2873 1.62873 0 0 1.00001 0.00100207
18 7.662 0.659697 0.148215 0 0 1.00001 0.00101004
22 8.90856 0.514783 0.274605 0 0 1.00001 0.000888632
28 9.5907 0.341184 0.902834 0 0 1.00001 0.000825853
103 9.07396 1.32349 1.12258 0 0 1.00001 0.000902736
105 9.67371 1.3875 0.0945861 0 0 1.00001 0.0008286
32 11.2103 0.218492 0.643853 0 0 1.00001 0.000655807
107 10.3832 1.06096 0.834902 0 0 1.00001 0.0007545
866 10.5379 0.200665 1.46378 0 0 1.00001 0.000741636
949 11.2882 1.02801 1.4347 0 0 1.00001 0.000675742
946 10.5964 1.69846 1.74911 0 0 1.00001 0.000776602
26 10.2637 0.371556 0.080176 0 0 1.00001 0.000748376
36 12.8457 0.215507 0.645369 0 0 1.00001 0.000501271
111 12.0264 1.08472 0.51619 0 0 1.00001 0.000585976
870 12.1134 0.319618 1.31563 0 0 1.00001 0.00058209
953 12.6924 1.207 1.3878 0 0 1.00001 0.000543658
40 14.3216 0.32654 0.779141 0 0 1.00001 0.000388658
115 13.5483 1.1192 0.852209 0 0 1.00001 0.000458178
117 13.9952 1.56821 0.165169 0 0 1.00001 0.000427402
874 13.5685 0.363358 1.6488 0 0 1.00001 0.000464214
957 14.3274 1.15787 1.48892 0 0 1.00001 0.000416099
119 14.8223 1.56004 0.668132 0 0 1.00001 0.000378269
38 15.0436 0.713175 0.0679139 0 0 1.00001 0.00034278
44 15.6457 0.768524 0.790722 0 0 1.00001 0.000320154
123 16.4857 1.54331 0.683581 0 0 1.00002 0.000306799
878 15.0839 0.465905 1.6486 0 0 1.00001 0.000363344
882 16.4808 0.710338 1.3448 0 0 1.00002 0.000301776
961 15.5698 1.4923 1.3978 0 0 1.00001 0.000351965
48 17.1935 0.729397 0.552252 0 0 1.00002 0.000275714
127 17.8621 1.5774 0.754946 0 0 1.00002 0.000293709
886 17.8545 0.74142 1.42403 0 0 1.00002 0.000288976
965 17.1562 1.74517 1.56274 0 0 1.00002 0.000318449
51 19.4893 0.0137207 0.660457 0 0 1.00003 0.000306456
52 18.7361 0.722756 0.683656 0 0 1.00003 0.000287444
131 19.4934 1.54382 0.837146 0 0 1.00003 0.000330164
889 18.9723 0.154422 1.53884 0 0 1.00003 0.000304593
890 19.5483 0.960621 1.6815 0 0 1.00003 0.000337935
969 18.6049 1.50277 1.49464 0 0 1.00002 0.000315875
55 21.0721 0.345754 1.05901 0 0 1.00003 0.000399132
56 20.2116 0.770145 0.971468 0 0 1.00003 0.000350328
135 21.084 1.63724 0.945947 0 0 1.00003 0.000422805
54 21.1647 0.758226 0.216005 0 0 1.00003 0.000400881
133 20.3104 1.50149 0.195324 0 0 1.00003 0.000361752
57 22.0043 0.261104 0.534163 0 0 1.00003 0.000462179
59 22.8058 0.424462 1.3918 0 0 1.00004 0.000548077
60 22.1099 1.13592 1.31693 0 0 1.00004 0.000496311
137 21.9933 1.58346 0.530336 0 0 1.00004 0.000483622
58 22.93 1.05846 0.443746 0 0 1.00004 0.000553271
63 24.28 0.375161 1.42956 0 0 1.00004 0.000694816
61 23.5966 0.351646 0.568406 0 0 1.00004 0.000608934
62 24.4858 1.17015 0.745446 0 0 1.00004 0.000713109
64 23.5075 1.23258 1.3861 0 0 1.00004 0.000629577
65 25.0174 0.312078 0.544476 0 0 1.00004 0.000754487
67 26.0916 0.376309 1.15966 0 0 1.00004 0.00087477
68 25.2366 1.11286 1.46049 0 0 1.00004 0.000806683
147 26.0172 1.71689 1.34111 0 0 1.00004 0.000900861
66 25.9735 0.922717 0.424688 0 0 1.00004 0.000859061
70 27.6913 1.27054 0.383389 0 0 1.00004 0.00103609
71 27.7305 0.501317 0.867069 0 0 1.00004 0.00103175
72 26.8559 1.01802 1.24834 0 0 1.00004 0.000964496
69 26.8907 0.238403 0.227311 0 0 1.00004 0.000940818
913 28.5125 0.339186 1.3974 0 0 1.00004 0.0011094
76 28.7849 1.22643 0.730847 0 0 1.00004 0.00113219
914 29.5282 0.950401 1.56057 0 0 1.00003 0.00120043
993 28.656 1.71012 1.49159 0 0 1.00004 0.00115279
917 29.9721 0.166312 1.4516 0 0 1.00003 0.00121758
75 29.4154 0.352461 0.612851 0 0 1.00003 0.00116301
79 30.8675 0.47829 0.476429 0 0 1.00003 0.00124962
80 30.2484 1.19245 0.770061 0 0 1.00003 0.00123385
918 31.0223 0.96884 1.38936 0 0 1.00003 0.00128212
82 1.27929 2.4387 0.124084 0 0 1.00002 0.00136764
84 0.304498 2.38033 0.808984 0 0 1.00003 0.001354
163 1.4606 3.23561 0.947325 0 0 1.00002 0.00142407
922 1.31227 2.36641 1.59224 0 0 1.00002 0.00139304
1001 0.561255 3.03515 1.54941 0 0 1.00003 0.00141651
161 0.504277 3.10106 0.13087 0 0 1.00003 0.00139041
88 2.08038 2.42174 0.787837 0 0 1.00002 0.00137479
167 2.82437 3.29244 0.862746 0 0 1.00002 0.00141648
926 2.83836 2.24549 1.54629 0 0 1.00002 0.00137613
86 2.88474 2.3935 0.0556195 0 0 1.00002 0.00135522
1009 3.42964 3.43641 1.66119 0 0 1.00002 0.00143572
92 3.54005 2.57045 0.788155 0 0 1.00002 0.0013536
91 4.15448 1.84897 0.718382 0 0 1.00002 0.00129487
171 4.35348 3.33886 0.758223 0 0 1.00001 0.00136558
930 4.2912 2.65866 1.59289 0 0 1.00001 0.00135072
96 5.04802 2.58873 0.825793 0 0 1.00001 0.0012862
94 5.7746 2.46594 0.138025 0 0 1.00001 0.00122332
100 6.66584 2.20403 0.785248 0 0 1.00001 0.00115119
175 5.78172 3.22381 0.965796 0 0 1.00001 0.00127888
934 5.98377 2.22014 1.51023 0 0 1.00001 0.00122455
1017 6.64183 3.09668 1.57091 0 0 1.00001 0.00122432
173 5.13104 3.35607 0.00141949 0 0 1.00001 0.00131816
177 6.75629 2.96099 0.135438 0 0 1.00001 0.00117579
98 7.54128 2.24994 0.142095 0 0 1.00001 0.00107084
104 8.16041 2.22599 0.944886 0 0 1.00001 0.00102225
179 7.49773 3.09744 0.942826 0 0 1.00001 0.00113254
938 7.39415 2.08419 1.58756 0 0 1.00001 0.00110579
1021 8.26744 3.03387 1.67387 0 0 1.00001 0.00107938
181 8.34517 3.00184 0.0421496 0 0 1.00001 0.00103447
102 8.9611 2.11325 0.256612 0 0 1.00001 0.000927812
108 9.81041 2.04674 1.12159 0 0 1 0.000852967
183 8.98644 3.00463 0.943899 0 0 1 0.000982615
942 9.08653 2.24715 1.72775 0 0 1.00001 0.000955504
185 9.607 2.93779 0.215349 0 0 1.00001 0.000903375
106 10.3073 2.13604 0.216174 0 0 1.00001 0.000790174
112 11.1629 1.84729 0.781944 0 0 1.00001 0.000697957
187 10.6419 2.83704 0.933997 0 0 1 0.000800269
1029 11.4473 2.86036 1.59833 0 0 1 0.000741276
116 12.6484 1.95751 0.602887 0 0 1.00001 0.000555459
191 11.9197 2.66823 0.750965 0 0 1.00001 0.00065834
950 11.9158 1.93922 1.48336 0 0 1.00001 0.000642777
1033 12.8236 3.04359 1.70772 0 0 1.00001 0.000622539
195 13.1573 3.04871 0.85402 0 0 1.00001 0.000566634
954 13.345 2.00705 1.49425 0 0 1.00001 0.000516399
114 13.3774 2.31237 0.0594868 0 0 1.00001 0.000502925
120 13.977 2.46009 0.93211 0 0 1.00001 0.000472317
1037 13.9897 3.40613 1.56983 0 0 1.00001 0.000541832
199 14.6497 3.45163 0.887928 0 0 1.00001 0.000478361
958 14.736 2.31037 1.45189 0 0 1.00001 0.000427125
118 14.7878 2.523 0.13927 0 0 1.00001 0.000411088
197 14.1137 3.24088 0.0378191 0 0 1.00001 0.000492858
124 15.6377 2.44629 0.699018 0 0 1.00001 0.000368792
203 16.2464 3.20331 0.669774 0 0 1.00002 0.000382052
962 16.2479 2.48027 1.52822 0 0 1.00002 0.000365786
1041 15.3211 3.26688 1.5105 0 0 1.00001 0.000445325
201 15.5132 3.26685 0.0237312 0 0 1.00001 0.000409548
128 17.0038 2.35066 0.683639 0 0 1.00002 0.000323745
207 17.8864 2.91948 0.700332 0 0 1.00002 0.000344827
966 17.9606 2.42983 1.57973 0 0 1.00002 0.000342637
1045 17.0321 3.11221 1.49676 0 0 1.00002 0.000377627
132 18.8395 2.34652 1.0082 0 0 1.00003 0.000338707
211 19.6606 3.21836 1.26788 0 0 1.00003 0.000414584
209 18.8325 2.98231 0.193294 0 0 1.00003 0.000357137
130 19.5449 2.32379 0.102791 0 0 1.00003 0.000351745
973 20.2918 1.77054 1.71394 0 0 1.00003 0.000395387
134 21.1405 2.39564 0.452781 0 0 1.00003 0.000445933
136 20.1619 2.44691 1.10408 0 0 1.00003 0.000397666
215 21.3002 3.26606 1.37506 0 0 1.00003 0.000518042
213 20.3915 2.97198 0.330432 0 0 1.00003 0.000423553
139 22.8918 2.0429 1.49386 0 0 1.00004 0.00059571
138 22.9916 2.57434 0.725648 0 0 1.00004 0.000611701
140 22.0953 2.47213 1.2246 0 0 1.00004 0.00053787
217 21.989 3.16943 0.59295 0 0 1.00004 0.000551248
16179 22.6989 3.36488 0.0704415 0 0 1.00004 0.000619345
141 23.778 1.78787 0.616303 0 0 1.00004 0.000657297
143 24.4816 1.96359 1.58793 0 0 1.00004 0.000757284
142 24.3957 2.65234 0.764696 0 0 1.00004 0.000757505
144 23.7284 2.86676 1.51635 0 0 1.00004 0.000718733
223 24.5374 3.47197 1.53551 0 0 1.00004 0.00083814
16108 25.0237 2.81045 0.0142313 0 0 1.00004 0.000825938
149 26.6476 1.77511 0.506207 0 0 1.00004 0.000952093
145 25.2001 1.83446 0.506318 0 0 1.00004 0.000804258
146 25.8795 2.58252 0.696891 0 0 1.00004 0.000908792
148 25.2341 2.52943 1.50441 0 0 1.00004 0.000856454
227 25.8143 3.46003 1.49465 0 0 1.00004 0.000972717
152 26.639 2.5367 1.51185 0 0 1.00004 0.00100491
229 26.274 3.46697 0.588366 0 0 1.00004 0.00099942
151 27.622 1.96693 1.2222 0 0 1.00004 0.00106723
153 28.3827 2.0743 0.340978 0 0 1.00004 0.00112361
150 27.2019 2.66653 0.633527 0 0 1.00004 0.00104674
231 27.3288 3.32246 1.39954 0 0 1.00004 0.00111543
156 28.3894 2.73376 1.19114 0 0 1.00004 0.00116987
233 28.1159 3.1971 0.328892 0 0 1.00004 0.00115634
155 29.5922 2.024 0.878435 0 0 1.00003 0.00122091
154 29.3412 2.65382 0.284979 0 0 1.00004 0.00122472
235 29.4087 3.23947 1.17247 0 0 1.00004 0.00127895
997 30.1188 1.79781 1.69823 0 0 1.00003 0.00126843
159 31.0739 1.97338 0.921116 0 0 1.00003 0.00130448
160 30.3425 2.6983 0.996836 0 0 1.00003 0.00130231
239 31.1989 3.33172 0.972504 0 0 1.00003 0.00138136
998 31.1558 2.68444 1.72272 0 0 1.00003 0.00136476
237 30.2817 3.23269 0.145171 0 0 1.00003 0.00131807
157 30.5636 1.89865 0.0319911 0 0 1.00003 0.00126623
158 31.3084 2.6526 0.0761599 0 0 1.00003 0.00133556
164 0.476082 3.77908 0.91982 0 0 1.00003 0.0014441
241 0.33065 4.59708 0.474241 0 0 1.00003 0.00149644
243 1.32374 4.67073 0.989441 0 0 1.00002 0.00153022
244 0.291302 5.26131 1.27382 0 0 1.00003 0.00157336
162 1.22337 3.86092 0.0695785 0 0 1.00002 0.00145219
168 2.03128 4.05066 0.852113 0 0 1.00002 0.00147916
247 2.72509 4.87338 1.13551 0 0 1.00002 0.00154783
166 2.82661 4.15864 0.204591 0 0 1.00002 0.00146893
245 2.08681 4.97219 0.283389 0 0 1.00002 0.00154612
249 3.58706 4.88162 0.165077 0 0 1.00002 0.00150847
172 3.65883 4.09772 0.893879 0 0 1.00002 0.00145129
251 4.22579 4.9077 1.15959 0 0 1.00001 0.00150561
170 4.41595 4.20584 0.148121 0 0 1.00001 0.00141875
176 5.06424 4.03427 1.18709 0 0 1.00001 0.00138953
253 5.16449 4.77519 0.34047 0 0 1.00001 0.00142769
174 5.90263 3.97126 0.196566 0 0 1.00001 0.00131123
180 6.61758 3.80456 0.788526 0 0 1.00001 0.0012528
255 5.83479 4.76873 1.04379 0 0 1.00001 0.00139747
1097 6.79232 4.55895 1.67059 0 0 1.00001 0.00133042
260 6.80655 5.18185 0.89492 0 0 1.00001 0.00135816
184 8.28425 3.92893 0.715701 0 0 1 0.00111144
259 7.51452 4.50479 0.559742 0 0 1.00001 0.00122739
1018 7.50648 3.90927 1.52144 0 0 1.00001 0.0012084
1101 8.2956 4.65896 1.51139 0 0 1 0.00119584
188 9.9385 3.6186 0.900978 0 0 1 0.000923566
263 9.14688 4.61368 0.83707 0 0 1 0.00108373
265 9.90904 4.55383 0.131234 0 0 1 0.000987476
1022 9.13913 3.80632 1.52364 0 0 1 0.00104067
1105 9.92319 4.39661 1.6851 0 0 1 0.00101522
182 9.0503 3.9079 0.064742 0 0 1 0.00102585
192 11.4149 3.68012 0.796032 0 0 1 0.00077144
267 10.6216 4.70911 0.923602 0 0 1 0.000938945
269 11.3996 4.73782 0.233037 0 0 1 0.00084753
1026 10.731 3.60854 1.61383 0 0 1 0.000862994
1109 11.38 4.42252 1.73114 0 0 1 0.000865461
186 10.6113 3.88612 0.178956 0 0 1 0.000860515
196 12.4958 3.61441 0.825599 0 0 1.00001 0.000661651
271 12.186 4.59015 1.01568 0 0 1 0.00077056
1113 12.7366 5.03342 1.71343 0 0 1 0.000785387
275 13.2041 4.71851 0.811769 0 0 1.00001 0.000679818
273 12.6257 4.6546 0.0638387 0 0 1.00001 0.000717749
200 13.9544 4.15016 0.705053 0 0 1.00001 0.000571042
1034 13.4583 4.249 1.61117 0 0 1.00001 0.000647686
1117 14.1693 5.14404 1.53913 0 0 1.00001 0.000662177
279 14.8976 5.03143 0.819364 0 0 1.00001 0.00057644
1038 14.9218 4.43127 1.60561 0 0 1.00001 0.000553088
277 14.104 4.92804 0.0670629 0 0 1.00001 0.000612484
198 14.9111 4.20743 0.101582 0 0 1.00001 0.000501985
204 15.6129 4.0754 0.92908 0 0 1.00001 0.000466154
281 15.8227 4.78209 0.18882 0 0 1.00001 0.000497092
283 16.5381 4.58214 0.902786 0 0 1.00002 0.000467226
1042 16.2644 3.96315 1.6935 0 0 1.00002 0.000457066
1121 15.7638 5.05993 1.64992 0 0 1.00001 0.000561332
208 17.2118 3.82768 0.810882 0 0 1.00002 0.000399996
287 18.0329 4.47381 1.09364 0 0 1.00002 0.000448221
1046 17.8982 3.628 1.65146 0 0 1.00002 0.000408446
285 17.3966 4.56916 0.0175581 0 0 1.00002 0.00043954
206 18.0809 3.84065 0.0618288 0 0 1.00002 0.000391398
212 18.8266 3.68941 0.947333 0 0 1.00003 0.00040552
289 18.7777 4.58877 0.359623 0 0 1.00003 0.000454304
291 19.653 4.64613 1.0775 0 0 1.00003 0.000501546
292 18.7418 5.25293 1.19231 0 0 1.00003 0.000522035
210 19.5582 3.74287 0.228615 0 0 1.00003 0.00042339
216 20.4125 3.79132 1.22189 0 0 1.00003 0.000485357
295 20.8717 4.67857 1.376 0 0 1.00003 0.000582577
297 21.5848 4.90726 0.796178 0 0 1.00004 0.000636749
214 21.0718 3.89837 0.506827 0 0 1.00003 0.000520535
293 20.1116 4.75218 0.345667 0 0 1.00003 0.000518505
219 22.8469 3.59003 1.4002 0 0 1.00004 0.000670461
220 21.9469 4.09196 1.29315 0 0 1.00004 0.000619353
299 22.4993 5.1218 1.25441 0 0 1.00004 0.000745647
218 22.6374 4.30271 0.506629 0 0 1.00004 0.000678711
221 23.6152 3.59741 0.769859 0 0 1.00004 0.000730503
222 24.4001 4.2769 0.615824 0 0 1.00004 0.000855299
224 23.5139 4.49848 1.31443 0 0 1.00004 0.000797862
305 24.9405 5.20009 0.555768 0 0 1.00004 0.000987105
301 23.6011 5.01404 0.523023 0 0 1.00004 0.000827246
303 24.4385 5.23375 1.40865 0 0 1.00004 0.000959328
228 25.0972 4.44724 1.59451 0 0 1.00004 0.000972204
225 25.1407 3.63406 0.78649 0 0 1.00004 0.000893631
307 25.8018 5.08674 1.32348 0 0 1.00004 0.00109013
232 26.4746 4.2461 1.35367 0 0 1.00004 0.00109336
309 26.6267 4.92744 0.631279 0 0 1.00004 0.00114414
226 25.6251 4.35704 0.386471 0 0 1.00004 0.00098891
311 27.4729 4.82678 1.38514 0 0 1.00004 0.00124065
236 28.1039 3.94091 1.09335 0 0 1.00004 0.00121801
230 27.191 4.00291 0.568302 0 0 1.00004 0.00112672
313 28.4322 4.70212 0.696055 0 0 1.00004 0.00129766
234 29.0859 3.74901 0.475626 0 0 1.00004 0.00127363
315 29.2524 4.49209 1.31364 0 0 1.00004 0.00136216
314 29.5667 5.28127 0.805958 0 0 1.00004 0.00143861
240 30.167 4.03974 1.02179 0 0 1.00003 0.00137941
238 31.2071 3.97131 0.361651 0 0 1.00003 0.00141688
317 30.387 4.66781 0.476162 0 0 1.00003 0.00143247
319 31.1667 4.59184 1.39191 0 0 1.00003 0.00148785
242 1.11334 5.5288 0.461721 0 0 1.00003 0.00159448
323 1.01355 6.20888 1.27703 0 0 1.00003 0.00168155
324 0.475653 6.92111 1.4994 0 0 1.00003 0.00175502
322 1.19622 6.94162 0.569776 0 0 1.00003 0.00173998
321 0.188899 5.99263 0.44781 0 0 1.00003 0.00161859
248 1.73999 5.51748 1.37945 0 0 1.00002 0.00162453
328 1.9298 7.03633 1.24789 0 0 1.00002 0.00177489
325 2.09616 6.21096 0.514289 0 0 1.00002 0.00166544
252 3.3102 5.64716 1.30583 0 0 1.00002 0.00161378
327 2.48153 6.17483 1.41928 0 0 1.00002 0.00168629
246 2.87823 5.6232 0.276052 0 0 1.00002 0.00159573
332 3.4641 6.99345 1.15011 0 0 1.00002 0.00174421
329 3.59583 6.30176 0.498379 0 0 1.00002 0.00164642
250 4.36987 5.49406 0.330321 0 0 1.00001 0.00153466
331 4.3198 6.12711 1.24402 0 0 1.00001 0.00162343
333 5.00637 6.27389 0.336242 0 0 1.00001 0.00158025
336 4.96582 6.84993 1.17842 0 0 1.00001 0.00166565
330 4.20246 7.05075 0.230346 0 0 1.00001 0.00170126
256 5.10661 5.47002 1.32617 0 0 1.00001 0.00151964
254 5.92765 5.45607 0.304661 0 0 1.00001 0.00143928
335 5.85304 6.28177 0.978062 0 0 1.00001 0.00154449
1177 6.61404 6.03901 1.6271 0 0 1.00001 0.0014896
340 6.59587 6.92502 1.02028 0 0 1.00001 0.00155958
337 6.53393 6.10239 0.155322 0 0 1.00001 0.00145688
264 8.3099 5.36737 0.71127 0 0 1 0.00123488
339 7.45328 6.20893 0.771917 0 0 1 0.00140263
1098 7.51705 5.46772 1.5221 0 0 1 0.00134808
1181 8.34676 6.17176 1.52714 0 0 1 0.00134512
344 8.13915 6.91623 0.745585 0 0 1 0.00141268
1178 7.42901 6.91809 1.63305 0 0 1 0.00152157
258 7.44626 5.40716 0.0455243 0 0 1 0.00131038
268 9.8281 5.37572 0.810493 0 0 1 0.00108137
343 8.97486 6.24706 0.754305 0 0 1 0.00125877
1102 9.13347 5.38431 1.62484 0 0 1 0.00118885
1185 9.81185 6.2479 1.50399 0 0 1 0.00120123
1182 9.18972 7.01962 1.49902 0 0 0.999999 0.00135368
345 9.82946 6.29248 0.0993561 0 0 1 0.00116268
262 9.07829 5.52261 0.0193595 0 0 1 0.00116339
272 11.411 5.32384 1.00859 0 0 1 0.000915955
347 10.6338 6.0797 0.98163 0 0 1 0.00107085
349 11.3447 6.42416 0.0806741 0 0 1 0.00101421
346 10.5773 7.00537 0.156383 0 0 1 0.00115732
1186 10.5328 6.99242 1.53268 0 0 0.999999 0.00121103
270 12.0054 5.67131 0.188288 0 0 1 0.000869306
276 12.672 5.85801 0.877799 0 0 1 0.000836008
351 11.7958 6.2629 1.07455 0 0 1 0.000970139
1114 13.3129 5.90745 1.58405 0 0 1 0.00080908
355 13.3425 6.62009 0.825539 0 0 1 0.000845911
274 13.2996 5.57552 0.0448935 0 0 1.00001 0.000734989
280 14.0335 5.74747 0.784782 0 0 1.00001 0.000700722
1197 14.301 6.68281 1.4297 0 0 1.00001 0.000798528
357 14.1041 6.41673 0.0412575 0 0 1.00001 0.000746825
278 14.9802 5.65939 0.0380751 0 0 1.00001 0.000613753
359 15.0094 6.47247 0.815222 0 0 1.00001 0.000700538
284 15.7831 5.74783 0.960739 0 0 1.00001 0.000593461
363 16.4456 6.45653 1.14675 0 0 1.00001 0.000639443
1118 15.0702 5.89494 1.71224 0 0 1.00001 0.00067999
282 16.5675 5.4207 0.277106 0 0 1.00002 0.000521768
361 15.6333 6.35351 0.043034 0 0 1.00001 0.000639385
286 17.778 5.29211 0.53993 0 0 1.00002 0.000497727
288 17.0601 5.42055 1.24765 0 0 1.00002 0.000533284
365 17.0172 6.27181 0.411618 0 0 1.00002 0.000586532
367 17.6204 6.2347 1.37951 0 0 1.00002 0.000605809
372 18.2387 7.03219 1.12964 0 0 1.00002 0.000673321
369 18.3325 6.20986 0.608647 0 0 1.00002 0.000580425
290 19.3993 5.7252 0.614406 0 0 1.00003 0.000565999
371 19.2998 6.52293 1.33311 0 0 1.00003 0.00065697
373 19.9791 6.7088 0.602147 0 0 1.00003 0.000679806
294 20.7443 5.73028 0.642579 0 0 1.00003 0.00063871
296 20.1712 5.56987 1.37844 0 0 1.00003 0.000611716
375 20.779 6.56163 1.28252 0 0 1.00003 0.000737442
377 21.6765 6.6086 0.65538 0 0 1.00004 0.000788492
300 21.6754 5.82346 1.35884 0 0 1.00004 0.000739384
16260 21.7043 5.68318 0.0523463 0 0 1.00004 0.000700376
298 22.7098 5.77551 0.656271 0 0 1.00004 0.000805819
379 22.6774 6.63024 1.18134 0 0 1.00004 0.000900171
381 23.4116 6.7134 0.262923 0 0 1.00004 0.000955871
304 23.5434 5.82665 1.27014 0 0 1.00004 0.000912829
383 24.4116 6.50237 1.13772 0 0 1.00004 0.00106696
302 24.2198 5.9449 0.415352 0 0 1.00004 0.000971393
306 25.8012 5.80686 0.682994 0 0 1.00004 0.00113639
308 25.2178 5.97742 1.64072 0 0 1.00004 0.00112455
385 25.271 6.67464 0.482691 0 0 1.00005 0.00115749
387 25.9645 6.53755 1.37944 0 0 1.00004 0.00125097
312 26.8321 5.79516 1.44843 0 0 1.00004 0.00126965
310 27.6518 5.50206 0.70735 0 0 1.00004 0.00129836
389 26.8953 6.31431 0.634268 0 0 1.00004 0.00129922
391 27.869 6.41954 1.34503 0 0 1.00004 0.00142813
390 27.8865 6.9588 0.516848 0 0 1.00004 0.00145848
316 28.5377 5.48438 1.45988 0 0 1.00004 0.00140081
395 29.6315 6.15677 1.30671 0 0 1.00004 0.00154382
394 29.7831 6.88463 0.502397 0 0 1.00004 0.00160479
393 28.6498 6.17015 0.634364 0 0 1.00004 0.00144974
16355 29.5629 6.1131 0.0744879 0 0 1.00004 0.00150617
16276 28.6494 5.35857 0.0509499 0 0 1.00004 0.00136672
318 31.1622 5.34819 0.59047 0 0 1.00003 0.00153209
320 30.4136 5.43314 1.44838 0 0 1.00003 0.00152711
397 30.5944 6.16308 0.639472 0 0 1.00003 0.00158293
399 31.4272 6.13785 1.37645 0 0 1.00003 0.00164204
398 31.4249 6.93578 0.603675 0 0 1.00003 0.00170015
401 0.495861 7.63197 0.655001 0 0 1.00003 0.00180072
402 1.0893 8.46992 0.609737 0 0 1.00003 0.00190185
403 1.34941 7.85713 1.49548 0 0 1.00003 0.00187428
404 0.604668 8.55015 1.46388 0 0 1.00003 0.00193553
405 1.83036 7.77229 0.379309 0 0 1.00002 0.00182845
408 1.98066 8.63065 1.46877 0 0 1.00002 0.00196139
326 2.7035 7.16069 0.474786 0 0 1.00002 0.00175898
406 2.44703 8.63876 0.40254 0 0 1.00002 0.00192016
407 2.6317 7.82855 1.28914 0 0 1.00002 0.00185873
412 3.26262 8.54395 0.951679 0 0 1.00002 0.00191299
409 3.46508 7.79119 0.332826 0 0 1.00002 0.00180721
410 4.04508 8.4925 0.0809036 0 0 1.00001 0.00186377
411 4.19843 7.68807 1.25074 0 0 1.00001 0.00179784
416 4.91593 8.30808 0.948653 0 0 1.00001 0.00182308
413 4.8792 7.684 0.245168 0 0 1.00001 0.00173638
334 5.72566 7.09462 0.154663 0 0 1.00001 0.00162263
414 6.06337 8.40081 0.179328 0 0 1.00001 0.00174461
415 5.67804 7.63095 1.04408 0 0 1.00001 0.00170556
417 6.65782 7.6002 0.173222 0 0 1 0.00161012
420 6.57953 8.27824 1.06989 0 0 1 0.00171571
419 7.44256 7.82531 0.767675 0 0 1 0.00158204
1258 7.44313 8.23815 1.7394 0 0 1 0.0016817
1261 8.19186 7.55334 1.59769 0 0 1 0.00152276
421 8.13191 7.66749 0.0289839 0 0 1 0.0014867
424 8.41528 8.3822 0.896568 0 0 0.999999 0.00156097
348 9.91695 7.28273 0.746844 0 0 0.999999 0.00127356
423 9.02213 7.68053 0.681821 0 0 0.999999 0.00140978
428 9.83092 8.68413 0.718337 0 0 0.999997 0.00144195
1262 9.21099 8.76644 1.49086 0 0 0.999997 0.0015614
1265 9.74932 7.95486 1.64072 0 0 0.999997 0.00141717
352 11.351 7.20145 0.830022 0 0 0.999999 0.00111232
427 10.6432 8.00563 0.868157 0 0 0.999998 0.00128155
1266 10.6674 8.77683 1.47323 0 0 0.999996 0.00140495
1269 11.4514 7.87497 1.64251 0 0 0.999998 0.00122272
429 11.2783 8.17936 0.0473515 0 0 0.999999 0.00121078
356 12.715 7.3372 0.582599 0 0 1 0.000975983
431 12.2069 8.28533 0.612027 0 0 0.999999 0.00113517
1190 12.0976 7.21506 1.41275 0 0 1 0.00106204
1270 12.127 8.74108 1.53482 0 0 0.999997 0.00124553
1273 12.8723 8.05214 1.51174 0 0 1 0.00108491
350 11.9237 7.44242 0.000835695 0 0 1 0.00105957
360 14.3069 7.38589 0.603186 0 0 1.00001 0.000837516
435 13.6119 8.13682 0.481797 0 0 1 0.000973959
1194 13.4607 7.38224 1.37267 0 0 1 0.000942471
1277 14.2397 8.21257 1.37897 0 0 1 0.000967233
439 15.0506 8.31638 0.877066 0 0 1.00001 0.000890768
362 16.3928 7.18807 0.282633 0 0 1.00001 0.000688651
364 15.596 7.32451 0.924943 0 0 1.00001 0.000754004
443 16.2315 8.16696 1.11699 0 0 1.00001 0.000820544
1198 15.1151 7.54597 1.65035 0 0 1.00001 0.000847753
441 15.8302 8.32225 0.156247 0 0 1.00001 0.000826184
368 16.9394 7.35638 1.11769 0 0 1.00002 0.000713599
445 17.029 8.10136 0.337522 0 0 1.00002 0.000762047
447 17.6769 8.0108 1.02696 0 0 1.00002 0.000765261
366 17.7784 7.15403 0.217462 0 0 1.00002 0.00065877
370 18.9827 7.30573 0.633988 0 0 1.00003 0.000696682
451 18.9098 8.12091 1.17104 0 0 1.00003 0.000797193
376 19.8646 7.61227 1.30398 0 0 1.00003 0.000787949
453 19.7959 8.09748 0.355812 0 0 1.00003 0.000799678
449 18.4257 8.16559 0.175065 0 0 1.00002 0.000760515
374 20.7045 7.41031 0.65788 0 0 1.00003 0.000791585
455 20.6635 8.3849 1.01383 0 0 1.00004 0.000898843
380 21.5717 7.61188 1.12315 0 0 1.00004 0.000894343
457 21.6463 8.28433 0.254297 0 0 1.00004 0.000941749
459 22.6495 8.11361 0.99176 0 0 1.00004 0.00103939
1218 22.471 7.43311 1.7177 0 0 1.00004 0.000990887
378 22.3818 7.42194 0.377093 0 0 1.00004 0.000924099
458 22.8279 8.81751 0.196854 0 0 1.00004 0.00110637
384 23.521 7.25783 1.03147 0 0 1.00004 0.00104149
461 23.5694 8.0115 0.371699 0 0 1.00004 0.00110576
463 24.4535 8.02892 0.97222 0 0 1.00005 0.00122124
1302 24.373 8.65375 1.64719 0 0 1.00005 0.00132174
382 24.4324 7.25866 0.264818 0 0 1.00004 0.00111924
462 24.4272 8.7543 0.202002 0 0 1.00005 0.00127381
388 25.2408 7.32779 1.22327 0 0 1.00005 0.00124681
467 26.176 7.94507 0.967626 0 0 1.00005 0.00140299
1306 26.1879 8.56154 1.71371 0 0 1.00005 0.00151842
386 26.2303 7.21284 0.362052 0 0 1.00005 0.00131365
465 25.3581 8.05933 0.302471 0 0 1.00005 0.00130639
466 26.434 8.52509 0.0882123 0 0 1.00005 0.00147239
468 25.4286 8.78986 0.980578 0 0 1.00005 0.00141416
392 26.9487 7.05755 1.31397 0 0 1.00004 0.00140529
470 28.1648 8.45536 0.412138 0 0 1.00004 0.00164157
471 27.9933 7.78258 1.19 0 0 1.00004 0.00157912
472 27.165 8.599 1.00265 0 0 1.00005 0.00158082
469 27.168 7.72742 0.423976 0 0 1.00004 0.00146645
1310 27.995 8.64292 1.75969 0 0 1.00005 0.0017107
396 28.8465 7.06687 1.21147 0 0 1.00004 0.00157576
474 29.8224 8.33331 0.535351 0 0 1.00004 0.00176201
475 29.7158 7.64515 1.26313 0 0 1.00004 0.00170334
476 28.996 8.51379 1.16667 0 0 1.00004 0.00174264
473 28.9023 7.6833 0.408947 0 0 1.00004 0.00162232
400 30.5455 7.06525 1.1706 0 0 1.00004 0.00168878
479 31.4841 7.80253 1.29169 0 0 1.00003 0.00181767
480 30.6715 8.46481 1.17615 0 0 1.00004 0.00184743
477 30.8657 7.85208 0.379734 0 0 1.00004 0.00176734
478 31.673 8.60224 0.38951 0 0 1.00003 0.0018823
482 1.3962 10.2831 0.269052 0 0 1.00003 0.00208974
483 1.28403 9.36652 1.20066 0 0 1.00003 0.00202436
484 0.528058 9.9272 0.900136 0 0 1.00003 0.00205492
481 0.627398 9.33397 0.124305 0 0 1.00003 0.0019792
1322 1.09475 10.1257 1.75182 0 0 1.00003 0.00213888
485 2.01258 9.46323 0.447677 0 0 1.00002 0.002013
488 2.10146 10.368 0.975179 0 0 1.00002 0.00212256
486 2.85295 10.2921 0.0787385 0 0 1.00002 0.00208538
487 2.63302 9.46076 1.22609 0 0 1.00002 0.00203668
1326 3.04012 10.2525 1.68383 0 0 1.00002 0.00214562
489 3.32313 9.38613 0.0912718 0 0 1.00002 0.00198351
1329 3.46804 9.26833 1.68285 0 0 1.00002 0.00202839
492 3.63546 10.0657 0.751973 0 0 1.00002 0.00206027
491 4.17102 9.14309 0.870628 0 0 1.00001 0.00194793
493 4.79967 9.22934 0.00648524 0 0 1.00001 0.00191151
496 4.83983 10.0196 0.580738 0 0 1.00001 0.00200488
1330 4.37544 10.0035 1.63133 0 0 1.00001 0.00207755
1333 4.90624 9.10731 1.67121 0 0 1.00001 0.00195699
495 5.54133 8.99983 0.67367 0 0 1.00001 0.0018571
500 6.44203 9.84902 0.531391 0 0 1 0.00188636
1334 5.55051 9.88067 1.20037 0 0 1.00001 0.00197689
1337 6.35514 9.11698 1.29013 0 0 1 0.00184392
1417 6.4575 10.5679 1.22368 0 0 1 0.0019936
499 7.33656 8.94011 0.733712 0 0 1 0.00171949
501 8.24531 9.11088 0.087916 0 0 0.999999 0.001641
504 8.12706 9.98959 0.595586 0 0 0.999998 0.00176026
1338 7.35789 9.79989 1.2288 0 0 1 0.0018399
1341 8.20258 9.23092 1.43764 0 0 0.999998 0.00171334
503 9.07264 9.5164 0.750525 0 0 0.999996 0.00162114
508 9.76738 10.3953 0.68647 0 0 0.999995 0.00164253
1342 8.90435 10.3207 1.45414 0 0 0.999995 0.00177258
1345 9.94148 9.65096 1.45923 0 0 0.999994 0.00158716
432 11.4267 8.90759 0.754605 0 0 0.999997 0.0012942
426 10.4869 8.94533 0.0407099 0 0 0.999997 0.0013857
507 10.5572 9.74315 0.680552 0 0 0.999995 0.00148467
1346 10.7326 10.2393 1.68656 0 0 0.999993 0.00158972
1349 11.3842 9.69064 1.36053 0 0 0.999995 0.00142636
436 13.0153 9.00614 0.805972 0 0 0.999999 0.00113906
511 12.1526 9.86476 0.709895 0 0 0.999995 0.00132203
516 12.8589 10.5239 0.985676 0 0 0.999996 0.00133005
1353 12.5937 9.67165 1.65535 0 0 0.999996 0.00131817
1274 13.6955 8.8937 1.60063 0 0 1 0.0011113
440 14.4577 9.22461 0.775862 0 0 1 0.00102939
515 13.5491 9.73142 0.859119 0 0 1 0.00116914
1354 13.5297 10.4605 1.74753 0 0 0.999996 0.00132066
517 14.2748 10.1789 0.224568 0 0 1 0.00112722
444 15.8789 9.17008 1.14505 0 0 1.00001 0.000947032
519 15.1254 9.88509 1.02832 0 0 1.00001 0.00106144
521 15.6763 10.1929 0.254732 0 0 1.00001 0.00102584
523 16.4898 9.96358 0.968785 0 0 1.00001 0.000990276
442 16.4814 9.0404 0.264906 0 0 1.00001 0.000871922
438 15.2766 9.22427 0.106788 0 0 1.00001 0.000950944
452 18.2831 8.87929 0.939135 0 0 1.00002 0.000851778
448 17.0716 9.06328 1.12924 0 0 1.00002 0.00088925
525 17.1393 10.0213 0.206965 0 0 1.00002 0.000948872
527 17.7639 9.85607 1.06911 0 0 1.00002 0.00095685
446 17.7426 9.09605 0.119522 0 0 1.00002 0.000848949
456 19.8301 8.92161 1.0472 0 0 1.00003 0.000908458
529 18.5907 9.71317 0.299749 0 0 1.00002 0.0009177
531 19.5136 9.86696 0.844429 0 0 1.00003 0.000978433
532 18.7263 10.4353 1.13633 0 0 1.00003 0.00102641
1369 18.6538 9.56433 1.69673 0 0 1.00002 0.000981529
450 19.2354 8.93243 0.209776 0 0 1.00003 0.000856237
533 20.0085 9.75071 0.0707747 0 0 1.00003 0.000970532
535 20.9714 9.76642 0.742229 0 0 1.00004 0.00105066
1373 20.2739 9.62562 1.64608 0 0 1.00004 0.00104902
454 20.8159 9.03386 0.201283 0 0 1.00004 0.000951778
460 21.6776 8.98404 0.959647 0 0 1.00004 0.00103735
1374 21.139 10.0645 1.75098 0 0 1.00004 0.0011642
1298 22.4711 8.83107 1.55745 0 0 1.00004 0.00113091
539 22.9182 9.63895 0.788622 0 0 1.00005 0.00121681
540 22.1803 10.4749 0.846455 0 0 1.00004 0.00122798
1377 21.9937 9.73842 1.50932 0 0 1.00004 0.00118053
1378 23.1431 10.461 1.41391 0 0 1.00005 0.00136451
537 22.0334 9.75906 0.209517 0 0 1.00004 0.00112447
464 23.5308 8.9094 0.950307 0 0 1.00005 0.00121213
543 24.6488 9.51203 0.748206 0 0 1.00005 0.00139443
1381 23.8117 9.55368 1.529 0 0 1.00005 0.00135289
1382 24.5341 10.2919 1.42568 0 0 1.00005 0.00150199
544 23.7306 10.4926 0.611059 0 0 1.00005 0.00138327
542 24.5875 10.2767 0.102161 0 0 1.00005 0.00144645
1385 25.2213 9.46615 1.62562 0 0 1.00005 0.00150683
547 26.4015 9.3372 0.860293 0 0 1.00005 0.00157318
548 25.5436 10.2064 0.801261 0 0 1.00005 0.00156717