ITEM: TIMESTEP
27500
ITEM: NUMBER OF ATOMS
32000
ITEM: BOX BOUNDS pp pp pp
0.0000000000000000e+00 3.1748021039364001e+01
0.0000000000000000e+00 3.1748021039364001e+01
0.0000000000000000e+00 3.1748021039364001e+01
ITEM: ATOMS id x y z c_phase c_nbond c_rho vx
4 0.340162 1.09637 0.471972 0 0 1.00004 0.00159013
83 1.19782 1.66667 0.784847 0 0 1.00003 0.00163244
842 0.944754 0.790473 1.40856 0 0 1.00003 0.00161908
921 0.235672 1.59634 1.38156 0 0 1.00004 0.00162
3 0.953306 0.0711888 0.624795 0 0 1.00003 0.00159479
841 0.0645646 0.268357 1.25683 0 0 1.00004 0.00158269
8 1.93594 0.824513 1.01505 0 0 1.00003 0.00162165
85 2.02914 1.48996 0.213887 0 0 1.00003 0.00162746
925 2.06578 1.66215 1.75708 0 0 1.00003 0.00166807
6 2.73431 0.746788 0.204735 0 0 1.00003 0.00160584
7 2.80154 0.0594957 1.04141 0 0 1.00003 0.00161014
87 2.86525 1.54792 0.880787 0 0 1.00003 0.00163283
846 2.89934 0.826719 1.74443 0 0 1.00003 0.00163845
12 3.63739 0.93209 0.969264 0 0 1.00003 0.00160275
849 3.70236 0.0883568 1.72051 0 0 1.00003 0.00161243
929 3.81977 1.71529 1.72673 0 0 1.00002 0.00164384
10 4.3113 0.863901 0.323089 0 0 1.00002 0.0015686
850 4.53259 0.951064 1.64917 0 0 1.00002 0.00159164
9 3.67608 0.10483 0.17747 0 0 1.00003 0.00158037
93 5.10854 1.6115 0.390224 0 0 1.00002 0.0015546
16 5.1591 0.570522 1.17085 0 0 1.00002 0.0015395
14 5.81987 0.649043 0.323811 0 0 1.00002 0.00148832
95 6.05385 1.32767 0.958252 0 0 1.00002 0.00149827
854 5.96209 0.463363 1.71956 0 0 1.00002 0.00150836
933 5.21282 1.73088 1.45074 0 0 1.00002 0.00157524
97 6.72886 1.41134 0.222483 0 0 1.00002 0.00144241
20 6.86281 0.401896 0.8825 0 0 1.00002 0.00142043
937 6.84632 1.02494 1.71618 0 0 1.00002 0.00145693
99 7.50292 1.24157 0.964405 0 0 1.00002 0.00138704
101 8.35788 1.40875 0.241326 0 0 1.00001 0.00130733
941 8.24879 1.28977 1.63365 0 0 1.00001 0.00134392
18 7.70895 0.662808 0.151221 0 0 1.00002 0.00134593
24 8.3748 0.416938 1.08442 0 0 1.00001 0.00129789
22 8.95006 0.515893 0.272917 0 0 1.00001 0.00123273
28 9.63113 0.340926 0.906747 0 0 1.00001 0.00117407
103 9.1153 1.32661 1.12221 0 0 1.00001 0.00124937
105 9.71247 1.38844 0.0963969 0 0 1.00001 0.00117807
32 11.242 0.219095 0.647061 0 0 1.00001 0.00101106
107 10.4202 1.06416 0.837534 0 0 1.00001 0.00110737
866 10.5735 0.202284 1.46778 0 0 1.00001 0.0010954
949 11.3231 1.02935 1.43802 0 0 1.00001 0.00103275
946 10.6334 1.70315 1.75189 0 0 1.00001 0.00113295
26 10.3006 0.372014 0.0804873 0 0 1.00001 0.00109954
36 12.8731 0.216729 0.647418 0 0 1.00001 0.000859219
111 12.055 1.08701 0.518902 0 0 1.00001 0.000944042
870 12.143 0.320261 1.31948 0 0 1.00001 0.000940402
953 12.721 1.20833 1.39137 0 0 1.00001 0.000903723
40 14.3443 0.328739 0.782839 0 0 1.00002 0.000745229
115 13.5727 1.12051 0.854085 0 0 1.00001 0.000817147
117 14.02 1.57011 0.164235 0 0 1.00001 0.000785919
874 13.5946 0.364295 1.65189 0 0 1.00001 0.000823592
957 14.351 1.16023 1.4921 0 0 1.00002 0.000774743
119 14.8449 1.56185 0.669506 0 0 1.00002 0.000734899
38 15.0636 0.713677 0.0679869 0 0 1.00002 0.000696813
44 15.6659 0.768293 0.791586 0 0 1.00002 0.000672017
123 16.5041 1.54378 0.684467 0 0 1.00002 0.000655301
878 15.1054 0.466461 1.65055 0 0 1.00002 0.00071912
882 16.4993 0.710302 1.3461 0 0 1.00002 0.000649877
961 15.5899 1.49442 1.39976 0 0 1.00002 0.000706588
48 17.212 0.729187 0.553627 0 0 1.00002 0.000617852
127 17.8806 1.57764 0.755002 0 0 1.00003 0.000632398
886 17.8726 0.74166 1.4241 0 0 1.00003 0.000627423
965 17.1755 1.74532 1.56363 0 0 1.00002 0.000664181
51 19.5078 0.0130322 0.660522 0 0 1.00003 0.000629421
52 18.754 0.722848 0.683975 0 0 1.00003 0.000617406
131 19.5129 1.54253 0.836849 0 0 1.00003 0.000654932
889 18.9902 0.153616 1.53858 0 0 1.00003 0.000633546
890 19.5682 0.959971 1.68109 0 0 1.00003 0.000662684
969 18.625 1.50156 1.49453 0 0 1.00003 0.000649319
55 21.0966 0.345197 1.05813 0 0 1.00004 0.000708973
56 20.2316 0.769451 0.970136 0 0 1.00003 0.000667644
135 21.1064 1.63338 0.946042 0 0 1.00004 0.000733564
54 21.1863 0.757429 0.215293 0 0 1.00004 0.000709329
133 20.331 1.49967 0.196238 0 0 1.00003 0.000678729
57 22.0294 0.262015 0.533134 0 0 1.00004 0.000763746
59 22.8349 0.423662 1.3889 0 0 1.00004 0.000844654
60 22.1361 1.13485 1.31524 0 0 1.00004 0.000798619
137 22.0181 1.58154 0.528035 0 0 1.00004 0.000786599
58 22.9576 1.0542 0.44519 0 0 1.00004 0.000848262
63 24.3175 0.374429 1.42315 0 0 1.00004 0.000982259
61 23.6275 0.350236 0.568006 0 0 1.00004 0.000899224
62 24.5196 1.1664 0.743548 0 0 1.00004 0.000999065
64 23.54 1.22886 1.38297 0 0 1.00004 0.00092204
65 25.0546 0.311699 0.542665 0 0 1.00004 0.0010374
67 26.1317 0.374493 1.15764 0 0 1.00005 0.00115432
68 25.2742 1.11092 1.4557 0 0 1.00004 0.00109001
147 26.0589 1.71396 1.33784 0 0 1.00005 0.00118232
66 26.0137 0.922625 0.422697 0 0 1.00004 0.00113882
70 27.7389 1.26878 0.382088 0 0 1.00004 0.00131338
71 27.7777 0.499151 0.86583 0 0 1.00004 0.00130857
72 26.8995 1.01625 1.24502 0 0 1.00005 0.00124288
69 26.9337 0.238331 0.228385 0 0 1.00005 0.00121794
913 28.565 0.340183 1.3983 0 0 1.00004 0.00138713
76 28.836 1.22231 0.727918 0 0 1.00004 0.00140968
914 29.579 0.952299 1.55885 0 0 1.00004 0.00147976
993 28.7062 1.70891 1.49105 0 0 1.00004 0.00143181
917 30.0295 0.164533 1.44908 0 0 1.00004 0.0014975
75 29.4682 0.351802 0.612703 0 0 1.00004 0.00144082
79 30.9265 0.474682 0.47825 0 0 1.00004 0.0015313
80 30.3022 1.19047 0.769043 0 0 1.00004 0.00151427
918 31.0784 0.968209 1.38807 0 0 1.00004 0.00156541
82 1.33954 2.43828 0.122377 0 0 1.00003 0.00166173
84 0.364962 2.37924 0.808015 0 0 1.00004 0.00164334
163 1.52185 3.23331 0.946321 0 0 1.00003 0.00172152
922 1.37372 2.36674 1.59201 0 0 1.00003 0.00168837
1001 0.622501 3.03572 1.54935 0 0 1.00004 0.00170962
161 0.564671 3.10211 0.130537 0 0 1.00004 0.00168236
88 2.14212 2.42089 0.78869 0 0 1.00003 0.00167375
167 2.88583 3.29364 0.862514 0 0 1.00003 0.00172267
926 2.90111 2.24885 1.54889 0 0 1.00003 0.00168061
86 2.9442 2.39533 0.0553538 0 0 1.00003 0.00165915
1009 3.49429 3.43583 1.66284 0 0 1.00003 0.00174707
92 3.60051 2.57304 0.790198 0 0 1.00003 0.00166275
91 4.21293 1.84899 0.719797 0 0 1.00002 0.00160676
171 4.41353 3.34198 0.760211 0 0 1.00002 0.00168254
930 4.35347 2.66094 1.59418 0 0 1.00002 0.00166609
96 5.10457 2.59002 0.827894 0 0 1.00002 0.00160634
94 5.83011 2.46972 0.139584 0 0 1.00002 0.00154851
175 5.84007 3.2282 0.96823 0 0 1.00002 0.00160641
934 6.03908 2.2253 1.51194 0 0 1.00002 0.0015515
1017 6.69936 3.10119 1.57248 0 0 1.00002 0.0015584
173 5.18836 3.35807 0.0035899 0 0 1.00002 0.00164078
100 6.71903 2.20824 0.788059 0 0 1.00002 0.00148258
177 6.80852 2.96773 0.135257 0 0 1.00002 0.00150974
98 7.59061 2.25408 0.142205 0 0 1.00001 0.00140843
104 8.20985 2.22969 0.948004 0 0 1.00001 0.00136447
179 7.5502 3.1014 0.942805 0 0 1.00001 0.00147235
938 7.44568 2.0884 1.59073 0 0 1.00001 0.00144316
1021 8.31819 3.03863 1.67729 0 0 1.00001 0.00142544
181 8.39418 3.00661 0.0429762 0 0 1.00001 0.00137959
102 9.00637 2.11898 0.257171 0 0 1.00001 0.00127455
108 9.85223 2.05036 1.1224 0 0 1.00001 0.00120498
183 9.03253 3.0098 0.946927 0 0 1.00001 0.00133264
942 9.13154 2.25164 1.73239 0 0 1.00001 0.00130509
185 9.6513 2.94376 0.215067 0 0 1.00001 0.0012563
106 10.346 2.13987 0.215517 0 0 1.00001 0.00114443
112 11.1981 1.85208 0.784193 0 0 1.00001 0.00105536
187 10.6809 2.84197 0.935936 0 0 1.00001 0.00115855
1029 11.4833 2.86639 1.6035 0 0 1.00001 0.00110383
116 12.6777 1.96084 0.605228 0 0 1.00001 0.000916068
191 11.9534 2.67423 0.752419 0 0 1.00001 0.00102023
950 11.9494 1.94288 1.48716 0 0 1.00001 0.00100333
1033 12.856 3.04889 1.71233 0 0 1.00001 0.000988416
195 13.1898 3.05205 0.85451 0 0 1.00001 0.000930796
954 13.3735 2.01061 1.49714 0 0 1.00001 0.000878368
114 13.4047 2.31665 0.0592848 0 0 1.00001 0.000864375
120 14.0032 2.46375 0.93299 0 0 1.00001 0.000834055
1037 14.019 3.41139 1.57262 0 0 1.00001 0.000908169
199 14.6768 3.45531 0.88838 0 0 1.00001 0.000842345
958 14.7619 2.31384 1.45279 0 0 1.00002 0.000787161
118 14.8113 2.52507 0.139829 0 0 1.00002 0.000770465
197 14.1402 3.24425 0.0391727 0 0 1.00001 0.000856818
124 15.659 2.44759 0.700741 0 0 1.00002 0.000724679
203 16.2697 3.20513 0.671963 0 0 1.00002 0.000737474
962 16.2697 2.48143 1.52949 0 0 1.00002 0.000719611
1041 15.3478 3.26984 1.51302 0 0 1.00002 0.000806822
201 15.5368 3.26965 0.0247792 0 0 1.00002 0.000768962
128 17.0241 2.35195 0.684257 0 0 1.00002 0.000670968
207 17.9072 2.91982 0.701186 0 0 1.00003 0.000687331
966 17.9809 2.42927 1.58069 0 0 1.00003 0.000684091
1045 17.0541 3.11298 1.49825 0 0 1.00002 0.000728478
132 18.8597 2.34586 1.00783 0 0 1.00003 0.000671539
211 19.6826 3.21522 1.26685 0 0 1.00003 0.000743305
209 18.8532 2.98134 0.192767 0 0 1.00003 0.000691569
130 19.566 2.32115 0.103354 0 0 1.00003 0.000677487
973 20.3138 1.76771 1.7135 0 0 1.00003 0.000714833
134 21.1654 2.39315 0.451773 0 0 1.00004 0.000757884
136 20.1846 2.44375 1.10262 0 0 1.00003 0.000718966
215 21.3272 3.2627 1.37213 0 0 1.00004 0.000832113
213 20.4142 2.96987 0.329606 0 0 1.00003 0.000743749
139 22.9223 2.03752 1.49244 0 0 1.00004 0.000893982
138 23.0212 2.57041 0.723798 0 0 1.00004 0.000909459
140 22.1215 2.46795 1.22292 0 0 1.00004 0.000842491
217 22.0159 3.16525 0.592477 0 0 1.00004 0.000858359
16179 22.7313 3.35889 0.0681122 0 0 1.00004 0.000921519
141 23.809 1.7848 0.614893 0 0 1.00004 0.000947924
143 24.5165 1.95961 1.58277 0 0 1.00004 0.00104541
142 24.4316 2.6471 0.762861 0 0 1.00004 0.00104691
144 23.7619 2.86001 1.51312 0 0 1.00004 0.00101309
223 24.5764 3.46573 1.53198 0 0 1.00005 0.00112995
16108 25.0621 2.80311 0.0139056 0 0 1.00005 0.00111235
149 26.6916 1.77135 0.505507 0 0 1.00005 0.00123137
145 25.2379 1.83049 0.506788 0 0 1.00004 0.00108797
146 25.9218 2.57684 0.694558 0 0 1.00005 0.00119176
148 25.2746 2.52565 1.50034 0 0 1.00005 0.00114257
227 25.8583 3.45311 1.49203 0 0 1.00005 0.00125915
152 26.6837 2.53297 1.5082 0 0 1.00005 0.00128668
229 26.3211 3.46089 0.586092 0 0 1.00005 0.00128394
151 27.6696 1.96311 1.21858 0 0 1.00005 0.00134611
150 27.2495 2.66127 0.630502 0 0 1.00005 0.00132709
231 27.3806 3.31612 1.3964 0 0 1.00005 0.00139833
233 28.1675 3.19291 0.33005 0 0 1.00005 0.00143772
153 28.4341 2.07097 0.340487 0 0 1.00004 0.00140218
156 28.4413 2.72838 1.18776 0 0 1.00004 0.00145046
155 29.6448 2.01817 0.878389 0 0 1.00004 0.00150089
154 29.3949 2.65386 0.283691 0 0 1.00004 0.00150581
235 29.4663 3.23346 1.17286 0 0 1.00004 0.00156221
997 30.1771 1.79501 1.69601 0 0 1.00004 0.00155066
159 31.1321 1.96969 0.920347 0 0 1.00004 0.00158904
160 30.3998 2.69485 0.995809 0 0 1.00004 0.00158601
239 31.2602 3.32583 0.972486 0 0 1.00004 0.00166959
998 31.2157 2.68111 1.72206 0 0 1.00004 0.00165214
237 30.3425 3.22611 0.148882 0 0 1.00004 0.00160266
157 30.6181 1.896 0.0341552 0 0 1.00004 0.00154825
158 31.3669 2.64893 0.0762269 0 0 1.00004 0.001622
164 0.53923 3.77685 0.91987 0 0 1.00004 0.00173815
241 0.395828 4.59678 0.471557 0 0 1.00004 0.00179286
243 1.38807 4.66866 0.989719 0 0 1.00003 0.00183194
244 0.360833 5.25863 1.27278 0 0 1.00004 0.00187262
162 1.28748 3.85898 0.0723468 0 0 1.00003 0.00174997
168 2.0987 4.04982 0.853374 0 0 1.00003 0.00178257
247 2.79203 4.87557 1.13416 0 0 1.00003 0.00185899
166 2.89152 4.15998 0.203399 0 0 1.00003 0.00177769
245 2.1537 4.97051 0.284714 0 0 1.00003 0.00185302
249 3.65386 4.88335 0.166008 0 0 1.00002 0.00182491
172 3.72104 4.10073 0.895518 0 0 1.00002 0.00176579
251 4.29376 4.91104 1.16179 0 0 1.00002 0.00182716
170 4.47712 4.20765 0.147654 0 0 1.00002 0.00173868
176 5.12607 4.04011 1.18559 0 0 1.00002 0.00171435
253 5.22766 4.78047 0.339369 0 0 1.00002 0.0017555
174 5.95868 3.97632 0.195045 0 0 1.00002 0.00164206
180 6.6776 3.81168 0.792282 0 0 1.00002 0.00158826
255 5.9003 4.7722 1.04744 0 0 1.00002 0.00173039
1097 6.85251 4.56767 1.67555 0 0 1.00001 0.00167087
260 6.86549 5.19121 0.895318 0 0 1.00001 0.00170057
184 8.33674 3.93383 0.719073 0 0 1.00001 0.00145961
259 7.5702 4.51221 0.562898 0 0 1.00001 0.00157234
1018 7.56282 3.91511 1.52601 0 0 1.00001 0.00155149
1101 8.35099 4.66667 1.51509 0 0 1.00001 0.00154755
188 9.982 3.62651 0.903849 0 0 1.00001 0.00128138
263 9.19665 4.62206 0.839601 0 0 1.00001 0.00144081
265 9.95462 4.56444 0.13219 0 0 1.00001 0.00134886
1022 9.186 3.81425 1.52846 0 0 1.00001 0.00139542
1105 9.97198 4.40609 1.69062 0 0 1.00001 0.00137673
182 9.09877 3.91452 0.0646387 0 0 1.00001 0.00137898
192 11.4527 3.6867 0.800764 0 0 1.00001 0.00113579
267 10.6657 4.71544 0.926625 0 0 1.00001 0.00130473
269 11.44 4.7464 0.232587 0 0 1.00001 0.00121639
1026 10.7724 3.61696 1.61902 0 0 1.00001 0.00122554
1109 11.4211 4.43366 1.7353 0 0 1.00001 0.00123434
186 10.6539 3.89235 0.17893 0 0 1.00001 0.00122209
196 12.5275 3.62331 0.827717 0 0 1.00001 0.00102861
271 12.2229 4.59804 1.0185 0 0 1.00001 0.00114155
1113 12.7784 5.03949 1.71785 0 0 1.00001 0.00115956
275 13.2388 4.72819 0.813916 0 0 1.00001 0.00105244
273 12.6597 4.66184 0.0635082 0 0 1.00001 0.00108933
200 13.9855 4.15496 0.706936 0 0 1.00001 0.000939728
1034 13.4921 4.2557 1.61467 0 0 1.00001 0.00101865
1117 14.2023 5.14981 1.54358 0 0 1.00001 0.00103685
279 14.9286 5.03697 0.821272 0 0 1.00001 0.000947828
1038 14.9522 4.43498 1.60835 0 0 1.00001 0.00092183
277 14.1358 4.93266 0.0690252 0 0 1.00001 0.000984893
198 14.9383 4.21094 0.102808 0 0 1.00001 0.000868394
204 15.6385 4.07856 0.929841 0 0 1.00002 0.000829422
281 15.8488 4.78489 0.189311 0 0 1.00002 0.000862664
283 16.5641 4.58465 0.904012 0 0 1.00002 0.000827788
1042 16.2903 3.96584 1.69507 0 0 1.00002 0.000817244
1121 15.7941 5.06271 1.6528 0 0 1.00002 0.000929835
208 17.235 3.82829 0.811402 0 0 1.00002 0.000751832
287 18.0571 4.47328 1.09369 0 0 1.00003 0.000796891
1046 17.9214 3.62819 1.65191 0 0 1.00002 0.000754955
285 17.4198 4.56978 0.0183196 0 0 1.00002 0.000793458
206 18.1035 3.83982 0.0628162 0 0 1.00003 0.000735899
212 18.8485 3.6882 0.947816 0 0 1.00003 0.000743339
289 18.8026 4.58718 0.359499 0 0 1.00003 0.000796484
291 19.678 4.64192 1.07887 0 0 1.00003 0.00083625
292 18.7684 5.25103 1.19189 0 0 1.00003 0.000868438
210 19.5813 3.7401 0.229419 0 0 1.00003 0.000754185
216 20.4377 3.78736 1.22083 0 0 1.00003 0.000809198
295 20.9004 4.67326 1.37361 0 0 1.00004 0.000905985
297 21.6179 4.90106 0.79365 0 0 1.00004 0.000954409
214 21.0998 3.89419 0.506299 0 0 1.00004 0.000838305
293 20.1401 4.74803 0.344268 0 0 1.00003 0.000848811
219 22.8801 3.58274 1.39652 0 0 1.00004 0.00097298
220 21.9771 4.08579 1.29086 0 0 1.00004 0.000930728
299 22.5355 5.11225 1.25249 0 0 1.00004 0.00105673
218 22.6717 4.29558 0.50745 0 0 1.00004 0.000984892
221 23.6504 3.58994 0.767358 0 0 1.00004 0.0010272
222 24.4397 4.26999 0.614788 0 0 1.00005 0.00114993
224 23.5511 4.48955 1.31231 0 0 1.00004 0.00109897
305 24.9867 5.18896 0.55395 0 0 1.00005 0.00128273
301 23.639 5.00621 0.521211 0 0 1.00005 0.00112955
303 24.4817 5.2245 1.40479 0 0 1.00005 0.00125801
228 25.1423 4.43697 1.58881 0 0 1.00005 0.00126461
225 25.1822 3.62413 0.782727 0 0 1.00005 0.00118218
307 25.852 5.07704 1.32093 0 0 1.00005 0.00138249
232 26.5247 4.23742 1.35074 0 0 1.00005 0.0013805
309 26.6786 4.91895 0.62967 0 0 1.00005 0.00143334
226 25.6713 4.34916 0.387211 0 0 1.00005 0.00127839
311 27.5283 4.81827 1.38094 0 0 1.00005 0.0015286
236 28.1578 3.93339 1.09153 0 0 1.00005 0.00150212
230 27.2412 3.99466 0.568754 0 0 1.00005 0.00141116
313 28.4896 4.69522 0.693847 0 0 1.00005 0.00158454
234 29.1424 3.7446 0.472666 0 0 1.00004 0.0015576
315 29.3118 4.48496 1.30936 0 0 1.00005 0.00164943
314 29.6295 5.27492 0.803313 0 0 1.00004 0.00172947
240 30.2269 4.03173 1.02107 0 0 1.00004 0.00166656
238 31.2691 3.97003 0.358613 0 0 1.00004 0.00170722
317 30.4504 4.66476 0.472652 0 0 1.00004 0.00172276
319 31.232 4.58931 1.38667 0 0 1.00004 0.00178097
242 1.18418 5.52603 0.461208 0 0 1.00003 0.00189828
323 1.0879 6.20425 1.27657 0 0 1.00004 0.001988
324 0.549703 6.92064 1.49621 0 0 1.00004 0.00206278
322 1.27294 6.93831 0.568559 0 0 1.00003 0.00205045
321 0.261547 5.99083 0.448328 0 0 1.00004 0.0019204
248 1.81292 5.51642 1.37788 0 0 1.00003 0.00193234
328 2.00643 7.03538 1.24938 0 0 1.00003 0.00209016
325 2.16637 6.21108 0.512412 0 0 1.00003 0.00197787
327 2.55729 6.17756 1.41981 0 0 1.00003 0.00200152
246 2.94829 5.62274 0.276537 0 0 1.00003 0.00191016
252 3.384 5.65108 1.30526 0 0 1.00003 0.00193194
332 3.53877 6.99769 1.15476 0 0 1.00003 0.00206913
329 3.66832 6.30322 0.496682 0 0 1.00002 0.00196864
250 4.43847 5.49859 0.331175 0 0 1.00002 0.00185929
331 4.38925 6.1311 1.24641 0 0 1.00002 0.00195061
336 5.03938 6.85853 1.18122 0 0 1.00002 0.00200089
330 4.27674 7.05293 0.232551 0 0 1.00002 0.00203104
333 5.07702 6.27999 0.335908 0 0 1.00002 0.00191298
256 5.17492 5.47694 1.32565 0 0 1.00002 0.00185003
254 5.98922 5.46045 0.30425 0 0 1.00002 0.00177562
335 5.91961 6.28565 0.980158 0 0 1.00002 0.00188356
1177 6.6819 6.04821 1.63213 0 0 1.00001 0.00183402
340 6.66618 6.9338 1.01973 0 0 1.00001 0.0019072
337 6.60162 6.11422 0.154788 0 0 1.00001 0.00180093
264 8.36565 5.37657 0.71474 0 0 1.00001 0.00158934
339 7.51499 6.21586 0.775171 0 0 1.00001 0.00175409
1098 7.57887 5.47467 1.52761 0 0 1.00001 0.00169704
344 8.20412 6.92703 0.747703 0 0 1.00001 0.00177252
1178 7.49738 6.92516 1.639 0 0 1.00001 0.00187554
258 7.50482 5.41539 0.0447536 0 0 1.00001 0.00165843
1181 8.40632 6.18247 1.53358 0 0 1.00001 0.00170371
268 9.87878 5.38651 0.813825 0 0 1.00001 0.00144613
343 9.03371 6.25689 0.757204 0 0 1.00001 0.0016216
1102 9.18714 5.39424 1.62842 0 0 1.00001 0.00154951
1185 9.86716 6.25684 1.51105 0 0 1.00001 0.00156989
1182 9.24935 7.03223 1.50491 0 0 1.00001 0.00172212
345 9.88259 6.30403 0.100316 0 0 1.00001 0.00153173
262 9.13291 5.53335 0.0212082 0 0 1.00001 0.00152386
272 11.4555 5.33411 1.0143 0 0 1.00001 0.00128826
347 10.6855 6.09065 0.983203 0 0 1.00001 0.00144308
349 11.3934 6.43374 0.080815 0 0 1.00001 0.00139138
346 10.632 7.01826 0.155109 0 0 1.00001 0.00153425
1186 10.589 7.0049 1.53877 0 0 1 0.00158763
270 12.0469 5.67911 0.189187 0 0 1.00001 0.0012449
276 12.713 5.86508 0.880781 0 0 1.00001 0.00121412
351 11.8414 6.27456 1.07812 0 0 1.00001 0.00134872
1114 13.3541 5.9162 1.59069 0 0 1.00001 0.00118863
274 13.3357 5.58356 0.0451888 0 0 1.00001 0.00111202
355 13.3849 6.62732 0.827185 0 0 1.00001 0.00122879
280 14.0695 5.75493 0.787433 0 0 1.00001 0.00107843
1197 14.3396 6.68983 1.43533 0 0 1.00001 0.00118174
357 14.142 6.42433 0.0418945 0 0 1.00001 0.00112813
278 15.0105 5.66349 0.0389909 0 0 1.00001 0.000988251
359 15.0447 6.47846 0.817087 0 0 1.00001 0.00108017
284 15.8143 5.75152 0.961304 0 0 1.00002 0.000965215
363 16.4784 6.45992 1.14944 0 0 1.00002 0.00101175
1118 15.1055 5.89991 1.71567 0 0 1.00001 0.00105642
282 16.5957 5.4233 0.277182 0 0 1.00002 0.000886565
361 15.6671 6.3588 0.0441137 0 0 1.00002 0.00101539
286 17.8053 5.29332 0.540039 0 0 1.00002 0.000852771
288 17.0878 5.42222 1.24875 0 0 1.00002 0.000895186
365 17.0492 6.27423 0.411891 0 0 1.00002 0.000953366
367 17.6515 6.23543 1.37955 0 0 1.00002 0.000967957
372 18.2727 7.03192 1.13169 0 0 1.00003 0.00103471
369 18.3635 6.20846 0.609476 0 0 1.00003 0.000935666
290 19.4293 5.72125 0.614022 0 0 1.00003 0.000908443
371 19.3318 6.51939 1.33126 0 0 1.00003 0.00100503
373 20.0133 6.70286 0.601567 0 0 1.00003 0.00102189
294 20.7774 5.72365 0.640907 0 0 1.00004 0.000967966
296 20.2006 5.56464 1.37672 0 0 1.00003 0.000946056
375 20.8145 6.55451 1.28049 0 0 1.00004 0.00107078
377 21.7136 6.60088 0.654441 0 0 1.00004 0.00111367
300 21.7101 5.81479 1.35486 0 0 1.00004 0.00106049
16260 21.7395 5.67589 0.0527673 0 0 1.00004 0.00102057
298 22.7479 5.76786 0.652461 0 0 1.00004 0.00111806
379 22.7191 6.61981 1.17779 0 0 1.00005 0.0012167
381 23.456 6.70089 0.262738 0 0 1.00005 0.00126729
304 23.5861 5.81727 1.26452 0 0 1.00005 0.00121938
383 24.4609 6.49222 1.13556 0 0 1.00005 0.00137164
302 24.2639 5.93328 0.412817 0 0 1.00005 0.00127399
306 25.8538 5.79632 0.679237 0 0 1.00005 0.00143159
308 25.2679 5.96553 1.63365 0 0 1.00005 0.00142263
385 25.3231 6.661 0.48057 0 0 1.00005 0.00145834
387 26.0232 6.52716 1.3749 0 0 1.00005 0.00154951
312 26.8885 5.78557 1.44309 0 0 1.00005 0.00156247
310 27.7108 5.49388 0.703982 0 0 1.00005 0.00158886
389 26.9535 6.30442 0.630257 0 0 1.00005 0.00159411
391 27.9309 6.40776 1.34139 0 0 1.00005 0.00172249
390 27.9515 6.94883 0.513804 0 0 1.00005 0.00175552
392 27.0125 7.04751 1.30819 0 0 1.00005 0.00170393
316 28.6005 5.47636 1.45375 0 0 1.00005 0.00169164
395 29.6989 6.15144 1.30332 0 0 1.00005 0.00183924
394 29.8536 6.88242 0.501224 0 0 1.00005 0.00190404
393 28.7149 6.16294 0.634118 0 0 1.00005 0.00174356
16355 29.6286 6.10387 0.0736602 0 0 1.00005 0.00180037
16276 28.7102 5.35234 0.0484407 0 0 1.00005 0.00165656
318 31.2306 5.3426 0.589072 0 0 1.00004 0.00182758
320 30.4812 5.42631 1.44314 0 0 1.00004 0.00182088
397 30.6624 6.15853 0.636525 0 0 1.00004 0.00188023
399 31.4975 6.13278 1.37406 0 0 1.00004 0.00194226
398 31.5006 6.93013 0.603795 0 0 1.00004 0.00200387
401 0.574596 7.63113 0.652501 0 0 1.00004 0.00211156
402 1.17498 8.46992 0.606326 0 0 1.00004 0.00221923
403 1.42909 7.85308 1.49351 0 0 1.00003 0.00218971
404 0.686376 8.54514 1.46085 0 0 1.00004 0.00225049
405 1.91085 7.77184 0.381331 0 0 1.00003 0.00214633
408 2.06613 8.63064 1.46797 0 0 1.00003 0.00228382
326 2.77922 7.15949 0.473731 0 0 1.00003 0.00207911
406 2.53325 8.63658 0.402485 0 0 1.00003 0.00224504
407 2.71333 7.82967 1.29043 0 0 1.00003 0.00218157
412 3.3488 8.54769 0.954844 0 0 1.00003 0.00224299
409 3.54343 7.79255 0.333959 0 0 1.00003 0.00213509
410 4.12801 8.4963 0.0805175 0 0 1.00002 0.00219864
411 4.27732 7.68825 1.24844 0 0 1.00002 0.00212971
416 4.99501 8.31653 0.953935 0 0 1.00002 0.00216402
413 4.95718 7.69235 0.24372 0 0 1.00002 0.00207408
334 5.79683 7.09978 0.156518 0 0 1.00002 0.00196415
414 6.14067 8.4095 0.18167 0 0 1.00001 0.00209428
415 5.75417 7.63592 1.04455 0 0 1.00002 0.00204848
420 6.65479 8.28176 1.07391 0 0 1.00001 0.00206809
417 6.72908 7.61154 0.17323 0 0 1.00001 0.00196159
419 7.51465 7.83338 0.770975 0 0 1.00001 0.00193993
1258 7.51624 8.24556 1.74391 0 0 1.00001 0.00204055
1261 8.26169 7.56402 1.60301 0 0 1.00001 0.00188521
421 8.19946 7.67901 0.0284943 0 0 1.00001 0.00184986
424 8.4821 8.39451 0.9012 0 0 1.00001 0.00192947
348 9.97346 7.29238 0.751436 0 0 1.00001 0.00164787
423 9.08613 7.69177 0.685118 0 0 1.00001 0.00177951
428 9.89565 8.69513 0.722737 0 0 1 0.00182191
1262 9.27785 8.7771 1.49816 0 0 1 0.0019367
1265 9.81703 7.96522 1.64565 0 0 1 0.00179214
352 11.4011 7.21235 0.833063 0 0 1 0.00149416
427 10.7027 8.01577 0.87171 0 0 1 0.00166331
1266 10.7298 8.79172 1.48148 0 0 1 0.00179062
1269 11.5057 7.88887 1.64817 0 0 1 0.00160843
429 11.3346 8.1908 0.0482567 0 0 1 0.00159726
356 12.7624 7.34896 0.586434 0 0 1.00001 0.00136285
431 12.26 8.29394 0.616711 0 0 1 0.00152559
1190 12.1511 7.22602 1.4196 0 0 1 0.00144642
1270 12.1827 8.75311 1.54287 0 0 1 0.00163789
1273 12.922 8.06422 1.51855 0 0 1 0.0014761
350 11.9741 7.45126 0.00100368 0 0 1.00001 0.0014445
360 14.3455 7.39333 0.609505 0 0 1.00001 0.00122495
435 13.6585 8.1469 0.486438 0 0 1.00001 0.00136633
1194 13.5083 7.39059 1.3798 0 0 1.00001 0.00133005
1277 14.287 8.21831 1.38506 0 0 1.00001 0.00135878
439 15.0961 8.32263 0.879671 0 0 1.00001 0.00128128
362 16.4288 7.19106 0.284498 0 0 1.00002 0.00106566
364 15.635 7.32884 0.925024 0 0 1.00001 0.00113605
443 16.2734 8.17058 1.11886 0 0 1.00002 0.00120439
1198 15.1554 7.55236 1.65719 0 0 1.00001 0.001234
441 15.8697 8.325 0.156982 0 0 1.00001 0.00121352
368 16.9761 7.35759 1.11898 0 0 1.00002 0.00108772
445 17.0663 8.10384 0.336009 0 0 1.00002 0.00114035
447 17.7171 8.01169 1.02897 0 0 1.00002 0.00113741
366 17.813 7.1552 0.219144 0 0 1.00002 0.00102505
370 19.0193 7.30225 0.63232 0 0 1.00003 0.00105223
451 18.9494 8.11806 1.17 0 0 1.00003 0.00115814
376 19.9033 7.60658 1.30134 0 0 1.00003 0.00113625
453 19.8352 8.09155 0.355828 0 0 1.00003 0.00115152
449 18.4652 8.16405 0.177662 0 0 1.00003 0.00112668
374 20.7433 7.4034 0.655318 0 0 1.00004 0.00113041
455 20.7073 8.37662 1.01138 0 0 1.00004 0.00124312
380 21.6147 7.60227 1.11926 0 0 1.00004 0.00122551
457 21.6911 8.27478 0.254317 0 0 1.00004 0.00127618
459 22.6982 8.10351 0.987296 0 0 1.00005 0.00136374
1218 22.5168 7.4222 1.71183 0 0 1.00005 0.00131288
378 22.4258 7.41157 0.375864 0 0 1.00004 0.00124738
458 22.877 8.80851 0.19629 0 0 1.00005 0.00143326
384 23.5694 7.24725 1.02979 0 0 1.00005 0.00135526
461 23.6195 8.00105 0.368334 0 0 1.00005 0.00142294
463 24.5087 8.01537 0.967076 0 0 1.00005 0.00153262
1302 24.4317 8.6438 1.64234 0 0 1.00005 0.0016368
382 24.4818 7.24612 0.264837 0 0 1.00005 0.00142706
462 24.4839 8.7406 0.200832 0 0 1.00005 0.00158919
1301 23.5064 7.9727 1.75743 0 0 1.00005 0.00147156
388 25.2973 7.31531 1.21756 0 0 1.00005 0.00155113
467 26.2391 7.93394 0.964255 0 0 1.00005 0.00170751
1306 26.2545 8.54943 1.70638 0 0 1.00005 0.00182531
386 26.2876 7.19938 0.361522 0 0 1.00005 0.00161379
465 25.4158 8.04434 0.302161 0 0 1.00005 0.00161371
466 26.4977 8.51324 0.0884773 0 0 1.00005 0.00177894
468 25.4911 8.7766 0.975388 0 0 1.00005 0.00172478
470 28.2358 8.44484 0.407691 0 0 1.00005 0.00194589
471 28.0638 7.77083 1.18508 0 0 1.00005 0.00188021
472 27.2351 8.58817 0.998782 0 0 1.00005 0.00188669
469 27.2329 7.71626 0.422008 0 0 1.00005 0.00176783
1310 28.0698 8.63066 1.7528 0 0 1.00005 0.00201571
396 28.9151 7.05638 1.20748 0 0 1.00005 0.00187377
474 29.8997 8.32951 0.53324 0 0 1.00005 0.0020684
475 29.7898 7.63769 1.26033 0 0 1.00005 0.00200587
476 29.07 8.50347 1.16283 0 0 1.00005 0.00204767
473 28.9747 7.67624 0.407318 0 0 1.00005 0.00192375
400 30.6199 7.05816 1.16857 0 0 1.00004 0.00199037
479 31.5617 7.79579 1.28897 0 0 1.00004 0.00212566
480 30.7515 8.45778 1.1746 0 0 1.00004 0.00215603
477 30.9421 7.84649 0.379706 0 0 1.00004 0.00207348
478 31.7554 8.5955 0.388941 0 0 1.00004 0.00219475
482 1.48716 10.281 0.267153 0 0 1.00003 0.00241603
483 1.37255 9.36102 1.19835 0 0 1.00004 0.00234586
484 0.617758 9.92562 0.901419 0 0 1.00004 0.00237618
481 0.713398 9.33143 0.124824 0 0 1.00004 0.00229825
1322 1.18725 10.1236 1.7505 0 0 1.00004 0.00246304
485 2.09887 9.46452 0.445144 0 0 1.00003 0.00233943
488 2.19286 10.364 0.975938 0 0 1.00003 0.0024524
486 2.94153 10.2933 0.0771555 0 0 1.00003 0.00241977
487 2.72089 9.46092 1.2246 0 0 1.00003 0.00236616
1326 3.13071 10.2534 1.68538 0 0 1.00003 0.00248018
489 3.40981 9.38582 0.0949153 0 0 1.00003 0.00231681
1329 3.55935 9.27258 1.68833 0 0 1.00002 0.00236234
492 3.72391 10.0704 0.756147 0 0 1.00002 0.0023987
491 4.25621 9.1471 0.872827 0 0 1.00002 0.00228615
493 4.88229 9.23813 0.00587259 0 0 1.00002 0.00225521
496 4.92601 10.0261 0.581762 0 0 1.00002 0.00235148
1330 4.46553 10.007 1.63085 0 0 1.00002 0.00241934
1333 4.99216 9.11194 1.67286 0 0 1.00002 0.00229968
495 5.62261 9.00998 0.675635 0 0 1.00002 0.00220542
500 6.52344 9.85806 0.53412 0 0 1.00001 0.00224451
1334 5.63937 9.88863 1.20871 0 0 1.00002 0.00232788
1337 6.43675 9.12826 1.29549 0 0 1.00001 0.00219864
1417 6.54462 10.5785 1.23074 0 0 1.00001 0.00235333
499 7.41175 8.94978 0.738251 0 0 1.00001 0.00208121
501 8.31861 9.12225 0.0896017 0 0 1.00001 0.00201083
504 8.2054 10.0017 0.598886 0 0 1.00001 0.00213231
1338 7.43538 9.81074 1.2353 0 0 1.00001 0.00220485
1341 8.27732 9.24137 1.44388 0 0 1.00001 0.00208237
503 9.14468 9.52654 0.75426 0 0 1 0.00199854
508 9.84002 10.4049 0.692325 0 0 1 0.00202813
1342 8.98149 10.3278 1.4623 0 0 1 0.00215003
1345 10.0101 9.66044 1.46827 0 0 1 0.00197082
432 11.4837 8.91896 0.758635 0 0 1 0.0016848
426 10.5507 8.95514 0.0397772 0 0 1 0.00177091
507 10.6248 9.75394 0.685925 0 0 1 0.00187349
1346 10.8017 10.2535 1.6957 0 0 0.999999 0.00198045
1349 11.4525 9.69953 1.37031 0 0 1 0.00181868
436 13.0648 9.01346 0.809614 0 0 1 0.00153528
511 12.2116 9.8737 0.714799 0 0 1 0.00171982
516 12.9194 10.5348 0.990071 0 0 1 0.00173241
1353 12.6567 9.68341 1.66434 0 0 1 0.00171544
1274 13.7462 8.90663 1.60791 0 0 1 0.00150768
440 14.5052 9.23008 0.780291 0 0 1.00001 0.00142667
515 13.6048 9.74445 0.865032 0 0 1 0.00156977
1354 13.5905 10.4731 1.75559 0 0 1 0.00172287
517 14.3276 10.1842 0.227267 0 0 1.00001 0.00152965
444 15.9237 9.17381 1.14759 0 0 1.00001 0.00133877
519 15.1761 9.89343 1.0335 0 0 1.00001 0.00146052
521 15.7249 10.1963 0.254844 0 0 1.00001 0.00142436
523 16.537 9.9671 0.972027 0 0 1.00001 0.00138269
442 16.523 9.0458 0.266655 0 0 1.00002 0.00126003
438 15.3204 9.22923 0.11175 0 0 1.00001 0.00134625
452 18.3255 8.87918 0.939908 0 0 1.00003 0.00122343
448 17.1149 9.06373 1.1306 0 0 1.00002 0.00127225
525 17.1864 10.0223 0.206521 0 0 1.00002 0.00133705
527 17.8102 9.85503 1.06982 0 0 1.00002 0.00133807
446 17.7846 9.09594 0.120743 0 0 1.00002 0.00122704
456 19.8749 8.91628 1.04406 0 0 1.00003 0.00126392
529 18.6355 9.71213 0.300575 0 0 1.00003 0.00129098
531 19.5591 9.86335 0.845487 0 0 1.00003 0.00134291
532 18.7744 10.4344 1.13644 0 0 1.00003 0.00140121
1369 18.6992 9.56298 1.6961 0 0 1.00003 0.00135205
450 19.2764 8.92919 0.210022 0 0 1.00003 0.0012189
533 20.057 9.7457 0.0701379 0 0 1.00003 0.00132926
535 21.0215 9.75976 0.742347 0 0 1.00004 0.00139919
1373 20.3209 9.62066 1.64213 0 0 1.00004 0.00140256
454 20.8603 9.02526 0.199554 0 0 1.00004 0.00129804
460 21.7249 8.97455 0.956125 0 0 1.00004 0.00137465
1374 21.1913 10.0573 1.74427 0 0 1.00004 0.00151023
1298 22.5241 8.82031 1.55303 0 0 1.00005 0.00145998
539 22.9727 9.63026 0.786451 0 0 1.00005 0.00154699
540 22.2373 10.4649 0.839227 0 0 1.00005 0.00156739
1377 22.0497 9.72971 1.50253 0 0 1.00005 0.00151784
1378 23.2033 10.4508 1.4062 0 0 1.00005 0.00169505
537 22.0844 9.74967 0.210442 0 0 1.00005 0.00146276
464 23.5868 8.89369 0.945526 0 0 1.00005 0.00153337
543 24.7104 9.50027 0.745416 0 0 1.00005 0.00171232
1381 23.8723 9.54393 1.52127 0 0 1.00005 0.00167501
1382 24.6038 10.2777 1.41875 0 0 1.00006 0.00182335
544 23.795 10.4813 0.609235 0 0 1.00005 0.00171151
542 24.654 10.2665 0.0996305 0 0 1.00005 0.001769