ITEM: TIMESTEP
44000
ITEM: NUMBER OF ATOMS
32000
ITEM: BOX BOUNDS pp pp pp
0.0000000000000000e+00 3.1748021039364001e+01
0.0000000000000000e+00 3.1748021039364001e+01
0.0000000000000000e+00 3.1748021039364001e+01
ITEM: ATOMS id x y z c_phase c_nbond c_rho vx
4 0.702467 1.0911 0.481368 0 0 1.00005 0.00280046
83 1.56719 1.664 0.792839 0 0 1.00005 0.00285513
842 1.32448 0.78692 1.40297 0 0 1.00005 0.00283842
921 0.610263 1.59184 1.39217 0 0 1.00006 0.00282894
3 1.32365 0.0767471 0.633199 0 0 1.00005 0.00281481
841 0.432289 0.27058 1.25877 0 0 1.00005 0.0027903
8 2.31335 0.840414 1.01339 0 0 1.00005 0.00285834
85 2.40692 1.50466 0.200725 0 0 1.00005 0.00286593
925 2.45803 1.65681 1.74669 0 0 1.00005 0.00290449
6 3.10394 0.737612 0.201403 0 0 1.00005 0.00285908
7 3.16586 0.0644574 1.04092 0 0 1.00005 0.0028644
87 3.23769 1.5516 0.872599 0 0 1.00005 0.00288841
846 3.28344 0.835987 1.73784 0 0 1.00005 0.0028939
5 2.31467 0.00304801 0.162719 0 0 1.00005 0.00283916
12 4.00585 0.919636 0.975877 0 0 1.00005 0.00287705
849 4.06682 0.078776 1.73083 0 0 1.00005 0.0028882
929 4.19743 1.71696 1.72284 0 0 1.00005 0.00292096
10 4.68711 0.863242 0.317069 0 0 1.00005 0.00286038
850 4.89023 0.947759 1.65966 0 0 1.00005 0.00288934
9 4.0353 0.0977221 0.18561 0 0 1.00005 0.0028563
93 5.48146 1.61243 0.392966 0 0 1.00005 0.00286796
16 5.5376 0.573044 1.15442 0 0 1.00004 0.00285395
14 6.18569 0.650464 0.315556 0 0 1.00004 0.00282343
95 6.41347 1.33779 0.977939 0 0 1.00004 0.00283974
854 6.33307 0.465397 1.73325 0 0 1.00004 0.00284636
933 5.57101 1.72152 1.4605 0 0 1.00005 0.00289142
97 7.07844 1.42641 0.223367 0 0 1.00004 0.00280417
20 7.21011 0.413256 0.895284 0 0 1.00004 0.00278679
937 7.20215 1.03736 1.7294 0 0 1.00004 0.00282108
99 7.84627 1.25741 0.965196 0 0 1.00004 0.00277201
18 8.04317 0.671603 0.164365 0 0 1.00004 0.00273795
941 8.59252 1.2969 1.65529 0 0 1.00004 0.00275097
101 8.68887 1.41915 0.241542 0 0 1.00004 0.00271787
24 8.70008 0.424783 1.08312 0 0 1.00004 0.00270963
22 9.26789 0.518106 0.260119 0 0 1.00004 0.00266096
28 9.94563 0.336994 0.927217 0 0 1.00004 0.00262004
103 9.43166 1.33711 1.11398 0 0 1.00004 0.0026808
105 10.0185 1.38395 0.10754 0 0 1.00004 0.00262616
32 11.5221 0.221435 0.663326 0 0 1.00004 0.00249544
107 10.7243 1.07888 0.849041 0 0 1.00004 0.00257305
866 10.8693 0.212619 1.48685 0 0 1.00004 0.00256497
949 11.6233 1.03207 1.45082 0 0 1.00004 0.00251659
946 10.9371 1.72544 1.758 0 0 1.00004 0.00260254
26 10.6042 0.372945 0.0818937 0 0 1.00004 0.00256256
36 13.1437 0.225811 0.657342 0 0 1.00004 0.00236642
111 12.3218 1.09723 0.534227 0 0 1.00004 0.00244272
870 12.4181 0.321881 1.33917 0 0 1.00004 0.00243962
953 12.9942 1.20987 1.40851 0 0 1.00004 0.00240986
40 14.5957 0.346683 0.806895 0 0 1.00004 0.00225997
115 13.8257 1.12558 0.860238 0 0 1.00004 0.00233042
117 14.2814 1.57531 0.152698 0 0 1.00004 0.00229958
874 13.861 0.369579 1.66484 0 0 1.00004 0.00233583
957 14.6045 1.17705 1.50931 0 0 1.00004 0.00228958
119 15.0962 1.56909 0.67611 0 0 1.00004 0.00224765
38 15.297 0.715007 0.0666989 0 0 1.00004 0.00220915
44 15.9079 0.762667 0.794105 0 0 1.00004 0.00217887
878 15.3504 0.469893 1.657 0 0 1.00004 0.00223144
961 15.8248 1.50818 1.41111 0 0 1.00004 0.0022159
123 16.7303 1.54619 0.689609 0 0 1.00004 0.00215223
882 16.7277 0.709495 1.35449 0 0 1.00004 0.0021466
48 17.4467 0.727552 0.566291 0 0 1.00004 0.00210057
127 18.1079 1.58558 0.754941 0 0 1.00004 0.00210062
886 18.099 0.747662 1.42565 0 0 1.00004 0.00209601
965 17.4062 1.74584 1.56848 0 0 1.00004 0.00214849
51 19.7297 0.00814816 0.663859 0 0 1.00004 0.00205177
52 18.9755 0.729145 0.689174 0 0 1.00004 0.00206239
131 19.7389 1.54082 0.837756 0 0 1.00004 0.00207688
889 19.2052 0.148084 1.54119 0 0 1.00004 0.00207194
890 19.7971 0.960993 1.68481 0 0 1.00004 0.00208338
969 18.8614 1.49702 1.49802 0 0 1.00004 0.00209735
129 19.0545 1.57367 0.00174354 0 0 1.00004 0.00207522
55 21.3476 0.342585 1.05911 0 0 1.00005 0.00207926
56 20.4578 0.768311 0.963377 0 0 1.00005 0.0020664
135 21.3353 1.61515 0.952337 0 0 1.00005 0.00210163
54 21.4115 0.758118 0.210313 0 0 1.00005 0.00207602
133 20.5584 1.49552 0.204726 0 0 1.00005 0.00207427
973 20.5472 1.75593 1.72197 0 0 1.00005 0.00211042
57 22.2725 0.272547 0.529037 0 0 1.00005 0.00210273
59 23.0917 0.421986 1.37917 0 0 1.00005 0.00215674
60 22.3842 1.13754 1.31183 0 0 1.00005 0.00213373
137 22.2553 1.58067 0.512446 0 0 1.00005 0.00212513
58 23.2004 1.0347 0.458574 0 0 1.00005 0.00215557
63 24.6092 0.37044 1.39574 0 0 1.00005 0.00225063
61 23.8884 0.343132 0.567511 0 0 1.00005 0.00218729
62 24.7842 1.15127 0.734667 0 0 1.00005 0.0022607
64 23.8109 1.21178 1.37219 0 0 1.00005 0.00221142
65 25.3412 0.310298 0.534386 0 0 1.00006 0.00228778
67 26.4212 0.365697 1.15163 0 0 1.00006 0.00238045
68 25.5561 1.10699 1.43427 0 0 1.00006 0.00233268
147 26.3555 1.70556 1.32755 0 0 1.00006 0.00240859
66 26.3047 0.92778 0.413184 0 0 1.00006 0.00236775
70 28.0595 1.26207 0.376836 0 0 1.00006 0.00251677
71 28.0966 0.487807 0.862418 0 0 1.00006 0.00251165
72 27.2012 1.01021 1.23142 0 0 1.00006 0.00245529
69 27.2335 0.240073 0.238716 0 0 1.00006 0.0024315
149 26.9984 1.75726 0.505 0 0 1.00006 0.00244721
913 28.9064 0.346704 1.40552 0 0 1.00006 0.00258524
76 29.1661 1.20423 0.715659 0 0 1.00006 0.00260423
914 29.9067 0.963233 1.55229 0 0 1.00006 0.00267294
993 29.03 1.70745 1.4917 0 0 1.00006 0.0026263
75 29.8093 0.347646 0.614354 0 0 1.00006 0.00263592
917 30.3923 0.159607 1.43744 0 0 1.00006 0.00269302
79 31.2955 0.456071 0.487879 0 0 1.00006 0.00273154
80 30.6459 1.17871 0.764308 0 0 1.00006 0.0027095
918 31.4311 0.966894 1.38223 0 0 1.00006 0.00276505
84 0.738192 2.37325 0.804076 0 0 1.00005 0.00285298
1001 0.996558 3.03644 1.55084 0 0 1.00005 0.00292109
161 0.934344 3.10699 0.128111 0 0 1.00005 0.00289419
82 1.7122 2.43386 0.113499 0 0 1.00005 0.00288565
922 1.75214 2.36518 1.59149 0 0 1.00005 0.00291223
163 1.89696 3.21792 0.94085 0 0 1.00005 0.00294588
88 2.52341 2.4123 0.793048 0 0 1.00005 0.0029122
167 3.26802 3.29478 0.860389 0 0 1.00005 0.00297581
926 3.29254 2.26316 1.55977 0 0 1.00005 0.00293647
86 3.31804 2.40137 0.0530203 0 0 1.00005 0.00291596
1005 2.72662 3.10929 1.75744 0 0 1.00005 0.00298366
1009 3.89598 3.4243 1.66773 0 0 1.00005 0.003012
92 3.98164 2.58037 0.799832 0 0 1.00005 0.00293487
91 4.58636 1.84237 0.72537 0 0 1.00005 0.00289543
171 4.79297 3.35119 0.77078 0 0 1.00005 0.00297388
930 4.74567 2.66524 1.60068 0 0 1.00005 0.00295588
96 5.47373 2.58774 0.837216 0 0 1.00004 0.00291805
94 6.19755 2.47916 0.14692 0 0 1.00004 0.00288262
175 6.22031 3.24192 0.976298 0 0 1.00004 0.00293821
934 6.40328 2.24518 1.51651 0 0 1.00004 0.00289036
173 5.55925 3.35691 0.0168528 0 0 1.00004 0.0029535
1017 7.07901 3.11438 1.5751 0 0 1.00004 0.00291417
100 7.07982 2.2235 0.79902 0 0 1.00004 0.0028429
177 7.16034 2.99553 0.133131 0 0 1.00004 0.00287283
98 7.93717 2.26826 0.140614 0 0 1.00004 0.00279517
179 7.91173 3.11096 0.935201 0 0 1.00004 0.00285453
938 7.80269 2.10374 1.60087 0 0 1.00004 0.00282437
104 8.56382 2.2393 0.960917 0 0 1.00004 0.00276849
1021 8.67498 3.05191 1.68969 0 0 1.00004 0.00283009
181 8.74255 3.02157 0.0466253 0 0 1.00004 0.00278817
102 9.34408 2.1435 0.256851 0 0 1.00004 0.00270252
183 9.37448 3.02594 0.959522 0 0 1.00004 0.00275997
942 9.46827 2.26495 1.75171 0 0 1.00004 0.00273557
185 9.98843 2.96791 0.212338 0 0 1.00004 0.00270067
108 10.1759 2.06297 1.11981 0 0 1.00004 0.00265432
106 10.6578 2.15186 0.206499 0 0 1.00004 0.00260749
112 11.4989 1.87444 0.79359 0 0 1.00004 0.00253759
187 10.9937 2.8587 0.941567 0 0 1.00003 0.00262808
1029 11.7858 2.88846 1.62634 0 0 1.00003 0.00259049
116 12.9549 1.9732 0.619143 0 0 1.00004 0.00242147
191 12.2496 2.70164 0.758131 0 0 1.00003 0.00251576
950 12.2467 1.95931 1.50155 0 0 1.00003 0.00249804
1033 13.1483 3.06798 1.72902 0 0 1.00003 0.00249412
195 13.4856 3.06203 0.852587 0 0 1.00004 0.00243776
954 13.6499 2.02656 1.50784 0 0 1.00003 0.00238921
114 13.674 2.33516 0.0546161 0 0 1.00004 0.0023762
120 14.2698 2.47755 0.932962 0 0 1.00004 0.0023476
1037 14.2991 3.43354 1.58352 0 0 1.00003 0.00242138
199 14.9516 3.46828 0.885245 0 0 1.00003 0.00235538
958 15.0327 2.33315 1.45218 0 0 1.00004 0.00229938
197 14.4053 3.25608 0.04595 0 0 1.00003 0.00237167
118 15.067 2.5297 0.139961 0 0 1.00004 0.00228439
124 15.9027 2.45099 0.710254 0 0 1.00004 0.00223271
203 16.5277 3.21492 0.686885 0 0 1.00004 0.00223768
962 16.5164 2.4853 1.53469 0 0 1.00004 0.00221932
1041 15.6235 3.28183 1.52628 0 0 1.00004 0.00231568
201 15.793 3.28216 0.0305646 0 0 1.00004 0.00227876
128 17.2644 2.36321 0.68714 0 0 1.00004 0.00215838
207 18.1466 2.92856 0.709813 0 0 1.00004 0.00215548
966 18.215 2.42812 1.59118 0 0 1.00004 0.00215008
1045 17.2994 3.11957 1.50941 0 0 1.00004 0.00221505
132 19.0905 2.35108 1.00677 0 0 1.00004 0.00211339
211 19.9142 3.20553 1.26323 0 0 1.00004 0.00215904
209 19.0868 2.98555 0.18642 0 0 1.00004 0.00213408
130 19.8025 2.31067 0.108426 0 0 1.00004 0.00209725
134 21.411 2.39046 0.447706 0 0 1.00005 0.00212471
136 20.4264 2.43293 1.09554 0 0 1.00005 0.00211856
215 21.5765 3.25692 1.36194 0 0 1.00005 0.00219125
213 20.6483 2.97238 0.325033 0 0 1.00005 0.00213568
139 23.1823 2.01536 1.49072 0 0 1.00005 0.00220175
138 23.2714 2.56101 0.716005 0 0 1.00005 0.00221316
140 22.3618 2.45591 1.21925 0 0 1.00005 0.00217531
217 22.2624 3.15813 0.592138 0 0 1.00005 0.00219505
16179 23.003 3.33934 0.0521145 0 0 1.00005 0.00223413
141 24.0614 1.77812 0.610131 0 0 1.00005 0.00222811
143 24.7866 1.94807 1.56063 0 0 1.00006 0.00230486
142 24.707 2.63091 0.75607 0 0 1.00006 0.00230918
144 24.0281 2.83419 1.5014 0 0 1.00005 0.00229174
223 24.8632 3.44806 1.51965 0 0 1.00006 0.00238529
16108 25.3487 2.7727 0.00868067 0 0 1.00006 0.00235797
145 25.5203 1.81716 0.514203 0 0 1.00006 0.00233187
146 26.2221 2.55699 0.683994 0 0 1.00006 0.00241943
148 25.5682 2.5171 1.48582 0 0 1.00006 0.00238389
227 26.164 3.42996 1.48401 0 0 1.00006 0.00248478
229 26.6425 3.44004 0.578069 0 0 1.00006 0.00250293
152 26.9894 2.52338 1.49474 0 0 1.00006 0.00249994
151 27.9863 1.94768 1.20297 0 0 1.00006 0.00254749
150 27.5691 2.64094 0.616399 0 0 1.00006 0.002533
231 27.7196 3.29083 1.38697 0 0 1.00006 0.00260093
233 28.5018 3.17939 0.335451 0 0 1.00006 0.00263445
153 28.7706 2.05792 0.338729 0 0 1.00006 0.00259901
156 28.7778 2.70664 1.17462 0 0 1.00006 0.00264482
155 29.9787 1.99348 0.878379 0 0 1.00006 0.00269255
154 29.7383 2.65889 0.279654 0 0 1.00006 0.00269932
235 29.8262 3.20917 1.17677 0 0 1.00006 0.00275304
997 30.5438 1.78312 1.68625 0 0 1.00006 0.00274504
159 31.4975 1.95039 0.917211 0 0 1.00006 0.00278893
160 30.7556 2.67702 0.993588 0 0 1.00006 0.00277935
239 31.6357 3.29874 0.970041 0 0 1.00006 0.00286742
998 31.5859 2.66365 1.72133 0 0 1.00006 0.00285058
237 30.7173 3.19933 0.165325 0 0 1.00006 0.00279596
157 30.9601 1.88585 0.0466789 0 0 1.00006 0.002744
158 31.7302 2.62892 0.0768302 0 0 1.00006 0.00282264
164 0.920021 3.7668 0.919388 0 0 1.00005 0.00294698
241 0.788539 4.59342 0.456128 0 0 1.00006 0.00299938
244 0.772961 5.24401 1.26876 0 0 1.00006 0.00307534
162 1.67628 3.8499 0.0852633 0 0 1.00005 0.00297055
1081 1.12158 4.38846 1.75701 0 0 1.00005 0.00303131
243 1.77597 4.6536 0.990322 0 0 1.00005 0.00305098
168 2.50535 4.04147 0.861289 0 0 1.00005 0.0030169
247 3.19882 4.88073 1.12874 0 0 1.00005 0.00310552
166 3.28969 4.16118 0.195125 0 0 1.00005 0.00302956
245 2.55468 4.95662 0.291126 0 0 1.00005 0.0030856
249 4.06186 4.88319 0.170446 0 0 1.00005 0.00309181
172 4.10549 4.11039 0.904166 0 0 1.00005 0.00303711
251 4.70891 4.91676 1.16978 0 0 1.00005 0.00310905
170 4.86032 4.20752 0.145431 0 0 1.00005 0.00302868
176 5.51643 4.05941 1.17221 0 0 1.00004 0.00302257
253 5.62407 4.79434 0.332744 0 0 1.00004 0.00306494
174 6.32809 3.98951 0.186143 0 0 1.00004 0.00297651
255 6.31258 4.77529 1.06019 0 0 1.00004 0.00305702
180 7.06822 3.83957 0.807676 0 0 1.00004 0.00294346
1097 7.24256 4.60082 1.69342 0 0 1.00004 0.00302747
260 7.24743 5.22852 0.894027 0 0 1.00004 0.00305696
259 7.94431 4.53739 0.579516 0 0 1.00004 0.00295296
1018 7.94109 3.93094 1.54346 0 0 1.00004 0.00293055
184 8.7017 3.94362 0.733134 0 0 1.00004 0.00286333
1101 8.72569 4.6915 1.52702 0 0 1.00004 0.00294799
263 9.55131 4.65028 0.846916 0 0 1.00004 0.0028685
1022 9.52811 3.84249 1.54777 0 0 1.00004 0.00282568
182 9.44946 3.93697 0.0631232 0 0 1.00004 0.00280614
265 10.2919 4.60894 0.134277 0 0 1.00004 0.00279984
188 10.3113 3.65772 0.914426 0 0 1.00004 0.00273371
1105 10.3262 4.44167 1.71232 0 0 1.00003 0.00282388
267 10.9997 4.7299 0.936295 0 0 1.00003 0.00276913
1026 11.0939 3.65123 1.64014 0 0 1.00003 0.00269593
186 10.9837 3.91173 0.175935 0 0 1.00004 0.00268898
1109 11.7457 4.48265 1.74876 0 0 1.00003 0.00271727
192 11.762 3.71065 0.825767 0 0 1.00003 0.00262108
269 11.7577 4.78085 0.227073 0 0 1.00003 0.00269976
196 12.8134 3.66473 0.836448 0 0 1.00003 0.00253347
271 12.5293 4.62854 1.02876 0 0 1.00003 0.00263897
1113 13.1132 5.0546 1.73397 0 0 1.00003 0.0026574
273 12.9527 4.68923 0.0596057 0 0 1.00003 0.00259389
275 13.5417 4.77612 0.819044 0 0 1.00003 0.00256293
200 14.2727 4.17172 0.714972 0 0 1.00003 0.00245219
1034 13.791 4.28027 1.62563 0 0 1.00003 0.00252841
1117 14.4958 5.17185 1.56387 0 0 1.00003 0.00254963
277 14.4233 4.94728 0.0794563 0 0 1.00003 0.00249821
279 15.2175 5.06359 0.830746 0 0 1.00003 0.00246076
198 15.2067 4.2228 0.10827 0 0 1.00003 0.0023817
1038 15.2379 4.44651 1.61875 0 0 1.00003 0.00243232
204 15.9006 4.09256 0.928794 0 0 1.00004 0.00233756
281 16.1086 4.79868 0.188832 0 0 1.00004 0.00236951
1042 16.5577 3.98135 1.70134 0 0 1.00004 0.0023166
1121 16.0797 5.07371 1.66678 0 0 1.00003 0.00243391
283 16.8273 4.60244 0.91028 0 0 1.00004 0.0023243
208 17.4861 3.8343 0.813672 0 0 1.00004 0.00223494
287 18.3049 4.47906 1.09448 0 0 1.00004 0.00226065
1046 18.1686 3.63768 1.65817 0 0 1.00004 0.00222179
285 17.6634 4.57948 0.0238529 0 0 1.00004 0.00227424
206 18.3495 3.84193 0.0699551 0 0 1.00004 0.00219873
212 19.0825 3.69287 0.955156 0 0 1.00004 0.00218571
289 19.0543 4.5901 0.358258 0 0 1.00004 0.0022399
291 19.9208 4.62994 1.09363 0 0 1.00004 0.00225084
292 19.0236 5.25266 1.19286 0 0 1.00004 0.00231116
210 19.8222 3.73683 0.237752 0 0 1.00004 0.00217319
216 20.6804 3.7782 1.21979 0 0 1.00005 0.00219866
295 21.1562 4.66246 1.36385 0 0 1.00005 0.0022767
214 21.3586 3.8882 0.506734 0 0 1.00005 0.00220577
293 20.4055 4.73912 0.338764 0 0 1.00005 0.00224755
297 21.8973 4.88583 0.781674 0 0 1.00005 0.00230088
219 23.1504 3.55546 1.38253 0 0 1.00005 0.00227772
220 22.2373 4.06805 1.28547 0 0 1.00005 0.00226556
299 22.8216 5.07955 1.24964 0 0 1.00005 0.00236922
218 22.9509 4.27262 0.51673 0 0 1.00005 0.00229685
221 23.9269 3.56311 0.756793 0 0 1.00005 0.0023091
222 24.7306 4.25018 0.615384 0 0 1.00006 0.00240848
224 23.8356 4.45796 1.3107 0 0 1.00006 0.00238043
301 23.9233 4.98248 0.515591 0 0 1.00006 0.00240847
303 24.7859 5.19342 1.39244 0 0 1.00006 0.00250959
305 25.3071 5.14632 0.548405 0 0 1.00006 0.00252335
228 25.4552 4.39827 1.56461 0 0 1.00006 0.00250098
225 25.4793 3.58189 0.763765 0 0 1.00006 0.00242158
307 26.1854 5.04203 1.31576 0 0 1.00006 0.00260383
226 25.9891 4.32191 0.394823 0 0 1.00006 0.00250751
232 26.856 4.20421 1.3416 0 0 1.00006 0.00259188
309 27.0184 4.88927 0.623787 0 0 1.00006 0.00264243
311 27.8803 4.78679 1.36336 0 0 1.00006 0.00272482
230 27.572 3.96412 0.572416 0 0 1.00006 0.00261427
236 28.5035 3.90439 1.08637 0 0 1.00006 0.00269613
313 28.8473 4.66749 0.683783 0 0 1.00006 0.00277473
234 29.4981 3.72734 0.459807 0 0 1.00006 0.00274862
315 29.6775 4.45435 1.28935 0 0 1.00006 0.00283608
314 30.0101 5.24794 0.794099 0 0 1.00006 0.00291592
240 30.5952 3.99765 1.01432 0 0 1.00006 0.00285564
238 31.6467 3.96117 0.346021 0 0 1.00006 0.00290515
317 30.8324 4.64739 0.459341 0 0 1.00006 0.00291336
319 31.6235 4.5754 1.36272 0 0 1.00006 0.00297547
242 1.60343 5.50906 0.456353 0 0 1.00005 0.00311244
323 1.51963 6.18084 1.27461 0 0 1.00005 0.00319654
324 0.980593 6.91468 1.47829 0 0 1.00006 0.00326243
321 0.688858 5.9806 0.451964 0 0 1.00006 0.0031227
398 0.189833 6.90315 0.603929 0 0 1.00006 0.00319566
399 0.159239 6.10903 1.36245 0 0 1.00006 0.00313367
322 1.71623 6.91796 0.563365 0 0 1.00005 0.00326076
248 2.24659 5.50534 1.36612 0 0 1.00005 0.00315564
328 2.44978 7.0245 1.25419 0 0 1.00005 0.00331159
325 2.58233 6.20451 0.502684 0 0 1.00005 0.00320734
327 3.00137 6.18397 1.41618 0 0 1.00005 0.00323819
246 3.36545 5.61458 0.278811 0 0 1.00005 0.00315728
252 3.82256 5.65747 1.29785 0 0 1.00005 0.00318781
332 3.97603 7.00679 1.17352 0 0 1.00005 0.00332391
329 4.09722 6.3036 0.48672 0 0 1.00005 0.00322983
250 4.8554 5.51122 0.335151 0 0 1.00005 0.00314452
331 4.80929 6.1431 1.25341 0 0 1.00005 0.00322984
330 4.71987 7.05417 0.243228 0 0 1.00005 0.00330387
336 5.4789 6.88569 1.19002 0 0 1.00004 0.00329511
333 5.50598 6.29776 0.332378 0 0 1.00004 0.00321209
256 5.59488 5.50046 1.31718 0 0 1.00004 0.00315332
254 6.38226 5.47306 0.298477 0 0 1.00004 0.00310432
335 6.33369 6.28877 0.988344 0 0 1.00004 0.00320304
337 7.01956 6.15735 0.151146 0 0 1.00004 0.00314644
1177 7.10297 6.08013 1.65071 0 0 1.00004 0.00317675
340 7.0979 6.96038 1.01105 0 0 1.00004 0.00324572
339 7.91313 6.23457 0.7887 0 0 1.00004 0.00312345
1098 7.97797 5.49152 1.54765 0 0 1.00004 0.00306916
1178 7.92402 6.9421 1.6592 0 0 1.00004 0.00323448
258 7.88903 5.44228 0.0401404 0 0 1.00004 0.00303366
344 8.61824 6.96327 0.753016 0 0 1.00004 0.00315939
264 8.74149 5.40866 0.728926 0 0 1.00004 0.00299013
1181 8.7978 6.22081 1.55801 0 0 1.00004 0.00309919
343 9.42788 6.29017 0.768811 0 0 1.00003 0.00303619
1102 9.55826 5.42818 1.63795 0 0 1.00003 0.00297062
262 9.50962 5.56988 0.0260989 0 0 1.00004 0.00294684
268 10.2403 5.42801 0.82733 0 0 1.00003 0.00289043
1185 10.2483 6.28414 1.54011 0 0 1.00003 0.00300515
345 10.2548 6.34915 0.102761 0 0 1.00003 0.00297309
347 11.0545 6.13477 0.982059 0 0 1.00003 0.00290267
1186 10.9765 7.05125 1.56185 0 0 1.00003 0.00303821
266 10.9287 5.66393 0.019035 0 0 1.00003 0.00285035
349 11.7513 6.46811 0.0791659 0 0 1.00003 0.00286679
272 11.7959 5.37359 1.03946 0 0 1.00003 0.00276925
270 12.3736 5.70304 0.192801 0 0 1.00003 0.00273612
276 13.0417 5.88683 0.892514 0 0 1.00003 0.00271313
351 12.1862 6.32616 1.08879 0 0 1.00003 0.00283487
274 13.6411 5.61695 0.0441986 0 0 1.00003 0.00262198
1114 13.6858 5.95268 1.62067 0 0 1.00003 0.00269428
355 13.7196 6.65282 0.829679 0 0 1.00003 0.00273287
280 14.3797 5.7866 0.798541 0 0 1.00003 0.00259098
1197 14.6579 6.716 1.46281 0 0 1.00003 0.00269151
357 14.4604 6.45824 0.043783 0 0 1.00003 0.00264035
278 15.2885 5.67869 0.0432698 0 0 1.00003 0.00250133
359 15.349 6.50699 0.82351 0 0 1.00003 0.00259142
284 16.1009 5.76806 0.958555 0 0 1.00003 0.00247029
1118 15.4111 5.91847 1.72865 0 0 1.00003 0.00256429
361 15.9668 6.38602 0.0505874 0 0 1.00003 0.00252334
363 16.7696 6.48041 1.16431 0 0 1.00004 0.00250783
282 16.8683 5.44102 0.274693 0 0 1.00004 0.00238267
286 18.0733 5.31154 0.538691 0 0 1.00004 0.00232397
288 17.3537 5.43621 1.2547 0 0 1.00004 0.00238114
365 17.3434 6.29364 0.411861 0 0 1.00004 0.00244045
367 17.9325 6.24723 1.37918 0 0 1.00004 0.00243962
372 18.5675 7.04226 1.14918 0 0 1.00004 0.00249023
369 18.6458 6.21189 0.616078 0 0 1.00004 0.00238962
290 19.703 5.71046 0.614742 0 0 1.00004 0.00233003
371 19.608 6.51473 1.32674 0 0 1.00004 0.00242676
373 20.3016 6.68447 0.601855 0 0 1.00005 0.00242113
294 21.0595 5.70324 0.63432 0 0 1.00005 0.0023419
296 20.4598 5.55244 1.37214 0 0 1.00005 0.00233956
375 21.1017 6.53421 1.27847 0 0 1.00005 0.0024391
377 22.0035 6.58006 0.653633 0 0 1.00005 0.00245203
300 21.9882 5.7866 1.34103 0 0 1.00005 0.00239786
16260 22.0265 5.65544 0.0543305 0 0 1.00005 0.00236157
298 23.0379 5.74624 0.635837 0 0 1.00005 0.00242269
379 23.0248 6.58461 1.16852 0 0 1.00005 0.00251655
381 23.771 6.65507 0.264998 0 0 1.00006 0.00254534
304 23.8932 5.7885 1.24182 0 0 1.00006 0.00249487
383 24.7947 6.45754 1.13188 0 0 1.00006 0.00262049
302 24.5762 5.88974 0.403025 0 0 1.00006 0.00253115
306 26.1985 5.75617 0.664034 0 0 1.00006 0.00265168
308 25.6004 5.92195 1.60312 0 0 1.00006 0.00264919
385 25.6628 6.60497 0.473591 0 0 1.00006 0.00268467
387 26.3941 6.48898 1.36012 0 0 1.00006 0.00276226
312 27.2443 5.74868 1.42213 0 0 1.00006 0.00276236
310 28.0786 5.46283 0.688513 0 0 1.00006 0.00278338
389 27.3187 6.26782 0.612316 0 0 1.00006 0.00279444
391 28.3061 6.35805 1.32784 0 0 1.00006 0.00290779
390 28.344 6.90991 0.500318 0 0 1.00006 0.00294334
392 27.4018 7.01216 1.28535 0 0 1.00006 0.00289918
316 28.9846 5.44366 1.42861 0 0 1.00006 0.00287769
393 29.1085 6.13547 0.634837 0 0 1.00006 0.00293027
16355 30.0228 6.06734 0.073289 0 0 1.00006 0.00298484
16276 29.083 5.32936 0.0350811 0 0 1.00006 0.00284535
396 29.3218 7.01213 1.19074 0 0 1.00006 0.00305339
395 30.1001 6.13051 1.28934 0 0 1.00006 0.00302306
394 30.2694 6.87491 0.493759 0 0 1.00006 0.00308958
318 31.6384 5.31796 0.581204 0 0 1.00006 0.00302156
320 30.8811 5.39559 1.41844 0 0 1.00006 0.00300671
397 31.0641 6.13979 0.62165 0 0 1.00006 0.00306795
400 31.0508 7.02525 1.16061 0 0 1.00006 0.00317372
401 1.02786 7.62638 0.639192 0 0 1.00006 0.00331246
402 1.65843 8.46713 0.588629 0 0 1.00006 0.00342526
404 1.14654 8.51867 1.44268 0 0 1.00006 0.00344309
478 0.473877 8.56299 0.384899 0 0 1.00006 0.00338385
479 0.255832 7.76276 1.2772 0 0 1.00006 0.00331208
403 1.88422 7.83128 1.48147 0 0 1.00006 0.00339546
405 2.37233 7.76489 0.391461 0 0 1.00005 0.00336612
408 2.54704 8.62108 1.46051 0 0 1.00005 0.00349807
326 3.22319 7.14345 0.46848 0 0 1.00005 0.00331605
406 3.02058 8.61938 0.400795 0 0 1.00005 0.00347097
407 3.18176 7.82679 1.292 0 0 1.00005 0.003413
412 3.83959 8.55539 0.969299 0 0 1.00005 0.0034865
409 3.99782 7.79132 0.339053 0 0 1.00005 0.00338716
410 4.60493 8.50119 0.08032 0 0 1.00005 0.00346083
411 4.73552 7.68304 1.23303 0 0 1.00005 0.00339479
413 5.41414 7.72367 0.236173 0 0 1.00004 0.00336382
416 5.45906 8.34231 0.97361 0 0 1.00005 0.00344959
334 6.22929 7.10935 0.164799 0 0 1.00004 0.00327776
414 6.59656 8.43995 0.191822 0 0 1.00004 0.00341142
415 6.20612 7.64835 1.04306 0 0 1.00004 0.0033549
420 7.10273 8.28775 1.08761 0 0 1.00004 0.00339549
417 7.1673 7.65213 0.169533 0 0 1.00004 0.00330213
419 7.95818 7.85543 0.781198 0 0 1.00004 0.00329802
1258 7.95867 8.26824 1.75594 0 0 1.00004 0.0033894
1182 9.64271 7.07699 1.52719 0 0 1.00003 0.00313753
421 8.62556 7.72179 0.024196 0 0 1.00004 0.00323348
1261 8.69915 7.60039 1.62092 0 0 1.00003 0.00326367
424 8.90104 8.44013 0.91782 0 0 1.00003 0.0033157
423 9.49814 7.73435 0.697013 0 0 1.00003 0.00318828
1262 9.69813 8.80871 1.52513 0 0 1.00003 0.00333697
346 11.0115 7.07252 0.141474 0 0 1.00003 0.00299183
1265 10.2516 7.99851 1.65724 0 0 1.00003 0.00320995
428 10.3138 8.73396 0.739548 0 0 1.00003 0.00324643
348 10.3594 7.31862 0.770189 0 0 1.00003 0.0030834
427 11.1031 8.05164 0.883443 0 0 1.00003 0.00311264
429 11.7221 8.23239 0.0495832 0 0 1.00003 0.00306455
352 11.7647 7.25266 0.844609 0 0 1.00003 0.00296667
1269 11.8825 7.94176 1.66363 0 0 1.00003 0.00307537
356 13.1202 7.39789 0.605189 0 0 1.00003 0.00286035
431 12.6359 8.32191 0.638601 0 0 1.00003 0.00300855
1190 12.5356 7.26755 1.44827 0 0 1.00003 0.00292919
1270 12.5668 8.80322 1.57428 0 0 1.00003 0.00311408
1273 13.2859 8.11475 1.54611 0 0 1.00003 0.00296947
350 12.3388 7.47927 0.000933549 0 0 1.00003 0.00292719
360 14.6644 7.42431 0.642605 0 0 1.00003 0.0027368
435 14.0116 8.19133 0.512203 0 0 1.00003 0.00287206
1194 13.866 7.42078 1.41416 0 0 1.00003 0.002831
1277 14.6427 8.23993 1.41452 0 0 1.00003 0.00286081
439 15.4491 8.34792 0.891413 0 0 1.00003 0.00278575
364 15.9555 7.3485 0.921526 0 0 1.00003 0.00263925
443 16.6093 8.18897 1.12534 0 0 1.00003 0.00269846
1198 15.4827 7.58125 1.68827 0 0 1.00003 0.00273961
441 16.1889 8.33614 0.15858 0 0 1.00003 0.00271536
362 16.7388 7.20822 0.294671 0 0 1.00003 0.00256269
368 17.288 7.36662 1.12402 0 0 1.00004 0.00257171
445 17.3779 8.12364 0.323937 0 0 1.00004 0.00262546
447 18.0426 8.02582 1.0414 0 0 1.00004 0.00260488
366 18.1143 7.17208 0.229489 0 0 1.00004 0.0024947
370 19.3247 7.2942 0.622908 0 0 1.00004 0.00248375
451 19.2678 8.11676 1.16941 0 0 1.00004 0.0025888
449 18.7841 8.16635 0.193413 0 0 1.00004 0.00257478
453 20.1464 8.07524 0.359249 0 0 1.00004 0.00255428
376 20.2113 7.59177 1.29406 0 0 1.00005 0.00253458
374 21.048 7.38393 0.643248 0 0 1.00005 0.00250156
455 21.0344 8.35047 1.00731 0 0 1.00005 0.00261052
380 21.9329 7.57039 1.10584 0 0 1.00005 0.00256107
457 22.0172 8.24349 0.255488 0 0 1.00005 0.00261054
459 23.0358 8.07275 0.971912 0 0 1.00006 0.00265998
1218 22.8397 7.38721 1.69397 0 0 1.00006 0.002613
378 22.7455 7.37599 0.372083 0 0 1.00005 0.00255807
458 23.2103 8.78487 0.19656 0 0 1.00006 0.00272415
1298 22.8804 8.7857 1.54582 0 0 1.00006 0.00275576
384 23.9013 7.21118 1.02821 0 0 1.00006 0.00262706
461 23.9579 7.96607 0.352326 0 0 1.00006 0.00269182
463 24.8656 7.9667 0.950165 0 0 1.00006 0.00277298
1302 24.8032 8.61186 1.62924 0 0 1.00006 0.00287376
382 24.8112 7.19813 0.267658 0 0 1.00006 0.00267288
462 24.848 8.69 0.197249 0 0 1.00006 0.00282992
1301 23.8548 7.92478 1.72483 0 0 1.00006 0.00273367
388 25.6588 7.26923 1.19589 0 0 1.00006 0.00277406
467 26.627 7.89404 0.95188 0 0 1.00006 0.0029124
1306 26.6542 8.50773 1.68034 0 0 1.00007 0.0030213
386 26.6469 7.1471 0.361414 0 0 1.00006 0.00281968
465 25.7809 7.98491 0.301819 0 0 1.00006 0.00283345
468 25.8761 8.72682 0.956399 0 0 1.00006 0.00293826
466 26.8841 8.46782 0.0909226 0 0 1.00006 0.00297833
472 27.6508 8.54745 0.984691 0 0 1.00007 0.00307506
469 27.6232 7.67387 0.414459 0 0 1.00006 0.00296027
471 28.4786 7.7242 1.16495 0 0 1.00006 0.00306185
1310 28.5018 8.58025 1.7283 0 0 1.00007 0.00319003
470 28.6504 8.40245 0.386322 0 0 1.00006 0.0031264
476 29.4953 8.45956 1.14703 0 0 1.00006 0.00322186
473 29.3991 7.65064 0.399272 0 0 1.00006 0.00310606
475 30.2176 7.60735 1.24844 0 0 1.00006 0.00318515
474 30.3444 8.31629 0.524508 0 0 1.00006 0.00324994
480 31.2052 8.42624 1.1696 0 0 1.00006 0.00333601
477 31.3795 7.82117 0.378836 0 0 1.00006 0.00325839
484 1.11488 9.91688 0.911223 0 0 1.00006 0.00356939
481 1.19792 9.31514 0.128291 0 0 1.00006 0.00349468
559 0.332582 9.23285 1.11883 0 0 1.00006 0.00347027
558 0.340008 9.90898 0.0709037 0 0 1.00006 0.00351516
1322 1.69912 10.1098 1.7435 0 0 1.00006 0.00365663
483 1.86419 9.33137 1.18693 0 0 1.00006 0.00354582
482 1.9915 10.268 0.256218 0 0 1.00006 0.0036193
485 2.58534 9.46075 0.429861 0 0 1.00005 0.00355531
488 2.69823 10.3417 0.97972 0 0 1.00005 0.00366322
487 3.21629 9.45256 1.21329 0 0 1.00005 0.00358939
486 3.43698 10.2914 0.0711502 0 0 1.00005 0.00364832
1326 3.63379 10.2503 1.68498 0 0 1.00005 0.00370424
489 3.89973 9.37568 0.113987 0 0 1.00005 0.00355688
1329 4.06803 9.28437 1.70985 0 0 1.00005 0.00360278
492 4.21869 10.0841 0.770631 0 0 1.00005 0.00364338
491 4.74203 9.15528 0.877873 0 0 1.00005 0.00354605
1330 4.97207 10.0138 1.62334 0 0 1.00005 0.00367253
493 5.36002 9.2695 0.00212951 0 0 1.00005 0.00353474
496 5.42231 10.0457 0.584843 0 0 1.00004 0.0036248
1333 5.48746 9.12064 1.67475 0 0 1.00004 0.00357181
495 6.09617 9.04763 0.681739 0 0 1.00004 0.00350461
1334 6.14349 9.91514 1.24276 0 0 1.00004 0.00361773
1337 6.91722 9.16359 1.31293 0 0 1.00004 0.00351516
500 6.99864 9.88698 0.541285 0 0 1.00004 0.00356162
499 7.86309 8.98143 0.755488 0 0 1.00004 0.00342967
1338 7.89678 9.84944 1.25755 0 0 1.00004 0.00354559
504 8.67443 10.0469 0.61102 0 0 1.00003 0.00349796
1341 8.73097 9.27787 1.46573 0 0 1.00003 0.00344913
501 8.76634 9.16478 0.0961973 0 0 1.00003 0.0033875
503 9.59138 9.559 0.765303 0 0 1.00003 0.00339316
1342 9.44728 10.3482 1.48904 0 0 1.00003 0.00352543
1266 11.1396 8.84992 1.51261 0 0 1.00003 0.00323402
508 10.2932 10.4377 0.715688 0 0 1.00003 0.0034363
1345 10.4427 9.69072 1.50203 0 0 1.00003 0.00338452
426 10.9676 8.98791 0.033808 0 0 1.00003 0.00321175
507 11.0609 9.79115 0.709023 0 0 1.00003 0.00330871
1346 11.2368 10.3104 1.72427 0 0 1.00003 0.00340938
432 11.871 8.96193 0.771629 0 0 1.00003 0.00314966
1349 11.8924 9.72809 1.41448 0 0 1.00003 0.00326867
511 12.6125 9.905 0.731534 0 0 1.00003 0.00319203
516 13.3264 10.5819 1.00254 0 0 1.00003 0.00321178
1353 13.0838 9.73001 1.69807 0 0 1.00003 0.00318888
436 13.4243 9.04319 0.822495 0 0 1.00003 0.00302809
1274 14.1137 8.96606 1.63567 0 0 1.00003 0.00300606
440 14.8577 9.24827 0.803251 0 0 1.00003 0.00292914
515 13.9927 9.80047 0.891296 0 0 1.00003 0.00306573
517 14.7094 10.2 0.236801 0 0 1.00003 0.00302787
444 16.2664 9.1911 1.1574 0 0 1.00003 0.00283405
519 15.5459 9.93459 1.05766 0 0 1.00003 0.00296071
521 16.086 10.2087 0.251476 0 0 1.00003 0.00292118
438 15.6592 9.25268 0.135187 0 0 1.00003 0.00285111
442 16.8514 9.08035 0.273778 0 0 1.00003 0.00275452
523 16.8911 9.98789 0.988928 0 0 1.00003 0.0028694
448 17.4506 9.0677 1.13631 0 0 1.00004 0.0027486
525 17.5432 10.031 0.202047 0 0 1.00003 0.00281319
527 18.1557 9.85625 1.0763 0 0 1.00004 0.0027961
446 18.1135 9.1015 0.126934 0 0 1.00004 0.00269241
452 18.6576 8.89128 0.948061 0 0 1.00004 0.0026734
529 18.9756 9.7203 0.306417 0 0 1.00004 0.00273102
531 19.8951 9.85642 0.857132 0 0 1.00004 0.00275004
532 19.1229 10.4425 1.14184 0 0 1.00004 0.00283051
1369 19.0357 9.56817 1.7015 0 0 1.00004 0.0027818
450 19.5957 8.92744 0.214013 0 0 1.00004 0.00264069
456 20.2112 8.90424 1.03381 0 0 1.00005 0.00265936
533 20.4105 9.73436 0.0691549 0 0 1.00005 0.00271986
535 21.3743 9.74127 0.750762 0 0 1.00005 0.00275226
1373 20.6576 9.61108 1.63319 0 0 1.00005 0.00277426
454 21.1867 8.99808 0.193214 0 0 1.00005 0.00265983
1374 21.5481 10.0395 1.72465 0 0 1.00005 0.00284512
536 20.851 10.5724 0.798182 0 0 1.00005 0.00282313
460 22.0582 8.94455 0.948365 0 0 1.00005 0.00270222
539 23.335 9.60156 0.786339 0 0 1.00006 0.00283026
540 22.6097 10.4342 0.812179 0 0 1.00006 0.00286975
1377 22.4214 9.70459 1.48238 0 0 1.00006 0.00282601
537 22.4296 9.71469 0.217162 0 0 1.00005 0.00277661