ITEM: TIMESTEP
20000
ITEM: NUMBER OF ATOMS
32000
ITEM: BOX BOUNDS pp pp pp
0.0000000000000000e+00 3.1748021039364001e+01
0.0000000000000000e+00 3.1748021039364001e+01
0.0000000000000000e+00 3.1748021039364001e+01
ITEM: ATOMS id x y z c_phase c_nbond c_rho vx
4 0.23928 1.09888 0.468909 0 0 1.00002 0.00106866
83 1.09594 1.66792 0.782179 0 0 1.00002 0.00110002
842 0.840066 0.791915 1.41077 0 0 1.00002 0.00109015
921 0.131032 1.59885 1.37864 0 0 1.00002 0.00109544
3 0.851591 0.068355 0.62154 0 0 1.00002 0.00106858
8 1.83225 0.818627 1.01566 0 0 1.00001 0.00108327
85 1.92445 1.48442 0.217411 0 0 1.00001 0.00108726
925 1.9545 1.66285 1.76001 0 0 1.00001 0.0011237
6 2.63444 0.748804 0.204839 0 0 1.00001 0.00105952
7 2.7032 0.0573454 1.0407 0 0 1.00001 0.00106261
87 2.76421 1.54622 0.882698 0 0 1.00001 0.00108153
846 2.79248 0.822874 1.74636 0 0 1.00001 0.00108659
12 3.53972 0.934383 0.965221 0 0 1.00001 0.00104339
849 3.60511 0.0906636 1.71602 0 0 1.00001 0.00105092
929 3.71786 1.71402 1.72621 0 0 1.00001 0.00107715
10 4.21138 0.862831 0.324669 0 0 1.00001 0.001002
93 5.01284 1.60911 0.388128 0 0 1.00001 0.000974484
850 4.44044 0.948976 1.64296 0 0 1.00001 0.00101769
9 3.58035 0.10768 0.174853 0 0 1.00001 0.00102293
16 5.05993 0.570119 1.17488 0 0 1.00001 0.000960593
14 5.72891 0.648648 0.325734 0 0 1.00001 0.000901362
95 5.96376 1.32247 0.950724 0 0 1.00001 0.000905091
97 6.64312 1.40478 0.22131 0 0 1 0.000841039
854 5.86821 0.462975 1.71332 0 0 1.00001 0.00091632
933 5.12069 1.73132 1.44656 0 0 1.00001 0.000990099
20 6.77877 0.397226 0.876384 0 0 1 0.000818775
937 6.75943 1.02006 1.70956 0 0 1 0.00085156
24 8.30354 0.413986 1.08265 0 0 1 0.000676345
99 7.42232 1.23547 0.962408 0 0 1 0.000774771
101 8.28452 1.4038 0.240119 0 0 1 0.000685024
941 8.17125 1.28492 1.62457 0 0 1 0.000719539
18 7.63148 0.657031 0.145927 0 0 1 0.000733987
22 8.88307 0.51372 0.275461 0 0 1 0.000606337
28 9.56656 0.341118 0.899811 0 0 1 0.00054021
103 9.04858 1.32066 1.12213 0 0 1 0.000617084
105 9.65069 1.38602 0.0933423 0 0 1 0.000541421
32 11.1935 0.217999 0.641498 0 0 1 0.000365731
107 10.3621 1.05836 0.832694 0 0 1 0.000464996
866 10.5178 0.199575 1.46041 0 0 1 0.000451393
949 11.2695 1.02653 1.43174 0 0 1 0.000382753
946 10.5753 1.69455 1.7462 0 0 1 0.000482254
26 10.2428 0.37104 0.0798529 0 0 1 0.000461123
36 12.8334 0.214817 0.643785 0 0 1 0.000210308
111 12.0122 1.08279 0.514269 0 0 1 0.000293657
870 12.0989 0.319044 1.31259 0 0 1 0.000289461
953 12.679 1.2055 1.38489 0 0 1 0.000249165
40 14.3134 0.325552 0.777038 0 0 1.00001 0.000100177
115 13.5382 1.11791 0.850609 0 0 1.00001 0.00016617
117 13.9855 1.56646 0.165243 0 0 1.00001 0.000135869
874 13.5575 0.362706 1.64617 0 0 1.00001 0.000171404
957 14.3183 1.15625 1.48653 0 0 1.00001 0.00012426
119 14.8143 1.55857 0.66703 0 0 1.00001 8.89004e-05
38 15.0373 0.712681 0.0676334 0 0 1.00001 5.72387e-05
44 15.6398 0.768347 0.789886 0 0 1.00001 3.65626e-05
123 16.4805 1.54293 0.682939 0 0 1.00001 2.58588e-05
878 15.0767 0.465519 1.64686 0 0 1.00001 7.5012e-05
882 16.4757 0.710285 1.3439 0 0 1.00001 2.1499e-05
961 15.5632 1.49101 1.39632 0 0 1.00001 6.43523e-05
48 17.1889 0.729553 0.551659 0 0 1.00002 1.80078e-06
127 17.857 1.57771 0.754853 0 0 1.00002 2.19034e-05
886 17.8495 0.741604 1.42402 0 0 1.00002 1.76614e-05
965 17.1505 1.74516 1.56219 0 0 1.00002 3.89356e-05
51 19.4835 0.0141068 0.660655 0 0 1.00002 5.00298e-05
52 18.7311 0.723176 0.683661 0 0 1.00002 2.45831e-05
131 19.4867 1.54525 0.837584 0 0 1.00002 7.07518e-05
889 18.9669 0.154901 1.53941 0 0 1.00002 4.19345e-05
890 19.5414 0.961547 1.68242 0 0 1.00002 7.82523e-05
969 18.5987 1.50384 1.49503 0 0 1.00002 4.81059e-05
55 21.0616 0.346386 1.06009 0 0 1.00003 0.000153326
56 20.2042 0.771073 0.972506 0 0 1.00002 9.81123e-05
135 21.0741 1.64032 0.94652 0 0 1.00003 0.000174967
54 21.1555 0.75928 0.216417 0 0 1.00003 0.000156479
133 20.3026 1.50335 0.194983 0 0 1.00002 0.000109413
57 21.9921 0.260965 0.535034 0 0 1.00003 0.000223456
59 22.7902 0.425315 1.39438 0 0 1.00003 0.000312274
60 22.0967 1.13744 1.31873 0 0 1.00003 0.000255606
137 21.9811 1.58572 0.531876 0 0 1.00003 0.000242515
58 22.915 1.06173 0.443217 0 0 1.00003 0.000319092
63 24.2573 0.375878 1.4346 0 0 1.00003 0.000465643
61 23.5789 0.352794 0.568988 0 0 1.00003 0.000378688
62 24.4652 1.17333 0.747088 0 0 1.00003 0.000485094
64 23.4888 1.23572 1.38892 0 0 1.00003 0.000396169
65 24.9941 0.312525 0.545967 0 0 1.00003 0.000529291
67 26.0652 0.377772 1.1616 0 0 1.00003 0.00065091
68 25.2126 1.11485 1.46446 0 0 1.00003 0.000579611
147 25.9896 1.71974 1.34408 0 0 1.00003 0.000674108
66 25.9472 0.923271 0.426271 0 0 1.00003 0.000635315
70 27.6584 1.27219 0.384501 0 0 1.00003 0.000812451
71 27.6979 0.503031 0.868273 0 0 1.00003 0.000808773
72 26.8264 1.0197 1.25119 0 0 1.00003 0.000740386
69 26.8617 0.238605 0.226754 0 0 1.00003 0.000718777
913 28.4755 0.338557 1.39701 0 0 1.00003 0.000884581
76 28.7487 1.22982 0.733259 0 0 1.00003 0.000907249
914 29.492 0.949085 1.56211 0 0 1.00003 0.000972881
993 28.6204 1.71147 1.49233 0 0 1.00003 0.000925581
917 29.9309 0.167855 1.45367 0 0 1.00002 0.000989644
75 29.378 0.35297 0.613145 0 0 1.00003 0.000937877
841 31.7109 0.267581 1.25673 0 0 1.00002 0.00106325
79 30.8249 0.481058 0.475082 0 0 1.00002 0.00102013
80 30.2099 1.19395 0.770915 0 0 1.00002 0.00100528
918 30.9817 0.969447 1.39042 0 0 1.00002 0.0010503
82 1.23563 2.4388 0.125374 0 0 1.00002 0.00112462
84 0.260603 2.38111 0.809773 0 0 1.00002 0.00111535
163 1.41604 3.23706 0.948043 0 0 1.00002 0.00117636
922 1.26765 2.36589 1.59239 0 0 1.00002 0.00114823
1001 0.516577 3.03454 1.54952 0 0 1.00002 0.00117279
161 0.460264 3.10022 0.131079 0 0 1.00002 0.00114841
88 2.03572 2.42203 0.787135 0 0 1.00001 0.0011272
167 2.78009 3.29103 0.862791 0 0 1.00001 0.00116093
926 2.79324 2.2426 1.54406 0 0 1.00001 0.00112342
86 2.84213 2.39175 0.0557614 0 0 1.00001 0.00110355
1009 3.38316 3.43613 1.65955 0 0 1.00001 0.00117462
92 3.49687 2.56796 0.786471 0 0 1.00001 0.00109688
91 4.11314 1.84842 0.717132 0 0 1.00001 0.00103693
96 5.00856 2.58695 0.823992 0 0 1.00001 0.00102002
171 4.31079 3.33577 0.756608 0 0 1.00001 0.00110061
930 4.24689 2.65626 1.59166 0 0 1.00001 0.00108779
94 5.73636 2.46228 0.136801 0 0 1.00001 0.000953437
100 6.62991 2.20017 0.782832 0 0 1 0.000876447
175 5.74118 3.21957 0.963572 0 0 1.00001 0.00100505
934 5.94563 2.21558 1.50843 0 0 1 0.000952765
1017 6.6024 3.09226 1.56911 0 0 1 0.000944651
177 6.7209 2.9551 0.135456 0 0 1 0.000897607
98 7.50887 2.24606 0.141853 0 0 1 0.000791262
104 8.12849 2.22233 0.942211 0 0 1 0.000738623
179 7.46281 3.09335 0.942239 0 0 1 0.000848801
938 7.35996 2.0803 1.58457 0 0 1 0.000825604
1021 8.23432 3.02915 1.67063 0 0 1 0.000789889
181 8.3135 2.99718 0.0414847 0 0 1 0.00074709
102 8.93292 2.10837 0.255993 0 0 1 0.000641333
108 9.78534 2.04327 1.12031 0 0 1 0.000561973
183 8.95748 2.99965 0.941256 0 0 1 0.000690956
942 9.05846 2.2429 1.72366 0 0 1 0.000665062
185 9.57996 2.93241 0.215342 0 0 1 0.000610089
106 10.2849 2.1324 0.216288 0 0 1 0.000498056
112 11.1438 1.84335 0.779994 0 0 1 0.000404069
187 10.6193 2.83236 0.932063 0 0 1 0.000502838
1029 11.4274 2.855 1.59404 0 0 1 0.000439903
116 12.6346 1.95454 0.601138 0 0 1 0.00025998
191 11.9021 2.66324 0.749498 0 0 1 0.000359396
950 11.8984 1.93593 1.48008 0 0 1 0.000345821
1033 12.8073 3.03888 1.70383 0 0 1 0.000318602
195 13.1416 3.04526 0.853014 0 0 1 0.00026538
954 13.3322 2.00405 1.49168 0 0 1 0.000219277
114 13.3653 2.30891 0.0593621 0 0 1.00001 0.0002068
120 13.966 2.45702 0.930925 0 0 1.00001 0.000175604
1037 13.9763 3.40174 1.56727 0 0 1.00001 0.000237554
199 14.6382 3.44842 0.887003 0 0 1.00001 0.000177332
958 14.726 2.30777 1.45052 0 0 1.00001 0.000132234
118 14.779 2.52097 0.138757 0 0 1.00001 0.000117488
197 14.1023 3.23768 0.0369597 0 0 1.00001 0.000192605
124 15.6304 2.44498 0.697876 0 0 1.00001 7.88811e-05
203 16.2381 3.20201 0.668553 0 0 1.00001 9.08348e-05
962 16.2405 2.4793 1.52714 0 0 1.00001 7.70336e-05
1041 15.3104 3.2644 1.50851 0 0 1.00001 0.000146877
201 15.5045 3.26466 0.0230989 0 0 1.00001 0.000114362
128 16.9977 2.3502 0.683172 0 0 1.00002 4.25756e-05
207 17.8796 2.91994 0.699987 0 0 1.00002 6.67321e-05
966 17.954 2.43057 1.57952 0 0 1.00002 6.5759e-05
1045 17.0243 3.11186 1.49591 0 0 1.00001 9.03148e-05
132 18.8327 2.3478 1.00859 0 0 1.00002 7.0507e-05
211 19.6516 3.22145 1.26897 0 0 1.00002 0.000147413
209 18.8252 2.98389 0.193434 0 0 1.00002 8.64192e-05
130 19.5373 2.32615 0.102519 0 0 1.00002 9.03265e-05
973 20.2829 1.77305 1.71515 0 0 1.00002 0.000139062
134 21.1291 2.39856 0.45357 0 0 1.00003 0.000195974
136 20.1527 2.44989 1.10534 0 0 1.00002 0.00013919
215 21.2867 3.26995 1.37765 0 0 1.00003 0.000263178
213 20.3817 2.97483 0.330983 0 0 1.00003 0.000165257
139 22.8748 2.04754 1.49569 0 0 1.00003 0.000356442
138 22.975 2.57841 0.727261 0 0 1.00003 0.000372502
140 22.0818 2.47621 1.2264 0 0 1.00003 0.000293049
217 21.975 3.17389 0.593626 0 0 1.00003 0.000303162
16179 22.6806 3.37056 0.0718893 0 0 1.00003 0.000374816
141 23.7598 1.79098 0.617584 0 0 1.00003 0.000425174
143 24.4599 1.96743 1.59227 0 0 1.00003 0.000525503
142 24.3734 2.6573 0.76639 0 0 1.00003 0.000524261
144 23.7082 2.87284 1.51941 0 0 1.00003 0.000480485
223 24.5124 3.47804 1.53883 0 0 1.00003 0.000600022
16108 24.9991 2.81684 0.0143794 0 0 1.00003 0.000594624
149 26.6178 1.77849 0.506973 0 0 1.00003 0.000727136
145 25.1759 1.83814 0.506325 0 0 1.00003 0.000576813
146 25.8514 2.58768 0.698866 0 0 1.00003 0.000679973
148 25.2077 2.53331 1.50806 0 0 1.00003 0.000624917
227 25.7847 3.46644 1.49724 0 0 1.00003 0.000738284
152 26.6085 2.54039 1.51512 0 0 1.00003 0.000775812
229 26.2419 3.47263 0.590346 0 0 1.00003 0.000767001
151 27.589 1.97031 1.22527 0 0 1.00003 0.000840914
153 28.3465 2.07726 0.341445 0 0 1.00003 0.000897299
150 27.169 2.67122 0.635976 0 0 1.00003 0.000818817
231 27.2926 3.3281 1.40247 0 0 1.00003 0.000883231
156 28.3528 2.7384 1.19407 0 0 1.00003 0.000940203
233 28.0795 3.20105 0.328079 0 0 1.00003 0.000925807
997 30.0768 1.80016 1.70014 0 0 1.00003 0.00103702
155 29.5544 2.02883 0.878561 0 0 1.00003 0.00099218
154 29.3028 2.65425 0.286106 0 0 1.00003 0.000994557
235 29.3672 3.2446 1.17236 0 0 1.00003 0.00104523
159 31.0319 1.97621 0.921782 0 0 1.00002 0.00107092
160 30.3011 2.70108 0.997794 0 0 1.00002 0.00106875
239 31.1543 3.3365 0.972409 0 0 1.00002 0.00114222
998 31.1123 2.68701 1.72341 0 0 1.00002 0.00112693
237 30.2375 3.23825 0.142245 0 0 1.00002 0.00108313
157 30.5244 1.90088 0.0304043 0 0 1.00002 0.00103553
158 31.2659 2.65542 0.0761316 0 0 1.00002 0.0010995
164 0.429776 3.78083 0.919733 0 0 1.00002 0.00119857
241 0.28284 4.59715 0.476242 0 0 1.00002 0.00124718
243 1.2766 4.67196 0.989143 0 0 1.00002 0.00127552
244 0.23996 5.26326 1.27471 0 0 1.00002 0.00131936
162 1.17651 3.86235 0.0673722 0 0 1.00002 0.00120329
168 1.98201 4.0509 0.851158 0 0 1.00001 0.00122447
247 2.67635 4.87111 1.13651 0 0 1.00001 0.00128395
166 2.77959 4.15706 0.20538 0 0 1.00001 0.00120942
245 2.03778 4.973 0.282339 0 0 1.00002 0.00128619
249 3.53869 4.87943 0.164349 0 0 1.00001 0.00124024
172 3.61401 4.09476 0.892525 0 0 1.00001 0.0011866
176 5.02042 4.02881 1.18773 0 0 1.00001 0.00111577
251 4.17667 4.90408 1.15757 0 0 1.00001 0.00123233
170 4.37229 4.20352 0.14847 0 0 1.00001 0.00114922
253 5.11961 4.76996 0.341168 0 0 1.00001 0.00114975
174 5.86384 3.96624 0.19758 0 0 1 0.00103299
180 6.57618 3.79815 0.785347 0 0 1 0.000970929
255 5.78856 4.76471 1.04053 0 0 1 0.00111471
1097 6.75061 4.5511 1.66608 0 0 1 0.00104124
260 6.76569 5.17345 0.894182 0 0 1 0.00106598
184 8.24978 3.92377 0.712867 0 0 1 0.000818559
259 7.47688 4.49782 0.557215 0 0 1 0.000935486
1018 7.46845 3.90349 1.51735 0 0 1 0.000919058
1101 8.25859 4.65159 1.50782 0 0 1 0.000896833
188 9.91192 3.61159 0.898405 0 0 1 0.00062396
263 9.11487 4.60587 0.834645 0 0 1 0.00078111
265 9.88069 4.54469 0.130358 0 0 1 0.000682006
1022 9.10934 3.79907 1.51937 0 0 1 0.000742113
1105 9.89249 4.3881 1.68019 0 0 0.999999 0.000708849
182 9.01945 3.90163 0.064692 0 0 1 0.000729289
192 11.3936 3.67411 0.792473 0 0 1 0.000466924
267 10.5948 4.70265 0.9208 0 0 1 0.000628801
269 11.3761 4.7302 0.233014 0 0 1 0.000535467
1026 10.7065 3.60122 1.60932 0 0 1 0.000558908
1109 11.356 4.41321 1.72712 0 0 1 0.00055331
186 10.5859 3.88014 0.178721 0 0 1 0.000557401
196 12.4795 3.60738 0.823665 0 0 1 0.000355993
271 12.1655 4.58313 1.01307 0 0 1 0.000457253
1113 12.7132 5.02737 1.70934 0 0 1 0.000466713
275 13.186 4.71087 0.809739 0 0 1 0.000365547
273 12.6075 4.64815 0.0638307 0 0 1 0.000404525
200 13.9397 4.14578 0.703416 0 0 1.00001 0.000262922
1034 13.4411 4.24318 1.60794 0 0 1 0.000335823
1117 14.1526 5.13887 1.53548 0 0 1 0.000344136
279 14.8829 5.027 0.817738 0 0 1.00001 0.000263079
1038 14.9078 4.42782 1.60318 0 0 1.00001 0.000243567
277 14.0885 4.92362 0.0657732 0 0 1.00001 0.000298359
198 14.8994 4.20423 0.100742 0 0 1.00001 0.000196769
204 15.6024 4.07285 0.928122 0 0 1.00001 0.000164322
281 15.8115 4.77978 0.188307 0 0 1.00001 0.000191005
283 16.5274 4.58059 0.901863 0 0 1.00001 0.000166546
1042 16.2538 3.9613 1.69217 0 0 1.00001 0.000157853
1121 15.7498 5.05744 1.64766 0 0 1.00001 0.000250045
208 17.2031 3.82754 0.810469 0 0 1.00002 0.000110311
287 18.0229 4.47492 1.0937 0 0 1.00002 0.000159071
1046 17.8893 3.62859 1.65141 0 0 1.00002 0.000123512
285 17.3873 4.56923 0.0170688 0 0 1.00002 0.000145714
206 18.0725 3.84182 0.0612979 0 0 1.00002 0.00010888
212 18.818 3.6913 0.947408 0 0 1.00002 0.000129208
289 18.7672 4.59099 0.359704 0 0 1.00002 0.000171239
291 19.6414 4.6503 1.07737 0 0 1.00002 0.000224489
292 18.7295 5.25542 1.19293 0 0 1.00002 0.000231929
210 19.5486 3.74593 0.228302 0 0 1.00002 0.000153569
216 20.4007 3.79549 1.2232 0 0 1.00003 0.000220754
295 20.8568 4.68409 1.37832 0 0 1.00003 0.000314965
297 21.5666 4.91357 0.798292 0 0 1.00003 0.000373816
214 21.0578 3.90295 0.507465 0 0 1.00003 0.000261375
293 20.0978 4.75659 0.346602 0 0 1.00003 0.000245457
219 22.8276 3.59672 1.40351 0 0 1.00003 0.00042395
220 21.9303 4.09805 1.29551 0 0 1.00003 0.000364191
299 22.4778 5.13058 1.25663 0 0 1.00003 0.000486928
218 22.6176 4.30955 0.506498 0 0 1.00003 0.000427724
221 23.5939 3.60426 0.772025 0 0 1.00003 0.000489179
222 24.3747 4.28367 0.617026 0 0 1.00003 0.000613376
224 23.4909 4.50673 1.31686 0 0 1.00003 0.000549503
305 24.9097 5.21002 0.557477 0 0 1.00003 0.000740903
301 23.5774 5.02167 0.524684 0 0 1.00003 0.00057672
228 25.0671 4.45645 1.59947 0 0 1.00003 0.00073019
303 24.4101 5.24246 1.41234 0 0 1.00004 0.000709978
225 25.1136 3.64259 0.789533 0 0 1.00003 0.000658064
307 25.7673 5.09561 1.32613 0 0 1.00004 0.000846087
232 26.44 4.25389 1.35647 0 0 1.00003 0.000855875
309 26.5905 4.93521 0.632772 0 0 1.00003 0.00090332
226 25.594 4.36437 0.386194 0 0 1.00003 0.00075041
311 27.4335 4.83441 1.3888 0 0 1.00003 0.00100003
236 28.0655 3.94754 1.0951 0 0 1.00003 0.000982983
313 28.391 4.7082 0.697952 0 0 1.00003 0.00105823
230 27.1559 4.01027 0.568161 0 0 1.00003 0.000892255
234 29.0453 3.75294 0.478054 0 0 1.00003 0.00103884
315 29.2094 4.49819 1.31715 0 0 1.00003 0.00112197
314 29.5209 5.28672 0.80832 0 0 1.00003 0.00119336
240 30.1234 4.04646 1.02224 0 0 1.00003 0.00114014
238 31.1618 3.97223 0.364153 0 0 1.00002 0.00117478
317 30.3406 4.67018 0.479177 0 0 1.00003 0.00118906
319 31.1188 4.5938 1.39617 0 0 1.00002 0.00124122
242 1.06107 5.53065 0.461995 0 0 1.00002 0.00133597
248 1.68633 5.51778 1.38038 0 0 1.00002 0.00136177
323 0.958196 6.21237 1.27735 0 0 1.00002 0.00141828
324 0.420543 6.92119 1.50175 0 0 1.00002 0.00148847
322 1.13906 6.94382 0.570755 0 0 1.00002 0.00147133
321 0.135069 5.99396 0.447473 0 0 1.00002 0.00136089
328 1.87273 7.03648 1.24648 0 0 1.00002 0.00150108
325 2.04442 6.21023 0.515697 0 0 1.00002 0.0013971
252 3.25606 5.643 1.30588 0 0 1.00001 0.00134128
327 2.42545 6.172 1.41839 0 0 1.00001 0.00141495
246 2.8268 5.6229 0.27565 0 0 1.00001 0.00132723
332 3.40896 6.98912 1.14609 0 0 1.00001 0.0014617
329 3.54258 6.29979 0.499528 0 0 1.00001 0.00136882
250 4.32025 5.48955 0.329589 0 0 1.00001 0.00125741
331 4.26939 6.12306 1.24171 0 0 1.00001 0.00134142
333 4.95536 6.26793 0.336309 0 0 1.00001 0.00129329
336 4.91224 6.84186 1.17575 0 0 1.00001 0.00137415
330 4.14818 7.04801 0.228576 0 0 1.00001 0.00141448
256 5.05759 5.46355 1.32601 0 0 1.00001 0.00123675
254 5.88442 5.45157 0.304702 0 0 1 0.00115172
335 5.80563 6.27718 0.976063 0 0 1 0.00125134
1177 6.5659 6.03042 1.62248 0 0 1 0.001192
340 6.54574 6.91655 1.02006 0 0 1 0.00125655
337 6.48588 6.09174 0.155618 0 0 1 0.00116044
264 8.27252 5.35882 0.708278 0 0 0.999999 0.000931716
339 7.41055 6.20192 0.769054 0 0 1 0.00109884
1098 7.47435 5.46068 1.51712 0 0 1 0.00104854
1181 8.30617 6.1619 1.52137 0 0 0.999998 0.00103458
344 8.09419 6.90618 0.743417 0 0 0.999998 0.00109884
1178 7.38085 6.91075 1.6275 0 0 0.999999 0.0012121
258 7.40614 5.39939 0.0460226 0 0 1 0.00101282
268 9.79574 5.3661 0.807539 0 0 0.999999 0.000769454
343 8.93548 6.23783 0.751661 0 0 0.999997 0.000944866
1102 9.0982 5.3751 1.62118 0 0 0.999998 0.000879422
1185 9.77563 6.23922 1.49786 0 0 0.999997 0.000881549
1182 9.14938 7.00816 1.49364 0 0 0.999996 0.00103108
345 9.79504 6.28219 0.0984625 0 0 0.999998 0.00084351
262 9.04245 5.51282 0.017793 0 0 0.999998 0.000854724
272 11.3845 5.31479 1.00395 0 0 0.999999 0.000598069
347 10.6011 6.06995 0.979614 0 0 0.999997 0.000749477
349 11.3147 6.41536 0.0803622 0 0 0.999998 0.0006876
346 10.5421 6.99417 0.156874 0 0 0.999996 0.00082821
1186 10.4963 6.98122 1.52712 0 0 0.999995 0.000881238
270 11.9813 5.66394 0.187442 0 0 1 0.000547707
276 12.6487 5.85125 0.875102 0 0 1 0.000511314
351 11.7684 6.25294 1.07116 0 0 0.999998 0.000642817
1114 13.2898 5.89989 1.57867 0 0 1 0.000482643
355 13.3184 6.6134 0.823678 0 0 1 0.000513912
274 13.2803 5.5686 0.0445001 0 0 1 0.000413483
280 14.0147 5.7412 0.78253 0 0 1 0.000377986
1197 14.2798 6.67667 1.42521 0 0 1 0.000466074
357 14.0838 6.41036 0.0406662 0 0 1 0.000418134
278 14.9656 5.65566 0.0373775 0 0 1.00001 0.000295293
359 14.9911 6.4676 0.813498 0 0 1.00001 0.000373388
284 15.7683 5.74488 0.959837 0 0 1.00001 0.000277118
363 16.4293 6.45426 1.14489 0 0 1.00001 0.00031973
1118 15.0521 5.89059 1.70923 0 0 1.00001 0.00035734
282 16.555 5.41908 0.276811 0 0 1.00001 0.000214132
361 15.6165 6.34958 0.0422604 0 0 1.00001 0.000316858
286 17.766 5.29228 0.539794 0 0 1.00002 0.000199942
288 17.0475 5.41979 1.24689 0 0 1.00001 0.000227806
365 17.0019 6.27065 0.41127 0 0 1.00001 0.000273438
367 17.6051 6.23493 1.3795 0 0 1.00002 0.000296668
372 18.2211 7.03354 1.1288 0 0 1.00002 0.000361816
369 18.3175 6.21184 0.608309 0 0 1.00002 0.000278593
290 19.3846 5.72929 0.614902 0 0 1.00002 0.000278031
371 19.283 6.52694 1.33489 0 0 1.00002 0.000359855
373 19.9607 6.71461 0.602882 0 0 1.00003 0.000387962
294 20.7265 5.73673 0.644032 0 0 1.00003 0.000362507
296 20.156 5.57525 1.38033 0 0 1.00003 0.000330999
375 20.7588 6.56866 1.28484 0 0 1.00003 0.000453549
377 21.6546 6.61632 0.656552 0 0 1.00003 0.000512171
300 21.6553 5.83168 1.36251 0 0 1.00003 0.000469213
16260 21.6841 5.6904 0.0520812 0 0 1.00003 0.000432474
298 22.6865 5.78318 0.659386 0 0 1.00003 0.000544069
379 22.6512 6.64002 1.18485 0 0 1.00004 0.000630762
381 23.3829 6.72466 0.263328 0 0 1.00004 0.000691024
304 23.516 5.83564 1.27505 0 0 1.00004 0.00065505
383 24.3784 6.51192 1.14014 0 0 1.00004 0.000808027
302 24.1909 5.95538 0.417524 0 0 1.00004 0.000716927
306 25.7649 5.81636 0.686228 0 0 1.00004 0.000887947
308 25.1834 5.98821 1.64687 0 0 1.00004 0.000872354
385 25.235 6.68658 0.48465 0 0 1.00004 0.000901276
387 25.9232 6.54706 1.38373 0 0 1.00004 0.00099638
312 26.792 5.8038 1.45318 0 0 1.00004 0.00102207
310 27.6095 5.5094 0.710171 0 0 1.00003 0.00105391
389 26.8539 6.32326 0.63762 0 0 1.00004 0.00104876
391 27.8241 6.42968 1.34835 0 0 1.00003 0.00117668
390 27.8393 6.96764 0.519395 0 0 1.00003 0.00120356
316 28.4921 5.49139 1.46511 0 0 1.00003 0.00115499
395 29.5819 6.1615 1.30963 0 0 1.00003 0.0012916
394 29.7309 6.8868 0.503282 0 0 1.00003 0.00134747
393 28.6023 6.17661 0.634776 0 0 1.00003 0.00119982
16355 29.5148 6.1211 0.0753777 0 0 1.00003 0.00125579
16276 28.6054 5.36419 0.0528783 0 0 1.00003 0.00112289
318 31.1118 5.35276 0.591552 0 0 1.00002 0.00128192
320 30.3636 5.43877 1.45262 0 0 1.00003 0.00127787
397 30.5442 6.16702 0.641794 0 0 1.00003 0.00132905
399 31.3749 6.14194 1.37834 0 0 1.00002 0.0013848
398 31.3684 6.94025 0.603598 0 0 1.00002 0.00143796
401 0.437053 7.63257 0.656881 0 0 1.00002 0.00152996
402 1.02483 8.46962 0.612336 0 0 1.00002 0.0016226
403 1.28972 7.86003 1.49679 0 0 1.00002 0.00159772
404 0.543086 8.55391 1.46606 0 0 1.00002 0.00165758
405 1.77019 7.77218 0.377723 0 0 1.00002 0.00155068
408 1.91626 8.62988 1.46908 0 0 1.00002 0.00167616
326 2.64751 7.16074 0.475547 0 0 1.00001 0.0014807
406 2.38229 8.6398 0.402429 0 0 1.00001 0.00163325
407 2.57081 7.82691 1.28773 0 0 1.00001 0.00157559
412 3.19822 8.54002 0.948974 0 0 1.00001 0.00162131
409 3.40704 7.78928 0.33186 0 0 1.00001 0.00151998
410 3.98349 8.48826 0.0812725 0 0 1.00001 0.00156788
411 4.1401 7.68707 1.25209 0 0 1.00001 0.00150658
416 4.85783 8.30003 0.944007 0 0 1.00001 0.00152181
413 4.8219 7.6764 0.246232 0 0 1.00001 0.00144047
334 5.67444 7.08903 0.153142 0 0 1 0.00132486
414 6.00706 8.39269 0.177423 0 0 1 0.00143507
415 5.6226 7.62576 1.04326 0 0 1 0.00140438
417 6.60707 7.58987 0.172947 0 0 1 0.00130164
420 6.52497 8.27412 1.06613 0 0 1 0.00140345
419 7.39149 7.81728 0.764519 0 0 0.999998 0.00126647
424 8.36855 8.37101 0.892338 0 0 0.999995 0.00123349
1258 7.39075 8.23078 1.73479 0 0 0.999996 0.00136283
1261 8.14303 7.54329 1.59258 0 0 0.999996 0.00120327
421 8.08485 7.65699 0.0292148 0 0 0.999997 0.00116714
348 9.87973 7.27339 0.742866 0 0 0.999996 0.000945182
423 8.97828 7.67025 0.678784 0 0 0.999995 0.00108398
428 9.78687 8.67393 0.714391 0 0 0.999993 0.00110261
1262 9.1645 8.75622 1.48414 0 0 0.999993 0.0012254
1265 9.70311 7.94496 1.63562 0 0 0.999994 0.00108439
352 11.3195 7.19159 0.827167 0 0 0.999996 0.000777758
427 10.6041 7.99616 0.864767 0 0 0.999994 0.000943304
1266 10.6255 8.7638 1.46581 0 0 0.999993 0.00105941
1269 11.4164 7.86278 1.63693 0 0 0.999995 0.00088089
429 11.2419 8.16905 0.046488 0 0 0.999996 0.00086793
356 12.6866 7.32725 0.579511 0 0 0.999999 0.000636968
431 12.1736 8.27719 0.608188 0 0 0.999996 0.000788193
1190 12.0643 7.20526 1.40684 0 0 0.999997 0.000724721
1270 12.0911 8.7306 1.52769 0 0 0.999994 0.00089409
1273 12.8418 8.04185 1.50577 0 0 0.999997 0.000737946
350 11.8925 7.43405 0.000577155 0 0 0.999997 0.00072154
360 14.2855 7.37956 0.598716 0 0 1 0.000498712
435 13.5843 8.1284 0.478332 0 0 1 0.000626731
1194 13.4325 7.37472 1.36691 0 0 1 0.000602138
1277 14.2117 8.20719 1.37398 0 0 1 0.000619844
439 15.0246 8.31116 0.874783 0 0 1 0.000544881
362 16.3742 7.18597 0.281367 0 0 1.00001 0.000361669
364 15.5749 7.32095 0.924293 0 0 1.00001 0.000420843
443 16.2082 8.16426 1.11537 0 0 1.00001 0.000482101
1198 15.0926 7.54072 1.64508 0 0 1 0.000508753
441 15.8084 8.31981 0.155536 0 0 1.00001 0.000484012
368 16.9201 7.35573 1.1167 0 0 1.00001 0.000388199
445 17.0089 8.10011 0.338177 0 0 1.00001 0.000430007
447 17.6549 8.01101 1.02584 0 0 1.00002 0.00043927
366 17.7607 7.15421 0.216448 0 0 1.00002 0.000342567
370 18.963 7.30946 0.635185 0 0 1.00002 0.000389785
451 18.8875 8.12433 1.17226 0 0 1.00002 0.000481301
376 19.8424 7.61806 1.30657 0 0 1.00003 0.000485885
453 19.7733 8.10333 0.356054 0 0 1.00003 0.00049292
449 18.404 8.16781 0.173504 0 0 1.00002 0.000440027
374 20.6819 7.41723 0.660019 0 0 1.00003 0.000499607
455 20.6369 8.39279 1.01641 0 0 1.00003 0.000597452
380 21.5452 7.62095 1.12679 0 0 1.00003 0.000608023
457 21.6183 8.29336 0.254494 0 0 1.00003 0.000650215
459 22.6177 8.12332 0.995902 0 0 1.00004 0.000757207
1218 22.4416 7.44343 1.72336 0 0 1.00004 0.000712761
378 22.3541 7.43164 0.378285 0 0 1.00004 0.000646075
384 23.489 7.26779 1.03355 0 0 1.00004 0.000772
461 23.536 8.02141 0.374446 0 0 1.00004 0.000830603
463 24.4155 8.04121 0.976957 0 0 1.00004 0.000950669
1302 24.332 8.66333 1.65222 0 0 1.00004 0.00104491
382 24.3988 7.26994 0.265057 0 0 1.00004 0.000855118
462 24.3879 8.76663 0.203105 0 0 1.00004 0.0009973
388 25.2014 7.33909 1.22841 0 0 1.00004 0.000984671
467 26.1307 7.95526 0.97075 0 0 1.00004 0.00113842
1306 26.1396 8.57268 1.72047 0 0 1.00004 0.00124875
386 26.1897 7.22472 0.362705 0 0 1.00004 0.00105582
465 25.3176 8.07248 0.302906 0 0 1.00004 0.00103939
466 26.3881 8.53567 0.0881043 0 0 1.00004 0.00120425
468 25.3839 8.8018 0.985306 0 0 1.00004 0.00114124
392 26.9027 7.06675 1.31908 0 0 1.00004 0.00114845
470 28.1123 8.46453 0.415738 0 0 1.00004 0.00137516
471 27.9413 7.79288 1.19433 0 0 1.00004 0.00131735
472 27.1136 8.60873 1.00622 0 0 1.00004 0.0013125
469 27.1209 7.73738 0.42574 0 0 1.00004 0.00120541
396 28.7959 7.07585 1.21493 0 0 1.00003 0.00131872
474 29.7647 8.33683 0.537134 0 0 1.00003 0.00149382
475 29.6607 7.65158 1.26556 0 0 1.00003 0.00144021
476 28.9409 8.52259 1.17006 0 0 1.00004 0.00147474
473 28.8488 7.68968 0.410288 0 0 1.00003 0.00136085
400 30.4901 7.07104 1.17237 0 0 1.00003 0.00142803
479 31.4259 7.80785 1.29395 0 0 1.00003 0.00154856
480 30.6113 8.47063 1.17757 0 0 1.00003 0.00157616
477 30.8084 7.85669 0.37975 0 0 1.00003 0.0015005
478 31.6111 8.60752 0.389897 0 0 1.00002 0.00160733
482 1.32733 10.2845 0.270473 0 0 1.00002 0.00179741
483 1.21694 9.3705 1.20247 0 0 1.00002 0.00173823
484 0.460032 9.92833 0.8994 0 0 1.00002 0.00176809
481 0.562607 9.33557 0.123925 0 0 1.00002 0.00169613
1322 1.02443 10.127 1.75277 0 0 1.00002 0.00184784
485 1.94771 9.46137 0.449433 0 0 1.00002 0.00172245
488 2.03218 10.3709 0.974551 0 0 1.00002 0.00182616
486 2.7862 10.2906 0.0801279 0 0 1.00001 0.00178517
487 2.56699 9.45983 1.22687 0 0 1.00001 0.00174269
1326 2.9716 10.2509 1.68186 0 0 1.00001 0.0018442
489 3.25816 9.38546 0.0884917 0 0 1.00001 0.00168652
1329 3.39909 9.26406 1.67798 0 0 1.00001 0.00173027
492 3.56884 10.0611 0.748211 0 0 1.00001 0.00175647
491 4.10752 9.13875 0.868365 0 0 1.00001 0.00164666
493 4.73863 9.22129 0.00689843 0 0 1.00001 0.00160519
496 4.77603 10.0133 0.579643 0 0 1 0.00169331
1330 4.30793 9.99961 1.63108 0 0 1.00001 0.0017698
1333 4.84264 9.10227 1.66913 0 0 1 0.00165078
495 5.48163 8.99059 0.671732 0 0 1 0.00154683
500 6.38246 9.84037 0.528611 0 0 0.999998 0.00156396
1334 5.48438 9.87314 1.1931 0 0 1 0.00166104
1337 6.29562 9.10632 1.28503 0 0 0.999999 0.00152662
1417 6.39322 10.5583 1.21721 0 0 0.999997 0.00166721
499 7.28252 8.93095 0.729652 0 0 0.999996 0.00139643
501 8.19339 9.1005 0.0864626 0 0 0.999995 0.00130988
504 8.07087 9.97868 0.592541 0 0 0.999994 0.00142388
1338 7.30188 9.78985 1.22274 0 0 0.999996 0.0015106
1341 8.14931 9.22108 1.43176 0 0 0.999994 0.00138166
503 9.02219 9.50676 0.746917 0 0 0.999992 0.00128099
508 9.71684 10.3863 0.68136 0 0 0.999991 0.00129147
1342 8.84935 10.3135 1.44646 0 0 0.999991 0.00142891
1345 9.89398 9.64186 1.45109 0 0 0.999991 0.00123993
432 11.3894 8.89739 0.750862 0 0 0.999994 0.000944214
426 10.4441 8.93605 0.0412135 0 0 0.999994 0.0010406
507 10.5113 9.73319 0.675931 0 0 0.999992 0.00113283
1346 10.6848 10.2268 1.67796 0 0 0.99999 0.00123346
1349 11.3383 9.68209 1.35221 0 0 0.999992 0.00107083
436 12.9846 8.99939 0.802614 0 0 0.999997 0.000783774
511 12.1143 9.8565 0.70549 0 0 0.999993 0.000961393
516 12.8194 10.5146 0.981413 0 0 0.999993 0.000962635
1353 12.5526 9.6614 1.64732 0 0 0.999993 0.000958068
1274 13.6642 8.88328 1.59427 0 0 0.999997 0.000756127
440 14.4293 9.21955 0.772326 0 0 1 0.000672799
515 13.514 9.72081 0.854222 0 0 0.999997 0.000806958
1354 13.4903 10.4502 1.74029 0 0 0.999994 0.00095313
517 14.2423 10.174 0.222334 0 0 0.999999 0.000761925
444 15.8528 9.16707 1.14283 0 0 1.00001 0.000596442
519 15.0948 9.87868 1.02419 0 0 1 0.000700756
521 15.6473 10.1899 0.2543 0 0 1.00001 0.000664978
523 16.4618 9.96118 0.966399 0 0 1.00001 0.000636344
442 16.4578 9.03695 0.263587 0 0 1.00001 0.000526401
438 15.2511 9.22016 0.10333 0 0 1 0.000597112
452 18.2589 8.88057 0.938961 0 0 1.00002 0.000522728
448 17.0467 9.06318 1.12823 0 0 1.00001 0.000547968
525 17.1116 10.021 0.207068 0 0 1.00001 0.000599291
527 17.7365 9.85745 1.06884 0 0 1.00002 0.000614361
446 17.7188 9.09683 0.118666 0 0 1.00002 0.000513032
456 19.8031 8.92715 1.05007 0 0 1.00003 0.000594499
529 18.5643 9.71517 0.299302 0 0 1.00002 0.000584095
531 19.4859 9.87104 0.844373 0 0 1.00003 0.000652439
532 18.6968 10.4372 1.13686 0 0 1.00002 0.000688203
1369 18.6264 9.5666 1.69803 0 0 1.00002 0.000650047
450 19.2117 8.93627 0.209731 0 0 1.00002 0.000535895
533 19.9788 9.75598 0.0712587 0 0 1.00003 0.000650705
535 20.9395 9.77316 0.742962 0 0 1.00003 0.00074014
1373 20.2443 9.63109 1.65026 0 0 1.00003 0.000733522
454 20.7885 9.04198 0.202657 0 0 1.00003 0.000646347
460 21.6474 8.9931 0.963178 0 0 1.00004 0.000739988
1374 21.1046 10.0719 1.75754 0 0 1.00004 0.000853969
1298 22.4358 8.84128 1.56226 0 0 1.00004 0.000841066
539 22.8814 9.64735 0.791206 0 0 1.00004 0.000923656
540 22.1418 10.4843 0.852762 0 0 1.00004 0.000923248
1377 21.9563 9.74699 1.51588 0 0 1.00004 0.000879796
1378 23.1014 10.4706 1.42132 0 0 1.00004 0.00106757
458 22.7954 8.82644 0.197518 0 0 1.00004 0.000819514
537 21.9999 9.76781 0.209083 0 0 1.00004 0.000823591
464 23.4926 8.92327 0.954903 0 0 1.00004 0.000929456
543 24.6052 9.5227 0.750952 0 0 1.00004 0.00111272
1381 23.7692 9.56308 1.5361 0 0 1.00004 0.00106657
1382 24.484 10.3047 1.43256 0 0 1.00004 0.00121394
544 23.6857 10.5028 0.613124 0 0 1.00004 0.00108901
542 24.5403 10.286 0.104158 0 0 1.00004 0.00115826
1385 25.1732 9.47746 1.63258 0 0 1.00004 0.00122738
547 26.3516 9.34709 0.864377 0 0 1.00004 0.00129845
548 25.4953 10.2164 0.806879 0 0 1.00004 0.00128376
1386 26.1153 10.2522 1.5524 0 0 1.00005 0.00140834
545 25.7114 9.46741 0.170699 0 0 1.00004 0.00122099
1389 26.7987 9.39292 1.70219 0 0 1.00004 0.00140639
551 28.1286 9.31472 0.934229 0 0 1.00004 0.00147852