ITEM: TIMESTEP
36500
ITEM: NUMBER OF ATOMS
32000
ITEM: BOX BOUNDS pp pp pp
0.0000000000000000e+00 3.1748021039364001e+01
0.0000000000000000e+00 3.1748021039364001e+01
0.0000000000000000e+00 3.1748021039364001e+01
ITEM: ATOMS id x y z c_phase c_nbond c_rho vx
4 0.513495 1.09331 0.476707 0 0 1.00005 0.00225153
83 1.37403 1.66503 0.788965 0 0 1.00004 0.00230222
842 1.12597 0.788511 1.40544 0 0 1.00004 0.0022864
921 0.41503 1.59357 1.38664 0 0 1.00005 0.00228131
3 1.12984 0.0745363 0.629288 0 0 1.00004 0.00226189
841 0.240094 0.269467 1.25758 0 0 1.00005 0.00224225
8 2.11597 0.832876 1.01416 0 0 1.00004 0.00229963
85 2.20985 1.49773 0.207565 0 0 1.00004 0.00230673
925 2.25464 1.65976 1.75188 0 0 1.00004 0.00234728
6 2.91001 0.742437 0.203546 0 0 1.00004 0.00229381
7 2.97455 0.0622685 1.04146 0 0 1.00004 0.00229889
87 3.04236 1.54985 0.876848 0 0 1.00004 0.00232303
846 3.08344 0.831696 1.74093 0 0 1.00004 0.00232871
12 3.81178 0.926456 0.973383 0 0 1.00004 0.00230406
849 3.87514 0.0838558 1.726 0 0 1.00004 0.00231493
929 3.99942 1.71624 1.72531 0 0 1.00004 0.00234813
10 4.4896 0.864067 0.320137 0 0 1.00004 0.00228018
850 4.70078 0.950864 1.65557 0 0 1.00004 0.00230786
9 3.84635 0.100933 0.181536 0 0 1.00004 0.00228207
93 5.28405 1.61264 0.392175 0 0 1.00004 0.00227993
16 5.33834 0.571391 1.1628 0 0 1.00004 0.0022651
14 5.99094 0.649491 0.319861 0 0 1.00003 0.00222604
95 6.22239 1.33346 0.968634 0 0 1.00003 0.00224049
854 6.13647 0.464092 1.72701 0 0 1.00003 0.00224859
933 5.3814 1.72693 1.45584 0 0 1.00004 0.00230308
97 6.89225 1.41944 0.223302 0 0 1.00003 0.00219655
20 7.02463 0.408119 0.889788 0 0 1.00003 0.00217699
937 7.01238 1.03132 1.72357 0 0 1.00003 0.00221314
99 7.66193 1.24968 0.965264 0 0 1.00003 0.00215519
18 7.86347 0.668787 0.158554 0 0 1.00003 0.00211758
941 8.4068 1.29428 1.64531 0 0 1.00003 0.00212574
101 8.5095 1.41429 0.241959 0 0 1.00003 0.00209048
24 8.52334 0.420995 1.08435 0 0 1.00003 0.00208153
22 9.09423 0.517668 0.266809 0 0 1.00003 0.00202568
28 9.7737 0.339229 0.917224 0 0 1.00003 0.00197744
103 9.25884 1.33288 1.11868 0 0 1.00003 0.00204513
105 9.85038 1.38756 0.101875 0 0 1.00003 0.00198311
32 11.3649 0.220451 0.655702 0 0 1.00003 0.00183616
107 10.5561 1.07202 0.843751 0 0 1.00003 0.00192242
866 10.7053 0.207294 1.47757 0 0 1.00003 0.00191271
949 11.4561 1.03123 1.44515 0 0 1.00003 0.00185849
946 10.769 1.71472 1.75618 0 0 1.00003 0.00195159
26 10.4362 0.372655 0.0811294 0 0 1.00003 0.0019125
36 12.9896 0.220999 0.652668 0 0 1.00003 0.00169648
111 12.1708 1.09245 0.526672 0 0 1.00003 0.00177725
870 12.2625 0.32145 1.32953 0 0 1.00003 0.00177402
953 12.8392 1.20985 1.40029 0 0 1.00003 0.00174147
40 14.45 0.337225 0.795 0 0 1.00003 0.00158532
115 13.6802 1.12311 0.857981 0 0 1.00003 0.0016577
117 14.1312 1.57361 0.159148 0 0 1.00003 0.00162647
874 13.7087 0.367006 1.65897 0 0 1.00003 0.0016639
957 14.4584 1.16787 1.50084 0 0 1.00003 0.00161583
119 14.9507 1.56602 0.672975 0 0 1.00003 0.00157407
38 15.1608 0.714526 0.0674153 0 0 1.00003 0.00153445
44 15.7664 0.766049 0.793149 0 0 1.00003 0.00150605
123 16.5973 1.54501 0.68699 0 0 1.00003 0.00148288
878 15.2078 0.468121 1.65448 0 0 1.00003 0.00155764
882 16.5935 0.709905 1.35006 0 0 1.00003 0.0014772
961 15.6875 1.50125 1.40525 0 0 1.00003 0.001543
48 17.3086 0.728483 0.559317 0 0 1.00003 0.00143572
127 17.9743 1.5806 0.754968 0 0 1.00003 0.00144163
886 17.9657 0.743988 1.42458 0 0 1.00003 0.00143672
965 17.271 1.74579 1.56627 0 0 1.00003 0.00148443
51 19.5994 0.0106442 0.661772 0 0 1.00004 0.00140936
52 18.8451 0.725231 0.686022 0 0 1.00004 0.00141143
131 19.6069 1.54096 0.836921 0 0 1.00004 0.00143554
889 19.0791 0.150902 1.5394 0 0 1.00004 0.00142395
890 19.6634 0.959949 1.6823 0 0 1.00004 0.00144265
969 18.7233 1.49887 1.49564 0 0 1.00004 0.0014465
55 21.2038 0.344086 1.05775 0 0 1.00004 0.00145807
56 20.3258 0.768798 0.966601 0 0 1.00004 0.00143371
135 21.2036 1.62365 0.948688 0 0 1.00004 0.00148196
54 21.2815 0.75713 0.212821 0 0 1.00004 0.00145596
133 20.4262 1.49676 0.200173 0 0 1.00004 0.00144308
973 20.4122 1.76132 1.7162 0 0 1.00004 0.00148038
57 22.1338 0.26671 0.530796 0 0 1.00004 0.00149402
59 22.9475 0.4225 1.38292 0 0 1.00005 0.00155983
60 22.2431 1.13503 1.31279 0 0 1.00004 0.00152735
137 22.1201 1.57979 0.52062 0 0 1.00004 0.0015173
58 23.064 1.04343 0.451349 0 0 1.00005 0.00156044
63 24.4491 0.372663 1.40766 0 0 1.00005 0.00167231
61 23.7427 0.346615 0.567763 0 0 1.00005 0.00159996
62 24.6384 1.15791 0.739022 0 0 1.00005 0.00168526
64 23.66 1.21983 1.37652 0 0 1.00005 0.00162449
65 25.1837 0.311048 0.538257 0 0 1.00005 0.00171662
67 26.2643 0.369891 1.15392 0 0 1.00005 0.00182046
68 25.4021 1.10797 1.44422 0 0 1.00005 0.00176589
147 26.1953 1.70868 1.33143 0 0 1.00005 0.00184951
66 26.1469 0.924453 0.417661 0 0 1.00005 0.00180635
70 27.8886 1.26514 0.379169 0 0 1.00005 0.00196745
71 27.9263 0.493433 0.863637 0 0 1.00005 0.00196224
72 27.0392 1.01275 1.23753 0 0 1.00005 0.00190194
69 27.0722 0.238861 0.232809 0 0 1.00005 0.0018768
149 26.8335 1.76337 0.504749 0 0 1.00005 0.00189247
913 28.726 0.343365 1.40175 0 0 1.00005 0.0020388
76 28.992 1.21247 0.721067 0 0 1.00005 0.00205962
914 29.7336 0.957794 1.5552 0 0 1.00005 0.0021298
993 28.8592 1.70751 1.49095 0 0 1.00005 0.00208257
75 29.6292 0.349858 0.613189 0 0 1.00005 0.00209091
917 30.202 0.161114 1.44288 0 0 1.00005 0.00214877
79 31.1025 0.465109 0.483221 0 0 1.00005 0.00218548
80 30.465 1.18483 0.766576 0 0 1.00005 0.00216565
918 31.2463 0.96721 1.38491 0 0 1.00005 0.00222021
82 1.51791 2.43629 0.117795 0 0 1.00004 0.00233318
84 0.543659 2.37616 0.805776 0 0 1.00005 0.00230576
922 1.55511 2.3664 1.59158 0 0 1.00004 0.00236045
1001 0.802183 3.03646 1.54978 0 0 1.00005 0.0023749
161 0.742114 3.10476 0.129396 0 0 1.00005 0.00234718
163 1.70198 3.22591 0.943534 0 0 1.00004 0.002395
88 2.32482 2.41708 0.790891 0 0 1.00004 0.00235445
167 3.06857 3.29493 0.8615 0 0 1.00004 0.00241395
926 3.08818 2.25662 1.55485 0 0 1.00004 0.00237218
86 3.12241 2.3989 0.0543032 0 0 1.00004 0.00235091
1005 2.52913 3.10966 1.7614 0 0 1.00004 0.00242749
1009 3.68658 3.43119 1.66582 0 0 1.00004 0.00244656
92 3.78211 2.57774 0.795255 0 0 1.00004 0.00236436
91 4.3902 1.84664 0.722893 0 0 1.00004 0.00231751
171 4.59434 3.34767 0.765464 0 0 1.00004 0.0023972
930 4.54059 2.66428 1.59724 0 0 1.00004 0.00237919
96 5.27883 2.59016 0.832835 0 0 1.00004 0.0023322
94 6.00304 2.4762 0.143497 0 0 1.00003 0.00228746
175 6.0199 3.23648 0.973099 0 0 1.00003 0.0023455
934 6.21085 2.23649 1.51479 0 0 1.00003 0.00229357
173 5.36396 3.35919 0.0100587 0 0 1.00003 0.00236842
1017 6.87848 3.10936 1.57452 0 0 1.00003 0.00231214
100 6.88779 2.21694 0.794261 0 0 1.00003 0.002237
177 6.97344 2.98292 0.134301 0 0 1.00003 0.00226676
98 7.75133 2.26235 0.141707 0 0 1.00003 0.00217848
179 7.71876 3.10779 0.940052 0 0 1.00003 0.00224146
938 7.61187 2.09712 1.59683 0 0 1.00003 0.00221052
104 8.37338 2.23607 0.955111 0 0 1.00003 0.00214507
1021 8.48387 3.04702 1.68426 0 0 1.00003 0.00220832
181 8.55556 3.01552 0.0449466 0 0 1.00003 0.00216377
102 9.16085 2.13229 0.257617 0 0 1.00003 0.00206869
108 9.99914 2.05751 1.12197 0 0 1.00003 0.0020119
183 9.18892 3.01957 0.953781 0 0 1.00003 0.00212821
942 9.28526 2.26003 1.74285 0 0 1.00003 0.00210192
185 9.80478 2.95688 0.213703 0 0 1.00003 0.00206131
106 10.486 2.14717 0.211845 0 0 1.00003 0.00195895
112 11.3313 1.86386 0.789317 0 0 1.00003 0.00188052
187 10.8217 2.85165 0.939386 0 0 1.00003 0.00197811
1029 11.6178 2.87912 1.61583 0 0 1.00002 0.00193362
116 12.7979 1.96793 0.61197 0 0 1.00003 0.00175372
191 12.0838 2.68873 0.755339 0 0 1.00003 0.00185385
950 12.0801 1.95132 1.49542 0 0 1.00003 0.00183595
1033 12.9842 3.06004 1.72226 0 0 1.00003 0.00182887
195 13.32 3.05783 0.853809 0 0 1.00003 0.00177088
954 13.4929 2.01909 1.50323 0 0 1.00003 0.00171926
114 13.5207 2.32695 0.0574462 0 0 1.00003 0.00170545
120 14.1171 2.47188 0.933473 0 0 1.00003 0.0016761
1037 14.1404 3.42363 1.57859 0 0 1.00003 0.00175226
199 14.7946 3.46303 0.88735 0 0 1.00003 0.00168522
958 14.8775 2.32346 1.45283 0 0 1.00003 0.00162771
118 14.9192 2.52843 0.140536 0 0 1.00003 0.00161149
197 14.2539 3.25093 0.0429742 0 0 1.00003 0.00170046
124 15.7608 2.44975 0.705765 0 0 1.00003 0.00156115
203 16.3785 3.21013 0.679354 0 0 1.00003 0.00156999
962 16.3733 2.4839 1.53232 0 0 1.00003 0.00155112
1041 15.4657 3.27653 1.51967 0 0 1.00003 0.00164649
201 15.6449 3.27654 0.0279128 0 0 1.00003 0.00160796
128 17.124 2.35728 0.685819 0 0 1.00003 0.00149342
207 18.007 2.92345 0.7049 0 0 1.00003 0.0014983
966 18.0784 2.42863 1.58532 0 0 1.00003 0.00149356
1045 17.1572 3.11596 1.50344 0 0 1.00003 0.00155222
132 18.9561 2.3473 1.00722 0 0 1.00004 0.00146542
211 19.7805 3.20943 1.26496 0 0 1.00004 0.00152281
209 18.9508 2.98221 0.190073 0 0 1.00004 0.00148648
130 19.6649 2.31529 0.105617 0 0 1.00004 0.00145754
134 21.2708 2.39047 0.44933 0 0 1.00004 0.00150631
136 20.2865 2.43742 1.099 0 0 1.00004 0.00148731
215 21.4356 3.25854 1.36598 0 0 1.00004 0.00157796
213 20.5137 2.96928 0.327171 0 0 1.00004 0.0015079
139 23.0371 2.02529 1.49112 0 0 1.00005 0.00160799
138 23.1318 2.56412 0.719594 0 0 1.00005 0.0016213
140 22.2255 2.4604 1.22042 0 0 1.00004 0.0015713
217 22.1226 3.15945 0.592174 0 0 1.00004 0.00159015
16179 22.852 3.34729 0.060438 0 0 1.00005 0.00163972
141 23.9215 1.77997 0.612018 0 0 1.00005 0.00164521
143 24.6382 1.95235 1.57067 0 0 1.00005 0.00173167
142 24.556 2.63717 0.759062 0 0 1.00005 0.00173514
144 23.8812 2.84556 1.50654 0 0 1.00005 0.00171153
223 24.7075 3.45451 1.52493 0 0 1.00005 0.00181619
16108 25.1923 2.78654 0.0120247 0 0 1.00005 0.00179125
145 25.3663 1.82261 0.509784 0 0 1.00005 0.00176464
146 26.0601 2.5652 0.688982 0 0 1.00005 0.00186042
148 25.4093 2.51968 1.49186 0 0 1.00005 0.00181931
227 26 3.43936 1.48722 0 0 1.00005 0.00192873
229 26.4708 3.44877 0.58128 0 0 1.00005 0.00194933
152 26.8258 2.5266 1.50051 0 0 1.00005 0.00194794
151 27.8179 1.95465 1.21011 0 0 1.00005 0.00200022
150 27.3989 2.64987 0.62301 0 0 1.00005 0.00198411
231 27.5403 3.30223 1.39048 0 0 1.00005 0.00205516
233 28.3253 3.18483 0.333096 0 0 1.00005 0.0020908
153 28.5925 2.06372 0.339496 0 0 1.00005 0.00205374
156 28.6 2.71631 1.18032 0 0 1.00005 0.00210199
155 29.8033 2.00455 0.878438 0 0 1.00005 0.00215063
154 29.5575 2.65584 0.28112 0 0 1.00005 0.00215693
235 29.638 3.21988 1.17463 0 0 1.00005 0.0022133
997 30.3517 1.7885 1.69082 0 0 1.00005 0.0022026
159 31.3061 1.95984 0.918633 0 0 1.00005 0.00224456
160 30.5698 2.68591 0.994067 0 0 1.00005 0.00223833
239 31.4404 3.31144 0.971673 0 0 1.00005 0.00232617
998 31.3929 2.67223 1.72127 0 0 1.00005 0.00230853
237 30.5221 3.21118 0.157944 0 0 1.00005 0.00225536
157 30.781 1.89012 0.0403311 0 0 1.00005 0.00220071
158 31.5406 2.63897 0.0765079 0 0 1.00005 0.00227891
164 0.722925 3.77138 0.919755 0 0 1.00005 0.00240275
241 0.585332 4.59533 0.463977 0 0 1.00005 0.00245766
243 1.57522 4.66162 0.990135 0 0 1.00004 0.00250528
244 0.560817 5.25119 1.27054 0 0 1.00005 0.00253722
162 1.47471 3.85401 0.0792084 0 0 1.00004 0.00242183
1081 0.921835 4.39236 1.76176 0 0 1.00005 0.00248967
168 2.29512 4.04609 0.857118 0 0 1.00004 0.00246372
247 2.98799 4.87911 1.131 0 0 1.00004 0.00254987
166 3.08282 4.16139 0.199529 0 0 1.00004 0.00246974
245 2.34768 4.96415 0.288094 0 0 1.00004 0.00253529
249 3.85024 4.8845 0.168398 0 0 1.00004 0.00252801
172 3.90542 4.10644 0.899822 0 0 1.00004 0.00246988
251 4.49367 4.91559 1.16638 0 0 1.00004 0.00253993
170 4.66016 4.2089 0.146485 0 0 1.00004 0.00245436
176 5.31226 4.05159 1.17953 0 0 1.00003 0.00244106
253 5.41717 4.78956 0.336037 0 0 1.00003 0.00248436
174 6.13263 3.98503 0.19055 0 0 1.00003 0.00238415
255 6.09752 4.7759 1.05504 0 0 1.00003 0.00246999
180 6.86278 3.82712 0.80083 0 0 1.00003 0.00234238
1097 7.0375 4.58633 1.68585 0 0 1.00003 0.00242833
260 7.04654 5.21171 0.894986 0 0 1.00003 0.00245889
259 7.74587 4.52691 0.571221 0 0 1.00003 0.00234332
1018 7.74062 3.92531 1.53584 0 0 1.00003 0.00232086
184 8.50679 3.9411 0.726855 0 0 1.00003 0.00224317
1101 8.52689 4.68148 1.52215 0 0 1.00003 0.00233138
263 9.36081 4.63868 0.844206 0 0 1.00003 0.00224013
1022 9.34313 3.83058 1.5391 0 0 1.00003 0.00219477
182 9.26048 3.9276 0.063934 0 0 1.00003 0.002176
265 10.1093 4.58874 0.133815 0 0 1.00003 0.00216118
188 10.1321 3.64382 0.909917 0 0 1.00003 0.00209258
1105 10.1355 4.42623 1.70265 0 0 1.00002 0.00218745
192 11.5913 3.70033 0.81359 0 0 1.00002 0.00196578
267 10.8182 4.72554 0.932497 0 0 1.00002 0.00212574
269 11.5839 4.76537 0.230089 0 0 1.00002 0.00204762
1026 10.9183 3.63584 1.63066 0 0 1.00002 0.00204762
1109 11.5676 4.46013 1.74316 0 0 1.00002 0.00206552
186 10.8039 3.90406 0.177783 0 0 1.00003 0.00204205
196 12.6523 3.64557 0.832382 0 0 1.00003 0.00186912
271 12.3598 4.61511 1.02433 0 0 1.00002 0.00198051
1113 12.93 5.0496 1.72694 0 0 1.00002 0.00200043
273 12.7895 4.67734 0.0617289 0 0 1.00002 0.0019319
275 13.3728 4.75312 0.817592 0 0 1.00002 0.00189826
200 14.1112 4.16473 0.711206 0 0 1.00003 0.00178457
1034 13.6241 4.27007 1.62144 0 0 1.00002 0.00186345
1117 14.3315 5.16216 1.55442 0 0 1.00002 0.00188474
277 14.2621 4.94139 0.0745981 0 0 1.00003 0.00183189
279 15.0548 5.05094 0.825973 0 0 1.00003 0.00179407
198 15.0539 4.21799 0.105997 0 0 1.00003 0.00171243
1038 15.0768 4.44209 1.61423 0 0 1.00003 0.00176577
204 15.7504 4.0862 0.930093 0 0 1.00003 0.00166947
281 15.9604 4.79189 0.189696 0 0 1.00003 0.00170306
283 16.6769 4.59298 0.907276 0 0 1.00003 0.00166086
1042 16.4046 3.97363 1.69856 0 0 1.00003 0.00165162
1121 15.9183 5.06876 1.66013 0 0 1.00003 0.00177052
208 17.3413 3.83104 0.812647 0 0 1.00003 0.00157441
287 18.1628 4.47486 1.09409 0 0 1.00003 0.00160864
1046 18.0261 3.63177 1.65445 0 0 1.00003 0.00156718
285 17.5232 4.57372 0.0208445 0 0 1.00003 0.00161575
206 18.2074 3.83987 0.0662826 0 0 1.00003 0.00154527
212 18.9473 3.68899 0.950905 0 0 1.00004 0.00153973
289 18.9102 4.58704 0.358977 0 0 1.00004 0.0015955
291 19.7824 4.63439 1.08573 0 0 1.00004 0.00161808
292 18.8788 5.25017 1.1919 0 0 1.00004 0.00166913
210 19.6835 3.73672 0.233002 0 0 1.00004 0.00153621
216 20.5423 3.78115 1.21981 0 0 1.00004 0.00157401
295 21.0124 4.6652 1.36855 0 0 1.00004 0.00166178
214 21.2125 3.88882 0.505987 0 0 1.00004 0.00158981
293 20.2558 4.7418 0.340692 0 0 1.00004 0.00162114
297 21.7418 4.89087 0.787404 0 0 1.00004 0.00169605
219 23.0009 3.56743 1.38862 0 0 1.00005 0.00168771
220 22.0918 4.07472 1.28713 0 0 1.00004 0.00166384
299 22.6642 5.093 1.25011 0 0 1.00005 0.00177927
218 22.7964 4.28194 0.511576 0 0 1.00005 0.00170476
221 23.7747 3.57454 0.761633 0 0 1.00005 0.00172831
222 24.5727 4.25761 0.614069 0 0 1.00005 0.00183908
224 23.6798 4.47134 1.31007 0 0 1.00005 0.00180207
301 23.7684 4.99177 0.517688 0 0 1.00005 0.00183211
303 24.6224 5.2063 1.39742 0 0 1.00005 0.0019461
305 25.1355 5.16498 0.550501 0 0 1.00005 0.00196411
228 25.2876 4.41507 1.57576 0 0 1.00005 0.00194241
225 25.3188 3.60125 0.773054 0 0 1.00005 0.00185936
307 26.0086 5.05697 1.31708 0 0 1.00005 0.00205318
232 26.6803 4.21879 1.34518 0 0 1.00005 0.00204379
226 25.8192 4.33335 0.390481 0 0 1.00005 0.00195118
309 26.8388 4.90168 0.626342 0 0 1.00005 0.00209656
311 27.6956 4.80033 1.37138 0 0 1.00005 0.00218514
236 28.3215 3.91705 1.08822 0 0 1.00005 0.00215538
230 27.3967 3.97717 0.57056 0 0 1.00005 0.00206902
313 28.6604 4.67992 0.688634 0 0 1.00005 0.00223757
234 29.3117 3.73505 0.465641 0 0 1.00005 0.0022092
315 29.487 4.46846 1.29883 0 0 1.00005 0.00230083
314 29.8128 5.26031 0.797889 0 0 1.00005 0.00238261
240 30.4035 4.01314 1.0182 0 0 1.00005 0.00231879
238 31.4507 3.96597 0.351577 0 0 1.00005 0.00236503
317 30.6347 4.65624 0.465045 0 0 1.00005 0.00237739
319 31.4212 4.58239 1.37393 0 0 1.00005 0.0024387
242 1.38783 5.5177 0.459136 0 0 1.00004 0.00257047
323 1.29883 6.19211 1.27545 0 0 1.00005 0.00265907
324 0.760043 6.91816 1.48729 0 0 1.00005 0.00273055
322 1.48998 6.92833 0.565689 0 0 1.00005 0.00272449
321 0.469386 5.98579 0.450036 0 0 1.00005 0.00258615
248 2.02332 5.51155 1.37246 0 0 1.00004 0.00261083
328 2.22337 7.03064 1.25228 0 0 1.00004 0.00277185
325 2.36834 6.20878 0.507404 0 0 1.00004 0.00266166
327 2.77371 6.18193 1.41898 0 0 1.00004 0.00269008
246 3.15063 5.61926 0.277755 0 0 1.00004 0.00260308
252 3.59692 5.65649 1.30212 0 0 1.00004 0.00263093
332 3.75202 7.00433 1.16518 0 0 1.00004 0.00277125
329 3.87687 6.30423 0.491694 0 0 1.00004 0.00267219
250 4.63966 5.50656 0.333254 0 0 1.00004 0.0025752
331 4.59217 6.13824 1.25081 0 0 1.00004 0.00266514
330 4.49174 7.05485 0.238127 0 0 1.00004 0.00274401
336 5.25263 6.87508 1.18658 0 0 1.00003 0.0027267
333 5.28423 6.29106 0.334319 0 0 1.00003 0.00263966
256 5.37697 5.4908 1.32217 0 0 1.00003 0.00257742
254 6.17622 5.46817 0.301876 0 0 1.00003 0.00251791
335 6.11812 6.28958 0.98457 0 0 1.00003 0.00262313
337 6.8028 6.13901 0.153023 0 0 1.00003 0.00255506
1177 6.88419 6.06672 1.6426 0 0 1.00003 0.00258716
340 6.87429 6.95004 1.01602 0 0 1.00003 0.00266012
339 7.70413 6.22778 0.782534 0 0 1.00003 0.00252329
1098 7.76856 5.48607 1.53912 0 0 1.00003 0.00246628
1178 7.7022 6.93645 1.65088 0 0 1.00003 0.00264138
258 7.68649 5.43139 0.042441 0 0 1.00003 0.00242853
344 8.4019 6.94848 0.751197 0 0 1.00003 0.00255424
264 8.54216 5.39514 0.722586 0 0 1.00003 0.0023747
1181 8.59148 6.20452 1.5474 0 0 1.00003 0.00248882
343 9.21944 6.27638 0.763515 0 0 1.00002 0.00241777
1102 9.36034 5.41416 1.63447 0 0 1.00002 0.00234769
262 9.30898 5.55497 0.0246618 0 0 1.00003 0.00232272
268 10.0463 5.40978 0.821198 0 0 1.00002 0.00225711
1185 10.0453 6.27343 1.52704 0 0 1.00002 0.00237877
345 10.0558 6.32918 0.101998 0 0 1.00002 0.0023435
272 11.6107 5.35635 1.02804 0 0 1.00002 0.00212024
347 10.8569 6.11477 0.983987 0 0 1.00002 0.00226498
349 11.5584 6.45345 0.080319 0 0 1.00002 0.00222315
346 10.8094 7.04761 0.149299 0 0 1.00002 0.00235751
1186 10.7704 7.03131 1.55167 0 0 1.00002 0.00240772
266 10.7362 5.6561 0.0100901 0 0 1.00002 0.00221137
270 12.1948 5.69386 0.191113 0 0 1.00002 0.00208329
276 12.8613 5.87837 0.887199 0 0 1.00002 0.00205742
351 11.9988 6.30208 1.08481 0 0 1.00002 0.00218617
274 13.4716 5.60182 0.0451276 0 0 1.00002 0.00195974
1114 13.5037 5.93612 1.60685 0 0 1.00002 0.00203566
355 13.5368 6.64199 0.829232 0 0 1.00002 0.00207671
280 14.2072 5.77228 0.793503 0 0 1.00002 0.0019277
1197 14.4822 6.70491 1.4496 0 0 1.00002 0.00203246
357 14.2842 6.44242 0.0431064 0 0 1.00002 0.00197894
278 15.132 5.67205 0.0413257 0 0 1.00003 0.001836
359 15.1799 6.49338 0.8208 0 0 1.00002 0.00192958
284 15.9396 5.76047 0.96073 0 0 1.00003 0.00180788
363 16.6068 6.47006 1.15711 0 0 1.00003 0.0018503
1118 15.2413 5.91061 1.72308 0 0 1.00002 0.00190288
361 15.7996 6.37291 0.0472818 0 0 1.00003 0.00186139
282 16.7138 5.4317 0.276343 0 0 1.00003 0.00172144
286 17.9209 5.30096 0.539788 0 0 1.00003 0.0016711
288 17.203 5.42862 1.25183 0 0 1.00003 0.00172384
365 17.178 6.28325 0.412054 0 0 1.00003 0.00178496
367 17.7748 6.24038 1.37952 0 0 1.00003 0.00179
372 18.4031 7.03564 1.1398 0 0 1.00003 0.00184872
369 18.4872 6.20859 0.612666 0 0 1.00003 0.00174598
290 19.549 5.71455 0.613934 0 0 1.00004 0.00169737
371 19.454 6.51508 1.32807 0 0 1.00004 0.00179668
373 20.1415 6.69181 0.601228 0 0 1.00004 0.00180017
294 20.9026 5.71129 0.637165 0 0 1.00004 0.00172817
296 20.3145 5.55626 1.37396 0 0 1.00004 0.00171784
375 20.9434 6.5418 1.27821 0 0 1.00004 0.00183036
377 21.8445 6.58754 0.653554 0 0 1.00005 0.00185526
300 21.8348 5.79798 1.34676 0 0 1.00005 0.00179962
16260 21.868 5.66296 0.0538386 0 0 1.00004 0.00176091
298 22.8797 5.75443 0.643337 0 0 1.00005 0.00183759
379 22.8594 6.59913 1.17165 0 0 1.00005 0.00193619
381 23.6017 6.67458 0.263414 0 0 1.00005 0.00197409
304 23.7276 5.79971 1.25192 0 0 1.00005 0.00192256
383 24.6172 6.47204 1.13272 0 0 1.00005 0.00206157
302 24.4081 5.90865 0.407212 0 0 1.00005 0.00196659
306 26.0163 5.77382 0.670791 0 0 1.00005 0.00210321
308 25.4243 5.94064 1.61732 0 0 1.00005 0.00209891
385 25.4838 6.63036 0.476377 0 0 1.00005 0.00213596
387 26.2 6.50549 1.36613 0 0 1.00005 0.00221953
312 27.0581 5.76501 1.43143 0 0 1.00005 0.0022235
310 27.8866 5.47639 0.695846 0 0 1.00005 0.00224596
389 27.1279 6.28362 0.620674 0 0 1.00005 0.00225634
391 28.1117 6.38075 1.33375 0 0 1.00005 0.00237751
390 28.141 6.92712 0.506555 0 0 1.00005 0.00241298
392 27.1999 7.02704 1.29548 0 0 1.00006 0.00236583
316 28.7852 5.45842 1.43983 0 0 1.00005 0.00234482
395 29.8932 6.13982 1.29563 0 0 1.00005 0.00249359
394 30.0558 6.87812 0.497724 0 0 1.00005 0.00256116
393 28.905 6.14755 0.634272 0 0 1.00005 0.00239859
16355 29.8191 6.08348 0.0728314 0 0 1.00005 0.00245434
16276 28.8891 5.33927 0.0416882 0 0 1.00005 0.00231045
396 29.1126 7.03228 1.19836 0 0 1.00005 0.00252784
318 31.4281 5.32925 0.585228 0 0 1.00005 0.00248627
320 30.6753 5.40989 1.43016 0 0 1.00005 0.00247518
397 30.8574 6.14831 0.628875 0 0 1.00005 0.00253719
399 31.6974 6.12025 1.36801 0 0 1.00005 0.0026024
398 31.7146 6.91589 0.604029 0 0 1.00005 0.002666
400 30.8306 7.04076 1.16408 0 0 1.00005 0.00264768
401 0.796726 7.62876 0.645715 0 0 1.00005 0.00278149
402 1.41355 8.46885 0.59726 0 0 1.00005 0.00289495
403 1.65272 7.84188 1.48756 0 0 1.00005 0.00286436
404 0.913556 8.53164 1.452 0 0 1.00005 0.00291901
478 0.237345 8.57839 0.387091 0 0 1.00005 0.0028603
479 0.0309988 7.77859 1.28255 0 0 1.00005 0.0027877
405 2.13735 7.76894 0.386589 0 0 1.00004 0.00282859
408 2.30365 8.62718 1.46463 0 0 1.00004 0.00296613
326 2.99563 7.15271 0.470938 0 0 1.00004 0.00277047
406 2.7737 8.62851 0.401782 0 0 1.00004 0.00293391
407 2.94332 7.82946 1.29202 0 0 1.00004 0.00287186
412 3.59049 8.55332 0.962413 0 0 1.00004 0.00294264
409 3.7659 7.79302 0.33666 0 0 1.00004 0.0028375
410 4.36218 8.50091 0.0800558 0 0 1.00004 0.00290949
411 4.50159 7.68616 1.24098 0 0 1.00004 0.00284029
413 5.18028 7.71005 0.23984 0 0 1.00003 0.00279901
416 5.22146 8.3324 0.965272 0 0 1.00004 0.00288891
334 6.00573 7.10704 0.160989 0 0 1.00003 0.00270228
414 6.36319 8.4271 0.187286 0 0 1.00003 0.00283831
415 5.97409 7.64407 1.04428 0 0 1.00003 0.00278403
420 6.8727 8.28634 1.08201 0 0 1.00003 0.00281841
417 6.94023 7.63495 0.171942 0 0 1.00003 0.0027174
419 7.72867 7.84747 0.777162 0 0 1.00003 0.00270735
1258 7.73056 8.2592 1.7516 0 0 1.00003 0.00280433
1182 9.43537 7.05822 1.51743 0 0 1.00002 0.00252166
421 8.40351 7.70321 0.0265561 0 0 1.00003 0.00263172
1261 8.47173 7.5852 1.61345 0 0 1.00002 0.00266452
424 8.68308 8.42041 0.910797 0 0 1.00002 0.00271541
423 9.28247 7.71559 0.69191 0 0 1.00002 0.00257646
1262 9.47946 8.79684 1.51342 0 0 1.00002 0.00273291
1265 10.0247 7.98509 1.65357 0 0 1.00002 0.00259634
428 10.0949 8.71752 0.73218 0 0 1.00002 0.00263156
348 10.1544 7.3095 0.761771 0 0 1.00002 0.00245982
352 11.569 7.23528 0.83946 0 0 1.00002 0.002327
427 10.8915 8.03631 0.878637 0 0 1.00002 0.00248537
1269 11.6819 7.91893 1.65809 0 0 1.00002 0.0024408
429 11.5162 8.21475 0.0495904 0 0 1.00002 0.00242995
356 12.9264 7.37591 0.596208 0 0 1.00002 0.00220971
431 12.4352 8.31061 0.628257 0 0 1.00002 0.00236754
1190 12.3298 7.24942 1.43523 0 0 1.00002 0.00228535
1270 12.3627 8.7804 1.56046 0 0 1.00002 0.00247776
1273 13.0898 8.09189 1.53372 0 0 1.00002 0.00232331
350 12.143 7.46817 0.00102699 0 0 1.00002 0.00228357
360 14.4881 7.41033 0.626802 0 0 1.00002 0.00207861
435 13.8203 8.17083 0.499337 0 0 1.00002 0.0022196
1194 13.6728 7.40799 1.39773 0 0 1.00002 0.00217887
1277 14.4504 8.23024 1.40028 0 0 1.00002 0.00220994
439 15.2572 8.33686 0.885756 0 0 1.00002 0.00213299
362 16.5668 7.19964 0.289838 0 0 1.00003 0.00190694
364 15.7794 7.33927 0.923505 0 0 1.00003 0.00198283
443 16.4254 8.18018 1.12275 0 0 1.00003 0.00204777
1198 15.3026 7.56781 1.67417 0 0 1.00002 0.00208419
441 16.0134 8.33109 0.15817 0 0 1.00002 0.00206215
368 17.115 7.36182 1.12196 0 0 1.00003 0.00192151
445 17.2056 8.11299 0.330245 0 0 1.00003 0.00197654
447 17.8642 8.01756 1.03533 0 0 1.00003 0.00196236
366 17.9465 7.16244 0.224373 0 0 1.00003 0.00184808
370 19.1559 7.29685 0.62757 0 0 1.00004 0.00185224
451 19.0928 8.11547 1.16898 0 0 1.00004 0.00196035
376 20.0423 7.59699 1.29662 0 0 1.00004 0.00191719
453 19.9759 8.08107 0.357061 0 0 1.00004 0.00193619
449 18.6092 8.16383 0.185669 0 0 1.00003 0.00193957
374 20.8811 7.39122 0.649026 0 0 1.00004 0.00189401
455 20.8572 8.36084 1.00792 0 0 1.00004 0.00200771
380 21.7607 7.58343 1.11143 0 0 1.00005 0.00196888
457 21.8413 8.25616 0.254884 0 0 1.00005 0.00202058
459 22.8556 8.08468 0.978311 0 0 1.00005 0.00208554
1218 22.6665 7.40115 1.70087 0 0 1.00005 0.00203531
378 22.5729 7.39083 0.373542 0 0 1.00005 0.00197524
458 23.0333 8.79302 0.195882 0 0 1.00005 0.00215386
1298 22.6918 8.79961 1.54703 0 0 1.00005 0.00218404
384 23.7244 7.22627 1.02814 0 0 1.00005 0.00206046
461 23.7782 7.98055 0.359941 0 0 1.00005 0.00212852
463 24.678 7.98728 0.956886 0 0 1.00005 0.0022221
1302 24.609 8.62483 1.63411 0 0 1.00006 0.00232679
382 24.6368 7.21921 0.265893 0 0 1.00005 0.00211726
462 24.657 8.71175 0.198615 0 0 1.00006 0.00228091
1301 23.6711 7.94412 1.73826 0 0 1.00005 0.00217376
388 25.4692 7.28909 1.20535 0 0 1.00006 0.00222896
467 26.4257 7.91103 0.957228 0 0 1.00006 0.00237704
1306 26.4482 8.525 1.69133 0 0 1.00006 0.00249217
386 26.4592 7.1701 0.361078 0 0 1.00006 0.00228148
465 25.59 8.01127 0.301888 0 0 1.00006 0.00229159
466 26.6843 8.4877 0.0895689 0 0 1.00006 0.00244704
468 25.6764 8.74846 0.964539 0 0 1.00006 0.00240164
471 28.2658 7.74491 1.17409 0 0 1.00006 0.00253704
472 27.4372 8.56519 0.990807 0 0 1.00006 0.00254928
469 27.4217 7.69234 0.417778 0 0 1.00006 0.00242986
1310 28.2815 8.60303 1.73864 0 0 1.00006 0.00267141
470 28.4381 8.42141 0.396547 0 0 1.00006 0.00260391
475 29.999 7.62092 1.25393 0 0 1.00005 0.00266196
476 29.2785 8.47958 1.15424 0 0 1.00006 0.00270308
473 29.1816 7.66151 0.403197 0 0 1.00006 0.00258076
474 30.1177 8.32185 0.528385 0 0 1.00005 0.0027275
480 30.975 8.44092 1.17157 0 0 1.00005 0.00281555
477 31.1568 7.83301 0.379439 0 0 1.00005 0.00273389
483 1.61637 9.34581 1.19244 0 0 1.00005 0.00302114
484 0.864545 9.92119 0.905997 0 0 1.00005 0.00304822
481 0.952575 9.32341 0.12642 0 0 1.00005 0.00297058
1322 1.44131 10.1171 1.74689 0 0 1.00005 0.0031369
559 0.0895934 9.24772 1.12494 0 0 1.00005 0.00295112
558 0.0901377 9.92174 0.0621887 0 0 1.00005 0.00299683
482 1.73763 10.2747 0.261798 0 0 1.00005 0.00309535
485 2.33911 9.46417 0.437619 0 0 1.00004 0.0030246
488 2.44406 10.3529 0.977921 0 0 1.00004 0.00313713
486 3.18689 10.2934 0.073771 0 0 1.00004 0.00311497
487 2.96556 9.458 1.21929 0 0 1.00004 0.00305636
1326 3.38037 10.2528 1.68638 0 0 1.00004 0.00317355
489 3.65167 9.3817 0.10468 0 0 1.00004 0.00301669
1329 3.81155 9.28001 1.70032 0 0 1.00004 0.00306275
492 3.96886 10.0789 0.764694 0 0 1.00004 0.00310345
491 4.49543 9.15291 0.876296 0 0 1.00004 0.00299779
1330 4.71622 10.012 1.62761 0 0 1.00004 0.00312999
493 5.11662 9.25626 0.00403173 0 0 1.00003 0.00297872
496 5.16981 10.0381 0.583535 0 0 1.00003 0.00307379
1333 5.23536 9.11847 1.67458 0 0 1.00003 0.00301949
495 5.85447 9.0313 0.67927 0 0 1.00003 0.00294046
1334 5.88822 9.90427 1.22738 0 0 1.00003 0.00306016
1337 6.67133 9.14973 1.30584 0 0 1.00003 0.00294527
500 6.75612 9.87531 0.538624 0 0 1.00003 0.00299315
499 7.63099 8.96856 0.747978 0 0 1.00003 0.00284618
1338 7.65997 9.83294 1.2483 0 0 1.00003 0.0029681
504 8.43354 10.0272 0.605761 0 0 1.00002 0.00291066
1341 8.49705 9.26231 1.45648 0 0 1.00002 0.00285977
501 8.53523 9.14617 0.0933113 0 0 1.00002 0.002793
503 9.35994 9.54601 0.761131 0 0 1.00002 0.00279314
1342 9.20752 10.3404 1.47826 0 0 1.00002 0.002936
1266 10.9243 8.82445 1.49907 0 0 1.00002 0.00261204
508 10.0582 10.4241 0.705354 0 0 1.00002 0.00283327
1345 10.2178 9.67855 1.48747 0 0 1.00002 0.0027776
432 11.6659 8.94325 0.766515 0 0 1.00002 0.00251849
426 10.749 8.97438 0.0367343 0 0 1.00002 0.00259074
507 10.8329 9.77573 0.698396 0 0 1.00002 0.00269273
1346 11.0107 10.285 1.71323 0 0 1.00002 0.00279796
1349 11.6627 9.71649 1.39362 0 0 1.00002 0.00264655
436 13.2309 9.02948 0.817062 0 0 1.00002 0.00238457
511 12.4002 9.89183 0.724733 0 0 1.00002 0.00256063
516 13.1118 10.5602 0.998001 0 0 1.00002 0.00257872
1353 12.858 9.70943 1.68349 0 0 1.00002 0.00255678
1274 13.9164 8.93844 1.62367 0 0 1.00002 0.00235973
440 14.6674 9.24089 0.791873 0 0 1.00002 0.00228082
515 13.7866 9.77518 0.879148 0 0 1.00002 0.00242271
517 14.5046 10.194 0.233023 0 0 1.00002 0.00238456
444 16.0804 9.18295 1.15313 0 0 1.00002 0.00218664
519 15.3473 9.91501 1.04633 0 0 1.00002 0.00231442
521 15.8912 10.2036 0.253655 0 0 1.00002 0.00227633
523 16.6996 9.97745 0.980764 0 0 1.00003 0.00222678
442 16.672 9.06269 0.270833 0 0 1.00003 0.00210541
438 15.4748 9.24148 0.124621 0 0 1.00002 0.0022003
448 17.2678 9.06564 1.13389 0 0 1.00003 0.00210685
525 17.3501 10.0263 0.204495 0 0 1.00003 0.00217401
527 17.9693 9.85466 1.07274 0 0 1.00003 0.00216312
446 17.9341 9.09807 0.124035 0 0 1.00003 0.0020539
452 18.4763 8.88359 0.943522 0 0 1.00003 0.00203989
456 20.0292 8.90791 1.03779 0 0 1.00004 0.00204706
529 18.7913 9.71432 0.303405 0 0 1.00003 0.00210357
531 19.7138 9.85837 0.850778 0 0 1.00004 0.00213595
532 18.9359 10.4367 1.13871 0 0 1.00003 0.00220966
1369 18.8538 9.56401 1.69759 0 0 1.00003 0.00215866
450 19.4213 8.92612 0.211561 0 0 1.00004 0.00201769
533 20.2204 9.73791 0.0690346 0 0 1.00004 0.00211178
535 21.1858 9.74821 0.745686 0 0 1.00005 0.00215936
1373 20.4769 9.61367 1.63595 0 0 1.00004 0.00217389
454 21.0105 9.00877 0.19568 0 0 1.00004 0.00206099
1374 21.3586 10.0453 1.73202 0 0 1.00005 0.00226087
536 20.6686 10.5814 0.800307 0 0 1.00004 0.00222677
460 21.8796 8.9565 0.950467 0 0 1.00005 0.00211737
539 23.1436 9.61349 0.784684 0 0 1.00005 0.00226586
540 22.4142 10.4459 0.823706 0 0 1.00005 0.00229973
1377 22.2253 9.71404 1.49 0 0 1.00005 0.00225184
1378 23.3853 10.431 1.3919 0 0 1.00006 0.00240565
537 22.2466 9.73008 0.213711 0 0 1.00005 0.0021998
464 23.7596 8.85965 0.937016 0 0 1.00005 0.00223796