ITEM: TIMESTEP
11000
ITEM: NUMBER OF ATOMS
32000
ITEM: BOX BOUNDS pp pp pp
0.0000000000000000e+00 3.1748021039364001e+01
0.0000000000000000e+00 3.1748021039364001e+01
0.0000000000000000e+00 3.1748021039364001e+01
ITEM: ATOMS id x y z c_phase c_nbond c_rho vx
4 0.161728 1.10121 0.466304 0 0 1.00001 0.000626801
83 1.01842 1.66864 0.779825 0 0 0.999993 0.000638947
842 0.76043 0.79306 1.41239 0 0 0.999998 0.000635496
921 0.0504542 1.60132 1.3763 0 0 1.00002 0.000644834
3 0.774352 0.0655524 0.618469 0 0 0.999998 0.000621421
8 1.75418 0.813134 1.01582 0 0 0.999976 0.000616835
85 1.84532 1.479 0.219836 0 0 0.999974 0.000617286
925 1.86904 1.66212 1.7614 0 0 0.999974 0.000641414
6 2.56099 0.749433 0.204407 0 0 0.999959 0.000584836
7 2.63086 0.0553248 1.0391 0 0 0.999957 0.000585526
87 2.6897 1.54365 0.883268 0 0 0.999956 0.000595533
846 2.7125 0.81881 1.74667 0 0 0.999956 0.000598801
12 3.47005 0.934634 0.960393 0 0 0.999941 0.000550654
849 3.53545 0.0920203 1.71053 0 0 0.99994 0.00055357
929 3.64452 1.71124 1.72346 0 0 0.999938 0.00056645
10 4.14126 0.860628 0.325347 0 0 0.99993 0.00050384
16 4.99308 0.569137 1.17583 0 0 0.999917 0.000446869
93 4.94906 1.60455 0.385592 0 0 0.999917 0.000456734
850 4.37753 0.94517 1.63531 0 0 0.999926 0.000504497
9 3.51188 0.110031 0.172593 0 0 0.99994 0.000536607
14 5.67162 0.647326 0.326266 0 0 0.999909 0.000383046
95 5.90724 1.31602 0.943392 0 0 0.999906 0.000374665
97 6.59257 1.39723 0.219712 0 0 0.9999 0.000304902
854 5.80864 0.461972 1.70562 0 0 0.999907 0.000385527
933 5.05926 1.72837 1.44108 0 0 0.999915 0.000460718
20 6.73024 0.39302 0.869981 0 0 0.999899 0.000286384
937 6.70847 1.01441 1.70111 0 0 0.999899 0.00030553
24 8.27101 0.411057 1.07815 0 0 0.999894 0.000126368
99 7.37908 1.22856 0.958366 0 0 0.999896 0.000227533
101 8.25059 1.39703 0.238334 0 0 0.999894 0.000131224
941 8.13385 1.27821 1.6146 0 0 0.999894 0.000155139
18 7.59155 0.651391 0.142032 0 0 0.999895 0.000194696
22 8.85648 0.510894 0.275231 0 0 0.999896 5.72591e-05
28 9.54549 0.339882 0.893564 0 0 0.999899 -1.57469e-05
103 9.02241 1.31337 1.11797 0 0 0.999895 5.20704e-05
105 9.63103 1.38013 0.0914277 0 0 0.999899 -2.11996e-05
32 11.1901 0.216903 0.636951 0 0 0.999914 -0.000190736
107 10.349 1.05251 0.827495 0 0 0.999905 -9.97356e-05
866 10.5066 0.197846 1.45224 0 0 0.999906 -0.000115027
949 11.2641 1.02197 1.4241 0 0 0.999915 -0.00019078
946 10.5624 1.68518 1.73729 0 0 0.999906 -0.000107709
26 10.2295 0.369295 0.0788082 0 0 0.999904 -9.2916e-05
36 12.8434 0.213596 0.640175 0 0 0.99994 -0.000338943
111 12.0161 1.0781 0.510457 0 0 0.999926 -0.000267545
870 12.1027 0.317614 1.30565 0 0 0.999927 -0.000273531
953 12.6867 1.20123 1.37806 0 0 0.999936 -0.000321205
40 14.3332 0.323044 0.771845 0 0 0.99997 -0.00043469
115 13.5535 1.11472 0.846776 0 0 0.999953 -0.000387627
117 14.0021 1.56232 0.165291 0 0 0.999963 -0.000416143
874 13.5713 0.36127 1.6399 0 0 0.999953 -0.000387253
957 14.3369 1.1526 1.48105 0 0 0.999969 -0.000430607
119 14.8351 1.5554 0.664582 0 0 0.99998 -0.000454371
44 15.6642 0.76872 0.788412 0 0 0.999999 -0.000480733
123 16.5074 1.54302 0.681777 0 0 1.00002 -0.000487518
878 15.0992 0.46473 1.64323 0 0 0.999986 -0.000463975
882 16.5023 0.710816 1.34241 0 0 1.00002 -0.000487791
961 15.5878 1.48816 1.39328 0 0 0.999997 -0.000475824
38 15.0615 0.711818 0.0672403 0 0 0.999986 -0.000465196
48 17.2144 0.730598 0.549846 0 0 1.00003 -0.000482821
127 17.8819 1.57924 0.75548 0 0 1.00005 -0.000464115
886 17.8747 0.742304 1.42528 0 0 1.00005 -0.000464837
965 17.1756 1.74634 1.56185 0 0 1.00003 -0.00047872
51 19.5035 0.015272 0.661645 0 0 1.00008 -0.000383566
52 18.7544 0.724374 0.684114 0 0 1.00007 -0.00042865
131 19.5055 1.54997 0.839411 0 0 1.00008 -0.000380654
889 18.9895 0.156497 1.54194 0 0 1.00007 -0.000415496
890 19.5596 0.964589 1.68595 0 0 1.00008 -0.000375925
969 18.6197 1.50784 1.49719 0 0 1.00006 -0.000431286
55 21.0691 0.348334 1.06375 0 0 1.00011 -0.00025787
56 20.2195 0.773989 0.975853 0 0 1.00009 -0.000329416
135 21.0822 1.64851 0.949324 0 0 1.00011 -0.00024963
54 21.1644 0.762706 0.217391 0 0 1.00011 -0.000249176
133 20.3168 1.50907 0.194512 0 0 1.0001 -0.000321068
57 21.9935 0.262104 0.537342 0 0 1.00012 -0.000169164
59 22.7828 0.427921 1.40108 0 0 1.00012 -8.13584e-05
60 22.0958 1.14289 1.32441 0 0 1.00012 -0.000150647
137 21.9818 1.59305 0.535035 0 0 1.00012 -0.000164182
58 22.9075 1.06856 0.444161 0 0 1.00012 -6.98132e-05
63 24.2326 0.378127 1.44473 0 0 1.00013 8.16043e-05
61 23.5648 0.355432 0.571359 0 0 1.00013 2.96707e-07
62 24.4418 1.18088 0.75124 0 0 1.00013 0.0001026
64 23.4733 1.24336 1.39627 0 0 1.00013 1.32541e-06
65 24.9649 0.31416 0.549369 0 0 1.00012 0.000155591
67 26.0264 0.380995 1.16699 0 0 1.00012 0.000270309
68 25.1807 1.12069 1.47367 0 0 1.00012 0.000191849
147 25.9487 1.72787 1.35171 0 0 1.00012 0.00027983
66 25.909 0.926246 0.429652 0 0 1.00012 0.000257345
70 27.6035 1.27674 0.387109 0 0 1.0001 0.00042176
71 27.6437 0.506723 0.871622 0 0 1.0001 0.000420664
72 26.7797 1.02432 1.2581 0 0 1.00011 0.000351831
69 26.816 0.239522 0.22645 0 0 1.00011 0.000340941
913 28.4114 0.33783 1.3975 0 0 1.00009 0.000485309
76 28.6853 1.23731 0.738556 0 0 1.00008 0.000505009
914 29.4279 0.94706 1.56602 0 0 1.00007 0.000558186
993 28.5581 1.71573 1.49513 0 0 1.00008 0.000513352
917 29.8568 0.171331 1.45824 0 0 1.00006 0.000573494
75 29.3117 0.354066 0.614312 0 0 1.00007 0.00053457
841 31.633 0.266833 1.25684 0 0 1.00002 0.000624932
79 30.7474 0.486528 0.472583 0 0 1.00004 0.000598174
80 30.1408 1.19702 0.772875 0 0 1.00005 0.000586026
918 30.908 0.970972 1.39266 0 0 1.00003 0.000617848
82 1.15619 2.43793 0.127811 0 0 0.999989 0.000652847
84 0.180187 2.38223 0.811375 0 0 1.00001 0.000656855
163 1.33468 3.23846 0.949082 0 0 0.999985 0.000684085
922 1.18626 2.36367 1.59233 0 0 0.999989 0.000668134
1001 0.434334 3.03257 1.54974 0 0 1.00001 0.000692779
161 0.379298 3.09814 0.131339 0 0 1.00001 0.000676461
88 1.95503 2.42099 0.785394 0 0 0.999972 0.000641127
167 2.70121 3.28592 0.862142 0 0 0.999956 0.00064556
926 2.71302 2.23543 1.53854 0 0 0.999956 0.000621762
1009 3.30117 3.4323 1.65453 0 0 0.999944 0.000638617
86 2.76678 2.38664 0.0558441 0 0 0.999955 0.000607232
92 3.42151 2.56082 0.782534 0 0 0.999942 0.00058478
91 4.04256 1.84509 0.713938 0 0 0.999931 0.000527178
96 4.94377 2.58011 0.8195 0 0 0.999917 0.000483375
171 4.23777 3.32647 0.752753 0 0 0.999928 0.000559621
930 4.17082 2.64865 1.58762 0 0 0.999928 0.000555097
94 5.67599 2.45194 0.134354 0 0 0.999908 0.000411154
100 6.57664 2.18975 0.777106 0 0 0.999899 0.000324696
175 5.67632 3.20732 0.957699 0 0 0.999907 0.000441589
934 5.8857 2.20401 1.5026 0 0 0.999906 0.000403361
1017 6.54231 3.07922 1.56266 0 0 0.999899 0.000364662
177 6.66836 2.94022 0.13498 0 0 0.999898 0.000330619
98 7.46498 2.23534 0.140855 0 0 0.999895 0.000230436
104 8.08832 2.21172 0.935713 0 0 0.999893 0.000166887
179 7.41412 3.0806 0.938586 0 0 0.999894 0.000263284
938 7.31237 2.06974 1.57618 0 0 0.999896 0.000258088
1021 8.19169 3.01507 1.66117 0 0 0.999893 0.000186647
181 8.27407 2.98359 0.0401317 0 0 0.999893 0.000158458
102 8.90248 2.09663 0.254095 0 0 0.999895 6.91217e-05
108 9.76338 2.03329 1.11491 0 0 0.999899 -2.14309e-05
183 8.92509 2.98541 0.934543 0 0 0.999894 8.97056e-05
942 9.02802 2.23113 1.71313 0 0 0.999895 7.28503e-05
185 9.55392 2.9181 0.214268 0 0 0.999898 1.06184e-05
106 10.2694 2.12228 0.215161 0 0 0.999904 -8.30618e-05
112 11.1371 1.83414 0.775139 0 0 0.999913 -0.000175538
187 10.6045 2.81926 0.926388 0 0 0.999906 -0.000104442
1029 11.4197 2.84134 1.58387 0 0 0.999915 -0.000181016
116 12.6413 1.94711 0.597284 0 0 0.999936 -0.000316434
191 11.9005 2.65128 0.745254 0 0 0.999923 -0.000242265
950 11.8973 1.9273 1.47198 0 0 0.999923 -0.000244982
1033 12.8106 3.02703 1.69451 0 0 0.999937 -0.000308776
195 13.1472 3.03591 0.849645 0 0 0.999944 -0.00034482
954 13.3426 1.99685 1.48534 0 0 0.999948 -0.00036562
120 13.9807 2.44984 0.927887 0 0 0.999961 -0.00040702
1037 13.987 3.39151 1.561 0 0 0.99996 -0.00039207
199 14.6534 3.44121 0.88465 0 0 0.999975 -0.000434787
958 14.743 2.30207 1.44756 0 0 0.999978 -0.000444152
118 14.7987 2.51661 0.137551 0 0 0.999979 -0.000450478
197 14.1168 3.23003 0.0351535 0 0 0.999964 -0.000411003
114 13.377 2.30082 0.0587928 0 0 0.999949 -0.000371156
124 15.6535 2.44293 0.695267 0 0 0.999998 -0.000475768
203 16.2592 3.2003 0.665741 0 0 1.00001 -0.000480213
962 16.2631 2.47827 1.52544 0 0 1.00001 -0.000480157
1041 15.3272 3.25938 1.50432 0 0 0.99999 -0.000456906
201 15.525 3.26042 0.0215321 0 0 0.999995 -0.000469839
128 17.0217 2.35002 0.682567 0 0 1.00003 -0.000481463
207 17.9017 2.92271 0.69964 0 0 1.00005 -0.000457246
966 17.9764 2.43413 1.58007 0 0 1.00005 -0.000453632
1045 17.0461 3.11285 1.49486 0 0 1.00003 -0.000472689
132 18.8529 2.35252 1.01057 0 0 1.00007 -0.000417128
211 19.6662 3.23143 1.27293 0 0 1.00008 -0.000354894
209 18.8448 2.98979 0.194179 0 0 1.00007 -0.000414986
130 19.5541 2.3337 0.102023 0 0 1.00008 -0.00037419
973 20.2954 1.78052 1.71989 0 0 1.0001 -0.000314857
134 21.1347 2.40795 0.455735 0 0 1.00011 -0.000241576
136 20.165 2.45899 1.10939 0 0 1.00009 -0.000323853
215 21.2881 3.28274 1.38495 0 0 1.00011 -0.000208605
213 20.3926 2.98439 0.332554 0 0 1.0001 -0.000302061
139 22.8643 2.05932 1.50236 0 0 1.00012 -5.9243e-05
138 22.9641 2.59078 0.731484 0 0 1.00012 -4.5491e-05
140 22.0797 2.48808 1.23217 0 0 1.00012 -0.000138298
217 21.9725 3.18764 0.596269 0 0 1.00012 -0.000143445
16179 22.6688 3.38662 0.0739424 0 0 1.00012 -6.62348e-05
141 23.743 1.80022 0.620987 0 0 1.00013 3.17852e-05
143 24.4345 1.97819 1.60256 0 0 1.00013 0.000122007
142 24.3474 2.67105 0.77103 0 0 1.00013 0.000115673
144 23.6881 2.88891 1.52813 0 0 1.00013 5.31761e-05
223 24.4808 3.49536 1.54827 0 0 1.00013 0.000161544
16108 24.9669 2.83275 0.0145652 0 0 1.00013 0.000187537
149 26.5714 1.78722 0.509317 0 0 1.00011 0.00033642
145 25.1439 1.84796 0.507701 0 0 1.00012 0.000188265
146 25.8101 2.6011 0.703635 0 0 1.00012 0.00027638
148 25.1715 2.54503 1.51748 0 0 1.00012 0.000213623
227 25.7404 3.48363 1.50498 0 0 1.00012 0.000304961
152 26.5602 2.55102 1.52357 0 0 1.00011 0.00036351
229 26.1921 3.48798 0.595146 0 0 1.00012 0.00034214
151 27.5337 1.97886 1.23247 0 0 1.0001 0.00043625
153 28.284 2.08469 0.342739 0 0 1.00009 0.000490544
150 27.115 2.68312 0.641374 0 0 1.00011 0.000409214
231 27.2319 3.34253 1.41028 0 0 1.00011 0.000451721
156 28.2891 2.74964 1.20105 0 0 1.00009 0.000516919
233 28.0167 3.21163 0.326947 0 0 1.00009 0.000500579
997 30.001 1.80549 1.7046 0 0 1.00006 0.000605153
155 29.4868 2.0395 0.879248 0 0 1.00007 0.000571106
154 29.2346 2.6568 0.288737 0 0 1.00007 0.000568752
235 29.2926 3.25656 1.17299 0 0 1.00007 0.000602042
159 30.9557 1.9818 0.923314 0 0 1.00003 0.000631314
160 30.2256 2.70716 1.00021 0 0 1.00005 0.00062697
239 31.0725 3.3466 0.971919 0 0 1.00003 0.000677492
998 31.0328 2.69212 1.72531 0 0 1.00003 0.000667925
237 30.1567 3.25076 0.136363 0 0 1.00005 0.000635542
157 30.4531 1.90587 0.0274827 0 0 1.00005 0.000606854
158 31.1884 2.66096 0.0761475 0 0 1.00003 0.000649461
164 0.343948 3.78396 0.91932 0 0 1.00001 0.000710009
241 0.194352 4.59643 0.480001 0 0 1.00001 0.000742224
243 1.18977 4.67265 0.988074 0 0 0.999989 0.000750731
244 0.144187 5.26636 1.27665 0 0 1.00001 0.000791441
162 1.09027 3.8643 0.0627994 0 0 0.999991 0.000704447
168 1.89195 4.04934 0.84902 0 0 0.999973 0.000705165
247 2.58834 4.86371 1.13781 0 0 0.999958 0.000728141
166 2.69529 4.15124 0.206482 0 0 0.999956 0.000675924
245 1.94792 4.97218 0.280101 0 0 0.999972 0.000743653
249 3.45279 4.8711 0.162811 0 0 0.999941 0.00067341
172 3.53509 4.08572 0.889104 0 0 0.999939 0.000637682
176 4.94678 4.01371 1.1866 0 0 0.999916 0.00054075
251 4.0904 4.89218 1.15193 0 0 0.999929 0.000647217
170 4.29727 4.1947 0.14897 0 0 0.999926 0.000586518
253 5.04421 4.75454 0.341703 0 0 0.999915 0.000555835
174 5.80235 3.95151 0.198765 0 0 0.999906 0.000450119
180 6.51244 3.78109 0.777946 0 0 0.999899 0.000379887
255 5.71276 4.75081 1.03222 0 0 0.999906 0.000503931
1097 6.68601 4.53018 1.65401 0 0 0.999897 0.000412278
260 6.70245 5.15119 0.890403 0 0 0.999897 0.000422989
184 8.20486 3.90754 0.706229 0 0 0.999893 0.00019751
259 7.42278 4.47835 0.551485 0 0 0.999893 0.000306873
1018 7.4138 3.88641 1.50659 0 0 0.999893 0.00030181
1101 8.20831 4.63058 1.49729 0 0 0.999891 0.000239314
188 9.88715 3.59352 0.891709 0 0 0.999899 -5.95836e-06
263 9.07713 4.58453 0.82782 0 0 0.999893 0.000120713
265 9.85244 4.52219 0.128225 0 0 0.999897 1.88056e-05
1022 9.07534 3.77971 1.50825 0 0 0.999893 0.000104049
1105 9.86032 4.36586 1.66729 0 0 0.999897 3.61783e-05
182 8.984 3.88399 0.0640102 0 0 0.999894 0.000101867
192 11.3838 3.65817 0.785218 0 0 0.999914 -0.000172637
267 10.572 4.6834 0.913226 0 0 0.999903 -5.37995e-05
269 11.362 4.71051 0.231576 0 0 0.999912 -0.000147859
1026 10.6883 3.58287 1.598 0 0 0.999905 -8.68944e-05
1109 11.3407 4.39108 1.71568 0 0 0.999912 -0.000134089
272 11.3654 5.29197 0.99361 0 0 0.999911 -0.000121745
186 10.5666 3.86329 0.17732 0 0 0.999905 -8.34089e-05
196 12.4813 3.59161 0.818595 0 0 0.999931 -0.000280741
271 12.1593 4.5652 1.00604 0 0 0.999925 -0.000228359
1113 12.7043 5.01037 1.69842 0 0 0.999933 -0.000253899
275 13.1873 4.69376 0.804444 0 0 0.999943 -0.000321191
273 12.6065 4.63178 0.0630786 0 0 0.999933 -0.000276529
200 13.9486 4.13509 0.699464 0 0 0.999959 -0.000388071
1034 13.4443 4.22904 1.59965 0 0 0.999948 -0.000339103
1117 14.1579 5.12625 1.52705 0 0 0.999961 -0.000370926
279 14.8935 5.0175 0.813995 0 0 0.999978 -0.000425192
1038 14.9191 4.41995 1.59758 0 0 0.999979 -0.000424765
277 14.0963 4.91252 0.0633571 0 0 0.999961 -0.000388548
198 14.9147 4.19718 0.0989156 0 0 0.99998 -0.000441511
204 15.6203 4.06803 0.926089 0 0 0.999996 -0.000462051
281 15.8287 4.77574 0.187104 0 0 1 -0.000462651
283 16.545 4.57905 0.900331 0 0 1.00002 -0.000466832
1042 16.2713 3.95864 1.68991 0 0 1.00001 -0.000464508
1121 15.7617 5.05263 1.64314 0 0 0.999998 -0.000439696
208 17.2234 3.82936 0.810181 0 0 1.00003 -0.000469209
287 18.0401 4.48049 1.09499 0 0 1.00005 -0.000435794
1046 17.9081 3.63247 1.6528 0 0 1.00005 -0.000444394
285 17.4069 4.57194 0.01601 0 0 1.00004 -0.000461376
206 18.0919 3.84715 0.0600978 0 0 1.00005 -0.000445788
212 18.8359 3.69855 0.94865 0 0 1.00007 -0.000407006
289 18.7819 4.59954 0.360324 0 0 1.00007 -0.000403071
291 19.6518 4.66356 1.07931 0 0 1.00009 -0.000337581
292 18.741 5.26507 1.19593 0 0 1.00007 -0.00038684
210 19.5626 3.75614 0.228019 0 0 1.00008 -0.000361397
216 20.4081 3.80863 1.22795 0 0 1.0001 -0.000286573
295 20.8571 4.70123 1.38562 0 0 1.0001 -0.000223043
297 21.559 4.93273 0.803897 0 0 1.00011 -0.000150804
214 21.0595 3.91744 0.509737 0 0 1.00011 -0.000228021
293 20.1032 4.77081 0.348876 0 0 1.00009 -0.000302975
219 22.8129 3.615 1.4125 0 0 1.00012 -3.36081e-05
220 21.9236 4.11602 1.30287 0 0 1.00012 -0.000124545
299 22.4601 5.1546 1.2644 0 0 1.00012 -3.42002e-05
218 22.6029 4.32904 0.508106 0 0 1.00012 -4.95971e-05
221 23.5727 3.62273 0.777558 0 0 1.00013 4.78338e-05
222 24.343 4.30318 0.620988 0 0 1.00013 0.000157608
224 23.4666 4.52921 1.325 0 0 1.00013 6.91681e-05
305 24.8662 5.23564 0.562224 0 0 1.00013 0.000255607
301 23.5514 5.04374 0.529177 0 0 1.00013 8.45494e-05
228 25.0239 4.4803 1.61214 0 0 1.00013 0.000262287
303 24.372 5.26671 1.42308 0 0 1.00013 0.000210413
225 25.0762 3.66347 0.796473 0 0 1.00013 0.000225918
307 25.7136 5.11909 1.33442 0 0 1.00012 0.000363274
232 26.3843 4.27395 1.36442 0 0 1.00012 0.000401696
309 26.5314 4.95574 0.63694 0 0 1.00011 0.000434027
226 25.5476 4.38418 0.386855 0 0 1.00012 0.000299574
311 27.3659 4.85399 1.39802 0 0 1.0001 0.000526353
236 27.999 3.9639 1.09998 0 0 1.00009 0.000535445
313 28.3179 4.72333 0.702614 0 0 1.00009 0.000589373
230 27.0976 4.02875 0.568892 0 0 1.00011 0.00045114
234 28.9731 3.76288 0.483373 0 0 1.00008 0.000592118
315 29.1317 4.51267 1.32511 0 0 1.00007 0.000648433
240 30.0439 4.06156 1.02299 0 0 1.00005 0.000671678
238 31.0783 3.97383 0.369565 0 0 1.00003 0.000697871
317 30.2548 4.67517 0.486122 0 0 1.00005 0.000703847
319 31.0301 4.59768 1.40526 0 0 1.00003 0.000742636
242 0.963992 5.5328 0.46211 0 0 0.999994 0.000793123
248 1.58738 5.51594 1.38097 0 0 0.99998 0.000801869
323 0.854083 6.21834 1.27757 0 0 0.999997 0.000851095
324 0.316959 6.92006 1.50587 0 0 1.00001 0.00090385
322 1.03171 6.94636 0.572641 0 0 0.999993 0.000882406
321 0.0342573 5.99613 0.446958 0 0 1.00002 0.000817741
328 1.7659 7.03393 1.24243 0 0 0.999976 0.000891239
325 1.94908 6.20581 0.518125 0 0 0.999972 0.000816038
252 3.15777 5.63003 1.30406 0 0 0.999946 0.000749517
327 2.32162 6.16298 1.4146 0 0 0.999964 0.000821244
332 3.30821 6.97574 1.13617 0 0 0.999943 0.000823456
246 2.73306 5.61899 0.274626 0 0 0.999955 0.000751322
329 3.44617 6.29163 0.500885 0 0 0.999941 0.000756067
250 4.23331 5.47585 0.327662 0 0 0.999927 0.000655908
256 4.97368 5.44549 1.32294 0 0 0.999915 0.00061439
331 4.18054 6.11008 1.23489 0 0 0.999927 0.000713549
333 4.86729 6.25037 0.335491 0 0 0.999916 0.000650844
336 4.81825 6.81961 1.16791 0 0 0.999916 0.000706512
330 4.05151 7.03738 0.224712 0 0 0.999929 0.000762589
254 5.81431 5.43693 0.303648 0 0 0.999905 0.000518933
335 5.72673 6.26087 0.969927 0 0 0.999905 0.00058579
1177 6.48768 6.00648 1.60957 0 0 0.999897 0.000512082
340 6.46362 6.8922 1.01629 0 0 0.999896 0.000547954
337 6.40788 6.06436 0.155526 0 0 0.999898 0.000491275
264 8.22148 5.33535 0.700868 0 0 0.99989 0.000253642
339 7.34592 6.18041 0.761519 0 0 0.999892 0.000401258
1098 7.41011 5.43924 1.50387 0 0 0.999892 0.000373343
1181 8.24852 6.13499 1.50617 0 0 0.999889 0.000311006
344 8.02789 6.87868 0.736553 0 0 0.999889 0.000355004
1178 7.3052 6.8875 1.61192 0 0 0.99989 0.000475542
258 7.3468 5.37751 0.0464639 0 0 0.999893 0.000351676
268 9.76007 5.34118 0.79983 0 0 0.999896 6.55121e-05
343 8.88346 6.21215 0.744292 0 0 0.999889 0.000214098
1102 9.0539 5.34997 1.60953 0 0 0.999891 0.000174815
1185 9.73214 6.21406 1.48225 0 0 0.999893 0.000125615
1182 9.09498 6.97773 1.47858 0 0 0.999888 0.000249291
345 9.75535 6.25546 0.0961903 0 0 0.999895 9.78109e-05
262 8.99775 5.48714 0.0147471 0 0 0.999891 0.000158883
347 10.5681 6.04442 0.972131 0 0 0.999901 -2.12466e-06
349 11.2893 6.39172 0.0789268 0 0 0.999909 -8.53021e-05
346 10.5041 6.96604 0.156027 0 0 0.999899 3.25505e-05
1186 10.4549 6.95199 1.5117 0 0 0.999897 7.36962e-05
270 11.9684 5.64388 0.185068 0 0 0.99992 -0.000188299
276 12.6394 5.83278 0.868 0 0 0.999931 -0.000242047
351 11.7484 6.22841 1.06172 0 0 0.999915 -0.000131877
1114 13.2826 5.88131 1.56636 0 0 0.999942 -0.000283161
355 13.3098 6.59581 0.817773 0 0 0.999942 -0.000282967
274 13.2796 5.55181 0.0432509 0 0 0.999944 -0.000316264
280 14.0169 5.72664 0.777154 0 0 0.999958 -0.000362097
1197 14.2776 6.66197 1.41527 0 0 0.999962 -0.000339283
357 14.0838 6.39556 0.0391455 0 0 0.999959 -0.000357541
278 14.976 5.64712 0.0358717 0 0 0.99998 -0.000423415
359 14.9956 6.45713 0.809252 0 0 0.999979 -0.000400502
284 15.7792 5.73936 0.957504 0 0 0.999998 -0.000440603
363 16.4375 6.45154 1.14188 0 0 1.00001 -0.000430035
1118 15.0565 5.88081 1.70224 0 0 0.99998 -0.000395371
282 16.5698 5.41761 0.276091 0 0 1.00002 -0.000460524
361 15.6245 6.34232 0.0406683 0 0 0.999994 -0.000433898
286 17.7804 5.29616 0.539945 0 0 1.00005 -0.000439855
288 17.0615 5.42078 1.24616 0 0 1.00003 -0.000446195
365 17.0122 6.27111 0.410575 0 0 1.00003 -0.000443059
367 17.6139 6.23912 1.38066 0 0 1.00004 -0.000413587
372 18.2248 7.04132 1.12977 0 0 1.00005 -0.000375447
369 18.3258 6.22026 0.608699 0 0 1.00006 -0.000399386
290 19.3906 5.74281 0.617037 0 0 1.00008 -0.000341742
371 19.285 6.541 1.34094 0 0 1.00008 -0.000317843
373 19.9584 6.73243 0.60582 0 0 1.00009 -0.000270357
294 20.7226 5.75602 0.648202 0 0 1.0001 -0.000220859
296 20.1579 5.59228 1.38703 0 0 1.00009 -0.00026913
375 20.7499 6.58997 1.29306 0 0 1.0001 -0.00018095
377 21.6393 6.63954 0.661054 0 0 1.00012 -9.31263e-05
300 21.643 5.85521 1.37303 0 0 1.00012 -0.000104369
16260 21.6725 5.71185 0.0518442 0 0 1.00012 -0.000122096
298 22.6648 5.80619 0.666692 0 0 1.00012 3.40758e-06
379 22.6239 6.66734 1.19546 0 0 1.00013 4.3286e-05
381 23.3486 6.7542 0.265279 0 0 1.00013 0.000122418
304 23.4834 5.86125 1.28772 0 0 1.00013 0.000120385
383 24.3317 6.53862 1.14861 0 0 1.00013 0.000258174
302 24.1531 5.98295 0.422812 0 0 1.00013 0.000195401
306 25.7077 5.84127 0.694141 0 0 1.00012 0.000384224
308 25.1314 6.01668 1.66271 0 0 1.00013 0.000347021
385 25.1799 6.71666 0.489991 0 0 1.00013 0.000359907
387 25.8555 6.57259 1.3959 0 0 1.00012 0.000457705
312 26.7241 5.82642 1.46548 0 0 1.00011 0.000514654
310 27.536 5.52833 0.716842 0 0 1.0001 0.000563206
389 26.7836 6.34658 0.645488 0 0 1.00011 0.000529936
391 27.7443 6.45425 1.35734 0 0 1.0001 0.000647938
316 28.4104 5.50878 1.47751 0 0 1.00009 0.000654732
390 27.7551 6.9899 0.52538 0 0 1.0001 0.000661968
314 29.4371 5.2997 0.814157 0 0 1.00007 0.000697972
395 29.4905 6.17339 1.31669 0 0 1.00007 0.000763415
394 29.6341 6.89304 0.505188 0 0 1.00007 0.000799577
393 28.5165 6.19312 0.636622 0 0 1.00009 0.000683213
16355 29.4266 6.14014 0.0779314 0 0 1.00007 0.000737304
16276 28.5265 5.37867 0.0567271 0 0 1.00009 0.000634412
318 31.0182 5.36252 0.593753 0 0 1.00003 0.000768247
320 30.2705 5.4513 1.46185 0 0 1.00005 0.000763874
397 30.4504 6.17634 0.646632 0 0 1.00005 0.000797088
399 31.2766 6.15043 1.38223 0 0 1.00003 0.000837862
398 31.2619 6.94927 0.603543 0 0 1.00003 0.000871185
401 0.326141 7.63312 0.660314 0 0 1.00001 0.000929081
402 0.902181 8.46732 0.61714 0 0 0.999997 0.000985447
403 1.17691 7.8641 1.49819 0 0 0.99999 0.000969152
404 0.425544 8.56044 1.46957 0 0 1.00001 0.00101902
405 1.65707 7.76954 0.374381 0 0 0.999979 0.000924182
408 1.79387 8.62475 1.46801 0 0 0.999975 0.00101119
326 2.54446 7.15679 0.476562 0 0 0.999959 0.000856949
406 2.26035 8.63847 0.401427 0 0 0.999965 0.000966344
407 2.45723 7.81984 1.28294 0 0 0.99996 0.000925525
412 3.07853 8.52749 0.942103 0 0 0.999947 0.00093632
409 3.30076 7.78117 0.3294 0 0 0.999943 0.000859126
410 3.87095 8.47399 0.0820454 0 0 0.999932 0.000869444
411 4.03425 7.68022 1.25225 0 0 0.999929 0.000827448
416 4.7545 8.27748 0.932309 0 0 0.999917 0.000803045
413 4.71999 7.65583 0.247793 0 0 0.999917 0.000750484
334 5.5876 7.07077 0.149753 0 0 0.999906 0.000634829
414 5.91047 8.36986 0.173217 0 0 0.9999 0.000685851
415 5.5266 7.60877 1.03895 0 0 0.999906 0.000691795
417 6.52423 7.56238 0.171336 0 0 0.999895 0.000567176
420 6.43285 8.25845 1.05537 0 0 0.999895 0.000639896
419 7.31068 7.79308 0.755514 0 0 0.99989 0.000499635
424 8.2986 8.34108 0.880729 0 0 0.999885 0.000412982
1258 7.30567 8.20786 1.71968 0 0 0.999888 0.000568191
1261 8.06901 7.51493 1.57728 0 0 0.999886 0.000419514
421 8.0144 7.62872 0.0290177 0 0 0.999888 0.000391001
348 9.83463 7.24671 0.732933 0 0 0.999893 0.00014313
423 8.91714 7.64219 0.670359 0 0 0.999887 0.000283056
428 9.72828 8.64585 0.703889 0 0 0.999889 0.000230128
1262 9.09733 8.72713 1.46529 0 0 0.999885 0.000358307
1265 9.6404 7.91661 1.61922 0 0 0.999889 0.000240956
352 11.2904 7.16568 0.818843 0 0 0.999907 -4.44024e-05
427 10.5585 7.96968 0.854787 0 0 0.999897 8.73439e-05
1266 10.5734 8.7313 1.44604 0 0 0.999895 0.000154101
1269 11.3801 7.83245 1.62029 0 0 0.999906 7.1711e-06
429 11.2042 8.14223 0.0442966 0 0 0.999905 -4.84096e-06
356 12.6687 7.30376 0.57247 0 0 0.999929 -0.000202442
431 12.1444 8.25455 0.599301 0 0 0.999917 -0.000105545
1190 12.0357 7.18009 1.39205 0 0 0.999917 -0.000114309
1270 12.0555 8.70411 1.5092 0 0 0.999914 -3.606e-05
1273 12.8188 8.01727 1.49049 0 0 0.999929 -0.000157946
360 14.2828 7.36477 0.590912 0 0 0.999961 -0.000340354
435 13.57 8.10895 0.471503 0 0 0.999944 -0.000262665
1194 13.417 7.35553 1.35389 0 0 0.999942 -0.000250934
1277 14.1977 8.19261 1.36248 0 0 0.999957 -0.000282076
439 15.0165 8.29974 0.869137 0 0 0.999976 -0.000347973
362 16.3796 7.18329 0.279214 0 0 1.00001 -0.000428012
364 15.5757 7.31357 0.921426 0 0 0.999991 -0.000399416
443 16.2051 8.16005 1.11193 0 0 1.00001 -0.000381799
1198 15.0886 7.52933 1.63474 0 0 0.999979 -0.00034682
441 15.8073 8.31448 0.15371 0 0 0.999996 -0.00039142
368 16.9233 7.35655 1.11537 0 0 1.00002 -0.000406864
445 17.0106 8.10074 0.338267 0 0 1.00003 -0.000402725
447 17.6532 8.0157 1.02568 0 0 1.00004 -0.000374476
366 17.7661 7.15901 0.215105 0 0 1.00004 -0.000408224
370 18.9623 7.32235 0.638205 0 0 1.00007 -0.00033501
451 18.8816 8.13701 1.17724 0 0 1.00007 -0.000301146
376 19.8336 7.63638 1.31495 0 0 1.00009 -0.000236629
453 19.7647 8.12122 0.357681 0 0 1.00009 -0.00024987
449 18.4014 8.17726 0.171844 0 0 1.00006 -0.000352952
374 20.6698 7.43842 0.665676 0 0 1.0001 -0.000176442
455 20.6175 8.41566 1.02496 0 0 1.0001 -0.000138251
380 21.5221 7.64684 1.13749 0 0 1.00012 -5.77987e-05
457 21.5927 8.31901 0.256137 0 0 1.00012 -4.1882e-05
459 22.5804 8.15124 1.00766 0 0 1.00013 9.75371e-05
1218 22.4086 7.4726 1.74039 0 0 1.00012 7.19941e-05
378 22.326 7.45874 0.381959 0 0 1.00012 1.86833e-05
384 23.4479 7.29582 1.04162 0 0 1.00013 0.000173565
461 23.4919 8.04939 0.380815 0 0 1.00013 0.000202338
463 24.3589 8.07349 0.989859 0 0 1.00013 0.000335247
1302 24.2692 8.69115 1.6688 0 0 1.00013 0.000390663
382 24.3511 7.29962 0.266754 0 0 1.00013 0.000278632
462 24.3293 8.79869 0.206231 0 0 1.00013 0.000353911
388 25.1394 7.36895 1.24222 0 0 1.00013 0.000408579
467 26.0546 7.98244 0.979714 0 0 1.00012 0.000549169
1306 26.0564 8.60245 1.73926 0 0 1.00012 0.00062487
386 26.1224 7.25457 0.365194 0 0 1.00012 0.000500992
465 25.2533 8.10536 0.304944 0 0 1.00013 0.000441524
466 26.3096 8.5629 0.0883819 0 0 1.00012 0.000598707
392 26.8231 7.09122 1.33222 0 0 1.00011 0.000595234
470 28.0166 8.48717 0.423691 0 0 1.0001 0.000779347
471 27.8471 7.81837 1.20544 0 0 1.0001 0.000740345
472 27.0226 8.63401 1.0162 0 0 1.00011 0.000704112
469 27.0383 7.76281 0.430393 0 0 1.00011 0.00063487
396 28.7034 7.09731 1.22351 0 0 1.00008 0.000765744
474 29.6566 8.34622 0.541328 0 0 1.00007 0.000896161
475 29.5575 7.66698 1.2717 0 0 1.00007 0.000861754
476 28.8381 8.54343 1.17879 0 0 1.00008 0.000870497
473 28.7505 7.70605 0.413474 0 0 1.00008 0.000791073
400 30.3858 7.08373 1.17664 0 0 1.00005 0.0008631
479 31.3153 7.81856 1.29884 0 0 1.00003 0.000947807
480 30.4969 8.48356 1.18129 0 0 1.00005 0.000963297
477 30.7001 7.86682 0.379865 0 0 1.00004 0.000911078
478 31.4934 8.6179 0.390496 0 0 1.00002 0.000984323
482 1.19573 10.2858 0.273095 0 0 0.999989 0.00110095
483 1.08809 9.37658 1.20571 0 0 0.999992 0.00106568
484 0.32925 9.92989 0.898735 0 0 1.00001 0.0010926
481 0.43922 9.33692 0.123177 0 0 1.00001 0.0010399
1322 0.888693 10.1283 1.75389 0 0 0.999997 0.00114844
485 1.82522 9.45402 0.451973 0 0 0.999975 0.00103702
488 1.89978 10.3749 0.972666 0 0 0.999973 0.0011099
486 2.66041 10.2842 0.0833511 0 0 0.999956 0.00105788
487 2.44272 9.45416 1.22634 0 0 0.999961 0.00103977
1326 2.8415 10.2439 1.67411 0 0 0.999952 0.00110293
1329 3.26889 9.25083 1.66495 0 0 0.999943 0.0010098
489 3.13709 9.37961 0.0831183 0 0 0.999946 0.000976398
492 3.44388 10.0474 0.738494 0 0 0.999939 0.0010143
491 3.99106 9.12427 0.861278 0 0 0.999929 0.000919832
493 4.6291 9.19957 0.0074184 0 0 0.999918 0.000860666
496 4.66132 9.99464 0.575689 0 0 0.999917 0.000919017
1330 4.18318 9.98636 1.62664 0 0 0.999925 0.00100257
1333 4.72803 9.08539 1.66046 0 0 0.999916 0.000897105
495 5.37663 8.96585 0.665715 0 0 0.999907 0.000787355
500 6.28007 9.81575 0.520256 0 0 0.999894 0.000746216
1334 5.36534 9.85173 1.17469 0 0 0.999906 0.000866714
1337 6.19342 9.07703 1.27029 0 0 0.999896 0.000733437
1417 6.28077 10.5328 1.1994 0 0 0.999894 0.000820654
499 7.19434 8.90491 0.71895 0 0 0.999888 0.000585404
501 8.11324 9.07233 0.0830438 0 0 0.999885 0.00046599
504 7.98131 9.94977 0.583859 0 0 0.999884 0.000544691
1338 7.20916 9.76222 1.20569 0 0 0.999887 0.0006595
1341 8.06535 9.19314 1.4145 0 0 0.999884 0.000524952
503 8.94788 9.47942 0.736304 0 0 0.999884 0.000390647
508 9.64502 10.3609 0.668394 0 0 0.999886 0.000341669
1342 8.76404 10.2908 1.42455 0 0 0.999881 0.000504073
1345 9.82773 9.61533 1.4292 0 0 0.999887 0.000310301
432 11.3492 8.87073 0.740556 0 0 0.999905 2.53799e-05
426 10.391 8.90988 0.0409811 0 0 0.999894 0.000142616
507 10.4522 9.70614 0.664267 0 0 0.999892 0.000189901
1346 10.6204 10.1955 1.65351 0 0 0.999891 0.000252488
1349 11.2823 9.65741 1.33141 0 0 0.999901 0.000104969
436 12.9613 8.98038 0.793416 0 0 0.99993 -0.000160381
511 12.0748 9.83395 0.694313 0 0 0.999912 -2.11853e-05
516 12.7801 10.4924 0.968943 0 0 0.999924 -6.38591e-05
1353 12.5098 9.63605 1.62638 0 0 0.999919 -3.10058e-05
1274 13.6417 8.86069 1.5785 0 0 0.999943 -0.000193612
440 14.4143 9.20628 0.764518 0 0 0.999961 -0.000282446
515 13.4859 9.69831 0.843022 0 0 0.999939 -0.000180273
1354 13.4518 10.4276 1.72095 0 0 0.999935 -8.50185e-05
517 14.2206 10.1606 0.217753 0 0 0.999955 -0.000245855
444 15.8434 9.16102 1.13773 0 0 0.999995 -0.000339363
519 15.0773 9.8664 1.01555 0 0 0.999975 -0.000287862
521 15.6336 10.1834 0.252159 0 0 0.999989 -0.00032655
523 16.4496 9.95829 0.962567 0 0 1.00001 -0.000328653
442 16.4537 9.03326 0.261291 0 0 1.00001 -0.000379054
438 15.2428 9.21098 0.0985497 0 0 0.999981 -0.000343615
452 18.2515 8.88866 0.940851 0 0 1.00005 -0.000323002
448 17.0397 9.0649 1.12707 0 0 1.00003 -0.000350838
525 17.101 10.0227 0.206406 0 0 1.00003 -0.000345683
527 17.7239 9.8633 1.07008 0 0 1.00004 -0.000307241
446 17.7136 9.1022 0.117385 0 0 1.00004 -0.000358999
456 19.7863 8.94497 1.05839 0 0 1.00009 -0.000198991
529 18.5527 9.72476 0.299387 0 0 1.00006 -0.000293661
531 19.4679 9.88566 0.848256 0 0 1.00008 -0.000203612
532 18.6777 10.4469 1.14158 0 0 1.00006 -0.000229471
1369 18.6101 9.57716 1.70509 0 0 1.00006 -0.000233078
450 19.2025 8.95015 0.210223 0 0 1.00008 -0.000274999
533 19.9574 9.77324 0.0720017 0 0 1.00009 -0.000175417
535 20.9093 9.79434 0.748606 0 0 1.00011 -5.4064e-05
1373 20.2188 9.65001 1.66473 0 0 1.0001 -8.96435e-05
454 20.7669 9.06498 0.20554 0 0 1.00011 -0.00011287