ITEM: TIMESTEP
20500
ITEM: NUMBER OF ATOMS
32000
ITEM: BOX BOUNDS pp pp pp
0.0000000000000000e+00 3.1748021039364001e+01
0.0000000000000000e+00 3.1748021039364001e+01
0.0000000000000000e+00 3.1748021039364001e+01
ITEM: ATOMS id x y z c_phase c_nbond c_rho vx
4 0.244795 1.09872 0.469083 0 0 1.00002 0.00110708
83 1.10149 1.66785 0.78233 0 0 1.00002 0.00113893
842 0.845767 0.791829 1.41064 0 0 1.00002 0.00112891
921 0.136762 1.59869 1.3788 0 0 1.00003 0.00113425
3 0.857122 0.0685312 0.621734 0 0 1.00002 0.00110706
8 1.83788 0.818977 1.01562 0 0 1.00002 0.00112205
85 1.93015 1.48476 0.217225 0 0 1.00002 0.0011261
925 1.96061 1.66284 1.75987 0 0 1.00002 0.00116298
6 2.63981 0.748717 0.204849 0 0 1.00001 0.00109812
7 2.70849 0.0574762 1.04077 0 0 1.00001 0.00110125
87 2.76966 1.54634 0.882614 0 0 1.00001 0.00112046
846 2.79829 0.823116 1.74628 0 0 1.00001 0.00112557
12 3.54492 0.934297 0.965493 0 0 1.00001 0.00108202
849 3.61031 0.0905491 1.71632 0 0 1.00001 0.00108968
929 3.72332 1.71413 1.7263 0 0 1.00001 0.00111627
10 4.21669 0.862926 0.324593 0 0 1.00001 0.00104036
850 4.44529 0.949157 1.64338 0 0 1 0.00105634
9 3.58546 0.107514 0.175003 0 0 1.00001 0.00106132
93 5.01783 1.60931 0.388271 0 0 1 0.0010128
16 5.06514 0.570152 1.1747 0 0 1 0.00099873
14 5.73357 0.64869 0.32565 0 0 1 0.000939052
95 5.96838 1.32283 0.951183 0 0 0.999999 0.00094306
97 6.64744 1.40521 0.221396 0 0 0.999997 0.00087861
854 5.87305 0.463009 1.71374 0 0 0.999999 0.000954334
933 5.12551 1.73138 1.44684 0 0 1 0.00102873
20 6.78298 0.397508 0.876775 0 0 0.999997 0.000856094
937 6.76381 1.02037 1.71001 0 0 0.999996 0.000889351
24 8.30689 0.414168 1.08283 0 0 0.999994 0.000712897
99 7.42628 1.23586 0.962583 0 0 0.999995 0.00081201
101 8.28798 1.40415 0.240211 0 0 0.999994 0.000721727
941 8.17496 1.28527 1.62515 0 0 0.999994 0.000756616
18 7.63525 0.6574 0.146229 0 0 0.999995 0.000770797
22 8.88612 0.513875 0.275374 0 0 0.999994 0.000642412
28 9.5694 0.341143 0.900219 0 0 0.999994 0.000575983
103 9.05161 1.32107 1.12224 0 0 0.999993 0.000653542
105 9.65339 1.38627 0.0935006 0 0 0.999994 0.000577368
32 11.1954 0.218067 0.641808 0 0 0.999996 0.000400419
107 10.3645 1.05872 0.833003 0 0 0.999994 0.000500473
866 10.5201 0.199712 1.46088 0 0 0.999995 0.000486828
949 11.2716 1.02676 1.43216 0 0 0.999995 0.000417883
946 10.5777 1.6951 1.74664 0 0 0.999994 0.000518357
26 10.2451 0.37112 0.0799019 0 0 0.999994 0.000496318
36 12.8346 0.214895 0.643998 0 0 1 0.000243954
111 12.0137 1.08306 0.514517 0 0 0.999997 0.00032806
870 12.1004 0.319126 1.313 0 0 0.999998 0.00032383
953 12.6804 1.20573 1.38529 0 0 0.999999 0.00028352
40 14.314 0.325644 0.777277 0 0 1.00001 0.000132994
115 13.5391 1.1181 0.850832 0 0 1 0.000199732
117 13.9863 1.56671 0.165269 0 0 1 0.000169257
874 13.5585 0.36279 1.64654 0 0 1 0.000205113
957 14.3191 1.15645 1.48684 0 0 1 0.000157686
119 14.8149 1.55877 0.66718 0 0 1.00001 0.000121916
38 15.0376 0.712753 0.0676839 0 0 1.00001 8.96061e-05
44 15.6401 0.768388 0.790007 0 0 1.00001 6.87545e-05
123 16.4807 1.54298 0.683022 0 0 1.00002 5.80031e-05
878 15.0772 0.465568 1.64711 0 0 1.00001 0.000107875
882 16.4759 0.710295 1.34401 0 0 1.00002 5.35179e-05
961 15.5636 1.49117 1.39652 0 0 1.00001 9.72242e-05
48 17.189 0.72953 0.551713 0 0 1.00002 3.32018e-05
127 17.8572 1.57764 0.754866 0 0 1.00002 5.35507e-05
886 17.8497 0.741557 1.42402 0 0 1.00002 4.92255e-05
965 17.1508 1.74515 1.56225 0 0 1.00002 7.13226e-05
51 19.4838 0.0140625 0.660612 0 0 1.00003 8.09059e-05
52 18.7313 0.72309 0.683644 0 0 1.00003 5.55949e-05
131 19.4872 1.54503 0.83751 0 0 1.00003 0.000102142
889 18.9672 0.154843 1.53931 0 0 1.00003 7.31763e-05
890 19.5419 0.961395 1.68225 0 0 1.00003 0.000109785
969 18.599 1.50368 1.49496 0 0 1.00003 7.9849e-05
55 21.0626 0.346286 1.05991 0 0 1.00004 0.000184517
56 20.2047 0.770922 0.972361 0 0 1.00003 0.000129214
135 21.0751 1.63989 0.946402 0 0 1.00004 0.000206568
54 21.1563 0.75911 0.216368 0 0 1.00004 0.000187606
133 20.3032 1.50306 0.195008 0 0 1.00003 0.000140669
57 21.9934 0.260951 0.53491 0 0 1.00004 0.000254853
59 22.7919 0.425185 1.39401 0 0 1.00004 0.000344383
60 22.0981 1.13719 1.31845 0 0 1.00004 0.000287574
137 21.9824 1.58537 0.531678 0 0 1.00004 0.000274301
58 22.9167 1.06129 0.443252 0 0 1.00004 0.000351
63 24.26 0.375769 1.43391 0 0 1.00004 0.000498765
61 23.581 0.352634 0.56889 0 0 1.00004 0.000411018
62 24.4676 1.17288 0.746853 0 0 1.00005 0.000518226
64 23.491 1.23528 1.38851 0 0 1.00004 0.000428895
65 24.9969 0.312453 0.545759 0 0 1.00005 0.000562775
67 26.0685 0.37757 1.16131 0 0 1.00005 0.000685356
68 25.2155 1.11455 1.4639 0 0 1.00005 0.000613642
147 25.993 1.71932 1.34365 0 0 1.00005 0.000709016
66 25.9505 0.923165 0.426054 0 0 1.00005 0.000669676
70 27.6626 1.27194 0.384344 0 0 1.00004 0.00084842
71 27.702 0.502796 0.868094 0 0 1.00004 0.00084463
72 26.8301 1.01945 1.25078 0 0 1.00004 0.000775678
69 26.8654 0.238569 0.226813 0 0 1.00004 0.000753798
913 28.4802 0.338631 1.39704 0 0 1.00004 0.000921219
76 28.7534 1.22935 0.732925 0 0 1.00004 0.000943975
914 29.4967 0.949248 1.56189 0 0 1.00004 0.0010104
993 28.625 1.71126 1.4922 0 0 1.00004 0.000962637
917 29.9363 0.16764 1.45338 0 0 1.00003 0.00102728
75 29.3828 0.3529 0.613093 0 0 1.00004 0.000974947
841 31.7164 0.267627 1.25673 0 0 1.00003 0.00110165
79 30.8304 0.480689 0.475256 0 0 1.00003 0.00105804
80 30.2149 1.19375 0.770794 0 0 1.00003 0.00104308
918 30.987 0.969357 1.39027 0 0 1.00003 0.00108856
82 1.24132 2.43879 0.125203 0 0 1.00002 0.0011639
84 0.266322 2.38101 0.809664 0 0 1.00002 0.00115445
163 1.42185 3.23689 0.94795 0 0 1.00002 0.00121629
922 1.27346 2.36598 1.59237 0 0 1.00002 0.00118777
1001 0.522412 3.03463 1.5495 0 0 1.00002 0.0012126
161 0.466009 3.10033 0.131054 0 0 1.00002 0.00118796
88 2.04152 2.42202 0.787231 0 0 1.00002 0.00116659
167 2.78584 3.29125 0.862794 0 0 1.00001 0.00120091
926 2.79909 2.24301 1.54437 0 0 1.00001 0.0011629
86 2.84764 2.392 0.0557456 0 0 1.00001 0.00114281
1009 3.38919 3.43622 1.65979 0 0 1.00001 0.00121488
92 3.50246 2.56833 0.786703 0 0 1.00001 0.00113625
91 4.11846 1.84853 0.717309 0 0 1.00001 0.00107571
96 5.01361 2.58724 0.824245 0 0 1 0.00105899
171 4.3163 3.33623 0.756831 0 0 1 0.00114037
930 4.25261 2.65662 1.59184 0 0 1 0.00112729
94 5.74122 2.46281 0.136966 0 0 1 0.000991988
100 6.63444 2.20073 0.783171 0 0 0.999996 0.000914551
175 5.74636 3.2202 0.963892 0 0 0.999999 0.00104428
934 5.95048 2.21623 1.5087 0 0 0.999999 0.000991398
1017 6.6074 3.09292 1.56939 0 0 0.999996 0.000983656
177 6.72536 2.95593 0.135462 0 0 0.999996 0.000936199
98 7.51289 2.24662 0.141895 0 0 0.999995 0.000828869
104 8.13242 2.22287 0.942587 0 0 0.999993 0.000776002
179 7.46717 3.09397 0.942356 0 0 0.999994 0.000887196
938 7.36423 2.08087 1.58501 0 0 0.999995 0.000863543
1021 8.23842 3.02985 1.67111 0 0 0.999993 0.00082816
181 8.3174 2.99787 0.0415751 0 0 0.999993 0.000784901
102 8.93632 2.10906 0.256087 0 0 0.999993 0.000678076
108 9.78829 2.04378 1.12052 0 0 0.999993 0.000598425
183 8.96099 3.00038 0.941632 0 0 0.999992 0.000728516
942 9.06185 2.24352 1.72424 0 0 0.999993 0.000702339
185 9.58319 2.93319 0.215358 0 0 0.999993 0.000647152
106 10.2875 2.13293 0.216295 0 0 0.999994 0.000534066
112 11.146 1.8439 0.78027 0 0 0.999995 0.000439482
187 10.6219 2.83305 0.932351 0 0 0.999993 0.000539458
1029 11.4296 2.85577 1.59464 0 0 0.999994 0.000476406
116 12.6359 1.95497 0.601372 0 0 0.999998 0.000294546
191 11.904 2.66393 0.749718 0 0 0.999996 0.000395038
950 11.9003 1.9364 1.48054 0 0 0.999996 0.000381114
1033 12.809 3.03955 1.70437 0 0 0.999998 0.000354594
195 13.1432 3.04578 0.853188 0 0 0.999999 0.000300791
954 13.3334 2.00447 1.49205 0 0 1 0.000253829
114 13.3664 2.30938 0.0593941 0 0 1 0.000241173
120 13.967 2.45744 0.931113 0 0 1 0.000209945
1037 13.9776 3.40235 1.56763 0 0 1 0.000273233
199 14.6392 3.44887 0.88716 0 0 1.00001 0.000212405
958 14.7268 2.30812 1.45074 0 0 1.00001 0.000166232
118 14.7797 2.52126 0.138829 0 0 1.00001 0.000151235
197 14.1033 3.23814 0.0370634 0 0 1 0.000227553
124 15.6309 2.44517 0.698017 0 0 1.00001 0.00011219
203 16.2387 3.20218 0.66869 0 0 1.00001 0.000124665
962 16.241 2.47943 1.52729 0 0 1.00001 0.000110439
1041 15.3113 3.26474 1.50878 0 0 1.00001 0.000181624
201 15.5051 3.26495 0.023173 0 0 1.00001 0.000148567
128 16.998 2.35023 0.683232 0 0 1.00002 7.5147e-05
207 17.88 2.91983 0.700014 0 0 1.00002 9.9555e-05
966 17.9544 2.43045 1.57952 0 0 1.00002 9.84248e-05
1045 17.0248 3.11189 1.49601 0 0 1.00002 0.000123999
132 18.8332 2.34758 1.00853 0 0 1.00003 0.000102588
211 19.6524 3.22098 1.2688 0 0 1.00003 0.000180432
209 18.8257 2.98362 0.193428 0 0 1.00003 0.000118997
130 19.5378 2.3258 0.102547 0 0 1.00003 0.00012215
973 20.2837 1.77268 1.71494 0 0 1.00003 0.000171035
134 21.1302 2.3981 0.45346 0 0 1.00004 0.000227997
136 20.1535 2.44945 1.10516 0 0 1.00003 0.000171377
215 21.2882 3.26934 1.37727 0 0 1.00004 0.00029631
213 20.3826 2.97437 0.330911 0 0 1.00004 0.000197739
139 22.8767 2.04688 1.49539 0 0 1.00004 0.000389251
138 22.9769 2.5778 0.727029 0 0 1.00004 0.00040541
140 22.0833 2.4756 1.22612 0 0 1.00004 0.000325686
217 21.9765 3.17321 0.593513 0 0 1.00004 0.000336242
16179 22.6827 3.36972 0.0717126 0 0 1.00004 0.000408252
141 23.7619 1.79051 0.617398 0 0 1.00004 0.000458035
143 24.4625 1.96687 1.59166 0 0 1.00005 0.000559322
142 24.3761 2.65657 0.766142 0 0 1.00005 0.000558244
144 23.7106 2.87196 1.51896 0 0 1.00005 0.000514391
223 24.5155 3.47713 1.53834 0 0 1.00005 0.000635028
16108 25.0021 2.81593 0.0143629 0 0 1.00005 0.000629133
149 26.6216 1.778 0.506855 0 0 1.00004 0.000762394
145 25.1789 1.8376 0.5063 0 0 1.00005 0.00061086
146 25.8549 2.58693 0.698587 0 0 1.00005 0.000715066
148 25.2109 2.53272 1.50754 0 0 1.00005 0.000659648
227 25.7884 3.4655 1.49685 0 0 1.00005 0.00077424
152 26.6124 2.53983 1.51465 0 0 1.00005 0.000811737
229 26.246 3.4718 0.590064 0 0 1.00005 0.000803146
151 27.5932 1.96983 1.22484 0 0 1.00004 0.000877199
153 28.3511 2.07683 0.341375 0 0 1.00004 0.000934125
150 27.1732 2.67054 0.635638 0 0 1.00004 0.000855057
231 27.2972 3.32729 1.40204 0 0 1.00004 0.000920308
156 28.3575 2.73774 1.19365 0 0 1.00004 0.000977593
233 28.0842 3.20047 0.32818 0 0 1.00004 0.000963213
155 29.5593 2.02816 0.878535 0 0 1.00004 0.00102985
154 29.3078 2.65415 0.285947 0 0 1.00004 0.00103245
235 29.3726 3.24388 1.17236 0 0 1.00004 0.00108372
997 30.0822 1.79983 1.69987 0 0 1.00003 0.00107528
159 31.0373 1.97583 0.921687 0 0 1.00003 0.00110952
160 30.3065 2.70069 0.997654 0 0 1.00003 0.00110735
239 31.1602 3.33584 0.972424 0 0 1.00003 0.0011817
998 31.118 2.68666 1.72331 0 0 1.00003 0.00116621
237 30.2432 3.23747 0.142637 0 0 1.00003 0.00112198
157 30.5295 1.90057 0.030611 0 0 1.00003 0.00107365
158 31.2715 2.65503 0.0761334 0 0 1.00003 0.00113844
164 0.435838 3.78059 0.919746 0 0 1.00002 0.00123874
241 0.289102 4.59714 0.475977 0 0 1.00003 0.00128804
243 1.28277 4.67181 0.989187 0 0 1.00002 0.00131672
244 0.246706 5.263 1.27459 0 0 1.00003 0.00136105
162 1.18263 3.86216 0.0676701 0 0 1.00002 0.00124358
168 1.98845 4.05089 0.851285 0 0 1.00002 0.0012651
247 2.68271 4.87145 1.13638 0 0 1.00001 0.00132548
166 2.78571 4.15731 0.205282 0 0 1.00001 0.00125007
245 2.0442 4.97292 0.282481 0 0 1.00002 0.00132767
249 3.54499 4.87978 0.164447 0 0 1.00001 0.00128154
172 3.61983 4.09519 0.892714 0 0 1.00001 0.0012272
251 4.18306 4.90463 1.15786 0 0 1 0.00127369
170 4.37794 4.20389 0.148425 0 0 1 0.00118969
176 5.02607 4.02961 1.18768 0 0 1 0.00115607
253 5.1254 4.77074 0.341085 0 0 1 0.00119062
174 5.86879 3.96699 0.197455 0 0 0.999998 0.0010728
180 6.58145 3.79907 0.785791 0 0 0.999996 0.00101037
255 5.79451 4.76534 1.04099 0 0 0.999998 0.00115542
1097 6.75593 4.55223 1.66673 0 0 0.999995 0.00108168
260 6.77091 5.17465 0.894311 0 0 0.999994 0.00110696
184 8.25406 3.92455 0.713262 0 0 0.999992 0.000857406
259 7.48163 4.49883 0.557562 0 0 0.999993 0.000975315
1018 7.47324 3.90435 1.51793 0 0 0.999993 0.000958455
1101 8.26323 4.65267 1.50834 0 0 0.999991 0.000936778
188 9.9151 3.61259 0.898774 0 0 0.999993 0.000661768
263 9.1188 4.60701 0.835 0 0 0.999991 0.000820499
265 9.88411 4.54598 0.130483 0 0 0.999991 0.000720888
1022 9.11298 3.80012 1.51998 0 0 0.999991 0.000780687
1105 9.89621 4.38932 1.68089 0 0 0.99999 0.000747916
182 9.02322 3.90255 0.064707 0 0 0.999992 0.000767698
192 11.396 3.67498 0.792948 0 0 0.999993 0.000504002
267 10.598 4.70362 0.921206 0 0 0.999991 0.00066773
269 11.3788 4.73129 0.23304 0 0 0.999992 0.000573994
1026 10.7094 3.60226 1.60996 0 0 0.999992 0.000596641
1109 11.3588 4.41451 1.72771 0 0 0.999992 0.000591778
186 10.5889 3.88102 0.178768 0 0 0.999993 0.000595072
196 12.4813 3.60834 0.823944 0 0 0.999997 0.000392433
271 12.1678 4.58413 1.01345 0 0 0.999995 0.000495294
1113 12.7159 5.02826 1.70993 0 0 0.999995 0.00050546
275 13.1879 4.71191 0.810033 0 0 0.999998 0.000403212
273 12.6095 4.64907 0.0638476 0 0 0.999996 0.000442277
200 13.9412 4.14641 0.703647 0 0 1 0.000299324
1034 13.4429 4.244 1.6084 0 0 0.999999 0.000373
1117 14.1543 5.13961 1.53598 0 0 1 0.000382254
279 14.8844 5.02761 0.817966 0 0 1 0.000300394
1038 14.9092 4.42831 1.60352 0 0 1 0.000280218
277 14.0901 4.92426 0.0659323 0 0 1 0.000335807
198 14.9005 4.20468 0.100847 0 0 1.00001 0.000232618
204 15.6033 4.0732 0.92827 0 0 1.00001 0.000199757
281 15.8126 4.7801 0.188382 0 0 1.00001 0.000227273
283 16.5283 4.58077 0.901984 0 0 1.00001 0.00020224
1042 16.2547 3.96153 1.69235 0 0 1.00001 0.000193128
1121 15.7512 5.05779 1.64796 0 0 1.00001 0.000287245
208 17.2038 3.82753 0.810523 0 0 1.00002 0.000144546
287 18.0238 4.47472 1.09369 0 0 1.00002 0.000194006
1046 17.89 3.62846 1.65139 0 0 1.00002 0.000157556
285 17.3881 4.56918 0.0171292 0 0 1.00002 0.00018084
206 18.0731 3.84162 0.061356 0 0 1.00002 0.000142662
212 18.8187 3.69098 0.947369 0 0 1.00003 0.000162737
289 18.7682 4.59062 0.359692 0 0 1.00003 0.000205915
291 19.6426 4.64967 1.07733 0 0 1.00003 0.000259206
292 18.7307 5.25501 1.19283 0 0 1.00003 0.000267836
210 19.5494 3.74545 0.228326 0 0 1.00003 0.000186877
216 20.4019 3.79485 1.22299 0 0 1.00004 0.000254284
295 20.8584 4.68325 1.37797 0 0 1.00004 0.000349743
297 21.5687 4.91262 0.797992 0 0 1.00004 0.000408848
214 21.0593 3.90224 0.507363 0 0 1.00004 0.000294953
293 20.0992 4.75591 0.346483 0 0 1.00003 0.000280077
219 22.8299 3.59574 1.40303 0 0 1.00004 0.000458011
220 21.9322 4.09714 1.29515 0 0 1.00004 0.000398399
299 22.4803 5.1293 1.25628 0 0 1.00005 0.00052264
218 22.6199 4.30853 0.506484 0 0 1.00004 0.000462223
221 23.5965 3.60327 0.771715 0 0 1.00005 0.00052344
222 24.3779 4.28266 0.616839 0 0 1.00005 0.000648852
224 23.4937 4.50552 1.31648 0 0 1.00005 0.000584903
305 24.9136 5.20859 0.557226 0 0 1.00005 0.000777856
301 23.5803 5.02054 0.524442 0 0 1.00005 0.000612522
303 24.4136 5.24118 1.41179 0 0 1.00005 0.000746817
228 25.0709 4.45512 1.59876 0 0 1.00005 0.000766598
225 25.117 3.64138 0.789111 0 0 1.00005 0.000693413
307 25.7717 5.09432 1.32572 0 0 1.00005 0.000883706
232 26.4445 4.25276 1.35606 0 0 1.00005 0.000893048
309 26.5951 4.93408 0.632552 0 0 1.00005 0.000941269
226 25.5979 4.3633 0.386211 0 0 1.00005 0.000786827
311 27.4386 4.83331 1.38828 0 0 1.00005 0.00103869
236 28.0705 3.94659 1.09484 0 0 1.00004 0.00102115
313 28.3963 4.70732 0.697682 0 0 1.00004 0.00109723
230 27.1604 4.00921 0.568163 0 0 1.00005 0.000929648
234 29.0506 3.75237 0.477719 0 0 1.00004 0.00107747
315 29.2151 4.49732 1.31667 0 0 1.00004 0.00116154
314 29.5269 5.28595 0.807982 0 0 1.00004 0.00123382
240 30.1291 4.04552 1.02218 0 0 1.00003 0.00117971
238 31.1677 3.9721 0.363809 0 0 1.00003 0.00121472
317 30.3467 4.66985 0.478755 0 0 1.00003 0.00122926
319 31.1251 4.59353 1.39558 0 0 1.00003 0.00128197
242 1.06793 5.53042 0.461964 0 0 1.00002 0.00137796
323 0.965496 6.21191 1.2773 0 0 1.00002 0.00146115
324 0.427814 6.92119 1.50144 0 0 1.00003 0.00153219
322 1.1466 6.94354 0.570621 0 0 1.00002 0.00151498
321 0.142154 5.99378 0.447513 0 0 1.00003 0.00140321
248 1.69336 5.51777 1.38027 0 0 1.00002 0.00140401
328 1.88026 7.0365 1.24668 0 0 1.00002 0.00154504
325 2.05121 6.21037 0.515511 0 0 1.00002 0.00143998
252 3.26315 5.64363 1.3059 0 0 1.00001 0.00138366
327 2.43282 6.17242 1.41854 0 0 1.00001 0.00145799
246 2.83354 5.62299 0.275706 0 0 1.00001 0.0013694
332 3.41621 6.98976 1.14666 0 0 1.00001 0.00150563
329 3.54956 6.30011 0.499385 0 0 1.00001 0.00141173
250 4.32671 5.49022 0.329693 0 0 1 0.00129926
331 4.27597 6.12367 1.24205 0 0 1 0.00138417
333 4.96199 6.26881 0.336313 0 0 1 0.00133594
336 4.91924 6.84303 1.17614 0 0 1 0.00141768
330 4.15528 7.04845 0.228817 0 0 1 0.0014582
256 5.06394 5.46449 1.32607 0 0 1 0.00127858
254 5.88997 5.45225 0.304714 0 0 0.999997 0.00119314
335 5.81175 6.2779 0.976358 0 0 0.999996 0.00129391
1177 6.57212 6.03167 1.62315 0 0 0.999993 0.00123426
340 6.55222 6.9178 1.02013 0 0 0.999993 0.00129974
337 6.49208 6.09327 0.155586 0 0 0.999994 0.00120259
264 8.27722 5.36007 0.7087 0 0 0.99999 0.000972381
339 7.416 6.20297 0.769463 0 0 0.999991 0.0011409
1098 7.47979 5.46173 1.51784 0 0 0.999992 0.00108978
1181 8.31131 6.16333 1.5222 0 0 0.999989 0.00107653
344 8.09992 6.90764 0.743744 0 0 0.999989 0.00114167
1178 7.38705 6.91186 1.62831 0 0 0.99999 0.00125524
258 7.41123 5.40052 0.0459623 0 0 0.999992 0.00105373
268 9.7997 5.36747 0.807962 0 0 0.99999 0.000809589
343 8.94042 6.23917 0.752044 0 0 0.999988 0.000986518
1102 9.10258 5.37644 1.62173 0 0 0.999989 0.000920028
1185 9.78013 6.2405 1.49873 0 0 0.999988 0.000923124
1182 9.15447 7.00981 1.49442 0 0 0.999986 0.00107402
345 9.79929 6.28366 0.0985912 0 0 0.999989 0.000884963
262 9.0469 5.51423 0.0180082 0 0 0.999989 0.000895271
272 11.3876 5.31608 1.00459 0 0 0.999991 0.000637585
347 10.6051 6.07135 0.979936 0 0 0.999989 0.000790412
349 11.3183 6.41663 0.0804163 0 0 0.99999 0.000728758
346 10.5464 6.99576 0.156836 0 0 0.999988 0.000870588
1186 10.5008 6.98282 1.52793 0 0 0.999986 0.000923812
270 11.9841 5.66501 0.187566 0 0 0.999992 0.000587383
276 12.6513 5.85224 0.87549 0 0 0.999994 0.000551121
351 11.7716 6.25434 1.07165 0 0 0.999991 0.000683682
1114 13.2924 5.90096 1.57941 0 0 0.999996 0.000522504
355 13.3211 6.61437 0.823965 0 0 0.999995 0.000554788
274 13.2824 5.56958 0.0445622 0 0 0.999997 0.000452399
280 14.0167 5.74207 0.782845 0 0 1 0.000416947
1197 14.2822 6.67754 1.42582 0 0 0.999999 0.000506776
357 14.086 6.41124 0.0407515 0 0 0.999999 0.000458155
278 14.967 5.65619 0.0374706 0 0 1 0.000333524
359 14.9931 6.46827 0.813746 0 0 1 0.000413195
284 15.7698 5.74527 0.959984 0 0 1.00001 0.000315209
363 16.431 6.45454 1.14512 0 0 1.00001 0.000358797
1118 15.054 5.8912 1.70966 0 0 1 0.000396371
282 16.5562 5.41927 0.276863 0 0 1.00001 0.000251094
361 15.6182 6.3501 0.0423615 0 0 1.00001 0.000355993
286 17.7671 5.29218 0.539812 0 0 1.00002 0.000236123
288 17.0487 5.41985 1.24698 0 0 1.00002 0.000264765
365 17.0035 6.27075 0.411323 0 0 1.00002 0.000311712
367 17.6067 6.23484 1.37949 0 0 1.00002 0.000334766
372 18.223 7.03328 1.12886 0 0 1.00002 0.000400979
369 18.319 6.21151 0.608334 0 0 1.00002 0.000316103
290 19.3861 5.72866 0.614821 0 0 1.00003 0.000314372
371 19.2848 6.52631 1.33463 0 0 1.00003 0.000397684
373 19.9627 6.71374 0.602763 0 0 1.00003 0.000425761
294 20.7285 5.73577 0.643822 0 0 1.00004 0.000398621
296 20.1576 5.57443 1.38003 0 0 1.00004 0.00036707
375 20.7611 6.56761 1.28448 0 0 1.00004 0.000491093
377 21.6572 6.61515 0.656364 0 0 1.00004 0.000549664
300 21.6577 5.83047 1.36197 0 0 1.00004 0.000505669
16260 21.6864 5.68932 0.0521121 0 0 1.00004 0.000468566
298 22.6893 5.78203 0.658952 0 0 1.00005 0.000580555
379 22.6544 6.63858 1.18432 0 0 1.00005 0.000668607
381 23.3865 6.72303 0.263257 0 0 1.00005 0.000729129
304 23.5194 5.83431 1.27434 0 0 1.00005 0.000692076
383 24.3826 6.51052 1.13976 0 0 1.00005 0.000846513
302 24.1945 5.95386 0.417217 0 0 1.00005 0.000754406
306 25.7695 5.81498 0.68577 0 0 1.00005 0.000926297
308 25.1878 5.98665 1.64599 0 0 1.00005 0.000910678
385 25.2396 6.68487 0.484364 0 0 1.00005 0.000940333
387 25.9285 6.54567 1.3831 0 0 1.00005 0.001036
312 26.7972 5.80255 1.4525 0 0 1.00005 0.0010613
310 27.615 5.50834 0.709775 0 0 1.00005 0.0010933
389 26.8592 6.32196 0.63715 0 0 1.00005 0.00108854
391 27.83 6.42824 1.34787 0 0 1.00005 0.00121737
390 27.8454 6.96637 0.519038 0 0 1.00005 0.00124485
316 28.4981 5.49038 1.46437 0 0 1.00004 0.00119523
395 29.5885 6.16082 1.30921 0 0 1.00004 0.00133326
394 29.7377 6.88647 0.503161 0 0 1.00004 0.00139
393 28.6085 6.17567 0.634704 0 0 1.00004 0.00124077
16355 29.5211 6.11997 0.0752439 0 0 1.00004 0.00129713
16276 28.6112 5.36338 0.0526195 0 0 1.00004 0.00116274
318 31.1184 5.35213 0.591405 0 0 1.00003 0.00132324
320 30.3702 5.43799 1.45204 0 0 1.00003 0.00131909
397 30.5508 6.16646 0.641478 0 0 1.00003 0.00137106
399 31.3818 6.14138 1.37808 0 0 1.00003 0.00142722
398 31.3759 6.93964 0.603605 0 0 1.00003 0.0014812
401 0.444823 7.63248 0.656631 0 0 1.00003 0.00157435
402 1.03338 8.46967 0.61199 0 0 1.00002 0.00166809
403 1.29762 7.85965 1.49663 0 0 1.00002 0.00164263
404 0.551257 8.5534 1.46577 0 0 1.00003 0.00170316
405 1.77815 7.77222 0.377936 0 0 1.00002 0.00159539
408 1.92481 8.63003 1.46906 0 0 1.00002 0.00172205
326 2.65487 7.16079 0.475449 0 0 1.00001 0.00152471
406 2.39086 8.6397 0.402453 0 0 1.00001 0.00167897
407 2.57885 7.82718 1.28795 0 0 1.00001 0.00162049
412 3.20673 8.54061 0.949355 0 0 1.00001 0.00166702
409 3.41468 7.78959 0.331996 0 0 1.00001 0.00156467
410 3.99161 8.48891 0.0812199 0 0 1 0.00161341
411 4.14778 7.68727 1.25194 0 0 1 0.00155113
416 4.86545 8.30121 0.944666 0 0 0.999999 0.00156709
413 4.82941 7.6775 0.246094 0 0 0.999999 0.0014849
334 5.6811 7.08988 0.153351 0 0 0.999996 0.00136843
414 6.01442 8.39387 0.177684 0 0 0.999993 0.00148025
415 5.62984 7.62655 1.04341 0 0 0.999996 0.00144869
417 6.61363 7.59136 0.173 0 0 0.999992 0.00134565
420 6.53209 8.27477 1.06668 0 0 0.999991 0.00144837
419 7.39808 7.81848 0.764982 0 0 0.999989 0.00131064
1258 7.39755 8.23188 1.73549 0 0 0.999987 0.00140767
1261 8.14929 7.54476 1.59334 0 0 0.999986 0.00124705
421 8.09087 7.65851 0.0291928 0 0 0.999988 0.00121102
424 8.37455 8.37262 0.89295 0 0 0.999985 0.0012784
348 9.88436 7.27476 0.743429 0 0 0.999987 0.000988213
423 8.98384 7.67174 0.679225 0 0 0.999986 0.00112774
428 9.79244 8.67542 0.714959 0 0 0.999984 0.00114773
1262 9.17044 8.75772 1.48512 0 0 0.999983 0.00127086
1265 9.70897 7.94641 1.63639 0 0 0.999984 0.00112849
352 11.3233 7.19301 0.827586 0 0 0.999988 0.000820348
427 10.609 7.99754 0.865266 0 0 0.999985 0.000987259
1266 10.6308 8.76565 1.46688 0 0 0.999984 0.00110474
1269 11.4207 7.86451 1.63775 0 0 0.999986 0.000924725
429 11.2464 8.17053 0.0466128 0 0 0.999987 0.000912082
356 12.69 7.32864 0.579937 0 0 0.999992 0.000679339
431 12.1776 8.27838 0.608721 0 0 0.999988 0.000832336
1190 12.0683 7.20667 1.40768 0 0 0.999989 0.0007672
1270 12.0955 8.73209 1.52871 0 0 0.999986 0.000939155
1273 12.8454 8.04329 1.50662 0 0 0.99999 0.000781687
350 11.8963 7.43527 0.000620057 0 0 0.999989 0.000764286
360 14.2879 7.38045 0.59929 0 0 0.999999 0.000540526
435 13.5875 8.12957 0.478794 0 0 0.999994 0.000670196
1194 13.4358 7.3758 1.3677 0 0 0.999994 0.000644487
1277 14.215 8.20797 1.37467 0 0 0.999996 0.00066329
439 15.0276 8.31188 0.875107 0 0 1 0.000588072
362 16.3762 7.18623 0.281526 0 0 1.00001 0.000401991
364 15.5772 7.32143 0.924416 0 0 1.00001 0.000461896
443 16.2108 8.16461 1.1156 0 0 1.00001 0.000524412
1198 15.0951 7.54145 1.64579 0 0 1 0.000550738
441 15.8109 8.32016 0.15564 0 0 1.00001 0.000526755
368 16.9222 7.35579 1.11683 0 0 1.00001 0.000428649
445 17.0111 8.10023 0.338119 0 0 1.00002 0.000471664
447 17.6573 8.01092 1.02596 0 0 1.00002 0.000480421
366 17.7626 7.15411 0.216566 0 0 1.00002 0.00038204
370 18.9652 7.30888 0.635025 0 0 1.00003 0.000428954
451 18.89 8.12379 1.17207 0 0 1.00003 0.00052204
376 19.845 7.61718 1.30618 0 0 1.00003 0.000525402
453 19.7759 8.10245 0.356005 0 0 1.00003 0.000533144
449 18.4064 8.16743 0.173685 0 0 1.00002 0.000480936
374 20.6846 7.41619 0.659715 0 0 1.00004 0.000538502
455 20.6401 8.39162 1.01601 0 0 1.00004 0.00063791
380 21.5484 7.61961 1.12625 0 0 1.00004 0.000647172
457 21.6217 8.29203 0.254451 0 0 1.00004 0.000690373
459 22.6216 8.12188 0.995295 0 0 1.00005 0.000797217
1218 22.4452 7.44191 1.72252 0 0 1.00005 0.00075185
378 22.3575 7.43021 0.378107 0 0 1.00005 0.000684937
384 23.493 7.26632 1.03322 0 0 1.00005 0.000811041
461 23.5402 8.01994 0.374063 0 0 1.00005 0.000870667
463 24.4203 8.03943 0.976268 0 0 1.00005 0.000991174
1302 24.3372 8.66191 1.65145 0 0 1.00006 0.00108641
382 24.4031 7.26831 0.265007 0 0 1.00005 0.000894446
462 24.393 8.76485 0.202943 0 0 1.00005 0.00103882
388 25.2064 7.33745 1.22766 0 0 1.00005 0.00102472
467 26.1366 7.95378 0.970291 0 0 1.00005 0.00117995
1306 26.1459 8.57106 1.71948 0 0 1.00005 0.00129112
386 26.1949 7.22301 0.3626 0 0 1.00005 0.00109619
465 25.3228 8.0706 0.302832 0 0 1.00005 0.00108048
466 26.3941 8.53415 0.0881118 0 0 1.00005 0.00124659
468 25.3897 8.80007 0.984619 0 0 1.00005 0.00118336
392 26.9087 7.06541 1.31834 0 0 1.00005 0.00118939
470 28.1192 8.46322 0.415242 0 0 1.00005 0.00141858
471 27.9482 7.7914 1.19371 0 0 1.00005 0.00135992
472 27.1204 8.60732 1.0057 0 0 1.00005 0.00135559
469 27.1271 7.73595 0.425485 0 0 1.00005 0.00124723
396 28.8026 7.07458 1.21444 0 0 1.00004 0.00136095
474 29.7724 8.33631 0.536883 0 0 1.00004 0.00153817
475 29.668 7.65066 1.26521 0 0 1.00004 0.00148371
476 28.9482 8.52134 1.16957 0 0 1.00004 0.00151879
473 28.8559 7.68875 0.4101 0 0 1.00004 0.00140381
400 30.4974 7.07024 1.17212 0 0 1.00004 0.00147118
479 31.4336 7.80713 1.29363 0 0 1.00003 0.00159297
480 30.6193 8.46982 1.17736 0 0 1.00004 0.00162106
477 30.816 7.85605 0.379746 0 0 1.00003 0.00154461
478 31.6193 8.6068 0.389846 0 0 1.00003 0.00165269
482 1.33649 10.2843 0.270284 0 0 1.00002 0.00184493
483 1.22586 9.36998 1.20223 0 0 1.00002 0.00178481
484 0.469085 9.92818 0.899482 0 0 1.00003 0.00181517
481 0.571203 9.33537 0.123974 0 0 1.00003 0.00174251
1322 1.0338 10.1268 1.75265 0 0 1.00002 0.00189537
485 1.95631 9.46167 0.44921 0 0 1.00002 0.00176916
488 2.0414 10.3705 0.974639 0 0 1.00002 0.00187384
486 2.79506 10.2908 0.0799318 0 0 1.00001 0.00183278
487 2.57574 9.46 1.22679 0 0 1.00001 0.00178947
1326 2.98071 10.2512 1.68218 0 0 1.00001 0.0018919
489 3.26676 9.38561 0.088862 0 0 1.00001 0.00173312
1329 3.40825 9.2647 1.67867 0 0 1.00001 0.00177694
492 3.57768 10.0617 0.748749 0 0 1.00001 0.0018039
491 4.1159 9.13941 0.868705 0 0 1 0.00169299
493 4.74666 9.22245 0.00684686 0 0 0.999999 0.0016515
496 4.78443 10.0142 0.579812 0 0 0.999998 0.00174046
1330 4.31687 10.0002 1.63116 0 0 1 0.00181698
1333 4.85102 9.10305 1.66947 0 0 0.999999 0.00169697
495 5.48946 8.99192 0.672021 0 0 0.999995 0.00159284
500 6.39026 9.84164 0.529028 0 0 0.99999 0.00161087
1334 5.49311 9.87424 1.19413 0 0 0.999995 0.00170809
1337 6.30341 9.10788 1.28578 0 0 0.999991 0.00157275
1417 6.40168 10.5597 1.21815 0 0 0.999989 0.00171485
499 7.28954 8.93229 0.730235 0 0 0.999987 0.00144218
501 8.20009 9.102 0.0866671 0 0 0.999985 0.0013557
504 8.07817 9.98025 0.592984 0 0 0.999984 0.00147083
1338 7.30918 9.79131 1.22363 0 0 0.999987 0.00155738
1341 8.15621 9.22252 1.43262 0 0 0.999984 0.00142774
503 9.02866 9.50817 0.74745 0 0 0.999983 0.0013273
508 9.72331 10.3876 0.682087 0 0 0.999981 0.00133883
1342 8.85647 10.3146 1.44759 0 0 0.999981 0.00147623
1345 9.90004 9.6432 1.45227 0 0 0.999981 0.00128642
432 11.394 8.89885 0.751406 0 0 0.999986 0.000989565
426 10.4495 8.93741 0.0411604 0 0 0.999984 0.00108605
507 10.5171 9.73463 0.676586 0 0 0.999982 0.00117939
1346 10.6909 10.2285 1.67922 0 0 0.99998 0.00128076
1349 11.3441 9.68335 1.35338 0 0 0.999983 0.00111729
436 12.9883 9.00037 0.803101 0 0 0.99999 0.000828957
511 12.119 9.8577 0.706121 0 0 0.999985 0.00100809
516 12.8243 10.5159 0.982042 0 0 0.999986 0.00101018
1353 12.5577 9.66286 1.64847 0 0 0.999986 0.00100439
1274 13.668 8.88471 1.59517 0 0 0.999991 0.00080107
440 14.4326 9.22028 0.772811 0 0 0.999997 0.000717884
515 13.5183 9.72226 0.854903 0 0 0.999991 0.000853241
1354 13.4952 10.4516 1.74133 0 0 0.999988 0.00100046
517 14.2462 10.1747 0.222641 0 0 0.999995 0.000808561
444 15.8558 9.16748 1.14314 0 0 1.00001 0.000640767
519 15.0984 9.87953 1.02475 0 0 1 0.000746643
521 15.6507 10.1903 0.254378 0 0 1 0.000711045
523 16.4651 9.96148 0.96671 0 0 1.00001 0.000681591
442 16.4605 9.03736 0.26376 0 0 1.00001 0.000570084
438 15.2541 9.22073 0.103766 0 0 1 0.000641771
452 18.2617 8.88031 0.938954 0 0 1.00002 0.000565093
448 17.0496 9.06317 1.12836 0 0 1.00001 0.000591346
525 17.1148 10.021 0.207068 0 0 1.00001 0.000644191
527 17.7397 9.85722 1.06886 0 0 1.00002 0.000658583
446 17.7215 9.09667 0.118774 0 0 1.00002 0.000555994
456 19.8063 8.9263 1.04965 0 0 1.00004 0.000636099
529 18.5674 9.71481 0.299349 0 0 1.00003 0.000627575
531 19.4892 9.8704 0.844328 0 0 1.00003 0.000695709
532 18.7003 10.4369 1.13674 0 0 1.00003 0.000732712
1369 18.6297 9.56621 1.69779 0 0 1.00003 0.000693309
450 19.2144 8.93566 0.209728 0 0 1.00003 0.000577769
533 19.9824 9.75517 0.0711953 0 0 1.00004 0.000693524
535 20.9434 9.77214 0.742808 0 0 1.00004 0.000782666
1373 20.2479 9.63024 1.64962 0 0 1.00004 0.000776066
454 20.7918 9.04078 0.202469 0 0 1.00004 0.000687701
460 21.6511 8.99176 0.962648 0 0 1.00005 0.000781279
1374 21.1089 10.0708 1.75656 0 0 1.00005 0.00089685
1298 22.4402 8.83977 1.56152 0 0 1.00005 0.000882242
539 22.8861 9.6461 0.790798 0 0 1.00005 0.000966023
540 22.1467 10.483 0.851864 0 0 1.00005 0.000966456
1377 21.961 9.74571 1.5149 0 0 1.00005 0.000922155
1378 23.1067 10.4692 1.42022 0 0 1.00006 0.0011109
458 22.7994 8.8251 0.197413 0 0 1.00005 0.000860519
537 22.0041 9.76653 0.209121 0 0 1.00005 0.000865906
464 23.4974 8.92128 0.954224 0 0 1.00005 0.000970836
543 24.6109 9.52115 0.75054 0 0 1.00006 0.00115542
1381 23.7747 9.56169 1.53506 0 0 1.00006 0.00110897
1382 24.4905 10.3028 1.43153 0 0 1.00006 0.00125763