ITEM: TIMESTEP
3000
ITEM: NUMBER OF ATOMS
32000
ITEM: BOX BOUNDS pp pp pp
0.0000000000000000e+00 3.1748021039364001e+01
0.0000000000000000e+00 3.1748021039364001e+01
0.0000000000000000e+00 3.1748021039364001e+01
ITEM: ATOMS id x y z c_phase c_nbond c_rho vx
4 0.126337 1.10235 0.464797 0 0 1.00001 0.000223356
83 0.983689 1.6685 0.778364 0 0 1.00015 0.000225582
842 0.724578 0.793462 1.41286 0 0 1.00011 0.000225827
921 0.0135881 1.60251 1.37487 0 0 0.999993 0.00022613
3 0.739651 0.0638463 0.616558 0 0 1.00012 0.000223781
8 1.71962 0.809784 1.0155 0 0 1.00028 0.000224438
85 1.81018 1.47545 0.220839 0 0 1.00029 0.000226221
925 1.83046 1.66072 1.76119 0 0 1.00028 0.00022769
6 2.52949 0.749097 0.203933 0 0 1.00041 0.000221029
7 2.59988 0.0541607 1.03754 0 0 1.00042 0.000221618
87 2.65775 1.54135 0.882851 0 0 1.00042 0.000222133
846 2.67756 0.816068 1.7457 0 0 1.00042 0.000223262
12 3.44139 0.933747 0.957023 0 0 1.00053 0.000214777
849 3.50674 0.0924483 1.7064 0 0 1.00054 0.000214839
929 3.61424 1.70833 1.72038 0 0 1.00053 0.000216121
10 4.11303 0.85862 0.325266 0 0 1.00062 0.000204325
16 4.96778 0.567976 1.17467 0 0 1.00071 0.000191368
93 4.92529 1.60044 0.383836 0 0 1.0007 0.000191567
850 4.35329 0.942063 1.62981 0 0 1.00063 0.000203115
9 3.48363 0.111124 0.171319 0 0 1.00055 0.000213595
14 5.652 0.645797 0.325867 0 0 1.00078 0.000172871
95 5.88839 1.31123 0.938821 0 0 1.00078 0.00016432
97 6.57779 1.39185 0.218564 0 0 1.00082 0.000139147
854 5.78833 0.460792 1.69986 0 0 1.00077 0.000171416
933 5.03664 1.72461 1.43668 0 0 1.00069 0.000188675
20 6.71653 0.390696 0.865936 0 0 1.00084 0.000132458
937 6.69389 1.01026 1.69472 0 0 1.00082 0.000135099
24 8.26755 0.409162 1.07399 0 0 1.00086 5.55023e-05
99 7.36929 1.22359 0.954748 0 0 1.00085 0.000103602
101 8.2468 1.39171 0.237004 0 0 1.00085 5.69756e-05
941 8.12869 1.27297 1.60761 0 0 1.00084 6.55801e-05
18 7.5835 0.648266 0.140518 0 0 1.00086 9.20312e-05
22 8.85697 0.508821 0.27409 0 0 1.00085 1.99543e-05
28 9.55024 0.338727 0.889363 0 0 1.00082 -2.41004e-05
103 9.02395 1.30799 1.11384 0 0 1.00083 9.13171e-06
105 9.63683 1.37537 0.0903222 0 0 1.00081 -3.16117e-05
32 11.2066 0.216041 0.633364 0 0 1.00069 -0.000136322
107 10.3593 1.04816 0.823732 0 0 1.00076 -7.90723e-05
866 10.5182 0.196566 1.44632 0 0 1.00075 -9.02947e-05
949 11.2797 1.01884 1.41868 0 0 1.00067 -0.000140366
946 10.5746 1.6782 1.73082 0 0 1.00072 -9.55868e-05
26 10.239 0.368022 0.0781365 0 0 1.00078 -6.94096e-05
36 12.8676 0.212093 0.637345 0 0 1.00048 -0.000238019
111 12.0381 1.07463 0.507307 0 0 1.00059 -0.000191599
870 12.1243 0.316598 1.30047 0 0 1.00058 -0.000194427
953 12.7111 1.19884 1.37314 0 0 1.00049 -0.000232652
40 14.3633 0.319492 0.766118 0 0 1.00025 -0.000305472
115 13.5828 1.11311 0.844095 0 0 1.00037 -0.000275706
117 14.0307 1.5599 0.166899 0 0 1.0003 -0.000294457
874 13.5986 0.360075 1.63582 0 0 1.00036 -0.000276422
957 14.3678 1.14995 1.47717 0 0 1.00024 -0.000308295
119 14.8663 1.55363 0.663169 0 0 1.00016 -0.000321794
44 15.6962 0.770182 0.788193 0 0 1.00002 -0.000333453
123 16.5425 1.54419 0.681401 0 0 0.999877 -0.000334253
878 15.132 0.464277 1.64164 0 0 1.00012 -0.000327637
882 16.5366 0.711984 1.34213 0 0 0.999877 -0.000333788
961 15.6232 1.48594 1.39181 0 0 1.00003 -0.00033558
38 15.0946 0.711738 0.067614 0 0 1.00012 -0.000324961
48 17.2452 0.731976 0.548086 0 0 0.999757 -0.000321025
127 17.9137 1.58087 0.756913 0 0 0.999654 -0.000303816
886 17.9065 0.7429 1.42753 0 0 0.999654 -0.000304628
965 17.2099 1.74841 1.5626 0 0 0.99977 -0.00032604
51 19.5297 0.0165002 0.662662 0 0 0.999412 -0.000228344
52 18.7834 0.725077 0.684772 0 0 0.999517 -0.000266255
131 19.5319 1.5542 0.841351 0 0 0.999423 -0.000230455
889 19.0191 0.158223 1.54466 0 0 0.999488 -0.000256046
890 19.5858 0.967121 1.68916 0 0 0.999419 -0.000228059
969 18.648 1.51217 1.49988 0 0 0.999548 -0.000277171
55 21.0846 0.349676 1.06701 0 0 0.999246 -0.000134368
56 20.2426 0.776115 0.979404 0 0 0.999332 -0.000185897
135 21.1009 1.65592 0.951342 0 0 0.999258 -0.000132103
54 21.1824 0.765254 0.218583 0 0 0.999234 -0.000127881
133 20.3393 1.514 0.193858 0 0 0.999325 -0.000181348
57 22.0055 0.262564 0.539436 0 0 0.999172 -7.45534e-05
59 22.7895 0.429962 1.40652 0 0 0.999147 -2.49441e-05
60 22.1074 1.14706 1.32912 0 0 0.999184 -6.87179e-05
137 21.9947 1.59875 0.538017 0 0 0.999188 -7.30195e-05
58 22.9141 1.07377 0.445127 0 0 0.999137 -1.06979e-05
63 24.2292 0.379924 1.45112 0 0 0.999134 5.77551e-05
61 23.5669 0.357282 0.57343 0 0 0.999119 2.11876e-05
62 24.438 1.18609 0.754302 0 0 0.999136 7.18933e-05
64 23.4753 1.24903 1.40197 0 0 0.999141 1.81352e-05
65 24.9575 0.315523 0.551666 0 0 0.99914 9.19043e-05
67 26.0127 0.383036 1.17099 0 0 0.999207 0.0001389
68 25.1718 1.12517 1.47993 0 0 0.999172 0.000105615
147 25.9344 1.73398 1.35716 0 0 0.999226 0.000134674
66 25.8958 0.928967 0.431774 0 0 0.999195 0.00013038
70 27.5804 1.27999 0.388805 0 0 0.999358 0.000178521
71 27.6209 0.508937 0.874053 0 0 0.999358 0.000179881
72 26.7613 1.02768 1.2628 0 0 0.999278 0.000160814
913 28.3831 0.337677 1.39843 0 0 0.999461 0.000193387
69 26.798 0.240286 0.22669 0 0 0.999263 0.000158035
76 28.6571 1.24184 0.741772 0 0 0.999498 0.000199779
914 29.3994 0.946174 1.56857 0 0 0.999612 0.000209224
993 28.5307 1.71895 1.49743 0 0 0.999497 0.000200539
917 29.8229 0.17344 1.46092 0 0 0.999673 0.000212445
75 29.2821 0.354678 0.615237 0 0 0.999582 0.000205774
841 31.5974 0.266312 1.25677 0 0 0.999965 0.000221991
79 30.7118 0.48947 0.471222 0 0 0.999812 0.000216371
80 30.1098 1.19864 0.774039 0 0 0.999717 0.000215068
918 30.8744 0.971859 1.39381 0 0 0.999845 0.000220115
82 1.12051 2.43641 0.129008 0 0 1.00017 0.000226437
84 0.143485 2.38224 0.812123 0 0 1.00001 0.000227147
163 1.29809 3.23772 0.949158 0 0 1.00019 0.000232053
922 1.14959 2.36133 1.59174 0 0 1.00017 0.000230793
1001 0.39672 3.03062 1.54956 0 0 1.00005 0.000233132
161 0.342264 3.09638 0.13135 0 0 1.00004 0.000229462
88 1.91925 2.41899 0.784051 0 0 1.00029 0.000226987
167 2.66721 3.28106 0.861039 0 0 1.00039 0.000228078
926 2.67833 2.23017 1.53453 0 0 1.0004 0.000225263
1009 3.26646 3.42735 1.65017 0 0 1.00045 0.000227239
86 2.73457 2.38239 0.0557552 0 0 1.00042 0.000223523
92 3.39 2.55509 0.779819 0 0 1.0005 0.000219313
91 4.01404 1.84149 0.711598 0 0 1.00059 0.000210391
96 4.91958 2.57369 0.816225 0 0 1.00067 0.000193326
171 4.20856 3.31868 0.749941 0 0 1.00057 0.00020922
930 4.13999 2.64209 1.58383 0 0 1.00058 0.000210824
94 5.65518 2.44393 0.133011 0 0 1.00074 0.000172435
100 6.5609 2.18182 0.773236 0 0 1.0008 0.000140584
175 5.6537 3.19743 0.953254 0 0 1.00071 0.000175989
934 5.86544 2.19561 1.4975 0 0 1.00075 0.000166746
1017 6.52391 3.06855 1.55664 0 0 1.00076 0.000144942
177 6.65323 2.92944 0.134336 0 0 1.00078 0.000134275
98 7.45539 2.22709 0.13999 0 0 1.00083 9.95528e-05
104 8.08226 2.20334 0.931119 0 0 1.00083 6.73454e-05
179 7.40289 3.06995 0.93469 0 0 1.00079 0.000105043
938 7.30101 2.0616 1.5696 0 0 1.00082 0.000107412
1021 8.18545 3.0036 1.65338 0 0 1.00079 6.17247e-05
181 8.26913 2.97281 0.0393572 0 0 1.00081 5.54374e-05
102 8.90244 2.08828 0.25263 0 0 1.00083 1.86358e-05
108 9.76922 2.02571 1.11054 0 0 1.00078 -3.92774e-05
183 8.92504 2.97429 0.929527 0 0 1.00079 1.8845e-05
942 9.02877 2.22206 1.70525 0 0 1.0008 7.68165e-06
185 9.55813 2.90737 0.213232 0 0 1.00078 -2.37655e-05
106 10.2791 2.11478 0.21435 0 0 1.00075 -7.32787e-05
112 11.1524 1.8272 0.771659 0 0 1.00068 -0.000133665
187 10.6164 2.80959 0.922176 0 0 1.0007 -9.95719e-05
1029 11.4377 2.83125 1.5762 0 0 1.00062 -0.000157024
116 12.6655 1.94195 0.594383 0 0 1.0005 -0.000229871
191 11.9207 2.64244 0.742612 0 0 1.00058 -0.000185974
950 11.9168 1.9214 1.46608 0 0 1.00059 -0.000184672
1033 12.8361 3.01887 1.68733 0 0 1.00045 -0.000246908
195 13.1711 3.03078 0.848667 0 0 1.00041 -0.000262436
954 13.3694 1.99194 1.48125 0 0 1.00039 -0.000269939
120 14.0109 2.44512 0.92701 0 0 1.00029 -0.000298642
1037 14.0178 3.38467 1.55754 0 0 1.00028 -0.000306115
199 14.6858 3.43742 0.884619 0 0 1.00018 -0.0003258
958 14.7728 2.29825 1.44773 0 0 1.00017 -0.000324416
118 14.8314 2.51506 0.136738 0 0 1.00016 -0.000323441
197 14.1488 3.22642 0.0331095 0 0 1.00027 -0.000305933
114 13.4046 2.29498 0.0589663 0 0 1.00039 -0.000270015
124 15.6885 2.44338 0.693163 0 0 1.00002 -0.000337946
203 16.2926 3.20073 0.662853 0 0 0.999924 -0.000342929
962 16.2974 2.47918 1.52559 0 0 0.999922 -0.000342802
1041 15.3593 3.25738 1.50218 0 0 1.00007 -0.000343128
201 15.5598 3.2587 0.0197406 0 0 1.00004 -0.000339947
128 17.0547 2.35037 0.682729 0 0 0.999796 -0.000330214
207 17.9343 2.92567 0.699615 0 0 0.999664 -0.000308735
966 18.0094 2.43837 1.58105 0 0 0.999651 -0.000305911
1045 17.0812 3.11558 1.4949 0 0 0.9998 -0.000336653
132 18.8822 2.3568 1.0131 0 0 0.999521 -0.000266545
211 19.6945 3.241 1.27708 0 0 0.999438 -0.000228303
209 18.8751 2.99524 0.195656 0 0 0.99953 -0.000269458
130 19.5796 2.34105 0.101593 0 0 0.999426 -0.000228699
973 20.3184 1.7874 1.72389 0 0 0.999345 -0.000186429
134 21.1517 2.41552 0.457952 0 0 0.999265 -0.00013022
136 20.1881 2.46735 1.11357 0 0 0.999364 -0.000194888
215 21.3051 3.29312 1.39188 0 0 0.999288 -0.000121672
213 20.4156 2.99207 0.334525 0 0 0.999348 -0.000182178
139 22.8703 2.06859 1.50794 0 0 0.999173 -2.04665e-05
138 22.9701 2.60056 0.734973 0 0 0.999174 -1.05518e-05
140 22.0925 2.49769 1.23712 0 0 0.999212 -6.79533e-05
217 21.986 3.19877 0.598502 0 0 0.999233 -7.64895e-05
16179 22.6753 3.39932 0.0756385 0 0 0.999208 -3.15589e-05
141 23.7438 1.80741 0.62365 0 0 0.99914 3.47199e-05
143 24.4303 1.98643 1.60991 0 0 0.999168 7.26171e-05
142 24.3433 2.68147 0.77466 0 0 0.999174 6.48984e-05
144 23.6886 2.90117 1.5352 0 0 0.999188 3.17468e-05
223 24.4745 3.50882 1.55588 0 0 0.999223 7.4456e-05
16108 24.9586 2.84401 0.0146995 0 0 0.999194 9.58122e-05
149 26.5536 1.79334 0.511146 0 0 0.999264 0.000154768
145 25.135 1.85513 0.509277 0 0 0.999171 0.000101815
146 25.7959 2.61069 0.706993 0 0 0.999233 0.000130497
148 25.161 2.55425 1.52443 0 0 0.999209 0.000107348
227 25.7254 3.49632 1.51126 0 0 0.999275 0.000133479
152 26.5417 2.55903 1.52964 0 0 0.999299 0.000158678
229 26.1737 3.4992 0.598506 0 0 0.999292 0.000145201
151 27.5105 1.98472 1.23721 0 0 0.999373 0.000183666
153 28.2567 2.08965 0.343668 0 0 0.999456 0.000195258
150 27.093 2.69134 0.644794 0 0 0.999342 0.000172599
231 27.2067 3.35263 1.41599 0 0 0.999386 0.00018013
156 28.2614 2.75701 1.20566 0 0 0.999481 0.000199799
233 27.9896 3.21908 0.326653 0 0 0.999454 0.000192021
997 29.9665 1.80866 1.70735 0 0 0.999708 0.000217071
155 29.4564 2.04587 0.87984 0 0 0.999626 0.000212196
154 29.2042 2.65904 0.290396 0 0 0.999597 0.000209432
235 29.2587 3.26401 1.17384 0 0 0.999624 0.000214927
159 30.9211 1.98459 0.924163 0 0 0.999855 0.00022096
160 30.1911 2.7106 1.00173 0 0 0.999747 0.00022076
239 31.0348 3.35206 0.971373 0 0 0.999883 0.000228613
998 30.9964 2.69458 1.72645 0 0 0.999875 0.000228566
237 30.1194 3.25819 0.133143 0 0 0.999741 0.000219815
157 30.4208 1.9087 0.025981 0 0 0.99977 0.000218768
158 31.1531 2.66364 0.0761752 0 0 0.999894 0.000223291
164 0.304283 3.78492 0.918788 0 0 1.00004 0.000234073
241 0.153532 4.59503 0.481763 0 0 1.00001 0.000236878
243 1.15029 4.67119 0.986936 0 0 1.00015 0.000241236
244 0.0995648 5.26695 1.27753 0 0 1.00001 0.00024687
162 1.05095 3.86415 0.0602584 0 0 1.00015 0.000233678
168 1.85144 4.04647 0.847439 0 0 1.00026 0.000235656
247 2.5498 4.85697 1.13743 0 0 1.00033 0.000238708
166 2.65866 4.14563 0.206693 0 0 1.00036 0.00023098
245 1.90754 4.96932 0.278726 0 0 1.00025 0.000237438
249 3.41637 4.86311 0.161842 0 0 1.00043 0.000226926
172 3.50203 4.07795 0.886393 0 0 1.00047 0.000222797
176 4.9187 4.0019 1.18382 0 0 1.00061 0.000199669
251 4.05476 4.88167 1.14725 0 0 1.00049 0.000223207
170 4.26732 4.1863 0.148969 0 0 1.00055 0.000210291
253 5.01574 4.74198 0.341142 0 0 1.00059 0.000196327
174 5.78171 3.93962 0.19869 0 0 1.00069 0.000171273
180 6.49263 3.76811 0.772946 0 0 1.00074 0.000146516
255 5.6858 4.73826 1.02601 0 0 1.00064 0.000181729
1097 6.66661 4.51406 1.64446 0 0 1.0007 0.000144534
260 6.6839 5.13417 0.886089 0 0 1.00068 0.000141685
184 8.19822 3.89406 0.701552 0 0 1.00077 6.14718e-05
259 7.41009 4.46307 0.547492 0 0 1.00074 0.000104302
1018 7.40064 3.87246 1.49825 0 0 1.00075 0.000106758
1101 8.20014 4.61372 1.48834 0 0 1.00073 6.34375e-05
188 9.8939 3.58004 0.886554 0 0 1.00073 -4.93804e-05
263 9.07711 4.56808 0.822305 0 0 1.00072 4.08065e-06
265 9.85889 4.50568 0.126641 0 0 1.0007 -4.77149e-05
1022 9.07616 3.7649 1.49965 0 0 1.00075 7.38418e-06
1105 9.86526 4.34894 1.6571 0 0 1.00069 -4.82266e-05
182 8.98368 3.87027 0.0633026 0 0 1.00076 1.27165e-05
192 11.4013 3.64666 0.779492 0 0 1.00061 -0.000153466
267 10.5837 4.66869 0.907298 0 0 1.00065 -0.000100963
269 11.3798 4.69621 0.230735 0 0 1.00058 -0.000157679
1026 10.7006 3.56913 1.58936 0 0 1.00067 -0.000108201
1109 11.3582 4.37447 1.70689 0 0 1.00058 -0.000156447
272 11.3824 5.27495 0.985379 0 0 1.00056 -0.000159275
186 10.5777 3.85072 0.176264 0 0 1.00068 -9.76181e-05
196 12.5076 3.57941 0.815232 0 0 1.00049 -0.000226058
271 12.183 4.55232 1.00101 0 0 1.0005 -0.000210686
1113 12.7277 4.99892 1.69037 0 0 1.00042 -0.000254396
275 13.216 4.68095 0.800777 0 0 1.00038 -0.000272516
273 12.634 4.62051 0.0630959 0 0 1.00045 -0.000238197
200 13.9791 4.12897 0.696888 0 0 1.00028 -0.000305765
1034 13.4733 4.21936 1.59405 0 0 1.00035 -0.000289144
1117 14.1929 5.11917 1.52108 0 0 1.00024 -0.000329119
279 14.9289 5.01215 0.811955 0 0 1.00013 -0.000344636
1038 14.9532 4.41681 1.59467 0 0 1.00013 -0.000347245
277 14.1296 4.90691 0.0605775 0 0 1.00025 -0.000315473
198 14.9499 4.19435 0.0970207 0 0 1.00014 -0.00033529
204 15.657 4.06647 0.926069 0 0 1.00003 -0.000349163
281 15.8677 4.77561 0.186525 0 0 0.999995 -0.000352621
283 16.5821 4.58005 0.900145 0 0 0.999886 -0.00035225
1042 16.3072 3.95861 1.69006 0 0 0.999926 -0.000355496
1121 15.7991 5.05264 1.64109 0 0 1.00001 -0.000367766
208 17.2583 3.83295 0.811005 0 0 0.999777 -0.000333916
287 18.0757 4.48724 1.0975 0 0 0.999669 -0.000316102
1046 17.9422 3.63712 1.65545 0 0 0.999677 -0.000317776
285 17.4454 4.57638 0.0150459 0 0 0.999757 -0.000331823
206 18.125 3.85347 0.0587364 0 0 0.999648 -0.000303909
212 18.8683 3.70553 0.950047 0 0 0.999547 -0.000271617
289 18.814 4.60804 0.361551 0 0 0.999572 -0.000278665
291 19.6817 4.67639 1.08041 0 0 0.999477 -0.000233384
292 18.7755 5.2751 1.20011 0 0 0.999597 -0.000290757
210 19.5905 3.76562 0.227605 0 0 0.999456 -0.00023127
216 20.4316 3.82004 1.23253 0 0 0.999376 -0.0001815
295 20.8783 4.71619 1.39273 0 0 0.999372 -0.000156429
297 21.5732 4.94874 0.809385 0 0 0.999329 -0.000106332
214 21.0772 3.92951 0.512018 0 0 0.999319 -0.000139885
293 20.1269 4.7835 0.35207 0 0 0.999431 -0.000202075
219 22.8187 3.62958 1.42008 0 0 0.999227 -2.28161e-05
220 21.9368 4.13084 1.30954 0 0 0.99928 -8.06077e-05
299 22.4679 5.17415 1.27163 0 0 0.999306 -4.77707e-05
218 22.6098 4.34466 0.509832 0 0 0.999254 -3.37116e-05
221 23.5733 3.6369 0.781972 0 0 0.999207 2.55248e-05
222 24.3374 4.31837 0.624472 0 0 0.999245 6.90606e-05
224 23.4674 4.54676 1.33234 0 0 0.999258 1.91582e-05
305 24.8547 5.25437 0.566126 0 0 0.999311 9.69311e-05
301 23.5516 5.06123 0.532968 0 0 0.999276 2.81098e-05
228 25.0117 4.49789 1.62184 0 0 0.99929 0.000104816
303 24.3646 5.28559 1.43223 0 0 0.999308 7.41385e-05
225 25.0658 3.67816 0.801341 0 0 0.999238 0.000104499
307 25.6951 5.1364 1.34157 0 0 0.999352 0.000136454
232 26.3631 4.28829 1.37069 0 0 0.999353 0.00016045
309 26.5086 4.97054 0.640258 0 0 0.999389 0.000163078
226 25.5324 4.39885 0.388086 0 0 0.999293 0.000125311
311 27.3376 4.86772 1.40469 0 0 0.999463 0.000190721
236 27.9702 3.97487 1.10364 0 0 0.999485 0.000197961
313 28.2856 4.73352 0.705847 0 0 0.999547 0.00020859
230 27.0738 4.04143 0.570052 0 0 0.999391 0.000175542
234 28.9408 3.76948 0.486582 0 0 0.99959 0.00021017
315 29.0965 4.52193 1.33009 0 0 0.999639 0.000221594
240 30.0075 4.07053 1.02331 0 0 0.999744 0.000226753
238 31.0398 3.97422 0.372653 0 0 0.999887 0.00023023
317 30.215 4.67782 0.49036 0 0 0.999782 0.00023046
319 30.9888 4.59941 1.4103 0 0 0.999889 0.000239354
242 0.919261 5.53218 0.461783 0 0 1.00011 0.000244353
248 1.54241 5.51248 1.37995 0 0 1.00019 0.00025169
323 0.805324 6.21988 1.27701 0 0 1.00009 0.00025584
324 0.268335 6.91809 1.50723 0 0 1.00003 0.000266484
322 0.981628 6.94557 0.5733 0 0 1.0001 0.000254578
328 1.71657 7.02961 1.23892 0 0 1.00018 0.000262354
325 1.90603 6.20059 0.518838 0 0 1.00022 0.000246669
252 3.11471 5.61906 1.3011 0 0 1.00037 0.000241043
327 2.27453 6.15495 1.41063 0 0 1.00026 0.00025402
332 3.26414 6.96423 1.12898 0 0 1.00033 0.000246482
246 2.69159 5.61361 0.27377 0 0 1.00032 0.00023804
329 3.40446 6.28314 0.500557 0 0 1.00037 0.000235912
250 4.19779 5.46427 0.326082 0 0 1.00049 0.000218564
256 4.94126 5.43104 1.3185 0 0 1.00055 0.000206554
331 4.14415 6.09839 1.22892 0 0 1.00045 0.000227384
333 4.83291 6.23587 0.334094 0 0 1.0005 0.000208848
336 4.78083 6.80223 1.16098 0 0 1.00047 0.000218722
330 4.0113 7.02671 0.222273 0 0 1.0004 0.000230948
254 5.79048 5.42377 0.302123 0 0 1.00062 0.000176408
335 5.69888 6.24577 0.964235 0 0 1.00056 0.000185457
1177 6.46222 5.98734 1.5987 0 0 1.00061 0.000160414
340 6.43688 6.87247 1.0107 0 0 1.00057 0.000163595
337 6.38234 6.04438 0.154775 0 0 1.00061 0.000155711
334 5.55601 7.05462 0.147573 0 0 1.00051 0.000191216
264 8.21355 5.31706 0.695268 0 0 1.0007 6.12221e-05
339 7.32968 6.16214 0.755414 0 0 1.00064 0.000113789
1098 7.39375 5.42126 1.49328 0 0 1.00068 0.000110277
1181 8.23886 6.11374 1.49385 0 0 1.00065 6.3714e-05
344 8.01435 6.85712 0.7302 0 0 1.00061 7.812e-05
1178 7.28455 6.86713 1.59854 0 0 1.00059 0.000126537
258 7.33223 5.36019 0.0462319 0 0 1.00069 0.000112068
268 9.76446 5.32241 0.793683 0 0 1.00067 -4.11722e-05
343 8.87881 6.19189 0.738055 0 0 1.00065 2.18139e-05
1102 9.05233 5.33029 1.59914 0 0 1.00068 9.83603e-06
1185 9.73486 6.19378 1.46968 0 0 1.00062 -3.88458e-05
1182 9.0914 6.95409 1.46548 0 0 1.0006 7.76772e-06
345 9.75959 6.23526 0.0944807 0 0 1.00063 -4.10054e-05
262 8.99564 5.46787 0.0130623 0 0 1.00069 1.23989e-05
347 10.5778 6.02508 0.965508 0 0 1.00059 -0.00010136
349 11.3057 6.37409 0.077824 0 0 1.00053 -0.00015435
346 10.5133 6.94495 0.154709 0 0 1.00056 -9.82259e-05
1186 10.4631 6.92947 1.4986 0 0 1.00055 -9.68655e-05
270 11.9909 5.62952 0.183423 0 0 1.0005 -0.000201149
276 12.666 5.82022 0.862697 0 0 1.00042 -0.00024793
351 11.7691 6.21033 1.05425 0 0 1.00049 -0.000191961
1114 13.3115 5.86861 1.55665 0 0 1.00034 -0.000295176
355 13.3399 6.58445 0.814107 0 0 1.00032 -0.000296503
274 13.3106 5.54041 0.0425722 0 0 1.00035 -0.000281169
280 14.0505 5.71713 0.773341 0 0 1.00025 -0.000320564
1197 14.3148 6.653 1.4079 0 0 1.0002 -0.000349898
357 14.1186 6.38619 0.0381797 0 0 1.00023 -0.000326536
278 15.0155 5.64395 0.034659 0 0 1.00012 -0.000348846
359 15.0344 6.45159 0.807029 0 0 1.00011 -0.000363011
284 15.8181 5.73805 0.957904 0 0 1 -0.000366303
363 16.478 6.45225 1.14038 0 0 0.999914 -0.000378061
1118 15.0934 5.87632 1.6985 0 0 1.0001 -0.000369974
282 16.6082 5.41893 0.276588 0 0 0.999888 -0.000356671
361 15.663 6.33873 0.0393301 0 0 1.00003 -0.000366477
286 17.8162 5.30061 0.541102 0 0 0.999717 -0.000327052
288 17.1008 5.42422 1.24729 0 0 0.999819 -0.000357328
365 17.0501 6.27367 0.411201 0 0 0.999834 -0.00035881
367 17.6526 6.24526 1.38438 0 0 0.999757 -0.000351948
372 18.2625 7.05009 1.13131 0 0 0.999699 -0.000334011
369 18.3607 6.22987 0.609606 0 0 0.999667 -0.000314137
290 19.4201 5.75595 0.619917 0 0 0.999535 -0.000254417
371 19.3177 6.55498 1.34893 0 0 0.999575 -0.000272724
373 19.9857 6.74925 0.609467 0 0 0.999516 -0.000222403
294 20.7431 5.77304 0.652771 0 0 0.999418 -0.000166552
296 20.1849 5.608 1.39417 0 0 0.999462 -0.000208085
375 20.7717 6.60906 1.30178 0 0 0.999456 -0.000170751
377 21.6544 6.65925 0.665665 0 0 0.999405 -0.00010156
300 21.6582 5.87526 1.38326 0 0 0.999373 -0.000103055
16260 21.6862 5.72973 0.0518267 0 0 0.999355 -9.95219e-05
298 22.671 5.82499 0.672955 0 0 0.999328 -2.97396e-05
379 22.6296 6.68967 1.20544 0 0 0.999381 -3.32777e-05
381 23.3479 6.77693 0.267452 0 0 0.999372 1.36379e-05
304 23.482 5.88176 1.29825 0 0 0.99933 2.38457e-05
383 24.3216 6.55961 1.15681 0 0 0.999378 7.48611e-05
302 24.147 6.0037 0.426908 0 0 0.999335 6.05685e-05
306 25.6879 5.85952 0.699943 0 0 0.999386 0.000136966
308 25.1159 6.03804 1.67519 0 0 0.999381 0.000118892
385 25.1631 6.73832 0.494389 0 0 0.999411 0.000116892
387 25.8307 6.5918 1.40603 0 0 0.999444 0.000150837
312 26.697 5.84285 1.47477 0 0 0.99946 0.000180326
310 27.5045 5.54164 0.721412 0 0 0.999503 0.000194544
389 26.7554 6.36335 0.650939 0 0 0.999484 0.00017982
391 27.7095 6.47077 1.36434 0 0 0.999574 0.000213188
316 28.3739 5.52054 1.48577 0 0 0.999595 0.000218691
390 27.7185 7.00528 0.529481 0 0 0.999594 0.000209283
314 29.3987 5.30793 0.818036 0 0 0.999697 0.000227246
395 29.4483 6.18133 1.32142 0 0 0.999733 0.000239917
394 29.5892 6.89771 0.50644 0 0 0.999766 0.000238948
393 28.478 6.2045 0.63849 0 0 0.999628 0.000218171
16355 29.3862 6.15212 0.0797681 0 0 0.999719 0.000230073
16276 28.4912 5.38862 0.0588463 0 0 0.999593 0.000212918
318 30.9746 5.36765 0.594899 0 0 0.999893 0.000238962
320 30.2268 5.45854 1.4672 0 0 0.999805 0.000242333
397 30.4065 6.18197 0.649306 0 0 0.999837 0.000240813
399 31.2302 6.15464 1.38418 0 0 0.999935 0.000254985
398 31.2114 6.95357 0.603558 0 0 0.999938 0.000252329
321 31.735 5.99646 0.446706 0 0 0.999993 0.000246559
401 0.273871 7.63238 0.661663 0 0 1.00002 0.000260502
402 0.844016 8.46422 0.619006 0 0 1.00007 0.000268005
403 1.12395 7.86396 1.49738 0 0 1.0001 0.000276161
404 0.369408 8.56239 1.47037 0 0 1.00003 0.000282817
405 1.60451 7.7655 0.372353 0 0 1.00015 0.000258895
408 1.73633 8.6186 1.46534 0 0 1.00014 0.00028163
326 2.49835 7.1508 0.476355 0 0 1.00025 0.000249477
406 2.20401 8.63416 0.400046 0 0 1.00018 0.000263135
407 2.4055 7.8123 1.27827 0 0 1.00022 0.000267606
412 3.02487 8.5164 0.936658 0 0 1.00025 0.000261697
409 3.25423 7.77249 0.327452 0 0 1.0003 0.000247622
410 3.82249 8.46114 0.0822403 0 0 1.00032 0.000242758
411 3.98914 7.67129 1.24916 0 0 1.00036 0.000244031
416 4.71282 8.25958 0.923533 0 0 1.00039 0.000229434
413 4.67865 7.63969 0.247778 0 0 1.00042 0.000220755
1250 3.82157 8.35181 1.76406 0 0 1.00032 0.000267169
414 5.87575 8.35125 0.170454 0 0 1.00046 0.000188106
415 5.49048 7.59316 1.03336 0 0 1.00047 0.000202535
417 6.49795 7.5414 0.169537 0 0 1.00053 0.000159852
420 6.40181 8.24233 1.04574 0 0 1.00049 0.000172951
419 7.28862 7.77253 0.747803 0 0 1.00055 0.00012494
424 8.28595 8.31765 0.870738 0 0 1.00053 6.74324e-05
1258 7.2815 8.18716 1.70453 0 0 1.00051 0.000135812
1261 8.05299 7.49172 1.56315 0 0 1.00057 8.48513e-05
421 7.99983 7.60669 0.0283574 0 0 1.00057 8.07671e-05
348 9.83892 7.22544 0.724999 0 0 1.00057 -4.7746e-05
423 8.91064 7.61991 0.663131 0 0 1.00057 2.16176e-05
428 9.72853 8.6234 0.694955 0 0 1.00051 -3.59004e-05
1262 9.0905 8.70316 1.44838 0 0 1.00051 1.33169e-05
1265 9.63724 7.89327 1.60362 0 0 1.00054 -2.76043e-05
352 11.3081 7.14607 0.811883 0 0 1.0005 -0.000161212
427 10.5672 7.94877 0.845989 0 0 1.00051 -0.000102027
1266 10.5812 8.70647 1.429 0 0 1.00047 -0.000108424
1269 11.3971 7.80926 1.60579 0 0 1.00046 -0.000176025
429 11.2195 8.1219 0.0426289 0 0 1.00047 -0.000155209
356 12.6959 7.28634 0.566904 0 0 1.00038 -0.000260045
431 12.1681 8.23775 0.592219 0 0 1.0004 -0.000228862
1190 12.0552 7.16111 1.38005 0 0 1.00044 -0.000219892
1270 12.0781 8.68411 1.49364 0 0 1.00038 -0.00023658
1273 12.8481 7.99912 1.47833 0 0 1.00034 -0.000287593
360 14.3233 7.35554 0.583089 0 0 1.00019 -0.000348357
435 13.6043 8.09519 0.465838 0 0 1.00026 -0.000322143
1194 13.4468 7.34228 1.34349 0 0 1.00029 -0.000317107
1277 14.2337 8.18441 1.35405 0 0 1.00019 -0.000368103
362 16.4199 7.18446 0.277293 0 0 0.999926 -0.000378701
364 15.6147 7.31133 0.922298 0 0 1.00003 -0.000384415
439 15.0554 8.29336 0.865978 0 0 1.0001 -0.000388392
443 16.246 8.16015 1.11151 0 0 0.999953 -0.000404123
1198 15.1303 7.5234 1.62671 0 0 1.00009 -0.000396134
441 15.8519 8.31465 0.152765 0 0 1 -0.000392758
368 16.9638 7.3613 1.11638 0 0 0.999859 -0.000383421
445 17.0541 8.10409 0.34114 0 0 0.999855 -0.000380776
447 17.6907 8.02248 1.02678 0 0 0.999782 -0.00036824
366 17.8041 7.16491 0.213467 0 0 0.999752 -0.000344787
370 18.9943 7.33571 0.643203 0 0 0.999626 -0.000291854
451 18.9161 8.15058 1.18446 0 0 0.999659 -0.000311631
376 19.8617 7.6541 1.32499 0 0 0.999564 -0.000247401
453 19.794 8.13861 0.360077 0 0 0.99958 -0.000244476
449 18.4371 8.18786 0.169423 0 0 0.999703 -0.000326327
374 20.6917 7.45731 0.672011 0 0 0.999493 -0.000179002
455 20.6389 8.43658 1.03455 0 0 0.999539 -0.000188615
380 21.5361 7.6691 1.14825 0 0 0.999463 -0.000115407
457 21.6065 8.34083 0.258194 0 0 0.999486 -0.000108325
459 22.5841 8.17445 1.01877 0 0 0.99946 -3.43354e-05
1218 22.4141 7.49711 1.75671 0 0 0.999436 -5.02986e-05
378 22.3334 7.48096 0.385662 0 0 0.999423 -5.31306e-05
384 23.4445 7.31835 1.05003 0 0 0.999409 2.34319e-05
461 23.488 8.07191 0.385897 0 0 0.999448 2.95396e-05
463 24.3458 8.0979 1.00082 0 0 0.999469 8.50786e-05
1302 24.2542 8.71423 1.68534 0 0 0.99951 8.79929e-05
382 24.3411 7.32201 0.268905 0 0 0.999417 7.68445e-05
388 25.1202 7.3914 1.25362 0 0 0.999456 0.000124751
467 26.0262 8.00274 0.98757 0 0 0.999533 0.000165526
1306 26.0247 8.62492 1.75522 0 0 0.999576 0.000184653
386 26.0976 7.27559 0.367741 0 0 0.999491 0.000161962
465 25.2331 8.12879 0.30741 0 0 0.999496 0.000126063
466 26.2795 8.58261 0.0890907 0 0 0.999574 0.000175367
392 26.7904 7.10921 1.34226 0 0 0.999534 0.000190525
470 27.9739 8.50257 0.428735 0 0 0.999684 0.000223661
471 27.8054 7.83577 1.21379 0 0 0.999646 0.00022314
472 26.9845 8.65233 1.02451 0 0 0.999625 0.000205606
469 27.0039 7.78079 0.434048 0 0 0.999578 0.000192884
396 28.6614 7.11129 1.22962 0 0 0.999687 0.000234705
474 29.6059 8.35285 0.544104 0 0 0.99981 0.000249784
475 29.509 7.67684 1.27611 0 0 0.999785 0.000252894
476 28.7905 8.55695 1.18532 0 0 0.999753 0.000249562
473 28.7056 7.7174 0.41573 0 0 0.99971 0.000232022
400 30.3365 7.09095 1.17941 0 0 0.99985 0.000254006
479 31.2625 7.82371 1.30144 0 0 0.999952 0.000269085
480 30.4422 8.49098 1.18394 0 0 0.999887 0.000267901
477 30.6486 7.87245 0.380045 0 0 0.999893 0.000254982
478 31.4374 8.62261 0.390664 0 0 0.999972 0.000263431
482 1.1332 10.2846 0.27413 0 0 1.00008 0.000277512
483 1.02635 9.37741 1.2064 0 0 1.00008 0.000284813
484 0.266216 9.92963 0.89864 0 0 1.00002 0.000282674
481 0.380436 9.33573 0.122746 0 0 1.00003 0.000270098
1322 0.823063 10.1272 1.75301 0 0 1.00006 0.000309111
485 1.76822 9.44683 0.452251 0 0 1.00013 0.000272295
488 1.83726 10.3746 0.970382 0 0 1.00012 0.000285927
486 2.60274 10.2773 0.0850813 0 0 1.00017 0.000269605
487 2.38556 9.4473 1.22343 0 0 1.00018 0.00028097
1326 2.78137 10.2359 1.66561 0 0 1.00018 0.000297743
1329 3.20952 9.23904 1.65418 0 0 1.00024 0.000281846
489 3.08282 9.37192 0.0804272 0 0 1.00023 0.000259135
492 3.38778 10.0357 0.731191 0 0 1.00023 0.000266091
491 3.94094 9.11104 0.854819 0 0 1.0003 0.000251331
493 4.5844 9.18272 0.00738139 0 0 1.00034 0.000232426
496 4.61453 9.97906 0.571311 0 0 1.00031 0.000243001
1330 4.12936 9.97355 1.61881 0 0 1.00027 0.00027547
1333 4.68098 9.0697 1.65017 0 0 1.00034 0.000252617
495 5.33631 8.94669 0.659993 0 0 1.0004 0.000214359
500 6.24462 9.79579 0.513119 0 0 1.0004 0.000187329
1334 5.31807 9.83398 1.16052 0 0 1.00035 0.000230713
1337 6.15749 9.0542 1.25722 0 0 1.00043 0.000193352
1417 6.2406 10.5127 1.18408 0 0 1.00036 0.000203845
499 7.16893 8.88354 0.710193 0 0 1.00048 0.000137391
501 8.09622 9.05001 0.0807079 0 0 1.0005 8.3198e-05
504 7.96013 9.92731 0.575881 0 0 1.00045 9.78785e-05
1338 7.18205 9.73993 1.19064 0 0 1.00044 0.000148961
1341 8.04621 9.16985 1.39832 0 0 1.00048 9.33567e-05
503 8.93822 9.45698 0.726554 0 0 1.00048 2.88328e-05
508 9.64159 10.3398 0.657633 0 0 1.00044 -2.35581e-05
1342 8.74902 10.2701 1.4045 0 0 1.00044 5.04453e-05
1345 9.82671 9.59289 1.41 0 0 1.00046 -4.17814e-05
432 11.3664 8.85031 0.731732 0 0 1.00043 -0.000171563
426 10.3975 8.88892 0.0401144 0 0 1.00048 -9.19064e-05
507 10.4581 9.68465 0.6545 0 0 1.00044 -9.41437e-05
1346 10.6257 10.1714 1.63118 0 0 1.00041 -0.000112468
1349 11.2936 9.63731 1.31389 0 0 1.0004 -0.000168545
436 12.9945 8.96729 0.786115 0 0 1.00031 -0.000296514
511 12.0986 9.81663 0.684932 0 0 1.00036 -0.000234925
516 12.8085 10.4759 0.958367 0 0 1.00029 -0.000299514
1353 12.533 9.61688 1.60875 0 0 1.00032 -0.000279803
1274 13.6768 8.84417 1.56626 0 0 1.00024 -0.000353548
440 14.4551 9.19875 0.758806 0 0 1.00016 -0.00037901
515 13.5186 9.68121 0.834064 0 0 1.00024 -0.000339026
1354 13.4832 10.411 1.70538 0 0 1.00023 -0.000365374
517 14.2606 10.1525 0.213833 0 0 1.00017 -0.000375981
444 15.8878 9.15991 1.13609 0 0 0.999998 -0.000420843
1278 15.0385 9.06808 1.75988 0 0 1.00009 -0.000424987
519 15.1194 9.85839 1.0095 0 0 1.00008 -0.000416641
521 15.6788 10.1813 0.251636 0 0 1.00002 -0.000419059
523 16.4945 9.9591 0.961277 0 0 0.999934 -0.000426573
442 16.499 9.03211 0.259551 0 0 0.999928 -0.000402331
438 15.2883 9.20726 0.0920426 0 0 1.00007 -0.000398714
452 18.2896 8.89793 0.944667 0 0 0.999736 -0.000353796
448 17.0826 9.0707 1.12896 0 0 0.999864 -0.000405246
525 17.1439 10.0275 0.207457 0 0 0.999867 -0.000403201
527 17.7649 9.87223 1.07442 0 0 0.999804 -0.000391266
446 17.7546 9.10991 0.116336 0 0 0.999791 -0.000369045
456 19.8142 8.9623 1.06871 0 0 0.99961 -0.000254488
529 18.5904 9.73525 0.300389 0 0 0.999724 -0.0003349
531 19.5005 9.9001 0.85361 0 0 0.999658 -0.000283299
532 18.7148 10.4576 1.14914 0 0 0.999732 -0.000348273
1369 18.6475 9.58914 1.71601 0 0 0.999723 -0.000358071
450 19.237 8.96419 0.211598 0 0 0.99965 -0.000288169
533 19.984 9.78957 0.0734307 0 0 0.999621 -0.000237687
535 20.9278 9.81347 0.755706 0 0 0.999576 -0.00016515
1373 20.2446 9.66823 1.68168 0 0 0.999612 -0.000233847