ITEM: TIMESTEP
9500
ITEM: NUMBER OF ATOMS
32000
ITEM: BOX BOUNDS pp pp pp
0.0000000000000000e+00 3.1748021039364001e+01
0.0000000000000000e+00 3.1748021039364001e+01
0.0000000000000000e+00 3.1748021039364001e+01
ITEM: ATOMS id x y z c_phase c_nbond c_rho vx
4 0.153594 1.10147 0.466014 0 0 1.00001 0.000552659
83 1.01034 1.66864 0.779539 0 0 1.00002 0.000563841
842 0.752137 0.793164 1.41252 0 0 1.00002 0.000561011
921 0.0419833 1.60161 1.37605 0 0 1.00001 0.000567721
3 0.766324 0.06522 0.6181 0 0 1.00002 0.000549028
8 1.74613 0.812461 1.01577 0 0 1.00004 0.000545304
85 1.83714 1.47829 0.220059 0 0 1.00004 0.000545856
925 1.86011 1.66187 1.7614 0 0 1.00004 0.000565812
6 2.55355 0.749387 0.204317 0 0 1.00005 0.000517299
7 2.62353 0.055088 1.03879 0 0 1.00005 0.000517822
87 2.68215 1.54319 0.883203 0 0 1.00005 0.00052599
846 2.70432 0.818254 1.7465 0 0 1.00005 0.00052875
12 3.46317 0.934477 0.959701 0 0 1.00006 0.000485991
849 3.52855 0.0921233 1.70968 0 0 1.00006 0.000488157
929 3.63724 1.71066 1.72285 0 0 1.00006 0.000498511
10 4.13447 0.860221 0.32534 0 0 1.00007 0.00044322
16 4.98686 0.568905 1.17563 0 0 1.00008 0.000391148
93 4.94315 1.60371 0.385223 0 0 1.00007 0.000399513
850 4.37155 0.944536 1.63417 0 0 1.00007 0.000442965
9 3.50512 0.110264 0.172325 0 0 1.00006 0.000473929
14 5.66661 0.647018 0.326201 0 0 1.00008 0.000333103
95 5.90236 1.31502 0.942408 0 0 1.00008 0.000323269
97 6.58855 1.39609 0.219468 0 0 1.00008 0.000258753
854 5.80343 0.461737 1.70441 0 0 1.00008 0.000333906
933 5.05358 1.72762 1.44017 0 0 1.00008 0.00040146
20 6.72646 0.392504 0.869102 0 0 1.00009 0.000242304
937 6.70445 1.01354 1.69977 0 0 1.00008 0.000257911
24 8.26941 0.410647 1.0773 0 0 1.00009 9.22391e-05
99 7.3761 1.2275 0.95762 0 0 1.00009 0.000186078
101 8.24889 1.39591 0.238051 0 0 1.00009 9.60518e-05
941 8.13179 1.27711 1.6131 0 0 1.00009 0.000117117
18 7.58898 0.650685 0.141657 0 0 1.00009 0.000156913
22 8.85572 0.510454 0.274987 0 0 1.00008 2.79546e-05
28 9.54564 0.339617 0.892697 0 0 1.00008 -4.14352e-05
103 9.02179 1.31223 1.11708 0 0 1.00008 2.01807e-05
105 9.63132 1.37908 0.0912169 0 0 1.00008 -4.81711e-05
32 11.1927 0.216729 0.636242 0 0 1.00007 -0.000206613
107 10.3503 1.05162 0.826707 0 0 1.00007 -0.000122033
866 10.5081 0.197606 1.45099 0 0 1.00007 -0.000136857
949 11.2665 1.02126 1.42293 0 0 1.00007 -0.000209561
946 10.5639 1.68373 1.73586 0 0 1.00007 -0.000134359
26 10.2307 0.369007 0.0786469 0 0 1.00008 -0.000113301
36 12.8478 0.213335 0.639596 0 0 1.00004 -0.000347439
111 12.0198 1.07736 0.509836 0 0 1.00006 -0.000281106
870 12.1064 0.317396 1.30457 0 0 1.00006 -0.00028658
953 12.6909 1.20064 1.37701 0 0 1.00005 -0.000334614
40 14.3389 0.322444 0.77081 0 0 1.00002 -0.000439578
115 13.5589 1.11431 0.846204 0 0 1.00003 -0.000396298
117 14.0075 1.56176 0.165498 0 0 1.00003 -0.000424151
874 13.5763 0.361032 1.63899 0 0 1.00003 -0.000396895
957 14.3426 1.15204 1.48022 0 0 1.00002 -0.000439764
119 14.841 1.55499 0.664256 0 0 1.00001 -0.000461776
44 15.6704 0.768938 0.788301 0 0 0.999998 -0.000484874
123 16.5141 1.54319 0.681668 0 0 0.999984 -0.000494038
878 15.1054 0.464627 1.64281 0 0 1.00001 -0.000470965
882 16.5089 0.711007 1.3423 0 0 0.999984 -0.000493437
961 15.5944 1.48771 1.39291 0 0 1 -0.000484317
38 15.0678 0.71176 0.067266 0 0 1.00001 -0.000468844
48 17.2205 0.73085 0.549517 0 0 0.999973 -0.000486993
127 17.8881 1.57956 0.755718 0 0 0.999962 -0.000472688
886 17.8809 0.742432 1.42567 0 0 0.999963 -0.000472907
965 17.1821 1.7467 1.56195 0 0 0.999973 -0.000489587
51 19.5087 0.0155078 0.66185 0 0 0.99994 -0.00039438
52 18.7601 0.724545 0.684238 0 0 0.99995 -0.000436729
131 19.5107 1.55082 0.839792 0 0 0.99994 -0.000394831
889 18.9953 0.156825 1.54247 0 0 0.999947 -0.000425942
890 19.5647 0.965115 1.68661 0 0 0.99994 -0.000391344
969 18.6252 1.50867 1.49769 0 0 0.999952 -0.000443998
55 21.0722 0.348633 1.06441 0 0 0.999925 -0.000277341
56 20.2241 0.774454 0.976543 0 0 0.999932 -0.000344768
135 21.0858 1.65 0.949775 0 0 0.999925 -0.000272047
54 21.168 0.763254 0.217619 0 0 0.999924 -0.000268809
133 20.3213 1.51009 0.1944 0 0 0.999932 -0.000337828
57 21.9958 0.262234 0.537769 0 0 0.99992 -0.000193769
59 22.784 0.428353 1.40221 0 0 0.999917 -0.000113377
60 22.098 1.14379 1.32539 0 0 0.99992 -0.000179516
137 21.9843 1.59426 0.535623 0 0 0.99992 -0.000190989
58 22.9087 1.06964 0.444386 0 0 0.999917 -0.000100335
63 24.2316 0.378513 1.4461 0 0 0.999917 3.88027e-05
61 23.5651 0.355828 0.5718 0 0 0.999916 -3.56979e-05
62 24.4408 1.182 0.751893 0 0 0.999918 5.95671e-05
64 23.4734 1.24456 1.39747 0 0 0.999917 -3.68519e-05
65 24.9631 0.31446 0.54986 0 0 0.99992 0.000109031
67 26.0232 0.381437 1.16786 0 0 0.999928 0.000216488
68 25.1785 1.12165 1.47501 0 0 0.999922 0.000141457
147 25.9453 1.7292 1.35288 0 0 0.999928 0.000222515
66 25.9059 0.926852 0.430107 0 0 0.999927 0.000203772
70 27.5982 1.27747 0.387475 0 0 0.999944 0.000357063
71 27.6385 0.507213 0.872158 0 0 0.999945 0.000356731
72 26.7754 1.02507 1.25912 0 0 0.999935 0.000291508
913 28.4049 0.337825 1.39778 0 0 0.999955 0.000416665
69 26.8119 0.239699 0.226508 0 0 0.999935 0.000282457
76 28.6789 1.23829 0.739246 0 0 0.999959 0.000435827
914 29.4213 0.946938 1.56662 0 0 0.99997 0.000484843
993 28.5518 1.71647 1.49568 0 0 0.999957 0.000441788
917 29.8491 0.171761 1.45885 0 0 0.999976 0.000500234
75 29.3049 0.354221 0.614529 0 0 0.999968 0.000464345
841 31.6248 0.266745 1.25686 0 0 1.00001 0.000550308
79 30.7393 0.487148 0.472334 0 0 0.999991 0.00052485
80 30.1337 1.19742 0.77315 0 0 0.999981 0.000512235
918 30.9003 0.971189 1.39295 0 0 0.999993 0.000542222
82 1.14789 2.43768 0.128069 0 0 1.00003 0.000575419
84 0.171726 2.38231 0.811555 0 0 1.00001 0.000577977
163 1.32614 3.23839 0.949129 0 0 1.00003 0.000602048
922 1.17773 2.36325 1.59225 0 0 1.00003 0.000588687
1001 0.425624 3.03225 1.54974 0 0 1.00001 0.000608774
161 0.370739 3.09785 0.131355 0 0 1.00001 0.000594852
88 1.94667 2.42063 0.78513 0 0 1.00004 0.000565384
167 2.69313 3.28496 0.861937 0 0 1.00005 0.000568111
926 2.70483 2.23436 1.53773 0 0 1.00005 0.000547926
1009 3.29286 3.43135 1.65366 0 0 1.00006 0.000560472
86 2.75914 2.38579 0.0558315 0 0 1.00005 0.00053574
92 3.41397 2.55966 0.781973 0 0 1.00006 0.000514665
91 4.03567 1.84437 0.713454 0 0 1.00007 0.000463763
96 4.93772 2.5788 0.818817 0 0 1.00007 0.000421295
171 4.23063 3.32487 0.75217 0 0 1.00007 0.000489096
930 4.16335 2.64731 1.58685 0 0 1.00007 0.000485986
94 5.67065 2.45027 0.13406 0 0 1.00008 0.000355046
100 6.57234 2.18809 0.77628 0 0 1.00008 0.000274623
175 5.6705 3.20527 0.956775 0 0 1.00008 0.000380113
934 5.88044 2.20224 1.50155 0 0 1.00008 0.000346673
1017 6.53729 3.07701 1.56144 0 0 1.00008 0.000307214
177 6.66415 2.93794 0.134853 0 0 1.00008 0.000277037
98 7.46198 2.2336 0.140676 0 0 1.00009 0.000186614
104 8.08601 2.20996 0.934735 0 0 1.00009 0.000126408
179 7.41064 3.07839 0.937807 0 0 1.00008 0.000213524
938 7.30894 2.06803 1.57481 0 0 1.00009 0.000211007
1021 8.18917 3.01268 1.65956 0 0 1.00008 0.000139344
181 8.27193 2.98133 0.0399606 0 0 1.00008 0.000115335
102 8.90149 2.09486 0.253784 0 0 1.00008 3.54381e-05
108 9.7636 2.03166 1.11394 0 0 1.00008 -5.17612e-05
183 8.92393 2.98307 0.93349 0 0 1.00008 5.03367e-05
942 9.02707 2.22922 1.71147 0 0 1.00008 3.48187e-05
185 9.5537 2.91581 0.21403 0 0 1.00008 -2.38556e-05
106 10.2704 2.12066 0.21494 0 0 1.00007 -0.000109
112 11.1394 1.8327 0.774395 0 0 1.00007 -0.000196466
187 10.6059 2.81717 0.925475 0 0 1.00007 -0.000134641
1029 11.4222 2.83921 1.58229 0 0 1.00006 -0.000210059
116 12.6455 1.94598 0.596681 0 0 1.00005 -0.000331143
191 11.9037 2.64942 0.744634 0 0 1.00006 -0.000264279
950 11.9004 1.92599 1.47073 0 0 1.00006 -0.000264738
1033 12.8147 3.02525 1.69305 0 0 1.00004 -0.000334397
195 13.1513 3.03465 0.849282 0 0 1.00004 -0.000366197
954 13.3473 1.99577 1.48443 0 0 1.00004 -0.000381106
120 13.9861 2.4488 0.927581 0 0 1.00003 -0.00042184
1037 13.9921 3.39002 1.56016 0 0 1.00003 -0.000416921
199 14.6591 3.44029 0.884496 0 0 1.00002 -0.000455968
958 14.7484 2.30124 1.44739 0 0 1.00001 -0.000458364
118 14.8047 2.51616 0.137382 0 0 1.00001 -0.000462568
197 14.1224 3.22909 0.034798 0 0 1.00002 -0.000430062
114 13.3819 2.29958 0.0587789 0 0 1.00004 -0.000385141
124 15.66 2.44288 0.69485 0 0 0.999998 -0.000487357
203 16.2653 3.20028 0.66521 0 0 0.999988 -0.000497304
962 16.2694 2.47834 1.52537 0 0 0.999988 -0.00049483
1041 15.3328 3.25883 1.5038 0 0 1 -0.000478225
201 15.5312 3.25996 0.0212147 0 0 1 -0.000487001
128 17.028 2.35008 0.682564 0 0 0.999976 -0.000492921
207 17.9078 2.9233 0.699626 0 0 0.999962 -0.000474043
966 17.9826 2.43493 1.58025 0 0 0.999961 -0.000469893
1045 17.0525 3.11329 1.49482 0 0 0.999976 -0.000492365
132 18.8585 2.35339 1.01104 0 0 0.999949 -0.000432898
211 19.6714 3.23333 1.27373 0 0 0.999939 -0.000381184
209 18.8505 2.9909 0.194429 0 0 0.999949 -0.000434169
130 19.5591 2.33515 0.10194 0 0 0.99994 -0.000391449
973 20.2998 1.7819 1.72072 0 0 0.999932 -0.000336773
134 21.1379 2.40954 0.456166 0 0 0.999925 -0.000266762
136 20.1694 2.46066 1.1102 0 0 0.999934 -0.000346558
215 21.291 3.28492 1.38631 0 0 0.999925 -0.000242273
213 20.3968 2.98601 0.332915 0 0 0.999932 -0.000327708
139 22.8652 2.06125 1.50354 0 0 0.999918 -9.6334e-05
138 22.965 2.59285 0.732202 0 0 0.999917 -8.31448e-05
140 22.0819 2.49009 1.2332 0 0 0.99992 -0.000171599
217 21.9748 3.18998 0.596742 0 0 0.999921 -0.000179193
16179 22.6697 3.38929 0.0742562 0 0 0.999919 -0.000106566
141 23.7429 1.80176 0.621548 0 0 0.999917 -7.98459e-06
143 24.4332 1.97994 1.60412 0 0 0.999919 7.41326e-05
142 24.3462 2.67328 0.771797 0 0 0.999919 6.67927e-05
144 23.6877 2.8915 1.52961 0 0 0.999918 6.12917e-06
223 24.4789 3.49822 1.54987 0 0 0.999921 0.000105002
16108 24.9648 2.83517 0.014596 0 0 0.999922 0.000134157
149 26.5673 1.78856 0.509712 0 0 0.999933 0.000276463
145 25.1417 1.84951 0.50804 0 0 0.999922 0.000137685
146 25.8067 2.60318 0.704355 0 0 0.999927 0.000217872
148 25.1688 2.54702 1.51896 0 0 0.999923 0.000158435
227 25.7367 3.48637 1.50632 0 0 0.999927 0.000240364
152 26.5559 2.55278 1.52489 0 0 0.999933 0.000298665
229 26.1878 3.49042 0.595862 0 0 0.999931 0.00027606
151 27.5283 1.98016 1.23351 0 0 0.999944 0.000369333
153 28.2778 2.08581 0.342951 0 0 0.999953 0.00042057
150 27.1099 2.68493 0.64211 0 0 0.999939 0.000342403
231 27.226 3.34475 1.41151 0 0 0.999941 0.000378815
156 28.2827 2.75128 1.20205 0 0 0.999954 0.000442799
233 28.0105 3.21329 0.326907 0 0 0.99995 0.000426179
997 29.9931 1.80622 1.70524 0 0 0.999979 0.000527527
155 29.4798 2.04088 0.879417 0 0 0.999971 0.000496493
154 29.2276 2.65737 0.289089 0 0 0.999967 0.000492585
235 29.2848 3.25822 1.17321 0 0 0.999968 0.000521143
159 30.9477 1.98245 0.923525 0 0 0.999994 0.00055352
160 30.2177 2.70798 1.00057 0 0 0.999982 0.000547256
239 31.0638 3.34783 0.97186 0 0 0.999996 0.000593135
998 31.0244 2.69273 1.7256 0 0 0.999996 0.000584992
237 30.1482 3.25239 0.135712 0 0 0.999981 0.000553863
157 30.4457 1.90653 0.0271806 0 0 0.999986 0.000531413
158 31.1803 2.6616 0.076161 0 0 0.999998 0.000569577
164 0.334797 3.78426 0.919246 0 0 1.00001 0.000623105
241 0.184909 4.59625 0.480409 0 0 1.00001 0.000650082
243 1.18055 4.67246 0.987872 0 0 1.00003 0.000658543
244 0.13387 5.26662 1.27689 0 0 1.00001 0.000692043
162 1.08114 3.86435 0.0622689 0 0 1.00002 0.000619175
168 1.88249 4.04883 0.848707 0 0 1.00004 0.000619724
247 2.57919 4.86238 1.13778 0 0 1.00005 0.000637867
166 2.6866 4.15013 0.206548 0 0 1.00005 0.000593589
245 1.93844 4.97169 0.279816 0 0 1.00004 0.000651745
249 3.44404 4.86951 0.162608 0 0 1.00006 0.000588406
172 3.52711 4.08415 0.888553 0 0 1.00006 0.000557994
176 4.93975 4.01127 1.18608 0 0 1.00007 0.000468478
251 4.08173 4.89006 1.15099 0 0 1.00006 0.000563608
170 4.28991 4.19301 0.148981 0 0 1.00007 0.00051079
253 5.03703 4.75195 0.34162 0 0 1.00007 0.000479598
174 5.79691 3.94905 0.198781 0 0 1.00008 0.000385066
180 6.50706 3.77837 0.776884 0 0 1.00008 0.000319565
255 5.70578 4.74825 1.03093 0 0 1.00008 0.00043107
1097 6.68055 4.52681 1.65205 0 0 1.00008 0.000344002
260 6.69716 5.14763 0.889565 0 0 1.00008 0.000351149
184 8.20217 3.90473 0.705242 0 0 1.00008 0.000146642
259 7.41878 4.47515 0.550643 0 0 1.00008 0.000246445
1018 7.40973 3.88352 1.50486 0 0 1.00008 0.000243805
1101 8.20508 4.62707 1.49547 0 0 1.00008 0.000179307
188 9.88726 3.59068 0.89064 0 0 1.00008 -4.55838e-05
263 9.07563 4.58108 0.826685 0 0 1.00008 6.74466e-05
265 9.85229 4.51872 0.127904 0 0 1.00008 -2.82882e-05
1022 9.07414 3.7766 1.50647 0 0 1.00008 5.69292e-05
1105 9.85977 4.36232 1.66519 0 0 1.00008 -1.39675e-05
182 8.98264 3.88109 0.0638617 0 0 1.00008 5.63659e-05
192 11.3861 3.65568 0.784104 0 0 1.00006 -0.000205062
267 10.5729 4.68024 0.911996 0 0 1.00007 -0.000100998
269 11.3641 4.70745 0.231326 0 0 1.00006 -0.000191116
1026 10.6895 3.57999 1.59621 0 0 1.00007 -0.000125639
1109 11.3427 4.38765 1.71382 0 0 1.00006 -0.000177939
272 11.3671 5.28841 0.992006 0 0 1.00006 -0.000172836
186 10.5677 3.86059 0.177074 0 0 1.00007 -0.000120832
196 12.4854 3.58913 0.817841 0 0 1.00005 -0.000308441
271 12.1626 4.56243 1.00495 0 0 1.00005 -0.000267942
1113 12.7074 5.00779 1.69671 0 0 1.00004 -0.000301053
275 13.1917 4.69112 0.80365 0 0 1.00004 -0.000358369
273 12.6106 4.62931 0.0630091 0 0 1.00005 -0.000313595
200 13.9536 4.13365 0.698895 0 0 1.00003 -0.000417276
1034 13.4488 4.22694 1.59842 0 0 1.00003 -0.000374387
1117 14.1631 5.12455 1.52579 0 0 1.00002 -0.000414536
279 14.8992 5.01625 0.813506 0 0 1.00001 -0.000463005
1038 14.9246 4.41907 1.59687 0 0 1.00001 -0.00045928
277 14.1016 4.91109 0.062888 0 0 1.00002 -0.000425097
198 14.9207 4.19639 0.0985762 0 0 1.00001 -0.000468317
204 15.6266 4.06755 0.925971 0 0 0.999999 -0.000488492
281 15.8352 4.77549 0.186965 0 0 0.999996 -0.000494915
283 16.5513 4.57912 0.900226 0 0 0.999984 -0.000498168
1042 16.2775 3.9585 1.68981 0 0 0.999988 -0.000493055
1121 15.7676 5.05235 1.64262 0 0 0.999996 -0.000481082
208 17.2297 3.82997 0.810284 0 0 0.999973 -0.000492741
287 18.0462 4.48174 1.09541 0 0 0.999961 -0.000468196
1046 17.9142 3.63334 1.65325 0 0 0.999963 -0.000470581
285 17.4136 4.57272 0.0158265 0 0 0.99997 -0.000491275
206 18.0979 3.84833 0.0598551 0 0 0.99996 -0.000469395
212 18.8417 3.69994 0.948923 0 0 0.99995 -0.000432542
289 18.7875 4.60121 0.36053 0 0 0.999951 -0.000435926
291 19.6568 4.66608 1.07961 0 0 0.999941 -0.000375215
292 18.7467 5.267 1.19667 0 0 0.999952 -0.000429455
210 19.5676 3.75804 0.227956 0 0 0.99994 -0.000388396
216 20.4122 3.81097 1.22886 0 0 0.999932 -0.000319249
295 20.8604 4.70427 1.38701 0 0 0.99993 -0.00026695
297 21.561 4.93604 0.804944 0 0 0.999925 -0.000198344
214 21.0625 3.91995 0.510183 0 0 0.999928 -0.000263524
293 20.1073 4.77339 0.349418 0 0 0.999936 -0.000341185
219 22.8135 3.61805 1.41405 0 0 0.999919 -7.9511e-05
220 21.9256 4.1191 1.30421 0 0 0.999923 -0.000168261
299 22.4608 5.15864 1.26586 0 0 0.999922 -9.07063e-05
218 22.6037 4.33232 0.508474 0 0 0.99992 -9.68385e-05
221 23.5723 3.62573 0.778472 0 0 0.999918 -8.6095e-07
222 24.3412 4.30641 0.621705 0 0 0.999921 9.89611e-05
224 23.466 4.5329 1.32649 0 0 0.99992 1.2186e-05
305 24.863 5.23965 0.563029 0 0 0.999924 0.000185592
301 23.5507 5.04743 0.529946 0 0 0.99992 2.60059e-05
228 25.0207 4.48406 1.61417 0 0 0.999924 0.000194557
303 24.3696 5.2707 1.42496 0 0 0.999922 0.000141082
225 25.0735 3.66663 0.797504 0 0 0.999923 0.000166549
307 25.709 5.12281 1.33591 0 0 0.999929 0.000286625
232 26.3792 4.27706 1.36575 0 0 0.999934 0.000328139
309 26.5259 4.95896 0.637646 0 0 0.999935 0.000355477
226 25.5439 4.38735 0.387108 0 0 0.999926 0.00023262
311 27.3593 4.857 1.39946 0 0 0.999944 0.000441894
236 27.9923 3.96632 1.10078 0 0 0.999951 0.000455283
313 28.3104 4.72561 0.703317 0 0 0.999956 0.000503887
230 27.092 4.03152 0.569153 0 0 0.99994 0.00037629
234 28.9657 3.76439 0.484063 0 0 0.999964 0.000510157
315 29.1236 4.51475 1.32622 0 0 0.999967 0.000559167
240 30.0355 4.06356 1.02312 0 0 0.99998 0.000584173
238 31.0695 3.97403 0.370225 0 0 0.999996 0.000610448
317 30.2457 4.67588 0.487025 0 0 0.999983 0.000612555
319 31.0206 4.59818 1.40639 0 0 0.999996 0.000648332
242 0.953593 5.53281 0.462072 0 0 1.00002 0.000694361
248 1.57685 5.51534 1.38084 0 0 1.00003 0.000702451
323 0.842768 6.21883 1.27752 0 0 1.00002 0.000743724
324 0.305669 6.91977 1.50627 0 0 1.00001 0.000788565
322 1.02005 6.94636 0.572825 0 0 1.00002 0.000770165
321 0.023346 5.99633 0.446918 0 0 1.00001 0.0007141
328 1.75433 7.03317 1.24175 0 0 1.00003 0.000778137
325 1.93894 6.20484 0.518323 0 0 1.00004 0.000713263
252 3.1475 5.62782 1.30352 0 0 1.00005 0.000654116
327 2.31053 6.1614 1.41384 0 0 1.00004 0.000717669
332 3.29761 6.97342 1.13469 0 0 1.00005 0.000715578
246 2.72323 5.61798 0.274458 0 0 1.00005 0.000656671
329 3.43615 6.28997 0.500875 0 0 1.00006 0.000657871
250 4.22461 5.47349 0.327342 0 0 1.00007 0.000569294
256 4.96552 5.44251 1.32211 0 0 1.00007 0.00052943
331 4.17158 6.10773 1.2337 0 0 1.00006 0.000618325
333 4.85865 6.24739 0.335235 0 0 1.00007 0.000560053
336 4.80886 6.81602 1.16653 0 0 1.00007 0.000607532
330 4.04164 7.03527 0.224193 0 0 1.00006 0.000660034
254 5.80797 5.43425 0.303359 0 0 1.00008 0.000441057
335 5.71938 6.25782 0.968799 0 0 1.00008 0.0004974
1177 6.48066 6.00253 1.60737 0 0 1.00008 0.000427904
340 6.45622 6.88813 1.01526 0 0 1.00008 0.000457231
337 6.40092 6.06014 0.1554 0 0 1.00008 0.000410028
264 8.21822 5.33153 0.699709 0 0 1.00008 0.000188828
339 7.34081 6.17666 0.760278 0 0 1.00008 0.000322722
1098 7.40503 5.43554 1.50171 0 0 1.00008 0.00030026
1181 8.24459 6.13058 1.50367 0 0 1.00008 0.000234511
344 8.02301 6.8742 0.735298 0 0 1.00008 0.000272418
1178 7.29886 6.88337 1.60924 0 0 1.00008 0.000385921
258 7.34225 5.3739 0.0464376 0 0 1.00008 0.00028333
268 9.75922 5.33725 0.798576 0 0 1.00008 8.33463e-06
343 8.88053 6.20793 0.743034 0 0 1.00008 0.000143088
1102 9.05175 5.34588 1.60743 0 0 1.00008 0.00011093
1185 9.73053 6.20984 1.47972 0 0 1.00007 5.53744e-05
1182 9.09189 6.97283 1.47598 0 0 1.00008 0.000166406
345 9.7542 6.25123 0.0958414 0 0 1.00008 3.09186e-05
262 8.9956 5.4831 0.0143895 0 0 1.00008 9.7577e-05
347 10.568 6.04035 0.970757 0 0 1.00007 -6.48174e-05
349 11.2905 6.38797 0.0786733 0 0 1.00006 -0.000148062
346 10.5036 6.96164 0.155741 0 0 1.00007 -4.0446e-05
1186 10.454 6.94733 1.50907 0 0 1.00007 -4.20797e-06
270 11.9711 5.64075 0.184703 0 0 1.00005 -0.000239397
276 12.6428 5.82998 0.866883 0 0 1.00004 -0.000295065
351 11.7504 6.22461 1.06017 0 0 1.00006 -0.000193431
1114 13.2864 5.87854 1.56443 0 0 1.00004 -0.000339141
355 13.3136 6.59322 0.816891 0 0 1.00003 -0.000345095
274 13.2841 5.54932 0.0430826 0 0 1.00004 -0.000362094
280 14.0218 5.72455 0.776347 0 0 1.00002 -0.000409942
1197 14.2825 6.65992 1.41377 0 0 1.00002 -0.000402843
357 14.0887 6.39346 0.03893 0 0 1.00002 -0.000412756
278 14.9822 5.64618 0.0356348 0 0 1.00001 -0.000467385
359 15.0012 6.45579 0.808704 0 0 1.00001 -0.000457156
284 15.7852 5.73888 0.957407 0 0 0.999996 -0.000486793
363 16.4436 6.45151 1.14153 0 0 0.999986 -0.000486495
1118 15.0618 5.87963 1.70133 0 0 1.00001 -0.00044898
282 16.5761 5.41772 0.276116 0 0 0.999984 -0.000500334
361 15.6304 6.34145 0.0404076 0 0 0.999999 -0.0004862
286 17.7864 5.29702 0.540113 0 0 0.999965 -0.000478894
288 17.0679 5.42132 1.24627 0 0 0.999976 -0.000489592
365 17.0181 6.27151 0.410614 0 0 0.999977 -0.000494166
367 17.6198 6.24022 1.38121 0 0 0.999968 -0.000468067
372 18.2302 7.043 1.13007 0 0 0.99996 -0.000439854
369 18.3313 6.22206 0.608854 0 0 0.999958 -0.000450594
290 19.3953 5.7454 0.617542 0 0 0.999945 -0.000389281
371 19.2898 6.54372 1.34231 0 0 0.999947 -0.000377361
373 19.9623 6.73574 0.606469 0 0 0.99994 -0.000330627
294 20.7256 5.75946 0.649041 0 0 0.999932 -0.000272544
296 20.162 5.59541 1.38838 0 0 0.999937 -0.000319382
375 20.7527 6.59379 1.2947 0 0 0.999933 -0.000244504
377 21.641 6.64359 0.66195 0 0 0.999927 -0.000157841
300 21.6449 5.85928 1.37499 0 0 0.999926 -0.000163528
16260 21.6743 5.71554 0.0518404 0 0 0.999925 -0.000176942
298 22.6651 5.81013 0.667915 0 0 0.999923 -5.78203e-05
379 22.6237 6.67195 1.19741 0 0 0.999925 -2.90196e-05
381 23.3473 6.75897 0.265697 0 0 0.999923 4.7742e-05
304 23.4821 5.86554 1.28985 0 0 0.999922 5.18864e-05
383 24.3285 6.54305 1.15024 0 0 0.999924 0.000177434
302 24.1509 5.98736 0.423653 0 0 0.999923 0.000123244
306 25.7027 5.8452 0.695359 0 0 0.99993 0.000303236
308 25.1272 6.02122 1.66529 0 0 0.999927 0.00026504
385 25.1754 6.72131 0.490891 0 0 0.999928 0.000274465
387 25.8493 6.5767 1.39799 0 0 0.999932 0.00036621
312 26.7176 5.82999 1.46745 0 0 0.999939 0.000425626
310 27.5286 5.53126 0.717827 0 0 0.999946 0.000474222
389 26.7768 6.35023 0.64665 0 0 0.999939 0.000438338
391 27.7361 6.45788 1.35883 0 0 0.99995 0.000548399
316 28.4019 5.5114 1.4793 0 0 0.999957 0.000559173
390 27.7465 6.99328 0.526264 0 0 0.99995 0.000559464
314 29.4283 5.30158 0.815 0 0 0.999971 0.000602898
395 29.4807 6.1752 1.31774 0 0 0.999973 0.000659063
394 29.6237 6.89415 0.505482 0 0 0.999976 0.000690035
393 28.5076 6.19566 0.637027 0 0 0.999959 0.000583563
16355 29.4173 6.14281 0.0783122 0 0 0.999972 0.000635994
16276 28.5184 5.3809 0.0571865 0 0 0.999959 0.000543096
318 31.0081 5.36374 0.59403 0 0 0.999995 0.000669878
320 30.2605 5.45298 1.46306 0 0 0.999984 0.000663566
397 30.4403 6.17766 0.647245 0 0 0.999987 0.000691957
399 31.2659 6.15148 1.38272 0 0 1 0.00073057
398 31.2502 6.95034 0.603568 0 0 1 0.00075839
401 0.314013 7.63309 0.660668 0 0 1.00001 0.00080943
402 0.888654 8.46679 0.617624 0 0 1.00002 0.000858508
403 1.16454 7.86426 1.49814 0 0 1.00003 0.000845283
404 0.412508 8.56105 1.46987 0 0 1.00001 0.00088754
405 1.64477 7.76883 0.373952 0 0 1.00003 0.000805637
408 1.78037 8.62362 1.46758 0 0 1.00003 0.000880913
326 2.53351 7.15569 0.476569 0 0 1.00005 0.000746614
406 2.24707 8.63775 0.401181 0 0 1.00004 0.000840865
407 2.44497 7.8184 1.28204 0 0 1.00004 0.000806673
412 3.06569 8.52527 0.941007 0 0 1.00005 0.000813078
409 3.28956 7.77948 0.329009 0 0 1.00005 0.00074609
410 3.85914 8.47141 0.0821087 0 0 1.00006 0.000751164
411 4.02322 7.67853 1.25177 0 0 1.00006 0.00071573
416 4.74401 8.27379 0.930505 0 0 1.00007 0.000689296
413 4.70967 7.65249 0.247848 0 0 1.00007 0.000644458
334 5.57934 7.06749 0.149287 0 0 1.00007 0.000538854
414 5.90121 8.36604 0.172632 0 0 1.00007 0.000577282
415 5.51723 7.60564 1.03792 0 0 1.00007 0.000587803
417 6.51683 7.558 0.170991 0 0 1.00008 0.000471039
420 6.42425 8.2553 1.05348 0 0 1.00008 0.000533402
419 7.30389 7.78889 0.753972 0 0 1.00008 0.000403432
424 8.29347 8.33622 0.87875 0 0 1.00008 0.000313178
1258 7.29824 8.20372 1.71678 0 0 1.00008 0.000462302
1261 8.06329 7.51017 1.57452 0 0 1.00008 0.000326303
421 8.00913 7.62413 0.0289037 0 0 1.00008 0.00030056
348 9.83305 7.24229 0.731345 0 0 1.00007 6.27838e-05
423 8.91336 7.63757 0.668921 0 0 1.00008 0.000194904
428 9.72535 8.64121 0.70213 0 0 1.00007 0.000132473
1262 9.09294 8.72223 1.46199 0 0 1.00007 0.000252827
1265 9.63686 7.91182 1.61618 0 0 1.00007 0.00014802
352 11.2913 7.16156 0.817413 0 0 1.00006 -0.000119492
427 10.5574 7.9653 0.85303 0 0 1.00007 3.14555e-07
1266 10.5716 8.72623 1.44271 0 0 1.00006 5.30336e-05
1269 11.3804 7.82772 1.61739 0 0 1.00006 -8.09087e-05
429 11.2044 8.13798 0.0439633 0 0 1.00006 -9.11465e-05
356 12.6716 7.30018 0.57137 0 0 1.00004 -0.000274665
431 12.1461 8.25092 0.597913 0 0 1.00005 -0.00019235
1190 12.037 7.17613 1.38966 0 0 1.00005 -0.000189836
1270 12.0563 8.69996 1.50615 0 0 1.00005 -0.000134401
1273 12.8213 8.01353 1.48803 0 0 1.00004 -0.000244699
360 14.288 7.36269 0.589598 0 0 1.00002 -0.000410038
435 13.5738 8.10606 0.470456 0 0 1.00003 -0.000344153
1194 13.4203 7.35264 1.35186 0 0 1.00003 -0.000326457
1277 14.2016 8.19055 1.36075 0 0 1.00002 -0.000367965
439 15.0213 8.29825 0.86837 0 0 1.00001 -0.000431167
362 16.3854 7.18331 0.27886 0 0 0.999987 -0.000491767
364 15.5811 7.31283 0.921286 0 0 0.999999 -0.000467431
443 16.2104 8.15983 1.11165 0 0 0.999989 -0.00046261
1198 15.0938 7.52788 1.6332 0 0 1.00001 -0.000423948
441 15.8131 8.31414 0.153476 0 0 0.999996 -0.000471478
368 16.929 7.35723 1.11542 0 0 0.999979 -0.000475805
445 17.0165 8.10126 0.338572 0 0 0.999978 -0.000478839
447 17.6582 8.01692 1.02586 0 0 0.999969 -0.000451128
366 17.7717 7.16013 0.214845 0 0 0.999966 -0.000470637
370 18.9668 7.32491 0.638988 0 0 0.999951 -0.000401173
451 18.8859 8.13957 1.17843 0 0 0.999953 -0.000380791
376 19.8371 7.63982 1.31672 0 0 0.999943 -0.000311725
453 19.7684 8.12457 0.358088 0 0 0.999944 -0.000326946
449 18.4062 8.17926 0.171514 0 0 0.999959 -0.000428616
374 20.6724 7.44222 0.666794 0 0 0.999935 -0.000248145
455 20.6195 8.41976 1.02669 0 0 0.999938 -0.000222288
380 21.5231 7.65133 1.13951 0 0 0.99993 -0.000135819
457 21.5936 8.32343 0.256533 0 0 0.99993 -0.000125343
459 22.5793 8.15601 1.00979 0 0 0.999927 1.00778e-05
1218 22.4079 7.47759 1.74353 0 0 0.999927 -1.13776e-05
378 22.3259 7.46332 0.382663 0 0 0.999926 -5.7916e-05
384 23.4457 7.30052 1.04326 0 0 0.999924 9.10065e-05
461 23.4895 8.05409 0.381827 0 0 0.999925 0.000113711
463 24.3547 8.07864 0.992057 0 0 0.999927 0.000240098
1302 24.2643 8.69592 1.672 0 0 0.999929 0.000285435
382 24.3478 7.30437 0.267162 0 0 0.999925 0.000193147
462 24.3249 8.80376 0.206788 0 0 0.999928 0.000252656
388 25.1342 7.37372 1.24455 0 0 0.999929 0.000314917
467 26.0475 7.98679 0.981314 0 0 0.999936 0.000444341
1306 26.0483 8.60722 1.7425 0 0 0.999937 0.000510824
386 26.1162 7.25912 0.365704 0 0 0.999935 0.000405647
465 25.2478 8.1104 0.305416 0 0 0.99993 0.000341354
466 26.3021 8.56716 0.0885092 0 0 0.999939 0.000488908
392 26.8152 7.09511 1.33433 0 0 0.999941 0.000493593
470 28.0065 8.49057 0.424787 0 0 0.999955 0.000660574
471 27.8373 7.82218 1.20721 0 0 0.999953 0.000626628
472 27.0133 8.63798 1.01792 0 0 0.999945 0.000586952
469 27.03 7.76673 0.431157 0 0 0.999943 0.00052807
396 28.6936 7.10042 1.22484 0 0 0.999962 0.000655519
474 29.6448 8.34773 0.541945 0 0 0.999977 0.00077228
475 29.5462 7.66922 1.27267 0 0 0.999975 0.00074307
476 28.827 8.54645 1.1802 0 0 0.999966 0.000746043
473 28.74 7.70858 0.413967 0 0 0.999963 0.00067678
400 30.3744 7.08543 1.17728 0 0 0.999987 0.000748392
479 31.3031 7.81984 1.29947 0 0 1 0.000824463
480 30.4842 8.4853 1.1819 0 0 0.999989 0.000834675
477 30.6882 7.86817 0.379918 0 0 0.999992 0.000790493
478 31.4805 8.61909 0.390561 0 0 1 0.000855196
482 1.18112 10.2856 0.273363 0 0 1.00003 0.000957269
483 1.07371 9.37697 1.20597 0 0 1.00002 0.000927877
484 0.314623 9.92996 0.898733 0 0 1.00001 0.000949972
481 0.425562 9.33683 0.123091 0 0 1.00001 0.000904466
1322 0.873412 10.1282 1.75385 0 0 1.00002 0.00100034
485 1.8118 9.45263 0.452119 0 0 1.00003 0.000902349
488 1.88508 10.3751 0.972268 0 0 1.00004 0.000965165
486 2.64668 10.2829 0.0837515 0 0 1.00005 0.000917619
487 2.42915 9.45288 1.22589 0 0 1.00004 0.00090423
1326 2.82716 10.2424 1.67253 0 0 1.00005 0.000958353
1329 3.25467 9.24848 1.6628 0 0 1.00005 0.000876335
489 3.12407 9.37817 0.0825021 0 0 1.00005 0.000846021
492 3.43035 10.045 0.736996 0 0 1.00005 0.00087739
491 3.97878 9.12163 0.860009 0 0 1.00006 0.000793784
493 4.61789 9.19608 0.00743323 0 0 1.00007 0.000738222
496 4.64953 9.99147 0.574871 0 0 1.00007 0.000788724
1330 4.1699 9.98385 1.62529 0 0 1.00006 0.000866409
1333 4.71619 9.08228 1.65855 0 0 1.00007 0.000771836
495 5.36619 8.96187 0.664604 0 0 1.00007 0.000669614
500 6.2703 9.81164 0.518824 0 0 1.00007 0.00062363
1334 5.35318 9.84811 1.1718 0 0 1.00007 0.000738376
1337 6.18363 9.07229 1.26772 0 0 1.00008 0.00061575
1417 6.26976 10.5287 1.19638 0 0 1.00007 0.000688836
499 7.18663 8.90053 0.717191 0 0 1.00008 0.000475271
501 8.107 9.06772 0.0825513 0 0 1.00008 0.000359174
504 7.97395 9.94512 0.582318 0 0 1.00008 0.000426905
1338 7.20087 9.75765 1.20273 0 0 1.00008 0.000538735
1341 8.05853 9.1884 1.41138 0 0 1.00008 0.000411618
503 8.94278 9.47483 0.734415 0 0 1.00007 0.000280439
508 9.6407 10.3566 0.666288 0 0 1.00007 0.000223279
1342 8.75749 10.2867 1.42069 0 0 1.00007 0.000380237
1345 9.82397 9.61077 1.42548 0 0 1.00007 0.000196873
432 11.3492 8.86648 0.738813 0 0 1.00006 -7.22941e-05
426 10.3891 8.90552 0.0407919 0 0 1.00007 4.3611e-05
507 10.4498 9.70171 0.662362 0 0 1.00006 8.0469e-05
1346 10.6174 10.1906 1.64922 0 0 1.00006 0.000131561
1349 11.2808 9.65325 1.32802 0 0 1.00006 -5.42159e-06
436 12.9641 8.97738 0.791911 0 0 1.00004 -0.000256569
511 12.0756 9.8303 0.692516 0 0 1.00005 -0.000130084
516 12.7813 10.489 0.966801 0 0 1.00004 -0.000181468
1353 12.5103 9.63213 1.62294 0 0 1.00004 -0.00014159
1274 13.6447 8.8574 1.57603 0 0 1.00003 -0.000291968
440 14.4186 9.20443 0.763356 0 0 1.00002 -0.00037922
515 13.4885 9.69506 0.841299 0 0 1.00003 -0.000286238
1354 13.4532 10.4243 1.71777 0 0 1.00003 -0.000206285
517 14.2244 10.1587 0.217069 0 0 1.00002 -0.000353876
444 15.8485 9.16049 1.13717 0 0 0.999995 -0.000435235
519 15.0816 9.86477 1.01432 0 0 1.00001 -0.00039393
521 15.6385 10.1827 0.251899 0 0 0.999998 -0.000432951
523 16.4545 9.95826 0.962202 0 0 0.999986 -0.000433216
442 16.4593 9.033 0.260965 0 0 0.999986 -0.000468574
438 15.2481 9.20991 0.0976707 0 0 1 -0.000437435
452 18.2561 8.89043 0.94146 0 0 0.999962 -0.000411716
448 17.0448 9.06572 1.12722 0 0 0.999977 -0.000443175
525 17.1059 10.0234 0.206436 0 0 0.999977 -0.0004473
527 17.7284 9.86477 1.07067 0 0 0.999969 -0.000408793
446 17.7187 9.10356 0.117204 0 0 0.999968 -0.000447438
456 19.7892 8.94833 1.06012 0 0 0.999945 -0.000288906
529 18.557 9.72678 0.299534 0 0 0.999958 -0.000390025
531 19.4712 9.88849 0.849263 0 0 0.999949 -0.000303787
532 18.6812 10.449 1.14283 0 0 0.999958 -0.000338017
1369 18.6138 9.57942 1.70687 0 0 0.999958 -0.000335189
450 19.2066 8.95286 0.210417 0 0 0.99995 -0.000361485
533 19.96 9.77647 0.0721726 0 0 0.999944 -0.000272237
535 20.9103 9.79818 0.749938 0 0 0.999937 -0.000153733
1373 20.2206 9.65361 1.66772 0 0 0.999943 -0.00019272
454 20.7689 9.06903 0.206072 0 0 0.999937 -0.00020168
460 21.6169 9.02365 0.976133 0 0 0.999932 -8.62326e-05