ITEM: TIMESTEP
11500
ITEM: NUMBER OF ATOMS
32000
ITEM: BOX BOUNDS pp pp pp
0.0000000000000000e+00 3.1748021039364001e+01
0.0000000000000000e+00 3.1748021039364001e+01
0.0000000000000000e+00 3.1748021039364001e+01
ITEM: ATOMS id x y z c_phase c_nbond c_rho vx
4 0.165208 1.10111 0.466427 0 0 1.00002 0.000726185
83 1.02185 1.66862 0.779938 0 0 1.00001 0.000738445
842 0.763966 0.793013 1.41232 0 0 1.00001 0.000735248
921 0.0540629 1.60121 1.37641 0 0 1.00002 0.000744486
3 0.777786 0.065693 0.618621 0 0 1.00001 0.00072089
8 1.7576 0.813404 1.01582 0 0 1 0.000714071
85 1.84879 1.47927 0.219735 0 0 1 0.000714308
925 1.8728 1.66219 1.76137 0 0 1 0.000738653
6 2.56414 0.749434 0.204437 0 0 0.999991 0.00067767
7 2.63396 0.0554223 1.0392 0 0 0.99999 0.000677981
87 2.6929 1.5438 0.883271 0 0 0.999989 0.000687895
846 2.71595 0.81902 1.74669 0 0 0.999989 0.000691031
12 3.47295 0.934668 0.960647 0 0 0.99998 0.000636604
849 3.53836 0.0919727 1.71083 0 0 0.999979 0.000639098
929 3.64757 1.71142 1.72365 0 0 0.999977 0.000651511
10 4.14412 0.860765 0.325335 0 0 0.999972 0.000582664
16 4.99568 0.569207 1.17586 0 0 0.999963 0.000515909
93 4.95152 1.60483 0.385724 0 0 0.999964 0.000526697
850 4.38004 0.945393 1.63572 0 0 0.999969 0.000581503
9 3.51474 0.109929 0.172697 0 0 0.999979 0.000621758
14 5.6737 0.647421 0.326276 0 0 0.999958 0.000442762
95 5.90927 1.31637 0.943746 0 0 0.999955 0.000431517
97 6.59424 1.39762 0.219796 0 0 0.99995 0.000351332
854 5.8108 0.462044 1.70604 0 0 0.999956 0.000444033
933 5.06162 1.7286 1.44139 0 0 0.999962 0.000529616
20 6.7318 0.39321 0.870295 0 0 0.99995 0.000330366
937 6.71013 1.01472 1.70157 0 0 0.99995 0.000350855
24 8.27165 0.4112 1.07845 0 0 0.999944 0.000145773
99 7.38031 1.22892 0.958617 0 0 0.999947 0.00026181
101 8.25128 1.39742 0.238433 0 0 0.999944 0.000151301
941 8.13468 1.27859 1.61511 0 0 0.999944 0.000178066
18 7.59261 0.651646 0.142171 0 0 0.999946 0.000224797
22 8.85677 0.511047 0.275314 0 0 0.999944 6.66312e-05
28 9.5454 0.339975 0.893864 0 0 0.999944 -1.72574e-05
103 9.02266 1.31376 1.11828 0 0 0.999943 6.00495e-05
105 9.63089 1.38049 0.0914999 0 0 0.999944 -2.35594e-05
32 11.189 0.216965 0.637206 0 0 0.99995 -0.000217371
107 10.3484 1.05282 0.827768 0 0 0.999946 -0.000113295
866 10.5059 0.197933 1.45267 0 0 0.999947 -0.000130852
949 11.2631 1.02221 1.42451 0 0 0.99995 -0.00021691
946 10.5618 1.68569 1.73779 0 0 0.999946 -0.000122308
26 10.229 0.369394 0.0788626 0 0 0.999946 -0.000105502
36 12.8416 0.213697 0.640383 0 0 0.999962 -0.000386198
111 12.0145 1.07836 0.510684 0 0 0.999955 -0.000304606
870 12.1012 0.317691 1.30604 0 0 0.999956 -0.000311327
953 12.6849 1.20142 1.37843 0 0 0.999961 -0.000365014
40 14.3308 0.323284 0.772246 0 0 0.999979 -0.000494965
115 13.5514 1.11486 0.84698 0 0 0.99997 -0.000440866
117 14 1.56252 0.165198 0 0 0.999975 -0.000472876
874 13.5693 0.361359 1.64022 0 0 0.99997 -0.000440171
957 14.3346 1.15281 1.48135 0 0 0.999978 -0.000488983
119 14.8328 1.55555 0.6647 0 0 0.999985 -0.000516179
44 15.6617 0.768634 0.78845 0 0 0.999996 -0.000547029
123 16.5047 1.54297 0.681822 0 0 1.00001 -0.00055383
878 15.0967 0.464771 1.64337 0 0 0.999988 -0.000527084
882 16.4996 0.71075 1.34246 0 0 1.00001 -0.000554487
961 15.5851 1.48834 1.39342 0 0 0.999994 -0.000539826
38 15.0589 0.711838 0.0672242 0 0 0.999988 -0.00052976
48 17.2119 0.730512 0.549982 0 0 1.00002 -0.000549683
127 17.8794 1.57915 0.755399 0 0 1.00003 -0.000527343
886 17.8722 0.742275 1.42515 0 0 1.00003 -0.000528497
965 17.173 1.74622 1.56183 0 0 1.00002 -0.000542594
51 19.5015 0.0151847 0.661584 0 0 1.00005 -0.000437531
52 18.752 0.724331 0.684081 0 0 1.00004 -0.000488266
131 19.5034 1.54968 0.839287 0 0 1.00005 -0.000433022
889 18.9872 0.156377 1.54177 0 0 1.00004 -0.000472616
890 19.5575 0.964417 1.68574 0 0 1.00005 -0.00042744
969 18.6175 1.50756 1.49703 0 0 1.00004 -0.000489667
55 21.0679 0.348232 1.06353 0 0 1.00006 -0.000293891
56 20.2177 0.773836 0.975614 0 0 1.00005 -0.000375414
135 21.0809 1.64799 0.949181 0 0 1.00006 -0.000284179
54 21.1631 0.762523 0.21731 0 0 1.00006 -0.000284302
133 20.3151 1.50873 0.194562 0 0 1.00006 -0.000365693
57 21.9926 0.262065 0.537197 0 0 1.00007 -0.000192868
59 22.7824 0.427771 1.4007 0 0 1.00008 -9.22722e-05
60 22.095 1.14259 1.32407 0 0 1.00007 -0.000171604
137 21.9809 1.59264 0.534831 0 0 1.00007 -0.000186921
58 22.9072 1.06819 0.444086 0 0 1.00008 -7.88692e-05
63 24.2332 0.377994 1.44425 0 0 1.00008 9.44743e-05
61 23.5649 0.355295 0.571208 0 0 1.00008 1.31385e-06
62 24.4424 1.18049 0.751012 0 0 1.00008 0.000118771
64 23.4733 1.24295 1.39586 0 0 1.00008 2.14731e-06
65 24.9658 0.31406 0.549192 0 0 1.00008 0.000180039
67 26.0278 0.380835 1.16669 0 0 1.00008 0.000312382
68 25.1817 1.12036 1.47319 0 0 1.00008 0.000220846
147 25.9502 1.72742 1.3513 0 0 1.00008 0.000321478
66 25.9104 0.926053 0.429484 0 0 1.00008 0.000297336
70 27.6058 1.27649 0.386973 0 0 1.00007 0.000487326
71 27.646 0.506543 0.871435 0 0 1.00007 0.000486689
72 26.7815 1.02407 1.25774 0 0 1.00008 0.000405853
69 26.8179 0.239466 0.226443 0 0 1.00008 0.00039472
913 28.4142 0.337853 1.39745 0 0 1.00006 0.000561122
76 28.6881 1.23693 0.738292 0 0 1.00006 0.000583984
914 29.4307 0.947144 1.56582 0 0 1.00005 0.000644759
993 28.5608 1.71549 1.49496 0 0 1.00006 0.0005913
917 29.8601 0.171156 1.45802 0 0 1.00005 0.000663649
75 29.3146 0.354014 0.614242 0 0 1.00006 0.000619682
841 31.6365 0.266873 1.25683 0 0 1.00003 0.000723864
79 30.7509 0.486272 0.472698 0 0 1.00004 0.000693798
80 30.1439 1.19688 0.772776 0 0 1.00005 0.000678253
918 30.9113 0.970896 1.39256 0 0 1.00004 0.000714505
82 1.15971 2.43801 0.1277 0 0 1.00001 0.000752376
84 0.183782 2.3822 0.811299 0 0 1.00002 0.000756878
163 1.33826 3.23845 0.949048 0 0 1.00001 0.000783892
922 1.18986 2.36382 1.59235 0 0 1.00001 0.000767908
1001 0.438001 3.0327 1.54973 0 0 1.00002 0.000793574
161 0.382914 3.09826 0.131331 0 0 1.00002 0.00077701
88 1.95856 2.4211 0.785488 0 0 0.999999 0.00073808
167 2.70458 3.28624 0.862199 0 0 0.999989 0.000739149
926 2.71645 2.23581 1.53884 0 0 0.999989 0.000714577
1009 3.30462 3.4326 1.65483 0 0 0.999981 0.00072823
86 2.77 2.38693 0.0558451 0 0 0.999989 0.000699538
92 3.42467 2.56123 0.782737 0 0 0.99998 0.000672063
91 4.04545 1.84532 0.714108 0 0 0.999973 0.000607781
96 4.94628 2.58054 0.819738 0 0 0.999963 0.000554418
171 4.24073 3.32701 0.752955 0 0 0.999971 0.00063964
930 4.17392 2.6491 1.58786 0 0 0.999971 0.000635437
94 5.67821 2.45252 0.134462 0 0 0.999957 0.000472066
100 6.57841 2.19032 0.777394 0 0 0.99995 0.000372414
175 5.67872 3.20802 0.958017 0 0 0.999956 0.000503963
934 5.88787 2.20463 1.50295 0 0 0.999955 0.000461808
1017 6.54435 3.07997 1.56306 0 0 0.99995 0.000414884
177 6.67009 2.94102 0.135019 0 0 0.999949 0.000377766
98 7.46621 2.23594 0.140917 0 0 0.999946 0.000264306
104 8.08925 2.21232 0.93605 0 0 0.999944 0.000191109
179 7.41553 3.08136 0.938845 0 0 0.999945 0.000299942
938 7.31377 2.07033 1.57665 0 0 0.999947 0.00029498
1021 8.1927 3.01589 1.66172 0 0 0.999943 0.000211617
181 8.27494 2.98437 0.0401912 0 0 0.999943 0.000180791
102 8.90287 2.09724 0.254203 0 0 0.999943 7.96822e-05
108 9.76326 2.03386 1.11525 0 0 0.999943 -2.40921e-05
183 8.92555 2.98622 0.934905 0 0 0.999942 0.000102329
942 9.02839 2.23179 1.7137 0 0 0.999943 8.28758e-05
185 9.55398 2.91888 0.214348 0 0 0.999944 1.26443e-05
106 10.2689 2.12283 0.215238 0 0 0.999946 -9.39879e-05
112 11.1361 1.83464 0.775397 0 0 0.99995 -0.000199379
187 10.6039 2.81998 0.926702 0 0 0.999946 -0.000118263
1029 11.4187 2.84208 1.58442 0 0 0.99995 -0.000204891
116 12.6396 1.9475 0.5975 0 0 0.99996 -0.000359189
191 11.8992 2.65193 0.745466 0 0 0.999954 -0.000274209
950 11.896 1.92776 1.47242 0 0 0.999954 -0.000277863
1033 12.8089 3.02765 1.69503 0 0 0.999961 -0.000348411
195 13.1456 3.03635 0.849757 0 0 0.999964 -0.000389424
954 13.3407 1.99723 1.48566 0 0 0.999966 -0.000414256
120 13.9786 2.45021 0.927983 0 0 0.999974 -0.000460708
1037 13.9849 3.39204 1.56128 0 0 0.999973 -0.000441254
199 14.6512 3.44154 0.884691 0 0 0.999981 -0.000489356
958 14.7407 2.30237 1.4476 0 0 0.999983 -0.000502435
118 14.7962 2.51677 0.137612 0 0 0.999984 -0.000509852
197 14.1145 3.23036 0.0352887 0 0 0.999975 -0.000463605
114 13.375 2.30127 0.0587903 0 0 0.999967 -0.00042078
124 15.6509 2.44295 0.695426 0 0 0.999995 -0.000538507
203 16.2567 3.20033 0.665949 0 0 1 -0.000541439
962 16.2605 2.47825 1.52547 0 0 1 -0.000542604
1041 15.3249 3.25958 1.50451 0 0 0.999989 -0.00051438
201 15.5224 3.2606 0.0216524 0 0 0.999993 -0.000529683
128 17.0192 2.35003 0.682574 0 0 1.00001 -0.000545397
207 17.8992 2.92254 0.699661 0 0 1.00003 -0.000516849
966 17.9739 2.43387 1.58003 0 0 1.00003 -0.000513067
1045 17.0435 3.11271 1.49489 0 0 1.00001 -0.000532725
132 18.8507 2.35224 1.01041 0 0 1.00004 -0.000472713
211 19.6642 3.2308 1.27266 0 0 1.00005 -0.000400974
209 18.8426 2.98944 0.194087 0 0 1.00004 -0.000469544
130 19.5522 2.3332 0.102057 0 0 1.00005 -0.000424858
973 20.2937 1.78005 1.71963 0 0 1.00006 -0.000357632
134 21.1335 2.40741 0.455588 0 0 1.00006 -0.000274454
136 20.1633 2.45842 1.10911 0 0 1.00005 -0.000367487
215 21.287 3.282 1.38449 0 0 1.00007 -0.000236196
213 20.3909 2.98386 0.33243 0 0 1.00006 -0.000342479
139 22.864 2.05866 1.50196 0 0 1.00008 -6.72843e-05
138 22.9639 2.59007 0.731239 0 0 1.00008 -5.14936e-05
140 22.0789 2.4874 1.23183 0 0 1.00007 -0.000157314
217 21.9717 3.18685 0.596111 0 0 1.00007 -0.000162994
16179 22.6685 3.38571 0.0738366 0 0 1.00008 -7.53184e-05
141 23.7432 1.7997 0.620795 0 0 1.00008 3.70438e-05
143 24.4351 1.97759 1.60201 0 0 1.00008 0.000139611
142 24.3481 2.67029 0.770766 0 0 1.00008 0.000132031
144 23.6883 2.88802 1.52763 0 0 1.00008 6.00356e-05
223 24.4817 3.49438 1.54773 0 0 1.00008 0.000182311
16108 24.9679 2.8319 0.0145544 0 0 1.00008 0.000214242
149 26.5733 1.78675 0.509181 0 0 1.00008 0.000387502
145 25.1449 1.84742 0.507594 0 0 1.00008 0.000216559
146 25.8116 2.60037 0.703382 0 0 1.00008 0.000316462
148 25.1726 2.54436 1.51697 0 0 1.00008 0.000243812
227 25.742 3.48269 1.50453 0 0 1.00008 0.000345848
152 26.5621 2.55042 1.52311 0 0 1.00008 0.000415645
229 26.1941 3.48713 0.594891 0 0 1.00008 0.000389512
151 27.536 1.9784 1.2321 0 0 1.00007 0.000501722
153 28.2867 2.0843 0.342666 0 0 1.00007 0.000565336
150 27.1172 2.68248 0.641102 0 0 1.00007 0.000469199
231 27.2344 3.34176 1.40985 0 0 1.00007 0.000514515
156 28.2919 2.74906 1.20069 0 0 1.00007 0.000592503
233 28.0194 3.21106 0.326983 0 0 1.00007 0.000572876
997 30.0044 1.80523 1.70438 0 0 1.00005 0.000696858
155 29.4898 2.03897 0.879203 0 0 1.00005 0.000658461
154 29.2376 2.65664 0.288601 0 0 1.00006 0.000654083
235 29.2959 3.25596 1.17293 0 0 1.00006 0.000688645
159 30.9591 1.98154 0.923238 0 0 1.00004 0.000728455
160 30.229 2.70687 1.00008 0 0 1.00004 0.000720513
239 31.0761 3.34612 0.971954 0 0 1.00003 0.000775923
998 31.0363 2.69189 1.72521 0 0 1.00003 0.000766045
237 30.1603 3.25014 0.136641 0 0 1.00005 0.000728857
157 30.4563 1.90563 0.0276133 0 0 1.00004 0.0007013
158 31.1919 2.66071 0.0761439 0 0 1.00003 0.000747756
164 0.347786 3.78384 0.919349 0 0 1.00002 0.000811088
241 0.198291 4.59651 0.479833 0 0 1.00002 0.000843792
243 1.19359 4.67268 0.988142 0 0 1.00001 0.000852175
244 0.148452 5.26626 1.27656 0 0 1.00002 0.00089385
162 1.09409 3.86425 0.0630173 0 0 1.00001 0.000805114
168 1.89589 4.04949 0.849131 0 0 0.999999 0.000803813
247 2.59211 4.86416 1.13778 0 0 0.999989 0.000824235
166 2.69889 4.1516 0.206446 0 0 0.999989 0.000770317
245 1.95184 4.97231 0.28021 0 0 0.999998 0.000842856
249 3.45639 4.87163 0.162884 0 0 0.999979 0.000762969
172 3.53838 4.08625 0.889292 0 0 0.999978 0.000725565
176 4.94966 4.01455 1.18674 0 0 0.999962 0.000613948
251 4.09395 4.8929 1.15225 0 0 0.999971 0.000731284
170 4.3003 4.19526 0.148955 0 0 0.99997 0.000666938
253 5.04715 4.75543 0.341714 0 0 0.999962 0.000628821
174 5.80458 3.95236 0.198745 0 0 0.999955 0.000511776
180 6.51463 3.78203 0.778319 0 0 0.99995 0.000431397
255 5.71559 4.75166 1.03267 0 0 0.999955 0.000568892
1097 6.68821 4.53133 1.65468 0 0 0.999948 0.000463923
260 6.70459 5.15241 0.890672 0 0 0.999948 0.000475151
184 8.20593 3.9085 0.706568 0 0 0.999943 0.000223593
259 7.4244 4.47944 0.551775 0 0 0.999945 0.000346406
1018 7.41544 3.8874 1.50718 0 0 0.999944 0.000340832
1101 8.2096 4.63177 1.49791 0 0 0.999941 0.000268299
188 9.88709 3.5945 0.892075 0 0 0.999943 -6.68206e-06
263 9.07774 4.58572 0.828208 0 0 0.999941 0.00013551
265 9.8525 4.52338 0.128335 0 0 0.999942 2.13857e-05
1022 9.07582 3.78078 1.50886 0 0 0.999941 0.000117172
1105 9.86053 4.36707 1.668 0 0 0.999941 3.97688e-05
182 8.98454 3.88498 0.0640619 0 0 0.999942 0.000115532
192 11.3829 3.65903 0.785609 0 0 0.999949 -0.0001945
267 10.5717 4.68449 0.913647 0 0 0.999944 -6.04338e-05
269 11.3612 4.71158 0.23166 0 0 0.999948 -0.000165555
1026 10.6878 3.58386 1.59862 0 0 0.999945 -9.84357e-05
1109 11.34 4.39227 1.71632 0 0 0.999948 -0.00015081
186 10.5662 3.86423 0.177405 0 0 0.999945 -9.3777e-05
196 12.4797 3.59249 0.818854 0 0 0.999958 -0.000316139
271 12.158 4.56616 1.00641 0 0 0.999954 -0.00025563
1113 12.7031 5.01126 1.69901 0 0 0.999958 -0.000283544
275 13.1856 4.6947 0.804719 0 0 0.999963 -0.000358872
273 12.6049 4.63264 0.0630986 0 0 0.999958 -0.00030921
200 13.9466 4.1356 0.699664 0 0 0.999972 -0.000435079
1034 13.4426 4.22978 1.60007 0 0 0.999966 -0.000379961
1117 14.1558 5.12685 1.52749 0 0 0.999973 -0.000412861
279 14.8913 5.01796 0.814168 0 0 0.999983 -0.000473413
1038 14.9169 4.42027 1.59784 0 0 0.999983 -0.000474796
277 14.0942 4.91301 0.0635311 0 0 0.999973 -0.000433135
198 14.9123 4.19746 0.0990417 0 0 0.999984 -0.000494671
204 15.6178 4.06821 0.926128 0 0 0.999993 -0.000517933
281 15.8261 4.77584 0.187152 0 0 0.999996 -0.00051613
283 16.5425 4.57906 0.900377 0 0 1.00001 -0.000521667
1042 16.2689 3.95871 1.68996 0 0 1 -0.000520625
1121 15.7594 5.05275 1.64334 0 0 0.999994 -0.00048936
208 17.221 3.82917 0.810152 0 0 1.00002 -0.000527111
287 18.0377 4.48008 1.09485 0 0 1.00003 -0.000487816
1046 17.9058 3.6322 1.65266 0 0 1.00002 -0.000499651
285 17.4043 4.5717 0.0160788 0 0 1.00002 -0.000515961
206 18.0895 3.84676 0.0601915 0 0 1.00003 -0.000501282
212 18.8336 3.6981 0.948575 0 0 1.00004 -0.00045822
289 18.7797 4.59899 0.360257 0 0 1.00004 -0.000451349
291 19.6498 4.66271 1.07924 0 0 1.00005 -0.000378245
292 18.7389 5.26443 1.1957 0 0 1.00004 -0.000431114
210 19.5606 3.75551 0.228052 0 0 1.00005 -0.000407387
216 20.4066 3.80785 1.22766 0 0 1.00006 -0.000323109
295 20.8558 4.70021 1.38516 0 0 1.00006 -0.0002508
297 21.5582 4.93161 0.803549 0 0 1.00007 -0.00016991
214 21.0583 3.91659 0.509591 0 0 1.00006 -0.000257554
293 20.1017 4.76995 0.348693 0 0 1.00005 -0.000339615
219 22.8127 3.61396 1.41198 0 0 1.00008 -3.88937e-05
220 21.9229 4.11498 1.30242 0 0 1.00007 -0.000141239
299 22.4599 5.15323 1.26392 0 0 1.00007 -4.00161e-05
218 22.6027 4.32793 0.507983 0 0 1.00008 -5.6639e-05
221 23.5729 3.6217 0.777249 0 0 1.00008 5.37483e-05
222 24.3438 4.30207 0.620747 0 0 1.00008 0.000177302
224 23.4669 4.52794 1.3245 0 0 1.00008 7.6329e-05
305 24.8676 5.23425 0.561951 0 0 1.00008 0.000285956
301 23.5518 5.04248 0.528919 0 0 1.00008 9.40134e-05
228 25.0254 4.479 1.61144 0 0 1.00008 0.000294084
303 24.3731 5.26534 1.42245 0 0 1.00008 0.000233848
225 25.0774 3.66237 0.796111 0 0 1.00008 0.000256151
307 25.7156 5.1178 1.33392 0 0 1.00008 0.000406849
232 26.3865 4.27287 1.36396 0 0 1.00008 0.000453766
309 26.5338 4.95462 0.636701 0 0 1.00008 0.000488879
226 25.5493 4.38309 0.38678 0 0 1.00008 0.000338449
311 27.3687 4.85295 1.39752 0 0 1.00007 0.000593001
236 28.0018 3.96304 1.09971 0 0 1.00007 0.000608622
313 28.321 4.72254 0.702365 0 0 1.00007 0.000667369
230 27.0999 4.02777 0.568822 0 0 1.00007 0.000512467
234 28.9763 3.76236 0.483107 0 0 1.00006 0.000675778
315 29.1351 4.51193 1.32471 0 0 1.00006 0.000734813
240 30.0475 4.06081 1.02296 0 0 1.00005 0.000765025
238 31.082 3.97377 0.369297 0 0 1.00003 0.000796734
317 30.2586 4.67494 0.485768 0 0 1.00004 0.000799175
319 31.034 4.59751 1.40482 0 0 1.00003 0.000842156
242 0.968282 5.53276 0.462119 0 0 1.00001 0.000895695
248 1.59171 5.51612 1.38099 0 0 1 0.000903522
323 0.858708 6.21811 1.27759 0 0 1.00001 0.000954702
324 0.32155 6.92017 1.50571 0 0 1.00002 0.00100854
322 1.03645 6.94631 0.572561 0 0 1.00001 0.000986455
321 0.0387485 5.99606 0.446977 0 0 1.00002 0.000920579
328 1.77058 7.03416 1.24266 0 0 1 0.000994102
325 1.95323 6.20613 0.51803 0 0 0.999998 0.00091683
252 3.16195 5.63079 1.30422 0 0 0.999982 0.000842847
327 2.32613 6.16352 1.41485 0 0 0.999993 0.000920675
332 3.31248 6.97653 1.1367 0 0 0.999979 0.000917668
246 2.73708 5.61929 0.274682 0 0 0.999988 0.000847205
329 3.45024 6.29217 0.500863 0 0 0.999978 0.000847846
250 4.23686 5.47665 0.32777 0 0 0.999969 0.000739197
256 4.97699 5.44651 1.3232 0 0 0.999961 0.000690078
331 4.18418 6.11086 1.23529 0 0 0.99997 0.000798906
333 4.87078 6.25138 0.335567 0 0 0.999962 0.000728864
336 4.82202 6.82085 1.16837 0 0 0.999962 0.000786662
330 4.05548 7.03807 0.224901 0 0 0.999971 0.000850481
254 5.81688 5.43782 0.303738 0 0 0.999954 0.000583668
335 5.72969 6.26189 0.9703 0 0 0.999954 0.000653939
1177 6.49048 6.00784 1.61031 0 0 0.999948 0.000570231
340 6.46657 6.89359 1.01661 0 0 0.999947 0.000608413
337 6.41067 6.06582 0.15556 0 0 0.999949 0.000549518
264 8.22279 5.33666 0.701262 0 0 0.999941 0.000283954
339 7.34796 6.18169 0.76194 0 0 0.999943 0.000447174
1098 7.41214 5.4405 1.50461 0 0 0.999944 0.000416723
1181 8.25009 6.1365 1.50701 0 0 0.99994 0.000344659
344 8.02983 6.88022 0.736973 0 0 0.99994 0.000393592
1178 7.30771 6.8889 1.61282 0 0 0.999942 0.00052545
258 7.34863 5.37875 0.046467 0 0 0.999944 0.000394895
268 9.76041 5.34254 0.800256 0 0 0.999941 7.31389e-05
343 8.88462 6.2136 0.744716 0 0 0.999938 0.000237974
1102 9.05475 5.35137 1.61024 0 0 0.999939 0.000194046
1185 9.73278 6.21551 1.48311 0 0 0.999939 0.000138456
1182 9.09621 6.97941 1.47946 0 0 0.999937 0.000274265
345 9.75583 6.25691 0.0963102 0 0 0.99994 0.000109117
262 8.99861 5.48854 0.0148717 0 0 0.99994 0.000177914
272 11.3648 5.2932 0.994161 0 0 0.999947 -0.000135915
347 10.5681 6.04582 0.972598 0 0 0.999942 -2.40336e-06
349 11.2888 6.39302 0.0790145 0 0 0.999946 -9.36762e-05
346 10.5042 6.96755 0.156124 0 0 0.999941 3.69443e-05
1186 10.4553 6.95359 1.51259 0 0 0.999939 8.04245e-05
270 11.9674 5.64496 0.185193 0 0 0.999951 -0.0002088
276 12.6381 5.83376 0.868384 0 0 0.999957 -0.000268074
351 11.7477 6.22972 1.06225 0 0 0.999948 -0.000145914
1114 13.2812 5.88228 1.56703 0 0 0.999962 -0.000313901
355 13.3083 6.59671 0.818073 0 0 0.999962 -0.000311301
274 13.2779 5.55268 0.0433083 0 0 0.999964 -0.000350769
280 14.015 5.72739 0.777436 0 0 0.999971 -0.000400947
1197 14.2757 6.6627 1.4158 0 0 0.999973 -0.000373073
357 14.0819 6.3963 0.0392209 0 0 0.999971 -0.000393486
278 14.9736 5.64745 0.035957 0 0 0.999984 -0.000469082
359 14.9934 6.45761 0.809445 0 0 0.999982 -0.000440745
284 15.7768 5.73955 0.957536 0 0 0.999994 -0.000487741
363 16.4353 6.45159 1.14203 0 0 1 -0.000473671
1118 15.0544 5.88123 1.70256 0 0 0.999983 -0.000437483
282 16.5674 5.4176 0.276081 0 0 1.00001 -0.000511443
361 15.6223 6.34265 0.0407626 0 0 0.999992 -0.000477906
286 17.7781 5.2959 0.539893 0 0 1.00002 -0.000489275
288 17.0591 5.42062 1.24614 0 0 1.00001 -0.000495624
365 17.01 6.27101 0.410565 0 0 1.00001 -0.000488731
367 17.6117 6.23878 1.38049 0 0 1.00002 -0.00045687
372 18.2228 7.04079 1.1297 0 0 1.00003 -0.000412427
369 18.3238 6.21967 0.608661 0 0 1.00003 -0.000441477
290 19.3888 5.74195 0.616875 0 0 1.00004 -0.000379955
371 19.2833 6.5401 1.3405 0 0 1.00004 -0.000351347
373 19.9569 6.73133 0.605613 0 0 1.00005 -0.000298663
294 20.7215 5.75487 0.647926 0 0 1.00006 -0.000246523
296 20.1563 5.59123 1.38659 0 0 1.00005 -0.000300241
375 20.7489 6.58869 1.29253 0 0 1.00006 -0.000201332
377 21.6388 6.63817 0.660761 0 0 1.00007 -0.000104088
300 21.6424 5.85383 1.37239 0 0 1.00007 -0.000117812
16260 21.6719 5.71059 0.0518474 0 0 1.00007 -0.000137094
298 22.6648 5.80485 0.666285 0 0 1.00008 2.53201e-06
379 22.6241 6.66578 1.19482 0 0 1.00008 4.57429e-05
381 23.3493 6.75257 0.265143 0 0 1.00008 0.000134337
304 23.484 5.85978 1.28701 0 0 1.00008 0.000132165
383 24.3331 6.53711 1.14807 0 0 1.00008 0.000284607
302 24.154 5.98144 0.422527 0 0 1.00008 0.000216681
306 25.7098 5.83991 0.693717 0 0 1.00008 0.000428966
308 25.1332 6.01512 1.66182 0 0 1.00008 0.000384462
385 25.1818 6.71504 0.489686 0 0 1.00008 0.000398858
387 25.8581 6.57117 1.3952 0 0 1.00008 0.000507069
312 26.7269 5.82519 1.46481 0 0 1.00008 0.000574653
310 27.539 5.52732 0.716491 0 0 1.00007 0.000632912
389 26.7864 6.34532 0.645077 0 0 1.00008 0.000591166
391 27.7476 6.45297 1.35684 0 0 1.00007 0.000722229
390 27.7587 6.98872 0.525067 0 0 1.00007 0.000736852
316 28.4139 5.50786 1.47686 0 0 1.00006 0.000735195
314 29.4408 5.29904 0.813848 0 0 1.00005 0.00078784
395 29.4945 6.17276 1.31632 0 0 1.00005 0.000855131
394 29.6384 6.8927 0.505092 0 0 1.00005 0.000893098
393 28.5202 6.19225 0.6365 0 0 1.00006 0.000765408
16355 29.4305 6.13916 0.0777864 0 0 1.00005 0.000827968
16276 28.53 5.3779 0.056545 0 0 1.00006 0.000715519
318 31.0224 5.36206 0.593649 0 0 1.00003 0.000868197
320 30.2747 5.45068 1.4614 0 0 1.00004 0.00086035
397 30.4546 6.17587 0.6464 0 0 1.00004 0.000895104
399 31.281 6.15004 1.38205 0 0 1.00003 0.000939906
398 31.2666 6.94886 0.603543 0 0 1.00003 0.000973794
401 0.331058 7.63313 0.660169 0 0 1.00002 0.00103416
402 0.907617 8.4675 0.616939 0 0 1.00001 0.00109166
403 1.18188 7.86399 1.49818 0 0 1.00001 0.00107465
404 0.43077 8.56019 1.46945 0 0 1.00002 0.00112572
405 1.66204 7.76975 0.374542 0 0 1 0.00102796
408 1.79925 8.62512 1.46814 0 0 0.999999 0.00111621
326 2.54889 7.15712 0.476539 0 0 0.99999 0.000956159
406 2.26567 8.63867 0.401506 0 0 0.999992 0.00106908
407 2.46215 7.82031 1.28324 0 0 0.99999 0.00102673
412 3.08366 8.52824 0.942483 0 0 0.999981 0.0010347
409 3.30526 7.7817 0.329535 0 0 0.999979 0.000954594
410 3.87566 8.47486 0.0820134 0 0 0.999972 0.000961499
411 4.03865 7.68073 1.25236 0 0 0.99997 0.00091707
416 4.75867 8.27874 0.93294 0 0 0.999962 0.000886954
413 4.72411 7.65698 0.247751 0 0 0.999962 0.000832964
334 5.59092 7.07187 0.149918 0 0 0.999955 0.000706251
414 5.91414 8.37116 0.173423 0 0 0.99995 0.000756766
415 5.53033 7.60982 1.03927 0 0 0.999954 0.000765599
417 6.52718 7.56389 0.171449 0 0 0.999947 0.00062839
420 6.43624 8.25949 1.05601 0 0 0.999946 0.000704565
419 7.31337 7.7945 0.756035 0 0 0.999942 0.000551463
424 8.30064 8.34274 0.881394 0 0 0.999937 0.000453646
1258 7.30859 8.20925 1.72064 0 0 0.99994 0.000622528
1261 8.07126 7.51655 1.57821 0 0 0.999938 0.000461099
421 8.0165 7.63028 0.0290531 0 0 0.999939 0.000432306
348 9.83529 7.24823 0.733472 0 0 0.999938 0.00015824
423 8.91864 7.64376 0.670842 0 0 0.999937 0.000312253
428 9.72946 8.64744 0.704481 0 0 0.999936 0.000253201
1262 9.09907 8.7288 1.4664 0 0 0.999934 0.000390775
1265 9.64178 7.91824 1.62023 0 0 0.999936 0.00026325
352 11.2901 7.16709 0.819327 0 0 0.999944 -4.81958e-05
427 10.559 7.97119 0.855379 0 0 0.999939 9.68704e-05
1266 10.5741 8.73303 1.44716 0 0 0.999938 0.000168241
1269 11.38 7.83407 1.62127 0 0 0.999943 7.51631e-06
429 11.2042 8.14369 0.0444106 0 0 0.999943 -2.92104e-06
356 12.6677 7.305 0.572847 0 0 0.999955 -0.000220693
431 12.1439 8.2558 0.599773 0 0 0.999948 -0.000112945
1190 12.0352 7.18145 1.39287 0 0 0.999948 -0.00012538
1270 12.0552 8.70555 1.51023 0 0 0.999946 -3.84523e-05
1273 12.8179 8.01856 1.49133 0 0 0.999954 -0.000171748
360 14.2808 7.36551 0.591383 0 0 0.999972 -0.000371225
435 13.5686 8.10996 0.471867 0 0 0.999963 -0.000283997
1194 13.4157 7.35653 1.35459 0 0 0.999961 -0.000274351
1277 14.1962 8.19334 1.36309 0 0 0.999969 -0.000305853
439 15.0148 8.30028 0.869408 0 0 0.99998 -0.000376494
362 16.3774 7.18332 0.279346 0 0 1 -0.00046814
364 15.5737 7.31385 0.921474 0 0 0.999989 -0.000436269
443 16.2032 8.16016 1.11205 0 0 0.999997 -0.000414425
1198 15.0867 7.52985 1.63529 0 0 0.999982 -0.000378814
441 15.8052 8.31462 0.153793 0 0 0.999992 -0.000423277
368 16.9212 7.35635 1.11537 0 0 1.00001 -0.000444917
445 17.0085 8.1006 0.338162 0 0 1.00001 -0.000437111
447 17.6513 8.01532 1.02565 0 0 1.00002 -0.000407548
366 17.764 7.15866 0.215206 0 0 1.00002 -0.000447148
370 18.9606 7.3215 0.63795 0 0 1.00004 -0.000367386
451 18.88 8.13617 1.17686 0 0 1.00004 -0.000328473
376 19.8324 7.63524 1.31439 0 0 1.00005 -0.000260165
453 19.7634 8.1201 0.357555 0 0 1.00005 -0.000272579
449 18.3997 8.17662 0.171969 0 0 1.00003 -0.000383453
374 20.6688 7.43715 0.665312 0 0 1.00006 -0.000194513
455 20.6168 8.41429 1.0244 0 0 1.00006 -0.000151309
380 21.5218 7.64533 1.13683 0 0 1.00007 -6.49674e-05
457 21.5925 8.31751 0.256009 0 0 1.00007 -4.61404e-05
459 22.581 8.14962 1.00696 0 0 1.00008 0.000105324
1218 22.4089 7.47092 1.73935 0 0 1.00008 7.58785e-05
378 22.3261 7.45718 0.381729 0 0 1.00007 1.96266e-05
384 23.4488 7.29422 1.04109 0 0 1.00008 0.000189652
461 23.4929 8.04779 0.380474 0 0 1.00008 0.000221377
463 24.3607 8.07171 0.98912 0 0 1.00008 0.000366966
1302 24.2712 8.68953 1.66775 0 0 1.00008 0.000424217
382 24.3525 7.29798 0.266624 0 0 1.00008 0.000307068
462 24.3312 8.79694 0.206047 0 0 1.00008 0.000386918
388 25.1416 7.3673 1.24144 0 0 1.00008 0.000449599
467 26.0576 7.98094 0.979183 0 0 1.00008 0.000604389
1306 26.0597 8.6008 1.73817 0 0 1.00008 0.000682906
386 26.125 7.25298 0.365028 0 0 1.00008 0.000554993
465 25.2555 8.10361 0.304797 0 0 1.00008 0.000485302
466 26.3127 8.56143 0.0883454 0 0 1.00008 0.00065842
392 26.8263 7.08988 1.3315 0 0 1.00008 0.000659093
470 28.0206 8.48598 0.423291 0 0 1.00007 0.000859925
471 27.8512 7.81702 1.20483 0 0 1.00007 0.000818259
472 27.0263 8.63264 1.01562 0 0 1.00008 0.00077364
469 27.0417 7.76145 0.430132 0 0 1.00007 0.000702218
396 28.7074 7.0962 1.22305 0 0 1.00006 0.000851534
474 29.6614 8.34571 0.54111 0 0 1.00005 0.000991839
475 29.562 7.66619 1.27136 0 0 1.00005 0.00095606
476 28.8426 8.54236 1.17831 0 0 1.00006 0.000959941
473 28.7548 7.70518 0.413304 0 0 1.00006 0.000877949
400 30.3904 7.08311 1.17641 0 0 1.00004 0.000962108
479 31.3202 7.81808 1.29861 0 0 1.00003 0.00105194
480 30.502 8.48292 1.18109 0 0 1.00004 0.00106475
477 30.7049 7.86633 0.379855 0 0 1.00004 0.00101247
478 31.4987 8.61744 0.390474 0 0 1.00003 0.00108947
482 1.20154 10.2858 0.272984 0 0 1.00001 0.00120884
483 1.09381 9.37638 1.20558 0 0 1.00001 0.00117301
484 0.335073 9.92985 0.898743 0 0 1.00002 0.00120056
481 0.444688 9.33693 0.123212 0 0 1.00002 0.00114706
1322 0.894736 10.1283 1.75389 0 0 1.00001 0.0012574
485 1.83057 9.45449 0.451897 0 0 0.999998 0.00114266
488 1.9056 10.3748 0.97279 0 0 0.999996 0.00121653
486 2.66584 10.2846 0.0831911 0 0 0.999986 0.00116092
487 2.4481 9.45456 1.22646 0 0 0.999989 0.00114325
1326 2.84715 10.2444 1.67464 0 0 0.999984 0.00120586
1329 3.2745 9.25162 1.66569 0 0 0.999978 0.00110856
489 3.14227 9.38006 0.0833541 0 0 0.99998 0.00107533
492 3.44922 10.0482 0.739025 0 0 0.999976 0.00111239
491 3.99592 9.12515 0.861708 0 0 0.99997 0.00101229
493 4.63355 9.20078 0.00740724 0 0 0.999962 0.000947396
496 4.66597 9.99572 0.575953 0 0 0.999961 0.00100734
1330 4.18839 9.98719 1.62704 0 0 0.999967 0.00109587
1333 4.73269 9.08643 1.66106 0 0 0.999961 0.000983765
495 5.38076 8.96722 0.666087 0 0 0.999955 0.000866133
500 6.28391 9.81715 0.520743 0 0 0.999945 0.00081685
1334 5.37011 9.85296 1.17569 0 0 0.999954 0.000948042
1337 6.19728 9.07866 1.27116 0 0 0.999947 0.000803748
1417 6.28506 10.5342 1.20043 0 0 0.999945 0.000893647
499 7.19738 8.9064 0.719547 0 0 0.99994 0.000642262
501 8.1157 9.07391 0.0832161 0 0 0.999937 0.00051144
504 7.9842 9.95136 0.584375 0 0 0.999936 0.000595074
1338 7.2124 9.76378 1.20668 0 0 0.99994 0.000719558
1341 8.06803 9.19475 1.41554 0 0 0.999936 0.000572517
503 8.94989 9.48099 0.736936 0 0 0.999934 0.000427346
508 9.64674 10.3623 0.669103 0 0 0.999933 0.000373221
1342 8.7666 10.2922 1.42584 0 0 0.999932 0.000546927
1345 9.82923 9.61688 1.43045 0 0 0.999933 0.000337552
432 11.3492 8.87219 0.741145 0 0 0.999942 2.99453e-05
426 10.3917 8.91137 0.0410463 0 0 0.999938 0.000158087
507 10.4532 9.70765 0.664908 0 0 0.999936 0.000208958
1346 10.6217 10.1972 1.65495 0 0 0.999934 0.000273453
1349 11.283 9.65884 1.33256 0 0 0.999939 0.000115523
436 12.9603 8.98142 0.79393 0 0 0.999955 -0.000171055
511 12.0747 9.83521 0.694921 0 0 0.999945 -1.91027e-05
516 12.7797 10.4935 0.96967 0 0 0.99995 -6.45631e-05
1353 12.5097 9.6374 1.62755 0 0 0.999948 -3.21272e-05
1274 13.6406 8.86183 1.57934 0 0 0.999961 -0.000208799
440 14.4127 9.20694 0.764923 0 0 0.999971 -0.000302318
515 13.485 9.69944 0.843613 0 0 0.999959 -0.00019114
1354 13.4513 10.4287 1.72203 0 0 0.999955 -8.95503e-05
517 14.2193 10.1613 0.21799 0 0 0.999967 -0.000259613
444 15.8416 9.16124 1.13794 0 0 0.999991 -0.000364776
519 15.0758 9.86699 1.01598 0 0 0.999979 -0.000306828
521 15.6319 10.1836 0.252253 0 0 0.999987 -0.000346671
523 16.4479 9.95834 0.962716 0 0 0.999999 -0.000350892
442 16.4516 9.03339 0.261413 0 0 1 -0.000407604
438 15.2409 9.21137 0.0988619 0 0 0.999982 -0.00036823
452 18.2499 8.88809 0.940672 0 0 1.00003 -0.000349399
448 17.0379 9.06465 1.12705 0 0 1.00001 -0.00037808
525 17.0993 10.0224 0.206403 0 0 1.00001 -0.000368589
527 17.7223 9.86284 1.06991 0 0 1.00002 -0.000329071
446 17.7117 9.10177 0.117454 0 0 1.00002 -0.000386338
456 19.7853 8.94386 1.05783 0 0 1.00005 -0.000216266
529 18.5512 9.72411 0.29935 0 0 1.00003 -0.000314773
531 19.4668 9.88473 0.847942 0 0 1.00004 -0.000218549
532 18.6765 10.4463 1.1412 0 0 1.00003 -0.000245207
1369 18.6088 9.57643 1.70454 0 0 1.00003 -0.000252219
450 19.201 8.94925 0.210168 0 0 1.00004 -0.000297093
533 19.9566 9.77217 0.0719525 0 0 1.00005 -0.000188076
535 20.909 9.79305 0.748178 0 0 1.00006 -5.80254e-05
1373 20.2182 9.64882 1.66377 0 0 1.00005 -9.87215e-05
454 20.7663 9.06362 0.205372 0 0 1.00006 -0.000121952
460 21.6165 9.0176 0.973372 0 0 1.00007 7.77478e-06