ITEM: TIMESTEP
29000
ITEM: NUMBER OF ATOMS
32000
ITEM: BOX BOUNDS pp pp pp
0.0000000000000000e+00 3.1748021039364001e+01
0.0000000000000000e+00 3.1748021039364001e+01
0.0000000000000000e+00 3.1748021039364001e+01
ITEM: ATOMS id x y z c_phase c_nbond c_rho vx
4 0.365024 1.09584 0.472689 0 0 1.00004 0.0016982
83 1.22302 1.66639 0.785472 0 0 1.00003 0.0017425
842 0.970662 0.790155 1.40806 0 0 1.00003 0.00172851
921 0.261423 1.59584 1.38229 0 0 1.00004 0.00172821
3 0.978517 0.0717734 0.625513 0 0 1.00003 0.00170401
841 0.0896834 0.26853 1.25691 0 0 1.00004 0.00169028
8 1.96166 0.825827 1.01491 0 0 1.00003 0.00173335
85 2.05504 1.49118 0.212991 0 0 1.00003 0.00173948
925 2.09304 1.66186 1.75632 0 0 1.00003 0.00178039
6 2.75929 0.746202 0.20463 0 0 1.00003 0.00171958
7 2.82613 0.059956 1.04148 0 0 1.00003 0.00172408
87 2.89046 1.54824 0.880245 0 0 1.00003 0.00174723
846 2.92576 0.827529 1.74391 0 0 1.00003 0.00175291
12 3.66203 0.931367 0.970026 0 0 1.00003 0.00171932
849 3.72683 0.0877388 1.72141 0 0 1.00003 0.00172931
929 3.84531 1.71547 1.72664 0 0 1.00003 0.00176134
10 4.33655 0.864016 0.322667 0 0 1.00003 0.00168714
850 4.55616 0.95127 1.65034 0 0 1.00003 0.00171135
9 3.70019 0.104197 0.17808 0 0 1.00003 0.00169686
93 5.13312 1.61181 0.390607 0 0 1.00003 0.00167603
16 5.18438 0.570611 1.16972 0 0 1.00003 0.00166088
14 5.84361 0.649093 0.323265 0 0 1.00002 0.00161197
95 6.0773 1.32868 0.959897 0 0 1.00002 0.00162292
854 5.98643 0.463442 1.7208 0 0 1.00002 0.00163267
933 5.23645 1.73046 1.45157 0 0 1.00003 0.00169735
97 6.75147 1.41267 0.222672 0 0 1.00002 0.00156925
20 6.88511 0.402913 0.883746 0 0 1.00002 0.00154764
937 6.86927 1.02595 1.71745 0 0 1.00002 0.00158433
99 7.52464 1.24285 0.964649 0 0 1.00002 0.00151654
941 8.27014 1.29063 1.63555 0 0 1.00002 0.00147609
18 7.73 0.663943 0.152419 0 0 1.00002 0.00147588
101 8.37826 1.40968 0.241505 0 0 1.00002 0.00143953
24 8.3947 0.417578 1.08455 0 0 1.00002 0.00143012
22 8.96917 0.516268 0.272102 0 0 1.00002 0.00136651
28 9.64993 0.340743 0.908341 0 0 1.00002 0.00130968
103 9.13433 1.32773 1.12186 0 0 1.00002 0.00138389
105 9.73055 1.38858 0.0971814 0 0 1.00002 0.00131407
32 11.2574 0.219327 0.64839 0 0 1.00002 0.00115018
107 10.4378 1.06542 0.838547 0 0 1.00002 0.00124504
866 10.5905 0.202993 1.46933 0 0 1.00002 0.00123345
949 11.34 1.02976 1.43924 0 0 1.00002 0.00117224
946 10.6509 1.70498 1.75278 0 0 1.00002 0.00127157
26 10.3181 0.372154 0.0805937 0 0 1.00002 0.0012367
36 12.8872 0.217301 0.648242 0 0 1.00002 0.000999937
111 12.0693 1.08789 0.520052 0 0 1.00002 0.00108443
870 12.1577 0.320492 1.32103 0 0 1.00002 0.00108088
953 12.7355 1.20872 1.39277 0 0 1.00002 0.00104485
40 14.3566 0.329841 0.784548 0 0 1.00002 0.000885743
115 13.5855 1.12096 0.854785 0 0 1.00002 0.000958256
117 14.0332 1.57079 0.163658 0 0 1.00002 0.000926872
874 13.6083 0.364695 1.65307 0 0 1.00002 0.000964745
957 14.3636 1.16127 1.49342 0 0 1.00002 0.000915692
119 14.8572 1.56255 0.670051 0 0 1.00002 0.000875209
38 15.0747 0.713846 0.0679521 0 0 1.00002 0.000836475
44 15.6773 0.768084 0.791884 0 0 1.00002 0.000810789
123 16.5146 1.54397 0.684839 0 0 1.00002 0.000792589
878 15.1172 0.4667 1.65126 0 0 1.00002 0.000859153
882 16.5099 0.710262 1.34666 0 0 1.00002 0.000787083
961 15.6011 1.49538 1.40057 0 0 1.00002 0.000846067
48 17.2228 0.729096 0.554333 0 0 1.00002 0.000752884
127 17.8911 1.5779 0.75501 0 0 1.00002 0.000765724
886 17.8831 0.741876 1.42414 0 0 1.00002 0.000760713
965 17.1863 1.74539 1.56403 0 0 1.00002 0.00080003
51 19.5181 0.0127087 0.660627 0 0 1.00003 0.000756527
52 18.7642 0.72304 0.684187 0 0 1.00003 0.000747424
131 19.5237 1.54215 0.836792 0 0 1.00003 0.000782421
889 19.0002 0.153245 1.53859 0 0 1.00003 0.000762952
890 19.5792 0.959837 1.6811 0 0 1.00003 0.000790061
969 18.6362 1.5011 1.49459 0 0 1.00003 0.00078028
55 21.1094 0.345018 1.05791 0 0 1.00003 0.000830253
56 20.2425 0.769276 0.969596 0 0 1.00003 0.000792156
135 21.118 1.63185 0.946273 0 0 1.00003 0.000854904
54 21.1976 0.757241 0.214959 0 0 1.00003 0.000830065
133 20.3421 1.49907 0.196725 0 0 1.00003 0.000802981
57 22.0421 0.262559 0.532742 0 0 1.00003 0.000881406
59 22.8491 0.42341 1.38783 0 0 1.00003 0.000959723
60 22.1493 1.13464 1.31471 0 0 1.00003 0.000916155
137 22.0306 1.58101 0.527014 0 0 1.00003 0.000904528
58 22.971 1.05249 0.445956 0 0 1.00004 0.000962791
63 24.3348 0.374162 1.42062 0 0 1.00004 0.00109289
61 23.6422 0.349678 0.567918 0 0 1.00004 0.00101157
62 24.5352 1.16498 0.742825 0 0 1.00004 0.00110907
64 23.5554 1.22741 1.38183 0 0 1.00004 0.00103496
65 25.0717 0.311582 0.541959 0 0 1.00004 0.00114597
67 26.1497 0.373773 1.15694 0 0 1.00004 0.00126095
68 25.2913 1.11029 1.45385 0 0 1.00004 0.00119834
147 26.0774 1.71296 1.33667 0 0 1.00004 0.00128937
66 26.0317 0.922741 0.421905 0 0 1.00004 0.00124559
70 27.7597 1.26816 0.381597 0 0 1.00004 0.00141832
71 27.7983 0.49828 0.865408 0 0 1.00004 0.00141341
72 26.9187 1.01562 1.24378 0 0 1.00004 0.00134857
69 26.9527 0.238352 0.228922 0 0 1.00004 0.00132333
913 28.5877 0.34063 1.39876 0 0 1.00004 0.00149199
76 28.8581 1.22071 0.726786 0 0 1.00004 0.00151442
914 29.6008 0.953111 1.55823 0 0 1.00004 0.00158482
993 28.7278 1.70855 1.49094 0 0 1.00004 0.00153687
917 30.0541 0.163886 1.44809 0 0 1.00004 0.00160287
75 29.4909 0.351527 0.612705 0 0 1.00004 0.00154561
79 30.9516 0.473215 0.479005 0 0 1.00004 0.00163745
80 30.3253 1.18966 0.76865 0 0 1.00004 0.00161976
918 31.1024 0.967999 1.38756 0 0 1.00004 0.00167196
82 1.36514 2.43804 0.121677 0 0 1.00003 0.00177236
84 0.390625 2.37878 0.807642 0 0 1.00004 0.00175195
163 1.5478 3.23228 0.945902 0 0 1.00003 0.00183301
922 1.3998 2.36678 1.59193 0 0 1.00003 0.0017993
1001 0.64841 3.0359 1.54937 0 0 1.00004 0.00181927
161 0.590236 3.10254 0.130384 0 0 1.00004 0.00179174
88 2.16835 2.42043 0.789029 0 0 1.00003 0.00178643
167 2.912 3.29399 0.862386 0 0 1.00003 0.00183792
926 2.92787 2.25013 1.54988 0 0 1.00003 0.00179558
86 2.96962 2.39598 0.0552226 0 0 1.00003 0.00177405
1009 3.52183 3.43537 1.66341 0 0 1.00003 0.00186426
92 3.62639 2.57393 0.790999 0 0 1.00003 0.00177978
91 4.23806 1.84883 0.720324 0 0 1.00003 0.0017254
171 4.43927 3.34306 0.761007 0 0 1.00003 0.00180253
930 4.38014 2.66167 1.59465 0 0 1.00003 0.00178562
96 5.12908 2.5903 0.828697 0 0 1.00003 0.00172825
94 5.8543 2.47101 0.140206 0 0 1.00002 0.00167283
175 5.86538 3.22973 0.969108 0 0 1.00002 0.00173116
934 6.06316 2.22721 1.51251 0 0 1.00002 0.00167648
173 5.21314 3.35858 0.0045199 0 0 1.00003 0.00176334
1017 6.72445 3.10273 1.57296 0 0 1.00002 0.001686
100 6.74242 2.20977 0.789115 0 0 1.00002 0.00160976
177 6.83144 2.97026 0.135147 0 0 1.00002 0.00163764
98 7.6126 2.25556 0.142195 0 0 1.00002 0.0015385
104 8.23207 2.23095 0.949187 0 0 1.00002 0.00149655
179 7.57343 3.1027 0.942604 0 0 1.00002 0.00160271
938 7.46854 2.08993 1.59184 0 0 1.00002 0.00157289
1021 8.34086 3.04025 1.67851 0 0 1.00002 0.00155843
181 8.41617 3.00827 0.0432984 0 0 1.00002 0.00151255
102 9.02704 2.12117 0.257331 0 0 1.00002 0.0014089
108 9.87164 2.05163 1.12253 0 0 1.00002 0.00134163
183 9.0535 3.01161 0.948066 0 0 1.00002 0.00146775
942 9.15209 2.25322 1.73413 0 0 1.00002 0.00144024
185 9.67169 2.94596 0.214895 0 0 1.00002 0.00139291
106 10.3642 2.14122 0.215119 0 0 1.00002 0.00128227
112 11.215 1.85396 0.785042 0 0 1.00002 0.00119486
187 10.6993 2.84371 0.936594 0 0 1.00002 0.00129758
1029 11.5005 2.86861 1.6055 0 0 1.00002 0.00124464
116 12.6924 1.96207 0.606207 0 0 1.00002 0.00105728
191 11.9698 2.67656 0.752921 0 0 1.00002 0.00116131
950 11.9658 1.94425 1.48858 0 0 1.00002 0.0011441
1033 12.872 3.05083 1.71407 0 0 1.00002 0.00113077
195 13.206 3.05316 0.854537 0 0 1.00002 0.00107276
954 13.388 2.01198 1.4982 0 0 1.00002 0.00102004
114 13.4187 2.31834 0.0591108 0 0 1.00002 0.00100596
120 14.0168 2.46515 0.9332 0 0 1.00002 0.000975685
1037 14.0339 3.41341 1.57364 0 0 1.00002 0.00105076
199 14.691 3.45666 0.88839 0 0 1.00002 0.000984283
958 14.7756 2.31528 1.45295 0 0 1.00002 0.000928193
118 14.824 2.52577 0.140015 0 0 1.00002 0.000911423
197 14.1539 3.24544 0.0397596 0 0 1.00002 0.00099894
124 15.6707 2.44803 0.701488 0 0 1.00002 0.000864355
203 16.2824 3.20589 0.672985 0 0 1.00002 0.000876482
962 16.2817 2.48188 1.52997 0 0 1.00002 0.000858253
1041 15.3618 3.27096 1.51404 0 0 1.00002 0.000947844
201 15.5495 3.27076 0.0252459 0 0 1.00002 0.000909503
128 17.0354 2.35262 0.684507 0 0 1.00002 0.000807335
207 17.9186 2.92017 0.701633 0 0 1.00002 0.000821422
966 17.9921 2.42912 1.58123 0 0 1.00002 0.000817839
1045 17.0661 3.11336 1.49895 0 0 1.00002 0.000865562
132 18.8707 2.34583 1.00772 0 0 1.00003 0.000801977
211 19.6942 3.21414 1.26652 0 0 1.00003 0.000871243
209 18.8644 2.98121 0.192464 0 0 1.00003 0.00082233
130 19.5774 2.32017 0.103637 0 0 1.00003 0.000805057
973 20.3254 1.76666 1.7136 0 0 1.00003 0.000839598
134 21.1782 2.39244 0.451372 0 0 1.00003 0.00087942
136 20.1966 2.44262 1.10205 0 0 1.00003 0.000844355
215 21.3406 3.26172 1.37105 0 0 1.00003 0.000953689
213 20.4261 2.96939 0.329246 0 0 1.00003 0.000868457
139 22.9369 2.03549 1.49207 0 0 1.00004 0.00100921
138 23.0353 2.56912 0.723103 0 0 1.00004 0.0010244
140 22.1344 2.46652 1.22239 0 0 1.00003 0.000960462
217 22.0291 3.16395 0.592369 0 0 1.00003 0.000977048
16179 22.7468 3.35679 0.0670562 0 0 1.00004 0.00103789
141 23.8235 1.78379 0.614382 0 0 1.00004 0.00106
143 24.5326 1.95823 1.58079 0 0 1.00004 0.00115577
142 24.4481 2.64526 0.7622 0 0 1.00004 0.00115769
144 23.7775 2.85754 1.51197 0 0 1.00004 0.00112588
223 24.594 3.46359 1.53073 0 0 1.00004 0.00124093
16108 25.0795 2.80035 0.0137197 0 0 1.00004 0.00122155
149 26.7111 1.76997 0.505299 0 0 1.00004 0.00133739
145 25.2551 1.82908 0.507102 0 0 1.00004 0.00119646
146 25.9407 2.57478 0.693661 0 0 1.00004 0.00129925
148 25.2929 2.52442 1.49885 0 0 1.00004 0.00125152
227 25.8778 3.45064 1.49113 0 0 1.00004 0.00136738
152 26.7033 2.53172 1.50687 0 0 1.00004 0.00139319
229 26.3418 3.45873 0.585249 0 0 1.00004 0.00139136
151 27.6903 1.96169 1.21719 0 0 1.00004 0.00145141
150 27.2703 2.65933 0.629312 0 0 1.00004 0.00143292
231 27.4031 3.31378 1.39529 0 0 1.00004 0.00150459
233 28.1897 3.19144 0.330533 0 0 1.00004 0.00154331
153 28.4564 2.06974 0.340313 0 0 1.00004 0.00150716
156 28.4637 2.72636 1.18649 0 0 1.00004 0.0015558
155 29.6674 2.01593 0.878392 0 0 1.00004 0.00160611
154 29.4179 2.65403 0.283221 0 0 1.00004 0.00161127
235 29.4909 3.23118 1.17308 0 0 1.00004 0.00166811
997 30.202 1.79394 1.69516 0 0 1.00004 0.00165652
159 31.1569 1.96819 0.92006 0 0 1.00004 0.00169584
160 30.4241 2.69349 0.995456 0 0 1.00004 0.00169226
239 31.2861 3.32352 0.972433 0 0 1.00004 0.00177721
998 31.2411 2.67976 1.72186 0 0 1.00004 0.00175956
237 30.3683 3.22361 0.15035 0 0 1.00004 0.00170907
157 30.6414 1.895 0.0350635 0 0 1.00004 0.00165425
158 31.3918 2.64744 0.0762621 0 0 1.00004 0.00172936
164 0.565845 3.77597 0.919875 0 0 1.00004 0.00184789
241 0.423292 4.59662 0.470441 0 0 1.00004 0.00190299
243 1.41519 4.66771 0.989808 0 0 1.00003 0.00194415
244 0.389993 5.25752 1.2724 0 0 1.00004 0.00198324
162 1.31455 3.85819 0.0734411 0 0 1.00003 0.00186129
168 2.12716 4.04937 0.853907 0 0 1.00003 0.00189607
247 2.82033 4.87629 1.13363 0 0 1.00003 0.00197506
166 2.91906 4.16036 0.202868 0 0 1.00003 0.00189348
245 2.18187 4.96968 0.285244 0 0 1.00003 0.00196728
249 3.68217 4.88379 0.166384 0 0 1.00003 0.00194342
172 3.74751 4.10178 0.896172 0 0 1.00003 0.00188406
251 4.32258 4.91207 1.16259 0 0 1.00003 0.00194775
170 4.50326 4.20812 0.147468 0 0 1.00003 0.00185932
176 5.15258 4.04218 1.18483 0 0 1.00002 0.00183717
253 5.25471 4.78226 0.338885 0 0 1.00002 0.0018791
174 5.98306 3.97804 0.194387 0 0 1.00002 0.00176774
180 6.70368 3.8143 0.793711 0 0 1.00002 0.00171612
255 5.92842 4.7732 1.04878 0 0 1.00002 0.00185619
1097 6.87861 4.57087 1.67736 0 0 1.00002 0.00180001
260 6.89103 5.19468 0.895364 0 0 1.00002 0.00183011
184 8.3601 3.9354 0.720363 0 0 1.00002 0.00159305
259 7.59464 4.51485 0.564164 0 0 1.00002 0.00170378
1018 7.58757 3.91709 1.52769 0 0 1.00002 0.00168245
1101 8.37541 4.66938 1.51638 0 0 1.00002 0.00168161
188 10.002 3.62944 0.904903 0 0 1.00002 0.00141945
263 9.21899 4.62504 0.840478 0 0 1.00002 0.00157749
265 9.97539 4.56847 0.132522 0 0 1.00002 0.00148765
1022 9.2072 3.81712 1.53026 0 0 1.00002 0.00153175
1105 9.99409 4.40957 1.69266 0 0 1.00002 0.00151539
182 9.12066 3.91686 0.0645606 0 0 1.00002 0.00151474
192 11.4706 3.68908 0.80271 0 0 1.00002 0.00127692
267 10.686 4.71753 0.927701 0 0 1.00002 0.00144519
269 11.4589 4.7496 0.232299 0 0 1.00001 0.00135836
1026 10.7916 3.62012 1.62097 0 0 1.00002 0.00136553
1109 11.4403 4.43796 1.73674 0 0 1.00001 0.00137637
186 10.6737 3.89452 0.17884 0 0 1.00002 0.00136172
196 12.5431 3.62685 0.828497 0 0 1.00002 0.00117119
271 12.2406 4.60096 1.01952 0 0 1.00001 0.00128466
1113 12.7982 5.04152 1.71944 0 0 1.00001 0.00130334
275 13.2558 4.73207 0.814655 0 0 1.00002 0.00119639
273 12.6762 4.66451 0.0633003 0 0 1.00002 0.00123286
200 14.001 4.1567 0.707644 0 0 1.00002 0.00108278
1034 13.5087 4.2582 1.61592 0 0 1.00002 0.00116218
1117 14.2185 5.15193 1.54532 0 0 1.00002 0.00118117
279 14.9442 5.03917 0.822008 0 0 1.00002 0.00109124
1038 14.9676 4.4363 1.60937 0 0 1.00002 0.00106458
277 14.1516 4.93427 0.0698693 0 0 1.00002 0.00112875
198 14.9523 4.21221 0.103321 0 0 1.00002 0.00101077
204 15.6518 4.0798 0.930028 0 0 1.00002 0.000970674
281 15.8622 4.78599 0.189457 0 0 1.00002 0.00100426
283 16.5776 4.58579 0.904514 0 0 1.00002 0.000967585
1042 16.304 3.96699 1.69566 0 0 1.00002 0.000957209
1121 15.8094 5.06375 1.65395 0 0 1.00002 0.00107197
208 17.2475 3.82863 0.811607 0 0 1.00002 0.000888904
287 18.0697 4.47328 1.09374 0 0 1.00002 0.000932017
1046 17.9337 3.6285 1.65219 0 0 1.00002 0.000889834
285 17.4321 4.5702 0.0186616 0 0 1.00002 0.000930755
206 18.1157 3.83965 0.0632849 0 0 1.00002 0.000870095
212 18.8601 3.68801 0.948149 0 0 1.00003 0.000874823
289 18.8155 4.58684 0.359439 0 0 1.00003 0.000928967
291 19.6907 4.64049 1.0797 0 0 1.00003 0.000965443
292 18.7819 5.25057 1.1918 0 0 1.00003 0.0010018
210 19.5935 3.73927 0.229846 0 0 1.00003 0.00088279
216 20.4505 3.78609 1.22055 0 0 1.00003 0.000934631
295 20.9144 4.67155 1.37276 0 0 1.00003 0.00103026
297 21.6337 4.89901 0.792665 0 0 1.00003 0.00107604
214 21.1138 3.89291 0.506161 0 0 1.00003 0.000961128
293 20.1544 4.74672 0.343678 0 0 1.00003 0.000976174
219 22.8958 3.5801 1.39517 0 0 1.00004 0.001089
220 21.9917 4.08369 1.2901 0 0 1.00003 0.00105033
299 22.5524 5.10883 1.25192 0 0 1.00004 0.00117505
218 22.6879 4.29309 0.507933 0 0 1.00004 0.00110211
221 23.6667 3.58724 0.766414 0 0 1.00004 0.00114069
222 24.4576 4.26763 0.614506 0 0 1.00004 0.0012617
224 23.5681 4.48634 1.31169 0 0 1.00004 0.00121339
305 25.0072 5.18486 0.553311 0 0 1.00004 0.00139382
301 23.6563 5.00351 0.520564 0 0 1.00004 0.00124416
303 24.501 5.22123 1.40344 0 0 1.00004 0.00137038
228 25.1623 4.4332 1.58666 0 0 1.00004 0.00137481
225 25.2007 3.62036 0.781233 0 0 1.00004 0.00129162
307 25.8738 5.07353 1.32011 0 0 1.00004 0.00149185
232 26.5464 4.23423 1.34971 0 0 1.00004 0.00148819
309 26.7011 4.9159 0.629091 0 0 1.00004 0.00154132
226 25.6917 4.34635 0.387604 0 0 1.00004 0.0013875
311 27.5521 4.81517 1.37936 0 0 1.00004 0.00163571
236 28.181 3.9306 1.0909 0 0 1.00004 0.00160821
230 27.263 3.99163 0.568993 0 0 1.00004 0.00151776
313 28.514 4.69265 0.693007 0 0 1.00004 0.00169121
234 29.1665 3.74298 0.471519 0 0 1.00004 0.00166357
315 29.337 4.48225 1.30769 0 0 1.00004 0.00175603
314 29.656 5.27252 0.802351 0 0 1.00004 0.00183695
240 30.2523 4.02867 1.02072 0 0 1.00004 0.00177337
238 31.2953 3.96948 0.357444 0 0 1.00004 0.00181538
317 30.4771 4.66351 0.471341 0 0 1.00004 0.00183046
319 31.2594 4.58828 1.38463 0 0 1.00004 0.00188959
242 1.21389 5.52484 0.460955 0 0 1.00003 0.00201068
323 1.1189 6.20238 1.27639 0 0 1.00004 0.00210076
324 0.580586 6.92037 1.49489 0 0 1.00004 0.00217528
322 1.30489 6.93688 0.568087 0 0 1.00004 0.00216428
321 0.291942 5.99009 0.448561 0 0 1.00004 0.00203156
248 1.84356 5.51584 1.37715 0 0 1.00003 0.00204628
328 2.03835 7.03483 1.24992 0 0 1.00003 0.00220584
325 2.19582 6.21094 0.511645 0 0 1.00003 0.00209327
327 2.58898 6.17846 1.41987 0 0 1.00003 0.00211802
246 2.97775 5.62238 0.276729 0 0 1.00003 0.00202706
252 3.41501 5.65232 1.30491 0 0 1.00003 0.00205026
332 3.57001 6.99908 1.15652 0 0 1.00003 0.00218902
329 3.69875 6.30359 0.495952 0 0 1.00003 0.00208823
250 4.46754 5.50013 0.331505 0 0 1.00003 0.00198078
331 4.41861 6.13244 1.24724 0 0 1.00003 0.00207242
330 4.30802 7.05352 0.233426 0 0 1.00003 0.00215312
336 5.07038 6.86157 1.18221 0 0 1.00002 0.00212546
333 5.10697 6.28209 0.335718 0 0 1.00002 0.0020372
256 5.20399 5.47942 1.32529 0 0 1.00003 0.00197393
254 6.01574 5.46192 0.303992 0 0 1.00002 0.0019023
335 5.94804 6.28675 0.980911 0 0 1.00002 0.00201044
1177 6.7109 6.05151 1.63395 0 0 1.00002 0.00196337
340 6.69613 6.93684 1.01933 0 0 1.00002 0.00203712
337 6.63052 6.11855 0.154542 0 0 1.00002 0.00193026
339 7.54172 6.21819 0.776394 0 0 1.00002 0.00188648
1098 7.60566 5.47698 1.52962 0 0 1.00002 0.001829
344 8.23219 6.93089 0.748403 0 0 1.00002 0.00190775
1178 7.52667 6.92747 1.64112 0 0 1.00002 0.00200806
258 7.53032 5.41829 0.0444171 0 0 1.00002 0.00179032
264 8.39018 5.37987 0.716051 0 0 1.00002 0.00172403
1181 8.4323 6.18634 1.53596 0 0 1.00002 0.00183912
268 9.90158 5.39049 0.815064 0 0 1.00002 0.00158538
343 9.05959 6.26039 0.758269 0 0 1.00001 0.00175894
1102 9.21098 5.3978 1.6296 0 0 1.00002 0.00168672
1185 9.89172 6.25994 1.51372 0 0 1.00001 0.00170961
1182 9.27542 7.03681 1.50706 0 0 1.00001 0.00186079
345 9.90632 6.30831 0.100649 0 0 1.00001 0.00167178
262 9.15718 5.53722 0.0218785 0 0 1.00002 0.00166106
272 11.4761 5.33792 1.01653 0 0 1.00001 0.00143093
347 10.7089 6.09471 0.983594 0 0 1.00001 0.00158472
349 11.4156 6.43721 0.0808091 0 0 1.00001 0.00153484
346 10.6564 7.02312 0.154426 0 0 1.00001 0.00167681
1186 10.614 7.00947 1.54099 0 0 1.00001 0.00172987
266 10.5943 5.64434 0.00195714 0 0 1.00001 0.00153181
270 12.0663 5.68185 0.189512 0 0 1.00001 0.00138874
276 12.7323 5.86755 0.881875 0 0 1.00001 0.00135883
351 11.8623 6.27903 1.07937 0 0 1.00001 0.00149299
1114 13.3735 5.9195 1.59329 0 0 1.00001 0.00133383
274 13.353 5.5866 0.0452524 0 0 1.00001 0.00125688
355 13.4048 6.62992 0.827678 0 0 1.00001 0.00137461
280 14.087 5.75779 0.78844 0 0 1.00002 0.00122342
1197 14.358 6.69243 1.43757 0 0 1.00001 0.00132774
357 14.1603 6.42726 0.0421204 0 0 1.00001 0.00127386
278 15.0256 5.66498 0.0393608 0 0 1.00002 0.00113231
359 15.0619 6.48082 0.817753 0 0 1.00002 0.00122524
284 15.8298 5.75297 0.961386 0 0 1.00002 0.00110808
363 16.4945 6.46139 1.15059 0 0 1.00002 0.00115405
1118 15.1227 5.90177 1.71694 0 0 1.00002 0.00120067
282 16.6101 5.42447 0.277139 0 0 1.00002 0.00102722
361 15.6838 6.36097 0.0445721 0 0 1.00002 0.00115933
286 17.8193 5.29414 0.540056 0 0 1.00002 0.000989715
288 17.1019 5.42305 1.24921 0 0 1.00002 0.00103455
365 17.0652 6.27542 0.41196 0 0 1.00002 0.00109385
367 17.6669 6.23596 1.37957 0 0 1.00002 0.0011065
372 18.2892 7.03216 1.13273 0 0 1.00002 0.00117207
369 18.3789 6.20818 0.609895 0 0 1.00002 0.00107162
290 19.4441 5.71995 0.61393 0 0 1.00003 0.00103972
371 19.3473 6.51834 1.33063 0 0 1.00003 0.00113756
373 20.0297 6.70082 0.60142 0 0 1.00003 0.00115183
294 20.7934 5.72136 0.640278 0 0 1.00003 0.0010937
296 20.215 5.56293 1.37618 0 0 1.00003 0.00107401
375 20.8313 6.55209 1.2799 0 0 1.00003 0.00119712
377 21.7308 6.59828 0.654187 0 0 1.00004 0.00123656
300 21.7263 5.81174 1.35343 0 0 1.00004 0.00118244
16260 21.7562 5.67341 0.0529466 0 0 1.00004 0.00114246
298 22.7654 5.76528 0.650977 0 0 1.00004 0.00123627
379 22.738 6.61611 1.17659 0 0 1.00004 0.00133563
381 23.4758 6.69632 0.262747 0 0 1.00004 0.0013839
304 23.6053 5.81401 1.26241 0 0 1.00004 0.0013348
383 24.4826 6.48861 1.13491 0 0 1.00004 0.00148523
302 24.2836 5.92903 0.411863 0 0 1.00004 0.00138747
306 25.8766 5.79246 0.677822 0 0 1.00004 0.00154157
308 25.2898 5.9612 1.63098 0 0 1.00004 0.00153365
385 25.3457 6.65589 0.479812 0 0 1.00004 0.00156998
387 26.0483 6.5234 1.37331 0 0 1.00004 0.00165989
312 26.9127 5.78206 1.44111 0 0 1.00004 0.00167096
310 27.7359 5.49088 0.70268 0 0 1.00004 0.00169652
389 26.9784 6.30082 0.628709 0 0 1.00004 0.00170305
391 27.957 6.4033 1.34007 0 0 1.00004 0.00183069
390 27.979 6.94514 0.51263 0 0 1.00004 0.0018644
392 27.0395 7.0439 1.30604 0 0 1.00005 0.0018135
316 28.6271 5.47337 1.45143 0 0 1.00004 0.00179898
395 29.7271 6.14947 1.30204 0 0 1.00004 0.00194765
394 29.8832 6.88165 0.50073 0 0 1.00004 0.00201342
393 28.7425 6.16031 0.634084 0 0 1.00004 0.00185162
16355 29.6562 6.10042 0.0734164 0 0 1.00004 0.0019085
16276 28.7359 5.35008 0.0474175 0 0 1.00004 0.00176386
318 31.2593 5.34044 0.5885 0 0 1.00004 0.00193672
320 30.5095 5.42367 1.44108 0 0 1.00004 0.00192917
397 30.6908 6.15683 0.635343 0 0 1.00004 0.00198941
399 31.5268 6.13079 1.37312 0 0 1.00004 0.0020525
398 31.5321 6.92789 0.603844 0 0 1.00004 0.00211493
401 0.607342 7.63078 0.651474 0 0 1.00004 0.00222483
402 1.21041 8.46985 0.604938 0 0 1.00004 0.00233443
403 1.46215 7.85139 1.49265 0 0 1.00004 0.00230455
404 0.720143 8.54309 1.45957 0 0 1.00004 0.00236444
478 0.0415052 8.59282 0.388689 0 0 1.00004 0.00230775
405 1.9443 7.77153 0.382145 0 0 1.00003 0.00226248
408 2.10145 8.63039 1.46755 0 0 1.00003 0.00240087
326 2.81091 7.15874 0.473297 0 0 1.00003 0.00219684
406 2.56894 8.63552 0.402419 0 0 1.00003 0.00236333
407 2.74727 7.82989 1.29082 0 0 1.00003 0.00229968
412 3.38458 8.54889 0.956061 0 0 1.00003 0.00236351
409 3.57614 7.79287 0.334394 0 0 1.00003 0.00225556
410 4.16254 8.49744 0.0803941 0 0 1.00003 0.00232138
411 4.31027 7.68811 1.2474 0 0 1.00003 0.00225195
416 5.02815 8.31949 0.955894 0 0 1.00003 0.00228952
413 4.98986 7.69541 0.243125 0 0 1.00002 0.00219895
334 5.827 7.10139 0.15724 0 0 1.00002 0.00209127
414 6.17318 8.41262 0.182585 0 0 1.00002 0.00222351
415 5.78622 7.63756 1.04462 0 0 1.00002 0.00217556
420 6.68652 8.28282 1.07535 0 0 1.00002 0.00219859
417 6.75944 7.61565 0.173143 0 0 1.00002 0.0020925
419 7.54543 7.83612 0.772125 0 0 1.00002 0.0020733
1258 7.54725 8.24811 1.74541 0 0 1.00002 0.00217375
1261 8.29168 7.56781 1.60489 0 0 1.00001 0.00202072
421 8.22853 7.68321 0.0282495 0 0 1.00002 0.00198567
424 8.5108 8.39901 0.902881 0 0 1.00001 0.0020667
348 9.99849 7.29569 0.753165 0 0 1.00001 0.00178887
423 9.1139 7.69587 0.686308 0 0 1.00001 0.00191811
428 9.92379 8.69908 0.724356 0 0 1.00001 0.00196364
1262 9.30661 8.78081 1.50081 0 0 1.00001 0.00207623
1265 9.84643 7.96885 1.64727 0 0 1.00001 0.0019325
352 11.4238 7.21633 0.834161 0 0 1.00001 0.00163854
427 10.7289 8.0194 0.872963 0 0 1.00001 0.00180664
1266 10.7571 8.79728 1.48451 0 0 1.00001 0.00193453
1269 11.53 7.89404 1.65009 0 0 1.00001 0.00175344
429 11.3596 8.19498 0.0485584 0 0 1.00001 0.0017424
356 12.7843 7.35344 0.587958 0 0 1.00001 0.00150935
431 12.284 8.29699 0.618546 0 0 1.00001 0.00167227
1190 12.1754 7.23006 1.42219 0 0 1.00001 0.0015918
1270 12.2075 8.75764 1.54586 0 0 1.00001 0.00178471
1273 12.9446 8.06881 1.52109 0 0 1.00001 0.00162337
350 11.997 7.45437 0.00103615 0 0 1.00001 0.00158998
360 14.3639 7.39616 0.612146 0 0 1.00001 0.00137194
435 13.6801 8.1508 0.488361 0 0 1.00001 0.00151425
1194 13.5303 7.39364 1.38262 0 0 1.00001 0.00147674
1277 14.3088 8.22038 1.38745 0 0 1.00001 0.00150622
439 15.1174 8.32503 0.880655 0 0 1.00001 0.00142838
362 16.4464 7.19234 0.285296 0 0 1.00002 0.00120903
364 15.6537 7.33052 0.924907 0 0 1.00002 0.00128108
443 16.2932 8.17206 1.11954 0 0 1.00002 0.00134916
1198 15.1745 7.55485 1.65992 0 0 1.00001 0.00138023
441 15.8884 8.32603 0.157229 0 0 1.00002 0.00135954
368 16.9938 7.35816 1.11949 0 0 1.00002 0.00122967
445 17.0842 8.10504 0.335255 0 0 1.00002 0.0012832
447 17.7362 8.01231 1.02988 0 0 1.00002 0.00127788
366 17.8299 7.156 0.219897 0 0 1.00002 0.00116431
370 19.0368 7.30114 0.631618 0 0 1.00003 0.00118697
451 18.9681 8.11728 1.16971 0 0 1.00003 0.00129398
376 19.9215 7.60469 1.30044 0 0 1.00003 0.00126752
453 19.8536 8.08954 0.355917 0 0 1.00003 0.00128378
449 18.4839 8.16372 0.178821 0 0 1.00003 0.00126469
374 20.7614 7.40106 0.654322 0 0 1.00003 0.00125807
455 20.7274 8.37372 1.0106 0 0 1.00003 0.00137185
380 21.6343 7.59887 1.11787 0 0 1.00004 0.00134963
457 21.7114 8.27141 0.254374 0 0 1.00004 0.00140092
459 22.7198 8.10001 0.985697 0 0 1.00004 0.00148427
1218 22.5372 7.41836 1.70979 0 0 1.00004 0.0014331
378 22.4456 7.40788 0.375436 0 0 1.00004 0.00136837
458 22.8987 8.80547 0.196136 0 0 1.00004 0.00155409
384 23.5908 7.24351 1.02933 0 0 1.00004 0.00147213
461 23.6415 7.99736 0.367011 0 0 1.00004 0.00154043
463 24.5326 8.01045 0.965235 0 0 1.00005 0.00164735
1302 24.4569 8.64034 1.64073 0 0 1.00005 0.00175226
382 24.5035 7.24152 0.264921 0 0 1.00004 0.00154128
462 24.5084 8.73559 0.200421 0 0 1.00005 0.00170482
1301 23.5295 7.96757 1.75403 0 0 1.00004 0.00158865
388 25.3217 7.31076 1.21546 0 0 1.00005 0.00166339
467 26.2659 7.92992 0.963037 0 0 1.00005 0.00181889
1306 26.2826 8.54509 1.70373 0 0 1.00005 0.00193693
386 26.3121 7.1944 0.361379 0 0 1.00005 0.00172424
465 25.4406 8.03876 0.302085 0 0 1.00005 0.00172643
466 26.5247 8.50888 0.0886138 0 0 1.00005 0.00189056
468 25.5178 8.77175 0.9735 0 0 1.00005 0.00183805
470 28.2654 8.44091 0.405937 0 0 1.00005 0.00205616
471 28.0933 7.76645 1.18324 0 0 1.00005 0.00198975
472 27.2646 8.58422 0.99739 0 0 1.00005 0.0019976
469 27.2602 7.71216 0.421284 0 0 1.00005 0.0018779
1310 28.101 8.62605 1.75031 0 0 1.00005 0.00212591
396 28.9439 7.0524 1.20597 0 0 1.00004 0.00198254
474 29.9318 8.32816 0.532435 0 0 1.00004 0.00217927
475 29.8206 7.63489 1.25928 0 0 1.00004 0.00211575
476 29.1007 8.49954 1.16139 0 0 1.00005 0.00215792
473 29.005 7.67368 0.406678 0 0 1.00004 0.00203342
400 30.6509 7.05539 1.16781 0 0 1.00004 0.00210037
479 31.5939 7.79311 1.28792 0 0 1.00004 0.0022375
480 30.7847 8.45506 1.17406 0 0 1.00004 0.00226754
477 30.9738 7.84433 0.379686 0 0 1.00004 0.00218468
482 1.52461 10.2801 0.266364 0 0 1.00004 0.00253329
483 1.40898 9.35873 1.19742 0 0 1.00004 0.00246184
484 0.65466 9.92496 0.902027 0 0 1.00004 0.00249157
481 0.748943 9.3303 0.125046 0 0 1.00004 0.0024133
1322 1.22527 10.1227 1.74995 0 0 1.00004 0.00257933
485 2.13457 9.46478 0.444056 0 0 1.00003 0.0024575
488 2.23046 10.3624 0.976243 0 0 1.00003 0.00257108
486 2.9781 10.2935 0.0765716 0 0 1.00003 0.00254051
487 2.75724 9.46074 1.22389 0 0 1.00003 0.00248548
1326 3.16801 10.2535 1.68578 0 0 1.00003 0.00260086
489 3.44571 9.38544 0.0964034 0 0 1.00003 0.00243795
1329 3.59699 9.27402 1.69036 0 0 1.00003 0.0024837
492 3.76041 10.072 0.757665 0 0 1.00003 0.00252133
491 4.29161 9.14836 0.873545 0 0 1.00003 0.00240962
493 4.91677 9.24132 0.00560703 0 0 1.00002 0.00238104
496 4.96195 10.0284 0.582099 0 0 1.00002 0.00247776
1330 4.50281 10.0081 1.6305 0 0 1.00003 0.0025435
1333 5.02799 9.11339 1.67332 0 0 1.00002 0.00242507
495 5.65663 9.01369 0.676311 0 0 1.00002 0.00233342
500 6.55757 9.86123 0.535019 0 0 1.00002 0.00237583
1334 5.67626 9.89146 1.21184 0 0 1.00002 0.00245608
1337 6.47104 9.13223 1.29738 0 0 1.00002 0.00232916
1417 6.58095 10.5824 1.23329 0 0 1.00002 0.00248467
499 7.44357 8.95319 0.739922 0 0 1.00002 0.00221495
501 8.34984 9.12639 0.090233 0 0 1.00001 0.00214787
504 8.23854 10.0061 0.600081 0 0 1.00001 0.00226936
1338 7.46807 9.81465 1.23763 0 0 1.00002 0.00233907
1341 8.30908 9.2451 1.44612 0 0 1.00001 0.00221882
503 9.17555 9.53011 0.755554 0 0 1.00001 0.00213829
508 9.87122 10.4084 0.694519 0 0 1.00001 0.00217044
1342 9.01422 10.3302 1.4652 0 0 1.00001 0.00228892
1345 10.0397 9.66377 1.47159 0 0 1.00001 0.00211296
432 11.509 8.92315 0.760071 0 0 1.00001 0.00183074
426 10.5786 8.95861 0.0393459 0 0 1.00001 0.00191455
507 10.6543 9.75782 0.687969 0 0 1.00001 0.00201775
1346 10.8315 10.2588 1.69893 0 0 1.00001 0.00212486
1349 11.4822 9.70264 1.37407 0 0 1.00001 0.00196436
436 13.0873 9.01615 0.810928 0 0 1.00001 0.00168356
511 12.2377 9.87691 0.716577 0 0 1.00001 0.00186766
516 12.9462 10.539 0.991584 0 0 1.00001 0.00188145
1353 12.6847 9.68781 1.66764 0 0 1.00001 0.00186325
1274 13.7692 8.91172 1.61062 0 0 1.00001 0.00165613
440 14.5269 9.23203 0.782063 0 0 1.00001 0.0015753
515 13.6298 9.7495 0.86732 0 0 1.00001 0.00171902
1354 13.6174 10.478 1.75857 0 0 1.00001 0.00187191
517 14.3516 10.186 0.228282 0 0 1.00001 0.00167929
444 15.9445 9.17527 1.14854 0 0 1.00002 0.00148543
519 15.1992 9.89679 1.03554 0 0 1.00001 0.00160924
521 15.7472 10.1976 0.254781 0 0 1.00001 0.00157262
523 16.5587 9.96861 0.973363 0 0 1.00002 0.00152887
442 16.5426 9.0482 0.26735 0 0 1.00002 0.0014056
438 15.3408 9.23117 0.113795 0 0 1.00001 0.0014943
452 18.3454 8.87949 0.940343 0 0 1.00002 0.00136271
448 17.135 9.06398 1.13114 0 0 1.00002 0.00141572
525 17.2083 10.0228 0.206275 0 0 1.00002 0.00148159
527 17.8315 9.85479 1.07019 0 0 1.00002 0.00148003
446 17.8042 9.09609 0.121252 0 0 1.00002 0.00136867
456 19.8956 8.91456 1.04292 0 0 1.00003 0.00139662
529 18.6563 9.71208 0.300962 0 0 1.00003 0.00143005
531 19.5799 9.86226 0.846119 0 0 1.00003 0.00147822
532 18.7963 10.4344 1.13665 0 0 1.00003 0.00154007
1369 18.7199 9.56279 1.69608 0 0 1.00003 0.00149004
450 19.2955 8.92829 0.210178 0 0 1.00003 0.00135458
533 20.0791 9.74409 0.069902 0 0 1.00003 0.0014624
535 21.044 9.75754 0.74263 0 0 1.00004 0.0015281
1373 20.3421 9.61913 1.64085 0 0 1.00003 0.00153361
454 20.8805 9.02224 0.198887 0 0 1.00004 0.0014269
1374 21.2144 10.0549 1.74196 0 0 1.00004 0.00163769
460 21.746 8.97123 0.954956 0 0 1.00004 0.00149968
1298 22.5474 8.81654 1.55166 0 0 1.00004 0.00158156
539 22.9966 9.62723 0.785856 0 0 1.00004 0.00166811
540 22.2622 10.4614 0.836547 0 0 1.00004 0.00169173
1377 22.0742 9.72674 1.50018 0 0 1.00004 0.00164196
1378 23.2292 10.4472 1.40352 0 0 1.00005 0.00181546
537 22.1069 9.74628 0.210888 0 0 1.00004 0.00158738
464 23.6112 8.88787 0.943881 0 0 1.00004 0.00165147
543 24.7368 9.49597 0.744451 0 0 1.00005 0.00182808