ITEM: TIMESTEP
47000
ITEM: NUMBER OF ATOMS
32000
ITEM: BOX BOUNDS pp pp pp
0.0000000000000000e+00 3.1748021039364001e+01
0.0000000000000000e+00 3.1748021039364001e+01
0.0000000000000000e+00 3.1748021039364001e+01
ITEM: ATOMS id x y z c_phase c_nbond c_rho vx
4 0.789126 1.09033 0.4834 0 0 1.00006 0.00301349
83 1.656 1.66371 0.794408 0 0 1.00006 0.00306921
842 1.41565 0.786325 1.40208 0 0 1.00006 0.00305234
921 0.699716 1.59131 1.39469 0 0 1.00006 0.00304134
3 1.41277 0.0774312 0.634767 0 0 1.00006 0.00302921
841 0.520617 0.271095 1.25938 0 0 1.00006 0.00300313
8 2.40404 0.843467 1.01304 0 0 1.00005 0.00307445
85 2.49722 1.50743 0.197678 0 0 1.00005 0.00308213
925 2.55068 1.65547 1.74449 0 0 1.00005 0.0031197
6 3.19325 0.735518 0.200246 0 0 1.00005 0.00307742
7 3.25415 0.0652771 1.04058 0 0 1.00005 0.00308276
87 3.32771 1.55234 0.870757 0 0 1.00005 0.00310656
5 2.40093 0.00569251 0.164172 0 0 1.00005 0.00305557
846 3.37489 0.837723 1.73665 0 0 1.00005 0.00311196
12 4.09553 0.916481 0.976648 0 0 1.00005 0.00309785
849 4.15532 0.076472 1.73285 0 0 1.00005 0.00310903
929 4.28855 1.71722 1.72161 0 0 1.00005 0.00314138
10 4.77817 0.862663 0.315731 0 0 1.00005 0.00308377
850 4.9782 0.945747 1.66098 0 0 1.00005 0.00311285
9 4.12255 0.0964713 0.187388 0 0 1.00005 0.0030777
93 5.57296 1.61209 0.393037 0 0 1.00005 0.00309388
16 5.62951 0.573992 1.1508 0 0 1.00005 0.00308027
14 6.27636 0.651055 0.313641 0 0 1.00005 0.00305281
95 6.50237 1.33939 0.981737 0 0 1.00005 0.00306961
854 6.42423 0.466105 1.73574 0 0 1.00005 0.00307569
933 5.65899 1.71899 1.46247 0 0 1.00005 0.00311722
97 7.16514 1.42925 0.223244 0 0 1.00005 0.00303708
20 7.29668 0.415262 0.897319 0 0 1.00005 0.00302056
937 7.29065 1.03999 1.73165 0 0 1.00004 0.00305393
99 7.9327 1.26076 0.965051 0 0 1.00004 0.00300816
18 8.1275 0.672113 0.166533 0 0 1.00004 0.00297555
941 8.67997 1.29768 1.65926 0 0 1.00004 0.00299001
101 8.77355 1.42121 0.24111 0 0 1.00004 0.00295788
24 8.78374 0.426414 1.08242 0 0 1.00004 0.00294994
22 9.35049 0.518001 0.257221 0 0 1.00004 0.002904
28 10.0273 0.335969 0.931357 0 0 1.00004 0.00286582
103 9.51386 1.33855 1.11188 0 0 1.00004 0.00292378
105 10.0987 1.38191 0.10996 0 0 1.00004 0.00287197
32 11.5985 0.221798 0.666255 0 0 1.00004 0.00274759
107 10.8049 1.08161 0.851139 0 0 1.00004 0.00282177
866 10.9481 0.214961 1.49088 0 0 1.00004 0.00281429
949 11.7038 1.03235 1.45306 0 0 1.00004 0.00276812
946 11.018 1.72993 1.75834 0 0 1.00004 0.00285106
26 10.6848 0.373027 0.0823256 0 0 1.00004 0.00281118
36 13.2192 0.227975 0.659233 0 0 1.00004 0.002623
111 12.3956 1.09919 0.537385 0 0 1.00004 0.00269729
870 12.4941 0.321865 1.34328 0 0 1.00004 0.00269424
953 13.0701 1.20962 1.41198 0 0 1.00004 0.00266558
40 14.6681 0.350784 0.811626 0 0 1.00004 0.00251892
115 13.8976 1.12679 0.860798 0 0 1.00004 0.0025882
117 14.3554 1.57567 0.14979 0 0 1.00004 0.00255766
874 13.9358 0.370614 1.66715 0 0 1.00004 0.00259325
957 14.6766 1.18143 1.51288 0 0 1.00004 0.002548
119 15.1682 1.57013 0.677379 0 0 1.00004 0.00250627
38 15.3651 0.715175 0.0664703 0 0 1.00004 0.00246855
44 15.9786 0.761054 0.794407 0 0 1.00004 0.0024378
878 15.4214 0.470698 1.6578 0 0 1.00004 0.00249028
961 15.8936 1.51102 1.41378 0 0 1.00004 0.00247461
123 16.7973 1.5467 0.690785 0 0 1.00004 0.00241025
882 16.7952 0.709373 1.35658 0 0 1.00004 0.00240466
48 17.516 0.727072 0.569492 0 0 1.00004 0.00235742
127 18.1752 1.58816 0.754966 0 0 1.00004 0.00235555
886 18.1661 0.749487 1.42632 0 0 1.00004 0.00235107
965 17.4739 1.74568 1.56922 0 0 1.00004 0.0024047
51 19.7953 0.00712678 0.664918 0 0 1.00005 0.00230151
52 19.0411 0.731067 0.690786 0 0 1.00005 0.00231494
131 19.8051 1.54101 0.838307 0 0 1.00005 0.00232604
889 19.2686 0.146924 1.54211 0 0 1.00005 0.00232342
890 19.8641 0.961533 1.686 0 0 1.00005 0.00233229
969 18.9304 1.49648 1.49935 0 0 1.00005 0.00234951
129 19.1205 1.57416 0.00259661 0 0 1.00005 0.00232718
55 21.4183 0.34174 1.06001 0 0 1.00005 0.00232151
56 20.5241 0.767967 0.96211 0 0 1.00005 0.00231272
135 21.4007 1.61183 0.953909 0 0 1.00005 0.00234325
54 21.4763 0.758729 0.209359 0 0 1.00005 0.002318
133 20.6246 1.49531 0.20666 0 0 1.00005 0.00232003
973 20.6144 1.75379 1.725 0 0 1.00005 0.00235549
57 22.3408 0.275153 0.528417 0 0 1.00005 0.00234061
59 23.1618 0.421831 1.3781 0 0 1.00005 0.00239015
60 22.4538 1.13905 1.31163 0 0 1.00005 0.00237059
137 22.322 1.58146 0.508846 0 0 1.00005 0.00236254
58 23.2669 1.03156 0.461752 0 0 1.00005 0.00238841
63 24.6856 0.369258 1.39157 0 0 1.00006 0.00247705
61 23.9592 0.341655 0.567218 0 0 1.00006 0.00241725
62 24.8543 1.1488 0.732698 0 0 1.00006 0.00248603
64 23.8839 1.2085 1.3708 0 0 1.00006 0.00244103
65 25.4168 0.309886 0.532825 0 0 1.00006 0.00251155
67 26.4957 0.363998 1.15091 0 0 1.00006 0.00259973
68 25.6297 1.10692 1.43027 0 0 1.00006 0.00255457
147 26.4314 1.70463 1.32644 0 0 1.00006 0.00262732
66 26.3796 0.929478 0.411395 0 0 1.00006 0.00258762
70 28.1395 1.26077 0.375923 0 0 1.00006 0.00273155
71 28.1764 0.485364 0.862078 0 0 1.00006 0.00272651
72 27.2775 1.00926 1.22906 0 0 1.00006 0.00267178
69 27.3096 0.240757 0.241596 0 0 1.00006 0.00264869
149 27.0762 1.75496 0.505291 0 0 1.00006 0.00266423
913 28.99 0.348141 1.40716 0 0 1.00006 0.00279862
76 29.2468 1.20103 0.713683 0 0 1.00006 0.00281682
914 29.9871 0.96556 1.55114 0 0 1.00006 0.00288462
993 29.1092 1.70761 1.49215 0 0 1.00006 0.00283838
75 29.8929 0.346621 0.614952 0 0 1.00006 0.00284858
917 30.48 0.159454 1.43527 0 0 1.00006 0.00290507
79 31.3843 0.452298 0.489787 0 0 1.00006 0.00294405
80 30.7296 1.17591 0.763348 0 0 1.00006 0.00292127
918 31.5164 0.966882 1.3812 0 0 1.00006 0.00297685
84 0.82736 2.37208 0.803486 0 0 1.00006 0.00306504
1001 1.08542 3.03629 1.55144 0 0 1.00006 0.00313227
161 1.02229 3.1078 0.127548 0 0 1.00006 0.00310584
158 0.0692661 2.62449 0.0769607 0 0 1.00006 0.00303358
82 1.80127 2.4328 0.111735 0 0 1.00006 0.00309931
922 1.84233 2.36453 1.59152 0 0 1.00006 0.00312548
163 1.98606 3.21439 0.939715 0 0 1.00006 0.00315849
88 2.61429 2.4101 0.793981 0 0 1.00005 0.00312751
1005 2.81678 3.10895 1.75574 0 0 1.00005 0.00319787
167 3.35948 3.29447 0.859923 0 0 1.00005 0.00319204
926 3.38618 2.26573 1.56168 0 0 1.00005 0.00315392
86 3.40793 2.40224 0.0524515 0 0 1.00005 0.00313377
1009 3.99177 3.4209 1.66841 0 0 1.00005 0.00322917
92 4.07335 2.58109 0.801708 0 0 1.00005 0.00315438
91 4.6768 1.84015 0.726348 0 0 1.00005 0.00311775
171 4.8842 3.35233 0.773137 0 0 1.00005 0.00319514
930 4.83975 2.66519 1.60237 0 0 1.00005 0.00317734
96 5.56392 2.58625 0.839038 0 0 1.00005 0.0031428
94 6.28769 2.47969 0.14829 0 0 1.00005 0.00311073
175 6.31281 3.24377 0.977323 0 0 1.00005 0.00316509
934 6.49231 2.24846 1.51711 0 0 1.00005 0.003119
173 5.64938 3.35532 0.0198284 0 0 1.00005 0.00317765
1017 7.17168 3.11599 1.57514 0 0 1.00004 0.00314429
100 7.16923 2.22599 0.800798 0 0 1.00005 0.0030749
177 7.24723 3.00054 0.132628 0 0 1.00004 0.00310465
98 8.02416 2.27041 0.140072 0 0 1.00004 0.00303108
179 8.00171 3.1118 0.932737 0 0 1.00004 0.00308869
938 7.89177 2.10627 1.60223 0 0 1.00004 0.0030591
104 8.65312 2.2401 0.963166 0 0 1.00004 0.00300675
1021 8.76423 3.05342 1.6918 0 0 1.00004 0.00306728
181 8.83002 3.02379 0.0473226 0 0 1.00004 0.0030266
102 9.43059 2.14793 0.256204 0 0 1.00004 0.00294473
183 9.46219 3.02807 0.961824 0 0 1.00004 0.00300097
942 9.55487 2.26636 1.75528 0 0 1.00004 0.0029774
185 10.0754 2.97239 0.211819 0 0 1.00004 0.00294464
108 10.2597 2.06514 1.11858 0 0 1.00004 0.00289967
106 10.7399 2.15337 0.203836 0 0 1.00004 0.00285519
112 11.5797 1.87877 0.795265 0 0 1.00004 0.00278863
187 11.0758 2.86135 0.942314 0 0 1.00004 0.00287604
1029 11.8665 2.89184 1.63051 0 0 1.00004 0.00284097
116 13.0317 1.97513 0.622355 0 0 1.00004 0.00267687
191 12.3298 2.70695 0.759452 0 0 1.00004 0.00276851
950 12.3273 1.96285 1.50378 0 0 1.00004 0.00275097
1033 13.2278 3.07069 1.73126 0 0 1.00004 0.00274798
195 13.5653 3.06377 0.85215 0 0 1.00004 0.00269265
954 13.7266 2.02962 1.50958 0 0 1.00004 0.00264553
114 13.7491 2.33814 0.0532195 0 0 1.00004 0.00263289
120 14.3449 2.47936 0.932613 0 0 1.00004 0.00260468
1037 14.3765 3.4373 1.58548 0 0 1.00004 0.00267707
199 15.0288 3.46997 0.884305 0 0 1.00004 0.00261184
197 14.4796 3.2581 0.0469428 0 0 1.00004 0.00262849
958 15.1089 2.33742 1.45203 0 0 1.00004 0.00255689
118 15.1402 2.52983 0.139348 0 0 1.00004 0.00254244
124 15.9735 2.45142 0.711929 0 0 1.00004 0.00249075
203 16.6016 3.21694 0.689982 0 0 1.00004 0.00249429
962 16.5875 2.48561 1.53568 0 0 1.00004 0.0024763
1041 15.701 3.28385 1.52916 0 0 1.00004 0.00257213
201 15.8665 3.28422 0.0314971 0 0 1.00004 0.00253611
128 17.3346 2.3657 0.687658 0 0 1.00004 0.00241479
207 18.2163 2.93092 0.712199 0 0 1.00004 0.00240932
966 18.2834 2.42782 1.59387 0 0 1.00004 0.00240374
1045 17.3701 3.12125 1.51216 0 0 1.00004 0.0024703
132 19.1575 2.35311 1.00657 0 0 1.00005 0.00236447
211 19.9807 3.20411 1.26241 0 0 1.00005 0.00240577
209 19.1548 2.98739 0.184684 0 0 1.00005 0.00238487
130 19.8711 2.30895 0.10974 0 0 1.00005 0.00234565
134 21.4801 2.3908 0.447307 0 0 1.00005 0.00236566
136 20.4961 2.43129 1.09408 0 0 1.00005 0.00236392
215 21.6454 3.25639 1.36067 0 0 1.00005 0.0024299
213 20.7151 2.97434 0.324261 0 0 1.00005 0.00237978
139 23.2527 2.01156 1.49046 0 0 1.00006 0.00243371
138 23.3392 2.56015 0.714517 0 0 1.00006 0.00244438
140 22.4288 2.45453 1.21891 0 0 1.00005 0.002411
217 22.3312 3.1584 0.592067 0 0 1.00005 0.00243091
16179 23.0758 3.33654 0.0484661 0 0 1.00005 0.00246601
141 24.129 1.77789 0.609565 0 0 1.00006 0.0024562
143 24.8578 1.94677 1.55674 0 0 1.00006 0.00252907
142 24.7792 2.6289 0.754861 0 0 1.00006 0.00253361
144 24.0988 2.82978 1.49937 0 0 1.00006 0.00251836
223 24.9371 3.44615 1.51761 0 0 1.00006 0.00260741
16108 25.4232 2.76715 0.00682568 0 0 1.00006 0.00257955
145 25.5938 1.81524 0.516395 0 0 1.00006 0.0025539
146 26.2987 2.55412 0.681924 0 0 1.00006 0.00263801
148 25.6434 2.51662 1.48369 0 0 1.00006 0.00260457
227 26.2412 3.42674 1.48288 0 0 1.00006 0.00270177
229 26.723 3.43682 0.577074 0 0 1.00006 0.00271901
152 27.0663 2.5226 1.49259 0 0 1.00006 0.00271556
151 28.0648 1.94492 1.20015 0 0 1.00006 0.00276123
150 27.6487 2.63756 0.613751 0 0 1.00006 0.00274736
231 27.8027 3.28628 1.38593 0 0 1.00006 0.00281368
233 28.5836 3.17749 0.336228 0 0 1.00006 0.00284637
153 28.8534 2.05568 0.338437 0 0 1.00006 0.00281185
156 28.8603 2.70298 1.17251 0 0 1.00006 0.00285644
155 30.0598 1.98927 0.878305 0 0 1.00006 0.00290364
154 29.8221 2.66031 0.27928 0 0 1.00006 0.00291054
235 29.9128 3.20519 1.17775 0 0 1.00006 0.00296292
997 30.6322 1.78104 1.68434 0 0 1.00006 0.00295606
159 31.5856 1.94641 0.916631 0 0 1.00006 0.0030004
160 30.841 2.67309 0.993717 0 0 1.00006 0.00298955
239 31.725 3.29354 0.969167 0 0 1.00006 0.00307716
998 31.6744 2.66001 1.72151 0 0 1.00006 0.00306075
237 30.8066 3.19481 0.168074 0 0 1.00006 0.00300595
157 31.0426 1.88441 0.0494765 0 0 1.00006 0.00295531
164 1.00977 3.76504 0.919174 0 0 1.00006 0.00315726
241 0.88102 4.59254 0.452647 0 0 1.00006 0.00320836
244 0.868978 5.24101 1.26804 0 0 1.00006 0.00328251
1081 1.21208 4.3868 1.75546 0 0 1.00006 0.00324006
162 1.76822 3.84836 0.087727 0 0 1.00006 0.00318228
243 1.86735 4.64995 0.990379 0 0 1.00006 0.00326096
168 2.6008 4.03932 0.863199 0 0 1.00005 0.00322985
247 3.29483 4.88105 1.12797 0 0 1.00005 0.00331865
245 2.64862 4.95313 0.292335 0 0 1.00006 0.00329694
166 3.38406 4.1608 0.193114 0 0 1.00005 0.00324468
249 4.15822 4.88224 0.171213 0 0 1.00005 0.00330777
172 4.1969 4.1118 0.906075 0 0 1.00005 0.0032547
251 4.80686 4.91669 1.17099 0 0 1.00005 0.0033267
170 4.95211 4.20646 0.144981 0 0 1.00005 0.00324865
176 5.61008 4.0621 1.16886 0 0 1.00005 0.00324503
253 5.71873 4.7956 0.331358 0 0 1.00005 0.00328671
174 6.41872 3.99062 0.184306 0 0 1.00005 0.00320287
255 6.41076 4.77429 1.06187 0 0 1.00005 0.00328097
180 7.16272 3.84444 0.810301 0 0 1.00004 0.00317308
1097 7.33693 4.6063 1.69617 0 0 1.00004 0.00325573
260 7.33998 5.23522 0.893584 0 0 1.00004 0.00328461
259 8.03635 4.54122 0.583159 0 0 1.00004 0.0031852
1018 8.03389 3.93254 1.54635 0 0 1.00004 0.00316297
184 8.79247 3.94386 0.735529 0 0 1.00004 0.00309965
1101 8.81778 4.69499 1.52878 0 0 1.00004 0.0031825
263 9.6405 4.65441 0.847769 0 0 1.00004 0.00310742
1022 9.61533 3.84681 1.55118 0 0 1.00004 0.00306587
182 9.53816 3.94039 0.0628028 0 0 1.00004 0.0030462
265 10.378 4.61688 0.134198 0 0 1.00004 0.00304273
188 10.396 3.66315 0.916069 0 0 1.00004 0.00297796
1105 10.4155 4.44753 1.7161 0 0 1.00004 0.00306582
267 11.0855 4.73076 0.937571 0 0 1.00004 0.00301359
1026 11.1773 3.65721 1.64386 0 0 1.00004 0.0029428
186 11.0687 3.91436 0.175046 0 0 1.00004 0.00293538
1109 11.8306 4.4915 1.75092 0 0 1.00004 0.00296502
192 11.8437 3.71457 0.83082 0 0 1.00004 0.00287079
269 11.8403 4.78692 0.22577 0 0 1.00004 0.00294776
196 12.892 3.67223 0.838136 0 0 1.00004 0.0027868
271 12.6106 4.63369 1.03041 0 0 1.00004 0.00288947
1113 13.1998 5.05586 1.73675 0 0 1.00004 0.00290706
273 13.0314 4.6937 0.0586753 0 0 1.00004 0.00284588
275 13.6231 4.78565 0.819213 0 0 1.00004 0.00281605
200 14.351 4.17423 0.716596 0 0 1.00004 0.00270707
1034 13.8715 4.28373 1.62693 0 0 1.00004 0.0027818
1117 14.5754 5.17558 1.56767 0 0 1.00004 0.00280284
277 14.5014 4.94937 0.0812902 0 0 1.00004 0.00275225
279 15.2964 5.06873 0.832955 0 0 1.00004 0.00271523
198 15.2816 4.22444 0.108957 0 0 1.00004 0.00263767
1038 15.316 4.44787 1.62045 0 0 1.00004 0.00268693
204 15.9746 4.09501 0.927939 0 0 1.00004 0.00259349
281 16.1814 4.80167 0.188124 0 0 1.00004 0.00262467
1042 16.6331 3.98461 1.70242 0 0 1.00004 0.00257167
1121 16.1583 5.07569 1.6695 0 0 1.00004 0.00268745
283 16.9012 4.60677 0.911482 0 0 1.00004 0.00257882
208 17.5577 3.83577 0.814073 0 0 1.00004 0.00248918
287 18.375 4.48146 1.0946 0 0 1.00004 0.0025119
1046 18.2391 3.64069 1.66006 0 0 1.00004 0.00247425
285 17.7328 4.58236 0.0253088 0 0 1.00004 0.00252755
206 18.42 3.84323 0.0714991 0 0 1.00004 0.00245092
212 19.1497 3.69512 0.957186 0 0 1.00005 0.00243558
289 19.1253 4.59202 0.357929 0 0 1.00005 0.00248869
291 19.9889 4.62857 1.09699 0 0 1.00005 0.00249563
292 19.0946 5.25438 1.19348 0 0 1.00004 0.00255861
210 19.8909 3.73759 0.240051 0 0 1.00005 0.00242006
216 20.7482 3.77748 1.21987 0 0 1.00005 0.00244112
295 21.2263 4.66232 1.36174 0 0 1.00005 0.00251524
214 21.4299 3.88878 0.507283 0 0 1.00005 0.00244522
293 20.4784 4.73854 0.338542 0 0 1.00005 0.00249013
297 21.9724 4.88452 0.7793 0 0 1.00005 0.00253572
219 23.2223 3.55083 1.38025 0 0 1.00006 0.00250772
220 22.308 4.06594 1.28515 0 0 1.00005 0.0024997
299 22.897 5.07485 1.24975 0 0 1.00006 0.00259848
218 23.0252 4.26928 0.519074 0 0 1.00006 0.00252741
221 23.9999 3.55887 0.754852 0 0 1.00006 0.00253576
222 24.8054 4.24779 0.616392 0 0 1.00006 0.00263049
224 23.9101 4.453 1.31151 0 0 1.00006 0.00260569
301 23.9969 4.97931 0.514997 0 0 1.00006 0.00263276
303 24.8627 5.18874 1.39069 0 0 1.00006 0.00272871
305 25.3876 5.13924 0.547774 0 0 1.00006 0.00274091
228 25.5339 4.39193 1.5601 0 0 1.00006 0.00271855
225 25.5551 3.57415 0.759784 0 0 1.00006 0.00264103
307 26.2677 5.03648 1.31567 0 0 1.00006 0.00281797
226 26.0688 4.31767 0.396963 0 0 1.00006 0.00272435
232 26.9378 4.1986 1.34043 0 0 1.00006 0.00280534
309 27.1016 4.88478 0.622816 0 0 1.00006 0.00285472
311 27.9655 4.78173 1.36017 0 0 1.00006 0.00293449
230 27.6536 3.9593 0.573162 0 0 1.00006 0.00282669
236 28.5877 3.8996 1.08587 0 0 1.00006 0.00290655
313 28.9331 4.66263 0.681648 0 0 1.00006 0.00298326
234 29.5839 3.72429 0.457541 0 0 1.00006 0.00295831
315 29.7647 4.44863 1.28545 0 0 1.00006 0.00304364
314 30.1 5.243 0.792761 0 0 1.00006 0.00312223
240 30.6829 3.99152 1.01243 0 0 1.00006 0.00306376
238 31.7362 3.95891 0.343957 0 0 1.00006 0.00311416
317 30.9224 4.6435 0.45722 0 0 1.00006 0.00312073
319 31.7155 4.57236 1.35815 0 0 1.00006 0.00318278
323 1.61895 6.17613 1.27432 0 0 1.00006 0.00340262
324 1.07987 6.91299 1.47437 0 0 1.00006 0.00346603
321 0.788006 5.9783 0.452833 0 0 1.00006 0.00332897
398 0.290091 6.89801 0.603757 0 0 1.00006 0.00339887
399 0.253735 6.10442 1.36014 0 0 1.00006 0.00333788
242 1.70087 5.5053 0.45498 0 0 1.00006 0.00332069
322 1.81771 6.91345 0.562481 0 0 1.00006 0.0034659
248 2.34754 5.50244 1.36319 0 0 1.00006 0.00336462
328 2.55143 7.02161 1.25483 0 0 1.00006 0.00351763
325 2.67909 6.2023 0.500712 0 0 1.00006 0.00341615
327 3.10397 6.18444 1.41458 0 0 1.00005 0.00344774
246 3.46265 5.61239 0.279205 0 0 1.00005 0.00336947
252 3.92453 5.65705 1.2958 0 0 1.00005 0.00340068
332 4.07691 7.00701 1.17673 0 0 1.00005 0.00353428
329 4.19667 6.30314 0.484599 0 0 1.00005 0.00344264
250 4.95335 5.51266 0.33593 0 0 1.00005 0.00336194
331 4.90781 6.1449 1.25418 0 0 1.00005 0.00344507
330 4.82296 7.05351 0.24533 0 0 1.00005 0.00351682
336 5.58115 6.88912 1.19113 0 0 1.00005 0.00351101
333 5.60649 6.29984 0.331508 0 0 1.00005 0.00342997
256 5.69401 5.50379 1.31474 0 0 1.00005 0.00337287
254 6.47689 5.47468 0.296801 0 0 1.00005 0.00332769
335 6.43211 6.28767 0.989932 0 0 1.00005 0.0034234
337 7.11806 6.16408 0.150326 0 0 1.00004 0.00337112
1177 7.2026 6.08505 1.65385 0 0 1.00004 0.00340065
340 7.19935 6.96385 1.00875 0 0 1.00004 0.00346763
339 8.00916 6.23664 0.791139 0 0 1.00004 0.00335108
1098 8.07409 5.49283 1.55079 0 0 1.00004 0.00329815
1178 8.02498 6.94368 1.66213 0 0 1.00004 0.00345891
258 7.98243 5.44607 0.0391678 0 0 1.00004 0.0032637
344 8.71708 6.96843 0.753536 0 0 1.00004 0.00338832
264 8.83386 5.41365 0.731362 0 0 1.00004 0.00322388
1181 8.89288 6.2268 1.562 0 0 1.00004 0.0033304
343 9.52409 6.29515 0.770964 0 0 1.00004 0.00327043
1102 9.65032 5.43315 1.63904 0 0 1.00004 0.0032069
262 9.60282 5.57507 0.026282 0 0 1.00004 0.00318366
268 10.331 5.43498 0.829808 0 0 1.00004 0.00313075
1185 10.3425 6.2878 1.54517 0 0 1.00004 0.00324219
345 10.3476 6.35683 0.10291 0 0 1.00004 0.00321145
347 11.1465 6.1428 0.980733 0 0 1.00004 0.00314423
266 11.0192 5.66606 0.0227193 0 0 1.00004 0.00309261
349 11.8416 6.47359 0.0785569 0 0 1.00004 0.00311045
272 11.8832 5.38014 1.04383 0 0 1.00004 0.00301556
270 12.4584 5.70596 0.193512 0 0 1.00004 0.0029838
276 13.1276 5.8896 0.89471 0 0 1.00004 0.00296189
351 12.2747 6.33593 1.08994 0 0 1.00004 0.00308054
274 13.7226 5.62296 0.0435948 0 0 1.00004 0.0028737
1114 13.7723 5.95919 1.6261 0 0 1.00003 0.00294424
355 13.8062 6.65686 0.829687 0 0 1.00003 0.00298154
280 14.4625 5.79214 0.800547 0 0 1.00004 0.00284322
1197 14.742 6.71995 1.46837 0 0 1.00003 0.00294149
357 14.5446 6.46467 0.0439492 0 0 1.00004 0.00289153
278 15.3647 5.68125 0.0439938 0 0 1.00004 0.00275498
359 15.4302 6.51263 0.824562 0 0 1.00004 0.00284315
284 16.1791 5.77103 0.957362 0 0 1.00004 0.00272314
1118 15.4926 5.92128 1.73066 0 0 1.00004 0.00281607
361 16.0473 6.39142 0.0520379 0 0 1.00004 0.00277562
363 16.8481 6.48489 1.1672 0 0 1.00004 0.0027588
282 16.9437 5.44525 0.273828 0 0 1.00004 0.00263591
286 18.148 5.3166 0.537976 0 0 1.00004 0.00257491
288 17.4273 5.4397 1.25582 0 0 1.00004 0.00263314
365 17.4235 6.29832 0.41174 0 0 1.00004 0.00269121
367 18.0089 6.25051 1.37895 0 0 1.00004 0.00268853
372 18.6469 7.04559 1.15336 0 0 1.00004 0.00273599
369 18.7227 6.21394 0.617487 0 0 1.00004 0.00263685
290 19.7778 5.70905 0.61527 0 0 1.00005 0.002574
371 19.6825 6.51527 1.32658 0 0 1.00005 0.00266921
373 20.3786 6.68191 0.602298 0 0 1.00005 0.00266038
294 21.1351 5.70051 0.633311 0 0 1.00005 0.00257937
296 20.5305 5.55162 1.37142 0 0 1.00005 0.00257989
375 21.1776 6.53183 1.27905 0 0 1.00005 0.00267416
377 22.0794 6.57783 0.653772 0 0 1.00005 0.00268287
300 22.0618 5.78265 1.33902 0 0 1.00005 0.00262969
16260 22.1025 5.65315 0.0543163 0 0 1.00005 0.00259446
298 23.1131 5.74349 0.632991 0 0 1.00006 0.00264978
379 23.103 6.57945 1.16776 0 0 1.00006 0.00274129
381 23.8506 6.64796 0.26583 0 0 1.00006 0.00276669
304 23.9712 5.78481 1.23796 0 0 1.00006 0.00271708
383 24.8773 6.45225 1.13182 0 0 1.00006 0.00283709
302 24.6554 5.88257 0.40153 0 0 1.00006 0.00275041
306 26.2831 5.74937 0.661443 0 0 1.00006 0.00286461
308 25.6823 5.91499 1.59729 0 0 1.00006 0.00286269
385 25.7454 6.59491 0.472662 0 0 1.00006 0.00289722
387 26.4832 6.48274 1.35795 0 0 1.00006 0.00297238
312 27.3299 5.74231 1.41852 0 0 1.00006 0.00297126
310 28.1667 5.45769 0.685456 0 0 1.00006 0.00299179
389 27.4063 6.26189 0.608927 0 0 1.00006 0.00300283
391 28.3946 6.34902 1.32556 0 0 1.00006 0.00311272
392 27.4936 7.00671 1.28144 0 0 1.00006 0.00310516
390 28.4363 6.90327 0.497835 0 0 1.00006 0.00314805
316 29.0757 5.43783 1.42432 0 0 1.00006 0.00308399
393 29.201 6.13078 0.6351 0 0 1.00006 0.00313573
16276 29.1717 5.32564 0.0322493 0 0 1.00006 0.0030526
396 29.4165 7.00417 1.18772 0 0 1.00006 0.00325579
16355 30.1154 6.06114 0.0737152 0 0 1.00006 0.00318964
395 30.1938 6.12688 1.28689 0 0 1.00006 0.00322727
394 30.3659 6.87367 0.49191 0 0 1.00006 0.00329291
318 31.7337 5.31353 0.579373 0 0 1.00006 0.00322805
320 30.9743 5.38983 1.41361 0 0 1.00006 0.00321184
397 31.1577 6.13637 0.618606 0 0 1.00006 0.00327237
400 31.1497 7.01892 1.15932 0 0 1.00006 0.00337571
401 1.13146 7.62533 0.636455 0 0 1.00006 0.00351538
404 1.25023 8.51318 1.43851 0 0 1.00006 0.00364261
478 0.579272 8.55674 0.38385 0 0 1.00006 0.00358353
479 0.35641 7.75621 1.27511 0 0 1.00006 0.00351257
402 1.76743 8.46629 0.584981 0 0 1.00006 0.0036272
403 1.98774 7.82691 1.47885 0 0 1.00006 0.0035979
405 2.47752 7.76291 0.393464 0 0 1.00006 0.00357098
408 2.65532 8.61796 1.45858 0 0 1.00006 0.00370006
326 3.32568 7.13902 0.467517 0 0 1.00005 0.00352399
406 3.13046 8.61532 0.400343 0 0 1.00006 0.00367488
407 3.28837 7.82516 1.29168 0 0 1.00006 0.0036188
412 3.95061 8.55563 0.972207 0 0 1.00005 0.00369271
409 4.10175 7.79025 0.340024 0 0 1.00005 0.00359602
410 4.71341 8.50057 0.0806165 0 0 1.00005 0.00366965
411 4.84036 7.68165 1.22955 0 0 1.00005 0.00360528
413 5.51923 7.7288 0.234632 0 0 1.00005 0.00357803
416 5.56583 8.34549 0.976572 0 0 1.00005 0.00366168
334 6.33063 7.10956 0.16629 0 0 1.00005 0.00349602
414 6.70126 8.44465 0.193487 0 0 1.00004 0.0036279
415 6.31062 7.64954 1.04238 0 0 1.00005 0.00357111
420 7.20634 8.28787 1.0895 0 0 1.00004 0.00361338
417 7.27034 7.65841 0.168273 0 0 1.00004 0.0035233
419 8.06206 7.8578 0.78261 0 0 1.00004 0.00352107
1258 8.06171 8.27141 1.75724 0 0 1.00004 0.00361
1182 9.73823 7.08371 1.53091 0 0 1.00004 0.00337011
421 8.72681 7.72886 0.0231149 0 0 1.00004 0.00346072
1261 8.80246 7.60598 1.62365 0 0 1.00004 0.00348985
424 9.00027 8.44757 0.920351 0 0 1.00004 0.00354178
423 9.59685 7.74161 0.69894 0 0 1.00004 0.00341914
1262 9.79765 8.81234 1.5296 0 0 1.00004 0.00356396
1186 11.0721 7.05866 1.56581 0 0 1.00004 0.00327625
346 11.1053 7.08261 0.13768 0 0 1.00004 0.00323155
1265 10.3549 8.0032 1.65808 0 0 1.00003 0.00344105
428 10.4138 8.74004 0.742369 0 0 1.00003 0.00347762
348 10.4544 7.32097 0.773469 0 0 1.00004 0.00331867
427 11.2005 8.05746 0.885131 0 0 1.00003 0.00334893
429 11.8173 8.23881 0.0492483 0 0 1.00003 0.00330352
352 11.8564 7.25919 0.846616 0 0 1.00003 0.00320818
1269 11.9757 7.95025 1.66526 0 0 1.00003 0.00331433
356 13.2114 7.40641 0.608857 0 0 1.00003 0.00310619
431 12.7291 8.32587 0.642835 0 0 1.00003 0.00324998
1190 12.6314 7.27452 1.45344 0 0 1.00003 0.00317233
1270 12.6614 8.81226 1.57952 0 0 1.00003 0.00335331
1273 13.3779 8.12373 1.55097 0 0 1.00003 0.00321303
350 12.4303 7.48303 0.00092966 0 0 1.00003 0.00317018
360 14.7489 7.42979 0.64902 0 0 1.00003 0.00298606
435 14.1015 8.19951 0.517755 0 0 1.00003 0.00311836
1194 13.9564 7.42543 1.42099 0 0 1.00003 0.00307757
1277 14.7329 8.24385 1.42059 0 0 1.00003 0.00310669
439 15.5394 8.35201 0.893883 0 0 1.00003 0.00303265
364 16.0391 7.35228 0.920717 0 0 1.00004 0.00288867
443 16.6965 8.19255 1.12616 0 0 1.00004 0.00294543
1198 15.5687 7.58664 1.69364 0 0 1.00003 0.00298797
441 16.2724 8.33814 0.158608 0 0 1.00004 0.00296301
362 16.8213 7.21193 0.296503 0 0 1.00004 0.00281249
368 17.3711 7.36876 1.12469 0 0 1.00004 0.00281957
445 17.4605 8.12849 0.321256 0 0 1.00004 0.00287248
447 18.1273 8.02981 1.04382 0 0 1.00004 0.00284994
366 18.1949 7.17657 0.2316 0 0 1.00004 0.00274203
370 19.4054 7.29351 0.620946 0 0 1.00004 0.002726
451 19.3512 8.11799 1.16985 0 0 1.00004 0.00282929
449 18.8671 8.16791 0.196587 0 0 1.00004 0.00281753
453 20.2276 8.07359 0.360345 0 0 1.00005 0.00279147
376 20.2919 7.5902 1.29338 0 0 1.00005 0.00277178
374 21.1275 7.3816 0.640817 0 0 1.00005 0.00273559
455 21.1179 8.34693 1.00763 0 0 1.00005 0.00284209
380 22.0141 7.56578 1.10383 0 0 1.00005 0.00278942
457 22.0999 8.2391 0.255712 0 0 1.00005 0.00283766
459 23.1197 8.06883 0.969601 0 0 1.00006 0.00288149
1218 22.921 7.38253 1.69175 0 0 1.00006 0.00283614
378 22.8269 7.37061 0.371639 0 0 1.00006 0.00278323
458 23.2925 8.78269 0.197107 0 0 1.00006 0.0029437
1298 22.9677 8.78088 1.54621 0 0 1.00006 0.00297567
384 23.9837 7.20565 1.02846 0 0 1.00006 0.00284615
461 24.0414 7.96083 0.34921 0 0 1.00006 0.00290921
463 24.952 7.95919 0.947955 0 0 1.00006 0.00298559
1302 24.8923 8.60726 1.62763 0 0 1.00006 0.00308431
382 24.8922 7.19008 0.26855 0 0 1.00006 0.00288782
462 24.9358 8.68187 0.196823 0 0 1.00006 0.00304136
1301 23.9397 7.91821 1.72015 0 0 1.00006 0.00294977
388 25.7461 7.26179 1.1923 0 0 1.00006 0.00298476
467 26.7188 7.88772 0.949896 0 0 1.00007 0.00311878
1306 26.7476 8.50158 1.67635 0 0 1.00007 0.00322479
386 26.733 7.13831 0.361723 0 0 1.00006 0.00302771
465 25.8684 7.97479 0.301799 0 0 1.00006 0.00304248
468 25.9669 8.71861 0.953377 0 0 1.00007 0.00314469
466 26.975 8.46029 0.0915574 0 0 1.00007 0.00318273
472 27.7471 8.54069 0.98232 0 0 1.00007 0.00327702
469 27.7147 7.66689 0.413175 0 0 1.00007 0.00316469
471 28.5746 7.71619 1.16129 0 0 1.00007 0.00326375
1310 28.6006 8.57126 1.72452 0 0 1.00007 0.00338888
470 28.746 8.39508 0.382064 0 0 1.00007 0.00332696
476 29.5926 8.45167 1.14411 0 0 1.00007 0.00342061
473 29.4971 7.64668 0.397597 0 0 1.00007 0.00330801
475 30.3158 7.6021 1.2462 0 0 1.00006 0.00338595
474 30.446 8.31425 0.523064 0 0 1.00007 0.00344999
480 31.308 8.4203 1.16897 0 0 1.00006 0.00353489
477 31.4792 7.81636 0.378476 0 0 1.00006 0.0034592
484 1.22567 9.91506 0.913556 0 0 1.00006 0.00376707
481 1.30712 9.31164 0.129182 0 0 1.00006 0.00369385
559 0.440445 9.22679 1.11619 0 0 1.00006 0.00366782
558 0.450367 9.90389 0.0746992 0 0 1.00006 0.00371207
1322 1.81335 10.1065 1.7421 0 0 1.00006 0.00385334
483 1.97402 9.3254 1.18459 0 0 1.00006 0.00374492
482 2.10372 10.2651 0.253727 0 0 1.00006 0.00381756
485 2.69483 9.4587 0.426501 0 0 1.00006 0.00375636
488 2.8105 10.3368 0.980407 0 0 1.00006 0.00386197
487 3.32775 9.44974 1.21062 0 0 1.00006 0.00379107
486 3.54787 10.29 0.0701407 0 0 1.00006 0.00384964
1326 3.74594 10.249 1.68396 0 0 1.00005 0.0039044
489 4.01002 9.37283 0.117875 0 0 1.00005 0.00376122
1329 4.18167 9.28572 1.7135 0 0 1.00005 0.00380695
492 4.32957 10.0857 0.772676 0 0 1.00005 0.00384704
491 4.85196 9.15582 0.878257 0 0 1.00005 0.00375326
1330 5.08544 10.014 1.62134 0 0 1.00005 0.00387694
493 5.46882 9.27428 0.00130041 0 0 1.00005 0.00374463
496 5.53499 10.0482 0.585396 0 0 1.00005 0.00383229
1333 5.59998 9.12089 1.67467 0 0 1.00005 0.00378024
495 6.20436 9.05385 0.68265 0 0 1.00005 0.00371746
1334 6.25694 9.91898 1.24886 0 0 1.00005 0.00382755
1337 7.0275 9.16822 1.31546 0 0 1.00004 0.00372974
500 7.10715 9.89112 0.542261 0 0 1.00004 0.00377532
499 7.96766 8.98596 0.758331 0 0 1.00004 0.00364933
1338 8.00331 9.8556 1.2609 0 0 1.00004 0.0037624
504 8.78279 10.0543 0.613018 0 0 1.00004 0.00371827
1341 8.83659 9.28379 1.46916 0 0 1.00004 0.00367058
501 8.87071 9.17197 0.097291 0 0 1.00004 0.00361106
503 9.69622 9.56345 0.766619 0 0 1.00004 0.00361832
1342 9.55537 10.3508 1.49275 0 0 1.00003 0.00374611
1266 11.2383 8.85945 1.51774 0 0 1.00003 0.00346764
508 10.3996 10.4426 0.71959 0 0 1.00003 0.00366199
1345 10.5448 9.69493 1.50744 0 0 1.00003 0.00361199
426 11.0675 8.99281 0.0326608 0 0 1.00003 0.00344511
507 11.1648 9.79662 0.713263 0 0 1.00003 0.00353958
1346 11.3394 10.3203 1.72775 0 0 1.00003 0.00363811
432 11.9657 8.96897 0.773301 0 0 1.00003 0.00338682
1349 11.9969 9.73226 1.42313 0 0 1.00003 0.00350192
511 12.7103 9.9098 0.733915 0 0 1.00003 0.00342872
1353 13.1878 9.73786 1.70353 0 0 1.00003 0.00342589
436 13.5148 9.04879 0.82447 0 0 1.00003 0.00327019
1274 14.2058 8.97701 1.64016 0 0 1.00003 0.00324935
440 14.9469 9.25083 0.808194 0 0 1.00003 0.00317346
515 14.088 9.81027 0.896159 0 0 1.00003 0.00330729
517 14.8049 10.2018 0.23801 0 0 1.00003 0.00326952
444 16.354 9.19445 1.15898 0 0 1.00003 0.00307885
519 15.6385 9.94251 1.06224 0 0 1.00003 0.00320415
521 16.1774 10.2104 0.250427 0 0 1.00003 0.00316422
438 15.7462 9.25732 0.139163 0 0 1.00003 0.00309687
442 16.9364 9.08799 0.274693 0 0 1.00004 0.00300059
523 16.981 9.99235 0.992296 0 0 1.00004 0.0031123
448 17.5369 9.06856 1.13709 0 0 1.00004 0.00299216
525 17.6339 10.0331 0.200938 0 0 1.00004 0.00305525
527 18.2431 9.8573 1.07794 0 0 1.00004 0.00303638
446 18.1983 9.10314 0.12808 0 0 1.00004 0.00293529
452 18.7435 8.89515 0.950174 0 0 1.00004 0.00291491
529 19.0624 9.72358 0.307696 0 0 1.00004 0.00296993
531 19.9802 9.85601 0.859966 0 0 1.00005 0.0029843
532 19.2103 10.4455 1.14324 0 0 1.00004 0.00306653
1369 19.1213 9.57046 1.70366 0 0 1.00004 0.00301915
450 19.6786 8.92879 0.215268 0 0 1.00005 0.00287885
456 20.2968 8.90347 1.03259 0 0 1.00005 0.00289377
533 20.4994 9.73354 0.0695562 0 0 1.00005 0.0029522
535 21.462 9.73901 0.753151 0 0 1.00005 0.00297926
1373 20.7422 9.61065 1.63261 0 0 1.00005 0.00300389
454 21.2696 8.99452 0.192535 0 0 1.00005 0.00288958
1374 21.636 10.0382 1.7224 0 0 1.00005 0.00306876
536 20.9363 10.5694 0.797682 0 0 1.00005 0.00305082
460 22.1418 8.94043 0.948188 0 0 1.00006 0.00292696
540 22.6996 10.4306 0.807947 0 0 1.00006 0.00308803
1377 22.5118 9.70162 1.48 0 0 1.00006 0.00304619
537 22.5145 9.70873 0.218645 0 0 1.00006 0.00299781
539 23.4234 9.5972 0.787699 0 0 1.00006 0.00304693
1378 23.6742 10.4133 1.38035 0 0 1.00006 0.00317161
464 24.0389 8.82338 0.931507 0 0 1.00006 0.00301001