ITEM: TIMESTEP
29500
ITEM: NUMBER OF ATOMS
32000
ITEM: BOX BOUNDS pp pp pp
0.0000000000000000e+00 3.1748021039364001e+01
0.0000000000000000e+00 3.1748021039364001e+01
0.0000000000000000e+00 3.1748021039364001e+01
ITEM: ATOMS id x y z c_phase c_nbond c_rho vx
4 0.373654 1.09567 0.472934 0 0 1.00004 0.0017327
83 1.23177 1.66629 0.785686 0 0 1.00003 0.00177745
842 0.979664 0.790047 1.40789 0 0 1.00003 0.00176331
921 0.270359 1.59568 1.38254 0 0 1.00004 0.00176276
3 0.987278 0.071967 0.625756 0 0 1.00003 0.00173877
841 0.0984073 0.268588 1.25694 0 0 1.00004 0.0017247
8 1.9706 0.826272 1.01486 0 0 1.00003 0.00176874
85 2.06403 1.4916 0.212678 0 0 1.00003 0.00177496
925 2.10249 1.66175 1.75606 0 0 1.00003 0.00181593
6 2.76798 0.745994 0.204588 0 0 1.00003 0.00175558
7 2.83468 0.0601101 1.04149 0 0 1.00003 0.00176014
87 2.89923 1.54835 0.880054 0 0 1.00003 0.0017834
846 2.93494 0.827801 1.74372 0 0 1.00003 0.0017891
12 3.67063 0.931106 0.970274 0 0 1.00003 0.00175621
849 3.73536 0.087521 1.72172 0 0 1.00003 0.0017663
929 3.8542 1.71552 1.72659 0 0 1.00003 0.0017985
10 4.34535 0.864046 0.32252 0 0 1.00003 0.00172473
850 4.5644 0.951319 1.65072 0 0 1.00003 0.00174929
9 3.70859 0.103983 0.17829 0 0 1.00003 0.00173375
93 5.14172 1.61191 0.390731 0 0 1.00003 0.00171462
16 5.19321 0.570643 1.16932 0 0 1.00003 0.00169949
14 5.85194 0.64911 0.323072 0 0 1.00002 0.00165143
95 6.08553 1.32901 0.960454 0 0 1.00002 0.00166275
854 5.99496 0.46347 1.72121 0 0 1.00002 0.00167237
933 5.24471 1.7303 1.45185 0 0 1.00003 0.00173616
97 6.75941 1.41312 0.222731 0 0 1.00002 0.00160999
20 6.89296 0.403255 0.88416 0 0 1.00002 0.00158853
937 6.87734 1.02629 1.71787 0 0 1.00002 0.00162525
99 7.53231 1.24328 0.96472 0 0 1.00002 0.00155836
941 8.2777 1.29091 1.63618 0 0 1.00002 0.001519
18 7.73743 0.664312 0.152823 0 0 1.00002 0.00151794
101 8.38549 1.40999 0.241559 0 0 1.00002 0.00148252
24 8.40176 0.417794 1.08458 0 0 1.00002 0.00147314
22 8.97598 0.516387 0.27181 0 0 1.00002 0.00141027
28 9.65664 0.340672 0.908886 0 0 1.00002 0.00135432
103 9.14111 1.3281 1.12172 0 0 1.00002 0.00142793
105 9.73702 1.3886 0.0974554 0 0 1.00002 0.00135886
32 11.263 0.219404 0.648846 0 0 1.00002 0.00119667
107 10.4441 1.06584 0.838888 0 0 1.00002 0.00129067
866 10.5966 0.203242 1.46985 0 0 1.00002 0.00127928
949 11.3461 1.02989 1.43964 0 0 1.00002 0.00121886
946 10.6572 1.7056 1.75307 0 0 1.00002 0.00131758
26 10.3244 0.372197 0.0806285 0 0 1.00002 0.00128214
36 12.8924 0.217506 0.648523 0 0 1.00002 0.00104767
111 12.0745 1.08819 0.520451 0 0 1.00002 0.00113169
870 12.1631 0.320566 1.32155 0 0 1.00002 0.00112821
953 12.7407 1.20883 1.39325 0 0 1.00002 0.00109264
40 14.3612 0.330241 0.785153 0 0 1.00002 0.000934022
115 13.5902 1.12111 0.855015 0 0 1.00002 0.00100641
117 14.038 1.571 0.163439 0 0 1.00002 0.000975153
874 13.6133 0.364834 1.65346 0 0 1.00002 0.00101291
957 14.3683 1.16163 1.49387 0 0 1.00002 0.000964088
119 14.8618 1.56278 0.670236 0 0 1.00002 0.00092358
38 15.0789 0.7139 0.0679334 0 0 1.00002 0.000884736
44 15.6816 0.767998 0.791979 0 0 1.00002 0.00085895
123 16.5185 1.54404 0.684967 0 0 1.00002 0.000840475
878 15.1216 0.466783 1.65149 0 0 1.00002 0.000907529
882 16.5139 0.710246 1.34686 0 0 1.00002 0.000834942
961 15.6052 1.49572 1.40084 0 0 1.00002 0.00089441
48 17.2269 0.729063 0.554592 0 0 1.00002 0.000800189
127 17.895 1.57801 0.755011 0 0 1.00003 0.000812561
886 17.887 0.741964 1.42416 0 0 1.00003 0.000807547
965 17.1904 1.74542 1.56417 0 0 1.00002 0.000847572
51 19.522 0.012593 0.660671 0 0 1.00003 0.000801457
52 18.7681 0.723124 0.684269 0 0 1.00003 0.000793269
131 19.5277 1.54204 0.83678 0 0 1.00003 0.000827442
889 19.004 0.153112 1.53861 0 0 1.00003 0.000808588
890 19.5832 0.959805 1.68112 0 0 1.00003 0.000835049
969 18.6404 1.50095 1.49462 0 0 1.00003 0.000826401
55 21.1142 0.34496 1.05785 0 0 1.00003 0.00087309
56 20.2465 0.769227 0.96941 0 0 1.00003 0.000836176
135 21.1223 1.63133 0.946372 0 0 1.00003 0.000897745
54 21.2017 0.757192 0.21484 0 0 1.00003 0.000872727
133 20.3462 1.49889 0.196904 0 0 1.00003 0.000846897
57 22.0468 0.262764 0.532611 0 0 1.00004 0.000922888
59 22.8542 0.423332 1.38748 0 0 1.00004 0.00100012
60 22.1541 1.13459 1.31455 0 0 1.00004 0.000957573
137 22.0352 1.58085 0.526654 0 0 1.00004 0.000946088
58 22.9758 1.0519 0.446237 0 0 1.00004 0.00100295
63 24.341 0.374073 1.41976 0 0 1.00004 0.00113132
61 23.6475 0.349488 0.567895 0 0 1.00004 0.00105083
62 24.5407 1.1645 0.742582 0 0 1.00004 0.0011472
64 23.561 1.22693 1.38145 0 0 1.00004 0.00107441
65 25.0777 0.311546 0.541721 0 0 1.00004 0.00118348
67 26.156 0.373528 1.15671 0 0 1.00004 0.00129732
68 25.2973 1.11009 1.45323 0 0 1.00004 0.00123563
147 26.084 1.71263 1.33628 0 0 1.00004 0.00132589
66 26.0381 0.922797 0.421636 0 0 1.00004 0.00128208
70 27.767 1.26795 0.381433 0 0 1.00004 0.00145342
71 27.8055 0.497982 0.865272 0 0 1.00004 0.00144846
72 26.9255 1.01542 1.24336 0 0 1.00004 0.00138427
69 26.9593 0.238364 0.229118 0 0 1.00004 0.00135897
913 28.5956 0.340787 1.39892 0 0 1.00004 0.00152668
76 28.8657 1.22017 0.726407 0 0 1.00004 0.00154893
914 29.6084 0.953392 1.55802 0 0 1.00004 0.00161916
993 28.7353 1.70845 1.49091 0 0 1.00004 0.00157153
917 30.0626 0.163675 1.44776 0 0 1.00004 0.00163714
75 29.4988 0.351432 0.612713 0 0 1.00004 0.00157992
79 30.9604 0.472714 0.479264 0 0 1.00004 0.00167167
80 30.3334 1.18937 0.768517 0 0 1.00004 0.00165398
918 31.1107 0.967932 1.38739 0 0 1.00004 0.00170623
82 1.37402 2.43795 0.121438 0 0 1.00003 0.00180744
84 0.39953 2.37863 0.807517 0 0 1.00004 0.00178657
163 1.5568 3.23191 0.945758 0 0 1.00003 0.0018683
922 1.40885 2.36679 1.5919 0 0 1.00003 0.00183446
1001 0.65739 3.03596 1.54938 0 0 1.00004 0.00185412
161 0.599099 3.10268 0.13033 0 0 1.00004 0.00182654
88 2.17746 2.42026 0.789144 0 0 1.00003 0.00182207
167 2.92109 3.29409 0.862339 0 0 1.00003 0.00187429
926 2.93717 2.25056 1.55021 0 0 1.00003 0.0018319
86 2.97846 2.39619 0.0551751 0 0 1.00003 0.00181037
1009 3.53141 3.43518 1.66359 0 0 1.00003 0.00190122
92 3.63539 2.57422 0.79127 0 0 1.00003 0.00181677
91 4.24682 1.84875 0.720498 0 0 1.00003 0.00176298
171 4.44823 3.3434 0.761278 0 0 1.00003 0.00184049
930 4.38942 2.6619 1.59481 0 0 1.00003 0.00182345
96 5.13764 2.59037 0.828966 0 0 1.00003 0.00176695
94 5.86277 2.47142 0.140416 0 0 1.00002 0.00171247
175 5.87423 3.23022 0.969395 0 0 1.00002 0.0017709
934 6.07159 2.22784 1.51269 0 0 1.00002 0.00171638
173 5.22179 3.35872 0.00484356 0 0 1.00003 0.00180222
1017 6.73323 3.10323 1.5731 0 0 1.00002 0.00172688
100 6.75064 2.21027 0.789466 0 0 1.00002 0.00165057
177 6.83949 2.9711 0.135105 0 0 1.00002 0.00167869
98 7.62036 2.25604 0.142185 0 0 1.00002 0.00158051
104 8.23993 2.23135 0.949581 0 0 1.00002 0.00153941
179 7.58161 3.10311 0.942513 0 0 1.00002 0.00164475
938 7.47659 2.09043 1.59221 0 0 1.00002 0.00161472
1021 8.34886 3.04077 1.67891 0 0 1.00002 0.00160158
181 8.42394 3.0088 0.0434068 0 0 1.00002 0.00155575
102 9.03439 2.1219 0.257377 0 0 1.00002 0.00145283
108 9.87856 2.05205 1.12255 0 0 1.00002 0.00138665
183 9.06094 3.01219 0.948446 0 0 1.00002 0.00151187
942 9.15939 2.25373 1.73471 0 0 1.00002 0.00148444
185 9.67896 2.94669 0.214831 0 0 1.00002 0.00143779
106 10.3708 2.14165 0.214967 0 0 1.00002 0.00132791
112 11.2212 1.85459 0.785325 0 0 1.00002 0.00124141
187 10.7059 2.84428 0.936805 0 0 1.00002 0.00134373
1029 11.5067 2.86934 1.60617 0 0 1.00002 0.0012917
116 12.6978 1.96248 0.606546 0 0 1.00002 0.00110506
191 11.9758 2.67734 0.753085 0 0 1.00002 0.0012087
950 11.9718 1.9447 1.48905 0 0 1.00002 0.00119139
1033 12.8778 3.05148 1.71464 0 0 1.00002 0.00117894
195 13.2119 3.05351 0.854528 0 0 1.00002 0.00112097
954 13.3933 2.01244 1.49854 0 0 1.00002 0.00106826
114 13.4239 2.3189 0.0590404 0 0 1.00002 0.00105418
120 14.0219 2.46561 0.933256 0 0 1.00002 0.00102414
1037 14.0393 3.41409 1.57397 0 0 1.00002 0.00109949
199 14.6962 3.45711 0.888373 0 0 1.00002 0.00103305
958 14.7807 2.31577 1.45299 0 0 1.00002 0.000976734
118 14.8287 2.52599 0.140073 0 0 1.00002 0.000959972
197 14.1589 3.24582 0.0399628 0 0 1.00002 0.00104759
124 15.6751 2.44817 0.701748 0 0 1.00002 0.000912765
203 16.2871 3.20615 0.673348 0 0 1.00002 0.000924811
962 16.2862 2.48202 1.53013 0 0 1.00002 0.000906477
1041 15.367 3.27134 1.51438 0 0 1.00002 0.000996542
201 15.5542 3.27114 0.0254091 0 0 1.00002 0.000958132
128 17.0397 2.35287 0.684591 0 0 1.00002 0.000855015
207 17.9229 2.92032 0.701797 0 0 1.00003 0.000868482
966 17.9962 2.42908 1.58144 0 0 1.00003 0.000864794
1045 17.0705 3.1135 1.49919 0 0 1.00002 0.000913434
132 18.8749 2.34585 1.00768 0 0 1.00003 0.000847918
211 19.6984 3.21379 1.26641 0 0 1.00003 0.000916353
209 18.8686 2.98119 0.192349 0 0 1.00003 0.000868385
130 19.5817 2.31984 0.103741 0 0 1.00003 0.000850088
973 20.3297 1.7663 1.71366 0 0 1.00003 0.000883665
134 21.1828 2.39222 0.451236 0 0 1.00003 0.000922293
136 20.2011 2.44225 1.10186 0 0 1.00003 0.000888636
215 21.3455 3.26143 1.37069 0 0 1.00004 0.000996493
213 20.4305 2.96926 0.32912 0 0 1.00003 0.000912473
139 22.9422 2.03481 1.49196 0 0 1.00004 0.0010496
138 23.0404 2.56872 0.722871 0 0 1.00004 0.00106463
140 22.139 2.46606 1.22222 0 0 1.00004 0.00100197
217 22.0339 3.16354 0.59234 0 0 1.00004 0.00101881
16179 22.7524 3.3561 0.0666826 0 0 1.00004 0.00107867
141 23.8288 1.78347 0.614214 0 0 1.00004 0.00109905
143 24.5383 1.95779 1.58013 0 0 1.00004 0.00119399
142 24.4539 2.64467 0.761982 0 0 1.00004 0.00119607
144 23.7831 2.85672 1.51159 0 0 1.00004 0.00116516
223 24.6003 3.4629 1.53033 0 0 1.00004 0.00127926
16108 25.0857 2.79943 0.0136485 0 0 1.00004 0.00125917
149 26.7179 1.76952 0.505237 0 0 1.00004 0.0013733
145 25.2612 1.82861 0.507223 0 0 1.00004 0.00123381
146 25.9473 2.5741 0.693359 0 0 1.00004 0.00133594
148 25.2993 2.52403 1.49836 0 0 1.00004 0.00128895
227 25.8847 3.44983 1.49084 0 0 1.00004 0.00140426
152 26.7102 2.53131 1.50642 0 0 1.00004 0.0014292
229 26.349 3.45802 0.58497 0 0 1.00004 0.0014278
151 27.6975 1.96122 1.21672 0 0 1.00004 0.0014866
150 27.2776 2.65869 0.628909 0 0 1.00004 0.00146846
231 27.4109 3.313 1.39494 0 0 1.00004 0.00154016
233 28.1975 3.19096 0.330698 0 0 1.00004 0.00157836
153 28.4642 2.06934 0.340256 0 0 1.00004 0.00154193
156 28.4715 2.72569 1.18607 0 0 1.00004 0.00159064
155 29.6752 2.01518 0.878394 0 0 1.00004 0.00164044
154 29.4259 2.65409 0.283068 0 0 1.00004 0.00164578
235 29.4994 3.23042 1.17316 0 0 1.00004 0.00170267
997 30.2107 1.79358 1.69488 0 0 1.00004 0.00169086
159 31.1656 1.96768 0.919964 0 0 1.00004 0.00173017
160 30.4326 2.69302 0.995342 0 0 1.00004 0.00172661
239 31.2951 3.32274 0.972409 0 0 1.00004 0.0018117
998 31.25 2.6793 1.7218 0 0 1.00004 0.00179402
237 30.3773 3.22277 0.150845 0 0 1.00004 0.00174349
157 30.6494 1.89466 0.0353772 0 0 1.00004 0.00168848
158 31.4004 2.64692 0.076275 0 0 1.00004 0.00176378
164 0.575059 3.77567 0.919875 0 0 1.00004 0.00188276
241 0.432799 4.59656 0.470056 0 0 1.00004 0.00193797
243 1.42457 4.66737 0.989835 0 0 1.00003 0.00197959
244 0.400072 5.25714 1.27227 0 0 1.00004 0.00201833
162 1.32392 3.85792 0.073811 0 0 1.00003 0.00189653
168 2.13701 4.0492 0.854091 0 0 1.00003 0.00193189
247 2.83015 4.87652 1.13345 0 0 1.00003 0.00201159
166 2.92862 4.16048 0.202681 0 0 1.00003 0.00192998
245 2.19162 4.96939 0.285424 0 0 1.00003 0.00200328
249 3.692 4.88392 0.166511 0 0 1.00003 0.00198075
172 3.75671 4.10212 0.896394 0 0 1.00003 0.00192137
251 4.33259 4.91239 1.16285 0 0 1.00003 0.00198579
170 4.51236 4.20825 0.147405 0 0 1.00003 0.00189746
176 5.16181 4.04286 1.18455 0 0 1.00002 0.00187609
253 5.26413 4.78283 0.338716 0 0 1.00002 0.00191824
174 5.99159 3.97859 0.194158 0 0 1.00002 0.00180775
255 5.93821 4.7735 1.04923 0 0 1.00002 0.00189616
180 6.7128 3.81517 0.794188 0 0 1.00002 0.00175705
1097 6.88772 4.57193 1.67795 0 0 1.00002 0.00184132
260 6.89995 5.19582 0.895369 0 0 1.00002 0.00187154
259 7.60322 4.51571 0.564596 0 0 1.00002 0.00174609
1018 7.59625 3.91772 1.52825 0 0 1.00002 0.00172463
184 8.36834 3.93589 0.720795 0 0 1.00002 0.00163631
1101 8.38399 4.67026 1.5168 0 0 1.00002 0.00172503
188 10.0091 3.63041 0.90525 0 0 1.00002 0.00146492
263 9.22689 4.62602 0.84076 0 0 1.00002 0.0016221
265 9.98276 4.56981 0.132629 0 0 1.00002 0.00153329
1022 9.21471 3.81807 1.53085 0 0 1.00002 0.00157626
1105 10.0019 4.41072 1.69334 0 0 1.00002 0.00156098
182 9.12841 3.91763 0.0645303 0 0 1.00002 0.00155906
192 11.477 3.68987 0.803379 0 0 1.00002 0.00132405
267 10.6933 4.71819 0.928051 0 0 1.00002 0.00149168
269 11.4657 4.75066 0.23219 0 0 1.00001 0.0014057
1026 10.7985 3.62117 1.62162 0 0 1.00002 0.00141198
1109 11.4472 4.43941 1.73721 0 0 1.00001 0.00142371
186 10.6808 3.89522 0.1788 0 0 1.00002 0.00140799
196 12.5488 3.62805 0.828755 0 0 1.00002 0.00121927
271 12.2469 4.60192 1.01985 0 0 1.00002 0.00133272
1113 12.8053 5.04216 1.71997 0 0 1.00001 0.00135182
275 13.2619 4.73339 0.814892 0 0 1.00002 0.00124517
273 12.6822 4.66539 0.0632216 0 0 1.00002 0.00128126
200 14.0067 4.15726 0.70788 0 0 1.00002 0.00113161
1034 13.5148 4.25902 1.61633 0 0 1.00002 0.00121094
1117 14.2244 5.15263 1.54591 0 0 1.00002 0.00123043
279 14.9499 5.03991 0.822256 0 0 1.00002 0.00114049
1038 14.9732 4.43672 1.6097 0 0 1.00002 0.00111365
277 14.1573 4.93479 0.0701618 0 0 1.00002 0.00117785
198 14.9574 4.21262 0.103496 0 0 1.00002 0.00105974
204 15.6568 4.08022 0.930077 0 0 1.00002 0.00101951
281 15.8672 4.78636 0.1895 0 0 1.00002 0.00105323
283 16.5826 4.5862 0.904685 0 0 1.00002 0.00101617
1042 16.309 3.96738 1.69585 0 0 1.00002 0.0010058
1121 15.815 5.06408 1.65434 0 0 1.00002 0.00112107
208 17.2521 3.82876 0.811675 0 0 1.00002 0.000936777
287 18.0744 4.4733 1.09376 0 0 1.00003 0.000979344
1046 17.9383 3.62863 1.65229 0 0 1.00003 0.000937097
285 17.4366 4.57036 0.0187828 0 0 1.00002 0.000978703
206 18.1202 3.8396 0.0634526 0 0 1.00003 0.00091716
212 18.8644 3.68797 0.948277 0 0 1.00003 0.000921062
289 18.8202 4.58675 0.359417 0 0 1.00003 0.000975489
291 19.6953 4.64003 1.08 0 0 1.00003 0.00101087
292 18.7869 5.25044 1.19178 0 0 1.00003 0.00104855
210 19.598 3.73901 0.230004 0 0 1.00003 0.000928088
216 20.4551 3.78568 1.22046 0 0 1.00003 0.000978803
295 20.9195 4.67101 1.37248 0 0 1.00003 0.00107394
297 21.6394 4.89836 0.792332 0 0 1.00004 0.00111873
214 21.1189 3.89252 0.506122 0 0 1.00003 0.00100437
293 20.1596 4.74631 0.343476 0 0 1.00003 0.00102096
219 22.9014 3.57922 1.39472 0 0 1.00004 0.0011296
220 21.9969 4.08301 1.28986 0 0 1.00004 0.00109233
299 22.5584 5.1077 1.25174 0 0 1.00004 0.00121642
218 22.6937 4.29228 0.508115 0 0 1.00004 0.00114313
221 23.6725 3.58636 0.766098 0 0 1.00004 0.0011802
222 24.4639 4.26687 0.614425 0 0 1.00004 0.00130032
224 23.5742 4.48529 1.31151 0 0 1.00004 0.0012532
305 25.0144 5.1835 0.553103 0 0 1.00004 0.00143192
301 23.6625 5.00264 0.520353 0 0 1.00004 0.00128395
303 24.5077 5.22016 1.403 0 0 1.00004 0.0014091
228 25.1693 4.43195 1.58595 0 0 1.00004 0.00141257
225 25.2073 3.6191 0.780725 0 0 1.00004 0.0013292
307 25.8815 5.07237 1.31985 0 0 1.00004 0.00152901
232 26.554 4.23317 1.34938 0 0 1.00004 0.00152456
309 26.709 4.91489 0.6289 0 0 1.00004 0.0015777
226 25.6989 4.34542 0.387749 0 0 1.00004 0.00142471
311 27.5603 4.81414 1.37883 0 0 1.00004 0.0016714
236 28.1891 3.92967 1.0907 0 0 1.00004 0.00164337
230 27.2707 3.99062 0.569079 0 0 1.00004 0.0015535
313 28.5225 4.69179 0.692725 0 0 1.00004 0.00172633
234 29.1749 3.74244 0.471133 0 0 1.00004 0.00169829
315 29.3457 4.48134 1.30712 0 0 1.00004 0.00179081
314 29.6651 5.27171 0.802035 0 0 1.00004 0.00187183
240 30.2612 4.02764 1.0206 0 0 1.00004 0.00180789
238 31.3044 3.96928 0.357053 0 0 1.00004 0.00185
317 30.4863 4.66308 0.470907 0 0 1.00004 0.00186514
319 31.2689 4.58792 1.38394 0 0 1.00004 0.00192432
242 1.22416 5.52442 0.460863 0 0 1.00004 0.00204617
323 1.12959 6.20174 1.27633 0 0 1.00004 0.0021363
324 0.591241 6.92027 1.49443 0 0 1.00004 0.00221078
322 1.3159 6.93638 0.567929 0 0 1.00004 0.00220008
321 0.302438 5.98983 0.448644 0 0 1.00004 0.0020668
248 1.85415 5.51562 1.3769 0 0 1.00003 0.00208214
328 2.04936 7.03463 1.25009 0 0 1.00003 0.00224212
325 2.20601 6.21086 0.511383 0 0 1.00003 0.00212953
327 2.59993 6.17874 1.41987 0 0 1.00003 0.00215459
246 2.98794 5.62223 0.276794 0 0 1.00003 0.00206382
252 3.42574 5.65271 1.30478 0 0 1.00003 0.00208746
332 3.5808 6.99952 1.1571 0 0 1.00003 0.00222662
329 3.70927 6.30369 0.495698 0 0 1.00003 0.0021258
250 4.47762 5.50062 0.331617 0 0 1.00003 0.00201908
331 4.42879 6.13287 1.24751 0 0 1.00003 0.00211075
330 4.31885 7.05369 0.233723 0 0 1.00003 0.00219146
336 5.08112 6.86256 1.18253 0 0 1.00002 0.00216471
333 5.11736 6.28276 0.335647 0 0 1.00002 0.00207639
256 5.21408 5.48023 1.32515 0 0 1.00002 0.0020131
254 6.02499 5.46239 0.303894 0 0 1.00002 0.00194253
335 5.95793 6.28707 0.981158 0 0 1.00002 0.00205065
337 6.64057 6.11998 0.154456 0 0 1.00002 0.00197149
1177 6.72099 6.05258 1.63455 0 0 1.00002 0.0020046
340 6.70654 6.93782 1.01918 0 0 1.00002 0.00207845
339 7.55105 6.21893 0.776801 0 0 1.00002 0.00192895
1098 7.61502 5.47771 1.53028 0 0 1.00002 0.0018714
344 8.24199 6.93215 0.748625 0 0 1.00002 0.00195133
1178 7.53688 6.92819 1.64182 0 0 1.00002 0.00205048
258 7.53925 5.41924 0.0442999 0 0 1.00002 0.00183268
264 8.39879 5.38095 0.716488 0 0 1.00002 0.00176762
1181 8.4414 6.18761 1.53674 0 0 1.00002 0.00188287
268 9.90965 5.39181 0.815476 0 0 1.00002 0.00163106
343 9.06868 6.26153 0.758621 0 0 1.00001 0.00180357
1102 9.21938 5.39896 1.62998 0 0 1.00002 0.00173142
1185 9.90038 6.26094 1.5146 0 0 1.00001 0.00175535
1182 9.28456 7.03831 1.50777 0 0 1.00001 0.00190587
345 9.9147 6.30973 0.100756 0 0 1.00001 0.00171766
262 9.16573 5.53849 0.0220962 0 0 1.00002 0.00170576
272 11.4834 5.33918 1.01728 0 0 1.00001 0.00147844
347 10.7171 6.09605 0.9837 0 0 1.00001 0.00163149
349 11.4235 6.43834 0.0807999 0 0 1.00001 0.0015825
346 10.665 7.02474 0.154172 0 0 1.00001 0.0017238
1186 10.6228 7.01098 1.54172 0 0 1.00001 0.00177669
266 10.6021 5.64525 0.00245811 0 0 1.00002 0.00157837
270 12.0733 5.68274 0.189619 0 0 1.00001 0.00143688
276 12.7393 5.86835 0.882236 0 0 1.00001 0.00140752
351 11.8698 6.28052 1.07978 0 0 1.00001 0.00154112
274 13.3593 5.58761 0.0452674 0 0 1.00002 0.00130594
1114 13.3805 5.9206 1.59416 0 0 1.00001 0.00138297
355 13.412 6.63077 0.827827 0 0 1.00001 0.00142393
280 14.0933 5.75875 0.788777 0 0 1.00002 0.00127281
1197 14.3646 6.6933 1.43833 0 0 1.00001 0.00137749
357 14.1668 6.42824 0.0421939 0 0 1.00002 0.00132347
278 15.0311 5.66547 0.0394868 0 0 1.00002 0.00118176
359 15.0681 6.48162 0.817971 0 0 1.00002 0.00127497
284 15.8355 5.75345 0.961396 0 0 1.00002 0.00115738
363 16.5004 6.4619 1.15098 0 0 1.00002 0.0012033
1118 15.129 5.90238 1.71736 0 0 1.00002 0.00125017
282 16.6154 5.42488 0.277115 0 0 1.00002 0.00107604
361 15.6898 6.36171 0.0447316 0 0 1.00002 0.00120891
286 17.8245 5.29446 0.540058 0 0 1.00003 0.00103755
288 17.1071 5.42335 1.24937 0 0 1.00002 0.00108306
365 17.0711 6.27584 0.411979 0 0 1.00002 0.00114267
367 17.6725 6.23617 1.37957 0 0 1.00002 0.00115477
372 18.2952 7.03227 1.13311 0 0 1.00003 0.00121998
369 18.3845 6.20812 0.610047 0 0 1.00003 0.00111914
290 19.4496 5.71953 0.613906 0 0 1.00003 0.00108578
371 19.3529 6.51802 1.33043 0 0 1.00003 0.00118396
373 20.0356 6.70016 0.60138 0 0 1.00003 0.00119735
294 20.7992 5.72062 0.640068 0 0 1.00003 0.00113782
296 20.2202 5.56239 1.376 0 0 1.00003 0.00111892
375 20.8373 6.55131 1.27972 0 0 1.00004 0.00124137
377 21.737 6.59745 0.654114 0 0 1.00004 0.00127951
300 21.7322 5.81074 1.35296 0 0 1.00004 0.00122513
16260 21.7622 5.67261 0.053008 0 0 1.00004 0.00118516
298 22.7717 5.76445 0.650477 0 0 1.00004 0.00127748
379 22.7447 6.6149 1.1762 0 0 1.00004 0.00137702
381 23.4829 6.69481 0.262759 0 0 1.00004 0.0014243
304 23.6121 5.81296 1.2617 0 0 1.00004 0.0013748
383 24.4902 6.48743 1.13471 0 0 1.00004 0.00152426
302 24.2905 5.92762 0.411546 0 0 1.00004 0.00142662
306 25.8845 5.79118 0.67735 0 0 1.00005 0.00157887
308 25.2974 5.95977 1.63009 0 0 1.00005 0.00157152
385 25.3536 6.65419 0.479565 0 0 1.00005 0.00160799
387 26.0571 6.52216 1.37279 0 0 1.00005 0.00169718
312 26.9211 5.78089 1.44045 0 0 1.00005 0.00170729
310 27.7447 5.48988 0.702241 0 0 1.00004 0.00173225
389 26.987 6.29963 0.628188 0 0 1.00005 0.00173948
391 27.9661 6.40181 1.33964 0 0 1.00005 0.00186639
390 27.9885 6.94391 0.512235 0 0 1.00005 0.0019003
392 27.0489 7.04271 1.30532 0 0 1.00005 0.00185003
316 28.6364 5.47237 1.45065 0 0 1.00004 0.00183421
395 29.7369 6.14882 1.30161 0 0 1.00004 0.00198272
394 29.8934 6.8814 0.500558 0 0 1.00004 0.0020487
393 28.752 6.15943 0.634078 0 0 1.00004 0.001887
16355 29.6658 6.09928 0.0733441 0 0 1.00004 0.00194354
16276 28.7449 5.34933 0.0470674 0 0 1.00004 0.00179905
396 28.9539 7.05107 1.20546 0 0 1.00004 0.00201797
318 31.2693 5.33971 0.588304 0 0 1.00004 0.00197157
320 30.5193 5.42278 1.44039 0 0 1.00004 0.00196396
397 30.7007 6.15626 0.634941 0 0 1.00004 0.0020244
399 31.537 6.13012 1.37279 0 0 1.00004 0.00208753
398 31.5429 6.92713 0.60386 0 0 1.00004 0.00215018
401 0.618628 7.63066 0.651122 0 0 1.00004 0.00226054
402 1.2226 8.46981 0.604463 0 0 1.00004 0.00237056
403 1.47354 7.85081 1.49235 0 0 1.00004 0.00234055
404 0.731756 8.54239 1.45913 0 0 1.00004 0.00240022
478 0.0532431 8.59191 0.388601 0 0 1.00004 0.00234341
405 1.95582 7.77141 0.382423 0 0 1.00003 0.00229888
408 2.1136 8.63027 1.4674 0 0 1.00003 0.00243744
326 2.82185 7.15845 0.473148 0 0 1.00003 0.00223373
406 2.58123 8.63514 0.402392 0 0 1.00003 0.00240027
407 2.75897 7.82994 1.29094 0 0 1.00003 0.00233661
412 3.3969 8.54927 0.956469 0 0 1.00003 0.00240115
409 3.58743 7.79295 0.33454 0 0 1.00003 0.00229327
410 4.17445 8.49778 0.0803565 0 0 1.00003 0.0023598
411 4.32165 7.68804 1.24703 0 0 1.00003 0.00229027
413 5.00115 7.69642 0.242922 0 0 1.00002 0.00223823
416 5.03961 8.32045 0.956542 0 0 1.00002 0.00232893
334 5.83748 7.10189 0.157484 0 0 1.00002 0.00213148
414 6.18443 8.41364 0.182894 0 0 1.00002 0.00226437
415 5.79732 7.63807 1.04463 0 0 1.00002 0.00221571
420 6.69751 8.28314 1.07583 0 0 1.00002 0.00223999
417 6.77 7.617 0.173103 0 0 1.00002 0.00213411
419 7.55613 7.83699 0.772497 0 0 1.00002 0.00211593
1258 7.55801 8.24893 1.74589 0 0 1.00002 0.00221627
1261 8.30214 7.56905 1.6055 0 0 1.00001 0.00206432
421 8.23867 7.68459 0.0281608 0 0 1.00002 0.00202938
424 8.5208 8.40049 0.903435 0 0 1.00001 0.00211088
348 10.0073 7.29675 0.753741 0 0 1.00001 0.001835
423 9.12361 7.69723 0.6867 0 0 1.00001 0.00196306
428 9.93364 8.70038 0.724892 0 0 1.00001 0.00200986
1262 9.31664 8.78201 1.50168 0 0 1.00001 0.00212145
1265 9.85671 7.97003 1.64778 0 0 1.00001 0.00197827
352 11.4319 7.21764 0.834523 0 0 1.00001 0.00168643
427 10.7381 8.02059 0.873371 0 0 1.00001 0.00185379
1266 10.7667 8.79912 1.48551 0 0 1.00001 0.00198182
1269 11.5385 7.89574 1.65071 0 0 1.00001 0.00180151
429 11.3685 8.19636 0.0486532 0 0 1.00001 0.00179044
356 12.7921 7.35493 0.588476 0 0 1.00001 0.00155855
431 12.2924 8.29797 0.619167 0 0 1.00001 0.00172122
1190 12.184 7.23139 1.42306 0 0 1.00001 0.00164035
1270 12.2162 8.75915 1.54685 0 0 1.00001 0.00183362
1273 12.9527 8.07034 1.52194 0 0 1.00001 0.00167282
350 12.0051 7.45538 0.00104374 0 0 1.00001 0.00163848
360 14.3705 7.3971 0.613054 0 0 1.00001 0.00142196
435 13.6877 8.1521 0.489024 0 0 1.00001 0.00156424
1194 13.5381 7.39464 1.38358 0 0 1.00001 0.00152632
1277 14.3166 8.22105 1.38826 0 0 1.00001 0.00155629
439 15.125 8.32582 0.880985 0 0 1.00001 0.00147865
362 16.4527 7.19277 0.285572 0 0 1.00002 0.00125857
364 15.6605 7.33108 0.924851 0 0 1.00002 0.00133092
443 16.3004 8.17257 1.11977 0 0 1.00002 0.00139905
1198 15.1814 7.55569 1.66084 0 0 1.00001 0.00143028
441 15.8951 8.32637 0.157308 0 0 1.00002 0.0014097
368 17.0002 7.35836 1.11966 0 0 1.00002 0.00127886
445 17.0907 8.10547 0.334981 0 0 1.00002 0.00133265
447 17.7431 8.01256 1.0302 0 0 1.00002 0.00132667
366 17.8361 7.15631 0.220161 0 0 1.00002 0.00121278
370 19.0432 7.30079 0.631375 0 0 1.00003 0.00123404
451 18.9748 8.11705 1.16962 0 0 1.00003 0.00134137
376 19.928 7.60408 1.30014 0 0 1.00003 0.00131342
453 19.8602 8.08889 0.355958 0 0 1.00003 0.00132998
449 18.4907 8.16364 0.179227 0 0 1.00003 0.00131272
374 20.7679 7.40031 0.653985 0 0 1.00004 0.00130272
455 20.7345 8.37278 1.01036 0 0 1.00004 0.00141676
380 21.6413 7.59776 1.11741 0 0 1.00004 0.00139292
457 21.7186 8.27031 0.254398 0 0 1.00004 0.00144436
459 22.7275 8.09887 0.985173 0 0 1.00004 0.00152605
1218 22.5444 7.41711 1.70913 0 0 1.00004 0.0014749
378 22.4527 7.40667 0.375297 0 0 1.00004 0.00141046
458 22.9063 8.8045 0.196092 0 0 1.00004 0.00159586
1298 22.5556 8.81531 1.55124 0 0 1.00004 0.0016237
384 23.5983 7.24228 1.0292 0 0 1.00004 0.0015125
461 23.6493 7.99615 0.366563 0 0 1.00004 0.00158093
463 24.5409 8.00883 0.964633 0 0 1.00005 0.0016866
1302 24.4657 8.63921 1.64022 0 0 1.00005 0.00179171
382 24.511 7.23999 0.264957 0 0 1.00005 0.00158044
462 24.5169 8.73394 0.200287 0 0 1.00005 0.00174433
1301 23.5376 7.96589 1.75291 0 0 1.00005 0.00162903
388 25.3302 7.30926 1.21477 0 0 1.00005 0.00170155
467 26.2753 7.9286 0.962635 0 0 1.00005 0.0018563
1306 26.2924 8.54366 1.70286 0 0 1.00005 0.00197431
386 26.3206 7.19275 0.361338 0 0 1.00005 0.00176139
465 25.4492 8.0369 0.302063 0 0 1.00005 0.00176467
466 26.534 8.50743 0.0886636 0 0 1.00005 0.00192787
468 25.527 8.77014 0.972878 0 0 1.00005 0.00187632
470 28.2757 8.4396 0.405343 0 0 1.00005 0.00209224
471 28.1035 7.76499 1.18263 0 0 1.00005 0.00202573
472 27.2748 8.58291 0.996931 0 0 1.00005 0.00203434
469 27.2697 7.7108 0.421044 0 0 1.00005 0.00191445
1310 28.1118 8.62452 1.74949 0 0 1.00005 0.00216198
474 29.9429 8.32771 0.532166 0 0 1.00005 0.00221489
475 29.8312 7.63395 1.25893 0 0 1.00004 0.00215113
476 29.1113 8.49822 1.16092 0 0 1.00005 0.0021936
473 29.0155 7.67283 0.40646 0 0 1.00005 0.00206907
400 30.6616 7.05445 1.16755 0 0 1.00004 0.00213554
479 31.6049 7.79219 1.28756 0 0 1.00004 0.00227289
480 30.7961 8.45414 1.17387 0 0 1.00004 0.00230302
477 30.9848 7.8436 0.379678 0 0 1.00004 0.00222007
482 1.53747 10.2798 0.266092 0 0 1.00004 0.00256988
483 1.42149 9.35794 1.19711 0 0 1.00004 0.0024981
484 0.667332 9.92473 0.902243 0 0 1.00004 0.00252773
481 0.761169 9.32991 0.125124 0 0 1.00004 0.00244939
1322 1.23832 10.1224 1.74976 0 0 1.00004 0.00261563
485 2.14685 9.46483 0.443678 0 0 1.00003 0.00249433
488 2.24337 10.3618 0.976347 0 0 1.00003 0.00260802
486 2.99067 10.2936 0.0763788 0 0 1.00003 0.0025781
487 2.76975 9.46065 1.22364 0 0 1.00003 0.00252266
1326 3.18083 10.2535 1.68589 0 0 1.00003 0.0026384
489 3.45807 9.38528 0.0969128 0 0 1.00003 0.00247575
1329 3.60993 9.27447 1.69104 0 0 1.00003 0.00252156
492 3.77296 10.0725 0.758163 0 0 1.00003 0.00255957
491 4.3038 9.14875 0.873771 0 0 1.00003 0.00244822
493 4.92868 9.24237 0.00551466 0 0 1.00002 0.00242046
496 4.97435 10.0291 0.582206 0 0 1.00002 0.00251724
1330 4.51564 10.0084 1.63036 0 0 1.00003 0.00258222
1333 5.04035 9.11384 1.67345 0 0 1.00002 0.00246432
495 5.66839 9.0149 0.676529 0 0 1.00002 0.00237369
500 6.56936 9.86226 0.535304 0 0 1.00002 0.00241733
1334 5.68897 9.89237 1.21288 0 0 1.00002 0.00249635
1337 6.48291 9.13351 1.29799 0 0 1.00002 0.00237042
1417 6.59349 10.5837 1.23413 0 0 1.00002 0.00252612
499 7.45461 8.9543 0.740475 0 0 1.00002 0.00225759
501 8.3607 9.12776 0.0904427 0 0 1.00001 0.00219189
504 8.25004 10.0076 0.600475 0 0 1.00001 0.00231327
1338 7.4794 9.81593 1.23839 0 0 1.00002 0.00238176
1341 8.32011 9.24631 1.44685 0 0 1.00001 0.0022626
503 9.1863 9.53127 0.755972 0 0 1.00001 0.00218346
508 9.8821 10.4095 0.69525 0 0 1.00001 0.00221666
1342 9.02559 10.331 1.46614 0 0 1.00001 0.00233368
1345 10.0501 9.66484 1.47269 0 0 1.00001 0.00215926
432 11.5179 8.92453 0.760539 0 0 1.00001 0.00187904
426 10.5884 8.95974 0.0391934 0 0 1.00001 0.00196168
507 10.6645 9.75909 0.688654 0 0 1.00001 0.00206502
1346 10.8419 10.2606 1.69998 0 0 1.00001 0.00217222
1349 11.4926 9.70365 1.37533 0 0 1.00001 0.00201249
436 13.0952 9.01704 0.811359 0 0 1.00001 0.00173334
511 12.2469 9.87796 0.71716 0 0 1.00001 0.00191683
516 12.9556 10.5404 0.992072 0 0 1.00001 0.0019313
1353 12.6945 9.68928 1.66874 0 0 1.00001 0.00191261
1274 13.7774 8.91344 1.61151 0 0 1.00001 0.00170627
440 14.5347 9.23267 0.782668 0 0 1.00001 0.00162578
515 13.6386 9.75119 0.86809 0 0 1.00001 0.0017693
1354 13.6269 10.4797 1.75955 0 0 1.00001 0.00192206
517 14.3601 10.1866 0.228618 0 0 1.00001 0.00172996
444 15.9519 9.17576 1.14885 0 0 1.00002 0.00153575
519 15.2074 9.89794 1.03623 0 0 1.00001 0.00165995
521 15.7551 10.198 0.254747 0 0 1.00001 0.00162335
523 16.5664 9.96914 0.973821 0 0 1.00002 0.00157916
442 16.5496 9.04904 0.267585 0 0 1.00002 0.00145576
438 15.3481 9.23183 0.114493 0 0 1.00001 0.00154489
452 18.3525 8.87963 0.940504 0 0 1.00003 0.00141114
448 17.1423 9.06407 1.13132 0 0 1.00002 0.00146531
525 17.216 10.023 0.206183 0 0 1.00002 0.00153148
527 17.8391 9.85472 1.07032 0 0 1.00002 0.00152918
446 17.8113 9.09616 0.121426 0 0 1.00002 0.00141777
456 19.9029 8.91401 1.04255 0 0 1.00003 0.0014429
529 18.6637 9.7121 0.301099 0 0 1.00003 0.00147836
531 19.5873 9.86192 0.846356 0 0 1.00003 0.00152531
532 18.804 10.4344 1.13674 0 0 1.00003 0.00158827
1369 18.7273 9.56276 1.6961 0 0 1.00003 0.00153801
450 19.3023 8.92802 0.210238 0 0 1.00003 0.00140185
533 20.0869 9.74358 0.0698256 0 0 1.00003 0.00150874
535 21.052 9.75682 0.742752 0 0 1.00004 0.00157292
1373 20.3496 9.61865 1.64045 0 0 1.00004 0.00157926
454 20.8877 9.02126 0.198664 0 0 1.00004 0.00147178
1374 21.2226 10.0541 1.74121 0 0 1.00004 0.001682
460 21.7535 8.97016 0.954586 0 0 1.00004 0.00154316
539 23.005 9.62625 0.785685 0 0 1.00005 0.00170993
540 22.2709 10.4602 0.835659 0 0 1.00004 0.00173469
1377 22.0828 9.72578 1.49942 0 0 1.00004 0.00168499
1378 23.2382 10.4461 1.40266 0 0 1.00005 0.00185686
537 22.1148 9.74516 0.211047 0 0 1.00004 0.00163054
464 23.6197 8.88594 0.943351 0 0 1.00005 0.0016921
543 24.746 9.49455 0.744138 0 0 1.00005 0.00186745
1381 23.9074 9.53944 1.51751 0 0 1.00005 0.00183295