ITEM: TIMESTEP
15500
ITEM: NUMBER OF ATOMS
32000
ITEM: BOX BOUNDS pp pp pp
0.0000000000000000e+00 3.1748021039364001e+01
0.0000000000000000e+00 3.1748021039364001e+01
0.0000000000000000e+00 3.1748021039364001e+01
ITEM: ATOMS id x y z c_phase c_nbond c_rho vx
4 0.195744 1.10017 0.467488 0 0 1.00002 0.000852808
83 1.05225 1.66841 0.780915 0 0 1.00002 0.000875547
842 0.795205 0.792579 1.41173 0 0 1.00002 0.000868794
921 0.0857861 1.6002 1.37737 0 0 1.00002 0.000875786
3 0.808087 0.0668616 0.619904 0 0 1.00002 0.000850388
8 1.78809 0.815687 1.01582 0 0 1.00002 0.000855084
85 1.87971 1.48157 0.218824 0 0 1.00002 0.000857384
925 1.90631 1.66267 1.76098 0 0 1.00002 0.000888397
6 2.59258 0.749317 0.204668 0 0 1.00002 0.000825043
7 2.66197 0.0562529 1.03999 0 0 1.00002 0.000826844
87 2.72174 1.54501 0.883186 0 0 1.00002 0.000841683
846 2.74703 0.820765 1.74678 0 0 1.00002 0.000845864
12 3.49959 0.93478 0.962759 0 0 1.00003 0.000796714
849 3.56501 0.0914934 1.71328 0 0 1.00003 0.000801903
929 3.67563 1.71281 1.72508 0 0 1.00003 0.00082199
10 4.17071 0.861821 0.325156 0 0 1.00003 0.000748451
16 5.02056 0.569719 1.17583 0 0 1.00003 0.000694387
93 4.97519 1.607 0.386833 0 0 1.00003 0.000707034
850 4.40367 0.947156 1.63909 0 0 1.00003 0.000756491
9 3.54095 0.109009 0.173618 0 0 1.00003 0.000778589
14 5.69444 0.648114 0.326213 0 0 1.00003 0.000627497
95 5.92962 1.31924 0.946818 0 0 1.00003 0.000623896
97 6.61185 1.40093 0.220506 0 0 1.00003 0.000550901
854 5.83236 0.462567 1.70947 0 0 1.00003 0.000636166
933 5.08439 1.73024 1.44388 0 0 1.00003 0.000716749
20 6.74854 0.39491 0.873002 0 0 1.00003 0.000528809
937 6.72782 1.0172 1.70535 0 0 1.00003 0.000556399
24 8.28126 0.412431 1.08066 0 0 1.00002 0.000363468
99 7.39457 1.23195 0.960559 0 0 1.00002 0.000472264
101 8.26137 1.4005 0.239238 0 0 1.00002 0.000370859
941 8.14614 1.28163 1.61943 0 0 1.00002 0.000402607
18 7.60546 0.653939 0.143611 0 0 1.00002 0.000432399
22 8.86367 0.512297 0.275727 0 0 1.00002 0.000287605
28 9.54956 0.340653 0.896436 0 0 1.00002 0.000211703
103 9.02931 1.31698 1.1205 0 0 1.00002 0.000290427
105 9.63461 1.38334 0.0921859 0 0 1.00002 0.000209318
32 11.1854 0.217436 0.639104 0 0 1.00002 2.13596e-05
107 10.349 1.0553 0.830008 0 0 1.00002 0.000125088
866 10.5058 0.198584 1.45623 0 0 1.00002 0.000109296
949 11.2601 1.02428 1.42788 0 0 1.00002 3.12556e-05
946 10.5622 1.68976 1.74187 0 0 1.00002 0.000130608
26 10.2297 0.370218 0.0793535 0 0 1.00002 0.000126658
36 12.832 0.214336 0.642015 0 0 1.00001 -0.000143651
111 12.0075 1.08042 0.512365 0 0 1.00001 -5.93324e-05
870 12.0942 0.318318 1.30909 0 0 1.00001 -6.46289e-05
953 12.6761 1.20323 1.38144 0 0 1.00001 -0.000112013
40 14.317 0.324777 0.774983 0 0 1.00001 -0.000255542
115 13.5391 1.11616 0.848657 0 0 1.00001 -0.000193544
117 13.9875 1.56425 0.16486 0 0 1.00001 -0.000225226
874 13.5579 0.362024 1.64293 0 0 1.00001 -0.000190294
957 14.321 1.15448 1.4838 0 0 1.00001 -0.000239114
119 14.8184 1.55687 0.665734 0 0 1.00001 -0.000271488
44 15.646 0.768207 0.788947 0 0 1 -0.000315009
123 16.4876 1.54274 0.682272 0 0 1 -0.000323852
878 15.0815 0.465111 1.6448 0 0 1.00001 -0.000284265
882 16.4828 0.710365 1.34301 0 0 1 -0.000326634
961 15.5688 1.48969 1.39467 0 0 1 -0.000295883
38 15.0429 0.712117 0.0672603 0 0 1.00001 -0.000295621
48 17.1961 0.729929 0.550948 0 0 1 -0.000335312
127 17.8637 1.57845 0.754943 0 0 0.999999 -0.000313415
886 17.8563 0.742005 1.42436 0 0 0.999999 -0.000316452
965 17.1568 1.7455 1.56183 0 0 1 -0.00031091
51 19.4883 0.0145656 0.661122 0 0 0.999997 -0.000256051
52 18.7373 0.723893 0.683861 0 0 0.999998 -0.000293739
131 19.4907 1.54748 0.838387 0 0 0.999997 -0.000242164
889 18.9725 0.155533 1.54053 0 0 0.999998 -0.000276635
890 19.5451 0.963049 1.68412 0 0 0.999997 -0.000235409
969 18.6037 1.50553 1.49592 0 0 0.999998 -0.000281049
55 21.0608 0.34738 1.06182 0 0 0.999996 -0.00013121
56 20.2067 0.772564 0.973915 0 0 0.999996 -0.000200071
135 21.0731 1.64413 0.947948 0 0 0.999996 -0.000114576
54 21.1551 0.76101 0.216782 0 0 0.999997 -0.000125154
133 20.3046 1.50607 0.19487 0 0 0.999997 -0.000189237
57 21.9882 0.261565 0.53612 0 0 0.999997 -4.52284e-05
59 22.7817 0.42658 1.3977 0 0 0.999997 5.10645e-05
60 22.0915 1.14008 1.32145 0 0 0.999997 -1.75407e-05
137 21.9767 1.58929 0.533389 0 0 0.999997 -3.16983e-05
58 22.9068 1.06531 0.443448 0 0 0.999997 6.15868e-05
63 24.24 0.376946 1.44013 0 0 0.999999 0.000223308
61 23.5674 0.354168 0.570053 0 0 0.999998 0.000131612
62 24.4492 1.17724 0.749186 0 0 1 0.000245766
64 23.4763 1.23961 1.39259 0 0 0.999998 0.000141818
65 24.9751 0.313277 0.547747 0 0 1 0.000298563
67 26.0415 0.37948 1.16427 0 0 1 0.000428094
68 25.1923 1.1177 1.46925 0 0 1 0.000345623
147 25.9647 1.72374 1.34795 0 0 1 0.000444783
66 25.9238 0.924563 0.428078 0 0 1 0.000412169
70 27.6266 1.27445 0.38586 0 0 1.00001 0.000599024
71 27.6665 0.505003 0.869939 0 0 1.00001 0.00059687
72 26.7988 1.022 1.25475 0 0 1 0.000521142
69 26.8347 0.23902 0.226455 0 0 1 0.000504021
913 28.4388 0.33807 1.39706 0 0 1.00001 0.000673459
76 28.7126 1.2338 0.736078 0 0 1.00001 0.000696986
914 29.4557 0.947881 1.56412 0 0 1.00001 0.00076142
993 28.5849 1.71353 1.49363 0 0 1.00001 0.000710175
917 29.8891 0.169698 1.45611 0 0 1.00001 0.000779691
75 29.3404 0.353557 0.61369 0 0 1.00001 0.000730666
841 31.6671 0.26719 1.25679 0 0 1.00002 0.000848647
79 30.7814 0.484066 0.47369 0 0 1.00002 0.000810841
80 30.1709 1.19563 0.77195 0 0 1.00001 0.000795207
918 30.9403 0.970243 1.39164 0 0 1.00002 0.000836974
82 1.19087 2.43855 0.126737 0 0 1.00002 0.00089529
84 0.215431 2.38184 0.81066 0 0 1.00002 0.000892313
163 1.37018 3.23815 0.948706 0 0 1.00002 0.000938103
922 1.2218 2.36493 1.59246 0 0 1.00002 0.00091543
1001 0.470393 3.03364 1.54967 0 0 1.00002 0.000940583
161 0.414808 3.09919 0.131252 0 0 1.00002 0.000919587
88 1.99007 2.4218 0.786261 0 0 1.00002 0.000889981
167 2.73516 3.2887 0.862597 0 0 1.00002 0.000908739
926 2.74755 2.23897 1.54126 0 0 1.00002 0.000876809
1009 3.33622 3.4347 1.65716 0 0 1.00002 0.000911041
86 2.79915 2.38928 0.0558424 0 0 1.00002 0.000859067
92 3.45362 2.56448 0.784436 0 0 1.00003 0.000842318
91 4.07227 1.84703 0.715521 0 0 1.00003 0.000779435
96 4.97039 2.58386 0.821713 0 0 1.00003 0.000744807
171 4.26845 3.33131 0.754638 0 0 1.00003 0.000828758
930 4.20285 2.65265 1.58979 0 0 1.00003 0.000819936
94 5.70018 2.45719 0.135451 0 0 1.00003 0.000669421
100 6.59707 2.19499 0.779855 0 0 1.00003 0.000580154
175 5.70245 3.21362 0.960634 0 0 1.00003 0.00071267
934 5.9096 2.20972 1.50569 0 0 1.00003 0.000664137
1017 6.56568 3.08596 1.56616 0 0 1.00002 0.000637605
177 6.68847 2.94756 0.135297 0 0 1.00002 0.000593958
98 7.48066 2.24077 0.141397 0 0 1.00002 0.000482465
104 8.10173 2.21716 0.938873 0 0 1.00002 0.000419179
179 7.43185 3.08728 0.94073 0 0 1.00002 0.000530997
938 7.32973 2.07507 1.58045 0 0 1.00002 0.000515794
1021 8.2061 3.02236 1.66607 0 0 1.00002 0.000457138
181 8.28702 2.99057 0.0407392 0 0 1.00002 0.000418867
102 8.91101 2.10232 0.255074 0 0 1.00002 0.000313198
108 9.76757 2.03839 1.11788 0 0 1.00002 0.000220673
183 8.9345 2.99269 0.937869 0 0 1.00002 0.000351468
942 9.03654 2.23709 1.71836 0 0 1.00002 0.000327733
185 9.55994 2.92528 0.214958 0 0 1.00002 0.000264664
106 10.2705 2.12739 0.21589 0 0 1.00002 0.000152609
112 11.1337 1.83864 0.777526 0 0 1.00002 5.12425e-05
187 10.6049 2.82588 0.929286 0 0 1.00002 0.000143987
1029 11.4164 2.84811 1.58885 0 0 1.00001 6.89445e-05
116 12.6312 1.95075 0.599208 0 0 1.00001 -0.000103235
191 11.8943 2.65717 0.747346 0 0 1.00001 -8.15796e-06
950 11.891 1.93156 1.47597 0 0 1.00001 -1.74284e-05
1033 12.8016 3.03283 1.69912 0 0 1.00001 -6.49044e-05
195 13.1375 3.0403 0.851104 0 0 1.00001 -0.000113951
954 13.3306 2.00037 1.48839 0 0 1.00001 -0.00015126
114 13.3644 2.30484 0.0589486 0 0 1.00001 -0.000161447
120 13.9665 2.45331 0.929113 0 0 1.00001 -0.000197161
1037 13.9743 3.39646 1.56391 0 0 1.00001 -0.000152814
199 14.6388 3.4445 0.885461 0 0 1.00001 -0.000208864
958 14.728 2.30488 1.44851 0 0 1.00001 -0.00024049
118 14.7821 2.51842 0.138124 0 0 1.00001 -0.00025228
197 14.1023 3.23345 0.0361897 0 0 1.00001 -0.000188795
124 15.6353 2.44351 0.696647 0 0 1 -0.000286976
203 16.2422 3.20083 0.667399 0 0 1 -0.0002812
962 16.2452 2.47842 1.52599 0 0 1 -0.000289538
1041 15.3121 3.26154 1.50624 0 0 1 -0.000237222
201 15.5078 3.26227 0.0224703 0 0 1 -0.000262835
128 17.0036 2.3501 0.682744 0 0 1 -0.000310284
207 17.8844 2.92123 0.699827 0 0 0.999999 -0.000283187
966 17.9589 2.43202 1.57976 0 0 0.999999 -0.000281804
1045 17.0285 3.11197 1.49528 0 0 1 -0.00027704
132 18.837 2.35008 1.00936 0 0 0.999998 -0.000260455
211 19.6528 3.22603 1.27072 0 0 0.999997 -0.000184024
209 18.829 2.98669 0.19356 0 0 0.999998 -0.000250282
130 19.5403 2.32953 0.102313 0 0 0.999997 -0.000227364
973 20.2837 1.7765 1.71749 0 0 0.999997 -0.000168811
134 21.1268 2.40314 0.454537 0 0 0.999997 -9.82663e-05
136 20.1534 2.45411 1.10712 0 0 0.999997 -0.000173352
215 21.2819 3.27611 1.38108 0 0 0.999998 -4.26445e-05
213 20.3815 2.97952 0.331605 0 0 0.999997 -0.000147233
139 22.8646 2.05343 1.4988 0 0 0.999998 8.73835e-05
138 22.9647 2.5844 0.729345 0 0 0.999998 0.00010383
140 22.0757 2.48198 1.22915 0 0 0.999998 1.0263e-05
217 21.9685 3.18053 0.594856 0 0 0.999998 1.30648e-05
16179 22.6694 3.37843 0.073061 0 0 0.999998 9.37933e-05
141 23.747 1.79548 0.619277 0 0 0.999999 0.000174311
143 24.4427 1.97274 1.59757 0 0 1 0.000277759
142 24.3557 2.66411 0.768679 0 0 1 0.000273219
144 23.6933 2.88086 1.52365 0 0 1 0.000215624
223 24.4916 3.48653 1.54344 0 0 1 0.000338651
16108 24.9784 2.82496 0.0144832 0 0 1 0.000350536
149 26.5902 1.78291 0.50811 0 0 1 0.000505084
145 25.1555 1.84305 0.506829 0 0 1 0.000341936
146 25.8262 2.59445 0.701313 0 0 1 0.000445557
148 25.1848 2.53898 1.51281 0 0 1 0.000381303
227 25.7577 3.47503 1.50097 0 0 1 0.000491395
152 26.5799 2.54561 1.51939 0 0 1.00001 0.000544916
229 26.2121 3.48029 0.592814 0 0 1 0.000527402
151 27.5569 1.97467 1.22901 0 0 1.00001 0.000621494
153 28.3107 2.08106 0.342087 0 0 1.00001 0.000682351
150 27.1374 2.67727 0.638835 0 0 1.00001 0.000593755
231 27.2573 3.33542 1.40639 0 0 1.00001 0.000650138
156 28.3163 2.74422 1.19769 0 0 1.00001 0.000718423
233 28.0434 3.20637 0.327361 0 0 1.00001 0.000700916
997 30.0341 1.80298 1.70248 0 0 1.00001 0.000820911
155 29.5162 2.0345 0.878862 0 0 1.00001 0.000778494
154 29.2642 2.65537 0.287483 0 0 1.00001 0.000777269
235 29.325 3.25087 1.17255 0 0 1.00001 0.000821051
159 30.989 1.9793 0.922597 0 0 1.00002 0.000854565
160 30.2586 2.70434 0.999041 0 0 1.00001 0.000849363
239 31.1084 3.34197 0.972202 0 0 1.00002 0.000915428
998 31.0676 2.68985 1.72438 0 0 1.00002 0.000902553
237 30.1921 3.24488 0.139026 0 0 1.00001 0.000860879
157 30.4843 1.90355 0.0287666 0 0 1.00002 0.00082263
158 31.2224 2.6585 0.0761297 0 0 1.00002 0.000879132
164 0.381661 3.78266 0.919565 0 0 1.00002 0.000962646
241 0.233171 4.59697 0.478352 0 0 1.00002 0.00100407
243 1.22772 4.67272 0.988667 0 0 1.00002 0.00102371
244 0.186277 5.26517 1.27577 0 0 1.00002 0.0010667
162 1.12801 3.86364 0.0648935 0 0 1.00002 0.000962528
168 1.93117 4.05048 0.850057 0 0 1.00002 0.00097347
247 2.62636 4.86765 1.13741 0 0 1.00002 0.00101526
166 2.73163 4.15442 0.206075 0 0 1.00002 0.000949564
245 1.98704 4.97307 0.281145 0 0 1.00002 0.00102504
249 3.48953 4.87567 0.163527 0 0 1.00002 0.000962624
172 3.56874 4.09045 0.890819 0 0 1.00002 0.00091595
176 4.97729 4.02137 1.18761 0 0 1.00003 0.000824852
251 4.127 4.8985 1.15482 0 0 1.00002 0.000943568
170 4.3288 4.19954 0.148796 0 0 1.00003 0.000867924
253 5.0754 4.7625 0.341654 0 0 1.00003 0.000850189
174 5.82696 3.9591 0.198414 0 0 1.00003 0.000731426
180 6.53736 3.78965 0.781485 0 0 1.00002 0.000659613
255 5.74358 4.75828 1.03634 0 0 1.00002 0.000803235
1097 6.71126 4.54069 1.66009 0 0 1.00002 0.00071367
260 6.72712 5.16235 0.892616 0 0 1.00002 0.000732167
184 8.22016 3.91604 0.70942 0 0 1.00002 0.000478488
259 7.44281 4.48825 0.554225 0 0 1.00002 0.000600204
1018 7.43406 3.89523 1.51198 0 0 1.00002 0.000588842
1101 8.22596 4.64134 1.50275 0 0 1.00002 0.000542822
188 9.89239 3.6025 0.895048 0 0 1.00002 0.000263306
263 9.08859 4.59531 0.8313 0 0 1.00002 0.000416605
265 9.85912 4.53321 0.129254 0 0 1.00002 0.000308599
1022 9.08533 3.78942 1.51381 0 0 1.00002 0.000386796
1105 9.86859 4.37695 1.67375 0 0 1.00002 0.000332473
182 8.99454 3.89298 0.0644341 0 0 1.00002 0.000378652
192 11.3813 3.66612 0.788652 0 0 1.00001 8.89658e-05
267 10.5757 4.6933 0.917044 0 0 1.00002 0.000241317
269 11.3612 4.72028 0.232433 0 0 1.00001 0.000140485
1026 10.69 3.59193 1.6036 0 0 1.00002 0.000184657
1109 11.3406 4.40187 1.7215 0 0 1.00001 0.000157937
186 10.5688 3.87183 0.178108 0 0 1.00002 0.000185869
196 12.473 3.59936 0.821077 0 0 1.00001 -2.91681e-05
271 12.1545 4.57405 1.00954 0 0 1.00001 5.57316e-05
1113 12.7003 5.01883 1.70386 0 0 1.00001 4.88595e-05
275 13.1787 4.70212 0.807036 0 0 1.00001 -4.30413e-05
273 12.5991 4.63981 0.06345 0 0 1.00001 1.38369e-06
200 13.9366 4.14011 0.701364 0 0 1.00001 -0.00013585
1034 13.4348 4.23591 1.60368 0 0 1.00001 -6.92364e-05
1117 14.1468 5.1322 1.53113 0 0 1 -7.89737e-05
279 14.8803 5.02193 0.81573 0 0 1 -0.000152664
1038 14.9057 4.42339 1.60014 0 0 1 -0.000164129
277 14.0844 4.91765 0.0646577 0 0 1.00001 -0.000114773
198 14.8995 4.20023 0.099922 0 0 1 -0.000200179
204 15.6039 4.07005 0.926782 0 0 1 -0.000228829
281 15.8122 4.77722 0.187627 0 0 1 -0.000212776
283 16.5288 4.57945 0.900923 0 0 1 -0.000228805
1042 16.2553 3.95962 1.69069 0 0 1 -0.000233168
1121 15.7477 5.05441 1.64516 0 0 1 -0.000166498
208 17.2065 3.82802 0.810116 0 0 1 -0.000263111
287 18.0244 4.47724 1.09406 0 0 0.999999 -0.000217168
1046 17.892 3.63025 1.65183 0 0 0.999999 -0.000242649
285 17.3896 4.57015 0.0165882 0 0 1 -0.000237909
206 18.0756 3.84404 0.0608293 0 0 0.999999 -0.000251961
212 18.8204 3.69467 0.947994 0 0 0.999998 -0.000220476
289 18.7677 4.59489 0.359868 0 0 0.999998 -0.000193623
291 19.6398 4.65641 1.07839 0 0 0.999998 -0.000129717
292 18.7278 5.25974 1.19413 0 0 0.999999 -0.000149648
210 19.5494 3.75069 0.228228 0 0 0.999997 -0.00018344
216 20.3984 3.80174 1.2254 0 0 0.999997 -0.000106451
295 20.8506 4.69226 1.38171 0 0 0.999999 -2.01288e-05
297 21.5566 4.92278 0.800974 0 0 0.999999 4.97204e-05
214 21.0529 3.90991 0.508503 0 0 0.999998 -5.38371e-05
293 20.0942 4.76331 0.347531 0 0 0.999998 -0.000100278
219 22.8149 3.60572 1.40791 0 0 0.999999 0.000138195
220 21.9213 4.10674 1.29899 0 0 0.999999 5.76399e-05
299 22.4629 5.1424 1.26021 0 0 1 0.000172772
218 22.6046 4.31907 0.507068 0 0 1 0.000131982
221 23.5782 3.61344 0.774792 0 0 1 0.000217389
222 24.3537 4.29321 0.618893 0 0 1 0.00034349
224 23.4733 4.51784 1.32066 0 0 1 0.000261347
305 24.8824 5.22294 0.559805 0 0 1 0.000464317
301 23.5589 5.03243 0.526895 0 0 1 0.000284676
228 25.0401 4.46846 1.60584 0 0 1 0.000462691
303 24.3855 5.2544 1.41753 0 0 1 0.000423367
225 25.09 3.65329 0.793144 0 0 1 0.000405182
307 25.7349 5.10737 1.33006 0 0 1.00001 0.000578762
232 26.407 4.26403 1.36036 0 0 1.00001 0.000606467
309 26.5557 4.94553 0.634813 0 0 1.00001 0.000648383
226 25.5656 4.37424 0.386315 0 0 1 0.000494257
311 27.3944 4.84434 1.39347 0 0 1.00001 0.000750428
236 28.0274 3.95595 1.09751 0 0 1.00001 0.000748766
313 28.3493 4.71595 0.700336 0 0 1.00001 0.000817466
230 27.1218 4.01971 0.568358 0 0 1.00001 0.000653766
234 29.0043 3.75803 0.480885 0 0 1.00001 0.000811066
315 29.1655 4.50573 1.32134 0 0 1.00001 0.000884094
240 30.0787 4.05446 1.02267 0 0 1.00002 0.000908704
238 31.1149 3.97319 0.367052 0 0 1.00002 0.000942671
317 30.2924 4.6729 0.482827 0 0 1.00002 0.000951141
319 31.069 4.59598 1.40107 0 0 1.00002 0.000999944
242 1.00653 5.53219 0.462145 0 0 1.00002 0.00107667
248 1.63055 5.5173 1.38098 0 0 1.00002 0.00109473
323 0.89989 6.21592 1.27759 0 0 1.00002 0.00114899
324 0.362501 6.92087 1.50416 0 0 1.00002 0.00121213
322 1.07886 6.94564 0.571828 0 0 1.00002 0.00119239
321 0.0786003 5.9953 0.44717 0 0 1.00002 0.00110144
328 1.81269 7.03571 1.24453 0 0 1.00002 0.00121257
325 1.99061 6.20844 0.517128 0 0 1.00002 0.00111979
252 3.20019 5.63682 1.3053 0 0 1.00002 0.00105504
327 2.36689 6.16776 1.41673 0 0 1.00002 0.00113153
332 3.35171 6.98274 1.14104 0 0 1.00002 0.00115539
246 2.77365 5.62147 0.275144 0 0 1.00002 0.00104933
329 3.48765 6.29622 0.500488 0 0 1.00002 0.00107222
250 4.2701 5.48299 0.32864 0 0 1.00002 0.000960698
256 5.00866 5.4547 1.32493 0 0 1.00002 0.000926614
331 4.21821 6.11697 1.23844 0 0 1.00002 0.00103464
333 4.90414 6.25944 0.336067 0 0 1.00002 0.000975409
336 4.85784 6.83087 1.172 0 0 1.00002 0.0010467
330 4.09266 7.04327 0.226524 0 0 1.00002 0.00109842
254 5.8426 5.44473 0.304355 0 0 1.00002 0.000830121
335 5.75897 6.26969 0.973177 0 0 1.00002 0.000917596
1177 6.51906 6.01867 1.61618 0 0 1.00002 0.000846176
340 6.49666 6.90469 1.01874 0 0 1.00002 0.000899442
337 6.43914 6.0779 0.155724 0 0 1.00002 0.000818558
264 8.23943 5.34723 0.70451 0 0 1.00002 0.000569075
339 7.37056 6.19166 0.765315 0 0 1.00002 0.000737362
1098 7.43454 5.4504 1.51054 0 0 1.00002 0.000695619
1181 8.26933 6.14861 1.51381 0 0 1.00002 0.000654644
344 8.05249 6.89259 0.740196 0 0 1.00002 0.0007127
1178 7.3347 6.89976 1.61992 0 0 1.00002 0.000836954
258 7.36914 5.38866 0.0463899 0 0 1.00002 0.000665565
268 9.76985 5.35357 0.80369 0 0 1.00002 0.000381528
343 8.90103 6.2252 0.74807 0 0 1.00002 0.000555384
1102 9.06818 5.36267 1.61571 0 0 1.00002 0.000499002
1185 9.7453 6.227 1.49003 0 0 1.00002 0.000474853
1182 9.11354 6.99298 1.48633 0 0 1.00002 0.00062051
345 9.7668 6.26877 0.0973032 0 0 1.00002 0.000439392
262 9.01208 5.49991 0.0160549 0 0 1.00002 0.000477233
272 11.3666 5.30323 0.998567 0 0 1.00001 0.000189674
347 10.5758 6.05717 0.976202 0 0 1.00001 0.000336012
349 11.293 6.40358 0.0797237 0 0 1.00001 0.000259442
346 10.5138 6.9799 0.156754 0 0 1.00001 0.00039799
1186 10.4664 6.96656 1.51959 0 0 1.00001 0.000448277
270 11.9664 5.65391 0.186261 0 0 1.00001 0.000128075
276 12.6353 5.84197 0.871538 0 0 1.00001 8.09389e-05
351 11.7496 6.24046 1.06651 0 0 1.00001 0.00021069
1114 13.2773 5.89036 1.57235 0 0 1.00001 4.43455e-05
355 13.3048 6.60445 0.820758 0 0 1.00001 6.29158e-05
274 13.2715 5.55996 0.0438587 0 0 1.00001 -1.2123e-05
280 14.0072 5.73362 0.779767 0 0 1 -5.46307e-05
1197 14.2694 6.66899 1.42005 0 0 1 8.69252e-06
357 14.0748 6.40262 0.0398807 0 0 1 -2.84531e-05
278 14.9622 5.65086 0.0366203 0 0 1 -0.000132389
359 14.9843 6.46194 0.81123 0 0 1 -7.48678e-05
284 15.7653 5.74161 0.958311 0 0 1 -0.000150559
363 16.4247 6.4524 1.14322 0 0 1 -0.000119527
1118 15.0455 5.88524 1.70548 0 0 1 -8.19774e-05
282 16.5545 5.41791 0.276241 0 0 1 -0.000197162
361 15.6118 6.34557 0.041471 0 0 1 -0.000123768
286 17.7657 5.29398 0.539675 0 0 0.999999 -0.000194639
288 17.0465 5.41981 1.24624 0 0 1 -0.000181728
365 16.9989 6.27048 0.41073 0 0 0.999999 -0.000152874
367 17.6012 6.23649 1.37965 0 0 0.999999 -0.000124476
372 18.2143 7.03686 1.12904 0 0 0.999999 -6.73292e-05
369 18.3138 6.21547 0.608398 0 0 0.999999 -0.000128034
290 19.3804 5.73551 0.615781 0 0 0.999999 -0.000100375
371 19.2761 6.53337 1.33749 0 0 0.999999 -4.0359e-05
373 19.9518 6.72298 0.604152 0 0 0.999999 -9.82739e-07
294 20.7177 5.74594 0.645954 0 0 0.999999 8.33945e-06
296 20.1499 5.58325 1.38335 0 0 0.999999 -3.34508e-05
375 20.747 6.57881 1.28857 0 0 1 8.07799e-05
377 21.64 6.62747 0.658567 0 0 1 0.000157654
300 21.6426 5.84308 1.36752 0 0 1 0.000127634
16260 21.6717 5.70074 0.0519035 0 0 0.999999 9.74398e-05
298 22.6694 5.79427 0.663099 0 0 1 0.000224224
379 22.6308 6.6534 1.18988 0 0 1 0.000292706
381 23.3592 6.73944 0.26416 0 0 1 0.000366404
304 23.4936 5.84816 1.28135 0 0 1 0.000345995
383 24.3487 6.52504 1.14401 0 0 1.00001 0.000500778
302 24.1661 5.96918 0.420219 0 0 1 0.000418712
306 25.7305 5.82887 0.690269 0 0 1.00001 0.000611789
308 25.1515 6.00246 1.65478 0 0 1.00001 0.00058316
385 25.2013 6.70185 0.48728 0 0 1.00001 0.000605032
387 25.883 6.55977 1.38966 0 0 1.00001 0.000707852
312 26.7524 5.81517 1.45935 0 0 1.00001 0.000753845
310 27.5672 5.51899 0.713616 0 0 1.00001 0.000798287
389 26.8129 6.33501 0.641693 0 0 1.00001 0.000775723
391 27.7784 6.44234 1.3528 0 0 1.00001 0.000907451
390 27.7911 6.97898 0.522492 0 0 1.00001 0.000928413
316 28.4456 5.5003 1.47153 0 0 1.00001 0.000901724
314 29.4736 5.29348 0.811318 0 0 1.00001 0.000947618
395 29.5304 6.16759 1.31327 0 0 1.00002 0.00103251
394 29.6764 6.88988 0.504289 0 0 1.00002 0.00108017
393 28.5536 6.18501 0.635582 0 0 1.00001 0.000939874
16355 29.4651 6.13102 0.0766418 0 0 1.00002 0.00100012
16276 28.5606 5.37155 0.0549866 0 0 1.00001 0.000875011
318 31.0593 5.35806 0.592756 0 0 1.00002 0.001034
320 30.3114 5.44545 1.45755 0 0 1.00002 0.00102806
397 30.4916 6.17191 0.644413 0 0 1.00002 0.00107171
399 31.3199 6.1466 1.38047 0 0 1.00002 0.00112367
398 31.3088 6.94524 0.603552 0 0 1.00002 0.00116794
401 0.374933 7.63305 0.658845 0 0 1.00002 0.00124618
402 0.956238 8.46874 0.615079 0 0 1.00002 0.00132358
403 1.2265 7.86268 1.49785 0 0 1.00002 0.00130277
404 0.477434 8.55775 1.46818 0 0 1.00002 0.00135885
405 1.70668 7.77127 0.375932 0 0 1.00002 0.00125494
408 1.84771 8.62782 1.46889 0 0 1.00002 0.00136489
326 2.58919 7.15942 0.476234 0 0 1.00002 0.00118364
406 2.31374 8.63982 0.402052 0 0 1.00002 0.0013193
407 2.50677 7.82384 1.28553 0 0 1.00002 0.00126864
412 3.13053 8.53411 0.945539 0 0 1.00002 0.00129705
409 3.34665 7.78575 0.33063 0 0 1.00002 0.0012045
410 3.91935 8.48161 0.081713 0 0 1.00002 0.00123374
411 4.07965 7.68439 1.25278 0 0 1.00002 0.0011802
416 4.79824 8.28896 0.938087 0 0 1.00002 0.00117426
413 4.76316 7.66623 0.24724 0 0 1.00002 0.00110431
334 5.6234 7.08046 0.151349 0 0 1.00002 0.000982079
414 5.95035 8.38153 0.175195 0 0 1.00002 0.00106613
415 5.56657 7.61785 1.04152 0 0 1.00002 0.00105359
417 6.55744 7.57616 0.172276 0 0 1.00002 0.000933341
420 6.47045 8.26717 1.06095 0 0 1.00002 0.00102527
419 7.34227 7.80568 0.760143 0 0 1.00002 0.00087872
424 8.32467 8.35613 0.886652 0 0 1.00002 0.000815457
1258 7.33944 8.21998 1.72783 0 0 1.00002 0.000965645
1261 8.09699 7.52944 1.58532 0 0 1.00002 0.000802687
421 8.04077 7.64296 0.0292468 0 0 1.00002 0.000768462
348 9.84831 7.26034 0.737838 0 0 1.00001 0.000519092
423 8.93859 7.6564 0.674667 0 0 1.00002 0.000667232
428 9.74774 8.66011 0.709193 0 0 1.00001 0.000651193
1262 9.12147 8.74203 1.47501 0 0 1.00001 0.000782815
1265 9.66174 7.93117 1.62797 0 0 1.00001 0.000646272
352 11.2958 7.17862 0.82316 0 0 1.00001 0.000331121
427 10.5715 7.98319 0.859989 0 0 1.00001 0.000490708
1266 10.5893 8.74726 1.45604 0 0 1.00001 0.000588848
1269 11.3885 7.84732 1.62895 0 0 1.00001 0.000415454
429 11.2131 8.15558 0.0453635 0 0 1.00001 0.000402638
356 12.6679 7.31512 0.575874 0 0 1.00001 0.00017363
431 12.1488 8.26602 0.603599 0 0 1.00001 0.000308204
1190 12.0399 7.19256 1.39938 0 0 1.00001 0.000266947
1270 12.0629 8.71721 1.51846 0 0 1 0.000402473
1273 12.8202 8.02919 1.4981 0 0 1 0.000253833
360 14.2745 7.37181 0.594564 0 0 1 2.7685e-05
435 13.5669 8.11828 0.474672 0 0 1 0.000139665
1194 13.4147 7.36495 1.36017 0 0 1 0.000130335
1277 14.1942 8.19979 1.36802 0 0 1 0.000126859
439 15.0101 8.30502 0.871841 0 0 1 5.22205e-05
362 16.3678 7.18407 0.280273 0 0 1 -9.34887e-05
364 15.5658 7.31676 0.922637 0 0 1 -4.52352e-05
443 16.1966 8.16161 1.11339 0 0 0.999999 -1.01505e-07
1198 15.0808 7.53457 1.63954 0 0 1 3.10239e-05
441 15.7978 8.31668 0.154575 0 0 0.999999 -3.52073e-06
368 16.9125 7.35551 1.11573 0 0 0.999999 -6.72775e-05
445 17.0001 8.09985 0.338059 0 0 0.999999 -4.02452e-05
447 17.6446 8.01272 1.02543 0 0 0.999999 -2.10079e-05
366 17.7548 7.15612 0.2158 0 0 0.999999 -9.44111e-05
370 18.9543 7.31529 0.636442 0 0 0.999999 -3.11233e-05
451 18.8754 8.13002 1.17434 0 0 0.999999 3.87525e-05
376 19.8296 7.62663 1.31035 0 0 1 7.23211e-05
453 19.7604 8.11174 0.356695 0 0 1 7.00877e-05
449 18.3935 8.17191 0.172572 0 0 0.999999 -9.89845e-06
374 20.668 7.4273 0.662707 0 0 1 0.000109223
455 20.6186 8.40378 1.02031 0 0 1 0.000184634
380 21.5259 7.63351 1.13185 0 0 1 0.000229662
457 21.5975 8.30583 0.255116 0 0 1 0.00026133
459 22.5914 8.13689 1.00157 0 0 1 0.000390626
1218 22.4177 7.45765 1.73143 0 0 1 0.000353037
378 22.3327 7.4449 0.380004 0 0 1 0.000288974
384 23.4615 7.28151 1.03713 0 0 1 0.000437244
461 23.5068 8.03509 0.377727 0 0 1.00001 0.000484174
463 24.3802 8.05739 0.983301 0 0 1.00001 0.000617999
1302 24.2932 8.67681 1.65986 0 0 1.00001 0.000697106
382 24.3685 7.28479 0.265724 0 0 1.00001 0.000537076
462 24.3514 8.78276 0.204619 0 0 1.00001 0.000652417
388 25.1638 7.35403 1.23522 0 0 1.00001 0.00067495
467 26.0859 7.96883 0.975065 0 0 1.00001 0.000830771
1306 26.091 8.58754 1.72963 0 0 1.00001 0.000928864
386 26.1499 7.23993 0.363814 0 0 1.00001 0.000762669
465 25.2787 8.08924 0.303755 0 0 1.00001 0.000720811
466 26.3421 8.54942 0.0881443 0 0 1.00001 0.000891725
392 26.8566 7.079 1.32567 0 0 1.00001 0.000862062
470 28.0579 8.47614 0.419945 0 0 1.00002 0.00107913
471 27.8877 7.80594 1.19991 0 0 1.00001 0.00102858
472 27.0612 8.62147 1.01109 0 0 1.00001 0.00100474
469 27.0732 7.75028 0.428054 0 0 1.00001 0.000912776
396 28.7436 7.08698 1.21929 0 0 1.00001 0.00104517
474 29.704 8.34156 0.53931 0 0 1.00002 0.00120564
475 29.6027 7.65958 1.26867 0 0 1.00002 0.0011603
476 28.8829 8.53342 1.17445 0 0 1.00002 0.00118074
473 28.7932 7.69799 0.411923 0 0 1.00002 0.00107995
400 30.4317 7.07784 1.17458 0 0 1.00002 0.00115687
479 31.3641 7.81378 1.29658 0 0 1.00002 0.00126476
480 30.5473 8.47753 1.17944 0 0 1.00002 0.00128525
477 30.7478 7.86212 0.379793 0 0 1.00002 0.00121959
478 31.5453 8.61332 0.390261 0 0 1.00002 0.00131372
482 1.25372 10.2855 0.271966 0 0 1.00002 0.00147325
483 1.14504 9.37429 1.20438 0 0 1.00002 0.00142484
484 0.387091 9.92938 0.898904 0 0 1.00002 0.00145324
481 0.493609 9.33672 0.123518 0 0 1.00002 0.00138906
1322 0.9488 10.128 1.75361 0 0 1.00002 0.00152421
485 1.87891 9.45809 0.451043 0 0 1.00002 0.00140198
488 1.95806 10.3735 0.973699 0 0 1.00002 0.0014932
486 2.71537 10.2878 0.0818349 0 0 1.00002 0.00144482
487 2.49704 9.45753 1.22707 0 0 1.00002 0.00141395
1326 2.89851 10.2479 1.67846 0 0 1.00002 0.00149904
1329 3.32578 9.2578 1.67156 0 0 1.00002 0.00139143
489 3.1897 9.38322 0.0854972 0 0 1.00002 0.00135134
492 3.49825 10.0545 0.743327 0 0 1.00002 0.00140691
491 4.04118 9.13201 0.865023 0 0 1.00002 0.00130067
493 4.67563 9.21052 0.00725182 0 0 1.00002 0.00124786
496 4.71007 10.0043 0.577886 0 0 1.00002 0.00132443
1330 4.23697 9.99353 1.6296 0 0 1.00002 0.00140816
1333 4.77683 9.09444 1.66542 0 0 1.00002 0.00129095
495 5.42065 8.97829 0.668909 0 0 1.00002 0.00117841
500 6.32224 9.82835 0.524587 0 0 1.00002 0.00116542
1334 5.41578 9.86272 1.18381 0 0 1.00002 0.00127962
1337 6.23556 9.09182 1.27793 0 0 1.00002 0.00113898
1417 6.3275 10.5456 1.2085 0 0 1.00002 0.00125852
499 7.22941 8.91825 0.724331 0 0 1.00002 0.000992416
501 8.14375 9.08657 0.0846768 0 0 1.00002 0.000884501
504 8.01614 9.96426 0.588362 0 0 1.00001 0.000986556
1338 7.24633 9.77625 1.21446 0 0 1.00002 0.00109194
1341 8.0978 9.20748 1.42353 0 0 1.00001 0.000953074
503 8.975 9.49342 0.741833 0 0 1.00001 0.000830526
508 9.67028 10.3739 0.674834 0 0 1.00001 0.000812251
1342 8.79641 10.3029 1.43587 0 0 1.00001 0.000968495
1345 9.85064 9.62905 1.44032 0 0 1.00001 0.000767513
432 11.3591 8.88404 0.745806 0 0 1.00001 0.000460903
426 10.4072 8.92326 0.0413682 0 0 1.00001 0.000572972
507 10.471 9.71979 0.670066 0 0 1.00001 0.000648517
1346 10.6418 10.2109 1.66613 0 0 1 0.000735343
1349 11.2988 9.67012 1.34173 0 0 1.00001 0.000572168
436 12.9626 8.99006 0.798078 0 0 1 0.00027998
511 12.0837 9.84536 0.69983 0 0 1 0.000449017
516 12.7881 10.5031 0.975402 0 0 1 0.000429803
1353 12.5196 9.64846 1.63687 0 0 1 0.000442384
1274 13.6422 8.87128 1.58624 0 0 1 0.000248013
440 14.411 9.21277 0.768223 0 0 1 0.000158302
515 13.4885 9.7087 0.848387 0 0 1 0.000284221
1354 13.4592 10.4382 1.73072 0 0 0.999997 0.000414221
517 14.22 10.1672 0.21984 0 0 0.999999 0.000228213
444 15.8374 9.16361 1.14007 0 0 0.999998 8.74906e-05
519 15.0746 9.87184 1.01953 0 0 0.999998 0.000172635
521 15.6291 10.1863 0.253307 0 0 0.999998 0.000134201
523 16.4447 9.95915 0.964079 0 0 0.999998 0.000116519
442 16.4453 9.03442 0.262305 0 0 0.999998 2.78822e-05
438 15.2363 9.2152 0.10053 0 0 0.999999 8.55051e-05
452 18.2454 8.88389 0.939508 0 0 0.999999 5.25463e-05
448 17.0328 9.06353 1.12731 0 0 0.999998 5.42801e-05
525 17.0953 10.0213 0.206778 0 0 0.999998 8.72401e-05
527 17.7195 9.85988 1.06905 0 0 0.999998 0.000114296
446 17.706 9.0989 0.117926 0 0 0.999999 3.02157e-05
456 19.7854 8.93546 1.05393 0 0 1 0.000153605
529 18.5483 9.71927 0.299145 0 0 0.999999 0.000102877
531 19.4671 9.87767 0.845666 0 0 1 0.000185221
532 18.6767 10.4413 1.13859 0 0 1 0.000193942
1369 18.6082 9.5711 1.70083 0 0 1 0.00016987
450 19.1977 8.94257 0.209861 0 0 1 8.34276e-05
533 19.9583 9.76401 0.0716798 0 0 1 0.000197592
535 20.9151 9.78315 0.745147 0 0 1 0.000307028
1373 20.2222 9.63977 1.65678 0 0 1 0.000286062
454 20.769 9.05313 0.204156 0 0 1 0.000225223
460 21.6236 9.00571 0.968286 0 0 1 0.000336668
1298 22.4056 8.85543 1.56977 0 0 1.00001 0.000455155
539 22.8493 9.65936 0.795416 0 0 1.00001 0.000534051
540 22.1086 10.4972 0.860684 0 0 1.00001 0.000504325
1377 21.9244 9.75927 1.52516 0 0 1.00001 0.00046759
1378 23.0629 10.4839 1.43172 0 0 1.00001 0.000668187
458 22.7679 8.83922 0.198586 0 0 1.00001 0.000444181
537 21.9723 9.77989 0.209125 0 0 1.00001 0.000414316
464 23.458 8.94102 0.961287 0 0 1.00001 0.000564878
543 24.5636 9.5369 0.754989 0 0 1.00001 0.00075793
1381 23.7294 9.57632 1.54587 0 0 1.00001 0.000694481
1382 24.435 10.3212 1.44244 0 0 1.00001 0.000842808
544 23.6438 10.5165 0.616482 0 0 1.00001 0.000701421
542 24.4947 10.2988 0.106417 0 0 1.00001 0.000790015
1385 25.1259 9.49253 1.64244 0 0 1.00001 0.000879523
468 25.3403 8.81741 0.991641 0 0 1.00001 0.000810158
547 26.3011 9.36025 0.869901 0 0 1.00001 0.000971545
548 25.4473 10.2297 0.814169 0 0 1.00001 0.000931913