ITEM: TIMESTEP
45000
ITEM: NUMBER OF ATOMS
32000
ITEM: BOX BOUNDS pp pp pp
0.0000000000000000e+00 3.1748021039364001e+01
0.0000000000000000e+00 3.1748021039364001e+01
0.0000000000000000e+00 3.1748021039364001e+01
ITEM: ATOMS id x y z c_phase c_nbond c_rho vx
4 0.730663 1.09083 0.482034 0 0 1.00006 0.00287201
83 1.59607 1.66389 0.793363 0 0 1.00005 0.00292707
842 1.35414 0.786719 1.40266 0 0 1.00005 0.00291029
921 0.639373 1.59165 1.39299 0 0 1.00006 0.00290028
3 1.35263 0.0769881 0.633722 0 0 1.00005 0.00288684
841 0.461018 0.270747 1.25897 0 0 1.00006 0.00286176
8 2.34285 0.841432 1.01328 0 0 1.00005 0.00293099
85 2.43631 1.50559 0.199726 0 0 1.00005 0.00293862
925 2.48821 1.65637 1.74596 0 0 1.00005 0.00297686
6 3.13298 0.73692 0.201036 0 0 1.00005 0.00293252
7 3.19455 0.0647344 1.04082 0 0 1.00005 0.00293785
87 3.26696 1.55184 0.871991 0 0 1.00005 0.00296179
846 3.31321 0.836565 1.73744 0 0 1.00005 0.00296726
5 2.3427 0.00392819 0.163202 0 0 1.00005 0.00291191
12 4.035 0.918608 0.976147 0 0 1.00005 0.00295135
849 4.09558 0.0780231 1.7315 0 0 1.00005 0.00296252
929 4.22706 1.71705 1.72244 0 0 1.00005 0.00299516
10 4.71671 0.863065 0.316629 0 0 1.00005 0.00293557
850 4.9188 0.947136 1.66012 0 0 1.00005 0.00296459
9 4.06366 0.0973034 0.186194 0 0 1.00005 0.0029308
93 5.51118 1.61233 0.393006 0 0 1.00005 0.00294403
16 5.56748 0.573342 1.15322 0 0 1.00005 0.00293016
14 6.21512 0.650648 0.314928 0 0 1.00004 0.00290068
95 6.44233 1.33834 0.979202 0 0 1.00004 0.00291717
854 6.36268 0.465622 1.73408 0 0 1.00004 0.0029236
933 5.59958 1.7207 1.46115 0 0 1.00005 0.00296747
97 7.10658 1.42735 0.223334 0 0 1.00004 0.00288263
20 7.2382 0.413927 0.895972 0 0 1.00004 0.00286554
937 7.23087 1.03823 1.73016 0 0 1.00004 0.00289953
99 7.87429 1.25851 0.965154 0 0 1.00004 0.00285157
18 8.07051 0.67181 0.165098 0 0 1.00004 0.00281799
941 8.62086 1.29718 1.65662 0 0 1.00004 0.00283152
101 8.71629 1.41983 0.241415 0 0 1.00004 0.00279874
24 8.72717 0.425319 1.0829 0 0 1.00004 0.0027906
22 9.29461 0.518089 0.259163 0 0 1.00004 0.00274284
28 9.97205 0.336659 0.928593 0 0 1.00004 0.00270284
103 9.45825 1.33761 1.11329 0 0 1.00004 0.00276267
105 10.0444 1.38331 0.108341 0 0 1.00004 0.00270897
32 11.5467 0.221557 0.664314 0 0 1.00004 0.00258036
107 10.7503 1.0798 0.849743 0 0 1.00004 0.00265683
866 10.8947 0.213388 1.48817 0 0 1.00004 0.00264895
949 11.6493 1.03217 1.45157 0 0 1.00004 0.0026013
946 10.9632 1.72692 1.75814 0 0 1.00004 0.00268627
26 10.6303 0.372974 0.0820282 0 0 1.00004 0.00264631
36 13.168 0.226519 0.657972 0 0 1.00004 0.00245277
111 12.3455 1.09788 0.535274 0 0 1.00004 0.00252843
870 12.4426 0.321889 1.34052 0 0 1.00004 0.00252535
953 13.0186 1.2098 1.40966 0 0 1.00004 0.00249594
40 14.6189 0.348035 0.808483 0 0 1.00004 0.00234706
115 13.8488 1.12597 0.860448 0 0 1.00004 0.00241715
117 14.3052 1.57545 0.151744 0 0 1.00004 0.0023864
874 13.8851 0.369925 1.66561 0 0 1.00004 0.00242244
957 14.6277 1.17847 1.51049 0 0 1.00004 0.0023765
119 15.1193 1.56945 0.676533 0 0 1.00004 0.00233461
38 15.3188 0.715064 0.0666169 0 0 1.00004 0.00229635
44 15.9306 0.762142 0.794211 0 0 1.00004 0.00226588
878 15.3732 0.470156 1.65728 0 0 1.00004 0.00231846
961 15.8468 1.50913 1.41198 0 0 1.00004 0.00230285
123 16.7518 1.54635 0.689992 0 0 1.00004 0.00223889
882 16.7494 0.709451 1.35517 0 0 1.00004 0.00223327
48 17.4689 0.727399 0.567336 0 0 1.00004 0.00218679
127 18.1295 1.58641 0.754947 0 0 1.00004 0.00218616
886 18.1205 0.748251 1.42586 0 0 1.00004 0.00218159
965 17.4279 1.7458 1.56874 0 0 1.00004 0.00223451
51 19.7507 0.00780652 0.664199 0 0 1.00005 0.00213547
52 18.9965 0.729767 0.68969 0 0 1.00004 0.00214708
131 19.7601 1.54087 0.837926 0 0 1.00005 0.00216039
889 19.2255 0.147697 1.54149 0 0 1.00004 0.00215626
890 19.8186 0.96117 1.6852 0 0 1.00005 0.00216681
969 18.8835 1.49683 1.49844 0 0 1.00004 0.00218192
129 19.0757 1.57382 0.00201865 0 0 1.00004 0.00215971
55 21.3703 0.342319 1.05939 0 0 1.00005 0.00216039
56 20.4791 0.768208 0.962951 0 0 1.00005 0.00214892
135 21.3563 1.61404 0.952859 0 0 1.00005 0.00218254
54 21.4323 0.75831 0.209987 0 0 1.00005 0.00215704
133 20.5796 1.49543 0.205369 0 0 1.00005 0.0021566
973 20.5688 1.75522 1.72294 0 0 1.00005 0.00219253
57 22.2944 0.273403 0.528825 0 0 1.00005 0.00218236
59 23.1143 0.421933 1.37878 0 0 1.00005 0.00223486
60 22.4066 1.13801 1.31176 0 0 1.00005 0.00221302
137 22.2767 1.58091 0.511261 0 0 1.00005 0.0022046
58 23.2218 1.03363 0.459621 0 0 1.00005 0.0022335
63 24.6339 0.370066 1.39431 0 0 1.00005 0.0023264
61 23.9112 0.342644 0.567429 0 0 1.00005 0.00226424
62 24.8068 1.15043 0.734027 0 0 1.00006 0.0023361
64 23.8344 1.21069 1.3717 0 0 1.00005 0.00228826
65 25.3656 0.310168 0.533865 0 0 1.00006 0.00236266
67 26.4453 0.36513 1.15138 0 0 1.00006 0.00245384
68 25.5799 1.10695 1.43294 0 0 1.00006 0.00240694
147 26.3801 1.70523 1.32716 0 0 1.00006 0.00248181
66 26.329 0.928325 0.412586 0 0 1.00006 0.00244134
70 28.0855 1.26165 0.376531 0 0 1.00006 0.00258871
71 28.1225 0.487004 0.862295 0 0 1.00006 0.00258361
72 27.2259 1.00989 1.23063 0 0 1.00006 0.00252778
69 27.2582 0.240288 0.239646 0 0 1.00006 0.00250421
149 27.0236 1.75649 0.505086 0 0 1.00006 0.00251987
913 28.9335 0.347178 1.40606 0 0 1.00006 0.00265674
76 29.1923 1.20316 0.714986 0 0 1.00006 0.00267548
914 29.9328 0.964 1.55191 0 0 1.00006 0.00274392
993 29.0557 1.7075 1.49184 0 0 1.00006 0.00269738
75 29.8364 0.347312 0.614548 0 0 1.00006 0.00270722
917 30.4208 0.159526 1.43671 0 0 1.00006 0.00276414
79 31.3244 0.45482 0.488514 0 0 1.00006 0.00280285
80 30.6731 1.1778 0.763991 0 0 1.00006 0.00278054
918 31.4588 0.966884 1.38188 0 0 1.00006 0.00283614
84 0.767206 2.37286 0.803873 0 0 1.00006 0.00292421
1001 1.02549 3.0364 1.55103 0 0 1.00006 0.00299206
161 0.96297 3.10727 0.127925 0 0 1.00006 0.00296531
158 0.0105345 2.62747 0.0768744 0 0 1.00006 0.00289347
82 1.74119 2.43351 0.112912 0 0 1.00005 0.00295747
922 1.7815 2.36497 1.59149 0 0 1.00005 0.00298392
163 1.92597 3.21676 0.940475 0 0 1.00005 0.00301737
88 2.55299 2.41158 0.793355 0 0 1.00005 0.00298461
167 3.29778 3.29469 0.860234 0 0 1.00005 0.00304858
926 3.32301 2.26402 1.56041 0 0 1.00005 0.00300963
1005 2.75597 3.10919 1.75688 0 0 1.00005 0.00305573
86 3.34728 2.40166 0.0528324 0 0 1.00005 0.00298924
1009 3.92717 3.4232 1.66796 0 0 1.00005 0.00308511
92 4.01147 2.58063 0.800456 0 0 1.00005 0.00300875
91 4.61576 1.84166 0.725696 0 0 1.00005 0.00297027
171 4.82265 3.35159 0.771552 0 0 1.00005 0.00304839
930 4.77629 2.66525 1.60122 0 0 1.00005 0.00303045
96 5.50304 2.58727 0.837819 0 0 1.00005 0.00299375
94 6.22683 2.47937 0.147377 0 0 1.00005 0.00295946
175 6.25038 3.24256 0.976656 0 0 1.00004 0.00301466
934 6.43221 2.24629 1.51671 0 0 1.00004 0.00296738
173 5.58855 3.35642 0.0178314 0 0 1.00005 0.00302901
1017 7.10913 3.11494 1.57513 0 0 1.00004 0.00299172
100 7.10885 2.22434 0.79962 0 0 1.00004 0.00292106
177 7.18855 2.99721 0.132964 0 0 1.00004 0.00295095
98 7.96538 2.26899 0.140437 0 0 1.00004 0.00287466
179 7.94093 3.11127 0.934409 0 0 1.00004 0.00293345
938 7.83159 2.10459 1.60134 0 0 1.00004 0.00290347
104 8.59278 2.23959 0.961672 0 0 1.00004 0.00284878
1021 8.70394 3.05244 1.6904 0 0 1.00004 0.00291004
181 8.77093 3.02232 0.046855 0 0 1.00004 0.00286853
102 9.3721 2.14498 0.256658 0 0 1.00004 0.00278413
183 9.40288 3.02667 0.960289 0 0 1.00004 0.0028412
942 9.49631 2.26545 1.7529 0 0 1.00004 0.00281707
185 10.0166 2.9694 0.212163 0 0 1.00004 0.00278289
108 10.203 2.06369 1.11942 0 0 1.00004 0.00273699
106 10.6843 2.15239 0.205642 0 0 1.00004 0.00269094
112 11.525 1.87588 0.794152 0 0 1.00004 0.00262215
187 11.0203 2.85959 0.941823 0 0 1.00004 0.00271163
1029 11.8118 2.88961 1.62773 0 0 1.00004 0.00267487
116 12.9797 1.97386 0.620194 0 0 1.00004 0.00250745
191 12.2754 2.7034 0.758557 0 0 1.00004 0.00260089
950 12.2727 1.96047 1.50231 0 0 1.00004 0.00258322
1033 13.174 3.06891 1.7298 0 0 1.00004 0.0025796
195 13.5113 3.0626 0.852435 0 0 1.00004 0.00252356
954 13.6746 2.02758 1.50843 0 0 1.00004 0.00247547
114 13.6982 2.33618 0.0541653 0 0 1.00004 0.00246258
120 14.294 2.47819 0.932855 0 0 1.00004 0.0024341
1037 14.324 3.43481 1.58418 0 0 1.00004 0.00250743
199 14.9765 3.46887 0.884934 0 0 1.00004 0.00244165
197 14.4292 3.25675 0.0462951 0 0 1.00004 0.00245808
958 15.0572 2.33455 1.45211 0 0 1.00004 0.00238598
118 15.0905 2.52977 0.139782 0 0 1.00004 0.00237117
124 15.9254 2.45113 0.710824 0 0 1.00004 0.00231944
203 16.5515 3.21559 0.687917 0 0 1.00004 0.00232391
962 16.5392 2.48542 1.53502 0 0 1.00004 0.00230566
1041 15.6484 3.28251 1.52722 0 0 1.00004 0.00240191
201 15.8166 3.28286 0.0308858 0 0 1.00004 0.00236528
128 17.2869 2.36404 0.687313 0 0 1.00004 0.00224448
207 18.169 2.92933 0.710583 0 0 1.00004 0.00224067
966 18.237 2.42803 1.59205 0 0 1.00004 0.0022352
1045 17.3221 3.12012 1.51031 0 0 1.00004 0.00230077
132 19.112 2.35173 1.00671 0 0 1.00004 0.00219759
211 19.9355 3.20505 1.26297 0 0 1.00005 0.00224175
209 19.1086 2.98613 0.185856 0 0 1.00004 0.00221819
130 19.8245 2.31009 0.108853 0 0 1.00005 0.00218051
134 21.4333 2.39055 0.447554 0 0 1.00005 0.00220541
136 20.4488 2.43237 1.09506 0 0 1.00005 0.00220078
215 21.5987 3.25675 1.36149 0 0 1.00005 0.00227119
213 20.6698 2.973 0.324768 0 0 1.00005 0.00221746
139 23.205 2.01408 1.49064 0 0 1.00005 0.0022794
138 23.2933 2.5607 0.715514 0 0 1.00005 0.00229056
140 22.3833 2.45542 1.21913 0 0 1.00005 0.00225422
217 22.2845 3.15817 0.59212 0 0 1.00005 0.00227402
16179 23.0265 3.33839 0.0509144 0 0 1.00005 0.00231176
141 24.0833 1.77801 0.609929 0 0 1.00005 0.00230444
143 24.8096 1.94762 1.55933 0 0 1.00006 0.0023799
142 24.7303 2.63021 0.75567 0 0 1.00006 0.00238429
144 24.0509 2.83271 1.50072 0 0 1.00006 0.00236759
223 24.8871 3.44738 1.51896 0 0 1.00006 0.00245965
16108 25.3728 2.77085 0.00809541 0 0 1.00006 0.00243214
145 25.5441 1.81651 0.514909 0 0 1.00006 0.00240618
146 26.2469 2.55601 0.683308 0 0 1.00006 0.00249261
148 25.5926 2.5169 1.48509 0 0 1.00006 0.00245776
227 26.189 3.42886 1.48363 0 0 1.00006 0.00255744
229 26.6686 3.43895 0.577717 0 0 1.00006 0.00257529
152 27.0143 2.52309 1.49401 0 0 1.00006 0.00257214
151 28.0118 1.94676 1.20203 0 0 1.00006 0.00261909
150 27.5949 2.6398 0.615514 0 0 1.00006 0.0026048
231 27.7466 3.28931 1.3866 0 0 1.00006 0.00267221
233 28.5283 3.17874 0.335723 0 0 1.00006 0.00270547
153 28.7974 2.05717 0.33863 0 0 1.00006 0.00267033
156 28.8045 2.70541 1.17391 0 0 1.00006 0.00271575
155 30.0051 1.99206 0.878357 0 0 1.00006 0.00276334
154 29.7655 2.65935 0.279515 0 0 1.00006 0.00277015
235 29.8544 3.20782 1.17709 0 0 1.00006 0.00282344
997 30.5726 1.78242 1.68562 0 0 1.00006 0.00281583
159 31.5262 1.94907 0.917018 0 0 1.00006 0.00285991
160 30.7834 2.67573 0.99361 0 0 1.00006 0.00284989
239 31.6647 3.29701 0.969763 0 0 1.00006 0.00293785
998 31.6147 2.66245 1.72138 0 0 1.00006 0.00292115
237 30.7463 3.19781 0.166257 0 0 1.00006 0.00286643
157 30.9869 1.88535 0.0475963 0 0 1.00006 0.0028149
164 0.949258 3.76621 0.919321 0 0 1.00006 0.00301765
241 0.818669 4.59314 0.454987 0 0 1.00006 0.00306963
244 0.804275 5.24301 1.26852 0 0 1.00006 0.003145
1081 1.15108 4.38791 1.75647 0 0 1.00006 0.0031015
162 1.70622 3.84938 0.0860825 0 0 1.00005 0.00304174
243 1.80574 4.65241 0.990341 0 0 1.00005 0.00312161
168 2.53646 4.04077 0.861912 0 0 1.00005 0.00308854
247 3.2301 4.88086 1.12848 0 0 1.00005 0.00317728
166 3.32042 4.16107 0.194469 0 0 1.00005 0.00310197
245 2.5853 4.95548 0.291531 0 0 1.00005 0.00315673
249 4.09326 4.88289 0.170707 0 0 1.00005 0.00316455
172 4.13525 4.11087 0.904793 0 0 1.00005 0.00311038
251 4.74082 4.91676 1.17019 0 0 1.00005 0.00318238
170 4.89019 4.20719 0.145283 0 0 1.00005 0.00310278
176 5.5469 4.06033 1.17112 0 0 1.00005 0.00309753
253 5.65489 4.7948 0.332286 0 0 1.00005 0.00313968
174 6.35753 3.98992 0.185534 0 0 1.00004 0.0030528
255 6.34456 4.775 1.06078 0 0 1.00004 0.00313251
180 7.09896 3.8412 0.808559 0 0 1.00004 0.00302085
1097 7.27326 4.60267 1.69435 0 0 1.00004 0.00310443
260 7.27752 5.23075 0.893881 0 0 1.00004 0.00313373
259 7.97421 4.53869 0.580711 0 0 1.00004 0.00303127
1018 7.97125 3.93152 1.54444 0 0 1.00004 0.0030089
184 8.73117 3.94375 0.733941 0 0 1.00004 0.002943
1101 8.75561 4.69269 1.52762 0 0 1.00004 0.00302707
263 9.58024 4.65169 0.847213 0 0 1.00004 0.00294906
1022 9.55637 3.84396 1.54891 0 0 1.00004 0.00290666
182 9.47822 3.93813 0.0630148 0 0 1.00004 0.00288707
265 10.3198 4.6116 0.134267 0 0 1.00004 0.00288173
188 10.3387 3.65954 0.914984 0 0 1.00004 0.00281603
1105 10.3552 4.44364 1.71359 0 0 1.00004 0.00290545
267 11.0275 4.73024 0.936734 0 0 1.00004 0.00285154
1026 11.1209 3.65323 1.64139 0 0 1.00004 0.00277913
186 11.0112 3.91263 0.175646 0 0 1.00004 0.00277202
1109 11.7732 4.48562 1.74948 0 0 1.00003 0.00280078
192 11.7884 3.71197 0.827445 0 0 1.00004 0.00270521
269 11.7844 4.78289 0.226642 0 0 1.00003 0.00278334
196 12.8387 3.66725 0.837007 0 0 1.00004 0.00261879
271 12.5556 4.63027 1.02932 0 0 1.00003 0.00272338
1113 13.1412 5.05506 1.7349 0 0 1.00003 0.00274152
273 12.9781 4.69074 0.0592992 0 0 1.00003 0.00267878
275 13.568 4.77928 0.819124 0 0 1.00003 0.00264818
200 14.2979 4.17258 0.715504 0 0 1.00004 0.00253798
1034 13.817 4.28146 1.62609 0 0 1.00003 0.00261373
1117 14.5215 5.1731 1.56514 0 0 1.00003 0.00263488
277 14.4485 4.94799 0.080077 0 0 1.00003 0.00258373
279 15.243 5.06531 0.831462 0 0 1.00004 0.00254639
198 15.2308 4.22336 0.108515 0 0 1.00004 0.00246781
1038 15.2631 4.44699 1.61932 0 0 1.00004 0.00251799
204 15.9244 4.09338 0.928529 0 0 1.00004 0.00242362
281 16.132 4.79966 0.18862 0 0 1.00004 0.00245531
1042 16.582 3.98243 1.7017 0 0 1.00004 0.00240233
1121 16.105 5.07437 1.66768 0 0 1.00004 0.00251918
283 16.8511 4.60386 0.910683 0 0 1.00004 0.00240984
208 17.5091 3.83478 0.813806 0 0 1.00004 0.00232033
287 18.3275 4.47982 1.09452 0 0 1.00004 0.00234499
1046 18.1913 3.63865 1.65878 0 0 1.00004 0.00230653
285 17.6857 4.58041 0.0243214 0 0 1.00004 0.00235931
206 18.3722 3.84233 0.0704677 0 0 1.00004 0.00228337
212 19.104 3.69358 0.955814 0 0 1.00004 0.00226952
289 19.0771 4.5907 0.358149 0 0 1.00004 0.00232337
291 19.9427 4.62946 1.09474 0 0 1.00005 0.00233293
292 19.0465 5.25319 1.19305 0 0 1.00004 0.0023942
210 19.8443 3.73704 0.238494 0 0 1.00005 0.00225595
216 20.7022 3.77794 1.21981 0 0 1.00005 0.00227992
295 21.1788 4.66236 1.36316 0 0 1.00005 0.00235664
214 21.3816 3.88835 0.506902 0 0 1.00005 0.00228599
293 20.429 4.7389 0.338651 0 0 1.00005 0.00232887
297 21.9215 4.88536 0.780887 0 0 1.00005 0.00237956
219 23.1736 3.55391 1.38176 0 0 1.00005 0.00235473
220 22.2601 4.06731 1.28534 0 0 1.00005 0.00234398
299 22.846 5.07794 1.24966 0 0 1.00005 0.002446
218 22.9749 4.27148 0.517497 0 0 1.00005 0.00237406
221 23.9505 3.56167 0.756146 0 0 1.00006 0.00238498
222 24.7548 4.24935 0.615691 0 0 1.00006 0.00248281
224 23.8597 4.45628 1.31094 0 0 1.00006 0.00245585
301 23.9471 4.98139 0.515378 0 0 1.00006 0.00248358
303 24.8107 5.19183 1.39184 0 0 1.00006 0.00258298
305 25.3332 5.14393 0.548181 0 0 1.00006 0.00259621
228 25.4807 4.39613 1.56311 0 0 1.00006 0.00257384
225 25.5038 3.57931 0.762453 0 0 1.00006 0.00249505
307 26.2122 5.04015 1.3157 0 0 1.00006 0.00267557
226 26.015 4.32048 0.39551 0 0 1.00006 0.00258013
232 26.8825 4.20232 1.3412 0 0 1.00006 0.00266339
309 27.0454 4.88774 0.62346 0 0 1.00006 0.00271356
311 27.908 4.78508 1.36229 0 0 1.00006 0.0027951
230 27.5985 3.96249 0.572666 0 0 1.00006 0.00268544
236 28.5309 3.90277 1.08619 0 0 1.00006 0.00276666
313 28.8752 4.66586 0.683086 0 0 1.00006 0.00284466
234 29.526 3.72632 0.459047 0 0 1.00006 0.00281894
315 29.7059 4.45244 1.28806 0 0 1.00006 0.00290572
314 30.0394 5.24629 0.793642 0 0 1.00006 0.00298517
240 30.6238 3.9956 1.0137 0 0 1.00006 0.0029255
238 31.6758 3.96043 0.345322 0 0 1.00006 0.00297535
317 30.8617 4.64611 0.458625 0 0 1.00006 0.002983
319 31.6535 4.5744 1.3612 0 0 1.00006 0.00304512
242 1.63521 5.50782 0.455911 0 0 1.00005 0.00318251
323 1.55205 6.17928 1.27451 0 0 1.00006 0.00326589
324 1.013 6.91413 1.477 0 0 1.00006 0.00333095
321 0.721202 5.97985 0.452249 0 0 1.00006 0.00319207
398 0.222575 6.90143 0.603882 0 0 1.00006 0.00326401
399 0.190082 6.1075 1.36168 0 0 1.00006 0.00320233
322 1.74938 6.91648 0.563067 0 0 1.00006 0.00332982
248 2.27952 5.5044 1.36517 0 0 1.00005 0.00322598
328 2.48298 7.02356 1.25441 0 0 1.00005 0.003381
325 2.61389 6.2038 0.502031 0 0 1.00005 0.00327765
327 3.03486 6.18415 1.41567 0 0 1.00005 0.00330877
246 3.39715 5.61386 0.278945 0 0 1.00005 0.00322874
252 3.85583 5.65738 1.29719 0 0 1.00005 0.00325952
332 4.00895 7.00691 1.1746 0 0 1.00005 0.00339483
329 4.12967 6.30345 0.48602 0 0 1.00005 0.00330155
250 4.88733 5.51173 0.33541 0 0 1.00005 0.0032178
331 4.84141 6.1437 1.25369 0 0 1.00005 0.0033024
330 4.7535 7.05397 0.243926 0 0 1.00005 0.00337568
336 5.51225 6.88688 1.19041 0 0 1.00005 0.00336793
333 5.53875 6.29849 0.332093 0 0 1.00005 0.00328556
256 5.62719 5.5016 1.31639 0 0 1.00005 0.00322734
254 6.41305 5.47362 0.297937 0 0 1.00004 0.00317964
335 6.36574 6.28845 0.988868 0 0 1.00004 0.00327736
337 7.05166 6.15963 0.150877 0 0 1.00004 0.00322223
1177 7.13543 6.0818 1.65176 0 0 1.00004 0.00325228
340 7.13097 6.96157 1.0103 0 0 1.00004 0.00332061
339 7.94437 6.2353 0.789516 0 0 1.00004 0.00320025
1098 8.00925 5.49201 1.54871 0 0 1.00004 0.0031464
1178 7.95692 6.94266 1.6602 0 0 1.00004 0.00331023
258 7.91939 5.44358 0.0398186 0 0 1.00004 0.00311124
344 8.65043 6.96503 0.7532 0 0 1.00004 0.00323665
264 8.77149 5.41035 0.729745 0 0 1.00004 0.00306897
1181 8.82871 6.22284 1.55935 0 0 1.00004 0.00317721
343 9.45916 6.29186 0.769527 0 0 1.00004 0.00311522
1102 9.58815 5.42988 1.63833 0 0 1.00004 0.00305032
262 9.53989 5.57166 0.0261832 0 0 1.00004 0.00302672
268 10.2697 5.43036 0.828154 0 0 1.00004 0.00297148
1185 10.2789 6.2854 1.5418 0 0 1.00003 0.00308513
345 10.2849 6.35173 0.10282 0 0 1.00004 0.00305351
347 11.0844 6.13744 0.981649 0 0 1.00003 0.00298414
1186 11.0076 7.05376 1.56318 0 0 1.00003 0.00311854
266 10.9581 5.6647 0.0202586 0 0 1.00004 0.00293205
349 11.7806 6.46996 0.078971 0 0 1.00003 0.00294897
272 11.8242 5.37579 1.04093 0 0 1.00003 0.00285229
270 12.4011 5.70406 0.193036 0 0 1.00003 0.00281961
276 13.0695 5.88779 0.893239 0 0 1.00003 0.00279697
351 12.2149 6.32941 1.0892 0 0 1.00003 0.00291771
274 13.6674 5.61896 0.0440119 0 0 1.00003 0.00270678
1114 13.7138 5.95486 1.62249 0 0 1.00003 0.0027785
355 13.7477 6.65418 0.829688 0 0 1.00003 0.00281667
280 14.4064 5.78846 0.79921 0 0 1.00003 0.00267593
1197 14.6851 6.71735 1.46464 0 0 1.00003 0.00277572
357 14.4876 6.46038 0.0438453 0 0 1.00003 0.00272495
278 15.3131 5.67955 0.0435154 0 0 1.00003 0.0025867
359 15.3752 6.50886 0.823861 0 0 1.00003 0.00267616
284 16.1261 5.76906 0.958174 0 0 1.00004 0.00255535
1118 15.4374 5.91943 1.72933 0 0 1.00003 0.00264904
361 15.9928 6.38781 0.051064 0 0 1.00004 0.00260823
363 16.7949 6.48189 1.16528 0 0 1.00004 0.00259224
282 16.8926 5.4424 0.274416 0 0 1.00004 0.00246779
286 18.0974 5.31319 0.53847 0 0 1.00004 0.00240824
288 17.3774 5.43735 1.25508 0 0 1.00004 0.00246582
365 17.3692 6.29517 0.411823 0 0 1.00004 0.00252474
367 17.9571 6.24829 1.37911 0 0 1.00004 0.00252325
372 18.5932 7.04333 1.15055 0 0 1.00004 0.00257279
369 18.6706 6.21253 0.616548 0 0 1.00004 0.00247264
290 19.7271 5.70998 0.614907 0 0 1.00004 0.00241188
371 19.6321 6.51487 1.32666 0 0 1.00004 0.00250812
373 20.3264 6.6836 0.601992 0 0 1.00005 0.00250139
294 21.0839 5.7023 0.633974 0 0 1.00005 0.0024215
296 20.4826 5.55213 1.3719 0 0 1.00005 0.00242015
375 21.1263 6.53338 1.27864 0 0 1.00005 0.00251792
377 22.028 6.57927 0.653675 0 0 1.00005 0.0025294
300 22.0119 5.78525 1.34034 0 0 1.00005 0.00247554
16260 22.051 5.65463 0.0543414 0 0 1.00005 0.00243961
298 23.0622 5.7453 0.634876 0 0 1.00005 0.00249876
379 23.0502 6.58285 1.16824 0 0 1.00006 0.00259186
381 23.7968 6.65266 0.265265 0 0 1.00006 0.00261951
304 23.9185 5.78722 1.24052 0 0 1.00006 0.00256931
383 24.8215 6.45575 1.13185 0 0 1.00006 0.00269307
302 24.6019 5.88732 0.402514 0 0 1.00006 0.00260459
306 26.226 5.75388 0.663162 0 0 1.00006 0.00272303
308 25.627 5.91959 1.60118 0 0 1.00006 0.00272073
385 25.6896 6.60161 0.47327 0 0 1.00006 0.00275591
387 26.4231 6.48688 1.35938 0 0 1.00006 0.0028327
312 27.2721 5.74655 1.42092 0 0 1.00006 0.00283239
310 28.1073 5.4611 0.687501 0 0 1.00006 0.00285327
389 27.3472 6.26582 0.611188 0 0 1.00006 0.00286431
391 28.3349 6.35504 1.32707 0 0 1.00006 0.00297655
390 28.3741 6.90768 0.499488 0 0 1.00006 0.00301203
392 27.4317 7.01031 1.28403 0 0 1.00006 0.00296827
316 29.0143 5.44171 1.42716 0 0 1.00006 0.00294691
393 29.1386 6.1339 0.634924 0 0 1.00006 0.00299923
16355 30.053 6.06526 0.0734178 0 0 1.00006 0.0030536
16276 29.1119 5.3281 0.0341473 0 0 1.00006 0.00291488
396 29.3527 7.00947 1.18973 0 0 1.00006 0.00312136
395 30.1306 6.12929 1.28852 0 0 1.00006 0.00309164
394 30.3009 6.8745 0.493159 0 0 1.00006 0.00315789
318 31.6695 5.31647 0.580608 0 0 1.00006 0.00309095
320 30.9115 5.39367 1.41684 0 0 1.00006 0.00307561
397 31.0946 6.13865 0.620643 0 0 1.00006 0.00313664
400 31.0831 7.02314 1.16017 0 0 1.00006 0.00324163
401 1.0617 7.62604 0.638285 0 0 1.00006 0.00338077
404 1.18046 8.51685 1.44132 0 0 1.00006 0.0035103
478 0.508344 8.56091 0.38456 0 0 1.00006 0.00345108
479 0.288698 7.76059 1.2765 0 0 1.00006 0.00337955
402 1.69408 8.46686 0.587423 0 0 1.00006 0.0034933
403 1.91805 7.82983 1.4806 0 0 1.00006 0.00346365
405 2.4067 7.76425 0.392127 0 0 1.00005 0.00343514
408 2.58246 8.62008 1.45988 0 0 1.00005 0.00356617
326 3.25665 7.14202 0.468157 0 0 1.00005 0.00338613
406 3.05652 8.61805 0.400647 0 0 1.00005 0.00353972
407 3.21661 7.82628 1.29191 0 0 1.00005 0.00348238
412 3.8759 8.5555 0.970259 0 0 1.00005 0.00355606
409 4.03178 7.79099 0.339377 0 0 1.00005 0.00345759
410 4.64039 8.50102 0.0804064 0 0 1.00005 0.00353129
411 4.76977 7.68258 1.23189 0 0 1.00005 0.00346579
413 5.44846 7.7254 0.235663 0 0 1.00005 0.00343609
416 5.49393 8.34342 0.974623 0 0 1.00005 0.00352117
334 6.26234 7.10946 0.1653 0 0 1.00004 0.0033514
414 6.63076 8.44154 0.192389 0 0 1.00004 0.0034845
415 6.24024 7.64878 1.04285 0 0 1.00004 0.00342786
420 7.13656 8.28781 1.08826 0 0 1.00004 0.00346906
417 7.2009 7.65426 0.16913 0 0 1.00004 0.00337678
419 7.99207 7.85627 0.781679 0 0 1.00004 0.00337332
1258 7.99229 8.26932 1.7564 0 0 1.00004 0.0034639
1182 9.67378 7.07928 1.52844 0 0 1.00003 0.00321604
421 8.65854 7.72417 0.0238426 0 0 1.00004 0.00331019
1261 8.73283 7.60228 1.62185 0 0 1.00004 0.00334002
424 8.93337 8.44264 0.918682 0 0 1.00004 0.00339205
423 9.53028 7.73678 0.697662 0 0 1.00003 0.00326621
1262 9.73056 8.80999 1.52664 0 0 1.00003 0.00341364
346 11.042 7.07588 0.140248 0 0 1.00003 0.00307271
1265 10.2853 8.00011 1.65756 0 0 1.00003 0.00328797
428 10.3464 8.73602 0.740497 0 0 1.00003 0.00332451
348 10.3903 7.31948 0.771289 0 0 1.00003 0.00316281
427 11.1348 8.0536 0.884021 0 0 1.00003 0.0031924
429 11.753 8.23457 0.0494931 0 0 1.00003 0.0031452
352 11.7944 7.25486 0.845283 0 0 1.00003 0.00304815
1269 11.9128 7.94463 1.6642 0 0 1.00003 0.00315602
356 13.1498 7.40075 0.606411 0 0 1.00003 0.00294325
431 12.6662 8.32326 0.640009 0 0 1.00003 0.00309001
1190 12.5667 7.26989 1.45 0 0 1.00003 0.0030112
1270 12.5975 8.80624 1.57605 0 0 1.00003 0.00319482
1273 13.3157 8.11775 1.54773 0 0 1.00003 0.00305163
350 12.3685 7.48056 0.00092866 0 0 1.00003 0.00300916
360 14.6917 7.42615 0.644741 0 0 1.00003 0.00282078
435 14.0408 8.19406 0.514032 0 0 1.00003 0.0029551
1194 13.8953 7.42236 1.41642 0 0 1.00003 0.00291411
1277 14.672 8.24123 1.41652 0 0 1.00003 0.00294368
439 15.4784 8.3493 0.892223 0 0 1.00003 0.00286893
364 15.9826 7.34976 0.921255 0 0 1.00003 0.00272321
443 16.6375 8.19017 1.12563 0 0 1.00003 0.00278159
1198 15.5105 7.58305 1.69008 0 0 1.00003 0.00282326
441 16.2159 8.3368 0.158597 0 0 1.00003 0.00279874
362 16.7655 7.20944 0.295293 0 0 1.00004 0.00264673
368 17.3149 7.36732 1.12425 0 0 1.00004 0.00265506
445 17.4046 8.12523 0.323048 0 0 1.00004 0.00270854
447 18.07 8.02711 1.04221 0 0 1.00004 0.00268726
366 18.1403 7.17354 0.23019 0 0 1.00004 0.00257781
370 19.3508 7.29395 0.622259 0 0 1.00004 0.00256509
451 19.2947 8.11713 1.16954 0 0 1.00004 0.00266958
449 18.8109 8.16684 0.19447 0 0 1.00004 0.00265634
453 20.1727 8.07465 0.359603 0 0 1.00005 0.0026339
376 20.2373 7.59122 1.29381 0 0 1.00005 0.00261419
374 21.0737 7.38312 0.642445 0 0 1.00005 0.00258006
455 21.0614 8.34926 1.00738 0 0 1.00005 0.00268822
380 21.9592 7.56882 1.10515 0 0 1.00005 0.00263763
457 22.044 8.24198 0.255564 0 0 1.00005 0.00268671
459 23.063 8.07139 0.971127 0 0 1.00006 0.00273424
1218 22.8661 7.3856 1.6932 0 0 1.00006 0.00268779
378 22.7719 7.37416 0.371925 0 0 1.00005 0.00263355
458 23.237 8.78408 0.196725 0 0 1.00006 0.00279778
1298 22.9088 8.78405 1.5459 0 0 1.00006 0.00282951
384 23.928 7.20931 1.02828 0 0 1.00006 0.00270049
461 23.985 7.96429 0.351289 0 0 1.00006 0.0027647
463 24.8937 7.96415 0.949398 0 0 1.00006 0.00284426
1302 24.8322 8.6103 1.62868 0 0 1.00006 0.00294437
382 24.8375 7.19542 0.267945 0 0 1.00006 0.00274492
462 24.8766 8.68725 0.197099 0 0 1.00006 0.00290082
1301 23.8824 7.92252 1.72322 0 0 1.00006 0.00280611
388 25.6872 7.26672 1.19468 0 0 1.00006 0.00284469
467 26.6569 7.89191 0.951207 0 0 1.00006 0.00298162
1306 26.6847 8.50563 1.67899 0 0 1.00007 0.00308958
386 26.6749 7.14414 0.361506 0 0 1.00006 0.00288943
465 25.8093 7.98151 0.301812 0 0 1.00006 0.00290354
468 25.9057 8.72405 0.955377 0 0 1.00006 0.00300751
466 26.9137 8.46528 0.0911288 0 0 1.00007 0.00304691
472 27.6822 8.54518 0.983897 0 0 1.00007 0.00314286
469 27.6531 7.67152 0.414028 0 0 1.00006 0.00302887
471 28.5099 7.72151 1.16373 0 0 1.00006 0.00312964
1310 28.5341 8.57724 1.72702 0 0 1.00007 0.00325683
470 28.6816 8.39998 0.384912 0 0 1.00006 0.00319376
476 29.5271 8.45692 1.14606 0 0 1.00006 0.00328865
473 29.4311 7.6493 0.39872 0 0 1.00006 0.00317389
475 30.2497 7.60558 1.2477 0 0 1.00006 0.00325264
474 30.3776 8.3156 0.524018 0 0 1.00006 0.0033172
480 31.2388 8.42426 1.16938 0 0 1.00006 0.00340292
477 31.4121 7.81957 0.378724 0 0 1.00006 0.00332594
484 1.15116 9.91628 0.911988 0 0 1.00006 0.00363601
481 1.23364 9.31398 0.12858 0 0 1.00006 0.00356179
559 0.367879 9.23083 1.11796 0 0 1.00006 0.0035368
558 0.376152 9.90728 0.072152 0 0 1.00006 0.00358149
1322 1.73651 10.1087 1.74303 0 0 1.00006 0.00372296
483 1.90014 9.32939 1.18615 0 0 1.00006 0.00361293
482 2.02825 10.2671 0.255403 0 0 1.00006 0.00368616
485 2.62116 9.4601 0.428754 0 0 1.00006 0.00362311
488 2.735 10.3401 0.979953 0 0 1.00006 0.00373028
487 3.25275 9.45166 1.21242 0 0 1.00005 0.00365743
486 3.47327 10.291 0.0708115 0 0 1.00005 0.00371627
1326 3.67051 10.2499 1.68467 0 0 1.00005 0.00377181
489 3.93581 9.37475 0.115276 0 0 1.00005 0.00362583
1329 4.10523 9.28484 1.71108 0 0 1.00005 0.00367168
492 4.25497 10.0846 0.771334 0 0 1.00005 0.00371214
491 4.77798 9.15548 0.878014 0 0 1.00005 0.00361599
1330 5.00919 10.0139 1.62269 0 0 1.00005 0.00374156
493 5.39558 9.27113 0.00185682 0 0 1.00005 0.00360561
496 5.45915 10.0465 0.585024 0 0 1.00005 0.00369488
1333 5.52425 9.12076 1.67473 0 0 1.00005 0.00364218
495 6.13152 9.04972 0.682046 0 0 1.00004 0.00357648
1334 6.18061 9.91645 1.2448 0 0 1.00004 0.0036886
1337 6.95325 9.16519 1.31379 0 0 1.00004 0.00358764
500 7.0341 9.88839 0.541611 0 0 1.00004 0.00363382
499 7.89723 8.98297 0.756446 0 0 1.00004 0.00350386
1338 7.93156 9.85152 1.25869 0 0 1.00004 0.00361885
504 8.70981 10.0494 0.611693 0 0 1.00004 0.0035724
1341 8.76543 9.27986 1.46689 0 0 1.00004 0.00352394
501 8.8004 9.16719 0.0965658 0 0 1.00004 0.00346301
503 9.62557 9.56053 0.765762 0 0 1.00003 0.00346923
1342 9.48256 10.3491 1.49031 0 0 1.00003 0.00360002
1266 11.1717 8.85315 1.51434 0 0 1.00003 0.00331291
508 10.3279 10.4393 0.717006 0 0 1.00003 0.00351257
1345 10.476 9.69216 1.50386 0 0 1.00003 0.00346137
426 11.0001 8.98957 0.0334216 0 0 1.00003 0.00329055
507 11.0947 9.79302 0.710439 0 0 1.00003 0.0033867
1346 11.2702 10.3137 1.72549 0 0 1.00003 0.00348666
432 11.9018 8.9643 0.772209 0 0 1.00003 0.00322973
1349 11.9265 9.72951 1.41735 0 0 1.00003 0.00334744
511 12.6443 9.90663 0.732346 0 0 1.00003 0.00327195
1353 13.1177 9.73265 1.69991 0 0 1.00003 0.00326889
436 13.4537 9.04505 0.823166 0 0 1.00003 0.00310978
1274 14.1436 8.96972 1.63718 0 0 1.00003 0.00308812
440 14.8866 9.24915 0.804876 0 0 1.00003 0.00301151
515 14.0237 9.80376 0.892919 0 0 1.00003 0.00314723
517 14.7404 10.2006 0.237223 0 0 1.00003 0.00310938
444 16.2947 9.19221 1.15793 0 0 1.00003 0.0029165
519 15.576 9.93723 1.05919 0 0 1.00003 0.00304277
521 16.1156 10.2092 0.251133 0 0 1.00003 0.00300307
438 15.6874 9.25422 0.13653 0 0 1.00003 0.00293392
442 16.8789 9.08287 0.274102 0 0 1.00003 0.00283735
523 16.9203 9.98936 0.990047 0 0 1.00003 0.00295119
448 17.4786 9.06799 1.13659 0 0 1.00004 0.00283055
525 17.5726 10.0317 0.201684 0 0 1.00004 0.00289466
527 18.1841 9.85658 1.07684 0 0 1.00004 0.00287692
446 18.1409 9.10204 0.127317 0 0 1.00004 0.00277409
452 18.6854 8.89252 0.948748 0 0 1.00004 0.00275458
529 19.0037 9.72135 0.306841 0 0 1.00004 0.00281132
531 19.9227 9.85626 0.858062 0 0 1.00004 0.00282874
532 19.1512 10.4434 1.1423 0 0 1.00004 0.00290985
1369 19.0634 9.5689 1.70219 0 0 1.00004 0.00286158
450 19.6225 8.92785 0.214416 0 0 1.00004 0.00272068
456 20.2389 8.90394 1.03338 0 0 1.00005 0.00273806
533 20.4393 9.73405 0.0692655 0 0 1.00005 0.00279789
535 21.4028 9.74049 0.751541 0 0 1.00005 0.00282845
1373 20.685 9.6109 1.63296 0 0 1.00005 0.00285136
454 21.2136 8.99685 0.192966 0 0 1.00005 0.00273693
1374 21.5767 10.039 1.72386 0 0 1.00005 0.00292018
536 20.8787 10.5714 0.797993 0 0 1.00005 0.00289959
460 22.0853 8.94314 0.948265 0 0 1.00005 0.00277761
539 23.3637 9.60009 0.786752 0 0 1.00006 0.00290294
540 22.639 10.4329 0.810746 0 0 1.00006 0.002943
1377 22.4508 9.70355 1.48155 0 0 1.00006 0.00289989
537 22.4572 9.71269 0.217651 0 0 1.00005 0.00285083
1378 23.6131 10.4162 1.38216 0 0 1.00006 0.00303065