ITEM: TIMESTEP
12500
ITEM: NUMBER OF ATOMS
32000
ITEM: BOX BOUNDS pp pp pp
0.0000000000000000e+00 3.1748021039364001e+01
0.0000000000000000e+00 3.1748021039364001e+01
0.0000000000000000e+00 3.1748021039364001e+01
ITEM: ATOMS id x y z c_phase c_nbond c_rho vx
4 0.172735 1.10088 0.466702 0 0 1.00001 0.000703576
83 1.0293 1.66859 0.780192 0 0 1.00002 0.000720576
842 0.771633 0.792915 1.4122 0 0 1.00002 0.000715831
921 0.0618625 1.60098 1.37667 0 0 1.00001 0.000722907
3 0.785238 0.0659923 0.618955 0 0 1.00002 0.000700353
8 1.76505 0.813981 1.01583 0 0 1.00003 0.000700166
85 1.85634 1.47986 0.21952 0 0 1.00003 0.000701529
925 1.88098 1.66234 1.7613 0 0 1.00003 0.000727466
6 2.57104 0.749419 0.204502 0 0 1.00004 0.000669659
7 2.64075 0.0556299 1.03941 0 0 1.00004 0.000670745
87 2.69987 1.54411 0.883266 0 0 1.00004 0.000682333
846 2.72348 0.819461 1.74674 0 0 1.00004 0.000685839
12 3.47933 0.934714 0.961182 0 0 1.00005 0.00063776
849 3.54473 0.0918623 1.71145 0 0 1.00005 0.000641368
929 3.65426 1.71178 1.72403 0 0 1.00005 0.000656685
10 4.15043 0.861036 0.325301 0 0 1.00005 0.000589964
16 5.00147 0.569341 1.17589 0 0 1.00006 0.00053392
93 4.95702 1.60538 0.386002 0 0 1.00006 0.00054477
850 4.38559 0.945842 1.63657 0 0 1.00006 0.000593436
9 3.52103 0.109704 0.172926 0 0 1.00005 0.000622292
14 5.67841 0.647603 0.326278 0 0 1.00006 0.000468529
95 5.91384 1.31708 0.944493 0 0 1.00006 0.000460984
97 6.59805 1.39844 0.219973 0 0 1.00007 0.000388961
854 5.81567 0.462182 1.7069 0 0 1.00006 0.00047296
933 5.06688 1.72904 1.44202 0 0 1.00006 0.000550372
20 6.73539 0.39361 0.87095 0 0 1.00007 0.000368924
937 6.71394 1.01533 1.70251 0 0 1.00007 0.000391048
24 8.27332 0.411493 1.07903 0 0 1.00007 0.000203644
99 7.3832 1.22967 0.959118 0 0 1.00007 0.000309581
101 8.25305 1.39819 0.238634 0 0 1.00007 0.000209465
941 8.13677 1.27934 1.61617 0 0 1.00007 0.000236849
18 7.59514 0.652178 0.142488 0 0 1.00007 0.000273725
22 8.85771 0.511352 0.275465 0 0 1.00007 0.000130453
28 9.54554 0.340156 0.894478 0 0 1.00006 5.44594e-05
103 9.0235 1.31455 1.11888 0 0 1.00007 0.000127621
105 9.63093 1.38122 0.0916527 0 0 1.00006 4.96476e-05
32 11.1871 0.217086 0.637717 0 0 1.00005 -0.000131017
107 10.3476 1.05343 0.828324 0 0 1.00006 -3.28449e-05
866 10.5049 0.1981 1.45356 0 0 1.00006 -4.8864e-05
949 11.2613 1.0227 1.42534 0 0 1.00005 -0.000127352
946 10.5609 1.6867 1.73879 0 0 1.00006 -3.64131e-05
26 10.2282 0.369595 0.0789824 0 0 1.00006 -2.73895e-05
36 12.8381 0.213895 0.640809 0 0 1.00004 -0.000290257
111 12.0116 1.07887 0.51114 0 0 1.00005 -0.000211807
870 12.0983 0.317844 1.30682 0 0 1.00004 -0.000217403
953 12.6816 1.20183 1.37919 0 0 1.00004 -0.000266897
40 14.3262 0.323761 0.773054 0 0 1.00002 -0.000396197
115 13.5471 1.11515 0.847399 0 0 1.00003 -0.000341408
117 13.9957 1.56293 0.165025 0 0 1.00002 -0.000372242
874 13.5653 0.361537 1.64088 0 0 1.00003 -0.000340008
957 14.33 1.15325 1.48197 0 0 1.00002 -0.000387411
119 14.828 1.55586 0.664951 0 0 1.00001 -0.000415655
44 15.6566 0.768468 0.788542 0 0 1 -0.000450253
123 16.4992 1.54287 0.681928 0 0 0.999993 -0.00045912
878 15.0917 0.464856 1.64369 0 0 1.00001 -0.000427012
882 16.4942 0.710623 1.34258 0 0 0.999993 -0.000460337
961 15.5797 1.48871 1.39372 0 0 1 -0.000439629
38 15.0537 0.711885 0.067201 0 0 1.00001 -0.000432121
48 17.2069 0.730345 0.550272 0 0 0.999984 -0.000461396
127 17.8744 1.57899 0.755254 0 0 0.999977 -0.000442001
886 17.8671 0.742226 1.42492 0 0 0.999977 -0.000443784
965 17.1677 1.74601 1.56181 0 0 0.999985 -0.000449392
51 19.4972 0.0150064 0.661476 0 0 0.99996 -0.000371064
52 18.7473 0.724254 0.684033 0 0 0.999967 -0.000412941
131 19.4993 1.54913 0.839057 0 0 0.99996 -0.000363778
889 18.9824 0.156136 1.54146 0 0 0.999965 -0.000398177
890 19.5534 0.964087 1.68535 0 0 0.99996 -0.000358381
969 18.613 1.50701 1.49674 0 0 0.999969 -0.000409716
55 21.0654 0.348033 1.0631 0 0 0.999949 -0.000244263
56 20.214 0.773539 0.975155 0 0 0.999954 -0.000315627
135 21.0781 1.64698 0.948915 0 0 0.999949 -0.000232764
54 21.1602 0.762166 0.217156 0 0 0.999948 -0.000236727
133 20.3116 1.50806 0.194674 0 0 0.999954 -0.00030632
57 21.9908 0.261988 0.536918 0 0 0.999944 -0.000155632
59 22.7816 0.427479 1.39995 0 0 0.999942 -6.32517e-05
60 22.0934 1.14199 1.32343 0 0 0.999945 -0.000133769
137 21.9791 1.59183 0.534437 0 0 0.999945 -0.000147133
58 22.9064 1.06747 0.443943 0 0 0.999942 -5.08436e-05
63 24.2343 0.377731 1.44329 0 0 0.999942 0.00010631
61 23.5649 0.355024 0.570918 0 0 0.999941 1.95061e-05
62 24.4436 1.17971 0.750571 0 0 0.999943 0.000128983
64 23.4735 1.24213 1.39506 0 0 0.999942 2.41309e-05
65 24.9677 0.313864 0.548849 0 0 0.999944 0.000182496
67 26.0309 0.38051 1.1661 0 0 0.999949 0.000306423
68 25.184 1.1197 1.47225 0 0 0.999945 0.000223824
147 25.9535 1.72652 1.35049 0 0 0.99995 0.000317823
66 25.9134 0.925681 0.42915 0 0 0.999948 0.000291397
70 27.6108 1.276 0.386706 0 0 0.999961 0.000469126
71 27.6509 0.506174 0.871078 0 0 0.999961 0.000468005
72 26.7856 1.02357 1.25702 0 0 0.999954 0.000394107
69 26.8218 0.239358 0.226443 0 0 0.999954 0.000380726
913 28.4202 0.337911 1.39737 0 0 0.999969 0.000539188
76 28.694 1.23618 0.737757 0 0 0.999972 0.000561559
914 29.4368 0.947346 1.56543 0 0 0.99998 0.00062052
993 28.5667 1.71503 1.49466 0 0 0.999971 0.00057106
917 29.8672 0.170791 1.45757 0 0 0.999985 0.000638287
75 29.3209 0.353911 0.614115 0 0 0.999978 0.000594229
841 31.644 0.26696 1.25684 0 0 1.00001 0.000700196
79 30.7584 0.485731 0.472958 0 0 0.999996 0.000667554
80 30.1506 1.1966 0.772587 0 0 0.999988 0.000652613
918 30.9184 0.970747 1.39236 0 0 0.999998 0.000689844
82 1.16732 2.43818 0.127467 0 0 1.00002 0.000736408
84 0.191549 2.38215 0.811153 0 0 1.00001 0.000736519
163 1.34603 3.23842 0.94898 0 0 1.00002 0.000771684
922 1.19765 2.36413 1.5924 0 0 1.00002 0.000753455
1001 0.445915 3.03298 1.54974 0 0 1.00001 0.000776806
161 0.390724 3.09853 0.13132 0 0 1.00001 0.00075896
88 1.96622 2.42131 0.78569 0 0 1.00003 0.000727925
167 2.71193 3.28688 0.862313 0 0 1.00004 0.000737919
926 2.72395 2.23661 1.53946 0 0 1.00004 0.000711353
1009 3.31214 3.43317 1.65543 0 0 1.00004 0.000734327
86 2.77703 2.38753 0.05585 0 0 1.00004 0.000696028
92 3.43159 2.56206 0.783164 0 0 1.00005 0.000675627
91 4.05181 1.84577 0.714465 0 0 1.00005 0.000616407
96 4.95186 2.58139 0.820232 0 0 1.00006 0.000575114
171 4.24725 3.3281 0.753377 0 0 1.00005 0.000654029
930 4.18074 2.65 1.58836 0 0 1.00005 0.000648146
94 5.68318 2.45369 0.1347 0 0 1.00006 0.000500977
100 6.58245 2.19148 0.777996 0 0 1.00007 0.000412041
175 5.68408 3.20942 0.958673 0 0 1.00006 0.00053592
934 5.89275 2.20589 1.50365 0 0 1.00006 0.00049356
1017 6.54899 3.08148 1.56386 0 0 1.00006 0.000458275
177 6.67405 2.94263 0.135098 0 0 1.00007 0.000420033
98 7.46912 2.23714 0.141041 0 0 1.00007 0.000314882
104 8.09156 2.21353 0.936742 0 0 1.00007 0.000250217
179 7.41885 3.08286 0.939348 0 0 1.00007 0.000353721
938 7.31704 2.07151 1.5776 0 0 1.00007 0.000344838
1021 8.19518 3.01752 1.66282 0 0 1.00007 0.000276276
181 8.27711 2.98592 0.0403206 0 0 1.00007 0.000243966
102 8.90402 2.09847 0.254423 0 0 1.00007 0.000147438
108 9.76337 2.03499 1.11592 0 0 1.00006 5.35704e-05
183 8.92687 2.98784 0.935639 0 0 1.00006 0.000174872
942 9.02952 2.23311 1.71485 0 0 1.00006 0.00015445
185 9.55449 2.92047 0.214516 0 0 1.00006 9.09642e-05
106 10.2683 2.12396 0.215401 0 0 1.00006 -1.17171e-05
112 11.1345 1.83565 0.775925 0 0 1.00005 -0.000110087
187 10.6031 2.82144 0.927343 0 0 1.00006 -2.95847e-05
1029 11.4169 2.84357 1.58553 0 0 1.00005 -0.000107649
116 12.6363 1.9483 0.597943 0 0 1.00004 -0.000260474
191 11.8968 2.65325 0.745907 0 0 1.00005 -0.000176081
950 11.8936 1.92868 1.4733 0 0 1.00005 -0.000181199
1033 12.8058 3.02892 1.69607 0 0 1.00004 -0.00024141
195 13.1424 3.03724 0.850009 0 0 1.00003 -0.000283732
954 13.337 1.998 1.48632 0 0 1.00003 -0.000311087
120 13.9743 2.45097 0.928197 0 0 1.00002 -0.000355974
1037 13.9809 3.39313 1.56189 0 0 1.00002 -0.000329374
199 14.6468 3.44223 0.884798 0 0 1.00001 -0.000378864
958 14.7364 2.30301 1.44772 0 0 1.00001 -0.00039712
118 14.7914 2.51712 0.137739 0 0 1.00001 -0.00040565
197 14.1101 3.23104 0.0355592 0 0 1.00002 -0.000355538
114 13.3711 2.30217 0.0587966 0 0 1.00003 -0.000318677
124 15.6457 2.44302 0.695759 0 0 1 -0.000436266
203 16.2518 3.20041 0.666377 0 0 0.999996 -0.000437668
962 16.2554 2.47824 1.52556 0 0 0.999996 -0.000440869
1041 15.3204 3.26002 1.50492 0 0 1.00001 -0.000404728
201 15.5175 3.26098 0.0218965 0 0 1 -0.000423103
128 17.0141 2.35007 0.682603 0 0 0.999987 -0.000450877
207 17.8944 2.92223 0.699718 0 0 0.999977 -0.0004263
966 17.969 2.43337 1.57998 0 0 0.999976 -0.0004233
1045 17.0385 3.11248 1.49499 0 0 0.999986 -0.000432299
132 18.8462 2.35171 1.01012 0 0 0.999967 -0.000392941
211 19.6602 3.22956 1.27215 0 0 0.999961 -0.000325524
209 18.8381 2.98876 0.193911 0 0 0.999967 -0.000388257
130 19.5482 2.33224 0.102136 0 0 0.99996 -0.000354155
973 20.2903 1.77913 1.71912 0 0 0.999955 -0.000294802
134 21.131 2.40637 0.455305 0 0 0.999949 -0.000221448
136 20.1599 2.45731 1.10858 0 0 0.999956 -0.000302282
215 21.2848 3.28056 1.3836 0 0 0.99995 -0.000179299
213 20.3876 2.98282 0.332192 0 0 0.999955 -0.000278819
139 22.8635 2.05736 1.50118 0 0 0.999944 -3.54615e-05
138 22.9634 2.58867 0.730769 0 0 0.999943 -2.00262e-05
140 22.0773 2.48605 1.23116 0 0 0.999946 -0.000115064
217 21.9701 3.18529 0.595805 0 0 0.999947 -0.000117692
16179 22.668 3.38391 0.0736399 0 0 0.999945 -3.76968e-05
141 23.7436 1.79865 0.620425 0 0 0.999942 5.6187e-05
143 24.4365 1.97639 1.60094 0 0 0.999944 0.000152966
142 24.3495 2.66877 0.770254 0 0 0.999944 0.000146571
144 23.6889 2.88626 1.52664 0 0 0.999944 8.47973e-05
223 24.4836 3.49244 1.54666 0 0 0.999947 0.000200276
16108 24.97 2.83022 0.0145402 0 0 0.999946 0.000222054
149 26.5772 1.78582 0.508921 0 0 0.999953 0.000377686
145 25.1471 1.84636 0.507395 0 0 0.999946 0.000219842
146 25.8148 2.59894 0.702882 0 0 0.99995 0.000315517
148 25.1752 2.54303 1.51595 0 0 0.999947 0.000250847
227 25.7455 3.48082 1.50365 0 0 0.999951 0.000350513
152 26.5662 2.54925 1.52221 0 0 0.999955 0.000409465
229 26.1982 3.48547 0.594389 0 0 0.999953 0.000388017
151 27.541 1.97751 1.23136 0 0 0.999961 0.000486844
153 28.2925 2.08353 0.34253 0 0 0.999968 0.000545485
150 27.122 2.68123 0.640558 0 0 0.999959 0.000457939
231 27.2398 3.34023 1.40901 0 0 0.999961 0.000505671
156 28.2978 2.7479 1.19996 0 0 0.999969 0.000575274
233 28.0252 3.20994 0.32708 0 0 0.999967 0.000557194
997 30.0116 1.8047 1.70394 0 0 0.999988 0.000673331
155 29.4963 2.03789 0.879139 0 0 0.999981 0.000635322
154 29.2441 2.65636 0.288328 0 0 0.999978 0.000632202
235 29.303 3.25474 1.17286 0 0 0.99998 0.000669266
159 30.9664 1.98102 0.923096 0 0 0.999999 0.00070453
160 30.2363 2.70629 0.999843 0 0 0.99999 0.000698152
239 31.084 3.34513 0.972045 0 0 1 0.000755803
998 31.044 2.69143 1.72503 0 0 1 0.000745103
237 30.1681 3.24887 0.137243 0 0 0.99999 0.000707253
157 30.4632 1.90514 0.0279029 0 0 0.999992 0.000676685
158 31.1994 2.6602 0.0761449 0 0 1 0.000725333
164 0.356057 3.78359 0.919423 0 0 1.00001 0.000795318
241 0.20677 4.59668 0.479483 0 0 1.00001 0.000830118
243 1.20185 4.67275 0.988292 0 0 1.00002 0.000844179
244 0.157614 5.26606 1.27639 0 0 1.00001 0.000883559
162 1.10235 3.86414 0.0634888 0 0 1.00002 0.000792968
168 1.90442 4.04978 0.84937 0 0 1.00003 0.000798206
247 2.6003 4.86507 1.13771 0 0 1.00004 0.000827947
166 2.70674 4.15234 0.206367 0 0 1.00004 0.000771661
245 1.96031 4.97256 0.280446 0 0 1.00003 0.000840686
249 3.46424 4.87268 0.163045 0 0 1.00005 0.000774417
172 3.54559 4.08733 0.889681 0 0 1.00005 0.000735017
176 4.95604 4.01626 1.187 0 0 1.00006 0.000640027
251 4.1017 4.89434 1.15291 0 0 1.00005 0.000750964
170 4.30697 4.19636 0.148923 0 0 1.00005 0.000684891
253 5.05363 4.75721 0.341722 0 0 1.00006 0.000658341
174 5.80959 3.95405 0.198688 0 0 1.00006 0.000547649
180 6.51958 3.78392 0.779093 0 0 1.00006 0.00047584
255 5.72189 4.75336 1.03359 0 0 1.00006 0.000608231
1097 6.69319 4.53366 1.65604 0 0 1.00006 0.000515887
260 6.70944 5.15488 0.891197 0 0 1.00006 0.000528767
184 8.20858 3.91041 0.707264 0 0 1.00006 0.000290873
259 7.42816 4.48164 0.552374 0 0 1.00006 0.000405991
1018 7.41926 3.88937 1.50838 0 0 1.00006 0.000399025
1101 8.21271 4.63417 1.49914 0 0 1.00006 0.000340965
188 9.88735 3.59648 0.892815 0 0 1.00006 7.87923e-05
263 9.07941 4.5881 0.828986 0 0 1.00006 0.000217088
265 9.85304 4.5258 0.128561 0 0 1.00006 0.000111199
1022 9.07722 3.78292 1.51009 0 0 1.00006 0.000196434
1105 9.86138 4.36952 1.66944 0 0 1.00006 0.000131294
182 8.98606 3.88698 0.0641659 0 0 1.00006 0.000191846
192 11.3813 3.66077 0.78639 0 0 1.00005 -9.46112e-05
267 10.5715 4.68669 0.914497 0 0 1.00005 3.86704e-05
269 11.3599 4.71372 0.231843 0 0 1.00005 -6.04405e-05
1026 10.6872 3.58586 1.59986 0 0 1.00005 -3.55849e-06
1109 11.3388 4.39465 1.71761 0 0 1.00005 -4.40872e-05
186 10.5657 3.86611 0.177582 0 0 1.00005 -6.22198e-07
196 12.4767 3.59425 0.81939 0 0 1.00004 -0.000209487
271 12.1558 4.5681 1.00718 0 0 1.00004 -0.000143857
1113 12.701 5.01308 1.7002 0 0 1.00003 -0.000163555
275 13.1825 4.69659 0.805282 0 0 1.00003 -0.000241662
273 12.6021 4.63438 0.0631543 0 0 1.00004 -0.0001958
200 13.9427 4.13666 0.700077 0 0 1.00002 -0.000320635
1034 13.4392 4.23128 1.60094 0 0 1.00003 -0.000263346
1117 14.152 5.1281 1.5284 0 0 1.00002 -0.000287925
279 14.8871 5.01891 0.814534 0 0 1.00001 -0.000351679
1038 14.9127 4.42094 1.59837 0 0 1.00001 -0.000355739
277 14.0903 4.91406 0.0638746 0 0 1.00002 -0.000313099
198 14.9077 4.19806 0.0992963 0 0 1.00001 -0.000380227
204 15.6129 4.06861 0.926227 0 0 1 -0.000405151
281 15.8211 4.77609 0.187259 0 0 1 -0.000399595
283 16.5376 4.57912 0.900492 0 0 0.999992 -0.000409309
1042 16.2641 3.95891 1.69008 0 0 0.999995 -0.000409034
1121 15.755 5.05304 1.64377 0 0 1 -0.000367011
208 17.2161 3.82883 0.810114 0 0 0.999985 -0.000424943
287 18.033 4.47933 1.09462 0 0 0.999977 -0.000387303
1046 17.9011 3.6317 1.65243 0 0 0.999977 -0.000402227
285 17.3992 4.57127 0.0162221 0 0 0.999983 -0.000410555
206 18.0848 3.84603 0.0603855 0 0 0.999975 -0.000406992
212 18.8291 3.69724 0.948446 0 0 0.999968 -0.000371169
289 18.7755 4.59795 0.360138 0 0 0.999969 -0.000358472
291 19.6461 4.66108 1.0791 0 0 0.999963 -0.000293266
292 18.7347 5.26323 1.19527 0 0 0.999971 -0.000331139
210 19.5567 3.75429 0.228124 0 0 0.999962 -0.00032901
216 20.4035 3.80632 1.22709 0 0 0.999956 -0.000252488
295 20.8534 4.69821 1.38427 0 0 0.999955 -0.00017986
297 21.5568 4.92941 0.80288 0 0 0.999952 -0.000108196
214 21.056 3.91494 0.509313 0 0 0.999953 -0.000196331
293 20.0987 4.76828 0.348343 0 0 0.999959 -0.000260506
219 22.8125 3.61192 1.41096 0 0 0.999946 -3.33643e-07
220 21.9216 4.11293 1.30155 0 0 0.999949 -8.84616e-05
299 22.4597 5.15054 1.26297 0 0 0.999951 1.17949e-05
218 22.6023 4.32573 0.507747 0 0 0.999948 -1.28022e-05
221 23.5736 3.61967 0.776644 0 0 0.999945 8.1844e-05
222 24.3457 4.29988 0.620281 0 0 0.999947 0.000199276
224 23.4678 4.52545 1.32352 0 0 0.999948 0.000111337
305 24.8707 5.2315 0.561418 0 0 0.999951 0.000306757
301 23.5528 5.03999 0.528415 0 0 0.999949 0.000130441
228 25.0285 4.47643 1.61006 0 0 0.999951 0.000311093
303 24.3755 5.26264 1.42121 0 0 0.999951 0.000262409
225 25.08 3.66017 0.795397 0 0 0.999948 0.000267045
307 25.7199 5.11525 1.33295 0 0 0.999955 0.000418983
232 26.3912 4.27073 1.36307 0 0 0.999957 0.000455735
309 26.5388 4.95242 0.636235 0 0 0.999958 0.000491224
226 25.5529 4.38093 0.38665 0 0 0.999951 0.000347432
311 27.3748 4.85087 1.39653 0 0 0.999965 0.000589423
236 28.0079 3.96134 1.09918 0 0 0.999969 0.000596516
313 28.3278 4.72097 0.701873 0 0 0.999973 0.000657014
230 27.1051 4.02583 0.568706 0 0 0.999961 0.000505798
234 28.9831 3.76134 0.482568 0 0 0.999977 0.000657922
315 29.1425 4.51046 1.3239 0 0 0.999981 0.000720584
240 30.055 4.05929 1.02292 0 0 0.99999 0.000747025
238 31.0901 3.97369 0.368743 0 0 1 0.000778461
317 30.2669 4.67452 0.485038 0 0 0.999992 0.000783276
319 31.0425 4.5972 1.40391 0 0 1 0.000827043
242 0.977518 5.53269 0.462143 0 0 1.00002 0.000889504
248 1.60104 5.51648 1.38103 0 0 1.00003 0.000902592
323 0.868632 6.21763 1.27761 0 0 1.00002 0.000951774
324 0.331385 6.92042 1.50537 0 0 1.00002 0.00100709
322 1.04663 6.94622 0.572394 0 0 1.00002 0.000987162
321 0.0483837 5.99594 0.447032 0 0 1.00001 0.000912371
328 1.78064 7.03462 1.24316 0 0 1.00003 0.00100117
325 1.96217 6.20677 0.517825 0 0 1.00003 0.000920362
252 3.17102 5.63235 1.30453 0 0 1.00004 0.000855687
327 2.33587 6.16463 1.41536 0 0 1.00004 0.000928356
332 3.32172 6.97812 1.13779 0 0 1.00004 0.000938037
246 2.74581 5.61989 0.274803 0 0 1.00004 0.000854599
329 3.45907 6.29323 0.500798 0 0 1.00004 0.000865775
250 4.24462 5.47826 0.327993 0 0 1.00005 0.000762215
256 4.98426 5.44857 1.32368 0 0 1.00006 0.00072317
331 4.1921 6.11243 1.2361 0 0 1.00005 0.000825296
333 4.87844 6.25342 0.335712 0 0 1.00005 0.000763746
336 4.83026 6.82337 1.16931 0 0 1.00005 0.000824703
330 4.06414 7.03942 0.225301 0 0 1.00005 0.000879211
254 5.82262 5.43959 0.303913 0 0 1.00006 0.000626728
335 5.73625 6.26389 0.971044 0 0 1.00006 0.000700596
1177 6.49674 6.01055 1.6118 0 0 1.00006 0.000627209
340 6.47316 6.89638 1.01721 0 0 1.00006 0.000669415
337 6.41692 6.0688 0.155621 0 0 1.00006 0.000603609
264 8.22595 5.33929 0.702066 0 0 1.00006 0.000359155
339 7.35266 6.18422 0.762789 0 0 1.00006 0.000515742
1098 7.41678 5.44301 1.5061 0 0 1.00006 0.000482889
1181 8.25381 6.13952 1.50872 0 0 1.00006 0.000427019
344 8.03434 6.8833 0.737806 0 0 1.00006 0.000476391
1178 7.3134 6.89166 1.61462 0 0 1.00006 0.000599848
258 7.35287 5.38123 0.0464679 0 0 1.00006 0.000458578
268 9.76156 5.34526 0.801114 0 0 1.00006 0.000168104
343 8.88752 6.2165 0.745567 0 0 1.00006 0.000327989
1102 9.05699 5.35419 1.61165 0 0 1.00006 0.000282461
1185 9.7346 6.2184 1.48484 0 0 1.00005 0.000241196
1182 9.09926 6.98278 1.48121 0 0 1.00005 0.000373964
345 9.7573 6.25984 0.0965555 0 0 1.00006 0.000209745
262 9.00084 5.49134 0.0151361 0 0 1.00006 0.000263962
272 11.3639 5.29568 0.995262 0 0 1.00005 -2.49536e-05
347 10.5686 6.04863 0.973531 0 0 1.00005 0.000106944
349 11.2884 6.39564 0.0791968 0 0 1.00004 2.43644e-05
346 10.5052 6.97059 0.156314 0 0 1.00005 0.000151761
1186 10.4566 6.95681 1.51436 0 0 1.00005 0.000197086
270 11.9657 5.64716 0.185454 0 0 1.00004 -9.11643e-05
276 12.6359 5.83574 0.869164 0 0 1.00003 -0.000143724
351 11.7466 6.23237 1.06332 0 0 1.00004 -2.39116e-05
1114 13.2786 5.88425 1.56838 0 0 1.00003 -0.000184524
355 13.3058 6.59857 0.8187 0 0 1.00003 -0.000177821
274 13.2747 5.55446 0.0434327 0 0 1.00003 -0.000226904
280 14.0115 5.72891 0.778014 0 0 1.00002 -0.000272921
1197 14.2724 6.6642 1.41687 0 0 1.00002 -0.000234407
357 14.0785 6.39784 0.0393796 0 0 1.00002 -0.000260195
278 14.9691 5.64818 0.0361329 0 0 1.00001 -0.00034289
359 14.9895 6.45864 0.809853 0 0 1.00001 -0.000306336
284 15.7724 5.73999 0.957634 0 0 1 -0.00036146
363 16.4309 6.45175 1.14234 0 0 0.999993 -0.000343778
1118 15.0506 5.88214 1.70324 0 0 1.00001 -0.000305588
282 16.5627 5.41764 0.276076 0 0 0.999992 -0.000393276
361 15.618 6.34336 0.0409553 0 0 1 -0.000346944
286 17.7736 5.29545 0.539807 0 0 0.99998 -0.000380601
288 17.0544 5.42037 1.24612 0 0 0.999987 -0.000378877
365 17.0057 6.27086 0.410565 0 0 0.999987 -0.000365748
367 17.6075 6.23817 1.3802 0 0 0.999982 -0.000336636
372 18.2191 7.03979 1.12957 0 0 0.999977 -0.000291555
369 18.3198 6.21857 0.608603 0 0 0.999975 -0.000330168
290 19.3854 5.7403 0.616574 0 0 0.999966 -0.000284654
371 19.28 6.53838 1.33966 0 0 0.999969 -0.00024583
373 19.9543 6.72919 0.605222 0 0 0.999964 -0.000201839
294 20.7194 5.75261 0.6474 0 0 0.999958 -0.000167797
296 20.1534 5.58921 1.38575 0 0 0.999961 -0.000213289
375 20.7472 6.58619 1.2915 0 0 0.99996 -0.000114658
377 21.6379 6.6355 0.660193 0 0 0.999956 -3.05817e-05
300 21.6413 5.85113 1.37114 0 0 0.999954 -4.89894e-05
16260 21.6708 5.70814 0.0518619 0 0 0.999953 -7.22847e-05
298 22.665 5.80222 0.665494 0 0 0.999952 5.54453e-05
379 22.6247 6.6627 1.19356 0 0 0.999955 0.00010623
381 23.3508 6.74935 0.264884 0 0 0.999953 0.000183786
304 23.4856 5.8569 1.2856 0 0 0.999952 0.000175746
383 24.3361 6.53412 1.14702 0 0 0.999954 0.000320884
302 24.1563 5.97844 0.421962 0 0 0.999952 0.000250232
306 25.7144 5.83722 0.692874 0 0 0.999957 0.000444242
308 25.1371 6.01202 1.66008 0 0 0.999956 0.000409525
385 25.186 6.71184 0.489087 0 0 0.999957 0.000425193
387 25.8636 6.56838 1.39381 0 0 0.99996 0.000526338
312 26.7327 5.82275 1.46346 0 0 0.999963 0.000581833
310 27.5457 5.52531 0.715792 0 0 0.999967 0.00063059
389 26.7925 6.34282 0.644253 0 0 0.999964 0.000599331
391 27.7549 6.45041 1.35584 0 0 0.999972 0.000724968
390 27.7663 6.98637 0.524441 0 0 0.999973 0.000741058
316 28.4214 5.50606 1.47556 0 0 0.999976 0.000728547
314 29.4487 5.29773 0.813229 0 0 0.999985 0.000775645
395 29.5031 6.17155 1.31558 0 0 0.999988 0.00084783
394 29.6475 6.89207 0.504909 0 0 0.99999 0.000887896
393 28.5282 6.19052 0.636274 0 0 0.999978 0.000760427
16355 29.4388 6.13721 0.0774959 0 0 0.999986 0.000819225
16276 28.5373 5.37639 0.05617 0 0 0.999976 0.000706682
318 31.0313 5.36113 0.593444 0 0 1 0.000855281
320 30.2836 5.44946 1.46047 0 0 0.999994 0.000848727
397 30.4635 6.17495 0.645929 0 0 0.999997 0.000885412
399 31.2904 6.14926 1.38169 0 0 1.00001 0.000932302
398 31.2768 6.94804 0.603557 0 0 1.00001 0.000968872
401 0.341578 7.63317 0.659869 0 0 1.00002 0.00103486
402 0.919241 8.46787 0.61651 0 0 1.00002 0.00109926
403 1.19254 7.86374 1.49815 0 0 1.00002 0.0010821
404 0.441924 8.55967 1.46919 0 0 1.00002 0.00113265
405 1.67269 7.7702 0.37489 0 0 1.00003 0.0010367
408 1.81078 8.62588 1.46838 0 0 1.00003 0.00113154
326 2.55845 7.15777 0.476483 0 0 1.00004 0.000969278
406 2.27707 8.63904 0.401663 0 0 1.00003 0.00108699
407 2.47273 7.82126 1.28385 0 0 1.00004 0.0010437
412 3.09469 8.52976 0.943261 0 0 1.00004 0.00106051
409 3.31499 7.78277 0.329816 0 0 1.00004 0.000978599
410 3.88584 8.4766 0.0819458 0 0 1.00005 0.000995178
411 4.0482 7.68172 1.25254 0 0 1.00005 0.000949797
416 4.76775 8.28132 0.93423 0 0 1.00005 0.000931812
413 4.7331 7.6593 0.24765 0 0 1.00005 0.000873009
334 5.59822 7.07406 0.150269 0 0 1.00006 0.000754895
414 5.92222 8.37377 0.173856 0 0 1.00005 0.000817092
415 5.53852 7.61188 1.03989 0 0 1.00005 0.000816874
417 6.53377 7.56694 0.171673 0 0 1.00006 0.000693611
420 6.44376 8.2615 1.05728 0 0 1.00006 0.000773172
419 7.31945 7.79734 0.757079 0 0 1.00006 0.000629975
424 8.30538 8.34607 0.882727 0 0 1.00005 0.000550291
1258 7.31514 8.212 1.72252 0 0 1.00005 0.00070546
1261 8.07645 7.51979 1.58004 0 0 1.00006 0.000550914
421 8.02135 7.63344 0.0291205 0 0 1.00006 0.000519544
348 9.83717 7.25127 0.734555 0 0 1.00005 0.000267782
423 8.92229 7.64692 0.671812 0 0 1.00005 0.000412597
428 9.73249 8.65061 0.705667 0 0 1.00005 0.000372503
1262 9.10324 8.73213 1.46859 0 0 1.00005 0.000502674
1265 9.64523 7.9215 1.62224 0 0 1.00005 0.000378269
352 11.2899 7.16995 0.820302 0 0 1.00004 7.69654e-05
427 10.5605 7.9742 0.856562 0 0 1.00005 0.00022155
1266 10.5762 8.73652 1.4494 0 0 1.00004 0.0003003
1269 11.3805 7.83733 1.62323 0 0 1.00004 0.000141756
429 11.2047 8.14663 0.0446457 0 0 1.00004 0.000129078
356 12.666 7.30751 0.573607 0 0 1.00003 -8.38094e-05
431 12.1433 8.25834 0.600724 0 0 1.00003 2.89942e-05
1190 12.0347 7.1842 1.3945 0 0 1.00004 8.40769e-06
1270 12.0553 8.70843 1.51229 0 0 1.00003 0.0001088
1273 12.8166 8.02118 1.49302 0 0 1.00003 -2.50248e-05
360 14.2774 7.36703 0.592297 0 0 1.00001 -0.000228023
435 13.5663 8.11202 0.472592 0 0 1.00002 -0.00013556
1194 13.4137 7.35859 1.356 0 0 1.00002 -0.000131649
1277 14.1938 8.19485 1.36431 0 0 1.00001 -0.000152973
439 15.0118 8.30141 0.869976 0 0 1.00001 -0.000224093
362 16.3733 7.18343 0.279615 0 0 0.999994 -0.000332529
364 15.57 7.31448 0.92162 0 0 1 -0.000294565
443 16.1997 8.16044 1.11232 0 0 0.999995 -0.000266856
1198 15.0833 7.53096 1.63639 0 0 1.00001 -0.000231516
441 15.8014 8.31499 0.153973 0 0 0.999999 -0.000273787
368 16.9173 7.35603 1.11541 0 0 0.999989 -0.000309611
445 17.0045 8.10038 0.337997 0 0 0.999988 -0.000296655
447 17.648 8.01463 1.02561 0 0 0.999983 -0.000271972
366 17.7601 7.15803 0.215408 0 0 0.999981 -0.000321974
370 18.9576 7.31989 0.63748 0 0 0.999972 -0.000252994
451 18.8772 8.13457 1.17615 0 0 0.999974 -0.000204673
376 19.8302 7.63303 1.3133 0 0 0.999967 -0.00015244
453 19.7611 8.11795 0.357322 0 0 0.999968 -0.000161731
449 18.3965 8.17539 0.172208 0 0 0.999977 -0.000255094
374 20.6673 7.43466 0.664619 0 0 0.999962 -0.000101624
455 20.6157 8.41163 1.02332 0 0 0.999965 -4.80036e-05
380 21.5216 7.64236 1.13555 0 0 0.99996 1.90149e-05
457 21.5924 8.31459 0.255766 0 0 0.99996 4.06582e-05
459 22.5824 8.14645 1.00559 0 0 0.999959 0.000177447
1218 22.4099 7.46761 1.73732 0 0 0.999958 0.000147366
378 22.3266 7.45413 0.381285 0 0 0.999957 8.92293e-05
384 23.451 7.29106 1.04005 0 0 0.999956 0.000243117
461 23.4953 8.04464 0.379805 0 0 0.999957 0.000278928
463 24.3646 8.0682 0.987662 0 0 0.99996 0.000413685
1302 24.2757 8.68635 1.6657 0 0 0.999963 0.000478278
382 24.3557 7.29475 0.26638 0 0 0.999956 0.000347494
462 24.3352 8.79348 0.205687 0 0 0.999961 0.00043761
388 25.1464 7.36405 1.23988 0 0 0.99996 0.000482213
467 26.0639 7.97798 0.978143 0 0 0.999965 0.000629609
1306 26.0667 8.59755 1.73602 0 0 0.999968 0.000714678
386 26.1306 7.24982 0.364715 0 0 0.999963 0.000574787
465 25.2605 8.10012 0.304519 0 0 0.999961 0.000519097
466 26.3193 8.55851 0.0882868 0 0 0.999968 0.000683849
392 26.8333 7.08723 1.33006 0 0 0.999967 0.000672168
470 28.0294 8.48362 0.422482 0 0 0.999979 0.000870262
471 27.8597 7.81435 1.20361 0 0 0.999977 0.000827059
472 27.0344 8.62993 1.01449 0 0 0.999972 0.000793259
469 27.049 7.75874 0.429617 0 0 0.999969 0.000715782
396 28.716 7.094 1.22213 0 0 0.999981 0.000851494
474 29.6715 8.34474 0.540676 0 0 0.999993 0.000994036
475 29.5717 7.66463 1.27071 0 0 0.999991 0.00095611
476 28.8521 8.54023 1.17736 0 0 0.999987 0.000967337
473 28.7639 7.70346 0.412971 0 0 0.999983 0.00087993
400 30.4003 7.08189 1.17598 0 0 0.999998 0.000957794
479 31.3307 7.8171 1.29813 0 0 1.00001 0.00105228
480 30.5128 8.48167 1.1807 0 0 1 0.00106756
477 30.7152 7.86536 0.37985 0 0 1 0.00101134
478 31.5098 8.61651 0.390438 0 0 1.00001 0.0010927
482 1.21393 10.2858 0.27275 0 0 1.00003 0.00122599
483 1.10602 9.37596 1.20532 0 0 1.00002 0.0011866
484 0.347473 9.9298 0.898779 0 0 1.00002 0.00121252
481 0.456356 9.33697 0.123292 0 0 1.00002 0.00115627
1322 0.9076 10.1283 1.75387 0 0 1.00002 0.00127484
485 1.84203 9.45546 0.451723 0 0 1.00003 0.00116105
488 1.91802 10.3746 0.97304 0 0 1.00003 0.00123992
486 2.6775 10.2855 0.0828611 0 0 1.00004 0.00118984
487 2.45965 9.45537 1.22667 0 0 1.00004 0.00116779
1326 2.85922 10.2453 1.67567 0 0 1.00004 0.00123878
1329 3.28655 9.25321 1.66719 0 0 1.00004 0.00114118
489 3.1534 9.38093 0.0838648 0 0 1.00004 0.00110488
492 3.46069 10.0498 0.740113 0 0 1.00004 0.00114893
491 4.00644 9.12692 0.86257 0 0 1.00005 0.00105115
493 4.64321 9.20322 0.00738055 0 0 1.00005 0.000994599
496 4.67607 9.9979 0.576469 0 0 1.00005 0.00105968
1330 4.19963 9.98884 1.62778 0 0 1.00005 0.00114353
1333 4.74282 9.0885 1.66224 0 0 1.00005 0.00103433
495 5.38978 8.96998 0.666819 0 0 1.00005 0.000922803
500 6.29237 9.81997 0.521723 0 0 1.00005 0.000891324
1334 5.38048 9.85542 1.17772 0 0 1.00005 0.00101009
1337 6.20576 9.08194 1.27289 0 0 1.00005 0.000874059
1417 6.29446 10.5371 1.20248 0 0 1.00005 0.000972839
499 7.2042 8.90938 0.720749 0 0 1.00005 0.000725408
501 8.12136 9.07707 0.083571 0 0 1.00005 0.000609543
504 7.99077 9.95456 0.585398 0 0 1.00005 0.000697142
1338 7.21965 9.7669 1.20866 0 0 1.00005 0.000809419
1341 8.07411 9.19796 1.4176 0 0 1.00005 0.000672287
503 8.95466 9.48411 0.738193 0 0 1.00005 0.000541327
508 9.65095 10.3652 0.67053 0 0 1.00004 0.000503044
1342 8.77249 10.295 1.4284 0 0 1.00005 0.000664341
1345 9.83295 9.61997 1.43294 0 0 1.00004 0.000466626
432 11.35 8.87513 0.742324 0 0 1.00004 0.0001698
426 10.3939 8.91436 0.0411669 0 0 1.00004 0.000286625
507 10.4559 9.71068 0.666196 0 0 1.00004 0.000345266
1346 10.6249 10.2005 1.6578 0 0 1.00004 0.000417508
1349 11.285 9.66169 1.33484 0 0 1.00004 0.000262826
436 12.9589 8.98355 0.794968 0 0 1.00002 -1.69533e-05
511 12.075 9.83775 0.69614 0 0 1.00003 0.000135543
516 12.7797 10.4959 0.971129 0 0 1.00002 0.000100909
1353 12.5101 9.64012 1.62988 0 0 1.00003 0.000127393
1274 13.639 8.86415 1.58105 0 0 1.00002 -5.03546e-05
440 14.4102 9.20831 0.765744 0 0 1.00001 -0.000141496
515 13.4838 9.70171 0.844797 0 0 1.00002 -2.86133e-05
1354 13.4511 10.431 1.72421 0 0 1.00002 8.17402e-05
517 14.2173 10.1627 0.21846 0 0 1.00001 -9.13259e-05
444 15.8385 9.16173 1.1384 0 0 0.999998 -0.000205799
519 15.0734 9.86818 1.01686 0 0 1 -0.000139913
521 15.629 10.1842 0.252467 0 0 1 -0.000179658
523 16.445 9.95849 0.963039 0 0 0.999993 -0.000188554
442 16.448 9.03369 0.261659 0 0 0.999993 -0.000254674
438 15.2377 9.21223 0.0994376 0 0 1 -0.000208955
452 18.2469 8.88702 0.940346 0 0 0.999979 -0.000212473
448 17.0347 9.06424 1.12704 0 0 0.999988 -0.000227034
525 17.0963 10.0221 0.206427 0 0 0.999988 -0.000211403
527 17.7196 9.86199 1.06962 0 0 0.999983 -0.000177276
446 17.7084 9.10099 0.117594 0 0 0.999983 -0.00024252
456 19.7837 8.94171 1.05678 0 0 0.99997 -9.744e-05
529 18.5486 9.72287 0.299291 0 0 0.999978 -0.000174736
531 19.4651 9.88292 0.847335 0 0 0.999973 -8.76852e-05
532 18.6746 10.445 1.14047 0 0 0.999978 -9.92739e-05
1369 18.6068 9.57504 1.70351 0 0 0.999978 -0.000110431
450 19.1985 8.94754 0.210073 0 0 0.999973 -0.000171444
533 19.9553 9.77009 0.0718709 0 0 0.99997 -6.59657e-05
535 20.9089 9.79054 0.747349 0 0 0.999967 5.1327e-05
1373 20.2175 9.6465 1.66192 0 0 0.99997 2.18513e-05
454 20.7655 9.06097 0.205055 0 0 0.999966 -1.64451e-05
460 21.6169 9.01462 0.972056 0 0 0.999963 0.000100644
1298 22.3946 8.86537 1.57559 0 0 0.999962 0.000224442
539 22.8369 9.66802 0.798739 0 0 0.999963 0.00029578
540 22.0965 10.506 0.865848 0 0 0.999967 0.000246906