ITEM: TIMESTEP
35000
ITEM: NUMBER OF ATOMS
32000
ITEM: BOX BOUNDS pp pp pp
0.0000000000000000e+00 3.1748021039364001e+01
0.0000000000000000e+00 3.1748021039364001e+01
0.0000000000000000e+00 3.1748021039364001e+01
ITEM: ATOMS id x y z c_phase c_nbond c_rho vx
4 0.48054 1.0938 0.475848 0 0 1.00004 0.00214149
83 1.34044 1.66529 0.788224 0 0 1.00004 0.00219118
842 1.09143 0.78884 1.40597 0 0 1.00004 0.00217563
921 0.380955 1.59398 1.38567 0 0 1.00004 0.00217144
3 1.09616 0.0740173 0.628515 0 0 1.00004 0.00215102
841 0.206655 0.269268 1.2574 0 0 1.00004 0.00213243
8 2.08163 0.831412 1.01431 0 0 1.00004 0.00218732
85 2.17548 1.49637 0.208773 0 0 1.00004 0.00219427
925 2.21894 1.66026 1.75284 0 0 1.00004 0.00223507
6 2.87638 0.743292 0.203844 0 0 1.00004 0.00218
7 2.94142 0.0618108 1.04151 0 0 1.00004 0.00218499
87 3.00849 1.54952 0.87761 0 0 1.00004 0.00220905
846 3.04848 0.830849 1.74155 0 0 1.00004 0.00221474
12 3.77825 0.927605 0.972778 0 0 1.00004 0.00218833
849 3.84198 0.0847357 1.72507 0 0 1.00004 0.00219908
929 3.96505 1.71609 1.72568 0 0 1.00004 0.0022322
10 4.45539 0.864126 0.320693 0 0 1.00004 0.0021628
850 4.66824 0.951152 1.65461 0 0 1.00003 0.00218997
9 3.81367 0.101589 0.180793 0 0 1.00004 0.00216615
93 5.2501 1.61257 0.391917 0 0 1.00003 0.00216055
16 5.30387 0.571175 1.16433 0 0 1.00003 0.00214559
14 5.95764 0.649376 0.320624 0 0 1.00003 0.00210455
95 6.18965 1.33253 0.966829 0 0 1.00003 0.00211841
854 6.10268 0.463916 1.72576 0 0 1.00003 0.00212684
933 5.3488 1.72781 1.45496 0 0 1.00003 0.00218347
97 6.8604 1.41807 0.223221 0 0 1.00003 0.0020725
20 6.99299 0.407074 0.888617 0 0 1.00003 0.00205248
937 6.97997 1.0302 1.72237 0 0 1.00003 0.00208889
99 7.63065 1.24825 0.965209 0 0 1.00003 0.00202889
18 7.83302 0.66796 0.157334 0 0 1.00003 0.00199055
941 8.37548 1.29363 1.64332 0 0 1.00003 0.0019973
101 8.47935 1.41336 0.241933 0 0 1.00003 0.00196166
24 8.49372 0.420283 1.08449 0 0 1.00003 0.00195258
22 9.06528 0.517459 0.268006 0 0 1.00003 0.00189507
28 9.74501 0.339602 0.915338 0 0 1.00003 0.00184507
103 9.23002 1.33192 1.11947 0 0 1.00003 0.00191425
105 9.8225 1.38799 0.100843 0 0 1.00003 0.00185054
32 11.3394 0.220235 0.65418 0 0 1.00002 0.00169986
107 10.5284 1.07066 0.842697 0 0 1.00002 0.00178807
866 10.6784 0.206341 1.47585 0 0 1.00002 0.00177797
949 11.4288 1.031 1.44399 0 0 1.00002 0.00172228
946 10.7413 1.71269 1.75563 0 0 1.00002 0.0018169
26 10.4085 0.372576 0.0810136 0 0 1.00003 0.00177839
36 12.9649 0.220159 0.651753 0 0 1.00002 0.00155769
111 12.1465 1.09152 0.525251 0 0 1.00002 0.00163946
870 12.2374 0.321292 1.32773 0 0 1.00002 0.00163617
953 12.8143 1.20972 1.39872 0 0 1.00002 0.00160287
40 14.4271 0.335539 0.792722 0 0 1.00003 0.00144551
115 13.6572 1.12267 0.8574 0 0 1.00002 0.00151822
117 14.1073 1.57312 0.160239 0 0 1.00003 0.00148686
874 13.6844 0.366512 1.65779 0 0 1.00002 0.00152453
957 14.4353 1.16635 1.49925 0 0 1.00003 0.00147606
119 14.9278 1.56534 0.672367 0 0 1.00003 0.00143439
38 15.1395 0.714409 0.0675551 0 0 1.00003 0.00139472
44 15.7443 0.766579 0.792923 0 0 1.00003 0.00136672
123 16.5767 1.54479 0.686522 0 0 1.00003 0.00134437
878 15.1855 0.467808 1.65388 0 0 1.00003 0.00141794
882 16.5727 0.70999 1.3493 0 0 1.00003 0.0013387
961 15.6661 1.49995 1.40422 0 0 1.00003 0.00140352
48 17.2872 0.728629 0.558141 0 0 1.00003 0.00129841
127 17.9536 1.57987 0.754981 0 0 1.00003 0.00130563
886 17.9451 0.743433 1.42446 0 0 1.00003 0.00130068
965 17.25 1.74572 1.56581 0 0 1.00003 0.00134705
51 19.5792 0.0111059 0.661463 0 0 1.00004 0.00127747
52 18.825 0.72464 0.68555 0 0 1.00003 0.00127749
131 19.5863 1.54111 0.83684 0 0 1.00004 0.00130375
889 19.0595 0.151423 1.53914 0 0 1.00003 0.00129064
890 19.6426 0.959834 1.68193 0 0 1.00004 0.00131099
969 18.7018 1.4993 1.49532 0 0 1.00003 0.00131235
55 21.1809 0.344299 1.05765 0 0 1.00004 0.0013311
56 20.3052 0.768867 0.96723 0 0 1.00004 0.00130404
135 21.1828 1.62535 0.948068 0 0 1.00004 0.00135524
54 21.261 0.757051 0.213299 0 0 1.00004 0.00132931
133 20.4055 1.49714 0.199367 0 0 1.00004 0.00131374
973 20.391 1.76239 1.71541 0 0 1.00004 0.0013511
57 22.1117 0.265714 0.531177 0 0 1.00004 0.00137001
59 22.9241 0.422642 1.38383 0 0 1.00004 0.00143846
60 22.2205 1.13477 1.31309 0 0 1.00004 0.00140376
137 22.0986 1.57985 0.522061 0 0 1.00004 0.00139338
58 23.0419 1.04527 0.450089 0 0 1.00004 0.00143953
63 24.4226 0.373003 1.41023 0 0 1.00005 0.00155526
61 23.719 0.347264 0.567776 0 0 1.00004 0.00148093
62 24.6144 1.15931 0.739816 0 0 1.00005 0.00156888
64 23.6354 1.2214 1.37751 0 0 1.00005 0.00150538
65 25.1577 0.311161 0.539016 0 0 1.00005 0.00160135
67 26.238 0.370701 1.15446 0 0 1.00005 0.00170771
68 25.3765 1.10833 1.44619 0 0 1.00005 0.00165145
147 26.1683 1.70944 1.33238 0 0 1.00005 0.00173679
66 26.1204 0.923969 0.418539 0 0 1.00005 0.00169331
70 27.8595 1.26574 0.379648 0 0 1.00005 0.0018572
71 27.8973 0.494467 0.863945 0 0 1.00005 0.00185202
72 27.0118 1.0133 1.23877 0 0 1.00005 0.00179067
69 27.045 0.238703 0.231867 0 0 1.00005 0.00176538
913 28.695 0.34276 1.40107 0 0 1.00005 0.00192924
76 28.962 1.21414 0.722203 0 0 1.00005 0.00195046
914 29.7038 0.956786 1.55579 0 0 1.00005 0.00202094
993 28.8298 1.70763 1.49088 0 0 1.00005 0.00197343
75 29.5982 0.350234 0.613031 0 0 1.00005 0.00198181
917 30.1691 0.161586 1.44395 0 0 1.00005 0.00203977
79 31.0689 0.466821 0.482329 0 0 1.00005 0.00207619
80 30.4338 1.1859 0.767006 0 0 1.00005 0.00205673
918 31.2143 0.96733 1.38545 0 0 1.00005 0.00211104
82 1.48401 2.43671 0.118615 0 0 1.00004 0.00222207
84 0.509713 2.37672 0.806143 0 0 1.00004 0.00219587
163 1.66786 3.22733 0.944038 0 0 1.00004 0.00228395
922 1.52069 2.36655 1.59163 0 0 1.00004 0.00224939
1001 0.76816 3.0364 1.54965 0 0 1.00004 0.00226496
161 0.708492 3.10431 0.129622 0 0 1.00004 0.00223717
88 2.29013 2.41788 0.790495 0 0 1.00004 0.00224207
167 3.03379 3.29483 0.861702 0 0 1.00004 0.00230032
926 3.05256 2.25531 1.55385 0 0 1.00004 0.00225823
86 3.08839 2.39835 0.0545209 0 0 1.00004 0.00223685
1005 2.49452 3.10963 1.76212 0 0 1.00004 0.00231512
1009 3.65001 3.43226 1.66539 0 0 1.00004 0.0023319
92 3.74743 2.57707 0.794372 0 0 1.00004 0.00224891
91 4.35622 1.84726 0.722387 0 0 1.00004 0.00220047
171 4.5598 3.34684 0.764504 0 0 1.00003 0.00228003
930 4.50487 2.66389 1.59667 0 0 1.00003 0.00226213
96 5.24522 2.59039 0.831989 0 0 1.00003 0.00221304
94 5.96958 2.47534 0.142821 0 0 1.00003 0.00216614
175 5.98527 3.23524 0.972358 0 0 1.00003 0.00222448
934 6.17768 2.23468 1.51439 0 0 1.00003 0.00217181
173 5.33019 3.35931 0.00883847 0 0 1.00003 0.00224923
1017 6.84388 3.10817 1.5743 0 0 1.00003 0.00218882
100 6.85493 2.21556 0.793258 0 0 1.00003 0.00211314
177 6.94139 2.98039 0.134504 0 0 1.00003 0.00214269
98 7.71976 2.26106 0.14186 0 0 1.00003 0.00205204
104 8.34112 2.2352 0.953929 0 0 1.00003 0.00201695
179 7.68582 3.10694 0.94076 0 0 1.00003 0.00211555
938 7.57934 2.09573 1.59591 0 0 1.00003 0.00208465
1021 8.45134 3.04583 1.68314 0 0 1.00003 0.00208022
181 8.52379 3.01419 0.0446147 0 0 1.00003 0.00203525
102 9.13006 2.13005 0.257636 0 0 1.00003 0.00193818
108 9.96961 2.05638 1.12223 0 0 1.00002 0.00187926
183 9.15777 3.01811 0.952635 0 0 1.00003 0.00199785
942 9.25458 2.25882 1.7411 0 0 1.00003 0.00197121
185 9.77404 2.95469 0.21397 0 0 1.00003 0.00192922
106 10.4576 2.14608 0.21267 0 0 1.00002 0.00182491
112 11.3039 1.86181 0.788459 0 0 1.00002 0.00174449
187 10.7932 2.85015 0.938885 0 0 1.00002 0.00184347
1029 11.5903 2.87711 1.61373 0 0 1.00002 0.00179725
116 12.7726 1.9668 0.610701 0 0 1.00002 0.00161522
191 12.0568 2.68623 0.754845 0 0 1.00002 0.00171648
950 12.053 1.94985 1.4941 0 0 1.00002 0.00169863
1033 12.9576 3.05828 1.72072 0 0 1.00002 0.00169043
195 13.293 3.05697 0.854031 0 0 1.00002 0.00163224
954 13.4677 2.01763 1.50226 0 0 1.00002 0.00158013
114 13.4961 2.32523 0.0578801 0 0 1.00002 0.00156621
120 14.0928 2.47059 0.933499 0 0 1.00002 0.0015366
1037 14.1149 3.42159 1.57761 0 0 1.00002 0.00161291
199 14.7695 3.46183 0.887675 0 0 1.00002 0.00154572
958 14.8528 2.32169 1.45294 0 0 1.00003 0.00148819
118 14.8959 2.52801 0.140504 0 0 1.00003 0.00147176
197 14.2297 3.24988 0.0423233 0 0 1.00002 0.00156086
124 15.7386 2.44946 0.704863 0 0 1.00003 0.00142181
203 16.355 3.20923 0.677947 0 0 1.00003 0.00143136
962 16.3508 2.48353 1.53186 0 0 1.00003 0.0014125
1041 15.4405 3.27543 1.51847 0 0 1.00003 0.00150726
201 15.6216 3.27538 0.0273577 0 0 1.00003 0.00146855
128 17.1021 2.35621 0.685552 0 0 1.00003 0.00135578
207 17.9852 2.92262 0.704111 0 0 1.00003 0.00136241
966 18.0571 2.42871 1.58434 0 0 1.00003 0.00135785
1045 17.1348 3.11535 1.50241 0 0 1.00003 0.00141477
132 18.9351 2.34681 1.00731 0 0 1.00003 0.00133188
211 19.7594 3.21029 1.26527 0 0 1.00004 0.00139175
209 18.9295 2.9818 0.190662 0 0 1.00003 0.0013529
130 19.6434 2.31626 0.10515 0 0 1.00004 0.001326
134 21.2484 2.39068 0.449726 0 0 1.00004 0.00137974
136 20.2645 2.43841 1.09964 0 0 1.00004 0.00135768
215 21.4128 3.259 1.36693 0 0 1.00004 0.00145223
213 20.4924 2.96901 0.327607 0 0 1.00004 0.00137901
139 23.0135 2.02732 1.49122 0 0 1.00004 0.00148711
138 23.109 2.56495 0.7203 0 0 1.00004 0.00150084
140 22.2037 2.46149 1.22073 0 0 1.00004 0.00144801
217 22.1002 3.16008 0.592183 0 0 1.00004 0.00146653
16179 22.8273 3.34906 0.0619213 0 0 1.00004 0.00151845
141 23.8985 1.78057 0.61246 0 0 1.00005 0.00152701
143 24.6136 1.95339 1.57271 0 0 1.00005 0.00161556
142 24.531 2.63864 0.759671 0 0 1.00005 0.00161877
144 23.857 2.8479 1.5076 0 0 1.00005 0.00159357
223 24.6814 3.45611 1.52604 0 0 1.00005 0.00170061
16108 25.1663 2.7893 0.0124821 0 0 1.00005 0.00167656
145 25.3406 1.82382 0.509102 0 0 1.00005 0.00165007
146 26.0328 2.56701 0.689943 0 0 1.00005 0.00174758
148 25.3826 2.52044 1.49319 0 0 1.00005 0.00170508
227 25.9722 3.44147 1.48793 0 0 1.00005 0.00181618
229 26.4415 3.45066 0.582027 0 0 1.00005 0.00183748
149 26.8056 1.76466 0.504793 0 0 1.00005 0.00178085
152 26.798 2.52747 1.50174 0 0 1.00005 0.00183664
151 27.7891 1.95605 1.21154 0 0 1.00005 0.0018902
150 27.3699 2.65173 0.624307 0 0 1.00005 0.00187361
231 27.5095 3.30452 1.39134 0 0 1.00005 0.00194509
233 28.2949 3.18605 0.332581 0 0 1.00005 0.0019814
153 28.5619 2.06491 0.339654 0 0 1.00005 0.00194431
156 28.5694 2.7183 1.18152 0 0 1.00005 0.00199286
155 29.773 2.00682 0.878432 0 0 1.00005 0.00204195
154 29.5263 2.65536 0.281497 0 0 1.00005 0.00204807
235 29.6053 3.22211 1.17427 0 0 1.00005 0.00210477
997 30.3184 1.78959 1.6917 0 0 1.00005 0.0020938
159 31.2729 1.96162 0.918917 0 0 1.00005 0.0021354
160 30.5374 2.68753 0.994283 0 0 1.00005 0.00212971
239 31.4062 3.31392 0.971895 0 0 1.00005 0.00221733
998 31.3592 2.67383 1.72133 0 0 1.00005 0.0021996
237 30.4881 3.21363 0.156416 0 0 1.00005 0.00214676
157 30.7499 1.89106 0.0391847 0 0 1.00005 0.00209183
158 31.5075 2.6408 0.0764503 0 0 1.00005 0.00216976
164 0.68828 3.77231 0.919799 0 0 1.00004 0.00229309
241 0.5496 4.59564 0.465386 0 0 1.00005 0.00234829
243 1.53993 4.66301 0.990083 0 0 1.00004 0.00239488
244 0.523303 5.25255 1.2709 0 0 1.00005 0.0024283
162 1.43934 3.85485 0.0780239 0 0 1.00004 0.00231116
1081 0.886526 4.39309 1.76284 0 0 1.00004 0.00238022
168 2.2581 4.04686 0.856398 0 0 1.00004 0.00235188
247 2.95096 4.87864 1.13151 0 0 1.00004 0.00243704
166 3.04658 4.16129 0.200287 0 0 1.00004 0.00235631
245 2.31118 4.96543 0.287502 0 0 1.00004 0.00242372
249 3.81309 4.88454 0.167983 0 0 1.00004 0.00241329
172 3.87042 4.10557 0.899036 0 0 1.00004 0.00235466
251 4.45586 4.91509 1.16565 0 0 1.00004 0.00242383
170 4.62528 4.20894 0.146687 0 0 1.00003 0.00233739
176 5.27671 4.04983 1.18077 0 0 1.00003 0.00232238
253 5.38106 4.78831 0.336653 0 0 1.00003 0.00236563
174 6.099 3.98384 0.191377 0 0 1.00003 0.00226294
255 6.05993 4.77565 1.05386 0 0 1.00003 0.00234963
180 6.82717 3.82459 0.79942 0 0 1.00003 0.00221916
1097 7.00195 4.58331 1.68423 0 0 1.00003 0.00230508
260 7.01174 5.20833 0.895125 0 0 1.00003 0.00233572
259 7.71177 4.52464 0.56971 0 0 1.00003 0.00221771
1018 7.70613 3.92388 1.53425 0 0 1.00003 0.00219535
184 8.47351 3.94023 0.725562 0 0 1.00003 0.00211522
1101 8.49272 4.67924 1.52107 0 0 1.00002 0.00220384
263 9.32847 4.63612 0.843547 0 0 1.00002 0.00210989
1022 9.31196 3.82801 1.53735 0 0 1.00002 0.00206421
182 9.2285 3.92557 0.0640829 0 0 1.00002 0.00204572
265 10.0785 4.58467 0.133615 0 0 1.00002 0.00202861
188 10.1021 3.64098 0.908951 0 0 1.00002 0.00195977
1105 10.1031 4.423 1.70068 0 0 1.00002 0.00205525
192 11.5631 3.69817 0.811282 0 0 1.00002 0.00182959
267 10.7877 4.72425 0.931619 0 0 1.00002 0.00199181
269 11.5549 4.76224 0.230616 0 0 1.00002 0.00191176
1026 10.8889 3.63272 1.62873 0 0 1.00002 0.00191299
1109 11.538 4.45564 1.74197 0 0 1.00002 0.00192969
186 10.7738 3.90231 0.178068 0 0 1.00002 0.00190777
196 12.6263 3.64174 0.831596 0 0 1.00002 0.00173085
271 12.3318 4.61234 1.0234 0 0 1.00002 0.00184315
1113 12.8993 5.04825 1.72549 0 0 1.00002 0.00186302
275 13.3451 4.74872 0.817117 0 0 1.00002 0.00175948
273 12.7628 4.67484 0.0621004 0 0 1.00002 0.00179377
200 14.0849 4.1632 0.710486 0 0 1.00002 0.00164537
1034 13.5968 4.2678 1.62043 0 0 1.00002 0.00172464
1117 14.3047 5.16016 1.55255 0 0 1.00002 0.00174562
279 15.0284 5.04849 0.825129 0 0 1.00002 0.00165475
277 14.2359 4.94008 0.0736142 0 0 1.00002 0.00169268
198 15.0294 4.21691 0.105471 0 0 1.00002 0.00157294
1038 15.0507 4.44103 1.61328 0 0 1.00002 0.00162662
204 15.7265 4.08491 0.930193 0 0 1.00003 0.00153033
281 15.9367 4.79065 0.189725 0 0 1.00003 0.00156409
283 16.6528 4.59135 0.906695 0 0 1.00003 0.00152272
1042 16.3802 3.9722 1.69799 0 0 1.00003 0.0015132
1121 15.8923 5.06776 1.65885 0 0 1.00002 0.0016319
208 17.3184 3.83047 0.812438 0 0 1.00003 0.00143732
287 18.1403 4.47433 1.09401 0 0 1.00003 0.00147335
1046 18.0036 3.6309 1.65388 0 0 1.00003 0.00143153
285 17.501 4.57283 0.0203442 0 0 1.00003 0.00147894
206 18.185 3.83968 0.065611 0 0 1.00003 0.00140996
212 18.926 3.68854 0.95022 0 0 1.00003 0.00140627
289 18.8872 4.58675 0.359092 0 0 1.00003 0.00146205
291 19.7603 4.63547 1.08432 0 0 1.00004 0.0014873
292 18.8555 5.25 1.19181 0 0 1.00003 0.00153587
210 19.6616 3.73701 0.232238 0 0 1.00004 0.00140489
216 20.5202 3.78196 1.21989 0 0 1.00004 0.00144548
295 20.9891 4.66618 1.36941 0 0 1.00004 0.00153513
297 21.7163 4.89223 0.788499 0 0 1.00004 0.00157171
214 21.1889 3.88934 0.505949 0 0 1.00004 0.00146335
293 20.2316 4.74258 0.34125 0 0 1.00004 0.00149184
219 22.9763 3.5699 1.3899 0 0 1.00005 0.00156725
220 22.0681 4.07632 1.28762 0 0 1.00004 0.00154051
299 22.6382 5.09598 1.25035 0 0 1.00004 0.00165823
218 22.771 4.28401 0.510704 0 0 1.00004 0.00158366
221 23.7495 3.57698 0.762595 0 0 1.00005 0.00161007
222 24.5462 4.25939 0.614019 0 0 1.00005 0.00172323
224 23.654 4.47421 1.31021 0 0 1.00005 0.00168398
301 23.7426 4.9939 0.518207 0 0 1.00005 0.00171432
303 24.5948 5.20911 1.39853 0 0 1.00005 0.00183106
305 25.1064 5.16886 0.551008 0 0 1.00005 0.00185016
228 25.2591 4.4186 1.57797 0 0 1.00005 0.00182883
225 25.2918 3.6051 0.774783 0 0 1.00005 0.00174538
307 25.9782 5.06014 1.31755 0 0 1.00005 0.00194122
232 26.6501 4.22181 1.34601 0 0 1.00005 0.0019328
226 25.7902 4.33582 0.389786 0 0 1.00005 0.00183833
309 26.8079 4.90438 0.626874 0 0 1.00005 0.00198588
311 27.6636 4.8032 1.37298 0 0 1.00005 0.00207586
236 28.2901 3.9197 1.08869 0 0 1.00005 0.00204634
230 27.3667 3.97996 0.570209 0 0 1.00005 0.00195891
313 28.6279 4.68245 0.689538 0 0 1.00005 0.00212904
234 29.2794 3.73661 0.466824 0 0 1.00005 0.00210062
315 29.4538 4.47125 1.30066 0 0 1.00005 0.00219281
314 29.7782 5.26277 0.798729 0 0 1.00005 0.00227476
240 30.37 4.01625 1.01882 0 0 1.00005 0.00221067
238 31.4164 3.96678 0.352739 0 0 1.00005 0.00225625
317 30.5999 4.65783 0.466261 0 0 1.00005 0.00226923
319 31.3855 4.58366 1.37612 0 0 1.00005 0.00233033
242 1.34965 5.51926 0.459577 0 0 1.00004 0.0024606
323 1.25952 6.19426 1.27564 0 0 1.00004 0.00254983
324 0.720811 6.91871 1.48893 0 0 1.00005 0.0026222
322 1.4496 6.93021 0.566168 0 0 1.00004 0.0026152
321 0.43049 5.98673 0.449701 0 0 1.00005 0.00247734
248 1.98382 5.51258 1.37354 0 0 1.00004 0.0025002
328 2.18299 7.03166 1.25185 0 0 1.00004 0.00266163
325 2.33047 6.20939 0.508299 0 0 1.00004 0.00255056
327 2.73327 6.18136 1.41931 0 0 1.00004 0.00257834
246 3.11265 5.62003 0.277542 0 0 1.00004 0.00249028
252 3.55697 5.65592 1.30281 0 0 1.00004 0.00251736
332 3.71219 7.0035 1.16346 0 0 1.00004 0.00265798
329 3.8378 6.30423 0.492615 0 0 1.00004 0.0025582
250 4.60167 5.50542 0.33289 0 0 1.00003 0.00245885
331 4.5539 6.13718 1.25017 0 0 1.00003 0.00254946
330 4.45137 7.05477 0.237148 0 0 1.00004 0.00262905
336 5.21258 6.87261 1.18578 0 0 1.00003 0.00260971
333 5.24514 6.28946 0.334651 0 0 1.00003 0.00252211
256 5.33871 5.48866 1.32295 0 0 1.00003 0.00245938
254 6.14041 5.46704 0.302407 0 0 1.00003 0.00239743
335 6.0804 6.28934 0.983839 0 0 1.00003 0.00250364
337 6.7647 6.13509 0.15336 0 0 1.00003 0.00243304
1177 6.8458 6.06383 1.64092 0 0 1.00003 0.00246542
340 6.83493 6.94765 1.01684 0 0 1.00003 0.00253889
339 7.66784 6.22611 0.781301 0 0 1.00003 0.00239898
1098 7.73217 5.48456 1.5373 0 0 1.00003 0.00234161
1178 7.66328 6.93496 1.64905 0 0 1.00003 0.00251817
258 7.65147 5.42895 0.0428686 0 0 1.00003 0.00230354
344 8.36412 6.94519 0.750725 0 0 1.00002 0.0024283
264 8.50789 5.39224 0.721287 0 0 1.00002 0.00224721
1181 8.55579 6.20103 1.54517 0 0 1.00002 0.00236196
268 10.0133 5.40601 0.819976 0 0 1.00002 0.0021253
343 9.18348 6.27337 0.762467 0 0 1.00002 0.00228901
1102 9.3265 5.41108 1.63362 0 0 1.00002 0.0022182
1185 10.0106 6.27097 1.52438 0 0 1.00002 0.00224797
1182 9.3995 7.05414 1.5154 0 0 1.00002 0.00239293
345 10.0218 6.32508 0.101774 0 0 1.00002 0.0022121
262 9.27462 5.55164 0.024202 0 0 1.00002 0.00219305
272 11.5796 5.35276 1.02572 0 0 1.00002 0.00198469
347 10.8232 6.11078 0.984107 0 0 1.00002 0.00213171
349 11.5257 6.45033 0.0804749 0 0 1.00002 0.0020883
346 10.7748 7.04268 0.150549 0 0 1.00002 0.00222458
1186 10.735 7.02709 1.54958 0 0 1.00002 0.00227547
266 10.7036 5.65407 0.00837528 0 0 1.00002 0.00207804
270 12.165 5.69169 0.19079 0 0 1.00002 0.00194671
276 12.8313 5.8764 0.886145 0 0 1.00002 0.00192001
351 11.9674 6.29737 1.08384 0 0 1.00002 0.0020502
274 13.4437 5.59877 0.0452145 0 0 1.00002 0.00182111
1114 13.4734 5.93279 1.60409 0 0 1.00002 0.00189752
355 13.5062 6.63969 0.829029 0 0 1.00002 0.00193881
280 14.1789 5.76937 0.79249 0 0 1.00002 0.00178871
1197 14.4531 6.70251 1.44709 0 0 1.00002 0.00189384
357 14.2552 6.43933 0.0429307 0 0 1.00002 0.00184007
278 15.1066 5.67068 0.0409256 0 0 1.00002 0.00169675
359 15.1521 6.49077 0.820225 0 0 1.00002 0.00179064
284 15.9135 5.75895 0.960994 0 0 1.00002 0.00166925
363 16.5802 6.46816 1.15572 0 0 1.00003 0.00171252
1118 15.2133 5.90891 1.72189 0 0 1.00002 0.00176417
282 16.6889 5.43008 0.276576 0 0 1.00003 0.00158346
361 15.7722 6.3704 0.0466872 0 0 1.00002 0.00172261
286 17.8965 5.29926 0.539898 0 0 1.00003 0.00153525
288 17.1788 5.42733 1.25128 0 0 1.00003 0.00158675
365 17.1512 6.28145 0.412063 0 0 1.00003 0.00164788
367 17.7492 6.23928 1.37955 0 0 1.00003 0.0016543
372 18.3762 7.03466 1.13817 0 0 1.00003 0.00171458
369 18.4614 6.20827 0.612039 0 0 1.00003 0.00161184
290 19.524 5.7155 0.613869 0 0 1.00004 0.0015661
371 19.4288 6.51548 1.32849 0 0 1.00003 0.00166556
373 20.1152 6.69346 0.601196 0 0 1.00004 0.00167113
294 20.8769 5.71313 0.637775 0 0 1.00004 0.00160135
296 20.2909 5.55735 1.37436 0 0 1.00004 0.00158918
375 20.9172 6.54363 1.27838 0 0 1.00004 0.00170421
377 21.8181 6.5894 0.653609 0 0 1.00004 0.00173195
300 21.8095 5.80054 1.34802 0 0 1.00004 0.00167629
16260 21.8419 5.6648 0.0536756 0 0 1.00004 0.0016372
298 22.8533 5.75636 0.644874 0 0 1.00005 0.0017174
379 22.8315 6.60232 1.17249 0 0 1.00005 0.00181658
381 23.573 6.67876 0.2632 0 0 1.00005 0.00185662
304 23.6996 5.80231 1.254 0 0 1.00005 0.00180522
383 24.5868 6.47517 1.13303 0 0 1.00005 0.00194697
302 24.3797 5.91261 0.408116 0 0 1.00005 0.00185106
306 25.9849 5.77746 0.672183 0 0 1.00005 0.00199146
308 25.394 5.94461 1.6201 0 0 1.00005 0.00198648
385 25.4529 6.63546 0.477014 0 0 1.00005 0.00202364
387 26.1663 6.50896 1.36747 0 0 1.00005 0.00210862
312 27.0257 5.76835 1.43333 0 0 1.00005 0.00211388
310 27.8532 5.47922 0.697255 0 0 1.00005 0.00213696
389 27.0946 6.28695 0.622314 0 0 1.00005 0.00214675
391 28.0776 6.38529 1.33498 0 0 1.00005 0.00226957
390 28.1053 6.93066 0.507791 0 0 1.00005 0.00230488
392 27.1645 7.03025 1.29756 0 0 1.00005 0.00225686
316 28.7502 5.4614 1.44213 0 0 1.00005 0.00223683
395 29.8567 6.14172 1.2969 0 0 1.00005 0.00238614
394 30.018 6.8788 0.4984 0 0 1.00005 0.00245367
393 28.8691 6.15005 0.634194 0 0 1.00005 0.00229064
16355 29.7832 6.08682 0.0728613 0 0 1.00005 0.00234678
16276 28.8552 5.34136 0.0429115 0 0 1.00005 0.00220218
396 29.0756 7.03632 1.19988 0 0 1.00005 0.00242075
318 31.391 5.33152 0.58594 0 0 1.00005 0.00237803
320 30.6389 5.41271 1.43242 0 0 1.00005 0.0023676
397 30.8208 6.15002 0.630237 0 0 1.00005 0.00242954
399 31.6601 6.12242 1.36907 0 0 1.00005 0.00249457
398 31.6747 6.91837 0.604006 0 0 1.00005 0.00255824
400 30.7914 7.04377 1.16481 0 0 1.00005 0.00254059
401 0.755442 7.62919 0.64694 0 0 1.00005 0.00267311
402 1.3695 8.46912 0.598883 0 0 1.00005 0.00278629
403 1.61126 7.84389 1.48867 0 0 1.00004 0.00275568
404 0.871628 8.53407 1.45366 0 0 1.00005 0.00281157
478 0.194839 8.58139 0.387457 0 0 1.00005 0.00275308
405 2.09531 7.76958 0.385657 0 0 1.00004 0.0027186
408 2.25983 8.62807 1.46532 0 0 1.00004 0.00285682
326 2.95519 7.1542 0.471426 0 0 1.00004 0.00265885
406 2.72928 8.63011 0.401944 0 0 1.00004 0.00282352
407 2.90064 7.82974 1.29188 0 0 1.00004 0.00276087
412 3.54575 8.55263 0.961102 0 0 1.00004 0.00283064
409 3.72449 7.79315 0.336194 0 0 1.00004 0.00272459
410 4.31871 8.5005 0.08008 0 0 1.00004 0.00279574
411 4.45983 7.68667 1.24241 0 0 1.00004 0.00272617
413 5.13864 7.7072 0.240532 0 0 1.00003 0.00268254
416 5.17916 8.33007 0.963465 0 0 1.00003 0.00277294
334 5.96631 7.10621 0.160227 0 0 1.00003 0.00258346
414 6.3216 8.42434 0.186342 0 0 1.00003 0.00271933
415 5.93289 7.64296 1.04443 0 0 1.00003 0.00266596
420 6.83186 8.28584 1.08075 0 0 1.00003 0.00269842
417 6.90026 7.63126 0.172283 0 0 1.00003 0.00259607
419 7.68819 7.84548 0.776244 0 0 1.00002 0.00258434
1258 7.6902 8.25717 1.75053 0 0 1.00002 0.00268226
421 8.36464 7.69933 0.0269539 0 0 1.00002 0.0025062
1261 8.4318 7.58192 1.61183 0 0 1.00002 0.00253948
424 8.64487 8.41626 0.909281 0 0 1.00002 0.00258973
423 9.24488 7.71173 0.690833 0 0 1.00002 0.00244846
1262 9.44111 8.79397 1.51098 0 0 1.00002 0.00260586
1265 9.985 7.98208 1.65253 0 0 1.00002 0.00246744
428 10.0568 8.714 0.730651 0 0 1.00002 0.00250212
348 10.1192 7.30711 0.76006 0 0 1.00002 0.00232912
352 11.5358 7.23162 0.838416 0 0 1.00002 0.00219256
427 10.8549 8.03307 0.877575 0 0 1.00002 0.00235337
1266 10.8869 8.81912 1.49624 0 0 1.00002 0.00248071
1269 11.6475 7.91409 1.6567 0 0 1.00002 0.00230699
429 11.4808 8.21096 0.0494582 0 0 1.00002 0.00229617
356 12.8937 7.37143 0.594483 0 0 1.00002 0.00207268
431 12.4009 8.30808 0.626252 0 0 1.00002 0.00223214
1190 12.2946 7.24565 1.43261 0 0 1.00002 0.00214982
1270 12.3276 8.77583 1.55759 0 0 1.00002 0.00234308
1273 13.0566 8.08728 1.53121 0 0 1.00002 0.00218676
350 12.1096 7.46564 0.00104426 0 0 1.00002 0.00214809
360 14.459 7.4075 0.623732 0 0 1.00002 0.0019399
435 13.788 8.16676 0.496973 0 0 1.00002 0.00208174
1194 13.6401 7.40524 1.39459 0 0 1.00002 0.00204138
1277 14.4179 8.2283 1.39759 0 0 1.00002 0.00207233
439 15.2249 8.33453 0.884701 0 0 1.00002 0.00199499
362 16.5384 7.19806 0.288878 0 0 1.00002 0.00176919
364 15.7501 7.33748 0.92386 0 0 1.00002 0.00184468
443 16.3947 8.17848 1.12215 0 0 1.00002 0.0019105
1198 15.2727 7.56516 1.67129 0 0 1.00002 0.00194595
441 15.9843 8.33008 0.158024 0 0 1.00002 0.00192426
368 17.0865 7.36099 1.12149 0 0 1.00003 0.00178493
445 17.1771 8.11116 0.331383 0 0 1.00003 0.00183996
447 17.8344 8.01624 1.03415 0 0 1.00003 0.00182735
366 17.919 7.16085 0.223405 0 0 1.00003 0.00171269
370 19.128 7.29756 0.62844 0 0 1.00003 0.00172033
451 19.0638 8.11557 1.16903 0 0 1.00003 0.00182866
376 20.0142 7.59831 1.29728 0 0 1.00004 0.0017884
453 19.9475 8.08255 0.356741 0 0 1.00004 0.00180706
449 18.58 8.16359 0.184195 0 0 1.00003 0.00180631
374 20.8534 7.39296 0.650125 0 0 1.00004 0.00176772
455 20.8274 8.36321 1.00829 0 0 1.00004 0.00188195
380 21.7317 7.58632 1.11265 0 0 1.00004 0.001846
457 21.8116 8.259 0.254765 0 0 1.00004 0.00189791
459 22.8249 8.08746 0.979707 0 0 1.00005 0.00196651
1218 22.6371 7.40433 1.70249 0 0 1.00005 0.0019158
378 22.5437 7.39406 0.373888 0 0 1.00005 0.0018547
458 23.0029 8.79516 0.195861 0 0 1.00005 0.00203546
1298 22.6593 8.80275 1.54767 0 0 1.00005 0.00206515
384 23.6942 7.22953 1.02825 0 0 1.00005 0.00194369
461 23.7474 7.98371 0.361409 0 0 1.00005 0.00201214
463 24.6455 7.99171 0.958432 0 0 1.00005 0.00210854
1302 24.5752 8.6277 1.63527 0 0 1.00006 0.00221365
382 24.6068 7.22357 0.26563 0 0 1.00005 0.00200306
462 24.6238 8.71636 0.198941 0 0 1.00005 0.00216742
1301 23.6393 7.94849 1.74123 0 0 1.00005 0.00205802
388 25.4363 7.29328 1.20732 0 0 1.00005 0.00211708
467 26.3904 7.91465 0.958354 0 0 1.00006 0.00226712
1306 26.4118 8.5288 1.6937 0 0 1.00006 0.00238321
386 26.4265 7.17486 0.361085 0 0 1.00005 0.00217136
465 25.5567 8.01669 0.301911 0 0 1.00005 0.00218012
466 26.6491 8.49184 0.0893434 0 0 1.00006 0.00233779
468 25.6413 8.75298 0.966266 0 0 1.00006 0.0022909
470 28.4004 8.42528 0.398501 0 0 1.00006 0.00249679
471 28.2281 7.74916 1.17592 0 0 1.00006 0.00242968
472 27.3993 8.56889 0.992079 0 0 1.00006 0.00244123
469 27.3861 7.6962 0.418464 0 0 1.00005 0.00232128
1310 28.2421 8.60762 1.74087 0 0 1.00006 0.0025649
474 30.0772 8.32305 0.529191 0 0 1.00005 0.00262062
475 29.9601 7.62369 1.25501 0 0 1.00005 0.00255518
476 29.2398 8.4836 1.15567 0 0 1.00005 0.00259676
473 29.1429 7.66385 0.40393 0 0 1.00005 0.00247352
479 31.7388 7.78161 1.28363 0 0 1.00005 0.0026806
480 30.9337 8.44381 1.17203 0 0 1.00005 0.00270901
477 31.117 7.83533 0.379513 0 0 1.00005 0.00262682
483 1.57157 9.34855 1.19348 0 0 1.00005 0.00291321
484 0.819235 9.922 0.905088 0 0 1.00005 0.00294091
481 0.908428 9.32493 0.126107 0 0 1.00005 0.00286289
1322 1.39468 10.1183 1.74754 0 0 1.00005 0.00302966
559 0.0457505 9.2506 1.12606 0 0 1.00005 0.00284451
558 0.044804 9.92429 0.0606028 0 0 1.00005 0.00289016
482 1.69165 10.2759 0.262794 0 0 1.00004 0.00298722
485 2.29477 9.46453 0.439028 0 0 1.00004 0.00291525
488 2.39799 10.3549 0.977568 0 0 1.00004 0.00302838
486 3.14173 10.2936 0.0743152 0 0 1.00004 0.00300459
487 2.92041 9.45878 1.22033 0 0 1.00004 0.00294637
1326 3.33451 10.2531 1.68643 0 0 1.00004 0.00306361
489 3.60701 9.38266 0.102925 0 0 1.00004 0.00290512
1329 3.76518 9.27896 1.69835 0 0 1.00004 0.00295116
492 3.92376 10.0776 0.76337 0 0 1.00004 0.00299155
491 4.45114 9.1522 0.875851 0 0 1.00003 0.00288435
1330 4.67002 10.0114 1.62831 0 0 1.00003 0.00301731
493 5.07306 9.2534 0.00437651 0 0 1.00003 0.00286345
496 5.12455 10.0363 0.583269 0 0 1.00003 0.00295921
1333 5.19019 9.11771 1.67444 0 0 1.00003 0.00290491
495 5.81128 9.02788 0.678726 0 0 1.00003 0.0028233
1334 5.84224 9.90187 1.22428 0 0 1.00003 0.00294399
1337 6.62751 9.14653 1.30427 0 0 1.00003 0.00282646
500 6.71277 9.87271 0.538004 0 0 1.00003 0.00287435
499 7.58982 8.9657 0.746409 0 0 1.00002 0.00272424
1338 7.61788 9.82944 1.24629 0 0 1.00002 0.00284701
504 8.39074 10.0231 0.604661 0 0 1.00002 0.00278717
1341 8.45566 9.25903 1.4545 0 0 1.00002 0.00273606
501 8.49436 9.14232 0.0927091 0 0 1.00002 0.00266834
503 9.31916 9.54308 0.760132 0 0 1.00002 0.00266674
508 10.0168 10.4211 0.703214 0 0 1.00002 0.00270562
1342 9.16501 10.3386 1.47583 0 0 1.00002 0.00281154
1345 10.1783 9.67582 1.4844 0 0 1.00002 0.00264931
432 11.6305 8.93934 0.765329 0 0 1.00002 0.00238503
426 10.7109 8.97142 0.0373001 0 0 1.00002 0.0024597
507 10.7931 9.77235 0.696286 0 0 1.00002 0.00256232
1346 10.971 10.2799 1.71062 0 0 1.00001 0.00266819
1349 11.6225 9.71392 1.3896 0 0 1.00001 0.00251461
436 13.1981 9.0268 0.815891 0 0 1.00002 0.0022482
511 12.3636 9.88899 0.723209 0 0 1.00001 0.00242648
516 13.0746 10.5559 0.996871 0 0 1.00001 0.00244386
1353 12.819 9.70518 1.68041 0 0 1.00001 0.0024224
1274 13.8828 8.93297 1.62113 0 0 1.00002 0.00222268
440 14.6352 9.23924 0.789783 0 0 1.00002 0.00214329
515 13.7511 9.77004 0.876743 0 0 1.00002 0.00228604
517 14.4698 10.1926 0.23214 0 0 1.00002 0.0022476
444 16.0491 9.18137 1.15224 0 0 1.00002 0.0020495
519 15.3135 9.91122 1.04411 0 0 1.00002 0.00217706
521 15.8582 10.2025 0.25398 0 0 1.00002 0.00213923
523 16.6673 9.97553 0.979205 0 0 1.00002 0.00209044
442 16.642 9.05949 0.270159 0 0 1.00002 0.00196821
438 15.4439 9.23934 0.122435 0 0 1.00002 0.00206237
448 17.2371 9.06526 1.13335 0 0 1.00003 0.00197126
525 17.3175 10.0255 0.204914 0 0 1.00003 0.00203858
527 17.9377 9.85454 1.07214 0 0 1.00003 0.00202928
446 17.904 9.09754 0.123458 0 0 1.00003 0.00191925
452 18.446 8.88245 0.942764 0 0 1.00003 0.00190658
456 19.9985 8.90898 1.03873 0 0 1.00004 0.00191876
529 18.7602 9.71355 0.302858 0 0 1.00003 0.00197129
531 19.6831 9.85896 0.849679 0 0 1.00004 0.00200671
532 18.904 10.4359 1.13819 0 0 1.00003 0.00207848
1369 18.8231 9.5635 1.69709 0 0 1.00003 0.00202731
450 19.3921 8.92625 0.211199 0 0 1.00003 0.00188695
533 20.1881 9.73892 0.0691456 0 0 1.00004 0.00198406
535 21.1536 9.74986 0.744883 0 0 1.00004 0.00203515
1373 20.4462 9.6145 1.63675 0 0 1.00004 0.00204789
454 20.9807 9.01124 0.196282 0 0 1.00004 0.00193586
1374 21.3261 10.0469 1.7338 0 0 1.00005 0.0021384
460 21.8492 8.95921 0.951177 0 0 1.00005 0.00199546
539 23.1106 9.61608 0.784682 0 0 1.00005 0.0021483
540 22.3802 10.4487 0.826179 0 0 1.00005 0.00218046
1377 22.1914 9.7163 1.49182 0 0 1.00005 0.00213188
1378 23.3506 10.434 1.39399 0 0 1.00005 0.00229001
537 22.2151 9.73324 0.213083 0 0 1.00005 0.00207933
464 23.7264 8.86516 0.938198 0 0 1.00005 0.00212237
543 24.8596 9.47929 0.740958 0 0 1.00006 0.00228844
1381 24.0198 9.5283 1.50743 0 0 1.00006 0.00225933