ITEM: TIMESTEP
48500
ITEM: NUMBER OF ATOMS
32000
ITEM: BOX BOUNDS pp pp pp
0.0000000000000000e+00 3.1748021039364001e+01
0.0000000000000000e+00 3.1748021039364001e+01
0.0000000000000000e+00 3.1748021039364001e+01
ITEM: ATOMS id x y z c_phase c_nbond c_rho vx
4 0.83477 1.08996 0.484453 0 0 1.00006 0.00311838
842 1.46368 0.78604 1.40167 0 0 1.00006 0.00315762
921 0.746814 1.59108 1.39601 0 0 1.00006 0.00314591
3 1.45975 0.0777299 0.635551 0 0 1.00006 0.00313474
841 0.567175 0.271371 1.2597 0 0 1.00006 0.00310794
83 1.70282 1.6636 0.795184 0 0 1.00006 0.00317453
8 2.45184 0.84499 1.01285 0 0 1.00006 0.00318073
85 2.54476 1.5088 0.196102 0 0 1.00006 0.00318845
925 2.59936 1.65478 1.74336 0 0 1.00006 0.0032255
6 3.24034 0.734455 0.199607 0 0 1.00005 0.00318473
7 3.30075 0.0656747 1.04039 0 0 1.00005 0.00319008
5 2.44647 0.00701652 0.164903 0 0 1.00006 0.003162
87 3.3752 1.55272 0.869819 0 0 1.00005 0.00321375
846 3.42301 0.838594 1.73608 0 0 1.00005 0.0032191
12 4.14288 0.914831 0.976991 0 0 1.00005 0.00320629
849 4.20203 0.0752719 1.73388 0 0 1.00005 0.00321746
929 4.33659 1.71733 1.72096 0 0 1.00005 0.00324959
10 4.8262 0.86232 0.315042 0 0 1.00005 0.00319344
850 5.02473 0.944585 1.66158 0 0 1.00005 0.00322253
9 4.1686 0.0958506 0.188304 0 0 1.00005 0.00318644
93 5.62131 1.61188 0.393019 0 0 1.00005 0.0032047
16 5.678 0.574527 1.14895 0 0 1.00005 0.0031913
14 6.32434 0.651392 0.31265 0 0 1.00005 0.00316529
95 6.5494 1.34016 0.983644 0 0 1.00005 0.00318228
854 6.4724 0.466492 1.73697 0 0 1.00005 0.00318812
933 5.70551 1.71767 1.46348 0 0 1.00005 0.00322794
97 7.21102 1.43068 0.223154 0 0 1.00005 0.0031512
20 7.34254 0.416258 0.898305 0 0 1.00005 0.0031351
937 7.33751 1.04136 1.73276 0 0 1.00005 0.00316801
99 7.97855 1.26249 0.96496 0 0 1.00005 0.00312381
18 8.17225 0.672247 0.167586 0 0 1.00005 0.00309191
941 8.72641 1.29803 1.66123 0 0 1.00004 0.003107
101 8.81856 1.42227 0.240837 0 0 1.00004 0.00307537
24 8.82824 0.427257 1.08205 0 0 1.00004 0.00306757
22 9.39452 0.517891 0.255744 0 0 1.00004 0.00302295
103 9.55767 1.33923 1.11079 0 0 1.00004 0.00304266
28 10.0707 0.335435 0.933433 0 0 1.00004 0.00298609
105 10.1415 1.38078 0.111185 0 0 1.00004 0.00299223
32 11.6395 0.221978 0.667675 0 0 1.00004 0.00287092
107 10.848 1.08297 0.852179 0 0 1.00004 0.00294343
866 10.9903 0.216167 1.49295 0 0 1.00004 0.00293625
946 11.0613 1.73222 1.75842 0 0 1.00004 0.00297258
26 10.7279 0.373061 0.0825751 0 0 1.00004 0.00293282
949 11.7469 1.0325 1.45417 0 0 1.00004 0.00289113
36 13.2598 0.229101 0.660182 0 0 1.00004 0.00274853
111 12.4354 1.10017 0.538981 0 0 1.00004 0.00282181
870 12.5349 0.321815 1.34538 0 0 1.00004 0.00281878
953 13.1108 1.20945 1.41376 0 0 1.00004 0.00279065
40 14.7072 0.352878 0.813946 0 0 1.00004 0.00264568
115 13.9364 1.12746 0.861002 0 0 1.00004 0.00271433
117 14.3953 1.57579 0.148291 0 0 1.00004 0.00268396
874 13.976 0.371126 1.6683 0 0 1.00004 0.0027192
957 14.7156 1.18375 1.51468 0 0 1.00004 0.00267449
119 15.2071 1.57061 0.678011 0 0 1.00004 0.00263289
38 15.402 0.715258 0.0663774 0 0 1.00004 0.0025956
44 16.0169 0.76021 0.794541 0 0 1.00004 0.00256466
878 15.4598 0.471122 1.65815 0 0 1.00004 0.00261702
961 15.9309 1.51243 1.41518 0 0 1.00004 0.00260132
123 16.8336 1.54696 0.691401 0 0 1.00004 0.00253673
882 16.8319 0.709325 1.35769 0 0 1.00004 0.00253117
48 17.5535 0.726808 0.57116 0 0 1.00004 0.00248342
127 18.2116 1.58957 0.754988 0 0 1.00005 0.00248066
886 18.2026 0.75046 1.42672 0 0 1.00005 0.00247625
965 17.5107 1.74555 1.56956 0 0 1.00004 0.00253034
51 19.8309 0.00662319 0.66549 0 0 1.00005 0.00242431
52 19.0768 0.732085 0.691662 0 0 1.00005 0.00243902
131 19.8409 1.54115 0.838632 0 0 1.00005 0.00244852
889 19.3031 0.146349 1.54261 0 0 1.00005 0.00244699
890 19.9005 0.961809 1.68662 0 0 1.00005 0.00245465
969 18.9677 1.49627 1.50008 0 0 1.00005 0.00247334
129 19.1562 1.57445 0.0030538 0 0 1.00005 0.00245097
55 21.4563 0.341264 1.06052 0 0 1.00005 0.00244077
56 20.5601 0.767753 0.961493 0 0 1.00005 0.0024339
135 21.4361 1.61021 0.954695 0 0 1.00005 0.00246221
54 21.5113 0.759068 0.208914 0 0 1.00005 0.00243717
133 20.6605 1.49526 0.207624 0 0 1.00005 0.00244094
973 20.6509 1.75272 1.72665 0 0 1.00005 0.00247603
57 22.3777 0.276492 0.528127 0 0 1.00005 0.00245782
59 23.1995 0.421757 1.37766 0 0 1.00006 0.00250521
60 22.4913 1.13989 1.31156 0 0 1.00005 0.00248728
137 22.3579 1.58194 0.507003 0 0 1.00005 0.0024795
58 23.3027 1.0301 0.463377 0 0 1.00006 0.00250321
63 24.7265 0.3686 1.38964 0 0 1.00006 0.00258873
61 23.9972 0.340906 0.567014 0 0 1.00006 0.00253067
62 24.8918 1.14761 0.731657 0 0 1.00006 0.0025972
64 23.9231 1.20685 1.37019 0 0 1.00006 0.00255424
65 25.4572 0.309656 0.532047 0 0 1.00006 0.00262197
67 26.5354 0.363154 1.15058 0 0 1.00006 0.00270793
68 25.669 1.10695 1.42828 0 0 1.00006 0.00266403
147 26.4717 1.70422 1.32598 0 0 1.00006 0.00273523
66 26.4196 0.930396 0.41051 0 0 1.00006 0.00269611
70 28.182 1.2601 0.375469 0 0 1.00006 0.00283751
71 28.2188 0.484105 0.86194 0 0 1.00006 0.00283252
72 27.3181 1.0088 1.22789 0 0 1.00006 0.00277859
69 27.3501 0.241143 0.243133 0 0 1.00006 0.00275588
149 27.1175 1.75385 0.505469 0 0 1.00006 0.00277131
913 29.0342 0.348873 1.408 0 0 1.00006 0.00290386
76 29.2895 1.19945 0.712745 0 0 1.00006 0.00292167
914 30.0296 0.966752 1.55056 0 0 1.00006 0.00298896
993 29.151 1.70771 1.4924 0 0 1.00006 0.00294294
75 29.9371 0.346084 0.61527 0 0 1.00006 0.00295345
917 30.5263 0.159479 1.4342 0 0 1.00006 0.0030096
79 31.4311 0.450391 0.490743 0 0 1.00006 0.00304877
80 30.7739 1.17444 0.762858 0 0 1.00006 0.00302564
918 31.5613 0.966894 1.38071 0 0 1.00006 0.00308118
84 0.874317 2.3715 0.803216 0 0 1.00006 0.0031694
1001 1.13218 3.0362 1.55178 0 0 1.00006 0.00323613
161 1.06858 3.10818 0.127261 0 0 1.00006 0.00320996
158 0.115131 2.62219 0.0770224 0 0 1.00006 0.00313743
239 0.0239234 3.29092 0.968688 0 0 1.00006 0.00318039
82 1.84817 2.43226 0.110852 0 0 1.00006 0.0032044
922 1.8898 2.36418 1.59155 0 0 1.00006 0.00323033
163 2.03292 3.21258 0.939137 0 0 1.00006 0.00326299
88 2.66211 2.40896 0.794459 0 0 1.00006 0.00323333
1005 2.86419 3.10875 1.75487 0 0 1.00006 0.00330308
165 2.7054 3.27411 0.000680865 0 0 1.00006 0.00327478
167 3.40765 3.29427 0.859689 0 0 1.00005 0.00329822
926 3.43547 2.26701 1.56262 0 0 1.00005 0.00326072
86 3.45529 2.40265 0.0521638 0 0 1.00005 0.00324075
1009 4.04215 3.41909 1.66874 0 0 1.00005 0.00333573
92 4.12168 2.58138 0.802648 0 0 1.00005 0.00326214
91 4.72451 1.83895 0.726837 0 0 1.00005 0.00322686
171 4.93225 3.35284 0.774361 0 0 1.00005 0.00330366
930 4.88928 2.66507 1.60328 0 0 1.00005 0.00328597
96 5.61154 2.58541 0.839964 0 0 1.00005 0.00325299
94 6.33532 2.47982 0.148973 0 0 1.00005 0.00322253
175 6.3616 3.24462 0.977779 0 0 1.00005 0.00327624
934 6.53933 2.25006 1.51739 0 0 1.00005 0.00323103
173 5.69693 3.35441 0.0213569 0 0 1.00005 0.00328752
1017 7.22058 3.11672 1.57512 0 0 1.00005 0.00325696
100 7.21655 2.22721 0.801662 0 0 1.00005 0.00318854
177 7.29319 3.00303 0.132375 0 0 1.00005 0.00321817
98 8.07027 2.27145 0.13979 0 0 1.00005 0.00314657
179 8.04935 3.11214 0.931413 0 0 1.00004 0.00320329
938 7.93895 2.10751 1.60285 0 0 1.00005 0.00317401
104 8.70048 2.2404 0.964271 0 0 1.00004 0.00312336
1021 8.8115 3.05409 1.69284 0 0 1.00004 0.0031833
181 8.87636 3.02487 0.0476819 0 0 1.00004 0.00314325
102 9.47658 2.15012 0.255804 0 0 1.00004 0.00306323
183 9.50883 3.02905 0.962977 0 0 1.00004 0.00311882
942 9.60093 2.26694 1.75708 0 0 1.00004 0.00309567
185 10.1217 2.97464 0.21157 0 0 1.00004 0.00306395
108 10.3043 2.06623 1.11789 0 0 1.00004 0.00301967
106 10.7837 2.15405 0.202404 0 0 1.00004 0.00297633
112 11.6229 1.88095 0.79609 0 0 1.00004 0.00291139
187 11.1196 2.86264 0.942665 0 0 1.00004 0.00299726
1029 11.9097 2.89345 1.63257 0 0 1.00004 0.00296338
116 13.073 1.97605 0.624024 0 0 1.00004 0.00280178
191 12.3727 2.70963 0.760161 0 0 1.00004 0.00289207
950 12.3705 1.96469 1.50485 0 0 1.00004 0.00287464
1033 13.2704 3.07193 1.73228 0 0 1.00004 0.00287204
195 13.6079 3.06466 0.851955 0 0 1.00004 0.00281729
954 13.7677 2.03115 1.51043 0 0 1.00004 0.00277089
114 13.7895 2.33955 0.0524744 0 0 1.00004 0.00275845
120 14.3854 2.48016 0.932406 0 0 1.00004 0.00273044
1037 14.4182 3.43913 1.58645 0 0 1.00004 0.00280207
197 14.5197 3.2591 0.0473913 0 0 1.00004 0.0027541
199 15.0703 3.47071 0.883833 0 0 1.00004 0.00273727
958 15.1499 2.33963 1.452 0 0 1.00004 0.00268291
118 15.1798 2.5298 0.138956 0 0 1.00004 0.00266873
124 16.0119 2.45162 0.712722 0 0 1.00004 0.0026171
203 16.6415 3.21797 0.691526 0 0 1.00004 0.00261997
962 16.6258 2.48571 1.53618 0 0 1.00004 0.00260218
1041 15.7426 3.28484 1.53065 0 0 1.00004 0.00269761
201 15.9062 3.28519 0.0319267 0 0 1.00004 0.00266207
128 17.3726 2.36694 0.687917 0 0 1.00004 0.0025405
207 18.2541 2.93215 0.713474 0 0 1.00004 0.00253384
966 18.3204 2.42764 1.59528 0 0 1.00005 0.0025282
1045 17.4084 3.12214 1.5136 0 0 1.00004 0.00259539
132 19.1938 2.35422 1.00645 0 0 1.00005 0.0024878
211 20.0167 3.20341 1.26196 0 0 1.00005 0.00252701
209 19.1916 2.98841 0.183771 0 0 1.00005 0.00250803
130 19.9082 2.30813 0.110431 0 0 1.00005 0.00246774
134 21.5173 2.39102 0.447174 0 0 1.00005 0.00248426
136 20.5339 2.43051 1.09335 0 0 1.00005 0.00248457
215 21.6825 3.25612 1.36012 0 0 1.00005 0.00254734
213 20.7513 2.97544 0.323901 0 0 1.00005 0.00249984
139 23.2904 2.00971 1.49029 0 0 1.00006 0.00254802
138 23.3756 2.55979 0.713755 0 0 1.00006 0.00255834
140 22.465 2.45393 1.21876 0 0 1.00005 0.00252709
217 22.3683 3.1587 0.592009 0 0 1.00005 0.00254705
16179 23.1148 3.33522 0.0465932 0 0 1.00006 0.00258024
141 24.1653 1.77787 0.609331 0 0 1.00006 0.00256868
143 24.8959 1.94619 1.55484 0 0 1.00006 0.00263964
142 24.8179 2.628 0.754246 0 0 1.00006 0.00264428
144 24.1367 2.8276 1.49836 0 0 1.00006 0.00263005
223 24.9765 3.44533 1.51661 0 0 1.00006 0.0027169
16108 25.463 2.76438 0.00578746 0 0 1.00006 0.00268882
145 25.633 1.81433 0.51757 0 0 1.00006 0.00266343
146 26.3394 2.55277 0.680875 0 0 1.00006 0.00274583
148 25.6834 2.51649 1.48268 0 0 1.00006 0.0027134
227 26.2821 3.42524 1.48235 0 0 1.00006 0.00280875
229 26.7657 3.43525 0.576645 0 0 1.00006 0.00282555
152 27.1071 2.52232 1.49155 0 0 1.00006 0.00282191
151 28.1065 1.94355 1.19876 0 0 1.00006 0.00286665
150 27.6909 2.63592 0.612436 0 0 1.00006 0.00285308
231 27.8467 3.28402 1.38548 0 0 1.00006 0.00291856
233 28.627 3.17659 0.336571 0 0 1.00006 0.00295083
153 28.8972 2.05458 0.338296 0 0 1.00006 0.00291682
156 28.9039 2.70121 1.17149 0 0 1.00006 0.00296076
154 29.8663 2.66104 0.279139 0 0 1.00006 0.00301464
235 29.9585 3.20328 1.17827 0 0 1.00006 0.00306633
155 30.1026 1.98722 0.878258 0 0 1.00006 0.00300768
997 30.6789 1.78002 1.68337 0 0 1.00006 0.00306004
159 31.6322 1.9444 0.916337 0 0 1.00006 0.00310456
160 30.886 2.67105 0.993854 0 0 1.00006 0.00309308
998 31.7211 2.65816 1.72162 0 0 1.00006 0.00316421
237 30.8536 3.19259 0.169393 0 0 1.00006 0.00310937
157 31.0862 1.88376 0.0509248 0 0 1.00006 0.00305942
164 1.05693 3.76418 0.919053 0 0 1.00006 0.00326066
241 0.929593 4.59208 0.450843 0 0 1.00006 0.00331108
244 0.919304 5.23951 1.26768 0 0 1.00006 0.00338429
1081 1.25954 4.38597 1.75477 0 0 1.00006 0.00334265
238 0.0352238 3.95772 0.342965 0 0 1.00006 0.00321699
162 1.81654 3.84762 0.0889652 0 0 1.00006 0.00328635
243 1.91535 4.64805 0.990407 0 0 1.00006 0.00336409
168 2.65089 4.0382 0.864197 0 0 1.00006 0.00333444
247 3.34525 4.88115 1.12761 0 0 1.00006 0.0034232
245 2.6979 4.9513 0.292931 0 0 1.00006 0.00340066
166 3.43365 4.16054 0.192064 0 0 1.00005 0.00335026
249 4.20882 4.88169 0.171578 0 0 1.00005 0.00341366
172 4.24498 4.11247 0.90706 0 0 1.00005 0.00336142
251 4.8583 4.91655 1.17156 0 0 1.00005 0.00343334
170 5.00043 4.20583 0.14475 0 0 1.00005 0.00335647
176 5.65939 4.06335 1.16711 0 0 1.00005 0.00335402
253 5.76852 4.79611 0.330653 0 0 1.00005 0.00339531
174 6.46662 3.99104 0.18338 0 0 1.00005 0.00331372
255 6.46235 4.77365 1.06262 0 0 1.00005 0.00339059
180 7.21251 3.84686 0.811588 0 0 1.00005 0.00328548
1097 7.38666 4.60897 1.69749 0 0 1.00005 0.00336738
260 7.38878 5.23856 0.893361 0 0 1.00005 0.00339594
259 8.08498 4.54307 0.585043 0 0 1.00004 0.00329877
1018 8.08289 3.93321 1.54775 0 0 1.00004 0.00327665
184 8.84048 3.94383 0.736699 0 0 1.00004 0.00321521
1101 8.86641 4.69663 1.52963 0 0 1.00004 0.0032971
263 9.68776 4.65637 0.848158 0 0 1.00004 0.00322415
1022 9.66167 3.84887 1.55288 0 0 1.00004 0.00318325
182 9.58521 3.94202 0.0626493 0 0 1.00004 0.00316355
265 10.4237 4.62081 0.134101 0 0 1.00004 0.00316137
188 10.4411 3.66584 0.916855 0 0 1.00004 0.00309732
1105 10.4629 4.45039 1.71796 0 0 1.00004 0.00318398
267 11.1311 4.73103 0.938167 0 0 1.00004 0.00313296
1026 11.2217 3.66016 1.64571 0 0 1.00004 0.00306342
186 11.114 3.91559 0.174577 0 0 1.00004 0.00305578
1109 11.8758 4.49587 1.75201 0 0 1.00004 0.00308599
192 11.8872 3.7165 0.833364 0 0 1.00004 0.0029928
269 11.8842 4.78991 0.225114 0 0 1.00004 0.00306886
196 12.9343 3.67593 0.83899 0 0 1.00004 0.00291057
271 12.6541 4.63622 1.03121 0 0 1.00004 0.00301179
1113 13.2459 5.05636 1.73813 0 0 1.00004 0.00302894
273 13.0736 4.69587 0.0581991 0 0 1.00004 0.00296894
275 13.6667 4.79045 0.81922 0 0 1.00004 0.00293968
200 14.3929 4.17542 0.717441 0 0 1.00004 0.00283165
1034 13.9146 4.28533 1.6275 0 0 1.00004 0.00290558
1117 14.618 5.17741 1.56956 0 0 1.00004 0.0029265
277 14.5432 4.95037 0.0821735 0 0 1.00004 0.00287637
279 15.3388 5.07129 0.834129 0 0 1.00004 0.00283959
198 15.3218 4.2252 0.109248 0 0 1.00004 0.00276285
1038 15.3579 4.44846 1.62127 0 0 1.00004 0.0028114
204 16.0144 4.0962 0.927449 0 0 1.00004 0.0027187
281 16.2205 4.80323 0.18769 0 0 1.00004 0.00274949
1042 16.6737 3.98625 1.70294 0 0 1.00004 0.00269652
1121 16.2004 5.07668 1.67086 0 0 1.00004 0.0028114
283 16.941 4.60904 0.912072 0 0 1.00004 0.00270342
208 17.5963 3.83652 0.814271 0 0 1.00004 0.00261377
1046 18.2772 3.64232 1.66109 0 0 1.00004 0.00259805
285 17.7704 4.58391 0.0260944 0 0 1.00004 0.00265167
287 18.4128 4.4828 1.09465 0 0 1.00004 0.00263508
206 18.4581 3.84399 0.0722748 0 0 1.00005 0.00257462
212 19.186 3.69637 0.958263 0 0 1.00005 0.00255824
289 19.1636 4.59312 0.357764 0 0 1.00005 0.00261077
291 20.0257 4.62796 1.0987 0 0 1.00005 0.00261584
292 19.1329 5.25539 1.19385 0 0 1.00005 0.00267996
210 19.9281 3.73812 0.241277 0 0 1.00005 0.00254134
216 20.7848 3.7772 1.21991 0 0 1.00005 0.00256033
295 21.2639 4.66243 1.36063 0 0 1.00005 0.00263251
214 21.4682 3.88923 0.507607 0 0 1.00005 0.002563
293 20.5175 4.73833 0.338567 0 0 1.00005 0.0026093
297 22.0126 4.884 0.778103 0 0 1.00005 0.00265122
219 23.2607 3.54854 1.37915 0 0 1.00006 0.00262101
220 22.346 4.065 1.28507 0 0 1.00005 0.00261494
299 22.9374 5.07263 1.24987 0 0 1.00006 0.0027113
218 23.0649 4.26769 0.520292 0 0 1.00006 0.00264093
221 24.039 3.55682 0.753883 0 0 1.00006 0.00264745
222 24.8453 4.24671 0.616991 0 0 1.00006 0.00273988
224 23.9499 4.4506 1.31201 0 0 1.00006 0.00271663
301 24.0362 4.97783 0.514751 0 0 1.00006 0.00274321
303 24.9035 5.18649 1.38987 0 0 1.00006 0.00283661
305 25.4303 5.13579 0.547503 0 0 1.00006 0.00284807
228 25.5756 4.38884 1.55784 0 0 1.00006 0.00282574
225 25.5955 3.57029 0.757746 0 0 1.00006 0.00274922
307 26.3113 5.03379 1.31572 0 0 1.00006 0.00292344
226 26.1111 4.31561 0.398119 0 0 1.00006 0.00283122
232 26.9811 4.19584 1.33989 0 0 1.00006 0.00291052
309 27.1457 4.88264 0.622342 0 0 1.00006 0.0029593
311 28.0104 4.77927 1.35858 0 0 1.00006 0.00303774
230 27.6968 3.95698 0.573528 0 0 1.00006 0.00293139
236 28.6322 3.89727 1.08567 0 0 1.00006 0.00301024
313 28.9783 4.66023 0.680531 0 0 1.00006 0.00308594
234 29.6292 3.72277 0.456425 0 0 1.00006 0.0030616
315 29.8107 4.44576 1.28348 0 0 1.00006 0.00314581
314 30.1473 5.24053 0.792127 0 0 1.00006 0.00322373
240 30.7291 3.98848 1.01142 0 0 1.00006 0.00316621
317 30.9697 4.64149 0.456188 0 0 1.00006 0.00322276
319 31.7638 4.57079 1.35584 0 0 1.00006 0.00328473
323 1.6709 6.17374 1.27418 0 0 1.00006 0.00350374
324 1.13181 6.91208 1.47236 0 0 1.00006 0.00356589
321 0.83994 5.97711 0.453284 0 0 1.00006 0.00343026
398 0.342487 6.89545 0.603637 0 0 1.00006 0.00349862
399 0.303178 6.1021 1.35898 0 0 1.00006 0.00343816
318 0.0357363 5.31134 0.578408 0 0 1.00006 0.00332956
242 1.75191 5.50336 0.454242 0 0 1.00006 0.00342293
322 1.87072 6.91114 0.56205 0 0 1.00006 0.00356649
248 2.40041 5.50091 1.36164 0 0 1.00006 0.00346716
328 2.60455 7.02009 1.25512 0 0 1.00006 0.00361858
325 2.72978 6.2011 0.499713 0 0 1.00006 0.00351853
327 3.15766 6.1846 1.41368 0 0 1.00006 0.00355045
246 3.51359 5.61124 0.279389 0 0 1.00005 0.0034735
252 3.97793 5.65669 1.29471 0 0 1.00005 0.003505
332 4.12969 7.00697 1.17831 0 0 1.00005 0.00363725
329 4.24874 6.30289 0.483518 0 0 1.00005 0.00354688
250 5.00473 5.5133 0.336318 0 0 1.00005 0.00346844
331 4.95948 6.14577 1.25451 0 0 1.00005 0.00355043
330 4.87696 7.05311 0.246388 0 0 1.00005 0.00362101
336 5.6347 6.89067 1.19162 0 0 1.00005 0.00361658
333 5.65919 6.30076 0.331059 0 0 1.00005 0.00353656
256 5.74604 5.50533 1.31343 0 0 1.00005 0.00348034
254 6.52672 5.47543 0.295902 0 0 1.00005 0.00343698
335 6.48384 6.28699 0.990744 0 0 1.00005 0.00353114
337 7.16975 6.16732 0.149905 0 0 1.00005 0.00348095
1177 7.25492 6.08741 1.65541 0 0 1.00005 0.00351008
340 7.25254 6.96547 1.00754 0 0 1.00005 0.00357603
339 8.05974 6.23756 0.792346 0 0 1.00004 0.00346226
1098 8.12469 5.49333 1.55231 0 0 1.00004 0.00341004
1178 8.07797 6.94436 1.66351 0 0 1.00004 0.00356846
258 8.03169 5.44784 0.0386746 0 0 1.00004 0.00337613
344 8.76902 6.97085 0.753762 0 0 1.00004 0.00350003
264 8.88265 5.41607 0.732553 0 0 1.00004 0.00333808
1181 8.94301 6.22967 1.56394 0 0 1.00004 0.00344326
343 9.57483 6.29754 0.772045 0 0 1.00004 0.00338475
1102 9.69901 5.43551 1.63954 0 0 1.00004 0.00332226
262 9.65207 5.5775 0.0262983 0 0 1.00004 0.00329929
268 10.379 5.4384 0.831054 0 0 1.00004 0.00324807
1185 10.3924 6.28951 1.54765 0 0 1.00004 0.00335782
345 10.3967 6.36059 0.102954 0 0 1.00004 0.00332773
347 11.1952 6.14682 0.979965 0 0 1.00004 0.00326208
266 11.0672 5.66694 0.024574 0 0 1.00004 0.00321083
349 11.8894 6.47625 0.0782265 0 0 1.00004 0.00322928
272 11.9297 5.38336 1.04596 0 0 1.00004 0.00313577
270 12.5036 5.70726 0.193873 0 0 1.00004 0.00310465
276 13.1733 5.89087 0.895832 0 0 1.00004 0.00308326
351 12.3218 6.34081 1.09043 0 0 1.00004 0.00320035
274 13.7661 5.62595 0.0432444 0 0 1.00004 0.00299658
1114 13.8185 5.9624 1.62876 0 0 1.00004 0.00306619
355 13.8522 6.65883 0.829676 0 0 1.00004 0.00310283
280 14.5068 5.79487 0.801547 0 0 1.00004 0.00296635
1197 14.7868 6.72182 1.4712 0 0 1.00004 0.00306343
357 14.5896 6.46789 0.0440089 0 0 1.00004 0.0030141
278 15.4056 5.68251 0.0443409 0 0 1.00004 0.0028789
359 15.4736 6.51548 0.825092 0 0 1.00004 0.00296605
284 16.2211 5.77249 0.956713 0 0 1.00004 0.00284672
1118 15.5361 5.92262 1.73161 0 0 1.00004 0.00293902
361 16.0904 6.39415 0.0527845 0 0 1.00004 0.00289886
363 16.8902 6.48719 1.16862 0 0 1.00004 0.00288147
282 16.9841 5.44746 0.273357 0 0 1.00004 0.00275982
286 18.1881 5.31928 0.537558 0 0 1.00004 0.00269785
288 17.4669 5.44153 1.25636 0 0 1.00004 0.00275649
365 17.4664 6.30075 0.411673 0 0 1.00004 0.00281387
367 18.0499 6.25224 1.37882 0 0 1.00004 0.00281036
372 18.6895 7.04737 1.15552 0 0 1.00004 0.00285627
369 18.764 6.21512 0.618186 0 0 1.00004 0.00275797
290 19.818 5.70839 0.61557 0 0 1.00005 0.00269368
371 19.7224 6.51566 1.32658 0 0 1.00005 0.00278807
373 20.4198 6.68069 0.602554 0 0 1.00005 0.00277774
294 21.1756 5.69924 0.63284 0 0 1.00005 0.00269602
296 20.5684 5.55135 1.37107 0 0 1.00005 0.0026979
375 21.2182 6.53078 1.27943 0 0 1.00005 0.00278957
377 22.1199 6.57686 0.653855 0 0 1.00005 0.00279629
300 22.1012 5.78079 1.33807 0 0 1.00005 0.00274365
16260 22.1431 5.65215 0.0542544 0 0 1.00005 0.00270895
298 23.1531 5.74221 0.63161 0 0 1.00006 0.00276149
379 23.1446 6.577 1.16747 0 0 1.00006 0.00285178
381 23.8928 6.64455 0.266279 0 0 1.00006 0.00287555
304 24.0127 5.78312 1.23607 0 0 1.00006 0.00282643
383 24.9209 6.44971 1.13184 0 0 1.00006 0.00294365
302 24.6976 5.87907 0.400824 0 0 1.00006 0.00285833
306 26.3278 5.74602 0.660174 0 0 1.00006 0.00296944
308 25.7255 5.91161 1.59436 0 0 1.00006 0.00296777
385 25.789 6.58992 0.472236 0 0 1.00006 0.00300178
387 26.5301 6.4797 1.35692 0 0 1.00006 0.00307575
312 27.375 5.73915 1.41674 0 0 1.00007 0.00307407
310 28.213 5.45517 0.683904 0 0 1.00006 0.00309438
389 27.4525 6.25901 0.607228 0 0 1.00006 0.00310536
392 27.5419 7.00408 1.27952 0 0 1.00007 0.00320643
391 28.4411 6.34453 1.32444 0 0 1.00007 0.00321351
390 28.4848 6.9 0.496603 0 0 1.00007 0.00324869
316 29.1235 5.43495 1.42222 0 0 1.00007 0.00318551
393 29.2495 6.12847 0.635231 0 0 1.00007 0.00323677
16276 29.2184 5.32384 0.0308018 0 0 1.00006 0.0031546
396 29.466 7.00022 1.18622 0 0 1.00007 0.00335523
16355 30.164 6.05809 0.0739699 0 0 1.00006 0.00329034
395 30.243 6.1251 1.28569 0 0 1.00007 0.00332765
394 30.4165 6.87305 0.490934 0 0 1.00007 0.00339279
320 31.0231 5.38695 1.41118 0 0 1.00006 0.0033127
397 31.2068 6.13465 0.61706 0 0 1.00006 0.00337281
400 31.2014 7.01575 1.1587 0 0 1.00006 0.00347487
401 1.18556 7.62478 0.635071 0 0 1.00006 0.00361486
404 1.30424 8.51038 1.43635 0 0 1.00006 0.00374032
478 0.63419 8.55361 0.383288 0 0 1.00006 0.00368137
479 0.408909 7.7529 1.27408 0 0 1.00006 0.00361088
402 1.8242 8.46583 0.583124 0 0 1.00006 0.0037261
403 2.04176 7.82471 1.47752 0 0 1.00006 0.00369706
405 2.53243 7.76186 0.394467 0 0 1.00006 0.00367132
408 2.71171 8.61627 1.45756 0 0 1.00006 0.00379888
406 3.1877 8.61322 0.400109 0 0 1.00006 0.00377465
407 3.34398 7.82424 1.29146 0 0 1.00006 0.00371953
326 3.37928 7.13667 0.467044 0 0 1.00006 0.00362583
412 4.00845 8.55564 0.973692 0 0 1.00005 0.00379354
409 4.15601 7.78964 0.340506 0 0 1.00005 0.0036982
410 4.77 8.50014 0.0808067 0 0 1.00005 0.00377172
411 4.8951 7.68095 1.22776 0 0 1.00005 0.00370822
413 5.57416 7.73128 0.23385 0 0 1.00005 0.00368273
416 5.62163 8.34693 0.977966 0 0 1.00005 0.00376527
334 6.38375 7.10954 0.167022 0 0 1.00005 0.00360269
415 6.36528 7.65004 1.042 0 0 1.00005 0.00367673
414 6.75593 8.44691 0.194277 0 0 1.00005 0.00373355
420 7.26054 8.28784 1.09035 0 0 1.00005 0.00371971
417 7.32436 7.66143 0.167588 0 0 1.00004 0.00363126
419 8.11646 7.85882 0.783283 0 0 1.00004 0.00362988
1258 8.11565 8.27291 1.75781 0 0 1.00004 0.00371758
1182 9.78859 7.0869 1.53272 0 0 1.00004 0.0034835
421 8.77999 7.73231 0.0225537 0 0 1.00004 0.00357155
1261 8.85663 7.60868 1.62496 0 0 1.00004 0.00360016
424 9.05235 8.45119 0.921552 0 0 1.00004 0.00365195
423 9.64877 7.7452 0.699883 0 0 1.00004 0.00353169
1262 9.84988 8.81393 1.53179 0 0 1.00004 0.00367447
1186 11.1226 7.06225 1.56777 0 0 1.00004 0.00339227
346 11.1548 7.08768 0.135658 0 0 1.00004 0.00334842
1265 10.4091 8.00541 1.65837 0 0 1.00004 0.00355363
428 10.4663 8.74297 0.743753 0 0 1.00004 0.00359019
348 10.5045 7.32187 0.775087 0 0 1.00004 0.00343333
427 11.2519 8.0603 0.885924 0 0 1.00004 0.00346403
429 11.8676 8.24188 0.0490085 0 0 1.00004 0.00341988
352 11.905 7.26237 0.847602 0 0 1.00004 0.00332586
1269 12.0249 7.95437 1.66596 0 0 1.00003 0.00343068
356 13.2598 7.4106 0.610687 0 0 1.00004 0.00322599
431 12.7783 8.32775 0.644962 0 0 1.00003 0.00336753
1190 12.6819 7.27796 1.45602 0 0 1.00004 0.00329081
1270 12.7113 8.81675 1.58208 0 0 1.00003 0.00346972
350 12.4787 7.48478 0.000941458 0 0 1.00004 0.00328858
1273 13.4266 8.12818 1.55339 0 0 1.00003 0.00333162
360 14.7941 7.43251 0.652235 0 0 1.00004 0.00310759
435 14.1492 8.20358 0.520601 0 0 1.00003 0.00323835
1194 14.0042 7.42765 1.42443 0 0 1.00004 0.00319774
1277 14.7807 8.24582 1.4237 0 0 1.00003 0.00322649
439 15.5873 8.35398 0.895164 0 0 1.00004 0.003153
364 16.0836 7.35418 0.920318 0 0 1.00004 0.00301042
1198 15.6145 7.58932 1.69626 0 0 1.00004 0.00310907
441 16.317 8.33913 0.158599 0 0 1.00004 0.00308381
443 16.7428 8.19433 1.12651 0 0 1.00004 0.00306593
362 16.8653 7.21383 0.297375 0 0 1.00004 0.00293451
368 17.4155 7.36987 1.12499 0 0 1.00004 0.00294067
445 17.5046 8.13101 0.319906 0 0 1.00004 0.00299313
447 18.1723 8.03193 1.04501 0 0 1.00004 0.00296972
366 18.2381 7.17892 0.23266 0 0 1.00004 0.00286301
370 19.4484 7.29324 0.619952 0 0 1.00005 0.00284464
451 19.3957 8.11874 1.17013 0 0 1.00005 0.00294699
449 18.9113 8.16879 0.198176 0 0 1.00004 0.00293628
453 20.2708 8.07291 0.360927 0 0 1.00005 0.00290767
376 20.3348 7.58951 1.29311 0 0 1.00005 0.00288803
374 21.1698 7.38053 0.639577 0 0 1.00005 0.00285041
455 21.1623 8.34528 1.00789 0 0 1.00005 0.00295561
380 22.0572 7.5636 1.10287 0 0 1.00005 0.00290152
457 22.1438 8.23704 0.255818 0 0 1.00006 0.00294911
459 23.1641 8.06703 0.968493 0 0 1.00006 0.00299026
1218 22.9641 7.38037 1.69074 0 0 1.00006 0.00294576
378 22.8701 7.36804 0.371451 0 0 1.00006 0.00289385
458 23.336 8.78181 0.19744 0 0 1.00006 0.00305147
1298 23.0138 8.77862 1.54657 0 0 1.00006 0.00308358
384 24.0274 7.20299 1.02862 0 0 1.00006 0.00295384
461 24.0856 7.95831 0.34765 0 0 1.00006 0.00301602
463 24.9976 7.95558 0.946952 0 0 1.00006 0.00309007
1302 24.9391 8.60507 1.62689 0 0 1.00007 0.0031877
382 24.935 7.18615 0.269031 0 0 1.00006 0.00299351
462 24.9822 8.67793 0.196635 0 0 1.00006 0.00314519
1301 23.9845 7.91517 1.71796 0 0 1.00006 0.00305594
388 25.7921 7.25818 1.19055 0 0 1.00006 0.00308836
465 25.9145 7.96982 0.30179 0 0 1.00007 0.0031452
468 26.0146 8.71459 0.951916 0 0 1.00007 0.00324606
467 26.767 7.88466 0.948944 0 0 1.00007 0.0032202
1306 26.7965 8.49866 1.67444 0 0 1.00007 0.00332472
386 26.7783 7.134 0.361916 0 0 1.00007 0.00313001
466 27.0227 8.45664 0.0918921 0 0 1.00007 0.00328311
472 27.7976 8.53739 0.981144 0 0 1.00007 0.00337616
469 27.7627 7.66349 0.412539 0 0 1.00007 0.00326515
471 28.6248 7.71225 1.15945 0 0 1.00007 0.00336293
1310 28.6522 8.56679 1.7227 0 0 1.00007 0.00348646
470 28.796 8.39146 0.379908 0 0 1.00007 0.00342541
476 29.6434 8.44777 1.14265 0 0 1.00007 0.00351812
473 29.5484 7.64479 0.396741 0 0 1.00007 0.00340718
475 30.3672 7.59952 1.24508 0 0 1.00007 0.00348452
474 30.4991 8.31326 0.522371 0 0 1.00007 0.00354813
480 31.3615 8.41732 1.16869 0 0 1.00007 0.00363239
477 31.5313 7.81395 0.378269 0 0 1.00006 0.00355771
484 1.28325 9.91413 0.914761 0 0 1.00006 0.00386378
481 1.364 9.30987 0.129656 0 0 1.00006 0.00379134
559 0.496573 9.22375 1.11484 0 0 1.00006 0.00376457
558 0.507691 9.90134 0.07665 0 0 1.00006 0.00380845
1322 1.87275 10.1047 1.7414 0 0 1.00006 0.00394951
483 2.03115 9.3224 1.18339 0 0 1.00006 0.00384233
482 2.16202 10.2636 0.252432 0 0 1.00006 0.00391448
485 2.75183 9.45755 0.424781 0 0 1.00006 0.00385466
488 2.86881 10.3343 0.980734 0 0 1.00006 0.00395907
487 3.38577 9.44822 1.20924 0 0 1.00006 0.00388965
486 3.60555 10.2893 0.0696429 0 0 1.00006 0.00394795
1326 3.80422 10.2482 1.68338 0 0 1.00006 0.00400213
489 4.06744 9.37134 0.119837 0 0 1.00006 0.00386107
1329 4.24077 9.28631 1.71529 0 0 1.00005 0.00390671
492 4.38728 10.0864 0.773628 0 0 1.00005 0.00394647
491 4.90924 9.15602 0.878408 0 0 1.00005 0.00385447
1330 5.14437 10.0141 1.62029 0 0 1.00005 0.00397669
493 5.52556 9.27655 0.000874336 0 0 1.00005 0.00384709
496 5.59372 10.0494 0.585684 0 0 1.00005 0.00393352
1333 5.65863 9.12091 1.67461 0 0 1.00005 0.00388198
495 6.26081 9.0569 0.683096 0 0 1.00005 0.00382133
1334 6.316 9.9208 1.25191 0 0 1.00005 0.00392987
1337 7.08508 9.17036 1.31668 0 0 1.00005 0.00383438
500 7.16377 9.8931 0.542753 0 0 1.00005 0.00387948
499 8.02235 8.98811 0.759718 0 0 1.00004 0.0037564
1338 8.05899 9.85859 1.2625 0 0 1.00004 0.00386801
504 8.83943 10.058 0.613994 0 0 1.00004 0.00382552
1341 8.89186 9.28671 1.47081 0 0 1.00004 0.00377844
501 8.92533 9.17551 0.0978245 0 0 1.00004 0.00371997
503 9.75114 9.56553 0.767209 0 0 1.00004 0.00372791
1342 9.61191 10.352 1.49448 0 0 1.00004 0.00385347
1266 11.2902 8.86406 1.52025 0 0 1.00003 0.00358133
508 10.4554 10.4449 0.721478 0 0 1.00004 0.00377174
1345 10.5984 9.69692 1.51005 0 0 1.00004 0.00372265
426 11.12 8.99517 0.0321036 0 0 1.00004 0.0035587
507 11.2194 9.7992 0.715372 0 0 1.00003 0.00365187
1346 11.3932 10.3252 1.72928 0 0 1.00003 0.00374929
432 12.0157 8.9724 0.774062 0 0 1.00003 0.00350223
1349 12.0517 9.73426 1.42751 0 0 1.00003 0.00361535
511 12.7619 9.91212 0.735046 0 0 1.00003 0.0035438
1353 13.2426 9.74169 1.70619 0 0 1.00003 0.00354112
436 13.5627 9.05161 0.825415 0 0 1.00003 0.00338802
1274 14.2545 8.98243 1.64235 0 0 1.00003 0.00336775
440 14.9943 9.25202 0.810739 0 0 1.00003 0.00329241
515 14.1383 9.8151 0.89858 0 0 1.00003 0.00342479
517 14.8554 10.2026 0.238554 0 0 1.00003 0.00338706
444 16.4005 9.19614 1.15975 0 0 1.00004 0.00319816
519 15.6875 9.94647 1.06452 0 0 1.00003 0.00332265
521 16.2258 10.2112 0.249882 0 0 1.00003 0.00328255
438 15.7925 9.25965 0.141091 0 0 1.00004 0.0032166
442 16.9816 9.0919 0.275087 0 0 1.00004 0.00312061
523 17.0287 9.99463 0.993989 0 0 1.00004 0.00323068
448 17.5828 9.06899 1.13743 0 0 1.00004 0.00311101
525 17.682 10.0342 0.200361 0 0 1.00004 0.0031733
527 18.2895 9.85791 1.0788 0 0 1.00004 0.00315367
446 18.2434 9.104 0.128647 0 0 1.00004 0.00305391
452 18.7893 8.89722 0.951285 0 0 1.00004 0.00303295
529 19.1085 9.72539 0.308341 0 0 1.00004 0.00308668
531 20.0254 9.85587 0.861427 0 0 1.00005 0.00309887
532 19.2565 10.4472 1.14395 0 0 1.00004 0.00318181
1369 19.1668 9.57172 1.70486 0 0 1.00004 0.00313515
450 19.7227 8.92962 0.215945 0 0 1.00005 0.00299539
456 20.3422 8.90322 1.03206 0 0 1.00005 0.00300854
533 20.5465 9.73324 0.0698349 0 0 1.00005 0.00306591
535 21.5085 9.73798 0.754396 0 0 1.00005 0.00309044
1373 20.787 9.61055 1.63242 0 0 1.00005 0.00311631
454 21.3137 8.99288 0.192267 0 0 1.00005 0.00300219
1374 21.6825 10.0377 1.72141 0 0 1.00006 0.00317831
536 20.9815 10.568 0.797504 0 0 1.00005 0.00316224
460 22.1861 8.93851 0.948235 0 0 1.00006 0.00303718
540 22.7469 10.429 0.805905 0 0 1.00006 0.003195
1377 22.5594 9.70029 1.47893 0 0 1.00006 0.00315412
537 22.5594 9.70579 0.219403 0 0 1.00006 0.00310626
539 23.4701 9.59511 0.78851 0 0 1.00006 0.0031532