ITEM: TIMESTEP
43500
ITEM: NUMBER OF ATOMS
32000
ITEM: BOX BOUNDS pp pp pp
0.0000000000000000e+00 3.1748021039364001e+01
0.0000000000000000e+00 3.1748021039364001e+01
0.0000000000000000e+00 3.1748021039364001e+01
ITEM: ATOMS id x y z c_phase c_nbond c_rho vx
4 0.688631 1.09123 0.481039 0 0 1.00005 0.00276442
83 1.55302 1.66405 0.792577 0 0 1.00005 0.00281888
842 1.30993 0.787022 1.40312 0 0 1.00005 0.00280221
921 0.595976 1.59193 1.39177 0 0 1.00005 0.002793
3 1.30943 0.0766216 0.632937 0 0 1.00005 0.00277853
841 0.418195 0.270499 1.25868 0 0 1.00005 0.0027543
8 2.29887 0.839905 1.01345 0 0 1.00005 0.00282174
85 2.3925 1.5042 0.201218 0 0 1.00005 0.00282931
925 2.4432 1.65702 1.74705 0 0 1.00005 0.00286803
6 3.08969 0.737955 0.201579 0 0 1.00005 0.0028221
7 3.15179 0.0643176 1.04097 0 0 1.00005 0.0028274
87 3.22334 1.55147 0.8729 0 0 1.00005 0.00285144
846 3.26882 0.835699 1.73804 0 0 1.00005 0.00285695
5 2.30093 0.00260876 0.162478 0 0 1.00005 0.00280251
12 3.99156 0.92014 0.975737 0 0 1.00005 0.00283962
849 4.05272 0.0791464 1.7305 0 0 1.00005 0.00285077
929 4.18289 1.71691 1.72303 0 0 1.00005 0.00288359
10 4.67259 0.863324 0.317287 0 0 1.00005 0.00282251
850 4.87623 0.948052 1.65942 0 0 1.00005 0.00285143
9 4.0214 0.0979322 0.185322 0 0 1.00005 0.00281878
93 5.46689 1.61247 0.392941 0 0 1.00004 0.00282965
16 5.52295 0.572902 1.15501 0 0 1.00004 0.00281558
14 6.17127 0.650377 0.315865 0 0 1.00004 0.00278454
95 6.39934 1.33752 0.977308 0 0 1.00004 0.00280076
854 6.31856 0.465288 1.73284 0 0 1.00004 0.00280747
933 5.55701 1.72193 1.46018 0 0 1.00004 0.00285313
97 7.06466 1.42594 0.223379 0 0 1.00004 0.00276468
20 7.19635 0.412919 0.894937 0 0 1.00004 0.00274716
937 7.18809 1.03694 1.72902 0 0 1.00004 0.00278159
99 7.83256 1.25686 0.965215 0 0 1.00004 0.00273196
18 8.02979 0.671485 0.163995 0 0 1.00004 0.00269767
941 8.57866 1.29675 1.65463 0 0 1.00004 0.00271044
101 8.67546 1.41881 0.241599 0 0 1.00004 0.00267718
24 8.68685 0.424518 1.08322 0 0 1.00004 0.00266889
22 9.25484 0.518109 0.260592 0 0 1.00004 0.00261977
28 9.93272 0.337158 0.926531 0 0 1.00004 0.00257841
103 9.41868 1.33686 1.11432 0 0 1.00004 0.00263962
105 10.0058 1.38427 0.107143 0 0 1.00004 0.00258451
32 11.5101 0.221374 0.662828 0 0 1.00004 0.00245276
107 10.7116 1.07842 0.84869 0 0 1.00004 0.00253093
866 10.8569 0.212239 1.4862 0 0 1.00004 0.00252274
949 11.6107 1.03202 1.45045 0 0 1.00003 0.00247401
946 10.9244 1.7247 1.75792 0 0 1.00004 0.00256043
26 10.5915 0.37293 0.0818299 0 0 1.00004 0.00252046
36 13.1319 0.225462 0.657028 0 0 1.00004 0.00232304
111 12.3102 1.09691 0.533707 0 0 1.00004 0.00239964
870 12.4062 0.321873 1.33849 0 0 1.00004 0.00239654
953 12.9823 1.2099 1.40794 0 0 1.00004 0.00236661
40 14.5844 0.346012 0.806098 0 0 1.00004 0.00221625
115 13.8144 1.12539 0.860125 0 0 1.00004 0.00228685
117 14.2698 1.57523 0.153168 0 0 1.00004 0.00225598
874 13.8493 0.369405 1.66445 0 0 1.00003 0.00229232
957 14.5932 1.17636 1.50873 0 0 1.00004 0.00224593
119 15.0849 1.56891 0.675898 0 0 1.00004 0.00220399
38 15.2864 0.714979 0.0667419 0 0 1.00004 0.00216538
44 15.8969 0.762924 0.79405 0 0 1.00004 0.0021352
123 16.7199 1.5461 0.68942 0 0 1.00004 0.00210874
878 15.3393 0.469765 1.65686 0 0 1.00004 0.00218776
882 16.7173 0.709519 1.35417 0 0 1.00004 0.0021031
961 15.814 1.5077 1.41068 0 0 1.00004 0.00217225
48 17.4359 0.727625 0.565777 0 0 1.00004 0.0020573
127 18.0975 1.58518 0.75494 0 0 1.00004 0.0020577
886 18.0886 0.747375 1.42555 0 0 1.00004 0.00205307
965 17.3956 1.74586 1.56834 0 0 1.00004 0.00210532
51 19.7195 0.00831906 0.663694 0 0 1.00004 0.00200978
52 18.9653 0.728841 0.688924 0 0 1.00004 0.00201991
131 19.7286 1.5408 0.837677 0 0 1.00004 0.00203498
889 19.1953 0.148278 1.54105 0 0 1.00004 0.00202965
890 19.7866 0.960906 1.68462 0 0 1.00004 0.00204153
969 18.8506 1.49712 1.49782 0 0 1.00004 0.00205492
129 19.0443 1.5736 0.00160948 0 0 1.00004 0.00203284
55 21.3365 0.342712 1.05898 0 0 1.00005 0.00203856
56 20.4475 0.768359 0.963591 0 0 1.00005 0.002025
135 21.3251 1.61571 0.952077 0 0 1.00005 0.00206103
54 21.4014 0.758026 0.210478 0 0 1.00005 0.00203537
133 20.5481 1.49557 0.204406 0 0 1.00005 0.00203297
973 20.5367 1.75629 1.7215 0 0 1.00005 0.00206923
57 22.2618 0.272124 0.529145 0 0 1.00005 0.00206278
59 23.0807 0.422014 1.37937 0 0 1.00005 0.00211753
60 22.3734 1.13732 1.31187 0 0 1.00005 0.00209394
137 22.2449 1.58056 0.513032 0 0 1.00005 0.00208525
58 23.19 1.03525 0.458056 0 0 1.00005 0.00211646
63 24.5971 0.37062 1.39647 0 0 1.00005 0.00221258
61 23.8773 0.343375 0.567546 0 0 1.00005 0.00214866
62 24.7732 1.15169 0.734982 0 0 1.00005 0.00222283
64 23.7994 1.21233 1.37244 0 0 1.00005 0.00217284
65 25.3293 0.31036 0.534646 0 0 1.00006 0.00225017
67 26.4094 0.365981 1.15177 0 0 1.00006 0.00234356
68 25.5445 1.10702 1.43494 0 0 1.00006 0.00229537
147 26.3435 1.70574 1.32776 0 0 1.00006 0.00237179
66 26.2929 0.927515 0.413483 0 0 1.00006 0.00233077
70 28.0468 1.26229 0.376989 0 0 1.00006 0.00248059
71 28.0839 0.488205 0.862483 0 0 1.00006 0.00247545
72 27.1891 1.01038 1.23182 0 0 1.00006 0.00241884
69 27.2215 0.23997 0.238263 0 0 1.00006 0.00239494
149 26.9861 1.75765 0.504961 0 0 1.00006 0.00241068
913 28.8931 0.346469 1.40525 0 0 1.00006 0.00254926
76 29.1533 1.20478 0.716 0 0 1.00006 0.00256837
914 29.8939 0.962853 1.55249 0 0 1.00006 0.00263721
993 29.0174 1.70743 1.49163 0 0 1.00006 0.00259053
75 29.796 0.347809 0.614261 0 0 1.00006 0.00260004
917 30.3783 0.159659 1.4378 0 0 1.00006 0.00265721
79 31.2814 0.456693 0.487562 0 0 1.00006 0.00269563
80 30.6326 1.17916 0.764465 0 0 1.00006 0.00267373
918 31.4175 0.966902 1.3824 0 0 1.00006 0.00272925
82 1.69798 2.43403 0.113792 0 0 1.00005 0.00284946
84 0.723953 2.37344 0.804181 0 0 1.00005 0.00281709
1001 0.982357 3.03646 1.55075 0 0 1.00005 0.00288533
161 0.920292 3.10685 0.128203 0 0 1.00005 0.00285836
922 1.73774 2.36528 1.59148 0 0 1.00005 0.00287611
163 1.88272 3.21849 0.941036 0 0 1.00005 0.00290985
88 2.50889 2.41265 0.792896 0 0 1.00005 0.00287572
167 3.25342 3.29482 0.860466 0 0 1.00005 0.00293914
926 3.27758 2.26272 1.55945 0 0 1.00005 0.00289961
86 3.30369 2.40122 0.0531132 0 0 1.00005 0.00287905
1005 2.7122 3.10934 1.75772 0 0 1.00005 0.00294735
1009 3.88067 3.42483 1.66762 0 0 1.00005 0.00297516
92 3.96701 2.58023 0.799521 0 0 1.00005 0.00289764
91 4.57194 1.84271 0.725207 0 0 1.00005 0.00285774
171 4.77841 3.35099 0.7704 0 0 1.00005 0.00293634
930 4.73065 2.66523 1.60041 0 0 1.00005 0.00291832
96 5.45937 2.58796 0.836916 0 0 1.00004 0.00287992
94 6.1832 2.47903 0.146691 0 0 1.00004 0.00284393
175 6.20557 3.24159 0.976112 0 0 1.00004 0.00289971
934 6.3891 2.24462 1.5164 0 0 1.00004 0.00285157
173 5.54489 3.35714 0.0163691 0 0 1.00004 0.00291546
1017 7.06424 3.11409 1.57509 0 0 1.00004 0.00287512
100 7.06561 2.22308 0.798717 0 0 1.00004 0.00280355
177 7.14652 2.9947 0.133214 0 0 1.00004 0.0028335
98 7.92336 2.26789 0.1407 0 0 1.00004 0.00275517
179 7.89743 3.1108 0.935586 0 0 1.00004 0.0028148
938 7.78854 2.10331 1.60063 0 0 1.00004 0.00278456
104 8.54965 2.23914 0.960537 0 0 1.00004 0.00272809
1021 8.6608 3.05164 1.68933 0 0 1.00004 0.00278985
181 8.72866 3.0212 0.0465112 0 0 1.00004 0.00274774
102 9.33038 2.14275 0.256939 0 0 1.00004 0.00266146
183 9.36059 3.02556 0.959138 0 0 1.00004 0.0027191
942 9.45457 2.26468 1.75111 0 0 1.00004 0.00269456
185 9.97467 2.96716 0.212427 0 0 1.00004 0.00265932
108 10.1626 2.06261 1.12 0 0 1.00004 0.00261275
106 10.6448 2.15158 0.206915 0 0 1.00004 0.00256553
112 11.4862 1.87372 0.793308 0 0 1.00004 0.00249509
187 10.9808 2.85825 0.941436 0 0 1.00003 0.00258607
1029 11.773 2.88788 1.62564 0 0 1.00003 0.00254806
116 12.9429 1.97287 0.618624 0 0 1.00003 0.00237827
191 12.237 2.70076 0.757923 0 0 1.00003 0.00247298
950 12.234 1.95874 1.50117 0 0 1.00003 0.00245522
1033 13.1358 3.0675 1.72863 0 0 1.00003 0.00245116
195 13.473 3.06175 0.852665 0 0 1.00003 0.00239465
954 13.6379 2.02606 1.50755 0 0 1.00003 0.00234587
114 13.6622 2.33465 0.0548357 0 0 1.00003 0.0023328
120 14.258 2.47722 0.933012 0 0 1.00003 0.00230415
1037 14.2869 3.4329 1.58319 0 0 1.00003 0.00237814
199 14.9396 3.46797 0.8854 0 0 1.00003 0.00231204
958 15.0208 2.33246 1.45221 0 0 1.00004 0.00225588
118 15.0555 2.52966 0.140042 0 0 1.00004 0.00224081
197 14.3936 3.25574 0.0457723 0 0 1.00003 0.00232826
124 15.8917 2.45092 0.709966 0 0 1.00004 0.00218917
203 16.5162 3.21459 0.686369 0 0 1.00004 0.00219439
962 16.5053 2.48523 1.53453 0 0 1.00004 0.00217597
1041 15.6114 3.28148 1.52581 0 0 1.00003 0.00227237
201 15.7816 3.2818 0.0304004 0 0 1.00004 0.00223531
128 17.2535 2.36279 0.687053 0 0 1.00004 0.00211516
207 18.1357 2.92818 0.709437 0 0 1.00004 0.00211273
966 18.2044 2.42816 1.59074 0 0 1.00004 0.00210736
1045 17.2884 3.1193 1.50897 0 0 1.00004 0.00217202
132 19.08 2.35077 1.0068 0 0 1.00004 0.00207114
211 19.9038 3.20578 1.26336 0 0 1.00004 0.00211753
209 19.0762 2.98526 0.186696 0 0 1.00004 0.00209188
130 19.7918 2.31096 0.108216 0 0 1.00004 0.00205548
134 21.4002 2.39042 0.447789 0 0 1.00005 0.00208421
136 20.4155 2.43321 1.09578 0 0 1.00005 0.0020773
215 21.5657 3.25702 1.36217 0 0 1.00005 0.00215113
213 20.6379 2.9721 0.325168 0 0 1.00005 0.00209464
139 23.1712 2.01601 1.49075 0 0 1.00005 0.00216278
138 23.2608 2.56117 0.716249 0 0 1.00005 0.00217431
140 22.3513 2.45616 1.21931 0 0 1.00005 0.00213571
217 22.2516 3.15813 0.592145 0 0 1.00005 0.00215542
16179 22.9915 3.33983 0.052708 0 0 1.00005 0.00219516
141 24.0508 1.77818 0.610237 0 0 1.00005 0.00218979
143 24.7754 1.94831 1.56129 0 0 1.00006 0.00226717
142 24.6956 2.63127 0.75627 0 0 1.00006 0.00227144
144 24.017 2.83493 1.50174 0 0 1.00005 0.00225365
223 24.8515 3.44841 1.51999 0 0 1.00006 0.00234793
16108 25.3369 2.77362 0.00896087 0 0 1.00006 0.00232071
145 25.5088 1.8175 0.513859 0 0 1.00006 0.00229453
146 26.21 2.55749 0.684335 0 0 1.00006 0.00238265
148 25.5563 2.51721 1.48619 0 0 1.00006 0.00234677
227 26.1518 3.43053 1.48421 0 0 1.00006 0.00244825
229 26.6298 3.44059 0.578252 0 0 1.00006 0.00246655
152 26.9773 2.52354 1.49511 0 0 1.00006 0.00246363
151 27.9738 1.94814 1.20345 0 0 1.00006 0.00251147
150 27.5565 2.64152 0.616842 0 0 1.00006 0.00249689
231 27.7063 3.29159 1.38716 0 0 1.00006 0.00256507
233 28.4887 3.17972 0.335311 0 0 1.00006 0.00259871
153 28.7574 2.0583 0.338779 0 0 1.00006 0.00256312
156 28.7646 2.70727 1.17498 0 0 1.00006 0.00260913
155 29.9658 1.9942 0.878388 0 0 1.00006 0.00265691
154 29.725 2.65866 0.279728 0 0 1.00006 0.00266366
235 29.8124 3.20985 1.17661 0 0 1.00006 0.0027176
997 30.5297 1.78348 1.68656 0 0 1.00006 0.00270939
159 31.4834 1.95104 0.917306 0 0 1.00006 0.00275318
160 30.742 2.67765 0.993586 0 0 1.00006 0.00274382
239 31.6214 3.2996 0.970176 0 0 1.00006 0.00283193
998 31.5718 2.66424 1.72131 0 0 1.00006 0.00281502
237 30.703 3.20009 0.164853 0 0 1.00006 0.00276047
157 30.9469 1.88611 0.0462262 0 0 1.00006 0.00270829
158 31.7163 2.62964 0.076808 0 0 1.00006 0.00278696
164 0.90566 3.7671 0.91942 0 0 1.00005 0.00291136
241 0.773738 4.59357 0.45669 0 0 1.00005 0.00296397
244 0.757568 5.2445 1.26888 0 0 1.00006 0.00304021
162 1.66158 3.85017 0.0848545 0 0 1.00005 0.00293467
1081 1.10708 4.38873 1.75729 0 0 1.00005 0.00299593
243 1.76134 4.65419 0.990312 0 0 1.00005 0.00301536
168 2.49006 4.04181 0.860983 0 0 1.00005 0.00298079
247 3.18346 4.88066 1.12888 0 0 1.00005 0.00306935
166 3.27459 4.16123 0.195448 0 0 1.00005 0.00299306
245 2.53963 4.95717 0.290923 0 0 1.00005 0.00304974
249 4.04644 4.88332 0.170314 0 0 1.00005 0.00305514
172 4.09087 4.11015 0.903857 0 0 1.00005 0.00300019
251 4.69323 4.91674 1.16956 0 0 1.00005 0.00307209
170 4.84567 4.20767 0.145504 0 0 1.00005 0.00299135
176 5.50147 4.05894 1.17275 0 0 1.00004 0.0029848
253 5.60894 4.79409 0.332972 0 0 1.00004 0.00302728
174 6.31367 3.98928 0.186447 0 0 1.00004 0.00293808
255 6.29688 4.77542 1.05989 0 0 1.00004 0.00301898
180 7.05314 3.83875 0.807232 0 0 1.00004 0.00290449
1097 7.22751 4.59989 1.69294 0 0 1.00004 0.0029887
260 7.23267 5.2274 0.8941 0 0 1.00004 0.00301829
259 7.92966 4.53673 0.578926 0 0 1.00004 0.00291354
1018 7.92631 3.93064 1.54297 0 0 1.00004 0.0028911
184 8.68727 3.94354 0.732728 0 0 1.00004 0.00282323
1101 8.71102 4.69089 1.52672 0 0 1.00004 0.00290818
263 9.53715 4.64957 0.846762 0 0 1.00004 0.00282795
1022 9.5143 3.84175 1.5472 0 0 1.00004 0.00278493
182 9.43539 3.93639 0.0631778 0 0 1.00004 0.00276542
265 10.2783 4.6076 0.134275 0 0 1.00003 0.00275864
188 10.2978 3.65681 0.914143 0 0 1.00004 0.0026923
1105 10.312 4.44068 1.71169 0 0 1.00003 0.00278284
267 10.9861 4.72971 0.936071 0 0 1.00003 0.00272766
1026 11.0808 3.65022 1.63952 0 0 1.00003 0.00265409
1109 11.7323 4.48116 1.74839 0 0 1.00003 0.00267528
186 10.9702 3.91126 0.176077 0 0 1.00003 0.00264722
192 11.7492 3.70999 0.824932 0 0 1.00003 0.00257878
269 11.7447 4.77983 0.227287 0 0 1.00003 0.00265773
196 12.8011 3.66347 0.83617 0 0 1.00003 0.00249059
271 12.5165 4.62766 1.02848 0 0 1.00003 0.00259654
1113 13.0994 5.05435 1.73351 0 0 1.00003 0.0026151
273 12.9403 4.68847 0.0597573 0 0 1.00003 0.00255121
275 13.5289 4.77455 0.818994 0 0 1.00003 0.00252008
200 14.2604 4.17129 0.714709 0 0 1.00003 0.00240908
1034 13.7784 4.27965 1.62539 0 0 1.00003 0.00248552
1117 14.4833 5.17122 1.56324 0 0 1.00003 0.00250678
277 14.4111 4.94691 0.0791427 0 0 1.00003 0.00245523
279 15.2051 5.06273 0.830395 0 0 1.00003 0.00241774
198 15.195 4.22251 0.108142 0 0 1.00003 0.00233844
1038 15.2256 4.44626 1.61846 0 0 1.00003 0.00238929
204 15.889 4.09215 0.928919 0 0 1.00004 0.00229434
281 16.0972 4.7982 0.188929 0 0 1.00004 0.00232642
1042 16.5459 3.98081 1.70116 0 0 1.00004 0.00227355
1121 16.0674 5.07338 1.66633 0 0 1.00003 0.00239108
283 16.8157 4.60175 0.910078 0 0 1.00004 0.00228135
208 17.4749 3.83407 0.813605 0 0 1.00004 0.00219208
287 18.294 4.4787 1.09446 0 0 1.00004 0.00221832
1046 18.1576 3.63721 1.65788 0 0 1.00004 0.00217925
285 17.6525 4.57904 0.0236249 0 0 1.00004 0.00223153
206 18.3385 3.84173 0.0696998 0 0 1.00004 0.00215625
212 19.072 3.69253 0.954834 0 0 1.00004 0.00214365
289 19.0432 4.58982 0.358311 0 0 1.00004 0.002198
291 19.9101 4.63019 1.09307 0 0 1.00004 0.00220964
292 19.0125 5.25241 1.19277 0 0 1.00004 0.00226946
210 19.8115 3.73674 0.237389 0 0 1.00004 0.00213165
216 20.6698 3.77835 1.21978 0 0 1.00005 0.00215788
295 21.1452 4.66254 1.36419 0 0 1.00005 0.00223657
214 21.3474 3.88815 0.506656 0 0 1.00005 0.00216551
293 20.3941 4.73924 0.338836 0 0 1.00005 0.00220673
297 21.8855 4.88608 0.782067 0 0 1.00005 0.00226137
219 23.1391 3.55624 1.38291 0 0 1.00005 0.00223905
220 22.2262 4.06843 1.28554 0 0 1.00005 0.0022262
299 22.8097 5.08037 1.24964 0 0 1.00005 0.00233065
218 22.9392 4.27319 0.516353 0 0 1.00005 0.00225808
221 23.9154 3.56383 0.757117 0 0 1.00005 0.00227099
222 24.7187 4.2506 0.615242 0 0 1.00006 0.00237113
224 23.8239 4.4588 1.3106 0 0 1.00005 0.00234254
301 23.9117 4.98304 0.515704 0 0 1.00006 0.00237073
303 24.7737 5.19422 1.39274 0 0 1.00006 0.0024727
305 25.2944 5.14752 0.548521 0 0 1.00006 0.00248671
228 25.4428 4.39934 1.56536 0 0 1.00006 0.00246435
225 25.4673 3.58318 0.764415 0 0 1.00006 0.00238465
307 26.1724 5.04298 1.31579 0 0 1.00006 0.00256775
226 25.9765 4.32264 0.394488 0 0 1.00006 0.002471
232 26.843 4.20515 1.34181 0 0 1.00006 0.00255591
309 27.0051 4.89004 0.623952 0 0 1.00006 0.00260663
311 27.8667 4.78765 1.36389 0 0 1.00006 0.00268945
230 27.559 3.96494 0.572291 0 0 1.00006 0.00257846
236 28.4901 3.9052 1.08647 0 0 1.00006 0.00266062
313 28.8336 4.66831 0.684127 0 0 1.00006 0.00273952
234 29.4844 3.72785 0.460189 0 0 1.00006 0.00271321
315 29.6636 4.45529 1.29 0 0 1.00006 0.00280101
314 29.9957 5.24877 0.794331 0 0 1.00006 0.00288102
240 30.5812 3.99867 1.01461 0 0 1.00006 0.00282045
238 31.6324 3.96153 0.346375 0 0 1.00006 0.00286977
317 30.818 4.64802 0.459703 0 0 1.00006 0.00287828
319 31.6088 4.57589 1.36348 0 0 1.00006 0.00294036
242 1.5878 5.50967 0.456568 0 0 1.00005 0.00307711
323 1.50367 6.18162 1.27466 0 0 1.00005 0.00316155
324 0.96465 6.91494 1.47892 0 0 1.00006 0.00322785
322 1.69991 6.9187 0.563515 0 0 1.00005 0.00322592
321 0.672954 5.98098 0.451824 0 0 1.00006 0.00308772
398 0.17372 6.90401 0.603949 0 0 1.00006 0.00316119
399 0.144067 6.10979 1.36283 0 0 1.00006 0.00309904
248 2.2304 5.50581 1.36659 0 0 1.00005 0.00312017
328 2.43344 7.02496 1.25408 0 0 1.00005 0.00327658
325 2.56681 6.20485 0.503009 0 0 1.00005 0.00317187
327 2.9849 6.18388 1.41642 0 0 1.00005 0.00320259
246 3.34986 5.61492 0.278743 0 0 1.00005 0.00312125
252 3.80621 5.6575 1.29818 0 0 1.00005 0.00315165
332 3.95983 7.00671 1.17297 0 0 1.00005 0.00328813
329 4.08126 6.30366 0.487067 0 0 1.00005 0.00319367
250 4.83971 5.51096 0.335022 0 0 1.00005 0.00310759
331 4.79351 6.14279 1.25327 0 0 1.00005 0.00319326
330 4.70333 7.05426 0.24288 0 0 1.00005 0.00326766
336 5.46249 6.88507 1.18982 0 0 1.00004 0.00325838
333 5.48986 6.29738 0.332519 0 0 1.00004 0.00317506
256 5.57901 5.49987 1.31756 0 0 1.00004 0.00311602
254 6.36716 5.47277 0.298739 0 0 1.00004 0.00306637
335 6.31795 6.28892 0.988084 0 0 1.00004 0.00316557
337 7.00378 6.1562 0.15128 0 0 1.00004 0.00310825
1177 7.08703 6.07929 1.65018 0 0 1.00004 0.00313869
340 7.08164 6.95976 1.01142 0 0 1.00004 0.00320798
339 7.8978 6.23419 0.788291 0 0 1.00004 0.00308476
1098 7.96262 5.49126 1.54711 0 0 1.00004 0.00303025
1178 7.90786 6.9418 1.65869 0 0 1.00004 0.00319631
258 7.87413 5.44162 0.0403003 0 0 1.00004 0.00299458
344 8.60243 6.96236 0.752919 0 0 1.00004 0.00312047
264 8.72678 5.40781 0.728514 0 0 1.00004 0.00295043
1181 8.78263 6.21978 1.55733 0 0 1.00003 0.0030599
343 9.41254 6.28931 0.768455 0 0 1.00003 0.00299639
1102 9.54361 5.42732 1.63775 0 0 1.00003 0.00293049
262 9.49479 5.56897 0.0260477 0 0 1.00003 0.00290663
268 10.2259 5.42683 0.826919 0 0 1.00003 0.00284963
1185 10.2333 6.2835 1.53925 0 0 1.00003 0.00296489
345 10.2401 6.34785 0.102728 0 0 1.00003 0.00293261
347 11.0398 6.13343 0.982251 0 0 1.00003 0.00286167
1186 10.9613 7.04998 1.56119 0 0 1.00003 0.00299777
266 10.9144 5.66352 0.0184252 0 0 1.00003 0.00280924
349 11.7369 6.46718 0.0792601 0 0 1.00003 0.00282545
272 11.782 5.37248 1.03872 0 0 1.00003 0.00272748
270 12.3602 5.70252 0.192684 0 0 1.00003 0.00269412
276 13.0282 5.88633 0.892153 0 0 1.00003 0.00267097
351 12.1722 6.32454 1.08857 0 0 1.00003 0.0027932
274 13.6283 5.61595 0.0442865 0 0 1.00003 0.00257934
1114 13.6721 5.95159 1.61976 0 0 1.00003 0.00265193
355 13.7059 6.65213 0.829671 0 0 1.00003 0.00269073
280 14.3666 5.78566 0.798207 0 0 1.00003 0.00254828
1197 14.6446 6.71531 1.46189 0 0 1.00003 0.00264917
357 14.4471 6.45718 0.0437492 0 0 1.00003 0.00259782
278 15.2766 5.67826 0.0431455 0 0 1.00003 0.00245844
359 15.3362 6.50606 0.823334 0 0 1.00003 0.00254882
284 16.0886 5.76756 0.958738 0 0 1.00003 0.00242756
1118 15.3983 5.91798 1.7283 0 0 1.00003 0.0025217
361 15.9542 6.38512 0.0503519 0 0 1.00003 0.00248069
363 16.7572 6.47968 1.16383 0 0 1.00003 0.00246543
282 16.8565 5.44034 0.274826 0 0 1.00004 0.00233991
286 18.0617 5.31074 0.538794 0 0 1.00004 0.00228165
288 17.3421 5.43565 1.25451 0 0 1.00004 0.00233862
365 17.3308 6.29289 0.411879 0 0 1.00004 0.0023981
367 17.9205 6.24671 1.37921 0 0 1.00004 0.00239762
372 18.555 7.04174 1.14851 0 0 1.00004 0.00244876
369 18.6337 6.21158 0.615843 0 0 1.00004 0.00234793
290 19.6912 5.7107 0.614665 0 0 1.00004 0.00228893
371 19.5963 6.51468 1.32679 0 0 1.00004 0.00238589
373 20.2894 6.68492 0.601791 0 0 1.00005 0.00238082
294 21.0476 5.70372 0.634496 0 0 1.00005 0.00230193
296 20.4487 5.55262 1.37226 0 0 1.00005 0.0022991
375 21.0898 6.53464 1.2784 0 0 1.00005 0.00239952
377 21.9915 6.58047 0.653614 0 0 1.00005 0.00241317
300 21.9766 5.78729 1.34138 0 0 1.00005 0.00235884
16260 22.0145 5.65585 0.0543196 0 0 1.00005 0.00232238
298 23.026 5.74672 0.636322 0 0 1.00005 0.00238447
379 23.0125 6.58551 1.16868 0 0 1.00005 0.00247871
381 23.7584 6.6563 0.264869 0 0 1.00006 0.00250807
304 23.8809 5.78916 1.24248 0 0 1.00006 0.00245747
383 24.7816 6.45845 1.1319 0 0 1.00006 0.00258399
302 24.5637 5.89095 0.403285 0 0 1.00006 0.00249423
306 26.1851 5.75732 0.664472 0 0 1.00006 0.00261579
308 25.5874 5.92313 1.60408 0 0 1.00006 0.00261321
385 25.6496 6.60665 0.473756 0 0 1.00006 0.00264884
387 26.3799 6.49004 1.36049 0 0 1.00006 0.00272681
312 27.2306 5.74975 1.42274 0 0 1.00006 0.00272711
310 28.0646 5.46371 0.689016 0 0 1.00006 0.0027482
389 27.3048 6.26883 0.612879 0 0 1.00006 0.00275927
391 28.2919 6.35956 1.32822 0 0 1.00006 0.00287316
390 28.3293 6.91104 0.500734 0 0 1.00006 0.00290873
392 27.3871 7.01309 1.28601 0 0 1.00006 0.00286439
316 28.9701 5.44463 1.42934 0 0 1.00006 0.00284283
395 30.085 6.13112 1.28975 0 0 1.00006 0.00298849
393 29.0937 6.13626 0.634794 0 0 1.00006 0.00289553
16355 30.008 6.06839 0.0732299 0 0 1.00006 0.00295017
16276 29.0689 5.32999 0.035544 0 0 1.00006 0.00281033
396 29.3067 7.01347 1.19124 0 0 1.00006 0.00301913
394 30.2539 6.87512 0.494053 0 0 1.00006 0.00305513
318 31.6231 5.31871 0.581497 0 0 1.00006 0.00298658
320 30.8662 5.39655 1.41924 0 0 1.00006 0.00297197
397 31.0491 6.14036 0.62215 0 0 1.00006 0.00303331
400 31.0349 7.0263 1.16083 0 0 1.00006 0.00313947
401 1.01119 7.62655 0.639643 0 0 1.00006 0.00327799
402 1.64086 8.46727 0.589227 0 0 1.00006 0.00339092
404 1.12983 8.51957 1.44335 0 0 1.00006 0.00340915
478 0.456897 8.56403 0.385064 0 0 1.00006 0.00334991
479 0.239649 7.76385 1.27755 0 0 1.00006 0.00327803
403 1.86756 7.83201 1.48189 0 0 1.00006 0.00336104
405 2.3554 7.7652 0.391129 0 0 1.00005 0.00333129
408 2.52958 8.62157 1.46082 0 0 1.00005 0.00346369
326 3.20673 7.14415 0.468643 0 0 1.00005 0.00328069
406 3.00287 8.62004 0.400868 0 0 1.00005 0.00343626
407 3.16461 7.82703 1.29203 0 0 1.00005 0.00337799
412 3.8217 8.55531 0.968823 0 0 1.00005 0.0034514
409 3.98111 7.79148 0.338892 0 0 1.00005 0.00335163
410 4.58747 8.50125 0.0802814 0 0 1.00005 0.00342527
411 4.71866 7.68326 1.2336 0 0 1.00005 0.00335897
413 5.39725 7.7228 0.236426 0 0 1.00004 0.00332737
416 5.4419 8.34174 0.973094 0 0 1.00004 0.00341347
334 6.21305 7.10928 0.164548 0 0 1.00004 0.00324063
414 6.57972 8.43914 0.191534 0 0 1.00004 0.00337456
415 6.18934 7.64813 1.04317 0 0 1.00004 0.00331811
420 7.0861 8.28771 1.08727 0 0 1.00004 0.0033584
417 7.15079 7.65105 0.169727 0 0 1.00004 0.0032645
419 7.94152 7.85499 0.780954 0 0 1.00004 0.00326007
1258 7.94213 8.26769 1.7557 0 0 1.00004 0.00335185
1182 9.62748 7.07582 1.52656 0 0 1.00003 0.00309799
421 8.60936 7.72059 0.0243699 0 0 1.00003 0.00319483
1261 8.68259 7.59944 1.62045 0 0 1.00003 0.00322519
424 8.88515 8.43886 0.917382 0 0 1.00003 0.00327722
423 9.48236 7.73312 0.696686 0 0 1.00003 0.00314902
1262 9.68219 8.80805 1.52438 0 0 1.00003 0.00329833
346 10.9966 7.07085 0.142072 0 0 1.00003 0.00295112
1265 10.2351 7.99769 1.65707 0 0 1.00003 0.00317065
428 10.2978 8.73292 0.739071 0 0 1.00003 0.0032071
348 10.3443 7.31816 0.769636 0 0 1.00003 0.00304341
427 11.0875 8.05066 0.883149 0 0 1.00003 0.00307248
429 11.7069 8.23128 0.0496202 0 0 1.00003 0.00302394
352 11.7501 7.25155 0.84427 0 0 1.00003 0.00292566
1269 11.8677 7.94031 1.66333 0 0 1.00003 0.00303477
356 13.1058 7.39645 0.604579 0 0 1.00003 0.00281864
431 12.6211 8.32122 0.6379 0 0 1.00003 0.00296755
1190 12.5204 7.26637 1.4474 0 0 1.00003 0.00288793
1270 12.5518 8.8017 1.57339 0 0 1.00003 0.00307343
1273 13.2713 8.11324 1.54529 0 0 1.00003 0.00292813
350 12.3243 7.4786 0.000937142 0 0 1.00003 0.00288594
360 14.6511 7.42339 0.641539 0 0 1.00003 0.00269456
435 13.9974 8.18996 0.511298 0 0 1.00003 0.00283028
1194 13.8516 7.41997 1.41304 0 0 1.00003 0.00278919
1277 14.6284 8.23928 1.41353 0 0 1.00003 0.00281912
439 15.4348 8.34721 0.891014 0 0 1.00003 0.00274391
362 16.7258 7.20762 0.294356 0 0 1.00003 0.00252046
364 15.9423 7.34788 0.921661 0 0 1.00003 0.00259704
443 16.5955 8.18838 1.1252 0 0 1.00003 0.00265667
1198 15.4692 7.58035 1.68735 0 0 1.00003 0.00269755
441 16.1757 8.3358 0.158568 0 0 1.00003 0.00267344
368 17.2749 7.36627 1.1239 0 0 1.00003 0.00252982
445 17.3649 8.12287 0.324379 0 0 1.00004 0.0025837
447 18.0293 8.02519 1.04099 0 0 1.00004 0.00256348
366 18.1016 7.17136 0.229139 0 0 1.00004 0.00245295
370 19.312 7.29434 0.623231 0 0 1.00004 0.00244289
451 19.2546 8.11659 1.16935 0 0 1.00004 0.00254822
449 18.7709 8.16612 0.192886 0 0 1.00004 0.00253379
453 20.1336 8.07555 0.359077 0 0 1.00004 0.00251428
376 20.1986 7.59205 1.29419 0 0 1.00005 0.00249459
374 21.0355 7.38435 0.643647 0 0 1.00005 0.00246212
455 21.0211 8.35109 1.00729 0 0 1.00005 0.00257148
380 21.92 7.57119 1.10619 0 0 1.00005 0.00252259
457 22.0041 8.24426 0.25545 0 0 1.00005 0.00257226
459 23.0224 8.07345 0.97231 0 0 1.00006 0.00262264
1218 22.8269 7.38804 1.69437 0 0 1.00005 0.00257541
378 22.7326 7.37691 0.372165 0 0 1.00005 0.00252015
458 23.1972 8.78529 0.196484 0 0 1.00006 0.00268713
1298 22.8665 8.78654 1.5458 0 0 1.00006 0.00271867
384 23.8882 7.21213 1.02818 0 0 1.00006 0.00259014
461 23.9446 7.96698 0.352844 0 0 1.00006 0.00265517
463 24.8518 7.96799 0.95056 0 0 1.00006 0.00273712
1302 24.789 8.61266 1.62952 0 0 1.00006 0.00283822
382 24.7983 7.19949 0.26752 0 0 1.00006 0.00263665
462 24.834 8.69138 0.197326 0 0 1.00006 0.00279424
1301 23.8413 7.92594 1.72564 0 0 1.00006 0.00269724
388 25.6449 7.2705 1.1965 0 0 1.00006 0.00273852
467 26.6124 7.89512 0.95222 0 0 1.00006 0.00287753
1306 26.6393 8.50879 1.68103 0 0 1.00006 0.0029869
386 26.6332 7.14859 0.361373 0 0 1.00006 0.00278456
465 25.7669 7.98662 0.301823 0 0 1.00006 0.00279817
468 25.8615 8.72821 0.956915 0 0 1.00006 0.00290339
466 26.8696 8.46909 0.0908215 0 0 1.00006 0.00294378
472 27.6353 8.54859 0.985089 0 0 1.00007 0.00304088
469 27.6086 7.67506 0.414675 0 0 1.00006 0.00292572
471 28.4632 7.72555 1.16556 0 0 1.00006 0.00302768
1310 28.4859 8.58176 1.72895 0 0 1.00007 0.00315635
470 28.6351 8.40369 0.387024 0 0 1.00006 0.00309243
476 29.4797 8.46089 1.14752 0 0 1.00006 0.00318816
473 29.3834 7.65133 0.399546 0 0 1.00006 0.00307186
475 30.2018 7.60823 1.24881 0 0 1.00006 0.00315111
474 30.3281 8.31664 0.524756 0 0 1.00006 0.003216
480 31.1887 8.42723 1.16972 0 0 1.00006 0.00330224
477 31.3635 7.82197 0.37889 0 0 1.00006 0.00322431
484 1.097 9.91718 0.910845 0 0 1.00006 0.00353573
481 1.18032 9.31572 0.128151 0 0 1.00006 0.0034608
1322 1.68069 10.1103 1.74373 0 0 1.00006 0.00362312
559 0.315183 9.23386 1.11926 0 0 1.00006 0.00343667
558 0.32218 9.90983 0.0702863 0 0 1.00006 0.00348166
483 1.84647 9.33236 1.18731 0 0 1.00006 0.00351193
482 1.97338 10.2685 0.256619 0 0 1.00006 0.00358552
485 2.56769 9.46105 0.43041 0 0 1.00005 0.00352107
488 2.68009 10.3425 0.979602 0 0 1.00005 0.00362935
487 3.19832 9.45299 1.21373 0 0 1.00005 0.00355503
486 3.41908 10.2916 0.0713204 0 0 1.00005 0.00361401
1326 3.61568 10.2505 1.68512 0 0 1.00005 0.00367011
489 3.88195 9.37613 0.113346 0 0 1.00005 0.00352207
1329 4.04968 9.28412 1.70923 0 0 1.00005 0.00356799
492 4.2008 10.0838 0.770272 0 0 1.00005 0.00360866
491 4.72432 9.15517 0.877797 0 0 1.00005 0.00351075
1330 4.95377 10.0137 1.62365 0 0 1.00005 0.00363769
493 5.34251 9.26867 0.00226437 0 0 1.00004 0.00349898
496 5.40416 10.0452 0.584754 0 0 1.00004 0.00358942
1333 5.46933 9.12057 1.67476 0 0 1.00004 0.0035363
495 6.07876 9.04658 0.681584 0 0 1.00004 0.00346835
1334 6.1252 9.91447 1.24174 0 0 1.00004 0.00358196
1337 6.89948 9.16277 1.31249 0 0 1.00004 0.0034786
500 6.98117 9.88626 0.541121 0 0 1.00004 0.0035252
499 7.8463 8.98064 0.755005 0 0 1.00004 0.00339226
1338 7.87966 9.84839 1.25698 0 0 1.00004 0.00350864
504 8.65702 10.0456 0.610681 0 0 1.00003 0.00346042
1341 8.71402 9.27687 1.46515 0 0 1.00003 0.00341141
501 8.74959 9.16357 0.0960116 0 0 1.00003 0.00334943
503 9.57457 9.55822 0.765065 0 0 1.00003 0.00335482
1342 9.42993 10.3478 1.48839 0 0 1.00003 0.00348783
1266 11.1238 8.8483 1.51174 0 0 1.00003 0.00319428
508 10.2761 10.4368 0.715023 0 0 1.00003 0.00339786
1345 10.4263 9.68998 1.50111 0 0 1.00003 0.00334579
426 10.9516 8.98707 0.0340025 0 0 1.00003 0.00317206
507 11.0442 9.7902 0.708314 0 0 1.00003 0.00326942
1346 11.2203 10.3087 1.72364 0 0 1.00003 0.00337043
432 11.8559 8.96073 0.77133 0 0 1.00003 0.00310934
1349 11.8757 9.72738 1.41305 0 0 1.00003 0.003229
511 12.5969 9.90417 0.73112 0 0 1.00003 0.00315179
516 13.3107 10.5805 1.00229 0 0 1.00002 0.00317147
1353 13.0672 9.72868 1.69714 0 0 1.00003 0.00314859
436 13.4099 9.04226 0.822154 0 0 1.00003 0.00298698
1274 14.0991 8.96422 1.6349 0 0 1.00003 0.00296476
440 14.8435 9.24782 0.802447 0 0 1.00003 0.0028877
515 13.9775 9.79881 0.890484 0 0 1.00003 0.00302471
517 14.6943 10.1996 0.236583 0 0 1.00003 0.00298684
444 16.2525 9.19055 1.15712 0 0 1.00003 0.00279258
519 15.5312 9.93326 1.0569 0 0 1.00003 0.00291942
521 16.0715 10.2084 0.251643 0 0 1.00003 0.00287997
438 15.6454 9.25191 0.134509 0 0 1.00003 0.00280945
442 16.838 9.0791 0.273609 0 0 1.00003 0.00271287
523 16.8769 9.98716 0.98837 0 0 1.00003 0.00282825
448 17.437 9.06756 1.13617 0 0 1.00003 0.0027074
525 17.5288 10.0306 0.202226 0 0 1.00003 0.00277222
527 18.1419 9.8561 1.07604 0 0 1.00004 0.00275546
446 18.1 9.10124 0.126742 0 0 1.00004 0.00265135
452 18.644 8.89067 0.947724 0 0 1.00004 0.0026326
529 18.9619 9.7198 0.306206 0 0 1.00004 0.00269064
531 19.8816 9.8565 0.856673 0 0 1.00004 0.00271047
532 19.109 10.442 1.14161 0 0 1.00004 0.00279061
1369 19.0221 9.56782 1.70117 0 0 1.00004 0.0027417
450 19.5826 8.92726 0.213818 0 0 1.00004 0.00260048
456 20.1976 8.9044 1.03404 0 0 1.00005 0.0026198
533 20.3964 9.73453 0.0691083 0 0 1.00005 0.00268063
535 21.3603 9.74167 0.75038 0 0 1.00005 0.00271395
1373 20.6442 9.61118 1.63331 0 0 1.00005 0.0027355
454 21.1735 8.99871 0.193345 0 0 1.00005 0.00262107
1374 21.5341 10.0398 1.72507 0 0 1.00005 0.00280738
536 20.8375 10.5729 0.798284 0 0 1.00005 0.00278468
460 22.0449 8.94527 0.948431 0 0 1.00005 0.00266433
539 23.3209 9.60231 0.786149 0 0 1.00006 0.0027937
540 22.5954 10.4348 0.812904 0 0 1.00006 0.0028329
1377 22.407 9.70513 1.48281 0 0 1.00006 0.00278886
537 22.4161 9.7157 0.216919 0 0 1.00005 0.00273928