ITEM: TIMESTEP
39500
ITEM: NUMBER OF ATOMS
32000
ITEM: BOX BOUNDS pp pp pp
0.0000000000000000e+00 3.1748021039364001e+01
0.0000000000000000e+00 3.1748021039364001e+01
0.0000000000000000e+00 3.1748021039364001e+01
ITEM: ATOMS id x y z c_phase c_nbond c_rho vx
4 0.584276 1.09238 0.478499 0 0 1.00005 0.00247324
83 1.44628 1.66457 0.79049 0 0 1.00005 0.0025258
842 1.20025 0.78786 1.40442 0 0 1.00005 0.00250952
921 0.488185 1.5928 1.38872 0 0 1.00005 0.00250257
3 1.20232 0.0755026 0.630847 0 0 1.00005 0.0024853
841 0.312001 0.269886 1.258 0 0 1.00005 0.00246354
8 2.18981 0.835858 1.01386 0 0 1.00005 0.00252566
85 2.28368 1.50049 0.20498 0 0 1.00005 0.00253301
925 2.33107 1.65866 1.74987 0 0 1.00005 0.00257289
6 2.98247 0.740603 0.202819 0 0 1.00004 0.00252266
7 3.04597 0.0631665 1.0413 0 0 1.00004 0.00252787
87 3.11533 1.55053 0.875227 0 0 1.00004 0.00255205
846 3.15845 0.833402 1.73968 0 0 1.00004 0.00255767
12 3.88415 0.923932 0.974485 0 0 1.00004 0.00253631
849 3.94666 0.0819531 1.72789 0 0 1.00004 0.00254734
929 4.07343 1.71653 1.72444 0 0 1.00004 0.0025805
10 4.56335 0.863843 0.318964 0 0 1.00004 0.00251546
850 4.77124 0.949957 1.65735 0 0 1.00004 0.00254385
9 3.91686 0.0996336 0.183098 0 0 1.00004 0.00251476
93 5.35753 1.61267 0.392595 0 0 1.00004 0.00251865
16 5.41271 0.571932 1.15958 0 0 1.00004 0.00250411
14 6.06325 0.649796 0.318231 0 0 1.00004 0.00246863
95 6.29339 1.33525 0.97231 0 0 1.00004 0.00248396
854 6.20963 0.464529 1.7295 0 0 1.00004 0.00249144
933 5.45195 1.72495 1.45766 0 0 1.00004 0.00254206
97 6.96139 1.4222 0.223395 0 0 1.00004 0.00244352
20 7.09341 0.410194 0.89206 0 0 1.00004 0.00242483
937 7.08279 1.03365 1.72594 0 0 1.00004 0.00246034
99 7.73012 1.25266 0.965297 0 0 1.00003 0.00240605
18 7.92992 0.670182 0.160944 0 0 1.00003 0.00236984
941 8.47532 1.29544 1.64929 0 0 1.00003 0.00238021
101 8.57559 1.41619 0.241904 0 0 1.00003 0.00234575
24 8.58837 0.422463 1.08396 0 0 1.00003 0.00233707
22 9.15795 0.517965 0.264254 0 0 1.00003 0.00228415
28 9.83684 0.338402 0.921128 0 0 1.00003 0.00223895
103 9.32227 1.33469 1.11693 0 0 1.00003 0.00230389
105 9.91193 1.3864 0.104053 0 0 1.00003 0.00224487
32 11.4219 0.220863 0.658772 0 0 1.00003 0.00210447
107 10.6175 1.07476 0.845868 0 0 1.00003 0.00218727
866 10.7651 0.20932 1.48115 0 0 1.00003 0.00217823
949 11.5171 1.03161 1.44744 0 0 1.00003 0.00212643
946 10.8303 1.7189 1.75708 0 0 1.00003 0.00221674
26 10.4975 0.372789 0.0813909 0 0 1.00003 0.00217705
36 13.0452 0.222809 0.654524 0 0 1.00003 0.00196897
111 12.2253 1.09434 0.529618 0 0 1.00003 0.00204806
870 12.3187 0.321698 1.33327 0 0 1.00003 0.00204489
953 12.8952 1.20997 1.4035 0 0 1.00003 0.00201347
40 14.5021 0.340833 0.799706 0 0 1.00003 0.00185945
115 13.7324 1.12402 0.859023 0 0 1.00003 0.00193126
117 14.1851 1.57443 0.156743 0 0 1.00003 0.00190013
874 13.7636 0.368022 1.66133 0 0 1.00003 0.00193717
957 14.5108 1.17123 1.50413 0 0 1.00003 0.0018897
119 15.0028 1.56732 0.674215 0 0 1.00003 0.00184774
38 15.2093 0.714735 0.0671196 0 0 1.00003 0.00180839
44 15.8168 0.764831 0.793566 0 0 1.00003 0.0017791
123 16.6445 1.54546 0.687983 0 0 1.00003 0.00175432
878 15.2587 0.468789 1.65558 0 0 1.00003 0.00183133
882 16.6412 0.709731 1.3517 0 0 1.00003 0.00174864
961 15.7364 1.50395 1.40745 0 0 1.00003 0.00181622
48 17.3577 0.728154 0.561904 0 0 1.00004 0.00170504
127 18.0218 1.58233 0.754946 0 0 1.00004 0.00170842
886 18.013 0.745288 1.42492 0 0 1.00004 0.00170362
965 17.3191 1.74588 1.56719 0 0 1.00004 0.00175362
51 19.6457 0.0096724 0.662503 0 0 1.00004 0.0016688
52 18.8914 0.72662 0.687127 0 0 1.00004 0.00167459
131 19.6539 1.54079 0.837167 0 0 1.00004 0.00169465
889 19.1239 0.149806 1.54001 0 0 1.00004 0.00168589
890 19.711 0.960288 1.68319 0 0 1.00004 0.00170152
969 18.7725 1.49806 1.49643 0 0 1.00004 0.00170981
129 18.97 1.57322 0.000621662 0 0 1.00004 0.00168828
55 21.2556 0.343584 1.05812 0 0 1.00004 0.00170856
56 20.3727 0.768649 0.965317 0 0 1.00004 0.00168905
135 21.2507 1.62025 0.950064 0 0 1.00004 0.00173187
54 21.328 0.757416 0.211825 0 0 1.00004 0.0017059
133 20.4733 1.49614 0.201911 0 0 1.00004 0.00169781
973 20.4604 1.75917 1.71816 0 0 1.00004 0.00173478
57 22.1837 0.268895 0.53006 0 0 1.00005 0.00173922
59 22.9998 0.422263 1.38125 0 0 1.00005 0.00180019
60 22.2939 1.1358 1.31232 0 0 1.00005 0.00177166
137 22.1688 1.57992 0.517526 0 0 1.00005 0.00176221
58 23.1134 1.03983 0.454079 0 0 1.00005 0.00180003
63 24.5077 0.371889 1.40267 0 0 1.00005 0.00190502
61 23.7956 0.345266 0.567718 0 0 1.00005 0.0018363
62 24.6917 1.15518 0.737365 0 0 1.00005 0.00191679
64 23.7148 1.21665 1.37464 0 0 1.00005 0.00186078
65 25.2413 0.310791 0.536719 0 0 1.00005 0.00194634
67 26.322 0.368236 1.15292 0 0 1.00005 0.00204574
68 25.4585 1.10743 1.44026 0 0 1.00005 0.00199396
147 26.2543 1.7073 1.3297 0 0 1.00005 0.00207453
66 26.2049 0.925612 0.41588 0 0 1.00005 0.00203218
70 27.9519 1.26394 0.378224 0 0 1.00005 0.00218857
71 27.9893 0.491271 0.863085 0 0 1.00005 0.00218336
72 27.099 1.01171 1.23506 0 0 1.00005 0.00212463
69 27.1317 0.23926 0.234937 0 0 1.00005 0.00209993
149 26.8943 1.76087 0.504759 0 0 1.00005 0.00211573
913 28.7932 0.344646 1.40319 0 0 1.00005 0.00225887
76 29.0569 1.20915 0.718838 0 0 1.00005 0.002279
914 29.798 0.959897 1.55403 0 0 1.00005 0.00234874
993 28.9228 1.70739 1.49118 0 0 1.00005 0.00230169
75 29.6962 0.349037 0.613587 0 0 1.00005 0.00231048
917 30.2731 0.16033 1.44071 0 0 1.00005 0.00236818
79 31.1747 0.461578 0.485053 0 0 1.00005 0.00240573
80 30.5324 1.18254 0.765692 0 0 1.00005 0.00238496
918 31.3153 0.967029 1.38383 0 0 1.00005 0.00244011
82 1.5907 2.43537 0.116108 0 0 1.00005 0.00255671
84 0.616541 2.37501 0.805065 0 0 1.00005 0.00252696
922 1.62898 2.36599 1.59151 0 0 1.00005 0.0025838
1001 0.875109 3.03652 1.55013 0 0 1.00005 0.00259594
161 0.814209 3.10567 0.12891 0 0 1.00005 0.00256847
163 1.77514 3.22288 0.94249 0 0 1.00005 0.00261814
88 2.39928 2.41531 0.791721 0 0 1.00005 0.00258033
167 3.14327 3.29498 0.861071 0 0 1.00004 0.00264185
926 3.16473 2.25924 1.55684 0 0 1.00004 0.00260091
86 3.19559 2.39994 0.0538238 0 0 1.00004 0.00257992
1005 2.60326 3.10961 1.75988 0 0 1.00005 0.00265301
1009 3.76508 3.42873 1.66663 0 0 1.00004 0.00267616
92 3.85674 2.57893 0.797057 0 0 1.00004 0.00259579
91 4.46346 1.84516 0.723893 0 0 1.00004 0.00255198
171 4.66866 3.3492 0.767488 0 0 1.00004 0.00263148
930 4.61737 2.66486 1.59849 0 0 1.00004 0.00261338
96 5.35146 2.58944 0.834557 0 0 1.00004 0.00257022
94 6.07545 2.47766 0.144861 0 0 1.00004 0.00252937
175 6.09467 3.2388 0.974483 0 0 1.00004 0.00258659
934 6.28255 2.24005 1.51553 0 0 1.00004 0.0025362
173 5.43683 3.35859 0.0126478 0 0 1.00004 0.00260629
1017 6.95324 3.11154 1.57485 0 0 1.00004 0.0025572
100 6.95911 2.21963 0.796219 0 0 1.00004 0.00248341
177 7.04291 2.98798 0.133858 0 0 1.00004 0.00251337
98 7.82013 2.26481 0.141328 0 0 1.00003 0.00242941
179 7.79035 3.10926 0.93836 0 0 1.00003 0.00249111
938 7.68262 2.09982 1.59856 0 0 1.00003 0.00246035
104 8.4438 2.23758 0.957458 0 0 1.00003 0.00239886
1021 8.55469 3.04919 1.68646 0 0 1.00003 0.00246168
181 8.6248 3.01805 0.0456124 0 0 1.00003 0.00241808
102 9.22835 2.13678 0.25745 0 0 1.00003 0.00232674
183 9.25724 3.0223 0.956075 0 0 1.00003 0.00238565
942 9.35261 2.26224 1.74638 0 0 1.00003 0.00236006
185 9.87231 2.96126 0.213155 0 0 1.00003 0.00232182
108 10.0641 2.05971 1.12128 0 0 1.00003 0.00227354
106 10.5489 2.1492 0.209945 0 0 1.00003 0.00222307
112 11.3923 1.86803 0.791034 0 0 1.00003 0.00214808
187 10.8847 2.85456 0.940318 0 0 1.00003 0.00224298
1029 11.6791 2.88301 1.62003 0 0 1.00003 0.00220137
116 12.8546 1.97012 0.614679 0 0 1.00003 0.00202551
191 12.144 2.69382 0.756379 0 0 1.00003 0.00212348
950 12.1406 1.95438 1.49797 0 0 1.00003 0.00210558
1033 13.0438 3.0634 1.72517 0 0 1.00003 0.00209996
195 13.3803 3.05951 0.853321 0 0 1.00003 0.00204244
954 13.5496 2.02204 1.50513 0 0 1.00003 0.00199191
114 13.576 2.33034 0.0564396 0 0 1.00003 0.00197838
120 14.172 2.47432 0.933335 0 0 1.00003 0.0019493
1037 14.1977 3.42766 1.58056 0 0 1.00003 0.00202476
199 14.8511 3.46529 0.886582 0 0 1.00003 0.00195796
958 14.9334 2.32716 1.45256 0 0 1.00003 0.00190081
118 14.9721 2.52911 0.140463 0 0 1.00003 0.00188504
197 14.3084 3.25301 0.0442351 0 0 1.00003 0.00197363
124 15.8114 2.45029 0.707585 0 0 1.00003 0.00183391
203 16.432 3.21199 0.682294 0 0 1.00003 0.00184117
962 16.4245 2.48455 1.53326 0 0 1.00003 0.00182241
1041 15.5225 3.27869 1.5222 0 0 1.00003 0.00191865
201 15.6979 3.27885 0.0290121 0 0 1.00003 0.00188062
128 17.174 2.35956 0.686352 0 0 1.00003 0.00176304
207 18.0567 2.92533 0.706676 0 0 1.00004 0.00176457
966 18.1271 2.42846 1.58749 0 0 1.00004 0.00175952
1045 17.2081 3.11729 1.50566 0 0 1.00003 0.00182118
132 19.004 2.34857 1.00705 0 0 1.00004 0.00172755
211 19.8283 3.20779 1.26431 0 0 1.00004 0.00178011
209 18.9993 2.9833 0.188745 0 0 1.00004 0.00174854
130 19.714 2.3134 0.106651 0 0 1.00004 0.00171607
134 21.3213 2.39029 0.448593 0 0 1.00004 0.0017558
136 20.3365 2.43555 1.09766 0 0 1.00004 0.00174229
215 21.4865 3.2578 1.36422 0 0 1.00005 0.00182556
213 20.5619 2.97018 0.326295 0 0 1.00004 0.00176144
139 23.0899 2.02126 1.49096 0 0 1.00005 0.00184722
138 23.1825 2.56268 0.718174 0 0 1.00005 0.00185977
140 22.2746 2.45841 1.21988 0 0 1.00005 0.00181481
217 22.1729 3.15856 0.592169 0 0 1.00005 0.00183412
16179 22.907 3.34394 0.0572723 0 0 1.00005 0.0018794
141 23.9724 1.779 0.611192 0 0 1.00005 0.00187986
143 24.6924 1.95046 1.56662 0 0 1.00005 0.00196244
142 24.6113 2.63445 0.757861 0 0 1.00005 0.00196631
144 23.9348 2.84095 1.50447 0 0 1.00005 0.00194533
223 24.7648 3.45163 1.52277 0 0 1.00005 0.00204558
16108 25.2497 2.78101 0.0109047 0 0 1.00005 0.00201945
145 25.4228 1.82031 0.511357 0 0 1.00005 0.0019929
146 26.1198 2.56174 0.687021 0 0 1.00005 0.00208549
148 25.4678 2.5184 1.48932 0 0 1.00005 0.00204668
227 26.0606 3.43538 1.48586 0 0 1.00005 0.00215285
229 26.5344 3.44515 0.579882 0 0 1.00005 0.00217243
152 26.8863 2.52509 1.49813 0 0 1.00005 0.00217029
151 27.8804 1.95185 1.20725 0 0 1.00005 0.00222064
150 27.462 2.64623 0.620381 0 0 1.00005 0.00220521
231 27.607 3.29766 1.38892 0 0 1.00006 0.00227522
233 28.391 3.18253 0.334094 0 0 1.00005 0.00230998
153 28.6587 2.06137 0.339185 0 0 1.00005 0.0022734
156 28.6662 2.71238 1.17797 0 0 1.00005 0.00232082
155 29.8688 2.00005 0.878435 0 0 1.00005 0.00236915
154 29.6249 2.65695 0.280445 0 0 1.00005 0.00237567
235 29.7084 3.21549 1.17543 0 0 1.00005 0.00243115
997 30.4235 1.78633 1.68903 0 0 1.00005 0.00242146
159 31.3776 1.95616 0.918067 0 0 1.00005 0.00246434
160 30.6393 2.68252 0.993748 0 0 1.00005 0.00245676
239 31.5136 3.30642 0.971122 0 0 1.00005 0.00254497
998 31.4652 2.6689 1.72122 0 0 1.00005 0.00252759
237 30.5953 3.20635 0.160964 0 0 1.00005 0.00247365
157 30.8479 1.88831 0.0427519 0 0 1.00005 0.00241992
158 31.6116 2.63514 0.076632 0 0 1.00005 0.00249858
164 0.797022 3.76953 0.919638 0 0 1.00005 0.00262308
241 0.661743 4.59463 0.460994 0 0 1.00005 0.00267716
243 1.6507 4.65862 0.990222 0 0 1.00005 0.00272666
244 0.640807 5.24839 1.26982 0 0 1.00005 0.0027555
162 1.55043 3.85233 0.0816079 0 0 1.00005 0.00264412
1081 0.997126 4.39085 1.75972 0 0 1.00005 0.00270924
168 2.37425 4.04438 0.858675 0 0 1.00005 0.00268809
247 3.06723 4.8799 1.13004 0 0 1.00004 0.00277566
166 3.16049 4.16144 0.197885 0 0 1.00004 0.002697
245 2.42562 4.96135 0.289299 0 0 1.00005 0.00275877
249 3.92977 4.88418 0.169229 0 0 1.00004 0.00275726
172 3.98048 4.1081 0.90148 0 0 1.00004 0.00270035
251 4.57458 4.91631 1.16779 0 0 1.00004 0.00277155
170 4.73512 4.20858 0.146074 0 0 1.00004 0.0026879
176 5.38869 4.05491 1.17681 0 0 1.00004 0.00267767
253 5.49472 4.79176 0.334757 0 0 1.00004 0.00272078
174 6.20539 3.98712 0.188832 0 0 1.00004 0.0026253
255 6.1782 4.77602 1.05726 0 0 1.00004 0.00270919
180 6.93955 3.83214 0.803614 0 0 1.00004 0.00258714
1097 7.11412 4.59225 1.689 0 0 1.00003 0.00267263
260 7.12156 5.21845 0.894644 0 0 1.00003 0.00270288
259 7.81971 4.53127 0.574394 0 0 1.00003 0.00259193
1018 7.81527 3.92786 1.53896 0 0 1.00003 0.00256939
184 8.57913 3.94246 0.72941 0 0 1.00003 0.00249603
1101 8.60089 4.68572 1.52419 0 0 1.00003 0.00258305
263 9.43132 4.64355 0.845401 0 0 1.00003 0.00249663
1022 9.41134 3.83554 1.54259 0 0 1.00003 0.00245213
182 9.33032 3.9315 0.0636166 0 0 1.00003 0.00243296
265 10.1766 4.59686 0.13411 0 0 1.00003 0.00242186
188 10.1981 3.64943 0.911787 0 0 1.00003 0.00235403
1105 10.206 4.43255 1.70656 0 0 1.00003 0.00244728
192 11.6537 3.70456 0.818352 0 0 1.00003 0.00223299
267 10.885 4.72769 0.934131 0 0 1.00003 0.00238848
269 11.6477 4.77161 0.228945 0 0 1.00003 0.00231383
1026 10.9828 3.64205 1.63448 0 0 1.00003 0.00231207
1109 11.6329 4.46916 1.74546 0 0 1.00003 0.00233162
186 10.8701 3.90733 0.177121 0 0 1.00003 0.00230591
196 12.7106 3.65327 0.83398 0 0 1.00003 0.00213994
271 12.4217 4.62057 1.02615 0 0 1.00003 0.00224926
1113 12.9973 5.05194 1.72979 0 0 1.00003 0.00226874
273 12.8489 4.68222 0.0609245 0 0 1.00003 0.00220201
275 13.4342 4.76214 0.818357 0 0 1.00003 0.00216942
200 14.1698 4.16765 0.712673 0 0 1.00003 0.0020566
1034 13.6849 4.27439 1.62328 0 0 1.00003 0.00213463
1117 14.3912 5.1661 1.55818 0 0 1.00003 0.00215601
277 14.3207 4.94387 0.0765697 0 0 1.00003 0.00210358
279 15.1138 5.05593 0.827763 0 0 1.00003 0.00206578
198 15.109 4.22003 0.10699 0 0 1.00003 0.0019849
1038 15.1353 4.44402 1.61608 0 0 1.00003 0.00203732
204 15.8044 4.08878 0.929727 0 0 1.00003 0.00194126
281 16.0138 4.79449 0.1895 0 0 1.00003 0.00197428
1042 16.4596 3.97663 1.69969 0 0 1.00003 0.00192198
1121 15.9768 5.07074 1.66276 0 0 1.00003 0.00204074
283 16.731 4.59651 0.908465 0 0 1.00003 0.00193059
208 17.3932 3.83226 0.813061 0 0 1.00003 0.00184252
287 18.2139 4.47623 1.09426 0 0 1.00004 0.00187317
1046 18.0772 3.63384 1.65576 0 0 1.00004 0.00183264
285 17.5734 4.57577 0.0219441 0 0 1.00003 0.00188312
206 18.2583 3.84048 0.0677013 0 0 1.00004 0.00181017
212 18.9957 3.69022 0.95245 0 0 1.00004 0.00180131
289 18.962 4.58795 0.358715 0 0 1.00004 0.00185669
291 19.8322 4.63242 1.08875 0 0 1.00004 0.00187432
292 18.931 5.25084 1.19218 0 0 1.00004 0.00192961
210 19.7332 3.73645 0.234721 0 0 1.00004 0.0017939
216 20.5921 3.77976 1.21975 0 0 1.00004 0.00182653
295 21.0645 4.66369 1.36676 0 0 1.00004 0.00191048
214 21.2653 3.88819 0.506174 0 0 1.00004 0.00183863
293 20.31 4.7405 0.33972 0 0 1.00004 0.00187468
297 21.7984 4.88852 0.785158 0 0 1.00005 0.00194054
219 23.0554 3.56257 1.38612 0 0 1.00005 0.0019257
220 22.1446 4.0718 1.28632 0 0 1.00005 0.0019068
299 22.7217 5.08733 1.24978 0 0 1.00005 0.00201765
218 22.8528 4.27802 0.513495 0 0 1.00005 0.00194374
221 23.8303 3.56982 0.759701 0 0 1.00005 0.00196244
222 24.6307 4.25436 0.614382 0 0 1.00005 0.00206873
224 23.7369 4.46581 1.31007 0 0 1.00005 0.00203549
301 23.8253 4.9878 0.516746 0 0 1.00005 0.00206482
303 24.6828 5.20093 1.39531 0 0 1.00005 0.00217369
305 25.199 5.15736 0.549574 0 0 1.00005 0.00218992
228 25.3496 4.40819 1.57133 0 0 1.00005 0.0021678
225 25.3779 3.59352 0.769462 0 0 1.00005 0.00208596
307 26.0743 5.05081 1.31636 0 0 1.00006 0.00227555
226 25.8821 4.32862 0.392044 0 0 1.00005 0.00217557
232 26.7456 4.21286 1.34364 0 0 1.00006 0.00226493
309 26.9056 4.8965 0.625299 0 0 1.00006 0.00231696
311 27.7646 4.79476 1.36817 0 0 1.00006 0.00240314
236 28.3894 3.91187 1.08738 0 0 1.00006 0.00237359
230 27.4619 3.97178 0.57129 0 0 1.00006 0.00228894
313 28.7303 4.67491 0.686767 0 0 1.00006 0.0024546
234 29.3814 3.73195 0.463285 0 0 1.00005 0.00242696
315 29.5584 4.46285 1.2951 0 0 1.00006 0.00251719
314 29.8869 5.25537 0.796292 0 0 1.00006 0.00259845
240 30.4754 4.00692 1.0168 0 0 1.00005 0.0025358
238 31.5243 3.9642 0.349296 0 0 1.00005 0.00258354
317 30.709 4.65287 0.46269 0 0 1.00005 0.00259427
319 31.4973 4.57971 1.36949 0 0 1.00005 0.00265608
242 1.46917 5.51439 0.458138 0 0 1.00005 0.00279052
323 1.38235 6.1877 1.2751 0 0 1.00005 0.00287754
324 0.843434 6.91691 1.48384 0 0 1.00005 0.00294694
322 1.57567 6.92436 0.564743 0 0 1.00005 0.00294274
321 0.552222 5.98382 0.45076 0 0 1.00005 0.00280396
398 0.0510773 6.91084 0.604037 0 0 1.00005 0.00288126
399 0.0287352 6.11582 1.36583 0 0 1.00005 0.00281809
248 2.10753 5.50927 1.37011 0 0 1.00005 0.00283223
328 2.30909 7.02839 1.2531 0 0 1.00005 0.00299175
325 2.44906 6.2073 0.505561 0 0 1.00005 0.00288368
327 2.85974 6.1829 1.41808 0 0 1.00005 0.0029132
246 3.23163 5.61754 0.278182 0 0 1.00004 0.0028285
252 3.68205 5.65725 1.30058 0 0 1.00004 0.00285763
332 3.8367 7.00564 1.16856 0 0 1.00004 0.00299672
329 3.96006 6.30408 0.489771 0 0 1.00004 0.0028994
250 4.72085 5.50862 0.333999 0 0 1.00004 0.00280707
331 4.67391 6.14026 1.25197 0 0 1.00004 0.00289537
330 4.5778 7.05478 0.240132 0 0 1.00004 0.00297253
336 5.33799 6.87967 1.18807 0 0 1.00004 0.00295885
333 5.36774 6.294 0.333593 0 0 1.00004 0.00287321
256 5.45889 5.49488 1.32038 0 0 1.00004 0.00281218
254 6.25329 5.47027 0.30066 0 0 1.00004 0.00275706
335 6.19902 6.28963 0.98605 0 0 1.00004 0.00285993
337 6.88433 6.14661 0.152307 0 0 1.00004 0.00279655
1177 6.96639 6.07228 1.6459 0 0 1.00003 0.00282799
340 6.95846 6.95448 1.01419 0 0 1.00003 0.0028996
339 7.78228 6.23079 0.785004 0 0 1.00003 0.0027686
1098 7.8469 5.48865 1.54265 0 0 1.00003 0.00271251
1178 7.78555 6.93904 1.65438 0 0 1.00003 0.0028841
258 7.76208 5.436 0.0415491 0 0 1.00003 0.00267556
344 8.48303 6.95472 0.752025 0 0 1.00003 0.00280192
264 8.61635 5.40074 0.725158 0 0 1.00003 0.00262606
1181 8.66851 6.21126 1.55175 0 0 1.00003 0.00273846
343 9.29717 6.28214 0.765619 0 0 1.00003 0.00267072
1102 9.43384 5.42004 1.636 0 0 1.00003 0.00260229
262 9.38355 5.56128 0.0254108 0 0 1.00003 0.00257776
268 10.1182 5.41721 0.823644 0 0 1.00003 0.0025159
1185 10.1208 6.27801 1.53232 0 0 1.00003 0.00263511
345 10.1296 6.33729 0.102373 0 0 1.00003 0.00260109
272 11.6789 5.3634 1.03267 0 0 1.00003 0.00238545
347 10.9302 6.12276 0.983471 0 0 1.00003 0.00252582
349 11.6297 6.45949 0.0799283 0 0 1.00003 0.00248652
1186 10.8471 7.03953 1.5558 0 0 1.00003 0.00266605
266 10.8073 5.65968 0.0136067 0 0 1.00003 0.0024726
270 12.2605 5.69787 0.191772 0 0 1.00003 0.00235012
276 12.9275 5.88202 0.889307 0 0 1.00003 0.00232545
351 12.0678 6.31162 1.08659 0 0 1.00003 0.00245155
274 13.5334 5.60789 0.0448558 0 0 1.00003 0.00223017
1114 13.5705 5.94277 1.6124 0 0 1.00003 0.00230483
355 13.604 6.64645 0.82951 0 0 1.00003 0.00234509
280 14.2701 5.77806 0.795523 0 0 1.00003 0.00219852
1197 14.5464 6.70954 1.45476 0 0 1.00003 0.00230191
357 14.3486 6.44869 0.0434194 0 0 1.00003 0.00224919
278 15.1887 5.67475 0.04212 0 0 1.00003 0.00210733
359 15.2415 6.49872 0.82191 0 0 1.00003 0.00219981
284 15.9981 5.76353 0.960019 0 0 1.00003 0.00207787
363 16.666 6.47403 1.15996 0 0 1.00003 0.00211834
1118 15.3032 5.91389 1.72539 0 0 1.00003 0.00217282
361 15.8605 6.37806 0.0485416 0 0 1.00003 0.00213141
282 16.7696 5.4352 0.275777 0 0 1.00003 0.00199051
286 17.9759 5.3048 0.539463 0 0 1.00004 0.00193631
288 17.2574 5.43145 1.25297 0 0 1.00003 0.00199119
365 17.238 6.28715 0.412001 0 0 1.00003 0.00205187
367 17.832 6.24287 1.37942 0 0 1.00003 0.00205433
372 18.4629 7.03797 1.14334 0 0 1.00004 0.0021098
369 18.5447 6.20958 0.61399 0 0 1.00004 0.00200757
290 19.6048 5.7128 0.614162 0 0 1.00004 0.00195399
371 19.51 6.51463 1.32738 0 0 1.00004 0.00205256
373 20.1998 6.6887 0.601389 0 0 1.00004 0.00205219
294 20.9597 5.70785 0.63598 0 0 1.00004 0.00197671
296 20.3672 5.55441 1.37321 0 0 1.00004 0.00196975
375 21.0013 6.53847 1.2781 0 0 1.00004 0.00207717
377 21.9027 6.58419 0.653525 0 0 1.00005 0.002097
300 21.8908 5.79316 1.34435 0 0 1.00005 0.00204172
16260 21.9259 5.65963 0.054111 0 0 1.00005 0.00200392
298 22.9378 5.75089 0.640287 0 0 1.00005 0.00207418
379 22.9203 6.59304 1.17018 0 0 1.00005 0.00217116
381 23.6643 6.66649 0.26395 0 0 1.00005 0.00220529
304 23.7887 5.79487 1.24782 0 0 1.00005 0.00215393
383 24.6832 6.46601 1.13225 0 0 1.00005 0.00228773
302 24.4702 5.90091 0.405466 0 0 1.00005 0.00219478
306 26.0841 5.76665 0.668044 0 0 1.00006 0.0023249
308 25.4898 5.93294 1.61171 0 0 1.00006 0.00232143
385 25.5506 6.62018 0.475182 0 0 1.00006 0.00235804
387 26.2727 6.49873 1.36361 0 0 1.00006 0.00243921
312 27.1277 5.7584 1.42766 0 0 1.00006 0.00244144
310 27.9585 5.47086 0.692969 0 0 1.00006 0.00246325
389 27.1993 6.27713 0.617358 0 0 1.00006 0.0024741
391 28.1848 6.37167 1.33134 0 0 1.00006 0.0025923
390 28.2174 6.92014 0.504065 0 0 1.00006 0.00262794
392 27.2758 7.02086 1.29137 0 0 1.00006 0.00258198
316 28.8601 5.45249 1.43527 0 0 1.00006 0.00256043
395 29.9711 6.13605 1.29309 0 0 1.00006 0.00270821
393 28.9815 6.14265 0.634471 0 0 1.00006 0.00261392
16355 29.8958 6.07692 0.0728983 0 0 1.00006 0.00266928
16276 28.9619 5.3352 0.0391373 0 0 1.00006 0.00252679
396 29.1916 7.0242 1.1953 0 0 1.00006 0.00274108
394 30.1365 6.87682 0.496254 0 0 1.00006 0.00277561
318 31.5073 5.32472 0.583712 0 0 1.00005 0.0027032
320 30.7529 5.40421 1.42555 0 0 1.00005 0.00269055
397 30.9353 6.14491 0.626061 0 0 1.00005 0.00275247
400 30.914 7.03463 1.16265 0 0 1.00006 0.0028614
401 0.884296 7.62785 0.643175 0 0 1.00005 0.0029977
402 1.50665 8.46824 0.593903 0 0 1.00005 0.0031113
404 1.00215 8.5266 1.44847 0 0 1.00005 0.00313284
478 0.327225 8.5723 0.386287 0 0 1.00005 0.00307373
479 0.116283 7.77238 1.28039 0 0 1.00005 0.0030012
403 1.74054 7.83773 1.48521 0 0 1.00005 0.00308092
405 2.22644 7.76748 0.388503 0 0 1.00005 0.00304777
408 2.39621 8.62506 1.46311 0 0 1.00005 0.00318345
326 3.08164 7.14935 0.469953 0 0 1.00005 0.00299291
406 2.86756 8.62506 0.401418 0 0 1.00005 0.00315333
407 3.03377 7.82864 1.29215 0 0 1.00005 0.00309275
412 3.68513 8.55441 0.965101 0 0 1.00004 0.00316499
409 3.85377 7.79253 0.337607 0 0 1.00004 0.00306197
410 4.45428 8.50136 0.080082 0 0 1.00004 0.00313502
411 4.59021 7.685 1.23795 0 0 1.00004 0.00306685
413 5.26877 7.71563 0.23841 0 0 1.00004 0.00302988
416 5.31135 8.33672 0.968755 0 0 1.00004 0.0031184
334 6.08993 7.10831 0.162518 0 0 1.00004 0.0029375
414 6.45153 8.43243 0.189148 0 0 1.00003 0.00307307
415 6.06177 7.64602 1.04389 0 0 1.00004 0.00301755
420 6.95963 8.28712 1.08439 0 0 1.00003 0.00305485
417 7.02569 7.64208 0.171114 0 0 1.00003 0.00295675
419 7.81514 7.85103 0.778878 0 0 1.00003 0.00294935
1258 7.81661 8.26303 1.75354 0 0 1.00003 0.00304423
1182 9.51279 7.06606 1.52141 0 0 1.00003 0.00277395
421 8.48687 7.7108 0.0256809 0 0 1.00003 0.00287826
1261 8.55724 7.59151 1.61655 0 0 1.00003 0.00291003
424 8.76497 8.42849 0.91372 0 0 1.00003 0.00296168
423 9.36327 7.7232 0.694005 0 0 1.00003 0.00282721
1262 9.56162 8.80208 1.51821 0 0 1.00003 0.00298102
346 10.8846 7.05752 0.146474 0 0 1.00003 0.00261729
1265 10.1099 7.99077 1.65533 0 0 1.00002 0.00284809
428 10.177 8.72432 0.735182 0 0 1.00002 0.00288404
348 10.2307 7.31371 0.76517 0 0 1.00003 0.0027154
352 11.6413 7.24242 0.841536 0 0 1.00002 0.0025891
427 10.9705 8.0426 0.880659 0 0 1.00002 0.0027427
429 11.5929 8.22208 0.0497258 0 0 1.00002 0.00269033
1269 11.7565 7.92833 1.66058 0 0 1.00002 0.00270116
356 12.9979 7.3848 0.599743 0 0 1.00003 0.00247622
431 12.5098 8.31539 0.63234 0 0 1.00002 0.00263054
1190 12.4062 7.25681 1.44045 0 0 1.00002 0.00254915
1270 12.4387 8.78954 1.5661 0 0 1.00002 0.00273907
1273 13.1623 8.10109 1.53871 0 0 1.00002 0.00258832
350 12.2155 7.47291 0.000984622 0 0 1.00002 0.00254731
360 14.5525 7.41596 0.633057 0 0 1.00003 0.00234792
435 13.8909 8.17901 0.504288 0 0 1.00002 0.002487
1194 13.7443 7.4133 1.40417 0 0 1.00002 0.00244592
1277 14.5215 8.2341 1.40581 0 0 1.00002 0.00247662
439 15.328 8.34141 0.887936 0 0 1.00003 0.00240028
362 16.6296 7.20294 0.291784 0 0 1.00003 0.00217453
364 15.844 7.34292 0.922738 0 0 1.00003 0.00225102
443 16.4929 8.18366 1.12388 0 0 1.00003 0.00231379
1198 15.3685 7.57316 1.6799 0 0 1.00003 0.00235232
441 16.0777 8.33311 0.158396 0 0 1.00003 0.00232934
368 17.1781 7.36363 1.12285 0 0 1.00003 0.00218676
445 17.2686 8.11697 0.327823 0 0 1.00003 0.00224147
447 17.9297 8.02054 1.03773 0 0 1.00003 0.00222444
366 18.0077 7.16598 0.226376 0 0 1.00003 0.00211144
370 19.2177 7.29562 0.625759 0 0 1.00004 0.0021091
451 19.1569 8.11565 1.16902 0 0 1.00004 0.0022163
453 20.0385 8.07844 0.357826 0 0 1.00004 0.00218759
449 18.6734 8.16458 0.188711 0 0 1.00004 0.00219844
376 20.1042 7.59465 1.29544 0 0 1.00004 0.00216815
374 20.9424 7.38804 0.646769 0 0 1.00004 0.00214065
455 20.9225 8.35642 1.00743 0 0 1.00005 0.00225279
380 21.8242 7.57794 1.10909 0 0 1.00005 0.00220917
457 21.9063 8.2508 0.25513 0 0 1.00005 0.00226018
459 22.9225 8.07953 0.975638 0 0 1.00005 0.00231864
1218 22.7306 7.39519 1.69788 0 0 1.00005 0.00226953
378 22.6366 7.38465 0.372902 0 0 1.00005 0.00221151
458 23.0991 8.78927 0.196037 0 0 1.00005 0.00238549
1298 22.7621 8.79371 1.54616 0 0 1.00005 0.00241634
384 23.7901 7.22 1.02805 0 0 1.00005 0.00229003
461 23.845 7.97451 0.356942 0 0 1.00005 0.00235699
463 24.7481 7.97874 0.953993 0 0 1.00006 0.00244551
1302 24.6818 8.61937 1.63199 0 0 1.00006 0.00254892
382 24.7017 7.21062 0.266514 0 0 1.00006 0.00234232
462 24.7284 8.7028 0.198015 0 0 1.00006 0.00250382
1301 23.7396 7.93588 1.73259 0 0 1.00006 0.00240086
388 25.5401 7.28093 1.20148 0 0 1.00006 0.00244983
467 26.5013 7.90402 0.955029 0 0 1.00006 0.00259423
1306 26.5258 8.51776 1.68677 0 0 1.00006 0.00270712
386 26.5295 7.16073 0.361138 0 0 1.00006 0.00249952
465 25.6614 8.00056 0.301855 0 0 1.00006 0.00251138
468 25.7515 8.73961 0.961183 0 0 1.00006 0.00261962
466 26.7595 8.47957 0.090067 0 0 1.00006 0.00266281
471 28.3462 7.73651 1.17044 0 0 1.00006 0.00275012
472 27.5178 8.55794 0.988319 0 0 1.00006 0.00276295
469 27.4976 7.68478 0.41643 0 0 1.00006 0.00264504
1310 28.3649 8.59387 1.73435 0 0 1.00006 0.00288236
470 28.5184 8.41374 0.392541 0 0 1.00006 0.00281629
475 30.0817 7.61542 1.25175 0 0 1.00006 0.00287459
476 29.3607 8.47155 1.15137 0 0 1.00006 0.00291414
473 29.2638 7.657 0.401676 0 0 1.00006 0.00279409
474 30.2036 8.31955 0.526798 0 0 1.00006 0.00294007
480 31.0624 8.43509 1.17071 0 0 1.00006 0.00302754
477 31.2413 7.82831 0.379247 0 0 1.00006 0.0029473
484 0.959997 9.91952 0.907964 0 0 1.00005 0.00326127
481 1.04586 9.32022 0.127107 0 0 1.00005 0.00318463
1322 1.53957 10.1143 1.74556 0 0 1.00005 0.0033496
559 0.182104 9.24185 1.12259 0 0 1.00005 0.00316301
558 0.185515 9.91663 0.0655261 0 0 1.00005 0.00320857
483 1.71081 9.34015 1.19029 0 0 1.00005 0.00323558
482 1.83447 10.2722 0.259682 0 0 1.00005 0.0033098
485 2.43277 9.46311 0.434646 0 0 1.00005 0.00324168
488 2.54105 10.3486 0.978642 0 0 1.00005 0.00335263
486 3.28215 10.2928 0.072704 0 0 1.00005 0.00333354
487 3.06094 9.45612 1.21703 0 0 1.00005 0.00327452
1326 3.477 10.252 1.68603 0 0 1.00005 0.00339112
489 3.74602 9.37951 0.10831 0 0 1.00004 0.00323782
1329 3.90928 9.28193 1.70419 0 0 1.00004 0.00328386
492 4.06398 10.0812 0.767209 0 0 1.00004 0.00332479
491 4.58911 9.15407 0.877048 0 0 1.00004 0.00322232
1330 4.81369 10.0129 1.62604 0 0 1.00004 0.00335255
493 5.20894 9.26177 0.00330393 0 0 1.00004 0.00320656
496 5.26566 10.0413 0.584056 0 0 1.00004 0.00329987
1333 5.33104 9.11964 1.67474 0 0 1.00004 0.00324586
495 5.94608 9.03797 0.680301 0 0 1.00004 0.00317169
1334 5.98533 9.90884 1.23355 0 0 1.00004 0.00328901
1337 6.76443 9.15569 1.30882 0 0 1.00003 0.0031791
500 6.84805 9.88023 0.539756 0 0 1.00003 0.0032266
499 7.71867 8.97399 0.75105 0 0 1.00003 0.00308562
1338 7.7495 9.83974 1.25216 0 0 1.00003 0.00320541
504 8.52461 10.0353 0.607911 0 0 1.00003 0.00315211
1341 8.58531 9.26869 1.46031 0 0 1.00003 0.00310185
501 8.62241 9.15373 0.0944913 0 0 1.00003 0.00303709
503 9.4471 9.55154 0.76296 0 0 1.00002 0.00303978
1342 9.29806 10.3438 1.48284 0 0 1.00002 0.00317858
1266 11.0048 8.83489 1.50461 0 0 1.00002 0.00286756
508 10.1467 10.4297 0.709571 0 0 1.00002 0.00308149
1345 10.3024 9.68371 1.49347 0 0 1.00002 0.00302722
426 10.8309 8.98003 0.0355709 0 0 1.00002 0.00284583
507 10.9184 9.7822 0.702638 0 0 1.00002 0.00294608
1346 11.0957 10.2953 1.71805 0 0 1.00002 0.00304968
432 11.7424 8.9509 0.768724 0 0 1.00002 0.00277775
1349 11.749 9.72136 1.40181 0 0 1.00002 0.00290241
436 13.3025 9.03491 0.819319 0 0 1.00002 0.00264877
511 12.4794 9.8973 0.727613 0 0 1.00002 0.00282032
516 13.192 10.5689 1.00004 0 0 1.00002 0.00283922
1353 12.9423 9.71782 1.68948 0 0 1.00002 0.00281672
1274 13.9895 8.94947 1.6286 0 0 1.00002 0.00262501
440 14.7377 9.24402 0.796244 0 0 1.00002 0.00254679
515 13.8634 9.78541 0.883991 0 0 1.00002 0.00268691
517 14.5806 10.1966 0.234665 0 0 1.00002 0.00264891
444 16.1489 9.18616 1.15488 0 0 1.00003 0.00245183
519 15.4209 9.92275 1.05083 0 0 1.00002 0.00257964
521 15.9632 10.2058 0.252882 0 0 1.00003 0.0025409
438 15.5427 9.24587 0.128939 0 0 1.00003 0.00246703
442 16.738 9.06945 0.272109 0 0 1.00003 0.00237097
523 16.7704 9.98148 0.983968 0 0 1.00003 0.00249007
448 17.3351 9.06644 1.13493 0 0 1.00003 0.00236926
525 17.4214 10.028 0.20358 0 0 1.00003 0.00243567
527 18.0382 9.85511 1.07406 0 0 1.00003 0.00242195
446 18.0001 9.09931 0.125196 0 0 1.00003 0.00231472
452 18.5429 8.88629 0.945197 0 0 1.00004 0.00229839
529 18.8593 9.71631 0.304563 0 0 1.00004 0.00235977
531 19.7807 9.85741 0.853168 0 0 1.00004 0.00238649
532 19.0052 10.4386 1.13987 0 0 1.00004 0.00246339
1369 18.9209 9.56537 1.69889 0 0 1.00004 0.00241306
450 19.4854 8.92627 0.212416 0 0 1.00004 0.00227157
456 20.0964 8.90612 1.03604 0 0 1.00004 0.00229642
533 20.2908 9.73621 0.0689389 0 0 1.00004 0.00235967
535 21.2557 9.74519 0.747528 0 0 1.00005 0.00240084
1373 20.5438 9.61234 1.63461 0 0 1.00004 0.00241853
454 21.0755 9.00417 0.194574 0 0 1.00005 0.00230463
1374 21.4291 10.0426 1.72877 0 0 1.00005 0.00249887
536 20.7362 10.5775 0.799305 0 0 1.00005 0.00247002
460 21.9458 8.95141 0.949337 0 0 1.00005 0.00235514
539 23.215 9.60853 0.785027 0 0 1.00005 0.00249543
540 22.4873 10.4407 0.818926 0 0 1.00005 0.00253191
1377 22.2985 9.7099 1.48665 0 0 1.00005 0.00248552
537 22.3147 9.72384 0.215038 0 0 1.00005 0.00243455
1378 23.4597 10.4254 1.38806 0 0 1.00006 0.00263117