ITEM: TIMESTEP
31500
ITEM: NUMBER OF ATOMS
32000
ITEM: BOX BOUNDS pp pp pp
0.0000000000000000e+00 3.1748021039364001e+01
0.0000000000000000e+00 3.1748021039364001e+01
0.0000000000000000e+00 3.1748021039364001e+01
ITEM: ATOMS id x y z c_phase c_nbond c_rho vx
4 0.409981 1.09498 0.473949 0 0 1.00004 0.0018829
83 1.26866 1.66592 0.786571 0 0 1.00004 0.00192964
842 1.01759 0.789611 1.40719 0 0 1.00004 0.00191493
921 0.307964 1.59503 1.3836 0 0 1.00004 0.00191304
3 1.02421 0.072733 0.626741 0 0 1.00004 0.00189027
841 0.135159 0.268827 1.25707 0 0 1.00004 0.00187449
8 2.00827 0.828093 1.01466 0 0 1.00004 0.00192265
85 2.10189 1.49329 0.211356 0 0 1.00004 0.00192916
925 2.14219 1.66128 1.75495 0 0 1.00004 0.00197022
6 2.80468 0.745096 0.204378 0 0 1.00003 0.00191156
7 2.87081 0.0607293 1.04153 0 0 1.00003 0.00191629
87 2.93624 1.54877 0.879233 0 0 1.00003 0.00193993
846 2.97354 0.828897 1.74296 0 0 1.00003 0.00194564
12 3.70698 0.929966 0.971233 0 0 1.00003 0.00191498
849 3.77141 0.0865905 1.72292 0 0 1.00003 0.00192534
929 3.89174 1.71574 1.72635 0 0 1.00003 0.00195799
10 4.38255 0.864129 0.321897 0 0 1.00003 0.00188551
850 4.59935 0.951413 1.6522 0 0 1.00003 0.00191113
9 3.74412 0.103119 0.179158 0 0 1.00003 0.00189252
93 5.17819 1.61222 0.391201 0 0 1.00003 0.0018782
16 5.23057 0.570796 1.16763 0 0 1.00003 0.00186306
14 5.88738 0.649185 0.322249 0 0 1.00003 0.00181736
95 6.12048 1.33031 0.962721 0 0 1.00003 0.00182965
854 6.03117 0.4636 1.72286 0 0 1.00003 0.00183886
933 5.27975 1.72953 1.45296 0 0 1.00003 0.00190033
97 6.79325 1.4149 0.222943 0 0 1.00003 0.00177916
20 6.92641 0.404635 0.885804 0 0 1.00002 0.00175813
937 6.9117 1.02768 1.71953 0 0 1.00002 0.00179488
99 7.56509 1.24504 0.964956 0 0 1.00002 0.00173022
941 8.31014 1.29196 1.63875 0 0 1.00002 0.00169351
18 7.76925 0.665736 0.154458 0 0 1.00002 0.0016904
101 8.41657 1.41121 0.241743 0 0 1.00002 0.0016572
24 8.43216 0.418677 1.08464 0 0 1.00002 0.00164788
22 9.00538 0.516829 0.270546 0 0 1.00002 0.00158671
28 9.68569 0.340342 0.911139 0 0 1.00002 0.00153268
103 9.17039 1.32954 1.12103 0 0 1.00002 0.001605
105 9.76505 1.38856 0.0986095 0 0 1.00002 0.00153759
32 11.2877 0.219711 0.650725 0 0 1.00002 0.00137889
107 10.4716 1.06756 0.840259 0 0 1.00002 0.0014712
866 10.6232 0.204292 1.47197 0 0 1.00002 0.00146022
949 11.3729 1.03035 1.44124 0 0 1.00002 0.00140128
946 10.6846 1.70811 1.75411 0 0 1.00002 0.00149892
26 10.3518 0.372354 0.0807655 0 0 1.00002 0.0014622
36 12.9155 0.218387 0.649669 0 0 1.00002 0.00123174
111 12.0976 1.08938 0.522112 0 0 1.00002 0.0013153
870 12.1869 0.320853 1.32372 0 0 1.00002 0.00131187
953 12.7642 1.20924 1.39519 0 0 1.00002 0.00127699
40 14.3818 0.331986 0.787728 0 0 1.00002 0.0011181
115 13.6114 1.12168 0.855919 0 0 1.00002 0.00119094
117 14.0599 1.57183 0.162435 0 0 1.00002 0.00115953
874 13.6359 0.365415 1.65503 0 0 1.00002 0.00119742
957 14.3894 1.1632 1.49574 0 0 1.00002 0.00114849
119 14.8825 1.56372 0.670991 0 0 1.00002 0.00110739
38 15.0978 0.714101 0.0678284 0 0 1.00002 0.00106803
44 15.7011 0.767581 0.792344 0 0 1.00002 0.00104132
123 16.5365 1.5443 0.685502 0 0 1.00002 0.00102133
878 15.1415 0.467133 1.65239 0 0 1.00002 0.0010911
882 16.5321 0.710166 1.34768 0 0 1.00002 0.00101572
961 15.6242 1.49715 1.402 0 0 1.00002 0.00107743
48 17.2455 0.728921 0.555736 0 0 1.00003 0.000978767
127 17.9132 1.57854 0.755006 0 0 1.00003 0.000989303
886 17.905 0.742392 1.42424 0 0 1.00003 0.000984287
965 17.2089 1.74553 1.56474 0 0 1.00003 0.00102684
51 19.5398 0.0120953 0.660895 0 0 1.00003 0.000971864
52 18.7857 0.72355 0.684653 0 0 1.00003 0.00096665
131 19.546 1.54162 0.836758 0 0 1.00003 0.000998092
889 19.0212 0.152544 1.53873 0 0 1.00003 0.000981256
890 19.6018 0.959738 1.68131 0 0 1.00003 0.0010056
969 18.6595 1.50034 1.49479 0 0 1.00003 0.0010006
55 21.1353 0.34473 1.05768 0 0 1.00004 0.00103726
56 20.2648 0.769063 0.968645 0 0 1.00003 0.00100376
135 21.1414 1.6292 0.946867 0 0 1.00004 0.00106183
54 21.2204 0.757058 0.214324 0 0 1.00004 0.00103636
133 20.3648 1.49818 0.1977 0 0 1.00003 0.00101417
57 22.0675 0.263696 0.532086 0 0 1.00004 0.00108331
59 22.8768 0.423046 1.38611 0 0 1.00004 0.00115771
60 22.1753 1.13451 1.31394 0 0 1.00004 0.00111781
137 22.0554 1.58034 0.525115 0 0 1.00004 0.00110668
58 22.9972 1.04953 0.447483 0 0 1.00004 0.00115989
63 24.3678 0.373707 1.4163 0 0 1.00004 0.00128428
61 23.6707 0.348707 0.567828 0 0 1.00004 0.00120565
62 24.5649 1.16261 0.741598 0 0 1.00004 0.0012994
64 23.5852 1.22495 1.37997 0 0 1.00004 0.00122965
65 25.104 0.311405 0.540753 0 0 1.00004 0.00133448
67 26.1832 0.372528 1.15584 0 0 1.00005 0.00144613
68 25.3234 1.10936 1.4507 0 0 1.00004 0.00138612
147 26.112 1.7114 1.33479 0 0 1.00005 0.00147501
66 26.0654 0.923108 0.420537 0 0 1.00004 0.00143113
70 27.798 1.26714 0.38078 0 0 1.00005 0.00160056
71 27.8363 0.496755 0.864754 0 0 1.00005 0.0015955
72 26.9543 1.01462 1.24169 0 0 1.00005 0.00153203
69 26.9879 0.238445 0.229991 0 0 1.00005 0.00150663
913 28.6291 0.341455 1.39963 0 0 1.00005 0.00167371
76 28.8982 1.218 0.724879 0 0 1.00005 0.00169567
914 29.6406 0.954564 1.5572 0 0 1.00004 0.00176634
993 28.7672 1.70807 1.49084 0 0 1.00005 0.0017185
75 29.5323 0.351028 0.612779 0 0 1.00004 0.00172696
917 30.0987 0.16286 1.4464 0 0 1.00004 0.00178469
79 30.9972 0.470648 0.480335 0 0 1.00004 0.00182006
80 30.3673 1.18819 0.767979 0 0 1.00004 0.00180167
918 31.1458 0.967684 1.38669 0 0 1.00004 0.00185488
82 1.41141 2.43756 0.120449 0 0 1.00004 0.00196009
84 0.436997 2.37796 0.807015 0 0 1.00004 0.0019372
163 1.59462 3.23037 0.945158 0 0 1.00004 0.00202156
922 1.44689 2.36677 1.59179 0 0 1.00004 0.0019873
1001 0.695124 3.03615 1.54944 0 0 1.00004 0.00200556
161 0.636351 3.10326 0.130095 0 0 1.00004 0.0019778
88 2.21577 2.4195 0.789616 0 0 1.00004 0.00197671
167 2.95938 3.29444 0.86213 0 0 1.00003 0.00203132
926 2.97634 2.25227 1.55153 0 0 1.00003 0.00198885
86 3.01574 2.39701 0.0549645 0 0 1.00003 0.00196732
1009 3.5717 3.43431 1.66428 0 0 1.00003 0.00206003
92 3.67337 2.57532 0.792372 0 0 1.00003 0.00197579
91 4.28383 1.84835 0.721191 0 0 1.00003 0.00192371
171 4.48604 3.34473 0.762399 0 0 1.00003 0.00200227
930 4.42857 2.66273 1.59546 0 0 1.00003 0.00198483
96 5.17391 2.59053 0.83005 0 0 1.00003 0.00193081
94 5.89871 2.47297 0.141273 0 0 1.00003 0.00187886
175 5.91169 3.23213 0.970514 0 0 1.00003 0.00193747
934 6.10732 2.23036 1.51336 0 0 1.00003 0.0018834
173 5.25839 3.35913 0.00620476 0 0 1.00003 0.00196657
1017 6.7705 3.10514 1.57361 0 0 1.00002 0.00189629
100 6.78561 2.21223 0.790861 0 0 1.00002 0.00181992
177 6.87369 2.97448 0.134916 0 0 1.00002 0.00184868
98 7.65351 2.25793 0.142112 0 0 1.00002 0.00175283
104 8.27359 2.23287 0.951162 0 0 1.00002 0.00171375
179 7.61647 3.10464 0.942034 0 0 1.00002 0.00181706
938 7.51093 2.0924 1.59362 0 0 1.00002 0.00178659
1021 8.38305 3.04274 1.68047 0 0 1.00002 0.00177655
181 8.4572 3.01086 0.0438432 0 0 1.00002 0.00173087
102 9.06602 2.12484 0.257527 0 0 1.00002 0.00162965
108 9.90852 2.05367 1.12255 0 0 1.00002 0.00156584
183 9.09297 3.01445 0.949967 0 0 1.00002 0.00168915
942 9.19084 2.25569 1.73703 0 0 1.00002 0.0016619
185 9.71031 2.94961 0.214547 0 0 1.00002 0.00161677
106 10.3992 2.14334 0.214265 0 0 1.00002 0.00150845
112 11.248 1.85716 0.786461 0 0 1.00002 0.0014238
187 10.7344 2.84649 0.937609 0 0 1.00002 0.00152535
1029 11.5339 2.87223 1.60889 0 0 1.00002 0.00147521
116 12.7217 1.96408 0.607966 0 0 1.00002 0.00128945
191 12.0019 2.68052 0.753727 0 0 1.00002 0.00139267
950 11.998 1.94654 1.49092 0 0 1.00002 0.00137508
1033 12.9035 3.05401 1.71691 0 0 1.00002 0.00136415
195 13.238 3.05484 0.854423 0 0 1.00002 0.00130589
954 13.4171 2.0143 1.49992 0 0 1.00002 0.00125312
114 13.4469 2.32119 0.0586992 0 0 1.00002 0.00123904
120 14.0444 2.46745 0.933416 0 0 1.00002 0.00120903
1037 14.0635 3.41681 1.5753 0 0 1.00002 0.00128506
199 14.7194 3.45887 0.888223 0 0 1.00002 0.00121809
958 14.8035 2.31782 1.45306 0 0 1.00002 0.00116105
118 14.8498 2.52681 0.140278 0 0 1.00002 0.00114431
197 14.1814 3.24734 0.0408019 0 0 1.00002 0.00123289
124 15.695 2.44868 0.702832 0 0 1.00002 0.00109587
203 16.3084 3.20722 0.6749 0 0 1.00002 0.00110708
962 16.3064 2.4826 1.53076 0 0 1.00002 0.00108845
1041 15.3903 3.27283 1.51581 0 0 1.00002 0.00118068
201 15.5754 3.27266 0.0260904 0 0 1.00002 0.00114197
128 17.0591 2.35396 0.684935 0 0 1.00003 0.0010348
207 17.9423 2.921 0.702532 0 0 1.00003 0.00104582
966 18.0152 2.42892 1.58236 0 0 1.00003 0.00104177
1045 17.0907 3.11411 1.50026 0 0 1.00003 0.0010937
132 18.8937 2.34603 1.00754 0 0 1.00003 0.00102148
211 19.7177 3.21245 1.26598 0 0 1.00003 0.0010871
209 18.8877 2.98124 0.191824 0 0 1.00003 0.00104226
130 19.601 2.31853 0.104195 0 0 1.00003 0.00102072
973 20.349 1.76489 1.71408 0 0 1.00003 0.00105133
134 21.2037 2.3915 0.450685 0 0 1.00004 0.00108649
136 20.221 2.4408 1.10108 0 0 1.00003 0.00105692
215 21.3671 3.26038 1.36928 0 0 1.00004 0.0011604
213 20.45 2.96894 0.328594 0 0 1.00003 0.00107995
139 22.9653 2.03209 1.49161 0 0 1.00004 0.00120711
138 23.0627 2.5672 0.721938 0 0 1.00004 0.00122172
140 22.1598 2.46429 1.22161 0 0 1.00004 0.00116236
217 22.0552 3.16207 0.592252 0 0 1.00004 0.0011799
16179 22.7767 3.35344 0.0650839 0 0 1.00004 0.00123715
141 23.8515 1.78229 0.613554 0 0 1.00004 0.00125331
143 24.5631 1.95608 1.57745 0 0 1.00004 0.00134636
142 24.4793 2.64236 0.761125 0 0 1.00004 0.00134887
144 23.8073 2.85347 1.51011 0 0 1.00004 0.00131988
223 24.6272 3.46026 1.52872 0 0 1.00005 0.00143192
16108 25.1123 2.79575 0.0133092 0 0 1.00005 0.00141034
149 26.7472 1.76772 0.505024 0 0 1.00005 0.00152143
145 25.2874 1.8268 0.507791 0 0 1.00004 0.00138445
146 25.9758 2.57145 0.692137 0 0 1.00005 0.00148537
148 25.327 2.52258 1.49643 0 0 1.00005 0.00143978
227 25.9139 3.44668 1.48973 0 0 1.00005 0.00155407
152 26.7396 2.5298 1.50469 0 0 1.00005 0.00157752
229 26.38 3.45525 0.58387 0 0 1.00005 0.00157693
151 27.7283 1.95934 1.21485 0 0 1.00005 0.00163381
150 27.3086 2.65613 0.627269 0 0 1.00005 0.00161614
231 27.4442 3.3099 1.39355 0 0 1.00005 0.00168806
233 28.2304 3.18909 0.331372 0 0 1.00005 0.00172578
153 28.4971 2.06771 0.340032 0 0 1.00005 0.00168895
156 28.5046 2.72299 1.1844 0 0 1.00005 0.00173781
155 29.7083 2.01215 0.878406 0 0 1.00004 0.00178759
154 29.4599 2.65445 0.282467 0 0 1.00005 0.00179324
235 29.5353 3.22739 1.17352 0 0 1.00005 0.00185028
997 30.2472 1.79214 1.69373 0 0 1.00004 0.00183875
159 31.2019 1.96556 0.919581 0 0 1.00004 0.00187909
160 30.4682 2.6911 0.994914 0 0 1.00004 0.00187472
239 31.3329 3.31959 0.972274 0 0 1.00004 0.00196109
998 31.2871 2.67739 1.72158 0 0 1.00004 0.00194332
237 30.415 3.21943 0.152852 0 0 1.00004 0.00189172
157 30.6835 1.89333 0.0366868 0 0 1.00004 0.00183653
158 31.4368 2.6448 0.0763314 0 0 1.00004 0.00191311
164 0.613711 3.77446 0.919862 0 0 1.00004 0.00203413
241 0.472678 4.59627 0.468449 0 0 1.00004 0.00208958
243 1.46396 4.66592 0.989936 0 0 1.00004 0.00213316
244 0.442262 5.25554 1.27176 0 0 1.00004 0.0021701
162 1.36329 3.85682 0.0753145 0 0 1.00004 0.00204952
168 2.17835 4.04845 0.85487 0 0 1.00004 0.00208696
247 2.87134 4.87737 1.13274 0 0 1.00003 0.00216894
166 2.96878 4.16086 0.201882 0 0 1.00003 0.00208734
245 2.23248 4.96809 0.28616 0 0 1.00004 0.00215881
249 3.73326 4.88429 0.167033 0 0 1.00003 0.00214056
172 3.79538 4.10343 0.897312 0 0 1.00003 0.00208121
251 4.3746 4.91354 1.16389 0 0 1.00003 0.00214757
170 4.55068 4.20866 0.147148 0 0 1.00003 0.00205962
176 5.20076 4.04549 1.18333 0 0 1.00003 0.00204044
253 5.30381 4.78498 0.338006 0 0 1.00003 0.00208317
174 6.02775 3.98066 0.193199 0 0 1.00003 0.00197508
255 5.97951 4.77451 1.05096 0 0 1.00003 0.00206318
180 6.7514 3.81862 0.796096 0 0 1.00002 0.00192665
1097 6.92631 4.57612 1.68029 0 0 1.00002 0.00201182
260 6.93771 5.20039 0.895337 0 0 1.00002 0.00204234
259 7.63968 4.51907 0.566378 0 0 1.00002 0.00191911
1018 7.63316 3.92013 1.53046 0 0 1.00002 0.00189721
184 8.40348 3.93768 0.722527 0 0 1.00002 0.00181155
1101 8.42048 4.67367 1.51842 0 0 1.00002 0.00190056
188 10.0398 3.63428 0.906623 0 0 1.00002 0.00164526
263 9.26072 4.62982 0.841841 0 0 1.00002 0.00180052
265 10.0145 4.5752 0.133029 0 0 1.00002 0.00171409
1022 9.24697 3.82178 1.53323 0 0 1.00002 0.00175451
1105 10.0355 4.41526 1.69603 0 0 1.00002 0.00174148
182 9.16166 3.92061 0.0643896 0 0 1.00002 0.00173682
192 11.5051 3.69295 0.80614 0 0 1.00002 0.00150771
267 10.7244 4.72063 0.92941 0 0 1.00002 0.0016741
269 11.495 4.75488 0.231691 0 0 1.00002 0.00158993
1026 10.8283 3.62538 1.62421 0 0 1.00002 0.00159434
1109 11.477 4.44524 1.73902 0 0 1.00002 0.00160791
186 10.7114 3.89793 0.178594 0 0 1.00002 0.00158993
196 12.5737 3.63294 0.829785 0 0 1.00002 0.00140468
271 12.2746 4.60575 1.02117 0 0 1.00002 0.00151822
1113 12.8361 5.04459 1.72202 0 0 1.00002 0.0015377
275 13.2889 4.7388 0.815783 0 0 1.00002 0.00143173
273 12.7083 4.66888 0.0628643 0 0 1.00002 0.00146733
200 14.0318 4.15949 0.708824 0 0 1.00002 0.00131751
1034 13.5413 4.26228 1.61789 0 0 1.00002 0.00139712
1117 14.2504 5.1554 1.54829 0 0 1.00002 0.00141723
279 14.9751 5.04295 0.823267 0 0 1.00002 0.00132661
1038 14.998 4.43837 1.61102 0 0 1.00002 0.00129915
277 14.1826 4.93681 0.0713744 0 0 1.00002 0.00136437
198 14.9803 4.21424 0.104211 0 0 1.00002 0.00124511
204 15.6789 4.08191 0.930208 0 0 1.00002 0.0012038
281 15.8893 4.78787 0.189636 0 0 1.00002 0.00123771
283 16.6049 4.58791 0.905391 0 0 1.00002 0.00119887
1042 16.3316 3.96904 1.69663 0 0 1.00002 0.00118874
1121 15.8397 5.06543 1.65594 0 0 1.00002 0.0013058
208 17.273 3.82931 0.811951 0 0 1.00003 0.0011169
287 18.0952 4.47351 1.09384 0 0 1.00003 0.00115724
1046 17.9589 3.62927 1.65278 0 0 1.00003 0.00111493
285 17.457 4.57111 0.0193015 0 0 1.00003 0.00115891
206 18.1406 3.83952 0.0641743 0 0 1.00003 0.00109434
212 18.8838 3.68798 0.948874 0 0 1.00003 0.00109543
289 18.8415 4.58656 0.359316 0 0 1.00003 0.00115065
291 19.716 4.63826 1.08139 0 0 1.00003 0.00118245
292 18.8088 5.25009 1.19173 0 0 1.00003 0.0012243
210 19.6181 3.73811 0.230712 0 0 1.00003 0.00109942
216 20.4759 3.78418 1.22019 0 0 1.00004 0.00114664
295 20.942 4.66902 1.37137 0 0 1.00004 0.0012402
297 21.6644 4.89591 0.790972 0 0 1.00004 0.00128222
214 21.1413 3.89113 0.506004 0 0 1.00004 0.00116952
293 20.1827 4.74478 0.342656 0 0 1.00003 0.00119058
219 22.9258 3.57578 1.39295 0 0 1.00004 0.00128752
220 22.02 4.08042 1.28896 0 0 1.00004 0.00125391
299 22.5846 5.1033 1.25113 0 0 1.00004 0.00137625
218 22.7189 4.28914 0.508935 0 0 1.00004 0.00130217
221 23.6978 3.58286 0.764829 0 0 1.00004 0.00133553
222 24.4912 4.26397 0.614173 0 0 1.00005 0.00145366
224 23.6005 4.48115 1.31088 0 0 1.00004 0.00140917
305 25.0451 5.17811 0.552299 0 0 1.00005 0.00158417
301 23.6889 4.99928 0.519532 0 0 1.00004 0.00143993
303 24.5368 5.216 1.4013 0 0 1.00005 0.00156255
228 25.1993 4.42702 1.58306 0 0 1.00005 0.00156397
225 25.2353 3.61404 0.778637 0 0 1.00005 0.00148024
307 25.914 5.06782 1.3189 0 0 1.00005 0.00167946
232 26.5864 4.22898 1.34809 0 0 1.00005 0.00167356
309 26.7423 4.91096 0.628149 0 0 1.00005 0.00172695
226 25.7294 4.34182 0.388396 0 0 1.00005 0.00157525
311 27.5953 4.81008 1.37671 0 0 1.00005 0.00181969
236 28.2233 3.926 1.08992 0 0 1.00005 0.00179103
230 27.303 3.98667 0.569455 0 0 1.00005 0.00170165
313 28.5583 4.68838 0.691586 0 0 1.00005 0.00187425
234 29.2103 3.7403 0.469577 0 0 1.00005 0.00184599
315 29.3825 4.47769 1.30482 0 0 1.00005 0.00193876
314 29.7037 5.26847 0.800794 0 0 1.00005 0.00202045
240 30.2982 4.02351 1.02003 0 0 1.00005 0.00195621
238 31.3426 3.96845 0.355482 0 0 1.00004 0.00199977
317 30.5251 4.66127 0.469187 0 0 1.00004 0.00201418
319 31.3088 4.58644 1.38114 0 0 1.00004 0.00207429
242 1.26714 5.52266 0.460454 0 0 1.00004 0.00219969
323 1.17423 6.1991 1.27608 0 0 1.00004 0.00228981
324 0.63574 6.91979 1.49253 0 0 1.00004 0.00236381
322 1.36188 6.93427 0.56729 0 0 1.00004 0.00235444
321 0.346336 5.98876 0.448996 0 0 1.00004 0.00221899
248 1.89853 5.51466 1.37578 0 0 1.00004 0.00223709
328 2.0953 7.03369 1.25076 0 0 1.00004 0.00239819
325 2.24863 6.21047 0.510301 0 0 1.00004 0.00228577
327 2.64567 6.17979 1.41979 0 0 1.00004 0.00231185
246 3.03061 5.62156 0.277059 0 0 1.00003 0.00222175
252 3.47066 5.65408 1.30416 0 0 1.00003 0.00224669
332 3.62589 7.00114 1.15942 0 0 1.00003 0.0023869
329 3.7533 6.30399 0.494636 0 0 1.00003 0.0022861
250 4.51993 5.50249 0.332069 0 0 1.00003 0.00218164
331 4.4715 6.13452 1.24854 0 0 1.00003 0.00227324
330 4.36419 7.05424 0.234935 0 0 1.00003 0.00235389
336 5.12609 6.86639 1.18376 0 0 1.00003 0.00232966
333 5.16096 6.28535 0.335328 0 0 1.00003 0.00224132
256 5.25652 5.4834 1.32448 0 0 1.00003 0.00217794
254 6.06405 5.46418 0.303439 0 0 1.00003 0.00211027
335 5.99956 6.28816 0.982138 0 0 1.00003 0.00221809
337 6.68283 6.1256 0.154085 0 0 1.00002 0.00214174
1177 6.76344 6.05679 1.63691 0 0 1.00002 0.00217463
340 6.75028 6.94159 1.01846 0 0 1.00002 0.00224867
339 7.59053 6.22174 0.778433 0 0 1.00002 0.00210211
1098 7.65462 5.48045 1.53289 0 0 1.00002 0.00204437
344 8.28337 6.93706 0.74946 0 0 1.00002 0.00212709
1178 7.57984 6.9309 1.64454 0 0 1.00002 0.00222316
258 7.57709 5.42291 0.0438076 0 0 1.00002 0.00200578
264 8.43543 5.38517 0.718236 0 0 1.00002 0.00194363
1181 8.47997 6.19261 1.53985 0 0 1.00002 0.00205908
268 9.94417 5.39704 0.817117 0 0 1.00002 0.00181187
343 9.10728 6.26599 0.760024 0 0 1.00002 0.00198185
1102 9.25522 5.40351 1.63141 0 0 1.00002 0.00190985
1185 9.93727 6.26478 1.51816 0 0 1.00002 0.00193602
1182 9.3233 7.04422 1.51058 0 0 1.00001 0.00208507
345 9.95048 6.31536 0.10116 0 0 1.00002 0.00189891
262 9.20217 5.54344 0.0229289 0 0 1.00002 0.00188436
272 11.5152 5.34418 1.02032 0 0 1.00002 0.00166303
347 10.7525 6.10143 0.984006 0 0 1.00002 0.0018145
349 11.4574 6.44281 0.0807283 0 0 1.00001 0.00176741
346 10.7017 7.03124 0.153032 0 0 1.00001 0.0019074
1186 10.6604 7.01695 1.54462 0 0 1.00001 0.00195968
266 10.6358 5.64871 0.00452965 0 0 1.00002 0.00176101
270 12.1034 5.68617 0.190045 0 0 1.00002 0.00162266
276 12.7694 5.87143 0.88367 0 0 1.00002 0.00159415
351 11.902 6.28657 1.08134 0 0 1.00001 0.00172699
274 13.3868 5.59167 0.0452948 0 0 1.00002 0.00149313
1114 13.411 5.92502 1.59772 0 0 1.00002 0.00157019
355 13.4429 6.6341 0.828353 0 0 1.00001 0.00161154
280 14.1211 5.7626 0.790126 0 0 1.00002 0.00146012
1197 14.3935 6.69671 1.44143 0 0 1.00002 0.00156536
357 14.1956 6.43222 0.0424772 0 0 1.00002 0.00151129
278 15.0554 5.6674 0.0400005 0 0 1.00002 0.00136836
359 15.0954 6.48487 0.818819 0 0 1.00002 0.00146222
284 15.8606 5.75543 0.961357 0 0 1.00002 0.00134271
363 16.5262 6.46404 1.15263 0 0 1.00002 0.00138784
1118 15.1563 5.9048 1.71903 0 0 1.00002 0.00143663
282 16.6389 5.42662 0.276978 0 0 1.00002 0.00125938
361 15.7165 6.36476 0.0454001 0 0 1.00002 0.00139518
286 17.8474 5.29593 0.540039 0 0 1.00003 0.00121711
288 17.13 5.42465 1.25004 0 0 1.00002 0.001265
365 17.0968 6.27769 0.412034 0 0 1.00002 0.00132551
367 17.6972 6.23712 1.37958 0 0 1.00003 0.00133549
372 18.3214 7.03291 1.13476 0 0 1.00003 0.0013992
369 18.4093 6.20798 0.610707 0 0 1.00003 0.00129725
290 19.4735 5.71796 0.613843 0 0 1.00003 0.00125917
371 19.3775 6.51689 1.32966 0 0 1.00003 0.0013582
373 20.0615 6.6976 0.601257 0 0 1.00003 0.00136885
294 20.8244 5.71776 0.639228 0 0 1.00004 0.00130528
296 20.243 5.56036 1.37536 0 0 1.00003 0.00128871
375 20.8634 6.54833 1.2791 0 0 1.00004 0.00140898
377 21.7636 6.59429 0.653868 0 0 1.00004 0.00144353
300 21.7575 5.80687 1.35111 0 0 1.00004 0.0013884
16260 21.7882 5.66957 0.0532557 0 0 1.00004 0.00134863
298 22.7986 5.7613 0.648455 0 0 1.00004 0.00143691
379 22.7735 6.61016 1.17474 0 0 1.00004 0.00153672
381 23.5129 6.68885 0.262856 0 0 1.00005 0.00158163
304 23.6412 5.80888 1.25889 0 0 1.00005 0.00153116
383 24.5226 6.48283 1.13399 0 0 1.00005 0.00167849
302 24.3202 5.92207 0.410282 0 0 1.00005 0.0015811
306 25.9184 5.78613 0.675463 0 0 1.00005 0.0017297
308 25.3299 5.95414 1.62649 0 0 1.00005 0.0017231
385 25.3871 6.64738 0.478599 0 0 1.00005 0.00176006
387 26.0941 6.51726 1.37077 0 0 1.00005 0.00184805
312 26.9566 5.77628 1.43784 0 0 1.00005 0.00185646
310 27.7815 5.48595 0.70046 0 0 1.00005 0.0018809
389 27.0236 6.29493 0.62608 0 0 1.00005 0.00188907
391 28.0041 6.39582 1.33791 0 0 1.00005 0.00201501
390 28.0284 6.93905 0.510638 0 0 1.00005 0.0020496
392 27.0883 7.03806 1.30248 0 0 1.00005 0.00199987
316 28.6752 5.46837 1.44755 0 0 1.00005 0.00198253
395 29.7779 6.14621 1.2999 0 0 1.00005 0.00213194
394 29.9361 6.88042 0.49983 0 0 1.00005 0.00219879
393 28.792 6.15597 0.634084 0 0 1.00005 0.00203593
16355 29.7059 6.09471 0.073101 0 0 1.00005 0.00209258
16276 28.7824 5.34637 0.0456188 0 0 1.00005 0.00194743
396 28.9956 7.04573 1.20344 0 0 1.00005 0.00216709
318 31.3109 5.33676 0.587488 0 0 1.00004 0.0021219
320 30.5602 5.41917 1.43755 0 0 1.00005 0.00211319
397 30.7418 6.15399 0.633287 0 0 1.00005 0.00217445
399 31.5792 6.12737 1.37148 0 0 1.00004 0.00223849
398 31.5882 6.92402 0.603921 0 0 1.00004 0.00230178
400 30.7062 7.05064 1.16654 0 0 1.00005 0.00228597
401 0.665702 7.63015 0.649663 0 0 1.00004 0.00241421
402 1.27332 8.46961 0.602507 0 0 1.00004 0.00252578
403 1.52099 7.84839 1.4911 0 0 1.00004 0.00249538
404 0.78006 8.53948 1.45726 0 0 1.00004 0.00255392
478 0.102101 8.58818 0.38822 0 0 1.00004 0.00249637
405 2.00385 7.77085 0.383561 0 0 1.00004 0.00245527
408 2.1641 8.62967 1.46673 0 0 1.00004 0.00259415
326 2.86759 7.15713 0.472538 0 0 1.00004 0.00239184
406 2.63233 8.63348 0.402259 0 0 1.00004 0.00255831
407 2.80775 7.83002 1.29136 0 0 1.00004 0.00249472
412 3.44822 8.55065 0.958123 0 0 1.00003 0.0025614
409 3.63454 7.79316 0.335132 0 0 1.00003 0.00245381
410 4.22411 8.49899 0.0802246 0 0 1.00003 0.00252226
411 4.36914 7.68766 1.24547 0 0 1.00003 0.00245238
413 5.04834 7.7004 0.242083 0 0 1.00003 0.00240323
416 5.08749 8.32413 0.959105 0 0 1.00003 0.00249414
334 5.88144 7.1037 0.158469 0 0 1.00002 0.00229889
414 6.23147 8.41764 0.184138 0 0 1.00002 0.00243331
415 5.84375 7.64001 1.04463 0 0 1.00002 0.00238274
420 6.74352 8.28428 1.07767 0 0 1.00002 0.00241004
417 6.81437 7.62232 0.172884 0 0 1.00002 0.00230512
419 7.60112 7.84031 0.773932 0 0 1.00002 0.00228919
1258 7.60316 8.25208 1.74771 0 0 1.00002 0.00238888
1261 8.34619 7.57389 1.60788 0 0 1.00002 0.00223974
421 8.28142 7.69005 0.0277697 0 0 1.00002 0.00220539
424 8.56295 8.40633 0.905611 0 0 1.00002 0.00228789
423 9.16465 7.70257 0.688237 0 0 1.00001 0.00214193
428 9.97528 8.70546 0.727014 0 0 1.00001 0.00219142
1262 9.35892 8.78662 1.50513 0 0 1.00001 0.00230047
1265 9.90015 7.97461 1.64968 0 0 1.00001 0.00215848
348 10.0448 7.3008 0.756043 0 0 1.00001 0.00201661
352 11.4664 7.22282 0.835953 0 0 1.00001 0.00187185
427 10.7774 8.02525 0.874957 0 0 1.00001 0.00203743
1266 10.8073 8.80646 1.48948 0 0 1.00001 0.00216561
1269 11.575 7.90252 1.65305 0 0 1.00001 0.00198704
429 11.4061 8.20179 0.0489989 0 0 1.00001 0.00197616
356 12.8257 7.36093 0.590597 0 0 1.00001 0.00174643
431 12.3286 8.30181 0.62169 0 0 1.00001 0.00190858
1190 12.2208 7.23666 1.42652 0 0 1.00001 0.00182677
1270 12.2536 8.7652 1.55079 0 0 1.00001 0.00202072
1273 12.9872 8.07649 1.52532 0 0 1.00001 0.00186098
350 12.0399 7.45929 0.0010593 0 0 1.00001 0.00182505
360 14.3994 7.40088 0.616806 0 0 1.00002 0.00161069
435 13.7209 8.15738 0.491777 0 0 1.00001 0.0017534
1194 13.5719 7.39858 1.38748 0 0 1.00001 0.00171437
1277 14.3501 8.22372 1.39156 0 0 1.00001 0.00174481
439 15.1579 8.32901 0.882313 0 0 1.00002 0.00166706
362 16.4805 7.1946 0.286724 0 0 1.00002 0.00144395
364 15.6898 7.33337 0.924562 0 0 1.00002 0.00151774
443 16.3313 8.17465 1.12066 0 0 1.00002 0.00158529
1198 15.2113 7.55908 1.6646 0 0 1.00002 0.0016181
441 15.9243 8.32772 0.157599 0 0 1.00002 0.0015972
368 17.0283 7.35923 1.12034 0 0 1.00002 0.0014626
445 17.1189 8.10734 0.333791 0 0 1.00002 0.00151713
447 17.773 8.01368 1.03156 0 0 1.00002 0.00150862
366 17.863 7.15771 0.221275 0 0 1.00003 0.00139399
370 19.0708 7.29949 0.630359 0 0 1.00003 0.00141033
451 19.0039 8.1163 1.16933 0 0 1.00003 0.00151842
376 19.9563 7.6018 1.29903 0 0 1.00003 0.0014858
453 19.8889 8.08641 0.35617 0 0 1.00003 0.0015033
449 18.5199 8.16345 0.180937 0 0 1.00003 0.00149208
374 20.796 7.39746 0.652613 0 0 1.00004 0.00147147
455 20.7653 8.36913 1.00947 0 0 1.00004 0.00158603
380 21.6712 7.59344 1.11563 0 0 1.00004 0.00155764
457 21.7495 8.26603 0.254513 0 0 1.00004 0.00160954
459 22.7601 8.0945 0.983121 0 0 1.00005 0.00168673
1218 22.5753 7.41225 1.70659 0 0 1.00005 0.00163542
378 22.4829 7.40193 0.374759 0 0 1.00004 0.00157208
458 22.9387 8.80082 0.195954 0 0 1.00005 0.00175657
1298 22.5905 8.81054 1.54971 0 0 1.00005 0.00178504
384 23.6304 7.23749 1.02875 0 0 1.00005 0.00166976
461 23.6822 7.99146 0.364734 0 0 1.00005 0.00173852
463 24.5762 8.00245 0.962286 0 0 1.00005 0.00184122
1302 24.5029 8.63484 1.63828 0 0 1.00005 0.00194664
382 24.5432 7.23394 0.265146 0 0 1.00005 0.00173492
462 24.5531 8.72742 0.199771 0 0 1.00005 0.00189967
1301 23.5719 7.95932 1.74853 0 0 1.00005 0.00178583
388 25.3661 7.30334 1.21202 0 0 1.00005 0.0018539
467 26.3145 7.9234 0.96105 0 0 1.00005 0.00200762
1306 26.3332 8.53808 1.69945 0 0 1.00005 0.00212527
386 26.3566 7.18617 0.361204 0 0 1.00005 0.00191205
465 25.4857 8.0295 0.301991 0 0 1.00005 0.00191734
466 26.5733 8.50169 0.0888829 0 0 1.00005 0.0020792
468 25.566 8.7638 0.970424 0 0 1.00005 0.00202906
470 28.3185 8.43437 0.402917 0 0 1.00005 0.00224231
471 28.1463 7.75919 1.18019 0 0 1.00005 0.00217527
472 27.3174 8.57773 0.995128 0 0 1.00005 0.00218497
469 27.3095 7.70541 0.420094 0 0 1.00005 0.00206462
1310 28.1566 8.61837 1.74627 0 0 1.00005 0.00231157
474 29.9891 8.32596 0.531084 0 0 1.00005 0.0023659
475 29.8755 7.63021 1.25751 0 0 1.00005 0.00230124
476 29.1555 8.49293 1.15901 0 0 1.00005 0.00234353
473 29.0592 7.66949 0.405569 0 0 1.00005 0.00221903
479 31.6511 7.78845 1.28614 0 0 1.00005 0.00242481
480 30.8435 8.45043 1.17317 0 0 1.00005 0.00245442
477 31.0303 7.84063 0.379635 0 0 1.00005 0.00237148
482 1.59086 10.2785 0.264958 0 0 1.00004 0.00272642
483 1.47344 9.35466 1.19582 0 0 1.00004 0.00265351
484 0.719935 9.92378 0.903182 0 0 1.00004 0.00268258
481 0.812022 9.32821 0.125453 0 0 1.00004 0.00260413
1322 1.29248 10.121 1.74899 0 0 1.00004 0.00277099
485 2.19793 9.46491 0.442087 0 0 1.00004 0.00265189
488 2.29694 10.3594 0.976774 0 0 1.00004 0.00276572
486 3.04291 10.2937 0.0756158 0 0 1.00004 0.00273795
487 2.82178 9.46016 1.22254 0 0 1.00004 0.00268124
1326 3.23403 10.2535 1.68623 0 0 1.00003 0.00279783
489 3.50949 9.38451 0.0990147 0 0 1.00003 0.00263626
1329 3.66365 9.27622 1.69372 0 0 1.00003 0.00268216
492 3.82511 10.0745 0.760116 0 0 1.00003 0.00272127
491 4.35459 9.15017 0.874612 0 0 1.00003 0.00261102
493 4.97834 9.24648 0.00512542 0 0 1.00003 0.00258565
496 5.02605 10.0319 0.582614 0 0 1.00003 0.00268238
1330 4.56899 10.0097 1.62972 0 0 1.00003 0.00274497
1333 5.09191 9.11546 1.67391 0 0 1.00003 0.00262866
495 5.71749 9.01971 0.677368 0 0 1.00003 0.00254107
500 6.61863 9.86623 0.536373 0 0 1.00002 0.00258755
1334 5.74186 9.89596 1.21703 0 0 1.00002 0.00266338
1337 6.53251 9.13849 1.30037 0 0 1.00002 0.00254005
499 7.50086 8.95862 0.742664 0 0 1.00002 0.00243071
504 8.2982 10.0133 0.602026 0 0 1.00002 0.00248921
1338 7.52683 9.82097 1.24135 0 0 1.00002 0.00255474
1341 8.3664 9.25107 1.44971 0 0 1.00001 0.00243811
501 8.40631 9.13314 0.0912759 0 0 1.00002 0.00236836
503 9.23152 9.53576 0.757576 0 0 1.00001 0.00236237
508 9.92791 10.4138 0.698162 0 0 1.00001 0.00239775
1342 9.07324 10.3339 1.46981 0 0 1.00001 0.00251102
1345 10.0936 9.66901 1.47702 0 0 1.00001 0.00234044
432 11.5557 8.93 0.762359 0 0 1.00001 0.00206517
426 10.6298 8.96415 0.0385464 0 0 1.00001 0.00214522
507 10.708 9.76407 0.691408 0 0 1.00001 0.00224864
1346 10.8858 10.2676 1.70404 0 0 1.00001 0.00235556
1349 11.5366 9.70755 1.38044 0 0 1.00001 0.0021976
436 13.1294 9.02058 0.813051 0 0 1.00001 0.00192218
511 12.2861 9.88209 0.719439 0 0 1.00001 0.00210448
516 12.9957 10.546 0.993935 0 0 1.00001 0.00212003
1353 12.7363 9.6951 1.67305 0 0 1.00001 0.00210011
1274 13.8125 8.92042 1.61506 0 0 1.00001 0.00189544
440 14.568 9.23515 0.785155 0 0 1.00001 0.00181522
515 13.6763 9.75802 0.8712 0 0 1.00001 0.00195899
1354 13.6672 10.4865 1.76347 0 0 1.00001 0.00211079
517 14.3966 10.1889 0.229941 0 0 1.00001 0.00191993
444 15.984 9.17776 1.1501 0 0 1.00002 0.00172339
519 15.2426 9.90263 1.03904 0 0 1.00001 0.00184933
521 15.7893 10.1997 0.254549 0 0 1.00002 0.00181226
523 16.5998 9.97133 0.975709 0 0 1.00002 0.00176608
442 16.58 9.05259 0.268528 0 0 1.00002 0.00164266
438 15.3797 9.23449 0.117341 0 0 1.00002 0.00173403
452 18.3832 8.8804 0.941225 0 0 1.00003 0.00159152
448 17.1735 9.06446 1.13206 0 0 1.00002 0.00164979
525 17.2496 10.0238 0.205775 0 0 1.00002 0.00171677
527 17.8718 9.85454 1.07091 0 0 1.00002 0.00171176
446 17.8418 9.09654 0.122145 0 0 1.00002 0.00160049
456 19.9346 8.91197 1.0411 0 0 1.00003 0.00161618
529 18.6956 9.71237 0.301689 0 0 1.00003 0.00165816
531 19.6191 9.86069 0.84742 0 0 1.00003 0.001701
532 18.8373 10.4347 1.13717 0 0 1.00003 0.0017674
1369 18.759 9.56281 1.6963 0 0 1.00003 0.00171646
450 19.3319 8.92714 0.210522 0 0 1.00003 0.00157844
533 20.1205 9.7417 0.0695383 0 0 1.00004 0.0016822
535 21.0859 9.75411 0.743365 0 0 1.00004 0.00174178
1373 20.3818 9.61692 1.63896 0 0 1.00004 0.00175029
454 20.9186 9.01744 0.197776 0 0 1.00004 0.00164093
1374 21.2573 10.0513 1.73835 0 0 1.00004 0.00184892
460 21.7854 8.96598 0.953203 0 0 1.00004 0.00170823
539 23.0406 9.62241 0.785134 0 0 1.00005 0.00187063
540 22.3078 10.4558 0.832145 0 0 1.00005 0.00189815
1377 22.1194 9.72211 1.49649 0 0 1.00005 0.00184854
1378 23.2764 10.4415 1.39932 0 0 1.00005 0.0020161
537 22.1485 9.74076 0.211731 0 0 1.00005 0.00179478
464 23.6558 8.87828 0.941331 0 0 1.00005 0.00184977
543 24.7846 9.48892 0.742927 0 0 1.00005 0.00202249
1381 23.9456 9.53519 1.5138 0 0 1.00005 0.00198965
1382 24.6865 10.2639 1.41284 0 0 1.00005 0.00213439
544 23.873 10.4704 0.607935 0 0 1.00005 0.00202997