ITEM: TIMESTEP
17000
ITEM: NUMBER OF ATOMS
32000
ITEM: BOX BOUNDS pp pp pp
0.0000000000000000e+00 3.1748021039364001e+01
0.0000000000000000e+00 3.1748021039364001e+01
0.0000000000000000e+00 3.1748021039364001e+01
ITEM: ATOMS id x y z c_phase c_nbond c_rho vx
4 0.20885 1.09976 0.467923 0 0 1.00002 0.000888456
83 1.06538 1.66828 0.781308 0 0 1.00001 0.000913954
842 0.808686 0.792379 1.41145 0 0 1.00001 0.000906052
921 0.0994145 1.59978 1.37775 0 0 1.00002 0.000912755
3 0.821154 0.0673303 0.620416 0 0 1.00001 0.000886601
8 1.80134 0.816608 1.01579 0 0 1.00001 0.000895243
85 1.89314 1.48248 0.218411 0 0 1.00001 0.000898179
925 1.92082 1.66278 1.76073 0 0 1.00001 0.000931188
6 2.60508 0.7492 0.204738 0 0 1 0.000868532
7 2.67428 0.0565936 1.04025 0 0 1 0.000870907
87 2.73443 1.54543 0.883079 0 0 1 0.000887264
846 2.76064 0.821445 1.74672 0 0 1 0.00089185
12 3.5115 0.934722 0.963569 0 0 0.999998 0.000846456
849 3.57692 0.0912584 1.71419 0 0 0.999998 0.000852638
929 3.68819 1.71326 1.72552 0 0 0.999997 0.000875178
10 4.18273 0.862183 0.325034 0 0 0.999996 0.000802777
93 4.9862 1.60775 0.38726 0 0 0.999992 0.000768946
850 4.41448 0.94779 1.64038 0 0 0.999994 0.000814072
9 3.55264 0.108607 0.174001 0 0 0.999998 0.000827721
16 5.0321 0.569875 1.17564 0 0 0.999992 0.000756122
14 5.7044 0.648324 0.326109 0 0 0.99999 0.000694602
95 5.93947 1.32032 0.948065 0 0 0.999989 0.000694807
97 6.62073 1.4022 0.220777 0 0 0.999987 0.000628242
854 5.84273 0.462727 1.71076 0 0 0.999989 0.000706182
933 5.09501 1.7307 1.44479 0 0 0.999992 0.000781307
20 6.75709 0.395633 0.874092 0 0 0.999987 0.000606659
937 6.73679 1.01815 1.70677 0 0 0.999987 0.000636105
24 8.2872 0.41293 1.0814 0 0 0.999986 0.000457345
99 7.40228 1.23311 0.961225 0 0 0.999986 0.000557911
101 8.26756 1.40162 0.239538 0 0 0.999985 0.00046517
941 8.15293 1.28275 1.62112 0 0 0.999985 0.000497307
18 7.61261 0.654913 0.1443 0 0 0.999986 0.000518742
22 8.86865 0.512773 0.275733 0 0 0.999986 0.000386681
28 9.55367 0.340849 0.897503 0 0 0.999986 0.000317973
103 9.03424 1.31821 1.12116 0 0 0.999985 0.000393379
105 9.63847 1.38432 0.0925221 0 0 0.999986 0.000317443
32 11.1867 0.217614 0.639833 0 0 0.999989 0.000141534
107 10.3518 1.05628 0.830884 0 0 0.999987 0.000239695
866 10.5083 0.19887 1.4576 0 0 0.999988 0.00022551
949 11.2617 1.02506 1.42916 0 0 0.999989 0.000154637
946 10.565 1.69133 1.74337 0 0 0.999987 0.000250937
26 10.2326 0.370509 0.0795303 0 0 0.999987 0.000238489
36 12.831 0.214489 0.642596 0 0 0.999994 -1.29373e-05
111 12.0076 1.0812 0.512951 0 0 0.999991 6.78587e-05
870 12.0943 0.318557 1.31022 0 0 0.999992 6.32561e-05
953 12.6756 1.204 1.38257 0 0 0.999993 2.11449e-05
40 14.3143 0.325117 0.77576 0 0 1 -0.000119379
115 13.5373 1.11672 0.849299 0 0 0.999997 -5.80211e-05
117 13.9853 1.56496 0.164933 0 0 0.999999 -8.77247e-05
874 13.5563 0.362251 1.64399 0 0 0.999997 -5.38921e-05
957 14.3187 1.15507 1.4847 0 0 1 -9.97526e-05
119 14.8156 1.55741 0.666153 0 0 1 -0.00013213
44 15.6426 0.768183 0.789219 0 0 1.00001 -0.000177707
123 16.4838 1.54275 0.682477 0 0 1.00001 -0.000186299
878 15.0785 0.465243 1.64544 0 0 1 -0.000144808
882 16.479 0.710296 1.34328 0 0 1.00001 -0.00018976
961 15.5654 1.49014 1.3952 0 0 1.00001 -0.000155099
38 15.0396 0.712277 0.0673501 0 0 1 -0.000158899
48 17.1924 0.729768 0.55123 0 0 1.00002 -0.000202676
127 17.8601 1.5782 0.754864 0 0 1.00002 -0.00018155
886 17.8527 0.741881 1.42419 0 0 1.00002 -0.000185055
965 17.1533 1.74533 1.5619 0 0 1.00002 -0.000172877
51 19.4854 0.0143837 0.660958 0 0 1.00003 -0.00013816
52 18.7339 0.723678 0.683788 0 0 1.00002 -0.000169685
131 19.4881 1.5467 0.838092 0 0 1.00003 -0.000121435
889 18.9693 0.155284 1.54012 0 0 1.00003 -0.000152792
890 19.5426 0.962537 1.68353 0 0 1.00003 -0.000114431
969 18.6008 1.50489 1.49558 0 0 1.00002 -0.000152258
55 21.0599 0.347042 1.06122 0 0 1.00004 -2.63254e-05
56 20.2046 0.772064 0.97339 0 0 1.00003 -8.70754e-05
135 21.0722 1.64282 0.94744 0 0 1.00004 -7.65524e-06
54 21.154 0.760417 0.216649 0 0 1.00004 -2.17245e-05
133 20.3027 1.50513 0.194924 0 0 1.00003 -7.62738e-05
57 21.9883 0.261299 0.535757 0 0 1.00004 4.99432e-05
59 22.7833 0.426143 1.39659 0 0 1.00004 0.000139972
60 22.092 1.13914 1.3205 0 0 1.00004 7.91386e-05
137 21.9769 1.58804 0.532913 0 0 1.00004 6.57642e-05
58 22.9083 1.06419 0.443275 0 0 1.00004 0.000148246
63 24.2444 0.376572 1.43841 0 0 1.00004 0.000297818
61 23.57 0.353722 0.569663 0 0 1.00004 0.000211287
62 24.4533 1.17597 0.748491 0 0 1.00004 0.000318021
64 23.4792 1.23833 1.39137 0 0 1.00004 0.000224757
65 24.9802 0.313005 0.547173 0 0 1.00004 0.000364936
67 26.0482 0.378933 1.16337 0 0 1.00004 0.000485984
68 25.1978 1.11672 1.4677 0 0 1.00004 0.000412098
147 25.9717 1.72238 1.34666 0 0 1.00004 0.000505592
66 25.9304 0.924066 0.427506 0 0 1.00004 0.000470872
70 27.6359 1.27368 0.38542 0 0 1.00004 0.000645893
71 27.6756 0.504376 0.869375 0 0 1.00004 0.00064296
72 26.8067 1.02121 1.25358 0 0 1.00004 0.000573967
69 26.8425 0.238864 0.226508 0 0 1.00004 0.000555125
913 28.4497 0.33819 1.39697 0 0 1.00003 0.000716023
76 28.7233 1.23253 0.735182 0 0 1.00003 0.000738107
914 29.4665 0.948215 1.56345 0 0 1.00003 0.000800459
993 28.5954 1.71281 1.49316 0 0 1.00003 0.000753654
917 29.9016 0.169112 1.45533 0 0 1.00003 0.000816849
75 29.3516 0.353368 0.613491 0 0 1.00003 0.00076858
841 31.6803 0.267312 1.25677 0 0 1.00002 0.000884097
79 30.7944 0.483139 0.474107 0 0 1.00002 0.000845732
80 30.1826 1.1951 0.771615 0 0 1.00002 0.000831682
918 30.9527 0.969978 1.39125 0 0 1.00002 0.000872953
82 1.20434 2.43868 0.126323 0 0 1.00001 0.000935421
84 0.229042 2.38163 0.810385 0 0 1.00002 0.000930351
163 1.384 3.23789 0.948522 0 0 1.00001 0.000981335
922 1.2356 2.36528 1.59246 0 0 1.00001 0.000956732
1001 0.484336 3.03395 1.54962 0 0 1.00001 0.000981637
161 0.428525 3.09952 0.131206 0 0 1.00001 0.000959472
88 2.00379 2.42195 0.786549 0 0 1.00001 0.000933505
167 2.74863 3.28953 0.862696 0 0 1 0.000958523
926 2.76123 2.24016 1.54218 0 0 1 0.000924777
1009 3.35025 3.43531 1.65799 0 0 0.999998 0.00096621
86 2.81199 2.39012 0.055827 0 0 1 0.000906332
92 3.46651 2.56567 0.785097 0 0 0.999999 0.000894695
91 4.08437 1.84757 0.716056 0 0 0.999996 0.000834713
96 4.98159 2.58498 0.822466 0 0 0.999992 0.000809507
171 4.28101 3.33285 0.755284 0 0 0.999994 0.00088977
930 4.21593 2.65391 1.59045 0 0 0.999995 0.000879336
94 5.71068 2.45892 0.135871 0 0 0.99999 0.000740387
100 6.60644 2.19673 0.780826 0 0 0.999987 0.00065972
175 5.71374 3.21565 0.961618 0 0 0.999989 0.000786641
934 5.92004 2.21167 1.50665 0 0 0.999989 0.000737706
1017 6.57625 3.08812 1.56722 0 0 0.999986 0.000721051
177 6.69773 2.95006 0.135372 0 0 0.999986 0.00067679
98 7.4885 2.24256 0.141563 0 0 0.999986 0.000570899
104 8.10901 2.21893 0.939971 0 0 0.999985 0.000514717
179 7.44054 3.08939 0.941318 0 0 0.999985 0.000622548
938 7.33821 2.07684 1.58185 0 0 0.999986 0.000603881
1021 8.21384 3.0247 1.66764 0 0 0.999984 0.00055836
181 8.29421 2.99284 0.0409734 0 0 0.999984 0.000518795
102 8.9167 2.10431 0.255392 0 0 0.999985 0.000416126
108 9.77188 2.04006 1.11878 0 0 0.999985 0.000333053
183 8.94054 2.99507 0.938996 0 0 0.999984 0.00045883
942 9.04224 2.23906 1.72013 0 0 0.999985 0.000434942
185 9.56496 2.92768 0.21513 0 0 0.999985 0.00037759
106 10.2737 2.12909 0.216078 0 0 0.999986 0.000269031
112 11.1355 1.84017 0.778342 0 0 0.999988 0.000174606
187 10.6081 2.82808 0.93024 0 0 0.999986 0.000267477
1029 11.4184 2.8504 1.59054 0 0 0.999988 0.000200934
116 12.6308 1.95201 0.599831 0 0 0.999993 3.05933e-05
191 11.8953 2.65915 0.748085 0 0 0.99999 0.000124475
950 11.8919 1.93303 1.47732 0 0 0.99999 0.000113451
1033 12.8019 3.03483 1.70066 0 0 0.999992 7.79646e-05
195 13.1372 3.04196 0.851762 0 0 0.999994 2.84785e-05
954 13.3296 2.00158 1.48947 0 0 0.999995 -1.18796e-05
114 13.3631 2.30617 0.0590836 0 0 0.999996 -2.29102e-05
120 13.9648 2.45452 0.92969 0 0 0.999998 -5.48361e-05
1037 13.9733 3.39818 1.56501 0 0 0.999997 -3.10907e-06
199 14.637 3.44576 0.88594 0 0 1 -5.91197e-05
958 14.7259 2.30582 1.44911 0 0 1 -9.61543e-05
118 14.7796 2.5192 0.138329 0 0 1 -0.000109097
197 14.1007 3.23481 0.0364475 0 0 0.999999 -4.25093e-05
124 15.6321 2.44391 0.697069 0 0 1.00001 -0.000143722
203 16.2394 3.20115 0.667826 0 0 1.00001 -0.000134495
962 16.2422 2.47864 1.52631 0 0 1.00001 -0.000145094
1041 15.31 3.26243 1.50697 0 0 1 -8.68135e-05
201 15.5052 3.26301 0.0227031 0 0 1.00001 -0.000115029
128 17.0003 2.35012 0.68286 0 0 1.00002 -0.000171023
207 17.8814 2.92076 0.699881 0 0 1.00002 -0.000145108
966 17.9559 2.43146 1.57967 0 0 1.00002 -0.00014476
1045 17.0256 3.11185 1.49547 0 0 1.00002 -0.00013163
132 18.8343 2.34929 1.00905 0 0 1.00003 -0.000131193
211 19.651 3.22441 1.27009 0 0 1.00003 -5.5713e-05
209 18.8263 2.9857 0.193471 0 0 1.00003 -0.000118484
130 19.538 2.32831 0.102388 0 0 1.00003 -0.000104719
973 20.2821 1.77529 1.71667 0 0 1.00003 -5.18627e-05
134 21.1263 2.40155 0.454203 0 0 1.00004 1.044e-05
136 20.1519 2.45263 1.10648 0 0 1.00003 -5.41046e-05
215 21.2821 3.27395 1.3799 0 0 1.00004 7.03641e-05
213 20.3802 2.97789 0.331377 0 0 1.00003 -2.86179e-05
139 22.8667 2.05147 1.49768 0 0 1.00004 0.000179164
138 22.9669 2.58233 0.728648 0 0 1.00004 0.000194845
140 22.0765 2.48 1.22819 0 0 1.00004 0.000110881
217 21.9694 3.17823 0.594409 0 0 1.00004 0.000117154
16179 22.6718 3.37575 0.0727364 0 0 1.00004 0.000191169
141 23.75 1.79393 0.618709 0 0 1.00004 0.00025453
143 24.4472 1.97094 1.59584 0 0 1.00004 0.000353393
142 24.3604 2.6618 0.767906 0 0 1.00004 0.000350639
144 23.697 2.87817 1.5222 0 0 1.00004 0.000301793
223 24.4972 3.48363 1.54187 0 0 1.00004 0.000419451
16108 24.984 2.82227 0.0144548 0 0 1.00004 0.000422013
149 26.5982 1.78144 0.507717 0 0 1.00004 0.00055997
145 25.161 1.8414 0.506605 0 0 1.00004 0.000408972
146 25.8333 2.59219 0.700511 0 0 1.00004 0.000508955
148 25.1911 2.53701 1.51123 0 0 1.00004 0.000451548
227 25.7654 3.47214 1.49969 0 0 1.00004 0.000559884
152 26.5881 2.54382 1.51797 0 0 1.00004 0.000603147
229 26.2207 3.4777 0.592006 0 0 1.00004 0.000590723
151 27.5663 1.97322 1.2278 0 0 1.00004 0.000670726
153 28.3213 2.0798 0.341869 0 0 1.00003 0.000726744
150 27.1466 2.67526 0.637923 0 0 1.00004 0.000647044
231 27.2677 3.33298 1.40507 0 0 1.00004 0.00070581
156 28.3271 2.74231 1.19651 0 0 1.00003 0.000765249
233 28.0541 3.20457 0.327555 0 0 1.00004 0.000750087
997 30.0469 1.80207 1.70171 0 0 1.00003 0.000859845
155 29.5276 2.03269 0.878743 0 0 1.00003 0.000818062
154 29.2757 2.65492 0.28704 0 0 1.00003 0.000818937
235 29.3377 3.24883 1.17244 0 0 1.00003 0.000864903
159 31.0019 1.97834 0.922333 0 0 1.00002 0.000891499
160 30.2714 2.70329 0.998629 0 0 1.00003 0.000888809
239 31.1222 3.34025 0.972275 0 0 1.00002 0.000955708
998 31.0811 2.68896 1.72406 0 0 1.00002 0.000942079
237 30.2057 3.24276 0.140017 0 0 1.00003 0.000901484
157 30.4963 1.90269 0.0292597 0 0 1.00002 0.000859291
158 31.2355 2.65754 0.0761266 0 0 1.00002 0.000917062
164 0.396216 3.78211 0.919627 0 0 1.00002 0.00100499
241 0.248197 4.59705 0.47771 0 0 1.00002 0.00104889
243 1.2425 4.67257 0.988837 0 0 1.00001 0.0010714
244 0.202562 5.26461 1.27544 0 0 1.00002 0.0011148
162 1.14266 3.86329 0.0656658 0 0 1.00001 0.00100647
168 1.94651 4.05071 0.850411 0 0 1.00001 0.00102153
247 2.64141 4.86887 1.13717 0 0 1 0.00107052
166 2.74603 4.15537 0.205883 0 0 1 0.00100197
245 2.00237 4.97317 0.281522 0 0 1.00001 0.00107667
249 3.50426 4.87703 0.163788 0 0 0.999998 0.00102314
172 3.58228 4.09194 0.891387 0 0 0.999997 0.00097431
176 4.99004 4.02389 1.18777 0 0 0.999991 0.000895281
251 4.14186 4.90046 1.15575 0 0 0.999994 0.00101003
170 4.34172 4.20098 0.148708 0 0 0.999994 0.000932528
253 5.08847 4.76506 0.341547 0 0 0.99999 0.000924091
174 5.83769 3.96155 0.198197 0 0 0.999988 0.000809306
180 6.54856 3.79251 0.782739 0 0 0.999986 0.000744456
255 5.7568 4.76057 1.03773 0 0 0.999988 0.0008843
1097 6.72265 4.54419 1.66211 0 0 0.999985 0.000805354
260 6.73829 5.16608 0.893218 0 0 0.999984 0.000826346
184 8.22832 3.91873 0.710543 0 0 0.999984 0.000582599
259 7.45247 4.4915 0.555193 0 0 0.999984 0.000698532
1018 7.4438 3.89807 1.51378 0 0 0.999984 0.000685185
1101 8.23507 4.64484 1.5045 0 0 0.999982 0.00065243
188 9.89724 3.60553 0.89617 0 0 0.999985 0.000383984
263 9.09562 4.59888 0.832437 0 0 0.999982 0.000534787
265 9.86461 4.537 0.129616 0 0 0.999983 0.00043419
1022 9.0917 3.79266 1.51567 0 0 0.999983 0.000501193
1105 9.87477 4.38068 1.67591 0 0 0.999982 0.000459361
182 9.00115 3.89593 0.0645422 0 0 0.999983 0.000490812
192 11.3838 3.6688 0.789849 0 0 0.999987 0.000223652
267 10.5803 4.69652 0.91831 0 0 0.999984 0.000376207
269 11.3644 4.72359 0.232683 0 0 0.999986 0.000282137
1026 10.6938 3.59501 1.6055 0 0 0.999985 0.000314787
1109 11.344 4.40558 1.72342 0 0 0.999985 0.000299565
186 10.5728 3.87466 0.178345 0 0 0.999985 0.000314297
196 12.4736 3.60194 0.821945 0 0 0.999991 0.000113003
271 12.1565 4.57707 1.01073 0 0 0.999989 0.000203432
1113 12.7027 5.02172 1.7057 0 0 0.999989 0.000205713
275 13.1794 4.70494 0.807938 0 0 0.999993 0.00011155
273 12.6003 4.64258 0.0636084 0 0 0.999991 0.00015151
200 13.936 4.14197 0.702037 0 0 0.999997 1.72412e-05
1034 13.4352 4.2383 1.60509 0 0 0.999994 8.49118e-05
1117 14.147 5.1344 1.53254 0 0 0.999996 8.49662e-05
279 14.8794 5.02354 0.816381 0 0 1 1.00782e-05
1038 14.9047 4.42481 1.60112 0 0 1 -4.61355e-06
277 14.084 4.91962 0.0649968 0 0 0.999997 4.47274e-05
198 14.8978 4.20149 0.100195 0 0 1 -4.53353e-05
204 15.6018 4.07091 0.927184 0 0 1.00001 -7.41046e-05
281 15.8103 4.77798 0.187843 0 0 1.00001 -5.33057e-05
283 16.5267 4.57974 0.901201 0 0 1.00001 -7.195e-05
1042 16.2532 3.9601 1.69112 0 0 1.00001 -7.83406e-05
1121 15.7467 5.05534 1.64594 0 0 1.00001 -1.53998e-06
208 17.2039 3.82777 0.810191 0 0 1.00002 -0.000115129
287 18.0223 4.47636 1.09389 0 0 1.00002 -6.7987e-05
1046 17.8896 3.62962 1.65163 0 0 1.00002 -9.76638e-05
285 17.3872 4.56974 0.0167542 0 0 1.00002 -8.56e-05
206 18.0731 3.8432 0.0610065 0 0 1.00002 -0.000109424
212 18.8181 3.69346 0.947778 0 0 1.00003 -8.32679e-05
289 18.766 4.59348 0.35979 0 0 1.00003 -4.99545e-05
291 19.6389 4.65426 1.07799 0 0 1.00003 8.0914e-06
292 18.7268 5.25817 1.19367 0 0 1.00003 1.23224e-06
210 19.5477 3.74901 0.22825 0 0 1.00003 -5.27502e-05
216 20.3978 3.79956 1.22461 0 0 1.00003 1.81633e-05
295 20.8512 4.68941 1.38052 0 0 1.00004 0.000106533
297 21.5585 4.91959 0.800072 0 0 1.00004 0.000169326
214 21.0532 3.90748 0.508132 0 0 1.00004 6.3872e-05
293 20.0939 4.76096 0.347215 0 0 1.00003 3.28189e-05
219 22.8178 3.60267 1.40642 0 0 1.00004 0.000236961
220 21.9229 4.10375 1.29777 0 0 1.00004 0.000168664
299 22.4664 5.13841 1.25894 0 0 1.00004 0.000284763
218 22.6075 4.31581 0.506802 0 0 1.00004 0.000235598
221 23.5821 3.61035 0.773871 0 0 1.00004 0.000306844
222 24.3594 4.28994 0.618237 0 0 1.00004 0.000428271
224 23.4778 4.51409 1.31932 0 0 1.00004 0.00035801
305 24.89 5.21864 0.559015 0 0 1.00005 0.000548898
301 23.5637 5.02875 0.526149 0 0 1.00005 0.000382224
228 25.0477 4.46445 1.60372 0 0 1.00005 0.000542975
303 24.3923 5.25035 1.41575 0 0 1.00005 0.000514667
225 25.0965 3.64977 0.791977 0 0 1.00004 0.000479438
307 25.7443 5.10342 1.32869 0 0 1.00005 0.000655197
232 26.4166 4.26065 1.35904 0 0 1.00004 0.000672435
309 26.5658 4.94207 0.634119 0 0 1.00004 0.000715716
226 25.5737 4.37091 0.386218 0 0 1.00004 0.00056723
311 27.406 4.84104 1.39192 0 0 1.00004 0.000811585
236 28.0387 3.95317 1.09669 0 0 1.00004 0.00080139
313 28.3617 4.71339 0.699552 0 0 1.00004 0.000870829
230 27.1318 4.01658 0.568243 0 0 1.00004 0.000712135
234 29.0166 3.75634 0.479987 0 0 1.00003 0.000857389
315 29.1787 4.50326 1.31999 0 0 1.00003 0.000933358
240 30.0921 4.0519 1.02254 0 0 1.00003 0.000952785
238 31.1291 3.97289 0.366139 0 0 1.00002 0.000984689
317 30.307 4.67203 0.481656 0 0 1.00003 0.000996784
319 31.0841 4.59529 1.39952 0 0 1.00002 0.0010452
242 1.02306 5.53179 0.462118 0 0 1.00001 0.00112676
248 1.64743 5.51757 1.38086 0 0 1.00001 0.00114781
323 0.917632 6.21487 1.27753 0 0 1.00001 0.00120254
324 0.380166 6.92102 1.50344 0 0 1.00002 0.00126806
322 1.09718 6.94517 0.5715 0 0 1.00001 0.0012492
321 0.0957529 5.9949 0.447255 0 0 1.00002 0.00115181
328 1.83095 7.03609 1.24519 0 0 1.00001 0.0012732
325 2.0069 6.20914 0.516705 0 0 1.00001 0.00117684
252 3.21704 5.63896 1.30557 0 0 0.999999 0.0011178
327 2.38465 6.16924 1.41735 0 0 1 0.00119133
246 2.7897 5.62208 0.275313 0 0 1 0.00110812
332 3.36902 6.98495 1.1427 0 0 0.999998 0.00122555
329 3.50422 6.29754 0.500238 0 0 0.999997 0.00113938
250 4.28509 5.48526 0.328959 0 0 0.999993 0.00103045
256 5.0232 5.45771 1.3254 0 0 0.99999 0.00100406
331 4.23355 6.11911 1.23957 0 0 0.999993 0.00110777
333 4.9194 6.26236 0.33619 0 0 0.99999 0.00105517
336 4.87414 6.83459 1.17329 0 0 0.999989 0.00112976
330 4.10934 7.045 0.227178 0 0 0.999994 0.00117435
254 5.85485 5.44714 0.304518 0 0 0.999987 0.000915425
335 5.77275 6.27237 0.974183 0 0 0.999986 0.00100703
1177 6.53281 6.02266 1.61832 0 0 0.999983 0.000943902
340 6.51111 6.90874 1.01931 0 0 0.999983 0.00100113
337 6.45285 6.08251 0.155726 0 0 0.999984 0.00091439
264 8.24868 5.35115 0.705756 0 0 0.999981 0.00068204
339 7.38208 6.19522 0.76657 0 0 0.999981 0.000845343
1098 7.44598 5.45396 1.51275 0 0 0.999982 0.00080075
1181 8.27977 6.1531 1.51635 0 0 0.99998 0.000774572
344 8.06443 6.89718 0.741322 0 0 0.999979 0.000833835
1178 7.34815 6.90359 1.6225 0 0 0.99998 0.00094996
258 7.37972 5.39231 0.0463031 0 0 0.999983 0.000768002
268 9.77666 5.35775 0.804978 0 0 0.999982 0.000512453
343 8.91059 6.22949 0.749292 0 0 0.999979 0.000682384
1102 9.07639 5.36687 1.61762 0 0 0.99998 0.000623294
1185 9.7535 6.23118 1.49263 0 0 0.99998 0.00061325
1182 9.12356 6.99807 1.48882 0 0 0.999977 0.000757112
345 9.77434 6.27325 0.0976875 0 0 0.999981 0.000576744
262 9.02036 5.50423 0.0165909 0 0 0.999981 0.000600054
272 11.3708 5.30706 1.0003 0 0 0.999985 0.00033672
347 10.5823 6.06145 0.977429 0 0 0.999981 0.000481397
349 11.2983 6.40754 0.0799619 0 0 0.999983 0.000414195
346 10.5212 6.98463 0.156875 0 0 0.99998 0.000549819
1186 10.4743 6.97146 1.52215 0 0 0.999979 0.000601044
270 11.9695 5.65729 0.186665 0 0 0.999986 0.000282442
276 12.6379 5.8451 0.872733 0 0 0.999989 0.00024252
351 11.7539 6.24458 1.06809 0 0 0.999984 0.000369277
1114 13.2795 5.8935 1.57439 0 0 0.999991 0.000211872
355 13.3073 6.60745 0.821781 0 0 0.99999 0.000235835
274 13.2726 5.5628 0.0440826 0 0 0.999992 0.000149854
280 14.0079 5.73608 0.78067 0 0 0.999996 0.00011276
1197 14.271 6.6715 1.4217 0 0 0.999995 0.000187428
357 14.0759 6.40514 0.0401432 0 0 0.999995 0.000144976
278 14.9616 5.65241 0.0368625 0 0 1 3.55187e-05
359 14.9847 6.46374 0.811979 0 0 1 0.000101836
284 15.7645 5.74261 0.958811 0 0 1.00001 1.90073e-05
363 16.4244 6.45289 1.1437 0 0 1.00001 5.59256e-05
1118 15.0458 5.88697 1.7067 0 0 1 9.12568e-05
282 16.553 5.4182 0.276412 0 0 1.00001 -3.35742e-05
361 15.6115 6.34679 0.0417191 0 0 1 5.09528e-05
286 17.7642 5.29331 0.539684 0 0 1.00002 -3.77115e-05
288 17.0451 5.41968 1.2464 0 0 1.00001 -1.83758e-05
365 16.9981 6.27039 0.4109 0 0 1.00001 1.74539e-05
367 17.6008 6.23582 1.37955 0 0 1.00002 4.39324e-05
372 18.2147 7.03557 1.12882 0 0 1.00002 0.00010425
369 18.3133 6.21413 0.608321 0 0 1.00002 3.37501e-05
290 19.3801 5.73331 0.615453 0 0 1.00003 4.81262e-05
371 19.2767 6.53108 1.33657 0 0 1.00003 0.000117629
373 19.9531 6.72007 0.603687 0 0 1.00003 0.000150687
294 20.719 5.74276 0.645294 0 0 1.00004 0.000143297
296 20.1504 5.58046 1.38227 0 0 1.00003 0.000107515
375 20.7493 6.5753 1.28723 0 0 1.00004 0.000223517
377 21.6433 6.62362 0.657835 0 0 1.00004 0.000289437
300 21.6453 5.83918 1.3658 0 0 1.00004 0.000254235
16260 21.6743 5.69718 0.0519453 0 0 1.00004 0.00022109
298 22.6736 5.79044 0.66189 0 0 1.00005 0.000337328
379 22.636 6.64885 1.18814 0 0 1.00005 0.000413585
381 23.3656 6.73449 0.263847 0 0 1.00005 0.000478172
304 23.4995 5.84389 1.27925 0 0 1.00005 0.000450819
383 24.357 6.52058 1.14262 0 0 1.00005 0.000600373
302 24.1729 5.96456 0.419334 0 0 1.00005 0.000515746
306 25.7404 5.82468 0.688941 0 0 1.00005 0.000691513
308 25.1606 5.99769 1.65214 0 0 1.00005 0.000671297
385 25.211 6.69678 0.486393 0 0 1.00005 0.000695468
387 25.8948 6.55549 1.38763 0 0 1.00005 0.000791513
312 26.7641 5.81136 1.4573 0 0 1.00004 0.000825038
310 27.5798 5.51579 0.712494 0 0 1.00004 0.000860647
389 26.825 6.33108 0.640369 0 0 1.00004 0.000848339
391 27.7921 6.43818 1.3513 0 0 1.00004 0.000973744
390 27.8055 6.97522 0.521485 0 0 1.00004 0.000996714
316 28.4596 5.49735 1.46944 0 0 1.00004 0.000959299
314 29.4879 5.29127 0.810334 0 0 1.00003 0.00099848
395 29.546 6.16557 1.31207 0 0 1.00003 0.00108782
394 29.6929 6.88881 0.503965 0 0 1.00003 0.00113776
393 28.5682 6.18221 0.635278 0 0 1.00004 0.00099927
16355 29.4801 6.12779 0.0762158 0 0 1.00003 0.00105446
16276 28.574 5.36909 0.0543346 0 0 1.00004 0.00092997
318 31.0752 5.35638 0.592379 0 0 1.00002 0.0010815
320 30.3273 5.44331 1.45598 0 0 1.00003 0.00107786
397 30.5075 6.17031 0.643591 0 0 1.00003 0.00112362
399 31.3366 6.14513 1.3798 0 0 1.00002 0.00117525
398 31.327 6.94368 0.603558 0 0 1.00002 0.0012225
401 0.393859 7.63293 0.658251 0 0 1.00002 0.00130458
402 0.977197 8.46909 0.614249 0 0 1.00001 0.00138698
403 1.24579 7.86194 1.49758 0 0 1.00001 0.00136507
404 0.497516 8.5566 1.46756 0 0 1.00002 0.00142233
405 1.72603 7.77167 0.376496 0 0 1.00001 0.00131787
408 1.86867 8.62862 1.46903 0 0 1.00001 0.00143333
326 2.60686 7.16003 0.476048 0 0 1 0.00124855
406 2.33465 8.63998 0.402207 0 0 1 0.00138936
407 2.52625 7.82497 1.28631 0 0 1 0.00133664
412 3.15111 8.53618 0.946679 0 0 0.999998 0.00137263
409 3.36493 7.78706 0.331039 0 0 0.999998 0.00127763
410 3.93877 8.48396 0.0815773 0 0 0.999994 0.00131542
411 4.09792 7.68547 1.2527 0 0 0.999993 0.00125982
416 4.81617 8.29272 0.940045 0 0 0.999989 0.00126419
413 4.78082 7.66966 0.246958 0 0 0.999989 0.0011901
334 5.63855 7.08347 0.151925 0 0 0.999986 0.00107422
414 5.96726 8.38533 0.175909 0 0 0.999982 0.00116948
415 5.58331 7.62064 1.0422 0 0 0.999985 0.0011485
417 6.57204 7.58076 0.172535 0 0 0.999982 0.00103943
420 6.48665 8.2697 1.06273 0 0 0.999981 0.0011349
419 7.35664 7.80969 0.761636 0 0 0.999979 0.000996496
424 8.3373 8.36113 0.888578 0 0 0.999976 0.000950502
1258 7.35454 8.22374 1.73029 0 0 0.999977 0.00108727
1261 8.11028 7.53415 1.58783 0 0 0.999977 0.000929699
421 8.05345 7.64768 0.0292682 0 0 0.999978 0.000894382
348 9.85683 7.26479 0.739502 0 0 0.999978 0.000665747
423 8.94979 7.66108 0.676065 0 0 0.999977 0.000805267
428 9.75865 8.66479 0.710941 0 0 0.999975 0.000807483
1262 9.13375 8.74687 1.47812 0 0 0.999974 0.000932341
1265 9.67334 7.93588 1.63065 0 0 0.999976 0.000796942
352 11.3017 7.18296 0.824538 0 0 0.999981 0.000493532
427 10.5802 7.9876 0.861633 0 0 0.999978 0.000651864
1266 10.5992 8.75273 1.45932 0 0 0.999976 0.000757629
1269 11.3958 7.85243 1.6317 0 0 0.999979 0.000586216
429 11.2206 8.16008 0.0457362 0 0 0.99998 0.000572278
356 12.6721 7.31907 0.577052 0 0 0.999987 0.00034907
431 12.1549 8.26981 0.605091 0 0 0.999982 0.00048837
1190 12.0459 7.19679 1.40186 0 0 0.999983 0.000437508
1270 12.0702 8.72166 1.52155 0 0 0.99998 0.000587362
1273 12.8253 8.03333 1.50065 0 0 0.999985 0.000438777
350 11.8754 7.42649 0.000270058 0 0 0.999983 0.000433693
360 14.2763 7.37433 0.595777 0 0 0.999995 0.000212029
435 13.5705 8.12156 0.475806 0 0 0.999989 0.00032847
1194 13.4185 7.36819 1.36234 0 0 0.999989 0.000312478
1277 14.1979 8.20229 1.36995 0 0 0.999992 0.000320559
439 15.0127 8.30698 0.872817 0 0 0.999998 0.000247855
362 16.368 7.18459 0.280584 0 0 1.00001 8.85511e-05
364 15.5668 7.31809 0.92326 0 0 1 0.000140282
443 16.1983 8.16238 1.11403 0 0 1.00001 0.000193417
1198 15.0827 7.53653 1.64124 0 0 0.999999 0.000220678
441 15.7993 8.31771 0.154898 0 0 1 0.000191423
368 16.9131 7.35549 1.11601 0 0 1.00001 0.000115565
445 17.0011 8.09977 0.338203 0 0 1.00001 0.000148745
447 17.6459 8.01197 1.02544 0 0 1.00002 0.000163975
366 17.7549 7.15529 0.215956 0 0 1.00002 8.04939e-05
370 18.9553 7.31321 0.636031 0 0 1.00003 0.000136009
451 18.8775 8.12796 1.17357 0 0 1.00003 0.000215421
376 19.8321 7.62363 1.30902 0 0 1.00003 0.00023496
453 19.7628 8.10882 0.356442 0 0 1.00003 0.000236529
449 18.395 8.17039 0.172768 0 0 1.00002 0.000170096
374 20.6709 7.42381 0.661805 0 0 1.00004 0.000259579
455 20.6228 8.40002 1.01893 0 0 1.00004 0.000344577
380 21.5306 7.62922 1.13011 0 0 1.00004 0.000371954
457 21.6026 8.30157 0.254862 0 0 1.00004 0.000407552
459 22.5984 8.13225 0.999635 0 0 1.00005 0.000523249
1218 22.424 7.45281 1.72864 0 0 1.00005 0.000484002
378 22.3382 7.44039 0.379406 0 0 1.00005 0.000418866
384 23.469 7.27684 1.03583 0 0 1.00005 0.000552541
461 23.5148 8.03043 0.376662 0 0 1.00005 0.000603748
463 24.3903 8.05197 0.98116 0 0 1.00005 0.000727342
1302 24.3044 8.67218 1.65716 0 0 1.00005 0.000813083
382 24.3771 7.27981 0.265457 0 0 1.00005 0.000640667
462 24.3618 8.77738 0.204103 0 0 1.00005 0.000766725
388 25.1747 7.34902 1.23293 0 0 1.00005 0.000770821
467 26.0992 7.96427 0.973586 0 0 1.00005 0.000920491
1306 26.1054 8.58255 1.72652 0 0 1.00005 0.00102315
386 26.1616 7.23489 0.363411 0 0 1.00005 0.000846439
465 25.29 8.08369 0.303432 0 0 1.00005 0.000819522
466 26.3558 8.54484 0.0881081 0 0 1.00005 0.000981631
468 25.3531 8.81219 0.989498 0 0 1.00005 0.000913166
392 26.8703 7.07489 1.32348 0 0 1.00005 0.000939483
470 28.0743 8.47231 0.418601 0 0 1.00004 0.00115361
471 27.9039 7.80163 1.19805 0 0 1.00004 0.00110141
472 27.0769 8.61722 1.00944 0 0 1.00005 0.00108888
469 27.0875 7.74599 0.427279 0 0 1.00005 0.00099128
396 28.7594 7.08334 1.21785 0 0 1.00004 0.00110862
474 29.7225 8.33996 0.538602 0 0 1.00003 0.00127036
475 29.6204 7.65696 1.26763 0 0 1.00003 0.00122259
476 28.9005 8.52988 1.17298 0 0 1.00004 0.00125071
473 28.81 7.69522 0.411388 0 0 1.00004 0.00114567
400 30.4495 7.07566 1.17385 0 0 1.00003 0.00121366
479 31.383 7.81193 1.29575 0 0 1.00002 0.00132395
480 30.5669 8.47531 1.17881 0 0 1.00003 0.00134847
477 30.7663 7.86038 0.379773 0 0 1.00003 0.00127885
478 31.5654 8.61153 0.390154 0 0 1.00002 0.00137596
482 1.27626 10.2853 0.271514 0 0 1.00001 0.00154529
483 1.16708 9.37321 1.2038 0 0 1.00001 0.0014933
484 0.409455 9.92908 0.899019 0 0 1.00002 0.00152208
481 0.514704 9.33645 0.123644 0 0 1.00002 0.00145518
1322 0.972029 10.1278 1.75339 0 0 1.00001 0.00159605
485 1.89991 9.45928 0.45059 0 0 1.00001 0.00147339
488 1.98077 10.3728 0.973997 0 0 1.00001 0.00156911
486 2.73699 10.2888 0.081287 0 0 1 0.00152481
487 2.51839 9.45843 1.22711 0 0 1 0.00148947
1326 2.92088 10.2491 1.6797 0 0 1 0.00158131
1329 3.34818 9.25998 1.67371 0 0 0.999997 0.00147283
489 3.21054 9.38414 0.0864196 0 0 0.999998 0.00143097
492 3.51979 10.0567 0.744949 0 0 0.999996 0.00149257
491 4.0613 9.13439 0.866186 0 0 0.999992 0.00138701
493 4.69463 9.21415 0.00715726 0 0 0.999989 0.00134068
496 4.72998 10.0074 0.578521 0 0 0.999988 0.00142141
1330 4.25855 9.9957 1.63026 0 0 0.999991 0.00150068
1333 4.79671 9.09721 1.6668 0 0 0.999988 0.00138516
495 5.43895 8.98243 0.669892 0 0 0.999985 0.00127876
500 6.34022 9.83245 0.525974 0 0 0.999979 0.00128166
1334 5.43651 9.86628 1.18689 0 0 0.999984 0.00138477
1337 6.25349 9.09672 1.28036 0 0 0.999981 0.00125072
1417 6.34723 10.5499 1.21145 0 0 0.999978 0.0013786
499 7.24505 8.92258 0.726115 0 0 0.999977 0.00111591
501 8.15817 9.09127 0.0852581 0 0 0.999976 0.00102132
504 8.03218 9.9691 0.58979 0 0 0.999974 0.00112734
1338 7.26277 9.78086 1.21728 0 0 0.999976 0.00122098
1341 8.11285 9.21212 1.42636 0 0 0.999974 0.00109113
503 8.98854 9.49797 0.743581 0 0 0.999973 0.000982045
508 9.68352 10.3781 0.677004 0 0 0.999973 0.000979241
1342 8.81183 10.3066 1.43949 0 0 0.999971 0.00112324
1345 9.8629 9.63344 1.44395 0 0 0.999972 0.000933032
432 11.3671 8.8885 0.747518 0 0 0.999979 0.000638771
426 10.4173 8.92761 0.0413779 0 0 0.999976 0.000739501
507 10.4822 9.72431 0.672015 0 0 0.999974 0.000822126
1346 10.6539 10.2161 1.67016 0 0 0.999972 0.000915906
1349 11.3096 9.67421 1.3452 0 0 0.999976 0.000756245
436 12.9679 8.99324 0.799613 0 0 0.999985 0.000473612
511 12.0916 9.84912 0.701707 0 0 0.999978 0.000642448
516 12.7962 10.5068 0.977465 0 0 0.999981 0.000635125
1353 12.5282 9.65273 1.64036 0 0 0.99998 0.000639417
1274 13.6474 8.8751 1.58889 0 0 0.999987 0.000446282
440 14.4149 9.21504 0.769538 0 0 0.999993 0.000361576
515 13.4946 9.71252 0.850273 0 0 0.999986 0.000487978
1354 13.4672 10.442 1.73394 0 0 0.999983 0.000625171
517 14.2251 10.1695 0.220617 0 0 0.999991 0.000438968
444 15.8404 9.1647 1.14097 0 0 1 0.000291899
519 15.079 9.87394 1.021 0 0 0.999997 0.000383616
521 15.6329 10.1875 0.253686 0 0 1 0.000347382
523 16.4482 9.95969 0.964753 0 0 1.00001 0.000326434
442 16.4474 9.03503 0.262677 0 0 1.00001 0.000228432
438 15.2392 9.2168 0.101256 0 0 0.999999 0.000289613
452 18.2478 8.88258 0.939226 0 0 1.00002 0.000241635
448 17.0353 9.06335 1.12756 0 0 1.00001 0.0002535
525 17.0984 10.0211 0.206924 0 0 1.00001 0.00029415
527 17.723 9.85899 1.06891 0 0 1.00002 0.000316356
446 17.7082 9.09808 0.118127 0 0 1.00002 0.000224635
456 19.7893 8.93254 1.05261 0 0 1.00004 0.000327824
529 18.5515 9.71772 0.299145 0 0 1.00003 0.000296146
531 19.4713 9.87529 0.845064 0 0 1.00003 0.000371253
532 18.6813 10.4398 1.13787 0 0 1.00003 0.000392954
1369 18.6123 9.5694 1.69974 0 0 1.00003 0.000363258
450 19.2004 8.94031 0.209796 0 0 1.00003 0.000263525
533 19.963 9.76118 0.0715648 0 0 1.00004 0.000376238
535 20.9212 9.77967 0.744265 0 0 1.00004 0.000474343
1373 20.2277 9.63668 1.65445 0 0 1.00004 0.000462298
454 20.7736 9.04933 0.203686 0 0 1.00004 0.000387861
460 21.6297 9.0014 0.966513 0 0 1.00005 0.000488996
1298 22.4138 8.8506 1.5671 0 0 1.00005 0.000596938
539 22.8581 9.65521 0.793906 0 0 1.00005 0.000674838
540 22.1177 10.4928 0.858069 0 0 1.00005 0.000660589
1377 21.933 9.75503 1.52195 0 0 1.00005 0.000622514
1378 23.0738 10.4794 1.42815 0 0 1.00006 0.000811856
458 22.7753 8.83482 0.198205 0 0 1.00005 0.000579263
537 21.9796 9.77577 0.209034 0 0 1.00005 0.00056716