ITEM: TIMESTEP
36000
ITEM: NUMBER OF ATOMS
32000
ITEM: BOX BOUNDS pp pp pp
0.0000000000000000e+00 3.1748021039364001e+01
0.0000000000000000e+00 3.1748021039364001e+01
0.0000000000000000e+00 3.1748021039364001e+01
ITEM: ATOMS id x y z c_phase c_nbond c_rho vx
4 0.502332 1.09347 0.476418 0 0 1.00004 0.00221461
83 1.36265 1.66511 0.788716 0 0 1.00004 0.002265
842 1.11426 0.78862 1.40562 0 0 1.00004 0.00224925
921 0.403488 1.5937 1.38631 0 0 1.00005 0.00224445
3 1.11843 0.0743658 0.62903 0 0 1.00004 0.0022247
841 0.228763 0.2694 1.25752 0 0 1.00004 0.00220539
8 2.10433 0.832386 1.01421 0 0 1.00004 0.00226201
85 2.19821 1.49728 0.207974 0 0 1.00004 0.00226907
925 2.24256 1.65993 1.7522 0 0 1.00004 0.00230971
6 2.89861 0.742727 0.20365 0 0 1.00004 0.00225573
7 2.96331 0.0621166 1.04148 0 0 1.00004 0.00226079
87 3.03088 1.54974 0.877106 0 0 1.00004 0.00228491
846 3.0716 0.831413 1.74114 0 0 1.00004 0.0022906
12 3.80041 0.926848 0.973185 0 0 1.00004 0.00226539
849 3.86389 0.0841545 1.72569 0 0 1.00004 0.00227623
929 3.98777 1.71619 1.72544 0 0 1.00004 0.00230942
10 4.478 0.864091 0.320325 0 0 1.00004 0.00224101
850 4.68973 0.950973 1.65526 0 0 1.00004 0.00226853
9 3.83527 0.101152 0.181286 0 0 1.00004 0.00224334
93 5.27253 1.61262 0.392093 0 0 1.00003 0.00224015
16 5.32665 0.571315 1.16332 0 0 1.00003 0.00222528
14 5.97963 0.64945 0.320119 0 0 1.00003 0.0021856
95 6.21127 1.33315 0.96803 0 0 1.00003 0.00219987
854 6.125 0.46403 1.72659 0 0 1.00003 0.00220807
933 5.37033 1.72723 1.45555 0 0 1.00003 0.00226324
97 6.88143 1.41898 0.223278 0 0 1.00003 0.00215532
20 7.01388 0.407771 0.889401 0 0 1.00003 0.00213561
937 7.00137 1.03095 1.72317 0 0 1.00003 0.00217185
99 7.65129 1.2492 0.965249 0 0 1.00003 0.00211326
18 7.85312 0.66852 0.158149 0 0 1.00003 0.00207542
941 8.39614 1.29407 1.64464 0 0 1.00003 0.00208316
101 8.49924 1.41398 0.241954 0 0 1.00003 0.00204776
24 8.51325 0.420756 1.08441 0 0 1.00003 0.00203877
22 9.08436 0.517603 0.267214 0 0 1.00003 0.0019824
28 9.76392 0.339357 0.91659 0 0 1.00003 0.00193361
103 9.24902 1.33257 1.11895 0 0 1.00003 0.00200177
105 9.84087 1.38772 0.101526 0 0 1.00003 0.00193922
32 11.3562 0.22038 0.655193 0 0 1.00003 0.00179109
107 10.5467 1.07157 0.843399 0 0 1.00003 0.00187797
866 10.6961 0.206971 1.47699 0 0 1.00003 0.00186814
949 11.4468 1.03115 1.44476 0 0 1.00003 0.00181346
946 10.7595 1.71404 1.756 0 0 1.00003 0.00190704
26 10.4267 0.372629 0.0810899 0 0 1.00003 0.00186812
36 12.9811 0.220714 0.652362 0 0 1.00003 0.00165061
111 12.1625 1.09214 0.526194 0 0 1.00003 0.00173171
870 12.2539 0.3214 1.32893 0 0 1.00003 0.00172846
953 12.8307 1.20981 1.39976 0 0 1.00003 0.00169568
40 14.4421 0.336654 0.794234 0 0 1.00003 0.00153912
115 13.6723 1.12296 0.857791 0 0 1.00003 0.00161161
117 14.123 1.57345 0.159521 0 0 1.00003 0.00158034
874 13.7004 0.36684 1.65858 0 0 1.00003 0.00161785
957 14.4505 1.16736 1.50031 0 0 1.00003 0.00156964
119 14.9429 1.5658 0.672772 0 0 1.00003 0.00152791
38 15.1535 0.714488 0.0674629 0 0 1.00003 0.00148826
44 15.7588 0.766232 0.793075 0 0 1.00003 0.00145998
123 16.5902 1.54493 0.686832 0 0 1.00003 0.00143706
878 15.2002 0.468015 1.65428 0 0 1.00003 0.00151147
882 16.5863 0.709933 1.3498 0 0 1.00003 0.00143138
961 15.6802 1.50081 1.4049 0 0 1.00003 0.00149689
48 17.3012 0.728533 0.558916 0 0 1.00003 0.00139027
127 17.9672 1.58035 0.754972 0 0 1.00003 0.00139659
886 17.9586 0.743796 1.42454 0 0 1.00003 0.00139166
965 17.2638 1.74577 1.56612 0 0 1.00003 0.00143897
51 19.5924 0.0108002 0.661665 0 0 1.00004 0.00136558
52 18.8382 0.725026 0.685859 0 0 1.00003 0.00136701
131 19.5998 1.54101 0.836891 0 0 1.00004 0.0013918
889 19.0723 0.151078 1.53931 0 0 1.00004 0.00137973
890 19.6562 0.959907 1.68217 0 0 1.00004 0.00139895
969 18.7159 1.49902 1.49553 0 0 1.00003 0.00140203
55 21.196 0.344159 1.05771 0 0 1.00004 0.00141583
56 20.3187 0.768821 0.966812 0 0 1.00004 0.00139062
135 21.1964 1.62422 0.948475 0 0 1.00004 0.00143981
54 21.2744 0.757098 0.212982 0 0 1.00004 0.00141382
133 20.419 1.49688 0.199899 0 0 1.00004 0.0014001
973 20.4049 1.76168 1.71592 0 0 1.00004 0.00143743
57 22.1262 0.26637 0.530922 0 0 1.00004 0.0014527
59 22.9395 0.422545 1.38322 0 0 1.00004 0.00151934
60 22.2353 1.13493 1.31289 0 0 1.00004 0.00148616
137 22.1127 1.5798 0.521109 0 0 1.00004 0.00147601
58 23.0564 1.04404 0.45092 0 0 1.00004 0.00152009
63 24.4401 0.37278 1.40851 0 0 1.00005 0.00163317
61 23.7346 0.346833 0.567767 0 0 1.00005 0.0015602
62 24.6302 1.15838 0.739289 0 0 1.00005 0.00164633
64 23.6516 1.22036 1.37684 0 0 1.00005 0.00158471
65 25.1749 0.311087 0.53851 0 0 1.00005 0.00167802
67 26.2553 0.370163 1.15409 0 0 1.00005 0.00178266
68 25.3934 1.10808 1.44488 0 0 1.00005 0.00172757
147 26.1861 1.70893 1.33174 0 0 1.00005 0.00181172
66 26.1379 0.924285 0.417955 0 0 1.00005 0.00176846
70 27.8787 1.26534 0.379329 0 0 1.00005 0.00193043
71 27.9164 0.493781 0.863737 0 0 1.00005 0.00192523
72 27.0299 1.01293 1.23794 0 0 1.00005 0.00186461
69 27.0629 0.238805 0.232486 0 0 1.00005 0.00183941
913 28.7155 0.343161 1.40152 0 0 1.00005 0.002002
76 28.9818 1.21303 0.721444 0 0 1.00005 0.00202296
914 29.7235 0.957455 1.5554 0 0 1.00005 0.00209323
993 28.8492 1.70755 1.49092 0 0 1.00005 0.00204592
75 29.6186 0.349986 0.613133 0 0 1.00005 0.00205425
917 30.1909 0.161265 1.44324 0 0 1.00005 0.00211215
79 31.0911 0.465684 0.482922 0 0 1.00005 0.00214877
80 30.4544 1.18519 0.76672 0 0 1.00005 0.00212905
918 31.2354 0.967248 1.38509 0 0 1.00005 0.00218356
82 1.50643 2.43643 0.11807 0 0 1.00004 0.00229594
84 0.532161 2.37635 0.805898 0 0 1.00005 0.0022689
163 1.69043 3.22639 0.943704 0 0 1.00004 0.0023578
922 1.54345 2.36646 1.5916 0 0 1.00004 0.00232324
1001 0.790663 3.03644 1.54973 0 0 1.00004 0.00233804
161 0.730729 3.10461 0.129473 0 0 1.00004 0.00231029
88 2.31307 2.41735 0.790758 0 0 1.00004 0.00231683
167 3.05679 3.2949 0.861568 0 0 1.00004 0.00237596
926 3.07611 2.25619 1.55452 0 0 1.00004 0.00233408
86 3.11088 2.39872 0.0543775 0 0 1.00004 0.00231277
1005 2.51741 3.10965 1.76164 0 0 1.00004 0.0023899
1009 3.67419 3.43156 1.66568 0 0 1.00004 0.00240827
92 3.77036 2.57752 0.794959 0 0 1.00004 0.0023258
91 4.37868 1.84686 0.722725 0 0 1.00004 0.00227845
171 4.58263 3.3474 0.76514 0 0 1.00004 0.00235813
930 4.52849 2.66416 1.59705 0 0 1.00004 0.00234014
96 5.26743 2.59025 0.832552 0 0 1.00003 0.0022925
94 5.99169 2.47593 0.143271 0 0 1.00003 0.00224709
175 6.00815 3.23607 0.972856 0 0 1.00003 0.00230524
934 6.19959 2.23589 1.51466 0 0 1.00003 0.00225306
173 5.3525 3.35924 0.00964627 0 0 1.00003 0.00232873
1017 6.86674 3.10897 1.57445 0 0 1.00003 0.00227117
100 6.87663 2.21648 0.793929 0 0 1.00003 0.00219584
177 6.96256 2.98208 0.13437 0 0 1.00003 0.00222554
98 7.7406 2.26192 0.141761 0 0 1.00003 0.00213652
104 8.36241 2.23578 0.954718 0 0 1.00003 0.00210259
179 7.70757 3.10752 0.940298 0 0 1.00003 0.00219968
938 7.60082 2.09666 1.59653 0 0 1.00003 0.00216875
1021 8.47282 3.04664 1.68388 0 0 1.00003 0.00216586
181 8.54476 3.01508 0.0448359 0 0 1.00003 0.00212117
102 9.15036 2.13154 0.257628 0 0 1.00003 0.00202546
108 9.98908 2.05713 1.12206 0 0 1.00003 0.001968
183 9.17831 3.01909 0.953399 0 0 1.00003 0.00208505
942 9.27481 2.25964 1.74227 0 0 1.00003 0.00205864
185 9.79431 2.95615 0.213793 0 0 1.00003 0.00201759
106 10.4763 2.14681 0.212129 0 0 1.00003 0.00191461
112 11.3219 1.86318 0.789031 0 0 1.00003 0.00183555
187 10.812 2.85116 0.939222 0 0 1.00002 0.00193359
1029 11.6084 2.87846 1.61513 0 0 1.00002 0.00188856
116 12.7892 1.96756 0.61154 0 0 1.00003 0.00170796
191 12.0746 2.68789 0.755173 0 0 1.00003 0.00180846
950 12.0709 1.95082 1.49498 0 0 1.00003 0.00179057
1033 12.9751 3.05946 1.72175 0 0 1.00003 0.00178315
195 13.3108 3.05755 0.853886 0 0 1.00003 0.00172509
954 13.4843 2.0186 1.50291 0 0 1.00003 0.0016733
114 13.5122 2.32638 0.0575962 0 0 1.00003 0.00165945
120 14.1088 2.47146 0.933485 0 0 1.00003 0.00163001
1037 14.1316 3.42295 1.57827 0 0 1.00002 0.00170624
199 14.786 3.46263 0.887464 0 0 1.00003 0.00163914
958 14.869 2.32286 1.45287 0 0 1.00003 0.00158162
118 14.9112 2.5283 0.14053 0 0 1.00003 0.00156532
197 14.2456 3.25058 0.0427582 0 0 1.00003 0.00165435
124 15.7532 2.44966 0.705463 0 0 1.00003 0.00151509
203 16.3704 3.20983 0.67888 0 0 1.00003 0.00152416
962 16.3656 2.48378 1.53217 0 0 1.00003 0.00150529
1041 15.4571 3.27617 1.51927 0 0 1.00003 0.00160049
201 15.6369 3.27615 0.0277277 0 0 1.00003 0.00156189
128 17.1165 2.35692 0.68573 0 0 1.00003 0.00144787
207 17.9995 2.92317 0.704629 0 0 1.00003 0.0014533
966 18.0711 2.42866 1.58498 0 0 1.00003 0.00144861
1045 17.1495 3.11575 1.50309 0 0 1.00003 0.00150675
132 18.9489 2.34713 1.00725 0 0 1.00004 0.00142115
211 19.7733 3.20971 1.26506 0 0 1.00004 0.00147932
209 18.9435 2.98206 0.190275 0 0 1.00004 0.0014422
130 19.6575 2.31561 0.105458 0 0 1.00004 0.00141389
134 21.2631 2.39053 0.44946 0 0 1.00004 0.00146421
136 20.279 2.43775 1.09921 0 0 1.00004 0.00144425
215 21.4278 3.25869 1.3663 0 0 1.00004 0.00153614
213 20.5064 2.96918 0.327317 0 0 1.00004 0.00146507
139 23.0291 2.02596 1.49115 0 0 1.00005 0.00156766
138 23.124 2.56439 0.71983 0 0 1.00005 0.00158112
140 22.218 2.46075 1.22052 0 0 1.00004 0.00153022
217 22.1149 3.15965 0.592176 0 0 1.00004 0.00154897
16179 22.8435 3.34788 0.0609405 0 0 1.00005 0.00159929
141 23.9136 1.78016 0.612163 0 0 1.00005 0.00160573
143 24.6298 1.95269 1.57135 0 0 1.00005 0.00169284
142 24.5475 2.63766 0.759265 0 0 1.00005 0.00169623
144 23.8729 2.84634 1.50689 0 0 1.00005 0.00167213
223 24.6986 3.45504 1.5253 0 0 1.00005 0.00177755
16108 25.1835 2.78746 0.0121845 0 0 1.00005 0.00175287
145 25.3575 1.82301 0.509549 0 0 1.00005 0.00172628
146 26.0508 2.5658 0.689304 0 0 1.00005 0.00182261
148 25.4002 2.51992 1.4923 0 0 1.00005 0.00178107
227 25.9906 3.44006 1.48745 0 0 1.00005 0.00189103
229 26.4608 3.4494 0.581526 0 0 1.00005 0.00191185
149 26.824 1.7638 0.50476 0 0 1.00005 0.00185503
152 26.8164 2.52688 1.50092 0 0 1.00005 0.00191062
151 27.8081 1.95512 1.21058 0 0 1.00005 0.00196329
150 27.389 2.65049 0.623444 0 0 1.00005 0.00194704
231 27.5299 3.30299 1.39076 0 0 1.00005 0.00201824
233 28.315 3.18523 0.332925 0 0 1.00005 0.00205407
153 28.5821 2.06411 0.339549 0 0 1.00005 0.00201699
156 28.5896 2.71697 1.18072 0 0 1.00005 0.00206534
155 29.793 2.0053 0.878437 0 0 1.00005 0.00211413
154 29.5469 2.65567 0.281243 0 0 1.00005 0.00212037
235 29.6269 3.22062 1.17451 0 0 1.00005 0.00217686
997 30.3404 1.78886 1.69112 0 0 1.00005 0.00216606
159 31.2948 1.96044 0.918728 0 0 1.00005 0.0022079
160 30.5588 2.68646 0.994135 0 0 1.00005 0.00220186
239 31.4288 3.31227 0.971751 0 0 1.00005 0.00228964
998 31.3815 2.67277 1.72128 0 0 1.00005 0.00227196
237 30.5106 3.212 0.157435 0 0 1.00005 0.00221889
157 30.7704 1.89043 0.0399442 0 0 1.00005 0.00216414
158 31.5294 2.63959 0.0764884 0 0 1.00005 0.00224227
164 0.7112 3.77169 0.919771 0 0 1.00005 0.00236599
241 0.57324 4.59544 0.464453 0 0 1.00005 0.002421
243 1.56328 4.6621 0.990118 0 0 1.00004 0.00246831
244 0.54813 5.25165 1.27066 0 0 1.00005 0.00250073
162 1.46273 3.85429 0.0788124 0 0 1.00004 0.00238475
1081 0.909894 4.39261 1.76211 0 0 1.00005 0.002453
168 2.2826 4.04635 0.856874 0 0 1.00004 0.0024263
247 2.97545 4.87896 1.13117 0 0 1.00004 0.00251217
166 3.07055 4.16136 0.199787 0 0 1.00004 0.00243183
245 2.33533 4.96459 0.287896 0 0 1.00004 0.00249798
249 3.83767 4.88452 0.168259 0 0 1.00004 0.00248972
172 3.89357 4.10615 0.899557 0 0 1.00004 0.00243142
251 4.48087 4.91543 1.16614 0 0 1.00004 0.00250123
170 4.64835 4.20892 0.146552 0 0 1.00004 0.00241537
176 5.30021 4.05101 1.17995 0 0 1.00003 0.00240154
253 5.40494 4.78916 0.336244 0 0 1.00003 0.00244484
174 6.12121 3.98465 0.190828 0 0 1.00003 0.00234384
255 6.08479 4.77584 1.05465 0 0 1.00003 0.00242998
180 6.8507 3.82627 0.800361 0 0 1.00003 0.00230145
1097 7.02545 4.58533 1.68531 0 0 1.00003 0.00238742
260 7.03474 5.21058 0.895035 0 0 1.00003 0.00241801
259 7.73429 4.52616 0.570712 0 0 1.00003 0.00230167
1018 7.72891 3.92484 1.53531 0 0 1.00003 0.00227923
184 8.49548 3.94083 0.726425 0 0 1.00003 0.00220077
1101 8.51529 4.68074 1.52179 0 0 1.00003 0.00228914
263 9.34981 4.63784 0.843991 0 0 1.00003 0.00219703
1022 9.33252 3.82973 1.53852 0 0 1.00003 0.00215156
182 9.2496 3.92693 0.0639845 0 0 1.00003 0.00213287
265 10.0988 4.58738 0.133752 0 0 1.00003 0.00211734
188 10.1219 3.64287 0.909597 0 0 1.00003 0.00204865
1105 10.1245 4.42516 1.702 0 0 1.00002 0.00214374
192 11.5817 3.69962 0.812815 0 0 1.00002 0.00192078
267 10.8078 4.72513 0.932209 0 0 1.00002 0.00208149
269 11.574 4.76433 0.230268 0 0 1.00002 0.00200275
1026 10.9083 3.6348 1.63002 0 0 1.00002 0.00200312
1109 11.5575 4.45863 1.74277 0 0 1.00002 0.00202067
186 10.7936 3.90349 0.177882 0 0 1.00003 0.00199766
196 12.6434 3.64429 0.832119 0 0 1.00002 0.00182346
271 12.3502 4.61419 1.02402 0 0 1.00002 0.00193516
1113 12.9195 5.04917 1.72646 0 0 1.00002 0.00195509
275 13.3633 4.75164 0.81744 0 0 1.00002 0.00185245
273 12.7803 4.67651 0.0618553 0 0 1.00002 0.0018863
200 14.1022 4.16422 0.710966 0 0 1.00002 0.00173861
1034 13.6148 4.26932 1.62111 0 0 1.00002 0.00181763
1117 14.3223 5.16149 1.55379 0 0 1.00002 0.00183883
279 15.0457 5.05012 0.825688 0 0 1.00003 0.00174808
277 14.2531 4.94096 0.0742694 0 0 1.00002 0.00178593
198 15.0455 4.21763 0.105823 0 0 1.00003 0.00166636
1038 15.0679 4.44174 1.61392 0 0 1.00003 0.00171983
204 15.7422 4.08577 0.930133 0 0 1.00003 0.0016235
281 15.9523 4.79147 0.18971 0 0 1.00003 0.00165715
283 16.6686 4.59243 0.907081 0 0 1.00003 0.0016152
1042 16.3962 3.97315 1.69837 0 0 1.00003 0.00160587
1121 15.9094 5.06843 1.6597 0 0 1.00003 0.00172474
208 17.3334 3.83085 0.812577 0 0 1.00003 0.00152906
287 18.1551 4.47467 1.09407 0 0 1.00003 0.00156386
1046 18.0184 3.63147 1.65425 0 0 1.00003 0.00152227
285 17.5156 4.57341 0.0206741 0 0 1.00003 0.00157049
206 18.1997 3.8398 0.0660555 0 0 1.00003 0.00150047
212 18.94 3.68882 0.95067 0 0 1.00004 0.0014955
289 18.9023 4.58693 0.359016 0 0 1.00003 0.00155129
291 19.7748 4.63474 1.08525 0 0 1.00004 0.0015747
292 18.8708 5.2501 1.19186 0 0 1.00003 0.00162499
210 19.676 3.7368 0.23274 0 0 1.00004 0.00149264
216 20.5348 3.78141 1.21983 0 0 1.00004 0.00153133
295 21.0045 4.66551 1.36884 0 0 1.00004 0.0016197
297 21.7331 4.89131 0.787771 0 0 1.00004 0.00165469
214 21.2044 3.88898 0.50597 0 0 1.00004 0.00154777
293 20.2475 4.74205 0.340874 0 0 1.00004 0.00157823
219 22.9925 3.56825 1.38905 0 0 1.00005 0.00164754
220 22.0837 4.07525 1.28729 0 0 1.00004 0.00162278
299 22.6553 5.09398 1.25018 0 0 1.00005 0.00173895
218 22.7878 4.28262 0.511279 0 0 1.00005 0.0016644
221 23.7661 3.57535 0.761954 0 0 1.00005 0.00168884
222 24.5637 4.25819 0.614044 0 0 1.00005 0.00180036
224 23.671 4.47229 1.31011 0 0 1.00005 0.00176266
301 23.7596 4.99247 0.517857 0 0 1.00005 0.0017928
303 24.613 5.20723 1.39778 0 0 1.00005 0.00190767
305 25.1256 5.16627 0.550667 0 0 1.00005 0.00192601
228 25.2779 4.41624 1.5765 0 0 1.00005 0.00190442
225 25.3096 3.60254 0.773635 0 0 1.00005 0.00182122
307 25.9983 5.05802 1.31723 0 0 1.00005 0.0020157
232 26.67 4.21979 1.34545 0 0 1.00005 0.0020066
226 25.8093 4.33417 0.390243 0 0 1.00005 0.0019134
309 26.8283 4.90257 0.626519 0 0 1.00005 0.00205947
311 27.6847 4.80128 1.37191 0 0 1.00005 0.0021485
236 28.3109 3.91793 1.08838 0 0 1.00005 0.00211878
230 27.3865 3.9781 0.570442 0 0 1.00005 0.00203209
313 28.6494 4.68076 0.688937 0 0 1.00005 0.00220116
234 29.3007 3.73557 0.466035 0 0 1.00005 0.00217274
315 29.4757 4.46939 1.29945 0 0 1.00005 0.00226458
314 29.8011 5.26113 0.798166 0 0 1.00005 0.00234643
240 30.3922 4.01417 1.01841 0 0 1.00005 0.0022825
238 31.4391 3.96624 0.351963 0 0 1.00005 0.00232854
317 30.6229 4.65678 0.465448 0 0 1.00005 0.0023411
319 31.4091 4.58282 1.37466 0 0 1.00005 0.00240235
242 1.37492 5.51823 0.459287 0 0 1.00004 0.00253369
323 1.28555 6.19284 1.27551 0 0 1.00005 0.00262251
324 0.746784 6.91835 1.48784 0 0 1.00005 0.00269428
322 1.47634 6.92896 0.565848 0 0 1.00004 0.00268793
321 0.456235 5.98611 0.449922 0 0 1.00005 0.00254969
248 2.00996 5.51191 1.37283 0 0 1.00004 0.00257382
328 2.20973 7.03099 1.25214 0 0 1.00004 0.00273502
325 2.35554 6.20899 0.507705 0 0 1.00004 0.00262453
327 2.76004 6.18175 1.4191 0 0 1.00004 0.00265275
246 3.13779 5.61953 0.277684 0 0 1.00004 0.00256541
252 3.58341 5.65632 1.30236 0 0 1.00004 0.00259304
332 3.73856 7.00407 1.16461 0 0 1.00004 0.00273349
329 3.86366 6.30423 0.492004 0 0 1.00004 0.00263418
250 4.62681 5.50619 0.333132 0 0 1.00004 0.00253643
331 4.57922 6.13789 1.2506 0 0 1.00004 0.00262661
330 4.47809 7.05484 0.237799 0 0 1.00004 0.00270573
336 5.23908 6.87427 1.18631 0 0 1.00003 0.00268779
333 5.271 6.29054 0.334432 0 0 1.00003 0.00260056
256 5.36402 5.4901 1.32244 0 0 1.00003 0.00253814
254 6.16408 5.4678 0.302059 0 0 1.00003 0.00247787
335 6.10535 6.28951 0.984326 0 0 1.00003 0.00258344
337 6.7899 6.13771 0.153137 0 0 1.00003 0.00251456
1177 6.87119 6.06576 1.64205 0 0 1.00003 0.00254676
340 6.86097 6.94926 1.0163 0 0 1.00003 0.00261991
339 7.69183 6.22724 0.782123 0 0 1.00003 0.0024821
1098 7.75622 5.48558 1.53852 0 0 1.00003 0.00242496
1178 7.68902 6.93597 1.65028 0 0 1.00003 0.00260057
258 7.67461 5.43059 0.042585 0 0 1.00003 0.0023871
344 8.3891 6.94739 0.751044 0 0 1.00003 0.00251256
264 8.53052 5.39418 0.722154 0 0 1.00003 0.00233248
1181 8.57938 6.20336 1.54666 0 0 1.00003 0.00244684
268 10.0351 5.40853 0.820791 0 0 1.00002 0.00221354
343 9.20724 6.27539 0.763165 0 0 1.00002 0.00237519
1102 9.34884 5.41314 1.63419 0 0 1.00002 0.00230486
1185 10.0335 6.27262 1.52616 0 0 1.00002 0.00233556
1182 9.4232 7.05687 1.51676 0 0 1.00002 0.00247912
345 10.0443 6.32782 0.101926 0 0 1.00002 0.00230009
262 9.29731 5.55388 0.0245147 0 0 1.00002 0.00227983
272 11.6001 5.35516 1.02727 0 0 1.00002 0.00207549
347 10.8454 6.11344 0.984037 0 0 1.00002 0.00222097
349 11.5472 6.45242 0.0803741 0 0 1.00002 0.00217864
346 10.7976 7.04596 0.149728 0 0 1.00002 0.00231363
1186 10.7583 7.02991 1.55098 0 0 1.00002 0.00236408
266 10.7251 5.65544 0.00951477 0 0 1.00002 0.00216733
270 12.1847 5.69315 0.191005 0 0 1.00002 0.00203822
276 12.851 5.87772 0.886848 0 0 1.00002 0.00201209
351 11.9881 6.30051 1.0845 0 0 1.00002 0.00214131
274 13.4621 5.6008 0.0451602 0 0 1.00002 0.001914
1114 13.4934 5.93501 1.60593 0 0 1.00002 0.00199009
355 13.5264 6.64123 0.82917 0 0 1.00002 0.00203123
280 14.1975 5.77131 0.793166 0 0 1.00002 0.00188184
1197 14.4723 6.70412 1.44876 0 0 1.00002 0.00198675
357 14.2743 6.44139 0.0430492 0 0 1.00002 0.00193313
278 15.1233 5.6716 0.0411923 0 0 1.00002 0.00179004
359 15.1704 6.49251 0.82061 0 0 1.00002 0.00188374
284 15.9307 5.75997 0.960825 0 0 1.00003 0.00176211
363 16.5977 6.46942 1.15664 0 0 1.00003 0.0018048
1118 15.2317 5.91005 1.72269 0 0 1.00002 0.00185711
282 16.7053 5.43115 0.276425 0 0 1.00003 0.00167585
361 15.7902 6.37207 0.0470808 0 0 1.00003 0.00181558
286 17.9125 5.30038 0.539828 0 0 1.00003 0.00162616
288 17.1947 5.42818 1.25165 0 0 1.00003 0.00167852
365 17.1689 6.28264 0.412058 0 0 1.00003 0.00173966
367 17.766 6.24 1.37953 0 0 1.00003 0.00174514
372 18.3939 7.0353 1.13925 0 0 1.00003 0.00180436
369 18.4784 6.20847 0.612454 0 0 1.00003 0.00170159
290 19.5404 5.71486 0.613908 0 0 1.00004 0.00165386
371 19.4454 6.5152 1.32821 0 0 1.00004 0.00175325
373 20.1325 6.69235 0.601214 0 0 1.00004 0.00175738
294 20.8938 5.7119 0.637368 0 0 1.00004 0.00168605
296 20.3065 5.55661 1.37409 0 0 1.00004 0.00167515
375 20.9344 6.5424 1.27826 0 0 1.00004 0.00178848
377 21.8355 6.58815 0.653569 0 0 1.00004 0.00181427
300 21.8262 5.79882 1.34718 0 0 1.00004 0.00175861
16260 21.8591 5.66356 0.0537859 0 0 1.00004 0.00171977
298 22.8707 5.75506 0.643849 0 0 1.00005 0.00179756
379 22.8499 6.60019 1.17192 0 0 1.00005 0.00189637
381 23.5919 6.67596 0.263339 0 0 1.00005 0.00193493
304 23.7181 5.80056 1.25261 0 0 1.00005 0.00188342
383 24.6069 6.47307 1.13281 0 0 1.00005 0.00202331
302 24.3985 5.90996 0.407511 0 0 1.00005 0.00192801
306 26.0056 5.77503 0.671254 0 0 1.00005 0.00206582
308 25.414 5.94196 1.61825 0 0 1.00005 0.00206132
385 25.4733 6.63206 0.476586 0 0 1.00005 0.00209842
387 26.1886 6.50664 1.36657 0 0 1.00005 0.00218242
312 27.0471 5.76612 1.43206 0 0 1.00005 0.00218679
310 27.8753 5.47733 0.696318 0 0 1.00005 0.00220942
389 27.1166 6.28472 0.621223 0 0 1.00005 0.00221964
391 28.1002 6.38226 1.33416 0 0 1.00005 0.00234134
390 28.129 6.9283 0.506967 0 0 1.00005 0.00237676
392 27.1879 7.02811 1.29617 0 0 1.00005 0.00232935
316 28.7734 5.45942 1.44059 0 0 1.00005 0.0023086
395 29.8809 6.14045 1.29605 0 0 1.00005 0.00245755
394 30.043 6.87835 0.497954 0 0 1.00005 0.00252512
393 28.8928 6.14838 0.634244 0 0 1.00005 0.00236239
16355 29.807 6.08459 0.0728366 0 0 1.00005 0.00241827
16276 28.8776 5.33996 0.0421 0 0 1.00005 0.00227413
396 29.1001 7.03363 1.19887 0 0 1.00005 0.00249195
318 31.4156 5.33001 0.585468 0 0 1.00005 0.00244997
320 30.663 5.41083 1.43092 0 0 1.00005 0.0024391
397 30.845 6.14888 0.629332 0 0 1.00005 0.0025011
399 31.6848 6.12097 1.36837 0 0 1.00005 0.00256627
398 31.7011 6.91672 0.604022 0 0 1.00005 0.0026299
400 30.8174 7.04177 1.16432 0 0 1.00005 0.0026118
401 0.782781 7.62891 0.646127 0 0 1.00005 0.00274522
402 1.39868 8.46895 0.597805 0 0 1.00005 0.00285863
403 1.63872 7.84256 1.48793 0 0 1.00005 0.00282803
404 0.899406 8.53246 1.45256 0 0 1.00005 0.00288309
478 0.222997 8.5794 0.387216 0 0 1.00005 0.00282442
405 2.12315 7.76916 0.386276 0 0 1.00004 0.00279184
408 2.28886 8.62749 1.46487 0 0 1.00004 0.00292964
326 2.98196 7.15322 0.471101 0 0 1.00004 0.00273322
406 2.75871 8.62905 0.401838 0 0 1.00004 0.00289708
407 2.92891 7.82956 1.29197 0 0 1.00004 0.00283483
412 3.57539 8.5531 0.961974 0 0 1.00004 0.00290531
409 3.75191 7.79307 0.336504 0 0 1.00004 0.00279987
410 4.3475 8.50079 0.0800612 0 0 1.00004 0.00287164
411 4.48748 7.68634 1.24146 0 0 1.00004 0.0028023
413 5.16621 7.7091 0.240072 0 0 1.00003 0.00276028
416 5.20717 8.33164 0.964674 0 0 1.00003 0.00285037
334 5.99239 7.10677 0.160735 0 0 1.00003 0.00266281
414 6.34913 8.42619 0.186972 0 0 1.00003 0.00279884
415 5.96016 7.64371 1.04434 0 0 1.00003 0.00274482
420 6.8589 8.28618 1.08159 0 0 1.00003 0.00277864
417 6.9267 7.63373 0.172061 0 0 1.00003 0.00267718
419 7.71497 7.84682 0.77686 0 0 1.00003 0.00266662
1258 7.71691 8.25854 1.75125 0 0 1.00002 0.00276393
421 8.39035 7.70192 0.0266918 0 0 1.00002 0.0025902
1261 8.45821 7.58412 1.61292 0 0 1.00002 0.00262316
424 8.67014 8.41903 0.910296 0 0 1.00002 0.00267387
423 9.26973 7.71431 0.691553 0 0 1.00002 0.00253416
1262 9.46647 8.7959 1.51261 0 0 1.00002 0.00269097
1265 10.0112 7.9841 1.65323 0 0 1.00002 0.00255379
428 10.082 8.71635 0.731673 0 0 1.00002 0.00258885
348 10.1424 7.30872 0.761201 0 0 1.00002 0.00241667
352 11.5577 7.23407 0.839113 0 0 1.00002 0.00228266
427 10.879 8.03524 0.878287 0 0 1.00002 0.00244183
1266 10.9116 8.82268 1.49813 0 0 1.00002 0.00256874
1269 11.6702 7.91732 1.65764 0 0 1.00002 0.00239669
429 11.5042 8.2135 0.049551 0 0 1.00002 0.00238584
356 12.9153 7.37442 0.595629 0 0 1.00002 0.00216454
431 12.4236 8.30978 0.627586 0 0 1.00002 0.00232292
1190 12.3178 7.24817 1.43436 0 0 1.00002 0.00224066
1270 12.3508 8.77888 1.55951 0 0 1.00002 0.00243339
1273 13.0785 8.09036 1.53288 0 0 1.00002 0.00227832
350 12.1316 7.46734 0.00103324 0 0 1.00002 0.0022389
360 14.4782 7.40939 0.625774 0 0 1.00002 0.00203288
435 13.8093 8.16947 0.498541 0 0 1.00002 0.00217417
1194 13.6617 7.40708 1.39668 0 0 1.00002 0.00213354
1277 14.4393 8.22959 1.39938 0 0 1.00002 0.0021646
439 15.2462 8.33609 0.885402 0 0 1.00002 0.0020875
362 16.5571 7.19911 0.289516 0 0 1.00003 0.00186146
364 15.7694 7.33867 0.923626 0 0 1.00002 0.00193725
443 16.4149 8.17961 1.12255 0 0 1.00003 0.00200249
1198 15.2924 7.56692 1.67321 0 0 1.00002 0.00203861
441 16.0035 8.33076 0.158123 0 0 1.00002 0.00201668
368 17.1053 7.36154 1.12181 0 0 1.00003 0.00187641
445 17.1959 8.11237 0.330631 0 0 1.00003 0.00193145
447 17.854 8.0171 1.03493 0 0 1.00003 0.00191776
366 17.9371 7.16189 0.224047 0 0 1.00003 0.00180333
370 19.1464 7.29708 0.627863 0 0 1.00003 0.00180858
451 19.0829 8.11549 1.16899 0 0 1.00003 0.00191678
376 20.0327 7.59742 1.29684 0 0 1.00004 0.00187451
453 19.9662 8.08156 0.35695 0 0 1.00004 0.00189342
449 18.5992 8.16374 0.185173 0 0 1.00003 0.00189551
374 20.8717 7.39179 0.649394 0 0 1.00004 0.00185211
455 20.8471 8.36162 1.00803 0 0 1.00004 0.00196601
380 21.7508 7.58438 1.11183 0 0 1.00005 0.00192806
457 21.8312 8.2571 0.254844 0 0 1.00005 0.00197984
459 22.8452 8.08559 0.978772 0 0 1.00005 0.00204594
1218 22.6565 7.40219 1.7014 0 0 1.00005 0.00199555
378 22.563 7.3919 0.373656 0 0 1.00005 0.00193514
458 23.023 8.79372 0.195871 0 0 1.00005 0.00211448
1298 22.6807 8.80064 1.54723 0 0 1.00005 0.00214451
384 23.7141 7.22735 1.02817 0 0 1.00005 0.00202155
461 23.7677 7.98159 0.360433 0 0 1.00005 0.00208974
463 24.6669 7.98875 0.957394 0 0 1.00005 0.00218422
1302 24.5976 8.62578 1.63449 0 0 1.00006 0.00228906
382 24.6266 7.22066 0.265802 0 0 1.00005 0.00207915
462 24.6457 8.71328 0.198722 0 0 1.00005 0.00224306
1301 23.6603 7.94556 1.73924 0 0 1.00005 0.00213521
388 25.458 7.29048 1.20601 0 0 1.00005 0.00219158
467 26.4137 7.91223 0.957601 0 0 1.00006 0.00234028
1306 26.4358 8.52626 1.69212 0 0 1.00006 0.00245576
386 26.4482 7.17168 0.361078 0 0 1.00005 0.00224464
465 25.5787 8.01307 0.301895 0 0 1.00005 0.00225435
466 26.6723 8.48907 0.089492 0 0 1.00006 0.00241051
468 25.6645 8.74996 0.965111 0 0 1.00006 0.00236466
470 28.4254 8.42269 0.397202 0 0 1.00006 0.00256804
471 28.2531 7.74632 1.1747 0 0 1.00006 0.00250108
472 27.4244 8.56642 0.991229 0 0 1.00006 0.00251313
469 27.4096 7.69362 0.418006 0 0 1.00006 0.00239351
1310 28.2682 8.60456 1.73938 0 0 1.00006 0.00263576
474 30.104 8.32225 0.528653 0 0 1.00005 0.0026917
475 29.9859 7.62184 1.25429 0 0 1.00005 0.00262618
476 29.2654 8.48092 1.15472 0 0 1.00006 0.00266748
473 29.1685 7.66229 0.403443 0 0 1.00005 0.00254483
479 31.7654 7.7796 1.28291 0 0 1.00005 0.00275185
480 30.961 8.44189 1.17172 0 0 1.00005 0.00277988
477 31.1434 7.83378 0.379465 0 0 1.00005 0.00269804
483 1.60126 9.34673 1.19279 0 0 1.00005 0.00298509
484 0.849263 9.92147 0.905688 0 0 1.00005 0.00301236
481 0.937675 9.32392 0.126314 0 0 1.00005 0.00293458
1322 1.42558 10.1175 1.74711 0 0 1.00005 0.00310109
559 0.0748008 9.24869 1.12532 0 0 1.00005 0.00291546
558 0.0748525 9.92259 0.0616538 0 0 1.00005 0.00296116
482 1.72212 10.2751 0.262134 0 0 1.00005 0.00305925
485 2.32415 9.46431 0.438095 0 0 1.00004 0.00298811
488 2.42853 10.3536 0.977803 0 0 1.00004 0.00310086
486 3.17165 10.2935 0.0739516 0 0 1.00004 0.0030782
487 2.95032 9.45827 1.21964 0 0 1.00004 0.00301969
1326 3.36491 10.2529 1.6864 0 0 1.00004 0.00313694
489 3.6366 9.38203 0.10409 0 0 1.00004 0.00297953
1329 3.79591 9.27967 1.69966 0 0 1.00004 0.0030256
492 3.95364 10.0785 0.764258 0 0 1.00004 0.00306621
491 4.48048 9.15268 0.876153 0 0 1.00004 0.00296006
1330 4.70064 10.0118 1.62785 0 0 1.00004 0.00309255
493 5.10191 9.25532 0.00414814 0 0 1.00003 0.00294042
496 5.15453 10.0375 0.583447 0 0 1.00003 0.00303574
1333 5.22011 9.11823 1.67453 0 0 1.00003 0.00298143
495 5.83988 9.03017 0.679091 0 0 1.00003 0.00290158
1334 5.8727 9.90348 1.22635 0 0 1.00003 0.00302162
1337 6.65652 9.14868 1.30532 0 0 1.00003 0.0029059
500 6.74147 9.87445 0.538422 0 0 1.00003 0.0029538
499 7.61707 8.96762 0.747457 0 0 1.00003 0.00280583
1338 7.64574 9.83178 1.24764 0 0 1.00003 0.00292805
504 8.41907 10.0259 0.605396 0 0 1.00002 0.00286986
1341 8.48305 9.26123 1.45583 0 0 1.00002 0.00281888
501 8.52141 9.14489 0.0931115 0 0 1.00002 0.0027518
503 9.34614 9.54505 0.760804 0 0 1.00002 0.00275142
508 10.0442 10.4231 0.704643 0 0 1.00002 0.00279119
1342 9.19314 10.3398 1.47746 0 0 1.00002 0.00289493
1345 10.2044 9.67765 1.48645 0 0 1.00002 0.0027353
432 11.6539 8.94196 0.766126 0 0 1.00002 0.00247451
426 10.7361 8.9734 0.0369245 0 0 1.00002 0.00254753
507 10.8194 9.77462 0.697692 0 0 1.00002 0.00264975
1346 10.9972 10.2833 1.71238 0 0 1.00002 0.00275522
1349 11.6491 9.71565 1.39227 0 0 1.00002 0.00260309
436 13.2198 9.02859 0.816675 0 0 1.00002 0.00233966
511 12.3878 9.8909 0.724231 0 0 1.00002 0.00251646
516 13.0992 10.5588 0.997633 0 0 1.00002 0.00253434
1353 12.8447 9.70802 1.68247 0 0 1.00002 0.00251255
1274 13.9049 8.93661 1.62283 0 0 1.00002 0.00231459
440 14.6564 9.24034 0.791169 0 0 1.00002 0.00223552
515 13.7746 9.77347 0.878345 0 0 1.00002 0.00237771
517 14.4928 10.1935 0.232733 0 0 1.00002 0.00233947
444 16.0697 9.18242 1.15283 0 0 1.00002 0.00214143
519 15.3358 9.91374 1.04559 0 0 1.00002 0.00226918
521 15.88 10.2033 0.253768 0 0 1.00002 0.00223117
523 16.6886 9.9768 0.980241 0 0 1.00002 0.00218183
442 16.6618 9.06161 0.270611 0 0 1.00003 0.00206016
438 15.4643 9.24076 0.123893 0 0 1.00002 0.00215485
448 17.2574 9.06551 1.13372 0 0 1.00003 0.00206211
525 17.339 10.026 0.204638 0 0 1.00003 0.00212933
527 17.9585 9.85462 1.07254 0 0 1.00003 0.00211893
446 17.9238 9.09789 0.123842 0 0 1.00003 0.00200943
452 18.4659 8.88319 0.943263 0 0 1.00003 0.00199584
456 20.0188 8.90825 1.0381 0 0 1.00004 0.00200458
529 18.7807 9.71405 0.30322 0 0 1.00003 0.00205985
531 19.7033 9.85856 0.850404 0 0 1.00004 0.00209319
532 18.925 10.4364 1.13853 0 0 1.00003 0.00216632
1369 18.8433 9.56382 1.69741 0 0 1.00003 0.00211525
450 19.4113 8.92615 0.211435 0 0 1.00004 0.00197443
533 20.2094 9.73823 0.0690673 0 0 1.00004 0.00206949
535 21.1749 9.74875 0.745409 0 0 1.00004 0.00211818
1373 20.4664 9.61393 1.63621 0 0 1.00004 0.00213215
454 21.0003 9.00958 0.195878 0 0 1.00004 0.0020195
1374 21.3476 10.0458 1.7326 0 0 1.00005 0.00222025
460 21.8693 8.95739 0.950693 0 0 1.00005 0.00207689
539 23.1324 9.61435 0.78467 0 0 1.00005 0.00222676
540 22.4027 10.4468 0.824524 0 0 1.00005 0.00226013
1377 22.2138 9.71478 1.49059 0 0 1.00005 0.002212
1378 23.3735 10.432 1.39258 0 0 1.00005 0.00236719
537 22.2359 9.73113 0.213499 0 0 1.00005 0.0021598
464 23.7484 8.86148 0.937399 0 0 1.00005 0.00219947
543 24.8828 9.47659 0.740428 0 0 1.00006 0.00236334