ITEM: TIMESTEP
7000
ITEM: NUMBER OF ATOMS
32000
ITEM: BOX BOUNDS pp pp pp
0.0000000000000000e+00 3.1748021039364001e+01
0.0000000000000000e+00 3.1748021039364001e+01
0.0000000000000000e+00 3.1748021039364001e+01
ITEM: ATOMS id x y z c_phase c_nbond c_rho vx
4 0.139149 1.1019 0.465457 0 0 1 0.000381963
83 0.996182 1.66864 0.779016 0 0 0.999983 0.000387938
842 0.737537 0.793328 1.41271 0 0 0.999989 0.000386465
921 0.0270325 1.60205 1.37551 0 0 1.00001 0.000391881
3 0.752119 0.064602 0.617409 0 0 0.999989 0.000378763
8 1.73205 0.811273 1.01569 0 0 0.999966 0.000373831
85 1.82287 1.47706 0.220437 0 0 0.999964 0.000373462
925 1.84462 1.66145 1.7614 0 0 0.999963 0.000387101
6 2.54068 0.74932 0.204154 0 0 0.999948 0.000352516
7 2.61087 0.0546701 1.03828 0 0 0.999946 0.000352613
87 2.66916 1.54245 0.883108 0 0 0.999945 0.000357505
846 2.69024 0.817312 1.74626 0 0 0.999944 0.00035933
12 3.45149 0.93424 0.958546 0 0 0.999929 0.000327736
849 3.51689 0.0922976 1.70831 0 0 0.999927 0.000328838
929 3.62505 1.70975 1.72187 0 0 0.999925 0.000334803
10 4.12307 0.859571 0.32534 0 0 0.999917 0.00029649
16 4.97675 0.56855 1.17533 0 0 0.999902 0.000256267
93 4.93359 1.60238 0.384624 0 0 0.999903 0.000261956
850 4.36169 0.943505 1.63232 0 0 0.999912 0.000294175
9 3.49359 0.110679 0.17187 0 0 0.999929 0.000319792
14 5.65874 0.646543 0.326091 0 0 0.999893 0.000213447
95 5.89484 1.31344 0.940858 0 0 0.99989 0.000205345
97 6.5827 1.39431 0.219082 0 0 0.999882 0.000157689
854 5.79536 0.46137 1.7025 0 0 0.999891 0.000212328
933 5.04448 1.72644 1.43873 0 0 0.9999 0.000262356
20 6.72105 0.391713 0.867736 0 0 0.999881 0.000146449
937 6.69871 1.01217 1.69766 0 0 0.999881 0.000155936
24 8.26817 0.410023 1.0759 0 0 0.999874 3.50161e-05
99 7.3723 1.22586 0.956429 0 0 0.999877 0.000103541
101 8.24753 1.39415 0.237601 0 0 0.999874 3.706e-05
941 8.12989 1.27538 1.61079 0 0 0.999874 5.04037e-05
18 7.58588 0.649637 0.141132 0 0 0.999876 8.35357e-05
22 8.8561 0.509771 0.27457 0 0 0.999875 -1.15009e-05
28 9.5478 0.339233 0.891292 0 0 0.999877 -6.30869e-05
103 9.02255 1.31046 1.11568 0 0 0.999875 -1.96082e-05
105 9.63384 1.3775 0.0908491 0 0 0.999878 -6.89135e-05
32 11.1996 0.216443 0.635016 0 0 0.999894 -0.000183667
107 10.3546 1.05017 0.825447 0 0 0.999884 -0.000123493
866 10.513 0.197173 1.449 0 0 0.999885 -0.000134441
949 11.273 1.02023 1.42111 0 0 0.999894 -0.000189899
946 10.5689 1.6814 1.73369 0 0 0.999885 -0.000137646
26 10.2348 0.368586 0.0784184 0 0 0.999883 -0.000115351
36 12.8578 0.21281 0.638623 0 0 0.999923 -0.000286052
111 12.0288 1.0762 0.508746 0 0 0.999906 -0.000239415
870 12.1153 0.317056 1.3028 0 0 0.999908 -0.000244279
953 12.701 1.19986 1.37533 0 0 0.999919 -0.000281494
40 14.3512 0.321174 0.768779 0 0 0.999957 -0.00035165
115 13.5708 1.11378 0.845285 0 0 0.999938 -0.000323661
117 14.0192 1.56094 0.166086 0 0 0.999949 -0.000344401
874 13.5875 0.360618 1.6376 0 0 0.999939 -0.000325224
957 14.3552 1.1511 1.47886 0 0 0.999957 -0.00035698
119 14.8538 1.55436 0.663757 0 0 0.99997 -0.000370959
44 15.6835 0.769456 0.788216 0 0 0.999992 -0.000382909
123 16.5284 1.54356 0.68151 0 0 1.00002 -0.000390621
878 15.1187 0.464461 1.64225 0 0 0.999977 -0.000377066
882 16.5229 0.711398 1.34215 0 0 1.00002 -0.000389107
961 15.6087 1.48689 1.39237 0 0 0.99999 -0.000388583
38 15.0813 0.71173 0.0674028 0 0 0.999976 -0.000371113
48 17.2332 0.731306 0.54885 0 0 1.00003 -0.000379802
127 17.901 1.58003 0.756185 0 0 1.00005 -0.000371441
886 17.8939 0.74258 1.42639 0 0 1.00005 -0.000370478
965 17.1959 1.74736 1.56215 0 0 1.00003 -0.00039072
51 19.5195 0.0159423 0.662148 0 0 1.00009 -0.000304494
52 18.772 0.724724 0.684413 0 0 1.00007 -0.00033893
131 19.5214 1.55219 0.840405 0 0 1.00009 -0.000309127
889 19.0073 0.157428 1.54332 0 0 1.00008 -0.000332662
890 19.5753 0.965919 1.6876 0 0 1.00009 -0.000307318
969 18.6368 1.5101 1.49853 0 0 1.00007 -0.000350513
55 21.0787 0.34907 1.06546 0 0 1.00011 -0.000216733
56 20.2335 0.775129 0.977723 0 0 1.0001 -0.000268397
135 21.0934 1.65248 0.950384 0 0 1.00011 -0.000215768
54 21.1754 0.764071 0.218025 0 0 1.00011 -0.00020914
133 20.3304 1.51169 0.19413 0 0 1.0001 -0.000263897
57 22.0008 0.262343 0.538457 0 0 1.00012 -0.000152662
59 22.7868 0.429026 1.40399 0 0 1.00013 -9.46696e-05
60 22.1027 1.14514 1.32692 0 0 1.00012 -0.000144701
137 21.9895 1.59611 0.536626 0 0 1.00012 -0.000153696
58 22.9114 1.07137 0.44467 0 0 1.00013 -8.56156e-05
63 24.2304 0.379113 1.44817 0 0 1.00013 1.756e-05
61 23.566 0.356442 0.57247 0 0 1.00013 -3.564e-05
62 24.4393 1.18371 0.752897 0 0 1.00013 3.21185e-05
64 23.4743 1.24643 1.39934 0 0 1.00013 -3.95194e-05
65 24.9601 0.314911 0.550614 0 0 1.00013 7.02039e-05
67 26.0176 0.382121 1.16917 0 0 1.00012 0.000146214
68 25.1749 1.12313 1.47708 0 0 1.00012 9.12348e-05
147 25.9395 1.73122 1.35468 0 0 1.00012 0.000149599
66 25.9005 0.927733 0.430815 0 0 1.00012 0.000138195
70 27.5888 1.27854 0.388045 0 0 1.00009 0.000247587
71 27.6292 0.507969 0.872952 0 0 1.00009 0.000247421
72 26.768 1.02618 1.26068 0 0 1.00011 0.000200079
913 28.3935 0.337738 1.39801 0 0 1.00008 0.000289512
69 26.8045 0.239945 0.226558 0 0 1.00011 0.000195159
76 28.6674 1.23985 0.740352 0 0 1.00007 0.000302458
914 29.4096 0.946561 1.56745 0 0 1.00006 0.00033664
993 28.5407 1.71751 1.49639 0 0 1.00008 0.000305739
917 29.8354 0.172514 1.45976 0 0 1.00005 0.000347417
75 29.2928 0.354423 0.614818 0 0 1.00006 0.000323066
841 31.6103 0.266554 1.25683 0 0 1.00001 0.000380886
79 30.7248 0.488211 0.471818 0 0 1.00003 0.000364567
80 30.1209 1.19797 0.773536 0 0 1.00004 0.000355637
918 30.8865 0.971489 1.39334 0 0 1.00003 0.000375754
82 1.13342 2.4372 0.128511 0 0 0.999979 0.000395132
84 0.156859 2.38233 0.811828 0 0 1 0.000398411
163 1.31142 3.23824 0.949195 0 0 0.999975 0.000412052
922 1.16293 2.36247 1.59208 0 0 0.999978 0.000403872
1001 0.410504 3.03156 1.54969 0 0 0.999996 0.000418668
161 0.3558 3.09723 0.131357 0 0 0.999997 0.000408933
88 1.93223 2.42003 0.784673 0 0 0.999961 0.000386205
167 2.67949 3.2834 0.861602 0 0 0.999944 0.000384607
926 2.69088 2.23259 1.53637 0 0 0.999944 0.000371858
1009 3.27906 3.42982 1.65222 0 0 0.999931 0.000377152
86 2.74609 2.3844 0.0558023 0 0 0.999943 0.00036312
92 3.4013 2.55777 0.781046 0 0 0.99993 0.000346195
91 4.02419 1.84324 0.712668 0 0 0.999918 0.000309352
96 4.92803 2.57674 0.817721 0 0 0.999902 0.000275624
171 4.21899 3.32234 0.75123 0 0 0.999913 0.00032464
930 4.15109 2.64518 1.58564 0 0 0.999915 0.000323473
94 5.66236 2.44763 0.133595 0 0 0.999892 0.000226805
100 6.56615 2.18547 0.77499 0 0 0.999882 0.000167237
175 5.66157 3.20203 0.955297 0 0 0.999891 0.000242346
934 5.87242 2.19946 1.49989 0 0 0.999889 0.000220189
1017 6.53014 3.0735 1.55947 0 0 0.999881 0.000187263
177 6.65819 2.93438 0.13464 0 0 0.99988 0.000167631
98 7.45827 2.23088 0.140384 0 0 0.999876 0.000101957
104 8.08378 2.20719 0.933208 0 0 0.999874 5.62263e-05
179 7.4063 3.07489 0.936521 0 0 0.999875 0.000117632
938 7.30454 2.06535 1.57263 0 0 0.999877 0.000118929
1021 8.18685 3.00889 1.65697 0 0 0.999873 6.07519e-05
181 8.27013 2.97777 0.0396985 0 0 0.999873 4.58183e-05
102 8.90169 2.09211 0.253288 0 0 0.999874 -1.02903e-05
108 9.76615 2.02913 1.11247 0 0 0.999878 -7.57385e-05
183 8.92406 2.97938 0.931819 0 0 0.999873 -4.88895e-06
942 9.02753 2.22621 1.70885 0 0 0.999874 -1.36363e-05
185 9.55559 2.91225 0.213671 0 0 0.999876 -5.86752e-05
106 10.2745 2.11817 0.214656 0 0 0.999882 -0.000117455
112 11.1457 1.83038 0.773222 0 0 0.999893 -0.000181309
187 10.6108 2.81394 0.924064 0 0 0.999885 -0.000141369
1029 11.4294 2.83584 1.57972 0 0 0.999896 -0.000200759
116 12.6554 1.94425 0.595681 0 0 0.999918 -0.000280345
191 11.9119 2.64645 0.743746 0 0 0.999904 -0.000236675
950 11.9084 1.92402 1.46874 0 0 0.999904 -0.000234806
1033 12.8249 3.0225 1.69062 0 0 0.999921 -0.000296243
195 13.161 3.03294 0.848979 0 0 0.999928 -0.000314958
954 13.3582 1.99411 1.48303 0 0 0.999933 -0.000320327
120 13.9983 2.44718 0.927303 0 0 0.999948 -0.000350391
1037 14.0043 3.38767 1.55899 0 0 0.999948 -0.00036028
199 14.672 3.43898 0.884515 0 0 0.999965 -0.000385116
958 14.7605 2.29989 1.44748 0 0 0.999968 -0.0003776
118 14.8179 2.51562 0.137101 0 0 0.999969 -0.000378029
197 14.1351 3.22787 0.0340751 0 0 0.999951 -0.000361788
114 13.3931 2.29758 0.0588521 0 0 0.999934 -0.000320986
124 15.6741 2.44302 0.69409 0 0 0.999992 -0.000394742
203 16.2787 3.20035 0.664149 0 0 1.00001 -0.000408086
962 16.2832 2.47861 1.52538 0 0 1.00001 -0.000403096
1041 15.3456 3.25811 1.50303 0 0 0.999983 -0.000401604
201 15.5451 3.25932 0.0205763 0 0 0.999988 -0.000401854
128 17.0413 2.35009 0.682592 0 0 1.00003 -0.00039388
207 17.9209 2.92417 0.699555 0 0 1.00005 -0.000382143
966 17.9958 2.43629 1.58048 0 0 1.00005 -0.000379034
1045 17.0664 3.11412 1.49475 0 0 1.00003 -0.000405311
132 18.8704 2.35472 1.01185 0 0 1.00007 -0.000345077
211 19.6826 3.23645 1.27507 0 0 1.00009 -0.000311971
209 18.8627 2.99261 0.194944 0 0 1.00007 -0.000348449
130 19.5694 2.33758 0.101767 0 0 1.00009 -0.00030959
973 20.3091 1.78417 1.72196 0 0 1.0001 -0.0002686
134 21.1449 2.41199 0.456898 0 0 1.00011 -0.000214537
136 20.1787 2.46341 1.11157 0 0 1.0001 -0.000277472
215 21.2979 3.2883 1.38857 0 0 1.00012 -0.000204752
213 20.4061 2.98847 0.333573 0 0 1.0001 -0.000264145
139 22.8677 2.0643 1.50536 0 0 1.00013 -8.63751e-05
138 22.9675 2.59607 0.733343 0 0 1.00013 -7.75571e-05
140 22.0871 2.49324 1.2348 0 0 1.00012 -0.000144243
217 21.9803 3.19362 0.597463 0 0 1.00012 -0.000152053
16179 22.6725 3.39347 0.0748098 0 0 1.00013 -9.79916e-05
141 23.7433 1.80413 0.622415 0 0 1.00013 -1.84793e-05
143 24.4316 1.98266 1.60654 0 0 1.00013 3.97592e-05
142 24.3446 2.67672 0.772991 0 0 1.00013 3.43934e-05
144 23.688 2.89554 1.53194 0 0 1.00013 -1.35527e-05
223 24.4765 3.50267 1.55237 0 0 1.00013 5.76294e-05
16108 24.9615 2.83889 0.014635 0 0 1.00013 8.36895e-05
149 26.5601 1.79059 0.510309 0 0 1.00011 0.000189076
145 25.1381 1.85188 0.508549 0 0 1.00013 8.87705e-05
146 25.801 2.60636 0.705465 0 0 1.00012 0.000145085
148 25.1647 2.55007 1.52126 0 0 1.00013 0.000100251
227 25.7308 3.49057 1.50839 0 0 1.00012 0.000157382
152 26.5484 2.55542 1.5269 0 0 1.00011 0.000202594
229 26.1805 3.49413 0.596979 0 0 1.00012 0.000185015
151 27.519 1.9821 1.2351 0 0 1.0001 0.000254163
153 28.2667 2.08746 0.343253 0 0 1.00008 0.00029116
150 27.101 2.68766 0.643265 0 0 1.0001 0.000234483
231 27.216 3.34811 1.41341 0 0 1.0001 0.000258641
156 28.2716 2.75375 1.20361 0 0 1.00008 0.000305397
233 27.9996 3.21575 0.326763 0 0 1.00009 0.000293603
997 29.9791 1.8073 1.70616 0 0 1.00005 0.000365593
155 29.4674 2.0431 0.879577 0 0 1.00006 0.000344017
154 29.2153 2.65803 0.289662 0 0 1.00006 0.000340997
235 29.2713 3.26076 1.17344 0 0 1.00006 0.000359892
159 30.9336 1.98344 0.923807 0 0 1.00003 0.000383304
160 30.2038 2.70914 1.00107 0 0 1.00004 0.000378438
239 31.0487 3.34979 0.971635 0 0 1.00002 0.000408972
998 31.0097 2.69359 1.72598 0 0 1.00002 0.00040398
237 30.1333 3.25499 0.134512 0 0 1.00004 0.000382639
157 30.4324 1.9075 0.026619 0 0 1.00004 0.000368111
158 31.166 2.66256 0.0761608 0 0 1.00002 0.00039356
164 0.318961 3.78464 0.919053 0 0 0.999998 0.000427845
241 0.168721 4.59575 0.481068 0 0 1 0.000445408
243 1.16491 4.67207 0.98749 0 0 0.999978 0.000449377
244 0.116377 5.26686 1.27721 0 0 1 0.000473932
162 1.06544 3.86441 0.0613214 0 0 0.99998 0.000423445
168 1.86642 4.04796 0.84817 0 0 0.999961 0.000421699
247 2.56401 4.8602 1.13775 0 0 0.999945 0.000431198
166 2.67204 4.14833 0.206647 0 0 0.999943 0.00040079
245 1.92252 4.97088 0.279321 0 0 0.99996 0.000442367
249 3.42972 4.86695 0.162271 0 0 0.999927 0.000393555
172 3.51399 4.08162 0.887653 0 0 0.999926 0.000373932
176 4.9287 4.00737 1.18523 0 0 0.9999 0.000305611
251 4.06781 4.88664 1.14944 0 0 0.999914 0.000373676
170 4.27805 4.19032 0.149002 0 0 0.999911 0.000337817
253 5.02587 4.74783 0.341466 0 0 0.999898 0.00031153
174 5.78873 3.94515 0.198776 0 0 0.999889 0.000243675
180 6.49939 3.77409 0.775211 0 0 0.999881 0.00019481
255 5.69533 4.74417 1.02886 0 0 0.999889 0.000273415
1097 6.67304 4.5215 1.64889 0 0 0.999878 0.000207634
260 6.68994 5.14202 0.888158 0 0 0.999877 0.000211426
184 8.19969 3.90028 0.70369 0 0 0.999872 6.32741e-05
259 7.41388 4.47012 0.549314 0 0 0.999874 0.00013599
1018 7.40467 3.87893 1.5021 0 0 0.999874 0.000135442
1101 8.20199 4.62151 1.49251 0 0 0.99987 8.12017e-05
188 9.89005 3.5862 0.888927 0 0 0.999878 -8.0142e-05
263 9.07568 4.57564 0.824851 0 0 0.999872 -1.53866e-06
265 9.85487 4.51325 0.127379 0 0 0.999876 -7.35712e-05
1022 9.07451 3.77171 1.50362 0 0 0.999872 -6.51022e-06
1105 9.86179 4.35672 1.66182 0 0 0.999876 -6.58663e-05
182 8.98265 3.87655 0.0636118 0 0 0.999872 -4.33641e-06
192 11.3931 3.65183 0.782175 0 0 0.999894 -0.000201195
267 10.5774 4.67533 0.91002 0 0 0.999883 -0.000132261
269 11.3711 4.70267 0.231037 0 0 0.999893 -0.000199447
1026 10.6944 3.57543 1.59333 0 0 0.999885 -0.000143293
1109 11.3494 4.38212 1.71088 0 0 0.999893 -0.000193199
272 11.3736 5.28274 0.989279 0 0 0.999892 -0.000195279
186 10.5722 3.8564 0.176715 0 0 0.999884 -0.000138022
196 12.4958 3.58499 0.816707 0 0 0.999914 -0.000278223
271 12.1718 4.55812 1.00326 0 0 0.999907 -0.000259731
1113 12.7164 5.00396 1.69402 0 0 0.999917 -0.00029585
275 13.2028 4.68675 0.802418 0 0 0.999928 -0.000329072
273 12.6212 4.62552 0.0630223 0 0 0.999916 -0.000292395
200 13.9656 4.13157 0.698015 0 0 0.999947 -0.000364827
1034 13.4601 4.22366 1.59654 0 0 0.999934 -0.000339755
1117 14.1764 5.12214 1.52375 0 0 0.999951 -0.000383014
279 14.9128 5.01435 0.812798 0 0 0.99997 -0.000411793
1038 14.9378 4.41798 1.59586 0 0 0.999971 -0.000405317
277 14.1145 4.9092 0.061911 0 0 0.99995 -0.000380132
198 14.9345 4.19541 0.0979078 0 0 0.999972 -0.000401303
204 15.641 4.06696 0.925969 0 0 0.999991 -0.000415596
281 15.8503 4.77537 0.186768 0 0 0.999996 -0.00042773
283 16.5657 4.57932 0.900118 0 0 1.00002 -0.000427246
1042 16.2914 3.95838 1.68981 0 0 1.00001 -0.000421347
1121 15.7819 5.05228 1.64185 0 0 0.999994 -0.000430854
208 17.2435 3.83108 0.810531 0 0 1.00003 -0.000409756
287 18.06 4.48387 1.09619 0 0 1.00006 -0.000397999
1046 17.9276 3.63476 1.65405 0 0 1.00005 -0.000393168
285 17.4285 4.57408 0.015479 0 0 1.00004 -0.000415964
206 18.111 3.85035 0.0593574 0 0 1.00006 -0.000387213
212 18.8545 3.70214 0.949312 0 0 1.00007 -0.000357407
289 18.8 4.60391 0.360924 0 0 1.00007 -0.000368841
291 19.6684 4.67025 1.07987 0 0 1.00009 -0.000322871
292 18.7598 5.2702 1.19798 0 0 1.00007 -0.000377301
210 19.5787 3.7611 0.227773 0 0 1.00009 -0.000319733
216 20.4215 3.81467 1.23033 0 0 1.00011 -0.000269059
295 20.8687 4.70913 1.38931 0 0 1.00011 -0.000237719
297 21.5667 4.94128 0.806724 0 0 1.00012 -0.000182648
214 21.0697 3.92387 0.510911 0 0 1.00012 -0.000222773
293 20.1166 4.7775 0.350473 0 0 1.0001 -0.000293608
219 22.8159 3.62284 1.41653 0 0 1.00013 -8.15719e-05
220 21.9308 4.12396 1.30638 0 0 1.00012 -0.000153453
299 22.4639 5.16504 1.26821 0 0 1.00013 -0.000101672
218 22.6065 4.33745 0.509034 0 0 1.00013 -9.77481e-05
221 23.5726 3.6304 0.779916 0 0 1.00013 -2.07262e-05
222 24.3391 4.31143 0.622845 0 0 1.00013 5.06429e-05
224 23.4664 4.53868 1.32889 0 0 1.00013 -1.76777e-05
305 24.8586 5.24585 0.564308 0 0 1.00013 0.000110472
301 23.5508 5.0532 0.531182 0 0 1.00013 -9.82045e-06
228 25.0159 4.48987 1.61738 0 0 1.00013 0.000119227
303 24.3668 5.27694 1.42797 0 0 1.00013 7.4815e-05
225 25.0694 3.67149 0.79911 0 0 1.00013 0.000103547
307 25.7018 5.12855 1.33827 0 0 1.00012 0.00018539
232 26.3709 4.28182 1.36783 0 0 1.00011 0.000218868
309 26.517 4.96387 0.638743 0 0 1.00011 0.000237505
226 25.5379 4.3922 0.387505 0 0 1.00012 0.00014951
311 27.3482 4.86157 1.40169 0 0 1.0001 0.00030017
236 27.9809 3.96999 1.10199 0 0 1.00009 0.000312416
313 28.2977 4.729 0.704407 0 0 1.00008 0.000344499
230 27.0826 4.03575 0.569503 0 0 1.0001 0.000255833
234 28.9528 3.76657 0.485186 0 0 1.00007 0.000351816
315 29.1097 4.51787 1.32792 0 0 1.00007 0.000384562
240 30.021 4.06669 1.02318 0 0 1.00005 0.000402382
238 31.0541 3.97411 0.371352 0 0 1.00002 0.000419882
317 30.2299 4.6767 0.488552 0 0 1.00004 0.000420627
319 31.0043 4.59873 1.40822 0 0 1.00002 0.000445716
242 0.936072 5.53271 0.461966 0 0 0.999983 0.000473054
248 1.55929 5.51428 1.38056 0 0 0.999967 0.000477651
323 0.823875 6.21954 1.27735 0 0 0.999985 0.000507391
324 0.286963 6.91907 1.50681 0 0 0.999998 0.000538602
322 1.00075 6.94623 0.573102 0 0 0.99998 0.000523459
321 0.00493783 5.99644 0.446811 0 0 1.00001 0.000487475
328 1.73538 7.03185 1.24055 0 0 0.999962 0.000527761
325 1.92219 6.20318 0.51864 0 0 0.999959 0.000482793
252 3.13079 5.62418 1.30259 0 0 0.999932 0.000439453
327 2.29232 6.15875 1.41253 0 0 0.99995 0.000485637
332 3.28069 6.96965 1.13222 0 0 0.999927 0.000479936
246 2.70704 5.61634 0.274172 0 0 0.999941 0.000442221
329 3.42002 6.28729 0.500831 0 0 0.999925 0.000439276
250 4.21078 5.46971 0.326813 0 0 0.999911 0.000375839
256 4.95295 5.43777 1.3207 0 0 0.999898 0.000345027
331 4.15748 6.10395 1.23172 0 0 0.999911 0.000409616
333 4.84538 6.24264 0.334793 0 0 0.999899 0.000364498
336 4.79452 6.81027 1.16425 0 0 0.999899 0.000397316
330 4.02619 7.03187 0.223343 0 0 0.999912 0.000436463
254 5.79866 5.42999 0.302861 0 0 0.999886 0.00027833
335 5.70861 6.25292 0.966934 0 0 0.999886 0.0003164
1177 6.47092 5.99623 1.60379 0 0 0.999878 0.000263328
340 6.446 6.88164 1.01346 0 0 0.999877 0.000280574
337 6.39116 6.05353 0.155162 0 0 0.999879 0.000251139
264 8.21517 5.32549 0.697856 0 0 0.999869 8.56242e-05
339 7.33454 6.17066 0.75826 0 0 0.999871 0.000182293
1098 7.39877 5.42963 1.49821 0 0 0.999872 0.000168945
1181 8.24081 6.12358 1.49961 0 0 0.999868 0.000111894
344 8.01782 6.86709 0.733207 0 0 0.999867 0.000136894
1178 7.29095 6.8767 1.60484 0 0 0.99987 0.000223462
258 7.33662 5.3682 0.0463591 0 0 0.999872 0.000157866
268 9.76094 5.33104 0.796543 0 0 0.999874 -5.4626e-05
343 8.87875 6.20123 0.740976 0 0 0.999868 4.17857e-05
1102 9.0511 5.33938 1.60399 0 0 0.99987 2.16353e-05
1185 9.73146 6.20312 1.47559 0 0 0.999873 -3.08209e-05
1182 9.09032 6.96505 1.47168 0 0 0.999868 4.93776e-05
345 9.75573 6.24455 0.0952732 0 0 0.999873 -4.55907e-05
262 8.99484 5.47674 0.0138471 0 0 0.99987 1.41607e-05
347 10.5717 6.03393 0.968549 0 0 0.999881 -0.000120633
349 11.2966 6.38209 0.0782958 0 0 0.99989 -0.000188342
346 10.507 6.95466 0.155289 0 0 0.999879 -0.000111034
1186 10.4569 6.93989 1.50476 0 0 0.999878 -8.76383e-05
270 11.9797 5.63595 0.184149 0 0 0.999902 -0.000249521
276 12.6528 5.82577 0.865111 0 0 0.999915 -0.000298006
351 11.758 6.21857 1.05769 0 0 0.999897 -0.000224955
1114 13.2972 5.87425 1.56116 0 0 0.999929 -0.000337895
355 13.3248 6.58939 0.815677 0 0 0.999929 -0.000348472
274 13.2959 5.54545 0.0428571 0 0 0.999929 -0.00034278
280 14.0345 5.72128 0.77505 0 0 0.999947 -0.000384249
1197 14.2961 6.65685 1.41126 0 0 0.999953 -0.000400375
357 14.1017 6.39024 0.0386015 0 0 0.999948 -0.000395596
278 14.9972 5.64508 0.0352122 0 0 0.999973 -0.000422991
359 15.0156 6.45383 0.807942 0 0 0.999972 -0.000432168
284 15.7999 5.73834 0.957551 0 0 0.999995 -0.000441266
363 16.4586 6.45158 1.14092 0 0 1.00001 -0.000452762
1118 15.0756 5.87805 1.70003 0 0 0.999974 -0.000423494
282 16.5908 5.41803 0.276293 0 0 1.00002 -0.000439567
361 15.6448 6.3401 0.0399355 0 0 0.99999 -0.000448193
286 17.8001 5.29831 0.540475 0 0 1.00005 -0.000417144
288 17.0828 5.42232 1.24658 0 0 1.00003 -0.000434663
365 17.0324 6.27218 0.410809 0 0 1.00003 -0.000448209
367 17.6342 6.24208 1.38237 0 0 1.00004 -0.000431151
372 18.244 7.04571 1.13042 0 0 1.00006 -0.000417469
369 18.3444 6.22511 0.609082 0 0 1.00006 -0.000407483
290 19.4066 5.74964 0.618448 0 0 1.00009 -0.0003468
371 19.3018 6.5482 1.34484 0 0 1.00009 -0.000355727
373 19.9725 6.7412 0.607612 0 0 1.0001 -0.000313153
294 20.7336 5.76501 0.650511 0 0 1.00011 -0.000251029
296 20.1722 5.6005 1.39066 0 0 1.0001 -0.000292203
375 20.7608 6.59999 1.29748 0 0 1.00011 -0.000243841
377 21.6466 6.65003 0.663431 0 0 1.00012 -0.000169837
300 21.6506 5.86583 1.37829 0 0 1.00012 -0.000168512
16260 21.6796 5.7214 0.0518216 0 0 1.00012 -0.000172126
298 22.6675 5.81631 0.66994 0 0 1.00013 -8.08613e-05
379 22.6258 6.67927 1.20065 0 0 1.00013 -6.85869e-05
381 23.347 6.76645 0.266396 0 0 1.00014 -5.79975e-06
304 23.4815 5.87229 1.2933 0 0 1.00013 2.0751e-06
383 24.3246 6.54997 1.15293 0 0 1.00013 9.46705e-05
302 24.1485 5.99421 0.424993 0 0 1.00013 5.88626e-05
306 25.6951 5.85125 0.697288 0 0 1.00012 0.000194832
308 25.1212 6.02829 1.66942 0 0 1.00013 0.000163108
385 25.169 6.7285 0.492338 0 0 1.00013 0.000168352
387 25.8399 6.58307 1.40134 0 0 1.00012 0.000237238
312 26.7071 5.83544 1.47055 0 0 1.00011 0.000284285
310 27.5164 5.53568 0.719374 0 0 1.0001 0.000321462
389 26.7659 6.3558 0.648486 0 0 1.00011 0.000291917
391 27.7227 6.46343 1.36116 0 0 1.0001 0.000371352
316 28.3877 5.51532 1.48213 0 0 1.00008 0.000382678
390 27.7324 6.99842 0.527655 0 0 1.0001 0.000377578
314 29.4132 5.30433 0.816343 0 0 1.00006 0.00041345
395 29.4644 6.17782 1.31935 0 0 1.00006 0.000451305
394 29.6064 6.89556 0.505883 0 0 1.00006 0.000470999
393 28.4927 6.19943 0.637614 0 0 1.00008 0.000397992
16355 29.4015 6.14692 0.0789624 0 0 1.00006 0.000434677
16276 28.5045 5.38419 0.0579415 0 0 1.00008 0.000370852
318 30.991 5.36556 0.594431 0 0 1.00002 0.000459114
320 30.2434 5.45547 1.46495 0 0 1.00004 0.000455582
397 30.4233 6.17956 0.648197 0 0 1.00004 0.000473714
399 31.2479 6.15297 1.38341 0 0 1.00002 0.000500108
398 31.2308 6.95188 0.603545 0 0 1.00002 0.000517454
401 0.293998 7.63285 0.66119 0 0 0.999998 0.000550909
402 0.866563 8.46577 0.618365 0 0 0.999983 0.0005826
403 1.14437 7.86442 1.49795 0 0 0.999976 0.000575724
404 0.391257 8.56185 1.47021 0 0 0.999995 0.000605802
405 1.62467 7.76758 0.373222 0 0 0.999964 0.000545131
408 1.75862 8.62163 1.46675 0 0 0.999961 0.000598608
326 2.51578 7.15385 0.476559 0 0 0.999944 0.000502781
406 2.22571 8.6365 0.400729 0 0 0.999949 0.000566914
407 2.42527 7.81599 1.28049 0 0 0.999945 0.000544701
412 3.04537 8.52163 0.939172 0 0 0.99993 0.000545965
409 3.27179 7.77675 0.32835 0 0 0.999927 0.000498208
410 3.84077 8.46722 0.0822007 0 0 0.999914 0.000498571
411 4.00604 7.67579 1.25089 0 0 0.999912 0.000475695
416 4.72819 8.26787 0.927545 0 0 0.999898 0.000451669
413 4.69393 7.64717 0.247899 0 0 0.999899 0.000421298
334 5.56722 7.06222 0.148542 0 0 0.999887 0.00034349
414 5.88803 8.35993 0.171695 0 0 0.99988 0.000364807
415 5.50348 7.60059 1.03613 0 0 0.999887 0.000377779
417 6.50677 7.55107 0.170396 0 0 0.999875 0.000287001
420 6.41246 8.2501 1.05031 0 0 0.999875 0.000330261
419 7.29545 7.78214 0.75143 0 0 0.999869 0.000231787
424 8.28843 8.32851 0.875478 0 0 0.999864 0.00015474
1258 7.28897 8.19696 1.71185 0 0 0.999868 0.000272717
1261 8.05711 7.50254 1.56989 0 0 0.999866 0.000170454
421 8.00351 7.61687 0.028681 0 0 0.999866 0.000152499
348 9.83437 7.23524 0.728744 0 0 0.999872 -3.32546e-05
423 8.91073 7.63023 0.66655 0 0 0.999866 6.78644e-05
428 9.72502 8.6338 0.699215 0 0 0.999869 4.24608e-06
1262 9.08991 8.71435 1.45648 0 0 0.999865 9.93209e-05
1265 9.63542 7.90413 1.61107 0 0 0.999869 2.12538e-05
352 11.2976 7.15504 0.815109 0 0 0.999889 -0.000178778
427 10.5603 7.95835 0.85013 0 0 0.999878 -9.47826e-05
1266 10.5738 8.7181 1.43717 0 0 0.999877 -6.62606e-05
1269 11.3861 7.82009 1.61262 0 0 0.999889 -0.000164593
429 11.2097 8.13123 0.0434123 0 0 0.999886 -0.000169322
356 12.6814 7.29434 0.569515 0 0 0.999914 -0.000304676
431 12.1543 8.2453 0.595576 0 0 0.999902 -0.0002549
1190 12.0441 7.16982 1.3857 0 0 0.999901 -0.000240627
1270 12.0638 8.69331 1.50108 0 0 0.9999 -0.000222136
1273 12.8314 8.00747 1.48402 0 0 0.999916 -0.000300565
360 14.3026 7.35952 0.586905 0 0 0.999953 -0.000412869
435 13.586 8.1014 0.468545 0 0 0.999934 -0.000374476
1194 13.431 7.34818 1.34838 0 0 0.999931 -0.000352571
1277 14.2142 8.18774 1.3579 0 0 0.99995 -0.000402028
439 15.035 8.29602 0.867278 0 0 0.999972 -0.000448516
362 16.4002 7.18356 0.278162 0 0 1.00001 -0.00046605
364 15.5952 7.31197 0.921584 0 0 0.999988 -0.00045645
443 16.2248 8.15971 1.11142 0 0 1.00001 -0.000468543
1198 15.1086 7.52579 1.63043 0 0 0.999974 -0.000435426
441 15.829 8.31409 0.153148 0 0 0.999995 -0.000475029
368 16.9436 7.35866 1.11567 0 0 1.00003 -0.00045949
445 17.0321 8.10219 0.339539 0 0 1.00003 -0.000470899
447 17.6716 8.01897 1.02608 0 0 1.00005 -0.000447539
366 17.7857 7.16189 0.214239 0 0 1.00005 -0.000441817
370 18.9786 7.3292 0.64059 0 0 1.00008 -0.000383977
451 18.8982 8.14388 1.18067 0 0 1.00008 -0.00038621
376 19.8472 7.64552 1.31988 0 0 1.0001 -0.000317395
453 19.7789 8.13019 0.358817 0 0 1.0001 -0.000331604
449 18.4191 8.18261 0.170646 0 0 1.00007 -0.00042304
374 20.6805 7.44836 0.668815 0 0 1.00011 -0.000254461
455 20.6271 8.42653 1.02971 0 0 1.00011 -0.000251167
380 21.5282 7.65859 1.14296 0 0 1.00012 -0.000167496
457 21.5985 8.33056 0.257187 0 0 1.00013 -0.000163645
459 22.5806 8.16361 1.01337 0 0 1.00013 -5.33532e-05
1218 22.4098 7.48559 1.74881 0 0 1.00013 -6.74436e-05
378 22.3287 7.47061 0.383849 0 0 1.00013 -9.80006e-05
384 23.4445 7.30794 1.04599 0 0 1.00014 2.06217e-05
461 23.488 8.0615 0.38347 0 0 1.00014 3.26525e-05
463 24.3497 8.0867 0.995646 0 0 1.00014 0.000130577
1302 24.2585 8.70352 1.67738 0 0 1.00014 0.000158661
382 24.344 7.31178 0.267855 0 0 1.00014 0.000101897
462 24.3199 8.81167 0.207705 0 0 1.00014 0.000136151
388 25.1269 7.38115 1.2483 0 0 1.00013 0.00019326
467 26.0367 7.99352 0.983902 0 0 1.00012 0.000288502
1306 26.0364 8.61467 1.74777 0 0 1.00012 0.000334101
386 26.1067 7.26613 0.366533 0 0 1.00012 0.000263146
465 25.2401 8.11818 0.306205 0 0 1.00013 0.000210643
466 26.2907 8.57371 0.0887269 0 0 1.00012 0.000318912
392 26.8028 7.10107 1.33769 0 0 1.00011 0.000329446
470 27.9903 8.49573 0.42653 0 0 1.00009 0.000446151
471 27.8214 7.82803 1.21001 0 0 1.0001 0.000424262
472 26.999 8.64407 1.02067 0 0 1.00011 0.000392047
469 27.017 7.77272 0.432373 0 0 1.00011 0.000352269
396 28.6775 7.10514 1.2269 0 0 1.00008 0.000446927
474 29.6256 8.34987 0.542895 0 0 1.00006 0.000526001
475 29.5277 7.67253 1.27415 0 0 1.00006 0.00050751
476 28.809 8.55101 1.18239 0 0 1.00008 0.000507768
473 28.7229 7.71234 0.414721 0 0 1.00008 0.000459897
400 30.3555 7.0879 1.17821 0 0 1.00004 0.000511795
479 31.2829 7.82169 1.3004 0 0 1.00002 0.00056318
480 30.4635 8.48785 1.18278 0 0 1.00004 0.000569967
477 30.6686 7.8701 0.379945 0 0 1.00003 0.000538531
478 31.4592 8.62082 0.390608 0 0 1.00001 0.000582121
482 1.15767 10.2854 0.273769 0 0 0.999975 0.000649126
483 1.05048 9.37746 1.20632 0 0 0.999978 0.000631511
484 0.290967 9.92991 0.898697 0 0 0.999997 0.000646774
481 0.403374 9.33647 0.122925 0 0 0.999995 0.000614028
1322 0.848896 10.1279 1.75364 0 0 0.999983 0.000684479
485 1.79031 9.45025 0.452289 0 0 0.999959 0.000609872
488 1.86169 10.3752 0.971552 0 0 0.999957 0.000654466
486 2.62505 10.2807 0.0844034 0 0 0.999938 0.000617596
487 2.40765 9.45071 1.22502 0 0 0.999944 0.000611691
1326 2.8047 10.2398 1.66975 0 0 0.999935 0.000650331
1329 3.23239 9.24463 1.65919 0 0 0.999926 0.000591652
489 3.1036 9.37579 0.0815235 0 0 0.999928 0.000567004
492 3.40931 10.0412 0.734495 0 0 0.999921 0.000587967
491 3.95988 9.11732 0.857864 0 0 0.999911 0.000528323
493 4.60099 9.1905 0.00743248 0 0 0.999898 0.000484408
496 4.63192 9.98634 0.573462 0 0 0.999897 0.000518707
1330 4.14975 9.97971 1.62288 0 0 0.999907 0.000579837
1333 4.69847 9.07718 1.65526 0 0 0.999898 0.00051086
495 5.35094 8.95554 0.662727 0 0 0.999887 0.000432502
500 6.25688 9.80507 0.516458 0 0 0.999873 0.000390538
1334 5.33545 9.84229 1.16706 0 0 0.999886 0.000480429
1337 6.17002 9.06474 1.26342 0 0 0.999876 0.000388829
1417 6.25464 10.522 1.19134 0 0 0.999873 0.00043729
499 7.17691 8.89351 0.714309 0 0 0.999867 0.000279915
501 8.10037 9.06037 0.081769 0 0 0.999864 0.00018514
504 7.96573 9.93772 0.579719 0 0 0.999862 0.000230813
1338 7.19046 9.75032 1.19782 0 0 0.999866 0.00032207
1341 8.05104 9.18076 1.40611 0 0 0.999863 0.000224028
503 8.93874 9.46745 0.731238 0 0 0.999863 0.00011556
508 9.63871 10.3496 0.662812 0 0 0.999866 5.82612e-05
1342 8.75134 10.2799 1.4142 0 0 0.999862 0.00018673
1345 9.82283 9.60337 1.41926 0 0 0.999868 4.12615e-05
432 11.3549 8.8597 0.735925 0 0 0.999888 -0.000166744
426 10.3911 8.89856 0.0404657 0 0 0.999875 -6.98007e-05
507 10.4513 9.69463 0.659197 0 0 0.999874 -5.24731e-05
1346 10.6183 10.1827 1.642 0 0 0.999875 -2.33552e-05
1349 11.2842 9.64659 1.32235 0 0 0.999886 -0.000128551
436 12.9754 8.97296 0.7895 0 0 0.999919 -0.000321523
511 12.0832 9.82453 0.689471 0 0 0.999899 -0.000230499
516 12.7904 10.4836 0.963336 0 0 0.999913 -0.000286129
1353 12.5177 9.62579 1.6172 0 0 0.999908 -0.000246313
1274 13.6566 8.85187 1.57198 0 0 0.999935 -0.000356177
440 14.4326 9.20184 0.761423 0 0 0.999955 -0.000424902
515 13.4995 9.68937 0.838341 0 0 0.99993 -0.000358378
1354 13.4631 10.4189 1.71265 0 0 0.999928 -0.000315158
517 14.2378 10.1559 0.215771 0 0 0.999949 -0.000419565
1278 15.0159 9.07088 1.76291 0 0 0.999971 -0.000426935
444 15.8637 9.15997 1.13653 0 0 0.999995 -0.000468829
519 15.0957 9.86199 1.01225 0 0 0.999973 -0.0004499
521 15.6538 10.1819 0.251705 0 0 0.999989 -0.000480826
523 16.4697 9.95836 0.961648 0 0 1.00001 -0.000477087
442 16.4751 9.03242 0.260343 0 0 1.00001 -0.000483718
438 15.2639 9.20854 0.0954731 0 0 0.999978 -0.00046682
452 18.2695 8.8933 0.94257 0 0 1.00006 -0.0004266
448 17.0596 9.06748 1.12771 0 0 1.00003 -0.000466809
525 17.1206 10.0249 0.206748 0 0 1.00003 -0.000481096
527 17.7423 9.86753 1.07192 0 0 1.00005 -0.000447857
446 17.7331 9.10594 0.116821 0 0 1.00005 -0.00045988
456 19.7989 8.9539 1.06335 0 0 1.0001 -0.00031785
529 18.57 9.73007 0.299793 0 0 1.00007 -0.000417844
531 19.4823 9.89311 0.850872 0 0 1.00009 -0.00034591
532 18.6936 10.4523 1.14509 0 0 1.00007 -0.000391749
1369 18.6263 9.58317 1.71016 0 0 1.00007 -0.000383066
450 19.2188 8.95734 0.210815 0 0 1.00009 -0.00037673
533 19.9692 9.78173 0.0725974 0 0 1.0001 -0.000311351
535 20.9166 9.80439 0.752169 0 0 1.00012 -0.000211391