ITEM: TIMESTEP
33500
ITEM: NUMBER OF ATOMS
32000
ITEM: BOX BOUNDS pp pp pp
0.0000000000000000e+00 3.1748021039364001e+01
0.0000000000000000e+00 3.1748021039364001e+01
0.0000000000000000e+00 3.1748021039364001e+01
ITEM: ATOMS id x y z c_phase c_nbond c_rho vx
4 0.44921 1.09429 0.475016 0 0 1.00004 0.00202868
83 1.30855 1.66555 0.787501 0 0 1.00004 0.00207709
842 1.05862 0.78917 1.40649 0 0 1.00004 0.00206189
921 0.348551 1.59442 1.38475 0 0 1.00004 0.00205876
3 1.06418 0.073478 0.627749 0 0 1.00004 0.00203722
841 0.174891 0.269075 1.25725 0 0 1.00004 0.00201991
8 2.04903 0.829971 1.01446 0 0 1.00004 0.00207188
85 2.1428 1.49504 0.209921 0 0 1.00004 0.00207865
925 2.18491 1.66072 1.75377 0 0 1.00004 0.00211962
6 2.84449 0.744099 0.2041 0 0 1.00004 0.00206299
7 2.91001 0.0613488 1.04154 0 0 1.00004 0.00206789
87 2.97636 1.54919 0.878333 0 0 1.00004 0.0020918
846 3.01522 0.830008 1.74217 0 0 1.00004 0.00209752
12 3.74652 0.928672 0.972138 0 0 1.00003 0.00206937
849 3.81057 0.0855652 1.72414 0 0 1.00003 0.00207998
929 3.93245 1.71594 1.726 0 0 1.00003 0.00211297
10 4.42297 0.864151 0.321226 0 0 1.00003 0.00204228
850 4.63751 0.951333 1.65361 0 0 1.00003 0.00206888
9 3.78271 0.102245 0.180074 0 0 1.00003 0.00204705
93 5.21803 1.61245 0.391628 0 0 1.00003 0.00203809
16 5.27123 0.570993 1.16579 0 0 1.00003 0.00202306
14 5.92625 0.649283 0.321348 0 0 1.00003 0.0019802
95 6.15876 1.33159 0.965048 0 0 1.00003 0.0019935
854 6.07077 0.463765 1.72452 0 0 1.00003 0.00200225
933 5.31801 1.72861 1.4541 0 0 1.00003 0.00206075
97 6.83039 1.41671 0.223117 0 0 1.00003 0.00194586
20 6.96322 0.406027 0.887424 0 0 1.00003 0.00192543
937 6.94945 1.0291 1.72116 0 0 1.00003 0.00196204
99 7.60128 1.24685 0.965124 0 0 1.00003 0.00190027
941 8.34615 1.29294 1.64135 0 0 1.00002 0.00186682
18 7.80444 0.667054 0.156104 0 0 1.00003 0.00186134
101 8.45114 1.41244 0.241873 0 0 1.00002 0.0018309
24 8.46604 0.419585 1.08459 0 0 1.00002 0.00182171
22 9.0383 0.517213 0.269141 0 0 1.00002 0.00176285
28 9.71828 0.339942 0.913501 0 0 1.00002 0.00171142
103 9.20317 1.33093 1.12019 0 0 1.00002 0.00178176
105 9.79658 1.3883 0.0998546 0 0 1.00002 0.0017167
32 11.3159 0.220014 0.652679 0 0 1.00002 0.00156316
107 10.5027 1.06932 0.841648 0 0 1.00002 0.00165284
866 10.6534 0.205432 1.47416 0 0 1.00002 0.00164242
949 11.4034 1.03075 1.44282 0 0 1.00002 0.00158566
946 10.7157 1.7107 1.75502 0 0 1.00002 0.00168135
26 10.3829 0.372488 0.0809047 0 0 1.00002 0.00164336
36 12.9423 0.219366 0.65085 0 0 1.00002 0.00141941
111 12.1242 1.0906 0.523873 0 0 1.00002 0.00150171
870 12.2144 0.321115 1.32598 0 0 1.00002 0.00149839
953 12.7914 1.20955 1.39719 0 0 1.00002 0.00146464
40 14.4063 0.333946 0.790518 0 0 1.00002 0.00130698
115 13.6362 1.12225 0.856784 0 0 1.00002 0.0013796
117 14.0856 1.5726 0.161244 0 0 1.00002 0.00134834
874 13.6622 0.366031 1.65661 0 0 1.00002 0.00138601
957 14.4142 1.16493 1.49772 0 0 1.00002 0.00133752
119 14.907 1.56465 0.67177 0 0 1.00002 0.00129617
38 15.1203 0.714284 0.0676836 0 0 1.00003 0.00125661
44 15.7244 0.767049 0.792684 0 0 1.00003 0.00122927
123 16.5582 1.54458 0.686072 0 0 1.00003 0.00120801
878 15.1653 0.467509 1.65326 0 0 1.00002 0.00127984
882 16.5539 0.71007 1.34858 0 0 1.00003 0.00120235
961 15.6468 1.49871 1.40324 0 0 1.00003 0.00126581
48 17.2679 0.728761 0.55705 0 0 1.00003 0.00116346
127 17.9349 1.57924 0.754993 0 0 1.00003 0.00117211
886 17.9266 0.742942 1.42435 0 0 1.00003 0.00116713
965 17.231 1.74565 1.56535 0 0 1.00003 0.00121196
51 19.561 0.0115464 0.661193 0 0 1.00004 0.00114828
52 18.8068 0.724121 0.68513 0 0 1.00003 0.00114618
131 19.5677 1.5413 0.836787 0 0 1.00004 0.00117458
889 19.0418 0.151922 1.53894 0 0 1.00003 0.00115994
890 19.6238 0.959762 1.68162 0 0 1.00004 0.00118194
969 18.6823 1.49974 1.49506 0 0 1.00003 0.00118074
55 21.16 0.344492 1.05762 0 0 1.00004 0.00120657
56 20.2866 0.768941 0.967847 0 0 1.00004 0.00117699
135 21.1638 1.62702 0.947507 0 0 1.00004 0.00123094
54 21.2424 0.75702 0.213755 0 0 1.00004 0.00120513
133 20.3867 1.49755 0.198613 0 0 1.00004 0.00118698
973 20.3717 1.76346 1.71475 0 0 1.00004 0.00122433
57 22.0915 0.264793 0.531564 0 0 1.00004 0.00124824
59 22.9026 0.422801 1.38478 0 0 1.00004 0.00131899
60 22.1999 1.1346 1.31342 0 0 1.00004 0.00128233
137 22.0789 1.58 0.523424 0 0 1.00004 0.00127166
58 23.0216 1.0471 0.448911 0 0 1.00004 0.00132047
63 24.3978 0.373318 1.41282 0 0 1.00005 0.00143942
61 23.6971 0.347894 0.567792 0 0 1.00004 0.00136348
62 24.592 1.16071 0.740591 0 0 1.00005 0.0014536
64 23.6126 1.22294 1.37855 0 0 1.00005 0.00138782
65 25.1335 0.311267 0.539767 0 0 1.00005 0.00148696
67 26.2134 0.371495 1.15503 0 0 1.00005 0.00159519
68 25.3526 1.10873 1.44813 0 0 1.00005 0.00153768
147 26.1431 1.71024 1.33338 0 0 1.00005 0.00162426
66 26.0957 0.923552 0.419405 0 0 1.00005 0.00158057
70 27.832 1.26634 0.380131 0 0 1.00005 0.00174621
71 27.87 0.495469 0.864277 0 0 1.00005 0.00174105
72 26.9861 1.01385 1.24002 0 0 1.00005 0.00167914
69 27.0194 0.238574 0.231008 0 0 1.00005 0.00165375
913 28.6656 0.342181 1.40043 0 0 1.00005 0.00181845
76 28.9336 1.2158 0.723348 0 0 1.00005 0.00183991
914 29.6757 0.955809 1.55639 0 0 1.00005 0.00191029
993 28.8019 1.70779 1.49084 0 0 1.00005 0.00186291
75 29.5688 0.350589 0.612902 0 0 1.00005 0.00187103
917 30.1378 0.162105 1.44501 0 0 1.00005 0.00192878
79 31.0371 0.468491 0.481458 0 0 1.00004 0.00196455
80 30.4042 1.18692 0.767428 0 0 1.00005 0.00194569
918 31.1838 0.967468 1.38599 0 0 1.00004 0.00199941
82 1.45178 2.43709 0.119416 0 0 1.00004 0.00210783
84 0.477433 2.37727 0.806514 0 0 1.00004 0.00208309
163 1.63537 3.22868 0.944528 0 0 1.00004 0.00216962
922 1.48794 2.36667 1.59169 0 0 1.00004 0.00213514
1001 0.735766 3.03631 1.54954 0 0 1.00004 0.00215193
161 0.676489 3.10385 0.129834 0 0 1.00004 0.00212412
88 2.25712 2.41862 0.79011 0 0 1.00004 0.00212642
167 3.00075 3.2947 0.861894 0 0 1.00004 0.00218325
926 3.0187 2.25401 1.55286 0 0 1.00004 0.00214094
86 3.0561 2.39779 0.0547226 0 0 1.00004 0.00211947
1005 2.46157 3.10956 1.76282 0 0 1.00004 0.00219932
1009 3.61524 3.43322 1.66493 0 0 1.00003 0.00221373
92 3.71451 2.57635 0.793504 0 0 1.00003 0.00213012
91 4.32401 1.84778 0.721877 0 0 1.00003 0.00208021
171 4.52701 3.34596 0.763579 0 0 1.00003 0.00215949
930 4.47096 2.66344 1.59614 0 0 1.00003 0.00214175
96 5.21344 2.59051 0.831152 0 0 1.00003 0.00209071
94 5.93797 2.47438 0.142152 0 0 1.00003 0.00204185
175 5.95249 3.23394 0.971587 0 0 1.00003 0.00210038
934 6.14631 2.23284 1.51397 0 0 1.00003 0.00204712
173 5.29821 3.35932 0.00767217 0 0 1.00003 0.00212679
1017 6.81117 3.10691 1.57403 0 0 1.00003 0.00206268
100 6.82396 2.21415 0.792239 0 0 1.00003 0.00198661
177 6.91116 2.97785 0.134692 0 0 1.00003 0.0020159
98 7.69009 2.25975 0.141987 0 0 1.00003 0.00192327
104 8.31084 2.23425 0.952744 0 0 1.00002 0.00188673
179 7.65481 3.10601 0.941372 0 0 1.00002 0.00198716
938 7.54874 2.09432 1.59496 0 0 1.00003 0.00195634
1021 8.42077 3.04456 1.68201 0 0 1.00002 0.00194995
181 8.49396 3.0128 0.0442835 0 0 1.00002 0.00190466
102 9.10127 2.12781 0.257614 0 0 1.00002 0.00180599
108 9.94209 2.05524 1.12241 0 0 1.00002 0.00174534
183 9.12864 3.01659 0.951491 0 0 1.00002 0.00186569
942 9.22592 2.25752 1.73935 0 0 1.00002 0.00183879
185 9.74535 2.95251 0.214227 0 0 1.00002 0.00179568
106 10.4312 2.14494 0.213411 0 0 1.00002 0.00168988
112 11.2785 1.8598 0.787602 0 0 1.00002 0.00160797
187 10.7667 2.84861 0.938358 0 0 1.00002 0.00170795
1029 11.5647 2.87504 1.61165 0 0 1.00002 0.00166038
116 12.7494 1.96565 0.60949 0 0 1.00002 0.00147704
191 12.0319 2.68376 0.754363 0 0 1.00002 0.00157897
950 12.028 1.94841 1.49275 0 0 1.00002 0.0015612
1033 12.933 3.05648 1.71911 0 0 1.00002 0.00155225
195 13.268 3.05608 0.854225 0 0 1.00002 0.00149408
954 13.4446 2.01619 1.50127 0 0 1.00002 0.00144166
114 13.4736 2.3235 0.0582651 0 0 1.00002 0.00142766
120 14.0706 2.46926 0.933491 0 0 1.00002 0.00139806
1037 14.0914 3.41954 1.57662 0 0 1.00002 0.00147439
199 14.7466 3.46058 0.88795 0 0 1.00002 0.00140741
958 14.8302 2.31999 1.45302 0 0 1.00002 0.00135
118 14.8747 2.52753 0.14043 0 0 1.00002 0.00133343
197 14.2077 3.2488 0.0416684 0 0 1.00002 0.00142225
124 15.7185 2.44914 0.703977 0 0 1.00003 0.00128423
203 16.3336 3.20835 0.676596 0 0 1.00003 0.00129462
962 16.3304 2.48314 1.53139 0 0 1.00003 0.00127581
1041 15.4175 3.27432 1.5173 0 0 1.00002 0.0013695
201 15.6004 3.27421 0.0268072 0 0 1.00003 0.00133077
128 17.0823 2.3552 0.685286 0 0 1.00003 0.00122037
207 17.9654 2.92187 0.703389 0 0 1.00003 0.00122889
966 18.0378 2.4288 1.58343 0 0 1.00003 0.00122453
1045 17.1145 3.11479 1.50144 0 0 1.00003 0.00127943
132 18.916 2.34641 1.00741 0 0 1.00003 0.00120085
211 19.7403 3.21119 1.26557 0 0 1.00004 0.00126315
209 18.9102 2.98149 0.191197 0 0 1.00003 0.00122182
130 19.6239 2.31723 0.104717 0 0 1.00004 0.00119703
134 21.228 2.39097 0.450133 0 0 1.00004 0.00125553
136 20.2446 2.43941 1.10027 0 0 1.00004 0.00123055
215 21.392 3.25953 1.36792 0 0 1.00004 0.00132869
213 20.473 2.96889 0.328038 0 0 1.00004 0.00125257
139 22.9916 2.02936 1.49136 0 0 1.00004 0.00136801
138 23.088 2.56586 0.721003 0 0 1.00004 0.00138209
140 22.1837 2.46264 1.22108 0 0 1.00004 0.00132679
217 22.0797 3.16085 0.592202 0 0 1.00004 0.00134497
16179 22.8044 3.35089 0.0633308 0 0 1.00004 0.00139894
141 23.8772 1.78125 0.612919 0 0 1.00005 0.00141022
143 24.5908 1.9545 1.57474 0 0 1.00005 0.00150048
142 24.5077 2.64019 0.760288 0 0 1.00005 0.00150345
144 23.8346 2.85027 1.50866 0 0 1.00005 0.00147693
223 24.657 3.45782 1.52718 0 0 1.00005 0.00158586
16108 25.142 2.79207 0.0128762 0 0 1.00005 0.00156257
145 25.3167 1.82507 0.508491 0 0 1.00005 0.0015362
146 26.0072 2.56888 0.690892 0 0 1.00005 0.00163496
148 25.3576 2.5213 1.49456 0 0 1.00005 0.00159141
227 25.9461 3.44365 1.48868 0 0 1.00005 0.00170373
229 26.414 3.45259 0.582802 0 0 1.00005 0.00172549
149 26.7794 1.76596 0.50487 0 0 1.00005 0.00166907
152 26.7719 2.52842 1.50299 0 0 1.00005 0.00172508
151 27.762 1.95746 1.21296 0 0 1.00005 0.0017794
150 27.3425 2.6536 0.625589 0 0 1.00005 0.00176252
231 27.4804 3.30682 1.39225 0 0 1.00005 0.00183423
233 28.2661 3.18732 0.332062 0 0 1.00005 0.00187084
153 28.533 2.0661 0.339814 0 0 1.00005 0.00183368
156 28.5405 2.72031 1.18275 0 0 1.00005 0.00188243
155 29.7442 2.0091 0.878422 0 0 1.00005 0.00193141
154 29.4967 2.65493 0.281899 0 0 1.00005 0.00193742
235 29.5742 3.22436 1.17393 0 0 1.00005 0.00199432
997 30.2867 1.79068 1.69258 0 0 1.00005 0.00198286
159 31.2413 1.96334 0.919201 0 0 1.00004 0.00202372
160 30.5067 2.68909 0.994533 0 0 1.00005 0.00201878
239 31.3737 3.31637 0.972081 0 0 1.00004 0.00210577
998 31.3272 2.67539 1.72142 0 0 1.00004 0.002088
237 30.4556 3.21611 0.154885 0 0 1.00005 0.00203584
157 30.7204 1.89202 0.0380831 0 0 1.00005 0.00198065
158 31.4761 2.64255 0.0763967 0 0 1.00004 0.00205794
164 0.655243 3.77323 0.919832 0 0 1.00004 0.0021803
241 0.515522 4.59593 0.466738 0 0 1.00004 0.0022357
243 1.50627 4.66431 0.990025 0 0 1.00004 0.00228098
244 0.487451 5.25386 1.27127 0 0 1.00004 0.00231603
162 1.40563 3.8557 0.0768525 0 0 1.00004 0.00219719
168 2.22277 4.04758 0.855717 0 0 1.00004 0.00223656
247 2.91567 4.87813 1.13203 0 0 1.00004 0.00232052
166 3.01207 4.16114 0.201001 0 0 1.00004 0.00223933
245 2.27633 4.96663 0.286919 0 0 1.00004 0.00230851
249 3.7777 4.88449 0.167572 0 0 1.00003 0.00229491
172 3.83712 4.10467 0.898279 0 0 1.00003 0.0022359
251 4.41984 4.91449 1.16491 0 0 1.00003 0.0023041
170 4.59214 4.20888 0.146886 0 0 1.00003 0.00221696
176 5.24295 4.04801 1.18193 0 0 1.00003 0.00220033
253 5.34675 4.78695 0.337248 0 0 1.00003 0.00224345
174 6.06723 3.98254 0.192178 0 0 1.00003 0.00213859
255 6.02421 4.77526 1.05264 0 0 1.00003 0.00222597
180 6.79343 3.82204 0.797999 0 0 1.00003 0.00209305
1097 6.96828 4.58025 1.68256 0 0 1.00003 0.00217884
260 6.97878 5.20494 0.895238 0 0 1.00003 0.00220949
259 7.6796 4.5223 0.568249 0 0 1.00002 0.00208943
1018 7.67357 3.92234 1.53263 0 0 1.00002 0.00206722
184 8.44218 3.93923 0.724263 0 0 1.00002 0.00198502
1101 8.46047 4.67691 1.51996 0 0 1.00002 0.00207393
263 9.29811 4.63348 0.842845 0 0 1.00002 0.0019777
1022 9.28278 3.82538 1.53559 0 0 1.00002 0.0019318
182 9.19852 3.92349 0.0642225 0 0 1.00002 0.00191359
265 10.0498 4.58061 0.133384 0 0 1.00002 0.00189451
188 10.0741 3.63812 0.907965 0 0 1.00002 0.00182558
1105 10.0728 4.41972 1.6987 0 0 1.00002 0.00192151
192 11.5369 3.69596 0.809034 0 0 1.00002 0.00169284
267 10.7593 4.7228 0.930699 0 0 1.00002 0.00185669
269 11.5279 4.75909 0.231105 0 0 1.00002 0.00177516
1026 10.8616 3.62958 1.6268 0 0 1.00002 0.00177739
1109 11.5105 4.45116 1.74073 0 0 1.00002 0.00179312
186 10.7457 3.90049 0.178318 0 0 1.00002 0.00177246
196 12.6024 3.63794 0.830817 0 0 1.00002 0.00159263
271 12.3059 4.60954 1.02245 0 0 1.00002 0.00170551
1113 12.8708 5.04677 1.72402 0 0 1.00002 0.00172551
275 13.3196 4.7444 0.816583 0 0 1.00002 0.00162095
273 12.7381 4.67231 0.0624472 0 0 1.00002 0.00165561
200 14.0608 4.16164 0.709771 0 0 1.00002 0.00150691
1034 13.5716 4.26547 1.61938 0 0 1.00002 0.00158626
1117 14.28 5.15813 1.55071 0 0 1.00002 0.00160717
279 15.0041 5.04609 0.824314 0 0 1.00002 0.00151649
1038 15.0267 4.43993 1.61232 0 0 1.00002 0.00148859
277 14.2117 4.93871 0.0726414 0 0 1.00002 0.00155416
198 15.007 4.21579 0.104934 0 0 1.00002 0.00143467
204 15.7047 4.08362 0.930238 0 0 1.00002 0.0013927
281 15.915 4.78943 0.189712 0 0 1.00002 0.00142663
283 16.6309 4.58981 0.906127 0 0 1.00003 0.00138636
1042 16.3579 3.97081 1.69741 0 0 1.00003 0.00137653
1121 15.8683 5.06677 1.65759 0 0 1.00002 0.00149467
208 17.2976 3.82995 0.812229 0 0 1.00003 0.00130232
287 18.1196 4.47391 1.09393 0 0 1.00003 0.00134024
1046 17.9831 3.63012 1.65337 0 0 1.00003 0.00129813
285 17.4808 4.57203 0.0198763 0 0 1.00003 0.00134419
206 18.1646 3.83956 0.0649711 0 0 1.00003 0.00127694
212 18.9066 3.68821 0.949599 0 0 1.00003 0.0012752
289 18.8663 4.58659 0.359196 0 0 1.00003 0.00133086
291 19.7401 4.63662 1.083 0 0 1.00004 0.00135878
292 18.8342 5.24996 1.19175 0 0 1.00003 0.00140474
210 19.6417 3.73741 0.231539 0 0 1.00004 0.00127598
216 20.5 3.78286 1.21999 0 0 1.00004 0.00131924
295 20.9677 4.6673 1.37025 0 0 1.00004 0.00141057
297 21.6928 4.89372 0.789573 0 0 1.00004 0.00144928
214 21.1672 3.89001 0.505948 0 0 1.00004 0.00133907
293 20.2093 4.74346 0.341841 0 0 1.00004 0.00136475
219 22.9535 3.5724 1.3912 0 0 1.00005 0.00144842
220 22.0463 4.07801 1.28816 0 0 1.00004 0.00141911
299 22.614 5.09905 1.25064 0 0 1.00005 0.00153875
218 22.7475 4.28615 0.509898 0 0 1.00004 0.00146421
221 23.7262 3.57946 0.763555 0 0 1.00005 0.00149316
222 24.5215 4.26128 0.614039 0 0 1.00005 0.00160821
224 23.6299 4.47713 1.31043 0 0 1.00005 0.00156712
301 23.7184 4.99613 0.518756 0 0 1.00005 0.00159765
303 24.5688 5.212 1.39969 0 0 1.00005 0.00171664
305 25.0789 5.1728 0.551543 0 0 1.00005 0.00173659
228 25.2324 4.42217 1.58016 0 0 1.00005 0.00171561
225 25.2664 3.60894 0.776466 0 0 1.00005 0.0016319
307 25.9496 5.06339 1.31808 0 0 1.00005 0.00182911
232 26.6217 4.22486 1.34687 0 0 1.00005 0.00182141
226 25.763 4.33834 0.389151 0 0 1.00005 0.00172561
309 26.7787 4.90715 0.627415 0 0 1.00005 0.00187463
311 27.6332 4.80612 1.37458 0 0 1.00005 0.00196549
236 28.2603 3.92238 1.0892 0 0 1.00005 0.001936
230 27.3383 3.9828 0.569873 0 0 1.00005 0.00184805
313 28.597 4.68498 0.690425 0 0 1.00005 0.0020189
234 29.2486 3.73819 0.468006 0 0 1.00005 0.00199024
315 29.4221 4.47402 1.30246 0 0 1.00005 0.00208274
314 29.7451 5.26522 0.799596 0 0 1.00005 0.00216458
240 30.3382 4.01937 1.01937 0 0 1.00005 0.00210013
238 31.3836 3.96753 0.353911 0 0 1.00005 0.00214464
317 30.5668 4.65935 0.4675 0 0 1.00005 0.00215846
319 31.3515 4.58488 1.37828 0 0 1.00005 0.00221901
242 1.31316 5.52076 0.459978 0 0 1.00004 0.00234715
323 1.22186 6.19637 1.27582 0 0 1.00004 0.00243687
324 0.683235 6.91921 1.49051 0 0 1.00004 0.00251007
322 1.41088 6.932 0.566648 0 0 1.00004 0.00250202
321 0.393284 5.98762 0.449386 0 0 1.00004 0.00236509
248 1.94608 5.51353 1.37455 0 0 1.00004 0.00238583
328 2.14428 7.03258 1.25139 0 0 1.00004 0.00254734
325 2.29427 6.20991 0.509172 0 0 1.00004 0.00243557
327 2.69456 6.18073 1.41957 0 0 1.00004 0.00246267
246 3.07635 5.62074 0.277333 0 0 1.00004 0.00237368
252 3.51879 5.65522 1.30343 0 0 1.00004 0.00239995
332 3.67406 7.00257 1.16174 0 0 1.00004 0.00254059
329 3.80044 6.30417 0.493505 0 0 1.00003 0.00244029
250 4.56546 5.50422 0.332533 0 0 1.00003 0.0023388
331 4.5174 6.13607 1.2495 0 0 1.00003 0.00242992
330 4.4128 7.05461 0.236186 0 0 1.00003 0.00251006
336 5.17431 6.87002 1.18494 0 0 1.00003 0.00248881
333 5.20784 6.28776 0.334959 0 0 1.00003 0.00240081
256 5.30226 5.48645 1.32366 0 0 1.00003 0.00233773
254 6.10645 5.46586 0.302886 0 0 1.00003 0.00227357
335 6.04452 6.28894 0.98311 0 0 1.00003 0.00238059
337 6.72839 6.13107 0.153682 0 0 1.00003 0.00230773
1177 6.80926 6.06086 1.63922 0 0 1.00003 0.00234038
340 6.79741 6.94514 1.01758 0 0 1.00002 0.0024142
339 7.63344 6.22432 0.78007 0 0 1.00002 0.00227167
1098 7.69767 5.4829 1.53543 0 0 1.00002 0.00221408
344 8.32824 6.94178 0.750212 0 0 1.00002 0.00229953
1178 7.62625 6.93332 1.64715 0 0 1.00002 0.00239178
258 7.61833 5.42642 0.0432821 0 0 1.00002 0.00217571
264 8.47555 5.38926 0.719982 0 0 1.00002 0.00211725
1181 8.52201 6.19747 1.54291 0 0 1.00002 0.00223246
268 9.98234 5.40219 0.818752 0 0 1.00002 0.00199178
343 9.14949 6.27027 0.761421 0 0 1.00002 0.00215795
1102 9.29462 5.4079 1.63271 0 0 1.00002 0.00208659
1185 9.97782 6.2684 1.52172 0 0 1.00002 0.00211524
1182 9.36555 7.04995 1.51335 0 0 1.00002 0.00226181
345 9.98991 6.32093 0.101526 0 0 1.00002 0.00207882
262 9.24224 5.5482 0.0236888 0 0 1.00002 0.00206125
272 11.5506 5.34911 1.0234 0 0 1.00002 0.00184829
347 10.7915 6.10677 0.98413 0 0 1.00002 0.00199702
349 11.495 6.44715 0.080603 0 0 1.00002 0.00195237
346 10.7421 7.03776 0.151689 0 0 1.00002 0.00209003
1186 10.7016 7.02279 1.54747 0 0 1.00002 0.00214153
266 10.6732 5.65188 0.00669782 0 0 1.00002 0.00194331
270 12.1372 5.6894 0.19047 0 0 1.00002 0.00180955
276 12.8033 5.87433 0.885088 0 0 1.00002 0.00178235
351 11.938 6.29271 1.0828 0 0 1.00002 0.00191344
274 13.4179 5.59573 0.0452696 0 0 1.00002 0.00168265
1114 13.4452 5.92945 1.60134 0 0 1.00002 0.00175944
355 13.4777 6.63733 0.828775 0 0 1.00002 0.00180087
280 14.1527 5.76647 0.791477 0 0 1.00002 0.00165022
1197 14.4262 6.70005 1.44463 0 0 1.00002 0.00175566
357 14.2282 6.43626 0.0427436 0 0 1.00002 0.00170162
278 15.0833 5.66928 0.0405268 0 0 1.00002 0.00155849
359 15.1264 6.48821 0.819634 0 0 1.00002 0.00165253
284 15.8894 5.75743 0.961195 0 0 1.00002 0.00153191
363 16.5557 6.46635 1.15437 0 0 1.00002 0.00157614
1118 15.1875 5.90717 1.72068 0 0 1.00002 0.00162639
282 16.6661 5.42854 0.276773 0 0 1.00003 0.00144713
361 15.7469 6.36794 0.0461181 0 0 1.00002 0.00158497
286 17.8741 5.29772 0.539978 0 0 1.00003 0.00140141
288 17.1565 5.42612 1.25074 0 0 1.00003 0.00145145
365 17.1265 6.27976 0.41206 0 0 1.00003 0.00151245
367 17.7255 6.23828 1.37957 0 0 1.00003 0.00152038
372 18.3514 7.03381 1.13664 0 0 1.00003 0.0015822
369 18.4377 6.20807 0.611444 0 0 1.00003 0.00147962
290 19.501 5.71651 0.613836 0 0 1.00004 0.00143691
371 19.4056 6.516 1.32896 0 0 1.00003 0.00153635
373 20.0909 6.69518 0.601199 0 0 1.00004 0.00154397
294 20.8531 5.71506 0.638394 0 0 1.00004 0.00147647
296 20.2692 5.55856 1.37477 0 0 1.00004 0.00146256
375 20.8929 6.54557 1.27864 0 0 1.00004 0.00157984
377 21.7936 6.5914 0.653696 0 0 1.00004 0.00161021
300 21.786 5.80318 1.34932 0 0 1.00004 0.00155467
16260 21.8176 5.66677 0.0535006 0 0 1.00004 0.00151523
298 22.8287 5.75839 0.646412 0 0 1.00005 0.00159856
379 22.8054 6.60562 1.17341 0 0 1.00005 0.00169818
381 23.5461 6.68303 0.263026 0 0 1.00005 0.00174003
304 23.6734 5.80504 1.25609 0 0 1.00005 0.00168885
383 24.5582 6.47839 1.1334 0 0 1.00005 0.00183275
302 24.3531 5.91662 0.409035 0 0 1.00005 0.00173619
306 25.9552 5.78115 0.673584 0 0 1.00005 0.00187944
308 25.3654 5.94864 1.62285 0 0 1.00005 0.00187406
385 25.4236 6.64057 0.477676 0 0 1.00005 0.0019112
387 26.1342 6.51247 1.36885 0 0 1.00005 0.00199718
312 26.995 5.77173 1.43525 0 0 1.00005 0.00200335
310 27.8213 5.48208 0.698643 0 0 1.00005 0.00202665
389 27.063 6.29033 0.623939 0 0 1.00005 0.00203613
391 28.045 6.38981 1.33623 0 0 1.00005 0.00215998
390 28.0712 6.93423 0.509018 0 0 1.00005 0.00219503
392 27.1307 7.03354 1.29966 0 0 1.00005 0.00214665
316 28.717 5.46439 1.44445 0 0 1.00005 0.00212699
395 29.8218 6.14364 1.29819 0 0 1.00005 0.00227612
394 29.9818 6.87948 0.499038 0 0 1.00005 0.00234341
393 28.8349 6.15256 0.634133 0 0 1.00005 0.00218066
16355 29.749 6.09018 0.0729349 0 0 1.00005 0.00223675
16276 28.8229 5.34348 0.044098 0 0 1.00005 0.00209207
396 29.0402 7.04036 1.20141 0 0 1.00005 0.00231132
318 31.3556 5.33377 0.586623 0 0 1.00004 0.00226674
320 30.6041 5.41549 1.43465 0 0 1.00005 0.00225722
397 30.7859 6.15172 0.631567 0 0 1.00005 0.00231891
399 31.6244 6.12456 1.37012 0 0 1.00005 0.0023834
398 31.6366 6.92082 0.603974 0 0 1.00005 0.002447
400 30.7538 7.04675 1.16555 0 0 1.00005 0.00243032
401 0.715842 7.62961 0.648132 0 0 1.00004 0.00256084
402 1.32713 8.46935 0.600466 0 0 1.00004 0.00267341
403 1.57145 7.84586 1.48974 0 0 1.00004 0.00264284
404 0.8313 8.53644 1.45525 0 0 1.00005 0.00269999
478 0.153977 8.58433 0.3878 0 0 1.00005 0.00264194
405 2.05497 7.77017 0.384744 0 0 1.00004 0.00260443
408 2.21767 8.62883 1.46596 0 0 1.00004 0.00274309
326 2.91648 7.15555 0.471908 0 0 1.00004 0.0025431
406 2.68658 8.63162 0.402091 0 0 1.00004 0.00270872
407 2.85967 7.82992 1.29169 0 0 1.00004 0.00264558
412 3.50277 8.55185 0.959812 0 0 1.00004 0.00271421
409 3.68478 7.79321 0.335735 0 0 1.00004 0.00260742
410 4.27698 8.49995 0.0801277 0 0 1.00003 0.00267765
411 4.41979 7.68714 1.24377 0 0 1.00003 0.00260786
413 5.09875 7.70431 0.241209 0 0 1.00003 0.00256204
416 5.13866 8.32761 0.961619 0 0 1.00003 0.00265277
334 5.92871 7.10523 0.159469 0 0 1.00003 0.00246089
414 6.28178 8.42151 0.185396 0 0 1.00002 0.00259645
415 5.89348 7.64176 1.04454 0 0 1.00003 0.00254404
420 6.7928 8.28524 1.07946 0 0 1.00002 0.00257471
417 6.86218 7.62748 0.172575 0 0 1.00002 0.00247118
419 7.6496 7.84336 0.775283 0 0 1.00002 0.00245801
1258 7.65167 8.25505 1.74937 0 0 1.00002 0.00255677
421 8.32769 7.69539 0.0273235 0 0 1.00002 0.00237771
1261 8.39381 7.57854 1.61017 0 0 1.00002 0.00241148
424 8.60851 8.41205 0.907731 0 0 1.00002 0.00246104
423 9.2092 7.70784 0.689735 0 0 1.00002 0.00231791
428 10.0205 8.71039 0.729105 0 0 1.00002 0.00237033
1262 9.40463 8.79093 1.5085 0 0 1.00002 0.00247609
1265 9.94728 7.97896 1.65139 0 0 1.00002 0.00233626
348 10.086 7.30453 0.758342 0 0 1.00002 0.00219635
352 11.5047 7.22789 0.837366 0 0 1.00002 0.00205686
427 10.8203 8.02977 0.876477 0 0 1.00002 0.00221957
1266 10.8514 8.81373 1.49337 0 0 1.00001 0.00234743
1269 11.6151 7.90918 1.6552 0 0 1.00001 0.00217181
429 11.4475 8.20708 0.0492861 0 0 1.00002 0.00216091
356 12.8631 7.36693 0.592792 0 0 1.00002 0.00193512
431 12.3685 8.30546 0.624276 0 0 1.00001 0.00209574
1190 12.2616 7.24183 1.43 0 0 1.00002 0.00201343
1270 12.2945 8.77127 1.55469 0 0 1.00001 0.00220727
1273 13.0254 8.08265 1.52869 0 0 1.00001 0.00204962
350 12.0784 7.46299 0.00105616 0 0 1.00002 0.00201165
360 14.432 7.40466 0.620717 0 0 1.00002 0.00180151
435 13.7579 8.16272 0.49469 0 0 1.00002 0.0019437
1194 13.6095 7.40242 1.3915 0 0 1.00002 0.00190375
1277 14.3874 8.22635 1.39497 0 0 1.00002 0.00193483
439 15.1948 8.33218 0.883666 0 0 1.00002 0.00185747
362 16.5122 7.19654 0.287937 0 0 1.00002 0.0016327
364 15.7229 7.3357 0.924186 0 0 1.00002 0.00170745
443 16.3661 8.17682 1.12152 0 0 1.00002 0.00177423
1198 15.2449 7.56253 1.66841 0 0 1.00002 0.00180835
441 15.9572 8.32907 0.157856 0 0 1.00002 0.00178718
368 17.0601 7.3602 1.121 0 0 1.00003 0.00164974
445 17.1508 8.10944 0.332461 0 0 1.00003 0.00170468
447 17.8067 8.01506 1.03301 0 0 1.00003 0.00169378
366 17.8936 7.15941 0.222468 0 0 1.00003 0.00157895
370 19.1022 7.29833 0.629283 0 0 1.00003 0.00159018
451 19.0368 8.11579 1.16913 0 0 1.00003 0.00169859
376 19.988 7.59973 1.298 0 0 1.00004 0.00166131
453 19.9211 8.08413 0.356466 0 0 1.00004 0.00167956
449 18.5529 8.16346 0.182764 0 0 1.00003 0.00167459
374 20.8275 7.39481 0.651205 0 0 1.00004 0.00164308
455 20.7995 8.36567 1.00874 0 0 1.00004 0.00175763
380 21.7045 7.5893 1.1139 0 0 1.00004 0.00172451
457 21.7837 8.26194 0.254651 0 0 1.00004 0.0017765
459 22.7959 8.09038 0.981143 0 0 1.00005 0.00184839
1218 22.6094 7.40763 1.70419 0 0 1.00005 0.0017974
378 22.5164 7.39737 0.374251 0 0 1.00005 0.00173534
458 22.9743 8.79746 0.195877 0 0 1.00005 0.00191777
1298 22.6286 8.806 1.54845 0 0 1.00005 0.0019471
384 23.6657 7.23288 1.02842 0 0 1.00005 0.00182761
461 23.7183 7.98696 0.362853 0 0 1.00005 0.00189629
463 24.6147 7.99625 0.960042 0 0 1.00005 0.00199505
1302 24.5431 8.63069 1.6365 0 0 1.00006 0.00210044
382 24.5784 7.22798 0.265399 0 0 1.00005 0.00188909
462 24.5923 8.72104 0.199285 0 0 1.00005 0.00205387
1301 23.6093 7.95303 1.7443 0 0 1.00005 0.00194285
388 25.405 7.29754 1.20932 0 0 1.00005 0.00200493
467 26.3567 7.91835 0.959498 0 0 1.00006 0.00215627
1306 26.377 8.5327 1.69613 0 0 1.00006 0.00227313
386 26.3954 7.17968 0.361119 0 0 1.00005 0.00206044
465 25.5252 8.02215 0.30194 0 0 1.00005 0.00206821
466 26.6155 8.49603 0.0891346 0 0 1.00006 0.00222731
468 25.6079 8.75757 0.968026 0 0 1.00006 0.00217948
470 28.3642 8.42916 0.400419 0 0 1.00005 0.00238742
471 28.1919 7.75344 1.17775 0 0 1.00005 0.0023203
472 27.3631 8.57264 0.99337 0 0 1.00006 0.00233148
469 27.3522 7.70012 0.419157 0 0 1.00005 0.00221122
1310 28.2044 8.61222 1.74315 0 0 1.00006 0.00245613
474 30.0383 8.32427 0.530001 0 0 1.00005 0.00251063
475 29.9227 7.62648 1.25609 0 0 1.00005 0.00244546
476 29.2026 8.4876 1.1571 0 0 1.00005 0.00248768
473 29.1059 7.66623 0.404645 0 0 1.00005 0.00236378
479 31.7001 7.78459 1.28471 0 0 1.00005 0.00256978
480 30.8939 8.44667 1.1725 0 0 1.00005 0.00259892
477 31.0788 7.83762 0.379573 0 0 1.00005 0.00251628
482 1.64732 10.2771 0.263749 0 0 1.00004 0.00287447
483 1.52841 9.35122 1.1945 0 0 1.00004 0.00280082
484 0.775563 9.92278 0.904232 0 0 1.00005 0.0028292
481 0.865968 9.32638 0.125814 0 0 1.00005 0.00275091
1322 1.34973 10.1195 1.74817 0 0 1.00005 0.00291783
559 0.0035393 9.25344 1.12715 0 0 1.00005 0.00273386
485 2.25212 9.46478 0.44038 0 0 1.00004 0.00280132
488 2.35356 10.3569 0.977221 0 0 1.00004 0.00291488
486 3.09824 10.2937 0.0748674 0 0 1.00004 0.00288945
487 2.87697 9.45945 1.22132 0 0 1.00004 0.00283175
1326 3.29032 10.2534 1.6864 0 0 1.00004 0.00294889
489 3.56406 9.38352 0.101216 0 0 1.00004 0.00278898
1329 3.72052 9.27783 1.69638 0 0 1.00003 0.002835
492 3.88035 10.0763 0.762002 0 0 1.00003 0.00287497
491 4.40859 9.1514 0.875355 0 0 1.00003 0.00276645
1330 4.62555 10.0107 1.62896 0 0 1.00003 0.0029
493 5.03127 9.25048 0.00470757 0 0 1.00003 0.00274378
496 5.08111 10.0345 0.582996 0 0 1.00003 0.00284009
1333 5.14684 9.11683 1.67425 0 0 1.00003 0.00278595
495 5.76987 9.02442 0.67816 0 0 1.00003 0.00270195
500 6.67121 9.87 0.537339 0 0 1.00002 0.00275149
1334 5.79803 9.89939 1.22118 0 0 1.00003 0.00282347
1337 6.58554 9.14318 1.30264 0 0 1.00002 0.00270365
499 7.55046 8.96274 0.744818 0 0 1.00002 0.00259873
504 8.34982 10.019 0.603544 0 0 1.00002 0.00266025
1338 7.57762 9.82586 1.24421 0 0 1.00002 0.00272218
1341 8.41614 9.25567 1.45248 0 0 1.00002 0.00260909
501 8.45536 9.13842 0.0920995 0 0 1.00002 0.00254047
503 9.28031 9.54002 0.759076 0 0 1.00002 0.00253744
508 9.97736 10.418 0.701058 0 0 1.00001 0.00257526
1342 9.1244 10.3367 1.47331 0 0 1.00001 0.00268394
1345 10.1407 9.67298 1.48127 0 0 1.00001 0.00251852
432 11.5972 8.93537 0.764091 0 0 1.00001 0.00225003
426 10.6748 8.96837 0.0378491 0 0 1.00002 0.00232661
507 10.7553 9.76886 0.694187 0 0 1.00001 0.00242974
1346 10.9332 10.2746 1.70789 0 0 1.00001 0.00253623
1349 11.5843 9.71126 1.38564 0 0 1.00001 0.00238096
436 13.1673 9.02413 0.814693 0 0 1.00001 0.00211114
511 12.329 9.88608 0.721629 0 0 1.00001 0.00229102
516 13.0394 10.5517 0.995663 0 0 1.00001 0.00230797
1353 12.7821 9.70088 1.67729 0 0 1.00001 0.00228697
1274 13.8513 8.92754 1.61856 0 0 1.00001 0.00208531
440 14.605 9.23752 0.787757 0 0 1.00002 0.00200577
515 13.7177 9.76488 0.874354 0 0 1.00001 0.00214884
517 14.437 10.1911 0.231219 0 0 1.00001 0.00211039
444 16.0198 9.17981 1.15133 0 0 1.00002 0.00191302
519 15.2817 9.90749 1.04192 0 0 1.00002 0.00203993
521 15.8273 10.2013 0.254257 0 0 1.00002 0.00200254
523 16.637 9.97368 0.97768 0 0 1.00002 0.00195487
442 16.6141 9.05643 0.269467 0 0 1.00002 0.00183194
438 15.415 9.23723 0.120245 0 0 1.00002 0.00192486
448 17.2085 9.0649 1.1328 0 0 1.00002 0.00183676
525 17.287 10.0247 0.205304 0 0 1.00002 0.00190409
527 17.9081 9.85449 1.07158 0 0 1.00003 0.00189655
446 17.876 9.09706 0.122889 0 0 1.00003 0.00178586
452 18.4177 8.88146 0.942063 0 0 1.00003 0.00177468
456 19.9698 8.91018 1.03972 0 0 1.00004 0.00179192
529 18.7312 9.71294 0.302338 0 0 1.00003 0.00184031
531 19.6544 9.85964 0.848655 0 0 1.00004 0.00187876
532 18.8741 10.4353 1.13771 0 0 1.00003 0.00194848
1369 18.7943 9.56311 1.69668 0 0 1.00003 0.00189729
450 19.365 8.92653 0.21088 0 0 1.00003 0.00175769
533 20.1578 9.74003 0.0692934 0 0 1.00004 0.00185761
535 21.1233 9.75161 0.744167 0 0 1.00004 0.00191207
1373 20.4173 9.61545 1.63763 0 0 1.00004 0.0019232
454 20.9528 9.01382 0.196909 0 0 1.00004 0.00181203
1374 21.2954 10.0487 1.73568 0 0 1.00005 0.002017
460 21.8207 8.96203 0.951983 0 0 1.00005 0.00187466
539 23.0794 9.61873 0.784796 0 0 1.00005 0.00203125
540 22.348 10.4516 0.828704 0 0 1.00005 0.00206181
1377 22.1593 9.7187 1.49375 0 0 1.00005 0.00201277
1378 23.3176 10.4372 1.3962 0 0 1.00005 0.00217461
537 22.1854 9.73643 0.212482 0 0 1.00005 0.00195967
464 23.695 8.87074 0.939477 0 0 1.00005 0.00200713
543 24.8264 9.48338 0.741779 0 0 1.00006 0.00217569
1381 23.9868 9.53117 1.51015 0 0 1.00006 0.00214535
1382 24.7326 10.2572 1.41028 0 0 1.00006 0.00228739