ITEM: TIMESTEP
41000
ITEM: NUMBER OF ATOMS
32000
ITEM: BOX BOUNDS pp pp pp
0.0000000000000000e+00 3.1748021039364001e+01
0.0000000000000000e+00 3.1748021039364001e+01
0.0000000000000000e+00 3.1748021039364001e+01
ITEM: ATOMS id x y z c_phase c_nbond c_rho vx
4 0.622081 1.09193 0.479432 0 0 1.00005 0.00258348
83 1.48492 1.66436 0.791268 0 0 1.00005 0.00263682
842 1.23996 0.787541 1.40392 0 0 1.00005 0.00262038
921 0.527243 1.59246 1.38983 0 0 1.00005 0.00261255
3 1.24109 0.0759459 0.63163 0 0 1.00005 0.00259634
841 0.35045 0.270108 1.25824 0 0 1.00005 0.0025736
8 2.2293 0.837369 1.01371 0 0 1.00005 0.00263784
85 2.32311 1.50188 0.203609 0 0 1.00005 0.00264527
925 2.37176 1.65807 1.74883 0 0 1.00005 0.00268474
6 3.02126 0.739633 0.202391 0 0 1.00005 0.00263612
7 3.08424 0.0636048 1.0412 0 0 1.00005 0.00264138
87 3.15441 1.55088 0.874373 0 0 1.00005 0.00266552
846 3.19846 0.834261 1.73906 0 0 1.00005 0.0026711
5 2.23493 0.000424811 0.161281 0 0 1.00005 0.00261839
12 3.92298 0.922564 0.974983 0 0 1.00004 0.00265127
849 3.98501 0.0809347 1.72886 0 0 1.00004 0.00266236
929 4.11305 1.71667 1.72394 0 0 1.00004 0.00269541
10 4.60287 0.863678 0.318349 0 0 1.00004 0.00263183
850 4.80915 0.949336 1.65816 0 0 1.00004 0.00266046
9 3.95466 0.0989911 0.183913 0 0 1.00004 0.00262997
93 5.39703 1.61262 0.392754 0 0 1.00004 0.00263654
16 5.45258 0.572262 1.1579 0 0 1.00004 0.00262216
14 6.10222 0.64999 0.317368 0 0 1.00004 0.00258835
95 6.33162 1.33612 0.974173 0 0 1.00004 0.00260404
854 6.24897 0.464791 1.73075 0 0 1.00004 0.00261123
933 5.48989 1.72387 1.45859 0 0 1.00004 0.00266
97 6.99864 1.4236 0.223407 0 0 1.00004 0.00256523
20 7.13053 0.411222 0.893159 0 0 1.00004 0.00254698
937 7.12076 1.03486 1.7271 0 0 1.00004 0.0025821
99 7.76701 1.2542 0.965281 0 0 1.00004 0.00252955
18 7.96587 0.670746 0.162107 0 0 1.00004 0.00249404
941 8.51249 1.29597 1.6513 0 0 1.00003 0.00250534
101 8.61148 1.41716 0.241821 0 0 1.00003 0.00247131
24 8.62374 0.42322 1.08371 0 0 1.00004 0.00246277
22 9.1927 0.518053 0.262911 0 0 1.00003 0.00241126
28 9.87125 0.337953 0.923132 0 0 1.00003 0.00236748
103 9.35685 1.33553 1.11598 0 0 1.00003 0.00243106
105 9.94556 1.38568 0.10519 0 0 1.00003 0.00237348
32 11.4533 0.221059 0.660304 0 0 1.00003 0.00223625
107 10.6512 1.07613 0.846928 0 0 1.00003 0.00231736
866 10.7979 0.210387 1.483 0 0 1.00003 0.00230864
949 11.5505 1.03177 1.44857 0 0 1.00003 0.00225795
946 10.8639 1.72105 1.75744 0 0 1.00003 0.00234687
26 10.5312 0.372846 0.0815416 0 0 1.00003 0.00230703
36 13.076 0.223774 0.65546 0 0 1.00003 0.00210281
111 12.2555 1.0953 0.531133 0 0 1.00003 0.00218104
870 12.3499 0.321786 1.33519 0 0 1.00003 0.00217789
953 12.9262 1.20998 1.40514 0 0 1.00003 0.002147
40 14.5313 0.342733 0.802099 0 0 1.00003 0.0019942
115 13.7615 1.12451 0.859477 0 0 1.00003 0.00206563
117 14.2152 1.57477 0.155445 0 0 1.00003 0.00203457
874 13.7941 0.368539 1.6625 0 0 1.00003 0.00207139
957 14.54 1.17307 1.50583 0 0 1.00003 0.00202426
119 15.032 1.56794 0.674844 0 0 1.00003 0.00198226
38 15.2366 0.71483 0.0669726 0 0 1.00003 0.00194314
44 15.8452 0.76415 0.793757 0 0 1.00003 0.00191347
123 16.6712 1.5457 0.688506 0 0 1.00004 0.00188801
878 15.2873 0.469144 1.65608 0 0 1.00003 0.0019659
882 16.6681 0.709648 1.35259 0 0 1.00004 0.00188233
961 15.7638 1.50534 1.40862 0 0 1.00003 0.0019506
48 17.3853 0.727968 0.563304 0 0 1.00004 0.00183784
127 18.0485 1.58332 0.754939 0 0 1.00004 0.00184006
886 18.0397 0.746026 1.42513 0 0 1.00004 0.00183533
965 17.3462 1.74589 1.56764 0 0 1.00004 0.00188625
51 19.6718 0.00916964 0.662922 0 0 1.00004 0.00179719
52 18.9175 0.727407 0.687758 0 0 1.00004 0.00180466
131 19.6803 1.54077 0.837333 0 0 1.00004 0.00182282
889 19.1491 0.149238 1.54038 0 0 1.00004 0.00181537
890 19.7377 0.960502 1.6837 0 0 1.00004 0.00182957
969 18.8002 1.49769 1.49691 0 0 1.00004 0.00183984
129 18.9962 1.57333 0.000974413 0 0 1.00004 0.00181807
55 21.2843 0.343286 1.0584 0 0 1.00005 0.00183279
56 20.3992 0.768556 0.964669 0 0 1.00004 0.00181553
135 21.2771 1.61854 0.950802 0 0 1.00005 0.00185578
54 21.354 0.757617 0.211317 0 0 1.00005 0.00182991
133 20.4998 1.4959 0.202829 0 0 1.00004 0.00182399
973 20.4875 1.75809 1.71932 0 0 1.00004 0.00186073
57 22.2114 0.27007 0.529707 0 0 1.00005 0.001861
59 23.0286 0.422162 1.3805 0 0 1.00005 0.00191967
60 22.3221 1.13631 1.31213 0 0 1.00005 0.00189299
137 22.1958 1.5801 0.515884 0 0 1.00005 0.00188382
58 23.1407 1.03807 0.455532 0 0 1.00005 0.00191915
63 24.5398 0.371447 1.40028 0 0 1.00005 0.00202087
61 23.8248 0.344568 0.567673 0 0 1.00005 0.00195391
62 24.7208 1.15385 0.736497 0 0 1.00005 0.00203207
64 23.745 1.21504 1.37378 0 0 1.00005 0.0019783
65 25.2728 0.310642 0.535944 0 0 1.00005 0.00206082
67 26.3534 0.367395 1.15246 0 0 1.00006 0.00215803
68 25.4893 1.10723 1.43827 0 0 1.00005 0.00210756
147 26.2864 1.70668 1.32892 0 0 1.00005 0.00218664
66 26.2365 0.926281 0.414982 0 0 1.00005 0.00214475
70 27.9861 1.26333 0.377758 0 0 1.00006 0.00229881
71 28.0234 0.490145 0.862841 0 0 1.00006 0.00229362
72 27.1314 1.0112 1.23384 0 0 1.00006 0.00223563
69 27.164 0.239503 0.236121 0 0 1.00006 0.00221122
149 26.9273 1.75965 0.504811 0 0 1.00006 0.002227
913 28.8293 0.345316 1.40395 0 0 1.00006 0.00236857
76 29.0917 1.2075 0.717753 0 0 1.00006 0.00238833
914 29.8326 0.960987 1.55345 0 0 1.00005 0.00245781
993 28.9569 1.70739 1.49133 0 0 1.00006 0.00241084
75 29.7322 0.348594 0.613822 0 0 1.00005 0.00241992
917 30.3112 0.160025 1.43962 0 0 1.00005 0.00247748
79 31.2133 0.459767 0.485987 0 0 1.00005 0.0025154
80 30.5686 1.18131 0.765238 0 0 1.00005 0.00249418
918 31.3523 0.966967 1.38329 0 0 1.00005 0.00254953
82 1.62957 2.43488 0.115246 0 0 1.00005 0.00266764
84 0.655458 2.37443 0.804723 0 0 1.00005 0.00263685
922 1.6684 2.36575 1.59149 0 0 1.00005 0.00269458
1001 0.913994 3.03651 1.55034 0 0 1.00005 0.00270561
161 0.852664 3.10612 0.128651 0 0 1.00005 0.00267831
163 1.81415 3.22127 0.941952 0 0 1.00005 0.00272873
88 2.439 2.41435 0.792152 0 0 1.00005 0.00269229
167 3.18317 3.29495 0.860847 0 0 1.00005 0.0027546
926 3.20561 2.26055 1.55782 0 0 1.00005 0.00271415
86 3.23473 2.40043 0.0535654 0 0 1.00005 0.00269332
1005 2.64277 3.10953 1.75908 0 0 1.00005 0.00276463
1009 3.80698 3.42735 1.66701 0 0 1.00004 0.00278959
92 3.89666 2.57946 0.797974 0 0 1.00004 0.00271024
91 4.5027 1.84431 0.724387 0 0 1.00004 0.00266789
171 4.7084 3.34991 0.768551 0 0 1.00004 0.00274712
930 4.6584 2.66505 1.59917 0 0 1.00004 0.00272903
96 5.39045 2.58895 0.835434 0 0 1.00004 0.00268766
94 6.11437 2.47825 0.145547 0 0 1.00004 0.00264864
175 6.13477 3.23989 0.975123 0 0 1.00004 0.00270535
934 6.32106 2.24179 1.51587 0 0 1.00004 0.00265578
173 5.47591 3.35813 0.0140101 0 0 1.00004 0.00272357
1017 6.99337 3.11254 1.57496 0 0 1.00004 0.00267777
100 6.99753 2.22094 0.797171 0 0 1.00004 0.00260477
177 7.08031 2.9905 0.133622 0 0 1.00004 0.00263476
98 7.85732 2.26599 0.141107 0 0 1.00004 0.00255287
179 7.82897 3.10989 0.937385 0 0 1.00004 0.00261384
938 7.7208 2.10115 1.59937 0 0 1.00004 0.00258325
104 8.48191 2.23822 0.958621 0 0 1.00003 0.00252363
1021 8.59294 3.05016 1.68754 0 0 1.00003 0.00258609
181 8.66222 3.01926 0.0459472 0 0 1.00003 0.00254303
102 9.26502 2.13903 0.257298 0 0 1.00003 0.00245354
183 9.29437 3.02357 0.957223 0 0 1.00003 0.00251202
942 9.38923 2.26322 1.74815 0 0 1.00003 0.00248681
185 9.90907 2.96347 0.21288 0 0 1.00003 0.00244967
108 10.0995 2.0608 1.12084 0 0 1.00003 0.00240201
106 10.5832 2.15014 0.208873 0 0 1.00003 0.00235274
112 11.4259 1.87015 0.79189 0 0 1.00003 0.00227941
187 10.9191 2.85596 0.940753 0 0 1.00003 0.0023729
1029 11.7127 2.88488 1.62214 0 0 1.00003 0.00233262
116 12.886 1.97117 0.616116 0 0 1.00003 0.00215891
191 12.1772 2.6964 0.756935 0 0 1.00003 0.00225573
950 12.174 1.95597 1.4992 0 0 1.00003 0.00223787
1033 13.0766 3.06499 1.72652 0 0 1.00003 0.00223284
195 13.4135 3.06034 0.853071 0 0 1.00003 0.00217564
954 13.5811 2.02354 1.50605 0 0 1.00003 0.00212573
114 13.6066 2.33199 0.0558712 0 0 1.00003 0.00211236
120 14.2026 2.47546 0.933231 0 0 1.00003 0.00208341
1037 14.2295 3.42965 1.58155 0 0 1.00003 0.00215838
199 14.8826 3.46634 0.886154 0 0 1.00003 0.00209177
958 14.9644 2.3291 1.45242 0 0 1.00003 0.00203494
118 15.0017 2.52936 0.14035 0 0 1.00003 0.00201942
197 14.3387 3.25404 0.0448341 0 0 1.00003 0.00210767
124 15.8398 2.45053 0.708489 0 0 1.00003 0.00196802
203 16.4619 3.21295 0.683808 0 0 1.00003 0.0019745
962 16.4531 2.48484 1.53374 0 0 1.00003 0.00195585
1041 15.5541 3.27975 1.52352 0 0 1.00003 0.00205228
201 15.7276 3.27998 0.0295464 0 0 1.00003 0.00201457
128 17.2022 2.36075 0.686616 0 0 1.00004 0.00189585
207 18.0847 2.92636 0.70766 0 0 1.00004 0.00189584
966 18.1545 2.42836 1.58866 0 0 1.00004 0.00189066
1045 17.2365 3.11801 1.50686 0 0 1.00004 0.00195355
132 19.0309 2.34933 1.00696 0 0 1.00004 0.00185701
211 19.8551 3.20702 1.26397 0 0 1.00004 0.00190725
209 19.0265 2.98397 0.188012 0 0 1.00004 0.00187793
130 19.7415 2.31247 0.107214 0 0 1.00004 0.00184391
134 21.3493 2.39029 0.448264 0 0 1.00005 0.00187946
136 20.3645 2.43465 1.09696 0 0 1.00004 0.00186846
215 21.5147 3.25749 1.36341 0 0 1.00005 0.0019482
213 20.5889 2.97081 0.325864 0 0 1.00004 0.00188694
139 23.1189 2.01927 1.49089 0 0 1.00005 0.00196606
138 23.2104 2.56207 0.717457 0 0 1.00005 0.00197822
140 22.3019 2.45752 1.21965 0 0 1.00005 0.00193564
217 22.2009 3.1583 0.592165 0 0 1.00005 0.00195513
16179 22.9372 3.34235 0.0556019 0 0 1.00005 0.00199834
141 24.0004 1.77863 0.610813 0 0 1.00005 0.00199658
143 24.7221 1.9496 1.56461 0 0 1.00005 0.00207726
142 24.6415 2.6332 0.757264 0 0 1.00005 0.00208129
144 23.9642 2.83867 1.50344 0 0 1.00005 0.0020615
223 24.7959 3.45034 1.52172 0 0 1.00005 0.00215958
16108 25.281 2.77824 0.0102373 0 0 1.00005 0.00213302
145 25.4536 1.81923 0.512243 0 0 1.00005 0.00210658
146 26.1522 2.5601 0.686023 0 0 1.00005 0.00219757
148 25.4996 2.51789 1.48811 0 0 1.00005 0.00215983
227 26.0935 3.4335 1.48523 0 0 1.00006 0.00226432
229 26.5687 3.44341 0.579237 0 0 1.00006 0.00228343
152 26.9191 2.52445 1.49698 0 0 1.00006 0.00228099
151 27.9141 1.95046 1.20582 0 0 1.00006 0.00233046
150 27.4961 2.64444 0.619056 0 0 1.00006 0.00231533
231 27.6429 3.29538 1.38821 0 0 1.00006 0.00238471
233 28.4263 3.18144 0.334568 0 0 1.00006 0.00241909
153 28.6943 2.06021 0.339032 0 0 1.00006 0.00238285
156 28.7017 2.71044 1.17683 0 0 1.00006 0.00242978
155 29.9039 1.99783 0.878424 0 0 1.00005 0.00247796
154 29.661 2.65756 0.280151 0 0 1.00006 0.00248457
235 29.7461 3.21334 1.17586 0 0 1.00006 0.00253951
997 30.462 1.78525 1.68811 0 0 1.00005 0.00253039
159 31.4159 1.95427 0.917782 0 0 1.00005 0.00257367
160 30.6765 2.68074 0.99365 0 0 1.00005 0.0025654
239 31.5527 3.30388 0.970795 0 0 1.00005 0.00265366
998 31.5038 2.66718 1.72124 0 0 1.00005 0.00263644
237 30.6343 3.20398 0.162445 0 0 1.00006 0.00258221
157 30.8837 1.88745 0.044023 0 0 1.00005 0.00252903
158 31.6495 2.63313 0.0766972 0 0 1.00005 0.00260777
164 0.836451 3.76861 0.919564 0 0 1.00005 0.00273235
241 0.702396 4.59425 0.459422 0 0 1.00005 0.00278592
244 0.68325 5.24695 1.26947 0 0 1.00005 0.00286352
162 1.59075 3.85151 0.0828199 0 0 1.00005 0.00275428
1081 1.03708 4.39007 1.75877 0 0 1.00005 0.00281798
243 1.69086 4.65702 0.990258 0 0 1.00005 0.0028362
168 2.41631 4.04345 0.859511 0 0 1.00005 0.00279912
247 3.10941 4.88022 1.12959 0 0 1.00005 0.00288715
166 3.20188 4.1614 0.197003 0 0 1.00005 0.00280933
245 2.46704 4.95984 0.289907 0 0 1.00005 0.00286921
249 3.97211 4.88391 0.169641 0 0 1.00004 0.00287034
172 4.02051 4.10889 0.902349 0 0 1.00004 0.00281413
251 4.61765 4.91654 1.16847 0 0 1.00004 0.00288566
170 4.77517 4.2083 0.145863 0 0 1.00004 0.00280306
176 5.42954 4.05647 1.17534 0 0 1.00004 0.00279422
253 5.53612 4.79271 0.334097 0 0 1.00004 0.00283713
174 6.2445 3.98801 0.187948 0 0 1.00004 0.00274398
255 6.22124 4.77589 1.05829 0 0 1.00004 0.00282679
180 6.98067 3.83463 0.804984 0 0 1.00004 0.00270752
1097 7.15516 4.59515 1.69051 0 0 1.00004 0.0027926
260 7.16176 5.22181 0.894449 0 0 1.00004 0.00282262
259 7.85942 4.53337 0.576054 0 0 1.00003 0.00271395
1018 7.85539 3.92898 1.54048 0 0 1.00003 0.00269143
184 8.61814 3.94296 0.730667 0 0 1.00003 0.00262011
1101 8.64067 4.68772 1.52516 0 0 1.00003 0.0027064
263 9.46944 4.64587 0.845941 0 0 1.00003 0.00262228
1022 9.44836 3.83792 1.54432 0 0 1.00003 0.0025783
182 9.36814 3.93337 0.0634525 0 0 1.00003 0.002559
265 10.2132 4.6009 0.134203 0 0 1.00003 0.00254953
188 10.2339 3.65222 0.912689 0 0 1.00003 0.00248221
1105 10.2442 4.43564 1.70849 0 0 1.00003 0.0025745
192 11.6879 3.70662 0.820794 0 0 1.00003 0.00236393
267 10.9213 4.72856 0.934889 0 0 1.00003 0.00251705
269 11.6825 4.7747 0.228337 0 0 1.00003 0.00244413
1026 11.018 3.64513 1.63638 0 0 1.00003 0.00244164
1109 11.6685 4.47367 1.74657 0 0 1.00003 0.00246183
186 10.906 3.90886 0.176749 0 0 1.00003 0.00243522
196 12.7428 3.65711 0.834793 0 0 1.00003 0.00227264
271 12.4556 4.62326 1.02703 0 0 1.00003 0.00238078
1113 13.034 5.05293 1.73119 0 0 1.00003 0.00239992
273 12.8815 4.6846 0.0604975 0 0 1.00003 0.00233422
275 13.4681 4.76675 0.818646 0 0 1.00003 0.00230215
200 14.2021 4.16905 0.713424 0 0 1.00003 0.00218991
1034 13.7183 4.27644 1.62412 0 0 1.00003 0.00226742
1117 14.4241 5.16803 1.56007 0 0 1.00003 0.00228874
277 14.353 4.94504 0.0775459 0 0 1.00003 0.00223662
279 15.1463 5.05847 0.828715 0 0 1.00003 0.00219888
198 15.1396 4.22099 0.107448 0 0 1.00003 0.00211853
1038 15.1675 4.44491 1.61699 0 0 1.00003 0.00217039
204 15.8345 4.09005 0.929465 0 0 1.00003 0.00207465
281 16.0434 4.79585 0.189329 0 0 1.00003 0.00210733
1042 16.4903 3.97817 1.70024 0 0 1.00003 0.00205475
1121 16.0091 5.07173 1.66409 0 0 1.00003 0.00217317
283 16.7612 4.59841 0.909068 0 0 1.00003 0.00206305
208 17.4222 3.83292 0.813267 0 0 1.00004 0.00197442
287 18.2423 4.47707 1.09433 0 0 1.00004 0.00200338
1046 18.1057 3.63503 1.65651 0 0 1.00004 0.00196337
285 17.6015 4.57692 0.022545 0 0 1.00004 0.00201461
206 18.2867 3.84089 0.0684398 0 0 1.00004 0.00194069
212 19.0227 3.691 0.953303 0 0 1.00004 0.00193036
289 18.9908 4.58856 0.358569 0 0 1.00004 0.00198541
291 19.8599 4.63154 1.09034 0 0 1.00004 0.00200075
292 18.96 5.25134 1.19237 0 0 1.00004 0.00205783
210 19.761 3.73647 0.235673 0 0 1.00004 0.00192118
216 20.6197 3.77918 1.21975 0 0 1.00004 0.00195138
295 21.0933 4.66314 1.36582 0 0 1.00005 0.00203339
214 21.2946 3.88807 0.506324 0 0 1.00005 0.00196178
293 20.34 4.73997 0.339326 0 0 1.00004 0.00199986
297 21.8295 4.88752 0.78401 0 0 1.00005 0.00206148
219 23.0853 3.56018 1.3849 0 0 1.00005 0.00204377
220 22.1737 4.07047 1.28598 0 0 1.00005 0.00202715
299 22.7532 5.08464 1.24969 0 0 1.00005 0.00213566
218 22.8837 4.27616 0.51453 0 0 1.00005 0.0020622
221 23.8607 3.56753 0.758733 0 0 1.00005 0.00207872
222 24.6623 4.25288 0.614646 0 0 1.00005 0.00218277
224 23.7681 4.46313 1.3102 0 0 1.00005 0.00215126
301 23.8563 4.98594 0.516326 0 0 1.00005 0.00218019
303 24.7155 5.19836 1.39432 0 0 1.00006 0.00228654
305 25.2334 5.15362 0.549154 0 0 1.00006 0.00230195
228 25.3832 4.40483 1.5691 0 0 1.00006 0.00227971
225 25.41 3.58965 0.767602 0 0 1.00005 0.00219861
307 26.1097 5.04782 1.31609 0 0 1.00006 0.00238591
226 25.9161 4.32633 0.392913 0 0 1.00006 0.00228707
232 26.7807 4.20994 1.34292 0 0 1.00006 0.00237483
309 26.9416 4.89402 0.624788 0 0 1.00006 0.00242641
311 27.8015 4.79205 1.36656 0 0 1.00006 0.0025114
230 27.497 3.96917 0.571664 0 0 1.00006 0.00239831
236 28.4258 3.90933 1.08701 0 0 1.00006 0.00248211
313 28.7677 4.67242 0.685799 0 0 1.00006 0.0025624
234 29.4187 3.73041 0.462117 0 0 1.00006 0.00253525
315 29.5965 4.46003 1.2932 0 0 1.00006 0.00262464
314 29.9264 5.25289 0.795535 0 0 1.00006 0.00270549
240 30.5137 4.00382 1.01602 0 0 1.00006 0.00264359
238 31.5635 3.96324 0.348182 0 0 1.00005 0.00269199
317 30.7485 4.65109 0.46155 0 0 1.00006 0.00270187
319 31.5378 4.57831 1.36725 0 0 1.00006 0.00276385
242 1.51231 5.51266 0.457581 0 0 1.00005 0.00289931
323 1.42652 6.18544 1.27493 0 0 1.00005 0.00298541
324 0.887559 6.91621 1.48203 0 0 1.00005 0.00305369
322 1.62094 6.92229 0.564278 0 0 1.00005 0.00305036
321 0.596131 5.98278 0.451147 0 0 1.00005 0.00291167
398 0.095752 6.90828 0.604019 0 0 1.00006 0.00298757
399 0.0707147 6.11357 1.36471 0 0 1.00005 0.00292473
248 2.1522 5.50802 1.36884 0 0 1.00005 0.00294156
328 2.35438 7.02715 1.25348 0 0 1.00005 0.00310003
325 2.49188 6.20645 0.504615 0 0 1.00005 0.00299317
327 2.90529 6.18331 1.41751 0 0 1.00005 0.00302316
246 3.27461 5.6166 0.278395 0 0 1.00005 0.00293968
252 3.7272 5.65744 1.29972 0 0 1.00005 0.00296931
332 3.88152 7.00613 1.17023 0 0 1.00005 0.00310753
329 4.00415 6.30395 0.488773 0 0 1.00004 0.00301122
250 4.76402 5.50955 0.334379 0 0 1.00004 0.0029212
331 4.71736 6.14123 1.25249 0 0 1.00004 0.00300857
330 4.62345 7.05464 0.241154 0 0 1.00004 0.00308474
336 5.38326 6.88179 1.18876 0 0 1.00004 0.00307273
333 5.41211 6.29534 0.333203 0 0 1.00004 0.00298791
256 5.50249 5.49682 1.31938 0 0 1.00004 0.00292758
254 6.29452 5.47125 0.299978 0 0 1.00004 0.00287452
335 6.24215 6.28946 0.986804 0 0 1.00004 0.00297607
337 6.9277 6.15028 0.151931 0 0 1.00004 0.00291496
1177 7.01017 6.07496 1.64752 0 0 1.00004 0.00294603
340 7.0032 6.95654 1.01319 0 0 1.00004 0.00301682
339 7.8241 6.23215 0.786239 0 0 1.00003 0.00288869
1098 7.88881 5.48974 1.54436 0 0 1.00003 0.00283315
1178 7.82994 6.94016 1.65604 0 0 1.00003 0.00300277
258 7.80261 5.43817 0.0410877 0 0 1.00003 0.00279667
344 8.52632 6.95768 0.752387 0 0 1.00003 0.00292296
264 8.65624 5.40344 0.726427 0 0 1.00003 0.00274917
1181 8.70979 6.21452 1.55387 0 0 1.00003 0.00286054
343 9.33889 6.28489 0.766678 0 0 1.00003 0.00279436
1102 9.47345 5.42285 1.63669 0 0 1.00003 0.00272684
262 9.42371 5.56426 0.0256977 0 0 1.00003 0.00270256
268 10.157 5.42085 0.82487 0 0 1.00003 0.0026425
1185 10.1614 6.28015 1.53494 0 0 1.00003 0.00276029
345 10.1694 6.34129 0.102525 0 0 1.00003 0.00272691
347 10.9698 6.12676 0.983082 0 0 1.00003 0.00265322
349 11.6683 6.46242 0.0796963 0 0 1.00003 0.00261508
1186 10.8883 7.04351 1.55783 0 0 1.00003 0.00279199
266 10.8458 5.66124 0.0153994 0 0 1.00003 0.00260028
272 11.716 5.36684 1.03495 0 0 1.00003 0.0025151
270 12.2963 5.6997 0.19211 0 0 1.00003 0.00248049
276 12.9636 5.88371 0.890368 0 0 1.00003 0.00245637
351 12.1053 6.31644 1.08738 0 0 1.00003 0.0025811
274 13.5674 5.61092 0.0446701 0 0 1.00003 0.00236239
1114 13.6069 5.94609 1.61517 0 0 1.00003 0.00243632
355 13.6406 6.64862 0.829594 0 0 1.00003 0.00247607
280 14.3046 5.78093 0.796531 0 0 1.00003 0.00233092
1197 14.5816 6.71176 1.4574 0 0 1.00003 0.00243344
357 14.3839 6.45186 0.0435553 0 0 1.00003 0.00238121
278 15.22 5.67608 0.0425103 0 0 1.00003 0.00224014
359 15.2754 6.50144 0.822449 0 0 1.00003 0.00233191
284 16.0304 5.76505 0.95958 0 0 1.00003 0.0022101
363 16.6986 6.47611 1.1614 0 0 1.00003 0.00224958
1118 15.3372 5.91546 1.72651 0 0 1.00003 0.00230484
361 15.894 6.38069 0.0492042 0 0 1.00003 0.00226353
282 16.8006 5.43707 0.275445 0 0 1.00003 0.00212252
286 18.0064 5.30693 0.539244 0 0 1.00004 0.00206668
288 17.2876 5.43297 1.25355 0 0 1.00003 0.00212242
365 17.2711 6.28923 0.411961 0 0 1.00003 0.00218271
367 17.8636 6.24424 1.37935 0 0 1.00004 0.00218402
372 18.4958 7.0393 1.14522 0 0 1.00004 0.00223787
369 18.5765 6.21024 0.614677 0 0 1.00004 0.00213608
290 19.6356 5.71198 0.614325 0 0 1.00004 0.00208036
371 19.5409 6.51456 1.32711 0 0 1.00004 0.0021784
373 20.2319 6.68724 0.601516 0 0 1.00004 0.00217623
294 20.9911 5.70625 0.635409 0 0 1.00005 0.00209937
296 20.3963 5.55365 1.37285 0 0 1.00004 0.00209397
375 21.0329 6.53695 1.27815 0 0 1.00005 0.00219881
377 21.9345 6.5827 0.653544 0 0 1.00005 0.00221631
300 21.9215 5.79089 1.34321 0 0 1.00005 0.00216133
16260 21.9576 5.65812 0.0542127 0 0 1.00005 0.00212402
298 22.9695 5.74926 0.638783 0 0 1.00005 0.00219122
379 22.9535 6.59014 1.16956 0 0 1.00005 0.00228724
381 23.6982 6.66259 0.264269 0 0 1.00005 0.0023196
304 23.8219 5.79263 1.24579 0 0 1.00005 0.00226847
383 24.7187 6.46312 1.13208 0 0 1.00006 0.00239964
302 24.5038 5.89713 0.404627 0 0 1.00005 0.00230781
306 26.1206 5.76312 0.666692 0 0 1.00006 0.00243482
308 25.5251 5.9292 1.60886 0 0 1.00006 0.00243166
385 25.5864 6.61509 0.474625 0 0 1.00006 0.00246795
387 26.3115 6.49543 1.36241 0 0 1.00006 0.00254797
312 27.165 5.75514 1.4258 0 0 1.00006 0.00254948
310 27.997 5.46814 0.691502 0 0 1.00006 0.00257106
389 27.2375 6.27397 0.615685 0 0 1.00006 0.00258198
391 28.2237 6.36712 1.33016 0 0 1.00006 0.00269867
390 28.258 6.9167 0.502815 0 0 1.00006 0.00273431
392 27.3162 7.01789 1.28934 0 0 1.00006 0.0026889
316 28.9 5.44953 1.43302 0 0 1.00006 0.00266736
395 30.0125 6.13419 1.29183 0 0 1.00006 0.00281448
393 29.0223 6.14024 0.634586 0 0 1.00006 0.00272061
16355 29.9365 6.07369 0.0729919 0 0 1.00006 0.00277575
16276 29.0007 5.33321 0.0378137 0 0 1.00006 0.00263413
396 29.2334 7.02017 1.19378 0 0 1.00006 0.00284652
394 30.1792 6.87618 0.49546 0 0 1.00006 0.00288166
318 31.5494 5.32246 0.582908 0 0 1.00005 0.00281066
320 30.7941 5.40134 1.4232 0 0 1.00006 0.00279725
397 30.9767 6.14321 0.624614 0 0 1.00006 0.00285901
400 30.958 7.03152 1.16195 0 0 1.00006 0.00296697
401 0.93054 7.62737 0.641868 0 0 1.00005 0.00310425
402 1.55565 8.4679 0.592174 0 0 1.00005 0.0032177
404 1.04876 8.524 1.4466 0 0 1.00005 0.00323799
478 0.374553 8.56921 0.385849 0 0 1.00006 0.00317879
479 0.161266 7.76921 1.27932 0 0 1.00006 0.00310643
403 1.78685 7.8356 1.48399 0 0 1.00005 0.00318747
405 2.27345 7.76667 0.38948 0 0 1.00005 0.0031556
408 2.44491 8.62383 1.46229 0 0 1.00005 0.00329014
326 3.12717 7.14749 0.46946 0 0 1.00005 0.00310234
406 2.91696 8.62323 0.401219 0 0 1.00005 0.00326103
407 3.08148 7.82811 1.29214 0 0 1.00005 0.00320128
412 3.73497 8.55482 0.966478 0 0 1.00005 0.00327402
409 3.90017 7.79219 0.338086 0 0 1.00005 0.00317217
410 4.50285 8.50141 0.0801342 0 0 1.00004 0.00324551
411 4.63702 7.68437 1.23636 0 0 1.00004 0.00317798
413 5.31556 7.71835 0.237675 0 0 1.00004 0.00314304
416 5.35889 8.3387 0.970426 0 0 1.00004 0.00323072
334 6.13467 7.10876 0.163282 0 0 1.00004 0.00305275
414 6.49823 8.435 0.190059 0 0 1.00004 0.0031878
415 6.1082 7.64687 1.04364 0 0 1.00004 0.00313187
420 7.00565 8.28739 1.08551 0 0 1.00004 0.00317034
417 7.07113 7.64552 0.170631 0 0 1.00003 0.00307378
419 7.86108 7.85261 0.779683 0 0 1.00003 0.0030675
1258 7.86226 8.26483 1.75441 0 0 1.00003 0.00316125
1182 9.55428 7.06981 1.52336 0 0 1.00003 0.00289706
421 8.53131 7.71452 0.025207 0 0 1.00003 0.00299859
1261 8.60276 7.59454 1.61805 0 0 1.00003 0.00302983
424 8.80859 8.43244 0.915126 0 0 1.00003 0.00308169
423 9.40643 7.72695 0.695024 0 0 1.00003 0.0029495
1262 9.60538 8.80445 1.52055 0 0 1.00003 0.00310172
346 10.925 7.0625 0.144905 0 0 1.00003 0.00274401
1265 10.1553 7.99345 1.65606 0 0 1.00003 0.00297068
428 10.2208 8.72761 0.736655 0 0 1.00003 0.00300686
348 10.2717 7.31554 0.766854 0 0 1.00003 0.00283999
352 11.6805 7.24589 0.842566 0 0 1.00003 0.00271684
427 11.0128 8.04566 0.88162 0 0 1.00003 0.00286797
429 11.6341 8.22561 0.0497255 0 0 1.00003 0.00281704
1269 11.7966 7.9329 1.66168 0 0 1.00003 0.00282785
356 13.0367 7.3892 0.601545 0 0 1.00003 0.00260609
431 12.55 8.31764 0.634412 0 0 1.00002 0.00275849
1190 12.4474 7.26043 1.44306 0 0 1.00003 0.00267769
1270 12.4795 8.79411 1.56886 0 0 1.00002 0.00286607
1273 13.2016 8.10566 1.54118 0 0 1.00002 0.00271727
350 12.2547 7.47513 0.000963903 0 0 1.00003 0.00267581
360 14.5878 7.41876 0.636225 0 0 1.00003 0.00247927
435 13.9292 8.18312 0.506866 0 0 1.00003 0.0026172
1194 13.783 7.41585 1.40746 0 0 1.00003 0.00257607
1277 14.56 8.23604 1.40866 0 0 1.00003 0.00260648
439 15.3664 8.34363 0.889066 0 0 1.00003 0.00253052
362 16.664 7.20466 0.292757 0 0 1.00003 0.0023054
364 15.8793 7.34477 0.922337 0 0 1.00003 0.00238201
443 16.5298 8.18542 1.1244 0 0 1.00003 0.00244362
1198 15.4046 7.57585 1.68272 0 0 1.00003 0.0024831
441 16.1129 8.33412 0.158478 0 0 1.00003 0.00245967
368 17.2128 7.36459 1.12326 0 0 1.00003 0.00231652
445 17.303 8.11911 0.326554 0 0 1.00003 0.00237096
447 17.9654 8.0222 1.03895 0 0 1.00003 0.00235267
366 18.0412 7.16791 0.227403 0 0 1.00004 0.00224051
370 19.2514 7.29509 0.624824 0 0 1.00004 0.0022352
451 19.1919 8.11592 1.16911 0 0 1.00004 0.00234176
449 18.7084 8.16509 0.190266 0 0 1.00004 0.00232523
453 20.0726 8.07727 0.358267 0 0 1.00004 0.00231102
376 20.138 7.59361 1.29493 0 0 1.00004 0.00229145
374 20.9758 7.38658 0.645613 0 0 1.00005 0.00226203
455 20.958 8.35434 1.00731 0 0 1.00005 0.0023732
380 21.8586 7.57534 1.10798 0 0 1.00005 0.00232753
457 21.9415 8.24826 0.255251 0 0 1.00005 0.00237808
459 22.9585 8.07715 0.974359 0 0 1.00005 0.0024335
1218 22.7653 7.3924 1.6965 0 0 1.00005 0.00238504
378 22.6711 7.38168 0.372609 0 0 1.00005 0.00232805
458 23.1346 8.78765 0.196172 0 0 1.00005 0.00249952
1298 22.7998 8.79093 1.54592 0 0 1.00005 0.00253064
384 23.8255 7.21699 1.02807 0 0 1.00006 0.00240339
461 23.881 7.97162 0.355415 0 0 1.00006 0.00246968
463 24.7856 7.97462 0.952648 0 0 1.00006 0.00255578
1302 24.7206 8.61679 1.63102 0 0 1.00006 0.00265839
382 24.7366 7.2064 0.266868 0 0 1.00006 0.00245355
462 24.7666 8.69845 0.197742 0 0 1.00006 0.00261371
1301 23.7764 7.93201 1.7299 0 0 1.00006 0.00251287
388 25.578 7.27696 1.19959 0 0 1.00006 0.002559
467 26.5416 7.90062 0.953958 0 0 1.00006 0.0027015
1306 26.5671 8.5143 1.68457 0 0 1.00006 0.00281312
386 26.5671 7.15613 0.361205 0 0 1.00006 0.00260737
465 25.6996 7.99529 0.301842 0 0 1.00006 0.0026199
468 25.7914 8.73528 0.959554 0 0 1.00006 0.00272708
466 26.7995 8.47559 0.0903384 0 0 1.00006 0.00276927
471 28.3888 7.73237 1.16861 0 0 1.00006 0.00285537
472 27.5606 8.5544 0.987097 0 0 1.00006 0.00286835
469 27.5379 7.68109 0.415766 0 0 1.00006 0.00275138
1310 28.409 8.58932 1.73228 0 0 1.00006 0.00298635
470 28.5609 8.40994 0.390493 0 0 1.00006 0.00292108
476 29.404 8.46754 1.14993 0 0 1.00006 0.0030182
473 29.3073 7.65483 0.40089 0 0 1.00006 0.00289948
475 30.1255 7.61271 1.25065 0 0 1.00006 0.00297958
474 30.249 8.31843 0.52602 0 0 1.00006 0.0030449
480 31.1085 8.43216 1.17032 0 0 1.00006 0.00313197
477 31.2858 7.82594 0.379127 0 0 1.00006 0.00305255
484 1.01009 9.91866 0.909013 0 0 1.00006 0.00336582
481 1.09495 9.31856 0.127481 0 0 1.00005 0.00328978
1322 1.59115 10.1129 1.74488 0 0 1.00006 0.00345384
559 0.230723 9.23887 1.12137 0 0 1.00006 0.00326717
558 0.235509 9.91408 0.0672721 0 0 1.00006 0.00331255
483 1.76039 9.33726 1.18919 0 0 1.00005 0.00334083
482 1.88527 10.2708 0.258566 0 0 1.00005 0.00341488
485 2.48204 9.46242 0.433091 0 0 1.00005 0.00334811
488 2.59191 10.3464 0.979004 0 0 1.00005 0.00345812
486 3.33219 10.2924 0.0721803 0 0 1.00005 0.00344046
487 3.11111 9.45502 1.21582 0 0 1.00005 0.00338139
1326 3.5277 10.2515 1.68575 0 0 1.00005 0.00349749
489 3.79566 9.3783 0.110176 0 0 1.00005 0.0033461
1329 3.9606 9.2828 1.7061 0 0 1.00005 0.0033921
492 4.11397 10.0822 0.768397 0 0 1.00005 0.00343298
491 4.63845 9.15453 0.87736 0 0 1.00004 0.00333218
1330 4.86489 10.0133 1.62518 0 0 1.00004 0.00346122
493 5.25765 9.26442 0.00292268 0 0 1.00004 0.00331793
496 5.31618 10.0429 0.584315 0 0 1.00004 0.00341021
1333 5.38149 9.12007 1.67477 0 0 1.00004 0.00335648
495 5.99445 9.04124 0.680793 0 0 1.00004 0.00328464
1334 6.03641 9.91102 1.23662 0 0 1.00004 0.00340063
1337 6.81363 9.15845 1.31023 0 0 1.00004 0.00329314
500 6.89658 9.88256 0.540282 0 0 1.00003 0.00334034
499 7.76512 8.97656 0.752552 0 0 1.00003 0.00320233
1338 7.79688 9.84304 1.25401 0 0 1.00003 0.0033209
504 8.57281 10.0392 0.608963 0 0 1.00003 0.0032695
1341 8.63212 9.2718 1.46216 0 0 1.00003 0.00321967
501 8.66866 9.15745 0.0950686 0 0 1.00003 0.00315594
503 9.49342 9.55413 0.763792 0 0 1.00003 0.00315967
1342 9.34604 10.3453 1.48499 0 0 1.00003 0.00329634
1266 11.0479 8.83999 1.50732 0 0 1.00002 0.00299175
508 10.1937 10.4324 0.711641 0 0 1.00003 0.00320191
1345 10.3474 9.68614 1.49638 0 0 1.00002 0.00314843
426 10.8746 8.98273 0.0349819 0 0 1.00003 0.00296984
507 10.9641 9.78528 0.704766 0 0 1.00002 0.00306907
1346 11.141 10.3004 1.72026 0 0 1.00002 0.00317173
432 11.7834 8.95464 0.769746 0 0 1.00002 0.00290375
1349 11.795 9.72368 1.40599 0 0 1.00002 0.00302658
436 13.3412 9.03765 0.820406 0 0 1.00002 0.00277717
511 12.5219 9.89993 0.728971 0 0 1.00002 0.00294631
516 13.2349 10.5732 1.00094 0 0 1.00002 0.0029655
1353 12.9875 9.72193 1.69239 0 0 1.00002 0.00294283
1274 14.029 8.955 1.631 0 0 1.00002 0.00275396
440 14.7758 9.24549 0.798521 0 0 1.00003 0.00267613
515 13.9046 9.79047 0.886424 0 0 1.00002 0.00281519
517 14.6216 10.1978 0.235421 0 0 1.00002 0.00277722
444 16.1862 9.1878 1.15574 0 0 1.00003 0.00258097
519 15.4607 9.92668 1.0531 0 0 1.00003 0.00270855
521 16.0022 10.2068 0.252442 0 0 1.00003 0.00266951
438 15.5797 9.24811 0.131057 0 0 1.00003 0.00259686
442 16.7739 9.07299 0.272702 0 0 1.00003 0.00250047
523 16.8087 9.98357 0.985605 0 0 1.00003 0.00261825
448 17.3717 9.06686 1.13541 0 0 1.00003 0.0024973
525 17.4601 10.029 0.203089 0 0 1.00003 0.00256318
527 18.0755 9.85543 1.07478 0 0 1.00003 0.00254824
446 18.036 9.1 0.125777 0 0 1.00003 0.00244213
452 18.5792 8.88783 0.946107 0 0 1.00004 0.00242482
529 18.8962 9.71751 0.305168 0 0 1.00004 0.00248498
531 19.817 9.85702 0.854445 0 0 1.00004 0.00250907
532 19.0426 10.4398 1.1405 0 0 1.00004 0.00258727
1369 18.9573 9.56621 1.69967 0 0 1.00004 0.00253742
450 19.5203 8.92654 0.212908 0 0 1.00004 0.00239594
456 20.1328 8.90539 1.03525 0 0 1.00004 0.00241868
533 20.3288 9.73551 0.0689608 0 0 1.00004 0.00248108
535 21.2935 9.74381 0.74855 0 0 1.00005 0.00251926
1373 20.5799 9.61183 1.63406 0 0 1.00005 0.0025384
454 21.1108 9.00204 0.194078 0 0 1.00005 0.00242424
1374 21.467 10.0414 1.7273 0 0 1.00005 0.00261557
536 20.7727 10.5757 0.79888 0 0 1.00005 0.00258909
460 21.9815 8.94902 0.948917 0 0 1.00005 0.00247201
539 23.2533 9.60615 0.785362 0 0 1.00006 0.00260827
540 22.5265 10.4384 0.816621 0 0 1.00005 0.00264582
1377 22.3378 9.70801 1.48513 0 0 1.00005 0.00260026
537 22.3514 9.72077 0.21573 0 0 1.00005 0.00254981