ITEM: TIMESTEP
14500
ITEM: NUMBER OF ATOMS
32000
ITEM: BOX BOUNDS pp pp pp
0.0000000000000000e+00 3.1748021039364001e+01
0.0000000000000000e+00 3.1748021039364001e+01
0.0000000000000000e+00 3.1748021039364001e+01
ITEM: ATOMS id x y z c_phase c_nbond c_rho vx
4 0.187173 1.10042 0.467194 0 0 1.00002 0.000809099
83 1.0437 1.66848 0.780649 0 0 1.00001 0.000828559
842 0.78642 0.792703 1.4119 0 0 1.00002 0.000822838
921 0.0768842 1.60048 1.3771 0 0 1.00002 0.000830825
3 0.799563 0.0665436 0.619555 0 0 1.00002 0.000805607
8 1.7795 0.815069 1.01584 0 0 1.00001 0.000806787
85 1.871 1.48096 0.219088 0 0 1.00001 0.000808448
925 1.89689 1.66258 1.76112 0 0 1 0.000837707
6 2.58453 0.749376 0.204614 0 0 0.999999 0.000774878
7 2.65404 0.0560258 1.0398 0 0 0.999998 0.000776271
87 2.71358 1.54471 0.883238 0 0 0.999997 0.000789737
846 2.73825 0.820305 1.7468 0 0 0.999997 0.000793666
12 3.492 0.934791 0.96221 0 0 0.999991 0.000743068
849 3.55742 0.0916373 1.71265 0 0 0.99999 0.000747546
929 3.66764 1.71248 1.72475 0 0 0.999989 0.000765561
10 4.1631 0.861565 0.325224 0 0 0.999986 0.000693584
16 5.01337 0.569604 1.17591 0 0 0.999979 0.000636277
93 4.96834 1.60647 0.386545 0 0 0.999979 0.000648371
850 4.39687 0.946716 1.63823 0 0 0.999983 0.000699011
9 3.53349 0.10927 0.173366 0 0 0.999991 0.000725927
14 5.68836 0.647958 0.326259 0 0 0.999975 0.000567934
95 5.92363 1.31851 0.946004 0 0 0.999973 0.000562682
97 6.60657 1.40008 0.220325 0 0 0.99997 0.000488319
854 5.82604 0.46245 1.7086 0 0 0.999974 0.000574826
933 5.0778 1.72988 1.44325 0 0 0.999978 0.000656437
20 6.7435 0.394448 0.872288 0 0 0.99997 0.000466529
937 6.72251 1.01657 1.7044 0 0 0.999969 0.000492389
24 8.27809 0.412108 1.08013 0 0 0.999966 0.000297506
99 7.39016 1.23117 0.960089 0 0 0.999967 0.000407479
101 8.25806 1.39973 0.239035 0 0 0.999966 0.000304506
941 8.14244 1.28086 1.61832 0 0 0.999965 0.000334854
18 7.60143 0.653318 0.143196 0 0 0.999967 0.00036846
22 8.86121 0.511978 0.275666 0 0 0.999966 0.00022139
28 9.54777 0.340496 0.895759 0 0 0.999966 0.000144239
103 9.0269 1.31616 1.11999 0 0 0.999965 0.00022223
105 9.63295 1.38265 0.0919928 0 0 0.999966 0.000141148
32 11.1857 0.217319 0.638642 0 0 0.99997 -4.67913e-05
107 10.3482 1.05467 0.829436 0 0 0.999967 5.62624e-05
866 10.5051 0.198416 1.45532 0 0 0.999968 4.02399e-05
949 11.2602 1.02374 1.42702 0 0 0.99997 -3.88523e-05
946 10.5614 1.68873 1.74084 0 0 0.999967 5.89069e-05
26 10.2289 0.370012 0.0792293 0 0 0.999967 5.89889e-05
36 12.8339 0.214195 0.641609 0 0 0.999979 -0.000210876
111 12.0086 1.0799 0.511958 0 0 0.999973 -0.000127954
870 12.0953 0.318157 1.30832 0 0 0.999974 -0.000133607
953 12.6777 1.20275 1.38068 0 0 0.999977 -0.000181473
40 14.3199 0.324447 0.774343 0 0 0.99999 -0.000320248
115 13.5416 1.11581 0.848228 0 0 0.999983 -0.000260823
117 13.9901 1.56379 0.164898 0 0 0.999987 -0.000291975
874 13.5602 0.36186 1.64223 0 0 0.999983 -0.000258055
957 14.3239 1.15406 1.48317 0 0 0.999989 -0.000305828
119 14.8215 1.55652 0.665461 0 0 0.999994 -0.000336504
44 15.6494 0.76828 0.788797 0 0 1 -0.000376461
123 16.4914 1.54276 0.682144 0 0 1.00001 -0.000383805
878 15.0848 0.46502 1.64441 0 0 0.999996 -0.000348589
882 16.4865 0.710439 1.34285 0 0 1.00001 -0.000386203
961 15.5723 1.48935 1.39433 0 0 1 -0.000359754
38 15.0464 0.71203 0.0672329 0 0 0.999996 -0.000358281
48 17.1997 0.730058 0.550715 0 0 1.00002 -0.000391417
127 17.8672 1.57861 0.755031 0 0 1.00002 -0.000368599
886 17.8599 0.742071 1.42453 0 0 1.00002 -0.000371221
965 17.1603 1.74565 1.5618 0 0 1.00002 -0.000370287
51 19.4912 0.0147099 0.661231 0 0 1.00004 -0.000303203
52 18.7406 0.724009 0.683907 0 0 1.00003 -0.00034428
131 19.4935 1.54801 0.838597 0 0 1.00004 -0.000291182
889 18.9757 0.155729 1.54082 0 0 1.00003 -0.00032727
890 19.5477 0.963387 1.68451 0 0 1.00004 -0.000284527
969 18.6067 1.506 1.49617 0 0 1.00003 -0.000334359
55 21.0622 0.347599 1.06224 0 0 1.00005 -0.000173877
56 20.209 0.772887 0.97431 0 0 1.00004 -0.000245582
135 21.0746 1.64506 0.948269 0 0 1.00005 -0.000158587
54 21.1566 0.761395 0.216897 0 0 1.00005 -0.000166989
133 20.3068 1.50672 0.194804 0 0 1.00004 -0.000234918
57 21.9888 0.261719 0.536376 0 0 1.00006 -8.45477e-05
59 22.7814 0.426878 1.39844 0 0 1.00006 1.26058e-05
60 22.0919 1.14072 1.3221 0 0 1.00006 -5.79962e-05
137 21.9773 1.59013 0.533723 0 0 1.00006 -7.26515e-05
58 22.9064 1.06603 0.443604 0 0 1.00006 2.3304e-05
63 24.2377 0.377204 1.44123 0 0 1.00006 0.00018729
61 23.5662 0.354458 0.570331 0 0 1.00006 9.56557e-05
62 24.4469 1.17808 0.74965 0 0 1.00006 0.000209788
64 23.475 1.24046 1.39341 0 0 1.00006 0.000103795
65 24.9722 0.313466 0.548123 0 0 1.00006 0.000264384
67 26.0375 0.379836 1.16488 0 0 1.00006 0.000393334
68 25.189 1.11836 1.47027 0 0 1.00006 0.000309682
147 25.9604 1.72466 1.3488 0 0 1.00006 0.000408453
66 25.9198 0.92491 0.42845 0 0 1.00006 0.000377921
70 27.6206 1.27496 0.386151 0 0 1.00006 0.000563639
71 27.6606 0.505411 0.870316 0 0 1.00005 0.000561762
72 26.7938 1.02252 1.25552 0 0 1.00006 0.000485719
69 26.8298 0.239125 0.226429 0 0 1.00006 0.000470158
913 28.4318 0.337991 1.39712 0 0 1.00005 0.000636916
76 28.7056 1.23463 0.736668 0 0 1.00005 0.000659776
914 29.4486 0.947653 1.56455 0 0 1.00004 0.000722594
993 28.5781 1.71401 1.49395 0 0 1.00005 0.000671612
917 29.8809 0.17009 1.45661 0 0 1.00004 0.000740535
75 29.3331 0.353676 0.613823 0 0 1.00004 0.000693463
841 31.6585 0.267103 1.2568 0 0 1.00002 0.000805662
79 30.7728 0.484673 0.473409 0 0 1.00003 0.000770652
80 30.1633 1.19597 0.772165 0 0 1.00004 0.000755556
918 30.9321 0.970411 1.39189 0 0 1.00003 0.000795122
82 1.18211 2.43844 0.127006 0 0 1.00001 0.000846656
84 0.206551 2.38195 0.810836 0 0 1.00002 0.000846146
163 1.36122 3.23828 0.948815 0 0 1.00001 0.000886227
922 1.21282 2.36466 1.59245 0 0 1.00001 0.000865465
1001 0.461316 3.0334 1.54969 0 0 1.00002 0.000891079
161 0.405868 3.09895 0.131277 0 0 1.00002 0.000871293
88 1.9812 2.42166 0.786062 0 0 1 0.00083865
167 2.72652 3.2881 0.862516 0 0 0.999997 0.000852382
926 2.73876 2.23815 1.54063 0 0 0.999997 0.000822549
1009 3.32726 3.43424 1.65658 0 0 0.999991 0.000851215
86 2.7909 2.38869 0.0558484 0 0 0.999997 0.000805489
92 3.44539 2.56367 0.783993 0 0 0.999991 0.000785917
91 4.06461 1.84664 0.715158 0 0 0.999986 0.000722802
96 4.96343 2.58306 0.821207 0 0 0.999979 0.000683539
171 4.26053 3.33024 0.754206 0 0 0.999983 0.000767629
930 4.1946 2.65178 1.58932 0 0 0.999984 0.000760017
94 5.69376 2.45601 0.135181 0 0 0.999974 0.000606807
100 6.5915 2.19381 0.779215 0 0 0.999969 0.000515566
175 5.69554 3.21222 0.95997 0 0 0.999973 0.000647153
934 5.90323 2.20842 1.50502 0 0 0.999973 0.000600474
1017 6.55936 3.08447 1.56542 0 0 0.999968 0.000569348
177 6.68298 2.94588 0.135238 0 0 0.999968 0.000527528
98 7.47619 2.23955 0.14128 0 0 0.999967 0.000415915
104 8.09774 2.21595 0.938147 0 0 0.999965 0.000350698
179 7.42685 3.08582 0.940294 0 0 0.999965 0.000461267
938 7.32485 2.07388 1.5795 0 0 0.999967 0.0004485
1021 8.20184 3.02075 1.66499 0 0 0.999963 0.000384787
181 8.28312 2.98902 0.0405918 0 0 0.999964 0.000348365
102 8.90816 2.10102 0.254856 0 0 0.999965 0.000244129
108 9.76571 2.03725 1.11724 0 0 0.999964 0.000149944
183 8.93141 2.99107 0.937116 0 0 0.999963 0.000278741
942 9.03367 2.23575 1.71718 0 0 0.999964 0.000256333
185 9.55762 2.92366 0.214819 0 0 0.999964 0.000192022
106 10.2693 2.12624 0.215732 0 0 0.999966 8.18919e-05
112 11.1336 1.83763 0.776984 0 0 0.999969 -1.94635e-05
187 10.6039 2.82439 0.928633 0 0 0.999965 7.04187e-05
1029 11.4162 2.84658 1.58773 0 0 0.999968 -6.20028e-06
116 12.6326 1.94992 0.598781 0 0 0.999977 -0.000173329
191 11.8948 2.65585 0.746853 0 0 0.999971 -8.12512e-05
950 11.8915 1.93058 1.47507 0 0 0.999972 -8.93854e-05
1033 12.8027 3.0315 1.69809 0 0 0.999976 -0.000140246
195 13.1389 3.03924 0.850714 0 0 0.999979 -0.000187155
954 13.3325 1.99956 1.48768 0 0 0.999981 -0.000221851
114 13.3664 2.30393 0.0588888 0 0 0.999982 -0.000231245
120 13.9689 2.45251 0.928786 0 0 0.999986 -0.000266967
1037 13.9763 3.39532 1.56321 0 0 0.999984 -0.000227478
199 14.6412 3.44371 0.885215 0 0 0.999991 -0.000281064
958 14.7307 2.30423 1.44821 0 0 0.999992 -0.000308937
118 14.7851 2.51795 0.137991 0 0 0.999993 -0.000319887
197 14.1047 3.23261 0.0359826 0 0 0.999987 -0.000260649
124 15.6386 2.44332 0.696342 0 0 1 -0.00035221
203 16.2453 3.20065 0.667054 0 0 1.00001 -0.000347261
962 16.2485 2.47833 1.52582 0 0 1.00001 -0.000354164
1041 15.3147 3.261 1.50578 0 0 0.999997 -0.000307732
201 15.5109 3.26181 0.0222808 0 0 0.999999 -0.000331185
128 17.007 2.35006 0.682683 0 0 1.00001 -0.000370481
207 17.8876 2.92153 0.699779 0 0 1.00002 -0.000341996
966 17.9622 2.43244 1.57981 0 0 1.00002 -0.000340102
1045 17.0317 3.1121 1.49516 0 0 1.00001 -0.0003411
132 18.84 2.3506 1.00959 0 0 1.00003 -0.000314289
211 19.6551 3.22717 1.27118 0 0 1.00004 -0.000237797
209 18.8319 2.98735 0.193665 0 0 1.00003 -0.000305274
130 19.5428 2.3304 0.102251 0 0 1.00004 -0.000277613
973 20.2857 1.77735 1.71802 0 0 1.00004 -0.000216763
134 21.128 2.40421 0.454782 0 0 1.00005 -0.000143624
136 20.1554 2.45515 1.10759 0 0 1.00004 -0.000222372
215 21.2826 3.27758 1.38189 0 0 1.00005 -9.14022e-05
213 20.3833 2.98061 0.331787 0 0 1.00005 -0.000196385
139 22.8639 2.05474 1.49958 0 0 1.00006 4.64976e-05
138 22.964 2.58581 0.729814 0 0 1.00006 6.25481e-05
140 22.076 2.48333 1.22981 0 0 1.00006 -3.31082e-05
217 21.9688 3.18211 0.595167 0 0 1.00006 -3.19325e-05
16179 22.6686 3.38024 0.0732542 0 0 1.00006 4.98487e-05
141 23.7455 1.79653 0.619658 0 0 1.00006 0.000136543
143 24.4402 1.97395 1.59871 0 0 1.00006 0.000239405
142 24.3532 2.66566 0.769201 0 0 1.00006 0.000234368
144 23.6914 2.88266 1.52464 0 0 1.00006 0.000174099
223 24.4884 3.48849 1.5445 0 0 1.00007 0.000296328
16108 24.9751 2.82673 0.0145011 0 0 1.00006 0.000312184
149 26.5853 1.78389 0.508375 0 0 1.00006 0.000469365
145 25.1522 1.84416 0.506997 0 0 1.00006 0.000305914
146 25.8218 2.59596 0.701844 0 0 1.00006 0.00040796
148 25.1811 2.54031 1.51387 0 0 1.00006 0.000342388
227 25.753 3.47696 1.50185 0 0 1.00006 0.000449988
152 26.5747 2.54681 1.52034 0 0 1.00006 0.000506343
229 26.2068 3.48202 0.593349 0 0 1.00006 0.000487257
151 27.5509 1.97562 1.22982 0 0 1.00006 0.000583936
153 28.3039 2.08189 0.342232 0 0 1.00005 0.000644657
150 27.1316 2.6786 0.639433 0 0 1.00006 0.000555575
231 27.2507 3.33704 1.40726 0 0 1.00006 0.000609108
156 28.3094 2.74547 1.19847 0 0 1.00005 0.000678412
233 28.0366 3.20755 0.327237 0 0 1.00005 0.000660808
997 30.0257 1.80357 1.70297 0 0 1.00004 0.000779481
155 29.5088 2.03569 0.878936 0 0 1.00004 0.000738561
154 29.2567 2.65565 0.287779 0 0 1.00005 0.000736863
235 29.3168 3.2522 1.17262 0 0 1.00005 0.000778078
159 30.9806 1.97991 0.922765 0 0 1.00003 0.000811732
160 30.2503 2.705 0.999309 0 0 1.00004 0.000806308
239 31.0993 3.34309 0.972136 0 0 1.00003 0.000868735
998 31.0588 2.6904 1.72459 0 0 1.00003 0.000856756
237 30.1832 3.24628 0.138366 0 0 1.00004 0.000817061
157 30.4764 1.9041 0.028442 0 0 1.00003 0.000781401
158 31.2138 2.6591 0.0761309 0 0 1.00003 0.00083463
164 0.372182 3.783 0.919512 0 0 1.00002 0.000911898
241 0.223409 4.59686 0.478764 0 0 1.00002 0.000950928
243 1.21816 4.67277 0.98854 0 0 1.00001 0.000966991
244 0.175712 5.26549 1.27599 0 0 1.00002 0.00101014
162 1.1185 3.86384 0.06438 0 0 1.00001 0.000909793
168 1.92126 4.05028 0.849816 0 0 1 0.000917137
247 2.61671 4.8668 1.13755 0 0 0.999996 0.000953077
166 2.72239 4.15374 0.206191 0 0 0.999996 0.000890529
245 1.97716 4.97295 0.280894 0 0 1 0.000965262
249 3.48015 4.8747 0.163356 0 0 0.999989 0.000898313
172 3.56014 4.08941 0.890434 0 0 0.999988 0.00085423
176 4.96936 4.01965 1.18746 0 0 0.999977 0.000758376
251 4.11762 4.89713 1.15418 0 0 0.999983 0.000876194
170 4.32066 4.19851 0.14885 0 0 0.999982 0.00080372
253 5.06727 4.76073 0.341704 0 0 0.999976 0.000781056
174 5.82041 3.95742 0.198533 0 0 0.999972 0.000663253
180 6.53064 3.78772 0.78066 0 0 0.999968 0.000589969
255 5.73547 4.75667 1.0354 0 0 0.999971 0.000731205
1097 6.70445 4.53833 1.65873 0 0 0.999965 0.00063892
260 6.72046 5.15984 0.892173 0 0 0.999965 0.000655785
184 8.21565 3.91418 0.708684 0 0 0.999963 0.000403981
259 7.43721 4.48604 0.553591 0 0 0.999963 0.000525256
1018 7.42841 3.89328 1.51077 0 0 0.999963 0.000515216
1101 8.22085 4.63895 1.50156 0 0 0.99996 0.000463941
188 9.89021 3.60047 0.894297 0 0 0.999963 0.000187242
263 9.08492 4.59289 0.830528 0 0 0.99996 0.000337295
265 9.85655 4.5307 0.129018 0 0 0.999961 0.000228784
1022 9.08206 3.78724 1.51256 0 0 0.999961 0.000309754
1105 9.86562 4.37445 1.67231 0 0 0.99996 0.00025158
182 8.99114 3.89098 0.064349 0 0 0.999962 0.000303062
192 11.3809 3.66431 0.787887 0 0 0.999967 1.17226e-05
267 10.5738 4.69109 0.91619 0 0 0.999963 0.000159424
269 11.3603 4.71807 0.232237 0 0 0.999965 5.88395e-05
1026 10.6886 3.58988 1.60234 0 0 0.999964 0.00010688
1109 11.3395 4.39943 1.7202 0 0 0.999965 7.54973e-05
186 10.5673 3.86991 0.177934 0 0 0.999965 0.000108572
196 12.4739 3.59764 0.820502 0 0 0.999974 -0.000105771
271 12.1545 4.57204 1.00874 0 0 0.99997 -2.61188e-05
1113 12.7001 5.01687 1.70263 0 0 0.999972 -3.61451e-05
275 13.1796 4.70025 0.806438 0 0 0.999977 -0.000124292
273 12.5997 4.63796 0.0633428 0 0 0.999973 -7.96927e-05
200 13.9384 4.13892 0.700923 0 0 0.999984 -0.000212626
1034 13.436 4.23433 1.60274 0 0 0.999979 -0.000148947
1117 14.1482 5.13078 1.5302 0 0 0.999983 -0.000162139
279 14.8822 5.02087 0.815314 0 0 0.999991 -0.000232194
1038 14.9078 4.42252 1.59952 0 0 0.999992 -0.000241579
277 14.086 4.91639 0.0644036 0 0 0.999984 -0.000195085
198 14.902 4.19945 0.0997144 0 0 0.999993 -0.000274726
204 15.6067 4.06952 0.926572 0 0 1 -0.000301242
281 15.8149 4.77678 0.187497 0 0 1 -0.000287684
283 16.5315 4.57929 0.900759 0 0 1.00001 -0.000300649
1042 16.2581 3.95934 1.69045 0 0 1.00001 -0.000304269
1121 15.7499 5.05388 1.64466 0 0 1 -0.000244972
208 17.2095 3.82825 0.810096 0 0 1.00002 -0.000328597
287 18.027 4.47789 1.09422 0 0 1.00002 -0.000282797
1046 17.8949 3.63069 1.652 0 0 1.00002 -0.000305849
285 17.3926 4.57047 0.0164647 0 0 1.00002 -0.000305859
206 18.0785 3.84466 0.0606816 0 0 1.00003 -0.000313648
212 18.8231 3.69549 0.94813 0 0 1.00003 -0.000279137
289 18.7701 4.59587 0.359945 0 0 1.00003 -0.000256137
291 19.6416 4.65792 1.07862 0 0 1.00004 -0.000189757
292 18.7299 5.26085 1.19447 0 0 1.00003 -0.000216573
210 19.5516 3.75186 0.228192 0 0 1.00004 -0.000238881
216 20.3999 3.80324 1.22594 0 0 1.00005 -0.000160046
295 20.8512 4.6942 1.38254 0 0 1.00005 -7.61745e-05
297 21.5563 4.92496 0.80159 0 0 1.00006 -4.13118e-06
214 21.0537 3.91156 0.508762 0 0 1.00005 -0.000104559
293 20.0955 4.76493 0.347779 0 0 1.00005 -0.000158438
219 22.8137 3.60778 1.40891 0 0 1.00006 9.27224e-05
220 21.921 4.10878 1.29982 0 0 1.00006 7.93458e-06
299 22.4614 5.1451 1.26111 0 0 1.00006 0.000120228
218 22.6035 4.32127 0.50728 0 0 1.00006 8.40351e-05
221 23.5762 3.61551 0.775407 0 0 1.00006 0.00017415
222 24.3505 4.29542 0.619344 0 0 1.00007 0.000299038
224 23.471 4.52037 1.32159 0 0 1.00007 0.000213842
305 24.8779 5.22581 0.560338 0 0 1.00007 0.000416571
301 23.5564 5.03493 0.527396 0 0 1.00007 0.00023551
228 25.0357 4.47113 1.60725 0 0 1.00007 0.000416989
303 24.3816 5.25714 1.41874 0 0 1.00007 0.000373886
225 25.0861 3.65562 0.79391 0 0 1.00007 0.00036373
307 25.7292 5.11 1.331 0 0 1.00007 0.000531365
232 26.4011 4.26628 1.36126 0 0 1.00006 0.000562412
309 26.5493 4.94783 0.635281 0 0 1.00006 0.0006026
226 25.5608 4.37647 0.386402 0 0 1.00007 0.000450627
311 27.3871 4.84654 1.3945 0 0 1.00006 0.0007039
236 28.0201 3.95777 1.09806 0 0 1.00006 0.000705627
313 28.3413 4.71764 0.700856 0 0 1.00005 0.00077101
230 27.1155 4.02178 0.568446 0 0 1.00006 0.000611586
234 28.9964 3.75914 0.481478 0 0 1.00005 0.000767846
315 29.1569 4.50734 1.32222 0 0 1.00005 0.000836933
240 30.0699 4.05615 1.02274 0 0 1.00004 0.000861814
238 31.1057 3.97334 0.367659 0 0 1.00003 0.000894099
317 30.283 4.67343 0.483609 0 0 1.00004 0.000901617
319 31.0592 4.59639 1.40208 0 0 1.00003 0.000948241
242 0.99583 5.5324 0.46215 0 0 1.00001 0.00101733
248 1.61967 5.51706 1.38103 0 0 1.00001 0.00103239
323 0.888409 6.21656 1.2776 0 0 1.00001 0.00108612
324 0.351088 6.92071 1.5046 0 0 1.00002 0.00114691
322 1.06703 6.94589 0.572036 0 0 1.00001 0.00112612
321 0.0674798 5.99552 0.447112 0 0 1.00002 0.00104258
328 1.80094 7.03538 1.24406 0 0 1 0.00114273
325 1.98013 6.20791 0.517393 0 0 1 0.00105419
252 3.18943 5.63532 1.30507 0 0 0.99999 0.000987326
327 2.35548 6.16672 1.41629 0 0 0.999998 0.00106388
332 3.34069 6.98121 1.13992 0 0 0.999987 0.00108093
246 2.76337 5.62099 0.275028 0 0 0.999995 0.000984147
329 3.47712 6.29526 0.500628 0 0 0.999987 0.00100131
250 4.26065 5.48142 0.328422 0 0 0.999981 0.000890967
256 4.9996 5.45265 1.32456 0 0 0.999975 0.000853575
331 4.20856 6.11548 1.23767 0 0 0.99998 0.000961184
333 4.89461 6.25744 0.335966 0 0 0.999974 0.000899626
336 4.84766 6.82835 1.17111 0 0 0.999974 0.000967517
330 4.08214 7.04204 0.226094 0 0 0.999981 0.00102156
254 5.83512 5.44305 0.304224 0 0 0.999969 0.000755275
335 5.75051 6.26781 0.97248 0 0 0.999968 0.000838493
1177 6.51073 6.01596 1.61473 0 0 0.999963 0.000765085
340 6.48791 6.90192 1.01829 0 0 0.999962 0.000814456
337 6.43084 6.07481 0.155706 0 0 0.999965 0.000738993
264 8.23423 5.34457 0.703684 0 0 0.999959 0.000487796
339 7.3638 6.1892 0.76447 0 0 0.99996 0.000653848
1098 7.42783 5.44795 1.50905 0 0 0.999961 0.000614954
1181 8.26341 6.14557 1.51211 0 0 0.999956 0.000567874
344 8.04561 6.88948 0.739413 0 0 0.999956 0.00062346
1178 7.32673 6.89709 1.61816 0 0 0.999957 0.000748414
258 7.36296 5.38618 0.0464301 0 0 0.999962 0.000586455
268 9.76648 5.35077 0.802827 0 0 0.999959 0.000297017
343 8.8958 6.22229 0.747239 0 0 0.999956 0.000467725
1102 9.0638 5.35983 1.61437 0 0 0.999957 0.000414308
1185 9.74106 6.22413 1.48829 0 0 0.999956 0.000384369
1182 9.10804 6.98955 1.48463 0 0 0.999953 0.000527068
345 9.76298 6.26576 0.0970497 0 0 0.999958 0.000350209
262 9.00766 5.49702 0.0157284 0 0 0.999958 0.000393695
272 11.3652 5.30068 0.997449 0 0 0.999964 0.000103872
347 10.5728 6.0543 0.975327 0 0 0.999959 0.000246393
349 11.2909 6.40091 0.0795497 0 0 0.999961 0.000167829
346 10.5103 6.97676 0.156626 0 0 0.999957 0.00030356
1186 10.4624 6.96328 1.51785 0 0 0.999955 0.000352459
270 11.9657 5.65163 0.185988 0 0 0.999967 4.08251e-05
276 12.6351 5.83985 0.870737 0 0 0.999971 -7.69854e-06
351 11.7481 6.23772 1.06544 0 0 0.999963 0.000119183
1114 13.2773 5.88828 1.57101 0 0 0.999974 -4.48001e-05
355 13.3046 6.60244 0.820058 0 0 0.999974 -2.92954e-05
274 13.2722 5.55809 0.0437109 0 0 0.999976 -9.77672e-05
280 14.0083 5.732 0.77917 0 0 0.999982 -0.000140554
1197 14.2699 6.66733 1.41897 0 0 0.999982 -8.34102e-05
357 14.0756 6.40098 0.0397086 0 0 0.999981 -0.000117907
278 14.9642 5.6499 0.0364554 0 0 0.999992 -0.000214899
359 14.9857 6.46078 0.810749 0 0 0.99999 -0.000162791
284 15.7674 5.74101 0.958049 0 0 1 -0.000231866
363 16.4264 6.45212 1.14291 0 0 1.00001 -0.000202882
1118 15.0468 5.88414 1.7047 0 0 0.999991 -0.000167677
282 16.5569 5.41777 0.27617 0 0 1.00001 -0.000273031
361 15.6135 6.34478 0.0412983 0 0 0.999998 -0.000208564
286 17.7681 5.29443 0.539701 0 0 1.00002 -0.000265255
288 17.0488 5.41994 1.24617 0 0 1.00001 -0.000256633
365 17.0008 6.27055 0.410656 0 0 1.00001 -0.00023209
367 17.603 6.23699 1.37978 0 0 1.00002 -0.00020213
372 18.2155 7.03778 1.1292 0 0 1.00003 -0.000146591
369 18.3155 6.21644 0.608453 0 0 1.00003 -0.00020151
290 19.3817 5.73705 0.616024 0 0 1.00004 -0.000166477
371 19.277 6.53498 1.33816 0 0 1.00004 -0.000112441
373 19.9523 6.72499 0.604487 0 0 1.00005 -7.03001e-05
294 20.7179 5.74812 0.646414 0 0 1.00005 -5.25167e-05
296 20.1507 5.58519 1.38412 0 0 1.00005 -9.67463e-05
375 20.7466 6.58122 1.28951 0 0 1.00005 1.47324e-05
377 21.6389 6.63011 0.659089 0 0 1.00006 9.52541e-05
300 21.6418 5.84573 1.36869 0 0 1.00006 6.86783e-05
16260 21.671 5.70318 0.0518848 0 0 1.00006 4.05736e-05
298 22.6675 5.79689 0.663893 0 0 1.00006 0.000169394
379 22.6283 6.65648 1.19108 0 0 1.00007 0.000232968
381 23.3559 6.74274 0.264387 0 0 1.00007 0.000308946
304 23.4904 5.85105 1.28276 0 0 1.00007 0.000292185
383 24.3439 6.52805 1.14497 0 0 1.00007 0.000445573
302 24.1622 5.97228 0.420804 0 0 1.00007 0.000366798
306 25.7244 5.83166 0.69115 0 0 1.00007 0.000561737
308 25.146 6.00566 1.65655 0 0 1.00007 0.000530547
385 25.1955 6.70521 0.487879 0 0 1.00007 0.000550498
387 25.8758 6.56264 1.39103 0 0 1.00007 0.000653544
312 26.7451 5.8177 1.46073 0 0 1.00007 0.000702906
310 27.5592 5.5211 0.714358 0 0 1.00006 0.000749311
389 26.8053 6.33763 0.642567 0 0 1.00007 0.000723298
391 27.7697 6.44508 1.35381 0 0 1.00006 0.00085309
390 27.7819 6.98147 0.523157 0 0 1.00006 0.000872352
316 28.4367 5.50224 1.47291 0 0 1.00005 0.000851204
314 29.4644 5.29492 0.811973 0 0 1.00005 0.000897129
395 29.5204 6.16891 1.31405 0 0 1.00005 0.000977285
394 29.6658 6.89057 0.504494 0 0 1.00005 0.00102205
393 28.5442 6.18685 0.635791 0 0 1.00005 0.000886991
16355 29.4554 6.13315 0.0769351 0 0 1.00005 0.000946313
16276 28.5519 5.37317 0.0554118 0 0 1.00005 0.000825774
318 31.049 5.35913 0.592996 0 0 1.00003 0.000979996
320 30.3012 5.44683 1.45857 0 0 1.00004 0.000974392
397 30.4813 6.17294 0.644947 0 0 1.00004 0.00101537
399 31.309 6.14753 1.3809 0 0 1.00003 0.00106448
398 31.2971 6.94622 0.603542 0 0 1.00003 0.0011058
401 0.362713 7.63309 0.659218 0 0 1.00002 0.0011785
402 0.942724 8.46846 0.615606 0 0 1.00001 0.00125002
403 1.21408 7.8631 1.49799 0 0 1.00001 0.00123041
404 0.464479 8.55845 1.46856 0 0 1.00002 0.00128541
405 1.69423 7.77094 0.375559 0 0 1.00001 0.00118268
408 1.83424 8.6272 1.46875 0 0 1 0.00128683
326 2.5779 7.15893 0.476342 0 0 0.999996 0.00111143
406 2.30034 8.63963 0.401931 0 0 0.999998 0.0012407
407 2.49431 7.823 1.28498 0 0 0.999996 0.0011924
412 3.11742 8.53267 0.944765 0 0 0.999988 0.00121564
409 3.33502 7.7848 0.330353 0 0 0.999987 0.00112647
410 3.90707 8.47996 0.0818008 0 0 0.99998 0.00115038
411 4.06811 7.68358 1.25278 0 0 0.99998 0.00109949
416 4.78703 8.28639 0.936773 0 0 0.999972 0.00108791
413 4.75209 7.6639 0.247408 0 0 0.999973 0.00102211
334 5.61406 7.07836 0.150973 0 0 0.999968 0.000899784
414 5.93996 8.37894 0.17473 0 0 0.999962 0.000976014
415 5.55621 7.6159 1.04102 0 0 0.999967 0.000968369
417 6.54862 7.57305 0.172085 0 0 0.99996 0.000844967
420 6.46058 8.26535 1.05974 0 0 0.999959 0.000933278
419 7.33374 7.80292 0.759126 0 0 0.999956 0.00078639
424 8.31739 8.35276 0.885348 0 0 0.999951 0.000717118
1258 7.33042 8.21736 1.72611 0 0 0.999953 0.000869973
1261 8.08926 7.52622 1.58359 0 0 0.999953 0.00070843
421 8.03344 7.63977 0.0292156 0 0 0.999954 0.000675313
348 9.8439 7.25731 0.736734 0 0 0.999954 0.000423603
423 8.93236 7.65323 0.67372 0 0 0.999952 0.000571488
428 9.74184 8.65694 0.708018 0 0 0.99995 0.000547572
1262 9.11455 8.73873 1.47289 0 0 0.999948 0.00067971
1265 9.65541 7.92795 1.6261 0 0 0.99995 0.000545819
352 11.2932 7.1757 0.822212 0 0 0.999959 0.000234327
427 10.5671 7.98018 0.858858 0 0 0.999953 0.000389467
1266 10.5842 8.74363 1.45383 0 0 0.999951 0.000482485
1269 11.3852 7.84395 1.62706 0 0 0.999956 0.000313214
429 11.2096 8.15257 0.0451201 0 0 0.999957 0.00030029
356 12.6667 7.31253 0.575108 0 0 0.999968 7.61976e-05
431 12.1463 8.26344 0.602627 0 0 0.999961 0.000204537
1190 12.0376 7.18974 1.39774 0 0 0.999962 0.00016886
1270 12.0597 8.71425 1.5164 0 0 0.999958 0.000295112
1273 12.8184 8.02647 1.49639 0 0 0.999965 0.000150822
360 14.275 7.37016 0.59381 0 0 0.999982 -6.78235e-05
435 13.5661 8.11614 0.473965 0 0 0.999973 3.81844e-05
1194 13.4138 7.36278 1.35876 0 0 0.999972 3.25407e-05
1277 14.1935 8.1981 1.36676 0 0 0.999978 2.51102e-05
439 15.0101 8.30375 0.871196 0 0 0.999988 -4.74398e-05
362 16.3692 7.18379 0.280054 0 0 1.00001 -0.000180871
364 15.5668 7.31593 0.92225 0 0 0.999996 -0.00013695
443 16.1972 8.16115 1.11299 0 0 1 -9.49317e-05
1198 15.0811 7.5333 1.63846 0 0 0.999989 -6.47081e-05
441 15.7985 8.31604 0.154365 0 0 0.999998 -0.000100287
368 16.9137 7.35561 1.11559 0 0 1.00001 -0.000154196
445 17.0011 8.09997 0.337991 0 0 1.00001 -0.000130836
447 17.6453 8.01329 1.02547 0 0 1.00002 -0.000108742
366 17.7562 7.1567 0.215674 0 0 1.00002 -0.0001759
370 18.955 7.31676 0.636748 0 0 1.00004 -0.000108285
451 18.8755 8.13147 1.17489 0 0 1.00004 -4.39425e-05
376 19.8293 7.6287 1.31128 0 0 1.00005 -3.27269e-06
453 19.7601 8.11374 0.356887 0 0 1.00005 -7.74015e-06
449 18.394 8.173 0.172463 0 0 1.00003 -9.46597e-05
374 20.6673 7.42971 0.663319 0 0 1.00005 3.90903e-05
455 20.6171 8.40635 1.02128 0 0 1.00006 0.000108224
380 21.5239 7.63642 1.13305 0 0 1.00006 0.000161051
457 21.5952 8.30871 0.255316 0 0 1.00006 0.000190027
459 22.5878 8.14004 1.00288 0 0 1.00007 0.000323022
1218 22.4146 7.46094 1.73335 0 0 1.00007 0.000287576
378 22.3301 7.44795 0.380418 0 0 1.00007 0.000224708
384 23.4574 7.28467 1.03806 0 0 1.00007 0.000376404
461 23.5023 8.03825 0.378426 0 0 1.00007 0.000419863
463 24.3743 8.06101 0.984746 0 0 1.00007 0.000554935
1302 24.2866 8.67995 1.66174 0 0 1.00008 0.000629732
382 24.3636 7.28812 0.265923 0 0 1.00007 0.000478516
462 24.3452 8.78635 0.204969 0 0 1.00008 0.000586301
388 25.1573 7.35738 1.23677 0 0 1.00007 0.000616196
467 26.0778 7.97189 0.976071 0 0 1.00007 0.000770019
1306 26.082 8.59088 1.73174 0 0 1.00007 0.00086346
386 26.1427 7.24327 0.364098 0 0 1.00007 0.000705871
465 25.2719 8.09291 0.303988 0 0 1.00007 0.000659715
466 26.3337 8.55247 0.0881789 0 0 1.00007 0.000828544
392 26.8479 7.08175 1.32714 0 0 1.00007 0.000805289
470 28.0474 8.47867 0.420825 0 0 1.00006 0.00101561
471 27.8774 7.80879 1.20115 0 0 1.00006 0.00096784
472 27.0513 8.62431 1.01221 0 0 1.00007 0.00094073
469 27.0643 7.75312 0.428575 0 0 1.00007 0.000853617
396 28.7334 7.08937 1.22025 0 0 1.00005 0.000987016
474 29.6921 8.3426 0.539775 0 0 1.00005 0.00114034
475 29.5914 7.66129 1.26935 0 0 1.00005 0.00109782
476 28.8717 8.53573 1.17542 0 0 1.00006 0.00111512
473 28.7824 7.69982 0.412275 0 0 1.00005 0.00101938
400 30.4202 7.07923 1.17505 0 0 1.00004 0.00109567
479 31.3519 7.81495 1.29712 0 0 1.00003 0.00119754
480 30.5347 8.47895 1.17986 0 0 1.00004 0.00121689
477 30.7359 7.86323 0.379801 0 0 1.00004 0.00115444
478 31.5323 8.61446 0.390321 0 0 1.00003 0.00124312
482 1.23923 10.2856 0.272253 0 0 1.00001 0.00139065
483 1.13084 9.37493 1.20473 0 0 1.00001 0.0013459
484 0.372676 9.92953 0.898839 0 0 1.00002 0.00137432
481 0.480019 9.33683 0.123434 0 0 1.00002 0.00131289
1322 0.933843 10.1281 1.75372 0 0 1.00001 0.00144132
485 1.86545 9.45722 0.451311 0 0 1 0.00132068
488 1.9435 10.374 0.973487 0 0 1 0.00140735
486 2.70157 10.287 0.0821997 0 0 0.999992 0.00135728
487 2.48341 9.45685 1.22699 0 0 0.999995 0.00132995
1326 2.88423 10.2471 1.67757 0 0 0.999989 0.00140941
1329 3.3115 9.25628 1.67009 0 0 0.999985 0.00130496
489 3.17644 9.38252 0.084907 0 0 0.999987 0.00126637
492 3.48457 10.0529 0.742229 0 0 0.999983 0.00131737
491 4.02847 9.13034 0.864213 0 0 0.999978 0.00121327
493 4.66374 9.20806 0.00730531 0 0 0.999972 0.00115789
496 4.69761 10.0022 0.577435 0 0 0.99997 0.00123006
1330 4.22336 9.99201 1.62908 0 0 0.999975 0.00131462
1333 4.76438 9.0925 1.66442 0 0 0.99997 0.00119947
495 5.4093 8.97549 0.668225 0 0 0.999965 0.00108659
500 6.31123 9.82555 0.523636 0 0 0.999956 0.00106631
1334 5.40287 9.86029 1.18175 0 0 0.999964 0.00118307
1337 6.22458 9.0885 1.27626 0 0 0.999958 0.00104301
1417 6.31538 10.5428 1.20649 0 0 0.999955 0.00115555
499 7.22004 8.9153 0.723132 0 0 0.999953 0.0008948
501 8.13536 9.08339 0.0842972 0 0 0.99995 0.000783185
504 8.00669 9.961 0.587385 0 0 0.999948 0.00088087
1338 7.23646 9.77313 1.21253 0 0 0.999951 0.000989005
1341 8.08897 9.20431 1.42158 0 0 0.999948 0.000850328
503 8.96731 9.49032 0.740634 0 0 0.999947 0.000724258
508 9.66293 10.371 0.673392 0 0 0.999945 0.000699758
1342 8.78748 10.3003 1.43341 0 0 0.999944 0.000858245
1345 9.84389 9.62604 1.43787 0 0 0.999946 0.00065762
432 11.3554 8.88104 0.744647 0 0 0.999955 0.000353881
426 10.402 8.92029 0.0413197 0 0 0.999951 0.000467302
507 10.4651 9.71674 0.668771 0 0 0.999948 0.000537757
1346 10.6353 10.2074 1.66338 0 0 0.999946 0.000620902
1349 11.2934 9.66731 1.33942 0 0 0.999951 0.00045994
436 12.9607 8.98787 0.797038 0 0 0.999965 0.00017218
511 12.08 9.8428 0.69859 0 0 0.999956 0.000336128
516 12.7845 10.5006 0.973985 0 0 0.99996 0.000313583
1353 12.5157 9.64564 1.63453 0 0 0.999958 0.000329361
1274 13.6405 8.86883 1.58448 0 0 0.99997 0.000140771
440 14.4101 9.21123 0.767377 0 0 0.99998 5.1572e-05
515 13.4862 9.70629 0.847168 0 0 0.999968 0.000173058
1354 13.4557 10.4357 1.72854 0 0 0.999964 0.00029805
517 14.2184 10.1657 0.219364 0 0 0.999976 0.000115868
444 15.8372 9.16292 1.13947 0 0 0.999997 -1.49023e-05
519 15.0736 9.87055 1.01861 0 0 0.999986 6.38372e-05
521 15.6284 10.1856 0.253019 0 0 0.999993 2.60092e-05
523 16.4441 9.95886 0.963694 0 0 1 1.23868e-05
442 16.4457 9.03413 0.262085 0 0 1.00001 -7.06663e-05
438 15.2362 9.21415 0.10017 0 0 0.999989 -1.84596e-05
452 18.2454 8.88487 0.939749 0 0 1.00003 -3.71065e-05
448 17.0329 9.06369 1.12717 0 0 1.00001 -4.26177e-05
525 17.095 10.0215 0.206641 0 0 1.00001 -1.40251e-05
527 17.7189 9.86052 1.06919 0 0 1.00002 1.63087e-05
446 17.7063 9.09953 0.117814 0 0 1.00002 -6.31734e-05
456 19.7843 8.93748 1.05484 0 0 1.00005 7.09034e-05
529 18.5478 9.72041 0.299176 0 0 1.00003 1.02993e-05
531 19.4658 9.87936 0.846172 0 0 1.00004 9.59975e-05
532 18.6754 10.4425 1.13916 0 0 1.00003 9.78872e-05
1369 18.6072 9.57234 1.70165 0 0 1.00003 7.71643e-05
450 19.1974 8.94417 0.209917 0 0 1.00004 -1.85742e-06
533 19.9567 9.76598 0.0717388 0 0 1.00005 0.000111635
535 20.9124 9.78556 0.745828 0 0 1.00006 0.000224943
1373 20.2201 9.64195 1.65841 0 0 1.00005 0.00020105
454 20.7673 9.0557 0.20445 0 0 1.00006 0.000146286
460 21.6208 9.00865 0.969506 0 0 1.00007 0.00026144
1298 22.4013 8.85871 1.57164 0 0 1.00007 0.000382715
539 22.8445 9.6622 0.796481 0 0 1.00007 0.000459822
540 22.1038 10.5001 0.862402 0 0 1.00007 0.000423126