ITEM: TIMESTEP
43000
ITEM: NUMBER OF ATOMS
32000
ITEM: BOX BOUNDS pp pp pp
0.0000000000000000e+00 3.1748021039364001e+01
0.0000000000000000e+00 3.1748021039364001e+01
0.0000000000000000e+00 3.1748021039364001e+01
ITEM: ATOMS id x y z c_phase c_nbond c_rho vx
4 0.67497 1.09137 0.480712 0 0 1.00005 0.00272832
83 1.53903 1.66411 0.792314 0 0 1.00005 0.00278258
842 1.29556 0.787124 1.40328 0 0 1.00005 0.00276595
921 0.581869 1.59203 1.39137 0 0 1.00005 0.002757
3 1.29539 0.076493 0.632676 0 0 1.00005 0.00274219
841 0.404283 0.270418 1.25859 0 0 1.00005 0.00271825
8 2.28458 0.839396 1.0135 0 0 1.00005 0.00278509
85 2.37826 1.50374 0.201706 0 0 1.00005 0.00279263
925 2.42856 1.65724 1.74741 0 0 1.00005 0.00283151
6 3.07564 0.738296 0.201751 0 0 1.00005 0.00278505
7 3.13791 0.0641769 1.04102 0 0 1.00005 0.00279035
87 3.20918 1.55135 0.873199 0 0 1.00005 0.00281442
846 3.25439 0.83541 1.73824 0 0 1.00005 0.00281995
5 2.28736 0.00217022 0.162237 0 0 1.00005 0.00276581
12 3.97746 0.920639 0.975594 0 0 1.00005 0.00280214
849 4.0388 0.0795127 1.73017 0 0 1.00005 0.00281328
929 4.16855 1.71686 1.72322 0 0 1.00005 0.00284616
10 4.65826 0.863403 0.317503 0 0 1.00005 0.00278458
850 4.86243 0.948334 1.65918 0 0 1.00005 0.00281346
9 4.00768 0.0981428 0.185035 0 0 1.00005 0.00278121
93 5.45252 1.61251 0.392911 0 0 1.00004 0.00279128
16 5.50849 0.572765 1.15559 0 0 1.00004 0.00277714
14 6.15705 0.650293 0.316172 0 0 1.00004 0.00274557
95 6.3854 1.33724 0.976679 0 0 1.00004 0.00276171
854 6.30424 0.465183 1.73242 0 0 1.00004 0.0027685
933 5.5432 1.72233 1.45986 0 0 1.00004 0.00281476
97 7.05107 1.42547 0.22339 0 0 1.00004 0.0027251
20 7.1828 0.412581 0.894587 0 0 1.00004 0.00270744
937 7.17422 1.03651 1.72864 0 0 1.00004 0.00274201
99 7.81904 1.25632 0.965232 0 0 1.00004 0.00269183
18 8.01661 0.671357 0.163623 0 0 1.00004 0.00265729
941 8.56501 1.2966 1.65396 0 0 1.00004 0.0026698
101 8.66225 1.41848 0.241652 0 0 1.00004 0.00263638
24 8.67381 0.424255 1.08332 0 0 1.00004 0.00262805
22 9.24199 0.518107 0.261063 0 0 1.00004 0.00257847
28 9.92002 0.337321 0.925846 0 0 1.00004 0.00253664
103 9.4059 1.3366 1.11466 0 0 1.00004 0.00259831
105 9.99333 1.38457 0.106747 0 0 1.00004 0.00254273
32 11.4983 0.221312 0.662327 0 0 1.00004 0.00240992
107 10.6991 1.07797 0.848338 0 0 1.00004 0.00248866
866 10.8447 0.211862 1.48555 0 0 1.00004 0.00248037
949 11.5982 1.03198 1.45008 0 0 1.00003 0.00243126
946 10.9119 1.72396 1.75784 0 0 1.00003 0.00251818
26 10.579 0.372914 0.0817682 0 0 1.00004 0.00247821
36 13.1203 0.225117 0.656714 0 0 1.00003 0.00227947
111 12.2988 1.09658 0.533188 0 0 1.00003 0.0023564
870 12.3945 0.321862 1.33783 0 0 1.00003 0.00235329
953 12.9707 1.20992 1.40738 0 0 1.00003 0.00232317
40 14.5733 0.345347 0.805299 0 0 1.00004 0.00217231
115 13.8034 1.12521 0.860007 0 0 1.00003 0.00224309
117 14.2584 1.57515 0.153634 0 0 1.00003 0.00221218
874 13.8378 0.369232 1.66406 0 0 1.00003 0.00224862
957 14.5821 1.17568 1.50814 0 0 1.00003 0.00220208
119 15.0739 1.56872 0.675687 0 0 1.00004 0.00216012
38 15.276 0.71495 0.0667861 0 0 1.00004 0.00212139
44 15.8861 0.763178 0.793994 0 0 1.00004 0.00209131
123 16.7097 1.54602 0.689233 0 0 1.00004 0.00206503
878 15.3285 0.469637 1.65671 0 0 1.00004 0.00214386
882 16.707 0.709543 1.35384 0 0 1.00004 0.00205938
961 15.8036 1.50723 1.41026 0 0 1.00004 0.00212838
48 17.4253 0.727697 0.56527 0 0 1.00004 0.00201382
127 18.0873 1.58479 0.754938 0 0 1.00004 0.00201457
886 18.0784 0.747094 1.42546 0 0 1.00004 0.00200992
965 17.3853 1.74587 1.56821 0 0 1.00004 0.00206193
51 19.7095 0.00848986 0.663532 0 0 1.00004 0.00196758
52 18.9553 0.728543 0.68868 0 0 1.00004 0.00197721
131 19.7185 1.54079 0.837602 0 0 1.00004 0.00199288
889 19.1857 0.148471 1.54091 0 0 1.00004 0.00198714
890 19.7764 0.960822 1.68443 0 0 1.00004 0.00199946
969 18.8401 1.49723 1.49763 0 0 1.00004 0.00201227
129 19.0342 1.57354 0.00147776 0 0 1.00004 0.00199024
55 21.3257 0.342834 1.05885 0 0 1.00005 0.00199766
56 20.4374 0.768403 0.963806 0 0 1.00005 0.0019834
135 21.3151 1.61628 0.951819 0 0 1.00005 0.00202024
54 21.3915 0.757937 0.210644 0 0 1.00005 0.00199452
133 20.538 1.49563 0.204087 0 0 1.00005 0.00199146
973 20.5264 1.75665 1.72104 0 0 1.00005 0.00202782
57 22.2513 0.271704 0.529255 0 0 1.00005 0.00202264
59 23.0699 0.422042 1.37958 0 0 1.00005 0.00207814
60 22.3627 1.1371 1.31192 0 0 1.00005 0.00205396
137 22.2347 1.58045 0.513613 0 0 1.00005 0.00204518
58 23.1798 1.0358 0.457542 0 0 1.00005 0.00207718
63 24.5852 0.370794 1.39721 0 0 1.00005 0.00217437
61 23.8664 0.343616 0.567577 0 0 1.00005 0.00210986
62 24.7623 1.15212 0.735292 0 0 1.00005 0.0021848
64 23.7881 1.21287 1.37269 0 0 1.00005 0.00213409
65 25.3176 0.31042 0.534906 0 0 1.00005 0.0022124
67 26.3978 0.366264 1.1519 0 0 1.00006 0.00230654
68 25.5331 1.10705 1.4356 0 0 1.00006 0.00225791
147 26.3317 1.70591 1.32798 0 0 1.00006 0.00233485
66 26.2812 0.927257 0.413783 0 0 1.00006 0.00229365
70 28.0343 1.2625 0.377142 0 0 1.00006 0.00244429
71 28.0715 0.488599 0.86255 0 0 1.00006 0.00243914
72 27.1772 1.01054 1.23222 0 0 1.00006 0.00238227
69 27.2096 0.23987 0.237818 0 0 1.00006 0.00235826
149 26.974 1.75805 0.504925 0 0 1.00006 0.00237402
913 28.8799 0.346235 1.40499 0 0 1.00006 0.00251318
76 29.1406 1.20532 0.716345 0 0 1.00006 0.00253242
914 29.8813 0.962475 1.55268 0 0 1.00006 0.00260139
993 29.0049 1.70742 1.49156 0 0 1.00006 0.00255466
75 29.7829 0.347971 0.614169 0 0 1.00006 0.00256407
917 30.3645 0.159718 1.43816 0 0 1.00006 0.00262133
79 31.2674 0.457312 0.487246 0 0 1.00005 0.00265965
80 30.6194 1.1796 0.764621 0 0 1.00006 0.00263788
918 31.4041 0.966911 1.38258 0 0 1.00005 0.00269338
82 1.68394 2.43421 0.114084 0 0 1.00005 0.00281322
84 0.709894 2.37364 0.804286 0 0 1.00005 0.00278114
1001 0.968332 3.03647 1.55067 0 0 1.00005 0.0028495
161 0.906416 3.1067 0.128294 0 0 1.00005 0.00282246
922 1.72351 2.36538 1.59148 0 0 1.00005 0.00283993
163 1.86865 3.21906 0.941221 0 0 1.00005 0.00287376
88 2.49455 2.413 0.792745 0 0 1.00005 0.00283918
167 3.239 3.29486 0.860543 0 0 1.00005 0.00290241
926 3.26281 2.26229 1.55912 0 0 1.00005 0.00286269
86 3.28953 2.40106 0.0532055 0 0 1.00005 0.00284207
1005 2.69796 3.10938 1.75799 0 0 1.00005 0.00291097
1009 3.86555 3.42535 1.6675 0 0 1.00005 0.00293825
92 3.95256 2.58009 0.79921 0 0 1.00005 0.00286036
91 4.55772 1.84305 0.725043 0 0 1.00005 0.00281998
171 4.76403 3.35078 0.770023 0 0 1.00004 0.00289873
930 4.71582 2.66521 1.60015 0 0 1.00004 0.00288069
96 5.4452 2.58818 0.836617 0 0 1.00004 0.00284173
94 6.16904 2.4789 0.146462 0 0 1.00004 0.00280515
175 6.19102 3.24126 0.975922 0 0 1.00004 0.00286113
934 6.37511 2.24406 1.5163 0 0 1.00004 0.0028127
173 5.53071 3.35736 0.0158891 0 0 1.00004 0.00287735
1017 7.04967 3.11379 1.57507 0 0 1.00004 0.00283598
100 7.0516 2.22266 0.798412 0 0 1.00004 0.00276411
177 7.13289 2.99386 0.133297 0 0 1.00004 0.00279408
98 7.90975 2.26752 0.140784 0 0 1.00004 0.00271507
179 7.88333 3.11063 0.935962 0 0 1.00004 0.00277497
938 7.77459 2.10288 1.60038 0 0 1.00004 0.00274465
104 8.53569 2.23897 0.960156 0 0 1.00004 0.00268758
1021 8.64682 3.05136 1.68898 0 0 1.00004 0.00274949
181 8.71497 3.02081 0.0463976 0 0 1.00004 0.00270719
102 9.31689 2.14201 0.257022 0 0 1.00004 0.00262029
183 9.34692 3.02518 0.958755 0 0 1.00004 0.00267811
942 9.44108 2.26441 1.75052 0 0 1.00004 0.00265343
185 9.96112 2.96642 0.212517 0 0 1.00004 0.00261783
108 10.1496 2.06225 1.12018 0 0 1.00004 0.00257104
106 10.6321 2.15131 0.207324 0 0 1.00004 0.00252342
112 11.4737 1.873 0.793026 0 0 1.00003 0.00245242
187 10.968 2.8578 0.941303 0 0 1.00003 0.0025439
1029 11.7605 2.88729 1.62494 0 0 1.00003 0.00250546
116 12.9311 1.97254 0.618112 0 0 1.00003 0.00233489
191 12.2246 2.69988 0.757719 0 0 1.00003 0.00243002
950 12.2215 1.95818 1.50078 0 0 1.00003 0.00241224
1033 13.1236 3.06701 1.72822 0 0 1.00003 0.002408
195 13.4607 3.06146 0.852744 0 0 1.00003 0.00235135
954 13.6261 2.02555 1.50725 0 0 1.00003 0.00230234
114 13.6507 2.33412 0.0550512 0 0 1.00003 0.0022892
120 14.2465 2.47688 0.93306 0 0 1.00003 0.00226049
1037 14.275 3.43226 1.58286 0 0 1.00003 0.0023347
199 14.9277 3.46766 0.885554 0 0 1.00003 0.00226849
958 15.009 2.33177 1.45225 0 0 1.00003 0.00221218
118 15.0443 2.52962 0.140116 0 0 1.00004 0.00219702
197 14.3822 3.2554 0.0455912 0 0 1.00003 0.00228464
124 15.8808 2.45084 0.709674 0 0 1.00004 0.00214541
203 16.5049 3.21426 0.685855 0 0 1.00004 0.00215087
962 16.4944 2.48516 1.53437 0 0 1.00004 0.0021324
1041 15.5995 3.28114 1.52534 0 0 1.00003 0.00222884
201 15.7703 3.28144 0.0302338 0 0 1.00004 0.00219164
128 17.2428 2.36238 0.686966 0 0 1.00004 0.00207173
207 18.125 2.92781 0.709069 0 0 1.00004 0.00206975
966 18.194 2.42821 1.59032 0 0 1.00004 0.00206442
1045 17.2776 3.11903 1.50854 0 0 1.00004 0.00212877
132 19.0698 2.35047 1.00684 0 0 1.00004 0.00202867
211 19.8937 3.20602 1.26349 0 0 1.00004 0.00207581
209 19.0658 2.98499 0.186968 0 0 1.00004 0.00204945
130 19.7813 2.31126 0.10801 0 0 1.00004 0.00201349
134 21.3897 2.39038 0.447876 0 0 1.00005 0.00204352
136 20.4049 2.43349 1.09602 0 0 1.00005 0.00203584
215 21.5551 3.25711 1.3624 0 0 1.00005 0.0021108
213 20.6277 2.97182 0.325304 0 0 1.00005 0.00205339
139 23.1604 2.01666 1.49078 0 0 1.00005 0.00212362
138 23.2503 2.56134 0.716492 0 0 1.00005 0.00213528
140 22.341 2.45642 1.21937 0 0 1.00005 0.00209591
217 22.2411 3.15814 0.592151 0 0 1.00005 0.00211558
16179 22.9802 3.34032 0.0532969 0 0 1.00005 0.002156
141 24.0404 1.77825 0.610346 0 0 1.00005 0.0021513
143 24.7643 1.94856 1.56195 0 0 1.00005 0.00222932
142 24.6844 2.63164 0.756469 0 0 1.00005 0.00223355
144 24.006 2.83567 1.50208 0 0 1.00005 0.00221538
223 24.84 3.44878 1.52033 0 0 1.00006 0.0023104
16108 25.3253 2.77455 0.00923275 0 0 1.00006 0.00228329
145 25.4973 1.81783 0.513523 0 0 1.00005 0.00225705
146 26.1981 2.558 0.684675 0 0 1.00006 0.00234573
148 25.5446 2.51733 1.48657 0 0 1.00006 0.0023095
227 26.1398 3.43111 1.48441 0 0 1.00006 0.00241158
229 26.6172 3.44115 0.57844 0 0 1.00006 0.00243002
152 26.9653 2.52371 1.49548 0 0 1.00006 0.00242719
151 27.9615 1.9486 1.20392 0 0 1.00006 0.00247534
150 27.5441 2.6421 0.617285 0 0 1.00006 0.00246065
231 27.6933 3.29234 1.38736 0 0 1.00006 0.00252908
233 28.4759 3.18006 0.335168 0 0 1.00006 0.00256286
153 28.7444 2.05868 0.338829 0 0 1.00006 0.00252713
156 28.7517 2.7079 1.17535 0 0 1.00006 0.00257333
155 29.9531 1.99492 0.878397 0 0 1.00006 0.00262119
154 29.7118 2.65844 0.279806 0 0 1.00006 0.00262791
235 29.7988 3.21054 1.17646 0 0 1.00006 0.00268205
997 30.5158 1.78383 1.68688 0 0 1.00006 0.00267366
159 31.4696 1.95169 0.917402 0 0 1.00006 0.00271735
160 30.7286 2.67828 0.993589 0 0 1.00006 0.00270821
239 31.6073 3.30046 0.970307 0 0 1.00006 0.00279637
998 31.5578 2.66484 1.72129 0 0 1.00006 0.00277939
237 30.6889 3.20086 0.164378 0 0 1.00006 0.00272489
157 30.9339 1.88637 0.0457774 0 0 1.00006 0.00267251
158 31.7026 2.63035 0.0767858 0 0 1.00005 0.00275121
164 0.891473 3.7674 0.919451 0 0 1.00005 0.00287568
241 0.759115 4.59371 0.457248 0 0 1.00005 0.00292849
244 0.74235 5.24499 1.26899 0 0 1.00006 0.00300501
162 1.64706 3.85043 0.0844464 0 0 1.00005 0.00289873
1081 1.09274 4.389 1.75757 0 0 1.00005 0.00296047
243 1.7469 4.65477 0.990302 0 0 1.00005 0.00297968
168 2.47495 4.04214 0.860681 0 0 1.00005 0.00294462
247 3.16828 4.88058 1.12902 0 0 1.00005 0.0030331
166 3.25968 4.16127 0.195767 0 0 1.00005 0.0029565
245 2.52476 4.95772 0.29072 0 0 1.00005 0.00301381
249 4.0312 4.88346 0.170182 0 0 1.00005 0.00301841
172 4.07644 4.1099 0.90355 0 0 1.00005 0.00296319
251 4.67774 4.91672 1.16935 0 0 1.00005 0.00303506
170 4.8312 4.20781 0.145577 0 0 1.00004 0.00295394
176 5.48671 4.05846 1.17328 0 0 1.00004 0.00294696
253 5.594 4.79383 0.333199 0 0 1.00004 0.00298954
174 6.29944 3.98905 0.18675 0 0 1.00004 0.00289957
255 6.28136 4.77554 1.05958 0 0 1.00004 0.00298086
180 7.03826 3.83793 0.806786 0 0 1.00004 0.00286543
1097 7.21265 4.59895 1.69247 0 0 1.00004 0.00294984
260 7.2181 5.22628 0.894171 0 0 1.00004 0.00297952
259 7.91521 4.53607 0.578342 0 0 1.00004 0.002874
1018 7.91172 3.93033 1.54248 0 0 1.00004 0.00285154
184 8.67304 3.94345 0.73232 0 0 1.00004 0.00278301
1101 8.69655 4.69027 1.52641 0 0 1.00004 0.00286824
263 9.5232 4.64885 0.846605 0 0 1.00003 0.00278726
1022 9.50069 3.841 1.54662 0 0 1.00004 0.00274405
182 9.42152 3.93579 0.0632326 0 0 1.00004 0.00272457
265 10.2648 4.60627 0.134269 0 0 1.00003 0.00271729
188 10.2846 3.65589 0.913858 0 0 1.00004 0.00265073
1105 10.298 4.43968 1.71105 0 0 1.00003 0.00274164
267 10.9727 4.72951 0.935842 0 0 1.00003 0.00268603
1026 11.0678 3.64921 1.6389 0 0 1.00003 0.00261208
1109 11.7191 4.47967 1.74803 0 0 1.00003 0.0026331
186 10.957 3.9108 0.176216 0 0 1.00003 0.00260529
192 11.7365 3.70932 0.824098 0 0 1.00003 0.0025363
269 11.7318 4.77881 0.2275 0 0 1.00003 0.00261551
196 12.789 3.6622 0.835892 0 0 1.00003 0.00244751
271 12.5039 4.62679 1.02819 0 0 1.00003 0.0025539
1113 13.0859 5.05409 1.73305 0 0 1.00003 0.0025726
273 12.9281 4.6877 0.0599079 0 0 1.00003 0.00250834
275 13.5163 4.77298 0.818937 0 0 1.00003 0.00247702
200 14.2483 4.17085 0.714448 0 0 1.00003 0.00236576
1034 13.7659 4.27903 1.62515 0 0 1.00003 0.00244242
1117 14.471 5.17059 1.56261 0 0 1.00003 0.00246371
277 14.399 4.94655 0.078827 0 0 1.00003 0.00241203
279 15.1929 5.06188 0.830049 0 0 1.00003 0.00237449
198 15.1835 4.22221 0.108011 0 0 1.00003 0.00229496
1038 15.2136 4.446 1.61817 0 0 1.00003 0.00234602
204 15.8777 4.09173 0.929039 0 0 1.00003 0.0022509
281 16.086 4.79772 0.189021 0 0 1.00003 0.0022831
1042 16.5344 3.98028 1.70098 0 0 1.00004 0.00223027
1121 16.0553 5.07305 1.66588 0 0 1.00003 0.002348
283 16.8044 4.60107 0.909876 0 0 1.00004 0.00223816
208 17.4639 3.83383 0.813538 0 0 1.00004 0.00214899
287 18.2832 4.47835 1.09443 0 0 1.00004 0.00217574
1046 18.1468 3.63676 1.65759 0 0 1.00004 0.00213649
285 17.6419 4.57859 0.0234009 0 0 1.00004 0.00218859
206 18.3277 3.84155 0.0694455 0 0 1.00004 0.00211354
212 19.0617 3.69221 0.954518 0 0 1.00004 0.00210136
289 19.0323 4.58954 0.358364 0 0 1.00004 0.00215587
291 19.8997 4.63045 1.09252 0 0 1.00004 0.00216821
292 19.0016 5.25217 1.19268 0 0 1.00004 0.00222754
210 19.8009 3.73666 0.237033 0 0 1.00004 0.0020899
216 20.6594 3.7785 1.21977 0 0 1.00005 0.00211688
295 21.1344 4.66263 1.36452 0 0 1.00005 0.00219623
214 21.3365 3.88811 0.506582 0 0 1.00005 0.00212504
293 20.3828 4.73937 0.338916 0 0 1.00005 0.00216568
297 21.8739 4.88635 0.782458 0 0 1.00005 0.00222166
219 23.1279 3.55703 1.38331 0 0 1.00005 0.0022002
220 22.2153 4.06882 1.28562 0 0 1.00005 0.00218663
299 22.798 5.0812 1.24964 0 0 1.00005 0.00229188
218 22.9277 4.27377 0.515979 0 0 1.00005 0.00221912
221 23.904 3.56456 0.75744 0 0 1.00005 0.00223271
222 24.7071 4.25104 0.615107 0 0 1.00006 0.00233361
224 23.8123 4.45966 1.3105 0 0 1.00005 0.00230447
301 23.9002 4.9836 0.515821 0 0 1.00005 0.00233281
303 24.7617 5.19503 1.39305 0 0 1.00006 0.00243563
305 25.2818 5.14873 0.548641 0 0 1.00006 0.00244991
228 25.4305 4.40043 1.56611 0 0 1.00006 0.00242757
225 25.4554 3.58448 0.765061 0 0 1.00006 0.00234757
307 26.1595 5.04393 1.31584 0 0 1.00006 0.00253151
226 25.9641 4.32337 0.39416 0 0 1.00006 0.00243434
232 26.8302 4.2061 1.34203 0 0 1.00006 0.00251981
309 26.992 4.89082 0.624117 0 0 1.00006 0.0025707
311 27.8533 4.78852 1.36442 0 0 1.00006 0.00265394
230 27.5463 3.96578 0.572165 0 0 1.00006 0.00254252
236 28.4769 3.90602 1.08657 0 0 1.00006 0.002625
313 28.82 4.66913 0.684468 0 0 1.00006 0.00270419
234 29.4709 3.72836 0.460573 0 0 1.00006 0.00267769
315 29.6498 4.45624 1.29064 0 0 1.00006 0.00276582
314 29.9815 5.24959 0.794566 0 0 1.00006 0.00284602
240 30.5673 3.9997 1.01491 0 0 1.00006 0.00278516
238 31.6183 3.96188 0.346731 0 0 1.00006 0.00283432
317 30.8037 4.64864 0.460067 0 0 1.00006 0.0028431
319 31.5943 4.57639 1.36424 0 0 1.00006 0.00290517
242 1.57234 5.51028 0.456779 0 0 1.00005 0.00304171
323 1.4879 6.18239 1.27471 0 0 1.00005 0.00312649
324 0.948881 6.91521 1.47956 0 0 1.00006 0.00319319
322 1.68377 6.91943 0.563666 0 0 1.00005 0.00319099
321 0.657229 5.98134 0.451686 0 0 1.00006 0.00305266
398 0.15778 6.90486 0.603968 0 0 1.00006 0.00312662
399 0.129062 6.11055 1.36321 0 0 1.00006 0.00306432
248 2.21439 5.50626 1.36705 0 0 1.00005 0.00308462
328 2.41728 7.02541 1.25396 0 0 1.00005 0.00324148
325 2.55147 6.20519 0.503333 0 0 1.00005 0.00313633
327 2.96861 6.18377 1.41665 0 0 1.00005 0.00316691
246 3.33445 5.61527 0.278674 0 0 1.00005 0.00308515
252 3.79004 5.65751 1.2985 0 0 1.00005 0.00311541
332 3.94381 7.00662 1.17243 0 0 1.00005 0.00325227
329 4.06548 6.30373 0.487412 0 0 1.00005 0.00315743
250 4.8242 5.51069 0.334893 0 0 1.00004 0.00307058
331 4.77791 6.14248 1.25312 0 0 1.00005 0.0031566
330 4.68698 7.05435 0.242533 0 0 1.00005 0.00323136
336 5.44628 6.88444 1.18962 0 0 1.00004 0.00322157
333 5.47394 6.29699 0.332659 0 0 1.00004 0.00313793
256 5.56333 5.49928 1.31794 0 0 1.00004 0.00307863
254 6.35224 5.47247 0.298997 0 0 1.00004 0.00302833
335 6.3024 6.28905 0.987825 0 0 1.00004 0.00312801
337 6.98819 6.15503 0.151412 0 0 1.00004 0.00306996
1177 7.07127 6.07844 1.64965 0 0 1.00004 0.00310053
340 7.06557 6.95914 1.01179 0 0 1.00004 0.00317013
339 7.88267 6.2338 0.787881 0 0 1.00004 0.00304595
1098 7.94747 5.49098 1.54657 0 0 1.00004 0.00299123
1178 7.89189 6.94149 1.65817 0 0 1.00004 0.00315802
258 7.85943 5.44095 0.0404594 0 0 1.00004 0.00295539
344 8.58682 6.96145 0.752819 0 0 1.00003 0.00308141
264 8.71227 5.40695 0.7281 0 0 1.00004 0.00291061
1181 8.76767 6.21875 1.55664 0 0 1.00003 0.00302047
343 9.39741 6.28844 0.768098 0 0 1.00003 0.00295645
1102 9.52917 5.42644 1.63755 0 0 1.00003 0.00289022
262 9.48016 5.56806 0.0259903 0 0 1.00003 0.00286627
268 10.2117 5.42564 0.826509 0 0 1.00003 0.00280869
1185 10.2185 6.28285 1.53839 0 0 1.00003 0.00292447
345 10.2255 6.34655 0.102692 0 0 1.00003 0.00289197
347 11.0254 6.1321 0.982435 0 0 1.00003 0.00282049
1186 10.9463 7.04871 1.56052 0 0 1.00003 0.00295715
266 10.9002 5.66309 0.0178168 0 0 1.00003 0.00276795
349 11.7228 6.46624 0.079352 0 0 1.00003 0.00278391
272 11.7684 5.37136 1.03797 0 0 1.00003 0.00268553
270 12.347 5.70198 0.192568 0 0 1.00003 0.00265193
276 13.0148 5.88583 0.891794 0 0 1.00003 0.0026286
351 12.1584 6.32291 1.08835 0 0 1.00003 0.00275132
274 13.6157 5.61495 0.0443706 0 0 1.00003 0.00253649
1114 13.6586 5.95049 1.61884 0 0 1.00003 0.00260936
355 13.6924 6.65143 0.829661 0 0 1.00003 0.00264835
280 14.3538 5.78472 0.797872 0 0 1.00003 0.00250536
1197 14.6316 6.71462 1.46099 0 0 1.00003 0.00260659
357 14.434 6.45611 0.0437138 0 0 1.00003 0.00255505
278 15.2648 5.67782 0.0430203 0 0 1.00003 0.00241531
359 15.3236 6.50513 0.823158 0 0 1.00003 0.00250598
284 16.0765 5.76706 0.958917 0 0 1.00003 0.00238458
1118 15.3856 5.91749 1.72795 0 0 1.00003 0.00247886
361 15.9417 6.38423 0.0501183 0 0 1.00003 0.00243778
363 16.7451 6.47896 1.16334 0 0 1.00003 0.00242277
282 16.8448 5.43967 0.274956 0 0 1.00004 0.00229692
286 18.0502 5.30995 0.538893 0 0 1.00004 0.00223909
288 17.3308 5.4351 1.25432 0 0 1.00004 0.00229584
365 17.3184 6.29214 0.411897 0 0 1.00004 0.00235551
367 17.9087 6.2462 1.37924 0 0 1.00004 0.00235536
372 18.5428 7.04123 1.14784 0 0 1.00004 0.00240704
369 18.6219 6.21129 0.615608 0 0 1.00004 0.00230599
290 19.6797 5.71095 0.61459 0 0 1.00004 0.00224759
371 19.5848 6.51463 1.32684 0 0 1.00004 0.00234479
373 20.2775 6.68537 0.60173 0 0 1.00004 0.00234027
294 21.0359 5.70421 0.634674 0 0 1.00005 0.00226173
296 20.4379 5.5528 1.37237 0 0 1.00005 0.00225842
375 21.078 6.53508 1.27833 0 0 1.00005 0.0023597
377 21.9797 6.58089 0.653597 0 0 1.00005 0.00237408
300 21.9652 5.78799 1.34174 0 0 1.00005 0.00231962
16260 22.0027 5.65629 0.054305 0 0 1.00005 0.00228298
298 23.0143 5.74722 0.636809 0 0 1.00005 0.00234606
379 23.0003 6.58641 1.16884 0 0 1.00005 0.00244066
381 23.746 6.65753 0.264743 0 0 1.00006 0.0024706
304 23.8687 5.78983 1.24313 0 0 1.00006 0.00241987
383 24.7686 6.45937 1.13193 0 0 1.00006 0.00254731
302 24.5513 5.89217 0.403547 0 0 1.00006 0.00245713
306 26.1718 5.75847 0.664912 0 0 1.00006 0.00257973
308 25.5746 5.92433 1.60504 0 0 1.00006 0.00257706
385 25.6366 6.60834 0.473924 0 0 1.00006 0.00261283
387 26.3659 6.49111 1.36086 0 0 1.00006 0.00269119
312 27.2172 5.75082 1.42335 0 0 1.00006 0.00269171
310 28.0507 5.46459 0.689517 0 0 1.00006 0.00271288
389 27.2909 6.26985 0.613442 0 0 1.00006 0.00272394
391 28.278 6.36107 1.32861 0 0 1.00006 0.00283839
390 28.3147 6.91216 0.50115 0 0 1.00006 0.00287398
392 27.3725 7.01403 1.28667 0 0 1.00006 0.00282944
316 28.9557 5.44561 1.43007 0 0 1.00006 0.00280784
395 30.0702 6.13173 1.29017 0 0 1.00006 0.0029538
393 29.079 6.13705 0.634751 0 0 1.00006 0.00286066
16355 29.9933 6.06944 0.0731746 0 0 1.00006 0.0029154
16276 29.0549 5.33063 0.0360039 0 0 1.00006 0.0027752
396 29.2917 7.0148 1.19175 0 0 1.00006 0.00298474
394 30.2386 6.87533 0.494343 0 0 1.00006 0.00302057
318 31.608 5.31945 0.581786 0 0 1.00006 0.00295151
320 30.8514 5.39751 1.42004 0 0 1.00006 0.00293714
397 31.0343 6.14093 0.622647 0 0 1.00006 0.00299858
400 31.0192 7.02735 1.16105 0 0 1.00006 0.00310512
401 0.99471 7.62672 0.640092 0 0 1.00006 0.00324342
402 1.62347 8.4674 0.589823 0 0 1.00006 0.00335648
404 1.11328 8.52046 1.44401 0 0 1.00006 0.00337512
478 0.440086 8.56507 0.385226 0 0 1.00006 0.00331587
479 0.223635 7.76492 1.2779 0 0 1.00006 0.00324388
403 1.85107 7.83273 1.48232 0 0 1.00005 0.00332653
405 2.33866 7.7655 0.390798 0 0 1.00005 0.00329637
408 2.5123 8.62204 1.46112 0 0 1.00005 0.00342922
326 3.19046 7.14485 0.468805 0 0 1.00005 0.00324525
406 2.98533 8.62069 0.40094 0 0 1.00005 0.00340146
407 3.14762 7.82726 1.29206 0 0 1.00005 0.00334289
412 3.804 8.55523 0.968349 0 0 1.00005 0.0034162
409 3.96457 7.79164 0.33873 0 0 1.00005 0.003316
410 4.57018 8.50131 0.0802458 0 0 1.00005 0.00338962
411 4.70197 7.68349 1.23416 0 0 1.00005 0.00332306
413 5.38055 7.72192 0.236678 0 0 1.00004 0.00329082
416 5.42493 8.34116 0.972573 0 0 1.00004 0.00337726
334 6.197 7.1092 0.164296 0 0 1.00004 0.0032034
414 6.56307 8.43833 0.191244 0 0 1.00004 0.00333759
415 6.17274 7.64789 1.04327 0 0 1.00004 0.00328121
420 7.06964 8.28766 1.08693 0 0 1.00004 0.00332119
417 7.13447 7.64996 0.169917 0 0 1.00004 0.00322675
419 7.92505 7.85454 0.780706 0 0 1.00004 0.00322199
1258 7.92578 8.26713 1.75546 0 0 1.00003 0.00331417
1182 9.61244 7.07464 1.52593 0 0 1.00003 0.0030583
421 8.59336 7.71939 0.0245417 0 0 1.00003 0.00315604
1261 8.66623 7.59848 1.61998 0 0 1.00003 0.00318658
424 8.86946 8.43759 0.91694 0 0 1.00003 0.0032386
423 9.46678 7.73189 0.696357 0 0 1.00003 0.0031096
1262 9.66645 8.80736 1.52362 0 0 1.00003 0.00325953
346 10.9819 7.06918 0.14266 0 0 1.00003 0.00291023
1265 10.2187 7.99686 1.65689 0 0 1.00003 0.00313118
428 10.282 8.73188 0.738592 0 0 1.00003 0.00316759
348 10.3294 7.31768 0.769083 0 0 1.00003 0.00300324
427 11.0722 8.04967 0.88285 0 0 1.00003 0.00303213
429 11.6919 8.23017 0.0496519 0 0 1.00003 0.00298313
352 11.7358 7.25043 0.843931 0 0 1.00003 0.00288445
1269 11.8531 7.93885 1.66301 0 0 1.00003 0.00299395
356 13.0915 7.39501 0.60397 0 0 1.00003 0.0027767
431 12.6065 8.32052 0.637199 0 0 1.00003 0.00292632
1190 12.5054 7.26519 1.44653 0 0 1.00003 0.00284644
1270 12.5369 8.80019 1.57249 0 0 1.00003 0.00303255
1273 13.257 8.11173 1.54447 0 0 1.00003 0.00288655
350 12.3099 7.47793 0.000941407 0 0 1.00003 0.00284448
360 14.638 7.42247 0.640473 0 0 1.00003 0.00265208
435 13.9833 8.18859 0.510399 0 0 1.00003 0.00278825
1194 13.8375 7.41916 1.41191 0 0 1.00003 0.00274714
1277 14.6143 8.23863 1.41254 0 0 1.00003 0.00277718
439 15.4207 8.34651 0.890618 0 0 1.00003 0.00270181
362 16.713 7.20702 0.29404 0 0 1.00003 0.00247797
364 15.9293 7.34725 0.921797 0 0 1.00003 0.00255458
443 16.5819 8.18779 1.12504 0 0 1.00003 0.00261461
1198 15.4558 7.57945 1.68644 0 0 1.00003 0.00265523
441 16.1627 8.33546 0.158554 0 0 1.00003 0.00263124
368 17.2621 7.36593 1.12378 0 0 1.00003 0.00248767
445 17.3521 8.1221 0.324819 0 0 1.00003 0.00254167
447 18.0161 8.02457 1.04058 0 0 1.00004 0.00252181
366 18.0891 7.17065 0.22879 0 0 1.00004 0.00241093
370 19.2994 7.29448 0.623553 0 0 1.00004 0.00240177
451 19.2416 8.11643 1.16929 0 0 1.00004 0.00250736
449 18.758 8.1659 0.19236 0 0 1.00004 0.00249254
453 20.121 8.07587 0.358908 0 0 1.00004 0.00247403
376 20.186 7.59235 1.29433 0 0 1.00004 0.00245435
374 21.0231 7.38478 0.644044 0 0 1.00005 0.00242245
455 21.0081 8.35173 1.00728 0 0 1.00005 0.00253218
380 21.9074 7.572 1.10654 0 0 1.00005 0.00248389
457 21.9912 8.24504 0.255411 0 0 1.00005 0.00253374
459 23.0093 8.07416 0.972712 0 0 1.00005 0.00258509
1218 22.8142 7.38889 1.69478 0 0 1.00005 0.00253761
378 22.7199 7.37785 0.372249 0 0 1.00005 0.002482
458 23.1843 8.78573 0.196413 0 0 1.00006 0.00264989
1298 22.8528 8.7874 1.5458 0 0 1.00006 0.00268135
384 23.8753 7.21308 1.02815 0 0 1.00006 0.00255302
461 23.9315 7.96789 0.35336 0 0 1.00006 0.00261831
463 24.8382 7.96929 0.950962 0 0 1.00006 0.00270106
1302 24.775 8.61347 1.62981 0 0 1.00006 0.00280249
382 24.7856 7.20086 0.267383 0 0 1.00006 0.00260023
462 24.8201 8.69278 0.197405 0 0 1.00006 0.00275836
1301 23.828 7.92712 1.72647 0 0 1.00006 0.00266061
388 25.6312 7.27177 1.19711 0 0 1.00006 0.00270279
467 26.5979 7.8962 0.952563 0 0 1.00006 0.0028425
1306 26.6245 8.50987 1.68172 0 0 1.00006 0.00295233
386 26.6196 7.15009 0.361334 0 0 1.00006 0.00274928
465 25.7531 7.98834 0.301827 0 0 1.00006 0.0027627
468 25.8471 8.72961 0.957436 0 0 1.00006 0.00286833
466 26.8552 8.47038 0.090722 0 0 1.00006 0.00290905
472 27.62 8.54974 0.985488 0 0 1.00006 0.00300655
469 27.5941 7.67625 0.414892 0 0 1.00006 0.002891
471 28.448 7.7269 1.16617 0 0 1.00006 0.00299337
1310 28.4702 8.58327 1.7296 0 0 1.00006 0.00312252
470 28.6199 8.40493 0.387723 0 0 1.00006 0.00305832
476 29.4642 8.46221 1.148 0 0 1.00006 0.00315433
473 29.3678 7.65201 0.399818 0 0 1.00006 0.00303753
475 30.1862 7.60912 1.24918 0 0 1.00006 0.00311695
474 30.3119 8.317 0.525005 0 0 1.00006 0.00318194
480 31.1723 8.42822 1.16983 0 0 1.00006 0.00326836
477 31.3476 7.82276 0.378941 0 0 1.00006 0.00319012
484 1.07928 9.91748 0.910471 0 0 1.00006 0.00350197
481 1.16289 9.31629 0.128012 0 0 1.00006 0.0034268
1322 1.66243 10.1108 1.74396 0 0 1.00006 0.0035895
559 0.297953 9.23486 1.11969 0 0 1.00006 0.00340297
558 0.304516 9.91068 0.0696737 0 0 1.00006 0.00344804
483 1.82892 9.33334 1.18769 0 0 1.00006 0.00347793
482 1.95542 10.269 0.257017 0 0 1.00005 0.00355164
485 2.55021 9.46135 0.430954 0 0 1.00005 0.00348673
488 2.66212 10.3433 0.979483 0 0 1.00005 0.00359537
487 3.18052 9.45342 1.21415 0 0 1.00005 0.00352057
486 3.40136 10.2917 0.0714912 0 0 1.00005 0.00357959
1326 3.59775 10.2507 1.68526 0 0 1.00005 0.00363588
489 3.86434 9.37658 0.112707 0 0 1.00005 0.00348717
1329 4.03152 9.28387 1.70861 0 0 1.00005 0.00353311
492 4.18309 10.0835 0.769907 0 0 1.00005 0.00357384
491 4.70679 9.15506 0.877717 0 0 1.00005 0.00347536
1330 4.93565 10.0137 1.62397 0 0 1.00004 0.00360273
493 5.32517 9.26784 0.00239819 0 0 1.00004 0.00346312
496 5.38619 10.0448 0.584665 0 0 1.00004 0.00355394
1333 5.45139 9.12049 1.67477 0 0 1.00004 0.00350068
495 6.06153 9.04552 0.681428 0 0 1.00004 0.00343198
1334 6.10708 9.9138 1.24072 0 0 1.00004 0.00354608
1337 6.88193 9.16193 1.31205 0 0 1.00004 0.00344191
500 6.96389 9.88554 0.540956 0 0 1.00004 0.00348865
499 7.82969 8.97984 0.75452 0 0 1.00004 0.00335472
1338 7.86273 9.84733 1.25639 0 0 1.00004 0.00347155
504 8.6398 10.0444 0.610341 0 0 1.00003 0.00342273
1341 8.69725 9.27586 1.46456 0 0 1.00003 0.00337355
501 8.73303 9.16235 0.0958249 0 0 1.00003 0.00331122
503 9.55795 9.55742 0.764822 0 0 1.00003 0.00331631
1342 9.41276 10.3473 1.48773 0 0 1.00003 0.00345006
1266 11.1082 8.84666 1.51087 0 0 1.00003 0.00315434
508 10.2592 10.436 0.714354 0 0 1.00003 0.00335923
1345 10.4101 9.68923 1.50018 0 0 1.00003 0.00330687
426 10.9358 8.98621 0.0341975 0 0 1.00003 0.00313218
507 11.0278 9.78924 0.707605 0 0 1.00003 0.00322992
1346 11.204 10.3071 1.723 0 0 1.00003 0.00333128
432 11.841 8.95953 0.771025 0 0 1.00003 0.0030688
1349 11.8591 9.72665 1.41163 0 0 1.00003 0.0031891
511 12.5815 9.90334 0.730701 0 0 1.00002 0.0031113
516 13.2951 10.579 1.00204 0 0 1.00002 0.0031309
1353 13.0509 9.72734 1.6962 0 0 1.00002 0.00310805
436 13.3958 9.04133 0.821811 0 0 1.00003 0.00294562
1274 14.0846 8.96238 1.63413 0 0 1.00003 0.00292321
440 14.8295 9.24737 0.801649 0 0 1.00003 0.00284599
515 13.9625 9.79715 0.889672 0 0 1.00003 0.00298342
517 14.6793 10.1993 0.23636 0 0 1.00003 0.00294554
444 16.2388 9.18999 1.15685 0 0 1.00003 0.00275084
519 15.5167 9.93194 1.05614 0 0 1.00003 0.00287785
521 16.0573 10.2081 0.251809 0 0 1.00003 0.00283848
438 15.6319 9.25114 0.133827 0 0 1.00003 0.00276753
442 16.8247 9.07786 0.273436 0 0 1.00003 0.00267095
523 16.8628 9.98643 0.987814 0 0 1.00003 0.00278683
448 17.4235 9.06742 1.13602 0 0 1.00003 0.00266591
525 17.5147 10.0303 0.202402 0 0 1.00003 0.00273096
527 18.1282 9.85595 1.07578 0 0 1.00004 0.00271453
446 18.0868 9.10099 0.12655 0 0 1.00004 0.00261002
452 18.6306 8.89008 0.947391 0 0 1.00004 0.00259153
529 18.9483 9.71932 0.305996 0 0 1.00004 0.00264999
531 19.8683 9.85659 0.856219 0 0 1.00004 0.00267063
532 19.0953 10.4415 1.14138 0 0 1.00004 0.00275043
1369 19.0088 9.56747 1.70086 0 0 1.00004 0.00270132
450 19.5698 8.92709 0.213627 0 0 1.00004 0.00256001
456 20.1842 8.90458 1.03427 0 0 1.00004 0.00257999
533 20.3824 9.73471 0.0690675 0 0 1.00005 0.00264114
535 21.3465 9.74209 0.750003 0 0 1.00005 0.00267538
1373 20.6309 9.61129 1.63345 0 0 1.00005 0.00269648
454 21.1606 8.99935 0.193482 0 0 1.00005 0.00258207
1374 21.5203 10.0401 1.72549 0 0 1.00005 0.00276938
536 20.8242 10.5735 0.798392 0 0 1.00005 0.00274597
460 22.0319 8.946 0.948507 0 0 1.00005 0.00262619
539 23.307 9.60307 0.78597 0 0 1.00006 0.0027569
540 22.5813 10.4355 0.813635 0 0 1.00005 0.00279582
1377 22.3928 9.70568 1.48326 0 0 1.00006 0.00275147
537 22.4028 9.71671 0.216678 0 0 1.00005 0.00270171