ITEM: TIMESTEP
40500
ITEM: NUMBER OF ATOMS
32000
ITEM: BOX BOUNDS pp pp pp
0.0000000000000000e+00 3.1748021039364001e+01
0.0000000000000000e+00 3.1748021039364001e+01
0.0000000000000000e+00 3.1748021039364001e+01
ITEM: ATOMS id x y z c_phase c_nbond c_rho vx
4 0.6093 1.09208 0.479118 0 0 1.00005 0.00254677
83 1.47185 1.66443 0.791008 0 0 1.00005 0.00259984
842 1.22653 0.787647 1.40408 0 0 1.00005 0.00258346
921 0.51404 1.59257 1.38945 0 0 1.00005 0.00257593
3 1.22798 0.0758012 0.631369 0 0 1.00005 0.00255936
841 0.337449 0.270033 1.25816 0 0 1.00005 0.00253696
8 2.21594 0.836864 1.01376 0 0 1.00005 0.00260047
85 2.30978 1.50141 0.204071 0 0 1.00005 0.00260787
925 2.35802 1.65827 1.74918 0 0 1.00005 0.00264748
6 3.00814 0.73996 0.202538 0 0 1.00005 0.00259832
7 3.07129 0.0634595 1.04123 0 0 1.00005 0.00260356
87 3.14119 1.55076 0.874661 0 0 1.00005 0.00262772
846 3.18494 0.833974 1.73927 0 0 1.00005 0.00263331
12 3.90985 0.923028 0.97482 0 0 1.00004 0.00261297
849 3.97204 0.0812789 1.72854 0 0 1.00004 0.00262404
929 4.09965 1.71663 1.72411 0 0 1.00004 0.00265713
10 4.5895 0.863737 0.318556 0 0 1.00004 0.00259305
850 4.79631 0.949555 1.6579 0 0 1.00004 0.00262161
9 3.94187 0.0992047 0.183639 0 0 1.00004 0.00259158
93 5.38366 1.61264 0.392705 0 0 1.00004 0.00259726
16 5.43909 0.572147 1.15847 0 0 1.00004 0.00258283
14 6.08902 0.649922 0.317659 0 0 1.00004 0.00254846
95 6.31868 1.33583 0.973551 0 0 1.00004 0.00256404
854 6.23566 0.464701 1.73034 0 0 1.00004 0.00257132
933 5.47705 1.72423 1.45828 0 0 1.00004 0.00262071
97 6.98603 1.42313 0.223406 0 0 1.00004 0.00252469
20 7.11796 0.41088 0.892796 0 0 1.00004 0.00250629
937 7.1079 1.03445 1.72672 0 0 1.00004 0.00254155
99 7.75451 1.25368 0.965289 0 0 1.00004 0.00248843
18 7.95369 0.670568 0.161722 0 0 1.00004 0.00245268
941 8.49989 1.2958 1.65063 0 0 1.00003 0.00246368
101 8.59931 1.41683 0.241853 0 0 1.00003 0.00242951
24 8.61174 0.422966 1.08379 0 0 1.00003 0.00242092
22 9.18091 0.518029 0.263363 0 0 1.00003 0.00236895
28 9.85957 0.338105 0.922461 0 0 1.00003 0.00232471
103 9.34511 1.33526 1.1163 0 0 1.00003 0.00238873
105 9.93414 1.38593 0.104808 0 0 1.00003 0.00233068
32 11.4426 0.220994 0.659794 0 0 1.00003 0.00219243
107 10.6398 1.07567 0.846575 0 0 1.00003 0.00227409
866 10.7868 0.210028 1.48238 0 0 1.00003 0.00226526
949 11.5391 1.03172 1.4482 0 0 1.00003 0.00221422
946 10.8525 1.72033 1.75733 0 0 1.00003 0.00230359
26 10.5197 0.372828 0.0814897 0 0 1.00003 0.00226379
36 13.0655 0.223449 0.655147 0 0 1.00003 0.00205833
111 12.2452 1.09498 0.530626 0 0 1.00003 0.00213683
870 12.3393 0.32176 1.33455 0 0 1.00003 0.00213368
953 12.9156 1.20998 1.40459 0 0 1.00003 0.00210263
40 14.5213 0.342093 0.8013 0 0 1.00003 0.00194945
115 13.7516 1.12434 0.859331 0 0 1.00003 0.00202099
117 14.205 1.57466 0.155884 0 0 1.00003 0.00198991
874 13.7837 0.368366 1.66211 0 0 1.00003 0.0020268
957 14.5301 1.17244 1.50526 0 0 1.00003 0.00197957
119 15.022 1.56774 0.674634 0 0 1.00003 0.00193759
38 15.2273 0.714799 0.0670212 0 0 1.00003 0.00189839
44 15.8355 0.764382 0.793695 0 0 1.00003 0.00186886
123 16.6621 1.54562 0.68833 0 0 1.00004 0.00184364
878 15.2775 0.469024 1.65592 0 0 1.00003 0.00192122
882 16.6589 0.709675 1.35229 0 0 1.00004 0.00183796
961 15.7544 1.50488 1.40823 0 0 1.00003 0.00190599
48 17.3759 0.728031 0.56283 0 0 1.00004 0.00179377
127 18.0394 1.58298 0.754941 0 0 1.00004 0.00179638
886 18.0306 0.745773 1.42505 0 0 1.00004 0.00179162
965 17.3369 1.74589 1.56749 0 0 1.00004 0.00184224
51 19.6628 0.00933809 0.662778 0 0 1.00004 0.00175459
52 18.9086 0.727138 0.687542 0 0 1.00004 0.0017615
131 19.6713 1.54077 0.837274 0 0 1.00004 0.0017803
889 19.1405 0.149428 1.54025 0 0 1.00004 0.00177241
890 19.7286 0.960428 1.68353 0 0 1.00004 0.00178709
969 18.7907 1.49781 1.49674 0 0 1.00004 0.0017967
129 18.9872 1.57329 0.000854489 0 0 1.00004 0.00177501
55 21.2745 0.343389 1.0583 0 0 1.00005 0.00179157
56 20.3901 0.768589 0.964885 0 0 1.00004 0.00177357
135 21.2681 1.61911 0.950553 0 0 1.00005 0.00181468
54 21.3451 0.757546 0.211487 0 0 1.00005 0.00178877
133 20.4907 1.49597 0.20252 0 0 1.00004 0.00178213
973 20.4782 1.75845 1.71892 0 0 1.00004 0.00181895
57 22.202 0.269673 0.529823 0 0 1.00005 0.0018206
59 23.0188 0.422194 1.38074 0 0 1.00005 0.00188003
60 22.3125 1.13613 1.31219 0 0 1.00005 0.00185274
137 22.1866 1.58004 0.516438 0 0 1.00005 0.00184348
58 23.1314 1.03865 0.455042 0 0 1.00005 0.00187962
63 24.5289 0.371598 1.40107 0 0 1.00005 0.00198242
61 23.8148 0.344802 0.56769 0 0 1.00005 0.00191488
62 24.7109 1.15429 0.73679 0 0 1.00005 0.00199381
64 23.7348 1.21558 1.37406 0 0 1.00005 0.0019393
65 25.2621 0.310694 0.536203 0 0 1.00005 0.00202282
67 26.3427 0.367676 1.15261 0 0 1.00005 0.00212074
68 25.4789 1.10729 1.43893 0 0 1.00005 0.00206985
147 26.2755 1.70688 1.32917 0 0 1.00005 0.00214941
66 26.2258 0.926051 0.415282 0 0 1.00005 0.00210737
70 27.9745 1.26353 0.377913 0 0 1.00005 0.00226217
71 28.0119 0.490523 0.86292 0 0 1.00006 0.00225698
72 27.1205 1.01137 1.23424 0 0 1.00005 0.00219876
69 27.153 0.239419 0.235717 0 0 1.00005 0.00217425
149 26.9162 1.76005 0.50479 0 0 1.00005 0.00219005
913 28.8171 0.345091 1.40369 0 0 1.00005 0.0023321
76 29.0799 1.20805 0.718112 0 0 1.00005 0.00235197
914 29.8209 0.960621 1.55364 0 0 1.00005 0.00242154
993 28.9454 1.70738 1.49127 0 0 1.00006 0.00237456
75 29.72 0.348744 0.613741 0 0 1.00005 0.00238352
917 30.2983 0.16012 1.43999 0 0 1.00005 0.00244112
79 31.2003 0.460374 0.485674 0 0 1.00005 0.0024789
80 30.5564 1.18173 0.765391 0 0 1.00005 0.00245784
918 31.3398 0.966986 1.38347 0 0 1.00005 0.00251311
82 1.61643 2.43505 0.115535 0 0 1.00005 0.0026307
84 0.642302 2.37462 0.804836 0 0 1.00005 0.00260026
922 1.65507 2.36583 1.5915 0 0 1.00005 0.00265769
1001 0.900853 3.03652 1.55027 0 0 1.00005 0.0026691
161 0.839667 3.10597 0.128738 0 0 1.00005 0.00264174
163 1.80097 3.22181 0.942133 0 0 1.00005 0.0026919
88 2.42558 2.41468 0.792007 0 0 1.00005 0.002655
167 3.16968 3.29497 0.860922 0 0 1.00005 0.00271705
926 3.19179 2.26012 1.55749 0 0 1.00005 0.00267643
86 3.22149 2.40027 0.0536528 0 0 1.00005 0.00265554
1005 2.62942 3.10956 1.75935 0 0 1.00005 0.00272746
1009 3.79282 3.42782 1.66689 0 0 1.00004 0.00275181
92 3.88316 2.57929 0.797668 0 0 1.00004 0.00267211
91 4.48943 1.8446 0.724223 0 0 1.00004 0.00262927
171 4.69496 3.34968 0.768193 0 0 1.00004 0.0027086
930 4.64453 2.665 1.59894 0 0 1.00004 0.0026905
96 5.37726 2.58912 0.83514 0 0 1.00004 0.00264854
94 6.1012 2.47807 0.145318 0 0 1.00004 0.00260891
175 6.12121 3.23953 0.974914 0 0 1.00004 0.0026658
934 6.30803 2.24121 1.51575 0 0 1.00004 0.00261595
173 5.46269 3.35829 0.0135513 0 0 1.00004 0.0026845
1017 6.97979 3.11222 1.57493 0 0 1.00004 0.00263763
100 6.98452 2.22051 0.796856 0 0 1.00004 0.00256435
177 7.06764 2.98966 0.133701 0 0 1.00004 0.00259434
98 7.84472 2.2656 0.141182 0 0 1.00004 0.00251176
179 7.81589 3.10969 0.937719 0 0 1.00003 0.00257298
938 7.70787 2.10071 1.5991 0 0 1.00004 0.00254232
104 8.469 2.23801 0.958234 0 0 1.00003 0.0024821
1021 8.57998 3.04985 1.68718 0 0 1.00003 0.00254468
181 8.64954 3.01886 0.0458354 0 0 1.00003 0.00250144
102 9.25258 2.13828 0.257354 0 0 1.00003 0.00241134
183 9.28178 3.02316 0.95684 0 0 1.00003 0.00246997
942 9.3768 2.2629 1.74756 0 0 1.00003 0.00244464
185 9.8966 2.96273 0.212971 0 0 1.00003 0.00240714
108 10.0875 2.06044 1.12099 0 0 1.00003 0.00235927
106 10.5716 2.14983 0.209239 0 0 1.00003 0.00230961
112 11.4144 1.86944 0.791605 0 0 1.00003 0.00223574
187 10.9075 2.8555 0.94061 0 0 1.00003 0.0023297
1029 11.7012 2.88426 1.62144 0 0 1.00003 0.002289
116 12.8753 1.97082 0.615631 0 0 1.00003 0.00211458
191 12.1659 2.69554 0.756747 0 0 1.00003 0.00221177
950 12.1626 1.95544 1.49879 0 0 1.00003 0.0021939
1033 13.0655 3.06446 1.72608 0 0 1.00003 0.0021887
195 13.4022 3.06007 0.853154 0 0 1.00003 0.0021314
954 13.5704 2.02304 1.50574 0 0 1.00003 0.00208128
114 13.5962 2.33144 0.0560653 0 0 1.00003 0.00206786
120 14.1922 2.47509 0.933268 0 0 1.00003 0.00203887
1037 14.2187 3.42899 1.58122 0 0 1.00003 0.00211402
199 14.8719 3.466 0.886299 0 0 1.00003 0.00204735
958 14.9539 2.32845 1.45246 0 0 1.00003 0.00199041
118 14.9916 2.52929 0.140393 0 0 1.00003 0.00197481
197 14.3284 3.2537 0.0446372 0 0 1.00003 0.00206316
124 15.8301 2.45045 0.708189 0 0 1.00003 0.00192351
203 16.4517 3.21263 0.683301 0 0 1.00003 0.00193026
962 16.4434 2.48475 1.53358 0 0 1.00003 0.00191157
1041 15.5434 3.2794 1.52308 0 0 1.00003 0.00200793
201 15.7175 3.2796 0.0293699 0 0 1.00003 0.00197011
128 17.1926 2.36035 0.686528 0 0 1.00004 0.00185178
207 18.0751 2.92601 0.707325 0 0 1.00004 0.00185229
966 18.1451 2.42839 1.58826 0 0 1.00004 0.00184715
1045 17.2268 3.11777 1.50646 0 0 1.00004 0.00190964
132 19.0218 2.34907 1.00699 0 0 1.00004 0.00181406
211 19.846 3.20728 1.26409 0 0 1.00004 0.00186508
209 19.0172 2.98374 0.188261 0 0 1.00004 0.00183501
130 19.7321 2.31278 0.107023 0 0 1.00004 0.00180151
134 21.3398 2.39028 0.44837 0 0 1.00005 0.00183844
136 20.3549 2.43495 1.09719 0 0 1.00004 0.00182661
215 21.5051 3.25759 1.36367 0 0 1.00005 0.00190753
213 20.5797 2.97059 0.326007 0 0 1.00004 0.00184531
139 23.109 2.01993 1.49091 0 0 1.00005 0.00192663
138 23.2009 2.56226 0.717696 0 0 1.00005 0.00193892
140 22.2926 2.45781 1.21972 0 0 1.00005 0.00189556
217 22.1914 3.15838 0.592167 0 0 1.00005 0.00191499
16179 22.9269 3.34288 0.0561646 0 0 1.00005 0.00195889
141 23.9909 1.77874 0.610937 0 0 1.00005 0.00195784
143 24.712 1.94988 1.56527 0 0 1.00005 0.00203916
142 24.6312 2.63361 0.757463 0 0 1.00005 0.00204314
144 23.9542 2.83943 1.50378 0 0 1.00005 0.00202296
223 24.7854 3.45076 1.52207 0 0 1.00005 0.00212176
16108 25.2703 2.77916 0.0104679 0 0 1.00005 0.00209533
145 25.4431 1.81958 0.511941 0 0 1.00005 0.00206885
146 26.1413 2.56064 0.686357 0 0 1.00005 0.00216036
148 25.4888 2.51805 1.48851 0 0 1.00005 0.00212227
227 26.0823 3.43411 1.48544 0 0 1.00006 0.00222732
229 26.5571 3.44399 0.579448 0 0 1.00006 0.00224658
152 26.908 2.52466 1.49736 0 0 1.00006 0.00224423
151 27.9027 1.95092 1.2063 0 0 1.00006 0.00229397
150 27.4845 2.64503 0.619498 0 0 1.00006 0.00227875
231 27.6308 3.29614 1.38844 0 0 1.00006 0.00234834
233 28.4143 3.1818 0.334412 0 0 1.00006 0.00238284
153 28.6822 2.0606 0.339083 0 0 1.00006 0.00234647
156 28.6897 2.71108 1.17721 0 0 1.00006 0.00239357
155 29.892 1.99857 0.878429 0 0 1.00005 0.00244177
154 29.6488 2.65736 0.280246 0 0 1.00005 0.00244836
235 29.7333 3.21405 1.17571 0 0 1.00006 0.00250348
997 30.449 1.78561 1.68842 0 0 1.00005 0.00249415
159 31.403 1.9549 0.917877 0 0 1.00005 0.00253728
160 30.6639 2.68134 0.993678 0 0 1.00005 0.00252926
239 31.5395 3.30473 0.970908 0 0 1.00005 0.0026175
998 31.4908 2.66776 1.72123 0 0 1.00005 0.00260022
237 30.6211 3.20476 0.161954 0 0 1.00005 0.0025461
157 30.8716 1.88774 0.0435949 0 0 1.00005 0.00249272
158 31.6367 2.6338 0.0766753 0 0 1.00005 0.00257143
164 0.823132 3.76891 0.91959 0 0 1.00005 0.00269598
241 0.688664 4.59438 0.459952 0 0 1.00005 0.00274973
243 1.67729 4.65756 0.990246 0 0 1.00005 0.00279974
244 0.668921 5.24743 1.26958 0 0 1.00005 0.00282758
162 1.57713 3.85178 0.0824151 0 0 1.00005 0.0027176
1081 1.02359 4.39033 1.75908 0 0 1.00005 0.00278179
168 2.4021 4.04376 0.859228 0 0 1.00005 0.00276215
247 3.09516 4.88012 1.12974 0 0 1.00005 0.00285003
166 3.18789 4.16142 0.197301 0 0 1.00005 0.00277192
245 2.45305 4.96036 0.289704 0 0 1.00005 0.00283244
249 3.95781 4.88401 0.169505 0 0 1.00004 0.00283269
172 4.00698 4.10862 0.902056 0 0 1.00004 0.00277624
251 4.6031 4.91647 1.16825 0 0 1.00004 0.00284766
170 4.76163 4.2084 0.145934 0 0 1.00004 0.0027647
176 5.41573 4.05595 1.17584 0 0 1.00004 0.0027554
253 5.52213 4.7924 0.334318 0 0 1.00004 0.00279839
174 6.23126 3.98772 0.188244 0 0 1.00004 0.00270446
255 6.20669 4.77594 1.05795 0 0 1.00004 0.00278764
180 6.96676 3.8338 0.804529 0 0 1.00004 0.00266744
1097 7.14128 4.59419 1.69001 0 0 1.00004 0.00275266
260 7.14816 5.22069 0.894515 0 0 1.00004 0.00278276
259 7.84597 4.53267 0.575495 0 0 1.00003 0.00267334
1018 7.84181 3.92862 1.53998 0 0 1.00003 0.00265081
184 8.60493 3.94281 0.73025 0 0 1.00003 0.00257882
1101 8.62721 4.68706 1.52484 0 0 1.00003 0.00266536
263 9.45652 4.64511 0.845765 0 0 1.00003 0.00258049
1022 9.43581 3.83713 1.54375 0 0 1.00003 0.00253633
182 9.35532 3.93275 0.0635074 0 0 1.00003 0.00251707
265 10.2008 4.59955 0.134176 0 0 1.00003 0.00250708
188 10.2217 3.65129 0.912391 0 0 1.00003 0.00243958
1105 10.2312 4.43461 1.70785 0 0 1.00003 0.0025322
192 11.6763 3.70594 0.819976 0 0 1.00003 0.00232041
267 10.909 4.72829 0.934641 0 0 1.00003 0.00247432
269 11.6707 4.77367 0.228542 0 0 1.00003 0.00240083
1026 11.006 3.64411 1.63575 0 0 1.00003 0.00239857
1109 11.6564 4.47217 1.7462 0 0 1.00003 0.00241856
186 10.8938 3.90835 0.176876 0 0 1.00003 0.00239223
196 12.7319 3.65583 0.834521 0 0 1.00003 0.00222856
271 12.4441 4.62236 1.02674 0 0 1.00003 0.00233709
1113 13.0216 5.05262 1.73072 0 0 1.00003 0.00235637
273 12.8704 4.68381 0.0606414 0 0 1.00003 0.00229031
275 13.4566 4.76521 0.818556 0 0 1.00003 0.00225808
200 14.1911 4.16859 0.713172 0 0 1.00003 0.00214566
1034 13.7069 4.27576 1.62384 0 0 1.00003 0.00222333
1117 14.4129 5.16739 1.55944 0 0 1.00003 0.0022447
277 14.342 4.94466 0.0772218 0 0 1.00003 0.00219246
279 15.1353 5.05762 0.828393 0 0 1.00003 0.00215472
198 15.1292 4.22068 0.107298 0 0 1.00003 0.00207418
1038 15.1565 4.44462 1.61669 0 0 1.00003 0.00212624
204 15.8242 4.08963 0.929558 0 0 1.00003 0.00203039
281 16.0333 4.79539 0.189391 0 0 1.00003 0.00206319
1042 16.4799 3.97765 1.70006 0 0 1.00003 0.00201071
1121 15.9981 5.0714 1.66364 0 0 1.00003 0.00212924
283 16.7509 4.59777 0.908866 0 0 1.00003 0.00201911
208 17.4123 3.8327 0.813198 0 0 1.00004 0.00193067
287 18.2326 4.47678 1.09431 0 0 1.00004 0.0019602
1046 18.096 3.63462 1.65625 0 0 1.00004 0.00192001
285 17.5919 4.57653 0.0223408 0 0 1.00004 0.001971
206 18.277 3.84075 0.0681919 0 0 1.00004 0.0018974
212 19.0135 3.69073 0.953013 0 0 1.00004 0.00188756
289 18.981 4.58834 0.358619 0 0 1.00004 0.00194273
291 19.8504 4.63183 1.08981 0 0 1.00004 0.00195883
292 18.9502 5.25116 1.1923 0 0 1.00004 0.00201533
210 19.7515 3.73645 0.235349 0 0 1.00004 0.00187897
216 20.6103 3.77937 1.21975 0 0 1.00004 0.00190998
295 21.0835 4.66331 1.36614 0 0 1.00005 0.00199264
214 21.2846 3.8881 0.50627 0 0 1.00005 0.00192095
293 20.3298 4.74014 0.339449 0 0 1.00004 0.00195836
297 21.8189 4.88784 0.784394 0 0 1.00005 0.00202139
219 23.0752 3.56098 1.3853 0 0 1.00005 0.00200461
220 22.1638 4.0709 1.28609 0 0 1.00005 0.00198725
299 22.7425 5.08552 1.24971 0 0 1.00005 0.00209654
218 22.8732 4.27677 0.51418 0 0 1.00005 0.00202292
221 23.8504 3.56829 0.759056 0 0 1.00005 0.00204015
222 24.6516 4.25336 0.61455 0 0 1.00005 0.00214494
224 23.7575 4.46402 1.31015 0 0 1.00005 0.00211287
301 23.8458 4.98655 0.516462 0 0 1.00005 0.00214193
303 24.7044 5.1992 1.39465 0 0 1.00006 0.00224912
305 25.2217 5.15486 0.549291 0 0 1.00006 0.00226479
228 25.3718 4.40594 1.56984 0 0 1.00006 0.00224259
225 25.3991 3.59094 0.768226 0 0 1.00005 0.00216123
307 26.0977 5.04881 1.31617 0 0 1.00006 0.00234929
226 25.9046 4.32709 0.392617 0 0 1.00006 0.00225007
232 26.7688 4.21091 1.34316 0 0 1.00006 0.00233835
309 26.9294 4.89484 0.624957 0 0 1.00006 0.00239008
311 27.789 4.79295 1.3671 0 0 1.00006 0.00247546
236 28.4135 3.91017 1.08713 0 0 1.00006 0.00244606
230 27.4851 3.97003 0.571539 0 0 1.00006 0.00236199
313 28.7551 4.67325 0.686124 0 0 1.00006 0.00252658
234 29.406 3.73092 0.462505 0 0 1.00006 0.00249925
315 29.5836 4.46097 1.29384 0 0 1.00006 0.00258893
314 29.913 5.25372 0.795784 0 0 1.00006 0.00266992
240 30.5008 4.00485 1.01629 0 0 1.00006 0.00260774
238 31.5502 3.96357 0.348551 0 0 1.00005 0.00265591
317 30.7352 4.65169 0.461927 0 0 1.00005 0.00266609
319 31.5241 4.57878 1.368 0 0 1.00005 0.002728
242 1.49775 5.51324 0.457771 0 0 1.00005 0.0028631
323 1.41162 6.1862 1.27498 0 0 1.00005 0.00294952
324 0.872671 6.91645 1.48264 0 0 1.00005 0.00301819
322 1.60567 6.92298 0.564432 0 0 1.00005 0.00301456
321 0.581311 5.98313 0.451016 0 0 1.00005 0.00287584
398 0.0806828 6.90914 0.604027 0 0 1.00005 0.00295222
399 0.0565502 6.11432 1.36509 0 0 1.00005 0.00288927
248 2.13712 5.50845 1.36927 0 0 1.00005 0.00290517
328 2.3391 7.02757 1.25336 0 0 1.00005 0.003064
325 2.47742 6.20674 0.504932 0 0 1.00005 0.00295673
327 2.88991 6.18318 1.41771 0 0 1.00005 0.00298656
246 3.2601 5.61692 0.278324 0 0 1.00005 0.00290267
252 3.71196 5.65739 1.30001 0 0 1.00004 0.00293213
332 3.86639 7.00598 1.16967 0 0 1.00004 0.00307065
329 3.98927 6.304 0.489108 0 0 1.00004 0.00297399
250 4.74944 5.50924 0.334252 0 0 1.00004 0.0028832
331 4.70269 6.14091 1.25232 0 0 1.00004 0.00297088
330 4.60804 7.05469 0.240812 0 0 1.00004 0.00304739
336 5.36798 6.8811 1.18853 0 0 1.00004 0.00303483
333 5.39713 6.2949 0.333334 0 0 1.00004 0.00294973
256 5.48776 5.49618 1.31972 0 0 1.00004 0.00288916
254 6.28058 5.47093 0.300211 0 0 1.00004 0.00283541
335 6.22757 6.28953 0.986552 0 0 1.00004 0.00293742
337 6.91306 6.14906 0.152057 0 0 1.00004 0.00287555
1177 6.99538 6.07408 1.64698 0 0 1.00004 0.00290675
340 6.98809 6.95587 1.01353 0 0 1.00004 0.00297782
339 7.80996 6.23171 0.785827 0 0 1.00003 0.00284873
1098 7.87464 5.48939 1.54379 0 0 1.00003 0.00279301
1178 7.81495 6.9398 1.6555 0 0 1.00003 0.0029633
258 7.7889 5.43746 0.0412425 0 0 1.00003 0.00275637
344 8.51169 6.95671 0.75227 0 0 1.00003 0.00288271
264 8.64274 5.40255 0.726005 0 0 1.00003 0.00270821
1181 8.69583 6.21344 1.55316 0 0 1.00003 0.00281994
343 9.32478 6.28398 0.766325 0 0 1.00003 0.00275325
1102 9.46004 5.42192 1.63647 0 0 1.00003 0.00268542
262 9.41011 5.56328 0.0256085 0 0 1.00003 0.00266106
268 10.1438 5.41964 0.824461 0 0 1.00003 0.00260041
1185 10.1476 6.27944 1.53407 0 0 1.00003 0.00271868
345 10.156 6.33996 0.102477 0 0 1.00003 0.00268509
272 11.7034 5.3657 1.03419 0 0 1.00003 0.00247203
347 10.9564 6.12543 0.983221 0 0 1.00003 0.00261089
349 11.6552 6.46145 0.0797762 0 0 1.00003 0.00257238
1186 10.8743 7.04219 1.55715 0 0 1.00003 0.00275016
266 10.8328 5.66074 0.0147997 0 0 1.00003 0.00255785
270 12.2841 5.6991 0.191997 0 0 1.00003 0.0024372
276 12.9513 5.88316 0.890013 0 0 1.00003 0.00241291
351 12.0926 6.31483 1.08712 0 0 1.00003 0.00253808
274 13.5558 5.60991 0.0447357 0 0 1.00003 0.0023185
1114 13.5945 5.94499 1.61424 0 0 1.00003 0.00239268
355 13.6282 6.6479 0.82957 0 0 1.00003 0.00243261
280 14.2929 5.77998 0.796195 0 0 1.00003 0.00228699
1197 14.5697 6.71103 1.45651 0 0 1.00003 0.00238982
357 14.3719 6.4508 0.0435116 0 0 1.00003 0.00233742
278 15.2094 5.67563 0.0423809 0 0 1.00003 0.00219609
359 15.2639 6.50053 0.82227 0 0 1.00003 0.0022881
284 16.0194 5.76454 0.959732 0 0 1.00003 0.00216625
363 16.6875 6.47541 1.16092 0 0 1.00003 0.00220608
1118 15.3257 5.91494 1.72614 0 0 1.00003 0.00226105
361 15.8826 6.37981 0.0489811 0 0 1.00003 0.00221973
282 16.79 5.43643 0.275559 0 0 1.00003 0.00207874
286 17.996 5.3062 0.539321 0 0 1.00004 0.00202345
288 17.2773 5.43245 1.25336 0 0 1.00003 0.00207891
365 17.2599 6.28853 0.411975 0 0 1.00003 0.00213934
367 17.8529 6.24377 1.37938 0 0 1.00003 0.00214104
372 18.4846 7.03884 1.14459 0 0 1.00004 0.00219544
369 18.5657 6.21001 0.614446 0 0 1.00004 0.00209349
290 19.6251 5.71225 0.614267 0 0 1.00004 0.00203848
371 19.5304 6.51457 1.32719 0 0 1.00004 0.0021367
373 20.221 6.68772 0.60147 0 0 1.00004 0.00213514
294 20.9804 5.70677 0.635597 0 0 1.00005 0.00205872
296 20.3864 5.55389 1.37297 0 0 1.00004 0.0020528
375 21.0222 6.53745 1.27813 0 0 1.00005 0.00215851
377 21.9237 6.58319 0.653536 0 0 1.00005 0.00217678
300 21.9111 5.79163 1.34358 0 0 1.00005 0.00212169
16260 21.9468 5.65861 0.0541817 0 0 1.00005 0.00208421
298 22.9587 5.7498 0.639283 0 0 1.00005 0.00215243
379 22.9422 6.5911 1.16976 0 0 1.00005 0.00224878
381 23.6867 6.66388 0.264159 0 0 1.00005 0.00228172
304 23.8106 5.79337 1.24647 0 0 1.00005 0.0022305
383 24.7067 6.46407 1.13213 0 0 1.00006 0.00236255
302 24.4924 5.89838 0.404904 0 0 1.00005 0.00227034
306 26.1082 5.76429 0.667141 0 0 1.00006 0.00239836
308 25.5131 5.93044 1.60981 0 0 1.00006 0.00239511
385 25.5743 6.61679 0.474808 0 0 1.00006 0.00243151
387 26.2984 6.49652 1.3628 0 0 1.00006 0.00251191
312 27.1524 5.75622 1.42642 0 0 1.00006 0.00251363
310 27.984 5.46904 0.691993 0 0 1.00006 0.00253526
389 27.2246 6.27502 0.616244 0 0 1.00006 0.00254619
391 28.2106 6.36864 1.33055 0 0 1.00006 0.00266336
390 28.2443 6.91784 0.503232 0 0 1.00006 0.00269901
392 27.3025 7.01887 1.29001 0 0 1.00006 0.00265344
316 28.8865 5.45052 1.43377 0 0 1.00006 0.00263184
395 29.9986 6.13481 1.29225 0 0 1.00006 0.00277917
393 29.0085 6.14104 0.634546 0 0 1.00006 0.00268518
16355 29.9228 6.07476 0.0729564 0 0 1.00006 0.00274038
16276 28.9875 5.33387 0.0382583 0 0 1.00006 0.00259847
396 29.2193 7.02151 1.19428 0 0 1.00006 0.00281151
394 30.1648 6.87639 0.495729 0 0 1.00006 0.00284643
318 31.5352 5.32321 0.583179 0 0 1.00005 0.00277492
320 30.7802 5.4023 1.42399 0 0 1.00006 0.00276177
397 30.9627 6.14378 0.625099 0 0 1.00006 0.00282359
400 30.9431 7.03256 1.16218 0 0 1.00006 0.00293189
401 0.914944 7.62753 0.642306 0 0 1.00005 0.00306882
402 1.53914 8.46801 0.592754 0 0 1.00005 0.00318232
404 1.03305 8.52487 1.44723 0 0 1.00005 0.00320304
478 0.358601 8.57025 0.385998 0 0 1.00006 0.00314387
479 0.146099 7.77027 1.27968 0 0 1.00006 0.00307145
403 1.77124 7.83631 1.4844 0 0 1.00005 0.00315203
405 2.2576 7.76694 0.389153 0 0 1.00005 0.00311973
408 2.4285 8.62425 1.46257 0 0 1.00005 0.00325466
326 3.11181 7.14813 0.469624 0 0 1.00005 0.00306593
406 2.90031 8.62385 0.401287 0 0 1.00005 0.00322521
407 3.06539 7.82829 1.29215 0 0 1.00005 0.00316517
412 3.71817 8.55469 0.966017 0 0 1.00005 0.00323775
409 3.88452 7.79231 0.337926 0 0 1.00005 0.0031355
410 4.48647 8.50141 0.0801138 0 0 1.00004 0.00320875
411 4.62124 7.68458 1.2369 0 0 1.00004 0.003141
413 5.29977 7.71745 0.237922 0 0 1.00004 0.00310538
416 5.34285 8.33805 0.969874 0 0 1.00004 0.00319335
334 6.11956 7.10862 0.163028 0 0 1.00004 0.0030144
414 6.48248 8.43415 0.189757 0 0 1.00004 0.00314964
415 6.09253 7.6466 1.04373 0 0 1.00004 0.00309383
420 6.99012 8.28731 1.08514 0 0 1.00003 0.00313193
417 7.05578 7.64438 0.170797 0 0 1.00003 0.00303485
419 7.84557 7.8521 0.779418 0 0 1.00003 0.00302821
1258 7.84685 8.26424 1.75412 0 0 1.00003 0.00312234
1182 9.54024 7.06857 1.52272 0 0 1.00003 0.00285614
421 8.51629 7.71329 0.0253675 0 0 1.00003 0.00295859
1261 8.58738 7.59354 1.61755 0 0 1.00003 0.00299
424 8.79385 8.43113 0.914662 0 0 1.00003 0.0030418
423 9.39184 7.7257 0.694686 0 0 1.00003 0.00290886
1262 9.5906 8.80368 1.51977 0 0 1.00003 0.00306162
346 10.9113 7.06084 0.145439 0 0 1.00003 0.00270192
1265 10.14 7.99256 1.65582 0 0 1.00003 0.00292995
428 10.206 8.72652 0.736166 0 0 1.00003 0.00296607
348 10.2578 7.31495 0.766294 0 0 1.00003 0.0027986
352 11.6672 7.24474 0.842223 0 0 1.00003 0.00267443
427 10.9985 8.04465 0.881304 0 0 1.00003 0.00282637
429 11.6201 8.22444 0.0497307 0 0 1.00003 0.00277498
1269 11.783 7.93139 1.66132 0 0 1.00002 0.0027858
356 13.0236 7.38774 0.600942 0 0 1.00003 0.002563
431 12.5364 8.3169 0.633719 0 0 1.00002 0.00271604
1190 12.4334 7.25923 1.44219 0 0 1.00002 0.00263503
1270 12.4657 8.79259 1.56795 0 0 1.00002 0.00282394
1273 13.1883 8.10414 1.54036 0 0 1.00002 0.0026745
350 12.2414 7.4744 0.000970572 0 0 1.00003 0.00263316
360 14.5758 7.41783 0.635167 0 0 1.00003 0.00243572
435 13.9162 8.18175 0.505999 0 0 1.00003 0.00257402
1194 13.7699 7.41501 1.40636 0 0 1.00003 0.0025329
1277 14.5469 8.23539 1.4077 0 0 1.00002 0.00256343
439 15.3534 8.34289 0.888687 0 0 1.00003 0.00248736
362 16.6523 7.20408 0.292433 0 0 1.00003 0.00226203
364 15.8673 7.34415 0.922471 0 0 1.00003 0.00233859
443 16.5173 8.18483 1.12423 0 0 1.00003 0.00240061
1198 15.3924 7.57496 1.68179 0 0 1.00003 0.00243975
441 16.1009 8.33378 0.158453 0 0 1.00003 0.00241649
368 17.201 7.36426 1.12313 0 0 1.00003 0.00227352
445 17.2913 8.11839 0.326981 0 0 1.00003 0.00232806
447 17.9533 8.02163 1.03854 0 0 1.00003 0.0023102
366 18.0298 7.16726 0.227059 0 0 1.00004 0.00219775
370 19.24 7.29526 0.625138 0 0 1.00004 0.00219342
451 19.18 8.11582 1.16908 0 0 1.00004 0.00230021
453 20.061 8.07765 0.358116 0 0 1.00004 0.00227015
449 18.6965 8.16491 0.189746 0 0 1.00004 0.00228324
376 20.1265 7.59394 1.2951 0 0 1.00004 0.00225061
374 20.9644 7.38706 0.646 0 0 1.00005 0.00222183
455 20.946 8.35502 1.00734 0 0 1.00005 0.00233333
380 21.847 7.5762 1.10834 0 0 1.00005 0.00228833
457 21.9295 8.2491 0.255211 0 0 1.00005 0.00233904
459 22.9463 8.07793 0.974781 0 0 1.00005 0.00239546
1218 22.7535 7.39332 1.69695 0 0 1.00005 0.00234678
378 22.6594 7.38266 0.372705 0 0 1.00005 0.00228945
458 23.1226 8.78817 0.196123 0 0 1.00005 0.00246177
1298 22.787 8.79185 1.54598 0 0 1.00005 0.0024928
384 23.8135 7.21798 1.02806 0 0 1.00005 0.00236583
461 23.8688 7.97258 0.355926 0 0 1.00006 0.00243235
463 24.7729 7.97598 0.953089 0 0 1.00006 0.00251925
1302 24.7075 8.61764 1.63134 0 0 1.00006 0.00262214
382 24.7248 7.2078 0.266747 0 0 1.00006 0.00241669
462 24.7537 8.69989 0.197831 0 0 1.00006 0.00257731
1301 23.764 7.93328 1.73079 0 0 1.00006 0.00247577
388 25.5652 7.27827 1.20022 0 0 1.00006 0.00252282
467 26.528 7.90175 0.954313 0 0 1.00006 0.00266594
1306 26.5531 8.51544 1.68529 0 0 1.00006 0.00277799
386 26.5544 7.15766 0.36118 0 0 1.00006 0.00257161
465 25.6867 7.99704 0.301846 0 0 1.00006 0.00258394
468 25.7779 8.73672 0.960093 0 0 1.00006 0.00269148
466 26.7859 8.47691 0.0902463 0 0 1.00006 0.00273398
471 28.3744 7.73375 1.16922 0 0 1.00006 0.00282045
472 27.5461 8.55557 0.987503 0 0 1.00006 0.00283341
469 27.5243 7.68231 0.415987 0 0 1.00006 0.00271611
1310 28.3942 8.59083 1.73296 0 0 1.00006 0.00295185
470 28.5465 8.41121 0.391179 0 0 1.00006 0.00288632
475 30.1107 7.61361 1.25102 0 0 1.00006 0.00294471
476 29.3894 8.46887 1.15041 0 0 1.00006 0.00298367
473 29.2926 7.65555 0.401154 0 0 1.00006 0.00286449
474 30.2337 8.3188 0.526278 0 0 1.00006 0.00301009
480 31.0929 8.43314 1.17045 0 0 1.00006 0.00309728
477 31.2708 7.82674 0.379169 0 0 1.00006 0.00301758
484 0.993217 9.91895 0.908659 0 0 1.00006 0.00333108
481 1.0784 9.31912 0.127354 0 0 1.00005 0.00325483
1322 1.57378 10.1134 1.74511 0 0 1.00005 0.0034192
559 0.214343 9.23986 1.12178 0 0 1.00006 0.00323256
558 0.218675 9.91493 0.0666846 0 0 1.00006 0.00327801
483 1.74369 9.33823 1.18956 0 0 1.00005 0.00330584
482 1.86816 10.2713 0.258942 0 0 1.00005 0.00337995
485 2.46544 9.46267 0.433614 0 0 1.00005 0.00331272
488 2.57478 10.3471 0.978883 0 0 1.00005 0.00342305
486 3.31533 10.2926 0.0723542 0 0 1.00005 0.00340491
487 3.0942 9.4554 1.21623 0 0 1.00005 0.00334585
1326 3.51062 10.2517 1.68585 0 0 1.00005 0.00346212
489 3.77893 9.37871 0.10955 0 0 1.00005 0.00331008
1329 3.94331 9.28252 1.70546 0 0 1.00004 0.0033561
492 4.09713 10.0818 0.768006 0 0 1.00004 0.00339701
491 4.62182 9.15438 0.87726 0 0 1.00004 0.00329564
1330 4.84764 10.0132 1.62547 0 0 1.00004 0.00342508
493 5.24123 9.26354 0.00305098 0 0 1.00004 0.00328089
496 5.29915 10.0424 0.584228 0 0 1.00004 0.00337352
1333 5.36448 9.11993 1.67476 0 0 1.00004 0.00331968
495 5.97814 9.04015 0.68063 0 0 1.00004 0.00324708
1334 6.0192 9.9103 1.2356 0 0 1.00004 0.00336352
1337 6.79703 9.15754 1.30977 0 0 1.00003 0.00325522
500 6.88022 9.88179 0.540109 0 0 1.00003 0.00330253
499 7.74944 8.97571 0.752054 0 0 1.00003 0.00316353
1338 7.7809 9.84194 1.2534 0 0 1.00003 0.00328251
504 8.55655 10.0379 0.608614 0 0 1.00003 0.0032305
1341 8.61632 9.27077 1.46154 0 0 1.00003 0.00318052
501 8.65305 9.15622 0.0948771 0 0 1.00003 0.00311644
503 9.47778 9.55328 0.763521 0 0 1.00003 0.00311984
1342 9.32985 10.3448 1.48428 0 0 1.00003 0.00325723
1266 11.0334 8.8383 1.50642 0 0 1.00002 0.00295053
508 10.1778 10.4316 0.710954 0 0 1.00002 0.00316193
1345 10.3322 9.68534 1.49542 0 0 1.00002 0.00310819
426 10.8598 8.98184 0.0351784 0 0 1.00003 0.00292867
507 10.9486 9.78427 0.704056 0 0 1.00002 0.00302825
1346 11.1257 10.2987 1.71954 0 0 1.00002 0.00313123
432 11.7695 8.9534 0.769411 0 0 1.00002 0.00286194
1349 11.7795 9.72291 1.40459 0 0 1.00002 0.00298538
436 13.3281 9.03673 0.820047 0 0 1.00002 0.0027346
511 12.5075 9.89906 0.728524 0 0 1.00002 0.00290453
516 13.2204 10.5718 1.00065 0 0 1.00002 0.00292365
1353 12.9722 9.72057 1.69143 0 0 1.00002 0.00290102
1274 14.0156 8.95316 1.63021 0 0 1.00002 0.00271122
440 14.7629 9.24501 0.797755 0 0 1.00002 0.00263327
515 13.8907 9.78879 0.885612 0 0 1.00002 0.00277267
517 14.6077 10.1974 0.235174 0 0 1.00002 0.00273471
444 16.1736 9.18725 1.15545 0 0 1.00003 0.0025382
519 15.4472 9.92537 1.05234 0 0 1.00003 0.00266585
521 15.989 10.2064 0.252592 0 0 1.00003 0.00262693
438 15.5671 9.24736 0.130355 0 0 1.00003 0.00255385
442 16.7617 9.0718 0.272508 0 0 1.00003 0.00245758
523 16.7957 9.98287 0.985057 0 0 1.00003 0.00257581
448 17.3593 9.06672 1.13525 0 0 1.00003 0.00245491
525 17.447 10.0287 0.203255 0 0 1.00003 0.00252097
527 18.0629 9.85531 1.07453 0 0 1.00003 0.00250644
446 18.0238 9.09976 0.125583 0 0 1.00003 0.00239994
452 18.5669 8.8873 0.945799 0 0 1.00004 0.00238296
529 18.8837 9.71709 0.304965 0 0 1.00004 0.00244354
531 19.8047 9.85714 0.854014 0 0 1.00004 0.0024685
532 19.0299 10.4394 1.14029 0 0 1.00004 0.00254628
1369 18.945 9.56592 1.6994 0 0 1.00004 0.00249626
450 19.5084 8.92644 0.212739 0 0 1.00004 0.00235476
456 20.1204 8.90562 1.03551 0 0 1.00004 0.0023782
533 20.3159 9.73573 0.0689481 0 0 1.00004 0.0024409
535 21.2807 9.74426 0.748203 0 0 1.00005 0.00248007
1373 20.5677 9.61199 1.63424 0 0 1.00005 0.00249873
454 21.0988 9.00274 0.194239 0 0 1.00005 0.00238464
1374 21.4542 10.0418 1.72778 0 0 1.00005 0.00257695
536 20.7603 10.5763 0.799016 0 0 1.00005 0.00254969
460 21.9694 8.94981 0.949047 0 0 1.00005 0.00243332
539 23.2403 9.60694 0.785239 0 0 1.00006 0.00257092
540 22.5132 10.4391 0.817383 0 0 1.00005 0.00260813
1377 22.3245 9.70863 1.48563 0 0 1.00005 0.00256229
537 22.339 9.72179 0.215497 0 0 1.00005 0.00251166
1378 23.486 10.4236 1.38688 0 0 1.00006 0.00270526