ITEM: TIMESTEP
16500
ITEM: NUMBER OF ATOMS
32000
ITEM: BOX BOUNDS pp pp pp
0.0000000000000000e+00 3.1748021039364001e+01
0.0000000000000000e+00 3.1748021039364001e+01
0.0000000000000000e+00 3.1748021039364001e+01
ITEM: ATOMS id x y z c_phase c_nbond c_rho vx
4 0.204416 1.0999 0.467778 0 0 1.00001 0.000857801
83 1.06093 1.66833 0.781178 0 0 1.00001 0.000882868
842 0.804122 0.792448 1.41155 0 0 1.00001 0.000875154
921 0.0948023 1.59992 1.37762 0 0 1.00001 0.000881516
3 0.81673 0.0671738 0.620246 0 0 1.00001 0.000856109
8 1.79685 0.816301 1.01581 0 0 1.00001 0.000864513
85 1.88859 1.48218 0.218553 0 0 1.00001 0.000867372
925 1.91591 1.66275 1.76082 0 0 1.00001 0.000899653
6 2.60083 0.749244 0.204716 0 0 1.00001 0.0008381
7 2.6701 0.0564793 1.04016 0 0 1.00001 0.000840395
87 2.73012 1.54529 0.88312 0 0 1.00001 0.000856337
846 2.75602 0.821219 1.74675 0 0 1.00001 0.000860821
12 3.50744 0.934748 0.963302 0 0 1.00001 0.000815902
849 3.57287 0.0913395 1.71389 0 0 1.00001 0.000821882
929 3.68391 1.71311 1.72538 0 0 1.00001 0.000843849
10 4.17863 0.862066 0.325079 0 0 1.00001 0.000772444
93 4.98243 1.60751 0.387119 0 0 1.00001 0.000738438
850 4.41078 0.947583 1.63995 0 0 1.00001 0.000783296
9 3.54866 0.108744 0.173873 0 0 1.00001 0.000797507
16 5.02814 0.569826 1.17571 0 0 1.00001 0.000725841
14 5.70096 0.648258 0.326149 0 0 1.00001 0.000664721
95 5.93607 1.31996 0.947648 0 0 1.00001 0.000664381
97 6.61764 1.40178 0.220688 0 0 1.00001 0.000598018
854 5.83915 0.462677 1.71034 0 0 1.00001 0.000675751
933 5.09137 1.73056 1.44449 0 0 1.00001 0.000750275
20 6.75411 0.395389 0.873728 0 0 1.00001 0.000576739
937 6.73367 1.01783 1.7063 0 0 1.00001 0.00060548
24 8.28507 0.412763 1.08116 0 0 1 0.000427529
99 7.39957 1.23273 0.961011 0 0 1 0.000527689
101 8.26535 1.40125 0.23944 0 0 1 0.000435134
941 8.15051 1.28238 1.62056 0 0 1 0.000466803
18 7.61008 0.654584 0.144063 0 0 1.00001 0.000489018
22 8.86683 0.512616 0.275742 0 0 1 0.000357134
28 9.55212 0.340789 0.897144 0 0 1 0.000288339
103 9.03243 1.3178 1.12096 0 0 1 0.00036312
105 9.63701 1.384 0.0924054 0 0 1 0.000287465
32 11.1861 0.217554 0.639584 0 0 1 0.000112195
107 10.3507 1.05595 0.830593 0 0 1 0.000209846
866 10.5072 0.19877 1.45715 0 0 1 0.000195602
949 11.2609 1.02481 1.42874 0 0 1 0.000124542
946 10.5639 1.69081 1.74288 0 0 1 0.000219947
26 10.2314 0.370415 0.0794737 0 0 1 0.000209169
36 12.8311 0.214444 0.642407 0 0 1 -4.20493e-05
111 12.0074 1.08094 0.512755 0 0 1 3.82659e-05
870 12.094 0.318478 1.30984 0 0 1 3.36568e-05
953 12.6756 1.20374 1.3822 0 0 1 -8.93574e-06
40 14.315 0.325022 0.775525 0 0 1.00001 -0.000148333
115 13.5377 1.11653 0.849088 0 0 1 -8.75512e-05
117 13.9858 1.56472 0.164894 0 0 1.00001 -0.000117334
874 13.5566 0.362178 1.64364 0 0 1 -8.36562e-05
957 14.3192 1.15488 1.48441 0 0 1.00001 -0.000129639
119 14.8163 1.55723 0.666014 0 0 1.00001 -0.000161722
44 15.6435 0.768181 0.789125 0 0 1.00001 -0.000206536
123 16.4848 1.54274 0.682409 0 0 1.00001 -0.000215456
878 15.0793 0.465199 1.64522 0 0 1.00001 -0.000174322
882 16.48 0.710314 1.34319 0 0 1.00001 -0.000218713
961 15.5663 1.49 1.39502 0 0 1.00001 -0.000184922
38 15.0405 0.712221 0.0673154 0 0 1.00001 -0.000187643
48 17.1935 0.729818 0.551146 0 0 1.00001 -0.000230947
127 17.8611 1.57828 0.754886 0 0 1.00001 -0.000210386
886 17.8537 0.741926 1.42424 0 0 1.00001 -0.000213759
965 17.1542 1.74538 1.56187 0 0 1.00001 -0.000202677
51 19.4862 0.0144392 0.661014 0 0 1.00001 -0.00016591
52 18.7348 0.723755 0.683814 0 0 1.00001 -0.000197649
131 19.4888 1.54695 0.838189 0 0 1.00001 -0.000149983
889 18.9701 0.15536 1.54026 0 0 1.00001 -0.000181107
890 19.5432 0.962708 1.68373 0 0 1.00001 -0.000143196
969 18.6015 1.5051 1.49569 0 0 1.00001 -0.000181362
55 21.0601 0.347156 1.06142 0 0 1.00001 -5.41529e-05
56 20.2051 0.772233 0.973557 0 0 1.00001 -0.000115059
135 21.0723 1.64325 0.947613 0 0 1.00001 -3.61512e-05
54 21.1542 0.760616 0.216689 0 0 1.00001 -4.94306e-05
133 20.3031 1.50544 0.194913 0 0 1.00001 -0.000104472
57 21.9881 0.261385 0.535878 0 0 1.00001 2.22317e-05
59 22.7826 0.426287 1.39696 0 0 1.00001 0.000111643
60 22.0916 1.13945 1.32082 0 0 1.00002 5.05949e-05
137 21.9767 1.58845 0.533073 0 0 1.00002 3.74401e-05
58 22.9077 1.06457 0.443323 0 0 1.00002 0.000120316
63 24.2428 0.376695 1.43899 0 0 1.00002 0.000269085
61 23.569 0.353872 0.56979 0 0 1.00002 0.000183205
62 24.4518 1.17639 0.748724 0 0 1.00002 0.000289425
64 23.478 1.23876 1.39178 0 0 1.00002 0.000195988
65 24.9784 0.313093 0.547367 0 0 1.00002 0.000336334
67 26.0459 0.379117 1.16367 0 0 1.00002 0.000456882
68 25.1958 1.11704 1.46822 0 0 1.00002 0.00038282
147 25.9693 1.72283 1.34709 0 0 1.00002 0.000475706
66 25.9281 0.924226 0.427699 0 0 1.00002 0.000441795
70 27.6327 1.27394 0.385568 0 0 1.00002 0.000616002
71 27.6725 0.504587 0.869563 0 0 1.00002 0.000613256
72 26.804 1.02147 1.25398 0 0 1.00002 0.000544283
69 26.8398 0.238915 0.226487 0 0 1.00002 0.000525909
913 28.446 0.338148 1.397 0 0 1.00002 0.000685828
76 28.7197 1.23295 0.735484 0 0 1.00002 0.000707955
914 29.4628 0.948101 1.56368 0 0 1.00002 0.000769753
993 28.5918 1.71305 1.49331 0 0 1.00002 0.00072291
917 29.8974 0.169308 1.45559 0 0 1.00001 0.000786292
75 29.3478 0.353432 0.613558 0 0 1.00001 0.000738473
841 31.6759 0.267271 1.25678 0 0 1.00001 0.000853388
79 30.79 0.483452 0.473968 0 0 1.00001 0.000815325
80 30.1786 1.19528 0.771729 0 0 1.00001 0.000801079
918 30.9485 0.970068 1.39139 0 0 1.00001 0.000842088
82 1.19977 2.43864 0.126464 0 0 1.00001 0.000903828
84 0.224435 2.38171 0.81048 0 0 1.00001 0.000898742
163 1.37932 3.23799 0.948588 0 0 1.00001 0.000948788
922 1.23093 2.36517 1.59247 0 0 1.00001 0.00092475
1001 0.479616 3.03386 1.54964 0 0 1.00001 0.000949026
161 0.423882 3.09942 0.131223 0 0 1.00001 0.000927266
88 1.99914 2.42191 0.786455 0 0 1.00001 0.000901856
167 2.74405 3.28927 0.862667 0 0 1.00001 0.000926046
926 2.75658 2.23977 1.54188 0 0 1.00001 0.000893021
1009 3.34548 3.43512 1.65772 0 0 1.00001 0.000933222
86 2.80763 2.38985 0.0558335 0 0 1.00001 0.000874939
92 3.46212 2.56528 0.784878 0 0 1.00001 0.000863064
91 4.08024 1.8474 0.71588 0 0 1.00001 0.000803809
96 4.97775 2.58462 0.822218 0 0 1.00001 0.000778022
171 4.27672 3.33235 0.755071 0 0 1.00001 0.000857336
930 4.21147 2.6535 1.59024 0 0 1.00001 0.000847294
94 5.70706 2.45835 0.13573 0 0 1.00001 0.000709207
100 6.60318 2.19616 0.780503 0 0 1.00001 0.000628703
175 5.70985 3.21499 0.961294 0 0 1.00001 0.000754415
934 5.91644 2.21102 1.50634 0 0 1.00001 0.000706273
1017 6.57258 3.08741 1.56688 0 0 1 0.000688646
177 6.69451 2.94923 0.13535 0 0 1 0.000644971
98 7.48574 2.24197 0.14151 0 0 1 0.000540057
104 8.10642 2.21835 0.939606 0 0 1 0.000483765
179 7.43749 3.0887 0.941133 0 0 1 0.000590537
938 7.33524 2.07626 1.58139 0 0 1 0.000572632
1021 8.2111 3.02394 1.66712 0 0 1 0.000525947
181 8.29165 2.9921 0.0408946 0 0 1 0.000487037
102 8.91463 2.10365 0.255288 0 0 1 0.000385529
108 9.77026 2.03951 1.11849 0 0 1 0.000302184
183 8.93835 2.99429 0.938623 0 0 1 0.000426973
942 9.04017 2.23841 1.71954 0 0 1 0.000403409
185 9.5631 2.92689 0.215079 0 0 1 0.00034597
106 10.2724 2.12853 0.216023 0 0 1 0.000238428
112 11.1347 1.83966 0.778072 0 0 1 0.00014419
187 10.6068 2.82736 0.929928 0 0 1 0.00023564
1029 11.4176 2.84964 1.58998 0 0 1 0.000168603
116 12.6307 1.95159 0.599626 0 0 1 2.28259e-07
191 11.8948 2.65849 0.747843 0 0 1 9.30661e-05
950 11.8913 1.93254 1.47687 0 0 1 8.25684e-05
1033 12.8016 3.03417 1.70015 0 0 1 4.5246e-05
195 13.1371 3.04141 0.851542 0 0 1 -3.62563e-06
954 13.3297 2.00118 1.48911 0 0 1 -4.27897e-05
114 13.3633 2.30574 0.0590352 0 0 1 -5.35589e-05
120 13.9651 2.45412 0.929491 0 0 1 -8.58905e-05
1037 13.9734 3.39761 1.56464 0 0 1 -3.62597e-05
199 14.6374 3.44534 0.885771 0 0 1 -9.17753e-05
958 14.7264 2.30552 1.44889 0 0 1.00001 -0.000127215
118 14.7802 2.51893 0.138261 0 0 1.00001 -0.000139793
197 14.101 3.23436 0.0363677 0 0 1 -7.45899e-05
124 15.6329 2.44377 0.696935 0 0 1.00001 -0.000174259
203 16.2401 3.20104 0.667697 0 0 1.00001 -0.000166147
962 16.243 2.47856 1.5262 0 0 1.00001 -0.000176105
1041 15.3104 3.26213 1.50673 0 0 1.00001 -0.000119412
201 15.5058 3.26276 0.0226326 0 0 1.00001 -0.000146875
128 17.0012 2.35012 0.68282 0 0 1.00001 -0.000201054
207 17.8822 2.92092 0.699867 0 0 1.00001 -0.000175785
966 17.9567 2.43164 1.5797 0 0 1.00001 -0.000175217
1045 17.0263 3.11188 1.49541 0 0 1.00001 -0.000163411
132 18.835 2.34955 1.00915 0 0 1.00001 -0.000160829
211 19.6513 3.22494 1.27029 0 0 1.00001 -8.68147e-05
209 18.827 2.98603 0.193493 0 0 1.00001 -0.000148901
130 19.5386 2.3287 0.102366 0 0 1.00001 -0.000133939
973 20.2825 1.77568 1.71695 0 0 1.00001 -8.12076e-05
134 21.1263 2.40207 0.454312 0 0 1.00001 -1.86802e-05
136 20.1522 2.45311 1.10669 0 0 1.00001 -8.38082e-05
215 21.2819 3.27466 1.38029 0 0 1.00002 3.95514e-05
213 20.3805 2.97844 0.331448 0 0 1.00001 -5.8721e-05
139 22.8658 2.05213 1.49805 0 0 1.00002 0.000149773
138 22.966 2.58301 0.728881 0 0 1.00002 0.000165384
140 22.0761 2.48065 1.22851 0 0 1.00002 8.12611e-05
217 21.969 3.17899 0.594555 0 0 1.00002 8.68023e-05
16179 22.6708 3.37664 0.0728524 0 0 1.00002 0.0001607
141 23.7489 1.79444 0.618899 0 0 1.00002 0.00022575
143 24.4456 1.97153 1.59642 0 0 1.00002 0.000323716
142 24.3587 2.66256 0.768163 0 0 1.00002 0.000320653
144 23.6956 2.87906 1.52268 0 0 1.00002 0.000271327
223 24.4952 3.48459 1.54239 0 0 1.00002 0.000387971
16108 24.982 2.82317 0.0144653 0 0 1.00002 0.000391809
149 26.5954 1.78193 0.507847 0 0 1.00002 0.000530166
145 25.1591 1.84195 0.506675 0 0 1.00002 0.000379641
146 25.8308 2.59294 0.70078 0 0 1.00002 0.000478649
148 25.1889 2.53766 1.51176 0 0 1.00002 0.000421163
227 25.7627 3.4731 1.50011 0 0 1.00002 0.000528161
152 26.5853 2.54441 1.51844 0 0 1.00002 0.000572276
229 26.2177 3.47856 0.592277 0 0 1.00002 0.000559197
151 27.5631 1.9737 1.22821 0 0 1.00002 0.000640251
153 28.3177 2.08022 0.341942 0 0 1.00002 0.000696167
150 27.1435 2.67593 0.63823 0 0 1.00002 0.000616256
231 27.2641 3.33379 1.40551 0 0 1.00002 0.000673859
156 28.3234 2.74295 1.1969 0 0 1.00002 0.000733806
233 28.0505 3.20517 0.327489 0 0 1.00002 0.0007184
997 30.0425 1.80238 1.70197 0 0 1.00002 0.000828458
155 29.5238 2.0333 0.878784 0 0 1.00002 0.000787134
154 29.2718 2.65507 0.287189 0 0 1.00002 0.000787555
235 29.3334 3.24952 1.17248 0 0 1.00002 0.000832639
159 30.9975 1.97867 0.922424 0 0 1.00001 0.000860205
160 30.2671 2.70365 0.998768 0 0 1.00001 0.000857048
239 31.1175 3.34083 0.972254 0 0 1.00001 0.000923125
998 31.0765 2.68927 1.72417 0 0 1.00001 0.000909788
237 30.2011 3.24347 0.139684 0 0 1.00001 0.000869315
157 30.4922 1.90298 0.0290935 0 0 1.00001 0.000828401
158 31.2311 2.65787 0.0761281 0 0 1.00001 0.00088535
164 0.39129 3.7823 0.919609 0 0 1.00001 0.000971819
241 0.243108 4.59703 0.477928 0 0 1.00001 0.00101468
243 1.23749 4.67263 0.988784 0 0 1.00001 0.00103695
244 0.197046 5.26481 1.27555 0 0 1.00001 0.0010793
162 1.1377 3.86342 0.0654071 0 0 1.00001 0.000973356
168 1.94131 4.05065 0.850295 0 0 1.00001 0.000988033
247 2.63629 4.86848 1.13726 0 0 1.00001 0.00103572
166 2.74114 4.15507 0.205951 0 0 1.00001 0.000968503
245 1.99717 4.97315 0.281397 0 0 1.00001 0.0010419
249 3.49925 4.8766 0.163701 0 0 1.00001 0.000988577
172 3.57767 4.09146 0.891201 0 0 1.00001 0.000940769
176 4.98567 4.02306 1.18773 0 0 1.00001 0.000861783
251 4.13679 4.89983 1.15545 0 0 1.00001 0.000975199
170 4.33731 4.20052 0.14874 0 0 1.00001 0.000898984
253 5.08399 4.76422 0.341589 0 0 1.00001 0.000889682
174 5.83398 3.96075 0.198275 0 0 1.00001 0.000776176
180 6.54468 3.79157 0.782321 0 0 1 0.000711441
255 5.75225 4.75983 1.03727 0 0 1.00001 0.000849793
1097 6.71871 4.54303 1.66145 0 0 1 0.00077069
260 6.73441 5.16485 0.893028 0 0 1 0.000790858
184 8.22543 3.91785 0.710169 0 0 1 0.00054931
259 7.44909 4.49043 0.55487 0 0 1 0.000664324
1018 7.44039 3.89714 1.51319 0 0 1 0.000651607
1101 8.23185 4.64369 1.50393 0 0 1 0.000617417
188 9.89543 3.60453 0.8958 0 0 1 0.000350956
263 9.09309 4.5977 0.832064 0 0 1 0.000499969
265 9.86258 4.53574 0.129496 0 0 1 0.000399552
1022 9.08939 3.7916 1.51505 0 0 1 0.000467645
1105 9.8725 4.37944 1.6752 0 0 1 0.00042436
182 8.99877 3.89496 0.0645093 0 0 1 0.000457595
192 11.3827 3.66791 0.789444 0 0 1 0.000190469
267 10.5785 4.69546 0.917893 0 0 1 0.000340838
269 11.3631 4.7225 0.232608 0 0 1 0.000246735
1026 10.6923 3.59398 1.60487 0 0 1 0.000281163
1109 11.3426 4.40435 1.72279 0 0 1 0.000264244
186 10.5712 3.87373 0.178271 0 0 1 0.000280876
196 12.4732 3.60108 0.821659 0 0 1 7.99166e-05
271 12.1556 4.57607 1.01034 0 0 1 0.000168109
1113 12.7016 5.02077 1.7051 0 0 1 0.000168735
275 13.1789 4.704 0.80764 0 0 1 7.59916e-05
273 12.5997 4.64166 0.0635593 0 0 1 0.000116292
200 13.9359 4.14135 0.701814 0 0 1 -1.69658e-05
1034 13.4348 4.2375 1.60462 0 0 1 4.98477e-05
1117 14.1467 5.13367 1.53207 0 0 1 4.7901e-05
279 14.8794 5.023 0.816163 0 0 1 -2.61873e-05
1038 14.9048 4.42433 1.60079 0 0 1 -3.99311e-05
277 14.0839 4.91896 0.0648858 0 0 1 8.81735e-06
198 14.8981 4.20106 0.100109 0 0 1 -7.93325e-05
204 15.6022 4.07062 0.927042 0 0 1.00001 -0.000107912
281 15.8107 4.77772 0.18777 0 0 1.00001 -8.84771e-05
283 16.5271 4.57964 0.901106 0 0 1.00001 -0.000106615
1042 16.2537 3.95994 1.69097 0 0 1.00001 -0.000112287
1121 15.7468 5.05502 1.64568 0 0 1.00001 -3.82407e-05
208 17.2045 3.82784 0.810162 0 0 1.00001 -0.000147795
287 18.0227 4.47664 1.09394 0 0 1.00001 -0.000101992
1046 17.8902 3.62982 1.65169 0 0 1.00001 -0.000130279
285 17.3877 4.56987 0.0167023 0 0 1.00001 -0.000119684
206 18.0737 3.84347 0.060954 0 0 1.00001 -0.000141605
212 18.8186 3.69386 0.947852 0 0 1.00001 -0.000115165
289 18.7664 4.59394 0.359813 0 0 1.00001 -8.36123e-05
291 19.6389 4.65496 1.07812 0 0 1.00001 -2.56463e-05
292 18.7269 5.25869 1.19381 0 0 1.00001 -3.43977e-05
210 19.5481 3.74956 0.228247 0 0 1.00001 -8.42755e-05
216 20.3978 3.80028 1.22487 0 0 1.00001 -1.35827e-05
295 20.8508 4.69035 1.38091 0 0 1.00002 7.29417e-05
297 21.5576 4.92065 0.800372 0 0 1.00002 0.0001357
214 21.0529 3.90828 0.508254 0 0 1.00002 3.22929e-05
293 20.0938 4.76173 0.347316 0 0 1.00001 -6.53853e-07
219 22.8167 3.60369 1.40692 0 0 1.00002 0.000205561
220 21.9222 4.10474 1.29817 0 0 1.00002 0.000136478
299 22.465 5.13973 1.25935 0 0 1.00002 0.000250533
218 22.6064 4.31689 0.506883 0 0 1.00002 0.000203431
221 23.5807 3.61137 0.774178 0 0 1.00002 0.00027576
222 24.3573 4.29102 0.618453 0 0 1.00002 0.000395992
224 23.4761 4.51533 1.31976 0 0 1.00002 0.000325033
305 24.8873 5.22007 0.559277 0 0 1.00002 0.000514828
301 23.5619 5.02997 0.526397 0 0 1.00002 0.000348762
228 25.045 4.46578 1.60443 0 0 1.00002 0.000509804
303 24.3898 5.25169 1.41634 0 0 1.00002 0.000480236
225 25.0942 3.65094 0.79237 0 0 1.00002 0.000448012
307 25.741 5.10473 1.32914 0 0 1.00002 0.000620893
232 26.4133 4.26177 1.35948 0 0 1.00002 0.000639494
309 26.5623 4.94322 0.63435 0 0 1.00002 0.000681795
226 25.5709 4.37202 0.386246 0 0 1.00002 0.000534658
311 27.402 4.84214 1.39244 0 0 1.00002 0.000777348
236 28.0348 3.9541 1.09696 0 0 1.00002 0.000768512
313 28.3575 4.71424 0.699815 0 0 1.00002 0.000837005
230 27.1284 4.01763 0.568279 0 0 1.00002 0.000679596
234 29.0124 3.75691 0.480289 0 0 1.00002 0.000824708
315 29.1742 4.50409 1.32045 0 0 1.00002 0.000899339
240 30.0876 4.05276 1.02258 0 0 1.00002 0.000919443
238 31.1243 3.973 0.366446 0 0 1.00001 0.000951461
317 30.3021 4.67233 0.482048 0 0 1.00002 0.000962672
319 31.079 4.59553 1.40004 0 0 1.00002 0.00101072
242 1.01746 5.53194 0.462131 0 0 1.00001 0.00109111
248 1.64171 5.5175 1.38091 0 0 1.00001 0.00111188
323 0.911623 6.21524 1.27755 0 0 1.00001 0.00116545
324 0.37418 6.92098 1.50369 0 0 1.00001 0.00122961
322 1.09097 6.94534 0.571613 0 0 1.00001 0.00121104
321 0.0899433 5.99505 0.447228 0 0 1.00001 0.00111539
328 1.82476 7.03598 1.24498 0 0 1.00001 0.00123467
325 2.00137 6.20892 0.516851 0 0 1.00001 0.00114
252 3.21131 5.63827 1.30549 0 0 1.00001 0.00108162
327 2.37862 6.16876 1.41715 0 0 1.00001 0.00115423
246 2.78425 5.62189 0.275258 0 0 1.00001 0.00107231
332 3.36313 6.98424 1.14215 0 0 1.00001 0.00118699
329 3.49858 6.29712 0.500328 0 0 1.00001 0.00110234
250 4.27997 5.48452 0.328855 0 0 1.00001 0.000994856
256 5.01822 5.45672 1.32526 0 0 1.00001 0.000968175
331 4.22831 6.11841 1.2392 0 0 1.00001 0.00107078
333 4.91418 6.26141 0.336154 0 0 1.00001 0.00101812
336 4.86857 6.83337 1.17287 0 0 1.00001 0.00109136
330 4.10365 7.04445 0.226959 0 0 1.00001 0.00113594
254 5.85063 5.44636 0.304469 0 0 1.00001 0.000879779
335 5.76801 6.2715 0.973855 0 0 1 0.000969618
1177 6.52806 6.02135 1.61762 0 0 1 0.000906487
340 6.50612 6.90741 1.01914 0 0 1 0.000962325
337 6.44812 6.08098 0.15573 0 0 1 0.000877298
264 8.24542 5.34986 0.705343 0 0 1 0.000645948
339 7.37807 6.19406 0.766156 0 0 1 0.000807712
1098 7.44199 5.4528 1.51202 0 0 1 0.000764275
1181 8.2761 6.15162 1.51551 0 0 1 0.000736402
344 8.06025 6.89567 0.740955 0 0 1 0.000794493
1178 7.34348 6.90234 1.62165 0 0 1 0.000910581
258 7.37603 5.39111 0.0463363 0 0 1 0.000732212
268 9.77417 5.35636 0.804552 0 0 1 0.000475931
343 8.90719 6.22808 0.74889 0 0 1 0.000644206
1102 9.07346 5.36548 1.617 0 0 1 0.000586561
1185 9.75054 6.22981 1.49177 0 0 1 0.000574413
1182 9.12 6.99639 1.488 0 0 0.999998 0.000716674
345 9.7716 6.27177 0.09756 0 0 1 0.000538201
262 9.0174 5.5028 0.0164076 0 0 1 0.000563546
272 11.3691 5.30579 0.999716 0 0 1 0.000299778
347 10.5799 6.06003 0.977034 0 0 1 0.000442896
349 11.2963 6.40624 0.0798866 0 0 1 0.000374783
346 10.5185 6.98306 0.156845 0 0 0.999999 0.000509176
1186 10.4714 6.96984 1.52131 0 0 0.999998 0.000560012
270 11.9682 5.65618 0.186533 0 0 1 0.000244753
276 12.6368 5.84407 0.872339 0 0 1 0.000204051
351 11.7522 6.24321 1.06757 0 0 1 0.000329886
1114 13.2785 5.89246 1.57371 0 0 1 0.000172729
355 13.3062 6.60646 0.821449 0 0 1 0.00019514
274 13.272 5.56186 0.0440097 0 0 1 0.000112305
280 14.0074 5.73526 0.78037 0 0 1 7.45601e-05
1197 14.2702 6.67067 1.42115 0 0 1 0.000146255
357 14.0752 6.4043 0.0400567 0 0 1 0.000105104
278 14.9615 5.65189 0.0367827 0 0 1 -2.18815e-06
359 14.9843 6.46314 0.81173 0 0 1 6.16415e-05
284 15.7645 5.74227 0.958637 0 0 1.00001 -1.90068e-05
363 16.4242 6.45272 1.14354 0 0 1.00001 1.60411e-05
1118 15.0455 5.88639 1.7063 0 0 1 5.2112e-05
282 16.5532 5.4181 0.276349 0 0 1.00001 -7.01819e-05
361 15.6113 6.34638 0.0416374 0 0 1.00001 1.1457e-05
286 17.7645 5.29354 0.539677 0 0 1.00001 -7.354e-05
288 17.0453 5.41972 1.24634 0 0 1.00001 -5.52664e-05
365 16.9981 6.27042 0.410838 0 0 1.00001 -2.1388e-05
367 17.6006 6.23604 1.37957 0 0 1.00001 5.06654e-06
372 18.2143 7.03599 1.12888 0 0 1.00001 6.36093e-05
369 18.3132 6.21457 0.608346 0 0 1.00001 -4.26957e-06
290 19.38 5.73403 0.615559 0 0 1.00001 1.18625e-05
371 19.2762 6.53183 1.33687 0 0 1.00001 7.89522e-05
373 19.9524 6.72103 0.603839 0 0 1.00002 0.000112219
294 20.7184 5.74381 0.645513 0 0 1.00002 0.000107636
296 20.15 5.58138 1.38262 0 0 1.00002 7.16957e-05
375 20.7483 6.57645 1.28767 0 0 1.00002 0.000185553
377 21.642 6.62489 0.658073 0 0 1.00002 0.00025203
300 21.6442 5.84047 1.36637 0 0 1.00002 0.000218335
16260 21.6732 5.69836 0.0519302 0 0 1.00002 0.000185902
298 22.672 5.79171 0.662297 0 0 1.00002 0.00030211
379 22.6341 6.65036 1.18871 0 0 1.00002 0.000376137
381 23.3633 6.73614 0.263948 0 0 1.00002 0.000440958
304 23.4974 5.8453 1.27995 0 0 1.00002 0.000415325
383 24.354 6.52206 1.14308 0 0 1.00002 0.000563403
302 24.1704 5.9661 0.419631 0 0 1.00002 0.00048021
306 25.737 5.82607 0.689386 0 0 1.00002 0.000656142
308 25.1574 5.99928 1.65302 0 0 1.00002 0.000635245
385 25.2076 6.69847 0.486688 0 0 1.00002 0.000658457
387 25.8907 6.55691 1.3883 0 0 1.00002 0.000754306
312 26.76 5.81263 1.45798 0 0 1.00002 0.000789273
310 27.5754 5.51686 0.71287 0 0 1.00002 0.000825528
389 26.8208 6.33239 0.640813 0 0 1.00002 0.000811893
391 27.7874 6.43957 1.3518 0 0 1.00002 0.000936753
390 27.8006 6.97648 0.521823 0 0 1.00002 0.000958951
316 28.4548 5.49834 1.47014 0 0 1.00002 0.00092366
314 29.483 5.29201 0.810663 0 0 1.00002 0.000963387
395 29.5407 6.16625 1.31247 0 0 1.00002 0.00105098
394 29.6873 6.88917 0.504076 0 0 1.00002 0.00109982
393 28.5632 6.18315 0.635377 0 0 1.00002 0.000962731
16355 29.475 6.12888 0.0763569 0 0 1.00002 0.00101807
16276 28.5695 5.36992 0.0545555 0 0 1.00002 0.000895087
318 31.0698 5.35695 0.592508 0 0 1.00001 0.00104617
320 30.3219 5.44403 1.45651 0 0 1.00002 0.00104216
397 30.5021 6.17085 0.643869 0 0 1.00002 0.00108692
399 31.331 6.14563 1.38003 0 0 1.00002 0.00113834
398 31.3208 6.94422 0.603558 0 0 1.00002 0.00118442
401 0.387445 7.63298 0.658455 0 0 1.00002 0.00126517
402 0.970096 8.46899 0.614533 0 0 1.00001 0.00134611
403 1.23925 7.86221 1.49768 0 0 1.00001 0.00132496
404 0.490713 8.557 1.46778 0 0 1.00002 0.00138101
405 1.71947 7.77155 0.376308 0 0 1.00001 0.00127826
408 1.86157 8.62838 1.469 0 0 1.00001 0.00139182
326 2.60086 7.15985 0.476115 0 0 1.00001 0.00120999
406 2.32756 8.63995 0.402159 0 0 1.00001 0.00134821
407 2.51964 7.82461 1.28606 0 0 1.00001 0.00129671
412 3.14412 8.53551 0.946303 0 0 1.00001 0.0013314
409 3.35871 7.78665 0.330905 0 0 1.00001 0.00123796
410 3.93216 8.4832 0.081624 0 0 1.00001 0.0012743
411 4.0917 7.68514 1.25274 0 0 1.00001 0.00122002
416 4.81004 8.29148 0.939396 0 0 1.00001 0.00122312
413 4.77479 7.66853 0.247058 0 0 1.00001 0.00115036
334 5.63335 7.08249 0.151733 0 0 1 0.00103538
414 5.96145 8.38408 0.17567 0 0 1 0.00112795
415 5.57757 7.61973 1.04199 0 0 1 0.00110845
417 6.567 7.57924 0.172453 0 0 1 0.00099939
420 6.48107 8.26889 1.06215 0 0 1 0.00109332
419 7.35165 7.80838 0.761145 0 0 1 0.000955573
424 8.33288 8.35948 0.887944 0 0 0.999998 0.000907687
1258 7.34931 8.22252 1.72949 0 0 0.999999 0.00104509
1261 8.10564 7.53261 1.58701 0 0 0.999999 0.000888702
421 8.04901 7.64613 0.0292652 0 0 1 0.000853454
348 9.85376 7.26333 0.738949 0 0 0.999999 0.000624622
423 8.94583 7.65954 0.675605 0 0 0.999998 0.00076375
428 9.75476 8.66325 0.710363 0 0 0.999997 0.000763147
1262 9.12942 8.74528 1.47709 0 0 0.999996 0.000887849
1265 9.66922 7.93434 1.62978 0 0 0.999997 0.000754095
352 11.2995 7.18153 0.824088 0 0 0.999998 0.000451853
427 10.577 7.98615 0.861095 0 0 0.999997 0.000608638
1266 10.5956 8.75091 1.45824 0 0 0.999996 0.000712146
1269 11.3931 7.85073 1.6308 0 0 0.999997 0.000542386
429 11.2178 8.15859 0.0456125 0 0 0.999998 0.00052827
356 12.6704 7.31775 0.576658 0 0 1 0.000306623
431 12.1525 8.26856 0.604592 0 0 0.999997 0.000443534
1190 12.0436 7.19539 1.40104 0 0 0.999998 0.000395281
1270 12.0675 8.72018 1.52052 0 0 0.999996 0.000540995
1273 12.8233 8.03195 1.49981 0 0 0.999998 0.000393924
350 11.8733 7.42522 0.000213315 0 0 0.999999 0.000391291
360 14.2754 7.37349 0.595355 0 0 1 0.000169235
435 13.569 8.12047 0.47542 0 0 0.999999 0.000283615
1194 13.4169 7.36712 1.36161 0 0 0.999999 0.000269331
1277 14.1963 8.20147 1.3693 0 0 1 0.000275078
439 15.0115 8.30632 0.872494 0 0 1 0.000202345
362 16.3676 7.18441 0.280478 0 0 1.00001 4.68137e-05
364 15.5662 7.31764 0.923062 0 0 1 9.77649e-05
443 16.1974 8.16212 1.11382 0 0 1.00001 0.000148557
1198 15.0818 7.53588 1.64066 0 0 1 0.000176897
441 15.7985 8.31737 0.154792 0 0 1 0.000146229
368 16.9126 7.35549 1.11591 0 0 1.00001 7.32799e-05
445 17.0004 8.09978 0.338172 0 0 1.00001 0.000104663
447 17.6452 8.0122 1.02542 0 0 1.00001 0.000120392
366 17.7545 7.15556 0.215902 0 0 1.00001 3.95829e-05
370 18.9547 7.31389 0.636168 0 0 1.00001 9.53399e-05
451 18.8765 8.12863 1.17382 0 0 1.00001 0.0001722
376 19.831 7.62462 1.30946 0 0 1.00002 0.00019365
453 19.7617 8.10978 0.356523 0 0 1.00002 0.000194259
449 18.3942 8.17088 0.17269 0 0 1.00001 0.000126834
374 20.6697 7.42496 0.662107 0 0 1.00002 0.000219556
455 20.6211 8.40126 1.01939 0 0 1.00002 0.00030204
380 21.5288 7.63064 1.13068 0 0 1.00002 0.000331811
457 21.6007 8.30298 0.254941 0 0 1.00002 0.000366
459 22.5958 8.13378 1.00027 0 0 1.00002 0.000482443
1218 22.4217 7.45441 1.72956 0 0 1.00002 0.000444316
378 22.3361 7.44189 0.379603 0 0 1.00002 0.000379754
384 23.4663 7.27838 1.03625 0 0 1.00002 0.000513925
461 23.5119 8.03197 0.377022 0 0 1.00002 0.000563666
463 24.3867 8.05377 0.981871 0 0 1.00003 0.000687279
1302 24.3004 8.67371 1.65804 0 0 1.00003 0.00077127
382 24.374 7.28147 0.265542 0 0 1.00002 0.000602459
462 24.3581 8.77917 0.204275 0 0 1.00003 0.000725148
388 25.1709 7.35068 1.23369 0 0 1.00002 0.000732205
467 26.0946 7.96579 0.974075 0 0 1.00003 0.000880608
1306 26.1005 8.58421 1.72755 0 0 1.00003 0.000981837
386 26.1576 7.23657 0.363543 0 0 1.00002 0.000808411
465 25.286 8.08554 0.303536 0 0 1.00003 0.00077948
466 26.3511 8.54637 0.0881186 0 0 1.00003 0.000940837
468 25.3487 8.81393 0.990209 0 0 1.00003 0.000871588
392 26.8656 7.07625 1.32421 0 0 1.00002 0.000901238
470 28.0687 8.47359 0.419054 0 0 1.00002 0.00111288
471 27.8983 7.80307 1.19867 0 0 1.00002 0.00106172
472 27.0715 8.61864 1.00999 0 0 1.00003 0.00104763
469 27.0826 7.74742 0.427537 0 0 1.00002 0.000951987
396 28.754 7.08456 1.21833 0 0 1.00002 0.00107023
474 29.7162 8.3405 0.53884 0 0 1.00002 0.0012297
475 29.6144 7.65784 1.26798 0 0 1.00002 0.00118303
476 28.8945 8.53107 1.17347 0 0 1.00002 0.00120968
473 28.8043 7.69614 0.411568 0 0 1.00002 0.00110633
400 30.4434 7.0764 1.1741 0 0 1.00002 0.00117518
479 31.3766 7.81256 1.29603 0 0 1.00002 0.00128407
480 30.5603 8.47606 1.17903 0 0 1.00002 0.00130743
477 30.7601 7.86098 0.379781 0 0 1.00002 0.00123919
478 31.5586 8.61214 0.390193 0 0 1.00002 0.00133484
482 1.26862 10.2854 0.271669 0 0 1.00001 0.00150137
483 1.15961 9.37359 1.204 0 0 1.00001 0.00145067
484 0.401879 9.92919 0.89898 0 0 1.00002 0.00147858
481 0.507555 9.33656 0.123602 0 0 1.00002 0.00141283
1322 0.964161 10.1279 1.75347 0 0 1.00002 0.00155189
485 1.89279 9.4589 0.450749 0 0 1.00001 0.00143079
488 1.97307 10.3731 0.973902 0 0 1.00001 0.00152491
486 2.72965 10.2885 0.0814711 0 0 1.00001 0.00148077
487 2.51114 9.45815 1.22711 0 0 1.00001 0.00144663
1326 2.91328 10.2487 1.67931 0 0 1.00001 0.00153691
1329 3.34057 9.25927 1.67301 0 0 1.00001 0.00142995
489 3.20346 9.38386 0.086108 0 0 1.00001 0.00138836
492 3.51247 10.056 0.744413 0 0 1.00001 0.0014486
491 4.05444 9.13362 0.865807 0 0 1.00001 0.00134456
493 4.68814 9.21295 0.00719126 0 0 1.00001 0.00129812
496 4.72318 10.0064 0.578317 0 0 1 0.0013775
1330 4.2512 9.995 1.63006 0 0 1.00001 0.00145669
1333 4.78992 9.09631 1.66636 0 0 1.00001 0.00134253
495 5.43269 8.98107 0.669571 0 0 1 0.00123627
500 6.33404 9.8311 0.525519 0 0 1 0.00123719
1334 5.42942 9.86511 1.18587 0 0 1 0.00134058
1337 6.24733 9.09511 1.27956 0 0 1 0.00120747
1417 6.34045 10.5485 1.21047 0 0 1 0.00133285
499 7.23964 8.92116 0.725526 0 0 0.999999 0.00107259
501 8.15314 9.08972 0.0850639 0 0 0.999998 0.000977244
504 8.0266 9.9675 0.589321 0 0 0.999997 0.00108155
1338 7.25708 9.77934 1.21635 0 0 0.999999 0.00117597
1341 8.10761 9.21059 1.42543 0 0 0.999997 0.00104649
503 8.98378 9.49647 0.743008 0 0 0.999996 0.000936455
508 9.67884 10.3767 0.676284 0 0 0.999995 0.000931365
1342 8.80644 10.3054 1.4383 0 0 0.999994 0.00107597
1345 9.85855 9.63201 1.44275 0 0 0.999994 0.000886245
432 11.3642 8.88703 0.746954 0 0 0.999997 0.000592696
426 10.4137 8.92619 0.0413831 0 0 0.999997 0.00069408
507 10.4781 9.72282 0.671368 0 0 0.999995 0.000774852
1346 10.6496 10.2144 1.66884 0 0 0.999993 0.000867082
1349 11.3057 9.67287 1.34404 0 0 0.999995 0.000708277
436 12.9658 8.9922 0.799108 0 0 0.999997 0.000426464
511 12.0887 9.84788 0.701083 0 0 0.999995 0.000593611
516 12.7932 10.5056 0.976789 0 0 0.999995 0.000584306
1353 12.525 9.65131 1.63921 0 0 0.999995 0.000590585
1274 13.6454 8.87382 1.588 0 0 0.999997 0.000398871
440 14.4133 9.21429 0.769096 0 0 1 0.000313522
515 13.4922 9.71123 0.84964 0 0 0.999997 0.000438711
1354 13.4642 10.4407 1.73288 0 0 0.999995 0.00057394
517 14.2231 10.1688 0.220352 0 0 0.999999 0.000388656
444 15.8391 9.16434 1.14067 0 0 1 0.000244075
519 15.0772 9.87322 1.0205 0 0 1 0.000333822
521 15.6313 10.1871 0.253569 0 0 1 0.000297071
523 16.4466 9.9595 0.964518 0 0 1.00001 0.000276889
442 16.4464 9.0348 0.262547 0 0 1.00001 0.000181472
438 15.2379 9.21627 0.100985 0 0 1 0.000241756
452 18.2467 8.883 0.93931 0 0 1.00001 0.000195995
448 17.0342 9.06341 1.12747 0 0 1.00001 0.000206589
525 17.097 10.0212 0.206885 0 0 1.00001 0.000244982
527 17.7215 9.85928 1.06895 0 0 1.00001 0.000267916
446 17.7071 9.09834 0.118055 0 0 1.00001 0.000178319
456 19.7877 8.9335 1.05305 0 0 1.00002 0.000283291
529 18.5501 9.71822 0.299139 0 0 1.00001 0.000248837
531 19.4696 9.87607 0.845243 0 0 1.00002 0.000324162
532 18.6794 10.4403 1.1381 0 0 1.00001 0.000343849
1369 18.6106 9.56995 1.70009 0 0 1.00001 0.000315918
450 19.1992 8.94105 0.209816 0 0 1.00002 0.000218693
533 19.9611 9.76211 0.0716081 0 0 1.00002 0.000330013
535 20.9189 9.78081 0.744539 0 0 1.00002 0.000428767
1373 20.2256 9.63769 1.65521 0 0 1.00002 0.00041615
454 20.7718 9.05059 0.203848 0 0 1.00002 0.000344115
460 21.6274 9.00283 0.967097 0 0 1.00002 0.000445568
1298 22.4108 8.8522 1.56797 0 0 1.00003 0.000554028
539 22.8549 9.65658 0.794397 0 0 1.00003 0.000630621
540 22.1144 10.4943 0.858946 0 0 1.00003 0.000614515
1377 21.9299 9.75643 1.52301 0 0 1.00003 0.000577425
1378 23.0699 10.4808 1.42933 0 0 1.00003 0.000766119
458 22.7726 8.83627 0.198329 0 0 1.00002 0.000537167
537 21.9769 9.77713 0.209055 0 0 1.00003 0.000522501
464 23.4643 8.9371 0.959827 0 0 1.00003 0.000649933
543 24.5714 9.53371 0.754038 0 0 1.00003 0.000831588
1381 23.7368 9.57328 1.54362 0 0 1.00003 0.000779573
1382 24.4444 10.3175 1.44014 0 0 1.00003 0.000922089
544 23.6515 10.5134 0.615664 0 0 1.00003 0.000791273
542 24.5034 10.2959 0.105946 0 0 1.00003 0.00086785
1385 25.135 9.48914 1.64016 0 0 1.00003 0.000947177
547 26.3109 9.3573 0.868649 0 0 1.00003 0.00102457
548 25.4566 10.2267 0.812547 0 0 1.00003 0.000997875
1386 26.0689 10.2646 1.55935 0 0 1.00003 0.00112234
545 25.6745 9.47961 0.17261 0 0 1.00003 0.000945168
1389 26.7522 9.40405 1.7094 0 0 1.00003 0.00113053
550 28.4077 10.1195 0.295696 0 0 1.00003 0.00128377