ITEM: TIMESTEP
13000
ITEM: NUMBER OF ATOMS
32000
ITEM: BOX BOUNDS pp pp pp
0.0000000000000000e+00 3.1748021039364001e+01
0.0000000000000000e+00 3.1748021039364001e+01
0.0000000000000000e+00 3.1748021039364001e+01
ITEM: ATOMS id x y z c_phase c_nbond c_rho vx
4 0.176204 1.10077 0.466825 0 0 1 0.000662358
83 1.03276 1.66857 0.780308 0 0 1.00001 0.00068094
842 0.775184 0.792867 1.41213 0 0 1.00001 0.000675428
921 0.0654708 1.60086 1.37678 0 0 1 0.000682483
3 0.788679 0.066127 0.619105 0 0 1.00001 0.000659332
8 1.76852 0.81425 1.01584 0 0 1.00001 0.000662296
85 1.85986 1.48013 0.21942 0 0 1.00001 0.000664125
925 1.8848 1.66241 1.76127 0 0 1.00001 0.000691342
6 2.57427 0.749415 0.204534 0 0 1.00002 0.000635309
7 2.64394 0.0557262 1.03951 0 0 1.00002 0.000636898
87 2.70316 1.54427 0.883269 0 0 1.00002 0.000649516
846 2.72702 0.819672 1.74677 0 0 1.00002 0.000653339
12 3.48236 0.934742 0.961442 0 0 1.00002 0.000609729
849 3.54776 0.09181 1.71176 0 0 1.00002 0.00061413
929 3.65745 1.71197 1.72422 0 0 1.00002 0.000631268
10 4.15345 0.861172 0.325289 0 0 1.00002 0.000567189
16 5.00429 0.569412 1.17591 0 0 1.00003 0.000519312
93 4.9597 1.60567 0.38614 0 0 1.00003 0.00052997
850 4.38827 0.946064 1.63699 0 0 1.00002 0.000573482
9 3.52401 0.109601 0.173036 0 0 1.00002 0.000594066
14 5.68075 0.647698 0.326281 0 0 1.00003 0.000460546
95 5.91614 1.31744 0.94487 0 0 1.00003 0.000456416
97 6.60002 1.39885 0.220063 0 0 1.00003 0.000392066
854 5.8181 0.462254 1.70733 0 0 1.00003 0.000467311
933 5.06946 1.72926 1.44234 0 0 1.00003 0.000537667
20 6.73726 0.393814 0.871283 0 0 1.00003 0.000373222
937 6.71592 1.01564 1.70299 0 0 1.00003 0.000396144
24 8.27436 0.411646 1.07932 0 0 1.00003 0.000226833
99 7.38478 1.23004 0.95937 0 0 1.00003 0.000322275
101 8.25414 1.39858 0.238736 0 0 1.00003 0.00023266
941 8.13802 1.27973 1.61671 0 0 1.00003 0.000259406
18 7.59655 0.652456 0.142657 0 0 1.00003 0.000288275
22 8.85842 0.511509 0.275527 0 0 1.00003 0.000160469
28 9.54593 0.340245 0.894796 0 0 1.00003 9.29582e-05
103 9.02418 1.31496 1.11917 0 0 1.00003 0.000160652
105 9.63127 1.38158 0.0917353 0 0 1.00003 8.9589e-05
32 11.1865 0.217145 0.637957 0 0 1.00003 -7.45961e-05
107 10.3476 1.05374 0.828605 0 0 1.00003 1.52792e-05
866 10.5047 0.198179 1.454 0 0 1.00003 1.11497e-06
949 11.2608 1.02296 1.42576 0 0 1.00003 -6.90565e-05
946 10.5608 1.68721 1.73931 0 0 1.00003 1.57919e-05
26 10.2282 0.3697 0.0790466 0 0 1.00003 1.86328e-05
36 12.8369 0.213976 0.641014 0 0 1.00002 -0.000219554
111 12.0106 1.07913 0.511353 0 0 1.00002 -0.000147144
870 12.0973 0.317922 1.3072 0 0 1.00002 -0.00015197
953 12.6804 1.20205 1.37957 0 0 1.00002 -0.000195942
40 14.3245 0.323948 0.773397 0 0 1.00001 -0.000317147
115 13.5455 1.11531 0.847608 0 0 1.00002 -0.000265442
117 13.9941 1.56314 0.16498 0 0 1.00001 -0.000293739
874 13.5638 0.361619 1.64122 0 0 1.00002 -0.000263607
957 14.3282 1.15345 1.48228 0 0 1.00001 -0.000307068
119 14.8262 1.55602 0.665079 0 0 1.00001 -0.000334011
44 15.6546 0.76841 0.788602 0 0 1.00001 -0.000368083
123 16.497 1.54284 0.681981 0 0 1 -0.000376683
878 15.0898 0.464897 1.64387 0 0 1.00001 -0.000344777
882 16.4921 0.71057 1.34265 0 0 1 -0.000378157
961 15.5777 1.48887 1.39387 0 0 1.00001 -0.000356169
38 15.0517 0.711917 0.0672049 0 0 1.00001 -0.000351041
48 17.2049 0.730268 0.55039 0 0 0.999998 -0.000381626
127 17.8724 1.57889 0.755192 0 0 0.999994 -0.000363994
886 17.8651 0.742188 1.42481 0 0 0.999995 -0.000365912
965 17.1657 1.74591 1.5618 0 0 0.999998 -0.000367452
51 19.4955 0.0149272 0.661415 0 0 0.999987 -0.000304825
52 18.7455 0.724196 0.684002 0 0 0.99999 -0.000340905
131 19.4976 1.54884 0.83894 0 0 0.999987 -0.000296446
889 18.9806 0.156028 1.54129 0 0 0.999989 -0.000327206
890 19.5518 0.963912 1.68514 0 0 0.999987 -0.000291241
969 18.6113 1.50675 1.49659 0 0 0.999991 -0.000335298
55 21.0645 0.347927 1.06289 0 0 0.999982 -0.000192499
56 20.2126 0.773378 0.974936 0 0 0.999984 -0.00025529
135 21.077 1.64648 0.948761 0 0 0.999982 -0.000180351
54 21.1592 0.761975 0.217087 0 0 0.999981 -0.000186184
133 20.3102 1.50772 0.194714 0 0 0.999984 -0.000246527
57 21.9902 0.26193 0.53678 0 0 0.999979 -0.000114328
59 22.7814 0.427329 1.39957 0 0 0.999978 -3.05831e-05
60 22.0928 1.14168 1.32309 0 0 0.99998 -9.26736e-05
137 21.9785 1.5914 0.534251 0 0 0.99998 -0.000104831
58 22.9063 1.0671 0.443861 0 0 0.999978 -2.00956e-05
63 24.235 0.377598 1.44279 0 0 0.999977 0.000121377
61 23.5651 0.354885 0.570769 0 0 0.999977 4.21989e-05
62 24.4443 1.17931 0.750345 0 0 0.999978 0.000141526
64 23.4737 1.24171 1.39465 0 0 0.999978 4.88304e-05
65 24.9687 0.313762 0.548674 0 0 0.999978 0.000188331
67 26.0324 0.380346 1.1658 0 0 0.99998 0.00030051
68 25.1851 1.11937 1.47176 0 0 0.999979 0.000228
147 25.955 1.72605 1.35007 0 0 0.99998 0.000313798
66 25.9149 0.925481 0.428981 0 0 0.999979 0.00028675
70 27.6131 1.27574 0.386572 0 0 0.999984 0.000447675
71 27.6532 0.505988 0.870891 0 0 0.999984 0.000445908
72 26.7875 1.02331 1.25665 0 0 0.999981 0.000380629
69 26.8237 0.239298 0.226436 0 0 0.999981 0.000366287
913 28.4229 0.337926 1.39731 0 0 0.999987 0.000511217
76 28.6968 1.2358 0.737494 0 0 0.999988 0.000531602
914 29.4396 0.947418 1.56521 0 0 0.999992 0.00058637
993 28.5694 1.71477 1.49448 0 0 0.999988 0.000542927
917 29.8705 0.17062 1.45734 0 0 0.999994 0.000601611
75 29.3238 0.353854 0.614044 0 0 0.999991 0.000559931
841 31.6475 0.266995 1.25684 0 0 1 0.000659043
79 30.7619 0.485476 0.47307 0 0 0.999998 0.000627364
80 30.1536 1.19645 0.772488 0 0 0.999995 0.000614747
918 30.9217 0.970665 1.39225 0 0 0.999999 0.000649973
82 1.17087 2.43826 0.127358 0 0 1.00001 0.000697852
84 0.195152 2.38211 0.811081 0 0 1 0.000696626
163 1.34968 3.2384 0.948948 0 0 1.00001 0.000735102
922 1.2013 2.36427 1.59242 0 0 1.00001 0.000715631
1001 0.449615 3.03309 1.54973 0 0 1.00001 0.000738603
161 0.394363 3.09864 0.131313 0 0 1.00001 0.000720041
88 1.96982 2.42141 0.785788 0 0 1.00001 0.000692337
167 2.71543 3.2872 0.862373 0 0 1.00002 0.000707546
926 2.7275 2.237 1.53976 0 0 1.00002 0.000679992
1009 3.31576 3.43346 1.65573 0 0 1.00002 0.000708857
86 2.78035 2.38783 0.0558526 0 0 1.00002 0.000664344
92 3.43489 2.56247 0.783374 0 0 1.00002 0.000648911
91 4.05486 1.846 0.714642 0 0 1.00002 0.000593733
96 4.9546 2.58183 0.82048 0 0 1.00003 0.000561821
171 4.25041 3.32865 0.753589 0 0 1.00002 0.000635356
930 4.18404 2.65046 1.58861 0 0 1.00002 0.000628349
94 5.68567 2.45428 0.134819 0 0 1.00003 0.000495064
100 6.58455 2.19207 0.778302 0 0 1.00003 0.000416183
175 5.68677 3.21014 0.959003 0 0 1.00003 0.000531587
934 5.89521 2.20653 1.504 0 0 1.00003 0.000490249
1017 6.5514 3.08224 1.56427 0 0 1.00003 0.000464246
177 6.67611 2.94345 0.135137 0 0 1.00003 0.000426422
98 7.47072 2.23775 0.141102 0 0 1.00003 0.000329507
104 8.09293 2.21415 0.937096 0 0 1.00003 0.000272828
179 7.42067 3.08361 0.939597 0 0 1.00003 0.000369528
938 7.31882 2.07211 1.57809 0 0 1.00003 0.000358297
1021 8.19665 3.01834 1.66338 0 0 1.00003 0.000302422
181 8.27843 2.98671 0.0403884 0 0 1.00003 0.000269995
102 8.90488 2.09911 0.254534 0 0 1.00003 0.000179528
108 9.76377 2.03556 1.11626 0 0 1.00003 9.64234e-05
183 8.92782 2.98866 0.936013 0 0 1.00003 0.000209203
942 9.03037 2.23378 1.71544 0 0 1.00003 0.000189566
185 9.55508 2.92127 0.214599 0 0 1.00003 0.000132492
106 10.2684 2.12454 0.215486 0 0 1.00003 3.66118e-05
112 11.1341 1.83615 0.776193 0 0 1.00003 -5.26641e-05
187 10.6031 2.82218 0.927669 0 0 1.00003 2.43058e-05
1029 11.4165 2.84433 1.58609 0 0 1.00002 -4.4625e-05
116 12.6352 1.9487 0.598158 0 0 1.00002 -0.000189522
191 11.8961 2.6539 0.746142 0 0 1.00002 -0.00010983
950 11.8929 1.92916 1.47375 0 0 1.00002 -0.000115662
1033 12.8048 3.02956 1.69658 0 0 1.00002 -0.000165736
195 13.1413 3.03773 0.850174 0 0 1.00002 -0.000206681
954 13.3356 1.99839 1.48666 0 0 1.00002 -0.00023439
120 13.9727 2.45135 0.928336 0 0 1.00001 -0.00027558
1037 13.9795 3.39368 1.56221 0 0 1.00001 -0.00024586
199 14.6452 3.44259 0.88489 0 0 1.00001 -0.000293453
958 14.7348 2.30332 1.44782 0 0 1.00001 -0.000313651
118 14.7896 2.51732 0.137803 0 0 1.00001 -0.000322575
197 14.1086 3.23142 0.0356733 0 0 1.00001 -0.000273117
114 13.3697 2.30261 0.0588155 0 0 1.00002 -0.000242235
124 15.6437 2.44308 0.69591 0 0 1.00001 -0.000351775
203 16.25 3.20046 0.666559 0 0 1 -0.000351556
962 16.2535 2.47825 1.52561 0 0 1 -0.000355606
1041 15.3188 3.26025 1.50514 0 0 1.00001 -0.000317669
201 15.5156 3.26118 0.0220004 0 0 1.00001 -0.000336948
128 17.0122 2.35007 0.68262 0 0 0.999999 -0.000368238
207 17.8925 2.92205 0.699735 0 0 0.999994 -0.000345914
966 17.9671 2.43313 1.57994 0 0 0.999994 -0.000343501
1045 17.0366 3.11237 1.49503 0 0 0.999998 -0.000347219
132 18.8445 2.35143 1.00998 0 0 0.99999 -0.000319277
211 19.6587 3.22895 1.2719 0 0 0.999987 -0.000255988
209 18.8363 2.9884 0.193842 0 0 0.99999 -0.000313547
130 19.5467 2.33176 0.102168 0 0 0.999987 -0.000286336
973 20.2889 1.77867 1.71885 0 0 0.999985 -0.000233316
134 21.1301 2.40583 0.45517 0 0 0.999982 -0.000168613
136 20.1586 2.45676 1.10832 0 0 0.999985 -0.000239122
215 21.284 3.27982 1.38316 0 0 0.999983 -0.000125804
213 20.3863 2.98226 0.332084 0 0 0.999985 -0.000217286
139 22.8634 2.0567 1.50078 0 0 0.999979 -2.12626e-06
138 22.9634 2.58795 0.730531 0 0 0.999979 1.20984e-05
140 22.0768 2.48537 1.23082 0 0 0.999981 -7.22869e-05
217 21.9696 3.18449 0.595646 0 0 0.999981 -7.27146e-05
16179 22.6679 3.38298 0.0735445 0 0 0.99998 -6.6478e-07
141 23.7439 1.79812 0.620235 0 0 0.999978 7.76295e-05
143 24.4373 1.97578 1.60039 0 0 0.999979 0.000166975
142 24.3502 2.66799 0.769992 0 0 0.999979 0.000162058
144 23.6894 2.88536 1.52614 0 0 0.999979 0.000109184
223 24.4846 3.49145 1.54612 0 0 0.99998 0.000216192
16108 24.9711 2.82936 0.0145325 0 0 0.999979 0.000230075
149 26.5791 1.78534 0.508786 0 0 0.999982 0.000366558
145 25.1483 1.84581 0.507291 0 0 0.999979 0.000224621
146 25.8164 2.59819 0.702627 0 0 0.999981 0.000313643
148 25.1765 2.54234 1.51544 0 0 0.99998 0.000256856
227 25.7472 3.47986 1.5032 0 0 0.999982 0.000351461
152 26.5682 2.54864 1.52175 0 0 0.999982 0.00039998
229 26.2002 3.48461 0.594134 0 0 0.999982 0.000383325
151 27.5433 1.97704 1.23098 0 0 0.999985 0.000466918
153 28.2952 2.08313 0.342458 0 0 0.999987 0.00051908
150 27.1242 2.68058 0.640285 0 0 0.999984 0.000442508
231 27.2424 3.33944 1.40858 0 0 0.999986 0.000490659
156 28.3005 2.74731 1.1996 0 0 0.999988 0.000550094
233 28.0279 3.20934 0.327116 0 0 0.999987 0.000534609
997 30.015 1.80443 1.7037 0 0 0.999995 0.000637221
155 29.4993 2.03736 0.879091 0 0 0.999992 0.000601276
154 29.2471 2.65618 0.288196 0 0 0.999991 0.000600161
235 29.3063 3.25412 1.1728 0 0 0.999992 0.000638174
159 30.9698 1.98076 0.923019 0 0 0.999999 0.000665081
160 30.2396 2.70598 0.999715 0 0 0.999996 0.00066171
239 31.0877 3.34464 0.972073 0 0 1 0.000718073
998 31.0475 2.69119 1.72493 0 0 1 0.000707008
237 30.1717 3.24824 0.137516 0 0 0.999996 0.000671612
157 30.4664 1.90489 0.0280343 0 0 0.999997 0.000638123
158 31.2029 2.65994 0.0761432 0 0 1 0.000686081
164 0.359933 3.78346 0.919451 0 0 1.00001 0.000757871
241 0.210766 4.59674 0.479313 0 0 1.00001 0.000794117
243 1.20577 4.67278 0.988361 0 0 1.00001 0.000810065
244 0.161962 5.26594 1.2763 0 0 1.00001 0.000849534
162 1.10623 3.86408 0.0637076 0 0 1.00001 0.00075658
168 1.90846 4.04993 0.849486 0 0 1.00001 0.000765145
247 2.60423 4.86552 1.13768 0 0 1.00002 0.000800499
166 2.71049 4.15271 0.206329 0 0 1.00002 0.000742761
245 1.96436 4.97268 0.280559 0 0 1.00001 0.000809803
249 3.46804 4.87321 0.163125 0 0 1.00002 0.000752417
172 3.54906 4.08787 0.889875 0 0 1.00002 0.000712107
176 4.95919 4.01713 1.18713 0 0 1.00003 0.000629864
251 4.10549 4.89506 1.15324 0 0 1.00002 0.000734754
170 4.31023 4.19692 0.14891 0 0 1.00002 0.000668459
253 5.05686 4.75811 0.341726 0 0 1.00003 0.00065051
174 5.81213 3.95491 0.198658 0 0 1.00003 0.000546069
180 6.52215 3.78489 0.779485 0 0 1.00003 0.000482217
255 5.72509 4.75421 1.03405 0 0 1.00003 0.000607879
1097 6.6958 4.53484 1.65672 0 0 1.00003 0.000526949
260 6.71199 5.15614 0.891457 0 0 1.00003 0.000541135
184 8.21014 3.91137 0.707621 0 0 1.00003 0.000318417
259 7.43023 4.48276 0.552681 0 0 1.00003 0.000425185
1018 7.42135 3.89036 1.50899 0 0 1.00003 0.000417269
1101 8.21453 4.63539 1.49976 0 0 1.00003 0.000371292
188 9.88786 3.59748 0.89319 0 0 1.00003 0.000126283
263 9.08056 4.58931 0.829378 0 0 1.00003 0.000257593
265 9.85369 4.52703 0.128676 0 0 1.00003 0.000160602
1022 9.07822 3.78401 1.51072 0 0 1.00003 0.000235233
1105 9.86221 4.37076 1.67016 0 0 1.00003 0.000181513
182 8.98712 3.88799 0.0642149 0 0 1.00003 0.000228798
192 11.381 3.66166 0.786769 0 0 1.00002 -3.06822e-05
267 10.5718 4.6878 0.914926 0 0 1.00003 9.73633e-05
269 11.3598 4.71482 0.231943 0 0 1.00002 6.32424e-06
1026 10.6873 3.58687 1.60049 0 0 1.00003 5.38847e-05
1109 11.3387 4.39585 1.71826 0 0 1.00002 2.27291e-05
186 10.5659 3.86707 0.177673 0 0 1.00003 5.51402e-05
196 12.4757 3.59511 0.819668 0 0 1.00002 -0.000135916
271 12.1552 4.56909 1.00757 0 0 1.00002 -6.9663e-05
1113 12.7005 5.01402 1.70081 0 0 1.00002 -8.23898e-05
275 13.1815 4.69752 0.80557 0 0 1.00002 -0.000159412
273 12.6012 4.63528 0.0631975 0 0 1.00002 -0.000118268
200 13.9414 4.13721 0.700289 0 0 1.00001 -0.000235988
1034 13.4382 4.23205 1.60139 0 0 1.00001 -0.000180016
1117 14.1508 5.12876 1.52885 0 0 1.00001 -0.00019793
279 14.8856 5.0194 0.814726 0 0 1.00001 -0.000260474
1038 14.9112 4.42132 1.59865 0 0 1.00001 -0.000265633
277 14.0889 4.91462 0.0640187 0 0 1.00001 -0.000225375
198 14.906 4.19839 0.0994077 0 0 1.00001 -0.00029223
204 15.6111 4.06883 0.926303 0 0 1.00001 -0.00031608
281 15.8193 4.77625 0.187317 0 0 1 -0.000308557
283 16.5358 4.57915 0.900555 0 0 1 -0.000319227
1042 16.2624 3.959 1.69017 0 0 1 -0.000319546
1121 15.7534 5.05323 1.64399 0 0 1 -0.000273516
208 17.2142 3.82867 0.810104 0 0 0.999998 -0.00033917
287 18.0312 4.47895 1.09451 0 0 0.999994 -0.000302882
1046 17.8993 3.63143 1.65231 0 0 0.999995 -0.000319036
285 17.3973 4.57105 0.0162865 0 0 0.999997 -0.000323452
206 18.083 3.84567 0.0604667 0 0 0.999994 -0.000325453
212 18.8273 3.69679 0.948368 0 0 0.999991 -0.000294345
289 18.7739 4.59742 0.360086 0 0 0.999991 -0.00027892
291 19.6447 4.66027 1.07899 0 0 0.999989 -0.00021996
292 18.7332 5.26261 1.19506 0 0 0.999992 -0.00024847
210 19.5552 3.75367 0.228147 0 0 0.999988 -0.000258127
216 20.4023 3.80554 1.2268 0 0 0.999985 -0.000188649
295 20.8526 4.69719 1.38383 0 0 0.999986 -0.000118025
297 21.5565 4.92828 0.802551 0 0 0.999984 -5.40358e-05
214 21.0552 3.91409 0.509173 0 0 0.999984 -0.000139422
293 20.0977 4.76743 0.348188 0 0 0.999987 -0.000191655
219 22.8126 3.61088 1.41045 0 0 0.999981 3.6173e-05
220 21.9212 4.11188 1.30111 0 0 0.999983 -4.02765e-05
299 22.4599 5.14917 1.2625 0 0 0.999984 5.64465e-05
218 22.6024 4.32461 0.507628 0 0 0.999982 2.71711e-05
221 23.5741 3.61863 0.776335 0 0 0.99998 0.000108483
222 24.3467 4.29876 0.620045 0 0 0.999981 0.000217868
224 23.4684 4.52418 1.32303 0 0 0.999982 0.00014188
305 24.8722 5.23008 0.561148 0 0 0.999983 0.000321198
301 23.5535 5.03872 0.528159 0 0 0.999983 0.000160561
228 25.0301 4.47511 1.60936 0 0 0.999983 0.000322628
303 24.3768 5.26126 1.42059 0 0 0.999983 0.000283666
225 25.0814 3.65904 0.795032 0 0 0.999981 0.00027542
307 25.722 5.11394 1.33246 0 0 0.999985 0.000423698
232 26.3935 4.26962 1.36262 0 0 0.999985 0.000451
309 26.5412 4.95128 0.635997 0 0 0.999985 0.000486131
226 25.5547 4.37982 0.386583 0 0 0.999982 0.000351732
311 27.3777 4.84979 1.39603 0 0 0.999988 0.00057634
236 28.0108 3.96046 1.0989 0 0 0.999989 0.000575752
313 28.331 4.72015 0.701624 0 0 0.999991 0.000634976
230 27.1075 4.02482 0.568638 0 0 0.999986 0.000492886
234 28.9863 3.7608 0.482305 0 0 0.999991 0.000629378
315 29.1459 4.50969 1.32349 0 0 0.999994 0.000692982
240 30.0586 4.05853 1.02288 0 0 0.999997 0.000713642
238 31.0938 3.97362 0.368482 0 0 1 0.000741677
317 30.2707 4.67426 0.48469 0 0 0.999998 0.000750136
319 31.0465 4.59701 1.40347 0 0 1 0.000792201
242 0.981916 5.53264 0.462151 0 0 1.00001 0.000856639
248 1.60551 5.51665 1.38104 0 0 1.00001 0.000872098
323 0.873387 6.2174 1.27762 0 0 1.00001 0.000920999
324 0.336119 6.92051 1.50519 0 0 1.00001 0.000977612
322 1.05153 6.94617 0.572313 0 0 1.00001 0.000958354
321 0.0529722 5.99585 0.447054 0 0 1.00001 0.00087964
328 1.78552 7.03484 1.24339 0 0 1.00001 0.000975394
325 1.96648 6.20708 0.517728 0 0 1.00002 0.000892654
252 3.17543 5.63311 1.30468 0 0 1.00002 0.00083414
327 2.34057 6.16518 1.41561 0 0 1.00002 0.000903002
332 3.32626 6.97892 1.13833 0 0 1.00002 0.000921251
246 2.75002 5.62019 0.274863 0 0 1.00002 0.000829518
329 3.46338 6.29377 0.500768 0 0 1.00002 0.000847603
250 4.24844 5.47907 0.328105 0 0 1.00002 0.000748369
256 4.9879 5.44961 1.32392 0 0 1.00003 0.000717036
331 4.19602 6.11322 1.23651 0 0 1.00002 0.000813268
333 4.88228 6.25445 0.335784 0 0 1.00002 0.000758299
336 4.83439 6.82463 1.16977 0 0 1.00002 0.000820952
330 4.06843 7.04011 0.225499 0 0 1.00002 0.000868209
254 5.82555 5.44048 0.303999 0 0 1.00003 0.000629158
335 5.7396 6.2649 0.971417 0 0 1.00003 0.00070484
1177 6.5 6.01192 1.61255 0 0 1.00003 0.000640282
340 6.4766 6.89779 1.0175 0 0 1.00003 0.000684322
337 6.42017 6.07032 0.155649 0 0 1.00003 0.000614987
264 8.22779 5.34063 0.702475 0 0 1.00003 0.00039105
339 7.35521 6.18549 0.763216 0 0 1.00003 0.000539313
1098 7.41932 5.44427 1.50685 0 0 1.00003 0.000505555
1181 8.25596 6.14105 1.50958 0 0 1.00003 0.000462703
344 8.03689 6.88487 0.73822 0 0 1.00003 0.000511034
1178 7.31647 6.89306 1.61552 0 0 1.00003 0.000625932
258 7.35518 5.38248 0.0464648 0 0 1.00003 0.000479264
268 9.76255 5.34665 0.801548 0 0 1.00003 0.000219354
343 8.88933 6.21797 0.745993 0 0 1.00003 0.000371288
1102 9.05845 5.35561 1.61235 0 0 1.00003 0.000325808
1185 9.73594 6.21985 1.48571 0 0 1.00002 0.000295919
1182 9.10117 6.98449 1.48208 0 0 1.00002 0.000423499
345 9.75845 6.26134 0.0966797 0 0 1.00003 0.000263812
262 9.0023 5.49277 0.0152786 0 0 1.00003 0.000305975
272 11.3639 5.29694 0.995812 0 0 1.00002 4.42285e-05
347 10.5694 6.05006 0.973992 0 0 1.00002 0.000170336
349 11.2887 6.39697 0.0792878 0 0 1.00002 9.63606e-05
346 10.5061 6.97214 0.156401 0 0 1.00002 0.000217526
1186 10.4577 6.95844 1.51525 0 0 1.00002 0.000263251
270 11.9654 5.64828 0.185589 0 0 1.00002 -1.52526e-05
276 12.6354 5.83677 0.86956 0 0 1.00002 -6.11092e-05
351 11.7467 6.23372 1.06386 0 0 1.00002 5.27201e-05
1114 13.278 5.88526 1.56905 0 0 1.00001 -9.617e-05
355 13.3052 6.59953 0.819037 0 0 1.00001 -8.72608e-05
274 13.2738 5.55537 0.043501 0 0 1.00001 -0.000141217
280 14.0104 5.72968 0.778305 0 0 1.00001 -0.000182149
1197 14.2714 6.66498 1.4174 0 0 1.00001 -0.000137906
357 14.0774 6.39862 0.0394616 0 0 1.00001 -0.00016678
278 14.9676 5.64859 0.0362163 0 0 1.00001 -0.000249497
359 14.9882 6.45916 0.810071 0 0 1.00001 -0.00020923
284 15.7708 5.74023 0.957721 0 0 1 -0.000266297
363 16.4295 6.45183 1.14248 0 0 1 -0.000246113
1118 15.0493 5.88262 1.7036 0 0 1.00001 -0.00020951
282 16.5609 5.41766 0.276091 0 0 1 -0.000300606
361 15.6166 6.34371 0.041045 0 0 1 -0.000249912
286 17.7719 5.29519 0.539775 0 0 0.999996 -0.000292524
288 17.0527 5.42025 1.24612 0 0 0.999998 -0.000286641
365 17.0042 6.27078 0.41058 0 0 0.999999 -0.000270857
367 17.6061 6.23786 1.38008 0 0 0.999997 -0.000243378
372 18.2178 7.03928 1.12949 0 0 0.999995 -0.000198829
369 18.3185 6.21802 0.608566 0 0 0.999994 -0.000241802
290 19.3842 5.73947 0.61643 0 0 0.99999 -0.000205889
371 19.2789 6.53751 1.33926 0 0 0.999992 -0.000162641
373 19.9535 6.72811 0.605032 0 0 0.99999 -0.000124826
294 20.7188 5.75147 0.647145 0 0 0.999987 -0.000101924
296 20.1525 5.58818 1.38533 0 0 0.999988 -0.000141434
375 20.7467 6.58493 1.29098 0 0 0.999988 -4.57345e-05
377 21.6379 6.63413 0.659911 0 0 0.999987 2.7852e-05
300 21.6412 5.84977 1.37051 0 0 0.999986 7.50186e-06
16260 21.6706 5.70688 0.0518686 0 0 0.999985 -1.73622e-05
298 22.6654 5.80087 0.665093 0 0 0.999985 9.87958e-05
379 22.6254 6.66113 1.19293 0 0 0.999987 0.000153199
381 23.3518 6.74769 0.264755 0 0 0.999985 0.000221408
304 23.4865 5.85543 1.28489 0 0 0.999984 0.000209547
383 24.3378 6.5326 1.14649 0 0 0.999986 0.000345926
302 24.1576 5.9769 0.421673 0 0 0.999984 0.000275483
306 25.7167 5.83583 0.692447 0 0 0.999986 0.000450399
308 25.1391 6.01043 1.6592 0 0 0.999986 0.000423811
385 25.1881 6.71019 0.488785 0 0 0.999987 0.000439944
387 25.8664 6.56694 1.39311 0 0 0.999988 0.000533347
312 26.7356 5.8215 1.46278 0 0 0.999989 0.00057741
310 27.5488 5.52427 0.71544 0 0 0.999989 0.000617054
389 26.7955 6.34153 0.643838 0 0 0.999989 0.000595143
391 27.7584 6.4491 1.35533 0 0 0.999992 0.000712414
390 27.77 6.98516 0.524126 0 0 0.999992 0.000729339
316 28.4251 5.50511 1.47491 0 0 0.999993 0.000708286
314 29.4525 5.29704 0.812921 0 0 0.999996 0.000747765
395 29.5073 6.1709 1.31521 0 0 0.999998 0.000822201
394 29.6519 6.8917 0.504809 0 0 0.999999 0.000862943
393 28.532 6.18961 0.636151 0 0 0.999994 0.000740547
16355 29.4428 6.13622 0.077358 0 0 0.999997 0.000793244
16276 28.5408 5.37559 0.0559888 0 0 0.999992 0.000684472
318 31.0355 5.36065 0.593339 0 0 1 0.000821719
320 30.2878 5.44882 1.46001 0 0 1 0.000817974
397 30.4678 6.17447 0.645693 0 0 1 0.000855372
399 31.2948 6.14885 1.3815 0 0 1.00001 0.000900827
398 31.2817 6.94761 0.603556 0 0 1.00001 0.000939063
401 0.346656 7.63317 0.659718 0 0 1.00001 0.00100679
402 0.924888 8.46804 0.616299 0 0 1.00001 0.00107427
403 1.19772 7.86362 1.49813 0 0 1.00001 0.00105681
404 0.447349 8.5594 1.46905 0 0 1.00001 0.00110776
405 1.67787 7.77041 0.375057 0 0 1.00001 0.00101209
408 1.81642 8.62623 1.46849 0 0 1.00002 0.00111058
326 2.56311 7.1581 0.476458 0 0 1.00002 0.000947399
406 2.28266 8.63922 0.401737 0 0 1.00002 0.00106765
407 2.4779 7.82172 1.28415 0 0 1.00002 0.00102354
412 3.10013 8.53051 0.943644 0 0 1.00002 0.00104627
409 3.31978 7.78331 0.329954 0 0 1.00002 0.000963471
410 3.89091 8.47747 0.081914 0 0 1.00002 0.000986846
411 4.05295 7.68223 1.25262 0 0 1.00002 0.000941064
416 4.77233 8.28261 0.93487 0 0 1.00002 0.000931651
413 4.73761 7.66047 0.247601 0 0 1.00002 0.000870279
334 5.60195 7.07517 0.150446 0 0 1.00003 0.000759806
414 5.92639 8.37509 0.174075 0 0 1.00002 0.000829747
415 5.54269 7.61292 1.04019 0 0 1.00002 0.000823133
417 6.53723 7.56848 0.171783 0 0 1.00003 0.000711088
420 6.4477 8.26251 1.05791 0 0 1.00003 0.000792278
419 7.32275 7.79877 0.7576 0 0 1.00003 0.000658339
424 8.30809 8.34776 0.883394 0 0 1.00002 0.000593614
1258 7.31868 8.21338 1.72345 0 0 1.00002 0.000736172
1261 8.07936 7.52143 1.58095 0 0 1.00002 0.000589046
421 8.02409 7.63504 0.0291499 0 0 1.00003 0.000556403
348 9.83855 7.2528 0.735104 0 0 1.00002 0.000326802
423 8.92451 7.64852 0.672298 0 0 1.00002 0.00046142
428 9.73449 8.65221 0.706263 0 0 1.00002 0.000435365
1262 9.10574 8.7338 1.46969 0 0 1.00002 0.000558512
1265 9.64744 7.92314 1.62324 0 0 1.00002 0.000438285
352 11.2904 7.1714 0.820789 0 0 1.00002 0.000152477
427 10.5618 7.97572 0.857149 0 0 1.00002 0.000292001
1266 10.5779 8.73831 1.45052 0 0 1.00002 0.00037459
1269 11.3813 7.83899 1.62421 0 0 1.00002 0.000221861
429 11.2056 8.14813 0.0447651 0 0 1.00002 0.000207187
356 12.6659 7.30877 0.573986 0 0 1.00001 4.83634e-06
431 12.1437 8.25963 0.601202 0 0 1.00001 0.000117096
1190 12.0351 7.18559 1.39532 0 0 1.00002 9.19722e-05
1270 12.056 8.70989 1.51333 0 0 1.00001 0.000198914
1273 12.8167 8.0225 1.49387 0 0 1.00001 6.87827e-05
360 14.2764 7.36781 0.592697 0 0 1.00001 -0.000129435
435 13.5659 8.11305 0.472939 0 0 1.00001 -3.74215e-05
1194 13.4134 7.35963 1.3567 0 0 1.00001 -3.6576e-05
1277 14.1933 8.19566 1.36492 0 0 1.00001 -5.03755e-05
439 15.011 8.30198 0.870276 0 0 1 -0.000119122
362 16.3719 7.18351 0.279732 0 0 1 -0.000232387
364 15.5689 7.31482 0.92175 0 0 1 -0.00019307
443 16.1987 8.1606 1.11247 0 0 1 -0.000161785
1198 15.0824 7.53153 1.63692 0 0 1 -0.000128561
441 15.8002 8.31522 0.154069 0 0 1 -0.000168468
368 16.9161 7.3559 1.11544 0 0 0.999999 -0.00020941
445 17.0033 8.10027 0.337967 0 0 0.999999 -0.000194314
447 17.6469 8.01428 1.02558 0 0 0.999997 -0.000172291
366 17.7588 7.15769 0.215486 0 0 0.999996 -0.000226788
370 18.9566 7.31908 0.637277 0 0 0.999993 -0.000164949
451 18.8764 8.13377 1.17582 0 0 0.999994 -0.000112318
376 19.8296 7.63192 1.31278 0 0 0.999992 -7.01282e-05
453 19.7605 8.11687 0.357208 0 0 0.999992 -7.78765e-05
449 18.3955 8.17477 0.17229 0 0 0.999995 -0.000159864
374 20.667 7.4334 0.664284 0 0 0.99999 -2.9297e-05
455 20.6157 8.41029 1.0228 0 0 0.999992 2.86118e-05
380 21.5218 7.64086 1.13491 0 0 0.999989 8.26376e-05
457 21.5928 8.31311 0.255649 0 0 0.99999 0.000105188
459 22.5834 8.14483 1.0049 0 0 0.999989 0.000229516
1218 22.4108 7.46593 1.73631 0 0 0.999989 0.000200363
378 22.3272 7.45257 0.381064 0 0 0.999988 0.000141936
384 23.4523 7.28945 1.03953 0 0 0.999987 0.000281528
461 23.4968 8.04303 0.379465 0 0 0.999988 0.000318639
463 24.3668 8.06641 0.986929 0 0 0.99999 0.000442743
1302 24.2781 8.68474 1.66468 0 0 0.999992 0.000511122
382 24.3574 7.29309 0.26626 0 0 0.999987 0.00037405
462 24.3374 8.7917 0.205506 0 0 0.999991 0.000468911
388 25.1488 7.36238 1.2391 0 0 0.999989 0.000499744
467 26.0671 7.97646 0.977619 0 0 0.999991 0.000638068
1306 26.0703 8.59588 1.73494 0 0 0.999993 0.00072551
386 26.1334 7.24819 0.364558 0 0 0.999989 0.000580017
465 25.2631 8.09833 0.30438 0 0 0.99999 0.000536978
466 26.3227 8.55701 0.088258 0 0 0.999993 0.000690679
392 26.8367 7.08586 1.32933 0 0 0.999991 0.000670131
470 28.0336 8.4824 0.422078 0 0 0.999996 0.00086037
471 27.8639 7.81298 1.203 0 0 0.999995 0.000817222
472 27.0383 8.62853 1.01392 0 0 0.999994 0.000793231
469 27.0526 7.75735 0.429358 0 0 0.999992 0.000712927
396 28.7201 7.09286 1.22166 0 0 0.999996 0.000833069
474 29.6764 8.34421 0.540457 0 0 1 0.000972943
475 29.5764 7.66381 1.27038 0 0 1 0.000934073
476 28.8568 8.53912 1.17688 0 0 1 0.000951863
473 28.7683 7.70256 0.412801 0 0 0.999997 0.00086239
400 30.4051 7.08125 1.17575 0 0 1 0.000930673
479 31.3358 7.81659 1.29789 0 0 1.00001 0.00102519
480 30.5181 8.48101 1.18049 0 0 1 0.00104389
477 30.7202 7.86485 0.37984 0 0 1 0.000984984
478 31.5152 8.61603 0.390413 0 0 1.00001 0.00106716
482 1.22001 10.2858 0.272634 0 0 1.00001 0.00120645
483 1.112 9.37574 1.20519 0 0 1.00001 0.00116495
484 0.353537 9.92975 0.898795 0 0 1.00001 0.00119071
481 0.462045 9.33696 0.123329 0 0 1.00001 0.00113279
1322 0.913918 10.1283 1.75385 0 0 1.00001 0.00125523
485 1.84765 9.45592 0.451634 0 0 1.00002 0.00114178
488 1.92414 10.3745 0.973162 0 0 1.00002 0.00122365
486 2.68327 10.2859 0.0827022 0 0 1.00002 0.00117724
487 2.46535 9.45578 1.22677 0 0 1.00002 0.00115221
1326 2.86523 10.2458 1.67617 0 0 1.00002 0.0012283
1329 3.29254 9.25401 1.66793 0 0 1.00002 0.00113113
489 3.15892 9.38136 0.0841192 0 0 1.00002 0.00109319
492 3.46641 10.0506 0.740646 0 0 1.00002 0.00114169
491 4.01169 9.12781 0.862993 0 0 1.00002 0.00104606
493 4.64809 9.20445 0.0073659 0 0 1.00002 0.000995521
496 4.68119 9.99899 0.576723 0 0 1.00002 0.00106322
1330 4.2053 9.98966 1.62814 0 0 1.00002 0.00114309
1333 4.74794 9.08953 1.66282 0 0 1.00002 0.00103689
495 5.3944 8.97138 0.667181 0 0 1.00002 0.000931244
500 6.29679 9.82139 0.52221 0 0 1.00002 0.000912965
1334 5.38579 9.85666 1.17874 0 0 1.00002 0.00102133
1337 6.21018 9.0836 1.27375 0 0 1.00002 0.000892955
1417 6.29938 10.5385 1.2035 0 0 1.00002 0.000996847
499 7.20787 8.91089 0.721352 0 0 1.00002 0.000756011
501 8.12454 9.07867 0.0837513 0 0 1.00002 0.00065243
504 7.99441 9.95619 0.585905 0 0 1.00002 0.00074134
1338 7.22355 9.76848 1.20965 0 0 1.00002 0.000843188
1341 8.07751 9.19957 1.41862 0 0 1.00002 0.000715912
503 8.95748 9.48569 0.738817 0 0 1.00002 0.000596882
508 9.65357 10.3667 0.671251 0 0 1.00002 0.000570475
1342 8.77588 10.2963 1.42968 0 0 1.00002 0.000720729
1345 9.83533 9.62152 1.43419 0 0 1.00002 0.000534834
432 11.3509 8.87662 0.742914 0 0 1.00002 0.000252575
426 10.3956 8.91586 0.0412144 0 0 1.00002 0.000358382
507 10.4578 9.71221 0.666845 0 0 1.00002 0.000420787
1346 10.6271 10.2022 1.65922 0 0 1.00002 0.00049777
1349 11.2867 9.66311 1.336 0 0 1.00002 0.000348307
436 12.959 8.98464 0.795491 0 0 1.00001 8.09251e-05
511 12.0758 9.83902 0.696754 0 0 1.00001 0.000229179
516 12.7805 10.4971 0.971855 0 0 1.00001 0.000203221
1353 12.5111 9.6415 1.63106 0 0 1.00001 0.000225204
1274 13.639 8.86532 1.58191 0 0 1.00001 5.25221e-05
440 14.4098 9.20903 0.766153 0 0 1.00001 -3.46305e-05
515 13.4839 9.70284 0.845389 0 0 1.00001 7.57222e-05
1354 13.4518 10.4322 1.72531 0 0 1.00001 0.000189611
517 14.2171 10.1635 0.218685 0 0 1.00001 1.8098e-05
444 15.8377 9.16201 1.13866 0 0 1 -9.62922e-05
519 15.073 9.86877 1.0173 0 0 1 -2.8402e-05
521 15.6284 10.1845 0.252597 0 0 1 -6.69309e-05
523 16.4443 9.95857 0.963198 0 0 1 -7.69675e-05
442 16.447 9.0338 0.26177 0 0 1 -0.000147108
438 15.2369 9.2127 0.0996495 0 0 1 -0.000100329
452 18.2461 8.88647 0.940187 0 0 0.999996 -0.000112864
448 17.0338 9.06407 1.12706 0 0 0.999998 -0.000120365
525 17.0955 10.0219 0.206465 0 0 0.999999 -0.000102012
527 17.719 9.8616 1.06949 0 0 0.999997 -7.08955e-05
446 17.7075 9.1006 0.117654 0 0 0.999997 -0.000139441
456 19.7835 8.94063 1.05627 0 0 0.999993 -1.04094e-05
529 18.548 9.72223 0.299259 0 0 0.999996 -7.47631e-05
531 19.4649 9.88201 0.847028 0 0 0.999995 5.65337e-06
532 18.6743 10.4443 1.14012 0 0 0.999996 2.85627e-06
1369 18.6064 9.57434 1.70302 0 0 0.999996 -9.92209e-06
450 19.1978 8.94667 0.210029 0 0 0.999994 -7.93787e-05
533 19.9553 9.76904 0.0718365 0 0 0.999993 2.16332e-05
535 20.9094 9.78928 0.746947 0 0 0.999994 0.0001289
1373 20.2178 9.64534 1.66101 0 0 0.999994 0.000107713
454 20.7656 9.05964 0.204902 0 0 0.999992 6.00421e-05
460 21.6175 9.01311 0.971405 0 0 0.999992 0.000167667
1298 22.396 8.86368 1.57457 0 0 0.999992 0.000281953
539 22.8385 9.66655 0.798157 0 0 0.999992 0.000349346
540 22.098 10.5045 0.864988 0 0 0.999995 0.000312137
1377 21.9144 9.76662 1.53076 0 0 0.999994 0.00028396
1378 23.0489 10.4915 1.43793 0 0 0.999995 0.000469372