ITEM: TIMESTEP
33000
ITEM: NUMBER OF ATOMS
32000
ITEM: BOX BOUNDS pp pp pp
0.0000000000000000e+00 3.1748021039364001e+01
0.0000000000000000e+00 3.1748021039364001e+01
0.0000000000000000e+00 3.1748021039364001e+01
ITEM: ATOMS id x y z c_phase c_nbond c_rho vx
4 0.439136 1.09446 0.474745 0 0 1.00004 0.00199133
83 1.2983 1.66564 0.787265 0 0 1.00004 0.00203937
842 1.04808 0.789281 1.40667 0 0 1.00004 0.00202427
921 0.338129 1.59457 1.38446 0 0 1.00004 0.00202143
3 1.05391 0.0732944 0.627495 0 0 1.00004 0.0019996
841 0.164682 0.269012 1.2572 0 0 1.00004 0.00198264
8 2.03856 0.829497 1.01451 0 0 1.00004 0.00203377
85 2.13229 1.4946 0.21029 0 0 1.00004 0.00204049
925 2.17395 1.66087 1.75407 0 0 1.00004 0.00208151
6 2.83425 0.744357 0.204176 0 0 1.00004 0.00202441
7 2.89993 0.0611943 1.04154 0 0 1.00004 0.00202928
87 2.96604 1.54909 0.878565 0 0 1.00004 0.00205315
846 3.00452 0.82973 1.74237 0 0 1.00004 0.00205887
12 3.73634 0.92901 0.971918 0 0 1.00003 0.00203017
849 3.80049 0.0858301 1.72384 0 0 1.00003 0.00204074
929 3.92198 1.71589 1.7261 0 0 1.00003 0.00207367
10 4.41257 0.864151 0.321398 0 0 1.00003 0.00200259
850 4.62767 0.95137 1.65326 0 0 1.00003 0.00202899
9 3.77278 0.102464 0.179841 0 0 1.00003 0.00200782
93 5.20776 1.6124 0.391526 0 0 1.00003 0.00199776
16 5.26076 0.570939 1.16626 0 0 1.00003 0.0019827
14 5.91621 0.649256 0.32158 0 0 1.00003 0.00193924
95 6.14889 1.33127 0.964462 0 0 1.00003 0.00195235
854 6.06056 0.46372 1.7241 0 0 1.00003 0.00196119
933 5.30815 1.72885 1.45381 0 0 1.00003 0.00202032
97 6.8208 1.41626 0.223077 0 0 1.00003 0.00190411
20 6.95371 0.405679 0.887022 0 0 1.00003 0.00188356
937 6.9397 1.02874 1.72076 0 0 1.00003 0.00192021
99 7.59192 1.24639 0.965088 0 0 1.00003 0.00185784
941 8.33682 1.2927 1.6407 0 0 1.00002 0.00182372
18 7.79533 0.666736 0.155693 0 0 1.00003 0.00181871
101 8.44217 1.41213 0.241846 0 0 1.00002 0.0017877
24 8.45724 0.419355 1.08461 0 0 1.00002 0.00177849
22 9.02974 0.517123 0.269505 0 0 1.00002 0.00171914
28 9.70981 0.340048 0.912902 0 0 1.00002 0.00166717
103 9.19465 1.33059 1.12042 0 0 1.00002 0.00173794
105 9.78837 1.38839 0.0995354 0 0 1.00002 0.00167238
32 11.3085 0.219939 0.652185 0 0 1.00002 0.00151777
107 10.4946 1.06888 0.8413 0 0 1.00002 0.001608
866 10.6455 0.205139 1.47361 0 0 1.00002 0.00159747
949 11.3955 1.03065 1.44243 0 0 1.00002 0.00154026
946 10.7076 1.71005 1.75481 0 0 1.00002 0.00163637
26 10.3748 0.372456 0.0808695 0 0 1.00002 0.00159862
36 12.9353 0.219112 0.650552 0 0 1.00002 0.00137333
111 12.1172 1.09029 0.523425 0 0 1.00002 0.00145587
870 12.2072 0.321052 1.32541 0 0 1.00002 0.00145254
953 12.7843 1.20948 1.39668 0 0 1.00002 0.00141857
40 14.3998 0.333437 0.789803 0 0 1.00002 0.00126067
115 13.6297 1.12211 0.856572 0 0 1.00002 0.00133332
117 14.0788 1.57241 0.161558 0 0 1.00002 0.00130205
874 13.6553 0.365874 1.65621 0 0 1.00002 0.00133975
957 14.4077 1.16448 1.49721 0 0 1.00002 0.00129119
119 14.9005 1.56442 0.671573 0 0 1.00002 0.0012499
38 15.1143 0.71424 0.0677231 0 0 1.00002 0.00121037
44 15.7182 0.767193 0.792601 0 0 1.00003 0.00118318
123 16.5524 1.54451 0.685927 0 0 1.00003 0.00116221
878 15.159 0.467412 1.65305 0 0 1.00002 0.00123358
882 16.5481 0.710095 1.34835 0 0 1.00003 0.00115656
961 15.6408 1.49831 1.40292 0 0 1.00003 0.00121963
48 17.2619 0.728803 0.556706 0 0 1.00003 0.0011181
127 17.9291 1.57905 0.754997 0 0 1.00003 0.00112717
886 17.9208 0.742793 1.42432 0 0 1.00003 0.00112218
965 17.2252 1.74562 1.56519 0 0 1.00003 0.00116651
51 19.5553 0.0116881 0.661111 0 0 1.00003 0.00110471
52 18.8012 0.723965 0.685002 0 0 1.00003 0.00110195
131 19.5619 1.54137 0.836775 0 0 1.00003 0.00113101
889 19.0363 0.152082 1.53888 0 0 1.00003 0.0011159
890 19.6179 0.959748 1.68153 0 0 1.00003 0.00113839
969 18.6762 1.49989 1.49499 0 0 1.00003 0.00113639
55 21.1535 0.344553 1.05762 0 0 1.00004 0.00116454
56 20.2808 0.768969 0.968049 0 0 1.00004 0.00113412
135 21.1579 1.62757 0.947335 0 0 1.00004 0.00118896
54 21.2366 0.757021 0.213902 0 0 1.00004 0.00116321
133 20.3809 1.4977 0.198375 0 0 1.00004 0.0011442
57 22.0852 0.264504 0.531694 0 0 1.00004 0.00120713
59 22.8958 0.422859 1.38511 0 0 1.00004 0.00127866
60 22.1934 1.13456 1.31355 0 0 1.00004 0.0012413
137 22.0727 1.58007 0.523861 0 0 1.00004 0.00123055
58 23.0152 1.04771 0.448538 0 0 1.00004 0.0012803
63 24.39 0.373418 1.41369 0 0 1.00004 0.00140036
61 23.6902 0.348101 0.567799 0 0 1.00004 0.00132386
62 24.585 1.16119 0.740845 0 0 1.00004 0.00141475
64 23.6055 1.22344 1.3789 0 0 1.00004 0.00134814
65 25.1258 0.311302 0.540015 0 0 1.00005 0.00144841
67 26.2056 0.371756 1.15523 0 0 1.00005 0.00155735
68 25.345 1.10888 1.44878 0 0 1.00005 0.00149936
147 26.135 1.71052 1.33373 0 0 1.00005 0.0015864
66 26.0878 0.923429 0.419691 0 0 1.00005 0.00154265
70 27.8232 1.26653 0.380293 0 0 1.00005 0.00170902
71 27.8613 0.495796 0.864392 0 0 1.00005 0.00170388
72 26.9778 1.01404 1.24044 0 0 1.00005 0.00164169
69 27.0112 0.238537 0.23074 0 0 1.00005 0.00161628
913 28.6562 0.341994 1.40022 0 0 1.00005 0.00178143
76 28.9245 1.21635 0.723731 0 0 1.00005 0.00180301
914 29.6666 0.955491 1.55659 0 0 1.00005 0.0018734
993 28.793 1.70785 1.49083 0 0 1.00005 0.00182598
75 29.5594 0.350702 0.612867 0 0 1.00005 0.0018341
917 30.1277 0.162287 1.44536 0 0 1.00004 0.00189184
79 31.0268 0.469038 0.481173 0 0 1.00004 0.00192749
80 30.3947 1.18724 0.767567 0 0 1.00004 0.00190875
918 31.1741 0.967519 1.38617 0 0 1.00004 0.00196235
82 1.44141 2.43722 0.119678 0 0 1.00004 0.00207006
84 0.46705 2.37744 0.806639 0 0 1.00004 0.00204573
163 1.62491 3.22912 0.944688 0 0 1.00004 0.00213181
922 1.4774 2.3667 1.59172 0 0 1.00004 0.00209736
1001 0.725338 3.03627 1.54951 0 0 1.00004 0.00211449
161 0.666189 3.1037 0.129902 0 0 1.00004 0.00208668
88 2.24651 2.41885 0.789985 0 0 1.00004 0.00208824
167 2.99012 3.29464 0.861955 0 0 1.00004 0.00214462
926 3.00782 2.25357 1.55252 0 0 1.00004 0.00210225
86 3.04572 2.3976 0.054786 0 0 1.00004 0.00208076
1005 2.45097 3.10953 1.76304 0 0 1.00004 0.00216107
1009 3.60406 3.43351 1.66477 0 0 1.00003 0.00217474
92 3.70393 2.5761 0.793219 0 0 1.00003 0.00209096
91 4.31367 1.84794 0.721707 0 0 1.00003 0.00204059
171 4.51648 3.34566 0.763279 0 0 1.00003 0.00211975
930 4.46007 2.66327 1.59596 0 0 1.00003 0.00210207
96 5.20326 2.59054 0.830875 0 0 1.00003 0.0020504
94 5.92785 2.47405 0.141931 0 0 1.00003 0.00200089
175 5.94198 3.2335 0.971324 0 0 1.00003 0.00205947
934 6.13627 2.23222 1.51382 0 0 1.00003 0.00200601
173 5.28796 3.35929 0.00729593 0 0 1.00003 0.00208643
1017 6.80069 3.10648 1.57394 0 0 1.00003 0.00202105
100 6.81406 2.21368 0.791897 0 0 1.00003 0.00194488
177 6.9015 2.97701 0.134751 0 0 1.00003 0.00197407
98 7.68063 2.2593 0.142023 0 0 1.00003 0.00188076
104 8.3012 2.23392 0.952349 0 0 1.00002 0.00184371
179 7.6449 3.10569 0.941555 0 0 1.00002 0.00194476
938 7.53897 2.09384 1.59463 0 0 1.00003 0.00191399
1021 8.41101 3.04412 1.68163 0 0 1.00002 0.00190687
181 8.48444 3.01232 0.0441733 0 0 1.00002 0.00186148
102 9.09212 2.12707 0.257599 0 0 1.00002 0.00176226
108 9.93336 2.05485 1.12246 0 0 1.00002 0.00170096
183 9.11939 3.01607 0.95111 0 0 1.00002 0.00182195
942 9.21681 2.25708 1.73877 0 0 1.00002 0.00179497
185 9.73625 2.95179 0.21431 0 0 1.00002 0.00175144
106 10.4228 2.14455 0.213639 0 0 1.00002 0.0016451
112 11.2706 1.85913 0.787316 0 0 1.00002 0.00156262
187 10.7583 2.84809 0.938176 0 0 1.00002 0.00166294
1029 11.5567 2.87435 1.61096 0 0 1.00002 0.00161484
116 12.7421 1.96526 0.609099 0 0 1.00002 0.00143098
191 12.024 2.68294 0.754204 0 0 1.00002 0.00153319
950 12.0202 1.94794 1.4923 0 0 1.00002 0.00151546
1033 12.9253 3.05587 1.71857 0 0 1.00002 0.00150612
195 13.2602 3.05578 0.854282 0 0 1.00002 0.00144793
954 13.4373 2.01572 1.50094 0 0 1.00002 0.00139543
114 13.4666 2.32292 0.0583823 0 0 1.00002 0.0013814
120 14.0637 2.46881 0.93348 0 0 1.00002 0.00135173
1037 14.0841 3.41886 1.57629 0 0 1.00002 0.00142803
199 14.7394 3.46016 0.888029 0 0 1.00002 0.00136105
958 14.8231 2.31944 1.45304 0 0 1.00002 0.00130371
118 14.8681 2.52736 0.140398 0 0 1.00002 0.00128709
197 14.2007 3.24844 0.0414504 0 0 1.00002 0.00137586
124 15.7123 2.44903 0.703686 0 0 1.00003 0.00123807
203 16.3269 3.20806 0.67616 0 0 1.00003 0.00124866
962 16.324 2.48301 1.53123 0 0 1.00003 0.00122989
1041 15.4104 3.27395 1.51692 0 0 1.00002 0.00132327
201 15.5937 3.27382 0.0266256 0 0 1.00002 0.00128452
128 17.0761 2.35488 0.685198 0 0 1.00003 0.00117483
207 17.9593 2.92164 0.703163 0 0 1.00003 0.00118391
966 18.0318 2.42883 1.58315 0 0 1.00003 0.00117962
1045 17.1082 3.11461 1.50114 0 0 1.00003 0.00123388
132 18.9101 2.34629 1.00744 0 0 1.00003 0.00115667
211 19.7343 3.2115 1.26567 0 0 1.00003 0.0012197
209 18.9043 2.98141 0.191363 0 0 1.00003 0.0011776
130 19.6178 2.31755 0.10458 0 0 1.00003 0.0011535
973 20.3657 1.76382 1.71456 0 0 1.00004 0.00118152
134 21.2216 2.39108 0.450271 0 0 1.00004 0.00121357
136 20.2383 2.43976 1.10047 0 0 1.00004 0.0011876
215 21.3854 3.25972 1.36826 0 0 1.00004 0.00128692
213 20.4669 2.96887 0.328179 0 0 1.00004 0.00120985
139 22.9847 2.03004 1.49141 0 0 1.00004 0.00132778
138 23.0814 2.56618 0.721238 0 0 1.00004 0.00134198
140 22.1774 2.46304 1.22121 0 0 1.00004 0.00128581
217 22.0732 3.16113 0.592212 0 0 1.00004 0.00130386
16179 22.7972 3.35152 0.0637832 0 0 1.00004 0.00135854
141 23.8705 1.7815 0.613076 0 0 1.00004 0.00137082
143 24.5836 1.95488 1.57542 0 0 1.00005 0.00146166
142 24.5003 2.64072 0.760496 0 0 1.00005 0.00146453
144 23.8274 2.85107 1.50902 0 0 1.00004 0.00143752
223 24.6493 3.45841 1.52756 0 0 1.00005 0.00154711
16108 25.1343 2.79299 0.0129941 0 0 1.00005 0.00152413
145 25.3091 1.8255 0.508304 0 0 1.00005 0.00149784
146 25.9991 2.56951 0.691206 0 0 1.00005 0.00159705
148 25.3497 2.5216 1.49502 0 0 1.00005 0.0015531
227 25.9378 3.4444 1.48894 0 0 1.00005 0.00166584
229 26.4052 3.45325 0.583065 0 0 1.00005 0.0016878
149 26.7711 1.7664 0.504903 0 0 1.00005 0.00163151
152 26.7636 2.52875 1.50341 0 0 1.00005 0.00168758
151 27.7533 1.95793 1.21343 0 0 1.00005 0.00174226
150 27.3337 2.65423 0.626013 0 0 1.00005 0.00172524
231 27.471 3.30759 1.39257 0 0 1.00005 0.00179701
233 28.2569 3.18775 0.331889 0 0 1.00005 0.00183379
153 28.5237 2.0665 0.339868 0 0 1.00005 0.00179667
156 28.5313 2.72098 1.18316 0 0 1.00005 0.00184547
155 29.735 2.00986 0.878418 0 0 1.00005 0.00189457
154 29.4872 2.6548 0.282038 0 0 1.00005 0.00190049
235 29.5642 3.22512 1.17382 0 0 1.00005 0.00195746
997 30.2766 1.79105 1.69287 0 0 1.00004 0.00194592
159 31.2312 1.96391 0.919296 0 0 1.00004 0.00198663
160 30.4968 2.6896 0.994623 0 0 1.00004 0.00198187
239 31.3632 3.31718 0.972135 0 0 1.00004 0.00206871
998 31.3169 2.6759 1.72146 0 0 1.00004 0.00205093
237 30.4452 3.21694 0.154375 0 0 1.00005 0.00199892
157 30.7109 1.89235 0.0377263 0 0 1.00004 0.0019437
158 31.466 2.64313 0.0763797 0 0 1.00004 0.00202082
164 0.644595 3.77354 0.919841 0 0 1.00004 0.00214292
241 0.504538 4.59602 0.467175 0 0 1.00004 0.00219834
243 1.49542 4.66473 0.990004 0 0 1.00004 0.00224327
244 0.475878 5.25429 1.27139 0 0 1.00004 0.00227875
162 1.39477 3.85598 0.0764654 0 0 1.00004 0.00215948
168 2.21139 4.04781 0.855499 0 0 1.00004 0.00219844
247 2.9043 4.87794 1.1322 0 0 1.00004 0.00228201
166 3.00096 4.16108 0.201229 0 0 1.00004 0.00220071
245 2.26509 4.96701 0.286728 0 0 1.00004 0.00227041
249 3.7663 4.88446 0.167436 0 0 1.00003 0.00225582
172 3.8264 4.10437 0.898033 0 0 1.00003 0.00219671
251 4.40823 4.91427 1.16466 0 0 1.00003 0.00226457
170 4.58149 4.20884 0.146952 0 0 1.00003 0.00217722
176 5.23211 4.0474 1.18229 0 0 1.00003 0.00216006
253 5.33572 4.78648 0.337442 0 0 1.00003 0.00220313
174 6.05705 3.98209 0.192439 0 0 1.00003 0.00209757
255 6.01272 4.7751 1.05223 0 0 1.00003 0.00218515
180 6.78261 3.82119 0.797525 0 0 1.00003 0.00205143
1097 6.95747 4.57923 1.682 0 0 1.00003 0.00213713
260 6.96821 5.2038 0.895269 0 0 1.00002 0.00216776
259 7.6693 4.5215 0.567773 0 0 1.00002 0.00204702
1018 7.66314 3.92181 1.53209 0 0 1.00002 0.00202488
184 8.43218 3.93887 0.72383 0 0 1.00002 0.00194195
1101 8.45015 4.67612 1.51959 0 0 1.00002 0.00203091
263 9.28843 4.63258 0.842601 0 0 1.00002 0.00193388
265 10.0406 4.57926 0.1333 0 0 1.00002 0.00185
1022 9.2735 3.82449 1.535 0 0 1.00002 0.00188793
182 9.18897 3.92278 0.0642665 0 0 1.00002 0.00186982
188 10.0652 3.63717 0.907633 0 0 1.00002 0.00178106
1105 10.0632 4.41861 1.69803 0 0 1.00002 0.0018771
192 11.5286 3.69521 0.808299 0 0 1.00002 0.00164733
267 10.7502 4.72229 0.930384 0 0 1.00002 0.00181175
269 11.5193 4.75804 0.231259 0 0 1.00002 0.00172965
1026 10.8529 3.62853 1.62615 0 0 1.00002 0.00173231
1109 11.5018 4.44968 1.74031 0 0 1.00002 0.00174762
186 10.7368 3.89987 0.178394 0 0 1.00002 0.00172749
196 12.5949 3.63668 0.830559 0 0 1.00002 0.00154653
271 12.2977 4.6086 1.02213 0 0 1.00002 0.00165958
1113 12.8618 5.04625 1.72352 0 0 1.00002 0.00167952
275 13.3116 4.74299 0.816393 0 0 1.00002 0.00157462
273 12.7303 4.67146 0.0625567 0 0 1.00002 0.00160946
200 14.0532 4.16111 0.709534 0 0 1.00002 0.00146054
1034 13.5637 4.26468 1.61902 0 0 1.00002 0.00153995
1117 14.2722 5.15746 1.5501 0 0 1.00002 0.00156072
279 14.9965 5.0453 0.824049 0 0 1.00002 0.00147006
1038 15.0192 4.43955 1.612 0 0 1.00002 0.00144225
277 14.204 4.93825 0.0723207 0 0 1.00002 0.00150773
198 15 4.21541 0.104754 0 0 1.00002 0.00138827
204 15.6979 4.08319 0.93024 0 0 1.00002 0.00134646
281 15.9082 4.78904 0.1897 0 0 1.00002 0.0013804
283 16.624 4.58932 0.90594 0 0 1.00003 0.00134045
1042 16.351 3.97036 1.69722 0 0 1.00003 0.00133054
1121 15.8608 5.06643 1.65717 0 0 1.00002 0.00144848
208 17.2911 3.82978 0.812159 0 0 1.00003 0.00125684
287 18.1132 4.47379 1.09391 0 0 1.00003 0.00129532
1046 17.9767 3.62989 1.65321 0 0 1.00003 0.00125314
285 17.4745 4.57178 0.0197273 0 0 1.00003 0.00129875
206 18.1582 3.83954 0.0647654 0 0 1.00003 0.00123208
212 18.9006 3.68813 0.949406 0 0 1.00003 0.00123095
289 18.8597 4.58656 0.359228 0 0 1.00003 0.00128654
291 19.7338 4.63702 1.08258 0 0 1.00003 0.00131531
292 18.8275 5.24997 1.19174 0 0 1.00003 0.00136039
210 19.6354 3.73757 0.231321 0 0 1.00003 0.00123243
216 20.4937 3.78317 1.22003 0 0 1.00004 0.00127656
295 20.9609 4.6677 1.37053 0 0 1.00004 0.0013684
297 21.6854 4.89424 0.789927 0 0 1.00004 0.00140781
214 21.1604 3.89027 0.505956 0 0 1.00004 0.00129704
293 20.2023 4.74377 0.342043 0 0 1.00004 0.00132176
219 22.9463 3.57324 1.39163 0 0 1.00004 0.00140823
220 22.0394 4.0786 1.28835 0 0 1.00004 0.00137802
299 22.6063 5.1001 1.25075 0 0 1.00004 0.00149827
218 22.74 4.28689 0.509645 0 0 1.00004 0.00142379
221 23.7188 3.5803 0.763874 0 0 1.00004 0.00145364
222 24.5136 4.26193 0.614061 0 0 1.00005 0.00156935
224 23.6222 4.47813 1.31053 0 0 1.00005 0.00152757
305 25.0702 5.17412 0.551728 0 0 1.00005 0.00169819
301 23.7108 4.9969 0.518945 0 0 1.00005 0.00155816
303 24.5605 5.21298 1.40009 0 0 1.00005 0.00167792
228 25.2238 4.42337 1.58088 0 0 1.00005 0.00167738
225 25.2584 3.61022 0.777017 0 0 1.00005 0.00159361
307 25.9404 5.06448 1.31828 0 0 1.00005 0.00179128
232 26.6126 4.22589 1.34717 0 0 1.00005 0.00178391
226 25.7544 4.3392 0.388952 0 0 1.00005 0.0016876
309 26.7693 4.90809 0.627597 0 0 1.00005 0.00183715
311 27.6235 4.8071 1.37511 0 0 1.00005 0.00192839
236 28.2508 3.92328 1.08937 0 0 1.00005 0.001899
230 27.3292 3.98376 0.569766 0 0 1.00005 0.00181079
313 28.587 4.68583 0.690717 0 0 1.00005 0.00198199
234 29.2388 3.73871 0.4684 0 0 1.00005 0.00195334
315 29.4119 4.47494 1.30306 0 0 1.00005 0.00204592
314 29.7345 5.26603 0.799892 0 0 1.00005 0.00212775
240 30.3279 4.0204 1.01955 0 0 1.00005 0.00206329
238 31.3731 3.96777 0.354303 0 0 1.00004 0.00210756
317 30.5561 4.65984 0.467919 0 0 1.00005 0.00212155
319 31.3406 4.58528 1.379 0 0 1.00004 0.00218198
242 1.30137 5.52125 0.460104 0 0 1.00004 0.00230954
323 1.20968 6.19706 1.27589 0 0 1.00004 0.00239938
324 0.671087 6.91936 1.49103 0 0 1.00004 0.00247278
322 1.39835 6.93259 0.566809 0 0 1.00004 0.00246444
321 0.381268 5.98791 0.449285 0 0 1.00004 0.00232778
248 1.9339 5.51382 1.37487 0 0 1.00004 0.00234795
328 2.13176 7.03288 1.25124 0 0 1.00004 0.00250944
325 2.28258 6.21007 0.509459 0 0 1.00004 0.00239748
327 2.68205 6.1805 1.41964 0 0 1.00004 0.00242438
246 3.06464 5.62096 0.277264 0 0 1.00004 0.00233513
252 3.50647 5.65496 1.30363 0 0 1.00003 0.00236113
332 3.66174 7.00223 1.16116 0 0 1.00003 0.00250174
329 3.78837 6.30414 0.493794 0 0 1.00003 0.0024013
250 4.55378 5.5038 0.332416 0 0 1.00003 0.00229915
331 4.50563 6.13569 1.24926 0 0 1.00003 0.00239042
330 4.40035 7.05453 0.23587 0 0 1.00003 0.0024707
336 5.16196 6.86913 1.18465 0 0 1.00003 0.00244883
333 5.19582 6.28717 0.335056 0 0 1.00003 0.00236072
256 5.29052 5.4857 1.32388 0 0 1.00003 0.00229756
254 6.09555 5.46545 0.303033 0 0 1.00003 0.00223265
335 6.03297 6.28878 0.982868 0 0 1.00003 0.0023399
337 6.7167 6.12972 0.153786 0 0 1.00003 0.00226627
1177 6.7975 6.05986 1.63865 0 0 1.00003 0.00229901
340 6.78531 6.94427 1.01782 0 0 1.00002 0.00237292
339 7.6224 6.2237 0.77966 0 0 1.00002 0.0022295
1098 7.68659 5.48232 1.5348 0 0 1.00002 0.00217187
344 8.3167 6.94062 0.750032 0 0 1.00002 0.00225681
1178 7.61433 6.93275 1.64651 0 0 1.00002 0.00234989
258 7.60771 5.42556 0.0434163 0 0 1.00002 0.00213342
264 8.4652 5.38825 0.719547 0 0 1.00002 0.00207419
1181 8.51118 6.19627 1.54215 0 0 1.00002 0.00218952
268 9.97246 5.40091 0.818344 0 0 1.00002 0.00194741
343 9.1386 6.26922 0.761072 0 0 1.00002 0.00211443
1102 9.28444 5.40682 1.6324 0 0 1.00002 0.00204291
1185 9.96734 6.26752 1.52083 0 0 1.00002 0.00207109
1182 9.35466 7.04854 1.51267 0 0 1.00002 0.00221821
345 9.97972 6.31955 0.101439 0 0 1.00002 0.00203449
262 9.23189 5.54703 0.0235066 0 0 1.00002 0.00201752
272 11.5414 5.34789 1.02263 0 0 1.00002 0.00180281
347 10.7814 6.10544 0.984116 0 0 1.00002 0.00195216
349 11.4853 6.44608 0.0806393 0 0 1.00002 0.001907
346 10.7317 7.03613 0.152043 0 0 1.00002 0.00204517
1186 10.691 7.02134 1.54676 0 0 1.00002 0.00209687
266 10.6635 5.65112 0.0061479 0 0 1.00002 0.00189846
270 12.1284 5.68861 0.190364 0 0 1.00002 0.00176374
276 12.7945 5.87363 0.884735 0 0 1.00002 0.00173628
351 11.9287 6.29117 1.08245 0 0 1.00002 0.00186775
274 13.4098 5.59471 0.0452811 0 0 1.00002 0.00163628
1114 13.4363 5.92835 1.60043 0 0 1.00002 0.00171316
355 13.4686 6.63654 0.82868 0 0 1.00002 0.0017546
280 14.1444 5.7655 0.791139 0 0 1.00002 0.00160375
1197 14.4177 6.69923 1.44382 0 0 1.00002 0.0017092
357 14.2197 6.43524 0.0426788 0 0 1.00002 0.00165513
278 15.076 5.66882 0.0403944 0 0 1.00002 0.00151201
359 15.1183 6.48737 0.819433 0 0 1.00002 0.00160605
284 15.8818 5.75693 0.961247 0 0 1.00002 0.00148566
363 16.548 6.46576 1.15393 0 0 1.00002 0.00153011
1118 15.1794 5.90658 1.72027 0 0 1.00002 0.00158003
282 16.6589 5.42804 0.27683 0 0 1.00003 0.00140118
361 15.7389 6.36714 0.0459341 0 0 1.00002 0.0015386
286 17.8671 5.29725 0.539998 0 0 1.00003 0.00135622
288 17.1495 5.42574 1.25056 0 0 1.00003 0.00140579
365 17.1187 6.27922 0.412056 0 0 1.00003 0.00146671
367 17.7181 6.23797 1.37957 0 0 1.00003 0.0014751
372 18.3435 7.03356 1.13615 0 0 1.00003 0.00153736
369 18.4303 6.20803 0.611253 0 0 1.00003 0.00143488
290 19.4938 5.71686 0.613833 0 0 1.00003 0.00139317
371 19.3982 6.5162 1.32913 0 0 1.00003 0.00149256
373 20.0832 6.69577 0.601208 0 0 1.00004 0.00150084
294 20.8456 5.71572 0.638602 0 0 1.00004 0.00143415
296 20.2623 5.55899 1.37491 0 0 1.00004 0.00141967
375 20.8852 6.54624 1.27874 0 0 1.00004 0.00153764
377 21.7858 6.5921 0.653733 0 0 1.00004 0.00156889
300 21.7786 5.80409 1.34976 0 0 1.00004 0.00151343
16260 21.8099 5.66745 0.0534403 0 0 1.00004 0.00147389
298 22.8209 5.7591 0.646925 0 0 1.00004 0.00155828
379 22.7972 6.60674 1.17373 0 0 1.00005 0.00165799
381 23.5375 6.68447 0.262977 0 0 1.00005 0.00170047
304 23.6651 5.80598 1.25679 0 0 1.00005 0.00164941
383 24.549 6.47949 1.13354 0 0 1.00005 0.00179404
302 24.3446 5.91798 0.409345 0 0 1.00005 0.00169727
306 25.9457 5.78239 0.674053 0 0 1.00005 0.00184161
308 25.3563 5.95001 1.62376 0 0 1.00005 0.00183603
385 25.4142 6.64227 0.477903 0 0 1.00005 0.00187314
387 26.1239 6.51366 1.36932 0 0 1.00005 0.00195951
312 26.9851 5.77286 1.4359 0 0 1.00005 0.0019661
310 27.8111 5.48304 0.699101 0 0 1.00005 0.00198957
389 27.0529 6.29147 0.624478 0 0 1.00005 0.00199884
391 28.0345 6.39132 1.33664 0 0 1.00005 0.00212312
390 28.0602 6.93543 0.509425 0 0 1.00005 0.00215806
392 27.1198 7.03466 1.30036 0 0 1.00005 0.00210945
316 28.7062 5.46538 1.44522 0 0 1.00005 0.00209014
395 29.8106 6.14428 1.29861 0 0 1.00005 0.00223931
394 29.9701 6.87971 0.499242 0 0 1.00005 0.0023065
393 28.8239 6.15341 0.634118 0 0 1.00005 0.00214376
16355 29.738 6.09131 0.0729692 0 0 1.00005 0.00219993
16276 28.8125 5.3442 0.0444848 0 0 1.00005 0.00205517
396 29.0288 7.0417 1.20192 0 0 1.00005 0.00227457
318 31.3441 5.33452 0.586844 0 0 1.00004 0.0022297
320 30.5929 5.41642 1.43538 0 0 1.00005 0.00222041
397 30.7746 6.15228 0.632003 0 0 1.00005 0.00228201
399 31.6128 6.12527 1.37046 0 0 1.00004 0.0023464
398 31.6242 6.92163 0.603962 0 0 1.00005 0.00240995
400 30.7416 7.04773 1.16579 0 0 1.00005 0.00239348
401 0.703027 7.62975 0.648521 0 0 1.00004 0.00252348
402 1.3134 8.46942 0.600984 0 0 1.00004 0.00263587
403 1.55856 7.8465 1.49009 0 0 1.00004 0.00260534
404 0.818222 8.53721 1.45577 0 0 1.00004 0.00266282
478 0.140733 8.5853 0.387909 0 0 1.00005 0.00260486
405 2.04191 7.77035 0.384444 0 0 1.00004 0.00256655
408 2.204 8.62906 1.46616 0 0 1.00004 0.00270532
326 2.90397 7.15597 0.472068 0 0 1.00004 0.00250476
406 2.67273 8.6321 0.402136 0 0 1.00004 0.00267062
407 2.8464 7.82996 1.29161 0 0 1.00004 0.00260737
412 3.48884 8.55157 0.959386 0 0 1.00003 0.00267561
409 3.67194 7.79321 0.335583 0 0 1.00003 0.00256862
410 4.26347 8.49973 0.0801485 0 0 1.00003 0.00263851
411 4.40684 7.68728 1.24421 0 0 1.00003 0.0025687
413 5.08585 7.70334 0.241431 0 0 1.00003 0.00252215
416 5.12557 8.32676 0.960996 0 0 1.00003 0.00261297
334 5.91659 7.10488 0.159218 0 0 1.00003 0.00242034
414 6.26891 8.42056 0.185081 0 0 1.00002 0.00255572
415 5.88075 7.64134 1.04457 0 0 1.00003 0.00250367
420 6.78018 8.28502 1.07902 0 0 1.00002 0.0025337
417 6.84991 7.62621 0.172661 0 0 1.00002 0.0024298
419 7.63716 7.84263 0.774953 0 0 1.00002 0.0024161
1258 7.63924 8.25433 1.74897 0 0 1.00002 0.00251512
421 8.3158 7.69407 0.0274402 0 0 1.00002 0.00233505
1261 8.38158 7.57739 1.60961 0 0 1.00002 0.00236898
424 8.59681 8.41063 0.907207 0 0 1.00002 0.00241826
423 9.19774 7.70653 0.689365 0 0 1.00002 0.00227449
428 10.0089 8.70918 0.728585 0 0 1.00002 0.00232637
1262 9.39288 8.78988 1.50766 0 0 1.00002 0.00243285
1265 9.93516 7.97789 1.65098 0 0 1.00002 0.00229254
348 10.0753 7.30363 0.757768 0 0 1.00002 0.00215214
352 11.4948 7.22663 0.837014 0 0 1.00002 0.00201152
427 10.8092 8.02865 0.876104 0 0 1.00002 0.0021749
1266 10.8401 8.81192 1.4924 0 0 1.00001 0.00230287
1269 11.6047 7.90753 1.65468 0 0 1.00001 0.00212659
429 11.4368 8.20577 0.0492203 0 0 1.00002 0.00211567
356 12.8534 7.36544 0.592237 0 0 1.00002 0.00188901
431 12.3582 8.30456 0.623624 0 0 1.00001 0.00205001
1190 12.251 7.24055 1.42913 0 0 1.00002 0.00196777
1270 12.2839 8.76976 1.55372 0 0 1.00001 0.00216172
1273 13.0155 8.08111 1.52785 0 0 1.00001 0.00200358
350 12.0684 7.46209 0.00105851 0 0 1.00002 0.00196599
360 14.4235 7.40372 0.619727 0 0 1.00002 0.00175495
435 13.7483 8.16138 0.493947 0 0 1.00002 0.00189728
1194 13.5997 7.40147 1.39048 0 0 1.00002 0.00185752
1277 14.3777 8.2257 1.39411 0 0 1.00002 0.00188851
439 15.1852 8.33139 0.883326 0 0 1.00002 0.00181106
362 16.5039 7.19604 0.287629 0 0 1.00002 0.0015866
364 15.7142 7.33512 0.924288 0 0 1.00002 0.00166115
443 16.357 8.17627 1.12131 0 0 1.00002 0.00172814
1198 15.2362 7.56167 1.66745 0 0 1.00002 0.00176195
441 15.9486 8.32873 0.157796 0 0 1.00002 0.00174086
368 17.0518 7.35995 1.12084 0 0 1.00002 0.00160401
445 17.1425 8.1089 0.332806 0 0 1.00002 0.00165888
447 17.7979 8.01469 1.03264 0 0 1.00003 0.00164851
366 17.8856 7.15896 0.222163 0 0 1.00003 0.00153367
370 19.094 7.29861 0.629557 0 0 1.00003 0.00154604
451 19.0282 8.11589 1.16917 0 0 1.00003 0.00165442
376 19.9798 7.60023 1.29825 0 0 1.00004 0.00161814
453 19.9127 8.08469 0.356385 0 0 1.00004 0.00163623
449 18.5443 8.16344 0.182297 0 0 1.00003 0.0016299
374 20.8193 7.39545 0.65156 0 0 1.00004 0.00160073
455 20.7906 8.36652 1.00891 0 0 1.00004 0.00171535
380 21.6959 7.59032 1.11433 0 0 1.00004 0.00168321
457 21.7748 8.26295 0.254615 0 0 1.00004 0.00173519
459 22.7866 8.09139 0.981631 0 0 1.00005 0.00180822
1218 22.6006 7.40877 1.70478 0 0 1.00005 0.00175715
378 22.5078 7.3985 0.374375 0 0 1.00005 0.00169479
458 22.9651 8.79827 0.19589 0 0 1.00005 0.00187771
1298 22.6187 8.80711 1.54874 0 0 1.00005 0.00190689
384 23.6566 7.23402 1.02849 0 0 1.00005 0.00178819
461 23.709 7.98807 0.363328 0 0 1.00005 0.00185692
463 24.6048 7.99778 0.960593 0 0 1.00005 0.0019565
1302 24.5327 8.63171 1.63693 0 0 1.00005 0.00206195
382 24.5694 7.22947 0.26533 0 0 1.00005 0.00185044
462 24.5822 8.72262 0.199404 0 0 1.00005 0.00201526
1301 23.5996 7.95458 1.74535 0 0 1.00005 0.00190369
388 25.395 7.29898 1.20999 0 0 1.00005 0.00196693
467 26.3459 7.9196 0.959883 0 0 1.00005 0.00211874
1306 26.3658 8.53403 1.69695 0 0 1.00005 0.00223584
386 26.3854 7.18129 0.361136 0 0 1.00005 0.00202294
465 25.515 8.02398 0.301951 0 0 1.00005 0.00203025
466 26.6047 8.49743 0.0890688 0 0 1.00005 0.00218991
468 25.5971 8.75912 0.96862 0 0 1.00005 0.00214166
470 28.3525 8.43046 0.40105 0 0 1.00005 0.00235057
471 28.1802 7.75487 1.17836 0 0 1.00005 0.00228346
472 27.3514 8.5739 0.993806 0 0 1.00005 0.00229439
469 27.3412 7.70143 0.41939 0 0 1.00005 0.00217407
1310 28.1922 8.61376 1.74392 0 0 1.00005 0.00241946
474 30.0258 8.32469 0.530272 0 0 1.00005 0.00247376
475 29.9106 7.62741 1.25644 0 0 1.00005 0.0024087
476 29.1906 8.48894 1.15758 0 0 1.00005 0.00245102
473 29.094 7.66704 0.404879 0 0 1.00005 0.00232693
479 31.6876 7.78556 1.28507 0 0 1.00005 0.00253283
480 30.8811 8.44761 1.17267 0 0 1.00005 0.00256211
477 31.0664 7.83838 0.379591 0 0 1.00005 0.00247936
482 1.63293 10.2774 0.264058 0 0 1.00004 0.00283692
483 1.51439 9.3521 1.19483 0 0 1.00004 0.00276342
484 0.761381 9.92304 0.90396 0 0 1.00005 0.00279194
481 0.8522 9.32685 0.125721 0 0 1.00004 0.00271359
1322 1.33514 10.1199 1.74838 0 0 1.00004 0.00288056
485 2.23829 9.46483 0.440817 0 0 1.00004 0.00276346
488 2.33913 10.3575 0.977108 0 0 1.00004 0.00287713
486 3.08413 10.2937 0.0750531 0 0 1.00004 0.00285119
487 2.86288 9.45965 1.22164 0 0 1.00004 0.00279369
1326 3.27597 10.2534 1.68638 0 0 1.00004 0.00291077
489 3.55013 9.38379 0.100657 0 0 1.00003 0.00275045
1329 3.70602 9.27744 1.69572 0 0 1.00003 0.00279645
492 3.86626 10.0759 0.761538 0 0 1.00003 0.00283626
491 4.3948 9.15111 0.875179 0 0 1.00003 0.00272735
493 5.01774 9.24949 0.00481461 0 0 1.00003 0.00270412
1330 4.61112 10.0105 1.62916 0 0 1.00003 0.00286108
496 5.06704 10.0339 0.582903 0 0 1.00003 0.00280058
1333 5.1328 9.11651 1.67417 0 0 1.00003 0.00274652
495 5.75648 9.02325 0.677967 0 0 1.00003 0.00266172
500 6.65776 9.86908 0.537107 0 0 1.00002 0.0027107
1334 5.78369 9.89855 1.22014 0 0 1.00003 0.00278348
1337 6.57197 9.14204 1.30208 0 0 1.00002 0.0026629
499 7.53775 8.96173 0.744283 0 0 1.00002 0.00255705
504 8.33659 10.0176 0.603167 0 0 1.00002 0.00261801
1338 7.56461 9.82465 1.24351 0 0 1.00002 0.00268069
1341 8.40339 9.25454 1.4518 0 0 1.00002 0.00256685
501 8.44278 9.13711 0.0918948 0 0 1.00002 0.00249794
503 9.26778 9.53898 0.758711 0 0 1.00002 0.00249435
508 9.96466 10.417 0.700336 0 0 1.00001 0.00253172
1342 9.11129 10.336 1.47245 0 0 1.00001 0.00264138
1345 10.1286 9.67201 1.48021 0 0 1.00001 0.00247483
432 11.5865 8.93404 0.763666 0 0 1.00001 0.00220481
426 10.6632 8.96733 0.0380275 0 0 1.00002 0.00228214
507 10.7431 9.76768 0.69349 0 0 1.00001 0.0023854
1346 10.921 10.2729 1.70695 0 0 1.00001 0.00249204
1349 11.572 9.71035 1.38433 0 0 1.00001 0.00233616
436 13.1575 9.02324 0.814287 0 0 1.00001 0.00206507
511 12.3179 9.8851 0.721091 0 0 1.00001 0.00224552
516 13.0281 10.5502 0.995244 0 0 1.00001 0.0022622
1353 12.7703 9.69944 1.67624 0 0 1.00001 0.00224144
1274 13.8412 8.92575 1.61769 0 0 1.00001 0.00203904
440 14.5954 9.23694 0.787096 0 0 1.00002 0.00195937
515 13.707 9.76317 0.873562 0 0 1.00001 0.0021026
517 14.4265 10.1905 0.230905 0 0 1.00001 0.00206405
444 16.0105 9.17929 1.15102 0 0 1.00002 0.00186682
519 15.2716 9.90626 1.04119 0 0 1.00002 0.00199354
521 15.8174 10.2009 0.254339 0 0 1.00002 0.00195623
523 16.6273 9.97308 0.97718 0 0 1.00002 0.00190889
442 16.6052 9.05544 0.269233 0 0 1.00002 0.00178578
438 15.4058 9.23654 0.119516 0 0 1.00002 0.00187839
448 17.1994 9.06479 1.13262 0 0 1.00002 0.00179115
525 17.2773 10.0245 0.205428 0 0 1.00002 0.00185842
527 17.8987 9.85449 1.07141 0 0 1.00003 0.00185145
446 17.8671 9.09692 0.122701 0 0 1.00003 0.00174058
452 18.4087 8.88117 0.941843 0 0 1.00003 0.00172987
456 19.9606 8.91061 1.04006 0 0 1.00004 0.00174875
529 18.7219 9.71277 0.302171 0 0 1.00003 0.00179575
531 19.6452 9.85989 0.848331 0 0 1.00004 0.00183518
532 18.8646 10.4351 1.13757 0 0 1.00003 0.00190421
1369 18.7852 9.56301 1.69657 0 0 1.00003 0.00185305
450 19.3564 8.92666 0.210784 0 0 1.00003 0.00171374
533 20.1481 9.74043 0.06935 0 0 1.00004 0.00181454
535 21.1136 9.75221 0.74395 0 0 1.00004 0.00187011
1373 20.4081 9.61579 1.63795 0 0 1.00004 0.0018807
454 20.9439 9.01471 0.197123 0 0 1.00004 0.00176986
1374 21.2855 10.0493 1.73633 0 0 1.00004 0.00197557
460 21.8116 8.963 0.952272 0 0 1.00004 0.0018335
539 23.0694 9.61964 0.784861 0 0 1.00005 0.00199134
540 22.3376 10.4526 0.829557 0 0 1.00005 0.00202133
1377 22.149 9.71953 1.49442 0 0 1.00005 0.00197214
1378 23.307 10.4382 1.39696 0 0 1.00005 0.00213523
537 22.1758 9.73751 0.212289 0 0 1.00005 0.00191888
464 23.6849 8.87261 0.939925 0 0 1.00005 0.0019679
543 24.8156 9.48476 0.742061 0 0 1.00005 0.00213734
1381 23.9762 9.53215 1.51106 0 0 1.00005 0.00210652
1382 24.7207 10.2589 1.41089 0 0 1.00006 0.00224913
544 23.9056 10.4665 0.607572 0 0 1.00005 0.00214787