ITEM: TIMESTEP
18500
ITEM: NUMBER OF ATOMS
32000
ITEM: BOX BOUNDS pp pp pp
0.0000000000000000e+00 3.1748021039364001e+01
0.0000000000000000e+00 3.1748021039364001e+01
0.0000000000000000e+00 3.1748021039364001e+01
ITEM: ATOMS id x y z c_phase c_nbond c_rho vx
4 0.223454 1.09933 0.468399 0 0 1.00003 0.00101476
83 1.08002 1.66811 0.781729 0 0 1.00002 0.00104327
842 0.823725 0.792156 1.41112 0 0 1.00002 0.00103453
921 0.114591 1.59932 1.37818 0 0 1.00003 0.00104047
3 0.835739 0.0678334 0.620964 0 0 1.00002 0.00101388
8 1.81613 0.817594 1.01573 0 0 1.00002 0.00102447
85 1.90812 1.48343 0.217936 0 0 1.00002 0.00102779
925 1.93696 1.66284 1.7604 0 0 1.00002 0.00106258
6 2.61908 0.749029 0.204794 0 0 1.00002 0.000997172
7 2.68808 0.0569609 1.04049 0 0 1.00002 0.000999714
87 2.74864 1.54583 0.882912 0 0 1.00002 0.00101728
846 2.77586 0.822151 1.74657 0 0 1.00002 0.00102198
12 3.52491 0.93459 0.964391 0 0 1.00002 0.000974814
849 3.59032 0.0909821 1.7151 0 0 1.00002 0.000981444
929 3.7023 1.71366 1.72589 0 0 1.00002 0.00100552
10 4.19631 0.862521 0.324869 0 0 1.00002 0.00092892
93 4.99875 1.60846 0.387692 0 0 1.00002 0.000893999
850 4.42675 0.9484 1.64166 0 0 1.00002 0.000941501
9 3.56581 0.108161 0.174412 0 0 1.00002 0.00095486
16 5.04522 0.570006 1.17532 0 0 1.00002 0.000880203
14 5.71587 0.648501 0.325949 0 0 1.00001 0.000815528
95 5.95082 1.3214 0.949364 0 0 1.00001 0.000815984
97 6.63112 1.40348 0.221044 0 0 1.00001 0.000745737
854 5.85466 0.462861 1.71204 0 0 1.00001 0.000828006
933 5.10711 1.73106 1.44568 0 0 1.00001 0.000907359
20 6.76712 0.396406 0.875219 0 0 1.00001 0.000722784
937 6.74729 1.0191 1.70817 0 0 1.00001 0.00075425
24 8.29454 0.413448 1.08206 0 0 1.00001 0.000565169
99 7.41147 1.23428 0.961841 0 0 1.00001 0.000671615
101 8.27519 1.40273 0.239832 0 0 1.00001 0.000573623
941 8.16122 1.28385 1.62283 0 0 1.00001 0.000608022
18 7.62122 0.655946 0.145069 0 0 1.00001 0.000629866
22 8.87502 0.513249 0.27565 0 0 1.00001 0.000490158
28 9.55922 0.341008 0.898621 0 0 1.00001 0.000417438
103 9.04056 1.31944 1.12171 0 0 1.00001 0.000497834
105 9.64373 1.38522 0.0929018 0 0 1.00001 0.000417212
32 11.1893 0.217802 0.640621 0 0 1 0.00022996
107 10.3561 1.0573 0.831776 0 0 1 0.000334712
866 10.5122 0.199196 1.45899 0 0 1 0.000319686
949 11.2647 1.02582 1.43045 0 0 1 0.000244683
946 10.5693 1.69293 1.74482 0 0 1 0.000347663
26 10.2368 0.370785 0.0796954 0 0 1.00001 0.000332954
36 12.8313 0.214627 0.643169 0 0 1 6.502e-05
111 12.0091 1.08199 0.513571 0 0 1 0.000151807
870 12.0957 0.3188 1.31137 0 0 1 0.000146962
953 12.6764 1.20477 1.38371 0 0 1 0.000102454
40 14.313 0.325357 0.776421 0 0 1 -4.96459e-05
115 13.5369 1.11732 0.849945 0 0 1 1.71063e-05
117 13.9845 1.5657 0.165088 0 0 1 -1.47331e-05
874 13.556 0.362472 1.64507 0 0 1 2.17589e-05
957 14.3176 1.15565 1.4856 0 0 1 -2.76037e-05
119 14.8141 1.55798 0.666583 0 0 1 -6.29734e-05
44 15.6403 0.768227 0.789529 0 0 1.00001 -0.000113672
123 16.4813 1.54281 0.682697 0 0 1.00001 -0.000123737
878 15.0767 0.465379 1.64613 0 0 1 -7.68933e-05
882 16.4765 0.710268 1.34357 0 0 1.00001 -0.000127678
961 15.5634 1.49058 1.39574 0 0 1.00001 -8.81618e-05
38 15.0375 0.712465 0.0674722 0 0 1.00001 -9.2884e-05
48 17.1899 0.729642 0.551472 0 0 1.00001 -0.000143653
127 17.8578 1.57795 0.75483 0 0 1.00001 -0.00012182
886 17.8503 0.741751 1.42407 0 0 1.00001 -0.000125766
965 17.151 1.74521 1.56202 0 0 1.00001 -0.000109986
51 19.4837 0.0142319 0.6608 0 0 1.00001 -8.07856e-05
52 18.7317 0.723441 0.68372 0 0 1.00001 -0.000112209
131 19.4867 1.54595 0.837821 0 0 1.00001 -6.19151e-05
889 18.9673 0.155073 1.53974 0 0 1.00001 -9.41878e-05
890 19.5412 0.962031 1.68295 0 0 1.00001 -5.43871e-05
969 18.599 1.50433 1.49528 0 0 1.00001 -9.20031e-05
55 21.06 0.346703 1.06063 0 0 1.00002 3.53694e-05
56 20.2036 0.771559 0.972926 0 0 1.00002 -2.7571e-05
135 21.0725 1.64157 0.94694 0 0 1.00002 5.57708e-05
54 21.1541 0.759827 0.216539 0 0 1.00002 3.98213e-05
133 20.3019 1.50421 0.194947 0 0 1.00002 -1.59898e-05
57 21.9895 0.261087 0.535395 0 0 1.00002 0.000114721
59 22.7861 0.425718 1.39548 0 0 1.00002 0.000210046
60 22.0937 1.13825 1.31959 0 0 1.00002 0.000146278
137 21.9784 1.58684 0.532417 0 0 1.00002 0.000132189
58 22.911 1.063 0.443192 0 0 1.00002 0.000218552
63 24.2502 0.376216 1.43655 0 0 1.00003 0.00037714
61 23.5739 0.353264 0.569304 0 0 1.00002 0.000284917
62 24.4586 1.17466 0.747787 0 0 1.00003 0.000398523
64 23.4833 1.23703 1.39014 0 0 1.00002 0.000299874
65 24.9865 0.312755 0.546575 0 0 1.00003 0.000448247
67 26.0561 0.378362 1.16247 0 0 1.00003 0.000577801
68 25.2046 1.11577 1.46609 0 0 1.00003 0.000498837
147 25.9801 1.72104 1.34537 0 0 1.00003 0.000598814
66 25.9382 0.923637 0.426899 0 0 1.00003 0.000561541
70 27.6465 1.27293 0.384963 0 0 1.00003 0.000749676
71 27.6862 0.503717 0.868815 0 0 1.00003 0.0007466
72 26.816 1.02045 1.25239 0 0 1.00003 0.000672153
69 26.8515 0.238727 0.226608 0 0 1.00003 0.000651986
913 28.462 0.338357 1.39696 0 0 1.00003 0.000825604
76 28.7354 1.23119 0.734234 0 0 1.00003 0.000849421
914 29.4787 0.948623 1.56278 0 0 1.00003 0.00091699
993 28.6074 1.71212 1.49272 0 0 1.00003 0.000865803
917 29.9157 0.168492 1.45451 0 0 1.00003 0.000935237
75 29.3642 0.353172 0.613308 0 0 1.00003 0.000882902
841 31.695 0.267444 1.25674 0 0 1.00003 0.00100972
79 30.8091 0.48213 0.474574 0 0 1.00003 0.000967469
80 30.1957 1.19454 0.771266 0 0 1.00003 0.000951446
918 30.9666 0.969712 1.39084 0 0 1.00003 0.000996614
82 1.21934 2.43876 0.125864 0 0 1.00002 0.00106631
84 0.244191 2.38138 0.810085 0 0 1.00003 0.0010594
163 1.39937 3.23752 0.948296 0 0 1.00002 0.00111523
922 1.25097 2.3656 1.59243 0 0 1.00002 0.00108885
1001 0.49982 3.03425 1.54957 0 0 1.00003 0.00111409
161 0.443767 3.09987 0.131147 0 0 1.00003 0.00109071
88 2.01907 2.42203 0.786838 0 0 1.00002 0.00106536
167 2.76366 3.29031 0.862756 0 0 1.00002 0.00109307
926 2.77651 2.24138 1.54312 0 0 1.00002 0.0010571
86 2.82637 2.39094 0.0557986 0 0 1.00002 0.00103776
1009 3.36595 3.43578 1.65878 0 0 1.00002 0.00110174
92 3.48097 2.56683 0.785774 0 0 1.00002 0.00102615
91 4.09802 1.84804 0.716592 0 0 1.00002 0.000963061
96 4.99431 2.58602 0.823224 0 0 1.00001 0.000937328
171 4.29515 3.33433 0.755937 0 0 1.00002 0.0010219
930 4.23063 2.65511 1.59107 0 0 1.00002 0.00101049
94 5.72273 2.46061 0.13632 0 0 1.00001 0.000864641
100 6.61735 2.19846 0.781817 0 0 1.00001 0.000779496
175 5.72664 3.21764 0.962596 0 0 1.00001 0.000913935
934 5.93204 2.21362 1.50756 0 0 1.00001 0.000861705
1017 6.58845 3.09023 1.5682 0 0 1.00001 0.000844889
177 6.7085 2.95257 0.135424 0 0 1.00001 0.000798095
98 7.49784 2.24433 0.141716 0 0 1.00001 0.000685883
104 8.11786 2.22066 0.941081 0 0 1.00001 0.000626689
179 7.4508 3.09142 0.941824 0 0 1.00001 0.000741228
938 7.34823 2.07858 1.58322 0 0 1.00001 0.000720814
1021 8.22317 3.02697 1.66916 0 0 1.00001 0.000673721
181 8.30296 2.99504 0.04122 0 0 1.00001 0.000631679
102 8.9239 2.10632 0.255698 0 0 1.00001 0.000522315
108 9.77768 2.04169 1.11959 0 0 1 0.000434528
183 8.9481 2.99739 0.940122 0 0 1.00001 0.000568671
942 9.04945 2.241 1.72189 0 0 1.00001 0.000542817
185 9.57152 2.93006 0.215258 0 0 1.00001 0.000482618
106 10.2784 2.13076 0.216216 0 0 1 0.000366671
112 11.1388 1.84174 0.779163 0 0 1 0.000266261
187 10.6128 2.83025 0.931167 0 0 1 0.000366052
1029 11.422 2.8527 1.59226 0 0 1 0.00029589
116 12.6317 1.95327 0.600462 0 0 1 0.000112904
191 11.8978 2.66117 0.748806 0 0 1 0.000214077
950 11.8942 1.93449 1.47869 0 0 1 0.000201678
1033 12.8036 3.03685 1.70222 0 0 1 0.000165481
195 13.1384 3.04364 0.852421 0 0 1 0.00011227
954 13.3299 2.0028 1.49057 0 0 1 6.78959e-05
114 13.3633 2.30752 0.0592335 0 0 1 5.59414e-05
120 13.9645 2.45575 0.930312 0 0 1 2.19507e-05
1037 13.9738 3.39994 1.56613 0 0 1 7.91524e-05
199 14.6366 3.44707 0.886478 0 0 1 1.87469e-05
958 14.725 2.30678 1.4498 0 0 1 -2.28292e-05
118 14.7783 2.52006 0.138539 0 0 1 -3.68944e-05
197 14.1006 3.23624 0.036686 0 0 1 3.63164e-05
124 15.6304 2.44441 0.697473 0 0 1.00001 -7.51821e-05
203 16.2379 3.20155 0.668199 0 0 1.00001 -6.49016e-05
962 16.2404 2.47893 1.52669 0 0 1.00001 -7.71985e-05
1041 15.3093 3.26339 1.50772 0 0 1 -1.18826e-05
201 15.5039 3.26381 0.0229022 0 0 1 -4.27171e-05
128 16.9982 2.35016 0.683 0 0 1.00001 -0.000107364
207 17.8797 2.92033 0.699931 0 0 1.00001 -8.08606e-05
966 17.9541 2.43098 1.57958 0 0 1.00001 -8.10175e-05
1045 17.0241 3.11181 1.49567 0 0 1.00001 -6.34659e-05
132 18.8327 2.34852 1.0088 0 0 1.00001 -6.93727e-05
211 19.6505 3.22288 1.2695 0 0 1.00002 1.03796e-05
209 18.8249 2.98476 0.193434 0 0 1.00001 -5.50346e-05
130 19.5369 2.32719 0.102451 0 0 1.00001 -4.34297e-05
973 20.2818 1.77414 1.71587 0 0 1.00002 1.11137e-05
134 21.127 2.40001 0.453885 0 0 1.00002 7.56979e-05
136 20.1515 2.45123 1.10589 0 0 1.00002 9.40325e-06
215 21.2837 3.27188 1.37876 0 0 1.00002 0.000140594
213 20.3802 2.97631 0.331178 0 0 1.00002 3.65117e-05
139 22.8701 2.04951 1.49664 0 0 1.00002 0.000252464
138 22.9703 2.58032 0.72795 0 0 1.00002 0.000269227
140 22.0785 2.47807 1.22727 0 0 1.00002 0.000181017
217 21.9715 3.176 0.593994 0 0 1.00002 0.000188542
16179 22.6755 3.37312 0.072349 0 0 1.00002 0.000266486
141 23.7543 1.79243 0.618142 0 0 1.00002 0.000331386
143 24.4529 1.96916 1.59406 0 0 1.00003 0.000436617
142 24.3663 2.65953 0.767139 0 0 1.00003 0.000433956
144 23.7019 2.87549 1.52078 0 0 1.00003 0.000382566
223 24.5042 3.48079 1.54033 0 0 1.00003 0.000507648
16108 24.9909 2.81956 0.0144188 0 0 1.00003 0.00050985
149 26.6074 1.77996 0.507335 0 0 1.00003 0.00065711
145 25.1679 1.83976 0.506436 0 0 1.00003 0.000495557
146 25.8418 2.58992 0.699691 0 0 1.00003 0.000602527
148 25.1988 2.53512 1.50964 0 0 1.00003 0.000541313
227 25.7744 3.46926 1.49844 0 0 1.00003 0.000656963
152 26.5977 2.54208 1.51654 0 0 1.00003 0.000703206
229 26.2307 3.47515 0.591178 0 0 1.00003 0.000690144
151 27.5771 1.97176 1.22654 0 0 1.00003 0.000776079
153 28.3333 2.07853 0.341653 0 0 1.00003 0.000836772
150 27.1572 2.67323 0.636963 0 0 1.00003 0.000750518
231 27.2795 3.33053 1.40376 0 0 1.00003 0.000813214
156 28.3394 2.74036 1.19529 0 0 1.00003 0.000877717
233 28.0662 3.20279 0.327797 0 0 1.00003 0.000861382
997 30.0612 1.80112 1.70093 0 0 1.00003 0.000981136
155 29.5405 2.03079 0.878642 0 0 1.00003 0.000935736
154 29.2887 2.65455 0.286575 0 0 1.00003 0.000936425
235 29.3519 3.24674 1.17238 0 0 1.00003 0.000985266
159 31.0163 1.97731 0.922058 0 0 1.00003 0.00101647
160 30.2856 2.7022 0.998208 0 0 1.00003 0.0010123
239 31.1376 3.33841 0.972344 0 0 1.00003 0.0010848
998 31.0961 2.68802 1.72373 0 0 1.00003 0.0010702
237 30.221 3.24053 0.141098 0 0 1.00003 0.00102575
157 30.5098 1.9018 0.0298082 0 0 1.00003 0.000981383
158 31.2501 2.65651 0.0761259 0 0 1.00003 0.00104406
164 0.412348 3.78149 0.919681 0 0 1.00003 0.0011388
241 0.264848 4.59711 0.477001 0 0 1.00003 0.00118529
243 1.25887 4.67231 0.988993 0 0 1.00002 0.0012106
244 0.220555 5.26396 1.27508 0 0 1.00003 0.00125472
162 1.15891 3.86285 0.0664963 0 0 1.00002 0.00114166
168 1.96353 4.05085 0.850776 0 0 1.00002 0.00115874
247 2.65813 4.87002 1.13686 0 0 1.00002 0.0012116
166 2.76207 4.15625 0.205648 0 0 1.00002 0.00113932
245 2.01935 4.97314 0.28192 0 0 1.00002 0.00121739
249 3.5207 4.87828 0.164059 0 0 1.00002 0.00116274
172 3.59741 4.09338 0.891953 0 0 1.00002 0.00111085
176 5.00442 4.02637 1.18781 0 0 1.00001 0.00102859
251 4.15844 4.90232 1.15666 0 0 1.00002 0.00114934
170 4.35624 4.20231 0.148595 0 0 1.00002 0.00106755
253 5.10322 4.76755 0.341382 0 0 1.00001 0.00105966
174 5.84997 3.96393 0.197917 0 0 1.00001 0.000938642
180 6.56148 3.79534 0.784024 0 0 1.00001 0.000870139
255 5.77178 4.76271 1.03913 0 0 1.00001 0.00101804
1097 6.73574 4.54766 1.6641 0 0 1.00001 0.000935055
260 6.75111 5.16977 0.893737 0 0 1.00001 0.000957952
184 8.23812 3.92131 0.711689 0 0 1.00001 0.000700273
259 7.46377 4.49469 0.556185 0 0 1.00001 0.000822993
1018 7.45521 3.90083 1.51557 0 0 1.00001 0.000808071
1101 8.24588 4.64826 1.50618 0 0 1 0.000774729
188 9.90365 3.60856 0.897287 0 0 1 0.000490525
263 9.10429 4.6024 0.833552 0 0 1 0.000651154
265 9.87169 4.54082 0.129983 0 0 1 0.000545245
1022 9.09961 3.79588 1.51752 0 0 1 0.000614627
1105 9.88263 4.38439 1.67805 0 0 1 0.000571352
182 9.00936 3.89881 0.0646284 0 0 1 0.000603633
192 11.3877 3.67147 0.791109 0 0 1 0.000321116
267 10.5866 4.69964 0.91956 0 0 1 0.000484445
269 11.3693 4.72689 0.232882 0 0 1 0.000385227
1026 10.6992 3.5981 1.6074 0 0 1 0.000417549
1109 11.349 4.40935 1.72529 0 0 1 0.000403034
186 10.5784 3.87743 0.178551 0 0 1 0.00041735
196 12.4756 3.60459 0.822808 0 0 1 0.000203577
271 12.16 4.5801 1.01191 0 0 1 0.00030171
1113 12.7068 5.02459 1.70753 0 0 0.999999 0.000304823
275 13.1816 4.70783 0.80884 0 0 1 0.000204397
273 12.6029 4.64536 0.0637412 0 0 1 0.000246821
200 13.9368 4.14387 0.70272 0 0 1 0.000102364
1034 13.4371 4.24072 1.60652 0 0 1 0.000174906
1117 14.1487 5.13663 1.53398 0 0 1 0.000176592
279 14.8801 5.02523 0.817051 0 0 1 9.62352e-05
1038 14.9052 4.4263 1.60214 0 0 1 7.89164e-05
277 14.0852 4.92163 0.0653493 0 0 1 0.000133593
198 14.8976 4.20284 0.100453 0 0 1 3.49278e-05
204 15.6011 4.07184 0.927647 0 0 1 2.92824e-06
281 15.81 4.77885 0.188073 0 0 1 2.66902e-05
283 16.5261 4.58011 0.901513 0 0 1.00001 4.70106e-06
1042 16.2525 3.96065 1.69162 0 0 1.00001 -2.93886e-06
1121 15.7472 5.05637 1.64677 0 0 1 8.23897e-05
208 17.2026 3.82761 0.810309 0 0 1.00001 -4.4894e-05
287 18.0217 4.47558 1.09377 0 0 1.00001 4.71542e-06
1046 17.8886 3.62905 1.65149 0 0 1.00001 -2.83997e-05
285 17.3863 4.56943 0.0169059 0 0 1.00001 -1.19753e-05
206 18.0719 3.84246 0.0611526 0 0 1.00001 -4.12281e-05
212 18.8172 3.69233 0.94757 0 0 1.00001 -1.57537e-05
289 18.7658 4.59217 0.359738 0 0 1.00001 2.19948e-05
291 19.6393 4.65223 1.07761 0 0 1.00002 8.12592e-05
292 18.7272 5.25672 1.19327 0 0 1.00001 7.81234e-05
210 19.5473 3.74742 0.228262 0 0 1.00001 1.46176e-05
216 20.3985 3.79747 1.22387 0 0 1.00002 8.80526e-05
295 20.8532 4.68668 1.37939 0 0 1.00002 0.000182349
297 21.5617 4.91651 0.799179 0 0 1.00002 0.000247739
214 21.0547 3.90515 0.507783 0 0 1.00002 0.00013506
293 20.095 4.75871 0.34692 0 0 1.00002 0.000106414
219 22.822 3.59967 1.40495 0 0 1.00002 0.000315243
220 21.9259 4.10084 1.29661 0 0 1.00002 0.000244822
299 22.4713 5.13446 1.25774 0 0 1.00003 0.000368492
218 22.6118 4.31263 0.506605 0 0 1.00002 0.000315069
221 23.5874 3.60728 0.772946 0 0 1.00003 0.000388653
222 24.3664 4.28675 0.617612 0 0 1.00003 0.00051783
224 23.4836 4.51037 1.31804 0 0 1.00003 0.000443927
305 24.8992 5.21432 0.558237 0 0 1.00003 0.000646534
301 23.5699 5.02515 0.525411 0 0 1.00003 0.000470468
228 25.0567 4.46043 1.60159 0 0 1.00003 0.000639265
303 24.4005 5.24636 1.41402 0 0 1.00003 0.000610047
225 25.1045 3.64619 0.790768 0 0 1.00003 0.000571454
307 25.7551 5.09949 1.32737 0 0 1.00003 0.000758954
232 26.4277 4.25725 1.35774 0 0 1.00003 0.000777202
309 26.5775 4.93862 0.633436 0 0 1.00003 0.000823792
226 25.5832 4.36761 0.386176 0 0 1.00003 0.000665423
311 27.4191 4.83772 1.39036 0 0 1.00003 0.000925904
236 28.0515 3.95036 1.09589 0 0 1.00003 0.000915838
313 28.3757 4.71079 0.698753 0 0 1.00003 0.000990331
230 27.1432 4.01343 0.568178 0 0 1.00003 0.00082009
234 29.0304 3.75464 0.479035 0 0 1.00003 0.000976932
315 29.1934 4.50074 1.31859 0 0 1.00003 0.00105762
314 29.5037 5.28901 0.809329 0 0 1.00003 0.00112748
240 30.1072 4.04921 1.02239 0 0 1.00003 0.00107985
238 31.1448 3.97257 0.365163 0 0 1.00003 0.00111575
317 30.3231 4.67112 0.480429 0 0 1.00003 0.00112719
319 31.1008 4.59456 1.39787 0 0 1.00003 0.00117953
242 1.04133 5.53127 0.462067 0 0 1.00002 0.00126906
248 1.66611 5.51772 1.38065 0 0 1.00002 0.00129192
323 0.937165 6.21368 1.27745 0 0 1.00003 0.00134855
324 0.399611 6.92113 1.50263 0 0 1.00003 0.00141695
322 1.11734 6.94455 0.571138 0 0 1.00002 0.00139857
321 0.114679 5.99445 0.447355 0 0 1.00003 0.00129419
328 1.85105 7.03634 1.24584 0 0 1.00002 0.00142466
325 2.02491 6.20973 0.516223 0 0 1.00002 0.00132359
252 3.23573 5.64103 1.30576 0 0 1.00002 0.00126222
327 2.40424 6.17065 1.4179 0 0 1.00002 0.00133893
246 2.80748 5.62255 0.27548 0 0 1.00002 0.00125179
332 3.38816 6.98708 1.14439 0 0 1.00002 0.00137643
329 3.52258 6.29873 0.499914 0 0 1.00002 0.00128586
250 4.30184 5.48744 0.329273 0 0 1.00002 0.00117157
331 4.25064 6.12113 1.24066 0 0 1.00002 0.001253
333 4.9365 6.26519 0.336268 0 0 1.00001 0.00119876
336 4.89229 6.83825 1.17454 0 0 1.00001 0.00127716
330 4.12789 7.04658 0.227861 0 0 1.00002 0.00132382
256 5.03953 5.46066 1.32576 0 0 1.00001 0.00114403
254 5.86878 5.44942 0.304633 0 0 1.00001 0.00105171
335 5.7883 6.27486 0.97514 0 0 1.00001 0.00114842
1177 6.54841 6.02657 1.62042 0 0 1.00001 0.0010818
340 6.52745 6.9127 1.01975 0 0 1.00001 0.00114329
337 6.46842 6.08712 0.155688 0 0 1.00001 0.0010516
264 8.25965 5.35502 0.707008 0 0 1 0.000807163
339 7.39537 6.19865 0.767813 0 0 1.00001 0.000979562
1098 7.45921 5.45739 1.51494 0 0 1.00001 0.000931329
1181 8.29198 6.15753 1.51886 0 0 1 0.000905192
344 8.07827 6.90172 0.742394 0 0 1 0.000968892
1178 7.3635 6.90726 1.62503 0 0 1 0.00108942
258 7.39201 5.39589 0.0461791 0 0 1.00001 0.000897412
268 9.78518 5.36192 0.806258 0 0 1 0.000629269
343 8.92199 6.2337 0.750486 0 0 1 0.000809192
1102 9.08631 5.37101 1.61945 0 0 1 0.000745334
1185 9.76351 6.23526 1.49524 0 0 1 0.000736516
1182 9.13543 7.00313 1.49125 0 0 0.999999 0.000888553
345 9.78366 6.27772 0.0980731 0 0 1 0.000698979
262 9.0304 5.50853 0.0171689 0 0 1 0.000721626
272 11.3766 5.31091 1.00208 0 0 0.999999 0.000444202
347 10.5906 6.0657 0.978571 0 0 0.999999 0.000598131
349 11.3054 6.41147 0.0801756 0 0 0.999998 0.000528752
346 10.5305 6.98938 0.15692 0 0 0.999998 0.000672598
1186 10.4842 6.97635 1.52465 0 0 0.999997 0.00072532
270 11.9744 5.66064 0.187058 0 0 0.999999 0.000388052
276 12.6422 5.84821 0.87392 0 0 0.999999 0.000346217
351 11.7601 6.24873 1.06964 0 0 0.999998 0.000480786
1114 13.2835 5.89667 1.57649 0 0 0.999998 0.000313313
355 13.3117 6.61044 0.82276 0 0 0.999998 0.000341045
274 13.2754 5.56568 0.0442978 0 0 1 0.000247442
280 14.0102 5.7386 0.781588 0 0 1 0.000208139
1197 14.2743 6.67406 1.42341 0 0 0.999999 0.000289103
357 14.0787 6.40771 0.0404044 0 0 0.999999 0.000244369
278 14.9626 5.65403 0.0371093 0 0 1 0.000125116
359 14.9868 6.46563 0.812738 0 0 1 0.000197709
284 15.7654 5.7437 0.959344 0 0 1 0.000106415
363 16.4258 6.4535 1.14424 0 0 1 0.000146083
1118 15.0479 5.88876 1.70796 0 0 1 0.000184089
282 16.553 5.41858 0.276622 0 0 1.00001 4.80105e-05
361 15.6129 6.34811 0.0419748 0 0 1 0.000142679
286 17.7641 5.2927 0.539731 0 0 1.00001 4.00321e-05
288 17.0453 5.41967 1.24662 0 0 1.00001 6.26992e-05
365 16.999 6.27043 0.41109 0 0 1.00001 0.000103709
367 17.602 6.23529 1.37951 0 0 1.00001 0.000129386
372 18.2169 7.03445 1.12872 0 0 1.00001 0.000193761
369 18.3144 6.21291 0.608279 0 0 1.00001 0.00011681
290 19.3814 5.73123 0.61516 0 0 1.00002 0.000127271
371 19.2789 6.52893 1.33571 0 0 1.00002 0.000202919
373 19.956 6.71728 0.603262 0 0 1.00002 0.000236659
294 20.7219 5.73968 0.644656 0 0 1.00002 0.000224058
296 20.1523 5.57778 1.38126 0 0 1.00002 0.000187192
375 20.7532 6.57191 1.28599 0 0 1.00002 0.000310307
377 21.6481 6.61989 0.65716 0 0 1.00002 0.00037824
300 21.6495 5.83538 1.36413 0 0 1.00002 0.000338913
16260 21.6784 5.69372 0.0520012 0 0 1.00002 0.000304009
298 22.6793 5.78673 0.660652 0 0 1.00003 0.000425205
379 22.6428 6.64438 1.18646 0 0 1.00003 0.000506811
381 23.3735 6.72955 0.263568 0 0 1.00003 0.00057473
304 23.507 5.8397 1.27714 0 0 1.00003 0.000543853
383 24.3669 6.5162 1.14133 0 0 1.00003 0.000702201
302 24.1812 5.95995 0.418434 0 0 1.00003 0.000612518
306 25.7519 5.8205 0.68759 0 0 1.00003 0.000798267
308 25.1713 5.99292 1.6495 0 0 1.00003 0.000776007
385 25.2223 6.69168 0.485513 0 0 1.00003 0.000803119
387 25.9082 6.55124 1.38566 0 0 1.00003 0.000904111
312 26.7773 5.80756 1.45523 0 0 1.00003 0.000939749
310 27.594 5.51258 0.71134 0 0 1.00003 0.000978733
389 26.8387 6.32715 0.639006 0 0 1.00003 0.000965256
391 27.8074 6.43395 1.34981 0 0 1.00003 0.00109848
390 27.8217 6.97143 0.520448 0 0 1.00003 0.00112363
316 28.4752 5.49437 1.46729 0 0 1.00003 0.00108395
395 29.5633 6.16353 1.31086 0 0 1.00003 0.00122202
394 29.7112 6.88778 0.503629 0 0 1.00003 0.00127578
393 28.5845 6.1794 0.63501 0 0 1.00003 0.00112713
16355 29.4968 6.12447 0.0757891 0 0 1.00003 0.001187
16276 28.5891 5.36664 0.0536257 0 0 1.00003 0.00105366
318 31.0928 5.35461 0.591975 0 0 1.00003 0.00121822
320 30.3448 5.44107 1.45433 0 0 1.00003 0.00121263
397 30.5252 6.16867 0.642712 0 0 1.00003 0.00126185
399 31.3551 6.14357 1.37909 0 0 1.00003 0.00131746
398 31.3469 6.94201 0.603573 0 0 1.00003 0.00136794
401 0.414669 7.63276 0.657591 0 0 1.00003 0.00145614
402 1.00017 8.46938 0.613327 0 0 1.00003 0.00154409
403 1.26695 7.86104 1.49722 0 0 1.00002 0.0015203
404 0.519504 8.55531 1.46685 0 0 1.00003 0.00157953
405 1.74729 7.77197 0.377093 0 0 1.00002 0.00147224
408 1.89161 8.62931 1.46909 0 0 1.00002 0.00159315
326 2.62637 7.16046 0.475814 0 0 1.00002 0.0014002
406 2.35759 8.63997 0.402331 0 0 1.00002 0.00154845
407 2.54767 7.82599 1.28704 0 0 1.00002 0.00149251
412 3.17375 8.53815 0.947822 0 0 1.00002 0.00153155
409 3.38512 7.78823 0.331447 0 0 1.00002 0.00143207
410 3.96021 8.48617 0.0814264 0 0 1.00002 0.00147269
411 4.11812 7.68636 1.25246 0 0 1.00001 0.00141316
416 4.83606 8.29641 0.942019 0 0 1.00001 0.0014194
413 4.80043 7.67305 0.246616 0 0 1.00001 0.00134137
334 5.65557 7.08633 0.152521 0 0 1.00001 0.00121997
414 5.98617 8.38905 0.176648 0 0 1.00001 0.0013213
415 5.602 7.62327 1.04277 0 0 1.00001 0.00129764
417 6.58856 7.58533 0.172758 0 0 1.00001 0.00118487
420 6.50482 8.27201 1.06445 0 0 1.00001 0.00128454
419 7.37301 7.81356 0.763094 0 0 1 0.00114017
424 8.35188 8.36609 0.890469 0 0 0.999999 0.00109341
1258 7.37162 8.22734 1.7326 0 0 1 0.00123417
1261 8.12558 7.53877 1.59025 0 0 1 0.00106931
421 8.06809 7.65236 0.0292569 0 0 1 0.00103382
348 9.86721 7.26914 0.741175 0 0 0.999998 0.000794329
423 8.96295 7.6657 0.677435 0 0 0.999999 0.000940717
428 9.77162 8.6694 0.71267 0 0 0.999996 0.00094547
1262 9.14803 8.7516 1.48116 0 0 0.999996 0.00107435
1265 9.68705 7.94048 1.6332 0 0 0.999996 0.000931493
352 11.3095 7.18729 0.825872 0 0 0.999996 0.000613953
427 10.591 7.99192 0.863224 0 0 0.999995 0.000781502
1266 10.6112 8.75824 1.46258 0 0 0.999994 0.000892827
1269 11.405 7.85757 1.63436 0 0 0.999995 0.000711719
429 11.2301 8.16457 0.0461095 0 0 0.999996 0.000699435
356 12.6782 7.3231 0.578257 0 0 0.999997 0.000462868
431 12.163 8.27354 0.606614 0 0 0.999994 0.00061168
1190 12.0539 7.20102 1.40434 0 0 0.999996 0.000554668
1270 12.0795 8.72612 1.52462 0 0 0.999993 0.000714983
1273 12.8324 8.03754 1.50321 0 0 0.999994 0.000557859
350 11.8828 7.43031 0.000432236 0 0 0.999996 0.000552176
360 14.2798 7.37691 0.597138 0 0 0.999998 0.000317963
435 13.5762 8.12493 0.477015 0 0 0.999996 0.000443388
1194 13.4243 7.37146 1.36458 0 0 0.999996 0.000423446
1277 14.2036 8.20477 1.37193 0 0 0.999996 0.000433566
439 15.0174 8.30902 0.873798 0 0 0.999998 0.000357289
362 16.37 7.18522 0.280937 0 0 1 0.000183636
364 15.5697 7.31948 0.923829 0 0 1 0.000239956
443 16.2021 8.16327 1.11469 0 0 1 0.000296851
1198 15.0865 7.53859 1.64308 0 0 0.999999 0.000325191
441 15.8028 8.31876 0.155218 0 0 1 0.000297216
368 16.9155 7.35557 1.11633 0 0 1.00001 0.000210627
445 17.0039 8.09985 0.338252 0 0 1.00001 0.000248453
447 17.6492 8.0114 1.02557 0 0 1.00001 0.000261538
366 17.7567 7.15464 0.216156 0 0 1.00001 0.000171208
370 18.9581 7.31126 0.635623 0 0 1.00001 0.000226091
451 18.8815 8.12606 1.17289 0 0 1.00001 0.000311616
376 19.8363 7.62077 1.30777 0 0 1.00002 0.000327539
453 19.7671 8.10601 0.356226 0 0 1.00002 0.000331683
449 18.3984 8.16901 0.173063 0 0 1.00001 0.000266779
374 20.6755 7.42044 0.660912 0 0 1.00002 0.000351141
455 20.6288 8.39635 1.01763 0 0 1.00002 0.000442712
380 21.537 7.62502 1.12842 0 0 1.00002 0.000467125
457 21.6096 8.29741 0.254651 0 0 1.00003 0.000506696
459 22.6071 8.12772 0.997745 0 0 1.00003 0.00062522
1218 22.4319 7.44805 1.72595 0 0 1.00003 0.000581829
378 22.3453 7.43596 0.378832 0 0 1.00003 0.000515137
384 23.4782 7.27225 1.03463 0 0 1.00003 0.000653543
461 23.5246 8.02585 0.375565 0 0 1.00003 0.000709126
463 24.4021 8.04657 0.979042 0 0 1.00003 0.000837951
1302 24.3173 8.66768 1.65461 0 0 1.00004 0.00092765
382 24.3872 7.27485 0.265234 0 0 1.00003 0.000746274
462 24.374 8.77199 0.203597 0 0 1.00003 0.000880952
388 25.1873 7.34403 1.23065 0 0 1.00003 0.000882643
467 26.1142 7.95974 0.972146 0 0 1.00004 0.0010417
1306 26.1217 8.57758 1.72346 0 0 1.00004 0.00114878
386 26.1749 7.2298 0.363039 0 0 1.00003 0.000963406
465 25.303 8.0781 0.30315 0 0 1.00003 0.000935425
466 26.3712 8.54024 0.0880937 0 0 1.00004 0.00110731
468 25.3677 8.80698 0.987384 0 0 1.00004 0.00103416
392 26.8858 7.07079 1.32127 0 0 1.00003 0.00106146
470 28.0925 8.46843 0.417192 0 0 1.00004 0.00129028
471 27.9219 7.79726 1.19619 0 0 1.00004 0.00123404
472 27.0945 8.61296 1.00781 0 0 1.00004 0.00122034
469 27.1035 7.74168 0.426505 0 0 1.00003 0.00111749
396 28.7769 7.07962 1.21639 0 0 1.00003 0.00124275
474 29.7428 8.33838 0.537873 0 0 1.00003 0.00141611
475 29.6398 7.65428 1.2666 0 0 1.00003 0.00136476
476 28.92 8.52626 1.17152 0 0 1.00004 0.00139325
473 28.8287 7.69244 0.410841 0 0 1.00003 0.00128281
400 30.469 7.07339 1.17311 0 0 1.00003 0.00135672
479 31.4037 7.80994 1.29486 0 0 1.00003 0.00147465
480 30.5883 8.473 1.17819 0 0 1.00003 0.00149927
477 30.7866 7.85856 0.379759 0 0 1.00003 0.00142671
478 31.5874 8.60958 0.390032 0 0 1.00003 0.00153058
482 1.3009 10.2849 0.271012 0 0 1.00002 0.00171132
483 1.19115 9.37193 1.20316 0 0 1.00003 0.00165549
484 0.433883 9.92873 0.899182 0 0 1.00003 0.00168524
481 0.537811 9.33606 0.123778 0 0 1.00003 0.00161546
1322 0.997349 10.1274 1.7531 0 0 1.00003 0.00176239
485 1.92293 9.46038 0.450049 0 0 1.00002 0.00163658
488 2.00557 10.3719 0.974275 0 0 1.00002 0.00173662
486 2.76069 10.2898 0.0807113 0 0 1.00002 0.00169183
487 2.54178 9.45919 1.22703 0 0 1.00002 0.00165334
1326 2.94532 10.2501 1.68084 0 0 1.00002 0.00174927
489 3.23343 9.38488 0.0874179 0 0 1.00002 0.00159342
1329 3.37269 9.26206 1.67585 0 0 1.00002 0.00163588
492 3.54338 10.0589 0.74658 0 0 1.00002 0.00165831
491 4.08346 9.13663 0.8673 0 0 1.00001 0.00154773
493 4.71566 9.21774 0.00703783 0 0 1.00001 0.0015005
496 4.752 10.0104 0.579103 0 0 1.00001 0.00158528
1330 4.28225 9.99772 1.63075 0 0 1.00001 0.00166592
1333 4.81868 9.09982 1.66803 0 0 1.00001 0.00154522
495 5.4593 8.98653 0.670832 0 0 1.00001 0.00143579
500 6.3603 9.83646 0.527317 0 0 1 0.00144014
1334 5.4594 9.86975 1.18998 0 0 1.00001 0.00154647
1337 6.27351 9.10156 1.28273 0 0 1.00001 0.00140632
1417 6.36914 10.5541 1.21435 0 0 1 0.00154071
499 7.26274 8.92681 0.727887 0 0 1 0.00126631
501 8.17467 9.09591 0.0858528 0 0 0.999999 0.00116879
504 8.05039 9.9739 0.591181 0 0 0.999998 0.00128027
1338 7.28126 9.78539 1.22004 0 0 1 0.00137647
1341 8.12998 9.21665 1.4291 0 0 0.999998 0.00124018
503 9.00421 9.50241 0.745274 0 0 0.999995 0.00112851
508 9.69897 10.3822 0.679175 0 0 0.999993 0.00112744
1342 8.82943 10.3101 1.44302 0 0 0.999994 0.00127502
1345 9.87728 9.63771 1.44754 0 0 0.999993 0.00107685
432 11.3771 8.89295 0.749201 0 0 0.999994 0.000770315
426 10.4295 8.93188 0.0413281 0 0 0.999995 0.000875611
507 10.4955 9.72878 0.673965 0 0 0.999993 0.000963088
1346 10.6681 10.2214 1.67411 0 0 0.99999 0.00105944
1349 11.3226 9.67821 1.34868 0 0 0.999992 0.000893314
436 12.9751 8.99636 0.801125 0 0 0.999994 0.000597912
511 12.1017 9.85284 0.703592 0 0 0.999991 0.000776558
516 12.8065 10.5107 0.979469 0 0 0.999991 0.000769725
1353 12.5391 9.65704 1.64384 0 0 0.999991 0.000770815
1274 13.6546 8.87909 1.59156 0 0 0.999993 0.00056716
440 14.4209 9.2173 0.770901 0 0 0.999996 0.00048028
515 13.503 9.71655 0.852213 0 0 0.999993 0.000614421
1354 13.4774 10.446 1.73713 0 0 0.99999 0.000756659
517 14.2324 10.1718 0.221445 0 0 0.999994 0.00056457
444 15.8454 9.16585 1.14189 0 0 1 0.000404042
519 15.0856 9.87621 1.02255 0 0 0.999997 0.000503644
521 15.6388 10.1887 0.254019 0 0 0.999999 0.000466657
523 16.4538 9.96036 0.965524 0 0 1 0.000441114
442 16.4514 9.03586 0.263102 0 0 1 0.000336763
438 15.244 9.21846 0.102176 0 0 0.999998 0.000404158
452 18.2522 8.88146 0.939042 0 0 1.00001 0.000343705
448 17.0399 9.06323 1.12787 0 0 1.00001 0.000360317
525 17.1038 10.021 0.207022 0 0 1.00001 0.000406667
527 17.7285 9.85817 1.06884 0 0 1.00001 0.000426188
446 17.7123 9.09738 0.11837 0 0 1.00001 0.000329272
456 19.7952 8.92976 1.05133 0 0 1.00002 0.00042864
529 18.5568 9.71634 0.299194 0 0 1.00001 0.000402888
531 19.4775 9.87307 0.844629 0 0 1.00002 0.000478101
532 18.6879 10.4384 1.1373 0 0 1.00001 0.000504029
1369 18.6182 9.5679 1.69881 0 0 1.00001 0.000469613
450 19.205 8.9382 0.209751 0 0 1.00002 0.000364473
533 19.9698 9.7585 0.0714249 0 0 1.00002 0.000482105
535 20.9293 9.77633 0.743534 0 0 1.00002 0.0005813
1373 20.2349 9.63378 1.65228 0 0 1.00002 0.000567903
454 20.7801 9.04561 0.203188 0 0 1.00002 0.000489998
460 21.6376 8.99718 0.964809 0 0 1.00003 0.0005928
1374 21.0933 10.0754 1.76057 0 0 1.00003 0.000695383
1298 22.4239 8.84587 1.5646 0 0 1.00003 0.000702927
539 22.8689 9.6512 0.792501 0 0 1.00003 0.000786694
540 22.1287 10.4885 0.855428 0 0 1.00003 0.000774384
1377 21.9437 9.75093 1.51886 0 0 1.00003 0.000731909
1378 23.0866 10.4749 1.42468 0 0 1.00004 0.000929343
458 22.7845 8.83055 0.197847 0 0 1.00003 0.000685936
537 21.9888 9.77173 0.209019 0 0 1.00003 0.00067649
464 23.4793 8.9292 0.956974 0 0 1.00003 0.000802843
543 24.5896 9.52738 0.752229 0 0 1.00004 0.000994878
1381 23.7541 9.56736 1.53927 0 0 1.00004 0.000939574
1382 24.4658 10.3102 1.43573 0 0 1.00004 0.00109107
544 23.6698 10.5073 0.614153 0 0 1.00004 0.000957029
542 24.5232 10.2902 0.104946 0 0 1.00004 0.00103615
1385 25.1557 9.48242 1.63575 0 0 1.00004 0.0011147
547 26.3331 9.35143 0.866185 0 0 1.00004 0.0011973
548 25.4775 10.2208 0.809301 0 0 1.00004 0.00117139