ITEM: TIMESTEP
1500
ITEM: NUMBER OF ATOMS
32000
ITEM: BOX BOUNDS pp pp pp
0.0000000000000000e+00 3.1748021039364001e+01
0.0000000000000000e+00 3.1748021039364001e+01
0.0000000000000000e+00 3.1748021039364001e+01
ITEM: ATOMS id x y z c_phase c_nbond c_rho vx
4 0.116514 1.10259 0.464342 0 0 0.999997 0.000115588
83 0.974297 1.66854 0.778001 0 0 0.999945 0.000125966
842 0.714834 0.793572 1.41296 0 0 0.999961 0.000121766
921 0.00357317 1.60272 1.37438 0 0 1 0.000132542
3 0.730056 0.0633825 0.616034 0 0 0.999963 0.000109561
8 1.71033 0.809027 1.01553 0 0 0.999906 0.000116009
85 1.80078 1.47475 0.221077 0 0 0.999899 0.000117795
925 1.8204 1.66057 1.76132 0 0 0.999887 0.000139232
6 2.5211 0.749139 0.203823 0 0 0.999866 0.000108532
7 2.59166 0.053883 1.03732 0 0 0.999861 0.000110695
87 2.64941 1.54109 0.882895 0 0 0.999849 0.000121181
846 2.6685 0.815566 1.74578 0 0 0.999846 0.00012402
12 3.43403 0.933758 0.956428 0 0 0.999815 0.000111339
849 3.49942 0.092577 1.70583 0 0 0.999806 0.000115924
929 3.60675 1.70812 1.72008 0 0 0.999784 0.00013046
10 4.10594 0.858396 0.325329 0 0 0.999789 0.000102347
16 4.96179 0.567921 1.17476 0 0 0.999749 9.68251e-05
93 4.91968 1.60003 0.383559 0 0 0.999743 0.000101935
850 4.34738 0.941635 1.62901 0 0 0.999762 0.000112367
9 3.47627 0.111432 0.171043 0 0 0.999822 0.000102039
14 5.64757 0.6457 0.325873 0 0 0.999733 8.2879e-05
95 5.88431 1.31066 0.938176 0 0 0.99971 8.65946e-05
97 6.57493 1.39123 0.218405 0 0 0.999697 6.96699e-05
854 5.78392 0.460721 1.69917 0 0 0.99971 8.89345e-05
933 5.03142 1.72432 1.43619 0 0 0.999723 0.000109799
20 6.71394 0.390381 0.865405 0 0 0.999702 6.4956e-05
937 6.6912 1.00979 1.69399 0 0 0.99968 7.29569e-05
24 8.26797 0.408952 1.07353 0 0 0.999682 2.34985e-05
99 7.36794 1.22304 0.954343 0 0 0.99968 5.14237e-05
101 8.24716 1.39114 0.236826 0 0 0.999678 2.37981e-05
941 8.12878 1.2724 1.60681 0 0 0.999661 2.94097e-05
18 7.58257 0.647917 0.140321 0 0 0.999693 4.21508e-05
22 8.85852 0.508593 0.274008 0 0 0.999691 3.72965e-06
28 9.553 0.338659 0.888791 0 0 0.999694 -2.04309e-05
103 9.02588 1.3074 1.11347 0 0 0.999673 -1.90271e-06
945 9.57421 0.973378 1.76363 0 0 0.999673 -2.52993e-05
105 9.63993 1.37495 0.0901054 0 0 0.99969 -2.47102e-05
32 11.2127 0.215931 0.632764 0 0 0.999741 -7.9495e-05
107 10.3636 1.04761 0.823258 0 0 0.999707 -5.25256e-05
866 10.5229 0.196344 1.44561 0 0 0.999708 -5.85133e-05
949 11.2855 1.01862 1.41808 0 0 0.99973 -9.30204e-05
946 10.5795 1.67738 1.73022 0 0 0.99969 -7.22401e-05
26 10.2431 0.367923 0.0780677 0 0 0.999714 -4.43656e-05
36 12.8755 0.211748 0.636886 0 0 0.999817 -0.000134335
111 12.0455 1.07423 0.506745 0 0 0.999772 -0.000113527
870 12.1316 0.316488 1.29975 0 0 0.999773 -0.000117642
953 12.7192 1.19878 1.37248 0 0 0.999798 -0.000146291
40 14.3726 0.318542 0.764737 0 0 0.999907 -0.00016956
115 13.592 1.11309 0.843708 0 0 0.999855 -0.000162853
117 14.0395 1.55969 0.167466 0 0 0.999883 -0.000176828
874 13.6072 0.359876 1.63535 0 0 0.999852 -0.000167721
957 14.3773 1.14956 1.47658 0 0 0.999902 -0.000189141
119 14.8758 1.55343 0.662981 0 0 0.999938 -0.000191892
44 15.7058 0.770618 0.788262 0 0 0.999996 -0.000185154
123 16.5528 1.54444 0.681321 0 0 1.00006 -0.000194512
878 15.1419 0.464213 1.64153 0 0 0.999955 -0.000194378
882 16.5466 0.71225 1.34207 0 0 1.00005 -0.00019039
961 15.6336 1.48546 1.39162 0 0 0.99999 -0.000207464
38 15.1046 0.711818 0.0677826 0 0 0.999957 -0.000176728
48 17.2541 0.732212 0.547577 0 0 1.0001 -0.000171501
127 17.9228 1.58096 0.757167 0 0 1.00015 -0.000174023
886 17.9157 0.742864 1.42788 0 0 1.00015 -0.000170846
965 17.2197 1.74872 1.56264 0 0 1.0001 -0.000205959
51 19.537 0.0167585 0.662683 0 0 1.00023 -0.000110877
52 18.7916 0.724991 0.684755 0 0 1.0002 -0.000137933
131 19.5393 1.55466 0.841526 0 0 1.00024 -0.000124791
889 19.0274 0.158563 1.5449 0 0 1.00021 -0.000139307
890 19.5932 0.967335 1.68935 0 0 1.00025 -0.000126372
969 18.6561 1.51282 1.50017 0 0 1.0002 -0.000163047
55 21.0889 0.349776 1.06732 0 0 1.0003 -5.90472e-05
56 20.2491 0.776249 0.979897 0 0 1.00027 -9.15365e-05
135 21.1061 1.65694 0.951346 0 0 1.00031 -6.4251e-05
54 21.1873 0.765471 0.21876 0 0 1.0003 -5.26409e-05
133 20.3455 1.51456 0.193594 0 0 1.00028 -9.05844e-05
57 22.0087 0.262489 0.53966 0 0 1.00031 -2.2459e-05
59 22.7913 0.430187 1.4071 0 0 1.00033 3.65726e-06
60 22.1105 1.14742 1.32957 0 0 1.00033 -2.25146e-05
137 21.9982 1.59929 0.538431 0 0 1.00033 -2.70813e-05
58 22.9158 1.07443 0.445101 0 0 1.00033 7.57302e-06
63 24.2281 0.380112 1.45183 0 0 1.00033 5.14174e-05
61 23.5673 0.357495 0.573598 0 0 1.00032 2.98062e-05
62 24.4368 1.18667 0.754598 0 0 1.00033 5.57534e-05
64 23.4758 1.24966 1.40254 0 0 1.00035 2.87037e-05
65 24.9552 0.315639 0.551907 0 0 1.00031 6.64033e-05
67 26.0086 0.383304 1.17136 0 0 1.00029 8.81358e-05
68 25.1692 1.12561 1.48063 0 0 1.00033 7.84546e-05
147 25.9303 1.73453 1.35774 0 0 1.00031 9.96132e-05
66 25.8918 0.929106 0.432033 0 0 1.00029 8.59639e-05
70 27.5738 1.28021 0.389012 0 0 1.00023 0.000109381
71 27.6143 0.509228 0.87424 0 0 1.00022 0.000105968
72 26.7561 1.02797 1.26331 0 0 1.00027 0.000104572
913 28.375 0.337463 1.39805 0 0 1.00019 0.000115145
69 26.7927 0.240319 0.226596 0 0 1.00025 9.4192e-05
76 28.6491 1.24253 0.742274 0 0 1.00018 0.000116458
914 29.3913 0.945604 1.5687 0 0 1.00014 0.000125215
993 28.523 1.71908 1.49738 0 0 1.0002 0.000131446
917 29.8134 0.173939 1.46117 0 0 1.00012 0.000119156
75 29.2736 0.354682 0.615241 0 0 1.00014 0.000109724
841 31.5875 0.266131 1.25662 0 0 1.00001 0.000116932
79 30.7017 0.490128 0.470733 0 0 1.00006 0.000110859
80 30.1011 1.19872 0.7741 0 0 1.0001 0.000119027
918 30.8651 0.971923 1.39383 0 0 1.00006 0.000123993
82 1.11103 2.43613 0.129279 0 0 0.999932 0.000138836
84 0.133626 2.38211 0.812236 0 0 0.999995 0.000141984
163 1.28872 3.23772 0.949219 0 0 0.999909 0.000168017
922 1.14002 2.36084 1.59166 0 0 0.999926 0.000152842
1001 0.386967 3.03003 1.54945 0 0 0.999976 0.000173182
161 0.332498 3.09586 0.131295 0 0 0.99998 0.000157599
88 1.90995 2.41877 0.783802 0 0 0.99988 0.000140605
167 2.6588 3.28048 0.860945 0 0 0.999815 0.000162674
926 2.66956 2.22933 1.53385 0 0 0.99983 0.000143635
1009 3.25824 3.42693 1.64957 0 0 0.999762 0.000176455
86 2.72632 2.38182 0.0557233 0 0 0.999834 0.000132625
92 3.38219 2.55432 0.779372 0 0 0.99979 0.000136476
91 4.007 1.84116 0.711257 0 0 0.999775 0.000115707
96 4.91405 2.57304 0.815783 0 0 0.999714 0.000120124
171 4.20176 3.3178 0.74956 0 0 0.999723 0.000147623
930 4.13275 2.64133 1.58346 0 0 0.999736 0.000142196
94 5.65068 2.44299 0.132777 0 0 0.999695 0.000100358
100 6.55795 2.18093 0.772744 0 0 0.999673 7.89984e-05
175 5.64901 3.19632 0.952682 0 0 0.99966 0.000118569
934 5.86122 2.19458 1.49695 0 0 0.99968 0.000102697
1017 6.52064 3.06738 1.556 0 0 0.999629 9.69315e-05
177 6.65052 2.9282 0.134254 0 0 0.999649 8.4199e-05
98 7.45418 2.22619 0.139866 0 0 0.999661 5.2552e-05
104 8.08221 2.20243 0.93058 0 0 0.999651 3.19035e-05
179 7.4015 3.06881 0.934251 0 0 0.999624 6.22403e-05
938 7.29944 2.0607 1.56885 0 0 0.99965 6.1585e-05
1021 8.18559 3.00236 1.6525 0 0 0.999612 3.20607e-05
181 8.26945 2.97166 0.0392383 0 0 0.999631 2.64619e-05
102 8.90398 2.08734 0.252444 0 0 0.999664 2.46946e-07
108 9.77241 2.02494 1.11016 0 0 0.99967 -3.5318e-05
183 8.92675 2.97311 0.928934 0 0 0.999629 -3.43008e-06
942 9.03066 2.22108 1.70434 0 0 0.999642 -5.36962e-06
185 9.56095 2.90623 0.213165 0 0 0.999648 -3.19468e-05
106 10.2833 2.11402 0.214339 0 0 0.999689 -5.65541e-05
112 11.1581 1.82633 0.771237 0 0 0.999722 -9.09169e-05
187 10.6213 2.80863 0.921747 0 0 0.999677 -8.2632e-05
1029 11.4442 2.83012 1.57521 0 0 0.999705 -0.000128912
116 12.6735 1.94141 0.59395 0 0 0.999794 -0.000149679
191 11.9277 2.64137 0.742436 0 0 0.999741 -0.000138369
950 11.9236 1.92088 1.46534 0 0 0.999747 -0.00013098
1033 12.8445 3.01805 1.6863 0 0 0.999781 -0.000201592
195 13.1788 3.03062 0.848957 0 0 0.999808 -0.000199938
954 13.378 1.99142 1.48082 0 0 0.99983 -0.000184969
120 14.0202 2.44457 0.927198 0 0 0.999872 -0.000205326
1037 14.0273 3.38387 1.55734 0 0 0.99986 -0.000254395
199 14.6955 3.43713 0.884978 0 0 0.999914 -0.000258636
958 14.7819 2.2977 1.44825 0 0 0.999926 -0.000224881
118 14.8413 2.51513 0.136578 0 0 0.999933 -0.000216161
197 14.1586 3.22638 0.0325769 0 0 0.999877 -0.000229336
114 13.4133 2.2942 0.0590978 0 0 0.999836 -0.000178473
124 15.6989 2.44372 0.692696 0 0 0.999996 -0.000223601
203 16.3024 3.20086 0.662109 0 0 1.00004 -0.00025193
962 16.3074 2.47943 1.52571 0 0 1.00004 -0.000239313
1041 15.3688 3.25729 1.50197 0 0 0.999967 -0.000271092
201 15.57 3.25856 0.0192821 0 0 0.999986 -0.000251133
128 17.0642 2.35021 0.682736 0 0 1.0001 -0.000210264
207 17.9436 2.92583 0.699465 0 0 1.00016 -0.000210463
966 18.0189 2.43891 1.58095 0 0 1.00017 -0.000208142
1045 17.0913 3.116 1.4948 0 0 1.0001 -0.000254135
132 18.8905 2.35714 1.01342 0 0 1.00022 -0.000167313
211 19.7024 3.24218 1.27753 0 0 1.00029 -0.000162372
209 18.8837 2.99573 0.195963 0 0 1.00023 -0.000177543
130 19.5868 2.34206 0.101438 0 0 1.00026 -0.000133039
973 20.3249 1.78829 1.72413 0 0 1.00029 -0.000107788
134 21.1564 2.41624 0.458238 0 0 1.00033 -6.91039e-05
136 20.1946 2.4684 1.11409 0 0 1.00029 -0.000117131
215 21.3099 3.29407 1.39273 0 0 1.00036 -8.12688e-05
213 20.422 2.9927 0.33484 0 0 1.00031 -0.000109973
139 22.872 2.06965 1.50842 0 0 1.00037 4.25982e-06
138 22.9717 2.60156 0.735336 0 0 1.00037 9.0916e-06
140 22.096 2.49871 1.23759 0 0 1.00036 -2.95e-05
217 21.9898 3.1999 0.598644 0 0 1.00038 -3.7065e-05
16179 22.6772 3.40068 0.0759258 0 0 1.0004 -3.93403e-06
141 23.7439 1.80816 0.623897 0 0 1.00035 3.80431e-05
143 24.4291 1.98728 1.61069 0 0 1.00036 6.42533e-05
142 24.3422 2.68255 0.775012 0 0 1.00037 6.42636e-05
144 23.6888 2.90248 1.53591 0 0 1.0004 4.15873e-05
223 24.473 3.5102 1.55663 0 0 1.00042 8.03857e-05
16108 24.9563 2.84524 0.0146707 0 0 1.00036 8.48584e-05
149 26.5485 1.79395 0.511292 0 0 1.00028 0.000105263
145 25.1324 1.85587 0.509335 0 0 1.00033 7.86123e-05
146 25.792 2.61168 0.707346 0 0 1.00034 0.000104659
148 25.1582 2.5551 1.52516 0 0 1.00037 9.15031e-05
227 25.7216 3.49761 1.51179 0 0 1.00039 0.000125684
152 26.5367 2.55971 1.53024 0 0 1.00032 0.000126628
229 26.1689 3.50027 0.598892 0 0 1.00036 0.000131445
151 27.5041 1.98527 1.23777 0 0 1.00026 0.000125375
153 28.2491 2.09007 0.343697 0 0 1.00021 0.000126019
150 27.0869 2.69213 0.645244 0 0 1.00029 0.000129293
231 27.2001 3.3536 1.41657 0 0 1.00032 0.000156778
156 28.2539 2.75776 1.20624 0 0 1.00024 0.000148848
233 27.9823 3.21968 0.326351 0 0 1.00026 0.000151585
997 29.9571 1.80898 1.70756 0 0 1.00012 0.00014215
155 29.4479 2.0469 0.879649 0 0 1.00015 0.000133408
154 29.1958 2.65878 0.290666 0 0 1.00017 0.000143052
235 29.2498 3.2649 1.17356 0 0 1.00019 0.000170217
159 30.9116 1.98497 0.924184 0 0 1.00006 0.000134635
160 30.1818 2.71085 1.00181 0 0 1.00011 0.000152802
239 31.025 3.35301 0.970993 0 0 1.00006 0.000173536
998 30.9868 2.69478 1.72643 0 0 1.00006 0.000166467
237 30.1095 3.25939 0.13222 0 0 1.00012 0.000162649
157 30.4118 1.90904 0.0255409 0 0 1.00008 0.00012675
158 31.1436 2.66398 0.0761208 0 0 1.00004 0.000145349
164 0.29415 3.78505 0.918567 0 0 0.999981 0.000188518
241 0.143416 4.59446 0.482103 0 0 0.999992 0.000217435
243 1.14074 4.67103 0.986692 0 0 0.999902 0.000225578
244 0.0889547 5.26682 1.27761 0 0 0.999997 0.000264756
162 1.041 3.86428 0.0595892 0 0 0.999922 0.000183006
168 1.84152 4.04619 0.84717 0 0 0.999855 0.000194212
247 2.54092 4.85613 1.1376 0 0 0.999776 0.000229654
166 2.64987 4.14497 0.206755 0 0 0.999794 0.000187067
245 1.89799 4.96913 0.278422 0 0 0.999832 0.000227983
249 3.40813 4.86223 0.161668 0 0 0.999715 0.000207434
172 3.49434 4.07706 0.88604 0 0 0.999735 0.000182914
176 4.9127 4.00048 1.18365 0 0 0.999653 0.000159038
251 4.04705 4.88046 1.14663 0 0 0.999664 0.000207152
170 4.26059 4.18545 0.14902 0 0 0.999688 0.000169413
253 5.00986 4.74052 0.341151 0 0 0.999622 0.000172582
174 5.7776 3.93828 0.198737 0 0 0.999629 0.000127318
180 6.48913 3.76664 0.772291 0 0 0.999612 0.000103902
255 5.68067 4.73695 1.02519 0 0 0.999587 0.000154951
1097 6.66356 4.51224 1.64333 0 0 0.999559 0.000118125
260 6.68105 5.13226 0.885635 0 0 0.999537 0.000124784
184 8.19835 3.8926 0.700994 0 0 0.999589 3.20309e-05
259 7.40865 4.46139 0.547004 0 0 0.999564 7.55499e-05
1018 7.39911 3.87094 1.49728 0 0 0.999581 7.40002e-05
1101 8.20024 4.61187 1.48731 0 0 0.999546 3.49337e-05
188 9.89754 3.57853 0.885937 0 0 0.999629 -5.63032e-05
263 9.07916 4.56628 0.821654 0 0 0.999567 -1.66273e-05
265 9.86258 4.50377 0.1264 0 0 0.999595 -6.51189e-05
1022 9.0783 3.76327 1.49865 0 0 0.999594 -1.57039e-05
1105 9.86876 4.34704 1.65592 0 0 0.999591 -7.06092e-05
182 8.98546 3.86881 0.0632056 0 0 0.9996 -8.43881e-06
192 11.4077 3.64547 0.77856 0 0 0.999689 -0.000139631
267 10.5889 4.66725 0.906615 0 0 0.999614 -0.000118326
269 11.3864 4.6947 0.230803 0 0 0.999657 -0.000164795
1026 10.7057 3.56755 1.58832 0 0 0.999651 -0.000107327
1109 11.3648 4.37242 1.70599 0 0 0.999659 -0.000172468
272 11.389 5.27297 0.984159 0 0 0.999637 -0.000190614
186 10.5824 3.84946 0.176185 0 0 0.999647 -9.75343e-05
196 12.5163 3.57766 0.814929 0 0 0.999755 -0.00019175
271 12.1911 4.55095 1.00051 0 0 0.99971 -0.000215887
1113 12.7356 4.99799 1.68953 0 0 0.999736 -0.000282545
275 13.2251 4.67917 0.800379 0 0 0.999782 -0.000271055
273 12.643 4.61937 0.0632483 0 0 0.999742 -0.000233604
200 13.9885 4.12853 0.696602 0 0 0.999852 -0.000271716
1034 13.4826 4.21827 1.59348 0 0 0.999808 -0.000276896
1117 14.2037 5.11872 1.52031 0 0 0.999855 -0.000351757
279 14.9394 5.01159 0.811787 0 0 0.999923 -0.000347076
1038 14.9634 4.41683 1.59445 0 0 0.999928 -0.000331705
277 14.1397 4.90674 0.0598673 0 0 0.999855 -0.000312244
198 14.9603 4.19434 0.0965554 0 0 0.999932 -0.000292139
204 15.6678 4.06643 0.926278 0 0 0.999991 -0.000301068
281 15.8789 4.7759 0.186441 0 0 1.00001 -0.000332792
283 16.5928 4.58019 0.900125 0 0 1.00007 -0.000324059
1042 16.3176 3.95864 1.69023 0 0 1.00004 -0.000313624
1121 15.8101 5.05311 1.64086 0 0 1 -0.000381363
208 17.2683 3.83346 0.811145 0 0 1.00012 -0.000269885
287 18.0857 4.48809 1.09784 0 0 1.0002 -0.000282842
1046 17.9519 3.63758 1.65577 0 0 1.00017 -0.000259245
285 17.4562 4.57695 0.0148126 0 0 1.00015 -0.000296514
206 18.1343 3.85432 0.0583623 0 0 1.00019 -0.00023864
212 18.8774 3.70623 0.95004 0 0 1.00024 -0.000211779
289 18.823 4.60895 0.36172 0 0 1.00026 -0.000245625
291 19.6901 4.67799 1.08005 0 0 1.00032 -0.000211537
292 18.7852 5.27627 1.20064 0 0 1.00027 -0.000293581
210 19.5983 3.7667 0.227381 0 0 1.00029 -0.000172236
216 20.4381 3.82125 1.23295 0 0 1.00034 -0.000140471
295 20.8844 4.71783 1.3935 0 0 1.00039 -0.000139072
297 21.5775 4.95044 0.810074 0 0 1.00043 -8.82671e-05
214 21.0822 3.93074 0.51224 0 0 1.00037 -9.70757e-05
293 20.1336 4.78488 0.352665 0 0 1.00035 -0.000177699
219 22.8206 3.63116 1.42089 0 0 1.00042 1.40613e-08
220 21.9406 4.13242 1.31023 0 0 1.00042 -5.58724e-05
299 22.4706 5.17634 1.27233 0 0 1.00048 -3.09318e-05
218 22.612 4.34632 0.509881 0 0 1.00044 -1.17921e-05
221 23.5737 3.63841 0.782425 0 0 1.00042 3.9188e-05
222 24.3362 4.31991 0.624803 0 0 1.00045 8.08569e-05
224 23.4681 4.54863 1.33307 0 0 1.00046 3.70162e-05
305 24.8522 5.25636 0.566517 0 0 1.00049 0.000121972
301 23.552 5.06305 0.533355 0 0 1.00049 4.30597e-05
228 25.009 4.49977 1.62287 0 0 1.00046 0.000120604
225 25.0631 3.67979 0.801887 0 0 1.0004 0.000102272
303 24.3633 5.28755 1.43317 0 0 1.0005 9.73375e-05
307 25.6909 5.13816 1.34222 0 0 1.00047 0.000163592
232 26.3579 4.28975 1.37125 0 0 1.0004 0.000163139
309 26.5031 4.972 0.640542 0 0 1.00042 0.00018161
226 25.5288 4.40032 0.388083 0 0 1.00042 0.000130912
311 27.3307 4.86909 1.40534 0 0 1.00038 0.000209839
236 27.9628 3.97605 1.1039 0 0 1.00029 0.000182671
313 28.2776 4.7344 0.706199 0 0 1.0003 0.000209536
230 27.0677 4.0428 0.569938 0 0 1.00034 0.000164886
234 28.9324 3.76995 0.487121 0 0 1.00022 0.000177571
315 29.0877 4.52288 1.33066 0 0 1.00024 0.000220217
240 29.9982 4.07189 1.02297 0 0 1.00015 0.000200077
238 31.03 3.97378 0.373324 0 0 1.00006 0.000190723
317 30.205 4.67753 0.491237 0 0 1.00014 0.000219574
319 30.9787 4.59922 1.41122 0 0 1.00008 0.000234775
242 0.908763 5.53214 0.461669 0 0 0.999914 0.000261138
248 1.53214 5.51203 1.37983 0 0 0.999849 0.000275653
323 0.794309 6.2203 1.27686 0 0 0.999916 0.000316681
324 0.257701 6.91741 1.50738 0 0 0.999975 0.000368308
322 0.970613 6.94551 0.573446 0 0 0.999888 0.00034228
328 1.70603 7.02909 1.2383 0 0 0.999798 0.00035649
325 1.89642 6.1999 0.519068 0 0 0.999801 0.000290903
252 3.10534 5.61752 1.3008 0 0 0.999701 0.000261053
327 2.26424 6.15382 1.41 0 0 0.999759 0.000303829
332 3.25514 6.96278 1.12784 0 0 0.999635 0.000325503
246 2.68227 5.61317 0.273634 0 0 0.999744 0.000250798
329 3.39563 6.28232 0.500631 0 0 0.999656 0.000272728
250 4.19028 5.46295 0.325868 0 0 0.999634 0.000218098
256 4.93486 5.42937 1.31811 0 0 0.999582 0.000208625
331 4.13678 6.09714 1.22815 0 0 0.9996 0.000259996
333 4.82623 6.2342 0.333951 0 0 0.999554 0.000230767
336 4.77382 6.80008 1.16012 0 0 0.999522 0.00026645
330 4.00334 7.02564 0.221864 0 0 0.999572 0.000291636
254 5.78613 5.42245 0.301945 0 0 0.999552 0.000166443
335 5.69401 6.24415 0.963581 0 0 0.999506 0.000203229
1177 6.45836 5.98518 1.59741 0 0 0.999488 0.000162466
340 6.43294 6.87023 1.0101 0 0 0.999445 0.000178472
337 6.37825 6.04201 0.154698 0 0 0.999497 0.000155227
334 5.55055 7.05283 0.147249 0 0 0.999471 0.000230026
264 8.21373 5.31505 0.694603 0 0 0.999518 3.78246e-05
339 7.32795 6.16014 0.754686 0 0 0.999472 0.000104564
1098 7.39201 5.41928 1.49204 0 0 0.999505 9.3419e-05
1181 8.23906 6.11137 1.49242 0 0 0.999473 3.96895e-05
344 8.01387 6.85472 0.729442 0 0 0.999435 5.82943e-05
1178 7.28242 6.86487 1.59695 0 0 0.99943 0.000123769
258 7.33057 5.35828 0.046194 0 0 0.999519 8.88579e-05
268 9.76789 5.32031 0.792944 0 0 0.999554 -7.31133e-05
343 8.8803 6.18966 0.737327 0 0 0.999485 -1.24055e-05
1102 9.05437 5.32811 1.59798 0 0 0.999525 -2.29513e-05
1185 9.73835 6.1916 1.46817 0 0 0.999513 -9.17703e-05
1182 9.09356 6.95143 1.46395 0 0 0.999456 -3.92009e-05
345 9.76319 6.23301 0.094233 0 0 0.999515 -8.48458e-05
262 8.99742 5.46571 0.0127805 0 0 0.999525 -1.70389e-05
347 10.5828 6.02295 0.964858 0 0 0.999562 -0.000154993
349 11.3123 6.37224 0.0777316 0 0 0.999596 -0.000219408
346 10.5184 6.94253 0.154625 0 0 0.999524 -0.000171029
1186 10.4683 6.9269 1.4971 0 0 0.999523 -0.000176495
270 11.9989 5.62811 0.183254 0 0 0.999668 -0.000242174
276 12.675 5.81913 0.862112 0 0 0.999715 -0.000302226
351 11.7768 6.20828 1.05343 0 0 0.999634 -0.000259629
1114 13.321 5.86732 1.55527 0 0 0.999767 -0.000359455
355 13.3497 6.58355 0.813951 0 0 0.999757 -0.000385718
274 13.3204 5.5392 0.0425186 0 0 0.999775 -0.000315485
280 14.0608 5.71607 0.772864 0 0 0.999836 -0.000366405
1197 14.3265 6.65218 1.40686 0 0 0.99985 -0.000456737
357 14.1292 6.38524 0.0380527 0 0 0.999834 -0.000404247
278 15.0272 5.64404 0.0344094 0 0 0.999929 -0.000380027
284 15.8294 5.7381 0.958287 0 0 1 -0.00040751
359 15.0459 6.4511 0.806881 0 0 0.999924 -0.000445372
363 16.4897 6.45238 1.14005 0 0 1.00007 -0.00045688
1118 15.1046 5.87611 1.69821 0 0 0.999931 -0.000434136
282 16.6191 5.41913 0.276785 0 0 1.00008 -0.000366735
361 15.6742 6.33824 0.0390665 0 0 0.999989 -0.000435389
286 17.8263 5.30087 0.541291 0 0 1.00019 -0.00032961
288 17.112 5.42466 1.24749 0 0 1.00012 -0.000375226
365 17.0608 6.27388 0.411391 0 0 1.00013 -0.000415997
367 17.6637 6.24597 1.38504 0 0 1.00018 -0.000415612
372 18.2733 7.05102 1.13117 0 0 1.00025 -0.000429528
369 18.3705 6.23107 0.609581 0 0 1.00025 -0.000358792
290 19.4284 5.75749 0.620285 0 0 1.00033 -0.000267491
371 19.3271 6.55661 1.35011 0 0 1.00034 -0.000333295
373 19.9936 6.75128 0.609908 0 0 1.0004 -0.000271796
294 20.7491 5.77498 0.653366 0 0 1.00042 -0.000169897
296 20.1926 5.60981 1.39496 0 0 1.00038 -0.000221911
375 20.7782 6.61125 1.30278 0 0 1.00045 -0.000207623
377 21.659 6.66139 0.666115 0 0 1.00051 -0.000118296
300 21.6629 5.87754 1.3845 0 0 1.00047 -0.000108574
16260 21.6903 5.73166 0.0517536 0 0 1.00047 -9.06252e-05
298 22.6733 5.82695 0.673718 0 0 1.00051 -1.81129e-05
379 22.632 6.69212 1.20656 0 0 1.00055 -3.03251e-05
381 23.3487 6.77939 0.267652 0 0 1.00058 3.65814e-05
304 23.4824 5.88394 1.2994 0 0 1.00053 4.21331e-05
383 24.3201 6.56179 1.15765 0 0 1.00057 0.000113596
302 24.1461 6.0059 0.42735 0 0 1.00054 9.14735e-05
306 25.6836 5.86136 0.700612 0 0 1.0005 0.000178292
308 25.1129 6.0403 1.67653 0 0 1.00054 0.000159036
385 25.1599 6.74063 0.49485 0 0 1.00057 0.000171846
387 25.8258 6.59369 1.40709 0 0 1.00054 0.000216393
312 26.6909 5.84442 1.47577 0 0 1.00046 0.000229708
310 27.4971 5.54284 0.721947 0 0 1.00039 0.000230695
389 26.7491 6.36499 0.65159 0 0 1.00048 0.000240096
391 27.7018 6.4725 1.36497 0 0 1.00043 0.000287759
316 28.3653 5.52159 1.48684 0 0 1.00033 0.000262232
390 27.7104 7.0068 0.529948 0 0 1.00045 0.000299307
314 29.3894 5.30862 0.818584 0 0 1.00023 0.000248879
395 29.4385 6.18184 1.32188 0 0 1.00026 0.000306598
394 29.579 6.89749 0.506411 0 0 1.00026 0.000331057
393 28.4691 6.20547 0.638502 0 0 1.00035 0.000280753
16355 29.3767 6.15364 0.080133 0 0 1.00026 0.000284044
16276 28.4827 5.38941 0.0592425 0 0 1.00031 0.000237169
318 30.9641 5.36827 0.594988 0 0 1.00008 0.000256259
320 30.2165 5.45928 1.46796 0 0 1.00016 0.000277571
397 30.3963 6.18241 0.649664 0 0 1.00015 0.000299562
399 31.2195 6.15506 1.38433 0 0 1.00007 0.000317472
398 31.2001 6.95398 0.603395 0 0 1.00007 0.000345571
321 31.724 5.99623 0.446561 0 0 1.00001 0.00028713
401 0.262609 7.63205 0.661857 0 0 0.999972 0.000387608
402 0.831955 8.46359 0.619371 0 0 0.999889 0.000435418
403 1.11297 7.8641 1.49725 0 0 0.999855 0.000425878
404 0.35793 8.56263 1.47038 0 0 0.999956 0.000475168
405 1.59345 7.765 0.371944 0 0 0.999798 0.000382262
408 1.72486 8.61768 1.46497 0 0 0.999759 0.000465807
326 2.48867 7.15019 0.47641 0 0 0.99971 0.000336664
406 2.19274 8.6338 0.399811 0 0 0.999699 0.000425291
407 2.39504 7.81138 1.27757 0 0 0.999695 0.000394357
412 3.01449 8.51497 0.935874 0 0 0.999602 0.000411148
409 3.24496 7.77163 0.327155 0 0 0.999608 0.00035072
410 3.81336 8.45959 0.0823134 0 0 0.999523 0.000368905
411 3.98057 7.67062 1.24902 0 0 0.999539 0.000340276
416 4.70547 8.25737 0.922315 0 0 0.999456 0.000328965
413 4.67103 7.63779 0.247878 0 0 0.999491 0.00029482
1250 3.81235 8.34937 1.76242 0 0 0.999521 0.000401382
414 5.87036 8.34914 0.170064 0 0 0.999386 0.000255861
415 5.48442 7.59152 1.0328 0 0 0.999442 0.000262037
417 6.49424 7.53899 0.169297 0 0 0.99941 0.000186365
420 6.39752 8.24065 1.04457 0 0 0.999374 0.000217159
419 7.28639 7.77024 0.746865 0 0 0.999385 0.000131634
424 8.2862 8.31502 0.869532 0 0 0.999369 4.11408e-05
1258 7.27922 8.18484 1.70272 0 0 0.999366 0.0001458
1261 8.05251 7.48911 1.56147 0 0 0.999404 6.0672e-05
421 7.99932 7.60424 0.0282496 0 0 0.999398 6.29702e-05
348 9.84294 7.22312 0.724002 0 0 0.999475 -0.000111784
423 8.91223 7.61744 0.662258 0 0 0.999418 -2.37809e-05
428 9.7322 8.62089 0.693842 0 0 0.999415 -0.000132219
1262 9.09271 8.70044 1.44632 0 0 0.999386 -5.42899e-05
1265 9.6403 7.89066 1.60179 0 0 0.999444 -0.000115526
352 11.3154 7.14391 0.811146 0 0 0.999572 -0.000254982
427 10.5727 7.94656 0.844985 0 0 0.999493 -0.000211317
1266 10.5871 8.70344 1.42686 0 0 0.999477 -0.000246702
1269 11.4049 7.80639 1.60415 0 0 0.999565 -0.000312345
429 11.2264 8.11962 0.0423695 0 0 0.999534 -0.000285112
356 12.7052 7.28411 0.566139 0 0 0.999684 -0.000382466
431 12.177 8.23611 0.591261 0 0 0.999614 -0.000389942
1190 12.063 7.15893 1.37853 0 0 0.999633 -0.000339956
1270 12.0874 8.68183 1.49165 0 0 0.999604 -0.000427336
1273 12.8587 7.99687 1.47687 0 0 0.999689 -0.000461139
360 14.3358 7.35461 0.581327 0 0 0.999844 -0.000485547
435 13.6155 8.09351 0.464866 0 0 0.999759 -0.000497768
1194 13.4567 7.34094 1.342 0 0 0.999756 -0.000459366
1277 14.2454 8.18411 1.353 0 0 0.999827 -0.000566748
362 16.4315 7.18476 0.276833 0 0 1.00007 -0.00049534
364 15.6261 7.31141 0.923073 0 0 0.99998 -0.000522098
439 15.0672 8.29271 0.865756 0 0 0.999915 -0.00058843
443 16.2582 8.16034 1.11166 0 0 1.00005 -0.000591972
1198 15.1433 7.5229 1.62523 0 0 0.999927 -0.000558826
441 15.865 8.31521 0.152662 0 0 1.00001 -0.000587671
368 16.9756 7.3622 1.11659 0 0 1.00012 -0.000514305
445 17.0666 8.10449 0.342016 0 0 1.00014 -0.00054942
447 17.7016 8.02326 1.02668 0 0 1.0002 -0.000528089
366 17.8148 7.16541 0.212955 0 0 1.00021 -0.000446944
370 19.0034 7.33733 0.644116 0 0 1.00033 -0.000384135
451 18.9263 8.15226 1.1855 0 0 1.00033 -0.000454449
376 19.8702 7.65626 1.32636 0 0 1.00041 -0.000342308
453 19.8026 8.1408 0.360362 0 0 1.00042 -0.000352633
449 18.4473 8.18911 0.168629 0 0 1.00029 -0.000474568
374 20.6984 7.45944 0.672909 0 0 1.00048 -0.000235093
455 20.6457 8.43914 1.03578 0 0 1.0005 -0.000288463
380 21.5409 7.67164 1.14956 0 0 1.00054 -0.000160903
457 21.6113 8.34331 0.258344 0 0 1.00057 -0.000160417
459 22.5866 8.177 1.02009 0 0 1.00061 -5.00293e-05
1218 22.417 7.49985 1.75862 0 0 1.00057 -6.90487e-05
378 22.3364 7.4834 0.386062 0 0 1.00058 -6.49111e-05
384 23.445 7.32076 1.05092 0 0 1.0006 4.36665e-05
461 23.4885 8.07431 0.386457 0 0 1.00064 5.1042e-05
463 24.3441 8.10051 1.00203 0 0 1.00065 0.000135111
1302 24.2526 8.71669 1.68718 0 0 1.00067 0.000137213
382 24.3397 7.32438 0.269095 0 0 1.00061 0.000122281
388 25.1168 7.39375 1.25485 0 0 1.00061 0.000189579
467 26.0208 8.0048 0.988317 0 0 1.00061 0.00026967
1306 26.0191 8.62729 1.75691 0 0 1.00064 0.00030486
386 26.0926 7.27786 0.367939 0 0 1.00057 0.000240333
465 25.2296 8.13131 0.307605 0 0 1.00065 0.000212537
466 26.2738 8.58461 0.089099 0 0 1.00063 0.000299832
392 26.7837 7.11097 1.34334 0 0 1.00052 0.000283899
470 27.9651 8.5041 0.429402 0 0 1.0005 0.000384485
471 27.7968 7.83762 1.21467 0 0 1.00049 0.00035889
472 26.9771 8.65416 1.02534 0 0 1.00059 0.000356173
469 26.9968 7.7826 0.43442 0 0 1.00054 0.000308798
396 28.6522 7.11275 1.23021 0 0 1.00037 0.000343437
474 29.5951 8.35309 0.544375 0 0 1.00031 0.000417973
475 29.4986 7.6777 1.27642 0 0 1.0003 0.000392727
476 28.7808 8.55829 1.18593 0 0 1.00041 0.000428048
473 28.696 7.71834 0.415901 0 0 1.00039 0.000362397
400 30.3256 7.09159 1.17958 0 0 1.00018 0.000364051
479 31.2512 7.82427 1.30171 0 0 1.00008 0.000419359
480 30.4308 8.49169 1.18405 0 0 1.0002 0.000453468
477 30.6375 7.8729 0.379899 0 0 1.00016 0.000395679
478 31.4257 8.62316 0.390559 0 0 1.00006 0.000446753
482 1.12109 10.2844 0.274323 0 0 0.999823 0.000541215
483 1.01412 9.37764 1.20659 0 0 0.99985 0.000512619
484 0.253768 9.92939 0.898566 0 0 0.999968 0.000540817
481 0.368547 9.33527 0.122602 0 0 0.999951 0.000487127
1322 0.810523 10.127 1.75282 0 0 0.999875 0.000592798
485 1.75707 9.44569 0.452326 0 0 0.999739 0.000482912
488 1.82544 10.3749 0.97011 0 0 0.999709 0.000550821
486 2.59199 10.2765 0.0854437 0 0 0.9996 0.000507327
487 2.37471 9.44649 1.22312 0 0 0.999651 0.000492548
1326 2.77051 10.2349 1.66443 0 0 0.999576 0.000547427
1329 3.1986 9.23757 1.65267 0 0 0.999553 0.000473334
489 3.07259 9.37113 0.079941 0 0 0.999566 0.00044415
492 3.37761 10.0342 0.730066 0 0 0.999507 0.000475709
491 3.9319 9.10945 0.853929 0 0 0.999482 0.000408979
493 4.57667 9.18064 0.0073676 0 0 0.999424 0.00036908
496 4.60675 9.97717 0.57078 0 0 0.999387 0.000405622
1330 4.12026 9.97209 1.61803 0 0 0.999431 0.000464495
1333 4.67314 9.06789 1.64899 0 0 0.999419 0.000389066
495 5.32981 8.94441 0.659284 0 0 0.999383 0.00031775
500 6.23985 9.79346 0.512187 0 0 0.999304 0.00026997
1334 5.31075 9.83191 1.15866 0 0 0.999345 0.000358543
1337 6.15251 9.0515 1.25561 0 0 0.999342 0.000265819
1417 6.23542 10.5104 1.18216 0 0 0.99928 0.000298964
499 7.16635 8.88112 0.709119 0 0 0.99933 0.000163786
501 8.0958 9.0475 0.0803979 0 0 0.999331 6.24723e-05
504 7.95926 9.92477 0.574886 0 0 0.999294 8.14847e-05
1338 7.17949 9.73738 1.1888 0 0 0.999297 0.000178755
1341 8.04566 9.16719 1.39634 0 0 0.999331 7.31527e-05
503 8.93991 9.45444 0.725342 0 0 0.999345 -4.10395e-05
508 9.64519 10.3375 0.65623 0 0 0.999357 -0.000146631
1342 8.75017 10.2677 1.402 0 0 0.999319 -2.04015e-05
1345 9.83088 9.59039 1.40758 0 0 0.9994 -0.000168432
432 11.3742 8.84803 0.730643 0 0 0.999529 -0.000334
426 10.4027 8.88665 0.0400823 0 0 0.999449 -0.000213547
507 10.4637 9.6822 0.653231 0 0 0.999432 -0.0002483
1346 10.6319 10.1684 1.62836 0 0 0.99945 -0.000304462
1349 11.3007 9.63513 1.31158 0 0 0.999512 -0.000373148
436 13.0062 8.96635 0.785296 0 0 0.999684 -0.000514163
511 12.1084 9.81479 0.683611 0 0 0.999578 -0.000465503
516 12.8196 10.4738 0.957163 0 0 0.999646 -0.000588967
1353 12.543 9.61454 1.60646 0 0 0.999635 -0.000535692
1274 13.6891 8.84181 1.56471 0 0 0.999763 -0.000589371
440 14.4681 9.19829 0.758039 0 0 0.999841 -0.000632788
515 13.5299 9.67852 0.832761 0 0 0.999731 -0.000604123
1354 13.4956 10.4086 1.70361 0 0 0.999729 -0.000689176
517 14.2737 10.152 0.213057 0 0 0.999811 -0.000678783
444 15.9015 9.1601 1.13613 0 0 1.00001 -0.000677742
1278 15.0518 9.06748 1.75922 0 0 0.999909 -0.000691386
519 15.1329 9.85718 1.00863 0 0 0.999914 -0.00071409
521 15.6926 10.1814 0.251783 0 0 0.999981 -0.000728566
523 16.5084 9.95927 0.961072 0 0 1.00008 -0.000721917
442 16.5123 9.03168 0.259151 0 0 1.00008 -0.000634637
438 15.3022 9.20722 0.0901816 0 0 0.999938 -0.00064761
452 18.3009 8.89891 0.945135 0 0 1.00028 -0.000545826
448 17.0955 9.07179 1.12936 0 0 1.00014 -0.000643098
525 17.1565 10.0283 0.207839 0 0 1.00016 -0.000684788
527 17.7774 9.87366 1.07516 0 0 1.00022 -0.000659138
446 17.7665 9.11091 0.116033 0 0 1.00023 -0.000585161
456 19.8229 8.96439 1.07028 0 0 1.00043 -0.000404251
529 18.6016 9.73642 0.300456 0 0 1.00032 -0.000559809
531 19.5106 9.90171 0.854054 0 0 1.00042 -0.000487105
532 18.7265 10.4588 1.15015 0 0 1.00033 -0.000613649
1369 18.6595 9.59054 1.71763 0 0 1.00031 -0.000597146
450 19.2472 8.96585 0.211807 0 0 1.00038 -0.000453974
533 19.9923 9.79144 0.0737452 0 0 1.00047 -0.000408474