ITEM: TIMESTEP
21000
ITEM: NUMBER OF ATOMS
32000
ITEM: BOX BOUNDS pp pp pp
0.0000000000000000e+00 3.1748021039364001e+01
0.0000000000000000e+00 3.1748021039364001e+01
0.0000000000000000e+00 3.1748021039364001e+01
ITEM: ATOMS id x y z c_phase c_nbond c_rho vx
4 0.250522 1.09856 0.469262 0 0 1.00003 0.00115113
83 1.10725 1.66778 0.782487 0 0 1.00002 0.0011838
842 0.851688 0.791742 1.41051 0 0 1.00003 0.00117356
921 0.14271 1.59852 1.37896 0 0 1.00003 0.00117863
3 0.862868 0.0687116 0.621933 0 0 1.00003 0.00115145
8 1.84373 0.819336 1.01559 0 0 1.00002 0.00116696
85 1.93606 1.4851 0.217031 0 0 1.00002 0.00117109
925 1.96694 1.66283 1.75971 0 0 1.00002 0.00120835
6 2.6454 0.748623 0.204857 0 0 1.00002 0.00114292
7 2.714 0.0576102 1.04083 0 0 1.00002 0.00114609
87 2.77532 1.54646 0.882522 0 0 1.00002 0.00116557
846 2.80432 0.823361 1.74619 0 0 1.00002 0.00117069
12 3.55034 0.934202 0.965767 0 0 1.00001 0.00112675
849 3.61571 0.0904287 1.71661 0 0 1.00001 0.00113451
929 3.72901 1.71424 1.72638 0 0 1.00001 0.00116143
10 4.22221 0.863019 0.324513 0 0 1.00001 0.00108456
850 4.45033 0.949335 1.6438 0 0 1.00001 0.00110083
9 3.59077 0.107343 0.175158 0 0 1.00001 0.00110578
93 5.02304 1.60951 0.388414 0 0 1.00001 0.00105668
16 5.07057 0.570183 1.17451 0 0 1.00001 0.00104238
14 5.73844 0.648728 0.325559 0 0 1 0.000981924
95 5.97321 1.32318 0.95165 0 0 1 0.000985971
97 6.65197 1.40564 0.221481 0 0 1 0.000920596
854 5.8781 0.46304 1.71416 0 0 1 0.00099738
933 5.13053 1.73142 1.44713 0 0 1.00001 0.00107283
20 6.78739 0.397795 0.87717 0 0 1 0.000897755
937 6.76839 1.02069 1.71046 0 0 0.999999 0.000931453
24 8.31042 0.414353 1.083 0 0 0.999996 0.000752414
99 7.43043 1.23626 0.962752 0 0 0.999998 0.000853011
101 8.29163 1.4045 0.240302 0 0 0.999996 0.000761389
941 8.17886 1.28562 1.62574 0 0 0.999996 0.000796784
18 7.6392 0.657774 0.146538 0 0 0.999998 0.000811191
22 8.88935 0.514029 0.275276 0 0 0.999996 0.000680843
28 9.57242 0.341164 0.900634 0 0 0.999995 0.000613361
103 9.05483 1.32148 1.12233 0 0 0.999995 0.000692153
105 9.65627 1.3865 0.0936643 0 0 0.999995 0.00061481
32 11.1973 0.218135 0.642125 0 0 0.999996 0.000434953
107 10.3671 1.05908 0.833313 0 0 0.999995 0.000536676
866 10.5225 0.199856 1.46136 0 0 0.999996 0.000522811
949 11.2738 1.02698 1.43258 0 0 0.999996 0.000452739
946 10.5803 1.69565 1.74707 0 0 0.999995 0.000554886
26 10.2477 0.371198 0.0799497 0 0 0.999996 0.000532416
36 12.8359 0.21498 0.644215 0 0 0.999999 0.000275727
111 12.0153 1.08333 0.514773 0 0 0.999997 0.000361397
870 12.102 0.319208 1.31342 0 0 0.999998 0.000357073
953 12.6818 1.20596 1.3857 0 0 0.999999 0.000316092
40 14.3147 0.32575 0.777532 0 0 1 0.000162576
115 13.5401 1.11829 0.851057 0 0 1 0.000230713
117 13.9872 1.56696 0.165285 0 0 1 0.000199647
874 13.5596 0.362876 1.64691 0 0 1 0.000236205
957 14.3199 1.15667 1.48717 0 0 1 0.000187822
119 14.8156 1.55898 0.667333 0 0 1.00001 0.000151269
38 15.0381 0.712825 0.0677316 0 0 1.00001 0.000118192
44 15.6405 0.768427 0.790128 0 0 1.00001 9.6765e-05
123 16.4811 1.54303 0.683107 0 0 1.00001 8.55293e-05
878 15.0778 0.465619 1.64735 0 0 1.00001 0.00013689
882 16.4762 0.710305 1.34413 0 0 1.00001 8.09347e-05
961 15.5642 1.49133 1.39672 0 0 1.00001 0.000125918
48 17.1892 0.729509 0.551774 0 0 1.00002 5.97946e-05
127 17.8576 1.57757 0.754879 0 0 1.00002 8.02177e-05
886 17.85 0.741516 1.42401 0 0 1.00002 7.58008e-05
965 17.1512 1.74515 1.56231 0 0 1.00002 9.88127e-05
51 19.4843 0.0140154 0.660574 0 0 1.00003 0.000106898
52 18.7316 0.723012 0.683632 0 0 1.00003 8.1646e-05
131 19.4877 1.54481 0.837439 0 0 1.00003 0.000128624
889 18.9676 0.154783 1.53921 0 0 1.00003 9.94701e-05
890 19.5425 0.961249 1.6821 0 0 1.00003 0.000136396
969 18.5995 1.50353 1.49489 0 0 1.00003 0.000106555
55 21.0637 0.34619 1.05975 0 0 1.00004 0.000211494
56 20.2054 0.770776 0.972216 0 0 1.00003 0.000155667
135 21.0761 1.63946 0.946294 0 0 1.00004 0.000233926
54 21.1573 0.758946 0.216316 0 0 1.00004 0.000214552
133 20.304 1.50279 0.19504 0 0 1.00003 0.000167301
57 21.9948 0.260947 0.534786 0 0 1.00004 0.000282613
59 22.7938 0.425057 1.39364 0 0 1.00004 0.000373462
60 22.0997 1.13695 1.31818 0 0 1.00004 0.000315909
137 21.9838 1.58502 0.531473 0 0 1.00004 0.000302422
58 22.9185 1.06084 0.4433 0 0 1.00004 0.000380091
63 24.2629 0.375663 1.43322 0 0 1.00005 0.000530246
61 23.5832 0.352473 0.568798 0 0 1.00005 0.000441042
62 24.4703 1.17243 0.746618 0 0 1.00005 0.000549972
64 23.4933 1.23483 1.38811 0 0 1.00005 0.000459232
65 24.9999 0.312385 0.545549 0 0 1.00005 0.000595354
67 26.072 0.377366 1.16103 0 0 1.00005 0.00072012
68 25.2186 1.11425 1.46334 0 0 1.00005 0.000647028
147 25.9967 1.7189 1.34322 0 0 1.00005 0.000744104
66 25.9539 0.923068 0.425833 0 0 1.00005 0.000704173
70 27.667 1.2717 0.384186 0 0 1.00005 0.000886406
71 27.7064 0.502558 0.867917 0 0 1.00005 0.000882578
72 26.8341 1.0192 1.25038 0 0 1.00005 0.000812115
69 26.8692 0.238535 0.226879 0 0 1.00005 0.000789963
913 28.4852 0.338712 1.39707 0 0 1.00004 0.000960754
76 28.7582 1.22888 0.732587 0 0 1.00004 0.000983918
914 29.5015 0.949422 1.56167 0 0 1.00004 0.00105178
993 28.6298 1.71105 1.49209 0 0 1.00004 0.00100275
917 29.9418 0.167422 1.45309 0 0 1.00004 0.00106918
75 29.3878 0.352829 0.613045 0 0 1.00004 0.00101578
841 31.7222 0.267675 1.25672 0 0 1.00003 0.00114553
79 30.8362 0.480308 0.475438 0 0 1.00003 0.00110088
80 30.2201 1.19354 0.770673 0 0 1.00004 0.00108535
918 30.9925 0.969268 1.39012 0 0 1.00003 0.00113186
82 1.24721 2.43879 0.125026 0 0 1.00002 0.00120914
84 0.272257 2.3809 0.809554 0 0 1.00003 0.00119916
163 1.42788 3.2367 0.947853 0 0 1.00002 0.00126222
922 1.27949 2.36606 1.59235 0 0 1.00002 0.00123328
1001 0.528461 3.03472 1.54948 0 0 1.00003 0.00125812
161 0.471966 3.10044 0.131026 0 0 1.00003 0.00123321
88 2.04755 2.42199 0.787329 0 0 1.00002 0.00121209
167 2.79181 3.29146 0.862793 0 0 1.00002 0.00124704
926 2.80516 2.24342 1.54469 0 0 1.00002 0.00120854
86 2.85337 2.39226 0.0557281 0 0 1.00002 0.00118825
1009 3.39545 3.43629 1.66003 0 0 1.00001 0.00126121
92 3.50825 2.56869 0.786939 0 0 1.00001 0.00118168
91 4.12399 1.84863 0.717487 0 0 1.00001 0.00112041
96 5.01886 2.58752 0.8245 0 0 1.00001 0.00110349
171 4.32202 3.33668 0.757056 0 0 1.00001 0.0011859
930 4.25855 2.65698 1.59202 0 0 1.00001 0.0011726
94 5.74629 2.46335 0.137134 0 0 1 0.00103562
100 6.63916 2.20129 0.783512 0 0 0.999999 0.000957047
175 5.75174 3.22081 0.964211 0 0 1 0.00108857
934 5.95553 2.21688 1.50897 0 0 1 0.00103493
1017 6.61261 3.09356 1.56966 0 0 0.999999 0.00102702
177 6.73003 2.95677 0.135464 0 0 0.999999 0.000979047
98 7.51711 2.24719 0.141934 0 0 0.999997 0.00087014
104 8.13654 2.22341 0.942966 0 0 0.999996 0.00081646
179 7.47174 3.09457 0.942461 0 0 0.999996 0.000929268
938 7.3687 2.08143 1.58544 0 0 0.999997 0.000905262
1021 8.24272 3.03055 1.67158 0 0 0.999995 0.000869333
181 8.3215 2.99855 0.0416668 0 0 0.999995 0.000825538
102 8.93991 2.10975 0.256179 0 0 0.999995 0.000717085
108 9.79144 2.04428 1.12073 0 0 0.999994 0.00063619
183 8.9647 3.00111 0.942008 0 0 0.999994 0.00076831
942 9.06543 2.24414 1.72482 0 0 0.999994 0.000741695
185 9.58661 2.93396 0.215369 0 0 0.999995 0.000685748
106 10.2903 2.13346 0.216295 0 0 0.999995 0.000570866
112 11.1482 1.84445 0.780547 0 0 0.999996 0.000474742
187 10.6247 2.83373 0.932635 0 0 0.999994 0.000576392
1029 11.432 2.85653 1.59524 0 0 0.999995 0.00051234
116 12.6375 1.95539 0.601609 0 0 0.999998 0.000327358
191 11.9061 2.66463 0.749934 0 0 0.999996 0.000429654
950 11.9023 1.93688 1.48101 0 0 0.999996 0.000415407
1033 12.8109 3.04023 1.70492 0 0 0.999998 0.000388527
195 13.145 3.04629 0.853353 0 0 0.999999 0.000333816
954 13.3348 2.00489 1.49241 0 0 1 0.000285903
114 13.3677 2.30986 0.0594222 0 0 1 0.000273047
120 13.9681 2.45788 0.931297 0 0 1 0.000241215
1037 13.9791 3.40297 1.568 0 0 1 0.000305721
199 14.6404 3.44933 0.88731 0 0 1 0.000243772
958 14.7278 2.30847 1.45096 0 0 1.00001 0.000196546
118 14.7805 2.52156 0.138902 0 0 1.00001 0.000181288
197 14.1045 3.23861 0.0371722 0 0 1 0.000259262
124 15.6315 2.44536 0.698165 0 0 1.00001 0.00014124
203 16.2394 3.20235 0.668836 0 0 1.00001 0.000153846
962 16.2416 2.47956 1.52744 0 0 1.00001 0.000139226
1041 15.3124 3.26509 1.50906 0 0 1.00001 0.000212183
201 15.5059 3.26526 0.0232514 0 0 1.00001 0.000178507
128 16.9985 2.35027 0.683295 0 0 1.00002 0.000102844
207 17.8806 2.91974 0.700048 0 0 1.00002 0.000127266
966 17.9549 2.43033 1.57952 0 0 1.00002 0.000125999
1045 17.0255 3.11192 1.49611 0 0 1.00002 0.000152712
132 18.8337 2.34737 1.00847 0 0 1.00003 0.000129631
211 19.6533 3.22053 1.26864 0 0 1.00003 0.000208421
209 18.8264 2.98337 0.193418 0 0 1.00003 0.000146438
130 19.5385 2.32546 0.102577 0 0 1.00003 0.000149038
973 20.2846 1.77232 1.71473 0 0 1.00003 0.000198296
134 21.1315 2.39766 0.45335 0 0 1.00004 0.000255781
136 20.1544 2.44901 1.10497 0 0 1.00003 0.000198768
215 21.2897 3.26874 1.3769 0 0 1.00004 0.000325228
213 20.3836 2.97392 0.330838 0 0 1.00003 0.000225502
139 22.8788 2.04622 1.49511 0 0 1.00004 0.000419062
138 22.9789 2.57719 0.726797 0 0 1.00004 0.000435459
140 22.0849 2.475 1.22585 0 0 1.00004 0.000354669
217 21.9782 3.17254 0.593406 0 0 1.00004 0.000365523
16179 22.6849 3.36889 0.0715261 0 0 1.00004 0.000438497
141 23.7642 1.79005 0.617213 0 0 1.00005 0.000488794
143 24.4653 1.9663 1.59104 0 0 1.00005 0.000591696
142 24.379 2.65585 0.765896 0 0 1.00005 0.000590648
144 23.7131 2.87109 1.51851 0 0 1.00005 0.000546045
223 24.5187 3.47625 1.53785 0 0 1.00005 0.000668565
16108 25.0053 2.81502 0.0143447 0 0 1.00005 0.000662723
149 26.6255 1.77751 0.50674 0 0 1.00005 0.000798549
145 25.182 1.83707 0.506284 0 0 1.00005 0.000644208
146 25.8586 2.58619 0.698306 0 0 1.00005 0.000750191
148 25.2144 2.53214 1.50701 0 0 1.00005 0.000693713
227 25.7924 3.46457 1.49647 0 0 1.00005 0.000810132
152 26.6164 2.53929 1.51418 0 0 1.00005 0.000848542
229 26.2502 3.47098 0.589782 0 0 1.00005 0.000839736
151 27.5976 1.96934 1.2244 0 0 1.00005 0.000915481
153 28.356 2.07641 0.341307 0 0 1.00004 0.000973714
150 27.1776 2.66987 0.635295 0 0 1.00005 0.000892806
231 27.3021 3.32647 1.40162 0 0 1.00005 0.000959005
156 28.3624 2.73708 1.19323 0 0 1.00004 0.00101773
233 28.0891 3.19989 0.328287 0 0 1.00005 0.00100305
155 29.5644 2.02748 0.878512 0 0 1.00004 0.00107145
154 29.3129 2.65407 0.285786 0 0 1.00004 0.00107401
235 29.3782 3.24315 1.17236 0 0 1.00004 0.00112593
997 30.0879 1.79949 1.69959 0 0 1.00004 0.00111789
159 31.043 1.97544 0.921591 0 0 1.00003 0.00115316
160 30.3121 2.7003 0.997514 0 0 1.00004 0.00115048
239 31.1662 3.33517 0.97244 0 0 1.00003 0.0012263
998 31.1239 2.68631 1.7232 0 0 1.00003 0.00121058
237 30.2492 3.23669 0.14304 0 0 1.00004 0.0011653
157 30.5348 1.90025 0.0308254 0 0 1.00004 0.0011165
158 31.2772 2.65465 0.0761358 0 0 1.00003 0.00118259
164 0.442116 3.78035 0.919758 0 0 1.00003 0.00128455
241 0.295585 4.59714 0.475703 0 0 1.00003 0.00133446
243 1.28916 4.67166 0.989231 0 0 1.00002 0.00136386
244 0.25368 5.26273 1.27446 0 0 1.00003 0.00140825
162 1.18898 3.86197 0.0679753 0 0 1.00002 0.00128979
168 1.99511 4.05088 0.851416 0 0 1.00002 0.00131181
247 2.6893 4.87178 1.13624 0 0 1.00002 0.00137308
166 2.79206 4.15755 0.205178 0 0 1.00002 0.00129684
245 2.05084 4.97283 0.282626 0 0 1.00002 0.00137519
249 3.55151 4.88012 0.164547 0 0 1.00001 0.00132879
172 3.62586 4.09563 0.892904 0 0 1.00001 0.00127377
251 4.18968 4.90518 1.15815 0 0 1.00001 0.0013208
170 4.3838 4.20425 0.148377 0 0 1.00001 0.00123586
176 5.03193 4.0304 1.18762 0 0 1 0.00120178
253 5.13141 4.7715 0.340996 0 0 1 0.00123683
174 5.87393 3.96772 0.197323 0 0 1 0.00111754
180 6.58693 3.79999 0.786238 0 0 0.999999 0.00105417
255 5.80068 4.76595 1.04146 0 0 1 0.00120108
1097 6.76146 4.55336 1.66738 0 0 0.999997 0.00112631
260 6.77633 5.17586 0.894432 0 0 0.999997 0.00115205
184 8.25854 3.92532 0.713661 0 0 0.999994 0.000899097
259 7.48657 4.49985 0.557913 0 0 0.999995 0.00101868
1018 7.47824 3.9052 1.51852 0 0 0.999995 0.00100144
1101 8.26807 4.65375 1.50886 0 0 0.999993 0.000979459
188 9.91846 3.6136 0.899142 0 0 0.999994 0.000700645
263 9.12293 4.60814 0.835353 0 0 0.999992 0.00086173
265 9.88772 4.54728 0.130608 0 0 0.999992 0.000760787
1022 9.11681 3.80116 1.52059 0 0 0.999992 0.000821239
1105 9.90014 4.39054 1.6816 0 0 0.999991 0.000787967
182 9.02719 3.90346 0.0647194 0 0 0.999993 0.000808159
192 11.3986 3.67585 0.793432 0 0 0.999994 0.000540498
267 10.6014 4.70457 0.92161 0 0 0.999992 0.000706817
269 11.3817 4.73238 0.233059 0 0 0.999992 0.000611788
1026 10.7124 3.6033 1.6106 0 0 0.999992 0.000634487
1109 11.3618 4.41582 1.7283 0 0 0.999992 0.0006296
186 10.5921 3.88189 0.178811 0 0 0.999993 0.000633011
196 12.4832 3.60931 0.824223 0 0 0.999996 0.000427152
271 12.1703 4.58513 1.01383 0 0 0.999994 0.0005318
1113 12.7187 5.02915 1.71052 0 0 0.999995 0.000541978
275 13.19 4.71297 0.810327 0 0 0.999997 0.000438288
273 12.6117 4.64999 0.0638599 0 0 0.999996 0.000478043
200 13.9428 4.14704 0.703879 0 0 1 0.000332494
1034 13.4449 4.24482 1.60887 0 0 0.999998 0.000407352
1117 14.1563 5.14035 1.53649 0 0 1 0.000416814
279 14.886 5.02822 0.818196 0 0 1 0.000333609
1038 14.9107 4.42881 1.60387 0 0 1 0.000312802
277 14.0919 4.9249 0.0660984 0 0 1 0.000369803
198 14.9017 4.20514 0.100957 0 0 1 0.000264493
204 15.6044 4.07355 0.928416 0 0 1.00001 0.000230753
281 15.8137 4.78042 0.188457 0 0 1.00001 0.00025892
283 16.5294 4.58097 0.902108 0 0 1.00001 0.000232986
1042 16.2557 3.96177 1.69254 0 0 1.00001 0.000223612
1121 15.7527 5.05814 1.64827 0 0 1.00001 0.000319749
208 17.2046 3.82754 0.810579 0 0 1.00002 0.000173718
287 18.0248 4.47454 1.09367 0 0 1.00002 0.000223633
1046 17.8909 3.62834 1.65138 0 0 1.00002 0.000186393
285 17.389 4.56914 0.017192 0 0 1.00002 0.000210773
206 18.0739 3.84144 0.0614188 0 0 1.00002 0.000171253
212 18.8196 3.69068 0.947339 0 0 1.00003 0.00019109
289 18.7693 4.59027 0.35968 0 0 1.00003 0.000235305
291 19.6438 4.64906 1.07731 0 0 1.00003 0.000288798
292 18.732 5.25462 1.19273 0 0 1.00003 0.00029834
210 19.5504 3.74499 0.228357 0 0 1.00003 0.000215152
216 20.4032 3.79423 1.22279 0 0 1.00004 0.000283092
295 20.8602 4.68243 1.37763 0 0 1.00004 0.000379914
297 21.5709 4.91168 0.797691 0 0 1.00004 0.000439686
214 21.0609 3.90155 0.507265 0 0 1.00004 0.00032411
293 20.1008 4.75525 0.34636 0 0 1.00003 0.000309759
219 22.8323 3.59477 1.40255 0 0 1.00005 0.000488947
220 21.9342 4.09624 1.2948 0 0 1.00004 0.000428732
299 22.483 5.12803 1.25594 0 0 1.00005 0.000554781
218 22.6224 4.30753 0.506481 0 0 1.00005 0.000493413
221 23.5992 3.60227 0.771405 0 0 1.00005 0.00055532
222 24.3812 4.28167 0.616656 0 0 1.00005 0.00068269
224 23.4966 4.50433 1.31611 0 0 1.00005 0.000617707
305 24.9177 5.20716 0.556977 0 0 1.00005 0.000813685
301 23.5834 5.01942 0.524202 0 0 1.00005 0.000645869
303 24.4174 5.23991 1.41125 0 0 1.00005 0.000781973
228 25.0748 4.45379 1.59805 0 0 1.00005 0.000802104
225 25.1205 3.64017 0.788684 0 0 1.00005 0.000727967
307 25.7763 5.09304 1.32533 0 0 1.00005 0.000921154
232 26.4491 4.25164 1.35565 0 0 1.00005 0.000930883
309 26.6 4.93296 0.632335 0 0 1.00005 0.000979968
226 25.602 4.36223 0.386237 0 0 1.00005 0.000822948
311 27.4439 4.83221 1.38775 0 0 1.00005 0.00107903
236 28.0757 3.94564 1.09458 0 0 1.00005 0.0010617
313 28.4019 4.70645 0.697411 0 0 1.00005 0.00113901
230 27.1651 4.00816 0.568173 0 0 1.00005 0.000968459
234 29.0561 3.75181 0.477378 0 0 1.00004 0.00111947
315 29.2209 4.49646 1.31617 0 0 1.00004 0.00120464
314 29.5331 5.28517 0.807644 0 0 1.00004 0.00127809
240 30.135 4.04457 1.02212 0 0 1.00004 0.00122363
238 31.1738 3.97198 0.363458 0 0 1.00003 0.00125977
317 30.353 4.66952 0.478328 0 0 1.00004 0.00127401
319 31.1316 4.59326 1.39499 0 0 1.00003 0.00132777
242 1.07503 5.53018 0.46193 0 0 1.00003 0.0014258
323 0.97303 6.21143 1.27726 0 0 1.00003 0.00150979
324 0.435316 6.92119 1.50112 0 0 1.00003 0.00158146
322 1.15438 6.94325 0.570485 0 0 1.00002 0.00156442
321 0.149473 5.9936 0.447556 0 0 1.00003 0.001451
248 1.70064 5.51775 1.38015 0 0 1.00002 0.00145226
328 1.88803 7.0365 1.24688 0 0 1.00002 0.00159495
325 2.05823 6.21049 0.515319 0 0 1.00002 0.00148888
252 3.27048 5.64424 1.30591 0 0 1.00001 0.00143197
327 2.44044 6.17284 1.41868 0 0 1.00002 0.00150705
246 2.84051 5.62305 0.275762 0 0 1.00002 0.00141758
332 3.42369 6.9904 1.14723 0 0 1.00001 0.00155539
329 3.55677 6.30042 0.499234 0 0 1.00001 0.00146051
250 4.33339 5.49088 0.329796 0 0 1.00001 0.00134679
331 4.28277 6.12427 1.24239 0 0 1.00001 0.00143258
333 4.96886 6.26968 0.336312 0 0 1 0.00138394
336 4.92647 6.8442 1.17653 0 0 1 0.0014665
330 4.16261 7.04887 0.229063 0 0 1.00001 0.00150758
256 5.07053 5.46543 1.32611 0 0 1 0.00132573
254 5.89574 5.45292 0.304719 0 0 1 0.00123939
335 5.81811 6.27859 0.97665 0 0 0.999999 0.00134126
1177 6.57855 6.03292 1.62382 0 0 0.999996 0.00128069
340 6.55894 6.91904 1.02019 0 0 0.999995 0.00134711
337 6.4985 6.09479 0.155551 0 0 0.999997 0.00124897
264 8.28211 5.3613 0.709124 0 0 0.999992 0.00101572
339 7.42167 6.20401 0.769872 0 0 0.999993 0.00118639
1098 7.48545 5.46277 1.51855 0 0 0.999994 0.00113444
1181 8.31666 6.16475 1.52302 0 0 0.99999 0.00112101
344 8.10588 6.9091 0.744064 0 0 0.99999 0.00118719
1178 7.39347 6.91295 1.62911 0 0 0.999992 0.00130177
258 7.41653 5.40165 0.045898 0 0 0.999994 0.00109819
268 9.80386 5.36885 0.808384 0 0 0.999991 0.000850749
343 8.94558 6.24051 0.752426 0 0 0.999989 0.00103004
1102 9.10717 5.37777 1.62228 0 0 0.99999 0.000962438
1185 9.78483 6.24177 1.4996 0 0 0.999989 0.000965628
1182 9.15977 7.01146 1.4952 0 0 0.999987 0.00111848
345 9.80374 6.28514 0.0987195 0 0 0.99999 0.000927334
262 9.05156 5.51564 0.0182263 0 0 0.999991 0.000937668
272 11.391 5.31737 1.00523 0 0 0.999991 0.000676321
347 10.6092 6.07274 0.980247 0 0 0.999989 0.000831339
349 11.3221 6.4179 0.0804675 0 0 0.99999 0.000769074
346 10.551 6.99735 0.156789 0 0 0.999988 0.000912902
1186 10.5056 6.98443 1.52873 0 0 0.999987 0.000966379
270 11.987 5.66608 0.187689 0 0 0.999992 0.000625574
276 12.6542 5.85322 0.875877 0 0 0.999994 0.000588718
351 11.7751 6.25575 1.07215 0 0 0.999991 0.000723203
1114 13.2952 5.90203 1.58016 0 0 0.999995 0.000559444
355 13.3241 6.61534 0.824245 0 0 0.999995 0.000592601
274 13.2847 5.57056 0.0446226 0 0 0.999997 0.000488525
280 14.0189 5.74295 0.783163 0 0 0.999999 0.000452409
1197 14.2848 6.67841 1.42645 0 0 0.999998 0.00054357
357 14.0884 6.41214 0.0408365 0 0 0.999998 0.000494521
278 14.9687 5.65673 0.0375654 0 0 1 0.000367517
359 14.9952 6.46895 0.813994 0 0 1 0.000448596
284 15.7714 5.74568 0.960126 0 0 1.00001 0.000348531
363 16.4328 6.45483 1.14537 0 0 1.00001 0.000392641
1118 15.0561 5.89182 1.71008 0 0 1 0.000431012
282 16.5575 5.41947 0.276913 0 0 1.00001 0.000282983
361 15.6202 6.35063 0.0424651 0 0 1.00001 0.000390353
286 17.7684 5.29211 0.539831 0 0 1.00002 0.000266947
288 17.0501 5.41993 1.24708 0 0 1.00002 0.000296436
365 17.0052 6.27088 0.411376 0 0 1.00001 0.000344602
367 17.6085 6.23477 1.37949 0 0 1.00002 0.00036734
372 18.225 7.03304 1.12894 0 0 1.00002 0.000434436
369 18.3207 6.21119 0.608366 0 0 1.00002 0.000348079
290 19.3878 5.72805 0.614743 0 0 1.00003 0.00034537
371 19.2868 6.5257 1.33436 0 0 1.00003 0.000430043
373 19.9649 6.71288 0.602648 0 0 1.00003 0.000458291
294 20.7306 5.73482 0.643614 0 0 1.00004 0.000429952
296 20.1594 5.57363 1.37975 0 0 1.00003 0.000398103
375 20.7636 6.56657 1.28412 0 0 1.00004 0.000523763
377 21.6599 6.61401 0.656182 0 0 1.00004 0.000582879
300 21.6602 5.82927 1.36144 0 0 1.00004 0.000537896
16260 21.6889 5.68826 0.0521449 0 0 1.00004 0.000500466
298 22.6922 5.78089 0.658515 0 0 1.00005 0.000613679
379 22.6577 6.63716 1.18381 0 0 1.00005 0.000702931
381 23.3902 6.72141 0.263189 0 0 1.00005 0.000764386
304 23.523 5.83299 1.27364 0 0 1.00005 0.000726493
383 24.3869 6.50913 1.13939 0 0 1.00005 0.000883186
302 24.1983 5.95235 0.416909 0 0 1.00005 0.000789891
306 25.7744 5.81361 0.68531 0 0 1.00005 0.000964456
308 25.1924 5.98509 1.64511 0 0 1.00005 0.00094813
385 25.2444 6.68316 0.48408 0 0 1.00005 0.000978546
387 25.9341 6.5443 1.38247 0 0 1.00005 0.00107554
312 26.8025 5.8013 1.45182 0 0 1.00005 0.00110153
310 27.6207 5.50728 0.709376 0 0 1.00005 0.00113458
389 26.8648 6.32067 0.636677 0 0 1.00005 0.00112934
391 27.8361 6.42679 1.34739 0 0 1.00005 0.00126018
390 27.8518 6.9651 0.518678 0 0 1.00005 0.00128823
316 28.5042 5.48938 1.46363 0 0 1.00005 0.00123825
395 29.5952 6.16014 1.3088 0 0 1.00004 0.00137874
394 29.7448 6.88615 0.503039 0 0 1.00004 0.00143647
393 28.6149 6.17474 0.634637 0 0 1.00005 0.0012846
16355 29.5277 6.11883 0.0751113 0 0 1.00004 0.00134224
16276 28.6171 5.36257 0.0523536 0 0 1.00005 0.00120556
318 31.1253 5.35149 0.591255 0 0 1.00003 0.0013696
320 30.377 5.43719 1.45144 0 0 1.00004 0.00136482
397 30.5576 6.1659 0.641155 0 0 1.00004 0.00141768
399 31.3889 6.14081 1.37781 0 0 1.00003 0.00147482
398 31.3836 6.93902 0.603614 0 0 1.00003 0.00152959
401 0.452836 7.6324 0.656374 0 0 1.00003 0.00162428
402 1.04218 8.46973 0.611633 0 0 1.00003 0.00171931
403 1.30576 7.85926 1.49646 0 0 1.00002 0.00169334
404 0.55967 8.55289 1.46548 0 0 1.00003 0.0017543
405 1.78634 7.77225 0.378155 0 0 1.00002 0.001646
408 1.9336 8.63016 1.46903 0 0 1.00002 0.00177382
326 2.66247 7.16082 0.475347 0 0 1.00002 0.00157469
406 2.39969 8.63959 0.402475 0 0 1.00002 0.00173061
407 2.58714 7.82743 1.28816 0 0 1.00002 0.00167137
412 3.2155 8.54119 0.949738 0 0 1.00001 0.00171858
409 3.42256 7.78989 0.332132 0 0 1.00001 0.00161522
410 3.99997 8.48955 0.0811664 0 0 1.00001 0.00166454
411 4.15569 7.68744 1.25178 0 0 1.00001 0.00160129
416 4.87331 8.30238 0.945328 0 0 1 0.00161764
413 4.83717 7.67859 0.24595 0 0 1 0.00153461
334 5.68798 7.09072 0.153563 0 0 0.999999 0.00141678
414 6.02201 8.39505 0.177949 0 0 0.999995 0.00152986
415 5.63732 7.62732 1.04354 0 0 0.999998 0.00149774
417 6.62043 7.59285 0.173049 0 0 0.999994 0.00139376
420 6.53944 8.2754 1.06722 0 0 0.999994 0.00149731
419 7.4049 7.81966 0.765442 0 0 0.999991 0.00135814
1258 7.40457 8.23297 1.73617 0 0 0.999989 0.00145576
1261 8.15579 7.54622 1.59408 0 0 0.999988 0.00129343
421 8.09712 7.66002 0.029167 0 0 0.999989 0.0012575
424 8.38076 8.37423 0.89356 0 0 0.999987 0.00132555
348 9.88921 7.27613 0.743994 0 0 0.999987 0.00103192
423 8.98963 7.67322 0.679664 0 0 0.999987 0.00117314
428 9.79824 8.67689 0.715524 0 0 0.999984 0.00119346
1262 9.17661 8.75921 1.48609 0 0 0.999984 0.00131756
1265 9.71506 7.94786 1.63715 0 0 0.999985 0.00117337
352 11.3273 7.19443 0.828001 0 0 0.999988 0.000861957
427 10.6141 7.99892 0.86576 0 0 0.999986 0.00103098
1266 10.6362 8.7675 1.46794 0 0 0.999984 0.00114964
1269 11.4252 7.86624 1.63857 0 0 0.999986 0.000967347
429 11.2511 8.17201 0.0467371 0 0 0.999987 0.000955197
356 12.6935 7.33004 0.580367 0 0 0.999992 0.00071921
431 12.1819 8.27956 0.609258 0 0 0.999988 0.000874381
1190 12.0725 7.20807 1.40852 0 0 0.999989 0.000807854
1270 12.1002 8.73358 1.52973 0 0 0.999986 0.000982097
1273 12.8493 8.04475 1.50747 0 0 0.999989 0.000822626
350 11.9002 7.43649 0.000661028 0 0 0.999989 0.000805351
360 14.2905 7.38134 0.599884 0 0 0.999998 0.000578337
435 13.5909 8.13075 0.479264 0 0 0.999993 0.000710146
1194 13.4393 7.37688 1.3685 0 0 0.999993 0.000683521
1277 14.2185 8.20875 1.37537 0 0 0.999995 0.000702604
439 15.0308 8.31261 0.875433 0 0 1 0.000626508
362 16.3784 7.18651 0.281691 0 0 1.00001 0.000437
364 15.5797 7.32193 0.924532 0 0 1 0.000498025
443 16.2136 8.16497 1.11583 0 0 1.00001 0.000561294
1198 15.0979 7.54218 1.64651 0 0 1 0.000588018
441 15.8135 8.3205 0.155743 0 0 1.00001 0.000564277
368 16.9244 7.35587 1.11696 0 0 1.00001 0.000463528
445 17.0135 8.10037 0.338051 0 0 1.00001 0.000507634
447 17.66 8.01085 1.02609 0 0 1.00002 0.000515776
366 17.7647 7.15403 0.216691 0 0 1.00002 0.000415857
370 18.9675 7.30831 0.634863 0 0 1.00003 0.000462484
451 18.8928 8.12326 1.17188 0 0 1.00003 0.000556949
376 19.8477 7.61632 1.3058 0 0 1.00003 0.000559418
453 19.7787 8.10159 0.35596 0 0 1.00003 0.000567812
449 18.409 8.16708 0.173879 0 0 1.00002 0.000516037
374 20.6874 7.41516 0.659412 0 0 1.00004 0.000572335
455 20.6434 8.39047 1.01563 0 0 1.00004 0.000673194
380 21.5518 7.61829 1.12572 0 0 1.00004 0.000681815
457 21.6253 8.29071 0.254413 0 0 1.00004 0.000726002
459 22.6258 8.12046 0.994694 0 0 1.00005 0.000833558
1218 22.449 7.4404 1.72169 0 0 1.00005 0.000787135
378 22.3611 7.4288 0.377931 0 0 1.00005 0.000719967
384 23.4972 7.26487 1.03289 0 0 1.00005 0.00084732
461 23.5446 8.0185 0.373677 0 0 1.00005 0.000907983
463 24.4254 8.03766 0.975583 0 0 1.00005 0.00102984
1302 24.3427 8.6605 1.6507 0 0 1.00006 0.00112593
382 24.4075 7.26669 0.264963 0 0 1.00005 0.000931984
462 24.3982 8.76308 0.202782 0 0 1.00006 0.00107839
388 25.2117 7.33582 1.22692 0 0 1.00005 0.00106385
467 26.1427 7.9523 0.969836 0 0 1.00005 0.00122156
1306 26.1524 8.56945 1.7185 0 0 1.00006 0.00133361
386 26.2004 7.22131 0.362498 0 0 1.00005 0.0011368
465 25.3282 8.06872 0.302763 0 0 1.00005 0.00112067
466 26.4003 8.53263 0.0881219 0 0 1.00006 0.00128933
468 25.3957 8.79836 0.983936 0 0 1.00006 0.00122468
392 26.9149 7.06408 1.31761 0 0 1.00005 0.00123135
470 28.1263 8.46191 0.414738 0 0 1.00005 0.00146432
471 27.9552 7.78993 1.19309 0 0 1.00005 0.00140464
472 27.1273 8.60592 1.00518 0 0 1.00005 0.00139987
469 27.1334 7.73452 0.425231 0 0 1.00005 0.00129029
396 28.8094 7.0733 1.21394 0 0 1.00005 0.00140623
474 29.7802 8.3358 0.53663 0 0 1.00004 0.00158644
475 29.6755 7.64975 1.26486 0 0 1.00004 0.00153107
476 28.9557 8.5201 1.16909 0 0 1.00005 0.00156603
473 28.8631 7.68783 0.40991 0 0 1.00005 0.00144987
400 30.505 7.06942 1.17186 0 0 1.00004 0.00151888
479 31.4416 7.80639 1.29332 0 0 1.00003 0.00164255
480 30.6275 8.469 1.17715 0 0 1.00004 0.00167056
477 30.8238 7.8554 0.379743 0 0 1.00004 0.00159349
478 31.6278 8.60607 0.389795 0 0 1.00003 0.00170326
482 1.34591 10.2841 0.27009 0 0 1.00002 0.00189818
483 1.23504 9.36945 1.20198 0 0 1.00002 0.00183711
484 0.478394 9.92803 0.899571 0 0 1.00003 0.00186773
481 0.580052 9.33517 0.124025 0 0 1.00003 0.00179444
1322 1.04343 10.1267 1.75252 0 0 1.00003 0.00194856
485 1.96516 9.46196 0.448976 0 0 1.00002 0.00182176
488 2.05087 10.3702 0.974727 0 0 1.00002 0.00192734
486 2.80417 10.2911 0.0797335 0 0 1.00001 0.00188619
487 2.58475 9.46016 1.2267 0 0 1.00002 0.00184212
1326 2.99007 10.2514 1.68248 0 0 1.00001 0.00194536
489 3.27561 9.38574 0.089242 0 0 1.00001 0.00178546
1329 3.41766 9.26533 1.67937 0 0 1.00001 0.00182931
492 3.58677 10.0624 0.749288 0 0 1.00001 0.00185694
491 4.12454 9.14006 0.86904 0 0 1.00001 0.00174482
493 4.75493 9.22361 0.00679239 0 0 1 0.00170309
496 4.79308 10.0152 0.579976 0 0 1 0.00179287
1330 4.32606 10.0008 1.63123 0 0 1 0.00186962
1333 4.85965 9.1038 1.66979 0 0 1 0.00174841
495 5.49754 8.99325 0.672306 0 0 0.999998 0.00164368
500 6.39831 9.8429 0.529438 0 0 0.999992 0.00166181
1334 5.50209 9.87534 1.19517 0 0 0.999997 0.00175986
1337 6.31144 9.10942 1.28652 0 0 0.999993 0.00162304
1417 6.41038 10.5611 1.21908 0 0 0.999991 0.00176647
499 7.2968 8.93362 0.730817 0 0 0.999989 0.00149118
501 8.20702 9.10349 0.0868726 0 0 0.999987 0.00140388
504 8.0857 9.98182 0.593425 0 0 0.999986 0.00152016
1338 7.31671 9.79276 1.2245 0 0 0.999988 0.00160739
1341 8.16334 9.22395 1.43347 0 0 0.999985 0.00147615
503 9.03537 9.50958 0.747977 0 0 0.999983 0.00137501
508 9.73001 10.3889 0.682815 0 0 0.999982 0.00138672
1342 8.86383 10.3156 1.4487 0 0 0.999981 0.001525
1345 9.90633 9.64453 1.45344 0 0 0.999981 0.00133328
432 11.3989 8.90031 0.751947 0 0 0.999986 0.00103359
426 10.4551 8.93876 0.0411013 0 0 0.999985 0.00113126
507 10.5232 9.73607 0.677242 0 0 0.999982 0.00122558
1346 10.6972 10.2303 1.68047 0 0 0.99998 0.00132736
1349 11.3501 9.6846 1.35456 0 0 0.999983 0.00116238
436 12.9922 9.00135 0.803586 0 0 0.999989 0.000871063
511 12.124 9.8589 0.706751 0 0 0.999984 0.0010525
516 12.8294 10.5172 0.982665 0 0 0.999985 0.00105455
1353 12.563 9.66431 1.64962 0 0 0.999985 0.00104799
1274 13.6719 8.88616 1.59608 0 0 0.99999 0.000842252
440 14.4362 9.22101 0.773303 0 0 0.999995 0.000758509
515 13.5228 9.72374 0.855589 0 0 0.99999 0.000895762
1354 13.5003 10.453 1.74237 0 0 0.999986 0.00104393
517 14.2503 10.1754 0.222951 0 0 0.999993 0.000850761
444 15.8591 9.16789 1.14346 0 0 1 0.000679669
519 15.1023 9.88041 1.02533 0 0 0.999998 0.000787452
521 15.6543 10.1908 0.254451 0 0 1 0.000751647
523 16.4686 9.96179 0.967031 0 0 1.00001 0.000721003
442 16.4634 9.0378 0.263938 0 0 1.00001 0.000608115
438 15.2572 9.2213 0.10422 0 0 1 0.000681376
452 18.2647 8.88008 0.938958 0 0 1.00002 0.000601439
448 17.0527 9.06317 1.1285 0 0 1.00001 0.000628859
525 17.1183 10.021 0.207064 0 0 1.00001 0.000683068
527 17.7431 9.857 1.06888 0 0 1.00002 0.000696706
446 17.7244 9.09653 0.118887 0 0 1.00002 0.000592999
456 19.8097 8.92547 1.04924 0 0 1.00003 0.000672017
529 18.5707 9.71448 0.299401 0 0 1.00002 0.000664985
531 19.4927 9.86978 0.8443 0 0 1.00003 0.000733063
532 18.7041 10.4366 1.13664 0 0 1.00003 0.00077104
1369 18.6331 9.56584 1.69758 0 0 1.00003 0.000730474
450 19.2174 8.93507 0.209729 0 0 1.00003 0.000613804
533 19.9861 9.75438 0.07113 0 0 1.00004 0.000730667
535 20.9475 9.77114 0.74267 0 0 1.00004 0.000820037
1373 20.2517 9.62941 1.64899 0 0 1.00004 0.000812989
454 20.7953 9.0396 0.202279 0 0 1.00004 0.000723939
460 21.655 8.99043 0.962127 0 0 1.00005 0.000817945
1374 21.1134 10.0697 1.75559 0 0 1.00005 0.000934562
1298 22.4448 8.83828 1.5608 0 0 1.00005 0.000919442
539 22.8909 9.64486 0.790404 0 0 1.00005 0.00100475
540 22.1517 10.4816 0.850965 0 0 1.00005 0.00100543
1377 21.9659 9.74445 1.51394 0 0 1.00005 0.000960057
1378 23.1123 10.4678 1.41914 0 0 1.00006 0.00115081
458 22.8037 8.82379 0.197312 0 0 1.00005 0.000897999
537 22.0085 9.76525 0.209168 0 0 1.00005 0.000903902
464 23.5025 8.9193 0.953553 0 0 1.00005 0.00100931
543 24.6167 9.51961 0.750134 0 0 1.00006 0.00119638
1381 23.7804 9.56031 1.53403 0 0 1.00006 0.00114874
1382 24.4973 10.301 1.43052 0 0 1.00006 0.00129938