ITEM: TIMESTEP
8500
ITEM: NUMBER OF ATOMS
32000
ITEM: BOX BOUNDS pp pp pp
0.0000000000000000e+00 3.1748021039364001e+01
0.0000000000000000e+00 3.1748021039364001e+01
0.0000000000000000e+00 3.1748021039364001e+01
ITEM: ATOMS id x y z c_phase c_nbond c_rho vx
4 0.147301 1.10166 0.465773 0 0 1.00001 0.00064
83 1.00417 1.66865 0.779314 0 0 1.00001 0.000646839
842 0.745767 0.793239 1.41261 0 0 1.00001 0.000645463
921 0.0354721 1.6018 1.37582 0 0 1.00001 0.000655913
3 0.760126 0.0649558 0.617803 0 0 1.00001 0.000633102
8 1.73998 0.811952 1.01574 0 0 1.00001 0.00062148
85 1.8309 1.47776 0.220227 0 0 1.00001 0.000620918
925 1.85335 1.66171 1.76141 0 0 1.00001 0.000641444
6 2.54791 0.74937 0.204249 0 0 1 0.000583866
7 2.61798 0.0549089 1.03858 0 0 1 0.000583586
87 2.67646 1.54289 0.883173 0 0 1 0.000590922
846 2.69816 0.817855 1.74641 0 0 1 0.000593533
12 3.45804 0.934392 0.959212 0 0 0.999996 0.000539364
849 3.52343 0.0922033 1.7091 0 0 0.999996 0.00054055
929 3.63189 1.71029 1.72245 0 0 0.999996 0.000548782
10 4.12945 0.859955 0.325347 0 0 0.999993 0.000485506
16 4.98238 0.56876 1.17552 0 0 0.999989 0.00041686
93 4.93892 1.60316 0.384969 0 0 0.999989 0.000426053
850 4.3672 0.944107 1.63339 0 0 0.999992 0.000480336
9 3.50006 0.110447 0.172128 0 0 0.999996 0.000526612
14 5.6631 0.646825 0.326165 0 0 0.999986 0.000345263
95 5.899 1.31436 0.941747 0 0 0.999985 0.00033024
97 6.58591 1.39534 0.219304 0 0 0.999982 0.000251225
854 5.79983 0.461587 1.70361 0 0 0.999986 0.000342425
933 5.04955 1.72715 1.43957 0 0 0.999989 0.000425037
20 6.72401 0.392167 0.868522 0 0 0.999982 0.000232497
937 6.70185 1.01296 1.69888 0 0 0.999982 0.000247207
24 8.26875 0.410383 1.07671 0 0 0.999978 4.91839e-05
99 7.37433 1.22681 0.957123 0 0 0.99998 0.000161294
101 8.24817 1.39518 0.237861 0 0 0.999978 5.28431e-05
941 8.13082 1.27639 1.61213 0 0 0.999978 7.43991e-05
18 7.58752 0.65024 0.141423 0 0 0.999979 0.00012884
22 8.85575 0.51017 0.27481 0 0 0.999977 -2.63159e-05
28 9.54643 0.339456 0.892107 0 0 0.999977 -0.000109616
103 9.02197 1.31149 1.11649 0 0 0.999977 -3.94979e-05
105 9.63225 1.37842 0.0910609 0 0 0.999977 -0.000118756
32 11.1955 0.216611 0.635725 0 0 0.999978 -0.000302034
107 10.352 1.05101 0.826173 0 0 0.999978 -0.000205783
866 10.51 0.197428 1.45015 0 0 0.999978 -0.000223462
949 11.2692 1.02082 1.42216 0 0 0.999978 -0.00030978
946 10.5659 1.68276 1.73494 0 0 0.999978 -0.000226668
26 10.2323 0.368831 0.0785445 0 0 0.999977 -0.000193227
36 12.852 0.213117 0.639181 0 0 0.999983 -0.000462283
111 12.0235 1.07688 0.509375 0 0 0.99998 -0.000388852
870 12.11 0.317254 1.30382 0 0 0.999981 -0.000395985
953 12.6951 1.20031 1.3763 0 0 0.999982 -0.000452518
40 14.344 0.321916 0.769954 0 0 0.99999 -0.000563084
115 13.5638 1.11408 0.845811 0 0 0.999986 -0.000518725
117 14.0123 1.56141 0.165735 0 0 0.999989 -0.000549712
874 13.581 0.360858 1.63839 0 0 0.999986 -0.000520558
957 14.3479 1.15164 1.47964 0 0 0.99999 -0.000567963
119 14.8464 1.55472 0.664036 0 0 0.999993 -0.000589653
44 15.6759 0.76915 0.788251 0 0 0.999998 -0.000608872
123 16.5201 1.54333 0.681589 0 0 1 -0.000616918
878 15.111 0.464555 1.64256 0 0 0.999994 -0.00059882
882 16.5148 0.711165 1.34222 0 0 1 -0.000615383
961 15.6004 1.48736 1.39266 0 0 0.999997 -0.00061378
38 15.0735 0.711743 0.0673158 0 0 0.999994 -0.000592635
48 17.2259 0.731036 0.549225 0 0 1.00001 -0.000601068
127 17.8935 1.57974 0.755897 0 0 1.00001 -0.000583489
886 17.8864 0.742487 1.42595 0 0 1.00001 -0.000582851
965 17.1879 1.74696 1.56201 0 0 1.00001 -0.000611827
51 19.5133 0.0156936 0.661963 0 0 1.00002 -0.000477846
52 18.7651 0.724614 0.684297 0 0 1.00002 -0.000532978
131 19.5152 1.55138 0.840032 0 0 1.00002 -0.000482372
889 19.0004 0.157079 1.5428 0 0 1.00002 -0.000520966
890 19.5692 0.965442 1.687 0 0 1.00002 -0.000478776
969 18.6301 1.50925 1.49802 0 0 1.00002 -0.000547494
55 21.075 0.348814 1.06483 0 0 1.00003 -0.000334254
56 20.2281 0.774731 0.977021 0 0 1.00003 -0.000417787
135 21.089 1.65102 0.950013 0 0 1.00003 -0.000331289
54 21.1711 0.763591 0.217784 0 0 1.00003 -0.000322806
133 20.3251 1.51075 0.194278 0 0 1.00003 -0.000410115
57 21.9979 0.26228 0.538048 0 0 1.00003 -0.000231045
59 22.7852 0.428631 1.40294 0 0 1.00003 -0.000136065
60 22.1 1.14435 1.32601 0 0 1.00003 -0.000217159
137 21.9865 1.59503 0.536034 0 0 1.00003 -0.000231362
58 22.9098 1.07036 0.444498 0 0 1.00004 -0.000120663
63 24.2311 0.378765 1.44696 0 0 1.00004 4.65197e-05
61 23.5654 0.356085 0.572074 0 0 1.00004 -4.06051e-05
62 24.4401 1.18272 0.752305 0 0 1.00004 7.07985e-05
64 23.4738 1.24534 1.39824 0 0 1.00004 -4.62353e-05
65 24.9618 0.314651 0.550171 0 0 1.00004 0.000132395
67 26.0207 0.381727 1.1684 0 0 1.00004 0.000257935
68 25.1769 1.12227 1.47587 0 0 1.00004 0.000166973
147 25.9428 1.73005 1.35363 0 0 1.00004 0.000261938
66 25.9036 0.927221 0.430404 0 0 1.00004 0.000243959
70 27.5941 1.27792 0.387714 0 0 1.00003 0.0004234
71 27.6344 0.507537 0.872488 0 0 1.00003 0.000423557
72 26.7722 1.02554 1.25977 0 0 1.00003 0.000345528
913 28.4 0.337787 1.39786 0 0 1.00003 0.000492334
69 26.8087 0.239804 0.226525 0 0 1.00003 0.000337757
76 28.6739 1.23896 0.739716 0 0 1.00003 0.000513802
914 29.4162 0.946772 1.56697 0 0 1.00003 0.000569054
993 28.547 1.71691 1.49597 0 0 1.00003 0.000518395
917 29.8431 0.172086 1.45924 0 0 1.00002 0.000586768
75 29.2997 0.354309 0.614649 0 0 1.00003 0.000547533
841 31.6185 0.266666 1.25684 0 0 1.00002 0.00063869
79 30.733 0.487609 0.472109 0 0 1.00002 0.000613841
80 30.1281 1.19766 0.773313 0 0 1.00002 0.00059996
918 30.8943 0.971319 1.39312 0 0 1.00002 0.000631565
82 1.14158 2.43749 0.128262 0 0 1.00001 0.00065777
84 0.165252 2.38233 0.811673 0 0 1.00001 0.000666062
163 1.31972 3.23834 0.949163 0 0 1.00001 0.000683466
922 1.17128 2.36293 1.59218 0 0 1.00001 0.000670889
1001 0.419043 3.03196 1.54972 0 0 1.00001 0.000696481
161 0.364236 3.09759 0.131357 0 0 1.00001 0.000682494
88 1.94036 2.42039 0.784938 0 0 1 0.000639938
167 2.68716 3.28432 0.861801 0 0 1 0.000633161
926 2.69872 2.23362 1.53715 0 0 1 0.000612747
1009 3.28681 3.43073 1.65306 0 0 0.999999 0.000616152
86 2.75343 2.38521 0.0558201 0 0 1 0.000599656
92 3.40841 2.55887 0.781581 0 0 0.999998 0.000568488
91 4.03062 1.84391 0.713121 0 0 0.999994 0.000506739
96 4.93343 2.57796 0.818354 0 0 0.99999 0.000446861
171 4.22551 3.32382 0.751772 0 0 0.999994 0.000528199
930 4.15795 2.64643 1.58635 0 0 0.999994 0.000526474
94 5.66696 2.44917 0.133859 0 0 0.999987 0.000365395
100 6.56954 2.18699 0.775733 0 0 0.999983 0.000265859
175 5.66652 3.20392 0.956153 0 0 0.999987 0.000388927
934 5.87686 2.20108 1.50086 0 0 0.999986 0.000352746
1017 6.53406 3.07555 1.56062 0 0 0.999984 0.000296033
177 6.66145 2.93645 0.134764 0 0 0.999983 0.000265234
98 7.46024 2.23247 0.140555 0 0 0.99998 0.00015849
104 8.0849 2.20881 0.934093 0 0 0.999979 8.37308e-05
179 7.40861 3.07694 0.937279 0 0 0.999981 0.000183118
938 7.3069 2.06691 1.57389 0 0 0.999981 0.00018518
1021 8.188 3.0111 1.65848 0 0 0.999979 8.9774e-05
181 8.27099 2.97984 0.0398463 0 0 0.999979 6.66908e-05
102 8.90142 2.09371 0.253574 0 0 0.999978 -2.35018e-05
108 9.76454 2.0306 1.11332 0 0 0.999977 -0.000128672
183 8.9238 2.98153 0.932789 0 0 0.999978 -1.41816e-05
942 9.0271 2.22797 1.71037 0 0 0.999978 -2.97749e-05
185 9.55434 2.91432 0.213872 0 0 0.999978 -0.000100061
106 10.272 2.11962 0.214817 0 0 0.999978 -0.000194641
112 11.1419 1.83173 0.773897 0 0 0.999979 -0.00029583
187 10.6078 2.81581 0.924879 0 0 0.999977 -0.000231028
1029 11.4251 2.8378 1.58121 0 0 0.999979 -0.000322466
116 12.6496 1.94525 0.596253 0 0 0.999982 -0.000449829
191 11.907 2.64817 0.744251 0 0 0.99998 -0.000379471
950 11.9037 1.92516 1.46989 0 0 0.99998 -0.000377763
1033 12.8188 3.02409 1.69203 0 0 0.999983 -0.000467136
195 13.1553 3.03391 0.849135 0 0 0.999984 -0.0004979
954 13.3518 1.99507 1.48383 0 0 0.999985 -0.000509126
120 13.9911 2.44811 0.927447 0 0 0.999988 -0.000554315
1037 13.9971 3.38902 1.55965 0 0 0.999987 -0.000561462
199 14.6644 3.43972 0.884484 0 0 0.999991 -0.000599937
958 14.7535 2.30066 1.4474 0 0 0.999992 -0.000594151
118 14.8102 2.51592 0.13726 0 0 0.999993 -0.000596223
197 14.1276 3.22856 0.0344957 0 0 0.999989 -0.000568181
114 13.3865 2.29874 0.0588018 0 0 0.999985 -0.000511406
124 15.6659 2.44292 0.694521 0 0 0.999997 -0.000620331
203 16.2709 3.20028 0.664757 0 0 1 -0.000634558
962 16.2751 2.47843 1.52535 0 0 1 -0.000629055
1041 15.3381 3.2585 1.50345 0 0 0.999994 -0.000623239
201 15.537 3.25967 0.0209451 0 0 0.999996 -0.000626744
128 17.0336 2.35006 0.682562 0 0 1.00001 -0.000616923
207 17.9132 2.92364 0.699582 0 0 1.00001 -0.000593515
966 17.9881 2.43547 1.58032 0 0 1.00001 -0.00058837
1045 17.0582 3.1136 1.49476 0 0 1.00001 -0.000626585
132 18.8635 2.35392 1.01136 0 0 1.00002 -0.000536217
211 19.6761 3.2346 1.27426 0 0 1.00002 -0.000478546
209 18.8556 2.99159 0.194636 0 0 1.00002 -0.000540116
130 19.5634 2.33614 0.101861 0 0 1.00002 -0.000481141
973 20.3037 1.78283 1.72122 0 0 1.00002 -0.000414437
134 21.1409 2.41054 0.456462 0 0 1.00003 -0.000327932
136 20.1733 2.46179 1.11075 0 0 1.00002 -0.000427933
215 21.2939 3.2863 1.38723 0 0 1.00003 -0.000308369
213 20.4007 2.98702 0.33318 0 0 1.00003 -0.000406201
139 22.8662 2.06251 1.50429 0 0 1.00003 -0.000121675
138 22.966 2.59419 0.732666 0 0 1.00003 -0.000106895
140 22.0841 2.49139 1.23385 0 0 1.00003 -0.000214545
217 21.9771 3.19148 0.597034 0 0 1.00003 -0.000226624
16179 22.6708 3.39102 0.0744773 0 0 1.00003 -0.000139624
141 23.7431 1.80275 0.621903 0 0 1.00004 -1.19278e-05
143 24.4325 1.98107 1.60512 0 0 1.00004 8.26495e-05
142 24.3455 2.67472 0.772288 0 0 1.00004 7.33923e-05
144 23.6878 2.89318 1.53057 0 0 1.00003 -4.07821e-06
223 24.4778 3.50007 1.5509 0 0 1.00004 0.000110059
16108 24.9633 2.83672 0.0146094 0 0 1.00004 0.000153763
149 26.5642 1.78941 0.509958 0 0 1.00004 0.000327122
145 25.1401 1.8505 0.508248 0 0 1.00004 0.000162564
146 25.8042 2.60451 0.704816 0 0 1.00004 0.00025409
148 25.167 2.54829 1.51991 0 0 1.00004 0.000180768
227 25.7341 3.48812 1.50718 0 0 1.00003 0.000272097
152 26.5526 2.55388 1.52573 0 0 1.00003 0.000347538
229 26.1846 3.49197 0.596326 0 0 1.00003 0.000318076
151 27.5243 1.98098 1.23417 0 0 1.00003 0.000433765
153 28.273 2.08651 0.343076 0 0 1.00003 0.000494672
150 27.106 2.68608 0.642596 0 0 1.00003 0.000400741
231 27.2217 3.34616 1.4123 0 0 1.00003 0.000437945
156 28.2779 2.75232 1.20271 0 0 1.00003 0.000516603
233 28.0057 3.21432 0.326839 0 0 1.00003 0.000496997
997 29.987 1.80669 1.70563 0 0 1.00002 0.000615141
155 29.4745 2.04183 0.879479 0 0 1.00003 0.000580973
154 29.2223 2.65764 0.289332 0 0 1.00003 0.000575635
235 29.2789 3.2593 1.1733 0 0 1.00003 0.000604811
159 30.9416 1.98288 0.923645 0 0 1.00002 0.000643331
160 30.2117 2.70847 1.00078 0 0 1.00002 0.000635845
239 31.0572 3.34868 0.971764 0 0 1.00002 0.000683791
998 31.018 2.69311 1.72576 0 0 1.00002 0.000675382
237 30.1417 3.2535 0.135193 0 0 1.00002 0.000642621
157 30.4399 1.90695 0.026936 0 0 1.00002 0.000620057
158 31.1741 2.66202 0.0761604 0 0 1.00002 0.000659626
164 0.32791 3.78443 0.919165 0 0 1.00001 0.000711758
241 0.177871 4.59605 0.480695 0 0 1.00001 0.000740076
243 1.17374 4.67232 0.987713 0 0 1.00001 0.000742287
244 0.126272 5.26674 1.27703 0 0 1.00002 0.000783123
162 1.0743 3.86439 0.0618599 0 0 1.00001 0.000702928
168 1.87548 4.04848 0.848479 0 0 1.00001 0.000695796
247 2.57255 4.86148 1.13779 0 0 1 0.000705106
166 2.68023 4.14939 0.206595 0 0 1 0.000658816
245 1.9315 4.97138 0.279604 0 0 1.00001 0.000727882
249 3.43776 4.86846 0.162461 0 0 0.999999 0.000641382
172 3.52136 4.0831 0.888176 0 0 0.999998 0.000609814
176 4.93486 4.00964 1.18574 0 0 0.999991 0.000491902
251 4.07561 4.88865 1.15034 0 0 0.999996 0.000603844
170 4.28469 4.19191 0.148991 0 0 0.999994 0.000548062
253 5.03209 4.75024 0.341566 0 0 0.999992 0.000500282
174 5.79325 3.94743 0.198788 0 0 0.999988 0.000389805
180 6.5036 3.77659 0.776175 0 0 0.999984 0.00030832
255 5.70112 4.74657 1.03006 0 0 0.999989 0.000435203
1097 6.67714 4.5246 1.65073 0 0 0.999985 0.000324426
260 6.69387 5.14529 0.888987 0 0 0.999985 0.000330306
184 8.20092 3.90289 0.704588 0 0 0.99998 9.43218e-05
259 7.41649 4.47306 0.550082 0 0 0.999982 0.000210634
1018 7.40737 3.88161 1.50371 0 0 0.999981 0.000209224
1101 8.20353 4.62476 1.49424 0 0 0.99998 0.000120753
188 9.88825 3.58881 0.889923 0 0 0.999978 -0.000133449
263 9.07543 4.57881 0.825921 0 0 0.999979 -9.52014e-06
265 9.85316 4.51644 0.127684 0 0 0.999978 -0.00012154
1022 9.07408 3.77456 1.50528 0 0 0.999978 -1.71437e-05
1105 9.86039 4.35999 1.66379 0 0 0.999978 -0.000110213
182 8.98244 3.8792 0.0637555 0 0 0.999979 -1.31685e-05
192 11.3889 3.65407 0.783302 0 0 0.999979 -0.00032095
267 10.5745 4.67819 0.911169 0 0 0.999978 -0.000212114
269 11.3668 4.70544 0.231195 0 0 0.999979 -0.000315213
1026 10.6914 3.57809 1.59501 0 0 0.999977 -0.000231614
1109 11.3453 4.38535 1.71259 0 0 0.999978 -0.000304641
272 11.3696 5.28604 0.990879 0 0 0.999979 -0.000305879
186 10.5694 3.85883 0.176917 0 0 0.999978 -0.000223183
196 12.4896 3.58739 0.817355 0 0 0.999982 -0.000438894
271 12.1662 4.56062 1.00423 0 0 0.999981 -0.000405702
1113 12.7109 5.00617 1.69558 0 0 0.999982 -0.000455523
275 13.1961 4.68929 0.803128 0 0 0.999984 -0.000508741
273 12.6148 4.62771 0.0630024 0 0 0.999983 -0.00045539
200 13.9585 4.13275 0.698515 0 0 0.999987 -0.000565873
1034 13.4534 4.22556 1.59762 0 0 0.999985 -0.000525531
1117 14.1684 5.12351 1.52492 0 0 0.999987 -0.000582373
279 14.9047 5.01542 0.813192 0 0 0.999991 -0.000627177
1038 14.93 4.41858 1.59643 0 0 0.999991 -0.00061968
277 14.1068 4.91027 0.0624847 0 0 0.999988 -0.000583377
198 14.9263 4.19595 0.0982957 0 0 0.999992 -0.000619537
204 15.6325 4.06727 0.92595 0 0 0.999996 -0.000639461
281 15.8414 4.7754 0.186875 0 0 0.999997 -0.000652607
283 16.5572 4.57916 0.900159 0 0 1 -0.000651089
1042 16.2832 3.95841 1.68977 0 0 0.999999 -0.000644516
1121 15.7734 5.05227 1.64227 0 0 0.999996 -0.000650173
208 17.2354 3.83039 0.810367 0 0 1.00001 -0.00062996
287 18.0519 4.48258 1.09571 0 0 1.00001 -0.00060476
1046 17.9197 3.6339 1.65355 0 0 1.00001 -0.000601931
285 17.4197 4.57325 0.0156765 0 0 1.00001 -0.000634121
206 18.1033 3.84913 0.0596424 0 0 1.00001 -0.000595023
212 18.847 3.70082 0.949064 0 0 1.00002 -0.000547579
289 18.7926 4.60229 0.360679 0 0 1.00001 -0.000560177
291 19.6616 4.66777 1.0797 0 0 1.00002 -0.000487107
292 18.752 5.26828 1.19718 0 0 1.00001 -0.000566156
210 19.5722 3.75928 0.227872 0 0 1.00002 -0.000489572
216 20.4161 3.81248 1.22945 0 0 1.00002 -0.000407734
295 20.8638 4.70626 1.38793 0 0 1.00003 -0.000354947
297 21.5633 4.93819 0.805659 0 0 1.00003 -0.000269598
214 21.0655 3.92156 0.510473 0 0 1.00003 -0.000336426
293 20.1111 4.77506 0.349841 0 0 1.00002 -0.000442685
219 22.8145 3.62002 1.41506 0 0 1.00003 -0.000112929
220 21.9277 4.1211 1.30509 0 0 1.00003 -0.000225691
299 22.462 5.16127 1.26681 0 0 1.00003 -0.000143229
218 22.6048 4.33443 0.508698 0 0 1.00003 -0.000137664
221 23.5724 3.62767 0.779064 0 0 1.00003 -1.53906e-05
222 24.3402 4.3085 0.622169 0 0 1.00003 9.91743e-05
224 23.4661 4.53529 1.32747 0 0 1.00003 -1.10205e-05
305 24.8611 5.24223 0.563554 0 0 1.00003 0.000194015
301 23.5506 5.04982 0.530449 0 0 1.00003 2.86361e-06
228 25.0186 4.48647 1.61549 0 0 1.00003 0.00020757
303 24.3683 5.27329 1.42619 0 0 1.00003 0.000135302
225 25.0717 3.66866 0.798168 0 0 1.00004 0.000185257
307 25.7058 5.1252 1.33687 0 0 1.00003 0.000313495
232 26.3756 4.27905 1.36661 0 0 1.00003 0.000370793
309 26.5221 4.96101 0.638098 0 0 1.00003 0.000400553
226 25.5413 4.38937 0.387264 0 0 1.00003 0.000259267
311 27.3544 4.85892 1.40039 0 0 1.00003 0.000501342
236 27.9873 3.96787 1.10129 0 0 1.00003 0.000525293
313 28.3049 4.72703 0.703771 0 0 1.00003 0.000577376
230 27.0879 4.0333 0.569289 0 0 1.00003 0.000433147
234 28.9601 3.7653 0.484539 0 0 1.00003 0.000591421
315 29.1176 4.51607 1.32694 0 0 1.00003 0.000641754
240 30.0292 4.06489 1.02314 0 0 1.00002 0.000672851
238 31.0628 3.97407 0.370708 0 0 1.00002 0.000701479
317 30.2388 4.67623 0.487676 0 0 1.00002 0.000702413
319 31.0135 4.59842 1.40717 0 0 1.00002 0.000740233
242 0.945972 5.53279 0.462029 0 0 1.00001 0.000780802
248 1.5692 5.51492 1.38073 0 0 1.00001 0.000782873
323 0.834564 6.21916 1.27745 0 0 1.00001 0.000831924
324 0.297551 6.91949 1.50651 0 0 1.00002 0.000880685
322 1.01167 6.94633 0.572946 0 0 1.00001 0.000857688
321 0.0153555 5.99639 0.446869 0 0 1.00002 0.000806122
328 1.74609 7.03265 1.24125 0 0 1.00001 0.000857859
325 1.93164 6.20416 0.518466 0 0 1.00001 0.000790092
252 3.14019 5.62631 1.30315 0 0 1 0.00071202
327 2.30259 6.1603 1.4133 0 0 1.00001 0.000789142
332 3.29022 6.97186 1.13365 0 0 1 0.000770806
246 2.71616 5.61732 0.274337 0 0 1 0.000722042
329 3.42909 6.28887 0.50087 0 0 1 0.000710478
250 4.21853 5.47192 0.32712 0 0 0.999996 0.00060652
256 4.95996 5.44054 1.32154 0 0 0.999993 0.000549705
331 4.16538 6.10617 1.23287 0 0 0.999997 0.000655683
333 4.85279 6.24542 0.335055 0 0 0.999994 0.000581615
336 4.80253 6.81362 1.16558 0 0 0.999995 0.000628677
330 4.03485 7.03388 0.223831 0 0 0.999999 0.00069936
254 5.8038 5.43249 0.303155 0 0 0.999989 0.000441542
335 5.71457 6.25581 0.968028 0 0 0.99999 0.000497355
1177 6.47627 5.99991 1.60589 0 0 0.999987 0.000407314
340 6.4516 6.88544 1.01454 0 0 0.999988 0.000434225
337 6.39652 6.05737 0.155304 0 0 0.999988 0.00039336
264 8.21668 5.32901 0.698932 0 0 0.999981 0.000127788
339 7.33789 6.17418 0.759439 0 0 0.999984 0.000279447
1098 7.40212 5.4331 1.50025 0 0 0.999983 0.000258013
1181 8.2427 6.12767 1.50198 0 0 0.999981 0.000164577
344 8.02051 6.87125 0.734435 0 0 0.999983 0.000205179
1178 7.2952 6.88062 1.60742 0 0 0.999985 0.000337175
258 7.33962 5.37153 0.0464061 0 0 0.999983 0.000244762
268 9.75969 5.33466 0.79773 0 0 0.999979 -9.13143e-05
343 8.87948 6.20514 0.74218 0 0 0.99998 5.76319e-05
1102 9.0512 5.34317 1.60601 0 0 0.999979 2.53771e-05
1185 9.7306 6.20705 1.47801 0 0 0.999979 -5.53801e-05
1182 9.09088 6.9696 1.4742 0 0 0.99998 6.54998e-05
345 9.75454 6.24844 0.0956027 0 0 0.99998 -7.62171e-05
262 8.99502 5.48045 0.014161 0 0 0.999979 1.60981e-05
347 10.5693 6.03768 0.969837 0 0 0.999978 -0.000190889
349 11.2928 6.38551 0.0785087 0 0 0.99998 -0.000291245
346 10.5047 6.95874 0.155548 0 0 0.999979 -0.00017395
1186 10.4548 6.94424 1.50729 0 0 0.999978 -0.000141263
270 11.9744 5.63873 0.184464 0 0 0.999981 -0.000385483
276 12.6467 5.8282 0.866137 0 0 0.999982 -0.000455412
351 11.7533 6.22209 1.05914 0 0 0.999979 -0.000346094
1114 13.2906 5.87672 1.56306 0 0 0.999983 -0.000511922
355 13.318 6.59158 0.816364 0 0 0.999983 -0.000524491
274 13.2888 5.54768 0.0429805 0 0 0.999984 -0.000523665
280 14.0269 5.72316 0.775796 0 0 0.999987 -0.00058178
1197 14.2878 6.6586 1.41271 0 0 0.999987 -0.000595713
357 14.0938 6.39209 0.0387855 0 0 0.999987 -0.000593705
278 14.9882 5.64567 0.0354538 0 0 0.999992 -0.000639198
359 15.0069 6.45493 0.808366 0 0 0.999991 -0.000644326
284 15.7912 5.73861 0.957435 0 0 0.999995 -0.000662015
363 16.4496 6.45149 1.14125 0 0 0.999998 -0.000670924
1118 15.0673 5.87893 1.70076 0 0 0.999991 -0.000633146
282 16.5821 5.4178 0.276174 0 0 1 -0.000663182
361 15.6361 6.34085 0.0402058 0 0 0.999995 -0.000668677
286 17.792 5.29751 0.540244 0 0 1.00001 -0.000628218
288 17.0739 5.42168 1.24637 0 0 1 -0.000652349
365 17.0239 6.27174 0.410674 0 0 1 -0.000666924
367 17.6256 6.24093 1.38164 0 0 1.00001 -0.000638592
372 18.2357 7.04407 1.13019 0 0 1.00001 -0.000612446
369 18.3366 6.22327 0.608928 0 0 1.00001 -0.0006055
290 19.3999 5.74711 0.617893 0 0 1.00002 -0.000517757
371 19.2946 6.54552 1.34331 0 0 1.00002 -0.000523705
373 19.9664 6.73795 0.606914 0 0 1.00002 -0.000460619
294 20.7288 5.76173 0.649625 0 0 1.00002 -0.000372004
296 20.1661 5.59747 1.38928 0 0 1.00002 -0.000433892
375 20.7559 6.59632 1.29581 0 0 1.00002 -0.000356699
377 21.6432 6.64623 0.662542 0 0 1.00003 -0.000244638
300 21.6471 5.86196 1.37632 0 0 1.00003 -0.000244611
16260 21.6764 5.71795 0.0518254 0 0 1.00003 -0.000251431
298 22.666 5.81268 0.668733 0 0 1.00003 -0.000109039
379 22.6244 6.67495 1.19872 0 0 1.00003 -9.06969e-05
381 23.347 6.76206 0.265977 0 0 1.00003 8.08099e-06
304 23.4817 5.86833 1.29126 0 0 1.00003 1.97708e-05
383 24.3267 6.54591 1.15133 0 0 1.00003 0.000164204
302 24.1497 5.9902 0.424204 0 0 1.00003 0.000110432
306 25.6994 5.84772 0.696157 0 0 1.00003 0.0003284
308 25.1245 6.02415 1.66699 0 0 1.00003 0.00027313
385 25.1725 6.7243 0.491482 0 0 1.00003 0.000283361
387 25.8452 6.57934 1.39937 0 0 1.00003 0.000390889
312 26.713 5.83226 1.46873 0 0 1.00003 0.000471113
310 27.5233 5.53311 0.718471 0 0 1.00003 0.000536131
389 26.772 6.35255 0.647415 0 0 1.00003 0.000484744
391 27.7303 6.46021 1.3598 0 0 1.00003 0.000611489
316 28.3957 5.51304 1.48048 0 0 1.00003 0.000633721
390 27.7404 6.99543 0.526843 0 0 1.00003 0.000622871
314 29.4217 5.30274 0.815566 0 0 1.00003 0.000688372
395 29.4736 6.1763 1.31841 0 0 1.00003 0.000745099
394 29.6162 6.89474 0.505647 0 0 1.00002 0.000777859
393 28.5011 6.19724 0.637265 0 0 1.00003 0.000659645
16355 29.4105 6.14455 0.0785847 0 0 1.00003 0.000721747
16276 28.5124 5.38228 0.0575082 0 0 1.00003 0.000619287
318 31.0007 5.36452 0.594201 0 0 1.00002 0.000762414
320 30.2531 5.45404 1.46386 0 0 1.00002 0.000754285
397 30.4329 6.17847 0.647651 0 0 1.00002 0.000784242
399 31.2581 6.15212 1.38301 0 0 1.00002 0.000823835
398 31.2418 6.95101 0.603555 0 0 1.00002 0.000852593
401 0.305333 7.633 0.660896 0 0 1.00002 0.00090237
402 0.879074 8.46638 0.617949 0 0 1.00001 0.000948478
403 1.15578 7.86436 1.49808 0 0 1.00001 0.000932385
404 0.403302 8.56141 1.47002 0 0 1.00002 0.000981002
405 1.63603 7.76833 0.373639 0 0 1.00001 0.000887317
408 1.77093 8.62281 1.46725 0 0 1.00001 0.000961528
326 2.52578 7.15496 0.476573 0 0 1.00001 0.000815371
406 2.23778 8.63727 0.400997 0 0 1.00001 0.000914578
407 2.43639 7.81742 1.2814 0 0 1.00001 0.000876696
412 3.05682 8.52377 0.94024 0 0 1 0.000872208
409 3.28179 7.77837 0.328732 0 0 1 0.00080088
410 3.8511 8.46969 0.0821501 0 0 1 0.000793391
411 4.01569 7.67743 1.25144 0 0 1 0.000754371
416 4.73703 8.27132 0.929267 0 0 0.999997 0.00070917
413 4.70273 7.65028 0.24788 0 0 0.999996 0.000667172
334 5.57395 7.06532 0.148966 0 0 0.999992 0.000540236
414 5.89533 8.36351 0.172233 0 0 0.999992 0.000565426
415 5.51112 7.60356 1.0372 0 0 0.999993 0.000588759
417 6.51227 7.55511 0.170746 0 0 0.999989 0.000443967
420 6.41894 8.25318 1.05217 0 0 0.99999 0.000504733
419 7.29998 7.7861 0.752921 0 0 0.999986 0.000351182
424 8.29097 8.33302 0.877398 0 0 0.999983 0.000226298
1258 7.29397 8.20094 1.71477 0 0 0.999985 0.000404594
1261 8.06032 7.50701 1.57262 0 0 0.999982 0.000249994
421 8.00641 7.62112 0.028811 0 0 0.999984 0.000228772
348 9.83324 7.23936 0.73027 0 0 0.99998 -5.79179e-05
423 8.91188 7.63452 0.667939 0 0 0.999981 9.58307e-05
428 9.72476 8.63814 0.700929 0 0 0.99998 -1.32721e-06
1262 9.09123 8.71898 1.45974 0 0 0.999981 0.000135006
1265 9.63583 7.90864 1.61408 0 0 0.999979 2.0189e-05
352 11.2936 7.15884 0.816451 0 0 0.999979 -0.000274725
427 10.5582 7.96241 0.85183 0 0 0.999979 -0.000148843
1266 10.572 8.72286 1.44044 0 0 0.999979 -0.00010947
1269 11.3823 7.82456 1.61542 0 0 0.999979 -0.000253078
429 11.2062 8.13517 0.0437296 0 0 0.99998 -0.000256434
356 12.6753 7.29775 0.570596 0 0 0.999982 -0.000456567
431 12.1491 8.24856 0.596946 0 0 0.99998 -0.000380384
1190 12.0396 7.1735 1.38803 0 0 0.99998 -0.000364188
1270 12.0589 8.69719 1.50406 0 0 0.999979 -0.000333483
1273 12.825 8.01101 1.48637 0 0 0.99998 -0.000446502
360 14.2937 7.36134 0.588507 0 0 0.999987 -0.000609975
435 13.5784 8.10411 0.469668 0 0 0.999984 -0.000550699
1194 13.4244 7.35076 1.35042 0 0 0.999983 -0.000523712
1277 14.2064 8.18932 1.35955 0 0 0.999985 -0.000587373
439 15.0266 8.29728 0.867889 0 0 0.999989 -0.000651926
362 16.3913 7.18336 0.278564 0 0 0.999997 -0.000685468
364 15.5867 7.31242 0.921358 0 0 0.999993 -0.000670206
443 16.216 8.15972 1.11151 0 0 0.999994 -0.000679363
1198 15.0995 7.52696 1.63205 0 0 0.999989 -0.000637237
441 15.8193 8.31404 0.153325 0 0 0.999993 -0.000688856
368 16.9348 7.35775 1.11548 0 0 1 -0.000671897
445 17.0227 8.10159 0.338928 0 0 1 -0.000683347
447 17.6635 8.01771 1.02592 0 0 1 -0.000649107
366 17.7773 7.16081 0.214591 0 0 1.00001 -0.000648759
370 18.9715 7.32663 0.639609 0 0 1.00001 -0.000561833
451 18.8907 8.14129 1.1793 0 0 1.00001 -0.000559382
376 19.841 7.64212 1.31797 0 0 1.00002 -0.000461594
453 19.7725 8.12684 0.358365 0 0 1.00001 -0.000480518
449 18.4113 8.18059 0.171162 0 0 1.00001 -0.000613126
374 20.6756 7.44472 0.667591 0 0 1.00002 -0.000369896
455 20.6224 8.4225 1.02789 0 0 1.00002 -0.000361198
380 21.525 7.6543 1.14089 0 0 1.00002 -0.000239393
457 21.5954 8.32634 0.25679 0 0 1.00002 -0.000231499
459 22.5796 8.15913 1.01123 0 0 1.00003 -6.68635e-05
1218 22.4085 7.48087 1.74566 0 0 1.00003 -9.08133e-05
378 22.3269 7.46631 0.383137 0 0 1.00003 -0.000133558
384 23.445 7.30358 1.04437 0 0 1.00003 4.75434e-05
461 23.4887 8.05714 0.382488 0 0 1.00003 6.69686e-05
463 24.3524 8.08198 0.99352 0 0 1.00003 0.000217355
1302 24.2616 8.69904 1.67418 0 0 1.00003 0.000252691
382 24.346 7.30744 0.267437 0 0 1.00003 0.000176833
462 24.3226 8.80703 0.207157 0 0 1.00003 0.000226098
388 25.1309 7.3768 1.24609 0 0 1.00003 0.000317665
467 26.0427 7.98958 0.98237 0 0 1.00003 0.000469015
1306 26.0431 8.61031 1.74466 0 0 1.00003 0.000530416
386 26.1121 7.26205 0.366036 0 0 1.00003 0.000434906
465 25.2444 8.11364 0.305732 0 0 1.00003 0.000345844
466 26.2971 8.56988 0.0885897 0 0 1.00003 0.00051869
392 26.8098 7.09759 1.33572 0 0 1.00003 0.000538288
470 27.9995 8.49273 0.425517 0 0 1.00003 0.000727242
471 27.8304 7.82463 1.20837 0 0 1.00003 0.000690427
472 27.0071 8.64052 1.01905 0 0 1.00003 0.000632813
469 27.0244 7.76923 0.431658 0 0 1.00003 0.000576835
396 28.6866 7.10241 1.22569 0 0 1.00003 0.000733176
474 29.6365 8.34862 0.542341 0 0 1.00002 0.000860981
475 29.5382 7.67062 1.27329 0 0 1.00002 0.000830175
476 28.8192 8.54837 1.18111 0 0 1.00003 0.000824799
473 28.7326 7.71015 0.41428 0 0 1.00003 0.000755289
400 30.3662 7.08648 1.17767 0 0 1.00002 0.000840967
479 31.2943 7.82064 1.29987 0 0 1.00002 0.000919642
480 30.4753 8.48638 1.18226 0 0 1.00002 0.000928824
477 30.6797 7.86899 0.379926 0 0 1.00002 0.000884856
478 31.4712 8.61984 0.39058 0 0 1.00002 0.000951285
482 1.17095 10.2855 0.273541 0 0 1.00001 0.00104658
483 1.06365 9.37722 1.20613 0 0 1.00001 0.00101728
484 0.304387 9.92995 0.898711 0 0 1.00002 0.00104546
481 0.41595 9.3367 0.123019 0 0 1.00002 0.00099865
1322 0.8628 10.1281 1.75378 0 0 1.00002 0.00109192
485 1.80246 9.45165 0.452205 0 0 1.00001 0.000983003
488 1.87493 10.3751 0.971974 0 0 1.00001 0.00104539
486 2.63727 10.282 0.0840288 0 0 1.00001 0.000985078
487 2.41979 9.452 1.22555 0 0 1.00001 0.000975046
1326 2.81739 10.2413 1.67139 0 0 1.00001 0.00102161
1329 3.24496 9.2469 1.6613 0 0 1.00001 0.000930997
489 3.11514 9.37722 0.0820735 0 0 1.00001 0.000904202
492 3.42117 10.0434 0.735948 0 0 1.00001 0.000928374
491 3.9705 9.11986 0.859121 0 0 1 0.000832405
493 4.61045 9.19375 0.00743647 0 0 0.999999 0.0007603
496 4.64177 9.98935 0.574297 0 0 1 0.000807951
1330 4.16106 9.98216 1.62434 0 0 1 0.000897721
1333 4.70838 9.08019 1.65722 0 0 0.999998 0.00078955
495 5.35942 8.95924 0.663837 0 0 0.999996 0.000670894
500 6.26427 9.80892 0.517844 0 0 0.999992 0.000593963
1334 5.34533 9.84571 1.16983 0 0 0.999997 0.000736536
1337 6.17753 9.06916 1.26595 0 0 0.999991 0.00059055
1417 6.26299 10.5259 1.1943 0 0 0.999993 0.00065512
499 7.18216 8.89763 0.715998 0 0 0.999987 0.000420359
501 8.1038 9.06467 0.0822223 0 0 0.999985 0.00027371
504 7.97004 9.94205 0.581255 0 0 0.999986 0.000338432
1338 7.19609 9.75462 1.20071 0 0 0.999988 0.000476591
1341 8.05495 9.18525 1.40923 0 0 0.999984 0.000323627
503 8.94062 9.47177 0.733111 0 0 0.999982 0.000163025
508 9.63934 10.3537 0.664858 0 0 0.999982 7.48875e-05
1342 8.75441 10.2839 1.41804 0 0 0.999982 0.00025921
1345 9.82298 9.60772 1.42293 0 0 0.99998 4.60983e-05
432 11.3511 8.86366 0.737621 0 0 0.99998 -0.00025236
426 10.3895 8.90262 0.0406515 0 0 0.99998 -0.000110231
507 10.4499 9.69878 0.661061 0 0 0.99998 -8.6354e-05
1346 10.6172 10.1873 1.64627 0 0 0.999978 -5.21238e-05
1349 11.2816 9.65049 1.3257 0 0 0.999979 -0.000198749
436 12.9682 8.97549 0.790905 0 0 0.999981 -0.000471269
511 12.0782 9.8279 0.691268 0 0 0.999979 -0.000340733
516 12.7844 10.4868 0.965364 0 0 0.99998 -0.000417368
1353 12.5128 9.6295 1.62058 0 0 0.999978 -0.000365894
1274 13.6491 8.8551 1.57435 0 0 0.999982 -0.000520254
440 14.4239 9.2033 0.762545 0 0 0.999986 -0.000613464
515 13.4925 9.69273 0.840081 0 0 0.999982 -0.000519969
1354 13.4567 10.4221 1.71564 0 0 0.999979 -0.000459933
517 14.2293 10.1575 0.216539 0 0 0.999984 -0.000600701
444 15.8543 9.16021 1.13686 0 0 0.999992 -0.000672954
519 15.0869 9.8636 1.01345 0 0 0.999987 -0.000643793
521 15.6443 10.1823 0.25179 0 0 0.99999 -0.000683911
523 16.4603 9.95825 0.96194 0 0 0.999994 -0.000679429
442 16.4654 9.03272 0.260701 0 0 0.999996 -0.000694932
438 15.2542 9.20928 0.0968103 0 0 0.999989 -0.000671441
452 18.2613 8.89157 0.941876 0 0 1.00001 -0.000613603
448 17.0505 9.06637 1.12737 0 0 0.999998 -0.000669353
525 17.1115 10.0239 0.206531 0 0 0.999998 -0.000683931
527 17.7337 9.86583 1.07112 0 0 1 -0.000638125
446 17.7243 9.10448 0.117039 0 0 1 -0.000659589
456 19.7929 8.95057 1.06138 0 0 1.00001 -0.000457363
529 18.562 9.72809 0.299619 0 0 1.00001 -0.000596403
531 19.4754 9.89035 0.849894 0 0 1.00001 -0.000493825
532 18.6859 10.4503 1.1437 0 0 1.00001 -0.000557676
1369 18.6185 9.58091 1.70814 0 0 1.00001 -0.000549123
450 19.2114 8.95466 0.21056 0 0 1.00001 -0.000541411
533 19.9634 9.77859 0.0723249 0 0 1.00001 -0.000444177
535 20.9126 9.8007 0.750827 0 0 1.00002 -0.000300239
1373 20.2237 9.65597 1.66981 0 0 1.00002 -0.000365063
454 20.7717 9.07175 0.206473 0 0 1.00002 -0.000341791
460 21.6185 9.02663 0.977568 0 0 1.00002 -0.000202376
1298 22.3904 8.87865 1.58413 0 0 1.00003 -5.88699e-05
539 22.8309 9.67972 0.803671 0 0 1.00002 1.24829e-05