LAMMPS (29 Oct 2020)
  using 8 OpenMP thread(s) per MPI task
dimension          2
units              lj
atom_style         rheo
boundary           p p p
comm_modify        vel yes
newton off

##### Particle Generation #######
##################################

## Particle Lattice/Resolution Parameters
variable           L equal 10
variable           t_tot equal 250
variable           sf equal 0.05 #25 #/${L} #scaling of unit cell #scale factor for particle resolution
# n is particle number density, depends on lattive
variable           nb equal 1    #number of basis atoms depends on lattice
variable           n equal ${nb}/(${sf}^2) # number of particles per volume
variable           n equal 1/(${sf}^2) 
variable           n equal 1/(0.05^2) 
variable           del equal ${sf}#*sqrt(2) # distance between particles
variable           del equal 0.05
lattice            sq ${n} #create a set of potential particle locations
lattice            sq 400 
Lattice spacing in x,y,z = 0.05 0.05 0.05
# SPH Smoothing Kernel Length
variable           hd equal 3.5
variable           h3 equal ${hd}*${del}
variable           h3 equal 3.5*${del}
variable           h3 equal 3.5*0.05


# create simulation box

variable           dz equal 0.1*${sf} #For 2D, make sure that z-dimension only has 1 particle layer
variable           dz equal 0.1*0.05 
region             box block 0 ${L} 0 ${L} -${dz} ${dz} units box #create a 2D box using box units (vs lattice units)
region             box block 0 10 0 ${L} -${dz} ${dz} units box 
region             box block 0 10 0 10 -${dz} ${dz} units box 
region             box block 0 10 0 10 -0.005 ${dz} units box 
region             box block 0 10 0 10 -0.005 0.005 units box 
create_box         2 box #create a simulation box from the region box - with 2 types of atoms
Created orthogonal box = (0.0000000 0.0000000 -0.005) to (10.000000 10.000000 0.005)
  2 by 2 by 1 MPI processor grid
#Create atoms in our whole simulation box
create_atoms       1 region box #creates atoms of type 1 within the box region
Created 40000 atoms
  create_atoms CPU = 0.003 seconds



# Assign all particles of type 1 to a group fluid
group              fluid type 1
40000 atoms in group fluid
#group             wall type 2

##### End Particle Generation #######
##################################

#Now randomly displace in x and y up %20 of their spacing (sf)
variable           seed equal 135414
variable           dr equal 0.1*${del}
variable           dr equal 0.1*0.05
displace_atoms     fluid random ${dr} ${dr} 0 ${seed} units box
displace_atoms     fluid random 0.005 ${dr} 0 ${seed} units box
displace_atoms     fluid random 0.005 0.005 0 ${seed} units box
displace_atoms     fluid random 0.005 0.005 0 135414 units box
Displacing atoms ...

##### Setting Physical Parameters #######
##################################

# Potential parameters eta = 1, cs = 0 so force gives laplacian
variable           rho0 equal 1.0 #Equilibrium density P=cs^2(rho-rho0)
variable           mp equal ${rho0}/${n} #particle mass, fixed by density and number density
variable           mp equal 1/${n} 
variable           mp equal 1/400 
variable           cs equal 4.0 #speed of sound - for pressure EoS
variable           eta equal 0.01 #dynamic viscosity
variable           zeta equal 1 #artificial viscosity - stabilizing term
variable           Dr equal 0.05*${h3}*${cs} #density diffusion - stabilizing term to diffuse noise throughout the system
variable           Dr equal 0.05*0.175*${cs} 
variable           Dr equal 0.05*0.175*4 
#variable          D equal 1.0
#variable          kappa equal ${D}*${rho0}/${mp}
#variable          fext equal 5e-3/${n}


# Set particle properties
mass               * ${mp}
mass               * 0.0025
set                group all phase 0
Setting atom values ...
  40000 settings made for phase
set                group all temp 1.0
Setting atom values ...
  40000 settings made for temp

variable           u0 equal 0.1

variable           uy atom  ${u0}*sin(2*PI*x/lx)*cos(2*PI*y/ly)
variable           uy atom  0.1*sin(2*PI*x/lx)*cos(2*PI*y/ly)
variable           ux atom -${u0}*sin(2*PI*y/ly)*cos(2*PI*x/ly)
variable           ux atom -0.1*sin(2*PI*y/ly)*cos(2*PI*x/ly)
variable           d0 atom ${rho0}-${u0}*${u0}*${rho0}*0.25*(cos(4*PI*x/lx)+cos(4*PI*y/ly))/${cs}/${cs}
variable           d0 atom 1-${u0}*${u0}*${rho0}*0.25*(cos(4*PI*x/lx)+cos(4*PI*y/ly))/${cs}/${cs}
variable           d0 atom 1-0.1*${u0}*${rho0}*0.25*(cos(4*PI*x/lx)+cos(4*PI*y/ly))/${cs}/${cs}
variable           d0 atom 1-0.1*0.1*${rho0}*0.25*(cos(4*PI*x/lx)+cos(4*PI*y/ly))/${cs}/${cs}
variable           d0 atom 1-0.1*0.1*1*0.25*(cos(4*PI*x/lx)+cos(4*PI*y/ly))/${cs}/${cs}
variable           d0 atom 1-0.1*0.1*1*0.25*(cos(4*PI*x/lx)+cos(4*PI*y/ly))/4/${cs}
variable           d0 atom 1-0.1*0.1*1*0.25*(cos(4*PI*x/lx)+cos(4*PI*y/ly))/4/4

velocity           all set v_ux v_uy 0.0 units box
set                group all rho v_d0
Setting atom values ...
  40000 settings made for rho


##### Define Physical Equations #######
##################################

fix                1 all rheo ${h3} CRK0 0 shift # rhosum 1  shift
fix                1 all rheo 0.175 CRK0 0 shift 
fix                2 all rheo/surface ${h3} 1.5 10
fix                2 all rheo/surface 0.175 1.5 10
fix                3 all rheo/viscosity constant ${eta}
fix                3 all rheo/viscosity constant 0.01

pair_style         rheo ${h3} artificial/visc ${zeta} rho/damp ${Dr}  #pressure taitwater rho/damp ${Dr}
pair_style         rheo 0.175 artificial/visc ${zeta} rho/damp ${Dr}  
pair_style         rheo 0.175 artificial/visc 1 rho/damp ${Dr}  
pair_style         rheo 0.175 artificial/visc 1 rho/damp 0.035  
pair_coeff         * * ${rho0} ${cs}
pair_coeff         * * 1 ${cs}
pair_coeff         * * 1 4

#Timestep
#Ensures that the timestep is smaller than values, as per CFL criteria
variable           dt_max equal  0.1*${h3}/${cs}/3
variable           dt_max equal  0.1*0.175/${cs}/3
variable           dt_max equal  0.1*0.175/4/3

#variable           dx_max equal ${h3}/100
timestep           ${dt_max}
timestep           0.00145833333333333

variable           Nsteps equal round(${t_tot}/${dt_max})
variable           Nsteps equal round(250/${dt_max})
variable           Nsteps equal round(250/0.00145833333333333)

##### Defining Output Setting #######
##################################

#Compute atom properties to output in dump file
compute            den all property/atom rho
compute            phase all property/atom phase
compute            eta all property/atom viscosity

#l log file output and output frequency
thermo             200
thermo_style       custom step time ke temp press
thermo_modify      norm no #report properties as extensive, not intensive (i.e. per mol)

#define a dump file
dump               1 all custom 200 1_0_20.atoms id type x y vx vy fx fy c_den c_phase f_rheo_chi_chi c_eta
dump               2 all netcdf 200 1_0_20.nc id type x y vx vy fx fy c_den c_phase f_rheo_chi_chi c_eta

#modify neighbor bin size based on the cutoff distance h3
variable           skin equal 0.2*${h3}
variable           skin equal 0.2*0.175
neighbor           ${skin} bin
neighbor           0.035 bin
neigh_modify       one 10000 #increase number of allowed neighbors

#run for n steps
run ${Nsteps}
run 171429
WARNING: One or more atoms are time integrated more than once (src/modify.cpp:285)
Neighbor list info ...
  update every 1 steps, delay 10 steps, check yes
  max neighbors/atom: 10000, page size: 100000
  master list distance cutoff = 0.21
  ghost atom cutoff = 0.21
  binsize = 0.105, bins = 96 96 1
  6 neighbor lists, perpetual/occasional/extra = 6 0 0
  (1) pair rheo, perpetual, half/full from (2)
      attributes: half, newton off
      pair build: halffull/newtoff
      stencil: none
      bin: none
  (2) compute rheo/kernel, perpetual
      attributes: full, newton off
      pair build: full/bin/atomonly
      stencil: full/bin/2d
      bin: standard
  (3) compute rheo/grad, perpetual, copy from (1)
      attributes: half, newton off
      pair build: copy
      stencil: none
      bin: none
  (4) compute rheo/chi, perpetual, copy from (1)
      attributes: half, newton off
      pair build: copy
      stencil: none
      bin: none
  (5) fix rheo/vshift, perpetual, copy from (1)
      attributes: half, newton off
      pair build: copy
      stencil: none
      bin: none
  (6) fix rheo/surface, perpetual, copy from (1)
      attributes: half, newton off
      pair build: copy
      stencil: none
      bin: none
Per MPI rank memory allocation (min/avg/max) = 41.36 | 41.36 | 41.37 Mbytes
Step Time KinEng Temp Press 
       0            0   0.25000344 6.2502422e-06 0.0026011914 
     200   0.29166667   0.24877572 6.2195485e-06  0.002530873 
     400   0.58333333   0.24755335 6.1889884e-06 0.0025106093 
     600        0.875   0.24633722 6.1585845e-06 0.0025061734 
     800    1.1666667   0.24512837 6.1283624e-06 0.0025090675 
    1000    1.4583333   0.24392574 6.098296e-06 0.0025178455 
    1200         1.75   0.24272874 6.0683701e-06  0.002532117 
    1400    2.0416667   0.24153849 6.0386132e-06 0.0025516555 
    1600    2.3333333   0.24035623 6.009056e-06 0.0025756383 
    1800        2.625   0.23918173 5.9796927e-06 0.0026026014 
    2000    2.9166667   0.23801449 5.950511e-06 0.0026302534 
    2200    3.2083333   0.23685538 5.9215324e-06 0.0026556725 
    2400          3.5    0.2357056 5.8927873e-06 0.0026762849 
    2600    3.7916667   0.23456462 5.8642621e-06 0.0026910595 
    2800    4.0833333   0.23343089 5.835918e-06 0.0026998569 
    3000        4.375   0.23230412 5.8077482e-06 0.0027037039 
    3200    4.6666667   0.23118521 5.7797746e-06 0.0027046267 
    3400    4.9583333   0.23007411 5.7519967e-06 0.0027043335 
    3600         5.25   0.22896947 5.7243799e-06 0.0027043511 
    3800    5.5416667   0.22787058 5.6969068e-06 0.0027062572 
    4000    5.8333333   0.22677815 5.6695954e-06 0.0027110039 
    4200        6.125   0.22569262 5.6424566e-06 0.0027191068 
    4400    6.4166667   0.22461289 5.6154628e-06 0.0027311729 
    4600    6.7083333   0.22353788 5.5885867e-06 0.0027465495 
    4800            7   0.22246803 5.5618398e-06 0.0027642257 
    5000    7.2916667    0.2214042 5.5352434e-06 0.0027839976 
    5200    7.5833333   0.22034577 5.5087819e-06  0.002805174 
    5400        7.875   0.21929155 5.4824259e-06 0.0028266307 
    5600    8.1666667   0.21824166 5.456178e-06 0.0028482893 
    5800    8.4583333   0.21719708 5.4300627e-06 0.0028697637 
    6000         8.75   0.21615783 5.4040807e-06 0.0028907243 
    6200    9.0416667   0.21512278 5.3782039e-06 0.0029114273 
    6400    9.3333333   0.21409155 5.3524226e-06 0.0029317585 
    6600        9.625   0.21306514 5.3267616e-06 0.0029515544 
    6800    9.9166667   0.21204401 5.3012329e-06 0.0029715171 
    7000    10.208333   0.21102725 5.2758132e-06 0.0029920409 
    7200         10.5   0.21001422 5.2504868e-06 0.0030128502 
    7400    10.791667    0.2090056 5.2252707e-06 0.0030346004 
    7600    11.083333   0.20800218 5.2001845e-06 0.0030575963 
    7800       11.375   0.20700343 5.1752151e-06 0.0030817253 
    8000    11.666667   0.20600844 5.1503397e-06  0.003107211 
    8200    11.958333   0.20501748 5.1255652e-06 0.0031341219 
    8400        12.25   0.20403155 5.1009162e-06 0.0031618943 
    8600    12.541667   0.20305051 5.0763896e-06 0.0031908194 
    8800    12.833333   0.20207335  5.05196e-06 0.0032206562 
    9000       13.125   0.20109997 5.0276249e-06 0.0032506339 
    9200    13.416667   0.20013132 5.0034081e-06 0.0032809105 
    9400    13.708333   0.19916774 4.979318e-06 0.0033113675 
    9600           14   0.19820837 4.9553331e-06 0.0033414764 
    9800    14.291667   0.19725274 4.9314417e-06 0.0033711688 
   10000    14.583333   0.19630161 4.9076629e-06 0.0034004717 
   10200       14.875   0.19535563 4.8840129e-06 0.0034287821 
   10400    15.166667   0.19441421 4.8604768e-06 0.0034563708 
   10600    15.458333    0.1934766 4.8370359e-06 0.0034829841 
   10800        15.75   0.19254328 4.8137024e-06 0.0035081894 
   11000    16.041667   0.19161513 4.790498e-06 0.0035322446 
   11200    16.333333   0.19069188 4.7674161e-06  0.003555494 
   11400       16.625   0.18977267 4.7444354e-06 0.0035773603 
   11600    16.916667   0.18885762 4.7215586e-06  0.003598219 
   11800    17.208333   0.18794761 4.6988077e-06 0.0036186725 
   12000         17.5   0.18704276 4.676186e-06 0.0036385136 
   12200    17.791667   0.18614224 4.6536724e-06 0.0036582069 
   12400    18.083333   0.18524569 4.631258e-06 0.0036779151 
   12600       18.375   0.18435383 4.6089611e-06 0.0036973132 
   12800    18.666667   0.18346708 4.5867916e-06  0.003716636 
   13000    18.958333   0.18258465 4.5647305e-06 0.0037360708 
   13200        19.25   0.18170594 4.5427621e-06  0.003754628 
   13400    19.541667   0.18083141 4.5208983e-06 0.0037725532 
   13600    19.833333    0.1799617 4.499155e-06 0.0037900868 
   13800       20.125   0.17909639 4.4775216e-06 0.0038068622 
   14000    20.416667   0.17823468 4.4559785e-06 0.0038228744 
   14200    20.708333   0.17737674 4.4345294e-06 0.0038384481 
   14400           21   0.17652334 4.4131938e-06 0.0038533725 
   14600    21.291667   0.17567439 4.3919696e-06 0.0038679473 
   14800    21.583333    0.1748291 4.3708369e-06 0.0038824094 
   15000       21.875   0.17398733 4.3497919e-06 0.0038963648 
   15200    22.166667   0.17314974 4.3288518e-06 0.0039100205 
   15400    22.458333   0.17231662 4.3080232e-06 0.0039239156 
   15600        22.75   0.17148726 4.2872886e-06 0.0039377481 
   15800    23.041667   0.17066124 4.2666378e-06 0.0039511284 
   16000    23.333333   0.16983915 4.2460849e-06 0.0039647611 
   16200       23.625   0.16902148 4.2256426e-06 0.0039783236 
   16400    23.916667   0.16820779   4.2053e-06 0.0039917855 
   16600    24.208333   0.16739748 4.1850415e-06 0.0040055995 
   16800         24.5   0.16659079 4.1648738e-06  0.004019305 
   17000    24.791667   0.16578843 4.1448144e-06 0.0040329264 
   17200    25.083333   0.16499023 4.1248588e-06 0.0040471354 
   17400       25.375   0.16419544 4.1049885e-06 0.0040611119 
   17600    25.666667   0.16340405 4.0852035e-06  0.004074727 
   17800    25.958333   0.16261675 4.0655205e-06 0.0040886454 
   18000        26.25   0.16183367 4.0459428e-06 0.0041022641 
   18200    26.541667   0.16105416 4.0264546e-06 0.0041156207 
   18400    26.833333   0.16027795 4.007049e-06 0.0041288896 
   18600       27.125   0.15950561  3.98774e-06 0.0041416904 
   18800    27.416667   0.15873755 3.9685379e-06 0.0041543027 
   19000    27.708333   0.15797322 3.9494293e-06 0.0041669893 
   19200           28   0.15721212 3.9304013e-06 0.0041792452 
   19400    28.291667    0.1564546 3.9114628e-06 0.0041912785 
   19600    28.583333   0.15570119 3.892627e-06 0.0042033385 
   19800       28.875   0.15495159 3.8738865e-06 0.0042153779 
   20000    29.166667   0.15420517 3.8552256e-06 0.0042272089 
   20200    29.458333   0.15346206 3.8366475e-06 0.0042389114 
   20400        29.75   0.15272286 3.818167e-06  0.004250675 
   20600    30.041667   0.15198759 3.7997847e-06 0.0042623087 
   20800    30.333333   0.15125562 3.781485e-06 0.0042739018 
   21000       30.625   0.15052678 3.7632637e-06  0.004285384 
   21200    30.916667   0.14980164 3.7451347e-06 0.0042964896 
   21400    31.208333   0.14908045 3.7271044e-06 0.0043076634 
   21600         31.5   0.14836265 3.709159e-06 0.0043188541 
   21800    31.791667   0.14764791 3.6912902e-06 0.0043295141 
   22000    32.083333   0.14693664 3.6735078e-06  0.004340189 
   22200       32.375   0.14622923 3.6558222e-06 0.0043509095 
   22400    32.666667   0.14552539 3.6382256e-06 0.0043613599 
   22600    32.958333    0.1448246 3.6207055e-06 0.0043718256 
   22800        33.25   0.14412704 3.6032661e-06 0.0043820792 
   23000    33.541667   0.14343326 3.5859212e-06 0.0043920959 
   23200    33.833333   0.14274313 3.5686674e-06 0.0044023345 
   23400       34.125   0.14205603 3.5514896e-06 0.0044124464 
   23600    34.416667   0.14137194 3.5343868e-06  0.004422319 
   23800    34.708333   0.14069137 3.5173721e-06 0.0044323712 
   24000           35   0.14001447 3.5004493e-06 0.0044425111 
   24200    35.291667   0.13934074 3.4836056e-06 0.0044527321 
   24400    35.583333   0.13866992 3.4668346e-06 0.0044629807 
   24600       35.875   0.13800242 3.4501468e-06 0.0044732129 
   24800    36.166667    0.1373386 3.4335508e-06 0.0044835183 
   25000    36.458333   0.13667802 3.417036e-06 0.0044937502 
   25200        36.75   0.13602026 3.4005916e-06 0.0045036905 
   25400    37.041667   0.13536556 3.3842235e-06 0.0045132209 
   25600    37.333333   0.13471435 3.367943e-06 0.0045223356 
   25800       37.625   0.13406646 3.3517452e-06 0.0045312161 
   26000    37.916667   0.13342138 3.3356179e-06  0.004539554 
   26200    38.208333   0.13277918 3.3195624e-06 0.0045472599 
   26400         38.5   0.13214033 3.3035908e-06 0.0045547272 
   26600    38.791667   0.13150486 3.2877036e-06 0.0045618086 
   26800    39.083333   0.13087226 3.2718883e-06 0.0045685482 
   27000       39.375   0.13024238 3.2561409e-06 0.0045751258 
   27200    39.666667   0.12961565 3.2404722e-06 0.0045813902 
   27400    39.958333   0.12899227 3.2248873e-06 0.0045876834 
   27600        40.25   0.12837183 3.2093759e-06 0.0045941443 
   27800    40.541667   0.12775401 3.1939301e-06 0.0046003382 
   28000    40.833333   0.12713912 3.1785576e-06 0.0046066168 
   28200       41.125   0.12652753 3.1632674e-06 0.0046131896 
   28400    41.416667   0.12591899 3.1480535e-06  0.004619856 
   28600    41.708333   0.12531308 3.1329054e-06 0.0046267177 
   28800           42   0.12470993 3.1178262e-06 0.0046336775 
   29000    42.291667   0.12410998 3.1028271e-06 0.0046407064 
   29200    42.583333   0.12351317 3.0879064e-06 0.0046479901 
   29400       42.875   0.12291903 3.0730526e-06 0.0046552747 
   29600    43.166667   0.12232753 3.0582647e-06   0.00466245 
   29800    43.458333   0.12173905 3.0435524e-06 0.0046696668 
   30000        43.75    0.1211537 3.0289181e-06 0.0046769695 
   30200    44.041667   0.12057104 3.0143513e-06 0.0046842838 
   30400    44.333333   0.11999085 2.9998463e-06 0.0046914035 
   30600       44.625   0.11941346 2.9854111e-06 0.0046984436 
   30800    44.916667   0.11883912 2.9710524e-06 0.0047055427 
   31000    45.208333   0.11826756 2.9567629e-06 0.0047125336 
   31200         45.5   0.11769842 2.9425342e-06 0.0047194606 
   31400    45.791667    0.1171319 2.9283706e-06 0.0047262626 
   31600    46.083333   0.11656834 2.9142813e-06 0.0047329296 
   31800       46.375   0.11600762 2.9002629e-06 0.0047397313 
   32000    46.666667   0.11544932 2.8863052e-06 0.0047463749 
   32200    46.958333   0.11489348 2.8724087e-06 0.0047527234 
   32400        47.25   0.11434045 2.8585828e-06 0.0047591321 
   32600    47.541667   0.11379028 2.8448281e-06 0.0047654057 
   32800    47.833333   0.11324257 2.8311351e-06 0.0047714554 
   33000       48.125   0.11269721 2.8175007e-06 0.0047774308 
   33200    48.416667   0.11215451 2.8039329e-06 0.0047832152 
   33400    48.708333   0.11161468 2.7904368e-06 0.0047890652 
   33600           49   0.11107739 2.7770043e-06 0.0047951099 
   33800    49.291667    0.1105424 2.7636292e-06 0.0048010246 
   34000    49.583333   0.11000995 2.7503176e-06 0.0048069667 
   34200       49.875   0.10948034 2.737077e-06 0.0048130879 
   34400    50.166667   0.10895338 2.7239026e-06 0.0048192582 
   34600    50.458333   0.10842872 2.7107857e-06 0.0048254407 
   34800        50.75   0.10790644 2.6977285e-06 0.0048315618 
   35000    51.041667   0.10738687 2.6847388e-06 0.0048377115 
   35200    51.333333   0.10686995 2.6718155e-06 0.0048439564 
   35400       51.625    0.1063553 2.6589491e-06 0.0048501684 
   35600    51.916667   0.10584288 2.6461381e-06 0.0048563333 
   35800    52.208333   0.10533298 2.6333903e-06 0.0048624851 
   36000         52.5   0.10482572 2.6207085e-06 0.0048687373 
   36200    52.791667   0.10432077 2.6080846e-06 0.0048750847 
   36400    53.083333   0.10381796 2.5955139e-06 0.0048812677 
   36600       53.375   0.10331754 2.5830031e-06 0.0048874427 
   36800    53.666667   0.10281977 2.5705584e-06 0.0048937653 
   37000    53.958333    0.1023244 2.5581741e-06 0.0049000448 
   37200        54.25   0.10183118 2.5458432e-06 0.0049063148 
   37400    54.541667   0.10134023 2.5335692e-06 0.0049125648 
   37600    54.833333   0.10085187 2.5213597e-06 0.0049187776 
   37800       55.125   0.10036598 2.5092123e-06 0.0049251875 
   38000    55.416667  0.099882245 2.4971185e-06 0.0049315721 
   38200    55.708333  0.099400674 2.485079e-06  0.004937755 
   38400           56  0.098921572 2.4731011e-06 0.0049439852 
   38600    56.291667  0.098444963 2.4611856e-06  0.004950156 
   38800    56.583333  0.097970547 2.4493249e-06 0.0049560954 
   39000       56.875  0.097498208 2.4375161e-06 0.0049617834 
   39200    57.166667  0.097028201 2.4257657e-06 0.0049671491 
   39400    57.458333  0.096560687 2.4140775e-06 0.0049722953 
   39600        57.75  0.096095416 2.4024455e-06 0.0049772223 
   39800    58.041667  0.095632176 2.3908642e-06  0.004981765 
   40000    58.333333  0.095171142 2.379338e-06 0.0049860096 
   40200       58.625  0.094712532 2.3678725e-06 0.0049900936 
   40400    58.916667  0.094256189 2.3564636e-06 0.0049940527 
   40600    59.208333  0.093801843 2.3451047e-06 0.0049977863 
   40800         59.5  0.093349555 2.3337972e-06 0.0050012591 
   41000    59.791667    0.0928996 2.3225481e-06  0.005004684 
   41200    60.083333  0.092451959 2.3113568e-06 0.0050080681 
   41400       60.375  0.092006348 2.3002162e-06  0.005011309 
   41600    60.666667  0.091562717 2.2891252e-06 0.0050144542 
   41800    60.958333   0.09112132 2.2780899e-06 0.0050174857 
   42000        61.25  0.090682248 2.2671129e-06 0.0050205127 
   42200    61.541667  0.090245252 2.2561877e-06 0.0050235936 
   42400    61.833333  0.089810186 2.2453108e-06 0.0050264735 
   42600       62.125  0.089377232 2.2344867e-06  0.005029264 
   42800    62.416667  0.088946559 2.2237196e-06 0.0050321379 
   43000    62.708333  0.088517983 2.2130049e-06 0.0050349202 
   43200           63  0.088091276 2.2023369e-06 0.0050375797 
   43400    63.291667   0.08766654 2.1917183e-06 0.0050401418 
   43600    63.583333  0.087244003 2.1811546e-06 0.0050425983 
   43800       63.875  0.086823578 2.1706437e-06 0.0050450751 
   44000    64.166667  0.086405002 2.1601791e-06 0.0050474532 
   44200    64.458333  0.085988285 2.1497609e-06 0.0050496181 
   44400        64.75  0.085573657 2.1393949e-06 0.0050517742 
   44600    65.041667  0.085161155 2.1290821e-06 0.0050539592 
   44800    65.333333  0.084750543 2.1188165e-06 0.0050560895 
   45000       65.625  0.084341729 2.1085959e-06 0.0050581356 
   45200    65.916667  0.083934926 2.0984256e-06 0.0050601757 
   45400    66.208333  0.083530264 2.0883088e-06 0.0050623226 
   45600         66.5  0.083127541 2.0782405e-06 0.0050645288 
   45800    66.791667  0.082726596 2.0682166e-06 0.0050667122 
   46000    67.083333  0.082327566 2.0582406e-06 0.0050689155 
   46200       67.375  0.081930635 2.0483171e-06 0.0050712085 
   46400    67.666667    0.0815357 2.0384435e-06 0.0050736414 
   46600    67.958333  0.081142547 2.0286144e-06 0.0050760817 
   46800        68.25  0.080751219 2.018831e-06 0.0050784562 
   47000    68.541667  0.080361936 2.0090986e-06 0.0050809526 
   47200    68.833333  0.079974675 1.9994169e-06 0.0050835676 
   47400       69.125   0.07958921  1.98978e-06 0.0050861566 
   47600    69.416667  0.079205496 1.9801869e-06  0.005088746 
   47800    69.708333  0.078823719 1.9706422e-06 0.0050913332 
   48000           70  0.078443934 1.9611474e-06 0.0050939503 
   48200    70.291667  0.078065934 1.9516971e-06 0.0050965982 
   48400    70.583333  0.077689594 1.9422884e-06  0.005099046 
   48600       70.875  0.077315056 1.9329247e-06 0.0051013313 
   48800    71.166667  0.076942463 1.9236097e-06  0.005103624 
   49000    71.458333  0.076571667 1.9143395e-06 0.0051057773 
   49200        71.75  0.076202488 1.9051098e-06 0.0051077158 
   49400    72.041667  0.075835009 1.8959226e-06 0.0051094769 
   49600    72.333333  0.075469416 1.8867826e-06 0.0051111108 
   49800       72.625  0.075105643 1.877688e-06 0.0051126553 
   50000    72.916667  0.074743493 1.868634e-06  0.005114032 
   50200    73.208333  0.074382968 1.8596207e-06 0.0051151499 
   50400         73.5  0.074024252 1.8506526e-06  0.005116126 
   50600    73.791667  0.073667379 1.8417305e-06 0.0051170359 
   50800    74.083333  0.073312152 1.8328496e-06 0.0051177816 
   51000       74.375  0.072958494 1.824008e-06 0.0051182617 
   51200    74.666667  0.072606568 1.8152096e-06 0.0051185899 
   51400    74.958333  0.072256464 1.8064568e-06 0.0051188726 
   51600        75.25  0.071908019 1.7977454e-06 0.0051190097 
   51800    75.541667  0.071561105 1.7890723e-06 0.0051189575 
   52000    75.833333  0.071215823 1.7804401e-06  0.005118746 
   52200       76.125  0.070872322 1.7718523e-06 0.0051184244 
   52400    76.416667  0.070530508 1.7633068e-06 0.0051180644 
   52600    76.708333   0.07019021 1.7547991e-06 0.0051175478 
   52800           77  0.069851462 1.7463302e-06 0.0051167612 
   53000    77.291667  0.069514432 1.7379043e-06 0.0051159356 
   53200    77.583333    0.0691791 1.7295207e-06   0.00511503 
   53400       77.875  0.068845286 1.7211752e-06 0.0051138893 
   53600    78.166667  0.068512959 1.7128668e-06 0.0051125649 
   53800    78.458333  0.068182274 1.7045995e-06 0.0051110892 
   54000        78.75  0.067853289 1.6963746e-06 0.0051095025 
   54200    79.041667  0.067525851 1.6881885e-06 0.0051078532 
   54400    79.333333  0.067199869 1.6800387e-06 0.0051059814 
   54600       79.625   0.06687546 1.6719283e-06 0.0051039278 
   54800    79.916667  0.066552738  1.66386e-06 0.0051018929 
   55000    80.208333  0.066231585 1.655831e-06 0.0050997983 
   55200         80.5  0.065911859 1.6478377e-06 0.0050975748 
   55400    80.791667  0.065593619 1.6398815e-06 0.0050952993 
   55600    81.083333  0.065277009 1.631966e-06 0.0050930942 
   55800       81.375  0.064961976  1.62409e-06 0.0050909813 
   56000    81.666667  0.064648358 1.6162494e-06 0.0050889071 
   56200    81.958333  0.064336156 1.6084441e-06 0.0050868335 
   56400        82.25  0.064025522 1.6006781e-06 0.0050848203 
   56600    82.541667  0.063716478 1.5929518e-06 0.0050829339 
   56800    82.833333   0.06340887 1.5852614e-06 0.0050811235 
   57000       83.125  0.063102638 1.5776054e-06 0.0050792261 
   57200    83.416667    0.0627979 1.5699868e-06 0.0050773429 
   57400    83.708333  0.062494738 1.5624075e-06 0.0050756016 
   57600           84  0.062193023 1.5548644e-06 0.0050738489 
   57800    84.291667   0.06189265 1.5473549e-06 0.0050720598 
   58000    84.583333  0.061593703 1.5398811e-06 0.0050702963 
   58200       84.875  0.061296294 1.5324457e-06 0.0050685552 
   58400    85.166667  0.061000344 1.5250467e-06  0.005066902 
   58600    85.458333  0.060705718 1.5176809e-06 0.0050652457 
   58800        85.75  0.060412443 1.5103488e-06 0.0050634483 
   59000    86.041667  0.060120648 1.5030538e-06  0.005061739 
   59200    86.333333  0.059830321 1.4957954e-06 0.0050601368 
   59400       86.625  0.059541321 1.4885702e-06 0.0050584656 
   59600    86.916667  0.059253618 1.4813775e-06  0.005056785 
   59800    87.208333  0.058967334 1.4742202e-06 0.0050551453 
   60000         87.5  0.058682509 1.4670994e-06  0.005053571 
   60200    87.791667  0.058399019 1.460012e-06 0.0050520678 
   60400    88.083333  0.058116788 1.452956e-06 0.0050505285 
   60600       88.375   0.05783591 1.4459339e-06 0.0050489778 
   60800    88.666667  0.057556466 1.4389476e-06 0.0050475613 
   61000    88.958333  0.057278366 1.4319949e-06 0.0050462196 
   61200        89.25  0.057001501 1.4250731e-06 0.0050448338 
   61400    89.541667  0.056725921 1.4181835e-06 0.0050434197 
   61600    89.833333  0.056451746 1.4113289e-06 0.0050421054 
   61800       90.125  0.056178939 1.4045086e-06 0.0050408394 
   62000    90.416667  0.055907371 1.3977192e-06 0.0050395098 
   62200    90.708333  0.055637051 1.3909611e-06 0.0050381276 
   62400           91  0.055368097 1.384237e-06 0.0050367121 
   62600    91.291667  0.055100521 1.3775475e-06 0.0050352933 
   62800    91.583333  0.054834206 1.3708894e-06 0.0050338676 
   63000       91.875  0.054569106 1.3642617e-06 0.0050322697 
   63200    92.166667  0.054305314 1.3576668e-06 0.0050305935 
   63400    92.458333  0.054042898 1.3511062e-06 0.0050290187 
   63600        92.75  0.053781761 1.3445776e-06  0.005027376 
   63800    93.041667  0.053521814 1.3380788e-06 0.0050256515 
   64000    93.333333  0.053263127 1.3316115e-06 0.0050239407 
   64200       93.625  0.053005791 1.3251779e-06 0.0050222424 
   64400    93.916667  0.052749743 1.3187765e-06 0.0050206154 
   64600    94.208333  0.052494872 1.3124046e-06 0.0050189993 
   64800         94.5  0.052241195 1.3060625e-06 0.0050172813 
   65000    94.791667  0.051988808 1.2997527e-06 0.0050156414 
   65200    95.083333  0.051737701 1.2934749e-06 0.0050141018 
   65400       95.375  0.051487755 1.2872261e-06 0.0050125097 
   65600    95.666667  0.051238946 1.2810057e-06 0.0050108686 
   65800    95.958333  0.050991372 1.2748162e-06 0.0050092525 
   66000        96.25  0.050745069 1.2686584e-06  0.005007697 
   66200    96.541667  0.050499929 1.2625298e-06 0.0050061482 
   66400    96.833333  0.050255896 1.2564288e-06 0.0050045474 
   66600       97.125  0.050013043 1.2503573e-06 0.0050029402 
   66800    97.416667  0.049771435 1.244317e-06 0.0050014132 
   67000    97.708333  0.049531006 1.2383061e-06 0.0049999719 
   67200           98  0.049291666 1.2323225e-06 0.0049985338 
   67400    98.291667  0.049053452 1.226367e-06  0.004997072 
   67600    98.583333  0.048816454 1.2204419e-06 0.0049957589 
   67800       98.875  0.048580637 1.2145463e-06 0.0049945642 
   68000    99.166667  0.048345895 1.2086776e-06 0.0049933444 
   68200    99.458333  0.048112227 1.2028358e-06 0.0049921691 
   68400        99.75  0.047879724 1.197023e-06 0.0049910527 
   68600    100.04167  0.047648389 1.1912395e-06 0.0049899891 
   68800    100.33333  0.047418124 1.1854827e-06 0.0049889958 
   69000      100.625  0.047188894 1.1797519e-06 0.0049879169 
   69200    100.91667  0.046960773 1.1740487e-06 0.0049867963 
   69400    101.20833  0.046733811 1.1683745e-06 0.0049857866 
   69600        101.5  0.046507928 1.1627273e-06 0.0049847239 
   69800    101.79167  0.046283053 1.1571053e-06 0.0049835512 
   70000    102.08333  0.046059237 1.1515097e-06 0.0049823482 
   70200      102.375  0.045836553 1.1459425e-06  0.004981121 
   70400    102.66667  0.045614953 1.1404023e-06 0.0049798858 
   70600    102.95833  0.045394356 1.1348873e-06 0.0049785826 
   70800       103.25  0.045174784 1.1293978e-06 0.0049771429 
   71000    103.54167  0.044956318 1.123936e-06 0.0049756888 
   71200    103.83333  0.044738951 1.1185017e-06 0.0049742393 
   71400      104.125  0.044522592 1.1130926e-06 0.0049726922 
   71600    104.41667  0.044307223 1.1077083e-06 0.0049710097 
   71800    104.70833  0.044092921 1.1023506e-06 0.0049692611 
   72000          105  0.043879716 1.0970203e-06 0.0049675091 
   72200    105.29167  0.043667525 1.0917154e-06  0.004965658 
   72400    105.58333    0.0434563 1.0864347e-06 0.0049636597 
   72600      105.875  0.043246098 1.0811795e-06 0.0049615773 
   72800    106.16667   0.04303697 1.0759512e-06 0.0049594295 
   73000    106.45833  0.042828858 1.0707482e-06 0.0049572299 
   73200       106.75  0.042621689 1.0655689e-06 0.0049549099 
   73400    107.04167  0.042415493 1.0604138e-06 0.0049524025 
   73600    107.33333  0.042210344 1.055285e-06 0.0049498797 
   73800      107.625  0.042006217 1.0501817e-06 0.0049473296 
   74000    107.91667  0.041803029 1.0451019e-06 0.0049446012 
   74200    108.20833   0.04160078 1.0400455e-06 0.0049417725 
   74400        108.5  0.041399542 1.0350144e-06 0.0049388891 
   74600    108.79167  0.041199319 1.0300087e-06 0.0049359502 
   74800    109.08333  0.041000036 1.0250265e-06 0.0049329774 
   75000      109.375  0.040801664 1.0200671e-06 0.0049298717 
   75200    109.66667  0.040604263 1.015132e-06 0.0049266795 
   75400    109.95833  0.040407873 1.0102221e-06 0.0049235285 
   75600       110.25  0.040212433 1.005336e-06 0.0049203163 
   75800    110.54167  0.040017886 1.0004722e-06 0.0049169876 
   76000    110.83333  0.039824272 9.9563168e-07 0.0049135983 
   76200      111.125  0.039631648 9.9081597e-07 0.0049101951 
   76400    111.41667  0.039439975 9.8602402e-07 0.0049067735 
   76600    111.70833  0.039249182 9.8125407e-07 0.0049032573 
   76800          112  0.039059282 9.7650646e-07  0.004899648 
   77000    112.29167  0.038870338 9.7178275e-07 0.0048960299 
   77200    112.58333  0.038682341 9.670827e-07 0.0048924148 
   77400      112.875  0.038495221 9.6240458e-07 0.0048887656 
   77600    113.16667  0.038308964 9.5774805e-07  0.004885031 
   77800    113.45833  0.038123631 9.531146e-07 0.0048812715 
   78000       113.75   0.03793924 9.4850471e-07 0.0048775923 
   78200    114.04167  0.037755725 9.4391672e-07 0.0048738818 
   78400    114.33333  0.037573048 9.3934968e-07 0.0048700984 
   78600      114.625  0.037391256 9.3480478e-07  0.004866332 
   78800    114.91667  0.037210391 9.3028304e-07 0.0048625853 
   79000    115.20833  0.037030402 9.257832e-07 0.0048588611 
   79200        115.5  0.036851235 9.213039e-07 0.0048551165 
   79400    115.79167  0.036672912 9.1684573e-07 0.0048512865 
   79600    116.08333  0.036495489 9.1241005e-07 0.0048475096 
   79800      116.375  0.036318946 9.0799635e-07 0.0048437904 
   80000    116.66667  0.036143217 9.0360301e-07 0.0048399957 
   80200    116.95833    0.0359683 8.9922997e-07 0.0048361755 
   80400       117.25  0.035794253 8.9487869e-07 0.0048323908 
   80600    117.54167  0.035621081 8.9054928e-07 0.0048286436 
   80800    117.83333  0.035448719 8.8624014e-07 0.0048249167 
   81000      118.125  0.035277147 8.8195073e-07 0.0048211392 
   81200    118.41667  0.035106412 8.7768225e-07 0.0048173549 
   81400    118.70833  0.034936542 8.7343538e-07 0.0048136444 
   81600          119  0.034767487 8.6920891e-07 0.0048099369 
   81800    119.29167  0.034599206 8.6500177e-07 0.0048061703 
   82000    119.58333  0.034431726 8.6081467e-07 0.0048023668 
   82200      119.875  0.034265097 8.5664884e-07 0.0047985966 
   82400    120.16667  0.034099289 8.5250353e-07 0.0047948436 
   82600    120.45833  0.033934244 8.4837731e-07 0.0047910104 
   82800       120.75  0.033769977 8.4427053e-07 0.0047871181 
   83000    121.04167  0.033606541 8.4018453e-07 0.0047832318 
   83200    121.33333  0.033443924  8.36119e-07 0.0047793358 
   83400      121.625  0.033282071 8.3207256e-07 0.0047754052 
   83600    121.91667  0.033120969 8.2804493e-07  0.004771381 
   83800    122.20833  0.032960664 8.240372e-07 0.0047673065 
   84000        122.5  0.032801172 8.200498e-07 0.0047632823 
   84200    122.79167  0.032642441 8.1608142e-07  0.004759199 
   84400    123.08333  0.032484438 8.1213125e-07 0.0047550061 
   84600      123.375  0.032327205 8.0820032e-07  0.004750792 
   84800    123.66667  0.032170775 8.0428947e-07 0.0047465619 
   85000    123.95833  0.032015105 8.0039764e-07 0.0047423094 
   85200       124.25  0.031860155 7.965238e-07 0.0047380031 
   85400    124.54167  0.031705944 7.9266841e-07 0.0047336085 
   85600    124.83333  0.031552511 7.888325e-07 0.0047292342 
   85800      125.125   0.03139984 7.8501564e-07 0.0047248947 
   86000    125.41667  0.031247881 7.8121655e-07 0.0047204882 
   86200    125.70833  0.031096629 7.7743517e-07 0.0047160371 
   86400          126  0.030946133 7.7367267e-07 0.0047116053 
   86600    126.29167  0.030796393 7.6992908e-07   0.00470721 
   86800    126.58333  0.030647355 7.6620304e-07 0.0047028091 
   87000      126.875  0.030499003 7.6249414e-07  0.004698362 
   87200    127.16667  0.030351375 7.5880333e-07 0.0046939236 
   87400    127.45833  0.030204488 7.5513109e-07 0.0046895455 
   87600       127.75  0.030058304 7.514764e-07 0.0046851875 
   87800    128.04167  0.029912789 7.4783842e-07 0.0046808086 
   88000    128.33333  0.029767965 7.4421774e-07 0.0046764094 
   88200      128.625   0.02962387 7.4061526e-07 0.0046720747 
   88400    128.91667  0.029480477 7.3703036e-07 0.0046678007 
   88600    129.20833  0.029337741 7.3346187e-07 0.0046634835 
   88800        129.5  0.029195672 7.2991005e-07 0.0046591672 
   89000    129.79167   0.02905431 7.2637592e-07 0.0046549111 
   89200    130.08333  0.028913645 7.228592e-07 0.0046506934 
   89400      130.375  0.028773632 7.1935879e-07 0.0046464972 
   89600    130.66667  0.028634262 7.1587446e-07 0.0046422794 
   89800    130.95833  0.028495571 7.1240709e-07 0.0046380709 
   90000       131.25  0.028357572 7.0895702e-07 0.0046339619 
   90200    131.54167  0.028220223 7.0552322e-07 0.0046298549 
   90400    131.83333    0.0280835 7.0210505e-07  0.004625697 
   90600      132.125  0.027947434 6.9870331e-07 0.0046215612 
   90800    132.41667  0.027812053 6.953187e-07 0.0046174572 
   91000    132.70833  0.027677325 6.9195043e-07 0.0046133563 
   91200          133  0.027543217 6.8859765e-07 0.0046092073 
   91400    133.29167  0.027409746 6.8526078e-07 0.0046049844 
   91600    133.58333  0.027276944 6.8194065e-07 0.0046007552 
   91800      133.875  0.027144798 6.7863691e-07 0.0045965097 
   92000    134.16667  0.027013267 6.7534856e-07 0.0045921603 
   92200    134.45833  0.026882351 6.7207556e-07 0.0045877033 
   92400       134.75  0.026752084 6.6881883e-07 0.0045831772 
   92600    135.04167   0.02662247 6.6557838e-07 0.0045786157 
   92800    135.33333  0.026493463 6.6235314e-07 0.0045739489 
   93000      135.625  0.026365052 6.5914277e-07 0.0045691329 
   93200    135.91667  0.026237266 6.5594804e-07 0.0045642323 
   93400    136.20833   0.02611012 6.5276931e-07  0.004559272 
   93600        136.5  0.025983581 6.4960576e-07 0.0045542177 
   93800    136.79167  0.025857623 6.4645675e-07 0.0045490495 
   94000    137.08333  0.025732266 6.4332274e-07 0.0045437557 
   94200      137.375  0.025607538 6.4020446e-07 0.0045384233 
   94400    137.66667  0.025483419 6.3710139e-07  0.004533063 
   94600    137.95833  0.025359872 6.3401265e-07 0.0045275747 
   94800       138.25  0.025236906 6.3093843e-07 0.0045220045 
   95000    138.54167  0.025114555 6.2787957e-07 0.0045164208 
   95200    138.83333  0.024992809 6.2483585e-07 0.0045108049 
   95400      139.125  0.024871632 6.2180635e-07 0.0045051418 
   95600    139.41667  0.024751018 6.1879092e-07 0.0044993996 
   95800    139.70833  0.024630995 6.1579027e-07 0.0044936117 
   96000          140   0.02451157 6.1280458e-07  0.004487856 
   96200    140.29167  0.024392712 6.0983304e-07 0.0044820634 
   96400    140.58333  0.024274399 6.0687515e-07 0.0044761931 
   96600      140.875  0.024156654 6.0393146e-07 0.0044702997 
   96800    141.16667    0.0240395 6.0100252e-07 0.0044644191 
   97000    141.45833  0.023922909 5.9808769e-07 0.0044585372 
   97200       141.75  0.023806856 5.9518627e-07 0.0044525979 
   97400    142.04167  0.023691354 5.9229866e-07 0.0044466136 
   97600    142.33333  0.023576432 5.8942555e-07  0.004440658 
   97800      142.625  0.023462078 5.8656661e-07  0.004434722 
   98000    142.91667  0.023348261 5.8372111e-07 0.0044287651 
   98200    143.20833  0.023234979 5.8088899e-07  0.004422786 
   98400        143.5  0.023122259 5.7807092e-07 0.0044168268 
   98600    143.79167  0.023010103 5.7526696e-07 0.0044109521 
   98800    144.08333  0.022898479 5.7247628e-07 0.0044051013 
   99000      144.375  0.022787374 5.6969859e-07 0.0043992396 
   99200    144.66667  0.022676815 5.6693456e-07 0.0043934572 
   99400    144.95833  0.022566814 5.6418445e-07 0.0043877746 
   99600       145.25  0.022457342 5.6144758e-07  0.004382166 
   99800    145.54167  0.022348381 5.5872349e-07 0.0043766271 
  100000    145.83333  0.022239946 5.5601255e-07 0.0043711431 
  100200      146.125  0.022132057 5.5331525e-07 0.0043657896 
  100400    146.41667  0.022024696 5.5063117e-07   0.00436058 
  100600    146.70833  0.021917836 5.479596e-07 0.0043554211 
  100800          147  0.021811481 5.4530066e-07 0.0043503468 
  101000    147.29167  0.021705658 5.4265502e-07 0.0043454146 
  101200    147.58333  0.021600361 5.4002252e-07 0.0043406094 
  101400      147.875  0.021495559 5.374024e-07 0.0043358993 
  101600    148.16667  0.021391248 5.3479457e-07 0.0043312545 
  101800    148.45833  0.021287453 5.3219962e-07 0.0043267102 
  102000       148.75  0.021184177 5.2961767e-07 0.0043223133 
  102200    149.04167  0.021081396 5.2704808e-07 0.0043180012 
  102400    149.33333  0.020979096 5.2449051e-07 0.0043137379 
  102600      149.625  0.020877294 5.219454e-07 0.0043095543 
  102800    149.91667  0.020776008 5.1941317e-07 0.0043054833 
  103000    150.20833  0.020675215 5.1689331e-07 0.0043015077 
  103200        150.5  0.020574894 5.1438521e-07 0.0042975533 
  103400    150.79167  0.020475055 5.1188918e-07 0.0042936397 
  103600    151.08333   0.02037572 5.0940575e-07 0.0042898247 
  103800      151.375  0.020276876 5.0693456e-07 0.0042860714 
  104000    151.66667  0.020178497 5.0447504e-07 0.0042823413 
  104200    151.95833  0.020080586 5.020272e-07  0.004278623 
  104400       152.25  0.019983162 4.9959153e-07 0.0042749358 
  104600    152.54167  0.019886226 4.9716808e-07 0.0042713286 
  104800    152.83333  0.019789753 4.9475619e-07 0.0042677262 
  105000      153.125  0.019693732 4.9235561e-07 0.0042640823 
  105200    153.41667  0.019598184 4.8996685e-07 0.0042604693 
  105400    153.70833  0.019503118 4.8759013e-07 0.0042568885 
  105600          154  0.019408509 4.8522485e-07 0.0042532963 
  105800    154.29167  0.019314342 4.8287063e-07 0.0042496741 
  106000    154.58333  0.019220631 4.8052778e-07 0.0042460118 
  106200      154.875  0.019127389 4.7819668e-07 0.0042423641 
  106400    155.16667  0.019034604 4.7587699e-07 0.0042387232 
  106600    155.45833  0.018942253 4.7356817e-07 0.0042350056 
  106800       155.75   0.01885034 4.7127029e-07 0.0042312324 
  107000    156.04167  0.018758886 4.6898388e-07 0.0042274466 
  107200    156.33333  0.018667885 4.667088e-07 0.0042236411 
  107400      156.625  0.018577313 4.6444444e-07 0.0042197729 
  107600    156.91667  0.018487167 4.6219074e-07 0.0042158138 
  107800    157.20833  0.018397467 4.5994817e-07 0.0042118124 
  108000        157.5  0.018308214 4.577168e-07 0.0042077939 
  108200    157.79167   0.01821939 4.5549613e-07 0.0042037042 
  108400    158.08333  0.018130983 4.5328591e-07 0.0041995289 
  108600      158.375  0.018043007 4.5108646e-07 0.0041952834 
  108800    158.66667  0.017955475 4.488981e-07 0.0041910068 
  109000    158.95833   0.01786837 4.4672043e-07 0.0041866957 
  109200       159.25  0.017781674 4.4455295e-07 0.0041822768 
  109400    159.54167  0.017695394 4.4239591e-07 0.0041777811 
  109600    159.83333  0.017609549 4.4024972e-07 0.0041732702 
  109800      160.125  0.017524127 4.3811412e-07 0.0041687087 
  110000    160.41667  0.017439108 4.3598861e-07 0.0041640742 
  110200    160.70833  0.017354494 4.338732e-07 0.0041593655 
  110400          161    0.0172703 4.317683e-07 0.0041546008 
  110600    161.29167  0.017186527 4.2967391e-07 0.0041498297 
  110800    161.58333  0.017103153 4.275895e-07 0.0041449973 
  111000      161.875  0.017020169 4.2551487e-07 0.0041400661 
  111200    162.16667  0.016937593 4.2345041e-07 0.0041351035 
  111400    162.45833  0.016855431 4.213963e-07 0.0041301221 
  111600       162.75  0.016773663 4.1935206e-07 0.0041250909 
  111800    163.04167  0.016692278 4.1731738e-07 0.0041199881 
  112000    163.33333  0.016611286 4.1529254e-07  0.004114824 
  112200      163.625  0.016530699 4.1327782e-07 0.0041096497 
  112400    163.91667  0.016450506 4.1127292e-07 0.0041044531 
  112600    164.20833  0.016370688 4.0927744e-07 0.0040991838 
  112800        164.5  0.016291251 4.0729145e-07 0.0040938641 
  113000    164.79167  0.016212209 4.0531536e-07 0.0040885301 
  113200    165.08333  0.016133558 4.0334904e-07 0.0040831967 
  113400      165.375  0.016055279 4.0139201e-07 0.0040778233 
  113600    165.66667   0.01597737 3.9944425e-07 0.0040723893 
  113800    165.95833  0.015899848 3.9750613e-07 0.0040669578 
  114000       166.25  0.015822712 3.955777e-07 0.0040615452 
  114200    166.54167  0.015745947 3.9365852e-07 0.0040561054 
  114400    166.83333  0.015669544 3.917484e-07 0.0040506392 
  114600      167.125  0.015593515 3.8984761e-07 0.0040451595 
  114800    167.41667  0.015517866 3.8795636e-07 0.0040396997 
  115000    167.70833  0.015442587 3.8607432e-07 0.0040342633 
  115200          168  0.015367662 3.8420115e-07 0.0040287831 
  115400    168.29167  0.015293098  3.82337e-07 0.0040232887 
  115600    168.58333  0.015218908 3.804822e-07  0.004017835 
  115800      168.875  0.015145082 3.7863651e-07 0.0040123912 
  116000    169.16667  0.015071604 3.7679952e-07 0.0040069307 
  116200    169.45833  0.014998475 3.7497126e-07 0.0040014542 
  116400       169.75  0.014925709 3.7315206e-07  0.003995986 
  116600    170.04167  0.014853303 3.7134187e-07 0.0039905605 
  116800    170.33333  0.014781241 3.6954028e-07 0.0039851305 
  117000      170.625  0.014709519 3.6774716e-07 0.0039796713 
  117200    170.91667  0.014638147 3.6596282e-07 0.0039742336 
  117400    171.20833  0.014567131 3.6418739e-07 0.0039688348 
  117600        171.5  0.014496457 3.6242048e-07 0.0039634513 
  117800    171.79167  0.014426113 3.6066184e-07 0.0039580545 
  118000    172.08333  0.014356109 3.5891171e-07 0.0039526624 
  118200      172.375  0.014286455 3.571703e-07 0.0039473219 
  118400    172.66667  0.014217138 3.5543735e-07 0.0039420096 
  118600    172.95833  0.014148148 3.5371255e-07 0.0039366876 
  118800       173.25  0.014079487 3.5199598e-07 0.0039313752 
  119000    173.54167  0.014011166 3.5028792e-07 0.0039260954 
  119200    173.83333  0.013943182 3.4858827e-07 0.0039208652 
  119400      174.125   0.01387552 3.4689667e-07 0.0039156404 
  119600    174.41667  0.013808177 3.4521305e-07 0.0039103964 
  119800    174.70833  0.013741166 3.4353774e-07 0.0039051947 
  120000          175  0.013674488 3.4187075e-07 0.0039000394 
  120200    175.29167  0.013608129 3.4021172e-07 0.0038948848 
  120400    175.58333  0.013542082 3.3856051e-07 0.0038897312 
  120600      175.875  0.013476357 3.3691734e-07 0.0038845885 
  120800    176.16667  0.013410959 3.3528235e-07  0.003879486 
  121000    176.45833  0.013345878 3.3365528e-07 0.0038744179 
  121200       176.75  0.013281102 3.3203586e-07 0.0038693256 
  121400    177.04167  0.013216638 3.3042421e-07 0.0038642364 
  121600    177.33333  0.013152495 3.2882059e-07 0.0038591945 
  121800      177.625  0.013088666 3.2722482e-07 0.0038541719 
  122000    177.91667  0.013025137 3.2563657e-07 0.0038491438 
  122200    178.20833  0.012961912 3.2405589e-07 0.0038441101 
  122400        178.5     0.012899 3.2248305e-07 0.0038390974 
  122600    178.79167  0.012836399  3.20918e-07 0.0038341271 
  122800    179.08333  0.012774098 3.1936044e-07 0.0038291527 
  123000      179.375  0.012712093 3.1781027e-07 0.0038241579 
  123200    179.66667  0.012650391 3.1626769e-07  0.003819179 
  123400    179.95833  0.012588998 3.1473281e-07 0.0038142293 
  123600       180.25    0.0125279 3.1320533e-07 0.0038092881 
  123800    180.54167   0.01246709 3.1168503e-07 0.0038043182 
  124000    180.83333  0.012406575 3.1017212e-07 0.0037993413 
  124200      181.125  0.012346362 3.0866676e-07 0.0037943982 
  124400    181.41667  0.012286441 3.071687e-07 0.0037894572 
  124600    181.70833  0.012226803 3.0567772e-07 0.0037844879 
  124800          182   0.01216745 3.0419386e-07 0.0037795049 
  125000    182.29167   0.01210839 3.0271732e-07 0.0037745255 
  125200    182.58333  0.012049619 3.0124801e-07 0.0037695667 
  125400      182.875  0.011991126 2.9978565e-07 0.0037645857 
  125600    183.16667  0.011932908 2.9833016e-07 0.0037595596 
  125800    183.45833  0.011874975 2.9688179e-07 0.0037545474 
  126000       183.75  0.011817326 2.9544054e-07 0.0037495506 
  126200    184.04167   0.01175995 2.9400611e-07 0.0037445273 
  126400    184.33333  0.011702843 2.925784e-07 0.0037394775 
  126600      184.625  0.011646013 2.911576e-07 0.0037344128 
  126800    184.91667  0.011589463 2.8974381e-07 0.0037293611 
  127000    185.20833  0.011533185 2.8833682e-07 0.0037243138 
  127200        185.5   0.01147717 2.8693643e-07  0.003719222 
  127400    185.79167  0.011421424 2.8554274e-07 0.0037141131 
  127600    186.08333  0.011365954 2.8415595e-07 0.0037090239 
  127800      186.375  0.011310754 2.8277592e-07  0.003703936 
  128000    186.66667  0.011255814 2.8140238e-07 0.0036988232 
  128200    186.95833  0.011201135 2.8003537e-07 0.0036936847 
  128400       187.25  0.011146725 2.7867509e-07 0.0036885551 
  128600    187.54167  0.011092582 2.7732148e-07 0.0036834464 
  128800    187.83333  0.011038696 2.759743e-07 0.0036783175 
  129000      188.125  0.010985065 2.7463349e-07 0.0036731648 
  129200    188.41667  0.010931695 2.732992e-07 0.0036680181 
  129400    188.70833  0.010878589 2.7197153e-07 0.0036628911 
  129600          189  0.010825739 2.7065025e-07 0.0036577704 
  129800    189.29167  0.010773138 2.6933519e-07 0.0036526177 
  130000    189.58333  0.010720792 2.6802651e-07 0.0036474586 
  130200      189.875  0.010668707 2.6672434e-07  0.003642334 
  130400    190.16667  0.010616875 2.654285e-07 0.0036372102 
  130600    190.45833  0.010565287 2.6413878e-07 0.0036320642 
  130800       190.75  0.010513948 2.6285527e-07 0.0036269121 
  131000    191.04167  0.010462863 2.6157811e-07 0.0036217689 
  131200    191.33333   0.01041203 2.6030725e-07 0.0036166504 
  131400      191.625  0.010361438 2.5904243e-07 0.0036115175 
  131600    191.91667  0.010311087 2.5778363e-07 0.0036063505 
  131800    192.20833  0.010260985 2.5653105e-07 0.0036012018 
  132000        192.5  0.010211132 2.5528469e-07 0.0035960739 
  132200    192.79167  0.010161519 2.5404431e-07 0.0035909288 
  132400    193.08333   0.01011214 2.5280982e-07 0.0035857615 
  132600      193.375  0.010063003 2.5158137e-07 0.0035805871 
  132800    193.66667  0.010014111 2.5035903e-07 0.0035754283 
  133000    193.95833 0.0099654562 2.4914263e-07   0.00357027 
  133200       194.25 0.0099170326 2.4793201e-07 0.0035650728 
  133400    194.54167  0.009868843 2.4672724e-07 0.0035598585 
  133600    194.83333 0.0098208932 2.4552847e-07 0.0035546558 
  133800      195.125 0.0097731786 2.4433557e-07 0.0035494534 
  134000    195.41667 0.0097256902 2.4314833e-07 0.0035442218 
  134200    195.70833 0.0096784285 2.4196676e-07 0.0035389578 
  134400          196 0.0096314008 2.4079104e-07    0.0035337 
  134600    196.29167 0.0095846051 2.3962112e-07 0.0035284514 
  134800    196.58333 0.0095380328 2.3845678e-07  0.003523172 
  135000      196.875 0.0094916819 2.3729798e-07 0.0035178636 
  135200    197.16667 0.0094455578 2.3614485e-07 0.0035125478 
  135400    197.45833 0.0093996618 2.3499742e-07 0.0035072372 
  135600       197.75 0.0093539867 2.3385551e-07 0.0035019215 
  135800    198.04167 0.0093085269 2.3271899e-07 0.0034965634 
  136000    198.33333 0.0092632866 2.3158795e-07  0.003491188 
  136200      198.625 0.0092182706 2.3046253e-07 0.0034858333 
  136400    198.91667 0.0091734726 2.2934255e-07 0.0034804676 
  136600    199.20833 0.0091288858 2.2822785e-07 0.0034750715 
  136800        199.5 0.0090845126 2.2711849e-07 0.0034696613 
  137000    199.79167 0.0090403584 2.2601461e-07 0.0034642529 
  137200    200.08333 0.0089964199 2.2491612e-07 0.0034588592 
  137400      200.375 0.0089526906 2.2382286e-07 0.0034534488 
  137600    200.66667 0.0089091691 2.227348e-07 0.0034480095 
  137800    200.95833 0.0088658611 2.2165207e-07 0.0034425853 
  138000       201.25  0.008822767 2.2057469e-07  0.003437182 
  138200    201.54167 0.0087798789 2.1950246e-07 0.0034317714 
  138400    201.83333 0.0087371937 2.184353e-07 0.0034263451 
  138600      202.125 0.0086947168 2.1737335e-07 0.0034209247 
  138800    202.41667 0.0086524505 2.1631667e-07 0.0034155359 
  139000    202.70833 0.0086103883 2.1526509e-07 0.0034101598 
  139200          203 0.0085685255 2.1421849e-07 0.0034047707 
  139400    203.29167 0.0085268646 2.1317694e-07 0.0033993907 
  139600    203.58333 0.0084854098 2.1214055e-07 0.0033940411 
  139800      203.875 0.0084441579 2.1110922e-07 0.0033887206 
  140000    204.16667 0.0084031022 2.1008281e-07 0.0033834021 
  140200    204.45833 0.0083622425 2.0906129e-07 0.0033780793 
  140400       204.75 0.0083215849 2.0804482e-07 0.0033727969 
  140600    205.04167 0.0082811275 2.0703336e-07 0.0033675545 
  140800    205.33333  0.008240863 2.0602672e-07 0.0033623144 
  141000      205.625 0.0082007902 2.0502488e-07  0.003357084 
  141200    205.91667 0.0081609138 2.0402794e-07 0.0033518818 
  141400    206.20833 0.0081212343 2.0303593e-07 0.0033467184 
  141600        206.5 0.0080817465 2.0204871e-07 0.0033415861 
  141800    206.79167 0.0080424461 2.0106618e-07 0.0033364494 
  142000    207.08333 0.0080033362 2.0008841e-07 0.0033313324 
  142200      207.375 0.0079644208 1.991155e-07 0.0033262694 
  142400    207.66667 0.0079256948 1.9814732e-07 0.0033212305 
  142600    207.95833  0.007887152 1.9718373e-07 0.0033161965 
  142800       208.25 0.0078487949 1.9622478e-07 0.0033111812 
  143000    208.54167 0.0078106275 1.9527057e-07 0.0033062013 
  143200    208.83333 0.0077726469 1.9432103e-07 0.0033012617 
  143400      209.125 0.0077348477 1.9337603e-07 0.0032963314 
  143600    209.41667 0.0076972293 1.9243554e-07 0.0032914028 
  143800    209.70833 0.0076597956 1.9149968e-07 0.0032865088 
  144000          210  0.007622547 1.9056844e-07 0.0032816528 
  144200    210.29167 0.0075854772 1.8964167e-07 0.0032768101 
  144400    210.58333 0.0075485831 1.887193e-07 0.0032719652 
  144600      210.875 0.0075118689 1.8780142e-07 0.0032671384 
  144800    211.16667 0.0074753365 1.8688809e-07 0.0032623524 
  145000    211.45833 0.0074389802 1.8597915e-07 0.0032575801 
  145200       211.75 0.0074027965 1.8507454e-07 0.0032527999 
  145400    212.04167 0.0073667876 1.8417429e-07 0.0032480308 
  145600    212.33333 0.0073309562 1.8327849e-07 0.0032432856 
  145800      212.625 0.0072952994 1.8238704e-07 0.0032385624 
  146000    212.91667 0.0072598119 1.8149984e-07 0.0032338347 
  146200    213.20833 0.0072244937 1.8061686e-07 0.0032290928 
  146400        213.5 0.0071893493 1.7973823e-07 0.0032243763 
  146600    213.79167 0.0071543773 1.788639e-07  0.003219682 
  146800    214.08333 0.0071195714 1.7799374e-07 0.0032149722 
  147000      214.375 0.0070849309 1.771277e-07 0.0032102527 
  147200    214.66667 0.0070504595 1.7626589e-07 0.0032055404 
  147400    214.95833 0.0070161574 1.7540832e-07 0.0032008427 
  147600       215.25 0.0069820201 1.7455487e-07 0.0031961489 
  147800    215.54167 0.0069480445 1.7370546e-07 0.0031914292 
  148000    215.83333 0.0069142326 1.7286014e-07 0.0031867042 
  148200      216.125 0.0068805876 1.7201899e-07 0.0031820012 
  148400    216.41667 0.0068471058 1.7118192e-07 0.0031772964 
  148600    216.70833 0.0068137824 1.7034882e-07 0.0031725695 
  148800          217 0.0067806194 1.6951972e-07 0.0031678316 
  149000    217.29167 0.0067476202 1.6869472e-07 0.0031631042 
  149200    217.58333 0.0067147819 1.6787375e-07 0.0031583864 
  149400      217.875 0.0066821005 1.6705669e-07 0.0031536488 
  149600    218.16667 0.0066495755 1.6624354e-07 0.0031488927 
  149800    218.45833   0.00661721 1.6543439e-07 0.0031441445 
  150000       218.75 0.0065850041 1.6462922e-07 0.0031394064 
  150200    219.04167  0.006552953 1.6382792e-07 0.0031346619 
  150400    219.33333 0.0065210543 1.6303043e-07 0.0031298938 
  150600      219.625 0.0064893115 1.6223684e-07 0.0031251239 
  150800    219.91667 0.0064577264 1.6144719e-07 0.0031203772 
  151000    220.20833 0.0064262942 1.6066137e-07 0.0031156252 
  151200        220.5 0.0063950122 1.598793e-07 0.0031108523 
  151400    220.79167 0.0063638825 1.5910104e-07 0.0031060812 
  151600    221.08333 0.0063329073 1.5832664e-07 0.0031013218 
  151800      221.375 0.0063020839 1.5755604e-07 0.0030965739 
  152000    221.66667 0.0062714087 1.5678914e-07 0.0030918167 
  152200    221.95833 0.0062408816 1.5602594e-07 0.0030870429 
  152400       222.25 0.0062105062 1.5526654e-07 0.0030822901 
  152600    222.54167 0.0061802816 1.545109e-07  0.003077558 
  152800    222.83333 0.0061502027 1.5375891e-07 0.0030728135 
  153000      223.125 0.0061202687 1.5301054e-07 0.0030680627 
  153200    223.41667 0.0060904828 1.5226588e-07 0.0030633248 
  153400    223.70833 0.0060608448 1.5152491e-07 0.0030586078 
  153600          224 0.0060313508 1.5078754e-07 0.0030538987 
  153800    224.29167 0.0060019985 1.5005371e-07  0.003049177 
  154000    224.58333 0.0059727898 1.4932348e-07 0.0030444635 
  154200      224.875 0.0059437265 1.4859688e-07 0.0030397798 
  154400    225.16667 0.0059148058 1.4787384e-07  0.003035109 
  154600    225.45833 0.0058860239 1.4715428e-07 0.0030304327 
  154800       225.75 0.0058573821 1.4643821e-07 0.0030257589 
  155000    226.04167 0.0058288832 1.4572572e-07  0.003021114 
  155200    226.33333 0.0058005249 1.4501675e-07 0.0030164935 
  155400      226.625 0.0057723033 1.4431119e-07 0.0030118684 
  155600    226.91667 0.0057442184 1.4360905e-07 0.0030072466 
  155800    227.20833 0.0057162729 1.4291039e-07 0.0030026504 
  156000        227.5  0.005688466 1.422152e-07 0.0029980796 
  156200    227.79167  0.005660794 1.4152339e-07 0.0029935216 
  156400    228.08333 0.0056332553 1.408349e-07 0.0029889587 
  156600      228.375  0.005605852 1.401498e-07 0.0029844119 
  156800    228.66667 0.0055785851 1.3946811e-07 0.0029799043 
  157000    228.95833 0.0055514507 1.3878974e-07 0.0029754068 
  157200       229.25 0.0055244465 1.3811462e-07 0.0029709051 
  157400    229.54167 0.0054975741 1.3744279e-07 0.0029664215 
  157600    229.83333 0.0054708351 1.367743e-07 0.0029619639 
  157800      230.125 0.0054442268 1.3610907e-07 0.0029575289 
  158000    230.41667 0.0054177464 1.3544705e-07 0.0029530972 
  158200    230.70833 0.0053913939 1.3478822e-07 0.0029486651 
  158400          231 0.0053651715 1.3413264e-07 0.0029442638 
  158600    231.29167 0.0053390782 1.3348029e-07 0.0029398904 
  158800    231.58333 0.0053131102 1.3283108e-07 0.0029355168 
  159000      231.875 0.0052872666 1.3218497e-07 0.0029311447 
  159200    232.16667 0.0052615499 1.3154204e-07 0.0029267934 
  159400    232.45833 0.0052359601 1.3090227e-07 0.0029224706 
  159600       232.75 0.0052104935 1.3026559e-07  0.002918158 
  159800    233.04167 0.0051851487 1.2963196e-07 0.0029138399 
  160000    233.33333 0.0051599272 1.2900141e-07 0.0029095369 
  160200      233.625 0.0051348302 1.2837396e-07 0.0029052621 
  160400    233.91667 0.0051098551 1.2774957e-07 0.0029010022 
  160600    234.20833 0.0050849993 1.2712816e-07 0.0028967404 
  160800        234.5 0.0050602633 1.2650974e-07 0.0028924809 
  161000    234.79167 0.0050356493 1.2589438e-07 0.0028882507 
  161200    235.08333 0.0050111554 1.2528202e-07 0.0028840437 
  161400      235.375 0.0049867784 1.2467258e-07 0.0028798302 
  161600    235.66667 0.0049625184 1.2406606e-07 0.0028756205 
  161800    235.95833 0.0049383775 1.2346252e-07 0.0028714332 
  162000       236.25 0.0049143547 1.2286194e-07 0.0028672655 
  162200    236.54167 0.0048904473 1.2226424e-07  0.002863106 
  162400    236.83333  0.004866654 1.2166939e-07 0.0028589393 
  162600      237.125 0.0048429765 1.2107744e-07 0.0028547842 
  162800    237.41667 0.0048194155 1.204884e-07 0.0028506607 
  163000    237.70833 0.0047959682 1.199022e-07 0.0028465416 
  163200          238 0.0047726325 1.1931879e-07 0.0028424135 
  163400    238.29167 0.0047494098 1.1873821e-07 0.0028382963 
  163600    238.58333 0.0047263016 1.1816049e-07  0.002834199 
  163800      238.875 0.0047033053 1.1758557e-07 0.0028301146 
  164000    239.16667 0.0046804189 1.170134e-07 0.0028260241 
  164200    239.45833 0.0046576425 1.1644397e-07 0.0028219285 
  164400       239.75 0.0046349777 1.1587734e-07  0.002817853 
  164600    240.04167 0.0046124237 1.1531348e-07 0.0028137933 
  164800    240.33333 0.0045899775 1.1475231e-07  0.002809726 
  165000      240.625 0.0045676384 1.1419381e-07 0.0028056499 
  165200    240.91667 0.0045454083 1.1363805e-07 0.0028015836 
  165400    241.20833 0.0045232873 1.1308501e-07 0.0027975346 
  165600        241.5 0.0045012723 1.1253462e-07 0.0027934812 
  165800    241.79167 0.0044793623 1.1198686e-07 0.0027894113 
  166000    242.08333 0.0044575586 1.1144175e-07 0.0027853453 
  166200      242.375 0.0044358618 1.1089932e-07 0.0027812911 
  166400    242.66667 0.0044142699 1.1035951e-07 0.0027772368 
  166600    242.95833 0.0043927808 1.0982227e-07 0.0027731676 
  166800       243.25 0.0043713948 1.092876e-07 0.0027690854 
  167000    243.54167 0.0043501136 1.0875556e-07 0.0027650156 
  167200    243.83333 0.0043289357 1.082261e-07 0.0027609502 
  167400      244.125 0.0043078583 1.0769915e-07 0.0027568615 
  167600    244.41667 0.0042868816 1.0717472e-07 0.0027527603 
  167800    244.70833 0.0042660073 1.0665285e-07 0.0027486637 
  168000          245 0.0042452345 1.0613352e-07 0.0027445681 
  168200    245.29167 0.0042245609 1.0561666e-07  0.002740462 
  168400    245.58333 0.0042039858 1.0510227e-07 0.0027363323 
  168600      245.875 0.0041835102 1.0459037e-07  0.002732197 
  168800    246.16667  0.004163135 1.0408098e-07 0.0027280725 
  169000    246.45833 0.0041428577 1.0357403e-07  0.002723935 
  169200       246.75 0.0041226767 1.0306949e-07 0.0027197725 
  169400    247.04167  0.004102593 1.0256739e-07 0.0027156024 
  169600    247.33333 0.0040826079 1.0206775e-07 0.0027114363 
  169800      247.625 0.0040627194 1.0157052e-07 0.0027072658 
  170000    247.91667 0.0040429256 1.0107567e-07 0.0027030728 
  170200    248.20833 0.0040232269 1.0058319e-07 0.0026988629 
  170400        248.5 0.0040036245 1.0009311e-07 0.0026946579 
  170600    248.79167 0.0039841177 9.9605433e-08 0.0026904525 
  170800    249.08333 0.0039647043 9.9120086e-08 0.0026862293 
  171000      249.375 0.0039453835 9.8637054e-08 0.0026819859 
  171200    249.66667  0.003926157 9.8156379e-08 0.0026777413 
  171400    249.95833 0.0039070248 9.7678062e-08 0.0026735053 
  171429    250.00062 0.0039042583 9.7608898e-08 0.0026728906 
Loop time of 7762.46 on 32 procs for 171429 steps with 40000 atoms

Performance: 2782.631 tau/day, 22.084 timesteps/s
99.8% CPU use with 4 MPI tasks x 8 OpenMP threads

MPI task timing breakdown:
Section |  min time  |  avg time  |  max time  |%varavg| %total
---------------------------------------------------------------
Pair    | 1214.6     | 1217.9     | 1222.3     |   8.2 | 15.69
Neigh   | 3.7929     | 3.8121     | 3.8309     |   0.7 |  0.05
Comm    | 12.617     | 12.818     | 13         |   3.9 |  0.17
Output  | 36.292     | 36.345     | 36.382     |   0.5 |  0.47
Modify  | 6372.9     | 6376.5     | 6380       |   3.9 | 82.15
Other   |            | 115.1      |            |       |  1.48

Nlocal:        10000.0 ave       10008 max        9989 min
Histogram: 1 0 0 1 0 0 0 0 0 2
Nghost:        1754.25 ave        1762 max        1747 min
Histogram: 1 0 1 0 0 0 0 1 0 1
Neighs:       283470.0 ave      283769 max      283255 min
Histogram: 2 0 0 0 0 0 1 0 0 1
FullNghs:     546935.0 ave      547498 max      546553 min
Histogram: 2 0 0 0 0 0 1 0 0 1

Total # of neighbors = 2187740
Ave neighs/atom = 54.693500
Neighbor list builds = 627
Dangerous builds = 0
Total wall time: 2:09:22
