LAMMPS (29 Oct 2020)
  using 8 OpenMP thread(s) per MPI task
dimension          2
units              lj
atom_style         rheo
boundary           p p p
comm_modify        vel yes
newton off

##### Particle Generation #######
##################################

## Particle Lattice/Resolution Parameters
variable           L equal 10
variable           t_tot equal 250
variable           sf equal 0.1 #25 #/${L} #scaling of unit cell #scale factor for particle resolution
# n is particle number density, depends on lattive
variable           nb equal 1    #number of basis atoms depends on lattice
variable           n equal ${nb}/(${sf}^2) # number of particles per volume
variable           n equal 1/(${sf}^2) 
variable           n equal 1/(0.1^2) 
variable           del equal ${sf}#*sqrt(2) # distance between particles
variable           del equal 0.1
lattice            sq ${n} #create a set of potential particle locations
lattice            sq 100 
Lattice spacing in x,y,z = 0.1 0.1 0.1
# SPH Smoothing Kernel Length
variable           hd equal 3.5
variable           h3 equal ${hd}*${del}
variable           h3 equal 3.5*${del}
variable           h3 equal 3.5*0.1


# create simulation box

variable           dz equal 0.1*${sf} #For 2D, make sure that z-dimension only has 1 particle layer
variable           dz equal 0.1*0.1 
region             box block 0 ${L} 0 ${L} -${dz} ${dz} units box #create a 2D box using box units (vs lattice units)
region             box block 0 10 0 ${L} -${dz} ${dz} units box 
region             box block 0 10 0 10 -${dz} ${dz} units box 
region             box block 0 10 0 10 -0.01 ${dz} units box 
region             box block 0 10 0 10 -0.01 0.01 units box 
create_box         2 box #create a simulation box from the region box - with 2 types of atoms
Created orthogonal box = (0.0000000 0.0000000 -0.01) to (10.000000 10.000000 0.01)
  2 by 2 by 1 MPI processor grid
#Create atoms in our whole simulation box
create_atoms       1 region box #creates atoms of type 1 within the box region
Created 10000 atoms
  create_atoms CPU = 0.001 seconds



# Assign all particles of type 1 to a group fluid
group              fluid type 1
10000 atoms in group fluid
#group             wall type 2

##### End Particle Generation #######
##################################

#Now randomly displace in x and y up %20 of their spacing (sf)
variable           seed equal 135414
variable           dr equal 0.1*${del}
variable           dr equal 0.1*0.1
displace_atoms     fluid random ${dr} ${dr} 0 ${seed} units box
displace_atoms     fluid random 0.01 ${dr} 0 ${seed} units box
displace_atoms     fluid random 0.01 0.01 0 ${seed} units box
displace_atoms     fluid random 0.01 0.01 0 135414 units box
Displacing atoms ...

##### Setting Physical Parameters #######
##################################

# Potential parameters eta = 1, cs = 0 so force gives laplacian
variable           rho0 equal 1.0 #Equilibrium density P=cs^2(rho-rho0)
variable           mp equal ${rho0}/${n} #particle mass, fixed by density and number density
variable           mp equal 1/${n} 
variable           mp equal 1/100 
variable           cs equal 4.0 #speed of sound - for pressure EoS
variable           eta equal 0.01 #dynamic viscosity
variable           zeta equal 1 #artificial viscosity - stabilizing term
variable           Dr equal 0.05*${h3}*${cs} #density diffusion - stabilizing term to diffuse noise throughout the system
variable           Dr equal 0.05*0.35*${cs} 
variable           Dr equal 0.05*0.35*4 
#variable          D equal 1.0
#variable          kappa equal ${D}*${rho0}/${mp}
#variable          fext equal 5e-3/${n}


# Set particle properties
mass               * ${mp}
mass               * 0.01
set                group all phase 0
Setting atom values ...
  10000 settings made for phase
set                group all temp 1.0
Setting atom values ...
  10000 settings made for temp

variable           u0 equal 0.1

variable           uy atom  ${u0}*sin(2*PI*x/lx)*cos(2*PI*y/ly)
variable           uy atom  0.1*sin(2*PI*x/lx)*cos(2*PI*y/ly)
variable           ux atom -${u0}*sin(2*PI*y/ly)*cos(2*PI*x/ly)
variable           ux atom -0.1*sin(2*PI*y/ly)*cos(2*PI*x/ly)
variable           d0 atom ${rho0}-${u0}*${u0}*${rho0}*0.25*(cos(4*PI*x/lx)+cos(4*PI*y/ly))/${cs}/${cs}
variable           d0 atom 1-${u0}*${u0}*${rho0}*0.25*(cos(4*PI*x/lx)+cos(4*PI*y/ly))/${cs}/${cs}
variable           d0 atom 1-0.1*${u0}*${rho0}*0.25*(cos(4*PI*x/lx)+cos(4*PI*y/ly))/${cs}/${cs}
variable           d0 atom 1-0.1*0.1*${rho0}*0.25*(cos(4*PI*x/lx)+cos(4*PI*y/ly))/${cs}/${cs}
variable           d0 atom 1-0.1*0.1*1*0.25*(cos(4*PI*x/lx)+cos(4*PI*y/ly))/${cs}/${cs}
variable           d0 atom 1-0.1*0.1*1*0.25*(cos(4*PI*x/lx)+cos(4*PI*y/ly))/4/${cs}
variable           d0 atom 1-0.1*0.1*1*0.25*(cos(4*PI*x/lx)+cos(4*PI*y/ly))/4/4

velocity           all set v_ux v_uy 0.0 units box
set                group all rho v_d0
Setting atom values ...
  10000 settings made for rho


##### Define Physical Equations #######
##################################

fix                1 all rheo ${h3} CRK2 23 #shift # rhosum 1  shift
fix                1 all rheo 0.35 CRK2 23 
fix                2 all rheo/surface ${h3} 1.5 10
fix                2 all rheo/surface 0.35 1.5 10
fix                3 all rheo/viscosity constant ${eta}
fix                3 all rheo/viscosity constant 0.01

pair_style         rheo ${h3} artificial/visc ${zeta} rho/damp ${Dr}  #pressure taitwater rho/damp ${Dr}
pair_style         rheo 0.35 artificial/visc ${zeta} rho/damp ${Dr}  
pair_style         rheo 0.35 artificial/visc 1 rho/damp ${Dr}  
pair_style         rheo 0.35 artificial/visc 1 rho/damp 0.07  
pair_coeff         * * ${rho0} ${cs}
pair_coeff         * * 1 ${cs}
pair_coeff         * * 1 4

#Timestep
#Ensures that the timestep is smaller than values, as per CFL criteria
variable           dt_max equal  0.1*${h3}/${cs}/3
variable           dt_max equal  0.1*0.35/${cs}/3
variable           dt_max equal  0.1*0.35/4/3

#variable           dx_max equal ${h3}/100
timestep           ${dt_max}
timestep           0.00291666666666667

variable           Nsteps equal round(${t_tot}/${dt_max})
variable           Nsteps equal round(250/${dt_max})
variable           Nsteps equal round(250/0.00291666666666667)

##### Defining Output Setting #######
##################################

#Compute atom properties to output in dump file
compute            den all property/atom rho
compute            phase all property/atom phase
compute            eta all property/atom viscosity

#l log file output and output frequency
thermo             200
thermo_style       custom step time ke temp press
thermo_modify      norm no #report properties as extensive, not intensive (i.e. per mol)

#define a dump file
dump               1 all custom 200 0_2_10.atoms id type x y vx vy fx fy c_den c_phase f_rheo_chi_chi c_eta
dump               2 all netcdf 200 0_2_10.nc id type x y vx vy fx fy c_den c_phase f_rheo_chi_chi c_eta

#modify neighbor bin size based on the cutoff distance h3
variable           skin equal 0.2*${h3}
variable           skin equal 0.2*0.35
neighbor           ${skin} bin
neighbor           0.07 bin
neigh_modify       one 10000 #increase number of allowed neighbors

#run for n steps
run ${Nsteps}
run 85714
Neighbor list info ...
  update every 1 steps, delay 10 steps, check yes
  max neighbors/atom: 10000, page size: 100000
  master list distance cutoff = 0.42
  ghost atom cutoff = 0.42
  binsize = 0.21, bins = 48 48 1
  5 neighbor lists, perpetual/occasional/extra = 5 0 0
  (1) pair rheo, perpetual, half/full from (2)
      attributes: half, newton off
      pair build: halffull/newtoff
      stencil: none
      bin: none
  (2) compute rheo/kernel, perpetual
      attributes: full, newton off
      pair build: full/bin/atomonly
      stencil: full/bin/2d
      bin: standard
  (3) compute rheo/grad, perpetual, copy from (1)
      attributes: half, newton off
      pair build: copy
      stencil: none
      bin: none
  (4) compute rheo/chi, perpetual, copy from (1)
      attributes: half, newton off
      pair build: copy
      stencil: none
      bin: non