LAMMPS (29 Oct 2020)
OMP_NUM_THREADS environment is not set. Defaulting to 1 thread. (src/comm.cpp:94)
  using 1 OpenMP thread(s) per MPI task
dimension          2
units              lj
atom_style         rheo
boundary           p p p
comm_modify        vel yes
newton off

##### Particle Generation #######
##################################

## Particle Lattice/Resolution Parameters
variable           L equal 10
variable           ttot equal 500
variable           sf equal 0.1 #25 #/${L} #scaling of unit cell #scale factor for particle resolution
# n is particle number density, depends on lattive
variable           nb equal 1    #number of basis atoms depends on lattice
variable           n equal ${nb}/(${sf}^2) # number of particles per volume
variable           n equal 1/(${sf}^2) 
variable           n equal 1/(0.1^2) 
variable           del equal ${sf}#*sqrt(2) # distance between particles
variable           del equal 0.1
lattice            sq ${n} #create a set of potential particle locations
lattice            sq 100 
Lattice spacing in x,y,z = 0.1 0.1 0.1
# SPH Smoothing Kernel Length
variable           hd equal 3.5
variable           h3 equal ${hd}*${del}
variable           h3 equal 3.5*${del}
variable           h3 equal 3.5*0.1


# create simulation box
#read_data           data.10
#read_restart         restart.20
#reset_timestep       10

variable           dz equal 0.1*${sf} #For 2D, make sure that z-dimension only has 1 particle layer
variable           dz equal 0.1*0.1 
region             box block 0 ${L} 0 ${L} -${dz} ${dz} units box #create a 2D box using box units (vs lattice units)
region             box block 0 10 0 ${L} -${dz} ${dz} units box 
region             box block 0 10 0 10 -${dz} ${dz} units box 
region             box block 0 10 0 10 -0.01 ${dz} units box 
region             box block 0 10 0 10 -0.01 0.01 units box 
create_box         2 box #create a simulation box from the region box - with 2 types of atoms
Created orthogonal box = (0.0000000 0.0000000 -0.01) to (10.000000 10.000000 0.01)
  4 by 2 by 1 MPI processor grid
#Create atoms in our whole simulation box
create_atoms       1 region box #creates atoms of type 1 within the box region
Created 10000 atoms
  create_atoms CPU = 0.001 seconds



# Assign all particles of type 1 to a group fluid
group              fluid type 1
10000 atoms in group fluid
#group             wall type 2

##### End Particle Generation #######
##################################

#Now randomly displace in x and y up %20 of their spacing (sf)
variable           seed equal 135414
variable           dr equal 0.1*${del}
variable           dr equal 0.1*0.1
displace_atoms     fluid random ${dr} ${dr} 0 ${seed} units box
displace_atoms     fluid random 0.01 ${dr} 0 ${seed} units box
displace_atoms     fluid random 0.01 0.01 0 ${seed} units box
displace_atoms     fluid random 0.01 0.01 0 135414 units box
Displacing atoms ...

##### Setting Physical Parameters #######
##################################

# Potential parameters eta = 1, cs = 0 so force gives laplacian
variable           rho0 equal 1.0 #Equilibrium density P=cs^2(rho-rho0)
variable           mp equal ${rho0}/${n} #particle mass, fixed by density and number density
variable           mp equal 1/${n} 
variable           mp equal 1/100 
variable           cs equal 4.0 #speed of sound - for pressure EoS
variable           eta equal 0.01 #dynamic viscosity
variable           zeta equal 1 #artificial viscosity - stabilizing term
variable           Dr equal 0.05*${h3}*${cs} #density diffusion - stabilizing term to diffuse noise throughout the system
variable           Dr equal 0.05*0.35*${cs} 
variable           Dr equal 0.05*0.35*4 
#variable          D equal 1.0
#variable          kappa equal ${D}*${rho0}/${mp}
#variable          fext equal 5e-3/${n}


# Set particle properties
mass               * ${mp}
mass               * 0.01
set                group all phase 0
Setting atom values ...
  10000 settings made for phase
set                group all temp 1.0
Setting atom values ...
  10000 settings made for temp

variable           u0 equal 0.1

variable           uy atom  ${u0}*sin(2*PI*x/lx)*cos(2*PI*y/ly)
variable           uy atom  0.1*sin(2*PI*x/lx)*cos(2*PI*y/ly)
variable           ux atom -${u0}*sin(2*PI*y/ly)*cos(2*PI*x/ly)
variable           ux atom -0.1*sin(2*PI*y/ly)*cos(2*PI*x/ly)
variable           d0 atom ${rho0}-${u0}*${u0}*${rho0}*0.25*(cos(4*PI*x/lx)+cos(4*PI*y/ly))/${cs}/${cs}
variable           d0 atom 1-${u0}*${u0}*${rho0}*0.25*(cos(4*PI*x/lx)+cos(4*PI*y/ly))/${cs}/${cs}
variable           d0 atom 1-0.1*${u0}*${rho0}*0.25*(cos(4*PI*x/lx)+cos(4*PI*y/ly))/${cs}/${cs}
variable           d0 atom 1-0.1*0.1*${rho0}*0.25*(cos(4*PI*x/lx)+cos(4*PI*y/ly))/${cs}/${cs}
variable           d0 atom 1-0.1*0.1*1*0.25*(cos(4*PI*x/lx)+cos(4*PI*y/ly))/${cs}/${cs}
variable           d0 atom 1-0.1*0.1*1*0.25*(cos(4*PI*x/lx)+cos(4*PI*y/ly))/4/${cs}
variable           d0 atom 1-0.1*0.1*1*0.25*(cos(4*PI*x/lx)+cos(4*PI*y/ly))/4/4

velocity           all set v_ux v_uy 0.0 units box
set                group all rho v_d0
Setting atom values ...
  10000 settings made for rho





##### Define Physical Equations #######
##################################

fix                1 all rheo ${h3} CRK2 0 shift # rhosum 1  shift
fix                1 all rheo 0.35 CRK2 0 shift 
fix                2 all rheo/surface ${h3}
fix                2 all rheo/surface 0.35
fix                3 all rheo/viscosity constant ${eta}
fix                3 all rheo/viscosity constant 0.01

pair_style         rheo ${h3} artificial/visc ${zeta} rho/damp ${Dr}  #pressure taitwater rho/damp ${Dr}
pair_style         rheo 0.35 artificial/visc ${zeta} rho/damp ${Dr}  
pair_style         rheo 0.35 artificial/visc 1 rho/damp ${Dr}  
pair_style         rheo 0.35 artificial/visc 1 rho/damp 0.07  
pair_coeff         * * ${rho0} ${cs}
pair_coeff         * * 1 ${cs}
pair_coeff         * * 1 4

#Timestep
#Ensures that the timestep is smaller than values, as per CFL criteria
#variable           dt_max equal  0.1*${h3}/${cs}/3
variable           dt_max equal  0.1*3.5*0.1/${cs}/3
variable           dt_max equal  0.1*3.5*0.1/4/3

#variable           dx_max equal ${h3}/100
timestep           ${dt_max}
timestep           0.00291666666666667

variable           Nsteps equal ${ttot}/dt
variable           Nsteps equal 500/dt

##### Defining Output Setting #######
##################################

#Compute atom properties to output in dump file
compute            den all property/atom rho
compute            phase all property/atom phase
compute            eta all property/atom viscosity

#l log file output and output frequency
thermo             200
thermo_style       custom step time ke temp press
thermo_modify      norm no #report properties as extensive, not intensive (i.e. per mol)

#define a dump file
dump               1 all custom 200 1_1_10.atoms id type x y vx vy fx fy c_den c_phase f_rheo_chi_chi c_eta
dump               2 all netcdf 200 1_1_10.nc id type x y vx vy fx fy c_den c_phase f_rheo_chi_chi c_eta
#dump_modify        1 append yes at -1 thermo yes

#modify neighbor bin size based on the cutoff distance h3
variable           skin equal 0.2*${h3}
variable           skin equal 0.2*0.35
neighbor           ${skin} bin
neighbor           0.07 bin
neigh_modify       one 10000 #increase number of allowed neighbors

#run for n steps
run 300000 #upto
WARNING: One or more atoms are time integrated more than once (src/modify.cpp:285)
Neighbor list info ...
  update every 1 steps, delay 10 steps, check yes
  max neighbors/atom: 10000, page size: 100000
  master list distance cutoff = 0.42
  ghost atom cutoff = 0.42
  binsize = 0.21, bins = 48 48 1
  6 neighbor lists, perpetual/occasional/extra = 6 0 0
  (1) pair rheo, perpetual, half/full from (2)
      attributes: half, newton off
      pair build: halffull/newtoff
      stencil: none
      bin: none
  (2) compute rheo/kernel, perpetual
      attributes: full, newton off
      pair build: full/bin/atomonly
      stencil: full/bin/2d
      bin: standard
  (3) compute rheo/grad, perpetual, copy from (1)
      attributes: half, newton off
      pair build: copy
      stencil: none
      bin: none
  (4) compute rheo/chi, perpetual, copy from (1)
      attributes: half, newton off
      pair build: copy
      stencil: none
      bin: none
  (5) fix rheo/vshift, perpetual, copy from (1)
      attributes: half, newton off
      pair build: copy
      stencil: none
      bin: none
  (6) fix rheo/surface, perpetual, copy from (1)
      attributes: half, newton off
      pair build: copy
      stencil: none
      bin: none
Per MPI rank memory allocation (min/avg/max) = 10.84 | 10.86 | 10.89 Mbytes
Step Time KinEng Temp Press 
       0            0   0.24998754 2.5001254e-05  0.002523589 
     200   0.58333333   0.24761189 2.4763666e-05 0.0025008701 
     400    1.1666667   0.24525834 2.4528287e-05 0.0024780759 
     600         1.75   0.24292886 2.4295316e-05 0.0024555181 
     800    2.3333333   0.24062533 2.406494e-05 0.0024331093 
    1000    2.9166667   0.23834864 2.3837247e-05 0.0024106452 
    1200          3.5   0.23610037 2.3612398e-05 0.0023880886 
    1400    4.0833333   0.23387961  2.33903e-05 0.0023658722 
    1600    4.6666667   0.23168535 2.3170852e-05   0.00234435 
    1800         5.25    0.2295132 2.2953615e-05 0.0023237817 
    2000    5.8333333   0.22736091 2.2738365e-05 0.0023041721 
    2200    6.4166667   0.22522557 2.2524809e-05 0.0022851186 
    2400            7   0.22310741 2.2312972e-05  0.002266495 
    2600    7.5833333   0.22100538 2.2102748e-05 0.0022479427 
    2800    8.1666667   0.21892009 2.1894199e-05 0.0022292886 
    3000         8.75   0.21685145 2.1687314e-05 0.0022105529 
    3200    9.3333333   0.21479996 2.1482144e-05 0.0021917681 
    3400    9.9166667   0.21276543 2.1278671e-05 0.0021727583 
    3600         10.5   0.21074764 2.1076871e-05 0.0021537014 
    3800    11.083333   0.20874728 2.0876816e-05 0.0021346551 
    4000    11.666667   0.20676387 2.0678455e-05 0.0021155757 
    4200        12.25   0.20479805 2.0481853e-05 0.0020965284 
    4400    12.833333   0.20284927 2.0286956e-05 0.0020776941 
    4600    13.416667   0.20091898 2.0093907e-05 0.0020590209 
    4800           14   0.19900633 1.9902624e-05 0.0020404404 
    5000    14.583333   0.19711232 1.9713204e-05 0.0020220658 
    5200    15.166667   0.19523647  1.95256e-05 0.0020037883 
    5400        15.75   0.19337977 1.9339911e-05 0.0019857028 
    5600    16.333333   0.19154157 1.9156073e-05 0.0019677367 
    5800    16.916667   0.18972224 1.8974121e-05 0.0019499747 
    6000         17.5   0.18792165 1.8794045e-05 0.0019324692 
    6200    18.083333   0.18613961 1.8615823e-05 0.0019153385 
    6400    18.666667   0.18437578 1.8439422e-05 0.0018983107 
    6600        19.25   0.18262928 1.8264754e-05 0.0018814337 
    6800    19.833333   0.18090034 1.8091843e-05 0.0018648123 
    7000    20.416667   0.17918772 1.7920564e-05 0.0018482986 
    7200           21   0.17749167 1.7750942e-05 0.0018320408 
    7400    21.583333   0.17581111 1.7582869e-05 0.0018157719 
    7600    22.166667   0.17414678 1.741642e-05 0.0017996784 
    7800        22.75   0.17249741 1.7251466e-05 0.0017836042 
    8000    23.333333   0.17086349 1.7088058e-05 0.0017676548 
    8200    23.916667    0.1692443 1.6926123e-05 0.0017519271 
    8400         24.5   0.16764013 1.6765689e-05 0.0017363012 
    8600    25.083333   0.16605036 1.6606696e-05 0.0017207116 
    8800    25.666667   0.16447498 1.6449143e-05 0.0017053027 
    9000        26.25   0.16291403 1.6293032e-05 0.0016900864 
    9200    26.833333   0.16136716 1.613833e-05 0.0016747794 
    9400    27.416667   0.15983463 1.5985062e-05 0.0016597532 
    9600           28   0.15831587 1.583317e-05 0.0016448636 
    9800    28.583333   0.15681172 1.568274e-05 0.0016301862 
   10000    29.166667   0.15532126 1.5533679e-05 0.0016154932 
   10200        29.75   0.15384525 1.5386063e-05 0.0016009473 
   10400    30.333333   0.15238298 1.5239822e-05 0.0015866594 
   10600    30.916667   0.15093517 1.5095027e-05 0.0015725557 
   10800         31.5   0.14950098 1.4951593e-05 0.0015584983 
   11000    32.083333     0.148081 1.4809581e-05 0.0015446245 
   11200    32.666667   0.14667471 1.4668938e-05 0.0015308406 
   11400        33.25   0.14528231 1.4529684e-05 0.0015172476 
   11600    33.833333   0.14390356 1.4391795e-05 0.0015036848 
   11800    34.416667   0.14253828 1.4255254e-05 0.0014903185 
   12000           35   0.14118665 1.4120077e-05   0.00147712 
   12200    35.583333   0.13984812 1.398621e-05 0.0014638743 
   12400    36.166667   0.13852295 1.385368e-05 0.0014508703 
   12600        36.75   0.13721038 1.3722411e-05 0.0014379428 
   12800    37.333333   0.13591098 1.3592458e-05 0.0014252078 
   13000    37.916667   0.13462368 1.3463714e-05 0.0014124652 
   13200         38.5   0.13334907 1.333624e-05 0.0013999477 
   13400    39.083333    0.1320863 1.3209951e-05 0.0013875126 
   13600    39.666667   0.13083585 1.3084894e-05 0.0013752291 
   13800        40.25   0.12959692 1.2960988e-05 0.0013629602 
   14000    40.833333   0.12836983 1.2838266e-05 0.0013509188 
   14200    41.416667   0.12715417 1.2716689e-05 0.0013390178 
   14400           42   0.12594998 1.2596257e-05 0.0013271971 
   14600    42.583333   0.12475706 1.2476954e-05 0.0013154865 
   14800    43.166667   0.12357516 1.2358752e-05    0.0013039 
   15000        43.75   0.12240461 1.2241685e-05 0.0012924633 
   15200    44.333333   0.12124472 1.2125684e-05 0.0012809716 
   15400    44.916667   0.12009592 1.2010793e-05 0.0012697182 
   15600         45.5   0.11895757 1.1896947e-05 0.0012585349 
   15800    46.083333   0.11783026 1.1784205e-05  0.001247509 
   16000    46.666667   0.11671307 1.1672474e-05 0.0012364594 
   16200        47.25   0.11560666 1.1561822e-05 0.0012255525 
   16400    47.833333   0.11451035 1.145218e-05 0.0012148488 
   16600    48.416667   0.11342456 1.134359e-05 0.0012042113 
   16800           49   0.11234877 1.1236001e-05  0.001193614 
   17000    49.583333   0.11128321 1.1129434e-05 0.0011832206 
   17200    50.166667   0.11022775 1.1023877e-05 0.0011728556 
   17400        50.75   0.10918225 1.0919317e-05 0.0011625818 
   17600    51.333333   0.10814673 1.0815754e-05 0.0011524511 
   17800    51.916667   0.10712088 1.071316e-05 0.0011424688 
   18000         52.5   0.10610511 1.0611572e-05 0.0011325841 
   18200    53.083333   0.10509863 1.0510914e-05 0.0011226446 
   18400    53.666667   0.10410204 1.0411245e-05 0.0011129443 
   18600        54.25   0.10311463 1.0312494e-05 0.0011032985 
   18800    54.833333   0.10213692 1.0214714e-05 0.0010937521 
   19000    55.416667   0.10116817 1.0117829e-05 0.0010841727 
   19200           56   0.10020891 1.0021893e-05 0.0010748492 
   19400    56.583333  0.099258562 9.9268489e-06 0.0010655107 
   19600    57.166667  0.098317439 9.8327272e-06 0.0010562205 
   19800        57.75  0.097385117 9.7394857e-06 0.0010469736 
   20000    58.333333  0.096461684 9.6471331e-06 0.0010378837 
   20200    58.916667  0.095547128 9.5556683e-06 0.0010289085 
   20400         59.5   0.09464113 9.4650595e-06 0.0010198895 
   20600    60.083333  0.093743885 9.375326e-06 0.0010110469 
   20800    60.666667  0.092855009 9.2864295e-06 0.0010023177 
   21000        61.25  0.091974896 9.1984095e-06 0.00099368672 
   21200    61.833333  0.091102824 9.1111935e-06 0.00098513239 
   21400    62.416667  0.090239414 9.0248438e-06 0.00097671589 
   21600           63  0.089383975 8.9392915e-06 0.00096834593 
   21800    63.583333   0.08853702 8.8545875e-06 0.00096008004 
   22000    64.166667  0.087697862 8.7706633e-06 0.00095179864 
   22200        64.75  0.086866953 8.687564e-06 0.00094371749 
   22400    65.333333  0.086043868 8.6052474e-06 0.00093567012 
   22600    65.916667  0.085228748 8.5237271e-06 0.00092767564 
   22800         66.5  0.084421307 8.442975e-06 0.00091973738 
   23000    67.083333  0.083621581 8.3629944e-06 0.00091190824 
   23200    67.666667   0.08282962 8.2837904e-06 0.00090412239 
   23400        68.25  0.082044958 8.2053163e-06 0.00089636698 
   23600    68.833333  0.081267943 8.1276071e-06 0.00088874996 
   23800    69.416667  0.080498113 8.0506164e-06 0.00088117613 
   24000           70  0.079735861 7.9743835e-06 0.00087371279 
   24200    70.583333   0.07898048 7.8988378e-06 0.0008661845 
   24400    71.166667   0.07823257 7.8240395e-06 0.00085888514 
   24600        71.75   0.07749151 7.7499259e-06  0.000851589 
   24800    72.333333  0.076757711 7.6765387e-06 0.00084437778 
   25000    72.916667  0.076030577 7.6038181e-06 0.00083717191 
   25200         73.5  0.075310509 7.531804e-06 0.00083012997 
   25400    74.083333  0.074597218 7.4604678e-06 0.00082311258 
   25600    74.666667  0.073890646 7.3898035e-06 0.00081611293 
   25800        75.25  0.073190736 7.3198056e-06 0.00080922763 
   26000    75.833333  0.072497443 7.2504693e-06 0.00080242494 
   26200    76.416667  0.071810877 7.1818059e-06 0.00079570077 
   26400           77  0.071130522 7.1137636e-06 0.00078894115 
   26600    77.583333   0.07045687 7.0463917e-06 0.00078235296 
   26800    78.166667  0.069789396 6.9796375e-06 0.00077579044 
   27000        78.75  0.069128502 6.9135415e-06 0.00076927992 
   27200    79.333333  0.068473527 6.8480375e-06 0.00076272041 
   27400    79.916667  0.067825042 6.7831825e-06 0.00075641671 
   27600         80.5  0.067182525 6.7189244e-06 0.00075006741 
   27800    81.083333  0.066546243 6.6552898e-06 0.00074378634 
   28000    81.666667  0.065915766 6.5922359e-06 0.00073753523 
   28200        82.25  0.065291426 6.5297956e-06 0.00073141456 
   28400    82.833333  0.064673022 6.467949e-06 0.00072532224 
   28600    83.416667  0.064060344 6.406675e-06 0.0007192574 
   28800           84  0.063453576 6.3459922e-06 0.00071332168 
   29000    84.583333  0.062852513 6.2858798e-06 0.00070744286 
   29200    85.166667  0.062257315 6.2263541e-06 0.00070158947 
   29400        85.75  0.061667478 6.1673645e-06 0.00069570193 
   29600    86.333333  0.061083529 6.1089638e-06 0.00069005476 
   29800    86.916667  0.060504903 6.0510954e-06 0.00068435183 
   30000         87.5  0.059931995 5.9937989e-06 0.00067871768 
   30200    88.083333  0.059364207 5.9370144e-06 0.00067302516 
   30400    88.666667  0.058802049 5.8807929e-06 0.00066760895 
   30600        89.25  0.058245082 5.8250907e-06 0.00066209675 
   30800    89.833333  0.057693412 5.7699182e-06 0.0006566527 
   31000    90.416667  0.057146823 5.7152539e-06 0.0006512784 
   31200           91  0.056605503 5.6611164e-06 0.00064603345 
   31400    91.583333  0.056069295 5.6074903e-06 0.00064077155 
   31600    92.166667  0.055537952 5.5543506e-06 0.00063550617 
   31800        92.75  0.055011798 5.5017299e-06 0.00063044001 
   32000    93.333333   0.05449048 5.4495929e-06 0.00062537122 
   32200    93.916667  0.053974251 5.3979649e-06 0.00062033447 
   32400         94.5   0.05346262 5.3467967e-06 0.00061526154 
   32600    95.083333  0.052956107 5.2961403e-06 0.00061045382 
   32800    95.666667  0.052454198 5.2459444e-06 0.00060553732 
   33000        96.25  0.051957204  5.19624e-06 0.00060069922 
   33200    96.833333  0.051464653  5.14698e-06 0.00059587326 
   33400    97.416667  0.050977015 5.0982113e-06 0.00059123005 
   33600           98  0.050493892 5.0498942e-06 0.00058647396 
   33800    98.583333  0.050015284 5.0020286e-06 0.00058176961 
   34000    99.166667  0.049541207 4.9546162e-06 0.00057717033 
   34200        99.75  0.049071663 4.9076571e-06 0.00057263949 
   34400    100.33333  0.048606572 4.8611433e-06 0.00056802557 
   34600    100.91667  0.048145687 4.8150502e-06 0.00056344612 
   34800        101.5  0.047689382 4.7694152e-06 0.00055910536 
   35000    102.08333  0.047237221 4.7241945e-06 0.00055465341 
   35200    102.66667  0.046789506 4.6794185e-06 0.00055026437 
   35400       103.25  0.046345757 4.6350392e-06 0.00054588663 
   35600    103.83333  0.045906481 4.5911072e-06 0.00054173372 
   35800    104.41667  0.045471204 4.5475752e-06 0.00053740558 
   36000          105  0.045040134 4.5044639e-06 0.00053319389 
   36200    105.58333  0.044612987 4.4617449e-06 0.00052903853 
   36400    106.16667  0.044190098 4.4194517e-06 0.00052501292 
   36600       106.75  0.043771108 4.3775486e-06 0.00052086056 
   36800    107.33333   0.04335602 4.3360356e-06 0.00051677267 
   37000    107.91667  0.042944968 4.2949263e-06 0.00051283752 
   37200        108.5  0.042537759 4.2542013e-06 0.00050885953 
   37400    109.08333   0.04213447 4.2138684e-06 0.00050488225 
   37600    109.66667  0.041734831 4.1739005e-06 0.00050094418 
   37800       110.25  0.041339191 4.1343325e-06 0.00049723813 
   38000    110.83333  0.040947129 4.0951224e-06  0.000493339 
   38200    111.41667  0.040558943 4.0562999e-06 0.00048954204 
   38400          112  0.040174199 4.0178216e-06 0.00048576582 
   38600    112.58333   0.03979337 3.979735e-06 0.00048219413 
   38800    113.16667  0.039415996 3.9419938e-06 0.00047841003 
   39000       113.75  0.039042248 3.9046152e-06 0.00047476729 
   39200    114.33333  0.038671998 3.8675865e-06 0.00047119115 
   39400    114.91667  0.038305388 3.8309218e-06 0.00046768563 
   39600        115.5  0.037942173 3.7945967e-06 0.00046406423 
   39800    116.08333  0.037582369 3.7586128e-06 0.00046052751 
   40000    116.66667  0.037226104 3.7229827e-06 0.00045715894 
   40200       117.25  0.036873114 3.6876802e-06 0.0004536677 
   40400    117.83333  0.036523587 3.652724e-06 0.00045021694 
   40600    118.41667  0.036177201 3.6180819e-06 0.00044680335 
   40800          119  0.035834317 3.5837901e-06 0.00044360319 
   41000    119.58333  0.035494527 3.5498077e-06 0.0004401696 
   41200    120.16667  0.035158078 3.5161595e-06  0.000436882 
   41400       120.75  0.034824652 3.4828134e-06 0.00043362397 
   41600    121.33333   0.03449463 3.449808e-06 0.00043052168 
   41800    121.91667  0.034167559 3.4170976e-06 0.00042719672 
   42000        122.5  0.033843648 3.3847033e-06 0.0004240432 
   42200    123.08333  0.033522823 3.3526176e-06 0.00042099329 
   42400    123.66667  0.033205081 3.3208402e-06 0.00041790877 
   42600       124.25  0.032890325 3.2893615e-06 0.00041476198 
   42800    124.83333  0.032578516 3.2581774e-06 0.00041171578 
   43000    125.41667  0.032269789 3.2273016e-06 0.00040883046 
   43200          126  0.031963888 3.1967084e-06 0.0004057776 
   43400    126.58333     0.031661 3.1664167e-06 0.00040281253 
   43600    127.16667  0.031360806 3.1363942e-06 0.00039989075 
   43800       127.75  0.031063706 3.1066813e-06 0.00039714295 
   44000    128.33333  0.030769239 3.0772316e-06 0.00039413705 
   44200    128.91667  0.030477654 3.0480702e-06 0.00039133286 
   44400        129.5   0.03018874 3.0191759e-06 0.00038856699 
   44600    130.08333   0.02990275 2.9905741e-06 0.0003858716 
   44800    130.66667  0.029619288 2.962225e-06 0.00038299074 
   45000       131.25  0.029338581 2.9341516e-06  0.000380313 
   45200    131.83333  0.029060565 2.9063471e-06 0.00037771308 
   45400    132.41667  0.028785167 2.8788045e-06 0.00037504977 
   45600          133  0.028512387 2.8515238e-06 0.00037235137 
   45800    133.58333  0.028242117 2.8244941e-06 0.00036976543 
   46000    134.16667  0.027974563 2.7977361e-06 0.00036731328 
   46200       134.75   0.02770942 2.7712192e-06 0.00036462872 
   46400    135.33333  0.027446881 2.7449626e-06 0.00036209534 
   46600    135.91667   0.02718669 2.7189409e-06 0.00035961372 
   46800        136.5   0.02692922 2.6931913e-06 0.00035725132 
   47000    137.08333  0.026673956 2.6676623e-06 0.00035462234 
   47200    137.66667  0.026421234 2.6423876e-06  0.000352265 
   47400       138.25  0.026170861 2.6173479e-06 0.00034989969 
   47600    138.83333  0.025922965 2.5925558e-06 0.00034755682 
   47800    139.41667  0.025677288 2.5679856e-06 0.00034508458 
   48000          140  0.025434004 2.5436548e-06 0.00034281795 
   48200    140.58333  0.025193057 2.5195577e-06 0.00034059249 
   48400    141.16667  0.024954356 2.4956852e-06 0.00033822055 
   48600       141.75  0.024717956 2.4720428e-06 0.00033592942 
   48800    142.33333  0.024483688 2.4486136e-06 0.00033372867 
   49000    142.91667  0.024251844 2.4254269e-06 0.00033162564 
   49200        143.5  0.024022017 2.4024419e-06 0.00032926295 
   49400    144.08333  0.023794469 2.3796849e-06 0.00032713906 
   49600    144.66667  0.023568979 2.3571336e-06 0.00032499981 
   49800       145.25  0.023345833 2.3348168e-06 0.00032292928 
   50000    145.83333  0.023124556 2.3126869e-06 0.00032061795 
   50200    146.41667  0.022905531 2.2907821e-06 0.00031861189 
   50400          147  0.022688534 2.2690803e-06 0.00031656954 
   50600    147.58333  0.022473639 2.2475887e-06 0.0003144768 
   50800    148.16667   0.02226071 2.2262936e-06 0.00031232934 
   51000       148.75  0.022049814 2.205202e-06 0.00031038538 
   51200    149.33333  0.021840991 2.1843175e-06 0.00030845726 
   51400    149.91667  0.021634063 2.1636227e-06 0.00030632458 
   51600        150.5  0.021429146 2.1431289e-06 0.00030438039 
   51800    151.08333  0.021226068 2.1228191e-06 0.00030247093 
   52000    151.66667  0.021025138 2.102724e-06 0.00030062691 
   52200       152.25  0.020825854 2.0827936e-06 0.00029851861 
   52400    152.83333  0.020628615 2.0630678e-06 0.00029675015 
   52600    153.41667  0.020433162 2.0435206e-06 0.00029490171 
   52800          154   0.02023969 2.0241714e-06 0.0002930821 
   53000    154.58333  0.020047854 2.0049859e-06 0.00029108036 
   53200    155.16667  0.019857982 1.9859968e-06 0.00028939258 
   53400       155.75  0.019669862 1.9671829e-06 0.00028763376 
   53600    156.33333  0.019483537 1.9485485e-06 0.00028576067 
   53800    156.91667  0.019298951 1.9300881e-06 0.00028394039 
   54000        157.5  0.019116075 1.9117987e-06 0.00028227795 
   54200    158.08333  0.018935078 1.8936971e-06 0.00028060247 
   54400    158.66667  0.018755631 1.8757506e-06 0.00027870514 
   54600       159.25  0.018577971 1.8579829e-06 0.0002770851 
   54800    159.83333  0.018401914 1.8403754e-06 0.00027542572 
   55000    160.41667   0.01822772 1.8229543e-06 0.00027380799 
   55200          161  0.018054899 1.8056704e-06 0.00027194584 
   55400    161.58333  0.017883918 1.7885706e-06 0.00027046513 
   55600    162.16667  0.017714472 1.7716243e-06 0.00026884575 
   55800       162.75  0.017546707 1.7548462e-06 0.00026720658 
   56000    163.33333  0.017380403 1.7382141e-06 0.00026546983 
   56200    163.91667  0.017215766 1.7217488e-06 0.00026404665 
   56400        164.5  0.017052705 1.705441e-06 0.00026247918 
   56600    165.08333  0.016891134 1.6892824e-06 0.00026077936 
   56800    165.66667  0.016731106 1.6732779e-06 0.00025926475 
   57000       166.25  0.016572547 1.6574205e-06 0.00025781325 
   57200    166.83333  0.016415668 1.641731e-06 0.00025633167 
   57400    167.41667  0.016260021 1.6261647e-06 0.00025462754 
   57600          168  0.016106014 1.6107625e-06 0.00025328684 
   57800    168.58333   0.01595339 1.5954986e-06 0.00025181448 
   58000    169.16667  0.015802328 1.5803908e-06 0.0002503784 
   58200       169.75  0.015652477 1.5654043e-06 0.00024871806 
   58400    170.33333  0.015504241 1.5505791e-06 0.00024749212 
   58600    170.91667  0.015357324 1.535886e-06 0.00024605006 
   58800        171.5   0.01521183 1.5213351e-06 0.00024456628 
   59000    172.08333  0.015067652 1.5069159e-06 0.00024310727 
   59200    172.66667  0.014924861 1.4926354e-06 0.00024189817 
   59400       173.25  0.014783516 1.4784994e-06 0.00024051061 
   59600    173.83333  0.014643363 1.4644828e-06 0.00023899924 
   59800    174.41667  0.014504607 1.4506057e-06 0.00023776508 
   60000          175  0.014367127 1.4368563e-06 0.00023648403 
   60200    175.58333  0.014231098 1.4232522e-06 0.00023519442 
   60400    176.16667   0.01409609  1.40975e-06 0.00023369007 
   60600       176.75  0.013962578 1.3963974e-06 0.00023261537 
   60800    177.33333   0.01383025 1.3831633e-06 0.00023132625 
   61000    177.91667  0.013699233 1.3700603e-06 0.00023003663 
   61200        178.5  0.013569323 1.357068e-06 0.00022863206 
   61400    179.08333  0.013440776 1.344212e-06 0.00022765924 
   61600    179.66667  0.013313431 1.3314762e-06 0.00022637133 
   61800       180.25  0.013187247 1.3188566e-06 0.00022505476 
   62000    180.83333  0.013062254 1.306356e-06 0.00022389957 
   62200    181.41667  0.012938453 1.2939747e-06 0.00022287586 
   62400          182  0.012815948 1.281723e-06 0.00022166087 
   62600    182.58333  0.012694374 1.2695644e-06 0.00022034492 
   62800    183.16667  0.012574113 1.2575371e-06 0.00021938767 
   63000       183.75  0.012454957 1.2456203e-06 0.00021827512 
   63200    184.33333  0.012336989 1.2338223e-06 0.00021713724 
   63400    184.91667  0.012219954 1.2221177e-06 0.0002158386 
   63600        185.5  0.012104236 1.2105446e-06 0.0002150496 
   63800    186.08333  0.011989526 1.1990725e-06 0.00021389957 
   64000    186.66667  0.011875916 1.1877104e-06 0.00021275574 
   64200       187.25  0.011763337 1.1764514e-06 0.00021164628 
   64400    187.83333  0.011651874 1.1653039e-06 0.0002108697 
   64600    188.41667   0.01154152 1.1542674e-06 0.00020971179 
   64800          189  0.011432091 1.1433234e-06 0.00020859326 
   65000    189.58333  0.011323749 1.1324881e-06 0.00020771431 
   65200    190.16667  0.011216447 1.1217569e-06 0.00020680415 
   65400       190.75  0.011110238 1.1111349e-06 0.00020576422 
   65600    191.33333  0.011004821 1.1005922e-06 0.00020462731 
   65800    191.91667  0.010900597 1.0901687e-06 0.00020392888 
   66000        192.5  0.010797311 1.0798391e-06 0.00020293465 
   66200    193.08333  0.010695003 1.0696073e-06 0.00020193837 
   66400    193.66667  0.010593581 1.059464e-06 0.00020087328 
   66600       194.25  0.010493242 1.0494292e-06  0.000200304 
   66800    194.83333  0.010393824 1.0394864e-06 0.00019921954 
   67000    195.41667  0.010295305 1.0296335e-06 0.00019824606 
   67200          196  0.010197714 1.0198734e-06 0.00019741118 
   67400    196.58333  0.010101092 1.0102102e-06 0.00019673211 
   67600    197.16667  0.010005438 1.0006439e-06 0.00019569264 
   67800       197.75 0.0099105219 9.911513e-07 0.00019474602 
   68000    198.33333 0.0098166252 9.8176069e-07 0.00019407765 
   68200    198.91667 0.0097236381 9.7246106e-07 0.00019325354 
   68400        199.5 0.0096314991 9.6324623e-07 0.00019233725 
   68600    200.08333 0.0095401366 9.5410907e-07 0.00019136963 
   68800    200.66667 0.0094498006 9.4507456e-07 0.00019088916 
   69000       201.25 0.0093602513 9.3611874e-07 0.00018992929 
   69200    201.83333 0.0092715288 9.2724561e-07 0.00018907244 
   69400    202.41667 0.0091836429 9.1845614e-07 0.00018824131 
   69600          203 0.0090966358 9.0975456e-07 0.0001877692 
   69800    203.58333  0.009010464 9.0113652e-07 0.00018674211 
   70000    204.16667 0.0089250372 8.9259298e-07 0.00018595015 
   70200       204.75 0.0088404359  8.84132e-07 0.00018529578 
   70400    205.33333 0.0087567059 8.7575817e-07 0.0001846687 
   70600    205.91667 0.0086737477 8.6746152e-07 0.00018375442 
   70800        206.5  0.008591468 8.5923273e-07 0.00018294597 
   71000    207.08333 0.0085100853 8.5109364e-07 0.0001824687 
   71200    207.66667 0.0084294845 8.4303275e-07 0.00018167744 
   71400       208.25 0.0083495685 8.3504035e-07 0.00018087548 
   71600    208.83333 0.0082704066 8.2712338e-07 0.00018010039 
   71800    209.41667 0.0081920764 8.1928957e-07 0.00017976508 
   72000          210 0.0081144606 8.1152721e-07 0.00017879803 
   72200    210.58333 0.0080375393 8.0383431e-07 0.00017808899 
   72400    211.16667 0.0079613406 7.9621369e-07 0.00017745468 
   72600       211.75 0.0078859497 7.8867383e-07 0.00017702253 
   72800    212.33333 0.0078112393 7.8120205e-07 0.00017605741 
   73000    212.91667 0.0077371621 7.7379359e-07 0.00017542155 
   73200        213.5 0.0076638343 7.6646008e-07 0.00017493072 
   73400    214.08333 0.0075913036 7.5920628e-07 0.00017431907 
   73600    214.66667 0.0075193094 7.5200614e-07 0.00017349675 
   73800       215.25 0.0074480192 7.448764e-07 0.00017283152 
   74000    215.83333 0.0073774914 7.3782292e-07 0.0001725287 
   74200    216.41667 0.0073076026 7.3083334e-07 0.0001717019 
   74400          217 0.0072383057 7.2390296e-07 0.00017101518 
   74600    217.58333   0.00716971 7.1704271e-07 0.00017041991 
   74800    218.16667 0.0071018103 7.1025205e-07 0.00017014158 
   75000       218.75 0.0070345118 7.0352154e-07 0.0001691615 
   75200    219.33333 0.0069678431 6.9685399e-07 0.0001686414 
   75400    219.91667  0.006901768 6.9024583e-07 0.00016814166 
   75600        220.5 0.0068364698 6.8371535e-07 0.00016770824 
   75800    221.08333 0.0067716439 6.7723212e-07 0.00016681405 
   76000    221.66667  0.006707452 6.7081228e-07 0.00016631638 
   76200       222.25 0.0066438922 6.6445567e-07 0.00016597537 
   76400    222.83333 0.0065810224 6.5816806e-07 0.00016532442 
   76600    223.41667 0.0065185741 6.5192261e-07 0.00016458868 
   76800          224 0.0064568001 6.4574459e-07 0.00016409291 
   77000    224.58333 0.0063956569 6.3962965e-07 0.00016387314 
   77200    225.16667 0.0063350566 6.3356902e-07 0.00016297027 
   77400       225.75 0.0062750001 6.2756277e-07 0.00016244861 
   77600    226.33333 0.0062154886 6.2161102e-07 0.00016200056 
   77800    226.91667 0.0061566926 6.1573084e-07 0.00016170365 
   78000        227.5 0.0060983055 6.0989154e-07 0.0001607517 
   78200    228.08333 0.0060405075 6.0411116e-07 0.00016038082 
   78400    228.66667 0.0059832208 5.9838192e-07 0.00016000406 
   78600       229.25 0.0059266747 5.9272674e-07 0.00015952465 
   78800    229.83333 0.0058703805 5.8709676e-07 0.00015870586 
   79000    230.41667 0.0058147629 5.8153445e-07 0.00015835338 
   79200          231 0.0057596986 5.7602747e-07 0.00015810392 
   79400    231.58333  0.005705144 5.7057146e-07 0.00015735871 
   79600    232.16667 0.0056510063 5.6515715e-07 0.00015677475 
   79800       232.75 0.0055974558 5.5980156e-07 0.0001564199 
   80000    233.33333 0.0055444814 5.5450359e-07 0.00015620211 
   80200    233.91667 0.0054918808  5.49243e-07 0.00015526388 
   80400        234.5 0.0054398654 5.4404095e-07 0.00015494258 
   80600    235.08333  0.005388229 5.3887679e-07 0.00015458284 
   80800    235.66667 0.0053373254 5.3378592e-07 0.00015425419 
   81000       236.25 0.0052866249 5.2871536e-07 0.0001533758 
   81200    236.83333 0.0052365576 5.2370813e-07 0.00015315769 
   81400    237.41667 0.0051869055 5.1874243e-07 0.00015284336 
   81600          238 0.0051378623 5.1383762e-07 0.00015229865 
   81800    238.58333 0.0050890498 5.0895587e-07 0.00015162151 
   82000    239.16667 0.0050408401 5.0413442e-07 0.00015138536 
   82200       239.75 0.0049931261 4.9936255e-07 0.00015118335 
   82400    240.33333 0.0049457763 4.9462709e-07 0.00015034677 
   82600    240.91667 0.0048989071 4.899397e-07 0.00014998207 
   82800        241.5 0.0048524003 4.8528856e-07 0.00014971198 
   83000    242.08333 0.0048065724 4.8070531e-07 0.00014947433 
   83200    242.66667  0.004760901 4.7613771e-07 0.00014853581 
   83400       243.25 0.0047158256 4.7162972e-07 0.00014843147 
   83600    243.83333 0.0046710569 4.6715241e-07 0.00014812168 
   83800    244.41667 0.0046269821 4.6274449e-07 0.00014772611 
   84000          245 0.0045829479 4.5834063e-07 0.00014691242 
   84200    245.58333 0.0045395634 4.5400174e-07 0.00014687954 
   84400    246.16667 0.0044965956 4.4970453e-07 0.00014662485 
   84600       246.75 0.0044539816 4.4544271e-07 0.00014594071 
   84800    247.33333 0.0044117133 4.4121545e-07 0.00014544965 
   85000    247.91667 0.0043698954 4.3703325e-07 0.00014534744 
   85200        248.5 0.0043285989 4.3290318e-07 0.00014512573 
   85400    249.08333 0.0042874442 4.287873e-07 0.00014420812 
   85600    249.66667 0.0042469013 4.2473261e-07 0.00014412281 
   85800       250.25 0.0042065317 4.2069524e-07 0.00014388447 
   86000    250.83333 0.0041668648 4.1672815e-07 0.00014357478 
   86200    251.41667 0.0041271969 4.1276096e-07 0.0001426801 
   86400          252 0.0040881603 4.0885692e-07 0.0001427941 
   86600    252.58333 0.0040493903 4.0497953e-07 0.00014248063 
   86800    253.16667 0.0040111114 4.0115125e-07 0.00014199433 
   87000       253.75 0.0039729882 3.9733856e-07 0.00014134338 
   87200    254.33333 0.0039353507 3.9357442e-07 0.00014142325 
   87400    254.91667 0.0038981571 3.898547e-07 0.00014114805 
   87600        255.5 0.0038611214 3.8615076e-07 0.00014037125 
   87800    256.08333 0.0038245923 3.8249748e-07 0.00014015534 
   88000    256.66667 0.0037882246 3.7886034e-07 0.00014006897 
   88200       257.25 0.0037525335 3.7529088e-07 0.00013979229 
   88400    257.83333  0.003716788 3.7171597e-07 0.00013889023 
   88600    258.41667 0.0036816496 3.6820178e-07 0.00013905102 
   88800          259 0.0036466747 3.6470394e-07 0.0001387565 
   89000    259.58333 0.0036123064 3.6126676e-07 0.00013838643 
   89200    260.16667 0.0035778822  3.57824e-07 0.00013761247 
   89400       260.75 0.0035440205 3.5443749e-07 0.00013786181 
   89600    261.33333 0.0035105427 3.5108938e-07 0.00013752207 
   89800    261.91667 0.0034772046 3.4775524e-07 0.00013691596 
   90000        262.5 0.0034442544 3.4445988e-07 0.00013650861 
   90200    263.08333 0.0034115748 3.411916e-07 0.00013664441 
   90400    263.66667   0.00337942 3.379758e-07 0.00013630928 
   90600       264.25 0.0033471843 3.347519e-07 0.00013548515 
   90800    264.83333 0.0033156162 3.3159478e-07 0.00013556695 
   91000    265.41667 0.0032840567 3.2843851e-07 0.00013542002 
   91200          266 0.0032531323 3.2534576e-07 0.00013505457 
   91400    266.58333 0.0032221133 3.2224355e-07 0.00013425916 
   91600    267.16667  0.003191657 3.1919762e-07 0.00013459281 
   91800       267.75 0.0031614286 3.1617448e-07 0.00013421485 
   92000    268.33333 0.0031314918 3.131805e-07 0.00013377292 
   92200    268.91667 0.0031017758 3.102086e-07 0.00013320491 
   92400        269.5 0.0030723501 3.0726573e-07 0.00013352098 
   92600    270.08333 0.0030434054 3.0437098e-07 0.00013311662 
   92800    270.66667 0.0030143902 3.0146916e-07 0.00013245129 
   93000       271.25 0.0029859644 2.986263e-07 0.00013234347 
   93200    271.83333 0.0029575091 2.9578048e-07 0.00013242619 
   93400    272.41667 0.0029297171 2.9300101e-07  0.000132002 
   93600          273 0.0029017494 2.9020396e-07 0.00013124221 
   93800    273.58333 0.0028743343 2.8746217e-07 0.00013155572 
   94000    274.16667 0.0028470545 2.8473392e-07 0.00013128339 
   94200       274.75 0.0028201971 2.8204791e-07 0.00013086821 
   94400    275.33333 0.0027933379 2.7936172e-07 0.00013022454 
   94600    275.91667 0.0027668488 2.7671255e-07 0.00013067843 
   94800        276.5 0.0027408336 2.7411077e-07 0.00013022478 
   95000    277.08333  0.002714677 2.7149485e-07 0.00012970517 
   95200    277.66667  0.002689042 2.6893109e-07 0.00012939588 
   95400       278.25 0.0026634781 2.6637445e-07 0.00012974542 
   95600    278.83333 0.0026384589 2.6387227e-07 0.0001292129 
   95800    279.41667 0.0026131935 2.6134548e-07 0.00012855592 
   96000          280 0.0025886119 2.5888708e-07 0.00012875241 
   96200    280.58333 0.0025639775 2.564234e-07 0.00012870743 
   96400    281.16667 0.0025398062 2.5400602e-07 0.00012818791 
   96600       281.75 0.0025156094 2.5158609e-07 0.00012758369 
   96800    282.33333 0.0024917822 2.4920314e-07 0.00012807638 
   97000    282.91667 0.0024682852 2.4685321e-07 0.00012764242 
   97200        283.5 0.0024447766 2.4450211e-07 0.00012720338 
   97400    284.08333 0.0024216869 2.4219291e-07 0.00012677967 
   97600    284.66667 0.0023986247 2.3988645e-07 0.00012729952 
   97800       285.25 0.0023761305 2.3763681e-07 0.0001266872 
   98000    285.83333 0.0023533663 2.3536017e-07 0.00012617806 
   98200    286.41667  0.002331261 2.3314942e-07 0.00012617925 
   98400          287 0.0023090115 2.3092425e-07 0.00012641955 
   98600    287.58333 0.0022873263 2.287555e-07 0.00012575976 
   98800    288.16667 0.0022655062 2.2657327e-07 0.00012524733 
   99000       288.75 0.0022440429 2.2442673e-07 0.00012566292 
   99200    289.33333 0.0022228512 2.2230735e-07 0.00012542471 
   99400    289.91667 0.0022017651 2.2019853e-07 0.00012488904 
   99600        290.5 0.0021808924 2.1811105e-07 0.00012447644 
   99800    291.08333 0.0021600875 2.1603035e-07 0.00012507449 
  100000    291.66667 0.0021399401 2.1401541e-07 0.0001244909 
  100200       292.25 0.0021193492 2.1195611e-07 0.00012404392 
  100400    292.83333  0.002099434 2.099644e-07 0.00012387543 
  100600    293.41667 0.0020794413 2.0796493e-07 0.00012441374 
  100800          294 0.0020599434 2.0601494e-07 0.00012360647 
  101000    294.58333 0.0020401804 2.0403844e-07 0.00012318805 
  101200    295.16667 0.0020209856 2.0211877e-07 0.00012348184 
  101400       295.75 0.0020018508 2.002051e-07 0.00012355635 
  101600    296.33333 0.0019828438 1.9830421e-07 0.00012276405 
  101800    296.91667 0.0019640815 1.9642779e-07 0.00012250042 
  102000        297.5 0.0019453475 1.9455421e-07 0.00012307679 
  102200    298.08333 0.0019271733 1.9273661e-07 0.0001226049 
  102400    298.66667 0.0019086159 1.9088068e-07 0.00012207046 
  102600       299.25 0.0018907454 1.8909345e-07 0.00012194539 
  102800    299.83333 0.0018726398 1.872827e-07 0.00012254843 
  103000    300.41667  0.001855144 1.8553296e-07 0.00012173728 
  103200          301 0.0018373108 1.8374945e-07 0.0001213991 
  103400    301.58333 0.0018200797 1.8202617e-07 0.00012152806 
  103600    302.16667 0.0018027562 1.8029365e-07 0.0001218822 
  103800       302.75   0.00178573 1.7859085e-07 0.00012092416 
  104000    303.33333  0.001768838 1.7690149e-07 0.00012078694 
  104200    303.91667 0.0017519132 1.7520884e-07 0.0001212076 
  104400        304.5 0.0017355753 1.7357488e-07 0.00012102887 
  104600    305.08333 0.0017189125 1.7190845e-07 0.00012028064 
  104800    305.66667 0.0017027879 1.7029582e-07 0.0001202652 
  105000       306.25 0.0016863817 1.6865503e-07 0.0001208419 
  105200    306.83333 0.0016708185 1.6709856e-07 0.0001201506 
  105400    307.41667 0.0016545969 1.6547623e-07 0.00011973342 
  105600          308 0.0016390937 1.6392577e-07 0.00011981736 
  105800    308.58333 0.0016235307 1.6236931e-07  0.000120379 
  106000    309.16667 0.0016082313 1.6083922e-07 0.00011931007 
  106200       309.75 0.0015928842 1.5930435e-07 0.00011922557 
  106400    310.33333 0.0015777754 1.5779332e-07 0.00011952884 
  106600    310.91667 0.0015630613 1.5632176e-07 0.00011967635 
  106800        311.5 0.0015479644 1.5481193e-07 0.00011862733 
  107000    312.08333 0.0015335558 1.5337092e-07 0.00011880356 
  107200    312.66667 0.0015187391 1.518891e-07 0.00011928377 
  107400       313.25 0.0015047538 1.5049043e-07 0.00011880618 
  107600    313.83333 0.0014900574 1.4902064e-07 0.00011816442 
  107800    314.41667 0.0014762469 1.4763945e-07 0.00011839995 
  108000          315 0.0014620748 1.462221e-07 0.00011894955 
  108200    315.58333  0.001448368 1.4485128e-07 0.00011791554 
  108400    316.16667 0.0014345135 1.4346569e-07 0.00011781589 
  108600       316.75  0.001420956 1.4210981e-07 0.00011805607 
  108800    317.33333 0.0014076059 1.4077467e-07 0.0001184213 
  109000    317.91667 0.0013940704 1.3942099e-07 0.00011717715 
  109200        318.5 0.0013811714 1.3813095e-07 0.00011751817 
  109400    319.08333 0.0013676784 1.3678152e-07 0.00011779557 
  109600    319.66667 0.0013552028 1.3553383e-07 0.00011764995 
  109800       320.25 0.0013419661 1.3421003e-07 0.00011671718 
  110000    320.83333 0.0013295593 1.3296922e-07 0.0001171541 
  110200    321.41667 0.0013166272 1.3167589e-07 0.00011756499 
  110400          322 0.0013045666 1.3046971e-07 0.0001167873 
  110600    322.58333 0.0012918782 1.2920074e-07 0.0001164509 
  110800    323.16667 0.0012796761 1.279804e-07 0.00011675083 
  111000       323.75 0.0012677271 1.2678539e-07 0.00011725452 
  111200    324.33333 0.0012555354 1.255661e-07 0.00011594104 
  111400    324.91667 0.0012437916 1.243916e-07 0.00011624815 
  111600        325.5 0.0012317267 1.2318498e-07 0.00011651378 
  111800    326.08333 0.0012205804 1.2207025e-07 0.00011666366 
  112000    326.66667 0.0012084447 1.2085656e-07 0.00011535081 
  112200       327.25 0.0011974836 1.1976033e-07 0.00011606767 
  112400    327.83333 0.0011857434 1.185862e-07 0.00011634757 
  112600    328.41667 0.0011749706 1.1750881e-07 0.00011581386 
  112800          329 0.0011633912 1.1635075e-07 0.00011510426 
  113000    329.58333 0.0011526348 1.1527501e-07 0.00011576916 
  113200    330.16667 0.0011417002 1.1418144e-07 0.00011613251 
  113400       330.75 0.0011307549 1.130868e-07 0.00011490587 
  113600    331.33333 0.0011202083 1.1203203e-07 0.00011510621 
  113800    331.91667 0.0011093406 1.1094516e-07 0.00011544789 
  114000        332.5 0.0010992326 1.0993425e-07 0.00011571863 
  114200    333.08333 0.0010882865 1.0883953e-07 0.00011422123 
  114400    333.66667 0.0010786041 1.078712e-07 0.00011513387 
  114600       334.25 0.0010677379 1.0678447e-07 0.00011519861 
  114800    334.83333 0.0010582526 1.0583584e-07 0.00011501782 
  115000    335.41667 0.0010477757 1.0478805e-07 0.00011394758 
  115200          336 0.0010381583 1.0382621e-07 0.00011489785 
  115400    336.58333 0.0010280969 1.0281997e-07 0.00011504899 
  115600    337.16667 0.0010185879 1.0186897e-07 0.00011415533 
  115800       337.75  0.001008886 1.0089869e-07 0.0001139939 
  116000    338.33333 0.00099903861 9.9913852e-08 0.00011451282 
  116200    338.91667 0.00099012094 9.9021996e-08 0.00011481949 
  116400        339.5 0.00098017736 9.8027538e-08 0.00011334166 
  116600    340.08333 0.00097137961 9.7147676e-08 0.00011413521 
  116800    340.66667 0.0009615916 9.6168777e-08 0.00011425857 
  117000       341.25 0.00095326432 9.5335966e-08  0.000114318 
  117200    341.83333 0.00094345314 9.435475e-08 0.00011286903 
  117400    342.41667 0.00093509206 9.3518558e-08 0.00011412581 
  117600          343 0.00092590813 9.2600073e-08 0.00011412435 
  117800    343.58333 0.00091744161 9.1753336e-08 0.00011351876 
  118000    344.16667 0.00090852658 9.0861744e-08 0.00011287502 
  118200       344.75 0.00089992619 9.0001619e-08 0.00011388187 
  118400    345.33333 0.00089177694 8.9186612e-08 0.0001139573 
  118600    345.91667 0.00088274233 8.8283062e-08 0.00011262253 
  118800        346.5 0.00087500121 8.7508871e-08 0.00011325098 
  119000    347.08333 0.0008660863 8.6617292e-08 0.00011356926 
  119200    347.66667 0.00085858596 8.5867183e-08 0.00011358237 
  119400       348.25 0.00084962862 8.4971359e-08 0.00011205336 
  119600    348.83333 0.0008424284 8.4251265e-08 0.00011346989 
  119800    349.41667 0.00083370304 8.3378642e-08 0.00011331044 
  120000          350 0.00082635751 8.2644016e-08 0.00011294398 
  120200    350.58333 0.0008182822 8.1836404e-08 0.00011198641 
  120400    351.16667 0.00081056817 8.1064923e-08 0.00011330364 
  120600       351.75 0.00080302562 8.0310593e-08 0.00011315146 
  120800    352.33333 0.00079523267 7.953122e-08 0.0001121504 
  121000    352.91667 0.00078815137 7.8823019e-08 0.0001123539 
  121200        353.5 0.00077990525 7.7998325e-08 0.00011296183 
  121400    354.08333 0.00077353885 7.7361621e-08 0.00011292856 
  121600    354.66667 0.00076526453 7.6534107e-08 0.00011144292 
  121800       355.25 0.00075878338 7.5885927e-08 0.00011270858 
  122000    355.83333 0.00075082852 7.5090361e-08 0.00011270438 
  122200    356.41667 0.00074456826 7.4464272e-08 0.00011246033 
  122400          357 0.00073677038 7.3684407e-08 0.00011115319 
  122600    357.58333 0.00073015097 7.3022399e-08 0.00011276073 
  122800    358.16667 0.00072328673 7.2335907e-08 0.00011253567 
  123000       358.75 0.00071626651 7.1633814e-08 0.00011172812 
  123200    359.33333 0.00070975918 7.0983016e-08 0.00011145032 
  123400    359.91667 0.00070254983 7.0262009e-08 0.00011260346 
  123600        360.5 0.00069684282 6.9691251e-08 0.00011231206 
  123800    361.08333 0.00068909683 6.8916574e-08 0.00011091233 
  124000    361.66667 0.00068368074 6.8374911e-08 0.00011204182 
  124200       362.25 0.00067629668 6.7636431e-08 0.00011233162 
  124400    362.83333 0.00067073535 6.7080243e-08 0.00011188279 
  124600    363.41667 0.00066351133 6.6357769e-08 0.00011057734 
  124800          364 0.00065801417 6.5807998e-08 0.00011233361 
  125000    364.58333 0.00065126268 6.5132781e-08 0.00011197551 
  125200    365.16667 0.00064519168 6.452562e-08 0.0001113225 
  125400       365.75 0.00063940367 6.3946762e-08 0.00011083952 
  125600    366.33333 0.00063277296 6.3283624e-08 0.00011218351 
  125800    366.91667 0.00062752502 6.2758778e-08 0.00011173871 
  126000        367.5 0.0006207872 6.2084928e-08 0.00011066601 
  126200    368.08333 0.00061598146 6.1604307e-08 0.00011136455 
  126400    368.66667 0.00060885617 6.0891706e-08 0.00011193996 
  126600       369.25 0.00060450218 6.0456264e-08 0.00011141571 
  126800    369.83333 0.00059766837 5.9772814e-08 0.00011021126 
  127000    370.41667 0.00059277891 5.9283819e-08 0.00011173143 
  127200          371 0.00058656778 5.8662644e-08 0.00011168136 
  127400    371.58333 0.00058155933 5.8161749e-08 0.0001109673 
  127600    372.16667 0.00057575823 5.7581581e-08 0.00011026403 
  127800       372.75 0.00057002313 5.7008014e-08 0.00011176867 
  128000    373.33333 0.00056543029 5.6548684e-08 0.00011140052 
  128200    373.91667 0.00055911096 5.5916688e-08 0.00011034852 
  128400        374.5 0.00055479317 5.5484866e-08 0.00011070194 
  128600    375.08333 0.00054844512 5.4849997e-08 0.00011175854 
  128800    375.66667 0.00054476682 5.448213e-08 0.00011101785 
  129000       376.25 0.00053801029 5.380641e-08 0.00010977912 
  129200    376.83333 0.00053429873 5.3435217e-08 0.00011124745 
  129400    377.41667 0.00052840105 5.284539e-08 0.00011158428 
  129600          378 0.00052397025 5.2402265e-08 0.00011048389 
  129800    378.58333 0.00051856644 5.186183e-08 0.00010986582 
  130000    379.16667 0.00051393233 5.1398373e-08 0.00011149912 
  130200       379.75 0.00050923663 5.0928756e-08 0.00011115015 
  130400    380.33333 0.0005036227 5.0367307e-08 0.00010995412 
  130600    380.91667 0.00050011236 5.0016238e-08 0.00011036677 
  130800        381.5 0.00049393429 4.9398369e-08 0.00011144182 
  131000    382.08333 0.0004906982 4.9074728e-08 0.00011067463 
  131200    382.66667 0.00048466472 4.847132e-08 0.00010962008 
  131400       383.25 0.0004816232 4.8167137e-08 0.00011080825 
  131600    383.83333 0.00047551329 4.7556085e-08 0.00011133336 
  131800    384.41667 0.00047242415 4.724714e-08 0.00011016726 
  132000          385 0.00046718901 4.6723573e-08 0.00010968315 
  132200    385.58333 0.00046300325 4.6304955e-08 0.00011098663 
  132400    386.16667 0.00045875332 4.587992e-08 0.0001111082 
  132600       386.75 0.00045415345 4.5419887e-08 0.0001096875 
  132800    387.33333 0.00045049981 4.5054486e-08 0.00011005317 
  133000    387.91667 0.00044491469 4.4495919e-08 0.00011099778 
  133200        388.5 0.00044254883 4.4259309e-08 0.00011067205 
  133400    389.08333 0.00043647085 4.3651451e-08 0.00010927205 
  133600    389.66667 0.00043395434 4.3399774e-08 0.00011040038 
  133800       390.25 0.00042833421 4.2837705e-08 0.00011123138 
  134000    390.83333 0.00042601848 4.2606108e-08 0.00011001123 
  134200    391.41667 0.0004203684 4.2041044e-08 0.0001092566 
  134400          392 0.0004174849 4.1752666e-08 0.00011069448 
  134600    392.58333 0.00041340518 4.1344652e-08 0.00011119925 
  134800    393.16667 0.00040914227 4.0918319e-08 0.0001092325 
  135000       393.75 0.00040587792 4.0591851e-08 0.00010987333 
  135200    394.33333 0.0004013046 4.0134474e-08 0.00011078942 
  135400    394.91667 0.00039880461 3.9884449e-08 0.00011069373 
  135600        395.5 0.00039305535 3.9309466e-08 0.00010881335 
  135800    396.08333 0.00039168874 3.9172792e-08 0.00011036208 
  136000    396.66667 0.0003857323 3.8577088e-08 0.00011091211 
  136200       397.25 0.00038394607 3.8398447e-08 0.00010990903 
  136400    397.83333 0.00037874515 3.7878303e-08 0.00010905458 
  136600    398.41667 0.00037663396 3.7667163e-08 0.00011049958 
  136800          399 0.0003718744 3.719116e-08 0.00011101085 
  137000    399.58333 0.00036903522 3.6907212e-08 0.00010907708 
  137200    400.16667 0.00036588265 3.6591924e-08 0.00010980666 
  137400       400.75 0.00036140899 3.6144513e-08 0.00011031364 
  137600    401.33333 0.00035945961 3.5949556e-08 0.00011086548 
  137800    401.91667 0.0003545652 3.5460066e-08 0.00010858548 
  138000        402.5 0.00035311856 3.5315388e-08 0.00011027974 
  138200    403.08333 0.00034730073 3.4733547e-08 0.00011039544 
  138400    403.66667 0.00034685529 3.4688998e-08 0.00011018565 
  138600       404.25 0.0003410773 3.4111141e-08 0.00010860039 
  138800    404.83333 0.00033958853 3.3962249e-08 0.00011036202 
  139000    405.41667 0.00033510903 3.3514254e-08 0.00011095463 
  139200          406 0.00033313411 3.3316742e-08 0.00010912984 
  139400    406.58333 0.00032913537 3.2916829e-08 0.00010942496 
  139600    407.16667 0.00032597027 3.2600287e-08 0.0001102165 
  139800       407.75 0.00032427697 3.243094e-08 0.00011111795 
  140000    408.33333 0.00031921608  3.19248e-08 0.00010812691 
  140200    408.91667 0.0003183729 3.1840474e-08 0.00011025514 
  140400        409.5 0.00031333764 3.1336898e-08 0.00011020912 
  140600    410.08333 0.00031290973 3.1294103e-08 0.0001104583 
  140800    410.66667 0.00030692526 3.0695595e-08 0.00010793318 
  141000       411.25 0.00030715738 3.071881e-08 0.00011060658 
  141200    411.83333 0.00030181321 3.018434e-08 0.00011063293 
  141400    412.41667 0.00030045138 3.0048143e-08 0.0001092434 
  141600          413 0.00029679279 2.9682247e-08 0.0001091204 
  141800    413.58333 0.00029443158 2.9446103e-08 0.00011030892 
  142000    414.16667 0.00029172697 2.9175614e-08 0.00011098937 
  142200       414.75 0.00028799079 2.8801959e-08 0.00010807078 
  142400    415.33333 0.00028749933 2.8752808e-08 0.00011029026 
  142600    415.91667 0.00028189132 2.8191951e-08 0.00010973353 
  142800        416.5 0.0002823513 2.8237954e-08 0.00011079055 
  143000    417.08333 0.00027691201 2.769397e-08 0.00010773555 
  143200    417.66667 0.00027727508 2.7730281e-08 0.00011073391 
  143400       418.25 0.00027146858 2.7149573e-08 0.00011008589 
  143600    418.83333 0.00027209009 2.721173e-08 0.0001097709 
  143800    419.41667 0.0002673683 2.6739504e-08 0.00010852593 
  144000          420 0.00026562852 2.6565509e-08 0.00011043403 
  144200    420.58333 0.00026325959 2.6328591e-08 0.00011095991 
  144400    421.16667 0.00026033887 2.6036491e-08 0.00010833037 
  144600       421.75 0.00025878737 2.5881325e-08 0.00010991043 
  144800    422.33333 0.00025425598 2.5428141e-08 0.00010980706 
  145000    422.91667 0.00025542165 2.554472e-08 0.00011114775 
  145200        423.5 0.0002489532 2.489781e-08 0.00010715898 
  145400    424.08333 0.00025036082 2.5038586e-08 0.00011081486 
  145600    424.66667 0.00024497669 2.4500119e-08 0.00010996744 
  145800       425.25 0.00024584887 2.4587346e-08 0.00011022363 
  146000    425.83333 0.00024027665 2.4030068e-08 0.00010771227 
  146200    426.41667 0.00024091424 2.4093833e-08 0.00011096437 
  146400          427 0.00023728099 2.3730472e-08 0.00011069528 
  146600    427.58333 0.00023483611 2.348596e-08 0.00010854499 
  146800    428.16667 0.00023389226 2.3391565e-08 0.00010953855 
  147000       428.75 0.00022998189 2.3000489e-08 0.00011020151 
  147200    429.33333 0.00023009535 2.3011837e-08 0.00011105387 
  147400    429.91667 0.00022457578 2.2459824e-08 0.00010718559 
  147600        430.5 0.00022699562 2.2701832e-08 0.00011092653 
  147800    431.08333 0.00022000292 2.2002493e-08 0.0001094999 
  148000    431.66667 0.00022229388 2.2231611e-08 0.00011064093 
  148200       432.25 0.0002168909 2.1691259e-08 0.00010742019 
  148400    432.83333 0.00021785991 2.178817e-08 0.0001112246 
  148600    433.41667 0.00021311934 2.1314065e-08 0.00011016477 
  148800          434 0.00021326634 2.1328766e-08 0.00010928269 
  149000    434.58333 0.00021100646 2.1102756e-08 0.00010893834 
  149200    435.16667 0.00020735299 2.0737372e-08 0.00011048007 
  149400       435.75 0.00020833686 2.083577e-08 0.00011105451 
  149600    436.33333 0.00020329433 2.0331466e-08 0.00010761491 
  149800    436.91667 0.00020478452  2.04805e-08 0.00011055298 
  150000        437.5 0.00019834539 1.9836523e-08 0.00010959326 
  150200    438.08333 0.00020224054 2.0226077e-08 0.00011104112 
  150400    438.66667 0.00019462244 1.946419e-08 0.00010677785 
  150600       439.25 0.00019720879 1.9722852e-08 0.00011137488 
  150800    439.83333 0.00019257995 1.9259921e-08 0.00011020341 
  151000    440.41667 0.00019307073 1.9309004e-08 0.0001097822 
  151200          441 0.00018937559 1.8939453e-08 0.00010819036 
  151400    441.58333 0.00018858561 1.8860447e-08 0.00011124259 
  151600    442.16667 0.00018825093 1.8826975e-08 0.00011090948 
  151800       442.75 0.00018302133 1.8303963e-08 0.00010777603 
  152000    443.33333 0.00018595681 1.859754e-08 0.00011016151 
  152200    443.91667 0.00017960923 1.796272e-08 0.00011023343 
  152400        444.5 0.00018276688 1.8278516e-08 0.0001109828 
  152600    445.08333 0.00017544614 1.7546369e-08 0.00010670314 
  152800    445.66667 0.00018014655 1.8016457e-08 0.00011155209 
  153000       446.25 0.00017263944 1.7265671e-08 0.00010991805 
  153200    446.83333 0.00017510312 1.7512063e-08 0.00011016414 
  153400    447.41667 0.00017142063 1.7143778e-08 0.00010793851 
  153600          448 0.00017087673 1.7089382e-08 0.0001116072 
  153800    448.58333 0.00016897891 1.6899581e-08 0.00011058217 
  154000    449.16667 0.00016662986 1.6664652e-08 0.00010861583 
  154200       449.75 0.00016846296 1.6847981e-08 0.00010968376 
  154400    450.33333 0.00016133115 1.6134729e-08 0.00011036699 
  154600    450.91667 0.00016652074 1.6653739e-08 0.00011106534 
  154800        451.5 0.00015895573 1.5897163e-08 0.00010714845 
  155000    452.08333 0.0001631706 1.6318692e-08 0.00011115338 
  155200    452.66667 0.00015547896 1.5549451e-08 0.00011011722 
  155400       453.25 0.00016082022 1.608363e-08 0.00011059702 
  155600    453.83333 0.00015363782 1.5365318e-08 0.00010738825 
  155800    454.41667 0.00015516137 1.5517689e-08 0.00011178767 
  156000          455 0.00015350602 1.5352137e-08 0.00011088482 
  156200    455.58333 0.00015113752 1.5115264e-08 0.00010900163 
  156400    456.16667 0.00015129451 1.5130964e-08 0.0001090851 
  156600       456.75 0.00014706174 1.4707645e-08 0.00011135715 
  156800    457.33333 0.00015145601 1.5147116e-08 0.0001111118 
  157000    457.91667 0.00014223179 1.4224602e-08 0.00010693257 
  157200        458.5 0.00014937071 1.4938565e-08 0.00011088841 
  157400    459.08333 0.00014087839 1.4089248e-08 0.00011071721 
  157600    459.66667 0.0001459915 1.460061e-08 0.00011058369 
  157800       460.25 0.0001383422 1.3835604e-08 0.00010725293 
  158000    460.83333 0.00014333017 1.433445e-08 0.00011203509 
  158200    461.41667 0.0001376142 1.3762796e-08 0.0001109515 
  158400          462 0.0001374473 1.3746104e-08 0.00010922935 
  158600    462.58333 0.00013816148 1.381753e-08 0.00010901424 
  158800    463.16667 0.0001334641 1.3347745e-08 0.00011172957 
  159000       463.75 0.00013634483 1.3635847e-08 0.00011105336 
  159200    464.33333 0.0001297348 1.2974777e-08 0.00010775033 
  159400    464.91667 0.00013665342 1.3666708e-08 0.00011065095 
  159600        465.5 0.00012545485 1.254674e-08 0.00011032047 
  159800    466.08333 0.00013435524 1.3436868e-08 0.00011080055 
  160000    466.66667 0.00012545852 1.2547107e-08 0.00010756039 
  160200       467.25 0.00013039906 1.304121e-08 0.00011165565 
  160400    467.83333 0.0001238117 1.2382408e-08 0.00011119256 
  160600    468.41667 0.00012784285 1.2785564e-08 0.00010976469 
  160800          469 0.00012407632 1.2408873e-08 0.00010873619 
  161000    469.58333 0.00012133067 1.213428e-08 0.00011177873 
  161200    470.16667 0.00012556769 1.2558025e-08 0.00011166438 
  161400       470.75 0.00011778467 1.1779645e-08 0.00010798535 
  161600    471.33333 0.00012343025 1.2344259e-08 0.00011029002 
  161800    471.91667 0.00011457416 1.1458562e-08 0.00011128142 
  162000        472.5 0.0001239226 1.2393499e-08 0.00011109322 
  162200    473.08333 0.00011101195 1.1102305e-08 0.00010676134 
  162400    473.66667 0.00012083348 1.2084557e-08 0.00011158273 
  162600       474.25 0.00011244735 1.1245859e-08 0.0001118034 
  162800    474.83333 0.0001164647 1.1647635e-08 0.00010972794 
  163000    475.41667 0.00011172833 1.117395e-08 0.00010868708 
  163200          476 0.00011358666 1.1359802e-08 0.00011216396 
  163400    476.58333 0.00011312595 1.1313726e-08 0.00011208275 
  163600    477.16667 0.00010692883 1.0693952e-08 0.00010786612 
  163800       477.75 0.00011492478 1.1493627e-08 0.00011054087 
  164000    478.33333 0.00010397275 1.0398315e-08 0.00011144796 
  164200    478.91667 0.00011259166 1.1260292e-08 0.00011136517 
  164400        479.5 0.00010147781 1.0148796e-08 0.00010718509 
  164600    480.08333 0.00011266751 1.1267878e-08 0.00011169547 
  164800    480.66667 9.887785e-05 9.8887739e-09 0.00011133697 
  165000       481.25 0.00010871966 1.0873053e-08 0.00011012678 
  165200    481.83333 0.00010190321 1.019134e-08 0.00010882239 
  165400    482.41667 0.00010348952 1.0349987e-08 0.00011189194 
  165600          483 0.00010200141 1.0201161e-08  0.000112591 
  165800    483.58333 0.00010080827 1.0081835e-08 0.00010840863 
  166000    484.16667 0.00010411854 1.0412895e-08 0.00011049003 
  166200       484.75 9.3871813e-05 9.3881201e-09 0.00011129579 
  166400    485.33333 0.00010643138 1.0644203e-08 0.00011242828 
  166600    485.91667 9.1993319e-05 9.2002519e-09 0.00010680457 
  166800        486.5 0.00010303798 1.0304829e-08 0.00011168972 
  167000    487.08333 9.063596e-05 9.0645025e-09 0.00011176976 
  167200    487.66667 0.00010277552 1.027858e-08 0.00011078052 
  167400       488.25 8.9038645e-05 8.904755e-09 0.00010792769 
  167600    488.83333 9.7463675e-05 9.7473422e-09 0.00011213572 
  167800    489.41667 9.3742391e-05 9.3751766e-09 0.00011324705 
  168000          490 9.1656008e-05 9.1665175e-09 0.00010835027 
  168200    490.58333 9.4331209e-05 9.4340643e-09 0.00011049499 
  168400    491.16667 8.899858e-05 8.9007481e-09 0.00011193918 
  168600       491.75 9.7203968e-05 9.721369e-09 0.00011317804 
  168800    492.33333 8.234073e-05 8.2348965e-09 0.00010594396 
  169000    492.91667 9.9127204e-05 9.9137118e-09 0.00011230595 
  169200        493.5 8.200822e-05 8.2016422e-09 0.00011147117 
  169400    494.08333 9.4786966e-05 9.4796446e-09 0.00011138275 
  169600    494.66667 8.1907115e-05 8.1915307e-09 0.00010760981 
  169800       495.25 9.3679078e-05 9.3688447e-09 0.0001127305 
  170000    495.83333 8.1648637e-05 8.1656802e-09 0.00011285406 
  170200    496.41667 8.7066052e-05 8.7074759e-09 0.00010897696 
  170400          497 8.7890357e-05 8.7899147e-09 0.00011059992 
  170600    497.58333 8.0505314e-05 8.0513365e-09 0.00011172376 
  170800    498.16667 8.8694246e-05 8.8703117e-09 0.00011383105 
  171000       498.75 7.8536612e-05 7.8544466e-09 0.00010672267 
  171200    499.33333 9.1545592e-05 9.1554747e-09 0.00011251202 
  171400    499.91667 7.229074e-05 7.229797e-09 0.0001103363 
  171600        500.5 9.3196955e-05 9.3206275e-09 0.0001128517 
  171800    501.08333 7.3973449e-05 7.3980847e-09 0.00010660708 
  172000    501.66667 8.699631e-05 8.700501e-09 0.00011304689 
  172200       502.25 7.5682325e-05 7.5689894e-09 0.00011289434 
  172400    502.83333 8.5297812e-05 8.5306342e-09 0.00011002593 
  172600    503.41667 7.6541939e-05 7.6549594e-09 0.00010957066 
  172800          504 7.7166142e-05 7.7173859e-09 0.00011236922 
  173000    504.58333 8.4326399e-05 8.4334832e-09 0.00011457175 
  173200    505.16667 7.0388919e-05 7.0395958e-09 0.00010649251 
  173400       505.75 8.4572381e-05 8.4580839e-09 0.00011256193 
  173600    506.33333 6.9260897e-05 6.9267824e-09 0.00011141563 
  173800    506.91667  8.73023e-05 8.7311031e-09 0.00011384879 
  174000        507.5 6.397344e-05 6.3979838e-09 0.00010460124 
  174200    508.08333 8.7567633e-05 8.7576391e-09 0.00011407351 
  174400    508.66667 6.831619e-05 6.8323022e-09 0.00011238038 
  174600       509.25 7.9688532e-05 7.9696502e-09 0.00011088186 
  174800    509.83333 7.1674033e-05 7.1681201e-09 0.00010889411 
  175000    510.41667 7.7200336e-05 7.7208057e-09 0.00011351316 
  175200          511 7.3914783e-05 7.3922176e-09 0.00011419247 
  175400    511.58333 6.7900612e-05 6.7907402e-09 0.00010731907 
  175600    512.16667 8.2715094e-05 8.2723366e-09 0.00011262797 
  175800       512.75 6.1176127e-05 6.1182245e-09 0.00011111773 
  176000    513.33333 8.1925724e-05 8.1933918e-09 0.00011458519 
  176200    513.91667 6.1717054e-05 6.1723227e-09 0.0001053027 
  176400        514.5 8.3473131e-05 8.3481479e-09 0.00011450107 
  176600    515.08333 5.7672347e-05 5.7678115e-09 0.00011097525 
  176800    515.66667 8.2445452e-05 8.2453697e-09 0.00011267492 
  177000       516.25 6.4914723e-05 6.4921215e-09 0.00010764341 
  177200    516.83333 7.2107985e-05 7.2115196e-09  0.000114096 
  177400    517.41667 7.0342492e-05 7.0349527e-09 0.0001141389 
  177600          518 6.941579e-05 6.9422732e-09 0.00010875597 
  177800    518.58333 7.3308949e-05 7.331628e-09 0.00011147129 
  178000    519.16667 5.9207289e-05 5.921321e-09 0.0001121702 
  178200       519.75 8.2961752e-05 8.2970049e-09 0.00011542818 
  178400    520.33333 5.3419729e-05 5.3425071e-09 0.0001044465 
  178600    520.91667 7.9976825e-05 7.9984823e-09 0.00011455074 
  178800        521.5 5.6093399e-05 5.6099008e-09 0.00011162191 
  179000    522.08333 8.0224712e-05 8.0232736e-09 0.0001137751 
  179200    522.66667 5.3661516e-05 5.3666883e-09 0.00010566833 
  179400       523.25 7.6800436e-05 7.6808117e-09 0.00011548268 
  179600    523.83333 6.4360541e-05 6.4366978e-09 0.00011367472 
  179800    524.41667 6.4403604e-05 6.4410045e-09 0.00010968621 
  180000          525 7.1133031e-05 7.1140145e-09 0.00011063019 
  180200    525.58333 6.1821737e-05 6.182792e-09 0.00011384928 
  180400    526.16667 7.4797401e-05 7.4804881e-09 0.00011509315 
  180600       526.75 5.1416721e-05 5.1421864e-09  0.000105257 
  180800    527.33333 8.4375795e-05 8.4384233e-09 0.00011464524 
  181000    527.91667 4.7338919e-05 4.7343653e-09 0.00011075404 
  181200        528.5 7.8607782e-05 7.8615643e-09 0.00011447276 
  181400    529.08333 5.3049858e-05 5.3055164e-09 0.00010551923 
  181600    529.66667 7.651082e-05 7.6518472e-09 0.00011611879 
  181800       530.25 5.2442687e-05 5.2447932e-09 0.00011255287 
  182000    530.83333 7.0976033e-05 7.0983131e-09 0.00011165776 
  182200    531.41667 6.6332916e-05 6.633955e-09 0.00010943968 
  182400          532 5.6137758e-05 5.6143373e-09 0.00011442813 
  182600    532.58333 7.4412169e-05 7.4419611e-09 0.00011511095 
  182800    533.16667 5.4687636e-05 5.4693105e-09 0.00010707681 
  183000       533.75 7.7532683e-05 7.7540437e-09 0.0001133904 
  183200    534.33333 4.4864098e-05 4.4868585e-09 0.00011164236 
  183400    534.91667 8.669057e-05 8.669924e-09 0.00011545728 
  183600        535.5 4.3646529e-05 4.3650894e-09 0.00010405288 
  183800    536.08333 7.6830672e-05 7.6838356e-09 0.00011613118 
  184000    536.66667 5.2992434e-05 5.2997733e-09 0.00011314508 
  184200       537.25 7.2568383e-05 7.257564e-09 0.00011266863 
  184400    537.83333 5.4148673e-05 5.4154089e-09 0.00010759474 
  184600    538.41667 6.4231716e-05 6.4238139e-09 0.00011621679 
  184800          539 7.1408008e-05 7.1415149e-09 0.00011497012 
  185000    539.58333 4.7769581e-05 4.7774359e-09 0.00010751522 
  185200    540.16667 7.9249523e-05 7.9257449e-09 0.00011262814 
  185400       540.75 4.8403481e-05 4.8408322e-09 0.00011378888 
  185600    541.33333 8.135541e-05 8.1363547e-09 0.00011517956 
  185800    541.91667 4.0092252e-05 4.0096262e-09 0.00010382145 
  186000        542.5 8.8889479e-05 8.8898369e-09 0.00011631017 
  186200    543.08333 4.2826121e-05 4.2830404e-09 0.00011256414 
  186400    543.66667 7.4481926e-05 7.4489375e-09 0.00011317814 
  186600       544.25 5.6505872e-05 5.6511523e-09 0.00010741972 
  186800    544.83333 6.7528269e-05 6.7535023e-09 0.00011691823 
  187000    545.41667 5.925747e-05 5.9263396e-09 0.00011430394 
  187200          546 5.7212639e-05 5.7218361e-09 0.00010952351 
  187400    546.58333 7.8881505e-05 7.8889394e-09 0.00011175809 
  187600    547.16667 3.9440028e-05 3.9443972e-09 0.00011379268 
  187800       547.75 8.5773629e-05 8.5782207e-09 0.0001154587 
  188000    548.33333 4.3588352e-05 4.3592712e-09 0.00010546765 
  188200    548.91667 8.505944e-05 8.5067947e-09 0.00011514565 
  188400        549.5 3.7869206e-05 3.7872993e-09 0.0001127549 
  188600    550.08333 9.0579991e-05 9.058905e-09 0.00011431193 
  188800    550.66667 4.5593824e-05 4.5598384e-09 0.00010611368 
  189000       551.25 7.0572437e-05 7.0579495e-09 0.00011678838 
  189200    551.83333 6.3938595e-05 6.3944989e-09 0.00011535428 
  189400    552.41667 6.1845695e-05 6.185188e-09 0.0001102562 
  189600          553 6.7471913e-05 6.7478661e-09 0.00011022486 
  189800    553.58333 4.9747809e-05 4.9752784e-09 0.00011597867 
  190000    554.16667 8.9080989e-05 8.9089898e-09 0.00011593082 
  190200       554.75 3.206306e-05 3.2066267e-09 0.00010426854 
  190400    555.33333 9.2633925e-05 9.2643189e-09 0.00011468464 
  190600    555.91667 4.1276226e-05 4.1280354e-09 0.00011438543 
  190800        556.5 8.8287341e-05 8.8296171e-09 0.00011410554 
  191000    557.08333 3.8860765e-05 3.8864651e-09 0.00010524321 
  191200    557.66667 9.0662106e-05 9.0671173e-09 0.00011727981 
  191400       558.25 5.2492259e-05 5.2497509e-09 0.00011534028 
  191600    558.83333 6.5091736e-05 6.5098246e-09 0.00011039124 
  191800    559.41667 7.5485336e-05 7.5492886e-09 0.00011040664 
  192000          560 5.5148453e-05 5.5153968e-09 0.00011657053 
  192200    560.58333 7.8911879e-05 7.8919771e-09 0.00011588053 
  192400    561.16667 4.2926798e-05 4.2931091e-09 0.00010629194 
  192600       561.75 0.00010072653 1.0073661e-08 0.00011440258 
  192800    562.33333 2.652297e-05 2.6525622e-09 0.00011216652 
  193000    562.91667 9.9659579e-05 9.9669546e-09 0.0001148868 
  193200        563.5 4.239687e-05 4.240111e-09 0.00010570559 
  193400    564.08333 8.9702191e-05 8.9711162e-09 0.0001163029 
  193600    564.66667 4.4148562e-05 4.4152977e-09 0.00011559437 
  193800       565.25 8.8884874e-05 8.8893764e-09 0.00011172394 
  194000    565.83333 6.3959827e-05 6.3966224e-09 0.00010939112 
  194200    566.41667 5.7455206e-05 5.7460952e-09 0.00011612892 
  194400          567 9.1079979e-05 9.1089088e-09 0.00011756867 
  194600    567.58333 4.833235e-05 4.8337184e-09 0.00010647653 
  194800    568.16667 9.2539236e-05 9.2548491e-09 0.00011348735 
  195000       568.75 3.7364764e-05 3.7368501e-09 0.00011467739 
  195200    569.33333 0.00011370518 1.1371656e-08 0.00011615742 
  195400    569.91667 2.4148588e-05 2.4151003e-09 0.00010234086 
  195600        570.5 0.00010517548 1.0518599e-08 0.00011642397 
  195800    571.08333 4.8533536e-05 4.8538389e-09 0.00011656892 
  196000    571.66667 8.8988944e-05 8.8997844e-09 0.00011164569 
  196200       572.25 5.4252826e-05 5.4258252e-09 0.00010831222 
  196400    572.83333 8.4551412e-05 8.4559868e-09 0.00011714169 
  196600    573.41667 8.0277954e-05 8.0285982e-09 0.00011816297 
  196800          574 4.8178521e-05 4.8183339e-09 0.00010586201 
  197000    574.58333 0.00011018608 1.1019709e-08 0.00011422899 
  197200    575.16667 4.1887717e-05 4.1891906e-09 0.00011487712 
  197400       575.75 0.00010783563 1.0784642e-08 0.00011675755 
  197600    576.33333 3.4622356e-05 3.4625819e-09 0.00010315684 
  197800    576.91667 0.00012610507 1.2611768e-08 0.00011710082 
  198000        577.5 2.6482607e-05 2.6485256e-09 0.00011388799 
  198200    578.08333 0.00010883025 1.0884113e-08 0.00011304866 
  198400    578.66667 6.0610099e-05 6.061616e-09 0.00010807387 
  198600       579.25 8.5128185e-05 8.5136699e-09 0.00011646832 
  198800    579.83333 7.0200408e-05 7.0207429e-09 0.00011857244 
  199000    580.41667 7.8021698e-05 7.8029501e-09 0.0001075374 
  199200          581 0.00010123615 1.0124628e-08 0.00011342333 
  199400    581.58333 3.7622792e-05 3.7626555e-09 0.00011376968 
  199600    582.16667 0.00013202682 1.3204003e-08 0.00011923956 
  199800       582.75 3.7377658e-05 3.7381396e-09 0.00010202693 
  200000    583.33333 0.00012288735 1.2289964e-08 0.00011683506 
  200200    583.91667 3.6128795e-05 3.6132408e-09 0.00011432602 
  200400        584.5 0.00013740003 1.3741378e-08 0.00011521641 
  200600    585.08333 3.4930214e-05 3.4933707e-09 0.00010437118 
  200800    585.66667 0.0001089485 1.0895939e-08 0.00011739901 
  201000       586.25 8.0305624e-05 8.0313655e-09 0.00011936532 
  201200    586.83333 7.8291722e-05 7.8299552e-09 0.00010751025 
  201400    587.41667 9.1875507e-05 9.1884696e-09 0.00011216004 
  201600          588 6.9637212e-05 6.9644177e-09 0.00011569867 
  201800    588.58333 0.00012647949 1.2649214e-08 0.00012036431 
  202000    589.16667 2.7251375e-05  2.72541e-09 9.9587696e-05 
  202200       589.75 0.00015513725 1.5515276e-08 0.00011825092 
  202400    590.33333 3.6413305e-05 3.6416946e-09 0.00011321022 
  202600    590.91667 0.00013654248 1.3655614e-08 0.00011634882 
  202800        591.5 4.3724771e-05 4.3729143e-09 0.00010264504 
  203000    592.08333 0.00014533197 1.453465e-08 0.00011921256 
  203200    592.66667 5.1250564e-05 5.125569e-09 0.00011666023 
  203400       593.25 0.00010540273 1.0541327e-08 0.00010953777 
  203600    593.83333 0.00010790374 1.0791453e-08 0.00011156403 
  203800    594.41667 6.8391963e-05 6.8398803e-09 0.00011524556 
  204000          595 0.00011964285 1.1965482e-08 0.00012080573 
  204200    595.58333 6.0869771e-05 6.0875858e-09 0.00010209978 
  204400    596.16667 0.00015478459 1.5480007e-08 0.00011767022 
  204600       596.75 1.8820694e-05 1.8822576e-09 0.00010949236 
  204800    597.33333 0.00017798961 1.7800741e-08 0.00011955273 
  205000    597.91667 4.1287912e-05 4.1292041e-09 9.972884e-05 
  205200        598.5 0.00014629713 1.4631177e-08 0.00011956417 
  205400    599.08333 5.9362208e-05 5.9368145e-09 0.00011586719 
  205600    599.66667 0.0001494162 1.4943114e-08 0.00011264025 
  205800       600.25 7.6263737e-05 7.6271364e-09 0.00010747175 
  206000    600.83333 9.7142786e-05 9.7152501e-09 0.00011692681 
  206200    601.41667 0.00014439248 1.4440692e-08 0.00012154953 
  206400          602 5.6644394e-05 5.6650059e-09 0.00010181333 
  206600    602.58333 0.00015212517 1.5214039e-08 0.00011620296 
  206800    603.16667 5.3648181e-05 5.3653546e-09  0.000113082 
  207000       603.75 0.00018488077 1.8489926e-08 0.00012109447 
  207200    604.33333 1.492917e-05 1.4930663e-09 9.3552343e-05 
  207400    604.91667 0.00019832818 1.9834802e-08 0.00012164048 
  207600        605.5 5.4621868e-05 5.462733e-09 0.00011400935 
  207800    606.08333 0.00015087125 1.5088634e-08 0.00011389761 
  208000    606.66667 8.4651434e-05  8.46599e-09 0.00010467825 
  208200       607.25 0.00014784346 1.4785825e-08 0.0001199817 
  208400    607.83333 0.00011118088  1.11192e-08 0.00011868161 
  208600    608.41667 8.4993306e-05 8.5001806e-09 0.00010423694 
  208800          609 0.00018860653 1.8862539e-08 0.00011553653 
  209000    609.58333 4.4535577e-05 4.4540031e-09 0.00011222888 
  209200    610.16667 0.00018836788 1.8838672e-08 0.00012146529 
  209400       610.75 5.0792655e-05 5.0797735e-09 9.6913869e-05 
  209600    611.33333 0.00021436916 2.143906e-08 0.00012116541 
  209800    611.91667 1.8721398e-05 1.872327e-09 0.0001090829 
  210000        612.5 0.00021427839 2.1429982e-08 0.00011766233 
  210200    613.08333 7.9084076e-05 7.9091985e-09 0.00010098126 
  210400    613.66667 0.00014803476 1.4804957e-08 0.00012057034 
  210600       614.25 0.00012137706 1.213892e-08 0.0001176388 
  210800    614.83333 0.0001411374 1.4115152e-08 0.00010798616 
  211000    615.41667 0.00015537197 1.5538751e-08 0.00011116499 
  211200          616 6.9421419e-05 6.9428362e-09 0.00011432527 
  211400    616.58333 0.00023999173 2.4001574e-08 0.00012233053 
  211600    617.16667 3.4798924e-05 3.4802405e-09 9.5128266e-05 
  211800       617.75 0.00022528524 2.2530777e-08 0.00011946439 
  212000    618.33333 5.5951898e-05 5.5957494e-09  0.000111484 
  212200    618.91667 0.00024114438 2.4116849e-08 0.00011941073 
  212400        619.5 3.3531214e-05 3.3534567e-09 9.4838178e-05 
  212600    620.08333 0.0002234358 2.2345814e-08 0.00012317318 
  212800    620.66667 0.00011755685 1.175686e-08 0.00011609822 
  213000       621.25 0.00013744015 1.3745389e-08 0.00010863105 
  213200    621.83333 0.00017003558 1.7005259e-08 0.00010808122 
  213400    622.41667 0.00012920706 1.2921998e-08 0.00011842001 
  213600          623 0.00020862321 2.0864407e-08 0.00011937567 
  213800    623.58333 5.3111888e-05  5.31172e-09 9.7155143e-05 
  214000    624.16667 0.00029534435 2.9537388e-08 0.00011913319 
  214200       624.75 3.0919164e-05 3.0922256e-09 0.00010830857 
  214400    625.33333 0.00026031948 2.6034551e-08 0.00011954419 
  214600    625.91667 7.293019e-05 7.2937484e-09 9.5566957e-05 
  214800        626.5 0.00026198608 2.6201228e-08 0.00012266527 
  215000    627.08333 6.3074503e-05 6.3080811e-09 0.00011184638 
  215200    627.66667 0.00022454276 2.2456522e-08 0.00011281116 
  215400       628.25 0.00017208638 1.7210359e-08 0.00010446684 
  215600    628.83333 0.00011851434 1.1852619e-08 0.0001184619 
  215800    629.41667  0.000231162 2.3118512e-08 0.00011858406 
  216000          630 0.00011485323 1.1486472e-08 0.00010127147 
  216200    630.58333 0.00026808286 2.6810967e-08 0.00011477292 
  216400    631.16667 3.8938385e-05 3.8942279e-09 0.00010933123 
  216600       631.75 0.00035213697 3.5217218e-08 0.00012076185 
  216800    632.33333 3.7226649e-05 3.7230372e-09 9.1543745e-05 
  217000    632.91667 0.00028891724 2.8894613e-08 0.00012064288 
  217200        633.5 0.00010650074 1.0651139e-08 0.00011304443 
  217400    634.08333 0.00027474285 2.7477033e-08 0.00011442059 
  217600    634.66667 0.00011019352 1.1020454e-08 9.8538806e-05 
  217800       635.25 0.0002162677 2.1628933e-08 0.00012139375 
  218000    635.83333 0.00024433215 2.4435659e-08 0.00011801323 
  218200    636.41667 9.3227645e-05 9.3236969e-09 0.00010007603 
  218400          637 0.00030301317 3.0304347e-08 0.00011203508 
  218600    637.58333 0.0001010603 1.010704e-08 0.00011440327 
  218800    638.16667 0.00033149179 3.3152494e-08 0.00011794431 
  219000       638.75 3.2084359e-05 3.2087568e-09 8.9949464e-05 
  219200    639.33333 0.00040531164 4.0535218e-08 0.00012098109 
  219400    639.91667 5.9058205e-05 5.9064111e-09 0.0001091796 
  219600        640.5 0.00030756993 3.0760069e-08 0.00011400691 
  219800    641.08333 0.00016028567 1.603017e-08 9.8485901e-05 
  220000    641.66667 0.00027659373 2.7662139e-08 0.00012059679 
  220200       642.25 0.00017746061 1.7747836e-08 0.00011488646 
  220400    642.83333 0.00019944565 1.994656e-08 0.00010407564 
  220600    643.41667 0.00033413607 3.3416949e-08 0.00010919628 
  220800          644 6.4196307e-05 6.4202728e-09 0.00011221164 
  221000    644.58333 0.00038365716 3.8369553e-08 0.00011799477 
  221200    645.16667 9.3874636e-05 9.3884024e-09 9.3478026e-05 
  221400       645.75 0.00039355283 3.9359219e-08 0.00011711483 
  221600    646.33333 3.8131219e-05 3.8135032e-09 0.0001064051 
  221800    646.91667 0.00045092448 4.5096957e-08 0.00011587091 
[...]
  243000       708.75 3.1232909e-05 3.1236032e-09 5.0737051e-05 
  243200    709.33333 0.0015373671 1.5375208e-07 0.00010401166 
  243400    709.91667 0.00046460552 4.6465199e-08 5.5408744e-05 
  243600        710.5 0.0010616395 1.0617457e-07 9.4367586e-05 
  243800    711.08333 0.00072460662 7.2467909e-08 8.1063023e-05 
  244000    711.66667 0.0010490209 1.0491258e-07 8.0109254e-05 
  244200       712.25 0.00098374291 9.838413e-08 7.3314061e-05 
  244400    712.83333 0.00048889091 4.889398e-08 7.5587057e-05 
  244600    713.41667 0.0016559144  1.65608e-07 0.00010059055 
  244800          714 0.00023541049 2.3543403e-08 3.9380612e-05 
  245000    714.58333 0.0015668278 1.5669845e-07 9.7844247e-05 
  245200    715.16667 0.00035914207 3.5917799e-08 5.7479941e-05 
  245400       715.75 0.0017611229 1.7612991e-07 9.736826e-05 
  245600    716.33333 0.0001285259 1.2853876e-08 3.4331731e-05 
  245800    716.91667 0.0016485682 1.6487331e-07 9.8422803e-05 
  246000        717.5 0.00074165211 7.4172628e-08 6.7084732e-05 
  246200    718.08333 0.0010172917 1.0173934e-07 7.5774337e-05 
  246400    718.66667 0.0010768816 1.0769893e-07 6.2679052e-05 
  246600       719.25 0.00098370745 9.8380583e-08 7.8495788e-05 
  246800    719.83333 0.0013778069 1.3779447e-07 8.4952424e-05 
  247000    720.41667 0.00036411146 3.6414787e-08 3.7957595e-05 
  247200          721 0.0020828434 2.0830517e-07 9.1426094e-05 
  247400    721.58333 0.00019177303 1.917922e-08 4.4847765e-05 
  247600    722.16667 0.0018526016 1.8527869e-07 8.6702257e-05 
  247800       722.75 0.00046518721 4.6523374e-08 3.3434107e-05 
  248000    723.33333 0.0019605715 1.9607676e-07 9.4786282e-05 
  248200    723.91667 0.00032629579 3.2632842e-08 4.1942095e-05 
  248400        724.5 0.0016999552 1.7001252e-07 7.9695563e-05 
  248600    725.08333  0.001138252 1.1383659e-07 5.3508964e-05 
  248800    725.66667 0.00091229237 9.1238361e-08 6.4591042e-05 
  249000       726.25 0.0015271991 1.5273519e-07 7.4216313e-05 
  249200    726.83333 0.00089330863 8.9339797e-08 4.7771952e-05 
  249400    727.41667 0.0018320531 1.8322363e-07 6.8913188e-05 
  249600          728 0.00024613023 2.4615485e-08 3.8193767e-05 
  249800    728.58333 0.0025287352 2.5289881e-07 8.768304e-05 
  250000    729.16667 0.00021134444 2.1136557e-08 1.0936596e-05 
  250200       729.75 0.0020974286 2.0976384e-07 8.2567175e-05 
  250400    730.33333 0.0006786862 6.7875408e-08 4.0491104e-05 
  250600    730.91667  0.002099736 2.099946e-07 7.1480445e-05 
  250800        731.5 0.00064824442 6.4830925e-08 3.0528468e-05 
  251000    732.08333  0.001681668 1.6818362e-07 6.8353302e-05 
  251200    732.66667  0.001669396 1.6695629e-07 6.0322435e-05 
  251400       733.25 0.00075264955 7.5272482e-08 3.6086081e-05 
  251600    733.83333 0.0020695337 2.0697406e-07 5.8722586e-05 
  251800    734.41667 0.00080090436 8.0098445e-08 3.9547884e-05 
  252000          735 0.0023275864 2.3278191e-07 7.1689102e-05 
  252200    735.58333 0.00016938235 1.6939929e-08 -2.7774615e-06 
  252400    736.16667   0.00296349 2.9637863e-07 7.810765e-05 
  252600       736.75 0.00033208923 3.3212244e-08 1.9198528e-05 
  252800    737.33333 0.0022741554 2.2743828e-07 5.8343311e-05 
  253000    737.91667  0.001035311 1.0354145e-07 2.3994288e-05 
  253200        738.5 0.0021594836 2.1596996e-07 6.3237282e-05 
  253400    739.08333 0.0011137267 1.1138381e-07 3.2259296e-05 
  253600    739.66667 0.0015883861 1.5885449e-07 3.8541092e-05 
  253800       740.25 0.0023351246 2.3353581e-07 5.0878866e-05 
  254000    740.83333 0.00055485958 5.5491507e-08 1.4868659e-05 
  254200    741.41667 0.0026891499 2.6894188e-07 6.2127596e-05 
  254400          742 0.00074420393 7.4427836e-08 4.7902265e-06 
  254600    742.58333 0.0028361647 2.8364483e-07 5.5019402e-05 
  254800    743.16667 0.00017777007 1.7778785e-08 -4.0050289e-06 
  255000       743.75 0.0033574164 3.3577522e-07 6.2320274e-05 
  255200    744.33333 0.00059948602 5.9954598e-08 -5.7875203e-06 
  255400    744.91667 0.0023498451 2.3500801e-07 4.7751254e-05 
  255600        745.5 0.0015636561 1.5638125e-07 2.6364816e-05 
  255800    746.08333 0.0021266784 2.1268911e-07 2.7745199e-05 
  256000    746.66667 0.0017320725 1.7322458e-07 2.5450651e-05 
  256200       747.25  0.001431264 1.4314071e-07 1.625408e-05 
  256400    747.83333 0.0031309388 3.1312519e-07 4.9612579e-05 
  256600    748.41667 0.00034975534 3.4979032e-08 -2.1174971e-05 
  256800          749 0.0033559343  3.35627e-07 4.5660655e-05 
  257000    749.58333 0.00077074582 7.708229e-08 -9.5210287e-06 
  257200    750.16667 0.0033201661 3.3204982e-07 4.646302e-05 
  257400       750.75 0.00032270953 3.227418e-08 -3.4758952e-05 
  257600    751.33333 0.0036726674 3.6730347e-07 4.6496017e-05 
  257800    751.91667 0.0010574746 1.0575804e-07 -8.9172412e-07 
  258000        752.5 0.0023042506 2.3044811e-07 9.4232556e-06 
  258200    753.08333 0.0022924529 2.2926822e-07 1.5526833e-05 
  258400    753.66667 0.0020033713 2.0035716e-07 7.9642364e-06 
  258600       754.25 0.0025030426 2.5032929e-07 1.7367681e-05 
  258800    754.83333 0.0012296327 1.2297557e-07 -2.2061528e-05 
  259000    755.41667 0.0040278935 4.0282963e-07 4.0927724e-05 
  259200          756 0.00018197302 1.8199122e-08 -5.7130858e-05 
  259400    756.58333 0.0040289887 4.0293916e-07 3.8616865e-05 
  259600    757.16667 0.00094228636 9.423806e-08 -3.9501818e-05 
  259800       757.75 0.0037364157 3.7367894e-07 2.1912483e-05 
  260000    758.33333 0.00066105669 6.611228e-08 -3.5793753e-05 
  260200    758.91667 0.0038808551 3.8812432e-07 1.7273037e-05 
  260400        759.5 0.0017506615 1.7508366e-07 -2.1419066e-05 
  260600    760.08333 0.0021198635 2.1200755e-07 -1.4085575e-05 
  260800    760.66667  0.003232971 3.2332944e-07 9.0461134e-06 
  261000       761.25 0.0018036667 1.8038471e-07 -3.8573903e-05 
  261200    761.83333 0.0034062542 3.4065948e-07 1.2051074e-05 
  261400    762.41667 0.0010302308 1.0303339e-07 -6.0002413e-05 
  261600          763 0.0049930171 4.9935164e-07 2.8360096e-05 
  261800    763.58333 0.00011313645 1.1314776e-08 -9.3061847e-05 
  262000    764.16667 0.0046534747 4.6539401e-07 1.3578587e-05 
  262200       764.75 0.0013269261 1.3270588e-07 -5.7595838e-05 
  262400    765.33333 0.0040369781 4.0373818e-07 4.7366609e-07 
  262600    765.91667 0.0012473915 1.2475163e-07 -6.1274969e-05 
  262800        766.5 0.0039525356 3.9529309e-07 -1.2538519e-05 
  263000    767.08333  0.002710117 2.710388e-07 -2.4348242e-05 
  263200    767.66667 0.0018037824 1.8039628e-07 -6.666359e-05 
  263400       768.25 0.0043878252 4.3882641e-07 1.3597648e-07 
  263600    768.83333 0.0015710325 1.5711897e-07 -7.5197688e-05 
  263800    769.41667 0.0044098286 4.4102696e-07 -9.3181713e-06 
  264000          770 0.00089063266 8.9072174e-08 -0.00010065769 
  264200    770.58333 0.0059647258 5.9653224e-07 1.2689578e-05 
  264400    771.16667 0.00021755387 2.1757563e-08 -0.00013029164 
  264600       771.75 0.0051671219 5.1676387e-07 -6.676376e-06 
  264800    772.33333  0.001998775 1.9989749e-07 -7.8681633e-05 
  265000    772.91667 0.0041782791 4.178697e-07 -4.1844181e-05 
  265200        773.5 0.0021306312 2.1308442e-07 -7.0834319e-05 
  265400    774.08333 0.0038822386 3.8826269e-07 -5.5063736e-05 
  265600    774.66667 0.0039566662 3.9570619e-07 -4.3880674e-05 
  265800       775.25 0.0013772451 1.3773828e-07 -0.00011076397 
  266000    775.83333 0.0057329126 5.733486e-07 -1.9023775e-05 
  266200    776.41667 0.0013660794 1.3662161e-07 -0.00012779493 
  266400          777 0.0054527897 5.4533351e-07 -2.1149541e-05 
  266600    777.58333 0.00090005683 9.0014684e-08 -0.00015260272 
  266800    778.16667 0.0068830453 6.8837336e-07 -1.4629824e-05 
  267000       778.75 0.00058230342 5.8236166e-08 -0.0001462044 
  267200    779.33333 0.0055054053 5.5059559e-07 -5.1778133e-05 
  267400    779.91667 0.0030296687 3.0299717e-07 -0.00010481109 
  267600        780.5  0.004125403 4.1258155e-07 -7.6660287e-05 
  267800    781.08333 0.0033432401 3.3435745e-07 -9.5179605e-05 
  268000    781.66667 0.0036745685 3.674936e-07 -0.00010809538 
  268200       782.25 0.0054818673 5.4824156e-07 -5.8134853e-05 
  268400    782.83333 0.00089652887 8.9661853e-08 -0.0001756226 
  268600    783.41667 0.0072243488 7.2250713e-07 -3.3905481e-05 
  268800          784 0.0012866504 1.2867791e-07 -0.00018236677 
  269000    784.58333 0.0064679229 6.4685698e-07 -6.0474165e-05 
  269200    785.16667 0.0011578788 1.1579946e-07 -0.00018106559 
  269400       785.75 0.0076673946 7.6681614e-07 -4.9528486e-05 
  269600    786.33333 0.0012991648 1.2992947e-07 -0.00019355807 
  269800    786.91667 0.0056072927 5.6078534e-07 -8.7326004e-05 
  270000        787.5 0.0044804489 4.480897e-07 -0.00012031884 
  270200    788.08333 0.0038634725 3.8638589e-07 -0.000148147 
  270400    788.66667 0.0048938439 4.8943333e-07 -0.00011620005 
  270600       789.25 0.0033750338 3.3753714e-07 -0.00016258759 
  270800    789.83333 0.0072562008 7.2569265e-07 -8.4918017e-05 
  271000    790.41667 0.00044230361 4.4234784e-08 -0.00024661306 
  271200          791 0.0087906738 8.7915529e-07 -6.9720282e-05 
  271400    791.58333 0.0014494019 1.4495469e-07 -0.00022913568 
  271600    792.16667  0.007356683 7.3574188e-07 -9.2229054e-05 
  271800       792.75 0.0017843073 1.7844858e-07 -0.00024071255 
  272000    793.33333 0.0082494362 8.2502613e-07 -9.5116465e-05 
  272200    793.91667 0.0024570835 2.4573292e-07 -0.00020359235 
  272400        794.5 0.0054333264 5.4338698e-07 -0.00016617325 
  272600    795.08333 0.0063962814 6.3969211e-07 -0.00015814553 
  272800    795.66667 0.0034082944 3.4086353e-07 -0.00019778392 
  273000       796.25 0.0067625651 6.7632414e-07 -0.00014813875 
  273200    796.83333 0.0030528085 3.0531138e-07 -0.00024482911 
  273400    797.41667 0.0092080109 9.2089318e-07 -0.00011401491 
  273600          798 0.00013298471 1.3299801e-08 -0.00032157121 
  273800    798.58333  0.010331049 1.0332082e-06 -0.00010530786 
  274000    799.16667 0.0019990102 1.9992101e-07 -0.00029303222 
  274200       799.75 0.0080297576 8.0305606e-07 -0.00015380977 
  274400    800.33333 0.0029027393 2.9030296e-07 -0.00025812251 
  274600    800.91667 0.0085664248 8.5672815e-07 -0.00016437059 
  274800        801.5 0.0041349258 4.1353393e-07 -0.00026547454 
  275000    802.08333 0.0049648877 4.9653843e-07 -0.00022011339 
  275200    802.66667 0.0087883924 8.7892713e-07 -0.00017722004 
  275400       803.25 0.0028134635 2.8137449e-07 -0.00030811202 
  275600    803.83333 0.0088836808 8.8845693e-07 -0.00018436435 
  275800    804.41667 0.0028288378 2.8291207e-07 -0.00030683468 
  276000          805  0.011240558 1.1241682e-06 -0.00016286881 
  276200    805.58333 0.00011459779 1.1460925e-08 -0.00040629539 
  276400    806.16667  0.011734643 1.1735817e-06 -0.00016311117 
  276600       806.75  0.003096027 3.0963366e-07 -0.00032740001 
  276800    807.33333 0.0083778634 8.3787013e-07 -0.00022334872 
  277000    807.91667 0.0046270455 4.6275082e-07 -0.0003312142 
  277200        808.5 0.0085798687 8.5807268e-07 -0.00023197269 
  277400    809.08333  0.006378547 6.3791849e-07 -0.00027694608 
  277600    809.66667 0.0042372564 4.2376802e-07 -0.00034565869 
  277800       810.25  0.011637232 1.1638396e-06 -0.00022941924 
  278000    810.83333 0.0021869122 2.1871309e-07 -0.00037171844 
  278200    811.41667  0.011163573 1.116469e-06 -0.00023897626 
  278400          812 0.0028608841 2.8611702e-07 -0.00041677248 
  278600    812.58333   0.01321649 1.3217812e-06 -0.00021302504 
  278800    813.16667 0.00055939198 5.5944793e-08 -0.00045525018 
  279000       813.75  0.012858026 1.2859312e-06 -0.00023879258 
  279200    814.33333 0.0048942603 4.8947497e-07 -0.00040261261 
  279400    814.91667 0.0083270637 8.3278965e-07 -0.00031320402 
  279600        815.5 0.0070577648 7.0584706e-07 -0.00034647194 
  279800    816.08333 0.0083024286 8.303259e-07 -0.00035089479 
  280000    816.66667 0.0092080633 9.2089842e-07 -0.00035556198 
  280200       817.25 0.0033247279 3.3250604e-07 -0.000420212 
  280400    817.83333   0.01486854 1.4870027e-06 -0.00026688154 
  280600    818.41667 0.0016873888 1.6875576e-07 -0.00052517539 
  280800          819  0.013443512 1.3444856e-06 -0.00029700107 
  281000    819.58333 0.0033494938 3.3498288e-07 -0.00047538269 
  281200    820.16667  0.014982254 1.4983752e-06 -0.0003046233 
  281400       820.75 0.0016562766 1.6564422e-07 -0.00054461922 
  281600    821.33333    0.0135934 1.3594759e-06 -0.00032584288 
  281800    821.91667 0.0075556586 7.5564143e-07 -0.00043327888 
  282000        822.5  0.007813395 7.8141764e-07 -0.00043959545 
  282200    823.08333  0.010242142 1.0243167e-06 -0.00043682752 
  282400    823.66667 0.0077789192 7.7796971e-07 -0.00044346348 
  282600       824.25   0.01256752 1.2568777e-06 -0.00038333942 
  282800    824.83333 0.0023844464 2.3846849e-07 -0.00060112328 
  283000    825.41667  0.018365809 1.8367646e-06 -0.00033945844 
  283200          826 0.0015380715 1.5382253e-07 -0.00059363604 
  283400    826.58333  0.015561836 1.5563393e-06 -0.00039702785 
  283600    827.16667 0.0045404257 4.5408798e-07 -0.0006026684 
  283800       827.75  0.016373272 1.637491e-06 -0.00038505264 
  284000    828.33333 0.0035920197 3.5923789e-07 -0.00059524435 
  284200    828.91667  0.013806713 1.3808094e-06 -0.00046372015 
  284400        829.5  0.011175151 1.1176269e-06 -0.00052440281 
  284600    830.08333 0.0068408932 6.8415774e-07 -0.00056447795 
  284800    830.66667  0.014186677 1.4188096e-06 -0.00046528558 
  285000       831.25 0.0071608145 7.1615307e-07 -0.00062286546 
  285200    831.83333  0.016371474 1.6373111e-06 -0.00048434406 
  285400    832.41667 0.0016232056 1.6233679e-07 -0.00069543189 
  285600          833  0.021954816 2.1957012e-06 -0.00041908827 
  285800    833.58333 0.0020129454 2.0131467e-07 -0.00077222452 
  286000    834.16667  0.017284585 1.7286314e-06 -0.00048847369 
  286200       834.75 0.0066789183 6.6795863e-07 -0.00065575945 
  286400    835.33333     0.017231 1.7232723e-06 -0.00054422846 
  286600    835.91667 0.0065367347 6.5373884e-07 -0.00070679427 
  286800        836.5   0.01347544 1.3476788e-06 -0.00058904055 
  287000    837.08333   0.01584671 1.5848295e-06 -0.00056621098 
  287200    837.66667 0.0054704615 5.4710086e-07 -0.00076533731 
  287400       838.25  0.018807764 1.8809645e-06 -0.00057836146 
  287600    838.83333 0.0066315981 6.6322613e-07 -0.00074056218 
  287800    839.41667  0.020413899 2.041594e-06 -0.00055404108 
  288000          840 0.0013369741 1.3371078e-07 -0.00092441178 
  288200    840.58333  0.025416946 2.5419487e-06 -0.00052352378 
  288400    841.16667 0.0034268563 3.4271991e-07 -0.00083093067 
  288600       841.75  0.018431108 1.8432951e-06 -0.00066187876 
  288800    842.33333  0.010051483 1.0052488e-06 -0.00080235454 
  289000    842.91667  0.017453486 1.7455232e-06 -0.00066747013 
  289200        843.5  0.010620049 1.0621111e-06 -0.00077179183 
  289400    844.08333  0.012565596 1.2566852e-06 -0.00081010713 
  289600    844.66667  0.021523618 2.1525771e-06 -0.00067962075 
  289800       845.25 0.0038597937 3.8601798e-07 -0.0009312336 
  290000    845.83333  0.023946412 2.3948807e-06 -0.00064722699 
  290200    846.41667 0.0065218811 6.5225333e-07 -0.00098017261 
  290400          847  0.024483223 2.4485672e-06 -0.00068956969 
  290600    847.58333  0.001866352 1.8665386e-07 -0.0010157638 
  290800    848.16667  0.028513035 2.8515886e-06 -0.00067671992 
  291000       848.75 0.0061271909 6.1278037e-07 -0.0010310718 
  291200    849.33333  0.018762653 1.8764529e-06 -0.00080357445 
  291400    849.91667  0.014864148 1.4865635e-06 -0.00086546123 
  291600        850.5  0.016971775 1.6973473e-06 -0.00091825439 
  291800    851.08333  0.015893017 1.5894606e-06 -0.00091171743 
  292000    851.66667   0.01124564 1.1246764e-06 -0.00098207671 
  292200       852.25  0.028154267 2.8157082e-06 -0.00075854219 
  292400    852.83333 0.0022727677 2.272995e-07 -0.0012175543 
  292600    853.41667  0.029356903 2.9359839e-06 -0.00079684653 
  292800          854 0.0071888391 7.1895581e-07 -0.0011116373 
  293000    854.58333  0.028225921 2.8228743e-06 -0.00083864586 
  293200    855.16667 0.0036043635 3.604724e-07 -0.0012644981 
  293400       855.75  0.030967885 3.0970982e-06 -0.00083212935 
  293600    856.33333  0.010428839 1.0429882e-06 -0.0011004965 
  293800    856.91667  0.018178248 1.8180066e-06 -0.0010820338 
  294000        857.5  0.021339037 2.1341172e-06 -0.0010398266 
  294200    858.08333  0.015873919 1.5875507e-06 -0.0010969114 
  294400    858.66667  0.022338973 2.2341207e-06 -0.001013973 
  294600       859.25 0.0096915262 9.6924955e-07 -0.0013016844 
  294800    859.83333  0.035488605 3.5492154e-06 -0.00090967724 
  295000    860.41667  0.001079781 1.079889e-07 -0.0014247225 
  295200          861  0.034682484 3.4685953e-06 -0.00094724676 
  295400    861.58333 0.0091220007 9.122913e-07 -0.0013971379 
  295600    862.16667  0.031343476 3.1346611e-06 -0.0010302711 
  295800       862.75 0.0069620073 6.9627035e-07 -0.0013634248 
  296000    863.33333  0.032585435 3.2588694e-06 -0.0010966526 
  296200    863.91667  0.016647049 1.6648714e-06 -0.0013312772 
  296400        864.5  0.016559003 1.6560659e-06 -0.0012933739 
  296600    865.08333   0.02952093 2.9523883e-06 -0.001134106 
  296800    865.66667  0.014299423 1.4300853e-06 -0.0014610542 
  297000       866.25  0.029773035 2.9776013e-06 -0.0012000893 
  297200    866.83333 0.0083467088 8.3475435e-07 -0.0015208537 
  297400    867.41667  0.043276113 4.3280441e-06 -0.0010648918 
  297600          868 0.00077825204 7.7832987e-08 -0.0017851828 
  297800    868.58333  0.039561409 3.9565366e-06  -0.00115773 
  298000    869.16667  0.012837923 1.2839206e-06 -0.0015347095 
  298200       869.75  0.033428831 3.3432174e-06 -0.0013061437 
  298400    870.33333  0.012317015 1.2318247e-06 -0.0016502415 
  298600    870.91667  0.033147025 3.315034e-06 -0.0013260604 
  298800        871.5  0.024939379 2.4941873e-06 -0.0014354003 
  299000    872.08333   0.01401729 1.4018692e-06 -0.0017048127 
  299200    872.66667  0.039419169 3.9423111e-06 -0.0013496535 
  299400       873.25  0.012646338 1.2647603e-06 -0.0017068578 
  299600    873.83333  0.037961623 3.7965419e-06 -0.0013798919 
  299800    874.41667 0.0076833193 7.6840878e-07 -0.0019358384 
  300000          875  0.051072701 5.1077809e-06 -0.0012815796 
Loop time of 4669.08 on 8 procs for 300000 steps with 10000 atoms

Performance: 16191.624 tau/day, 64.252 timesteps/s
99.4% CPU use with 8 MPI tasks x 1 OpenMP threads

MPI task timing breakdown:
Section |  min time  |  avg time  |  max time  |%varavg| %total
---------------------------------------------------------------
Pair    | 739.06     | 747.7      | 765.25     |  30.0 | 16.01
Neigh   | 0.31037    | 0.31574    | 0.3219     |   0.6 |  0.01
Comm    | 8.746      | 9.0303     | 9.3535     |   6.1 |  0.19
Output  | 18.149     | 18.244     | 18.303     |   1.1 |  0.39
Modify  | 3721.2     | 3728.6     | 3732       |   5.0 | 79.86
Other   |            | 165.2      |            |       |  3.54

Nlocal:        1250.00 ave        1255 max        1242 min
Histogram: 1 0 0 1 0 1 2 0 1 2
Nghost:        702.375 ave         711 max         693 min
Histogram: 1 1 1 0 0 1 1 1 1 1
Neighs:        38198.1 ave       38345 max       37957 min
Histogram: 1 0 0 0 1 1 2 1 0 2
FullNghs:      68961.2 ave       69206 max       68549 min
Histogram: 1 0 0 0 1 1 2 1 0 2

Total # of neighbors = 551690
Ave neighs/atom = 55.169000
Neighbor list builds = 371
Dangerous builds = 0
write_data  data.*
System init for write_data ...
WARNING: One or more atoms are time integrated more than once (src/modify.cpp:285)
write_restart restart.*
System init for write_restart ...
WARNING: One or more atoms are time integrated more than once (src/modify.cpp:285)
Total wall time: 1:17:49
