LAMMPS data file via write_data, version 29 Oct 2020, timestep = 10000

10000 atoms
2 atom types

0.0 20.0 xlo xhi
-10.0 10.0 ylo yhi
-0.02 0.02 zlo zhi

Masses

1 0.04
2 0.04

Atoms # rheo

35 1 0.9994809080713389 1.0 0 0.3865863390711768 -9.891780017313636 0.0 0 0 0
69 1 0.9995516738253402 1.0 0 0.42552954856555625 -9.706335721110113 0.0 0 0 0
6799 1 0.9995213484627204 1.0 0 0.2184036025643629 -9.670062363499925 0.0 1 0 0
6766 1 0.9994482917867784 1.0 0 0.1752956411396877 -9.86010919384543 0.0 1 0 0
36 1 0.99951843585714 1.0 0 0.5932495170175308 -9.904857017004487 0.0 0 0 0
70 1 0.999594203164544 1.0 0 0.6323958772103748 -9.706171325738442 0.0 0 0 0
37 1 0.9995612877173636 1.0 0 0.7963334086071556 -9.898572599110087 0.0 0 0 0
71 1 0.9996378759695048 1.0 0 0.8362642420658617 -9.700018388048182 0.0 0 0 0
38 1 0.9996157339135385 1.0 0 0.9996283953844837 -9.857174242450705 0.0 0 0 0
72 1 0.9996963357913242 1.0 0 1.0368164224886154 -9.648525556081921 0.0 0 0 0
39 1 0.9996333240150284 1.0 0 1.1875151632885692 -9.912556124241052 0.0 0 0 0
73 1 0.9997105837934125 1.0 0 1.2251131241102726 -9.71284869240333 0.0 0 0 0
40 1 0.9996896195717467 1.0 0 1.3904473784706242 -9.86211847115305 0.0 0 0 0
74 1 0.9997710096666012 1.0 0 1.4198557802756444 -9.649131079911127 0.0 0 0 0
41 1 0.9997463253810838 1.0 0 1.5861639361595863 -9.804126426765833 0.0 0 0 0
75 1 0.9998278162530859 1.0 0 1.6122293714818776 -9.592081186064743 0.0 0 0 0
42 1 0.9997782918971264 1.0 0 1.7826139948179927 -9.813513305516311 0.0 0 0 0
76 1 0.9998549978140968 1.0 0 1.806301831417777 -9.614022241709893 0.0 0 0 0
43 1 0.9998200282219148 1.0 0 1.985111806521362 -9.794949040221162 0.0 0 0 0
77 1 0.9998965424115265 1.0 0 2.0057107704357757 -9.596166226494176 0.0 0 0 0
44 1 0.9998620831934805 1.0 0 2.1897782055377353 -9.771839856969581 0.0 0 0 0
78 1 0.9999383963151508 1.0 0 2.209483452767744 -9.575128267576192 0.0 0 0 0
10 1 0.9997874151928122 1.0 0 2.1628023331969475 -9.965461862781416 0.0 0 0 0
45 1 0.9999087267318816 1.0 0 2.3990770071504164 -9.73380231616391 0.0 0 0 0
79 1 0.9999830169400158 1.0 0 2.419752406309525 -9.544856545911195 0.0 0 0 0
11 1 0.9998366233587006 1.0 0 2.3785957184218343 -9.92114292183767 0.0 0 0 0
12 1 0.9998840144313798 1.0 0 2.5991397033125963 -9.878529322444237 0.0 0 0 0
46 1 0.9999551720942473 1.0 0 2.6130285093514867 -9.693089246570935 0.0 0 0 0
13 1 0.9999244890135502 1.0 0 2.8176606724922424 -9.84820187858258 0.0 0 0 0
47 1 0.9999964132594406 1.0 0 2.828879261415357 -9.66128245750513 0.0 0 0 0
14 1 0.999964767386307 1.0 0 3.03438242236729 -9.8118103114438 0.0 0 0 0
48 1 1.0000373610307798 1.0 0 3.043226810068634 -9.624039794694042 0.0 0 0 0
15 1 0.9999963537401108 1.0 0 3.2472905080208676 -9.791084986270553 0.0 0 0 0
49 1 1.000071334027377 1.0 0 3.2525350881095116 -9.597376669051776 0.0 0 0 0
16 1 1.000019056257369 1.0 0 3.4562597058324713 -9.786489274871089 0.0 0 0 0
50 1 1.0000946075797903 1.0 0 3.457089103548913 -9.590992802894629 0.0 0 0 0
17 1 1.0000287500800344 1.0 0 3.6604519569716594 -9.808503396660004 0.0 0 0 0
51 1 1.0001064132306186 1.0 0 3.6589794559609032 -9.607330230163486 0.0 0 0 0
18 1 1.000021883579332 1.0 0 3.85459499955267 -9.86573591105314 0.0 0 0 0
52 1 1.0001032234532452 1.0 0 3.853725670998312 -9.654676217179134 0.0 0 0 0
19 1 1.0000263198591541 1.0 0 4.053688773207672 -9.888482427303057 0.0 0 0 0
53 1 1.000102484043143 1.0 0 4.050409952845298 -9.690491594283753 0.0 0 0 0
54 1 1.000113514670903 1.0 0 4.2502910932844955 -9.690670264264517 0.0 0 0 0
20 1 1.0000317362327944 1.0 0 4.249478184920186 -9.902207841603687 0.0 0 0 0
55 1 1.0001000479447049 1.0 0 4.448251936721086 -9.747570245079908 0.0 0 0 0
89 1 1.0001767255614495 1.0 0 4.449692823916321 -9.553467280816047 0.0 0 0 0
21 1 1.0000241920744934 1.0 0 4.443376070530702 -9.944141627922123 0.0 0 0 0
56 1 1.0000884343982854 1.0 0 4.643674336415364 -9.794018473345496 0.0 0 0 0
90 1 1.0001746100725177 1.0 0 4.645531496020753 -9.575629230674402 0.0 0 0 0
57 1 1.0000898268308458 1.0 0 4.835618978798225 -9.80155925101309 0.0 0 0 0
91 1 1.0001734569853435 1.0 0 4.835406757601358 -9.589774031522468 0.0 0 0 0
58 1 1.0000739240371088 1.0 0 5.025827928543528 -9.848514355542099 0.0 0 0 0
92 1 1.000155629441545 1.0 0 5.026110265683028 -9.640727981824126 0.0 0 0 0
59 1 1.0000633842949127 1.0 0 5.218917059008331 -9.876944669593097 0.0 0 0 0
93 1 1.0001463437470388 1.0 0 5.217694769800276 -9.66551134350539 0.0 0 0 0
60 1 1.000064158499958 1.0 0 5.4164429833296355 -9.871378713462487 0.0 0 0 0
94 1 1.0001434382760865 1.0 0 5.411741300711167 -9.669731593333243 0.0 0 0 0
61 1 1.0000394557685122 1.0 0 5.6104988520614185 -9.92692772143166 0.0 0 0 0
95 1 1.000120177800128 1.0 0 5.606086511254184 -9.720685655633584 0.0 0 0 0
62 1 1.0000405860833799 1.0 0 5.803950931308176 -9.91112239887166 0.0 0 0 0
96 1 1.000126812702155 1.0 0 5.793809044728403 -9.69193728850366 0.0 0 0 0
63 1 1.0000206349031795 1.0 0 5.995714941243615 -9.94588990468328 0.0 0 0 0
97 1 1.000101473597611 1.0 0 5.983579252107324 -9.739678445950771 0.0 0 0 0
64 1 1.000011075199434 1.0 0 6.188696190796275 -9.949725965712185 0.0 0 0 0
98 1 1.0000946188170454 1.0 0 6.175208836803653 -9.736579147269069 0.0 0 0 0
65 1 0.9999938932301827 1.0 0 6.379674774897347 -9.969954943460197 0.0 0 0 0
99 1 1.0000766451763397 1.0 0 6.36467046439549 -9.758409392282452 0.0 0 0 0
100 1 1.00005876958042 1.0 0 6.557017053098806 -9.775930887333319 0.0 0 0 0
134 1 1.0001463381076312 1.0 0 6.509320112945319 -9.562576506745943 0.0 0 0 0
1666 1 1.0013497215460507 1.0 0 6.223242713360738 -0.08635947813665237 0.0 0 0 0
66 1 0.9999772326576198 1.0 0 6.5716845290814865 -9.985000301132935 0.0 0 0 0
103 1 0.9996192182133813 1.0 0 0.4322922901454134 -9.516904249260179 0.0 0 0 0
6865 1 0.999665472944334 1.0 0 0.2379562377491568 -9.272432438275798 0.0 1 0 0
6832 1 0.9995917451416905 1.0 0 0.22685979770596149 -9.473020019096985 0.0 1 0 0
137 1 0.9996882431989912 1.0 0 0.43449657564907185 -9.325055923170996 0.0 0 0 0
6864 1 0.9996209558690018 1.0 0 0.03496593104105215 -9.27697564777534 0.0 1 0 0
171 1 0.9997673627158241 1.0 0 0.4806815870282145 -9.134667490409385 0.0 0 0 0
104 1 0.9996656334834224 1.0 0 0.6393137566567826 -9.507231148061285 0.0 0 0 0
138 1 0.9997377409958847 1.0 0 0.6417128009411764 -9.308754719364543 0.0 0 0 0
105 1 0.9997094021047964 1.0 0 0.8431144919741406 -9.502503360384287 0.0 0 0 0
139 1 0.9997821339077447 1.0 0 0.8454365932319914 -9.303768897854356 0.0 0 0 0
106 1 0.9997707880738131 1.0 0 1.0439264921219304 -9.446080224321461 0.0 0 0 0
140 1 0.9998443495380752 1.0 0 1.0529134268684646 -9.251390197420426 0.0 0 0 0
107 1 0.9997878918620338 1.0 0 1.2376014322404536 -9.505133853482555 0.0 0 0 0
141 1 0.9998685438507989 1.0 0 1.2504981557554236 -9.293578206422616 0.0 0 0 0
108 1 0.9998503426590425 1.0 0 1.43086210957441 -9.438146713140085 0.0 0 0 0
142 1 0.9999311682676135 1.0 0 1.4491536992724319 -9.231570445860637 0.0 0 0 0
109 1 0.999906294093812 1.0 0 1.631119179449063 -9.390086853353077 0.0 0 0 0
143 1 0.9999845038171519 1.0 0 1.6518582466086247 -9.193697191500195 0.0 0 0 0
110 1 0.999934754262831 1.0 0 1.8313803454279451 -9.411809679342523 0.0 0 0 0
144 1 1.0000155333212042 1.0 0 1.8541996667091283 -9.210057394829482 0.0 0 0 0
111 1 0.9999756504139683 1.0 0 2.035774901267814 -9.398923100707803 0.0 0 0 0
145 1 1.000054670063984 1.0 0 2.058693345002903 -9.202539384344712 0.0 0 0 0
112 1 1.000018086010339 1.0 0 2.243948561061299 -9.379403965420897 0.0 0 0 0
146 1 1.0000971834050705 1.0 0 2.2674648689768317 -9.183984739300186 0.0 0 0 0
80 1 1.000029684464404 1.0 0 2.6383178177318483 -9.507096660759167 0.0 0 0 0
113 1 1.0000602334626367 1.0 0 2.456321296929818 -9.357545612504262 0.0 0 0 0
147 1 1.0001365583460593 1.0 0 2.4807789315771376 -9.170465383876474 0.0 0 0 0
114 1 1.0001067958874605 1.0 0 2.672026808046284 -9.32002116673833 0.0 0 0 0
148 1 1.0001838725148702 1.0 0 2.704418743096961 -9.134851613743248 0.0 0 0 0
81 1 1.000072401252337 1.0 0 2.854195441218822 -9.47277404454136 0.0 0 0 0
115 1 1.0001508449875325 1.0 0 2.887323151711947 -9.282925885944508 0.0 0 0 0
82 1 1.000114283790969 1.0 0 3.06717424257493 -9.43388614685533 0.0 0 0 0
116 1 1.0001940079996283 1.0 0 3.102198310967809 -9.24210475023882 0.0 0 0 0
83 1 1.0001504927699703 1.0 0 3.275709691594939 -9.402180377059409 0.0 0 0 0
117 1 1.0002322327485016 1.0 0 3.31299265454047 -9.206515728996235 0.0 0 0 0
84 1 1.0001742037791386 1.0 0 3.479257490628737 -9.394716704975542 0.0 0 0 0
118 1 1.0002563393841537 1.0 0 3.5167904752326837 -9.198386023635177 0.0 0 0 0
85 1 1.000186849056523 1.0 0 3.679169457907956 -9.40819310648765 0.0 0 0 0
119 1 1.00026892930169 1.0 0 3.7166784454959343 -9.211792596697936 0.0 0 0 0
86 1 1.000187831262929 1.0 0 3.872461938503535 -9.443912094010596 0.0 0 0 0
120 1 1.0002749130169932 1.0 0 3.9112453831887417 -9.234594774670459 0.0 0 0 0
87 1 1.0001808142310569 1.0 0 4.063495419532124 -9.49420514080975 0.0 0 0 0
121 1 1.0002623818137617 1.0 0 4.096268741478485 -9.296505335654372 0.0 0 0 0
88 1 1.0001994815883428 1.0 0 4.261721410587916 -9.475523702355625 0.0 0 0 0
122 1 1.0002905508132849 1.0 0 4.290380172462408 -9.254145335467298 0.0 0 0 0
123 1 1.0002560599729993 1.0 0 4.464713001398466 -9.358000924330536 0.0 0 0 0
157 1 1.0003404813045402 1.0 0 4.4785170368479585 -9.152706560285287 0.0 0 0 0
124 1 1.0002659615208596 1.0 0 4.655171820103664 -9.349853740960205 0.0 0 0 0
158 1 1.0003618268026027 1.0 0 4.665012326104633 -9.11645828907064 0.0 0 0 0
125 1 1.0002594330132497 1.0 0 4.839316445040855 -9.376923302385292 0.0 0 0 0
159 1 1.0003467354377258 1.0 0 4.8457260629574135 -9.16397890807456 0.0 0 0 0
126 1 1.0002388761197656 1.0 0 5.024748927751263 -9.433913824945025 0.0 0 0 0
160 1 1.000322625746618 1.0 0 5.0312515643336315 -9.22936192705853 0.0 0 0 0
127 1 1.0002347922216233 1.0 0 5.212014834948537 -9.445576733093592 0.0 0 0 0
161 1 1.000328494684013 1.0 0 5.2185772252773095 -9.216624236792423 0.0 0 0 0
128 1 1.000225824794863 1.0 0 5.399682655242219 -9.464992419461153 0.0 0 0 0
162 1 1.000307750558796 1.0 0 5.404500717439796 -9.264354400113357 0.0 0 0 0
129 1 1.000204130643575 1.0 0 5.587774980356222 -9.511830549541331 0.0 0 0 0
163 1 1.0002942889351674 1.0 0 5.589389887953673 -9.29057317000867 0.0 0 0 0
130 1 1.000220908279073 1.0 0 5.767050916304757 -9.459935479886429 0.0 0 0 0
164 1 1.0003209588194018 1.0 0 5.756276365840185 -9.216553162120638 0.0 0 0 0
165 1 1.0002761156484876 1.0 0 5.927019983712979 -9.31227567345565 0.0 0 0 0
131 1 1.0001867515631289 1.0 0 5.948858096854667 -9.529383893394918 0.0 0 0 0
132 1 1.0001818300624299 1.0 0 6.137763120196044 -9.522483548284542 0.0 0 0 0
166 1 1.0002691626323934 1.0 0 6.115728172226376 -9.310816833216304 0.0 0 0 0
167 1 1.0002573494563844 1.0 0 6.303534899886467 -9.317805229244206 0.0 0 0 0
133 1 1.0001663361093884 1.0 0 6.3241894211085325 -9.538550025378617 0.0 0 0 0
168 1 1.0002366365946551 1.0 0 6.489732229619655 -9.343154783046238 0.0 0 0 0
4953 1 1.0014456597067052 1.0 0 6.564112529289592 -0.33591620095575364 0.0 0 0 0
4952 1 1.001414779901293 1.0 0 6.3787584649326785 -0.2633398518481356 0.0 0 0 0
202 1 1.0003271885654879 1.0 0 6.4829251673515085 -9.125400129139367 0.0 0 0 0
6898 1 0.999747470407861 1.0 0 0.28457182204123466 -9.073827364033283 0.0 1 0 0
6931 1 0.9998271683396123 1.0 0 0.2989380467292489 -8.865759011382872 0.0 1 0 0
6930 1 0.9997798307317386 1.0 0 0.102507601168629 -8.878870994155411 0.0 1 0 0
6897 1 0.9997017442753056 1.0 0 0.08266693448020314 -9.080702106687301 0.0 1 0 0
172 1 0.999820183127156 1.0 0 0.6851293673175813 -9.109515149956543 0.0 0 0 0
173 1 0.9998647511971076 1.0 0 0.8865652979606359 -9.104168112683473 0.0 0 0 0
205 1 0.9998414280980858 1.0 0 0.48511227829751685 -8.93634712338029 0.0 0 0 0
239 1 0.999923652428722 1.0 0 0.5167913431629324 -8.734101797263797 0.0 0 0 0
206 1 0.9998945119512355 1.0 0 0.6837088416352803 -8.908651643699075 0.0 0 0 0
207 1 0.9999386127799172 1.0 0 0.8853780847849266 -8.906057117287894 0.0 0 0 0
240 1 0.999977018769752 1.0 0 0.7246992745242801 -8.71239119393981 0.0 0 0 0
241 1 1.0000230547397284 1.0 0 0.9312987678499516 -8.708551766871027 0.0 0 0 0
174 1 0.9999244334413749 1.0 0 1.0929386089846214 -9.059614979231126 0.0 0 0 0
208 1 0.9999967478395542 1.0 0 1.092006099469995 -8.867603755462856 0.0 0 0 0
175 1 0.9999556365297118 1.0 0 1.289673567808558 -9.082971751622745 0.0 0 0 0
209 1 1.0000356943897968 1.0 0 1.2984659230295212 -8.8770925986066 0.0 0 0 0
176 1 1.0000174901215846 1.0 0 1.4896802085976657 -9.025400231586968 0.0 0 0 0
210 1 1.0000958069330725 1.0 0 1.504377716660632 -8.828543406271173 0.0 0 0 0
177 1 1.0000665886722253 1.0 0 1.6999589553796086 -9.003413271250448 0.0 0 0 0
211 1 1.0001432776224541 1.0 0 1.7099355366965086 -8.80970236275789 0.0 0 0 0
178 1 1.0001017593961956 1.0 0 1.9018266969389557 -9.009108091890122 0.0 0 0 0
212 1 1.000183021235566 1.0 0 1.912266806900974 -8.804948838406837 0.0 0 0 0
179 1 1.0001392183769546 1.0 0 2.1010610104064646 -9.003875859563095 0.0 0 0 0
213 1 1.0002209427925104 1.0 0 2.1094599323992154 -8.798530714455003 0.0 0 0 0
180 1 1.0001806321099669 1.0 0 2.300291093228155 -8.984510021241194 0.0 0 0 0
214 1 1.000261843554874 1.0 0 2.305490411897921 -8.780136768004134 0.0 0 0 0
181 1 1.0002141088710588 1.0 0 2.502580401623472 -8.982018384498081 0.0 0 0 0
215 1 1.0002916662387569 1.0 0 2.5050000801438013 -8.786946544271329 0.0 0 0 0
149 1 1.0002297305035255 1.0 0 2.927675456284004 -9.09639330927413 0.0 0 0 0
182 1 1.0002582185069528 1.0 0 2.706098216473723 -8.94794500137187 0.0 0 0 0
216 1 1.0003354124924 1.0 0 2.7145274547072638 -8.757250270905063 0.0 0 0 0
183 1 1.0003012448616528 1.0 0 2.910533106156802 -8.911436999898777 0.0 0 0 0
184 1 1.0003448337422742 1.0 0 3.117048794966416 -8.86875667482362 0.0 0 0 0
217 1 1.000379760472169 1.0 0 2.9315044609092213 -8.722706574358886 0.0 0 0 0
150 1 1.0002746670431597 1.0 0 3.1475518107110916 -9.052878866256966 0.0 0 0 0
218 1 1.0004252274344783 1.0 0 3.154117777736871 -8.680746721590067 0.0 0 0 0
151 1 1.0003148846004788 1.0 0 3.361278846652651 -9.013092315755104 0.0 0 0 0
185 1 1.0003869467769237 1.0 0 3.3260590262543643 -8.824843427564632 0.0 0 0 0
152 1 1.0003394587306507 1.0 0 3.568712947977675 -9.004448059876085 0.0 0 0 0
186 1 1.0004149396306 1.0 0 3.5352645406775083 -8.81005427173673 0.0 0 0 0
153 1 1.0003522301319525 1.0 0 3.7693008083201485 -9.017036078236895 0.0 0 0 0
187 1 1.0004302830939436 1.0 0 3.7431367712701658 -8.819716039926984 0.0 0 0 0
154 1 1.0003633598647783 1.0 0 3.961397176918391 -9.025908590360249 0.0 0 0 0
188 1 1.0004469518648373 1.0 0 3.9510016454064694 -8.819302546966284 0.0 0 0 0
155 1 1.000348599226632 1.0 0 4.138845300423133 -9.091063708753067 0.0 0 0 0
189 1 1.0004419416114207 1.0 0 4.144110240621929 -8.863622135953877 0.0 0 0 0
156 1 1.000388779349732 1.0 0 4.316349550289103 -9.017347504668466 0.0 0 0 0
190 1 1.0004814797701 1.0 0 4.3307001563949905 -8.793796918675843 0.0 0 0 0
191 1 1.0004306980630833 1.0 0 4.499315541633707 -8.935775546535089 0.0 0 0 0
225 1 1.0005230494656427 1.0 0 4.51642617572795 -8.714232988098797 0.0 0 0 0
192 1 1.0004604998482682 1.0 0 4.679982306633992 -8.879006145020368 0.0 0 0 0
193 1 1.000436186792077 1.0 0 4.854436572162642 -8.948146429346162 0.0 0 0 0
227 1 1.0005277364346727 1.0 0 4.867067935001236 -8.728651537682811 0.0 0 0 0
194 1 1.0004068113453328 1.0 0 5.036136096879793 -9.025902748279533 0.0 0 0 0
228 1 1.0004939829031054 1.0 0 5.045841935805145 -8.816706033548082 0.0 0 0 0
195 1 1.0004278351170057 1.0 0 5.220496393656897 -8.97734121156272 0.0 0 0 0
229 1 1.000525272931737 1.0 0 5.229809339466376 -8.744324617627203 0.0 0 0 0
196 1 1.0003891091374801 1.0 0 5.39476399046544 -9.068014262407667 0.0 0 0 0
230 1 1.00047552344262 1.0 0 5.401832968156943 -8.861285040486525 0.0 0 0 0
197 1 1.0004001987097755 1.0 0 5.577039618843632 -9.035332365570191 0.0 0 0 0
231 1 1.000512879056891 1.0 0 5.565295751415926 -8.767187639820573 0.0 0 0 0
198 1 1.0004125544937847 1.0 0 5.754262621281973 -8.996303425688449 0.0 0 0 0
232 1 1.000497780372082 1.0 0 5.74547690672201 -8.793654222538388 0.0 0 0 0
199 1 1.0003719337183696 1.0 0 5.925141216602451 -9.081333265589894 0.0 0 0 0
233 1 1.0004749806649917 1.0 0 5.925994624982392 -8.835247108612606 0.0 0 0 0
200 1 1.0003554578524594 1.0 0 6.109825794968321 -9.103456045610228 0.0 0 0 0
234 1 1.0004427779960399 1.0 0 6.101205401382836 -8.895985190177907 0.0 0 0 0
201 1 1.0003490367863208 1.0 0 6.296981060648549 -9.097746353037245 0.0 0 0 0
235 1 1.000442117278878 1.0 0 6.2870802437023565 -8.877236626877668 0.0 0 0 0
236 1 1.0004210919671646 1.0 0 6.47222233638002 -8.903076764167375 0.0 0 0 0
237 1 1.0003841306418595 1.0 0 6.655870019350631 -8.963677359427857 0.0 0 0 0
4986 1 1.0013818112434167 1.0 0 6.591584329992373 -0.13464903169479914 0.0 0 0 0
270 1 1.0005105058762136 1.0 0 6.482330239970961 -8.689753203386555 0.0 0 0 0
6964 1 0.9999079170572932 1.0 0 0.3219066269772889 -8.661974580806993 0.0 1 0 0
6963 1 0.9998601292389863 1.0 0 0.12430127168786957 -8.674567723663325 0.0 1 0 0
7030 1 1.0000625663493152 1.0 0 0.3375223362757305 -8.256504854920893 0.0 1 0 0
6997 1 0.9999870662520511 1.0 0 0.32292154569034487 -8.450694604857837 0.0 1 0 0
7029 1 1.0000141885304785 1.0 0 0.12924532614597337 -8.26226094977656 0.0 1 0 0
6996 1 0.9999382062715416 1.0 0 0.13120217559818326 -8.46832175765514 0.0 1 0 0
273 1 0.9999980221793066 1.0 0 0.5023928737258457 -8.52723902638872 0.0 0 0 0
307 1 1.0000848269853835 1.0 0 0.5411594288877059 -8.318188124970717 0.0 0 0 0
274 1 1.0000441778173839 1.0 0 0.6943348747878069 -8.516389666641015 0.0 0 0 0
275 1 1.0000891851958418 1.0 0 0.8985962858784641 -8.515036631143136 0.0 0 0 0
308 1 1.000128900455805 1.0 0 0.7554242862459435 -8.327186127017658 0.0 0 0 0
242 1 1.0000790496791627 1.0 0 1.1395586577422305 -8.677463343944897 0.0 0 0 0
243 1 1.0001218384091306 1.0 0 1.3395693139197273 -8.674101080058591 0.0 0 0 0
309 1 1.0001774955545242 1.0 0 0.9723264869504593 -8.324310130622289 0.0 0 0 0
276 1 1.0001449147298818 1.0 0 1.1119547350408994 -8.488780816712321 0.0 0 0 0
277 1 1.0001954952122718 1.0 0 1.3318304795604432 -8.477227553856087 0.0 0 0 0
310 1 1.000232573952079 1.0 0 1.1920453218058682 -8.30344901806 0.0 0 0 0
311 1 1.0002842951692048 1.0 0 1.409558881424367 -8.287419251321106 0.0 0 0 0
244 1 1.0001789987651262 1.0 0 1.5414492421101949 -8.631955072241187 0.0 0 0 0
278 1 1.0002547636330306 1.0 0 1.5564571057476142 -8.442633764852866 0.0 0 0 0
245 1 1.000225604089239 1.0 0 1.748696286391674 -8.616624231879786 0.0 0 0 0
279 1 1.0003056233977141 1.0 0 1.7777831196187797 -8.424251093537025 0.0 0 0 0
312 1 1.000341056124461 1.0 0 1.6311979728145716 -8.257288852644614 0.0 0 0 0
246 1 1.0002693532598799 1.0 0 1.9520527361303757 -8.602421797227592 0.0 0 0 0
280 1 1.0003544644240057 1.0 0 1.9911393407983613 -8.402353258169287 0.0 0 0 0
247 1 1.000309961648413 1.0 0 2.150703074696689 -8.59001667537648 0.0 0 0 0
281 1 1.0003985818470955 1.0 0 2.1927640217513464 -8.38263874441361 0.0 0 0 0
248 1 1.000348799075767 1.0 0 2.3486702213359396 -8.577695997388894 0.0 0 0 0
282 1 1.0004346724640296 1.0 0 2.392321075443658 -8.37803875250718 0.0 0 0 0
249 1 1.0003757015572707 1.0 0 2.548079509059434 -8.591676400058448 0.0 0 0 0
283 1 1.0004601536870465 1.0 0 2.592131025742753 -8.395625772256553 0.0 0 0 0
250 1 1.000417276245247 1.0 0 2.758226266311388 -8.567525235306286 0.0 0 0 0
284 1 1.0004994666378293 1.0 0 2.800507264598983 -8.3761685647883 0.0 0 0 0
251 1 1.000460172854515 1.0 0 2.97503862680625 -8.536325436635536 0.0 0 0 0
285 1 1.0005408714509976 1.0 0 3.011475721007107 -8.346434977748316 0.0 0 0 0
252 1 1.000504790809554 1.0 0 3.1948880635868444 -8.495222341240895 0.0 0 0 0
286 1 1.000584479934966 1.0 0 3.220645054280963 -8.304261415575663 0.0 0 0 0
219 1 1.0004693680935817 1.0 0 3.378667727423578 -8.63576511276673 0.0 0 0 0
253 1 1.0005503686272426 1.0 0 3.4089397935493766 -8.443391628564882 0.0 0 0 0
287 1 1.000631796708724 1.0 0 3.4230927311380284 -8.244713997433186 0.0 0 0 0
220 1 1.000498567384999 1.0 0 3.590439075400785 -8.617807434585371 0.0 0 0 0
254 1 1.0005810177133199 1.0 0 3.61270431675342 -8.419850957316413 0.0 0 0 0
221 1 1.00051240067024 1.0 0 3.7945499595031777 -8.629423314180071 0.0 0 0 0
222 1 1.0005329154819713 1.0 0 3.992819131032098 -8.617230034915693 0.0 0 0 0
255 1 1.0005936149834136 1.0 0 3.8136257137891656 -8.434187947803794 0.0 0 0 0
256 1 1.0006201138449495 1.0 0 4.00856410654021 -8.407007329229508 0.0 0 0 0
223 1 1.0005372494834541 1.0 0 4.178174302235974 -8.637023573913726 0.0 0 0 0
257 1 1.0006345675550914 1.0 0 4.194015333833214 -8.40255984047077 0.0 0 0 0
224 1 1.0005775059750854 1.0 0 4.357757431573892 -8.564596013607936 0.0 0 0 0
258 1 1.0006686069263615 1.0 0 4.377433437262107 -8.345505134754973 0.0 0 0 0
226 1 1.0005595739791584 1.0 0 4.696557657079989 -8.641604924852356 0.0 0 0 0
259 1 1.000618577814699 1.0 0 4.5436760538716765 -8.4860753451725 0.0 0 0 0
293 1 1.0007151511910675 1.0 0 4.557344789619963 -8.252561102626151 0.0 0 0 0
260 1 1.0006606738436037 1.0 0 4.717819409710687 -8.39931136025996 0.0 0 0 0
261 1 1.0006197736110671 1.0 0 4.881810016869455 -8.508314025486166 0.0 0 0 0
295 1 1.0007166932409106 1.0 0 4.884676978316604 -8.274419949029372 0.0 0 0 0
262 1 1.0005836862159194 1.0 0 5.060032330189412 -8.602002226381314 0.0 0 0 0
296 1 1.000676994581992 1.0 0 5.058494677303337 -8.37784232277119 0.0 0 0 0
263 1 1.0006256010187047 1.0 0 5.23469728757531 -8.50443137607704 0.0 0 0 0
297 1 1.0007242371899032 1.0 0 5.223749727667513 -8.267393908293139 0.0 0 0 0
264 1 1.0005725126320337 1.0 0 5.399406439557435 -8.630292928430329 0.0 0 0 0
298 1 1.000674788217285 1.0 0 5.39682469799374 -8.385879750141243 0.0 0 0 0
265 1 1.0006162444596698 1.0 0 5.563818655885093 -8.521381412779212 0.0 0 0 0
299 1 1.0007107373507143 1.0 0 5.569494701557141 -8.295325436404477 0.0 0 0 0
266 1 1.000583845128477 1.0 0 5.742512637166311 -8.589549217802718 0.0 0 0 0
300 1 1.0006721767352238 1.0 0 5.752462073879882 -8.37870307404776 0.0 0 0 0
267 1 1.00057560883382 1.0 0 5.9310808348210715 -8.595825049942679 0.0 0 0 0
301 1 1.0006700869243503 1.0 0 5.9418264274986745 -8.370495643309452 0.0 0 0 0
268 1 1.0005336081183294 1.0 0 6.1033831278358655 -8.680146151734926 0.0 0 0 0
302 1 1.0006270732481122 1.0 0 6.1140865575533745 -8.457575334877951 0.0 0 0 0
269 1 1.0005332841554189 1.0 0 6.292514738249694 -8.660407871805488 0.0 0 0 0
303 1 1.0006240538474347 1.0 0 6.300190507549168 -8.44468269750642 0.0 0 0 0
304 1 1.0005998988733122 1.0 0 6.485592540229549 -8.478122874325734 0.0 0 0 0
4985 1 1.0013457242813186 1.0 0 6.417765807527891 -0.048263337386190916 0.0 0 0 0
339 1 1.000654504858832 1.0 0 6.635768811276052 -8.327514291767402 0.0 0 0 0
338 1 1.0006986628628247 1.0 0 6.458597485674613 -8.247863630430581 0.0 0 0 0
7096 1 1.0001875600714718 1.0 0 0.26298241131972677 -7.8724195136886905 0.0 1 0 0
7063 1 1.0001248539751033 1.0 0 0.2968272121784134 -8.064170554282601 0.0 1 0 0
7062 1 1.0000785411140998 1.0 0 0.09151216342419635 -8.065180790445888 0.0 1 0 0
7095 1 1.0001412372502008 1.0 0 0.05312779845470909 -7.870398654569385 0.0 1 0 0
375 1 1.0002234894587212 1.0 0 0.4745754113989954 -7.904348993081021 0.0 0 0 0
341 1 1.0001550144529936 1.0 0 0.5030909990585773 -8.1073093100985 0.0 0 0 0
342 1 1.000188643295893 1.0 0 0.6995123537162731 -8.13447892601547 0.0 0 0 0
343 1 1.0002316869058199 1.0 0 0.8994549427925465 -8.137863697465143 0.0 0 0 0
376 1 1.0002594021337083 1.0 0 0.6841197918223602 -7.934360563360776 0.0 0 0 0
377 1 1.00030419588608 1.0 0 0.895777108214653 -7.9406948634402825 0.0 0 0 0
344 1 1.0002817099866843 1.0 0 1.099950310211641 -8.121147404638046 0.0 0 0 0
378 1 1.0003566876517977 1.0 0 1.1091604176704708 -7.925369524547543 0.0 0 0 0
345 1 1.0003300423961585 1.0 0 1.3050209801891108 -8.109335000181062 0.0 0 0 0
379 1 1.0004071315742358 1.0 0 1.3206403224697834 -7.912001762844897 0.0 0 0 0
346 1 1.0003809168592732 1.0 0 1.5118587616927035 -8.088997428193588 0.0 0 0 0
380 1 1.000457983567489 1.0 0 1.5344652053831451 -7.895922225555267 0.0 0 0 0
347 1 1.0004326556860859 1.0 0 1.7275008397464895 -8.067581841588735 0.0 0 0 0
381 1 1.0005099853678678 1.0 0 1.7548818585306065 -7.876649738119603 0.0 0 0 0
313 1 1.0003936295624318 1.0 0 1.8489881494981726 -8.231807707780321 0.0 0 0 0
348 1 1.0004920541901083 1.0 0 1.945153451106252 -8.022351134299406 0.0 0 0 0
382 1 1.0005689872447983 1.0 0 1.9562167610230634 -7.824082739737423 0.0 0 0 0
314 1 1.0004453510996298 1.0 0 2.0519604957219233 -8.196731134360817 0.0 0 0 0
315 1 1.0004887787554269 1.0 0 2.250908674149701 -8.177015428267918 0.0 0 0 0
349 1 1.000544640952474 1.0 0 2.1621007389491314 -7.990132328022522 0.0 0 0 0
316 1 1.0005211669213494 1.0 0 2.4511278272595995 -8.181745182232982 0.0 0 0 0
350 1 1.000583817021381 1.0 0 2.3811161424577807 -7.988799189713693 0.0 0 0 0
317 1 1.0005467597493234 1.0 0 2.648203499829802 -8.197533009963982 0.0 0 0 0
351 1 1.0006156496003755 1.0 0 2.593629333161578 -7.9975990401900265 0.0 0 0 0
318 1 1.0005838622898606 1.0 0 2.8468102778050457 -8.179352029211557 0.0 0 0 0
352 1 1.0006514292599185 1.0 0 2.7960182770642628 -7.986180656555128 0.0 0 0 0
319 1 1.000623742645421 1.0 0 3.0443787869714134 -8.148260239476238 0.0 0 0 0
353 1 1.0006920079399488 1.0 0 2.9936975937155896 -7.955177976368503 0.0 0 0 0
354 1 1.0007330220197508 1.0 0 3.18884035188305 -7.91656030490353 0.0 0 0 0
320 1 1.0006657432860704 1.0 0 3.241122922826791 -8.105846114215739 0.0 0 0 0
321 1 1.0007143955055453 1.0 0 3.430445085544186 -8.038702262635699 0.0 0 0 0
355 1 1.000783784910797 1.0 0 3.372308700631002 -7.843529949484117 0.0 0 0 0
356 1 1.0008153868164051 1.0 0 3.5651867076919603 -7.817520172204738 0.0 0 0 0
289 1 1.0006734898862306 1.0 0 3.8191165312264723 -8.237926218381707 0.0 0 0 0
288 1 1.000662582618107 1.0 0 3.620508454338452 -8.219398964990027 0.0 0 0 0
322 1 1.0007431814524475 1.0 0 3.625684365914717 -8.018136789015283 0.0 0 0 0
357 1 1.0008259749167872 1.0 0 3.7666654029987945 -7.842008804381788 0.0 0 0 0
290 1 1.0007085052934803 1.0 0 4.009654281342398 -8.189210092617738 0.0 0 0 0
323 1 1.0007537149835277 1.0 0 3.8251977830618062 -8.03889543647072 0.0 0 0 0
324 1 1.0007995662069495 1.0 0 3.997979763851355 -7.9593718958240665 0.0 0 0 0
291 1 1.000726810271889 1.0 0 4.193699341437339 -8.175770008268108 0.0 0 0 0
325 1 1.0008150684252097 1.0 0 4.181253895536373 -7.953703107279317 0.0 0 0 0
292 1 1.0007555279004217 1.0 0 4.3786282707222375 -8.131962612509211 0.0 0 0 0
326 1 1.0008406109930181 1.0 0 4.365220194178713 -7.918171967491355 0.0 0 0 0
327 1 1.0008107145495604 1.0 0 4.543799790053487 -8.01565655852247 0.0 0 0 0
294 1 1.0007619587751428 1.0 0 4.724861610011614 -8.153205481337146 0.0 0 0 0
328 1 1.000853422557934 1.0 0 4.70905453560264 -7.925676291199376 0.0 0 0 0
329 1 1.000819874322664 1.0 0 4.886762519076935 -8.022056670200218 0.0 0 0 0
330 1 1.0007735729950717 1.0 0 5.043645274858801 -8.14334810644182 0.0 0 0 0
364 1 1.0008825214279058 1.0 0 5.019274945499096 -7.8739910808320746 0.0 0 0 0
331 1 1.000821242631222 1.0 0 5.199778889187519 -8.031022834942746 0.0 0 0 0
365 1 1.0009104530575974 1.0 0 5.193014309693094 -7.810461271537871 0.0 0 0 0
332 1 1.0007741993477983 1.0 0 5.3786926168205245 -8.146695710276628 0.0 0 0 0
366 1 1.0008714032718469 1.0 0 5.362519520975175 -7.909337644264338 0.0 0 0 0
333 1 1.0008011465606383 1.0 0 5.555059988137748 -8.077902812457681 0.0 0 0 0
367 1 1.0008876956333037 1.0 0 5.541742727752506 -7.866604977151948 0.0 0 0 0
334 1 1.0007638284612477 1.0 0 5.738370022270038 -8.160222735032102 0.0 0 0 0
368 1 1.0008564158075237 1.0 0 5.722774591189654 -7.936780953346907 0.0 0 0 0
335 1 1.000764511088596 1.0 0 5.924752827484527 -8.146253388679185 0.0 0 0 0
369 1 1.0008538142570622 1.0 0 5.907273013903061 -7.9317631127429955 0.0 0 0 0
336 1 1.0007288630646793 1.0 0 6.097648009739495 -8.21694935147101 0.0 0 0 0
370 1 1.0008313255132244 1.0 0 6.085238356994415 -7.9717019611523705 0.0 0 0 0
337 1 1.0007159517374462 1.0 0 6.276309368872862 -8.229198722508052 0.0 0 0 0
371 1 1.0008089000273623 1.0 0 6.260608053556968 -8.00807158756803 0.0 0 0 0
372 1 1.000794358932854 1.0 0 6.442786249970808 -8.021167364342356 0.0 0 0 0
373 1 1.0007499260007342 1.0 0 6.620444091796456 -8.102936395353245 0.0 0 0 0
407 1 1.0008438808244933 1.0 0 6.605772532139025 -7.879320587999155 0.0 0 0 0
7129 1 1.0002437547160534 1.0 0 0.20942281519712527 -7.6839173638534 0.0 1 0 0
409 1 1.0002841673139002 1.0 0 0.4226389211348248 -7.705455394030925 0.0 0 0 0
443 1 1.000345306511216 1.0 0 0.38528502017361094 -7.510533823192307 0.0 0 0 0
7162 1 1.000302591311948 1.0 0 0.1719153187662922 -7.494757729157126 0.0 1 0 0
410 1 1.000320029205123 1.0 0 0.6303270698959226 -7.73579385888513 0.0 0 0 0
444 1 1.0003833561989666 1.0 0 0.5954661531489195 -7.537436779071392 0.0 0 0 0
411 1 1.0003611745050238 1.0 0 0.8332873034163619 -7.747867191139064 0.0 0 0 0
445 1 1.0004261665990306 1.0 0 0.8021616280327232 -7.548080959740016 0.0 0 0 0
412 1 1.0004085953234774 1.0 0 1.0359633377347321 -7.741093751133872 0.0 0 0 0
446 1 1.0004727115796639 1.0 0 1.011128078216942 -7.548401828585466 0.0 0 0 0
413 1 1.0004595969536692 1.0 0 1.2386494103827164 -7.72242396511106 0.0 0 0 0
447 1 1.0005272097282383 1.0 0 1.2144848481578447 -7.520632340504316 0.0 0 0 0
414 1 1.0005066567464478 1.0 0 1.4408255658831417 -7.711851292200907 0.0 0 0 0
448 1 1.0005736355276238 1.0 0 1.4200482583050484 -7.514439037986682 0.0 0 0 0
415 1 1.0005508824826956 1.0 0 1.6481189704118169 -7.708654287555281 0.0 0 0 0
449 1 1.0006179251918577 1.0 0 1.6322168295743793 -7.514936244528379 0.0 0 0 0
383 1 1.0006176729855498 1.0 0 2.154242364985313 -7.793065297139997 0.0 0 0 0
450 1 1.0006790902534164 1.0 0 1.8310436466285265 -7.456491999819544 0.0 0 0 0
416 1 1.0006120046317108 1.0 0 1.8501396434540691 -7.652501965271868 0.0 0 0 0
417 1 1.0006674976074204 1.0 0 2.060576473932066 -7.611920349316813 0.0 0 0 0