ITEM: TIMESTEP
33500
ITEM: NUMBER OF ATOMS
32000
ITEM: BOX BOUNDS pp pp pp
0.0000000000000000e+00 3.1748021039364001e+01
0.0000000000000000e+00 3.1748021039364001e+01
0.0000000000000000e+00 3.1748021039364001e+01
ITEM: ATOMS id x y z c_phase c_nbond c_rho v_omega
4 0.214101 1.10659 0.46664 0 0 1.0009 3.05218e-06
83 1.13337 1.57101 0.777983 0 0 1.0009 5.0263e-06
842 0.788487 0.72512 1.40217 0 0 1.0009 3.58682e-06
921 0.170723 1.61942 1.377 0 0 1.0009 3.67134e-06
3 0.720928 0.00559308 0.618023 0 0 1.0009 2.58084e-06
8 1.78249 0.652518 1.01145 0 0 1.0009 4.56637e-06
85 1.95367 1.30142 0.206351 0 0 1.0009 5.9e-06
925 1.99778 1.45483 1.73966 0 0 1.0009 6.14034e-06
6 2.57756 0.48623 0.191293 0 0 1.0009 5.29867e-06
87 2.80182 1.2681 0.862451 0 0 1.0009 6.92164e-06
846 2.74706 0.548262 1.72601 0 0 1.0009 5.43215e-06
12 3.50856 0.572893 0.950819 0 0 1.0009 6.43275e-06
929 3.7879 1.33306 1.69369 0 0 1.0009 8.19926e-06
10 4.18881 0.452452 0.304701 0 0 1.0009 6.54509e-06
850 4.41012 0.50725 1.62348 0 0 1.0009 7.21971e-06
91 4.21515 1.42005 0.711104 0 0 1.0009 9.05468e-06
16 5.02574 0.103942 1.13084 0 0 1.0009 6.18619e-06
93 5.10404 1.13186 0.372727 0 0 1.0009 8.98033e-06
14 5.71257 0.148634 0.298571 0 0 1.0009 6.78552e-06
95 6.03303 0.797459 0.94819 0 0 1.00091 8.4669e-06
933 5.21243 1.20785 1.43496 0 0 1.00091 9.48837e-06
934 6.13174 1.66777 1.48243 0 0 1.0009 1.13052e-05
97 6.73889 0.864241 0.213615 0 0 1.0009 8.76319e-06
937 6.80097 0.463482 1.68852 0 0 1.0009 7.65807e-06
99 7.51822 0.671686 0.946437 0 0 1.0009 8.35057e-06
941 8.32301 0.683196 1.61621 0 0 1.0009 8.84857e-06
18 7.64289 0.101951 0.15149 0 0 1.0009 6.423e-06
938 7.59773 1.47754 1.56041 0 0 1.0009 1.15021e-05
100 6.85209 1.62728 0.781901 0 0 1.0009 1.16044e-05
98 7.76337 1.65075 0.128508 0 0 1.0009 1.19158e-05
101 8.43535 0.833575 0.222903 0 0 1.0009 8.83287e-06
103 9.1968 0.758368 1.08307 0 0 1.0009 8.36184e-06
945 9.74372 0.435876 1.75721 0 0 1.0009 6.45315e-06
105 9.83679 0.823486 0.111811 0 0 1.0009 8.00298e-06
102 9.24422 1.545 0.237805 0 0 1.0009 1.15455e-05
104 8.43446 1.60445 0.936162 0 0 1.0009 1.19965e-05
942 9.40834 1.62432 1.72165 0 0 1.0009 1.26068e-05
108 10.1159 1.48427 1.08295 0 0 1.0009 1.10047e-05
107 10.5338 0.564222 0.83552 0 0 1.0009 6.66409e-06
949 11.4763 0.568598 1.41689 0 0 1.0009 6.1593e-06
946 10.8879 1.20461 1.72417 0 0 1.0009 9.85366e-06
112 11.5165 1.39773 0.780616 0 0 1.0009 1.02197e-05
106 10.6612 1.59855 0.189918 0 0 1.0009 1.14315e-05
111 12.2278 0.704998 0.519617 0 0 1.0009 6.05408e-06
953 12.9623 0.860078 1.3749 0 0 1.0009 6.36192e-06
950 12.3229 1.53832 1.45974 0 0 1.00091 1.04959e-05
116 13.0921 1.63988 0.611789 0 0 1.0009 1.02873e-05
40 14.434 0.185708 0.782673 0 0 1.0009 1.84928e-06
115 13.8132 0.902978 0.833423 0 0 1.0009 5.73244e-06
117 14.3928 1.36356 0.144558 0 0 1.0009 7.84158e-06
874 13.6665 0.118468 1.63413 0 0 1.0009 2.08393e-06
957 14.6222 1.03868 1.48198 0 0 1.0009 5.96954e-06
954 13.8213 1.75815 1.4671 0 0 1.0009 1.03538e-05
119 15.217 1.47836 0.66849 0 0 1.0009 7.74822e-06
44 15.8813 0.767986 0.789976 0 0 1.0009 3.80656e-06
878 15.2317 0.413322 1.63607 0 0 1.0009 2.05233e-06
882 16.7036 0.821418 1.35088 0 0 1.0009 3.74657e-06
961 15.9732 1.50795 1.41206 0 0 1.0009 8.08035e-06
38 15.235 0.640929 0.0727866 0 0 1.0009 3.05275e-06
123 16.8948 1.67872 0.694009 0 0 1.0009 8.31664e-06
48 17.4304 0.924082 0.564367 0 0 1.0009 4.12241e-06
886 18.0993 1.03014 1.42558 0 0 1.0009 5.26139e-06
47 18.1523 0.213824 0.693305 0 0 1.0009 1.20438e-06
885 17.2874 0.0322059 1.3989 0 0 1.0009 3.35378e-08
51 19.5557 0.412648 0.678663 0 0 1.0009 2.61119e-06
52 18.9549 1.09821 0.696205 0 0 1.0009 5.58571e-06
889 19.0456 0.532527 1.55293 0 0 1.0009 2.60359e-06
890 19.8481 1.4079 1.69462 0 0 1.0009 8.41716e-06
55 21.2171 0.870826 1.07797 0 0 1.00091 5.45063e-06
56 20.4275 1.25193 0.957214 0 0 1.0009 7.04396e-06
54 21.3592 1.31567 0.211594 0 0 1.00091 8.04628e-06
893 20.4421 0.372205 1.4228 0 0 1.00091 3.79481e-06
53 20.2818 0.355534 0.066756 0 0 1.0009 3.51733e-06
57 22.1075 0.863785 0.538932 0 0 1.00091 6.25717e-06
59 22.9265 1.02532 1.40539 0 0 1.0009 7.11869e-06
58 23.1024 1.66951 0.472269 0 0 1.0009 9.48171e-06
17538 22.7599 0.163917 0.463581 0 0 1.0009 3.34228e-06
63 24.3689 0.988223 1.41322 0 0 1.0009 7.37219e-06
61 23.6633 0.944117 0.56318 0 0 1.0009 6.91177e-06
65 25.0537 0.896773 0.526862 0 0 1.0009 6.83969e-06
17544 23.5303 0.103558 1.24679 0 0 1.0009 4.04269e-06
17542 24.3448 0.0880893 0.593111 0 0 1.0009 4.16786e-06
67 26.0754 0.919696 1.15849 0 0 1.0009 6.3875e-06
68 25.3693 1.73343 1.44358 0 0 1.0009 9.39441e-06
66 26.0519 1.51194 0.418231 0 0 1.0009 8.02029e-06
17548 25.1754 0.345299 1.35035 0 0 1.0009 5.28415e-06
17546 25.9095 0.0614946 0.333526 0 0 1.0009 4.18531e-06
70 27.7564 1.72557 0.381097 0 0 1.0009 6.62889e-06
71 27.6898 0.939655 0.868394 0 0 1.0009 5.24648e-06
72 26.8995 1.53929 1.24674 0 0 1.0009 7.29658e-06
69 26.8416 0.743513 0.242465 0 0 1.0009 5.48911e-06
17552 27.0906 0.150458 0.999106 0 0 1.0009 3.91156e-06
17556 28.3484 0.0530075 0.731157 0 0 1.0009 2.77261e-06
913 28.4414 0.726658 1.41316 0 0 1.0009 4.00389e-06
76 28.7922 1.57984 0.729102 0 0 1.0009 4.9207e-06
914 29.49 1.24707 1.56431 0 0 1.0009 3.70714e-06
917 29.8416 0.400035 1.45317 0 0 1.0009 1.93064e-06
75 29.3162 0.636932 0.616667 0 0 1.0009 2.73236e-06
841 31.6055 0.303349 1.25568 0 0 1.0009 -4.42769e-07
79 30.7568 0.611731 0.477508 0 0 1.0009 9.45402e-07
80 30.2235 1.39406 0.769221 0 0 1.0009 2.62578e-06
918 30.9591 1.09142 1.38086 0 0 1.0009 1.36431e-06
82 1.34944 2.31642 0.111906 0 0 1.0009 6.48526e-06
84 0.375295 2.37973 0.802992 0 0 1.0009 4.89556e-06
163 1.59542 3.06833 0.934802 0 0 1.0009 8.02437e-06
922 1.37563 2.23537 1.58365 0 0 1.0009 6.51754e-06
1001 0.683227 3.00367 1.54726 0 0 1.0009 6.06628e-06
161 0.633518 3.08122 0.124353 0 0 1.0009 6.03825e-06
88 2.15436 2.20084 0.779945 0 0 1.0009 7.53631e-06
167 2.99323 2.97249 0.850284 0 0 1.0009 1.05697e-05
926 2.91531 1.94796 1.53396 0 0 1.0009 8.47977e-06
86 2.97025 2.0952 0.0475584 0 0 1.0009 8.79038e-06
1005 2.41541 2.84976 1.74149 0 0 1.0009 9.14476e-06
1009 3.64243 3.01906 1.63995 0 0 1.0009 1.21177e-05
92 3.65985 2.19179 0.780617 0 0 1.0009 1.01152e-05
171 4.5675 2.86798 0.75606 0 0 1.0009 1.28411e-05
930 4.45412 2.19768 1.57905 0 0 1.0009 1.1206e-05
96 5.21186 2.07041 0.81832 0 0 1.0009 1.18335e-05
94 5.95909 1.91361 0.142178 0 0 1.00091 1.20274e-05
175 6.07011 2.64399 0.951904 0 0 1.0009 1.45662e-05
173 5.37609 2.80445 0.0171991 0 0 1.0009 1.41996e-05
174 6.25084 3.34965 0.163389 0 0 1.0009 1.72962e-05
176 5.39199 3.47642 1.12993 0 0 1.0009 1.62471e-05
1017 6.96699 2.46141 1.53641 0 0 1.0009 1.48828e-05
177 7.02143 2.37065 0.117035 0 0 1.0009 1.41801e-05
179 7.84813 2.4454 0.88672 0 0 1.0009 1.53581e-05
180 7.0257 3.17436 0.784283 0 0 1.0009 1.74528e-05
1018 7.99163 3.21416 1.49811 0 0 1.0009 1.90318e-05
1021 8.66387 2.36922 1.63394 0 0 1.0009 1.56539e-05
181 8.72932 2.37233 0.0341768 0 0 1.0009 1.50421e-05
183 9.42429 2.37112 0.930748 0 0 1.0009 1.58178e-05
1022 9.71957 3.13705 1.50055 0 0 1.0009 2.06376e-05
184 8.80683 3.22261 0.701387 0 0 1.0009 1.92405e-05
182 9.62771 3.25811 0.0449942 0 0 1.0009 2.01511e-05
185 10.0777 2.36276 0.203253 0 0 1.0009 1.55496e-05
188 10.5125 3.02082 0.873103 0 0 1.00091 1.91004e-05
187 11.1377 2.29167 0.918625 0 0 1.0009 1.47898e-05
1026 11.3816 3.0736 1.59454 0 0 1.0009 1.97392e-05
186 11.2977 3.29863 0.167249 0 0 1.0009 2.03195e-05
1025 10.5615 2.14858 1.75506 0 0 1.00091 1.46808e-05
1029 12.0168 2.39611 1.60475 0 0 1.00091 1.61781e-05
192 12.1107 3.18045 0.818793 0 0 1.0009 2.02823e-05
191 12.4819 2.28197 0.74783 0 0 1.0009 1.52148e-05
196 13.2153 3.27872 0.818954 0 0 1.00091 2.09069e-05
1033 13.5099 2.68122 1.69546 0 0 1.00091 1.66293e-05
195 13.8777 2.77948 0.842684 0 0 1.00091 1.68576e-05
120 14.5732 2.2642 0.921581 0 0 1.0009 1.30691e-05
1037 14.8144 3.19725 1.55484 0 0 1.00091 1.92503e-05
197 14.8367 3.07166 0.041809 0 0 1.0009 1.76081e-05
114 13.9039 2.06032 0.0405943 0 0 1.0009 1.27007e-05
194 14.0274 3.47672 0.0247124 0 0 1.0009 2.10635e-05
199 15.4942 3.346 0.868801 0 0 1.0009 1.95193e-05
958 15.3569 2.25803 1.45482 0 0 1.0009 1.33025e-05
118 15.4152 2.422 0.124079 0 0 1.0009 1.34156e-05
124 16.2489 2.46974 0.707823 0 0 1.0009 1.32538e-05
1041 16.1671 3.2886 1.51154 0 0 1.0009 1.91807e-05
201 16.311 3.27735 0.0116221 0 0 1.0009 1.86513e-05
962 16.9069 2.59938 1.53724 0 0 1.0009 1.46372e-05
127 18.2947 1.88699 0.749472 0 0 1.0009 9.69762e-06
203 17.0545 3.32925 0.669306 0 0 1.0009 1.89372e-05
965 17.6346 1.94622 1.5625 0 0 1.0009 1.01364e-05
128 17.6228 2.56598 0.671886 0 0 1.0009 1.38068e-05
1045 17.8086 3.35302 1.50455 0 0 1.0009 1.88001e-05
969 19.0317 1.88627 1.49808 0 0 1.0009 1.03476e-05
207 18.6058 3.25814 0.719334 0 0 1.0009 1.77224e-05
966 18.5918 2.75265 1.60293 0 0 1.0009 1.54502e-05
131 19.8868 2.00488 0.841817 0 0 1.0009 1.05414e-05
129 19.2235 1.96504 0.0150029 0 0 1.0009 9.94927e-06
132 19.4342 2.80419 1.01861 0 0 1.0009 1.54986e-05
209 19.5366 3.4544 0.194243 0 0 1.0009 1.91053e-05
130 20.1194 2.79289 0.11269 0 0 1.0009 1.50082e-05
133 20.6832 2.02284 0.202909 0 0 1.0009 1.09416e-05
135 21.4415 2.19015 0.956002 0 0 1.0009 1.20618e-05
973 20.7314 2.30069 1.74436 0 0 1.0009 1.32122e-05
134 21.6769 3.02043 0.4612 0 0 1.00091 1.58592e-05
136 20.7575 2.98203 1.07911 0 0 1.0009 1.65305e-05
60 22.3758 1.7729 1.32925 0 0 1.00091 1.0526e-05
137 22.3171 2.22344 0.501202 0 0 1.00091 1.20839e-05
139 23.2917 2.70671 1.50426 0 0 1.0009 1.40991e-05
140 22.5537 3.14771 1.22755 0 0 1.00091 1.6849e-05
62 24.6391 1.78132 0.731859 0 0 1.0009 9.58142e-06
138 23.4195 3.28325 0.720508 0 0 1.00091 1.59088e-05
64 23.7401 1.85715 1.37935 0 0 1.0009 1.05411e-05
141 24.0263 2.46877 0.617217 0 0 1.0009 1.21963e-05
143 24.7657 2.6328 1.56274 0 0 1.0009 1.29176e-05
142 24.7768 3.34579 0.762765 0 0 1.0009 1.50706e-05
147 26.2033 2.323 1.35461 0 0 1.0009 1.03722e-05
145 25.43 2.46191 0.532005 0 0 1.0009 1.1314e-05
146 26.1826 3.2146 0.690135 0 0 1.0009 1.28215e-05
148 25.565 3.22101 1.51587 0 0 1.0009 1.36985e-05
149 26.8109 2.31928 0.507564 0 0 1.0009 9.22416e-06
152 26.8872 3.14197 1.52235 0 0 1.0009 1.16748e-05
151 27.7495 2.44657 1.22018 0 0 1.0009 8.12905e-06
150 27.438 3.20074 0.623645 0 0 1.0009 1.04088e-05
153 28.5108 2.48752 0.341215 0 0 1.0009 7.03247e-06
156 28.5803 3.16306 1.18596 0 0 1.0009 8.39164e-06
993 28.7247 2.10875 1.50369 0 0 1.0009 6.24163e-06
155 29.6553 2.30626 0.874792 0 0 1.0009 4.88849e-06
154 29.4908 2.99578 0.281692 0 0 1.00091 6.24397e-06
997 30.1724 2.0346 1.69659 0 0 1.0009 4.02502e-06
159 31.1193 2.08469 0.917835 0 0 1.0009 2.27502e-06
160 30.4605 2.89994 0.991051 0 0 1.0009 4.06885e-06
239 31.3651 3.43632 0.966262 0 0 1.0009 3.3422e-06
998 31.2685 2.79137 1.72318 0 0 1.0009 2.87206e-06
237 30.4627 3.45517 0.152975 0 0 1.00091 5.12172e-06
157 30.602 2.07748 0.0331413 0 0 1.0009 3.08123e-06
158 31.4098 2.74038 0.0739445 0 0 1.0009 2.39597e-06
164 0.658408 3.75256 0.910195 0 0 1.0009 6.71982e-06
241 0.567692 4.59605 0.461512 0 0 1.0009 7.27013e-06
243 1.56341 4.50249 0.975905 0 0 1.0009 9.81002e-06
162 1.41707 3.73765 0.0678855 0 0 1.0009 8.22163e-06
244 0.573221 5.24945 1.27176 0 0 1.0009 8.01907e-06
168 2.256 3.81071 0.8496 0 0 1.0009 1.03073e-05
247 3.01414 4.53034 1.11339 0 0 1.0009 1.35028e-05
166 3.07451 3.81924 0.189417 0 0 1.0009 1.2347e-05
245 2.35266 4.7006 0.276311 0 0 1.0009 1.17716e-05
246 3.20739 5.2292 0.269728 0 0 1.0009 1.48747e-05
248 2.05439 5.28559 1.35655 0 0 1.0009 1.21715e-05
249 3.9102 4.428 0.169495 0 0 1.0009 1.55046e-05
172 3.90666 3.6715 0.881054 0 0 1.0009 1.34657e-05
251 4.59832 4.37478 1.14955 0 0 1.0009 1.71939e-05
170 4.70383 3.69112 0.138634 0 0 1.0009 1.52856e-05
250 4.77431 4.94005 0.312227 0 0 1.0009 1.87881e-05
252 3.68794 5.19753 1.26823 0 0 1.0009 1.67692e-05
253 5.55223 4.17596 0.316886 0 0 1.0009 1.85592e-05
255 6.30348 4.08958 1.0186 0 0 1.0009 1.99287e-05
254 6.40691 4.76592 0.261251 0 0 1.0009 2.22191e-05
256 5.56473 4.84413 1.26495 0 0 1.0009 2.07822e-05
1097 7.2802 3.8616 1.64022 0 0 1.0009 2.11233e-05
260 7.31895 4.48745 0.85197 0 0 1.0009 2.30503e-05
259 8.03957 3.79929 0.570331 0 0 1.0009 2.15549e-05
258 8.04617 4.65662 0.0213648 0 0 1.0009 2.52675e-05
1098 8.15694 4.65572 1.48427 0 0 1.0009 2.59271e-05
1177 7.23662 5.25645 1.5961 0 0 1.0009 2.69089e-05
1101 8.92028 3.91505 1.46494 0 0 1.0009 2.31858e-05
264 8.98272 4.61914 0.698257 0 0 1.0009 2.66233e-05
263 9.81749 3.92281 0.800326 0 0 1.0009 2.39112e-05
1102 9.91156 4.6293 1.57318 0 0 1.0009 2.86623e-05
262 9.86192 4.78851 0.0150006 0 0 1.0009 2.87213e-05
268 10.6569 4.69072 0.796903 0 0 1.0009 2.91412e-05
265 10.6085 3.93755 0.109751 0 0 1.0009 2.44223e-05
1105 10.6524 3.74767 1.64975 0 0 1.0009 2.37931e-05
267 11.4213 4.05518 0.888004 0 0 1.0009 2.5275e-05
1106 11.4746 4.63804 1.74154 0 0 1.0009 2.95922e-05
266 11.4416 4.94592 0.0211607 0 0 1.0009 3.05825e-05
269 12.2249 4.22963 0.207185 0 0 1.0009 2.59701e-05
1109 12.2256 3.91399 1.68294 0 0 1.0009 2.59311e-05
272 12.3653 4.77905 1.00819 0 0 1.0009 3.04937e-05
271 13.1076 4.16503 1.01933 0 0 1.0009 2.7045e-05
270 13.0203 5.13876 0.188831 0 0 1.0009 3.17445e-05
273 13.5009 4.25895 0.055209 0 0 1.0009 2.60756e-05
1113 13.8155 4.60962 1.69971 0 0 1.0009 2.98747e-05
275 14.1731 4.46418 0.769858 0 0 1.0009 2.83245e-05
200 14.8887 3.96122 0.695536 0 0 1.00091 2.41372e-05
1034 14.4157 3.95595 1.58784 0 0 1.00091 2.50196e-05
274 14.3777 5.26782 0.0159904 0 0 1.0009 3.33386e-05
277 15.1289 4.72381 0.0852244 0 0 1.0009 2.83772e-05
1117 15.2663 4.94554 1.51366 0 0 1.0009 3.20821e-05
279 16.0197 5.01582 0.825079 0 0 1.0009 3.08373e-05
198 15.8509 4.13902 0.108237 0 0 1.0009 2.38833e-05
1038 15.9729 4.36276 1.60093 0 0 1.0009 2.6298e-05
204 16.5684 4.12439 0.895785 0 0 1.0009 2.4231e-05
281 16.8458 4.8806 0.155685 0 0 1.0009 2.83412e-05
1121 16.9392 5.14693 1.66068 0 0 1.0009 3.24071e-05
1042 17.2671 4.13842 1.66995 0 0 1.0009 2.53085e-05
283 17.5629 4.84291 0.906427 0 0 1.0009 2.85324e-05
208 18.1187 4.11055 0.798914 0 0 1.0009 2.31116e-05
285 18.3669 4.93426 0.042086 0 0 1.0009 2.82579e-05
1046 18.7627 4.03432 1.64574 0 0 1.0009 2.3649e-05
287 19.0127 4.92719 1.08774 0 0 1.0009 2.90212e-05
206 18.9577 4.23773 0.0788487 0 0 1.0009 2.30692e-05
212 19.6325 4.18825 0.964713 0 0 1.0009 2.33555e-05
289 19.7535 5.13706 0.354527 0 0 1.0009 2.93547e-05
213 21.0272 3.60492 0.320953 0 0 1.0009 1.96904e-05
210 20.359 4.31484 0.256493 0 0 1.0009 2.3624e-05
211 20.4014 3.77065 1.26978 0 0 1.0009 2.12083e-05
291 20.5699 5.26342 1.12138 0 0 1.0009 2.93074e-05
216 21.171 4.44779 1.20938 0 0 1.0009 2.39425e-05
214 21.8492 4.64219 0.512103 0 0 1.0009 2.42132e-05
215 21.9654 3.94293 1.39072 0 0 1.00091 2.02825e-05
217 22.5895 3.89534 0.602919 0 0 1.00091 2.03385e-05
16179 23.3045 4.10041 0.0323723 0 0 1.0009 1.9597e-05
220 22.6684 4.8648 1.303 0 0 1.0009 2.50236e-05
218 23.3607 5.08829 0.544568 0 0 1.0009 2.40516e-05
144 24.1803 3.57074 1.525 0 0 1.0009 1.70908e-05
219 23.4635 4.32233 1.39716 0 0 1.0009 2.08783e-05
223 25.0237 4.23822 1.5501 0 0 1.0009 1.84269e-05
221 24.1803 4.33459 0.76102 0 0 1.0009 1.96363e-05
222 24.9731 5.07943 0.633989 0 0 1.0009 2.10333e-05
224 24.1982 5.29556 1.33651 0 0 1.0009 2.4206e-05
228 25.6634 5.19687 1.56624 0 0 1.0009 2.02656e-05
227 26.2182 4.14137 1.51599 0 0 1.0009 1.56932e-05
229 26.6616 4.10611 0.593466 0 0 1.0009 1.42776e-05
225 25.591 4.30023 0.752332 0 0 1.0009 1.68582e-05
226 26.1321 5.08536 0.422699 0 0 1.0009 1.80064e-05
233 28.3715 3.67385 0.336461 0 0 1.0009 9.70252e-06
232 26.9142 4.91118 1.36896 0 0 1.0009 1.59716e-05
231 27.6405 3.87315 1.4054 0 0 1.0009 1.17514e-05
230 27.5652 4.59557 0.579419 0 0 1.0009 1.37462e-05
236 28.4323 4.44207 1.11452 0 0 1.0009 1.13934e-05
235 29.6091 3.57004 1.17795 0 0 1.0009 7.03795e-06
313 28.7763 5.19139 0.689572 0 0 1.0009 1.1126e-05
234 29.3472 4.13245 0.465115 0 0 1.00091 8.25344e-06
315 29.5559 4.86741 1.30515 0 0 1.00091 8.93521e-06
240 30.4007 4.27836 1.02789 0 0 1.00091 6.15088e-06
238 31.4109 4.08619 0.350439 0 0 1.0009 3.50379e-06
317 30.6493 4.89245 0.470785 0 0 1.0009 5.50899e-06
319 31.4205 4.70525 1.37842 0 0 1.00091 3.91794e-06
242 1.40892 5.39511 0.454336 0 0 1.0009 1.00573e-05
323 1.33482 6.07188 1.27428 0 0 1.0009 1.05525e-05
324 0.808749 6.88569 1.47557 0 0 1.0009 9.38928e-06
322 1.52347 6.77357 0.562629 0 0 1.0009 1.15195e-05
321 0.514836 6.00709 0.449654 0 0 1.0009 8.13507e-06
328 2.27524 6.74198 1.23848 0 0 1.0009 1.41371e-05
325 2.4229 5.91665 0.488801 0 0 1.0009 1.37564e-05
327 2.86115 5.82324 1.37605 0 0 1.0009 1.53428e-05
326 3.07289 6.73794 0.460641 0 0 1.0009 1.71475e-05
332 3.85284 6.48746 1.13872 0 0 1.0009 1.92982e-05
329 4.00136 5.79115 0.464604 0 0 1.0009 1.84214e-05
331 4.74275 5.5335 1.20945 0 0 1.0009 2.0477e-05
330 4.66099 6.44047 0.223843 0 0 1.00091 2.22206e-05
411 4.68193 7.01545 1.18298 0 0 1.00091 2.34911e-05
336 5.48282 6.16526 1.14762 0 0 1.0009 2.47844e-05
333 5.49882 5.62545 0.303072 0 0 1.0009 2.27722e-05
335 6.38638 5.51193 0.950406 0 0 1.0009 2.54938e-05
334 6.29146 6.31389 0.144034 0 0 1.0009 2.7727e-05
415 6.26127 6.82591 0.984379 0 0 1.0009 2.89938e-05
413 5.41857 6.9897 0.218271 0 0 1.00091 2.59595e-05
337 7.13724 5.37713 0.130719 0 0 1.0009 2.61839e-05
340 7.25175 6.08147 0.936543 0 0 1.0009 3.02209e-05
339 8.11854 5.38891 0.758147 0 0 1.0009 2.89852e-05
1178 8.1674 6.01502 1.58637 0 0 1.0009 3.31106e-05
417 7.33536 6.77513 0.13179 0 0 1.0009 3.30645e-05
419 8.20956 6.87926 0.71885 0 0 1.0009 3.6548e-05
344 8.93844 6.05025 0.69371 0 0 1.0009 3.40798e-05
1181 9.10627 5.34716 1.49266 0 0 1.0009 3.15714e-05
343 9.81945 5.44764 0.747025 0 0 1.0009 3.24911e-05
1261 9.0732 6.61263 1.54039 0 0 1.0009 3.89368e-05
423 9.94688 6.8113 0.665118 0 0 1.0009 4.07179e-05
1182 10.0898 6.16244 1.45838 0 0 1.0009 3.83276e-05
1185 10.7738 5.4621 1.48592 0 0 1.0009 3.49193e-05
345 10.7278 5.57419 0.0773972 0 0 1.0009 3.42479e-05
347 11.613 5.4213 0.906265 0 0 1.0009 3.38934e-05
346 11.6175 6.31547 0.105073 0 0 1.0009 4.03791e-05
1186 11.6169 6.24765 1.48607 0 0 1.0009 4.15321e-05
348 10.8786 6.42473 0.723761 0 0 1.0009 4.04822e-05
1265 10.8434 7.033 1.57419 0 0 1.00089 4.59183e-05
349 12.3941 5.80943 0.0438389 0 0 1.0009 3.67195e-05
352 12.4756 6.54564 0.799934 0 0 1.0009 4.35742e-05
351 12.8996 5.73668 1.04861 0 0 1.0009 3.76884e-05
1190 13.3886 6.65829 1.36907 0 0 1.0009 4.56083e-05
276 13.7955 5.43907 0.862304 0 0 1.0009 3.48933e-05
1114 14.5238 5.59434 1.58111 0 0 1.0009 3.73262e-05
355 14.5774 6.26787 0.789438 0 0 1.0009 4.09485e-05
356 13.9798 6.91374 0.588922 0 0 1.0009 4.62666e-05
1194 14.8424 7.043 1.39419 0 0 1.00091 4.79896e-05
280 15.2257 5.56552 0.767518 0 0 1.0009 3.59725e-05
357 15.3452 6.24625 0.0258681 0 0 1.0009 3.99966e-05
1197 15.6072 6.4765 1.44404 0 0 1.0009 4.44704e-05
278 16.1125 5.60621 0.0395564 0 0 1.0009 3.42194e-05
359 16.2913 6.48743 0.801626 0 0 1.00091 4.22344e-05
1118 16.3441 5.87169 1.68823 0 0 1.00091 3.88403e-05
361 16.8957 6.45936 0.04864 0 0 1.0009 4.04768e-05
284 17.0103 5.86132 0.943566 0 0 1.0009 3.63264e-05
363 17.7233 6.73539 1.14581 0 0 1.0009 4.228e-05
282 17.6964 5.69063 0.25486 0 0 1.0009 3.3596e-05
288 18.2241 5.75593 1.22774 0 0 1.0009 3.5248e-05
365 18.3002 6.62887 0.381851 0 0 1.0009 4.0934e-05
367 18.8653 6.70313 1.33117 0 0 1.0009 4.21442e-05
286 18.916 5.76967 0.494678 0 0 1.0009 3.43209e-05
292 19.8006 5.83623 1.19353 0 0 1.0009 3.47667e-05
369 19.54 6.79179 0.607514 0 0 1.0009 4.07583e-05
293 21.0571 5.43642 0.357363 0 0 1.0009 2.9227e-05
290 20.5035 6.38094 0.625606 0 0 1.0009 3.64499e-05
296 21.1843 6.33841 1.37716 0 0 1.0009 3.59752e-05
295 21.7467 5.44734 1.35156 0 0 1.0009 2.9942e-05
294 21.7579 6.53418 0.63817 0 0 1.0009 3.47552e-05
297 22.477 5.73221 0.772236 0 0 1.0009 2.93054e-05
299 23.3489 5.97571 1.28579 0 0 1.0009 2.94798e-05
300 22.6111 6.69951 1.35192 0 0 1.0009 3.48911e-05
16260 22.6348 6.55314 0.0456747 0 0 1.0009 3.28139e-05
298 23.5267 6.69653 0.638127 0 0 1.0009 3.09633e-05
301 24.2789 5.87895 0.538762 0 0 1.0009 2.54375e-05
304 24.3252 6.76965 1.27293 0 0 1.0009 2.97572e-05
302 24.9477 6.82852 0.437452 0 0 1.0009 2.74302e-05
303 25.0966 6.095 1.43874 0 0 1.0009 2.47364e-05
305 25.5589 5.99055 0.564403 0 0 1.0009 2.2515e-05
307 26.3673 5.87111 1.35476 0 0 1.0009 2.03457e-05
306 26.4021 6.60779 0.687761 0 0 1.0009 2.15048e-05
308 25.8688 6.8399 1.62495 0 0 1.0009 2.49468e-05
311 27.8981 5.43838 1.39668 0 0 1.0009 1.46125e-05
309 27.1138 5.61211 0.638273 0 0 1.0009 1.70582e-05
312 27.338 6.52838 1.46217 0 0 1.0009 1.84385e-05
310 28.0988 6.11463 0.701716 0 0 1.0009 1.46535e-05
389 27.4185 7.05074 0.630088 0 0 1.0009 1.86622e-05
391 28.3132 7.04356 1.37275 0 0 1.0009 1.55572e-05
316 28.9438 6.00019 1.45277 0 0 1.0009 1.2369e-05
314 29.8962 5.64203 0.807574 0 0 1.0009 8.59669e-06
395 29.9952 6.54529 1.30937 0 0 1.0009 9.23087e-06
393 29.0688 6.69786 0.653961 0 0 1.0009 1.25318e-05
16355 29.9295 6.48645 0.0707133 0 0 1.0009 9.46032e-06
16276 29.0182 5.84874 0.0328603 0 0 1.0009 1.12531e-05
318 31.458 5.47602 0.583671 0 0 1.0009 4.55594e-06
320 30.7253 5.67041 1.43597 0 0 1.0009 6.38972e-06
397 30.9157 6.38981 0.627793 0 0 1.0009 6.21552e-06
399 31.7324 6.23293 1.37315 0 0 1.0009 4.0504e-06
398 0.00529335 7.01948 0.60185 0 0 1.0009 6.75355e-06
401 0.832742 7.59495 0.635331 0 0 1.0009 9.16829e-06
402 1.43995 8.32136 0.583084 0 0 1.0009 1.17767e-05
404 0.919574 8.47651 1.45022 0 0 1.0009 9.62444e-06
478 0.244467 8.65722 0.396964 0 0 1.0009 7.03753e-06
479 0.0632562 7.89619 1.28271 0 0 1.0009 6.64748e-06
403 1.68045 7.64008 1.46482 0 0 1.0009 1.26135e-05
405 2.18471 7.49924 0.387558 0 0 1.0009 1.40758e-05
408 2.33825 8.29024 1.44852 0 0 1.0009 1.59498e-05
406 2.83077 8.22691 0.390595 0 0 1.0009 1.789e-05
407 3.02465 7.40959 1.27316 0 0 1.0009 1.78074e-05
412 3.69277 7.9962 0.930694 0 0 1.00091 2.18062e-05
409 3.89161 7.23454 0.32643 0 0 1.00091 2.08683e-05
410 4.51176 7.8409 0.0538867 0 0 1.00091 2.45775e-05
491 4.6187 8.42939 0.843314 0 0 1.00091 2.65194e-05
1250 4.53116 7.72785 1.75512 0 0 1.00091 2.59186e-05
1329 3.88333 8.64631 1.66905 0 0 1.0009 2.37529e-05
489 3.69866 8.79093 0.0988648 0 0 1.0009 2.22523e-05
1333 5.44448 8.27064 1.6155 0 0 1.0009 3.15285e-05
416 5.44096 7.55928 0.94778 0 0 1.00091 2.83656e-05
414 6.6761 7.54031 0.203249 0 0 1.0009 3.27745e-05
495 6.09817 8.1567 0.618999 0 0 1.00091 3.28693e-05
1337 7.00159 8.15297 1.22684 0 0 1.00091 3.84238e-05
420 7.27474 7.31357 1.04827 0 0 1.0009 3.47702e-05
1258 8.21709 7.22265 1.6695 0 0 1.0009 3.87533e-05
499 8.053 7.94769 0.722565 0 0 1.00091 4.02933e-05
1338 8.03617 8.74918 1.18108 0 0 1.0009 4.54089e-05
424 9.23628 7.42287 0.858771 0 0 1.0009 4.25465e-05
501 9.0703 8.11276 0.0663299 0 0 1.0009 4.5066e-05
1341 9.02085 8.18787 1.37891 0 0 1.0009 4.71214e-05
503 9.97627 8.47422 0.696758 0 0 1.0009 5.13401e-05
1262 10.1342 7.72184 1.41344 0 0 1.0009 4.84738e-05
428 10.8595 7.77834 0.695368 0 0 1.0009 4.96264e-05
426 11.5626 8.06488 0.00174867 0 0 1.0009 5.22221e-05
1345 10.9525 8.61165 1.39618 0 0 1.0009 5.6787e-05
427 11.7394 7.19694 0.816544 0 0 1.0009 4.72797e-05
1266 11.8039 7.95803 1.42832 0 0 1.00089 5.47529e-05
429 12.4221 7.44949 0.0269341 0 0 1.0009 4.94504e-05
432 12.5599 8.15069 0.716291 0 0 1.0009 5.5385e-05
1269 12.6356 7.17963 1.55809 0 0 1.0009 5.06609e-05
1270 13.3817 8.11565 1.50407 0 0 1.00089 5.79927e-05
431 13.4287 7.68426 0.597964 0 0 1.0009 5.15805e-05
1273 14.1908 7.59749 1.47788 0 0 1.0009 5.52158e-05
435 14.9384 7.86084 0.531508 0 0 1.0009 5.34479e-05
436 14.2647 8.5318 0.777402 0 0 1.0009 5.98238e-05
1274 15.0665 8.62447 1.57171 0 0 1.0009 6.40825e-05
360 15.6177 7.2205 0.645061 0 0 1.00091 4.8367e-05
1277 15.6684 7.99584 1.38518 0 0 1.00091 5.61986e-05
439 16.4802 8.29998 0.882851 0 0 1.00091 5.64499e-05
1198 16.5344 7.58117 1.67354 0 0 1.00091 5.3012e-05
437 15.8256 8.31465 0.0221844 0 0 1.00091 5.60575e-05
364 16.9434 7.40662 0.865593 0 0 1.00091 4.75379e-05
441 17.1718 8.46319 0.144198 0 0 1.0009 5.51571e-05
443 17.6471 8.42126 1.08355 0 0 1.00091 5.60141e-05
362 17.7402 7.47355 0.297177 0 0 1.0009 4.73261e-05
368 18.3382 7.71586 1.08935 0 0 1.0009 4.94951e-05
445 18.3711 8.5395 0.287179 0 0 1.0009 5.52015e-05
447 19.0336 8.60035 1.02782 0 0 1.0009 5.41029e-05
366 19.0933 7.71128 0.224777 0 0 1.0009 4.73515e-05
372 19.5438 7.65539 1.15901 0 0 1.0009 4.87222e-05
370 20.2332 8.0297 0.612663 0 0 1.0009 4.70658e-05
371 20.4712 7.26392 1.34697 0 0 1.0009 4.35022e-05
373 21.111 7.49528 0.599669 0 0 1.0009 4.18106e-05
376 21.0882 8.47988 1.31445 0 0 1.0009 4.92281e-05
374 21.8155 8.33718 0.609775 0 0 1.0009 4.51185e-05
375 21.8492 7.4589 1.30484 0 0 1.0009 4.13198e-05
377 22.6461 7.56488 0.669775 0 0 1.0009 3.84287e-05
380 22.6213 8.63117 1.13673 0 0 1.0009 4.43945e-05
378 23.35 8.42668 0.392608 0 0 1.0009 3.91694e-05
379 23.5705 7.60976 1.20406 0 0 1.0009 3.61923e-05
381 24.2391 7.66416 0.296404 0 0 1.0009 3.29321e-05
384 24.3569 8.31169 1.079 0 0 1.0009 3.52636e-05
383 25.149 7.47287 1.1835 0 0 1.0009 2.92111e-05
382 25.1514 8.24622 0.298811 0 0 1.0009 3.0919e-05
387 26.6044 7.41102 1.40849 0 0 1.0009 2.33769e-05
385 25.9132 7.53127 0.494955 0 0 1.0009 2.55187e-05
388 25.9269 8.29041 1.23416 0 0 1.0009 2.8206e-05
386 26.7991 8.06377 0.383062 0 0 1.0009 2.36118e-05
390 28.3544 7.61146 0.516447 0 0 1.0009 1.59082e-05
392 27.5061 7.86898 1.31525 0 0 1.0009 2.04785e-05
469 27.6858 8.5267 0.43172 0 0 1.0009 2.00862e-05
471 28.4652 8.46788 1.20945 0 0 1.0009 1.69526e-05
396 29.2512 7.58502 1.23428 0 0 1.0009 1.27181e-05
473 29.3089 8.22966 0.416983 0 0 1.0009 1.26367e-05
475 30.1022 8.05951 1.27931 0 0 1.0009 9.56918e-06
394 30.1493 7.28808 0.504184 0 0 1.0009 9.09312e-06
474 30.1778 8.76775 0.532156 0 0 1.0009 9.42058e-06
400 30.8887 7.30254 1.18051 0 0 1.0009 6.30023e-06
480 30.9979 8.71485 1.19156 0 0 1.0009 6.12457e-06
477 31.1932 8.05165 0.388545 0 0 1.0009 5.39969e-06
482 1.64515 10.0457 0.252982 0 0 1.0009 1.2584e-05
483 1.58621 9.15873 1.18022 0 0 1.0009 1.24951e-05
484 0.790126 9.8859 0.913053 0 0 1.0009 8.77214e-06
481 0.90781 9.26435 0.124966 0 0 1.0009 9.51586e-06
1322 1.36838 9.94545 1.73419 0 0 1.0009 1.14924e-05
559 0.0543484 9.36458 1.13551 0 0 1.0009 6.02117e-06
558 0.00832579 10.0565 0.0570807 0 0 1.0009 5.22283e-06
485 2.32287 9.11399 0.422826 0 0 1.0009 1.57874e-05
488 2.36909 9.9682 0.976415 0 0 1.0009 1.60099e-05
486 3.15288 9.76193 0.0817642 0 0 1.0009 1.99036e-05
487 2.98484 8.97923 1.1879 0 0 1.0009 1.89498e-05
1326 3.34395 9.66806 1.65984 0 0 1.0009 2.14826e-05
567 3.10705 10.4644 0.718767 0 0 1.00091 1.99882e-05
492 3.98586 9.41688 0.745039 0 0 1.0009 2.40874e-05
1330 4.81136 9.19816 1.56734 0 0 1.0009 2.94006e-05
1409 4.12073 10.1241 1.43193 0 0 1.0009 2.57372e-05
571 4.69154 10.156 0.511324 0 0 1.0009 2.86133e-05
496 5.28755 9.20876 0.574543 0 0 1.0009 3.13183e-05
1334 6.10588 8.95586 1.18093 0 0 1.0009 3.58423e-05
575 6.11253 9.79841 0.450104 0 0 1.0009 3.70739e-05
1413 5.46557 9.93228 1.44919 0 0 1.0009 3.43661e-05
1414 6.21833 10.434 1.21161 0 0 1.0009 3.89119e-05
500 7.03013 8.86805 0.504614 0 0 1.0009 3.96683e-05
1417 7.04575 9.54598 1.19913 0 0 1.0009 4.27153e-05
579 7.77965 9.62657 0.46566 0 0 1.0009 4.65541e-05
580 6.90061 10.4246 0.378252 0 0 1.0009 4.31206e-05
1418 7.83134 10.416 1.11387 0 0 1.0009 5.06264e-05
1421 8.63221 9.56458 1.32227 0 0 1.0009 5.22592e-05
504 8.92249 8.93941 0.566888 0 0 1.0009 4.95634e-05
1342 9.77748 9.15098 1.38344 0 0 1.0009 5.5672e-05
583 9.72906 9.84795 0.662507 0 0 1.0009 5.78896e-05
584 8.77134 10.3224 0.676383 0 0 1.0009 5.44093e-05
508 10.6935 9.3433 0.665508 0 0 1.0009 5.93449e-05
507 11.6312 8.83741 0.665298 0 0 1.0009 5.86554e-05
1425 10.7003 10.0343 1.37507 0 0 1.0009 6.64936e-05
587 11.4063 10.1733 0.663863 0 0 1.00091 6.73534e-05
1346 11.8048 9.27612 1.5993 0 0 1.0009 6.47227e-05
512 12.3439 9.72614 0.720401 0 0 1.0009 6.68527e-05
1349 12.6284 8.86538 1.36607 0 0 1.0009 6.28968e-05
511 13.3368 9.16619 0.690426 0 0 1.0009 6.42243e-05
1350 13.2515 9.83954 1.58359 0 0 1.0009 7.2884e-05
510 12.9636 9.99362 0.0359644 0 0 1.0009 6.90775e-05
1429 12.3712 10.3571 1.51047 0 0 1.0009 7.4378e-05
1353 13.9792 9.08827 1.61616 0 0 1.0009 6.84234e-05
516 14.0488 9.98985 0.943333 0 0 1.0009 7.12357e-05
515 14.8513 9.3898 0.862352 0 0 1.0009 6.67362e-05
1354 14.8515 10.0991 1.69822 0 0 1.0009 7.66733e-05
514 14.6331 10.2885 0.0415177 0 0 1.0009 7.29934e-05
517 15.5631 9.91747 0.214674 0 0 1.0009 6.90145e-05
440 15.7975 9.04373 0.806436 0 0 1.0009 6.28646e-05
519 16.452 9.92421 1.02326 0 0 1.0009 7.00886e-05
438 16.559 9.24971 0.135396 0 0 1.0009 6.15005e-05
520 15.5048 10.5488 1.02887 0 0 1.0009 7.48611e-05
521 16.9627 10.296 0.224783 0 0 1.0009 6.92352e-05
444 17.257 9.35824 1.13356 0 0 1.0009 6.41394e-05
523 17.7886 10.3229 0.972679 0 0 1.0009 6.99615e-05
442 17.7816 9.40637 0.260292 0 0 1.0009 6.18029e-05
448 18.4301 9.49724 1.08358 0 0 1.0009 6.22772e-05
525 18.4142 10.5276 0.173669 0 0 1.0009 6.72355e-05
449 19.7036 8.86762 0.219584 0 0 1.0009 5.2453e-05
527 18.9999 10.4943 1.07746 0 0 1.0009 6.68411e-05
446 19.0225 9.69877 0.114809 0 0 1.0009 5.97497e-05
452 19.5946 9.64983 0.956715 0 0 1.0009 6.12621e-05
529 19.7719 10.5535 0.310803 0 0 1.0009 6.38225e-05
1369 19.9063 10.445 1.7131 0 0 1.0009 6.81533e-05
451 20.2164 8.92249 1.18402 0 0 1.0009 5.50353e-05
453 20.982 8.973 0.380092 0 0 1.0009 5.16759e-05
450 20.4272 9.80925 0.226922 0 0 1.0009 5.77739e-05
456 21.0155 9.91296 1.03366 0 0 1.0009 5.7098e-05
455 21.8088 9.38276 1.0562 0 0 1.0009 5.13452e-05
454 21.8456 10.0714 0.216875 0 0 1.0009 5.21568e-05
457 22.6521 9.34026 0.268242 0 0 1.0009 4.57328e-05
460 22.6573 10.126 0.977444 0 0 1.0009 5.03078e-05
1298 23.4391 10.0532 1.63682 0 0 1.0009 4.77889e-05
459 23.5537 9.24918 1.01384 0 0 1.0009 4.26741e-05
461 24.3666 9.09692 0.345391 0 0 1.0009 3.70581e-05
458 23.6429 10.0117 0.217935 0 0 1.0009 4.37206e-05
464 24.3508 10.034 0.981972 0 0 1.0009 4.08471e-05
1302 25.1266 9.8558 1.7169 0 0 1.0009 3.74867e-05
462 25.1469 9.84149 0.217513 0 0 1.0009 3.51507e-05