ITEM: TIMESTEP
10000
ITEM: NUMBER OF ATOMS
32000
ITEM: BOX BOUNDS pp pp pp
0.0000000000000000e+00 3.1748021039364001e+01
0.0000000000000000e+00 3.1748021039364001e+01
0.0000000000000000e+00 3.1748021039364001e+01
ITEM: ATOMS id x y z c_phase c_nbond c_rho v_omega
4 0.15807 1.12434 0.466207 0 0 1.00031 -1.32325e-06
83 1.02957 1.66688 0.778509 0 0 1.00031 4.75077e-07
842 0.74855 0.799106 1.4104 0 0 1.00031 -7.51395e-07
921 0.0596535 1.62787 1.37621 0 0 1.00031 -8.8027e-07
3 0.7442 0.0706586 0.616604 0 0 1.00031 -1.59909e-06
8 1.74517 0.792354 1.01352 0 0 1.00031 3.67735e-07
85 1.85559 1.45577 0.218221 0 0 1.00031 1.35852e-06
925 1.88283 1.63483 1.75584 0 0 1.00031 1.77323e-06
6 2.55414 0.708648 0.202494 0 0 1.00031 1.1686e-06
7 2.60362 0.0138021 1.03502 0 0 1.00031 2.35639e-07
87 2.70448 1.49703 0.87829 0 0 1.00031 2.59278e-06
846 2.70726 0.772921 1.74002 0 0 1.00031 1.54075e-06
12 3.47192 0.870201 0.956282 0 0 1.00031 2.51308e-06
849 3.51138 0.0278673 1.70368 0 0 1.00031 1.14369e-06
929 3.67025 1.63781 1.71378 0 0 1.00031 4.21092e-06
10 4.14883 0.784031 0.320663 0 0 1.00031 2.89219e-06
16 5.00047 0.476939 1.16331 0 0 1.00031 3.01826e-06
93 4.98543 1.50909 0.382219 0 0 1.00031 5.27265e-06
850 4.38269 0.861565 1.62833 0 0 1.00031 3.54229e-06
9 3.49078 0.0489497 0.171545 0 0 1.00031 9.68721e-07
14 5.68472 0.54634 0.319298 0 0 1.00031 3.53443e-06
95 5.94466 1.20976 0.940769 0 0 1.00031 5.40475e-06
97 6.64168 1.28606 0.216917 0 0 1.00031 5.86814e-06
854 5.81729 0.356924 1.69577 0 0 1.00031 3.27715e-06
933 5.09724 1.62282 1.43279 0 0 1.00031 5.96148e-06
20 6.74288 0.286953 0.866138 0 0 1.00031 3.25122e-06
937 6.74395 0.898879 1.69089 0 0 1.00031 5.1115e-06
24 8.29564 0.297008 1.06535 0 0 1.00031 3.38624e-06
99 7.43087 1.11127 0.948911 0 0 1.00031 5.84088e-06
101 8.31955 1.2768 0.233915 0 0 1.00031 6.53364e-06
941 8.20072 1.15352 1.60709 0 0 1.00031 6.56373e-06
18 7.62404 0.542844 0.145594 0 0 1.00031 4.03262e-06
22 8.89377 0.398118 0.265743 0 0 1.00031 3.46038e-06
28 9.58545 0.229595 0.890962 0 0 1.00031 2.54421e-06
103 9.09455 1.19614 1.10172 0 0 1.00031 6.4366e-06
945 9.64469 0.86391 1.76066 0 0 1.00031 5.15313e-06
105 9.71608 1.26334 0.0936496 0 0 1.00031 6.42932e-06
32 11.2347 0.131792 0.635591 0 0 1.00031 1.31053e-06
107 10.4319 0.952637 0.823718 0 0 1.00031 5.12045e-06
866 10.5435 0.100726 1.44548 0 0 1.00031 1.62835e-06
949 11.3596 0.92977 1.41589 0 0 1.00031 4.8421e-06
946 10.6797 1.58099 1.72336 0 0 1.00031 8.12429e-06
26 10.2762 0.268798 0.0768548 0 0 1.00031 2.35297e-06
112 11.2717 1.74297 0.770953 0 0 1.00031 8.5435e-06
36 12.9049 0.163907 0.637199 0 0 1.00031 4.91075e-07
111 12.1152 1.00664 0.509477 0 0 1.00031 4.70261e-06
870 12.1626 0.247443 1.30031 0 0 1.00031 1.34423e-06
953 12.8049 1.13946 1.37222 0 0 1.00031 5.29264e-06
40 14.4088 0.310385 0.769553 0 0 1.00031 6.50202e-07
115 13.6705 1.08011 0.842794 0 0 1.00031 4.58549e-06
117 14.1522 1.53675 0.160426 0 0 1.00031 6.8364e-06
874 13.6461 0.326382 1.63413 0 0 1.00031 9.54095e-07
957 14.4629 1.14192 1.478 0 0 1.00031 4.76592e-06
119 14.9869 1.55803 0.664093 0 0 1.00031 6.82506e-06
44 15.7713 0.794486 0.788244 0 0 1.00031 3.05556e-06
123 16.6574 1.59861 0.683785 0 0 1.00031 7.54517e-06
878 15.1868 0.474722 1.64037 0 0 1.00031 1.33578e-06
882 16.6053 0.762869 1.34408 0 0 1.00031 3.10595e-06
961 15.7377 1.51631 1.39453 0 0 1.00031 7.02153e-06
38 15.1607 0.720172 0.0679866 0 0 1.00031 2.40941e-06
48 17.3191 0.803187 0.554383 0 0 1.00031 3.55084e-06
127 18.0324 1.67773 0.75583 0 0 1.00031 8.75706e-06
886 17.9769 0.837538 1.42695 0 0 1.00031 4.29731e-06
47 18.1764 0.0233201 0.692117 0 0 1.00031 3.3412e-07
51 19.5538 0.138483 0.667228 0 0 1.00031 2.29127e-06
52 18.8477 0.841245 0.688646 0 0 1.00031 4.82939e-06
131 19.6409 1.68749 0.843158 0 0 1.00031 9.93595e-06
889 19.0466 0.273948 1.54783 0 0 1.00031 2.18042e-06
890 19.6658 1.1015 1.69479 0 0 1.00031 7.16012e-06
969 18.7679 1.6234 1.50113 0 0 1.00031 9.08792e-06
129 18.9715 1.69966 0.00057634 0 0 1.00031 9.38754e-06
55 21.1396 0.503335 1.07139 0 0 1.00031 5.13021e-06
56 20.3043 0.920432 0.975313 0 0 1.00031 6.5422e-06
54 21.238 0.924243 0.217016 0 0 1.00031 7.28196e-06
133 20.4411 1.66099 0.200812 0 0 1.00031 1.02985e-05
893 20.4763 0.0194171 1.43918 0 0 1.00031 2.71036e-06
57 22.0428 0.434617 0.54035 0 0 1.00031 5.72174e-06
59 22.836 0.600256 1.40533 0 0 1.00031 6.89899e-06
60 22.1849 1.32495 1.33315 0 0 1.00031 9.87119e-06
137 22.0872 1.77518 0.529207 0 0 1.00031 1.17437e-05
58 22.9746 1.23436 0.459009 0 0 1.00031 9.40153e-06
63 24.2769 0.552471 1.43514 0 0 1.00031 7.19352e-06
61 23.6017 0.522782 0.577669 0 0 1.00031 6.84359e-06
62 24.4965 1.35046 0.753356 0 0 1.00031 9.95688e-06
64 23.553 1.41916 1.39972 0 0 1.00031 1.04216e-05
65 24.9881 0.480877 0.54881 0 0 1.00031 7.03231e-06
67 26.0336 0.53469 1.17199 0 0 1.00031 6.90395e-06
68 25.2248 1.29555 1.47332 0 0 1.00031 9.73177e-06
66 25.9402 1.09344 0.429739 0 0 1.00031 8.60046e-06
70 27.6287 1.41217 0.388423 0 0 1.00031 7.98882e-06
71 27.6427 0.63472 0.875047 0 0 1.00031 6.13732e-06
72 26.8005 1.17524 1.26054 0 0 1.00031 8.16992e-06
913 28.4043 0.454551 1.40713 0 0 1.00031 5.08281e-06
69 26.8137 0.383638 0.232274 0 0 1.00031 6.13369e-06
76 28.6983 1.34388 0.738383 0 0 1.00031 6.51455e-06
914 29.4243 1.04317 1.56949 0 0 1.00031 5.13763e-06
917 29.8349 0.248003 1.45991 0 0 1.00031 3.22286e-06
75 29.2967 0.445214 0.616966 0 0 1.00031 4.114e-06
841 31.6074 0.296927 1.25641 0 0 1.00031 1.23691e-06
79 30.7315 0.539663 0.474327 0 0 1.00031 2.65516e-06
80 30.1429 1.26924 0.774221 0 0 1.00031 4.53939e-06
918 30.9017 1.02242 1.39269 0 0 1.00031 3.14593e-06
82 1.18602 2.43123 0.125783 0 0 1.00031 1.5429e-06
84 0.207762 2.40497 0.810217 0 0 1.00031 2.09451e-08
163 1.38026 3.22163 0.945611 0 0 1.00031 2.82505e-06
922 1.21375 2.35543 1.58907 0 0 1.00031 1.67797e-06
1001 0.474215 3.04867 1.54843 0 0 1.00031 1.04615e-06
161 0.421389 3.1166 0.13079 0 0 1.00031 8.31911e-07
88 1.98792 2.39 0.782905 0 0 1.00031 2.82348e-06
167 2.75674 3.23003 0.857117 0 0 1.00031 5.42979e-06
926 2.74686 2.18547 1.53405 0 0 1.00031 3.88171e-06
86 2.80355 2.33585 0.0540126 0 0 1.00031 4.01665e-06
1005 2.2041 3.06182 1.75944 0 0 1.00031 4.26761e-06
1009 3.36872 3.35248 1.64695 0 0 1.00031 7.07876e-06
92 3.46866 2.49163 0.77936 0 0 1.00031 5.43723e-06
91 4.07794 1.76378 0.710274 0 0 1.00031 4.90099e-06
96 5.00652 2.47468 0.814827 0 0 1.00031 7.76043e-06
171 4.31131 3.23145 0.748875 0 0 1.00031 8.21301e-06
930 4.2316 2.55767 1.57824 0 0 1.00031 6.90379e-06
94 5.74883 2.34072 0.134507 0 0 1.00031 8.24882e-06
100 6.65444 2.06946 0.774578 0 0 1.00031 8.38774e-06
175 5.77328 3.08506 0.951957 0 0 1.00031 1.04973e-05
934 5.95223 2.09045 1.49067 0 0 1.00031 8.00439e-06
1017 6.65569 2.942 1.54637 0 0 1.00031 1.15043e-05
177 6.76741 2.81611 0.128917 0 0 1.00031 1.06566e-05
98 7.5563 2.10933 0.136482 0 0 1.00031 9.14358e-06
104 8.19606 2.08047 0.930412 0 0 1.00031 9.63156e-06
179 7.5368 2.93671 0.921875 0 0 1.00031 1.22787e-05
938 7.39835 1.94115 1.56475 0 0 1.00031 8.8298e-06
1021 8.33154 2.86695 1.64406 0 0 1.00031 1.31724e-05
181 8.41099 2.84523 0.0378375 0 0 1.00031 1.24193e-05
102 9.01637 1.97735 0.249189 0 0 1.00031 9.31148e-06
108 9.88727 1.91197 1.09989 0 0 1.00031 9.34733e-06
183 9.07367 2.8462 0.926598 0 0 1.00031 1.33935e-05
942 9.1493 2.09896 1.70378 0 0 1.00031 1.05095e-05
185 9.7154 2.79116 0.206669 0 0 1.00031 1.31042e-05
188 10.0777 3.46103 0.883177 0 0 1.00031 1.66968e-05
106 10.4039 2.00976 0.205905 0 0 1.00031 9.69006e-06
187 10.7779 2.70072 0.917026 0 0 1.00031 1.31463e-05
1029 11.6097 2.74088 1.57976 0 0 1.00031 1.41328e-05
1026 10.9022 3.46299 1.58827 0 0 1.00031 1.7673e-05
116 12.8002 1.88571 0.596464 0 0 1.00031 8.89716e-06
191 12.0889 2.5706 0.737792 0 0 1.00031 1.28555e-05
950 12.0503 1.84337 1.46424 0 0 1.00031 9.07893e-06
1033 13.0386 2.95666 1.69044 0 0 1.00031 1.56174e-05
195 13.3842 2.97585 0.838546 0 0 1.00031 1.48814e-05
954 13.5166 1.95247 1.4775 0 0 1.00031 9.40556e-06
120 14.1818 2.42279 0.921949 0 0 1.00031 1.19002e-05
1037 14.2496 3.35904 1.55333 0 0 1.00031 1.82524e-05
199 14.9204 3.43152 0.87486 0 0 1.00031 1.83193e-05
958 14.9513 2.30529 1.44075 0 0 1.00031 1.15004e-05
118 15.0075 2.51328 0.135635 0 0 1.00031 1.24858e-05
197 14.3542 3.20208 0.0381752 0 0 1.00031 1.63434e-05
114 13.5605 2.26004 0.055159 0 0 1.00031 1.08055e-05
124 15.8585 2.4692 0.697787 0 0 1.00031 1.2439e-05
203 16.5155 3.25 0.671321 0 0 1.00031 1.75624e-05
962 16.4798 2.52738 1.5249 0 0 1.00031 1.33641e-05
1041 15.5979 3.27683 1.5025 0 0 1.00031 1.78564e-05
201 15.7774 3.28381 0.0227667 0 0 1.00031 1.75479e-05
965 17.3423 1.82175 1.56385 0 0 1.00031 9.46741e-06
128 17.2243 2.42685 0.682203 0 0 1.00031 1.27091e-05
207 18.1289 3.03138 0.706051 0 0 1.00031 1.68872e-05
966 18.1793 2.53765 1.58902 0 0 1.00031 1.43088e-05
1045 17.2945 3.19178 1.49926 0 0 1.00031 1.79438e-05
132 19.0412 2.48633 1.0139 0 0 1.00031 1.40636e-05
211 19.8865 3.38926 1.27762 0 0 1.00031 2.03848e-05
209 19.062 3.12897 0.19151 0 0 1.00031 1.79474e-05
130 19.7361 2.47119 0.106222 0 0 1.00031 1.43283e-05
135 21.1995 1.80681 0.961008 0 0 1.00031 1.15264e-05
973 20.4376 1.93507 1.73442 0 0 1.00031 1.21379e-05
134 21.3014 2.58678 0.457343 0 0 1.00031 1.54526e-05
136 20.3479 2.61483 1.10864 0 0 1.00031 1.57572e-05
215 21.4896 3.48241 1.39048 0 0 1.00031 2.06274e-05
213 20.5841 3.16559 0.331027 0 0 1.00031 1.86143e-05
139 22.9889 2.24271 1.51705 0 0 1.00031 1.41112e-05
138 23.0948 2.79082 0.73437 0 0 1.00031 1.62525e-05
140 22.2172 2.67935 1.24029 0 0 1.00031 1.63859e-05
217 22.144 3.38976 0.605732 0 0 1.00031 1.99887e-05
141 23.8251 1.99031 0.62399 0 0 1.00031 1.24802e-05
143 24.5182 2.16672 1.60054 0 0 1.00031 1.33202e-05
142 24.4601 2.86637 0.776393 0 0 1.00031 1.58963e-05
144 23.8185 3.08702 1.53811 0 0 1.00031 1.76708e-05
16108 25.0725 3.01237 0.014774 0 0 1.00031 1.576e-05
147 26.0058 1.90054 1.35704 0 0 1.00031 1.11251e-05
149 26.6227 1.94405 0.513195 0 0 1.00031 1.04887e-05
145 25.2157 2.02491 0.518588 0 0 1.00031 1.20901e-05
146 25.898 2.77868 0.705526 0 0 1.00031 1.40111e-05
148 25.2716 2.74221 1.52385 0 0 1.00031 1.46999e-05
152 26.6306 2.72522 1.53075 0 0 1.00031 1.29768e-05
151 27.5753 2.12092 1.23465 0 0 1.00031 9.80024e-06
153 28.3249 2.20985 0.345626 0 0 1.00031 8.94608e-06
150 27.1841 2.83891 0.640801 0 0 1.00031 1.22485e-05
231 27.321 3.50545 1.41636 0 0 1.00031 1.40007e-05
156 28.3435 2.87917 1.20224 0 0 1.00031 1.0504e-05
233 28.0874 3.35441 0.334523 0 0 1.00031 1.20706e-05
993 28.583 1.8367 1.50292 0 0 1.00031 7.83378e-06
997 30.0219 1.88539 1.70674 0 0 1.00031 5.87469e-06
155 29.5117 2.12863 0.882657 0 0 1.00031 6.92815e-06
154 29.2778 2.76684 0.288709 0 0 1.00031 8.56309e-06
235 29.3508 3.3606 1.17981 0 0 1.00031 9.58751e-06
159 30.9751 2.03189 0.923847 0 0 1.00031 4.48985e-06
160 30.2637 2.78221 1.00136 0 0 1.00031 6.72911e-06
239 31.121 3.39404 0.973618 0 0 1.00031 6.1264e-06
998 31.0676 2.74272 1.72667 0 0 1.00031 5.35073e-06
237 30.211 3.32549 0.143198 0 0 1.00031 7.8126e-06
157 30.4715 1.97095 0.0299117 0 0 1.00031 5.20815e-06
158 31.2224 2.7055 0.0766854 0 0 1.00031 5.02469e-06
164 0.398928 3.80036 0.918556 0 0 1.00031 1.33745e-06
241 0.261224 4.62126 0.477348 0 0 1.00031 1.53017e-06
243 1.25786 4.65613 0.98531 0 0 1.00031 3.90179e-06
244 0.220843 5.28999 1.27578 0 0 1.00031 1.85738e-06
162 1.14885 3.85531 0.0645984 0 0 1.00031 2.75078e-06
168 1.95988 4.01314 0.846564 0 0 1.00031 4.7483e-06
247 2.67036 4.8009 1.12808 0 0 1.00031 7.46041e-06
166 2.76941 4.09048 0.202679 0 0 1.00031 6.62089e-06
245 2.02612 4.92781 0.2792 0 0 1.00031 5.76997e-06
249 3.54789 4.78054 0.161584 0 0 1.00031 9.49299e-06
172 3.61371 4.00062 0.883319 0 0 1.00031 8.33906e-06
251 4.1997 4.78166 1.14585 0 0 1.00031 1.14476e-05
170 4.38834 4.08717 0.144229 0 0 1.00031 1.01061e-05
176 5.04954 3.89706 1.16882 0 0 1.00031 1.14164e-05
253 5.16237 4.62735 0.331846 0 0 1.00031 1.3203e-05
174 5.91115 3.82 0.187947 0 0 1.00031 1.27171e-05
180 6.64798 3.64438 0.775546 0 0 1.00031 1.34001e-05
255 5.85595 4.59975 1.02546 0 0 1.00031 1.5063e-05
1097 6.83934 4.37384 1.64224 0 0 1.00031 1.68531e-05
260 6.85873 4.99289 0.871604 0 0 1.00031 1.8348e-05
259 7.58727 4.32007 0.549287 0 0 1.00031 1.74155e-05
1018 7.56876 3.73107 1.49613 0 0 1.00031 1.563e-05
258 7.52992 5.20614 0.0359945 0 0 1.00031 2.05273e-05
1098 7.607 5.25012 1.49075 0 0 1.00031 2.1723e-05
184 8.37597 3.74862 0.701335 0 0 1.00031 1.63687e-05
1101 8.40528 4.45862 1.47901 0 0 1.00031 1.99989e-05
264 8.42731 5.16165 0.693659 0 0 1.00031 2.24877e-05
263 9.28533 4.42616 0.815087 0 0 1.00031 2.07284e-05
1022 9.2568 3.63174 1.49685 0 0 1.00031 1.76674e-05
182 9.16914 3.73668 0.0567099 0 0 1.00031 1.7025e-05
268 10.0144 5.18112 0.790959 0 0 1.00031 2.55891e-05
1102 9.28867 5.17178 1.58521 0 0 1.00031 2.53143e-05
265 10.0731 4.38419 0.124031 0 0 1.00031 2.10977e-05
1105 10.0935 4.21562 1.65366 0 0 1.00031 2.13954e-05
192 11.6089 3.54701 0.789417 0 0 1.00031 1.80341e-05
267 10.8222 4.53085 0.900092 0 0 1.00031 2.30678e-05
269 11.6237 4.59142 0.218525 0 0 1.00031 2.34346e-05
1109 11.6049 4.27789 1.69579 0 0 1.00031 2.34203e-05
272 11.6604 5.16391 0.995136 0 0 1.00031 2.78318e-05
186 10.7899 3.73196 0.170031 0 0 1.00031 1.827e-05
1106 10.779 5.09065 1.75798 0 0 1.00031 2.71981e-05
196 12.7127 3.52518 0.811288 0 0 1.00031 1.84182e-05
271 12.4384 4.46692 0.997026 0 0 1.00031 2.42804e-05
1113 13.045 4.90632 1.68564 0 0 1.00031 2.82998e-05
273 12.8842 4.54532 0.055839 0 0 1.00031 2.43741e-05
275 13.4913 4.64265 0.792659 0 0 1.00031 2.56441e-05
200 14.242 4.09699 0.6941 0 0 1.00031 2.21283e-05
1034 13.746 4.17184 1.59017 0 0 1.00031 2.35784e-05
1117 14.4988 5.08397 1.52234 0 0 1.00031 3.05233e-05
277 14.4177 4.86928 0.0699952 0 0 1.00031 2.70824e-05
279 15.2375 5.02198 0.81058 0 0 1.00031 2.91774e-05
198 15.21 4.1931 0.101621 0 0 1.00031 2.30147e-05
1038 15.2487 4.41363 1.59299 0 0 1.00031 2.57205e-05
204 15.9172 4.09529 0.91743 0 0 1.00031 2.3174e-05
281 16.1469 4.81086 0.182782 0 0 1.00031 2.76609e-05
1042 16.5802 4.01693 1.68494 0 0 1.00031 2.38469e-05
1121 16.1233 5.08023 1.64366 0 0 1.00031 3.14364e-05
283 16.8645 4.65379 0.902352 0 0 1.00031 2.73408e-05
208 17.5063 3.91688 0.809376 0 0 1.00031 2.23529e-05
287 18.3407 4.60714 1.09629 0 0 1.00031 2.78607e-05
1046 18.1793 3.75223 1.65664 0 0 1.00031 2.23494e-05
285 17.7054 4.67658 0.0205804 0 0 1.00031 2.75065e-05
206 18.3643 3.96379 0.0666885 0 0 1.00031 2.27726e-05
212 19.0841 3.84516 0.95716 0 0 1.00031 2.26901e-05
289 19.0773 4.75343 0.359362 0 0 1.00031 2.85867e-05
291 19.9277 4.83656 1.10362 0 0 1.00031 2.94524e-05
210 19.8054 3.91836 0.238165 0 0 1.00031 2.30379e-05
216 20.64 3.99665 1.23622 0 0 1.00031 2.37716e-05
295 21.1162 4.91397 1.39118 0 0 1.00031 2.98053e-05
214 21.2931 4.12282 0.515231 0 0 1.00031 2.41195e-05
293 20.3902 4.96156 0.346243 0 0 1.00031 2.95075e-05
16179 22.8518 3.59142 0.060632 0 0 1.00031 2.02577e-05
297 21.8227 5.1618 0.800507 0 0 1.00031 3.02006e-05
219 22.9977 3.82203 1.41756 0 0 1.00031 2.179e-05
220 22.1372 4.33316 1.3136 0 0 1.00031 2.53615e-05
218 22.8169 4.54926 0.527151 0 0 1.00031 2.53196e-05
223 24.6213 3.71132 1.56046 0 0 1.00031 1.95214e-05
221 23.7358 3.82932 0.779577 0 0 1.00031 2.07933e-05
222 24.5058 4.53035 0.630043 0 0 1.00031 2.28481e-05
224 23.6601 4.75504 1.34039 0 0 1.00031 2.58225e-05
301 23.7476 5.28581 0.535363 0 0 1.00031 2.75728e-05
228 25.1844 4.69274 1.61437 0 0 1.00031 2.25891e-05
227 25.8534 3.67786 1.51914 0 0 1.00031 1.7363e-05
229 26.302 3.67311 0.597036 0 0 1.00031 1.62912e-05
225 25.2063 3.85156 0.792733 0 0 1.00031 1.88052e-05
232 26.5075 4.46634 1.37531 0 0 1.00031 1.8603e-05
309 26.6644 5.15356 0.644051 0 0 1.00031 2.02036e-05
226 25.6915 4.59271 0.400869 0 0 1.00031 2.05734e-05
311 27.4809 5.03316 1.40554 0 0 1.00031 1.78727e-05
236 28.0859 4.11158 1.10812 0 0 1.00031 1.40351e-05
313 28.4123 4.87213 0.705133 0 0 1.00031 1.45933e-05
230 27.1984 4.19762 0.579231 0 0 1.00031 1.62186e-05
234 29.0438 3.88382 0.481437 0 0 1.00031 1.11916e-05
315 29.2124 4.6323 1.32679 0 0 1.00031 1.2252e-05
240 30.1082 4.14242 1.02852 0 0 1.00031 9.20719e-06
238 31.1369 4.02847 0.36626 0 0 1.00031 6.68706e-06
317 30.3291 4.76119 0.48254 0 0 1.00031 9.26936e-06
319 31.0991 4.65449 1.40139 0 0 1.00031 7.44024e-06
242 1.04554 5.52326 0.460588 0 0 1.00031 3.75199e-06
248 1.67258 5.48246 1.37449 0 0 1.00031 5.67172e-06
323 0.941036 6.20782 1.27539 0 0 1.00031 3.878e-06
324 0.402121 6.93926 1.50112 0 0 1.00031 2.53244e-06
322 1.12094 6.92892 0.569293 0 0 1.00031 4.4378e-06
321 0.120212 6.02624 0.447778 0 0 1.00031 1.54381e-06
328 1.85929 6.98417 1.23893 0 0 1.00031 7.02062e-06
325 2.03794 6.15644 0.510902 0 0 1.00031 6.96097e-06
252 3.26467 5.54366 1.29236 0 0 1.00031 1.02508e-05
327 2.42297 6.09976 1.4064 0 0 1.00031 8.42361e-06
246 2.82833 5.54177 0.271668 0 0 1.00031 8.55938e-06
332 3.41793 6.86998 1.13281 0 0 1.00031 1.2212e-05
329 3.56004 6.18323 0.489832 0 0 1.00031 1.16406e-05
250 4.35172 5.35841 0.321695 0 0 1.00031 1.2638e-05
331 4.29927 5.97924 1.22434 0 0 1.00031 1.4064e-05
333 5.00882 6.10686 0.325261 0 0 1.00031 1.62398e-05
336 4.96429 6.6707 1.15632 0 0 1.00031 1.77184e-05
330 4.17712 6.90064 0.222592 0 0 1.00031 1.47975e-05
256 5.10779 5.30794 1.30173 0 0 1.00031 1.50497e-05
254 5.95398 5.27687 0.292074 0 0 1.00031 1.68105e-05
335 5.87911 6.08326 0.956085 0 0 1.00031 1.93951e-05
1177 6.67237 5.82549 1.59347 0 0 1.00031 2.14246e-05
340 6.65543 6.69714 0.986841 0 0 1.00031 2.38974e-05
337 6.59236 5.9055 0.145465 0 0 1.00031 2.04078e-05
334 5.74845 6.89122 0.146127 0 0 1.00031 2.06053e-05
339 7.54208 5.98485 0.752201 0 0 1.00031 2.3756e-05
344 8.2678 6.67283 0.718296 0 0 1.00031 2.86469e-05
1178 7.52146 6.66743 1.59253 0 0 1.00031 2.74156e-05
1181 8.47539 5.93895 1.49162 0 0 1.00031 2.6943e-05
343 9.13799 6.01998 0.733446 0 0 1.00031 2.80529e-05
1185 10.0166 6.01792 1.47015 0 0 1.00031 3.11205e-05
1182 9.36215 6.77023 1.45733 0 0 1.00031 3.34659e-05
345 10.0253 6.08312 0.0898943 0 0 1.00031 2.99055e-05
262 9.23612 5.32036 0.0174183 0 0 1.00031 2.46366e-05
347 10.8718 5.88126 0.947102 0 0 1.00031 3.08323e-05
349 11.6112 6.23897 0.0676295 0 0 1.00031 3.35155e-05
346 10.821 6.796 0.138737 0 0 1.00031 3.55001e-05
1186 10.7775 6.76585 1.48937 0 0 1.00031 3.73037e-05
352 11.6219 6.99923 0.803669 0 0 1.00031 3.91345e-05
270 12.2813 5.51764 0.179955 0 0 1.00031 3.00847e-05
276 12.981 5.72596 0.85808 0 0 1.00031 3.26249e-05
351 12.0806 6.09982 1.04749 0 0 1.00031 3.43977e-05
1190 12.4284 7.03602 1.37781 0 0 1.00031 4.22903e-05
274 13.6121 5.48213 0.0364687 0 0 1.00031 3.10038e-05
1114 13.6547 5.80241 1.56409 0 0 1.00031 3.49003e-05
355 13.6902 6.50328 0.798721 0 0 1.00031 3.83752e-05
280 14.3803 5.68787 0.771362 0 0 1.00031 3.36182e-05
1197 14.6744 6.61516 1.41492 0 0 1.00031 4.22314e-05
357 14.4648 6.35531 0.0344107 0 0 1.00031 3.78434e-05
278 15.3243 5.64021 0.0361027 0 0 1.00031 3.32342e-05
284 16.1543 5.77481 0.945563 0 0 1.00031 3.54237e-05
359 15.387 6.46091 0.801464 0 0 1.00031 4.00251e-05
1118 15.451 5.87681 1.6943 0 0 1.00031 3.73519e-05
361 16.015 6.37701 0.0414282 0 0 1.00031 3.90872e-05
363 16.8324 6.52672 1.14675 0 0 1.00031 4.17146e-05
282 16.9209 5.49338 0.2696 0 0 1.00031 3.28754e-05
286 18.1248 5.43134 0.533951 0 0 1.00031 3.33014e-05
288 17.4162 5.51741 1.24564 0 0 1.00031 3.45361e-05
365 17.4053 6.37252 0.40421 0 0 1.00031 4.01949e-05
367 17.9965 6.36909 1.3747 0 0 1.00031 4.16234e-05
292 19.062 5.42668 1.20081 0 0 1.00031 3.40213e-05
369 18.6949 6.37583 0.615966 0 0 1.00031 4.03164e-05
290 19.7255 5.92514 0.622686 0 0 1.00031 3.6799e-05
371 19.6392 6.74308 1.34631 0 0 1.00031 4.38697e-05
373 20.3027 6.94593 0.610784 0 0 1.00031 4.37023e-05
294 21.0288 5.97607 0.64936 0 0 1.00031 3.60371e-05
296 20.4599 5.8035 1.39597 0 0 1.00031 3.63181e-05
375 21.0704 6.83314 1.30893 0 0 1.00031 4.27517e-05
299 22.7058 5.38731 1.28365 0 0 1.00031 3.08307e-05
377 21.9263 6.90106 0.674981 0 0 1.00031 4.06908e-05
300 21.9173 6.09734 1.37796 0 0 1.00031 3.65406e-05
16260 21.9493 5.95171 0.0563131 0 0 1.00031 3.44899e-05
298 22.9071 6.06575 0.661267 0 0 1.00031 3.34299e-05
379 22.8869 6.93559 1.21085 0 0 1.00031 3.90714e-05
305 25.0433 5.45651 0.567953 0 0 1.00031 2.54782e-05
381 23.5913 7.0131 0.277841 0 0 1.00031 3.67244e-05
303 24.5591 5.51187 1.43886 0 0 1.00031 2.74294e-05
304 23.7118 6.12401 1.29347 0 0 1.00031 3.24867e-05
383 24.5467 6.81076 1.17232 0 0 1.00031 3.30027e-05
302 24.3577 6.22854 0.42721 0 0 1.00031 3.07907e-05
307 25.8714 5.34192 1.35062 0 0 1.00031 2.32603e-05
306 25.8772 6.07015 0.697172 0 0 1.00031 2.53243e-05
308 25.3143 6.26086 1.67078 0 0 1.00031 2.86504e-05
385 25.3667 6.95778 0.496601 0 0 1.00031 3.0122e-05
387 26.0388 6.82271 1.41056 0 0 1.00031 2.77889e-05
312 26.865 6.04067 1.4743 0 0 1.00031 2.24077e-05
310 27.6596 5.71027 0.718956 0 0 1.00031 1.86214e-05
389 26.9289 6.56012 0.646727 0 0 1.00031 2.32686e-05
391 27.8667 6.63836 1.36999 0 0 1.00031 2.02487e-05
316 28.5182 5.66622 1.47757 0 0 1.00031 1.62332e-05
314 29.5252 5.41643 0.815153 0 0 1.00031 1.25115e-05
395 29.5869 6.29982 1.32097 0 0 1.00031 1.3679e-05
394 29.7327 7.02447 0.50951 0 0 1.00031 1.39005e-05
393 28.6292 6.35288 0.646098 0 0 1.00031 1.69509e-05
16355 29.5231 6.25593 0.0767053 0 0 1.00031 1.38211e-05
16276 28.6281 5.52842 0.0531126 0 0 1.00031 1.52303e-05
318 31.0977 5.41794 0.593936 0 0 1.00031 8.26161e-06
320 30.3556 5.53685 1.46053 0 0 1.00031 1.03458e-05
397 30.5363 6.25956 0.645509 0 0 1.00031 1.05052e-05
399 31.3589 6.19868 1.38224 0 0 1.00031 8.06866e-06
398 31.351 6.9975 0.605134 0 0 1.00031 8.26451e-06
401 0.413969 7.64938 0.656589 0 0 1.00031 2.1885e-06
402 0.993333 8.45553 0.610301 0 0 1.00031 4.02108e-06
403 1.26382 7.83318 1.49036 0 0 1.00031 5.25418e-06
404 0.507266 8.56697 1.46612 0 0 1.00031 2.34137e-06
405 1.75245 7.7236 0.374529 0 0 1.00031 6.59291e-06
408 1.88701 8.56562 1.45904 0 0 1.00031 7.76942e-06
326 2.64493 7.07353 0.46971 0 0 1.00031 9.64678e-06
406 2.36227 8.55686 0.396751 0 0 1.00031 9.26875e-06
407 2.56128 7.73654 1.27609 0 0 1.00031 1.0018e-05
412 3.19261 8.41372 0.934611 0 0 1.00031 1.29821e-05
409 3.41575 7.66164 0.325127 0 0 1.00031 1.29667e-05
410 3.9994 8.33042 0.0729097 0 0 1.00031 1.60726e-05
411 4.16672 7.52352 1.22803 0 0 1.00031 1.60906e-05
416 4.89783 8.10931 0.929005 0 0 1.00031 2.00438e-05
413 4.87162 7.49901 0.234798 0 0 1.00031 1.83249e-05
1250 4.00049 8.22561 1.76284 0 0 1.00031 1.7145e-05
414 6.08757 8.16674 0.173364 0 0 1.00031 2.48033e-05
415 5.69396 7.41415 1.01443 0 0 1.00031 2.18058e-05
420 6.62851 8.01762 1.03998 0 0 1.00031 2.73909e-05
495 5.53374 8.76951 0.649788 0 0 1.00031 2.39842e-05
417 6.71581 7.37001 0.160131 0 0 1.00031 2.55368e-05
419 7.53412 7.56439 0.739696 0 0 1.00031 2.96325e-05
1258 7.52777 7.95023 1.68783 0 0 1.00031 3.22526e-05
1261 8.32399 7.28418 1.55146 0 0 1.00031 3.27861e-05
421 8.25788 7.41771 0.0175983 0 0 1.00031 3.12141e-05
499 7.40267 8.66265 0.710109 0 0 1.00031 3.24476e-05
424 8.53888 8.10542 0.864834 0 0 1.00031 3.57228e-05
423 9.19018 7.42479 0.658637 0 0 1.00031 3.46915e-05
428 10.0309 8.41302 0.690508 0 0 1.00031 4.26556e-05
1262 9.36865 8.46593 1.43715 0 0 1.00031 4.19749e-05
1265 9.96626 7.67998 1.587 0 0 1.00031 4.06162e-05
348 10.1195 7.03754 0.723296 0 0 1.00031 3.58568e-05
427 10.8901 7.75755 0.832578 0 0 1.00031 4.20913e-05
1266 10.9077 8.5247 1.42563 0 0 1.00031 4.80345e-05
429 11.5531 7.95817 0.0377586 0 0 1.00031 4.40846e-05
432 11.692 8.67348 0.724345 0 0 1.00031 4.93144e-05
426 10.7161 8.68047 0.0230097 0 0 1.00031 4.557e-05
1269 11.7347 7.65743 1.5887 0 0 1.00031 4.58365e-05
356 13.0514 7.19915 0.57132 0 0 1.00031 4.25574e-05
431 12.5196 8.09224 0.59247 0 0 1.00031 4.74981e-05
1270 12.4361 8.53459 1.49385 0 0 1.00031 5.28266e-05
1273 13.2162 7.89814 1.47385 0 0 1.00031 5.0233e-05
360 14.6756 7.32238 0.607762 0 0 1.00031 4.59429e-05
435 13.9767 8.0348 0.479056 0 0 1.00031 4.98442e-05
1194 13.8403 7.26428 1.35552 0 0 1.00031 4.55356e-05
1277 14.6386 8.12267 1.35793 0 0 1.00031 5.36307e-05
1274 14.0627 8.78722 1.56482 0 0 1.00031 5.87318e-05
364 16.0021 7.33566 0.899881 0 0 1.00031 4.69566e-05
439 15.4609 8.29169 0.863379 0 0 1.00031 5.43575e-05
443 16.6499 8.22314 1.10456 0 0 1.00031 5.55233e-05
1198 15.5194 7.53009 1.64489 0 0 1.00031 5.10369e-05
441 16.2246 8.34491 0.149194 0 0 1.00031 5.44555e-05
362 16.7967 7.25493 0.285348 0 0 1.00031 4.66041e-05
368 17.3511 7.45069 1.112 0 0 1.00031 4.97385e-05
445 17.4257 8.21469 0.319686 0 0 1.00031 5.48889e-05
447 18.0847 8.16944 1.03745 0 0 1.00031 5.5162e-05
366 18.1699 7.30976 0.223786 0 0 1.00031 4.74984e-05
372 18.6202 7.20996 1.15051 0 0 1.00031 4.80247e-05
370 19.3523 7.51532 0.630836 0 0 1.00031 4.86392e-05
451 19.2861 8.34785 1.18646 0 0 1.00031 5.69973e-05
449 18.8086 8.36142 0.190659 0 0 1.00031 5.49554e-05
453 20.1319 8.3518 0.367897 0 0 1.00031 5.43335e-05
376 20.2092 7.87296 1.32509 0 0 1.00031 5.21489e-05
374 21.0081 7.69215 0.660363 0 0 1.00031 4.79575e-05
455 20.9762 8.68342 1.0426 0 0 1.00031 5.5623e-05
380 21.8427 7.92482 1.15052 0 0 1.00031 4.80657e-05
457 21.9058 8.60492 0.268755 0 0 1.00031 5.11088e-05
459 22.8616 8.46047 1.02004 0 0 1.00031 4.75556e-05
378 22.6148 7.73501 0.389295 0 0 1.00031 4.3548e-05
384 23.6984 7.58701 1.06826 0 0 1.00031 3.95481e-05
461 23.7326 8.34962 0.375624 0 0 1.00031 4.24901e-05
463 24.5798 8.36538 1.00345 0 0 1.00031 3.95506e-05
382 24.5594 7.57167 0.279835 0 0 1.00031 3.56345e-05
388 25.338 7.63929 1.2535 0 0 1.00031 3.33249e-05
467 26.2287 8.24726 0.997488 0 0 1.00031 3.11583e-05
386 26.2827 7.49081 0.375137 0 0 1.00031 2.85317e-05
465 25.4415 8.37075 0.31603 0 0 1.00031 3.50808e-05
466 26.4619 8.82279 0.0979775 0 0 1.00031 3.09109e-05
390 27.8844 7.18139 0.527907 0 0 1.00031 2.10892e-05
392 26.9789 7.32376 1.33985 0 0 1.00031 2.55678e-05
470 28.1346 8.68707 0.422157 0 0 1.00031 2.24001e-05
471 27.9784 8.0177 1.21487 0 0 1.00031 2.25411e-05
469 27.1844 7.99011 0.435876 0 0 1.00031 2.57743e-05
396 28.8126 7.25499 1.2316 0 0 1.00031 1.77389e-05
474 29.753 8.48322 0.542849 0 0 1.00031 1.4925e-05
475 29.6591 7.79972 1.27979 0 0 1.00031 1.49695e-05
476 28.9393 8.71157 1.18851 0 0 1.00031 1.87905e-05
473 28.8629 7.87225 0.417824 0 0 1.00031 1.81409e-05
400 30.4785 7.17242 1.18096 0 0 1.00031 1.12549e-05
479 31.4008 7.86711 1.2981 0 0 1.00031 8.3939e-06
480 30.5842 8.57412 1.18688 0 0 1.00031 1.14977e-05
477 30.7888 7.94444 0.383535 0 0 1.00031 1.04927e-05
478 31.577 8.65708 0.391905 0 0 1.00031 7.65514e-06
482 1.26301 10.2503 0.268418 0 0 1.00031 4.27591e-06
483 1.1683 9.34663 1.19824 0 0 1.00031 4.54537e-06
484 0.399054 9.94467 0.899025 0 0 1.00031 1.04404e-06
481 0.515642 9.34526 0.122817 0 0 1.00031 1.95739e-06
1322 0.956859 10.108 1.74789 0 0 1.00031 3.4917e-06
485 1.90784 9.39215 0.444702 0 0 1.00031 7.53054e-06
488 1.97095 10.2957 0.966685 0 0 1.00031 7.65098e-06
486 2.74203 10.1723 0.0774434 0 0 1.00031 1.11779e-05
487 2.5336 9.35591 1.21337 0 0 1.00031 1.04874e-05
1326 2.9237 10.1163 1.66115 0 0 1.00031 1.2827e-05
489 3.23954 9.25024 0.0835127 0 0 1.00031 1.33306e-05
1329 3.38218 9.11531 1.65526 0 0 1.00031 1.47531e-05
492 3.54174 9.9037 0.734355 0 0 1.00031 1.51813e-05
491 4.1133 8.96442 0.851591 0 0 1.00031 1.75881e-05
23115 10.3423 15.1792 14.1913 0 0 1.00037 0.00145319
496 4.78324 9.80497 0.564312 0 0 1.00031 2.1698e-05
1330 4.29895 9.79846 1.59735 0 0 1.00031 2.00683e-05
1333 4.87009 8.88894 1.63465 0 0 1.00031 2.21215e-05
500 6.44883 9.57938 0.509735 0 0 1.00031 3.01304e-05
1334 5.5217 9.63132 1.16618 0 0 1.00031 2.58993e-05
1337 6.37509 8.85142 1.24897 0 0 1.00031 2.91779e-05
1417 6.44346 10.283 1.1837 0 0 1.00031 3.2197e-05
575 5.58225 10.496 0.435151 0 0 1.00031 2.67171e-05
501 8.35628 8.82392 0.0766834 0 0 1.00031 3.70327e-05
504 8.21289 9.68959 0.568002 0 0 1.00031 3.96338e-05
1338 7.40266 9.50158 1.18558 0 0 1.00031 3.60506e-05
1341 8.30306 8.92794 1.3859 0 0 1.00031 3.89943e-05
1421 7.89839 10.3751 1.34322 0 0 1.00031 4.16703e-05
579 7.14474 10.4427 0.459896 0 0 1.00031 3.59141e-05
503 9.21363 9.21652 0.715917 0 0 1.00031 4.30442e-05
508 9.91862 10.0873 0.657957 0 0 1.00031 4.98803e-05
1342 9.01435 9.98416 1.3964 0 0 1.00031 4.65954e-05
1345 10.1247 9.34256 1.40496 0 0 1.00031 4.94341e-05
507 10.7728 9.46947 0.654515 0 0 1.00031 5.05885e-05
1346 10.9427 9.94387 1.61862 0 0 1.00031 5.68925e-05
1349 11.6581 9.42983 1.31943 0 0 1.00031 5.56051e-05
512 11.509 10.3682 0.719326 0 0 1.00031 5.77937e-05
436 13.3405 8.84361 0.779159 0 0 1.00031 5.46052e-05
511 12.4345 9.64561 0.685392 0 0 1.00031 5.74282e-05
516 13.1542 10.3417 0.948238 0 0 1.00031 6.37811e-05
1353 12.9272 9.472 1.60631 0 0 1.00031 6.15739e-05
1350 12.3153 10.389 1.58385 0 0 1.00031 6.48001e-05
510 12.0873 10.5278 0.0212083 0 0 1.00031 5.93361e-05
440 14.8297 9.15015 0.765126 0 0 1.00031 5.94996e-05
515 13.8952 9.61019 0.839395 0 0 1.00031 6.08024e-05
1354 13.8658 10.3181 1.69682 0 0 1.00031 6.97722e-05
517 14.6246 10.0835 0.215245 0 0 1.00031 6.48297e-05
1357 14.6758 9.74931 1.76039 0 0 1.00031 6.82863e-05
444 16.278 9.20065 1.13184 0 0 1.00031 6.33033e-05
1278 15.4571 9.05707 1.75913 0 0 1.00031 6.41835e-05
519 15.5034 9.87027 1.01412 0 0 1.00031 6.68737e-05
521 16.0461 10.2044 0.240388 0 0 1.00031 6.82377e-05
438 15.6518 9.21139 0.115926 0 0 1.00031 6.02143e-05
523 16.8704 10.046 0.967918 0 0 1.00031 7.02268e-05
442 16.8692 9.12991 0.262999 0 0 1.00031 6.1354e-05
448 17.4722 9.1748 1.12448 0 0 1.00031 6.39411e-05
525 17.5175 10.1473 0.197651 0 0 1.00031 6.97289e-05
527 18.1347 10.025 1.07739 0 0 1.00031 7.05257e-05
446 18.125 9.25777 0.120629 0 0 1.00031 6.24873e-05
452 18.6668 9.08815 0.952198 0 0 1.00031 6.29016e-05
529 18.9418 9.9437 0.306625 0 0 1.00031 6.81578e-05
531 19.8313 10.1463 0.875115 0 0 1.00031 6.87532e-05
1369 19.0145 9.80973 1.72222 0 0 1.00031 7.15951e-05
450 19.5794 9.18261 0.216047 0 0 1.00031 6.14266e-05
456 20.1657 9.20728 1.06053 0 0 1.00031 6.17117e-05
533 20.3213 10.0489 0.0699645 0 0 1.00031 6.56943e-05
535 21.2381 10.1055 0.780535 0 0 1.00031 6.35856e-05
1373 20.5668 9.95542 1.68641 0 0 1.00031 6.85611e-05