ITEM: TIMESTEP
15000
ITEM: NUMBER OF ATOMS
32000
ITEM: BOX BOUNDS pp pp pp
0.0000000000000000e+00 3.1748021039364001e+01
0.0000000000000000e+00 3.1748021039364001e+01
0.0000000000000000e+00 3.1748021039364001e+01
ITEM: ATOMS id x y z c_phase c_nbond c_rho v_omega
4 0.157879 1.12939 0.466208 0 0 1.00048 7.77678e-07
83 1.03995 1.6554 0.778505 0 0 1.00048 2.75193e-06
842 0.744683 0.792044 1.40903 0 0 1.00048 1.35097e-06
921 0.0706217 1.63469 1.37584 0 0 1.00048 1.35948e-06
3 0.726687 0.0653343 0.617271 0 0 1.00048 3.59172e-07
8 1.74132 0.77032 1.01326 0 0 1.00048 2.44488e-06
85 1.86441 1.4315 0.217052 0 0 1.00048 3.6203e-06
925 1.8964 1.60576 1.7533 0 0 1.00048 4.06427e-06
6 2.54807 0.670241 0.20174 0 0 1.00048 3.25101e-06
87 2.71401 1.45657 0.876082 0 0 1.00048 4.83345e-06
846 2.7055 0.732814 1.73754 0 0 1.00048 3.59617e-06
12 3.46932 0.815568 0.956637 0 0 1.00048 4.59856e-06
929 3.68521 1.58023 1.71095 0 0 1.00048 6.42589e-06
10 4.14767 0.721945 0.318626 0 0 1.00048 4.84402e-06
16 4.99704 0.404432 1.15763 0 0 1.00048 4.8005e-06
93 5.00052 1.43659 0.382351 0 0 1.00048 7.34969e-06
850 4.37878 0.794837 1.62903 0 0 1.00048 5.603e-06
22288 11.6376 15.6482 11.9641 0 0 1.00065 0.00145717
91 4.09674 1.69978 0.711201 0 0 1.00048 7.16596e-06
14 5.68059 0.468435 0.316513 0 0 1.00048 5.30725e-06
95 5.95469 1.12944 0.944095 0 0 1.00048 7.2165e-06
97 6.65389 1.20298 0.217721 0 0 1.00048 7.51323e-06
854 5.8108 0.276039 1.69613 0 0 1.00048 4.93921e-06
933 5.11287 1.5424 1.43376 0 0 1.00048 8.09241e-06
20 6.73141 0.204243 0.867583 0 0 1.00048 4.74893e-06
937 6.74822 0.811974 1.69175 0 0 1.00048 6.70476e-06
24 8.28376 0.208068 1.06266 0 0 1.00048 4.57671e-06
99 7.44105 1.02356 0.948752 0 0 1.00048 7.3037e-06
101 8.33543 1.18768 0.233603 0 0 1.00048 7.79378e-06
941 8.21843 1.05976 1.61046 0 0 1.00048 7.99984e-06
18 7.61967 0.457103 0.149686 0 0 1.00048 5.3503e-06
22 8.88555 0.309114 0.262664 0 0 1.00048 4.43828e-06
28 9.57453 0.14258 0.895915 0 0 1.00048 3.14395e-06
103 9.1081 1.10777 1.09847 0 0 1.00048 7.48641e-06
945 9.65833 0.776496 1.76143 0 0 1.00048 5.86722e-06
105 9.73321 1.17488 0.0987078 0 0 1.00048 7.16118e-06
32 11.2173 0.0602759 0.640054 0 0 1.00048 1.42397e-06
107 10.4446 0.874462 0.82702 0 0 1.00048 5.62456e-06
866 10.5245 0.0215127 1.44951 0 0 1.00048 2.05141e-06
949 11.3758 0.856086 1.41713 0 0 1.00048 5.01623e-06
946 10.7137 1.50343 1.72337 0 0 1.00048 8.71712e-06
26 10.2657 0.18797 0.0787585 0 0 1.00048 2.80737e-06
112 11.3135 1.67298 0.773696 0 0 1.00048 8.85452e-06
36 12.8931 0.116695 0.63894 0 0 1.00048 -6.57499e-08
111 12.1289 0.946424 0.512604 0 0 1.00048 4.52049e-06
870 12.1517 0.184976 1.30335 0 0 1.00048 1.21367e-06
953 12.8286 1.08488 1.37346 0 0 1.00048 4.88111e-06
40 14.4018 0.288195 0.773411 0 0 1.00048 -4.92383e-07
115 13.6901 1.04428 0.842905 0 0 1.00048 3.751e-06
117 14.1911 1.50533 0.158998 0 0 1.00048 5.74314e-06
874 13.6404 0.286748 1.63532 0 0 1.00048 1.70922e-07
957 14.4861 1.12115 1.47928 0 0 1.00048 3.63511e-06
119 15.0245 1.54487 0.665694 0 0 1.00048 5.31461e-06
44 15.7821 0.794619 0.789229 0 0 1.00048 1.33201e-06
123 16.6948 1.61921 0.685199 0 0 1.00048 5.41014e-06
878 15.1853 0.46462 1.64036 0 0 1.00048 -9.12273e-08
882 16.6135 0.780112 1.34517 0 0 1.00048 1.12379e-06
961 15.775 1.51848 1.39721 0 0 1.00048 5.3995e-06
38 15.1658 0.709552 0.0696891 0 0 1.00048 8.0968e-07
48 17.3289 0.834069 0.556713 0 0 1.00048 1.19525e-06
127 18.0727 1.72622 0.754583 0 0 1.00048 6.24852e-06
886 17.9877 0.883043 1.42607 0 0 1.00048 1.97703e-06
47 18.1553 0.0691735 0.692824 0 0 1.00048 -2.12488e-06
51 19.5383 0.20344 0.668567 0 0 1.00048 -3.8952e-07
52 18.855 0.90126 0.689615 0 0 1.00048 2.15879e-06
131 19.6776 1.76018 0.841868 0 0 1.00048 7.05338e-06
889 19.0311 0.334146 1.54795 0 0 1.00048 -4.18001e-07
890 19.6865 1.1723 1.69422 0 0 1.00048 4.65121e-06
969 18.8081 1.68239 1.49998 0 0 1.00048 6.5212e-06
129 19.0089 1.76169 0.00230216 0 0 1.00048 6.48532e-06
55 21.1409 0.58744 1.07165 0 0 1.00048 2.15057e-06
56 20.314 0.997655 0.970816 0 0 1.00048 3.7e-06
54 21.2448 1.01404 0.214762 0 0 1.00048 4.29024e-06
133 20.475 1.74363 0.201376 0 0 1.00048 7.22084e-06
893 20.45 0.0987606 1.43552 0 0 1.00048 1.80898e-07
53 20.2792 0.0828915 0.0723441 0 0 1.00048 -2.50518e-07
57 22.0383 0.532495 0.538776 0 0 1.00048 2.76719e-06
59 22.8378 0.697453 1.40343 0 0 1.00048 3.95234e-06
60 22.208 1.42606 1.33135 0 0 1.00048 6.96194e-06
58 22.9847 1.33165 0.462351 0 0 1.00048 6.20415e-06
63 24.28 0.652016 1.42744 0 0 1.00048 4.35835e-06
61 23.5974 0.619155 0.575325 0 0 1.00048 3.84259e-06
62 24.5095 1.4485 0.748761 0 0 1.00048 6.80781e-06
64 23.576 1.51832 1.39486 0 0 1.00048 7.37423e-06
65 24.985 0.577058 0.543779 0 0 1.00048 4.15921e-06
67 26.0258 0.623568 1.16899 0 0 1.00048 4.10368e-06
68 25.2379 1.39568 1.4663 0 0 1.00048 6.80621e-06
66 25.9471 1.18994 0.426491 0 0 1.00048 5.58571e-06
17548 25.1623 0.0388583 1.36366 0 0 1.00048 2.72195e-06
70 27.64 1.48776 0.386308 0 0 1.00048 4.93155e-06
71 27.6364 0.707455 0.872941 0 0 1.00048 3.36847e-06
72 26.8053 1.26042 1.25652 0 0 1.00048 5.22424e-06
913 28.3975 0.520663 1.40871 0 0 1.00048 2.43873e-06
69 26.8024 0.468027 0.234168 0 0 1.00048 3.32721e-06
76 28.7041 1.40201 0.735095 0 0 1.00048 3.53668e-06
914 29.4232 1.09512 1.568 0 0 1.00048 2.44221e-06
917 29.8227 0.287655 1.45784 0 0 1.00048 7.20351e-07
75 29.2861 0.494576 0.616743 0 0 1.00048 1.41317e-06
841 31.5941 0.306686 1.25613 0 0 1.00048 -1.24637e-06
79 30.7236 0.563402 0.475239 0 0 1.00048 -2.35621e-09
80 30.1462 1.30504 0.772949 0 0 1.00048 1.69237e-06
918 30.9007 1.04551 1.39042 0 0 1.00048 4.82817e-07
82 1.20914 2.4165 0.124102 0 0 1.00048 4.06231e-06
84 0.231083 2.40893 0.808899 0 0 1.00048 2.48193e-06
163 1.41554 3.19979 0.944073 0 0 1.00048 5.57695e-06
922 1.23709 2.33922 1.58798 0 0 1.00048 4.18397e-06
1001 0.507469 3.04826 1.54771 0 0 1.00048 3.69284e-06
161 0.454391 3.11877 0.129987 0 0 1.00048 3.48533e-06
88 2.01243 2.35934 0.782838 0 0 1.00048 5.31164e-06
167 2.79612 3.18502 0.856373 0 0 1.00048 8.21198e-06
926 2.77162 2.14375 1.53467 0 0 1.00048 6.34753e-06
86 2.82784 2.2936 0.0536886 0 0 1.00048 6.52187e-06
1005 2.23933 3.02586 1.75636 0 0 1.00048 6.95633e-06
1009 3.41627 3.29163 1.64638 0 0 1.00048 9.93066e-06
92 3.49862 2.43733 0.780496 0 0 1.00048 7.96659e-06
171 4.35584 3.16295 0.751137 0 0 1.00048 1.08485e-05
930 4.26894 2.48988 1.57829 0 0 1.00048 9.37373e-06
96 5.04018 2.39705 0.8164 0 0 1.00048 1.0149e-05
94 5.78403 2.25889 0.137479 0 0 1.00048 1.04696e-05
100 6.68702 1.98217 0.777558 0 0 1.00048 1.0286e-05
175 5.82642 2.99922 0.953455 0 0 1.00048 1.29407e-05
934 5.98207 2.00761 1.48965 0 0 1.00048 1.00699e-05
173 5.15526 3.14809 0.00426075 0 0 1.00048 1.2353e-05
1017 6.71315 2.84673 1.54454 0 0 1.00048 1.3676e-05
177 6.81246 2.72871 0.128011 0 0 1.00048 1.2708e-05
98 7.59176 2.01839 0.136088 0 0 1.00048 1.08177e-05
104 8.23873 1.98565 0.932894 0 0 1.00048 1.11347e-05
179 7.59425 2.8378 0.916484 0 0 1.00048 1.42319e-05
938 7.43243 1.84846 1.56521 0 0 1.00048 1.05457e-05
1021 8.39461 2.76572 1.64315 0 0 1.00048 1.48688e-05
181 8.46988 2.74959 0.0389873 0 0 1.00048 1.39792e-05
102 9.0565 1.89033 0.249191 0 0 1.00048 1.05006e-05
108 9.92827 1.82448 1.09744 0 0 1.00048 1.01608e-05
183 9.13911 2.75029 0.928444 0 0 1.00048 1.48979e-05
942 9.19582 2.00368 1.70766 0 0 1.00048 1.1823e-05
185 9.78289 2.70395 0.207239 0 0 1.00048 1.42763e-05
188 10.1609 3.37137 0.883759 0 0 1.00048 1.78797e-05
106 10.4494 1.92718 0.203322 0 0 1.00048 1.03589e-05
187 10.8451 2.61741 0.917827 0 0 1.00048 1.37303e-05
1029 11.6847 2.66852 1.58477 0 0 1.00048 1.45779e-05
1026 10.9945 3.38231 1.59054 0 0 1.00048 1.84898e-05
192 11.7046 3.47095 0.796884 0 0 1.00048 1.85332e-05
116 12.8498 1.83517 0.600447 0 0 1.00048 8.47162e-06
191 12.1607 2.5104 0.739493 0 0 1.00048 1.3052e-05
950 12.0991 1.78006 1.46463 0 0 1.00048 9.07146e-06
1033 13.129 2.90227 1.69202 0 0 1.00049 1.52958e-05
196 12.809 3.4752 0.813011 0 0 1.00048 1.85303e-05
195 13.4765 2.9321 0.838506 0 0 1.00048 1.42236e-05
954 13.5716 1.91258 1.47644 0 0 1.00048 8.65935e-06
120 14.2523 2.3927 0.922949 0 0 1.00048 1.08944e-05
1037 14.3574 3.32821 1.55382 0 0 1.00048 1.73589e-05
199 15.0291 3.41576 0.873042 0 0 1.00048 1.69457e-05
958 15.024 2.2956 1.44168 0 0 1.00048 1.0236e-05
197 14.4454 3.17672 0.039973 0 0 1.00048 1.52119e-05
114 13.6212 2.22111 0.0545824 0 0 1.00048 1.01264e-05
118 15.0817 2.49893 0.134475 0 0 1.00048 1.10207e-05
124 15.9294 2.47329 0.699258 0 0 1.00048 1.06082e-05
203 16.6164 3.26917 0.672025 0 0 1.00048 1.54661e-05
962 16.557 2.54466 1.5253 0 0 1.00048 1.1424e-05
1041 15.7064 3.2779 1.50375 0 0 1.00048 1.61863e-05
201 15.8775 3.28651 0.0222426 0 0 1.00048 1.57866e-05
965 17.3909 1.85332 1.56285 0 0 1.00048 7.25181e-06
128 17.2945 2.46049 0.680472 0 0 1.00048 1.03895e-05
207 18.2159 3.08431 0.708339 0 0 1.00048 1.41864e-05
966 18.2522 2.58665 1.59059 0 0 1.00048 1.18684e-05
1045 17.3911 3.22853 1.49978 0 0 1.00048 1.55946e-05
132 19.1073 2.5562 1.01291 0 0 1.00048 1.12621e-05
211 19.9781 3.47324 1.27342 0 0 1.00048 1.73061e-05
209 19.1466 3.20207 0.189346 0 0 1.00048 1.49509e-05
130 19.8014 2.54419 0.106905 0 0 1.00048 1.12182e-05
135 21.2332 1.89411 0.96043 0 0 1.00048 8.45739e-06
973 20.483 2.01693 1.73636 0 0 1.00048 9.32167e-06
134 21.3645 2.6841 0.455789 0 0 1.00048 1.20443e-05
136 20.4187 2.69814 1.10182 0 0 1.00048 1.27747e-05
213 20.6601 3.26384 0.328005 0 0 1.00048 1.53136e-05
137 22.1189 1.87719 0.521807 0 0 1.00048 8.56114e-06
139 23.0363 2.34556 1.51405 0 0 1.00048 1.08519e-05
138 23.1468 2.90143 0.730274 0 0 1.00048 1.26502e-05
140 22.2716 2.78451 1.23694 0 0 1.00048 1.31584e-05
217 22.2207 3.50131 0.604505 0 0 1.00048 1.65065e-05
141 23.8509 2.09849 0.621138 0 0 1.00048 9.10505e-06
143 24.5532 2.27245 1.59148 0 0 1.00048 1.01525e-05
142 24.511 2.97555 0.77322 0 0 1.00048 1.23633e-05
144 23.8783 3.19599 1.53362 0 0 1.00048 1.4201e-05
16108 25.1237 3.11207 0.00947745 0 0 1.00048 1.20374e-05
147 26.0311 1.99758 1.35496 0 0 1.00048 8.01599e-06
149 26.6466 2.03204 0.511649 0 0 1.00048 7.24078e-06
145 25.2447 2.12553 0.520689 0 0 1.00048 8.7966e-06
146 25.9421 2.87859 0.701249 0 0 1.00048 1.05536e-05
148 25.319 2.85082 1.52053 0 0 1.00048 1.12637e-05
152 26.6689 2.8214 1.52783 0 0 1.00048 9.66336e-06
151 27.5978 2.19863 1.23057 0 0 1.00048 6.58967e-06
153 28.3497 2.27805 0.344278 0 0 1.00048 5.69022e-06
150 27.2229 2.92438 0.636099 0 0 1.00048 8.74525e-06
156 28.3794 2.94832 1.19797 0 0 1.00048 7.15894e-06
233 28.1327 3.43215 0.334895 0 0 1.00048 8.48281e-06
993 28.5983 1.90299 1.50278 0 0 1.00048 4.84851e-06
997 30.0403 1.92533 1.70437 0 0 1.00048 3.01924e-06
155 29.5288 2.17476 0.881133 0 0 1.00048 3.82683e-06
154 29.3084 2.82553 0.28652 0 0 1.00048 5.22675e-06
235 29.3926 3.41432 1.17903 0 0 1.00048 6.16298e-06
159 30.9927 2.05253 0.922502 0 0 1.00048 1.51668e-06
160 30.293 2.81773 0.998776 0 0 1.00048 3.4516e-06
239 31.1603 3.41329 0.972421 0 0 1.00048 2.86173e-06
998 31.0979 2.76274 1.72557 0 0 1.00048 2.28472e-06
237 30.2513 3.36241 0.145894 0 0 1.00048 4.40186e-06
157 30.4858 2.00244 0.0304983 0 0 1.00048 2.14502e-06
158 31.2495 2.7232 0.0762179 0 0 1.00048 1.8226e-06
164 0.442621 3.80053 0.917422 0 0 1.00048 4.17019e-06
241 0.314535 4.62663 0.474877 0 0 1.00048 4.64633e-06
243 1.31183 4.6353 0.98411 0 0 1.00048 7.12659e-06
162 1.19371 3.84035 0.0659643 0 0 1.00048 5.63785e-06
168 2.01162 3.981 0.847323 0 0 1.00048 7.74133e-06
247 2.73183 4.75405 1.12528 0 0 1.00048 1.07753e-05
166 2.82259 4.04346 0.201419 0 0 1.00048 9.7087e-06
245 2.08481 4.89117 0.279951 0 0 1.00048 9.05867e-06
249 3.61317 4.71605 0.164201 0 0 1.00048 1.28103e-05
172 3.66603 3.93971 0.883755 0 0 1.00048 1.1262e-05
251 4.27308 4.7053 1.14805 0 0 1.00048 1.47425e-05
170 4.4446 4.01195 0.144519 0 0 1.00048 1.30342e-05
176 5.11184 3.81638 1.16237 0 0 1.00048 1.42629e-05
253 5.23443 4.54102 0.32988 0 0 1.00048 1.63194e-05
174 5.97218 3.72909 0.184376 0 0 1.00048 1.54419e-05
255 5.94147 4.49948 1.02697 0 0 1.00048 1.80812e-05
254 6.03806 5.17565 0.288472 0 0 1.00048 2.00103e-05
256 5.19398 5.21865 1.29567 0 0 1.00048 1.84284e-05
180 6.71933 3.55177 0.779129 0 0 1.00048 1.58067e-05
1097 6.9242 4.27202 1.64376 0 0 1.00048 1.95843e-05
260 6.94561 4.89197 0.868411 0 0 1.00048 2.12274e-05
259 7.67307 4.21591 0.55497 0 0 1.00048 1.99063e-05
1018 7.64897 3.62764 1.4982 0 0 1.00048 1.78811e-05
258 7.62865 5.09651 0.0346539 0 0 1.00048 2.33936e-05
1098 7.71454 5.12998 1.49218 0 0 1.00048 2.45668e-05
184 8.45893 3.64277 0.703497 0 0 1.00048 1.82757e-05
1101 8.50572 4.34825 1.47764 0 0 1.00048 2.2195e-05
264 8.53444 5.05176 0.696437 0 0 1.00048 2.50217e-05
263 9.38785 4.32355 0.813467 0 0 1.00048 2.26585e-05
1022 9.34436 3.53244 1.49897 0 0 1.00048 1.95054e-05
182 9.25618 3.63958 0.0562863 0 0 1.00048 1.87112e-05
1102 9.41026 5.06067 1.58325 0 0 1.00048 2.76279e-05
262 9.35727 5.21281 0.0202945 0 0 1.00048 2.69827e-05
268 10.1402 5.08058 0.793675 0 0 1.00048 2.75192e-05
265 10.176 4.29371 0.124403 0 0 1.00048 2.26483e-05
1105 10.204 4.11835 1.65513 0 0 1.00048 2.28853e-05
267 10.9389 4.43279 0.898567 0 0 1.00048 2.41662e-05
186 10.8882 3.64393 0.170216 0 0 1.00048 1.91181e-05
1106 10.9166 4.99496 1.75576 0 0 1.00048 2.85659e-05
269 11.7401 4.51608 0.216314 0 0 1.00048 2.40633e-05
1109 11.7267 4.20323 1.69322 0 0 1.00048 2.43652e-05
272 11.7995 5.08299 1.00119 0 0 1.00048 2.88483e-05
271 12.5656 4.40293 0.999751 0 0 1.00048 2.46841e-05
1113 13.2001 4.84105 1.68705 0 0 1.00048 2.82312e-05
273 13.0058 4.48732 0.0564163 0 0 1.00048 2.43226e-05
275 13.6254 4.60582 0.788497 0 0 1.00048 2.54003e-05
200 14.3663 4.06775 0.694241 0 0 1.00048 2.11462e-05
1034 13.8774 4.12815 1.58944 0 0 1.00048 2.30628e-05
1117 14.6523 5.05538 1.52271 0 0 1.00048 2.97802e-05
277 14.5574 4.83921 0.0745537 0 0 1.00048 2.5899e-05
279 15.3902 5.02077 0.812251 0 0 1.00048 2.76314e-05
198 15.334 4.1835 0.103498 0 0 1.00048 2.13632e-05
1038 15.3916 4.4038 1.59358 0 0 1.00048 2.41668e-05
204 16.0427 4.10278 0.912775 0 0 1.00048 2.12819e-05
281 16.2832 4.82686 0.179115 0 0 1.00048 2.54054e-05
1042 16.7131 4.04277 1.68104 0 0 1.00048 2.18808e-05
1121 16.2851 5.09291 1.645 0 0 1.00048 2.95349e-05
283 17.0013 4.69312 0.903276 0 0 1.00048 2.49387e-05
208 17.6233 3.95991 0.807003 0 0 1.00048 1.96542e-05
1046 18.2907 3.81375 1.65455 0 0 1.00048 1.97416e-05
285 17.8323 4.73256 0.0236807 0 0 1.00048 2.45056e-05
287 18.4701 4.67541 1.09308 0 0 1.00048 2.48828e-05
206 18.4768 4.02515 0.068832 0 0 1.00048 1.95592e-05
212 19.1863 3.92233 0.957601 0 0 1.00048 1.95647e-05
289 19.2066 4.83715 0.356032 0 0 1.00048 2.51586e-05
291 20.0499 4.92975 1.10699 0 0 1.00048 2.57094e-05
210 19.9077 4.00634 0.24149 0 0 1.00048 1.96087e-05
215 21.5755 3.58653 1.38797 0 0 1.00048 1.7006e-05
216 20.738 4.09691 1.23111 0 0 1.00048 2.01794e-05
295 21.235 5.03032 1.38149 0 0 1.00048 2.60034e-05
214 21.3957 4.23671 0.513752 0 0 1.00048 2.03043e-05
293 20.5176 5.06516 0.345235 0 0 1.00048 2.53672e-05
16179 22.9322 3.70514 0.0516892 0 0 1.00048 1.63328e-05
297 21.9473 5.28766 0.791502 0 0 1.00048 2.59276e-05
219 23.0825 3.93376 1.41114 0 0 1.00048 1.79573e-05
220 22.2357 4.45053 1.30996 0 0 1.00048 2.15511e-05
218 22.9179 4.66975 0.530104 0 0 1.00048 2.10709e-05
223 24.6914 3.82997 1.55683 0 0 1.00048 1.58386e-05
221 23.8141 3.94317 0.77437 0 0 1.00048 1.68861e-05
222 24.5897 4.65533 0.629819 0 0 1.00048 1.86793e-05
224 23.7591 4.87719 1.33843 0 0 1.00048 2.17219e-05
228 25.2715 4.80763 1.60277 0 0 1.00048 1.84444e-05
227 25.9154 3.78392 1.51736 0 0 1.00048 1.36859e-05
229 26.3628 3.77469 0.594129 0 0 1.00048 1.24832e-05
225 25.2732 3.95486 0.783161 0 0 1.00048 1.48542e-05
232 26.5798 4.57013 1.37241 0 0 1.00048 1.45724e-05
309 26.7453 5.26108 0.641539 0 0 1.00048 1.58754e-05
226 25.7704 4.70698 0.403709 0 0 1.00048 1.63093e-05
231 27.375 3.59272 1.41315 0 0 1.00048 1.03633e-05
311 27.5559 5.12917 1.40142 0 0 1.00048 1.37497e-05
236 28.1446 4.19125 1.1078 0 0 1.00048 1.03334e-05
230 27.2609 4.29111 0.579176 0 0 1.00048 1.23647e-05
313 28.4763 4.95065 0.701528 0 0 1.00048 1.04724e-05
234 29.0941 3.94736 0.477178 0 0 1.00048 7.51535e-06
315 29.2721 4.69323 1.32138 0 0 1.00048 8.4265e-06
240 30.1575 4.18138 1.02814 0 0 1.00048 5.61158e-06
238 31.1828 4.05159 0.362885 0 0 1.00048 3.11559e-06
317 30.3852 4.80136 0.47916 0 0 1.00048 5.3152e-06
319 31.1555 4.67715 1.39655 0 0 1.00048 3.76492e-06
244 0.284045 5.29332 1.27493 0 0 1.00048 5.23602e-06
242 1.111 5.50803 0.459966 0 0 1.00048 7.21518e-06
323 1.01324 6.19153 1.27488 0 0 1.00048 7.57493e-06
324 0.476592 6.94129 1.49638 0 0 1.00048 6.47795e-06
322 1.19475 6.90927 0.568503 0 0 1.00048 8.39295e-06
321 0.190779 6.03517 0.448041 0 0 1.00048 5.13142e-06
248 1.74197 5.45243 1.37155 0 0 1.00048 9.25114e-06
328 1.93614 6.94556 1.23962 0 0 1.00048 1.10664e-05
325 2.10792 6.11791 0.507649 0 0 1.00048 1.07503e-05
252 3.34277 5.48213 1.28878 0 0 1.00048 1.39029e-05
327 2.50334 6.05309 1.40292 0 0 1.00048 1.22857e-05
246 2.89763 5.48631 0.272491 0 0 1.00048 1.20788e-05
326 2.72334 7.01485 0.468443 0 0 1.00048 1.38449e-05
332 3.49897 6.80031 1.13622 0 0 1.00048 1.62481e-05
329 3.64135 6.11056 0.485991 0 0 1.00048 1.54312e-05
250 4.42996 5.27969 0.321737 0 0 1.00048 1.60969e-05
331 4.38162 5.89381 1.22381 0 0 1.00048 1.78147e-05
330 4.26553 6.81285 0.225175 0 0 1.00048 1.89348e-05
336 5.06224 6.57525 1.15731 0 0 1.00048 2.17992e-05
333 5.10091 6.01435 0.323005 0 0 1.00048 1.99967e-05
335 5.97397 5.9696 0.9564 0 0 1.00048 2.31052e-05
337 6.69751 5.8028 0.144623 0 0 1.00048 2.38054e-05
334 5.8496 6.77781 0.148607 0 0 1.00048 2.46951e-05
340 6.77073 6.57455 0.978189 0 0 1.00048 2.78301e-05
1177 6.78122 5.71205 1.59494 0 0 1.00048 2.48182e-05
339 7.65205 5.86405 0.755466 0 0 1.00048 2.69855e-05
1178 7.64658 6.53372 1.59365 0 0 1.00048 3.10921e-05
344 8.39877 6.54658 0.715622 0 0 1.00048 3.20229e-05
1181 8.59812 5.81909 1.49413 0 0 1.00048 2.99129e-05
343 9.27115 5.90257 0.736906 0 0 1.00048 3.07469e-05
1182 9.504 6.64541 1.45959 0 0 1.00048 3.65802e-05
1185 10.1645 5.90097 1.47499 0 0 1.00048 3.34768e-05
345 10.1618 5.9788 0.0902718 0 0 1.00048 3.22377e-05
347 11.0198 5.78411 0.94066 0 0 1.00048 3.24155e-05
346 10.9778 6.69583 0.133714 0 0 1.00048 3.77409e-05
1186 10.9426 6.65666 1.49016 0 0 1.00048 3.97203e-05
348 10.267 6.91157 0.725949 0 0 1.00048 3.87189e-05
266 10.8814 5.33944 0.00760953 0 0 1.00048 2.9292e-05
349 11.7655 6.14815 0.0652374 0 0 1.00048 3.47909e-05
352 11.7877 6.90284 0.805532 0 0 1.00048 4.10401e-05
270 12.4273 5.43855 0.182739 0 0 1.00048 3.05863e-05
276 13.1414 5.66291 0.858887 0 0 1.00048 3.28031e-05
351 12.2416 6.02467 1.04795 0 0 1.00048 3.55361e-05
1190 12.6209 6.95343 1.37905 0 0 1.00048 4.35957e-05
274 13.7631 5.43753 0.0346416 0 0 1.00048 3.0715e-05
1114 13.8277 5.75622 1.56861 0 0 1.00048 3.47605e-05
355 13.866 6.45054 0.79495 0 0 1.00048 3.80433e-05
280 14.5474 5.66196 0.771441 0 0 1.00048 3.28721e-05
1197 14.8602 6.58541 1.41992 0 0 1.00048 4.15325e-05
357 14.6401 6.33176 0.033986 0 0 1.00048 3.68958e-05
278 15.4793 5.63363 0.0376588 0 0 1.00048 3.14567e-05
284 16.3236 5.79218 0.940989 0 0 1.00048 3.31803e-05
359 15.5663 6.46446 0.800069 0 0 1.00048 3.84734e-05
1118 15.6302 5.87199 1.69211 0 0 1.00048 3.58077e-05
361 16.1903 6.39449 0.0433949 0 0 1.00048 3.67636e-05
363 17.0101 6.56896 1.14672 0 0 1.00048 3.88274e-05
282 17.0743 5.53436 0.266263 0 0 1.00048 3.00035e-05
286 18.279 5.50482 0.526168 0 0 1.00048 3.00351e-05
288 17.5748 5.56802 1.24206 0 0 1.00048 3.16974e-05
365 17.5843 6.42789 0.399139 0 0 1.00048 3.69541e-05
367 18.1699 6.43981 1.36488 0 0 1.00048 3.82237e-05
292 19.2056 5.51407 1.19753 0 0 1.00048 3.05143e-05
369 18.8618 6.46373 0.614375 0 0 1.00048 3.63083e-05
290 19.8784 6.02398 0.621804 0 0 1.00048 3.25585e-05
371 19.8021 6.85439 1.34294 0 0 1.00048 3.9442e-05
373 20.4631 7.06459 0.606805 0 0 1.00048 3.8573e-05
294 21.1712 6.09722 0.644126 0 0 1.00048 3.13382e-05
296 20.599 5.91876 1.38938 0 0 1.00048 3.21584e-05
375 21.2225 6.96735 1.30639 0 0 1.00048 3.78131e-05
299 22.8277 5.51627 1.28218 0 0 1.00048 2.6523e-05
377 22.0654 7.04628 0.672974 0 0 1.00048 3.53955e-05
300 22.0503 6.22928 1.36961 0 0 1.00048 3.19185e-05
16260 22.0813 6.08427 0.0530188 0 0 1.00048 2.96233e-05
298 23.0255 6.20678 0.653056 0 0 1.00048 2.84357e-05
301 23.846 5.4183 0.533966 0 0 1.00048 2.2965e-05
303 24.6594 5.64363 1.43605 0 0 1.00048 2.28795e-05
304 23.8294 6.26763 1.28557 0 0 1.00048 2.7642e-05
383 24.6632 6.95865 1.17275 0 0 1.00048 2.77265e-05
302 24.4686 6.36388 0.425844 0 0 1.00048 2.5795e-05
305 25.1393 5.5776 0.565181 0 0 1.00048 2.08235e-05
307 25.9626 5.46313 1.34959 0 0 1.00048 1.88766e-05
306 25.975 6.19406 0.692865 0 0 1.00048 2.04211e-05
308 25.4191 6.39215 1.65936 0 0 1.00048 2.37924e-05
387 26.1476 6.95718 1.40744 0 0 1.00048 2.26555e-05
312 26.953 6.15463 1.46892 0 0 1.00048 1.77312e-05
310 27.7398 5.80705 0.713726 0 0 1.00048 1.40637e-05
389 27.0201 6.67552 0.640868 0 0 1.00048 1.82635e-05
391 27.9499 6.73514 1.36837 0 0 1.00048 1.54352e-05
316 28.5955 5.74822 1.47005 0 0 1.00048 1.19837e-05
314 29.5912 5.47584 0.812749 0 0 1.00048 8.38266e-06
395 29.6617 6.36441 1.31739 0 0 1.00048 9.33561e-06
393 28.7098 6.43824 0.647135 0 0 1.00048 1.24094e-05
16355 29.5962 6.31646 0.0746403 0 0 1.00048 9.43829e-06
16276 28.6977 5.60789 0.0480019 0 0 1.00048 1.08317e-05
318 31.1615 5.44187 0.592022 0 0 1.00048 4.40758e-06
320 30.4225 5.57686 1.45488 0 0 1.00048 6.3446e-06
397 30.6047 6.30007 0.641563 0 0 1.00048 6.30366e-06
399 31.4273 6.21773 1.37975 0 0 1.00048 4.10477e-06
398 31.4247 7.01587 0.604696 0 0 1.00048 3.95508e-06
401 0.49035 7.65127 0.653111 0 0 1.00048 6.24383e-06
402 1.07454 8.44111 0.605843 0 0 1.00048 8.4517e-06
403 1.34062 7.80536 1.48594 0 0 1.00048 9.5244e-06
404 0.583172 8.56181 1.4632 0 0 1.00048 6.67699e-06
405 1.83162 7.68903 0.377602 0 0 1.00048 1.08242e-05
408 1.96971 8.52213 1.45699 0 0 1.00048 1.24247e-05
406 2.44755 8.50071 0.396559 0 0 1.00048 1.39743e-05
407 2.64711 7.67983 1.27661 0 0 1.00048 1.44366e-05
412 3.28416 8.33892 0.935674 0 0 1.00048 1.77998e-05
409 3.5031 7.58328 0.326814 0 0 1.00048 1.74049e-05
410 4.09365 8.23859 0.0709769 0 0 1.00048 2.08482e-05
411 4.26317 7.42511 1.21992 0 0 1.00048 2.03982e-05
416 4.99833 8.00431 0.935601 0 0 1.00049 2.47694e-05
413 4.97387 7.40172 0.232615 0 0 1.00048 2.26285e-05
1250 4.09915 8.13298 1.76409 0 0 1.00048 2.20613e-05
1333 4.97615 8.76841 1.63159 0 0 1.00048 2.73295e-05
414 6.19847 8.04362 0.181748 0 0 1.00048 2.93829e-05
415 5.80122 7.29637 1.00938 0 0 1.00048 2.59811e-05
495 5.63943 8.64996 0.646949 0 0 1.00048 2.90086e-05
1337 6.49278 8.71293 1.24768 0 0 1.00048 3.4428e-05
420 6.75011 7.87499 1.04318 0 0 1.00048 3.17875e-05
417 6.83254 7.25226 0.157715 0 0 1.00048 2.98145e-05
419 7.66419 7.42605 0.738217 0 0 1.00048 3.37909e-05
1258 7.65994 7.80023 1.68601 0 0 1.00048 3.64842e-05
499 7.52524 8.51861 0.71545 0 0 1.00048 3.71289e-05
421 8.3929 7.29164 0.0166059 0 0 1.00048 3.50955e-05
1261 8.46954 7.14717 1.55166 0 0 1.00048 3.66643e-05
424 8.67251 7.96606 0.866905 0 0 1.00048 3.99318e-05
423 9.33622 7.29814 0.662037 0 0 1.00048 3.81578e-05
1262 9.51537 8.31244 1.43618 0 0 1.00048 4.61754e-05
501 8.49191 8.67795 0.0788295 0 0 1.00048 4.17459e-05
1341 8.43934 8.77459 1.38678 0 0 1.00048 4.38702e-05
1265 10.1401 7.54374 1.58532 0 0 1.00048 4.40339e-05
428 10.1909 8.28002 0.693903 0 0 1.00048 4.6556e-05
427 11.0582 7.63756 0.830894 0 0 1.00048 4.4934e-05
1266 11.0808 8.4071 1.42858 0 0 1.00048 5.16437e-05
429 11.7244 7.85146 0.0385295 0 0 1.00048 4.65694e-05
426 10.8806 8.55011 0.0202541 0 0 1.00048 4.91277e-05
432 11.8607 8.56239 0.72475 0 0 1.00048 5.21677e-05
1269 11.912 7.55538 1.58361 0 0 1.00048 4.8244e-05
356 13.2348 7.13733 0.577862 0 0 1.00048 4.32875e-05
431 12.7 8.00288 0.596209 0 0 1.00048 4.90107e-05
1270 12.6224 8.4434 1.49866 0 0 1.00048 5.5016e-05
1273 13.409 7.83219 1.47485 0 0 1.00048 5.14745e-05
360 14.8614 7.29928 0.616948 0 0 1.00048 4.51165e-05
435 14.1682 7.99565 0.49008 0 0 1.00048 4.98847e-05
1194 14.0408 7.21402 1.36434 0 0 1.00048 4.53859e-05
1277 14.846 8.09071 1.36275 0 0 1.00048 5.28909e-05
1274 14.262 8.74987 1.56522 0 0 1.00048 5.93366e-05
436 13.521 8.77438 0.779689 0 0 1.00048 5.58191e-05
364 16.1935 7.34984 0.891362 0 0 1.00048 4.42725e-05
439 15.6659 8.28923 0.865348 0 0 1.00048 5.23926e-05
1198 15.7223 7.53449 1.65012 0 0 1.00048 4.95338e-05
441 16.4134 8.36761 0.147167 0 0 1.00048 5.11898e-05
443 16.8528 8.26206 1.09906 0 0 1.00048 5.2151e-05
362 16.9863 7.29799 0.288097 0 0 1.00048 4.33498e-05
368 17.549 7.50534 1.10582 0 0 1.00048 4.60949e-05
445 17.6149 8.28266 0.309466 0 0 1.00048 5.06462e-05
447 18.2781 8.25952 1.0356 0 0 1.00048 5.02257e-05
366 18.3541 7.3952 0.224601 0 0 1.00048 4.31261e-05
372 18.8042 7.30382 1.15332 0 0 1.00048 4.39249e-05
370 19.5294 7.62362 0.622888 0 0 1.00048 4.33135e-05
451 19.4741 8.46885 1.18359 0 0 1.00048 5.14506e-05
449 18.9897 8.46823 0.195521 0 0 1.00048 4.88268e-05
453 20.3015 8.48438 0.368844 0 0 1.00048 4.81212e-05
376 20.3858 8.00453 1.32012 0 0 1.00048 4.65961e-05
374 21.1681 7.83289 0.647894 0 0 1.00048 4.2125e-05
455 21.1445 8.83478 1.04245 0 0 1.00048 4.88995e-05
379 23.0193 7.08298 1.20725 0 0 1.00048 3.37989e-05
380 21.9976 8.07884 1.14499 0 0 1.00048 4.20164e-05
457 22.0549 8.76611 0.26647 0 0 1.00048 4.40881e-05
459 22.9998 8.63378 1.01495 0 0 1.00048 4.10359e-05
378 22.7586 7.88776 0.38634 0 0 1.00048 3.73452e-05
1218 22.8519 7.9311 1.76278 0 0 1.00048 4.01048e-05
381 23.7158 7.1581 0.279475 0 0 1.00048 3.11715e-05
384 23.8276 7.74667 1.06898 0 0 1.00048 3.36664e-05
461 23.8558 8.51599 0.364664 0 0 1.00048 3.58855e-05
463 24.7 8.52896 1.0005 0 0 1.00048 3.33399e-05
382 24.6713 7.72217 0.281073 0 0 1.00048 2.97119e-05
385 25.4706 7.08853 0.493804 0 0 1.00048 2.46139e-05
388 25.4517 7.78642 1.2463 0 0 1.00048 2.76173e-05
467 26.3355 8.39258 0.995491 0 0 1.00048 2.5323e-05
386 26.3793 7.62225 0.374299 0 0 1.00048 2.30977e-05
465 25.5502 8.51878 0.31428 0 0 1.00048 2.89304e-05
390 27.9721 7.28487 0.523343 0 0 1.00048 1.60116e-05
392 27.0793 7.45046 1.33215 0 0 1.00048 2.03937e-05
470 28.2183 8.79579 0.415085 0 0 1.00048 1.67878e-05
471 28.0706 8.12511 1.21104 0 0 1.00048 1.7268e-05
469 27.2787 8.11549 0.43294 0 0 1.00048 2.0216e-05
394 29.8093 7.09378 0.508185 0 0 1.00048 9.30228e-06
396 28.8942 7.33718 1.22942 0 0 1.00048 1.29197e-05
474 29.8315 8.55688 0.539306 0 0 1.00048 9.94361e-06
475 29.7411 7.86812 1.27845 0 0 1.00048 1.0159e-05
476 29.0184 8.80048 1.18641 0 0 1.00048 1.35247e-05
473 28.9461 7.96155 0.415824 0 0 1.00048 1.30487e-05
400 30.5546 7.21379 1.17966 0 0 1.00048 6.73447e-06
479 31.4762 7.88632 1.29487 0 0 1.00048 4.04548e-06
480 30.6608 8.61797 1.18657 0 0 1.00048 6.73569e-06
477 30.8631 7.98142 0.384178 0 0 1.00048 5.8782e-06
478 31.6522 8.67133 0.392423 0 0 1.00048 3.14252e-06
482 1.33053 10.223 0.266569 0 0 1.00048 9.10073e-06
483 1.24459 9.32033 1.19506 0 0 1.00048 9.21008e-06
484 0.469514 9.94691 0.901343 0 0 1.00048 5.69372e-06
481 0.586786 9.34209 0.123632 0 0 1.00048 6.57125e-06
1322 1.03014 10.0884 1.74536 0 0 1.00048 8.27677e-06
485 1.98263 9.34819 0.441711 0 0 1.00048 1.23615e-05
488 2.04149 10.241 0.968463 0 0 1.00048 1.25794e-05
486 2.81467 10.0998 0.0780983 0 0 1.00048 1.62568e-05
487 2.61497 9.29048 1.20952 0 0 1.00048 1.53726e-05
1326 2.99975 10.0345 1.66183 0 0 1.00048 1.79256e-05
489 3.32181 9.16619 0.0886728 0 0 1.00048 1.83176e-05
1329 3.47514 9.02891 1.65965 0 0 1.00048 1.9776e-05
492 3.62144 9.81366 0.738728 0 0 1.00048 2.02908e-05
491 4.20583 8.86326 0.852349 0 0 1.00048 2.26231e-05
496 4.87491 9.68942 0.566535 0 0 1.00048 2.71475e-05
1330 4.39263 9.68279 1.59179 0 0 1.00048 2.54492e-05
1409 3.77274 10.5486 1.44188 0 0 1.00048 2.21552e-05
500 6.55618 9.43706 0.51122 0 0 1.00048 3.5534e-05
1334 5.62984 9.49844 1.17298 0 0 1.00048 3.13271e-05
1417 6.55203 10.1362 1.1895 0 0 1.00048 3.79629e-05
575 5.6762 10.359 0.441112 0 0 1.00048 3.24063e-05
1413 5.06505 10.4898 1.46297 0 0 1.00048 3.01651e-05
504 8.34517 9.53713 0.570644 0 0 1.00048 4.50953e-05
1338 7.52058 9.34814 1.18789 0 0 1.00048 4.14861e-05
1421 8.03457 10.2096 1.34105 0 0 1.00048 4.76815e-05
579 7.25944 10.2771 0.464753 0 0 1.00048 4.18788e-05
503 9.35862 9.06351 0.715397 0 0 1.00048 4.79174e-05
1342 9.15587 9.80945 1.39785 0 0 1.00048 5.20232e-05
583 9.14502 10.4668 0.673748 0 0 1.00048 5.29757e-05
508 10.0641 9.93145 0.664332 0 0 1.00048 5.53026e-05
1345 10.2833 9.18865 1.40761 0 0 1.00048 5.40083e-05
507 10.9376 9.3361 0.660627 0 0 1.00048 5.49606e-05
1346 11.1078 9.80292 1.61781 0 0 1.00048 6.155e-05
512 11.6662 10.2314 0.723225 0 0 1.00048 6.24481e-05
1349 11.8475 9.30593 1.33023 0 0 1.00048 5.93265e-05
511 12.609 9.54247 0.688682 0 0 1.00048 6.04293e-05
516 13.3279 10.2631 0.947959 0 0 1.00048 6.63415e-05
1353 13.1344 9.3857 1.60917 0 0 1.00048 6.42849e-05
1350 12.4966 10.2682 1.58309 0 0 1.00048 6.88476e-05
510 12.2543 10.4138 0.0246531 0 0 1.00048 6.36231e-05
440 15.0205 9.12397 0.772524 0 0 1.00048 5.84225e-05
515 14.0832 9.56184 0.845028 0 0 1.00048 6.15696e-05
1354 14.06 10.2659 1.69771 0 0 1.00048 7.14459e-05
517 14.809 10.0456 0.215713 0 0 1.00048 6.42914e-05
1357 14.8859 9.71561 1.76004 0 0 1.00048 6.79692e-05
514 13.9161 10.5152 0.0219531 0 0 1.00048 6.71831e-05
444 16.4744 9.22969 1.1299 0 0 1.00048 5.98268e-05
1278 15.6703 9.05238 1.76084 0 0 1.00048 6.25613e-05
519 15.6939 9.87921 1.01603 0 0 1.00048 6.46228e-05
521 16.2276 10.2219 0.235144 0 0 1.00048 6.40043e-05
438 15.8341 9.21799 0.121827 0 0 1.00048 5.73732e-05
523 17.0555 10.1021 0.968786 0 0 1.00048 6.49273e-05
442 17.0527 9.18884 0.261924 0 0 1.00048 5.68413e-05
448 17.6661 9.24069 1.11623 0 0 1.00048 5.8602e-05
525 17.6986 10.2253 0.191075 0 0 1.00048 6.25999e-05
527 18.3116 10.1228 1.07539 0 0 1.00048 6.30771e-05
446 18.3056 9.34993 0.118608 0 0 1.00048 5.58082e-05
452 18.8547 9.20538 0.951426 0 0 1.00048 5.685e-05
529 19.111 10.0738 0.305678 0 0 1.00048 6.01027e-05
531 19.9907 10.2939 0.877996 0 0 1.00048 5.97887e-05