ITEM: TIMESTEP
12500
ITEM: NUMBER OF ATOMS
32000
ITEM: BOX BOUNDS pp pp pp
0.0000000000000000e+00 3.1748021039364001e+01
0.0000000000000000e+00 3.1748021039364001e+01
0.0000000000000000e+00 3.1748021039364001e+01
ITEM: ATOMS id x y z c_phase c_nbond c_rho v_omega
4 0.159211 1.13228 0.466175 0 0 1.0004 -3.51735e-07
83 1.03581 1.6667 0.778249 0 0 1.0004 1.5415e-06
842 0.747475 0.800967 1.40967 0 0 1.0004 2.13597e-07
921 0.0662898 1.63666 1.37602 0 0 1.0004 2.1825e-07
3 0.736375 0.0732348 0.616783 0 0 1.0004 -7.76193e-07
8 1.74399 0.786358 1.01327 0 0 1.0004 1.26832e-06
85 1.86079 1.44898 0.21759 0 0 1.0004 2.36876e-06
925 1.89013 1.62584 1.75459 0 0 1.0004 2.8556e-06
6 2.55199 0.69511 0.201997 0 0 1.0004 2.01975e-06
7 2.59438 0.000158914 1.03452 0 0 1.0004 9.69886e-07
87 2.71009 1.48229 0.877119 0 0 1.0004 3.57545e-06
846 2.70682 0.758038 1.7388 0 0 1.0004 2.41853e-06
12 3.47144 0.848555 0.956156 0 0 1.0004 3.3518e-06
849 3.5021 0.00560318 1.70362 0 0 1.0004 1.85154e-06
929 3.67837 1.61446 1.71223 0 0 1.0004 5.18233e-06
10 4.14885 0.75862 0.319528 0 0 1.0004 3.62101e-06
16 4.99906 0.446117 1.16053 0 0 1.0004 3.61834e-06
93 4.9936 1.47851 0.381926 0 0 1.0004 6.07253e-06
850 4.38156 0.833669 1.62834 0 0 1.0004 4.34829e-06
9 3.48182 0.0281944 0.17202 0 0 1.0004 1.61542e-06
91 4.088 1.73754 0.71032 0 0 1.0004 5.85492e-06
14 5.68313 0.512949 0.317756 0 0 1.0004 4.08027e-06
95 5.95026 1.17507 0.941855 0 0 1.0004 6.01892e-06
97 6.64851 1.25005 0.216843 0 0 1.0004 6.3506e-06
854 5.81429 0.321748 1.69556 0 0 1.0004 3.77951e-06
933 5.10577 1.58836 1.43279 0 0 1.0004 6.82093e-06
20 6.73769 0.250935 0.866488 0 0 1.0004 3.58832e-06
937 6.74655 0.860687 1.69081 0 0 1.0004 5.57057e-06
24 8.29025 0.257944 1.06366 0 0 1.0004 3.47811e-06
99 7.43653 1.0728 0.948278 0 0 1.0004 6.18476e-06
101 8.32813 1.23778 0.233248 0 0 1.0004 6.71368e-06
941 8.2098 1.1121 1.60803 0 0 1.0004 6.87009e-06
18 7.62248 0.505604 0.147129 0 0 1.0004 4.23794e-06
22 8.89028 0.35934 0.263903 0 0 1.0004 3.39499e-06
28 9.58054 0.191554 0.892635 0 0 1.0004 2.23744e-06
103 9.10198 1.15734 1.09959 0 0 1.0004 6.46261e-06
945 9.65167 0.82539 1.76036 0 0 1.0004 4.97025e-06
105 9.72538 1.22494 0.0952921 0 0 1.0004 6.22742e-06
32 11.2269 0.101464 0.637011 0 0 1.0004 5.9538e-07
107 10.4387 0.918866 0.824531 0 0 1.0004 4.72548e-06
866 10.5347 0.066349 1.44661 0 0 1.0004 1.14934e-06
949 11.368 0.898229 1.41568 0 0 1.0004 4.20375e-06
946 10.697 1.54717 1.72245 0 0 1.0004 7.8128e-06
26 10.2716 0.234009 0.0772131 0 0 1.0004 1.89824e-06
112 11.293 1.71322 0.771361 0 0 1.0004 7.99675e-06
36 12.8996 0.145442 0.637388 0 0 1.0004 -7.42617e-07
111 12.1228 0.981903 0.510124 0 0 1.0004 3.76494e-06
870 12.1578 0.221521 1.30094 0 0 1.0004 4.28545e-07
953 12.8172 1.1175 1.37185 0 0 1.0004 4.18207e-06
40 14.406 0.304074 0.770265 0 0 1.0004 -1.06347e-06
115 13.6811 1.06728 0.842087 0 0 1.0004 3.11859e-06
117 14.1722 1.5266 0.159033 0 0 1.0004 5.13531e-06
874 13.6438 0.311653 1.63385 0 0 1.0004 -4.47012e-07
957 14.4752 1.13625 1.47762 0 0 1.0004 3.04915e-06
119 15.0065 1.5566 0.663978 0 0 1.0004 4.79313e-06
44 15.7777 0.79966 0.787946 0 0 1.0004 8.56558e-07
123 16.677 1.6139 0.68362 0 0 1.0004 4.95729e-06
878 15.1869 0.474505 1.63953 0 0 1.0004 -5.97159e-07
882 16.6103 0.776263 1.34377 0 0 1.0004 6.90778e-07
961 15.7571 1.52232 1.39476 0 0 1.0004 4.84688e-06
38 15.1644 0.720275 0.068216 0 0 1.0004 3.38245e-07
48 17.3255 0.823636 0.55515 0 0 1.0004 8.40253e-07
127 18.0537 1.70689 0.754311 0 0 1.0004 5.81732e-06
886 17.9835 0.865112 1.42556 0 0 1.0004 1.56444e-06
47 18.1673 0.0512004 0.692073 0 0 1.0004 -2.42222e-06
51 19.5476 0.175713 0.667529 0 0 1.0004 -6.2464e-07
52 18.8528 0.876335 0.68859 0 0 1.0004 1.8531e-06
131 19.6607 1.72867 0.841781 0 0 1.0004 6.72743e-06
889 19.0402 0.308605 1.54724 0 0 1.0004 -7.04367e-07
890 19.6774 1.14157 1.69385 0 0 1.0004 4.21376e-06
969 18.7894 1.65734 1.49957 0 0 1.0004 6.07587e-06
129 18.9916 1.7357 0.000879208 0 0 1.0004 6.16943e-06
55 21.1426 0.550202 1.07115 0 0 1.0004 2.01716e-06
56 20.3107 0.96402 0.972286 0 0 1.0004 3.45017e-06
54 21.2429 0.974253 0.215383 0 0 1.0004 4.12657e-06
133 20.4596 1.70731 0.200792 0 0 1.0004 6.98734e-06
893 20.4643 0.0634589 1.43689 0 0 1.0004 -1.28118e-07
53 20.2922 0.0472168 0.0729779 0 0 1.0004 -4.74183e-07
57 22.0425 0.488713 0.539246 0 0 1.0004 2.68538e-06
59 22.839 0.653649 1.40378 0 0 1.0004 3.91047e-06
60 22.1982 1.38052 1.33179 0 0 1.0004 6.79043e-06
58 22.9815 1.2876 0.460767 0 0 1.0004 6.25498e-06
63 24.2808 0.607134 1.43038 0 0 1.0004 4.42452e-06
61 23.6016 0.575805 0.576527 0 0 1.0004 3.9226e-06
62 24.5048 1.40432 0.750789 0 0 1.0004 7.02438e-06
64 23.5666 1.4734 1.39676 0 0 1.0004 7.39276e-06
65 24.9886 0.534079 0.546114 0 0 1.0004 4.36575e-06
67 26.0314 0.584025 1.17043 0 0 1.0004 4.40428e-06
68 25.233 1.35065 1.46932 0 0 1.0004 7.01852e-06
66 25.9455 1.14715 0.427844 0 0 1.0004 5.96889e-06
70 27.636 1.45552 0.387171 0 0 1.0004 5.58156e-06
71 27.6411 0.67619 0.873948 0 0 1.0004 3.87957e-06
72 26.8045 1.22309 1.25823 0 0 1.0004 5.68265e-06
913 28.4027 0.492895 1.40832 0 0 1.0004 2.98502e-06
69 26.8097 0.431077 0.23328 0 0 1.0004 3.75502e-06
76 28.7028 1.37809 0.736414 0 0 1.0004 4.29091e-06
914 29.4247 1.07483 1.56873 0 0 1.0004 3.14709e-06
917 29.8303 0.272783 1.45881 0 0 1.0004 1.37398e-06
75 29.2929 0.475221 0.616876 0 0 1.0004 2.11147e-06
841 31.6018 0.30711 1.25622 0 0 1.0004 -4.12939e-07
79 30.7291 0.556626 0.474945 0 0 1.0004 8.39492e-07
80 30.1457 1.29265 0.773491 0 0 1.0004 2.57245e-06
918 30.9023 1.03931 1.39155 0 0 1.0004 1.34609e-06
82 1.19869 2.4296 0.12476 0 0 1.0004 2.73981e-06
84 0.220566 2.41261 0.809334 0 0 1.0004 1.23622e-06
163 1.39898 3.21653 0.9446 0 0 1.0004 4.1692e-06
922 1.22637 2.35288 1.58832 0 0 1.0004 2.91449e-06
1001 0.491866 3.05417 1.54785 0 0 1.0004 2.39297e-06
161 0.439046 3.12353 0.130124 0 0 1.0004 2.12617e-06
88 2.0011 2.38039 0.782564 0 0 1.0004 3.99475e-06
167 2.77734 3.21324 0.856409 0 0 1.0004 6.74171e-06
926 2.75986 2.16999 1.53397 0 0 1.0004 5.03443e-06
86 2.81668 2.32038 0.0535413 0 0 1.0004 5.1486e-06
1005 2.22267 3.04943 1.75775 0 0 1.0004 5.59188e-06
1009 3.39311 3.32786 1.64632 0 0 1.0004 8.44557e-06
92 3.48443 2.47011 0.779466 0 0 1.0004 6.57784e-06
171 4.33442 3.20284 0.749423 0 0 1.0004 9.39537e-06
930 4.25077 2.52935 1.57781 0 0 1.0004 8.02072e-06
96 5.02408 2.44159 0.815056 0 0 1.0004 8.77717e-06
94 5.76712 2.30559 0.135344 0 0 1.0004 9.12994e-06
100 6.6713 2.03135 0.775399 0 0 1.0004 9.05553e-06
175 5.80039 3.04774 0.952108 0 0 1.0004 1.15386e-05
934 5.96779 2.0544 1.48968 0 0 1.0004 8.82246e-06
1017 6.68483 2.8999 1.54484 0 0 1.0004 1.23894e-05
173 5.13264 3.19497 0.00106014 0 0 1.0004 1.08566e-05
177 6.79084 2.778 0.127862 0 0 1.0004 1.14159e-05
98 7.57472 2.06952 0.135672 0 0 1.0004 9.6397e-06
104 8.21778 2.03869 0.930875 0 0 1.0004 1.00159e-05
179 7.56609 2.89286 0.918694 0 0 1.0004 1.29782e-05
938 7.4158 1.90019 1.56436 0 0 1.0004 9.38474e-06
1021 8.36351 2.82175 1.64285 0 0 1.0004 1.37242e-05
181 8.44113 2.8031 0.0376214 0 0 1.0004 1.28354e-05
102 9.03699 1.93933 0.248539 0 0 1.0004 9.44445e-06
108 9.90829 1.87358 1.09797 0 0 1.0004 9.23097e-06
183 9.10677 2.80376 0.926609 0 0 1.0004 1.37558e-05
942 9.17283 2.05676 1.70471 0 0 1.0004 1.07546e-05
185 9.7496 2.75301 0.206033 0 0 1.0004 1.32055e-05
188 10.1199 3.42158 0.882535 0 0 1.0004 1.68167e-05
106 10.4271 1.97411 0.203925 0 0 1.0004 9.42602e-06
187 10.812 2.66446 0.916397 0 0 1.0004 1.28453e-05
1029 11.6474 2.70974 1.58102 0 0 1.0004 1.36852e-05
1026 10.9487 3.42766 1.5883 0 0 1.0004 1.75418e-05
192 11.6572 3.51428 0.791934 0 0 1.0004 1.75974e-05
116 12.8254 1.86568 0.597395 0 0 1.0004 7.75676e-06
191 12.1251 2.54561 0.737508 0 0 1.0004 1.21583e-05
950 12.075 1.81671 1.46349 0 0 1.0004 8.29449e-06
1033 13.0841 2.93457 1.69003 0 0 1.0004 1.45613e-05
196 12.7612 3.50533 0.810881 0 0 1.0004 1.75907e-05
195 13.4308 2.95887 0.837232 0 0 1.0004 1.35184e-05
954 13.5445 1.93743 1.47596 0 0 1.0004 8.02727e-06
120 14.2175 2.41293 0.921303 0 0 1.0004 1.02376e-05
1037 14.3037 3.34859 1.55218 0 0 1.0004 1.66437e-05
199 14.9752 3.42863 0.872552 0 0 1.0004 1.6279e-05
958 14.9881 2.30515 1.43981 0 0 1.0004 9.58064e-06
118 15.0452 2.5114 0.134184 0 0 1.0004 1.04171e-05
197 14.4004 3.1946 0.0380849 0 0 1.0004 1.45277e-05
114 13.5915 2.24598 0.0540478 0 0 1.0004 9.388e-06
124 15.8947 2.47622 0.69752 0 0 1.0004 1.00528e-05
203 16.5668 3.26449 0.670767 0 0 1.0004 1.48398e-05
962 16.5191 2.54064 1.52372 0 0 1.0004 1.08285e-05
1041 15.6528 3.2819 1.50169 0 0 1.0004 1.55555e-05
201 15.8281 3.29041 0.0216422 0 0 1.0004 1.5121e-05
965 17.3675 1.84222 1.56227 0 0 1.0004 6.75362e-06
128 17.2604 2.44871 0.680397 0 0 1.0004 9.8614e-06
207 18.1734 3.06287 0.706224 0 0 1.0004 1.36667e-05
966 18.2166 2.56671 1.58871 0 0 1.0004 1.13011e-05
1045 17.3436 3.21469 1.49823 0 0 1.00039 1.50043e-05
132 19.0754 2.52608 1.01234 0 0 1.0004 1.07934e-05
211 19.9333 3.43584 1.2744 0 0 1.0004 1.68391e-05
209 19.1054 3.17064 0.189362 0 0 1.0004 1.448e-05
130 19.7703 2.5125 0.105979 0 0 1.0004 1.08811e-05
135 21.2177 1.85501 0.960427 0 0 1.0004 8.23446e-06
973 20.4616 1.98045 1.73469 0 0 1.0004 8.93056e-06
134 21.3348 2.64055 0.4558 0 0 1.0004 1.18898e-05
136 20.3847 2.66111 1.10423 0 0 1.0004 1.23828e-05
213 20.6233 3.22 0.328625 0 0 1.0004 1.49811e-05
137 22.1047 1.83136 0.524715 0 0 1.0004 8.47608e-06
139 23.0145 2.29872 1.51525 0 0 1.0004 1.08267e-05
138 23.1225 2.8514 0.731742 0 0 1.0004 1.27653e-05
140 22.2458 2.73683 1.23794 0 0 1.0004 1.3004e-05
217 22.1837 3.45069 0.604569 0 0 1.0004 1.63882e-05
141 23.8397 2.04963 0.622136 0 0 1.0004 9.28792e-06
143 24.5373 2.22459 1.59527 0 0 1.0004 1.03234e-05
142 24.4873 2.92626 0.774395 0 0 1.0004 1.26701e-05
144 23.8499 3.14643 1.53526 0 0 1.0004 1.43374e-05
16108 25.0998 3.0675 0.0118445 0 0 1.0004 1.25413e-05
147 26.0202 1.95439 1.35558 0 0 1.0004 8.41212e-06
149 26.6364 1.99346 0.512249 0 0 1.0004 7.81737e-06
145 25.232 2.08049 0.519581 0 0 1.0004 9.16523e-06
146 25.9219 2.83398 0.702964 0 0 1.0004 1.10828e-05
148 25.2972 2.80199 1.52161 0 0 1.0004 1.16533e-05
152 26.6512 2.77885 1.52895 0 0 1.0004 1.02366e-05
151 27.5881 2.16521 1.23226 0 0 1.0004 7.28768e-06
153 28.339 2.24962 0.344831 0 0 1.0004 6.53745e-06
150 27.2052 2.88724 0.637992 0 0 1.0004 9.5233e-06
156 28.3628 2.91929 1.19973 0 0 1.0004 8.04529e-06
233 28.1116 3.39918 0.334731 0 0 1.0004 9.46446e-06
993 28.592 1.87539 1.50295 0 0 1.0004 5.58258e-06
997 30.0325 1.91074 1.70546 0 0 1.0004 3.88263e-06
155 29.5215 2.15686 0.881933 0 0 1.0004 4.76079e-06
154 29.2944 2.80238 0.287289 0 0 1.0004 6.25847e-06
235 29.3732 3.39298 1.17949 0 0 1.0004 7.24973e-06
159 30.9851 2.04769 0.92305 0 0 1.0004 2.55749e-06
160 30.2797 2.80572 0.99995 0 0 1.0004 4.5736e-06
239 31.1418 3.40915 0.972956 0 0 1.0004 4.09767e-06
998 31.0838 2.75835 1.72601 0 0 1.0004 3.3881e-06
237 30.2328 3.34941 0.144725 0 0 1.0004 5.60068e-06
157 30.4799 1.99228 0.0302667 0 0 1.0004 3.17531e-06
158 31.2371 2.72005 0.0762355 0 0 1.0004 3.01765e-06
164 0.421897 3.80619 0.917785 0 0 1.0004 2.74583e-06
241 0.288975 4.62992 0.475758 0 0 1.0004 3.05788e-06
243 1.28583 4.6516 0.984448 0 0 1.0004 5.4698e-06
162 1.17237 3.85363 0.0649651 0 0 1.0004 4.13657e-06
168 1.98663 4.00286 0.846535 0 0 1.0004 6.1859e-06
247 2.7019 4.78317 1.1263 0 0 1.0004 9.02866e-06
166 2.79689 4.07281 0.20168 0 0 1.0004 8.06109e-06
245 2.05651 4.91539 0.279177 0 0 1.0004 7.30444e-06
249 3.58139 4.75414 0.162281 0 0 1.0004 1.1002e-05
172 3.64082 3.97579 0.883059 0 0 1.0004 9.69588e-06
251 4.237 4.74918 1.14639 0 0 1.0004 1.29733e-05
170 4.41745 4.05535 0.143815 0 0 1.0004 1.1419e-05
176 5.08134 3.86228 1.16529 0 0 1.0004 1.27081e-05
253 5.19922 4.58994 0.330246 0 0 1.0004 1.4585e-05
174 5.94245 3.78036 0.185616 0 0 1.0004 1.38881e-05
180 6.68425 3.60358 0.776599 0 0 1.0004 1.43902e-05
255 5.89925 4.55533 1.02565 0 0 1.0004 1.64106e-05
254 5.99677 5.23178 0.289718 0 0 1.0004 1.81852e-05
256 5.15149 5.26876 1.29828 0 0 1.0004 1.65799e-05
1097 6.88233 4.32832 1.64232 0 0 1.0004 1.80582e-05
260 6.90294 4.94779 0.869243 0 0 1.0004 1.95702e-05
259 7.63082 4.27362 0.551113 0 0 1.0004 1.84065e-05
1018 7.60921 3.68484 1.49639 0 0 1.0004 1.65385e-05
258 7.5801 5.15701 0.0344111 0 0 1.0004 2.16846e-05
1098 7.66135 5.19559 1.49076 0 0 1.0004 2.29424e-05
184 8.41804 3.7014 0.701564 0 0 1.0004 1.70211e-05
1101 8.45599 4.40884 1.47749 0 0 1.0004 2.0854e-05
264 8.48154 5.11216 0.69406 0 0 1.0004 2.34615e-05
263 9.33705 4.38031 0.813346 0 0 1.0004 2.13422e-05
1022 9.30078 3.58749 1.49695 0 0 1.0004 1.82524e-05
182 9.21321 3.69373 0.0555536 0 0 1.0004 1.7477e-05
1102 9.34976 5.12148 1.5832 0 0 1.0004 2.61922e-05
262 9.29731 5.27229 0.0178725 0 0 1.0004 2.54339e-05
268 10.0778 5.13618 0.791124 0 0 1.0004 2.61351e-05
265 10.1252 4.34446 0.123228 0 0 1.0004 2.14023e-05
1105 10.1491 4.17214 1.65339 0 0 1.0004 2.17567e-05
267 10.881 4.48727 0.898216 0 0 1.0004 2.30919e-05
269 11.6825 4.559 0.21613 0 0 1.0004 2.30455e-05
1109 11.666 4.24557 1.69328 0 0 1.0004 2.32982e-05
186 10.8396 3.69357 0.169007 0 0 1.0004 1.81173e-05
1106 10.8481 5.04776 1.75578 0 0 1.0004 2.74447e-05
272 11.7303 5.12859 0.996997 0 0 1.0004 2.76951e-05
271 12.5021 4.43994 0.996893 0 0 1.0004 2.36725e-05
1113 13.1229 4.87845 1.68481 0 0 1.0004 2.73809e-05
273 12.9456 4.52175 0.0547417 0 0 1.0004 2.3407e-05
275 13.5588 4.62929 0.789309 0 0 1.0004 2.44493e-05
200 14.3046 4.08733 0.692824 0 0 1.0004 2.03831e-05
1034 13.8119 4.15497 1.5884 0 0 1.0004 2.22604e-05
1117 14.5758 5.07432 1.5211 0 0 1.0004 2.8866e-05
277 14.4881 4.85938 0.0710302 0 0 1.0004 2.51256e-05
279 15.3142 5.02621 0.809851 0 0 1.0004 2.68425e-05
198 15.2726 4.19339 0.101392 0 0 1.0004 2.0682e-05
1038 15.3206 4.4133 1.59168 0 0 1.0004 2.34849e-05
204 15.9804 4.10389 0.913713 0 0 1.0004 2.05999e-05
281 16.2156 4.8238 0.179814 0 0 1.0004 2.47266e-05
1042 16.6471 4.03435 1.68143 0 0 1.0004 2.11391e-05
1121 16.2046 5.09088 1.64261 0 0 1.0004 2.8741e-05
283 16.9336 4.67807 0.901399 0 0 1.0004 2.4229e-05
208 17.5657 3.94315 0.80695 0 0 1.0004 1.90763e-05
1046 18.2359 3.78749 1.65421 0 0 1.0004 1.90838e-05
285 17.7696 4.70953 0.0209925 0 0 1.0004 2.39016e-05
287 18.4062 4.64582 1.09327 0 0 1.0004 2.42328e-05
206 18.4217 3.99942 0.0669253 0 0 1.0004 1.91013e-05
212 19.1361 3.88863 0.956303 0 0 1.0004 1.90666e-05
289 19.143 4.8002 0.356508 0 0 1.0004 2.46265e-05
291 19.9898 4.88778 1.10449 0 0 1.0004 2.53233e-05
210 19.8577 3.96733 0.239114 0 0 1.0004 1.92061e-05
215 21.5341 3.53961 1.38809 0 0 1.0004 1.68561e-05
216 20.6904 4.05162 1.23275 0 0 1.0004 1.98774e-05
295 21.1768 4.97688 1.38517 0 0 1.0004 2.57004e-05
214 21.3461 4.18488 0.513679 0 0 1.0004 2.01415e-05
293 20.4554 5.01839 0.344442 0 0 1.0004 2.51468e-05
16179 22.8941 3.65355 0.0551561 0 0 1.0004 1.64886e-05
297 21.8867 5.22992 0.794761 0 0 1.0004 2.59318e-05
219 23.042 3.8828 1.41344 0 0 1.0004 1.80703e-05
220 22.1879 4.39683 1.31086 0 0 1.0004 2.14715e-05
218 22.8693 4.6148 0.528265 0 0 1.0004 2.12955e-05
223 24.6581 3.77601 1.55811 0 0 1.0004 1.61825e-05
221 23.7767 3.89142 0.776255 0 0 1.0004 1.7178e-05
222 24.5495 4.59856 0.629389 0 0 1.0004 1.92215e-05
224 23.7112 4.82131 1.33873 0 0 1.0004 2.20249e-05
228 25.2297 4.75542 1.60781 0 0 1.0004 1.90915e-05
227 25.886 3.7363 1.51799 0 0 1.0004 1.42727e-05
229 26.3342 3.72965 0.595037 0 0 1.0004 1.32417e-05
225 25.2415 3.90835 0.787237 0 0 1.0004 1.54591e-05
232 26.5454 4.52388 1.37352 0 0 1.0004 1.5464e-05
309 26.7065 5.21322 0.642414 0 0 1.0004 1.69712e-05
226 25.7329 4.6557 0.402073 0 0 1.0004 1.71524e-05
231 27.3498 3.55472 1.41442 0 0 1.0004 1.12176e-05
311 27.5199 5.08698 1.40305 0 0 1.0004 1.48968e-05
236 28.1166 4.15705 1.1077 0 0 1.0004 1.13769e-05
230 27.2311 4.24998 0.579137 0 0 1.0004 1.3329e-05
313 28.4457 4.91744 0.70298 0 0 1.0004 1.17931e-05
234 29.0703 3.9216 0.478816 0 0 1.0004 8.7022e-06
315 29.2435 4.66858 1.32378 0 0 1.0004 9.72356e-06
240 30.134 4.16738 1.02827 0 0 1.0004 6.90758e-06
238 31.1611 4.04613 0.364087 0 0 1.0004 4.51521e-06
317 30.3585 4.78758 0.480203 0 0 1.0004 6.83297e-06
319 31.1284 4.67187 1.39851 0 0 1.0004 5.22995e-06
244 0.25343 5.29759 1.27508 0 0 1.0004 3.52898e-06
242 1.07925 5.52152 0.459937 0 0 1.0004 5.37645e-06
323 0.978005 6.20547 1.27485 0 0 1.0004 5.61088e-06
324 0.440011 6.94624 1.49859 0 0 1.0004 4.36174e-06
322 1.15873 6.92494 0.568512 0 0 1.0004 6.17626e-06
321 0.156498 6.03673 0.447587 0 0 1.0004 3.22098e-06
248 1.70801 5.47325 1.37278 0 0 1.0004 7.38649e-06
328 1.89846 6.97062 1.23898 0 0 1.0004 8.81236e-06
325 2.0738 6.143 0.508942 0 0 1.0004 8.66566e-06
252 3.30436 5.51863 1.29026 0 0 1.0004 1.19466e-05
327 2.46371 6.08213 1.40455 0 0 1.0004 1.02096e-05
246 2.86393 5.51986 0.271582 0 0 1.0004 1.01472e-05
332 3.45929 6.84067 1.13411 0 0 1.0004 1.39528e-05
329 3.60146 6.15258 0.48749 0 0 1.0004 1.32979e-05
250 4.39165 5.32474 0.321157 0 0 1.0004 1.41731e-05
331 4.34113 5.94206 1.22368 0 0 1.0004 1.57499e-05
336 5.01388 6.62852 1.15629 0 0 1.0004 1.9483e-05
330 4.22203 6.86229 0.223307 0 0 1.0004 1.65191e-05
333 5.05562 6.06617 0.323572 0 0 1.0004 1.78583e-05
335 5.92721 6.03202 0.955518 0 0 1.0004 2.10158e-05
337 6.64584 5.85977 0.144229 0 0 1.0004 2.18227e-05
334 5.7998 6.8401 0.146675 0 0 1.0004 2.22812e-05
340 6.71373 6.64137 0.981892 0 0 1.0004 2.55644e-05
1177 6.72733 5.77413 1.59347 0 0 1.0004 2.29263e-05
339 7.59771 5.92988 0.752882 0 0 1.0004 2.5087e-05
344 8.33401 6.61513 0.716095 0 0 1.0004 2.99741e-05
1178 7.58455 6.6058 1.59237 0 0 1.0004 2.89897e-05
1181 8.53726 5.88429 1.49202 0 0 1.0004 2.8168e-05
343 9.20513 5.96662 0.733956 0 0 1.0004 2.90407e-05
1182 9.43355 6.71302 1.45743 0 0 1.0004 3.46683e-05
1185 10.0907 5.9645 1.47148 0 0 1.0004 3.19315e-05
345 10.0941 6.03631 0.088908 0 0 1.0004 3.05955e-05
347 10.9464 5.83774 0.942761 0 0 1.0004 3.10963e-05
349 11.689 6.19885 0.0651321 0 0 1.0004 3.34333e-05
346 10.9001 6.75113 0.134972 0 0 1.0004 3.59951e-05
1186 10.8603 6.71623 1.48858 0 0 1.0004 3.80345e-05
352 11.705 6.95604 0.80324 0 0 1.0004 3.93682e-05
348 10.1938 6.97996 0.723502 0 0 1.0004 3.67864e-05
266 10.8136 5.39594 0.00254152 0 0 1.0004 2.79791e-05
270 12.3547 5.48356 0.179877 0 0 1.0004 2.95188e-05
276 13.0614 5.69932 0.857011 0 0 1.0004 3.17561e-05
351 12.1613 6.06725 1.04632 0 0 1.0004 3.42251e-05
1190 12.5249 6.99948 1.37722 0 0 1.0004 4.21302e-05
274 13.688 5.46507 0.0342514 0 0 1.0004 2.96857e-05
1114 13.7414 5.78396 1.56492 0 0 1.0004 3.37407e-05
355 13.7785 6.4817 0.795168 0 0 1.0004 3.69685e-05
280 14.4642 5.67988 0.769936 0 0 1.0004 3.18799e-05
1197 14.7674 6.60507 1.41575 0 0 1.0004 4.04041e-05
357 14.5529 6.3486 0.0327633 0 0 1.0004 3.58629e-05
278 15.4022 5.64196 0.0355177 0 0 1.0004 3.06512e-05
284 16.2394 5.78817 0.941451 0 0 1.0004 3.23923e-05
359 15.477 6.46731 0.799098 0 0 1.0004 3.74621e-05
1118 15.5409 5.87878 1.69152 0 0 1.0004 3.49408e-05
361 16.1033 6.39082 0.0409873 0 0 1.0004 3.58866e-05
363 16.9218 6.55234 1.14523 0 0 1.0004 3.80416e-05
282 16.9984 5.51872 0.2665 0 0 1.0004 2.93391e-05
286 18.2028 5.47306 0.528795 0 0 1.0004 2.93759e-05
288 17.496 5.54731 1.24234 0 0 1.0004 3.09612e-05
365 17.4957 6.40516 0.400226 0 0 1.0004 3.62002e-05
367 18.084 6.40898 1.36812 0 0 1.0004 3.74957e-05
292 19.1346 5.475 1.19768 0 0 1.0004 2.9917e-05
369 18.7794 6.42446 0.613976 0 0 1.0004 3.57465e-05
290 19.8033 5.9794 0.620974 0 0 1.0004 3.21957e-05
371 19.7216 6.80333 1.34284 0 0 1.0004 3.90124e-05
373 20.3843 7.01008 0.607552 0 0 1.0004 3.85015e-05
294 21.1017 6.04159 0.645483 0 0 1.0004 3.13061e-05
296 20.5305 5.86578 1.39129 0 0 1.0004 3.18261e-05
375 21.1478 6.90496 1.30635 0 0 1.0004 3.77799e-05
299 22.7684 5.45666 1.28211 0 0 1.0004 2.66756e-05
377 21.9973 6.9789 0.673086 0 0 1.0004 3.57245e-05
300 21.9851 6.1682 1.37242 0 0 1.0004 3.19921e-05
16260 22.0171 6.02337 0.0539524 0 0 1.0004 2.98257e-05
298 22.968 6.14188 0.655904 0 0 1.0004 2.89191e-05
379 22.9547 7.01438 1.20804 0 0 1.0004 3.43602e-05
301 23.7984 5.35769 0.533884 0 0 1.0004 2.35061e-05
303 24.6108 5.58333 1.43676 0 0 1.0004 2.35638e-05
304 23.7723 6.20125 1.28845 0 0 1.0004 2.82482e-05
383 24.6068 6.89043 1.17202 0 0 1.0004 2.87742e-05
302 24.4148 6.3018 0.425633 0 0 1.0004 2.66655e-05
305 25.0932 5.52253 0.565916 0 0 1.0004 2.16998e-05
307 25.9187 5.40825 1.34972 0 0 1.0004 1.98027e-05
306 25.9279 6.13801 0.694272 0 0 1.0004 2.16277e-05
308 25.3682 6.33199 1.66436 0 0 1.0004 2.48134e-05
385 25.4204 7.02884 0.494517 0 0 1.0004 2.60239e-05
387 26.0951 6.89591 1.40842 0 0 1.0004 2.40357e-05
312 26.9105 6.10364 1.47107 0 0 1.0004 1.9044e-05
310 27.7014 5.76478 0.715852 0 0 1.0004 1.54907e-05
389 26.9761 6.62391 0.643129 0 0 1.0004 1.9813e-05
391 27.9096 6.69262 1.36888 0 0 1.0004 1.70777e-05
316 28.5582 5.71322 1.47322 0 0 1.0004 1.34126e-05
314 29.5594 5.4522 0.81347 0 0 1.0004 9.91435e-06
395 29.6254 6.33831 1.31893 0 0 1.0004 1.10349e-05
393 28.6709 6.40173 0.646407 0 0 1.0004 1.40698e-05
16355 29.5608 6.29202 0.0751257 0 0 1.0004 1.11654e-05
16276 28.6644 5.57441 0.0499693 0 0 1.0004 1.23577e-05
318 31.1307 5.43574 0.592697 0 0 1.0004 6.00993e-06
320 30.3903 5.56273 1.45733 0 0 1.0004 7.92136e-06
397 30.5715 6.28586 0.64316 0 0 1.0004 8.0709e-06
399 31.3941 6.21403 1.38076 0 0 1.0004 5.82816e-06
398 31.3889 7.01266 0.604679 0 0 1.0004 5.91139e-06
401 0.452891 7.65618 0.654596 0 0 1.0004 3.92534e-06
402 1.03451 8.45403 0.60784 0 0 1.0004 5.79258e-06
403 1.30284 7.82497 1.48804 0 0 1.0004 7.08909e-06
404 0.54576 8.57008 1.46455 0 0 1.0004 4.13803e-06
405 1.79276 7.71198 0.375617 0 0 1.0004 8.32523e-06
408 1.92882 8.54952 1.45781 0 0 1.0004 9.64583e-06
326 2.68492 7.04997 0.468633 0 0 1.0004 1.1433e-05
406 2.40543 8.53436 0.39631 0 0 1.0004 1.10709e-05
407 2.60473 7.71373 1.27604 0 0 1.0004 1.18696e-05
412 3.23881 8.38182 0.934817 0 0 1.0004 1.48703e-05
409 3.46008 7.62808 0.325439 0 0 1.0004 1.47541e-05
410 4.04716 8.28996 0.0714934 0 0 1.0004 1.78802e-05
411 4.21549 7.47967 1.22365 0 0 1.0004 1.78713e-05
416 4.94863 8.06215 0.931764 0 0 1.0004 2.18998e-05
413 4.92342 7.45572 0.233067 0 0 1.0004 2.0026e-05
1250 4.05021 8.18473 1.76323 0 0 1.0004 1.91573e-05
414 6.14388 8.11046 0.176662 0 0 1.0004 2.65022e-05
415 5.74829 7.36041 1.01131 0 0 1.0004 2.34905e-05
420 6.68982 7.9514 1.04079 0 0 1.0004 2.9078e-05
495 5.58726 8.71484 0.648006 0 0 1.0004 2.58239e-05
1337 6.43444 8.78736 1.24794 0 0 1.0004 3.11551e-05
417 6.77484 7.31647 0.158257 0 0 1.0004 2.7224e-05
419 7.59982 7.50057 0.738239 0 0 1.0004 3.12573e-05
1258 7.59436 7.88015 1.68622 0 0 1.0004 3.39322e-05
421 8.32609 7.35993 0.0161045 0 0 1.0004 3.26501e-05
499 7.46473 8.59569 0.712005 0 0 1.0004 3.41119e-05
1261 8.39712 7.22081 1.55072 0 0 1.0004 3.43713e-05
424 8.60639 8.04083 0.865014 0 0 1.0004 3.72669e-05
423 9.2638 7.3665 0.659216 0 0 1.0004 3.59223e-05
1262 9.44256 8.39428 1.43595 0 0 1.0004 4.34858e-05
501 8.42496 8.75595 0.0768817 0 0 1.0004 3.86134e-05
1265 10.0535 7.61673 1.58513 0 0 1.0004 4.18582e-05
428 10.1115 8.35138 0.691092 0 0 1.0004 4.38945e-05
427 10.9747 7.70238 0.83051 0 0 1.0004 4.28437e-05
1266 10.9945 8.47074 1.42615 0 0 1.0004 4.91077e-05
429 11.6394 7.91005 0.0368183 0 0 1.0004 4.44394e-05
426 10.7991 8.62025 0.0202749 0 0 1.0004 4.64494e-05
432 11.7769 8.62281 0.723359 0 0 1.0004 4.97458e-05
1269 11.8236 7.61127 1.58504 0 0 1.0004 4.63537e-05
356 13.1434 7.17327 0.573159 0 0 1.0004 4.18089e-05
431 12.6104 8.05234 0.59301 0 0 1.0004 4.71723e-05
1270 12.5296 8.49351 1.49511 0 0 1.0004 5.29157e-05
1273 13.3127 7.8698 1.47298 0 0 1.0004 4.97226e-05
360 14.7686 7.31566 0.611063 0 0 1.0004 4.38588e-05
435 14.0729 8.02006 0.482972 0 0 1.0004 4.83015e-05
1194 13.9408 7.24378 1.35847 0 0 1.0004 4.41684e-05
1277 14.7426 8.11094 1.35876 0 0 1.0004 5.15312e-05
1274 14.1626 8.77309 1.56369 0 0 1.0004 5.74284e-05
364 16.0986 7.3474 0.893822 0 0 1.0004 4.34347e-05
439 15.564 8.2951 0.862644 0 0 1.0004 5.11692e-05
1198 15.6209 7.53649 1.64602 0 0 1.0004 4.83779e-05
441 16.3196 8.36093 0.146674 0 0 1.0004 5.0214e-05
443 16.7521 8.24705 1.10017 0 0 1.0004 5.12226e-05
362 16.8923 7.28116 0.285357 0 0 1.0004 4.25272e-05
368 17.4507 7.4825 1.10726 0 0 1.0004 4.53324e-05
445 17.521 8.25351 0.312792 0 0 1.0004 4.98797e-05
447 18.1827 8.21906 1.0352 0 0 1.0004 4.97426e-05
366 18.2631 7.35752 0.223035 0 0 1.0004 4.25539e-05
372 18.713 7.26155 1.15069 0 0 1.0004 4.32476e-05
370 19.4423 7.57422 0.625162 0 0 1.0004 4.31266e-05
451 19.3813 8.41292 1.18338 0 0 1.0004 5.12243e-05
449 18.9007 8.41972 0.192054 0 0 1.0004 4.87669e-05
453 20.2181 8.42293 0.367218 0 0 1.0004 4.83136e-05
376 20.2988 7.94348 1.32098 0 0 1.0004 4.65755e-05
374 21.0897 7.76765 0.652779 0 0 1.0004 4.2418e-05
455 21.0622 8.76396 1.04116 0 0 1.0004 4.95279e-05
380 21.9219 8.00688 1.14648 0 0 1.0004 4.26156e-05
457 21.9822 8.69086 0.266792 0 0 1.0004 4.51873e-05
459 22.9326 8.55256 1.01634 0 0 1.0004 4.22266e-05
378 22.6885 7.81683 0.38678 0 0 1.0004 3.82755e-05
1218 22.7789 7.85494 1.76321 0 0 1.0004 4.07521e-05
381 23.6553 7.09098 0.277952 0 0 1.0004 3.20904e-05
384 23.7648 7.6724 1.06801 0 0 1.0004 3.47741e-05
461 23.7959 8.43864 0.369032 0 0 1.0004 3.74349e-05
463 24.6416 8.45275 1.0011 0 0 1.0004 3.4988e-05
382 24.617 7.65265 0.279825 0 0 1.0004 3.11276e-05
388 25.3966 7.71859 1.24918 0 0 1.0004 2.91568e-05
467 26.2837 8.326 0.996108 0 0 1.0004 2.72783e-05
386 26.3324 7.56229 0.374249 0 0 1.0004 2.47878e-05
465 25.4974 8.45046 0.314638 0 0 1.0004 3.08494e-05
390 27.9297 7.23924 0.525117 0 0 1.0004 1.78694e-05
392 27.0307 7.39313 1.33549 0 0 1.0004 2.20886e-05
470 28.1776 8.74752 0.418008 0 0 1.0004 1.91618e-05
471 28.0258 8.07731 1.21258 0 0 1.0004 1.93251e-05
469 27.2331 8.05889 0.433877 0 0 1.0004 2.22535e-05
394 29.7721 7.06564 0.508597 0 0 1.0004 1.12237e-05
396 28.8545 7.30203 1.23017 0 0 1.0004 1.48167e-05
474 29.7933 8.52631 0.540739 0 0 1.0004 1.22318e-05
475 29.7011 7.84001 1.27898 0 0 1.0004 1.22423e-05
476 28.9797 8.76197 1.18729 0 0 1.0004 1.58479e-05
473 28.9058 7.92315 0.416455 0 0 1.0004 1.51794e-05
400 30.5176 7.19915 1.18012 0 0 1.0004 8.71166e-06
479 31.4392 7.8825 1.29631 0 0 1.0004 6.10516e-06
480 30.6233 8.60195 1.18661 0 0 1.0004 9.01032e-06
477 30.8269 7.96893 0.383618 0 0 1.0004 8.02997e-06
478 31.6153 8.66997 0.391872 0 0 1.0004 5.39769e-06
482 1.29719 10.2421 0.26734 0 0 1.0004 5.87595e-06
483 1.20693 9.33899 1.19651 0 0 1.0004 6.31582e-06
484 0.434718 9.95137 0.899945 0 0 1.0004 2.72356e-06
481 0.551837 9.34944 0.122908 0 0 1.0004 3.68121e-06
1322 0.993637 10.1037 1.74669 0 0 1.0004 5.23418e-06
485 1.94576 9.37572 0.443028 0 0 1.0004 9.2791e-06
488 2.00657 10.2737 0.967305 0 0 1.0004 9.2998e-06
486 2.77882 10.1413 0.0773719 0 0 1.0004 1.28156e-05
487 2.57461 9.32863 1.21134 0 0 1.0004 1.22825e-05
1326 2.96211 10.0806 1.66134 0 0 1.0004 1.45845e-05
489 3.28128 9.21367 0.0856052 0 0 1.0004 1.5082e-05
1329 3.42906 9.07739 1.65711 0 0 1.0004 1.66524e-05
492 3.58216 9.8638 0.736245 0 0 1.0004 1.68832e-05
491 4.16011 8.91915 0.851653 0 0 1.0004 1.94438e-05
496 4.82954 9.75212 0.564873 0 0 1.0004 2.3528e-05
1330 4.34604 9.74564 1.5943 0 0 1.0004 2.19615e-05
1333 4.92334 8.83377 1.63273 0 0 1.0004 2.4115e-05
500 6.50324 9.51312 0.509943 0 0 1.0004 3.19338e-05
1334 5.57626 9.56977 1.1692 0 0 1.0004 2.77746e-05
1417 6.49809 10.2142 1.18611 0 0 1.0004 3.40276e-05
575 5.62972 10.4322 0.437661 0 0 1.0004 2.84352e-05
1413 5.02274 10.5636 1.46279 0 0 1.0004 2.6304e-05
504 8.2797 9.61817 0.568548 0 0 1.0004 4.13843e-05
1338 7.46227 9.42959 1.18621 0 0 1.0004 3.79347e-05
1421 7.96678 10.2969 1.34159 0 0 1.0004 4.35798e-05
579 7.20257 10.3646 0.461811 0 0 1.0004 3.7728e-05
1341 8.37179 8.85595 1.38557 0 0 1.0004 4.07493e-05
503 9.28677 9.14493 0.714835 0 0 1.0004 4.46283e-05
508 9.99198 10.014 0.660314 0 0 1.0004 5.14192e-05
1342 9.08545 9.9013 1.39661 0 0 1.0004 4.83071e-05
583 9.07964 10.5513 0.672954 0 0 1.0004 4.86233e-05
1345 10.2045 9.27021 1.40558 0 0 1.0004 5.08772e-05
507 10.8558 9.40748 0.656539 0 0 1.0004 5.1713e-05
1346 11.0257 9.87786 1.61752 0 0 1.0004 5.814e-05
512 11.5881 10.3043 0.720468 0 0 1.0004 5.86112e-05
1349 11.7532 9.37222 1.32366 0 0 1.0004 5.63888e-05
511 12.5222 9.59867 0.685918 0 0 1.0004 5.74954e-05
516 13.2417 10.3067 0.946957 0 0 1.0004 6.31126e-05
1353 13.0309 9.43314 1.60664 0 0 1.0004 6.15937e-05
1350 12.4063 10.3327 1.5824 0 0 1.0004 6.53052e-05
510 12.1716 10.4754 0.0213862 0 0 1.0004 5.96392e-05
436 13.431 8.81349 0.778028 0 0 1.0004 5.37201e-05
440 14.9254 9.14159 0.76724 0 0 1.0004 5.67306e-05
515 13.9898 9.59082 0.840891 0 0 1.0004 5.92112e-05
1354 13.9632 10.2961 1.69618 0 0 1.0004 6.85565e-05
517 14.7173 10.0692 0.214164 0 0 1.0004 6.19456e-05
1357 14.7812 9.73639 1.75886 0 0 1.0004 6.59621e-05
514 13.8304 10.5513 0.0168305 0 0 1.00039 6.37816e-05
444 16.3768 9.2195 1.1292 0 0 1.0004 5.87335e-05
1278 15.564 9.05891 1.75841 0 0 1.0004 6.10716e-05
519 15.5994 9.87929 1.01376 0 0 1.0004 6.29237e-05
521 16.1377 10.2178 0.236252 0 0 1.0004 6.27093e-05
438 15.7437 9.21944 0.117776 0 0 1.0004 5.60908e-05
523 16.9639 10.0786 0.967018 0 0 1.0004 6.41043e-05
442 16.9618 9.1644 0.261105 0 0 1.0004 5.59853e-05
448 17.57 9.21219 1.11894 0 0 1.0004 5.80857e-05
525 17.6094 10.191 0.192934 0 0 1.0004 6.24258e-05
527 18.2245 10.0784 1.0749 0 0 1.0004 6.3183e-05
446 18.2165 9.30871 0.118401 0 0 1.0004 5.57441e-05
452 18.7619 9.15147 0.950369 0 0 1.0004 5.66237e-05
529 19.028 10.0138 0.304976 0 0 1.0004 6.06363e-05
531 19.9126 10.2252 0.875552 0 0 1.0004 6.10292e-05
1369 19.1063 9.8807 1.71858 0 0 1.0004 6.4658e-05
450 19.6658 9.25519 0.215003 0 0 1.0004 5.46765e-05
456 20.2538 9.28732 1.05442 0 0 1.0004 5.50938e-05
533 20.4038 10.1339 0.0666035 0 0 1.0004 5.80938e-05
535 21.3147 10.199 0.782437 0 0 1.0004 5.66128e-05
1373 20.6477 10.045 1.68169 0 0 1.0004 6.16227e-05
454 21.1721 9.42676 0.202702 0 0 1.0004 5.16901e-05
460 21.9965 9.41961 0.983497 0 0 1.0004 5.0292e-05
1298 22.7741 9.29834 1.61741 0 0 1.0004 4.82193e-05
539 23.1544 10.1183 0.824791 0 0 1.0004 4.81222e-05
1377 22.2988 10.22 1.55709 0 0 1.0004 5.45559e-05
458 23.0749 9.27588 0.20717 0 0 1.0004 4.41868e-05