ITEM: TIMESTEP
8500
ITEM: NUMBER OF ATOMS
32000
ITEM: BOX BOUNDS pp pp pp
0.0000000000000000e+00 3.1748021039364001e+01
0.0000000000000000e+00 3.1748021039364001e+01
0.0000000000000000e+00 3.1748021039364001e+01
ITEM: ATOMS id x y z c_phase c_nbond c_rho v_omega
4 0.155038 1.11731 0.466046 0 0 1.00025 -5.55042e-07
83 1.02374 1.66473 0.778651 0 0 1.00025 1.29832e-06
842 0.747037 0.795736 1.41092 0 0 1.00025 2.23732e-08
921 0.0536013 1.62021 1.37614 0 0 1.00025 -1.7463e-07
3 0.746532 0.0669584 0.616509 0 0 1.00025 -7.94015e-07
8 1.74367 0.793978 1.01378 0 0 1.00025 1.2673e-06
85 1.85024 1.45764 0.218621 0 0 1.00025 2.28074e-06
925 1.87644 1.63798 1.75683 0 0 1.00025 2.6472e-06
6 2.55297 0.714666 0.202763 0 0 1.00025 2.16927e-06
7 2.6066 0.0201097 1.03544 0 0 1.00025 1.21575e-06
87 2.69889 1.50379 0.879132 0 0 1.00025 3.58673e-06
846 2.70536 0.779897 1.74099 0 0 1.00025 2.51606e-06
12 3.46973 0.881111 0.956567 0 0 1.00025 3.57887e-06
849 3.51438 0.0392881 1.7041 0 0 1.00025 2.18645e-06
929 3.6632 1.64985 1.71512 0 0 1.00025 5.28742e-06
10 4.14613 0.797243 0.321384 0 0 1.00025 4.06409e-06
16 4.99857 0.493554 1.16522 0 0 1.00025 4.24686e-06
93 4.97786 1.52541 0.382551 0 0 1.00025 6.52892e-06
850 4.38082 0.876297 1.62878 0 0 1.00025 4.67013e-06
9 3.49336 0.0594639 0.171333 0 0 1.00025 2.0752e-06
14 5.68269 0.564451 0.320286 0 0 1.00025 4.84332e-06
95 5.93833 1.22856 0.940524 0 0 1.00025 6.75839e-06
97 6.63424 1.30559 0.217123 0 0 1.00025 7.34517e-06
854 5.81622 0.376236 1.69647 0 0 1.00025 4.56558e-06
933 5.08958 1.6414 1.43342 0 0 1.00025 7.18398e-06
20 6.74259 0.306589 0.866177 0 0 1.00025 4.64472e-06
937 6.73923 0.91986 1.69164 0 0 1.00025 6.52222e-06
24 8.29505 0.318294 1.06675 0 0 1.00025 4.89621e-06
99 7.424 1.13229 0.949818 0 0 1.00025 7.36124e-06
101 8.31059 1.29799 0.234474 0 0 1.00025 8.18192e-06
941 8.19186 1.17617 1.60732 0 0 1.00025 8.09923e-06
18 7.62122 0.562916 0.144722 0 0 1.00025 5.55391e-06
22 8.89172 0.418952 0.266931 0 0 1.00025 5.07103e-06
28 9.58403 0.250048 0.890467 0 0 1.00025 4.2106e-06
103 9.08613 1.21714 1.10367 0 0 1.00025 8.1197e-06
945 9.6364 0.884733 1.7616 0 0 1.00025 6.86834e-06
105 9.70615 1.28384 0.0929173 0 0 1.00025 8.24432e-06
32 11.2345 0.14723 0.635109 0 0 1.00025 3.05224e-06
107 10.4234 0.970364 0.823724 0 0 1.00025 6.91699e-06
866 10.544 0.11886 1.4455 0 0 1.00025 3.3027e-06
949 11.3499 0.946068 1.41665 0 0 1.00025 6.6855e-06
946 10.6652 1.5989 1.7249 0 0 1.00025 9.99475e-06
26 10.2743 0.287046 0.0767621 0 0 1.00025 4.07454e-06
112 11.2544 1.75809 0.77127 0 0 1.00025 1.0511e-05
36 12.9028 0.171948 0.637322 0 0 1.00025 2.31352e-06
111 12.1056 1.01853 0.509371 0 0 1.00025 6.63477e-06
870 12.1604 0.26004 1.30045 0 0 1.00025 3.11406e-06
953 12.7924 1.14967 1.37295 0 0 1.00025 7.24821e-06
40 14.4049 0.310666 0.769392 0 0 1.00025 2.50387e-06
115 13.6589 1.08468 0.843528 0 0 1.00025 6.57467e-06
117 14.1344 1.53938 0.161779 0 0 1.00025 8.95179e-06
874 13.6422 0.331905 1.63474 0 0 1.00025 2.78949e-06
957 14.4501 1.14185 1.47854 0 0 1.00025 6.76243e-06
119 14.9693 1.5552 0.664459 0 0 1.00025 8.9363e-06
44 15.7616 0.787723 0.788711 0 0 1.00025 4.95888e-06
123 16.6402 1.5854 0.684054 0 0 1.00025 9.54865e-06
878 15.1813 0.471162 1.64115 0 0 1.00025 3.20284e-06
882 16.5967 0.750883 1.34432 0 0 1.00025 4.95871e-06
961 15.7208 1.50868 1.39467 0 0 1.00025 9.03831e-06
38 15.153 0.716353 0.0681405 0 0 1.00025 4.36804e-06
48 17.3092 0.786672 0.553676 0 0 1.00025 5.3952e-06
127 18.014 1.65589 0.756939 0 0 1.00025 1.06217e-05
886 17.9676 0.816518 1.42784 0 0 1.00025 6.0313e-06
51 19.5523 0.111614 0.666856 0 0 1.00025 3.79064e-06
52 18.8393 0.81545 0.688552 0 0 1.00025 6.50106e-06
131 19.6239 1.65826 0.843845 0 0 1.00025 1.15885e-05
889 19.0453 0.24868 1.54786 0 0 1.00025 3.78372e-06
890 19.6539 1.07273 1.69472 0 0 1.00025 8.69932e-06
969 18.7493 1.5989 1.50193 0 0 1.00025 1.08546e-05
129 18.9539 1.67358 0.000536364 0 0 1.00025 1.11765e-05
55 21.1322 0.470377 1.07112 0 0 1.00025 6.55494e-06
56 20.2957 0.889358 0.977097 0 0 1.00025 8.02823e-06
54 21.2304 0.889429 0.218116 0 0 1.00025 8.67333e-06
133 20.425 1.62861 0.200546 0 0 1.00025 1.18455e-05
57 22.0383 0.397214 0.540845 0 0 1.00025 7.00789e-06
59 22.8297 0.563582 1.40599 0 0 1.00025 8.11072e-06
60 22.1727 1.28671 1.33332 0 0 1.00025 1.11062e-05
137 22.0724 1.73674 0.532037 0 0 1.00025 1.30286e-05
58 22.9663 1.19853 0.457238 0 0 1.00025 1.06173e-05
63 24.2703 0.515237 1.43825 0 0 1.00025 8.2434e-06
61 23.5976 0.486654 0.577783 0 0 1.00025 7.98293e-06
62 24.4879 1.31421 0.754471 0 0 1.00025 1.09827e-05
64 23.5408 1.38237 1.40099 0 0 1.00025 1.15446e-05
65 24.9843 0.444718 0.550151 0 0 1.00025 8.00356e-06
67 26.0319 0.501299 1.17238 0 0 1.00025 7.79403e-06
68 25.2168 1.25836 1.47531 0 0 1.00025 1.06419e-05
66 25.9339 1.05712 0.430725 0 0 1.00025 9.47817e-06
70 27.6216 1.38256 0.388984 0 0 1.00025 8.73695e-06
71 27.6409 0.606477 0.875312 0 0 1.00025 6.91342e-06
72 26.7955 1.14271 1.26154 0 0 1.00025 8.98941e-06
913 28.4025 0.428183 1.40564 0 0 1.00025 5.81867e-06
69 26.8131 0.351538 0.231412 0 0 1.00025 6.97766e-06
76 28.693 1.32041 0.739463 0 0 1.00025 7.21029e-06
914 29.4221 1.02089 1.56957 0 0 1.00025 5.76763e-06
917 29.8351 0.230481 1.46033 0 0 1.00025 3.88568e-06
75 29.2965 0.424206 0.616796 0 0 1.00025 4.81362e-06
841 31.6084 0.288388 1.25647 0 0 1.00025 1.8223e-06
79 30.7304 0.527064 0.473706 0 0 1.00025 3.27523e-06
80 30.1391 1.25235 0.77446 0 0 1.00025 5.14158e-06
918 30.8993 1.00969 1.39316 0 0 1.00025 3.7162e-06
82 1.17637 2.42978 0.126447 0 0 1.00025 2.37439e-06
84 0.198108 2.39783 0.810769 0 0 1.00025 7.33255e-07
163 1.36724 3.22223 0.946395 0 0 1.00025 3.61804e-06
922 1.20436 2.35448 1.58969 0 0 1.00025 2.45794e-06
1001 0.461964 3.04268 1.54886 0 0 1.00025 1.73827e-06
161 0.408875 3.10981 0.131159 0 0 1.00025 1.58216e-06
88 1.97796 2.39345 0.783254 0 0 1.00025 3.72279e-06
167 2.74251 3.23778 0.857872 0 0 1.00025 6.37023e-06
926 2.73711 2.19255 1.53443 0 0 1.00025 4.83436e-06
86 2.79351 2.34289 0.0543673 0 0 1.00025 5.02279e-06
1005 2.1912 3.06688 1.76083 0 0 1.00025 5.13426e-06
1009 3.35236 3.36492 1.64783 0 0 1.00025 8.04371e-06
92 3.45703 2.5023 0.779591 0 0 1.00025 6.4873e-06
91 4.0695 1.77737 0.710537 0 0 1.00025 6.03767e-06
96 4.99359 2.49235 0.815144 0 0 1.00025 8.9906e-06
171 4.29525 3.2464 0.749036 0 0 1.00025 9.36903e-06
930 4.21798 2.5725 1.57919 0 0 1.00025 8.02669e-06
94 5.73509 2.3595 0.134235 0 0 1.00025 9.60552e-06
100 6.64127 2.09017 0.774533 0 0 1.00025 9.85982e-06
175 5.75456 3.10523 0.952434 0 0 1.00025 1.18265e-05
934 5.94017 2.10996 1.49199 0 0 1.00025 9.35242e-06
1017 6.63547 2.96509 1.54827 0 0 1.00025 1.29579e-05
177 6.75026 2.83668 0.129858 0 0 1.00025 1.22017e-05
98 7.54184 2.13093 0.13718 0 0 1.00025 1.07562e-05
104 8.17952 2.10325 0.930737 0 0 1.00025 1.12874e-05
179 7.51613 2.96082 0.92442 0 0 1.00025 1.38821e-05
938 7.38474 1.96362 1.5658 0 0 1.00025 1.03572e-05
1021 8.30909 2.8919 1.64592 0 0 1.00025 1.48642e-05
181 8.38925 2.86816 0.0382437 0 0 1.00025 1.42182e-05
102 9.00002 1.99775 0.249861 0 0 1.00025 1.10993e-05
108 9.87046 1.93268 1.10183 0 0 1.00025 1.12186e-05
183 9.0503 2.86935 0.927369 0 0 1.00025 1.51912e-05
942 9.13161 2.12195 1.70429 0 0 1.00025 1.22382e-05
185 9.69087 2.81167 0.207625 0 0 1.00025 1.50532e-05
188 10.0484 3.48219 0.884344 0 0 1.00025 1.87449e-05
106 10.3855 2.02857 0.207471 0 0 1.00025 1.16457e-05
187 10.753 2.71999 0.918228 0 0 1.00025 1.52364e-05
1029 11.5828 2.75697 1.57994 0 0 1.00025 1.62381e-05
1026 10.8702 3.48171 1.58937 0 0 1.00025 1.98307e-05
116 12.78 1.89479 0.596376 0 0 1.00025 1.10261e-05
191 12.0624 2.58277 0.738786 0 0 1.00025 1.49875e-05
950 12.0307 1.85685 1.46536 0 0 1.00025 1.11114e-05
1033 13.0064 2.96704 1.69142 0 0 1.00025 1.79145e-05
195 13.3506 2.98348 0.840437 0 0 1.00025 1.72874e-05
954 13.4945 1.95848 1.47906 0 0 1.00025 1.1557e-05
120 14.155 2.42536 0.923168 0 0 1.00025 1.41625e-05
1037 14.2119 3.36216 1.55502 0 0 1.00025 2.06892e-05
199 14.8818 3.43009 0.877282 0 0 1.00025 2.08087e-05
958 14.9234 2.30189 1.44234 0 0 1.00025 1.37177e-05
118 14.9792 2.51102 0.136787 0 0 1.00025 1.47699e-05
197 14.3211 3.20354 0.0383976 0 0 1.00025 1.88192e-05
114 13.5365 2.26498 0.0562199 0 0 1.00025 1.30388e-05
124 15.8313 2.46148 0.698074 0 0 1.00025 1.46573e-05
203 16.4787 3.23764 0.671552 0 0 1.00025 1.98926e-05
962 16.4505 2.51577 1.5261 0 0 1.00025 1.55428e-05
1041 15.5589 3.27056 1.50364 0 0 1.00025 2.0286e-05
201 15.7413 3.27616 0.0235827 0 0 1.00025 1.99426e-05
965 17.3218 1.8054 1.56481 0 0 1.00025 1.14195e-05
128 17.1968 2.40946 0.683492 0 0 1.00025 1.47899e-05
207 18.0965 3.00809 0.70598 0 0 1.00025 1.89475e-05
966 18.1516 2.51607 1.58892 0 0 1.00025 1.62611e-05
1045 17.2594 3.17432 1.49998 0 0 1.00025 2.01718e-05
132 19.0153 2.45801 1.01488 0 0 1.00025 1.59103e-05
211 19.8538 3.35713 1.27929 0 0 1.00025 2.21545e-05
209 19.0307 3.09945 0.193319 0 0 1.00025 1.9851e-05
130 19.7101 2.44225 0.106394 0 0 1.00025 1.60606e-05
135 21.1841 1.77372 0.960544 0 0 1.00025 1.29613e-05
973 20.4184 1.90343 1.73345 0 0 1.00025 1.36717e-05
134 21.2763 2.54985 0.458338 0 0 1.00025 1.69494e-05
136 20.3209 2.58282 1.11115 0 0 1.00025 1.7338e-05
215 21.4583 3.44312 1.39164 0 0 1.00025 2.21766e-05
213 20.5559 3.12813 0.332715 0 0 1.00025 2.02358e-05
139 22.9693 2.20495 1.51695 0 0 1.00025 1.5324e-05
138 23.0742 2.74989 0.735602 0 0 1.00025 1.74802e-05
140 22.1963 2.64033 1.24107 0 0 1.00025 1.76596e-05
217 22.1164 3.34867 0.605936 0 0 1.00025 2.12884e-05
141 23.8127 1.95032 0.624808 0 0 1.00025 1.35931e-05
143 24.5037 2.12775 1.60326 0 0 1.00025 1.42894e-05
142 24.4404 2.82622 0.777082 0 0 1.00025 1.68831e-05
144 23.7963 3.04715 1.53893 0 0 1.00025 1.87418e-05
16108 25.053 2.97544 0.0161896 0 0 1.00025 1.66902e-05
147 25.9944 1.86417 1.3575 0 0 1.00025 1.19568e-05
149 26.6117 1.91066 0.513413 0 0 1.00025 1.12887e-05
145 25.2027 1.98755 0.517447 0 0 1.00025 1.30044e-05
146 25.8807 2.7417 0.706697 0 0 1.00025 1.48299e-05
148 25.253 2.70191 1.52462 0 0 1.00025 1.56084e-05
152 26.6158 2.68904 1.53118 0 0 1.00025 1.37226e-05
151 27.5653 2.09075 1.23572 0 0 1.00025 1.05231e-05
153 28.3141 2.18262 0.345794 0 0 1.00025 9.60864e-06
150 27.1689 2.80626 0.642275 0 0 1.00025 1.29698e-05
231 27.3013 3.47214 1.41693 0 0 1.00025 1.4675e-05
156 28.3299 2.85177 1.20346 0 0 1.00025 1.11165e-05
233 28.0707 3.32407 0.33382 0 0 1.00025 1.2675e-05
993 28.5754 1.81012 1.50228 0 0 1.00025 8.47992e-06
997 30.0135 1.86731 1.7072 0 0 1.00025 6.42059e-06
155 29.5037 2.10902 0.882637 0 0 1.00025 7.51877e-06
154 29.2659 2.74209 0.289466 0 0 1.00025 9.12772e-06
235 29.3354 3.33821 1.17936 0 0 1.00025 1.01127e-05
159 30.9672 2.01977 0.924177 0 0 1.00025 5.01594e-06
160 30.2522 2.76512 1.00192 0 0 1.00025 7.26411e-06
239 31.1068 3.38251 0.973737 0 0 1.00025 6.55645e-06
998 31.0562 2.73056 1.7269 0 0 1.00025 5.82137e-06
237 30.1958 3.30861 0.14178 0 0 1.00025 8.30059e-06
157 30.4644 1.95548 0.0294227 0 0 1.00025 5.76519e-06
158 31.2116 2.69418 0.076861 0 0 1.00025 5.51167e-06
164 0.383383 3.79432 0.918985 0 0 1.00025 2.03371e-06
241 0.242908 4.61322 0.478417 0 0 1.00025 2.16948e-06
243 1.23957 4.65622 0.985963 0 0 1.00025 4.60511e-06
244 0.199839 5.28256 1.27632 0 0 1.00025 2.40482e-06
162 1.13285 3.85391 0.0642701 0 0 1.00025 3.55085e-06
168 1.94204 4.01688 0.846857 0 0 1.00025 5.58073e-06
247 2.6499 4.80907 1.12968 0 0 1.00025 8.30113e-06
166 2.75108 4.09864 0.203492 0 0 1.00025 7.54331e-06
245 2.00611 4.93277 0.279376 0 0 1.00025 6.57914e-06
249 3.52589 4.79388 0.161563 0 0 1.00025 1.04671e-05
172 3.59552 4.01323 0.88395 0 0 1.00025 9.37477e-06
251 4.17552 4.79867 1.1462 0 0 1.00025 1.24622e-05
170 4.36869 4.10392 0.144879 0 0 1.00025 1.12582e-05
176 5.02835 3.91559 1.17161 0 0 1.00025 1.26106e-05
253 5.13805 4.64727 0.333379 0 0 1.00025 1.44055e-05
174 5.88999 3.84132 0.189775 0 0 1.00025 1.40657e-05
180 6.62337 3.66657 0.775499 0 0 1.00025 1.48833e-05
255 5.82774 4.62403 1.02602 0 0 1.00025 1.63391e-05
1097 6.81115 4.39884 1.64323 0 0 1.00025 1.82845e-05
260 6.82977 5.01757 0.874048 0 0 1.00025 1.98277e-05
184 8.34741 3.77458 0.701852 0 0 1.00025 1.81516e-05
259 7.55827 4.34548 0.548981 0 0 1.00025 1.90425e-05
1018 7.54175 3.75654 1.49698 0 0 1.00025 1.7219e-05
258 7.497 5.23301 0.0376345 0 0 1.00025 2.21487e-05
1098 7.57182 5.28035 1.49188 0 0 1.00025 2.32829e-05
1101 8.37186 4.48615 1.48114 0 0 1.00025 2.17569e-05
264 8.39182 5.18881 0.694342 0 0 1.00025 2.42738e-05
263 9.251 4.45117 0.817009 0 0 1.00025 2.26692e-05
1022 9.22733 3.65584 1.49791 0 0 1.00025 1.94776e-05
182 9.13909 3.76003 0.0579175 0 0 1.00025 1.89699e-05
268 9.97283 5.20549 0.791948 0 0 1.00025 2.77169e-05
1102 9.24919 5.1995 1.588 0 0 1.00025 2.71984e-05
265 10.0381 4.40529 0.125014 0 0 1.00025 2.32515e-05
1105 10.0566 4.23927 1.65511 0 0 1.00025 2.34491e-05
192 11.5754 3.564 0.788519 0 0 1.00025 2.03152e-05
267 10.7831 4.5545 0.902225 0 0 1.00025 2.53713e-05
269 11.5839 4.60826 0.22088 0 0 1.00025 2.59768e-05
1109 11.5643 4.29458 1.69875 0 0 1.00025 2.56918e-05
272 11.6144 5.1824 0.994867 0 0 1.00025 3.0317e-05
186 10.7558 3.75237 0.171301 0 0 1.00025 2.05289e-05
1106 10.7339 5.11398 1.76085 0 0 1.00025 2.94924e-05
196 12.6791 3.53396 0.812476 0 0 1.00025 2.07519e-05
271 12.396 4.48044 0.998321 0 0 1.00025 2.67799e-05
1113 12.9932 4.92068 1.68762 0 0 1.00025 3.10118e-05
273 12.8427 4.55655 0.0573645 0 0 1.00025 2.70419e-05
275 13.4459 4.64744 0.79558 0 0 1.00025 2.83217e-05
200 14.1989 4.09991 0.69568 0 0 1.00025 2.48097e-05
1034 13.7014 4.17893 1.59231 0 0 1.00025 2.61749e-05
1117 14.4477 5.08714 1.52403 0 0 1.00025 3.33226e-05
277 14.3699 4.87242 0.06974 0 0 1.00025 3.00355e-05
279 15.1859 5.01633 0.81195 0 0 1.00025 3.20791e-05
198 15.1669 4.1898 0.102132 0 0 1.00025 2.57431e-05
1038 15.1999 4.41103 1.59474 0 0 1.00025 2.84749e-05
204 15.8737 4.08677 0.920458 0 0 1.00025 2.5765e-05
281 16.1001 4.79989 0.185071 0 0 1.00025 3.04957e-05
1042 16.5345 4.00298 1.68768 0 0 1.00025 2.63053e-05
1121 16.0689 5.07112 1.6451 0 0 1.00025 3.42602e-05
283 16.8173 4.63577 0.903438 0 0 1.00025 2.99636e-05
208 17.4648 3.89743 0.811194 0 0 1.00025 2.47381e-05
287 18.296 4.58025 1.09835 0 0 1.00025 3.01837e-05
1046 18.1399 3.72708 1.65813 0 0 1.00025 2.45241e-05
285 17.6615 4.65305 0.020742 0 0 1.00025 3.00201e-05
206 18.324 3.93851 0.0666329 0 0 1.00025 2.50334e-05
212 19.0478 3.8148 0.957521 0 0 1.00025 2.47056e-05
289 19.0324 4.72137 0.361411 0 0 1.00025 3.07595e-05
291 19.8856 4.80195 1.10216 0 0 1.00025 3.14742e-05
210 19.7688 3.88478 0.237488 0 0 1.00025 2.49181e-05
216 20.605 3.95921 1.23767 0 0 1.00025 2.55274e-05
295 21.0754 4.87207 1.39411 0 0 1.00025 3.14843e-05
214 21.2562 4.08116 0.515993 0 0 1.00025 2.5708e-05
293 20.3455 4.92331 0.347871 0 0 1.00025 3.14556e-05
16179 22.8218 3.54982 0.064431 0 0 1.00025 2.15384e-05
297 21.7794 5.11663 0.803903 0 0 1.00025 3.17218e-05
219 22.9671 3.78127 1.41941 0 0 1.00025 2.30482e-05
220 22.1026 4.29052 1.31453 0 0 1.00025 2.67553e-05
218 22.781 4.50565 0.525661 0 0 1.00025 2.66241e-05
223 24.5961 3.66814 1.56089 0 0 1.00025 2.04665e-05
221 23.7076 3.78791 0.781217 0 0 1.00025 2.18991e-05
222 24.4764 4.48511 0.629963 0 0 1.00025 2.37986e-05
224 23.6261 4.71107 1.34042 0 0 1.00025 2.69092e-05
301 23.7135 5.23839 0.535957 0 0 1.00025 2.8695e-05
228 25.1543 4.65123 1.61742 0 0 1.00025 2.34662e-05
227 25.8312 3.63878 1.51881 0 0 1.00025 1.81585e-05
229 26.2798 3.63525 0.598007 0 0 1.00025 1.7051e-05
225 25.1821 3.81382 0.795677 0 0 1.00025 1.97021e-05
307 25.8403 5.29818 1.35016 0 0 1.00025 2.40094e-05
232 26.4823 4.42798 1.37552 0 0 1.00025 1.93134e-05
309 26.6368 5.11403 0.644444 0 0 1.00025 2.08632e-05
226 25.6637 4.55091 0.399505 0 0 1.00025 2.13896e-05
311 27.4556 4.99728 1.40635 0 0 1.00025 1.84494e-05
236 28.0655 4.08102 1.10787 0 0 1.00025 1.45764e-05
313 28.3902 4.84148 0.706049 0 0 1.00025 1.5145e-05
230 27.1765 4.16285 0.578552 0 0 1.00025 1.68286e-05
234 29.026 3.85786 0.48295 0 0 1.00025 1.17109e-05
315 29.1922 4.60734 1.3282 0 0 1.00025 1.27266e-05
240 30.091 4.1248 1.02822 0 0 1.00025 9.66003e-06
238 31.1206 4.01486 0.367705 0 0 1.00025 7.13428e-06
317 30.3096 4.74199 0.484167 0 0 1.00025 9.75462e-06
319 31.0801 4.64095 1.40326 0 0 1.00025 7.85762e-06
242 1.0237 5.52169 0.461113 0 0 1.00025 4.40924e-06
248 1.64998 5.48533 1.37581 0 0 1.00025 6.32407e-06
323 0.91743 6.20661 1.27594 0 0 1.00025 4.44088e-06
324 0.378291 6.93208 1.50273 0 0 1.00025 2.96048e-06
322 1.09667 6.92861 0.570094 0 0 1.00025 4.97329e-06
321 0.0968302 6.01709 0.447923 0 0 1.00025 2.08633e-06
328 1.83439 6.98959 1.23926 0 0 1.00025 7.57552e-06
325 2.01493 6.16183 0.512437 0 0 1.00025 7.63859e-06
252 3.23925 5.55597 1.29417 0 0 1.00025 1.1067e-05
327 2.39721 6.10762 1.4078 0 0 1.00025 9.08463e-06
246 2.80515 5.55242 0.272099 0 0 1.00025 9.40704e-06
332 3.3915 6.88492 1.13258 0 0 1.00025 1.2949e-05
329 3.53342 6.19909 0.491779 0 0 1.00025 1.24962e-05
250 4.32578 5.37609 0.32252 0 0 1.00025 1.36788e-05
331 4.27259 5.99905 1.22544 0 0 1.00025 1.49818e-05
333 4.97876 6.12866 0.326896 0 0 1.00025 1.72823e-05
336 4.93282 6.69323 1.15725 0 0 1.00025 1.86274e-05
330 4.14841 6.92107 0.222707 0 0 1.00025 1.56323e-05
256 5.07972 5.32902 1.30473 0 0 1.00025 1.61612e-05
254 5.92619 5.30164 0.294037 0 0 1.00025 1.8127e-05
335 5.84834 6.11139 0.957462 0 0 1.00025 2.05302e-05
1177 6.63726 5.8538 1.59475 0 0 1.00025 2.27302e-05
340 6.6183 6.72779 0.990986 0 0 1.00025 2.50813e-05
337 6.55759 5.93007 0.146949 0 0 1.00025 2.17859e-05
334 5.71553 6.91913 0.146487 0 0 1.00025 2.16636e-05
339 7.50625 6.01534 0.752861 0 0 1.00025 2.52911e-05
344 8.22528 6.70466 0.720722 0 0 1.00025 3.02895e-05
1178 7.48145 6.70186 1.59403 0 0 1.00025 2.87713e-05
1181 8.43574 5.96922 1.49272 0 0 1.00025 2.86336e-05
343 9.09462 6.0494 0.734383 0 0 1.00025 2.99766e-05
1185 9.96921 6.04762 1.47082 0 0 1.00025 3.32029e-05
1182 9.31664 6.80181 1.45893 0 0 1.00025 3.53186e-05
345 9.98054 6.10849 0.0912521 0 0 1.00025 3.21248e-05
262 9.19604 5.34633 0.0175613 0 0 1.00025 2.66319e-05
347 10.8231 5.90489 0.95103 0 0 1.00025 3.32642e-05
349 11.5603 6.26039 0.0700099 0 0 1.00025 3.62649e-05
346 10.7696 6.82012 0.142015 0 0 1.00025 3.79922e-05
1186 10.7246 6.79302 1.49157 0 0 1.00025 3.95783e-05
352 11.5686 7.02256 0.80539 0 0 1.00025 4.18059e-05
270 12.2327 5.53534 0.180947 0 0 1.00025 3.2872e-05
276 12.9282 5.73955 0.85992 0 0 1.00025 3.55231e-05
351 12.0283 6.11675 1.04959 0 0 1.00025 3.70924e-05
274 13.5617 5.48944 0.0385273 0 0 1.00025 3.39798e-05
1114 13.5979 5.811 1.56476 0 0 1.00025 3.78665e-05
355 13.6322 6.51382 0.802364 0 0 1.00025 4.16644e-05
280 14.3249 5.68972 0.773189 0 0 1.00025 3.66379e-05
1197 14.6139 6.61845 1.41562 0 0 1.00025 4.54696e-05
357 14.4065 6.35642 0.0362176 0 0 1.00025 4.11738e-05
278 15.2723 5.63627 0.0370888 0 0 1.00025 3.63861e-05
284 16.0976 5.76377 0.949241 0 0 1.00025 3.85048e-05
359 15.3278 6.45428 0.804014 0 0 1.00025 4.33376e-05
1118 15.3916 5.87295 1.69712 0 0 1.00025 4.04713e-05
361 15.9561 6.36545 0.0423857 0 0 1.00025 4.24351e-05
363 16.7731 6.50828 1.14813 0 0 1.00025 4.49679e-05
282 16.8685 5.4748 0.27227 0 0 1.00025 3.58092e-05
286 18.0723 5.40235 0.537452 0 0 1.00025 3.58689e-05
288 17.3629 5.496 1.24809 0 0 1.00025 3.7306e-05
365 17.345 6.34943 0.40729 0 0 1.00025 4.32114e-05
367 17.9385 6.34174 1.37909 0 0 1.00025 4.44874e-05
292 19.0133 5.39389 1.20273 0 0 1.00025 3.63343e-05
369 18.6383 6.34325 0.617176 0 0 1.00025 4.29967e-05
290 19.6733 5.88881 0.623826 0 0 1.00025 3.90494e-05
371 19.5847 6.70329 1.34853 0 0 1.00025 4.63192e-05
373 20.2484 6.90396 0.612659 0 0 1.00025 4.59302e-05
294 20.9799 5.93288 0.651689 0 0 1.00025 3.79e-05
296 20.413 5.76221 1.39829 0 0 1.00025 3.83195e-05
375 21.0193 6.78633 1.30984 0 0 1.00025 4.46691e-05
299 22.6641 5.34183 1.28353 0 0 1.00025 3.21309e-05
377 21.8793 6.85046 0.675475 0 0 1.00025 4.22974e-05
300 21.8724 6.05086 1.38078 0 0 1.00025 3.81019e-05
16260 21.9039 5.90462 0.0575188 0 0 1.00025 3.60507e-05
298 22.8665 6.01569 0.664521 0 0 1.00025 3.47612e-05
379 22.8424 6.88452 1.21165 0 0 1.00025 4.04019e-05
305 25.0102 5.41319 0.568733 0 0 1.00025 2.63666e-05
381 23.549 6.96292 0.277312 0 0 1.00025 3.78719e-05
303 24.525 5.46468 1.4391 0 0 1.00025 2.83921e-05
304 23.6718 6.07351 1.2958 0 0 1.00025 3.36027e-05
383 24.5074 6.75887 1.17126 0 0 1.00025 3.39627e-05
302 24.3203 6.18081 0.427976 0 0 1.00025 3.17485e-05
306 25.8439 6.0256 0.698554 0 0 1.00025 2.61033e-05
308 25.2793 6.21431 1.67347 0 0 1.00025 2.94804e-05
385 25.3313 6.91162 0.497357 0 0 1.00025 3.09844e-05
387 26.0022 6.77483 1.41089 0 0 1.00025 2.85212e-05
312 26.8355 5.99899 1.47545 0 0 1.00025 2.30542e-05
310 27.6322 5.67392 0.720396 0 0 1.00025 1.92215e-05
389 26.8982 6.51822 0.648513 0 0 1.00025 2.39021e-05
391 27.839 6.60242 1.36988 0 0 1.00025 2.07936e-05
316 28.4925 5.63453 1.47985 0 0 1.00025 1.67202e-05
314 29.503 5.39178 0.81608 0 0 1.00025 1.29681e-05
395 29.5623 6.2734 1.32179 0 0 1.00025 1.40953e-05
394 29.7073 6.99635 0.509724 0 0 1.00025 1.43111e-05
393 28.6023 6.32025 0.645401 0 0 1.00025 1.74134e-05
16355 29.4988 6.23156 0.0776796 0 0 1.00025 1.423e-05
16276 28.6042 5.49743 0.0549452 0 0 1.00025 1.57644e-05
318 31.0762 5.40455 0.594595 0 0 1.00025 8.63425e-06
320 30.3331 5.51833 1.46233 0 0 1.00025 1.07613e-05
397 30.5135 6.24083 0.646828 0 0 1.00025 1.08866e-05
399 31.3364 6.18667 1.38307 0 0 1.00025 8.41206e-06
398 31.3265 6.98554 0.605328 0 0 1.00025 8.65308e-06
401 0.389138 7.6425 0.657919 0 0 1.00025 2.61981e-06
402 0.966987 8.45362 0.612101 0 0 1.00025 4.37056e-06
403 1.23916 7.83541 1.49202 0 0 1.00025 5.65819e-06
404 0.482877 8.56238 1.46722 0 0 1.00025 2.64349e-06
405 1.7266 7.7279 0.374257 0 0 1.00025 7.10557e-06
408 1.86056 8.5724 1.46028 0 0 1.00025 8.08472e-06
326 2.61933 7.08494 0.470885 0 0 1.00025 1.0265e-05
406 2.33465 8.56767 0.397505 0 0 1.00025 9.65908e-06
407 2.53387 7.74752 1.27668 0 0 1.00025 1.05108e-05
412 3.16332 8.42998 0.935132 0 0 1.00025 1.34032e-05
409 3.38749 7.67907 0.325563 0 0 1.00025 1.35882e-05
410 3.96881 8.35184 0.0744626 0 0 1.00025 1.66288e-05
411 4.13591 7.54737 1.23156 0 0 1.00025 1.68026e-05
416 4.86567 8.13472 0.928227 0 0 1.00025 2.07098e-05
413 4.83855 7.52229 0.236716 0 0 1.00025 1.91865e-05
1250 3.96932 8.24709 1.76343 0 0 1.00025 1.7582e-05
414 6.05149 8.1977 0.17245 0 0 1.00025 2.57374e-05
415 5.65938 7.44395 1.01747 0 0 1.00025 2.27894e-05
417 6.67823 7.39928 0.162032 0 0 1.00025 2.66919e-05
420 6.58976 8.05489 1.04079 0 0 1.00025 2.84304e-05
495 5.49965 8.79944 0.65174 0 0 1.00025 2.46134e-05
419 7.49232 7.5999 0.741627 0 0 1.00025 3.09302e-05
1258 7.48587 7.98983 1.69044 0 0 1.00025 3.34451e-05
1261 8.2779 7.31954 1.55355 0 0 1.00025 3.42417e-05
421 8.21422 7.44956 0.0194573 0 0 1.00025 3.28049e-05
499 7.36307 8.7 0.710171 0 0 1.00025 3.35333e-05
424 8.49591 8.14133 0.866052 0 0 1.00025 3.72108e-05
423 9.14313 7.45715 0.659594 0 0 1.00025 3.65473e-05
428 9.97972 8.44735 0.691556 0 0 1.00025 4.46404e-05
1262 9.32183 8.50603 1.43943 0 0 1.00025 4.35975e-05
1265 9.91106 7.71538 1.59002 0 0 1.00025 4.25471e-05
348 10.0719 7.06926 0.724352 0 0 1.00025 3.80051e-05
427 10.8358 7.78823 0.83534 0 0 1.00025 4.44954e-05
1266 10.8528 8.55416 1.42695 0 0 1.00025 5.02644e-05
1269 11.6782 7.68227 1.59273 0 0 1.00025 4.8417e-05
429 11.4973 7.98416 0.0393242 0 0 1.00025 4.68923e-05
432 11.6375 8.70116 0.726337 0 0 1.00025 5.21211e-05
426 10.6628 8.71392 0.0259771 0 0 1.00025 4.79716e-05
356 12.9917 7.21167 0.571351 0 0 1.00025 4.57665e-05
431 12.461 8.11374 0.593368 0 0 1.00025 5.07245e-05
1190 12.3663 7.05537 1.37962 0 0 1.00025 4.5148e-05
1270 12.3766 8.55675 1.49479 0 0 1.00025 5.58521e-05
1273 13.1545 7.91249 1.47605 0 0 1.00025 5.34424e-05
360 14.6153 7.32371 0.60618 0 0 1.00025 4.94944e-05
435 13.9143 8.04083 0.477767 0 0 1.00025 5.35428e-05
1194 13.7751 7.27411 1.35503 0 0 1.00025 4.8971e-05
1277 14.5712 8.1277 1.35883 0 0 1.00025 5.74628e-05
1274 13.9986 8.79284 1.56704 0 0 1.00025 6.24961e-05
364 15.9382 7.32591 0.904996 0 0 1.00025 5.07197e-05
439 15.3935 8.28691 0.865119 0 0 1.00025 5.84477e-05
443 16.5828 8.20609 1.10814 0 0 1.00025 5.94774e-05
1198 15.4538 7.52379 1.64498 0 0 1.00025 5.46583e-05
441 16.1622 8.33285 0.151548 0 0 1.00025 5.86616e-05
362 16.7333 7.23625 0.285847 0 0 1.00025 5.01356e-05
368 17.2856 7.42879 1.11548 0 0 1.00025 5.31809e-05
445 17.3629 8.18837 0.325019 0 0 1.00025 5.85764e-05
447 18.0195 8.13659 1.03875 0 0 1.00025 5.86911e-05
366 18.108 7.27752 0.224361 0 0 1.00025 5.06229e-05
372 18.5592 7.17553 1.15001 0 0 1.00025 5.08836e-05
370 19.2921 7.47664 0.634851 0 0 1.00025 5.14374e-05
451 19.2234 8.30567 1.18835 0 0 1.00025 5.98975e-05
449 18.747 8.32329 0.189607 0 0 1.00025 5.83115e-05
453 20.0746 8.30607 0.368258 0 0 1.00025 5.68104e-05
376 20.1501 7.82719 1.32729 0 0 1.00025 5.45569e-05
374 20.9541 7.64318 0.66484 0 0 1.00025 4.99871e-05
455 20.9192 8.6319 1.04296 0 0 1.00025 5.77997e-05
380 21.7904 7.87197 1.15224 0 0 1.00025 4.98086e-05
457 21.8549 8.55 0.269327 0 0 1.00025 5.28715e-05
459 22.8146 8.4016 1.02151 0 0 1.00025 4.89236e-05
378 22.5661 7.68225 0.390473 0 0 1.00025 4.50293e-05
384 23.6546 7.53188 1.06711 0 0 1.00025 4.07164e-05
461 23.6907 8.29254 0.379302 0 0 1.00025 4.36532e-05
463 24.5393 8.30965 1.00407 0 0 1.00025 4.04535e-05
382 24.5217 7.51953 0.279267 0 0 1.00025 3.66117e-05
388 25.2999 7.58804 1.2551 0 0 1.00025 3.41516e-05
467 26.1931 8.19649 0.997239 0 0 1.00025 3.18143e-05
1306 26.1889 8.83284 1.76222 0 0 1.00025 3.44291e-05
386 26.2503 7.4448 0.375043 0 0 1.00025 2.91734e-05
465 25.405 8.31986 0.316114 0 0 1.00025 3.58366e-05
466 26.4305 8.7727 0.0974331 0 0 1.00025 3.15941e-05
390 27.8551 7.1434 0.529189 0 0 1.00025 2.16166e-05
392 26.9456 7.27859 1.34161 0 0 1.00025 2.61457e-05
470 28.1066 8.64776 0.424372 0 0 1.00025 2.2926e-05
471 27.9479 7.97883 1.21557 0 0 1.00025 2.30349e-05
472 27.1334 8.83225 1.03054 0 0 1.00025 2.84834e-05
469 27.1528 7.94563 0.436598 0 0 1.00025 2.63485e-05
396 28.7859 7.22362 1.23198 0 0 1.00025 1.81888e-05
474 29.7271 8.45429 0.543875 0 0 1.00025 1.53493e-05
475 29.6323 7.77243 1.27982 0 0 1.00025 1.53877e-05
476 28.9134 8.67833 1.18867 0 0 1.00025 1.92564e-05
473 28.8351 7.83854 0.418291 0 0 1.00025 1.86053e-05
400 30.4535 7.15332 1.18122 0 0 1.00025 1.16678e-05
479 31.3764 7.8551 1.29916 0 0 1.00025 8.75035e-06
480 30.5592 8.55453 1.18681 0 0 1.00025 1.19042e-05
477 30.7642 7.92686 0.383366 0 0 1.00025 1.08912e-05
478 31.5524 8.64666 0.392013 0 0 1.00025 8.04972e-06
482 1.24054 10.2527 0.269495 0 0 1.00025 4.43461e-06
483 1.14351 9.34859 1.1997 0 0 1.00025 4.76597e-06
484 0.375889 9.93795 0.898807 0 0 1.00025 1.20671e-06
481 0.492042 9.33989 0.123019 0 0 1.00025 2.18035e-06
1322 0.933385 10.1079 1.74886 0 0 1.00025 3.58817e-06
485 1.88333 9.39914 0.446178 0 0 1.00025 7.7741e-06
488 1.94776 10.3063 0.966976 0 0 1.00025 7.77678e-06
486 2.7179 10.1881 0.0783249 0 0 1.00025 1.13496e-05
487 2.50751 9.36951 1.21516 0 0 1.00025 1.07417e-05
1326 2.89903 10.135 1.66176 0 0 1.00025 1.29389e-05
489 3.2125 9.2694 0.0829434 0 0 1.00025 1.36701e-05
1329 3.35248 9.13522 1.65501 0 0 1.00025 1.50374e-05
492 3.51544 9.92489 0.733922 0 0 1.00025 1.54196e-05
491 4.08343 8.9887 0.852321 0 0 1.00025 1.79898e-05
493 4.73224 9.05349 0.000729867 0 0 1.00025 2.07784e-05
496 4.7536 9.83391 0.565091 0 0 1.00025 2.19774e-05
1330 4.26923 9.82739 1.60034 0 0 1.00025 2.0248e-05
1333 4.83682 8.91925 1.63701 0 0 1.00025 2.25206e-05
500 6.41393 9.61622 0.510662 0 0 1.00025 3.07131e-05
1334 5.48697 9.66545 1.16537 0 0 1.00025 2.62777e-05
1337 6.33763 8.88674 1.25071 0 0 1.00025 2.98246e-05
1417 6.40871 10.3216 1.18351 0 0 1.00025 3.25328e-05
575 5.55154 10.5315 0.434808 0 0 1.00025 2.69414e-05
501 8.31231 8.86182 0.0776059 0 0 1.00025 3.83708e-05
504 8.17024 9.72954 0.569045 0 0 1.00025 4.06217e-05
1338 7.36482 9.54195 1.1865 0 0 1.00025 3.67744e-05
1341 8.25959 8.96847 1.38774 0 0 1.00025 4.01388e-05
1421 7.85524 10.4191 1.3458 0 0 1.00025 4.21977e-05
579 7.10772 10.4868 0.459926 0 0 1.00025 3.63464e-05
503 9.16708 9.25662 0.717918 0 0 1.00025 4.45082e-05
508 9.87182 10.1285 0.657899 0 0 1.00025 5.1401e-05
1342 8.96946 10.0313 1.39773 0 0 1.00025 4.76928e-05
1345 10.0743 9.38338 1.40613 0 0 1.00025 5.11735e-05
507 10.72 9.50396 0.654685 0 0 1.00025 5.27582e-05
1346 10.89 9.98068 1.62097 0 0 1.00025 5.88972e-05
1349 11.5977 9.46202 1.31862 0 0 1.00025 5.81696e-05
512 11.4584 10.4041 0.719751 0 0 1.00025 6.03082e-05
436 13.2823 8.85947 0.781292 0 0 1.00025 5.82903e-05
511 12.3783 9.67121 0.686322 0 0 1.00025 6.064e-05
516 13.0977 10.3602 0.950524 0 0 1.00025 6.76291e-05
1353 12.8614 9.49284 1.60783 0 0 1.00025 6.4796e-05
1350 12.2574 10.4206 1.5867 0 0 1.00025 6.76885e-05
510 12.0327 10.5566 0.0228701 0 0 1.00025 6.24618e-05
440 14.7676 9.15293 0.765093 0 0 1.00025 6.39452e-05
515 13.8338 9.6187 0.839736 0 0 1.00025 6.50146e-05
1354 13.8034 10.3288 1.69894 0 0 1.00025 7.39482e-05
517 14.5642 10.0897 0.216763 0 0 1.00025 6.97206e-05
444 16.2135 9.18696 1.13454 0 0 1.00025 6.7854e-05
1278 15.3882 9.05359 1.76104 0 0 1.00025 6.85303e-05
519 15.4406 9.86212 1.01527 0 0 1.00025 7.17897e-05
521 15.9858 10.1938 0.243934 0 0 1.00025 7.36559e-05
438 15.5915 9.20404 0.114898 0 0 1.00025 6.49511e-05
523 16.8088 10.0239 0.969001 0 0 1.00025 7.51576e-05
442 16.808 9.10602 0.264675 0 0 1.00025 6.57643e-05
448 17.4078 9.14979 1.12823 0 0 1.00025 6.8188e-05
525 17.4562 10.1186 0.201211 0 0 1.00025 7.45603e-05
527 18.0748 9.99056 1.07917 0 0 1.00025 7.49054e-05
446 18.0639 9.22434 0.122224 0 0 1.00025 6.65458e-05
452 18.6039 9.04705 0.953345 0 0 1.00025 6.63583e-05
529 18.884 9.8987 0.307674 0 0 1.00025 7.17858e-05
531 19.7768 10.0958 0.874086 0 0 1.00025 7.1904e-05
1369 18.9541 9.76405 1.72408 0 0 1.00025 7.51468e-05
450 19.522 9.13594 0.216885 0 0 1.00025 6.43926e-05
456 20.1071 9.15613 1.06411 0 0 1.00025 6.43729e-05
533 20.2656 9.99493 0.0721367 0 0 1.00025 6.84577e-05
535 21.1867 10.0463 0.778311 0 0 1.00025 6.57337e-05
1373 20.5133 9.89821 1.68839 0 0 1.00025 7.10736e-05
454 21.044 9.28835 0.207098 0 0 1.00025 6.06326e-05