ITEM: TIMESTEP
47500
ITEM: NUMBER OF ATOMS
32000
ITEM: BOX BOUNDS pp pp pp
0.0000000000000000e+00 3.1748021039364001e+01
0.0000000000000000e+00 3.1748021039364001e+01
0.0000000000000000e+00 3.1748021039364001e+01
ITEM: ATOMS id x y z c_phase c_nbond c_rho v_omega
4 0.255145 1.09226 0.46184 0 0 1.00103 1.99897e-06
83 1.20158 1.50987 0.770726 0 0 1.00103 3.93145e-06
842 0.819106 0.678412 1.39239 0 0 1.00103 2.50011e-06
921 0.245637 1.60841 1.37316 0 0 1.00103 2.7077e-06
8 1.80998 0.567816 1.00435 0 0 1.00103 3.4035e-06
85 2.01662 1.20502 0.192173 0 0 1.00103 4.70887e-06
925 2.06595 1.34324 1.7241 0 0 1.00103 4.96261e-06
6 2.59291 0.354972 0.176637 0 0 1.00103 3.96589e-06
87 2.86289 1.13092 0.846825 0 0 1.00103 5.64531e-06
846 2.76998 0.415635 1.71272 0 0 1.00103 4.18538e-06
12 3.52878 0.398466 0.939541 0 0 1.00103 4.9826e-06
929 3.85592 1.15279 1.67325 0 0 1.00103 6.81818e-06
10 4.20879 0.258407 0.28856 0 0 1.00103 5.03525e-06
850 4.4238 0.298278 1.61136 0 0 1.00103 5.69132e-06
91 4.29577 1.21526 0.704812 0 0 1.00103 7.53965e-06
93 5.17107 0.911637 0.356504 0 0 1.00103 7.30899e-06
95 6.07963 0.558443 0.942067 0 0 1.00103 6.68726e-06
933 5.27408 0.968035 1.42797 0 0 1.00103 7.72379e-06
934 6.23384 1.42212 1.47024 0 0 1.00103 9.4652e-06
94 6.08023 1.6612 0.138305 0 0 1.00103 1.0098e-05
97 6.79325 0.621805 0.205334 0 0 1.00103 6.96181e-06
937 6.82608 0.21616 1.67678 0 0 1.00103 5.86083e-06
99 7.56549 0.421053 0.939871 0 0 1.00103 6.48139e-06
938 7.71076 1.21319 1.54844 0 0 1.00103 9.47817e-06
100 6.96803 1.3733 0.777257 0 0 1.00103 9.67856e-06
98 7.88248 1.38897 0.119128 0 0 1.00103 9.78557e-06
941 8.38586 0.413445 1.61099 0 0 1.00103 6.7108e-06
101 8.50305 0.585069 0.2087 0 0 1.00103 6.8117e-06
103 9.25547 0.51588 1.06489 0 0 1.00103 6.24283e-06
945 9.79842 0.204484 1.74779 0 0 1.00103 4.51405e-06
105 9.91088 0.581726 0.113141 0 0 1.00103 5.83468e-06
102 9.37781 1.30629 0.221153 0 0 1.00103 9.3382e-06
104 8.5683 1.33431 0.930597 0 0 1.00103 9.71626e-06
942 9.55846 1.35571 1.72253 0 0 1.00103 1.02481e-05
108 10.2518 1.25166 1.0667 0 0 1.00103 8.84141e-06
107 10.5961 0.352552 0.837851 0 0 1.00103 4.62284e-06
949 11.5458 0.372301 1.41042 0 0 1.00103 4.18843e-06
946 11.0205 1.00465 1.72267 0 0 1.00103 7.8066e-06
112 11.6754 1.21598 0.782162 0 0 1.00103 8.31685e-06
106 10.8161 1.37075 0.181001 0 0 1.00103 9.06238e-06
111 12.3108 0.546723 0.521192 0 0 1.00103 4.2369e-06
953 13.0642 0.703963 1.37316 0 0 1.00103 4.33471e-06
950 12.491 1.37711 1.45102 0 0 1.00104 8.53686e-06
116 13.292 1.52443 0.613218 0 0 1.00103 8.4912e-06
40 14.4683 0.121064 0.78243 0 0 1.00103 1.55695e-07
115 13.9144 0.820329 0.819228 0 0 1.00103 3.93485e-06
117 14.5512 1.27267 0.126522 0 0 1.00103 5.66245e-06
874 13.6898 0.00597039 1.62709 0 0 1.00103 3.34672e-07
957 14.7362 1.00063 1.48335 0 0 1.00103 4.5144e-06
954 14.0167 1.67102 1.45552 0 0 1.00103 8.54689e-06
119 15.3747 1.44458 0.665152 0 0 1.00103 6.04117e-06
44 15.9657 0.756419 0.790016 0 0 1.00103 1.97421e-06
878 15.2722 0.391257 1.63402 0 0 1.00103 2.49794e-07
961 16.1351 1.51011 1.42809 0 0 1.00103 6.31428e-06
38 15.2932 0.593634 0.0687185 0 0 1.00103 1.11407e-06
882 16.7819 0.855541 1.35798 0 0 1.00103 1.94767e-06
123 17.0637 1.73881 0.703232 0 0 1.00103 6.82038e-06
48 17.5229 1.00037 0.56807 0 0 1.00103 2.55627e-06
886 18.2014 1.14182 1.42734 0 0 1.00103 3.72447e-06
47 18.1727 0.326486 0.695558 0 0 1.00103 -2.33734e-07
885 17.2854 0.090227 1.40466 0 0 1.00103 -1.71397e-06
51 19.5876 0.564464 0.692187 0 0 1.00103 1.17367e-06
52 19.0521 1.25118 0.704305 0 0 1.00103 4.35454e-06
889 19.0753 0.677974 1.56593 0 0 1.00103 1.11106e-06
890 19.9939 1.58379 1.70101 0 0 1.00103 7.13578e-06
55 21.2982 1.08862 1.08921 0 0 1.00104 4.53817e-06
56 20.5304 1.44186 0.944228 0 0 1.00104 5.80487e-06
54 21.4737 1.53949 0.207143 0 0 1.00104 7.09278e-06
893 20.4593 0.572723 1.41336 0 0 1.00104 2.44423e-06
53 20.31 0.563399 0.0604354 0 0 1.00103 2.45031e-06
17534 20.9551 0.135651 0.259083 0 0 1.00104 2.75324e-07
57 22.1885 1.11287 0.543564 0 0 1.00104 5.42727e-06
59 23.0198 1.26993 1.40538 0 0 1.00103 6.41107e-06
17538 22.7568 0.395795 0.45145 0 0 1.00103 2.36455e-06
17540 21.7572 0.197495 0.861404 0 0 1.00103 1.49146e-06
63 24.4573 1.24099 1.39993 0 0 1.00103 6.80105e-06
61 23.7351 1.18793 0.551139 0 0 1.00103 6.16145e-06
17544 23.5302 0.361929 1.23935 0 0 1.00103 3.24427e-06
17542 24.3394 0.338916 0.579531 0 0 1.00103 3.42269e-06
65 25.123 1.13696 0.510683 0 0 1.00103 6.17597e-06
67 26.1302 1.14326 1.14616 0 0 1.00103 5.79024e-06
66 26.1499 1.75511 0.408195 0 0 1.00103 7.43429e-06
17548 25.2042 0.574764 1.33598 0 0 1.00103 4.59328e-06
17546 25.9126 0.29426 0.328028 0 0 1.00103 3.64745e-06
71 27.7442 1.11531 0.862431 0 0 1.00103 4.67413e-06
72 26.9861 1.75003 1.23562 0 0 1.00103 6.71137e-06
69 26.8883 0.953363 0.242807 0 0 1.00103 4.92058e-06
17552 27.0897 0.348743 0.997438 0 0 1.00103 3.36834e-06
17556 28.3493 0.202973 0.728375 0 0 1.00103 2.23238e-06
913 28.4849 0.882599 1.41425 0 0 1.00103 3.42385e-06
76 28.8677 1.71468 0.722825 0 0 1.00103 4.24477e-06
914 29.5488 1.36224 1.55732 0 0 1.00103 3.0756e-06
917 29.8625 0.488627 1.44689 0 0 1.00103 1.3862e-06
75 29.3473 0.747184 0.612382 0 0 1.00103 2.14525e-06
841 31.6153 0.305614 1.25121 0 0 1.00103 -1.00521e-06
79 30.7857 0.650594 0.474837 0 0 1.00103 3.31837e-07
80 30.2855 1.46117 0.761641 0 0 1.00103 1.91591e-06
918 31.0062 1.12771 1.36931 0 0 1.00103 7.13774e-07
82 1.45246 2.24155 0.0963668 0 0 1.00103 5.37101e-06
84 0.483455 2.35684 0.793468 0 0 1.00103 3.9284e-06
922 1.47601 2.15605 1.57404 0 0 1.00103 5.45948e-06
1001 0.813707 2.96768 1.54134 0 0 1.00103 5.12773e-06
161 0.768408 3.04867 0.113429 0 0 1.00103 5.10876e-06
163 1.72568 2.96766 0.920699 0 0 1.00103 6.95082e-06
88 2.2562 2.08336 0.770681 0 0 1.00103 6.3518e-06
167 3.13675 2.81204 0.838385 0 0 1.00103 9.33453e-06
926 3.01585 1.80076 1.52496 0 0 1.00103 7.21437e-06
86 3.07231 1.94875 0.0372511 0 0 1.00103 7.47474e-06
1005 2.54244 2.717 1.72379 0 0 1.00103 8.02048e-06
1009 3.80413 2.81519 1.62689 0 0 1.00103 1.07636e-05
92 3.77474 2.00901 0.771909 0 0 1.00103 8.71905e-06
171 4.71892 2.64938 0.750992 0 0 1.00103 1.12961e-05
930 4.58337 1.98137 1.57281 0 0 1.00103 9.69165e-06
170 4.89648 3.4538 0.126419 0 0 1.00103 1.37767e-05
172 4.08245 3.47033 0.87025 0 0 1.00103 1.21367e-05
96 5.33221 1.83328 0.812313 0 0 1.00103 1.00591e-05
175 6.24459 2.38358 0.941007 0 0 1.00103 1.26946e-05
173 5.53409 2.55649 0.0171908 0 0 1.00103 1.23484e-05
174 6.45759 3.07005 0.142244 0 0 1.00103 1.5314e-05
176 5.59727 3.22348 1.09892 0 0 1.00103 1.45984e-05
1017 7.14742 2.18371 1.52517 0 0 1.00103 1.28676e-05
177 7.17288 2.11095 0.101929 0 0 1.00103 1.22244e-05
179 8.0298 2.17019 0.857818 0 0 1.00103 1.31626e-05
180 7.24876 2.89858 0.779429 0 0 1.00103 1.55455e-05
1018 8.24231 2.91801 1.48782 0 0 1.00103 1.67394e-05
259 8.31337 3.50204 0.57104 0 0 1.00103 1.93286e-05
1021 8.85587 2.09033 1.61789 0 0 1.00103 1.33533e-05
181 8.92066 2.11127 0.0225155 0 0 1.00103 1.2812e-05
183 9.63112 2.10506 0.925717 0 0 1.00103 1.33764e-05
1022 10.0014 2.85557 1.4909 0 0 1.00103 1.80556e-05
184 9.06424 2.92773 0.689755 0 0 1.00103 1.68075e-05
182 9.91026 2.99433 0.0261695 0 0 1.00103 1.78468e-05
185 10.2955 2.12706 0.192607 0 0 1.00103 1.32644e-05
188 10.7822 2.78206 0.850799 0 0 1.00103 1.69523e-05
187 11.3653 2.07303 0.915782 0 0 1.00103 1.267e-05
1026 11.6817 2.86934 1.59153 0 0 1.00103 1.76427e-05
186 11.6093 3.06469 0.162553 0 0 1.00103 1.76953e-05
1025 10.7875 1.93314 1.7316 0 0 1.00103 1.26925e-05
1105 10.986 3.50125 1.63055 0 0 1.00103 2.12576e-05
1029 12.2872 2.2261 1.62086 0 0 1.00104 1.43226e-05
192 12.4333 2.9993 0.831188 0 0 1.00103 1.83148e-05
191 12.7383 2.14246 0.754602 0 0 1.00103 1.35705e-05
196 13.5226 3.15701 0.821615 0 0 1.00104 1.88509e-05
1033 13.8035 2.53852 1.69872 0 0 1.00104 1.43257e-05
195 14.2055 2.71636 0.849498 0 0 1.00104 1.55702e-05
120 14.8294 2.19135 0.915503 0 0 1.00103 1.08926e-05
114 14.135 1.96791 0.0218311 0 0 1.00103 1.08403e-05
194 14.3714 3.37617 0.0485184 0 0 1.00103 1.91357e-05
1037 15.1658 3.12136 1.55298 0 0 1.00104 1.68142e-05
197 15.1487 3.02275 0.0399365 0 0 1.00103 1.55672e-05
199 15.8631 3.31867 0.863909 0 0 1.00103 1.76358e-05
958 15.6264 2.25557 1.47171 0 0 1.00103 1.19842e-05
118 15.676 2.37859 0.112467 0 0 1.00103 1.13025e-05
124 16.5015 2.48344 0.715101 0 0 1.00103 1.15368e-05
1041 16.5272 3.33619 1.51713 0 0 1.00103 1.77015e-05
962 17.1856 2.66069 1.55016 0 0 1.00103 1.30573e-05
203 17.3989 3.4017 0.660368 0 0 1.00103 1.73782e-05
965 17.8292 2.01935 1.56567 0 0 1.00103 8.1704e-06
128 17.8854 2.66248 0.661425 0 0 1.00103 1.23052e-05
1045 18.134 3.46057 1.49959 0 0 1.00103 1.72022e-05
127 18.4847 2.01816 0.744048 0 0 1.00103 8.35476e-06
969 19.2226 2.04578 1.49604 0 0 1.00103 9.27363e-06
207 18.9106 3.39953 0.720275 0 0 1.00103 1.62058e-05
966 18.8672 2.89027 1.61292 0 0 1.00103 1.40396e-05
129 19.4093 2.12283 0.0284527 0 0 1.00103 8.60391e-06
132 19.712 3.00863 1.02766 0 0 1.00103 1.45617e-05
131 20.0631 2.19223 0.84253 0 0 1.00103 9.33984e-06
130 20.3782 2.99321 0.113664 0 0 1.00103 1.39226e-05
133 20.8659 2.23854 0.200802 0 0 1.00103 1.00435e-05
135 21.622 2.40979 0.947193 0 0 1.00103 1.09242e-05
973 20.9429 2.51979 1.74069 0 0 1.00104 1.22733e-05
136 21.0236 3.20339 1.05895 0 0 1.00104 1.54338e-05
58 23.219 1.92725 0.473916 0 0 1.00103 8.8121e-06
134 21.9366 3.28314 0.466545 0 0 1.00104 1.5243e-05
60 22.5268 2.03624 1.3279 0 0 1.00104 9.88458e-06
137 22.4901 2.48569 0.482505 0 0 1.00104 1.1417e-05
140 22.7869 3.42422 1.21168 0 0 1.00104 1.61465e-05
139 23.5092 2.9837 1.49513 0 0 1.00103 1.33434e-05
62 24.7596 2.0317 0.714527 0 0 1.00103 8.90948e-06
64 23.8812 2.11155 1.36189 0 0 1.00103 9.80719e-06
141 24.1841 2.74884 0.612054 0 0 1.00103 1.16244e-05
143 24.9475 2.90124 1.53649 0 0 1.00103 1.22067e-05
68 25.4892 1.98455 1.42281 0 0 1.00103 8.73235e-06
147 26.3506 2.56923 1.35061 0 0 1.00103 9.77206e-06
145 25.5872 2.71463 0.53494 0 0 1.00103 1.06192e-05
146 26.379 3.46655 0.678703 0 0 1.00103 1.20361e-05
148 25.7657 3.50149 1.50696 0 0 1.00103 1.30577e-05
70 27.8563 1.90393 0.372452 0 0 1.00103 5.93867e-06
149 26.9493 2.53543 0.499216 0 0 1.00103 8.51322e-06
152 27.067 3.38086 1.51412 0 0 1.00103 1.08953e-05
151 27.874 2.63171 1.20884 0 0 1.00103 7.36829e-06
150 27.6128 3.40698 0.610428 0 0 1.00103 9.59032e-06
153 28.6407 2.64349 0.334916 0 0 1.00103 6.22417e-06
156 28.7386 3.32152 1.17253 0 0 1.00103 7.45288e-06
993 28.8303 2.26167 1.50026 0 0 1.00103 5.52163e-06
155 29.7562 2.40534 0.86446 0 0 1.00103 4.12102e-06
154 29.6361 3.11908 0.273669 0 0 1.00103 5.34367e-06
997 30.2755 2.11535 1.68588 0 0 1.00103 3.22758e-06
159 31.2163 2.10845 0.90902 0 0 1.00103 1.47121e-06
160 30.5884 2.95725 0.981307 0 0 1.00103 3.14453e-06
239 31.5184 3.4477 0.95433 0 0 1.00103 2.26932e-06
998 31.3971 2.80913 1.71477 0 0 1.00103 1.9462e-06
237 30.6238 3.52167 0.150138 0 0 1.00103 4.09227e-06
157 30.6939 2.13505 0.0302925 0 0 1.00103 2.3253e-06
158 31.5312 2.75005 0.0664151 0 0 1.00103 1.48434e-06
164 0.819199 3.71101 0.896742 0 0 1.00103 5.90065e-06
241 0.756689 4.56534 0.444472 0 0 1.00103 6.50242e-06
162 1.58446 3.65689 0.0613156 0 0 1.00103 7.29682e-06
244 0.787314 5.20502 1.26217 0 0 1.00103 7.42819e-06
1081 1.0766 4.28559 1.75304 0 0 1.00103 7.05896e-06
243 1.74997 4.39591 0.962115 0 0 1.00103 8.94612e-06
168 2.43435 3.67664 0.8437 0 0 1.00103 9.31569e-06
247 3.22369 4.35552 1.09691 0 0 1.00103 1.25291e-05
166 3.25959 3.64755 0.172451 0 0 1.00103 1.11812e-05
245 2.55076 4.5507 0.264439 0 0 1.00103 1.08646e-05
248 2.28512 5.14952 1.33712 0 0 1.00103 1.15186e-05
1006 3.09168 3.63336 1.75241 0 0 1.00103 1.10966e-05
246 3.43771 5.03144 0.258204 0 0 1.00103 1.39316e-05
249 4.1302 4.21105 0.164556 0 0 1.00103 1.42722e-05
251 4.83818 4.12509 1.13804 0 0 1.00103 1.58269e-05
252 3.94617 4.97435 1.24394 0 0 1.00103 1.58117e-05
331 5.01454 5.2631 1.18551 0 0 1.00103 1.92768e-05
250 5.03152 4.68323 0.293753 0 0 1.00103 1.74924e-05
253 5.7888 3.90551 0.29968 0 0 1.00103 1.68952e-05
255 6.56527 3.79219 0.999138 0 0 1.00103 1.79816e-05
254 6.6855 4.46481 0.231748 0 0 1.00103 2.04026e-05
256 5.84025 4.56283 1.23224 0 0 1.00103 1.9283e-05
335 6.7038 5.18128 0.933923 0 0 1.00103 2.36919e-05
1097 7.53959 3.5621 1.62438 0 0 1.00103 1.90356e-05
260 7.60254 4.1936 0.832674 0 0 1.00103 2.10549e-05
258 8.36313 4.34024 0.00567488 0 0 1.00102 2.29593e-05
1177 7.58079 4.92341 1.58748 0 0 1.00103 2.49972e-05
337 7.47079 5.06061 0.111023 0 0 1.00103 2.42911e-05
339 8.47718 5.05145 0.747005 0 0 1.00102 2.66593e-05
1098 8.48493 4.32045 1.4644 0 0 1.00103 2.34947e-05
1101 9.23082 3.6085 1.44533 0 0 1.00103 2.07159e-05
264 9.3265 4.31319 0.690044 0 0 1.00102 2.42343e-05
1181 9.49475 5.00949 1.47972 0 0 1.00102 2.89968e-05
263 10.1446 3.6456 0.783912 0 0 1.00103 2.13497e-05
262 10.2509 4.49512 0.00154875 0 0 1.00103 2.61742e-05
1102 10.292 4.33039 1.55913 0 0 1.00102 2.57835e-05
268 11.0535 4.42393 0.788472 0 0 1.00103 2.66034e-05
265 10.9456 3.69282 0.0858312 0 0 1.00103 2.21556e-05
343 10.2412 5.1332 0.748181 0 0 1.00102 2.98936e-05
1185 11.2453 5.16991 1.48632 0 0 1.00102 3.20105e-05
267 11.7938 3.80871 0.875505 0 0 1.00103 2.25235e-05
266 11.8695 4.68417 0.0159619 0 0 1.00103 2.75038e-05
1106 11.9049 4.41071 1.72507 0 0 1.00102 2.70455e-05
269 12.6139 4.04768 0.203693 0 0 1.00103 2.36724e-05
1109 12.6086 3.72429 1.67017 0 0 1.00103 2.34781e-05
272 12.8038 4.58937 1.00041 0 0 1.00102 2.78068e-05
347 12.0678 5.18796 0.871235 0 0 1.00103 3.13244e-05
270 13.4781 4.96278 0.189742 0 0 1.00103 2.83992e-05
271 13.5532 4.02463 1.04416 0 0 1.00103 2.50918e-05
273 13.881 4.12007 0.048504 0 0 1.00103 2.34213e-05
1113 14.2885 4.4953 1.71436 0 0 1.00103 2.75544e-05
275 14.5949 4.39194 0.754048 0 0 1.00103 2.63204e-05
1034 14.8359 3.86214 1.58847 0 0 1.00104 2.27659e-05
200 15.3083 3.92874 0.693119 0 0 1.00104 2.2651e-05
277 15.5722 4.67887 0.0874217 0 0 1.00104 2.60725e-05
1117 15.7304 4.89569 1.49004 0 0 1.00104 2.93424e-05
279 16.5218 5.06102 0.837776 0 0 1.00104 2.91887e-05
198 16.2575 4.13779 0.105472 0 0 1.00103 2.15614e-05
1038 16.4228 4.3674 1.60664 0 0 1.00103 2.4009e-05
204 16.9801 4.17742 0.879685 0 0 1.00103 2.23457e-05
281 17.282 4.96106 0.127448 0 0 1.00103 2.61881e-05
1121 17.4399 5.23151 1.67093 0 0 1.00103 3.03273e-05
1042 17.6987 4.24748 1.65717 0 0 1.00103 2.39403e-05
283 17.9987 4.9936 0.893363 0 0 1.00103 2.70624e-05
208 18.5052 4.25368 0.785936 0 0 1.00103 2.17263e-05
209 19.852 3.66148 0.204753 0 0 1.00103 1.80194e-05
285 18.7887 5.12214 0.0487486 0 0 1.00103 2.69936e-05
1046 19.1268 4.21915 1.62497 0 0 1.00103 2.23367e-05
287 19.4363 5.15017 1.07906 0 0 1.00103 2.79655e-05
206 19.3347 4.42415 0.0804031 0 0 1.00103 2.18159e-05
212 19.9855 4.40202 0.964323 0 0 1.00103 2.22238e-05
213 21.3313 3.87234 0.309026 0 0 1.00103 1.90161e-05
210 20.7153 4.56685 0.263376 0 0 1.00103 2.27339e-05
211 20.7507 4.01323 1.27398 0 0 1.00103 2.02776e-05
216 21.5167 4.72344 1.18105 0 0 1.00103 2.31822e-05
214 22.2104 4.96296 0.504301 0 0 1.00103 2.36345e-05
215 22.278 4.22125 1.39507 0 0 1.00103 1.95825e-05
217 22.8867 4.20468 0.599099 0 0 1.00103 1.96823e-05
220 23.0065 5.19026 1.29231 0 0 1.00103 2.42881e-05
138 23.6511 3.57788 0.711281 0 0 1.00104 1.53567e-05
142 24.9947 3.62404 0.746652 0 0 1.00103 1.42988e-05
16179 23.6049 4.40834 0.0201615 0 0 1.00103 1.89777e-05
144 24.4276 3.85502 1.51626 0 0 1.00103 1.62606e-05
219 23.7629 4.6229 1.38274 0 0 1.00103 2.00359e-05
221 24.4724 4.63388 0.747235 0 0 1.00103 1.8766e-05
223 25.2896 4.54618 1.54075 0 0 1.00103 1.7615e-05
227 26.4573 4.40819 1.51117 0 0 1.00103 1.47382e-05
225 25.8412 4.56036 0.724863 0 0 1.00103 1.58579e-05
229 26.8993 4.35043 0.590199 0 0 1.00103 1.33109e-05
232 27.175 5.16308 1.36252 0 0 1.00103 1.48361e-05
231 27.8479 4.08069 1.39421 0 0 1.00103 1.07939e-05
230 27.8051 4.82021 0.574308 0 0 1.00103 1.26094e-05
233 28.5602 3.85032 0.332165 0 0 1.00103 8.69713e-06
236 28.656 4.62408 1.11632 0 0 1.00103 1.01818e-05
235 29.7765 3.68337 1.17272 0 0 1.00103 6.03185e-06
234 29.5417 4.26399 0.451594 0 0 1.00103 7.08743e-06
315 29.7716 4.98863 1.28953 0 0 1.00103 7.6072e-06
240 30.5858 4.3447 1.02279 0 0 1.00103 4.95916e-06
238 31.5835 4.1048 0.33678 0 0 1.00103 2.42146e-06
317 30.8469 4.95245 0.459541 0 0 1.00103 4.28881e-06
319 31.6181 4.71596 1.35787 0 0 1.00103 2.68678e-06
242 1.62953 5.29984 0.44271 0 0 1.00103 9.41889e-06
323 1.57317 5.96909 1.2673 0 0 1.00103 1.01452e-05
324 1.05382 6.82706 1.45238 0 0 1.00103 9.04662e-06
321 0.757329 5.97123 0.444822 0 0 1.00103 7.66012e-06
398 0.247996 7.00826 0.592618 0 0 1.00103 6.43581e-06
399 0.209524 6.2323 1.36303 0 0 1.00103 5.92251e-06
322 1.7677 6.65803 0.549276 0 0 1.00103 1.11759e-05
328 2.52729 6.57542 1.22752 0 0 1.00103 1.37412e-05
325 2.65708 5.75451 0.467159 0 0 1.00103 1.30574e-05
327 3.12808 5.63742 1.34375 0 0 1.00103 1.46875e-05
326 3.33671 6.52228 0.448764 0 0 1.00103 1.65831e-05
332 4.12132 6.24311 1.1273 0 0 1.00103 1.86197e-05
329 4.27196 5.54678 0.44064 0 0 1.00103 1.7522e-05
330 4.96588 6.16039 0.211609 0 0 1.00103 2.13109e-05
411 4.9995 6.7052 1.14959 0 0 1.00104 2.27436e-05
409 4.18655 6.96415 0.31632 0 0 1.00103 2.03137e-05
336 5.80173 5.85024 1.12463 0 0 1.00103 2.35524e-05
333 5.79971 5.33177 0.277786 0 0 1.00103 2.14336e-05
334 6.63595 5.97189 0.130696 0 0 1.00103 2.62135e-05
415 6.61781 6.48149 0.959906 0 0 1.00103 2.77747e-05
413 5.76043 6.67086 0.202602 0 0 1.00103 2.50087e-05
340 7.61387 5.72474 0.897221 0 0 1.00103 2.81285e-05
417 7.72795 6.42399 0.103626 0 0 1.00102 3.13792e-05
420 7.68703 6.90742 1.04277 0 0 1.00103 3.3085e-05
1257 7.63915 6.12408 1.76255 0 0 1.00102 3.09249e-05
1178 8.56753 5.64744 1.56641 0 0 1.00102 3.08203e-05
419 8.6306 6.48764 0.69409 0 0 1.00102 3.4295e-05
344 9.35183 5.69898 0.668665 0 0 1.00102 3.15424e-05
1261 9.54035 6.23254 1.51781 0 0 1.00102 3.63137e-05
1258 8.65506 6.8117 1.64567 0 0 1.00103 3.65421e-05
424 9.67933 7.0384 0.839513 0 0 1.00102 3.96863e-05
423 10.4281 6.47258 0.657577 0 0 1.00102 3.8037e-05
1182 10.546 5.83024 1.44458 0 0 1.00102 3.53792e-05
345 11.1667 5.29619 0.0568945 0 0 1.00103 3.14439e-05
348 11.3584 6.09654 0.713078 0 0 1.00102 3.70478e-05
1265 11.3831 6.69617 1.56251 0 0 1.00102 4.24101e-05
346 12.1166 6.06479 0.0812594 0 0 1.00103 3.76639e-05
1186 12.145 5.98786 1.47186 0 0 1.00102 3.82994e-05
349 12.8858 5.60283 0.0183375 0 0 1.00103 3.37e-05
352 13.0183 6.32791 0.780927 0 0 1.00103 4.03314e-05
427 12.2653 6.91575 0.799912 0 0 1.00102 4.36793e-05
1269 13.2031 6.95556 1.53559 0 0 1.00103 4.69929e-05
351 13.4119 5.55338 1.04938 0 0 1.00103 3.46431e-05
1190 13.9786 6.4964 1.34556 0 0 1.00103 4.18024e-05
276 14.3089 5.33003 0.863833 0 0 1.00103 3.22743e-05
356 14.5593 6.80632 0.58033 0 0 1.00103 4.30168e-05
1114 15.0624 5.53092 1.58572 0 0 1.00103 3.47969e-05
355 15.1333 6.19391 0.790996 0 0 1.00103 3.83144e-05
1194 15.4577 6.98681 1.41124 0 0 1.00104 4.45967e-05
280 15.7517 5.53971 0.754698 0 0 1.00104 3.36869e-05
357 15.888 6.23287 0.0155985 0 0 1.00103 3.74304e-05
1197 16.1788 6.45307 1.45455 0 0 1.00104 4.12878e-05
278 16.6043 5.63314 0.031985 0 0 1.00104 3.17516e-05
359 16.8507 6.55846 0.798942 0 0 1.00104 3.99861e-05
1118 16.8933 5.93789 1.69083 0 0 1.00104 3.66878e-05
361 17.4331 6.56285 0.0387795 0 0 1.00103 3.81018e-05
284 17.5407 5.96836 0.954003 0 0 1.00104 3.43291e-05
363 18.2666 6.91526 1.13581 0 0 1.00103 4.00104e-05
282 18.1765 5.85864 0.235731 0 0 1.00103 3.20763e-05
288 18.7194 5.94329 1.20815 0 0 1.00103 3.35171e-05
365 18.837 6.831 0.359988 0 0 1.00103 3.92168e-05
367 19.3912 6.94497 1.2999 0 0 1.00102 4.05863e-05
286 19.4062 6.00415 0.463294 0 0 1.00103 3.31977e-05
289 20.1831 5.38935 0.355987 0 0 1.00103 2.83225e-05
292 20.2585 6.12109 1.1826 0 0 1.00103 3.38869e-05
291 20.9781 5.53904 1.12816 0 0 1.00103 2.83175e-05
293 21.4782 5.74746 0.364964 0 0 1.00103 2.8613e-05
290 20.9797 6.68435 0.622518 0 0 1.00103 3.54094e-05
296 21.6396 6.68663 1.37003 0 0 1.00103 3.50644e-05
295 22.1433 5.77865 1.32623 0 0 1.00103 2.90935e-05
294 22.2042 6.89387 0.63287 0 0 1.00103 3.38492e-05
297 22.8866 6.08538 0.757123 0 0 1.00103 2.85368e-05
16260 23.0568 6.9267 0.0371892 0 0 1.00103 3.18331e-05
218 23.7072 5.41571 0.549869 0 0 1.00103 2.32979e-05
299 23.7488 6.33581 1.28633 0 0 1.00103 2.83386e-05
224 24.5379 5.61197 1.32737 0 0 1.00103 2.30427e-05
301 24.6163 6.23569 0.539742 0 0 1.00103 2.45248e-05
226 26.4144 5.36703 0.434042 0 0 1.00103 1.69354e-05
222 25.2756 5.39834 0.628813 0 0 1.00103 2.00972e-05
228 25.9671 5.48923 1.53527 0 0 1.00103 1.90778e-05
303 25.4311 6.437 1.43906 0 0 1.00103 2.3469e-05
305 25.8794 6.30567 0.561619 0 0 1.00103 2.12918e-05
307 26.6782 6.17468 1.35435 0 0 1.00103 1.90481e-05
306 26.7261 6.91646 0.680116 0 0 1.00103 2.00175e-05
311 28.1595 5.66297 1.39097 0 0 1.00103 1.32059e-05
309 27.3965 5.87004 0.632436 0 0 1.00103 1.57442e-05
312 27.6274 6.80407 1.45707 0 0 1.00103 1.69342e-05
310 28.3706 6.33962 0.691779 0 0 1.00103 1.31887e-05
313 29.0057 5.36592 0.675089 0 0 1.00103 9.84549e-06
316 29.2055 6.17917 1.43825 0 0 1.00103 1.0789e-05
393 29.336 6.88071 0.653429 0 0 1.00103 1.08114e-05
16276 29.2606 6.02248 0.0190006 0 0 1.00103 9.84408e-06
314 30.1254 5.757 0.796903 0 0 1.00103 7.13113e-06
16355 30.1795 6.60496 0.0622841 0 0 1.00103 7.83762e-06
395 30.241 6.66692 1.30007 0 0 1.00103 7.54456e-06
318 31.6805 5.49092 0.571434 0 0 1.00103 3.19248e-06
320 30.9506 5.72844 1.41728 0 0 1.00103 4.90083e-06
397 31.1477 6.44234 0.612956 0 0 1.00103 4.66681e-06
401 1.08556 7.53552 0.614863 0 0 1.00103 8.96194e-06
404 1.16845 8.39547 1.43204 0 0 1.00103 9.67048e-06
478 0.496004 8.63074 0.396643 0 0 1.00103 6.99403e-06
479 0.311174 7.88803 1.2658 0 0 1.00103 6.5529e-06
402 1.71125 8.21192 0.559747 0 0 1.00103 1.18246e-05
403 1.93213 7.50254 1.44088 0 0 1.00103 1.24648e-05
405 2.44698 7.34066 0.386838 0 0 1.00103 1.38675e-05
408 2.61758 8.09468 1.4367 0 0 1.00103 1.60332e-05
406 3.12074 8.00535 0.380385 0 0 1.00103 1.79962e-05
407 3.30652 7.19263 1.26018 0 0 1.00103 1.75349e-05
487 3.2682 8.72777 1.16421 0 0 1.00103 1.91237e-05
412 4.00594 7.72367 0.916189 0 0 1.00103 2.17409e-05
410 4.83458 7.53439 0.0349456 0 0 1.00104 2.41064e-05
491 4.94222 8.09399 0.827546 0 0 1.00103 2.63059e-05
1250 4.86442 7.41451 1.73395 0 0 1.00104 2.55664e-05
1329 4.19767 8.34401 1.65999 0 0 1.00103 2.40021e-05
489 3.99194 8.49887 0.0932134 0 0 1.00103 2.22599e-05
1333 5.81053 7.89345 1.5977 0 0 1.00103 3.12031e-05
416 5.78664 7.21728 0.945106 0 0 1.00104 2.75817e-05
495 6.4537 7.78309 0.588752 0 0 1.00103 3.1993e-05
1334 6.48261 8.54665 1.1714 0 0 1.00103 3.55557e-05
414 7.05089 7.16512 0.209167 0 0 1.00103 3.15005e-05
1337 7.40009 7.7415 1.20254 0 0 1.00103 3.7298e-05
500 7.40767 8.44832 0.492518 0 0 1.00103 3.87335e-05
499 8.47351 7.53368 0.721327 0 0 1.00103 3.8293e-05
1338 8.45242 8.32003 1.16681 0 0 1.00103 4.37579e-05
501 9.53092 7.71322 0.0453155 0 0 1.00102 4.2655e-05
1341 9.48588 7.77545 1.3605 0 0 1.00102 4.47702e-05
504 9.38959 8.51176 0.557271 0 0 1.00103 4.76135e-05
503 10.4695 8.06642 0.672793 0 0 1.00102 4.8205e-05
1262 10.6268 7.31654 1.38315 0 0 1.00102 4.49664e-05
428 11.3868 7.44228 0.687954 0 0 1.00102 4.63554e-05
1345 11.4882 8.22682 1.37254 0 0 1.00102 5.28075e-05
1342 10.2866 8.69982 1.36346 0 0 1.00102 5.28239e-05
507 12.1831 8.51739 0.657229 0 0 1.00102 5.46849e-05
1266 12.3824 7.66643 1.4224 0 0 1.00102 5.11017e-05
429 12.9636 7.20076 0.0122078 0 0 1.00102 4.56575e-05
432 13.1134 7.90063 0.707125 0 0 1.00102 5.13831e-05
1349 13.2431 8.6101 1.38822 0 0 1.00102 5.85666e-05
1270 13.9776 7.93337 1.49791 0 0 1.00102 5.37363e-05
431 13.9914 7.51067 0.589692 0 0 1.00103 4.74333e-05
1273 14.796 7.48535 1.47664 0 0 1.00103 5.18203e-05
436 14.8476 8.41995 0.773489 0 0 1.00103 5.56995e-05
435 15.5327 7.82822 0.557147 0 0 1.00103 4.97284e-05
1274 15.6917 8.6071 1.58308 0 0 1.00104 6.065e-05
360 16.2006 7.22525 0.660152 0 0 1.00104 4.50245e-05
1277 16.2938 7.99779 1.39508 0 0 1.00104 5.26829e-05
437 16.4142 8.32018 0.0503677 0 0 1.00104 5.21202e-05
439 17.0991 8.39193 0.900814 0 0 1.00104 5.33064e-05
1198 17.1585 7.70385 1.69534 0 0 1.00104 5.03952e-05
364 17.5016 7.50544 0.843477 0 0 1.00104 4.48732e-05
441 17.7451 8.60472 0.141517 0 0 1.00103 5.18692e-05
443 18.2321 8.60974 1.06954 0 0 1.00103 5.307e-05
362 18.3068 7.67405 0.298821 0 0 1.00103 4.50846e-05
369 20.0552 7.08478 0.59458 0 0 1.00103 3.969e-05
368 18.9266 7.9364 1.07098 0 0 1.00103 4.68746e-05
445 18.9362 8.79514 0.273509 0 0 1.00103 5.29889e-05
366 19.6507 8.0034 0.211999 0 0 1.00103 4.56969e-05
372 20.0939 7.9708 1.15098 0 0 1.00103 4.75783e-05
370 20.7568 8.39228 0.611486 0 0 1.00103 4.58655e-05
371 20.9841 7.61211 1.34852 0 0 1.00103 4.24236e-05
373 21.5951 7.85421 0.589526 0 0 1.00103 4.03356e-05
300 23.0403 7.07555 1.33645 0 0 1.00103 3.36475e-05
374 22.2946 8.74913 0.579765 0 0 1.00102 4.35497e-05
375 22.3238 7.86345 1.29588 0 0 1.00102 4.0189e-05
377 23.0872 7.97812 0.660595 0 0 1.00102 3.72459e-05
298 23.9114 7.07933 0.624743 0 0 1.00102 2.99443e-05
304 24.7004 7.15551 1.26705 0 0 1.00102 2.84558e-05
379 23.9842 8.02493 1.19762 0 0 1.00102 3.47119e-05
381 24.6327 8.05635 0.305731 0 0 1.00102 3.13403e-05
384 24.7456 8.75341 1.08133 0 0 1.00102 3.36178e-05
302 25.3102 7.18368 0.446961 0 0 1.00102 2.58921e-05
308 26.2066 7.17625 1.5956 0 0 1.00103 2.34018e-05
383 25.51 7.86839 1.18882 0 0 1.00102 2.77281e-05
382 25.5146 8.65176 0.310457 0 0 1.00102 2.92211e-05
385 26.2455 7.8695 0.493176 0 0 1.00102 2.39964e-05
388 26.2757 8.67124 1.22514 0 0 1.00102 2.63452e-05
387 26.9402 7.75037 1.40791 0 0 1.00103 2.16785e-05
389 27.7172 7.32611 0.621427 0 0 1.00103 1.69761e-05
386 27.1134 8.39276 0.389749 0 0 1.00103 2.17708e-05
392 27.8205 8.17367 1.30264 0 0 1.00103 1.84465e-05
391 28.5832 7.26972 1.37388 0 0 1.00103 1.38314e-05
390 28.6378 7.84709 0.51122 0 0 1.00103 1.40463e-05
471 28.7521 8.71722 1.20884 0 0 1.00103 1.50062e-05
396 29.5143 7.76095 1.23801 0 0 1.00103 1.08957e-05
473 29.5734 8.41656 0.417619 0 0 1.00103 1.07199e-05
475 30.3675 8.18601 1.27583 0 0 1.00103 7.57353e-06
394 30.4001 7.41895 0.496414 0 0 1.00103 7.3733e-06
400 31.1333 7.35415 1.17721 0 0 1.00103 4.59745e-06
480 31.2431 8.77199 1.19158 0 0 1.00103 4.31387e-06
477 31.4331 8.08823 0.387063 0 0 1.00103 3.69856e-06
484 1.02443 9.82238 0.912699 0 0 1.00103 9.01808e-06
481 1.14086 9.19533 0.118192 0 0 1.00103 9.34738e-06
1322 1.62253 9.81597 1.71976 0 0 1.00103 1.21063e-05
559 0.292713 9.35447 1.12981 0 0 1.00103 6.09004e-06
558 0.238173 10.0554 0.0605071 0 0 1.00103 5.40121e-06
483 1.84038 9.02243 1.16266 0 0 1.00103 1.28119e-05
482 1.87939 9.89211 0.239679 0 0 1.00103 1.2958e-05
485 2.57901 8.91978 0.403428 0 0 1.00103 1.58288e-05
488 2.62015 9.74776 0.976189 0 0 1.00103 1.65088e-05
1405 2.44308 10.4404 1.56545 0 0 1.00103 1.66488e-05
567 3.35189 10.2056 0.712976 0 0 1.00104 2.04465e-05
486 3.41305 9.49088 0.0852233 0 0 1.00103 2.01775e-05
1326 3.60761 9.37926 1.6523 0 0 1.00103 2.18274e-05
492 4.27104 9.10585 0.74167 0 0 1.00103 2.41423e-05
1409 4.39192 9.79159 1.41865 0 0 1.00103 2.60069e-05
571 4.96592 9.79036 0.48745 0 0 1.00104 2.87175e-05
1410 5.04403 10.4263 1.32268 0 0 1.00103 3.07512e-05
1330 5.13498 8.82817 1.54612 0 0 1.00103 2.92147e-05
496 5.60657 8.84454 0.57995 0 0 1.00103 3.08915e-05
575 6.46779 9.37275 0.44728 0 0 1.00103 3.69506e-05
1413 5.79051 9.51597 1.42637 0 0 1.00103 3.4364e-05
1414 6.55974 9.98234 1.18768 0 0 1.00103 3.89824e-05
576 5.6675 10.3603 0.373844 0 0 1.00103 3.43166e-05
1417 7.44659 9.10326 1.19609 0 0 1.00103 4.19886e-05
579 8.20536 9.15543 0.457273 0 0 1.00103 4.54128e-05
580 7.27549 9.95817 0.363236 0 0 1.00103 4.29552e-05
1418 8.24282 9.91433 1.10556 0 0 1.00103 4.98724e-05
1421 9.11579 9.10304 1.30384 0 0 1.00102 5.05736e-05
584 9.19587 9.85613 0.65025 0 0 1.00103 5.2936e-05
1422 10.1665 10.0965 1.35305 0 0 1.00103 6.12452e-05
583 10.2087 9.41247 0.649705 0 0 1.00102 5.53783e-05
508 11.2033 8.95014 0.653463 0 0 1.00102 5.57206e-05
1425 11.222 9.60176 1.3771 0 0 1.00103 6.30057e-05
588 10.8881 10.3317 0.54359 0 0 1.00103 6.34249e-05
587 11.9194 9.79482 0.65522 0 0 1.00103 6.3157e-05
1346 12.3642 8.93322 1.57644 0 0 1.00102 6.0256e-05
512 12.8971 9.41155 0.712957 0 0 1.00103 6.21453e-05
1429 12.925 10.0386 1.49616 0 0 1.00103 6.93963e-05
589 12.6326 10.3183 0.186534 0 0 1.00103 6.69459e-05
1426 11.9838 10.4094 1.47631 0 0 1.00103 7.09144e-05
510 13.5339 9.74458 0.0403556 0 0 1.00103 6.4144e-05
1350 13.8495 9.59605 1.58643 0 0 1.00102 6.74727e-05
511 13.9174 8.95308 0.689885 0 0 1.00102 5.93921e-05
1353 14.6309 8.9461 1.61805 0 0 1.00102 6.34904e-05
516 14.6179 9.86045 0.941671 0 0 1.00102 6.59447e-05
591 13.6882 10.4398 0.978918 0 0 1.00103 7.0471e-05
514 15.1945 10.1898 0.0524919 0 0 1.00102 6.70781e-05
515 15.4524 9.33594 0.870675 0 0 1.00103 6.24812e-05
1354 15.4612 10.0567 1.6949 0 0 1.00103 7.13236e-05
517 16.1416 9.90214 0.213742 0 0 1.00103 6.32963e-05
440 16.3975 9.06328 0.832201 0 0 1.00103 5.87098e-05
520 16.0767 10.5523 1.03291 0 0 1.00103 6.87146e-05
519 17.0242 10.0325 1.02534 0 0 1.00103 6.58955e-05
438 17.1082 9.34356 0.139495 0 0 1.00103 5.74404e-05
521 17.5174 10.4301 0.219952 0 0 1.00103 6.4482e-05
444 17.848 9.53547 1.13854 0 0 1.00103 6.06627e-05
523 18.3289 10.5639 0.968923 0 0 1.00103 6.61704e-05
442 18.3254 9.63081 0.257783 0 0 1.00103 5.88007e-05
447 19.5911 8.91094 1.01511 0 0 1.00103 5.20302e-05
448 18.9934 9.76479 1.05405 0 0 1.00103 5.92674e-05
446 19.5486 10.0299 0.10848 0 0 1.00103 5.72265e-05
376 21.6004 8.87158 1.30658 0 0 1.00102 4.69395e-05
452 20.1295 10.0474 0.957597 0 0 1.00102 5.9065e-05
449 20.2278 9.2259 0.233426 0 0 1.00102 5.06723e-05
451 20.7573 9.3197 1.18181 0 0 1.00102 5.31431e-05
453 21.4825 9.38927 0.3857 0 0 1.00102 4.99984e-05
450 20.916 10.227 0.231921 0 0 1.00102 5.55007e-05
456 21.5002 10.3793 1.02283 0 0 1.00102 5.4713e-05
380 23.0791 9.07406 1.12754 0 0 1.00102 4.26685e-05
455 22.2851 9.83061 1.06265 0 0 1.00102 4.92015e-05
454 22.2758 10.5377 0.231026 0 0 1.00102 4.98927e-05