ITEM: TIMESTEP
39000
ITEM: NUMBER OF ATOMS
32000
ITEM: BOX BOUNDS pp pp pp
0.0000000000000000e+00 3.1748021039364001e+01
0.0000000000000000e+00 3.1748021039364001e+01
0.0000000000000000e+00 3.1748021039364001e+01
ITEM: ATOMS id x y z c_phase c_nbond c_rho v_omega
4 0.246754 1.09714 0.465347 0 0 1.00097 1.16338e-06
83 1.17686 1.54365 0.775542 0 0 1.00097 3.16722e-06
842 0.816939 0.703601 1.39811 0 0 1.00097 1.79747e-06
921 0.216676 1.61186 1.37639 0 0 1.00097 1.74996e-06
8 1.81009 0.616664 1.00839 0 0 1.00097 2.85426e-06
85 1.99597 1.26087 0.200035 0 0 1.00097 4.13282e-06
925 2.04198 1.40831 1.73297 0 0 1.00097 4.32522e-06
6 2.60097 0.431132 0.184842 0 0 1.00097 3.63183e-06
87 2.84308 1.21143 0.855472 0 0 1.00097 5.236e-06
846 2.77293 0.493782 1.72006 0 0 1.00097 3.78703e-06
12 3.53405 0.501381 0.94557 0 0 1.00097 4.84785e-06
929 3.83216 1.26017 1.6849 0 0 1.00097 6.58402e-06
10 4.21467 0.373307 0.297221 0 0 1.00097 5.08482e-06
850 4.4329 0.422978 1.61779 0 0 1.00097 5.74848e-06
91 4.2649 1.33678 0.707899 0 0 1.00097 7.49065e-06
16 5.04663 0.0174347 1.11955 0 0 1.00097 4.89904e-06
93 5.14885 1.04274 0.365371 0 0 1.00097 7.57213e-06
14 5.73549 0.0563924 0.289634 0 0 1.00097 5.5895e-06
95 6.06955 0.701563 0.944817 0 0 1.00097 7.25686e-06
933 5.25476 1.11111 1.43151 0 0 1.00097 8.03168e-06
934 6.18988 1.56967 1.47673 0 0 1.00097 9.98395e-06
97 6.77852 0.766952 0.208792 0 0 1.00097 7.72289e-06
937 6.82893 0.36492 1.68286 0 0 1.00097 6.62291e-06
99 7.55498 0.571693 0.942378 0 0 1.00097 7.5075e-06
18 7.6636 0.000130743 0.147082 0 0 1.00097 5.64252e-06
938 7.66046 1.37237 1.55473 0 0 1.00097 1.05413e-05
100 6.9161 1.52549 0.779127 0 0 1.00097 1.04871e-05
98 7.82884 1.54574 0.12314 0 0 1.00097 1.09882e-05
941 8.36634 0.576323 1.61313 0 0 1.00097 8.11384e-06
101 8.48003 0.734051 0.215646 0 0 1.00097 8.21914e-06
103 9.23761 0.661687 1.07466 0 0 1.00097 7.96958e-06
945 9.78268 0.343836 1.75203 0 0 1.00097 6.26097e-06
105 9.88342 0.726348 0.111262 0 0 1.00097 7.82686e-06
102 9.31498 1.44919 0.229779 0 0 1.00097 1.11256e-05
104 8.50602 1.49636 0.933063 0 0 1.00097 1.12332e-05
942 9.48557 1.51785 1.72192 0 0 1.00097 1.21314e-05
108 10.1867 1.39142 1.07519 0 0 1.00097 1.09134e-05
107 10.5757 0.479669 0.834991 0 0 1.00097 6.7743e-06
949 11.5209 0.491229 1.41345 0 0 1.00097 6.58331e-06
946 10.9567 1.1253 1.72253 0 0 1.00097 1.00463e-05
112 11.5953 1.32472 0.780025 0 0 1.00097 1.08054e-05
106 10.74 1.50736 0.184195 0 0 1.00097 1.1514e-05
111 12.2761 0.641374 0.519143 0 0 1.00097 6.8835e-06
953 13.0185 0.798553 1.37348 0 0 1.00097 7.33216e-06
950 12.4056 1.47461 1.45569 0 0 1.00097 1.13291e-05
116 13.1863 1.59196 0.611926 0 0 1.00097 1.15629e-05
40 14.4627 0.160179 0.782473 0 0 1.00097 3.38388e-06
115 13.8679 0.86971 0.827044 0 0 1.00097 7.12972e-06
117 14.4719 1.32559 0.136713 0 0 1.00097 9.44025e-06
874 13.6913 0.0743684 1.63076 0 0 1.00097 3.25328e-06
957 14.6808 1.02384 1.48195 0 0 1.00097 7.71709e-06
954 13.9134 1.72237 1.46208 0 0 1.00097 1.17684e-05
119 15.2937 1.46481 0.667401 0 0 1.00097 9.78321e-06
44 15.9297 0.762785 0.789613 0 0 1.00097 5.74054e-06
878 15.2625 0.404786 1.63444 0 0 1.00097 3.60468e-06
961 16.0511 1.50908 1.41829 0 0 1.00097 1.01426e-05
38 15.273 0.622605 0.0711391 0 0 1.00097 4.85542e-06
882 16.7486 0.835733 1.35368 0 0 1.00097 5.76379e-06
123 16.9747 1.70204 0.69791 0 0 1.00097 1.08399e-05
48 17.4817 0.953511 0.566421 0 0 1.00097 6.47215e-06
886 18.1533 1.07527 1.42625 0 0 1.00096 7.61768e-06
47 18.1738 0.258652 0.694021 0 0 1.00096 3.53935e-06
885 17.3009 0.0566782 1.40072 0 0 1.00097 1.96201e-06
51 19.5815 0.472419 0.683937 0 0 1.00097 5.06914e-06
52 19.0057 1.15858 0.699531 0 0 1.00096 8.3188e-06
889 19.0702 0.591006 1.55787 0 0 1.00097 4.83112e-06
890 19.9183 1.47727 1.69805 0 0 1.00097 1.10177e-05
55 21.2619 0.955069 1.08286 0 0 1.00097 8.07266e-06
56 20.481 1.32635 0.952744 0 0 1.00097 9.75769e-06
54 21.4169 1.40314 0.210599 0 0 1.00097 1.10138e-05
893 20.4614 0.452109 1.41999 0 0 1.00097 6.18752e-06
53 20.3053 0.437013 0.0645461 0 0 1.00097 6.3079e-06
57 22.1519 0.960679 0.541334 0 0 1.00097 9.00951e-06
59 22.9758 1.12029 1.4068 0 0 1.00097 9.68134e-06
58 23.1607 1.7683 0.474812 0 0 1.00097 1.2397e-05
17538 22.7716 0.254118 0.460285 0 0 1.00097 5.83691e-06
17540 21.7808 0.0538168 0.862583 0 0 1.00097 4.96839e-06
63 24.4167 1.08571 1.40953 0 0 1.00096 9.83803e-06
61 23.7048 1.03787 0.559878 0 0 1.00097 9.55567e-06
17544 23.5428 0.204343 1.2454 0 0 1.00096 6.36712e-06
17542 24.3555 0.184781 0.589094 0 0 1.00096 6.57964e-06
65 25.0945 0.988594 0.521787 0 0 1.00096 9.36957e-06
67 26.1102 1.00496 1.15512 0 0 1.00097 8.71383e-06
66 26.1041 1.60469 0.415506 0 0 1.00097 1.05642e-05
17548 25.1998 0.433533 1.34625 0 0 1.00096 7.534e-06
17546 25.924 0.150194 0.33271 0 0 1.00097 6.57563e-06
71 27.7253 1.00542 0.867131 0 0 1.00097 7.48998e-06
72 26.9472 1.61913 1.24376 0 0 1.00097 9.61063e-06
69 26.8739 0.822671 0.243902 0 0 1.00097 7.87621e-06
17552 27.1041 0.225263 0.999676 0 0 1.00097 6.10313e-06
17556 28.3631 0.108553 0.730862 0 0 1.00097 4.90204e-06
913 28.4729 0.784996 1.4147 0 0 1.00097 6.06593e-06
76 28.8369 1.62907 0.727357 0 0 1.00097 7.10073e-06
914 29.5275 1.28962 1.5625 0 0 1.00097 5.71834e-06
917 29.8646 0.431493 1.4513 0 0 1.00097 3.91779e-06
75 29.3434 0.676693 0.615698 0 0 1.00097 4.85509e-06
841 31.625 0.300915 1.25406 0 0 1.00097 1.52969e-06
79 30.7842 0.622908 0.477091 0 0 1.00097 3.02399e-06
80 30.263 1.41698 0.766901 0 0 1.00097 4.70279e-06
918 30.993 1.10245 1.37679 0 0 1.00097 3.34177e-06
82 1.40717 2.2836 0.105288 0 0 1.00097 4.55234e-06
84 0.434639 2.36748 0.799333 0 0 1.00097 2.92689e-06
163 1.66362 3.0251 0.929173 0 0 1.00097 6.02376e-06
922 1.43182 2.20172 1.58009 0 0 1.00097 4.60474e-06
1001 0.751 2.98706 1.54551 0 0 1.00097 4.02852e-06
161 0.70361 3.06546 0.1202 0 0 1.00097 3.97917e-06
88 2.21186 2.15133 0.776326 0 0 1.00097 5.67765e-06
167 3.0673 2.9066 0.845286 0 0 1.00096 8.69024e-06
926 2.97259 1.8882 1.53056 0 0 1.00097 6.714e-06
86 3.02814 2.03474 0.0428222 0 0 1.00097 7.00587e-06
1005 2.48223 2.79518 1.73427 0 0 1.00097 7.20913e-06
1009 3.72419 2.93611 1.63475 0 0 1.00097 1.02523e-05
92 3.72296 2.11742 0.777034 0 0 1.00097 8.39867e-06
171 4.64526 2.77951 0.75377 0 0 1.00097 1.11155e-05
930 4.52327 2.11057 1.57621 0 0 1.00097 9.55579e-06
96 5.27748 1.97457 0.815342 0 0 1.00097 1.02885e-05
94 6.02557 1.81195 0.139729 0 0 1.00097 1.06317e-05
175 6.15746 2.53955 0.947018 0 0 1.00097 1.31123e-05
173 5.45673 2.70365 0.0167079 0 0 1.00097 1.25493e-05
174 6.3507 3.23709 0.153418 0 0 1.00097 1.57419e-05
176 5.49114 3.37491 1.11644 0 0 1.00097 1.45472e-05
1017 7.05666 2.35041 1.531 0 0 1.00097 1.36237e-05
177 7.09929 2.26665 0.109715 0 0 1.00097 1.30161e-05
179 7.93806 2.33474 0.873816 0 0 1.00097 1.43453e-05
180 7.13233 3.06419 0.781737 0 0 1.00097 1.61848e-05
1018 8.10895 3.09569 1.49376 0 0 1.00097 1.78896e-05
1021 8.75765 2.25815 1.6269 0 0 1.00097 1.4862e-05
181 8.82282 2.26706 0.0282679 0 0 1.00097 1.4353e-05
183 9.52388 2.26456 0.92789 0 0 1.00097 1.53177e-05
1022 9.84808 3.02498 1.4967 0 0 1.00097 2.01302e-05
184 8.92639 3.10363 0.696021 0 0 1.00097 1.83934e-05
182 9.75658 3.15159 0.036425 0 0 1.00097 1.97505e-05
185 10.1814 2.26828 0.197706 0 0 1.00097 1.54166e-05
188 10.635 2.92493 0.863963 0 0 1.00097 1.91505e-05
187 11.2433 2.20343 0.916425 0 0 1.00097 1.51303e-05
1026 11.5154 2.99179 1.59304 0 0 1.00097 2.01428e-05
186 11.4376 3.20367 0.163696 0 0 1.00097 2.05784e-05
1025 10.6667 2.06214 1.74512 0 0 1.00097 1.47609e-05
1029 12.1375 2.32751 1.6105 0 0 1.00097 1.69841e-05
192 12.2527 3.10612 0.823117 0 0 1.00097 2.12216e-05
191 12.598 2.22537 0.749166 0 0 1.00097 1.64177e-05
196 13.3517 3.229 0.818917 0 0 1.00097 2.24068e-05
1033 13.641 2.62298 1.69663 0 0 1.00098 1.78252e-05
195 14.0212 2.75011 0.84366 0 0 1.00097 1.88099e-05
120 14.6896 2.23315 0.918655 0 0 1.00097 1.47951e-05
1037 14.9689 3.1643 1.55442 0 0 1.00097 2.10252e-05
197 14.9736 3.04916 0.0408029 0 0 1.00097 1.98146e-05
114 14.0094 2.02205 0.0322453 0 0 1.00097 1.44585e-05
194 14.1778 3.43407 0.0333012 0 0 1.00097 2.30857e-05
199 15.6546 3.33197 0.86655 0 0 1.00097 2.19336e-05
958 15.4775 2.25666 1.46109 0 0 1.00097 1.55947e-05
118 15.5338 2.40273 0.119151 0 0 1.00097 1.56214e-05
124 16.3627 2.47387 0.711334 0 0 1.00096 1.57977e-05
1041 16.324 3.30462 1.51464 0 0 1.00097 2.18455e-05
201 16.4591 3.27975 0.00528254 0 0 1.00097 2.13878e-05
962 17.0309 2.62255 1.54329 0 0 1.00097 1.72482e-05
127 18.383 1.93725 0.747671 0 0 1.00096 1.25223e-05
203 17.2048 3.35429 0.667138 0 0 1.00096 2.20701e-05
965 17.7256 1.97508 1.56446 0 0 1.00097 1.24683e-05
128 17.7406 2.60178 0.668502 0 0 1.00097 1.67494e-05
1045 17.9509 3.39372 1.50517 0 0 1.00096 2.1782e-05
969 19.12 1.94871 1.49792 0 0 1.00097 1.31924e-05
207 18.7402 3.3117 0.721569 0 0 1.00096 2.0992e-05
966 18.713 2.80578 1.60886 0 0 1.00096 1.83894e-05
131 19.9693 2.07759 0.842765 0 0 1.00097 1.35082e-05
129 19.3101 2.02542 0.0205649 0 0 1.00096 1.30315e-05
132 19.5561 2.88271 1.02323 0 0 1.00097 1.88296e-05
209 19.6742 3.53286 0.198585 0 0 1.00096 2.28016e-05
130 20.2353 2.86827 0.114164 0 0 1.00097 1.84461e-05
133 20.7681 2.10569 0.203014 0 0 1.00097 1.41543e-05
135 21.5254 2.27523 0.95446 0 0 1.00097 1.4999e-05
973 20.827 2.38596 1.74577 0 0 1.00097 1.61417e-05
136 20.8767 3.06588 1.07258 0 0 1.00097 1.97579e-05
134 21.7927 3.12043 0.464759 0 0 1.00097 1.93416e-05
60 22.4474 1.87518 1.33041 0 0 1.00097 1.33836e-05
137 22.3978 2.3245 0.495187 0 0 1.00097 1.52571e-05
139 23.3903 2.81319 1.50303 0 0 1.00097 1.6949e-05
140 22.658 3.25388 1.22401 0 0 1.00097 2.00684e-05
62 24.6996 1.87707 0.726585 0 0 1.00096 1.22608e-05
138 23.5235 3.39562 0.718651 0 0 1.00097 1.91334e-05
64 23.8092 1.95495 1.37439 0 0 1.00097 1.31743e-05
141 24.101 2.5761 0.616833 0 0 1.00097 1.51526e-05
143 24.8502 2.73603 1.55421 0 0 1.00097 1.55474e-05
142 24.8765 3.45169 0.758674 0 0 1.00097 1.79904e-05
68 25.4294 1.83007 1.43686 0 0 1.00096 1.18333e-05
147 26.2747 2.41681 1.35472 0 0 1.00097 1.28507e-05
145 25.5057 2.55786 0.535266 0 0 1.00096 1.40337e-05
146 26.2743 3.30998 0.687122 0 0 1.00096 1.54871e-05
148 25.6577 3.32825 1.51459 0 0 1.00097 1.63459e-05
70 27.8104 1.79226 0.37874 0 0 1.00097 8.96629e-06
149 26.8797 2.40063 0.50571 0 0 1.00097 1.17185e-05
152 26.9718 3.23298 1.52093 0 0 1.00097 1.40727e-05
151 27.8129 2.51604 1.21698 0 0 1.00097 1.03848e-05
150 27.5215 3.27798 0.619708 0 0 1.00097 1.28817e-05
153 28.5773 2.5451 0.339847 0 0 1.00097 9.34008e-06
156 28.6577 3.22177 1.18188 0 0 1.00097 1.05832e-05
993 28.7808 2.16586 1.50373 0 0 1.00097 8.34382e-06
155 29.7101 2.34098 0.871854 0 0 1.00097 7.04391e-06
154 29.5636 3.04116 0.279366 0 0 1.00097 8.49099e-06
997 30.2285 2.06331 1.69322 0 0 1.00097 5.98796e-06
159 31.1734 2.09033 0.914997 0 0 1.00097 4.30575e-06
160 30.5268 2.91884 0.988179 0 0 1.00097 6.11349e-06
239 31.4422 3.43666 0.962572 0 0 1.00097 5.34015e-06
998 31.3351 2.79527 1.72091 0 0 1.00097 4.77032e-06
237 30.5432 3.47687 0.153368 0 0 1.00097 7.2845e-06
157 30.6539 2.09611 0.0329582 0 0 1.00097 5.25837e-06
158 31.4742 2.74013 0.0715002 0 0 1.00097 4.50749e-06
164 0.73873 3.73283 0.905492 0 0 1.00097 4.58874e-06
241 0.659598 4.58084 0.454702 0 0 1.00097 5.0275e-06
243 1.65393 4.4568 0.970791 0 0 1.00097 7.61024e-06
162 1.50082 3.70218 0.0660029 0 0 1.00097 6.11494e-06
244 0.675189 5.22873 1.26873 0 0 1.00097 5.72535e-06
1081 0.982023 4.31638 1.75957 0 0 1.00097 5.5814e-06
168 2.34449 3.75481 0.847652 0 0 1.00096 8.26219e-06
247 3.11442 4.45892 1.10666 0 0 1.00097 1.13997e-05
166 3.16572 3.74856 0.182122 0 0 1.00097 1.0345e-05
245 2.44856 4.63772 0.271833 0 0 1.00097 9.5749e-06
246 3.31655 5.14746 0.265033 0 0 1.00097 1.26214e-05
248 2.1633 5.22902 1.34902 0 0 1.00097 9.92366e-06
249 4.01548 4.33934 0.167223 0 0 1.00097 1.34638e-05
172 3.99357 3.58969 0.876699 0 0 1.00097 1.15395e-05
251 4.71149 4.27389 1.14519 0 0 1.00097 1.52247e-05
170 4.79782 3.59464 0.132889 0 0 1.00097 1.34459e-05
250 4.89442 4.83593 0.304322 0 0 1.00097 1.67489e-05
252 3.80832 5.10726 1.25845 0 0 1.00097 1.45941e-05
253 5.66394 4.06668 0.309083 0 0 1.00097 1.67477e-05
255 6.42588 3.96942 1.0105 0 0 1.00097 1.82163e-05
254 6.53502 4.64438 0.248004 0 0 1.00097 2.04265e-05
256 5.69187 4.73108 1.25112 0 0 1.00097 1.88365e-05
1097 7.40071 3.74214 1.63407 0 0 1.00097 1.96789e-05
260 7.44838 4.36976 0.843234 0 0 1.00097 2.15419e-05
259 8.16569 3.67973 0.570231 0 0 1.00097 2.04168e-05
258 8.18928 4.52905 0.013363 0 0 1.00096 2.3905e-05
1098 8.30455 4.52035 1.47644 0 0 1.00097 2.44841e-05
1177 7.39053 5.12284 1.59273 0 0 1.00097 2.51376e-05
337 7.28745 5.25005 0.121579 0 0 1.00097 2.44084e-05
339 8.27761 5.25217 0.753366 0 0 1.00096 2.74128e-05
1101 9.06036 3.79213 1.45686 0 0 1.00096 2.22181e-05
264 9.13555 4.49594 0.694275 0 0 1.00096 2.56428e-05
263 9.96369 3.81105 0.792971 0 0 1.00097 2.33969e-05
262 10.0329 4.66938 0.00844518 0 0 1.00097 2.81165e-05
1181 9.27659 5.21139 1.48759 0 0 1.00096 3.0328e-05
1102 10.0788 4.50883 1.56726 0 0 1.00096 2.78638e-05
268 10.8299 4.58262 0.793364 0 0 1.00097 2.89825e-05
265 10.7575 3.83889 0.0992048 0 0 1.00097 2.44732e-05
1105 10.8011 3.64843 1.64267 0 0 1.00097 2.36188e-05
267 11.5845 3.95369 0.882329 0 0 1.00097 2.55011e-05
1106 11.6602 4.54512 1.73488 0 0 1.00096 2.97405e-05
266 11.6277 4.83805 0.0190082 0 0 1.00097 3.06735e-05
269 12.3924 4.15463 0.20377 0 0 1.00097 2.68873e-05
1109 12.3917 3.8375 1.67781 0 0 1.00097 2.66567e-05
272 12.5534 4.70073 1.00559 0 0 1.00096 3.12748e-05
271 13.2964 4.1067 1.02804 0 0 1.00097 2.85877e-05
270 13.2167 5.06278 0.188293 0 0 1.00096 3.27359e-05
273 13.6658 4.20012 0.0517705 0 0 1.00096 2.76153e-05
1113 14.0169 4.55876 1.70564 0 0 1.00097 3.15103e-05
275 14.3542 4.43266 0.763186 0 0 1.00097 3.05615e-05
200 15.0676 3.94319 0.694503 0 0 1.00097 2.67231e-05
1034 14.5958 3.91573 1.58828 0 0 1.00098 2.68954e-05
274 14.5789 5.22739 0.00639544 0 0 1.00097 3.56366e-05
277 15.3186 4.70016 0.0862974 0 0 1.00097 3.10662e-05
1117 15.464 4.92163 1.5072 0 0 1.00097 3.44977e-05
279 16.2311 5.0265 0.830523 0 0 1.00097 3.41073e-05
198 16.0256 4.13378 0.107956 0 0 1.00097 2.66506e-05
1038 16.1649 4.35984 1.60489 0 0 1.00097 2.87891e-05
204 16.745 4.14073 0.890219 0 0 1.00097 2.72665e-05
281 17.0323 4.90563 0.145605 0 0 1.00097 3.1825e-05
1121 17.1513 5.17418 1.66782 0 0 1.00097 3.56408e-05
1042 17.4511 4.17767 1.66712 0 0 1.00096 2.85718e-05
283 17.7484 4.89742 0.904645 0 0 1.00096 3.23211e-05
208 18.2853 4.16213 0.795784 0 0 1.00096 2.66859e-05
285 18.5465 5.0022 0.0469607 0 0 1.00096 3.24744e-05
1046 18.9198 4.10463 1.64085 0 0 1.00096 2.71021e-05
287 19.1929 5.00955 1.08699 0 0 1.00096 3.31601e-05
206 19.1207 4.30568 0.08131 0 0 1.00096 2.69616e-05
212 19.7846 4.26887 0.966831 0 0 1.00096 2.71406e-05
289 19.9366 5.23039 0.356361 0 0 1.00096 3.38016e-05
213 21.1597 3.70711 0.317882 0 0 1.00097 2.3488e-05
210 20.5131 4.40916 0.260962 0 0 1.00097 2.76943e-05
211 20.5512 3.86276 1.27307 0 0 1.00097 2.47482e-05
216 21.3201 4.55246 1.20153 0 0 1.00097 2.77076e-05
214 22.0054 4.76378 0.511369 0 0 1.00097 2.82147e-05
215 22.1017 4.04892 1.39436 0 0 1.00097 2.36855e-05
217 22.7202 4.01302 0.603206 0 0 1.00097 2.39127e-05
220 22.8152 4.988 1.30178 0 0 1.00097 2.86782e-05
16179 23.437 4.21681 0.0284577 0 0 1.00097 2.31808e-05
218 23.512 5.21137 0.54953 0 0 1.00097 2.77641e-05
144 24.2909 3.67928 1.52407 0 0 1.00097 1.996e-05
219 23.5955 4.43639 1.39431 0 0 1.00097 2.40754e-05
221 24.3097 4.44784 0.757693 0 0 1.00097 2.28425e-05
222 25.107 5.20011 0.634681 0 0 1.00096 2.42636e-05
223 25.1422 4.35583 1.54912 0 0 1.00096 2.12955e-05
228 25.7983 5.30716 1.5563 0 0 1.00096 2.30221e-05
227 26.3268 4.24269 1.51659 0 0 1.00096 1.82625e-05
225 25.7043 4.39767 0.743172 0 0 1.00096 1.97127e-05
226 26.2589 5.19121 0.429676 0 0 1.00097 2.09389e-05
229 26.7704 4.19803 0.593834 0 0 1.00096 1.69475e-05
232 27.032 5.00602 1.36875 0 0 1.00097 1.85184e-05
231 27.7374 3.95092 1.40275 0 0 1.00097 1.40903e-05
230 27.6751 4.67933 0.579305 0 0 1.00097 1.62983e-05
233 28.4615 3.73931 0.336392 0 0 1.00097 1.20858e-05
236 28.5361 4.50961 1.11697 0 0 1.00097 1.36649e-05
235 29.6908 3.6107 1.17746 0 0 1.00097 9.15247e-06
313 28.883 5.25556 0.685267 0 0 1.00097 1.34436e-05
234 29.4402 4.18026 0.460633 0 0 1.00097 1.04885e-05
315 29.657 4.91107 1.30019 0 0 1.00097 1.10231e-05
240 30.4899 4.29998 1.02719 0 0 1.00097 8.20744e-06
238 31.4957 4.09023 0.344983 0 0 1.00097 5.58513e-06
317 30.7443 4.91226 0.46656 0 0 1.00097 7.60235e-06
319 31.5151 4.70632 1.3705 0 0 1.00097 5.82763e-06
242 1.51415 5.35366 0.450042 0 0 1.00096 7.74127e-06
323 1.44679 6.02746 1.27241 0 0 1.00096 8.15666e-06
324 0.923212 6.85941 1.46679 0 0 1.00096 6.81726e-06
322 1.63809 6.72371 0.557561 0 0 1.00097 8.98694e-06
321 0.62934 5.98937 0.448519 0 0 1.00096 5.71524e-06
398 0.119553 7.01018 0.599174 0 0 1.00097 4.17233e-06
399 0.0903551 6.22858 1.37011 0 0 1.00097 3.86956e-06
328 2.39261 6.67266 1.23496 0 0 1.00097 1.15945e-05
325 2.53321 5.84904 0.479711 0 0 1.00097 1.13572e-05
327 2.98518 5.7476 1.36333 0 0 1.00097 1.30182e-05
326 3.1951 6.64868 0.455537 0 0 1.00097 1.46084e-05
332 3.97623 6.38814 1.13468 0 0 1.00097 1.68366e-05
329 4.12674 5.69127 0.454293 0 0 1.00097 1.61347e-05
331 4.8678 5.42393 1.19984 0 0 1.00097 1.82682e-05
330 4.7998 6.32637 0.218538 0 0 1.00097 1.98122e-05
411 4.82564 6.88918 1.16853 0 0 1.00097 2.09052e-05
336 5.6269 6.03859 1.13838 0 0 1.00097 2.25005e-05
333 5.6362 5.50696 0.292039 0 0 1.00097 2.06531e-05
335 6.52931 5.37777 0.94349 0 0 1.00097 2.3455e-05
334 6.4455 6.17511 0.13744 0 0 1.00097 2.54988e-05
415 6.41976 6.68631 0.97329 0 0 1.00097 2.66051e-05
413 5.5725 6.86126 0.210417 0 0 1.00097 2.34461e-05
340 7.41315 5.93699 0.919442 0 0 1.00097 2.81426e-05
1178 8.34267 5.8664 1.57864 0 0 1.00096 3.1285e-05
417 7.50824 6.6333 0.11878 0 0 1.00096 3.09029e-05
419 8.39362 6.7199 0.707904 0 0 1.00096 3.44615e-05
344 9.11924 5.90775 0.682568 0 0 1.00096 3.25878e-05
343 10.0031 5.31978 0.746816 0 0 1.00096 3.16504e-05
1261 9.2748 6.45865 1.53136 0 0 1.00096 3.71991e-05
423 10.1534 6.67298 0.661418 0 0 1.00096 3.94899e-05
1182 10.2859 6.02716 1.45306 0 0 1.00096 3.72361e-05
1185 10.9765 5.34265 1.48653 0 0 1.00096 3.44617e-05
345 10.9178 5.46084 0.0680284 0 0 1.00097 3.39199e-05
348 11.0839 6.28908 0.719047 0 0 1.00096 3.97502e-05
1265 11.0735 6.89334 1.56904 0 0 1.00096 4.47971e-05
347 11.8084 5.32517 0.89171 0 0 1.00096 3.41654e-05
346 11.8305 6.21189 0.0935541 0 0 1.00097 4.06152e-05
1186 11.8408 6.1395 1.4814 0 0 1.00096 4.14049e-05
349 12.6037 5.72176 0.032733 0 0 1.00097 3.74786e-05
352 12.7049 6.45289 0.792722 0 0 1.00097 4.4267e-05
351 13.1171 5.65986 1.04878 0 0 1.00097 3.87238e-05
1190 13.6375 6.58706 1.36132 0 0 1.00097 4.67593e-05
276 14.0126 5.38906 0.862995 0 0 1.00096 3.67041e-05
1114 14.751 5.56245 1.58448 0 0 1.00097 3.95559e-05
355 14.8116 6.22988 0.790041 0 0 1.00097 4.35514e-05
356 14.224 6.86305 0.586756 0 0 1.00097 4.83434e-05
1194 15.1011 7.01025 1.40307 0 0 1.00097 5.05478e-05
280 15.448 5.54885 0.763687 0 0 1.00097 3.89446e-05
357 15.5748 6.23287 0.0215724 0 0 1.00097 4.33144e-05
1197 15.8477 6.45826 1.4517 0 0 1.00097 4.74869e-05
278 16.321 5.60889 0.0376181 0 0 1.00097 3.76591e-05
359 16.5268 6.50702 0.802404 0 0 1.00097 4.62172e-05
1118 16.5747 5.88951 1.69064 0 0 1.00097 4.22264e-05
361 17.1235 6.49031 0.0468973 0 0 1.00097 4.48208e-05
284 17.2341 5.89472 0.949135 0 0 1.00097 4.01784e-05
363 17.9529 6.79701 1.14494 0 0 1.00097 4.67607e-05
282 17.9002 5.74875 0.249146 0 0 1.00096 3.79614e-05
288 18.4345 5.8221 1.22261 0 0 1.00096 3.93876e-05
365 18.5286 6.69823 0.375538 0 0 1.00096 4.59722e-05
367 19.088 6.79003 1.32159 0 0 1.00096 4.70103e-05
286 19.1245 5.85496 0.484048 0 0 1.00096 3.90666e-05
292 19.9951 5.94081 1.19282 0 0 1.00097 3.93815e-05
369 19.7592 6.89773 0.605308 0 0 1.00096 4.61516e-05
291 20.7441 5.36604 1.12715 0 0 1.00097 3.34369e-05
293 21.2379 5.55152 0.362473 0 0 1.00097 3.37279e-05
290 20.7066 6.49206 0.627276 0 0 1.00097 4.13515e-05
296 21.3779 6.46797 1.37731 0 0 1.00097 4.04766e-05
295 21.9174 5.57221 1.3443 0 0 1.00096 3.39739e-05
294 21.9496 6.6675 0.638666 0 0 1.00096 3.94284e-05
297 22.6536 5.86477 0.768624 0 0 1.00096 3.34434e-05
300 22.7956 6.84012 1.34904 0 0 1.00096 3.90162e-05
16260 22.8174 6.69234 0.0447902 0 0 1.00096 3.73643e-05
299 23.5219 6.11132 1.28907 0 0 1.00096 3.31684e-05
224 24.3469 5.41518 1.33614 0 0 1.00096 2.74265e-05
298 23.6939 6.83985 0.635592 0 0 1.00096 3.50619e-05
301 24.4268 6.01323 0.541546 0 0 1.00096 2.90946e-05
304 24.489 6.9153 1.27314 0 0 1.00096 3.33155e-05
302 25.1074 6.96131 0.443622 0 0 1.00096 3.09174e-05
303 25.2439 6.22434 1.44206 0 0 1.00096 2.78367e-05
305 25.7014 6.10824 0.565493 0 0 1.00096 2.56883e-05
307 26.5055 5.98575 1.35752 0 0 1.00096 2.3102e-05
306 26.5467 6.72336 0.687146 0 0 1.00096 2.44505e-05
308 26.0184 6.96654 1.61626 0 0 1.00096 2.78441e-05
311 28.0171 5.52249 1.39644 0 0 1.00097 1.69382e-05
309 27.2414 5.70855 0.638029 0 0 1.00097 1.97406e-05
312 27.4685 6.63174 1.46239 0 0 1.00097 2.0968e-05
310 28.2229 6.19806 0.699292 0 0 1.00097 1.71193e-05
316 29.0638 6.06643 1.44837 0 0 1.00097 1.4519e-05
314 30.0035 5.68308 0.804494 0 0 1.00097 1.07193e-05
393 29.1919 6.76493 0.655597 0 0 1.00097 1.4845e-05
16355 30.046 6.52756 0.0684147 0 0 1.00097 1.17533e-05
16276 29.1311 5.91219 0.0282117 0 0 1.00097 1.36475e-05
395 30.1095 6.58916 1.30713 0 0 1.00097 1.12867e-05
318 31.5633 5.47763 0.579482 0 0 1.00097 6.61918e-06
320 30.8314 5.68936 1.42932 0 0 1.00097 8.3168e-06
397 31.0247 6.40606 0.622582 0 0 1.00097 8.33484e-06
401 0.95133 7.56731 0.627437 0 0 1.00097 6.44772e-06
402 1.56695 8.27443 0.57331 0 0 1.00097 8.96145e-06
404 1.03579 8.4398 1.44377 0 0 1.00097 6.7734e-06
478 0.36298 8.641 0.397728 0 0 1.00097 4.17849e-06
479 0.179043 7.88837 1.27709 0 0 1.00096 3.95754e-06
403 1.79726 7.5813 1.4556 0 0 1.00097 9.89561e-06
405 2.30728 7.43268 0.387789 0 0 1.00097 1.13723e-05
408 2.46673 8.20964 1.4439 0 0 1.00097 1.31227e-05
406 2.96472 8.1354 0.386128 0 0 1.00097 1.51133e-05
407 3.15422 7.3206 1.26846 0 0 1.00097 1.51266e-05
412 3.83516 7.88519 0.924694 0 0 1.00097 1.90693e-05
409 4.02675 7.12364 0.322189 0 0 1.00097 1.82125e-05
410 4.65814 7.71613 0.0446807 0 0 1.00097 2.17566e-05
491 4.76439 8.29311 0.836295 0 0 1.00097 2.35502e-05
1250 4.68038 7.60135 1.74681 0 0 1.00097 2.31737e-05
1329 4.02517 8.52381 1.66621 0 0 1.00097 2.08089e-05
489 3.83314 8.67059 0.0964478 0 0 1.00097 1.91755e-05
1333 5.60643 8.11806 1.60751 0 0 1.00097 2.86459e-05
416 5.59507 7.4213 0.946532 0 0 1.00098 2.56628e-05
495 6.25663 8.00595 0.605293 0 0 1.00097 2.99586e-05
1334 6.27203 8.79031 1.17666 0 0 1.00097 3.26928e-05
414 6.84191 7.38827 0.204624 0 0 1.00097 3.01446e-05
1337 7.17606 7.98621 1.21574 0 0 1.00097 3.56089e-05
420 7.45491 7.14809 1.04544 0 0 1.00097 3.22658e-05
499 8.23575 7.77923 0.720549 0 0 1.00097 3.76141e-05
1338 8.21604 8.57443 1.17414 0 0 1.00097 4.23038e-05
500 7.19626 8.69765 0.498056 0 0 1.00097 3.64745e-05
1258 8.40632 7.0559 1.65952 0 0 1.00097 3.63834e-05
424 9.42739 7.26623 0.850295 0 0 1.00096 4.04689e-05
501 9.26895 7.94939 0.0559294 0 0 1.00097 4.26462e-05
1341 9.22007 8.01971 1.37122 0 0 1.00096 4.45807e-05
504 9.12311 8.76461 0.561169 0 0 1.00097 4.66579e-05
503 10.1869 8.30583 0.685646 0 0 1.00096 4.90184e-05
1262 10.344 7.55486 1.4009 0 0 1.00096 4.65261e-05
428 11.0838 7.63892 0.691502 0 0 1.00096 4.84412e-05
1345 11.1789 8.45121 1.38658 0 0 1.00096 5.47913e-05
507 11.8648 8.7017 0.661457 0 0 1.00096 5.7371e-05
427 11.963 7.07882 0.809073 0 0 1.00096 4.70074e-05
1266 12.0469 7.83559 1.42608 0 0 1.00096 5.4145e-05
429 12.652 7.34277 0.019463 0 0 1.00096 4.98007e-05
432 12.7933 8.04255 0.711606 0 0 1.00096 5.55586e-05
1269 12.8741 7.08377 1.54932 0 0 1.00096 5.10942e-05
1349 12.8871 8.75336 1.37562 0 0 1.00096 6.26268e-05
1270 13.6315 8.0343 1.50273 0 0 1.00096 5.89194e-05
431 13.6666 7.60599 0.59499 0 0 1.00096 5.27989e-05
1273 14.4446 7.5439 1.47909 0 0 1.00097 5.7441e-05
436 14.5096 8.47611 0.77602 0 0 1.00097 6.22346e-05
435 15.1884 7.83699 0.543049 0 0 1.00097 5.66669e-05
1274 15.3275 8.60592 1.57765 0 0 1.00097 6.76151e-05
360 15.8631 7.21143 0.653151 0 0 1.00097 5.19574e-05
1277 15.9311 7.98454 1.3922 0 0 1.00098 5.99427e-05
439 16.7407 8.3228 0.891259 0 0 1.00098 6.15111e-05
437 16.073 8.30312 0.0348762 0 0 1.00097 6.05092e-05
1198 16.7951 7.617 1.68501 0 0 1.00098 5.72892e-05
364 17.1805 7.43483 0.858361 0 0 1.00098 5.22363e-05
441 17.4151 8.5053 0.144606 0 0 1.00097 6.10324e-05
443 17.8958 8.48293 1.08043 0 0 1.00097 6.18097e-05
362 17.9807 7.54103 0.299631 0 0 1.00097 5.27825e-05
368 18.5879 7.79082 1.08544 0 0 1.00097 5.47808e-05
445 18.6117 8.6271 0.283426 0 0 1.00097 6.19912e-05
447 19.2715 8.71118 1.0266 0 0 1.00096 6.05636e-05
366 19.3303 7.81497 0.222994 0 0 1.00097 5.34416e-05
372 19.7777 7.76926 1.16001 0 0 1.00096 5.45739e-05
370 20.4572 8.16065 0.614135 0 0 1.00096 5.31396e-05
371 20.6887 7.39183 1.35114 0 0 1.00097 4.87255e-05
373 21.319 7.62694 0.598862 0 0 1.00096 4.7058e-05
376 21.3089 8.62413 1.31527 0 0 1.00096 5.45778e-05
374 22.0227 8.48893 0.600757 0 0 1.00096 5.064e-05
375 22.0526 7.60922 1.30533 0 0 1.00096 4.61597e-05
377 22.8365 7.71888 0.669706 0 0 1.00096 4.32153e-05
380 22.8203 8.79583 1.13696 0 0 1.00096 4.93851e-05
378 23.5414 8.58531 0.397377 0 0 1.00096 4.38739e-05
379 23.7502 7.76525 1.20517 0 0 1.00096 4.02979e-05
381 24.4118 7.81014 0.303275 0 0 1.00096 3.69808e-05
384 24.5283 8.4773 1.0838 0 0 1.00096 3.92674e-05
383 25.3083 7.62157 1.189 0 0 1.00096 3.26504e-05
382 25.3124 8.39744 0.306577 0 0 1.00096 3.47441e-05
387 26.7545 7.53868 1.41097 0 0 1.00096 2.61865e-05
385 26.0615 7.65672 0.496937 0 0 1.00096 2.88494e-05
388 26.0826 8.43321 1.23351 0 0 1.00096 3.14211e-05
389 27.5537 7.15326 0.628507 0 0 1.00096 2.13591e-05
386 26.9409 8.18606 0.388269 0 0 1.00096 2.67124e-05
392 27.6481 7.98334 1.31256 0 0 1.00096 2.30446e-05
469 27.823 8.63886 0.432574 0 0 1.00097 2.29259e-05
391 28.4366 7.12698 1.37542 0 0 1.00096 1.79019e-05
390 28.4843 7.69819 0.516136 0 0 1.00096 1.84482e-05
471 28.5971 8.55955 1.21129 0 0 1.00097 1.94701e-05
396 29.3725 7.64873 1.23751 0 0 1.00097 1.49903e-05
473 29.4321 8.29756 0.418774 0 0 1.00097 1.50848e-05
475 30.2254 8.10468 1.27967 0 0 1.00097 1.16754e-05
394 30.2664 7.3353 0.502337 0 0 1.00097 1.13383e-05
474 30.2962 8.81915 0.530784 0 0 1.00097 1.1823e-05
400 31.0033 7.31806 1.18079 0 0 1.00097 8.33644e-06
480 31.1132 8.73196 1.19316 0 0 1.00096 8.33658e-06
477 31.3066 8.0605 0.389244 0 0 1.00097 7.63605e-06
484 0.902227 9.85621 0.914057 0 0 1.00097 5.69448e-06
481 1.01971 9.23182 0.122895 0 0 1.00097 6.413e-06
1322 1.48745 9.88998 1.72908 0 0 1.00097 8.43494e-06
559 0.16712 9.35468 1.13428 0 0 1.00097 3.0851e-06
558 0.119615 10.0495 0.0594976 0 0 1.00097 2.16502e-06
483 1.70529 9.10032 1.17329 0 0 1.00097 9.53905e-06
482 1.75699 9.97927 0.247052 0 0 1.00096 9.3648e-06
485 2.44286 9.03263 0.414246 0 0 1.00097 1.26656e-05
488 2.48632 9.87529 0.976547 0 0 1.00097 1.2752e-05
486 3.27427 9.64993 0.0819781 0 0 1.00097 1.65118e-05
487 3.11505 8.87566 1.17779 0 0 1.00097 1.58754e-05
567 3.22206 10.3575 0.716428 0 0 1.00097 1.64233e-05
1405 2.32392 10.563 1.57169 0 0 1.00097 1.26569e-05
1326 3.46524 9.54973 1.6567 0 0 1.00097 1.8138e-05
492 4.11645 9.28987 0.743233 0 0 1.00097 2.07317e-05
1330 4.95668 9.04783 1.55738 0 0 1.00097 2.60156e-05
1409 4.24525 9.98909 1.42556 0 0 1.00097 2.20774e-05
571 4.81727 10.0062 0.499898 0 0 1.00097 2.48455e-05
496 5.43179 9.06078 0.575203 0 0 1.00097 2.78866e-05
575 6.27006 9.626 0.447507 0 0 1.00097 3.34254e-05
1413 5.61022 9.76314 1.4394 0 0 1.00097 3.06523e-05
1414 6.36895 10.2514 1.19976 0 0 1.00097 3.48439e-05
1417 7.22063 9.36711 1.19683 0 0 1.00097 3.91222e-05
579 7.9646 9.43415 0.460248 0 0 1.00097 4.29084e-05
580 7.06543 10.2355 0.370027 0 0 1.00097 3.90263e-05
1418 8.00913 10.2116 1.10877 0 0 1.00097 4.64389e-05
1421 8.83946 9.37622 1.31277 0 0 1.00096 4.86982e-05
1342 9.99348 8.9645 1.37401 0 0 1.00096 5.26778e-05
583 9.93395 9.66873 0.654911 0 0 1.00096 5.43979e-05
584 8.95425 10.1323 0.663134 0 0 1.00097 5.02506e-05
1422 9.90063 10.3813 1.35989 0 0 1.00097 5.91269e-05
508 10.91 9.17884 0.659234 0 0 1.00096 5.67484e-05
1425 10.92 9.85355 1.37474 0 0 1.00097 6.31441e-05
587 11.6233 10.0137 0.658364 0 0 1.00097 6.44753e-05
1346 12.0401 9.1315 1.58977 0 0 1.00096 6.29313e-05
512 12.5766 9.58996 0.716399 0 0 1.00097 6.56226e-05
510 13.2048 9.88283 0.0362196 0 0 1.00096 6.88095e-05
1429 12.6039 10.2197 1.50423 0 0 1.00097 7.22461e-05
589 12.3333 10.5154 0.188033 0 0 1.00097 6.92942e-05
1350 13.5025 9.73054 1.58464 0 0 1.00096 7.26363e-05
511 13.5807 9.07005 0.68977 0 0 1.00096 6.48939e-05
1353 14.2529 9.01992 1.61821 0 0 1.00096 6.98926e-05
516 14.2887 9.9261 0.942266 0 0 1.00096 7.29116e-05
514 14.871 10.2354 0.0456404 0 0 1.00096 7.62308e-05
515 15.104 9.35556 0.866829 0 0 1.00097 7.03121e-05
1354 15.1084 10.0694 1.69854 0 0 1.00097 7.97823e-05
517 15.8085 9.89574 0.214691 0 0 1.00097 7.39455e-05
440 16.0502 9.03734 0.818273 0 0 1.00097 6.75981e-05
519 16.6945 9.95277 1.02633 0 0 1.00097 7.67322e-05
520 15.7481 10.5346 1.03175 0 0 1.00097 7.98344e-05
438 16.7918 9.27261 0.138896 0 0 1.00097 6.76223e-05
521 17.2 10.3327 0.22419 0 0 1.00096 7.73345e-05
444 17.5071 9.41348 1.13796 0 0 1.00097 7.07847e-05
523 18.0204 10.4028 0.974649 0 0 1.00096 7.86043e-05
442 18.0135 9.48145 0.261204 0 0 1.00097 6.94621e-05
448 18.6708 9.58798 1.0751 0 0 1.00096 6.95824e-05
449 19.9295 8.99575 0.228631 0 0 1.00096 5.94565e-05
446 19.2498 9.81435 0.115308 0 0 1.00097 6.79565e-05
452 19.8255 9.79306 0.960702 0 0 1.00096 6.89221e-05
1369 20.1247 10.6059 1.71652 0 0 1.00096 7.60459e-05
451 20.4485 9.06662 1.1865 0 0 1.00096 6.14741e-05
453 21.1983 9.12437 0.385747 0 0 1.00096 5.82477e-05
450 20.6404 9.96066 0.232341 0 0 1.00096 6.54434e-05
456 21.2271 10.0841 1.03262 0 0 1.00096 6.39327e-05
455 22.0168 9.54784 1.06317 0 0 1.00096 5.72065e-05