ITEM: TIMESTEP
5000
ITEM: NUMBER OF ATOMS
32000
ITEM: BOX BOUNDS pp pp pp
0.0000000000000000e+00 3.1748021039364001e+01
0.0000000000000000e+00 3.1748021039364001e+01
0.0000000000000000e+00 3.1748021039364001e+01
ITEM: ATOMS id x y z c_phase c_nbond c_rho v_omega
4 0.134795 1.10432 0.465325 0 0 1.00011 1.09623e-06
83 0.996975 1.66299 0.778643 0 0 1.00011 2.94398e-06
842 0.730383 0.790419 1.41221 0 0 1.00011 1.53347e-06
921 0.0267354 1.60588 1.37542 0 0 1.00011 1.45797e-06
3 0.738898 0.0605713 0.616373 0 0 1.00011 7.05206e-07
8 1.72623 0.79917 1.01483 0 0 1.00011 2.81746e-06
85 1.82343 1.464 0.220241 0 0 1.00011 3.90624e-06
925 1.84646 1.64766 1.75957 0 0 1.00011 4.23136e-06
6 2.53608 0.730946 0.203638 0 0 1.00011 3.74552e-06
7 2.59951 0.0361795 1.03659 0 0 1.00011 2.71608e-06
87 2.67189 1.52198 0.881531 0 0 1.00011 5.20017e-06
846 2.68618 0.797391 1.74366 0 0 1.00011 4.04097e-06
12 3.45047 0.908347 0.956932 0 0 1.00011 5.13897e-06
849 3.50711 0.0668182 1.70513 0 0 1.00011 3.66606e-06
929 3.63239 1.68029 1.71825 0 0 1.00011 6.92137e-06
10 4.12456 0.829558 0.323746 0 0 1.00011 5.70829e-06
16 4.97893 0.533523 1.17041 0 0 1.00011 5.87889e-06
93 4.94557 1.56551 0.383564 0 0 1.00011 8.24679e-06
850 4.3626 0.911405 1.6293 0 0 1.00011 6.20911e-06
9 3.48482 0.0857858 0.171345 0 0 1.00011 3.67272e-06
14 5.66337 0.608255 0.323447 0 0 1.00011 6.5379e-06
95 5.90862 1.27337 0.939626 0 0 1.00011 8.51299e-06
97 6.60159 1.35228 0.218153 0 0 1.00011 9.23547e-06
854 5.79887 0.422113 1.69797 0 0 1.00011 6.22455e-06
933 5.05747 1.68643 1.43513 0 0 1.00011 8.83426e-06
20 6.72704 0.352565 0.866026 0 0 1.00011 6.39469e-06
937 6.71314 0.969216 1.69304 0 0 1.00011 8.30671e-06
24 8.2799 0.368042 1.07028 0 0 1.00011 6.70914e-06
99 7.39316 1.18203 0.952368 0 0 1.00011 9.24119e-06
101 8.27539 1.34863 0.236135 0 0 1.00011 1.01574e-05
941 8.15704 1.22914 1.60712 0 0 1.00011 9.91329e-06
18 7.59989 0.609685 0.142703 0 0 1.00011 7.42584e-06
22 8.87315 0.467865 0.270657 0 0 1.00011 6.99086e-06
28 9.5669 0.298153 0.88928 0 0 1.00011 6.18787e-06
103 9.05287 1.26644 1.10887 0 0 1.00011 1.00803e-05
945 9.60259 0.933113 1.76268 0 0 1.00011 8.87818e-06
105 9.66947 1.33295 0.0915494 0 0 1.00011 1.03233e-05
32 11.2219 0.183519 0.633605 0 0 1.00011 4.9478e-06
107 10.3903 1.01192 0.823419 0 0 1.00011 8.90103e-06
866 10.5323 0.160758 1.445 0 0 1.00011 5.22099e-06
949 11.3146 0.984525 1.41726 0 0 1.00011 8.62509e-06
946 10.6185 1.64089 1.72765 0 0 1.00011 1.20523e-05
26 10.2568 0.330295 0.0772614 0 0 1.00011 6.04376e-06
36 12.8874 0.191101 0.636761 0 0 1.00011 4.04214e-06
111 12.0722 1.04689 0.508098 0 0 1.00011 8.52007e-06
870 12.1442 0.289272 1.29961 0 0 1.00011 4.904e-06
953 12.7524 1.17413 1.37266 0 0 1.00011 9.04705e-06
40 14.3868 0.311149 0.76663 0 0 1.00011 3.93227e-06
115 13.6222 1.09663 0.843671 0 0 1.00011 8.21965e-06
117 14.0827 1.54663 0.164839 0 0 1.00011 1.05312e-05
874 13.623 0.344466 1.6344 0 0 1.00011 4.40363e-06
957 14.4108 1.14211 1.47728 0 0 1.00011 8.27324e-06
119 14.9187 1.54959 0.663657 0 0 1.00011 1.03388e-05
44 15.731 0.773114 0.788148 0 0 1.00011 6.03961e-06
123 16.5929 1.55647 0.68254 0 0 1.00011 1.03655e-05
878 15.1598 0.463048 1.64075 0 0 1.00011 4.50076e-06
882 16.5696 0.723902 1.34253 0 0 1.00011 5.83831e-06
961 15.6737 1.49108 1.39263 0 0 1.00011 1.01545e-05
38 15.1264 0.708763 0.067753 0 0 1.00011 5.66486e-06
48 17.2789 0.749845 0.549835 0 0 1.00011 6.05937e-06
127 17.9648 1.60718 0.757133 0 0 1.00011 1.0956e-05
886 17.9396 0.768863 1.42746 0 0 1.00011 6.46133e-06
965 17.2671 1.76816 1.56367 0 0 1.00011 1.20142e-05
51 19.5438 0.0510383 0.663923 0 0 1.00011 3.7985e-06
52 18.8136 0.757366 0.686083 0 0 1.00011 6.67946e-06
131 19.5784 1.59281 0.842673 0 0 1.00011 1.14426e-05
889 19.0362 0.191416 1.5455 0 0 1.00011 4.05624e-06
890 19.6213 1.00694 1.69136 0 0 1.00011 8.59518e-06
969 18.6995 1.54404 1.5008 0 0 1.00011 1.10359e-05
55 21.1085 0.395184 1.06841 0 0 1.00011 6.37315e-06
56 20.2707 0.818521 0.978736 0 0 1.00011 7.8155e-06
135 21.1426 1.70039 0.955776 0 0 1.00011 1.24869e-05
54 21.2074 0.811334 0.21861 0 0 1.00011 8.28358e-06
133 20.3821 1.55656 0.196987 0 0 1.00011 1.14879e-05
57 22.0222 0.312788 0.539996 0 0 1.00011 6.61583e-06
59 22.8091 0.480698 1.40619 0 0 1.00011 7.7077e-06
60 22.1392 1.20044 1.33114 0 0 1.00011 1.04931e-05
137 22.0324 1.65106 0.53623 0 0 1.00011 1.23379e-05
58 22.94 1.12005 0.450367 0 0 1.00011 1.00989e-05
63 24.2478 0.431281 1.44551 0 0 1.00011 7.81111e-06
61 23.5816 0.405705 0.575457 0 0 1.00011 7.5381e-06
62 24.461 1.23422 0.754868 0 0 1.00011 1.04156e-05
64 23.506 1.30011 1.40192 0 0 1.00011 1.09801e-05
65 24.9688 0.363699 0.55137 0 0 1.00011 7.51223e-06
67 26.0204 0.427033 1.17178 0 0 1.00011 7.43592e-06
68 25.1917 1.17569 1.47847 0 0 1.00011 1.00819e-05
66 25.9116 0.97657 0.431684 0 0 1.00011 8.97914e-06
70 27.5961 1.31754 0.389285 0 0 1.00011 8.44143e-06
71 27.6277 0.544344 0.874799 0 0 1.00011 6.72259e-06
72 26.7752 1.07061 1.26272 0 0 1.00011 8.66472e-06
913 28.3886 0.369997 1.40108 0 0 1.00011 5.78641e-06
69 26.8032 0.280649 0.228455 0 0 1.00011 6.68336e-06
76 28.6701 1.26995 0.741371 0 0 1.00011 7.13396e-06
914 29.4067 0.972133 1.56915 0 0 1.00011 5.82604e-06
993 28.5477 1.75233 1.49968 0 0 1.00011 8.3266e-06
917 29.8246 0.192694 1.46086 0 0 1.00011 4.09039e-06
75 29.2853 0.378452 0.615915 0 0 1.00011 4.89697e-06
841 31.5984 0.270937 1.25657 0 0 1.00011 2.27561e-06
79 30.7157 0.500831 0.471992 0 0 1.00011 3.5518e-06
80 30.1192 1.2164 0.7745 0 0 1.00011 5.26299e-06
918 30.8817 0.983203 1.39377 0 0 1.00011 4.01161e-06
82 1.14039 2.42973 0.128472 0 0 1.00011 4.11084e-06
84 0.162785 2.3848 0.812022 0 0 1.00011 2.45151e-06
163 1.32378 3.22768 0.948496 0 0 1.00011 5.41093e-06
922 1.16919 2.35482 1.59116 0 0 1.00011 4.10272e-06
1001 0.420748 3.03192 1.54966 0 0 1.00011 3.51417e-06
161 0.366678 3.09785 0.13185 0 0 1.00011 3.46366e-06
88 1.94056 2.40468 0.784019 0 0 1.00011 5.42677e-06
167 2.69582 3.25915 0.860098 0 0 1.00011 8.15989e-06
926 2.70002 2.21084 1.53467 0 0 1.00011 6.47047e-06
1009 3.30012 3.39738 1.64956 0 0 1.00011 9.80452e-06
86 2.75619 2.36206 0.0555928 0 0 1.00011 6.74204e-06
92 3.41553 2.5294 0.780011 0 0 1.00011 8.19324e-06
91 4.03503 1.81124 0.711325 0 0 1.00011 7.69785e-06
96 4.94924 2.53592 0.816008 0 0 1.00011 1.07519e-05
171 4.24327 3.28433 0.749803 0 0 1.00011 1.12699e-05
930 4.17106 2.60929 1.58185 0 0 1.00011 9.76945e-06
94 5.68808 2.40491 0.133943 0 0 1.00011 1.14448e-05
100 6.5953 2.13979 0.774121 0 0 1.00011 1.17673e-05
175 5.69596 3.15461 0.953353 0 0 1.00011 1.37313e-05
934 5.89686 2.1563 1.49512 0 0 1.00011 1.11573e-05
1017 6.57255 3.02085 1.55299 0 0 1.00011 1.49485e-05
177 6.69513 2.88635 0.132899 0 0 1.00011 1.42846e-05
98 7.49327 2.18282 0.139262 0 0 1.00011 1.27628e-05
104 8.1259 2.15752 0.931139 0 0 1.00011 1.32818e-05
179 7.45297 3.01948 0.93063 0 0 1.00011 1.59564e-05
938 7.33797 2.01686 1.56785 0 0 1.00011 1.22749e-05
1021 8.24172 2.95187 1.64996 0 0 1.00011 1.69864e-05
181 8.32331 2.92397 0.0395774 0 0 1.00011 1.6444e-05
102 8.94714 2.0463 0.251762 0 0 1.00011 1.31808e-05
108 9.81698 1.98233 1.1065 0 0 1.00011 1.33511e-05
183 8.98209 2.92532 0.92887 0 0 1.00011 1.72835e-05
942 9.07634 2.17606 1.70454 0 0 1.00011 1.42581e-05
185 9.61943 2.86188 0.210966 0 0 1.00011 1.72616e-05
106 10.3292 2.07401 0.211692 0 0 1.00011 1.37612e-05
112 11.2015 1.79395 0.771435 0 0 1.00011 1.25146e-05
187 10.6814 2.76681 0.920617 0 0 1.00011 1.75106e-05
1029 11.5076 2.79523 1.57803 0 0 1.00011 1.83542e-05
116 12.7217 1.91738 0.595237 0 0 1.00011 1.29256e-05
191 11.9889 2.61236 0.740935 0 0 1.00011 1.69422e-05
950 11.9726 1.88962 1.4658 0 0 1.00011 1.30949e-05
1033 12.9195 2.99204 1.68994 0 0 1.00011 1.99377e-05
195 13.2589 3.00472 0.844861 0 0 1.00011 1.9359e-05
954 13.4318 1.97329 1.48032 0 0 1.00011 1.33637e-05
120 14.0821 2.43222 0.925181 0 0 1.00011 1.58215e-05
1037 14.1132 3.37036 1.55653 0 0 1.00011 2.24717e-05
199 14.7817 3.42906 0.881717 0 0 1.00011 2.23566e-05
958 14.8477 2.29502 1.44491 0 0 1.00011 1.51786e-05
118 14.9042 2.50805 0.137616 0 0 1.00011 1.61083e-05
197 14.2334 3.21048 0.0367654 0 0 1.00011 2.05197e-05
114 13.4697 2.27741 0.0582614 0 0 1.00011 1.47905e-05
124 15.7596 2.44584 0.695834 0 0 1.00011 1.57332e-05
203 16.3841 3.21133 0.667923 0 0 1.00011 2.0744e-05
962 16.3741 2.49012 1.52597 0 0 1.00011 1.64761e-05
1041 15.4578 3.25798 1.50315 0 0 1.00011 2.16468e-05
201 15.6487 3.26074 0.0227997 0 0 1.00011 2.09878e-05
128 17.1254 2.37049 0.683634 0 0 1.00011 1.53519e-05
207 18.0144 2.95593 0.702867 0 0 1.00011 1.91297e-05
966 18.0808 2.46716 1.58478 0 0 1.00011 1.65113e-05
1045 17.17 3.1359 1.4977 0 0 1.00011 2.07912e-05
132 18.9486 2.39465 1.0143 0 0 1.00011 1.58934e-05
211 19.7726 3.28594 1.27917 0 0 1.00011 2.16757e-05
209 18.9517 3.03417 0.195408 0 0 1.00011 1.96047e-05
130 19.6435 2.37856 0.10419 0 0 1.00011 1.5757e-05
973 20.3687 1.83205 1.728 0 0 1.00011 1.33187e-05
134 21.2117 2.46734 0.458542 0 0 1.00011 1.63434e-05
136 20.2527 2.51157 1.11352 0 0 1.00011 1.68082e-05
215 21.3792 3.35387 1.39209 0 0 1.00011 2.1501e-05
213 20.4843 3.04473 0.334368 0 0 1.00011 1.95802e-05
139 22.9173 2.12133 1.51287 0 0 1.00011 1.4658e-05
138 23.0196 2.65889 0.73597 0 0 1.00011 1.67106e-05
140 22.1428 2.55338 1.23966 0 0 1.00011 1.68205e-05
217 22.0477 3.25771 0.602941 0 0 1.00011 2.02495e-05
16179 22.7443 3.45848 0.0715624 0 0 1.00011 2.05883e-05
141 23.7766 1.86188 0.624621 0 0 1.00011 1.29272e-05
143 24.4639 2.04122 1.60777 0 0 1.00011 1.35729e-05
142 24.3876 2.73777 0.776442 0 0 1.00011 1.60078e-05
144 23.7388 2.9589 1.53791 0 0 1.00011 1.78688e-05
16108 25.0005 2.89472 0.0165643 0 0 1.00011 1.5841e-05
147 25.9602 1.78366 1.35761 0 0 1.00011 1.13905e-05
149 26.5777 1.8374 0.51252 0 0 1.00011 1.07868e-05
145 25.1649 1.90535 0.512991 0 0 1.00011 1.23024e-05
146 25.8327 2.66103 0.707665 0 0 1.00011 1.4088e-05
148 25.2022 2.6123 1.52505 0 0 1.00011 1.49078e-05
152 26.5734 2.60941 1.53094 0 0 1.00011 1.31395e-05
151 27.5327 2.02464 1.23722 0 0 1.00011 1.01939e-05
153 28.2789 2.12375 0.345062 0 0 1.00011 9.315e-06
150 27.1245 2.73519 0.644525 0 0 1.00011 1.24346e-05
231 27.2463 3.39949 1.41716 0 0 1.00011 1.41059e-05
156 28.2887 2.79276 1.20549 0 0 1.00011 1.07692e-05
233 28.0223 3.25884 0.330402 0 0 1.00011 1.21376e-05
997 29.9831 1.82902 1.70769 0 0 1.00011 6.48017e-06
155 29.474 2.06817 0.881427 0 0 1.00011 7.46716e-06
154 29.2276 2.68898 0.290649 0 0 1.00011 8.89271e-06
235 29.2886 3.29145 1.17684 0 0 1.00011 9.86708e-06
159 30.9371 1.99532 0.924547 0 0 1.00011 5.20099e-06
160 30.2139 2.72949 1.00244 0 0 1.00011 7.28597e-06
239 31.0616 3.36121 0.972998 0 0 1.00011 6.55846e-06
998 31.0183 2.70603 1.72701 0 0 1.00011 5.99567e-06
237 30.1483 3.27538 0.13708 0 0 1.00011 8.13801e-06
157 30.4361 1.92374 0.0275835 0 0 1.00011 5.83977e-06
158 31.1742 2.67235 0.0769442 0 0 1.00011 5.61128e-06
164 0.334056 3.78516 0.919508 0 0 1.00011 3.99711e-06
241 0.187532 4.59898 0.481203 0 0 1.00011 4.25878e-06
243 1.18443 4.6613 0.987247 0 0 1.00011 6.63972e-06
244 0.138262 5.27028 1.27774 0 0 1.00011 4.54723e-06
162 1.08181 3.8559 0.0625278 0 0 1.00011 5.56432e-06
168 1.88616 4.03017 0.847638 0 0 1.00011 7.53974e-06
247 2.58901 4.83252 1.1346 0 0 1.00011 1.03882e-05
166 2.69444 4.12179 0.205983 0 0 1.00011 9.50952e-06
245 1.9458 4.94983 0.279682 0 0 1.00011 8.75404e-06
249 3.46016 4.82943 0.162226 0 0 1.00011 1.26053e-05
172 3.53916 4.04648 0.885757 0 0 1.00011 1.13803e-05
176 4.96425 3.96129 1.17902 0 0 1.00011 1.45928e-05
251 4.1043 4.84208 1.14725 0 0 1.00011 1.45566e-05
170 4.30846 4.14712 0.14762 0 0 1.00011 1.33404e-05
253 5.06669 4.69717 0.338295 0 0 1.00011 1.65875e-05
174 5.82695 3.89372 0.195355 0 0 1.00011 1.6112e-05
180 6.54963 3.72066 0.774838 0 0 1.00011 1.70106e-05
255 5.74645 4.68466 1.02684 0 0 1.00011 1.85118e-05
1097 6.73037 4.45978 1.64462 0 0 1.00011 2.05221e-05
260 6.74787 5.07864 0.881132 0 0 1.00011 2.23225e-05
184 8.26559 3.83813 0.70254 0 0 1.00011 2.04662e-05
259 7.47581 4.40777 0.548647 0 0 1.00011 2.13814e-05
1018 7.46359 3.81838 1.49815 0 0 1.00011 1.94264e-05
1101 8.27863 4.55337 1.48563 0 0 1.00011 2.42496e-05
264 8.29442 5.25574 0.695889 0 0 1.00011 2.69514e-05
188 9.96625 3.53336 0.886243 0 0 1.00011 2.10996e-05
263 9.15693 4.51235 0.821007 0 0 1.00011 2.51661e-05
265 9.94233 4.45688 0.127228 0 0 1.00011 2.58169e-05
1022 9.14553 3.71357 1.49928 0 0 1.00011 2.16542e-05
1105 9.95551 4.29632 1.65681 0 0 1.00011 2.59713e-05
182 9.05457 3.81769 0.0616254 0 0 1.00011 2.13484e-05
268 9.86163 5.26551 0.793888 0 0 1.00011 3.04851e-05
1102 9.14342 5.26727 1.59443 0 0 1.00011 2.9903e-05
192 11.4845 3.60588 0.784381 0 0 1.00011 2.26097e-05
267 10.6779 4.61323 0.906165 0 0 1.00011 2.8062e-05
269 11.4775 4.65141 0.227084 0 0 1.00011 2.87322e-05
1026 10.7817 3.52671 1.58983 0 0 1.00011 2.2242e-05
1109 11.4571 4.3346 1.70382 0 0 1.00011 2.80704e-05
272 11.4933 5.22848 0.991404 0 0 1.00011 3.30696e-05
186 10.6616 3.80297 0.174791 0 0 1.00011 2.30207e-05
196 12.5903 3.55521 0.814394 0 0 1.00011 2.27368e-05
271 12.2853 4.51501 1.00032 0 0 1.00011 2.91537e-05
1113 12.8576 4.95798 1.68972 0 0 1.00011 3.36524e-05
275 13.3278 4.66061 0.800076 0 0 1.00011 3.04968e-05
273 12.7345 4.58633 0.0613219 0 0 1.00011 2.93828e-05
200 14.0866 4.11029 0.697376 0 0 1.00011 2.68066e-05
1034 13.5852 4.19673 1.59405 0 0 1.00011 2.82961e-05
1117 14.318 5.0985 1.52372 0 0 1.00011 3.5296e-05
279 15.0547 5.00742 0.81288 0 0 1.00011 3.37885e-05
277 14.247 4.88479 0.0667144 0 0 1.00011 3.21911e-05
198 15.0561 4.18613 0.100928 0 0 1.00011 2.73167e-05
1038 15.075 4.40835 1.59532 0 0 1.00011 3.02304e-05
204 15.7635 4.0698 0.92467 0 0 1.00011 2.69573e-05
281 15.982 4.77948 0.187659 0 0 1.00011 3.17329e-05
283 16.6982 4.59821 0.902643 0 0 1.00011 3.075e-05
1042 16.4194 3.97275 1.68989 0 0 1.00011 2.71843e-05
1121 15.9324 5.05444 1.64399 0 0 1.00011 3.55821e-05
208 17.36 3.85549 0.812114 0 0 1.00011 2.52644e-05
287 18.1846 4.52225 1.09914 0 0 1.00011 3.02214e-05
1046 18.0407 3.67114 1.65737 0 0 1.00011 2.4723e-05
285 17.5519 4.6034 0.0187551 0 0 1.00011 3.03222e-05
206 18.2225 3.88426 0.0634197 0 0 1.00011 2.51409e-05
212 18.957 3.74757 0.954432 0 0 1.00011 2.44531e-05
289 18.9208 4.65183 0.362964 0 0 1.00011 3.03622e-05
291 19.7817 4.72636 1.09257 0 0 1.00011 3.08946e-05
210 19.6775 3.8114 0.232845 0 0 1.00011 2.43856e-05
216 20.5169 3.87575 1.23638 0 0 1.00011 2.49119e-05
295 20.9743 4.77987 1.3957 0 0 1.00011 3.05007e-05
297 21.6718 5.01749 0.808563 0 0 1.00011 3.04829e-05
214 21.1634 3.98963 0.514746 0 0 1.00011 2.48056e-05
293 20.2334 4.8396 0.35035 0 0 1.00011 3.07321e-05
219 22.889 3.6908 1.42085 0 0 1.00011 2.21217e-05
220 22.0163 4.1959 1.31307 0 0 1.00011 2.56805e-05
299 22.5608 5.24307 1.27901 0 0 1.00011 3.07295e-05
218 22.6905 4.40977 0.518367 0 0 1.00011 2.54797e-05
223 24.5303 3.5728 1.55924 0 0 1.00011 1.94965e-05
221 23.6355 3.69699 0.782629 0 0 1.00011 2.08702e-05
222 24.4008 4.38582 0.62776 0 0 1.00011 2.25683e-05
224 23.5412 4.61426 1.33731 0 0 1.00011 2.56406e-05
301 23.6271 5.13436 0.535274 0 0 1.00011 2.73477e-05
228 25.0764 4.56064 1.6217 0 0 1.00011 2.24379e-05
227 25.7722 3.55308 1.51565 0 0 1.00011 1.73381e-05
229 26.2196 3.55261 0.599052 0 0 1.00011 1.62261e-05
225 25.118 3.73182 0.800212 0 0 1.00011 1.87668e-05
307 25.7597 5.2031 1.34681 0 0 1.00011 2.28425e-05
232 26.4149 4.3446 1.37404 0 0 1.00011 1.84407e-05
309 26.5638 5.02867 0.643409 0 0 1.00011 1.97883e-05
226 25.5906 4.45991 0.394118 0 0 1.00011 2.03275e-05
311 27.3875 4.92012 1.40678 0 0 1.00011 1.759e-05
236 28.0091 4.0161 1.10625 0 0 1.00011 1.39122e-05
313 28.3285 4.77614 0.707046 0 0 1.00011 1.45064e-05
230 27.117 4.08878 0.574776 0 0 1.00011 1.59496e-05
234 28.9744 3.8028 0.485966 0 0 1.00011 1.12712e-05
315 29.1348 4.55505 1.3305 0 0 1.00011 1.22617e-05
240 30.0399 4.09004 1.02623 0 0 1.00011 9.42203e-06
238 31.0704 3.9875 0.37143 0 0 1.00011 7.08793e-06
317 30.2519 4.70171 0.488573 0 0 1.00011 9.53464e-06
319 31.024 4.6138 1.40826 0 0 1.00011 7.7886e-06
242 0.959547 5.52395 0.462327 0 0 1.00011 6.6819e-06
248 1.58426 5.4971 1.37906 0 0 1.00011 8.47398e-06
323 0.849178 6.21054 1.27736 0 0 1.00011 6.82463e-06
324 0.311207 6.92068 1.50658 0 0 1.00011 5.44371e-06
322 1.02672 6.93443 0.572745 0 0 1.00011 7.56069e-06
321 0.0294867 6.00162 0.448049 0 0 1.00011 4.47627e-06
328 1.76326 7.0082 1.23993 0 0 1.00011 1.01319e-05
325 1.9486 6.17987 0.516945 0 0 1.00011 1.00284e-05
252 3.16513 5.58803 1.29887 0 0 1.00011 1.32539e-05
327 2.32332 6.13048 1.41054 0 0 1.00011 1.13623e-05
332 3.31619 6.92489 1.1315 0 0 1.00011 1.56081e-05
246 2.73677 5.5831 0.273704 0 0 1.00011 1.1734e-05
329 3.45692 6.24207 0.49755 0 0 1.00011 1.49975e-05
250 4.25045 5.4218 0.325226 0 0 1.00011 1.60002e-05
256 4.99962 5.38215 1.31299 0 0 1.00011 1.84835e-05
331 4.19708 6.05045 1.22819 0 0 1.00011 1.7388e-05
333 4.89406 6.18423 0.33181 0 0 1.00011 1.98126e-05
336 4.84517 6.74956 1.16005 0 0 1.00011 2.12504e-05
330 4.06773 6.97517 0.223377 0 0 1.00011 1.83671e-05
254 5.84791 5.36518 0.299556 0 0 1.00011 2.06206e-05
335 5.76295 6.18196 0.961778 0 0 1.00011 2.30719e-05
1177 6.53993 5.92356 1.59766 0 0 1.00011 2.53539e-05
340 6.51688 6.80331 1.00255 0 0 1.00011 2.78715e-05
337 6.45971 5.98994 0.151996 0 0 1.00011 2.44926e-05
334 5.62442 6.98951 0.14814 0 0 1.00011 2.45241e-05
339 7.40849 6.09163 0.755044 0 0 1.00011 2.8143e-05
1098 7.47421 5.35457 1.49362 0 0 1.00011 2.58942e-05
1181 8.32913 6.04379 1.49444 0 0 1.00011 3.15645e-05
344 8.11068 6.78337 0.727109 0 0 1.00011 3.34858e-05
1178 7.37364 6.78736 1.59747 0 0 1.00011 3.17599e-05
258 7.40537 5.29958 0.0431262 0 0 1.00011 2.47496e-05
343 8.97841 6.1226 0.73718 0 0 1.00011 3.30416e-05
1185 9.84479 6.12189 1.47114 0 0 1.00011 3.63377e-05
1182 9.19674 6.87945 1.46299 0 0 1.00011 3.87007e-05
345 9.86237 6.17227 0.0947123 0 0 1.00011 3.53176e-05
262 9.0876 5.40965 0.0172233 0 0 1.00011 2.94131e-05
347 10.6944 5.96473 0.96006 0 0 1.00011 3.64991e-05
349 11.4272 6.3159 0.0758989 0 0 1.00011 3.96549e-05
346 10.6349 6.88151 0.150584 0 0 1.00011 4.1615e-05
1186 10.5876 6.86086 1.49613 0 0 1.00011 4.30684e-05
270 12.1067 5.58121 0.183391 0 0 1.00011 3.57741e-05
276 12.7927 5.77692 0.862661 0 0 1.00011 3.83954e-05
351 11.8935 6.16101 1.05334 0 0 1.00011 4.02249e-05
274 13.4323 5.51098 0.0424452 0 0 1.00011 3.64551e-05
1114 13.4522 5.83564 1.56203 0 0 1.00011 4.06357e-05
355 13.4832 6.54491 0.809999 0 0 1.00011 4.48811e-05
280 14.1841 5.69831 0.774881 0 0 1.00011 3.883e-05
1197 14.4621 6.63081 1.41314 0 0 1.00011 4.78989e-05
357 14.2588 6.36506 0.0392027 0 0 1.00011 4.36421e-05
278 15.1413 5.63313 0.0375193 0 0 1.00011 3.8213e-05
284 15.9556 5.7431 0.955275 0 0 1.00011 3.99317e-05
359 15.1788 6.4452 0.807323 0 0 1.00011 4.53305e-05
363 16.6247 6.47108 1.14612 0 0 1.00011 4.61493e-05
1118 15.2415 5.86839 1.69919 0 0 1.00011 4.24196e-05
282 16.7365 5.43704 0.276179 0 0 1.00011 3.67152e-05
361 15.8074 6.34402 0.0425386 0 0 1.00011 4.40243e-05
286 17.9417 5.33968 0.541546 0 0 1.00011 3.59166e-05
288 17.2305 5.45043 1.24921 0 0 1.00011 3.78849e-05
365 17.1948 6.30137 0.411326 0 0 1.00011 4.36909e-05
367 17.7946 6.28317 1.38408 0 0 1.00011 4.4705e-05
292 18.8928 5.32245 1.2028 0 0 1.00011 3.59503e-05
369 18.4974 6.2744 0.615255 0 0 1.00011 4.27618e-05
290 19.5437 5.81002 0.623045 0 0 1.00011 3.8309e-05
371 19.4499 6.61699 1.34995 0 0 1.00011 4.5564e-05
373 20.114 6.81383 0.612955 0 0 1.00011 4.47093e-05
294 20.8579 5.83907 0.653824 0 0 1.00011 3.67294e-05
296 20.297 5.67183 1.39838 0 0 1.00011 3.73901e-05
375 20.8928 6.68452 1.30742 0 0 1.00011 4.32548e-05
377 21.7627 6.74047 0.672366 0 0 1.00011 4.05538e-05
300 21.7617 5.94919 1.38377 0 0 1.00011 3.66548e-05
16260 21.7904 5.80213 0.056455 0 0 1.00011 3.45976e-05
298 22.764 5.90547 0.670182 0 0 1.00011 3.32398e-05
379 22.7312 6.77336 1.21009 0 0 1.00011 3.86227e-05
305 24.925 5.31954 0.568504 0 0 1.00011 2.50502e-05
381 23.4423 6.85529 0.273422 0 0 1.00011 3.59477e-05
303 24.4384 5.36074 1.43692 0 0 1.00011 2.70782e-05
304 23.5712 5.96289 1.29868 0 0 1.00011 3.20524e-05
383 24.4075 6.64525 1.16548 0 0 1.00011 3.22902e-05
302 24.2263 6.07759 0.4283 0 0 1.00011 3.00535e-05
306 25.7573 5.92888 0.700497 0 0 1.00011 2.48067e-05
308 25.1902 6.11296 1.67675 0 0 1.00011 2.81124e-05
385 25.2396 6.81199 0.497208 0 0 1.00011 2.93992e-05
387 25.9075 6.67031 1.40987 0 0 1.00011 2.71208e-05
312 26.7574 5.90837 1.47664 0 0 1.00011 2.19767e-05
310 27.5585 5.5957 0.722392 0 0 1.00011 1.83115e-05
389 26.8172 6.42807 0.651366 0 0 1.00011 2.26222e-05
391 27.7645 6.52591 1.36833 0 0 1.00011 1.97546e-05
316 28.4228 5.56694 1.48462 0 0 1.00011 1.59583e-05
390 27.7762 7.06292 0.530929 0 0 1.00011 2.03172e-05
314 29.4404 5.34057 0.81814 0 0 1.00011 1.24165e-05
395 29.4941 6.21821 1.32294 0 0 1.00011 1.33859e-05
394 29.6366 6.93726 0.509192 0 0 1.00011 1.33707e-05
393 28.5291 6.25145 0.642618 0 0 1.00011 1.64181e-05
16355 29.4313 6.18293 0.0797957 0 0 1.00011 1.33673e-05
16276 28.5376 5.43179 0.0583725 0 0 1.00011 1.50271e-05
318 31.0139 5.37991 0.595743 0 0 1.00011 8.28278e-06
320 30.2689 5.48123 1.46638 0 0 1.00011 1.04122e-05
397 30.4488 6.20394 0.649505 0 0 1.00011 1.02815e-05
399 31.2718 6.1652 1.38481 0 0 1.00011 8.01724e-06
398 31.2566 6.9643 0.605357 0 0 1.00011 8.07562e-06
401 0.318851 7.63302 0.661249 0 0 1.00011 5.38158e-06
402 0.892287 8.4555 0.617213 0 0 1.00011 7.26449e-06
403 1.16947 7.84762 1.49629 0 0 1.00011 8.38469e-06
404 0.414066 8.55883 1.47026 0 0 1.00011 5.54454e-06
405 1.65278 7.74465 0.373905 0 0 1.00011 9.94547e-06
408 1.78594 8.59388 1.46414 0 0 1.00011 1.09447e-05
326 2.54656 7.11777 0.474757 0 0 1.00011 1.28759e-05
406 2.25634 8.59999 0.399909 0 0 1.00011 1.26483e-05
407 2.45701 7.77918 1.27846 0 0 1.00011 1.32471e-05
412 3.08132 8.47325 0.936931 0 0 1.00011 1.631e-05
409 3.30826 7.72635 0.327426 0 0 1.00011 1.6435e-05
410 3.88315 8.40741 0.079664 0 0 1.00011 1.96935e-05
411 4.05033 7.61067 1.24197 0 0 1.00011 1.96844e-05
416 4.77744 8.1986 0.926596 0 0 1.00011 2.37768e-05
413 4.74635 7.58209 0.243433 0 0 1.00011 2.2221e-05
414 5.95255 8.27588 0.171928 0 0 1.00011 2.92142e-05
415 5.5639 7.52034 1.02669 0 0 1.00011 2.59147e-05
417 6.57677 7.47219 0.167538 0 0 1.00011 2.98445e-05
420 6.48529 8.15019 1.04416 0 0 1.00011 3.19719e-05
419 7.38025 7.68855 0.746611 0 0 1.00011 3.43367e-05
424 8.38248 8.2306 0.86982 0 0 1.00011 4.11555e-05
1258 7.37457 8.0896 1.69835 0 0 1.00011 3.71217e-05
1261 8.15624 7.40724 1.55931 0 0 1.00011 3.76196e-05
421 8.09745 7.52928 0.0255219 0 0 1.00011 3.63909e-05
348 9.94789 7.14843 0.726407 0 0 1.00011 4.16236e-05
423 9.01874 7.53886 0.662671 0 0 1.00011 4.03599e-05
428 9.84682 8.53442 0.694779 0 0 1.00011 4.91141e-05
1262 9.19965 8.60523 1.44534 0 0 1.00011 4.79507e-05
1265 9.76726 7.80417 1.59788 0 0 1.00011 4.65253e-05
352 11.4323 7.0827 0.809646 0 0 1.00011 4.54939e-05
427 10.6953 7.86715 0.842346 0 0 1.00011 4.86665e-05
1266 10.712 8.62805 1.42949 0 0 1.00011 5.49904e-05
1269 11.5337 7.74427 1.60113 0 0 1.00011 5.24353e-05
429 11.353 8.05104 0.0432871 0 0 1.00011 5.12796e-05
432 11.4977 8.77284 0.730969 0 0 1.00011 5.72193e-05
356 12.8393 7.2455 0.570298 0 0 1.00011 4.93055e-05
431 12.3107 8.17196 0.594529 0 0 1.00011 5.5273e-05
1190 12.2065 7.10567 1.38147 0 0 1.00011 4.87092e-05
1270 12.2249 8.61568 1.4955 0 0 1.00011 6.0772e-05
1273 12.9987 7.95153 1.47883 0 0 1.00011 5.74079e-05
360 14.4655 7.3335 0.597323 0 0 1.00011 5.21963e-05
435 13.7563 8.06186 0.473054 0 0 1.00011 5.72407e-05
1194 13.6088 7.30335 1.35034 0 0 1.00011 5.25465e-05
1277 14.4013 8.14883 1.35776 0 0 1.00011 6.10316e-05
362 16.5746 7.20051 0.283519 0 0 1.00011 5.12797e-05
364 15.7761 7.31042 0.915251 0 0 1.00011 5.29359e-05
439 15.2233 8.28304 0.867053 0 0 1.00011 6.13619e-05
443 16.4143 8.17422 1.11226 0 0 1.00011 6.11582e-05
1198 15.2908 7.51591 1.63839 0 0 1.00011 5.70454e-05
441 16.0061 8.31459 0.154684 0 0 1.00011 6.08503e-05
372 18.4089 7.10165 1.1425 0 0 1.00011 5.04821e-05
368 17.1232 7.38528 1.11855 0 0 1.00011 5.3979e-05
445 17.2071 8.13561 0.335617 0 0 1.00011 5.90705e-05
447 17.8555 8.06833 1.03549 0 0 1.00011 5.89147e-05
366 17.9539 7.20955 0.221215 0 0 1.00011 5.05494e-05
370 19.1417 7.39437 0.641135 0 0 1.00011 5.074e-05
451 19.0685 8.2163 1.18825 0 0 1.00011 5.87479e-05
376 20.0041 7.72851 1.32798 0 0 1.00011 5.30981e-05
453 19.9322 8.20959 0.365646 0 0 1.00011 5.50221e-05
449 18.5917 8.24368 0.181992 0 0 1.00011 5.79271e-05
374 20.8198 7.5372 0.671189 0 0 1.00011 4.82025e-05
455 20.7769 8.52167 1.04022 0 0 1.00011 5.56646e-05
380 21.6599 7.75744 1.1523 0 0 1.00011 4.78104e-05
457 21.7271 8.43194 0.266215 0 0 1.00011 5.04508e-05
459 22.6954 8.27408 1.02202 0 0 1.00011 4.64867e-05
1218 22.5296 7.59224 1.76341 0 0 1.00011 4.51534e-05
378 22.4445 7.56795 0.39 0 0 1.00011 4.29742e-05
384 23.5439 7.41144 1.06042 0 0 1.00011 3.87608e-05
461 23.5839 8.16849 0.38512 0 0 1.00011 4.13284e-05
463 24.4358 8.18996 1.00383 0 0 1.00011 3.81381e-05
1302 24.3478 8.82705 1.69777 0 0 1.00011 4.22017e-05
382 24.4247 7.40689 0.275384 0 0 1.00011 3.46541e-05
388 25.2022 7.47682 1.25647 0 0 1.00011 3.23807e-05
467 26.1005 8.08689 0.994247 0 0 1.00011 2.98651e-05
1306 26.099 8.71677 1.76114 0 0 1.00011 3.23655e-05
386 26.1652 7.34707 0.372727 0 0 1.00011 2.73821e-05
465 25.3109 8.21125 0.313532 0 0 1.00011 3.35735e-05
466 26.3466 8.66521 0.094411 0 0 1.00011 2.95071e-05
392 26.8581 7.18145 1.344 0 0 1.00011 2.46774e-05
470 28.03 8.56466 0.42857 0 0 1.00011 2.12479e-05
471 27.866 7.89677 1.2163 0 0 1.00011 2.15566e-05
472 27.0493 8.73062 1.02911 0 0 1.00011 2.65286e-05
469 27.0685 7.85093 0.436828 0 0 1.00011 2.46468e-05
396 28.7128 7.15807 1.23215 0 0 1.00011 1.70989e-05
474 29.6548 8.39446 0.545559 0 0 1.00011 1.40284e-05
475 29.5589 7.71622 1.27919 0 0 1.00011 1.43329e-05
476 28.8415 8.60877 1.18843 0 0 1.00011 1.78154e-05
473 28.759 7.7678 0.418331 0 0 1.00011 1.72943e-05
400 30.3831 7.11541 1.18142 0 0 1.00011 1.09697e-05
479 31.3074 7.83437 1.30175 0 0 1.00011 7.95263e-06
480 30.4889 8.51629 1.18647 0 0 1.00011 1.07898e-05
477 30.6944 7.89314 0.382544 0 0 1.00011 9.92513e-06
478 31.4825 8.62992 0.392286 0 0 1.00011 6.98093e-06
482 1.17528 10.2656 0.273064 0 0 1.00011 7.83215e-06
483 1.07272 9.36055 1.20451 0 0 1.00011 7.81472e-06
484 0.309196 9.92925 0.899421 0 0 1.00011 4.40638e-06
481 0.424157 9.33375 0.123777 0 0 1.00011 5.23799e-06
1322 0.866551 10.1144 1.7523 0 0 1.00012 6.74913e-06
485 1.81368 9.42116 0.450697 0 0 1.00011 1.09056e-05
488 1.88109 10.339 0.969432 0 0 1.00011 1.11391e-05
486 2.64884 10.2319 0.0825527 0 0 1.00011 1.48286e-05
487 2.43441 9.40764 1.22079 0 0 1.00011 1.3896e-05
1326 2.82931 10.1848 1.6647 0 0 1.00011 1.62709e-05
1329 3.2691 9.18714 1.65531 0 0 1.00011 1.81234e-05
489 3.13572 9.32089 0.0822998 0 0 1.00011 1.69509e-05
492 3.44056 9.98011 0.733404 0 0 1.00011 1.88949e-05
491 4.00034 9.05089 0.854798 0 0 1.00011 2.11702e-05
493 4.64635 9.1185 0.00541076 0 0 1.00011 2.42592e-05
496 4.67252 9.90707 0.569059 0 0 1.00011 2.55141e-05
1330 4.18798 9.90094 1.61069 0 0 1.00011 2.36065e-05
1333 4.74708 8.9957 1.64474 0 0 1.00011 2.56715e-05
495 5.40657 8.87436 0.657492 0 0 1.00011 2.80096e-05
500 6.31928 9.70751 0.513809 0 0 1.00011 3.46498e-05
1334 5.39196 9.75071 1.16402 0 0 1.00011 2.98839e-05
1337 6.23705 8.97288 1.25565 0 0 1.00011 3.32486e-05
1417 6.31522 10.4172 1.1848 0 0 1.00011 3.66808e-05
499 7.25666 8.79315 0.711377 0 0 1.00011 3.75053e-05
501 8.19535 8.95656 0.0809385 0 0 1.00011 4.26932e-05
504 8.05696 9.82855 0.57358 0 0 1.00011 4.52599e-05
1338 7.26444 9.64171 1.18995 0 0 1.00011 4.08687e-05
1341 8.145 9.0694 1.39394 0 0 1.00011 4.43707e-05
1421 7.74189 10.5276 1.3554 0 0 1.00011 4.67966e-05
503 9.04521 9.35672 0.723968 0 0 1.00011 4.92651e-05
508 9.75037 10.2323 0.659056 0 0 1.00011 5.70367e-05
1342 8.85264 10.1494 1.40242 0 0 1.00011 5.28918e-05
1345 9.9447 9.48628 1.40941 0 0 1.00011 5.63587e-05
426 10.524 8.79972 0.0349827 0 0 1.00011 5.29514e-05
507 10.5834 9.59178 0.655872 0 0 1.00011 5.82972e-05
1346 10.7547 10.0728 1.62741 0 0 1.00011 6.50111e-05
1349 11.4423 9.54565 1.31684 0 0 1.00011 6.38916e-05
512 11.3286 10.4972 0.719881 0 0 1.00011 6.72528e-05
436 13.1358 8.90664 0.785532 0 0 1.00011 6.33493e-05
511 12.2352 9.73935 0.687779 0 0 1.00011 6.66767e-05
516 12.9528 10.4118 0.956046 0 0 1.00011 7.48094e-05
1353 12.6952 9.54912 1.6099 0 0 1.00011 7.04041e-05
1350 12.11 10.5035 1.59487 0 0 1.00011 7.48461e-05
1274 13.8374 8.81188 1.56882 0 0 1.00011 6.69056e-05
440 14.6111 9.16873 0.763229 0 0 1.00011 6.82929e-05
515 13.6764 9.64439 0.838735 0 0 1.00011 7.07164e-05
1354 13.645 10.362 1.70302 0 0 1.00011 8.0779e-05
517 14.4116 10.1142 0.218296 0 0 1.00011 7.51851e-05
444 16.0517 9.16457 1.13745 0 0 1.00011 7.04267e-05
1278 15.2152 9.05343 1.76173 0 0 1.00011 7.21748e-05
519 15.2815 9.85169 1.01453 0 0 1.00011 7.58446e-05
521 15.8333 10.1794 0.250634 0 0 1.00011 7.72076e-05
523 16.6537 9.98202 0.967361 0 0 1.00011 7.69249e-05
442 16.654 9.05883 0.264936 0 0 1.00011 6.72174e-05
438 15.4396 9.19686 0.107274 0 0 1.00011 6.83041e-05
448 17.2464 9.10084 1.13161 0 0 1.00011 6.9113e-05
525 17.3012 10.0628 0.207033 0 0 1.00011 7.52225e-05
527 17.9228 9.92114 1.07902 0 0 1.00011 7.4857e-05
446 17.91 9.15634 0.122007 0 0 1.00011 6.65868e-05
452 18.4469 8.96075 0.951184 0 0 1.00011 6.54838e-05
456 19.9603 9.04707 1.06865 0 0 1.00011 6.23071e-05
529 18.738 9.8049 0.306313 0 0 1.00011 7.01754e-05
531 19.6394 9.98752 0.866316 0 0 1.00011 6.95898e-05
532 18.8593 10.5385 1.15742 0 0 1.00011 7.76194e-05
1369 18.8036 9.66652 1.72255 0 0 1.00011 7.3848e-05
450 19.3786 9.03755 0.215877 0 0 1.00011 6.25596e-05
533 20.1242 9.88001 0.0745929 0 0 1.00011 6.57335e-05
535 21.0563 9.91824 0.768828 0 0 1.00011 6.2601e-05
1373 20.3799 9.77336 1.68798 0 0 1.00011 6.83662e-05
454 20.9145 9.17401 0.209348 0 0 1.00011 5.80581e-05
460 21.7487 9.1425 0.988726 0 0 1.00011 5.54253e-05
1298 22.517 9.00438 1.60784 0 0 1.00011 5.26559e-05
539 22.935 9.8118 0.818742 0 0 1.00011 5.21169e-05
1377 22.0436 9.91369 1.56065 0 0 1.00011 5.97521e-05