ITEM: TIMESTEP
7000
ITEM: NUMBER OF ATOMS
32000
ITEM: BOX BOUNDS pp pp pp
0.0000000000000000e+00 3.1748021039364001e+01
0.0000000000000000e+00 3.1748021039364001e+01
0.0000000000000000e+00 3.1748021039364001e+01
ITEM: ATOMS id x y z c_phase c_nbond c_rho v_omega
4 0.148015 1.11111 0.465817 0 0 1.00019 4.8086e-07
83 1.01395 1.66348 0.778746 0 0 1.00019 2.41708e-06
842 0.741552 0.793055 1.41149 0 0 1.00019 1.03114e-06
921 0.0437215 1.61343 1.37596 0 0 1.00019 8.46884e-07
3 0.744869 0.0638743 0.616503 0 0 1.00019 1.92731e-07
8 1.73795 0.796057 1.01422 0 0 1.00019 2.37709e-06
85 1.84054 1.46012 0.219275 0 0 1.00019 3.46278e-06
925 1.86557 1.6419 1.75805 0 0 1.00019 3.80792e-06
6 2.54749 0.721445 0.203165 0 0 1.00019 3.35622e-06
7 2.60532 0.0269624 1.03595 0 0 1.00019 2.33402e-06
87 2.68908 1.51138 0.880189 0 0 1.00019 4.82662e-06
846 2.69906 0.787415 1.74215 0 0 1.00019 3.68555e-06
12 3.46326 0.892746 0.956857 0 0 1.00019 4.82089e-06
849 3.51308 0.0512139 1.70458 0 0 1.00019 3.35055e-06
929 3.65186 1.6628 1.7166 0 0 1.00019 6.60944e-06
10 4.13882 0.811114 0.322376 0 0 1.00019 5.38259e-06
16 4.9921 0.510802 1.16742 0 0 1.00019 5.57065e-06
93 4.96584 1.54255 0.383059 0 0 1.00019 7.95884e-06
850 4.37478 0.891548 1.62919 0 0 1.00019 5.95005e-06
9 3.49151 0.0706642 0.171331 0 0 1.00019 3.29951e-06
14 5.67622 0.583255 0.3216 0 0 1.00019 6.21488e-06
95 5.92748 1.24792 0.940308 0 0 1.00019 8.20988e-06
97 6.62216 1.32567 0.217593 0 0 1.00019 8.87045e-06
854 5.8107 0.396115 1.69723 0 0 1.00019 5.90939e-06
933 5.07763 1.66077 1.43426 0 0 1.00019 8.58909e-06
20 6.73781 0.326556 0.866243 0 0 1.00019 6.01831e-06
937 6.72999 0.941281 1.69243 0 0 1.00019 7.96633e-06
24 8.29027 0.339815 1.0683 0 0 1.00019 6.24114e-06
99 7.41264 1.15376 0.950972 0 0 1.00019 8.85202e-06
101 8.29722 1.31965 0.235259 0 0 1.00019 9.69879e-06
941 8.17869 1.19912 1.60749 0 0 1.00019 9.53713e-06
18 7.61391 0.583188 0.143954 0 0 1.00019 6.9831e-06
22 8.88543 0.439979 0.268453 0 0 1.00019 6.43493e-06
28 9.57839 0.270671 0.890032 0 0 1.00019 5.53385e-06
103 9.07351 1.23835 1.10593 0 0 1.00019 9.57651e-06
945 9.6237 0.905622 1.76237 0 0 1.00019 8.2742e-06
105 9.69199 1.3047 0.092382 0 0 1.00019 9.71496e-06
32 11.2304 0.162563 0.63457 0 0 1.00019 4.17435e-06
107 10.4107 0.988104 0.823742 0 0 1.00019 8.24904e-06
866 10.5406 0.136864 1.44542 0 0 1.00019 4.49622e-06
949 11.3362 0.962355 1.41719 0 0 1.00019 7.91106e-06
946 10.6466 1.61685 1.72637 0 0 1.00019 1.14143e-05
26 10.2683 0.305393 0.0769103 0 0 1.00019 5.33102e-06
36 12.8973 0.179659 0.637213 0 0 1.00019 3.22417e-06
111 12.0924 1.03027 0.509055 0 0 1.00019 7.77341e-06
870 12.1547 0.272318 1.30031 0 0 1.00019 4.11771e-06
953 12.7763 1.15971 1.3732 0 0 1.00019 8.30652e-06
40 14.398 0.310188 0.768474 0 0 1.00019 3.21546e-06
115 13.644 1.08906 0.843871 0 0 1.00019 7.49702e-06
117 14.1131 1.54171 0.163163 0 0 1.00019 9.86867e-06
874 13.635 0.33684 1.63485 0 0 1.00019 3.6131e-06
957 14.4341 1.14124 1.47838 0 0 1.00019 7.58703e-06
119 14.9484 1.5519 0.664363 0 0 1.00019 9.74753e-06
44 15.7491 0.780468 0.788658 0 0 1.00019 5.54187e-06
123 16.6204 1.57174 0.683649 0 0 1.00019 1.01012e-05
878 15.1728 0.466909 1.64126 0 0 1.00019 3.84866e-06
882 16.5856 0.738249 1.34378 0 0 1.00019 5.46241e-06
961 15.7012 1.50027 1.39408 0 0 1.00019 9.70066e-06
38 15.1423 0.71209 0.06805 0 0 1.00019 5.03937e-06
48 17.2966 0.769591 0.552171 0 0 1.00019 5.84603e-06
127 17.9933 1.63355 0.757272 0 0 1.00019 1.10218e-05
886 17.9559 0.794768 1.42789 0 0 1.00019 6.40287e-06
51 19.5489 0.0841844 0.665683 0 0 1.00019 4.06744e-06
52 18.8287 0.789039 0.687634 0 0 1.00019 6.83246e-06
131 19.6047 1.62861 0.84358 0 0 1.00019 1.18832e-05
889 19.0417 0.222744 1.54698 0 0 1.00019 4.1322e-06
890 19.6401 1.04315 1.6935 0 0 1.00019 8.95976e-06
969 18.7283 1.57393 1.50171 0 0 1.00019 1.12166e-05
55 21.1224 0.436734 1.07001 0 0 1.00019 6.89353e-06
56 20.2852 0.857554 0.978017 0 0 1.00019 8.30088e-06
135 21.1667 1.74056 0.958814 0 0 1.00019 1.32283e-05
54 21.2209 0.854263 0.218485 0 0 1.00019 8.96013e-06
133 20.4069 1.596 0.19927 0 0 1.00019 1.21192e-05
57 22.0317 0.359379 0.540589 0 0 1.00019 7.32719e-06
59 22.8213 0.52653 1.40607 0 0 1.00019 8.4627e-06
60 22.1586 1.24807 1.33253 0 0 1.00019 1.13468e-05
137 22.0556 1.69819 0.534077 0 0 1.00019 1.32687e-05
58 22.9557 1.16303 0.454464 0 0 1.00019 1.0968e-05
63 24.2613 0.477791 1.44121 0 0 1.00019 8.6481e-06
61 23.5913 0.450407 0.576989 0 0 1.00019 8.37423e-06
62 24.477 1.27825 0.754822 0 0 1.00019 1.13727e-05
64 23.5265 1.34552 1.4015 0 0 1.00019 1.18865e-05
65 24.9782 0.408526 0.55084 0 0 1.00019 8.42426e-06
67 26.0278 0.468079 1.17221 0 0 1.00019 8.27863e-06
68 25.2067 1.22135 1.47675 0 0 1.00019 1.10334e-05
66 25.9251 1.02106 0.43123 0 0 1.00019 9.93233e-06
70 27.6117 1.35342 0.389193 0 0 1.00019 9.28073e-06
71 27.6363 0.578627 0.875181 0 0 1.00019 7.48387e-06
72 26.7877 1.11047 1.26212 0 0 1.00019 9.50524e-06
913 28.3977 0.402164 1.40375 0 0 1.00019 6.43802e-06
69 26.8098 0.319769 0.230171 0 0 1.00019 7.51662e-06
76 28.6845 1.29764 0.740339 0 0 1.00019 7.8198e-06
914 29.4167 0.999069 1.56945 0 0 1.00019 6.39754e-06
917 29.8319 0.213456 1.4606 0 0 1.00019 4.57045e-06
75 29.2929 0.403656 0.616452 0 0 1.00019 5.47737e-06
841 31.6056 0.280402 1.25653 0 0 1.00019 2.55018e-06
79 30.7256 0.51509 0.473006 0 0 1.00019 3.97582e-06
80 30.132 1.23609 0.774546 0 0 1.00019 5.78655e-06
918 30.8932 0.997639 1.39351 0 0 1.00019 4.39639e-06
82 1.16269 2.42924 0.127291 0 0 1.00019 3.56907e-06
84 0.184629 2.3916 0.81136 0 0 1.00019 1.81996e-06
163 1.35037 3.22396 0.947353 0 0 1.00019 4.85753e-06
922 1.19104 2.35427 1.59042 0 0 1.00019 3.60123e-06
1001 0.44601 3.0375 1.54933 0 0 1.00019 2.87618e-06
161 0.392507 3.10397 0.131509 0 0 1.00019 2.77529e-06
88 1.96378 2.39787 0.78367 0 0 1.00019 4.96962e-06
167 2.72427 3.24654 0.858881 0 0 1.00019 7.74056e-06
926 2.72309 2.20028 1.53476 0 0 1.00019 6.10701e-06
1009 3.33185 3.3785 1.64884 0 0 1.00019 9.45265e-06
86 2.77928 2.35081 0.0549014 0 0 1.00019 6.35454e-06
1005 2.17431 3.07282 1.76248 0 0 1.00019 6.43127e-06
92 3.4411 2.51377 0.779902 0 0 1.00019 7.86396e-06
91 4.0566 1.79181 0.710954 0 0 1.00019 7.40681e-06
96 4.97637 2.51092 0.815642 0 0 1.00019 1.04928e-05
171 4.27486 3.26237 0.749442 0 0 1.00019 1.09226e-05
930 4.19987 2.5882 1.58044 0 0 1.00019 9.4735e-06
94 5.71679 2.37897 0.13417 0 0 1.00019 1.1174e-05
100 6.62349 2.1115 0.774563 0 0 1.00019 1.14531e-05
175 5.73133 3.12628 0.95306 0 0 1.00019 1.34636e-05
934 5.92357 2.13001 1.49352 0 0 1.00019 1.08894e-05
1017 6.61055 2.98898 1.5505 0 0 1.00019 1.46523e-05
177 6.72851 2.8579 0.131186 0 0 1.00019 1.39389e-05
98 7.52282 2.15313 0.138155 0 0 1.00019 1.23976e-05
104 8.15836 2.12654 0.931147 0 0 1.00019 1.29013e-05
179 7.49091 2.98581 0.92729 0 0 1.00019 1.5624e-05
938 7.3666 1.9866 1.56695 0 0 1.00019 1.19416e-05
1021 8.28209 2.91755 1.64797 0 0 1.00019 1.66097e-05
181 8.3628 2.89182 0.0389326 0 0 1.00019 1.60119e-05
102 8.97909 2.01849 0.250781 0 0 1.00019 1.27028e-05
108 9.84923 1.95381 1.10399 0 0 1.00019 1.27806e-05
183 9.02263 2.89315 0.928292 0 0 1.00019 1.68944e-05
942 9.1096 2.14525 1.70475 0 0 1.00019 1.38198e-05
185 9.66185 2.8328 0.209066 0 0 1.00019 1.67647e-05
188 10.0148 3.50383 0.88557 0 0 1.00019 2.0586e-05
106 10.3628 2.04773 0.209363 0 0 1.00019 1.31668e-05
112 11.2331 1.77321 0.771564 0 0 1.00019 1.18749e-05
187 10.7239 2.7397 0.919535 0 0 1.00019 1.68921e-05
1029 11.5519 2.77313 1.57971 0 0 1.00019 1.77586e-05
1026 10.8339 3.50073 1.59021 0 0 1.00019 2.16403e-05
116 12.7561 1.90386 0.596127 0 0 1.00019 1.22254e-05
191 12.0321 2.59497 0.739901 0 0 1.00019 1.63628e-05
950 12.0071 1.87046 1.46605 0 0 1.00019 1.2407e-05
1033 12.9703 2.9773 1.6916 0 0 1.00019 1.9301e-05
195 13.3127 2.99157 0.842479 0 0 1.00019 1.86651e-05
954 13.4687 1.96425 1.48008 0 0 1.00019 1.26682e-05
120 14.1246 2.42762 0.924238 0 0 1.00019 1.52268e-05
1037 14.1705 3.36504 1.55619 0 0 1.00019 2.1935e-05
199 14.8397 3.42864 0.8795 0 0 1.00019 2.19233e-05
958 14.8918 2.29808 1.44364 0 0 1.00019 1.46383e-05
118 14.9477 2.50866 0.137525 0 0 1.00019 1.56578e-05
197 14.2843 3.20528 0.0381939 0 0 1.00019 1.9986e-05
114 13.5088 2.26961 0.0572803 0 0 1.00019 1.41532e-05
124 15.8011 2.45358 0.697564 0 0 1.00019 1.54062e-05
203 16.4387 3.22508 0.670659 0 0 1.00019 2.0629e-05
962 16.4183 2.50367 1.52645 0 0 1.00019 1.62287e-05
1041 15.5164 3.26411 1.50397 0 0 1.00019 2.12665e-05
201 15.7022 3.26835 0.0237687 0 0 1.00019 2.07728e-05
965 17.2987 1.78832 1.56472 0 0 1.00019 1.19053e-05
128 17.1666 2.3915 0.683943 0 0 1.00019 1.53215e-05
207 18.0617 2.98432 0.704973 0 0 1.00019 1.93995e-05
966 18.1216 2.49385 1.58755 0 0 1.00019 1.66852e-05
1045 17.2216 3.15652 1.49953 0 0 1.00019 2.07984e-05
132 18.9871 2.42926 1.01491 0 0 1.00019 1.62713e-05
211 19.8192 3.32486 1.27967 0 0 1.00019 2.24204e-05
209 18.9971 3.06972 0.194463 0 0 1.00019 2.01745e-05
130 19.6818 2.41323 0.105694 0 0 1.00019 1.63558e-05
973 20.3974 1.8713 1.73128 0 0 1.00019 1.39253e-05
134 21.249 2.51273 0.458559 0 0 1.00019 1.7221e-05
136 20.2918 2.5506 1.11255 0 0 1.00019 1.75566e-05
215 21.4249 3.40332 1.39191 0 0 1.00019 2.24532e-05
213 20.5256 3.09051 0.333611 0 0 1.00019 2.04733e-05
139 22.9476 2.16733 1.51555 0 0 1.00019 1.56187e-05
138 23.0515 2.70906 0.735948 0 0 1.00019 1.77777e-05
140 22.1738 2.60126 1.24072 0 0 1.00019 1.78587e-05
217 22.0872 3.30773 0.604981 0 0 1.00019 2.14472e-05
16179 22.7893 3.50866 0.0676204 0 0 1.00019 2.17967e-05
141 23.798 1.91058 0.62487 0 0 1.00019 1.39421e-05
143 24.4873 2.08897 1.60532 0 0 1.00019 1.4611e-05
142 24.4186 2.78648 0.776967 0 0 1.00019 1.71753e-05
144 23.7723 3.00753 1.53873 0 0 1.00019 1.90012e-05
16108 25.0313 2.93909 0.0166772 0 0 1.00019 1.70298e-05
147 25.9806 1.82814 1.35754 0 0 1.00019 1.23706e-05
149 26.598 1.87778 0.513127 0 0 1.00019 1.1753e-05
145 25.1873 1.95062 0.515622 0 0 1.00019 1.33748e-05
146 25.8611 2.7054 0.707258 0 0 1.00019 1.51933e-05
148 25.2321 2.66187 1.52484 0 0 1.00019 1.59675e-05
152 26.5986 2.65338 1.53116 0 0 1.00019 1.41316e-05
151 27.5525 2.06111 1.23644 0 0 1.00019 1.10371e-05
153 28.3002 2.15611 0.345588 0 0 1.00019 1.01397e-05
150 27.151 2.77431 0.64334 0 0 1.00019 1.34144e-05
231 27.279 3.43952 1.41712 0 0 1.00019 1.50813e-05
156 28.3134 2.82516 1.20441 0 0 1.00019 1.15976e-05
233 28.0512 3.29464 0.332548 0 0 1.00019 1.30955e-05
993 28.5648 1.78417 1.50127 0 0 1.00019 9.04042e-06
997 30.0019 1.84998 1.7075 0 0 1.00019 7.0196e-06
155 29.4924 2.09037 0.882279 0 0 1.00019 8.10039e-06
154 29.2508 2.71815 0.290025 0 0 1.00019 9.64422e-06
235 29.3168 3.31689 1.17851 0 0 1.00019 1.05908e-05
159 30.9558 2.0085 0.924416 0 0 1.00019 5.63811e-06
160 30.2373 2.74889 1.00229 0 0 1.00019 7.83451e-06
239 31.089 3.37228 0.973638 0 0 1.00019 7.05227e-06
998 31.0415 2.71927 1.72707 0 0 1.00019 6.40246e-06
237 30.1771 3.29307 0.139952 0 0 1.00019 8.79463e-06
157 30.4538 1.94092 0.0287221 0 0 1.00019 6.38213e-06
158 31.1972 2.68392 0.0769454 0 0 1.00019 6.08458e-06
164 0.364049 3.7895 0.91937 0 0 1.00019 3.25348e-06
241 0.220951 4.60623 0.479612 0 0 1.00019 3.42629e-06
243 1.21768 4.65755 0.986681 0 0 1.00019 5.93622e-06
244 0.175306 5.27628 1.27703 0 0 1.00019 3.65945e-06
162 1.11283 3.85387 0.0637082 0 0 1.00019 4.87787e-06
168 1.92004 4.02187 0.847287 0 0 1.00019 6.95665e-06
247 2.62563 4.81844 1.13178 0 0 1.00019 9.79869e-06
166 2.72865 4.10797 0.204547 0 0 1.00019 9.01184e-06
245 1.98217 4.93915 0.279588 0 0 1.00019 8.05929e-06
249 3.49967 4.80846 0.16181 0 0 1.00019 1.20926e-05
172 3.57323 4.02699 0.88483 0 0 1.00019 1.09338e-05
176 5.00281 3.935 1.1749 0 0 1.00019 1.42729e-05
251 4.14704 4.8168 1.14684 0 0 1.00019 1.41172e-05
170 4.34477 4.12192 0.145956 0 0 1.00019 1.29318e-05
253 5.10938 4.66824 0.335425 0 0 1.00019 1.6195e-05
174 5.86463 3.86354 0.192118 0 0 1.00019 1.58192e-05
180 6.59387 3.68957 0.775534 0 0 1.00019 1.66905e-05
255 5.79493 4.64954 1.02673 0 0 1.00019 1.81647e-05
1097 6.77851 4.42473 1.64434 0 0 1.00019 2.0179e-05
260 6.79651 5.04327 0.877146 0 0 1.00019 2.1874e-05
184 8.31417 3.80148 0.702495 0 0 1.00019 2.00718e-05
259 7.52475 4.37182 0.548996 0 0 1.00019 2.1015e-05
1018 7.51017 3.78288 1.49792 0 0 1.00019 1.90826e-05
1101 8.33384 4.51462 1.48352 0 0 1.00019 2.38118e-05
264 8.35185 5.21695 0.695331 0 0 1.00019 2.64718e-05
258 7.45955 5.26096 0.0399059 0 0 1.00019 2.43007e-05
263 9.21228 4.47698 0.819143 0 0 1.00019 2.47178e-05
265 9.99856 4.42693 0.126253 0 0 1.00019 2.53015e-05
1022 9.19376 3.68047 1.49901 0 0 1.00019 2.12954e-05
1105 10.015 4.26346 1.6565 0 0 1.00019 2.54561e-05
182 9.10449 3.78425 0.0595831 0 0 1.00019 2.08993e-05
268 9.9268 5.23063 0.793198 0 0 1.00019 2.99479e-05
1102 9.20549 5.22809 1.59121 0 0 1.00019 2.94025e-05
192 11.5378 3.5814 0.787319 0 0 1.00019 2.20273e-05
267 10.7395 4.57902 0.904447 0 0 1.00019 2.74561e-05
269 11.5397 4.62585 0.22371 0 0 1.00019 2.80416e-05
1109 11.5197 4.31142 1.70161 0 0 1.00019 2.75451e-05
272 11.5639 5.20148 0.994234 0 0 1.00019 3.24653e-05
186 10.717 3.77346 0.172957 0 0 1.00019 2.2419e-05
196 12.6419 3.5426 0.813656 0 0 1.00019 2.22239e-05
271 12.3496 4.49446 0.999637 0 0 1.00019 2.8596e-05
1113 12.9367 4.93575 1.68928 0 0 1.00019 3.29721e-05
275 13.3964 4.65228 0.798203 0 0 1.00019 2.99886e-05
273 12.7973 4.56831 0.0592444 0 0 1.00019 2.88114e-05
200 14.1519 4.10322 0.696935 0 0 1.00019 2.62559e-05
1034 13.6527 4.18595 1.59383 0 0 1.00019 2.77321e-05
1117 14.393 5.09082 1.52483 0 0 1.00019 3.48973e-05
277 14.3183 4.87627 0.0690793 0 0 1.00019 3.16559e-05
279 15.1305 5.01109 0.812878 0 0 1.00019 3.34885e-05
198 15.1202 4.18685 0.102169 0 0 1.00019 2.69557e-05
1038 15.1474 4.40868 1.59567 0 0 1.00019 2.98105e-05
204 15.8271 4.07825 0.92283 0 0 1.00019 2.67745e-05
281 16.0501 4.78944 0.186769 0 0 1.00019 3.16162e-05
1042 16.4857 3.98878 1.68931 0 0 1.00019 2.7141e-05
1121 16.0111 5.06245 1.64542 0 0 1.00019 3.54598e-05
283 16.767 4.61799 0.903636 0 0 1.00019 3.08455e-05
208 17.4204 3.87793 0.812078 0 0 1.00019 2.54187e-05
287 18.2488 4.55355 1.09923 0 0 1.00019 3.07329e-05
1046 18.0979 3.70158 1.65832 0 0 1.00019 2.50367e-05
285 17.615 4.62985 0.020257 0 0 1.00019 3.06943e-05
206 18.281 3.91341 0.0656724 0 0 1.00019 2.55618e-05
212 19.0092 3.78426 0.95665 0 0 1.00019 2.50765e-05
289 18.985 4.68958 0.362507 0 0 1.00019 3.1163e-05
291 19.8415 4.76757 1.09882 0 0 1.00019 3.18223e-05
210 19.7301 3.85136 0.235796 0 0 1.00019 2.52184e-05
216 20.5678 3.92163 1.23763 0 0 1.00019 2.58192e-05
295 21.0326 4.83045 1.39541 0 0 1.00019 3.16832e-05
297 21.734 5.07193 0.80622 0 0 1.00019 3.18663e-05
214 21.217 4.03981 0.515712 0 0 1.00019 2.59316e-05
293 20.2982 4.88538 0.348921 0 0 1.00019 3.17873e-05
219 22.9343 3.74067 1.42024 0 0 1.00019 2.32897e-05
220 22.0662 4.24802 1.3142 0 0 1.00019 2.69214e-05
299 22.6205 5.29715 1.282 0 0 1.00019 3.22135e-05
218 22.743 4.4625 0.522889 0 0 1.00019 2.68203e-05
223 24.5688 3.6254 1.5604 0 0 1.00019 2.07124e-05
221 23.6774 3.74699 0.781999 0 0 1.00019 2.21323e-05
222 24.4449 4.44052 0.629115 0 0 1.00019 2.39721e-05
224 23.5904 4.66757 1.33933 0 0 1.00019 2.70394e-05
301 23.6774 5.19166 0.535754 0 0 1.00019 2.88359e-05
228 25.1219 4.61047 1.61956 0 0 1.00019 2.36958e-05
227 25.8069 3.60032 1.51767 0 0 1.00019 1.84725e-05
229 26.2551 3.59812 0.598516 0 0 1.00019 1.73854e-05
225 25.1556 3.77683 0.797858 0 0 1.00019 1.99917e-05
307 25.807 5.2554 1.34892 0 0 1.00019 2.41755e-05
232 26.4546 4.39047 1.37509 0 0 1.00019 1.95989e-05
309 26.6067 5.07555 0.644189 0 0 1.00019 2.1067e-05
226 25.6335 4.50997 0.397365 0 0 1.00019 2.16356e-05
311 27.4277 4.96246 1.40672 0 0 1.00019 1.87004e-05
236 28.0426 4.05158 1.10728 0 0 1.00019 1.491e-05
313 28.3653 4.81191 0.706606 0 0 1.00019 1.54728e-05
230 27.1522 4.12926 0.577168 0 0 1.00019 1.71117e-05
234 29.0052 3.8329 0.484288 0 0 1.00019 1.2121e-05
315 29.1691 4.58351 1.32937 0 0 1.00019 1.30802e-05
240 30.0707 4.10854 1.02761 0 0 1.00019 1.00842e-05
238 31.1008 4.00221 0.369255 0 0 1.00019 7.60374e-06
317 30.2866 4.72368 0.485944 0 0 1.00019 1.01708e-05
319 31.0578 4.62836 1.4054 0 0 1.00019 8.27587e-06
242 0.998111 5.52154 0.461705 0 0 1.00019 5.8117e-06
248 1.6237 5.48946 1.37738 0 0 1.00019 7.72684e-06
323 0.890197 6.20696 1.2767 0 0 1.00019 5.84829e-06
324 0.351346 6.926 1.50459 0 0 1.00019 4.31912e-06
322 1.06874 6.92973 0.571182 0 0 1.00019 6.46456e-06
321 0.0698767 6.00922 0.448049 0 0 1.00019 3.429e-06
328 1.80592 6.99635 1.23979 0 0 1.00019 9.11737e-06
325 1.98833 6.16852 0.514321 0 0 1.00019 9.17815e-06
252 3.20963 5.56919 1.29636 0 0 1.00019 1.26582e-05
327 2.36759 6.11659 1.40933 0 0 1.00019 1.06052e-05
332 3.36128 6.90107 1.13248 0 0 1.00019 1.47135e-05
246 2.77788 5.56458 0.272772 0 0 1.00019 1.10311e-05
329 3.50271 6.21646 0.494196 0 0 1.00019 1.42536e-05
250 4.29552 5.395 0.323687 0 0 1.00019 1.54625e-05
331 4.24208 6.02023 1.22688 0 0 1.00019 1.6766e-05
333 4.94445 6.15168 0.328986 0 0 1.00019 1.92133e-05
336 4.8973 6.71669 1.15866 0 0 1.00019 2.05527e-05
330 4.11579 6.94304 0.223036 0 0 1.00019 1.75326e-05
256 5.0474 5.35123 1.30838 0 0 1.00019 1.79985e-05
254 5.89432 5.32797 0.296451 0 0 1.00019 2.01296e-05
335 5.81357 6.14087 0.959421 0 0 1.00019 2.25329e-05
1177 6.59769 5.88316 1.59644 0 0 1.00019 2.48257e-05
340 6.57686 6.75946 0.995983 0 0 1.00019 2.72533e-05
337 6.51792 5.95534 0.149018 0 0 1.00019 2.39501e-05
334 5.67844 6.94833 0.147206 0 0 1.00019 2.37957e-05
339 7.46616 6.04719 0.753997 0 0 1.00019 2.75653e-05
1098 7.53206 5.3117 1.49319 0 0 1.00019 2.54174e-05
344 8.17817 6.73758 0.723704 0 0 1.00019 3.27764e-05
1178 7.43723 6.73763 1.59602 0 0 1.00019 3.10862e-05
1181 8.39185 6.00054 1.49408 0 0 1.00019 3.09718e-05
343 9.04665 6.07996 0.735833 0 0 1.00019 3.24154e-05
1185 9.91751 6.07856 1.47164 0 0 1.00019 3.56659e-05
1182 9.26699 6.83433 1.46112 0 0 1.00019 3.79204e-05
345 9.93141 6.13488 0.0929956 0 0 1.00019 3.46444e-05
262 9.15128 5.37301 0.0178158 0 0 1.00019 2.89076e-05
347 10.7697 5.92957 0.955363 0 0 1.00019 3.57573e-05
349 11.5048 6.28294 0.0728157 0 0 1.00019 3.88535e-05
346 10.7136 6.84528 0.145884 0 0 1.00019 4.0766e-05
1186 10.6675 6.82116 1.49416 0 0 1.00019 4.22592e-05
270 12.1799 5.55393 0.182272 0 0 1.00019 3.50992e-05
276 12.8713 5.75423 0.861708 0 0 1.00019 3.77211e-05
351 11.9718 6.13459 1.05182 0 0 1.00019 3.95125e-05
274 13.5072 5.4974 0.0406479 0 0 1.00019 3.59004e-05
1114 13.5368 5.82036 1.56468 0 0 1.00019 3.99759e-05
355 13.5698 6.52558 0.806151 0 0 1.00019 4.40912e-05
280 14.2655 5.69211 0.774623 0 0 1.00019 3.84237e-05
1197 14.5498 6.62242 1.41556 0 0 1.00019 4.75039e-05
357 14.3442 6.35845 0.0379836 0 0 1.00019 4.31853e-05
278 15.2168 5.63317 0.0377834 0 0 1.00019 3.7932e-05
284 16.0375 5.75328 0.952397 0 0 1.00019 3.98653e-05
359 15.2648 6.44858 0.80611 0 0 1.00019 4.51025e-05
363 16.7104 6.49049 1.14821 0 0 1.00019 4.63146e-05
1118 15.3283 5.86961 1.69895 0 0 1.00019 4.21152e-05
361 15.8934 6.35453 0.0429621 0 0 1.00019 4.39661e-05
282 16.8127 5.45676 0.274417 0 0 1.00019 3.68676e-05
286 18.0168 5.37359 0.53987 0 0 1.00019 3.65273e-05
288 17.3067 5.47479 1.2493 0 0 1.00019 3.821e-05
365 17.2813 6.32691 0.409597 0 0 1.00019 4.4202e-05
367 17.8775 6.31476 1.38204 0 0 1.00019 4.53387e-05
292 18.9621 5.36132 1.2033 0 0 1.00019 3.67991e-05
369 18.5787 6.31146 0.617034 0 0 1.00019 4.36495e-05
290 19.6184 5.85295 0.623857 0 0 1.00019 3.94372e-05
371 19.5276 6.66408 1.34949 0 0 1.00019 4.67641e-05
373 20.1915 6.86291 0.613246 0 0 1.00019 4.62099e-05
294 20.9284 5.89038 0.652912 0 0 1.00019 3.81211e-05
296 20.3639 5.7213 1.39894 0 0 1.00019 3.85965e-05
375 20.9659 6.7403 1.30921 0 0 1.00019 4.48177e-05
377 21.8302 6.80082 0.674567 0 0 1.00019 4.23229e-05
300 21.8257 6.00499 1.38234 0 0 1.00019 3.81866e-05
16260 21.8561 5.85833 0.0574969 0 0 1.00019 3.61755e-05
298 22.8236 5.96624 0.66701 0 0 1.00019 3.48466e-05
379 22.7957 6.83444 1.21122 0 0 1.00019 4.03763e-05
305 24.9748 5.37092 0.568767 0 0 1.00019 2.65109e-05
381 23.5044 6.91414 0.275818 0 0 1.00019 3.78077e-05
303 24.4889 5.41811 1.43838 0 0 1.00019 2.85174e-05
304 23.6297 6.02381 1.29718 0 0 1.00019 3.36456e-05
383 24.4659 6.70793 1.16907 0 0 1.00019 3.39504e-05
302 24.281 6.13422 0.428113 0 0 1.00019 3.17498e-05
306 25.8081 5.98209 0.699426 0 0 1.00019 2.62295e-05
308 25.2423 6.16874 1.6752 0 0 1.00019 2.95594e-05
385 25.2935 6.86667 0.497412 0 0 1.00019 3.10045e-05
387 25.9631 6.72796 1.41059 0 0 1.00019 2.85656e-05
312 26.8035 5.95829 1.47612 0 0 1.00019 2.32168e-05
310 27.6021 5.63864 0.7214 0 0 1.00019 1.94488e-05
389 26.8649 6.47754 0.649843 0 0 1.00019 2.39841e-05
391 27.8087 6.56774 1.36939 0 0 1.00019 2.09123e-05
316 28.4641 5.60395 1.482 0 0 1.00019 1.69495e-05
314 29.4778 5.36834 0.816972 0 0 1.00019 1.3254e-05
395 29.5348 6.24819 1.32247 0 0 1.00019 1.42684e-05
394 29.6788 6.9694 0.50966 0 0 1.00019 1.43677e-05
393 28.5725 6.28894 0.644341 0 0 1.00019 1.75327e-05
16355 29.4715 6.20884 0.0785405 0 0 1.00019 1.43637e-05
16276 28.5773 5.46763 0.0564739 0 0 1.00019 1.6036e-05
318 31.0513 5.39261 0.595186 0 0 1.00019 8.91482e-06
320 30.3074 5.50106 1.46418 0 0 1.00019 1.10683e-05
397 30.4876 6.22349 0.648074 0 0 1.00019 1.10588e-05
399 31.3106 6.17608 1.384 0 0 1.00019 8.61027e-06
398 31.2986 6.97494 0.605463 0 0 1.00019 8.76148e-06
401 0.360977 7.63693 0.659399 0 0 1.00019 4.0768e-06
402 0.937123 8.45289 0.614241 0 0 1.00019 5.88315e-06
403 1.21127 7.8391 1.49405 0 0 1.00019 7.15254e-06
404 0.455386 8.55915 1.46869 0 0 1.00019 4.09125e-06
405 1.69707 7.7336 0.374128 0 0 1.00019 8.72805e-06
408 1.8307 8.58023 1.46206 0 0 1.00019 9.63402e-06
326 2.59009 7.09777 0.472464 0 0 1.00019 1.19218e-05
406 2.30331 8.57987 0.398526 0 0 1.00019 1.13326e-05
407 2.50296 7.75978 1.27765 0 0 1.00019 1.21504e-05
412 3.13033 8.44727 0.936046 0 0 1.00019 1.51285e-05
409 3.35552 7.69795 0.326323 0 0 1.00019 1.53978e-05
410 3.93428 8.37438 0.0764842 0 0 1.00019 1.8545e-05
411 4.1013 7.57297 1.23596 0 0 1.00019 1.86995e-05
416 4.82981 8.16106 0.927787 0 0 1.00019 2.27232e-05
413 4.80123 7.54679 0.23933 0 0 1.00019 2.12632e-05
414 6.0112 8.22988 0.172073 0 0 1.00019 2.80913e-05
415 5.62062 7.47534 1.02137 0 0 1.00019 2.49768e-05
417 6.63656 7.42958 0.164405 0 0 1.00019 2.90306e-05
420 6.54701 8.09401 1.04235 0 0 1.00019 3.08496e-05
419 7.44625 7.63673 0.744052 0 0 1.00019 3.34301e-05
1258 7.4401 8.03108 1.69406 0 0 1.00019 3.59968e-05
1261 8.22765 7.35611 1.5564 0 0 1.00019 3.67766e-05
421 8.16608 7.48259 0.0219704 0 0 1.00019 3.54855e-05
499 7.31943 8.73853 0.710832 0 0 1.00019 3.61834e-05
424 8.44901 8.17838 0.867922 0 0 1.00019 4.00093e-05
348 10.0202 7.10215 0.725729 0 0 1.00019 4.07688e-05
423 9.09167 7.49087 0.661144 0 0 1.00019 3.93689e-05
428 9.92437 8.48308 0.69322 0 0 1.00019 4.78039e-05
1262 9.27118 8.54727 1.44244 0 0 1.00019 4.6602e-05
1265 9.85139 7.75214 1.59385 0 0 1.00019 4.54533e-05
352 11.5114 7.04706 0.807581 0 0 1.00019 4.46049e-05
427 10.7772 7.82048 0.838714 0 0 1.00019 4.75624e-05
1266 10.794 8.58454 1.42874 0 0 1.00019 5.35669e-05
1269 11.6177 7.70787 1.59713 0 0 1.00019 5.14062e-05
429 11.4371 8.01134 0.0413075 0 0 1.00019 5.0115e-05
432 11.579 8.73018 0.728782 0 0 1.00019 5.56788e-05
426 10.605 8.7489 0.0297635 0 0 1.00019 5.14453e-05
356 12.9277 7.22493 0.571439 0 0 1.00019 4.84938e-05
431 12.398 8.13684 0.594432 0 0 1.00019 5.4031e-05
1190 12.2994 7.07573 1.38133 0 0 1.00019 4.78787e-05
1270 12.313 8.58026 1.49592 0 0 1.00019 5.9327e-05
1273 13.0889 7.92781 1.47816 0 0 1.00019 5.6432e-05
360 14.5516 7.32614 0.603589 0 0 1.00019 5.17818e-05
435 13.8477 8.04802 0.476346 0 0 1.00019 5.64411e-05
1194 13.7053 7.28508 1.35401 0 0 1.00019 5.16829e-05
1277 14.4997 8.13451 1.35927 0 0 1.00019 6.02798e-05
1274 13.9307 8.79933 1.5689 0 0 1.00019 6.581e-05
362 16.6662 7.2187 0.285537 0 0 1.00019 5.15963e-05
364 15.87 7.31725 0.909848 0 0 1.00019 5.27138e-05
439 15.3218 8.28329 0.866547 0 0 1.00019 6.09791e-05
443 16.5117 8.19023 1.11076 0 0 1.00019 6.13657e-05
1198 15.3846 7.51854 1.6436 0 0 1.00019 5.67916e-05
441 16.0962 8.3225 0.153478 0 0 1.00019 6.08347e-05
368 17.2167 7.40793 1.11769 0 0 1.00019 5.44917e-05
445 17.2969 8.16332 0.329961 0 0 1.00019 5.98971e-05
447 17.9504 8.10487 1.03835 0 0 1.00019 5.98381e-05
366 18.0428 7.24612 0.223754 0 0 1.00019 5.15032e-05
372 18.4953 7.14172 1.14768 0 0 1.00019 5.15685e-05
370 19.2287 7.43896 0.637923 0 0 1.00019 5.20301e-05
451 19.1578 8.26473 1.18882 0 0 1.00019 6.0378e-05
376 20.0883 7.78237 1.328 0 0 1.00019 5.47999e-05
453 20.0145 8.26188 0.367485 0 0 1.00019 5.69926e-05
449 18.6817 8.28653 0.187142 0 0 1.00019 5.9197e-05
374 20.8974 7.59522 0.668019 0 0 1.00019 5.00685e-05
455 20.8594 8.58181 1.04202 0 0 1.00019 5.77883e-05
380 21.7356 7.82025 1.15258 0 0 1.00019 4.97619e-05
457 21.8014 8.49656 0.2685 0 0 1.00019 5.27162e-05
459 22.7649 8.34413 1.02189 0 0 1.00019 4.86668e-05
378 22.5151 7.63069 0.390559 0 0 1.00019 4.49565e-05
384 23.6085 7.47781 1.06462 0 0 1.00019 4.06194e-05
461 23.6464 8.23676 0.382053 0 0 1.00019 4.34297e-05
463 24.4965 8.25556 1.00398 0 0 1.00019 4.01627e-05
382 24.4815 7.46875 0.277802 0 0 1.00019 3.65075e-05
388 25.2595 7.53802 1.25589 0 0 1.00019 3.40598e-05
467 26.155 8.14712 0.99623 0 0 1.00019 3.15996e-05
1306 26.1523 8.78053 1.76201 0 0 1.00019 3.41315e-05
386 26.2154 7.40043 0.374244 0 0 1.00019 2.90501e-05
465 25.3662 8.27066 0.315293 0 0 1.00019 3.55477e-05
466 26.3963 8.72415 0.0962742 0 0 1.00019 3.13206e-05
390 27.823 7.10684 0.53007 0 0 1.00019 2.16242e-05
392 26.9097 7.23477 1.34285 0 0 1.00019 2.6107e-05
470 28.0758 8.60992 0.426283 0 0 1.00019 2.27194e-05
471 27.9146 7.94146 1.21602 0 0 1.00019 2.29219e-05
472 27.0992 8.78629 1.03007 0 0 1.00019 2.81989e-05
469 27.1184 7.9027 0.436832 0 0 1.00019 2.62043e-05
396 28.7563 7.19363 1.2322 0 0 1.00019 1.8215e-05
474 29.6981 8.4267 0.54473 0 0 1.00019 1.51945e-05
475 29.6027 7.74651 1.27974 0 0 1.00019 1.53598e-05
476 28.8846 8.64647 1.18871 0 0 1.00019 1.90853e-05
473 28.8044 7.80622 0.418441 0 0 1.00019 1.85313e-05
400 30.4253 7.13549 1.18147 0 0 1.00019 1.17648e-05
479 31.3488 7.84453 1.30041 0 0 1.00019 8.71916e-06
480 30.5312 8.5363 1.18682 0 0 1.00019 1.17746e-05
477 30.7363 7.91066 0.383092 0 0 1.00019 1.08393e-05
478 31.5245 8.63765 0.392162 0 0 1.00019 7.88934e-06
482 1.21473 10.2562 0.270889 0 0 1.00019 6.00784e-06
483 1.11537 9.35187 1.20173 0 0 1.00019 6.26642e-06
484 0.349483 9.93233 0.899008 0 0 1.00019 2.66201e-06
481 0.46509 9.33557 0.123301 0 0 1.00019 3.65024e-06
1322 0.90686 10.1089 1.75045 0 0 1.00019 5.02785e-06
485 1.85551 9.40706 0.448032 0 0 1.00019 9.37917e-06
488 1.92131 10.3182 0.967912 0 0 1.00019 9.36699e-06
486 2.69037 10.205 0.0797678 0 0 1.00019 1.30817e-05
487 2.47818 9.38423 1.2176 0 0 1.00019 1.23975e-05
1326 2.8712 10.1546 1.66315 0 0 1.00019 1.45881e-05
1329 3.3191 9.15609 1.6554 0 0 1.00019 1.67587e-05
489 3.18177 9.28978 0.0826005 0 0 1.00019 1.54878e-05
492 3.48556 9.94696 0.733841 0 0 1.00019 1.72458e-05
491 4.04991 9.01399 0.853513 0 0 1.00019 1.98687e-05
493 4.69738 9.07995 0.00253579 0 0 1.00019 2.28789e-05
496 4.72064 9.86373 0.56661 0 0 1.00019 2.39637e-05
1330 4.23632 9.85729 1.60459 0 0 1.00019 2.20694e-05
1333 4.80023 8.95064 1.64038 0 0 1.00019 2.44415e-05
495 5.46176 8.83031 0.654255 0 0 1.00019 2.67794e-05
500 6.37529 9.65393 0.512123 0 0 1.00019 3.3105e-05
1334 5.44846 9.7005 1.16511 0 0 1.00019 2.8384e-05
1337 6.29646 8.92271 1.25313 0 0 1.00019 3.20618e-05
1417 6.37053 10.3609 1.1842 0 0 1.00019 3.48438e-05
501 8.26409 8.90092 0.0790392 0 0 1.00019 4.13016e-05
504 8.12361 9.77043 0.570923 0 0 1.00019 4.35224e-05
1338 7.32349 9.58326 1.18822 0 0 1.00019 3.93268e-05
1341 8.21232 9.01023 1.39059 0 0 1.00019 4.29325e-05
1421 7.80852 10.464 1.34974 0 0 1.00019 4.48462e-05
579 7.06707 10.5317 0.460593 0 0 1.00019 3.88646e-05
503 9.11656 9.29792 0.720671 0 0 1.00019 4.76475e-05
508 9.82128 10.1711 0.658542 0 0 1.00019 5.49022e-05
1342 8.92106 10.0799 1.40002 0 0 1.00019 5.08273e-05
1345 10.0203 9.42566 1.40803 0 0 1.00019 5.45538e-05
507 10.663 9.53977 0.655454 0 0 1.00019 5.64175e-05
1346 10.8336 10.0185 1.62421 0 0 1.00019 6.27084e-05
1349 11.5329 9.49583 1.31838 0 0 1.00019 6.19722e-05
512 11.4041 10.4417 0.720426 0 0 1.00019 6.4595e-05
436 13.2205 8.87727 0.783654 0 0 1.00019 6.19053e-05
511 12.3182 9.69833 0.687503 0 0 1.00019 6.47099e-05
516 13.0371 10.3802 0.953285 0 0 1.00019 7.2299e-05
1353 12.7916 9.51504 1.60958 0 0 1.00019 6.86574e-05
1350 12.1957 10.4538 1.59052 0 0 1.00019 7.21336e-05
440 14.7016 9.15738 0.764876 0 0 1.00019 6.73126e-05
515 13.768 9.62804 0.840002 0 0 1.00019 6.90499e-05
1354 13.7369 10.3409 1.70133 0 0 1.00019 7.85107e-05
517 14.4998 10.0977 0.218066 0 0 1.00019 7.37861e-05
444 16.1452 9.17488 1.13654 0 0 1.00019 7.03829e-05
1278 15.3153 9.05144 1.76227 0 0 1.00019 7.15218e-05
519 15.3737 9.85533 1.0158 0 0 1.00019 7.51736e-05
521 15.9215 10.185 0.247279 0 0 1.00019 7.69051e-05
523 16.7434 10.0033 0.969077 0 0 1.00019 7.74917e-05
442 16.743 9.08336 0.265535 0 0 1.00019 6.77457e-05
438 15.5274 9.19841 0.112796 0 0 1.00019 6.78778e-05
448 17.3397 9.12628 1.13061 0 0 1.00019 6.98865e-05
525 17.391 10.0918 0.204184 0 0 1.00019 7.63784e-05
527 18.011 9.95792 1.07973 0 0 1.00019 7.62735e-05
446 17.9991 9.19249 0.122801 0 0 1.00019 6.78331e-05
452 18.5376 9.00733 0.953083 0 0 1.00019 6.71284e-05
456 20.0454 9.1065 1.0664 0 0 1.00019 6.44923e-05
529 18.8227 9.85548 0.307623 0 0 1.00019 7.23696e-05
531 19.7191 10.0467 0.871394 0 0 1.00019 7.20823e-05
532 18.9393 10.5939 1.15958 0 0 1.00019 8.00908e-05
1369 18.8906 9.7196 1.72411 0 0 1.00019 7.57715e-05
450 19.4615 9.09086 0.216783 0 0 1.00019 6.4701e-05
533 20.2064 9.94266 0.0734446 0 0 1.00019 6.84174e-05
535 21.1323 9.98853 0.774616 0 0 1.00019 6.53682e-05
1373 20.4572 9.84211 1.68865 0 0 1.00019 7.09053e-05
454 20.9897 9.23631 0.208147 0 0 1.00019 6.05129e-05
460 21.8208 9.21172 0.988693 0 0 1.00019 5.78797e-05
1298 22.592 9.07832 1.61264 0 0 1.00019 5.49674e-05
539 22.9994 9.8898 0.821877 0 0 1.00019 5.47451e-05
1377 22.1192 9.99126 1.56124 0 0 1.00019 6.2304e-05