ITEM: TIMESTEP
18000
ITEM: NUMBER OF ATOMS
32000
ITEM: BOX BOUNDS pp pp pp
0.0000000000000000e+00 3.1748021039364001e+01
0.0000000000000000e+00 3.1748021039364001e+01
0.0000000000000000e+00 3.1748021039364001e+01
ITEM: ATOMS id x y z c_phase c_nbond c_rho v_omega
4 0.165899 1.11963 0.466835 0 0 1.00058 2.81364e-06
83 1.05376 1.63558 0.779315 0 0 1.00058 4.7857e-06
842 0.750777 0.775186 1.40838 0 0 1.00058 3.35255e-06
921 0.0855769 1.62655 1.37659 0 0 1.00058 3.33345e-06
3 0.724645 0.0493049 0.617977 0 0 1.00058 2.41525e-06
8 1.74696 0.745055 1.01339 0 0 1.00058 4.45049e-06
85 1.87769 1.40436 0.215973 0 0 1.00058 5.70871e-06
925 1.91265 1.5754 1.75179 0 0 1.00058 6.00653e-06
6 2.55169 0.633257 0.200983 0 0 1.00058 5.31551e-06
87 2.72671 1.41923 0.874551 0 0 1.00058 6.85025e-06
846 2.71204 0.696316 1.73605 0 0 1.00058 5.48912e-06
12 3.47434 0.768839 0.956979 0 0 1.00058 6.57614e-06
929 3.70068 1.53293 1.70935 0 0 1.00058 8.31291e-06
10 4.15351 0.670653 0.316945 0 0 1.00058 6.80123e-06
16 5.00125 0.347486 1.15359 0 0 1.00058 6.59758e-06
93 5.01558 1.37918 0.38221 0 0 1.00058 9.32642e-06
850 4.38219 0.741224 1.62976 0 0 1.00058 7.48265e-06
91 4.1144 1.64726 0.712155 0 0 1.00058 9.17725e-06
14 5.68411 0.407813 0.314181 0 0 1.00058 7.20406e-06
95 5.96576 1.06768 0.946501 0 0 1.00058 9.0366e-06
97 6.66558 1.1394 0.217988 0 0 1.00058 9.36091e-06
854 5.81274 0.214571 1.69671 0 0 1.00058 6.62354e-06
933 5.12748 1.48014 1.43513 0 0 1.00058 9.96212e-06
20 6.72917 0.140967 0.86806 0 0 1.00058 6.4951e-06
937 6.7553 0.746969 1.69278 0 0 1.00058 8.36278e-06
24 8.28038 0.141097 1.06074 0 0 1.00058 6.2677e-06
99 7.45123 0.957633 0.949025 0 0 1.00058 9.04686e-06
101 8.34859 1.12053 0.233022 0 0 1.00058 9.61527e-06
941 8.23335 0.990024 1.61328 0 0 1.00058 9.70849e-06
18 7.62111 0.391047 0.151638 0 0 1.00058 7.13938e-06
22 8.88414 0.241138 0.260119 0 0 1.00058 6.20915e-06
28 9.57085 0.076865 0.899336 0 0 1.00058 4.76138e-06
103 9.11911 1.04147 1.0966 0 0 1.00058 9.21801e-06
945 9.66991 0.711561 1.76225 0 0 1.00058 7.41901e-06
105 9.74617 1.1073 0.102229 0 0 1.00057 8.96836e-06
32 11.209 0.00381176 0.64295 0 0 1.00058 3.24297e-06
107 10.4552 0.81441 0.829526 0 0 1.00057 7.41587e-06
949 11.3884 0.799133 1.41836 0 0 1.00057 6.81102e-06
946 10.7372 1.44515 1.72446 0 0 1.00058 1.05063e-05
26 10.2623 0.125362 0.0798079 0 0 1.00057 4.60792e-06
112 11.3416 1.61815 0.776163 0 0 1.00058 1.08118e-05
36 12.889 0.0756154 0.639803 0 0 1.00058 1.98307e-06
111 12.1393 0.897023 0.515095 0 0 1.00058 6.5197e-06
870 12.1478 0.134437 1.30546 0 0 1.00058 3.13588e-06
953 12.8455 1.03914 1.37499 0 0 1.00058 6.89456e-06
950 12.131 1.73027 1.46564 0 0 1.00058 1.10404e-05
40 14.401 0.263024 0.776767 0 0 1.00058 1.82542e-06
115 13.7043 1.01061 0.843054 0 0 1.00058 5.96469e-06
117 14.2179 1.47236 0.158284 0 0 1.00058 8.12033e-06
874 13.6397 0.25078 1.63619 0 0 1.00058 2.26061e-06
957 14.5026 1.09785 1.48086 0 0 1.00058 5.95652e-06
119 15.0499 1.52437 0.667609 0 0 1.00058 7.77147e-06
44 15.7922 0.781843 0.790268 0 0 1.00058 3.86679e-06
878 15.1877 0.447326 1.64039 0 0 1.00058 2.27329e-06
882 16.6224 0.779065 1.34645 0 0 1.00058 3.75651e-06
961 15.8011 1.50816 1.40021 0 0 1.00058 7.99327e-06
38 15.1714 0.689541 0.0711721 0 0 1.00058 3.25312e-06
123 16.7211 1.61952 0.687373 0 0 1.00058 8.13395e-06
48 17.3386 0.840397 0.55846 0 0 1.00058 3.94332e-06
127 18.1019 1.74361 0.755214 0 0 1.00058 9.18073e-06
886 17.9993 0.899293 1.42637 0 0 1.00058 4.82753e-06
47 18.1478 0.0848592 0.693223 0 0 1.00057 6.95989e-07
51 19.5351 0.231229 0.6698 0 0 1.00057 2.45285e-06
52 18.8649 0.925307 0.691024 0 0 1.00057 5.05152e-06
889 19.0279 0.359942 1.54823 0 0 1.00057 2.40326e-06
890 19.7058 1.20435 1.69442 0 0 1.00057 7.66586e-06
969 18.8377 1.70758 1.50055 0 0 1.00058 9.51202e-06
55 21.1474 0.627112 1.07234 0 0 1.00058 4.9517e-06
56 20.3266 1.03255 0.969484 0 0 1.00058 6.60652e-06
54 21.2567 1.05615 0.215053 0 0 1.00058 7.21818e-06
893 20.4426 0.136739 1.43342 0 0 1.00058 3.10526e-06
53 20.2729 0.119349 0.0723914 0 0 1.00058 2.69597e-06
57 22.0432 0.579555 0.538887 0 0 1.00058 5.55018e-06
59 22.8467 0.74539 1.40352 0 0 1.00058 6.58347e-06
60 22.2298 1.47607 1.33131 0 0 1.00058 9.77974e-06
58 22.9987 1.37986 0.46486 0 0 1.00058 8.85991e-06
63 24.2897 0.701347 1.42496 0 0 1.00057 6.79458e-06
61 23.603 0.666246 0.574218 0 0 1.00057 6.38781e-06
62 24.5261 1.49691 0.747084 0 0 1.00057 9.19728e-06
64 23.5979 1.56795 1.39316 0 0 1.00058 9.96925e-06
65 24.9919 0.62349 0.541708 0 0 1.00057 6.46152e-06
67 26.0305 0.666412 1.16764 0 0 1.00058 6.17085e-06
68 25.2551 1.44544 1.46327 0 0 1.00057 9.08061e-06
66 25.9603 1.23623 0.425839 0 0 1.00058 7.71323e-06
17548 25.1604 0.0837607 1.36179 0 0 1.00057 4.95154e-06
70 27.6559 1.52115 0.386134 0 0 1.00058 6.69221e-06
71 27.642 0.739935 0.872333 0 0 1.00058 5.12922e-06
72 26.8175 1.30053 1.25527 0 0 1.00058 7.14851e-06
913 28.4022 0.548784 1.40914 0 0 1.00058 4.02812e-06
69 26.8053 0.506959 0.235892 0 0 1.00058 5.26503e-06
76 28.7162 1.42563 0.734366 0 0 1.00058 5.07739e-06
914 29.4322 1.11429 1.56763 0 0 1.00058 3.86296e-06
917 29.8239 0.300374 1.45711 0 0 1.00058 2.04359e-06
75 29.2888 0.512112 0.616973 0 0 1.00058 2.83404e-06
841 31.5946 0.300078 1.25628 0 0 1.00058 -2.01716e-07
79 30.727 0.565819 0.475693 0 0 1.00058 1.18762e-06
80 30.1572 1.31425 0.772822 0 0 1.00058 2.97375e-06
918 30.9087 1.0474 1.3894 0 0 1.00058 1.65601e-06
82 1.23045 2.39444 0.122969 0 0 1.00058 6.17212e-06
84 0.253066 2.39871 0.808684 0 0 1.00058 4.50736e-06
163 1.44348 3.17308 0.94363 0 0 1.00057 7.62586e-06
922 1.25847 2.31708 1.58814 0 0 1.00058 6.17575e-06
1001 0.534853 3.03594 1.54843 0 0 1.00058 5.64801e-06
161 0.48187 3.10734 0.130002 0 0 1.00058 5.55375e-06
88 2.03431 2.32751 0.783416 0 0 1.00057 7.35396e-06
167 2.82629 3.14461 0.856419 0 0 1.00057 1.03004e-05
926 2.79381 2.10627 1.53604 0 0 1.00057 8.33519e-06
86 2.84916 2.25487 0.0535088 0 0 1.00058 8.65391e-06
1005 2.26685 2.99164 1.75503 0 0 1.00057 8.90875e-06
1009 3.45156 3.24134 1.64692 0 0 1.00058 1.19503e-05
92 3.5231 2.39127 0.781873 0 0 1.00058 1.00366e-05
171 4.38827 3.10831 0.753302 0 0 1.00058 1.2905e-05
930 4.29777 2.43589 1.57939 0 0 1.00058 1.1317e-05
96 5.06592 2.33651 0.817974 0 0 1.00058 1.21638e-05
94 5.81043 2.19541 0.139538 0 0 1.00058 1.25043e-05
175 5.86375 2.93411 0.954931 0 0 1.00058 1.49445e-05
934 6.00463 1.94489 1.4897 0 0 1.00058 1.18913e-05
173 5.18878 3.08445 0.00777429 0 0 1.00058 1.45066e-05
100 6.71127 1.91623 0.779836 0 0 1.00058 1.2174e-05
1017 6.75244 2.77619 1.54442 0 0 1.00058 1.55299e-05
177 6.84347 2.66258 0.127347 0 0 1.00058 1.47207e-05
98 7.61698 1.94983 0.135766 0 0 1.00058 1.27345e-05
104 8.26829 1.91484 0.935042 0 0 1.00057 1.29457e-05
179 7.6328 2.76479 0.913109 0 0 1.00057 1.61608e-05
938 7.45714 1.7798 1.56616 0 0 1.00057 1.22928e-05
180 6.76686 3.48277 0.781904 0 0 1.00058 1.7854e-05
1021 8.43595 2.69199 1.64363 0 0 1.00058 1.66597e-05
181 8.50871 2.67829 0.039717 0 0 1.00058 1.59534e-05
102 9.08389 1.8246 0.248955 0 0 1.00057 1.23936e-05
108 9.95546 1.75905 1.0963 0 0 1.00058 1.19326e-05
183 9.18202 2.67921 0.93047 0 0 1.00058 1.6844e-05
942 9.22731 1.93324 1.71166 0 0 1.00058 1.35841e-05
185 9.82679 2.63829 0.208026 0 0 1.00058 1.63222e-05
1022 9.4009 3.45952 1.50156 0 0 1.00058 2.15484e-05
188 10.2136 3.30437 0.884737 0 0 1.00058 1.99315e-05
106 10.4796 1.86364 0.201751 0 0 1.00057 1.23114e-05
187 10.888 2.55419 0.919419 0 0 1.00058 1.56707e-05
1026 11.0525 3.32185 1.59344 0 0 1.00058 2.05001e-05
1029 11.7327 2.61313 1.58967 0 0 1.00058 1.66309e-05
192 11.7648 3.41227 0.802843 0 0 1.00058 2.07766e-05
116 12.8827 1.79208 0.603955 0 0 1.00058 1.06372e-05
191 12.2068 2.46196 0.741899 0 0 1.00058 1.52964e-05
1033 13.186 2.85699 1.69458 0 0 1.00058 1.74752e-05
196 12.8693 3.43249 0.81572 0 0 1.00058 2.10337e-05
195 13.5349 2.89408 0.840302 0 0 1.00058 1.66076e-05
954 13.6072 1.87699 1.47663 0 0 1.00058 1.08091e-05
120 14.2979 2.36168 0.924791 0 0 1.00058 1.33247e-05
1037 14.4257 3.29725 1.55612 0 0 1.00058 1.98574e-05
197 14.5028 3.14827 0.0423686 0 0 1.00057 1.78605e-05
114 13.6605 2.18429 0.0546282 0 0 1.00057 1.2597e-05
199 15.098 3.39367 0.874144 0 0 1.00057 1.96232e-05
958 15.0714 2.27881 1.44431 0 0 1.00058 1.2814e-05
118 15.1296 2.47664 0.134798 0 0 1.00057 1.36398e-05
124 15.9754 2.46323 0.701824 0 0 1.00057 1.33064e-05
203 16.6811 3.26836 0.674004 0 0 1.00057 1.84395e-05
962 16.6075 2.54398 1.52779 0 0 1.00057 1.42399e-05
1041 15.7751 3.26775 1.50672 0 0 1.00057 1.89083e-05
201 15.9415 3.27456 0.0232966 0 0 1.00058 1.87027e-05
965 17.4247 1.86101 1.56357 0 0 1.00057 1.00739e-05
128 17.3411 2.46837 0.680941 0 0 1.00057 1.33281e-05
207 18.2733 3.1038 0.711892 0 0 1.00057 1.72523e-05
966 18.3012 2.6053 1.59347 0 0 1.00057 1.48982e-05
1045 17.4534 3.23956 1.50232 0 0 1.00057 1.85445e-05
131 19.7056 1.79253 0.842623 0 0 1.00057 1.00224e-05
129 19.037 1.78656 0.00509736 0 0 1.00057 9.45222e-06
132 19.1529 2.58714 1.01458 0 0 1.00058 1.43618e-05
211 20.0402 3.51307 1.27359 0 0 1.00058 2.04112e-05
209 19.2033 3.2336 0.191054 0 0 1.00057 1.81226e-05
130 19.8467 2.57615 0.109337 0 0 1.00058 1.42787e-05
133 20.5023 1.78141 0.202978 0 0 1.00058 1.01981e-05
135 21.261 1.93604 0.960892 0 0 1.00058 1.13937e-05
973 20.5173 2.0562 1.73866 0 0 1.00058 1.2337e-05
134 21.4092 2.73094 0.457409 0 0 1.00058 1.49713e-05
136 20.4679 2.73724 1.09972 0 0 1.00058 1.5839e-05
213 20.7131 3.31075 0.328831 0 0 1.00058 1.84502e-05
137 22.1457 1.92687 0.51956 0 0 1.00058 1.13792e-05
139 23.0725 2.39778 1.51329 0 0 1.00058 1.35299e-05
138 23.1861 2.95665 0.729889 0 0 1.00058 1.52995e-05
140 22.3124 2.83705 1.23679 0 0 1.00058 1.60313e-05
141 23.8748 2.15234 0.621173 0 0 1.00058 1.16341e-05
143 24.5833 2.32583 1.58777 0 0 1.00058 1.25753e-05
142 24.55 3.03001 0.773077 0 0 1.00058 1.47842e-05
144 23.9229 3.25127 1.53297 0 0 1.00058 1.6751e-05
16108 25.1633 3.16027 0.00794969 0 0 1.00058 1.43049e-05
147 26.0554 2.04508 1.35525 0 0 1.00058 1.0135e-05
149 26.6699 2.07339 0.511894 0 0 1.00058 9.20703e-06
145 25.2708 2.17471 0.523187 0 0 1.00057 1.10674e-05
146 25.9775 2.92758 0.700453 0 0 1.00057 1.26986e-05
148 25.3556 2.90537 1.52051 0 0 1.00058 1.3499e-05
152 26.7011 2.86837 1.52764 0 0 1.00058 1.16544e-05
151 27.6201 2.23406 1.22947 0 0 1.00058 8.33375e-06
153 28.3733 2.30693 0.344496 0 0 1.00058 7.30883e-06
150 27.2549 2.96411 0.635006 0 0 1.00058 1.05779e-05
156 28.4097 2.97841 1.19687 0 0 1.00058 8.7738e-06
233 28.1688 3.46657 0.336197 0 0 1.00058 1.01427e-05
993 28.6165 1.93142 1.5033 0 0 1.00058 6.42997e-06
997 30.0599 1.93795 1.70372 0 0 1.00058 4.35942e-06
155 29.5477 2.19099 0.880849 0 0 1.00058 5.22616e-06
154 29.3356 2.84809 0.286447 0 0 1.00058 6.67807e-06
235 29.4259 3.43488 1.17962 0 0 1.00058 7.58655e-06
159 31.0116 2.05251 0.92242 0 0 1.00058 2.69498e-06
160 30.3187 2.82659 0.998171 0 0 1.00058 4.69465e-06
239 31.192 3.41227 0.972584 0 0 1.00058 4.03126e-06
998 31.1242 2.76267 1.72602 0 0 1.00058 3.45059e-06
237 30.2838 3.37226 0.148174 0 0 1.00058 5.71013e-06
157 30.503 2.00889 0.0314243 0 0 1.00058 3.41406e-06
158 31.2739 2.72084 0.0766278 0 0 1.00058 2.97256e-06
164 0.476342 3.78771 0.917554 0 0 1.00058 6.149e-06
241 0.354186 4.61686 0.473941 0 0 1.00058 6.64767e-06
243 1.35113 4.60901 0.984174 0 0 1.00057 9.15805e-06
162 1.22821 3.81796 0.0675805 0 0 1.00058 7.71693e-06
244 0.329734 5.2821 1.27571 0 0 1.00058 7.16287e-06
168 2.05002 3.94816 0.848826 0 0 1.00057 9.80411e-06
247 2.77554 4.71257 1.12438 0 0 1.00058 1.28656e-05
166 2.86148 4.00134 0.200687 0 0 1.00057 1.18913e-05
245 2.12677 4.85497 0.280908 0 0 1.00057 1.11673e-05
249 3.65906 4.66314 0.166334 0 0 1.00057 1.50438e-05
172 3.70322 3.88985 0.884767 0 0 1.00058 1.33251e-05
251 4.32367 4.64561 1.15032 0 0 1.00058 1.68756e-05
170 4.484 3.95276 0.144811 0 0 1.00057 1.52035e-05
250 4.48332 5.21835 0.321914 0 0 1.00057 1.83536e-05
176 5.1549 3.75457 1.15845 0 0 1.00058 1.6328e-05
253 5.28329 4.47497 0.328913 0 0 1.00057 1.85468e-05
174 6.014 3.66015 0.182004 0 0 1.00058 1.76223e-05
255 5.99835 4.42516 1.02821 0 0 1.00058 2.02166e-05
254 6.09408 5.10114 0.285826 0 0 1.00058 2.22918e-05
256 5.25172 5.15163 1.29239 0 0 1.00058 2.05743e-05
1097 6.97957 4.19785 1.64577 0 0 1.00058 2.16032e-05
260 7.00227 4.81825 0.867158 0 0 1.00058 2.34116e-05
259 7.72887 4.13946 0.559445 0 0 1.00058 2.20994e-05
1018 7.70171 3.55216 1.50051 0 0 1.00058 1.98269e-05
258 7.6923 5.01638 0.0339101 0 0 1.00057 2.57673e-05
1098 7.78331 5.04402 1.49387 0 0 1.00058 2.66865e-05
184 8.51232 3.56508 0.70532 0 0 1.00058 2.0288e-05
1101 8.56967 4.26873 1.47793 0 0 1.00057 2.41923e-05
264 8.60262 4.97213 0.698926 0 0 1.00057 2.7319e-05
263 9.45299 4.24844 0.813217 0 0 1.00058 2.4857e-05
182 9.3121 3.56747 0.0562683 0 0 1.00058 2.09001e-05
1102 9.48715 4.98093 1.58373 0 0 1.00057 2.98203e-05
262 9.43402 5.13373 0.021943 0 0 1.00058 2.94863e-05
268 10.2191 5.00683 0.796643 0 0 1.00058 2.99379e-05
265 10.2407 4.22564 0.124727 0 0 1.00058 2.50218e-05
1105 10.2732 4.04753 1.65737 0 0 1.00058 2.49237e-05
267 11.0119 4.36021 0.898847 0 0 1.00058 2.64103e-05
186 10.95 3.577 0.171178 0 0 1.00058 2.13276e-05
1106 11.0024 4.92545 1.75608 0 0 1.00057 3.07563e-05
266 10.967 5.26385 0.0129297 0 0 1.00058 3.18987e-05
269 11.8124 4.45771 0.216292 0 0 1.00057 2.65592e-05
1109 11.8028 4.1461 1.69364 0 0 1.00057 2.6677e-05
272 11.8859 5.02154 1.00604 0 0 1.00057 3.14081e-05
271 12.6457 4.35212 1.00393 0 0 1.00058 2.72626e-05
1113 13.2957 4.79013 1.69071 0 0 1.00057 3.0728e-05
273 13.0808 4.43847 0.0584918 0 0 1.00057 2.69961e-05
275 13.7085 4.571 0.787668 0 0 1.00058 2.82369e-05
200 14.4442 4.03769 0.69644 0 0 1.00058 2.39047e-05
1034 13.9592 4.08945 1.59123 0 0 1.00058 2.56165e-05
1117 14.7474 5.02623 1.52511 0 0 1.00057 3.27233e-05
277 14.6442 4.80771 0.0792427 0 0 1.00058 2.88572e-05
279 15.4855 5.00753 0.81628 0 0 1.00058 3.07065e-05
198 15.4117 4.16447 0.106755 0 0 1.00058 2.4274e-05
1038 15.4807 4.38621 1.59681 0 0 1.00058 2.69297e-05
204 16.1218 4.09492 0.912343 0 0 1.00057 2.42239e-05
281 16.3688 4.8234 0.178965 0 0 1.00057 2.85546e-05
1121 16.3862 5.08949 1.64921 0 0 1.00058 3.26413e-05
1042 16.7972 4.04732 1.68129 0 0 1.00057 2.49057e-05
283 17.0873 4.70526 0.906727 0 0 1.00057 2.81355e-05
208 17.6981 3.97377 0.808091 0 0 1.00057 2.27338e-05
1046 18.3624 3.84005 1.65567 0 0 1.00057 2.28937e-05
285 17.9134 4.75348 0.0288812 0 0 1.00057 2.77807e-05
287 18.553 4.70525 1.09432 0 0 1.00057 2.81583e-05
206 18.5493 4.0493 0.0727598 0 0 1.00057 2.26753e-05
212 19.2534 3.95683 0.960563 0 0 1.00057 2.27017e-05
289 19.2899 4.87524 0.357574 0 0 1.00058 2.84672e-05
210 19.9754 4.04703 0.246094 0 0 1.00058 2.27819e-05
291 20.1296 4.97456 1.11158 0 0 1.00058 2.88164e-05
215 21.6341 3.63772 1.3894 0 0 1.00058 1.98476e-05
216 20.8034 4.14603 1.23027 0 0 1.00058 2.31984e-05
295 21.3136 5.08958 1.37873 0 0 1.00057 2.90872e-05
214 21.4642 4.29369 0.515697 0 0 1.00058 2.33011e-05
293 20.6003 5.11527 0.348848 0 0 1.00058 2.84589e-05
217 22.2751 3.55718 0.605946 0 0 1.00058 1.94331e-05
16179 22.9879 3.76176 0.0497087 0 0 1.00058 1.90393e-05
219 23.1408 3.99041 1.41004 0 0 1.00058 2.05865e-05
220 22.3022 4.5103 1.31062 0 0 1.00057 2.44087e-05
218 22.986 4.73041 0.534357 0 0 1.00058 2.37364e-05
223 24.7418 3.89071 1.55685 0 0 1.00058 1.82246e-05
221 23.8693 4.00046 0.77379 0 0 1.00058 1.94117e-05
222 24.6484 4.71848 0.63233 0 0 1.00058 2.10346e-05
224 23.8269 4.93951 1.33999 0 0 1.00058 2.42516e-05
228 25.3322 4.86595 1.59841 0 0 1.00058 2.06208e-05
227 25.9614 3.83696 1.5181 0 0 1.00057 1.58058e-05
229 26.4079 3.82376 0.594772 0 0 1.00057 1.44875e-05
225 25.3217 4.00581 0.779767 0 0 1.00058 1.70474e-05
232 26.6316 4.62107 1.37289 0 0 1.00058 1.64775e-05
226 25.8261 4.76336 0.407758 0 0 1.00058 1.83736e-05
231 27.4157 3.63377 1.41293 0 0 1.00058 1.21409e-05
311 27.6093 5.17518 1.40143 0 0 1.00058 1.54494e-05
236 28.1887 4.2275 1.10954 0 0 1.00058 1.19919e-05
230 27.3073 4.3356 0.5806 0 0 1.00058 1.4192e-05
313 28.5231 4.9853 0.701061 0 0 1.00058 1.19773e-05
234 29.1331 3.97295 0.476194 0 0 1.00058 8.9758e-06
315 29.3164 4.71762 1.31978 0 0 1.00058 9.83315e-06
240 30.1953 4.19258 1.02911 0 0 1.00058 6.9048e-06
238 31.2183 4.05253 0.36169 0 0 1.00058 4.24758e-06
317 30.4269 4.8121 0.478629 0 0 1.00058 6.4849e-06
319 31.1973 4.67784 1.39483 0 0 1.00058 4.86839e-06
242 1.15796 5.48497 0.460326 0 0 1.00057 9.24935e-06
323 1.06424 6.16785 1.27603 0 0 1.00057 9.49785e-06
324 0.529313 6.92884 1.49459 0 0 1.00057 8.30818e-06
322 1.24679 6.88298 0.568843 0 0 1.00057 1.03842e-05
321 0.241645 6.02674 0.449371 0 0 1.00057 7.10386e-06
248 1.79119 5.42083 1.37058 0 0 1.00057 1.12784e-05
328 1.98968 6.90816 1.24123 0 0 1.00057 1.3041e-05
325 2.15713 6.08053 0.505895 0 0 1.00058 1.28669e-05
327 2.55958 6.01144 1.40106 0 0 1.00058 1.43605e-05
246 2.94602 5.43874 0.273455 0 0 1.00058 1.42334e-05
326 2.77779 6.96473 0.468198 0 0 1.00058 1.60313e-05
252 3.39685 5.43132 1.28717 0 0 1.00058 1.60324e-05
332 3.55409 6.74453 1.1391 0 0 1.00058 1.8367e-05
329 3.69726 6.05265 0.483752 0 0 1.00058 1.76428e-05
331 4.43742 5.82885 1.22394 0 0 1.00058 1.99861e-05
330 4.32599 6.74581 0.226864 0 0 1.00058 2.12894e-05
336 5.12757 6.50362 1.15842 0 0 1.00058 2.41051e-05
333 5.16258 5.94471 0.321479 0 0 1.00058 2.23385e-05
335 6.03674 5.88716 0.9574 0 0 1.00058 2.54243e-05
334 5.91677 6.69501 0.149861 0 0 1.00058 2.72177e-05
337 6.76564 5.72678 0.14408 0 0 1.00058 2.62206e-05
340 6.84547 6.48657 0.973171 0 0 1.00058 3.028e-05
1177 6.8518 5.63057 1.59721 0 0 1.00058 2.7011e-05
339 7.72295 5.77768 0.758284 0 0 1.00058 2.93822e-05
1178 7.72675 6.4401 1.59538 0 0 1.00057 3.34483e-05
344 8.48187 6.45656 0.714315 0 0 1.00057 3.46006e-05
1181 8.67596 5.73375 1.49681 0 0 1.00057 3.22294e-05
343 9.3552 5.81837 0.74044 0 0 1.00057 3.32596e-05
1182 9.5933 6.55693 1.4624 0 0 1.00057 3.9166e-05
1185 10.2576 5.81808 1.4795 0 0 1.00057 3.59351e-05
345 10.2477 5.90237 0.0908764 0 0 1.00058 3.50056e-05
347 11.1114 5.71301 0.937798 0 0 1.00057 3.49604e-05
346 11.0753 6.62204 0.131271 0 0 1.00058 4.08532e-05
1186 11.0457 6.57828 1.49245 0 0 1.00057 4.25153e-05
348 10.3597 6.82137 0.728443 0 0 1.00057 4.1634e-05
349 11.8612 6.07987 0.0646077 0 0 1.00058 3.77562e-05
352 11.8917 6.83173 0.808176 0 0 1.00058 4.42591e-05
270 12.5178 5.3768 0.186181 0 0 1.00057 3.33231e-05
276 13.2411 5.61253 0.861667 0 0 1.00057 3.56895e-05
351 12.3419 5.96647 1.05031 0 0 1.00057 3.84465e-05
1190 12.7398 6.8915 1.38138 0 0 1.00058 4.67915e-05
274 13.8568 5.39705 0.0350035 0 0 1.00058 3.38546e-05
1114 13.9347 5.71666 1.57372 0 0 1.00057 3.77426e-05
355 13.9747 6.40622 0.795652 0 0 1.00058 4.13346e-05
280 14.6513 5.63338 0.773877 0 0 1.00058 3.60946e-05
1197 14.9755 6.55464 1.42627 0 0 1.00058 4.50311e-05
357 14.7486 6.304 0.0359519 0 0 1.00058 4.04176e-05
278 15.576 5.61608 0.0411777 0 0 1.00058 3.47512e-05
284 16.4295 5.79033 0.942297 0 0 1.00058 3.65016e-05
359 15.6779 6.45433 0.802623 0 0 1.00058 4.21044e-05
1118 15.7411 5.85793 1.69386 0 0 1.00058 3.90221e-05
361 16.2994 6.39122 0.0476976 0 0 1.00058 4.04601e-05
363 17.121 6.58254 1.14986 0 0 1.00058 4.23796e-05
282 17.1702 5.54634 0.267547 0 0 1.00057 3.33566e-05
286 18.3769 5.53632 0.524463 0 0 1.00057 3.34715e-05
288 17.675 5.58665 1.24289 0 0 1.00057 3.50369e-05
365 17.6963 6.44783 0.399638 0 0 1.00057 4.06067e-05
367 18.2788 6.47067 1.36244 0 0 1.00057 4.17298e-05
292 19.2976 5.55521 1.19921 0 0 1.00058 3.38534e-05
369 18.9674 6.50456 0.616744 0 0 1.00058 3.98535e-05
290 19.976 6.07125 0.625165 0 0 1.00058 3.58345e-05
371 19.9065 6.90993 1.3456 0 0 1.00058 4.28182e-05
294 21.2631 6.1583 0.6452 0 0 1.00058 3.43452e-05
296 20.6895 5.97711 1.38922 0 0 1.00058 3.53073e-05
375 21.321 7.03707 1.30892 0 0 1.00058 4.08809e-05
297 22.0292 5.35159 0.790069 0 0 1.00057 2.8814e-05
299 22.9087 5.58325 1.28444 0 0 1.00058 2.92578e-05
300 22.1379 6.29749 1.3687 0 0 1.00058 3.47654e-05
16260 22.1679 6.15141 0.0544739 0 0 1.00057 3.24948e-05
298 23.1041 6.27904 0.652486 0 0 1.00057 3.102e-05
301 23.9132 5.48597 0.536484 0 0 1.00057 2.54198e-05
303 24.7279 5.7114 1.43765 0 0 1.00058 2.51378e-05
304 23.9077 6.34262 1.28476 0 0 1.00058 3.00684e-05
383 24.7408 7.03574 1.17629 0 0 1.00058 2.98975e-05
302 24.5439 6.43301 0.428984 0 0 1.00057 2.80702e-05
305 25.2051 5.63864 0.566553 0 0 1.00058 2.29741e-05
307 26.0257 5.52449 1.35168 0 0 1.00058 2.08931e-05
306 26.0421 6.25616 0.69354 0 0 1.00058 2.23382e-05
308 25.4903 6.45987 1.65563 0 0 1.00058 2.58267e-05
387 26.2208 7.02595 1.40895 0 0 1.00058 2.44871e-05
309 26.8026 5.31344 0.642332 0 0 1.00058 1.77321e-05
312 27.014 6.21105 1.46874 0 0 1.00058 1.94528e-05
310 27.7963 5.85252 0.712924 0 0 1.00058 1.56436e-05
389 27.0833 6.73197 0.640344 0 0 1.00057 1.99035e-05
391 28.008 6.78099 1.37012 0 0 1.00057 1.69076e-05
316 28.6504 5.78524 1.46811 0 0 1.00058 1.34567e-05
314 29.6392 5.49869 0.813152 0 0 1.00058 9.68199e-06
395 29.7149 6.39019 1.31721 0 0 1.00058 1.05752e-05
393 28.7667 6.47642 0.649671 0 0 1.00057 1.38071e-05
16355 29.6488 6.33964 0.0751627 0 0 1.00058 1.07112e-05
16276 28.7481 5.64244 0.0467636 0 0 1.00058 1.2263e-05
318 31.208 5.44304 0.591931 0 0 1.00057 5.53133e-06
320 30.4706 5.58821 1.45307 0 0 1.00058 7.52268e-06
397 30.6539 6.31087 0.640549 0 0 1.00058 7.42922e-06
399 31.476 6.21605 1.3798 0 0 1.00057 5.1617e-06
398 31.4771 7.01263 0.605625 0 0 1.00057 4.91064e-06
401 0.544719 7.6382 0.651709 0 0 1.00057 8.07172e-06
402 1.13259 8.41793 0.603451 0 0 1.00058 1.03409e-05
403 1.39443 7.77423 1.48416 0 0 1.00058 1.13572e-05
404 0.636983 8.54425 1.46272 0 0 1.00058 8.33379e-06
405 1.88741 7.65378 0.380489 0 0 1.00058 1.28393e-05
408 2.0279 8.48121 1.45689 0 0 1.00058 1.43499e-05
406 2.50781 8.45181 0.396813 0 0 1.00058 1.6133e-05
407 2.7066 7.63155 1.27795 0 0 1.00058 1.64861e-05
412 3.34784 8.27908 0.936795 0 0 1.00058 2.00547e-05
409 3.56342 7.52121 0.328268 0 0 1.00058 1.96824e-05
410 4.15851 8.16843 0.0693455 0 0 1.00058 2.32666e-05
411 4.32843 7.35198 1.21529 0 0 1.00058 2.25725e-05
491 4.26954 8.78748 0.852875 0 0 1.00058 2.49785e-05
413 5.04271 7.3291 0.231272 0 0 1.00058 2.50496e-05
1333 5.04826 8.6818 1.63067 0 0 1.00058 2.97536e-05
416 5.06613 7.92669 0.940169 0 0 1.00058 2.7198e-05
414 6.27162 7.95496 0.187174 0 0 1.00058 3.20351e-05
415 5.87197 7.21215 1.00683 0 0 1.00058 2.83504e-05
495 5.71014 8.5638 0.644567 0 0 1.00058 3.16381e-05
1337 6.57063 8.61507 1.24686 0 0 1.00058 3.71901e-05
420 6.82994 7.7752 1.04607 0 0 1.00058 3.4333e-05
417 6.90909 7.1673 0.155566 0 0 1.00057 3.25441e-05
419 7.74791 7.32839 0.737382 0 0 1.00058 3.65109e-05
1258 7.74504 7.69697 1.68599 0 0 1.00058 3.89518e-05
499 7.60496 8.41765 0.718922 0 0 1.00058 3.99811e-05
421 8.47967 7.20187 0.0157427 0 0 1.00057 3.80473e-05
1261 8.56238 7.05132 1.55291 0 0 1.00057 3.92655e-05
424 8.75783 7.8683 0.868492 0 0 1.00058 4.28813e-05
423 9.42879 7.20862 0.664972 0 0 1.00057 4.10745e-05
1262 9.60848 8.20598 1.43607 0 0 1.00057 4.92193e-05
501 8.57926 8.57599 0.0794876 0 0 1.00058 4.49992e-05
1341 8.52707 8.66936 1.38824 0 0 1.00058 4.68861e-05
1265 10.249 7.44894 1.58593 0 0 1.00057 4.69251e-05
428 10.2921 8.18663 0.696781 0 0 1.00057 5.0022e-05
427 11.1629 7.55257 0.831144 0 0 1.00057 4.8242e-05
1266 11.1898 8.32294 1.43157 0 0 1.00057 5.52371e-05
426 10.984 8.45777 0.0192475 0 0 1.00057 5.29906e-05
429 11.831 7.77284 0.0396416 0 0 1.00057 5.03453e-05
432 11.9662 8.48184 0.726097 0 0 1.00057 5.61777e-05
1269 12.0224 7.48121 1.58221 0 0 1.00057 5.15755e-05
356 13.3488 7.0868 0.583599 0 0 1.00058 4.69102e-05
431 12.8118 7.93603 0.599963 0 0 1.00057 5.28578e-05
1270 12.7383 8.37618 1.50326 0 0 1.00057 5.89427e-05
1273 13.5289 7.78005 1.47787 0 0 1.00058 5.5407e-05
360 14.9774 7.27212 0.624778 0 0 1.00058 4.90536e-05
435 14.2869 7.95875 0.499588 0 0 1.00058 5.41597e-05
1194 14.1649 7.17148 1.37225 0 0 1.00058 4.88934e-05
1277 14.9742 8.05973 1.36885 0 0 1.00058 5.70262e-05
1274 14.3859 8.71484 1.5681 0 0 1.00058 6.40216e-05
436 13.6339 8.71984 0.782101 0 0 1.00058 6.04663e-05
364 16.3115 7.34544 0.889897 0 0 1.00058 4.80525e-05
439 15.7929 8.27489 0.870276 0 0 1.00058 5.68363e-05
1198 15.8487 7.5261 1.65628 0 0 1.00058 5.34523e-05
441 16.5314 8.36783 0.149543 0 0 1.00058 5.57224e-05
443 16.9785 8.27317 1.09934 0 0 1.00058 5.64233e-05
362 17.1043 7.31118 0.293071 0 0 1.00058 4.72966e-05
368 17.6729 7.52596 1.10591 0 0 1.00057 4.99166e-05
445 17.7336 8.31012 0.308116 0 0 1.00058 5.49988e-05
447 18.3984 8.3015 1.03782 0 0 1.00058 5.41342e-05
366 18.4699 7.43317 0.228651 0 0 1.00058 4.69465e-05
372 18.9206 7.34827 1.15808 0 0 1.00058 4.76904e-05
370 19.6411 7.67656 0.623198 0 0 1.00057 4.67807e-05
451 19.5928 8.52987 1.18635 0 0 1.00057 5.51218e-05
449 19.1033 8.51941 0.202488 0 0 1.00058 5.2589e-05
373 20.5656 7.12385 0.608544 0 0 1.00057 4.17627e-05
453 20.4098 8.55158 0.373783 0 0 1.00057 5.15762e-05
376 20.4981 8.07171 1.32176 0 0 1.00058 4.98282e-05
374 21.271 7.90487 0.644809 0 0 1.00057 4.51917e-05
377 22.1566 7.12154 0.67544 0 0 1.00057 3.82593e-05
379 23.1066 7.16047 1.20903 0 0 1.00058 3.64103e-05
380 22.0975 8.15961 1.14617 0 0 1.00058 4.47943e-05
459 23.0897 8.72571 1.01664 0 0 1.00058 4.34883e-05
378 22.8527 7.96683 0.389259 0 0 1.00057 3.98755e-05
381 23.7987 7.23302 0.284292 0 0 1.00057 3.35611e-05
384 23.9126 7.83077 1.07298 0 0 1.00057 3.59552e-05
461 23.9379 8.60279 0.362837 0 0 1.00057 3.80554e-05
463 24.7799 8.61511 1.00329 0 0 1.00057 3.53192e-05
382 24.7472 7.80008 0.285585 0 0 1.00057 3.17898e-05
385 25.5411 7.15463 0.495615 0 0 1.00057 2.65227e-05
388 25.528 7.86278 1.24583 0 0 1.00057 2.94924e-05
467 26.4079 8.46674 0.997759 0 0 1.00058 2.6941e-05
386 26.4461 7.68865 0.376927 0 0 1.00057 2.48416e-05
465 25.6241 8.59486 0.316583 0 0 1.00058 3.06968e-05
390 28.0332 7.33374 0.523243 0 0 1.00057 1.74231e-05
392 27.1477 7.51418 1.33069 0 0 1.00057 2.19911e-05
471 28.1342 8.1767 1.21176 0 0 1.00057 1.86054e-05
469 27.344 8.17749 0.434168 0 0 1.00058 2.16772e-05
394 29.8637 7.12148 0.50896 0 0 1.00058 1.04646e-05
396 28.9515 7.37354 1.23083 0 0 1.00057 1.41986e-05
474 29.8874 8.58695 0.5391 0 0 1.00057 1.09744e-05
475 29.799 7.8957 1.27985 0 0 1.00057 1.12541e-05
473 29.0046 8.0012 0.416857 0 0 1.00057 1.42434e-05
400 30.6083 7.22481 1.18082 0 0 1.00058 7.7594e-06
479 31.5297 7.88404 1.29441 0 0 1.00057 4.9844e-06
480 30.7152 8.63011 1.18841 0 0 1.00057 7.65499e-06
477 30.9162 7.98917 0.386012 0 0 1.00057 6.83566e-06
478 31.7063 8.66498 0.394072 0 0 1.00058 3.98037e-06
482 1.3805 10.1905 0.265485 0 0 1.00057 1.08814e-05
483 1.29914 9.28968 1.19398 0 0 1.00058 1.09506e-05
484 0.521131 9.93336 0.904383 0 0 1.00058 7.30399e-06
481 0.638421 9.32509 0.124985 0 0 1.00057 8.35455e-06
1322 1.08375 10.0617 1.74508 0 0 1.00058 9.8225e-06
485 2.03624 9.3063 0.4398 0 0 1.00057 1.43296e-05
488 2.09298 10.192 0.97077 0 0 1.00058 1.43654e-05
486 2.86751 10.0403 0.0788108 0 0 1.00058 1.83182e-05
487 2.6728 9.23587 1.20747 0 0 1.00058 1.734e-05
1326 3.05377 9.97045 1.66332 0 0 1.00057 1.98047e-05
489 3.37996 9.09993 0.0920552 0 0 1.00058 2.05909e-05
1329 3.53933 8.96249 1.66368 0 0 1.00058 2.18814e-05
492 3.67773 9.74446 0.741714 0 0 1.00057 2.24596e-05
496 4.93848 9.6054 0.568424 0 0 1.00058 2.97081e-05
1330 4.45761 9.59865 1.58912 0 0 1.00057 2.77181e-05
1409 3.82717 10.4751 1.44208 0 0 1.00057 2.4155e-05
571 4.39768 10.5532 0.533481 0 0 1.00058 2.70175e-05
500 6.6279 9.33702 0.5118 0 0 1.00058 3.84429e-05
1334 5.70285 9.40423 1.17737 0 0 1.00058 3.39573e-05
1417 6.62593 10.0339 1.19348 0 0 1.00057 4.08821e-05
575 5.74164 10.2617 0.444495 0 0 1.00058 3.51776e-05
1413 5.12526 10.3924 1.46318 0 0 1.00058 3.25696e-05
1338 7.59796 9.24222 1.18946 0 0 1.00058 4.45112e-05
1421 8.12466 10.0962 1.3401 0 0 1.00058 5.10343e-05
579 7.33703 10.1626 0.467091 0 0 1.00058 4.51606e-05
504 8.43155 9.43112 0.57219 0 0 1.00058 4.85642e-05
503 9.4515 8.95719 0.715063 0 0 1.00057 5.1452e-05
1342 9.2481 9.69102 1.39878 0 0 1.00057 5.54989e-05
583 9.23159 10.3565 0.673785 0 0 1.00058 5.69937e-05
508 10.1577 9.82382 0.66809 0 0 1.00058 5.94695e-05
1345 10.384 9.08285 1.40964 0 0 1.00057 5.75855e-05
507 11.0421 9.24218 0.664829 0 0 1.00058 5.91713e-05
1346 11.2124 9.70512 1.61807 0 0 1.00058 6.56383e-05
512 11.7664 10.1353 0.725813 0 0 1.00058 6.75106e-05
1349 11.9665 9.21916 1.33877 0 0 1.00057 6.36289e-05
511 12.7186 9.46673 0.691817 0 0 1.00058 6.53718e-05
1353 13.2643 9.32173 1.6129 0 0 1.00057 6.91537e-05
1350 12.611 10.1833 1.58477 0 0 1.00058 7.40278e-05
510 12.3603 10.331 0.0283421 0 0 1.00058 6.94789e-05
516 13.437 10.2031 0.949467 0 0 1.00057 7.21875e-05
515 14.2004 9.51887 0.850726 0 0 1.00058 6.70536e-05
1354 14.1817 10.2228 1.70028 0 0 1.00058 7.74107e-05
517 14.9247 10.0086 0.218362 0 0 1.00058 7.05898e-05
1357 15.0165 9.68438 1.76265 0 0 1.00058 7.33791e-05
514 14.0248 10.4629 0.0282891 0 0 1.00057 7.40897e-05
440 15.1397 9.0951 0.780342 0 0 1.00058 6.35521e-05
444 16.5969 9.23488 1.13257 0 0 1.00058 6.47618e-05
519 15.8123 9.87135 1.01994 0 0 1.00058 7.048e-05
521 16.3415 10.2182 0.235671 0 0 1.00058 7.02098e-05
438 15.9472 9.20792 0.127865 0 0 1.00058 6.25935e-05
523 17.1712 10.1228 0.972544 0 0 1.00058 7.04732e-05
442 17.1673 9.20999 0.26487 0 0 1.00058 6.18486e-05
448 17.7872 9.26776 1.11445 0 0 1.00058 6.30519e-05
525 17.8121 10.2587 0.191282 0 0 1.00058 6.79065e-05
527 18.4222 10.1692 1.07822 0 0 1.00058 6.76569e-05
446 18.4192 9.3918 0.121407 0 0 1.00058 6.017e-05
452 18.9729 9.26351 0.955098 0 0 1.00057 6.1035e-05
529 19.2177 10.1384 0.309444 0 0 1.00058 6.43484e-05
1369 19.3109 10.0107 1.71944 0 0 1.00057 6.8592e-05
450 19.8579 9.38508 0.221368 0 0 1.00057 5.80688e-05
531 20.092 10.3693 0.883624 0 0 1.00058 6.32301e-05
455 21.2518 8.91367 1.04717 0 0 1.00058 5.19187e-05
456 20.4479 9.43607 1.05095 0 0 1.00058 5.78254e-05
533 20.5842 10.29 0.0679207 0 0 1.00058 5.98028e-05
535 21.4829 10.3745 0.792834 0 0 1.00058 5.7643e-05
1373 20.8283 10.2142 1.68133 0 0 1.00058 6.37653e-05
454 21.3424 9.58314 0.206927 0 0 1.00058 5.328e-05
457 22.1513 8.85 0.269311 0 0 1.00058 4.67512e-05