ITEM: TIMESTEP
48000
ITEM: NUMBER OF ATOMS
32000
ITEM: BOX BOUNDS pp pp pp
0.0000000000000000e+00 3.1748021039364001e+01
0.0000000000000000e+00 3.1748021039364001e+01
0.0000000000000000e+00 3.1748021039364001e+01
ITEM: ATOMS id x y z c_phase c_nbond c_rho v_omega
4 0.256355 1.09006 0.461788 0 0 1.00103 2.36531e-06
83 1.20365 1.50596 0.770589 0 0 1.00103 4.29049e-06
842 0.819965 0.675099 1.39214 0 0 1.00103 2.85948e-06
921 0.248077 1.60636 1.37317 0 0 1.00103 3.05741e-06
8 1.81064 0.563109 1.00417 0 0 1.00103 3.76517e-06
85 2.01844 1.19983 0.191724 0 0 1.00103 5.07672e-06
925 2.06805 1.33753 1.72367 0 0 1.00103 5.30326e-06
6 2.59296 0.348461 0.176196 0 0 1.00103 4.33324e-06
87 2.86453 1.12422 0.846377 0 0 1.00103 5.99734e-06
846 2.77044 0.409183 1.71237 0 0 1.00103 4.52613e-06
12 3.52887 0.390374 0.939309 0 0 1.00103 5.32539e-06
929 3.8577 1.1445 1.67269 0 0 1.00103 7.1434e-06
10 4.20885 0.249563 0.288054 0 0 1.00103 5.37737e-06
850 4.42355 0.288953 1.61115 0 0 1.00103 6.00862e-06
91 4.29792 1.206 0.704752 0 0 1.00103 7.87399e-06
93 5.17258 0.901784 0.356022 0 0 1.00103 7.63673e-06
95 6.08035 0.547949 0.942017 0 0 1.00103 6.98246e-06
933 5.27537 0.957577 1.42791 0 0 1.00104 8.02466e-06
934 6.23653 1.41144 1.47004 0 0 1.00103 9.75004e-06
94 6.08354 1.65015 0.138321 0 0 1.00103 1.04135e-05
97 6.79415 0.611095 0.205169 0 0 1.00103 7.26334e-06
937 6.82597 0.205429 1.67655 0 0 1.00103 6.125e-06
99 7.56604 0.410068 0.939814 0 0 1.00103 6.75104e-06
938 7.71369 1.20181 1.54827 0 0 1.00103 9.73451e-06
100 6.97111 1.36226 0.777298 0 0 1.00103 9.9674e-06
98 7.88551 1.37756 0.118978 0 0 1.00103 1.00746e-05
941 8.38687 0.40174 1.61104 0 0 1.00103 6.94552e-06
101 8.50425 0.574115 0.208308 0 0 1.00103 7.08327e-06
103 9.25621 0.505234 1.06428 0 0 1.00103 6.48072e-06
945 9.7992 0.194373 1.74771 0 0 1.00103 4.73291e-06
105 9.9122 0.570894 0.113244 0 0 1.00103 6.08751e-06
102 9.38122 1.29573 0.220712 0 0 1.00103 9.60567e-06
104 8.57178 1.32262 0.930617 0 0 1.00103 9.97002e-06
942 9.56247 1.34409 1.72281 0 0 1.00103 1.04719e-05
108 10.2553 1.24138 1.06631 0 0 1.00103 9.08408e-06
107 10.597 0.342977 0.838145 0 0 1.00103 4.85864e-06
949 11.5469 0.363138 1.41032 0 0 1.00103 4.42008e-06
946 11.0239 0.995641 1.72292 0 0 1.00103 8.03335e-06
112 11.6798 1.20748 0.782471 0 0 1.00103 8.57671e-06
106 10.8202 1.36041 0.180947 0 0 1.00103 9.31854e-06
111 12.3125 0.538995 0.52142 0 0 1.00103 4.50233e-06
953 13.0665 0.696222 1.37326 0 0 1.00103 4.58759e-06
950 12.4955 1.36926 1.45096 0 0 1.00104 8.79792e-06
116 13.2979 1.51831 0.613404 0 0 1.00104 8.78433e-06
40 14.4682 0.116702 0.782419 0 0 1.00103 4.56143e-07
115 13.9167 0.815313 0.818836 0 0 1.00103 4.22805e-06
117 14.5554 1.26718 0.126049 0 0 1.00103 5.96489e-06
874 13.6892 2.14485e-06 1.62683 0 0 1.00103 6.05443e-07
957 14.7391 0.997457 1.48356 0 0 1.00103 4.84312e-06
954 14.0224 1.6661 1.45532 0 0 1.00104 8.84361e-06
119 15.3791 1.44128 0.665134 0 0 1.00103 6.38148e-06
44 15.9674 0.753864 0.790125 0 0 1.00103 2.31759e-06
878 15.2724 0.388537 1.63409 0 0 1.00103 5.746e-07
961 16.1397 1.50818 1.4289 0 0 1.00104 6.67104e-06
38 15.2938 0.589586 0.0685605 0 0 1.00103 1.44274e-06
882 16.7836 0.854665 1.35836 0 0 1.00103 2.31551e-06
123 17.0687 1.73888 0.703802 0 0 1.00103 7.21269e-06
48 17.5251 1.00102 0.568289 0 0 1.00103 2.95443e-06
886 18.2041 1.14373 1.42758 0 0 1.00103 4.13098e-06
47 18.1725 0.328282 0.695717 0 0 1.00103 1.74663e-07
885 17.2842 0.0901505 1.40487 0 0 1.00103 -1.3322e-06
51 19.5879 0.56795 0.692789 0 0 1.00103 1.6013e-06
52 19.0549 1.25449 0.70482 0 0 1.00103 4.77795e-06
889 19.0756 0.681122 1.56649 0 0 1.00103 1.53677e-06
890 19.9984 1.58826 1.70143 0 0 1.00104 7.55947e-06
55 21.3005 1.0947 1.08974 0 0 1.00104 4.98498e-06
56 20.5335 1.44672 0.944036 0 0 1.00104 6.23549e-06
54 21.4773 1.54544 0.207268 0 0 1.00104 7.52813e-06
893 20.4594 0.577869 1.41308 0 0 1.00104 2.86486e-06
53 20.3105 0.568574 0.0604866 0 0 1.00104 2.88407e-06
17534 20.9541 0.141198 0.259394 0 0 1.00104 7.13275e-07
57 22.1909 1.11981 0.543928 0 0 1.00104 5.8641e-06
59 23.0228 1.277 1.4054 0 0 1.00104 6.84082e-06
17538 22.7563 0.402253 0.451063 0 0 1.00103 2.79623e-06
17540 21.7562 0.203992 0.861367 0 0 1.00104 1.93053e-06
63 24.4602 1.24843 1.39951 0 0 1.00103 7.20586e-06
61 23.7374 1.19495 0.550834 0 0 1.00103 6.57677e-06
17544 23.53 0.369368 1.23901 0 0 1.00103 3.66619e-06
17542 24.3391 0.34613 0.579117 0 0 1.00103 3.8294e-06
65 25.1252 1.14391 0.510257 0 0 1.00103 6.56606e-06
67 26.1321 1.14972 1.14576 0 0 1.00103 6.15809e-06
66 26.1533 1.7621 0.408005 0 0 1.00103 7.80494e-06
17548 25.2051 0.58145 1.33543 0 0 1.00103 4.97854e-06
17546 25.9127 0.300886 0.327877 0 0 1.00103 4.02374e-06
71 27.7461 1.12007 0.86229 0 0 1.00103 4.99978e-06
72 26.9891 1.75606 1.23532 0 0 1.00103 7.05947e-06
69 26.8899 0.959239 0.242871 0 0 1.00103 5.27234e-06
17552 27.0897 0.354321 0.997303 0 0 1.00103 3.70931e-06
17556 28.3494 0.206812 0.72831 0 0 1.00103 2.53657e-06
913 28.4864 0.88664 1.41423 0 0 1.00103 3.7288e-06
76 28.8703 1.71799 0.72274 0 0 1.00103 4.54318e-06
914 29.5509 1.36477 1.55712 0 0 1.00103 3.3507e-06
917 29.8631 0.490319 1.44672 0 0 1.00103 1.64669e-06
75 29.3483 0.749578 0.612273 0 0 1.00103 2.42483e-06
841 31.6155 0.304089 1.25113 0 0 1.00103 -7.97211e-07
79 30.7865 0.65046 0.474755 0 0 1.00103 5.69396e-07
80 30.2875 1.46199 0.761465 0 0 1.00103 2.17249e-06
918 31.0078 1.12743 1.36899 0 0 1.00103 9.47786e-07
82 1.45569 2.23713 0.0958989 0 0 1.00103 5.73391e-06
84 0.487001 2.35434 0.793261 0 0 1.00103 4.27826e-06
922 1.47921 2.15155 1.57385 0 0 1.00103 5.80006e-06
1001 0.81804 2.96475 1.54129 0 0 1.00103 5.45716e-06
161 0.772838 3.04573 0.113147 0 0 1.00103 5.45858e-06
163 1.7298 2.96232 0.920331 0 0 1.00103 7.2908e-06
88 2.25935 2.07738 0.770495 0 0 1.00103 6.70262e-06
167 3.14122 2.80447 0.838106 0 0 1.00103 9.67503e-06
926 3.0189 1.79375 1.52485 0 0 1.00103 7.54896e-06
86 3.07531 1.94169 0.0369963 0 0 1.00103 7.83714e-06
1005 2.54646 2.71052 1.72336 0 0 1.00103 8.34824e-06
1009 3.80921 2.80606 1.62666 0 0 1.00103 1.1082e-05
92 3.77815 2.00064 0.77176 0 0 1.00103 9.05956e-06
171 4.72346 2.63964 0.750982 0 0 1.00103 1.16234e-05
930 4.58724 1.97175 1.57281 0 0 1.00103 1.00048e-05
170 4.90249 3.44336 0.126115 0 0 1.00103 1.4115e-05
172 4.08795 3.46125 0.870053 0 0 1.00103 1.24646e-05
96 5.33561 1.82289 0.812292 0 0 1.00103 1.03756e-05
175 6.24981 2.37228 0.940812 0 0 1.00103 1.29949e-05
173 5.53873 2.54569 0.0172979 0 0 1.00103 1.26808e-05
174 6.4639 3.05801 0.141664 0 0 1.00103 1.56327e-05
176 5.60367 3.21249 1.09804 0 0 1.00103 1.4908e-05
1017 7.1528 2.17185 1.52508 0 0 1.00103 1.31382e-05
177 7.17712 2.09962 0.101521 0 0 1.00103 1.25352e-05
179 8.03506 2.15842 0.857016 0 0 1.00103 1.34392e-05
180 7.25562 2.88671 0.779507 0 0 1.00103 1.58463e-05
1018 8.25008 2.9055 1.48776 0 0 1.00103 1.7001e-05
259 8.3219 3.48942 0.571291 0 0 1.00103 1.96281e-05
1021 8.86145 2.07841 1.61762 0 0 1.00103 1.3597e-05
181 8.92624 2.09993 0.0222322 0 0 1.00103 1.31023e-05
183 9.63713 2.09352 0.925803 0 0 1.00103 1.36343e-05
1022 10.0102 2.84351 1.49084 0 0 1.00103 1.83034e-05
184 9.07219 2.91522 0.689574 0 0 1.00103 1.70851e-05
182 9.91907 2.98287 0.0256409 0 0 1.00103 1.81515e-05
185 10.3018 2.11653 0.192408 0 0 1.00103 1.35413e-05
188 10.7905 2.7716 0.85019 0 0 1.00103 1.72356e-05
187 11.3723 2.06332 0.91603 0 0 1.00104 1.29374e-05
1026 11.6912 2.86021 1.59183 0 0 1.00103 1.79182e-05
186 11.6191 3.05425 0.162766 0 0 1.00103 1.7988e-05
1025 10.7945 1.92372 1.73107 0 0 1.00104 1.29404e-05
1105 10.9966 3.49067 1.63015 0 0 1.00103 2.15239e-05
1029 12.2959 2.21825 1.62197 0 0 1.00104 1.45979e-05
192 12.4436 2.99104 0.832075 0 0 1.00103 1.86234e-05
191 12.7461 2.13555 0.755203 0 0 1.00104 1.38714e-05
196 13.532 3.15065 0.822122 0 0 1.00104 1.91755e-05
1033 13.8127 2.53168 1.69934 0 0 1.00104 1.46194e-05
195 14.216 2.71255 0.850263 0 0 1.00104 1.59184e-05
120 14.8373 2.18681 0.915631 0 0 1.00104 1.12089e-05
114 14.142 1.96269 0.0214344 0 0 1.00104 1.11656e-05
194 14.3823 3.37048 0.0498089 0 0 1.00103 1.95076e-05
1037 15.1769 3.11691 1.55333 0 0 1.00104 1.71505e-05
197 15.1587 3.01908 0.040256 0 0 1.00104 1.59345e-05
199 15.875 3.31579 0.864206 0 0 1.00104 1.80117e-05
958 15.6349 2.25361 1.47265 0 0 1.00103 1.23516e-05
118 15.6839 2.37491 0.112423 0 0 1.00103 1.16546e-05
124 16.5093 2.48193 0.715644 0 0 1.00103 1.19208e-05
1041 16.5388 3.33625 1.5177 0 0 1.00103 1.81016e-05
962 17.1945 2.66107 1.55089 0 0 1.00103 1.34553e-05
203 17.4101 3.4025 0.660389 0 0 1.00103 1.77888e-05
965 17.8351 2.02003 1.56604 0 0 1.00103 8.56059e-06
128 17.8937 2.66406 0.661383 0 0 1.00103 1.2715e-05
1045 18.1446 3.46257 1.49962 0 0 1.00103 1.76159e-05
127 18.4905 2.02086 0.744186 0 0 1.00103 8.77318e-06
969 19.2287 2.04958 1.49624 0 0 1.00103 9.7017e-06
207 18.9205 3.40268 0.720605 0 0 1.00103 1.66234e-05
966 18.8763 2.89341 1.61355 0 0 1.00103 1.44578e-05
129 19.4151 2.12639 0.0293031 0 0 1.00103 9.0286e-06
132 19.7213 3.0141 1.02838 0 0 1.00103 1.49913e-05
131 20.0687 2.19699 0.842867 0 0 1.00103 9.76928e-06
130 20.3866 2.99853 0.114082 0 0 1.00103 1.43504e-05
133 20.8718 2.24431 0.201054 0 0 1.00104 1.04792e-05
135 21.6279 2.41583 0.947046 0 0 1.00104 1.13435e-05
973 20.95 2.52593 1.74058 0 0 1.00104 1.27013e-05
136 21.0323 3.20969 1.05861 0 0 1.00104 1.58529e-05
58 23.223 1.93472 0.474073 0 0 1.00104 9.23416e-06
134 21.9454 3.29075 0.467104 0 0 1.00104 1.56697e-05
60 22.5319 2.04392 1.32798 0 0 1.00104 1.03151e-05
137 22.4959 2.49323 0.482157 0 0 1.00104 1.18439e-05
140 22.7949 3.43244 1.2113 0 0 1.00104 1.65553e-05
139 23.5167 2.99202 1.49499 0 0 1.00104 1.37466e-05
62 24.7638 2.03902 0.714095 0 0 1.00103 9.30416e-06
64 23.886 2.11909 1.36138 0 0 1.00103 1.02138e-05
141 24.1896 2.75712 0.612084 0 0 1.00103 1.20293e-05
143 24.9539 2.90926 1.53574 0 0 1.00103 1.25917e-05
68 25.4934 1.99194 1.42219 0 0 1.00103 9.11245e-06
147 26.3558 2.5765 1.35057 0 0 1.00103 1.01346e-05
145 25.5926 2.72205 0.535154 0 0 1.00103 1.09961e-05
146 26.3858 3.47395 0.678548 0 0 1.00103 1.23925e-05
148 25.7727 3.50997 1.50679 0 0 1.00103 1.34296e-05
70 27.8597 1.90871 0.37228 0 0 1.00103 6.26496e-06
149 26.9541 2.54159 0.499071 0 0 1.00103 8.86162e-06
152 27.0733 3.38785 1.51398 0 0 1.00103 1.12388e-05
151 27.8783 2.63682 1.20858 0 0 1.00103 7.69389e-06
150 27.6188 3.41277 0.61018 0 0 1.00103 9.92231e-06
153 28.6451 2.64746 0.334845 0 0 1.00103 6.53105e-06
156 28.7441 3.32564 1.17222 0 0 1.00103 7.7558e-06
993 28.834 2.26558 1.5002 0 0 1.00103 5.82232e-06
155 29.7597 2.40736 0.864203 0 0 1.00103 4.39689e-06
154 29.6411 3.12177 0.273548 0 0 1.00104 5.62719e-06
997 30.279 2.11668 1.68561 0 0 1.00103 3.48665e-06
159 31.2195 2.1077 0.908825 0 0 1.00103 1.70686e-06
160 30.5927 2.9577 0.981112 0 0 1.00103 3.40207e-06
239 31.5235 3.44642 0.954049 0 0 1.00103 2.50395e-06
998 31.4015 2.80816 1.7146 0 0 1.00103 2.18205e-06
237 30.6292 3.52239 0.150125 0 0 1.00104 4.35136e-06
157 30.697 2.13546 0.0302813 0 0 1.00104 2.57818e-06
158 31.5352 2.7487 0.0662606 0 0 1.00103 1.71786e-06
164 0.824547 3.70777 0.896412 0 0 1.00103 6.22597e-06
241 0.763006 4.56245 0.444015 0 0 1.00103 6.81973e-06
162 1.58997 3.65215 0.0612152 0 0 1.00103 7.64128e-06
244 0.794512 5.20164 1.26201 0 0 1.00103 7.71733e-06
1081 1.08281 4.28186 1.75283 0 0 1.00103 7.35728e-06
243 1.7561 4.39029 0.961796 0 0 1.00103 9.26109e-06
168 2.44013 3.66998 0.843654 0 0 1.00103 9.64845e-06
247 3.2305 4.34738 1.0965 0 0 1.00103 1.28482e-05
166 3.26548 3.63951 0.171962 0 0 1.00103 1.15265e-05
245 2.55721 4.54342 0.26415 0 0 1.00103 1.11958e-05
248 2.29278 5.14277 1.33662 0 0 1.00103 1.18208e-05
1006 3.09786 3.62508 1.75211 0 0 1.00103 1.14114e-05
246 3.44523 5.02241 0.257908 0 0 1.00103 1.42592e-05
249 4.13726 4.20137 0.164485 0 0 1.00103 1.46111e-05
251 4.84591 4.11422 1.13781 0 0 1.00103 1.61391e-05
252 3.95473 4.96443 1.24331 0 0 1.00103 1.61205e-05
331 5.02342 5.2515 1.18486 0 0 1.00103 1.95842e-05
250 5.03983 4.67206 0.293195 0 0 1.00103 1.78258e-05
253 5.79629 3.89386 0.299217 0 0 1.00103 1.72237e-05
255 6.57352 3.77962 0.998659 0 0 1.00103 1.82802e-05
254 6.69438 4.45198 0.230856 0 0 1.00103 2.0728e-05
256 5.84916 4.55082 1.23129 0 0 1.00103 1.95884e-05
335 6.71419 5.16756 0.933543 0 0 1.00103 2.3999e-05
1097 7.54767 3.54946 1.62411 0 0 1.00103 1.93082e-05
260 7.61156 4.18111 0.832254 0 0 1.00103 2.13596e-05
258 8.37324 4.32688 0.00535266 0 0 1.00103 2.32841e-05
1177 7.59203 4.90958 1.58753 0 0 1.00103 2.52809e-05
337 7.48163 5.04719 0.110495 0 0 1.00103 2.46248e-05
339 8.48884 5.03745 0.746834 0 0 1.00103 2.69665e-05
1098 8.49539 4.30662 1.464 0 0 1.00103 2.3765e-05
1101 9.24069 3.59559 1.44499 0 0 1.00103 2.09779e-05
264 9.33756 4.30026 0.69005 0 0 1.00103 2.45382e-05
1181 9.50741 4.99549 1.47964 0 0 1.00102 2.92757e-05
263 10.155 3.63373 0.783645 0 0 1.00103 2.16356e-05
262 10.2635 4.48262 0.00135265 0 0 1.00103 2.65118e-05
1102 10.3043 4.31787 1.55907 0 0 1.00103 2.6047e-05
268 11.0663 4.41246 0.788492 0 0 1.00103 2.69185e-05
265 10.9563 3.682 0.0851859 0 0 1.00103 2.24807e-05
343 10.2551 5.12006 0.748608 0 0 1.00102 3.02166e-05
1185 11.2609 5.15773 1.48676 0 0 1.00103 3.23101e-05
267 11.8058 3.79818 0.875476 0 0 1.00103 2.28136e-05
266 11.8834 4.67285 0.0160067 0 0 1.00103 2.78503e-05
1106 11.9191 4.40094 1.72501 0 0 1.00103 2.73432e-05
269 12.6267 4.03922 0.204152 0 0 1.00103 2.40205e-05
1109 12.6211 3.71566 1.67016 0 0 1.00103 2.37758e-05
272 12.8182 4.58075 1.00058 0 0 1.00103 2.8145e-05
347 12.0828 5.17776 0.870424 0 0 1.00103 3.16835e-05
270 13.4931 4.95477 0.190351 0 0 1.00103 2.87706e-05
271 13.5683 4.01777 1.04573 0 0 1.00103 2.54486e-05
273 13.8932 4.11315 0.0486953 0 0 1.00103 2.37901e-05
1113 14.3043 4.49002 1.71554 0 0 1.00103 2.79252e-05
275 14.6085 4.38745 0.753997 0 0 1.00104 2.67071e-05
1034 14.8499 3.85726 1.58909 0 0 1.00104 2.31286e-05
200 15.3222 3.926 0.69348 0 0 1.00104 2.3053e-05
277 15.5867 4.67554 0.0880538 0 0 1.00104 2.65002e-05
1117 15.7457 4.89227 1.48952 0 0 1.00104 2.97379e-05
279 16.5388 5.06125 0.838926 0 0 1.00104 2.96424e-05
198 16.2709 4.13589 0.105831 0 0 1.00104 2.19677e-05
1038 16.4378 4.3661 1.60737 0 0 1.00104 2.44181e-05
204 16.9937 4.17767 0.879609 0 0 1.00103 2.27587e-05
281 17.2965 4.96225 0.127011 0 0 1.00103 2.66284e-05
1121 17.4568 5.23312 1.6717 0 0 1.00104 3.07682e-05
1042 17.7131 4.24988 1.65708 0 0 1.00103 2.43733e-05
283 18.0133 4.99731 0.893191 0 0 1.00103 2.75082e-05
208 18.518 4.25714 0.785887 0 0 1.00103 2.216e-05
209 19.8625 3.66697 0.205715 0 0 1.00103 1.84464e-05
285 18.8029 5.12714 0.0494561 0 0 1.00103 2.74472e-05
1046 19.1389 4.22403 1.62448 0 0 1.00103 2.27561e-05
287 19.4506 5.15659 1.07921 0 0 1.00103 2.83983e-05
206 19.3472 4.42906 0.080932 0 0 1.00103 2.22533e-05
212 19.9974 4.40791 0.964709 0 0 1.00103 2.26452e-05
213 21.3416 3.88001 0.309019 0 0 1.00104 1.944e-05
210 20.7273 4.57411 0.264117 0 0 1.00103 2.31571e-05
211 20.7626 4.02032 1.27463 0 0 1.00104 2.06961e-05
216 21.5285 4.73167 1.18038 0 0 1.00103 2.35936e-05
214 22.2228 4.97271 0.504494 0 0 1.00103 2.40431e-05
215 22.2887 4.22968 1.39564 0 0 1.00104 1.99958e-05
217 22.8968 4.21406 0.599397 0 0 1.00104 2.00867e-05
220 23.0181 5.20042 1.2923 0 0 1.00103 2.46764e-05
138 23.6592 3.58675 0.71128 0 0 1.00104 1.57631e-05
142 25.0022 3.63236 0.746301 0 0 1.00103 1.46781e-05
16179 23.6152 4.41766 0.0202753 0 0 1.00103 1.9379e-05
144 24.4363 3.86368 1.51617 0 0 1.00103 1.66418e-05
219 23.7732 4.63216 1.38251 0 0 1.00103 2.04186e-05
221 24.4825 4.64301 0.747107 0 0 1.00103 1.91436e-05
223 25.2989 4.55565 1.54065 0 0 1.00103 1.79834e-05
227 26.4657 4.41621 1.51119 0 0 1.00103 1.50886e-05
225 25.8498 4.56816 0.724246 0 0 1.00103 1.62165e-05
229 26.9075 4.35754 0.590337 0 0 1.00103 1.36545e-05
232 27.184 5.17055 1.36254 0 0 1.00103 1.51738e-05
231 27.8551 4.08659 1.394 0 0 1.00103 1.11209e-05
230 27.8135 4.82662 0.574356 0 0 1.00103 1.29333e-05
233 28.5667 3.85497 0.332183 0 0 1.00103 9.00674e-06
236 28.6637 4.62897 1.11658 0 0 1.00103 1.04873e-05
235 29.7823 3.68584 1.17269 0 0 1.00104 6.31269e-06
234 29.5483 4.26701 0.45132 0 0 1.00104 7.37415e-06
315 29.779 4.99133 1.28921 0 0 1.00104 7.89096e-06
240 30.5921 4.34543 1.02279 0 0 1.00104 5.22068e-06
238 31.5893 4.10372 0.33646 0 0 1.00103 2.66092e-06
317 30.8536 4.95289 0.459308 0 0 1.00103 4.5501e-06
319 31.6248 4.71463 1.35732 0 0 1.00104 2.92894e-06
242 1.63685 5.29452 0.442442 0 0 1.00103 9.73018e-06
323 1.58117 5.96352 1.26727 0 0 1.00103 1.04247e-05
324 1.06209 6.82305 1.45177 0 0 1.00103 9.28761e-06
321 0.765508 5.96804 0.444804 0 0 1.00103 7.94472e-06
398 0.256193 7.00598 0.592438 0 0 1.00103 6.68028e-06
399 0.217153 6.23045 1.36289 0 0 1.00103 6.17432e-06
322 1.77585 6.65193 0.548907 0 0 1.00103 1.14548e-05
328 2.5357 6.56748 1.22732 0 0 1.00103 1.40154e-05
325 2.66478 5.74675 0.46653 0 0 1.00103 1.3366e-05
327 3.13702 5.62882 1.34282 0 0 1.00103 1.4984e-05
326 3.34547 6.5126 0.448503 0 0 1.00103 1.68851e-05
332 4.13023 6.23237 1.12709 0 0 1.00103 1.89181e-05
329 4.28085 5.53603 0.439925 0 0 1.00103 1.78454e-05
330 4.976 6.14837 0.211297 0 0 1.00103 2.16391e-05
411 5.01008 6.69207 1.14868 0 0 1.00104 2.30395e-05
409 4.19635 6.9524 0.316077 0 0 1.00104 2.0624e-05
336 5.81227 5.83694 1.12399 0 0 1.00103 2.38579e-05
333 5.80956 5.3192 0.277019 0 0 1.00103 2.17671e-05
334 6.64737 5.95764 0.13039 0 0 1.00103 2.65527e-05
415 6.62969 6.46724 0.95936 0 0 1.00103 2.80907e-05
413 5.77185 6.65726 0.202218 0 0 1.00103 2.53405e-05
340 7.62568 5.71009 0.896106 0 0 1.00103 2.84356e-05
417 7.74098 6.40938 0.10286 0 0 1.00103 3.17342e-05
420 7.70087 6.89098 1.04288 0 0 1.00103 3.33987e-05
1257 7.65181 6.10817 1.76208 0 0 1.00103 3.11975e-05
1178 8.58074 5.63246 1.56602 0 0 1.00102 3.11043e-05
419 8.64451 6.47172 0.693493 0 0 1.00103 3.46256e-05
344 9.36538 5.68445 0.668111 0 0 1.00102 3.18671e-05
1261 9.55591 6.21709 1.51739 0 0 1.00102 3.66066e-05
1258 8.6698 6.79516 1.6452 0 0 1.00103 3.68312e-05
424 9.69404 7.02273 0.839134 0 0 1.00103 4.0026e-05
423 10.4441 6.45855 0.657659 0 0 1.00102 3.83989e-05
1182 10.5611 5.8166 1.44448 0 0 1.00102 3.56805e-05
345 11.181 5.28422 0.056512 0 0 1.00103 3.18098e-05
348 11.3743 6.08306 0.713138 0 0 1.00102 3.73978e-05
1265 11.4011 6.68262 1.56269 0 0 1.00102 4.27366e-05
346 12.1331 6.05385 0.0809688 0 0 1.00103 3.80854e-05
1186 12.1627 5.97704 1.47174 0 0 1.00103 3.8639e-05
349 12.9021 5.59368 0.0178292 0 0 1.00103 3.41107e-05
352 13.0364 6.31851 0.780657 0 0 1.00103 4.07397e-05
427 12.2827 6.90402 0.799852 0 0 1.00102 4.40867e-05
1269 13.2222 6.94618 1.53543 0 0 1.00103 4.74007e-05
351 13.4289 5.54494 1.05004 0 0 1.00103 3.50142e-05
1190 13.9983 6.4892 1.34513 0 0 1.00104 4.22061e-05
276 14.3262 5.32466 0.86448 0 0 1.00103 3.26813e-05
356 14.5787 6.80098 0.580416 0 0 1.00103 4.35052e-05
1114 15.0804 5.52739 1.58647 0 0 1.00103 3.52164e-05
355 15.1519 6.18989 0.791784 0 0 1.00103 3.87808e-05
1194 15.4784 6.98375 1.41242 0 0 1.00104 4.50843e-05
280 15.7693 5.53717 0.754729 0 0 1.00104 3.4135e-05
357 15.9061 6.23073 0.015949 0 0 1.00104 3.79346e-05
1197 16.198 6.45103 1.45532 0 0 1.00104 4.17463e-05
278 16.6207 5.63251 0.0322736 0 0 1.00104 3.22195e-05
359 16.8695 6.55955 0.799435 0 0 1.00104 4.04844e-05
1118 16.912 5.93922 1.69174 0 0 1.00104 3.7157e-05
361 17.451 6.56507 0.0389315 0 0 1.00104 3.85935e-05
284 17.5587 5.97091 0.955041 0 0 1.00104 3.47989e-05
363 18.2849 6.9204 1.13604 0 0 1.00104 4.04712e-05
282 18.1926 5.86308 0.235635 0 0 1.00103 3.25474e-05
288 18.736 5.94867 1.20801 0 0 1.00103 3.39573e-05
365 18.855 6.83687 0.359882 0 0 1.00103 3.96813e-05
367 19.409 6.95229 1.29949 0 0 1.00103 4.10214e-05
286 19.4227 6.01093 0.462881 0 0 1.00103 3.36442e-05
289 20.1977 5.39666 0.356721 0 0 1.00103 2.87473e-05
292 20.2741 6.12996 1.18267 0 0 1.00103 3.43096e-05
291 20.9921 5.54739 1.12889 0 0 1.00103 2.8725e-05
293 21.4926 5.75707 0.365807 0 0 1.00103 2.90306e-05
290 20.9958 6.69378 0.623032 0 0 1.00103 3.58163e-05
296 21.6553 6.69778 1.3704 0 0 1.00103 3.54526e-05
295 22.1569 5.789 1.32585 0 0 1.00103 2.94807e-05
294 22.2194 6.90532 0.633313 0 0 1.00103 3.42386e-05
297 22.9006 6.0965 0.757162 0 0 1.00103 2.89245e-05
16260 23.0713 6.93847 0.0375165 0 0 1.00103 3.22134e-05
218 23.7191 5.42588 0.550429 0 0 1.00103 2.36842e-05
299 23.7625 6.34725 1.28677 0 0 1.00103 2.87014e-05
224 24.5496 5.62178 1.32735 0 0 1.00103 2.34039e-05
301 24.628 6.24687 0.540227 0 0 1.00103 2.48965e-05
226 26.4242 5.37548 0.434701 0 0 1.00103 1.72858e-05
222 25.2861 5.40811 0.62892 0 0 1.00103 2.04625e-05
228 25.9776 5.49823 1.53454 0 0 1.00103 1.94284e-05
303 25.4427 6.44773 1.43942 0 0 1.00103 2.38235e-05
305 25.8905 6.31541 0.561918 0 0 1.00103 2.16448e-05
307 26.689 6.18397 1.35461 0 0 1.00103 1.93911e-05
306 26.7372 6.92589 0.680195 0 0 1.00103 2.03587e-05
311 28.1685 5.6694 1.39103 0 0 1.00103 1.35233e-05
309 27.4063 5.87764 0.632526 0 0 1.00103 1.6076e-05
312 27.6374 6.81237 1.45724 0 0 1.00103 1.72668e-05
310 28.3799 6.34601 0.691752 0 0 1.00103 1.35043e-05
313 29.0136 5.37051 0.674821 0 0 1.00103 1.01482e-05
316 29.2145 6.18391 1.43803 0 0 1.00103 1.10869e-05
393 29.3452 6.88548 0.653631 0 0 1.00103 1.11055e-05
16276 29.2689 6.02696 0.0187931 0 0 1.00103 1.01432e-05
314 30.1333 5.75939 0.796709 0 0 1.00103 7.40774e-06
16355 30.188 6.60742 0.0621723 0 0 1.00103 8.11529e-06
395 30.2494 6.66949 1.3 0 0 1.00103 7.82298e-06
318 31.688 5.48964 0.571181 0 0 1.00103 3.43531e-06
320 30.9583 5.72878 1.41686 0 0 1.00103 5.16092e-06
397 31.1556 6.44237 0.612647 0 0 1.00103 4.92496e-06
401 1.09405 7.53136 0.614299 0 0 1.00103 9.20034e-06
404 1.17689 8.39058 1.4316 0 0 1.00103 9.86334e-06
478 0.504463 8.62778 0.396801 0 0 1.00103 7.19291e-06
479 0.319574 7.88582 1.26538 0 0 1.00103 6.75442e-06
402 1.72045 8.20593 0.559049 0 0 1.00103 1.20608e-05
403 1.94055 7.49566 1.44024 0 0 1.00103 1.26998e-05
405 2.45572 7.3329 0.386913 0 0 1.00103 1.41436e-05
408 2.62713 8.08558 1.43653 0 0 1.00103 1.62691e-05
406 3.13055 7.99535 0.380169 0 0 1.00103 1.82793e-05
407 3.31594 7.18285 1.25991 0 0 1.00103 1.78053e-05
487 3.27788 8.71664 1.16348 0 0 1.00103 1.93656e-05
412 4.01653 7.71186 0.915814 0 0 1.00104 2.20331e-05
410 4.84546 7.52132 0.034363 0 0 1.00104 2.44313e-05
491 4.95322 8.07989 0.827209 0 0 1.00104 2.66114e-05
1250 4.87573 7.4014 1.73346 0 0 1.00104 2.58433e-05
1329 4.20842 8.33116 1.65981 0 0 1.00103 2.42649e-05
489 4.00185 8.4863 0.0930031 0 0 1.00103 2.25563e-05
1333 5.82296 7.87802 1.59746 0 0 1.00103 3.14967e-05
416 5.79825 7.20295 0.945268 0 0 1.00104 2.7891e-05
495 6.46557 7.76765 0.587864 0 0 1.00104 3.23249e-05
1334 6.49539 8.53004 1.17128 0 0 1.00103 3.58765e-05
414 7.06345 7.14962 0.209548 0 0 1.00103 3.18509e-05
1337 7.41345 7.72492 1.20202 0 0 1.00104 3.76254e-05
500 7.42033 8.43129 0.492309 0 0 1.00103 3.91032e-05
499 8.48762 7.51692 0.72166 0 0 1.00103 3.86407e-05
1338 8.46652 8.30293 1.16668 0 0 1.00103 4.41073e-05
501 9.54634 7.69695 0.0448309 0 0 1.00103 4.30667e-05
1341 9.50158 7.75896 1.3602 0 0 1.00103 4.51119e-05
504 9.4054 8.4946 0.55727 0 0 1.00103 4.80276e-05
503 10.4861 8.05009 0.672299 0 0 1.00102 4.86114e-05
1262 10.6433 7.30043 1.3825 0 0 1.00102 4.52917e-05
428 11.4044 7.42851 0.688125 0 0 1.00102 4.67702e-05
1345 11.5063 8.21156 1.37211 0 0 1.00102 5.31985e-05
1342 10.304 8.68213 1.36323 0 0 1.00102 5.32117e-05
507 12.2016 8.50442 0.657392 0 0 1.00102 5.51912e-05
1266 12.402 7.6545 1.42276 0 0 1.00102 5.15195e-05
429 12.9815 7.19021 0.012255 0 0 1.00103 4.61449e-05
432 13.132 7.8902 0.707434 0 0 1.00102 5.1885e-05
1349 13.2638 8.59984 1.38957 0 0 1.00102 5.90854e-05
1270 13.9978 7.92557 1.49829 0 0 1.00102 5.42282e-05
431 14.0101 7.50302 0.589947 0 0 1.00103 4.79338e-05
1273 14.8163 7.48012 1.47713 0 0 1.00104 5.23289e-05
436 14.8672 8.41467 0.774044 0 0 1.00103 5.63049e-05
435 15.5526 7.82573 0.558622 0 0 1.00104 5.02969e-05
1274 15.7129 8.60551 1.58425 0 0 1.00104 6.12816e-05
360 16.2201 7.22416 0.661274 0 0 1.00104 4.55436e-05
1277 16.3149 7.9968 1.39592 0 0 1.00105 5.32442e-05
437 16.4341 8.3192 0.0520643 0 0 1.00104 5.27339e-05
439 17.12 8.39425 0.902287 0 0 1.00104 5.3886e-05
1198 17.1798 7.70754 1.6969 0 0 1.00105 5.09432e-05
364 17.5201 7.50768 0.843429 0 0 1.00104 4.53879e-05
441 17.7643 8.60855 0.142231 0 0 1.00104 5.24373e-05
443 18.2516 8.61541 1.0698 0 0 1.00104 5.35891e-05
362 18.3257 7.6799 0.299645 0 0 1.00103 4.55867e-05
369 20.0726 7.09387 0.594807 0 0 1.00103 4.01279e-05
368 18.9463 7.94322 1.07097 0 0 1.00103 4.73285e-05
445 18.9551 8.80302 0.27391 0 0 1.00103 5.35015e-05
366 19.6695 8.01247 0.212231 0 0 1.00103 4.61567e-05
372 20.1124 7.98085 1.15127 0 0 1.00103 4.80121e-05
370 20.7744 8.40409 0.612332 0 0 1.00103 4.6293e-05
371 21.0016 7.62332 1.3492 0 0 1.00103 4.28203e-05
373 21.6114 7.86567 0.589825 0 0 1.00103 4.07187e-05
300 23.0551 7.08768 1.33642 0 0 1.00103 3.40103e-05
374 22.3107 8.7625 0.57949 0 0 1.00102 4.39244e-05
375 22.34 7.87667 1.29609 0 0 1.00102 4.05616e-05
377 23.1023 7.99145 0.660827 0 0 1.00102 3.76187e-05
298 23.9247 7.09153 0.62481 0 0 1.00103 3.03172e-05
304 24.7133 7.16783 1.26737 0 0 1.00103 2.8815e-05
379 23.9983 8.03839 1.19789 0 0 1.00102 3.50701e-05
381 24.6462 8.06887 0.306537 0 0 1.00102 3.16964e-05
384 24.7588 8.76775 1.08186 0 0 1.00102 3.39797e-05
302 25.3227 7.19483 0.447753 0 0 1.00103 2.62423e-05
308 26.2182 7.1868 1.59497 0 0 1.00103 2.37505e-05
383 25.5224 7.88106 1.1894 0 0 1.00103 2.80859e-05
382 25.5271 8.66471 0.311287 0 0 1.00102 2.95753e-05
385 26.257 7.88009 0.493511 0 0 1.00103 2.43483e-05
388 26.2876 8.68333 1.22528 0 0 1.00103 2.66967e-05
387 26.9516 7.76095 1.40827 0 0 1.00103 2.20215e-05
389 27.7275 7.33429 0.621486 0 0 1.00103 1.73026e-05
386 27.1242 8.40286 0.390341 0 0 1.00103 2.2105e-05
392 27.8313 8.18287 1.30257 0 0 1.00103 1.87695e-05
391 28.5925 7.27623 1.37421 0 0 1.00103 1.41471e-05
390 28.6475 7.85377 0.511351 0 0 1.00103 1.4356e-05
471 28.7618 8.72446 1.20914 0 0 1.00103 1.532e-05
396 29.5233 7.76553 1.23842 0 0 1.00103 1.11923e-05
473 29.5823 8.42138 0.417889 0 0 1.00103 1.10096e-05
475 30.3766 8.18866 1.27595 0 0 1.00103 7.84561e-06
394 30.4086 7.42172 0.496361 0 0 1.00103 7.64565e-06
400 31.1416 7.35418 1.17731 0 0 1.00103 4.857e-06
480 31.2514 8.77213 1.19178 0 0 1.00103 4.57119e-06
477 31.4411 8.08763 0.387171 0 0 1.00103 3.95145e-06
484 1.03238 9.81809 0.912726 0 0 1.00103 9.17892e-06
481 1.14867 9.19095 0.117962 0 0 1.00103 9.53951e-06
1322 1.63126 9.80919 1.71945 0 0 1.00103 1.22712e-05
559 0.300723 9.35215 1.12984 0 0 1.00103 6.24117e-06
558 0.245879 10.0534 0.0607516 0 0 1.00103 5.55148e-06
483 1.84904 9.01555 1.16222 0 0 1.00103 1.30152e-05
482 1.88726 9.88446 0.239379 0 0 1.00103 1.31533e-05
485 2.58762 8.91071 0.402859 0 0 1.00103 1.60621e-05
488 2.6287 9.7377 0.976344 0 0 1.00103 1.67198e-05
1405 2.45082 10.4308 1.56531 0 0 1.00103 1.68171e-05
567 3.36025 10.1942 0.712823 0 0 1.00104 2.06692e-05
486 3.42188 9.47893 0.0855152 0 0 1.00103 2.0429e-05
1326 3.61659 9.36686 1.65238 0 0 1.00103 2.20466e-05
492 4.28072 9.09259 0.741754 0 0 1.00103 2.44103e-05
1409 4.40121 9.7776 1.4185 0 0 1.00104 2.62471e-05
571 4.97517 9.77526 0.486785 0 0 1.00104 2.90043e-05
1410 5.05386 10.4101 1.32294 0 0 1.00104 3.10181e-05
1330 5.14593 8.81292 1.54578 0 0 1.00103 2.94795e-05
496 5.61725 8.82951 0.580396 0 0 1.00103 3.1201e-05
575 6.4799 9.35538 0.447315 0 0 1.00103 3.72998e-05
1413 5.80166 9.49913 1.42577 0 0 1.00103 3.46497e-05
1414 6.57167 9.96408 1.18719 0 0 1.00103 3.93118e-05
576 5.67784 10.3429 0.374215 0 0 1.00104 3.46364e-05
1417 7.46024 9.08541 1.19626 0 0 1.00103 4.23273e-05
579 8.21986 9.13666 0.457195 0 0 1.00103 4.58151e-05
580 7.28842 9.93937 0.36283 0 0 1.00103 4.3347e-05
1418 8.25702 9.89454 1.10553 0 0 1.00103 5.02622e-05
1421 9.1323 9.08477 1.30363 0 0 1.00103 5.09536e-05
584 9.21039 9.83751 0.649608 0 0 1.00103 5.33925e-05
1422 10.1824 10.0777 1.35287 0 0 1.00103 6.17068e-05
583 10.225 9.39512 0.649644 0 0 1.00103 5.58516e-05
508 11.2204 8.93451 0.65343 0 0 1.00103 5.62034e-05
1425 11.2399 9.58493 1.37763 0 0 1.00103 6.34834e-05
588 10.9041 10.3142 0.543811 0 0 1.00103 6.4004e-05
587 11.9368 9.77975 0.655383 0 0 1.00103 6.37483e-05
1346 12.3831 8.91952 1.57613 0 0 1.00103 6.07214e-05
512 12.9158 9.39894 0.713236 0 0 1.00103 6.27603e-05
1429 12.9438 10.026 1.49617 0 0 1.00103 7.0022e-05
589 12.6502 10.3045 0.186764 0 0 1.00103 6.76889e-05
1426 12.001 10.3934 1.4761 0 0 1.00103 7.15034e-05
510 13.5532 9.73427 0.0410354 0 0 1.00103 6.49017e-05
1350 13.8698 9.5863 1.58717 0 0 1.00103 6.81044e-05
511 13.937 8.94418 0.690531 0 0 1.00103 6.00164e-05
1353 14.6529 8.93999 1.61873 0 0 1.00103 6.40922e-05
516 14.6371 9.8546 0.942313 0 0 1.00103 6.67062e-05
591 13.7059 10.4291 0.97889 0 0 1.00103 7.12583e-05
514 15.2133 10.1849 0.0535531 0 0 1.00103 6.79579e-05
515 15.4727 9.33284 0.871602 0 0 1.00103 6.32034e-05
1354 15.4817 10.0541 1.69534 0 0 1.00103 7.21031e-05
517 16.1609 9.9005 0.214498 0 0 1.00103 6.40763e-05
440 16.4177 9.06297 0.833833 0 0 1.00104 5.93662e-05
520 16.0957 10.5515 1.03369 0 0 1.00103 6.95704e-05
519 17.0433 10.0353 1.02606 0 0 1.00103 6.66213e-05
438 17.1266 9.34567 0.140406 0 0 1.00104 5.81109e-05
521 17.5358 10.4338 0.220582 0 0 1.00103 6.52156e-05
444 17.8678 9.5409 1.13946 0 0 1.00103 6.12678e-05
523 18.3468 10.5715 0.969397 0 0 1.00103 6.68026e-05
442 18.3435 9.63749 0.258527 0 0 1.00103 5.93952e-05
447 19.6098 8.9208 1.01531 0 0 1.00103 5.24924e-05
448 19.0121 9.77346 1.05375 0 0 1.00103 5.97877e-05
446 19.566 10.0405 0.10905 0 0 1.00103 5.77418e-05
376 21.6176 8.88434 1.30692 0 0 1.00103 4.72974e-05
452 20.1472 10.0604 0.958313 0 0 1.00102 5.95173e-05
449 20.2452 9.23746 0.234628 0 0 1.00103 5.11314e-05
451 20.7753 9.33285 1.18244 0 0 1.00103 5.35524e-05
453 21.4992 9.40292 0.38659 0 0 1.00102 5.03963e-05
450 20.9321 10.2406 0.232833 0 0 1.00102 5.59224e-05
456 21.5163 10.3948 1.02319 0 0 1.00103 5.51063e-05
380 23.0945 9.0886 1.1278 0 0 1.00102 4.30326e-05
455 22.3009 9.84539 1.06343 0 0 1.00102 4.95697e-05
454 22.29 10.553 0.232174 0 0 1.00102 5.02788e-05
457 23.0973 9.81352 0.270522 0 0 1.00102 4.39547e-05