ITEM: TIMESTEP
6500
ITEM: NUMBER OF ATOMS
32000
ITEM: BOX BOUNDS pp pp pp
0.0000000000000000e+00 3.1748021039364001e+01
0.0000000000000000e+00 3.1748021039364001e+01
0.0000000000000000e+00 3.1748021039364001e+01
ITEM: ATOMS id x y z c_phase c_nbond c_rho v_omega
4 0.144864 1.1092 0.465724 0 0 1.00017 7.02513e-07
83 1.00986 1.6632 0.77876 0 0 1.00017 2.64645e-06
842 0.738915 0.79225 1.4117 0 0 1.00017 1.23532e-06
921 0.0396287 1.61134 1.37586 0 0 1.00017 1.06878e-06
3 0.743522 0.0628928 0.616493 0 0 1.00017 3.91745e-07
8 1.73519 0.796754 1.01439 0 0 1.00017 2.59301e-06
85 1.83643 1.461 0.219545 0 0 1.00017 3.69305e-06
925 1.86101 1.64327 1.75846 0 0 1.00017 4.03546e-06
6 2.54481 0.723757 0.203321 0 0 1.00017 3.58086e-06
7 2.60405 0.0292325 1.03613 0 0 1.00017 2.54617e-06
87 2.68496 1.51398 0.880564 0 0 1.00017 5.06359e-06
846 2.69605 0.789901 1.74254 0 0 1.00017 3.90618e-06
12 3.46025 0.896647 0.956925 0 0 1.00017 5.0536e-06
849 3.51179 0.0551436 1.70473 0 0 1.00017 3.56817e-06
929 3.6472 1.66718 1.71707 0 0 1.00017 6.86109e-06
10 4.13547 0.815744 0.322752 0 0 1.00017 5.63266e-06
16 4.98904 0.51654 1.16818 0 0 1.00017 5.82769e-06
93 4.96097 1.54832 0.383242 0 0 1.00017 8.23283e-06
850 4.37193 0.896587 1.62926 0 0 1.00017 6.18991e-06
9 3.49003 0.0744176 0.171366 0 0 1.00017 3.53259e-06
14 5.67322 0.589548 0.322092 0 0 1.00017 6.48675e-06
95 5.923 1.25437 0.940195 0 0 1.00017 8.49876e-06
97 6.61726 1.33239 0.217784 0 0 1.00017 9.18397e-06
854 5.80799 0.402709 1.69743 0 0 1.00017 6.17953e-06
933 5.0728 1.66725 1.43452 0 0 1.00017 8.85811e-06
20 6.73538 0.333163 0.866232 0 0 1.00017 6.30812e-06
937 6.72605 0.948385 1.69262 0 0 1.00017 8.26774e-06
24 8.28794 0.346971 1.06881 0 0 1.00017 6.55074e-06
99 7.40803 1.16092 0.951354 0 0 1.00017 9.17162e-06
101 8.292 1.32694 0.235535 0 0 1.00017 1.00355e-05
941 8.17352 1.20675 1.60745 0 0 1.00017 9.85481e-06
18 7.61067 0.589912 0.143699 0 0 1.00017 7.29653e-06
22 8.88262 0.447012 0.269016 0 0 1.00017 6.75919e-06
28 9.57581 0.277588 0.889856 0 0 1.00017 5.86604e-06
103 9.0686 1.24545 1.10668 0 0 1.00017 9.91549e-06
945 9.61873 0.912585 1.76249 0 0 1.00017 8.61978e-06
105 9.6866 1.31176 0.0922172 0 0 1.00017 1.00661e-05
32 11.2286 0.167766 0.634344 0 0 1.00017 4.47777e-06
107 10.4059 0.994075 0.823695 0 0 1.00017 8.58227e-06
866 10.5388 0.142882 1.44532 0 0 1.00017 4.81431e-06
949 11.331 0.967875 1.41725 0 0 1.00017 8.22895e-06
946 10.6398 1.62289 1.72673 0 0 1.00017 1.17663e-05
26 10.2657 0.311604 0.0770026 0 0 1.00017 5.65584e-06
36 12.8951 0.182377 0.637109 0 0 1.00017 3.4713e-06
111 12.0875 1.03432 0.508864 0 0 1.00017 8.06841e-06
870 12.1523 0.276495 1.30015 0 0 1.00017 4.39174e-06
953 12.7706 1.16319 1.37312 0 0 1.00017 8.57753e-06
40 14.3954 0.310199 0.768043 0 0 1.00017 3.38342e-06
115 13.6387 1.09073 0.843861 0 0 1.00017 7.72445e-06
117 14.1057 1.5427 0.163582 0 0 1.00017 1.00819e-05
874 13.6323 0.338595 1.63476 0 0 1.00017 3.82531e-06
957 14.4285 1.14122 1.47815 0 0 1.00017 7.77374e-06
119 14.9412 1.55103 0.66421 0 0 1.00017 9.91541e-06
44 15.7447 0.778282 0.788532 0 0 1.00017 5.63423e-06
123 16.6136 1.56749 0.683383 0 0 1.00017 1.01522e-05
878 15.1697 0.465663 1.64115 0 0 1.00017 3.97513e-06
882 16.5817 0.73427 1.34347 0 0 1.00017 5.50614e-06
961 15.6944 1.49766 1.39374 0 0 1.00017 9.80571e-06
38 15.1385 0.710924 0.0679605 0 0 1.00017 5.17727e-06
48 17.2923 0.764191 0.551565 0 0 1.00017 5.8563e-06
127 17.9862 1.62644 0.757249 0 0 1.00017 1.09899e-05
886 17.9519 0.787797 1.4278 0 0 1.00017 6.3679e-06
51 19.5477 0.0753548 0.665212 0 0 1.00017 3.97362e-06
52 18.825 0.780564 0.687228 0 0 1.00017 6.76659e-06
131 19.5982 1.61908 0.843363 0 0 1.00017 1.17841e-05
889 19.0404 0.214388 1.5466 0 0 1.00017 4.06758e-06
890 19.6354 1.03356 1.69298 0 0 1.00017 8.85339e-06
969 18.7212 1.56592 1.5015 0 0 1.00017 1.11548e-05
55 21.1189 0.425798 1.06958 0 0 1.00017 6.79324e-06
56 20.2816 0.847241 0.978215 0 0 1.00017 8.1888e-06
135 21.1607 1.7299 0.958083 0 0 1.00017 1.3101e-05
54 21.2176 0.842909 0.218512 0 0 1.00017 8.83807e-06
133 20.4007 1.58552 0.198704 0 0 1.00017 1.19994e-05
57 22.0293 0.347112 0.540429 0 0 1.00017 7.21273e-06
59 22.8182 0.514496 1.40608 0 0 1.00017 8.36197e-06
60 22.1537 1.23555 1.33219 0 0 1.00017 1.12097e-05
137 22.0498 1.68575 0.53465 0 0 1.00017 1.31243e-05
58 22.9518 1.15164 0.453432 0 0 1.00017 1.08589e-05
63 24.2579 0.465613 1.44225 0 0 1.00017 8.56922e-06
61 23.5889 0.438658 0.57662 0 0 1.00017 8.28035e-06
62 24.4731 1.26665 0.75486 0 0 1.00017 1.1284e-05
64 23.5214 1.3336 1.40162 0 0 1.00017 1.17832e-05
65 24.9759 0.396771 0.550995 0 0 1.00017 8.34608e-06
67 26.026 0.45731 1.17211 0 0 1.00017 8.23633e-06
68 25.203 1.20937 1.47721 0 0 1.00017 1.09585e-05
66 25.9218 1.00938 0.431356 0 0 1.00017 9.87218e-06
70 27.6079 1.34399 0.389234 0 0 1.00017 9.2725e-06
71 27.6342 0.569612 0.875104 0 0 1.00017 7.48463e-06
72 26.7847 1.10002 1.2623 0 0 1.00017 9.48352e-06
913 28.3955 0.393716 1.40309 0 0 1.00017 6.46866e-06
69 26.8082 0.309482 0.229729 0 0 1.00017 7.49045e-06
76 28.681 1.29032 0.740623 0 0 1.00017 7.85228e-06
914 29.4143 0.991987 1.5694 0 0 1.00017 6.45439e-06
917 29.8302 0.207957 1.46068 0 0 1.00017 4.64412e-06
75 29.2911 0.397002 0.616328 0 0 1.00017 5.52973e-06
841 31.604 0.277832 1.25655 0 0 1.00017 2.66861e-06
79 30.7232 0.511263 0.472765 0 0 1.00017 4.06548e-06
80 30.1289 1.23087 0.774562 0 0 1.00017 5.85607e-06
918 30.8905 0.993777 1.39361 0 0 1.00017 4.4943e-06
82 1.15728 2.42921 0.12762 0 0 1.00017 3.81678e-06
84 0.179328 2.3897 0.811565 0 0 1.00017 2.05926e-06
163 1.3439 3.22474 0.947689 0 0 1.00017 5.12319e-06
922 1.18576 2.3543 1.59065 0 0 1.00017 3.8373e-06
1001 0.439878 3.03593 1.54947 0 0 1.00017 3.13138e-06
161 0.386222 3.10222 0.131636 0 0 1.00017 3.04425e-06
88 1.95816 2.39947 0.783806 0 0 1.00017 5.21988e-06
167 2.71733 3.24962 0.859239 0 0 1.00017 8.01815e-06
926 2.71752 2.2029 1.5348 0 0 1.00017 6.35381e-06
1009 3.32412 3.38318 1.64911 0 0 1.00017 9.73535e-06
86 2.77367 2.35356 0.055119 0 0 1.00017 6.61223e-06
1005 2.1678 3.07492 1.76302 0 0 1.00017 6.69859e-06
92 3.4349 2.51766 0.779991 0 0 1.00017 8.12937e-06
91 4.05141 1.79668 0.711097 0 0 1.00017 7.6658e-06
96 4.96978 2.5172 0.815799 0 0 1.00017 1.07825e-05
171 4.26717 3.26784 0.749591 0 0 1.00017 1.12325e-05
930 4.19289 2.5935 1.58084 0 0 1.00017 9.75484e-06
94 5.70982 2.3855 0.134176 0 0 1.00017 1.14794e-05
100 6.61668 2.11865 0.774532 0 0 1.00017 1.17772e-05
175 5.7227 3.1334 0.953229 0 0 1.00017 1.37893e-05
934 5.91714 2.13668 1.49398 0 0 1.00017 1.11946e-05
1017 6.60131 2.99703 1.5512 0 0 1.00017 1.50007e-05
177 6.72039 2.86505 0.131683 0 0 1.00017 1.42936e-05
98 7.51565 2.1606 0.138506 0 0 1.00017 1.27411e-05
104 8.15049 2.13436 0.931225 0 0 1.00017 1.32499e-05
179 7.48165 2.99427 0.928224 0 0 1.00017 1.59892e-05
938 7.3597 1.99427 1.56724 0 0 1.00017 1.22759e-05
1021 8.27225 2.92621 1.64856 0 0 1.00017 1.69901e-05
181 8.35316 2.89987 0.0391826 0 0 1.00017 1.63979e-05
102 8.97135 2.02548 0.251094 0 0 1.00017 1.3062e-05
108 9.84143 1.96095 1.10467 0 0 1.00017 1.31496e-05
183 9.01269 2.90121 0.928534 0 0 1.00017 1.7268e-05
942 9.10153 2.15305 1.70478 0 0 1.00017 1.41792e-05
185 9.65145 2.84003 0.209594 0 0 1.00017 1.71495e-05
188 10.0029 3.51119 0.885871 0 0 1.00017 2.10041e-05
106 10.3547 2.05426 0.210004 0 0 1.00017 1.35268e-05
112 11.2254 1.77836 0.771586 0 0 1.00017 1.22096e-05
187 10.7135 2.74643 0.919889 0 0 1.00017 1.72842e-05
1029 11.541 2.77863 1.57941 0 0 1.00017 1.81227e-05
1026 10.8211 3.50721 1.59028 0 0 1.00017 2.20671e-05
116 12.7477 1.90708 0.595953 0 0 1.00017 1.25201e-05
191 12.0214 2.59921 0.74021 0 0 1.00017 1.66887e-05
950 11.9987 1.87516 1.46608 0 0 1.00017 1.27304e-05
1033 12.9578 2.98087 1.69135 0 0 1.00017 1.96283e-05
195 13.2995 2.99459 0.843097 0 0 1.00017 1.89906e-05
954 13.4596 1.96634 1.48022 0 0 1.00017 1.29349e-05
120 14.1142 2.42856 0.924494 0 0 1.00017 1.54644e-05
1037 14.1563 3.36617 1.55636 0 0 1.00017 2.22064e-05
199 14.8253 3.42843 0.880105 0 0 1.00017 2.21468e-05
958 14.881 2.29702 1.44395 0 0 1.00017 1.4825e-05
118 14.9369 2.50817 0.137622 0 0 1.00017 1.58322e-05
197 14.2717 3.20623 0.0379565 0 0 1.00017 2.02387e-05
114 13.4992 2.27135 0.0575709 0 0 1.00017 1.4415e-05
124 15.7908 2.45125 0.697201 0 0 1.00017 1.5523e-05
203 16.4252 3.22121 0.670094 0 0 1.00017 2.07162e-05
962 16.4073 2.49989 1.52638 0 0 1.00017 1.6309e-05
1041 15.5019 3.26223 1.50384 0 0 1.00017 2.14418e-05
201 15.6889 3.26606 0.0236328 0 0 1.00017 2.09036e-05
965 17.2909 1.78286 1.5645 0 0 1.00017 1.19115e-05
128 17.1564 2.3858 0.683913 0 0 1.00017 1.53419e-05
207 18.0499 2.97672 0.704472 0 0 1.00017 1.93674e-05
966 18.1115 2.4867 1.5869 0 0 1.00017 1.6647e-05
1045 17.2088 3.1509 1.49914 0 0 1.00017 2.08331e-05
132 18.9775 2.42004 1.01478 0 0 1.00017 1.6198e-05
211 19.8076 3.31451 1.2796 0 0 1.00017 2.2297e-05
209 18.9858 3.06023 0.194715 0 0 1.00017 2.00828e-05
130 19.6722 2.40396 0.105325 0 0 1.00017 1.62487e-05
973 20.3902 1.86092 1.73046 0 0 1.00017 1.38019e-05
134 21.2397 2.50076 0.458547 0 0 1.00017 1.7087e-05
136 20.2821 2.54024 1.11285 0 0 1.00017 1.74195e-05
215 21.4135 3.39038 1.39193 0 0 1.00017 2.23212e-05
213 20.5153 3.07841 0.333803 0 0 1.00017 2.03315e-05
139 22.9401 2.1552 1.51494 0 0 1.00017 1.54987e-05
138 23.0436 2.69588 0.735973 0 0 1.00017 1.76507e-05
140 22.1661 2.58865 1.24049 0 0 1.00017 1.77051e-05
217 22.0773 3.29455 0.604514 0 0 1.00017 2.12732e-05
16179 22.7782 3.49544 0.0686162 0 0 1.00017 2.16483e-05
141 23.7928 1.89776 0.62482 0 0 1.00017 1.38339e-05
143 24.4815 2.07644 1.60597 0 0 1.00017 1.45109e-05
142 24.4109 2.77368 0.776857 0 0 1.00017 1.70565e-05
144 23.764 2.99475 1.53857 0 0 1.00017 1.88764e-05
16108 25.0236 2.92741 0.0167097 0 0 1.00017 1.69244e-05
147 25.9755 1.81648 1.35756 0 0 1.00017 1.23112e-05
149 26.593 1.86717 0.512991 0 0 1.00017 1.1709e-05
145 25.1817 1.93871 0.51496 0 0 1.00017 1.32838e-05
146 25.8541 2.69373 0.707391 0 0 1.00017 1.51134e-05
148 25.2247 2.6489 1.52491 0 0 1.00017 1.58868e-05
152 26.5924 2.64186 1.53113 0 0 1.00017 1.40855e-05
151 27.5476 2.05154 1.23667 0 0 1.00017 1.10311e-05
153 28.2949 2.14758 0.345483 0 0 1.00017 1.01441e-05
150 27.1444 2.76403 0.643667 0 0 1.00017 1.33791e-05
231 27.2709 3.42903 1.41716 0 0 1.00017 1.50493e-05
156 28.3074 2.81663 1.20472 0 0 1.00017 1.16006e-05
233 28.0441 3.28521 0.332054 0 0 1.00017 1.30705e-05
993 28.5606 1.7758 1.50091 0 0 1.00017 9.06686e-06
997 29.9973 1.84443 1.70759 0 0 1.00017 7.08615e-06
155 29.4879 2.08446 0.882112 0 0 1.00017 8.14742e-06
154 29.2452 2.71046 0.290206 0 0 1.00017 9.66676e-06
235 29.3099 3.31014 1.17816 0 0 1.00017 1.0616e-05
159 30.9512 2.00495 0.924485 0 0 1.00017 5.72471e-06
160 30.2316 2.74373 1.00238 0 0 1.00017 7.89865e-06
239 31.0824 3.36921 0.97355 0 0 1.00017 7.11642e-06
998 31.0359 2.71571 1.72711 0 0 1.00017 6.49218e-06
237 30.17 3.28827 0.13928 0 0 1.00017 8.83365e-06
157 30.4495 1.93632 0.0284644 0 0 1.00017 6.45071e-06
158 31.1916 2.68075 0.0769766 0 0 1.00017 6.16178e-06
164 0.356754 3.78818 0.919472 0 0 1.00017 3.54193e-06
241 0.212798 4.60417 0.480049 0 0 1.00017 3.73986e-06
243 1.20957 4.6583 0.986901 0 0 1.00017 6.25165e-06
244 0.166279 5.27452 1.27727 0 0 1.00017 3.98947e-06
162 1.10528 3.85416 0.0634807 0 0 1.00017 5.17844e-06
168 1.91179 4.02379 0.847433 0 0 1.00017 7.25986e-06
247 2.61668 4.82182 1.13254 0 0 1.00017 1.0138e-05
166 2.72028 4.11131 0.204954 0 0 1.00017 9.32333e-06
245 1.97329 4.94162 0.27967 0 0 1.00017 8.40442e-06
249 3.49 4.8136 0.161957 0 0 1.00017 1.24465e-05
172 3.56492 4.03179 0.885132 0 0 1.00017 1.12605e-05
176 4.9934 3.94159 1.17601 0 0 1.00017 1.46122e-05
251 4.1366 4.82306 1.14704 0 0 1.00017 1.4475e-05
170 4.3359 4.12816 0.146408 0 0 1.00017 1.32772e-05
253 5.09892 4.67544 0.336196 0 0 1.00017 1.65715e-05
174 5.85537 3.8711 0.192987 0 0 1.00017 1.61724e-05
180 6.58308 3.69737 0.775484 0 0 1.00017 1.70631e-05
255 5.78305 4.6583 1.0269 0 0 1.00017 1.85502e-05
1097 6.76673 4.43352 1.64458 0 0 1.00017 2.05848e-05
260 6.78457 5.05208 0.878231 0 0 1.00017 2.23224e-05
184 8.30225 3.81065 0.702641 0 0 1.00017 2.04857e-05
259 7.51272 4.38081 0.549005 0 0 1.00017 2.14347e-05
1018 7.49877 3.7918 1.49812 0 0 1.00017 1.94808e-05
1101 8.32029 4.52432 1.48421 0 0 1.00017 2.42686e-05
264 8.3377 5.2266 0.69562 0 0 1.00017 2.69611e-05
258 7.44621 5.27055 0.0407782 0 0 1.00017 2.47687e-05
263 9.19863 4.4858 0.819771 0 0 1.00017 2.5172e-05
265 9.98468 4.43435 0.126638 0 0 1.00017 2.57582e-05
1022 9.18187 3.68879 1.49922 0 0 1.00017 2.16962e-05
1105 10.0004 4.27169 1.65676 0 0 1.00017 2.5918e-05
182 9.0922 3.79255 0.0601818 0 0 1.00017 2.13198e-05
268 9.9107 5.23928 0.793534 0 0 1.00017 3.0455e-05
1102 9.19017 5.23786 1.59218 0 0 1.00017 2.99084e-05
192 11.5246 3.58741 0.786738 0 0 1.00017 2.24254e-05
267 10.7243 4.58748 0.905052 0 0 1.00017 2.79377e-05
269 11.5244 4.63204 0.224649 0 0 1.00017 2.85198e-05
1109 11.5042 4.31718 1.70234 0 0 1.00017 2.79759e-05
272 11.5465 5.20811 0.99377 0 0 1.00017 3.29629e-05
186 10.7034 3.78074 0.173508 0 0 1.00017 2.2852e-05
196 12.6291 3.54564 0.813932 0 0 1.00017 2.25591e-05
271 12.3336 4.49942 0.999933 0 0 1.00017 2.90125e-05
1113 12.9171 4.9411 1.68957 0 0 1.00017 3.34327e-05
275 13.3794 4.65414 0.798855 0 0 1.00017 3.03594e-05
273 12.7817 4.57257 0.0598431 0 0 1.00017 2.92101e-05
200 14.1357 4.10467 0.697168 0 0 1.00017 2.65733e-05
1034 13.636 4.18847 1.59405 0 0 1.00017 2.80829e-05
1117 14.3743 5.09241 1.52476 0 0 1.00017 3.52301e-05
277 14.3006 4.87801 0.0686582 0 0 1.00017 3.20068e-05
279 15.1117 5.00976 0.812986 0 0 1.00017 3.37628e-05
198 15.1043 4.18627 0.101988 0 0 1.00017 2.71919e-05
1038 15.1294 4.40824 1.5957 0 0 1.00017 3.00761e-05
204 15.8112 4.07574 0.923393 0 0 1.00017 2.6938e-05
281 16.0331 4.78644 0.187116 0 0 1.00017 3.17986e-05
1042 16.4691 3.98435 1.68956 0 0 1.00017 2.72399e-05
1121 15.9915 5.05998 1.64521 0 0 1.00017 3.56576e-05
283 16.7499 4.61252 0.903472 0 0 1.00017 3.09444e-05
208 17.4054 3.87181 0.812158 0 0 1.00017 2.54571e-05
287 18.2328 4.54512 1.09928 0 0 1.00017 3.07049e-05
1046 18.0837 3.69344 1.65814 0 0 1.00017 2.50117e-05
285 17.5993 4.62264 0.0199327 0 0 1.00017 3.07163e-05
206 18.2664 3.90552 0.0651642 0 0 1.00017 2.55372e-05
212 18.9962 3.77449 0.956152 0 0 1.00017 2.49914e-05
289 18.969 4.67949 0.362682 0 0 1.00017 3.10765e-05
291 19.8266 4.75661 1.09739 0 0 1.00017 3.17092e-05
210 19.717 3.84071 0.235078 0 0 1.00017 2.51001e-05
216 20.5552 3.90953 1.23739 0 0 1.00017 2.56924e-05
295 21.0181 4.81711 1.3956 0 0 1.00017 3.15227e-05
297 21.7186 5.0576 0.806853 0 0 1.00017 3.16812e-05
214 21.2037 4.02655 0.515488 0 0 1.00017 2.57749e-05
293 20.2821 4.87326 0.349226 0 0 1.00017 3.16607e-05
219 22.9231 3.72758 1.42042 0 0 1.00017 2.31513e-05
220 22.0538 4.23433 1.31396 0 0 1.00017 2.67536e-05
299 22.6057 5.28288 1.28132 0 0 1.00017 3.20201e-05
218 22.73 4.44863 0.521808 0 0 1.00017 2.6655e-05
223 24.5593 3.61161 1.56015 0 0 1.00017 2.05931e-05
221 23.667 3.73384 0.782181 0 0 1.00017 2.19902e-05
222 24.434 4.42618 0.628782 0 0 1.00017 2.38184e-05
224 23.5782 4.65358 1.33886 0 0 1.00017 2.68726e-05
301 23.665 5.17665 0.535633 0 0 1.00017 2.86613e-05
228 25.1107 4.5974 1.62018 0 0 1.00017 2.35852e-05
227 25.7983 3.58794 1.51722 0 0 1.00017 1.83913e-05
229 26.2463 3.58618 0.598664 0 0 1.00017 1.73057e-05
225 25.1463 3.76498 0.798504 0 0 1.00017 1.98847e-05
307 25.7954 5.24169 1.34844 0 0 1.00017 2.40542e-05
232 26.4449 4.37843 1.37488 0 0 1.00017 1.95215e-05
309 26.5962 5.06324 0.644041 0 0 1.00017 2.09624e-05
226 25.6229 4.49683 0.396579 0 0 1.00017 2.15204e-05
311 27.4178 4.95133 1.4068 0 0 1.00017 1.86339e-05
236 28.0344 4.04221 1.10706 0 0 1.00017 1.48713e-05
313 28.3563 4.80249 0.706762 0 0 1.00017 1.54401e-05
230 27.1435 4.11857 0.576624 0 0 1.00017 1.70354e-05
234 28.9976 3.82495 0.484737 0 0 1.00017 1.21175e-05
315 29.1607 4.57598 1.32972 0 0 1.00017 1.30756e-05
240 30.0631 4.10353 1.02734 0 0 1.00017 1.01133e-05
238 31.0934 3.99825 0.369822 0 0 1.00017 7.66105e-06
317 30.2781 4.71787 0.486605 0 0 1.00017 1.02018e-05
319 31.0495 4.62445 1.40615 0 0 1.00017 8.3288e-06
242 0.9887 5.52187 0.461916 0 0 1.00017 6.16966e-06
248 1.61407 5.49117 1.3779 0 0 1.00017 8.07405e-06
323 0.88022 6.20754 1.27694 0 0 1.00017 6.23213e-06
324 0.341563 6.92437 1.50519 0 0 1.00017 4.72196e-06
322 1.05853 6.93058 0.571605 0 0 1.00017 6.88932e-06
321 0.0600229 6.00699 0.448097 0 0 1.00017 3.8026e-06
328 1.79555 6.99904 1.23993 0 0 1.00017 9.54743e-06
325 1.97862 6.17113 0.51502 0 0 1.00017 9.57254e-06
252 3.19878 5.57381 1.29709 0 0 1.00017 1.30296e-05
327 2.35679 6.11989 1.40978 0 0 1.00017 1.09884e-05
332 3.3503 6.90683 1.13238 0 0 1.00017 1.51763e-05
246 2.76785 5.56902 0.273051 0 0 1.00017 1.14155e-05
329 3.49152 6.22266 0.495088 0 0 1.00017 1.46828e-05
250 4.28449 5.40159 0.324137 0 0 1.00017 1.58608e-05
331 4.23106 6.02765 1.22733 0 0 1.00017 1.71889e-05
333 4.93209 6.1597 0.329764 0 0 1.00017 1.96624e-05
336 4.88454 6.72481 1.15913 0 0 1.00017 2.1028e-05
330 4.10401 6.95083 0.223191 0 0 1.00017 1.80153e-05
256 5.0357 5.3589 1.30964 0 0 1.00017 1.8409e-05
254 5.88288 5.33713 0.29732 0 0 1.00017 2.05701e-05
335 5.80113 6.15105 0.960111 0 0 1.00017 2.29968e-05
1177 6.58355 5.89322 1.59692 0 0 1.00017 2.53099e-05
340 6.56213 6.77035 0.99773 0 0 1.00017 2.77747e-05
337 6.50367 5.96397 0.149823 0 0 1.00017 2.44381e-05
334 5.66518 6.95847 0.147518 0 0 1.00017 2.43163e-05
339 7.45196 6.05819 0.754384 0 0 1.00017 2.80895e-05
1098 7.51788 5.32241 1.4935 0 0 1.00017 2.58991e-05
344 8.16156 6.74892 0.724708 0 0 1.00017 3.33708e-05
1178 7.42161 6.74995 1.59659 0 0 1.00017 3.16506e-05
1181 8.3764 6.01129 1.49439 0 0 1.00017 3.15206e-05
343 9.02982 6.09051 0.736308 0 0 1.00017 3.29819e-05
1185 9.89952 6.08926 1.47175 0 0 1.00017 3.6253e-05
1182 9.24965 6.84552 1.46178 0 0 1.00017 3.85589e-05
345 9.9143 6.14406 0.0935782 0 0 1.00017 3.52245e-05
262 9.13555 5.38213 0.0178529 0 0 1.00017 2.94119e-05
347 10.7511 5.93819 0.956719 0 0 1.00017 3.6347e-05
349 11.4856 6.29092 0.0737332 0 0 1.00017 3.94586e-05
346 10.6942 6.85411 0.147202 0 0 1.00017 4.14245e-05
1186 10.6477 6.83093 1.49488 0 0 1.00017 4.29165e-05
270 12.1617 5.56052 0.182671 0 0 1.00017 3.56102e-05
276 12.8518 5.75959 0.862124 0 0 1.00017 3.82306e-05
351 11.9523 6.14095 1.0524 0 0 1.00017 4.00836e-05
274 13.4886 5.50048 0.0412411 0 0 1.00017 3.63265e-05
1114 13.5158 5.82388 1.56428 0 0 1.00017 4.04649e-05
355 13.5483 6.53003 0.807269 0 0 1.00017 4.46576e-05
280 14.2452 5.69331 0.774866 0 0 1.00017 3.88041e-05
1197 14.5279 6.62417 1.41519 0 0 1.00017 4.79422e-05
357 14.323 6.35966 0.0384348 0 0 1.00017 4.36159e-05
278 15.198 5.63267 0.0378449 0 0 1.00017 3.82346e-05
284 16.0171 5.75026 0.953227 0 0 1.00017 4.00968e-05
359 15.2434 6.44724 0.806571 0 0 1.00017 4.54511e-05
363 16.6891 6.48509 1.14787 0 0 1.00017 4.65133e-05
1118 15.3067 5.8689 1.6992 0 0 1.00017 4.24418e-05
361 15.872 6.35141 0.0429761 0 0 1.00017 4.42387e-05
282 16.7937 5.45126 0.274946 0 0 1.00017 3.70035e-05
286 17.9981 5.36451 0.540411 0 0 1.00017 3.65216e-05
288 17.2877 5.46816 1.2494 0 0 1.00017 3.82875e-05
365 17.2598 6.31995 0.410139 0 0 1.00017 4.42877e-05
367 17.8569 6.30627 1.38269 0 0 1.00017 4.53732e-05
292 18.9449 5.35096 1.20325 0 0 1.00017 3.67219e-05
369 18.5585 6.3015 0.616706 0 0 1.00017 4.36154e-05
290 19.5998 5.84155 0.623691 0 0 1.00017 3.93196e-05
371 19.5083 6.6516 1.34962 0 0 1.00017 4.66537e-05
373 20.1723 6.84989 0.613238 0 0 1.00017 4.60372e-05
294 20.9109 5.87682 0.653172 0 0 1.00017 3.79479e-05
296 20.3473 5.70823 1.3989 0 0 1.00017 3.845e-05
375 20.9478 6.72561 1.30881 0 0 1.00017 4.46193e-05
377 21.8135 6.78496 0.674082 0 0 1.00017 4.20833e-05
300 21.8098 5.99031 1.38273 0 0 1.00017 3.79839e-05
16260 21.8398 5.84353 0.0573095 0 0 1.00017 3.59688e-05
298 22.8089 5.95034 0.667793 0 0 1.00017 3.4643e-05
379 22.7798 6.81842 1.21096 0 0 1.00017 4.01431e-05
305 24.9625 5.35741 0.568723 0 0 1.00017 2.63577e-05
381 23.4891 6.89864 0.275236 0 0 1.00017 3.75562e-05
303 24.4765 5.40312 1.43806 0 0 1.00017 2.83629e-05
304 23.6153 6.00786 1.29758 0 0 1.00017 3.34501e-05
383 24.4515 6.69157 1.16823 0 0 1.00017 3.37477e-05
302 24.2674 6.11934 0.428143 0 0 1.00017 3.15373e-05
306 25.7956 5.96816 0.699703 0 0 1.00017 2.60889e-05
308 25.2295 6.15414 1.67568 0 0 1.00017 2.9409e-05
385 25.2803 6.85233 0.497383 0 0 1.00017 3.08175e-05
387 25.9495 6.71293 1.41045 0 0 1.00017 2.84133e-05
312 26.7922 5.94524 1.4763 0 0 1.00017 2.31166e-05
310 27.5914 5.62737 0.721697 0 0 1.00017 1.93739e-05
389 26.8532 6.46457 0.650259 0 0 1.00017 2.38508e-05
391 27.798 6.55674 1.36919 0 0 1.00017 2.08172e-05
316 28.454 5.59422 1.48271 0 0 1.00017 1.69001e-05
314 29.4686 5.36097 0.817291 0 0 1.00017 1.32349e-05
395 29.5248 6.24025 1.32266 0 0 1.00017 1.42221e-05
394 29.6685 6.96091 0.509604 0 0 1.00017 1.42811e-05
393 28.5619 6.27905 0.643954 0 0 1.00017 1.74451e-05
16355 29.4617 6.20185 0.0788595 0 0 1.00017 1.42956e-05
16276 28.5676 5.45818 0.0569771 0 0 1.00017 1.59891e-05
318 31.0422 5.38907 0.595378 0 0 1.00017 8.92289e-06
320 30.2981 5.49573 1.4648 0 0 1.00017 1.1078e-05
397 30.4781 6.21819 0.648487 0 0 1.00017 1.10251e-05
399 31.3012 6.173 1.38429 0 0 1.00017 8.60439e-06
398 31.2884 6.9719 0.605497 0 0 1.00017 8.72064e-06
401 0.350732 7.63558 0.659917 0 0 1.00017 4.52952e-06
402 0.926249 8.45316 0.615021 0 0 1.00017 6.37327e-06
403 1.20113 7.84087 1.49472 0 0 1.00017 7.61316e-06
404 0.445382 8.55864 1.46917 0 0 1.00017 4.57862e-06
405 1.68631 7.73602 0.374116 0 0 1.00017 9.20867e-06
408 1.81986 8.58332 1.46268 0 0 1.00017 1.01329e-05
326 2.57947 7.10251 0.473074 0 0 1.00017 1.23699e-05
406 2.29191 8.58451 0.398918 0 0 1.00017 1.18565e-05
407 2.49177 7.76434 1.27796 0 0 1.00017 1.26276e-05
412 3.11841 8.45349 0.936366 0 0 1.00017 1.56498e-05
409 3.34397 7.70477 0.326645 0 0 1.00017 1.59005e-05
410 3.92181 8.38237 0.07729 0 0 1.00017 1.90993e-05
411 4.08885 7.58208 1.23753 0 0 1.00017 1.9217e-05
416 4.81699 8.17025 0.927623 0 0 1.00017 2.32878e-05
413 4.78781 7.55539 0.240366 0 0 1.00017 2.18097e-05
414 5.99684 8.24112 0.172068 0 0 1.00017 2.87324e-05
415 5.60675 7.48634 1.02278 0 0 1.00017 2.55486e-05
417 6.62182 7.44007 0.165282 0 0 1.00017 2.96152e-05
420 6.53187 8.10771 1.04292 0 0 1.00017 3.15075e-05
419 7.43 7.64949 0.744862 0 0 1.00017 3.40684e-05
1258 7.424 8.04543 1.6953 0 0 1.00017 3.66886e-05
1261 8.21005 7.36874 1.55731 0 0 1.00017 3.74193e-05
421 8.14915 7.49406 0.0229345 0 0 1.00017 3.61483e-05
499 7.30402 8.75191 0.711096 0 0 1.00017 3.69264e-05
424 8.43259 8.19122 0.86856 0 0 1.00017 4.07495e-05
348 10.0022 7.11354 0.726107 0 0 1.00017 4.1442e-05
423 9.07367 7.50262 0.661676 0 0 1.00017 4.00764e-05
428 9.90517 8.49559 0.693777 0 0 1.00017 4.86387e-05
1262 9.25353 8.56153 1.44339 0 0 1.00017 4.74242e-05
1265 9.83063 7.76492 1.59506 0 0 1.00017 4.62069e-05
352 11.4917 7.05571 0.808253 0 0 1.00017 4.52836e-05
427 10.757 7.83183 0.839804 0 0 1.00017 4.83374e-05
1266 10.7737 8.59515 1.4292 0 0 1.00017 5.44544e-05
1269 11.5969 7.7168 1.5984 0 0 1.00017 5.21643e-05
429 11.4162 8.02095 0.0419623 0 0 1.00017 5.09122e-05
432 11.5589 8.74047 0.72953 0 0 1.00017 5.66134e-05
426 10.5849 8.76122 0.0311464 0 0 1.00017 5.23547e-05
356 12.9057 7.22979 0.57133 0 0 1.00017 4.91363e-05
431 12.3764 8.1452 0.594661 0 0 1.00017 5.48574e-05
1190 12.2764 7.08296 1.38164 0 0 1.00017 4.85419e-05
1270 12.2911 8.58871 1.49609 0 0 1.00017 6.02392e-05
1273 13.0664 7.93341 1.4786 0 0 1.00017 5.71711e-05
360 14.53 7.32753 0.602341 0 0 1.00017 5.22741e-05
435 13.8249 8.05102 0.475703 0 0 1.00017 5.71149e-05
1194 13.6814 7.28927 1.35335 0 0 1.00017 5.23291e-05
1277 14.4752 8.13752 1.35912 0 0 1.00017 6.09341e-05
1274 13.9075 8.80204 1.56919 0 0 1.00017 6.66309e-05
362 16.6434 7.21352 0.285183 0 0 1.00017 5.18094e-05
364 15.8468 7.31498 0.91129 0 0 1.00017 5.31036e-05
439 15.2973 8.28271 0.86682 0 0 1.00017 6.15145e-05
443 16.4875 8.18561 1.11132 0 0 1.00017 6.16842e-05
1198 15.3612 7.51737 1.64263 0 0 1.00017 5.72299e-05
441 16.0737 8.31983 0.153928 0 0 1.00017 6.12392e-05
368 17.1934 7.40163 1.11808 0 0 1.00017 5.46457e-05
445 17.2745 8.1557 0.331454 0 0 1.00017 6.0022e-05
447 17.9269 8.09502 1.03783 0 0 1.00017 5.99072e-05
366 18.0207 7.2363 0.22327 0 0 1.00017 5.1516e-05
372 18.4737 7.13104 1.14654 0 0 1.00017 5.15239e-05
370 19.2071 7.42709 0.638773 0 0 1.00017 5.19414e-05
451 19.1356 8.25184 1.18873 0 0 1.00017 6.02322e-05
376 20.0674 7.76813 1.32803 0 0 1.00017 5.46011e-05
453 19.9941 8.24798 0.367063 0 0 1.00017 5.67486e-05
449 18.6594 8.27505 0.18602 0 0 1.00017 5.9169e-05
374 20.8782 7.57995 0.668884 0 0 1.00017 4.98224e-05
455 20.839 8.56594 1.04157 0 0 1.00017 5.74939e-05
380 21.7169 7.80375 1.15254 0 0 1.00017 4.94909e-05
457 21.783 8.47958 0.268025 0 0 1.00017 5.23793e-05
459 22.7478 8.32579 1.02193 0 0 1.00017 4.8337e-05
378 22.4976 7.61423 0.390464 0 0 1.00017 4.4679e-05
384 23.5926 7.46048 1.06364 0 0 1.00017 4.03683e-05
461 23.6311 8.21893 0.382872 0 0 1.00017 4.31188e-05
463 24.4816 8.23835 1.00393 0 0 1.00017 3.98604e-05
382 24.4676 7.45255 0.277232 0 0 1.00017 3.62584e-05
388 25.2455 7.52203 1.25609 0 0 1.00017 3.38463e-05
467 26.1417 8.13137 0.995807 0 0 1.00017 3.13566e-05
1306 26.1393 8.76386 1.76187 0 0 1.00017 3.38658e-05
386 26.2031 7.38638 0.373911 0 0 1.00017 2.88351e-05
465 25.3526 8.25504 0.314918 0 0 1.00017 3.52541e-05
466 26.3843 8.70872 0.0958394 0 0 1.00017 3.10487e-05
390 27.8116 7.09527 0.530331 0 0 1.00017 2.14859e-05
392 26.8971 7.2208 1.34321 0 0 1.00017 2.59446e-05
470 28.0647 8.59799 0.426898 0 0 1.00017 2.25074e-05
471 27.9028 7.92968 1.21614 0 0 1.00017 2.27494e-05
472 27.0871 8.7717 1.02987 0 0 1.00017 2.79461e-05
469 27.1062 7.88909 0.436872 0 0 1.00017 2.59998e-05
396 28.7457 7.18421 1.23225 0 0 1.00017 1.81061e-05
474 29.6876 8.41811 0.544994 0 0 1.00017 1.50317e-05
475 29.5921 7.73843 1.27968 0 0 1.00017 1.52462e-05
476 28.8742 8.63648 1.1887 0 0 1.00017 1.89039e-05
473 28.7934 7.79606 0.418462 0 0 1.00017 1.83827e-05
400 30.415 7.13005 1.18153 0 0 1.00017 1.17077e-05
479 31.3388 7.84156 1.30083 0 0 1.00017 8.63208e-06
480 30.5209 8.53081 1.1868 0 0 1.00017 1.16342e-05
477 30.7262 7.90582 0.382997 0 0 1.00017 1.0732e-05
478 31.5143 8.63525 0.392229 0 0 1.00017 7.74983e-06
482 1.20525 10.2581 0.271432 0 0 1.00017 6.59914e-06
483 1.10509 9.35359 1.20248 0 0 1.00017 6.79372e-06
484 0.339797 9.93107 0.899134 0 0 1.00017 3.2089e-06
481 0.455215 9.33468 0.123436 0 0 1.00017 4.17044e-06
1322 0.897167 10.1098 1.751 0 0 1.00017 5.57766e-06
485 1.84538 9.41022 0.448727 0 0 1.00017 9.9294e-06
488 1.91163 10.3229 0.968314 0 0 1.00017 9.96252e-06
486 2.68033 10.2113 0.0804074 0 0 1.00017 1.37063e-05
487 2.46755 9.38969 1.21848 0 0 1.00017 1.29592e-05
1326 2.86109 10.1617 1.66365 0 0 1.00017 1.51907e-05
1329 3.30701 9.16353 1.65552 0 0 1.00017 1.73201e-05
489 3.1706 9.29718 0.082549 0 0 1.00017 1.60784e-05
492 3.47468 9.95487 0.733824 0 0 1.00017 1.78779e-05
491 4.03785 9.02292 0.853938 0 0 1.00017 2.04529e-05
493 4.68489 9.08928 0.00326661 0 0 1.00017 2.35182e-05
496 4.70887 9.87421 0.567243 0 0 1.00017 2.46236e-05
1330 4.22455 9.86783 1.60616 0 0 1.00017 2.26944e-05
1333 4.78722 8.96162 1.64158 0 0 1.00017 2.50329e-05
495 5.44824 8.84107 0.655162 0 0 1.00017 2.74134e-05
500 6.36157 9.66703 0.512662 0 0 1.00017 3.38471e-05
1334 5.4347 9.71273 1.165 0 0 1.00017 2.9063e-05
1337 6.28189 8.93509 1.25394 0 0 1.00017 3.27151e-05
1417 6.35701 10.3746 1.18448 0 0 1.00017 3.56263e-05
501 8.24715 8.91453 0.0796059 0 0 1.00017 4.21084e-05
504 8.10722 9.78462 0.571662 0 0 1.00017 4.43945e-05
1338 7.30896 9.59757 1.18882 0 0 1.00017 4.01057e-05
1341 8.19576 9.02472 1.39159 0 0 1.00017 4.37343e-05
1421 7.79215 10.4795 1.35122 0 0 1.00017 4.57199e-05
579 7.05271 10.5474 0.460896 0 0 1.00017 3.97029e-05
503 9.09895 9.31229 0.721639 0 0 1.00017 4.85393e-05
508 9.80373 10.186 0.658801 0 0 1.00017 5.59511e-05
1342 8.90419 10.0968 1.40081 0 0 1.00017 5.18011e-05
1345 10.0016 9.44042 1.40861 0 0 1.00017 5.55264e-05
507 10.6433 9.55236 0.655713 0 0 1.00017 5.74414e-05
1346 10.8141 10.0317 1.62525 0 0 1.00017 6.38433e-05
1349 11.5105 9.50782 1.31821 0 0 1.00017 6.30342e-05
512 11.3853 10.455 0.720541 0 0 1.00017 6.58568e-05
436 13.1994 8.88402 0.784315 0 0 1.00017 6.28242e-05
511 12.2976 9.70809 0.687789 0 0 1.00017 6.58125e-05
516 13.0162 10.3875 0.954142 0 0 1.00017 7.35945e-05
1353 12.7676 9.5231 1.60995 0 0 1.00017 6.97047e-05
1350 12.1744 10.4656 1.59178 0 0 1.00017 7.34435e-05
440 14.6791 9.15962 0.764626 0 0 1.00017 6.81042e-05
515 13.7453 9.63172 0.839903 0 0 1.00017 7.00836e-05
1354 13.7141 10.3456 1.70196 0 0 1.00017 7.97601e-05
517 14.4779 10.1012 0.218327 0 0 1.00017 7.47752e-05
444 16.1219 9.17163 1.13694 0 0 1.00017 7.08698e-05
1278 15.2904 9.05139 1.76235 0 0 1.00017 7.21998e-05
519 15.3508 9.8538 1.0157 0 0 1.00017 7.59276e-05
521 15.8996 10.1829 0.248251 0 0 1.00017 7.75634e-05
523 16.7211 9.99726 0.968817 0 0 1.00017 7.78542e-05
442 16.7209 9.07655 0.265564 0 0 1.00017 6.8042e-05
438 15.5055 9.19734 0.111732 0 0 1.00017 6.84918e-05
448 17.3165 9.11921 1.13105 0 0 1.00017 7.00892e-05
525 17.3687 10.0838 0.205003 0 0 1.00017 7.65494e-05
527 17.9892 9.94793 1.07965 0 0 1.00017 7.63188e-05
446 17.977 9.18269 0.122748 0 0 1.00017 6.7888e-05
452 18.5151 8.9949 0.952718 0 0 1.00017 6.70378e-05
456 20.0243 9.09081 1.06698 0 0 1.00017 6.42078e-05
529 18.8017 9.84199 0.307394 0 0 1.00017 7.21646e-05
531 19.6994 10.0311 0.87023 0 0 1.00017 7.17572e-05
532 18.9195 10.5793 1.15915 0 0 1.00017 7.98216e-05
1369 18.8691 9.70557 1.72381 0 0 1.00017 7.56116e-05
450 19.4409 9.0767 0.216599 0 0 1.00017 6.44552e-05
533 20.1861 9.92615 0.0737639 0 0 1.00017 6.80255e-05
535 21.1136 9.97015 0.773212 0 0 1.00017 6.49144e-05
1373 20.4381 9.82417 1.68852 0 0 1.00017 7.05206e-05
454 20.9712 9.21986 0.208434 0 0 1.00017 6.01471e-05
460 21.803 9.19357 0.988692 0 0 1.00017 5.74897e-05
1298 22.5736 9.059 1.61145 0 0 1.00017 5.45998e-05
539 22.9836 9.86956 0.821094 0 0 1.00017 5.4289e-05
1377 22.1007 9.97108 1.56106 0 0 1.00017 6.18748e-05