ITEM: TIMESTEP
32500
ITEM: NUMBER OF ATOMS
32000
ITEM: BOX BOUNDS pp pp pp
0.0000000000000000e+00 3.1748021039364001e+01
0.0000000000000000e+00 3.1748021039364001e+01
0.0000000000000000e+00 3.1748021039364001e+01
ITEM: ATOMS id x y z c_phase c_nbond c_rho v_omega
4 0.209974 1.11131 0.466683 0 0 1.00089 2.51848e-06
83 1.12741 1.57898 0.778127 0 0 1.00089 4.49379e-06
842 0.785025 0.732118 1.40272 0 0 1.00089 3.08588e-06
921 0.164115 1.62364 1.37694 0 0 1.00089 3.14673e-06
3 0.720131 0.0121473 0.61809 0 0 1.00089 2.07559e-06
8 1.77934 0.66212 1.01175 0 0 1.00089 4.0674e-06
85 1.94802 1.31185 0.207242 0 0 1.00089 5.36419e-06
925 1.99145 1.46638 1.74059 0 0 1.00089 5.65553e-06
6 2.57541 0.499687 0.19219 0 0 1.00089 4.79426e-06
87 2.79648 1.28164 0.863411 0 0 1.00089 6.41597e-06
846 2.74413 0.561439 1.72682 0 0 1.00089 4.98173e-06
12 3.50615 0.589459 0.951326 0 0 1.00089 5.96343e-06
929 3.78205 1.34971 1.69484 0 0 1.00089 7.73806e-06
10 4.18638 0.470503 0.305806 0 0 1.00089 6.06805e-06
850 4.4084 0.526183 1.62398 0 0 1.00089 6.78746e-06
91 4.20852 1.43868 0.711245 0 0 1.00089 8.55715e-06
16 5.02418 0.123495 1.13271 0 0 1.00089 5.75452e-06
93 5.09853 1.15177 0.373648 0 0 1.00089 8.48664e-06
14 5.71105 0.169355 0.299993 0 0 1.00089 6.31433e-06
95 6.02911 0.818723 0.948264 0 0 1.00089 8.00651e-06
933 5.2073 1.2292 1.43505 0 0 1.00089 9.04054e-06
934 6.12395 1.68924 1.48292 0 0 1.00089 1.08412e-05
97 6.73471 0.885875 0.214172 0 0 1.00089 8.25432e-06
937 6.79864 0.485335 1.689 0 0 1.00089 7.22975e-06
99 7.51463 0.693893 0.946783 0 0 1.00089 7.85219e-06
941 8.3182 0.706758 1.6162 0 0 1.00089 8.35225e-06
18 7.64223 0.124606 0.151966 0 0 1.00089 5.91197e-06
938 7.58937 1.5006 1.56089 0 0 1.00089 1.10119e-05
100 6.84347 1.64963 0.781861 0 0 1.00089 1.10923e-05
98 7.75479 1.67393 0.129122 0 0 1.00089 1.13546e-05
101 8.43067 0.855903 0.223938 0 0 1.00089 8.25999e-06
103 9.19293 0.780159 1.08438 0 0 1.00089 7.7785e-06
945 9.73986 0.456939 1.75777 0 0 1.00089 5.87032e-06
105 9.83205 0.845722 0.11158 0 0 1.00089 7.33607e-06
102 9.23498 1.56673 0.238889 0 0 1.00089 1.08994e-05
104 8.4247 1.62827 0.936202 0 0 1.00089 1.14405e-05
942 9.39773 1.64787 1.721 0 0 1.00089 1.20202e-05
108 10.1068 1.50551 1.08407 0 0 1.00089 1.03217e-05
107 10.5299 0.583984 0.835367 0 0 1.00089 5.95566e-06
949 11.4719 0.587058 1.41731 0 0 1.00089 5.36493e-06
946 10.8791 1.2234 1.72418 0 0 1.00089 9.12002e-06
112 11.5062 1.41551 0.780487 0 0 1.00089 9.35664e-06
106 10.6507 1.61962 0.190811 0 0 1.00089 1.06603e-05
111 12.2232 0.721091 0.519556 0 0 1.00089 5.12232e-06
953 12.956 0.875589 1.37509 0 0 1.00089 5.38104e-06
950 12.3118 1.55426 1.46024 0 0 1.00089 9.55403e-06
116 13.0793 1.65321 0.611552 0 0 1.00089 9.20883e-06
40 14.4327 0.194465 0.782708 0 0 1.00089 6.88956e-07
115 13.8073 0.913456 0.834529 0 0 1.00089 4.61555e-06
117 14.3825 1.37484 0.145809 0 0 1.00089 6.63193e-06
874 13.6659 0.130645 1.63484 0 0 1.00089 1.03465e-06
957 14.6155 1.04576 1.48213 0 0 1.00089 4.75517e-06
119 15.2071 1.48514 0.668654 0 0 1.00089 6.44006e-06
44 15.8764 0.772925 0.790252 0 0 1.00089 2.50991e-06
878 15.2297 0.418982 1.63671 0 0 1.00089 8.43919e-07
882 16.6989 0.822593 1.35076 0 0 1.00089 2.42513e-06
961 15.9627 1.51174 1.41127 0 0 1.00089 6.74559e-06
38 15.2321 0.64847 0.0731014 0 0 1.00089 1.79179e-06
123 16.8841 1.67873 0.693526 0 0 1.00089 6.89872e-06
48 17.4251 0.922665 0.564334 0 0 1.00089 2.73893e-06
886 18.093 1.02561 1.42575 0 0 1.00089 3.89256e-06
47 18.152 0.209572 0.693672 0 0 1.00089 -1.45341e-07
885 17.2885 0.0314112 1.39924 0 0 1.00089 -1.26292e-06
51 19.5544 0.404946 0.678246 0 0 1.00089 1.33665e-06
52 18.949 1.09115 0.69595 0 0 1.00089 4.21645e-06
889 19.0442 0.525325 1.55286 0 0 1.00089 1.30886e-06
890 19.8385 1.39849 1.69472 0 0 1.00089 7.1131e-06
55 21.2122 0.858734 1.07775 0 0 1.00089 4.2711e-06
56 20.4206 1.24172 0.957993 0 0 1.00089 5.79058e-06
54 21.3517 1.3031 0.211724 0 0 1.00089 6.83555e-06
893 20.4411 0.360795 1.42372 0 0 1.00089 2.59215e-06
53 20.2805 0.344624 0.0671394 0 0 1.00089 2.24631e-06
57 22.1024 0.849546 0.538908 0 0 1.00089 5.16146e-06
59 22.9203 1.01097 1.4055 0 0 1.00089 6.1394e-06
60 22.3654 1.75754 1.32947 0 0 1.00089 9.45207e-06
58 23.0944 1.65456 0.471995 0 0 1.00089 8.48587e-06
17538 22.7604 0.150569 0.46447 0 0 1.00089 2.36052e-06
63 24.3626 0.973361 1.41405 0 0 1.00089 6.57197e-06
61 23.6583 0.929952 0.564018 0 0 1.00089 6.01293e-06
62 24.6304 1.76668 0.732854 0 0 1.00089 8.79384e-06
65 25.0485 0.882945 0.52782 0 0 1.00089 6.11018e-06
17544 23.5304 0.0882375 1.24747 0 0 1.00089 3.17288e-06
17542 24.3451 0.0735993 0.594016 0 0 1.00089 3.37704e-06
67 26.071 0.906953 1.15932 0 0 1.00089 5.77817e-06
68 25.3604 1.71857 1.44495 0 0 1.00089 8.70993e-06
66 26.0445 1.49804 0.41869 0 0 1.00089 7.38253e-06
17548 25.1729 0.33199 1.3515 0 0 1.00089 4.60024e-06
17546 25.9089 0.0484662 0.333741 0 0 1.00089 3.54951e-06
70 27.7485 1.7162 0.381439 0 0 1.00089 6.14919e-06
71 27.6851 0.930424 0.868735 0 0 1.00089 4.76952e-06
72 26.8926 1.52752 1.24737 0 0 1.00089 6.75642e-06
69 26.8377 0.732104 0.24224 0 0 1.00089 4.93328e-06
17552 27.0898 0.139743 0.999333 0 0 1.00089 3.40005e-06
17556 28.3475 0.0457896 0.731305 0 0 1.00089 2.3517e-06
913 28.4374 0.718908 1.41325 0 0 1.00089 3.58939e-06
76 28.7859 1.57351 0.729367 0 0 1.00089 4.51078e-06
914 29.4847 1.24226 1.5647 0 0 1.00089 3.34942e-06
917 29.8392 0.397137 1.45354 0 0 1.00089 1.59342e-06
75 29.313 0.632606 0.616862 0 0 1.00089 2.35482e-06
841 31.6036 0.306857 1.25585 0 0 1.00089 -7.3083e-07
79 30.7537 0.612502 0.477576 0 0 1.00089 6.23455e-07
80 30.2179 1.39268 0.769529 0 0 1.00089 2.28562e-06
918 30.9545 1.09229 1.38153 0 0 1.00089 1.05049e-06
82 1.34103 2.32526 0.112789 0 0 1.00089 5.91686e-06
84 0.36641 2.38468 0.8034 0 0 1.00089 4.3376e-06
163 1.58504 3.0789 0.93545 0 0 1.00089 7.46713e-06
922 1.36728 2.24429 1.58397 0 0 1.00089 5.99207e-06
1001 0.67273 3.0093 1.5473 0 0 1.00089 5.52245e-06
161 0.622808 3.08675 0.124741 0 0 1.00089 5.45447e-06
88 2.146 2.21281 0.780222 0 0 1.00089 6.99936e-06
167 2.9821 2.98739 0.850738 0 0 1.00089 1.00204e-05
926 2.90695 1.96185 1.53408 0 0 1.00089 7.98222e-06
86 2.96209 2.10933 0.0480596 0 0 1.00089 8.23679e-06
1005 2.40531 2.86252 1.74239 0 0 1.00089 8.62852e-06
1009 3.62984 3.03719 1.64034 0 0 1.00089 1.16082e-05
92 3.65077 2.20847 0.780768 0 0 1.00089 9.59005e-06
171 4.55599 2.88731 0.755921 0 0 1.00089 1.23092e-05
930 4.4439 2.21683 1.57903 0 0 1.00089 1.07237e-05
96 5.20265 2.09137 0.818325 0 0 1.00089 1.1329e-05
94 5.9499 1.93579 0.142148 0 0 1.00089 1.15027e-05
175 6.05713 2.66652 0.952175 0 0 1.00089 1.40452e-05
173 5.36436 2.82632 0.0167475 0 0 1.00089 1.36469e-05
174 6.23588 3.37362 0.164704 0 0 1.00089 1.67202e-05
176 5.37677 3.4981 1.13181 0 0 1.00089 1.57114e-05
1017 6.95364 2.48535 1.53683 0 0 1.00089 1.43837e-05
177 7.01058 2.39335 0.117913 0 0 1.00089 1.36098e-05
179 7.83509 2.46955 0.88856 0 0 1.00089 1.47996e-05
180 7.0095 3.198 0.784104 0 0 1.00089 1.68778e-05
1018 7.97358 3.23954 1.49818 0 0 1.00089 1.8476e-05
1021 8.65017 2.39349 1.63463 0 0 1.00089 1.50936e-05
181 8.71597 2.39576 0.0347675 0 0 1.00089 1.43982e-05
183 9.40982 2.3947 0.930761 0 0 1.00089 1.51673e-05
1022 9.69993 3.16149 1.50058 0 0 1.00089 1.99641e-05
184 8.78873 3.24838 0.701714 0 0 1.00089 1.86001e-05
182 9.60826 3.2818 0.0459575 0 0 1.00089 1.93915e-05
185 10.0626 2.38431 0.203835 0 0 1.00089 1.47956e-05
188 10.4943 3.0426 0.874123 0 0 1.00089 1.8298e-05
187 11.1226 2.31219 0.91867 0 0 1.00089 1.39568e-05
1026 11.3613 3.09286 1.59434 0 0 1.00089 1.88726e-05
186 11.2764 3.3204 0.167436 0 0 1.00089 1.94085e-05
1025 10.5462 2.16875 1.75639 0 0 1.00089 1.39549e-05
1029 11.9991 2.41311 1.60349 0 0 1.00089 1.52376e-05
192 12.0892 3.19863 0.817648 0 0 1.00089 1.92547e-05
191 12.4651 2.29687 0.747394 0 0 1.00089 1.41609e-05
196 13.1944 3.29222 0.818627 0 0 1.00089 1.97232e-05
1033 13.4901 2.69615 1.69509 0 0 1.0009 1.55309e-05
195 13.8561 2.78975 0.84234 0 0 1.00089 1.55884e-05
954 13.8085 1.76912 1.46785 0 0 1.00089 9.22487e-06
120 14.5562 2.27414 0.921914 0 0 1.00089 1.18191e-05
1037 14.7902 3.20738 1.55469 0 0 1.00089 1.79637e-05
197 14.8161 3.08041 0.0416949 0 0 1.00089 1.62229e-05
114 13.8891 2.072 0.0418107 0 0 1.00089 1.14632e-05
194 14.0044 3.48908 0.0229095 0 0 1.00089 1.97174e-05
199 15.4693 3.35275 0.868887 0 0 1.00089 1.80888e-05
958 15.339 2.26269 1.45382 0 0 1.00089 1.1931e-05
118 15.3978 2.4297 0.124691 0 0 1.00089 1.20346e-05
124 16.2321 2.47319 0.707227 0 0 1.00089 1.18196e-05
1041 16.1425 3.2902 1.51094 0 0 1.00089 1.76996e-05
201 16.2881 3.28119 0.012279 0 0 1.00089 1.71408e-05
962 16.8881 2.59922 1.53632 0 0 1.00089 1.31747e-05
127 18.2824 1.88168 0.749815 0 0 1.00089 8.25911e-06
203 17.0311 3.32894 0.669458 0 0 1.00089 1.73854e-05
965 17.6215 1.94453 1.56248 0 0 1.00089 8.73951e-06
128 17.6051 2.5635 0.672363 0 0 1.00089 1.23145e-05
1045 17.7862 3.34931 1.50432 0 0 1.00088 1.72855e-05
969 19.0191 1.87836 1.49826 0 0 1.00089 8.93667e-06
207 18.5848 3.25213 0.718752 0 0 1.00089 1.62193e-05
966 18.5732 2.74661 1.60216 0 0 1.00089 1.39904e-05
131 19.875 1.99516 0.841784 0 0 1.00089 9.19437e-06
129 19.2114 1.95773 0.0141416 0 0 1.00089 8.52504e-06
132 19.4156 2.79381 1.018 0 0 1.00089 1.40408e-05
209 19.515 3.44407 0.193365 0 0 1.00089 1.76042e-05
130 20.1017 2.78273 0.112262 0 0 1.00089 1.36037e-05
133 20.671 2.01128 0.202878 0 0 1.00089 9.62896e-06
135 21.4291 2.17762 0.956437 0 0 1.00089 1.08707e-05
973 20.7169 2.28837 1.74437 0 0 1.00089 1.19251e-05
134 21.659 3.00556 0.460606 0 0 1.00089 1.46279e-05
136 20.7388 2.96994 1.08019 0 0 1.00089 1.52313e-05
137 22.3051 2.20831 0.502114 0 0 1.00089 1.09695e-05
139 23.2765 2.69021 1.50485 0 0 1.00089 1.31391e-05
140 22.5372 3.13136 1.22815 0 0 1.00089 1.57687e-05
138 23.4032 3.26589 0.720852 0 0 1.00089 1.49374e-05
64 23.7298 1.84205 1.3804 0 0 1.00089 9.65301e-06
141 24.0151 2.45224 0.617323 0 0 1.00089 1.13119e-05
143 24.7525 2.61666 1.56436 0 0 1.00089 1.216e-05
142 24.761 3.32923 0.763377 0 0 1.00089 1.43023e-05
147 26.1922 2.30867 1.35473 0 0 1.00089 9.76509e-06
145 25.4184 2.44719 0.531479 0 0 1.00089 1.06137e-05
146 26.1681 3.19981 0.690604 0 0 1.00089 1.22133e-05
148 25.5503 3.20422 1.5162 0 0 1.00089 1.3029e-05
149 26.8005 2.30716 0.507854 0 0 1.00089 8.66944e-06
152 26.8737 3.12796 1.52272 0 0 1.00089 1.11447e-05
151 27.7397 2.43648 1.22078 0 0 1.00089 7.66337e-06
150 27.4248 3.18918 0.624204 0 0 1.00089 9.91209e-06
153 28.5007 2.47967 0.341362 0 0 1.00089 6.60409e-06
156 28.568 3.15478 1.18662 0 0 1.00089 7.98395e-06
993 28.7161 2.10101 1.50382 0 0 1.00089 5.83898e-06
155 29.647 2.30245 0.875247 0 0 1.00089 4.52092e-06
154 29.4795 2.99019 0.281885 0 0 1.00089 5.86223e-06
997 30.1638 2.03197 1.69715 0 0 1.00089 3.68915e-06
159 31.1112 2.08632 0.918172 0 0 1.00089 1.94944e-06
160 30.4502 2.89899 0.991439 0 0 1.00089 3.72865e-06
239 31.353 3.43861 0.966667 0 0 1.00089 3.01438e-06
998 31.2581 2.79317 1.72342 0 0 1.00089 2.55253e-06
237 30.4501 3.4536 0.152712 0 0 1.00089 4.77161e-06
157 30.5944 2.07682 0.0330497 0 0 1.00089 2.73428e-06
158 31.4 2.74302 0.0741139 0 0 1.00089 2.06559e-06
164 0.645744 3.75862 0.91068 0 0 1.00089 6.15164e-06
241 0.553034 4.60114 0.462309 0 0 1.00089 6.68167e-06
243 1.54905 4.51321 0.976388 0 0 1.00089 9.2399e-06
162 1.40404 3.74671 0.0678025 0 0 1.00089 7.63067e-06
244 0.556601 5.25531 1.27194 0 0 1.00089 7.44946e-06
168 2.24212 3.82351 0.849502 0 0 1.00089 9.73865e-06
247 2.99827 4.54593 1.11407 0 0 1.00089 1.29351e-05
166 3.06039 3.83492 0.190249 0 0 1.00089 1.17597e-05
245 2.33758 4.71455 0.276614 0 0 1.00089 1.11765e-05
246 3.19008 5.24666 0.269984 0 0 1.00089 1.4275e-05
249 3.89373 4.44701 0.169334 0 0 1.00089 1.4909e-05
172 3.89341 3.68936 0.881281 0 0 1.00089 1.29161e-05
251 4.58037 4.39604 1.14961 0 0 1.00089 1.6639e-05
170 4.68959 3.71185 0.13917 0 0 1.00089 1.47074e-05
250 4.75537 4.9619 0.312977 0 0 1.00089 1.8181e-05
252 3.66855 5.21645 1.26934 0 0 1.00089 1.61994e-05
253 5.53497 4.19907 0.317695 0 0 1.00089 1.79692e-05
255 6.28422 4.11487 1.01931 0 0 1.00089 1.93713e-05
254 6.38695 4.79138 0.262962 0 0 1.00089 2.15978e-05
256 5.54452 4.86772 1.2667 0 0 1.00089 2.02142e-05
1097 7.26144 3.88687 1.64051 0 0 1.00089 2.05761e-05
260 7.29888 4.51238 0.85284 0 0 1.00089 2.24343e-05
259 8.02021 3.82488 0.569643 0 0 1.00089 2.09144e-05
258 8.0239 4.6836 0.0221721 0 0 1.00089 2.45763e-05
1098 8.13351 4.68412 1.48481 0 0 1.00089 2.53252e-05
1101 8.89842 3.94135 1.46565 0 0 1.00089 2.25561e-05
264 8.95883 4.64546 0.698216 0 0 1.00089 2.59002e-05
263 9.79486 3.94732 0.80101 0 0 1.00089 2.31578e-05
1102 9.88499 4.65529 1.57352 0 0 1.00088 2.79435e-05
262 9.83504 4.81442 0.0154368 0 0 1.00089 2.78742e-05
268 10.6296 4.71462 0.796776 0 0 1.00089 2.82506e-05
265 10.5856 3.95986 0.11095 0 0 1.00089 2.35193e-05
1105 10.6291 3.77006 1.65028 0 0 1.00089 2.30191e-05
267 11.3958 4.07816 0.888451 0 0 1.00089 2.43497e-05
1106 11.4449 4.65943 1.74212 0 0 1.00088 2.86859e-05
266 11.4121 4.97004 0.0207013 0 0 1.00089 2.95639e-05
269 12.199 4.24792 0.207351 0 0 1.00089 2.48484e-05
1109 12.1994 3.93229 1.68336 0 0 1.00089 2.49316e-05
272 12.3354 4.79784 1.00798 0 0 1.00088 2.93941e-05
271 13.078 4.18025 1.01759 0 0 1.00089 2.58252e-05
270 12.989 5.15738 0.188299 0 0 1.00089 3.05071e-05
273 13.4751 4.2743 0.0552513 0 0 1.00089 2.47875e-05
1113 13.783 4.62371 1.69841 0 0 1.00089 2.86104e-05
275 14.1443 4.4745 0.770575 0 0 1.00089 2.69137e-05
200 14.8606 3.96926 0.695306 0 0 1.00089 2.26721e-05
1034 14.3871 3.96775 1.5875 0 0 1.00089 2.37141e-05
274 14.3453 5.27984 0.0169307 0 0 1.00089 3.18189e-05
277 15.0987 4.7328 0.0844925 0 0 1.00089 2.68244e-05
1117 15.234 4.95413 1.51426 0 0 1.00089 3.06083e-05
279 15.9857 5.01853 0.823858 0 0 1.00089 2.91955e-05
198 15.8234 4.14446 0.107818 0 0 1.00089 2.234e-05
1038 15.9419 4.36753 1.60013 0 0 1.00089 2.4816e-05
204 16.5402 4.12584 0.896394 0 0 1.00089 2.26671e-05
281 16.8158 4.88052 0.156792 0 0 1.00089 2.66709e-05
1121 16.9043 5.14615 1.65927 0 0 1.00089 3.07853e-05
1042 17.2374 4.13558 1.67027 0 0 1.00089 2.37212e-05
283 17.5329 4.83737 0.906223 0 0 1.00089 2.68664e-05
208 18.0921 4.10519 0.799149 0 0 1.00088 2.15197e-05
285 18.3379 4.92626 0.0406979 0 0 1.00089 2.65698e-05
1046 18.7372 4.02524 1.64637 0 0 1.00089 2.21038e-05
287 18.9832 4.91618 1.08763 0 0 1.00089 2.74125e-05
206 18.9316 4.2294 0.0780344 0 0 1.00088 2.14846e-05
212 19.6081 4.17714 0.964177 0 0 1.00089 2.18655e-05
289 19.7237 5.12388 0.353914 0 0 1.00089 2.77937e-05
213 21.0062 3.58994 0.321171 0 0 1.00089 1.83458e-05
210 20.3341 4.30137 0.255483 0 0 1.00089 2.21798e-05
211 20.3775 3.75744 1.26947 0 0 1.00089 1.98252e-05
291 20.5413 5.24815 1.12034 0 0 1.00089 2.79008e-05
216 21.1468 4.43193 1.21058 0 0 1.00089 2.26366e-05
214 21.8238 4.62342 0.511945 0 0 1.00089 2.29835e-05
215 21.9435 3.92678 1.39031 0 0 1.00089 1.91159e-05
217 22.5684 3.87714 0.602773 0 0 1.00089 1.92392e-05
16179 23.2832 4.08234 0.0327505 0 0 1.00089 1.85952e-05
220 22.6442 4.84536 1.30322 0 0 1.00089 2.39598e-05
218 23.3359 5.0688 0.543567 0 0 1.00089 2.30921e-05
144 24.1625 3.55363 1.52538 0 0 1.00089 1.62616e-05
219 23.4419 4.30428 1.39774 0 0 1.00089 1.99505e-05
223 25.0043 4.2194 1.5504 0 0 1.00089 1.77137e-05
221 24.1593 4.31667 0.761486 0 0 1.00089 1.88029e-05
222 24.9511 5.05999 0.633655 0 0 1.00089 2.03207e-05
224 24.1734 5.27619 1.33656 0 0 1.00089 2.34217e-05
228 25.6409 5.17899 1.568 0 0 1.00089 1.96714e-05
227 26.2003 4.1253 1.51603 0 0 1.00089 1.51219e-05
229 26.644 4.09176 0.593269 0 0 1.00089 1.37313e-05
225 25.5726 4.28483 0.753753 0 0 1.00089 1.62153e-05
226 26.1113 5.06845 0.421379 0 0 1.00089 1.74301e-05
233 28.3571 3.66437 0.336335 0 0 1.00089 9.27426e-06
232 26.8948 4.89611 1.36903 0 0 1.00089 1.54783e-05
231 27.6248 3.86131 1.40588 0 0 1.00089 1.1291e-05
230 27.5472 4.58257 0.579307 0 0 1.00089 1.3283e-05
236 28.4153 4.43194 1.11403 0 0 1.00089 1.09906e-05
235 29.5961 3.56495 1.178 0 0 1.00089 6.67164e-06
313 28.7588 5.18183 0.690118 0 0 1.00089 1.07432e-05
234 29.3322 4.12605 0.465654 0 0 1.00089 7.8802e-06
315 29.5392 4.86149 1.30588 0 0 1.00089 8.58293e-06
240 30.3863 4.27655 1.02783 0 0 1.00089 5.80841e-06
238 31.3974 4.08783 0.351072 0 0 1.00089 3.16565e-06
317 30.6339 4.89103 0.471176 0 0 1.00089 5.1684e-06
319 31.4051 4.7072 1.37951 0 0 1.00089 3.58742e-06
242 1.39199 5.40485 0.454628 0 0 1.00089 9.46134e-06
323 1.31651 6.08198 1.27415 0 0 1.00089 9.98546e-06
324 0.789816 6.89228 1.47664 0 0 1.00089 8.85614e-06
322 1.50484 6.78459 0.562961 0 0 1.00089 1.09385e-05
321 0.496162 6.01232 0.449449 0 0 1.00089 7.5466e-06
248 2.03674 5.29814 1.35735 0 0 1.00089 1.15991e-05
328 2.25608 6.75661 1.23845 0 0 1.00089 1.35802e-05
325 2.4052 5.93119 0.489869 0 0 1.00089 1.31617e-05
327 2.8409 5.83922 1.37764 0 0 1.00089 1.47735e-05
326 3.05321 6.75643 0.460941 0 0 1.00089 1.655e-05
332 3.83303 6.50788 1.13862 0 0 1.00089 1.87207e-05
329 3.98128 5.81191 0.465788 0 0 1.00089 1.78164e-05
331 4.7228 5.5562 1.21037 0 0 1.00089 1.9904e-05
330 4.63878 6.46391 0.224023 0 0 1.00089 2.1591e-05
411 4.65856 7.04091 1.18478 0 0 1.0009 2.2913e-05
336 5.45961 6.191 1.14835 0 0 1.00089 2.41869e-05
333 5.47699 5.64993 0.304311 0 0 1.00089 2.21418e-05
335 6.36372 5.53957 0.950788 0 0 1.00089 2.48881e-05
334 6.26695 6.34221 0.144405 0 0 1.00089 2.70548e-05
415 6.23577 6.85428 0.985514 0 0 1.00089 2.83583e-05
413 5.39378 7.01565 0.218943 0 0 1.00089 2.53092e-05
337 7.11348 5.40358 0.131609 0 0 1.00089 2.55093e-05
340 7.22581 6.11106 0.938765 0 0 1.00089 2.95774e-05
1177 7.21193 5.28409 1.59581 0 0 1.00089 2.63137e-05
339 8.09335 5.41746 0.758113 0 0 1.00089 2.83026e-05
1178 8.13914 6.0456 1.58673 0 0 1.00088 3.24597e-05
417 7.30774 6.80417 0.133256 0 0 1.00089 3.23257e-05
419 8.17994 6.91173 0.719817 0 0 1.00089 3.58024e-05
344 8.9095 6.07994 0.694826 0 0 1.00089 3.33114e-05
1181 9.07908 5.37561 1.49268 0 0 1.00088 3.08724e-05
343 9.79016 5.47496 0.746264 0 0 1.00089 3.16632e-05
1261 9.04043 6.64427 1.54095 0 0 1.00088 3.81988e-05
421 8.93566 6.82652 0.000169697 0 0 1.00089 3.73382e-05
423 9.91367 6.84036 0.664789 0 0 1.00088 3.97879e-05
1182 10.0583 6.19105 1.45839 0 0 1.00088 3.75083e-05
1185 10.7411 5.48808 1.48506 0 0 1.00088 3.4052e-05
345 10.6976 5.59907 0.0782121 0 0 1.00089 3.32564e-05
347 11.5817 5.44325 0.908071 0 0 1.00089 3.28514e-05
346 11.5833 6.33873 0.106319 0 0 1.00089 3.91807e-05
1186 11.5805 6.27178 1.48607 0 0 1.00088 4.0505e-05
348 10.8457 6.45361 0.723722 0 0 1.00088 3.94996e-05
349 12.3606 5.83013 0.0449569 0 0 1.00089 3.54674e-05
352 12.4385 6.56709 0.800285 0 0 1.00089 4.22944e-05
351 12.8644 5.75504 1.04805 0 0 1.00089 3.64409e-05
1190 13.3477 6.67595 1.36963 0 0 1.00089 4.4258e-05
276 13.7605 5.45307 0.861666 0 0 1.00089 3.3511e-05
1114 14.4866 5.60496 1.58011 0 0 1.00089 3.58679e-05
355 14.5392 6.27954 0.788851 0 0 1.00089 3.93279e-05
356 13.9399 6.92777 0.588356 0 0 1.00089 4.46578e-05
280 15.1895 5.57311 0.76753 0 0 1.00089 3.43476e-05
357 15.3077 6.25344 0.0258559 0 0 1.00089 3.82191e-05
1197 15.5673 6.48429 1.44223 0 0 1.00089 4.27947e-05
278 16.0787 5.61034 0.0391595 0 0 1.00089 3.24914e-05
359 16.2525 6.4884 0.800888 0 0 1.00089 4.04019e-05
1118 16.3059 5.87316 1.68771 0 0 1.00089 3.7154e-05
361 16.8582 6.4583 0.048024 0 0 1.00089 3.859e-05
284 16.9735 5.85971 0.942322 0 0 1.00089 3.45851e-05
363 17.685 6.72841 1.14546 0 0 1.00089 4.04651e-05
282 17.6631 5.68459 0.255071 0 0 1.00089 3.18146e-05
288 18.1892 5.74804 1.22822 0 0 1.00089 3.3555e-05
365 18.2623 6.62046 0.382244 0 0 1.00089 3.91055e-05
367 18.828 6.69114 1.33249 0 0 1.00088 4.04136e-05
286 18.8817 5.75821 0.495945 0 0 1.00088 3.26167e-05
292 19.7683 5.82108 1.19338 0 0 1.00089 3.31931e-05
369 19.5035 6.77639 0.607402 0 0 1.00089 3.90666e-05
295 21.7183 5.42768 1.35277 0 0 1.00089 2.87186e-05
293 21.0275 5.41909 0.35611 0 0 1.00089 2.78501e-05
290 20.4697 6.3642 0.624908 0 0 1.00089 3.4974e-05
294 21.7259 6.51315 0.637797 0 0 1.00089 3.35315e-05
296 21.1519 6.31814 1.37717 0 0 1.00089 3.46465e-05
297 22.4477 5.71116 0.77265 0 0 1.00089 2.82064e-05
299 23.3199 5.9537 1.28525 0 0 1.00089 2.85711e-05
300 22.58 6.67671 1.35239 0 0 1.00089 3.38765e-05
16260 22.6044 6.53085 0.0453722 0 0 1.00089 3.17495e-05
298 23.4988 6.67315 0.638291 0 0 1.00089 3.00905e-05
301 24.2544 5.8572 0.538073 0 0 1.00089 2.46472e-05
303 25.0719 6.07374 1.43824 0 0 1.00089 2.41024e-05
304 24.2976 6.74553 1.27297 0 0 1.00089 2.90431e-05
302 24.9209 6.80662 0.436153 0 0 1.00089 2.6802e-05
305 25.5352 5.97139 0.564014 0 0 1.00089 2.19139e-05
307 26.3441 5.85237 1.3543 0 0 1.00089 1.98359e-05
306 26.3779 6.58878 0.687654 0 0 1.00089 2.10181e-05
308 25.8434 6.8188 1.62651 0 0 1.00089 2.44443e-05
311 27.8783 5.42507 1.39668 0 0 1.00089 1.42079e-05
309 27.0927 5.59665 0.638159 0 0 1.00089 1.65926e-05
312 27.316 6.51148 1.46215 0 0 1.00089 1.80289e-05
310 28.0782 6.10143 0.701982 0 0 1.00089 1.42607e-05
389 27.3959 7.03393 0.630168 0 0 1.00089 1.8266e-05
391 28.2925 7.03011 1.3722 0 0 1.00089 1.5207e-05
316 28.9238 5.98999 1.45342 0 0 1.00089 1.20193e-05
314 29.8785 5.63654 0.807816 0 0 1.00089 8.25655e-06
395 29.9761 6.53909 1.30958 0 0 1.00089 8.90443e-06
393 29.0483 6.68744 0.653423 0 0 1.00089 1.21881e-05
16355 29.9103 6.48082 0.0707249 0 0 1.00089 9.11988e-06
16276 28.9996 5.83927 0.0333247 0 0 1.00089 1.08839e-05
318 31.4409 5.47775 0.58406 0 0 1.00089 4.21519e-06
320 30.7078 5.66883 1.43689 0 0 1.00089 6.06225e-06
397 30.8977 6.38868 0.628363 0 0 1.00089 5.8777e-06
399 31.7149 6.2356 1.37334 0 0 1.00089 3.70975e-06
398 31.7345 7.02292 0.601906 0 0 1.00089 3.29994e-06
401 0.813253 7.60174 0.636214 0 0 1.00089 8.63101e-06
402 1.41903 8.33158 0.584257 0 0 1.00089 1.12447e-05
403 1.6612 7.65259 1.46584 0 0 1.00089 1.20958e-05
404 0.900333 8.4848 1.45076 0 0 1.00089 9.15183e-06
478 0.224986 8.66169 0.396391 0 0 1.00089 6.53893e-06
479 0.0440501 7.89921 1.28325 0 0 1.00089 6.14357e-06
405 2.16474 7.51327 0.386906 0 0 1.00089 1.35021e-05
408 2.31706 8.30658 1.44867 0 0 1.00089 1.54369e-05
406 2.80892 8.24543 0.390721 0 0 1.00089 1.73019e-05
407 3.0034 7.4278 1.27323 0 0 1.00089 1.72552e-05
412 3.66952 8.01839 0.930924 0 0 1.00089 2.1214e-05
409 3.86981 7.25703 0.326424 0 0 1.00089 2.02597e-05
410 4.48817 7.86592 0.0548178 0 0 1.00089 2.39436e-05
491 4.59516 8.45634 0.843622 0 0 1.00089 2.59199e-05
1250 4.50665 7.75307 1.7556 0 0 1.00089 2.53564e-05
1329 3.85998 8.67052 1.6685 0 0 1.00089 2.32185e-05
1333 5.41798 8.30077 1.6159 0 0 1.00089 3.09267e-05
416 5.41606 7.58685 0.947014 0 0 1.0009 2.77469e-05
414 6.64959 7.57091 0.202061 0 0 1.00089 3.20697e-05
495 6.07265 8.1867 0.620499 0 0 1.00089 3.22031e-05
1337 6.97332 8.18618 1.22777 0 0 1.0009 3.77375e-05
420 7.2456 7.34685 1.04774 0 0 1.00089 3.4098e-05
1258 8.18641 7.2564 1.67017 0 0 1.00089 3.80885e-05
499 8.02373 7.98157 0.721887 0 0 1.00089 3.95293e-05
1338 8.00733 8.7841 1.18112 0 0 1.00089 4.46452e-05
424 9.20563 7.45498 0.859187 0 0 1.00089 4.17133e-05
501 9.03853 8.1461 0.0670838 0 0 1.00089 4.4141e-05
1341 8.98869 8.22192 1.37907 0 0 1.00089 4.63019e-05
503 9.94239 8.50861 0.697594 0 0 1.00088 5.03304e-05
1262 10.1003 7.7561 1.4146 0 0 1.00088 4.75897e-05
1265 10.8056 7.0626 1.57428 0 0 1.00088 4.49868e-05
428 10.8231 7.80778 0.695026 0 0 1.00088 4.85118e-05
427 11.7031 7.2228 0.816986 0 0 1.00088 4.60899e-05
426 11.5257 8.09329 0.00235433 0 0 1.00088 5.08856e-05
1345 10.9158 8.64484 1.39673 0 0 1.00088 5.57135e-05
1266 11.7642 7.98453 1.42785 0 0 1.00088 5.35414e-05
429 12.3848 7.47351 0.0272863 0 0 1.00089 4.80208e-05
432 12.522 8.17485 0.716232 0 0 1.00088 5.39072e-05
1269 12.5965 7.20161 1.55897 0 0 1.00089 4.93951e-05
1270 13.3406 8.13498 1.50354 0 0 1.00088 5.64624e-05
431 13.3898 7.7032 0.597599 0 0 1.00089 4.99979e-05
1273 14.1488 7.61185 1.47708 0 0 1.00089 5.35498e-05
435 14.8973 7.86996 0.528686 0 0 1.00089 5.15183e-05
1194 14.7995 7.05373 1.39213 0 0 1.00089 4.63344e-05
1274 15.0231 8.63255 1.57034 0 0 1.00089 6.20562e-05
436 14.2245 8.54653 0.776868 0 0 1.00089 5.78977e-05
360 15.5772 7.22675 0.643 0 0 1.00089 4.65005e-05
1277 15.6246 8.00233 1.38337 0 0 1.0009 5.42602e-05
439 16.4367 8.30049 0.880905 0 0 1.0009 5.4314e-05
1198 16.4907 7.57951 1.6714 0 0 1.0009 5.10933e-05
437 15.7849 8.32136 0.0191006 0 0 1.00089 5.3876e-05
364 16.9038 7.40566 0.866234 0 0 1.0009 4.55818e-05
441 17.1314 8.45985 0.143333 0 0 1.00089 5.29539e-05
443 17.6052 8.41416 1.08359 0 0 1.00089 5.39451e-05
362 17.7001 7.46583 0.29603 0 0 1.00089 4.53383e-05
368 18.2962 7.70621 1.08954 0 0 1.00089 4.76343e-05
445 18.3309 8.52765 0.287152 0 0 1.00089 5.31302e-05
447 18.9936 8.58388 1.02765 0 0 1.00089 5.22314e-05
366 19.0538 7.69648 0.224309 0 0 1.00089 4.55119e-05
372 19.5042 7.63834 1.15849 0 0 1.00089 4.69921e-05
370 20.1956 8.00956 0.612042 0 0 1.00089 4.54835e-05
371 20.4346 7.24402 1.34611 0 0 1.00089 4.20073e-05
373 21.0761 7.47446 0.599392 0 0 1.00089 4.04786e-05
376 21.0506 8.45651 1.31418 0 0 1.00089 4.79662e-05
374 21.7806 8.31246 0.610994 0 0 1.00088 4.39722e-05
375 21.8149 7.43456 1.30461 0 0 1.00089 4.01501e-05
377 22.6141 7.53963 0.669477 0 0 1.00088 3.74248e-05
380 22.5876 8.60374 1.13658 0 0 1.00088 4.34763e-05
378 23.3177 8.40028 0.391425 0 0 1.00089 3.83736e-05
379 23.54 7.5839 1.2038 0 0 1.00089 3.53996e-05
381 24.2101 7.63989 0.294874 0 0 1.00089 3.22392e-05
384 24.3279 8.28379 1.07806 0 0 1.00089 3.46346e-05
383 25.1221 7.448 1.18254 0 0 1.00089 2.86404e-05
382 25.1244 8.22082 0.297172 0 0 1.00088 3.03708e-05
387 26.579 7.38966 1.40805 0 0 1.00089 2.29526e-05
385 25.8883 7.51041 0.494364 0 0 1.00089 2.5019e-05
388 25.9005 8.26621 1.23426 0 0 1.00089 2.77669e-05
386 26.7753 8.04323 0.381956 0 0 1.00089 2.32049e-05
390 28.3327 7.59735 0.516288 0 0 1.00089 1.55649e-05
392 27.4821 7.8498 1.31568 0 0 1.00089 2.013e-05
469 27.6628 8.50791 0.431301 0 0 1.00089 1.97419e-05
471 28.443 8.45271 1.20905 0 0 1.00089 1.66302e-05
396 29.2308 7.57501 1.23358 0 0 1.00089 1.23915e-05
475 30.0816 8.05277 1.27899 0 0 1.00089 9.26506e-06
473 29.2884 8.21884 0.41642 0 0 1.00089 1.23173e-05
394 30.1299 7.28126 0.50419 0 0 1.00089 8.76534e-06
474 30.1581 8.75997 0.532096 0 0 1.00089 9.10363e-06
400 30.8696 7.30131 1.18018 0 0 1.00089 5.97677e-06
480 30.9786 8.71319 1.19094 0 0 1.00089 5.79828e-06
477 31.1744 8.0516 0.38805 0 0 1.00089 5.06957e-06
482 1.62703 10.0593 0.253512 0 0 1.00089 1.21396e-05
483 1.56657 9.17094 1.18084 0 0 1.00089 1.20255e-05
484 0.771658 9.89279 0.912287 0 0 1.00089 8.36273e-06
481 0.889499 9.27193 0.124776 0 0 1.00089 9.04317e-06
1322 1.34858 9.95693 1.7345 0 0 1.00089 1.10993e-05
559 0.0356212 9.3678 1.13533 0 0 1.00089 5.59628e-06
485 2.3034 9.1305 0.423718 0 0 1.00089 1.52827e-05
488 2.35007 9.98677 0.97566 0 0 1.00089 1.55752e-05
486 3.13341 9.78413 0.0811201 0 0 1.00089 1.94026e-05
487 2.96354 8.99986 1.18893 0 0 1.00089 1.84515e-05
1326 3.32413 9.69142 1.65948 0 0 1.00089 2.10459e-05
567 3.08855 10.4856 0.718301 0 0 1.00089 1.95628e-05
489 3.67705 8.81488 0.098423 0 0 1.00089 2.16648e-05
492 3.96483 9.44197 0.74445 0 0 1.00089 2.35658e-05
1330 4.7876 9.22769 1.56816 0 0 1.00089 2.88826e-05
1409 4.10052 10.1505 1.43206 0 0 1.00089 2.52973e-05
571 4.6716 10.1855 0.512448 0 0 1.00089 2.80934e-05
496 5.26435 9.23801 0.573511 0 0 1.00089 3.07145e-05
1334 6.0789 8.98844 1.18046 0 0 1.00089 3.51912e-05
575 6.08736 9.83218 0.449482 0 0 1.00089 3.64107e-05
1413 5.44229 9.96538 1.4497 0 0 1.00089 3.38309e-05
1414 6.19426 10.4695 1.21252 0 0 1.00089 3.83286e-05
500 7.00361 8.90186 0.504704 0 0 1.00089 3.89291e-05
1417 7.01752 9.58111 1.19822 0 0 1.00089 4.20204e-05
579 7.75006 9.66459 0.465446 0 0 1.00089 4.57409e-05
580 6.87443 10.4616 0.378582 0 0 1.00089 4.23978e-05
1418 7.80295 10.456 1.11342 0 0 1.00089 4.98508e-05
1421 8.59854 9.60204 1.32273 0 0 1.00089 5.1424e-05
504 8.89028 8.97457 0.566778 0 0 1.00089 4.86294e-05
1342 9.74258 9.18859 1.38393 0 0 1.00088 5.47226e-05
583 9.69631 9.88402 0.662677 0 0 1.00089 5.68069e-05
584 8.74237 10.36 0.677509 0 0 1.00089 5.34769e-05
508 10.6587 9.37719 0.665397 0 0 1.00089 5.81383e-05
507 11.5934 8.86634 0.664867 0 0 1.00089 5.72911e-05
1425 10.665 10.071 1.37393 0 0 1.00089 6.53062e-05
587 11.3716 10.2063 0.663714 0 0 1.00089 6.58853e-05
1346 11.7665 9.3065 1.59997 0 0 1.00089 6.3437e-05
512 12.3064 9.75517 0.720076 0 0 1.00089 6.51913e-05
1349 12.5859 8.89029 1.36355 0 0 1.00088 6.14031e-05
511 13.2971 9.18817 0.689668 0 0 1.00089 6.23976e-05
1350 13.2103 9.86376 1.5827 0 0 1.00089 7.11122e-05
510 12.9248 10.0182 0.0347997 0 0 1.00089 6.70257e-05
1429 12.3336 10.3863 1.51057 0 0 1.00089 7.27475e-05
1353 13.9336 9.10533 1.61517 0 0 1.00088 6.66076e-05
516 14.0097 10.0059 0.942784 0 0 1.00089 6.90104e-05
515 14.8097 9.40059 0.860791 0 0 1.00089 6.44467e-05
1354 14.8089 10.1091 1.69764 0 0 1.00089 7.43465e-05
514 14.5945 10.3026 0.0398158 0 0 1.00088 7.03065e-05
517 15.5228 9.92582 0.213786 0 0 1.00089 6.63901e-05
440 15.7557 9.04936 0.803765 0 0 1.00089 6.05788e-05
519 16.4117 9.92324 1.02215 0 0 1.00089 6.74818e-05
438 16.5205 9.2499 0.133921 0 0 1.00089 5.90509e-05
520 15.4647 10.5557 1.02774 0 0 1.00089 7.21071e-05
521 16.9235 10.2935 0.224124 0 0 1.00089 6.64589e-05
444 17.2152 9.35241 1.13239 0 0 1.00089 6.18152e-05
523 17.7498 10.3123 0.971825 0 0 1.00089 6.74616e-05
442 17.7429 9.39679 0.259395 0 0 1.00089 5.94434e-05
448 18.3896 9.48459 1.08465 0 0 1.00089 6.01723e-05
525 18.3767 10.5127 0.17351 0 0 1.00089 6.48449e-05
449 19.6658 8.84803 0.217433 0 0 1.00089 5.06962e-05
527 18.9638 10.4756 1.07654 0 0 1.00089 6.47887e-05
446 18.9845 9.68158 0.114038 0 0 1.00089 5.77094e-05
452 19.5556 9.62737 0.955685 0 0 1.00088 5.94639e-05
529 19.7374 10.5297 0.309511 0 0 1.00089 6.20426e-05
1369 19.8691 10.419 1.71261 0 0 1.00088 6.65054e-05
451 20.177 8.8997 1.18334 0 0 1.00089 5.34838e-05
453 20.9456 8.94866 0.378683 0 0 1.00088 5.03072e-05
450 20.3913 9.78493 0.225429 0 0 1.00088 5.62493e-05
456 20.9797 9.88482 1.03369 0 0 1.00089 5.58347e-05
455 21.7735 9.35532 1.05483 0 0 1.00089 5.02862e-05
454 21.8136 10.043 0.214888 0 0 1.00089 5.11199e-05