ITEM: TIMESTEP
41000
ITEM: NUMBER OF ATOMS
32000
ITEM: BOX BOUNDS pp pp pp
0.0000000000000000e+00 3.1748021039364001e+01
0.0000000000000000e+00 3.1748021039364001e+01
0.0000000000000000e+00 3.1748021039364001e+01
ITEM: ATOMS id x y z c_phase c_nbond c_rho v_omega
4 0.252956 1.10051 0.464403 0 0 1.00099 -3.21165e-07
83 1.18682 1.54017 0.774084 0 0 1.00099 1.53391e-06
842 0.821504 0.701993 1.3965 0 0 1.00099 2.89227e-07
921 0.227431 1.61564 1.37548 0 0 1.00099 2.89321e-07
8 1.81423 0.609224 1.00715 0 0 1.00099 1.19729e-06
85 2.00518 1.25204 0.197876 0 0 1.00099 2.37e-06
925 2.05136 1.39729 1.73034 0 0 1.00099 2.62222e-06
6 2.60374 0.417438 0.182546 0 0 1.00099 1.83021e-06
87 2.85216 1.19673 0.852887 0 0 1.00099 3.385e-06
846 2.77619 0.479335 1.7178 0 0 1.00099 2.04749e-06
12 3.53753 0.481336 0.943399 0 0 1.00099 2.95455e-06
929 3.8421 1.23915 1.68128 0 0 1.00099 4.63435e-06
10 4.21811 0.350464 0.294724 0 0 1.00099 3.10929e-06
850 4.43556 0.397646 1.61529 0 0 1.00099 3.78685e-06
91 4.27686 1.31252 0.70637 0 0 1.00099 5.42693e-06
8339 9.02122 15.4655 14.8804 0 0 1.00095 0.000834387
93 5.15923 1.01628 0.362591 0 0 1.00099 5.41665e-06
14 5.73815 0.0286042 0.286783 0 0 1.00099 3.50512e-06
95 6.07712 0.672119 0.943215 0 0 1.00099 5.0912e-06
933 5.26426 1.08159 1.42965 0 0 1.00099 5.89048e-06
934 6.20513 1.53913 1.47395 0 0 1.00099 7.70863e-06
97 6.78754 0.737281 0.207194 0 0 1.00099 5.47719e-06
937 6.8335 0.333972 1.68034 0 0 1.00099 4.48931e-06
99 7.56313 0.540674 0.940771 0 0 1.00099 5.28443e-06
938 7.67763 1.33921 1.55186 0 0 1.00099 8.19222e-06
100 6.93367 1.49404 0.777527 0 0 1.00099 8.13148e-06
98 7.84735 1.51355 0.121159 0 0 1.00099 8.52977e-06
941 8.37673 0.542531 1.61133 0 0 1.00099 5.85961e-06
101 8.4915 0.703728 0.213177 0 0 1.00099 5.91358e-06
103 9.24805 0.631934 1.07157 0 0 1.00099 5.70625e-06
945 9.79211 0.315491 1.7497 0 0 1.00099 4.13174e-06
105 9.8963 0.69756 0.110987 0 0 1.00099 5.54264e-06
102 9.33607 1.42042 0.226701 0 0 1.00099 8.67342e-06
104 8.52658 1.46285 0.931208 0 0 1.00099 8.78536e-06
942 9.50869 1.48438 1.72058 0 0 1.00099 9.69376e-06
108 10.2083 1.3634 1.07196 0 0 1.00099 8.53606e-06
107 10.587 0.454738 0.834611 0 0 1.00099 4.61725e-06
949 11.5335 0.468706 1.41175 0 0 1.00099 4.50676e-06
946 10.9779 1.10174 1.7211 0 0 1.00099 7.80232e-06
112 11.6207 1.30441 0.77933 0 0 1.00099 8.55961e-06
106 10.7647 1.48069 0.182281 0 0 1.00099 9.08271e-06
111 12.291 0.624714 0.518737 0 0 1.00099 4.83907e-06
953 13.0362 0.782219 1.37242 0 0 1.00099 5.32469e-06
950 12.4325 1.45726 1.45324 0 0 1.00099 9.11174e-06
116 13.2181 1.5817 0.611301 0 0 1.00099 9.41198e-06
40 14.4712 0.157173 0.782077 0 0 1.00099 1.67939e-06
115 13.8858 0.864182 0.824412 0 0 1.00099 5.2076e-06
117 14.4983 1.31937 0.13349 0 0 1.00099 7.43291e-06
874 13.6979 0.0640458 1.62933 0 0 1.00099 1.48057e-06
957 14.7005 1.02456 1.48143 0 0 1.00099 5.90329e-06
954 13.9444 1.71586 1.45929 0 0 1.00099 9.68862e-06
119 15.32 1.4667 0.66626 0 0 1.00099 7.91314e-06
44 15.9457 0.767807 0.789249 0 0 1.00099 4.05236e-06
878 15.2718 0.407915 1.63371 0 0 1.00099 1.91102e-06
961 16.0779 1.51584 1.41996 0 0 1.00099 8.34576e-06
38 15.2853 0.622877 0.0703167 0 0 1.00099 3.09629e-06
882 16.7636 0.847369 1.35434 0 0 1.00099 4.15744e-06
123 17.0026 1.71787 0.698746 0 0 1.00099 9.16399e-06
48 17.4992 0.971571 0.566763 0 0 1.00099 4.944e-06
886 18.1716 1.09829 1.42604 0 0 1.00099 6.16186e-06
47 18.1808 0.282274 0.694375 0 0 1.00099 2.18353e-06
885 17.3046 0.071865 1.40161 0 0 1.00099 5.26888e-07
51 19.59 0.50098 0.685989 0 0 1.00099 3.81103e-06
52 19.0232 1.18818 0.700465 0 0 1.00099 6.99415e-06
889 19.0778 0.618986 1.55994 0 0 1.00099 3.50726e-06
890 19.9427 1.50928 1.69906 0 0 1.00099 9.74943e-06
55 21.2773 0.993272 1.08479 0 0 1.001 6.95751e-06
56 20.499 1.36072 0.950192 0 0 1.00099 8.55415e-06
54 21.4365 1.44269 0.209489 0 0 1.00099 9.89987e-06
893 20.4667 0.487891 1.4185 0 0 1.00099 5.02878e-06
53 20.3127 0.474864 0.0631526 0 0 1.00099 5.16795e-06
17534 20.9754 0.0441886 0.256739 0 0 1.001 2.90594e-06
57 22.1669 1.00396 0.542128 0 0 1.00099 7.96612e-06
59 22.9923 1.16223 1.40698 0 0 1.00099 8.7069e-06
17538 22.7743 0.294311 0.45863 0 0 1.00099 4.78846e-06
17540 21.7813 0.0948788 0.862854 0 0 1.00099 3.88916e-06
63 24.4318 1.12873 1.40756 0 0 1.00099 8.95498e-06
61 23.7177 1.07962 0.558203 0 0 1.00099 8.60033e-06
17544 23.5454 0.24839 1.24463 0 0 1.00099 5.38849e-06
17542 24.357 0.227687 0.587143 0 0 1.00098 5.62171e-06
65 25.1067 1.02972 0.519315 0 0 1.00099 8.47948e-06
67 26.1196 1.0434 1.15351 0 0 1.00099 7.87205e-06
66 26.1197 1.64649 0.413931 0 0 1.00099 9.75105e-06
17548 25.2061 0.472735 1.34452 0 0 1.00099 6.62598e-06
17546 25.9265 0.190295 0.331963 0 0 1.00099 5.67192e-06
71 27.7342 1.03666 0.866354 0 0 1.00099 6.69288e-06
72 26.9606 1.65576 1.24214 0 0 1.00099 8.84202e-06
69 26.8821 0.859309 0.244034 0 0 1.00099 7.0303e-06
17552 27.1053 0.259834 0.99987 0 0 1.00099 5.23923e-06
17556 28.3645 0.135896 0.730565 0 0 1.00099 4.05094e-06
913 28.4802 0.813353 1.41531 0 0 1.00099 5.26617e-06
76 28.8484 1.65429 0.726343 0 0 1.00099 6.37328e-06
914 29.5362 1.31212 1.56153 0 0 1.00099 4.99982e-06
917 29.8684 0.449625 1.45039 0 0 1.00099 3.13827e-06
75 29.3487 0.698286 0.615141 0 0 1.00099 4.0658e-06
841 31.6268 0.306438 1.25328 0 0 1.00099 7.96518e-07
79 30.7892 0.633786 0.476767 0 0 1.00099 2.27279e-06
80 30.2723 1.4323 0.765685 0 0 1.00099 4.00309e-06
918 31.0001 1.11308 1.37501 0 0 1.00099 2.64464e-06
82 1.42203 2.27825 0.102816 0 0 1.00099 2.80073e-06
84 0.450072 2.36965 0.797622 0 0 1.00099 1.36031e-06
922 1.44599 2.1954 1.57817 0 0 1.00099 2.92767e-06
1001 0.769261 2.98722 1.54411 0 0 1.00099 2.41417e-06
161 0.722809 3.06645 0.118256 0 0 1.00099 2.31662e-06
163 1.68214 3.01611 0.926634 0 0 1.00099 4.23206e-06
88 2.2264 2.13974 0.774445 0 0 1.00099 3.84592e-06
167 3.08786 2.88885 0.842901 0 0 1.00099 6.67525e-06
926 2.98684 1.87187 1.52839 0 0 1.00099 4.82244e-06
86 3.04312 2.01893 0.0409462 0 0 1.00099 5.0147e-06
1005 2.50009 2.7812 1.73099 0 0 1.00099 5.34732e-06
1009 3.74705 2.91206 1.63177 0 0 1.00099 8.1678e-06
92 3.73959 2.09622 0.775027 0 0 1.00099 6.33838e-06
171 4.6672 2.75338 0.752126 0 0 1.00099 8.86168e-06
930 4.54174 2.08446 1.57433 0 0 1.00099 7.4241e-06
96 5.29525 1.94563 0.813588 0 0 1.00099 8.014e-06
94 6.04373 1.78099 0.138491 0 0 1.00099 8.26149e-06
175 6.18293 2.50735 0.944366 0 0 1.00099 1.06835e-05
173 5.48004 2.67351 0.0159817 0 0 1.00099 1.01171e-05
174 6.38101 3.20249 0.149623 0 0 1.00099 1.31384e-05
176 5.52066 3.3438 1.11094 0 0 1.00099 1.21308e-05
1017 7.08302 2.31555 1.52806 0 0 1.00099 1.11582e-05
177 7.12216 2.23469 0.106881 0 0 1.00099 1.04945e-05
179 7.96525 2.3005 0.868609 0 0 1.00099 1.17746e-05
180 7.16492 3.02985 0.779735 0 0 1.00099 1.35786e-05
1018 8.14555 3.05835 1.49054 0 0 1.00099 1.51912e-05
1021 8.78636 2.22318 1.6231 0 0 1.00099 1.22914e-05
181 8.85183 2.23525 0.0258045 0 0 1.00099 1.17229e-05
183 9.55525 2.23183 0.925887 0 0 1.00099 1.26826e-05
1022 9.88996 2.98984 1.4935 0 0 1.00099 1.73282e-05
184 8.96454 3.06694 0.692964 0 0 1.00099 1.55968e-05
182 9.79887 3.11963 0.0327025 0 0 1.00099 1.68984e-05
185 10.2148 2.24028 0.195303 0 0 1.00099 1.27974e-05
188 10.6757 2.89623 0.859319 0 0 1.00099 1.64256e-05
187 11.2782 2.17773 0.914718 0 0 1.00099 1.26257e-05
1026 11.5604 2.9678 1.59071 0 0 1.00099 1.74627e-05
186 11.4846 3.17633 0.161727 0 0 1.00099 1.77251e-05
1025 10.7009 2.03629 1.74022 0 0 1.00099 1.22975e-05
1029 12.1786 2.30857 1.61109 0 0 1.001 1.45421e-05
192 12.3015 3.08602 0.823274 0 0 1.00099 1.85535e-05
191 12.6376 2.21132 0.749011 0 0 1.00099 1.40725e-05
196 13.3987 3.21767 0.817818 0 0 1.001 1.98e-05
1033 13.6858 2.60825 1.69534 0 0 1.001 1.53957e-05
195 14.0714 2.74739 0.843291 0 0 1.001 1.65501e-05
120 14.7298 2.22901 0.916609 0 0 1.00099 1.26152e-05
1037 15.0224 3.15942 1.55247 0 0 1.001 1.86007e-05
197 15.0218 3.04905 0.0393706 0 0 1.00099 1.74681e-05
114 14.046 2.0154 0.0286573 0 0 1.00099 1.2273e-05
194 14.2304 3.42644 0.0355172 0 0 1.00099 2.0526e-05
199 15.711 3.33462 0.86436 0 0 1.00099 1.9661e-05
958 15.5196 2.26272 1.46248 0 0 1.00099 1.36366e-05
118 15.575 2.40332 0.116427 0 0 1.00099 1.35191e-05
124 16.4025 2.48273 0.711509 0 0 1.00099 1.38592e-05
1041 16.3791 3.31804 1.5141 0 0 1.00099 1.97506e-05
201 16.511 3.289 0.00154677 0 0 1.00099 1.92168e-05
962 17.0744 2.63796 1.54426 0 0 1.00099 1.53917e-05
203 17.2579 3.3717 0.664675 0 0 1.00099 2.01206e-05
965 17.757 1.99214 1.56433 0 0 1.00099 1.07602e-05
128 17.782 2.62266 0.666067 0 0 1.00099 1.5034e-05
1045 18.0009 3.41581 1.50335 0 0 1.00099 1.99416e-05
127 18.414 1.96324 0.746181 0 0 1.00099 1.10121e-05
969 19.1509 1.97846 1.49695 0 0 1.00099 1.18244e-05
207 18.7873 3.33908 0.720804 0 0 1.00099 1.93366e-05
966 18.7558 2.83233 1.60969 0 0 1.00099 1.67979e-05
131 19.9978 2.11177 0.84239 0 0 1.00099 1.22058e-05
129 19.3407 2.05546 0.0221173 0 0 1.00099 1.16262e-05
132 19.5995 2.91952 1.02403 0 0 1.00099 1.74376e-05
130 20.2758 2.90434 0.113634 0 0 1.00099 1.71348e-05
133 20.7977 2.14407 0.202265 0 0 1.00099 1.29764e-05
135 21.554 2.31365 0.952985 0 0 1.00099 1.38543e-05
973 20.8602 2.42429 1.74512 0 0 1.00099 1.49512e-05
136 20.9179 3.10456 1.06894 0 0 1.00099 1.85303e-05
58 23.1798 1.81235 0.475147 0 0 1.00099 1.14449e-05
134 21.833 3.16552 0.465217 0 0 1.00099 1.82924e-05
60 22.4717 1.92032 1.33038 0 0 1.00099 1.24067e-05
137 22.4253 2.36957 0.491898 0 0 1.00099 1.42689e-05
140 22.6935 3.3007 1.22137 0 0 1.00099 1.91281e-05
139 23.4239 2.85993 1.50188 0 0 1.00099 1.60396e-05
62 24.7188 1.91976 0.723939 0 0 1.00099 1.14016e-05
138 23.5586 3.44532 0.717068 0 0 1.00099 1.82894e-05
64 23.8317 1.99805 1.37181 0 0 1.00099 1.2264e-05
141 24.1254 2.62356 0.615963 0 0 1.00099 1.43068e-05
143 24.8778 2.78137 1.55027 0 0 1.00099 1.47582e-05
142 24.9091 3.49871 0.75611 0 0 1.00099 1.72414e-05
68 25.4482 1.87279 1.43384 0 0 1.00099 1.10156e-05
147 26.297 2.45889 1.35423 0 0 1.00099 1.21295e-05
145 25.5297 2.60099 0.535791 0 0 1.00099 1.3257e-05
146 26.3035 3.35296 0.685272 0 0 1.00099 1.48177e-05
148 25.6875 3.37554 1.51332 0 0 1.00099 1.56649e-05
70 27.8258 1.82422 0.377393 0 0 1.00099 8.2151e-06
149 26.9007 2.43825 0.504438 0 0 1.00099 1.09933e-05
152 26.9982 3.27398 1.51979 0 0 1.00099 1.34416e-05
151 27.8312 2.54891 1.21528 0 0 1.00099 9.70746e-06
150 27.5472 3.31415 0.617571 0 0 1.00099 1.22667e-05
153 28.5966 2.57378 0.338833 0 0 1.00099 8.68032e-06
156 28.6806 3.25075 1.17979 0 0 1.00099 1.00016e-05
993 28.7962 2.19395 1.50335 0 0 1.00099 7.67756e-06
155 29.7246 2.36099 0.870253 0 0 1.00099 6.42566e-06
154 29.5847 3.06524 0.277972 0 0 1.00099 7.91696e-06
997 30.2435 2.08055 1.69152 0 0 1.00099 5.35067e-06
159 31.1875 2.0993 0.913491 0 0 1.00099 3.69395e-06
160 30.5451 2.93292 0.986536 0 0 1.00099 5.56101e-06
239 31.4639 3.44411 0.960441 0 0 1.00099 4.86491e-06
998 31.3532 2.80339 1.71934 0 0 1.00099 4.23525e-06
237 30.5663 3.49244 0.152765 0 0 1.00099 6.7811e-06
157 30.6673 2.11019 0.0324517 0 0 1.00099 4.63053e-06
158 31.4916 2.7473 0.0701462 0 0 1.00099 3.95916e-06
164 0.761277 3.73261 0.903 0 0 1.00099 2.94378e-06
241 0.686116 4.58232 0.451775 0 0 1.00099 3.33465e-06
243 1.68015 4.44734 0.968071 0 0 1.00099 5.78619e-06
162 1.52448 3.69642 0.0644282 0 0 1.00099 4.30091e-06
244 0.704913 5.2283 1.2667 0 0 1.00099 4.07388e-06
1081 1.0074 4.31413 1.75743 0 0 1.00099 3.92705e-06
168 2.36957 3.74121 0.846027 0 0 1.00099 6.34146e-06
247 3.14397 4.43943 1.10341 0 0 1.00099 9.33855e-06
166 3.19214 3.72956 0.179102 0 0 1.00099 8.23826e-06
245 2.47655 4.62221 0.269391 0 0 1.00099 7.58063e-06
246 3.34908 5.12517 0.26256 0 0 1.00099 1.04624e-05
248 2.19547 5.21533 1.34529 0 0 1.00099 8.03496e-06
1006 3.02077 3.71902 1.75877 0 0 1.00099 8.12523e-06
249 4.04683 4.31392 0.165741 0 0 1.00099 1.11797e-05
172 4.01871 3.56621 0.874156 0 0 1.00099 9.33873e-06
251 4.74545 4.24354 1.14223 0 0 1.00099 1.28774e-05
170 4.82565 3.56618 0.130448 0 0 1.00099 1.10676e-05
250 4.93111 4.8049 0.300746 0 0 1.00099 1.42901e-05
252 3.84439 5.08082 1.25372 0 0 1.00099 1.24022e-05
253 5.69805 4.03348 0.305684 0 0 1.00099 1.41854e-05
255 6.46354 3.93228 1.00627 0 0 1.00099 1.5571e-05
254 6.57537 4.60711 0.242757 0 0 1.00099 1.76585e-05
256 5.73108 4.69622 1.24505 0 0 1.00099 1.62915e-05
1097 7.43829 3.70428 1.62988 0 0 1.00099 1.69678e-05
260 7.4896 4.33311 0.838972 0 0 1.00099 1.87017e-05
259 8.20597 3.64265 0.568901 0 0 1.00099 1.75629e-05
258 8.23569 4.48963 0.00997754 0 0 1.00098 2.08495e-05
1098 8.35205 4.47776 1.47146 0 0 1.00099 2.15081e-05
1177 7.43974 5.08055 1.58924 0 0 1.00099 2.22689e-05
337 7.33559 5.21062 0.117538 0 0 1.00099 2.14358e-05
339 8.32963 5.20971 0.749965 0 0 1.00099 2.42786e-05
1101 9.10577 3.75355 1.45203 0 0 1.00099 1.93104e-05
264 9.18594 4.45781 0.691354 0 0 1.00099 2.2542e-05
263 10.0121 3.77697 0.788921 0 0 1.00099 2.03868e-05
1181 9.33299 5.16859 1.48326 0 0 1.00098 2.70981e-05
262 10.0902 4.6335 0.00501962 0 0 1.00099 2.4839e-05
1102 10.1344 4.47142 1.56286 0 0 1.00098 2.46792e-05
268 10.8885 4.55026 0.79015 0 0 1.00099 2.57559e-05
265 10.8079 3.80983 0.0944401 0 0 1.00099 2.14541e-05
1105 10.8505 3.61837 1.63777 0 0 1.00099 2.06849e-05
267 11.64 3.92423 0.878621 0 0 1.00099 2.24478e-05
1106 11.7234 4.518 1.72995 0 0 1.00098 2.65712e-05
266 11.6912 4.80703 0.0165974 0 0 1.00099 2.72471e-05
269 12.4507 4.13492 0.201595 0 0 1.00099 2.3846e-05
1109 12.4488 3.8158 1.67377 0 0 1.00099 2.37223e-05
272 12.6184 4.6796 1.00218 0 0 1.00098 2.8032e-05
271 13.3629 4.09264 1.02962 0 0 1.00099 2.56973e-05
270 13.285 5.04424 0.186492 0 0 1.00099 2.929e-05
273 13.7232 4.18689 0.0492597 0 0 1.00099 2.46213e-05
1113 14.0872 4.54807 1.70532 0 0 1.00099 2.85075e-05
275 14.4177 4.42872 0.759002 0 0 1.00099 2.77134e-05
1034 14.6588 3.90815 1.58623 0 0 1.001 2.42034e-05
274 14.6496 5.22159 0.00117183 0 0 1.00099 3.24032e-05
200 15.131 3.94512 0.69252 0 0 1.001 2.42394e-05
277 15.3854 4.7007 0.0849328 0 0 1.00099 2.8238e-05
1117 15.5334 4.92064 1.50156 0 0 1.00099 3.15527e-05
279 16.3063 5.03975 0.830531 0 0 1.00099 3.14812e-05
198 16.0874 4.14067 0.106115 0 0 1.00099 2.41447e-05
1038 16.2325 4.36671 1.60391 0 0 1.00099 2.62259e-05
204 16.8074 4.15521 0.886273 0 0 1.00099 2.49898e-05
281 17.0982 4.92444 0.139806 0 0 1.00099 2.93706e-05
1121 17.2262 5.1928 1.66758 0 0 1.00099 3.3123e-05
1042 17.5163 4.19998 1.66378 0 0 1.00099 2.6506e-05
283 17.814 4.9263 0.901244 0 0 1.00099 3.01655e-05
208 18.3441 4.18973 0.792648 0 0 1.00099 2.48192e-05
209 19.7227 3.57026 0.199262 0 0 1.00099 2.13519e-05
285 18.6101 5.03683 0.0466436 0 0 1.00099 3.05596e-05
1046 18.9749 4.13808 1.6367 0 0 1.00099 2.53964e-05
287 19.2566 5.04885 1.08454 0 0 1.00099 3.14456e-05
206 19.1782 4.33996 0.0804572 0 0 1.00098 2.52851e-05
212 19.8381 4.30676 0.965871 0 0 1.00099 2.56443e-05
289 20.0012 5.27422 0.355441 0 0 1.00099 3.22782e-05
213 21.206 3.75324 0.315353 0 0 1.00099 2.23461e-05
210 20.5671 4.45294 0.261193 0 0 1.00099 2.63813e-05
211 20.6043 3.90481 1.2732 0 0 1.00099 2.34509e-05
216 21.372 4.59924 1.19668 0 0 1.00099 2.65551e-05
214 22.0597 4.81753 0.509521 0 0 1.00099 2.72272e-05
215 22.1489 4.09608 1.39477 0 0 1.00099 2.26638e-05
217 22.765 4.06496 0.602187 0 0 1.00099 2.29995e-05
220 22.8654 5.04205 1.29989 0 0 1.00099 2.78188e-05
16179 23.4822 4.26857 0.0259771 0 0 1.00099 2.23561e-05
218 23.5634 5.26581 0.550027 0 0 1.00099 2.70151e-05
144 24.3278 3.72701 1.52285 0 0 1.00099 1.91766e-05
219 23.64 4.48657 1.39207 0 0 1.00099 2.32659e-05
221 24.3531 4.49798 0.755355 0 0 1.00099 2.21121e-05
222 25.1513 5.25321 0.633671 0 0 1.00099 2.36932e-05
223 25.1812 4.40717 1.54776 0 0 1.00099 2.06577e-05
227 26.3616 4.28781 1.51598 0 0 1.00099 1.76842e-05
225 25.7411 4.44176 0.738761 0 0 1.00099 1.90894e-05
226 26.3 5.23876 0.431289 0 0 1.00099 2.04454e-05
229 26.8052 4.23994 0.593174 0 0 1.00099 1.63799e-05
232 27.0696 5.04899 1.3678 0 0 1.00099 1.80602e-05
231 27.7674 3.98722 1.40108 0 0 1.00099 1.35562e-05
230 27.7097 4.71834 0.578416 0 0 1.00099 1.58294e-05
233 28.4888 3.7712 0.33564 0 0 1.00099 1.1542e-05
236 28.5681 4.54224 1.11712 0 0 1.00099 1.32105e-05
235 29.7147 3.63305 1.17656 0 0 1.00099 8.65288e-06
313 28.9156 5.28727 0.682878 0 0 1.00099 1.30913e-05
234 29.468 4.20556 0.458372 0 0 1.00099 1.00256e-05
315 29.6874 4.93479 1.29761 0 0 1.00099 1.06545e-05
240 30.5159 4.31557 1.02611 0 0 1.00099 7.80195e-06
238 31.5201 4.09888 0.342647 0 0 1.00099 5.19213e-06
317 30.7721 4.9271 0.464572 0 0 1.00099 7.27868e-06
319 31.5427 4.71379 1.3671 0 0 1.00099 5.50471e-06
242 1.54505 5.34615 0.447691 0 0 1.00099 5.9118e-06
323 1.47982 6.01895 1.27044 0 0 1.00099 6.40532e-06
324 0.957023 6.85724 1.46267 0 0 1.00099 5.16481e-06
322 1.67216 6.71358 0.554932 0 0 1.00099 7.18102e-06
321 0.663139 5.99048 0.447203 0 0 1.00099 4.035e-06
398 0.15323 7.0151 0.597261 0 0 1.00099 2.59487e-06
399 0.121467 6.23482 1.368 0 0 1.00099 2.31804e-06
328 2.42763 6.65507 1.23217 0 0 1.00099 9.70348e-06
325 2.56616 5.83194 0.475868 0 0 1.00099 9.34541e-06
327 3.02223 5.72674 1.35749 0 0 1.00099 1.09875e-05
326 3.23219 6.62411 0.452872 0 0 1.00099 1.25091e-05
332 4.01395 6.35918 1.13152 0 0 1.00099 1.46338e-05
329 4.16497 5.66237 0.449897 0 0 1.00099 1.38375e-05
331 4.90629 5.39091 1.19494 0 0 1.00099 1.58468e-05
330 4.84302 6.29247 0.215622 0 0 1.00099 1.73664e-05
411 4.87027 6.85115 1.16229 0 0 1.001 1.85559e-05
336 5.67204 5.9993 1.13343 0 0 1.00099 1.99228e-05
333 5.67914 5.47084 0.287308 0 0 1.00099 1.8018e-05
335 6.57476 5.3362 0.939489 0 0 1.00099 2.06558e-05
334 6.49483 6.13236 0.134263 0 0 1.00099 2.26358e-05
415 6.47043 6.64313 0.968012 0 0 1.00099 2.3865e-05
413 5.62091 6.82198 0.207053 0 0 1.00099 2.08419e-05
340 7.46512 5.89178 0.912082 0 0 1.00099 2.50984e-05
417 7.56477 6.58931 0.113286 0 0 1.00099 2.7771e-05
1178 8.40009 5.81943 1.57327 0 0 1.00098 2.81214e-05
419 8.45434 6.67021 0.702339 0 0 1.00099 3.11222e-05
344 9.17927 5.86359 0.676978 0 0 1.00098 2.91872e-05
1261 9.34205 6.41019 1.52541 0 0 1.00098 3.37527e-05
1258 8.46892 7.0033 1.65345 0 0 1.00099 3.31439e-05
343 10.0647 5.28073 0.744861 0 0 1.00098 2.82636e-05
423 10.2233 6.63088 0.658033 0 0 1.00098 3.5747e-05
1182 10.3522 5.98539 1.44838 0 0 1.00098 3.36584e-05
1185 11.0453 5.30654 1.48391 0 0 1.00098 3.10092e-05
345 10.9825 5.4274 0.0633006 0 0 1.00099 3.03393e-05
348 11.1541 6.24844 0.715083 0 0 1.00098 3.58751e-05
1265 11.1518 6.85116 1.56425 0 0 1.00098 4.08302e-05
347 11.8755 5.29789 0.884378 0 0 1.00098 3.07043e-05
346 11.9041 6.18265 0.0880923 0 0 1.00099 3.67636e-05
1186 11.9179 6.10818 1.47648 0 0 1.00098 3.76053e-05
349 12.6766 5.69889 0.0271877 0 0 1.00099 3.37679e-05
352 12.7847 6.42818 0.787475 0 0 1.00099 4.02796e-05
351 13.1928 5.63996 1.04635 0 0 1.00099 3.51236e-05
1190 13.7243 6.57013 1.35508 0 0 1.00099 4.27035e-05
276 14.0888 5.37994 0.860933 0 0 1.00099 3.33556e-05
1114 14.8308 5.55954 1.58253 0 0 1.00099 3.62712e-05
355 14.894 6.22597 0.78788 0 0 1.00099 3.99904e-05
356 14.3097 6.8545 0.583116 0 0 1.00099 4.42856e-05
1194 15.1919 7.00869 1.40277 0 0 1.001 4.65771e-05
280 15.5266 5.55186 0.75969 0 0 1.00099 3.58549e-05
357 15.6558 6.23822 0.0180237 0 0 1.00099 3.99331e-05
1197 15.9325 6.46127 1.45077 0 0 1.00099 4.39887e-05
278 16.3948 5.61995 0.0346957 0 0 1.00099 3.47454e-05
359 16.6101 6.52425 0.799859 0 0 1.001 4.30774e-05
1118 16.6563 5.90543 1.68869 0 0 1.001 3.92949e-05
361 17.2038 6.51259 0.0435852 0 0 1.00099 4.19098e-05
284 17.3133 5.917 0.948827 0 0 1.00099 3.7517e-05
363 18.0338 6.82994 1.14152 0 0 1.00099 4.40778e-05
282 17.9723 5.78041 0.244568 0 0 1.00099 3.56555e-05
288 18.5086 5.85602 1.21806 0 0 1.00099 3.71942e-05
365 18.6088 6.73469 0.370563 0 0 1.00099 4.36788e-05
367 19.1662 6.83186 1.31534 0 0 1.00098 4.49211e-05
286 19.1981 5.89618 0.477857 0 0 1.00098 3.72227e-05
292 20.0633 5.98909 1.19011 0 0 1.00099 3.78336e-05
369 19.836 6.94738 0.60197 0 0 1.00099 4.44327e-05
291 20.8051 5.41289 1.12742 0 0 1.00099 3.21032e-05
293 21.3009 5.60384 0.362693 0 0 1.00099 3.25833e-05
290 20.7775 6.5431 0.625711 0 0 1.00099 3.99844e-05
296 21.4453 6.52536 1.37557 0 0 1.00099 3.93226e-05
295 21.9762 5.6271 1.33994 0 0 1.00099 3.2952e-05
294 22.0158 6.72675 0.637066 0 0 1.00099 3.84587e-05
297 22.7144 5.92306 0.765732 0 0 1.00099 3.26063e-05
300 22.8587 6.90147 1.34635 0 0 1.00099 3.82205e-05
16260 22.8797 6.75377 0.0427 0 0 1.00098 3.65947e-05
299 23.5807 6.17035 1.28895 0 0 1.00099 3.24578e-05
224 24.3968 5.46769 1.33468 0 0 1.00099 2.67652e-05
298 23.7502 6.90241 0.633071 0 0 1.00098 3.44865e-05
301 24.4762 6.07201 0.54133 0 0 1.00099 2.8544e-05
304 24.5435 6.97813 1.27213 0 0 1.00098 3.28448e-05
228 25.8424 5.35598 1.55159 0 0 1.00099 2.25013e-05
302 25.1601 7.01967 0.444676 0 0 1.00098 3.04945e-05
303 25.2923 6.28065 1.44212 0 0 1.00099 2.73693e-05
305 25.7479 6.16061 0.564777 0 0 1.00099 2.52538e-05
307 26.5502 6.03641 1.3575 0 0 1.00099 2.27243e-05
306 26.5933 6.77485 0.685768 0 0 1.00099 2.41474e-05
308 26.0668 7.02187 1.6119 0 0 1.00099 2.75352e-05
311 28.0543 5.56146 1.39548 0 0 1.00099 1.6573e-05
309 27.2821 5.75253 0.63698 0 0 1.00099 1.93639e-05
312 27.5095 6.67829 1.46157 0 0 1.00099 2.07233e-05
310 28.2616 6.23725 0.69758 0 0 1.00099 1.68463e-05
316 29.1006 6.09877 1.44597 0 0 1.00099 1.42582e-05
314 30.0357 5.70609 0.802592 0 0 1.00099 1.04484e-05
393 29.2295 6.79802 0.65523 0 0 1.00099 1.46599e-05
16355 30.0811 6.55127 0.0667922 0 0 1.00099 1.15658e-05
16276 29.1654 5.94396 0.025779 0 0 1.00099 1.33704e-05
395 30.1438 6.61324 1.3054 0 0 1.00099 1.11155e-05
318 31.5945 5.48605 0.57722 0 0 1.00099 6.37162e-06
320 30.8627 5.70397 1.42615 0 0 1.00099 8.07208e-06
397 31.057 6.42014 0.619963 0 0 1.00099 8.1703e-06
401 0.986421 7.56545 0.623802 0 0 1.00099 4.79329e-06
402 1.60438 8.26532 0.569318 0 0 1.00099 7.28335e-06
404 1.06997 8.43493 1.44026 0 0 1.00099 5.23772e-06
478 0.397904 8.6441 0.397018 0 0 1.00099 2.65151e-06
479 0.213219 7.89383 1.27397 0 0 1.00099 2.46073e-06
403 1.83215 7.56818 1.45114 0 0 1.00099 8.1773e-06
405 2.34383 7.41655 0.386771 0 0 1.00099 9.49654e-06
408 2.50515 8.18815 1.441 0 0 1.00099 1.13742e-05
406 3.00506 8.11025 0.38365 0 0 1.00099 1.3202e-05
407 3.19346 7.29586 1.26522 0 0 1.00099 1.31546e-05
412 3.87887 7.85253 0.921323 0 0 1.00099 1.6995e-05
409 4.06834 7.0915 0.319606 0 0 1.00099 1.59698e-05
410 4.70362 7.67883 0.0411151 0 0 1.001 1.94068e-05
491 4.80979 8.25169 0.832441 0 0 1.00099 2.13121e-05
1250 4.72679 7.5624 1.74187 0 0 1.001 2.09691e-05
1329 4.06865 8.48691 1.66325 0 0 1.00099 1.88915e-05
489 3.87439 8.63575 0.094612 0 0 1.00099 1.71421e-05
1333 5.65781 8.07035 1.60279 0 0 1.00099 2.62874e-05
416 5.64394 7.37866 0.944261 0 0 1.001 2.31464e-05
495 6.30716 7.95889 0.599469 0 0 1.00099 2.72711e-05
1334 6.32526 8.73828 1.17324 0 0 1.00099 3.0237e-05
414 6.89549 7.34118 0.203944 0 0 1.00099 2.72147e-05
1337 7.23285 7.93359 1.2101 0 0 1.001 3.27228e-05
420 7.51375 7.09653 1.04249 0 0 1.00099 2.92422e-05
499 8.29617 7.72664 0.718199 0 0 1.00099 3.42853e-05
1338 8.2757 8.51944 1.1696 0 0 1.00099 3.90889e-05
500 7.25039 8.64438 0.494551 0 0 1.00099 3.35749e-05
424 9.49164 7.21767 0.845211 0 0 1.00098 3.67634e-05
501 9.33574 7.8992 0.051122 0 0 1.00099 3.8871e-05
1341 9.28693 7.96701 1.3658 0 0 1.00099 4.10002e-05
504 9.19051 8.7103 0.55758 0 0 1.00099 4.30241e-05
503 10.2585 8.25436 0.679851 0 0 1.00098 4.48995e-05
1262 10.4154 7.50322 1.39367 0 0 1.00098 4.254e-05
428 11.1607 7.59751 0.687892 0 0 1.00098 4.41991e-05
1345 11.2566 8.40282 1.38016 0 0 1.00098 5.03266e-05
507 11.9455 8.66293 0.657622 0 0 1.00098 5.25045e-05
427 12.0402 7.04515 0.804046 0 0 1.00098 4.27578e-05
1266 12.1312 7.80021 1.42198 0 0 1.00098 4.9679e-05
429 12.7319 7.3142 0.0151418 0 0 1.00098 4.52913e-05
432 12.8746 8.01367 0.707535 0 0 1.00098 5.07598e-05
1269 12.9571 7.05776 1.54288 0 0 1.00098 4.68296e-05
1349 12.9767 8.72354 1.37555 0 0 1.00098 5.75285e-05
1270 13.7188 8.0147 1.49855 0 0 1.00098 5.41026e-05
431 13.7496 7.5881 0.591181 0 0 1.00098 4.81665e-05
1273 14.5337 7.53425 1.47589 0 0 1.00099 5.30656e-05
436 14.5956 8.46719 0.77269 0 0 1.00099 5.71997e-05
435 15.2764 7.83951 0.544324 0 0 1.00099 5.2222e-05
1274 15.4195 8.61014 1.57624 0 0 1.00099 6.27987e-05
360 15.9496 7.21912 0.653008 0 0 1.001 4.81216e-05
1277 16.0234 7.99154 1.39094 0 0 1.001 5.57145e-05
437 16.1604 8.31136 0.0367739 0 0 1.00099 5.60911e-05
439 16.8325 8.34319 0.891492 0 0 1.001 5.7561e-05
1198 16.8873 7.64132 1.68563 0 0 1.001 5.37076e-05
364 17.2635 7.45603 0.852875 0 0 1.001 4.89633e-05
441 17.5004 8.53318 0.14212 0 0 1.00099 5.73971e-05
443 17.9826 8.51719 1.07623 0 0 1.00099 5.85294e-05
362 18.0651 7.57752 0.297926 0 0 1.00099 4.99565e-05
368 18.6754 7.82963 1.0809 0 0 1.00099 5.21308e-05
445 18.6958 8.67152 0.279514 0 0 1.00099 5.92971e-05
447 19.3543 8.76325 1.02319 0 0 1.00099 5.82744e-05
366 19.4134 7.86472 0.219466 0 0 1.00099 5.13609e-05
372 19.8592 7.82192 1.15752 0 0 1.00099 5.27861e-05
370 20.5349 8.2204 0.612592 0 0 1.00098 5.16671e-05
371 20.7647 7.44917 1.35039 0 0 1.00099 4.73253e-05
373 21.3907 7.68598 0.596335 0 0 1.00098 4.58684e-05
376 21.3846 8.6877 1.31338 0 0 1.00098 5.33343e-05
374 22.0934 8.5557 0.595367 0 0 1.00098 4.97981e-05
375 22.1224 7.6748 1.30345 0 0 1.00098 4.52648e-05
377 22.9013 7.78586 0.667742 0 0 1.00098 4.25594e-05
378 23.6055 8.6543 0.397263 0 0 1.00098 4.34339e-05
379 23.8105 7.8323 1.204 0 0 1.00098 3.98092e-05
381 24.4691 7.8739 0.304212 0 0 1.00098 3.65878e-05
384 24.5846 8.54826 1.08403 0 0 1.00098 3.90171e-05
383 25.3603 7.68579 1.18979 0 0 1.00098 3.23787e-05
382 25.3648 8.46318 0.30797 0 0 1.00098 3.45669e-05
385 26.1092 7.71244 0.496379 0 0 1.00098 2.86487e-05
388 26.1325 8.49511 1.23212 0 0 1.00098 3.13154e-05
387 26.8024 7.59458 1.41084 0 0 1.00099 2.60072e-05
389 27.5962 7.19988 0.626954 0 0 1.00099 2.11644e-05
386 26.9856 8.24048 0.389031 0 0 1.00099 2.66259e-05
392 27.6926 8.03419 1.3106 0 0 1.00099 2.2942e-05
469 27.8654 8.68947 0.431719 0 0 1.00099 2.29224e-05
391 28.4745 7.16628 1.37544 0 0 1.00099 1.77457e-05
390 28.5243 7.73903 0.515085 0 0 1.00099 1.835e-05
471 28.6372 8.60229 1.21104 0 0 1.00099 1.94947e-05
396 29.4091 7.68078 1.2378 0 0 1.00099 1.49245e-05
473 29.4691 8.33138 0.41854 0 0 1.00099 1.50801e-05
475 30.2622 8.12964 1.27877 0 0 1.00099 1.1654e-05
394 30.3014 7.36094 0.500792 0 0 1.00099 1.12571e-05
400 31.0371 7.33203 1.17979 0 0 1.00099 8.27185e-06
480 31.147 8.74697 1.19262 0 0 1.00099 8.39297e-06
477 31.3399 8.07251 0.388505 0 0 1.00099 7.63693e-06
484 0.934296 9.85378 0.913343 0 0 1.00099 4.28427e-06
481 1.05188 9.22858 0.121329 0 0 1.00099 4.81849e-06
1322 1.52205 9.87828 1.72609 0 0 1.00099 7.07782e-06
559 0.199923 9.36008 1.13278 0 0 1.00099 1.6819e-06
558 0.151368 10.0563 0.0593985 0 0 1.00099 8.00517e-07
483 1.74015 9.08746 1.16993 0 0 1.00099 7.98922e-06
482 1.78955 9.9644 0.244402 0 0 1.00099 7.88375e-06
485 2.47852 9.01169 0.410701 0 0 1.00099 1.09308e-05
488 2.52117 9.85099 0.975416 0 0 1.00099 1.12319e-05
486 3.31069 9.61839 0.0815241 0 0 1.00099 1.47789e-05
487 3.15426 8.84651 1.17342 0 0 1.00099 1.40995e-05
567 3.25612 10.3273 0.714494 0 0 1.001 1.48937e-05
1405 2.35496 10.5396 1.56906 0 0 1.00099 1.13216e-05
1326 3.50171 9.51522 1.65394 0 0 1.00099 1.64924e-05
492 4.15636 9.25221 0.741262 0 0 1.00099 1.88137e-05
1330 5.00199 9.00158 1.5525 0 0 1.00099 2.39468e-05
1409 4.28284 9.94824 1.42204 0 0 1.00099 2.03827e-05
571 4.85613 9.96093 0.495213 0 0 1.00099 2.29385e-05
496 5.47696 9.01527 0.574362 0 0 1.00099 2.55704e-05
575 6.3206 9.57215 0.44557 0 0 1.00099 3.10652e-05
1413 5.65598 9.71039 1.43426 0 0 1.00099 2.86143e-05
1414 6.41707 10.1938 1.19447 0 0 1.00099 3.27466e-05
1417 7.27764 9.31049 1.19414 0 0 1.00099 3.64568e-05
579 8.02562 9.37389 0.457205 0 0 1.00099 3.98368e-05
580 7.11888 10.176 0.366389 0 0 1.00099 3.65688e-05
1418 8.06795 10.1469 1.10545 0 0 1.00099 4.36877e-05
1421 8.90864 9.31701 1.3076 0 0 1.00098 4.53838e-05
583 10.0034 9.61356 0.650821 0 0 1.00098 5.03947e-05
584 9.01552 10.0728 0.65745 0 0 1.00099 4.69129e-05
1422 9.96734 10.3189 1.35544 0 0 1.00099 5.5438e-05
1342 10.0668 8.90681 1.36829 0 0 1.00098 4.87346e-05
508 10.9843 9.12974 0.655021 0 0 1.00098 5.21641e-05
1425 10.9956 9.79866 1.3721 0 0 1.00099 5.8661e-05
587 11.6982 9.96686 0.654654 0 0 1.00099 5.93265e-05
588 10.6872 10.5347 0.540491 0 0 1.00099 5.78176e-05
1346 12.1215 9.08923 1.5833 0 0 1.00099 5.79596e-05
512 12.6576 9.55229 0.712623 0 0 1.00099 6.00929e-05
510 13.2888 9.8548 0.0346351 0 0 1.00099 6.27431e-05
1429 12.6846 10.1812 1.49913 0 0 1.00099 6.65618e-05
589 12.4096 10.4735 0.184981 0 0 1.00099 6.33665e-05
1350 13.5899 9.70263 1.58184 0 0 1.00098 6.67492e-05
511 13.6661 9.04674 0.686894 0 0 1.00098 5.9349e-05
1353 14.3484 9.00633 1.61522 0 0 1.00098 6.44201e-05
516 14.3726 9.91491 0.939275 0 0 1.00098 6.66724e-05
514 14.9543 10.229 0.0449868 0 0 1.00098 6.95738e-05
591 13.4628 10.5558 0.982735 0 0 1.00099 6.87807e-05
515 15.1927 9.35512 0.86533 0 0 1.00099 6.47836e-05
1354 15.198 10.0704 1.6951 0 0 1.00099 7.35494e-05
517 15.8945 9.90114 0.212191 0 0 1.00099 6.80454e-05
440 16.139 9.04735 0.819524 0 0 1.00099 6.27126e-05
520 15.8328 10.5425 1.02988 0 0 1.00099 7.32949e-05
519 16.7794 9.97571 1.02428 0 0 1.00099 7.16766e-05
438 16.8734 9.29375 0.137263 0 0 1.00099 6.30704e-05
521 17.2828 10.3595 0.221411 0 0 1.00099 7.24685e-05
444 17.5948 9.44619 1.1365 0 0 1.00099 6.67823e-05
523 18.1009 10.4449 0.972257 0 0 1.00099 7.47556e-05
442 18.0945 9.52149 0.258835 0 0 1.00099 6.59952e-05
448 18.7545 9.63373 1.06897 0 0 1.00099 6.66169e-05
449 20.0075 9.05505 0.229289 0 0 1.00098 5.76434e-05
446 19.3283 9.86975 0.112742 0 0 1.00099 6.55781e-05
452 19.905 9.85786 0.95957 0 0 1.00098 6.70372e-05
451 20.5286 9.13118 1.18508 0 0 1.00098 5.99453e-05
453 21.2724 9.19187 0.385566 0 0 1.00098 5.7174e-05
450 20.7131 10.0285 0.231819 0 0 1.00098 6.41388e-05
456 21.2988 10.1588 1.03024 0 0 1.00098 6.29541e-05
380 22.8874 8.86688 1.13523 0 0 1.00098 4.88171e-05
455 22.0871 9.61953 1.06366 0 0 1.00098 5.64696e-05
454 22.0998 10.3172 0.227442 0 0 1.00098 5.82666e-05