ITEM: TIMESTEP
43000
ITEM: NUMBER OF ATOMS
32000
ITEM: BOX BOUNDS pp pp pp
0.0000000000000000e+00 3.1748021039364001e+01
0.0000000000000000e+00 3.1748021039364001e+01
0.0000000000000000e+00 3.1748021039364001e+01
ITEM: ATOMS id x y z c_phase c_nbond c_rho v_omega
4 0.254657 1.10412 0.463292 0 0 1.001 -8.5821e-08
83 1.1923 1.53705 0.772623 0 0 1.001 1.77032e-06
842 0.821507 0.700649 1.39505 0 0 1.001 4.67042e-07
921 0.233941 1.61955 1.37445 0 0 1.001 6.27462e-07
8 1.81356 0.60214 1.00609 0 0 1.001 1.28555e-06
85 2.00948 1.24355 0.195939 0 0 1.001 2.49919e-06
925 2.05616 1.38669 1.72819 0 0 1.001 2.83953e-06
6 2.60133 0.404343 0.180442 0 0 1.001 1.80139e-06
87 2.85629 1.18253 0.850717 0 0 1.001 3.4501e-06
846 2.77462 0.465383 1.716 0 0 1.001 2.08387e-06
12 3.53571 0.461906 0.941652 0 0 1.001 2.8559e-06
929 3.84702 1.21863 1.67835 0 0 1.001 4.65307e-06
10 4.21594 0.328227 0.292551 0 0 1.001 2.91165e-06
850 4.43282 0.372898 1.61342 0 0 1.001 3.60166e-06
91 4.28342 1.28889 0.705265 0 0 1.001 5.34883e-06
93 5.16378 0.990349 0.360212 0 0 1.001 5.17252e-06
14 5.73464 0.00125779 0.284293 0 0 1.001 3.065e-06
95 6.07868 0.643097 0.942158 0 0 1.001 4.6846e-06
933 5.26817 1.0527 1.42845 0 0 1.001 5.66009e-06
934 6.21465 1.50896 1.472 0 0 1.001 7.41515e-06
97 6.79025 0.707891 0.206014 0 0 1.001 4.95244e-06
937 6.83192 0.303336 1.67855 0 0 1.001 3.9545e-06
99 7.5648 0.50981 0.939766 0 0 1.001 4.60627e-06
938 7.68848 1.3062 1.54984 0 0 1.001 7.59884e-06
100 6.94502 1.46288 0.776517 0 0 1.001 7.66826e-06
98 7.85923 1.48146 0.119671 0 0 1.001 7.86327e-06
941 8.38039 0.508726 1.61024 0 0 1.001 5.0158e-06
101 8.49614 0.673323 0.211148 0 0 1.001 5.03925e-06
103 9.25158 0.601947 1.06906 0 0 1.001 4.67013e-06
945 9.79464 0.286764 1.74806 0 0 1.001 3.02697e-06
105 9.90199 0.66835 0.110968 0 0 1.001 4.34675e-06
102 9.35011 1.39135 0.22412 0 0 1.001 7.6599e-06
104 8.54032 1.4294 0.929983 0 0 1.001 7.97248e-06
942 9.5249 1.45068 1.71991 0 0 1.001 8.68762e-06
108 10.2227 1.33485 1.06944 0 0 1.001 7.34426e-06
107 10.5911 0.42912 0.83463 0 0 1.001 3.27792e-06
949 11.5387 0.445052 1.41043 0 0 1.001 2.98958e-06
946 10.9921 1.07733 1.72029 0 0 1.001 6.45947e-06
112 11.6387 1.2831 0.779052 0 0 1.001 7.01516e-06
106 10.7819 1.45328 0.180921 0 0 1.001 7.69092e-06
111 12.2986 0.606701 0.518535 0 0 1.001 3.11072e-06
953 13.0463 0.764289 1.37154 0 0 1.001 3.44754e-06
950 12.452 1.43856 1.45124 0 0 1.001 7.37835e-06
116 13.242 1.57013 0.610918 0 0 1.001 7.44523e-06
40 14.4722 0.151752 0.781395 0 0 1.001 -4.83204e-07
115 13.8964 0.856566 0.821931 0 0 1.001 3.11539e-06
117 14.5166 1.31153 0.130457 0 0 1.001 5.06921e-06
874 13.6972 0.051726 1.62784 0 0 1.001 -4.69302e-07
957 14.7132 1.02249 1.48087 0 0 1.001 3.68436e-06
954 13.968 1.70759 1.45683 0 0 1.001 7.6174e-06
119 15.3388 1.46584 0.664967 0 0 1.001 5.42885e-06
44 15.9541 0.770366 0.788636 0 0 1.001 1.54999e-06
878 15.2738 0.40839 1.63272 0 0 1.001 -3.5673e-07
961 16.0974 1.51976 1.42117 0 0 1.001 5.7755e-06
38 15.2902 0.620321 0.0693839 0 0 1.001 6.42487e-07
882 16.7715 0.855782 1.35441 0 0 1.001 1.57658e-06
123 17.0235 1.73038 0.699068 0 0 1.001 6.39174e-06
48 17.5093 0.986462 0.566454 0 0 1.001 2.23468e-06
886 18.1832 1.11761 1.42525 0 0 1.001 3.44147e-06
47 18.181 0.302191 0.694118 0 0 1.001 -4.40318e-07
885 17.3012 0.0834779 1.40178 0 0 1.001 -1.99347e-06
51 19.5921 0.526219 0.687313 0 0 1.001 1.1305e-06
52 19.0345 1.21394 0.700755 0 0 1.001 4.21515e-06
889 19.0793 0.643062 1.56098 0 0 1.001 8.6145e-07
890 19.9611 1.53772 1.69864 0 0 1.001 6.98611e-06
55 21.2867 1.02825 1.0856 0 0 1.00101 4.40989e-06
56 20.5113 1.39158 0.94709 0 0 1.001 5.8174e-06
54 21.4506 1.47881 0.207889 0 0 1.00101 7.23578e-06
893 20.4667 0.519899 1.41605 0 0 1.00101 2.4436e-06
53 20.3144 0.508803 0.0615033 0 0 1.001 2.5311e-06
17534 20.9724 0.0784825 0.257185 0 0 1.00101 3.67789e-07
57 22.1764 1.04385 0.542067 0 0 1.00101 5.5098e-06
59 23.0036 1.20112 1.40597 0 0 1.001 6.41997e-06
17538 22.7717 0.331436 0.456105 0 0 1.001 2.49246e-06
17540 21.7765 0.132481 0.8621 0 0 1.001 1.49526e-06
63 24.4423 1.16913 1.4046 0 0 1.001 6.96203e-06
61 23.7258 1.11882 0.555601 0 0 1.001 6.4127e-06
17544 23.5433 0.289278 1.24277 0 0 1.001 3.28041e-06
17542 24.354 0.267929 0.584456 0 0 1.001 3.63594e-06
65 25.1143 1.06869 0.516137 0 0 1.001 6.57445e-06
67 26.1249 1.07996 1.15098 0 0 1.001 6.19525e-06
66 26.1312 1.6864 0.411682 0 0 1.001 8.01443e-06
17548 25.2079 0.509663 1.34171 0 0 1.001 4.80926e-06
17546 25.9244 0.228379 0.330574 0 0 1.001 3.9921e-06
71 27.739 1.06674 0.864933 0 0 1.001 5.30501e-06
72 26.9703 1.69085 1.23971 0 0 1.001 7.29782e-06
69 26.886 0.894443 0.243519 0 0 1.001 5.48292e-06
17552 27.1023 0.292922 0.999247 0 0 1.001 3.78449e-06
17556 28.3615 0.162268 0.729798 0 0 1.001 2.79848e-06
913 28.4835 0.840636 1.41518 0 0 1.001 4.02494e-06
76 28.8559 1.67887 0.724902 0 0 1.001 5.1301e-06
914 29.5411 1.33387 1.5601 0 0 1.001 3.90379e-06
917 29.868 0.467286 1.44915 0 0 1.001 2.10718e-06
75 29.3498 0.719287 0.614202 0 0 1.001 2.92974e-06
841 31.6242 0.311997 1.25247 0 0 1.001 -5.8121e-08
79 30.7897 0.644627 0.47621 0 0 1.001 1.3019e-06
80 30.2775 1.44733 0.764185 0 0 1.001 2.95694e-06
918 31.003 1.12357 1.37309 0 0 1.001 1.71245e-06
82 1.43241 2.27327 0.100499 0 0 1.001 3.08245e-06
84 0.461312 2.372 0.795969 0 0 1.001 1.73148e-06
922 1.45598 2.18933 1.57653 0 0 1.001 3.26571e-06
1001 0.783715 2.98743 1.54287 0 0 1.001 2.88462e-06
161 0.737874 3.06753 0.116311 0 0 1.001 2.74348e-06
163 1.69653 3.00759 0.924395 0 0 1.001 4.61118e-06
88 2.23633 2.12868 0.772776 0 0 1.001 4.08194e-06
167 3.10382 2.87154 0.840974 0 0 1.001 6.93567e-06
926 2.99631 1.85589 1.52666 0 0 1.001 4.99754e-06
86 3.05315 2.00358 0.0392982 0 0 1.001 5.14129e-06
1005 2.51383 2.76757 1.72835 0 0 1.001 5.70984e-06
1009 3.76521 2.88858 1.62955 0 0 1.001 8.41533e-06
92 3.75118 2.07552 0.773393 0 0 1.001 6.42548e-06
171 4.68401 2.7277 0.751003 0 0 1.001 8.93915e-06
930 4.55503 2.05889 1.57318 0 0 1.001 7.46399e-06
96 5.30746 1.91726 0.812384 0 0 1.001 7.871e-06
94 6.05588 1.75049 0.137608 0 0 1.001 7.9656e-06
175 6.20264 2.47552 0.942455 0 0 1.001 1.04985e-05
173 5.4978 2.64392 0.0155364 0 0 1.001 1.0026e-05
174 6.40558 3.16824 0.14651 0 0 1.001 1.2987e-05
176 5.54496 3.31302 1.1065 0 0 1.001 1.2198e-05
1017 7.10337 2.28102 1.52616 0 0 1.001 1.08167e-05
177 7.13888 2.20288 0.104573 0 0 1.001 1.00815e-05
179 7.98605 2.26646 0.864352 0 0 1.001 1.11992e-05
180 7.19144 2.99564 0.778495 0 0 1.001 1.32993e-05
1018 8.1759 3.02117 1.48841 0 0 1.001 1.47199e-05
1021 8.80855 2.1882 1.62034 0 0 1.001 1.15562e-05
181 8.87401 2.20337 0.0238646 0 0 1.001 1.09209e-05
183 9.57966 2.19895 0.924624 0 0 1.001 1.16847e-05
1022 9.92508 2.95444 1.49133 0 0 1.001 1.63487e-05
184 8.99602 3.03035 0.690754 0 0 1.001 1.48751e-05
182 9.83415 3.08737 0.0296336 0 0 1.001 1.59361e-05
185 10.2409 2.2117 0.193484 0 0 1.001 1.16245e-05
188 10.7094 2.86694 0.855508 0 0 1.001 1.52309e-05
187 11.3058 2.15135 0.913646 0 0 1.001 1.12105e-05
1026 11.5985 2.94297 1.58931 0 0 1.001 1.60654e-05
186 11.524 3.14832 0.160513 0 0 1.001 1.62181e-05
1025 10.728 2.00987 1.73627 0 0 1.001 1.11105e-05
1029 12.2126 2.28859 1.61217 0 0 1.00101 1.29294e-05
192 12.343 3.06492 0.823983 0 0 1.001 1.68447e-05
191 12.6699 2.19583 0.749395 0 0 1.001 1.22625e-05
196 13.4387 3.20486 0.817463 0 0 1.00101 1.76737e-05
1033 13.7231 2.59224 1.69436 0 0 1.00101 1.3317e-05
195 14.1138 2.74321 0.843567 0 0 1.00101 1.43793e-05
120 14.762 2.22323 0.914806 0 0 1.001 1.01893e-05
114 14.0751 2.00656 0.0254568 0 0 1.001 9.96907e-06
194 14.2754 3.4172 0.0380405 0 0 1.001 1.80505e-05
1037 15.068 3.15319 1.55074 0 0 1.00101 1.60381e-05
197 15.0624 3.0469 0.0381597 0 0 1.001 1.47858e-05
199 15.7594 3.33553 0.862497 0 0 1.001 1.68774e-05
958 15.5541 2.266 1.4638 0 0 1.001 1.11357e-05
118 15.6082 2.40187 0.113884 0 0 1.001 1.0774e-05
124 16.435 2.48882 0.711303 0 0 1.001 1.10109e-05
1041 16.4264 3.32891 1.51325 0 0 1.001 1.69135e-05
962 17.1105 2.65041 1.54456 0 0 1.001 1.25088e-05
203 17.3035 3.38663 0.661856 0 0 1.001 1.69555e-05
965 17.7815 2.00607 1.56335 0 0 1.001 7.87096e-06
128 17.8162 2.64068 0.663278 0 0 1.001 1.19855e-05
1045 18.0439 3.43508 1.50059 0 0 1.001 1.67845e-05
127 18.4382 1.98609 0.744251 0 0 1.001 8.09148e-06
969 19.1754 2.00482 1.4952 0 0 1.001 8.97959e-06
207 18.8277 3.36353 0.719288 0 0 1.001 1.60688e-05
966 18.7922 2.85563 1.60917 0 0 1.001 1.37372e-05
131 20.0204 2.14255 0.841269 0 0 1.001 9.29132e-06
129 19.3645 2.08239 0.0231972 0 0 1.001 8.60615e-06
132 19.6365 2.95293 1.0238 0 0 1.001 1.43729e-05
130 20.3101 2.93768 0.112566 0 0 1.001 1.4027e-05
133 20.8214 2.17932 0.200899 0 0 1.001 1.01202e-05
135 21.5774 2.34903 0.950309 0 0 1.001 1.10823e-05
973 20.888 2.45921 1.74277 0 0 1.00101 1.21395e-05
136 20.9531 3.14053 1.06438 0 0 1.00101 1.55268e-05
58 23.1942 1.85378 0.474384 0 0 1.001 9.07327e-06
134 21.8677 3.20787 0.464671 0 0 1.00101 1.54465e-05
60 22.4911 1.96208 1.32894 0 0 1.00101 9.92755e-06
137 22.4477 2.41162 0.487905 0 0 1.00101 1.16655e-05
140 22.7245 3.34471 1.21731 0 0 1.00101 1.64638e-05
139 23.4528 2.90395 1.49907 0 0 1.001 1.36093e-05
62 24.7337 1.96026 0.720393 0 0 1.001 9.34762e-06
138 23.5894 3.49252 0.71436 0 0 1.00101 1.58079e-05
64 23.8495 2.03864 1.36802 0 0 1.001 1.00364e-05
141 24.1456 2.66857 0.61409 0 0 1.001 1.20612e-05
143 24.9014 2.82435 1.54515 0 0 1.001 1.26849e-05
142 24.9377 3.54372 0.752408 0 0 1.001 1.50601e-05
68 25.463 1.91326 1.42982 0 0 1.001 9.15012e-06
147 26.3155 2.49916 1.3527 0 0 1.001 1.04028e-05
145 25.5496 2.64229 0.535229 0 0 1.001 1.13097e-05
146 26.3289 3.39443 0.682552 0 0 1.001 1.2983e-05
148 25.7137 3.42077 1.51075 0 0 1.001 1.37323e-05
70 27.8371 1.85509 0.375499 0 0 1.001 6.78439e-06
149 26.9177 2.47452 0.502407 0 0 1.001 9.35562e-06
152 27.0211 3.31341 1.51761 0 0 1.001 1.17947e-05
151 27.846 2.58064 1.21286 0 0 1.001 8.26246e-06
150 27.5692 3.34925 0.614749 0 0 1.001 1.07005e-05
153 28.6119 2.60172 0.337274 0 0 1.001 7.33493e-06
156 28.7 3.27896 1.1771 0 0 1.001 8.65338e-06
993 28.808 2.22115 1.5023 0 0 1.001 6.42936e-06
155 29.7355 2.38073 0.868215 0 0 1.001 5.2843e-06
154 29.602 3.08872 0.276193 0 0 1.001 6.69353e-06
997 30.2546 2.0974 1.68953 0 0 1.001 4.30545e-06
159 31.1975 2.10829 0.911819 0 0 1.001 2.72301e-06
160 30.5596 2.9468 0.984611 0 0 1.001 4.49044e-06
239 31.4818 3.45168 0.95818 0 0 1.001 3.85462e-06
998 31.3677 2.81145 1.71767 0 0 1.001 3.28432e-06
237 30.5854 3.50797 0.151705 0 0 1.00101 5.65094e-06
157 30.6766 2.12423 0.0316048 0 0 1.001 3.58596e-06
158 31.505 2.75463 0.0686002 0 0 1.001 2.96204e-06
164 0.779997 3.73253 0.900612 0 0 1.001 3.48249e-06
241 0.708828 4.58378 0.44901 0 0 1.001 3.92197e-06
162 1.54388 3.69095 0.0627996 0 0 1.001 4.76662e-06
244 0.731125 5.2278 1.26489 0 0 1.001 4.77613e-06
1081 1.02934 4.31188 1.75577 0 0 1.001 4.58848e-06
243 1.70257 4.43813 0.965697 0 0 1.001 6.35213e-06
168 2.39028 3.72794 0.844696 0 0 1.001 6.78845e-06
247 3.16935 4.42011 1.10084 0 0 1.001 9.84055e-06
166 3.2139 3.71091 0.176442 0 0 1.001 8.58701e-06
245 2.50038 4.607 0.267164 0 0 1.001 8.10626e-06
248 2.22383 5.2017 1.34226 0 0 1.001 8.70304e-06
1006 3.04318 3.69924 1.75609 0 0 1.001 8.59729e-06
246 3.3773 5.1031 0.260493 0 0 1.001 1.10041e-05
249 4.07342 4.28881 0.164625 0 0 1.001 1.15406e-05
172 4.03922 3.54311 0.872185 0 0 1.001 9.62146e-06
251 4.77462 4.21352 1.14011 0 0 1.001 1.32013e-05
170 4.84842 3.53814 0.128461 0 0 1.001 1.12339e-05
250 4.96289 4.77404 0.297812 0 0 1.001 1.46448e-05
252 3.87616 5.0545 1.24996 0 0 1.001 1.29534e-05
253 5.72686 4.00056 0.302967 0 0 1.001 1.43043e-05
255 6.49561 3.89554 1.00307 0 0 1.001 1.55644e-05
254 6.61029 4.56996 0.238431 0 0 1.001 1.77372e-05
256 5.76533 4.6615 1.24031 0 0 1.001 1.65772e-05
1097 7.47023 3.66655 1.62696 0 0 1.001 1.67808e-05
260 7.52521 4.29641 0.83588 0 0 1.001 1.85801e-05
259 8.24 3.60564 0.568293 0 0 1.001 1.7115e-05
258 8.27593 4.45017 0.00741373 0 0 1.001 2.05212e-05
1177 7.48364 5.03832 1.58731 0 0 1.001 2.2362e-05
337 7.37804 5.17099 0.114365 0 0 1.001 2.14863e-05
339 8.37586 5.16728 0.747729 0 0 1.001 2.40906e-05
1098 8.39368 4.43543 1.46792 0 0 1.001 2.12222e-05
1101 9.14487 3.715 1.44849 0 0 1.001 1.87055e-05
264 9.23003 4.41951 0.689497 0 0 1.001 2.19812e-05
1181 9.38348 5.12566 1.48055 0 0 1.00099 2.66692e-05
263 10.0538 3.74262 0.785914 0 0 1.001 1.94495e-05
262 10.1406 4.5973 0.00241393 0 0 1.001 2.39735e-05
1102 10.1836 4.43383 1.55998 0 0 1.00099 2.38495e-05
268 10.9402 4.5174 0.787996 0 0 1.001 2.46312e-05
265 10.8514 3.78007 0.0905152 0 0 1.001 2.02552e-05
1105 10.893 3.58784 1.63404 0 0 1.001 1.95385e-05
267 11.6882 3.89445 0.875932 0 0 1.001 2.09704e-05
343 10.1199 5.24145 0.744132 0 0 1.00099 2.75561e-05
1185 11.1074 5.27021 1.48274 0 0 1.00099 2.99764e-05
266 11.7472 4.77555 0.0148547 0 0 1.001 2.57285e-05
1106 11.7797 4.49032 1.72645 0 0 1.00099 2.52535e-05
269 12.5017 4.11414 0.200351 0 0 1.001 2.20724e-05
1109 12.4988 3.79314 1.67083 0 0 1.001 2.20069e-05
272 12.6763 4.65758 0.999659 0 0 1.001 2.62212e-05
270 13.3455 5.02511 0.185476 0 0 1.001 2.70384e-05
347 11.9356 5.26995 0.878491 0 0 1.001 2.92928e-05
271 13.422 4.07731 1.0319 0 0 1.001 2.36256e-05
273 13.7733 4.17241 0.0474258 0 0 1.001 2.22275e-05
1113 14.1498 4.53643 1.70571 0 0 1.001 2.62035e-05
275 14.4738 4.4231 0.755579 0 0 1.001 2.51458e-05
1034 14.7143 3.89899 1.58464 0 0 1.00101 2.17046e-05
200 15.1868 3.94551 0.690997 0 0 1.00101 2.15649e-05
277 15.4445 4.69977 0.0838938 0 0 1.001 2.51574e-05
1117 15.5955 4.91818 1.49595 0 0 1.001 2.85063e-05
279 16.3739 5.05152 0.830563 0 0 1.00101 2.82312e-05
198 16.1414 4.14573 0.10433 0 0 1.001 2.09521e-05
1038 16.2923 4.37194 1.60253 0 0 1.001 2.31795e-05
204 16.8624 4.16754 0.882342 0 0 1.001 2.17603e-05
281 17.1566 4.94148 0.134166 0 0 1.001 2.57429e-05
1121 17.2935 5.20972 1.66647 0 0 1.001 2.96399e-05
1042 17.5742 4.21968 1.65974 0 0 1.001 2.32769e-05
283 17.8727 4.95267 0.8971 0 0 1.001 2.65849e-05
208 18.3958 4.21498 0.788885 0 0 1.001 2.13877e-05
209 19.765 3.60456 0.199548 0 0 1.001 1.80454e-05
285 18.667 5.06909 0.0458049 0 0 1.001 2.67901e-05
1046 19.0236 4.1685 1.63129 0 0 1.001 2.2052e-05
287 19.3139 5.08563 1.08098 0 0 1.001 2.78064e-05
206 19.2287 4.37186 0.0790487 0 0 1.001 2.17338e-05
212 19.8857 4.34188 0.963812 0 0 1.001 2.22254e-05
213 21.247 3.79634 0.312109 0 0 1.001 1.92462e-05
210 20.6151 4.49417 0.260562 0 0 1.001 2.29686e-05
211 20.6517 3.94385 1.27189 0 0 1.001 2.02688e-05
216 21.4188 4.64329 1.19028 0 0 1.001 2.33634e-05
214 22.1087 4.86874 0.506528 0 0 1.001 2.41128e-05
215 22.1911 4.14041 1.39356 0 0 1.00101 1.9759e-05
217 22.805 4.11434 0.600057 0 0 1.00101 2.0198e-05
220 22.9111 5.09372 1.29624 0 0 1.001 2.48924e-05
16179 23.5227 4.31818 0.0229088 0 0 1.001 1.96892e-05
144 24.3608 3.77245 1.52002 0 0 1.001 1.6847e-05
219 23.6802 4.53451 1.38813 0 0 1.001 2.065e-05
221 24.3923 4.54619 0.751812 0 0 1.001 1.96586e-05
222 25.1918 5.30464 0.631336 0 0 1.001 2.13661e-05
223 25.2167 4.45643 1.54483 0 0 1.001 1.84748e-05
227 26.393 4.33133 1.51401 0 0 1.001 1.58011e-05
225 25.774 4.48451 0.733401 0 0 1.001 1.70045e-05
226 26.3374 5.28507 0.431682 0 0 1.001 1.84224e-05
229 26.8363 4.28061 0.591619 0 0 1.001 1.45744e-05
232 27.1039 5.09074 1.36567 0 0 1.001 1.62643e-05
231 27.794 4.02247 1.3985 0 0 1.001 1.20053e-05
230 27.7409 4.75648 0.576645 0 0 1.001 1.41709e-05
233 28.5125 3.80235 0.334195 0 0 1.001 1.01005e-05
236 28.5968 4.57412 1.11651 0 0 1.001 1.17422e-05
235 29.7351 3.655 1.17514 0 0 1.001 7.44606e-06
234 29.4922 4.23038 0.455709 0 0 1.001 8.71342e-06
315 29.7146 4.95805 1.29464 0 0 1.00101 9.35502e-06
240 30.5386 4.33106 1.02473 0 0 1.00101 6.6492e-06
238 31.5407 4.10744 0.340302 0 0 1.001 4.15214e-06
317 30.7963 4.94172 0.462458 0 0 1.001 6.12613e-06
319 31.5668 4.72111 1.36385 0 0 1.001 4.47053e-06
242 1.57201 5.33872 0.445559 0 0 1.001 6.55852e-06
323 1.50931 6.01039 1.26891 0 0 1.001 7.18056e-06
324 0.987584 6.85468 1.45912 0 0 1.001 5.99894e-06
321 0.693114 5.99141 0.445921 0 0 1.001 4.74916e-06
398 0.183392 7.01982 0.595373 0 0 1.001 3.36842e-06
399 0.149405 6.24085 1.36607 0 0 1.001 3.12056e-06
322 1.70252 6.7033 0.552692 0 0 1.001 7.94539e-06
328 2.45908 6.63729 1.23012 0 0 1.001 1.05092e-05
325 2.59517 5.81488 0.472586 0 0 1.001 9.99827e-06
327 3.0553 5.70582 1.35262 0 0 1.001 1.16815e-05
326 3.26529 6.59943 0.450857 0 0 1.001 1.32258e-05
332 4.04777 6.33001 1.12937 0 0 1.001 1.53538e-05
329 4.19875 5.63353 0.446295 0 0 1.001 1.44122e-05
331 4.94037 5.35801 1.1912 0 0 1.001 1.63382e-05
330 4.88169 6.25842 0.213413 0 0 1.001 1.79664e-05
411 4.91073 6.81288 1.15755 0 0 1.00101 1.92989e-05
336 5.71259 5.95986 1.12981 0 0 1.001 2.04353e-05
333 5.71707 5.43466 0.28344 0 0 1.001 1.83968e-05
335 6.61518 5.29485 0.936703 0 0 1.001 2.08787e-05
334 6.53908 6.08953 0.132011 0 0 1.001 2.2996e-05
415 6.51643 6.59969 0.964326 0 0 1.001 2.44077e-05
413 5.66458 6.78221 0.204672 0 0 1.001 2.14613e-05
340 7.51174 5.84659 0.906331 0 0 1.001 2.52413e-05
417 7.6159 6.54487 0.108945 0 0 1.001 2.80353e-05
1178 8.45214 5.7725 1.56972 0 0 1.00099 2.81142e-05
419 8.50948 6.62034 0.698348 0 0 1.001 3.11893e-05
344 9.23324 5.81924 0.672853 0 0 1.00099 2.88737e-05
1261 9.40362 6.36156 1.52147 0 0 1.00099 3.35761e-05
1258 8.52663 6.95047 1.64963 0 0 1.001 3.34066e-05
423 10.2871 6.58833 0.656123 0 0 1.00099 3.52179e-05
1182 10.4125 5.94342 1.44549 0 0 1.00099 3.30008e-05
345 11.0403 5.39335 0.0596095 0 0 1.001 2.9225e-05
348 11.2179 6.20767 0.712506 0 0 1.00099 3.47814e-05
1265 11.2237 6.80894 1.56162 0 0 1.00099 3.99648e-05
346 11.9706 6.15261 0.0839347 0 0 1.001 3.53247e-05
1186 11.9884 6.07651 1.47311 0 0 1.00099 3.62464e-05
349 12.742 5.67532 0.0226983 0 0 1.001 3.18525e-05
352 12.8575 6.40296 0.783522 0 0 1.001 3.83713e-05
351 13.2612 5.61924 1.04498 0 0 1.001 3.30436e-05
427 12.1105 7.01114 0.800687 0 0 1.00099 4.12963e-05
1269 13.0336 7.03138 1.53828 0 0 1.001 4.49279e-05
1190 13.8034 6.55262 1.35008 0 0 1.001 4.02782e-05
276 14.1575 5.36997 0.859644 0 0 1.001 3.08648e-05
1114 14.9031 5.55559 1.58108 0 0 1.001 3.3519e-05
355 14.9688 6.2214 0.78643 0 0 1.001 3.69673e-05
356 14.3877 6.84514 0.580321 0 0 1.001 4.14034e-05
1194 15.2748 7.00674 1.40295 0 0 1.00101 4.32874e-05
280 15.5973 5.55362 0.756116 0 0 1.001 3.26488e-05
357 15.7289 6.2424 0.0151389 0 0 1.001 3.63653e-05
1197 16.0097 6.46356 1.44966 0 0 1.00101 4.04125e-05
278 16.4609 5.62971 0.0320149 0 0 1.00101 3.10647e-05
359 16.6858 6.54016 0.797351 0 0 1.00101 3.9179e-05
1118 16.7304 5.91994 1.68654 0 0 1.00101 3.57702e-05
361 17.2764 6.53373 0.0402904 0 0 1.001 3.76797e-05
284 17.385 5.93794 0.948172 0 0 1.00101 3.36977e-05
363 18.1073 6.86143 1.13739 0 0 1.001 3.97664e-05
282 18.037 5.81026 0.239905 0 0 1.001 3.16961e-05
289 20.0596 5.31573 0.353851 0 0 1.001 2.85364e-05
288 18.5755 5.88805 1.21273 0 0 1.001 3.32644e-05
365 18.6815 6.7699 0.365177 0 0 1.001 3.92604e-05
367 19.2376 6.87195 1.30801 0 0 1.001 4.06334e-05
286 19.2646 5.9353 0.471238 0 0 1.001 3.32169e-05
369 19.9061 6.99543 0.597582 0 0 1.001 4.01124e-05
292 20.1256 6.03519 1.18585 0 0 1.001 3.39968e-05
291 20.8605 5.45741 1.12597 0 0 1.001 2.85538e-05
293 21.3581 5.65414 0.361868 0 0 1.001 2.90763e-05
290 20.8422 6.5924 0.622867 0 0 1.001 3.60237e-05
296 21.5073 6.58068 1.3719 0 0 1.001 3.56395e-05
295 22.03 5.67966 1.3339 0 0 1.001 2.96453e-05
294 22.0764 6.78432 0.634061 0 0 1.001 3.48509e-05
297 22.7702 5.97934 0.761481 0 0 1.001 2.9434e-05
300 22.917 6.96103 1.34168 0 0 1.001 3.48659e-05
16260 22.937 6.81363 0.0395166 0 0 1.001 3.32387e-05
218 23.6103 5.31835 0.549037 0 0 1.001 2.42235e-05
299 23.6351 6.22749 1.28691 0 0 1.001 2.94973e-05
224 24.4426 5.51832 1.33143 0 0 1.001 2.41743e-05
298 23.8022 6.96346 0.629089 0 0 1.001 3.14739e-05
301 24.5216 6.12918 0.539777 0 0 1.001 2.59134e-05
304 24.5941 7.03932 1.26937 0 0 1.001 3.01041e-05
228 25.8829 5.40331 1.54551 0 0 1.001 2.03672e-05
302 25.2087 7.0769 0.444395 0 0 1.001 2.7908e-05
303 25.3372 6.33533 1.44038 0 0 1.001 2.49661e-05
305 25.7906 6.21188 0.562864 0 0 1.001 2.29865e-05
307 26.5916 6.08577 1.35601 0 0 1.001 2.07096e-05
306 26.6363 6.82535 0.683213 0 0 1.001 2.20606e-05
308 26.1119 7.07594 1.60594 0 0 1.001 2.52929e-05
311 28.0883 5.5995 1.3936 0 0 1.001 1.49395e-05
309 27.3193 5.79557 0.634933 0 0 1.001 1.75363e-05
312 27.5474 6.72385 1.45963 0 0 1.001 1.89059e-05
310 28.2969 6.27574 0.695135 0 0 1.001 1.52051e-05
313 28.9448 5.31838 0.679893 0 0 1.001 1.16402e-05
316 29.1343 6.13042 1.44305 0 0 1.001 1.27902e-05
314 30.0646 5.7287 0.800336 0 0 1.001 9.14381e-06
393 29.2638 6.83055 0.654233 0 0 1.001 1.31456e-05
16276 29.1962 5.97526 0.0228917 0 0 1.001 1.19031e-05
16355 30.1128 6.57475 0.0647816 0 0 1.001 1.01816e-05
395 30.1749 6.63677 1.30338 0 0 1.001 9.77914e-06
318 31.6221 5.49438 0.574925 0 0 1.001 5.25292e-06
320 30.8908 5.71827 1.42297 0 0 1.001 6.89564e-06
397 31.086 6.43392 0.617263 0 0 1.001 6.94304e-06
401 1.01789 7.56312 0.620547 0 0 1.001 5.60647e-06
402 1.63799 8.25555 0.565944 0 0 1.001 8.11987e-06
404 1.10096 8.42948 1.43742 0 0 1.001 6.14132e-06
478 0.429121 8.64677 0.396432 0 0 1.001 3.43197e-06
479 0.244194 7.89884 1.27116 0 0 1.001 3.31956e-06
403 1.86378 7.55472 1.44757 0 0 1.001 9.06613e-06
405 2.3765 7.40001 0.386154 0 0 1.001 1.03047e-05
408 2.54018 8.16601 1.43918 0 0 1.001 1.23017e-05
406 3.04138 8.08453 0.381925 0 0 1.001 1.40484e-05
407 3.22901 7.27068 1.26302 0 0 1.001 1.40136e-05
412 3.91861 7.81931 0.919093 0 0 1.00101 1.78526e-05
409 4.10569 7.05906 0.317738 0 0 1.00101 1.67079e-05
410 4.74472 7.64096 0.0384285 0 0 1.00101 2.01705e-05
491 4.85116 8.20957 0.830003 0 0 1.00101 2.21749e-05
1250 4.76954 7.52295 1.73868 0 0 1.00101 2.18622e-05
1329 4.10871 8.44919 1.66177 0 0 1.001 1.99039e-05
489 3.91151 8.60019 0.093514 0 0 1.001 1.79902e-05
1333 5.70531 8.022 1.60015 0 0 1.001 2.7196e-05
416 5.68855 7.33547 0.943366 0 0 1.00101 2.38802e-05
495 6.35316 7.91105 0.59517 0 0 1.00101 2.79843e-05
1334 6.37435 8.68531 1.17171 0 0 1.001 3.11455e-05
414 6.94415 7.29351 0.204275 0 0 1.001 2.77566e-05
1337 7.2851 7.88043 1.20655 0 0 1.00101 3.33748e-05
420 7.56767 7.04473 1.0412 0 0 1.001 2.96853e-05
499 8.35154 7.6735 0.71756 0 0 1.001 3.46258e-05
1338 8.33081 8.46375 1.1673 0 0 1.001 3.96343e-05
500 7.29983 8.59019 0.492689 0 0 1.001 3.42828e-05
424 9.55036 7.16869 0.841893 0 0 1.001 3.6595e-05
501 9.39685 7.84831 0.047715 0 0 1.001 3.89021e-05
1341 9.34878 7.91379 1.36263 0 0 1.001 4.11798e-05
504 9.25267 8.65515 0.555869 0 0 1.001 4.33161e-05
503 10.3244 8.20245 0.675998 0 0 1.00099 4.46164e-05
1262 10.4812 7.4515 1.38871 0 0 1.00099 4.20887e-05
428 11.2312 7.55565 0.685971 0 0 1.00099 4.3353e-05
1345 11.3286 8.35418 1.37606 0 0 1.00099 4.96114e-05
507 12.0197 8.62371 0.655497 0 0 1.00099 5.12851e-05
1266 12.2091 7.76439 1.41991 0 0 1.00099 4.83867e-05
429 12.8045 7.2852 0.0120917 0 0 1.001 4.33071e-05
432 12.9492 7.98442 0.705127 0 0 1.00099 4.87851e-05
1349 13.0596 8.69357 1.37721 0 0 1.00099 5.56517e-05
1270 13.7994 7.99471 1.49596 0 0 1.00099 5.16173e-05
431 13.8253 7.56979 0.588516 0 0 1.001 4.55072e-05
1273 14.6156 7.52408 1.47375 0 0 1.001 5.00832e-05
436 14.6745 8.45792 0.770514 0 0 1.001 5.3738e-05
435 15.3567 7.84139 0.546073 0 0 1.001 4.83749e-05
1274 15.5044 8.61378 1.57561 0 0 1.00101 5.89041e-05
360 16.0285 7.22626 0.652942 0 0 1.00101 4.41209e-05
1277 16.108 7.9983 1.38985 0 0 1.00101 5.15696e-05
437 16.2402 8.31943 0.0387514 0 0 1.00101 5.13065e-05
439 16.9164 8.3631 0.891755 0 0 1.00101 5.26974e-05
1198 16.9721 7.66484 1.68573 0 0 1.00101 4.9463e-05
364 17.3388 7.47647 0.847474 0 0 1.00101 4.44361e-05
441 17.5779 8.5607 0.139642 0 0 1.001 5.19501e-05
443 18.0617 8.55075 1.07155 0 0 1.00101 5.32416e-05
362 18.1419 7.61288 0.295981 0 0 1.001 4.51145e-05
368 18.7552 7.86758 1.07539 0 0 1.001 4.72153e-05
445 18.7723 8.71527 0.275283 0 0 1.001 5.37668e-05
447 19.4298 8.81426 1.01837 0 0 1.001 5.29642e-05
366 19.4892 7.91331 0.215118 0 0 1.001 4.64331e-05
372 19.9341 7.8732 1.15331 0 0 1.001 4.81653e-05
370 20.6059 8.27905 0.609969 0 0 1.001 4.70189e-05
371 20.8346 7.50484 1.34768 0 0 1.001 4.31176e-05
373 21.4564 7.74373 0.592349 0 0 1.001 4.16811e-05
376 21.454 8.75002 1.30928 0 0 1.001 4.87735e-05
374 22.1583 8.62145 0.588516 0 0 1.00099 4.56587e-05
375 22.187 7.73877 1.29936 0 0 1.00099 4.14713e-05
377 22.9612 7.85147 0.664029 0 0 1.00099 3.9026e-05
378 23.6646 8.7224 0.395468 0 0 1.00099 4.00106e-05
379 23.8664 7.89797 1.20075 0 0 1.00099 3.66469e-05
381 24.522 7.93671 0.303625 0 0 1.00099 3.36484e-05
384 24.6367 8.61811 1.08223 0 0 1.00099 3.60955e-05
383 25.4086 7.74877 1.18873 0 0 1.001 2.985e-05
382 25.4132 8.52816 0.307884 0 0 1.00099 3.19432e-05
385 26.1532 7.76745 0.494521 0 0 1.001 2.63583e-05
388 26.1787 8.55609 1.22917 0 0 1.001 2.8979e-05
387 26.8468 7.64944 1.40932 0 0 1.001 2.39344e-05
389 27.6353 7.24575 0.624492 0 0 1.001 1.93042e-05
386 27.0268 8.29428 0.388623 0 0 1.001 2.45422e-05
392 27.7338 8.08417 1.30758 0 0 1.001 2.1051e-05
469 27.9041 8.73951 0.429934 0 0 1.001 2.10571e-05
391 28.5093 7.20492 1.37461 0 0 1.001 1.60989e-05
390 28.5609 7.77933 0.513303 0 0 1.001 1.66603e-05
471 28.6741 8.6445 1.21005 0 0 1.001 1.78316e-05
396 29.4427 7.71232 1.23756 0 0 1.001 1.34264e-05
473 29.5026 8.36467 0.417795 0 0 1.001 1.3552e-05
475 30.2958 8.15399 1.27763 0 0 1.001 1.02613e-05
394 30.333 7.38601 0.498941 0 0 1.001 9.8902e-06
400 31.0677 7.34565 1.1787 0 0 1.001 7.0273e-06
480 31.1774 8.76144 1.19211 0 0 1.001 7.11497e-06
477 31.3696 8.08417 0.38764 0 0 1.001 6.36841e-06
484 0.962705 9.85044 0.913047 0 0 1.001 5.07658e-06
481 1.0802 9.22469 0.119993 0 0 1.001 5.54097e-06
1322 1.55334 9.86559 1.72404 0 0 1.001 8.00826e-06
559 0.229326 9.36492 1.13162 0 0 1.001 2.48867e-06
558 0.179075 10.0625 0.0593415 0 0 1.001 1.50509e-06
483 1.77158 9.07387 1.1674 0 0 1.001 8.88303e-06
482 1.81814 9.94865 0.242425 0 0 1.001 8.68187e-06
485 2.51035 8.98997 0.407968 0 0 1.001 1.17639e-05
488 2.55235 9.82577 0.975234 0 0 1.001 1.21355e-05
486 3.34306 9.58575 0.0819121 0 0 1.001 1.56543e-05
487 3.18986 8.81653 1.17028 0 0 1.001 1.50355e-05
567 3.28631 10.2958 0.713637 0 0 1.00101 1.57729e-05
1405 2.38262 10.5151 1.56768 0 0 1.001 1.22059e-05
1326 3.53488 9.47963 1.65277 0 0 1.001 1.75038e-05
492 4.1924 9.21348 0.740567 0 0 1.001 1.97299e-05
1409 4.31691 9.90602 1.42033 0 0 1.001 2.13812e-05
571 4.89094 9.91444 0.492064 0 0 1.00101 2.38561e-05
1330 5.0436 8.95436 1.54965 0 0 1.001 2.4929e-05
496 5.51785 8.96874 0.575021 0 0 1.001 2.64219e-05
575 6.36678 9.51694 0.445154 0 0 1.001 3.19819e-05
1413 5.69801 9.65638 1.43114 0 0 1.001 2.96254e-05
1414 6.46135 10.1346 1.19143 0 0 1.001 3.37748e-05
576 5.58427 10.5042 0.368733 0 0 1.00101 2.89563e-05
1417 7.33036 9.25262 1.19363 0 0 1.001 3.7321e-05
579 8.08178 9.31263 0.455961 0 0 1.001 4.05211e-05
580 7.16782 10.1149 0.364479 0 0 1.001 3.74807e-05
1418 8.12241 10.0809 1.10443 0 0 1.001 4.45468e-05
1421 8.97302 9.25681 1.30503 0 0 1.001 4.5972e-05
584 9.07192 10.0119 0.653962 0 0 1.001 4.75209e-05
1422 10.0293 10.2556 1.35348 0 0 1.001 5.58754e-05
583 10.0676 9.55739 0.648864 0 0 1.001 5.05418e-05
1342 10.1351 8.84867 1.36516 0 0 1.00099 4.88029e-05
508 11.0528 9.0801 0.652761 0 0 1.001 5.1651e-05
1425 11.066 9.74322 1.37195 0 0 1.001 5.84214e-05
588 10.7501 10.4777 0.539922 0 0 1.001 5.77314e-05
587 11.7674 9.91939 0.652993 0 0 1.001 5.84578e-05
1346 12.197 9.04653 1.57932 0 0 1.001 5.68337e-05
512 12.7324 9.51437 0.710645 0 0 1.001 5.83434e-05
510 13.3656 9.82638 0.0343509 0 0 1.001 6.02078e-05
1429 12.7595 10.1423 1.49636 0 0 1.001 6.504e-05
589 12.4795 10.4311 0.183608 0 0 1.001 6.18072e-05
1426 11.8337 10.5429 1.47797 0 0 1.001 6.56552e-05
1350 13.6707 9.67464 1.58104 0 0 1.001 6.42443e-05
511 13.7445 9.02321 0.685458 0 0 1.001 5.65991e-05
1353 14.4365 8.99254 1.61371 0 0 1.00099 6.12447e-05
516 14.4494 9.90327 0.937715 0 0 1.001 6.29902e-05
514 15.0301 10.2224 0.0451245 0 0 1.00099 6.46031e-05
591 13.5334 10.5253 0.979629 0 0 1.001 6.61035e-05
515 15.2741 9.35434 0.864641 0 0 1.001 6.0472e-05
1354 15.2804 10.071 1.69279 0 0 1.001 6.90548e-05
517 15.9726 9.90671 0.210293 0 0 1.001 6.22649e-05
440 16.2202 9.05722 0.820988 0 0 1.001 5.7718e-05
520 15.9098 10.5504 1.02859 0 0 1.001 6.72896e-05
519 16.8567 9.99832 1.02225 0 0 1.001 6.55262e-05
438 16.9476 9.3146 0.135649 0 0 1.001 5.72284e-05
521 17.3576 10.3866 0.218697 0 0 1.001 6.53052e-05
444 17.6747 9.47858 1.13458 0 0 1.001 6.0853e-05
523 18.1737 10.4868 0.969002 0 0 1.001 6.77035e-05
442 18.1679 9.56093 0.25619 0 0 1.001 5.9726e-05
448 18.8306 9.67916 1.06183 0 0 1.001 6.05148e-05
449 20.0782 9.1136 0.228681 0 0 1.00099 5.22998e-05
446 19.3991 9.92486 0.109346 0 0 1.001 5.93436e-05
452 19.9772 9.92194 0.956806 0 0 1.00099 6.12437e-05
451 20.602 9.19477 1.18184 0 0 1.00099 5.48709e-05
453 21.3402 9.25871 0.38386 0 0 1.00099 5.23886e-05
450 20.7788 10.0958 0.230002 0 0 1.00099 5.86187e-05
456 21.3641 10.2327 1.02594 0 0 1.001 5.78652e-05
380 22.9493 8.93683 1.1313 0 0 1.00099 4.50305e-05
455 22.1513 9.69046 1.06181 0 0 1.00099 5.20358e-05
454 22.1571 10.3914 0.227083 0 0 1.00099 5.36747e-05
457 22.9632 9.65608 0.269879 0 0 1.001 4.68197e-05
460 22.9621 10.469 0.972556 0 0 1.00099 5.15925e-05
1298 23.7392 10.4159 1.64728 0 0 1.00099 4.87664e-05
459 23.8415 9.58197 1.01609 0 0 1.00099 4.37608e-05
461 24.6372 9.4102 0.34044 0 0 1.00099 3.83995e-05
458 23.9108 10.3574 0.225426 0 0 1.00099 4.54767e-05
464 24.62 10.3625 0.986671 0 0 1.00099 4.20886e-05
1302 25.3891 10.1944 1.72566 0 0 1.001 3.85989e-05
462 25.402 10.1497 0.221702 0 0 1.001 3.65569e-05
463 25.4494 9.39762 1.01809 0 0 1.00099 3.48018e-05
465 26.2524 9.29021 0.31807 0 0 1.001 3.0345e-05
468 26.2476 10.133 1.00906 0 0 1.001 3.24179e-05
1306 26.9775 9.85629 1.75336 0 0 1.001 2.84523e-05
467 27.0196 9.12928 1.00983 0 0 1.001 2.63088e-05
547 27.0959 10.6104 0.890899 0 0 1.001 2.797e-05
466 27.1715 9.70623 0.11888 0 0 1.001 2.5883e-05
472 27.8634 9.69262 1.04228 0 0 1.001 2.27421e-05
549 27.9909 10.4114 0.236895 0 0 1.001 2.23545e-05