ITEM: TIMESTEP
7500
ITEM: NUMBER OF ATOMS
32000
ITEM: BOX BOUNDS pp pp pp
0.0000000000000000e+00 3.1748021039364001e+01
0.0000000000000000e+00 3.1748021039364001e+01
0.0000000000000000e+00 3.1748021039364001e+01
ITEM: ATOMS id x y z c_phase c_nbond c_rho v_omega
4 0.150828 1.1131 0.4659 0 0 1.00021 1.87921e-07
83 1.01768 1.66382 0.77872 0 0 1.00021 2.1046e-06
842 0.74385 0.793898 1.41129 0 0 1.00021 7.53138e-07
921 0.0474778 1.61561 1.37604 0 0 1.00021 5.55646e-07
3 0.745887 0.0648759 0.616505 0 0 1.00021 -7.74779e-08
8 1.74034 0.795355 1.01405 0 0 1.00021 2.07505e-06
85 1.84428 1.45926 0.219022 0 0 1.00021 3.1389e-06
925 1.86973 1.64054 1.75763 0 0 1.00021 3.48927e-06
6 2.54981 0.719143 0.203012 0 0 1.00021 3.03617e-06
7 2.60623 0.0246711 1.03578 0 0 1.00021 2.03438e-06
87 2.69284 1.5088 0.879818 0 0 1.00021 4.48934e-06
846 2.70168 0.784902 1.74175 0 0 1.00021 3.37096e-06
12 3.4659 0.888835 0.956769 0 0 1.00021 4.48736e-06
849 3.514 0.0472416 1.70443 0 0 1.00021 3.04063e-06
929 3.65614 1.65843 1.71612 0 0 1.00021 6.25038e-06
10 4.14177 0.806465 0.322013 0 0 1.00021 5.02689e-06
16 4.99476 0.505034 1.16667 0 0 1.00021 5.21269e-06
93 4.97034 1.53679 0.382873 0 0 1.00021 7.57041e-06
850 4.37726 0.886463 1.62908 0 0 1.00021 5.60732e-06
9 3.49262 0.0669033 0.171306 0 0 1.00021 2.97027e-06
14 5.67885 0.576952 0.321125 0 0 1.00021 5.84185e-06
95 5.93158 1.24145 0.940394 0 0 1.00021 7.81308e-06
97 6.62667 1.31894 0.217408 0 0 1.00021 8.44939e-06
854 5.81302 0.389478 1.697 0 0 1.00021 5.54331e-06
933 5.08209 1.65427 1.43398 0 0 1.00021 8.20864e-06
20 6.73987 0.319902 0.866231 0 0 1.00021 5.63942e-06
937 6.73355 0.934134 1.6922 0 0 1.00021 7.56775e-06
24 8.29227 0.332634 1.06779 0 0 1.00021 5.86454e-06
99 7.41688 1.14658 0.95058 0 0 1.00021 8.43808e-06
101 8.3021 1.31238 0.234979 0 0 1.00021 9.27578e-06
941 8.1835 1.19146 1.60748 0 0 1.00021 9.13818e-06
18 7.61679 0.57643 0.1442 0 0 1.00021 6.58523e-06
22 8.88791 0.432947 0.267909 0 0 1.00021 6.05077e-06
28 9.58064 0.263769 0.890189 0 0 1.00021 5.15764e-06
103 9.0781 1.23126 1.10517 0 0 1.00021 9.16812e-06
945 9.62833 0.898651 1.76218 0 0 1.00021 7.8762e-06
105 9.69707 1.29769 0.0925449 0 0 1.00021 9.30223e-06
32 11.2321 0.157417 0.63477 0 0 1.00021 3.86067e-06
107 10.4153 0.982163 0.823758 0 0 1.00021 7.87591e-06
866 10.542 0.130856 1.44548 0 0 1.00021 4.15757e-06
949 11.341 0.95689 1.41707 0 0 1.00021 7.57217e-06
946 10.6531 1.61084 1.72594 0 0 1.00021 1.10171e-05
26 10.2706 0.299232 0.076834 0 0 1.00021 4.97564e-06
36 12.8993 0.177044 0.637286 0 0 1.00021 2.98646e-06
111 12.097 1.0263 0.509201 0 0 1.00021 7.46627e-06
870 12.1568 0.268203 1.30041 0 0 1.00021 3.84635e-06
953 12.7819 1.15632 1.3732 0 0 1.00021 8.03003e-06
40 14.4004 0.310309 0.768851 0 0 1.00021 3.05645e-06
115 13.6492 1.08753 0.843822 0 0 1.00021 7.26978e-06
117 14.1204 1.54086 0.162728 0 0 1.00021 9.6512e-06
874 13.6376 0.335177 1.63489 0 0 1.00021 3.4116e-06
957 14.4397 1.1414 1.47852 0 0 1.00021 7.39862e-06
119 14.9556 1.55294 0.664465 0 0 1.00021 9.57079e-06
44 15.7534 0.782823 0.788742 0 0 1.00021 5.44115e-06
123 16.6271 1.57621 0.683866 0 0 1.00021 1.00226e-05
878 15.1757 0.468294 1.64131 0 0 1.00021 3.72129e-06
882 16.5894 0.742405 1.34404 0 0 1.00021 5.39508e-06
961 15.7079 1.50304 1.39436 0 0 1.00021 9.58011e-06
38 15.146 0.713435 0.0681216 0 0 1.00021 4.90256e-06
48 17.3009 0.775202 0.552749 0 0 1.00021 5.80003e-06
127 18.0003 1.6409 0.757248 0 0 1.00021 1.10009e-05
886 17.9599 0.801949 1.42795 0 0 1.00021 6.38717e-06
51 19.5501 0.0932374 0.66614 0 0 1.00021 4.08263e-06
52 18.8323 0.797749 0.688015 0 0 1.00021 6.83143e-06
131 19.6112 1.63839 0.843757 0 0 1.00021 1.18989e-05
889 19.043 0.231314 1.54734 0 0 1.00021 4.12296e-06
890 19.6448 1.05295 1.69399 0 0 1.00021 8.98322e-06
969 18.7354 1.58216 1.50187 0 0 1.00021 1.121e-05
55 21.1258 0.447875 1.07044 0 0 1.00021 6.88603e-06
56 20.2888 0.868081 0.977786 0 0 1.00021 8.31925e-06
135 21.1726 1.75148 0.959495 0 0 1.00021 1.32478e-05
54 21.2242 0.865868 0.218434 0 0 1.00021 8.97316e-06
133 20.413 1.60674 0.199795 0 0 1.00021 1.21409e-05
57 22.034 0.371885 0.540736 0 0 1.00021 7.32412e-06
59 22.8242 0.538783 1.40607 0 0 1.00021 8.44125e-06
60 22.1634 1.26084 1.33286 0 0 1.00021 1.13682e-05
137 22.0613 1.7109 0.533471 0 0 1.00021 1.32946e-05
58 22.9594 1.17469 0.455469 0 0 1.00021 1.09499e-05
63 24.2645 0.490174 1.4402 0 0 1.00021 8.59962e-06
61 23.5936 0.462376 0.577328 0 0 1.00021 8.33889e-06
62 24.4809 1.29009 0.754761 0 0 1.00021 1.13301e-05
64 23.5314 1.35768 1.40137 0 0 1.00021 1.1864e-05
65 24.9805 0.420484 0.550663 0 0 1.00021 8.37093e-06
67 26.0294 0.479042 1.1723 0 0 1.00021 8.19298e-06
68 25.2103 1.23355 1.47629 0 0 1.00021 1.09813e-05
66 25.9283 1.03295 0.431096 0 0 1.00021 9.86024e-06
70 27.6154 1.36302 0.389145 0 0 1.00021 9.16319e-06
71 27.6382 0.587806 0.875248 0 0 1.00021 7.3589e-06
72 26.7906 1.1211 1.26195 0 0 1.00021 9.40096e-06
913 28.3996 0.410751 1.4044 0 0 1.00021 6.28933e-06
69 26.8112 0.330245 0.230611 0 0 1.00021 7.41191e-06
76 28.6877 1.30511 0.740054 0 0 1.00021 7.66972e-06
914 29.4189 1.00626 1.5695 0 0 1.00021 6.2323e-06
917 29.8334 0.219058 1.46051 0 0 1.00021 4.38869e-06
75 29.2945 0.410427 0.616574 0 0 1.00021 5.30925e-06
841 31.607 0.28302 1.25651 0 0 1.00021 2.33919e-06
79 30.7276 0.519007 0.473244 0 0 1.00021 3.78272e-06
80 30.1347 1.24142 0.774524 0 0 1.00021 5.61215e-06
918 30.8957 1.00158 1.3934 0 0 1.00021 4.20252e-06
82 1.16773 2.42933 0.126979 0 0 1.00021 3.23177e-06
84 0.189589 2.39358 0.811155 0 0 1.00021 1.50679e-06
163 1.35647 3.22327 0.947018 0 0 1.00021 4.50169e-06
922 1.19596 2.35428 1.59018 0 0 1.00021 3.27988e-06
1001 0.451792 3.03914 1.54918 0 0 1.00021 2.5444e-06
161 0.398438 3.10581 0.131384 0 0 1.00021 2.42591e-06
88 1.96901 2.39631 0.783528 0 0 1.00021 4.62196e-06
167 2.73083 3.24352 0.858525 0 0 1.00021 7.35501e-06
926 2.72827 2.19767 1.53467 0 0 1.00021 5.7575e-06
1009 3.33919 3.37387 1.64852 0 0 1.00021 9.05808e-06
86 2.78451 2.3481 0.0546957 0 0 1.00021 5.98779e-06
1005 2.18043 3.07076 1.76192 0 0 1.00021 6.06471e-06
92 3.44691 2.50989 0.779798 0 0 1.00021 7.48569e-06
91 4.06141 1.78694 0.710805 0 0 1.00021 7.03563e-06
96 4.98259 2.50466 0.815471 0 0 1.00021 1.00814e-05
171 4.28216 3.25696 0.749291 0 0 1.00021 1.04879e-05
930 4.20643 2.58291 1.58002 0 0 1.00021 9.07513e-06
94 5.72339 2.37243 0.134167 0 0 1.00021 1.07442e-05
100 6.6299 2.10435 0.774564 0 0 1.00021 1.10129e-05
175 5.73958 3.11919 0.952861 0 0 1.00021 1.30095e-05
934 5.9296 2.12331 1.49302 0 0 1.00021 1.04671e-05
1017 6.61937 2.98095 1.54977 0 0 1.00021 1.41797e-05
177 6.73625 2.85076 0.130703 0 0 1.00021 1.34547e-05
98 7.52962 2.14567 0.137804 0 0 1.00021 1.19426e-05
104 8.16587 2.11873 0.931031 0 0 1.00021 1.24526e-05
179 7.49979 2.97739 0.926331 0 0 1.00021 1.51378e-05
938 7.37312 1.97891 1.5666 0 0 1.00021 1.15017e-05
1021 8.29155 2.90893 1.64732 0 0 1.00021 1.612e-05
181 8.37208 2.88384 0.0386789 0 0 1.00021 1.55103e-05
102 8.98649 2.01153 0.25046 0 0 1.00021 1.22557e-05
108 9.8567 1.94671 1.10328 0 0 1.00021 1.23423e-05
183 9.03226 2.88514 0.928007 0 0 1.00021 1.6421e-05
942 9.11735 2.13745 1.70466 0 0 1.00021 1.33776e-05
185 9.67192 2.82566 0.20855 0 0 1.00021 1.62886e-05
188 10.0264 3.49653 0.885203 0 0 1.00021 2.00703e-05
106 10.3707 2.04127 0.208717 0 0 1.00021 1.27448e-05
112 11.2405 1.76813 0.771499 0 0 1.00021 1.15007e-05
187 10.7339 2.73304 0.919131 0 0 1.00021 1.64307e-05
1029 11.5625 2.76769 1.57989 0 0 1.00021 1.73428e-05
1026 10.8464 3.49432 1.59003 0 0 1.00021 2.1133e-05
116 12.7643 1.90076 0.596255 0 0 1.00021 1.19107e-05
191 12.0425 2.59084 0.739557 0 0 1.00021 1.59963e-05
950 12.0153 1.86586 1.46591 0 0 1.00021 1.20567e-05
1033 12.9826 2.97383 1.69169 0 0 1.00021 1.89377e-05
195 13.3256 2.98874 0.84183 0 0 1.00021 1.83046e-05
954 13.4775 1.96227 1.47984 0 0 1.00021 1.2387e-05
120 14.1349 2.42681 0.923936 0 0 1.00021 1.497e-05
1037 14.1845 3.36403 1.55591 0 0 1.00021 2.16299e-05
199 14.8539 3.42902 0.878834 0 0 1.00021 2.16657e-05
958 14.9025 2.29928 1.44327 0 0 1.00021 1.4433e-05
118 14.9583 2.50934 0.13736 0 0 1.00021 1.54657e-05
197 14.2968 3.20456 0.0383477 0 0 1.00021 1.97046e-05
114 13.5183 2.268 0.0569584 0 0 1.00021 1.38745e-05
124 15.8113 2.45611 0.697844 0 0 1.00021 1.5265e-05
203 16.4522 3.22916 0.671106 0 0 1.00021 2.05024e-05
962 16.4292 2.50764 1.52644 0 0 1.00021 1.61142e-05
1041 15.5308 3.26617 1.50399 0 0 1.00021 2.10563e-05
201 15.7154 3.27084 0.0238151 0 0 1.00021 2.06122e-05
965 17.3065 1.79396 1.56486 0 0 1.00021 1.18565e-05
128 17.1768 2.39741 0.683901 0 0 1.00021 1.5259e-05
207 18.0734 2.99214 0.705415 0 0 1.00021 1.93701e-05
966 18.1317 2.50119 1.58813 0 0 1.00021 1.66633e-05
1045 17.2343 3.16236 1.49982 0 0 1.00021 2.07127e-05
132 18.9966 2.43873 1.015 0 0 1.00021 1.62688e-05
211 19.8308 3.33548 1.27966 0 0 1.00021 2.24532e-05
209 19.0084 3.07949 0.19417 0 0 1.00021 2.01884e-05
130 19.6913 2.42276 0.106023 0 0 1.00021 1.63749e-05
973 20.4045 1.88191 1.73208 0 0 1.00021 1.39529e-05
134 21.2582 2.52497 0.458554 0 0 1.00021 1.7242e-05
136 20.3016 2.56121 1.11219 0 0 1.00021 1.75994e-05
215 21.4361 3.41649 1.39188 0 0 1.00021 2.2471e-05
213 20.5358 3.1029 0.333393 0 0 1.00021 2.05109e-05
139 22.955 2.17971 1.51611 0 0 1.00021 1.56159e-05
138 23.0592 2.72252 0.735899 0 0 1.00021 1.77761e-05
140 22.1814 2.61414 1.24092 0 0 1.00021 1.78956e-05
217 22.097 3.3212 0.6054 0 0 1.00021 2.15014e-05
16179 22.8004 3.52219 0.0666122 0 0 1.00021 2.18134e-05
141 23.8031 1.92367 0.624904 0 0 1.00021 1.39185e-05
143 24.4929 2.10175 1.60466 0 0 1.00021 1.45852e-05
142 24.4261 2.79956 0.777059 0 0 1.00021 1.7164e-05
144 23.7805 3.02057 1.53886 0 0 1.00021 1.90019e-05
16108 25.0387 2.95103 0.0165968 0 0 1.00021 1.70003e-05
147 25.9854 1.84001 1.35754 0 0 1.00021 1.2304e-05
149 26.6029 1.8886 0.513255 0 0 1.00021 1.16681e-05
145 25.1926 1.96277 0.516276 0 0 1.00021 1.33336e-05
146 25.8679 2.71733 0.707109 0 0 1.00021 1.51451e-05
148 25.2393 2.67507 1.52478 0 0 1.00021 1.59218e-05
152 26.6046 2.66512 1.53118 0 0 1.00021 1.40566e-05
151 27.5571 2.07086 1.23621 0 0 1.00021 1.09227e-05
153 28.3052 2.16481 0.34568 0 0 1.00021 1.00166e-05
150 27.1572 2.78481 0.643006 0 0 1.00021 1.33268e-05
231 27.2867 3.45023 1.41707 0 0 1.00021 1.49983e-05
156 28.3193 2.83388 1.2041 0 0 1.00021 1.14838e-05
233 28.058 3.30428 0.333014 0 0 1.00021 1.30067e-05
993 28.5687 1.7927 1.50163 0 0 1.00021 8.90151e-06
997 30.0062 1.85566 1.70741 0 0 1.00021 6.85446e-06
155 29.4965 2.09645 0.882424 0 0 1.00021 7.94718e-06
154 29.2562 2.726 0.289844 0 0 1.00021 9.51458e-06
235 29.3234 3.32383 1.17883 0 0 1.00021 1.04669e-05
159 30.96 2.01215 0.92434 0 0 1.00021 5.45955e-06
160 30.2427 2.75418 1.00218 0 0 1.00021 7.67521e-06
239 31.0954 3.37552 0.973695 0 0 1.00021 6.90854e-06
998 31.0469 2.72292 1.72702 0 0 1.00021 6.22963e-06
237 30.1838 3.29807 0.140596 0 0 1.00021 8.66216e-06
157 30.4578 1.94566 0.0289695 0 0 1.00021 6.21259e-06
158 31.2024 2.68721 0.0769151 0 0 1.00021 5.91974e-06
164 0.370975 3.79096 0.91925 0 0 1.00021 2.88813e-06
241 0.228739 4.60842 0.47919 0 0 1.00021 3.03941e-06
243 1.22544 4.65695 0.986444 0 0 1.00021 5.53504e-06
244 0.183955 5.27821 1.27678 0 0 1.00021 3.26394e-06
162 1.12001 3.85372 0.0639147 0 0 1.00021 4.48584e-06
168 1.92789 4.02007 0.847136 0 0 1.00021 6.5546e-06
247 2.6342 4.81517 1.13104 0 0 1.00021 9.35421e-06
166 2.73662 4.10472 0.204161 0 0 1.00021 8.58815e-06
245 1.99064 4.93684 0.279508 0 0 1.00021 7.61376e-06
249 3.50892 4.80345 0.161691 0 0 1.00021 1.16163e-05
172 3.58115 4.02228 0.884523 0 0 1.00021 1.04868e-05
176 5.01183 3.92844 1.17378 0 0 1.00021 1.38032e-05
251 4.15706 4.81062 1.14663 0 0 1.00021 1.36355e-05
170 4.35325 4.11578 0.145541 0 0 1.00021 1.24541e-05
253 5.11945 4.66113 0.334687 0 0 1.00021 1.56797e-05
174 5.87355 3.85604 0.19128 0 0 1.00021 1.53272e-05
180 6.60424 3.68182 0.77554 0 0 1.00021 1.61821e-05
255 5.80639 4.64089 1.02651 0 0 1.00021 1.76412e-05
1097 6.78989 4.41599 1.64403 0 0 1.00021 1.96369e-05
260 6.80808 5.03457 0.876072 0 0 1.00021 2.1279e-05
184 8.32572 3.7924 0.702301 0 0 1.00021 1.95308e-05
259 7.5364 4.36292 0.548978 0 0 1.00021 2.04543e-05
1018 7.52118 3.77401 1.49766 0 0 1.00021 1.85554e-05
1101 8.34699 4.50501 1.48277 0 0 1.00021 2.32227e-05
264 8.36563 5.20742 0.695006 0 0 1.00021 2.58362e-05
258 7.47252 5.25149 0.039078 0 0 1.00021 2.36779e-05
263 9.22561 4.46826 0.818458 0 0 1.00021 2.41368e-05
265 10.0121 4.41961 0.125839 0 0 1.00021 2.47256e-05
1022 9.20534 3.67219 1.49871 0 0 1.00021 2.07869e-05
1105 10.0293 4.25531 1.65613 0 0 1.00021 2.48871e-05
182 9.11645 3.77605 0.058991 0 0 1.00021 2.03586e-05
268 9.94257 5.22211 0.792807 0 0 1.00021 2.93103e-05
1102 9.22048 5.21843 1.59017 0 0 1.00021 2.87652e-05
192 11.5507 3.5755 0.787801 0 0 1.00021 2.15584e-05
267 10.7544 4.5707 0.90376 0 0 1.00021 2.68681e-05
269 11.5548 4.61983 0.222756 0 0 1.00021 2.74655e-05
1109 11.5349 4.30574 1.70076 0 0 1.00021 2.70336e-05
272 11.5811 5.19499 0.994559 0 0 1.00021 3.18637e-05
186 10.7303 3.7663 0.172392 0 0 1.00021 2.18926e-05
1106 10.7012 5.12988 1.76287 0 0 1.00021 3.11122e-05
196 12.6546 3.53966 0.813317 0 0 1.00021 2.18383e-05
271 12.3653 4.48966 0.999262 0 0 1.00021 2.8104e-05
1113 12.9559 4.93058 1.68885 0 0 1.00021 3.24373e-05
273 12.8127 4.56424 0.0586238 0 0 1.00021 2.83413e-05
275 13.4132 4.65056 0.797433 0 0 1.00021 2.95535e-05
200 14.1678 4.10197 0.69661 0 0 1.00021 2.58903e-05
1034 13.6693 4.18354 1.59347 0 0 1.00021 2.73292e-05
1117 14.4114 5.08944 1.52474 0 0 1.00021 3.45045e-05
277 14.3358 4.8748 0.0693974 0 0 1.00021 3.12433e-05
279 15.1492 5.01267 0.812675 0 0 1.00021 3.31531e-05
198 15.1359 4.18768 0.102258 0 0 1.00021 2.66747e-05
1038 15.1651 4.40934 1.59551 0 0 1.00021 2.94932e-05
204 15.8428 4.08097 0.922163 0 0 1.00021 2.65646e-05
281 16.067 4.79273 0.186321 0 0 1.00021 3.13758e-05
1042 16.5021 3.99342 1.68893 0 0 1.00021 2.69931e-05
1121 16.0306 5.06517 1.64549 0 0 1.00021 3.52019e-05
283 16.7839 4.62375 0.903702 0 0 1.00021 3.06862e-05
208 17.4354 3.88429 0.811911 0 0 1.00021 2.53194e-05
287 18.2646 4.56228 1.09908 0 0 1.00021 3.06845e-05
1046 18.112 3.70997 1.6584 0 0 1.00021 2.49951e-05
285 17.6306 4.63739 0.0205206 0 0 1.00021 3.06026e-05
206 18.2954 3.9216 0.0661111 0 0 1.00021 2.55122e-05
212 19.0222 3.79429 0.957071 0 0 1.00021 2.50792e-05
289 19.001 4.69998 0.362262 0 0 1.00021 3.11602e-05
291 19.8563 4.77884 1.10012 0 0 1.00021 3.18349e-05
210 19.7431 3.86232 0.236467 0 0 1.00021 2.52412e-05
216 20.5804 3.93401 1.23778 0 0 1.00021 2.58405e-05
295 21.047 4.84413 1.39513 0 0 1.00021 3.17342e-05
214 21.2302 4.0534 0.515899 0 0 1.00021 2.59721e-05
293 20.3141 4.89783 0.348624 0 0 1.00021 3.18015e-05
297 21.7493 5.08661 0.805542 0 0 1.00021 3.19313e-05
219 22.9454 3.75404 1.42003 0 0 1.00021 2.33052e-05
220 22.0785 4.26201 1.3144 0 0 1.00021 2.69718e-05
218 22.7559 4.47668 0.523918 0 0 1.00021 2.68571e-05
223 24.5781 3.63946 1.56061 0 0 1.00021 2.07084e-05
221 23.6877 3.76044 0.781797 0 0 1.00021 2.21458e-05
222 24.4556 4.45517 0.629442 0 0 1.00021 2.39983e-05
224 23.6025 4.68187 1.33976 0 0 1.00021 2.70848e-05
301 23.6897 5.20701 0.53587 0 0 1.00021 2.88812e-05
228 25.133 4.62385 1.61891 0 0 1.00021 2.36879e-05
227 25.8153 3.61296 1.5181 0 0 1.00021 1.84328e-05
229 26.2636 3.61032 0.598368 0 0 1.00021 1.73408e-05
225 25.1647 3.78896 0.797183 0 0 1.00021 1.99713e-05
307 25.8184 5.26942 1.34938 0 0 1.00021 2.41829e-05
232 26.4641 4.40277 1.37527 0 0 1.00021 1.95611e-05
309 26.617 5.08815 0.644314 0 0 1.00021 2.10586e-05
226 25.6438 4.5234 0.39813 0 0 1.00021 2.16255e-05
311 27.4373 4.97385 1.40662 0 0 1.00021 1.86635e-05
236 28.0506 4.06119 1.10749 0 0 1.00021 1.48441e-05
313 28.374 4.82157 0.706438 0 0 1.00021 1.54053e-05
230 27.1606 4.14023 0.57768 0 0 1.00021 1.70741e-05
234 29.0125 3.84105 0.483842 0 0 1.00021 1.20239e-05
315 29.1771 4.59127 1.32899 0 0 1.00021 1.29944e-05
240 30.0779 4.11376 1.02784 0 0 1.00021 9.96962e-06
238 31.1079 4.00629 0.368711 0 0 1.00021 7.46871e-06
317 30.2947 4.72964 0.485317 0 0 1.00021 1.00579e-05
319 31.0656 4.63242 1.40465 0 0 1.00021 8.15312e-06
242 1.00713 5.52138 0.461497 0 0 1.00021 5.37286e-06
248 1.63295 5.48791 1.37685 0 0 1.00021 7.29454e-06
323 0.899766 6.20661 1.27644 0 0 1.00021 5.39475e-06
324 0.360764 6.92783 1.50396 0 0 1.00021 3.86392e-06
322 1.07855 6.92912 0.570785 0 0 1.00021 5.97153e-06
321 0.0793411 6.01164 0.448003 0 0 1.00021 2.99251e-06
328 1.81589 6.99387 1.23962 0 0 1.00021 8.61279e-06
325 1.99766 6.16609 0.513652 0 0 1.00021 8.69328e-06
252 3.22004 5.56466 1.29562 0 0 1.00021 1.21784e-05
327 2.37797 6.11343 1.40884 0 0 1.00021 1.01309e-05
246 2.78748 5.56032 0.272516 0 0 1.00021 1.0537e-05
332 3.37184 6.89549 1.13254 0 0 1.00021 1.41502e-05
329 3.51347 6.21045 0.49334 0 0 1.00021 1.37101e-05
250 4.30613 5.38853 0.32326 0 0 1.00021 1.4933e-05
331 4.25273 6.01298 1.2264 0 0 1.00021 1.62233e-05
333 4.9564 6.14382 0.328241 0 0 1.00021 1.86286e-05
336 4.90965 6.70871 1.15817 0 0 1.00021 1.9955e-05
330 4.12715 6.93547 0.222901 0 0 1.00021 1.69321e-05
256 5.05868 5.34368 1.30713 0 0 1.00021 1.74558e-05
254 5.90541 5.31898 0.295601 0 0 1.00021 1.95416e-05
335 5.82563 6.13085 0.958736 0 0 1.00021 2.1931e-05
1177 6.6114 5.87322 1.5959 0 0 1.00021 2.42003e-05
340 6.59117 6.74872 0.994259 0 0 1.00021 2.65904e-05
337 6.5317 5.9468 0.148261 0 0 1.00021 2.33064e-05
334 5.6913 6.93838 0.146925 0 0 1.00021 2.31345e-05
339 7.47999 6.03637 0.7536 0 0 1.00021 2.68887e-05
1098 7.54582 5.3011 1.4928 0 0 1.00021 2.47929e-05
344 8.19437 6.72642 0.722688 0 0 1.00021 3.20254e-05
1178 7.45245 6.72549 1.59538 0 0 1.00021 3.038e-05
1181 8.40694 5.98993 1.49368 0 0 1.00021 3.0278e-05
343 9.06311 6.06958 0.735338 0 0 1.00021 3.16978e-05
1185 9.93516 6.06804 1.47144 0 0 1.00021 3.4943e-05
1182 9.28397 6.82331 1.46041 0 0 1.00021 3.71356e-05
345 9.9482 6.12589 0.0923981 0 0 1.00021 3.3912e-05
262 9.16665 5.36399 0.0177382 0 0 1.00021 2.8255e-05
347 10.788 5.92115 0.953946 0 0 1.00021 3.50356e-05
349 11.5237 6.2752 0.0718749 0 0 1.00021 3.81133e-05
346 10.7327 6.83668 0.144565 0 0 1.00021 3.99522e-05
1186 10.6869 6.81159 1.49336 0 0 1.00021 4.14657e-05
352 11.5308 7.03866 0.806868 0 0 1.00021 4.37862e-05
270 12.1978 5.54755 0.18184 0 0 1.00021 3.44823e-05
276 12.8906 5.74912 0.861193 0 0 1.00021 3.71158e-05
351 11.9909 6.12845 1.05115 0 0 1.00021 3.88262e-05
274 13.5256 5.49456 0.0399903 0 0 1.00021 3.53929e-05
1114 13.5575 5.81706 1.56488 0 0 1.00021 3.94032e-05
355 13.5909 6.52142 0.804955 0 0 1.00021 4.342e-05
280 14.2855 5.69114 0.774261 0 0 1.00021 3.7967e-05
1197 14.5714 6.62092 1.41575 0 0 1.00021 4.69781e-05
357 14.3653 6.35754 0.03746 0 0 1.00021 4.26633e-05
278 15.2355 5.63398 0.0376398 0 0 1.00021 3.75587e-05
284 16.0578 5.75659 0.951465 0 0 1.00021 3.95596e-05
359 15.286 6.45024 0.805534 0 0 1.00021 4.46678e-05
1118 15.3497 5.87056 1.69852 0 0 1.00021 4.17161e-05
361 15.9145 6.35795 0.0428665 0 0 1.00021 4.36091e-05
363 16.7315 6.4962 1.14838 0 0 1.00021 4.60262e-05
282 16.8315 5.46256 0.273808 0 0 1.00021 3.66572e-05
286 18.0355 5.38299 0.539217 0 0 1.00021 3.64492e-05
288 17.3256 5.48169 1.24907 0 0 1.00021 3.80562e-05
365 17.3028 6.3342 0.408958 0 0 1.00021 4.40272e-05
367 17.8981 6.32355 1.38125 0 0 1.00021 4.52132e-05
292 18.9793 5.37198 1.20326 0 0 1.00021 3.67843e-05
369 18.5987 6.3218 0.617247 0 0 1.00021 4.35813e-05
290 19.6369 5.86469 0.623965 0 0 1.00021 3.94465e-05
371 19.5468 6.67691 1.34929 0 0 1.00021 4.67648e-05
373 20.2107 6.87631 0.613181 0 0 1.00021 4.626e-05
294 20.9458 5.9043 0.652606 0 0 1.00021 3.81734e-05
296 20.3804 5.73472 1.39888 0 0 1.00021 3.86345e-05
375 20.9839 6.75538 1.30955 0 0 1.00021 4.48984e-05
299 22.6352 5.31179 1.28261 0 0 1.00021 3.22879e-05
377 21.8467 6.81708 0.674988 0 0 1.00021 4.24352e-05
300 21.8414 6.02004 1.38191 0 0 1.00021 3.82723e-05
16260 21.8722 5.8735 0.0576217 0 0 1.00021 3.62513e-05
298 22.8381 5.98249 0.666227 0 0 1.00021 3.4922e-05
379 22.8115 6.85085 1.21144 0 0 1.00021 4.04885e-05
305 24.9869 5.38476 0.568799 0 0 1.00021 2.65406e-05
381 23.5195 6.93008 0.276381 0 0 1.00021 3.79316e-05
303 24.5012 5.43342 1.43868 0 0 1.00021 2.85527e-05
304 23.644 6.04012 1.29678 0 0 1.00021 3.37209e-05
383 24.48 6.72464 1.16987 0 0 1.00021 3.40358e-05
302 24.2943 6.14947 0.428095 0 0 1.00021 3.18384e-05
306 25.8204 5.99634 0.699153 0 0 1.00021 2.62547e-05
308 25.2549 6.18367 1.67468 0 0 1.00021 2.95989e-05
385 25.3064 6.88137 0.497431 0 0 1.00021 3.10749e-05
387 25.9764 6.74333 1.41071 0 0 1.00021 2.86121e-05
312 26.8145 5.97163 1.47592 0 0 1.00021 2.32136e-05
310 27.6125 5.65018 0.721088 0 0 1.00021 1.94216e-05
389 26.8764 6.49084 0.649419 0 0 1.00021 2.40144e-05
391 27.8192 6.57905 1.36957 0 0 1.00021 2.09165e-05
316 28.4739 5.61393 1.48128 0 0 1.00021 1.69096e-05
314 29.4866 5.37595 0.816664 0 0 1.00021 1.31899e-05
395 29.5443 6.25637 1.32225 0 0 1.00021 1.42409e-05
394 29.6887 6.97816 0.5097 0 0 1.00021 1.43859e-05
393 28.5828 6.29913 0.644714 0 0 1.00021 1.7535e-05
16355 29.481 6.21614 0.0782428 0 0 1.00021 1.43555e-05
16276 28.5867 5.47734 0.0559733 0 0 1.00021 1.59877e-05
318 31.06 5.39637 0.594989 0 0 1.00021 8.84231e-06
320 30.3164 5.50661 1.46356 0 0 1.00021 1.09876e-05
397 30.4967 6.22904 0.647657 0 0 1.00021 1.10281e-05
399 31.3197 6.17939 1.38369 0 0 1.00021 8.56238e-06
398 31.3083 6.97823 0.605423 0 0 1.00021 8.75119e-06
401 0.370827 7.63855 0.65889 0 0 1.00021 3.57476e-06
402 0.947569 8.45289 0.613493 0 0 1.00021 5.34905e-06
403 1.22102 7.8376 1.49337 0 0 1.00021 6.63991e-06
404 0.464995 8.55995 1.46819 0 0 1.00021 3.57253e-06
405 1.70741 7.73145 0.374157 0 0 1.00021 8.17878e-06
408 1.84113 8.57739 1.46144 0 0 1.00021 9.08906e-06
326 2.60032 7.09326 0.471893 0 0 1.00021 1.13846e-05
406 2.31426 8.57552 0.39816 0 0 1.00021 1.07486e-05
407 2.51374 7.75546 1.27732 0 0 1.00021 1.1601e-05
412 3.14183 8.44128 0.935726 0 0 1.00021 1.45373e-05
409 3.36666 7.6914 0.326034 0 0 1.00021 1.48014e-05
410 3.9463 8.36663 0.0757467 0 0 1.00021 1.78984e-05
411 4.11333 7.56414 1.23443 0 0 1.00021 1.80821e-05
416 4.84224 8.15208 0.927933 0 0 1.00021 2.20568e-05
413 4.81421 7.5384 0.238373 0 0 1.00021 2.05945e-05
414 6.02514 8.2189 0.172139 0 0 1.00021 2.73208e-05
415 5.63405 7.46461 1.02 0 0 1.00021 2.42788e-05
417 6.65092 7.41927 0.163563 0 0 1.00021 2.82982e-05
420 6.56174 8.08064 1.04179 0 0 1.00021 3.00639e-05
419 7.46209 7.6242 0.743228 0 0 1.00021 3.26448e-05
1258 7.45581 8.01703 1.69282 0 0 1.00021 3.51751e-05
1261 8.24487 7.3437 1.55544 0 0 1.00021 3.59909e-05
421 8.18261 7.47134 0.0210613 0 0 1.00021 3.46566e-05
499 7.33445 8.72542 0.710581 0 0 1.00021 3.5309e-05
424 8.46507 8.16578 0.867277 0 0 1.00021 3.91196e-05
348 10.0378 7.09096 0.725294 0 0 1.00021 3.99415e-05
423 9.10929 7.47937 0.660606 0 0 1.00021 3.85003e-05
428 9.94323 8.47087 0.692652 0 0 1.00021 4.68098e-05
1262 9.28848 8.53326 1.44144 0 0 1.00021 4.56388e-05
1265 9.87175 7.73963 1.59258 0 0 1.00021 4.45547e-05
427 10.7972 7.80944 0.837591 0 0 1.00021 4.66328e-05
1266 10.814 8.57418 1.4282 0 0 1.00021 5.25322e-05
1269 11.6382 7.69915 1.59574 0 0 1.00021 5.05144e-05
429 11.4576 8.00201 0.0406381 0 0 1.00021 4.91513e-05
432 11.5989 8.72021 0.727988 0 0 1.00021 5.45826e-05
426 10.6247 8.73691 0.0284336 0 0 1.00021 5.03601e-05
356 12.9494 7.22031 0.571471 0 0 1.00021 4.77228e-05
431 12.4194 8.12883 0.59413 0 0 1.00021 5.30519e-05
1190 12.3221 7.06873 1.38088 0 0 1.00021 4.70924e-05
1270 12.3345 8.57213 1.49563 0 0 1.00021 5.82737e-05
1273 13.1111 7.92247 1.47758 0 0 1.00021 5.55692e-05
360 14.573 7.32508 0.604641 0 0 1.00021 5.1181e-05
435 13.8702 8.04534 0.4769 0 0 1.00021 5.56321e-05
1194 13.729 7.28118 1.3545 0 0 1.00021 5.09227e-05
1277 14.5238 8.1319 1.35927 0 0 1.00021 5.95069e-05
1274 13.9537 8.79692 1.56844 0 0 1.00021 6.48588e-05
362 16.6888 7.22426 0.285779 0 0 1.00021 5.12796e-05
364 15.8931 7.31987 0.908329 0 0 1.00021 5.22182e-05
439 15.346 8.28422 0.866178 0 0 1.00021 6.03183e-05
443 16.5357 8.19522 1.11006 0 0 1.00021 6.09288e-05
1198 15.4079 7.52004 1.64431 0 0 1.00021 5.62544e-05
441 16.1185 8.32559 0.152939 0 0 1.00021 6.02993e-05
368 17.2399 7.41461 1.11715 0 0 1.00021 5.42326e-05
445 17.3191 8.17135 0.328406 0 0 1.00021 5.96479e-05
447 17.9737 8.11513 1.0387 0 0 1.00021 5.96439e-05
366 18.0647 7.25632 0.224118 0 0 1.00021 5.13767e-05
372 18.5167 7.15275 1.14867 0 0 1.00021 5.15064e-05
370 19.2501 7.45123 0.637012 0 0 1.00021 5.19937e-05
451 19.1798 8.27805 1.18881 0 0 1.00021 6.03991e-05
453 20.0348 8.27625 0.367854 0 0 1.00021 5.7099e-05
449 18.7038 8.29845 0.188137 0 0 1.00021 5.90814e-05
376 20.1091 7.79701 1.3279 0 0 1.00021 5.48771e-05
374 20.9165 7.61091 0.667084 0 0 1.00021 5.01844e-05
455 20.8796 8.59815 1.04243 0 0 1.00021 5.79488e-05
380 21.7541 7.83717 1.15257 0 0 1.00021 4.99068e-05
457 21.8195 8.51402 0.268901 0 0 1.00021 5.29117e-05
459 22.7818 8.36294 1.02183 0 0 1.00021 4.88714e-05
378 22.5323 7.64757 0.390616 0 0 1.00021 4.51007e-05
384 23.6241 7.49554 1.06555 0 0 1.00021 4.07491e-05
461 23.6615 8.25503 0.381203 0 0 1.00021 4.36138e-05
463 24.5111 8.27323 1.00404 0 0 1.00021 4.03527e-05
382 24.4952 7.48537 0.278349 0 0 1.00021 3.66347e-05
388 25.2733 7.5544 1.25567 0 0 1.00021 3.41646e-05
467 26.168 8.16326 0.996616 0 0 1.00021 3.17442e-05
1306 26.1648 8.79763 1.76212 0 0 1.00021 3.43027e-05
386 26.2273 7.41489 0.374554 0 0 1.00021 2.91622e-05
465 25.3794 8.28671 0.315631 0 0 1.00021 3.57336e-05
466 26.4081 8.74 0.0966971 0 0 1.00021 3.14946e-05
390 27.8341 7.11874 0.529797 0 0 1.00021 2.16739e-05
392 26.922 7.24909 1.34247 0 0 1.00021 2.61756e-05
470 28.0865 8.62222 0.425662 0 0 1.00021 2.28529e-05
471 27.9261 7.95361 1.21588 0 0 1.00021 2.30136e-05
472 27.111 8.80128 1.03024 0 0 1.00021 2.83648e-05
469 27.1302 7.91669 0.436781 0 0 1.00021 2.63178e-05
396 28.7666 7.20336 1.23213 0 0 1.00021 1.82476e-05
474 29.7082 8.43561 0.544457 0 0 1.00021 1.52965e-05
475 29.613 7.75488 1.27978 0 0 1.00021 1.54091e-05
476 28.8946 8.6568 1.18871 0 0 1.00021 1.9197e-05
473 28.815 7.81671 0.41841 0 0 1.00021 1.86062e-05
400 30.4351 7.1412 1.18139 0 0 1.00021 1.17623e-05
479 31.3584 7.84779 1.29999 0 0 1.00021 8.76097e-06
480 30.541 8.5421 1.18682 0 0 1.00021 1.18624e-05
477 30.7461 7.9158 0.383188 0 0 1.00021 1.08949e-05
478 31.5342 8.64037 0.392106 0 0 1.00021 7.98689e-06
482 1.2238 10.2547 0.270391 0 0 1.00021 5.40498e-06
483 1.12523 9.35049 1.20101 0 0 1.00021 5.71465e-06
484 0.358747 9.93393 0.89891 0 0 1.00021 2.1075e-06
481 0.474544 9.33675 0.123194 0 0 1.00021 3.10648e-06
1322 0.916146 10.1083 1.74989 0 0 1.00021 4.47513e-06
485 1.86524 9.40418 0.447376 0 0 1.00021 8.79313e-06
488 1.93058 10.314 0.967553 0 0 1.00021 8.7594e-06
486 2.7 10.1991 0.0792182 0 0 1.00021 1.2429e-05
487 2.4884 9.37905 1.21675 0 0 1.00021 1.17971e-05
1326 2.88092 10.1478 1.66266 0 0 1.00021 1.39666e-05
1329 3.33074 9.1489 1.65526 0 0 1.00021 1.61469e-05
489 3.19251 9.2827 0.0826903 0 0 1.00021 1.48384e-05
492 3.496 9.93935 0.733861 0 0 1.00021 1.65733e-05
491 4.06157 9.00532 0.853095 0 0 1.00021 1.9214e-05
493 4.70947 9.07088 0.00187439 0 0 1.00021 2.21504e-05
496 4.73205 9.85353 0.566041 0 0 1.00021 2.32458e-05
1330 4.24772 9.84706 1.60308 0 0 1.00021 2.1404e-05
1333 4.81286 8.93993 1.6392 0 0 1.00021 2.37781e-05
495 5.47486 8.81979 0.653376 0 0 1.00021 2.60459e-05
500 6.38862 9.64111 0.511605 0 0 1.00021 3.22703e-05
1334 5.46178 9.68856 1.16519 0 0 1.00021 2.76363e-05
1337 6.31064 8.91053 1.25231 0 0 1.00021 3.13083e-05
1417 6.38368 10.3475 1.18393 0 0 1.00021 3.40021e-05
575 5.52912 10.5554 0.434993 0 0 1.00021 2.82961e-05
501 8.28063 8.88761 0.0785141 0 0 1.00021 4.03434e-05
504 8.1396 9.75653 0.570236 0 0 1.00021 4.25309e-05
1338 7.33767 9.56923 1.18762 0 0 1.00021 3.84494e-05
1341 8.22851 8.99603 1.3896 0 0 1.00021 4.20069e-05
1421 7.82452 10.4488 1.34833 0 0 1.00021 4.38981e-05
579 7.08105 10.5164 0.46033 0 0 1.00021 3.79532e-05
503 9.13383 9.28386 0.719717 0 0 1.00021 4.66137e-05
508 9.83851 10.1566 0.658299 0 0 1.00021 5.37204e-05
1342 8.93759 10.0634 1.39922 0 0 1.00021 4.97472e-05
1345 10.0387 9.41124 1.4074 0 0 1.00021 5.34456e-05
507 10.6824 9.52751 0.655188 0 0 1.00021 5.52356e-05
1346 10.8528 10.0056 1.62313 0 0 1.00021 6.14437e-05
1349 11.5549 9.48422 1.31849 0 0 1.00021 6.07621e-05
512 11.4225 10.4288 0.720245 0 0 1.00021 6.31802e-05
436 13.2414 8.87096 0.782922 0 0 1.00021 6.08333e-05
511 12.3386 9.68894 0.687154 0 0 1.00021 6.34413e-05
516 13.0576 10.3732 0.95239 0 0 1.00021 7.08342e-05
1353 12.8152 9.50732 1.60909 0 0 1.00021 6.74716e-05
1350 12.2166 10.4423 1.58924 0 0 1.00021 7.0687e-05
440 14.7239 9.15554 0.76504 0 0 1.00021 6.63697e-05
515 13.7903 9.62467 0.840002 0 0 1.00021 6.78499e-05
1354 13.7594 10.3365 1.7006 0 0 1.00021 7.71141e-05
517 14.5216 10.0947 0.217717 0 0 1.00021 7.26146e-05
444 16.1683 9.17856 1.13602 0 0 1.00021 6.97542e-05
1278 15.3399 9.05186 1.76203 0 0 1.00021 7.072e-05
519 15.3963 9.85725 1.01577 0 0 1.00021 7.42591e-05
521 15.9433 10.1876 0.246242 0 0 1.00021 7.60588e-05
438 15.549 9.19991 0.113678 0 0 1.00021 6.71056e-05
523 16.7655 10.0098 0.96921 0 0 1.00021 7.69632e-05
442 16.765 9.09059 0.265389 0 0 1.00021 6.72988e-05
448 17.3626 9.13377 1.13001 0 0 1.00021 6.95413e-05
525 17.413 10.1004 0.203295 0 0 1.00021 7.60229e-05
527 18.0326 9.96841 1.0797 0 0 1.00021 7.60614e-05
446 18.021 9.20274 0.12275 0 0 1.00021 6.76163e-05
452 18.5599 9.02022 0.953336 0 0 1.00021 6.70791e-05
456 20.0662 9.12268 1.06575 0 0 1.00021 6.4636e-05
529 18.8434 9.86949 0.307769 0 0 1.00021 7.24039e-05
531 19.7386 10.0627 0.872453 0 0 1.00021 7.22405e-05
1369 18.912 9.73408 1.72429 0 0 1.00021 7.57888e-05
450 19.4819 9.10551 0.216918 0 0 1.00021 6.47928e-05
533 20.2264 9.95969 0.0730931 0 0 1.00021 6.86369e-05
535 21.1507 10.0074 0.775963 0 0 1.00021 6.56699e-05
1373 20.4762 9.86048 1.6887 0 0 1.00021 7.11496e-05
454 21.0081 9.25326 0.207856 0 0 1.00021 6.07241e-05
460 21.8383 9.23036 0.988675 0 0 1.00021 5.81342e-05
1298 22.6101 9.09811 1.61378 0 0 1.00021 5.52123e-05
539 23.015 9.91047 0.822644 0 0 1.00021 5.50688e-05
1377 22.1374 10.0119 1.56141 0 0 1.00021 6.25968e-05