ITEM: TIMESTEP
38000
ITEM: NUMBER OF ATOMS
32000
ITEM: BOX BOUNDS pp pp pp
0.0000000000000000e+00 3.1748021039364001e+01
0.0000000000000000e+00 3.1748021039364001e+01
0.0000000000000000e+00 3.1748021039364001e+01
ITEM: ATOMS id x y z c_phase c_nbond c_rho v_omega
4 0.240988 1.09634 0.46576 0 0 1.00096 1.76633e-06
83 1.16914 1.54627 0.776235 0 0 1.00096 3.82276e-06
842 0.81194 0.705152 1.39896 0 0 1.00096 2.37681e-06
921 0.20862 1.61085 1.37673 0 0 1.00096 2.3652e-06
8 1.80521 0.620995 1.00908 0 0 1.00096 3.46949e-06
85 1.98845 1.26601 0.20131 0 0 1.00095 4.80808e-06
925 2.03434 1.41461 1.73434 0 0 1.00096 4.98772e-06
6 2.59674 0.438761 0.186143 0 0 1.00096 4.28733e-06
87 2.83569 1.21956 0.85689 0 0 1.00095 5.92966e-06
846 2.76843 0.501609 1.72121 0 0 1.00095 4.41556e-06
12 3.52945 0.512142 0.946707 0 0 1.00096 5.52886e-06
929 3.82429 1.27142 1.6867 0 0 1.00095 7.30662e-06
10 4.21003 0.385457 0.298667 0 0 1.00096 5.78587e-06
850 4.42876 0.436273 1.61899 0 0 1.00096 6.4434e-06
91 4.25597 1.34977 0.708727 0 0 1.00096 8.25459e-06
16 5.04293 0.0310614 1.12155 0 0 1.00096 5.58572e-06
93 5.14074 1.05679 0.366917 0 0 1.00096 8.35113e-06
14 5.73133 0.0709679 0.291284 0 0 1.00096 6.3184e-06
95 6.06294 0.716972 0.945635 0 0 1.00096 8.02456e-06
933 5.24714 1.12665 1.43237 0 0 1.00096 8.81045e-06
934 6.1794 1.58565 1.47804 0 0 1.00096 1.08193e-05
97 6.77125 0.782522 0.209796 0 0 1.00096 8.51289e-06
937 6.82391 0.380959 1.68399 0 0 1.00096 7.36936e-06
99 7.54826 0.587859 0.943207 0 0 1.00096 8.27737e-06
941 8.35855 0.593824 1.61382 0 0 1.00096 8.8866e-06
18 7.65977 0.0164509 0.147947 0 0 1.00096 6.38781e-06
938 7.64913 1.38962 1.556 0 0 1.00096 1.1375e-05
100 6.90449 1.54199 0.779929 0 0 1.00096 1.13341e-05
98 7.81687 1.56267 0.124324 0 0 1.00096 1.18539e-05
101 8.47178 0.749949 0.217058 0 0 1.00096 8.99921e-06
103 9.23005 0.677195 1.07618 0 0 1.00096 8.71281e-06
945 9.77567 0.358558 1.75294 0 0 1.00096 6.93791e-06
105 9.87475 0.741567 0.111491 0 0 1.00095 8.54804e-06
102 9.30198 1.46436 0.231433 0 0 1.00096 1.19356e-05
104 8.49305 1.51392 0.933903 0 0 1.00095 1.20811e-05
942 9.47153 1.53525 1.72219 0 0 1.00096 1.29447e-05
108 10.1737 1.40612 1.0767 0 0 1.00096 1.16573e-05
107 10.5679 0.492781 0.835086 0 0 1.00095 7.41522e-06
949 11.5128 0.503041 1.41402 0 0 1.00095 7.13795e-06
946 10.9441 1.13761 1.72288 0 0 1.00096 1.06986e-05
112 11.5807 1.33557 0.780212 0 0 1.00096 1.14e-05
106 10.7255 1.52151 0.185278 0 0 1.00095 1.2241e-05
111 12.267 0.650374 0.519213 0 0 1.00095 7.36016e-06
953 13.0081 0.80727 1.37366 0 0 1.00095 7.74016e-06
950 12.3904 1.48384 1.45651 0 0 1.00096 1.18534e-05
116 13.1688 1.59788 0.611992 0 0 1.00096 1.19898e-05
40 14.4573 0.162163 0.78236 0 0 1.00095 3.57201e-06
115 13.8576 0.873045 0.8281 0 0 1.00095 7.43212e-06
117 14.4573 1.32949 0.13813 0 0 1.00096 9.72197e-06
874 13.6867 0.0799439 1.63111 0 0 1.00095 3.52968e-06
957 14.6698 1.02387 1.48178 0 0 1.00095 7.90078e-06
954 13.8964 1.7262 1.46304 0 0 1.00096 1.21145e-05
119 15.2794 1.46438 0.667575 0 0 1.00095 9.94132e-06
44 15.9207 0.760809 0.789445 0 0 1.00095 5.81816e-06
878 15.2568 0.403614 1.63441 0 0 1.00095 3.73297e-06
961 16.0367 1.50609 1.41695 0 0 1.00096 1.02298e-05
38 15.2658 0.623012 0.0713015 0 0 1.00095 4.99732e-06
882 16.7403 0.830277 1.3529 0 0 1.00095 5.77082e-06
123 16.9598 1.69464 0.697041 0 0 1.00095 1.08367e-05
48 17.472 0.945015 0.565811 0 0 1.00095 6.42774e-06
886 18.1433 1.06408 1.42591 0 0 1.00095 7.52888e-06
47 18.1696 0.247289 0.69349 0 0 1.00095 3.43453e-06
885 17.2983 0.049371 1.39992 0 0 1.00095 1.90894e-06
51 19.5765 0.4586 0.682563 0 0 1.00095 4.93705e-06
52 18.9963 1.14427 0.698652 0 0 1.00095 8.17666e-06
889 19.0656 0.577341 1.55648 0 0 1.00095 4.71764e-06
890 19.9053 1.46165 1.69709 0 0 1.00095 1.08717e-05
55 21.2534 0.936565 1.08156 0 0 1.00096 7.94829e-06
56 20.4712 1.30967 0.953571 0 0 1.00096 9.6174e-06
54 21.4063 1.38397 0.210731 0 0 1.00096 1.08767e-05
893 20.458 0.434592 1.42035 0 0 1.00096 6.04734e-06
53 20.3009 0.418659 0.0648402 0 0 1.00096 6.13213e-06
57 22.1435 0.93969 0.540602 0 0 1.00096 8.89787e-06
59 22.9666 1.09994 1.40642 0 0 1.00096 9.60699e-06
58 23.15 1.7471 0.474238 0 0 1.00096 1.23099e-05
17538 22.7693 0.234612 0.460719 0 0 1.00096 5.77305e-06
17540 21.7796 0.0338314 0.862079 0 0 1.00096 4.86946e-06
63 24.4079 1.06492 1.41026 0 0 1.00095 9.82345e-06
61 23.6971 1.01773 0.560366 0 0 1.00095 9.50941e-06
17544 23.5404 0.182893 1.24551 0 0 1.00095 6.33233e-06
17542 24.3534 0.164005 0.589771 0 0 1.00095 6.5737e-06
65 25.087 0.96882 0.522742 0 0 1.00095 9.38498e-06
67 26.104 0.986517 1.15573 0 0 1.00095 8.78493e-06
66 26.0947 1.58468 0.416064 0 0 1.00095 1.06215e-05
17548 25.1953 0.414596 1.3469 0 0 1.00095 7.57342e-06
17546 25.9213 0.130892 0.332838 0 0 1.00095 6.63409e-06
70 27.8008 1.77722 0.379268 0 0 1.00096 9.10486e-06
71 27.719 0.990639 0.867388 0 0 1.00096 7.62989e-06
72 26.9388 1.60168 1.24441 0 0 1.00096 9.71521e-06
69 26.868 0.805194 0.243627 0 0 1.00096 7.97835e-06
17552 27.1017 0.208729 0.999438 0 0 1.00096 6.22229e-06
17556 28.3604 0.0956274 0.730916 0 0 1.00096 5.07476e-06
913 28.4672 0.77159 1.41432 0 0 1.00096 6.25482e-06
76 28.829 1.6174 0.727789 0 0 1.00096 7.28501e-06
914 29.521 1.27917 1.56293 0 0 1.00095 5.93996e-06
917 29.8604 0.423172 1.45172 0 0 1.00096 4.1521e-06
75 29.3385 0.666702 0.615911 0 0 1.00096 5.06344e-06
841 31.6215 0.29885 1.25445 0 0 1.00096 1.80597e-06
79 30.7793 0.61831 0.477218 0 0 1.00096 3.27276e-06
80 30.2561 1.4102 0.767468 0 0 1.00096 4.93306e-06
918 30.9871 1.09794 1.37766 0 0 1.00096 3.60417e-06
82 1.39693 2.28724 0.106689 0 0 1.00095 5.28207e-06
84 0.424205 2.36737 0.800228 0 0 1.00096 3.61031e-06
163 1.65162 3.03072 0.930511 0 0 1.00095 6.81068e-06
922 1.42197 2.20571 1.58103 0 0 1.00096 5.30377e-06
1001 0.739172 2.98791 1.54617 0 0 1.00096 4.76372e-06
161 0.691267 3.06599 0.121235 0 0 1.00096 4.73659e-06
88 2.2017 2.15811 0.77728 0 0 1.00095 6.41924e-06
167 3.05413 2.91649 0.846548 0 0 1.00095 9.53136e-06
926 2.9625 1.8971 1.53154 0 0 1.00095 7.45278e-06
86 3.01776 2.04354 0.0439217 0 0 1.00095 7.78565e-06
1005 2.47048 2.80309 1.73593 0 0 1.00095 7.99919e-06
1009 3.70976 2.94919 1.63616 0 0 1.00095 1.11168e-05
92 3.7117 2.12889 0.778041 0 0 1.00095 9.20126e-06
171 4.63133 2.79357 0.754612 0 0 1.00095 1.20194e-05
930 4.51101 2.12448 1.57708 0 0 1.00096 1.03794e-05
96 5.26566 1.98994 0.816231 0 0 1.00096 1.11479e-05
94 6.01354 1.82832 0.140486 0 0 1.00096 1.15081e-05
175 6.14174 2.55658 0.948339 0 0 1.00096 1.40439e-05
173 5.44214 2.7198 0.0172008 0 0 1.00096 1.34995e-05
174 6.3326 3.25548 0.155583 0 0 1.00095 1.67706e-05
176 5.47339 3.39147 1.11932 0 0 1.00095 1.554e-05
1017 7.04054 2.3687 1.53235 0 0 1.00096 1.45487e-05
177 7.08506 2.2835 0.11135 0 0 1.00096 1.39416e-05
179 7.92172 2.35277 0.876482 0 0 1.00096 1.5278e-05
180 7.11308 3.08229 0.782711 0 0 1.00096 1.71847e-05
1018 8.08777 3.11531 1.49514 0 0 1.00095 1.89116e-05
1021 8.74064 2.27641 1.62856 0 0 1.00096 1.57726e-05
181 8.80568 2.2839 0.0296726 0 0 1.00096 1.5264e-05
183 9.50568 2.28179 0.928763 0 0 1.00096 1.62061e-05
1022 9.82462 3.04337 1.49796 0 0 1.00095 2.10943e-05
184 8.90459 3.12304 0.697512 0 0 1.00095 1.94045e-05
182 9.73289 3.16857 0.0384317 0 0 1.00096 2.07161e-05
185 10.1624 2.28313 0.198999 0 0 1.00096 1.62496e-05
188 10.6125 2.9401 0.866116 0 0 1.00096 2.00105e-05
187 11.2238 2.21708 0.917072 0 0 1.00096 1.58552e-05
1026 11.4908 3.00447 1.59375 0 0 1.00096 2.09284e-05
186 11.4119 3.21835 0.164708 0 0 1.00096 2.14309e-05
1025 10.6474 2.07571 1.7472 0 0 1.00096 1.55172e-05
1029 12.1151 2.33762 1.60968 0 0 1.00096 1.7609e-05
192 12.2264 3.11702 0.822714 0 0 1.00096 2.19172e-05
191 12.5764 2.23309 0.74904 0 0 1.00096 1.69495e-05
196 13.3266 3.2354 0.819184 0 0 1.00096 2.29709e-05
1033 13.6169 2.631 1.69665 0 0 1.00096 1.83265e-05
195 13.9946 2.75236 0.843561 0 0 1.00096 1.9181e-05
120 14.6681 2.23593 0.919271 0 0 1.00096 1.5112e-05
1037 14.9405 3.16747 1.55474 0 0 1.00096 2.14002e-05
197 14.9481 3.05007 0.0412199 0 0 1.00096 2.01434e-05
114 13.9897 2.02608 0.0338878 0 0 1.00096 1.48115e-05
194 14.15 3.43879 0.0319847 0 0 1.00095 2.35466e-05
199 15.625 3.33146 0.867159 0 0 1.00096 2.21861e-05
958 15.4552 2.25407 1.45986 0 0 1.00095 1.57433e-05
118 15.5119 2.40318 0.120188 0 0 1.00095 1.58379e-05
124 16.3417 2.47005 0.710726 0 0 1.00095 1.5896e-05
1041 16.2952 3.29853 1.51419 0 0 1.00095 2.19771e-05
201 16.4318 3.27601 0.00672849 0 0 1.00095 2.15565e-05
962 17.0081 2.61531 1.54214 0 0 1.00095 1.72785e-05
127 18.3666 1.92486 0.747925 0 0 1.00095 1.24289e-05
203 17.1772 3.34638 0.667746 0 0 1.00095 2.21083e-05
965 17.7089 1.96693 1.56394 0 0 1.00095 1.24601e-05
128 17.7189 2.592 0.669174 0 0 1.00095 1.67174e-05
1045 17.9249 3.38323 1.50525 0 0 1.00095 2.17678e-05
969 19.1037 1.93428 1.49787 0 0 1.00095 1.30468e-05
207 18.7156 3.29869 0.721301 0 0 1.00095 2.09204e-05
966 18.6907 2.79299 1.60773 0 0 1.00095 1.82968e-05
131 19.9542 2.06109 0.842482 0 0 1.00095 1.33672e-05
129 19.294 2.0111 0.0193657 0 0 1.00095 1.29061e-05
132 19.5337 2.86499 1.02228 0 0 1.00095 1.86768e-05
209 19.6491 3.51503 0.197779 0 0 1.00095 2.26637e-05
130 20.2141 2.8511 0.113924 0 0 1.00095 1.82995e-05
133 20.7524 2.08723 0.202924 0 0 1.00096 1.39951e-05
135 21.5102 2.25666 0.954702 0 0 1.00096 1.48815e-05
973 20.8096 2.36732 1.74549 0 0 1.00096 1.59901e-05
136 20.8552 3.04735 1.07386 0 0 1.00096 1.96121e-05
134 21.7716 3.09881 0.464069 0 0 1.00096 1.91801e-05
60 22.4343 1.85329 1.33003 0 0 1.00096 1.32601e-05
137 22.3832 2.30276 0.496389 0 0 1.00096 1.51219e-05
139 23.3725 2.79066 1.50321 0 0 1.00096 1.68754e-05
140 22.6393 3.23133 1.22481 0 0 1.00096 1.99322e-05
62 24.6887 1.85658 0.727599 0 0 1.00095 1.2251e-05
138 23.5048 3.3718 0.71905 0 0 1.00096 1.90284e-05
64 23.7968 1.93416 1.37534 0 0 1.00096 1.31334e-05
141 24.0876 2.5533 0.616924 0 0 1.00096 1.50941e-05
143 24.8351 2.71424 1.55591 0 0 1.00095 1.55419e-05
142 24.8587 3.42926 0.759608 0 0 1.00095 1.79556e-05
68 25.4186 1.80951 1.43816 0 0 1.00095 1.18699e-05
147 26.262 2.39673 1.35478 0 0 1.00095 1.29071e-05
145 25.4922 2.5373 0.534702 0 0 1.00095 1.40486e-05
146 26.258 3.28961 0.687824 0 0 1.00095 1.5519e-05
148 25.6413 3.30566 1.51498 0 0 1.00095 1.63568e-05
149 26.8675 2.38285 0.506143 0 0 1.00095 1.18023e-05
152 26.957 3.21352 1.52134 0 0 1.00095 1.41525e-05
151 27.8017 2.50061 1.21771 0 0 1.00096 1.05198e-05
150 27.5068 3.26103 0.620622 0 0 1.00095 1.29695e-05
153 28.5655 2.53181 0.340232 0 0 1.00096 9.49285e-06
156 28.6442 3.2084 1.18284 0 0 1.00096 1.07303e-05
993 28.771 2.15276 1.50382 0 0 1.00096 8.52659e-06
155 29.7005 2.33205 0.872568 0 0 1.00096 7.23447e-06
154 29.5508 3.03018 0.279996 0 0 1.00096 8.65766e-06
997 30.2187 2.05561 1.69403 0 0 1.00096 6.22511e-06
159 31.1639 2.08684 0.915721 0 0 1.00096 4.5472e-06
160 30.5153 2.91289 0.988939 0 0 1.00096 6.32104e-06
239 31.4288 3.43417 0.96358 0 0 1.00096 5.54254e-06
998 31.3235 2.79223 1.72162 0 0 1.00096 5.01553e-06
237 30.5291 3.47034 0.153553 0 0 1.00096 7.46018e-06
157 30.6448 2.09009 0.0331408 0 0 1.00096 5.47756e-06
158 31.4629 2.73768 0.0721754 0 0 1.00096 4.72789e-06
164 0.724715 3.73411 0.90673 0 0 1.00096 5.39017e-06
241 0.643574 4.58132 0.456284 0 0 1.00095 5.91187e-06
243 1.63808 4.46287 0.972176 0 0 1.00095 8.52434e-06
162 1.48608 3.70631 0.0667476 0 0 1.00095 6.96305e-06
244 0.657558 5.23028 1.26975 0 0 1.00095 6.65268e-06
1081 0.966585 4.3187 1.76073 0 0 1.00096 6.43504e-06
168 2.32895 3.76282 0.848449 0 0 1.00095 9.14401e-06
247 3.09675 4.46987 1.10838 0 0 1.00095 1.23863e-05
166 3.14952 3.75924 0.183807 0 0 1.00095 1.12794e-05
245 2.43168 4.64688 0.273103 0 0 1.00095 1.05595e-05
246 3.2973 5.16008 0.266385 0 0 1.00095 1.37139e-05
248 2.14432 5.2372 1.35096 0 0 1.00095 1.09294e-05
249 3.99676 4.35332 0.168098 0 0 1.00095 1.45076e-05
172 3.97809 3.60253 0.877981 0 0 1.00095 1.24914e-05
251 4.69142 4.29027 1.14664 0 0 1.00095 1.62831e-05
170 4.78094 3.61005 0.134314 0 0 1.00095 1.44487e-05
250 4.87301 4.85276 0.306298 0 0 1.00095 1.78953e-05
252 3.78717 5.12173 1.26087 0 0 1.00095 1.569e-05
253 5.64387 4.08447 0.310977 0 0 1.00095 1.78437e-05
255 6.40397 3.98922 1.01261 0 0 1.00095 1.93264e-05
254 6.51189 4.66434 0.250927 0 0 1.00096 2.16337e-05
256 5.66922 4.74971 1.25429 0 0 1.00096 2.00016e-05
1097 7.37904 3.76205 1.63593 0 0 1.00095 2.0775e-05
260 7.42493 4.38918 0.84545 0 0 1.00095 2.27253e-05
259 8.14274 3.69936 0.570862 0 0 1.00095 2.15099e-05
258 8.16322 4.55 0.0153345 0 0 1.00095 2.51354e-05
1098 8.27793 4.54289 1.47873 0 0 1.00095 2.57159e-05
1177 7.36293 5.14522 1.5943 0 0 1.00095 2.64348e-05
1101 9.03492 3.81246 1.45903 0 0 1.00095 2.33191e-05
264 9.10765 4.51615 0.695712 0 0 1.00095 2.68436e-05
263 9.93692 3.82912 0.794904 0 0 1.00095 2.44577e-05
1102 10.0483 4.5286 1.56915 0 0 1.00095 2.90612e-05
262 10.0015 4.68855 0.0102877 0 0 1.00095 2.93127e-05
1181 9.24567 5.23401 1.48952 0 0 1.00095 3.1669e-05
268 10.7982 4.5999 0.794779 0 0 1.00095 3.00962e-05
265 10.73 3.85439 0.101681 0 0 1.00096 2.54499e-05
1105 10.7739 3.6643 1.64467 0 0 1.00095 2.45956e-05
267 11.5545 3.96954 0.883942 0 0 1.00095 2.64513e-05
1106 11.6262 4.55964 1.73687 0 0 1.00095 3.07764e-05
266 11.5936 4.85487 0.0201548 0 0 1.00096 3.17901e-05
269 12.3614 4.16549 0.204819 0 0 1.00095 2.77322e-05
1109 12.3612 3.84909 1.67931 0 0 1.00095 2.74735e-05
272 12.5187 4.71231 1.00684 0 0 1.00095 3.22199e-05
271 13.2614 4.11459 1.02682 0 0 1.00096 2.9274e-05
270 13.1805 5.0734 0.189008 0 0 1.00095 3.36928e-05
273 13.6353 4.20779 0.0528638 0 0 1.00095 2.83082e-05
1113 13.9799 4.56506 1.70507 0 0 1.00095 3.21868e-05
275 14.3208 4.43548 0.764861 0 0 1.00096 3.11118e-05
200 15.0345 3.94321 0.695036 0 0 1.00096 2.70729e-05
1034 14.5626 3.92024 1.5886 0 0 1.00096 2.73881e-05
274 14.5418 5.23147 0.00876731 0 0 1.00095 3.63193e-05
277 15.2836 4.70104 0.0865897 0 0 1.00096 3.15255e-05
1117 15.4277 4.92298 1.50908 0 0 1.00096 3.49898e-05
279 16.1921 5.02102 0.829876 0 0 1.00096 3.44047e-05
198 15.9933 4.13135 0.108406 0 0 1.00096 2.69533e-05
1038 16.1297 4.35722 1.60449 0 0 1.00096 2.91009e-05
204 16.7125 4.13437 0.891542 0 0 1.00095 2.74322e-05
281 16.9981 4.89741 0.147947 0 0 1.00095 3.20282e-05
1121 17.1125 5.16582 1.66689 0 0 1.00096 3.58377e-05
1042 17.4174 4.1672 1.66789 0 0 1.00095 2.86091e-05
283 17.7144 4.88394 0.905462 0 0 1.00095 3.23677e-05
208 18.2548 4.14926 0.796628 0 0 1.00095 2.6657e-05
285 18.5136 4.98604 0.0464672 0 0 1.00095 3.2437e-05
1046 18.8913 4.08856 1.64201 0 0 1.00095 2.70094e-05
287 19.16 4.99092 1.08739 0 0 1.00095 3.30364e-05
206 19.091 4.28962 0.0811203 0 0 1.00095 2.68775e-05
212 19.7569 4.25079 0.966608 0 0 1.00095 2.69976e-05
289 19.9033 5.20967 0.356223 0 0 1.00095 3.36369e-05
213 21.1356 3.68497 0.318605 0 0 1.00096 2.33039e-05
210 20.4851 4.38834 0.260274 0 0 1.00095 2.7517e-05
211 20.5238 3.84256 1.2724 0 0 1.00096 2.45838e-05
216 21.2932 4.53003 1.20323 0 0 1.00095 2.75231e-05
214 21.9772 4.73806 0.511726 0 0 1.00095 2.80117e-05
215 22.0771 4.02628 1.39367 0 0 1.00096 2.35324e-05
217 22.6967 3.98813 0.603255 0 0 1.00096 2.37575e-05
16179 23.4131 4.19214 0.0293261 0 0 1.00096 2.30475e-05
220 22.789 4.96216 1.30218 0 0 1.00095 2.84955e-05
218 23.4849 5.1855 0.548808 0 0 1.00095 2.7592e-05
144 24.2712 3.65643 1.52432 0 0 1.00095 1.99086e-05
219 23.572 4.41241 1.39499 0 0 1.00096 2.39669e-05
221 24.2866 4.42398 0.758488 0 0 1.00095 2.27518e-05
222 25.0833 5.17492 0.634824 0 0 1.00095 2.4157e-05
223 25.1212 4.33132 1.54948 0 0 1.00095 2.12499e-05
228 25.7746 5.28409 1.5584 0 0 1.00095 2.29752e-05
227 26.3077 4.22132 1.51666 0 0 1.00095 1.82838e-05
229 26.7512 4.17834 0.59396 0 0 1.00095 1.69718e-05
225 25.6843 4.37691 0.745106 0 0 1.00095 1.9689e-05
226 26.2365 5.16885 0.428595 0 0 1.00095 2.0885e-05
232 27.0114 4.98588 1.36904 0 0 1.00095 1.85234e-05
231 27.7204 3.93398 1.40346 0 0 1.00096 1.41774e-05
230 27.6558 4.6612 0.579566 0 0 1.00096 1.63289e-05
233 28.4456 3.72457 0.336608 0 0 1.00096 1.21937e-05
236 28.5179 4.4946 1.11678 0 0 1.00096 1.37482e-05
235 29.6766 3.60073 1.1778 0 0 1.00096 9.31241e-06
313 28.8645 5.24114 0.686366 0 0 1.00096 1.34805e-05
234 29.4239 4.16888 0.461712 0 0 1.00096 1.06069e-05
315 29.6394 4.90058 1.30143 0 0 1.00096 1.11171e-05
240 30.4744 4.29353 1.02765 0 0 1.00096 8.34859e-06
238 31.4809 4.0871 0.346241 0 0 1.00096 5.7416e-06
317 30.7278 4.90617 0.46762 0 0 1.00096 7.70009e-06
319 31.4987 4.70383 1.37229 0 0 1.00096 5.96619e-06
242 1.49581 5.3589 0.451277 0 0 1.00095 8.74155e-06
323 1.42744 6.03326 1.27337 0 0 1.00095 9.20132e-06
324 0.90359 6.86196 1.46898 0 0 1.00095 7.9165e-06
322 1.61824 6.7304 0.558996 0 0 1.00095 1.01313e-05
321 0.609531 5.99026 0.449177 0 0 1.00095 6.72753e-06
398 0.0999774 7.00938 0.600147 0 0 1.00095 5.25264e-06
399 0.0721739 6.22699 1.37119 0 0 1.00095 4.86407e-06
328 2.37229 6.68303 1.23635 0 0 1.00095 1.27726e-05
325 2.5139 5.8591 0.481825 0 0 1.00095 1.24764e-05
327 2.96358 5.75936 1.36634 0 0 1.00095 1.41326e-05
326 3.17368 6.66259 0.457018 0 0 1.00096 1.58614e-05
332 3.95453 6.40409 1.13627 0 0 1.00096 1.81001e-05
329 4.10459 5.70723 0.456711 0 0 1.00096 1.73351e-05
331 4.84562 5.44181 1.20235 0 0 1.00096 1.94792e-05
330 4.77515 6.34486 0.220151 0 0 1.00096 2.11477e-05
411 4.80035 6.90988 1.1719 0 0 1.00096 2.23018e-05
336 5.60131 6.05963 1.14094 0 0 1.00096 2.3844e-05
333 5.61164 5.5264 0.294644 0 0 1.00096 2.19333e-05
335 6.50363 5.40001 0.945552 0 0 1.00096 2.47722e-05
334 6.4178 6.19806 0.139288 0 0 1.00095 2.69394e-05
415 6.39146 6.70945 0.976139 0 0 1.00096 2.80996e-05
413 5.54515 6.88242 0.212415 0 0 1.00096 2.49189e-05
337 7.26033 5.27104 0.123855 0 0 1.00095 2.57328e-05
340 7.38417 5.96107 0.923344 0 0 1.00095 2.96016e-05
339 8.24876 5.2748 0.755081 0 0 1.00095 2.87657e-05
1178 8.31108 5.8913 1.58118 0 0 1.00095 3.27554e-05
417 7.477 6.65678 0.121841 0 0 1.00095 3.24806e-05
419 8.36035 6.74641 0.71085 0 0 1.00095 3.61076e-05
344 9.08639 5.9313 0.685464 0 0 1.00095 3.40714e-05
343 9.96958 5.34063 0.747703 0 0 1.00095 3.29771e-05
1261 9.23833 6.48439 1.53423 0 0 1.00095 3.88075e-05
423 10.1156 6.69556 0.663119 0 0 1.00095 4.11236e-05
1182 10.2501 6.04941 1.45517 0 0 1.00095 3.87251e-05
1185 10.9395 5.36197 1.48741 0 0 1.00095 3.5744e-05
345 10.8829 5.47884 0.0704954 0 0 1.00095 3.52156e-05
348 11.0462 6.311 0.720902 0 0 1.00095 4.12709e-05
1265 11.0317 6.91604 1.5712 0 0 1.00095 4.6493e-05
347 11.7726 5.34 0.8952 0 0 1.00095 3.53215e-05
346 11.7913 6.22787 0.0964028 0 0 1.00095 4.19671e-05
1186 11.7998 6.15649 1.4834 0 0 1.00095 4.27911e-05
349 12.5651 5.73459 0.0355055 0 0 1.00095 3.86309e-05
352 12.6626 6.46671 0.795062 0 0 1.00095 4.55885e-05
351 13.0771 5.67102 1.04953 0 0 1.00095 3.9785e-05
1190 13.5919 6.59689 1.36383 0 0 1.00096 4.7986e-05
276 13.9726 5.39488 0.863533 0 0 1.00095 3.75222e-05
1114 14.7093 5.56501 1.58459 0 0 1.00095 4.02557e-05
355 14.7684 6.23329 0.79059 0 0 1.00096 4.43515e-05
356 14.179 6.86882 0.588132 0 0 1.00095 4.94491e-05
1194 15.0537 7.01259 1.40234 0 0 1.00096 5.14909e-05
280 15.4071 5.54853 0.765056 0 0 1.00096 3.94742e-05
357 15.5325 6.23163 0.0230051 0 0 1.00096 4.39368e-05
1197 15.8036 6.45809 1.45111 0 0 1.00096 4.81273e-05
278 16.2826 5.60471 0.0385822 0 0 1.00096 3.80566e-05
359 16.4835 6.49978 0.802918 0 0 1.00096 4.66296e-05
1118 16.5324 5.88267 1.69063 0 0 1.00096 4.25788e-05
361 17.0818 6.48073 0.0479398 0 0 1.00096 4.51255e-05
284 17.193 5.88489 0.9485 0 0 1.00096 4.04023e-05
363 17.911 6.78196 1.14567 0 0 1.00096 4.69057e-05
282 17.8629 5.73427 0.250765 0 0 1.00095 3.80364e-05
288 18.3962 5.80633 1.22397 0 0 1.00095 3.94014e-05
365 18.487 6.68159 0.377279 0 0 1.00095 4.59755e-05
367 19.0476 6.77045 1.32375 0 0 1.00095 4.69154e-05
286 19.0865 5.83562 0.486433 0 0 1.00095 3.89541e-05
292 19.9599 5.91795 1.19328 0 0 1.00095 3.91789e-05
369 19.7195 6.87448 0.606179 0 0 1.00095 4.59373e-05
291 20.7126 5.34377 1.12626 0 0 1.00096 3.32481e-05
293 21.2052 5.52675 0.361773 0 0 1.00095 3.34954e-05
290 20.6699 6.46803 0.627333 0 0 1.00095 4.11069e-05
296 21.3431 6.44067 1.37744 0 0 1.00095 4.02081e-05
295 21.8868 5.54597 1.34583 0 0 1.00095 3.37515e-05
294 21.9153 6.63945 0.638863 0 0 1.00095 3.9131e-05
297 22.6219 5.83703 0.769536 0 0 1.00095 3.3203e-05
300 22.7628 6.81098 1.34979 0 0 1.00095 3.87368e-05
16260 22.7848 6.66327 0.0453252 0 0 1.00095 3.7068e-05
299 23.4911 6.08323 1.28865 0 0 1.00095 3.29633e-05
224 24.3206 5.39024 1.33645 0 0 1.00095 2.73056e-05
298 23.6643 6.81021 0.636389 0 0 1.00095 3.47714e-05
301 24.4006 5.98535 0.54128 0 0 1.00095 2.88979e-05
304 24.4602 6.88547 1.2733 0 0 1.00095 3.3071e-05
302 25.0793 6.93383 0.442781 0 0 1.00095 3.06862e-05
303 25.2181 6.19766 1.4417 0 0 1.00095 2.76946e-05
305 25.6764 6.08363 0.56557 0 0 1.00095 2.55492e-05
307 26.4813 5.9619 1.3573 0 0 1.00095 2.30179e-05
306 26.5214 6.69926 0.687601 0 0 1.00095 2.42918e-05
308 25.9924 6.94047 1.61819 0 0 1.00095 2.76704e-05
311 27.9964 5.50442 1.39679 0 0 1.00096 1.69515e-05
309 27.2191 5.68805 0.63836 0 0 1.00095 1.96925e-05
312 27.446 6.61006 1.46267 0 0 1.00095 2.08642e-05
310 28.2014 6.18003 0.700042 0 0 1.00095 1.70634e-05
316 29.0431 6.05175 1.44954 0 0 1.00096 1.45161e-05
314 29.985 5.67304 0.805421 0 0 1.00096 1.07519e-05
395 30.09 6.57865 1.30797 0 0 1.00096 1.12462e-05
393 29.1707 6.75001 0.655685 0 0 1.00095 1.47566e-05
16355 30.0259 6.51736 0.0691906 0 0 1.00095 1.16948e-05
16276 29.1115 5.89784 0.0293683 0 0 1.00096 1.3633e-05
318 31.545 5.47489 0.580634 0 0 1.00095 6.67743e-06
320 30.8131 5.6835 1.43094 0 0 1.00096 8.37603e-06
397 31.0059 6.40059 0.623927 0 0 1.00095 8.3013e-06
401 0.930996 7.56989 0.629379 0 0 1.00095 7.63219e-06
402 1.54528 8.28058 0.575548 0 0 1.00096 1.02498e-05
404 1.01606 8.44396 1.44566 0 0 1.00096 8.02006e-06
478 0.342798 8.64129 0.398102 0 0 1.00096 5.42414e-06
479 0.159331 7.88731 1.27871 0 0 1.00095 5.10306e-06
403 1.77719 7.58957 1.45798 0 0 1.00095 1.11195e-05
405 2.2861 7.44241 0.388345 0 0 1.00096 1.26431e-05
408 2.4447 8.22201 1.44551 0 0 1.00096 1.44539e-05
406 2.94155 8.14965 0.38753 0 0 1.00096 1.65017e-05
407 3.13175 7.33455 1.27016 0 0 1.00096 1.64317e-05
412 3.81034 7.90313 0.926569 0 0 1.00096 2.04966e-05
409 4.00298 7.14143 0.323617 0 0 1.00096 1.95939e-05
410 4.63235 7.73645 0.0468227 0 0 1.00096 2.32777e-05
491 4.73881 8.31552 0.838436 0 0 1.00096 2.51344e-05
1250 4.6543 7.6223 1.74941 0 0 1.00096 2.4632e-05
1329 4.00064 8.54383 1.66783 0 0 1.00096 2.22967e-05
489 3.80965 8.68984 0.0975323 0 0 1.00096 2.07256e-05
1333 5.57791 8.14354 1.61007 0 0 1.00096 3.02662e-05
416 5.56774 7.44419 0.947745 0 0 1.00096 2.72062e-05
495 6.22846 8.03105 0.608565 0 0 1.00096 3.16703e-05
414 6.81215 7.41348 0.205157 0 0 1.00096 3.18185e-05
1337 7.14489 8.01416 1.21883 0 0 1.00096 3.7387e-05
420 7.42257 7.17569 1.04701 0 0 1.00096 3.39334e-05
1258 8.37224 7.08387 1.6626 0 0 1.00095 3.80963e-05
499 8.20273 7.80728 0.721924 0 0 1.00096 3.94876e-05
1338 8.18361 8.60361 1.17664 0 0 1.00096 4.43314e-05
500 7.16646 8.72602 0.500131 0 0 1.00096 3.84156e-05
424 9.39262 7.29215 0.85295 0 0 1.00095 4.22921e-05
501 9.23276 7.97627 0.058672 0 0 1.00095 4.46404e-05
1341 9.18399 8.04773 1.37401 0 0 1.00095 4.65655e-05
503 10.1484 8.33347 0.688776 0 0 1.00095 5.11588e-05
1262 10.3058 7.58248 1.40451 0 0 1.00095 4.84512e-05
428 11.0427 7.66134 0.693323 0 0 1.00095 5.03286e-05
1345 11.1375 8.47731 1.38977 0 0 1.00095 5.7002e-05
507 11.822 8.72301 0.663363 0 0 1.00095 5.9621e-05
427 11.922 7.0973 0.811477 0 0 1.00095 4.86474e-05
1266 12.0024 7.85491 1.42782 0 0 1.00095 5.60269e-05
429 12.6097 7.35881 0.0216908 0 0 1.00095 5.14188e-05
432 12.7503 8.05882 0.713522 0 0 1.00095 5.74055e-05
1269 12.8303 7.09823 1.55208 0 0 1.00095 5.25983e-05
1349 12.8397 8.77021 1.37526 0 0 1.00095 6.47651e-05
1270 13.5856 8.04577 1.50425 0 0 1.00095 6.05989e-05
431 13.6229 7.61669 0.596564 0 0 1.00095 5.43136e-05
1273 14.398 7.55026 1.47994 0 0 1.00096 5.86743e-05
436 14.4644 8.48246 0.777274 0 0 1.00095 6.37702e-05
435 15.1424 7.83748 0.541855 0 0 1.00096 5.77647e-05
1274 15.2795 8.60552 1.57751 0 0 1.00096 6.88407e-05
360 15.818 7.20926 0.652494 0 0 1.00096 5.27083e-05
1277 15.883 7.9828 1.39186 0 0 1.00096 6.08152e-05
439 16.693 8.3145 0.890394 0 0 1.00096 6.21114e-05
1198 16.7473 7.60644 1.68355 0 0 1.00096 5.77828e-05
437 16.0274 8.30106 0.0334177 0 0 1.00096 6.14265e-05
364 17.1373 7.42586 0.860332 0 0 1.00096 5.26023e-05
441 17.3706 8.49341 0.145275 0 0 1.00096 6.14289e-05
443 17.8506 8.46764 1.08163 0 0 1.00096 6.20053e-05
362 17.9368 7.52455 0.29981 0 0 1.00095 5.29252e-05
368 18.5426 7.77315 1.08673 0 0 1.00095 5.4814e-05
445 18.5679 8.60691 0.284738 0 0 1.00095 6.19203e-05
447 19.2284 8.68699 1.02734 0 0 1.00095 6.03286e-05
366 19.2873 7.79192 0.223994 0 0 1.00095 5.32681e-05
372 19.7355 7.74458 1.16027 0 0 1.00095 5.42849e-05
370 20.4168 8.13269 0.614237 0 0 1.00095 5.27523e-05
371 20.6495 7.36472 1.35065 0 0 1.00096 4.84062e-05
373 21.2817 7.59915 0.599428 0 0 1.00095 4.67118e-05
376 21.2695 8.59414 1.31542 0 0 1.00095 5.41472e-05
374 21.9858 8.45748 0.60284 0 0 1.00095 5.01337e-05
375 22.0163 7.57812 1.30554 0 0 1.00095 4.57766e-05
377 22.8026 7.68717 0.670107 0 0 1.00095 4.28051e-05
380 22.7851 8.76222 1.13724 0 0 1.00095 4.88414e-05
378 23.5076 8.5528 0.396945 0 0 1.00095 4.33715e-05
379 23.7186 7.73348 1.20526 0 0 1.00095 3.99306e-05
381 24.3814 7.78011 0.302401 0 0 1.00095 3.66152e-05
384 24.4984 8.44372 1.08327 0 0 1.00095 3.88142e-05
383 25.2806 7.59122 1.18829 0 0 1.00095 3.2348e-05
382 25.2843 8.36652 0.305552 0 0 1.00095 3.43146e-05
387 26.7285 7.51244 1.41085 0 0 1.00095 2.59616e-05
385 26.0357 7.63069 0.496944 0 0 1.00095 2.85532e-05
388 26.0557 8.4041 1.23397 0 0 1.00095 3.10452e-05
391 28.4155 7.10901 1.37532 0 0 1.00095 1.77723e-05
389 27.5303 7.13165 0.629139 0 0 1.00095 2.11867e-05
386 26.9164 8.16073 0.387683 0 0 1.00095 2.63756e-05
392 27.6237 7.95966 1.31343 0 0 1.00095 2.27955e-05
469 27.7995 8.61545 0.432846 0 0 1.00095 2.25552e-05
390 28.462 7.67954 0.516561 0 0 1.00095 1.8231e-05
471 28.5746 8.54002 1.21135 0 0 1.00095 1.91398e-05
396 29.3518 7.63443 1.23733 0 0 1.00095 1.48052e-05
473 29.4112 8.28243 0.418836 0 0 1.00095 1.4799e-05
475 30.2045 8.09388 1.28011 0 0 1.00095 1.14518e-05
394 30.2464 7.3241 0.503085 0 0 1.00095 1.11918e-05
474 30.2762 8.80707 0.531458 0 0 1.00095 1.14678e-05
400 30.9838 7.31273 1.18126 0 0 1.00095 8.21104e-06
480 31.0938 8.72621 1.19344 0 0 1.00095 8.01406e-06
477 31.2874 8.05626 0.389593 0 0 1.00095 7.39974e-06
483 1.68513 9.10843 1.17519 0 0 1.00096 1.08882e-05
484 0.883473 9.85905 0.914511 0 0 1.00095 7.04883e-06
481 1.00085 9.23514 0.123758 0 0 1.00095 7.77818e-06
1322 1.46748 9.89751 1.73078 0 0 1.00096 9.79626e-06
559 0.148139 9.35379 1.13511 0 0 1.00095 4.35202e-06
558 0.100999 10.048 0.0595326 0 0 1.00095 3.49124e-06
482 1.73803 9.98854 0.248563 0 0 1.00095 1.08089e-05
485 2.42227 9.04485 0.416285 0 0 1.00095 1.41117e-05
488 2.46629 9.88933 0.97727 0 0 1.00096 1.42296e-05
486 3.25333 9.66752 0.0823972 0 0 1.00096 1.80915e-05
487 3.09265 8.89198 1.18031 0 0 1.00096 1.73357e-05
567 3.2024 10.3742 0.717601 0 0 1.00096 1.80205e-05
1326 3.44447 9.56866 1.6583 0 0 1.00096 1.9674e-05
492 4.09377 9.3104 0.744398 0 0 1.00096 2.23561e-05
1330 4.93135 9.07265 1.56018 0 0 1.00095 2.76967e-05
1409 4.22387 10.0111 1.42767 0 0 1.00096 2.37479e-05
571 4.79527 10.0306 0.502624 0 0 1.00096 2.66311e-05
496 5.40642 9.08516 0.575878 0 0 1.00096 2.96681e-05
1334 6.24262 8.81797 1.1786 0 0 1.00096 3.44838e-05
575 6.24206 9.65463 0.448792 0 0 1.00096 3.53661e-05
1413 5.5848 9.79119 1.44232 0 0 1.00096 3.24823e-05
1414 6.34234 10.2818 1.20291 0 0 1.00096 3.68391e-05
1417 7.18944 9.39705 1.19848 0 0 1.00095 4.11502e-05
579 7.93131 9.46616 0.462141 0 0 1.00095 4.50974e-05
580 7.03599 10.267 0.37227 0 0 1.00095 4.11765e-05
1418 7.97718 10.2457 1.11086 0 0 1.00095 4.87292e-05
1421 8.80215 9.4076 1.31575 0 0 1.00095 5.09714e-05
504 9.08669 8.79355 0.563241 0 0 1.00095 4.88261e-05
1342 9.95421 8.99532 1.3771 0 0 1.00095 5.49988e-05
583 9.89661 9.69817 0.657331 0 0 1.00095 5.69381e-05
584 8.92107 10.1638 0.666484 0 0 1.00095 5.27434e-05
1422 9.86489 10.4144 1.3625 0 0 1.00095 6.18362e-05
508 10.8704 9.20539 0.661547 0 0 1.00095 5.9226e-05
1425 10.8798 9.883 1.37624 0 0 1.00095 6.58657e-05
587 11.5833 10.0391 0.660458 0 0 1.00096 6.73387e-05
1346 11.9971 9.15454 1.59297 0 0 1.00095 6.53818e-05
512 12.5337 9.61097 0.718291 0 0 1.00095 6.82261e-05
510 13.1604 9.89903 0.0370886 0 0 1.00095 7.14668e-05
1429 12.5612 10.241 1.50679 0 0 1.00095 7.52021e-05
589 12.2926 10.5386 0.189817 0 0 1.00096 7.24772e-05
1350 13.4565 9.74658 1.58576 0 0 1.00095 7.51666e-05
511 13.5357 9.08376 0.690988 0 0 1.00095 6.70261e-05
1353 14.2028 9.02863 1.61909 0 0 1.00095 7.17968e-05
516 14.2445 9.93374 0.943499 0 0 1.00095 7.52303e-05
515 15.0574 9.35779 0.867049 0 0 1.00095 7.19184e-05
1354 15.0613 10.0709 1.69962 0 0 1.00095 8.17568e-05
514 14.8271 10.2409 0.0457861 0 0 1.00095 7.84583e-05
517 15.7634 9.89539 0.215585 0 0 1.00095 7.54598e-05
440 16.0038 9.03441 0.816959 0 0 1.00096 6.86598e-05
519 16.6501 9.94341 1.0266 0 0 1.00095 7.75658e-05
438 16.7491 9.26419 0.139151 0 0 1.00096 6.83663e-05
520 15.7034 10.5329 1.03214 0 0 1.00095 8.16136e-05
521 17.1565 10.3216 0.225088 0 0 1.00095 7.791e-05
444 17.4614 9.39922 1.1378 0 0 1.00096 7.11348e-05
523 17.9782 10.384 0.974992 0 0 1.00095 7.85882e-05
442 17.9713 9.46354 0.261767 0 0 1.00095 6.95518e-05
448 18.6271 9.56726 1.07725 0 0 1.00095 6.94242e-05
449 19.8888 8.9682 0.227578 0 0 1.00095 5.90467e-05
527 19.1759 10.5895 1.0808 0 0 1.00095 7.50659e-05
446 19.2087 9.78896 0.115931 0 0 1.00095 6.75482e-05
452 19.784 9.76282 0.960432 0 0 1.00095 6.83431e-05
1369 20.0858 10.5726 1.71604 0 0 1.00095 7.52133e-05
451 20.4068 9.03633 1.18638 0 0 1.00095 6.09716e-05
453 21.1596 9.09276 0.38519 0 0 1.00095 5.76381e-05
450 20.6023 9.929 0.231959 0 0 1.00095 6.46976e-05
456 21.1894 10.049 1.03314 0 0 1.00095 6.31306e-05
455 21.9799 9.51405 1.06224 0 0 1.00095 5.6521e-05
454 22.0024 10.2075 0.225001 0 0 1.00095 5.79384e-05