ITEM: TIMESTEP
33000
ITEM: NUMBER OF ATOMS
32000
ITEM: BOX BOUNDS pp pp pp
0.0000000000000000e+00 3.1748021039364001e+01
0.0000000000000000e+00 3.1748021039364001e+01
0.0000000000000000e+00 3.1748021039364001e+01
ITEM: ATOMS id x y z c_phase c_nbond c_rho v_omega
4 0.211868 1.109 0.466663 0 0 1.0009 2.8332e-06
83 1.13022 1.57503 0.778064 0 0 1.0009 4.80605e-06
842 0.786597 0.728656 1.40246 0 0 1.0009 3.38635e-06
921 0.167249 1.62157 1.37697 0 0 1.0009 3.45405e-06
3 0.720373 0.00891004 0.618066 0 0 1.0009 2.38114e-06
8 1.78075 0.657343 1.01161 0 0 1.0009 4.36703e-06
85 1.95068 1.30666 0.206814 0 0 1.0009 5.67989e-06
925 1.99446 1.46062 1.74015 0 0 1.0009 5.94495e-06
6 2.57633 0.492979 0.191761 0 0 1.0009 5.09689e-06
87 2.79899 1.27488 0.862953 0 0 1.0009 6.71531e-06
846 2.74545 0.55486 1.72644 0 0 1.0009 5.25669e-06
12 3.5072 0.581179 0.951099 0 0 1.0009 6.24551e-06
929 3.78482 1.34137 1.69429 0 0 1.0009 8.01264e-06
10 4.18744 0.461472 0.305279 0 0 1.0009 6.35198e-06
850 4.40911 0.516703 1.62376 0 0 1.0009 7.04766e-06
91 4.21167 1.42936 0.711201 0 0 1.0009 8.8481e-06
16 5.02482 0.113696 1.13181 0 0 1.0009 6.01112e-06
93 5.10112 1.14179 0.373218 0 0 1.0009 8.77284e-06
14 5.71166 0.158965 0.299312 0 0 1.0009 6.58721e-06
95 6.03091 0.808052 0.948266 0 0 1.0009 8.26949e-06
933 5.20971 1.21849 1.43504 0 0 1.0009 9.30203e-06
934 6.12769 1.67846 1.48271 0 0 1.0009 1.11034e-05
97 6.73663 0.875011 0.213927 0 0 1.0009 8.53682e-06
937 6.79966 0.474352 1.68881 0 0 1.0009 7.46996e-06
99 7.51626 0.682729 0.946652 0 0 1.0009 8.12085e-06
941 8.32044 0.694901 1.61626 0 0 1.0009 8.61095e-06
18 7.6424 0.113224 0.151768 0 0 1.0009 6.18732e-06
938 7.59338 1.489 1.5607 0 0 1.0009 1.12745e-05
100 6.84761 1.6384 0.781919 0 0 1.0009 1.13736e-05
98 7.75891 1.66228 0.128848 0 0 1.0009 1.16535e-05
101 8.43283 0.844667 0.223458 0 0 1.0009 8.55757e-06
103 9.19469 0.76918 1.08377 0 0 1.0009 8.07059e-06
945 9.74162 0.446309 1.75754 0 0 1.0009 6.15388e-06
105 9.83423 0.834513 0.111736 0 0 1.0009 7.66393e-06
102 9.23941 1.55578 0.238387 0 0 1.0009 1.12243e-05
104 8.4294 1.61628 0.936226 0 0 1.0009 1.17281e-05
942 9.40286 1.636 1.72138 0 0 1.0009 1.23112e-05
108 10.1112 1.49479 1.08355 0 0 1.0009 1.06526e-05
107 10.5316 0.574007 0.835489 0 0 1.00089 6.29422e-06
949 11.4739 0.577724 1.41715 0 0 1.00089 5.7356e-06
946 10.8833 1.2139 1.72423 0 0 1.0009 9.46684e-06
112 11.5111 1.40652 0.780596 0 0 1.0009 9.76177e-06
106 10.6557 1.60899 0.1904 0 0 1.0009 1.10308e-05
111 12.2253 0.712941 0.519627 0 0 1.0009 5.55438e-06
953 12.9589 0.867734 1.37504 0 0 1.0009 5.83123e-06
950 12.3172 1.54619 1.46004 0 0 1.0009 9.99024e-06
116 13.0855 1.64644 0.611713 0 0 1.0009 9.70591e-06
40 14.4331 0.189999 0.78273 0 0 1.0009 1.22043e-06
115 13.81 0.908116 0.834019 0 0 1.0009 5.12716e-06
117 14.3874 1.36911 0.145223 0 0 1.0009 7.18509e-06
874 13.666 0.124458 1.63454 0 0 1.00089 1.51563e-06
957 14.6186 1.04212 1.4821 0 0 1.0009 5.31274e-06
119 15.2118 1.48166 0.668607 0 0 1.0009 7.0395e-06
44 15.8786 0.770382 0.790141 0 0 1.0009 3.10568e-06
878 15.2305 0.416062 1.63642 0 0 1.0009 1.39998e-06
882 16.701 0.821942 1.35084 0 0 1.0009 3.03694e-06
961 15.9677 1.50977 1.41169 0 0 1.0009 7.36049e-06
38 15.2333 0.644614 0.0729721 0 0 1.00089 2.36844e-06
123 16.8892 1.67864 0.693785 0 0 1.0009 7.55169e-06
48 17.4275 0.923312 0.564359 0 0 1.0009 3.3807e-06
886 18.0959 1.02782 1.42568 0 0 1.00089 4.53409e-06
47 18.1519 0.211645 0.693495 0 0 1.00089 4.88443e-07
885 17.2877 0.0317542 1.39909 0 0 1.00089 -6.56489e-07
51 19.5548 0.408777 0.678452 0 0 1.0009 1.94128e-06
52 18.9517 1.09463 0.696083 0 0 1.00089 4.85836e-06
889 19.0446 0.528893 1.55289 0 0 1.00089 1.92346e-06
890 19.8431 1.40318 1.69466 0 0 1.0009 7.73302e-06
55 21.2144 0.864777 1.07785 0 0 1.0009 4.84138e-06
56 20.4238 1.24681 0.957615 0 0 1.0009 6.38684e-06
54 21.3552 1.30938 0.211667 0 0 1.0009 7.41605e-06
893 20.4413 0.366491 1.42326 0 0 1.0009 3.17318e-06
53 20.2809 0.350051 0.0669558 0 0 1.0009 2.85419e-06
57 22.1047 0.856673 0.538911 0 0 1.0009 5.69617e-06
59 22.9231 1.01817 1.40543 0 0 1.0009 6.62436e-06
60 22.3704 1.76523 1.32934 0 0 1.0009 9.97357e-06
58 23.0982 1.66206 0.472126 0 0 1.0009 8.97306e-06
17538 22.7599 0.157263 0.464017 0 0 1.0009 2.84841e-06
63 24.3656 0.980832 1.41362 0 0 1.00089 6.97882e-06
61 23.6606 0.937068 0.56359 0 0 1.00089 6.46188e-06
62 24.6345 1.77405 0.732349 0 0 1.00089 9.18965e-06
65 25.0509 0.889906 0.527334 0 0 1.00089 6.48422e-06
17544 23.5301 0.0959307 1.24711 0 0 1.00089 3.61362e-06
17542 24.3447 0.0808834 0.593553 0 0 1.00089 3.7818e-06
67 26.073 0.913378 1.15889 0 0 1.0009 6.09791e-06
68 25.3646 1.72605 1.44425 0 0 1.00089 9.06115e-06
66 26.048 1.50504 0.418455 0 0 1.0009 7.71322e-06
17548 25.174 0.338691 1.3509 0 0 1.00089 4.9566e-06
17546 25.909 0.0550337 0.333628 0 0 1.0009 3.88399e-06
70 27.7523 1.72095 0.381264 0 0 1.0009 6.40591e-06
71 27.6873 0.935101 0.868555 0 0 1.0009 5.02686e-06
72 26.8958 1.53346 1.24704 0 0 1.0009 7.04267e-06
69 26.8394 0.737866 0.242349 0 0 1.0009 5.22824e-06
17552 27.09 0.145158 0.999209 0 0 1.0009 3.67579e-06
17556 28.3478 0.0494599 0.731225 0 0 1.0009 2.58261e-06
913 28.4392 0.722843 1.41319 0 0 1.0009 3.81711e-06
76 28.7889 1.57674 0.72923 0 0 1.0009 4.73412e-06
914 29.4872 1.24472 1.5645 0 0 1.0009 3.54744e-06
917 29.8402 0.398645 1.45335 0 0 1.0009 1.78075e-06
75 29.3144 0.634829 0.616762 0 0 1.0009 2.56212e-06
841 31.6044 0.305148 1.25577 0 0 1.0009 -5.75006e-07
79 30.755 0.612183 0.477537 0 0 1.0009 7.99162e-07
80 30.2205 1.39342 0.769376 0 0 1.0009 2.4721e-06
918 30.9566 1.09191 1.3812 0 0 1.0009 1.22219e-06
82 1.34506 2.32087 0.112361 0 0 1.0009 6.24372e-06
84 0.370675 2.38224 0.803204 0 0 1.0009 4.65727e-06
163 1.59006 3.07364 0.935141 0 0 1.00089 7.78355e-06
922 1.37129 2.23985 1.58382 0 0 1.0009 6.2975e-06
1001 0.677806 3.00651 1.54729 0 0 1.0009 5.83148e-06
161 0.62798 3.08402 0.124554 0 0 1.0009 5.7839e-06
88 2.15001 2.20684 0.780098 0 0 1.00089 7.31059e-06
167 2.98749 2.97994 0.850531 0 0 1.00089 1.03333e-05
926 2.91096 1.95491 1.53404 0 0 1.00089 8.2744e-06
86 2.966 2.10227 0.0478257 0 0 1.0009 8.55722e-06
1005 2.41019 2.85615 1.74196 0 0 1.00089 8.92592e-06
1009 3.63596 3.02811 1.64017 0 0 1.00089 1.19002e-05
92 3.65514 2.20013 0.780714 0 0 1.0009 9.89365e-06
171 4.56157 2.87762 0.756016 0 0 1.0009 1.26107e-05
930 4.44885 2.20724 1.57907 0 0 1.0009 1.10032e-05
96 5.20709 2.08086 0.818353 0 0 1.0009 1.1617e-05
94 5.95433 1.92467 0.142192 0 0 1.0009 1.17979e-05
175 6.06345 2.65521 0.952075 0 0 1.0009 1.43347e-05
173 5.37004 2.81535 0.0169978 0 0 1.0009 1.39575e-05
174 6.24318 3.36159 0.164075 0 0 1.0009 1.70358e-05
176 5.3842 3.48722 1.13091 0 0 1.0009 1.60089e-05
1017 6.96014 2.47332 1.53666 0 0 1.0009 1.46553e-05
177 7.01582 2.38194 0.117506 0 0 1.0009 1.39191e-05
179 7.84144 2.4574 0.887681 0 0 1.0009 1.5094e-05
180 7.01742 3.18612 0.784228 0 0 1.0009 1.71866e-05
1018 7.98242 3.22677 1.49819 0 0 1.0009 1.87658e-05
1021 8.65685 2.38127 1.63433 0 0 1.0009 1.53794e-05
181 8.72246 2.38396 0.0345098 0 0 1.0009 1.47284e-05
183 9.41687 2.38282 0.930798 0 0 1.0009 1.54911e-05
1022 9.70956 3.14917 1.50062 0 0 1.0009 2.02951e-05
184 8.79758 3.23541 0.701593 0 0 1.0009 1.89256e-05
182 9.61778 3.26986 0.0455176 0 0 1.0009 1.97699e-05
185 10.07 2.37344 0.203585 0 0 1.0009 1.5165e-05
188 10.5032 3.03161 0.873664 0 0 1.0009 1.86849e-05
187 11.1299 2.30183 0.918693 0 0 1.0009 1.43513e-05
1026 11.3712 3.08312 1.59449 0 0 1.0009 1.92808e-05
186 11.2869 3.30941 0.167385 0 0 1.0009 1.98424e-05
1025 10.5536 2.15855 1.75578 0 0 1.0009 1.43015e-05
1029 12.0077 2.4045 1.60416 0 0 1.0009 1.56766e-05
192 12.0997 3.18943 0.818263 0 0 1.0009 1.97363e-05
191 12.4733 2.28931 0.747655 0 0 1.0009 1.46517e-05
196 13.2047 3.28537 0.818839 0 0 1.0009 2.02717e-05
1033 13.4998 2.68859 1.69532 0 0 1.0009 1.60365e-05
195 13.8666 2.7845 0.842557 0 0 1.0009 1.61744e-05
954 13.8147 1.76353 1.46752 0 0 1.0009 9.74281e-06
120 14.5644 2.26908 0.921793 0 0 1.0009 1.23923e-05
1037 14.8021 3.20224 1.55481 0 0 1.0009 1.85552e-05
197 14.8262 3.07594 0.0417911 0 0 1.0009 1.68575e-05
114 13.8962 2.06605 0.0412459 0 0 1.0009 1.20325e-05
194 14.0157 3.4828 0.0238489 0 0 1.0009 2.03384e-05
199 15.4815 3.3493 0.868893 0 0 1.0009 1.87458e-05
958 15.3477 2.26026 1.45436 0 0 1.0009 1.25634e-05
118 15.4062 2.42577 0.124424 0 0 1.0009 1.2666e-05
124 16.2403 2.47139 0.70755 0 0 1.00089 1.24768e-05
1041 16.1545 3.28931 1.51128 0 0 1.0009 1.83829e-05
201 16.2993 3.2792 0.0119953 0 0 1.0009 1.78303e-05
962 16.8973 2.59923 1.53681 0 0 1.00089 1.38512e-05
127 18.2882 1.88429 0.749666 0 0 1.00089 8.92698e-06
203 17.0425 3.32903 0.669416 0 0 1.00089 1.80972e-05
965 17.6278 1.94533 1.56251 0 0 1.00089 9.38853e-06
128 17.6137 2.56468 0.672155 0 0 1.00089 1.30017e-05
1045 17.7972 3.35112 1.50446 0 0 1.00089 1.79853e-05
969 19.0251 1.88228 1.49819 0 0 1.00089 9.59936e-06
207 18.595 3.2551 0.719068 0 0 1.00089 1.69108e-05
966 18.5822 2.74959 1.60255 0 0 1.00089 1.46696e-05
131 19.8807 2 0.841809 0 0 1.0009 9.82621e-06
129 19.2172 1.96135 0.0145814 0 0 1.00089 9.18636e-06
132 19.4247 2.79896 1.01831 0 0 1.0009 1.47199e-05
209 19.5255 3.44919 0.193822 0 0 1.00089 1.82952e-05
130 20.1103 2.78779 0.112493 0 0 1.0009 1.42561e-05
133 20.6769 2.01704 0.202903 0 0 1.0009 1.02475e-05
135 21.4351 2.18389 0.956217 0 0 1.0009 1.14378e-05
973 20.7239 2.29452 1.74436 0 0 1.0009 1.25365e-05
134 21.6677 3.013 0.460903 0 0 1.0009 1.52079e-05
136 20.7479 2.97599 1.07966 0 0 1.0009 1.58397e-05
137 22.3109 2.21588 0.501664 0 0 1.0009 1.15039e-05
139 23.2839 2.69848 1.50454 0 0 1.0009 1.36055e-05
140 22.5452 3.13955 1.22785 0 0 1.0009 1.62839e-05
138 23.4111 3.27459 0.720673 0 0 1.0009 1.54045e-05
64 23.7347 1.84964 1.37987 0 0 1.0009 1.00936e-05
141 24.0204 2.46054 0.617264 0 0 1.0009 1.17469e-05
143 24.7589 2.62477 1.56354 0 0 1.0009 1.25391e-05
142 24.7687 3.33756 0.763065 0 0 1.0009 1.46814e-05
147 26.1976 2.31589 1.35465 0 0 1.0009 1.00796e-05
145 25.424 2.4546 0.531732 0 0 1.00089 1.0968e-05
146 26.1751 3.20726 0.690361 0 0 1.00089 1.25244e-05
148 25.5575 3.21266 1.51603 0 0 1.0009 1.33672e-05
149 26.8055 2.31328 0.507703 0 0 1.0009 8.95945e-06
152 26.8803 3.13502 1.52252 0 0 1.0009 1.14223e-05
151 27.7444 2.44158 1.22047 0 0 1.0009 7.91276e-06
150 27.4312 3.19502 0.623919 0 0 1.0009 1.0174e-05
153 28.5056 2.48366 0.341282 0 0 1.0009 6.83512e-06
156 28.5739 3.15898 1.18628 0 0 1.0009 8.20539e-06
993 28.7202 2.10494 1.50374 0 0 1.0009 6.05925e-06
155 29.651 2.30442 0.875015 0 0 1.0009 4.722e-06
154 29.485 2.99304 0.281787 0 0 1.0009 6.07014e-06
997 30.1679 2.03334 1.69687 0 0 1.0009 3.87491e-06
159 31.1151 2.08556 0.918006 0 0 1.0009 2.12637e-06
160 30.4551 2.89952 0.991242 0 0 1.0009 3.91511e-06
239 31.3589 3.43752 0.966466 0 0 1.0009 3.19273e-06
998 31.2632 2.79232 1.7233 0 0 1.0009 2.72739e-06
237 30.4562 3.45444 0.152834 0 0 1.0009 4.96301e-06
157 30.598 2.07721 0.0330903 0 0 1.0009 2.92297e-06
158 31.4047 2.74175 0.0740308 0 0 1.0009 2.24376e-06
164 0.651892 3.75562 0.910445 0 0 1.0009 6.46824e-06
241 0.560169 4.59862 0.461919 0 0 1.0009 7.00236e-06
243 1.55605 4.50787 0.976157 0 0 1.00089 9.55335e-06
162 1.41036 3.74221 0.0678455 0 0 1.0009 7.96036e-06
244 0.564717 5.2524 1.27186 0 0 1.0009 7.75531e-06
168 2.24887 3.81713 0.849563 0 0 1.00089 1.00565e-05
247 3.00602 4.53813 1.11375 0 0 1.0009 1.32481e-05
166 3.06726 3.82708 0.189849 0 0 1.00089 1.20876e-05
245 2.34493 4.70759 0.276471 0 0 1.00089 1.15024e-05
246 3.19854 5.23792 0.269869 0 0 1.0009 1.46003e-05
249 3.90177 4.43749 0.16943 0 0 1.00089 1.52372e-05
172 3.89985 3.68041 0.881189 0 0 1.0009 1.32242e-05
251 4.58916 4.38538 1.1496 0 0 1.0009 1.69449e-05
170 4.69652 3.70146 0.138923 0 0 1.00089 1.50292e-05
250 4.76464 4.95095 0.312625 0 0 1.00089 1.85109e-05
252 3.67804 5.20697 1.26881 0 0 1.0009 1.6509e-05
253 5.5434 4.18747 0.317316 0 0 1.00089 1.82918e-05
255 6.29367 4.10217 1.01899 0 0 1.0009 1.96733e-05
254 6.39673 4.77859 0.262137 0 0 1.0009 2.19304e-05
256 5.55443 4.85588 1.26586 0 0 1.0009 2.05216e-05
1097 7.27064 3.87416 1.64041 0 0 1.00089 2.08664e-05
260 7.30872 4.49984 0.85244 0 0 1.0009 2.27584e-05
259 8.0297 3.81201 0.570023 0 0 1.0009 2.12474e-05
258 8.03483 4.67003 0.0218004 0 0 1.00089 2.4935e-05
1098 8.14503 4.66983 1.48458 0 0 1.00089 2.5634e-05
1101 8.90916 3.92811 1.46534 0 0 1.00089 2.28726e-05
264 8.97057 4.63221 0.698276 0 0 1.00089 2.62641e-05
263 9.80597 3.93497 0.800711 0 0 1.0009 2.35284e-05
1102 9.89808 4.64219 1.57339 0 0 1.00089 2.82935e-05
262 9.84826 4.80136 0.01526 0 0 1.0009 2.82939e-05
268 10.6431 4.70256 0.796886 0 0 1.00089 2.86804e-05
265 10.5968 3.9486 0.110399 0 0 1.0009 2.39579e-05
1105 10.6405 3.75875 1.65007 0 0 1.0009 2.3389e-05
267 11.4083 4.06656 0.888275 0 0 1.00089 2.4788e-05
1106 11.4595 4.64862 1.74188 0 0 1.00089 2.91122e-05
266 11.4266 4.95787 0.0209811 0 0 1.0009 3.00511e-05
269 12.2118 4.23866 0.207311 0 0 1.00089 2.53769e-05
1109 12.2123 3.92303 1.6832 0 0 1.00089 2.5398e-05
272 12.3502 4.78834 1.00814 0 0 1.00089 2.99088e-05
271 13.0926 4.17253 1.0185 0 0 1.0009 2.63928e-05
270 13.0044 5.14796 0.188614 0 0 1.00089 3.10844e-05
273 13.4878 4.26652 0.0552814 0 0 1.00089 2.53846e-05
1113 13.799 4.61655 1.6991 0 0 1.0009 2.91954e-05
275 14.1585 4.46924 0.770269 0 0 1.0009 2.7566e-05
200 14.8744 3.96514 0.695472 0 0 1.0009 2.33468e-05
1034 14.4012 3.96175 1.58771 0 0 1.0009 2.43161e-05
274 14.3613 5.27373 0.0165196 0 0 1.00089 3.25213e-05
277 15.1136 4.72822 0.0849058 0 0 1.0009 2.75369e-05
1117 15.2499 4.94976 1.51402 0 0 1.0009 3.12875e-05
279 16.0025 5.01709 0.824508 0 0 1.0009 2.99498e-05
198 15.8369 4.14166 0.108071 0 0 1.0009 2.3045e-05
1038 15.9572 4.36507 1.60057 0 0 1.0009 2.5499e-05
204 16.5541 4.12504 0.896137 0 0 1.00089 2.33842e-05
281 16.8306 4.88049 0.156291 0 0 1.0009 2.74312e-05
1121 16.9215 5.14648 1.66001 0 0 1.0009 3.15327e-05
1042 17.252 4.13693 1.67015 0 0 1.00089 2.44543e-05
283 17.5477 4.84008 0.906367 0 0 1.00089 2.76279e-05
208 18.1051 4.10782 0.799065 0 0 1.00089 2.22487e-05
285 18.3522 4.9302 0.0414248 0 0 1.00089 2.7335e-05
1046 18.7497 4.02974 1.64608 0 0 1.00089 2.2818e-05
287 18.9977 4.92165 1.08771 0 0 1.00089 2.81477e-05
206 18.9444 4.23353 0.0784671 0 0 1.00089 2.22064e-05
212 19.6201 4.18267 0.964462 0 0 1.00089 2.25492e-05
289 19.7384 5.13045 0.35424 0 0 1.00089 2.85011e-05
213 21.0165 3.59742 0.321081 0 0 1.0009 1.89704e-05
210 20.3463 4.30809 0.256001 0 0 1.0009 2.28404e-05
211 20.3892 3.76402 1.26962 0 0 1.0009 2.04669e-05
291 20.5554 5.25578 1.12085 0 0 1.0009 2.85408e-05
216 21.1587 4.43986 1.20999 0 0 1.0009 2.32397e-05
214 21.8363 4.63281 0.51203 0 0 1.0009 2.35508e-05
215 21.9542 3.93486 1.3905 0 0 1.0009 1.96619e-05
217 22.5787 3.88625 0.602844 0 0 1.0009 1.97568e-05
16179 23.2936 4.0914 0.0325655 0 0 1.0009 1.90685e-05
220 22.6561 4.8551 1.3031 0 0 1.0009 2.44547e-05
218 23.3481 5.07858 0.544057 0 0 1.0009 2.35404e-05
144 24.1712 3.56222 1.52517 0 0 1.0009 1.66658e-05
219 23.4525 4.31334 1.39744 0 0 1.0009 2.03912e-05
223 25.0138 4.22886 1.55023 0 0 1.00089 1.8065e-05
221 24.1696 4.32567 0.761246 0 0 1.0009 1.92034e-05
222 24.9619 5.06976 0.633812 0 0 1.0009 2.06667e-05
224 24.1856 5.28593 1.33652 0 0 1.0009 2.37942e-05
228 25.652 5.18799 1.56711 0 0 1.00089 1.99674e-05
227 26.2091 4.13339 1.51599 0 0 1.00089 1.54135e-05
229 26.6526 4.099 0.593358 0 0 1.00089 1.40124e-05
225 25.5816 4.29259 0.753037 0 0 1.0009 1.65356e-05
226 26.1215 5.07697 0.42202 0 0 1.0009 1.77201e-05
233 28.3641 3.66917 0.336388 0 0 1.0009 9.50438e-06
232 26.9043 4.90371 1.36898 0 0 1.0009 1.5735e-05
231 27.6325 3.86729 1.40563 0 0 1.0009 1.1536e-05
230 27.556 4.58914 0.57935 0 0 1.0009 1.35277e-05
236 28.4236 4.43707 1.11426 0 0 1.0009 1.12095e-05
235 29.6024 3.56755 1.17796 0 0 1.0009 6.8732e-06
313 28.7673 5.18667 0.689837 0 0 1.0009 1.09535e-05
234 29.3395 4.12931 0.465382 0 0 1.0009 8.08461e-06
315 29.5473 4.8645 1.30551 0 0 1.0009 8.77933e-06
240 30.3933 4.27752 1.02786 0 0 1.0009 5.99791e-06
238 31.404 4.08705 0.350762 0 0 1.0009 3.34971e-06
317 30.6414 4.89178 0.470986 0 0 1.0009 5.35739e-06
319 31.4126 4.70626 1.37898 0 0 1.0009 3.77001e-06
242 1.40025 5.4 0.454487 0 0 1.00089 9.78126e-06
323 1.32547 6.07695 1.27422 0 0 1.00089 1.02849e-05
324 0.799084 6.889 1.47612 0 0 1.00089 9.13084e-06
322 1.51394 6.77909 0.562802 0 0 1.00089 1.12405e-05
321 0.505285 6.00973 0.449547 0 0 1.00089 7.85681e-06
248 2.04537 5.29187 1.35696 0 0 1.00089 1.19083e-05
328 2.26546 6.7493 1.23848 0 0 1.00089 1.38712e-05
325 2.41385 5.92392 0.489348 0 0 1.0009 1.34787e-05
327 2.85082 5.83122 1.37687 0 0 1.00089 1.50782e-05
326 3.06284 6.74718 0.4608 0 0 1.0009 1.68637e-05
332 3.84273 6.49765 1.13868 0 0 1.0009 1.90261e-05
329 3.99111 5.80151 0.465215 0 0 1.0009 1.81408e-05
331 4.73258 5.54481 1.20994 0 0 1.0009 2.02126e-05
330 4.64966 6.45216 0.223949 0 0 1.0009 2.19245e-05
411 4.67003 7.02814 1.1839 0 0 1.0009 2.3216e-05
336 5.471 6.17808 1.14802 0 0 1.0009 2.45035e-05
333 5.48769 5.63765 0.303716 0 0 1.0009 2.24786e-05
335 6.37484 5.52569 0.950628 0 0 1.0009 2.52092e-05
334 6.27898 6.32799 0.144245 0 0 1.0009 2.74084e-05
415 6.2483 6.84003 0.98497 0 0 1.0009 2.86895e-05
413 5.40594 7.00263 0.218625 0 0 1.0009 2.56498e-05
337 7.12515 5.39029 0.131194 0 0 1.0009 2.58635e-05
340 7.23857 6.09619 0.937686 0 0 1.00089 2.99115e-05
1177 7.22408 5.27019 1.59599 0 0 1.0009 2.66246e-05
339 8.10574 5.4031 0.758166 0 0 1.00089 2.86526e-05
1178 8.15306 6.03022 1.58659 0 0 1.00089 3.27899e-05
417 7.32132 6.78958 0.132552 0 0 1.00089 3.27078e-05
419 8.19453 6.89541 0.719366 0 0 1.00089 3.6181e-05
344 8.92375 6.065 0.694305 0 0 1.00089 3.36968e-05
1181 9.09247 5.36129 1.49271 0 0 1.00089 3.12199e-05
343 9.80459 5.4612 0.746683 0 0 1.00089 3.20703e-05
1261 9.0566 6.62835 1.54071 0 0 1.00089 3.85638e-05
23660 14.4836 15.7339 15.2316 4 20 1.00094 0.002
423 9.93005 6.82573 0.664992 0 0 1.00089 4.02443e-05
1182 10.0738 6.17663 1.45842 0 0 1.00089 3.7905e-05
1185 10.7573 5.47498 1.48553 0 0 1.00089 3.44663e-05
345 10.7125 5.58652 0.0778523 0 0 1.0009 3.37385e-05
347 11.5971 5.43216 0.90722 0 0 1.00089 3.33449e-05
346 11.6002 6.327 0.105744 0 0 1.00089 3.97558e-05
1186 11.5985 6.2596 1.48611 0 0 1.00089 4.09893e-05
348 10.862 6.43907 0.723783 0 0 1.00089 3.99727e-05
349 12.3772 5.81967 0.0444537 0 0 1.0009 3.60597e-05
352 12.4568 6.55625 0.800164 0 0 1.0009 4.28974e-05
351 12.8818 5.74576 1.04837 0 0 1.00089 3.70238e-05
1190 13.3679 6.66701 1.3694 0 0 1.0009 4.48859e-05
276 13.7778 5.44596 0.862033 0 0 1.00089 3.41521e-05
1114 14.505 5.59955 1.58066 0 0 1.00089 3.65437e-05
355 14.5581 6.27361 0.78919 0 0 1.0009 4.00788e-05
356 13.9597 6.92065 0.588699 0 0 1.0009 4.54074e-05
280 15.2074 5.56923 0.767581 0 0 1.0009 3.50963e-05
357 15.3262 6.24976 0.0259184 0 0 1.0009 3.90369e-05
1197 15.587 6.48032 1.44318 0 0 1.0009 4.35686e-05
278 16.0954 5.6082 0.0394108 0 0 1.0009 3.32801e-05
359 16.2717 6.48784 0.801306 0 0 1.0009 4.12422e-05
1118 16.3248 5.87234 1.68801 0 0 1.0009 3.79331e-05
361 16.8767 6.45877 0.0483884 0 0 1.0009 3.94469e-05
284 16.9916 5.86045 0.942977 0 0 1.0009 3.53809e-05
363 17.7039 6.73185 1.14567 0 0 1.0009 4.129e-05
282 17.6795 5.68755 0.255017 0 0 1.00089 3.26225e-05
288 18.2064 5.75194 1.22801 0 0 1.00089 3.43264e-05
365 18.281 6.62463 0.38209 0 0 1.00089 3.99281e-05
367 18.8464 6.69711 1.33186 0 0 1.00089 4.1196e-05
286 18.8986 5.7639 0.495351 0 0 1.00089 3.3387e-05
292 19.7843 5.82863 1.19347 0 0 1.0009 3.39066e-05
369 19.5216 6.78407 0.607479 0 0 1.00089 3.98234e-05
295 21.7323 5.43753 1.35216 0 0 1.00089 2.92784e-05
293 21.0421 5.42775 0.356747 0 0 1.0009 2.8474e-05
290 20.4864 6.37257 0.625268 0 0 1.0009 3.56348e-05
294 21.7417 6.52368 0.637982 0 0 1.00089 3.40798e-05
296 21.1679 6.32828 1.37716 0 0 1.0009 3.5245e-05
297 22.4621 5.72171 0.772439 0 0 1.00089 2.87089e-05
299 23.3342 5.96474 1.2855 0 0 1.0009 2.89911e-05
300 22.5953 6.68814 1.35215 0 0 1.00089 3.43343e-05
16260 22.6194 6.54203 0.0455203 0 0 1.00089 3.22287e-05
298 23.5126 6.68488 0.638198 0 0 1.00089 3.04908e-05
301 24.2664 5.86812 0.538405 0 0 1.00089 2.50202e-05
303 25.084 6.08442 1.43847 0 0 1.0009 2.44101e-05
304 24.3112 6.75764 1.27292 0 0 1.00089 2.93788e-05
302 24.9341 6.81763 0.436782 0 0 1.00089 2.7103e-05
305 25.5469 5.98103 0.564193 0 0 1.0009 2.22099e-05
307 26.3555 5.86179 1.35451 0 0 1.0009 2.00966e-05
306 26.3898 6.59835 0.687691 0 0 1.00089 2.12679e-05
308 25.8559 6.82941 1.62571 0 0 1.00089 2.46975e-05
311 27.888 5.43179 1.39667 0 0 1.0009 1.44272e-05
309 27.1031 5.60444 0.6382 0 0 1.0009 1.68365e-05
312 27.3268 6.51999 1.46214 0 0 1.0009 1.82498e-05
310 28.0883 6.10809 0.701834 0 0 1.0009 1.44758e-05
389 27.407 7.0424 0.63011 0 0 1.00089 1.84812e-05
391 28.3027 7.03689 1.37246 0 0 1.00089 1.54061e-05
316 28.9336 5.99515 1.4531 0 0 1.0009 1.22169e-05
314 29.8871 5.63934 0.807694 0 0 1.0009 8.44827e-06
395 29.9854 6.54224 1.30947 0 0 1.0009 9.0928e-06
393 29.0583 6.6927 0.653677 0 0 1.00089 1.23839e-05
16355 29.9197 6.48369 0.0707082 0 0 1.0009 9.31303e-06
16276 29.0087 5.84406 0.0330818 0 0 1.0009 1.10888e-05
318 31.4492 5.47692 0.583864 0 0 1.0009 4.4036e-06
320 30.7163 5.66966 1.43643 0 0 1.0009 6.24789e-06
397 30.9065 6.38928 0.628075 0 0 1.0009 6.06866e-06
399 31.7235 6.2343 1.37325 0 0 1.00089 3.90043e-06
398 31.7437 7.02123 0.601872 0 0 1.00089 3.49087e-06
401 0.822784 7.59836 0.635774 0 0 1.00089 8.90342e-06
402 1.42926 8.32647 0.583675 0 0 1.0009 1.15107e-05
403 1.67063 7.64634 1.46534 0 0 1.00089 1.23588e-05
404 0.909746 8.48066 1.45049 0 0 1.0009 9.3839e-06
478 0.234508 8.65948 0.396661 0 0 1.0009 6.78323e-06
479 0.053449 7.89772 1.28298 0 0 1.00089 6.39405e-06
405 2.17451 7.50625 0.387231 0 0 1.0009 1.37969e-05
408 2.32744 8.2984 1.4486 0 0 1.0009 1.56947e-05
406 2.81962 8.23616 0.39066 0 0 1.0009 1.76008e-05
407 3.01382 7.41868 1.27321 0 0 1.0009 1.75407e-05
412 3.68092 8.00727 0.930823 0 0 1.0009 2.15181e-05
409 3.88049 7.24577 0.326438 0 0 1.0009 2.05775e-05
410 4.49973 7.85338 0.0543656 0 0 1.0009 2.4272e-05
491 4.6067 8.44283 0.843482 0 0 1.0009 2.62277e-05
1250 4.51868 7.74041 1.75538 0 0 1.0009 2.56476e-05
1329 3.87143 8.65838 1.66879 0 0 1.0009 2.34896e-05
1333 5.431 8.28565 1.61572 0 0 1.0009 3.12364e-05
416 5.42828 7.57302 0.947414 0 0 1.0009 2.80684e-05
414 6.6626 7.55555 0.202676 0 0 1.0009 3.24344e-05
495 6.08518 8.17164 0.619771 0 0 1.0009 3.25469e-05
1337 6.98722 8.1695 1.22733 0 0 1.0009 3.8089e-05
420 7.25994 7.33013 1.04803 0 0 1.0009 3.44426e-05
1258 8.20153 7.23943 1.66986 0 0 1.0009 3.84218e-05
499 8.03813 7.96455 0.72225 0 0 1.0009 3.99167e-05
1338 8.02151 8.76655 1.18112 0 0 1.0009 4.50317e-05
424 9.22073 7.43883 0.859014 0 0 1.00089 4.21267e-05
501 9.05417 8.12934 0.0667448 0 0 1.0009 4.46063e-05
1341 9.00454 8.2048 1.37901 0 0 1.00089 4.67079e-05
503 9.95909 8.49132 0.69721 0 0 1.00089 5.08279e-05
1262 10.117 7.73886 1.41405 0 0 1.00089 4.8017e-05
1265 10.8243 7.04768 1.57427 0 0 1.00089 4.54299e-05
428 10.8411 7.79296 0.695235 0 0 1.00089 4.90513e-05
427 11.7211 7.20976 0.816808 0 0 1.00089 4.66558e-05
426 11.5439 8.07898 0.00209891 0 0 1.00089 5.15329e-05
1345 10.9339 8.62814 1.39648 0 0 1.00089 5.62269e-05
1266 11.7838 7.97117 1.42812 0 0 1.00089 5.41138e-05
429 12.4032 7.4614 0.0271631 0 0 1.00089 4.87026e-05
432 12.5407 8.16266 0.716304 0 0 1.00089 5.46074e-05
1269 12.6158 7.19051 1.55857 0 0 1.00089 4.9987e-05
1270 13.361 8.12521 1.50385 0 0 1.00089 5.71765e-05
431 13.409 7.69363 0.597832 0 0 1.00089 5.07395e-05
1273 14.1696 7.60458 1.47753 0 0 1.0009 5.43263e-05
435 14.9176 7.86531 0.530143 0 0 1.0009 5.24119e-05
1194 14.8208 7.04827 1.3932 0 0 1.0009 4.71012e-05
1274 15.0446 8.62842 1.57106 0 0 1.0009 6.29988e-05
436 14.2444 8.53908 0.77718 0 0 1.00089 5.87968e-05
360 15.5972 7.22355 0.644073 0 0 1.0009 4.73584e-05
1277 15.6463 7.99902 1.38432 0 0 1.0009 5.51554e-05
439 16.4582 8.30016 0.881913 0 0 1.0009 5.52901e-05
1198 16.5123 7.58026 1.67249 0 0 1.0009 5.19779e-05
437 15.805 8.31794 0.0206835 0 0 1.0009 5.48765e-05
364 16.9234 7.4061 0.865963 0 0 1.0009 4.64716e-05
441 17.1514 8.46148 0.143805 0 0 1.0009 5.39454e-05
443 17.626 8.41767 1.08361 0 0 1.0009 5.48773e-05
362 17.7199 7.46964 0.296643 0 0 1.0009 4.62321e-05
368 18.317 7.711 1.08947 0 0 1.0009 4.8469e-05
445 18.3508 8.53355 0.287196 0 0 1.0009 5.40484e-05
447 19.0134 8.5921 1.02775 0 0 1.00089 5.30578e-05
366 19.0733 7.70386 0.224572 0 0 1.0009 4.6326e-05
372 19.5238 7.64685 1.15876 0 0 1.00089 4.77638e-05
370 20.2142 8.01962 0.612357 0 0 1.00089 4.61775e-05
371 20.4527 7.25397 1.34654 0 0 1.0009 4.26729e-05
373 21.0934 7.48489 0.599533 0 0 1.00089 4.10641e-05
376 21.0692 8.46821 1.3143 0 0 1.00089 4.85116e-05
374 21.7978 8.32485 0.610377 0 0 1.00089 4.44714e-05
375 21.8319 7.44675 1.30471 0 0 1.00089 4.0669e-05
377 22.6299 7.55229 0.669614 0 0 1.00089 3.78726e-05
380 22.6043 8.61749 1.13663 0 0 1.00089 4.38797e-05
378 23.3337 8.41353 0.391995 0 0 1.00089 3.87297e-05
379 23.5551 7.59687 1.20391 0 0 1.00089 3.57608e-05
381 24.2244 7.65208 0.295618 0 0 1.00089 3.25607e-05
384 24.3422 8.29779 1.07851 0 0 1.00089 3.49303e-05
383 25.1354 7.46049 1.183 0 0 1.00089 2.89185e-05
382 25.1377 8.23357 0.297963 0 0 1.00089 3.06382e-05
387 26.5915 7.4004 1.40825 0 0 1.00089 2.31776e-05
385 25.9005 7.5209 0.494637 0 0 1.00089 2.52714e-05
388 25.9135 8.27836 1.23419 0 0 1.00089 2.79948e-05
386 26.787 8.05356 0.382479 0 0 1.00089 2.34239e-05
390 28.3433 7.60446 0.516345 0 0 1.00089 1.57615e-05
392 27.4939 7.85944 1.31545 0 0 1.00089 2.03275e-05
469 27.6741 8.51736 0.431484 0 0 1.0009 1.99397e-05
471 28.4539 8.46034 1.20923 0 0 1.00089 1.68228e-05
396 29.2408 7.58006 1.23392 0 0 1.0009 1.25836e-05
475 30.0917 8.05617 1.27914 0 0 1.00089 9.44834e-06
473 29.2984 8.2243 0.416677 0 0 1.00089 1.2507e-05
394 30.1394 7.28471 0.504174 0 0 1.0009 8.95564e-06
474 30.1677 8.76389 0.532107 0 0 1.00089 9.29394e-06
400 30.879 7.30196 1.18033 0 0 1.00089 6.1649e-06
480 30.988 8.71404 1.19124 0 0 1.00089 5.99221e-06
477 31.1836 8.05166 0.388279 0 0 1.00089 5.26096e-06
482 1.63587 10.0525 0.253237 0 0 1.00089 1.23539e-05
483 1.57617 9.16483 1.18053 0 0 1.0009 1.22539e-05
484 0.780673 9.88933 0.912663 0 0 1.00089 8.55525e-06
481 0.898434 9.26813 0.124859 0 0 1.00089 9.27278e-06
1322 1.35826 9.95118 1.73434 0 0 1.0009 1.12826e-05
559 0.0447796 9.3662 1.13541 0 0 1.0009 5.79676e-06
485 2.31291 9.12223 0.423274 0 0 1.00089 1.55335e-05
488 2.35936 9.97748 0.976034 0 0 1.0009 1.57861e-05
486 3.14291 9.77302 0.0814352 0 0 1.0009 1.96527e-05
487 2.97396 8.98953 1.18843 0 0 1.0009 1.87005e-05
1326 3.33382 9.67971 1.65966 0 0 1.0009 2.12615e-05
567 3.09757 10.4749 0.718534 0 0 1.0009 1.97721e-05
489 3.68762 8.80289 0.0986522 0 0 1.0009 2.19639e-05
492 3.97511 9.42939 0.744749 0 0 1.0009 2.38294e-05
1330 4.79925 9.21288 1.56776 0 0 1.00089 2.91464e-05
1409 4.1104 10.1373 1.432 0 0 1.0009 2.55173e-05
571 4.68133 10.1707 0.511895 0 0 1.0009 2.83582e-05
496 5.27572 9.22334 0.574035 0 0 1.0009 3.10245e-05
1334 6.09215 8.97209 1.18072 0 0 1.0009 3.55251e-05
575 6.09969 9.81525 0.449808 0 0 1.0009 3.67525e-05
1413 5.45369 9.94877 1.44946 0 0 1.0009 3.41043e-05
1414 6.20604 10.4517 1.21208 0 0 1.0009 3.86294e-05
500 7.01663 8.88489 0.50468 0 0 1.0009 3.93085e-05
1417 7.03139 9.56348 1.19869 0 0 1.00089 4.23765e-05
579 7.7646 9.64551 0.465576 0 0 1.0009 4.61583e-05
580 6.88726 10.443 0.378435 0 0 1.0009 4.27733e-05
1418 7.81689 10.4359 1.11366 0 0 1.00089 5.02508e-05
1421 8.61513 9.58322 1.32251 0 0 1.00089 5.18445e-05
504 8.90614 8.9569 0.566859 0 0 1.00089 4.90996e-05
1342 9.75979 9.16969 1.3837 0 0 1.00089 5.51886e-05
583 9.71243 9.8659 0.662616 0 0 1.00089 5.73503e-05
584 8.7566 10.3411 0.676969 0 0 1.0009 5.39544e-05
508 10.6759 9.36015 0.665486 0 0 1.00089 5.87305e-05
507 11.6121 8.85177 0.665121 0 0 1.00089 5.79481e-05
1425 10.6824 10.0526 1.37451 0 0 1.00089 6.58871e-05
587 11.3887 10.1898 0.663817 0 0 1.0009 6.6606e-05
1346 11.7854 9.29121 1.59965 0 0 1.00089 6.40445e-05
512 12.3249 9.74057 0.720271 0 0 1.0009 6.59892e-05
1349 12.607 8.87772 1.36483 0 0 1.00089 6.21059e-05
511 13.3167 9.17709 0.690084 0 0 1.00089 6.32603e-05
1350 13.2307 9.85155 1.58316 0 0 1.00089 7.19429e-05
510 12.944 10.0058 0.0354299 0 0 1.00089 6.80157e-05
1429 12.3522 10.3716 1.51054 0 0 1.0009 7.35241e-05
1353 13.9562 9.0967 1.6157 0 0 1.00089 6.74542e-05
516 14.0291 9.99779 0.94309 0 0 1.00089 7.00554e-05
515 14.8303 9.39511 0.861611 0 0 1.0009 6.55123e-05
1354 14.83 10.104 1.69796 0 0 1.0009 7.54274e-05
514 14.6136 10.2955 0.0407086 0 0 1.00089 7.15692e-05
517 15.5427 9.92159 0.214269 0 0 1.0009 6.75987e-05
440 15.7764 9.04648 0.805135 0 0 1.0009 6.16295e-05
519 16.4317 9.92367 1.02273 0 0 1.0009 6.86694e-05
438 16.5396 9.24976 0.134694 0 0 1.0009 6.01605e-05
520 15.4846 10.5522 1.02834 0 0 1.00089 7.33756e-05
521 16.9429 10.2947 0.224483 0 0 1.00089 6.77032e-05
444 17.2359 9.35528 1.133 0 0 1.0009 6.28638e-05
523 17.769 10.3176 0.972272 0 0 1.0009 6.85679e-05
442 17.762 9.40155 0.259872 0 0 1.0009 6.04913e-05
448 18.4097 9.49089 1.08414 0 0 1.00089 6.11003e-05
525 18.3952 10.5202 0.173605 0 0 1.0009 6.58791e-05
449 19.6845 8.85782 0.218514 0 0 1.00089 5.14573e-05
527 18.9817 10.4849 1.077 0 0 1.00089 6.56715e-05
446 19.0033 9.69016 0.114436 0 0 1.0009 5.85907e-05
452 19.5749 9.63859 0.956203 0 0 1.00089 6.02417e-05
529 19.7544 10.5416 0.310149 0 0 1.00089 6.27937e-05
1369 19.8875 10.432 1.71284 0 0 1.00089 6.72045e-05
451 20.1965 8.91109 1.18368 0 0 1.00089 5.41563e-05
453 20.9636 8.96084 0.37938 0 0 1.00089 5.08955e-05
450 20.4091 9.7971 0.22617 0 0 1.00089 5.68954e-05
456 20.9974 9.8989 1.03366 0 0 1.00089 5.6369e-05
455 21.791 9.36907 1.0555 0 0 1.00089 5.074e-05
454 21.8294 10.0572 0.215856 0 0 1.00089 5.15583e-05
457 22.6359 9.32612 0.267685 0 0 1.00089 4.52396e-05
460 22.6413 10.1103 0.977275 0 0 1.00089 4.98653e-05
1298 23.4232 10.0363 1.6361 0 0 1.00089 4.74587e-05
459 23.5385 9.23394 1.01343 0 0 1.00089 4.22969e-05
461 24.3524 9.08269 0.34529 0 0 1.00089 3.67412e-05
458 23.6288 9.9958 0.217111 0 0 1.00089 4.33662e-05
464 24.3365 10.0188 0.981471 0 0 1.00089 4.05916e-05