ITEM: TIMESTEP
41500
ITEM: NUMBER OF ATOMS
32000
ITEM: BOX BOUNDS pp pp pp
0.0000000000000000e+00 3.1748021039364001e+01
0.0000000000000000e+00 3.1748021039364001e+01
0.0000000000000000e+00 3.1748021039364001e+01
ITEM: ATOMS id x y z c_phase c_nbond c_rho v_omega
4 0.253592 1.10165 0.464138 0 0 1.00099 -4.64084e-07
83 1.18838 1.53963 0.773708 0 0 1.00099 1.37612e-06
842 0.821706 0.701881 1.39612 0 0 1.00099 1.32968e-07
921 0.229238 1.61687 1.37522 0 0 1.00099 1.6916e-07
8 1.81428 0.607642 1.00687 0 0 1.00099 1.00783e-06
85 2.00647 1.25013 0.197385 0 0 1.00099 2.1772e-06
925 2.05273 1.39485 1.72975 0 0 1.00099 2.45352e-06
6 2.6034 0.414351 0.182011 0 0 1.00099 1.60296e-06
87 2.85342 1.19338 0.852308 0 0 1.00099 3.17035e-06
846 2.77601 0.476022 1.7173 0 0 1.00099 1.83941e-06
12 3.53735 0.476657 0.942909 0 0 1.00099 2.7042e-06
929 3.84357 1.23421 1.68047 0 0 1.00099 4.39966e-06
10 4.21787 0.345078 0.294165 0 0 1.00099 2.82991e-06
850 4.43517 0.391621 1.61474 0 0 1.00099 3.51153e-06
91 4.27877 1.3068 0.706043 0 0 1.00099 5.16066e-06
93 5.16069 1.00998 0.361964 0 0 1.001 5.10642e-06
14 5.73766 0.0219412 0.286147 0 0 1.00099 3.1631e-06
95 6.07787 0.665036 0.942884 0 0 1.001 4.74532e-06
933 5.26554 1.07454 1.42926 0 0 1.001 5.58485e-06
934 6.20783 1.53176 1.47335 0 0 1.001 7.37202e-06
97 6.78862 0.73012 0.206873 0 0 1.001 5.09382e-06
937 6.83349 0.326471 1.67979 0 0 1.00099 4.11895e-06
99 7.56398 0.533139 0.940451 0 0 1.00099 4.86916e-06
938 7.68074 1.33113 1.55123 0 0 1.00099 7.77855e-06
100 6.93688 1.48644 0.777199 0 0 1.00099 7.7476e-06
98 7.85075 1.50573 0.120749 0 0 1.00099 8.08711e-06
941 8.37812 0.534265 1.61094 0 0 1.00099 5.40338e-06
101 8.49315 0.696331 0.212642 0 0 1.00099 5.44132e-06
103 9.24946 0.624633 1.07088 0 0 1.00099 5.20158e-06
945 9.79327 0.308502 1.74918 0 0 1.00099 3.62261e-06
105 9.89829 0.690497 0.110968 0 0 1.00099 4.99522e-06
102 9.3401 1.41337 0.226013 0 0 1.00099 8.14751e-06
104 8.53048 1.45468 0.930816 0 0 1.00099 8.31045e-06
942 9.51324 1.47616 1.72029 0 0 1.00099 9.17243e-06
108 10.2124 1.35649 1.07124 0 0 1.00099 7.97527e-06
107 10.5886 0.448567 0.834558 0 0 1.00099 4.05044e-06
949 11.5354 0.463062 1.41134 0 0 1.00099 3.90515e-06
946 10.982 1.09587 1.72078 0 0 1.001 7.21859e-06
112 11.6258 1.29935 0.779192 0 0 1.00099 7.92767e-06
106 10.7696 1.4741 0.181895 0 0 1.00099 8.46926e-06
111 12.2936 0.620507 0.518646 0 0 1.00099 4.19155e-06
953 13.0394 0.778054 1.37212 0 0 1.00099 4.65214e-06
950 12.438 1.45288 1.45264 0 0 1.001 8.44143e-06
116 13.2248 1.57911 0.611149 0 0 1.001 8.6974e-06
40 14.4722 0.156191 0.781882 0 0 1.00099 9.91645e-07
115 13.8892 0.86264 0.823738 0 0 1.00099 4.5009e-06
117 14.5037 1.31775 0.132686 0 0 1.00099 6.66406e-06
874 13.6985 0.0612954 1.62891 0 0 1.00099 8.23277e-07
957 14.7043 1.02446 1.48123 0 0 1.00099 5.18541e-06
954 13.951 1.71412 1.45857 0 0 1.001 8.96311e-06
119 15.3255 1.46692 0.665895 0 0 1.00099 7.14166e-06
44 15.9486 0.768851 0.789064 0 0 1.00099 3.31242e-06
878 15.2731 0.40844 1.63342 0 0 1.00099 1.20952e-06
961 16.0835 1.51725 1.42023 0 0 1.00099 7.57652e-06
38 15.2873 0.622686 0.0700653 0 0 1.00099 2.34857e-06
882 16.7663 0.849952 1.35434 0 0 1.00099 3.42419e-06
123 17.0086 1.7215 0.69881 0 0 1.00099 8.38368e-06
48 17.5025 0.975791 0.566684 0 0 1.00099 4.20774e-06
886 18.1753 1.10366 1.42582 0 0 1.00099 5.44382e-06
47 18.1816 0.287811 0.694308 0 0 1.00099 1.5007e-06
885 17.3045 0.0752845 1.40165 0 0 1.00099 -1.59641e-07
51 19.5912 0.507813 0.686327 0 0 1.00099 3.15844e-06
52 19.0267 1.19521 0.700528 0 0 1.00099 6.29918e-06
889 19.0789 0.625578 1.56024 0 0 1.00099 2.83886e-06
890 19.948 1.51693 1.69902 0 0 1.00099 9.08042e-06
55 21.2803 1.00256 1.08505 0 0 1.001 6.37738e-06
56 20.5028 1.36899 0.949378 0 0 1.001 7.91591e-06
54 21.4406 1.4523 0.209054 0 0 1.001 9.30982e-06
893 20.4673 0.496469 1.41791 0 0 1.001 4.42064e-06
53 20.3137 0.483972 0.062686 0 0 1.00099 4.55232e-06
17534 20.9754 0.0533329 0.256861 0 0 1.001 2.32238e-06
57 22.1699 1.01453 0.542137 0 0 1.001 7.43253e-06
59 22.9957 1.17249 1.4068 0 0 1.001 8.22312e-06
17538 22.7742 0.304131 0.458022 0 0 1.00099 4.2923e-06
17540 21.7807 0.104852 0.862707 0 0 1.001 3.35158e-06
63 24.4349 1.13934 1.40687 0 0 1.00099 8.55791e-06
61 23.7202 1.08993 0.557587 0 0 1.00099 8.15428e-06
17544 23.5454 0.259167 1.24423 0 0 1.00099 4.94096e-06
17542 24.3567 0.238264 0.586492 0 0 1.00099 5.21381e-06
65 25.109 1.03993 0.518537 0 0 1.00099 8.11121e-06
67 26.1213 1.05299 1.15294 0 0 1.00099 7.55833e-06
66 26.1229 1.65694 0.413391 0 0 1.00099 9.4392e-06
17548 25.2069 0.482434 1.34389 0 0 1.00099 6.26316e-06
17546 25.9263 0.200277 0.331639 0 0 1.00099 5.34387e-06
71 27.7357 1.04456 0.866043 0 0 1.00099 6.44998e-06
72 26.9633 1.66497 1.24159 0 0 1.00099 8.57336e-06
69 26.8834 0.868515 0.243937 0 0 1.00099 6.74874e-06
17552 27.1049 0.268505 0.999783 0 0 1.00099 4.96457e-06
17556 28.364 0.142832 0.730405 0 0 1.00099 3.822e-06
913 28.4813 0.820545 1.41535 0 0 1.00099 5.0505e-06
76 28.8505 1.66077 0.726008 0 0 1.00099 6.17489e-06
914 29.5376 1.31791 1.56121 0 0 1.00099 4.82702e-06
917 29.8685 0.454334 1.45011 0 0 1.00099 2.96431e-06
75 29.3493 0.703856 0.614934 0 0 1.00099 3.87402e-06
841 31.6264 0.308069 1.25308 0 0 1.00099 6.58477e-07
79 30.7895 0.636745 0.476651 0 0 1.00099 2.11639e-06
80 30.2738 1.43636 0.765329 0 0 1.00099 3.84361e-06
918 31.001 1.11597 1.37454 0 0 1.00099 2.5027e-06
82 1.42481 2.27724 0.102227 0 0 1.00099 2.64125e-06
84 0.453051 2.3705 0.797199 0 0 1.00099 1.23731e-06
922 1.44864 2.19412 1.57773 0 0 1.00099 2.78613e-06
1001 0.772999 2.98754 1.54378 0 0 1.00099 2.30782e-06
161 0.726738 3.067 0.11776 0 0 1.00099 2.19709e-06
163 1.68589 3.01422 0.926043 0 0 1.00099 4.09036e-06
88 2.22907 2.1372 0.773996 0 0 1.00099 3.66869e-06
167 3.09204 2.88475 0.842367 0 0 1.00099 6.48594e-06
926 2.9894 1.86808 1.52789 0 0 1.00099 4.62578e-06
86 3.04585 2.0153 0.0405142 0 0 1.00099 4.79864e-06
1005 2.50367 2.77802 1.73026 0 0 1.00099 5.19321e-06
1009 3.75177 2.90641 1.63112 0 0 1.00099 7.96753e-06
92 3.74272 2.09125 0.774566 0 0 1.00099 6.10675e-06
171 4.67164 2.74718 0.751777 0 0 1.00099 8.60886e-06
930 4.54529 2.07826 1.57394 0 0 1.00099 7.17412e-06
96 5.29859 1.93873 0.813216 0 0 1.00099 7.7115e-06
94 6.0471 1.77357 0.138235 0 0 1.001 7.91505e-06
175 6.18816 2.4996 0.943795 0 0 1.00099 1.03531e-05
173 5.48477 2.66632 0.0158368 0 0 1.00099 9.81012e-06
174 6.38746 3.19416 0.148784 0 0 1.00099 1.27989e-05
176 5.52697 3.33633 1.10971 0 0 1.00099 1.18583e-05
1017 7.08844 2.30711 1.52745 0 0 1.00099 1.07867e-05
177 7.12671 2.22695 0.106263 0 0 1.00099 1.0101e-05
179 7.97085 2.29219 0.867441 0 0 1.00099 1.13383e-05
180 7.17188 3.02152 0.779323 0 0 1.00099 1.32049e-05
1018 8.1535 3.04926 1.48985 0 0 1.00099 1.47629e-05
1021 8.79233 2.21463 1.62226 0 0 1.00099 1.18159e-05
181 8.85784 2.22751 0.0252781 0 0 1.00099 1.12239e-05
183 9.56185 2.22383 0.925468 0 0 1.00099 1.21395e-05
1022 9.89921 2.98122 1.4928 0 0 1.00099 1.67691e-05
184 8.97283 3.05802 0.692305 0 0 1.00099 1.5099e-05
182 9.80818 3.11182 0.0318778 0 0 1.00099 1.63326e-05
185 10.2219 2.23339 0.194796 0 0 1.00099 1.22099e-05
188 10.6846 2.88916 0.858254 0 0 1.001 1.58178e-05
187 11.2856 2.17138 0.91435 0 0 1.001 1.19929e-05
1026 11.5705 2.96185 1.5902 0 0 1.00099 1.68117e-05
186 11.495 3.16961 0.161341 0 0 1.00099 1.70334e-05
1025 10.7082 2.0299 1.73907 0 0 1.001 1.17203e-05
1029 12.1876 2.30384 1.61122 0 0 1.001 1.38683e-05
192 12.3125 3.08102 0.823345 0 0 1.00099 1.78329e-05
191 12.6463 2.20775 0.74902 0 0 1.001 1.33646e-05
196 13.4093 3.21479 0.817609 0 0 1.001 1.89998e-05
1033 13.6958 2.60453 1.69496 0 0 1.001 1.46295e-05
195 14.0827 2.74667 0.843244 0 0 1.001 1.57755e-05
120 14.7386 2.22789 0.916068 0 0 1.00099 1.18133e-05
1037 15.0346 3.15816 1.55191 0 0 1.001 1.77456e-05
197 15.0326 3.0489 0.0390084 0 0 1.00099 1.65915e-05
114 14.054 2.01357 0.0277985 0 0 1.00099 1.14854e-05
194 14.2423 3.42448 0.0360938 0 0 1.00099 1.96577e-05
199 15.7239 3.3352 0.863782 0 0 1.001 1.87825e-05
958 15.529 2.26397 1.46273 0 0 1.00099 1.28466e-05
118 15.5841 2.40334 0.115726 0 0 1.00099 1.26695e-05
124 16.4114 2.4847 0.711421 0 0 1.00099 1.30204e-05
1041 16.3917 3.32117 1.51381 0 0 1.00099 1.88891e-05
201 16.5228 3.29118 0.000579215 0 0 1.00099 1.8295e-05
962 17.0841 2.64153 1.5443 0 0 1.00099 1.45652e-05
203 17.2701 3.37587 0.663914 0 0 1.00099 1.92337e-05
965 17.7639 1.99609 1.56407 0 0 1.00099 9.96996e-06
128 17.7914 2.62764 0.665316 0 0 1.00099 1.42108e-05
1045 18.0124 3.42108 1.50263 0 0 1.00099 1.90844e-05
127 18.4208 1.96946 0.745656 0 0 1.00099 1.02526e-05
969 19.1577 1.98557 1.49649 0 0 1.00099 1.11092e-05
207 18.7982 3.34569 0.7204 0 0 1.00099 1.85056e-05
966 18.7656 2.83866 1.60959 0 0 1.00099 1.60059e-05
131 20.0042 2.12002 0.842097 0 0 1.00099 1.15116e-05
129 19.3474 2.06272 0.0223631 0 0 1.00099 1.08867e-05
132 19.6094 2.92843 1.02398 0 0 1.00099 1.66911e-05
130 20.2851 2.91318 0.113331 0 0 1.00099 1.64168e-05
133 20.8043 2.15344 0.201901 0 0 1.00099 1.233e-05
135 21.5605 2.32303 0.952355 0 0 1.001 1.32446e-05
973 20.8678 2.43357 1.74462 0 0 1.001 1.43037e-05
136 20.9274 3.11404 1.06779 0 0 1.001 1.78535e-05
58 23.1839 1.82322 0.475003 0 0 1.001 1.09627e-05
134 21.8423 3.17664 0.4651 0 0 1.001 1.76919e-05
60 22.4771 1.93135 1.3301 0 0 1.001 1.18818e-05
137 22.4314 2.38065 0.490881 0 0 1.001 1.37287e-05
140 22.7017 3.31224 1.22042 0 0 1.001 1.85897e-05
139 23.4316 2.87147 1.50129 0 0 1.001 1.55574e-05
62 24.723 1.93037 0.723086 0 0 1.00099 1.1012e-05
138 23.5668 3.45766 0.716434 0 0 1.001 1.78172e-05
64 23.8366 2.0087 1.37093 0 0 1.00099 1.18202e-05
141 24.1309 2.63535 0.615533 0 0 1.00099 1.38815e-05
143 24.8841 2.79262 1.54907 0 0 1.00099 1.43786e-05
142 24.9167 3.51046 0.755239 0 0 1.00099 1.68574e-05
68 25.4523 1.8834 1.4329 0 0 1.00099 1.06702e-05
147 26.3019 2.46943 1.35393 0 0 1.00099 1.18338e-05
145 25.5351 2.61179 0.535716 0 0 1.00099 1.29135e-05
146 26.3102 3.36378 0.684637 0 0 1.00099 1.45187e-05
148 25.6944 3.38735 1.51278 0 0 1.00099 1.5337e-05
70 27.8289 1.83233 0.376944 0 0 1.00099 7.97946e-06
149 26.9052 2.44774 0.50397 0 0 1.00099 1.07223e-05
152 27.0041 3.2843 1.51934 0 0 1.00099 1.3182e-05
151 27.8351 2.55724 1.21473 0 0 1.00099 9.47993e-06
150 27.553 3.32334 0.616901 0 0 1.00099 1.20293e-05
153 28.6006 2.58114 0.338474 0 0 1.00099 8.47802e-06
156 28.6856 3.25818 1.17917 0 0 1.00099 9.80841e-06
993 28.7994 2.20113 1.50315 0 0 1.00099 7.4873e-06
155 29.7275 2.36624 0.869777 0 0 1.00099 6.26255e-06
154 29.5892 3.07148 0.277545 0 0 1.001 7.74835e-06
997 30.2464 2.08508 1.69105 0 0 1.00099 5.20128e-06
159 31.1901 2.10182 0.913083 0 0 1.00099 3.55856e-06
160 30.5489 2.9367 0.986077 0 0 1.00099 5.41852e-06
239 31.4685 3.44629 0.959882 0 0 1.001 4.73817e-06
998 31.3569 2.8057 1.71894 0 0 1.00099 4.11355e-06
237 30.5712 3.49663 0.152527 0 0 1.001 6.63508e-06
157 30.6698 2.11399 0.0322612 0 0 1.001 4.48377e-06
158 31.4952 2.74941 0.0697657 0 0 1.00099 3.82824e-06
164 0.766087 3.73287 0.902385 0 0 1.00099 2.85172e-06
241 0.69193 4.58298 0.451062 0 0 1.00099 3.25432e-06
162 1.52949 3.69532 0.0640006 0 0 1.00099 4.17808e-06
244 0.711571 5.22848 1.26622 0 0 1.00099 4.02545e-06
1081 1.01297 4.31386 1.75698 0 0 1.00099 3.86187e-06
243 1.68588 4.44532 0.967436 0 0 1.00099 5.68789e-06
168 2.3749 3.73816 0.845649 0 0 1.00099 6.20429e-06
247 3.15047 4.43486 1.10269 0 0 1.00099 9.2032e-06
166 3.19777 3.72515 0.178397 0 0 1.00099 8.06291e-06
245 2.48266 4.61868 0.268792 0 0 1.00099 7.46041e-06
248 2.20268 5.21222 1.34447 0 0 1.00099 7.95732e-06
1006 3.02651 3.71433 1.75801 0 0 1.00099 7.98541e-06
246 3.3563 5.11994 0.261985 0 0 1.00099 1.03359e-05
249 4.05367 4.3079 0.165411 0 0 1.00099 1.09939e-05
172 4.02403 3.56068 0.873587 0 0 1.00099 9.13789e-06
251 4.75293 4.23629 1.14159 0 0 1.00099 1.26731e-05
170 4.83157 3.55941 0.129904 0 0 1.00099 1.08245e-05
250 4.93926 4.79746 0.299937 0 0 1.00099 1.40884e-05
252 3.85246 5.07451 1.25267 0 0 1.00099 1.22696e-05
253 5.7055 4.02549 0.304929 0 0 1.00099 1.39143e-05
255 6.47183 3.92333 1.00535 0 0 1.00099 1.52604e-05
254 6.58437 4.5981 0.241583 0 0 1.00099 1.73591e-05
256 5.73984 4.6878 1.24373 0 0 1.00099 1.60602e-05
1097 7.44658 3.69507 1.62897 0 0 1.00099 1.66038e-05
260 7.4988 4.32419 0.838063 0 0 1.00099 1.83423e-05
259 8.21485 3.63363 0.56865 0 0 1.00099 1.71237e-05
258 8.24611 4.48003 0.0092544 0 0 1.00099 2.04206e-05
1098 8.36278 4.46741 1.47038 0 0 1.00099 2.10956e-05
1177 7.45096 5.07025 1.58855 0 0 1.00099 2.19574e-05
337 7.34648 5.201 0.116645 0 0 1.00099 2.11112e-05
339 8.34151 5.19936 0.749258 0 0 1.00099 2.38784e-05
1101 9.11593 3.74414 1.45096 0 0 1.00099 1.88265e-05
264 9.19734 4.44849 0.690753 0 0 1.00099 2.20494e-05
263 10.023 3.76863 0.788034 0 0 1.00099 1.98135e-05
1181 9.34596 5.15811 1.48237 0 0 1.00099 2.66259e-05
262 10.1033 4.62473 0.00427734 0 0 1.00099 2.42535e-05
1102 10.1471 4.46226 1.56192 0 0 1.00099 2.41157e-05
268 10.9019 4.54232 0.789463 0 0 1.00099 2.51143e-05
265 10.8193 3.80268 0.0933754 0 0 1.00099 2.08112e-05
1105 10.8616 3.61097 1.63665 0 0 1.00099 2.00685e-05
267 11.6526 3.91703 0.877799 0 0 1.00099 2.17445e-05
266 11.7058 4.79945 0.0160785 0 0 1.00099 2.64963e-05
343 10.0789 5.27118 0.744514 0 0 1.00099 2.77088e-05
1106 11.738 4.51133 1.72884 0 0 1.00099 2.58899e-05
269 12.464 4.13004 0.20117 0 0 1.00099 2.30701e-05
1109 12.4619 3.81041 1.67284 0 0 1.00099 2.29769e-05
272 12.6334 4.67439 1.00139 0 0 1.00099 2.72358e-05
271 13.3783 4.08912 1.03005 0 0 1.00099 2.48765e-05
270 13.3007 5.03975 0.186125 0 0 1.00099 2.83807e-05
273 13.7364 4.1836 0.0487119 0 0 1.00099 2.3724e-05
1113 14.1035 4.54542 1.70523 0 0 1.00099 2.76328e-05
275 14.4324 4.42767 0.758003 0 0 1.00099 2.67995e-05
1034 14.6734 3.90618 1.58567 0 0 1.001 2.33258e-05
8246 12.4896 15.8653 14.6331 4 19 1.00104 0.002
200 15.1456 3.94556 0.692024 0 0 1.001 2.33462e-05
277 15.4009 4.70082 0.0845907 0 0 1.001 2.72332e-05
1117 15.5496 4.92035 1.50002 0 0 1.001 3.05507e-05
279 16.3239 5.04305 0.830438 0 0 1.001 3.04783e-05
198 16.1017 4.14232 0.105603 0 0 1.001 2.31664e-05
1038 16.2482 4.36835 1.60347 0 0 1.001 2.52717e-05
204 16.8219 4.1587 0.885185 0 0 1.00099 2.40434e-05
281 17.1136 4.9291 0.138297 0 0 1.00099 2.8337e-05
1121 17.2438 5.19739 1.66724 0 0 1.00099 3.21075e-05
1042 17.5315 4.20534 1.66271 0 0 1.00099 2.5593e-05
283 17.8294 4.93336 0.900161 0 0 1.00099 2.91886e-05
208 18.3578 4.19648 0.791659 0 0 1.00099 2.39184e-05
209 19.734 3.57938 0.199285 0 0 1.00099 2.05655e-05
285 18.6251 5.04538 0.0463939 0 0 1.00099 2.96032e-05
1046 18.9877 4.14617 1.63534 0 0 1.00099 2.45431e-05
287 19.2716 5.05852 1.08364 0 0 1.00099 3.05497e-05
206 19.1916 4.34841 0.0800661 0 0 1.00099 2.44137e-05
212 19.8507 4.31604 0.965355 0 0 1.00099 2.48333e-05
289 20.0165 5.28508 0.355005 0 0 1.00099 3.14191e-05
213 21.2169 3.76458 0.314512 0 0 1.001 2.16769e-05
210 20.5797 4.46376 0.261025 0 0 1.00099 2.56214e-05
211 20.6168 3.9151 1.27292 0 0 1.00099 2.27239e-05
216 21.3843 4.61077 1.19513 0 0 1.00099 2.58695e-05
214 22.0725 4.83087 0.508787 0 0 1.00099 2.66019e-05
215 22.16 4.10769 1.39455 0 0 1.001 2.20622e-05
217 22.7755 4.07784 0.601682 0 0 1.001 2.24514e-05
220 22.8773 5.05548 1.29908 0 0 1.00099 2.72568e-05
16179 23.4929 4.28148 0.025176 0 0 1.00099 2.18642e-05
218 23.5756 5.27944 0.549854 0 0 1.00099 2.6513e-05
144 24.3365 3.73888 1.52226 0 0 1.00099 1.87507e-05
219 23.6505 4.49906 1.39119 0 0 1.00099 2.27788e-05
221 24.3633 4.51052 0.754523 0 0 1.00099 2.16805e-05
222 25.1618 5.26654 0.633163 0 0 1.00099 2.33166e-05
223 25.1904 4.41999 1.54716 0 0 1.00099 2.02906e-05
227 26.3697 4.29916 1.51561 0 0 1.00099 1.73894e-05
225 25.7496 4.45288 0.73746 0 0 1.00099 1.87527e-05
226 26.3097 5.25078 0.431472 0 0 1.00099 2.01413e-05
229 26.8133 4.25054 0.592838 0 0 1.00099 1.61059e-05
232 27.0784 5.05986 1.36738 0 0 1.00099 1.78002e-05
231 27.7742 3.99645 1.40052 0 0 1.00099 1.3332e-05
230 27.7178 4.72828 0.578035 0 0 1.00099 1.55961e-05
233 28.495 3.77938 0.335322 0 0 1.00099 1.13398e-05
236 28.5754 4.5506 1.11704 0 0 1.00099 1.30117e-05
235 29.72 3.63888 1.17625 0 0 1.001 8.49431e-06
313 28.9231 5.29542 0.682176 0 0 1.001 1.29039e-05
234 29.4742 4.21212 0.457727 0 0 1.001 9.85387e-06
315 29.6943 4.94096 1.29691 0 0 1.001 1.04915e-05
240 30.5217 4.31977 1.0258 0 0 1.001 7.6599e-06
238 31.5254 4.10133 0.342052 0 0 1.001 5.0672e-06
317 30.7783 4.93108 0.464046 0 0 1.00099 7.14094e-06
319 31.5488 4.71594 1.36629 0 0 1.001 5.38511e-06
242 1.55193 5.34459 0.447122 0 0 1.00099 5.83886e-06
323 1.4873 6.01712 1.27001 0 0 1.00099 6.37236e-06
324 0.96476 6.85693 1.46174 0 0 1.00099 5.1646e-06
321 0.670773 5.99103 0.446864 0 0 1.00099 3.99624e-06
398 0.16091 7.0166 0.596779 0 0 1.00099 2.59071e-06
399 0.128547 6.23665 1.36751 0 0 1.00099 2.30974e-06
322 1.67989 6.71133 0.554327 0 0 1.00099 7.15472e-06
328 2.43561 6.65094 1.23158 0 0 1.00099 9.67643e-06
325 2.57356 5.82798 0.474986 0 0 1.00099 9.265e-06
327 3.03061 5.7218 1.35617 0 0 1.00099 1.09088e-05
326 3.24062 6.61825 0.452284 0 0 1.00099 1.24482e-05
332 4.02254 6.3522 1.13086 0 0 1.00099 1.45559e-05
329 4.17358 5.65546 0.448906 0 0 1.00099 1.37105e-05
331 4.91498 5.38296 1.19387 0 0 1.00099 1.56823e-05
330 4.85288 6.28427 0.214969 0 0 1.001 1.72417e-05
411 4.88054 6.84191 1.16095 0 0 1.001 1.84778e-05
336 5.68235 5.98973 1.13238 0 0 1.00099 1.97544e-05
333 5.68884 5.46208 0.28624 0 0 1.00099 1.78103e-05
335 6.58509 5.32612 0.938645 0 0 1.00099 2.03916e-05
334 6.50612 6.12195 0.133585 0 0 1.00099 2.24102e-05
415 6.48212 6.63258 0.966911 0 0 1.00099 2.36961e-05
413 5.63202 6.81238 0.206338 0 0 1.001 2.07153e-05
340 7.47704 5.88075 0.910468 0 0 1.00099 2.47956e-05
417 7.57783 6.57853 0.112061 0 0 1.00099 2.74986e-05
1178 8.41337 5.80796 1.57215 0 0 1.00099 2.77617e-05
419 8.46842 6.65805 0.701154 0 0 1.00099 3.07793e-05
344 9.19311 5.85279 0.675771 0 0 1.00099 2.87335e-05
1261 9.35775 6.39831 1.52417 0 0 1.00099 3.33292e-05
1258 8.48358 6.9904 1.65223 0 0 1.00099 3.28543e-05
423 10.2397 6.62055 0.657368 0 0 1.00099 3.52123e-05
1182 10.3676 5.97516 1.44743 0 0 1.00099 3.31027e-05
1185 11.0613 5.29771 1.4834 0 0 1.00099 3.03722e-05
345 10.9974 5.4192 0.0622602 0 0 1.00099 2.96678e-05
348 11.1705 6.23852 0.714252 0 0 1.00099 3.5194e-05
1265 11.1702 6.84087 1.56331 0 0 1.00098 4.01994e-05
347 11.891 5.2912 0.882717 0 0 1.00099 2.99741e-05
346 11.9212 6.17546 0.0869042 0 0 1.00099 3.59918e-05
1186 11.936 6.10052 1.47541 0 0 1.00099 3.68662e-05
349 12.6935 5.6933 0.0259455 0 0 1.00099 3.29019e-05
352 12.8035 6.42217 0.786303 0 0 1.00099 3.94004e-05
351 13.2105 5.63509 1.04582 0 0 1.00099 3.42398e-05
427 12.0582 7.03694 0.802991 0 0 1.00099 4.19636e-05
1190 13.7447 6.56603 1.35362 0 0 1.001 4.17156e-05
276 14.1066 5.37774 0.860456 0 0 1.00099 3.24084e-05
1114 14.8495 5.55885 1.58199 0 0 1.00099 3.52833e-05
355 14.9134 6.22512 0.78736 0 0 1.00099 3.89214e-05
356 14.3298 6.85248 0.582267 0 0 1.00099 4.31978e-05
1194 15.2133 7.00847 1.40265 0 0 1.001 4.54263e-05
280 15.545 5.55263 0.758663 0 0 1.001 3.48025e-05
357 15.6748 6.23962 0.017183 0 0 1.001 3.87806e-05
1197 15.9524 6.46212 1.45036 0 0 1.001 4.28348e-05
278 16.4121 5.62275 0.0339353 0 0 1.001 3.36352e-05
359 16.6297 6.52858 0.799117 0 0 1.001 4.19077e-05
1118 16.6755 5.90939 1.68802 0 0 1.001 3.8214e-05
361 17.2227 6.51824 0.0426768 0 0 1.001 4.07202e-05
284 17.332 5.92259 0.948579 0 0 1.001 3.6429e-05
363 18.0529 6.83819 1.14041 0 0 1.001 4.29199e-05
282 17.9892 5.78829 0.243308 0 0 1.00099 3.46004e-05
288 18.526 5.86443 1.21666 0 0 1.00099 3.61705e-05
365 18.6277 6.74388 0.36914 0 0 1.00099 4.25692e-05
367 19.1847 6.84229 1.31346 0 0 1.00099 4.38673e-05
286 19.2155 5.90642 0.476123 0 0 1.00099 3.62525e-05
369 19.8543 6.95982 0.600852 0 0 1.00099 4.34477e-05
292 20.0795 6.00108 1.18906 0 0 1.00099 3.69501e-05
291 20.8196 5.4245 1.12712 0 0 1.00099 3.13206e-05
293 21.3158 5.6169 0.362488 0 0 1.00099 3.18544e-05
290 20.7943 6.55587 0.625011 0 0 1.00099 3.91351e-05
296 21.4614 6.53966 1.37473 0 0 1.00099 3.85589e-05
295 21.9902 5.64074 1.3385 0 0 1.00099 3.22835e-05
294 22.0315 6.7416 0.636353 0 0 1.00099 3.77568e-05
297 22.7289 5.93762 0.764711 0 0 1.00099 3.20091e-05
300 22.8738 6.91683 1.3453 0 0 1.00099 3.75984e-05
16260 22.8946 6.7692 0.0419118 0 0 1.00099 3.59891e-05
299 23.5948 6.18512 1.28857 0 0 1.00099 3.19286e-05
224 24.4086 5.48082 1.334 0 0 1.00099 2.63194e-05
298 23.7637 6.91814 0.632144 0 0 1.00099 3.39719e-05
301 24.4879 6.08678 0.541011 0 0 1.00099 2.81101e-05
304 24.5566 6.9939 1.27158 0 0 1.00099 3.23963e-05
228 25.8528 5.36827 1.55018 0 0 1.00099 2.21676e-05
302 25.1726 7.0344 0.444687 0 0 1.00099 3.00892e-05
303 25.3039 6.29479 1.44184 0 0 1.00099 2.69893e-05
305 25.7589 6.17385 0.564371 0 0 1.00099 2.49086e-05
307 26.5608 6.0492 1.35726 0 0 1.00099 2.24308e-05
306 26.6044 6.78789 0.685216 0 0 1.00099 2.3847e-05
308 26.0784 7.03583 1.61056 0 0 1.00099 2.72027e-05
311 28.063 5.57138 1.3951 0 0 1.00099 1.63524e-05
309 27.2916 5.7637 0.636541 0 0 1.00099 1.91078e-05
312 27.5192 6.6901 1.4612 0 0 1.00099 2.0476e-05
310 28.2706 6.24726 0.697027 0 0 1.00099 1.66289e-05
316 29.1091 6.10706 1.44531 0 0 1.00099 1.40715e-05
314 30.043 5.7121 0.802057 0 0 1.00099 1.02875e-05
393 29.2383 6.80652 0.655038 0 0 1.00099 1.4463e-05
16276 29.1733 5.95215 0.0250696 0 0 1.00099 1.31833e-05
16355 30.0892 6.55748 0.0663038 0 0 1.00099 1.13894e-05
395 30.1517 6.61949 1.30494 0 0 1.00099 1.09491e-05
318 31.6015 5.48845 0.576641 0 0 1.00099 6.23717e-06
320 30.8698 5.70789 1.42537 0 0 1.00099 7.93237e-06
397 31.0644 6.42392 0.619291 0 0 1.00099 8.01774e-06
401 0.994436 7.5652 0.622948 0 0 1.00099 4.80364e-06
402 1.61294 8.2632 0.568416 0 0 1.00099 7.31393e-06
404 1.07784 8.4339 1.43951 0 0 1.00099 5.29247e-06
478 0.405894 8.64508 0.396849 0 0 1.00099 2.68494e-06
479 0.221083 7.89542 1.27326 0 0 1.00099 2.49432e-06
403 1.84017 7.56515 1.45018 0 0 1.00099 8.19857e-06
405 2.35215 7.41275 0.386552 0 0 1.00099 9.48969e-06
408 2.51402 8.18295 1.44046 0 0 1.00099 1.14171e-05
406 3.01431 8.10415 0.383122 0 0 1.00099 1.32178e-05
407 3.20247 7.28989 1.26456 0 0 1.00099 1.31455e-05
412 3.88895 7.84455 0.920645 0 0 1.001 1.69912e-05
409 4.07786 7.08372 0.319038 0 0 1.001 1.59114e-05
410 4.71409 7.6697 0.0403339 0 0 1.001 1.936e-05
491 4.8203 8.24149 0.831672 0 0 1.001 2.13077e-05
1250 4.73758 7.55284 1.7409 0 0 1.001 2.09494e-05
1329 4.07878 8.47781 1.66274 0 0 1.00099 1.89479e-05
489 3.88388 8.6272 0.0942287 0 0 1.00099 1.71678e-05
1333 5.66983 8.05858 1.60191 0 0 1.001 2.62684e-05
416 5.65527 7.36819 0.943866 0 0 1.001 2.30617e-05
495 6.31887 7.94727 0.598226 0 0 1.001 2.71817e-05
1334 6.33772 8.72538 1.17266 0 0 1.00099 3.02299e-05
414 6.90789 7.3296 0.203885 0 0 1.00099 2.70464e-05
1337 7.24613 7.92061 1.20898 0 0 1.001 3.25872e-05
420 7.52745 7.08391 1.04196 0 0 1.00099 2.90281e-05
499 8.31028 7.71369 0.717831 0 0 1.00099 3.4031e-05
1338 8.28972 8.50584 1.16877 0 0 1.00099 3.89101e-05
500 7.263 8.63118 0.49389 0 0 1.00099 3.3481e-05
424 9.50664 7.20574 0.844172 0 0 1.00099 3.63351e-05
501 9.35135 7.88683 0.0501 0 0 1.00099 3.85007e-05
1341 9.30266 7.95402 1.36475 0 0 1.00099 4.06757e-05
504 9.20636 8.69685 0.556928 0 0 1.00099 4.2748e-05
503 10.2753 8.2417 0.678665 0 0 1.00099 4.44243e-05
1262 10.4322 7.49057 1.39216 0 0 1.00098 4.20186e-05
428 11.1787 7.58736 0.6872 0 0 1.00098 4.35568e-05
1345 11.275 8.39095 1.37886 0 0 1.00098 4.97153e-05
507 11.9645 8.65343 0.656873 0 0 1.00099 5.17422e-05
1266 12.1511 7.79154 1.42119 0 0 1.00098 4.89147e-05
429 12.7506 7.30725 0.0142266 0 0 1.00099 4.43532e-05
432 12.8937 8.00665 0.706714 0 0 1.00099 4.98137e-05
1269 12.9767 7.05143 1.54146 0 0 1.00099 4.59366e-05
1349 12.998 8.71632 1.37571 0 0 1.00098 5.65942e-05
1270 13.7395 8.00998 1.49765 0 0 1.00098 5.30472e-05
431 13.7691 7.58382 0.590337 0 0 1.00099 4.7081e-05
1273 14.5548 7.53198 1.47514 0 0 1.00099 5.1937e-05
436 14.6159 8.46517 0.771952 0 0 1.00099 5.5923e-05
435 15.2972 7.8403 0.544633 0 0 1.001 5.09198e-05
1274 15.4413 8.61134 1.57587 0 0 1.001 6.14567e-05
360 15.9701 7.22121 0.652884 0 0 1.001 4.68551e-05
1277 16.0452 7.9935 1.39051 0 0 1.001 5.43855e-05
437 16.1811 8.31366 0.0371892 0 0 1.001 5.4627e-05
439 16.8542 8.34847 0.891438 0 0 1.001 5.61421e-05
1198 16.9092 7.6475 1.68554 0 0 1.001 5.24311e-05
364 17.2831 7.46146 0.851391 0 0 1.001 4.76844e-05
441 17.5205 8.54037 0.141409 0 0 1.00099 5.593e-05
443 18.0032 8.5259 1.07497 0 0 1.001 5.71363e-05
362 18.0851 7.58674 0.297359 0 0 1.00099 4.86968e-05
368 18.6962 7.83945 1.07948 0 0 1.00099 5.0896e-05
445 18.7157 8.68281 0.278378 0 0 1.00099 5.79595e-05
447 19.3739 8.77638 1.02199 0 0 1.00099 5.70368e-05
366 19.4331 7.87727 0.218344 0 0 1.00099 5.02237e-05
372 19.8787 7.83514 1.1565 0 0 1.00099 5.17367e-05
370 20.5534 8.23546 0.611928 0 0 1.00099 5.06835e-05
371 20.7828 7.46352 1.34978 0 0 1.00099 4.64213e-05
373 21.4078 7.70084 0.595371 0 0 1.00099 4.50274e-05
376 21.4026 8.70368 1.31247 0 0 1.00099 5.24158e-05
374 22.1102 8.57254 0.593697 0 0 1.00098 4.90244e-05
375 22.1391 7.69124 1.30255 0 0 1.00099 4.45361e-05
377 22.9168 7.8027 0.666903 0 0 1.00099 4.19289e-05
378 23.6208 8.67172 0.396912 0 0 1.00099 4.28568e-05
379 23.8249 7.84916 1.20334 0 0 1.00099 3.92731e-05
381 24.4828 7.89001 0.304156 0 0 1.00099 3.61145e-05
384 24.598 8.56615 1.08376 0 0 1.00099 3.85515e-05
383 25.3727 7.70198 1.18969 0 0 1.00099 3.19918e-05
382 25.3773 8.47982 0.308055 0 0 1.00098 3.41676e-05
385 26.1205 7.72657 0.496009 0 0 1.00099 2.83142e-05
388 26.1444 8.51076 1.23154 0 0 1.00099 3.09715e-05
387 26.8138 7.60872 1.41061 0 0 1.00099 2.57133e-05
389 27.6062 7.21174 0.626411 0 0 1.00099 2.09089e-05
386 26.9962 8.25429 0.389026 0 0 1.00099 2.63293e-05
392 27.7031 8.04709 1.30996 0 0 1.00099 2.26789e-05
469 27.8753 8.70233 0.431354 0 0 1.00099 2.26572e-05
391 28.4833 7.17632 1.37534 0 0 1.00099 1.75288e-05
390 28.5337 7.74947 0.514703 0 0 1.00099 1.81206e-05
471 28.6466 8.61319 1.2109 0 0 1.00099 1.92653e-05
396 29.4176 7.68902 1.23782 0 0 1.00099 1.47278e-05
473 29.4777 8.34004 0.4184 0 0 1.00099 1.48678e-05
475 30.2708 8.13608 1.27854 0 0 1.00099 1.14642e-05
394 30.3095 7.36756 0.500353 0 0 1.00099 1.1079e-05
400 31.0449 7.33577 1.17954 0 0 1.00099 8.11254e-06
480 31.1547 8.75091 1.19252 0 0 1.00099 8.20665e-06
477 31.3475 8.07575 0.388292 0 0 1.00099 7.459e-06
484 0.941588 9.85325 0.913245 0 0 1.00099 4.35946e-06
481 1.05917 9.22791 0.120954 0 0 1.00099 4.85502e-06
1322 1.53001 9.87543 1.72553 0 0 1.00099 7.18777e-06
559 0.207441 9.3616 1.13248 0 0 1.00099 1.74188e-06
558 0.158543 10.0582 0.0593637 0 0 1.00099 8.60777e-07
483 1.74816 9.08439 1.16924 0 0 1.00099 8.06068e-06
482 1.79693 9.96077 0.243828 0 0 1.00099 7.96781e-06
485 2.48667 9.00659 0.40993 0 0 1.00099 1.09817e-05
488 2.52916 9.84502 0.975284 0 0 1.00099 1.13345e-05
486 3.31901 9.61057 0.0815031 0 0 1.00099 1.48624e-05
487 3.1633 8.83935 1.17253 0 0 1.00099 1.41634e-05
567 3.26389 10.3198 0.71417 0 0 1.001 1.5013e-05
1405 2.36206 10.5338 1.56864 0 0 1.00099 1.14523e-05
1326 3.51015 9.50667 1.65351 0 0 1.00099 1.66039e-05
492 4.16556 9.24287 0.740943 0 0 1.00099 1.88809e-05
1330 5.01255 8.99012 1.5516 0 0 1.00099 2.40049e-05
1409 4.29152 9.93802 1.42145 0 0 1.00099 2.0508e-05
571 4.86507 9.94964 0.494258 0 0 1.001 2.30348e-05
496 5.4874 9.00397 0.574348 0 0 1.00099 2.55846e-05
575 6.33238 9.55871 0.445284 0 0 1.00099 3.11057e-05
1413 5.66667 9.69723 1.43329 0 0 1.00099 2.87064e-05
1414 6.42834 10.1793 1.1935 0 0 1.00099 3.28549e-05
576 5.556 10.546 0.367636 0 0 1.001 2.81586e-05
1417 7.29104 9.29637 1.19379 0 0 1.00099 3.64382e-05
579 8.03993 9.35892 0.456683 0 0 1.00099 3.9742e-05
580 7.13138 10.1611 0.365712 0 0 1.00099 3.66195e-05
1418 8.08181 10.1307 1.10496 0 0 1.00099 4.36862e-05
1421 8.92499 9.3023 1.30669 0 0 1.00099 4.52242e-05
583 10.0198 9.59987 0.650092 0 0 1.00099 5.0077e-05
584 9.02992 10.0579 0.656343 0 0 1.00099 4.6792e-05
1422 9.98313 10.3034 1.35469 0 0 1.00099 5.52374e-05
1342 10.0842 8.89258 1.36723 0 0 1.00099 4.83716e-05
508 11.0018 9.11765 0.654228 0 0 1.00099 5.16139e-05
1425 11.0135 9.7851 1.37179 0 0 1.00099 5.8201e-05
588 10.7033 10.5208 0.540117 0 0 1.00099 5.74394e-05
587 11.7159 9.95531 0.654001 0 0 1.00099 5.86667e-05
1346 12.1407 9.07885 1.58202 0 0 1.00099 5.72204e-05
512 12.6768 9.5431 0.711901 0 0 1.00099 5.9175e-05
510 13.3085 9.848 0.0343927 0 0 1.00099 6.1605e-05
1429 12.7038 10.1717 1.49816 0 0 1.00099 6.5701e-05
589 12.4276 10.4632 0.184434 0 0 1.00099 6.24961e-05
1350 13.6106 9.6959 1.58137 0 0 1.00099 6.56328e-05
511 13.6862 9.04114 0.686328 0 0 1.00099 5.81892e-05
1353 14.371 9.00315 1.61459 0 0 1.00099 6.31771e-05
516 14.3923 9.9123 0.938675 0 0 1.00099 6.5273e-05
514 14.9739 10.2276 0.0448863 0 0 1.00099 6.78801e-05
591 13.481 10.5485 0.981731 0 0 1.00099 6.75995e-05
515 15.2137 9.35522 0.864987 0 0 1.00099 6.33043e-05
1354 15.2192 10.0709 1.69431 0 0 1.00099 7.1983e-05
517 15.9147 9.9028 0.211584 0 0 1.00099 6.62662e-05
440 16.16 9.05009 0.819765 0 0 1.001 6.11689e-05
520 15.8527 10.5448 1.02941 0 0 1.00099 7.14189e-05
519 16.7994 9.98167 1.02366 0 0 1.00099 6.99167e-05
438 16.8927 9.29927 0.136773 0 0 1.00099 6.1422e-05
521 17.3023 10.3665 0.220641 0 0 1.00099 7.05716e-05
444 17.6155 9.45458 1.13594 0 0 1.00099 6.51869e-05
523 18.1198 10.4557 0.971411 0 0 1.00099 7.30008e-05
442 18.1136 9.5317 0.258101 0 0 1.00099 6.44245e-05
448 18.7743 9.64539 1.06715 0 0 1.00099 6.51455e-05
449 20.0259 9.07006 0.229159 0 0 1.00099 5.64927e-05
446 19.3468 9.88385 0.111875 0 0 1.00099 6.41878e-05
452 19.9238 9.87425 0.958927 0 0 1.00098 6.57838e-05
451 20.5477 9.14746 1.18433 0 0 1.00099 5.88762e-05
453 21.2901 9.20895 0.385194 0 0 1.00098 5.62421e-05
450 20.7302 10.0457 0.231398 0 0 1.00098 6.3039e-05
456 21.3158 10.1776 1.02927 0 0 1.00099 6.19693e-05
380 22.9034 8.88478 1.1344 0 0 1.00098 4.81442e-05
455 22.1038 9.63763 1.06336 0 0 1.00099 5.56466e-05
454 22.1148 10.3361 0.22744 0 0 1.00099 5.74384e-05
457 22.9205 9.60186 0.271559 0 0 1.00099 5.00893e-05
460 22.9205 10.4105 0.975653 0 0 1.00099 5.49345e-05