ITEM: TIMESTEP
18500
ITEM: NUMBER OF ATOMS
32000
ITEM: BOX BOUNDS pp pp pp
0.0000000000000000e+00 3.1748021039364001e+01
0.0000000000000000e+00 3.1748021039364001e+01
0.0000000000000000e+00 3.1748021039364001e+01
ITEM: ATOMS id x y z c_phase c_nbond c_rho v_omega
4 0.16849 1.11772 0.466973 0 0 1.00059 2.85267e-06
83 1.05729 1.63209 0.779442 0 0 1.00059 4.83413e-06
842 0.752987 0.772154 1.40823 0 0 1.00059 3.38044e-06
921 0.0893448 1.62495 1.37676 0 0 1.00059 3.37541e-06
3 0.725483 0.0463872 0.618071 0 0 1.00059 2.43919e-06
8 1.74906 0.740711 1.01336 0 0 1.00059 4.48118e-06
85 1.88114 1.39971 0.215713 0 0 1.00059 5.76098e-06
925 1.91654 1.57022 1.75145 0 0 1.00059 6.03941e-06
6 2.55346 0.626959 0.20076 0 0 1.00059 5.35731e-06
87 2.73001 1.41295 0.874196 0 0 1.00059 6.90118e-06
846 2.7142 0.690174 1.73571 0 0 1.00059 5.50753e-06
12 3.47631 0.761017 0.956898 0 0 1.00059 6.62289e-06
929 3.70439 1.52512 1.70894 0 0 1.00059 8.35855e-06
10 4.1556 0.662116 0.316545 0 0 1.00059 6.85856e-06
16 5.00299 0.338129 1.15277 0 0 1.00059 6.65843e-06
850 4.38386 0.732338 1.62969 0 0 1.00059 7.53507e-06
91 4.11853 1.63853 0.712201 0 0 1.00059 9.25322e-06
93 5.01927 1.36973 0.382028 0 0 1.00059 9.41693e-06
14 5.68584 0.397886 0.313644 0 0 1.00059 7.30346e-06
95 5.96872 1.05759 0.9467 0 0 1.00059 9.14263e-06
97 6.66867 1.12906 0.217864 0 0 1.00059 9.50168e-06
854 5.81409 0.204568 1.69659 0 0 1.00059 6.69992e-06
933 5.13104 1.46991 1.43521 0 0 1.00059 1.00436e-05
20 6.72988 0.13065 0.867892 0 0 1.00059 6.62677e-06
937 6.75755 0.736453 1.69271 0 0 1.00059 8.4836e-06
24 8.28096 0.130322 1.06021 0 0 1.00059 6.48676e-06
99 7.45406 0.946992 0.94889 0 0 1.00059 9.22088e-06
101 8.35199 1.10976 0.232729 0 0 1.00059 9.85294e-06
941 8.23698 0.978815 1.61349 0 0 1.00059 9.92589e-06
18 7.62248 0.380292 0.151732 0 0 1.00059 7.325e-06
22 8.8851 0.230205 0.259537 0 0 1.00059 6.47851e-06
28 9.57138 0.0664198 0.899648 0 0 1.00059 5.06334e-06
103 9.12214 1.03089 1.0961 0 0 1.00059 9.50207e-06
945 9.67296 0.701282 1.76209 0 0 1.00059 7.71985e-06
105 9.74958 1.09654 0.102628 0 0 1.00059 9.30316e-06
108 9.96121 1.74871 1.09589 0 0 1.00059 1.22856e-05
23795 12.1674 15.2637 15.286 4 19 1.00058 0.002
107 10.4582 0.804921 0.82972 0 0 1.00059 7.80808e-06
949 11.3918 0.790248 1.41831 0 0 1.00059 7.27062e-06
946 10.7424 1.43605 1.7244 0 0 1.00059 1.09221e-05
26 10.2629 0.115429 0.0798249 0 0 1.00059 4.98109e-06
112 11.3476 1.60959 0.776362 0 0 1.00059 1.1296e-05
36 12.8897 0.0692878 0.63973 0 0 1.00059 2.56512e-06
111 12.1424 0.88935 0.515302 0 0 1.00059 7.06032e-06
870 12.1485 0.126561 1.30554 0 0 1.00059 3.65643e-06
953 12.8497 1.03208 1.37501 0 0 1.00059 7.4783e-06
950 12.1376 1.72262 1.46555 0 0 1.00059 1.15832e-05
40 14.4024 0.259294 0.777096 0 0 1.00059 2.50664e-06
115 13.7081 1.00559 0.842856 0 0 1.00059 6.62348e-06
117 14.2239 1.46736 0.157968 0 0 1.00059 8.83823e-06
874 13.641 0.24533 1.63609 0 0 1.00059 2.87773e-06
957 14.5068 1.09457 1.48093 0 0 1.00059 6.65557e-06
119 15.0557 1.52147 0.667771 0 0 1.00059 8.52504e-06
44 15.7955 0.780099 0.790297 0 0 1.00059 4.61197e-06
878 15.1896 0.444957 1.64021 0 0 1.00059 2.96486e-06
882 16.6255 0.779254 1.34657 0 0 1.00059 4.50115e-06
961 15.8069 1.50693 1.4006 0 0 1.00059 8.76487e-06
38 15.1738 0.686661 0.0713071 0 0 1.00059 3.98761e-06
123 16.7271 1.62 0.687654 0 0 1.00059 8.93965e-06
48 17.342 0.841762 0.558746 0 0 1.00059 4.70872e-06
127 18.1084 1.7468 0.755213 0 0 1.00059 9.99113e-06
886 18.0029 0.902319 1.42633 0 0 1.00059 5.57362e-06
47 18.1483 0.0877202 0.693247 0 0 1.00059 1.41274e-06
51 19.5363 0.235956 0.670028 0 0 1.00059 3.11644e-06
52 18.8682 0.929547 0.691247 0 0 1.00059 5.79057e-06
889 19.029 0.36442 1.54828 0 0 1.00059 3.07406e-06
890 19.7107 1.20982 1.69448 0 0 1.00059 8.37088e-06
969 18.8443 1.712 1.50059 0 0 1.00059 1.02846e-05
55 21.1502 0.633702 1.07252 0 0 1.00059 5.54001e-06
56 20.3304 1.03842 0.969246 0 0 1.00059 7.27229e-06
54 21.2604 1.06316 0.215117 0 0 1.00059 7.8558e-06
893 20.4431 0.143138 1.43311 0 0 1.00059 3.71556e-06
53 20.2736 0.125496 0.0724096 0 0 1.00059 3.34688e-06
57 22.0457 0.587318 0.538969 0 0 1.00059 6.09889e-06
59 22.8498 0.753218 1.40364 0 0 1.00059 7.06071e-06
60 22.235 1.48434 1.33138 0 0 1.00059 1.03439e-05
58 23.0027 1.38774 0.465336 0 0 1.00059 9.37337e-06
63 24.2929 0.709322 1.42469 0 0 1.00059 7.18357e-06
61 23.6055 0.673878 0.574083 0 0 1.00059 6.83191e-06
62 24.5304 1.50472 0.746864 0 0 1.00059 9.60451e-06
64 23.6032 1.57602 1.39295 0 0 1.00059 1.04358e-05
65 24.9946 0.630928 0.541433 0 0 1.00059 6.8198e-06
67 26.0327 0.673234 1.16751 0 0 1.00059 6.4648e-06
68 25.2595 1.45346 1.46285 0 0 1.00059 9.43335e-06
66 25.964 1.24363 0.425801 0 0 1.00059 8.03673e-06
17548 25.1616 0.0909519 1.36157 0 0 1.00059 5.27009e-06
70 27.66 1.52634 0.386169 0 0 1.00059 6.94271e-06
71 27.6444 0.744986 0.872315 0 0 1.00059 5.36774e-06
72 26.8209 1.30687 1.25516 0 0 1.00059 7.42076e-06
913 28.4043 0.553112 1.40929 0 0 1.00059 4.23407e-06
69 26.8072 0.513086 0.236243 0 0 1.00059 5.53625e-06
76 28.7196 1.42921 0.73431 0 0 1.00059 5.29245e-06
914 29.435 1.11719 1.56763 0 0 1.00059 4.05589e-06
917 29.8253 0.302161 1.45705 0 0 1.00059 2.22342e-06
75 29.2905 0.514668 0.617058 0 0 1.00059 3.03009e-06
841 31.5959 0.298706 1.25632 0 0 1.00059 -2.1974e-08
79 30.7288 0.565842 0.475823 0 0 1.00059 1.37366e-06
80 30.1603 1.31545 0.772836 0 0 1.00059 3.1644e-06
918 30.9113 1.04743 1.38925 0 0 1.00059 1.84055e-06
82 1.23529 2.39058 0.122718 0 0 1.00059 6.24495e-06
84 0.258035 2.39679 0.808631 0 0 1.00059 4.5745e-06
163 1.44938 3.16845 0.943504 0 0 1.00059 7.71037e-06
922 1.26324 2.31325 1.58812 0 0 1.00059 6.23255e-06
1001 0.540668 3.03376 1.54856 0 0 1.00059 5.71975e-06
161 0.487779 3.10527 0.129998 0 0 1.00059 5.63902e-06
88 2.0392 2.32208 0.783465 0 0 1.00059 7.41901e-06
167 2.83258 3.13784 0.856352 0 0 1.00059 1.03928e-05
926 2.79871 2.1 1.53618 0 0 1.00059 8.39307e-06
86 2.85397 2.24837 0.0534058 0 0 1.00059 8.73179e-06
1005 2.27262 2.9859 1.75472 0 0 1.00059 8.97384e-06
1009 3.45869 3.23298 1.64691 0 0 1.00059 1.20383e-05
92 3.52841 2.38359 0.782015 0 0 1.00059 1.01202e-05
171 4.39492 3.09931 0.753565 0 0 1.00059 1.30111e-05
930 4.30376 2.42698 1.57947 0 0 1.00059 1.13959e-05
96 5.07143 2.32656 0.818106 0 0 1.00059 1.2271e-05
94 5.81604 2.18499 0.139744 0 0 1.00059 1.26355e-05
175 5.87122 2.9235 0.955015 0 0 1.00059 1.50832e-05
934 6.00952 1.93468 1.48953 0 0 1.00059 1.20021e-05
173 5.19564 3.074 0.00825952 0 0 1.00059 1.46383e-05
100 6.71651 1.90553 0.780027 0 0 1.00059 1.23287e-05
1017 6.76018 2.76477 1.54423 0 0 1.00059 1.56845e-05
177 6.84988 2.65186 0.127079 0 0 1.00059 1.48974e-05
98 7.6224 1.93876 0.135544 0 0 1.00059 1.2937e-05
104 8.2744 1.90344 0.935189 0 0 1.00059 1.31795e-05
179 7.64045 2.75303 0.912335 0 0 1.00059 1.63718e-05
938 7.46241 1.76874 1.56609 0 0 1.00059 1.24678e-05
180 6.77604 3.4716 0.782193 0 0 1.00059 1.80396e-05
1021 8.44402 2.68021 1.64348 0 0 1.00059 1.6902e-05
181 8.51645 2.66686 0.0396504 0 0 1.00059 1.62201e-05
102 9.08969 1.81411 0.248702 0 0 1.00059 1.26931e-05
183 9.19044 2.66786 0.930604 0 0 1.00059 1.71601e-05
942 9.23376 1.92199 1.71209 0 0 1.00059 1.38791e-05
185 9.83541 2.62789 0.207968 0 0 1.00059 1.66999e-05
1022 9.41163 3.44788 1.50177 0 0 1.00059 2.18957e-05
188 10.2236 3.29376 0.884651 0 0 1.00059 2.03446e-05
106 10.4859 1.85359 0.201308 0 0 1.00059 1.27261e-05
187 10.8964 2.54422 0.919477 0 0 1.00059 1.61213e-05
1026 11.0634 3.31241 1.59369 0 0 1.00059 2.09768e-05
1029 11.7421 2.60455 1.59028 0 0 1.00059 1.71635e-05
192 11.7761 3.4031 0.803623 0 0 1.00059 2.13464e-05
116 12.8897 1.78551 0.604349 0 0 1.00059 1.12603e-05
191 12.2159 2.45452 0.742115 0 0 1.00059 1.58951e-05
1033 13.1969 2.84999 1.69479 0 0 1.0006 1.81239e-05
196 12.8807 3.42598 0.81596 0 0 1.00059 2.17293e-05
195 13.5462 2.88839 0.840406 0 0 1.00059 1.73234e-05
954 13.6145 1.87167 1.47642 0 0 1.00059 1.14649e-05
120 14.307 2.35702 0.924875 0 0 1.00059 1.40689e-05
1037 14.4385 3.29258 1.55628 0 0 1.00059 2.06301e-05
197 14.5138 3.14406 0.0425835 0 0 1.00059 1.86763e-05
114 13.6685 2.17873 0.0544112 0 0 1.00059 1.33226e-05
199 15.111 3.39045 0.87412 0 0 1.00059 2.04635e-05
958 15.0809 2.27661 1.44459 0 0 1.00059 1.35999e-05
118 15.1392 2.47336 0.134658 0 0 1.00059 1.44539e-05
124 15.9846 2.46197 0.70215 0 0 1.00059 1.41413e-05
203 16.6934 3.2686 0.674195 0 0 1.00059 1.93556e-05
962 16.6175 2.5443 1.5281 0 0 1.00059 1.50816e-05
1041 15.7881 3.2666 1.50705 0 0 1.00059 1.97601e-05
201 15.9537 3.27297 0.023275 0 0 1.00059 1.96121e-05
965 17.4319 1.86258 1.5636 0 0 1.00059 1.08708e-05
128 17.3505 2.47003 0.680882 0 0 1.00059 1.41954e-05
207 18.2844 3.1073 0.712426 0 0 1.00059 1.81444e-05
966 18.311 2.60866 1.59394 0 0 1.00059 1.57379e-05
1045 17.4654 3.24172 1.50266 0 0 1.00059 1.9425e-05
131 19.712 1.79805 0.842741 0 0 1.00059 1.07695e-05
129 19.0433 1.79088 0.00554917 0 0 1.00059 1.02509e-05
132 19.1622 2.59255 1.01484 0 0 1.00059 1.51947e-05
211 20.0521 3.51981 1.27365 0 0 1.00059 2.12344e-05
209 19.2144 3.23907 0.191286 0 0 1.00059 1.90147e-05
130 19.856 2.58154 0.109717 0 0 1.00059 1.50874e-05
133 20.5085 1.78776 0.203242 0 0 1.00059 1.09181e-05
135 21.2673 1.94297 0.961002 0 0 1.00059 1.20557e-05
973 20.5246 2.0628 1.73911 0 0 1.00059 1.30409e-05
134 21.4183 2.73873 0.457724 0 0 1.00059 1.56697e-05
136 20.4778 2.74375 1.09932 0 0 1.00059 1.6599e-05
213 20.7236 3.31865 0.32893 0 0 1.00059 1.92535e-05
137 22.1518 1.93507 0.519199 0 0 1.00059 1.19822e-05
139 23.0802 2.40636 1.51326 0 0 1.00059 1.40613e-05
138 23.1943 2.96571 0.729881 0 0 1.00059 1.58528e-05
140 22.3208 2.84571 1.23682 0 0 1.00059 1.66549e-05
141 23.8804 2.16111 0.621256 0 0 1.00059 1.21097e-05
143 24.5899 2.33449 1.58722 0 0 1.00059 1.29923e-05
142 24.558 3.03883 0.773119 0 0 1.00059 1.52332e-05
144 23.9318 3.26027 1.53297 0 0 1.00059 1.72426e-05
16108 25.1714 3.16795 0.00773214 0 0 1.00059 1.47151e-05
147 26.0609 2.05271 1.35541 0 0 1.00059 1.04597e-05
149 26.6753 2.07994 0.512006 0 0 1.00059 9.5055e-06
145 25.2767 2.1826 0.523705 0 0 1.00059 1.14488e-05
146 25.9849 2.93545 0.700395 0 0 1.00059 1.30514e-05
148 25.3632 2.91422 1.52062 0 0 1.00059 1.38753e-05
152 26.7079 2.87591 1.52771 0 0 1.00059 1.19564e-05
151 27.6252 2.23963 1.22937 0 0 1.00059 8.58206e-06
153 28.3787 2.31138 0.344599 0 0 1.00059 7.54378e-06
150 27.2617 2.97039 0.634892 0 0 1.00059 1.08572e-05
233 28.1762 3.47197 0.336506 0 0 1.00059 1.03912e-05
156 28.4162 2.98309 1.19675 0 0 1.00059 9.00557e-06
993 28.6209 1.93584 1.50347 0 0 1.00059 6.64678e-06
997 30.0645 1.93976 1.70365 0 0 1.00059 4.55264e-06
155 29.5522 2.19333 0.880859 0 0 1.00059 5.43056e-06
154 29.3415 2.85157 0.286486 0 0 1.00059 6.89419e-06
235 29.4329 3.43798 1.1798 0 0 1.00059 7.79375e-06
159 31.016 2.05219 0.922431 0 0 1.00059 2.88887e-06
160 30.3243 2.82775 0.99812 0 0 1.00059 4.88575e-06
239 31.1986 3.41178 0.972645 0 0 1.00059 4.22729e-06
998 31.1299 2.7624 1.72613 0 0 1.00059 3.6389e-06
237 30.2906 3.37356 0.148653 0 0 1.00059 5.91548e-06
157 30.5072 2.00964 0.0316509 0 0 1.00059 3.61543e-06
158 31.2793 2.72014 0.0767215 0 0 1.00059 3.17132e-06
164 0.483288 3.78538 0.917571 0 0 1.00059 6.24205e-06
241 0.362177 4.61509 0.47375 0 0 1.00059 6.76648e-06
243 1.35899 4.60447 0.984157 0 0 1.00059 9.27644e-06
162 1.23534 3.81407 0.0678755 0 0 1.00059 7.81732e-06
244 0.33874 5.28006 1.27585 0 0 1.00059 7.29463e-06
168 2.05777 3.94259 0.849059 0 0 1.00059 9.90824e-06
247 2.78418 4.70566 1.12417 0 0 1.00059 1.29926e-05
166 2.86932 3.99428 0.200486 0 0 1.00059 1.20116e-05
245 2.13512 4.84882 0.281041 0 0 1.00059 1.12963e-05
249 3.6681 4.65436 0.166633 0 0 1.00059 1.51888e-05
172 3.71069 3.88162 0.884854 0 0 1.00059 1.34341e-05
251 4.33345 4.63578 1.1506 0 0 1.00059 1.70165e-05
170 4.49189 3.94302 0.144758 0 0 1.00059 1.53359e-05
250 4.49363 5.20825 0.321837 0 0 1.00059 1.85204e-05
176 5.16336 3.74446 1.15763 0 0 1.00059 1.64617e-05
253 5.29279 4.46414 0.328636 0 0 1.00059 1.87116e-05
174 6.0223 3.64889 0.181462 0 0 1.00059 1.77926e-05
255 6.00915 4.41303 1.02824 0 0 1.00059 2.03899e-05
254 6.10483 5.08902 0.285207 0 0 1.00059 2.24922e-05
256 5.26271 5.14068 1.29169 0 0 1.00059 2.07397e-05
1097 6.99006 4.18587 1.64591 0 0 1.00059 2.17969e-05
260 7.01307 4.80636 0.866794 0 0 1.00059 2.36324e-05
259 7.73951 4.12712 0.560032 0 0 1.00059 2.23545e-05
1018 7.71177 3.54 1.50069 0 0 1.00059 2.00459e-05
258 7.70432 5.00342 0.0336114 0 0 1.00059 2.60421e-05
1098 7.7961 5.03013 1.49395 0 0 1.00059 2.69367e-05
184 8.52249 3.55258 0.705413 0 0 1.00059 2.0564e-05
1101 8.5816 4.25598 1.47778 0 0 1.00059 2.44728e-05
264 8.61536 4.95934 0.69915 0 0 1.00059 2.76428e-05
263 9.4652 4.23645 0.812964 0 0 1.00059 2.52284e-05
182 9.32278 3.55597 0.056063 0 0 1.00059 2.12556e-05
1102 9.50131 4.9682 1.58363 0 0 1.00059 3.01917e-05
262 9.44826 5.12106 0.0219726 0 0 1.00059 2.98918e-05
268 10.2336 4.99511 0.796932 0 0 1.00059 3.0403e-05
265 10.2529 4.21485 0.124524 0 0 1.00059 2.54794e-05
1105 10.286 4.03635 1.65749 0 0 1.00059 2.53376e-05
267 11.0255 4.34868 0.898672 0 0 1.00059 2.6917e-05
186 10.9616 3.56641 0.171136 0 0 1.00059 2.18197e-05
1106 11.018 4.91453 1.75591 0 0 1.00059 3.12544e-05
266 10.9827 5.25181 0.0135672 0 0 1.00059 3.24468e-05
269 11.8258 4.44862 0.216069 0 0 1.00059 2.71745e-05
1109 11.8167 4.1372 1.6935 0 0 1.00059 2.72607e-05
272 11.9016 5.01193 1.0066 0 0 1.00059 3.20415e-05
271 12.6605 4.3443 1.00447 0 0 1.00059 2.79626e-05
1113 13.3129 4.78227 1.69116 0 0 1.00059 3.14631e-05
273 13.0947 4.43089 0.0586078 0 0 1.00059 2.77441e-05
275 13.7238 4.56581 0.787283 0 0 1.00059 2.90654e-05
200 14.4586 4.03323 0.696604 0 0 1.00059 2.47546e-05
1034 13.9742 4.08355 1.59133 0 0 1.00059 2.63928e-05
1117 14.7646 5.02186 1.52528 0 0 1.00059 3.36268e-05
277 14.6602 4.80296 0.0798053 0 0 1.00059 2.97745e-05
194 13.6649 3.6017 0.00239186 0 0 1.00059 2.19902e-05
279 15.5028 5.00579 0.816793 0 0 1.00059 3.16817e-05
198 15.4261 4.16175 0.107117 0 0 1.00059 2.51989e-05
1038 15.497 4.38372 1.5972 0 0 1.00059 2.78117e-05
204 16.1365 4.09403 0.912062 0 0 1.00059 2.51563e-05
281 16.3846 4.8232 0.178688 0 0 1.00059 2.95701e-05
1121 16.4045 5.0893 1.64981 0 0 1.00059 3.36237e-05
1042 16.8128 4.0485 1.68117 0 0 1.00059 2.58367e-05
283 17.103 4.7077 0.907164 0 0 1.00059 2.91444e-05
208 17.7121 3.97636 0.80814 0 0 1.00059 2.3683e-05
1046 18.3758 3.84473 1.65576 0 0 1.00059 2.38088e-05
285 17.9284 4.75729 0.0296672 0 0 1.00059 2.88165e-05
287 18.5682 4.71048 1.09445 0 0 1.00059 2.91459e-05
206 18.563 4.05353 0.0733442 0 0 1.00059 2.36276e-05
212 19.2661 3.96273 0.961036 0 0 1.00059 2.36034e-05
289 19.3054 4.88175 0.357778 0 0 1.00059 2.94565e-05
210 19.9883 4.0539 0.246841 0 0 1.00059 2.36716e-05
291 20.1444 4.98208 1.11238 0 0 1.00059 2.97085e-05
215 21.6454 3.64619 1.38971 0 0 1.00059 2.05354e-05
216 20.8158 4.15424 1.23011 0 0 1.00059 2.39948e-05
295 21.3282 5.09944 1.37829 0 0 1.00059 2.98942e-05
214 21.4772 4.3032 0.516031 0 0 1.00059 2.40712e-05
293 20.6157 5.12365 0.349467 0 0 1.00059 2.93433e-05
217 22.2858 3.56644 0.60622 0 0 1.00059 2.01056e-05
16179 22.9988 3.77105 0.0494064 0 0 1.00059 1.96493e-05
219 23.1521 3.99968 1.40995 0 0 1.00059 2.11578e-05
220 22.3147 4.52018 1.3108 0 0 1.00059 2.50905e-05
218 22.9989 4.74034 0.535158 0 0 1.00059 2.43595e-05
223 24.7517 3.90061 1.55696 0 0 1.00059 1.86667e-05
221 23.8801 4.00979 0.773754 0 0 1.00059 1.99335e-05
222 24.6597 4.72873 0.632847 0 0 1.00059 2.15028e-05
224 23.8397 4.94964 1.34035 0 0 1.00059 2.4788e-05
228 25.3437 4.87536 1.59776 0 0 1.00059 2.10142e-05
227 25.9706 3.84551 1.51834 0 0 1.00059 1.61571e-05
229 26.4169 3.8316 0.594989 0 0 1.00059 1.48184e-05
225 25.3313 4.01395 0.779252 0 0 1.00059 1.7445e-05
232 26.6417 4.62923 1.37309 0 0 1.00059 1.67836e-05
226 25.8369 4.77242 0.408586 0 0 1.00059 1.87434e-05
231 27.424 3.64028 1.41298 0 0 1.00059 1.24061e-05
311 27.6197 5.18253 1.40155 0 0 1.00059 1.57005e-05
236 28.1975 4.23321 1.10995 0 0 1.00059 1.2235e-05
230 27.3165 4.34267 0.580934 0 0 1.00059 1.4478e-05
313 28.5324 4.99075 0.701051 0 0 1.00059 1.21971e-05
234 29.141 3.97689 0.476076 0 0 1.00059 9.19209e-06
315 29.3251 4.72136 1.31956 0 0 1.00059 1.0033e-05
240 30.203 4.19411 1.02935 0 0 1.00059 7.10075e-06
238 31.2255 4.05247 0.361471 0 0 1.00059 4.43932e-06
317 30.4352 4.81362 0.478555 0 0 1.00059 6.66382e-06
319 31.2056 4.67773 1.3945 0 0 1.00059 5.04513e-06
242 1.16721 5.48097 0.460386 0 0 1.00059 9.39127e-06
323 1.07415 6.16375 1.27624 0 0 1.00059 9.6491e-06
324 0.53951 6.92666 1.49426 0 0 1.00059 8.47549e-06
322 1.25692 6.87846 0.568898 0 0 1.00059 1.05607e-05
321 0.251645 6.02516 0.449654 0 0 1.00059 7.26123e-06
248 1.80078 5.41549 1.37036 0 0 1.00059 1.1418e-05
328 2.00003 6.90187 1.24149 0 0 1.00059 1.32113e-05
325 2.16675 6.07423 0.505541 0 0 1.00059 1.30306e-05
327 2.57041 6.00451 1.40064 0 0 1.00059 1.45194e-05
246 2.95549 5.4308 0.273569 0 0 1.00059 1.43813e-05
326 2.78834 6.95635 0.468129 0 0 1.00059 1.62237e-05
252 3.40727 5.42289 1.28681 0 0 1.00059 1.61829e-05
332 3.56469 6.73531 1.13951 0 0 1.00059 1.85434e-05
329 3.70804 6.04307 0.48329 0 0 1.00059 1.78149e-05
331 4.44813 5.8182 1.22383 0 0 1.00059 2.01534e-05
330 4.33761 6.73477 0.227059 0 0 1.00059 2.1495e-05
336 5.13991 6.49185 1.15847 0 0 1.00059 2.43107e-05
333 5.17431 5.9333 0.32109 0 0 1.00059 2.25369e-05
335 6.04865 5.87371 0.957438 0 0 1.00059 2.5638e-05
334 5.92951 6.68146 0.149917 0 0 1.00059 2.7462e-05
337 6.77842 5.71441 0.143825 0 0 1.00059 2.64654e-05
340 6.85938 6.47224 0.972168 0 0 1.00059 3.05401e-05
1177 6.86495 5.61737 1.59746 0 0 1.00059 2.72328e-05
339 7.73621 5.76371 0.758585 0 0 1.00059 2.96695e-05
1178 7.74154 6.42496 1.5955 0 0 1.00059 3.37313e-05
344 8.49718 6.44201 0.713895 0 0 1.00059 3.49547e-05
1181 8.69032 5.72003 1.49706 0 0 1.00059 3.25627e-05
343 9.37064 5.80486 0.740862 0 0 1.00059 3.36656e-05
1182 9.60962 6.54272 1.46269 0 0 1.00059 3.96001e-05
1261 8.57935 7.03582 1.55296 0 0 1.00059 3.96292e-05
1185 10.2745 5.80488 1.48006 0 0 1.00059 3.64082e-05
345 10.2635 5.8902 0.09072 0 0 1.00059 3.5516e-05
347 11.128 5.70179 0.93707 0 0 1.00059 3.55233e-05
346 11.0931 6.61033 0.130587 0 0 1.00059 4.14938e-05
1186 11.0643 6.56583 1.49265 0 0 1.00059 4.31088e-05
348 10.3767 6.80683 0.728637 0 0 1.00059 4.21746e-05
349 11.8786 6.06909 0.0642106 0 0 1.00059 3.84504e-05
352 11.9105 6.82046 0.808366 0 0 1.00059 4.50035e-05
270 12.5343 5.36707 0.18652 0 0 1.00059 3.40379e-05
276 13.2591 5.60474 0.861923 0 0 1.00059 3.65007e-05
351 12.36 5.95734 1.05049 0 0 1.00059 3.91835e-05
1190 12.7611 6.8818 1.38153 0 0 1.00059 4.76173e-05
274 13.8739 5.39085 0.0347657 0 0 1.00059 3.47589e-05
1114 13.954 5.71064 1.57437 0 0 1.00059 3.86206e-05
355 13.9943 6.39937 0.795573 0 0 1.00059 4.22953e-05
280 14.67 5.62911 0.774049 0 0 1.00059 3.7072e-05
1197 14.9961 6.54991 1.4272 0 0 1.00059 4.60881e-05
357 14.7682 6.29987 0.0359959 0 0 1.00059 4.14808e-05
278 15.5935 5.61357 0.0415368 0 0 1.00059 3.58008e-05
284 16.4486 5.79038 0.9424 0 0 1.00059 3.7572e-05
359 15.6979 6.4531 0.80287 0 0 1.00059 4.32384e-05
1118 15.7609 5.85606 1.69398 0 0 1.00059 4.00397e-05
361 16.319 6.39104 0.0481993 0 0 1.00059 4.1644e-05
363 17.1409 6.58512 1.15024 0 0 1.00059 4.35326e-05
282 17.1877 5.54869 0.267565 0 0 1.00059 3.44489e-05
286 18.3947 5.54182 0.524 0 0 1.00059 3.45513e-05
288 17.6931 5.59003 1.24286 0 0 1.00059 3.60954e-05
365 17.7164 6.45137 0.399553 0 0 1.00059 4.17899e-05
367 18.2983 6.47601 1.36191 0 0 1.00059 4.28468e-05
292 19.3144 5.56222 1.19947 0 0 1.00059 3.48588e-05
369 18.9865 6.51153 0.617048 0 0 1.00059 4.09765e-05
290 19.9938 6.07916 0.625708 0 0 1.00059 3.68279e-05
371 19.9253 6.91924 1.34609 0 0 1.00059 4.38529e-05
294 21.2799 6.16843 0.645425 0 0 1.00059 3.51975e-05
296 20.7061 5.98686 1.38925 0 0 1.00059 3.62055e-05
375 21.3389 7.04864 1.30941 0 0 1.00059 4.17496e-05
297 22.0444 5.36215 0.789889 0 0 1.00059 2.95555e-05
299 22.9237 5.59426 1.28492 0 0 1.00059 2.9905e-05
300 22.154 6.30872 1.36863 0 0 1.00059 3.5506e-05
16260 22.1838 6.16246 0.0547506 0 0 1.00059 3.32605e-05
298 23.1187 6.29087 0.652489 0 0 1.00059 3.16506e-05
301 23.9258 5.49704 0.537007 0 0 1.00059 2.59614e-05
303 24.7407 5.72244 1.43807 0 0 1.00059 2.55845e-05
304 23.9222 6.35491 1.28476 0 0 1.00059 3.06e-05
383 24.7552 7.04834 1.17704 0 0 1.00059 3.03304e-05
302 24.5579 6.44423 0.429665 0 0 1.00059 2.85451e-05
305 25.2175 5.6485 0.5669 0 0 1.00059 2.33883e-05
307 26.0377 5.53442 1.35217 0 0 1.00059 2.12383e-05
306 26.0548 6.26618 0.693786 0 0 1.00059 2.26723e-05
308 25.5036 6.47086 1.65511 0 0 1.00059 2.61908e-05
387 26.2345 7.03712 1.40936 0 0 1.00059 2.47816e-05
309 26.8137 5.32182 0.642582 0 0 1.00059 1.80336e-05
312 27.0256 6.22013 1.46885 0 0 1.00059 1.97132e-05
310 27.8072 5.85977 0.712896 0 0 1.00059 1.58765e-05
389 27.0953 6.74104 0.64039 0 0 1.00059 2.01518e-05
391 28.0191 6.78831 1.37056 0 0 1.00059 1.71033e-05
316 28.661 5.79111 1.46786 0 0 1.00059 1.36569e-05
314 29.6486 5.50222 0.813278 0 0 1.00059 9.86585e-06
395 29.7252 6.39425 1.31726 0 0 1.00059 1.07369e-05
393 28.7777 6.48248 0.650217 0 0 1.00059 1.39957e-05
16355 29.659 6.34317 0.0753442 0 0 1.00059 1.08884e-05
16276 28.758 5.64788 0.0466282 0 0 1.00059 1.24701e-05
318 31.2172 5.44299 0.591947 0 0 1.00059 5.71241e-06
320 30.48 5.58984 1.45278 0 0 1.00059 7.69033e-06
397 30.6636 6.31242 0.640418 0 0 1.00059 7.59235e-06
399 31.4855 6.21558 1.37985 0 0 1.00059 5.32482e-06
398 31.4874 7.01185 0.605845 0 0 1.00059 5.0549e-06
401 0.555289 7.6359 0.651474 0 0 1.00059 8.25333e-06
402 1.14385 8.41399 0.603024 0 0 1.00059 1.0547e-05
403 1.40481 7.76894 1.48383 0 0 1.00059 1.15398e-05
404 0.647386 8.54119 1.46265 0 0 1.00059 8.52264e-06
405 1.89823 7.64785 0.381014 0 0 1.00059 1.30313e-05
408 2.0391 8.47433 1.45686 0 0 1.00059 1.45577e-05
406 2.51946 8.44361 0.396844 0 0 1.00059 1.63603e-05
407 2.718 7.62351 1.27813 0 0 1.00059 1.668e-05
412 3.36004 8.26912 0.936926 0 0 1.00059 2.02859e-05
409 3.57502 7.51089 0.328468 0 0 1.00059 1.98931e-05
410 4.17093 8.15682 0.0689823 0 0 1.00059 2.35033e-05
411 4.34081 7.33995 1.21441 0 0 1.0006 2.27678e-05
491 4.28174 8.77493 0.852872 0 0 1.00059 2.52195e-05
413 5.05576 7.31718 0.230946 0 0 1.00059 2.52775e-05
1333 5.06186 8.66755 1.63045 0 0 1.00059 3.00065e-05
416 5.07899 7.91391 0.940831 0 0 1.0006 2.74378e-05
414 6.2854 7.94043 0.187956 0 0 1.00059 3.23114e-05
415 5.88527 7.19842 1.00629 0 0 1.00059 2.85826e-05
495 5.72351 8.54964 0.644009 0 0 1.0006 3.19121e-05
1337 6.5852 8.59901 1.24658 0 0 1.0006 3.74956e-05
420 6.84483 7.75889 1.04644 0 0 1.00059 3.46129e-05
417 6.92344 7.15346 0.155007 0 0 1.00059 3.28455e-05
419 7.7634 7.31248 0.73706 0 0 1.00059 3.68451e-05
1258 7.76075 7.68022 1.68585 0 0 1.00059 3.9251e-05
499 7.61986 8.40114 0.719336 0 0 1.00059 4.03217e-05
421 8.49575 7.18735 0.0153712 0 0 1.00059 3.84487e-05
424 8.77359 7.85244 0.86856 0 0 1.00059 4.32976e-05
423 9.44576 7.19421 0.665267 0 0 1.00059 4.15396e-05
1262 9.62554 8.18869 1.43586 0 0 1.00059 4.97062e-05
501 8.59546 8.5594 0.0793394 0 0 1.00059 4.54305e-05
1341 8.54329 8.65227 1.38836 0 0 1.00059 4.72925e-05
1265 10.2686 7.43371 1.58588 0 0 1.00059 4.74536e-05
428 10.3106 8.17158 0.697055 0 0 1.00059 5.06284e-05
427 11.1818 7.53899 0.830969 0 0 1.00059 4.89192e-05
1266 11.2095 8.30941 1.4319 0 0 1.00059 5.59583e-05
426 11.0028 8.44288 0.018807 0 0 1.00059 5.37119e-05
429 11.8502 7.76024 0.0395128 0 0 1.00059 5.11591e-05
432 11.9853 8.4689 0.726083 0 0 1.00059 5.70481e-05
1269 12.0422 7.46944 1.58179 0 0 1.00059 5.235e-05
356 13.3693 7.07894 0.584285 0 0 1.00059 4.78759e-05
431 12.8319 7.92543 0.600331 0 0 1.00059 5.38065e-05
1270 12.7591 8.36552 1.50384 0 0 1.00059 5.98968e-05
1273 13.5503 7.77189 1.47821 0 0 1.00059 5.64471e-05
360 14.9982 7.268 0.625887 0 0 1.00059 5.02293e-05
435 14.3081 7.95307 0.500985 0 0 1.00059 5.53543e-05
1194 14.187 7.1649 1.3734 0 0 1.00059 4.99129e-05
1277 14.997 8.055 1.36973 0 0 1.00059 5.82498e-05
1274 14.4079 8.70947 1.56846 0 0 1.00059 6.53019e-05
436 13.6542 8.7112 0.782279 0 0 1.00059 6.16608e-05
364 16.3325 7.345 0.889446 0 0 1.00059 4.92822e-05
439 15.8155 8.27285 0.870959 0 0 1.00059 5.82037e-05
1198 15.8711 7.52516 1.6572 0 0 1.00059 5.46605e-05
441 16.5525 8.36811 0.149752 0 0 1.00059 5.71744e-05
443 17.0009 8.27527 1.09923 0 0 1.00059 5.78e-05
362 17.1254 7.3137 0.293719 0 0 1.00059 4.85874e-05
368 17.695 7.52958 1.10581 0 0 1.00059 5.11651e-05
445 17.7548 8.31486 0.307775 0 0 1.00059 5.64231e-05
447 18.4198 8.30865 1.03811 0 0 1.00059 5.54334e-05
366 18.4907 7.43966 0.229214 0 0 1.00059 4.82038e-05
372 18.9414 7.35581 1.15881 0 0 1.00059 4.88779e-05
370 19.6611 7.68544 0.623254 0 0 1.00059 4.79045e-05
451 19.614 8.54009 1.18682 0 0 1.00059 5.63001e-05
449 19.1237 8.52801 0.203653 0 0 1.00059 5.38636e-05
373 20.5841 7.13368 0.608845 0 0 1.00059 4.27374e-05
453 20.4293 8.56272 0.37465 0 0 1.00059 5.26635e-05
376 20.5182 8.08283 1.3221 0 0 1.00059 5.08259e-05
374 21.2896 7.91673 0.644321 0 0 1.00059 4.60986e-05
377 22.1733 7.13395 0.675922 0 0 1.00059 3.90295e-05
379 23.1226 7.1732 1.20945 0 0 1.00059 3.70408e-05
380 22.1155 8.17291 1.14648 0 0 1.00059 4.55562e-05
459 23.106 8.74082 1.0171 0 0 1.00059 4.40846e-05
378 22.8698 7.97976 0.389913 0 0 1.00059 4.05314e-05
381 23.814 7.24522 0.28525 0 0 1.00059 3.41117e-05
384 23.9282 7.84456 1.07379 0 0 1.00059 3.64634e-05
461 23.9531 8.61698 0.362729 0 0 1.00059 3.85376e-05
463 24.7946 8.62919 1.00398 0 0 1.00059 3.56886e-05
382 24.7614 7.81277 0.286536 0 0 1.00059 3.22121e-05
385 25.5543 7.16529 0.496081 0 0 1.00059 2.68745e-05
388 25.5422 7.87521 1.24591 0 0 1.00059 2.98146e-05
467 26.4215 8.47878 0.998346 0 0 1.00059 2.71684e-05
386 26.4587 7.69938 0.377566 0 0 1.00059 2.51153e-05
465 25.6379 8.6072 0.317167 0 0 1.00059 3.09909e-05
390 28.0448 7.34156 0.523376 0 0 1.00059 1.76083e-05
392 27.1606 7.52452 1.33058 0 0 1.00059 2.22089e-05
471 28.1462 8.185 1.21203 0 0 1.00059 1.87533e-05
469 27.3564 8.18751 0.434555 0 0 1.00059 2.18671e-05
394 29.8742 7.12589 0.509185 0 0 1.00059 1.0614e-05
396 28.9624 7.3793 1.23121 0 0 1.00059 1.43505e-05
474 29.8982 8.5918 0.539191 0 0 1.00059 1.1081e-05
475 29.8101 7.90007 1.28019 0 0 1.00059 1.13712e-05
473 29.0158 8.00754 0.417191 0 0 1.00059 1.43789e-05
400 30.6187 7.22639 1.18112 0 0 1.00059 7.8893e-06
479 31.54 7.88349 1.29437 0 0 1.00059 5.11028e-06
480 30.7257 8.63193 1.18884 0 0 1.00059 7.75083e-06
477 30.9265 7.99023 0.386442 0 0 1.00059 6.95796e-06
478 31.7169 8.66372 0.394457 0 0 1.00059 4.09455e-06
482 1.39038 10.1849 0.265316 0 0 1.00059 1.11006e-05
483 1.30973 9.2845 1.1938 0 0 1.00059 1.11592e-05
484 0.531257 9.93103 0.904999 0 0 1.00059 7.51696e-06
481 0.648557 9.32216 0.125297 0 0 1.00059 8.56941e-06
1322 1.09421 10.0572 1.74506 0 0 1.00059 1.00291e-05
485 2.04672 9.29924 0.439449 0 0 1.00059 1.45494e-05
488 2.10309 10.1838 0.971212 0 0 1.00059 1.45761e-05
486 2.87791 10.0303 0.0789551 0 0 1.00059 1.85414e-05
487 2.684 9.22673 1.20708 0 0 1.00059 1.75557e-05
1326 3.06426 9.95979 1.66356 0 0 1.00059 2.00142e-05
489 3.39128 9.08887 0.0925931 0 0 1.00059 2.08279e-05
1329 3.55155 8.95149 1.66432 0 0 1.00059 2.21045e-05
492 3.68869 9.73296 0.742167 0 0 1.00059 2.26881e-05
496 4.9507 9.59153 0.568698 0 0 1.00059 2.9973e-05
1330 4.47001 9.58474 1.58862 0 0 1.00059 2.79561e-05
1409 3.83776 10.4629 1.44206 0 0 1.00059 2.43643e-05
571 4.40816 10.5393 0.532967 0 0 1.00059 2.72458e-05
500 6.6415 9.32058 0.511751 0 0 1.00059 3.87587e-05
1334 5.71664 9.38872 1.17798 0 0 1.00059 3.42377e-05
1417 6.63996 10.0171 1.19404 0 0 1.00059 4.11988e-05
575 5.75426 10.2456 0.444939 0 0 1.00059 3.54615e-05
1413 5.13693 10.3763 1.46313 0 0 1.00059 3.28159e-05
1338 7.61248 9.2249 1.18958 0 0 1.00059 4.48698e-05
1421 8.1414 10.0776 1.33983 0 0 1.00059 5.14391e-05
579 7.35172 10.1438 0.467297 0 0 1.00059 4.55226e-05
504 8.44765 9.41377 0.572263 0 0 1.00059 4.90111e-05
503 9.46862 8.93986 0.714788 0 0 1.00059 5.19796e-05
1342 9.26518 9.67168 1.39877 0 0 1.00059 5.59888e-05
583 9.24776 10.3384 0.673603 0 0 1.00059 5.7525e-05
508 10.175 9.80626 0.668468 0 0 1.00059 6.01168e-05
1345 10.4024 9.06568 1.40979 0 0 1.00059 5.82014e-05
507 11.0611 9.22697 0.665289 0 0 1.00059 5.9942e-05
1346 11.2314 9.68926 1.61798 0 0 1.00059 6.64053e-05
1425 10.1831 10.5467 1.37205 0 0 1.00059 6.68107e-05
512 11.7847 10.1196 0.726006 0 0 1.00059 6.84714e-05
1349 11.9878 9.20524 1.34009 0 0 1.00059 6.45371e-05
511 12.7384 9.45451 0.692106 0 0 1.00059 6.64781e-05
1353 13.2875 9.31157 1.6134 0 0 1.00059 7.03295e-05
1350 12.6316 10.1696 1.58499 0 0 1.00059 7.51442e-05
510 12.3797 10.3175 0.0287006 0 0 1.00059 7.06403e-05
516 13.4567 10.1935 0.949535 0 0 1.00059 7.35579e-05
515 14.2214 9.51208 0.851495 0 0 1.00059 6.84881e-05
1354 14.2034 10.216 1.7006 0 0 1.00059 7.89196e-05
517 14.9455 10.0027 0.218574 0 0 1.00059 7.22967e-05
1357 15.0396 9.67964 1.763 0 0 1.00059 7.48856e-05
514 14.0445 10.4545 0.0290779 0 0 1.00059 7.57466e-05
440 15.161 9.09061 0.781514 0 0 1.00059 6.50294e-05
444 16.6187 9.236 1.13292 0 0 1.00059 6.63148e-05
519 15.8334 9.87031 1.02046 0 0 1.00059 7.22015e-05
521 16.3619 10.2178 0.23561 0 0 1.00059 7.21045e-05
438 15.9674 9.20649 0.128675 0 0 1.00059 6.41934e-05
523 17.1919 10.1265 0.973079 0 0 1.00059 7.22388e-05
442 17.1878 9.21368 0.265216 0 0 1.00059 6.34676e-05
448 17.8088 9.27239 1.11403 0 0 1.00059 6.45298e-05
525 17.8325 10.2644 0.191228 0 0 1.00059 6.96692e-05
527 18.442 10.1769 1.07869 0 0 1.00059 6.91978e-05
446 18.4395 9.39886 0.121806 0 0 1.00059 6.16596e-05
452 18.994 9.2733 0.955711 0 0 1.00059 6.24018e-05
529 19.2369 10.1492 0.310109 0 0 1.00059 6.57716e-05
1369 19.3313 10.0221 1.7197 0 0 1.00059 6.99139e-05
450 19.8774 9.39628 0.222223 0 0 1.00059 5.93026e-05
531 20.1102 10.3818 0.884662 0 0 1.00059 6.43785e-05
455 21.271 8.92667 1.04808 0 0 1.00059 5.28221e-05
456 20.4675 9.44909 1.05093 0 0 1.00059 5.88843e-05
533 20.6026 10.3035 0.0684233 0 0 1.00059 6.08627e-05
535 21.5002 10.3897 0.794145 0 0 1.00059 5.84609e-05
1373 20.8466 10.229 1.6817 0 0 1.00059 6.47295e-05
454 21.36 9.59665 0.207785 0 0 1.00059 5.41663e-05