ITEM: TIMESTEP
3000
ITEM: NUMBER OF ATOMS
32000
ITEM: BOX BOUNDS pp pp pp
0.0000000000000000e+00 3.1748021039364001e+01
0.0000000000000000e+00 3.1748021039364001e+01
0.0000000000000000e+00 3.1748021039364001e+01
ITEM: ATOMS id x y z c_phase c_nbond c_rho v_omega
4 0.123258 1.10207 0.46478 0 0 1.00005 1.49324e-06
83 0.982163 1.6659 0.778302 0 0 1.00005 2.79169e-06
842 0.720747 0.791538 1.4127 0 0 1.00005 1.77866e-06
921 0.0117896 1.6028 1.37477 0 0 1.00005 1.74568e-06
3 0.733985 0.061401 0.616237 0 0 1.00005 1.17586e-06
8 1.71619 0.805048 1.0153 0 0 1.00005 2.66829e-06
85 1.80861 1.47055 0.220863 0 0 1.00005 3.45602e-06
925 1.82946 1.65561 1.76073 0 0 1.00005 3.72282e-06
6 2.52647 0.74244 0.203813 0 0 1.00005 3.29392e-06
7 2.59488 0.0472982 1.03709 0 0 1.00005 2.53006e-06
87 2.65703 1.5342 0.882479 0 0 1.00005 4.36981e-06
846 2.67489 0.8089 1.74505 0 0 1.00005 3.53039e-06
12 3.43966 0.9248 0.95667 0 0 1.00005 4.26235e-06
849 3.50237 0.0833336 1.70564 0 0 1.00005 3.17111e-06
929 3.61536 1.6983 1.7195 0 0 1.00005 5.64614e-06
10 4.11223 0.84839 0.3248 0 0 1.00005 4.63085e-06
16 4.96748 0.556007 1.17327 0 0 1.00005 4.69001e-06
93 4.92807 1.58817 0.383601 0 0 1.00005 6.50762e-06
850 4.35244 0.931113 1.62917 0 0 1.00005 5.01346e-06
9 3.47948 0.102261 0.171159 0 0 1.00005 3.16378e-06
14 5.65253 0.632815 0.325016 0 0 1.00005 5.10824e-06
95 5.89212 1.29785 0.938688 0 0 1.00005 6.64731e-06
97 6.58342 1.37784 0.218312 0 0 1.00005 7.15976e-06
854 5.78868 0.447306 1.69878 0 0 1.00005 4.89418e-06
933 5.03994 1.71124 1.43583 0 0 1.00005 6.98447e-06
20 6.71778 0.377382 0.865617 0 0 1.00005 4.89261e-06
937 6.69821 0.995711 1.69367 0 0 1.00005 6.46271e-06
24 8.27102 0.394757 1.07234 0 0 1.00005 5.00762e-06
99 7.37588 1.20887 0.953638 0 0 1.00005 7.11995e-06
101 8.25599 1.37633 0.236583 0 0 1.00005 7.79583e-06
941 8.13777 1.25729 1.60688 0 0 1.00005 7.64243e-06
18 7.58763 0.634764 0.141107 0 0 1.00005 5.6262e-06
22 8.86236 0.494411 0.272758 0 0 1.00005 5.19306e-06
28 9.55646 0.324427 0.888833 0 0 1.00005 4.53813e-06
103 9.03434 1.29301 1.11183 0 0 1.00005 7.74136e-06
945 9.58313 0.95908 1.76324 0 0 1.00005 6.80828e-06
105 9.64914 1.36011 0.090567 0 0 1.00005 7.92037e-06
32 11.2141 0.204212 0.63292 0 0 1.00005 3.48573e-06
107 10.3717 1.03486 0.823241 0 0 1.00005 6.76046e-06
866 10.5246 0.183651 1.44522 0 0 1.00005 3.73821e-06
949 11.2945 1.00624 1.41769 0 0 1.00005 6.60242e-06
946 10.5926 1.66407 1.72924 0 0 1.00005 9.48681e-06
26 10.2463 0.354528 0.0776685 0 0 1.00005 4.38093e-06
36 12.8778 0.203765 0.636689 0 0 1.00005 2.80151e-06
111 12.0536 1.06402 0.507191 0 0 1.00005 6.50499e-06
870 12.1344 0.306426 1.2995 0 0 1.00005 3.50244e-06
953 12.7299 1.18941 1.37246 0 0 1.00005 7.05828e-06
40 14.3758 0.314853 0.765214 0 0 1.00005 2.81001e-06
115 13.6015 1.10637 0.843673 0 0 1.00005 6.3882e-06
117 14.0539 1.55401 0.166662 0 0 1.00005 8.34272e-06
874 13.6112 0.353675 1.63474 0 0 1.00005 3.21196e-06
957 14.3883 1.1459 1.47671 0 0 1.00005 6.55978e-06
119 14.8903 1.55086 0.663293 0 0 1.00005 8.26894e-06
44 15.7134 0.770179 0.78818 0 0 1.00005 4.66883e-06
123 16.5665 1.5471 0.681871 0 0 1.00005 8.32404e-06
878 15.1468 0.462714 1.641 0 0 1.00005 3.41433e-06
882 16.5537 0.714943 1.34204 0 0 1.00005 4.56899e-06
961 15.6474 1.48621 1.3919 0 0 1.00005 8.20411e-06
38 15.1109 0.709383 0.0678406 0 0 1.00005 4.31213e-06
48 17.2617 0.736631 0.5483 0 0 1.00005 4.69214e-06
127 17.9373 1.58837 0.757323 0 0 1.00005 8.76623e-06
886 17.9233 0.750269 1.42758 0 0 1.00005 5.07257e-06
965 17.2367 1.75419 1.56302 0 0 1.00005 9.80879e-06
51 19.5383 0.0264646 0.66298 0 0 1.00005 2.68716e-06
52 18.7986 0.734173 0.685209 0 0 1.00005 5.1369e-06
131 19.553 1.56602 0.842094 0 0 1.00005 9.01444e-06
889 19.0295 0.16818 1.54476 0 0 1.00005 3.03568e-06
890 19.6028 0.979376 1.68982 0 0 1.00005 6.7545e-06
969 18.6715 1.52213 1.50036 0 0 1.00005 8.8813e-06
55 21.095 0.363197 1.06753 0 0 1.00005 4.70808e-06
56 20.2562 0.788759 0.979557 0 0 1.00005 5.95023e-06
135 21.1191 1.67003 0.953037 0 0 1.00005 9.67077e-06
54 21.194 0.778777 0.218976 0 0 1.00005 6.16192e-06
133 20.3582 1.52692 0.195093 0 0 1.00005 8.88635e-06
57 22.013 0.277076 0.539832 0 0 1.00005 4.74193e-06
59 22.7974 0.445228 1.40662 0 0 1.00005 5.62974e-06
60 22.1206 1.16352 1.33006 0 0 1.00005 7.91716e-06
137 22.0102 1.61486 0.538059 0 0 1.00005 9.33522e-06
58 22.9243 1.08768 0.446999 0 0 1.00005 7.44482e-06
63 24.235 0.39521 1.44962 0 0 1.00005 5.5687e-06
61 23.5722 0.371414 0.574257 0 0 1.00005 5.33649e-06
62 24.4455 1.2006 0.754851 0 0 1.00005 7.52726e-06
64 23.4865 1.26492 1.40232 0 0 1.00005 8.1625e-06
65 24.9601 0.329356 0.551842 0 0 1.00005 5.17859e-06
67 26.0133 0.395796 1.17141 0 0 1.00005 5.11077e-06
68 25.1774 1.14051 1.47987 0 0 1.00005 7.25025e-06
147 25.9411 1.74931 1.35771 0 0 1.00005 8.18695e-06
66 25.8991 0.942704 0.432112 0 0 1.00005 6.22989e-06
70 27.5819 1.29073 0.389303 0 0 1.00005 5.72007e-06
71 27.6197 0.518907 0.874434 0 0 1.00005 4.45265e-06
72 26.7633 1.0403 1.26311 0 0 1.00005 6.01001e-06
913 28.3805 0.346384 1.39887 0 0 1.00005 3.75161e-06
69 26.797 0.251419 0.227283 0 0 1.00005 4.42268e-06
76 28.6569 1.24999 0.742091 0 0 1.00005 4.7141e-06
914 29.3974 0.952864 1.56878 0 0 1.00005 3.74483e-06
993 28.532 1.72871 1.49813 0 0 1.00005 5.67091e-06
917 29.8183 0.178559 1.46099 0 0 1.00005 2.44242e-06
75 29.2785 0.360771 0.615493 0 0 1.00005 3.01574e-06
841 31.5922 0.26648 1.2566 0 0 1.00005 1.03747e-06
79 30.7074 0.49222 0.471214 0 0 1.00005 1.97158e-06
80 30.1079 1.20319 0.774308 0 0 1.00005 3.26188e-06
918 30.8714 0.974402 1.3938 0 0 1.00005 2.34128e-06
82 1.12082 2.43336 0.129151 0 0 1.00005 3.63558e-06
84 0.143489 2.38222 0.812271 0 0 1.00005 2.44373e-06
163 1.30018 3.23388 0.949074 0 0 1.00005 4.57951e-06
922 1.14985 2.35821 1.59152 0 0 1.00005 3.63714e-06
1001 0.398187 3.03006 1.54956 0 0 1.00005 3.21167e-06
161 0.343768 3.09585 0.131694 0 0 1.00005 3.17892e-06
88 1.92012 2.41356 0.783957 0 0 1.00005 4.57599e-06
167 2.67079 3.27293 0.860732 0 0 1.00005 6.60025e-06
926 2.67972 2.22268 1.53418 0 0 1.00005 5.34187e-06
1009 3.27194 3.41651 1.64959 0 0 1.00005 7.87797e-06
86 2.73612 2.37479 0.0557805 0 0 1.00005 5.51975e-06
92 3.39309 2.54562 0.779648 0 0 1.00005 6.57946e-06
91 4.01622 1.83082 0.711322 0 0 1.00005 6.15415e-06
96 4.92549 2.56022 0.815894 0 0 1.00005 8.46976e-06
171 4.21527 3.30614 0.74967 0 0 1.00005 8.93931e-06
930 4.1454 2.63014 1.5829 0 0 1.00005 7.80302e-06
94 5.66282 2.42987 0.13321 0 0 1.00005 8.95913e-06
100 6.57015 2.16669 0.773238 0 0 1.00005 9.18744e-06
175 5.66446 3.18175 0.952957 0 0 1.00005 1.08092e-05
934 5.873 2.18127 1.49634 0 0 1.00005 8.77772e-06
1017 6.53813 3.05093 1.55493 0 0 1.00005 1.18247e-05
177 6.66522 2.91356 0.13386 0 0 1.00005 1.12119e-05
98 7.46692 2.21108 0.139706 0 0 1.00005 9.93552e-06
104 8.09664 2.18669 0.93078 0 0 1.00005 1.03622e-05
179 7.41876 3.05138 0.933065 0 0 1.00005 1.25688e-05
938 7.31221 2.04534 1.5685 0 0 1.00005 9.61813e-06
1021 8.2049 2.98419 1.65156 0 0 1.00005 1.35036e-05
181 8.28753 2.95469 0.0394562 0 0 1.00005 1.29503e-05
102 8.91816 2.07283 0.252243 0 0 1.00005 1.02531e-05
108 9.78735 2.00966 1.10886 0 0 1.00005 1.04746e-05
183 8.94555 2.95591 0.928943 0 0 1.00005 1.36593e-05
942 9.04615 2.20496 1.70436 0 0 1.00005 1.12483e-05
185 9.58085 2.89012 0.212444 0 0 1.00005 1.36508e-05
106 10.2986 2.09956 0.213502 0 0 1.00005 1.07751e-05
112 11.1725 1.81443 0.771312 0 0 1.00005 9.79811e-06
187 10.6422 2.79321 0.921393 0 0 1.00005 1.39966e-05
1029 11.4668 2.81692 1.57626 0 0 1.00005 1.48424e-05
116 12.6898 1.9321 0.594467 0 0 1.00005 1.02726e-05
191 11.9491 2.63028 0.741959 0 0 1.00005 1.35659e-05
950 11.9405 1.90912 1.46553 0 0 1.00005 1.04311e-05
1033 12.872 3.00768 1.68783 0 0 1.00005 1.63963e-05
195 13.2078 3.02012 0.847511 0 0 1.00005 1.58423e-05
954 13.3969 1.98405 1.48066 0 0 1.00005 1.08122e-05
120 14.0422 2.43915 0.926521 0 0 1.00005 1.28733e-05
1037 14.0594 3.37788 1.55709 0 0 1.00005 1.86645e-05
199 14.7274 3.43296 0.883987 0 0 1.00005 1.84814e-05
958 14.8057 2.29558 1.44696 0 0 1.00005 1.24663e-05
118 14.8636 2.51124 0.137338 0 0 1.00005 1.30983e-05
197 14.1857 3.21921 0.0346367 0 0 1.00005 1.68187e-05
114 13.4329 2.2872 0.0590307 0 0 1.00005 1.18779e-05
124 15.7206 2.44303 0.694114 0 0 1.00005 1.28557e-05
203 16.3325 3.20318 0.664772 0 0 1.00005 1.70919e-05
962 16.332 2.48193 1.5259 0 0 1.00005 1.3631e-05
1041 15.4023 3.25625 1.50257 0 0 1.00005 1.80475e-05
201 15.5988 3.25787 0.0211872 0 0 1.00005 1.72312e-05
128 17.0862 2.35587 0.683372 0 0 1.00005 1.24959e-05
207 17.9696 2.93502 0.701078 0 0 1.00005 1.5605e-05
966 18.0418 2.44758 1.58247 0 0 1.00005 1.35631e-05
1045 17.1209 3.1218 1.49611 0 0 1.00005 1.72758e-05
132 18.9116 2.36869 1.014 0 0 1.00005 1.28375e-05
211 19.7285 3.25633 1.27856 0 0 1.00005 1.75762e-05
209 18.9085 3.00758 0.196336 0 0 1.00005 1.5809e-05
130 19.607 2.35291 0.102909 0 0 1.00005 1.25169e-05
973 20.3408 1.80197 1.72541 0 0 1.00005 1.05966e-05
134 21.1762 2.43215 0.458762 0 0 1.00005 1.27574e-05
136 20.2157 2.4819 1.11425 0 0 1.00005 1.3383e-05
215 21.3356 3.3141 1.39275 0 0 1.00005 1.71535e-05
213 20.4447 3.00924 0.335212 0 0 1.00005 1.55265e-05
139 22.8883 2.08576 1.5101 0 0 1.00005 1.12392e-05
138 22.989 2.61958 0.735949 0 0 1.00005 1.27686e-05
140 22.1131 2.51605 1.23859 0 0 1.00005 1.3059e-05
217 22.0107 3.21852 0.600767 0 0 1.00005 1.5769e-05
16179 22.7015 3.41921 0.075096 0 0 1.00005 1.5908e-05
141 23.7557 1.82433 0.624427 0 0 1.00005 9.58805e-06
143 24.4417 2.00399 1.60977 0 0 1.00005 1.01253e-05
142 24.3584 2.69977 0.775862 0 0 1.00005 1.19593e-05
144 23.707 2.92067 1.53687 0 0 1.00005 1.37007e-05
223 24.4937 3.53086 1.55787 0 0 1.00005 1.48965e-05
16108 24.9719 2.86044 0.0159538 0 0 1.00005 1.16855e-05
149 26.5589 1.80666 0.51194 0 0 1.00005 7.5921e-06
145 25.144 1.87059 0.510795 0 0 1.00005 8.8931e-06
146 25.8063 2.62679 0.707799 0 0 1.00005 1.02533e-05
148 25.1739 2.57317 1.52522 0 0 1.00005 1.10924e-05
227 25.7395 3.51568 1.51341 0 0 1.00005 1.29813e-05
152 26.5497 2.57516 1.53057 0 0 1.00005 9.53265e-06
229 26.1865 3.51691 0.599375 0 0 1.00005 1.19133e-05
151 27.5143 1.99693 1.23768 0 0 1.00005 7.13873e-06
153 28.2596 2.09975 0.344413 0 0 1.00005 6.35191e-06
150 27.1 2.70519 0.64532 0 0 1.00005 8.85183e-06
231 27.2161 3.36821 1.41696 0 0 1.00005 1.02547e-05
156 28.266 2.76834 1.20615 0 0 1.00005 7.54432e-06
233 27.996 3.23166 0.3281 0 0 1.00005 8.54766e-06
997 29.9663 1.81447 1.70758 0 0 1.00005 4.22528e-06
155 29.4572 2.05269 0.880378 0 0 1.00005 4.94911e-06
154 29.2067 2.66761 0.29094 0 0 1.00005 5.99706e-06
235 29.2629 3.27292 1.17485 0 0 1.00005 6.82629e-06
159 30.9205 1.98737 0.924402 0 0 1.00005 3.20961e-06
160 30.1927 2.71611 1.00217 0 0 1.00005 4.81282e-06
239 31.0371 3.35504 0.971847 0 0 1.00005 4.25551e-06
998 30.9975 2.69775 1.72664 0 0 1.00005 3.86181e-06
237 30.1225 3.2638 0.134147 0 0 1.00005 5.41737e-06
157 30.4203 1.91268 0.0264358 0 0 1.00005 3.65349e-06
158 31.1539 2.66586 0.0766209 0 0 1.00005 3.48546e-06
164 0.307155 3.78458 0.919039 0 0 1.00005 3.54592e-06
241 0.157584 4.59562 0.482051 0 0 1.00005 3.70771e-06
243 1.15472 4.66744 0.987018 0 0 1.00005 5.48569e-06
244 0.104766 5.26781 1.27779 0 0 1.00005 3.88385e-06
162 1.0542 3.86099 0.0607922 0 0 1.00005 4.7116e-06
168 1.85592 4.04041 0.847419 0 0 1.00005 6.16438e-06
247 2.55635 4.84769 1.13663 0 0 1.00005 8.35767e-06
166 2.66417 4.13679 0.206651 0 0 1.00005 7.63814e-06
245 1.91325 4.96228 0.279025 0 0 1.00005 7.09858e-06
249 3.42488 4.85069 0.161974 0 0 1.00005 1.00407e-05
172 3.50884 4.0663 0.88599 0 0 1.00005 9.08078e-06
176 4.92968 3.98663 1.1821 0 0 1.00005 1.15626e-05
251 4.06578 4.86682 1.14685 0 0 1.00005 1.15877e-05
170 4.27613 4.17203 0.148624 0 0 1.00005 1.05776e-05
253 5.02849 4.72515 0.340251 0 0 1.00005 1.31493e-05
174 5.79374 3.92261 0.197667 0 0 1.00005 1.27056e-05
180 6.50943 3.75031 0.77325 0 0 1.00005 1.34386e-05
255 5.70266 4.71823 1.02581 0 0 1.00005 1.47157e-05
1097 6.68651 4.49301 1.64375 0 0 1.00005 1.64381e-05
260 6.70377 5.11257 0.884038 0 0 1.00005 1.78793e-05
184 8.22142 3.87291 0.701636 0 0 1.00005 1.62908e-05
259 7.43152 4.44195 0.547604 0 0 1.00005 1.70321e-05
1018 7.42126 3.85188 1.49756 0 0 1.00005 1.55002e-05
1101 8.22791 4.59008 1.48665 0 0 1.00005 1.95805e-05
188 9.92168 3.56178 0.88615 0 0 1.00005 1.69332e-05
263 9.10653 4.54615 0.82157 0 0 1.00005 2.02873e-05
265 9.89084 4.48603 0.126992 0 0 1.00005 2.0854e-05
1022 9.10189 3.74486 1.49887 0 0 1.00005 1.73852e-05
1105 9.90035 4.32767 1.65622 0 0 1.00005 2.11879e-05
182 9.00927 3.85005 0.0627946 0 0 1.00005 1.7036e-05
192 11.4352 3.63033 0.78087 0 0 1.00005 1.83361e-05
267 10.6212 4.64655 0.906647 0 0 1.00005 2.29283e-05
269 11.4197 4.67766 0.229675 0 0 1.00005 2.35538e-05
1026 10.7333 3.55198 1.5889 0 0 1.00005 1.81026e-05
1109 11.3992 4.35742 1.7052 0 0 1.00005 2.31483e-05
272 11.4278 5.25531 0.987174 0 0 1.00005 2.72981e-05
186 10.6105 3.83197 0.175884 0 0 1.00005 1.85844e-05
196 12.543 3.56867 0.814887 0 0 1.00005 1.85334e-05
271 12.226 4.5365 1.00055 0 0 1.00005 2.4038e-05
1113 12.7828 4.98144 1.6896 0 0 1.00005 2.8255e-05
275 13.2637 4.67107 0.800735 0 0 1.00005 2.52712e-05
273 12.6767 4.60593 0.0628821 0 0 1.00005 2.4201e-05
200 14.0253 4.12047 0.697282 0 0 1.00005 2.22422e-05
1034 13.5217 4.20913 1.59384 0 0 1.00005 2.36364e-05
1117 14.2481 5.10951 1.52189 0 0 1.00005 2.97308e-05
279 14.9836 5.00851 0.81261 0 0 1.00005 2.8276e-05
1038 15.0066 4.4122 1.59497 0 0 1.00005 2.54829e-05
277 14.1803 4.89696 0.0632367 0 0 1.00005 2.68224e-05
198 14.9962 4.18979 0.0988913 0 0 1.00005 2.26607e-05
204 15.7039 4.06629 0.926113 0 0 1.00005 2.24455e-05
281 15.9181 4.77554 0.18768 0 0 1.00005 2.64507e-05
283 16.6332 4.58536 0.901586 0 0 1.00005 2.56568e-05
1042 16.3568 3.96253 1.69039 0 0 1.00005 2.28298e-05
1121 15.8582 5.05205 1.64242 0 0 1.00005 3.01186e-05
208 17.3028 3.84002 0.812014 0 0 1.00005 2.09193e-05
287 18.1237 4.4993 1.09892 0 0 1.00005 2.50766e-05
1046 17.986 3.6485 1.65665 0 0 1.00005 2.05761e-05
285 17.4925 4.58499 0.0170644 0 0 1.00005 2.50739e-05
206 18.1672 3.86343 0.0609771 0 0 1.00005 2.06132e-05
212 18.9073 3.7197 0.952215 0 0 1.00005 2.00005e-05
289 18.86 4.62323 0.36302 0 0 1.00005 2.48856e-05
291 19.725 4.69458 1.0857 0 0 1.00005 2.53373e-05
292 18.827 5.2925 1.20218 0 0 1.00005 2.98589e-05
210 19.6277 3.78108 0.230058 0 0 1.00005 1.97004e-05
216 20.4678 3.83962 1.23481 0 0 1.00005 2.0161e-05
295 20.9186 4.73961 1.39519 0 0 1.00005 2.47891e-05
297 21.6127 4.97385 0.810372 0 0 1.00005 2.44369e-05
214 21.1122 3.95027 0.513811 0 0 1.00005 1.97588e-05
293 20.1713 4.80364 0.352374 0 0 1.00005 2.49515e-05
219 22.8457 3.65111 1.42129 0 0 1.00005 1.73489e-05
220 21.9688 4.15416 1.31183 0 0 1.00005 2.04465e-05
299 22.5042 5.1999 1.27564 0 0 1.00005 2.4554e-05
218 22.6407 4.36772 0.513717 0 0 1.00005 1.99847e-05
221 23.5959 3.65754 0.783036 0 0 1.00005 1.60414e-05
222 24.3593 4.34197 0.626435 0 0 1.00005 1.72643e-05
224 23.4948 4.5713 1.33517 0 0 1.00005 2.00923e-05
305 24.8781 5.27821 0.567939 0 0 1.00005 1.92862e-05
301 23.5793 5.0878 0.534773 0 0 1.00005 2.13632e-05
228 25.0332 4.52065 1.62297 0 0 1.00005 1.72969e-05
225 25.0825 3.6966 0.801848 0 0 1.00005 1.41149e-05
307 25.7152 5.16074 1.34439 0 0 1.00005 1.7512e-05
232 26.3778 4.30807 1.37261 0 0 1.00005 1.38171e-05
309 26.524 4.99117 0.642142 0 0 1.00005 1.48223e-05
226 25.5504 4.42005 0.390809 0 0 1.00005 1.52889e-05
311 27.3501 4.88643 1.40624 0 0 1.00005 1.31043e-05
236 27.9785 3.98889 1.10499 0 0 1.00005 1.00309e-05
313 28.2947 4.7482 0.706918 0 0 1.00005 1.05251e-05
230 27.0846 4.05754 0.57208 0 0 1.00005 1.16271e-05
234 28.9464 3.78017 0.487079 0 0 1.00005 7.88123e-06
315 29.1034 4.53343 1.33088 0 0 1.00005 8.77685e-06
240 30.012 4.07743 1.02432 0 0 1.00005 6.49623e-06
238 31.0432 3.97783 0.372952 0 0 1.00005 4.66109e-06
317 30.2203 4.68535 0.49064 0 0 1.00005 6.60412e-06
319 30.9934 4.60385 1.41038 0 0 1.00005 5.29968e-06
242 0.924904 5.52915 0.462122 0 0 1.00005 5.51108e-06
248 1.54879 5.50664 1.37968 0 0 1.00005 6.8894e-06
323 0.811817 6.21685 1.27715 0 0 1.00005 5.61418e-06
324 0.274709 6.91859 1.50732 0 0 1.00005 4.51764e-06
322 0.988412 6.94166 0.573438 0 0 1.00005 6.17436e-06
328 1.72431 7.02163 1.23894 0 0 1.00005 8.21889e-06
325 1.91297 6.19278 0.51855 0 0 1.00005 8.09454e-06
252 3.12475 5.60693 1.30019 0 0 1.00005 1.06109e-05
327 2.28323 6.14538 1.41029 0 0 1.00005 9.15186e-06
332 3.27498 6.94893 1.12914 0 0 1.00005 1.26096e-05
246 2.69974 5.60255 0.273812 0 0 1.00005 9.41086e-06
329 3.41546 6.26791 0.499721 0 0 1.00005 1.20241e-05
250 4.20988 5.44826 0.325764 0 0 1.00005 1.27461e-05
256 4.95639 5.41216 1.31631 0 0 1.00005 1.4795e-05
331 4.15652 6.08017 1.22816 0 0 1.00005 1.39599e-05
333 4.84859 6.21602 0.333349 0 0 1.00005 1.58681e-05
336 4.79763 6.78134 1.16005 0 0 1.00005 1.71578e-05
330 4.02431 7.00726 0.222551 0 0 1.00005 1.47989e-05
254 5.80658 5.40162 0.301283 0 0 1.00005 1.64776e-05
335 5.71718 6.22131 0.962907 0 0 1.00005 1.85657e-05
1177 6.48672 5.96201 1.59738 0 0 1.00005 2.05507e-05
340 6.46193 6.84506 1.00736 0 0 1.00005 2.2632e-05
337 6.40612 6.02281 0.153858 0 0 1.00005 1.96855e-05
334 5.57536 7.02939 0.147752 0 0 1.00005 1.98367e-05
264 8.242 5.29284 0.695173 0 0 1.00005 2.17601e-05
339 7.35594 6.13439 0.754826 0 0 1.00005 2.28112e-05
1098 7.42092 5.39509 1.49257 0 0 1.00005 2.09723e-05
1181 8.27146 6.08523 1.49307 0 0 1.00005 2.58628e-05
344 8.04842 6.8273 0.728689 0 0 1.00005 2.74166e-05
1178 7.31495 6.83497 1.59698 0 0 1.00005 2.60789e-05
258 7.35622 5.33664 0.0452595 0 0 1.00005 1.98597e-05
268 9.80175 5.29924 0.793403 0 0 1.00005 2.48635e-05
343 8.9156 6.16382 0.737301 0 0 1.00005 2.70228e-05
1102 9.08661 5.30466 1.59651 0 0 1.00005 2.4465e-05
1185 9.77781 6.16401 1.46916 0 0 1.00005 3.00821e-05
1182 9.13177 6.9228 1.4633 0 0 1.00005 3.21266e-05
345 9.79916 6.20919 0.0948207 0 0 1.00005 2.89971e-05
262 9.02938 5.44456 0.014857 0 0 1.00005 2.38392e-05
347 10.6244 5.99973 0.963167 0 0 1.00005 3.02098e-05
349 11.3554 6.3495 0.0775286 0 0 1.00005 3.29234e-05
346 10.5619 6.91793 0.153549 0 0 1.00005 3.45447e-05
1186 10.5137 6.89992 1.49648 0 0 1.00005 3.60431e-05
270 12.0391 5.60926 0.183673 0 0 1.00005 2.96335e-05
276 12.7198 5.80157 0.862591 0 0 1.00005 3.20829e-05
351 11.8211 6.18866 1.05354 0 0 1.00005 3.35763e-05
1114 13.3726 5.85346 1.55816 0 0 1.00005 3.43508e-05
274 13.3628 5.52712 0.0431237 0 0 1.00005 3.03547e-05
355 13.4019 6.567 0.812765 0 0 1.00005 3.78397e-05
280 14.1083 5.70787 0.774149 0 0 1.00005 3.25292e-05
1197 14.3805 6.64238 1.4097 0 0 1.00005 4.06371e-05
357 14.1794 6.3758 0.039286 0 0 1.00005 3.66057e-05
278 15.071 5.63818 0.0364068 0 0 1.00005 3.19949e-05
284 15.8788 5.73858 0.957668 0 0 1.00005 3.36284e-05
359 15.0983 6.44719 0.807663 0 0 1.00005 3.82306e-05
363 16.5437 6.45837 1.14322 0 0 1.00005 3.90388e-05
1118 15.1594 5.87163 1.69887 0 0 1.00005 3.60969e-05
282 16.6645 5.42434 0.27735 0 0 1.00005 3.06679e-05
361 15.7264 6.33906 0.041308 0 0 1.00005 3.696e-05
286 17.8708 5.31408 0.542318 0 0 1.00005 2.98231e-05
288 17.1585 5.43317 1.24877 0 0 1.00005 3.18459e-05
365 17.1133 6.28315 0.412284 0 0 1.00005 3.65595e-05
367 17.716 6.25937 1.38546 0 0 1.00005 3.7706e-05
369 18.4202 6.24642 0.612803 0 0 1.00005 3.56294e-05
290 19.4729 5.77629 0.622188 0 0 1.00005 3.15653e-05
371 19.3759 6.57933 1.35078 0 0 1.00005 3.81025e-05
373 20.0404 6.77458 0.612176 0 0 1.00005 3.69018e-05
294 20.7906 5.79803 0.654466 0 0 1.00005 2.99138e-05
296 20.2332 5.63236 1.39723 0 0 1.00005 3.08543e-05
375 20.823 6.63897 1.30556 0 0 1.00005 3.57102e-05
377 21.6985 6.69084 0.669615 0 0 1.00005 3.29448e-05
300 21.7007 5.90387 1.38505 0 0 1.00005 2.98341e-05
16260 21.7279 5.75675 0.0546352 0 0 1.00005 2.7759e-05
298 22.7071 5.85532 0.673207 0 0 1.00005 2.65089e-05
379 22.6696 6.7227 1.20883 0 0 1.00005 3.12875e-05
381 23.3832 6.80728 0.270771 0 0 1.00005 2.86538e-05
303 24.3906 5.31357 1.43517 0 0 1.00005 2.12079e-05
304 23.5153 5.91266 1.2999 0 0 1.00005 2.55182e-05
383 24.352 6.59271 1.16145 0 0 1.00005 2.56248e-05
302 24.175 6.03149 0.42846 0 0 1.00005 2.35278e-05
306 25.7095 5.88527 0.701233 0 0 1.00005 1.90962e-05
308 25.1408 6.06688 1.67737 0 0 1.00005 2.21282e-05
385 25.1883 6.76677 0.496542 0 0 1.00005 2.30324e-05
387 25.8548 6.62195 1.40876 0 0 1.00005 2.12564e-05
312 26.714 5.86726 1.4766 0 0 1.00005 1.68452e-05
310 27.5179 5.56109 0.722669 0 0 1.00005 1.36755e-05
389 26.7725 6.38753 0.652191 0 0 1.00005 1.72992e-05
391 27.7231 6.49184 1.36667 0 0 1.00005 1.50698e-05
316 28.3846 5.53737 1.48643 0 0 1.00005 1.18442e-05
390 27.7326 7.02713 0.530954 0 0 1.00005 1.54899e-05
314 29.4061 5.31937 0.818775 0 0 1.00005 8.92194e-06
395 29.4567 6.19466 1.32261 0 0 1.00005 9.83756e-06
394 29.5977 6.91164 0.507869 0 0 1.00005 9.83648e-06
393 28.489 6.22158 0.640429 0 0 1.00005 1.2183e-05
16355 29.3945 6.16373 0.0804906 0 0 1.00005 9.6937e-06
16276 28.501 5.40368 0.0595148 0 0 1.00005 1.09483e-05
318 30.9801 5.37203 0.595554 0 0 1.00005 5.66518e-06
320 30.2336 5.46677 1.46768 0 0 1.00005 7.42333e-06
397 30.4132 6.18986 0.650005 0 0 1.00005 7.31189e-06
399 31.2363 6.15861 1.38472 0 0 1.00005 5.58943e-06
398 31.2181 6.95779 0.604391 0 0 1.00005 5.67795e-06
321 31.741 5.99796 0.44734 0 0 1.00005 4.39461e-06
401 0.2804 7.63253 0.661966 0 0 1.00005 4.456e-06
402 0.851077 8.46084 0.618945 0 0 1.00005 5.93688e-06
403 1.131 7.85834 1.49708 0 0 1.00005 6.85829e-06
404 0.375807 8.56161 1.47055 0 0 1.00005 4.5808e-06
405 1.61231 7.75776 0.372807 0 0 1.00005 8.09045e-06
408 1.74448 8.60902 1.46477 0 0 1.00005 8.9526e-06
326 2.50715 7.13862 0.476013 0 0 1.00005 1.03808e-05
406 2.21313 8.62159 0.400066 0 0 1.00005 1.0311e-05
407 2.41498 7.79961 1.27792 0 0 1.00005 1.07594e-05
412 3.03621 8.49957 0.936326 0 0 1.00005 1.32952e-05
409 3.26539 7.75516 0.327411 0 0 1.00005 1.33088e-05
410 3.83626 8.44029 0.081611 0 0 1.00005 1.6059e-05
411 4.00363 7.64837 1.24648 0 0 1.00005 1.60242e-05
416 4.72951 8.23521 0.923835 0 0 1.00005 1.94568e-05
413 4.6961 7.61703 0.246423 0 0 1.00005 1.80428e-05
1250 3.83602 8.33088 1.76325 0 0 1.00005 1.67087e-05
414 5.89852 8.32114 0.17082 0 0 1.00005 2.40275e-05
415 5.51155 7.5646 1.03051 0 0 1.00005 2.11728e-05
417 6.52253 7.51356 0.16893 0 0 1.00005 2.43584e-05
420 6.42824 8.20566 1.0443 0 0 1.00005 2.64413e-05
419 7.31956 7.73872 0.746944 0 0 1.00005 2.82729e-05
424 8.32119 8.2815 0.869656 0 0 1.00005 3.43183e-05
1258 7.31373 8.14696 1.70063 0 0 1.00005 3.10288e-05
1261 8.0903 7.45666 1.56034 0 0 1.00005 3.1223e-05
421 8.03434 7.575 0.0275464 0 0 1.00005 2.99809e-05
348 9.88171 7.19348 0.725129 0 0 1.00005 3.45698e-05
423 8.95125 7.58621 0.662507 0 0 1.00005 3.34933e-05
428 9.77525 8.58563 0.694336 0 0 1.00005 4.13039e-05
1262 9.1331 8.66167 1.44567 0 0 1.00005 4.05282e-05
1265 9.68869 7.85526 1.59989 0 0 1.00005 3.91588e-05
352 11.3598 7.11881 0.810568 0 0 1.00005 3.80873e-05
427 10.6194 7.91405 0.84406 0 0 1.00005 4.08695e-05
1266 10.6358 8.67161 1.4277 0 0 1.00005 4.67477e-05
1269 11.4556 7.78027 1.60279 0 0 1.00005 4.44634e-05
429 11.2749 8.09135 0.0434036 0 0 1.00005 4.31101e-05
356 12.7573 7.26769 0.568087 0 0 1.00005 4.14594e-05
431 12.2293 8.20905 0.592918 0 0 1.00005 4.67591e-05
1190 12.1193 7.13648 1.37975 0 0 1.00005 4.11077e-05
1270 12.1426 8.65306 1.49298 0 0 1.00005 5.19908e-05
1273 12.9149 7.97708 1.47765 0 0 1.00005 4.89331e-05
360 14.3866 7.34485 0.588785 0 0 1.00005 4.40529e-05
435 13.6713 8.07932 0.468663 0 0 1.00005 4.84166e-05
1194 13.5177 7.3244 1.34545 0 0 1.00005 4.47093e-05
1277 14.3091 8.16794 1.35511 0 0 1.00005 5.21896e-05
362 16.4883 7.1895 0.280507 0 0 1.00005 4.31568e-05
364 15.6867 7.30953 0.920339 0 0 1.00005 4.49563e-05
439 15.1306 8.28758 0.866792 0 0 1.00005 5.21683e-05
443 16.3222 8.1648 1.11271 0 0 1.00005 5.20545e-05
1198 15.2035 7.51854 1.63131 0 0 1.00005 4.88062e-05
441 15.9219 8.31349 0.154567 0 0 1.00005 5.14862e-05
372 18.3274 7.0701 1.13672 0 0 1.00005 4.24293e-05
368 17.0352 7.37013 1.11834 0 0 1.00005 4.57428e-05
445 17.1231 8.1158 0.34044 0 0 1.00005 4.97173e-05
447 17.7645 8.04041 1.03144 0 0 1.00005 4.98565e-05
366 17.8699 7.18152 0.21748 0 0 1.00005 4.22752e-05
370 19.0585 7.35896 0.643958 0 0 1.00005 4.23818e-05
451 18.9839 8.17742 1.18762 0 0 1.00005 4.95013e-05
376 19.9238 7.68451 1.32804 0 0 1.00005 4.44725e-05
453 19.8539 8.16745 0.363531 0 0 1.00005 4.57192e-05
449 18.5055 8.21004 0.175419 0 0 1.00005 4.85845e-05
374 20.7457 7.48932 0.673472 0 0 1.00005 3.97431e-05
455 20.6979 8.47189 1.03861 0 0 1.00005 4.64397e-05
380 21.5873 7.70506 1.15177 0 0 1.00005 3.94579e-05
457 21.6561 8.37792 0.26278 0 0 1.00005 4.14627e-05
459 22.6284 8.21492 1.02193 0 0 1.00005 3.81265e-05
1218 22.4608 7.53611 1.76154 0 0 1.00005 3.72699e-05
378 22.3774 7.51562 0.388748 0 0 1.00005 3.4895e-05
384 23.482 7.35534 1.05565 0 0 1.00005 3.12994e-05
461 23.524 8.11056 0.387108 0 0 1.00005 3.34206e-05
463 24.3778 8.13491 1.00358 0 0 1.00005 3.07848e-05
1302 24.2883 8.76071 1.69254 0 0 1.00005 3.4717e-05
382 24.3706 7.35522 0.272429 0 0 1.00005 2.75405e-05
388 25.1477 7.42522 1.25635 0 0 1.00005 2.5816e-05
467 26.0489 8.03597 0.991418 0 0 1.00005 2.3702e-05
1306 26.0478 8.66234 1.75946 0 0 1.00005 2.62171e-05
386 26.1179 7.3033 0.370517 0 0 1.00005 2.13408e-05
465 25.2585 8.16167 0.310817 0 0 1.00005 2.67113e-05
466 26.2992 8.61535 0.0918568 0 0 1.00005 2.34255e-05
392 26.8095 7.13707 1.34429 0 0 1.00005 1.92378e-05
470 27.9869 8.52702 0.429783 0 0 1.00005 1.65879e-05
471 27.8202 7.85987 1.21586 0 0 1.00005 1.67877e-05
472 27.002 8.6835 1.02747 0 0 1.00005 2.10917e-05
469 27.0214 7.808 0.436038 0 0 1.00005 1.91977e-05
396 28.6723 7.1294 1.23138 0 0 1.00005 1.2975e-05
474 29.6145 8.36854 0.545321 0 0 1.00005 1.06522e-05
475 29.5182 7.69206 1.27781 0 0 1.00005 1.08534e-05
476 28.8008 8.57764 1.18735 0 0 1.00005 1.38902e-05
473 28.7168 7.73656 0.417353 0 0 1.00005 1.31562e-05
400 30.3442 7.10034 1.18054 0 0 1.00005 8.04344e-06
479 31.2691 7.82826 1.302 0 0 1.00005 5.72998e-06
480 30.4495 8.50122 1.18524 0 0 1.00005 8.12609e-06
477 30.6557 7.8805 0.381207 0 0 1.00005 7.24735e-06
478 31.4437 8.62609 0.391501 0 0 1.00005 4.98899e-06
482 1.13835 10.2779 0.274182 0 0 1.00005 6.53362e-06
483 1.03285 9.37174 1.20606 0 0 1.00005 6.43098e-06
484 0.271406 9.92975 0.89905 0 0 1.00005 3.66257e-06
481 0.38617 9.33509 0.123329 0 0 1.00005 4.31805e-06
1322 0.828521 10.1226 1.75275 0 0 1.00005 5.63261e-06
485 1.7751 9.43684 0.452044 0 0 1.00005 8.96296e-06
488 1.84335 10.3618 0.969944 0 0 1.00005 9.29668e-06
486 2.61031 10.26 0.0846252 0 0 1.00005 1.23572e-05
487 2.39395 9.43214 1.2224 0 0 1.00005 1.14776e-05
1326 2.78982 10.2159 1.66446 0 0 1.00005 1.36521e-05
1329 3.22203 9.21844 1.65349 0 0 1.00005 1.49933e-05
489 3.0931 9.35261 0.0809786 0 0 1.00005 1.39569e-05
492 3.39836 10.0138 0.731372 0 0 1.00005 1.57339e-05
491 3.95454 9.08746 0.854333 0 0 1.00005 1.7429e-05
493 4.59978 9.157 0.00694169 0 0 1.00005 2.00449e-05
496 4.62857 9.95027 0.570199 0 0 1.00005 2.12861e-05
1330 4.14301 9.94455 1.61511 0 0 1.00005 1.97978e-05
1333 4.69816 9.04001 1.6472 0 0 1.00005 2.13213e-05
495 5.35585 8.91756 0.658766 0 0 1.00005 2.31356e-05
500 6.2675 9.75994 0.513139 0 0 1.00005 2.90516e-05
1334 5.33892 9.80025 1.16063 0 0 1.00005 2.50302e-05
1337 6.18209 9.02091 1.2556 0 0 1.00005 2.76738e-05
1417 6.26362 10.4731 1.18307 0 0 1.00005 3.11958e-05
499 7.19849 8.84658 0.710015 0 0 1.00005 3.12812e-05
501 8.13184 9.01136 0.0810024 0 0 1.00005 3.57548e-05
504 7.99496 9.88603 0.574439 0 0 1.00005 3.83202e-05
1338 7.20993 9.69906 1.18914 0 0 1.00005 3.45218e-05
1341 8.08232 9.12756 1.39506 0 0 1.00005 3.7474e-05
503 8.97913 9.4148 0.724948 0 0 1.00005 4.16777e-05
508 9.68503 10.2939 0.657479 0 0 1.00005 4.88322e-05
1342 8.78895 10.2187 1.40193 0 0 1.00005 4.54515e-05
1345 9.87473 9.54686 1.40804 0 0 1.00005 4.8206e-05
432 11.4223 8.8165 0.731033 0 0 1.00005 4.8561e-05
426 10.4488 8.85098 0.0385933 0 0 1.00005 4.47134e-05
507 10.5098 9.64448 0.654383 0 0 1.00005 4.96615e-05
1346 10.6809 10.1274 1.62759 0 0 1.00005 5.62492e-05
1349 11.3572 9.59688 1.31335 0 0 1.00005 5.47998e-05
512 11.2591 10.5547 0.716164 0 0 1.00005 5.79755e-05
436 13.0579 8.94015 0.785724 0 0 1.00005 5.40199e-05
511 12.1587 9.78254 0.685736 0 0 1.00005 5.70026e-05
516 12.874 10.4466 0.956881 0 0 1.00005 6.44188e-05
1353 12.6053 9.5856 1.6077 0 0 1.00005 6.06504e-05
1350 12.0299 10.5555 1.59703 0 0 1.00005 6.50729e-05
1274 13.7502 8.82784 1.56656 0 0 1.00005 5.74296e-05
440 14.5265 9.18482 0.760597 0 0 1.00005 5.82308e-05
515 13.59 9.66337 0.83564 0 0 1.00005 6.04657e-05
1354 13.5587 10.3871 1.70299 0 0 1.00005 7.00805e-05
517 14.3299 10.1352 0.216326 0 0 1.00005 6.39902e-05
444 15.9639 9.16078 1.13736 0 0 1.00005 6.01459e-05
1278 15.1208 9.0603 1.7603 0 0 1.00005 6.22918e-05
519 15.1948 9.85366 1.0117 0 0 1.00005 6.4754e-05
521 15.7507 10.1797 0.252412 0 0 1.00005 6.54581e-05
523 16.5691 9.96792 0.964563 0 0 1.00005 6.54227e-05
442 16.5702 9.04164 0.262739 0 0 1.00005 5.67791e-05
438 15.358 9.20157 0.0988023 0 0 1.00005 5.79122e-05
452 18.3607 8.92344 0.948713 0 0 1.00005 5.52911e-05
448 17.1581 9.08295 1.13134 0 0 1.00005 5.88624e-05
525 17.2162 10.0419 0.208646 0 0 1.00005 6.34914e-05
527 17.8384 9.89289 1.07778 0 0 1.00005 6.36967e-05
446 17.8251 9.12864 0.119774 0 0 1.00005 5.60886e-05
456 19.8786 8.99772 1.07075 0 0 1.00005 5.24104e-05
529 18.6574 9.76395 0.304037 0 0 1.00005 5.8955e-05
531 19.5633 9.93723 0.860446 0 0 1.00005 5.86986e-05
532 18.7823 10.4921 1.15451 0 0 1.00005 6.59609e-05
1369 18.7204 9.62226 1.72086 0 0 1.00005 6.32476e-05
450 19.3 8.99422 0.214517 0 0 1.00005 5.22835e-05
533 20.0454 9.82739 0.0751036 0 0 1.00005 5.49656e-05
535 20.9831 9.85771 0.762696 0 0 1.00005 5.24538e-05
1373 20.3057 9.71367 1.68712 0 0 1.00005 5.81535e-05
454 20.8426 9.12229 0.210367 0 0 1.00005 4.82309e-05
460 21.6797 9.08376 0.988733 0 0 1.00005 4.61332e-05
1298 22.4446 8.94097 1.60307 0 0 1.00005 4.39442e-05
539 22.8736 9.74318 0.815474 0 0 1.00005 4.32477e-05
540 22.1451 10.581 0.883283 0 0 1.00005 5.04484e-05
1377 21.9699 9.84591 1.5603 0 0 1.00005 5.04443e-05