ITEM: TIMESTEP
44000
ITEM: NUMBER OF ATOMS
32000
ITEM: BOX BOUNDS pp pp pp
0.0000000000000000e+00 3.1748021039364001e+01
0.0000000000000000e+00 3.1748021039364001e+01
0.0000000000000000e+00 3.1748021039364001e+01
ITEM: ATOMS id x y z c_phase c_nbond c_rho v_omega
4 0.254873 1.1038 0.462782 0 0 1.00101 4.04845e-07
83 1.19452 1.53336 0.772043 0 0 1.00101 2.29243e-06
842 0.821004 0.697912 1.3944 0 0 1.00101 9.32332e-07
921 0.236652 1.61932 1.37398 0 0 1.00101 1.15279e-06
8 1.81277 0.596716 1.00566 0 0 1.00101 1.75719e-06
85 2.01115 1.23731 0.195065 0 0 1.00101 3.01031e-06
925 2.05831 1.37934 1.72724 0 0 1.00101 3.36665e-06
6 2.59954 0.395826 0.179513 0 0 1.00101 2.26428e-06
87 2.85787 1.17347 0.849793 0 0 1.00101 3.96253e-06
846 2.7735 0.456579 1.71526 0 0 1.00101 2.56266e-06
12 3.53424 0.450286 0.941041 0 0 1.00101 3.32357e-06
929 3.84907 1.20643 1.67715 0 0 1.00101 5.1833e-06
10 4.21433 0.315242 0.29159 0 0 1.00101 3.37095e-06
850 4.43089 0.358747 1.61282 0 0 1.00101 4.07457e-06
91 4.28624 1.27511 0.70499 0 0 1.00101 5.86991e-06
93 5.16549 0.975474 0.359241 0 0 1.00101 5.66948e-06
8799 30.7634 15.2892 15.3368 0 0 1.00102 1.95216e-05
95 6.07888 0.626824 0.941952 0 0 1.00101 5.16039e-06
933 5.2696 1.03642 1.4282 0 0 1.00101 6.1663e-06
934 6.21897 1.49213 1.47144 0 0 1.00101 7.95422e-06
94 6.06141 1.73331 0.137481 0 0 1.00101 8.49894e-06
97 6.79093 0.691397 0.205648 0 0 1.00101 5.42862e-06
937 6.83053 0.286403 1.67804 0 0 1.00101 4.41958e-06
99 7.5649 0.492674 0.939595 0 0 1.00101 5.06506e-06
938 7.69335 1.28802 1.54932 0 0 1.00101 8.11619e-06
100 6.95015 1.44553 0.776411 0 0 1.00101 8.18836e-06
98 7.86445 1.46357 0.119235 0 0 1.00101 8.36291e-06
941 8.38147 0.490154 1.61018 0 0 1.00101 5.46038e-06
101 8.49761 0.656365 0.21036 0 0 1.00101 5.47782e-06
103 9.2524 0.585335 1.06806 0 0 1.00101 5.08328e-06
945 9.7951 0.270862 1.74775 0 0 1.00101 3.43239e-06
105 9.90383 0.651896 0.111155 0 0 1.00101 4.72689e-06
102 9.35624 1.37505 0.223136 0 0 1.00101 8.11559e-06
104 8.54648 1.41091 0.929816 0 0 1.00101 8.45795e-06
942 9.53224 1.43214 1.72018 0 0 1.00101 9.16617e-06
108 10.229 1.31887 1.06859 0 0 1.00101 7.77796e-06
107 10.592 0.414631 0.834998 0 0 1.001 3.61866e-06
949 11.5401 0.43146 1.41017 0 0 1.00101 3.29268e-06
946 10.9981 1.06352 1.72047 0 0 1.00101 6.8611e-06
112 11.6466 1.27069 0.779322 0 0 1.00101 7.35976e-06
106 10.7894 1.43769 0.180536 0 0 1.00101 8.07221e-06
111 12.3011 0.595889 0.518729 0 0 1.00101 3.34437e-06
953 13.0499 0.753429 1.37155 0 0 1.00101 3.62354e-06
950 12.4604 1.42739 1.4508 0 0 1.00101 7.67946e-06
116 13.2526 1.56247 0.611047 0 0 1.00101 7.65344e-06
40 14.471 0.147171 0.781308 0 0 1.00101 -5.32362e-07
115 13.9002 0.85085 0.820999 0 0 1.00101 3.18992e-06
117 14.5239 1.30558 0.129172 0 0 1.00101 5.04577e-06
874 13.6952 0.0437891 1.62745 0 0 1.001 -3.90863e-07
957 14.7179 1.01955 1.48103 0 0 1.00101 3.69371e-06
954 13.9784 1.70165 1.45616 0 0 1.00101 7.78058e-06
119 15.3464 1.46333 0.664603 0 0 1.00101 5.31943e-06
44 15.9562 0.769596 0.788576 0 0 1.00101 1.31565e-06
878 15.273 0.406663 1.63261 0 0 1.00101 -4.59431e-07
961 16.1053 1.51967 1.42215 0 0 1.00101 5.57737e-06
38 15.2906 0.616847 0.0689841 0 0 1.001 4.75088e-07
882 16.7734 0.85778 1.35475 0 0 1.00101 1.24282e-06
123 17.0319 1.7343 0.699465 0 0 1.00101 6.0238e-06
48 17.512 0.991615 0.566435 0 0 1.001 1.7755e-06
886 18.1869 1.12488 1.42522 0 0 1.001 2.9046e-06
47 18.1789 0.309661 0.694129 0 0 1.001 -1.00054e-06
885 17.2974 0.0869788 1.4021 0 0 1.001 -2.42467e-06
51 19.5909 0.536475 0.688085 0 0 1.001 3.79062e-07
52 19.038 1.22419 0.7011 0 0 1.001 3.53013e-06
889 19.078 0.652612 1.56165 0 0 1.001 2.21719e-07
890 19.968 1.54956 1.69856 0 0 1.00101 6.20916e-06
55 21.2891 1.04325 1.08602 0 0 1.00101 3.52595e-06
56 20.5153 1.40448 0.945927 0 0 1.00101 4.94308e-06
54 21.4555 1.49416 0.207355 0 0 1.00101 6.25183e-06
893 20.4647 0.53335 1.41503 0 0 1.00101 1.62071e-06
53 20.3131 0.522963 0.0609373 0 0 1.00101 1.69038e-06
17534 20.9685 0.0930154 0.257438 0 0 1.00101 -5.09982e-07
57 22.179 1.061 0.542097 0 0 1.00101 4.53006e-06
59 23.0071 1.21797 1.40549 0 0 1.00101 5.42634e-06
17538 22.7683 0.347414 0.454895 0 0 1.00101 1.52342e-06
17540 21.772 0.148644 0.861741 0 0 1.00101 5.96744e-07
63 24.4457 1.18669 1.40322 0 0 1.001 5.93791e-06
61 23.7278 1.13585 0.554357 0 0 1.001 5.36318e-06
17544 23.5403 0.307048 1.24182 0 0 1.001 2.32578e-06
17542 24.3507 0.285408 0.583196 0 0 1.001 2.64783e-06
65 25.1163 1.08559 0.514686 0 0 1.001 5.51579e-06
67 26.1262 1.09571 1.14969 0 0 1.00101 5.17416e-06
66 26.1354 1.70359 0.410678 0 0 1.00101 6.91948e-06
17548 25.2071 0.525664 1.34024 0 0 1.001 3.82615e-06
17546 25.9218 0.244822 0.329926 0 0 1.00101 3.01892e-06
71 27.7403 1.07935 0.86422 0 0 1.00101 4.32405e-06
72 26.9739 1.7058 1.23851 0 0 1.00101 6.25065e-06
69 26.8866 0.909427 0.243283 0 0 1.00101 4.47081e-06
17552 27.0995 0.307055 0.998803 0 0 1.00101 2.85015e-06
17556 28.3589 0.173153 0.729418 0 0 1.00101 1.91052e-06
913 28.484 0.85183 1.41492 0 0 1.00101 3.10683e-06
76 28.8586 1.68879 0.724252 0 0 1.00101 4.14206e-06
914 29.5429 1.34223 1.55934 0 0 1.00101 2.99305e-06
917 29.867 0.473925 1.44854 0 0 1.00101 1.27321e-06
75 29.3494 0.727466 0.613736 0 0 1.00101 2.03439e-06
841 31.6223 0.312682 1.25211 0 0 1.00101 -8.13913e-07
79 30.789 0.647983 0.475899 0 0 1.00101 4.65892e-07
80 30.2794 1.45252 0.763489 0 0 1.00101 2.04681e-06
918 31.0038 1.12659 1.37214 0 0 1.00101 8.76588e-07
82 1.43709 2.26862 0.0994942 0 0 1.00101 3.64632e-06
84 0.466415 2.37095 0.795271 0 0 1.00101 2.29457e-06
922 1.4606 2.1842 1.57583 0 0 1.00101 3.83345e-06
1001 0.790574 2.98532 1.54234 0 0 1.00101 3.4916e-06
161 0.744896 3.06578 0.115529 0 0 1.00101 3.35389e-06
163 1.7033 3.00116 0.923441 0 0 1.001 5.21688e-06
88 2.2409 2.12106 0.772148 0 0 1.00101 4.64542e-06
167 3.11138 2.86081 0.840255 0 0 1.001 7.54475e-06
926 3.00072 1.84596 1.52609 0 0 1.00101 5.55599e-06
86 3.05764 1.99387 0.038692 0 0 1.00101 5.70048e-06
1005 2.5204 2.75869 1.72721 0 0 1.001 6.32356e-06
1009 3.77402 2.87478 1.62877 0 0 1.00101 9.03713e-06
92 3.75657 2.06321 0.772869 0 0 1.00101 6.99198e-06
171 4.692 2.71286 0.75079 0 0 1.00101 9.54323e-06
930 4.56139 2.04416 1.57294 0 0 1.00101 8.04268e-06
96 5.3131 1.90116 0.812144 0 0 1.00101 8.4222e-06
175 6.21207 2.45769 0.941914 0 0 1.00101 1.10861e-05
173 5.50614 2.62713 0.015646 0 0 1.00101 1.06106e-05
174 6.41737 3.1491 0.145325 0 0 1.00101 1.35979e-05
176 5.55677 3.29567 1.10467 0 0 1.00101 1.28395e-05
1017 7.11316 2.26194 1.52572 0 0 1.00101 1.14024e-05
177 7.14662 2.18508 0.103732 0 0 1.00101 1.06434e-05
179 7.99585 2.24764 0.862669 0 0 1.00101 1.1755e-05
180 7.20427 2.97665 0.778381 0 0 1.00101 1.39202e-05
1018 8.19066 3.00079 1.48798 0 0 1.00101 1.53388e-05
1021 8.81905 2.16899 1.61954 0 0 1.00101 1.21134e-05
181 8.88438 2.18557 0.0232276 0 0 1.00101 1.14505e-05
183 9.59107 2.18072 0.924505 0 0 1.00101 1.21923e-05
1022 9.94199 2.935 1.49091 0 0 1.00101 1.69152e-05
184 9.01118 3.0102 0.690182 0 0 1.00101 1.54592e-05
182 9.85105 3.06935 0.0284867 0 0 1.00101 1.64999e-05
185 10.253 2.19555 0.192912 0 0 1.00101 1.21039e-05
188 10.7255 2.85054 0.854127 0 0 1.00101 1.57668e-05
187 11.3187 2.13642 0.913645 0 0 1.00101 1.16507e-05
1026 11.6167 2.92892 1.58937 0 0 1.00101 1.65883e-05
186 11.5428 3.13241 0.160391 0 0 1.00101 1.6682e-05
1025 10.7408 1.99509 1.73494 0 0 1.00101 1.16189e-05
1029 12.2286 2.27697 1.61346 0 0 1.00101 1.33498e-05
192 12.3627 3.05266 0.824951 0 0 1.00101 1.72748e-05
191 12.6849 2.18631 0.750048 0 0 1.00101 1.25918e-05
196 13.4573 3.19661 0.817849 0 0 1.00101 1.79594e-05
1033 13.7404 2.58253 1.69466 0 0 1.00102 1.35753e-05
195 14.1336 2.73934 0.844272 0 0 1.00101 1.45982e-05
120 14.7765 2.21847 0.914406 0 0 1.00101 1.02161e-05
114 14.088 2.00022 0.0241465 0 0 1.00101 1.0063e-05
194 14.2964 3.41059 0.0396526 0 0 1.00101 1.82136e-05
1037 15.0892 3.14832 1.5506 0 0 1.00101 1.60957e-05
197 15.0811 3.04382 0.0378912 0 0 1.00101 1.47857e-05
199 15.7819 3.33404 0.862151 0 0 1.00101 1.68048e-05
958 15.5696 2.26566 1.46499 0 0 1.00101 1.10943e-05
118 15.6229 2.39912 0.112956 0 0 1.00101 1.06324e-05
124 16.4493 2.48972 0.71154 0 0 1.001 1.07509e-05
1041 16.4483 3.33238 1.51344 0 0 1.00101 1.67563e-05
962 17.1267 2.65454 1.54517 0 0 1.00101 1.21807e-05
203 17.3242 3.39196 0.660865 0 0 1.001 1.65306e-05
965 17.7916 2.01088 1.56323 0 0 1.001 7.39313e-06
128 17.8312 2.64747 0.662266 0 0 1.001 1.14686e-05
1045 18.0634 3.4426 1.49968 0 0 1.001 1.62655e-05
127 18.4481 1.99517 0.743636 0 0 1.001 7.48945e-06
969 19.1854 2.01568 1.49475 0 0 1.001 8.30393e-06
207 18.8457 3.37343 0.718867 0 0 1.001 1.53364e-05
966 18.8083 2.86504 1.60924 0 0 1.001 1.30921e-05
131 20.0295 2.15539 0.840992 0 0 1.00101 8.44327e-06
129 19.3741 2.09339 0.0238969 0 0 1.001 7.8144e-06
132 19.6528 2.96708 1.02396 0 0 1.00101 1.35691e-05
130 20.3249 2.95191 0.112301 0 0 1.00101 1.30598e-05
133 20.831 2.19434 0.200439 0 0 1.00101 9.15854e-06
135 21.587 2.36422 0.949117 0 0 1.00101 1.00447e-05
973 20.8999 2.4742 1.74171 0 0 1.00101 1.12262e-05
136 20.9685 3.15616 1.06247 0 0 1.00101 1.45032e-05
58 23.1996 1.87185 0.474016 0 0 1.00101 7.97809e-06
134 21.8828 3.22642 0.46456 0 0 1.00101 1.43151e-05
60 22.4989 1.98019 1.32823 0 0 1.00101 8.89534e-06
137 22.457 2.42988 0.486226 0 0 1.00101 1.05533e-05
140 22.7382 3.36406 1.21545 0 0 1.00101 1.52723e-05
139 23.4652 2.92329 1.49761 0 0 1.00101 1.24488e-05
62 24.7395 1.97787 0.718745 0 0 1.001 8.21813e-06
138 23.603 3.51332 0.713153 0 0 1.00101 1.4559e-05
64 23.8565 2.05641 1.3662 0 0 1.00101 8.94037e-06
141 24.154 2.68826 0.613264 0 0 1.00101 1.08767e-05
143 24.9117 2.84313 1.54268 0 0 1.001 1.15015e-05
68 25.4689 1.9308 1.42786 0 0 1.001 8.05256e-06
147 26.3234 2.51655 1.35189 0 0 1.00101 9.26721e-06
145 25.5581 2.66024 0.534918 0 0 1.001 1.01107e-05
146 26.3402 3.41244 0.681307 0 0 1.001 1.17319e-05
148 25.7253 3.44055 1.50941 0 0 1.001 1.25059e-05
70 27.8416 1.86794 0.374648 0 0 1.00101 5.72429e-06
149 26.9249 2.49001 0.501461 0 0 1.00101 8.2084e-06
152 27.0314 3.33035 1.51642 0 0 1.00101 1.06065e-05
151 27.8523 2.59392 1.21166 0 0 1.00101 7.16633e-06
150 27.5791 3.36415 0.613459 0 0 1.00101 9.50437e-06
153 28.6186 2.61313 0.336563 0 0 1.00101 6.24352e-06
156 28.7088 3.29051 1.17577 0 0 1.00101 7.53385e-06
993 28.8131 2.23217 1.50165 0 0 1.00101 5.41445e-06
155 29.7403 2.38828 0.867204 0 0 1.00101 4.28262e-06
154 29.6098 3.09781 0.275432 0 0 1.00101 5.6145e-06
997 30.2595 2.10345 1.68852 0 0 1.00101 3.36776e-06
159 31.2018 2.11053 0.911046 0 0 1.00101 1.81767e-06
160 30.5662 2.95135 0.983677 0 0 1.00101 3.49851e-06
239 31.4902 3.45316 0.957126 0 0 1.00101 2.87775e-06
998 31.3744 2.81315 1.71684 0 0 1.00101 2.3612e-06
237 30.5942 3.51336 0.151232 0 0 1.00101 4.59795e-06
157 30.6806 2.12889 0.0312308 0 0 1.00101 2.63018e-06
158 31.5111 2.75598 0.0679715 0 0 1.00101 2.00861e-06
164 0.788937 3.7302 0.899567 0 0 1.00101 4.1313e-06
241 0.719708 4.5822 0.447835 0 0 1.00101 4.60164e-06
162 1.55312 3.68594 0.0622586 0 0 1.00101 5.41619e-06
244 0.74384 5.22526 1.26407 0 0 1.00101 5.49065e-06
1081 1.04003 4.30847 1.755 0 0 1.00101 5.27906e-06
243 1.71339 4.4313 0.964714 0 0 1.001 7.03376e-06
168 2.40028 3.71909 0.844278 0 0 1.001 7.44297e-06
247 3.18169 4.4083 1.09981 0 0 1.00101 1.05334e-05
166 3.22433 3.69942 0.175402 0 0 1.001 9.237e-06
245 2.51185 4.59715 0.266366 0 0 1.001 8.79858e-06
248 2.23768 5.19268 1.34094 0 0 1.001 9.43007e-06
1006 3.05416 3.68715 1.75506 0 0 1.001 9.27193e-06
246 3.39099 5.08986 0.259816 0 0 1.00101 1.1716e-05
249 4.08631 4.27414 0.164423 0 0 1.001 1.22164e-05
172 4.0491 3.52948 0.871548 0 0 1.00101 1.02709e-05
251 4.78894 4.19645 1.13946 0 0 1.00101 1.38872e-05
170 4.85937 3.52204 0.127806 0 0 1.001 1.18761e-05
250 4.97839 4.75651 0.296747 0 0 1.001 1.53443e-05
252 3.89185 5.03926 1.24844 0 0 1.00101 1.3677e-05
253 5.74087 3.98206 0.302023 0 0 1.001 1.49673e-05
255 6.51128 3.87519 1.00197 0 0 1.001 1.6226e-05
254 6.62728 4.54929 0.236736 0 0 1.00101 1.84239e-05
256 5.78218 4.64213 1.23838 0 0 1.00101 1.72883e-05
1097 7.48583 3.64584 1.62613 0 0 1.001 1.74513e-05
260 7.5426 4.27611 0.834895 0 0 1.001 1.92693e-05
259 8.25646 3.58523 0.56853 0 0 1.001 1.77494e-05
258 8.29551 4.42843 0.00665272 0 0 1.001 2.119e-05
1177 7.50537 5.01529 1.58706 0 0 1.001 2.31087e-05
337 7.39884 5.14911 0.113337 0 0 1.001 2.22013e-05
339 8.39855 5.14412 0.747252 0 0 1.001 2.4807e-05
1098 8.41412 4.41241 1.46686 0 0 1.001 2.19208e-05
1101 9.16397 3.69389 1.44745 0 0 1.001 1.93592e-05
264 9.25155 4.39847 0.689215 0 0 1.001 2.26575e-05
1181 9.40832 5.10235 1.48001 0 0 1.001 2.74065e-05
263 10.074 3.72361 0.78505 0 0 1.001 2.00549e-05
262 10.1652 4.57724 0.00169659 0 0 1.001 2.46244e-05
1102 10.2077 4.41327 1.55938 0 0 1.001 2.45225e-05
268 10.9653 4.49913 0.787626 0 0 1.001 2.52669e-05
265 10.8723 3.76328 0.0890272 0 0 1.00101 2.08326e-05
1105 10.9136 3.57093 1.63294 0 0 1.001 2.01413e-05
267 11.7115 3.87782 0.875303 0 0 1.001 2.14976e-05
343 10.1469 5.21992 0.744538 0 0 1.001 2.82679e-05
1185 11.1379 5.2503 1.48306 0 0 1.001 3.06834e-05
266 11.7743 4.75787 0.0145224 0 0 1.00101 2.62832e-05
1106 11.8072 4.47485 1.72566 0 0 1.001 2.59029e-05
269 12.5263 4.10185 0.200352 0 0 1.001 2.25514e-05
1109 12.5229 3.78013 1.67022 0 0 1.00101 2.25051e-05
272 12.7043 4.64478 0.999195 0 0 1.001 2.67321e-05
270 13.3747 5.01368 0.185612 0 0 1.001 2.74269e-05
347 11.9648 5.25415 0.87636 0 0 1.001 2.99423e-05
271 13.4505 4.06788 1.03382 0 0 1.00101 2.40247e-05
273 13.797 4.16325 0.0469782 0 0 1.001 2.25024e-05
1113 14.18 4.52912 1.70687 0 0 1.00101 2.65669e-05
275 14.5004 4.41841 0.75456 0 0 1.00101 2.53569e-05
1034 14.7407 3.89274 1.58474 0 0 1.00101 2.18964e-05
200 15.2132 3.94386 0.690813 0 0 1.00101 2.16503e-05
277 15.4724 4.69737 0.0838446 0 0 1.00101 2.51476e-05
1117 15.625 4.91521 1.49395 0 0 1.00101 2.85207e-05
279 16.406 5.05554 0.831237 0 0 1.00101 2.80926e-05
198 16.1666 4.14622 0.103825 0 0 1.00101 2.07649e-05
1038 16.3205 4.37279 1.60258 0 0 1.00101 2.30777e-05
204 16.8879 4.17168 0.880998 0 0 1.001 2.14557e-05
281 17.1839 4.94794 0.131864 0 0 1.00101 2.53085e-05
1121 17.3253 5.21637 1.66659 0 0 1.00101 2.92913e-05
1042 17.6012 4.22752 1.65838 0 0 1.001 2.28819e-05
283 17.9001 4.96366 0.895521 0 0 1.001 2.60322e-05
208 18.4195 4.22546 0.787469 0 0 1.001 2.07362e-05
209 19.7839 3.61914 0.200033 0 0 1.001 1.71219e-05
285 18.6934 5.08286 0.0457155 0 0 1.001 2.59885e-05
1046 19.0461 4.18146 1.62909 0 0 1.001 2.1318e-05
287 19.3405 5.10173 1.07968 0 0 1.001 2.69133e-05
206 19.2517 4.38546 0.0786594 0 0 1.001 2.08604e-05
212 19.9074 4.35705 0.963149 0 0 1.001 2.12585e-05
213 21.2653 3.81513 0.31084 0 0 1.00101 1.81057e-05
210 20.637 4.51223 0.26052 0 0 1.001 2.1828e-05
211 20.6732 3.9609 1.27149 0 0 1.00101 1.92501e-05
216 21.4402 4.6628 1.1874 0 0 1.00101 2.21769e-05
214 22.131 4.8916 0.505333 0 0 1.00101 2.27781e-05
215 22.2101 4.15997 1.39308 0 0 1.00101 1.85628e-05
217 22.823 4.13626 0.59922 0 0 1.00101 1.8893e-05
220 22.9321 5.11691 1.29453 0 0 1.00101 2.35028e-05
142 24.9504 3.56346 0.750673 0 0 1.00101 1.37689e-05
16179 23.5409 4.34018 0.0217784 0 0 1.00101 1.83087e-05
144 24.3756 3.79249 1.51856 0 0 1.00101 1.55673e-05
219 23.6985 4.55586 1.3862 0 0 1.00101 1.93017e-05
221 24.4101 4.56758 0.750209 0 0 1.00101 1.82558e-05
223 25.2329 4.47824 1.54328 0 0 1.001 1.71254e-05
227 26.4074 4.35035 1.51286 0 0 1.001 1.44891e-05
225 25.789 4.5033 0.730945 0 0 1.001 1.56206e-05
226 26.3547 5.3055 0.431843 0 0 1.001 1.69704e-05
229 26.8505 4.29824 0.590927 0 0 1.001 1.32513e-05
232 27.1199 5.10892 1.36446 0 0 1.001 1.49058e-05
231 27.8062 4.03745 1.39714 0 0 1.00101 1.07845e-05
230 27.7554 4.77289 0.575784 0 0 1.00101 1.2847e-05
233 28.5234 3.81528 0.333517 0 0 1.00101 8.90091e-06
236 28.6102 4.58746 1.11613 0 0 1.00101 1.05058e-05
235 29.7446 3.66351 1.17436 0 0 1.00101 6.35953e-06
234 29.5035 4.24022 0.454522 0 0 1.00101 7.54654e-06
315 29.7275 4.96718 1.29314 0 0 1.00101 8.18289e-06
240 30.5493 4.33644 1.02405 0 0 1.00101 5.56661e-06
238 31.5505 4.10932 0.339329 0 0 1.00101 3.14111e-06
317 30.8078 4.94659 0.461583 0 0 1.00101 5.0342e-06
319 31.5784 4.7224 1.36229 0 0 1.00101 3.45938e-06
242 1.58504 5.33275 0.444748 0 0 1.001 7.2788e-06
323 1.5237 6.00387 1.26832 0 0 1.001 7.93562e-06
324 1.00247 6.85119 1.45742 0 0 1.001 6.76623e-06
321 0.707571 5.98958 0.445482 0 0 1.001 5.48696e-06
398 0.197896 7.01998 0.594567 0 0 1.001 4.12856e-06
399 0.162954 6.24156 1.36515 0 0 1.00101 3.87273e-06
322 1.7172 6.69598 0.55181 0 0 1.001 8.70399e-06
328 2.47444 6.62624 1.22934 0 0 1.001 1.12759e-05
325 2.60921 5.80416 0.47125 0 0 1.00101 1.07299e-05
327 3.0716 5.69322 1.35048 0 0 1.001 1.24271e-05
326 3.28137 6.58499 0.450238 0 0 1.00101 1.39753e-05
332 4.06433 6.31334 1.12871 0 0 1.00101 1.61131e-05
329 4.21525 5.61695 0.444902 0 0 1.00101 1.51461e-05
331 4.9571 5.33951 1.18976 0 0 1.00101 1.7069e-05
330 4.9006 6.2393 0.21283 0 0 1.00101 1.87096e-05
411 4.93063 6.79165 1.15563 0 0 1.00101 2.0066e-05
336 5.73258 5.93811 1.1285 0 0 1.00101 2.11848e-05
333 5.73565 5.41447 0.282003 0 0 1.00101 1.91217e-05
335 6.63507 5.27219 0.935868 0 0 1.00101 2.15987e-05
334 6.56079 6.06605 0.131486 0 0 1.00101 2.37309e-05
415 6.53912 6.57597 0.963109 0 0 1.00101 2.518e-05
413 5.686 6.76021 0.204049 0 0 1.00101 2.22159e-05
340 7.53466 5.82205 0.904085 0 0 1.001 2.59765e-05
417 7.64099 6.52062 0.107475 0 0 1.001 2.87894e-05
420 7.59431 7.01681 1.04127 0 0 1.00101 3.04631e-05
1178 8.4779 5.74718 1.56871 0 0 1.001 2.88864e-05
419 8.53658 6.59343 0.697102 0 0 1.001 3.19509e-05
344 9.25974 5.7951 0.671542 0 0 1.001 2.96149e-05
1261 9.43408 6.33536 1.52035 0 0 1.001 3.4371e-05
1258 8.55525 6.92211 1.64849 0 0 1.001 3.4218e-05
423 10.3185 6.56513 0.655996 0 0 1.001 3.59913e-05
1182 10.4422 5.92065 1.44492 0 0 1.001 3.37658e-05
345 11.0684 5.37436 0.0584298 0 0 1.001 2.98834e-05
348 11.2491 6.18545 0.712075 0 0 1.001 3.54722e-05
1265 11.2591 6.78612 1.56133 0 0 1.001 4.07507e-05
346 12.003 6.13563 0.0826315 0 0 1.001 3.59895e-05
1186 12.023 6.05901 1.47238 0 0 1.001 3.69514e-05
349 12.7738 5.66165 0.0210764 0 0 1.00101 3.23855e-05
352 12.893 6.38858 0.782371 0 0 1.001 3.89572e-05
351 13.2944 5.60702 1.04522 0 0 1.001 3.35463e-05
427 12.1449 6.99231 0.799931 0 0 1.001 4.1986e-05
1269 13.071 7.0166 1.53709 0 0 1.001 4.55871e-05
1190 13.842 6.54221 1.34853 0 0 1.00101 4.07436e-05
276 14.1906 5.36323 0.8598 0 0 1.001 3.12106e-05
1114 14.9379 5.55198 1.58132 0 0 1.00101 3.37798e-05
355 15.0049 6.21738 0.786549 0 0 1.00101 3.71713e-05
356 14.4255 6.83867 0.579659 0 0 1.001 4.1733e-05
1194 15.3149 7.00418 1.40399 0 0 1.00101 4.34694e-05
280 15.6311 5.55265 0.755042 0 0 1.00101 3.26612e-05
357 15.7638 6.24253 0.0143182 0 0 1.00101 3.63096e-05
1197 16.0467 6.4631 1.44994 0 0 1.00101 4.03447e-05
278 16.4922 5.63263 0.0311689 0 0 1.00101 3.07979e-05
359 16.7218 6.54622 0.796821 0 0 1.00101 3.88771e-05
1118 16.7659 5.92553 1.68643 0 0 1.00101 3.55817e-05
361 17.3107 6.5423 0.0391452 0 0 1.00101 3.71196e-05
284 17.4189 5.94653 0.94851 0 0 1.00101 3.32403e-05
363 18.1421 6.87522 1.13605 0 0 1.00101 3.9007e-05
282 18.0674 5.82302 0.23814 0 0 1.001 3.10168e-05
288 18.6069 5.90205 1.21075 0 0 1.001 3.24813e-05
365 18.7155 6.78544 0.363088 0 0 1.001 3.82565e-05
367 19.2712 6.88994 1.30508 0 0 1.001 3.95637e-05
286 19.2956 5.95254 0.468545 0 0 1.001 3.21931e-05
369 19.9388 7.0172 0.59591 0 0 1.001 3.87791e-05
289 20.0865 5.33404 0.353487 0 0 1.001 2.73991e-05
292 20.1546 6.05596 1.18416 0 0 1.00101 3.28377e-05
291 20.8862 5.4773 1.12551 0 0 1.00101 2.7332e-05
293 21.3844 5.67677 0.361796 0 0 1.00101 2.77121e-05
290 20.8724 6.61472 0.621855 0 0 1.00101 3.4584e-05
296 21.5363 6.60594 1.37037 0 0 1.00101 3.41858e-05
295 22.0549 5.70342 1.3312 0 0 1.001 2.82466e-05
294 22.1046 6.8106 0.632899 0 0 1.001 3.32278e-05
297 22.7959 6.00483 0.759668 0 0 1.001 2.78967e-05
300 22.9443 6.98832 1.3395 0 0 1.001 3.31939e-05
16260 22.9634 6.84091 0.0382973 0 0 1.001 3.14984e-05
218 23.6317 5.34193 0.548627 0 0 1.00101 2.27332e-05
299 23.6603 6.25345 1.28592 0 0 1.001 2.79059e-05
224 24.4638 5.54101 1.32979 0 0 1.001 2.26648e-05
298 23.8263 6.99133 0.627331 0 0 1.001 2.97512e-05
301 24.5426 6.15499 0.539144 0 0 1.001 2.43086e-05
304 24.6177 7.06723 1.26797 0 0 1.001 2.84188e-05
222 25.2105 5.32757 0.630256 0 0 1.001 1.98741e-05
228 25.9018 5.42434 1.54249 0 0 1.001 1.89245e-05
303 25.3581 6.35997 1.43934 0 0 1.001 2.33992e-05
305 25.8105 6.23491 0.562023 0 0 1.001 2.14143e-05
307 26.611 6.10773 1.35506 0 0 1.001 1.92317e-05
306 26.6564 6.84797 0.681977 0 0 1.001 2.04975e-05
311 28.1044 5.61588 1.39253 0 0 1.00101 1.36044e-05
309 27.3367 5.81444 0.633939 0 0 1.00101 1.6106e-05
312 27.5654 6.74401 1.45847 0 0 1.00101 1.74643e-05
310 28.3135 6.29239 0.693959 0 0 1.00101 1.38348e-05
313 28.9586 5.33135 0.678474 0 0 1.00101 1.03804e-05
316 29.1504 6.14368 1.44152 0 0 1.00101 1.15137e-05
314 30.0783 5.73751 0.799278 0 0 1.00101 7.95586e-06
393 29.2801 6.84433 0.653729 0 0 1.00101 1.18302e-05
16276 29.2107 5.98833 0.0217018 0 0 1.00101 1.06112e-05
16355 30.1278 6.58412 0.0639775 0 0 1.00101 8.94057e-06
395 30.1898 6.64607 1.3023 0 0 1.00101 8.57795e-06
318 31.6353 5.4962 0.573932 0 0 1.00101 4.19272e-06
320 30.9043 5.72303 1.42138 0 0 1.00101 5.79199e-06
397 31.0999 6.43846 0.616049 0 0 1.00101 5.81675e-06
401 1.03305 7.5598 0.619126 0 0 1.00101 6.37978e-06
402 1.65422 8.24866 0.564494 0 0 1.00101 8.89597e-06
404 1.11597 8.42473 1.43605 0 0 1.00101 6.92999e-06
478 0.444011 8.64611 0.396306 0 0 1.00101 4.20026e-06
479 0.259168 7.8992 1.26976 0 0 1.001 4.102e-06
403 1.87916 7.54588 1.44592 0 0 1.00101 9.84838e-06
405 2.3923 7.38962 0.386171 0 0 1.00101 1.10742e-05
408 2.55734 8.15295 1.43846 0 0 1.00101 1.30871e-05
406 3.059 8.06971 0.381473 0 0 1.00101 1.48205e-05
407 3.24639 7.25603 1.26223 0 0 1.00101 1.47895e-05
487 3.20717 8.79964 1.16893 0 0 1.00101 1.58087e-05
412 3.93805 7.80075 0.918355 0 0 1.00101 1.86272e-05
409 4.12384 7.04074 0.317281 0 0 1.00101 1.74617e-05
410 4.76474 7.62002 0.0376072 0 0 1.00101 2.09246e-05
491 4.87139 8.1866 0.829315 0 0 1.00101 2.29416e-05
1250 4.79068 7.50136 1.73746 0 0 1.00101 2.26468e-05
1329 4.12842 8.42847 1.66128 0 0 1.00101 2.07007e-05
489 3.92939 8.58051 0.0934458 0 0 1.00101 1.8743e-05
1333 5.72873 7.99597 1.59939 0 0 1.00101 2.7986e-05
416 5.71047 7.31186 0.94352 0 0 1.00101 2.46492e-05
495 6.37565 7.88522 0.593636 0 0 1.00101 2.87456e-05
1334 6.39843 8.65704 1.17151 0 0 1.00101 3.19295e-05
414 6.968 7.26764 0.205128 0 0 1.00101 2.85195e-05
1337 7.3108 7.85202 1.20546 0 0 1.00101 3.41696e-05
499 8.37876 7.64499 0.718055 0 0 1.00101 3.54036e-05
1338 8.35792 8.43417 1.16694 0 0 1.00101 4.04297e-05
500 7.32394 8.56124 0.492498 0 0 1.00101 3.50527e-05
424 9.57919 7.14226 0.841039 0 0 1.001 3.73675e-05
501 9.42678 7.82088 0.0468389 0 0 1.001 3.96775e-05
1341 9.37932 7.8854 1.36188 0 0 1.001 4.2007e-05
504 9.28315 8.62575 0.555887 0 0 1.001 4.41239e-05
503 10.3567 8.17466 0.674937 0 0 1.001 4.54063e-05
1262 10.5136 7.42386 1.38713 0 0 1.001 4.28848e-05
428 11.2658 7.53286 0.685912 0 0 1.001 4.41285e-05
1345 11.3641 8.32814 1.37493 0 0 1.001 5.04255e-05
507 12.0559 8.60236 0.655363 0 0 1.001 5.20443e-05
1266 12.2474 7.7448 1.41994 0 0 1.001 4.91743e-05
429 12.8398 7.26885 0.0113658 0 0 1.001 4.38978e-05
432 12.9855 7.96805 0.704894 0 0 1.001 4.94302e-05
1349 13.1002 8.67703 1.37907 0 0 1.001 5.63875e-05
1270 13.8387 7.98311 1.49577 0 0 1.001 5.21916e-05
431 13.862 7.55887 0.588048 0 0 1.001 4.59586e-05
1273 14.6554 7.51741 1.47371 0 0 1.00101 5.04668e-05
436 14.7127 8.45158 0.770372 0 0 1.001 5.40175e-05
435 15.3954 7.84055 0.547695 0 0 1.00101 4.84106e-05
1274 15.5455 8.61406 1.5764 0 0 1.00101 5.90528e-05
360 16.0662 7.22807 0.653629 0 0 1.00101 4.3951e-05
1277 16.1488 8.0001 1.39021 0 0 1.00102 5.14463e-05
437 16.2783 8.32172 0.0403402 0 0 1.00101 5.09212e-05
439 16.9565 8.37135 0.892724 0 0 1.00101 5.21429e-05
1198 17.0128 7.67502 1.68675 0 0 1.00102 4.91309e-05
364 17.3745 7.48488 0.845615 0 0 1.00102 4.38235e-05
441 17.6145 8.57259 0.139057 0 0 1.00101 5.09609e-05
443 18.0992 8.56572 1.07003 0 0 1.00101 5.21785e-05
362 18.178 7.62848 0.295624 0 0 1.00101 4.41401e-05
368 18.7928 7.88469 1.07335 0 0 1.001 4.60423e-05
445 18.8083 8.73511 0.273844 0 0 1.00101 5.22879e-05
447 19.4652 8.83772 1.01653 0 0 1.001 5.13672e-05
366 19.5246 7.93539 0.213466 0 0 1.001 4.49509e-05
372 19.9692 7.89673 1.15169 0 0 1.001 4.67077e-05
370 20.6391 8.30615 0.60921 0 0 1.001 4.52727e-05
371 20.8674 7.53045 1.34671 0 0 1.00101 4.1591e-05
373 21.4869 7.77029 0.590754 0 0 1.001 3.99028e-05
376 21.4863 8.77898 1.3075 0 0 1.001 4.68099e-05
374 22.1884 8.65198 0.585516 0 0 1.001 4.3619e-05
375 22.2172 7.76835 1.29751 0 0 1.001 3.97192e-05
377 22.989 7.88176 0.66238 0 0 1.001 3.71509e-05
378 23.692 8.75403 0.394718 0 0 1.001 3.7967e-05
379 23.8925 7.92828 1.19911 0 0 1.001 3.48086e-05
381 24.5466 7.96562 0.303443 0 0 1.001 3.17707e-05
384 24.6609 8.65051 1.08119 0 0 1.001 3.42102e-05
302 25.2313 7.1029 0.444362 0 0 1.001 2.61847e-05
308 26.1331 7.10039 1.60282 0 0 1.001 2.37042e-05
383 25.4312 7.77764 1.188 0 0 1.001 2.81317e-05
382 25.4358 8.55815 0.307871 0 0 1.001 3.00963e-05
385 26.1738 7.79251 0.493642 0 0 1.001 2.46741e-05
388 26.2004 8.58412 1.22751 0 0 1.001 2.727e-05
387 26.8678 7.67426 1.40833 0 0 1.001 2.23639e-05
389 27.6536 7.26614 0.623309 0 0 1.001 1.78081e-05
386 27.0461 8.31878 0.388396 0 0 1.001 2.29088e-05
392 27.7533 8.10665 1.30588 0 0 1.001 1.9541e-05
469 27.9223 8.76218 0.429034 0 0 1.001 1.95356e-05
391 28.5259 7.22178 1.37397 0 0 1.001 1.4721e-05
390 28.5781 7.79707 0.512433 0 0 1.001 1.52421e-05
471 28.6915 8.66334 1.20932 0 0 1.001 1.64411e-05
396 29.4587 7.72575 1.23728 0 0 1.00101 1.21317e-05
473 29.5184 8.37903 0.417447 0 0 1.001 1.22444e-05
475 30.3119 8.16387 1.27691 0 0 1.00101 9.05936e-06
394 30.348 7.39613 0.4981 0 0 1.00101 8.67883e-06
400 31.0824 7.35021 1.1781 0 0 1.00101 5.9112e-06
480 31.1921 8.76661 1.19175 0 0 1.001 6.02947e-06
477 31.3838 8.08789 0.387317 0 0 1.00101 5.27275e-06
484 0.976229 9.84703 0.912924 0 0 1.00101 5.82719e-06
481 1.0936 9.22095 0.119558 0 0 1.00101 6.27571e-06
1322 1.56849 9.85748 1.72297 0 0 1.00101 8.79564e-06
559 0.243382 9.36547 1.13102 0 0 1.00101 3.2554e-06
558 0.192035 10.0639 0.059474 0 0 1.00101 2.24845e-06
483 1.78676 9.06524 1.16625 0 0 1.00101 9.66215e-06
482 1.83162 9.93906 0.24175 0 0 1.001 9.42471e-06
485 2.52558 8.97724 0.406934 0 0 1.001 1.25149e-05
488 2.56728 9.81142 0.975362 0 0 1.00101 1.28989e-05
567 3.30066 10.2785 0.713519 0 0 1.00101 1.65025e-05
1405 2.39584 10.5013 1.56709 0 0 1.00101 1.29497e-05
486 3.35848 9.56762 0.082592 0 0 1.00101 1.63997e-05
1326 3.55096 9.46009 1.65246 0 0 1.00101 1.8273e-05
492 4.20981 9.19232 0.740695 0 0 1.00101 2.04756e-05
1409 4.33341 9.88328 1.41984 0 0 1.00101 2.21228e-05
571 4.90757 9.88956 0.491045 0 0 1.00101 2.45788e-05
1410 4.98239 10.5326 1.32082 0 0 1.00101 2.63845e-05
1330 5.06393 8.92896 1.54868 0 0 1.00101 2.56839e-05
496 5.53764 8.94372 0.575982 0 0 1.00101 2.71554e-05
575 6.38918 9.48757 0.445594 0 0 1.00101 3.2733e-05
1413 5.71848 9.62774 1.43002 0 0 1.00101 3.03694e-05
1414 6.48295 10.1034 1.1905 0 0 1.00101 3.45267e-05
576 5.6025 10.475 0.369929 0 0 1.00101 2.96703e-05
1417 7.35619 9.22194 1.19404 0 0 1.001 3.80871e-05
579 8.10922 9.28024 0.456124 0 0 1.001 4.12916e-05
580 7.19157 10.0827 0.36423 0 0 1.00101 3.82337e-05
1418 8.14904 10.0464 1.1046 0 0 1.001 4.53237e-05
1421 9.00471 9.22501 1.30453 0 0 1.001 4.67878e-05
584 9.09941 9.97976 0.653026 0 0 1.001 4.83201e-05
1422 10.0597 10.2224 1.35324 0 0 1.001 5.67193e-05
583 10.0989 9.52758 0.648772 0 0 1.001 5.13539e-05
1342 10.1687 8.8179 1.36447 0 0 1.001 4.96441e-05
508 11.0863 9.05354 0.652531 0 0 1.001 5.24457e-05
1425 11.1005 9.71395 1.37278 0 0 1.001 5.92779e-05
588 10.7808 10.4476 0.540506 0 0 1.00101 5.8543e-05
587 11.8011 9.894 0.653089 0 0 1.00101 5.92603e-05
1346 12.2341 9.02352 1.57831 0 0 1.001 5.76705e-05
512 12.7688 9.49376 0.71061 0 0 1.001 5.90631e-05
510 13.4028 9.81048 0.035056 0 0 1.001 6.07907e-05
1429 12.7961 10.1213 1.49593 0 0 1.001 6.58784e-05
589 12.5134 10.4083 0.183811 0 0 1.00101 6.25392e-05
1426 11.8669 10.5154 1.47731 0 0 1.00101 6.65434e-05
1350 13.7102 9.65915 1.5817 0 0 1.001 6.49206e-05
511 13.7827 9.00978 0.685709 0 0 1.001 5.71231e-05
1353 14.4794 8.98412 1.61404 0 0 1.001 6.17055e-05
516 14.4866 9.89582 0.937896 0 0 1.001 6.33516e-05
514 15.0664 10.2174 0.0459545 0 0 1.001 6.45252e-05
591 13.5676 10.5084 0.978991 0 0 1.001 6.6741e-05
515 15.3133 9.35229 0.865193 0 0 1.001 6.05367e-05
1354 15.3202 10.0697 1.69265 0 0 1.00101 6.9205e-05
517 16.0098 9.90784 0.210133 0 0 1.001 6.17228e-05
440 16.2592 9.06052 0.822542 0 0 1.00101 5.73483e-05
520 15.9465 10.5528 1.02879 0 0 1.001 6.6818e-05
519 16.8935 10.0079 1.02205 0 0 1.001 6.46451e-05
438 16.9828 9.3232 0.135501 0 0 1.00101 5.6343e-05
521 17.3927 10.3984 0.218028 0 0 1.001 6.3776e-05
444 17.7127 9.49308 1.13442 0 0 1.00101 5.97295e-05
523 18.2078 10.5059 0.968014 0 0 1.001 6.58544e-05
442 18.2025 9.57865 0.255525 0 0 1.00101 5.81822e-05
448 18.8663 9.70007 1.05897 0 0 1.001 5.8801e-05
446 19.432 9.95039 0.108155 0 0 1.001 5.71995e-05
452 20.0108 9.95189 0.955874 0 0 1.001 5.90981e-05
449 20.1111 9.1407 0.228761 0 0 1.001 5.03478e-05
451 20.6362 9.22444 1.18066 0 0 1.001 5.29008e-05
453 21.3716 9.28991 0.383325 0 0 1.001 5.01994e-05
450 20.809 10.1273 0.229478 0 0 1.001 5.61584e-05
456 21.3942 10.2675 1.02408 0 0 1.001 5.54592e-05
380 22.9781 8.96945 1.1294 0 0 1.001 4.29827e-05
455 22.1809 9.72376 1.06094 0 0 1.001 4.97866e-05
454 22.1834 10.4263 0.227095 0 0 1.001 5.11673e-05
457 22.9897 9.69017 0.269 0 0 1.001 4.45422e-05
460 22.9879 10.506 0.970572 0 0 1.001 4.9233e-05
1298 23.7648 10.4547 1.64655 0 0 1.001 4.65802e-05
459 23.8662 9.61745 1.01504 0 0 1.001 4.1663e-05
461 24.6602 9.44377 0.339074 0 0 1.001 3.638e-05
458 23.9331 10.3945 0.22507 0 0 1.001 4.3224e-05
464 24.6425 10.3978 0.985776 0 0 1.001 3.99947e-05
1302 25.4115 10.2302 1.72491 0 0 1.001 3.67072e-05