ITEM: TIMESTEP
14000
ITEM: NUMBER OF ATOMS
32000
ITEM: BOX BOUNDS pp pp pp
0.0000000000000000e+00 3.1748021039364001e+01
0.0000000000000000e+00 3.1748021039364001e+01
0.0000000000000000e+00 3.1748021039364001e+01
ITEM: ATOMS id x y z c_phase c_nbond c_rho v_omega
4 0.15834 1.13145 0.46616 0 0 1.00045 3.02096e-07
83 1.03826 1.66087 0.77835 0 0 1.00045 2.25399e-06
842 0.745692 0.796507 1.40927 0 0 1.00045 8.67244e-07
921 0.0688102 1.63635 1.37584 0 0 1.00045 8.97474e-07
3 0.730442 0.0693801 0.617061 0 0 1.00045 -1.45403e-07
8 1.7423 0.777625 1.01324 0 0 1.00045 1.94125e-06
85 1.8629 1.43945 0.217297 0 0 1.00045 3.096e-06
925 1.89381 1.61476 1.7538 0 0 1.00045 3.56893e-06
6 2.5496 0.681238 0.201856 0 0 1.00045 2.72088e-06
87 2.71242 1.46787 0.876499 0 0 1.00045 4.3092e-06
846 2.70594 0.743848 1.73804 0 0 1.00045 3.09784e-06
12 3.47015 0.829848 0.956414 0 0 1.00045 4.07233e-06
929 3.68247 1.59494 1.71143 0 0 1.00045 5.91581e-06
10 4.14811 0.737727 0.318991 0 0 1.00045 4.32804e-06
16 4.99778 0.422205 1.15882 0 0 1.00045 4.31454e-06
93 4.99776 1.4545 0.38215 0 0 1.00045 6.82613e-06
850 4.3799 0.811453 1.62871 0 0 1.00045 5.08623e-06
9 3.47535 0.0101497 0.172635 0 0 1.00045 2.28528e-06
91 4.09324 1.71602 0.710794 0 0 1.00045 6.62671e-06
14 5.68156 0.487396 0.317006 0 0 1.00045 4.80889e-06
95 5.95294 1.14883 0.943114 0 0 1.00045 6.74251e-06
97 6.6518 1.22298 0.217309 0 0 1.00045 7.06037e-06
854 5.81212 0.295415 1.69585 0 0 1.00045 4.48022e-06
933 5.11007 1.56194 1.43328 0 0 1.00045 7.58301e-06
20 6.73392 0.224079 0.867103 0 0 1.00045 4.30232e-06
937 6.74757 0.832576 1.6913 0 0 1.00045 6.27893e-06
24 8.28637 0.229232 1.06302 0 0 1.00045 4.20049e-06
99 7.43929 1.04442 0.948473 0 0 1.00045 6.89463e-06
101 8.33258 1.20894 0.233384 0 0 1.00045 7.4169e-06
941 8.21497 1.0819 1.60937 0 0 1.00045 7.61866e-06
18 7.62083 0.477756 0.148591 0 0 1.00045 4.9397e-06
22 8.88747 0.330503 0.26311 0 0 1.00045 4.09105e-06
28 9.57695 0.16342 0.894461 0 0 1.00045 2.87834e-06
103 9.10573 1.1288 1.09884 0 0 1.00045 7.16732e-06
945 9.65564 0.79723 1.76091 0 0 1.00045 5.6284e-06
105 9.73017 1.19622 0.0971669 0 0 1.00045 6.88199e-06
32 11.2211 0.0780168 0.638681 0 0 1.00045 1.22056e-06
107 10.4423 0.893446 0.825875 0 0 1.00045 5.39007e-06
866 10.5286 0.040665 1.44821 0 0 1.00045 1.82106e-06
949 11.3727 0.874169 1.41643 0 0 1.00045 4.85283e-06
946 10.707 1.52206 1.72287 0 0 1.00045 8.51034e-06
26 10.2681 0.207685 0.0780107 0 0 1.00045 2.54568e-06
112 11.3053 1.69028 0.772586 0 0 1.00045 8.6637e-06
36 12.8956 0.129386 0.638188 0 0 1.00045 -1.97387e-07
111 12.1264 0.961858 0.51142 0 0 1.00045 4.37084e-06
870 12.1541 0.200832 1.30225 0 0 1.00045 1.0558e-06
953 12.824 1.09916 1.37266 0 0 1.00045 4.78486e-06
40 14.4033 0.29563 0.771918 0 0 1.00045 -6.00986e-07
115 13.6864 1.05464 0.842442 0 0 1.00045 3.65949e-06
117 14.1834 1.51512 0.158852 0 0 1.00045 5.65177e-06
874 13.6416 0.297871 1.63462 0 0 1.00045 8.672e-08
957 14.4816 1.12822 1.47846 0 0 1.00045 3.56313e-06
119 15.0171 1.55069 0.664805 0 0 1.00045 5.24077e-06
44 15.78 0.797773 0.788567 0 0 1.00045 1.22101e-06
123 16.6874 1.6181 0.684354 0 0 1.00045 5.27359e-06
878 15.1857 0.469615 1.63993 0 0 1.00045 -1.74839e-07
882 16.6119 0.779541 1.34446 0 0 1.00045 9.86878e-07
961 15.7676 1.52104 1.39603 0 0 1.00045 5.29646e-06
38 15.1651 0.715054 0.0689251 0 0 1.00045 7.16288e-07
48 17.3273 0.830881 0.555966 0 0 1.00045 1.02386e-06
127 18.0647 1.71939 0.754269 0 0 1.00045 6.00895e-06
886 17.9857 0.876738 1.4257 0 0 1.00045 1.7406e-06
47 18.1597 0.06289 0.692437 0 0 1.00045 -2.35805e-06
51 19.5416 0.193124 0.668061 0 0 1.00045 -7.0009e-07
52 18.8537 0.892169 0.689063 0 0 1.00045 1.88383e-06
131 19.6704 1.74835 0.841639 0 0 1.00045 6.70414e-06
889 19.0343 0.324667 1.54756 0 0 1.00045 -7.0802e-07
890 19.6824 1.16071 1.69393 0 0 1.00045 4.25673e-06
969 18.8002 1.67312 1.49962 0 0 1.00045 6.21074e-06
129 19.0016 1.75219 0.00153103 0 0 1.00045 6.20604e-06
55 21.1413 0.573203 1.07136 0 0 1.00045 1.74956e-06
56 20.3122 0.984946 0.971234 0 0 1.00045 3.3208e-06
54 21.2436 0.998865 0.214879 0 0 1.00045 3.87366e-06
133 20.4684 1.72988 0.201005 0 0 1.00045 6.83657e-06
893 20.4552 0.0852492 1.43598 0 0 1.00045 -2.36526e-07
53 20.2839 0.0694715 0.0724886 0 0 1.00045 -6.11267e-07
57 22.0396 0.51567 0.538882 0 0 1.00045 2.33234e-06
59 22.8379 0.680492 1.40344 0 0 1.00045 3.4781e-06
60 22.2037 1.40845 1.33138 0 0 1.00045 6.46389e-06
58 22.983 1.3146 0.461676 0 0 1.00045 5.75348e-06
63 24.28 0.634599 1.42845 0 0 1.00045 3.87272e-06
61 23.5987 0.602402 0.575795 0 0 1.00045 3.39281e-06
62 24.5073 1.43139 0.749495 0 0 1.00045 6.36036e-06
64 23.5719 1.50087 1.39547 0 0 1.00045 6.87185e-06
65 24.9861 0.560475 0.544681 0 0 1.00045 3.72597e-06
67 26.0277 0.608306 1.16953 0 0 1.00045 3.69368e-06
68 25.2356 1.37821 1.46738 0 0 1.00045 6.34122e-06
66 25.9462 1.17347 0.426983 0 0 1.00045 5.19368e-06
17548 25.1665 0.0228983 1.36423 0 0 1.00045 2.2649e-06
70 27.6382 1.47557 0.386623 0 0 1.00045 4.64927e-06
71 27.638 0.695584 0.873322 0 0 1.00045 3.05342e-06
72 26.8047 1.2461 1.25711 0 0 1.00045 4.85953e-06
913 28.3994 0.510223 1.40858 0 0 1.00045 2.15626e-06
69 26.8051 0.453903 0.233832 0 0 1.00045 2.97615e-06
76 28.7034 1.39313 0.735561 0 0 1.00045 3.32148e-06
914 29.4236 1.08776 1.56824 0 0 1.00045 2.23609e-06
917 29.8256 0.28239 1.45821 0 0 1.00045 5.26108e-07
75 29.2886 0.487575 0.616807 0 0 1.00045 1.21485e-06
841 31.5971 0.307691 1.25615 0 0 1.00045 -1.30964e-06
79 30.7258 0.561468 0.475159 0 0 1.00045 -1.00937e-07
80 30.1459 1.30088 0.773144 0 0 1.00045 1.57554e-06
918 30.9013 1.04383 1.39085 0 0 1.00045 3.91515e-07
82 1.20496 2.42274 0.124389 0 0 1.00045 3.53096e-06
84 0.226836 2.41133 0.809037 0 0 1.00045 1.99257e-06
163 1.40894 3.20754 0.944241 0 0 1.00045 5.02795e-06
922 1.23279 2.34563 1.58804 0 0 1.00045 3.68078e-06
1001 0.501214 3.05156 1.54767 0 0 1.00045 3.19818e-06
161 0.448238 3.12165 0.130037 0 0 1.00045 2.95961e-06
88 2.00789 2.36879 0.782681 0 0 1.00045 4.7797e-06
167 2.78864 3.19739 0.856338 0 0 1.00045 7.62392e-06
926 2.76688 2.15523 1.5343 0 0 1.00045 5.81504e-06
86 2.8234 2.30537 0.053624 0 0 1.00045 5.95787e-06
1005 2.2327 3.0363 1.75685 0 0 1.00045 6.41953e-06
1009 3.40701 3.30724 1.64626 0 0 1.00045 9.33904e-06
92 3.49296 2.45152 0.780015 0 0 1.00045 7.40054e-06
171 4.34734 3.18004 0.750366 0 0 1.00045 1.02568e-05
930 4.26167 2.50676 1.578 0 0 1.00045 8.82746e-06
96 5.0338 2.41603 0.81578 0 0 1.00045 9.59402e-06
94 5.77733 2.27877 0.136547 0 0 1.00045 9.92988e-06
100 6.68079 2.00301 0.776594 0 0 1.00045 9.80998e-06
175 5.81606 3.01979 0.952826 0 0 1.00045 1.23788e-05
934 5.97643 2.02744 1.48958 0 0 1.00045 9.58043e-06
173 5.14631 3.16805 0.00290143 0 0 1.00045 1.17408e-05
1017 6.70188 2.86916 1.54454 0 0 1.00045 1.31779e-05
177 6.80395 2.74961 0.127887 0 0 1.00045 1.21954e-05
98 7.58504 2.04007 0.135836 0 0 1.00045 1.03763e-05
104 8.23041 2.0081 0.93196 0 0 1.00045 1.07455e-05
179 7.58309 2.86103 0.917309 0 0 1.00045 1.37599e-05
938 7.42583 1.87031 1.56477 0 0 1.00045 1.01236e-05
1021 8.38228 2.7893 1.6429 0 0 1.00045 1.44724e-05
181 8.4585 2.77224 0.0383272 0 0 1.00045 1.35634e-05
102 9.04878 1.91116 0.24883 0 0 1.00045 1.01517e-05
108 9.92036 1.84533 1.09755 0 0 1.00045 9.90482e-06
183 9.12625 2.77291 0.927558 0 0 1.00045 1.45201e-05
942 9.18667 2.02613 1.70631 0 0 1.00045 1.1496e-05
185 9.76965 2.72481 0.206601 0 0 1.00045 1.39372e-05
188 10.1446 3.39267 0.883123 0 0 1.00045 1.75578e-05
106 10.4405 1.94724 0.203437 0 0 1.00045 1.01034e-05
187 10.8319 2.63746 0.917076 0 0 1.00045 1.35161e-05
1029 11.6698 2.68616 1.58306 0 0 1.00045 1.4407e-05
1026 10.9762 3.40159 1.58947 0 0 1.00045 1.82626e-05
192 11.6857 3.4895 0.794681 0 0 1.00045 1.83207e-05
116 12.8399 1.84858 0.599008 0 0 1.00045 8.36127e-06
191 12.1464 2.52565 0.738485 0 0 1.00045 1.2872e-05
950 12.0894 1.79587 1.46404 0 0 1.00045 8.94957e-06
1033 13.111 2.91637 1.69105 0 0 1.00045 1.52335e-05
196 12.7899 3.48843 0.811927 0 0 1.00045 1.83522e-05
195 13.4581 2.94393 0.837758 0 0 1.00045 1.41394e-05
954 13.5607 1.92364 1.47611 0 0 1.00045 8.61175e-06
120 14.2382 2.40197 0.922088 0 0 1.00045 1.0821e-05
1037 14.3357 3.33749 1.55296 0 0 1.00045 1.73067e-05
199 15.0074 3.42203 0.872579 0 0 1.00045 1.68721e-05
958 15.0094 2.30044 1.4407 0 0 1.00045 1.01539e-05
197 14.4273 3.18507 0.0389412 0 0 1.00045 1.51194e-05
114 13.6093 2.23229 0.0541679 0 0 1.00045 1.00021e-05
118 15.0669 2.50512 0.134119 0 0 1.00045 1.09337e-05
124 15.9152 2.47554 0.698314 0 0 1.00045 1.05086e-05
203 16.5962 3.26833 0.671278 0 0 1.00045 1.53093e-05
962 16.5415 2.54401 1.52442 0 0 1.00045 1.12885e-05
1041 15.6847 3.28048 1.50269 0 0 1.00045 1.61149e-05
201 15.8574 3.28923 0.0217298 0 0 1.00045 1.56573e-05
965 17.3812 1.84979 1.56242 0 0 1.00045 7.06546e-06
128 17.2805 2.45677 0.680215 0 0 1.00045 1.01969e-05
207 18.1985 3.07666 0.707224 0 0 1.00045 1.39205e-05
966 18.2375 2.5795 1.5896 0 0 1.00045 1.15885e-05
1045 17.3717 3.22389 1.49891 0 0 1.00045 1.54058e-05
132 19.0941 2.54494 1.01242 0 0 1.00045 1.09167e-05
211 19.9596 3.45899 1.27351 0 0 1.00045 1.68706e-05
209 19.1296 3.19038 0.18905 0 0 1.00045 1.46031e-05
130 19.7885 2.53234 0.106321 0 0 1.00045 1.08551e-05
135 21.2265 1.87911 0.960294 0 0 1.00045 8.00434e-06
973 20.474 2.00296 1.73549 0 0 1.00045 8.87062e-06
134 21.3522 2.6674 0.45557 0 0 1.00045 1.15967e-05
136 20.4046 2.68404 1.10255 0 0 1.00045 1.23271e-05
213 20.6449 3.24708 0.328005 0 0 1.00045 1.48529e-05
137 22.1128 1.85954 0.522789 0 0 1.00045 8.10102e-06
139 23.0272 2.32733 1.51436 0 0 1.00045 1.03372e-05
138 23.1367 2.88206 0.730678 0 0 1.00045 1.21717e-05
140 22.2608 2.76605 1.23712 0 0 1.00045 1.26341e-05
217 22.2054 3.48173 0.604324 0 0 1.00045 1.59837e-05
141 23.8461 2.07957 0.621409 0 0 1.00045 8.64515e-06
143 24.5465 2.25384 1.59279 0 0 1.00045 9.65625e-06
142 24.5012 2.95646 0.773542 0 0 1.00045 1.1906e-05
144 23.8665 3.17672 1.53403 0 0 1.00045 1.3685e-05
16108 25.1138 3.09492 0.0103611 0 0 1.00045 1.16408e-05
147 26.0265 1.9809 1.35506 0 0 1.00045 7.60158e-06
149 26.6423 2.01727 0.511838 0 0 1.00045 6.90156e-06
145 25.2393 2.10814 0.52018 0 0 1.00045 8.37673e-06
146 25.9337 2.86139 0.701812 0 0 1.00045 1.01683e-05
148 25.31 2.83188 1.52074 0 0 1.00045 1.08225e-05
152 26.6616 2.80501 1.52811 0 0 1.00045 9.29793e-06
151 27.5937 2.18593 1.23113 0 0 1.00045 6.30636e-06
153 28.3453 2.26744 0.344474 0 0 1.00045 5.48206e-06
150 27.2157 2.91024 0.636749 0 0 1.00045 8.46886e-06
156 28.3726 2.93744 1.19854 0 0 1.00045 6.95433e-06
233 28.1241 3.41978 0.334806 0 0 1.00045 8.29881e-06
993 28.5956 1.89265 1.50279 0 0 1.00045 4.61003e-06
997 30.0371 1.92024 1.70472 0 0 1.00045 2.87957e-06
155 29.5258 2.16834 0.881425 0 0 1.00045 3.69359e-06
154 29.3027 2.81715 0.286784 0 0 1.00045 5.11144e-06
235 29.3847 3.40658 1.17914 0 0 1.00045 6.0667e-06
159 30.9896 2.05145 0.922682 0 0 1.00045 1.48155e-06
160 30.2876 2.81379 0.999184 0 0 1.00045 3.41119e-06
239 31.1529 3.41255 0.97258 0 0 1.00045 2.90041e-06
998 31.0922 2.76185 1.72565 0 0 1.00045 2.27005e-06
237 30.2438 3.35808 0.145457 0 0 1.00045 4.38203e-06
157 30.4833 1.99923 0.0304358 0 0 1.00045 2.08205e-06
158 31.2445 2.72287 0.0762206 0 0 1.00045 1.84707e-06
164 0.434318 3.8038 0.91751 0 0 1.00045 3.63558e-06
241 0.304284 4.62901 0.475201 0 0 1.00045 4.0614e-06
243 1.30144 4.64294 0.984181 0 0 1.00045 6.50058e-06
162 1.18517 3.84673 0.0655447 0 0 1.00045 5.05859e-06
168 2.00162 3.99085 0.846931 0 0 1.00045 7.13493e-06
247 2.71986 4.76684 1.12561 0 0 1.00045 1.00884e-05
166 2.81232 4.05635 0.201521 0 0 1.00045 9.05152e-06
245 2.07352 4.90204 0.279622 0 0 1.00045 8.37625e-06
249 3.60047 4.7325 0.163393 0 0 1.00045 1.20768e-05
172 3.65602 3.95527 0.883402 0 0 1.00045 1.06307e-05
251 4.25865 4.72404 1.14729 0 0 1.00045 1.40244e-05
170 4.43383 4.0305 0.144208 0 0 1.00045 1.23705e-05
176 5.0997 3.83588 1.1635 0 0 1.00045 1.36312e-05
253 5.22042 4.56182 0.329979 0 0 1.00045 1.55997e-05
174 5.96038 3.75083 0.184838 0 0 1.00045 1.48055e-05
255 5.92463 4.52305 1.02636 0 0 1.00045 1.7394e-05
254 6.02161 5.19932 0.288959 0 0 1.00045 1.92362e-05
256 5.17701 5.23989 1.29664 0 0 1.00045 1.76612e-05
180 6.70539 3.57367 0.778011 0 0 1.00045 1.52387e-05
1097 6.90755 4.2957 1.64305 0 0 1.00045 1.89684e-05
260 6.92865 4.91548 0.868638 0 0 1.00045 2.05342e-05
259 7.65627 4.24023 0.553278 0 0 1.00045 1.93034e-05
1018 7.63314 3.6517 1.49734 0 0 1.00045 1.7365e-05
258 7.60935 5.12199 0.0344777 0 0 1.00045 2.26714e-05
1098 7.69336 5.15745 1.49148 0 0 1.00045 2.38952e-05
184 8.44269 3.66748 0.702598 0 0 1.00045 1.78082e-05
1101 8.48595 4.37368 1.47743 0 0 1.00045 2.16824e-05
264 8.5134 5.07715 0.695343 0 0 1.00045 2.43863e-05
263 9.36764 4.34747 0.813274 0 0 1.00045 2.21785e-05
1022 9.32699 3.55567 1.49801 0 0 1.00045 1.90846e-05
182 9.2391 3.66249 0.055855 0 0 1.00045 1.82666e-05
1102 9.38615 5.08617 1.58304 0 0 1.00045 2.7082e-05
262 9.33339 5.2379 0.0192087 0 0 1.00045 2.63586e-05
268 10.1153 5.10403 0.792457 0 0 1.00045 2.70131e-05
265 10.1558 4.31526 0.123786 0 0 1.00045 2.22149e-05
1105 10.1822 4.14102 1.65427 0 0 1.00045 2.25352e-05
267 10.9158 4.45583 0.89824 0 0 1.00045 2.38469e-05
269 11.7171 4.53446 0.215997 0 0 1.00045 2.37811e-05
1109 11.7024 4.22131 1.69306 0 0 1.00045 2.4118e-05
186 10.8688 3.66507 0.169529 0 0 1.00045 1.88305e-05
1106 10.8893 5.0172 1.75559 0 0 1.00045 2.82225e-05
272 11.7719 5.10241 0.999318 0 0 1.00045 2.85219e-05
271 12.5402 4.41888 0.998333 0 0 1.00045 2.4467e-05
1113 13.1692 4.8571 1.68592 0 0 1.00045 2.8124e-05
273 12.9817 4.50235 0.0554475 0 0 1.00045 2.41335e-05
275 13.5987 4.61636 0.788585 0 0 1.00045 2.52292e-05
200 14.3415 4.07671 0.693399 0 0 1.00045 2.10474e-05
1034 13.8511 4.14001 1.58881 0 0 1.00045 2.29894e-05
1117 14.6216 5.06402 1.52186 0 0 1.00045 2.96703e-05
277 14.5296 4.84847 0.0728182 0 0 1.00045 2.57815e-05
279 15.3596 5.02402 0.810965 0 0 1.00045 2.75158e-05
198 15.3092 4.18861 0.102327 0 0 1.00045 2.12661e-05
1038 15.3629 4.40863 1.59256 0 0 1.00045 2.41248e-05
204 16.0175 4.10428 0.912874 0 0 1.00045 2.11698e-05
281 16.2559 4.82672 0.179083 0 0 1.00045 2.5268e-05
1042 16.6863 4.04032 1.68094 0 0 1.00045 2.1726e-05
1121 16.2526 5.09304 1.64376 0 0 1.00045 2.94149e-05
283 16.9739 4.68804 0.902208 0 0 1.00045 2.47473e-05
208 17.5999 3.95415 0.806688 0 0 1.00045 1.944e-05
1046 18.2683 3.80405 1.65415 0 0 1.00045 1.94409e-05
285 17.8068 4.72433 0.0222293 0 0 1.00045 2.42558e-05
287 18.4441 4.66441 1.09283 0 0 1.00045 2.45526e-05
206 18.4543 4.01581 0.0677605 0 0 1.00045 1.92924e-05
212 19.1658 3.90968 0.956782 0 0 1.00045 1.92047e-05
289 19.1807 4.82324 0.355873 0 0 1.00045 2.47693e-05
291 20.0253 4.91371 1.10568 0 0 1.00045 2.52715e-05
210 19.8872 3.99157 0.240268 0 0 1.00045 1.91949e-05
215 21.5585 3.56844 1.3877 0 0 1.00045 1.65199e-05
216 20.7185 4.0795 1.23149 0 0 1.00045 1.97089e-05
295 21.2111 5.00961 1.38261 0 0 1.00045 2.54508e-05
214 21.3754 4.2167 0.513459 0 0 1.00045 1.98134e-05
293 20.4922 5.04726 0.344553 0 0 1.00045 2.49231e-05
16179 22.9166 3.6852 0.052859 0 0 1.00045 1.58612e-05
297 21.9226 5.26529 0.792456 0 0 1.00045 2.54133e-05
219 23.0659 3.91397 1.41176 0 0 1.00045 1.74474e-05
220 22.2161 4.42969 1.31 0 0 1.00045 2.10109e-05
218 22.8981 4.64848 0.529156 0 0 1.00045 2.05914e-05
223 24.6778 3.80899 1.55708 0 0 1.00045 1.53598e-05
221 23.7987 3.92312 0.774905 0 0 1.00045 1.64128e-05
222 24.5732 4.63336 0.629448 0 0 1.00045 1.82582e-05
224 23.7395 4.85549 1.33825 0 0 1.00045 2.12234e-05
228 25.2545 4.7874 1.60448 0 0 1.00045 1.80475e-05
227 25.9033 3.76551 1.5174 0 0 1.00045 1.32943e-05
229 26.3511 3.75741 0.59434 0 0 1.00045 1.21656e-05
225 25.2602 3.93691 0.784598 0 0 1.00045 1.4469e-05
232 26.5658 4.55236 1.37263 0 0 1.00045 1.42911e-05
309 26.7296 5.24278 0.641738 0 0 1.00045 1.56665e-05
226 25.7551 4.68725 0.402927 0 0 1.00045 1.59949e-05
231 27.3647 3.57824 1.41348 0 0 1.00045 1.01042e-05
311 27.5413 5.11311 1.40183 0 0 1.00045 1.35887e-05
236 28.1332 4.17836 1.10761 0 0 1.00045 1.01653e-05
230 27.2488 4.27543 0.579081 0 0 1.00045 1.21357e-05
313 28.4639 4.93828 0.701998 0 0 1.00045 1.04155e-05
234 29.0845 3.93795 0.477746 0 0 1.00045 7.44047e-06
315 29.2605 4.68427 1.32218 0 0 1.00045 8.39948e-06
240 30.148 4.17667 1.02811 0 0 1.00045 5.62573e-06
238 31.1741 4.05042 0.363321 0 0 1.00045 3.21428e-06
317 30.3745 4.7969 0.479483 0 0 1.00045 5.42383e-06
319 31.1446 4.67606 1.3972 0 0 1.00045 3.89366e-06
244 0.271755 5.29613 1.27488 0 0 1.00045 4.62077e-06
242 1.09826 5.5146 0.459923 0 0 1.00045 6.52541e-06
323 0.99909 6.19831 1.27475 0 0 1.00045 6.84919e-06
324 0.461851 6.9445 1.49715 0 0 1.00045 5.714e-06
322 1.18026 6.91683 0.568467 0 0 1.00045 7.55805e-06
321 0.176977 6.03698 0.447813 0 0 1.00045 4.43765e-06
248 1.72834 5.46192 1.37195 0 0 1.00045 8.54524e-06
328 1.921 6.95687 1.23927 0 0 1.00045 1.02023e-05
325 2.09424 6.1292 0.508159 0 0 1.00045 9.94172e-06
252 3.32737 5.49794 1.2893 0 0 1.00045 1.3124e-05
327 2.4874 6.06592 1.40352 0 0 1.00045 1.14792e-05
246 2.88415 5.50096 0.272104 0 0 1.00045 1.13095e-05
326 2.7079 7.03024 0.468498 0 0 1.00045 1.28864e-05
332 3.48309 6.81773 1.13529 0 0 1.00045 1.53182e-05
329 3.62536 6.12864 0.486582 0 0 1.00045 1.45616e-05
250 4.41466 5.29894 0.321479 0 0 1.00045 1.53009e-05
331 4.36543 5.91433 1.22369 0 0 1.00045 1.6966e-05
330 4.24806 6.83394 0.22442 0 0 1.00045 1.79252e-05
336 5.04287 6.59785 1.15683 0 0 1.00045 2.08235e-05
333 5.08279 6.03634 0.323222 0 0 1.00045 1.90932e-05
335 5.95529 5.99585 0.955945 0 0 1.00045 2.2217e-05
337 6.67692 5.82687 0.144418 0 0 1.00045 2.29459e-05
334 5.82966 6.80406 0.147828 0 0 1.00045 2.36457e-05
340 6.74795 6.60258 0.979604 0 0 1.00045 2.68457e-05
1177 6.75971 5.73809 1.59419 0 0 1.00045 2.40129e-05
339 7.63038 5.89163 0.754302 0 0 1.00045 2.61675e-05
344 8.37294 6.57528 0.71571 0 0 1.00045 3.11211e-05
1178 7.62181 6.56378 1.59299 0 0 1.00045 3.01728e-05
1181 8.57387 5.84638 1.49312 0 0 1.00045 2.91792e-05
343 9.24483 5.92943 0.735531 0 0 1.00045 3.00349e-05
1182 9.47589 6.67368 1.45854 0 0 1.00045 3.57598e-05
1185 10.135 5.92755 1.47339 0 0 1.00045 3.28751e-05
345 10.1348 6.00306 0.0895663 0 0 1.00045 3.15666e-05
347 10.9905 5.80674 0.94132 0 0 1.00045 3.19455e-05
346 10.9468 6.71919 0.134032 0 0 1.00045 3.70218e-05
1186 10.9097 6.68166 1.48932 0 0 1.00045 3.90578e-05
348 10.2378 6.94022 0.724798 0 0 1.00045 3.78931e-05
266 10.8544 5.36334 0.00537689 0 0 1.00045 2.88201e-05
349 11.735 6.16968 0.0649729 0 0 1.00045 3.43029e-05
352 11.7546 6.92531 0.804386 0 0 1.00045 4.04026e-05
270 12.3983 5.45783 0.181306 0 0 1.00045 3.02923e-05
276 13.1094 5.67861 0.857863 0 0 1.00045 3.25624e-05
351 12.2095 6.04287 1.04705 0 0 1.00045 3.51332e-05
1190 12.5825 6.97296 1.37812 0 0 1.00045 4.31158e-05
274 13.733 5.44977 0.0341913 0 0 1.00045 3.04826e-05
1114 13.7931 5.76839 1.56691 0 0 1.00045 3.45873e-05
355 13.8309 6.46412 0.794718 0 0 1.00045 3.77864e-05
280 14.514 5.67026 0.77055 0 0 1.00045 3.26881e-05
1197 14.8229 6.59438 1.41796 0 0 1.00045 4.13186e-05
357 14.6051 6.33967 0.0331514 0 0 1.00045 3.66573e-05
278 15.4482 5.63812 0.0364354 0 0 1.00045 3.13088e-05
284 16.2896 5.79159 0.940797 0 0 1.00045 3.30227e-05
359 15.5303 6.46664 0.799334 0 0 1.00045 3.82568e-05
1118 15.5942 5.87568 1.69162 0 0 1.00045 3.57056e-05
361 16.1552 6.39414 0.0420389 0 0 1.00045 3.65437e-05
363 16.9744 6.56326 1.14581 0 0 1.00045 3.86122e-05
282 17.0435 5.52911 0.265983 0 0 1.00045 2.98087e-05
286 18.2481 5.49305 0.526891 0 0 1.00045 2.97073e-05
288 17.5428 5.56065 1.24187 0 0 1.00045 3.14499e-05
365 17.5485 6.41982 0.399198 0 0 1.00045 3.66614e-05
367 18.1351 6.42835 1.36584 0 0 1.00045 3.78953e-05
292 19.1767 5.49925 1.19723 0 0 1.00045 3.00976e-05
369 18.8283 6.44889 0.613868 0 0 1.00045 3.59133e-05
290 19.8478 6.00698 0.621101 0 0 1.00045 3.21144e-05
371 19.7693 6.83474 1.34245 0 0 1.00045 3.89591e-05
373 20.431 7.04362 0.60673 0 0 1.00045 3.81128e-05
294 21.1429 6.07574 0.644298 0 0 1.00045 3.08525e-05
296 20.571 5.89828 1.38974 0 0 1.00045 3.16398e-05
375 21.1921 6.94312 1.30596 0 0 1.00045 3.72814e-05
299 22.8035 5.49307 1.28181 0 0 1.00045 2.59905e-05
377 22.0376 7.02013 0.672693 0 0 1.00045 3.49156e-05
300 22.0237 6.20555 1.37031 0 0 1.00045 3.13832e-05
16260 22.0551 6.06072 0.053146 0 0 1.00045 2.91389e-05
298 23.002 6.18162 0.65385 0 0 1.00045 2.79887e-05
379 22.993 7.05628 1.20718 0 0 1.00045 3.33471e-05
301 23.8265 5.39481 0.533683 0 0 1.00045 2.25348e-05
303 24.6396 5.62023 1.43599 0 0 1.00045 2.24789e-05
304 23.8062 6.24181 1.28634 0 0 1.00045 2.72087e-05
383 24.6403 6.93219 1.17214 0 0 1.00045 2.74334e-05
302 24.4467 6.33986 0.425498 0 0 1.00045 2.545e-05
305 25.1206 5.55633 0.565262 0 0 1.00045 2.04978e-05
307 25.9448 5.44194 1.34937 0 0 1.00045 1.85801e-05
306 25.9559 6.17251 0.693195 0 0 1.00045 2.02198e-05
308 25.3984 6.36885 1.66099 0 0 1.00045 2.35062e-05
385 25.4502 7.06556 0.493865 0 0 1.00045 2.44658e-05
387 26.1264 6.93356 1.4075 0 0 1.00045 2.25205e-05
312 26.9358 6.13511 1.46948 0 0 1.00045 1.76027e-05
310 27.7243 5.79109 0.714417 0 0 1.00045 1.40124e-05
389 27.0022 6.65585 0.641572 0 0 1.00045 1.82289e-05
391 27.9336 6.7191 1.36833 0 0 1.00045 1.54829e-05
316 28.5804 5.73516 1.47107 0 0 1.00045 1.19758e-05
314 29.5784 5.4674 0.812907 0 0 1.00045 8.46359e-06
395 29.6471 6.35505 1.31783 0 0 1.00045 9.49773e-06
393 28.6941 6.42469 0.646738 0 0 1.00045 1.25033e-05
16355 29.5819 6.30775 0.0747782 0 0 1.00045 9.60303e-06
16276 28.6843 5.59551 0.0487241 0 0 1.00045 1.08595e-05
318 31.1491 5.44049 0.592237 0 0 1.00045 4.59883e-06
320 30.4096 5.57223 1.45569 0 0 1.00045 6.48779e-06
397 30.5913 6.29553 0.642118 0 0 1.00045 6.54472e-06
399 31.4139 6.21737 1.38002 0 0 1.00045 4.37229e-06
398 31.4103 7.01583 0.604634 0 0 1.00045 4.33214e-06
401 0.475216 7.65454 0.65367 0 0 1.00045 5.38975e-06
402 1.0583 8.44767 0.60664 0 0 1.00045 7.44108e-06
403 1.32539 7.81455 1.48669 0 0 1.00045 8.60872e-06
404 0.568031 8.5665 1.46362 0 0 1.00045 5.74013e-06
405 1.81593 7.69956 0.37677 0 0 1.00045 9.85383e-06
408 1.95316 8.5345 1.45722 0 0 1.00045 1.13462e-05
406 2.43047 8.51562 0.396463 0 0 1.00045 1.28135e-05
407 2.63002 7.69472 1.2763 0 0 1.00045 1.34223e-05
412 3.26581 8.35749 0.935295 0 0 1.00045 1.6606e-05
409 3.48577 7.60259 0.32625 0 0 1.00045 1.63171e-05
410 4.07488 8.26055 0.071244 0 0 1.00045 1.95999e-05
411 4.244 7.44826 1.22137 0 0 1.00045 1.93465e-05
416 4.97833 8.02881 0.934 0 0 1.00045 2.35426e-05
413 4.95359 7.42464 0.232801 0 0 1.00045 2.15099e-05
1250 4.07941 8.15505 1.76365 0 0 1.00045 2.08655e-05
414 6.17657 8.07173 0.179672 0 0 1.00045 2.80973e-05
415 5.78001 7.32326 1.01008 0 0 1.00045 2.48964e-05
495 5.61843 8.67728 0.647407 0 0 1.00045 2.76126e-05
1337 6.4693 8.74409 1.24775 0 0 1.00045 3.29788e-05
420 6.7259 7.90689 1.04211 0 0 1.00045 3.05736e-05
417 6.80942 7.27925 0.157942 0 0 1.00045 2.86592e-05
419 7.63843 7.45719 0.73816 0 0 1.00045 3.26498e-05
1258 7.63367 7.83345 1.68595 0 0 1.00045 3.5328e-05
421 8.36617 7.32025 0.0163509 0 0 1.00045 3.39777e-05
499 7.50097 8.55079 0.714002 0 0 1.00045 3.57427e-05
1261 8.44056 7.17787 1.55112 0 0 1.00045 3.56417e-05
424 8.64607 7.99726 0.866045 0 0 1.00045 3.87064e-05
423 9.30728 7.32673 0.660753 0 0 1.00045 3.71468e-05
1262 9.48623 8.34648 1.43596 0 0 1.00045 4.49299e-05
501 8.46508 8.71049 0.0780316 0 0 1.00045 4.02746e-05
1265 10.1054 7.57413 1.58504 0 0 1.00045 4.30669e-05
428 10.1591 8.30981 0.692617 0 0 1.00045 4.53271e-05
427 11.0249 7.66467 0.830538 0 0 1.00045 4.40293e-05
1266 11.0462 8.43377 1.42742 0 0 1.00045 5.04965e-05
429 11.6904 7.87619 0.037643 0 0 1.00045 4.56484e-05
426 10.848 8.57945 0.0200923 0 0 1.00045 4.78723e-05
432 11.8272 8.58779 0.723994 0 0 1.00045 5.10858e-05
1269 11.8766 7.57889 1.58398 0 0 1.00045 4.75003e-05
356 13.1982 7.15288 0.575714 0 0 1.00045 4.28012e-05
431 12.6642 8.02384 0.59469 0 0 1.00045 4.82748e-05
1270 12.5852 8.46455 1.49702 0 0 1.00045 5.41579e-05
1273 13.3703 7.84833 1.47386 0 0 1.00045 5.08829e-05
360 14.824 7.30695 0.6143 0 0 1.00045 4.47821e-05
435 14.13 8.00656 0.486897 0 0 1.00045 4.93501e-05
1194 14.0007 7.227 1.36174 0 0 1.00045 4.50794e-05
1277 14.8045 8.09981 1.36087 0 0 1.00045 5.2518e-05
1274 14.2221 8.76024 1.56437 0 0 1.00045 5.86768e-05
436 13.4849 8.79115 0.778758 0 0 1.00045 5.49735e-05
364 16.1553 7.34991 0.891995 0 0 1.00045 4.40734e-05
439 15.6249 8.29264 0.863909 0 0 1.00045 5.20252e-05
1198 15.6815 7.53623 1.64824 0 0 1.00045 4.92939e-05
441 16.3755 8.36601 0.146574 0 0 1.00045 5.08419e-05
443 16.8122 8.25703 1.09917 0 0 1.00045 5.18396e-05
362 16.9483 7.29227 0.286626 0 0 1.00045 4.30716e-05
368 17.5092 7.49715 1.10604 0 0 1.00045 4.57984e-05
445 17.5769 8.27202 0.310355 0 0 1.00045 5.02684e-05
447 18.2395 8.24425 1.0351 0 0 1.00045 4.98813e-05
366 18.3172 7.38112 0.223602 0 0 1.00045 4.27626e-05
372 18.7672 7.28778 1.15194 0 0 1.00045 4.34765e-05
370 19.4941 7.60473 0.623359 0 0 1.00045 4.29089e-05
451 19.4365 8.44733 1.18309 0 0 1.00045 5.10022e-05
449 18.9536 8.44979 0.193757 0 0 1.00045 4.84882e-05
453 20.2676 8.4607 0.367827 0 0 1.00045 4.76928e-05
376 20.3504 7.98094 1.32002 0 0 1.00045 4.61237e-05
374 21.1362 7.80767 0.649471 0 0 1.00045 4.16752e-05
455 21.1111 8.80733 1.0415 0 0 1.00045 4.85243e-05
380 21.9668 8.05087 1.14515 0 0 1.00045 4.15976e-05
457 22.0253 8.73696 0.266298 0 0 1.00045 4.38174e-05
459 22.9725 8.6022 1.01509 0 0 1.00045 4.07736e-05
378 22.73 7.86028 0.386182 0 0 1.00045 3.70122e-05
1218 22.8222 7.90138 1.76244 0 0 1.00045 3.96619e-05
381 23.6912 7.13209 0.278619 0 0 1.00045 3.083e-05
384 23.8021 7.71781 1.06826 0 0 1.00045 3.33798e-05
461 23.8314 8.48604 0.3661 0 0 1.00045 3.57466e-05
463 24.6763 8.49943 1.00037 0 0 1.00045 3.32633e-05
382 24.6492 7.69529 0.280357 0 0 1.00045 2.95401e-05
388 25.4294 7.76021 1.2471 0 0 1.00045 2.75192e-05
467 26.3145 8.36704 0.995468 0 0 1.00045 2.54309e-05
386 26.3603 7.59925 0.374114 0 0 1.00045 2.30907e-05
465 25.5287 8.49248 0.31424 0 0 1.00045 2.8981e-05
390 27.955 7.26771 0.523899 0 0 1.00045 1.61511e-05
392 27.0597 7.42852 1.33319 0 0 1.00045 2.04263e-05
470 28.2018 8.77774 0.416092 0 0 1.00045 1.71833e-05
471 28.0525 8.10711 1.21141 0 0 1.00045 1.7513e-05
469 27.2602 8.09397 0.433149 0 0 1.00045 2.03987e-05
394 29.7943 7.08375 0.508275 0 0 1.00045 9.57268e-06
396 28.8782 7.32422 1.2295 0 0 1.00045 1.31331e-05
474 29.816 8.54599 0.539775 0 0 1.00045 1.04074e-05
475 29.7249 7.8581 1.27849 0 0 1.00045 1.05124e-05
476 29.0027 8.78633 1.18657 0 0 1.00045 1.39577e-05
473 28.9298 7.94742 0.41597 0 0 1.00045 1.33704e-05
400 30.5397 7.20914 1.1797 0 0 1.00045 7.07545e-06
479 31.4613 7.88607 1.29532 0 0 1.00045 4.49563e-06
480 30.6456 8.6129 1.18644 0 0 1.00045 7.25052e-06
477 30.8485 7.97774 0.383908 0 0 1.00045 6.33055e-06
478 31.6372 8.67219 0.392159 0 0 1.00045 3.71015e-06
482 1.31688 10.2322 0.266923 0 0 1.00045 7.82819e-06
483 1.22929 9.32925 1.19558 0 0 1.00045 8.10013e-06
484 0.455303 9.95019 0.900696 0 0 1.00045 4.56445e-06
481 0.57256 9.34651 0.123341 0 0 1.00045 5.47714e-06
1322 1.01522 10.096 1.74579 0 0 1.00045 7.11372e-06
485 1.96765 9.36071 0.44228 0 0 1.00045 1.11393e-05
488 2.02722 10.2557 0.96794 0 0 1.00045 1.12676e-05
486 2.80003 10.118 0.0778451 0 0 1.00045 1.48407e-05
487 2.59857 9.30723 1.21024 0 0 1.00045 1.4133e-05
1326 2.98445 10.0545 1.66155 0 0 1.00045 1.65698e-05
489 3.30536 9.1867 0.0874619 0 0 1.00045 1.69771e-05
1329 3.45648 9.04972 1.65851 0 0 1.00045 1.85005e-05
492 3.60548 9.8352 0.737722 0 0 1.00045 1.88653e-05
491 4.18735 8.88706 0.852063 0 0 1.00045 2.12844e-05
496 4.85652 9.71593 0.565851 0 0 1.00045 2.55845e-05
1330 4.37373 9.70939 1.59275 0 0 1.00045 2.39816e-05
1333 4.95481 8.79594 1.63195 0 0 1.00045 2.59625e-05
500 6.53485 9.46888 0.510719 0 0 1.00045 3.39093e-05
1334 5.60818 9.52838 1.17142 0 0 1.00045 2.97723e-05
1417 6.53017 10.1687 1.18809 0 0 1.00045 3.61964e-05
575 5.6573 10.3897 0.43976 0 0 1.00045 3.0644e-05
1413 5.04782 10.5208 1.46288 0 0 1.00045 2.85006e-05
504 8.31883 9.57091 0.569762 0 0 1.00045 4.33577e-05
1338 7.49714 9.38205 1.18716 0 0 1.00045 3.98645e-05
1421 8.00717 10.2459 1.34121 0 0 1.00045 4.57906e-05
579 7.2364 10.3136 0.463604 0 0 1.00045 3.9976e-05
1341 8.41225 8.80839 1.38616 0 0 1.00045 4.24244e-05
503 9.3298 9.09741 0.715094 0 0 1.00045 4.63663e-05
508 10.0351 9.96576 0.662642 0 0 1.00045 5.34437e-05
1342 9.12751 9.84749 1.39728 0 0 1.00045 5.0267e-05
583 9.11866 10.502 0.673384 0 0 1.00045 5.09059e-05
1345 10.2517 9.22251 1.40667 0 0 1.00045 5.2528e-05
507 10.9048 9.36591 0.658843 0 0 1.00045 5.34195e-05
1346 11.0749 9.8341 1.61755 0 0 1.00045 5.99159e-05
512 11.6348 10.2618 0.721995 0 0 1.00045 6.05929e-05
1349 11.8097 9.33358 1.32736 0 0 1.00045 5.79685e-05
511 12.5742 9.56616 0.687371 0 0 1.00045 5.90838e-05
516 13.2933 10.2816 0.947338 0 0 1.00045 6.4836e-05
1353 13.0929 9.40575 1.60794 0 0 1.00045 6.31368e-05
1350 12.4603 10.2951 1.58258 0 0 1.00045 6.71722e-05
510 12.221 10.4397 0.0231102 0 0 1.00045 6.16771e-05
440 14.9822 9.13211 0.770071 0 0 1.00045 5.77923e-05
515 14.0457 9.5746 0.843102 0 0 1.00045 6.05702e-05
1354 14.0211 10.279 1.69689 0 0 1.00045 7.01871e-05
517 14.7721 10.0562 0.214789 0 0 1.00045 6.32535e-05
1357 14.8438 9.72488 1.75933 0 0 1.00045 6.72251e-05
514 13.8816 10.5308 0.0196381 0 0 1.00045 6.55741e-05
444 16.435 9.2266 1.12928 0 0 1.00045 5.94201e-05
1278 15.6275 9.05596 1.75961 0 0 1.00045 6.21136e-05
519 15.6558 9.88032 1.01485 0 0 1.00045 6.39368e-05
521 16.1913 10.2214 0.235218 0 0 1.00045 6.33572e-05
438 15.7977 9.2197 0.11988 0 0 1.00045 5.68658e-05
523 17.0185 10.0937 0.967771 0 0 1.00045 6.44637e-05
442 17.016 9.18016 0.261227 0 0 1.00045 5.64234e-05
448 17.6272 9.23026 1.117 0 0 1.00045 5.82762e-05
525 17.6625 10.2126 0.19144 0 0 1.00045 6.22451e-05
527 18.2763 10.106 1.07483 0 0 1.00045 6.27882e-05
446 18.2695 9.33447 0.11815 0 0 1.00045 5.55013e-05
452 18.8171 9.18474 0.95062 0 0 1.00045 5.6437e-05
529 19.0773 10.0508 0.305034 0 0 1.00045 5.98339e-05
531 19.959 10.2674 0.876661 0 0 1.00045 5.96636e-05
1369 19.1596 9.91873 1.71788 0 0 1.00045 6.41632e-05
450 19.7154 9.29361 0.215499 0 0 1.00045 5.39513e-05