ITEM: TIMESTEP
29000
ITEM: NUMBER OF ATOMS
32000
ITEM: BOX BOUNDS pp pp pp
0.0000000000000000e+00 3.1748021039364001e+01
0.0000000000000000e+00 3.1748021039364001e+01
0.0000000000000000e+00 3.1748021039364001e+01
ITEM: ATOMS id x y z c_phase c_nbond c_rho v_omega
4 0.207344 1.12372 0.467051 0 0 1.00084 5.82192e-07
83 1.11761 1.60326 0.778494 0 0 1.00084 2.53454e-06
842 0.784214 0.752848 1.40427 0 0 1.00084 1.17308e-06
921 0.152816 1.63476 1.37716 0 0 1.00084 1.27944e-06
3 0.728778 0.0308416 0.618027 0 0 1.00084 8.4324e-08
8 1.77912 0.692133 1.01222 0 0 1.00084 2.08703e-06
85 1.9392 1.34487 0.209516 0 0 1.00084 3.32794e-06
925 1.9799 1.50349 1.74321 0 0 1.00084 3.75087e-06
6 2.57823 0.542721 0.194445 0 0 1.00084 2.75798e-06
87 2.78788 1.3256 0.865896 0 0 1.00084 4.41751e-06
846 2.74375 0.604153 1.7289 0 0 1.00084 3.05899e-06
12 3.50714 0.643733 0.952156 0 0 1.00084 4.00144e-06
929 3.77071 1.40494 1.69793 0 0 1.00084 5.82434e-06
10 4.18711 0.52999 0.308372 0 0 1.00084 4.10531e-06
850 4.41094 0.589151 1.62468 0 0 1.00084 4.9108e-06
91 4.1945 1.50045 0.710695 0 0 1.00084 6.58192e-06
16 5.02704 0.188637 1.13784 0 0 1.00084 3.91562e-06
93 5.08788 1.21819 0.375332 0 0 1.00084 6.55871e-06
14 5.7139 0.238465 0.30327 0 0 1.00084 4.44828e-06
95 6.02313 0.890294 0.946949 0 0 1.00084 6.24602e-06
854 5.8327 0.0403353 1.6926 0 0 1.00084 3.99528e-06
933 5.19734 1.30101 1.43421 0 0 1.00084 7.22885e-06
97 6.72771 0.95874 0.214234 0 0 1.00084 6.48235e-06
937 6.79739 0.55953 1.68899 0 0 1.00084 5.62874e-06
99 7.50897 0.769152 0.946098 0 0 1.00084 6.24925e-06
941 8.30758 0.787151 1.61419 0 0 1.00084 6.93872e-06
18 7.64694 0.200943 0.151337 0 0 1.00084 4.29654e-06
938 7.5669 1.57942 1.56088 0 0 1.00084 9.45477e-06
100 6.82088 1.72543 0.78004 0 0 1.00084 9.34381e-06
101 8.42107 0.931749 0.225256 0 0 1.00084 6.71652e-06
22 8.90446 0.0496869 0.2497 0 0 1.00084 3.49379e-06
103 9.18543 0.854692 1.08666 0 0 1.00084 6.44142e-06
945 9.73205 0.529686 1.75748 0 0 1.00084 4.71445e-06
105 9.82175 0.921523 0.108263 0 0 1.00084 6.02597e-06
102 9.20911 1.64096 0.240227 0 0 1.00084 9.43456e-06
104 8.39708 1.70956 0.934393 0 0 1.00084 9.95212e-06
942 9.36652 1.72883 1.71689 0 0 1.00084 1.07399e-05
108 10.0806 1.57856 1.08573 0 0 1.00084 9.0798e-06
107 10.522 0.651685 0.832528 0 0 1.00084 4.78223e-06
949 11.4618 0.650544 1.4163 0 0 1.00084 4.31952e-06
946 10.8541 1.28849 1.72221 0 0 1.00084 8.01229e-06
112 11.4763 1.4766 0.777796 0 0 1.00084 8.19874e-06
106 10.62 1.69148 0.191678 0 0 1.00084 9.40823e-06
111 12.2131 0.776127 0.517056 0 0 1.00084 4.03549e-06
870 12.1655 0.00500889 1.30578 0 0 1.00084 8.38e-07
953 12.9394 0.928556 1.37352 0 0 1.00084 4.45283e-06
950 12.2783 1.60904 1.45983 0 0 1.00084 8.50796e-06
116 13.041 1.69874 0.608482 0 0 1.00084 8.13496e-06
40 14.4348 0.223759 0.780406 0 0 1.00084 -3.22207e-07
115 13.7926 0.949114 0.835932 0 0 1.00084 3.62766e-06
117 14.353 1.41213 0.147904 0 0 1.00084 5.64625e-06
874 13.6695 0.172491 1.63457 0 0 1.00083 7.86896e-08
957 14.598 1.07027 1.48065 0 0 1.00084 3.72799e-06
119 15.1791 1.50754 0.667414 0 0 1.00084 5.37827e-06
44 15.8663 0.788312 0.789472 0 0 1.00084 1.47461e-06
878 15.2296 0.438164 1.63677 0 0 1.00084 -1.34304e-07
882 16.69 0.825098 1.34892 0 0 1.00084 1.32637e-06
961 15.9329 1.52377 1.4072 0 0 1.00084 5.67665e-06
38 15.2283 0.672765 0.0722833 0 0 1.00083 7.99539e-07
123 16.854 1.6774 0.690918 0 0 1.00084 5.7192e-06
48 17.415 0.91578 0.563283 0 0 1.00084 1.4912e-06
886 18.0794 1.00816 1.42494 0 0 1.00083 2.52498e-06
47 18.1601 0.192656 0.693865 0 0 1.00083 -1.52801e-06
885 17.3002 0.0268995 1.39856 0 0 1.00083 -2.46793e-06
51 19.5593 0.375466 0.676315 0 0 1.00083 -9.08374e-08
52 18.9373 1.06442 0.694528 0 0 1.00083 2.78183e-06
889 19.0487 0.498159 1.55165 0 0 1.00083 -1.55689e-07
890 19.8146 1.36356 1.6947 0 0 1.00084 5.48024e-06
55 21.2061 0.813998 1.07693 0 0 1.00084 2.50798e-06
56 20.4066 1.20352 0.960124 0 0 1.00084 4.20275e-06
54 21.3366 1.25605 0.212355 0 0 1.00084 5.11803e-06
893 20.4485 0.318474 1.42615 0 0 1.00084 9.17433e-07
53 20.2866 0.303594 0.0684766 0 0 1.00084 6.55439e-07
57 22.0965 0.796609 0.539255 0 0 1.00084 3.38214e-06
59 22.9107 0.957941 1.40563 0 0 1.00084 4.27297e-06
60 22.3406 1.70134 1.33041 0 0 1.00084 7.60481e-06
58 23.0787 1.59895 0.471588 0 0 1.00084 6.71103e-06
17538 22.7744 0.100588 0.467912 0 0 1.00084 6.37039e-07
63 24.3532 0.918302 1.41688 0 0 1.00083 4.75419e-06
61 23.6532 0.877004 0.567497 0 0 1.00083 4.26557e-06
62 24.6127 1.71206 0.736868 0 0 1.00083 7.11248e-06
65 25.0431 0.830957 0.53176 0 0 1.00083 4.48413e-06
17544 23.5432 0.0312307 1.24961 0 0 1.00083 1.36981e-06
17542 24.3592 0.0192346 0.59763 0 0 1.00083 1.68186e-06
67 26.0685 0.858967 1.16246 0 0 1.00084 4.22791e-06
68 25.3422 1.66347 1.44982 0 0 1.00083 7.04702e-06
66 26.0318 1.4459 0.420944 0 0 1.00084 5.86897e-06
17548 25.1774 0.282124 1.35553 0 0 1.00083 2.90956e-06
70 27.734 1.67988 0.383192 0 0 1.00084 4.96451e-06
71 27.6819 0.894407 0.870369 0 0 1.00084 3.49633e-06
72 26.8814 1.48309 1.24983 0 0 1.00084 5.32857e-06
69 26.8373 0.688276 0.241973 0 0 1.00084 3.54112e-06
17552 27.1006 0.0984413 1.00016 0 0 1.00084 2.00161e-06
17556 28.3574 0.0164533 0.732145 0 0 1.00084 1.19045e-06
913 28.4366 0.68814 1.41376 0 0 1.00084 2.40825e-06
76 28.7766 1.54764 0.730711 0 0 1.00084 3.49029e-06
914 29.4784 1.22229 1.56618 0 0 1.00084 2.4084e-06
917 29.843 0.38322 1.4549 0 0 1.00084 6.88595e-07
75 29.3147 0.613543 0.617768 0 0 1.00084 1.40179e-06
841 31.6087 0.315186 1.25626 0 0 1.00084 -1.25151e-06
79 30.7555 0.61071 0.47813 0 0 1.00084 -2.52703e-08
80 30.2105 1.3842 0.770789 0 0 1.00084 1.57886e-06
918 30.9506 1.09168 1.38395 0 0 1.00084 4.28792e-07
82 1.32273 2.35281 0.115231 0 0 1.00084 3.8864e-06
84 0.346992 2.39873 0.804647 0 0 1.00084 2.42012e-06
163 1.55919 3.11263 0.937256 0 0 1.00083 5.46147e-06
922 1.34874 2.27261 1.58485 0 0 1.00084 4.07204e-06
1001 0.647028 3.02661 1.54747 0 0 1.00084 3.64315e-06
161 0.596877 3.10312 0.125927 0 0 1.00084 3.4363e-06
88 2.12732 2.25134 0.780759 0 0 1.00084 4.99686e-06
167 2.9531 3.03661 0.851579 0 0 1.00083 7.94075e-06
926 2.88766 2.00765 1.53404 0 0 1.00084 6.02596e-06
86 2.94373 2.15552 0.0489384 0 0 1.00084 6.14416e-06
1005 2.37988 2.90457 1.74499 0 0 1.00083 6.669e-06
1009 3.59524 3.09784 1.64113 0 0 1.00084 9.60028e-06
92 3.62861 2.26383 0.780475 0 0 1.00084 7.55525e-06
171 4.52472 2.9522 0.75441 0 0 1.00084 1.02545e-05
930 4.41708 2.28107 1.57815 0 0 1.00084 8.79169e-06
96 5.17896 2.16191 0.817144 0 0 1.00084 9.39653e-06
94 5.92606 2.01045 0.140454 0 0 1.00084 9.59227e-06
175 6.01983 2.74287 0.951661 0 0 1.00084 1.21317e-05
934 6.10432 1.76209 1.48332 0 0 1.00084 9.08963e-06
173 5.33201 2.90011 0.013688 0 0 1.00084 1.1582e-05
174 6.19199 3.4549 0.167503 0 0 1.00084 1.46438e-05
1017 6.91432 2.56715 1.53699 0 0 1.00084 1.26591e-05
177 6.98032 2.4704 0.118979 0 0 1.00084 1.17273e-05
98 7.73194 1.75267 0.129254 0 0 1.00084 9.67986e-06
179 7.79643 2.55225 0.893016 0 0 1.00084 1.31325e-05
180 6.9607 3.27861 0.781938 0 0 1.00084 1.49316e-05
1018 7.91745 3.32667 1.49694 0 0 1.00084 1.67856e-05
1021 8.6085 2.47699 1.63529 0 0 1.00084 1.36312e-05
181 8.67632 2.47587 0.0344434 0 0 1.00084 1.276e-05
183 9.36542 2.4755 0.928826 0 0 1.00084 1.37467e-05
185 10.0164 2.45805 0.203343 0 0 1.00084 1.33439e-05
1022 9.63742 3.24549 1.49884 0 0 1.00084 1.85263e-05
184 8.73232 3.33669 0.700765 0 0 1.00084 1.69525e-05
182 9.5472 3.36296 0.0467011 0 0 1.00084 1.77043e-05
188 10.4366 3.11754 0.875222 0 0 1.00084 1.68723e-05
187 11.0757 2.38272 0.916767 0 0 1.00084 1.27408e-05
1026 11.296 3.15942 1.59184 0 0 1.00084 1.76256e-05
186 11.2082 3.39478 0.16573 0 0 1.00084 1.80505e-05
1025 10.4987 2.23893 1.75898 0 0 1.00084 1.2749e-05
1029 11.9434 2.47215 1.59761 0 0 1.00084 1.40703e-05
192 12.0203 3.26134 0.811826 0 0 1.00084 1.79387e-05
191 12.4123 2.34821 0.743887 0 0 1.00084 1.29182e-05
196 13.1262 3.33811 0.815498 0 0 1.00084 1.84965e-05
1033 13.4264 2.74725 1.69243 0 0 1.00084 1.4595e-05
195 13.7873 2.82513 0.839314 0 0 1.00084 1.43339e-05
954 13.7697 1.80692 1.46835 0 0 1.00084 8.26916e-06
120 14.5032 2.3074 0.921072 0 0 1.00084 1.08173e-05
1037 14.7119 3.241 1.55268 0 0 1.00084 1.70046e-05
197 14.7503 3.10926 0.0397201 0 0 1.00084 1.51175e-05
114 13.8436 2.11178 0.0437342 0 0 1.00084 1.03177e-05
199 15.3891 3.37429 0.867581 0 0 1.00084 1.69442e-05
958 15.2837 2.27836 1.44905 0 0 1.00084 1.07372e-05
118 15.3434 2.45417 0.125241 0 0 1.00084 1.09862e-05
124 16.1801 2.48343 0.704203 0 0 1.00083 1.07089e-05
1041 16.0634 3.29503 1.50774 0 0 1.00084 1.64564e-05
201 16.2146 3.29208 0.0131868 0 0 1.00084 1.60217e-05
962 16.8295 2.59739 1.53219 0 0 1.00083 1.19152e-05
127 18.2479 1.8609 0.750144 0 0 1.00083 6.87835e-06
203 16.9563 3.3258 0.669108 0 0 1.00083 1.60921e-05
965 17.5832 1.9367 1.56149 0 0 1.00083 7.5094e-06
128 17.551 2.55284 0.673081 0 0 1.00083 1.1012e-05
1045 17.715 3.33418 1.50259 0 0 1.00083 1.59325e-05
969 18.9839 1.84867 1.49789 0 0 1.00083 7.34983e-06
207 18.519 3.22854 0.716203 0 0 1.00083 1.48133e-05
966 18.516 2.72369 1.59915 0 0 1.00083 1.25323e-05
131 19.8428 1.95861 0.841392 0 0 1.00084 7.64283e-06
129 19.1784 1.92919 0.0112856 0 0 1.00083 7.09624e-06
132 19.36 2.75558 1.0159 0 0 1.00084 1.23731e-05
209 19.4481 3.40542 0.190678 0 0 1.00083 1.60032e-05
130 20.0495 2.74409 0.110973 0 0 1.00084 1.20014e-05
133 20.6388 1.96794 0.203001 0 0 1.00084 7.97246e-06
135 21.396 2.13066 0.958023 0 0 1.00084 9.14131e-06
973 20.6762 2.24316 1.74384 0 0 1.00084 1.01138e-05
134 21.6074 2.95052 0.459274 0 0 1.00084 1.28163e-05
136 20.6827 2.92466 1.08379 0 0 1.00084 1.35523e-05
213 20.9427 3.53473 0.322213 0 0 1.00084 1.65513e-05
137 22.2746 2.15238 0.505618 0 0 1.00084 9.20447e-06
139 23.235 2.62984 1.50748 0 0 1.00084 1.12779e-05
138 23.358 3.20237 0.722932 0 0 1.00084 1.31384e-05
140 22.49 3.07132 1.23037 0 0 1.00084 1.39327e-05
64 23.7061 1.78616 1.38403 0 0 1.00084 7.82457e-06
141 23.9881 2.39123 0.618442 0 0 1.00084 9.55686e-06
143 24.7186 2.55732 1.57005 0 0 1.00084 1.04332e-05
142 24.7176 3.26808 0.766227 0 0 1.00084 1.2688e-05
144 24.1117 3.49102 1.52737 0 0 1.00084 1.45057e-05
147 26.1664 2.25574 1.35549 0 0 1.00084 8.23595e-06
145 25.3905 2.39231 0.530576 0 0 1.00083 9.06256e-06
146 26.1297 3.14486 0.693103 0 0 1.00084 1.08039e-05
148 25.5108 3.14301 1.51774 0 0 1.00084 1.14106e-05
149 26.7767 2.26139 0.509589 0 0 1.00084 7.33887e-06
152 26.8388 3.07632 1.52451 0 0 1.00084 9.77894e-06
151 27.7181 2.39809 1.22325 0 0 1.00084 6.47243e-06
150 27.3914 3.14557 0.626866 0 0 1.00084 8.74769e-06
153 28.478 2.44877 0.342651 0 0 1.00084 5.63004e-06
156 28.5371 3.12276 1.18934 0 0 1.00084 7.04078e-06
993 28.6989 2.07091 1.50475 0 0 1.00084 4.78872e-06
155 29.6301 2.28532 0.877333 0 0 1.00084 3.75418e-06
154 29.4523 2.96781 0.283097 0 0 1.00084 5.14125e-06
997 30.1464 2.01954 1.6992 0 0 1.00084 2.94564e-06
159 31.0948 2.0884 0.919523 0 0 1.00084 1.44979e-06
160 30.4261 2.89244 0.993326 0 0 1.00084 3.17695e-06
239 31.322 3.44292 0.96845 0 0 1.00084 2.72104e-06
998 31.2331 2.79648 1.72445 0 0 1.00084 2.10468e-06
237 30.4184 3.44439 0.152735 0 0 1.00084 4.30692e-06
157 30.5798 2.07085 0.0334288 0 0 1.00084 2.14575e-06
158 31.3776 2.74851 0.0749018 0 0 1.00084 1.71642e-06
164 0.612731 3.77682 0.912384 0 0 1.00084 4.16869e-06
241 0.513203 4.61644 0.464801 0 0 1.00084 4.63372e-06
243 1.50932 4.54775 0.977933 0 0 1.00083 7.13274e-06
162 1.3699 3.77515 0.0676126 0 0 1.00084 5.51153e-06
244 0.509686 5.27333 1.27276 0 0 1.00084 5.41184e-06
168 2.2043 3.86522 0.848897 0 0 1.00083 7.61668e-06
247 2.95276 4.59787 1.11577 0 0 1.00084 1.06961e-05
166 3.02132 3.8868 0.192214 0 0 1.00083 9.52814e-06
245 2.29543 4.76018 0.277287 0 0 1.00084 8.89633e-06
249 3.84615 4.51078 0.167777 0 0 1.00084 1.2555e-05
172 3.85645 3.74921 0.88131 0 0 1.00084 1.07717e-05
251 4.52698 4.46792 1.14887 0 0 1.00084 1.43929e-05
170 4.64914 3.78162 0.139698 0 0 1.00083 1.24771e-05
250 4.69889 5.03573 0.314204 0 0 1.00084 1.57072e-05
176 5.33214 3.57162 1.13703 0 0 1.00084 1.36435e-05
253 5.48367 4.27749 0.318997 0 0 1.00084 1.56928e-05
255 6.22508 4.20117 1.0203 0 0 1.00084 1.7271e-05
254 6.32583 4.87803 0.266968 0 0 1.00084 1.92234e-05
256 5.48275 4.94809 1.2715 0 0 1.00084 1.78882e-05
1097 7.20303 3.9736 1.64013 0 0 1.00084 1.86638e-05
260 7.23661 4.59781 0.854189 0 0 1.00084 2.02754e-05
259 7.95995 3.91252 0.565377 0 0 1.00084 1.8962e-05
258 7.95404 4.77598 0.0227712 0 0 1.00083 2.23539e-05
1098 8.05869 4.78195 1.48513 0 0 1.00084 2.33676e-05
1101 8.8287 4.03186 1.46646 0 0 1.00083 2.08778e-05
264 8.88256 4.73587 0.696051 0 0 1.00084 2.38976e-05
263 9.72233 4.03153 0.801361 0 0 1.00084 2.15013e-05
1102 9.79847 4.745 1.57311 0 0 1.00083 2.62911e-05
262 9.74847 4.90331 0.014424 0 0 1.00084 2.58539e-05
268 10.5406 4.7967 0.794146 0 0 1.00084 2.64886e-05
265 10.5125 4.03631 0.112328 0 0 1.00084 2.18025e-05
1105 10.5534 3.84771 1.65014 0 0 1.00084 2.16561e-05
267 11.3128 4.15728 0.887998 0 0 1.00084 2.29511e-05
1106 11.3472 4.7337 1.74259 0 0 1.00083 2.72528e-05
266 11.3154 5.05254 0.0163868 0 0 1.00084 2.78744e-05
269 12.115 4.31039 0.205904 0 0 1.00083 2.33255e-05
1109 12.1134 3.99532 1.6831 0 0 1.00084 2.36924e-05
272 12.2367 4.86236 1.00525 0 0 1.00083 2.79478e-05
271 12.9815 4.23244 1.01043 0 0 1.00084 2.44355e-05
270 12.8857 5.22079 0.184372 0 0 1.00083 2.91113e-05
273 13.3906 4.32603 0.0531842 0 0 1.00083 2.35205e-05
1113 13.6752 4.67253 1.69289 0 0 1.00084 2.74053e-05
275 14.049 4.50913 0.771346 0 0 1.00084 2.55405e-05
200 14.7689 3.99612 0.692834 0 0 1.00084 2.13645e-05
1034 14.2932 4.008 1.58519 0 0 1.00084 2.26341e-05
277 14.9992 4.76199 0.0804912 0 0 1.00084 2.55518e-05
194 13.9296 3.53038 0.0149778 0 0 1.00084 1.84633e-05
1117 15.1266 4.98209 1.51494 0 0 1.00084 2.94647e-05
279 15.8736 5.02615 0.818862 0 0 1.00084 2.78e-05
198 15.7338 4.16102 0.105142 0 0 1.00084 2.11874e-05
1038 15.8401 4.38242 1.59669 0 0 1.00084 2.36953e-05
204 16.4485 4.12912 0.897446 0 0 1.00083 2.14232e-05
281 16.7174 4.8776 0.159639 0 0 1.00084 2.53953e-05
1121 16.7887 5.1414 1.65401 0 0 1.00084 2.94815e-05
1042 17.1404 4.12444 1.67055 0 0 1.00083 2.23381e-05
283 17.4345 4.81602 0.904721 0 0 1.00083 2.54404e-05
208 18.0065 4.08404 0.799455 0 0 1.00083 2.00886e-05
285 18.2441 4.89566 0.0358774 0 0 1.00083 2.50799e-05
1046 18.6553 3.99144 1.64774 0 0 1.00083 2.05242e-05
287 18.8878 4.8753 1.08732 0 0 1.00083 2.57695e-05
206 18.8489 4.19719 0.0754065 0 0 1.00083 1.99822e-05
212 19.5306 4.13545 0.962299 0 0 1.00083 2.02634e-05
289 19.6278 5.07459 0.352525 0 0 1.00083 2.61283e-05
210 20.2562 4.25112 0.252607 0 0 1.00084 2.05072e-05
211 20.3035 3.70905 1.26902 0 0 1.00084 1.80886e-05
291 20.4498 5.19184 1.11763 0 0 1.00084 2.61622e-05
216 21.0715 4.37365 1.21501 0 0 1.00084 2.08159e-05
214 21.7455 4.55484 0.512295 0 0 1.00084 2.11596e-05
215 21.877 3.86785 1.38954 0 0 1.00084 1.72763e-05
217 22.5055 3.81072 0.603229 0 0 1.00084 1.74331e-05
16179 23.2205 4.0159 0.0353689 0 0 1.00084 1.68644e-05
219 23.3774 4.23842 1.40049 0 0 1.00084 1.81645e-05
220 22.5695 4.7747 1.3048 0 0 1.00084 2.21392e-05
218 23.2601 4.99751 0.541692 0 0 1.00084 2.14017e-05
223 24.9482 4.15102 1.55225 0 0 1.00084 1.60809e-05
221 24.0973 4.25087 0.764169 0 0 1.00084 1.7165e-05
222 24.8858 4.98889 0.633795 0 0 1.00084 1.88672e-05
224 24.0978 5.20538 1.33779 0 0 1.00084 2.18421e-05
228 25.5741 5.11367 1.575 0 0 1.00084 1.82821e-05
227 26.15 4.06644 1.51715 0 0 1.00083 1.37258e-05
229 26.5949 4.03831 0.593674 0 0 1.00084 1.2508e-05
225 25.5199 4.22756 0.75958 0 0 1.00084 1.48225e-05
226 26.0507 5.00612 0.418694 0 0 1.00084 1.62265e-05
233 28.3194 3.62802 0.33705 0 0 1.00084 8.39309e-06
232 26.8388 4.84065 1.37043 0 0 1.00084 1.43455e-05
231 27.5821 3.81711 1.40816 0 0 1.00084 1.01809e-05
236 28.3681 4.39357 1.11331 0 0 1.00084 1.01856e-05
230 27.4969 4.53393 0.580251 0 0 1.00084 1.23303e-05
235 29.5626 3.54404 1.17907 0 0 1.00084 5.98916e-06
313 28.7097 5.14572 0.692973 0 0 1.00084 1.01319e-05
234 29.2922 4.10064 0.468071 0 0 1.00084 7.28159e-06
315 29.4928 4.83795 1.30912 0 0 1.00084 8.07909e-06
240 30.3476 4.26678 1.02844 0 0 1.00084 5.40976e-06
238 31.3621 4.09089 0.353143 0 0 1.00084 2.94371e-06
317 30.592 4.88364 0.47251 0 0 1.00084 4.90964e-06
319 31.3625 4.71166 1.38294 0 0 1.00084 3.41497e-06
242 1.344 5.4358 0.455579 0 0 1.00083 7.20131e-06
323 1.26348 6.11442 1.27405 0 0 1.00083 7.71632e-06
324 0.734421 6.91321 1.4805 0 0 1.00083 6.6319e-06
322 1.45079 6.82014 0.563901 0 0 1.00084 8.44789e-06
321 0.44295 6.02793 0.44919 0 0 1.00083 5.32385e-06
248 1.98558 5.33943 1.35987 0 0 1.00084 9.35925e-06
328 2.19961 6.80503 1.23845 0 0 1.00084 1.10649e-05
325 2.3538 5.9791 0.49297 0 0 1.00084 1.06937e-05
327 2.78082 5.89271 1.38273 0 0 1.00084 1.23561e-05
246 3.13998 5.30473 0.270116 0 0 1.00084 1.18294e-05
326 2.99506 6.81827 0.46149 0 0 1.00084 1.38082e-05
252 3.61096 5.2802 1.27258 0 0 1.00084 1.38213e-05
332 3.77378 6.57687 1.13776 0 0 1.00084 1.60301e-05
329 3.92132 5.88175 0.468847 0 0 1.00084 1.51933e-05
331 4.66242 5.63335 1.21262 0 0 1.00084 1.7418e-05
330 4.5716 6.54341 0.223471 0 0 1.00084 1.87038e-05
336 5.38794 6.27867 1.14961 0 0 1.00084 2.14757e-05
333 5.41036 5.73306 0.307011 0 0 1.00084 1.94791e-05
335 6.29337 5.63426 0.950645 0 0 1.00084 2.23973e-05
334 6.19113 6.43883 0.143903 0 0 1.00084 2.41289e-05
415 6.15617 6.95152 0.98826 0 0 1.00084 2.53723e-05
337 7.0393 5.49393 0.132651 0 0 1.00084 2.29605e-05
340 7.14357 6.21271 0.944752 0 0 1.00084 2.69556e-05
1177 7.13369 5.3791 1.59373 0 0 1.00084 2.40105e-05
339 8.01322 5.51552 0.756065 0 0 1.00084 2.59636e-05
1178 8.04821 6.15109 1.58651 0 0 1.00083 3.00246e-05
417 7.22067 6.90357 0.136257 0 0 1.00084 2.91978e-05
419 8.08499 7.02321 0.72128 0 0 1.00084 3.28341e-05
344 8.81612 6.18194 0.696672 0 0 1.00083 3.08203e-05
1181 8.99094 5.47354 1.49119 0 0 1.00083 2.8795e-05
343 9.69501 5.56891 0.741697 0 0 1.00083 2.95324e-05
1182 9.9548 6.28984 1.45666 0 0 1.00083 3.53024e-05
1261 8.93367 6.75329 1.5413 0 0 1.00083 3.56124e-05
421 8.83476 6.92859 0.000899613 0 0 1.00084 3.42543e-05
423 9.80557 6.94008 0.661535 0 0 1.00083 3.70085e-05
1185 10.6334 5.57774 1.4806 0 0 1.00083 3.22344e-05
345 10.5992 5.68421 0.0783316 0 0 1.00084 3.11133e-05
347 11.4784 5.51876 0.912109 0 0 1.00083 3.10758e-05
346 11.4708 6.41822 0.108201 0 0 1.00084 3.68144e-05
1186 11.4601 6.35522 1.48445 0 0 1.00083 3.8542e-05
348 10.7377 6.55275 0.721537 0 0 1.00083 3.72386e-05
349 12.2502 5.90089 0.0462122 0 0 1.00084 3.35876e-05
352 12.3154 6.64049 0.799211 0 0 1.00084 4.01886e-05
351 12.7475 5.81727 1.04467 0 0 1.00083 3.47841e-05
1190 13.2106 6.73643 1.36971 0 0 1.00084 4.25109e-05
276 13.6444 5.50075 0.857968 0 0 1.00083 3.2052e-05
274 14.2379 5.31951 0.0181116 0 0 1.00084 3.03936e-05
1114 14.3624 5.64096 1.57557 0 0 1.00083 3.44694e-05
355 14.412 6.31852 0.785774 0 0 1.00084 3.76293e-05
280 15.0692 5.59761 0.766037 0 0 1.00084 3.28941e-05
356 13.8069 6.97507 0.584272 0 0 1.00084 4.26772e-05
357 15.1832 6.27595 0.0244094 0 0 1.00084 3.66066e-05
1197 15.4335 6.50945 1.4352 0 0 1.00084 4.1348e-05
278 15.9669 5.62204 0.0366234 0 0 1.00084 3.11449e-05
359 16.1231 6.48935 0.797563 0 0 1.00084 3.87939e-05
1118 16.1787 5.8771 1.68568 0 0 1.00084 3.57343e-05
361 16.7335 6.45158 0.0449734 0 0 1.00084 3.70364e-05
284 16.8516 5.85184 0.937963 0 0 1.00084 3.31489e-05
363 17.5581 6.70145 1.14405 0 0 1.00084 3.88971e-05
282 17.5537 5.66087 0.255213 0 0 1.00083 3.02948e-05
288 18.0741 5.71816 1.22951 0 0 1.00083 3.20315e-05
365 18.1365 6.58786 0.383632 0 0 1.00083 3.74872e-05
367 18.7046 6.64646 1.33719 0 0 1.00083 3.87021e-05
286 18.7693 5.71518 0.500373 0 0 1.00083 3.09506e-05
292 19.6631 5.76574 1.19321 0 0 1.00084 3.14029e-05
369 19.3838 6.71942 0.607813 0 0 1.00084 3.7272e-05
295 21.6285 5.35604 1.35781 0 0 1.00083 2.68499e-05
293 20.9333 5.35547 0.352823 0 0 1.00084 2.60602e-05
290 20.3601 6.30244 0.623531 0 0 1.00084 3.3221e-05
294 21.6235 6.43655 0.638081 0 0 1.00083 3.17936e-05
296 21.0479 6.24467 1.37851 0 0 1.00084 3.27838e-05
297 22.3557 5.63461 0.775466 0 0 1.00084 2.64512e-05
299 23.2292 5.87387 1.28479 0 0 1.00084 2.68949e-05
300 22.4813 6.5942 1.35538 0 0 1.00084 3.21746e-05
16260 22.5083 6.44937 0.0464797 0 0 1.00083 3.01378e-05
298 23.4119 6.58834 0.640675 0 0 1.00083 2.85691e-05
301 24.1799 5.7782 0.537434 0 0 1.00083 2.31493e-05
303 24.9966 5.99682 1.43814 0 0 1.00084 2.2717e-05
304 24.2119 6.65859 1.27496 0 0 1.00084 2.76176e-05
302 24.8386 6.72679 0.433862 0 0 1.00083 2.56723e-05
305 25.4641 5.90118 0.564399 0 0 1.00084 2.07145e-05
307 26.2751 5.78426 1.35424 0 0 1.00084 1.87101e-05
306 26.3053 6.51946 0.688978 0 0 1.00084 2.0115e-05
308 25.7662 6.7425 1.63339 0 0 1.00084 2.33562e-05
311 27.821 5.37597 1.39786 0 0 1.00084 1.33984e-05
309 27.0307 5.53957 0.639334 0 0 1.00084 1.5687e-05
312 27.2509 6.4501 1.46362 0 0 1.00084 1.72521e-05
310 28.0183 6.05266 0.704385 0 0 1.00084 1.36523e-05
389 27.3288 6.9724 0.632236 0 0 1.00083 1.77419e-05
391 28.2315 6.9808 1.37195 0 0 1.00083 1.48211e-05
316 28.8655 5.95199 1.45654 0 0 1.00084 1.15491e-05
314 29.8285 5.61482 0.809163 0 0 1.00084 7.98156e-06
395 29.9208 6.5152 1.31137 0 0 1.00084 8.81011e-06
393 28.9887 6.64836 0.652974 0 0 1.00084 1.19776e-05
16355 29.8554 6.45797 0.071651 0 0 1.00084 9.07379e-06
16276 28.947 5.80346 0.0360348 0 0 1.00084 1.04686e-05
318 31.3927 5.48079 0.585841 0 0 1.00084 4.22051e-06
320 30.6582 5.66072 1.44047 0 0 1.00084 5.91431e-06
397 30.8466 6.38187 0.630944 0 0 1.00084 5.96943e-06
399 31.6648 6.24235 1.37457 0 0 1.00084 3.85321e-06
398 31.6805 7.032 0.602736 0 0 1.00083 3.64681e-06
401 0.756514 7.62265 0.63946 0 0 1.00084 6.1722e-06
402 1.35781 8.36456 0.588165 0 0 1.00084 8.46587e-06
403 1.60418 7.69354 1.4695 0 0 1.00084 9.55543e-06
404 0.843957 8.51101 1.45316 0 0 1.00084 6.62477e-06
478 0.168561 8.674 0.395368 0 0 1.00084 3.99519e-06
405 2.1061 7.55925 0.384651 0 0 1.00084 1.07253e-05
408 2.25417 8.36092 1.44943 0 0 1.00084 1.25745e-05
406 2.7442 8.30708 0.390911 0 0 1.00084 1.41329e-05
407 2.93962 7.4889 1.27331 0 0 1.00084 1.44554e-05
412 3.59941 8.09321 0.931152 0 0 1.00084 1.80047e-05
409 3.80434 7.33265 0.325613 0 0 1.00084 1.72398e-05
410 4.41696 7.95055 0.0567519 0 0 1.00084 2.05817e-05
411 4.58693 7.12732 1.19023 0 0 1.00084 2.00079e-05
491 4.52399 8.54764 0.843983 0 0 1.00084 2.24166e-05
1250 4.43134 7.83927 1.75677 0 0 1.00084 2.22445e-05
1329 3.78926 8.75264 1.66633 0 0 1.00084 1.98922e-05
413 5.31766 7.10367 0.219862 0 0 1.00084 2.21801e-05
1333 5.3357 8.40383 1.61688 0 0 1.00084 2.74182e-05
416 5.33929 7.68069 0.943538 0 0 1.00084 2.45047e-05
414 6.56712 7.67539 0.196274 0 0 1.00084 2.86347e-05
495 5.99368 8.28912 0.624229 0 0 1.00084 2.8582e-05
1337 6.88412 8.3003 1.22987 0 0 1.00084 3.41212e-05
420 7.15315 7.46101 1.04465 0 0 1.00084 3.09412e-05
1258 8.0876 7.37287 1.67126 0 0 1.00084 3.51989e-05
499 7.93088 8.09774 0.718013 0 0 1.00084 3.59927e-05
424 9.10649 7.56533 0.858595 0 0 1.00084 3.86387e-05
1262 9.98932 7.87421 1.41695 0 0 1.00083 4.46188e-05
501 8.93684 8.26038 0.0670532 0 0 1.00084 4.03738e-05
1341 8.88494 8.33939 1.37821 0 0 1.00084 4.27702e-05
503 9.8325 8.62655 0.698333 0 0 1.00083 4.65445e-05
1265 10.6806 7.16492 1.57328 0 0 1.00083 4.25613e-05
428 10.704 7.9088 0.691751 0 0 1.00083 4.53323e-05
427 11.5828 7.31144 0.816519 0 0 1.00083 4.35557e-05
1266 11.633 8.07557 1.42494 0 0 1.00083 5.05967e-05
426 11.4048 8.19041 0.00188107 0 0 1.00083 4.74987e-05
1345 10.7951 8.75904 1.39698 0 0 1.00083 5.22218e-05
429 12.2615 7.55535 0.0260281 0 0 1.00084 4.53145e-05
432 12.3966 8.25728 0.714238 0 0 1.00083 5.08703e-05
1269 12.4662 7.27737 1.56064 0 0 1.00083 4.72067e-05
431 13.2602 7.76736 0.594476 0 0 1.00083 4.75981e-05
1270 13.2034 8.20092 1.5003 0 0 1.00083 5.38836e-05
1273 14.0078 7.66033 1.47327 0 0 1.00084 5.13361e-05
435 14.7598 7.89951 0.51776 0 0 1.00084 4.93267e-05
1194 14.6557 7.08959 1.38409 0 0 1.00084 4.46155e-05
1274 14.8776 8.65918 1.56533 0 0 1.00084 5.9439e-05
436 14.0906 8.59563 0.773749 0 0 1.00084 5.50892e-05
360 15.4419 7.24597 0.635148 0 0 1.00084 4.47812e-05
1277 15.4773 8.02256 1.37637 0 0 1.00084 5.22934e-05
439 16.2916 8.30007 0.874114 0 0 1.00084 5.22695e-05
1198 16.3446 7.57242 1.66425 0 0 1.00084 4.93691e-05
437 15.6495 8.34152 0.00796381 0 0 1.00084 5.17169e-05
364 16.7715 7.39915 0.867973 0 0 1.00084 4.39018e-05
441 16.9969 8.44463 0.140538 0 0 1.00084 5.10544e-05
443 17.4651 8.38649 1.08388 0 0 1.00084 5.2129e-05
362 17.567 7.43608 0.29217 0 0 1.00084 4.36319e-05
368 18.1564 7.66956 1.09052 0 0 1.00084 4.60096e-05
445 18.1974 8.48267 0.287953 0 0 1.00084 5.13119e-05
447 18.8609 8.52305 1.028 0 0 1.00083 5.04374e-05
366 18.9234 7.64137 0.223445 0 0 1.00084 4.37787e-05
372 19.3734 7.57583 1.15737 0 0 1.00084 4.50903e-05
370 20.0724 7.93625 0.611635 0 0 1.00083 4.3738e-05
451 20.0472 8.81721 1.18232 0 0 1.00083 5.18401e-05
449 19.5415 8.77607 0.211854 0 0 1.00083 4.90416e-05
371 20.3154 7.17157 1.34423 0 0 1.00084 4.01418e-05
375 21.7042 7.34675 1.30516 0 0 1.00083 3.83723e-05
373 20.9629 7.39818 0.600054 0 0 1.00083 3.88464e-05
376 20.9279 8.37156 1.31476 0 0 1.00083 4.64507e-05
374 21.6677 8.22257 0.61737 0 0 1.00083 4.25018e-05
377 22.5124 7.44814 0.670442 0 0 1.00083 3.58766e-05
380 22.4793 8.50491 1.13818 0 0 1.00083 4.21189e-05
378 23.2156 8.30467 0.390017 0 0 1.00083 3.72587e-05
379 23.444 7.49073 1.20485 0 0 1.00083 3.39778e-05
383 25.0388 7.35869 1.18135 0 0 1.00084 2.75424e-05
381 24.1199 7.55148 0.292113 0 0 1.00083 3.11291e-05
384 24.237 8.1838 1.07712 0 0 1.00083 3.35635e-05
382 25.0417 8.12907 0.294252 0 0 1.00083 2.95879e-05
387 26.5015 7.3128 1.40837 0 0 1.00084 2.21963e-05
385 25.8131 7.43439 0.494545 0 0 1.00083 2.42194e-05
388 25.8195 8.17915 1.23683 0 0 1.00083 2.71194e-05
467 26.6836 8.77216 1.00116 0 0 1.00084 2.47844e-05
386 26.7041 7.96834 0.380704 0 0 1.00083 2.28198e-05
390 28.2689 7.54526 0.517654 0 0 1.00083 1.54412e-05
392 27.4099 7.78038 1.31911 0 0 1.00083 1.97962e-05
471 28.3767 8.39728 1.20965 0 0 1.00084 1.67119e-05
469 27.5945 8.43949 0.432027 0 0 1.00084 1.97363e-05
394 30.0739 7.25526 0.505388 0 0 1.00084 8.90919e-06
396 29.1711 7.53759 1.23275 0 0 1.00084 1.23863e-05
475 30.0211 8.02692 1.27935 0 0 1.00084 9.58454e-06
473 29.2284 8.17832 0.416287 0 0 1.00084 1.25788e-05
474 30.1009 8.73054 0.533372 0 0 1.00084 9.67073e-06
400 30.8145 7.29446 1.1803 0 0 1.00084 6.22304e-06
479 31.736 7.90719 1.28578 0 0 1.00083 3.83865e-06
480 30.9225 8.70483 1.19027 0 0 1.00083 6.42776e-06
477 31.1202 8.04839 0.387525 0 0 1.00084 5.5981e-06
482 1.57529 10.1031 0.25557 0 0 1.00084 8.88116e-06
483 1.50916 9.21089 1.18332 0 0 1.00084 9.12188e-06
484 0.718654 9.91436 0.910292 0 0 1.00084 5.51712e-06
481 0.8371 9.29595 0.124468 0 0 1.00084 6.23379e-06
1322 1.29072 9.99411 1.73649 0 0 1.00084 8.17592e-06
485 2.24669 9.1849 0.426521 0 0 1.00084 1.21144e-05
488 2.29495 10.0479 0.97342 0 0 1.00084 1.22445e-05
486 3.07706 9.85793 0.0787154 0 0 1.00084 1.57786e-05
487 2.90035 9.0688 1.1922 0 0 1.00084 1.52446e-05
1326 3.26552 9.77022 1.65871 0 0 1.00084 1.76534e-05
567 3.03547 10.5564 0.716583 0 0 1.00084 1.58587e-05
489 3.61314 8.89524 0.0959455 0 0 1.00084 1.81278e-05
492 3.90263 9.52652 0.742128 0 0 1.00084 1.99151e-05
1330 4.71507 9.32829 1.57083 0 0 1.00084 2.52454e-05
1409 4.04104 10.2401 1.43257 0 0 1.00084 2.15425e-05
571 4.61315 10.2852 0.51552 0 0 1.00084 2.39735e-05
496 5.19404 9.33755 0.569292 0 0 1.00084 2.67724e-05
1334 5.99529 9.0998 1.17788 0 0 1.00084 3.12046e-05
575 6.01098 9.94696 0.446054 0 0 1.00084 3.19142e-05
1413 5.37203 10.0785 1.45093 0 0 1.00084 2.97124e-05
500 6.92124 9.01742 0.503441 0 0 1.00084 3.47887e-05
1417 6.92963 9.70125 1.19418 0 0 1.00084 3.76076e-05
1338 7.91606 8.90432 1.18006 0 0 1.00084 4.06693e-05
579 7.65773 9.79458 0.462916 0 0 1.00084 4.10061e-05
1421 8.49107 9.73081 1.32336 0 0 1.00084 4.68629e-05
504 8.78748 9.09503 0.564565 0 0 1.00084 4.42775e-05
1342 9.62986 9.31822 1.38431 0 0 1.00083 5.05443e-05
583 9.59177 10.0074 0.661445 0 0 1.00084 5.17011e-05
584 8.65184 10.4886 0.679649 0 0 1.00084 4.80986e-05
508 10.5461 9.49338 0.66284 0 0 1.00084 5.36479e-05
507 11.4691 8.96536 0.66131 0 0 1.00084 5.3424e-05
1346 11.6399 9.4108 1.60099 0 0 1.00084 5.95398e-05
1425 10.5508 10.1975 1.36916 0 0 1.00084 6.02636e-05
587 11.2596 10.3189 0.66141 0 0 1.00084 6.04927e-05
512 12.1838 9.85402 0.717318 0 0 1.00084 6.05542e-05
1349 12.4447 8.97595 1.35375 0 0 1.00083 5.79474e-05
511 13.1659 9.26253 0.685681 0 0 1.00084 5.87551e-05
1350 13.0736 9.94648 1.57888 0 0 1.00083 6.6958e-05
510 12.7975 10.101 0.0285269 0 0 1.00084 6.1877e-05
1429 12.2099 10.4859 1.50988 0 0 1.00084 6.75727e-05
1353 13.781 9.1634 1.61082 0 0 1.00083 6.3484e-05
516 13.8801 10.0596 0.939944 0 0 1.00083 6.47275e-05
515 14.6715 9.43579 0.854473 0 0 1.00084 6.10784e-05
1354 14.6662 10.1419 1.69491 0 0 1.00084 7.05614e-05
514 14.4671 10.348 0.0327662 0 0 1.00083 6.57329e-05
517 15.3889 9.9515 0.210211 0 0 1.00084 6.31268e-05
440 15.6161 9.06627 0.794166 0 0 1.00084 5.80209e-05
519 16.2772 9.91683 1.0182 0 0 1.00084 6.46357e-05
438 16.3926 9.24686 0.128881 0 0 1.00084 5.67183e-05
1357 15.528 9.65316 1.76058 0 0 1.00084 6.73815e-05
520 15.3318 10.5772 1.02342 0 0 1.00084 6.82479e-05
521 16.7939 10.2807 0.22231 0 0 1.00084 6.38138e-05
444 17.0759 9.32933 1.12873 0 0 1.00084 5.96523e-05
523 17.6212 10.272 0.969461 0 0 1.00084 6.52906e-05
442 17.6146 9.35948 0.257037 0 0 1.00084 5.73897e-05
448 18.2551 9.43743 1.08911 0 0 1.00084 5.83553e-05
525 18.2531 10.4569 0.174366 0 0 1.00084 6.31186e-05
527 18.8449 10.4071 1.07464 0 0 1.00083 6.32099e-05
446 18.8596 9.6179 0.11303 0 0 1.00084 5.6065e-05
452 19.4266 9.54594 0.953557 0 0 1.00083 5.77893e-05
529 19.6246 10.4426 0.30742 0 0 1.00083 6.08932e-05
1369 19.7458 10.3258 1.71242 0 0 1.00083 6.50046e-05
453 20.8271 8.86009 0.376094 0 0 1.00083 4.88611e-05
450 20.2743 9.69607 0.22262 0 0 1.00083 5.5004e-05
455 21.659 9.25617 1.05227 0 0 1.00084 4.90461e-05
456 20.863 9.78356 1.03592 0 0 1.00084 5.46488e-05
1373 21.2101 10.5969 1.67892 0 0 1.00084 6.07645e-05