ITEM: TIMESTEP
40500
ITEM: NUMBER OF ATOMS
32000
ITEM: BOX BOUNDS pp pp pp
0.0000000000000000e+00 3.1748021039364001e+01
0.0000000000000000e+00 3.1748021039364001e+01
0.0000000000000000e+00 3.1748021039364001e+01
ITEM: ATOMS id x y z c_phase c_nbond c_rho v_omega
4 0.252049 1.09943 0.464656 0 0 1.00099 -3.80824e-08
83 1.18498 1.5408 0.774456 0 0 1.00099 1.84376e-06
842 0.821022 0.702176 1.39689 0 0 1.00098 5.83864e-07
921 0.225371 1.61446 1.37573 0 0 1.00099 5.5621e-07
8 1.81388 0.610882 1.00744 0 0 1.00098 1.52925e-06
85 2.00358 1.25403 0.198374 0 0 1.00098 2.71607e-06
925 2.04972 1.3998 1.73096 0 0 1.00098 2.94745e-06
6 2.60376 0.420618 0.183086 0 0 1.00099 2.20085e-06
87 2.85058 1.20017 0.853492 0 0 1.00098 3.75415e-06
846 2.77607 0.482733 1.71834 0 0 1.00098 2.40003e-06
12 3.53737 0.486107 0.943914 0 0 1.00098 3.3487e-06
929 3.84032 1.24417 1.68215 0 0 1.00098 5.02631e-06
10 4.218 0.35594 0.295298 0 0 1.00099 3.52961e-06
850 4.43561 0.403757 1.6159 0 0 1.00099 4.20246e-06
91 4.2746 1.31833 0.706721 0 0 1.00099 5.85004e-06
8339 8.99748 15.7316 14.8632 0 0 1.00093 0.000824797
93 5.15738 1.02265 0.363238 0 0 1.00099 5.87558e-06
14 5.73824 0.0353398 0.287438 0 0 1.00099 3.97247e-06
95 6.07597 0.67927 0.943583 0 0 1.00099 5.57086e-06
933 5.26261 1.08873 1.43009 0 0 1.00099 6.34435e-06
934 6.20205 1.54656 1.47461 0 0 1.00099 8.19602e-06
97 6.78603 0.744498 0.207536 0 0 1.00099 5.9887e-06
937 6.83309 0.341529 1.68095 0 0 1.00099 4.97801e-06
99 7.56183 0.548252 0.941132 0 0 1.00099 5.8111e-06
938 7.67409 1.34732 1.55255 0 0 1.00099 8.73342e-06
100 6.93004 1.5017 0.777892 0 0 1.00099 8.65642e-06
98 7.84349 1.5214 0.121594 0 0 1.00099 9.10253e-06
941 8.37487 0.550825 1.61177 0 0 1.00099 6.41375e-06
101 8.48938 0.711147 0.213737 0 0 1.00099 6.48521e-06
103 9.24615 0.639243 1.07231 0 0 1.00099 6.29267e-06
945 9.79047 0.322474 1.75028 0 0 1.00099 4.70645e-06
105 9.8938 0.704616 0.11102 0 0 1.00098 6.15952e-06
102 9.33155 1.42746 0.227418 0 0 1.00099 9.29724e-06
104 8.52221 1.47104 0.931645 0 0 1.00098 9.37576e-06
942 9.50365 1.49261 1.72094 0 0 1.00099 1.0312e-05
108 10.2036 1.37029 1.07274 0 0 1.00099 9.17391e-06
107 10.5849 0.460881 0.834695 0 0 1.00098 5.23196e-06
949 11.5311 0.474291 1.41219 0 0 1.00098 5.13689e-06
946 10.9733 1.10756 1.72147 0 0 1.00099 8.44082e-06
112 11.615 1.30942 0.779499 0 0 1.00099 9.22971e-06
106 10.7593 1.48724 0.182702 0 0 1.00098 9.76051e-06
111 12.2879 0.628842 0.518845 0 0 1.00098 5.4955e-06
953 13.0324 0.786292 1.37273 0 0 1.00098 5.99454e-06
950 12.4265 1.46157 1.45389 0 0 1.00099 9.80485e-06
116 13.2108 1.58421 0.611476 0 0 1.00099 1.01259e-05
40 14.4697 0.157994 0.782252 0 0 1.00098 2.32162e-06
115 13.8819 0.865592 0.825103 0 0 1.00098 5.88885e-06
117 14.4924 1.32089 0.134314 0 0 1.00099 8.16147e-06
874 13.6969 0.0666718 1.62975 0 0 1.00098 2.11412e-06
957 14.6961 1.02448 1.48164 0 0 1.00098 6.57984e-06
954 13.9373 1.7175 1.46004 0 0 1.00099 1.04029e-05
119 15.314 1.4663 0.666621 0 0 1.00098 8.6265e-06
44 15.9423 0.766606 0.789422 0 0 1.00098 4.72129e-06
878 15.2701 0.40722 1.63398 0 0 1.00098 2.56101e-06
961 16.0717 1.51425 1.41967 0 0 1.00099 9.04654e-06
38 15.2828 0.622883 0.0705705 0 0 1.00098 3.78044e-06
882 16.7604 0.844577 1.3543 0 0 1.00098 4.80891e-06
123 16.9962 1.71401 0.698653 0 0 1.00098 9.8517e-06
48 17.4954 0.967146 0.566802 0 0 1.00098 5.58318e-06
886 18.1675 1.09268 1.42623 0 0 1.00098 6.77627e-06
47 18.1795 0.276496 0.694404 0 0 1.00098 2.76413e-06
885 17.3041 0.0682138 1.40151 0 0 1.00098 1.12457e-06
51 19.5883 0.493934 0.685603 0 0 1.00098 4.35125e-06
52 19.0193 1.1809 0.700361 0 0 1.00098 7.57282e-06
889 19.0763 0.61214 1.55958 0 0 1.00098 4.06869e-06
890 19.937 1.50139 1.69899 0 0 1.00098 1.02976e-05
55 21.2738 0.983783 1.08446 0 0 1.00099 7.42632e-06
56 20.4949 1.35222 0.950966 0 0 1.00099 9.07225e-06
54 21.432 1.43287 0.209892 0 0 1.00099 1.03722e-05
893 20.4658 0.47907 1.41902 0 0 1.00099 5.52325e-06
53 20.3112 0.465504 0.0636077 0 0 1.00099 5.66762e-06
17534 20.9751 0.0348233 0.256572 0 0 1.00099 3.38334e-06
57 22.1635 0.993193 0.54206 0 0 1.00099 8.3936e-06
59 22.9885 1.15178 1.40708 0 0 1.00099 9.09254e-06
17538 22.774 0.284303 0.459179 0 0 1.00099 5.19324e-06
17540 21.7816 0.0846882 0.86293 0 0 1.00099 4.326e-06
63 24.4284 1.11796 1.40817 0 0 1.00098 9.27398e-06
61 23.7149 1.06917 0.558754 0 0 1.00098 8.95891e-06
17544 23.5452 0.237422 1.24496 0 0 1.00098 5.75348e-06
17542 24.357 0.216957 0.587741 0 0 1.00098 5.95911e-06
65 25.1041 1.01938 0.520039 0 0 1.00098 8.7809e-06
67 26.1177 1.03372 1.15401 0 0 1.00098 8.13401e-06
66 26.1162 1.63595 0.414418 0 0 1.00098 1.00059e-05
17548 25.2049 0.462911 1.34506 0 0 1.00098 6.9282e-06
17546 25.9263 0.180211 0.332239 0 0 1.00098 5.95329e-06
71 27.7324 1.02872 0.866615 0 0 1.00099 6.90559e-06
72 26.9577 1.64649 1.24263 0 0 1.00099 9.06512e-06
69 26.8805 0.850041 0.244083 0 0 1.00099 7.27307e-06
17552 27.1055 0.251101 0.999897 0 0 1.00099 5.48274e-06
17556 28.3646 0.128936 0.730688 0 0 1.00099 4.26487e-06
913 28.4789 0.806134 1.41521 0 0 1.00098 5.46295e-06
76 28.846 1.64781 0.726642 0 0 1.00099 6.5479e-06
914 29.5345 1.30633 1.56181 0 0 1.00098 5.15839e-06
917 29.868 0.444931 1.45065 0 0 1.00098 3.30772e-06
75 29.3479 0.692724 0.615317 0 0 1.00098 4.24683e-06
841 31.627 0.304862 1.25348 0 0 1.00098 9.37721e-07
79 30.7886 0.63087 0.476864 0 0 1.00099 2.42694e-06
80 30.2705 1.42827 0.766016 0 0 1.00099 4.15099e-06
918 30.9989 1.11022 1.37547 0 0 1.00099 2.78193e-06
82 1.41898 2.27933 0.103406 0 0 1.00098 3.12433e-06
84 0.446843 2.36887 0.798044 0 0 1.00099 1.64026e-06
922 1.44308 2.19675 1.57864 0 0 1.00099 3.23287e-06
1001 0.765299 2.98695 1.54446 0 0 1.00099 2.6894e-06
161 0.718636 3.06596 0.11874 0 0 1.00099 2.60395e-06
163 1.67813 3.01807 0.927242 0 0 1.00098 4.54841e-06
88 2.22345 2.14237 0.774904 0 0 1.00098 4.18998e-06
167 3.0834 2.89302 0.843461 0 0 1.00098 7.04601e-06
926 2.98398 1.87573 1.52892 0 0 1.00098 5.18539e-06
86 3.04007 2.02263 0.0413825 0 0 1.00098 5.40025e-06
1005 2.49627 2.78444 1.73177 0 0 1.00098 5.68065e-06
1009 3.74204 2.91779 1.63248 0 0 1.00098 8.55303e-06
92 3.73615 2.10127 0.77551 0 0 1.00098 6.74063e-06
171 4.66243 2.75965 0.752506 0 0 1.00098 9.29727e-06
930 4.53785 2.09074 1.57477 0 0 1.00099 7.845e-06
96 5.29155 1.95262 0.813995 0 0 1.00099 8.48186e-06
94 6.03996 1.78849 0.138761 0 0 1.00099 8.76645e-06
175 6.17732 2.51516 0.944985 0 0 1.00099 1.11848e-05
173 5.47495 2.68077 0.0161318 0 0 1.00098 1.06052e-05
174 6.37418 3.21088 0.150496 0 0 1.00098 1.36642e-05
176 5.51401 3.35133 1.11223 0 0 1.00098 1.25948e-05
1017 7.07719 2.32404 1.52874 0 0 1.00099 1.1688e-05
177 7.11719 2.24247 0.107525 0 0 1.00099 1.10455e-05
179 7.95921 2.30884 0.869842 0 0 1.00098 1.23562e-05
180 7.15755 3.03822 0.780194 0 0 1.00098 1.41261e-05
1018 8.13717 3.06747 1.4913 0 0 1.00098 1.57813e-05
1021 8.77993 2.23174 1.62402 0 0 1.00098 1.28969e-05
181 8.84535 2.24302 0.0263576 0 0 1.00099 1.23518e-05
183 9.54817 2.23985 0.926357 0 0 1.00099 1.33383e-05
1022 9.88024 2.99847 1.49428 0 0 1.00098 1.80124e-05
184 8.95578 3.07589 0.693678 0 0 1.00098 1.62426e-05
182 9.78907 3.12744 0.0335638 0 0 1.00099 1.75956e-05
185 10.2072 2.24715 0.195846 0 0 1.00099 1.34814e-05
188 10.6663 2.90329 0.860445 0 0 1.00099 1.71353e-05
187 11.2702 2.18405 0.915132 0 0 1.00099 1.33267e-05
1026 11.5499 2.97372 1.5913 0 0 1.00099 1.81964e-05
186 11.4736 3.18303 0.162162 0 0 1.00099 1.8504e-05
1025 10.6931 2.04265 1.74143 0 0 1.00099 1.29581e-05
1029 12.169 2.31325 1.61099 0 0 1.00099 1.5264e-05
192 12.29 3.09096 0.823244 0 0 1.00099 1.93308e-05
191 12.6284 2.21479 0.749044 0 0 1.00099 1.48047e-05
196 13.3876 3.22046 0.818086 0 0 1.00099 2.06202e-05
1033 13.6753 2.61189 1.69575 0 0 1.00099 1.61756e-05
195 14.0595 2.74802 0.843391 0 0 1.00099 1.73164e-05
120 14.7204 2.23003 0.917173 0 0 1.00099 1.33855e-05
1037 15.0097 3.1606 1.55305 0 0 1.00099 1.94325e-05
197 15.0103 3.04907 0.0397573 0 0 1.00099 1.83045e-05
114 14.0375 2.01708 0.0295501 0 0 1.00099 1.3036e-05
194 14.2179 3.4283 0.0349678 0 0 1.00098 2.13843e-05
199 15.6975 3.33393 0.86497 0 0 1.00099 2.04871e-05
958 15.5097 2.26129 1.46223 0 0 1.00099 1.43733e-05
118 15.5653 2.40318 0.11715 0 0 1.00098 1.43069e-05
124 16.3931 2.48058 0.711578 0 0 1.00098 1.46174e-05
1041 16.3659 3.31473 1.51438 0 0 1.00098 2.05432e-05
201 16.4986 3.28667 0.00253946 0 0 1.00098 2.00514e-05
962 17.064 2.6342 1.54418 0 0 1.00098 1.61293e-05
203 17.2452 3.36737 0.665421 0 0 1.00098 2.0903e-05
965 17.7497 1.98799 1.56453 0 0 1.00098 1.14517e-05
128 17.7722 2.61749 0.6668 0 0 1.00098 1.57461e-05
1045 17.9889 3.41036 1.50401 0 0 1.00098 2.06879e-05
127 18.4067 1.95682 0.746681 0 0 1.00098 1.16565e-05
969 19.1436 1.97113 1.49735 0 0 1.00098 1.24194e-05
207 18.776 3.33229 0.721163 0 0 1.00098 2.00364e-05
966 18.7455 2.82579 1.6097 0 0 1.00098 1.74686e-05
131 19.9911 2.1033 0.842632 0 0 1.00098 1.27727e-05
129 19.3335 2.048 0.0218476 0 0 1.00098 1.22379e-05
132 19.5891 2.91039 1.02401 0 0 1.00098 1.80495e-05
130 20.2661 2.89533 0.113906 0 0 1.00098 1.77125e-05
133 20.7907 2.13452 0.202591 0 0 1.00099 1.34934e-05
135 21.5472 2.30409 0.95353 0 0 1.00099 1.43393e-05
973 20.8523 2.4148 1.7455 0 0 1.00099 1.54699e-05
136 20.908 3.0949 1.07003 0 0 1.00099 1.90682e-05
58 23.1754 1.80132 0.475215 0 0 1.00099 1.18244e-05
134 21.8234 3.15423 0.465264 0 0 1.00099 1.87571e-05
60 22.466 1.90908 1.33056 0 0 1.00099 1.28176e-05
137 22.4188 2.35831 0.492864 0 0 1.00099 1.46889e-05
140 22.685 3.28899 1.22222 0 0 1.00099 1.95375e-05
139 23.4158 2.84823 1.50235 0 0 1.00099 1.641e-05
62 24.7144 1.90903 0.724724 0 0 1.00098 1.17097e-05
138 23.5502 3.43284 0.717619 0 0 1.00099 1.86439e-05
64 23.8264 1.98726 1.3726 0 0 1.00098 1.26127e-05
141 24.1197 2.61164 0.616318 0 0 1.00099 1.46342e-05
143 24.8713 2.76998 1.55139 0 0 1.00098 1.50486e-05
142 24.9013 3.48686 0.756894 0 0 1.00098 1.75273e-05
68 25.4439 1.86205 1.43471 0 0 1.00098 1.12911e-05
147 26.2918 2.44826 1.35445 0 0 1.00098 1.23607e-05
145 25.5241 2.5901 0.535786 0 0 1.00098 1.35238e-05
146 26.2966 3.34207 0.685839 0 0 1.00098 1.50418e-05
148 25.6805 3.36362 1.51376 0 0 1.00098 1.59087e-05
70 27.8224 1.81608 0.377797 0 0 1.00099 8.41475e-06
149 26.8959 2.4287 0.504847 0 0 1.00098 1.12097e-05
152 26.992 3.26359 1.52017 0 0 1.00098 1.3637e-05
151 27.8271 2.54053 1.21577 0 0 1.00099 9.89123e-06
150 27.5412 3.30493 0.618184 0 0 1.00098 1.2447e-05
153 28.5923 2.56642 0.339147 0 0 1.00099 8.84638e-06
156 28.6754 3.24331 1.18037 0 0 1.00099 1.0151e-05
993 28.7928 2.18676 1.5035 0 0 1.00099 7.83795e-06
155 29.7215 2.35577 0.870694 0 0 1.00099 6.56387e-06
154 29.5799 3.05901 0.278364 0 0 1.00099 8.05146e-06
997 30.2403 2.07604 1.69197 0 0 1.00098 5.48249e-06
159 31.1845 2.09682 0.913883 0 0 1.00099 3.81499e-06
160 30.5411 2.92917 0.986972 0 0 1.00099 5.67787e-06
239 31.4591 3.44197 0.960989 0 0 1.00099 4.96295e-06
998 31.3492 2.80113 1.71975 0 0 1.00099 4.33722e-06
237 30.5611 3.48828 0.152964 0 0 1.00099 6.89328e-06
157 30.6645 2.10644 0.0326122 0 0 1.00099 4.76007e-06
158 31.4879 2.74525 0.0705035 0 0 1.00099 4.06883e-06
164 0.756244 3.7324 0.903619 0 0 1.00098 3.21087e-06
241 0.680085 4.58169 0.452488 0 0 1.00098 3.59585e-06
243 1.67419 4.44941 0.968728 0 0 1.00098 6.07456e-06
162 1.51922 3.69757 0.0648411 0 0 1.00098 4.60575e-06
244 0.698059 5.22814 1.26719 0 0 1.00098 4.30876e-06
1081 1.00164 4.31443 1.75791 0 0 1.00099 4.17809e-06
168 2.36398 3.74433 0.846421 0 0 1.00098 6.66753e-06
247 3.13723 4.44403 1.10417 0 0 1.00098 9.67641e-06
166 3.18622 3.73403 0.179819 0 0 1.00098 8.60793e-06
245 2.47019 4.62578 0.269993 0 0 1.00098 7.89986e-06
246 3.34161 5.13044 0.263151 0 0 1.00098 1.08003e-05
248 2.18805 5.21848 1.34617 0 0 1.00098 8.31471e-06
1006 3.01478 3.72377 1.7596 0 0 1.00098 8.45947e-06
249 4.03969 4.31999 0.166081 0 0 1.00098 1.15725e-05
172 4.01311 3.57181 0.874759 0 0 1.00098 9.73537e-06
251 4.73768 4.25086 1.14292 0 0 1.00098 1.32893e-05
170 4.81941 3.57302 0.131009 0 0 1.00098 1.15091e-05
250 4.92265 4.81238 0.301585 0 0 1.00098 1.47092e-05
252 3.83606 5.08717 1.25483 0 0 1.00098 1.27492e-05
253 5.69026 4.04151 0.306471 0 0 1.00098 1.46624e-05
255 6.45489 3.94129 1.00727 0 0 1.00098 1.60813e-05
254 6.56601 4.61616 0.243978 0 0 1.00098 1.8173e-05
256 5.72199 4.70468 1.24647 0 0 1.00098 1.67392e-05
1097 7.42963 3.71353 1.63088 0 0 1.00098 1.75184e-05
260 7.48002 4.34206 0.839956 0 0 1.00098 1.92627e-05
259 8.19666 3.6517 0.569194 0 0 1.00098 1.81775e-05
258 8.22485 4.49925 0.0107392 0 0 1.00098 2.14785e-05
1098 8.34092 4.48815 1.47264 0 0 1.00098 2.21153e-05
1177 7.42817 5.09088 1.59004 0 0 1.00098 2.27983e-05
337 7.32431 5.22024 0.118471 0 0 1.00098 2.19855e-05
339 8.31737 5.22007 0.750744 0 0 1.00098 2.48926e-05
1101 9.09518 3.76298 1.45319 0 0 1.00098 1.99581e-05
264 9.17409 4.46713 0.692021 0 0 1.00098 2.32161e-05
263 10.0008 3.78531 0.789878 0 0 1.00098 2.11042e-05
1181 9.31961 5.17907 1.48428 0 0 1.00098 2.77676e-05
262 10.0767 4.64227 0.00580478 0 0 1.00098 2.55939e-05
1102 10.1212 4.48058 1.5639 0 0 1.00098 2.54059e-05
268 10.8746 4.55819 0.79091 0 0 1.00098 2.65406e-05
265 10.796 3.81696 0.0955567 0 0 1.00099 2.22202e-05
1105 10.8389 3.62575 1.63898 0 0 1.00098 2.1422e-05
267 11.6269 3.93142 0.879516 0 0 1.00098 2.32547e-05
1106 11.7083 4.52464 1.73116 0 0 1.00098 2.73761e-05
266 11.6762 4.8146 0.0171567 0 0 1.00098 2.81261e-05
269 12.4368 4.13974 0.202083 0 0 1.00098 2.47017e-05
1109 12.4352 3.82115 1.67479 0 0 1.00098 2.45438e-05
272 12.6029 4.68477 1.00304 0 0 1.00098 2.89193e-05
271 13.347 4.09609 1.02925 0 0 1.00099 2.65629e-05
270 13.2686 5.0487 0.186915 0 0 1.00098 3.02731e-05
273 13.7096 4.19011 0.04986 0 0 1.00098 2.55476e-05
1113 14.0703 4.55066 1.70547 0 0 1.00099 2.94197e-05
275 14.4025 4.42967 0.760064 0 0 1.00099 2.86315e-05
1034 14.6437 3.91003 1.58682 0 0 1.00099 2.50815e-05
274 14.6326 5.22294 0.00245808 0 0 1.00098 3.34335e-05
200 15.1157 3.94458 0.693059 0 0 1.00099 2.51026e-05
277 15.3694 4.70048 0.0853081 0 0 1.00099 2.92079e-05
1117 15.5167 4.92084 1.50311 0 0 1.00099 3.2531e-05
279 16.2881 5.03636 0.830635 0 0 1.00099 3.2421e-05
198 16.0726 4.13891 0.106642 0 0 1.00099 2.50568e-05
1038 16.2162 4.36497 1.60433 0 0 1.00099 2.71299e-05
204 16.7924 4.15159 0.887372 0 0 1.00098 2.58503e-05
281 17.0823 4.91967 0.14134 0 0 1.00098 3.03017e-05
1121 17.2081 5.18811 1.66787 0 0 1.00099 3.40499e-05
1042 17.5005 4.19445 1.66482 0 0 1.00098 2.73172e-05
283 17.7981 4.91908 0.902288 0 0 1.00098 3.10209e-05
208 18.3299 4.18282 0.793601 0 0 1.00098 2.559e-05
209 19.711 3.56094 0.19922 0 0 1.00098 2.19908e-05
285 18.5947 5.02813 0.0468706 0 0 1.00098 3.13646e-05
1046 18.9616 4.12979 1.63798 0 0 1.00098 2.61142e-05
287 19.2411 5.03901 1.08537 0 0 1.00098 3.21846e-05
206 19.1643 4.33135 0.0808208 0 0 1.00098 2.60061e-05
212 19.8252 4.29731 0.966314 0 0 1.00098 2.63018e-05
289 19.9855 5.26321 0.355837 0 0 1.00098 3.29623e-05
213 21.1948 3.74171 0.316146 0 0 1.00099 2.28651e-05
210 20.554 4.44196 0.261306 0 0 1.00098 2.69781e-05
211 20.5914 3.89433 1.27338 0 0 1.00099 2.40289e-05
216 21.3594 4.58754 1.19813 0 0 1.00098 2.70837e-05
214 22.0465 4.80403 0.510173 0 0 1.00098 2.76934e-05
215 22.1374 4.08428 1.39487 0 0 1.00099 2.31228e-05
217 22.7542 4.05192 0.602612 0 0 1.00099 2.34082e-05
220 22.8532 5.02847 1.30058 0 0 1.00098 2.82277e-05
16179 23.4713 4.25553 0.0267311 0 0 1.00099 2.27168e-05
218 23.551 5.25208 0.550091 0 0 1.00098 2.73711e-05
144 24.319 3.71501 1.52332 0 0 1.00098 1.94926e-05
219 23.6292 4.47396 1.39282 0 0 1.00098 2.3622e-05
221 24.3426 4.48533 0.756096 0 0 1.00098 2.24229e-05
222 25.1406 5.23978 0.634078 0 0 1.00098 2.39493e-05
223 25.1718 4.39423 1.54825 0 0 1.00098 2.09174e-05
227 26.3533 4.27638 1.51625 0 0 1.00098 1.78923e-05
225 25.7323 4.43058 0.739985 0 0 1.00098 1.93285e-05
226 26.2901 5.22668 0.431013 0 0 1.00098 2.06486e-05
229 26.7969 4.22929 0.593439 0 0 1.00098 1.65745e-05
232 27.0606 5.03806 1.36814 0 0 1.00098 1.82322e-05
231 27.7603 3.97796 1.40157 0 0 1.00098 1.37171e-05
230 27.7015 4.70838 0.578727 0 0 1.00098 1.59874e-05
233 28.4825 3.76302 0.335901 0 0 1.00099 1.16916e-05
236 28.5605 4.53386 1.11715 0 0 1.00099 1.33462e-05
235 29.7093 3.62723 1.17683 0 0 1.00099 8.77153e-06
313 28.9079 5.2791 0.683531 0 0 1.00099 1.32097e-05
234 29.4615 4.199 0.45898 0 0 1.00099 1.01475e-05
315 29.6803 4.92862 1.29828 0 0 1.00099 1.076e-05
240 30.5099 4.31141 1.02641 0 0 1.00099 7.90004e-06
238 31.5146 4.09647 0.343229 0 0 1.00099 5.27993e-06
317 30.7657 4.92313 0.465078 0 0 1.00099 7.36632e-06
319 31.5363 4.71167 1.36793 0 0 1.00099 5.5814e-06
242 1.53794 5.34773 0.448267 0 0 1.00098 6.17946e-06
323 1.47215 6.02079 1.2709 0 0 1.00098 6.63678e-06
324 0.949111 6.85754 1.46363 0 0 1.00098 5.35883e-06
322 1.66422 6.71583 0.555558 0 0 1.00098 7.40594e-06
321 0.655293 5.98994 0.447538 0 0 1.00098 4.26021e-06
398 0.145359 7.0136 0.597739 0 0 1.00098 2.77921e-06
399 0.114216 6.23299 1.3685 0 0 1.00098 2.51099e-06
328 2.41945 6.6592 1.23282 0 0 1.00098 9.94039e-06
325 2.55853 5.83593 0.476779 0 0 1.00098 9.63364e-06
327 3.01362 5.7317 1.35888 0 0 1.00098 1.12797e-05
326 3.22353 6.62997 0.453494 0 0 1.00098 1.27867e-05
332 4.00513 6.36616 1.13225 0 0 1.00099 1.49375e-05
329 4.15608 5.6693 0.450931 0 0 1.00098 1.41867e-05
331 4.89733 5.39889 1.19609 0 0 1.00098 1.62357e-05
330 4.8329 6.30068 0.216308 0 0 1.00099 1.77233e-05
411 4.85976 6.86038 1.16373 0 0 1.00099 1.88692e-05
336 5.66144 6.00887 1.13458 0 0 1.00099 2.0325e-05
333 5.66912 5.4796 0.28842 0 0 1.00099 1.84552e-05
335 6.56411 5.34631 0.940411 0 0 1.00099 2.11466e-05
334 6.48321 6.14277 0.134986 0 0 1.00098 2.31022e-05
415 6.45844 6.65367 0.969217 0 0 1.00099 2.42779e-05
413 5.60951 6.83156 0.207816 0 0 1.00099 2.12109e-05
340 7.45286 5.90282 0.913799 0 0 1.00098 2.56349e-05
417 7.55136 6.60008 0.114568 0 0 1.00098 2.82914e-05
1178 8.38645 5.83092 1.57452 0 0 1.00098 2.87067e-05
419 8.43988 6.68236 0.703622 0 0 1.00098 3.17081e-05
344 9.16501 5.87438 0.678276 0 0 1.00098 2.98603e-05
1261 9.32597 6.42206 1.52678 0 0 1.00098 3.44033e-05
1258 8.45394 7.01619 1.65482 0 0 1.00098 3.36797e-05
343 10.0501 5.29027 0.745286 0 0 1.00098 2.90055e-05
423 10.2066 6.64118 0.658791 0 0 1.00098 3.65037e-05
1182 10.3363 5.99561 1.44947 0 0 1.00098 3.44142e-05
1185 11.0288 5.31536 1.48453 0 0 1.00098 3.18102e-05
345 10.9671 5.43558 0.0644013 0 0 1.00098 3.11809e-05
348 11.1373 6.25835 0.716006 0 0 1.00098 3.6745e-05
1265 11.133 6.86146 1.56535 0 0 1.00098 4.16674e-05
347 11.8595 5.30455 0.886141 0 0 1.00098 3.15712e-05
346 11.8865 6.18978 0.089361 0 0 1.00098 3.76976e-05
1186 11.8994 6.11581 1.47767 0 0 1.00098 3.8506e-05
349 12.6592 5.70443 0.0285007 0 0 1.00098 3.47515e-05
352 12.7655 6.43416 0.788741 0 0 1.00098 4.12927e-05
351 13.1746 5.64479 1.04696 0 0 1.00098 3.61029e-05
1190 13.7034 6.57419 1.35665 0 0 1.00099 4.37921e-05
276 14.0705 5.38208 0.861472 0 0 1.00098 3.43498e-05
1114 14.8116 5.56016 1.58312 0 0 1.00098 3.72821e-05
355 14.8741 6.22677 0.788458 0 0 1.00099 4.10806e-05
356 14.289 6.85647 0.584032 0 0 1.00098 4.54401e-05
1194 15.1699 7.00889 1.40295 0 0 1.00099 4.7758e-05
280 15.5076 5.55101 0.760759 0 0 1.00099 3.68803e-05
357 15.6362 6.23675 0.0189217 0 0 1.00099 4.10536e-05
1197 15.9119 6.46037 1.45117 0 0 1.00099 4.51167e-05
278 16.377 5.61707 0.0354872 0 0 1.00099 3.57819e-05
359 16.5899 6.51982 0.800617 0 0 1.00099 4.41712e-05
1118 16.6365 5.90138 1.68936 0 0 1.00099 4.03133e-05
361 17.1844 6.50687 0.0445113 0 0 1.00099 4.2984e-05
284 17.2941 5.91132 0.949062 0 0 1.00099 3.85016e-05
363 18.0142 6.8216 1.14259 0 0 1.00099 4.50969e-05
282 17.9548 5.7724 0.245837 0 0 1.00098 3.65722e-05
288 18.4906 5.84748 1.21941 0 0 1.00098 3.80726e-05
365 18.5893 6.72543 0.371969 0 0 1.00098 4.46149e-05
367 19.1471 6.82132 1.31715 0 0 1.00098 4.57954e-05
286 19.1802 5.88581 0.47957 0 0 1.00098 3.80187e-05
292 20.0467 5.97695 1.19104 0 0 1.00098 3.85349e-05
369 19.8173 6.93484 0.603022 0 0 1.00098 4.52134e-05
291 20.7903 5.40113 1.1276 0 0 1.00099 3.27133e-05
293 21.2856 5.59066 0.362828 0 0 1.00098 3.31331e-05
290 20.7602 6.53022 0.626325 0 0 1.00098 4.06342e-05
296 21.4288 6.51092 1.37626 0 0 1.00098 3.98932e-05
295 21.9619 5.61332 1.34127 0 0 1.00098 3.34474e-05
294 21.9996 6.71179 0.63768 0 0 1.00098 3.89651e-05
297 22.6996 5.90837 0.766654 0 0 1.00098 3.30319e-05
300 22.8433 6.886 1.34726 0 0 1.00098 3.86549e-05
16260 22.8646 6.73824 0.0434069 0 0 1.00098 3.70143e-05
299 23.5663 6.15547 1.28918 0 0 1.00098 3.28239e-05
224 24.3846 5.45444 1.33523 0 0 1.00098 2.70739e-05
298 23.7365 6.8866 0.63389 0 0 1.00098 3.48283e-05
301 24.4642 6.05715 0.541547 0 0 1.00098 2.88328e-05
304 24.5303 6.96225 1.27256 0 0 1.00098 3.31332e-05
228 25.8317 5.34362 1.5529 0 0 1.00098 2.27245e-05
302 25.1473 7.00487 0.444562 0 0 1.00098 3.0751e-05
303 25.2806 6.26641 1.44227 0 0 1.00098 2.76145e-05
305 25.7367 6.14731 0.56509 0 0 1.00098 2.54747e-05
307 26.5394 6.02356 1.35762 0 0 1.00098 2.29069e-05
306 26.5821 6.76176 0.686228 0 0 1.00098 2.4328e-05
308 26.0551 7.00785 1.61312 0 0 1.00098 2.7734e-05
311 28.0454 5.5515 1.39578 0 0 1.00099 1.67108e-05
309 27.2724 5.74132 0.637341 0 0 1.00098 1.95248e-05
312 27.4997 6.66643 1.46185 0 0 1.00098 2.08648e-05
310 28.2524 6.22721 0.698073 0 0 1.00098 1.69744e-05
316 29.0918 6.09044 1.4466 0 0 1.00099 1.43659e-05
314 30.0281 5.70009 0.803094 0 0 1.00099 1.05438e-05
393 29.2206 6.7895 0.655374 0 0 1.00098 1.47693e-05
16355 30.0729 6.54507 0.0672412 0 0 1.00098 1.16646e-05
16276 29.1573 5.93577 0.0264424 0 0 1.00098 1.34821e-05
395 30.1357 6.60697 1.30584 0 0 1.00099 1.12053e-05
318 31.5872 5.48366 0.57779 0 0 1.00098 6.45079e-06
320 30.8554 5.70005 1.42693 0 0 1.00099 8.15238e-06
397 31.0495 6.41635 0.620622 0 0 1.00098 8.25361e-06
401 0.978208 7.56567 0.624677 0 0 1.00098 4.97115e-06
402 1.59561 8.26738 0.570257 0 0 1.00098 7.44162e-06
404 1.06194 8.43592 1.44106 0 0 1.00098 5.36826e-06
478 0.389711 8.64308 0.397193 0 0 1.00098 2.78874e-06
479 0.205185 7.89222 1.27471 0 0 1.00098 2.60692e-06
403 1.82395 7.5712 1.45217 0 0 1.00098 8.35722e-06
405 2.33529 7.42033 0.38701 0 0 1.00098 9.7082e-06
408 2.4961 8.1933 1.44163 0 0 1.00098 1.15352e-05
406 2.99558 8.11631 0.384222 0 0 1.00098 1.33929e-05
407 3.18423 7.3018 1.26596 0 0 1.00099 1.33814e-05
412 3.86855 7.86047 0.922079 0 0 1.00099 1.722e-05
409 4.05858 7.09926 0.320211 0 0 1.00099 1.62546e-05
410 4.6929 7.68792 0.0419372 0 0 1.00099 1.9686e-05
491 4.79905 8.26182 0.833305 0 0 1.00099 2.15465e-05
1250 4.71578 7.57192 1.74297 0 0 1.00099 2.12228e-05
1329 4.05834 8.49594 1.66387 0 0 1.00099 1.90554e-05
489 3.86468 8.64423 0.0950341 0 0 1.00099 1.7328e-05
1333 5.64557 8.08206 1.60381 0 0 1.00099 2.65473e-05
416 5.63236 7.38909 0.944747 0 0 1.00099 2.34733e-05
495 6.29517 7.97045 0.600806 0 0 1.00099 2.76084e-05
1334 6.31256 8.75111 1.17396 0 0 1.00099 3.04851e-05
414 6.88279 7.35271 0.204054 0 0 1.00099 2.7637e-05
1337 7.21929 7.94653 1.21135 0 0 1.00099 3.31107e-05
420 7.49973 7.10914 1.04312 0 0 1.00099 2.97068e-05
499 8.28174 7.73954 0.718672 0 0 1.00099 3.47982e-05
1338 8.2614 8.53299 1.17058 0 0 1.00098 3.95259e-05
500 7.23748 8.6575 0.495311 0 0 1.00099 3.39228e-05
424 9.47627 7.22957 0.846364 0 0 1.00098 3.74366e-05
501 9.31976 7.91152 0.052217 0 0 1.00098 3.95051e-05
1341 9.27086 7.97997 1.36701 0 0 1.00098 4.15793e-05
504 9.17433 8.72367 0.558347 0 0 1.00098 4.35641e-05
503 10.2413 8.26698 0.681161 0 0 1.00098 4.56301e-05
1262 10.3982 7.51586 1.39534 0 0 1.00098 4.32969e-05
428 11.1422 7.60763 0.688693 0 0 1.00098 4.50673e-05
1345 11.2378 8.41466 1.38162 0 0 1.00098 5.11776e-05
507 11.926 8.67238 0.658484 0 0 1.00098 5.34995e-05
427 12.0216 7.05334 0.805215 0 0 1.00098 4.37357e-05
1266 12.1108 7.80884 1.42292 0 0 1.00097 5.06465e-05
429 12.7127 7.32111 0.0161371 0 0 1.00098 4.63951e-05
432 12.855 8.02065 0.708472 0 0 1.00098 5.18854e-05
1269 12.9371 7.06407 1.54444 0 0 1.00098 4.78727e-05
1349 12.9551 8.73074 1.37552 0 0 1.00098 5.86599e-05
1270 13.6977 8.01939 1.49957 0 0 1.00098 5.53008e-05
431 13.7296 7.59235 0.59211 0 0 1.00098 4.93745e-05
1273 14.5122 7.53647 1.47673 0 0 1.00099 5.42717e-05
436 14.5748 8.46919 0.773517 0 0 1.00098 5.85632e-05
435 15.2551 7.83867 0.544059 0 0 1.00099 5.35454e-05
1274 15.3972 8.6089 1.57667 0 0 1.00099 6.41775e-05
360 15.9287 7.217 0.653151 0 0 1.00099 4.93547e-05
1277 16.001 7.98957 1.39139 0 0 1.001 5.70246e-05
437 16.1392 8.30903 0.0363749 0 0 1.00099 5.75071e-05
439 16.8103 8.33787 0.891561 0 0 1.00099 5.88886e-05
1198 16.8649 7.63508 1.68569 0 0 1.001 5.49114e-05
364 17.2434 7.45055 0.854378 0 0 1.00099 5.01294e-05
441 17.4797 8.52596 0.142846 0 0 1.00099 5.87123e-05
443 17.9616 8.50842 1.07747 0 0 1.00099 5.97533e-05
362 18.0446 7.56822 0.298489 0 0 1.00098 5.10498e-05
368 18.6541 7.81974 1.08227 0 0 1.00098 5.31804e-05
445 18.6753 8.66019 0.280639 0 0 1.00098 6.04104e-05
447 19.3342 8.75005 1.0243 0 0 1.00098 5.92764e-05
366 19.3932 7.8521 0.220543 0 0 1.00098 5.22761e-05
372 19.8394 7.80861 1.15842 0 0 1.00098 5.36123e-05
370 20.5159 8.20526 0.613185 0 0 1.00098 5.24108e-05
371 20.7461 7.43471 1.35086 0 0 1.00098 4.80127e-05
373 21.3732 7.67105 0.597197 0 0 1.00098 4.64862e-05
376 21.3661 8.67163 1.31414 0 0 1.00098 5.4007e-05
374 22.0762 8.5388 0.596932 0 0 1.00098 5.03329e-05
375 22.1054 7.65825 1.30419 0 0 1.00098 4.57787e-05
377 22.8855 7.76893 0.668456 0 0 1.00098 4.29829e-05
378 23.5899 8.63682 0.397491 0 0 1.00098 4.38028e-05
379 23.7958 7.81536 1.20451 0 0 1.00098 4.01548e-05
381 24.4552 7.85773 0.304154 0 0 1.00098 3.68847e-05
384 24.5709 8.5303 1.08416 0 0 1.00098 3.92964e-05
383 25.3477 7.66952 1.18975 0 0 1.00098 3.26091e-05
382 25.3521 8.4465 0.307775 0 0 1.00098 3.47999e-05
385 26.0977 7.69827 0.496649 0 0 1.00098 2.88418e-05
388 26.1205 8.47941 1.23259 0 0 1.00098 3.1506e-05
387 26.7908 7.58038 1.41098 0 0 1.00098 2.61714e-05
389 27.586 7.18798 0.627425 0 0 1.00098 2.13089e-05
386 26.9749 8.22662 0.388947 0 0 1.00098 2.6788e-05
392 27.6819 8.02125 1.31115 0 0 1.00098 2.30833e-05
469 27.8552 8.67656 0.432013 0 0 1.00098 2.30627e-05
391 28.4654 7.15621 1.37549 0 0 1.00098 1.78626e-05
390 28.5148 7.72857 0.515409 0 0 1.00098 1.84736e-05
471 28.6276 8.59136 1.21114 0 0 1.00098 1.96094e-05
396 29.4004 7.67251 1.23775 0 0 1.00098 1.50249e-05
473 29.4603 8.32267 0.418639 0 0 1.00098 1.51905e-05
475 30.2535 8.12316 1.279 0 0 1.00098 1.17512e-05
394 30.2931 7.35428 0.501203 0 0 1.00098 1.13498e-05
400 31.0291 7.32828 1.18004 0 0 1.00098 8.35248e-06
480 31.139 8.74298 1.19274 0 0 1.00098 8.48896e-06
477 31.3321 8.06925 0.388705 0 0 1.00098 7.72959e-06
484 0.926805 9.85422 0.913476 0 0 1.00098 4.36782e-06
481 1.04439 9.22918 0.121713 0 0 1.00098 4.95e-06
1322 1.5139 9.88103 1.72673 0 0 1.00098 7.13594e-06
559 0.19222 9.35851 1.13311 0 0 1.00098 1.78426e-06
558 0.143969 10.0544 0.0594349 0 0 1.00098 8.85026e-07
483 1.73197 9.09048 1.17069 0 0 1.00098 8.09957e-06
482 1.78195 9.96793 0.24502 0 0 1.00098 7.96083e-06
485 2.47016 9.01672 0.411522 0 0 1.00098 1.10685e-05
488 2.51298 9.85687 0.97562 0 0 1.00098 1.13047e-05
486 3.30215 9.62609 0.0815942 0 0 1.00099 1.48815e-05
487 3.14501 8.85358 1.17439 0 0 1.00098 1.42382e-05
567 3.24814 10.3347 0.714894 0 0 1.00099 1.49432e-05
1405 2.34768 10.5454 1.56959 0 0 1.00098 1.13484e-05
1326 3.4931 9.52368 1.65449 0 0 1.00099 1.65774e-05
492 4.14694 9.26145 0.741669 0 0 1.00099 1.89529e-05
1330 4.99122 9.01296 1.55355 0 0 1.00098 2.41129e-05
1409 4.27396 9.95833 1.42276 0 0 1.00099 2.04516e-05
571 4.84696 9.97209 0.496267 0 0 1.00099 2.30399e-05
496 5.46627 9.02648 0.574473 0 0 1.00099 2.5784e-05
575 6.30856 9.58547 0.445949 0 0 1.00098 3.1252e-05
1413 5.64507 9.72343 1.43537 0 0 1.00099 2.87386e-05
1414 6.40558 10.2081 1.1956 0 0 1.00099 3.28517e-05
1417 7.26399 9.32449 1.19465 0 0 1.00098 3.67188e-05
579 8.01101 9.38876 0.457836 0 0 1.00098 4.01849e-05
580 7.10612 10.1907 0.367172 0 0 1.00098 3.67413e-05
1418 8.05382 10.1629 1.10609 0 0 1.00098 4.3923e-05
1421 8.89198 9.33163 1.30869 0 0 1.00098 4.57991e-05
583 9.98671 9.62717 0.651684 0 0 1.00098 5.09764e-05
584 9.00081 10.0875 0.658696 0 0 1.00098 4.72851e-05
1422 9.95124 10.3343 1.35635 0 0 1.00098 5.58855e-05
1342 10.0491 8.92098 1.36954 0 0 1.00098 4.93559e-05
508 10.9664 9.14178 0.65594 0 0 1.00098 5.29737e-05
1425 10.9773 9.81216 1.37258 0 0 1.00098 5.9375e-05
587 11.6802 9.97834 0.655439 0 0 1.00099 6.0244e-05
588 10.6707 10.5485 0.540992 0 0 1.00098 5.84543e-05
1346 12.1018 9.09956 1.58476 0 0 1.00098 5.8933e-05
512 12.6381 9.56144 0.713466 0 0 1.00098 6.12392e-05
510 13.2685 9.86155 0.034959 0 0 1.00098 6.40949e-05
1429 12.6651 10.1906 1.50026 0 0 1.00098 6.76573e-05
589 12.3912 10.4837 0.185631 0 0 1.00099 6.44936e-05
1350 13.5688 9.70935 1.58245 0 0 1.00098 6.80584e-05
511 13.6454 9.0523 0.687563 0 0 1.00098 6.06765e-05
1353 14.3253 9.00949 1.61596 0 0 1.00098 6.57925e-05
516 14.3523 9.91747 0.939983 0 0 1.00098 6.8211e-05
514 14.9342 10.2303 0.0451437 0 0 1.00098 7.13511e-05
591 13.4442 10.5631 0.983869 0 0 1.00098 7.01742e-05
515 15.1712 9.35499 0.86574 0 0 1.00098 6.63163e-05
1354 15.1763 10.0699 1.69599 0 0 1.00098 7.51939e-05
517 15.8737 9.89948 0.212848 0 0 1.00098 6.9803e-05
440 16.1175 9.04459 0.819311 0 0 1.00099 6.42202e-05
520 15.8124 10.5403 1.0304 0 0 1.00098 7.51655e-05
519 16.7588 9.96973 1.02492 0 0 1.00098 7.33248e-05
438 16.8537 9.2882 0.137768 0 0 1.00099 6.4603e-05
521 17.2628 10.3525 0.222198 0 0 1.00098 7.4177e-05
444 17.5735 9.43776 1.13705 0 0 1.00099 6.82114e-05
523 18.0814 10.4341 0.973058 0 0 1.00098 7.6257e-05
442 18.0749 9.51124 0.259563 0 0 1.00098 6.73437e-05
448 18.7342 9.62204 1.07073 0 0 1.00098 6.78425e-05
449 19.9886 9.03998 0.22934 0 0 1.00098 5.85307e-05
446 19.3093 9.85561 0.113562 0 0 1.00098 6.66815e-05
452 19.8857 9.84142 0.960108 0 0 1.00098 6.7998e-05
451 20.5091 9.11483 1.1857 0 0 1.00098 6.07481e-05
453 21.2544 9.17475 0.385834 0 0 1.00097 5.78356e-05
450 20.6955 10.0113 0.232156 0 0 1.00098 6.49347e-05
456 21.2814 10.1399 1.03108 0 0 1.00098 6.36446e-05
380 22.871 8.84891 1.13591 0 0 1.00097 4.92599e-05