ITEM: TIMESTEP
9000
ITEM: NUMBER OF ATOMS
32000
ITEM: BOX BOUNDS pp pp pp
0.0000000000000000e+00 3.1748021039364001e+01
0.0000000000000000e+00 3.1748021039364001e+01
0.0000000000000000e+00 3.1748021039364001e+01
ITEM: ATOMS id x y z c_phase c_nbond c_rho v_omega
4 0.156419 1.11958 0.466113 0 0 1.00027 -9.12233e-07
83 1.02605 1.66536 0.778613 0 0 1.00027 9.11322e-07
842 0.747907 0.796792 1.41074 0 0 1.00027 -3.33976e-07
921 0.0559637 1.62269 1.37617 0 0 1.00027 -5.18162e-07
3 0.746133 0.0681178 0.616531 0 0 1.00027 -1.1499e-06
8 1.74456 0.793378 1.01368 0 0 1.00027 8.66135e-07
85 1.85242 1.45696 0.218475 0 0 1.00027 1.8608e-06
925 1.87897 1.63685 1.75647 0 0 1.00027 2.23872e-06
6 2.55377 0.712575 0.202672 0 0 1.00027 1.73367e-06
7 2.60602 0.0179317 1.03529 0 0 1.00027 7.9862e-07
87 2.70115 1.50145 0.878831 0 0 1.00027 3.14047e-06
846 2.70641 0.7775 1.74064 0 0 1.00027 2.08673e-06
12 3.47088 0.877391 0.956467 0 0 1.00027 3.11909e-06
849 3.5138 0.0354094 1.70394 0 0 1.00027 1.74738e-06
929 3.66595 1.64574 1.71464 0 0 1.00027 4.80824e-06
10 4.14749 0.792761 0.321127 0 0 1.00027 3.57136e-06
16 4.99966 0.487939 1.16455 0 0 1.00027 3.74416e-06
93 4.98083 1.51989 0.382428 0 0 1.00027 5.99742e-06
850 4.38185 0.87132 1.62861 0 0 1.00027 4.19071e-06
9 3.49294 0.0558746 0.171393 0 0 1.00027 1.61515e-06
14 5.68383 0.558337 0.319934 0 0 1.00027 4.31815e-06
95 5.9409 1.22224 0.940592 0 0 1.00027 6.20692e-06
97 6.63721 1.29903 0.217037 0 0 1.00027 6.75842e-06
854 5.81704 0.369728 1.69621 0 0 1.00027 4.04978e-06
933 5.09256 1.63513 1.43317 0 0 1.00027 6.662e-06
20 6.74317 0.300006 0.866153 0 0 1.00027 4.10707e-06
937 6.74128 0.912819 1.69136 0 0 1.00027 5.96419e-06
24 8.29574 0.311187 1.06625 0 0 1.00027 4.34422e-06
99 7.42679 1.12525 0.949477 0 0 1.00027 6.7745e-06
101 8.31408 1.2909 0.23427 0 0 1.00027 7.56634e-06
941 8.1953 1.1686 1.60721 0 0 1.00027 7.51831e-06
18 7.62267 0.556214 0.145011 0 0 1.00027 4.98265e-06
22 8.89291 0.412013 0.266508 0 0 1.00027 4.49741e-06
28 9.58502 0.243244 0.89061 0 0 1.00027 3.63498e-06
103 9.08944 1.21014 1.10296 0 0 1.00027 7.50866e-06
945 9.63969 0.877811 1.76126 0 0 1.00027 6.26231e-06
105 9.70999 1.27702 0.0931455 0 0 1.00027 7.60601e-06
32 11.2351 0.14215 0.635262 0 0 1.00027 2.49483e-06
107 10.4267 0.964496 0.823704 0 0 1.00027 6.30743e-06
866 10.5443 0.112865 1.44547 0 0 1.00027 2.74638e-06
949 11.3536 0.940686 1.41639 0 0 1.00027 6.0821e-06
946 10.6705 1.59296 1.72435 0 0 1.00027 9.34865e-06
26 10.2754 0.280999 0.076775 0 0 1.00027 3.4998e-06
112 11.2607 1.75311 0.771145 0 0 1.00027 9.85463e-06
36 12.904 0.169378 0.637291 0 0 1.00027 1.77016e-06
111 12.1093 1.01465 0.509414 0 0 1.00027 6.02837e-06
870 12.1617 0.255936 1.30041 0 0 1.00027 2.56527e-06
953 12.7971 1.14636 1.37272 0 0 1.00027 6.64544e-06
40 14.4067 0.310761 0.769526 0 0 1.00027 1.98217e-06
115 13.6632 1.08326 0.8433 0 0 1.00027 5.98845e-06
117 14.1409 1.53863 0.161298 0 0 1.00027 8.34067e-06
874 13.644 0.330204 1.63456 0 0 1.00027 2.25049e-06
957 14.4549 1.14202 1.47841 0 0 1.00027 6.18709e-06
119 14.9757 1.55629 0.664362 0 0 1.00027 8.34289e-06
44 15.7654 0.790132 0.788588 0 0 1.00027 4.44723e-06
123 16.6464 1.58997 0.684013 0 0 1.00027 9.02349e-06
878 15.1836 0.472519 1.64094 0 0 1.00027 2.68402e-06
882 16.6 0.755059 1.34431 0 0 1.00027 4.47014e-06
961 15.7269 1.51142 1.39468 0 0 1.00027 8.48576e-06
38 15.156 0.717782 0.0680943 0 0 1.00027 3.83264e-06
48 17.3129 0.792364 0.553988 0 0 1.00027 4.9227e-06
127 18.0206 1.66335 0.75663 0 0 1.00027 1.01561e-05
886 17.9711 0.823734 1.42762 0 0 1.00027 5.59464e-06
51 19.5532 0.120766 0.667059 0 0 1.00027 3.42745e-06
52 18.8425 0.824257 0.688661 0 0 1.00027 6.0907e-06
131 19.6299 1.66819 0.843708 0 0 1.00027 1.11937e-05
889 19.0461 0.257306 1.54795 0 0 1.00027 3.38514e-06
890 19.6582 1.08254 1.69488 0 0 1.00027 8.33145e-06
969 18.7559 1.60725 1.50177 0 0 1.00027 1.04182e-05
129 18.9602 1.68245 0.000599714 0 0 1.00027 1.07421e-05
55 21.135 0.481572 1.07131 0 0 1.00027 6.2075e-06
56 20.2989 0.899934 0.976587 0 0 1.00027 7.67392e-06
54 21.2333 0.901214 0.217811 0 0 1.00027 8.34068e-06
133 20.4307 1.63957 0.20073 0 0 1.00027 1.14811e-05
57 22.0401 0.409869 0.540757 0 0 1.00027 6.69432e-06
59 22.8321 0.575977 1.40585 0 0 1.00027 7.81314e-06
60 22.177 1.29964 1.33338 0 0 1.00027 1.08194e-05
137 22.0776 1.74971 0.531167 0 0 1.00027 1.27314e-05
58 22.9694 1.21056 0.457943 0 0 1.00027 1.03193e-05
63 24.2728 0.527788 1.43724 0 0 1.00027 7.97405e-06
61 23.5993 0.498829 0.577847 0 0 1.00027 7.69339e-06
62 24.491 1.32637 0.75419 0 0 1.00027 1.0722e-05
64 23.5452 1.39476 1.40066 0 0 1.00027 1.12712e-05
65 24.9859 0.456881 0.549777 0 0 1.00027 7.7455e-06
67 26.0328 0.512503 1.17232 0 0 1.00027 7.54599e-06
68 25.2197 1.27085 1.47472 0 0 1.00027 1.04075e-05
66 25.9363 1.0693 0.430454 0 0 1.00027 9.23764e-06
70 27.6243 1.39245 0.388845 0 0 1.00027 8.513e-06
71 27.6418 0.615918 0.875279 0 0 1.00027 6.67654e-06
72 26.7974 1.15361 1.26127 0 0 1.00027 8.75516e-06
913 28.4034 0.436993 1.4062 0 0 1.00027 5.5839e-06
69 26.8136 0.362282 0.231747 0 0 1.00027 6.72833e-06
76 28.6951 1.32822 0.739136 0 0 1.00027 6.98916e-06
914 29.4231 1.02831 1.56957 0 0 1.00027 5.55844e-06
917 29.8353 0.236301 1.46022 0 0 1.00027 3.6572e-06
75 29.2969 0.431202 0.616881 0 0 1.00027 4.57916e-06
841 31.6084 0.291184 1.25645 0 0 1.00027 1.60719e-06
79 30.7311 0.531221 0.47393 0 0 1.00027 3.0548e-06
80 30.1407 1.25795 0.774407 0 0 1.00027 4.9364e-06
918 30.9004 1.01389 1.39302 0 0 1.00027 3.514e-06
82 1.17995 2.43018 0.126224 0 0 1.00027 1.97161e-06
84 0.201667 2.40014 0.810589 0 0 1.00027 3.76432e-07
163 1.37192 3.22194 0.946118 0 0 1.00027 3.21482e-06
922 1.20784 2.35473 1.58947 0 0 1.00027 2.0726e-06
1001 0.466367 3.04461 1.54871 0 0 1.00027 1.37515e-06
161 0.413386 3.112 0.131053 0 0 1.00027 1.20017e-06
88 1.98167 2.39221 0.783133 0 0 1.00027 3.29464e-06
167 2.74761 3.23511 0.857593 0 0 1.00027 5.91052e-06
926 2.74075 2.19013 1.53429 0 0 1.00027 4.38817e-06
86 2.79725 2.34046 0.0542461 0 0 1.00027 4.55667e-06
1005 2.19585 3.06512 1.76032 0 0 1.00027 4.70211e-06
1009 3.35818 3.36068 1.6475 0 0 1.00027 7.56961e-06
92 3.46131 2.49867 0.779504 0 0 1.00027 6.00305e-06
91 4.07274 1.77275 0.710432 0 0 1.00027 5.53865e-06
96 4.99832 2.48638 0.815013 0 0 1.00027 8.44779e-06
171 4.30101 3.24133 0.748954 0 0 1.00027 8.83236e-06
930 4.22294 2.56748 1.57882 0 0 1.00027 7.51435e-06
94 5.74013 2.35318 0.134317 0 0 1.00027 9.02699e-06
100 6.64614 2.08322 0.77453 0 0 1.00027 9.25724e-06
175 5.76124 3.09844 0.952246 0 0 1.00027 1.12396e-05
934 5.94464 2.10341 1.49151 0 0 1.00027 8.78224e-06
1017 6.64268 2.95733 1.54757 0 0 1.00027 1.23375e-05
177 6.75646 2.82977 0.129516 0 0 1.00027 1.15566e-05
98 7.54716 2.12369 0.136928 0 0 1.00027 1.01186e-05
104 8.18554 2.09562 0.930601 0 0 1.00027 1.0647e-05
179 7.52351 2.95272 0.92352 0 0 1.00027 1.32248e-05
938 7.38976 1.95609 1.56541 0 0 1.00027 9.74667e-06
1021 8.31707 2.88354 1.64523 0 0 1.00027 1.41894e-05
181 8.39703 2.86047 0.0380889 0 0 1.00027 1.35142e-05
102 9.006 1.99095 0.249613 0 0 1.00027 1.04366e-05
108 9.8766 1.92577 1.10113 0 0 1.00027 1.05478e-05
183 9.05859 2.86161 0.927071 0 0 1.00027 1.45026e-05
942 9.13801 2.11428 1.70408 0 0 1.00027 1.1589e-05
185 9.69959 2.80482 0.207255 0 0 1.00027 1.43342e-05
188 10.0587 3.47514 0.883919 0 0 1.00027 1.79801e-05
106 10.3921 2.02232 0.20691 0 0 1.00027 1.09643e-05
187 10.7619 2.71357 0.917786 0 0 1.00027 1.45002e-05
1029 11.5923 2.75165 1.57987 0 0 1.00027 1.5518e-05
1026 10.8814 3.4755 1.58897 0 0 1.00027 1.90486e-05
116 12.7873 1.89184 0.5964 0 0 1.00027 1.03631e-05
191 12.0718 2.57878 0.738412 0 0 1.00027 1.42887e-05
950 12.0378 1.8524 1.46499 0 0 1.00027 1.04504e-05
1033 13.0177 2.96365 1.69112 0 0 1.00027 1.71752e-05
195 13.3624 2.98097 0.83975 0 0 1.00027 1.65327e-05
954 13.5024 1.95658 1.47855 0 0 1.00027 1.08999e-05
120 14.1645 2.42463 0.922739 0 0 1.00027 1.34907e-05
1037 14.225 3.36123 1.55446 0 0 1.00027 1.99442e-05
199 14.8952 3.43066 0.876447 0 0 1.00027 2.008e-05
958 14.9332 2.30316 1.44179 0 0 1.00027 1.3078e-05
118 14.9891 2.51189 0.136416 0 0 1.00027 1.41264e-05
197 14.3326 3.20312 0.0383415 0 0 1.00027 1.80866e-05
114 13.545 2.26346 0.0558447 0 0 1.00027 1.23673e-05
124 15.8409 2.46418 0.698034 0 0 1.00027 1.40515e-05
203 16.4915 3.24189 0.671562 0 0 1.00027 1.92679e-05
962 16.4608 2.51979 1.52576 0 0 1.00027 1.49536e-05
1041 15.5725 3.27276 1.5033 0 0 1.00027 1.95918e-05
201 15.7539 3.27884 0.0233429 0 0 1.00027 1.92867e-05
965 17.329 1.81104 1.56458 0 0 1.00027 1.09147e-05
128 17.2064 2.41544 0.683121 0 0 1.00027 1.42544e-05
207 18.1077 3.01604 0.706082 0 0 1.00027 1.84353e-05
966 18.1613 2.52345 1.58908 0 0 1.00027 1.57716e-05
1045 17.2716 3.18029 1.49984 0 0 1.00027 1.95867e-05
132 19.0244 2.46763 1.01464 0 0 1.00027 1.54616e-05
211 19.865 3.36799 1.27886 0 0 1.00027 2.17437e-05
209 19.0415 3.10946 0.192753 0 0 1.00027 1.94002e-05
130 19.7191 2.45204 0.106408 0 0 1.00027 1.56534e-05
135 21.1895 1.78489 0.960841 0 0 1.00027 1.26258e-05
973 20.4252 1.91416 1.73392 0 0 1.00027 1.33127e-05
134 21.285 2.56232 0.458081 0 0 1.00027 1.66034e-05
136 20.3302 2.59365 1.11043 0 0 1.00027 1.69757e-05
215 21.469 3.45642 1.39136 0 0 1.00027 2.18229e-05
213 20.5656 3.14078 0.332219 0 0 1.00027 1.98671e-05
139 22.9761 2.21765 1.51715 0 0 1.00027 1.50408e-05
138 23.0813 2.76366 0.735293 0 0 1.00027 1.71947e-05
140 22.2036 2.65348 1.24094 0 0 1.00027 1.73754e-05
217 22.1259 3.36249 0.605995 0 0 1.00027 2.1007e-05
141 23.8171 1.96375 0.624623 0 0 1.00027 1.33217e-05
143 24.5088 2.14084 1.60244 0 0 1.00027 1.40567e-05
142 24.4473 2.83968 0.776954 0 0 1.00027 1.66519e-05
144 23.8039 3.06054 1.53879 0 0 1.00027 1.84996e-05
16108 25.0597 2.98779 0.0158213 0 0 1.00027 1.64641e-05
147 25.9984 1.87636 1.35741 0 0 1.00027 1.17387e-05
149 26.6156 1.92183 0.513408 0 0 1.00027 1.1068e-05
145 25.2073 2.00006 0.517915 0 0 1.00027 1.2773e-05
146 25.8867 2.75406 0.706387 0 0 1.00027 1.46244e-05
148 25.2595 2.71543 1.52445 0 0 1.00027 1.53866e-05
152 26.621 2.70115 1.53111 0 0 1.00027 1.35287e-05
151 27.5689 2.10083 1.23541 0 0 1.00027 1.0315e-05
153 28.318 2.19169 0.345791 0 0 1.00027 9.40932e-06
150 27.1742 2.81716 0.641842 0 0 1.00027 1.2774e-05
231 27.3081 3.48326 1.41681 0 0 1.00027 1.4501e-05
156 28.3347 2.86089 1.2031 0 0 1.00027 1.09411e-05
233 28.0765 3.33417 0.334131 0 0 1.00027 1.25098e-05
993 28.5782 1.81898 1.50255 0 0 1.00027 8.28117e-06
997 30.0166 1.8733 1.70707 0 0 1.00027 6.23969e-06
155 29.5066 2.11551 0.882691 0 0 1.00027 7.32943e-06
154 29.2701 2.75032 0.289249 0 0 1.00027 8.95496e-06
235 29.3408 3.34563 1.17957 0 0 1.00027 9.95945e-06
159 30.9702 2.02375 0.924085 0 0 1.00027 4.83588e-06
160 30.2564 2.77077 1.00177 0 0 1.00027 7.09287e-06
239 31.1118 3.38627 0.973726 0 0 1.00027 6.42186e-06
998 31.0603 2.73456 1.72683 0 0 1.00027 5.66517e-06
237 30.2012 3.31415 0.142309 0 0 1.00027 8.15102e-06
157 30.4671 1.96057 0.0296201 0 0 1.00027 5.57676e-06
158 31.2155 2.69788 0.0768267 0 0 1.00027 5.34924e-06
164 0.388889 3.79625 0.91885 0 0 1.00027 1.65958e-06
241 0.249318 4.61585 0.47806 0 0 1.00027 1.80503e-06
243 1.24597 4.65611 0.985737 0 0 1.00027 4.20996e-06
244 0.207125 5.28498 1.27612 0 0 1.00027 2.0618e-06
162 1.13853 3.85427 0.0644153 0 0 1.00027 3.13547e-06
168 1.94834 4.01555 0.846745 0 0 1.00027 5.14682e-06
247 2.65704 4.80627 1.12909 0 0 1.00027 7.84534e-06
166 2.75755 4.09583 0.203211 0 0 1.00027 7.07301e-06
245 2.01311 4.93102 0.279324 0 0 1.00027 6.13754e-06
249 3.5336 4.78935 0.161556 0 0 1.00027 9.96067e-06
172 3.60195 4.00894 0.883708 0 0 1.00027 8.86368e-06
251 4.18396 4.79293 1.14604 0 0 1.00027 1.19393e-05
170 4.37564 4.09825 0.144635 0 0 1.00027 1.0703e-05
176 5.03582 3.90935 1.17062 0 0 1.00027 1.20462e-05
253 5.14657 4.64057 0.332825 0 0 1.00027 1.382e-05
174 5.89745 3.83415 0.189126 0 0 1.00027 1.34538e-05
180 6.63206 3.65912 0.775493 0 0 1.00027 1.4236e-05
255 5.83757 4.61586 1.0258 0 0 1.00027 1.57308e-05
1097 6.82099 4.39045 1.64284 0 0 1.00027 1.76321e-05
260 6.83985 5.00929 0.873151 0 0 1.00027 1.9142e-05
184 8.35744 3.76588 0.70165 0 0 1.00027 1.74252e-05
259 7.56841 4.33696 0.549042 0 0 1.00027 1.8337e-05
1018 7.55123 3.748 1.49664 0 0 1.00027 1.6541e-05
258 7.50843 5.22401 0.0370393 0 0 1.00027 2.14143e-05
1098 7.58401 5.27022 1.49143 0 0 1.00027 2.25661e-05
1101 8.38348 4.47693 1.48035 0 0 1.00027 2.10117e-05
264 8.40412 5.17972 0.694064 0 0 1.00027 2.34979e-05
263 9.26293 4.44281 0.816319 0 0 1.00027 2.18864e-05
1022 9.23762 3.6478 1.49751 0 0 1.00027 1.87618e-05
182 9.14963 3.75221 0.0574737 0 0 1.00027 1.82084e-05
268 9.98719 5.19736 0.79156 0 0 1.00027 2.68636e-05
1102 9.26281 5.19024 1.58697 0 0 1.00027 2.64011e-05
265 10.0503 4.39827 0.124657 0 0 1.00027 2.24241e-05
1105 10.0694 4.23138 1.65457 0 0 1.00027 2.26512e-05
192 11.5871 3.55836 0.788818 0 0 1.00027 1.95242e-05
267 10.7966 4.5466 0.901465 0 0 1.00027 2.45092e-05
269 11.5977 4.60265 0.220027 0 0 1.00027 2.50689e-05
1109 11.5784 4.28906 1.6977 0 0 1.00027 2.4872e-05
272 11.6303 5.17625 0.994946 0 0 1.00027 2.94033e-05
186 10.7677 3.74556 0.170829 0 0 1.00027 1.97119e-05
1106 10.7495 5.1062 1.75981 0 0 1.00027 2.85993e-05
196 12.6908 3.53113 0.812041 0 0 1.00027 1.9989e-05
271 12.4106 4.47596 0.997837 0 0 1.00027 2.5921e-05
1113 13.011 4.9159 1.68692 0 0 1.00027 3.00843e-05
273 12.8571 4.55284 0.0567953 0 0 1.00027 2.61575e-05
275 13.4616 4.64594 0.794583 0 0 1.00027 2.74522e-05
200 14.2139 4.09899 0.69514 0 0 1.00027 2.39833e-05
1034 13.7168 4.17665 1.59159 0 0 1.00027 2.53409e-05
1117 14.4652 5.08612 1.52349 0 0 1.00027 3.24417e-05
277 14.3864 4.8714 0.0698338 0 0 1.00027 2.91241e-05
279 15.2036 5.01829 0.811488 0 0 1.00027 3.12135e-05
198 15.1818 4.19097 0.101974 0 0 1.00027 2.49514e-05
1038 15.2168 4.41196 1.59418 0 0 1.00027 2.76501e-05
204 15.8887 4.08972 0.919465 0 0 1.00027 2.50353e-05
281 16.1162 4.80362 0.184324 0 0 1.00027 2.97025e-05
1042 16.5502 4.00777 1.68684 0 0 1.00027 2.56302e-05
1121 16.0876 5.07421 1.64468 0 0 1.00027 3.34458e-05
283 16.8336 4.64188 0.903127 0 0 1.00027 2.92545e-05
208 17.4791 3.90404 0.810649 0 0 1.00027 2.4118e-05
287 18.3114 4.58933 1.09776 0 0 1.00027 2.9603e-05
1046 18.1535 3.73563 1.65775 0 0 1.00027 2.39742e-05
285 17.6766 4.661 0.0207186 0 0 1.00027 2.93806e-05
206 18.3379 3.94706 0.0667157 0 0 1.00027 2.44749e-05
212 19.0602 3.82508 0.957514 0 0 1.00027 2.42232e-05
289 19.0478 4.73217 0.360795 0 0 1.00027 3.02444e-05
291 19.9 4.8136 1.10284 0 0 1.00027 3.10039e-05
210 19.7814 3.8961 0.237804 0 0 1.00027 2.44842e-05
216 20.617 3.97185 1.23735 0 0 1.00027 2.5124e-05
295 21.0893 4.88616 1.39331 0 0 1.00027 3.11173e-05
214 21.2688 4.09517 0.515845 0 0 1.00027 2.53561e-05
293 20.3608 4.93617 0.347373 0 0 1.00027 3.10113e-05
16179 22.8321 3.56378 0.0632175 0 0 1.00027 2.12503e-05
297 21.7942 5.13179 0.802883 0 0 1.00027 3.14025e-05
219 22.9776 3.79497 1.41892 0 0 1.00027 2.27701e-05
220 22.1144 4.30486 1.31437 0 0 1.00027 2.64575e-05
218 22.7933 4.52027 0.526307 0 0 1.00027 2.63446e-05
223 24.6048 3.68262 1.56087 0 0 1.00027 2.02576e-05
221 23.7173 3.80179 0.780776 0 0 1.00027 2.16551e-05
222 24.4865 4.50025 0.630092 0 0 1.00027 2.36001e-05
224 23.6377 4.72581 1.34056 0 0 1.00027 2.66898e-05
301 23.7251 5.25427 0.535861 0 0 1.00027 2.84673e-05
228 25.1645 4.66512 1.61653 0 0 1.00027 2.3281e-05
227 25.8388 3.65186 1.51903 0 0 1.00027 1.79728e-05
229 26.2874 3.6479 0.59775 0 0 1.00027 1.68668e-05
225 25.1904 3.82643 0.794793 0 0 1.00027 1.94965e-05
307 25.8509 5.31278 1.35043 0 0 1.00027 2.38623e-05
232 26.4909 4.44079 1.37555 0 0 1.00027 1.91538e-05
309 26.6462 5.12721 0.644405 0 0 1.00027 2.07259e-05
226 25.6732 4.56487 0.400064 0 0 1.00027 2.12099e-05
311 27.4642 5.00923 1.40615 0 0 1.00027 1.83258e-05
236 28.0725 4.09117 1.10801 0 0 1.00027 1.44429e-05
313 28.3978 4.85168 0.705801 0 0 1.00027 1.50123e-05
230 27.184 4.17441 0.578874 0 0 1.00027 1.66862e-05
234 29.0322 3.86648 0.48248 0 0 1.00027 1.15688e-05
315 29.1992 4.61562 1.32777 0 0 1.00027 1.2608e-05
240 30.097 4.1306 1.02836 0 0 1.00027 9.53345e-06
238 31.1264 4.01934 0.367229 0 0 1.00027 7.00121e-06
317 30.3164 4.74837 0.483625 0 0 1.00027 9.6234e-06
319 31.0867 4.64542 1.40262 0 0 1.00027 7.74318e-06
242 1.03129 5.52213 0.46094 0 0 1.00027 4.01962e-06
248 1.65781 5.4843 1.37533 0 0 1.00027 5.92952e-06
323 0.925587 6.20694 1.27573 0 0 1.00027 4.07426e-06
324 0.38647 6.93444 1.50216 0 0 1.00027 2.6379e-06
322 1.10505 6.92866 0.569802 0 0 1.00027 4.60801e-06
321 0.104912 6.02009 0.447886 0 0 1.00027 1.7386e-06
328 1.84297 6.98774 1.23911 0 0 1.00027 7.19314e-06
325 2.02289 6.15997 0.511897 0 0 1.00027 7.22337e-06
252 3.24808 5.55183 1.29352 0 0 1.00027 1.0602e-05
327 2.40611 6.10495 1.4073 0 0 1.00027 8.67067e-06
246 2.81322 5.54878 0.271941 0 0 1.00027 8.93503e-06
332 3.40062 6.8799 1.13262 0 0 1.00027 1.24863e-05
329 3.54265 6.19373 0.491088 0 0 1.00027 1.20032e-05
250 4.33482 5.37013 0.322219 0 0 1.00027 1.31333e-05
331 4.28181 5.99238 1.22502 0 0 1.00027 1.44652e-05
333 4.98916 6.12134 0.326313 0 0 1.00027 1.67156e-05
336 4.94367 6.68571 1.15686 0 0 1.00027 1.80938e-05
330 4.15831 6.9142 0.222654 0 0 1.00027 1.51267e-05
256 5.08946 5.32193 1.30365 0 0 1.00027 1.55891e-05
254 5.93584 5.29329 0.293346 0 0 1.00027 1.74846e-05
335 5.85897 6.10196 0.956926 0 0 1.00027 1.99293e-05
1177 6.64938 5.84432 1.59423 0 0 1.00027 2.20754e-05
340 6.63107 6.71756 0.989499 0 0 1.00027 2.44454e-05
337 6.56964 5.92188 0.146408 0 0 1.00027 2.11051e-05
334 5.72688 6.9098 0.146341 0 0 1.00027 2.10671e-05
339 7.51862 6.00512 0.752575 0 0 1.00027 2.45593e-05
344 8.23991 6.69404 0.719839 0 0 1.00027 2.95035e-05
1178 7.49518 6.69034 1.59342 0 0 1.00027 2.80752e-05
1181 8.44939 5.9591 1.49227 0 0 1.00027 2.78575e-05
343 9.10957 6.03956 0.733995 0 0 1.00027 2.91342e-05
1185 9.98548 6.03768 1.47051 0 0 1.00027 3.23233e-05
1182 9.33224 6.79128 1.45828 0 0 1.00027 3.44692e-05
345 9.99595 6.10002 0.0907589 0 0 1.00027 3.12042e-05
262 9.20991 5.33768 0.0175072 0 0 1.00027 2.57974e-05
347 10.8399 5.89699 0.949634 0 0 1.00027 3.23063e-05
349 11.5778 6.25323 0.0691594 0 0 1.00027 3.52229e-05
346 10.7873 6.81208 0.140853 0 0 1.00027 3.69749e-05
1186 10.7427 6.78396 1.49073 0 0 1.00027 3.8624e-05
352 11.5868 7.01477 0.804725 0 0 1.00027 4.07485e-05
270 12.2494 5.52944 0.180559 0 0 1.00027 3.18831e-05
276 12.9464 5.735 0.859258 0 0 1.00027 3.45171e-05
351 12.0462 6.11111 1.04882 0 0 1.00027 3.60897e-05
274 13.579 5.48704 0.0378031 0 0 1.00027 3.30053e-05
1114 13.6174 5.80815 1.56453 0 0 1.00027 3.686e-05
355 13.6521 6.51029 0.801074 0 0 1.00027 4.05428e-05
280 14.3439 5.68915 0.772565 0 0 1.00027 3.5678e-05
1197 14.6346 6.61739 1.41539 0 0 1.00027 4.44201e-05
357 14.4265 6.35608 0.035581 0 0 1.00027 4.01135e-05
278 15.2901 5.63761 0.0367495 0 0 1.00027 3.54492e-05
284 16.117 5.76751 0.948007 0 0 1.00027 3.76158e-05
359 15.348 6.45651 0.803149 0 0 1.00027 4.23258e-05
1118 15.4119 5.87428 1.6962 0 0 1.00027 3.95163e-05
361 15.9763 6.36937 0.042062 0 0 1.00027 4.14656e-05
363 16.7934 6.51449 1.14775 0 0 1.00027 4.405e-05
282 16.8865 5.48107 0.271384 0 0 1.00027 3.50123e-05
286 18.0903 5.41213 0.536354 0 0 1.00027 3.52222e-05
288 17.3811 5.50324 1.24736 0 0 1.00027 3.65656e-05
365 17.3656 6.35721 0.406295 0 0 1.00027 4.2412e-05
367 17.9583 6.35095 1.37773 0 0 1.00027 4.37413e-05
292 19.0299 5.40493 1.20221 0 0 1.00027 3.57766e-05
369 18.6576 6.35417 0.616882 0 0 1.00027 4.23355e-05
290 19.6911 5.90101 0.623544 0 0 1.00027 3.85287e-05
371 19.6032 6.71664 1.34791 0 0 1.00027 4.57441e-05
373 20.2669 6.918 0.612156 0 0 1.00027 4.54383e-05
294 20.9966 5.94735 0.651023 0 0 1.00027 3.74967e-05
296 20.429 5.77608 1.39769 0 0 1.00027 3.78704e-05
375 21.0367 6.80201 1.30971 0 0 1.00027 4.42655e-05
299 22.6782 5.35705 1.28375 0 0 1.00027 3.18725e-05
377 21.8953 6.86738 0.675468 0 0 1.00027 4.19838e-05
300 21.8877 6.06644 1.37999 0 0 1.00027 3.77869e-05
16260 21.9194 5.92038 0.0572403 0 0 1.00027 3.5731e-05
298 22.8803 6.03246 0.663528 0 0 1.00027 3.44986e-05
379 22.8575 6.90159 1.21154 0 0 1.00027 4.01589e-05
305 25.0215 5.42765 0.568574 0 0 1.00027 2.61901e-05
381 23.5634 6.97964 0.27761 0 0 1.00027 3.76724e-05
303 24.5366 5.48049 1.43916 0 0 1.00027 2.82055e-05
304 23.6854 6.0904 1.29516 0 0 1.00027 3.33953e-05
383 24.5208 6.77621 1.17177 0 0 1.00027 3.3799e-05
302 24.333 6.19674 0.427809 0 0 1.00027 3.1579e-05
306 25.8552 6.04047 0.698173 0 0 1.00027 2.5955e-05
308 25.2912 6.22986 1.67271 0 0 1.00027 2.93337e-05
385 25.3434 6.92701 0.497205 0 0 1.00027 3.08342e-05
387 26.0146 6.79082 1.41088 0 0 1.00027 2.83996e-05
312 26.8455 6.0129 1.47515 0 0 1.00027 2.29325e-05
310 27.6416 5.68603 0.719984 0 0 1.00027 1.90955e-05
389 26.9086 6.53218 0.647989 0 0 1.00027 2.3791e-05
391 27.8484 6.61439 1.36998 0 0 1.00027 2.06991e-05
316 28.5013 5.64508 1.47912 0 0 1.00027 1.66209e-05
314 29.5106 5.39996 0.81579 0 0 1.00027 1.28637e-05
395 29.5707 6.28218 1.32154 0 0 1.00027 1.40187e-05
394 29.716 7.00571 0.509695 0 0 1.00027 1.42482e-05
393 28.6115 6.33109 0.645692 0 0 1.00027 1.73321e-05
16355 29.5072 6.23961 0.0773858 0 0 1.00027 1.41561e-05
16276 28.6125 5.50773 0.0543854 0 0 1.00027 1.56436e-05
318 31.0836 5.40894 0.594394 0 0 1.00027 8.54786e-06
320 30.3409 5.52445 1.46173 0 0 1.00027 1.06655e-05
397 30.5214 6.24702 0.646407 0 0 1.00027 1.08144e-05
399 31.3442 6.19061 1.38278 0 0 1.00027 8.34654e-06
398 31.3349 6.98948 0.605277 0 0 1.00027 8.58706e-06
401 0.397675 7.64476 0.657463 0 0 1.00027 2.29324e-06
402 0.976045 8.45425 0.611468 0 0 1.00027 4.06179e-06
403 1.24763 7.83462 1.49141 0 0 1.00027 5.32742e-06
404 0.491241 8.56389 1.4668 0 0 1.00027 2.35492e-06
405 1.73551 7.72643 0.374334 0 0 1.00027 6.73306e-06
408 1.86964 8.57015 1.45978 0 0 1.00027 7.77273e-06
326 2.62816 7.08109 0.470457 0 0 1.00027 9.85111e-06
406 2.34416 8.56405 0.397224 0 0 1.00027 9.31512e-06
407 2.54329 7.74384 1.27642 0 0 1.00027 1.01329e-05
412 3.17338 8.42457 0.9349 0 0 1.00027 1.30362e-05
409 3.39722 7.67323 0.325387 0 0 1.00027 1.31552e-05
410 3.97934 8.34471 0.0739084 0 0 1.00027 1.62024e-05
411 4.1465 7.53935 1.23028 0 0 1.00027 1.63296e-05
416 4.87671 8.12627 0.928427 0 0 1.00027 2.02347e-05
413 4.84994 7.51451 0.236017 0 0 1.00027 1.86528e-05
1250 3.98 8.23997 1.76314 0 0 1.00027 1.71967e-05
414 6.0639 8.18738 0.172704 0 0 1.00027 2.51514e-05
415 5.67128 7.43396 1.01635 0 0 1.00027 2.22074e-05
417 6.69114 7.38952 0.16136 0 0 1.00027 2.60441e-05
420 6.60304 8.04242 1.04042 0 0 1.00027 2.78066e-05
495 5.51135 8.7895 0.651021 0 0 1.00027 2.41333e-05
419 7.50666 7.58804 0.740915 0 0 1.00027 3.02271e-05
1258 7.5002 7.97659 1.68942 0 0 1.00027 3.27633e-05
1261 8.29367 7.30773 1.55272 0 0 1.00027 3.34937e-05
421 8.22922 7.43894 0.0187845 0 0 1.00027 3.20058e-05
499 7.37665 8.68757 0.71007 0 0 1.00027 3.28725e-05
424 8.51063 8.12937 0.865553 0 0 1.00027 3.64253e-05
423 9.15927 7.44634 0.659193 0 0 1.00027 3.56685e-05
428 9.99723 8.4359 0.691116 0 0 1.00027 4.36901e-05
1262 9.33782 8.49268 1.43855 0 0 1.00027 4.27555e-05
1265 9.92992 7.70355 1.58887 0 0 1.00027 4.16411e-05
348 10.0882 7.05868 0.723935 0 0 1.00027 3.70665e-05
427 10.8544 7.77797 0.834317 0 0 1.00027 4.34596e-05
1266 10.8716 8.54438 1.4264 0 0 1.00027 4.92397e-05
1269 11.6975 7.67402 1.59127 0 0 1.00027 4.73525e-05
429 11.5164 7.9755 0.0387492 0 0 1.00027 4.57428e-05
432 11.6562 8.69194 0.725585 0 0 1.00027 5.0932e-05
426 10.681 8.70276 0.0249025 0 0 1.00027 4.6884e-05
356 13.0122 7.20753 0.571291 0 0 1.00027 4.46074e-05
431 12.4811 8.10654 0.593009 0 0 1.00027 4.94764e-05
1190 12.3875 7.04892 1.37895 0 0 1.00027 4.40617e-05
1270 12.3969 8.54936 1.49438 0 0 1.00027 5.46256e-05
1273 13.1755 7.90772 1.47524 0 0 1.00027 5.22435e-05
360 14.6359 7.32328 0.606758 0 0 1.00027 4.83411e-05
435 13.9356 8.03883 0.478165 0 0 1.00027 5.22581e-05
1194 13.7974 7.27082 1.35517 0 0 1.00027 4.77709e-05
1277 14.5942 8.12597 1.3585 0 0 1.00027 5.61669e-05
1274 14.0205 8.79101 1.56625 0 0 1.00027 6.11344e-05
364 15.9601 7.32917 0.903252 0 0 1.00027 4.95857e-05
439 15.4165 8.28851 0.864508 0 0 1.00027 5.71513e-05
443 16.6057 8.21178 1.10698 0 0 1.00027 5.83237e-05
1198 15.4761 7.52589 1.64502 0 0 1.00027 5.35165e-05
441 16.1835 8.33684 0.150758 0 0 1.00027 5.74117e-05
362 16.7549 7.24249 0.285718 0 0 1.00027 4.91467e-05
368 17.3079 7.43611 1.1144 0 0 1.00027 5.22358e-05
445 17.3844 8.19716 0.323227 0 0 1.00027 5.7584e-05
447 18.0418 8.14757 1.03845 0 0 1.00027 5.77644e-05
366 18.1291 7.28833 0.224254 0 0 1.00027 4.98301e-05
372 18.5799 7.18708 1.15035 0 0 1.00027 5.0174e-05
370 19.3127 7.48957 0.633579 0 0 1.00027 5.07698e-05
451 19.2447 8.31976 1.18785 0 0 1.00027 5.92189e-05
449 18.7681 8.33602 0.190076 0 0 1.00027 5.74804e-05
453 20.0941 8.32131 0.368244 0 0 1.00027 5.62804e-05
376 20.1702 7.8425 1.32671 0 0 1.00027 5.40287e-05
374 20.9724 7.65955 0.663476 0 0 1.00027 4.95722e-05
455 20.9386 8.64908 1.04299 0 0 1.00027 5.73657e-05
380 21.8082 7.88963 1.15183 0 0 1.00027 4.94776e-05
457 21.8722 8.56831 0.26929 0 0 1.00027 5.25506e-05
459 22.8306 8.42124 1.02116 0 0 1.00027 4.87048e-05
378 22.5826 7.69987 0.390206 0 0 1.00027 4.47596e-05
384 23.6695 7.55029 1.06767 0 0 1.00027 4.052e-05
461 23.705 8.31159 0.378189 0 0 1.00027 4.34715e-05
463 24.5531 8.32821 1.00397 0 0 1.00027 4.03393e-05
382 24.5345 7.53691 0.279575 0 0 1.00027 3.64536e-05
388 25.3128 7.60514 1.25469 0 0 1.00027 3.40285e-05
467 26.2052 8.21341 0.997432 0 0 1.00027 3.174e-05
1306 26.2005 8.85077 1.76217 0 0 1.00027 3.43728e-05
386 26.2613 7.4601 0.375174 0 0 1.00027 2.90881e-05
465 25.4174 8.33679 0.316206 0 0 1.00027 3.57481e-05
466 26.4412 8.78938 0.0977026 0 0 1.00027 3.15131e-05
390 27.8651 7.15604 0.528824 0 0 1.00027 2.15368e-05
392 26.9569 7.29364 1.34111 0 0 1.00027 2.60671e-05
470 28.1162 8.66084 0.423681 0 0 1.00027 2.28687e-05
471 27.9583 7.99175 1.21539 0 0 1.00027 2.29799e-05
472 27.1441 8.84805 1.03062 0 0 1.00027 2.84338e-05
469 27.1636 7.96042 0.436431 0 0 1.00027 2.62781e-05
396 28.795 7.23405 1.23189 0 0 1.00027 1.81248e-05
474 29.736 8.46392 0.543561 0 0 1.00027 1.5306e-05
475 29.6415 7.7815 1.27983 0 0 1.00027 1.53354e-05
476 28.9223 8.68939 1.18864 0 0 1.00027 1.92087e-05
473 28.8446 7.84975 0.418184 0 0 1.00027 1.85466e-05
400 30.4621 7.15966 1.18114 0 0 1.00027 1.16002e-05
479 31.3847 7.85907 1.29878 0 0 1.00027 8.70914e-06
480 30.5678 8.56104 1.18682 0 0 1.00027 1.18617e-05
477 30.7727 7.93269 0.383443 0 0 1.00027 1.08413e-05
478 31.5608 8.65011 0.391977 0 0 1.00027 8.00966e-06
482 1.2483 10.2519 0.269101 0 0 1.00027 4.19146e-06
483 1.15204 9.34793 1.19914 0 0 1.00027 4.49853e-06
484 0.383867 9.94022 0.898826 0 0 1.00027 9.72343e-07
481 0.500177 9.3417 0.122946 0 0 1.00027 1.92282e-06
1322 0.941442 10.108 1.74845 0 0 1.00027 3.36862e-06
485 1.89177 9.39685 0.445645 0 0 1.00027 7.48831e-06
488 1.95576 10.3028 0.966795 0 0 1.00027 7.53462e-06
486 2.72623 10.1829 0.0779735 0 0 1.00027 1.1077e-05
487 2.51646 9.365 1.21448 0 0 1.00027 1.04403e-05
1326 2.90751 10.1288 1.66144 0 0 1.00027 1.2682e-05
489 3.22182 9.26303 0.0831075 0 0 1.00027 1.33272e-05
1329 3.36267 9.12862 1.65498 0 0 1.00027 1.47097e-05
492 3.52451 9.91789 0.734008 0 0 1.00027 1.51076e-05
491 4.09369 8.98064 0.852012 0 0 1.00027 1.76112e-05
493 4.74295 9.04504 0.000241154 0 0 1.00027 2.03427e-05
496 4.76376 9.82433 0.564742 0 0 1.00027 2.16268e-05
1330 4.27939 9.81779 1.59919 0 0 1.00027 1.99399e-05
1333 4.84818 8.90917 1.63608 0 0 1.00027 2.21284e-05
500 6.4259 9.604 0.510284 0 0 1.00027 3.02249e-05
1334 5.49887 9.65413 1.16555 0 0 1.00027 2.58775e-05
1337 6.35045 8.87503 1.25002 0 0 1.00027 2.93248e-05
1417 6.4206 10.3088 1.18345 0 0 1.00027 3.21263e-05
575 5.56209 10.5197 0.434835 0 0 1.00027 2.6595e-05
501 8.32738 8.84921 0.0772505 0 0 1.00027 3.76116e-05
504 8.18484 9.71628 0.568597 0 0 1.00027 3.99635e-05
1338 7.37776 9.52855 1.18607 0 0 1.00027 3.62228e-05
1341 8.27444 8.95498 1.38698 0 0 1.00027 3.9444e-05
1421 7.86995 10.4045 1.34477 0 0 1.00027 4.16955e-05
579 7.1204 10.4722 0.459834 0 0 1.00027 3.58933e-05
503 9.18299 9.24328 0.717152 0 0 1.00027 4.36941e-05
508 9.8878 10.1148 0.657821 0 0 1.00027 5.05399e-05
1342 8.98477 10.0156 1.39714 0 0 1.00027 4.69813e-05
1345 10.0915 9.36978 1.40561 0 0 1.00027 5.02636e-05
507 10.738 9.49248 0.654537 0 0 1.00027 5.17101e-05
1346 10.908 9.96846 1.62003 0 0 1.00027 5.7878e-05
1349 11.6183 9.45128 1.31877 0 0 1.00027 5.70108e-05
512 11.4757 10.3921 0.719543 0 0 1.00027 5.91138e-05
436 13.3021 8.85413 0.780502 0 0 1.00027 5.6903e-05
511 12.3975 9.66268 0.685941 0 0 1.00027 5.92988e-05
516 13.117 10.3541 0.949658 0 0 1.00027 6.60738e-05
1353 12.8838 9.48589 1.60722 0 0 1.00027 6.34786e-05
1350 12.2771 10.41 1.58559 0 0 1.00027 6.63867e-05
510 12.0514 10.547 0.0221851 0 0 1.00027 6.10744e-05
440 14.7888 9.15197 0.765066 0 0 1.00027 6.24412e-05
515 13.8548 9.61592 0.839571 0 0 1.00027 6.34586e-05
1354 13.8247 10.3253 1.69812 0 0 1.00027 7.23325e-05
517 14.5848 10.0876 0.216235 0 0 1.00027 6.80215e-05
444 16.2355 9.1915 1.13365 0 0 1.00027 6.64691e-05
1278 15.4117 9.05474 1.76038 0 0 1.00027 6.71038e-05
519 15.462 9.86485 1.01489 0 0 1.00027 7.01888e-05
521 16.0064 10.1973 0.242722 0 0 1.00027 7.19822e-05
438 15.6122 9.20646 0.115308 0 0 1.00027 6.34634e-05
523 16.8299 10.0312 0.968692 0 0 1.00027 7.37306e-05
442 16.8289 9.11401 0.264153 0 0 1.00027 6.4508e-05
448 17.4298 9.15812 1.12707 0 0 1.00027 6.70136e-05
525 17.4772 10.1282 0.200041 0 0 1.00027 7.32502e-05
527 18.0953 10.002 1.07867 0 0 1.00027 7.3762e-05
446 18.0848 9.23547 0.12176 0 0 1.00027 6.5494e-05
452 18.6253 9.06076 0.95308 0 0 1.00027 6.55099e-05
529 18.9038 9.91368 0.307412 0 0 1.00027 7.09345e-05
531 19.7954 10.1127 0.874599 0 0 1.00027 7.12192e-05
1369 18.9747 9.77931 1.72363 0 0 1.00027 7.42983e-05
450 19.5416 9.15149 0.216683 0 0 1.00027 6.37337e-05
456 20.127 9.17319 1.06304 0 0 1.00027 6.38083e-05
533 20.2846 10.0129 0.0714894 0 0 1.00027 6.78939e-05
535 21.2043 10.066 0.779226 0 0 1.00027 6.53503e-05
1373 20.5315 9.91733 1.68792 0 0 1.00027 7.05823e-05
454 21.0615 9.30626 0.206574 0 0 1.00027 6.02042e-05