ITEM: TIMESTEP
30500
ITEM: NUMBER OF ATOMS
32000
ITEM: BOX BOUNDS pp pp pp
0.0000000000000000e+00 3.1748021039364001e+01
0.0000000000000000e+00 3.1748021039364001e+01
0.0000000000000000e+00 3.1748021039364001e+01
ITEM: ATOMS id x y z c_phase c_nbond c_rho v_omega
4 0.206806 1.11926 0.466865 0 0 1.00086 1.14031e-06
83 1.1203 1.59374 0.778327 0 0 1.00086 3.12697e-06
842 0.782945 0.744795 1.40362 0 0 1.00086 1.72199e-06
921 0.155997 1.63077 1.37695 0 0 1.00086 1.83109e-06
3 0.723403 0.0237556 0.618103 0 0 1.00086 6.48895e-07
8 1.77769 0.680175 1.01207 0 0 1.00086 2.67453e-06
85 1.94149 1.33166 0.208674 0 0 1.00086 3.94736e-06
925 1.9834 1.48848 1.7421 0 0 1.00086 4.33395e-06
6 2.57561 0.525357 0.193602 0 0 1.00086 3.37071e-06
87 2.79024 1.30777 0.864919 0 0 1.00086 5.03866e-06
846 2.74253 0.5868 1.72804 0 0 1.00086 3.64422e-06
12 3.50548 0.621587 0.95187 0 0 1.00086 4.60995e-06
929 3.77441 1.38231 1.69663 0 0 1.00086 6.43538e-06
10 4.1856 0.50567 0.307435 0 0 1.00086 4.71685e-06
850 4.40877 0.563284 1.62441 0 0 1.00086 5.51096e-06
91 4.19938 1.47514 0.711016 0 0 1.00086 7.21516e-06
16 5.02475 0.161901 1.13579 0 0 1.00086 4.50775e-06
93 5.09143 1.19094 0.374784 0 0 1.00086 7.17399e-06
14 5.71171 0.210121 0.30207 0 0 1.00086 5.05248e-06
95 6.02484 0.860828 0.947616 0 0 1.00087 6.81764e-06
854 5.82973 0.0114192 1.69258 0 0 1.00086 4.56796e-06
933 5.2007 1.27139 1.43462 0 0 1.00087 7.81688e-06
934 6.11194 1.732 1.48318 0 0 1.00086 9.66764e-06
97 6.72993 0.92878 0.214413 0 0 1.00087 7.05512e-06
937 6.7972 0.528889 1.68906 0 0 1.00086 6.16679e-06
99 7.51076 0.738156 0.946531 0 0 1.00086 6.78189e-06
941 8.31162 0.753961 1.61512 0 0 1.00086 7.41864e-06
18 7.64425 0.169576 0.151853 0 0 1.00086 4.82806e-06
938 7.57591 1.54682 1.56093 0 0 1.00086 9.97091e-06
100 6.82981 1.69416 0.780933 0 0 1.00086 9.91585e-06
98 7.74112 1.72022 0.129407 0 0 1.00086 1.02119e-05
101 8.42464 0.90055 0.224935 0 0 1.00086 7.21452e-06
22 8.90095 0.0179271 0.248705 0 0 1.00086 3.97449e-06
103 9.18827 0.823983 1.08589 0 0 1.00086 6.88276e-06
945 9.735 0.499638 1.75771 0 0 1.00086 5.10796e-06
105 9.82579 0.890424 0.109923 0 0 1.00086 6.43232e-06
102 9.21977 1.61042 0.239903 0 0 1.00086 9.89157e-06
104 8.4084 1.67601 0.935279 0 0 1.00086 1.04319e-05
942 9.37953 1.69537 1.71865 0 0 1.00086 1.11543e-05
108 10.0915 1.54849 1.08518 0 0 1.00086 9.46738e-06
107 10.5251 0.623929 0.833901 0 0 1.00086 5.15988e-06
949 11.4659 0.624586 1.4169 0 0 1.00086 4.65576e-06
946 10.8646 1.26171 1.7231 0 0 1.00086 8.36838e-06
112 11.4888 1.45166 0.779084 0 0 1.00086 8.54627e-06
106 10.6329 1.66207 0.191506 0 0 1.00086 9.77818e-06
111 12.2172 0.75383 0.518284 0 0 1.00086 4.35874e-06
953 12.9463 0.907168 1.37432 0 0 1.00086 4.71994e-06
950 12.2925 1.5868 1.46009 0 0 1.00087 8.81627e-06
116 13.0571 1.6805 0.609939 0 0 1.00086 8.43341e-06
40 14.4336 0.212401 0.781596 0 0 1.00086 -5.30495e-08
115 13.7987 0.935039 0.835561 0 0 1.00086 3.89659e-06
117 14.3653 1.39763 0.147191 0 0 1.00086 5.89843e-06
874 13.6677 0.155704 1.63498 0 0 1.00086 3.54664e-07
957 14.6053 1.06077 1.48144 0 0 1.00086 4.00678e-06
119 15.1908 1.49916 0.66805 0 0 1.00086 5.65346e-06
44 15.8702 0.782995 0.789966 0 0 1.00086 1.72372e-06
878 15.2293 0.430977 1.63698 0 0 1.00086 1.12199e-07
882 16.6933 0.825124 1.34986 0 0 1.00086 1.58767e-06
961 15.9453 1.51972 1.409 0 0 1.00086 5.95685e-06
38 15.2297 0.663769 0.0728123 0 0 1.00086 1.03261e-06
123 16.8664 1.67909 0.692032 0 0 1.00086 6.01979e-06
48 17.4186 0.919864 0.563824 0 0 1.00086 1.78849e-06
886 18.0844 1.0166 1.42545 0 0 1.00086 2.86618e-06
47 18.1558 0.200973 0.693951 0 0 1.00086 -1.2177e-06
885 17.2945 0.029879 1.39914 0 0 1.00086 -2.20194e-06
51 19.5561 0.389034 0.677227 0 0 1.00086 1.90155e-07
52 18.9414 1.07689 0.695162 0 0 1.00086 3.11355e-06
889 19.0457 0.510676 1.55236 0 0 1.00086 1.78531e-07
890 19.8237 1.37928 1.69478 0 0 1.00086 5.89631e-06
55 21.2073 0.833852 1.07732 0 0 1.00087 2.89013e-06
56 20.4114 1.22071 0.959235 0 0 1.00086 4.5495e-06
54 21.3416 1.27709 0.211973 0 0 1.00087 5.4724e-06
893 20.444 0.337367 1.42529 0 0 1.00087 1.28453e-06
53 20.2827 0.322206 0.0678508 0 0 1.00086 9.72433e-07
57 22.0975 0.820064 0.539031 0 0 1.00087 3.72856e-06
59 22.9131 0.981204 1.40566 0 0 1.00086 4.64358e-06
60 22.3496 1.72598 1.32996 0 0 1.00087 7.99851e-06
58 23.0837 1.62345 0.471643 0 0 1.00086 7.02383e-06
17538 22.7667 0.122715 0.466427 0 0 1.00086 9.22914e-07
63 24.3554 0.94235 1.41572 0 0 1.00086 5.06024e-06
61 23.6536 0.900314 0.565924 0 0 1.00086 4.5449e-06
62 24.6184 1.736 0.735031 0 0 1.00086 7.33158e-06
65 25.0435 0.853802 0.529986 0 0 1.00086 4.67267e-06
17544 23.5359 0.0562603 1.24883 0 0 1.00086 1.68673e-06
17542 24.3512 0.0431567 0.596065 0 0 1.00086 1.92228e-06
67 26.0676 0.879986 1.1611 0 0 1.00086 4.37751e-06
68 25.3481 1.68749 1.4477 0 0 1.00086 7.24876e-06
66 26.0353 1.46877 0.419865 0 0 1.00086 5.97705e-06
17548 25.1735 0.303952 1.35388 0 0 1.00086 3.14986e-06
17546 25.9134 0.0207032 0.334417 0 0 1.00086 2.15143e-06
70 27.7383 1.69598 0.382352 0 0 1.00086 4.90412e-06
71 27.6813 0.910367 0.869611 0 0 1.00086 3.5104e-06
72 26.8843 1.50255 1.24871 0 0 1.00086 5.40164e-06
69 26.8354 0.707648 0.242031 0 0 1.00086 3.60276e-06
17552 27.0939 0.11668 0.999865 0 0 1.00086 2.09492e-06
17556 28.3511 0.0296416 0.731774 0 0 1.00086 1.18441e-06
913 28.435 0.701843 1.41355 0 0 1.00086 2.39979e-06
76 28.7787 1.55929 0.730054 0 0 1.00086 3.3702e-06
914 29.4792 1.23135 1.56551 0 0 1.00086 2.28552e-06
917 29.8395 0.389772 1.45431 0 0 1.00086 5.86122e-07
75 29.312 0.622343 0.617371 0 0 1.00086 1.29014e-06
841 31.6048 0.31241 1.25611 0 0 1.00086 -1.49539e-06
79 30.7529 0.612191 0.477929 0 0 1.00086 -2.54184e-07
80 30.2119 1.38848 0.77021 0 0 1.00086 1.33974e-06
918 30.9506 1.09262 1.38287 0 0 1.00086 1.85524e-07
82 1.32911 2.34191 0.114302 0 0 1.00086 4.53111e-06
84 0.353734 2.39349 0.80411 0 0 1.00086 3.02037e-06
163 1.56895 3.09912 0.936504 0 0 1.00086 6.14431e-06
922 1.35526 2.26127 1.58442 0 0 1.00086 4.68076e-06
1001 0.656586 3.01989 1.54729 0 0 1.00086 4.2681e-06
161 0.606471 3.09693 0.125463 0 0 1.00086 4.11529e-06
88 2.13396 2.2358 0.78055 0 0 1.00086 5.63886e-06
167 2.96433 3.01655 0.851278 0 0 1.00086 8.65666e-06
926 2.89464 1.98895 1.53401 0 0 1.00086 6.65602e-06
86 2.95033 2.13675 0.0486976 0 0 1.00086 6.81689e-06
1005 2.38953 2.88744 1.74383 0 0 1.00086 7.33381e-06
1009 3.60894 3.07292 1.64073 0 0 1.00086 1.03026e-05
92 3.63693 2.24117 0.780657 0 0 1.00086 8.22499e-06
171 4.53712 2.92554 0.755137 0 0 1.00086 1.09614e-05
930 4.4275 2.25463 1.57851 0 0 1.00086 9.43748e-06
96 5.18818 2.13286 0.817728 0 0 1.00086 1.00334e-05
94 5.9354 1.97971 0.141354 0 0 1.00087 1.02123e-05
175 6.03498 2.71137 0.951978 0 0 1.00086 1.27809e-05
173 5.34497 2.86971 0.0151985 0 0 1.00086 1.22775e-05
174 6.20997 3.42137 0.166552 0 0 1.00086 1.53628e-05
1017 6.93046 2.53329 1.53693 0 0 1.00086 1.32405e-05
177 6.99259 2.43864 0.11877 0 0 1.00086 1.23419e-05
179 7.81244 2.51804 0.89127 0 0 1.00086 1.36764e-05
180 6.98087 3.24531 0.782965 0 0 1.00086 1.55995e-05
1018 7.94093 3.29058 1.49747 0 0 1.00086 1.73578e-05
1021 8.62593 2.44241 1.63504 0 0 1.00086 1.41058e-05
181 8.69279 2.44284 0.0348436 0 0 1.00086 1.32692e-05
183 9.38409 2.44218 0.929754 0 0 1.00086 1.41872e-05
1022 9.66386 3.21077 1.49961 0 0 1.00086 1.89781e-05
184 8.756 3.30018 0.701325 0 0 1.00086 1.74801e-05
182 9.57293 3.32954 0.0466669 0 0 1.00086 1.82229e-05
185 10.0359 2.42778 0.203801 0 0 1.00086 1.37808e-05
188 10.461 3.08669 0.87492 0 0 1.00087 1.72984e-05
187 11.0955 2.35378 0.91767 0 0 1.00086 1.30939e-05
1026 11.3238 3.13207 1.59289 0 0 1.00086 1.79852e-05
186 11.2372 3.36432 0.166626 0 0 1.00086 1.84239e-05
1025 10.5187 2.20993 1.75793 0 0 1.00087 1.31185e-05
1029 11.967 2.44796 1.60007 0 0 1.00087 1.44099e-05
192 12.0496 3.23569 0.814337 0 0 1.00086 1.83073e-05
191 12.4347 2.3274 0.745465 0 0 1.00086 1.32788e-05
196 13.1554 3.31975 0.816876 0 0 1.00087 1.88288e-05
1033 13.4535 2.72658 1.69351 0 0 1.00087 1.48313e-05
195 13.8165 2.8111 0.840635 0 0 1.00087 1.4693e-05
954 13.7861 1.79184 1.46826 0 0 1.00086 8.52808e-06
120 14.5256 2.29441 0.921524 0 0 1.00086 1.10816e-05
1037 14.7452 3.22785 1.55351 0 0 1.00087 1.72491e-05
197 14.7783 3.09828 0.0405301 0 0 1.00086 1.53945e-05
114 13.8629 2.09601 0.0430628 0 0 1.00086 1.06259e-05
194 13.9615 3.51413 0.0183449 0 0 1.00086 1.87896e-05
199 15.4231 3.36636 0.86811 0 0 1.00086 1.72615e-05
958 15.307 2.27271 1.45109 0 0 1.00086 1.1085e-05
118 15.3664 2.44512 0.124998 0 0 1.00086 1.12516e-05
124 16.202 2.48028 0.705432 0 0 1.00086 1.10015e-05
1041 16.0969 3.29398 1.50906 0 0 1.00086 1.68295e-05
201 16.2457 3.28881 0.012708 0 0 1.00086 1.63161e-05
962 16.8541 2.5992 1.53394 0 0 1.00086 1.22852e-05
127 18.2618 1.87089 0.749991 0 0 1.00086 7.23738e-06
203 16.9878 3.32834 0.669145 0 0 1.00086 1.64693e-05
965 17.599 1.94108 1.56196 0 0 1.00086 7.83915e-06
128 17.5735 2.55854 0.672715 0 0 1.00086 1.13732e-05
1045 17.7449 3.34173 1.50329 0 0 1.00086 1.63472e-05
969 18.998 1.86227 1.49812 0 0 1.00086 7.78602e-06
207 18.5464 3.23975 0.717168 0 0 1.00086 1.52149e-05
966 18.5397 2.73442 1.60039 0 0 1.00086 1.29608e-05
131 19.8555 1.97521 0.841497 0 0 1.00086 8.02211e-06
129 19.1916 1.94257 0.0123237 0 0 1.00086 7.43815e-06
132 19.3828 2.77285 1.01665 0 0 1.00086 1.28549e-05
209 19.4757 3.42303 0.191506 0 0 1.00086 1.64538e-05
130 20.0707 2.76167 0.111292 0 0 1.00086 1.2407e-05
133 20.6513 1.98745 0.202784 0 0 1.00086 8.35127e-06
135 21.4087 2.15156 0.95726 0 0 1.00086 9.53314e-06
973 20.6924 2.26318 1.74414 0 0 1.00086 1.0597e-05
134 21.628 2.9749 0.459574 0 0 1.00087 1.32393e-05
136 20.7055 2.94491 1.08212 0 0 1.00086 1.39826e-05
137 22.2861 2.17707 0.503952 0 0 1.00087 9.55436e-06
139 23.251 2.65616 1.50618 0 0 1.00086 1.16523e-05
138 23.3757 3.23014 0.721773 0 0 1.00087 1.3458e-05
140 22.5087 3.09764 1.22928 0 0 1.00087 1.43265e-05
64 23.7145 1.8106 1.38246 0 0 1.00086 8.15615e-06
141 23.9978 2.41794 0.617769 0 0 1.00086 9.8248e-06
143 24.7313 2.58314 1.56753 0 0 1.00086 1.06716e-05
142 24.7344 3.2948 0.764789 0 0 1.00086 1.28531e-05
144 24.1317 3.51826 1.52627 0 0 1.00086 1.47755e-05
147 26.1756 2.27878 1.35505 0 0 1.00086 8.34457e-06
145 25.4006 2.41635 0.530768 0 0 1.00086 9.1849e-06
146 26.1443 3.16889 0.691816 0 0 1.00086 1.08257e-05
148 25.5259 3.16954 1.51691 0 0 1.00086 1.15576e-05
149 26.785 2.2815 0.508707 0 0 1.00086 7.33499e-06
152 26.8519 3.09878 1.52355 0 0 1.00086 9.77814e-06
151 27.7255 2.41496 1.22207 0 0 1.00086 6.40202e-06
150 27.4039 3.16474 0.625553 0 0 1.00086 8.63227e-06
153 28.4859 2.46256 0.341964 0 0 1.00086 5.44717e-06
156 28.5486 3.13696 1.18803 0 0 1.00086 6.82827e-06
993 28.7044 2.08426 1.50423 0 0 1.00086 4.67216e-06
155 29.6356 2.2933 0.876332 0 0 1.00086 3.49887e-06
154 29.4622 2.97796 0.282483 0 0 1.00087 4.82696e-06
997 30.1521 2.02541 1.69823 0 0 1.00086 2.71121e-06
159 31.1002 2.08823 0.918886 0 0 1.00086 1.10812e-06
160 30.4347 2.89589 0.992381 0 0 1.00086 2.81319e-06
239 31.3337 3.44191 0.967571 0 0 1.00086 2.23377e-06
998 31.2423 2.7957 1.72387 0 0 1.00086 1.72243e-06
237 30.4303 3.44911 0.152608 0 0 1.00087 3.87021e-06
157 30.5843 2.07413 0.03319 0 0 1.00086 1.8223e-06
158 31.3856 2.74698 0.0745541 0 0 1.00086 1.2747e-06
164 0.625414 3.76989 0.911601 0 0 1.00086 4.88621e-06
241 0.528817 4.61074 0.463773 0 0 1.00086 5.43472e-06
243 1.52506 4.53396 0.97723 0 0 1.00086 7.96306e-06
162 1.38307 3.76396 0.067701 0 0 1.00086 6.27793e-06
244 0.528381 5.26651 1.27229 0 0 1.00086 6.2774e-06
168 2.21918 3.84839 0.849143 0 0 1.00086 8.39962e-06
247 2.9711 4.57671 1.11507 0 0 1.00086 1.15863e-05
166 3.03684 3.86569 0.191533 0 0 1.00086 1.03492e-05
245 2.31222 4.74179 0.277076 0 0 1.00086 9.8076e-06
246 3.16023 5.28111 0.2702 0 0 1.00086 1.28553e-05
249 3.86539 4.48465 0.168612 0 0 1.00086 1.34673e-05
172 3.87123 3.72468 0.881343 0 0 1.00086 1.15554e-05
251 4.54881 4.43833 1.14922 0 0 1.00086 1.52688e-05
170 4.66545 3.75294 0.139684 0 0 1.00086 1.32843e-05
250 4.72201 5.0054 0.313899 0 0 1.00086 1.67014e-05
252 3.63442 5.25407 1.27118 0 0 1.00086 1.48275e-05
176 5.35035 3.5413 1.1349 0 0 1.00086 1.43872e-05
253 5.5047 4.24516 0.318649 0 0 1.00086 1.65419e-05
255 6.24962 4.16547 1.01999 0 0 1.00086 1.80479e-05
254 6.35118 4.84228 0.265545 0 0 1.00086 2.01334e-05
256 5.50828 4.91492 1.26954 0 0 1.00086 1.88208e-05
1097 7.22744 3.93766 1.64028 0 0 1.00086 1.93539e-05
260 7.2626 4.56249 0.853756 0 0 1.00086 2.1073e-05
259 7.98518 3.87628 0.567357 0 0 1.00086 1.9631e-05
258 7.9833 4.73779 0.0228143 0 0 1.00086 2.31475e-05
1098 8.09019 4.74133 1.48502 0 0 1.00086 2.40865e-05
1101 8.8581 3.99437 1.46614 0 0 1.00086 2.14416e-05
264 8.91471 4.69849 0.697131 0 0 1.00086 2.45895e-05
263 9.75302 3.99677 0.80132 0 0 1.00086 2.2023e-05
1102 9.83516 4.70785 1.57325 0 0 1.00086 2.68325e-05
262 9.78505 4.86664 0.0151195 0 0 1.00086 2.65124e-05
268 10.5784 4.76291 0.795379 0 0 1.00086 2.70392e-05
265 10.5435 4.00493 0.112012 0 0 1.00086 2.23185e-05
1105 10.5856 3.8156 1.65022 0 0 1.00086 2.206e-05
267 11.3481 4.1247 0.88824 0 0 1.00086 2.33427e-05
1106 11.3888 4.70305 1.7423 0 0 1.00086 2.76617e-05
266 11.3565 5.01868 0.0184491 0 0 1.00086 2.83528e-05
269 12.1507 4.28501 0.206581 0 0 1.00086 2.37421e-05
1109 12.1501 3.96952 1.68316 0 0 1.00086 2.40252e-05
272 12.2788 4.83602 1.00644 0 0 1.00086 2.83379e-05
271 13.0225 4.21133 1.01336 0 0 1.00086 2.48138e-05
270 12.9297 5.19505 0.186081 0 0 1.00086 2.94498e-05
273 13.4267 4.30533 0.054122 0 0 1.00086 2.3825e-05
1113 13.7212 4.65269 1.69506 0 0 1.00086 2.77032e-05
275 14.0897 4.4956 0.770958 0 0 1.00086 2.59112e-05
200 14.8079 3.98584 0.693844 0 0 1.00087 2.17298e-05
1034 14.3333 3.99192 1.58604 0 0 1.00087 2.2907e-05
277 15.0416 4.75092 0.0820808 0 0 1.00086 2.58739e-05
1117 15.1725 4.97139 1.51457 0 0 1.00086 2.97601e-05
279 15.9212 5.02413 0.820791 0 0 1.00086 2.82122e-05
198 15.7718 4.15534 0.106143 0 0 1.00086 2.14868e-05
1038 15.8834 4.37721 1.59801 0 0 1.00086 2.40133e-05
204 16.4873 4.12891 0.896856 0 0 1.00086 2.17906e-05
281 16.7591 4.88021 0.158196 0 0 1.00086 2.57584e-05
1121 16.8378 5.14454 1.65607 0 0 1.00086 2.98994e-05
1042 17.1815 4.1302 1.67033 0 0 1.00086 2.27871e-05
283 17.4761 4.82631 0.9052 0 0 1.00086 2.58941e-05
208 18.0425 4.09422 0.799136 0 0 1.00086 2.05325e-05
285 18.2835 4.90999 0.0375775 0 0 1.00086 2.55376e-05
1046 18.6896 4.00687 1.64712 0 0 1.00086 2.10433e-05
287 18.9278 4.89381 1.08719 0 0 1.00086 2.63091e-05
206 18.8834 4.21219 0.0761847 0 0 1.00086 2.0425e-05
212 19.5628 4.15432 0.962891 0 0 1.00086 2.07417e-05
289 19.6678 5.0968 0.35268 0 0 1.00086 2.66293e-05
213 20.9686 3.55927 0.321506 0 0 1.00086 1.70156e-05
210 20.2885 4.27366 0.25348 0 0 1.00086 2.09671e-05
211 20.334 3.73054 1.26894 0 0 1.00086 1.85916e-05
291 20.4878 5.21683 1.11841 0 0 1.00086 2.66739e-05
216 21.1024 4.39938 1.21287 0 0 1.00086 2.13182e-05
214 21.7775 4.58499 0.511772 0 0 1.00086 2.15941e-05
215 21.904 3.89368 1.38961 0 0 1.00087 1.77288e-05
217 22.5309 3.83982 0.602704 0 0 1.00087 1.78047e-05
16179 23.2456 4.04505 0.0338584 0 0 1.00086 1.71479e-05
220 22.6 4.80553 1.30378 0 0 1.00086 2.25229e-05
218 23.2908 5.02868 0.542037 0 0 1.00086 2.16473e-05
219 23.4034 4.26711 1.39901 0 0 1.00086 1.84825e-05
223 24.9705 4.18067 1.55114 0 0 1.00086 1.62318e-05
221 24.1221 4.27961 0.762691 0 0 1.00086 1.73522e-05
222 24.912 5.0199 0.633371 0 0 1.00086 1.88914e-05
224 24.1285 5.23624 1.33687 0 0 1.00086 2.1981e-05
228 25.6009 5.14207 1.57163 0 0 1.00086 1.82472e-05
227 26.1698 4.09202 1.51634 0 0 1.00086 1.37184e-05
229 26.6141 4.06173 0.593237 0 0 1.00086 1.23977e-05
225 25.5407 4.25264 0.756807 0 0 1.00086 1.48206e-05
226 26.0748 5.03338 0.419429 0 0 1.00086 1.60772e-05
233 28.3338 3.64417 0.336532 0 0 1.00086 8.11817e-06
232 26.861 4.86484 1.36946 0 0 1.00086 1.41546e-05
231 27.5986 3.83646 1.40696 0 0 1.00086 1.00181e-05
236 28.3866 4.41055 1.11334 0 0 1.00086 9.84697e-06
230 27.5167 4.55534 0.579553 0 0 1.00086 1.20529e-05
235 29.5753 3.55358 1.17838 0 0 1.00086 5.64317e-06
313 28.729 5.16179 0.691522 0 0 1.00086 9.66317e-06
234 29.3076 4.11216 0.466915 0 0 1.00087 6.8612e-06
315 29.5111 4.84866 1.30748 0 0 1.00087 7.5877e-06
240 30.3626 4.27172 1.02798 0 0 1.00087 4.91293e-06
238 31.3757 4.09032 0.352273 0 0 1.00086 2.39276e-06
317 30.6083 4.8875 0.471922 0 0 1.00086 4.32182e-06
319 31.3793 4.71048 1.3814 0 0 1.00087 2.8231e-06
242 1.36318 5.42366 0.455186 0 0 1.00086 8.16953e-06
323 1.28486 6.10166 1.27393 0 0 1.00086 8.77263e-06
324 0.756833 6.9053 1.47869 0 0 1.00086 7.76161e-06
322 1.4726 6.80619 0.563542 0 0 1.00086 9.66881e-06
321 0.464223 6.02228 0.449236 0 0 1.00086 6.34001e-06
248 2.00623 5.32281 1.35873 0 0 1.00086 1.03198e-05
328 2.22256 6.78558 1.23835 0 0 1.00086 1.23018e-05
325 2.37459 5.95982 0.491751 0 0 1.00086 1.18036e-05
327 2.80527 5.87097 1.38052 0 0 1.00086 1.34466e-05
326 3.01873 6.79316 0.461354 0 0 1.00086 1.51239e-05
332 3.79804 6.54866 1.13812 0 0 1.00086 1.72967e-05
329 3.94583 5.85319 0.467711 0 0 1.00086 1.63437e-05
331 4.68728 5.60158 1.21172 0 0 1.00086 1.84857e-05
330 4.59918 6.51076 0.223923 0 0 1.00087 2.002e-05
336 5.41762 6.24252 1.14919 0 0 1.00086 2.2688e-05
333 5.43786 5.69883 0.306117 0 0 1.00086 2.05977e-05
335 6.32261 5.59504 0.950844 0 0 1.00086 2.34271e-05
334 6.22256 6.39893 0.14442 0 0 1.00086 2.53995e-05
415 6.18924 6.91131 0.987216 0 0 1.00086 2.6745e-05
337 7.07021 5.45664 0.132511 0 0 1.00086 2.39619e-05
340 7.17801 6.17058 0.942388 0 0 1.00086 2.80609e-05
1177 7.16644 5.33971 1.59458 0 0 1.00086 2.4937e-05
339 8.04688 5.47491 0.75712 0 0 1.00086 2.68614e-05
1178 8.08647 6.10726 1.58663 0 0 1.00086 3.1028e-05
417 7.257 6.86251 0.135314 0 0 1.00086 3.05564e-05
419 8.12486 6.97701 0.72087 0 0 1.00086 3.41096e-05
344 8.8555 6.13971 0.696074 0 0 1.00086 3.17853e-05
1181 9.0282 5.43296 1.49183 0 0 1.00086 2.95642e-05
343 9.73527 5.53007 0.743752 0 0 1.00086 3.02767e-05
1182 9.99865 6.2489 1.45743 0 0 1.00086 3.61161e-05
1261 8.97873 6.70805 1.5412 0 0 1.00086 3.66828e-05
421 8.87715 6.88641 0.000958022 0 0 1.00086 3.55005e-05
423 9.85123 6.89889 0.663095 0 0 1.00086 3.80864e-05
1185 10.6791 5.54064 1.48244 0 0 1.00086 3.28287e-05
345 10.641 5.64923 0.0785379 0 0 1.00086 3.18073e-05
347 11.5224 5.48776 0.910462 0 0 1.00086 3.16071e-05
346 11.5186 6.38568 0.107559 0 0 1.00086 3.75804e-05
1186 11.5113 6.32077 1.48509 0 0 1.00086 3.91726e-05
348 10.7835 6.51179 0.722568 0 0 1.00086 3.80208e-05
349 12.2972 5.87203 0.0458264 0 0 1.00086 3.41169e-05
352 12.3677 6.61046 0.799738 0 0 1.00086 4.08334e-05
351 12.7973 5.79205 1.046 0 0 1.00086 3.52448e-05
1190 13.2691 6.7118 1.36962 0 0 1.00086 4.29866e-05
276 13.6939 5.4816 0.859441 0 0 1.00086 3.24267e-05
274 14.2838 5.30402 0.0175807 0 0 1.00086 3.07492e-05
1114 14.4154 5.62672 1.57734 0 0 1.00086 3.48356e-05
355 14.4662 6.30315 0.786878 0 0 1.00086 3.80937e-05
356 13.8635 6.9562 0.586008 0 0 1.00086 4.3232e-05
280 15.1204 5.58845 0.766561 0 0 1.00086 3.3293e-05
357 15.2362 6.2678 0.0248398 0 0 1.00086 3.70326e-05
1197 15.4905 6.49991 1.43799 0 0 1.00086 4.17452e-05
278 16.0144 5.61846 0.0374876 0 0 1.00086 3.15043e-05
359 16.1781 6.49026 0.798731 0 0 1.00087 3.92721e-05
1118 16.2328 5.87645 1.68628 0 0 1.00087 3.61703e-05
361 16.7864 6.45586 0.0459922 0 0 1.00086 3.74928e-05
284 16.9033 5.85641 0.939484 0 0 1.00086 3.35969e-05
363 17.6118 6.71416 1.14437 0 0 1.00086 3.94142e-05
282 17.5999 5.67228 0.254842 0 0 1.00086 3.07702e-05
288 18.1227 5.73202 1.22873 0 0 1.00086 3.25465e-05
365 18.1896 6.60308 0.38264 0 0 1.00086 3.79978e-05
367 18.7566 6.66663 1.33487 0 0 1.00086 3.92887e-05
286 18.8166 5.73477 0.498116 0 0 1.00086 3.14865e-05
292 19.7071 5.79031 1.19296 0 0 1.00086 3.19855e-05
369 19.434 6.74489 0.607166 0 0 1.00086 3.78272e-05
295 21.6656 5.38744 1.35528 0 0 1.00086 2.73323e-05
293 20.9723 5.38361 0.353768 0 0 1.00086 2.65323e-05
290 20.4058 6.32985 0.623641 0 0 1.00086 3.37139e-05
294 21.6659 6.47015 0.637411 0 0 1.00086 3.21594e-05
296 21.0911 6.27686 1.37747 0 0 1.00086 3.33016e-05
297 22.3935 5.66809 0.773784 0 0 1.00086 2.67863e-05
299 23.2664 5.90862 1.2845 0 0 1.00086 2.71212e-05
300 22.5221 6.63015 1.3536 0 0 1.00086 3.24496e-05
16260 22.5478 6.48511 0.0453893 0 0 1.00086 3.03494e-05
298 23.4475 6.62533 0.639112 0 0 1.00086 2.86455e-05
301 24.2101 5.81262 0.537232 0 0 1.00086 2.31995e-05
303 25.0271 6.0302 1.43765 0 0 1.00086 2.2659e-05
304 24.2469 6.69634 1.27352 0 0 1.00086 2.75843e-05
302 24.8721 6.76165 0.434301 0 0 1.00086 2.5443e-05
305 25.4928 5.93185 0.563793 0 0 1.00086 2.05397e-05
307 26.3029 5.81389 1.3538 0 0 1.00086 1.84791e-05
306 26.3346 6.54976 0.68798 0 0 1.00086 1.97229e-05
308 25.7976 6.77566 1.62989 0 0 1.00086 2.30605e-05
311 27.8439 5.39751 1.39697 0 0 1.00086 1.30138e-05
309 27.0555 5.56461 0.638461 0 0 1.00086 1.53418e-05
312 27.2771 6.47689 1.46249 0 0 1.00086 1.67875e-05
310 28.0423 6.07416 0.70301 0 0 1.00086 1.31273e-05
389 27.3559 6.99945 0.630936 0 0 1.00086 1.71139e-05
391 28.2561 7.00256 1.37157 0 0 1.00086 1.41303e-05
316 28.8889 5.96886 1.45486 0 0 1.00086 1.09742e-05
314 29.8483 5.62484 0.808433 0 0 1.00086 7.348e-06
395 29.943 6.5262 1.31027 0 0 1.00086 8.04514e-06
393 29.0126 6.66588 0.65287 0 0 1.00086 1.12342e-05
16355 29.8773 6.46869 0.0711482 0 0 1.00086 8.27784e-06
16276 28.9678 5.81951 0.0347032 0 0 1.00086 9.86919e-06
318 31.4118 5.48042 0.584988 0 0 1.00086 3.50315e-06
320 30.6779 5.66497 1.43872 0 0 1.00086 5.24487e-06
397 30.867 6.38576 0.629704 0 0 1.00086 5.14773e-06
399 31.6849 6.24042 1.37382 0 0 1.00086 3.04944e-06
398 31.7022 7.02924 0.60227 0 0 1.00086 2.71188e-06
401 0.779407 7.61498 0.638038 0 0 1.00086 7.47961e-06
402 1.38251 8.35184 0.586549 0 0 1.00086 1.0004e-05
403 1.62738 7.67735 1.46781 0 0 1.00086 1.09197e-05
404 0.866754 8.50117 1.45194 0 0 1.00086 8.08849e-06
478 0.191243 8.67017 0.395688 0 0 1.00086 5.46367e-06
479 0.0106208 7.90496 1.28448 0 0 1.00086 5.14228e-06
405 2.12985 7.54098 0.385649 0 0 1.00086 1.21555e-05
408 2.27972 8.33912 1.44897 0 0 1.00086 1.41606e-05
406 2.77046 8.28224 0.390912 0 0 1.00086 1.58199e-05
407 2.9657 7.46413 1.27321 0 0 1.00086 1.58934e-05
412 3.62808 8.0627 0.931126 0 0 1.00087 1.96753e-05
409 3.83113 7.3018 0.326122 0 0 1.00087 1.87217e-05
410 4.44609 7.91589 0.0562331 0 0 1.00087 2.22696e-05
411 4.61647 7.09181 1.18797 0 0 1.00087 2.14169e-05
491 4.55313 8.51019 0.843929 0 0 1.00087 2.42515e-05
1250 4.46239 7.80375 1.75623 0 0 1.00087 2.38511e-05
1329 3.8182 8.71903 1.66721 0 0 1.00086 2.17189e-05
413 5.34905 7.06752 0.219742 0 0 1.00087 2.36412e-05
1333 5.36974 8.36126 1.61643 0 0 1.00087 2.92427e-05
416 5.37101 7.64205 0.945095 0 0 1.00087 2.60995e-05
414 6.60132 7.63227 0.19903 0 0 1.00086 3.02452e-05
495 6.02636 8.24686 0.622896 0 0 1.00087 3.03831e-05
1337 6.92131 8.25298 1.2291 0 0 1.00087 3.59031e-05
420 7.19176 7.41371 1.04608 0 0 1.00087 3.24067e-05
1258 8.12912 7.32447 1.67084 0 0 1.00086 3.65138e-05
499 7.96969 8.04963 0.719845 0 0 1.00087 3.76376e-05
424 9.14828 7.51963 0.859056 0 0 1.00086 3.99515e-05
1262 10.0362 7.82515 1.41603 0 0 1.00086 4.58734e-05
501 8.97948 8.2131 0.0674643 0 0 1.00086 4.20399e-05
1341 8.92854 8.2906 1.37867 0 0 1.00086 4.44049e-05
503 9.87879 8.5777 0.698261 0 0 1.00086 4.82091e-05
1265 10.7337 7.12248 1.57364 0 0 1.00086 4.34733e-05
428 10.7544 7.86709 0.693296 0 0 1.00086 4.65834e-05
427 11.634 7.27495 0.816779 0 0 1.00086 4.4431e-05
1266 11.6886 8.03803 1.42611 0 0 1.00086 5.17005e-05
426 11.456 8.15044 0.00231234 0 0 1.00086 4.87631e-05
1345 10.8461 8.71169 1.39697 0 0 1.00086 5.37114e-05
429 12.3139 7.52187 0.0267031 0 0 1.00086 4.62022e-05
432 12.4498 8.22349 0.715096 0 0 1.00086 5.1935e-05
1269 12.5217 7.24622 1.5598 0 0 1.00086 4.78964e-05
431 13.3154 7.74134 0.595782 0 0 1.00086 4.83263e-05
1270 13.2617 8.17404 1.50158 0 0 1.00086 5.47092e-05
1273 14.0679 7.64089 1.4747 0 0 1.00086 5.19863e-05
435 14.8183 7.88828 0.522237 0 0 1.00086 4.99443e-05
1194 14.717 7.07549 1.38733 0 0 1.00086 4.50799e-05
1274 14.9395 8.64903 1.56717 0 0 1.00086 6.02252e-05
436 14.1475 8.57608 0.774934 0 0 1.00086 5.59602e-05
360 15.4995 7.23914 0.63824 0 0 1.00087 4.52472e-05
1277 15.54 8.0152 1.37914 0 0 1.00087 5.28518e-05
439 16.3532 8.30148 0.876654 0 0 1.00087 5.2862e-05
1198 16.4067 7.5765 1.66697 0 0 1.00087 4.98911e-05
437 15.707 8.33442 0.0123734 0 0 1.00087 5.22935e-05
364 16.8277 7.40328 0.866922 0 0 1.00087 4.44043e-05
441 17.0539 8.45258 0.14126 0 0 1.00086 5.15652e-05
443 17.5245 8.39954 1.08339 0 0 1.00086 5.26661e-05
362 17.6234 7.45007 0.293386 0 0 1.00086 4.41441e-05
368 18.2155 7.68639 1.08972 0 0 1.00086 4.6519e-05
445 18.2537 8.50325 0.287043 0 0 1.00086 5.17951e-05
447 18.9168 8.55022 1.02738 0 0 1.00086 5.09278e-05
366 18.9783 7.66618 0.223297 0 0 1.00086 4.4271e-05
372 19.4285 7.6036 1.15745 0 0 1.00086 4.56847e-05
449 19.5936 8.80805 0.213561 0 0 1.00086 4.93501e-05
370 20.124 7.96859 0.611171 0 0 1.00086 4.41515e-05
371 20.3652 7.20346 1.34457 0 0 1.00086 4.06899e-05
373 21.0101 7.43179 0.599185 0 0 1.00086 3.91744e-05
376 20.9792 8.40881 1.31394 0 0 1.00086 4.66718e-05
374 21.7146 8.26197 0.613971 0 0 1.00086 4.25878e-05
375 21.7501 7.38505 1.30441 0 0 1.00086 3.87136e-05
377 22.5543 7.4881 0.669418 0 0 1.00086 3.59853e-05
380 22.5241 8.54798 1.13681 0 0 1.00086 4.20306e-05
378 23.2577 8.34644 0.389921 0 0 1.00086 3.69904e-05
379 23.4835 7.53124 1.20378 0 0 1.00086 3.39373e-05
383 25.0728 7.39747 1.18122 0 0 1.00086 2.72291e-05
381 24.1568 7.59013 0.292678 0 0 1.00086 3.08664e-05
384 24.2743 8.22724 1.07684 0 0 1.00086 3.3203e-05
382 25.0753 8.16912 0.294898 0 0 1.00086 2.90407e-05
387 26.533 7.34625 1.40765 0 0 1.00086 2.16665e-05
385 25.8435 7.46765 0.49395 0 0 1.00086 2.37156e-05
388 25.8525 8.21709 1.23506 0 0 1.00086 2.64718e-05
467 26.7144 8.80833 1.00092 0 0 1.00086 2.38284e-05
386 26.7329 8.00125 0.380725 0 0 1.00086 2.20459e-05
390 28.2946 7.56843 0.516684 0 0 1.00086 1.45822e-05
392 27.4392 7.81081 1.31707 0 0 1.00086 1.90172e-05
471 28.4035 8.42191 1.20887 0 0 1.00086 1.56955e-05
469 27.6221 8.46972 0.431289 0 0 1.00086 1.87426e-05
396 29.1952 7.55446 1.23267 0 0 1.00086 1.14935e-05
475 30.0455 8.03899 1.2788 0 0 1.00086 8.54451e-06
473 29.2525 8.19671 0.416031 0 0 1.00086 1.15199e-05
394 30.0963 7.26731 0.504662 0 0 1.00086 7.99312e-06
474 30.1238 8.7443 0.532563 0 0 1.00086 8.47456e-06
400 30.8367 7.29839 1.17993 0 0 1.00086 5.28815e-06
480 30.9451 8.70964 1.19021 0 0 1.00086 5.24571e-06
477 31.1419 8.051 0.387587 0 0 1.00086 4.5035e-06
482 1.59594 10.0862 0.254745 0 0 1.00086 1.08453e-05
483 1.53231 9.1953 1.18217 0 0 1.00086 1.08295e-05
484 0.739838 9.90664 0.911027 0 0 1.00086 7.27985e-06
481 0.858048 9.2871 0.124634 0 0 1.00086 7.89666e-06
1322 1.314 9.97982 1.73538 0 0 1.00086 9.9997e-06
485 2.26955 9.16327 0.425438 0 0 1.00086 1.39209e-05
488 2.31709 10.0236 0.974307 0 0 1.00086 1.42352e-05
486 3.09969 9.82823 0.0798671 0 0 1.00086 1.78622e-05
487 2.92601 9.04095 1.19083 0 0 1.00086 1.70598e-05
1326 3.2893 9.73817 1.65887 0 0 1.00086 1.96508e-05
567 3.05667 10.5279 0.717357 0 0 1.00087 1.8063e-05
489 3.63907 8.86257 0.0972419 0 0 1.00086 2.00363e-05
492 3.92785 9.49206 0.743165 0 0 1.00086 2.19595e-05
1330 4.74488 9.28688 1.56967 0 0 1.00086 2.72651e-05
1409 4.06508 10.2035 1.43232 0 0 1.00086 2.37355e-05
571 4.63678 10.2444 0.514407 0 0 1.00086 2.62999e-05
496 5.22288 9.2966 0.571208 0 0 1.00086 2.88823e-05
1334 6.02983 9.05378 1.1791 0 0 1.00086 3.32904e-05
575 6.04225 9.89966 0.447774 0 0 1.00086 3.43158e-05
1413 5.40076 10.0318 1.45046 0 0 1.00086 3.20175e-05
1414 6.15132 10.5405 1.21409 0 0 1.00086 3.6276e-05
500 6.95538 8.96963 0.504246 0 0 1.00087 3.68634e-05
1417 6.966 9.65153 1.19602 0 0 1.00086 3.99251e-05
1338 7.95417 8.8544 1.18064 0 0 1.00086 4.26284e-05
579 7.69594 9.74072 0.464309 0 0 1.00086 4.34057e-05
580 6.82745 10.5353 0.37864 0 0 1.00086 4.00276e-05
1418 7.75127 10.5362 1.11214 0 0 1.00086 4.74209e-05
1421 8.53593 9.67732 1.32322 0 0 1.00086 4.91669e-05
504 8.83047 9.04514 0.565762 0 0 1.00086 4.63357e-05
1342 9.67718 9.26432 1.38427 0 0 1.00086 5.25278e-05
583 9.63546 9.9563 0.662224 0 0 1.00086 5.41493e-05
584 8.68936 10.4354 0.679041 0 0 1.00086 5.08202e-05
508 10.5935 9.44527 0.664171 0 0 1.00086 5.56478e-05
507 11.5217 8.92453 0.662964 0 0 1.00086 5.49815e-05
1346 11.6935 9.36767 1.60057 0 0 1.00086 6.1185e-05
1425 10.5987 10.1449 1.37122 0 0 1.00086 6.26562e-05
587 11.3067 10.2724 0.662555 0 0 1.00087 6.29094e-05
512 12.2356 9.81334 0.718545 0 0 1.00086 6.24471e-05
1349 12.5046 8.94065 1.35782 0 0 1.00086 5.92446e-05
511 13.2215 9.23224 0.687305 0 0 1.00086 6.00475e-05
1350 13.1315 9.9125 1.58037 0 0 1.00086 6.85557e-05
510 12.8511 10.0672 0.0313347 0 0 1.00086 6.38833e-05
1429 12.2621 10.4448 1.51017 0 0 1.00086 6.98229e-05
1353 13.8459 9.13985 1.6125 0 0 1.00086 6.45196e-05
516 13.935 10.0381 0.941016 0 0 1.00086 6.62492e-05
515 14.7301 9.42216 0.856981 0 0 1.00086 6.21486e-05
1354 14.7268 10.1291 1.6959 0 0 1.00086 7.18049e-05
514 14.521 10.3303 0.0356382 0 0 1.00086 6.72619e-05
517 15.4456 9.94208 0.211441 0 0 1.00086 6.40632e-05
440 15.6753 9.06042 0.797966 0 0 1.00086 5.87572e-05
519 16.3342 9.92096 1.01957 0 0 1.00086 6.54235e-05
438 16.4468 9.2497 0.130613 0 0 1.00086 5.73142e-05
1357 15.5919 9.64813 1.76232 0 0 1.00086 6.82419e-05
520 15.3881 10.5694 1.02504 0 0 1.00086 6.94299e-05
521 16.8486 10.2876 0.222619 0 0 1.00086 6.44012e-05
444 17.1348 9.34043 1.12991 0 0 1.00086 6.02378e-05
523 17.6755 10.2905 0.970059 0 0 1.00086 6.57049e-05
442 17.6688 9.37689 0.257516 0 0 1.00086 5.78704e-05
448 18.3118 9.45876 1.08675 0 0 1.00086 5.87657e-05
525 18.3051 10.4822 0.173394 0 0 1.00086 6.32029e-05
527 18.8948 10.4376 1.07492 0 0 1.00086 6.32683e-05
446 18.9121 9.64644 0.112802 0 0 1.00086 5.62731e-05
452 19.4808 9.58187 0.953906 0 0 1.00086 5.80308e-05
529 19.6718 10.4812 0.307593 0 0 1.00086 6.06163e-05
1369 19.7975 10.3666 1.71194 0 0 1.00086 6.50242e-05
451 20.1017 8.85346 1.18223 0 0 1.00086 5.21417e-05
453 20.8765 8.89904 0.376502 0 0 1.00086 4.89355e-05