ITEM: TIMESTEP
11000
ITEM: NUMBER OF ATOMS
32000
ITEM: BOX BOUNDS pp pp pp
0.0000000000000000e+00 3.1748021039364001e+01
0.0000000000000000e+00 3.1748021039364001e+01
0.0000000000000000e+00 3.1748021039364001e+01
ITEM: ATOMS id x y z c_phase c_nbond c_rho v_omega
4 0.158877 1.12872 0.466224 0 0 1.00034 -1.15882e-06
83 1.03232 1.66803 0.778373 0 0 1.00034 6.63957e-07
842 0.748392 0.801039 1.41008 0 0 1.00034 -5.90244e-07
921 0.0626058 1.63262 1.37618 0 0 1.00035 -6.56126e-07
3 0.741383 0.0728583 0.616663 0 0 1.00034 -1.49804e-06
8 1.74492 0.791025 1.01338 0 0 1.00034 4.79759e-07
85 1.85789 1.45421 0.217953 0 0 1.00034 1.50587e-06
925 1.88588 1.63244 1.75532 0 0 1.00034 1.96065e-06
6 2.55356 0.704408 0.202276 0 0 1.00034 1.2387e-06
7 2.60022 0.00941169 1.03478 0 0 1.00034 2.65427e-07
87 2.70695 1.49229 0.877792 0 0 1.00034 2.71512e-06
846 2.70723 0.768048 1.7395 0 0 1.00034 1.62842e-06
12 3.47199 0.862698 0.956145 0 0 1.00034 2.56134e-06
849 3.50795 0.0200467 1.70355 0 0 1.00034 1.14599e-06
929 3.67367 1.62959 1.71308 0 0 1.00034 4.31174e-06
10 4.14909 0.774992 0.320194 0 0 1.00034 2.87688e-06
16 5.00013 0.465669 1.16217 0 0 1.00034 2.93282e-06
93 4.98894 1.49798 0.382028 0 0 1.00035 5.26222e-06
850 4.38252 0.851497 1.6282 0 0 1.00034 3.55657e-06
9 3.48753 0.0417597 0.171687 0 0 1.00034 9.38739e-07
91 4.08217 1.75446 0.710186 0 0 1.00034 4.97838e-06
14 5.68438 0.534054 0.318666 0 0 1.00034 3.40209e-06
95 5.94719 1.19695 0.941053 0 0 1.00035 5.29149e-06
97 6.64477 1.27272 0.216811 0 0 1.00035 5.67499e-06
854 5.81635 0.343859 1.69552 0 0 1.00034 3.13021e-06
933 5.10089 1.61019 1.43262 0 0 1.00035 5.97466e-06
20 6.7412 0.273553 0.866184 0 0 1.00034 3.00534e-06
937 6.74531 0.884607 1.69066 0 0 1.00034 4.91193e-06
24 8.29397 0.282396 1.06457 0 0 1.00034 2.99112e-06
99 7.43352 1.09691 0.948509 0 0 1.00034 5.56618e-06
101 8.32344 1.26226 0.233578 0 0 1.00034 6.15646e-06
941 8.2047 1.13799 1.60721 0 0 1.00034 6.24633e-06
18 7.62387 0.529015 0.146146 0 0 1.00034 3.69962e-06
22 8.89292 0.383692 0.264988 0 0 1.00034 2.97811e-06
28 9.58408 0.215416 0.891454 0 0 1.00034 1.95168e-06
103 9.09803 1.18165 1.10071 0 0 1.00034 5.97213e-06
945 9.64796 0.849493 1.7603 0 0 1.00034 4.59436e-06
105 9.72039 1.2491 0.0941883 0 0 1.00034 5.84681e-06
32 11.2324 0.12073 0.636011 0 0 1.00034 5.17267e-07
107 10.4353 0.940163 0.823867 0 0 1.00034 4.44828e-06
866 10.5407 0.0879806 1.4457 0 0 1.00034 9.45455e-07
949 11.3636 0.918201 1.41558 0 0 1.00034 4.05387e-06
946 10.6872 1.56843 1.7227 0 0 1.00034 7.46134e-06
26 10.275 0.255965 0.0769457 0 0 1.00034 1.67598e-06
112 11.2809 1.73212 0.770918 0 0 1.00034 7.76426e-06
36 12.9037 0.157594 0.637159 0 0 1.00034 -5.23038e-07
111 12.119 0.997843 0.509594 0 0 1.00034 3.77395e-06
870 12.1615 0.238158 1.30035 0 0 1.00034 4.58906e-07
953 12.8106 1.13178 1.37185 0 0 1.00034 4.2913e-06
40 14.4087 0.308928 0.769568 0 0 1.00034 -5.43214e-07
115 13.6756 1.07609 0.842367 0 0 1.00034 3.44351e-06
117 14.1612 1.53389 0.159749 0 0 1.00034 5.57253e-06
874 13.6461 0.321613 1.6338 0 0 1.00034 -1.21243e-07
957 14.4688 1.14078 1.47764 0 0 1.00034 3.53706e-06
119 14.9958 1.55867 0.6639 0 0 1.00034 5.45529e-06
44 15.775 0.797752 0.78797 0 0 1.00034 1.68831e-06
123 16.6664 1.60602 0.683588 0 0 1.00034 6.02465e-06
878 15.1879 0.475818 1.63984 0 0 1.00034 7.2262e-08
882 16.6084 0.769473 1.34381 0 0 1.00034 1.69296e-06
961 15.7465 1.51998 1.39442 0 0 1.00034 5.62986e-06
38 15.1633 0.721451 0.067985 0 0 1.00034 1.06501e-06
48 17.323 0.812705 0.554673 0 0 1.00034 2.05186e-06
127 18.0421 1.69077 0.755063 0 0 1.00034 7.1791e-06
886 17.9808 0.849948 1.42624 0 0 1.00034 2.82994e-06
47 18.174 0.0358724 0.692048 0 0 1.00034 -1.10369e-06
51 19.5526 0.154795 0.6673 0 0 1.00034 8.74471e-07
52 18.851 0.856759 0.688554 0 0 1.00034 3.32196e-06
131 19.65 1.7054 0.84251 0 0 1.00034 8.37431e-06
889 19.0452 0.289191 1.54753 0 0 1.00034 7.32137e-07
890 19.6716 1.11898 1.6944 0 0 1.00034 5.70932e-06
969 18.7777 1.63828 1.50037 0 0 1.00034 7.53307e-06
129 18.9808 1.7155 0.000602663 0 0 1.00034 7.76312e-06
55 21.1422 0.523601 1.07128 0 0 1.00035 3.72515e-06
56 20.308 0.939399 0.973969 0 0 1.00034 5.09048e-06
54 21.2411 0.945812 0.216235 0 0 1.00035 5.87255e-06
133 20.4497 1.68101 0.200777 0 0 1.00034 8.76174e-06
893 20.4726 0.0384174 1.43825 0 0 1.00035 1.37704e-06
53 20.2994 0.0210556 0.07374 0 0 1.00034 1.08094e-06
57 22.0439 0.457867 0.539848 0 0 1.00035 4.41136e-06
59 22.8383 0.623141 1.40465 0 0 1.00035 5.65175e-06
60 22.1913 1.34879 1.33262 0 0 1.00035 8.5558e-06
58 22.9784 1.25705 0.459789 0 0 1.00035 8.11685e-06
63 24.2796 0.575867 1.43305 0 0 1.00034 6.1125e-06
61 23.6027 0.545481 0.577249 0 0 1.00034 5.67173e-06
62 24.5007 1.37345 0.752311 0 0 1.00034 8.84861e-06
64 23.5595 1.44232 1.39852 0 0 1.00034 9.21452e-06
65 24.9892 0.503687 0.547694 0 0 1.00034 6.03304e-06
67 26.0335 0.55586 1.17141 0 0 1.00035 6.0096e-06
68 25.2289 1.31911 1.4717 0 0 1.00034 8.74149e-06
66 25.9431 1.1165 0.428917 0 0 1.00034 7.67363e-06
70 27.6322 1.43101 0.387882 0 0 1.00035 7.21233e-06
71 27.6426 0.652699 0.874634 0 0 1.00035 5.39052e-06
72 26.8028 1.19588 1.25962 0 0 1.00035 7.32462e-06
913 28.4043 0.471307 1.40778 0 0 1.00034 4.40737e-06
69 26.8128 0.404072 0.232679 0 0 1.00035 5.31426e-06
76 28.7007 1.35889 0.73754 0 0 1.00034 5.82452e-06
914 29.4248 1.0573 1.56924 0 0 1.00034 4.53876e-06
917 29.8335 0.259148 1.45949 0 0 1.00034 2.6578e-06
75 29.2957 0.458563 0.616943 0 0 1.00034 3.49227e-06
841 31.6055 0.302229 1.25633 0 0 1.00034 7.58102e-07
79 30.731 0.547641 0.474625 0 0 1.00034 2.12093e-06
80 30.1443 1.27995 0.773931 0 0 1.00034 3.96393e-06
918 30.9023 1.03045 1.39226 0 0 1.00034 2.62913e-06
82 1.19133 2.43184 0.125319 0 0 1.00034 1.77733e-06
84 0.213152 2.40932 0.809823 0 0 1.00035 2.83677e-07
163 1.38795 3.22086 0.94515 0 0 1.00034 3.12335e-06
922 1.21899 2.35566 1.58873 0 0 1.00034 1.93951e-06
1001 0.481468 3.05218 1.54818 0 0 1.00034 1.36504e-06
161 0.428708 3.12069 0.130465 0 0 1.00034 1.11593e-06
88 1.9934 2.38738 0.782699 0 0 1.00034 3.03801e-06
167 2.76515 3.22453 0.85674 0 0 1.00034 5.69026e-06
926 2.7522 2.18043 1.53391 0 0 1.00034 4.07741e-06
86 2.80903 2.33086 0.0537579 0 0 1.00034 4.19451e-06
1005 2.21168 3.05809 1.75872 0 0 1.00034 4.55059e-06
1009 3.37857 3.34386 1.64658 0 0 1.00034 7.355e-06
92 3.47515 2.4842 0.779286 0 0 1.00034 5.60783e-06
96 5.01375 2.4626 0.814769 0 0 1.00034 7.84077e-06
171 4.32074 3.22117 0.748936 0 0 1.00034 8.38537e-06
930 4.23939 2.54749 1.57791 0 0 1.00034 7.05008e-06
94 5.7564 2.32783 0.134717 0 0 1.00035 8.24768e-06
100 6.66147 2.0553 0.774741 0 0 1.00034 8.26732e-06
175 5.7843 3.07126 0.951841 0 0 1.00034 1.05667e-05
934 5.95869 2.0771 1.49009 0 0 1.00035 7.9742e-06
1017 6.66753 2.92626 1.54553 0 0 1.00034 1.1477e-05
177 6.77711 2.80198 0.128375 0 0 1.00035 1.057e-05
98 7.56403 2.09451 0.136061 0 0 1.00034 8.91862e-06
104 8.20509 2.06485 0.930397 0 0 1.00034 9.33638e-06
179 7.5488 2.92028 0.920442 0 0 1.00034 1.21376e-05
938 7.40561 1.92581 1.56437 0 0 1.00034 8.63714e-06
1021 8.34462 2.84993 1.64329 0 0 1.00034 1.29364e-05
181 8.42343 2.8295 0.0376228 0 0 1.00034 1.21227e-05
102 9.02508 1.96321 0.248823 0 0 1.00034 8.87881e-06
108 9.89619 1.89765 1.09892 0 0 1.00034 8.7833e-06
183 9.08726 2.83031 0.926362 0 0 1.00034 1.30454e-05
942 9.15908 2.08313 1.70382 0 0 1.00035 1.01177e-05
185 9.72953 2.77697 0.206244 0 0 1.00034 1.26165e-05
188 10.095 3.44633 0.882675 0 0 1.00035 1.61939e-05
106 10.4137 1.9966 0.205009 0 0 1.00034 9.04064e-06
187 10.7921 2.68728 0.916522 0 0 1.00034 1.24554e-05
1029 11.6254 2.72945 1.57992 0 0 1.00034 1.33552e-05
1026 10.9213 3.44987 1.58793 0 0 1.00034 1.70294e-05
116 12.811 1.87879 0.596654 0 0 1.00034 7.84404e-06
191 12.104 2.56167 0.737431 0 0 1.00034 1.19663e-05
950 12.0609 1.83371 1.46368 0 0 1.00034 8.18698e-06
1033 13.0575 2.94889 1.68996 0 0 1.00035 1.45585e-05
196 12.7327 3.51835 0.810836 0 0 1.00035 1.74271e-05
195 13.4037 2.97008 0.837711 0 0 1.00035 1.36855e-05
954 13.5286 1.94753 1.47662 0 0 1.00035 8.26157e-06
120 14.197 2.42 0.921427 0 0 1.00034 1.06184e-05
1037 14.272 3.35596 1.55251 0 0 1.00035 1.69521e-05
199 14.9433 3.43149 0.873615 0 0 1.00034 1.68472e-05
958 14.9671 2.30638 1.44002 0 0 1.00034 1.01401e-05
118 15.0236 2.51371 0.134948 0 0 1.00034 1.10437e-05
197 14.3736 3.20021 0.0380506 0 0 1.00034 1.49455e-05
114 13.5738 2.2556 0.0546082 0 0 1.00034 9.6102e-06
124 15.8741 2.47319 0.697549 0 0 1.00034 1.09153e-05
203 16.5371 3.25701 0.671007 0 0 1.00034 1.58945e-05
962 16.4966 2.53387 1.52415 0 0 1.00034 1.18112e-05
1041 15.6209 3.27995 1.50186 0 0 1.00034 1.63167e-05
201 15.7987 3.28768 0.0222391 0 0 1.00034 1.59453e-05
965 17.3535 1.83121 1.56304 0 0 1.00034 7.92978e-06
128 17.2399 2.43694 0.681326 0 0 1.00034 1.10798e-05
207 18.1479 3.04537 0.705993 0 0 1.00034 1.51545e-05
966 18.1954 2.55056 1.58877 0 0 1.00034 1.26818e-05
1045 17.3153 3.20214 1.49864 0 0 1.00034 1.62515e-05
132 19.0561 2.50365 1.01311 0 0 1.00034 1.24033e-05
211 19.9063 3.40925 1.2762 0 0 1.00034 1.8677e-05
209 19.0806 3.14711 0.19043 0 0 1.00034 1.61951e-05
130 19.7511 2.48909 0.106031 0 0 1.00034 1.26628e-05
135 21.2079 1.82748 0.960831 0 0 1.00034 1.00549e-05
973 20.4483 1.95462 1.73454 0 0 1.00034 1.06292e-05
134 21.3161 2.60984 0.456583 0 0 1.00035 1.38845e-05
136 20.3639 2.63473 1.10673 0 0 1.00035 1.41754e-05
215 21.5086 3.50689 1.3894 0 0 1.00035 1.89856e-05
213 20.6009 3.18894 0.329881 0 0 1.00034 1.69484e-05
137 22.0953 1.79925 0.527232 0 0 1.00035 1.03582e-05
139 23.0003 2.26656 1.51646 0 0 1.00035 1.27764e-05
138 23.1069 2.81666 0.733254 0 0 1.00035 1.48644e-05
140 22.2296 2.70387 1.23933 0 0 1.00035 1.49667e-05
217 22.1609 3.4157 0.605229 0 0 1.00035 1.84917e-05
141 23.8319 2.01562 0.623192 0 0 1.00034 1.12456e-05
143 24.5266 2.19141 1.59839 0 0 1.00034 1.22029e-05
142 24.4719 2.8919 0.775581 0 0 1.00034 1.47094e-05
144 23.8319 3.11229 1.53702 0 0 1.00034 1.63954e-05
16108 25.0843 3.03593 0.0135347 0 0 1.00034 1.46239e-05
147 26.0123 1.92364 1.35646 0 0 1.00035 1.01855e-05
149 26.6289 1.96533 0.512806 0 0 1.00034 9.59578e-06
145 25.2231 2.04868 0.519023 0 0 1.00034 1.10434e-05
146 25.9083 2.80232 0.704463 0 0 1.00034 1.30132e-05
148 25.2827 2.76776 1.52297 0 0 1.00034 1.36167e-05
152 26.6394 2.74826 1.53009 0 0 1.00035 1.20725e-05
151 27.581 2.14012 1.2337 0 0 1.00035 8.99706e-06
153 28.3311 2.22723 0.345301 0 0 1.00035 8.20778e-06
150 27.1932 2.85976 0.639615 0 0 1.00034 1.13769e-05
231 27.3331 3.52669 1.41565 0 0 1.00034 1.31231e-05
156 28.3517 2.89667 1.20123 0 0 1.00035 9.75965e-06
233 28.0976 3.37384 0.33466 0 0 1.00035 1.12838e-05
993 28.587 1.85364 1.50306 0 0 1.00035 7.14456e-06
997 30.0265 1.89688 1.70627 0 0 1.00034 5.30364e-06
155 29.516 2.1412 0.882431 0 0 1.00034 6.29255e-06
154 29.2848 2.78259 0.288076 0 0 1.00035 7.893e-06
235 29.3602 3.37493 1.1798 0 0 1.00035 8.91312e-06
159 30.9794 2.0395 0.923529 0 0 1.00035 3.94708e-06
160 30.2705 2.793 1.00082 0 0 1.00034 6.11609e-06
239 31.1296 3.40135 0.97339 0 0 1.00035 5.57305e-06
998 31.0743 2.75032 1.72645 0 0 1.00034 4.81141e-06
237 30.2201 3.33633 0.143878 0 0 1.00035 7.19289e-06
157 30.4752 1.98081 0.0300726 0 0 1.00035 4.62994e-06
158 31.2286 2.71263 0.0764601 0 0 1.00035 4.47048e-06
164 0.408348 3.80398 0.918228 0 0 1.00034 1.67579e-06
241 0.272557 4.62607 0.476633 0 0 1.00034 1.91788e-06
243 1.26922 4.6556 0.984918 0 0 1.00034 4.30025e-06
244 0.234074 5.29436 1.27548 0 0 1.00034 2.31524e-06
162 1.15849 3.8559 0.0646855 0 0 1.00034 3.06397e-06
168 1.97075 4.01028 0.846457 0 0 1.00034 5.07923e-06
247 2.6831 4.79502 1.12726 0 0 1.00034 7.84476e-06
166 2.78057 4.08465 0.202177 0 0 1.00034 6.9368e-06
245 2.03848 4.9241 0.279086 0 0 1.00034 6.14416e-06
249 3.56147 4.77121 0.161694 0 0 1.00034 9.8348e-06
172 3.62473 3.99187 0.883078 0 0 1.00034 8.60861e-06
251 4.21473 4.76987 1.14589 0 0 1.00034 1.17876e-05
170 4.4002 4.07565 0.143913 0 0 1.00034 1.03397e-05
176 5.0624 3.8843 1.16728 0 0 1.00034 1.16223e-05
253 5.1773 4.61358 0.331028 0 0 1.00034 1.34552e-05
174 5.92388 3.80534 0.186875 0 0 1.00034 1.28434e-05
180 6.66271 3.62918 0.775764 0 0 1.00034 1.34205e-05
255 5.8734 4.58317 1.02534 0 0 1.00034 1.52786e-05
254 5.97128 5.25997 0.290955 0 0 1.00035 1.70506e-05
1097 6.85669 4.35673 1.64201 0 0 1.00034 1.69672e-05
260 6.87663 4.97596 0.870408 0 0 1.00034 1.84813e-05
259 7.60494 4.30263 0.549755 0 0 1.00034 1.74035e-05
1018 7.58513 3.71368 1.49596 0 0 1.00034 1.55788e-05
258 7.55026 5.18766 0.0351282 0 0 1.00034 2.06078e-05
1098 7.62893 5.22945 1.49047 0 0 1.00034 2.18261e-05
184 8.39311 3.73087 0.701205 0 0 1.00034 1.61735e-05
1101 8.42581 4.4398 1.47809 0 0 1.00034 1.98916e-05
264 8.44928 5.14298 0.69354 0 0 1.00034 2.24402e-05
263 9.30633 4.40893 0.814132 0 0 1.00034 2.04701e-05
1022 9.27466 3.61512 1.49656 0 0 1.00034 1.73965e-05
182 9.18713 3.72062 0.0560705 0 0 1.00035 1.67023e-05
268 10.0401 5.16425 0.790703 0 0 1.00034 2.52605e-05
1102 9.31333 5.15274 1.58402 0 0 1.00034 2.51747e-05
265 10.0944 4.36943 0.123525 0 0 1.00035 2.06607e-05
1105 10.1161 4.19927 1.65319 0 0 1.00034 2.09862e-05
192 11.6288 3.535 0.790174 0 0 1.00034 1.72338e-05
267 10.8462 4.51452 0.899043 0 0 1.00034 2.24764e-05
269 11.6478 4.57953 0.217313 0 0 1.00034 2.26193e-05
1109 11.6298 4.26601 1.69437 0 0 1.00034 2.27336e-05
272 11.6889 5.15086 0.995583 0 0 1.00034 2.71186e-05
186 10.8103 3.71773 0.16942 0 0 1.00035 1.76128e-05
1106 10.807 5.07452 1.75669 0 0 1.00034 2.66968e-05
271 12.4644 4.45718 0.996605 0 0 1.00034 2.33535e-05
1113 13.0768 4.89617 1.68485 0 0 1.00034 2.72177e-05
273 12.9094 4.53703 0.0551638 0 0 1.00034 2.32714e-05
275 13.5191 4.63844 0.791031 0 0 1.00034 2.4441e-05
200 14.2679 4.09421 0.69332 0 0 1.00034 2.07215e-05
1034 13.7731 4.16619 1.58908 0 0 1.00034 2.23533e-05
1117 14.5303 5.08112 1.52148 0 0 1.00034 2.91201e-05
277 14.4467 4.86642 0.0702635 0 0 1.00034 2.5535e-05
279 15.2691 5.02479 0.80997 0 0 1.00034 2.75055e-05
198 15.236 4.19435 0.101389 0 0 1.00034 2.13726e-05
1038 15.2784 4.41453 1.59208 0 0 1.00034 2.4132e-05
204 15.9435 4.0999 0.915645 0 0 1.00034 2.14912e-05
281 16.1754 4.81719 0.181419 0 0 1.00034 2.57858e-05
1042 16.608 4.02505 1.68319 0 0 1.00034 2.21592e-05
1121 16.1568 5.0855 1.64286 0 0 1.00034 2.9667e-05
283 16.8933 4.66469 0.901715 0 0 1.00034 2.54711e-05
208 17.5313 3.92862 0.808188 0 0 1.00034 2.05036e-05
287 18.3681 4.62386 1.09485 0 0 1.00034 2.59248e-05
1046 18.2031 3.76761 1.65545 0 0 1.00034 2.05741e-05
285 17.7322 4.69106 0.0205841 0 0 1.00034 2.54978e-05
206 18.3885 3.97936 0.0666854 0 0 1.00034 2.08372e-05
212 19.106 3.86395 0.956687 0 0 1.00034 2.08625e-05
289 19.1048 4.7735 0.35801 0 0 1.00034 2.65959e-05
291 19.9536 4.85837 1.10398 0 0 1.00035 2.74936e-05
210 19.8275 3.93937 0.238462 0 0 1.00035 2.12014e-05
216 20.6613 4.0201 1.23478 0 0 1.00034 2.19928e-05
295 21.1415 4.94055 1.38869 0 0 1.00034 2.79939e-05
214 21.3156 4.14917 0.514495 0 0 1.00034 2.2389e-05
293 20.4176 4.98572 0.345256 0 0 1.00034 2.75175e-05
16179 22.8699 3.61784 0.0581571 0 0 1.00035 1.87601e-05
297 21.8495 5.19057 0.798013 0 0 1.00034 2.84227e-05
219 23.0165 3.84784 1.41588 0 0 1.00035 2.03127e-05
220 22.1585 4.36015 1.31247 0 0 1.00034 2.37472e-05
218 22.839 4.57702 0.527637 0 0 1.00034 2.37335e-05
223 24.6369 3.7388 1.55961 0 0 1.00035 1.83121e-05
221 23.7532 3.85569 0.778168 0 0 1.00035 1.94272e-05
222 24.5242 4.55927 0.629748 0 0 1.00035 2.15542e-05
224 23.6815 4.78308 1.33979 0 0 1.00035 2.43933e-05
301 23.7688 5.31616 0.534672 0 0 1.00034 2.60693e-05
228 25.2033 4.71931 1.6118 0 0 1.00035 2.13745e-05
227 25.8671 3.70279 1.51882 0 0 1.00034 1.6317e-05
229 26.3156 3.6973 0.596166 0 0 1.00034 1.52888e-05
225 25.2212 3.87572 0.790454 0 0 1.00034 1.76403e-05
232 26.5233 4.4909 1.3747 0 0 1.00034 1.75862e-05
309 26.6819 5.17896 0.643413 0 0 1.00035 1.91788e-05
226 25.7089 4.6195 0.401381 0 0 1.00035 1.94277e-05
311 27.497 5.0562 1.40462 0 0 1.00035 1.69581e-05
236 28.0986 4.13121 1.10801 0 0 1.00035 1.32404e-05
230 27.212 4.22003 0.579269 0 0 1.00034 1.53233e-05
313 28.4261 4.89175 0.704271 0 0 1.00035 1.37595e-05
234 29.0548 3.90042 0.480304 0 0 1.00035 1.04709e-05
315 29.2252 4.64824 1.32564 0 0 1.00035 1.15236e-05
240 30.1188 4.1537 1.02849 0 0 1.00035 8.56182e-06
238 31.1468 4.03694 0.36528 0 0 1.00035 6.08435e-06
317 30.3412 4.77323 0.48147 0 0 1.00035 8.57372e-06
319 31.1111 4.66285 1.40019 0 0 1.00035 6.82571e-06
242 1.05923 5.52382 0.460248 0 0 1.00034 4.17782e-06
323 0.956004 6.20811 1.27514 0 0 1.00034 4.36284e-06
324 0.417419 6.94333 1.50014 0 0 1.00034 3.06749e-06
322 1.13629 6.92853 0.568879 0 0 1.00034 4.92638e-06
321 0.134977 6.03174 0.447644 0 0 1.00034 1.99719e-06
248 1.68687 5.48002 1.37376 0 0 1.00034 6.13844e-06
328 1.87513 6.97994 1.2389 0 0 1.00034 7.53943e-06
325 2.05247 6.15229 0.510012 0 0 1.00034 7.42332e-06
252 3.28065 5.53487 1.29142 0 0 1.00034 1.06936e-05
327 2.43936 6.09392 1.40563 0 0 1.00034 8.92413e-06
246 2.84277 5.53422 0.271485 0 0 1.00034 8.95725e-06
332 3.43466 6.8594 1.13321 0 0 1.00035 1.2703e-05
329 3.57678 6.17215 0.488746 0 0 1.00034 1.20739e-05
250 4.36787 5.34613 0.321306 0 0 1.00034 1.29882e-05
331 4.31614 5.96552 1.22393 0 0 1.00034 1.44981e-05
333 5.02772 6.09174 0.324392 0 0 1.00034 1.66331e-05
336 4.98427 6.65499 1.15611 0 0 1.00035 1.81937e-05
330 4.19528 6.88643 0.222679 0 0 1.00035 1.52697e-05
256 5.12538 5.29341 1.30018 0 0 1.00035 1.53832e-05
335 5.89851 6.06394 0.955609 0 0 1.00035 1.9767e-05
1177 6.69448 5.80607 1.59319 0 0 1.00035 2.17098e-05
340 6.67893 6.67599 0.984615 0 0 1.00034 2.42834e-05
337 6.61402 5.88839 0.144726 0 0 1.00034 2.06604e-05
334 5.76922 6.87193 0.146105 0 0 1.00034 2.10323e-05
339 7.56454 5.96399 0.752176 0 0 1.00034 2.39304e-05
344 8.29456 6.65089 0.717127 0 0 1.00034 2.88029e-05
1178 7.54685 6.64388 1.59217 0 0 1.00034 2.77252e-05
1181 8.50033 5.91819 1.49145 0 0 1.00034 2.70177e-05
343 9.16514 5.99975 0.7333 0 0 1.00034 2.79857e-05
1185 10.0465 5.99761 1.4703 0 0 1.00034 3.09147e-05
1182 9.39095 6.74845 1.45699 0 0 1.00034 3.34942e-05
262 9.26093 5.30233 0.0174002 0 0 1.00035 2.44688e-05
345 10.0532 6.06552 0.0892365 0 0 1.00034 2.96484e-05
347 10.9021 5.86491 0.945025 0 0 1.00034 3.03319e-05
349 11.6428 6.22403 0.0663676 0 0 1.00034 3.28099e-05
346 10.8531 6.77916 0.136936 0 0 1.00034 3.5104e-05
1186 10.8109 6.74706 1.48863 0 0 1.00034 3.70151e-05
352 11.6555 6.98302 0.803113 0 0 1.00034 3.85631e-05
348 10.1495 7.01565 0.723048 0 0 1.00034 3.57167e-05
270 12.3112 5.50514 0.179643 0 0 1.00034 2.91463e-05
276 13.0138 5.71632 0.857296 0 0 1.00034 3.15292e-05
351 12.1134 6.08786 1.04663 0 0 1.00034 3.36287e-05
1190 12.4675 7.02244 1.37718 0 0 1.00035 4.1497e-05
274 13.6432 5.47644 0.035374 0 0 1.00034 2.96933e-05
1114 13.69 5.79603 1.56402 0 0 1.00034 3.36653e-05
355 13.7263 6.49567 0.796885 0 0 1.00034 3.69975e-05
280 14.4146 5.68579 0.770474 0 0 1.00034 3.21374e-05
1197 14.7123 6.61218 1.41483 0 0 1.00034 4.06784e-05
357 14.5009 6.35374 0.0335173 0 0 1.00034 3.62062e-05
278 15.3563 5.64202 0.035673 0 0 1.00034 3.14062e-05
284 16.1893 5.78126 0.94351 0 0 1.00034 3.34732e-05
359 15.4239 6.46454 0.800152 0 0 1.00035 3.81801e-05
1118 15.4879 5.8786 1.69276 0 0 1.00034 3.56204e-05
361 16.0514 6.38373 0.0410329 0 0 1.00034 3.69937e-05
363 16.8692 6.53808 1.14585 0 0 1.00034 3.95157e-05
282 16.953 5.50472 0.268092 0 0 1.00034 3.07798e-05
286 18.1572 5.44937 0.531655 0 0 1.00034 3.11896e-05
288 17.4491 5.53056 1.24403 0 0 1.00034 3.24888e-05
365 17.4427 6.38682 0.402345 0 0 1.00034 3.79279e-05
367 18.0326 6.38624 1.37174 0 0 1.00034 3.93816e-05
292 19.0922 5.4473 1.19933 0 0 1.00034 3.19538e-05
369 18.73 6.39652 0.615002 0 0 1.00034 3.79877e-05
290 19.7579 5.94817 0.621803 0 0 1.00034 3.46142e-05
371 19.6733 6.76845 1.34465 0 0 1.00035 4.15503e-05
373 20.3366 6.97288 0.609309 0 0 1.00034 4.13664e-05
294 21.0593 6.00367 0.647612 0 0 1.00034 3.39851e-05
296 20.4892 5.82976 1.39396 0 0 1.00034 3.42688e-05
375 21.1025 6.86321 1.3078 0 0 1.00034 4.06055e-05
299 22.7319 5.41647 1.28308 0 0 1.00034 2.91866e-05
377 21.9558 6.93364 0.674168 0 0 1.00034 3.86825e-05
300 21.9455 6.1271 1.37563 0 0 1.00034 3.46643e-05
16260 21.9777 5.98189 0.0552424 0 0 1.00034 3.25908e-05
298 22.9326 6.09779 0.658913 0 0 1.00034 3.16924e-05
379 22.915 6.96852 1.20973 0 0 1.00034 3.72623e-05
305 25.0642 5.4844 0.567084 0 0 1.00035 2.41803e-05
381 23.6179 7.04566 0.277816 0 0 1.00034 3.50374e-05
303 24.5806 5.54205 1.43811 0 0 1.00035 2.60548e-05
304 23.737 6.15645 1.29143 0 0 1.00035 3.09203e-05
383 24.5716 6.84418 1.17234 0 0 1.00034 3.15205e-05
302 24.3814 6.25934 0.42645 0 0 1.00034 2.93393e-05
307 25.8911 5.37002 1.35039 0 0 1.00035 2.21143e-05
306 25.8983 6.09884 0.695952 0 0 1.00034 2.41067e-05
308 25.3366 6.29081 1.66834 0 0 1.00035 2.73446e-05
385 25.389 6.98764 0.495725 0 0 1.00034 2.87479e-05
387 26.0621 6.85354 1.40983 0 0 1.00034 2.65581e-05
312 26.8838 6.06742 1.47311 0 0 1.00034 2.13411e-05
310 27.6769 5.7336 0.717705 0 0 1.00034 1.76609e-05
389 26.9484 6.58714 0.645246 0 0 1.00034 2.21837e-05
391 27.8843 6.66149 1.36969 0 0 1.00034 1.92781e-05
316 28.5346 5.6865 1.47585 0 0 1.00035 1.53976e-05
314 29.5392 5.43217 0.814437 0 0 1.00035 1.17629e-05
395 29.6026 6.31665 1.32024 0 0 1.00035 1.29117e-05
394 29.7488 7.04239 0.50916 0 0 1.00034 1.31155e-05
393 28.6463 6.37386 0.646274 0 0 1.00034 1.61002e-05
16355 29.5386 6.27165 0.0759572 0 0 1.00034 1.30569e-05
16276 28.6431 5.5483 0.0517302 0 0 1.00034 1.43804e-05
318 31.1112 5.42635 0.59341 0 0 1.00034 7.63307e-06
320 30.3698 5.54856 1.45927 0 0 1.00035 9.6565e-06
397 30.5506 6.27141 0.644535 0 0 1.00034 9.80914e-06
399 31.3732 6.2061 1.38168 0 0 1.00034 7.43533e-06
398 31.3664 7.00482 0.604938 0 0 1.00034 7.57234e-06
401 0.429775 7.65328 0.655748 0 0 1.00034 2.68384e-06
402 1.01007 8.45604 0.609247 0 0 1.00034 4.54441e-06
403 1.2796 7.83104 1.48945 0 0 1.00034 5.8059e-06
404 0.522871 8.56932 1.46554 0 0 1.00034 2.8816e-06
405 1.76882 7.72007 0.374833 0 0 1.00034 7.09219e-06
408 1.90393 8.56028 1.45852 0 0 1.00034 8.35533e-06
326 2.66113 7.06528 0.469131 0 0 1.00034 1.01585e-05
406 2.37979 8.54891 0.396441 0 0 1.00035 9.81734e-06
407 2.57882 7.72853 1.27599 0 0 1.00035 1.05796e-05
412 3.21129 8.40204 0.934575 0 0 1.00035 1.35731e-05
409 3.4337 7.64934 0.32506 0 0 1.00035 1.34932e-05
410 4.01878 8.31531 0.072128 0 0 1.00035 1.66264e-05
411 4.18638 7.50705 1.22614 0 0 1.00035 1.66157e-05
416 4.91835 8.09152 0.929911 0 0 1.00035 2.06103e-05
413 4.89257 7.48278 0.233857 0 0 1.00035 1.88016e-05
1250 4.02051 8.21036 1.76292 0 0 1.00035 1.77958e-05
414 6.11041 8.14529 0.174359 0 0 1.00035 2.52836e-05
415 5.7159 7.3937 1.01295 0 0 1.00035 2.22599e-05
420 6.65323 7.99216 1.04002 0 0 1.00035 2.78465e-05
495 5.55543 8.74865 0.648881 0 0 1.00035 2.45599e-05
417 6.73965 7.3497 0.159133 0 0 1.00034 2.59567e-05
419 7.56064 7.53997 0.738847 0 0 1.00034 2.99975e-05
1258 7.55458 7.92321 1.6869 0 0 1.00034 3.26701e-05
1261 8.3534 7.25992 1.55083 0 0 1.00034 3.30769e-05
421 8.28546 7.3957 0.0166905 0 0 1.00034 3.14507e-05
499 7.42781 8.63689 0.710576 0 0 1.00035 3.28924e-05
424 8.56617 8.08065 0.864593 0 0 1.00034 3.60176e-05
423 9.21993 7.40253 0.658519 0 0 1.00034 3.47708e-05
1262 9.39849 8.43835 1.43637 0 0 1.00034 4.22111e-05
1265 10.0014 7.65572 1.58585 0 0 1.00034 4.0647e-05
428 10.0635 8.38938 0.690386 0 0 1.00034 4.2703e-05
427 10.9243 7.73649 0.831372 0 0 1.00034 4.18214e-05
1266 10.9428 8.50417 1.42548 0 0 1.00034 4.79226e-05
429 11.5881 7.94004 0.0370746 0 0 1.00034 4.35718e-05
432 11.7264 8.65425 0.723598 0 0 1.00034 4.88355e-05
426 10.7498 8.65742 0.0215398 0 0 1.00034 4.5401e-05
1269 11.7706 7.64004 1.58681 0 0 1.00034 4.53816e-05
356 13.0888 7.18991 0.571723 0 0 1.00034 4.14578e-05
431 12.5565 8.07729 0.592345 0 0 1.00034 4.66062e-05
1270 12.474 8.51914 1.49395 0 0 1.00034 5.21212e-05
1273 13.2553 7.88783 1.47306 0 0 1.00034 4.92134e-05
360 14.7135 7.32076 0.608871 0 0 1.00035 4.42288e-05
435 14.0159 8.02998 0.480293 0 0 1.00034 4.83291e-05
1194 13.8812 7.25709 1.3563 0 0 1.00034 4.4149e-05
1277 14.681 8.11888 1.35783 0 0 1.00035 5.18809e-05
1274 14.1033 8.78261 1.56395 0 0 1.00034 5.72926e-05
364 16.0418 7.34142 0.897013 0 0 1.00035 4.46992e-05
439 15.5031 8.29411 0.862688 0 0 1.00035 5.2145e-05
443 16.6919 8.23375 1.10243 0 0 1.00034 5.29537e-05
1198 15.5608 7.53362 1.64499 0 0 1.00035 4.91098e-05
441 16.2636 8.35236 0.147916 0 0 1.00035 5.18282e-05
362 16.836 7.26655 0.285136 0 0 1.00034 4.41805e-05
368 17.392 7.46449 1.10978 0 0 1.00034 4.72553e-05
445 17.465 8.23138 0.316544 0 0 1.00035 5.21225e-05
447 18.1252 8.19044 1.03636 0 0 1.00034 5.23454e-05
366 18.2085 7.33015 0.223331 0 0 1.00035 4.49099e-05
372 18.6585 7.23183 1.15045 0 0 1.00034 4.55813e-05
370 19.3897 7.54011 0.628236 0 0 1.00034 4.60158e-05
451 19.3255 8.37506 1.18498 0 0 1.00034 5.42562e-05
449 18.8468 8.38596 0.191122 0 0 1.00034 5.19529e-05
453 20.1677 8.38146 0.367464 0 0 1.00034 5.16663e-05
376 20.2463 7.90243 1.32325 0 0 1.00034 4.96428e-05
374 21.042 7.72372 0.65712 0 0 1.00034 4.56098e-05
455 21.012 8.71687 1.04192 0 0 1.00035 5.30672e-05
380 21.8756 7.95899 1.14884 0 0 1.00034 4.58681e-05
457 21.9376 8.64063 0.267913 0 0 1.00035 4.87859e-05
459 22.8911 8.49871 1.01853 0 0 1.00034 4.55552e-05
378 22.6454 7.76915 0.388163 0 0 1.00034 4.15319e-05
384 23.726 7.62264 1.06828 0 0 1.00034 3.7811e-05
461 23.7589 8.38667 0.372843 0 0 1.00034 4.06874e-05
463 24.6055 8.40169 1.00256 0 0 1.00034 3.79823e-05
382 24.5833 7.6055 0.279794 0 0 1.00034 3.40793e-05
388 25.3622 7.67246 1.25187 0 0 1.00034 3.19227e-05
467 26.2514 8.28019 0.997094 0 0 1.00034 2.99078e-05
386 26.3032 7.52076 0.374791 0 0 1.00034 2.73386e-05
465 25.4646 8.40394 0.315491 0 0 1.00034 3.36907e-05
390 27.9031 7.20593 0.526778 0 0 1.00034 2.01085e-05
392 27.0003 7.35297 1.33823 0 0 1.00034 2.44744e-05
470 28.1523 8.71252 0.420467 0 0 1.00034 2.13974e-05
471 27.9979 8.04286 1.21408 0 0 1.00034 2.1553e-05
469 27.2045 8.01898 0.435074 0 0 1.00034 2.46766e-05
396 28.8298 7.27515 1.23112 0 0 1.00034 1.68645e-05
474 29.7695 8.50173 0.542015 0 0 1.00034 1.41056e-05
475 29.6762 7.81715 1.27959 0 0 1.00034 1.41516e-05
476 28.9559 8.73297 1.18817 0 0 1.00034 1.78843e-05
473 28.8805 7.89395 0.41728 0 0 1.00034 1.72469e-05
400 30.4945 7.18442 1.18069 0 0 1.00034 1.05029e-05
479 31.4164 7.87444 1.29743 0 0 1.00034 7.70839e-06
480 30.6002 8.58643 1.18686 0 0 1.00034 1.07352e-05
477 30.8044 7.95545 0.383554 0 0 1.00034 9.75039e-06
478 31.5926 8.66333 0.391845 0 0 1.00034 6.95239e-06
482 1.27705 10.2479 0.267895 0 0 1.00034 4.75429e-06
483 1.18403 9.34457 1.19754 0 0 1.00034 5.08929e-06
484 0.413641 9.94833 0.89937 0 0 1.00034 1.54398e-06
481 0.53047 9.34799 0.122758 0 0 1.00034 2.46492e-06
1322 0.971798 10.1072 1.74749 0 0 1.00035 4.0362e-06
485 1.92331 9.38659 0.443932 0 0 1.00034 8.07025e-06
488 1.98551 10.2878 0.966853 0 0 1.00034 8.16798e-06
486 2.75712 10.1608 0.0772068 0 0 1.00034 1.16948e-05
487 2.55023 9.34598 1.21251 0 0 1.00034 1.10601e-05
1326 2.93934 10.1029 1.66119 0 0 1.00034 1.34104e-05
489 3.25658 9.2366 0.0841404 0 0 1.00035 1.38813e-05
1329 3.40115 9.10114 1.65592 0 0 1.00034 1.53784e-05
492 3.55826 9.88864 0.734981 0 0 1.00034 1.57339e-05
491 4.13228 8.94732 0.851471 0 0 1.00034 1.81871e-05
496 4.80206 9.78473 0.564296 0 0 1.00034 2.2308e-05
1330 4.31801 9.77824 1.59602 0 0 1.00034 2.07174e-05
1333 4.89153 8.86787 1.63373 0 0 1.00034 2.27861e-05
500 6.47096 9.55382 0.509568 0 0 1.00035 3.0708e-05
1334 5.54382 9.60761 1.16722 0 0 1.00034 2.65274e-05
1337 6.39906 8.82685 1.24837 0 0 1.00035 2.98021e-05
1417 6.46562 10.2563 1.18446 0 0 1.00034 3.28168e-05
575 5.60163 10.4713 0.435901 0 0 1.00034 2.72958e-05
504 8.23999 9.66198 0.567902 0 0 1.00034 4.01169e-05
1338 7.42681 9.47372 1.1856 0 0 1.00034 3.66347e-05
1341 8.33083 8.90011 1.38546 0 0 1.00034 3.94468e-05
1421 7.92605 10.3447 1.34232 0 0 1.00034 4.22853e-05
579 7.16825 10.4123 0.460393 0 0 1.00034 3.65057e-05
501 8.38413 8.79776 0.076441 0 0 1.00035 3.73966e-05
503 9.24324 9.18889 0.715172 0 0 1.00034 4.33599e-05
508 9.94837 10.0589 0.658587 0 0 1.00034 5.01497e-05
1342 9.04309 9.95189 1.39624 0 0 1.00034 4.70351e-05
1345 10.157 9.31457 1.40492 0 0 1.00034 4.96134e-05
507 10.8064 9.44565 0.654987 0 0 1.00034 5.05486e-05
1346 10.9763 9.91841 1.61788 0 0 1.00034 5.69199e-05
1349 11.6966 9.4077 1.32073 0 0 1.00034 5.53064e-05
512 11.5412 10.3435 0.719518 0 0 1.00035 5.75466e-05
436 13.3772 8.83251 0.778331 0 0 1.00034 5.33803e-05
511 12.4701 9.62781 0.685287 0 0 1.00034 5.67098e-05
516 13.1898 10.3286 0.94738 0 0 1.00034 6.2632e-05
1353 12.9692 9.45739 1.60606 0 0 1.00034 6.07785e-05
1350 12.3522 10.3673 1.58288 0 0 1.00034 6.43045e-05
510 12.1217 10.5078 0.0208365 0 0 1.00034 5.876e-05
440 14.8688 9.14771 0.76561 0 0 1.00034 5.73827e-05
515 13.9338 9.60353 0.839658 0 0 1.00034 5.91985e-05
1354 13.9054 10.3102 1.69618 0 0 1.00034 6.8305e-05
517 14.6625 10.0787 0.214549 0 0 1.00034 6.25827e-05
1357 14.7187 9.745 1.75934 0 0 1.00034 6.63359e-05
514 13.7788 10.5683 0.0150118 0 0 1.00034 6.36988e-05
444 16.3185 9.20917 1.1304 0 0 1.00034 6.05163e-05
1278 15.5007 9.05875 1.75838 0 0 1.00035 6.19576e-05
519 15.5427 9.87491 1.01367 0 0 1.00034 6.42243e-05
521 16.0838 10.2108 0.238418 0 0 1.00034 6.49203e-05
438 15.6895 9.21565 0.116549 0 0 1.00035 5.75275e-05
523 16.9089 10.0601 0.967303 0 0 1.00034 6.68256e-05
442 16.9073 9.1449 0.262013 0 0 1.00035 5.82998e-05
448 17.5125 9.19079 1.12199 0 0 1.00034 6.08044e-05
525 17.5556 10.1658 0.195492 0 0 1.00035 6.59654e-05
527 18.1719 10.0474 1.07615 0 0 1.00034 6.68971e-05
446 18.1629 9.27929 0.119557 0 0 1.00035 5.91069e-05
452 18.7061 9.11466 0.951258 0 0 1.00034 5.9835e-05
529 18.9776 9.97292 0.305807 0 0 1.00034 6.46767e-05
531 19.8652 10.1791 0.875273 0 0 1.00034 6.54006e-05
1369 19.0524 9.83927 1.72059 0 0 1.00034 6.83162e-05
450 19.6153 9.21289 0.215429 0 0 1.00034 5.83797e-05
456 20.2023 9.24051 1.05788 0 0 1.00035 5.8825e-05
533 20.3558 10.0841 0.0684287 0 0 1.00034 6.25173e-05
535 21.2701 10.1442 0.781372 0 0 1.00035 6.08114e-05
1373 20.6003 9.99251 1.68446 0 0 1.00035 6.56304e-05