ITEM: TIMESTEP
34500
ITEM: NUMBER OF ATOMS
32000
ITEM: BOX BOUNDS pp pp pp
0.0000000000000000e+00 3.1748021039364001e+01
0.0000000000000000e+00 3.1748021039364001e+01
0.0000000000000000e+00 3.1748021039364001e+01
ITEM: ATOMS id x y z c_phase c_nbond c_rho v_omega
4 0.219225 1.10193 0.466543 0 0 1.00091 3.07922e-06
83 1.14036 1.56318 0.777742 0 0 1.00091 5.06529e-06
842 0.792871 0.718261 1.40152 0 0 1.00091 3.58265e-06
921 0.178339 1.61526 1.37702 0 0 1.00092 3.70008e-06
8088 12.5418 11.7798 15.8624 0 0 1.00106 0.00164269
8 1.78658 0.643138 1.01101 0 0 1.00091 4.57141e-06
85 1.96037 1.2912 0.205323 0 0 1.00091 5.944e-06
925 2.00505 1.44353 1.73857 0 0 1.00091 6.14005e-06
6 2.58069 0.473071 0.190244 0 0 1.00091 5.31902e-06
87 2.80819 1.25488 0.861322 0 0 1.00091 6.95876e-06
846 2.75088 0.535436 1.72502 0 0 1.00091 5.40948e-06
12 3.51197 0.556763 0.950091 0 0 1.00091 6.45282e-06
929 3.79478 1.31689 1.69228 0 0 1.00091 8.22431e-06
10 4.19226 0.434904 0.30342 0 0 1.00092 6.59752e-06
850 4.41287 0.48888 1.62269 0 0 1.00092 7.24263e-06
91 4.22289 1.40192 0.710759 0 0 1.00092 9.13073e-06
16 5.02829 0.0850382 1.12874 0 0 1.00092 6.24647e-06
93 5.11072 1.11256 0.371593 0 0 1.00092 9.08983e-06
14 5.71523 0.128616 0.296963 0 0 1.00092 6.91339e-06
95 6.03812 0.776949 0.947819 0 0 1.00092 8.60744e-06
933 5.21869 1.1872 1.43457 0 0 1.00092 9.56685e-06
934 6.14076 1.64706 1.48163 0 0 1.00092 1.14525e-05
97 6.74436 0.843419 0.212858 0 0 1.00092 8.98778e-06
937 6.80449 0.442512 1.68767 0 0 1.00092 7.82732e-06
99 7.52313 0.650401 0.945805 0 0 1.00091 8.63186e-06
941 8.32918 0.660672 1.61582 0 0 1.00091 9.19058e-06
18 7.64487 0.0801946 0.150784 0 0 1.00092 6.72222e-06
938 7.60743 1.45544 1.55959 0 0 1.00091 1.17781e-05
100 6.86203 1.60578 0.781665 0 0 1.00092 1.1841e-05
98 7.7734 1.62853 0.127701 0 0 1.00092 1.22537e-05
101 8.44152 0.812262 0.221663 0 0 1.00091 9.24268e-06
103 9.20221 0.737664 1.08149 0 0 1.00092 8.85194e-06
945 9.74905 0.416006 1.75625 0 0 1.00092 6.9954e-06
105 9.84318 0.802424 0.111829 0 0 1.00091 8.60856e-06
102 9.25506 1.52437 0.236498 0 0 1.00091 1.20805e-05
104 8.44567 1.58168 0.935823 0 0 1.00091 1.23914e-05
942 9.42049 1.60192 1.72192 0 0 1.00092 1.31127e-05
108 10.1267 1.46421 1.08156 0 0 1.00092 1.16536e-05
107 10.5394 0.545633 0.835408 0 0 1.00091 7.36798e-06
949 11.4825 0.551353 1.41616 0 0 1.00091 6.99983e-06
946 10.8984 1.18707 1.72383 0 0 1.00092 1.06062e-05
112 11.5286 1.38119 0.780506 0 0 1.00091 1.11282e-05
106 10.6734 1.57869 0.188867 0 0 1.00091 1.21891e-05
111 12.2344 0.690119 0.519475 0 0 1.00091 7.05722e-06
953 12.9706 0.845729 1.37445 0 0 1.00091 7.43552e-06
950 12.336 1.52358 1.45895 0 0 1.00092 1.1519e-05
116 13.107 1.62777 0.611805 0 0 1.00092 1.14698e-05
40 14.4374 0.177976 0.78244 0 0 1.00091 3.1011e-06
115 13.8211 0.89366 0.832102 0 0 1.00091 6.95481e-06
117 14.4052 1.35333 0.143111 0 0 1.00091 9.16741e-06
874 13.6692 0.107402 1.63316 0 0 1.00091 3.21802e-06
957 14.631 1.03277 1.48164 0 0 1.00091 7.28565e-06
954 13.8361 1.74836 1.46607 0 0 1.00092 1.15965e-05
119 15.229 1.47264 0.66816 0 0 1.00091 9.17144e-06
44 15.8884 0.763927 0.789591 0 0 1.00091 5.18293e-06
878 15.2357 0.408676 1.6353 0 0 1.00091 3.32611e-06
882 16.7103 0.821035 1.35095 0 0 1.00091 5.11405e-06
961 15.9857 1.5051 1.41278 0 0 1.00091 9.50352e-06
38 15.2401 0.634389 0.0723486 0 0 1.00091 4.4107e-06
123 16.9076 1.67966 0.69443 0 0 1.00091 9.8265e-06
48 17.4381 0.926273 0.564398 0 0 1.00091 5.54656e-06
886 18.1078 1.03536 1.42533 0 0 1.00091 6.6361e-06
47 18.1548 0.218792 0.692954 0 0 1.00091 2.54068e-06
885 17.2885 0.0337215 1.39858 0 0 1.00091 1.32135e-06
51 19.5592 0.420755 0.679129 0 0 1.00091 3.8475e-06
52 18.9628 1.10595 0.696452 0 0 1.00091 6.96886e-06
889 19.049 0.540251 1.55314 0 0 1.00091 3.85105e-06
890 19.8597 1.41771 1.69468 0 0 1.00091 9.69644e-06
55 21.224 0.883222 1.07832 0 0 1.00092 6.57152e-06
56 20.4362 1.26254 0.956336 0 0 1.00092 8.27854e-06
54 21.3686 1.32856 0.211364 0 0 1.00092 9.23864e-06
893 20.4449 0.38395 1.42196 0 0 1.00092 4.91698e-06
53 20.2851 0.366985 0.0662709 0 0 1.00092 4.7373e-06
57 22.1144 0.878291 0.539013 0 0 1.00092 7.29779e-06
59 22.9345 1.03979 1.40538 0 0 1.00092 8.0354e-06
58 23.1121 1.68457 0.47256 0 0 1.00092 1.04679e-05
17538 22.7611 0.177426 0.46273 0 0 1.00091 4.23277e-06
63 24.3768 1.00311 1.41248 0 0 1.00091 8.1149e-06
61 23.67 0.958336 0.562386 0 0 1.00091 7.75932e-06
65 25.0603 0.910584 0.525913 0 0 1.00091 7.52765e-06
17544 23.5318 0.118959 1.24625 0 0 1.00091 4.81054e-06
17542 24.3461 0.102636 0.592247 0 0 1.00091 4.87347e-06
67 26.0811 0.932381 1.15776 0 0 1.00091 6.96351e-06
68 25.3795 1.74825 1.44231 0 0 1.00091 1.00654e-05
66 26.0606 1.52581 0.417763 0 0 1.00091 8.65246e-06
17548 25.1792 0.358586 1.34935 0 0 1.00091 5.89491e-06
17546 25.9115 0.0745098 0.333304 0 0 1.00091 4.76156e-06
70 27.7656 1.73483 0.380738 0 0 1.00092 7.13043e-06
71 27.6956 0.948788 0.868105 0 0 1.00092 5.72084e-06
72 26.9076 1.55099 1.2462 0 0 1.00092 7.83501e-06
69 26.8468 0.754866 0.242669 0 0 1.00092 6.02559e-06
17552 27.0925 0.161117 0.998962 0 0 1.00092 4.38618e-06
17556 28.3504 0.0601578 0.731036 0 0 1.00092 3.18693e-06
913 28.4464 0.73434 1.41319 0 0 1.00091 4.42144e-06
76 28.7997 1.58604 0.728843 0 0 1.00092 5.36194e-06
914 29.4963 1.25187 1.56397 0 0 1.00091 4.1003e-06
917 29.8451 0.402886 1.45284 0 0 1.00091 2.30181e-06
75 29.3204 0.641202 0.616468 0 0 1.00091 3.13858e-06
841 31.6083 0.299914 1.25546 0 0 1.00091 -6.77312e-08
79 30.7609 0.610885 0.477431 0 0 1.00092 1.33453e-06
80 30.23 1.39539 0.768887 0 0 1.00092 3.02466e-06
918 30.9646 1.09057 1.38018 0 0 1.00091 1.74919e-06
82 1.35896 2.30771 0.110904 0 0 1.00091 6.56816e-06
84 0.385274 2.37484 0.802506 0 0 1.00092 4.973e-06
163 1.6069 3.05789 0.93403 0 0 1.00091 8.1221e-06
922 1.38501 2.22662 1.5832 0 0 1.00092 6.56303e-06
1001 0.6948 2.99815 1.54715 0 0 1.00091 6.14715e-06
161 0.645391 3.07575 0.123876 0 0 1.00091 6.15155e-06
88 2.16382 2.18908 0.779536 0 0 1.00091 7.60183e-06
167 3.00554 2.95789 0.849668 0 0 1.00091 1.06764e-05
926 2.92472 1.93441 1.53365 0 0 1.00091 8.5193e-06
86 2.97956 2.08139 0.0469236 0 0 1.00091 8.87709e-06
1005 2.4266 2.83728 1.74042 0 0 1.00091 9.20617e-06
1009 3.6562 3.00135 1.63935 0 0 1.00091 1.22023e-05
92 3.67009 2.17551 0.780278 0 0 1.00091 1.02029e-05
171 4.58026 2.84917 0.755998 0 0 1.00091 1.2974e-05
930 4.46549 2.17908 1.57881 0 0 1.00092 1.12834e-05
96 5.2223 2.05008 0.818084 0 0 1.00092 1.1962e-05
94 5.96957 1.89214 0.142014 0 0 1.00092 1.22085e-05
175 6.08443 2.62219 0.95137 0 0 1.00092 1.47603e-05
173 5.38916 2.78322 0.0174738 0 0 1.00091 1.43745e-05
174 6.26727 3.3264 0.161887 0 0 1.00091 1.75448e-05
176 5.40856 3.45537 1.12782 0 0 1.00091 1.64273e-05
1017 6.98169 2.43836 1.53569 0 0 1.00092 1.51168e-05
177 7.03373 2.34879 0.11596 0 0 1.00092 1.447e-05
179 7.86264 2.42224 0.88461 0 0 1.00091 1.57051e-05
180 7.04336 3.15156 0.784212 0 0 1.00091 1.77556e-05
1018 8.01118 3.18978 1.49771 0 0 1.00091 1.93891e-05
1021 8.67907 2.34605 1.6329 0 0 1.00091 1.6072e-05
181 8.74428 2.35 0.0333714 0 0 1.00092 1.55241e-05
183 9.44038 2.34866 0.930456 0 0 1.00091 1.63735e-05
1022 9.74087 3.11376 1.50019 0 0 1.00091 2.12409e-05
184 8.82655 3.19793 0.700785 0 0 1.00091 1.97307e-05
182 9.64891 3.23557 0.0437917 0 0 1.00092 2.08065e-05
185 10.0944 2.34238 0.202449 0 0 1.00092 1.62444e-05
188 10.5325 3.00026 0.871768 0 0 1.00092 1.98831e-05
187 11.1547 2.27239 0.918323 0 0 1.00092 1.56475e-05
1026 11.4037 3.05562 1.59444 0 0 1.00092 2.06524e-05
186 11.3209 3.27809 0.166839 0 0 1.00092 2.12463e-05
1025 10.5785 2.12969 1.75337 0 0 1.00092 1.54067e-05
1029 12.0364 2.3804 1.60576 0 0 1.00092 1.71946e-05
192 12.1341 3.16357 0.819713 0 0 1.00091 2.13877e-05
191 12.5007 2.26835 0.748051 0 0 1.00092 1.63592e-05
196 13.2381 3.26642 0.819019 0 0 1.00092 2.2217e-05
1033 13.5317 2.66743 1.6956 0 0 1.00092 1.78497e-05
195 13.9014 2.77051 0.842792 0 0 1.00092 1.82621e-05
120 14.5923 2.25531 0.920999 0 0 1.00092 1.44473e-05
1037 14.8405 3.18809 1.55472 0 0 1.00092 2.06797e-05
197 14.8594 3.06406 0.0417306 0 0 1.00091 1.91505e-05
114 13.9208 2.0499 0.0391587 0 0 1.00091 1.40635e-05
194 14.0525 3.46552 0.0263474 0 0 1.00091 2.25585e-05
199 15.5213 3.34017 0.868431 0 0 1.00091 2.1107e-05
958 15.3768 2.25449 1.45565 0 0 1.00091 1.47956e-05
118 15.4348 2.41525 0.123259 0 0 1.00091 1.4938e-05
124 16.2678 2.46723 0.708311 0 0 1.00091 1.48237e-05
1041 16.1938 3.28806 1.51194 0 0 1.00091 2.08012e-05
201 16.336 3.27442 0.0106965 0 0 1.00091 2.03305e-05
962 16.9278 2.60042 1.53805 0 0 1.00091 1.62007e-05
127 18.3091 1.89297 0.748991 0 0 1.00091 1.11992e-05
203 17.08 3.33043 0.668958 0 0 1.00091 2.0649e-05
965 17.6497 1.94856 1.56248 0 0 1.00091 1.15857e-05
128 17.6425 2.56925 0.671225 0 0 1.00091 1.54135e-05
1045 17.833 3.35737 1.50461 0 0 1.00091 2.04322e-05
969 19.0464 1.8947 1.49782 0 0 1.00091 1.17811e-05
207 18.6288 3.26477 0.719754 0 0 1.00091 1.93582e-05
966 18.6124 2.75929 1.60371 0 0 1.00091 1.69843e-05
131 19.9007 2.01506 0.841794 0 0 1.00091 1.19246e-05
129 19.2377 1.97289 0.0158105 0 0 1.00091 1.14389e-05
132 19.4549 2.81522 1.0192 0 0 1.00091 1.70397e-05
209 19.5602 3.46535 0.194989 0 0 1.00091 2.07536e-05
130 20.1391 2.80347 0.112977 0 0 1.00091 1.65094e-05
133 20.6973 2.0348 0.20285 0 0 1.00091 1.22913e-05
135 21.4558 2.20287 0.955575 0 0 1.00092 1.32731e-05
973 20.7478 2.31336 1.74439 0 0 1.00092 1.45087e-05
134 21.6967 3.03559 0.461765 0 0 1.00092 1.71769e-05
136 20.7782 2.99439 1.07792 0 0 1.00092 1.7907e-05
60 22.3879 1.78851 1.32915 0 0 1.00092 1.15841e-05
137 22.3308 2.2388 0.500191 0 0 1.00092 1.32283e-05
139 23.3087 2.7233 1.50382 0 0 1.00092 1.50909e-05
140 22.5719 3.16422 1.22695 0 0 1.00092 1.80011e-05
62 24.6493 1.79594 0.730884 0 0 1.00091 1.0364e-05
138 23.4375 3.30074 0.720174 0 0 1.00092 1.69632e-05
64 23.7519 1.87227 1.37837 0 0 1.00091 1.14117e-05
141 24.0391 2.48536 0.617121 0 0 1.00091 1.31115e-05
143 24.7804 2.6489 1.5612 0 0 1.00091 1.37012e-05
142 24.7942 3.36231 0.762151 0 0 1.00091 1.5914e-05
147 26.2156 2.33726 1.35458 0 0 1.00091 1.09982e-05
145 25.443 2.47656 0.532564 0 0 1.00091 1.20454e-05
146 26.1986 3.22926 0.68969 0 0 1.00091 1.34897e-05
148 25.5812 3.23777 1.51564 0 0 1.00091 1.44224e-05
149 26.8227 2.33128 0.507281 0 0 1.00091 9.80863e-06
152 26.9021 3.15587 1.52209 0 0 1.00091 1.22525e-05
151 27.7605 2.45653 1.21964 0 0 1.00092 8.62825e-06
150 27.4525 3.21214 0.623088 0 0 1.00091 1.09623e-05
153 28.5222 2.49524 0.341065 0 0 1.00092 7.50872e-06
156 28.5938 3.17119 1.18533 0 0 1.00092 8.85263e-06
993 28.7343 2.11639 1.50365 0 0 1.00092 6.67898e-06
155 29.6647 2.30994 0.874347 0 0 1.00092 5.31283e-06
154 29.5034 3.0013 0.281464 0 0 1.00092 6.68923e-06
997 30.1819 2.03716 1.69605 0 0 1.00091 4.41808e-06
159 31.1284 2.08302 0.917459 0 0 1.00092 2.68002e-06
160 30.4719 2.9008 0.990664 0 0 1.00092 4.47789e-06
239 31.3785 3.43393 0.965823 0 0 1.00092 3.74971e-06
998 31.28 2.78955 1.72291 0 0 1.00092 3.26873e-06
237 30.4766 3.45659 0.153247 0 0 1.00092 5.54514e-06
157 30.6107 2.07806 0.0332169 0 0 1.00092 3.5024e-06
158 31.4207 2.73768 0.073718 0 0 1.00092 2.81541e-06
164 0.672246 3.74653 0.909633 0 0 1.00091 6.8458e-06
241 0.583614 4.59099 0.460621 0 0 1.00091 7.44611e-06
243 1.579 4.49187 0.975326 0 0 1.00091 9.96735e-06
162 1.43135 3.72868 0.0679066 0 0 1.00091 8.36264e-06
244 0.591108 5.24358 1.27153 0 0 1.00091 8.21143e-06
1081 0.908409 4.33423 1.76329 0 0 1.00092 7.92804e-06
168 2.27112 3.7981 0.849588 0 0 1.00091 1.04434e-05
247 3.03131 4.51505 1.11255 0 0 1.00091 1.36705e-05
166 3.08992 3.80385 0.188445 0 0 1.00091 1.25045e-05
245 2.36906 4.6868 0.275916 0 0 1.00091 1.19577e-05
246 3.22611 5.21202 0.26935 0 0 1.00091 1.50925e-05
248 2.07335 5.27318 1.3556 0 0 1.00091 1.23679e-05
249 3.92806 4.4094 0.169517 0 0 1.00091 1.57024e-05
172 3.92119 3.65408 0.880653 0 0 1.00091 1.36083e-05
251 4.61764 4.35403 1.14927 0 0 1.00091 1.73783e-05
170 4.71944 3.67091 0.137942 0 0 1.00091 1.54712e-05
250 4.79474 4.91871 0.311297 0 0 1.00091 1.90329e-05
252 3.70876 5.17896 1.26695 0 0 1.00091 1.69731e-05
253 5.57096 4.15348 0.315889 0 0 1.00091 1.87982e-05
255 6.3242 4.06506 1.01762 0 0 1.00091 2.01783e-05
254 6.42846 4.74121 0.259324 0 0 1.00091 2.25326e-05
256 5.58642 4.82119 1.26294 0 0 1.00091 2.10218e-05
1097 7.30044 3.83724 1.63962 0 0 1.00091 2.14228e-05
260 7.34062 4.46341 0.850856 0 0 1.00091 2.34143e-05
259 8.06054 3.77469 0.57077 0 0 1.00091 2.19839e-05
258 8.07015 4.6306 0.0203554 0 0 1.00091 2.57335e-05
1098 8.18197 4.62836 1.48343 0 0 1.00091 2.63399e-05
1177 7.26293 5.2297 1.59612 0 0 1.00091 2.72608e-05
1101 8.94377 3.88986 1.46391 0 0 1.00091 2.36835e-05
264 9.00836 4.59389 0.698039 0 0 1.00091 2.72019e-05
263 9.84188 3.89947 0.799373 0 0 1.00091 2.45873e-05
1102 9.93986 4.6045 1.57256 0 0 1.00091 2.9323e-05
262 9.89067 4.76377 0.0143161 0 0 1.00091 2.94696e-05
268 10.6861 4.66801 0.796747 0 0 1.00091 3.00143e-05
265 10.6332 3.91645 0.108271 0 0 1.00092 2.52899e-05
1105 10.6773 3.72655 1.64886 0 0 1.00091 2.45673e-05
267 11.4487 4.03345 0.887287 0 0 1.00091 2.62382e-05
1106 11.5061 4.61797 1.74067 0 0 1.00091 3.05599e-05
266 11.4731 4.92302 0.0213264 0 0 1.00091 3.16169e-05
269 12.2528 4.21262 0.2068 0 0 1.00091 2.71648e-05
1109 12.2535 3.89697 1.68221 0 0 1.00091 2.70298e-05
272 12.3972 4.76153 1.00812 0 0 1.00091 3.16967e-05
271 13.1393 4.15108 1.02091 0 0 1.00091 2.84016e-05
270 13.0536 5.12139 0.189101 0 0 1.00091 3.31031e-05
273 13.5286 4.24481 0.0548894 0 0 1.00091 2.75017e-05
1113 13.8499 4.59684 1.70081 0 0 1.00091 3.13097e-05
275 14.2038 4.45507 0.768847 0 0 1.00092 2.99135e-05
200 14.9189 3.95435 0.695481 0 0 1.00092 2.57804e-05
1034 14.4463 3.94531 1.58794 0 0 1.00092 2.64906e-05
274 14.412 5.25696 0.0147033 0 0 1.00091 3.50497e-05
277 15.1612 4.71592 0.0856999 0 0 1.00092 3.01347e-05
1117 15.3003 4.93793 1.51274 0 0 1.00091 3.37604e-05
279 16.0559 5.01413 0.826098 0 0 1.00092 3.27003e-05
198 15.8805 4.13457 0.108414 0 0 1.00092 2.5622e-05
1038 16.0059 4.35889 1.60156 0 0 1.00092 2.79507e-05
204 16.5986 4.12388 0.894887 0 0 1.00091 2.59801e-05
281 16.8778 4.88157 0.154239 0 0 1.00091 3.02478e-05
1121 16.976 5.1485 1.6619 0 0 1.00091 3.42279e-05
1042 17.2989 4.14215 1.66939 0 0 1.00091 2.70542e-05
283 17.5949 4.84931 0.906351 0 0 1.00091 3.04224e-05
208 18.1473 4.1166 0.798457 0 0 1.00091 2.48858e-05
285 18.3979 4.94305 0.0432499 0 0 1.00091 3.02027e-05
1046 18.79 4.04399 1.6449 0 0 1.00091 2.53304e-05
287 19.044 4.93883 1.08767 0 0 1.00091 3.08512e-05
206 18.9857 4.2467 0.0794788 0 0 1.00091 2.48584e-05
212 19.6589 4.19983 0.965122 0 0 1.00091 2.50211e-05
289 19.7853 5.15074 0.354984 0 0 1.00091 3.11811e-05
213 21.0501 3.62033 0.320558 0 0 1.00092 2.11728e-05
210 20.3857 4.32877 0.257383 0 0 1.00091 2.52709e-05
211 20.4273 3.78431 1.27014 0 0 1.00091 2.27173e-05
291 20.6004 5.27903 1.12242 0 0 1.00091 3.09525e-05
216 21.1971 4.46393 1.2081 0 0 1.00091 2.54178e-05
214 21.8764 4.66124 0.51216 0 0 1.00091 2.56434e-05
215 21.9892 3.95932 1.39121 0 0 1.00092 2.15717e-05
217 22.6123 3.91375 0.603034 0 0 1.00092 2.15726e-05
16179 23.3275 4.1186 0.0318771 0 0 1.00092 2.07481e-05
220 22.6943 4.88439 1.30284 0 0 1.00091 2.62743e-05
218 23.3873 5.10785 0.545596 0 0 1.00091 2.52158e-05
144 24.1997 3.58784 1.52476 0 0 1.00091 1.79988e-05
219 23.4868 4.34041 1.39667 0 0 1.00092 2.19402e-05
223 25.0446 4.257 1.54994 0 0 1.00091 1.92478e-05
221 24.203 4.35249 0.760559 0 0 1.00091 2.06056e-05
222 24.9967 5.09876 0.63434 0 0 1.00091 2.19068e-05
228 25.6874 5.21456 1.56457 0 0 1.00091 2.09935e-05
227 26.2374 4.1573 1.5161 0 0 1.00091 1.63504e-05
229 26.6807 4.12028 0.593688 0 0 1.00091 1.49113e-05
225 25.611 4.31546 0.750901 0 0 1.00091 1.7611e-05
226 26.1544 5.1021 0.424101 0 0 1.00091 1.87129e-05
233 28.3872 3.68316 0.336607 0 0 1.00092 1.01977e-05
232 26.9351 4.92606 1.36901 0 0 1.00091 1.65624e-05
231 27.6576 3.88481 1.40499 0 0 1.00091 1.22769e-05
230 27.5845 4.60836 0.579579 0 0 1.00091 1.4296e-05
236 28.4506 4.45198 1.11509 0 0 1.00092 1.18645e-05
235 29.6234 3.57498 1.17796 0 0 1.00092 7.46497e-06
313 28.7951 5.20075 0.68905 0 0 1.00092 1.15758e-05
234 29.3635 4.13868 0.464552 0 0 1.00092 8.69388e-06
315 29.5737 4.87313 1.30444 0 0 1.00092 9.34438e-06
240 30.4163 4.27998 1.02796 0 0 1.00092 6.55633e-06
238 31.4256 4.08452 0.349729 0 0 1.00092 3.91656e-06
317 30.6659 4.89377 0.470329 0 0 1.00092 5.90582e-06
319 31.4371 4.70323 1.37725 0 0 1.00092 4.30613e-06
242 1.42721 5.38541 0.453973 0 0 1.00091 1.0274e-05
323 1.35448 6.0618 1.27437 0 0 1.00091 1.07828e-05
324 0.82902 6.8791 1.47442 0 0 1.00091 9.63847e-06
322 1.54353 6.76256 0.562214 0 0 1.00091 1.17974e-05
321 0.534936 6.00182 0.449848 0 0 1.00091 8.37766e-06
398 0.0255005 7.01591 0.601798 0 0 1.00091 7.02894e-06
328 2.29581 6.72747 1.23841 0 0 1.00091 1.4394e-05
325 2.442 5.90226 0.487613 0 0 1.00091 1.39983e-05
327 2.88282 5.80749 1.37428 0 0 1.00091 1.5566e-05
326 3.09406 6.71967 0.460248 0 0 1.00091 1.74351e-05
332 3.87415 6.46738 1.13866 0 0 1.00092 1.95642e-05
329 4.02295 5.77075 0.463259 0 0 1.00091 1.86788e-05
331 4.76418 5.51132 1.2083 0 0 1.00091 2.07142e-05
330 4.68484 6.41749 0.223513 0 0 1.00092 2.25312e-05
411 4.7069 6.99043 1.18099 0 0 1.00092 2.37903e-05
336 5.50762 6.14009 1.14666 0 0 1.00092 2.50829e-05
333 5.52226 5.60156 0.301638 0 0 1.00092 2.30771e-05
335 6.41068 5.48505 0.949783 0 0 1.00092 2.58113e-05
334 6.31772 6.28625 0.14347 0 0 1.00091 2.81084e-05
415 6.28851 6.79824 0.983049 0 0 1.00092 2.93663e-05
413 5.4451 6.96425 0.217447 0 0 1.00092 2.63218e-05
337 7.16271 5.35148 0.129615 0 0 1.00091 2.65884e-05
340 7.27937 6.05272 0.934076 0 0 1.00091 3.06227e-05
339 8.14547 5.36133 0.757919 0 0 1.00091 2.94647e-05
1178 8.1974 5.98545 1.58574 0 0 1.00091 3.35784e-05
417 7.36484 6.7469 0.130103 0 0 1.00091 3.35558e-05
419 8.24104 6.84771 0.717639 0 0 1.00091 3.71005e-05
344 8.9692 6.02161 0.69234 0 0 1.00091 3.46981e-05
1181 9.13521 5.3198 1.49237 0 0 1.00091 3.21492e-05
343 9.85058 5.42147 0.747543 0 0 1.00091 3.32347e-05
1261 9.10782 6.58205 1.53957 0 0 1.00091 3.95539e-05
423 9.98204 6.78332 0.665191 0 0 1.00091 4.15655e-05
1182 10.1233 6.135 1.45811 0 0 1.00091 3.91002e-05
1185 10.8084 5.43737 1.48654 0 0 1.00091 3.57951e-05
345 10.7599 5.55049 0.0762912 0 0 1.00091 3.52014e-05
347 11.6461 5.40061 0.904148 0 0 1.00091 3.49931e-05
346 11.6537 6.29343 0.103541 0 0 1.00091 4.16067e-05
1186 11.6551 6.2248 1.48581 0 0 1.00091 4.26365e-05
348 10.9135 6.39701 0.723549 0 0 1.00091 4.14564e-05
1265 10.883 7.00461 1.57393 0 0 1.00091 4.68686e-05
349 12.4297 5.79001 0.0423899 0 0 1.00091 3.80557e-05
352 12.5147 6.52542 0.799264 0 0 1.00091 4.49751e-05
351 12.9367 5.71949 1.04895 0 0 1.00091 3.90794e-05
1190 13.4315 6.64188 1.3682 0 0 1.00092 4.71575e-05
276 13.8325 5.42634 0.862694 0 0 1.00091 3.64577e-05
1114 14.5629 5.58492 1.58188 0 0 1.00091 3.89966e-05
355 14.6176 6.25734 0.789789 0 0 1.00091 4.28012e-05
356 14.0217 6.90092 0.589135 0 0 1.00091 4.80938e-05
1194 14.8872 7.03337 1.39603 0 0 1.00092 4.99128e-05
280 15.2639 5.55898 0.767171 0 0 1.00092 3.7832e-05
357 15.3846 6.24013 0.0255418 0 0 1.00092 4.20338e-05
1197 15.6489 6.46968 1.44563 0 0 1.00092 4.64109e-05
278 16.1483 5.60306 0.0396299 0 0 1.00092 3.62062e-05
359 16.332 6.4874 0.802068 0 0 1.00092 4.43642e-05
1118 16.3841 5.87125 1.68858 0 0 1.00092 4.07623e-05
361 16.9352 6.4613 0.0488781 0 0 1.00092 4.26869e-05
284 17.049 5.86379 0.94462 0 0 1.00092 3.83336e-05
363 17.7633 6.74309 1.14588 0 0 1.00091 4.44137e-05
282 17.7317 5.69752 0.254281 0 0 1.00091 3.5668e-05
288 18.2608 5.76452 1.22699 0 0 1.00091 3.72011e-05
365 18.3401 6.63794 0.381143 0 0 1.00091 4.31286e-05
367 18.9044 6.71567 1.32961 0 0 1.00091 4.42037e-05
286 18.9523 5.78176 0.493105 0 0 1.00091 3.63315e-05
292 19.8348 5.85192 1.19355 0 0 1.00091 3.66219e-05
369 19.5784 6.8077 0.607438 0 0 1.00091 4.28364e-05
293 21.0887 5.45412 0.358488 0 0 1.00091 3.08808e-05
290 20.5392 6.39801 0.626173 0 0 1.00091 3.82738e-05
296 21.2184 6.35896 1.37719 0 0 1.00091 3.76105e-05
295 21.7768 5.46719 1.35034 0 0 1.00091 3.14013e-05
294 21.7917 6.55543 0.638495 0 0 1.00091 3.63207e-05
297 22.5081 5.7534 0.771787 0 0 1.00091 3.06685e-05
299 23.3795 5.99773 1.28644 0 0 1.00091 3.06332e-05
300 22.6438 6.72239 1.35152 0 0 1.00091 3.62165e-05
16260 22.667 6.57554 0.0459035 0 0 1.00091 3.42139e-05
224 24.2245 5.31483 1.33655 0 0 1.00091 2.51734e-05
298 23.5563 6.7199 0.637973 0 0 1.00091 3.21278e-05
301 24.305 5.90067 0.539483 0 0 1.00091 2.64503e-05
304 24.3544 6.79368 1.27304 0 0 1.00091 3.0716e-05
302 24.976 6.85024 0.438832 0 0 1.00091 2.82836e-05
303 25.1228 6.11613 1.43941 0 0 1.00091 2.55564e-05
305 25.5842 6.00952 0.564845 0 0 1.00091 2.32888e-05
307 26.3918 5.88964 1.35536 0 0 1.00091 2.09863e-05
306 26.4278 6.62654 0.687941 0 0 1.00091 2.21318e-05
308 25.8955 6.86077 1.62353 0 0 1.00091 2.56135e-05
311 27.9192 5.45144 1.39677 0 0 1.00092 1.50965e-05
309 27.1364 5.62732 0.638455 0 0 1.00091 1.76316e-05
312 27.3613 6.54504 1.46234 0 0 1.00091 1.89423e-05
310 28.1208 6.12759 0.701523 0 0 1.00091 1.51202e-05
391 28.3353 7.05673 1.37341 0 0 1.00091 1.5954e-05
316 28.9652 6.01016 1.45218 0 0 1.00092 1.27681e-05
314 29.9151 5.64734 0.807323 0 0 1.00092 8.98211e-06
395 30.0155 6.5513 1.30922 0 0 1.00092 9.5765e-06
393 29.0907 6.70802 0.654569 0 0 1.00091 1.29135e-05
16355 29.9501 6.49183 0.0707092 0 0 1.00091 9.83556e-06
16276 29.0382 5.85799 0.0323938 0 0 1.00091 1.1684e-05
318 31.4765 5.47417 0.583256 0 0 1.00091 4.94405e-06
320 30.7441 5.67181 1.43502 0 0 1.00092 6.75146e-06
397 30.9349 6.39076 0.627214 0 0 1.00091 6.57501e-06
399 0.00311379 6.23017 1.37294 0 0 1.00091 6.57492e-06
401 0.853689 7.58811 0.634401 0 0 1.00091 9.45901e-06
402 1.46245 8.31116 0.581841 0 0 1.00091 1.21092e-05
404 0.940242 8.46818 1.44961 0 0 1.00091 9.92689e-06
478 0.265459 8.6526 0.397599 0 0 1.00091 7.36754e-06
479 0.0838508 7.89306 1.28214 0 0 1.00091 6.93954e-06
403 1.70109 7.62761 1.4637 0 0 1.00091 1.28944e-05
405 2.2062 7.48529 0.388174 0 0 1.00091 1.43852e-05
408 2.36097 8.27399 1.4483 0 0 1.00091 1.62687e-05
406 2.85426 8.20851 0.390408 0 0 1.00091 1.82574e-05
407 3.04739 7.39158 1.27298 0 0 1.00092 1.80989e-05
412 3.71767 7.97425 0.930328 0 0 1.00092 2.21651e-05
409 3.91502 7.21235 0.326317 0 0 1.00092 2.11904e-05
410 4.5371 7.81623 0.0528245 0 0 1.00092 2.49486e-05
491 4.64399 8.40278 0.842857 0 0 1.00092 2.69019e-05
1250 4.55728 7.70305 1.75445 0 0 1.00092 2.62403e-05
1329 3.90831 8.62239 1.66944 0 0 1.00091 2.41042e-05
489 3.722 8.76718 0.0991926 0 0 1.00092 2.26347e-05
1333 5.47273 8.24102 1.61494 0 0 1.00092 3.19155e-05
416 5.46759 7.53221 0.948378 0 0 1.00092 2.87301e-05
495 6.12549 8.12726 0.617306 0 0 1.00092 3.33005e-05
414 6.70447 7.51037 0.204255 0 0 1.00092 3.32266e-05
1337 7.03169 8.12048 1.22572 0 0 1.00092 3.88982e-05
420 7.30572 7.28108 1.04858 0 0 1.00092 3.52219e-05
1258 8.24963 7.18988 1.66858 0 0 1.00091 3.925e-05
499 8.08422 7.91463 0.723046 0 0 1.00092 4.08617e-05
1338 8.06696 8.71508 1.18085 0 0 1.00091 4.59919e-05
424 9.26884 7.39175 0.858098 0 0 1.00091 4.32501e-05
501 9.10411 8.08036 0.0652901 0 0 1.00091 4.58194e-05
1341 9.05498 8.15479 1.37854 0 0 1.00091 4.781e-05
503 10.0122 8.44082 0.695665 0 0 1.00091 5.22515e-05
1262 10.1701 7.68868 1.41206 0 0 1.00091 4.93094e-05
428 10.8978 7.75001 0.695464 0 0 1.00091 5.07223e-05
426 11.6015 8.03761 0.000832433 0 0 1.00091 5.35587e-05
1345 10.9913 8.57954 1.39542 0 0 1.00091 5.7872e-05
427 11.7776 7.17228 0.815847 0 0 1.00091 4.85344e-05
1266 11.8455 7.9327 1.42863 0 0 1.00091 5.60623e-05
429 12.4613 7.42667 0.0262534 0 0 1.00091 5.09619e-05
432 12.5997 8.12768 0.716105 0 0 1.00091 5.69916e-05
1269 12.6765 7.15891 1.55703 0 0 1.00091 5.20933e-05
1270 13.4247 8.09748 1.50441 0 0 1.00091 5.97577e-05
431 13.4695 7.66649 0.59804 0 0 1.00091 5.33574e-05
1273 14.2346 7.58426 1.47848 0 0 1.00091 5.71523e-05
435 14.9814 7.85281 0.534072 0 0 1.00092 5.56864e-05
436 14.3067 8.51811 0.777684 0 0 1.00091 6.20409e-05
1274 15.1117 8.61746 1.57297 0 0 1.00092 6.64692e-05
360 15.6601 7.21521 0.646892 0 0 1.00092 5.05496e-05
1277 15.7141 7.99025 1.38676 0 0 1.00092 5.84809e-05
439 16.5254 8.30039 0.884601 0 0 1.00092 5.90025e-05
1198 16.5798 7.58382 1.67558 0 0 1.00092 5.52586e-05
437 15.8682 8.30884 0.0250226 0 0 1.00092 5.8626e-05
364 16.9848 7.40831 0.864621 0 0 1.00092 4.98617e-05
441 17.2141 8.46725 0.14479 0 0 1.00092 5.78478e-05
443 17.6907 8.42902 1.08326 0 0 1.00092 5.8544e-05
362 17.7821 7.48208 0.298043 0 0 1.00091 4.97359e-05
368 18.382 7.72607 1.08892 0 0 1.00091 5.17685e-05
445 18.4132 8.55193 0.286963 0 0 1.00091 5.78233e-05
447 19.0754 8.61729 1.02786 0 0 1.00091 5.64932e-05
366 19.1348 7.72665 0.224993 0 0 1.00091 4.9675e-05
372 19.585 7.67287 1.15941 0 0 1.00091 5.08836e-05
370 20.2727 8.05025 0.613196 0 0 1.00091 4.91387e-05
371 20.5095 7.28413 1.34781 0 0 1.00092 4.53846e-05
373 21.1477 7.51629 0.599864 0 0 1.00091 4.35741e-05
376 21.1274 8.50339 1.31476 0 0 1.00091 5.09685e-05
374 21.8522 8.36199 0.608533 0 0 1.00091 4.67327e-05
375 21.8853 7.4834 1.30511 0 0 1.00091 4.28741e-05
377 22.6797 7.59016 0.670092 0 0 1.00091 3.98107e-05
380 22.6567 8.65858 1.13699 0 0 1.00091 4.57299e-05
378 23.3839 8.45299 0.393867 0 0 1.00091 4.03329e-05
379 23.6024 7.63555 1.20444 0 0 1.00091 3.73021e-05
381 24.2697 7.68827 0.298007 0 0 1.00091 3.3915e-05
384 24.3875 8.33945 1.08009 0 0 1.00091 3.61665e-05
383 25.1774 7.49758 1.18465 0 0 1.00091 2.9994e-05
382 25.1799 8.2714 0.300578 0 0 1.00091 3.16865e-05
387 26.6313 7.43213 1.40909 0 0 1.00091 2.39204e-05
385 25.9396 7.55187 0.495646 0 0 1.00091 2.61884e-05
388 25.9548 8.31433 1.23424 0 0 1.00091 2.87917e-05
389 27.4426 7.06727 0.630098 0 0 1.00091 1.91472e-05
386 26.8243 8.08397 0.384322 0 0 1.00091 2.41214e-05
390 28.3775 7.62526 0.516714 0 0 1.00091 1.6286e-05
392 27.5315 7.88786 1.31496 0 0 1.00091 2.08838e-05
469 27.7103 8.54518 0.432265 0 0 1.00091 2.04596e-05
471 28.4889 8.48275 1.21001 0 0 1.00091 1.726e-05
396 29.2729 7.59475 1.2351 0 0 1.00091 1.30433e-05
473 29.3309 8.2402 0.417664 0 0 1.00091 1.29334e-05
475 30.1243 8.06601 1.2797 0 0 1.00091 9.82952e-06
394 30.1701 7.29473 0.504228 0 0 1.00091 9.42026e-06
474 30.1989 8.77535 0.532306 0 0 1.00091 9.66954e-06
400 30.9091 7.30357 1.18089 0 0 1.00091 6.60508e-06
480 31.0185 8.71632 1.19225 0 0 1.00091 6.36777e-06
477 31.2133 8.0515 0.389114 0 0 1.00091 5.68976e-06
482 1.66486 10.032 0.252467 0 0 1.00091 1.29459e-05
483 1.60738 9.14653 1.17954 0 0 1.00091 1.28399e-05
484 0.810127 9.879 0.913829 0 0 1.00091 9.11698e-06
481 0.927656 9.25677 0.125175 0 0 1.00091 9.85523e-06
1322 1.38972 9.93394 1.73386 0 0 1.00091 1.18375e-05
559 0.0744972 9.36121 1.13575 0 0 1.00091 6.34847e-06
558 0.0281204 10.0537 0.0580284 0 0 1.00091 5.57684e-06
485 2.34394 9.09753 0.421871 0 0 1.00091 1.61359e-05
488 2.38972 9.94964 0.977146 0 0 1.00091 1.63617e-05
486 3.17404 9.73982 0.0824043 0 0 1.00092 2.02675e-05
487 3.00776 8.95873 1.18675 0 0 1.00091 1.92905e-05
567 3.1272 10.4433 0.719163 0 0 1.00092 2.03391e-05
1326 3.36535 9.6449 1.66012 0 0 1.00091 2.1813e-05
492 4.00861 9.39204 0.745539 0 0 1.00091 2.44511e-05
1330 4.83682 9.16903 1.5664 0 0 1.00091 2.97535e-05
1409 4.14261 10.0979 1.43168 0 0 1.00091 2.60754e-05
571 4.71325 10.1269 0.510072 0 0 1.00092 2.89906e-05
496 5.31253 9.17994 0.575471 0 0 1.00092 3.17246e-05
1334 6.13471 8.92381 1.1812 0 0 1.00092 3.6296e-05
575 6.13963 9.76508 0.450556 0 0 1.00091 3.75447e-05
1413 5.49067 9.89963 1.44852 0 0 1.00091 3.47584e-05
1414 6.24432 10.3989 1.21053 0 0 1.00092 3.93435e-05
500 7.05857 8.83488 0.504323 0 0 1.00092 4.01928e-05
1417 7.07593 9.51145 1.19985 0 0 1.00091 4.32242e-05
579 7.81132 9.58922 0.465653 0 0 1.00091 4.71609e-05
580 6.92884 10.3881 0.377715 0 0 1.00091 4.36428e-05
1418 7.8618 10.3765 1.11412 0 0 1.00091 5.12155e-05
1421 8.66793 9.52794 1.32163 0 0 1.00091 5.29351e-05
504 8.95675 8.9051 0.566781 0 0 1.00091 5.03272e-05
1342 9.81446 9.11434 1.38279 0 0 1.00091 5.65266e-05
583 9.76393 9.81271 0.662113 0 0 1.00091 5.88182e-05
584 8.80242 10.2854 0.675021 0 0 1.00091 5.51418e-05
1422 9.73761 10.5427 1.36646 0 0 1.00091 6.4313e-05
508 10.7303 9.31041 0.665359 0 0 1.00091 6.04819e-05
507 11.6711 8.80957 0.665477 0 0 1.00091 6.00495e-05
1425 10.7377 9.99852 1.37609 0 0 1.00091 6.76241e-05
587 11.443 10.1412 0.663787 0 0 1.00092 6.87738e-05
1346 11.8451 9.24681 1.5985 0 0 1.00091 6.61072e-05
512 12.3834 9.69809 0.720508 0 0 1.00091 6.85981e-05
1349 12.6729 8.84163 1.36849 0 0 1.00091 6.4565e-05
511 13.3784 9.14526 0.69097 0 0 1.00091 6.62583e-05
1350 13.2947 9.81635 1.58441 0 0 1.00091 7.49127e-05
510 13.0047 9.97004 0.0367962 0 0 1.00091 7.1226e-05
1429 12.4109 10.3289 1.51027 0 0 1.00091 7.61338e-05
1353 14.0265 9.07231 1.61703 0 0 1.00091 7.05561e-05
516 14.0899 9.97477 0.94371 0 0 1.00091 7.37805e-05
515 14.8947 9.37999 0.863695 0 0 1.00091 6.9409e-05
1354 14.896 10.0902 1.69869 0 0 1.00091 7.94442e-05
514 14.6737 10.2753 0.0429377 0 0 1.00091 7.60399e-05
517 15.6053 9.90992 0.215296 0 0 1.00091 7.21223e-05
440 15.8412 9.03898 0.808926 0 0 1.00092 6.55866e-05
519 16.4941 9.92593 1.02418 0 0 1.00091 7.32659e-05
438 16.5992 9.25028 0.136628 0 0 1.00092 6.4477e-05
520 15.5467 10.5427 1.02983 0 0 1.00091 7.81586e-05
521 17.0037 10.2992 0.225226 0 0 1.00091 7.27023e-05
444 17.3006 9.36478 1.13457 0 0 1.00092 6.70051e-05
523 17.829 10.3341 0.973388 0 0 1.00091 7.31713e-05
442 17.822 9.41657 0.260968 0 0 1.00092 6.47929e-05
448 18.4723 9.51042 1.08235 0 0 1.00091 6.49843e-05
525 18.4534 10.5431 0.173676 0 0 1.00092 7.04302e-05
449 19.7433 8.88762 0.221657 0 0 1.00091 5.48038e-05
527 19.0376 10.5133 1.07834 0 0 1.00091 6.96237e-05
446 19.0623 9.71642 0.115446 0 0 1.00091 6.24864e-05
452 19.6353 9.67269 0.957695 0 0 1.00091 6.36954e-05
529 19.808 10.5776 0.312108 0 0 1.00091 6.63507e-05
1369 19.9451 10.4713 1.71368 0 0 1.00091 7.04653e-05
451 20.2574 8.94562 1.18465 0 0 1.00091 5.71327e-05
453 21.0202 8.99754 0.381493 0 0 1.00091 5.36066e-05
450 20.4648 9.8338 0.228388 0 0 1.00091 5.99552e-05