ITEM: TIMESTEP
37000
ITEM: NUMBER OF ATOMS
32000
ITEM: BOX BOUNDS pp pp pp
0.0000000000000000e+00 3.1748021039364001e+01
0.0000000000000000e+00 3.1748021039364001e+01
0.0000000000000000e+00 3.1748021039364001e+01
ITEM: ATOMS id x y z c_phase c_nbond c_rho v_omega
4 0.234372 1.09619 0.46607 0 0 1.00095 2.13532e-06
83 1.16052 1.54946 0.776809 0 0 1.00095 4.1972e-06
842 0.806084 0.707207 1.39975 0 0 1.00094 2.70437e-06
921 0.199648 1.61046 1.37692 0 0 1.00095 2.74844e-06
8 1.79943 0.625719 1.0097 0 0 1.00094 3.78985e-06
85 1.97998 1.27161 0.202557 0 0 1.00094 5.16431e-06
925 2.02565 1.42133 1.73563 0 0 1.00094 5.33703e-06
6 2.59162 0.446849 0.187403 0 0 1.00094 4.61395e-06
87 2.82734 1.22809 0.858248 0 0 1.00094 6.27518e-06
846 2.76299 0.509738 1.72231 0 0 1.00094 4.7167e-06
12 3.52392 0.523273 0.947773 0 0 1.00094 5.8535e-06
929 3.8154 1.28296 1.68838 0 0 1.00094 7.64622e-06
10 4.20443 0.397976 0.30009 0 0 1.00095 6.11103e-06
850 4.42365 0.449815 1.6201 0 0 1.00095 6.76091e-06
91 4.24603 1.36315 0.709453 0 0 1.00095 8.61981e-06
16 5.03827 0.0449545 1.12354 0 0 1.00095 5.89563e-06
93 5.13163 1.07121 0.368391 0 0 1.00095 8.7177e-06
14 5.72619 0.0858794 0.292934 0 0 1.00095 6.6649e-06
95 6.05533 0.732675 0.946351 0 0 1.00095 8.38792e-06
933 5.23851 1.14249 1.43309 0 0 1.00095 9.17724e-06
934 6.16787 1.60189 1.47916 0 0 1.00095 1.12167e-05
97 6.76302 0.79846 0.210764 0 0 1.00095 8.90333e-06
937 6.81789 0.397198 1.68501 0 0 1.00095 7.72833e-06
99 7.54059 0.604338 0.943955 0 0 1.00094 8.67474e-06
941 8.34977 0.611599 1.61435 0 0 1.00094 9.31454e-06
18 7.65502 0.0331707 0.148812 0 0 1.00095 6.78978e-06
938 7.63678 1.40714 1.55707 0 0 1.00094 1.17993e-05
100 6.89186 1.55884 0.780569 0 0 1.00095 1.17529e-05
98 7.80395 1.58005 0.125427 0 0 1.00095 1.23128e-05
101 8.46265 0.7663 0.21843 0 0 1.00094 9.44113e-06
103 9.22164 0.693101 1.0776 0 0 1.00095 9.15965e-06
945 9.76778 0.373638 1.7537 0 0 1.00094 7.37074e-06
105 9.86531 0.757411 0.111654 0 0 1.00094 9.02285e-06
102 9.28812 1.48007 0.232979 0 0 1.00094 1.2419e-05
104 8.47911 1.5319 0.934545 0 0 1.00094 1.25504e-05
942 9.45657 1.55301 1.72212 0 0 1.00095 1.34255e-05
108 10.1599 1.42132 1.07804 0 0 1.00095 1.21325e-05
107 10.5594 0.50644 0.83509 0 0 1.00094 7.87524e-06
949 11.5039 0.515416 1.41444 0 0 1.00094 7.59067e-06
946 10.9307 1.15039 1.72299 0 0 1.00095 1.11625e-05
112 11.5655 1.3471 0.780236 0 0 1.00094 1.18524e-05
106 10.7103 1.53634 0.186297 0 0 1.00094 1.27454e-05
111 12.2574 0.660152 0.519194 0 0 1.00094 7.7921e-06
953 12.9973 0.816725 1.37367 0 0 1.00094 8.15533e-06
950 12.3746 1.49373 1.45708 0 0 1.00095 1.22947e-05
116 13.1508 1.60473 0.611874 0 0 1.00095 1.23888e-05
40 14.4516 0.16506 0.782181 0 0 1.00094 3.87274e-06
115 13.847 0.877277 0.829051 0 0 1.00094 7.78913e-06
117 14.4423 1.33448 0.139456 0 0 1.00094 1.00645e-05
874 13.6817 0.0862742 1.63136 0 0 1.00094 3.89526e-06
957 14.6586 1.02476 1.48145 0 0 1.00094 8.17831e-06
954 13.879 1.73089 1.46373 0 0 1.00095 1.24823e-05
119 15.2649 1.46498 0.667593 0 0 1.00094 1.01796e-05
44 15.9115 0.759888 0.789217 0 0 1.00094 6.00939e-06
878 15.2509 0.403375 1.6343 0 0 1.00094 3.9988e-06
961 16.0222 1.50407 1.41548 0 0 1.00094 1.04172e-05
38 15.2584 0.624477 0.0714278 0 0 1.00094 5.24942e-06
882 16.7318 0.82585 1.35204 0 0 1.00094 5.88754e-06
123 16.9449 1.68842 0.696073 0 0 1.00094 1.09008e-05
48 17.4624 0.937704 0.565154 0 0 1.00094 6.44793e-06
886 18.1333 1.05398 1.42549 0 0 1.00094 7.48917e-06
47 18.1654 0.23713 0.692995 0 0 1.00094 3.36471e-06
885 17.2956 0.0430996 1.39914 0 0 1.00094 1.95915e-06
51 19.5716 0.445902 0.681244 0 0 1.00094 4.73814e-06
52 18.9868 1.13123 0.697756 0 0 1.00094 8.0113e-06
889 19.0611 0.564806 1.55514 0 0 1.00094 4.59794e-06
890 19.8924 1.44717 1.69611 0 0 1.00094 1.06648e-05
55 21.2449 0.919273 1.08033 0 0 1.00095 7.6379e-06
56 20.4614 1.29418 0.954284 0 0 1.00095 9.35064e-06
54 21.3956 1.36604 0.210793 0 0 1.00095 1.05195e-05
893 20.4545 0.418185 1.42065 0 0 1.00095 5.78723e-06
53 20.2965 0.401637 0.0650882 0 0 1.00095 5.81778e-06
57 22.1351 0.919966 0.539896 0 0 1.00095 8.52168e-06
59 22.9574 1.08074 1.40602 0 0 1.00095 9.23538e-06
58 23.1392 1.72715 0.473617 0 0 1.00095 1.1899e-05
17538 22.7669 0.216239 0.461116 0 0 1.00095 5.39184e-06
63 24.3989 1.04523 1.41092 0 0 1.00094 9.43334e-06
61 23.6893 0.99874 0.560811 0 0 1.00094 9.10343e-06
17544 23.5379 0.162557 1.24561 0 0 1.00094 5.9521e-06
17542 24.3512 0.144355 0.590397 0 0 1.00094 6.16839e-06
65 25.0792 0.950151 0.523622 0 0 1.00094 8.97637e-06
67 26.0973 0.96909 1.15629 0 0 1.00094 8.41218e-06
66 26.0848 1.56577 0.416548 0 0 1.00094 1.02291e-05
17548 25.1906 0.396663 1.34753 0 0 1.00094 7.19555e-06
17546 25.9182 0.112657 0.332906 0 0 1.00094 6.2283e-06
70 27.7905 1.76316 0.379722 0 0 1.00095 8.7668e-06
71 27.7121 0.976777 0.867589 0 0 1.00095 7.28864e-06
72 26.9298 1.58525 1.24498 0 0 1.00095 9.36693e-06
69 26.8618 0.788745 0.243292 0 0 1.00095 7.59821e-06
17552 27.0989 0.193144 0.999189 0 0 1.00095 5.86289e-06
17556 28.3572 0.0835582 0.730929 0 0 1.00095 4.7456e-06
913 28.4609 0.759024 1.41392 0 0 1.00095 5.958e-06
76 28.8205 1.60661 0.728151 0 0 1.00095 6.98981e-06
914 29.5138 1.26948 1.56329 0 0 1.00094 5.68393e-06
917 29.8556 0.415566 1.45209 0 0 1.00094 3.89132e-06
75 29.333 0.65751 0.61607 0 0 1.00095 4.77059e-06
841 31.6173 0.297361 1.25479 0 0 1.00094 1.59698e-06
79 30.7736 0.614415 0.477277 0 0 1.00095 3.02325e-06
80 30.2484 1.40417 0.767952 0 0 1.00095 4.68239e-06
918 30.9803 1.09407 1.37845 0 0 1.00095 3.39106e-06
82 1.38571 2.29148 0.108047 0 0 1.00094 5.70356e-06
84 0.412791 2.36789 0.801028 0 0 1.00095 4.03904e-06
163 1.63856 3.03698 0.931721 0 0 1.00094 7.27495e-06
922 1.4111 2.21018 1.58181 0 0 1.00095 5.70464e-06
1001 0.726287 2.98934 1.54664 0 0 1.00095 5.22564e-06
161 0.677888 3.06719 0.122188 0 0 1.00095 5.21576e-06
88 2.1905 2.16542 0.778105 0 0 1.00094 6.82195e-06
167 3.03987 2.9269 0.847663 0 0 1.00094 9.98213e-06
926 2.95133 1.90635 1.53232 0 0 1.00094 7.82675e-06
86 3.00637 2.05282 0.0449576 0 0 1.00094 8.18611e-06
1005 2.45764 2.81147 1.73741 0 0 1.00094 8.43272e-06
1009 3.69414 2.96274 1.63731 0 0 1.00094 1.15659e-05
92 3.69937 2.14077 0.77889 0 0 1.00094 9.60256e-06
171 4.61631 2.80808 0.755264 0 0 1.00094 1.24743e-05
930 4.49761 2.13872 1.57774 0 0 1.00095 1.07771e-05
96 5.25278 2.00571 0.816953 0 0 1.00095 1.15656e-05
94 6.00047 1.84512 0.141133 0 0 1.00095 1.19383e-05
175 6.12492 2.57401 0.949435 0 0 1.00095 1.45036e-05
173 5.4265 2.73647 0.0175624 0 0 1.00094 1.39758e-05
174 6.31344 3.2744 0.157644 0 0 1.00094 1.72953e-05
176 5.45448 3.40847 1.122 0 0 1.00094 1.60445e-05
1017 7.02332 2.38734 1.53344 0 0 1.00095 1.50088e-05
177 7.06985 2.30078 0.112877 0 0 1.00095 1.44073e-05
179 7.90437 2.37126 0.878951 0 0 1.00094 1.57668e-05
180 7.09272 3.10081 0.783417 0 0 1.00094 1.76894e-05
1018 8.06548 3.13535 1.49611 0 0 1.00094 1.945e-05
1021 8.72264 2.29505 1.62989 0 0 1.00094 1.62684e-05
181 8.78764 2.30133 0.0309361 0 0 1.00095 1.57726e-05
183 9.48659 2.29954 0.929365 0 0 1.00094 1.67259e-05
1022 9.80025 3.06224 1.49877 0 0 1.00094 2.16537e-05
184 8.88183 3.14307 0.698701 0 0 1.00094 1.99654e-05
182 9.70838 3.18626 0.0402266 0 0 1.00095 2.12745e-05
185 10.1425 2.2986 0.200126 0 0 1.00095 1.67669e-05
188 10.5891 2.95589 0.867916 0 0 1.00095 2.05355e-05
187 11.2036 2.23141 0.917453 0 0 1.00095 1.63478e-05
1026 11.4655 3.01772 1.59401 0 0 1.00095 2.14393e-05
186 11.3854 3.23387 0.165479 0 0 1.00095 2.19979e-05
1025 10.6273 2.08977 1.74894 0 0 1.00095 1.59944e-05
1029 12.0922 2.34838 1.60848 0 0 1.00095 1.80624e-05
192 12.1996 3.12873 0.821939 0 0 1.00094 2.23954e-05
191 12.5544 2.24159 0.748698 0 0 1.00095 1.73649e-05
196 13.301 3.24267 0.819135 0 0 1.00095 2.33995e-05
1033 13.5923 2.63982 1.69626 0 0 1.00095 1.87652e-05
195 13.9676 2.75568 0.84323 0 0 1.00095 1.95066e-05
120 14.6463 2.23971 0.919652 0 0 1.00094 1.54528e-05
1037 14.9118 3.17162 1.55465 0 0 1.00095 2.17586e-05
197 14.9225 3.05215 0.0413922 0 0 1.00094 2.04506e-05
114 13.9697 2.03112 0.0353792 0 0 1.00094 1.51632e-05
194 14.1218 3.44462 0.0304144 0 0 1.00094 2.3918e-05
199 15.5951 3.33208 0.867463 0 0 1.00095 2.24304e-05
958 15.4327 2.25244 1.45841 0 0 1.00094 1.5951e-05
118 15.4898 2.40477 0.121038 0 0 1.00094 1.6091e-05
124 16.3205 2.46736 0.709907 0 0 1.00094 1.60396e-05
1041 16.2661 3.29358 1.5134 0 0 1.00094 2.21308e-05
201 16.4043 3.27355 0.00791296 0 0 1.00094 2.17214e-05
962 16.9852 2.60917 1.54076 0 0 1.00094 1.73635e-05
127 18.3502 1.91372 0.74806 0 0 1.00094 1.23429e-05
203 17.1493 3.33977 0.668061 0 0 1.00094 2.21449e-05
965 17.6921 1.95984 1.56327 0 0 1.00094 1.25084e-05
128 17.6971 2.58349 0.669652 0 0 1.00094 1.6702e-05
1045 17.8987 3.37391 1.50499 0 0 1.00094 2.17617e-05
969 19.0875 1.92101 1.49768 0 0 1.00094 1.28884e-05
207 18.6909 3.28697 0.720802 0 0 1.00094 2.08057e-05
966 18.6684 2.78139 1.6064 0 0 1.00094 1.82037e-05
131 19.939 2.04587 0.842119 0 0 1.00094 1.31346e-05
129 19.2779 1.99809 0.0181351 0 0 1.00094 1.27099e-05
132 19.5112 2.84862 1.02121 0 0 1.00094 1.84582e-05
209 19.6237 3.49864 0.196861 0 0 1.00094 2.2413e-05
130 20.1927 2.83534 0.113565 0 0 1.00094 1.8013e-05
133 20.7367 2.07011 0.202764 0 0 1.00094 1.36675e-05
135 21.4948 2.23931 0.954848 0 0 1.00095 1.45633e-05
973 20.7921 2.3499 1.74508 0 0 1.00095 1.57146e-05
136 20.8334 3.03015 1.07497 0 0 1.00095 1.93192e-05
134 21.7503 3.07859 0.463301 0 0 1.00095 1.87898e-05
60 22.4211 1.83266 1.32963 0 0 1.00095 1.28842e-05
137 22.3683 2.28235 0.497465 0 0 1.00095 1.47159e-05
139 23.3543 2.76939 1.50332 0 0 1.00095 1.65097e-05
140 22.6203 3.21011 1.22545 0 0 1.00095 1.95421e-05
62 24.6774 1.83725 0.728528 0 0 1.00094 1.18504e-05
138 23.4856 3.34936 0.719349 0 0 1.00095 1.86113e-05
64 23.784 1.91453 1.37622 0 0 1.00094 1.2759e-05
141 24.0738 2.53178 0.616941 0 0 1.00095 1.46784e-05
143 24.8196 2.69363 1.5575 0 0 1.00094 1.51736e-05
142 24.8404 3.40813 0.760407 0 0 1.00094 1.75555e-05
68 25.4074 1.79004 1.43939 0 0 1.00094 1.15011e-05
147 26.2488 2.37776 1.35476 0 0 1.00094 1.25454e-05
145 25.4782 2.51793 0.534058 0 0 1.00094 1.3652e-05
146 26.2411 3.27043 0.688425 0 0 1.00094 1.5144e-05
148 25.6243 3.28428 1.51525 0 0 1.00094 1.59915e-05
149 26.8546 2.36615 0.506496 0 0 1.00094 1.14389e-05
152 26.9413 3.19517 1.52164 0 0 1.00094 1.3825e-05
151 27.7899 2.48616 1.21835 0 0 1.00095 1.02103e-05
150 27.4913 3.24519 0.621434 0 0 1.00094 1.26298e-05
153 28.553 2.51949 0.340532 0 0 1.00095 9.1837e-06
156 28.6298 3.19601 1.18368 0 0 1.00095 1.04524e-05
993 28.7604 2.14053 1.50382 0 0 1.00095 8.25465e-06
155 29.6901 2.32399 0.873172 0 0 1.00095 6.96853e-06
154 29.5371 3.0201 0.28054 0 0 1.00095 8.38087e-06
997 30.208 2.04864 1.69472 0 0 1.00095 6.00946e-06
159 31.1535 2.08406 0.916339 0 0 1.00095 4.3393e-06
160 30.5027 2.90776 0.98957 0 0 1.00095 6.10102e-06
239 31.4142 3.43252 0.964425 0 0 1.00095 5.35286e-06
998 31.3109 2.78988 1.72216 0 0 1.00095 4.84827e-06
237 30.5139 3.46472 0.153611 0 0 1.00095 7.2193e-06
157 30.6348 2.08487 0.0332343 0 0 1.00095 5.228e-06
158 31.4506 2.736 0.0727672 0 0 1.00095 4.51474e-06
164 0.709571 3.73615 0.907802 0 0 1.00094 5.91465e-06
241 0.626345 4.58261 0.457783 0 0 1.00094 6.51162e-06
243 1.62105 4.46974 0.973373 0 0 1.00094 9.10651e-06
162 1.47019 3.71117 0.0673465 0 0 1.00094 7.48436e-06
244 0.638616 5.2327 1.27056 0 0 1.00094 7.30103e-06
1081 0.949919 4.32173 1.76171 0 0 1.00095 7.00152e-06
168 2.3122 3.77148 0.849053 0 0 1.00094 9.66046e-06
247 3.07784 4.48148 1.10989 0 0 1.00094 1.29626e-05
166 3.13217 3.77057 0.185407 0 0 1.00094 1.18003e-05
245 2.41358 4.65687 0.274234 0 0 1.00094 1.11607e-05
246 3.27676 5.17355 0.267605 0 0 1.00094 1.43721e-05
248 2.124 5.24618 1.35265 0 0 1.00094 1.15743e-05
249 3.97682 4.36798 0.168847 0 0 1.00094 1.50872e-05
172 3.96148 3.61591 0.879046 0 0 1.00094 1.30011e-05
251 4.67008 4.30724 1.14778 0 0 1.00094 1.68577e-05
170 4.76294 3.62606 0.13564 0 0 1.00094 1.49713e-05
250 4.85034 4.87031 0.308123 0 0 1.00094 1.85306e-05
252 3.76464 5.13688 1.26302 0 0 1.00094 1.63353e-05
253 5.62263 4.10288 0.312719 0 0 1.00094 1.84202e-05
255 6.38084 4.00961 1.01441 0 0 1.00094 1.9909e-05
254 6.48762 4.685 0.253708 0 0 1.00094 2.22815e-05
256 5.64529 4.76895 1.25715 0 0 1.00094 2.06357e-05
1097 7.35621 3.78238 1.63733 0 0 1.00094 2.13446e-05
260 7.4004 4.40917 0.847364 0 0 1.00094 2.33548e-05
259 8.11878 3.71956 0.571176 0 0 1.00094 2.20914e-05
258 8.13613 4.57168 0.0171362 0 0 1.00094 2.58047e-05
1098 8.25015 4.56608 1.4805 0 0 1.00094 2.63921e-05
1177 7.33406 5.16823 1.59533 0 0 1.00094 2.71484e-05
1101 9.00845 3.83333 1.46072 0 0 1.00094 2.39277e-05
264 9.07878 4.53706 0.696763 0 0 1.00094 2.75091e-05
263 9.90927 3.84786 0.796455 0 0 1.00094 2.50696e-05
1102 10.0169 4.54902 1.57046 0 0 1.00094 2.97573e-05
262 9.96931 4.70859 0.0118311 0 0 1.00094 2.99995e-05
1181 9.21369 5.25733 1.49083 0 0 1.00094 3.24298e-05
268 10.7657 4.61795 0.795701 0 0 1.00094 3.07526e-05
265 10.7017 3.87066 0.103869 0 0 1.00095 2.6034e-05
1105 10.7459 3.68075 1.6461 0 0 1.00094 2.51863e-05
267 11.5238 3.98625 0.88511 0 0 1.00094 2.70558e-05
1106 11.5915 4.57489 1.7382 0 0 1.00094 3.14129e-05
266 11.5586 4.87273 0.0208892 0 0 1.00094 3.24883e-05
269 12.3298 4.17732 0.205555 0 0 1.00094 2.82838e-05
1109 12.33 3.86135 1.68024 0 0 1.00094 2.80149e-05
272 12.4835 4.7248 1.00749 0 0 1.00094 3.28237e-05
271 13.2259 4.12338 1.02516 0 0 1.00094 2.97337e-05
270 13.1438 5.08527 0.189293 0 0 1.00094 3.43327e-05
273 13.6044 4.21659 0.0536158 0 0 1.00094 2.88067e-05
1113 13.9424 4.57236 1.7039 0 0 1.00094 3.26551e-05
275 14.287 4.43934 0.766095 0 0 1.00095 3.14913e-05
200 15.0011 3.94444 0.695193 0 0 1.00095 2.73434e-05
1034 14.529 3.92568 1.58841 0 0 1.00095 2.77758e-05
274 14.5043 5.23684 0.0107157 0 0 1.00094 3.67675e-05
277 15.2482 4.70327 0.0864887 0 0 1.00095 3.18442e-05
1117 15.391 4.92544 1.51028 0 0 1.00095 3.5337e-05
279 16.1528 5.01694 0.828803 0 0 1.00095 3.45808e-05
198 15.9608 4.13024 0.108507 0 0 1.00095 2.71883e-05
1038 16.0941 4.35578 1.6036 0 0 1.00095 2.93563e-05
204 16.6798 4.12932 0.892491 0 0 1.00094 2.75585e-05
281 16.9635 4.8907 0.149895 0 0 1.00094 3.21226e-05
1121 17.0734 5.1588 1.66542 0 0 1.00094 3.59521e-05
1042 17.3834 4.15799 1.66824 0 0 1.00094 2.86321e-05
283 17.6801 4.87189 0.90581 0 0 1.00094 3.23318e-05
208 18.224 4.13779 0.797148 0 0 1.00094 2.6573e-05
285 18.4804 4.97148 0.0456471 0 0 1.00094 3.22745e-05
1046 18.8625 4.07378 1.64282 0 0 1.00094 2.68789e-05
287 19.1269 4.97382 1.08746 0 0 1.00094 3.28141e-05
206 19.0609 4.27511 0.0806813 0 0 1.00094 2.66809e-05
212 19.729 4.23412 0.966142 0 0 1.00094 2.67501e-05
289 19.8696 5.19058 0.35586 0 0 1.00094 3.33111e-05
213 21.1113 3.6643 0.319161 0 0 1.00095 2.29238e-05
210 20.4568 4.36909 0.259416 0 0 1.00094 2.71696e-05
211 20.4963 3.82378 1.2716 0 0 1.00094 2.42972e-05
216 21.2659 4.50905 1.20467 0 0 1.00094 2.71681e-05
214 21.9485 4.71392 0.511893 0 0 1.00094 2.75772e-05
215 22.0522 4.00505 1.39287 0 0 1.00095 2.31718e-05
217 22.6727 3.96472 0.60318 0 0 1.00095 2.33331e-05
16179 23.3888 4.16897 0.0300845 0 0 1.00095 2.25968e-05
220 22.7623 4.93784 1.30239 0 0 1.00094 2.80777e-05
218 23.4573 5.16121 0.547933 0 0 1.00094 2.71352e-05
144 24.251 3.63486 1.52446 0 0 1.00094 1.95383e-05
219 23.5479 4.38983 1.3955 0 0 1.00095 2.35822e-05
221 24.2629 4.40154 0.759146 0 0 1.00094 2.23396e-05
222 25.0588 5.15119 0.634807 0 0 1.00094 2.37261e-05
223 25.0996 4.30814 1.54969 0 0 1.00094 2.08741e-05
228 25.75 5.26241 1.56032 0 0 1.00094 2.26152e-05
227 26.2878 4.20118 1.51659 0 0 1.00094 1.79426e-05
229 26.7311 4.15988 0.593979 0 0 1.00094 1.66076e-05
225 25.6636 4.35747 0.746899 0 0 1.00094 1.93039e-05
226 26.2133 5.14788 0.427393 0 0 1.00094 2.04838e-05
232 26.9898 4.96701 1.36917 0 0 1.00094 1.81831e-05
231 27.7026 3.91815 1.40403 0 0 1.00094 1.38721e-05
230 27.6355 4.6443 0.579702 0 0 1.00095 1.59848e-05
233 28.4289 3.71092 0.336714 0 0 1.00095 1.18824e-05
236 28.4988 4.48072 1.11645 0 0 1.00095 1.34587e-05
235 29.6614 3.5917 1.17798 0 0 1.00095 9.06714e-06
313 28.8448 5.22791 0.687336 0 0 1.00095 1.31764e-05
234 29.4066 4.15854 0.462697 0 0 1.00095 1.03326e-05
315 29.6208 4.89114 1.30251 0 0 1.00095 1.08685e-05
240 30.4578 4.28807 1.02794 0 0 1.00095 8.12385e-06
238 31.465 4.08479 0.34744 0 0 1.00095 5.5304e-06
317 30.7102 4.90105 0.468616 0 0 1.00095 7.46123e-06
319 31.4811 4.70219 1.37396 0 0 1.00095 5.7842e-06
242 1.47616 5.36506 0.452378 0 0 1.00094 9.40858e-06
323 1.40668 6.04007 1.27405 0 0 1.00094 9.92878e-06
324 0.882515 6.86557 1.47094 0 0 1.00094 8.73539e-06
322 1.59698 6.73823 0.56031 0 0 1.00094 1.09448e-05
321 0.588299 5.99215 0.449693 0 0 1.00094 7.45692e-06
398 0.0789334 7.00982 0.600975 0 0 1.00094 6.08527e-06
399 0.0526316 6.22649 1.37203 0 0 1.00094 5.61597e-06
328 2.35053 6.69445 1.23743 0 0 1.00094 1.35874e-05
325 2.49327 5.8701 0.483843 0 0 1.00094 1.32048e-05
327 2.94052 5.77191 1.36906 0 0 1.00094 1.48399e-05
326 3.15088 6.67758 0.45837 0 0 1.00095 1.66918e-05
332 3.93148 6.42097 1.1375 0 0 1.00095 1.89049e-05
329 4.08109 5.72407 0.458997 0 0 1.00094 1.80562e-05
331 4.82214 5.46046 1.20453 0 0 1.00094 2.01817e-05
330 4.74914 6.36431 0.221607 0 0 1.00095 2.19632e-05
411 4.77362 6.93165 1.17503 0 0 1.00095 2.31977e-05
336 5.57437 6.08148 1.14314 0 0 1.00095 2.46397e-05
333 5.5858 5.54662 0.297091 0 0 1.00095 2.26592e-05
335 6.47673 5.42305 0.947262 0 0 1.00095 2.55137e-05
334 6.38886 6.22196 0.140985 0 0 1.00094 2.77779e-05
415 6.36183 6.73358 0.978682 0 0 1.00095 2.90078e-05
413 5.51639 6.90458 0.214333 0 0 1.00095 2.58297e-05
337 7.23203 5.29277 0.125948 0 0 1.00094 2.64609e-05
340 7.35393 5.98601 0.926927 0 0 1.00094 3.04453e-05
339 8.21881 5.29822 0.756392 0 0 1.00094 2.95222e-05
1178 8.27827 5.91701 1.5831 0 0 1.00094 3.36024e-05
417 7.44456 6.68123 0.124736 0 0 1.00094 3.34088e-05
419 8.32589 6.77401 0.713412 0 0 1.00094 3.70925e-05
344 9.05247 5.95577 0.687954 0 0 1.00094 3.49281e-05
343 9.93508 5.36235 0.748106 0 0 1.00094 3.37402e-05
1261 9.20068 6.51107 1.53643 0 0 1.00094 3.97648e-05
423 10.0769 6.71922 0.664315 0 0 1.00094 4.20925e-05
1182 10.2134 6.07254 1.45658 0 0 1.00094 3.96059e-05
1185 10.9015 5.38213 1.48758 0 0 1.00094 3.65062e-05
345 10.8472 5.49781 0.0725948 0 0 1.00094 3.59799e-05
348 11.0077 6.33404 0.722185 0 0 1.00094 4.219e-05
1265 10.9888 6.93988 1.5726 0 0 1.00094 4.7537e-05
347 11.7359 5.35578 0.898142 0 0 1.00094 3.60176e-05
346 11.7514 6.24499 0.0988651 0 0 1.00094 4.27666e-05
1186 11.7579 6.17449 1.4846 0 0 1.00094 4.36286e-05
349 12.5258 5.74864 0.0378587 0 0 1.00094 3.93413e-05
352 12.6197 6.48176 0.79675 0 0 1.00094 4.63799e-05
351 13.0365 5.68324 1.04965 0 0 1.00094 4.04473e-05
1190 13.5455 6.60796 1.36552 0 0 1.00095 4.87337e-05
276 13.932 5.40195 0.863501 0 0 1.00094 3.80421e-05
1114 14.667 5.56877 1.58398 0 0 1.00094 4.06979e-05
355 14.7248 6.23814 0.790559 0 0 1.00094 4.48158e-05
356 14.1335 6.87602 0.588846 0 0 1.00094 5.009e-05
1194 15.0057 7.01644 1.4008 0 0 1.00095 5.20237e-05
280 15.3658 5.54954 0.76586 0 0 1.00095 3.97898e-05
357 15.4898 6.23193 0.0239811 0 0 1.00095 4.42718e-05
1197 15.759 6.45935 1.44974 0 0 1.00095 4.84863e-05
278 16.2439 5.60206 0.0390982 0 0 1.00095 3.82683e-05
359 16.4399 6.49409 0.80285 0 0 1.00095 4.6786e-05
1118 16.4897 5.87725 1.69001 0 0 1.00095 4.27612e-05
361 17.0397 6.47288 0.0484827 0 0 1.00095 4.51867e-05
284 17.1517 5.87663 0.947401 0 0 1.00095 4.04663e-05
363 17.8687 6.76859 1.14583 0 0 1.00094 4.68457e-05
282 17.8253 5.72146 0.251951 0 0 1.00094 3.79513e-05
288 18.3575 5.79214 1.22487 0 0 1.00094 3.92923e-05
365 18.445 6.66676 0.378567 0 0 1.00094 4.57639e-05
367 19.0067 6.75256 1.32546 0 0 1.00094 4.66539e-05
286 19.0482 5.81796 0.488449 0 0 1.00094 3.86817e-05
292 19.9243 5.89679 1.19338 0 0 1.00094 3.88355e-05
369 19.6793 6.85307 0.60666 0 0 1.00094 4.552e-05
291 20.6807 5.32309 1.12513 0 0 1.00094 3.29034e-05
293 21.1721 5.5037 0.360868 0 0 1.00094 3.30528e-05
290 20.6327 6.44577 0.627085 0 0 1.00094 4.06655e-05
296 21.3077 6.41512 1.37734 0 0 1.00094 3.97684e-05
295 21.8557 5.52134 1.34714 0 0 1.00094 3.33382e-05
294 21.8803 6.61323 0.638829 0 0 1.00094 3.86157e-05
297 22.5897 5.81098 0.770249 0 0 1.00094 3.27257e-05
300 22.7292 6.78359 1.35033 0 0 1.00094 3.82534e-05
16260 22.7515 6.63602 0.045642 0 0 1.00094 3.65143e-05
299 23.4596 6.05677 1.28806 0 0 1.00094 3.25181e-05
224 24.2935 5.36677 1.33657 0 0 1.00094 2.69037e-05
298 23.6338 6.78234 0.636983 0 0 1.00094 3.42352e-05
301 24.3736 5.95911 0.540865 0 0 1.00094 2.84142e-05
304 24.4304 6.85731 1.2733 0 0 1.00094 3.25896e-05
302 25.0502 6.90803 0.441792 0 0 1.00094 3.01934e-05
303 25.1913 6.1725 1.44116 0 0 1.00094 2.7281e-05
305 25.6504 6.06056 0.565504 0 0 1.00094 2.51099e-05
307 26.4561 5.93947 1.35689 0 0 1.00094 2.26374e-05
306 26.495 6.67669 0.687899 0 0 1.00094 2.3859e-05
308 25.9652 6.91595 1.6199 0 0 1.00094 2.72526e-05
311 27.9746 5.48761 1.39698 0 0 1.00095 1.66428e-05
309 27.1958 5.66892 0.638553 0 0 1.00094 1.93194e-05
312 27.4222 6.5898 1.46277 0 0 1.00094 2.04943e-05
310 28.1787 6.16336 0.700665 0 0 1.00094 1.67118e-05
316 29.0211 6.0383 1.45053 0 0 1.00095 1.42273e-05
314 29.9652 5.66412 0.806216 0 0 1.00095 1.04815e-05
395 30.069 6.56935 1.30861 0 0 1.00095 1.09593e-05
393 29.1481 6.73642 0.655624 0 0 1.00094 1.44096e-05
16355 30.0044 6.50847 0.0698918 0 0 1.00094 1.1366e-05
16276 29.0908 5.88476 0.0304544 0 0 1.00094 1.33034e-05
318 31.5255 5.47319 0.58166 0 0 1.00094 6.44333e-06
320 30.7936 5.6787 1.43238 0 0 1.00095 8.15507e-06
397 30.9858 6.39629 0.625158 0 0 1.00094 8.01528e-06
401 0.90915 7.57372 0.63121 0 0 1.00094 8.53787e-06
402 1.52194 8.28802 0.577748 0 0 1.00095 1.12426e-05
404 0.994775 8.44952 1.44729 0 0 1.00094 9.01823e-06
478 0.321047 8.64309 0.398357 0 0 1.00095 6.43517e-06
479 0.138114 7.88758 1.28011 0 0 1.00094 6.01843e-06
403 1.75568 7.59911 1.46011 0 0 1.00094 1.20337e-05
405 2.26341 7.45334 0.388752 0 0 1.00094 1.35555e-05
408 2.42108 8.23564 1.44685 0 0 1.00095 1.54587e-05
406 2.91678 8.16517 0.388834 0 0 1.00095 1.75108e-05
407 3.10778 7.34961 1.27153 0 0 1.00095 1.73428e-05
412 3.78398 7.92223 0.928223 0 0 1.00095 2.14951e-05
409 3.97779 7.16038 0.324899 0 0 1.00095 2.05067e-05
410 4.60507 7.75796 0.0489919 0 0 1.00095 2.4298e-05
491 4.71174 8.3392 0.840342 0 0 1.00095 2.62496e-05
1250 4.6267 7.64426 1.75155 0 0 1.00095 2.5623e-05
1329 3.97452 8.5651 1.66904 0 0 1.00095 2.3395e-05
489 3.78466 8.71055 0.0985513 0 0 1.00095 2.18645e-05
1333 5.54792 8.17021 1.61221 0 0 1.00095 3.13798e-05
416 5.53901 7.46815 0.948597 0 0 1.00095 2.82094e-05
495 6.19892 8.05731 0.611679 0 0 1.00095 3.28077e-05
414 6.7811 7.43985 0.205496 0 0 1.00095 3.28664e-05
1337 7.11239 8.04329 1.22154 0 0 1.00095 3.85555e-05
420 7.38893 7.20448 1.04814 0 0 1.00095 3.49701e-05
1258 8.33693 7.11292 1.66506 0 0 1.00094 3.91572e-05
499 8.16852 7.8366 0.722938 0 0 1.00095 4.06843e-05
1338 8.15 8.63411 1.17868 0 0 1.00094 4.57057e-05
500 7.1354 8.75576 0.502015 0 0 1.00095 3.97452e-05
424 9.35681 7.31924 0.855118 0 0 1.00094 4.34176e-05
501 9.19551 8.0045 0.0611996 0 0 1.00094 4.58959e-05
1341 9.14678 8.07698 1.37616 0 0 1.00094 4.78492e-05
503 10.109 8.36257 0.691475 0 0 1.00094 5.25398e-05
1262 10.2665 7.61137 1.40744 0 0 1.00094 4.96678e-05
428 11.0007 7.68509 0.69459 0 0 1.00094 5.1491e-05
1345 11.0952 8.5049 1.39223 0 0 1.00094 5.84439e-05
507 11.7783 8.74593 0.66468 0 0 1.00094 6.10547e-05
427 11.8802 7.11706 0.813272 0 0 1.00094 4.96426e-05
1266 11.9569 7.87554 1.42874 0 0 1.00094 5.71917e-05
429 12.5667 7.37633 0.0234834 0 0 1.00094 5.23958e-05
432 12.7066 8.07664 0.714819 0 0 1.00094 5.85276e-05
1269 12.7858 7.1139 1.554 0 0 1.00094 5.35103e-05
1349 12.7915 8.78871 1.37402 0 0 1.00094 6.61015e-05
1270 13.5391 8.0587 1.50487 0 0 1.00094 6.16029e-05
431 13.5785 7.62895 0.597475 0 0 1.00094 5.52113e-05
1273 14.3508 7.55805 1.47991 0 0 1.00094 5.93638e-05
436 14.4187 8.49055 0.777839 0 0 1.00094 6.46098e-05
435 15.0958 7.83969 0.540001 0 0 1.00095 5.83232e-05
1274 15.231 8.6068 1.57652 0 0 1.00095 6.94308e-05
360 15.7724 7.20877 0.651178 0 0 1.00095 5.30699e-05
1277 15.8343 7.98277 1.39069 0 0 1.00095 6.12133e-05
439 16.6447 8.30812 0.888918 0 0 1.00095 6.22477e-05
1198 16.6991 7.59762 1.68134 0 0 1.00095 5.79384e-05
437 15.9814 8.30095 0.0313896 0 0 1.00095 6.1793e-05
364 17.0935 7.41863 0.861726 0 0 1.00095 5.26512e-05
441 17.3256 8.48356 0.145429 0 0 1.00095 6.13648e-05
443 17.8048 8.4543 1.08223 0 0 1.00095 6.18343e-05
362 17.8925 7.51 0.299512 0 0 1.00094 5.27618e-05
368 18.4967 7.75737 1.08747 0 0 1.00094 5.45902e-05
445 18.5236 8.5888 0.285595 0 0 1.00094 6.14814e-05
447 19.1848 8.6648 1.0276 0 0 1.00094 5.98102e-05
366 19.2437 7.77087 0.224534 0 0 1.00094 5.28158e-05
372 19.6927 7.72181 1.16009 0 0 1.00094 5.37919e-05
370 20.3758 8.10679 0.614021 0 0 1.00094 5.21353e-05
371 20.6097 7.33946 1.34982 0 0 1.00094 4.79118e-05
373 21.2437 7.57328 0.599682 0 0 1.00094 4.61501e-05
376 21.2293 8.56611 1.31525 0 0 1.00094 5.3534e-05
374 21.948 8.42805 0.604633 0 0 1.00094 4.94233e-05
375 21.9793 7.5489 1.30547 0 0 1.00094 4.52116e-05
377 22.7679 7.65735 0.670254 0 0 1.00094 4.21832e-05
380 22.7489 8.73059 1.13727 0 0 1.00094 4.81289e-05
378 23.4727 8.52226 0.396273 0 0 1.00094 4.26736e-05
379 23.6859 7.70352 1.20513 0 0 1.00094 3.93642e-05
381 24.35 7.75191 0.301332 0 0 1.00094 3.60239e-05
384 24.4673 8.41202 1.08253 0 0 1.00094 3.81813e-05
383 25.2516 7.5626 1.1874 0 0 1.00094 3.18275e-05
382 25.2549 8.33745 0.304348 0 0 1.00094 3.36869e-05
387 26.7013 7.48778 1.41055 0 0 1.00094 2.55153e-05
385 26.0087 7.60635 0.496786 0 0 1.00094 2.80265e-05
388 26.0275 8.37673 1.23425 0 0 1.00094 3.04895e-05
391 28.393 7.09247 1.37502 0 0 1.00094 1.74065e-05
389 27.5056 7.11156 0.629634 0 0 1.00094 2.07641e-05
386 26.8906 8.13708 0.386951 0 0 1.00094 2.5837e-05
392 27.5979 7.93754 1.31411 0 0 1.00094 2.23505e-05
469 27.7745 8.59372 0.43297 0 0 1.00094 2.20116e-05
390 28.4383 7.66241 0.516859 0 0 1.00094 1.77972e-05
471 28.5507 8.5221 1.21124 0 0 1.00094 1.86476e-05
396 29.3297 7.62156 1.23697 0 0 1.00094 1.44186e-05
473 29.3887 8.26882 0.418788 0 0 1.00094 1.43355e-05
475 30.1821 8.08449 1.28034 0 0 1.00094 1.10635e-05
394 30.2249 7.3142 0.503712 0 0 1.00094 1.08303e-05
474 30.2546 8.79651 0.532029 0 0 1.00094 1.09691e-05
400 30.9628 7.3087 1.18151 0 0 1.00094 7.89198e-06
480 31.0728 8.72196 1.1935 0 0 1.00094 7.56004e-06
477 31.2666 8.05344 0.389813 0 0 1.00094 6.99669e-06
483 1.66334 9.11798 1.17692 0 0 1.00094 1.1978e-05
484 0.863038 9.8634 0.914804 0 0 1.00094 8.20069e-06
481 0.980342 9.23992 0.124579 0 0 1.00094 8.89549e-06
1322 1.44584 9.90659 1.73222 0 0 1.00094 1.09556e-05
559 0.127579 9.35449 1.13573 0 0 1.00094 5.42228e-06
558 0.0806844 10.0481 0.0594929 0 0 1.00094 4.63529e-06
482 1.71748 9.9995 0.250081 0 0 1.00094 1.20236e-05
485 2.40014 9.05854 0.418318 0 0 1.00094 1.52492e-05
488 2.44474 9.90509 0.977804 0 0 1.00095 1.54592e-05
486 3.23087 9.68674 0.0828331 0 0 1.00095 1.93578e-05
487 3.06867 8.90974 1.1827 0 0 1.00094 1.84635e-05
567 3.18123 10.3926 0.718645 0 0 1.00095 1.93764e-05
1326 3.42221 9.58911 1.65954 0 0 1.00095 2.09202e-05
492 4.06959 9.33239 0.745364 0 0 1.00095 2.36121e-05
1330 4.90454 9.09889 1.56267 0 0 1.00094 2.89689e-05
1409 4.20098 10.0346 1.42954 0 0 1.00095 2.51262e-05
571 4.77191 10.0566 0.505327 0 0 1.00095 2.80657e-05
496 5.37962 9.11092 0.576391 0 0 1.00095 3.09789e-05
1334 6.21178 8.84694 1.18017 0 0 1.00095 3.57549e-05
575 6.2127 9.68478 0.449964 0 0 1.00095 3.68262e-05
1413 5.558 9.82078 1.44494 0 0 1.00095 3.39255e-05
1414 6.31436 10.3138 1.20587 0 0 1.00095 3.8449e-05
1417 7.15691 9.42841 1.19976 0 0 1.00094 4.26376e-05
579 7.89675 9.49978 0.463863 0 0 1.00094 4.66649e-05
580 7.00522 10.3001 0.374478 0 0 1.00094 4.28486e-05
1418 7.94401 10.2815 1.11267 0 0 1.00094 5.05036e-05
1421 8.76358 9.44051 1.31831 0 0 1.00094 5.25973e-05
504 9.04915 8.82393 0.564986 0 0 1.00094 5.02715e-05
1342 9.91386 9.02773 1.37961 0 0 1.00094 5.65825e-05
583 9.85822 9.72925 0.659451 0 0 1.00094 5.87273e-05
584 8.88679 10.1969 0.669671 0 0 1.00094 5.46058e-05
1422 9.82811 10.4493 1.36463 0 0 1.00094 6.38924e-05
508 10.8298 9.23363 0.663407 0 0 1.00094 6.08851e-05
1425 10.8387 9.91423 1.37712 0 0 1.00094 6.77994e-05
587 11.5426 10.0664 0.662133 0 0 1.00095 6.93179e-05
1346 11.9531 9.17918 1.59539 0 0 1.00094 6.70064e-05
512 12.49 9.63385 0.719612 0 0 1.00094 6.99196e-05
1350 13.4096 9.76448 1.58604 0 0 1.00094 7.67806e-05
510 13.1152 9.91719 0.0375641 0 0 1.00094 7.31297e-05
1429 12.5176 10.2642 1.50862 0 0 1.00094 7.72296e-05
511 13.4901 9.09928 0.691555 0 0 1.00094 6.83126e-05
1353 14.1519 9.03906 1.61906 0 0 1.00094 7.29107e-05
516 14.1997 9.94332 0.944078 0 0 1.00094 7.65768e-05
515 15.0103 9.36194 0.866549 0 0 1.00094 7.27141e-05
1354 15.0136 10.0742 1.69982 0 0 1.00094 8.28016e-05
514 14.7826 10.2485 0.0454498 0 0 1.00094 7.9634e-05
517 15.7177 9.89719 0.215932 0 0 1.00094 7.60964e-05
440 15.9568 9.03344 0.814969 0 0 1.00095 6.90672e-05
519 16.6051 9.93614 1.0262 0 0 1.00094 7.7667e-05
438 16.7059 9.25786 0.138826 0 0 1.00095 6.84682e-05
520 15.6581 10.5334 1.03187 0 0 1.00094 8.23962e-05
521 17.1125 10.3129 0.225474 0 0 1.00094 7.77199e-05
444 17.4151 9.38703 1.13704 0 0 1.00095 7.09596e-05
523 17.9354 10.3675 0.974751 0 0 1.00094 7.79985e-05
442 17.9284 9.44777 0.261825 0 0 1.00094 6.91238e-05
448 18.5829 9.54868 1.07885 0 0 1.00094 6.88747e-05
525 18.5571 10.5869 0.172698 0 0 1.00094 7.55626e-05
449 19.8474 8.94282 0.226112 0 0 1.00094 5.83356e-05
527 19.1365 10.5655 1.08021 0 0 1.00094 7.40687e-05
446 19.1669 9.76585 0.116093 0 0 1.00094 6.67373e-05
452 19.7417 9.73477 0.959748 0 0 1.00094 6.74819e-05
1369 20.0459 10.5415 1.71526 0 0 1.00094 7.41593e-05
451 20.3644 9.00815 1.18591 0 0 1.00094 6.02561e-05
453 21.1201 9.0633 0.384309 0 0 1.00094 5.68037e-05
450 20.5633 9.89956 0.231194 0 0 1.00094 6.36904e-05
456 21.1508 10.0161 1.03337 0 0 1.00094 6.21498e-05
455 21.9421 9.48234 1.06104 0 0 1.00094 5.56719e-05
454 21.9677 10.1747 0.223518 0 0 1.00094 5.68752e-05