ITEM: TIMESTEP
4500
ITEM: NUMBER OF ATOMS
32000
ITEM: BOX BOUNDS pp pp pp
0.0000000000000000e+00 3.1748021039364001e+01
0.0000000000000000e+00 3.1748021039364001e+01
0.0000000000000000e+00 3.1748021039364001e+01
ITEM: ATOMS id x y z c_phase c_nbond c_rho v_omega
4 0.131612 1.10321 0.465174 0 0 1.0001 1.23804e-06
83 0.992877 1.66333 0.778559 0 0 1.0001 3.00738e-06
842 0.727709 0.790244 1.41235 0 0 1.0001 1.63747e-06
921 0.0226286 1.60458 1.37524 0 0 1.0001 1.58975e-06
3 0.737506 0.0602863 0.616328 0 0 1.0001 8.31793e-07
8 1.72342 0.800318 1.01495 0 0 1.0001 2.8594e-06
85 1.81931 1.46534 0.220417 0 0 1.0001 3.91665e-06
925 1.84179 1.64939 1.75988 0 0 1.0001 4.23288e-06
6 2.53335 0.733612 0.203691 0 0 1.0001 3.73777e-06
7 2.59814 0.0387476 1.03672 0 0 1.0001 2.73278e-06
87 2.66774 1.52488 0.881793 0 0 1.0001 5.14964e-06
846 2.68304 0.800092 1.74402 0 0 1.0001 4.02039e-06
12 3.4474 0.912394 0.95688 0 0 1.0001 5.06412e-06
849 3.50568 0.0708527 1.70526 0 0 1.0001 3.62881e-06
929 3.62766 1.68477 1.71859 0 0 1.0001 6.8013e-06
10 4.12109 0.834265 0.324025 0 0 1.0001 5.6028e-06
16 4.97569 0.539217 1.17114 0 0 1.0001 5.74611e-06
93 4.94067 1.57128 0.383594 0 0 1.0001 8.05558e-06
850 4.35967 0.916373 1.62928 0 0 1.0001 6.07881e-06
9 3.48323 0.0897853 0.171297 0 0 1.0001 3.64145e-06
14 5.66024 0.614514 0.323856 0 0 1.0001 6.37251e-06
95 5.90399 1.27966 0.939389 0 0 1.0001 8.29549e-06
97 6.59652 1.35886 0.218209 0 0 1.0001 8.99588e-06
854 5.79595 0.428547 1.69817 0 0 1.0001 6.06599e-06
933 5.05257 1.69278 1.43531 0 0 1.0001 8.62336e-06
20 6.72434 0.358956 0.865928 0 0 1.0001 6.21528e-06
937 6.70895 0.976051 1.69319 0 0 1.0001 8.0852e-06
24 8.27728 0.374953 1.07079 0 0 1.0001 6.50999e-06
99 7.38833 1.18897 0.952691 0 0 1.0001 8.99122e-06
101 8.26998 1.35579 0.23627 0 0 1.0001 9.88666e-06
941 8.15168 1.23645 1.60704 0 0 1.0001 9.63965e-06
18 7.59638 0.616176 0.142307 0 0 1.0001 7.21611e-06
22 8.87002 0.474731 0.271198 0 0 1.0001 6.79272e-06
28 9.56389 0.304935 0.889134 0 0 1.0001 6.02066e-06
103 9.04771 1.27332 1.10962 0 0 1.0001 9.81504e-06
945 9.59723 0.93983 1.76279 0 0 1.0001 8.65603e-06
105 9.66383 1.33997 0.0912962 0 0 1.0001 1.0069e-05
32 11.2196 0.188796 0.633403 0 0 1.0001 4.83719e-06
107 10.3852 1.01782 0.823351 0 0 1.0001 8.68612e-06
866 10.5301 0.166649 1.445 0 0 1.0001 5.09041e-06
949 11.3091 0.990077 1.41733 0 0 1.0001 8.44374e-06
946 10.6114 1.64684 1.72802 0 0 1.0001 1.17876e-05
26 10.2537 0.336517 0.0773594 0 0 1.0001 5.88922e-06
36 12.8847 0.194193 0.636711 0 0 1.0001 3.99926e-06
111 12.0671 1.05119 0.507854 0 0 1.0001 8.36009e-06
870 12.1414 0.293599 1.29952 0 0 1.0001 4.82033e-06
953 12.7463 1.17793 1.37256 0 0 1.0001 8.90475e-06
40 14.3838 0.311803 0.766214 0 0 1.0001 3.93021e-06
115 13.6166 1.0989 0.84365 0 0 1.0001 8.11569e-06
117 14.075 1.54827 0.165313 0 0 1.0001 1.03906e-05
874 13.6198 0.346637 1.63441 0 0 1.0001 4.38406e-06
957 14.4048 1.14278 1.47707 0 0 1.0001 8.2012e-06
119 14.9111 1.54956 0.663533 0 0 1.0001 1.02238e-05
44 15.7263 0.771932 0.788109 0 0 1.0001 6.01475e-06
123 16.5859 1.5535 0.682328 0 0 1.0001 1.0249e-05
878 15.1563 0.462607 1.64073 0 0 1.0001 4.51871e-06
882 16.5654 0.721085 1.34232 0 0 1.0001 5.82827e-06
961 15.6667 1.4894 1.39236 0 0 1.0001 1.00575e-05
38 15.1222 0.708536 0.0677626 0 0 1.0001 5.64352e-06
48 17.2744 0.745829 0.549367 0 0 1.0001 6.02185e-06
127 17.9576 1.60163 0.75715 0 0 1.0001 1.07963e-05
886 17.9353 0.763395 1.42742 0 0 1.0001 6.413e-06
965 17.2591 1.76399 1.56344 0 0 1.0001 1.18748e-05
51 19.5424 0.0439018 0.663596 0 0 1.0001 3.72424e-06
52 18.8097 0.7506 0.685791 0 0 1.0001 6.58032e-06
131 19.5718 1.58508 0.842485 0 0 1.0001 1.1205e-05
889 19.0345 0.184681 1.54521 0 0 1.0001 4.03012e-06
890 19.6165 0.999035 1.69087 0 0 1.0001 8.43979e-06
969 18.6922 1.53766 1.50062 0 0 1.0001 1.08729e-05
55 21.105 0.38603 1.0681 0 0 1.0001 6.1816e-06
56 20.2669 0.809978 0.978922 0 0 1.0001 7.62447e-06
135 21.1365 1.69166 0.955023 0 0 1.0001 1.21459e-05
54 21.204 0.801962 0.218686 0 0 1.0001 8.01712e-06
133 20.3758 1.54801 0.196468 0 0 1.0001 1.11933e-05
57 22.0198 0.302537 0.539905 0 0 1.0001 6.35106e-06
59 22.8061 0.470561 1.40625 0 0 1.0001 7.40098e-06
60 22.1343 1.18992 1.3308 0 0 1.0001 1.0141e-05
137 22.0266 1.6407 0.536727 0 0 1.0001 1.19296e-05
58 22.9359 1.11071 0.449419 0 0 1.0001 9.71076e-06
63 24.2444 0.420957 1.44658 0 0 1.0001 7.43697e-06
61 23.5792 0.395849 0.575097 0 0 1.0001 7.18181e-06
62 24.4569 1.22455 0.754855 0 0 1.0001 9.95342e-06
64 23.501 1.29006 1.402 0 0 1.0001 1.05603e-05
65 24.9665 0.353798 0.551484 0 0 1.0001 7.09608e-06
67 26.0186 0.417993 1.17165 0 0 1.0001 7.00884e-06
68 25.1879 1.1656 1.47884 0 0 1.0001 9.61065e-06
66 25.9083 0.966778 0.431791 0 0 1.0001 8.49377e-06
70 27.5923 1.3097 0.38929 0 0 1.0001 7.94241e-06
71 27.6256 0.536873 0.874687 0 0 1.0001 6.28007e-06
72 26.772 1.06184 1.26282 0 0 1.0001 8.19012e-06
913 28.3864 0.363009 1.40044 0 0 1.0001 5.37122e-06
69 26.8016 0.272102 0.228092 0 0 1.0001 6.24338e-06
76 28.6665 1.264 0.741578 0 0 1.0001 6.67201e-06
914 29.4042 0.966344 1.56904 0 0 1.0001 5.40615e-06
993 28.5435 1.7454 1.49925 0 0 1.0001 7.84291e-06
917 29.8229 0.188329 1.4609 0 0 1.0001 3.72056e-06
75 29.2835 0.373086 0.615782 0 0 1.0001 4.4939e-06
841 31.5966 0.269204 1.25657 0 0 1.0001 1.9618e-06
79 30.7134 0.497982 0.471752 0 0 1.0001 3.18687e-06
80 30.1162 1.2123 0.77445 0 0 1.0001 4.84997e-06
918 30.8789 0.980305 1.39378 0 0 1.0001 3.64569e-06
82 1.13499 2.43029 0.128683 0 0 1.0001 4.14108e-06
84 0.157483 2.38366 0.812109 0 0 1.0001 2.55342e-06
163 1.31729 3.22898 0.948677 0 0 1.0001 5.40162e-06
922 1.16387 2.35533 1.59126 0 0 1.0001 4.12794e-06
1001 0.41457 3.03102 1.54964 0 0 1.0001 3.58209e-06
161 0.360388 3.09688 0.131846 0 0 1.0001 3.5408e-06
88 1.93491 2.40669 0.78402 0 0 1.0001 5.39569e-06
167 2.68891 3.26252 0.860292 0 0 1.0001 8.03856e-06
926 2.69441 2.21367 1.53455 0 0 1.0001 6.38678e-06
1009 3.29237 3.40221 1.6496 0 0 1.0001 9.62589e-06
86 2.75061 2.36511 0.0556693 0 0 1.0001 6.6524e-06
92 3.40932 2.53344 0.779936 0 0 1.0001 8.04406e-06
91 4.0298 1.81617 0.711337 0 0 1.0001 7.54135e-06
96 4.94266 2.54216 0.815995 0 0 1.0001 1.04999e-05
171 4.23557 3.28988 0.749786 0 0 1.0001 1.10349e-05
930 4.164 2.61459 1.58213 0 0 1.0001 9.56596e-06
94 5.68109 2.41134 0.133774 0 0 1.0001 1.11628e-05
100 6.58837 2.14675 0.773905 0 0 1.0001 1.14673e-05
175 5.68732 3.16162 0.953279 0 0 1.0001 1.34005e-05
934 5.89029 2.16275 1.49544 0 0 1.0001 1.08796e-05
1017 6.56318 3.02866 1.5535 0 0 1.0001 1.45854e-05
177 6.68693 2.89339 0.13319 0 0 1.0001 1.3937e-05
98 7.48601 2.19014 0.139412 0 0 1.0001 1.24351e-05
104 8.11788 2.1651 0.931052 0 0 1.0001 1.29393e-05
179 7.44364 3.02778 0.931309 0 0 1.0001 1.5562e-05
938 7.3309 2.02425 1.56801 0 0 1.0001 1.19587e-05
1021 8.23174 2.96028 1.65038 0 0 1.0001 1.65772e-05
181 8.31357 2.93194 0.0395887 0 0 1.0001 1.60483e-05
102 8.93921 2.05317 0.25191 0 0 1.0001 1.28495e-05
108 9.80892 1.98939 1.10711 0 0 1.0001 1.3037e-05
183 8.97214 2.93326 0.928904 0 0 1.0001 1.68615e-05
942 9.06811 2.18357 1.70447 0 0 1.0001 1.39075e-05
185 9.60897 2.86915 0.211366 0 0 1.0001 1.6859e-05
106 10.3209 2.08058 0.212195 0 0 1.0001 1.34449e-05
112 11.1936 1.79917 0.77139 0 0 1.0001 1.22432e-05
187 10.6708 2.7736 0.920821 0 0 1.0001 1.71372e-05
1029 11.4967 2.80076 1.57755 0 0 1.0001 1.79853e-05
116 12.7131 1.92101 0.595021 0 0 1.0001 1.27e-05
191 11.9782 2.61686 0.741187 0 0 1.0001 1.66007e-05
950 11.964 1.89454 1.46571 0 0 1.0001 1.28481e-05
1033 12.9069 2.9959 1.68941 0 0 1.0001 1.95992e-05
195 13.2453 3.00843 0.845509 0 0 1.0001 1.90414e-05
954 13.4224 1.97584 1.48038 0 0 1.0001 1.31663e-05
120 14.0715 2.43375 0.925484 0 0 1.0001 1.55807e-05
1037 14.099 3.37203 1.55663 0 0 1.0001 2.21191e-05
199 14.7673 3.42971 0.882286 0 0 1.0001 2.20005e-05
958 14.8366 2.29479 1.44535 0 0 1.0001 1.49812e-05
118 14.8934 2.5085 0.137585 0 0 1.0001 1.58646e-05
197 14.2207 3.21237 0.0362811 0 0 1.0001 2.01862e-05
114 13.4598 2.2797 0.0584852 0 0 1.0001 1.45457e-05
124 15.7493 2.44465 0.695384 0 0 1.0001 1.55098e-05
203 16.3705 3.2087 0.667141 0 0 1.0001 2.04141e-05
962 16.363 2.4875 1.52589 0 0 1.0001 1.62635e-05
1041 15.4432 3.2571 1.50295 0 0 1.0001 2.1337e-05
201 15.6355 3.25954 0.02245 0 0 1.0001 2.0642e-05
128 17.115 2.36612 0.683559 0 0 1.0001 1.51189e-05
207 18.0026 2.94986 0.702376 0 0 1.0001 1.87902e-05
966 18.0706 2.46146 1.58411 0 0 1.0001 1.6258e-05
1045 17.1571 3.13166 1.49724 0 0 1.0001 2.04808e-05
132 18.9389 2.38718 1.01419 0 0 1.0001 1.55989e-05
211 19.7611 3.27749 1.279 0 0 1.0001 2.12151e-05
209 18.9403 3.02651 0.195662 0 0 1.0001 1.91981e-05
130 19.6339 2.37113 0.103853 0 0 1.0001 1.54064e-05
973 20.3614 1.82346 1.72724 0 0 1.0001 1.30261e-05
134 21.2024 2.45733 0.458581 0 0 1.0001 1.58977e-05
136 20.243 2.50308 1.11371 0 0 1.0001 1.64171e-05
215 21.3678 3.34277 1.3922 0 0 1.0001 2.09665e-05
213 20.4739 3.03466 0.334586 0 0 1.0001 1.90934e-05
139 22.9098 2.1112 1.51213 0 0 1.0001 1.41871e-05
138 23.0116 2.64776 0.735962 0 0 1.0001 1.61642e-05
140 22.135 2.5428 1.23936 0 0 1.0001 1.63214e-05
217 22.038 3.24664 0.602393 0 0 1.0001 1.96519e-05
16179 22.7331 3.44738 0.0725262 0 0 1.0001 1.99514e-05
141 23.7712 1.85115 0.624559 0 0 1.0001 1.24289e-05
143 24.4581 2.03063 1.6083 0 0 1.0001 1.30489e-05
142 24.3799 2.72698 0.77629 0 0 1.0001 1.54043e-05
144 23.7305 2.9481 1.53764 0 0 1.0001 1.72785e-05
16108 24.993 2.88493 0.0164566 0 0 1.0001 1.52052e-05
147 25.9551 1.77382 1.35761 0 0 1.0001 1.08612e-05
149 26.5727 1.82852 0.512361 0 0 1.0001 1.02437e-05
145 25.1594 1.89537 0.512377 0 0 1.0001 1.17545e-05
146 25.8257 2.65124 0.707719 0 0 1.0001 1.34811e-05
148 25.1947 2.60123 1.52508 0 0 1.0001 1.43264e-05
152 26.5671 2.59965 1.53084 0 0 1.0001 1.25588e-05
151 27.5278 2.01662 1.23735 0 0 1.0001 9.66772e-06
153 28.2737 2.11671 0.344899 0 0 1.0001 8.78585e-06
150 27.1179 2.72657 0.644762 0 0 1.0001 1.18446e-05
231 27.2383 3.3906 1.41711 0 0 1.0001 1.34948e-05
156 28.2826 2.78567 1.20568 0 0 1.0001 1.0221e-05
233 28.0152 3.251 0.329815 0 0 1.0001 1.15373e-05
997 29.9785 1.82459 1.70766 0 0 1.0001 6.04542e-06
155 29.4694 2.06348 0.881155 0 0 1.0001 6.99766e-06
154 29.222 2.68268 0.290753 0 0 1.0001 8.37164e-06
235 29.2817 3.28599 1.17633 0 0 1.0001 9.34384e-06
159 30.9325 1.9927 0.924519 0 0 1.0001 4.7992e-06
160 30.2081 2.72541 1.00239 0 0 1.0001 6.83033e-06
239 31.0549 3.35912 0.972723 0 0 1.0001 6.12896e-06
998 31.0126 2.70336 1.72692 0 0 1.0001 5.59064e-06
237 30.1413 3.27179 0.136315 0 0 1.0001 7.64353e-06
157 30.4318 1.92023 0.0272769 0 0 1.0001 5.4024e-06
158 31.1687 2.67013 0.0768835 0 0 1.0001 5.19059e-06
164 0.326697 3.78461 0.91942 0 0 1.0001 4.06157e-06
241 0.179335 4.59772 0.481486 0 0 1.0001 4.32262e-06
243 1.17628 4.66263 0.987235 0 0 1.0001 6.61291e-06
244 0.129123 5.2693 1.27779 0 0 1.0001 4.60229e-06
162 1.07423 3.85688 0.0621142 0 0 1.0001 5.57208e-06
168 1.87786 4.03258 0.84761 0 0 1.0001 7.468e-06
247 2.58005 4.83629 1.13518 0 0 1.0001 1.02372e-05
166 2.68611 4.1255 0.206211 0 0 1.0001 9.3654e-06
245 1.93688 4.95285 0.279567 0 0 1.0001 8.66509e-06
249 3.4505 4.83484 0.162206 0 0 1.0001 1.23785e-05
172 3.53083 4.05149 0.885852 0 0 1.0001 1.11712e-05
176 4.9548 3.96783 1.17988 0 0 1.0001 1.42673e-05
251 4.0938 4.84845 1.14718 0 0 1.0001 1.42655e-05
170 4.29959 4.15351 0.147921 0 0 1.0001 1.30681e-05
253 5.05626 4.70441 0.33886 0 0 1.0001 1.62294e-05
174 5.81781 3.90121 0.196011 0 0 1.0001 1.57343e-05
180 6.53872 3.72835 0.774471 0 0 1.0001 1.66055e-05
255 5.73455 4.69339 1.02663 0 0 1.0001 1.80966e-05
1097 6.7185 4.46841 1.64444 0 0 1.0001 2.00569e-05
260 6.73591 5.08744 0.881941 0 0 1.0001 2.18372e-05
184 8.25363 3.84718 0.702353 0 0 1.0001 1.99877e-05
259 7.4638 4.41666 0.548402 0 0 1.0001 2.08889e-05
1018 7.45213 3.82709 1.49802 0 0 1.0001 1.89708e-05
1101 8.26499 4.56292 1.48594 0 0 1.0001 2.37145e-05
264 8.2803 5.26537 0.695776 0 0 1.0001 2.63708e-05
188 9.95424 3.5407 0.886252 0 0 1.0001 2.06325e-05
263 9.14334 4.52111 0.821227 0 0 1.0001 2.46098e-05
265 9.92849 4.46439 0.127246 0 0 1.0001 2.5265e-05
1022 9.13372 3.72169 1.49919 0 0 1.0001 2.11507e-05
1105 9.94077 4.30443 1.65668 0 0 1.0001 2.54242e-05
182 9.04231 3.82605 0.0619789 0 0 1.0001 2.0863e-05
268 9.84559 5.27422 0.793821 0 0 1.0001 2.98522e-05
1102 9.12817 5.27696 1.595 0 0 1.0001 2.92794e-05
192 11.4713 3.6121 0.783495 0 0 1.0001 2.21527e-05
267 10.6627 4.62181 0.906358 0 0 1.0001 2.74963e-05
269 11.4621 4.65804 0.227796 0 0 1.0001 2.8185e-05
1026 10.7688 3.53318 1.5896 0 0 1.0001 2.17888e-05
1109 11.4416 4.34041 1.7042 0 0 1.0001 2.75183e-05
272 11.4759 5.23533 0.990391 0 0 1.0001 3.24294e-05
186 10.6479 3.81042 0.175117 0 0 1.0001 2.25432e-05
196 12.5777 3.55853 0.814521 0 0 1.0001 2.22982e-05
271 12.2695 4.52038 1.00038 0 0 1.0001 2.86009e-05
1113 12.8379 4.96382 1.68968 0 0 1.0001 3.30816e-05
275 13.3108 4.66305 0.800327 0 0 1.0001 2.99442e-05
273 12.7191 4.59118 0.0617561 0 0 1.0001 2.8839e-05
200 14.0704 4.11259 0.697382 0 0 1.0001 2.63627e-05
1034 13.5684 4.19971 1.59399 0 0 1.0001 2.78236e-05
1117 14.2996 5.10097 1.52326 0 0 1.0001 3.4706e-05
279 15.0359 5.00724 0.81281 0 0 1.0001 3.32149e-05
277 14.2294 4.88756 0.0659147 0 0 1.0001 3.16503e-05
198 15.0403 4.18665 0.100477 0 0 1.0001 2.68634e-05
1038 15.057 4.40892 1.59519 0 0 1.0001 2.97693e-05
204 15.7477 4.06843 0.92506 0 0 1.0001 2.65157e-05
281 15.9651 4.77791 0.187742 0 0 1.0001 3.11921e-05
283 16.6812 4.59428 0.90236 0 0 1.0001 3.02227e-05
1042 16.4029 3.96958 1.68999 0 0 1.0001 2.67636e-05
1121 15.9129 5.05329 1.64356 0 0 1.0001 3.50161e-05
208 17.345 3.85088 0.812092 0 0 1.0001 2.48343e-05
287 18.1686 4.51561 1.09908 0 0 1.0001 2.96626e-05
1046 18.0264 3.66461 1.65713 0 0 1.0001 2.43111e-05
285 17.5362 4.59795 0.0183519 0 0 1.0001 2.97576e-05
206 18.208 3.87815 0.0628231 0 0 1.0001 2.46646e-05
212 18.944 3.73961 0.953853 0 0 1.0001 2.3967e-05
289 18.9048 4.64368 0.363023 0 0 1.0001 2.9732e-05
291 19.7668 4.71737 1.09086 0 0 1.0001 3.02429e-05
210 19.6644 3.80274 0.232125 0 0 1.0001 2.38435e-05
216 20.5041 3.8656 1.23598 0 0 1.0001 2.43506e-05
295 20.9597 4.76863 1.39563 0 0 1.0001 2.97943e-05
297 21.6563 5.00535 0.80908 0 0 1.0001 2.9703e-05
214 21.15 3.97854 0.514508 0 0 1.0001 2.41722e-05
293 20.2171 4.8295 0.350826 0 0 1.0001 3.00353e-05
219 22.8776 3.67968 1.42096 0 0 1.0001 2.14846e-05
220 22.0039 4.18425 1.31274 0 0 1.0001 2.50025e-05
299 22.5459 5.23105 1.27817 0 0 1.0001 2.99126e-05
218 22.6774 4.39802 0.517189 0 0 1.0001 2.47443e-05
223 24.5207 3.56103 1.55888 0 0 1.0001 1.8834e-05
221 23.6251 3.68588 0.782753 0 0 1.0001 2.01946e-05
222 24.3899 4.37357 0.627422 0 0 1.0001 2.18093e-05
224 23.529 4.60231 1.33676 0 0 1.0001 2.48805e-05
301 23.6145 5.12146 0.53516 0 0 1.0001 2.6526e-05
228 25.065 4.54949 1.62208 0 0 1.0001 2.17088e-05
227 25.7635 3.54254 1.51507 0 0 1.0001 1.66837e-05
229 26.2108 3.5425 0.599157 0 0 1.0001 1.55586e-05
225 25.1086 3.72186 0.800694 0 0 1.0001 1.80815e-05
307 25.7479 5.19135 1.3462 0 0 1.0001 2.20746e-05
232 26.4051 4.33435 1.37369 0 0 1.0001 1.77486e-05
309 26.5532 5.01819 0.64313 0 0 1.0001 1.90444e-05
226 25.5799 4.44873 0.393279 0 0 1.0001 1.95835e-05
311 27.3775 4.91068 1.40668 0 0 1.0001 1.69088e-05
236 28.0009 4.00832 1.10593 0 0 1.0001 1.32882e-05
313 28.3194 4.76823 0.707062 0 0 1.0001 1.38773e-05
230 27.1083 4.07988 0.574104 0 0 1.0001 1.52691e-05
234 28.9668 3.79625 0.486308 0 0 1.0001 1.06998e-05
315 29.1263 4.54885 1.33065 0 0 1.0001 1.16961e-05
240 30.0323 4.08623 1.02577 0 0 1.0001 8.92012e-06
238 31.063 3.98449 0.371885 0 0 1.0001 6.64568e-06
317 30.2433 4.69695 0.489167 0 0 1.0001 9.03788e-06
319 31.0156 4.61078 1.40886 0 0 1.0001 7.35773e-06
242 0.950067 5.52503 0.46234 0 0 1.0001 6.67371e-06
248 1.57456 5.49937 1.37928 0 0 1.0001 8.39954e-06
323 0.839006 6.21194 1.27736 0 0 1.0001 6.82215e-06
324 0.301264 6.91988 1.50686 0 0 1.0001 5.4901e-06
322 1.01629 6.9361 0.573002 0 0 1.0001 7.55035e-06
321 0.0195252 6.00033 0.447925 0 0 1.0001 4.54773e-06
328 1.75267 7.01154 1.23975 0 0 1.0001 1.00494e-05
325 1.93885 6.18305 0.517446 0 0 1.0001 9.92504e-06
252 3.15414 5.59285 1.29929 0 0 1.0001 1.30289e-05
327 2.3124 6.13421 1.41056 0 0 1.0001 1.12123e-05
332 3.30501 6.93107 1.13098 0 0 1.0001 1.53811e-05
246 2.72665 5.58802 0.273795 0 0 1.0001 1.15645e-05
329 3.44563 6.2487 0.498206 0 0 1.0001 1.47537e-05
250 4.23938 5.42861 0.325436 0 0 1.0001 1.56917e-05
256 4.98787 5.38991 1.31392 0 0 1.0001 1.81075e-05
331 4.18602 6.05812 1.22826 0 0 1.0001 1.70699e-05
333 4.8817 6.19246 0.332305 0 0 1.0001 1.94296e-05
336 4.8323 6.75781 1.16014 0 0 1.0001 2.08618e-05
330 4.05591 6.98344 0.223257 0 0 1.0001 1.80655e-05
254 5.83662 5.37459 0.300102 0 0 1.0001 2.019e-05
335 5.75053 6.19222 0.962141 0 0 1.0001 2.26063e-05
1177 6.52563 5.93356 1.59766 0 0 1.0001 2.48375e-05
340 6.50208 6.81421 1.00391 0 0 1.0001 2.73254e-05
337 6.44529 5.99851 0.152553 0 0 1.0001 2.39886e-05
334 5.61114 6.99988 0.148143 0 0 1.0001 2.40708e-05
339 7.39432 6.10274 0.755058 0 0 1.0001 2.75705e-05
1098 7.4599 5.36514 1.49343 0 0 1.0001 2.53449e-05
1181 8.31366 6.05454 1.49418 0 0 1.0001 3.0932e-05
344 8.09401 6.79479 0.727638 0 0 1.0001 3.28399e-05
1178 7.35791 6.79974 1.59745 0 0 1.0001 3.1154e-05
258 7.39208 5.3092 0.0437488 0 0 1.0001 2.4214e-05
343 8.96159 6.13328 0.737273 0 0 1.0001 3.23801e-05
1185 9.82691 6.13275 1.47069 0 0 1.0001 3.56372e-05
1182 9.17941 6.89068 1.46314 0 0 1.0001 3.79824e-05
345 9.84543 6.18175 0.0948531 0 0 1.0001 3.46312e-05
262 9.07196 5.41873 0.0167431 0 0 1.0001 2.87938e-05
347 10.6758 5.97368 0.960949 0 0 1.0001 3.58089e-05
349 11.4081 6.32443 0.0764195 0 0 1.0001 3.89349e-05
346 10.6155 6.89081 0.151472 0 0 1.0001 4.0859e-05
1186 10.5679 6.87088 1.49629 0 0 1.0001 4.22865e-05
270 12.0887 5.5883 0.18351 0 0 1.0001 3.51146e-05
276 12.7734 5.78303 0.862689 0 0 1.0001 3.77131e-05
351 11.8742 6.16794 1.05345 0 0 1.0001 3.94903e-05
274 13.4139 5.51486 0.0427045 0 0 1.0001 3.58071e-05
1114 13.4312 5.83993 1.56108 0 0 1.0001 3.99584e-05
355 13.4618 6.5503 0.810764 0 0 1.0001 4.41285e-05
280 14.1641 5.70043 0.774748 0 0 1.0001 3.81451e-05
1197 14.4406 6.63346 1.41229 0 0 1.0001 4.70812e-05
357 14.2378 6.36742 0.0393139 0 0 1.0001 4.28751e-05
278 15.1227 5.63395 0.0373072 0 0 1.0001 3.75524e-05
284 15.9354 5.74142 0.955907 0 0 1.0001 3.92496e-05
359 15.1576 6.44522 0.807456 0 0 1.0001 4.45408e-05
363 16.6035 6.46724 1.14541 0 0 1.0001 4.5348e-05
1118 15.22 5.86878 1.69909 0 0 1.0001 4.17396e-05
282 16.7175 5.43315 0.276534 0 0 1.0001 3.60608e-05
361 15.7861 6.34226 0.0422945 0 0 1.0001 4.32413e-05
286 17.9231 5.33238 0.541823 0 0 1.0001 3.52247e-05
288 17.2116 5.44536 1.2491 0 0 1.0001 3.72215e-05
365 17.1734 6.29607 0.411636 0 0 1.0001 4.28647e-05
367 17.7741 6.2764 1.38446 0 0 1.0001 4.38927e-05
292 18.8756 5.31399 1.20263 0 0 1.0001 3.52425e-05
369 18.4772 6.26645 0.614682 0 0 1.0001 4.19173e-05
290 19.5252 5.80059 0.622831 0 0 1.0001 3.74922e-05
371 19.4306 6.60657 1.3501 0 0 1.0001 4.46528e-05
373 20.0947 6.80298 0.612807 0 0 1.0001 4.37258e-05
294 20.8403 5.82768 0.654021 0 0 1.0001 3.58719e-05
296 20.2804 5.66086 1.39812 0 0 1.0001 3.65915e-05
375 20.8746 6.67203 1.30694 0 0 1.0001 4.22972e-05
377 21.7459 6.72688 0.671724 0 0 1.0001 3.95573e-05
300 21.7457 5.9367 1.3841 0 0 1.0001 3.57754e-05
16260 21.774 5.78956 0.0560816 0 0 1.0001 3.37042e-05
298 22.7491 5.89171 0.670984 0 0 1.0001 3.23432e-05
379 22.715 6.75954 1.20978 0 0 1.0001 3.76523e-05
305 24.9126 5.30804 0.568396 0 0 1.0001 2.42316e-05
381 23.4267 6.8421 0.272791 0 0 1.0001 3.49535e-05
303 24.4258 5.34775 1.43649 0 0 1.0001 2.62661e-05
304 23.5565 5.9491 1.29901 0 0 1.0001 3.11701e-05
383 24.3929 6.63095 1.16449 0 0 1.0001 3.13767e-05
302 24.2127 6.06487 0.428364 0 0 1.0001 2.91428e-05
306 25.7446 5.91686 0.700728 0 0 1.0001 2.39904e-05
308 25.1771 6.10033 1.67698 0 0 1.0001 2.72836e-05
385 25.226 6.79961 0.497099 0 0 1.0001 2.85077e-05
387 25.8935 6.65714 1.40961 0 0 1.0001 2.62982e-05
312 26.7459 5.89705 1.47667 0 0 1.0001 2.12336e-05
310 27.5476 5.58606 0.722532 0 0 1.0001 1.76121e-05
389 26.8053 6.4169 0.651654 0 0 1.0001 2.18432e-05
391 27.7534 6.51652 1.36794 0 0 1.0001 1.90631e-05
316 28.4125 5.55868 1.48514 0 0 1.0001 1.53266e-05
390 27.7645 7.05307 0.531026 0 0 1.0001 1.95931e-05
314 29.4311 5.33452 0.818351 0 0 1.0001 1.1852e-05
395 29.484 6.21161 1.32291 0 0 1.0001 1.28259e-05
394 29.6261 6.93013 0.508933 0 0 1.0001 1.28014e-05
393 28.5183 6.24312 0.642098 0 0 1.0001 1.57602e-05
16355 29.4213 6.17742 0.0800477 0 0 1.0001 1.27699e-05
16276 28.5277 5.42386 0.0587562 0 0 1.0001 1.43831e-05
318 31.0047 5.37744 0.595756 0 0 1.0001 7.82607e-06
320 30.2593 5.47702 1.46677 0 0 1.0001 9.92421e-06
397 30.4391 6.19985 0.649719 0 0 1.0001 9.78482e-06
399 31.2622 6.16314 1.38484 0 0 1.0001 7.6025e-06
398 31.2462 6.96231 0.605181 0 0 1.0001 7.65961e-06
401 0.308381 7.63264 0.661538 0 0 1.0001 5.44642e-06
402 0.88109 8.45671 0.617783 0 0 1.0001 7.2894e-06
403 1.15904 7.85026 1.49659 0 0 1.0001 8.37191e-06
404 0.4037 8.55938 1.47043 0 0 1.0001 5.61932e-06
405 1.64177 7.7479 0.3737 0 0 1.0001 9.89354e-06
408 1.77472 8.59772 1.46441 0 0 1.0001 1.08877e-05
326 2.53581 7.12309 0.475172 0 0 1.0001 1.27182e-05
406 2.24462 8.6055 0.400067 0 0 1.0001 1.25523e-05
407 2.44559 7.78439 1.27841 0 0 1.0001 1.31068e-05
412 3.0691 8.48004 0.936892 0 0 1.0001 1.612e-05
409 3.2966 7.73377 0.327521 0 0 1.0001 1.62132e-05
410 3.87046 8.41593 0.080293 0 0 1.0001 1.94275e-05
411 4.03769 7.6204 1.24324 0 0 1.0001 1.93902e-05
416 4.76448 8.20811 0.925995 0 0 1.0001 2.34158e-05
413 4.73277 7.59112 0.244304 0 0 1.0001 2.18622e-05
414 5.93801 8.28759 0.171722 0 0 1.0001 2.87585e-05
415 5.54982 7.53179 1.02778 0 0 1.0001 2.54807e-05
417 6.56211 7.48292 0.168039 0 0 1.0001 2.93049e-05
420 6.46999 8.16451 1.04431 0 0 1.0001 3.14678e-05
419 7.36396 7.70158 0.746865 0 0 1.0001 3.37312e-05
424 8.36608 8.24377 0.869925 0 0 1.0001 4.04822e-05
1258 7.35832 8.10441 1.69905 0 0 1.0001 3.65366e-05
1261 8.13861 7.42003 1.55968 0 0 1.0001 3.69455e-05
421 8.08054 7.54109 0.0261634 0 0 1.0001 3.57443e-05
348 9.93017 7.16007 0.726205 0 0 1.0001 4.08645e-05
423 9.00073 7.55104 0.662739 0 0 1.0001 3.96521e-05
428 9.82774 8.54755 0.694807 0 0 1.0001 4.83306e-05
1262 9.18195 8.61982 1.4456 0 0 1.0001 4.72163e-05
1265 9.74642 7.81732 1.59851 0 0 1.0001 4.57424e-05
352 11.4129 7.09189 0.809926 0 0 1.0001 4.46872e-05
427 10.6752 7.87914 0.842908 0 0 1.0001 4.78416e-05
1266 10.6917 8.63917 1.42919 0 0 1.0001 5.41373e-05
1269 11.513 7.75348 1.60168 0 0 1.0001 5.15529e-05
429 11.3323 8.06131 0.0434617 0 0 1.0001 5.04308e-05
432 11.4777 8.78393 0.731132 0 0 1.0001 5.63375e-05
356 12.8176 7.25102 0.569778 0 0 1.0001 4.84423e-05
431 12.2892 8.18128 0.594222 0 0 1.0001 5.43713e-05
1190 12.1835 7.11344 1.38112 0 0 1.0001 4.7858e-05
1270 12.2032 8.62505 1.49496 0 0 1.0001 5.98316e-05
1273 12.9766 7.95788 1.47861 0 0 1.0001 5.64576e-05
360 14.4445 7.33605 0.595313 0 0 1.0001 5.127e-05
435 13.7338 8.06601 0.471988 0 0 1.0001 5.62537e-05
1194 13.5848 7.30847 1.34912 0 0 1.0001 5.16837e-05
1277 14.3771 8.15329 1.35711 0 0 1.0001 6.00258e-05
362 16.5519 7.19708 0.28283 0 0 1.0001 5.03283e-05
364 15.7527 7.30967 0.916536 0 0 1.0001 5.20374e-05
439 15.199 8.2838 0.867011 0 0 1.0001 6.02923e-05
443 16.3902 8.17127 1.11243 0 0 1.0001 6.00677e-05
1198 15.2678 7.51611 1.63667 0 0 1.0001 5.60885e-05
441 15.9839 8.31374 0.154769 0 0 1.0001 5.9749e-05
372 18.3875 7.09287 1.14105 0 0 1.0001 4.9494e-05
368 17.1002 7.38077 1.11856 0 0 1.0001 5.29998e-05
445 17.185 8.12991 0.336923 0 0 1.0001 5.79101e-05
447 17.8318 8.0605 1.03454 0 0 1.0001 5.77978e-05
366 17.9319 7.20167 0.220376 0 0 1.0001 4.95403e-05
370 19.12 7.38457 0.641894 0 0 1.0001 4.97051e-05
451 19.0464 8.20561 1.18807 0 0 1.0001 5.75592e-05
376 19.9831 7.71648 1.32798 0 0 1.0001 5.19935e-05
453 19.9117 8.19802 0.365145 0 0 1.0001 5.38052e-05
449 18.5693 8.23435 0.180459 0 0 1.0001 5.67605e-05
374 20.8004 7.52415 0.671866 0 0 1.0001 4.7103e-05
455 20.7563 8.50816 1.0398 0 0 1.0001 5.4451e-05
380 21.6409 7.74322 1.1522 0 0 1.0001 4.67169e-05
457 21.7085 8.41731 0.265472 0 0 1.0001 4.92472e-05
459 22.6779 8.25811 1.02203 0 0 1.0001 4.53629e-05
1218 22.5116 7.57707 1.76292 0 0 1.0001 4.41185e-05
378 22.4269 7.55373 0.389771 0 0 1.0001 4.18977e-05
384 23.5276 7.39626 1.05927 0 0 1.0001 3.77576e-05
461 23.5682 8.15286 0.38576 0 0 1.0001 4.02487e-05
463 24.4205 8.17505 1.00379 0 0 1.0001 3.71226e-05
1302 24.3322 8.80937 1.6965 0 0 1.0001 4.11855e-05
382 24.4104 7.39284 0.274705 0 0 1.0001 3.367e-05
388 25.1878 7.46285 1.2565 0 0 1.0001 3.14748e-05
467 26.0867 8.07312 0.993606 0 0 1.0001 2.89873e-05
1306 26.0854 8.70215 1.76078 0 0 1.0001 3.15029e-05
386 26.1526 7.33507 0.372244 0 0 1.0001 2.65085e-05
465 25.297 8.19779 0.312952 0 0 1.0001 3.25973e-05
466 26.334 8.65175 0.0938524 0 0 1.0001 2.86248e-05
392 26.8451 7.16935 1.34415 0 0 1.0001 2.38937e-05
470 28.0185 8.55444 0.429002 0 0 1.0001 2.05405e-05
471 27.8537 7.88671 1.21625 0 0 1.0001 2.08496e-05
472 27.0367 8.71792 1.02876 0 0 1.0001 2.57335e-05
469 27.0559 7.83923 0.436718 0 0 1.0001 2.38452e-05
396 28.7019 7.15016 1.23201 0 0 1.0001 1.64701e-05
474 29.6439 8.38734 0.545606 0 0 1.0001 1.34794e-05
475 29.5479 7.70956 1.27889 0 0 1.0001 1.37861e-05
476 28.8306 8.60033 1.18822 0 0 1.0001 1.72109e-05
473 28.7476 7.75922 0.418173 0 0 1.0001 1.66512e-05
400 30.3726 7.11114 1.18125 0 0 1.0001 1.04944e-05
479 31.297 7.83252 1.30189 0 0 1.0001 7.5645e-06
480 30.4783 8.51209 1.18622 0 0 1.0001 1.03412e-05
477 30.6839 7.88954 0.38228 0 0 1.0001 9.46583e-06
478 31.4719 8.6287 0.392177 0 0 1.0001 6.60396e-06
482 1.16529 10.2687 0.27348 0 0 1.0001 7.9139e-06
483 1.06195 9.36333 1.20502 0 0 1.0001 7.85296e-06
484 0.298987 9.9292 0.899399 0 0 1.0001 4.53656e-06
481 0.413857 9.33393 0.12377 0 0 1.0001 5.33077e-06
1322 0.856313 10.1164 1.75251 0 0 1.0001 6.84012e-06
485 1.80321 9.42515 0.451184 0 0 1.0001 1.08801e-05
488 1.87091 10.3448 0.96966 0 0 1.0001 1.11585e-05
486 2.63841 10.2391 0.0831922 0 0 1.0001 1.47756e-05
487 2.42345 9.41394 1.22134 0 0 1.0001 1.38164e-05
1326 2.8187 10.1928 1.66478 0 0 1.0001 1.61994e-05
1329 3.25648 9.19523 1.65496 0 0 1.0001 1.79471e-05
489 3.12419 9.32908 0.0820673 0 0 1.0001 1.68008e-05
492 3.42921 9.98881 0.733023 0 0 1.0001 1.87541e-05
491 3.98798 9.06038 0.854825 0 0 1.0001 2.09139e-05
493 4.63373 9.12845 0.00594782 0 0 1.0001 2.39589e-05
496 4.66061 9.91825 0.569481 0 0 1.0001 2.52416e-05
1330 4.17588 9.91222 1.61197 0 0 1.0001 2.33833e-05
1333 4.73389 9.00719 1.64551 0 0 1.0001 2.53365e-05
495 5.39289 8.88556 0.657991 0 0 1.0001 2.76099e-05
500 6.30538 9.72112 0.513861 0 0 1.0001 3.42137e-05
1334 5.37779 9.76354 1.16334 0 0 1.0001 2.95311e-05
1337 6.22231 8.98542 1.25584 0 0 1.0001 3.27579e-05
1417 6.30142 10.4316 1.18456 0 0 1.0001 3.631e-05
499 7.2411 8.80698 0.711176 0 0 1.0001 3.69472e-05
501 8.17838 8.97071 0.0811153 0 0 1.0001 4.20587e-05
504 8.04042 9.84337 0.573956 0 0 1.0001 4.46813e-05
1338 7.24983 9.65654 1.18995 0 0 1.0001 4.03366e-05
1341 8.1283 9.0844 1.39439 0 0 1.0001 4.37368e-05
1421 7.72533 10.5438 1.35649 0 0 1.0001 4.62952e-05
503 9.02759 9.37168 0.724407 0 0 1.0001 4.85702e-05
508 9.73293 10.2481 0.658826 0 0 1.0001 5.63393e-05
1342 8.8357 10.1672 1.40253 0 0 1.0001 5.22856e-05
1345 9.92609 9.50179 1.40925 0 0 1.0001 5.55918e-05
426 10.504 8.81282 0.0360408 0 0 1.0001 5.21485e-05
507 10.5638 9.60522 0.655628 0 0 1.0001 5.74843e-05
1346 10.7352 10.0867 1.62768 0 0 1.0001 6.42141e-05
1349 11.4198 9.55863 1.31606 0 0 1.0001 6.29876e-05
512 11.3101 10.5118 0.719205 0 0 1.0001 6.64529e-05
436 13.1151 8.91485 0.785685 0 0 1.0001 6.23544e-05
511 12.2149 9.75023 0.68743 0 0 1.0001 6.57084e-05
516 12.932 10.4205 0.956396 0 0 1.0001 7.37841e-05
1353 12.6714 9.55824 1.60949 0 0 1.0001 6.93562e-05
1350 12.0888 10.5166 1.59557 0 0 1.0001 7.39327e-05
1274 13.8144 8.81565 1.56836 0 0 1.0001 6.5825e-05
440 14.5888 9.17246 0.762599 0 0 1.0001 6.71502e-05
515 13.6537 9.64905 0.838062 0 0 1.0001 6.96101e-05
1354 13.6224 10.3681 1.70309 0 0 1.0001 7.96342e-05
517 14.39 10.1193 0.217986 0 0 1.0001 7.39356e-05
444 16.0287 9.16309 1.13746 0 0 1.0001 6.91738e-05
1278 15.1905 9.05478 1.76135 0 0 1.0001 7.10051e-05
519 15.2588 9.85176 1.0139 0 0 1.0001 7.45136e-05
521 15.8116 10.179 0.251231 0 0 1.0001 7.57755e-05
523 16.6315 9.97789 0.966712 0 0 1.0001 7.5447e-05
442 16.632 9.05386 0.264517 0 0 1.0001 6.59178e-05
438 15.4181 9.19757 0.105382 0 0 1.0001 6.70834e-05
448 17.2233 9.09569 1.13161 0 0 1.0001 6.78215e-05
525 17.279 10.0569 0.207564 0 0 1.0001 7.36922e-05
527 17.9008 9.9133 1.07873 0 0 1.0001 7.33941e-05
446 17.8878 9.14862 0.121581 0 0 1.0001 6.52468e-05
452 18.4244 8.95051 0.950591 0 0 1.0001 6.41523e-05
456 19.939 9.03371 1.0692 0 0 1.0001 6.09966e-05
529 18.717 9.79373 0.305833 0 0 1.0001 6.8661e-05
531 19.6195 9.97406 0.864903 0 0 1.0001 6.81129e-05
532 18.8393 10.526 1.15674 0 0 1.0001 7.60149e-05
1369 18.782 9.65459 1.7221 0 0 1.0001 7.24371e-05
450 19.3581 9.02572 0.215588 0 0 1.0001 6.11932e-05
533 20.1036 9.86584 0.0748073 0 0 1.0001 6.42643e-05
535 21.0372 9.9021 0.76732 0 0 1.0001 6.12154e-05
1373 20.3605 9.75752 1.68778 0 0 1.0001 6.69897e-05
454 20.8957 9.16 0.209653 0 0 1.0001 5.67372e-05
460 21.7307 9.12672 0.98875 0 0 1.0001 5.41755e-05
1298 22.4981 8.98741 1.60663 0 0 1.0001 5.14924e-05
539 22.9188 9.79362 0.817943 0 0 1.0001 5.08957e-05
1377 22.0244 9.89571 1.56056 0 0 1.0001 5.85035e-05
458 22.8442 8.96378 0.207229 0 0 1.0001 4.70623e-05
537 22.0642 9.90557 0.219927 0 0 1.0001 5.52046e-05
464 23.5197 9.06393 0.983697 0 0 1.0001 4.49822e-05
543 24.5882 9.66432 0.775483 0 0 1.0001 4.07762e-05
1381 23.7753 9.71612 1.58448 0 0 1.0001 4.73873e-05
1382 24.4574 10.4583 1.47922 0 0 1.0001 4.51321e-05
462 24.3885 8.90154 0.212835 0 0 1.0001 3.91679e-05
542 24.5179 10.4281 0.112081 0 0 1.0001 4.26951e-05
1385 25.1369 9.62299 1.67878 0 0 1.0001 3.90962e-05
468 25.3516 8.93482 1.01305 0 0 1.0001 3.48255e-05
547 26.2866 9.47031 0.888887 0 0 1.0001 3.07894e-05
548 25.4432 10.3534 0.834434 0 0 1.0001 3.73351e-05