ITEM: TIMESTEP
500
ITEM: NUMBER OF ATOMS
32000
ITEM: BOX BOUNDS pp pp pp
0.0000000000000000e+00 3.1748021039364001e+01
0.0000000000000000e+00 3.1748021039364001e+01
0.0000000000000000e+00 3.1748021039364001e+01
ITEM: ATOMS id x y z c_phase c_nbond c_rho v_omega
4 0.116559 1.10259 0.464362 0 0 1 4.48008e-07
83 0.974303 1.66851 0.778005 0 0 1 4.51462e-07
842 0.714865 0.79356 1.41296 0 0 1 4.73173e-07
921 0.00358308 1.60274 1.3744 0 0 1 4.25588e-07
3 0.730116 0.0633743 0.616042 0 0 1 4.93076e-07
8 1.71035 0.80899 1.01551 0 0 1 4.87463e-07
85 1.80078 1.47469 0.221083 0 0 1 4.68915e-07
925 1.82036 1.66049 1.76127 0 0 1 4.64643e-07
6 2.52111 0.749074 0.203826 0 0 1 4.86762e-07
7 2.59167 0.0538461 1.03728 0 0 1 5.02211e-07
87 2.64938 1.54099 0.882863 0 0 1 4.64264e-07
846 2.66848 0.815492 1.74571 0 0 1 4.8597e-07
12 3.434 0.933656 0.956381 0 0 1 4.64309e-07
849 3.4994 0.0925234 1.70574 0 0 1 4.81826e-07
929 3.60666 1.70796 1.71997 0 0 1 4.43106e-07
10 4.1059 0.858279 0.325314 0 0 1 4.38054e-07
16 4.96172 0.567802 1.17467 0 0 1 3.94075e-07
93 4.91959 1.59983 0.383531 0 0 1 3.78022e-07
850 4.34731 0.941493 1.62889 0 0 1 4.2798e-07
9 3.47627 0.111373 0.171043 0 0 1 4.78601e-07
14 5.64749 0.645556 0.325847 0 0 1 3.37769e-07
95 5.8842 1.31044 0.938077 0 0 1 3.08712e-07
97 6.57482 1.39098 0.218388 0 0 1 2.36498e-07
854 5.78383 0.460589 1.69901 0 0 1 3.31729e-07
933 5.03131 1.72409 1.43606 0 0 1 3.70647e-07
20 6.71384 0.390237 0.865312 0 0 1 2.33443e-07
937 6.69108 1.00956 1.69379 0 0 1 2.35071e-07
24 8.26787 0.408783 1.07339 0 0 1 3.01778e-08
99 7.36782 1.22278 0.95423 0 0 1 1.47658e-07
101 8.24705 1.39084 0.236801 0 0 1 2.68088e-08
941 8.12866 1.2721 1.60659 0 0 1 5.25508e-08
18 7.58247 0.647726 0.140309 0 0 1 1.25395e-07
22 8.85843 0.508402 0.273971 0 0 1 -5.61912e-08
28 9.55292 0.33849 0.888673 0 0 1 -1.65707e-07
103 9.02579 1.30708 1.11333 0 0 1 -8.30994e-08
945 9.57412 0.9731 1.76339 0 0 1 -1.64583e-07
105 9.63985 1.37464 0.0901026 0 0 1 -1.84095e-07
32 11.2126 0.215776 0.632685 0 0 1 -4.2916e-07
107 10.3635 1.04734 0.823152 0 0 1 -2.9761e-07
866 10.5229 0.196195 1.44543 0 0 1 -3.26184e-07
949 11.2854 1.01837 1.4179 0 0 1 -4.39081e-07
946 10.5795 1.67699 1.72997 0 0 1 -3.10951e-07
26 10.243 0.367737 0.078056 0 0 1 -2.7226e-07
36 12.8755 0.211607 0.636824 0 0 1 -6.65095e-07
111 12.0455 1.07398 0.506697 0 0 1 -5.60399e-07
870 12.1316 0.316335 1.29961 0 0 1 -5.71198e-07
953 12.7192 1.19854 1.37235 0 0 1 -6.43263e-07
40 14.3726 0.318418 0.764695 0 0 1 -8.15604e-07
115 13.5921 1.11289 0.843657 0 0 1 -7.51419e-07
117 14.0397 1.55947 0.167493 0 0 1 -8.05436e-07
874 13.6073 0.35975 1.63522 0 0 1 -7.53167e-07
957 14.3774 1.14941 1.47651 0 0 1 -8.09739e-07
119 14.8759 1.55328 0.66299 0 0 1 -8.55643e-07
44 15.7059 0.770533 0.788272 0 0 1 -8.76714e-07
123 16.553 1.54442 0.681382 0 0 1 -8.77562e-07
878 15.142 0.46413 1.64149 0 0 1 -8.58605e-07
882 16.5467 0.712219 1.34211 0 0 1 -8.66162e-07
961 15.6338 1.48538 1.39164 0 0 1 -8.5958e-07
38 15.1047 0.711684 0.0677987 0 0 1 -8.66526e-07
48 17.2542 0.732183 0.547622 0 0 1 -8.50609e-07
127 17.9229 1.58103 0.757277 0 0 1 -8.00244e-07
886 17.9158 0.742896 1.42799 0 0 1 -7.90125e-07
965 17.22 1.74879 1.56277 0 0 1 -8.11856e-07
51 19.5371 0.0167242 0.662756 0 0 1 -6.35218e-07
52 18.7917 0.725025 0.684842 0 0 1 -7.22715e-07
131 19.5394 1.55484 0.841679 0 0 1 -6.1792e-07
889 19.0275 0.158574 1.54504 0 0 1 -6.83623e-07
890 19.5932 0.967477 1.68955 0 0 1 -5.94333e-07
969 18.6562 1.51298 1.50036 0 0 1 -7.01078e-07
55 21.0889 0.349832 1.06747 0 0 1 -4.09747e-07
56 20.2491 0.776348 0.980044 0 0 1 -5.28829e-07
135 21.1061 1.65722 0.951531 0 0 1 -3.79551e-07
54 21.1873 0.765563 0.218828 0 0 1 -4.07651e-07
133 20.3456 1.51474 0.193678 0 0 1 -5.23141e-07
57 22.0087 0.262525 0.539752 0 0 1 -2.84633e-07
59 22.7913 0.43029 1.4073 0 0 1 -1.42984e-07
60 22.1105 1.14763 1.32979 0 0 1 -2.27338e-07
137 21.9982 1.59954 0.538582 0 0 1 -2.55135e-07
58 22.9157 1.07461 0.445199 0 0 1 -1.33744e-07
63 24.228 0.380207 1.45204 0 0 1 5.44995e-08
61 23.5672 0.357563 0.573692 0 0 1 -5.63774e-08
62 24.4367 1.18688 0.754736 0 0 1 8.66785e-08
64 23.4757 1.24991 1.40277 0 0 1 -2.07929e-08
65 24.9551 0.315702 0.551993 0 0 1 1.1909e-07
67 26.0086 0.38339 1.17148 0 0 1 2.3745e-07
68 25.1691 1.12582 1.48084 0 0 1 1.88378e-07
147 25.9303 1.7348 1.35793 0 0 1 2.83138e-07
66 25.8918 0.929238 0.432113 0 0 1 2.35031e-07
70 27.5738 1.28035 0.389076 0 0 1 3.71694e-07
71 27.6143 0.509303 0.874318 0 0 1 3.5122e-07
72 26.756 1.02812 1.26345 0 0 1 3.19666e-07
913 28.375 0.337522 1.39814 0 0 1 3.878e-07
69 26.7927 0.240364 0.226639 0 0 1 2.85033e-07
76 28.6491 1.24264 0.74234 0 0 1 4.14542e-07
914 29.3914 0.945691 1.56878 0 0 1 4.27646e-07
993 28.523 1.71925 1.4975 0 0 1 4.33777e-07
917 29.8135 0.173966 1.46122 0 0 1 4.10873e-07
75 29.2736 0.354721 0.615282 0 0 1 4.026e-07
841 31.5876 0.266138 1.25664 0 0 1 3.8994e-07
79 30.7018 0.490143 0.470762 0 0 1 4.09861e-07
80 30.1011 1.19879 0.774144 0 0 1 4.32029e-07
918 30.8651 0.971962 1.39386 0 0 1 4.21721e-07
82 1.111 2.43609 0.129296 0 0 1 4.28168e-07
84 0.133608 2.38213 0.812256 0 0 1 4.01913e-07
163 1.28862 3.23766 0.949207 0 0 1 3.9705e-07
922 1.13996 2.3608 1.59164 0 0 1 4.29159e-07
1001 0.386878 3.03004 1.54946 0 0 1 3.80078e-07
161 0.332442 3.09586 0.131321 0 0 1 3.81115e-07
88 1.9099 2.41868 0.783785 0 0 1 4.3741e-07
167 2.65867 3.2803 0.860899 0 0 1 4.05967e-07
926 2.66948 2.22919 1.53377 0 0 1 4.44384e-07
1009 3.25804 3.42669 1.64942 0 0 1 3.99017e-07
86 2.72625 2.38168 0.0557354 0 0 1 4.3837e-07
92 3.38208 2.55413 0.779321 0 0 1 4.21251e-07
91 4.00692 1.84098 0.71121 0 0 1 4.20117e-07
96 4.91391 2.57275 0.815695 0 0 1 3.59014e-07
171 4.20158 3.3175 0.749479 0 0 1 3.72337e-07
930 4.13258 2.64107 1.58332 0 0 1 3.99533e-07
94 5.65053 2.44267 0.132767 0 0 1 3.05089e-07
100 6.55779 2.18058 0.772636 0 0 1 2.30587e-07
175 5.6488 3.19591 0.952533 0 0 1 2.97613e-07
934 5.86106 2.19423 1.49677 0 0 1 3.04126e-07
1017 6.52041 3.06689 1.55575 0 0 1 2.39102e-07
177 6.65034 2.92776 0.134251 0 0 1 2.05901e-07
98 7.45404 2.2258 0.139856 0 0 1 1.24912e-07
104 8.08206 2.20202 0.930429 0 0 1 5.07512e-08
179 7.40131 3.06831 0.934094 0 0 1 1.35282e-07
938 7.29928 2.0603 1.56862 0 0 1 1.60275e-07
1021 8.18541 3.00179 1.65218 0 0 1 6.46815e-08
181 8.26929 2.97115 0.039249 0 0 1 1.23014e-08
102 8.90386 2.08692 0.252418 0 0 1 -7.42189e-08
108 9.77233 2.02452 1.11 0 0 1 -1.94651e-07
183 8.92663 2.97256 0.928751 0 0 1 -6.25217e-08
942 9.03055 2.2206 1.70405 0 0 1 -6.33249e-08
185 9.56086 2.9057 0.21316 0 0 1 -1.75388e-07
106 10.2832 2.11361 0.214329 0 0 1 -2.91271e-07
112 11.1581 1.82596 0.771141 0 0 1 -4.22517e-07
187 10.6213 2.80811 0.921597 0 0 1 -3.20657e-07
1029 11.4443 2.82958 1.57493 0 0 1 -4.00083e-07
116 12.6735 1.94109 0.593909 0 0 1 -6.47579e-07
191 11.9278 2.64092 0.742358 0 0 1 -5.30302e-07
950 11.9237 1.92052 1.46515 0 0 1 -5.17542e-07
1033 12.8447 3.0176 1.68606 0 0 1 -5.56977e-07
195 13.1789 3.03026 0.848914 0 0 1 -6.76405e-07
954 13.3782 1.99113 1.4807 0 0 1 -6.98097e-07
120 14.0204 2.44431 0.927179 0 0 1 -7.76528e-07
1037 14.0277 3.38354 1.55725 0 0 1 -6.54491e-07
199 14.6959 3.43691 0.885011 0 0 1 -7.82333e-07
958 14.7821 2.29753 1.44824 0 0 1 -7.9964e-07
118 14.8416 2.51494 0.13664 0 0 1 -8.65815e-07
197 14.1588 3.22609 0.0326496 0 0 1 -8.09457e-07
114 13.4135 2.29388 0.0591475 0 0 1 -7.47526e-07
124 15.6991 2.44364 0.692751 0 0 1 -8.73985e-07
203 16.3027 3.20087 0.662201 0 0 1 -8.49106e-07
962 16.3077 2.47945 1.5258 0 0 1 -8.13011e-07
1041 15.3692 3.25718 1.50199 0 0 1 -7.48484e-07
201 15.5703 3.25844 0.019376 0 0 1 -8.80242e-07
128 17.0645 2.35026 0.682844 0 0 1 -8.48964e-07
207 17.9438 2.92603 0.699627 0 0 1 -7.64085e-07
966 18.0191 2.43913 1.58116 0 0 1 -7.18153e-07
1045 17.0916 3.11616 1.49497 0 0 1 -7.39351e-07
132 18.8907 2.35739 1.01362 0 0 1 -6.68571e-07
211 19.7026 3.24267 1.27787 0 0 1 -4.77408e-07
209 18.8839 2.99602 0.196112 0 0 1 -6.77117e-07
130 19.5869 2.34232 0.101541 0 0 1 -6.12046e-07
973 20.325 1.78861 1.72441 0 0 1 -4.59827e-07
134 21.1565 2.4166 0.458412 0 0 1 -3.55949e-07
136 20.1947 2.46878 1.11436 0 0 1 -4.78398e-07
215 21.3099 3.29464 1.39317 0 0 1 -2.17441e-07
213 20.4221 2.99311 0.335022 0 0 1 -4.4356e-07
139 22.8719 2.07008 1.50871 0 0 1 -6.82431e-08
138 22.9717 2.60199 0.735562 0 0 1 -4.80059e-08
140 22.0961 2.49917 1.23789 0 0 1 -1.70316e-07
217 21.9898 3.20043 0.59887 0 0 1 -1.6109e-07
16179 22.6772 3.40123 0.0760929 0 0 1 -4.74838e-08
141 23.7439 1.80845 0.624052 0 0 1 1.91392e-08
143 24.429 1.98766 1.611 0 0 1 1.4466e-07
142 24.3421 2.68298 0.775227 0 0 1 1.48884e-07
144 23.6887 2.90306 1.53629 0 0 1 1.06764e-07
223 24.4729 3.51082 1.55705 0 0 1 2.53351e-07
16108 24.9563 2.84566 0.0147525 0 0 1 2.25695e-07
149 26.5484 1.79418 0.511392 0 0 1 3.25533e-07
145 25.1323 1.85615 0.509449 0 0 1 1.94467e-07
146 25.7919 2.61205 0.707517 0 0 1 3.03605e-07
148 25.1581 2.55552 1.52547 0 0 1 2.53283e-07
227 25.7215 3.49817 1.51213 0 0 1 3.70815e-07
152 26.5366 2.56007 1.53049 0 0 1 3.74696e-07
229 26.1687 3.50072 0.599084 0 0 1 3.89699e-07
151 27.504 1.9855 1.23792 0 0 1 4.01326e-07
153 28.2491 2.09025 0.343763 0 0 1 4.31487e-07
150 27.0869 2.69244 0.645382 0 0 1 4.04706e-07
231 27.2 3.35402 1.41683 0 0 1 4.54549e-07
156 28.2538 2.75803 1.2064 0 0 1 4.62715e-07
233 27.9822 3.21997 0.326435 0 0 1 4.72495e-07
997 29.9571 1.80909 1.70764 0 0 1 4.55201e-07
155 29.4479 2.04704 0.879721 0 0 1 4.55308e-07
154 29.1958 2.65895 0.290726 0 0 1 4.7551e-07
235 29.2497 3.26513 1.17368 0 0 1 5.00239e-07
159 30.9116 1.98503 0.924223 0 0 1 4.44867e-07
160 30.1818 2.71098 1.00188 0 0 1 4.76377e-07
239 31.0249 3.35311 0.971044 0 0 1 4.81139e-07
998 30.9867 2.69487 1.72649 0 0 1 4.6498e-07
237 30.1095 3.25954 0.13226 0 0 1 4.98213e-07
157 30.4118 1.90911 0.025572 0 0 1 4.51591e-07
158 31.1436 2.66404 0.0761512 0 0 1 4.61034e-07
164 0.294026 3.78506 0.918587 0 0 1 3.44246e-07
241 0.143234 4.59449 0.482139 0 0 1 2.99325e-07
243 1.14052 4.67097 0.986671 0 0 1 3.24284e-07
244 0.0886585 5.26687 1.27764 0 0 1 2.56855e-07
162 1.04088 3.86423 0.059608 0 0 1 3.64519e-07
168 1.84134 4.04607 0.847136 0 0 1 3.6909e-07
247 2.54063 4.85589 1.1375 0 0 1 3.38294e-07
166 2.64967 4.14477 0.206759 0 0 1 3.69597e-07
245 1.89773 4.96898 0.278418 0 0 1 3.2524e-07
249 3.40783 4.86192 0.161662 0 0 1 3.32437e-07
172 3.49411 4.07677 0.885943 0 0 1 3.66043e-07
176 4.91242 4.00002 1.18347 0 0 1 3.27733e-07
251 4.04669 4.88005 1.14644 0 0 1 3.28154e-07
170 4.26035 4.1851 0.14902 0 0 1 3.39527e-07
253 5.00954 4.74004 0.341106 0 0 1 2.92124e-07
174 5.77737 3.9378 0.19873 0 0 1 2.64779e-07
180 6.48885 3.7661 0.772118 0 0 1 2.19396e-07
255 5.6803 4.73639 1.02493 0 0 1 2.69829e-07
1097 6.66323 4.51151 1.64287 0 0 1 2.37011e-07
260 6.68072 5.13152 0.885399 0 0 1 1.99947e-07
184 8.19815 3.89197 0.700815 0 0 1 3.68279e-08
259 7.40839 4.46071 0.546852 0 0 1 1.23596e-07
1018 7.39885 3.87028 1.4969 0 0 1 1.61067e-07
1101 8.2 4.61105 1.48685 0 0 1 1.04996e-07
188 9.89749 3.57787 0.885738 0 0 1 -1.91477e-07
263 9.07904 4.56549 0.821406 0 0 1 -4.75466e-08
265 9.86253 4.50299 0.126395 0 0 1 -1.91649e-07
1022 9.07821 3.76253 1.49826 0 0 1 -2.95612e-08
1105 9.86871 4.34617 1.65542 0 0 1 -6.20574e-08
182 8.98532 3.86816 0.0632251 0 0 1 -8.327e-08
192 11.4078 3.64487 0.778394 0 0 1 -4.17874e-07
267 10.5889 4.66648 0.906354 0 0 1 -2.25884e-07
269 11.3865 4.69398 0.230821 0 0 1 -3.92816e-07
1026 10.7058 3.56685 1.58794 0 0 1 -2.46335e-07
1109 11.3651 4.37157 1.70555 0 0 1 -2.17931e-07
272 11.3892 5.27211 0.983806 0 0 1 -2.42738e-07
186 10.5824 3.84881 0.176194 0 0 1 -3.18198e-07
196 12.5165 3.57712 0.814836 0 0 1 -5.72976e-07
271 12.1915 4.55029 1.00031 0 0 1 -4.26287e-07
1113 12.7361 4.99733 1.68915 0 0 1 -2.22423e-07
275 13.2256 4.6786 0.800289 0 0 1 -5.60633e-07
273 12.6433 4.61878 0.063339 0 0 1 -5.7578e-07
200 13.9889 4.12818 0.696595 0 0 1 -7.02284e-07
1034 13.483 4.21777 1.59327 0 0 1 -4.8239e-07
1117 14.2045 5.11834 1.52014 0 0 1 -3.59341e-07
279 14.9401 5.01137 0.811838 0 0 1 -6.25654e-07
1038 14.9641 4.41665 1.59442 0 0 1 -5.32941e-07
277 14.1403 4.90638 0.059957 0 0 1 -6.99117e-07
198 14.9608 4.19414 0.0966584 0 0 1 -8.09565e-07
204 15.6683 4.06636 0.926381 0 0 1 -7.53829e-07
281 15.8796 4.77588 0.186587 0 0 1 -7.63379e-07
283 16.5934 4.58032 0.900309 0 0 1 -6.76152e-07
1042 16.3182 3.95872 1.69038 0 0 1 -6.12211e-07
1121 15.811 5.05313 1.64096 0 0 1 -3.61839e-07
208 17.2687 3.83367 0.81134 0 0 1 -7.45451e-07
287 18.0863 4.48852 1.09817 0 0 1 -5.41499e-07
1046 17.9524 3.63792 1.65608 0 0 1 -5.87366e-07
285 17.4568 4.57721 0.0149704 0 0 1 -7.1487e-07
206 18.1347 3.85462 0.0585015 0 0 1 -7.16751e-07
212 18.8778 3.70664 0.950312 0 0 1 -5.79643e-07
289 18.8234 4.60945 0.361968 0 0 1 -5.29079e-07
291 19.6906 4.6787 1.08042 0 0 1 -3.0542e-07
292 18.7858 5.27693 1.20113 0 0 1 -2.65681e-07
210 19.5986 3.76717 0.227553 0 0 1 -5.19016e-07
216 20.4383 3.82187 1.23336 0 0 1 -3.09708e-07
295 20.8846 4.71869 1.39409 0 0 1 -6.67611e-08
297 21.5776 4.95129 0.810546 0 0 1 5.7267e-09
214 21.0823 3.93135 0.512507 0 0 1 -2.45594e-07
293 20.1338 4.78557 0.35297 0 0 1 -2.95475e-07
219 22.8205 3.63188 1.42137 0 0 1 5.08928e-08
220 21.9407 4.13319 1.31073 0 0 1 -2.53317e-08
299 22.4706 5.17738 1.27293 0 0 1 2.23899e-07
218 22.612 4.34706 0.510134 0 0 1 5.29649e-08
221 23.5736 3.63904 0.782731 0 0 1 1.22958e-07
222 24.3361 4.32059 0.62509 0 0 1 2.81223e-07
224 23.468 4.5495 1.3336 0 0 1 2.43757e-07
305 24.852 5.2572 0.566844 0 0 1 4.38904e-07
301 23.5519 5.06389 0.533701 0 0 1 2.78629e-07
228 25.0087 4.5006 1.62344 0 0 1 4.11199e-07
225 25.063 3.68039 0.802172 0 0 1 3.04876e-07
303 24.3631 5.2885 1.43381 0 0 1 4.51184e-07
307 25.6906 5.13896 1.34271 0 0 1 5.11823e-07
232 26.3576 4.29036 1.37162 0 0 1 4.7069e-07
309 26.5028 4.97262 0.640793 0 0 1 5.20865e-07
226 25.5286 4.40093 0.388258 0 0 1 4.04043e-07
311 27.3304 4.86967 1.40571 0 0 1 5.55239e-07
236 27.9626 3.97645 1.10411 0 0 1 5.12879e-07
313 28.2773 4.73481 0.706384 0 0 1 5.56754e-07
230 27.0676 4.04327 0.570095 0 0 1 4.79983e-07
234 28.9323 3.77021 0.487229 0 0 1 5.17805e-07
315 29.0875 4.52322 1.33087 0 0 1 5.53229e-07
240 29.9981 4.07211 1.02307 0 0 1 5.25599e-07
238 31.0298 3.97388 0.373376 0 0 1 5.01235e-07
317 30.2048 4.67772 0.491332 0 0 1 5.44694e-07
319 30.9785 4.59935 1.41132 0 0 1 5.19446e-07
242 0.908463 5.5321 0.461679 0 0 1 2.72387e-07
248 1.53178 5.51189 1.37975 0 0 1 2.89137e-07
323 0.793869 6.22028 1.27683 0 0 1 2.26855e-07
324 0.257177 6.91742 1.50741 0 0 1 1.65438e-07
322 0.97012 6.94546 0.57345 0 0 1 1.90583e-07
328 1.70546 7.02891 1.23816 0 0 1 2.08268e-07
325 1.89603 6.19972 0.519047 0 0 1 2.57244e-07
252 3.10489 5.61715 1.30061 0 0 1 3.06739e-07
327 2.26375 6.15355 1.40982 0 0 1 2.69992e-07
332 3.25454 6.96234 1.12754 0 0 1 2.42513e-07
246 2.68191 5.61292 0.273615 0 0 1 2.9897e-07
329 3.39514 6.28195 0.500561 0 0 1 2.66695e-07
250 4.18988 5.4625 0.325813 0 0 1 2.93967e-07
256 4.93441 5.42877 1.31782 0 0 1 2.94708e-07
331 4.1363 6.09664 1.22784 0 0 1 2.85059e-07
333 4.82573 6.23362 0.333874 0 0 1 2.49378e-07
336 4.77319 6.79938 1.15972 0 0 1 2.55603e-07
330 4.00276 7.02516 0.221796 0 0 1 2.28894e-07
254 5.78577 5.42186 0.301881 0 0 1 2.34401e-07
335 5.69353 6.24346 0.96325 0 0 1 2.45059e-07
1177 6.45783 5.98428 1.59678 0 0 1 2.67789e-07
340 6.43235 6.86932 1.0097 0 0 1 2.28394e-07
337 6.37775 6.04119 0.154676 0 0 1 1.8958e-07
334 5.54996 7.05212 0.147189 0 0 1 2.06407e-07
264 8.21348 5.31419 0.694341 0 0 1 6.60503e-08
339 7.32757 6.15927 0.754356 0 0 1 1.62669e-07
1098 7.39162 5.4184 1.49146 0 0 1 2.02351e-07
1181 8.23879 6.11029 1.49168 0 0 1 2.07468e-07
344 8.01347 6.85367 0.729063 0 0 1 1.52807e-07
1178 7.2819 6.86381 1.59609 0 0 1 3.04794e-07
258 7.33025 5.35751 0.0462216 0 0 1 1.2155e-07
268 9.76785 5.31938 0.792649 0 0 1 -8.69345e-08
343 8.88007 6.18865 0.736987 0 0 1 5.88035e-08
1102 9.05426 5.32709 1.59738 0 0 1 1.06196e-07
1185 9.73835 6.1905 1.46741 0 0 1 1.57227e-07
1182 9.09343 6.95015 1.46309 0 0 1 3.01872e-07
345 9.76316 6.23201 0.0942282 0 0 1 -7.52657e-08
262 8.99723 5.46479 0.0127746 0 0 1 -4.35456e-08
347 10.583 6.02195 0.964482 0 0 1 -5.69496e-08
349 11.3126 6.37131 0.0777846 0 0 1 -2.20375e-07
346 10.5185 6.94145 0.154626 0 0 1 -5.59163e-08
1186 10.4685 6.92564 1.49625 0 0 1 3.26737e-07
270 11.9992 5.62735 0.183281 0 0 1 -3.87152e-07
276 12.6755 5.81844 0.861911 0 0 1 -3.06285e-07
351 11.7773 6.20734 1.05304 0 0 1 -9.4318e-08
1114 13.3218 5.86665 1.55486 0 0 1 -6.40448e-08
355 13.3505 6.58294 0.813826 0 0 1 -1.91418e-07
274 13.321 5.53862 0.0426321 0 0 1 -5.54098e-07
280 14.0616 5.71562 0.772815 0 0 1 -4.59618e-07
1197 14.3277 6.65174 1.40663 0 0 1 1.32318e-07
357 14.1301 6.38479 0.0381997 0 0 1 -4.6389e-07
278 15.028 5.64386 0.0345598 0 0 1 -6.41503e-07
284 15.8304 5.73811 0.958461 0 0 1 -4.3329e-07
359 15.047 6.45089 0.806945 0 0 1 -2.8747e-07
363 16.4909 6.45259 1.14027 0 0 1 -9.54349e-08
1118 15.1057 5.87593 1.69817 0 0 1 -2.06097e-08
282 16.6198 5.41929 0.276991 0 0 1 -6.34329e-07
361 15.6752 6.33818 0.0392402 0 0 1 -4.97871e-07
286 17.827 5.30127 0.541566 0 0 1 -5.14028e-07
288 17.1129 5.42498 1.2478 0 0 1 -3.65833e-07
365 17.0618 6.27419 0.411658 0 0 1 -3.7797e-07
367 17.6648 6.24651 1.38554 0 0 1 3.23388e-08
372 18.2744 7.05177 1.13169 0 0 1 3.35362e-07
369 18.3713 6.23173 0.609942 0 0 1 -1.94298e-07
290 19.429 5.75829 0.620699 0 0 1 -1.77336e-07
371 19.3279 6.5576 1.35091 0 0 1 3.21638e-07
373 19.9942 6.75233 0.610424 0 0 1 2.20091e-07
294 20.7494 5.77595 0.65385 0 0 1 3.83111e-08
296 20.1931 5.61079 1.39565 0 0 1 7.10866e-08
375 20.7787 6.61247 1.30365 0 0 1 4.74437e-07
377 21.6593 6.66254 0.666666 0 0 1 4.14292e-07
300 21.6631 5.87871 1.38535 0 0 1 3.28955e-07
16260 21.6905 5.73261 0.051954 0 0 1 1.3021e-07
298 22.6733 5.82795 0.674251 0 0 1 3.17202e-07
379 22.632 6.69341 1.20743 0 0 1 6.14558e-07
381 23.3485 6.78058 0.267977 0 0 1 5.67653e-07
304 23.4823 5.88503 1.30019 0 0 1 4.79352e-07
383 24.3198 6.56289 1.15834 0 0 1 6.46601e-07
302 24.1459 6.0069 0.427718 0 0 1 4.84122e-07
306 25.6832 5.86219 0.701018 0 0 1 5.68696e-07
308 25.1126 6.04139 1.67737 0 0 1 6.34818e-07
385 25.1595 6.74166 0.495247 0 0 1 6.57789e-07
387 25.8252 6.59465 1.40781 0 0 1 7.00778e-07
312 26.6905 5.84519 1.47634 0 0 1 6.24438e-07
310 27.4968 5.54341 0.72222 0 0 1 5.96374e-07
389 26.7487 6.36574 0.651948 0 0 1 6.4964e-07
391 27.7013 6.47321 1.36544 0 0 1 6.69999e-07
316 28.365 5.5221 1.48722 0 0 1 6.08263e-07
390 27.7099 7.00747 0.530231 0 0 1 6.95168e-07
314 29.3891 5.30895 0.818757 0 0 1 5.82397e-07
395 29.4381 6.18222 1.32215 0 0 1 6.18026e-07
394 29.5786 6.89782 0.506556 0 0 1 6.39969e-07
393 28.4687 6.20596 0.638705 0 0 1 6.37911e-07
16355 29.3764 6.15403 0.0802243 0 0 1 6.21746e-07
16276 28.4824 5.38983 0.0593421 0 0 1 5.98195e-07
318 30.9638 5.36842 0.595059 0 0 1 5.44094e-07
320 30.2161 5.45955 1.46815 0 0 1 5.70629e-07
397 30.396 6.18265 0.649784 0 0 1 5.87572e-07
399 31.2191 6.15522 1.38443 0 0 1 5.5089e-07
398 31.1996 6.95414 0.603462 0 0 1 5.70103e-07
321 31.7237 5.99629 0.4466 0 0 1 5.27169e-07
401 0.262037 7.63207 0.661897 0 0 1 1.24787e-07
402 0.831219 8.46352 0.619384 0 0 1 9.58114e-08
403 1.11227 7.86403 1.49715 0 0 1 1.43102e-07
404 0.357137 8.56267 1.47039 0 0 1 7.41539e-08
405 1.59282 7.76485 0.371909 0 0 1 1.58828e-07
408 1.72399 8.61744 1.46475 0 0 1 1.23274e-07
326 2.48812 7.14992 0.476357 0 0 1 2.13823e-07
406 2.19194 8.63357 0.399741 0 0 1 1.23954e-07
407 2.39431 7.81107 1.27731 0 0 1 1.84124e-07
412 3.01363 8.51454 0.935583 0 0 1 1.57896e-07
409 3.24429 7.77124 0.327075 0 0 1 1.89893e-07
410 3.81254 8.45907 0.0823137 0 0 1 1.6131e-07
411 3.97981 7.67014 1.24867 0 0 1 2.25957e-07
416 4.70466 8.25662 0.921836 0 0 1 2.05506e-07
413 4.6703 7.63714 0.247829 0 0 1 2.00247e-07
1250 3.81138 8.34862 1.7617 0 0 1 2.27588e-07
414 5.86958 8.34831 0.169952 0 0 1 1.85024e-07
415 5.48368 7.59077 1.03236 0 0 1 2.3567e-07
417 6.49364 7.53806 0.169221 0 0 1 1.81338e-07
420 6.39675 8.23981 1.04391 0 0 1 2.60392e-07
419 7.28581 7.76923 0.746382 0 0 1 2.20015e-07
424 8.28584 8.31381 0.868855 0 0 1 3.07914e-07
1258 7.27856 8.18372 1.70158 0 0 1 4.63683e-07
1261 8.05204 7.48787 1.56048 0 0 1 3.87132e-07
421 7.99888 7.60317 0.0282741 0 0 1 1.41506e-07
348 9.84301 7.222 0.723546 0 0 1 1.21731e-07
423 8.91198 7.6163 0.661819 0 0 1 1.87935e-07
428 9.73224 8.61968 0.693258 0 0 1 3.77899e-07
1262 9.0926 8.69907 1.44505 0 0 1 6.92902e-07
1265 9.64022 7.88932 1.60065 0 0 1 6.24546e-07
352 11.3159 7.14286 0.81076 0 0 1 7.53591e-08
427 10.573 7.94541 0.844426 0 0 1 3.00534e-07
1266 10.5876 8.70198 1.42562 0 0 1 9.31964e-07
1269 11.4056 7.80503 1.60313 0 0 1 7.89949e-07
429 11.2268 8.11853 0.0424206 0 0 1 1.15151e-07
356 12.706 7.28323 0.565953 0 0 1 -4.33511e-08
431 12.1779 8.23519 0.59093 0 0 1 2.80941e-07
1190 12.0637 7.15787 1.37782 0 0 1 3.62989e-07
1270 12.0886 8.68064 1.49058 0 0 1 1.24659e-06
1273 12.86 7.99586 1.47613 0 0 1 8.91805e-07
360 14.3372 7.3542 0.581188 0 0 1 -7.20639e-08
435 13.6168 8.09285 0.464747 0 0 1 1.57978e-07
1194 13.4579 7.34023 1.3415 0 0 1 4.28828e-07
1277 14.2471 8.1837 1.35264 0 0 1 9.58507e-07
362 16.4327 7.18498 0.277035 0 0 1 -1.64567e-07
364 15.6275 7.31142 0.92329 0 0 1 1.13122e-07
439 15.0689 8.29251 0.865791 0 0 1 5.42944e-07
443 16.26 8.16058 1.11194 0 0 1 7.76771e-07
1198 15.1451 7.52271 1.62503 0 0 1 8.7661e-07
441 15.8667 8.31538 0.152882 0 0 1 2.15241e-07
368 16.977 7.36266 1.11697 0 0 1 3.66666e-07
445 17.0682 8.10494 0.342416 0 0 1 3.16469e-07
447 17.7031 8.02395 1.02718 0 0 1 7.51617e-07
366 17.8159 7.16597 0.213199 0 0 1 -2.37334e-08
370 19.0044 7.33828 0.644696 0 0 1 3.32353e-07
451 18.9276 8.15337 1.18639 0 0 1 1.11036e-06
376 19.871 7.65754 1.32741 0 0 1 9.52502e-07
453 19.8034 8.14201 0.360846 0 0 1 7.53488e-07
449 18.4485 8.18998 0.168874 0 0 1 5.3921e-07
374 20.6989 7.46068 0.673597 0 0 1 6.05652e-07
455 20.6464 8.44061 1.03683 0 0 1 1.26339e-06
380 21.5412 7.67308 1.15059 0 0 1 9.23087e-07
457 21.6116 8.3447 0.258766 0 0 1 9.80521e-07
459 22.5866 8.17846 1.02113 0 0 1 1.08712e-06
1218 22.4171 7.50144 1.76003 0 0 1 1.11946e-06
378 22.3365 7.4847 0.386537 0 0 1 6.99276e-07
384 23.4448 7.32204 1.05171 0 0 1 7.91282e-07
461 23.4882 8.07561 0.386991 0 0 1 9.14515e-07
463 24.3436 8.10187 1.00296 0 0 1 9.66551e-07
1302 24.252 8.71814 1.68862 0 0 1 1.34527e-06
382 24.3394 7.32553 0.26941 0 0 1 7.33026e-07
388 25.1163 7.39493 1.25573 0 0 1 8.20559e-07
467 26.0201 8.00584 0.988981 0 0 1 8.54429e-07
1306 26.0182 8.62854 1.75815 0 0 1 1.04639e-06
386 26.0921 7.27882 0.368234 0 0 1 7.38467e-07
465 25.229 8.13249 0.307936 0 0 1 8.77178e-07
466 26.2731 8.58559 0.0892795 0 0 1 8.87934e-07
392 26.7831 7.11184 1.34403 0 0 1 7.4373e-07
470 27.9644 8.5048 0.429717 0 0 1 7.74225e-07
471 27.796 7.83841 1.21524 0 0 1 7.57547e-07
472 26.9763 8.65508 1.026 0 0 1 8.62751e-07
469 26.9962 7.78343 0.434736 0 0 1 7.71889e-07
396 28.6517 7.11334 1.2306 0 0 1 6.81478e-07
474 29.5945 8.35347 0.544573 0 0 1 6.76962e-07
475 29.4979 7.67815 1.27674 0 0 1 6.67147e-07
476 28.78 8.5589 1.1864 0 0 1 7.32027e-07
473 28.6953 7.71887 0.416099 0 0 1 7.03963e-07
400 30.3251 7.09189 1.17978 0 0 1 6.12889e-07
479 31.2505 7.82445 1.30183 0 0 1 5.77709e-07
480 30.43 8.492 1.18427 0 0 1 6.29904e-07
477 30.6369 7.87315 0.379985 0 0 1 6.14891e-07
478 31.425 8.62331 0.390616 0 0 1 5.75642e-07
482 1.12011 10.2844 0.274332 0 0 1 7.87571e-09
483 1.01317 9.3776 1.20652 0 0 1 5.47631e-08
484 0.252799 9.92942 0.898583 0 0 1 -1.70953e-09
481 0.367742 9.33528 0.122627 0 0 1 3.11386e-08
1322 0.809363 10.1269 1.75269 0 0 1 1.86613e-08
485 1.75621 9.44546 0.452278 0 0 1 6.95489e-08
488 1.82437 10.3747 0.969913 0 0 1 3.35336e-08
486 2.59098 10.2763 0.085475 0 0 1 4.98917e-08
487 2.37374 9.44618 1.22282 0 0 1 1.00457e-07
1326 2.7693 10.2345 1.66381 0 0 1 1.06935e-07
1329 3.19744 9.23705 1.65202 0 0 1 1.6273e-07
489 3.07166 9.37077 0.0799003 0 0 1 1.05434e-07
492 3.37654 10.0337 0.729693 0 0 1 9.64707e-08
491 3.93094 9.10888 0.853532 0 0 1 1.54768e-07
493 4.57576 9.17996 0.00738054 0 0 1 1.46299e-07
496 4.60574 9.9765 0.57045 0 0 1 1.40944e-07
1330 4.11906 9.97144 1.61726 0 0 1 2.02469e-07
1333 4.6721 9.06711 1.64815 0 0 1 2.57274e-07
495 5.32891 8.94358 0.658889 0 0 1 1.91379e-07
500 6.23894 9.79253 0.511734 0 0 1 2.28901e-07
1334 5.30958 9.83107 1.15775 0 0 1 2.40708e-07
1337 6.1516 9.05039 1.25468 0 0 1 3.07778e-07
1417 6.23432 10.5094 1.18103 0 0 1 3.74713e-07
499 7.16565 8.88006 0.708537 0 0 1 2.72481e-07
501 8.09529 9.04638 0.0803243 0 0 1 2.53749e-07
504 7.95864 9.92362 0.574307 0 0 1 4.01804e-07
1338 7.17875 9.7362 1.18767 0 0 1 4.56147e-07
1341 8.04512 9.1659 1.39509 0 0 1 5.94102e-07
503 8.93966 9.45323 0.724643 0 0 1 4.92986e-07
508 9.64524 10.3363 0.655458 0 0 1 7.65674e-07
1342 8.74984 10.2665 1.40038 0 0 1 1.02415e-06
1345 9.83109 9.58904 1.40609 0 0 1 1.11526e-06
432 11.3749 8.8469 0.730095 0 0 1 5.46824e-07
426 10.4029 8.88552 0.0401318 0 0 1 3.00792e-07
507 10.4641 9.681 0.652572 0 0 1 6.9712e-07
1346 10.6327 10.1669 1.62654 0 0 1 1.95669e-06
1349 11.3015 9.63392 1.31029 0 0 1 1.40777e-06
436 13.0077 8.96565 0.784914 0 0 1 7.24759e-07
511 12.1096 9.81382 0.683041 0 0 1 9.54316e-07
516 12.8214 10.4729 0.956446 0 0 1 1.68284e-06
1353 12.5446 9.61337 1.60517 0 0 1 2.19418e-06
1274 13.6911 8.84093 1.56398 0 0 1 1.70731e-06
440 14.4701 9.19799 0.757897 0 0 1 8.93365e-07
515 13.5317 9.67765 0.832312 0 0 1 1.16176e-06
1354 13.4981 10.4076 1.70251 0 0 1 3.45102e-06
517 14.2758 10.1517 0.213056 0 0 1 8.96093e-07
444 15.9037 9.16028 1.13634 0 0 1 1.49064e-06
1278 15.0542 9.06725 1.75899 0 0 1 2.51218e-06
519 15.1352 9.85695 1.0085 0 0 1 1.68891e-06
521 15.695 10.1815 0.252013 0 0 1 1.12725e-06
523 16.5108 9.95967 0.961385 0 0 1 1.91016e-06
442 16.5142 9.03194 0.259374 0 0 1 6.7512e-07
438 15.3042 9.20721 0.0901596 0 0 1 5.39895e-07
452 18.3025 8.89982 0.945834 0 0 1 1.36966e-06
448 17.0976 9.07244 1.12989 0 0 1 1.5652e-06
525 17.1586 10.029 0.208203 0 0 1 1.3944e-06
527 17.7795 9.8746 1.07593 0 0 1 2.26044e-06
446 17.7682 9.11168 0.116304 0 0 1 9.31946e-07
456 19.824 8.96577 1.07141 0 0 1 1.65604e-06
529 18.6032 9.73744 0.300893 0 0 1 1.57172e-06
531 19.512 9.90299 0.854946 0 0 1 2.17922e-06
532 18.7285 10.4599 1.15126 0 0 1 3.0627e-06
1369 18.6616 9.59178 1.71902 0 0 1 3.23938e-06
450 19.2484 8.96699 0.21222 0 0 1 1.12509e-06
533 19.9933 9.79276 0.0741074 0 0 1 1.72572e-06
535 20.935 9.81709 0.75738 0 0 1 1.97129e-06
1373 20.2549 9.67187 1.68581 0 0 1 3.00158e-06
454 20.7964 9.08959 0.209926 0 0 1 1.32919e-06
460 21.6354 9.04584 0.988062 0 0 1 1.56234e-06
1298 22.3978 8.89955 1.59942 0 0 1 1.76168e-06
539 22.8357 9.69763 0.812664 0 0 1 1.63108e-06
540 22.1027 10.5363 0.885967 0 0 1 2.25493e-06
1377 21.9208 9.7995 1.55985 0 0 1 2.41964e-06
1378 23.0372 10.5245 1.46863 0 0 1 2.33149e-06
458 22.7608 8.8789 0.203172 0 0 1 1.18763e-06
537 21.9756 9.81762 0.212287 0 0 1 1.66606e-06
464 23.4326 8.98916 0.982761 0 0 1 1.31353e-06
543 24.5164 9.57719 0.770078 0 0 1 1.27023e-06
1381 23.6928 9.61758 1.57968 0 0 1 1.7577e-06
1382 24.3768 10.3665 1.47692 0 0 1 1.74226e-06
1385 25.0639 9.53523 1.67582 0 0 1 1.39341e-06
544 23.6072 10.5557 0.630865 0 0 1 1.71103e-06
462 24.3139 8.82653 0.209732 0 0 1 1.06723e-06
542 24.443 10.3358 0.111844 0 0 1 1.39649e-06
468 25.2826 8.85964 1.01132 0 0 1 1.04934e-06
547 26.2242 9.39619 0.886869 0 0 1 1.00157e-06
548 25.3823 10.2668 0.835584 0 0 1 1.2469e-06
1386 25.969 10.3092 1.59113 0 0 1 1.27964e-06
1389 26.6473 9.44474 1.73991 0 0 1 1.0599e-06
545 25.6019 9.5236 0.179568 0 0 1 1.06442e-06
550 28.2864 10.1521 0.305686 0 0 1 7.9669e-07
551 27.9654 9.36029 0.955972 0 0 1 8.15879e-07
552 26.9946 10.1667 0.831492 0 0 1 9.57387e-07
1390 27.652 9.98124 1.54208 0 0 1 9.12628e-07
549 27.1863 9.38975 0.228902 0 0 1 8.80659e-07
554 29.6011 9.91583 0.329935 0 0 1 6.86482e-07
555 29.6827 9.14651 1.32922 0 0 1 6.83537e-07
556 28.87 9.79316 1.29073 0 0 1 7.52277e-07
553 28.8873 9.25551 0.267043 0 0 1 7.3752e-07
559 31.2512 9.29269 1.14102 0 0 1 5.79398e-07
560 30.3991 9.83704 1.03255 0 0 1 6.28353e-07
557 30.4987 9.13128 0.28695 0 0 1 6.3133e-07
558 31.218 9.96857 0.0415139 0 0 1 5.7886e-07
563 0.884512 11.0829 0.861523 0 0 1 -2.82043e-08
564 0.316702 11.8644 0.731786 0 0 1 -7.28751e-08
565 1.66813 11.1805 0.0305359 0 0 1 -1.41547e-08
1401 0.098137 10.8853 1.70976 0 0 1 -4.27998e-08
1402 1.0124 11.7705 1.43915 0 0 1 -3.53251e-08
568 1.88928 11.964 0.667831 0 0 1 -2.55553e-08
1405 1.72045 11.0234 1.57502 0 0 1 2.24962e-08
567 2.57589 10.9566 0.706094 0 0 1 3.17621e-08
572 3.31107 11.6497 0.704411 0 0 1 4.25251e-08
1406 2.52031 11.7603 1.41477 0 0 1 3.59563e-08
1409 3.53629 10.7906 1.44902 0 0 1 1.26058e-07
571 4.11171 10.9262 0.54676 0 0 1 9.43397e-08
576 4.7893 11.6903 0.339273 0 0 1 1.19241e-07
1410 4.19782 11.6479 1.31616 0 0 1 1.61141e-07
1413 4.81606 10.8431 1.47146 0 0 1 2.54871e-07
575 5.39446 10.7047 0.434956 0 0 1 1.7288e-07
580 6.16599 11.4414 0.388067 0 0 1 2.5825e-07
1414 5.53215 11.4076 1.24895 0 0 1 3.25063e-07
1497 6.25483 12.2082 1.12062 0 0 1 4.75377e-07
1495 5.4366 12.3207 1.67929 0 0 1 4.82978e-07
579 6.92392 10.7004 0.45868 0 0 1 3.23721e-07
584 7.93836 11.3929 0.7162 0 0 1 6.41394e-07
1418 7.02443 11.5602 1.11615 0 0 1 6.00067e-07
1421 7.6425 10.6328 1.36052 0 0 1 7.51768e-07
1501 8.04485 12.267 1.29365 0 0 1 1.18598e-06
583 8.7566 10.8781 0.688668 0 0 1 7.25974e-07
588 9.50684 11.8689 0.521039 0 0 1 1.06623e-06
1422 8.80274 11.7692 1.35269 0 0 1 1.45084e-06
1425 9.67504 11.1357 1.36857 0 0 1 1.65203e-06
512 11.2152 10.5961 0.711744 0 0 1 1.17583e-06
586 10.2833 12.2551 0.115963 0 0 1 1.21551e-06
587 10.3668 11.1422 0.680302 0 0 1 1.17412e-06
589 11.0548 11.5984 0.195087 0 0 1 1.17313e-06
1426 10.5173 11.8692 1.5323 0 0 1 2.73485e-06
1429 11.2341 11.2478 1.51783 0 0 1 2.71528e-06
1350 11.976 10.5949 1.59783 0 0 1 2.75818e-06
591 12.0902 11.4605 0.999578 0 0 1 2.12488e-06
593 12.5748 11.404 0.278268 0 0 1 1.30004e-06
1430 12.1121 12.3106 1.58777 0 0 1 4.14845e-06
1433 12.9977 11.6151 1.68274 0 0 1 4.33405e-06
510 11.7606 10.7148 0.0385403 0 0 1 9.10894e-07