ITEM: TIMESTEP
21000
ITEM: NUMBER OF ATOMS
32000
ITEM: BOX BOUNDS pp pp pp
0.0000000000000000e+00 3.1748021039364001e+01
0.0000000000000000e+00 3.1748021039364001e+01
0.0000000000000000e+00 3.1748021039364001e+01
ITEM: ATOMS id x y z c_phase c_nbond c_rho v_omega
4 0.183612 1.11287 0.467538 0 0 1.00066 2.04613e-06
83 1.07745 1.61925 0.779865 0 0 1.00066 4.1161e-06
842 0.766187 0.76182 1.40741 0 0 1.00066 2.63961e-06
921 0.110371 1.62139 1.37758 0 0 1.00066 2.57616e-06
3 0.731803 0.0367049 0.618311 0 0 1.00066 1.69931e-06
8 1.76207 0.723824 1.01314 0 0 1.00066 3.82291e-06
85 1.90111 1.38119 0.214256 0 0 1.00066 5.12928e-06
925 1.93822 1.54904 1.74958 0 0 1.00066 5.3794e-06
6 2.56521 0.600813 0.199431 0 0 1.00066 4.79018e-06
87 2.74958 1.38658 0.872233 0 0 1.00066 6.36432e-06
846 2.72742 0.664579 1.7339 0 0 1.00066 4.92315e-06
12 3.48945 0.727402 0.956039 0 0 1.00066 6.17663e-06
929 3.7262 1.49134 1.70653 0 0 1.00066 7.91765e-06
10 4.16933 0.625027 0.314472 0 0 1.00066 6.50604e-06
16 5.01503 0.297271 1.14874 0 0 1.00066 6.43473e-06
850 4.39596 0.693373 1.62878 0 0 1.00066 7.21738e-06
91 4.14274 1.60012 0.712107 0 0 1.00066 8.91488e-06
93 5.04174 1.3281 0.380754 0 0 1.00066 9.21601e-06
14 5.69861 0.354363 0.310951 0 0 1.00066 7.2323e-06
95 5.98779 1.01284 0.947143 0 0 1.00066 9.09959e-06
97 6.68879 1.08325 0.217028 0 0 1.00066 9.59717e-06
854 5.82465 0.160664 1.6955 0 0 1.00066 6.6133e-06
933 5.15284 1.42443 1.43523 0 0 1.00066 9.83787e-06
20 6.73787 0.0849872 0.866585 0 0 1.00066 6.74627e-06
937 6.77318 0.689799 1.6919 0 0 1.00066 8.56966e-06
24 8.28917 0.0826699 1.05757 0 0 1.00066 6.92035e-06
99 7.47314 0.899777 0.948036 0 0 1.00066 9.48048e-06
941 8.26013 0.928803 1.61397 0 0 1.00066 1.03424e-05
18 7.63433 0.33251 0.15181 0 0 1.00066 7.62836e-06
938 7.49358 1.71919 1.56526 0 0 1.00066 1.27149e-05
101 8.3744 1.0621 0.231036 0 0 1.00066 1.03147e-05
22 8.89553 0.181925 0.256803 0 0 1.00066 7.06069e-06
28 9.57944 0.0206905 0.900831 0 0 1.00066 5.72657e-06
103 9.14296 0.984116 1.09358 0 0 1.00066 1.01176e-05
945 9.69336 0.656073 1.76098 0 0 1.00066 8.37099e-06
105 9.77255 1.0492 0.104329 0 0 1.00066 1.00388e-05
108 9.99565 1.70321 1.09362 0 0 1.00066 1.30808e-05
107 10.4792 0.763624 0.830485 0 0 1.00066 8.69955e-06
949 11.4144 0.75211 1.41793 0 0 1.00066 8.28139e-06
946 10.7745 1.39667 1.72398 0 0 1.00066 1.18766e-05
26 10.2722 0.0722412 0.0799353 0 0 1.00066 5.8204e-06
112 11.3838 1.57295 0.777137 0 0 1.00066 1.24124e-05
36 12.8993 0.0435103 0.639277 0 0 1.00066 3.77484e-06
111 12.1644 0.857156 0.516121 0 0 1.00066 8.24651e-06
870 12.1581 0.0931497 1.30577 0 0 1.00066 4.76008e-06
953 12.8766 1.00273 1.37507 0 0 1.00066 8.70124e-06
950 12.1769 1.69061 1.46488 0 0 1.00066 1.27927e-05
40 14.4153 0.246139 0.778584 0 0 1.00066 3.83214e-06
115 13.7332 0.986595 0.841705 0 0 1.00066 7.98619e-06
117 14.2601 1.44815 0.156042 0 0 1.00066 1.03233e-05
874 13.6533 0.22371 1.63579 0 0 1.00066 4.08082e-06
957 14.5335 1.08407 1.48142 0 0 1.00066 8.04371e-06
119 15.0902 1.51272 0.668496 0 0 1.00066 1.00449e-05
44 15.8176 0.776614 0.790494 0 0 1.00066 5.99778e-06
878 15.2045 0.43857 1.6396 0 0 1.00066 4.18827e-06
882 16.6458 0.785223 1.3476 0 0 1.00066 5.8307e-06
961 15.8416 1.50619 1.40289 0 0 1.00066 1.02642e-05
38 15.1918 0.677846 0.071863 0 0 1.00066 5.38561e-06
123 16.762 1.62793 0.689163 0 0 1.00066 1.05173e-05
48 17.3642 0.853671 0.560522 0 0 1.00066 6.10783e-06
127 18.1461 1.76789 0.75505 0 0 1.00066 1.16227e-05
886 18.0256 0.922411 1.42651 0 0 1.00066 6.93409e-06
47 18.1553 0.107001 0.693711 0 0 1.00066 2.69816e-06
51 19.5462 0.263875 0.671632 0 0 1.00066 4.36948e-06
52 18.8891 0.955768 0.692608 0 0 1.00066 7.23677e-06
889 19.0384 0.391284 1.54934 0 0 1.00066 4.23838e-06
890 19.7394 1.24139 1.69549 0 0 1.00066 9.78017e-06
969 18.882 1.73879 1.50102 0 0 1.00066 1.18283e-05
55 21.1678 0.670852 1.07402 0 0 1.00066 6.83265e-06
56 20.353 1.07212 0.968047 0 0 1.00066 8.6799e-06
54 21.2826 1.10278 0.215242 0 0 1.00066 9.40678e-06
893 20.4487 0.179429 1.4321 0 0 1.00066 4.94794e-06
53 20.2808 0.16128 0.0722404 0 0 1.00066 4.73374e-06
57 22.0617 0.630717 0.539583 0 0 1.00066 7.51315e-06
59 22.8683 0.796313 1.40479 0 0 1.00066 8.37728e-06
60 22.2645 1.52997 1.33218 0 0 1.00066 1.18324e-05
58 23.0254 1.43132 0.467831 0 0 1.00066 1.09203e-05
63 24.3114 0.753179 1.42363 0 0 1.00066 8.56693e-06
61 23.6211 0.716064 0.573483 0 0 1.00066 8.27566e-06
62 24.5547 1.54767 0.74568 0 0 1.00066 1.11467e-05
64 23.6322 1.62011 1.3921 0 0 1.00066 1.19237e-05
65 25.0105 0.672236 0.540014 0 0 1.00066 8.3031e-06
67 26.0459 0.711364 1.16711 0 0 1.00066 7.90722e-06
68 25.2837 1.49746 1.46089 0 0 1.00066 1.09162e-05
66 25.9849 1.285 0.425492 0 0 1.00066 9.61658e-06
17548 25.1696 0.130824 1.36093 0 0 1.00066 6.60572e-06
70 27.6826 1.55644 0.386213 0 0 1.00066 8.54866e-06
71 27.6581 0.774349 0.872399 0 0 1.00066 6.90917e-06
72 26.8402 1.34262 1.25475 0 0 1.00066 8.9364e-06
69 26.819 0.548116 0.238111 0 0 1.00066 7.08804e-06
913 28.4167 0.579144 1.41061 0 0 1.00066 5.73158e-06
76 28.7385 1.45107 0.733989 0 0 1.00066 6.88026e-06
914 29.4505 1.13617 1.56786 0 0 1.00066 5.60719e-06
917 29.8344 0.315487 1.45687 0 0 1.00066 3.76747e-06
75 29.3013 0.531892 0.617586 0 0 1.00066 4.61262e-06
841 31.6043 0.296644 1.25647 0 0 1.00066 1.61078e-06
79 30.7404 0.570361 0.476595 0 0 1.00066 3.01901e-06
80 30.1777 1.32573 0.772873 0 0 1.00066 4.77591e-06
918 30.9261 1.05205 1.38848 0 0 1.00066 3.45085e-06
82 1.26219 2.37564 0.121166 0 0 1.00066 5.56185e-06
84 0.285304 2.39134 0.808174 0 0 1.00066 3.81801e-06
163 1.48168 3.14926 0.942582 0 0 1.00066 7.07524e-06
922 1.28964 2.29837 1.58791 0 0 1.00066 5.55355e-06
1001 0.572152 3.02673 1.54908 0 0 1.00066 4.99559e-06
161 0.519951 3.09893 0.129606 0 0 1.00066 4.90215e-06
88 2.06647 2.29942 0.783414 0 0 1.00066 6.80611e-06
167 2.86742 3.10827 0.855693 0 0 1.00066 9.90825e-06
926 2.82621 2.07326 1.53648 0 0 1.00066 7.8737e-06
86 2.88134 2.22058 0.0525998 0 0 1.00066 8.21917e-06
1005 2.30436 2.9614 1.7529 0 0 1.00066 8.37928e-06
1009 3.49777 3.19552 1.6464 0 0 1.00066 1.16231e-05
92 3.55845 2.34989 0.782321 0 0 1.00066 9.71336e-06
171 4.43211 3.05899 0.754458 0 0 1.00066 1.27181e-05
930 4.33728 2.38734 1.57955 0 0 1.00066 1.10726e-05
96 5.10314 2.282 0.818358 0 0 1.00066 1.2085e-05
94 5.84859 2.13822 0.140383 0 0 1.00066 1.25834e-05
175 5.91303 2.87549 0.954918 0 0 1.00066 1.50496e-05
934 6.03825 1.88903 1.4883 0 0 1.00066 1.19491e-05
173 5.23433 3.02674 0.0102362 0 0 1.00066 1.44755e-05
100 6.74743 1.85764 0.780511 0 0 1.00066 1.24552e-05
1017 6.8035 2.713 1.5429 0 0 1.00066 1.57904e-05
177 6.88695 2.60365 0.125398 0 0 1.00066 1.50525e-05
98 7.65469 1.88924 0.134173 0 0 1.00066 1.32387e-05
104 8.31012 1.85237 0.935497 0 0 1.00066 1.36122e-05
179 7.6839 2.6999 0.908044 0 0 1.00066 1.66889e-05
180 6.82679 3.4208 0.783056 0 0 1.00066 1.81982e-05
1018 7.76728 3.48444 1.50097 0 0 1.00066 2.03742e-05
1021 8.48964 2.62707 1.64229 0 0 1.00066 1.73552e-05
181 8.56073 2.61571 0.0388938 0 0 1.00066 1.6724e-05
102 9.12431 1.76774 0.247077 0 0 1.00066 1.33376e-05
183 9.23829 2.61699 0.930864 0 0 1.00066 1.78425e-05
942 9.27154 1.8717 1.71389 0 0 1.00066 1.45202e-05
185 9.88458 2.58202 0.207321 0 0 1.00066 1.75701e-05
1022 9.47123 3.39523 1.50229 0 0 1.00066 2.26789e-05
184 8.57895 3.49562 0.705286 0 0 1.00066 2.10685e-05
182 9.38224 3.50429 0.0545031 0 0 1.00066 2.20362e-05
188 10.2801 3.24665 0.883627 0 0 1.00066 2.13083e-05
106 10.5237 1.80957 0.198947 0 0 1.00066 1.36804e-05
187 10.9448 2.50053 0.91948 0 0 1.00066 1.71644e-05
1026 11.1244 3.27126 1.59455 0 0 1.00066 2.2106e-05
1029 11.7951 2.56789 1.59314 0 0 1.00066 1.84208e-05
192 11.8395 3.36348 0.807112 0 0 1.00066 2.27256e-05
116 12.9309 1.7589 0.606112 0 0 1.00066 1.26435e-05
191 12.2678 2.4237 0.743023 0 0 1.00066 1.73277e-05
1033 13.2572 2.82078 1.69568 0 0 1.00067 1.95423e-05
196 12.944 3.39958 0.816834 0 0 1.00066 2.34272e-05
195 13.6087 2.86643 0.840724 0 0 1.00066 1.89838e-05
954 13.657 1.85112 1.47524 0 0 1.00066 1.2832e-05
120 14.3587 2.33948 0.924986 0 0 1.00066 1.56748e-05
1037 14.5089 3.27488 1.55694 0 0 1.00066 2.23235e-05
197 14.575 3.12913 0.0431907 0 0 1.00066 2.05219e-05
114 13.715 2.15709 0.0528006 0 0 1.00066 1.49699e-05
199 15.1824 3.38011 0.873655 0 0 1.00066 2.23355e-05
958 15.1343 2.27169 1.44616 0 0 1.00066 1.52687e-05
118 15.193 2.46256 0.133454 0 0 1.00066 1.61842e-05
124 16.0362 2.46119 0.703773 0 0 1.00066 1.5881e-05
962 16.6728 2.55129 1.52999 0 0 1.00066 1.68092e-05
1041 15.859 3.2669 1.5087 0 0 1.00066 2.15999e-05
201 16.0208 3.27072 0.0224709 0 0 1.00066 2.16368e-05
203 16.761 3.27541 0.674826 0 0 1.00066 2.14011e-05
965 17.4728 1.87521 1.56408 0 0 1.00066 1.23808e-05
128 17.403 2.48362 0.680302 0 0 1.00066 1.60239e-05
207 18.3452 3.12984 0.714953 0 0 1.00066 2.01202e-05
966 18.3644 2.63026 1.59672 0 0 1.00066 1.7481e-05
1045 17.5299 3.2577 1.50447 0 0 1.00065 2.12843e-05
131 19.7477 1.83027 0.843405 0 0 1.00066 1.23638e-05
129 19.0799 1.81734 0.00765793 0 0 1.00066 1.19339e-05
132 19.2134 2.62474 1.01625 0 0 1.00066 1.70583e-05
209 19.2745 3.27159 0.19207 0 0 1.00066 2.11245e-05
130 19.9068 2.61311 0.111258 0 0 1.00066 1.69602e-05
133 20.5438 1.82409 0.204342 0 0 1.00066 1.25894e-05
135 21.3023 1.98165 0.961676 0 0 1.00066 1.36755e-05
973 20.565 2.1 1.74184 0 0 1.00066 1.4599e-05
134 21.4681 2.7821 0.459165 0 0 1.00066 1.75022e-05
136 20.5314 2.78044 1.09711 0 0 1.00066 1.8404e-05
213 20.7801 3.36296 0.328882 0 0 1.00066 2.13468e-05
137 22.1856 1.98034 0.517082 0 0 1.00066 1.36351e-05
139 23.1216 2.45312 1.51341 0 0 1.00066 1.56427e-05
138 23.2381 3.01508 0.729646 0 0 1.00066 1.76167e-05
140 22.3657 2.89298 1.23698 0 0 1.00066 1.84216e-05
141 23.9108 2.20913 0.621609 0 0 1.00066 1.37571e-05
143 24.6252 2.3815 1.58454 0 0 1.00066 1.45506e-05
142 24.6012 3.08667 0.773078 0 0 1.00066 1.69677e-05
144 23.9796 3.30879 1.53319 0 0 1.00066 1.89249e-05
16108 25.2151 3.20993 0.0059956 0 0 1.00066 1.64919e-05
147 26.0909 2.09471 1.35643 0 0 1.00066 1.20261e-05
149 26.7045 2.11655 0.51243 0 0 1.00066 1.11302e-05
145 25.3088 2.22592 0.526341 0 0 1.00066 1.3096e-05
146 26.0246 2.97848 0.699881 0 0 1.00066 1.47562e-05
148 25.4037 2.96222 1.52133 0 0 1.00066 1.54786e-05
152 26.7442 2.91733 1.52821 0 0 1.00066 1.35618e-05
151 27.6528 2.27116 1.22888 0 0 1.00066 1.01365e-05
153 28.4079 2.33755 0.344945 0 0 1.00066 9.18664e-06
150 27.2981 3.00541 0.634051 0 0 1.00066 1.2513e-05
233 28.2161 3.50248 0.337791 0 0 1.00066 1.20659e-05
156 28.4506 3.01003 1.19604 0 0 1.00066 1.05997e-05
993 28.6448 1.96194 1.50461 0 0 1.00066 8.19961e-06
155 29.5764 2.20882 0.880874 0 0 1.00066 7.04482e-06
154 29.3736 2.87291 0.2864 0 0 1.00066 8.55414e-06
235 29.4698 3.45688 1.18077 0 0 1.00066 9.37453e-06
997 30.0896 1.95285 1.70336 0 0 1.00066 6.13072e-06
159 31.0405 2.05468 0.922374 0 0 1.00066 4.52649e-06
160 30.3545 2.8372 0.997782 0 0 1.00066 6.46178e-06
239 31.2342 3.41288 0.972725 0 0 1.00066 5.82389e-06
998 31.1604 2.76483 1.72667 0 0 1.00066 5.20231e-06
237 30.3274 3.38365 0.150788 0 0 1.00066 7.57504e-06
157 30.5302 2.01764 0.032675 0 0 1.00066 5.30672e-06
158 31.3087 2.72055 0.0769019 0 0 1.00066 4.84272e-06
164 0.520605 3.77735 0.917327 0 0 1.00066 5.52965e-06
241 0.404899 4.60951 0.472279 0 0 1.00066 6.08456e-06
243 1.40122 4.58503 0.983663 0 0 1.00066 8.68611e-06
162 1.27394 3.79846 0.068879 0 0 1.00066 7.15036e-06
244 0.386509 5.27266 1.27624 0 0 1.00066 6.67439e-06
168 2.09959 3.91847 0.849892 0 0 1.00066 9.3511e-06
247 2.83082 4.67464 1.12275 0 0 1.00066 1.2554e-05
166 2.91207 3.96296 0.198989 0 0 1.00066 1.15549e-05
245 2.18012 4.8215 0.281134 0 0 1.00066 1.07552e-05
249 3.71724 4.61431 0.167591 0 0 1.00066 1.48504e-05
172 3.75175 3.84466 0.884838 0 0 1.00066 1.30416e-05
251 4.3864 4.59051 1.15137 0 0 1.00066 1.67677e-05
170 4.53555 3.89874 0.144015 0 0 1.00066 1.50664e-05
250 4.54945 5.16152 0.320774 0 0 1.00066 1.83007e-05
176 5.20996 3.69843 1.15307 0 0 1.00066 1.63135e-05
253 5.34483 4.41425 0.326742 0 0 1.00066 1.85997e-05
174 6.06873 3.59736 0.178318 0 0 1.00066 1.78084e-05
255 6.06773 4.35695 1.02762 0 0 1.00066 2.0393e-05
254 6.1637 5.03284 0.281359 0 0 1.00066 2.25226e-05
256 5.32205 5.08984 1.28757 0 0 1.00066 2.06289e-05
1097 7.04739 4.13079 1.64595 0 0 1.00066 2.19828e-05
260 7.07236 4.75156 0.864407 0 0 1.00066 2.38386e-05
259 7.79824 4.07058 0.562392 0 0 1.00066 2.27538e-05
258 7.77008 4.94346 0.0314645 0 0 1.00066 2.64215e-05
1098 7.86535 4.96545 1.49354 0 0 1.00066 2.7284e-05
1101 8.64687 4.1975 1.47637 0 0 1.00066 2.49858e-05
264 8.68501 4.9005 0.699585 0 0 1.00066 2.82493e-05
263 9.53234 4.18211 0.811137 0 0 1.00066 2.60425e-05
1102 9.57815 4.90983 1.58254 0 0 1.00066 3.09799e-05
262 9.52584 5.06302 0.0212817 0 0 1.00066 3.07542e-05
268 10.3126 4.94207 0.797759 0 0 1.00066 3.14898e-05
265 10.3201 4.16673 0.12274 0 0 1.00066 2.65656e-05
1105 10.356 3.98632 1.65752 0 0 1.00066 2.62849e-05
267 11.0995 4.29688 0.897292 0 0 1.00066 2.81111e-05
186 11.0263 3.51949 0.170472 0 0 1.00066 2.29769e-05
1106 11.1024 4.86584 1.75456 0 0 1.00066 3.24149e-05
266 11.0679 5.19734 0.0159174 0 0 1.00066 3.37188e-05
269 11.8997 4.40931 0.214409 0 0 1.00066 2.86861e-05
1109 11.893 4.09866 1.69246 0 0 1.00066 2.86854e-05
272 11.987 4.96989 1.00868 0 0 1.00066 3.36044e-05
271 12.7414 4.31141 1.00703 0 0 1.00066 2.97176e-05
273 13.1704 4.3991 0.058539 0 0 1.00066 2.95483e-05
1113 13.4054 4.74927 1.69333 0 0 1.00066 3.32162e-05
275 13.8062 4.54608 0.784853 0 0 1.00066 3.11474e-05
200 14.5373 4.01716 0.697047 0 0 1.00066 2.6792e-05
1034 14.0556 4.05999 1.59163 0 0 1.00066 2.82002e-05
1117 14.8563 5.00584 1.52576 0 0 1.00066 3.58122e-05
277 14.7462 4.78533 0.0819097 0 0 1.00066 3.19984e-05
194 13.733 3.57815 0.00638726 0 0 1.00066 2.38429e-05
279 15.596 5.00312 0.819105 0 0 1.00066 3.40722e-05
198 15.5044 4.15412 0.10835 0 0 1.00066 2.73461e-05
1038 15.5843 4.37692 1.59917 0 0 1.00066 2.9789e-05
204 16.2157 4.09533 0.910195 0 0 1.00066 2.72927e-05
281 16.4689 4.82805 0.176305 0 0 1.00066 3.20032e-05
1121 16.5015 5.09408 1.65299 0 0 1.00066 3.59307e-05
1042 16.896 4.06008 1.68052 0 0 1.00066 2.79243e-05
283 17.1872 4.72584 0.908979 0 0 1.00066 3.15692e-05
208 17.7874 3.99464 0.807973 0 0 1.00066 2.58561e-05
285 18.0085 4.78199 0.0330339 0 0 1.00066 3.13522e-05
1046 18.4474 3.87323 1.65617 0 0 1.00066 2.58705e-05
287 18.6494 4.74187 1.09485 0 0 1.00066 3.1573e-05
206 18.6364 4.07987 0.0757086 0 0 1.00066 2.58673e-05
212 19.3339 3.99702 0.963261 0 0 1.00066 2.57624e-05
289 19.3873 4.91936 0.358245 0 0 1.00066 3.20189e-05
210 20.0572 4.09307 0.250108 0 0 1.00066 2.59378e-05
211 20.1163 3.5581 1.27405 0 0 1.00066 2.32004e-05
291 20.2223 5.02411 1.1162 0 0 1.00066 3.20136e-05
215 21.7057 3.6925 1.39135 0 0 1.00066 2.23415e-05
216 20.8817 4.19951 1.229 0 0 1.00066 2.60495e-05
295 21.4051 5.15282 1.37576 0 0 1.00066 3.21659e-05
214 21.5463 4.35526 0.51716 0 0 1.00066 2.62552e-05
293 20.6969 5.17012 0.352037 0 0 1.00066 3.17873e-05
217 22.3429 3.61708 0.607217 0 0 1.00066 2.21102e-05
16179 23.0569 3.82163 0.0472108 0 0 1.00066 2.16318e-05
219 23.2113 4.04958 1.4095 0 0 1.00066 2.29562e-05
220 22.3809 4.57343 1.31156 0 0 1.00066 2.71245e-05
218 23.0669 4.79375 0.538784 0 0 1.00066 2.64251e-05
223 24.8039 3.9536 1.55762 0 0 1.00066 2.03989e-05
221 23.9372 4.05998 0.773177 0 0 1.00066 2.17996e-05
222 24.7193 4.78341 0.635005 0 0 1.00066 2.34195e-05
224 23.907 5.0035 1.34203 0 0 1.00066 2.67006e-05
228 25.4046 4.92532 1.59435 0 0 1.00066 2.27241e-05
227 26.0189 3.8916 1.51969 0 0 1.00066 1.7819e-05
229 26.4649 3.87408 0.595843 0 0 1.00066 1.65472e-05
225 25.382 4.05785 0.776201 0 0 1.00066 1.91969e-05
232 26.6947 4.67296 1.37412 0 0 1.00066 1.84266e-05
226 25.894 4.82088 0.412476 0 0 1.00066 2.05533e-05
231 27.4675 3.67605 1.41324 0 0 1.00066 1.39938e-05
311 27.6741 5.222 1.40216 0 0 1.00066 1.72762e-05
236 28.2441 4.26485 1.11195 0 0 1.00066 1.38537e-05
230 27.3653 4.38121 0.582272 0 0 1.00066 1.61944e-05
313 28.5812 5.02089 0.700577 0 0 1.00066 1.3777e-05
234 29.1832 3.99991 0.475096 0 0 1.00066 1.08129e-05
315 29.3715 4.74287 1.31832 0 0 1.00066 1.1548e-05
240 30.2437 4.20485 1.03033 0 0 1.00066 8.65943e-06
238 31.2645 4.05562 0.35995 0 0 1.00066 6.01968e-06
317 30.4794 4.82417 0.477751 0 0 1.00066 8.1583e-06
319 31.2497 4.68016 1.39256 0 0 1.00066 6.48615e-06
242 1.21656 5.46386 0.460144 0 0 1.00066 8.80594e-06
323 1.12668 6.14572 1.27696 0 0 1.00066 9.10812e-06
324 0.593343 6.91775 1.49216 0 0 1.00066 7.94805e-06
322 1.31073 6.85802 0.568548 0 0 1.00066 1.00571e-05
321 0.304713 6.01976 0.4506 0 0 1.00066 6.66731e-06
248 1.85191 5.39172 1.36882 0 0 1.00066 1.09192e-05
328 2.05497 6.87264 1.24224 0 0 1.00066 1.27567e-05
325 2.21825 6.04546 0.503124 0 0 1.00066 1.25668e-05
327 2.62805 5.97259 1.39779 0 0 1.00066 1.41235e-05
246 3.00648 5.39444 0.273534 0 0 1.00066 1.39391e-05
326 2.84478 6.91687 0.467134 0 0 1.00066 1.5858e-05
252 3.46306 5.38388 1.2844 0 0 1.00066 1.58484e-05
332 3.62148 6.69189 1.14075 0 0 1.00066 1.82161e-05
329 3.76596 5.99837 0.480308 0 0 1.00066 1.74998e-05
331 4.50585 5.7684 1.22249 0 0 1.00066 1.99275e-05
330 4.40022 6.6827 0.227169 0 0 1.00066 2.12846e-05
336 5.2061 6.43601 1.15781 0 0 1.00066 2.42278e-05
333 5.23763 5.87988 0.318357 0 0 1.00066 2.24236e-05
335 6.11323 5.81041 0.956896 0 0 1.00066 2.56736e-05
334 5.99841 6.6172 0.149255 0 0 1.00066 2.74917e-05
337 6.84756 5.65666 0.141775 0 0 1.00066 2.66391e-05
340 6.93413 6.4044 0.966309 0 0 1.00066 3.07367e-05
1177 6.93576 5.55553 1.59801 0 0 1.00066 2.7412e-05
339 7.80829 5.69842 0.759301 0 0 1.00066 3.00608e-05
1178 7.82108 6.35355 1.59521 0 0 1.00066 3.40856e-05
344 8.5797 6.37371 0.710888 0 0 1.00066 3.55329e-05
1181 8.76799 5.65609 1.49755 0 0 1.00066 3.31799e-05
343 9.45414 5.74239 0.742333 0 0 1.00066 3.44985e-05
1182 9.69753 6.47644 1.46332 0 0 1.00066 4.04877e-05
1261 8.67024 6.96246 1.55219 0 0 1.00066 4.02267e-05
1185 10.3658 5.74434 1.48225 0 0 1.00066 3.74833e-05
345 10.3491 5.83471 0.0890067 0 0 1.00066 3.66761e-05
347 11.2175 5.65147 0.932652 0 0 1.00066 3.68555e-05
346 11.1887 6.55735 0.126196 0 0 1.00066 4.30307e-05
1186 11.1641 6.50898 1.49302 0 0 1.00066 4.45175e-05
348 10.4681 6.73902 0.728722 0 0 1.00066 4.33495e-05
349 11.9725 6.02115 0.0612386 0 0 1.00066 4.01483e-05
352 12.0118 6.76975 0.808431 0 0 1.00066 4.6875e-05
270 12.6235 5.32439 0.187507 0 0 1.00066 3.57461e-05
276 13.356 5.57198 0.862778 0 0 1.00066 3.85346e-05
351 12.4574 5.91744 1.05095 0 0 1.00066 4.10466e-05
1190 12.874 6.83925 1.38161 0 0 1.00066 4.97141e-05
274 13.9658 5.3661 0.0325713 0 0 1.00066 3.70442e-05
1114 14.0565 5.68675 1.57743 0 0 1.00066 4.08369e-05
355 14.0988 6.3712 0.794777 0 0 1.00066 4.47871e-05
280 14.7702 5.61381 0.774337 0 0 1.00066 3.95713e-05
357 14.8725 6.28536 0.0351651 0 0 1.00066 4.4233e-05
1197 15.1053 6.53196 1.43191 0 0 1.00066 4.88384e-05
278 15.6875 5.60692 0.0424549 0 0 1.00066 3.84151e-05
284 16.5499 5.79643 0.942799 0 0 1.00066 4.02496e-05
359 15.8042 6.45293 0.803696 0 0 1.00066 4.62429e-05
1118 15.8658 5.85283 1.69456 0 0 1.00066 4.25694e-05
361 16.4232 6.39598 0.0497321 0 0 1.00066 4.47528e-05
363 17.2457 6.60365 1.15172 0 0 1.00066 4.65365e-05
282 17.2803 5.56635 0.266745 0 0 1.00066 3.71964e-05
288 17.7891 5.61236 1.2423 0 0 1.00066 3.87259e-05
365 17.8226 6.47441 0.398233 0 0 1.00066 4.49493e-05
367 18.4008 6.50782 1.35879 0 0 1.00066 4.57858e-05
286 18.4893 5.57467 0.52075 0 0 1.00066 3.73636e-05
292 19.4028 5.60216 1.20047 0 0 1.00066 3.7487e-05
369 19.0869 6.55137 0.617766 0 0 1.00066 4.40954e-05
371 20.0239 6.97013 1.34832 0 0 1.00066 4.67837e-05
290 20.0871 6.12322 0.627772 0 0 1.00066 3.95984e-05
294 21.3681 6.22316 0.645943 0 0 1.00066 3.77634e-05
296 20.7929 6.03976 1.38917 0 0 1.00066 3.87124e-05
297 22.1245 5.41889 0.788475 0 0 1.00066 3.18342e-05
299 23.0025 5.65284 1.28717 0 0 1.00066 3.20453e-05
300 22.238 6.36835 1.36798 0 0 1.00066 3.78264e-05
16260 22.2676 6.2217 0.0551183 0 0 1.00066 3.57968e-05
298 23.1951 6.35337 0.651852 0 0 1.00066 3.39086e-05
301 23.9926 5.55587 0.539079 0 0 1.00066 2.80354e-05
303 24.808 5.78052 1.44017 0 0 1.00066 2.74242e-05
304 23.9979 6.41936 1.28452 0 0 1.00066 3.26355e-05
302 24.6316 6.50323 0.432515 0 0 1.00066 3.06072e-05
305 25.2829 5.70076 0.568122 0 0 1.00066 2.52881e-05
307 26.1006 5.58687 1.35463 0 0 1.00066 2.2963e-05
306 26.1213 6.31889 0.694523 0 0 1.00066 2.44549e-05
308 25.573 6.52826 1.65232 0 0 1.00066 2.791e-05
309 26.8718 5.36656 0.643434 0 0 1.00066 1.97604e-05
312 27.0862 6.26797 1.46936 0 0 1.00066 2.12822e-05
310 27.8645 5.8986 0.712338 0 0 1.00066 1.74619e-05
389 27.1583 6.78867 0.640115 0 0 1.00066 2.17715e-05
391 28.0771 6.82701 1.37266 0 0 1.00066 1.85404e-05
316 28.7166 5.82292 1.46651 0 0 1.00066 1.51255e-05
314 29.6984 5.52248 0.813532 0 0 1.00066 1.13433e-05
395 29.7792 6.41671 1.31731 0 0 1.00066 1.20884e-05
393 28.8354 6.51503 0.652521 0 0 1.00066 1.5484e-05
16355 29.7132 6.36319 0.0755882 0 0 1.00066 1.23822e-05
16276 28.81 5.67785 0.0452189 0 0 1.00066 1.40586e-05
318 31.266 5.44544 0.591551 0 0 1.00066 7.18732e-06
320 30.5296 5.60049 1.45102 0 0 1.00066 9.069e-06
397 30.7144 6.32243 0.639235 0 0 1.00066 8.98172e-06
399 31.5356 6.21557 1.3798 0 0 1.00066 6.64629e-06
398 31.5413 7.00987 0.606393 0 0 1.00066 6.31587e-06
401 0.611207 7.6262 0.64959 0 0 1.00066 7.71152e-06
402 1.20347 8.3958 0.600071 0 0 1.00066 1.0103e-05
403 1.45971 7.74423 1.48157 0 0 1.00066 1.10756e-05
404 0.702231 8.52721 1.46172 0 0 1.00066 8.03012e-06
478 0.0247846 8.65868 0.395757 0 0 1.00066 5.54174e-06
405 1.95575 7.62016 0.382958 0 0 1.00066 1.25732e-05
408 2.09837 8.44129 1.45612 0 0 1.00066 1.41964e-05
406 2.58137 8.40429 0.396136 0 0 1.00066 1.60445e-05
407 2.77849 7.58538 1.27836 0 0 1.00066 1.63236e-05
412 3.42497 8.22114 0.936651 0 0 1.00066 2.00606e-05
409 3.6371 7.46171 0.328631 0 0 1.00066 1.96035e-05
410 4.23738 8.10103 0.0661972 0 0 1.00067 2.32733e-05
411 4.40685 7.28255 1.20922 0 0 1.00067 2.2524e-05
491 4.34701 8.71409 0.851737 0 0 1.00066 2.50091e-05
413 5.12568 7.26045 0.228483 0 0 1.00066 2.51444e-05
1333 5.13436 8.59841 1.6283 0 0 1.00066 2.99347e-05
416 5.14796 7.85246 0.943074 0 0 1.00067 2.73378e-05
414 6.35955 7.87076 0.190837 0 0 1.00066 3.23345e-05
415 5.95672 7.13311 1.00272 0 0 1.00066 2.85635e-05
495 5.79521 8.48135 0.639972 0 0 1.00067 3.18729e-05
1337 6.66324 8.5214 1.24387 0 0 1.00067 3.76296e-05
420 6.92482 7.68069 1.04729 0 0 1.00066 3.47447e-05
417 7.00083 7.08789 0.15115 0 0 1.00066 3.30885e-05
419 7.84669 7.23673 0.7344 0 0 1.00066 3.72377e-05
1258 7.8449 7.60016 1.68409 0 0 1.00066 3.95118e-05
499 7.70021 8.32187 0.720187 0 0 1.00066 4.05626e-05
421 8.58259 7.11908 0.0124744 0 0 1.00066 3.90883e-05
424 8.85867 7.7771 0.86772 0 0 1.00066 4.39136e-05
423 9.53726 7.12679 0.665805 0 0 1.00066 4.2435e-05
1262 9.71743 8.10629 1.4336 0 0 1.00066 5.05328e-05
501 8.68295 8.48032 0.077237 0 0 1.00066 4.59198e-05
1341 8.63052 8.57048 1.38772 0 0 1.00066 4.77725e-05
1265 10.3733 7.36238 1.58487 0 0 1.00066 4.85503e-05
428 10.4098 8.10092 0.69737 0 0 1.00066 5.18518e-05
427 11.2831 7.47638 0.829209 0 0 1.00066 5.04744e-05
1266 11.3152 8.2464 1.43271 0 0 1.00066 5.75833e-05
426 11.1042 8.37343 0.0154618 0 0 1.00066 5.52026e-05
429 11.9538 7.70259 0.0376591 0 0 1.00066 5.30961e-05
432 12.088 8.40929 0.725025 0 0 1.00066 5.90941e-05
1269 12.1481 7.41606 1.57911 0 0 1.00066 5.42598e-05
431 12.9392 7.87808 0.601259 0 0 1.00066 5.61771e-05
1270 12.8697 8.31763 1.50614 0 0 1.00066 6.2276e-05
356 13.4787 7.04562 0.586843 0 0 1.00066 5.03997e-05
1273 13.6641 7.7368 1.47965 0 0 1.00066 5.92262e-05
435 14.421 7.93052 0.507382 0 0 1.00066 5.85729e-05
1194 14.3042 7.13793 1.37897 0 0 1.00066 5.25683e-05
1274 14.5246 8.68816 1.57031 0 0 1.00066 6.88249e-05
436 13.7625 8.67343 0.782418 0 0 1.00066 6.48107e-05
360 15.1087 7.25318 0.630894 0 0 1.00066 5.33864e-05
1277 15.117 8.037 1.37415 0 0 1.00066 6.15586e-05
364 16.4431 7.34819 0.886583 0 0 1.00066 5.25848e-05
439 15.9347 8.26831 0.87405 0 0 1.00066 6.20271e-05
1198 15.9891 7.52649 1.66203 0 0 1.00066 5.79016e-05
441 16.664 8.37489 0.149784 0 0 1.00066 6.13067e-05
443 17.1179 8.29102 1.09828 0 0 1.00066 6.16919e-05
362 17.2366 7.33209 0.296002 0 0 1.00066 5.21502e-05
368 17.8111 7.55271 1.10493 0 0 1.00066 5.45808e-05
445 17.8664 8.3437 0.305148 0 0 1.00066 6.06294e-05
447 18.5317 8.34919 1.039 0 0 1.00066 5.92245e-05
366 18.6 7.47724 0.230966 0 0 1.00066 5.18192e-05
372 19.0505 7.39828 1.16197 0 0 1.00066 5.2274e-05
370 19.7659 7.73442 0.622816 0 0 1.00066 5.12535e-05
451 19.7244 8.59541 1.18876 0 0 1.00066 5.98956e-05
449 19.2305 8.57568 0.208624 0 0 1.00066 5.77951e-05
375 21.4322 7.11032 1.31147 0 0 1.00066 4.44249e-05
373 20.6811 7.18689 0.60953 0 0 1.00066 4.56806e-05
453 20.5312 8.62239 0.378038 0 0 1.00066 5.62854e-05
376 20.623 8.14203 1.3234 0 0 1.00066 5.38586e-05
374 21.3867 7.97962 0.640854 0 0 1.00066 4.91241e-05
377 22.2606 7.19953 0.677537 0 0 1.00066 4.16699e-05
379 23.2061 7.23998 1.21113 0 0 1.00066 3.93515e-05
380 22.2096 8.24246 1.14751 0 0 1.00066 4.82444e-05
459 23.1912 8.81902 1.01889 0 0 1.00066 4.65696e-05
378 22.9597 8.04745 0.39244 0 0 1.00066 4.30927e-05
383 24.8301 7.11404 1.18053 0 0 1.00066 3.22788e-05
381 23.8941 7.30915 0.289279 0 0 1.00066 3.64049e-05
384 24.0095 7.9163 1.07744 0 0 1.00066 3.86369e-05
461 24.0322 8.69042 0.361423 0 0 1.00066 4.08516e-05
463 24.8714 8.70164 1.00717 0 0 1.00066 3.76387e-05
382 24.8355 7.87889 0.290612 0 0 1.00066 3.43226e-05
387 26.3056 7.09529 1.41126 0 0 1.00066 2.64321e-05
385 25.6235 7.22099 0.497804 0 0 1.00066 2.87426e-05
388 25.616 7.93948 1.24607 0 0 1.00066 3.15718e-05
467 26.4922 8.54067 1.00109 0 0 1.00066 2.87646e-05
386 26.5249 7.75513 0.380211 0 0 1.00066 2.68748e-05
465 25.7101 8.6708 0.319333 0 0 1.00066 3.28521e-05
390 28.106 7.38258 0.523539 0 0 1.00066 1.90896e-05
392 27.2277 7.57813 1.32983 0 0 1.00066 2.37086e-05
471 28.2093 8.22804 1.21323 0 0 1.00066 2.0085e-05
469 27.4212 8.23942 0.435882 0 0 1.00066 2.34011e-05
394 29.9296 7.15001 0.509733 0 0 1.00066 1.19697e-05
396 29.0199 7.40987 1.23301 0 0 1.00066 1.56781e-05
474 29.955 8.61753 0.539086 0 0 1.00066 1.22803e-05
475 29.8684 7.92347 1.28166 0 0 1.00066 1.25469e-05
473 29.0748 8.04082 0.418347 0 0 1.00066 1.57121e-05
400 30.6732 7.23599 1.18237 0 0 1.00066 9.09579e-06
479 31.5945 7.88233 1.29372 0 0 1.00066 6.24083e-06
480 30.7809 8.64222 1.19068 0 0 1.00066 8.81721e-06
477 30.9809 7.997 0.388015 0 0 1.00066 8.16446e-06
482 1.44307 10.158 0.263505 0 0 1.00066 1.06687e-05
483 1.36572 9.25975 1.1922 0 0 1.00066 1.07342e-05
484 0.584833 9.92021 0.907484 0 0 1.00066 7.0833e-06
481 0.702286 9.3087 0.126042 0 0 1.00066 8.0915e-06
1322 1.14946 10.0353 1.74433 0 0 1.00066 9.60533e-06
485 2.10251 9.26513 0.436731 0 0 1.00066 1.41405e-05
488 2.15696 10.1434 0.972638 0 0 1.00066 1.41379e-05
486 2.93362 9.98164 0.0788351 0 0 1.00066 1.81112e-05
487 2.74353 9.18231 1.20419 0 0 1.00066 1.7193e-05
1326 3.11998 9.90763 1.66372 0 0 1.00066 1.96104e-05
489 3.45193 9.03528 0.0942412 0 0 1.00066 2.05138e-05
1329 3.61627 8.89802 1.66657 0 0 1.00066 2.1843e-05
492 3.74738 9.6769 0.743266 0 0 1.00066 2.23378e-05
496 5.01626 9.5241 0.569056 0 0 1.00066 2.97626e-05
1330 4.53599 9.5168 1.58502 0 0 1.00066 2.77021e-05
1409 3.8942 10.4032 1.44071 0 0 1.00066 2.39097e-05
571 4.46458 10.471 0.528997 0 0 1.00066 2.68096e-05
1334 5.79032 9.31323 1.17962 0 0 1.00066 3.41691e-05
575 5.82237 10.1671 0.445753 0 0 1.00066 3.5236e-05
1413 5.1997 10.2977 1.46131 0 0 1.00066 3.24942e-05
500 6.71485 9.24101 0.510226 0 0 1.00066 3.87574e-05
1417 6.71543 9.9351 1.19529 0 0 1.00066 4.11497e-05
1338 7.69077 9.14129 1.18872 0 0 1.00066 4.50724e-05
1421 8.23111 9.98731 1.33685 0 0 1.00066 5.16203e-05
579 7.43113 10.0521 0.466795 0 0 1.00066 4.55175e-05
504 8.53453 9.33022 0.571266 0 0 1.00066 4.94444e-05
503 9.56093 8.85701 0.712061 0 0 1.00066 5.27644e-05
1342 9.35727 9.5786 1.39714 0 0 1.00066 5.64999e-05
583 9.33533 10.2511 0.671197 0 0 1.00066 5.79498e-05
508 10.2686 9.72241 0.66878 0 0 1.00066 6.10457e-05
1345 10.501 8.98406 1.40923 0 0 1.00066 5.92645e-05
507 11.1636 9.15542 0.666308 0 0 1.00066 6.14553e-05
1346 11.3335 9.61423 1.61631 0 0 1.00066 6.77842e-05
1425 10.2753 10.4538 1.3728 0 0 1.00066 6.75213e-05
587 10.9842 10.5399 0.670498 0 0 1.00067 6.93297e-05
512 11.8842 10.0457 0.725683 0 0 1.00066 7.03144e-05
1349 12.102 9.14063 1.34603 0 0 1.00066 6.65698e-05
511 12.8449 9.39837 0.692568 0 0 1.00066 6.90733e-05
1353 13.4105 9.26614 1.61558 0 0 1.00066 7.33153e-05
1350 12.7418 10.1057 1.58555 0 0 1.00066 7.75501e-05
510 12.4843 10.2549 0.0293723 0 0 1.00066 7.30549e-05
516 13.5623 10.1507 0.949108 0 0 1.00066 7.68846e-05
515 14.3334 9.48333 0.85473 0 0 1.00066 7.23612e-05
1354 14.3187 10.1876 1.70199 0 0 1.00066 8.2867e-05
517 15.0565 9.97817 0.218582 0 0 1.00066 7.69911e-05
514 14.1503 10.4174 0.0318264 0 0 1.00066 7.99614e-05
440 15.2743 9.0735 0.787029 0 0 1.00066 6.91648e-05
444 16.7333 9.24669 1.13449 0 0 1.00066 7.08513e-05
519 15.9448 9.87012 1.02265 0 0 1.00066 7.72335e-05
521 16.4706 10.2202 0.234375 0 0 1.00066 7.7811e-05
438 16.0744 9.20452 0.13164 0 0 1.00066 6.8776e-05
523 17.3005 10.1491 0.975289 0 0 1.00066 7.77161e-05
442 17.2956 9.23716 0.265914 0 0 1.00066 6.83811e-05
448 17.9216 9.30008 1.1113 0 0 1.00066 6.89465e-05
525 17.9398 10.2974 0.189866 0 0 1.00066 7.54109e-05
527 18.5454 10.2199 1.08066 0 0 1.00066 7.41747e-05
446 18.5465 9.43877 0.122673 0 0 1.00066 6.63889e-05
452 19.1043 9.32672 0.958267 0 0 1.00066 6.67459e-05
529 19.3373 10.2072 0.31255 0 0 1.00066 7.07164e-05
1369 19.4377 10.0831 1.72097 0 0 1.00066 7.41509e-05
450 19.9795 9.4562 0.225438 0 0 1.00066 6.35284e-05
531 20.2054 10.4476 0.88936 0 0 1.00066 6.85668e-05
455 21.3714 8.99484 1.05218 0 0 1.00066 5.59707e-05
456 20.5697 9.51777 1.05024 0 0 1.00066 6.24974e-05
533 20.699 10.3746 0.0698995 0 0 1.00066 6.50042e-05
535 21.5905 10.4689 0.800093 0 0 1.00066 6.1878e-05
1373 20.9417 10.3062 1.68353 0 0 1.00066 6.81826e-05
454 21.4519 9.66738 0.211258 0 0 1.00066 5.76005e-05