ITEM: TIMESTEP
43500
ITEM: NUMBER OF ATOMS
32000
ITEM: BOX BOUNDS pp pp pp
0.0000000000000000e+00 3.1748021039364001e+01
0.0000000000000000e+00 3.1748021039364001e+01
0.0000000000000000e+00 3.1748021039364001e+01
ITEM: ATOMS id x y z c_phase c_nbond c_rho v_omega
4 0.25483 1.10421 0.463019 0 0 1.001 1.6844e-07
83 1.19347 1.53545 0.772314 0 0 1.001 2.04019e-06
842 0.821307 0.699518 1.39472 0 0 1.001 7.07018e-07
921 0.23536 1.61968 1.3742 0 0 1.001 9.02073e-07
8 1.81321 0.599651 1.00587 0 0 1.001 1.52507e-06
85 2.01036 1.24067 0.195488 0 0 1.001 2.75998e-06
925 2.05726 1.38325 1.72771 0 0 1.001 3.11199e-06
6 2.60048 0.400323 0.17996 0 0 1.001 2.03224e-06
87 2.85712 1.17824 0.850242 0 0 1.001 3.70921e-06
846 2.77408 0.461202 1.71563 0 0 1.001 2.32486e-06
12 3.53501 0.45633 0.941324 0 0 1.001 3.08625e-06
929 3.84807 1.21277 1.67774 0 0 1.001 4.91948e-06
10 4.21516 0.321966 0.292054 0 0 1.001 3.13388e-06
850 4.43188 0.366045 1.6131 0 0 1.001 3.83042e-06
91 4.28486 1.28223 0.705101 0 0 1.001 5.60707e-06
93 5.16466 0.983147 0.359701 0 0 1.00101 5.41226e-06
8799 30.763 15.278 15.3323 0 0 1.00102 2.01702e-05
95 6.07879 0.635181 0.942027 0 0 1.00101 4.90628e-06
933 5.26891 1.04478 1.42831 0 0 1.00101 5.90515e-06
934 6.21681 1.50076 1.4717 0 0 1.00101 7.67448e-06
94 6.05866 1.74214 0.137503 0 0 1.00101 8.22297e-06
97 6.7906 0.699867 0.2058 0 0 1.00101 5.16903e-06
937 6.83122 0.295074 1.67827 0 0 1.001 4.16363e-06
99 7.56485 0.501455 0.939651 0 0 1.001 4.80634e-06
938 7.6909 1.29732 1.54955 0 0 1.001 7.83339e-06
100 6.94759 1.45443 0.776426 0 0 1.001 7.91077e-06
98 7.86184 1.47274 0.119411 0 0 1.001 8.08766e-06
941 8.38092 0.499648 1.61018 0 0 1.001 5.20145e-06
101 8.49687 0.665059 0.210721 0 0 1.001 5.22169e-06
103 9.25199 0.593839 1.06854 0 0 1.001 4.83194e-06
945 9.79484 0.279 1.74786 0 0 1.001 3.17884e-06
105 9.9029 0.660344 0.111026 0 0 1.001 4.48654e-06
102 9.35317 1.38341 0.223587 0 0 1.001 7.84622e-06
104 8.54339 1.42037 0.929858 0 0 1.001 8.18278e-06
942 9.52855 1.44162 1.72 0 0 1.001 8.884e-06
108 10.2259 1.32706 1.06898 0 0 1.001 7.50919e-06
107 10.5915 0.422072 0.834773 0 0 1.001 3.38906e-06
949 11.5394 0.438454 1.41026 0 0 1.001 3.07161e-06
946 10.9951 1.07061 1.72033 0 0 1.00101 6.59797e-06
112 11.6426 1.27709 0.77914 0 0 1.001 7.11764e-06
106 10.7857 1.4457 0.180686 0 0 1.001 7.8236e-06
111 12.2998 0.60149 0.518592 0 0 1.001 3.15053e-06
953 13.0481 0.759058 1.3715 0 0 1.001 3.45074e-06
950 12.4562 1.43317 1.45097 0 0 1.00101 7.44827e-06
116 13.2473 1.5665 0.610942 0 0 1.00101 7.46076e-06
40 14.4716 0.149641 0.781317 0 0 1.001 -6.00895e-07
115 13.8983 0.853894 0.821428 0 0 1.001 3.06006e-06
117 14.5202 1.30877 0.129781 0 0 1.001 4.95853e-06
874 13.6962 0.0479346 1.6276 0 0 1.001 -5.1852e-07
957 14.7156 1.02118 1.4809 0 0 1.001 3.58731e-06
954 13.9732 1.7048 1.45644 0 0 1.00101 7.60231e-06
119 15.3426 1.46477 0.664746 0 0 1.001 5.26732e-06
44 15.9552 0.770174 0.788572 0 0 1.001 1.32907e-06
878 15.2735 0.407703 1.63261 0 0 1.001 -5.07547e-07
961 16.1014 1.51989 1.4216 0 0 1.001 5.5652e-06
38 15.2904 0.618786 0.0691685 0 0 1.001 4.58451e-07
882 16.7725 0.856968 1.35454 0 0 1.001 1.30367e-06
123 17.0278 1.73253 0.699227 0 0 1.001 6.09358e-06
48 17.5107 0.989231 0.566418 0 0 1.001 1.89781e-06
886 18.1851 1.12143 1.42518 0 0 1.001 3.06707e-06
47 18.18 0.306128 0.694098 0 0 1.001 -8.19439e-07
885 17.2994 0.0854185 1.4019 0 0 1.001 -2.30831e-06
51 19.5916 0.531537 0.687676 0 0 1.001 6.6206e-07
52 19.0364 1.21927 0.700895 0 0 1.001 3.77035e-06
889 19.0787 0.648032 1.56127 0 0 1.001 4.44629e-07
890 19.9647 1.54383 1.69855 0 0 1.001 6.5002e-06
55 21.288 1.03595 1.08579 0 0 1.00101 3.88738e-06
56 20.5134 1.39823 0.94646 0 0 1.00101 5.28965e-06
54 21.4532 1.48671 0.207593 0 0 1.00101 6.66146e-06
893 20.4658 0.526826 1.4155 0 0 1.00101 1.94802e-06
53 20.3139 0.516107 0.0611959 0 0 1.001 2.02322e-06
17534 20.9706 0.0859597 0.257301 0 0 1.00101 -1.49378e-07
57 22.1778 1.05266 0.542064 0 0 1.00101 4.9494e-06
59 23.0055 1.20976 1.40571 0 0 1.00101 5.86313e-06
17538 22.7701 0.339639 0.455486 0 0 1.001 1.94793e-06
17540 21.7743 0.140775 0.861903 0 0 1.00101 9.76407e-07
63 24.4441 1.17813 1.40388 0 0 1.001 6.40814e-06
61 23.7269 1.12756 0.554961 0 0 1.001 5.8368e-06
17544 23.5419 0.298385 1.24228 0 0 1.001 2.75292e-06
17542 24.3525 0.276896 0.583809 0 0 1.001 3.10057e-06
65 25.1154 1.07737 0.515388 0 0 1.001 6.01104e-06
67 26.1257 1.08807 1.15032 0 0 1.001 5.66175e-06
66 26.1334 1.69525 0.411158 0 0 1.001 7.44365e-06
17548 25.2076 0.51788 1.34096 0 0 1.001 4.28562e-06
17546 25.9233 0.236839 0.330238 0 0 1.001 3.48084e-06
71 27.7398 1.07328 0.864563 0 0 1.00101 4.80625e-06
72 26.9722 1.69857 1.23909 0 0 1.001 6.75937e-06
69 26.8864 0.902182 0.243391 0 0 1.001 4.96134e-06
17552 27.101 0.300219 0.999023 0 0 1.001 3.30367e-06
17556 28.3603 0.167942 0.729599 0 0 1.001 2.35035e-06
913 28.4839 0.846476 1.41505 0 0 1.001 3.56269e-06
76 28.8574 1.68407 0.724559 0 0 1.001 4.63633e-06
914 29.5421 1.33831 1.55971 0 0 1.001 3.45246e-06
917 29.8676 0.470837 1.44884 0 0 1.001 1.69481e-06
75 29.3497 0.723618 0.613961 0 0 1.001 2.48454e-06
841 31.6233 0.312573 1.25228 0 0 1.001 -4.24609e-07
79 30.7894 0.646534 0.476052 0 0 1.001 8.93103e-07
80 30.2785 1.45018 0.763823 0 0 1.001 2.50996e-06
918 31.0035 1.12532 1.37261 0 0 1.001 1.30492e-06
82 1.43481 2.27119 0.0999753 0 0 1.001 3.37408e-06
84 0.463927 2.37173 0.795603 0 0 1.001 2.02506e-06
922 1.45834 2.187 1.57617 0 0 1.001 3.56167e-06
1001 0.787201 2.98662 1.5426 0 0 1.001 3.20297e-06
161 0.741451 3.06691 0.115894 0 0 1.001 3.0607e-06
163 1.69997 3.00462 0.923902 0 0 1.001 4.92614e-06
88 2.23866 2.12511 0.772441 0 0 1.001 4.37246e-06
167 3.10764 2.86641 0.840594 0 0 1.001 7.24943e-06
926 2.99854 1.85115 1.52635 0 0 1.001 5.28411e-06
86 3.05544 1.99896 0.0389664 0 0 1.001 5.42601e-06
1005 2.51716 2.76337 1.72777 0 0 1.001 6.02985e-06
1009 3.76965 2.88192 1.62914 0 0 1.001 8.73631e-06
92 3.75391 2.0696 0.773103 0 0 1.001 6.71271e-06
171 4.68804 2.72052 0.750865 0 0 1.001 9.24556e-06
930 4.55822 2.05176 1.57304 0 0 1.001 7.75634e-06
96 5.3103 1.90944 0.812231 0 0 1.001 8.14309e-06
175 6.20736 2.46684 0.942151 0 0 1.001 1.07876e-05
173 5.502 2.63576 0.015548 0 0 1.001 1.03175e-05
174 6.41149 3.1589 0.145876 0 0 1.001 1.329e-05
176 5.55088 3.30458 1.10556 0 0 1.001 1.25234e-05
1017 7.10825 2.2717 1.52591 0 0 1.001 1.10984e-05
177 7.14276 2.19421 0.104112 0 0 1.001 1.03483e-05
179 7.99095 2.25727 0.863474 0 0 1.001 1.14563e-05
180 7.19785 2.98637 0.778393 0 0 1.001 1.36012e-05
1018 8.18326 3.01119 1.48815 0 0 1.001 1.5014e-05
1021 8.81378 2.1788 1.6199 0 0 1.001 1.18058e-05
181 8.87919 2.19469 0.0234992 0 0 1.001 1.11552e-05
183 9.58535 2.19005 0.924517 0 0 1.001 1.18983e-05
1022 9.93351 2.94493 1.49107 0 0 1.001 1.65925e-05
184 9.00358 3.0205 0.690418 0 0 1.001 1.51411e-05
182 9.84258 3.07858 0.0290081 0 0 1.001 1.61807e-05
185 10.247 2.20384 0.193152 0 0 1.001 1.1816e-05
188 10.7174 2.85894 0.854769 0 0 1.00101 1.54468e-05
187 11.3122 2.14408 0.91359 0 0 1.00101 1.13674e-05
1026 11.6075 2.93613 1.58928 0 0 1.001 1.62611e-05
186 11.5334 3.14058 0.16039 0 0 1.001 1.63885e-05
1025 10.7344 2.00266 1.73556 0 0 1.00101 1.13092e-05
1029 12.2206 2.28296 1.61274 0 0 1.00101 1.30618e-05
192 12.3528 3.05897 0.824399 0 0 1.001 1.69814e-05
191 12.6774 2.19125 0.749669 0 0 1.00101 1.23429e-05
196 13.448 3.20092 0.817598 0 0 1.00101 1.77202e-05
1033 13.7317 2.58756 1.69443 0 0 1.00101 1.33485e-05
195 14.1237 2.74144 0.843859 0 0 1.00101 1.43858e-05
120 14.7692 2.22104 0.914549 0 0 1.001 1.00962e-05
114 14.0815 2.00357 0.0247607 0 0 1.001 9.91639e-06
194 14.2859 3.41409 0.0387907 0 0 1.001 1.80235e-05
1037 15.0786 3.15093 1.55059 0 0 1.00101 1.59509e-05
197 15.0717 3.04554 0.0379757 0 0 1.001 1.46709e-05
199 15.7706 3.33497 0.86226 0 0 1.00101 1.67181e-05
958 15.5618 2.266 1.46433 0 0 1.001 1.09994e-05
118 15.6155 2.40069 0.113374 0 0 1.001 1.05883e-05
124 16.4422 2.48945 0.711371 0 0 1.001 1.07603e-05
1041 16.4374 3.33081 1.51327 0 0 1.001 1.67072e-05
962 17.1186 2.65265 1.54481 0 0 1.001 1.22213e-05
203 17.3139 3.38948 0.661306 0 0 1.001 1.66122e-05
965 17.7866 2.00865 1.56323 0 0 1.001 7.51628e-06
128 17.8238 2.64426 0.662723 0 0 1.001 1.16046e-05
1045 18.0537 3.43901 1.50006 0 0 1.001 1.63962e-05
127 18.4432 1.99082 0.743898 0 0 1.001 7.67713e-06
969 19.1805 2.01044 1.49491 0 0 1.001 8.53367e-06
207 18.8368 3.36867 0.719029 0 0 1.001 1.55782e-05
966 18.8003 2.86051 1.60914 0 0 1.001 1.32952e-05
131 20.025 2.14917 0.841088 0 0 1.001 8.76511e-06
129 19.3694 2.08809 0.0235249 0 0 1.001 8.10104e-06
132 19.6447 2.9602 1.02383 0 0 1.001 1.38573e-05
130 20.3176 2.945 0.112403 0 0 1.001 1.34359e-05
133 20.8263 2.18704 0.200642 0 0 1.001 9.5445e-06
135 21.5823 2.35683 0.949678 0 0 1.00101 1.04785e-05
973 20.8941 2.4669 1.7422 0 0 1.00101 1.15881e-05
136 20.961 3.14854 1.06337 0 0 1.00101 1.49158e-05
58 23.197 1.86304 0.474185 0 0 1.00101 8.4649e-06
134 21.8754 3.21737 0.464585 0 0 1.00101 1.47937e-05
60 22.4951 1.97136 1.32855 0 0 1.00101 9.34099e-06
137 22.4525 2.42098 0.487026 0 0 1.00101 1.10356e-05
140 22.7314 3.3546 1.21633 0 0 1.00101 1.57946e-05
139 23.4591 2.91384 1.49831 0 0 1.00101 1.29678e-05
62 24.7367 1.96929 0.719541 0 0 1.001 8.74272e-06
138 23.5963 3.50316 0.713723 0 0 1.00101 1.51226e-05
64 23.8531 2.04774 1.36708 0 0 1.001 9.43615e-06
141 24.1499 2.67866 0.613651 0 0 1.001 1.14192e-05
143 24.9067 2.83398 1.54388 0 0 1.001 1.20534e-05
68 25.4661 1.92227 1.42881 0 0 1.001 8.57028e-06
147 26.3196 2.50811 1.35227 0 0 1.001 9.8129e-06
145 25.554 2.65151 0.53506 0 0 1.001 1.06793e-05
146 26.3347 3.40369 0.6819 0 0 1.001 1.23355e-05
148 25.7196 3.43091 1.51005 0 0 1.001 1.30886e-05
70 27.8394 1.86177 0.375054 0 0 1.001 6.24758e-06
149 26.9214 2.48252 0.501914 0 0 1.001 8.76694e-06
152 27.0263 3.32214 1.517 0 0 1.001 1.11854e-05
151 27.8493 2.58753 1.21224 0 0 1.001 7.70748e-06
150 27.5743 3.35696 0.614076 0 0 1.001 1.00937e-05
153 28.6153 2.60769 0.3369 0 0 1.00101 6.78885e-06
156 28.7045 3.28499 1.17642 0 0 1.001 8.09353e-06
993 28.8107 2.22692 1.50197 0 0 1.001 5.92189e-06
155 29.738 2.38475 0.867698 0 0 1.00101 4.78993e-06
154 29.606 3.09354 0.275789 0 0 1.00101 6.16017e-06
997 30.2572 2.10067 1.68902 0 0 1.001 3.84457e-06
159 31.1997 2.10966 0.91142 0 0 1.00101 2.28203e-06
160 30.563 2.94933 0.984132 0 0 1.00101 4.00446e-06
239 31.4861 3.45267 0.957639 0 0 1.00101 3.37912e-06
998 31.3711 2.81255 1.71725 0 0 1.00101 2.83518e-06
237 30.5899 3.51092 0.151453 0 0 1.00101 5.13483e-06
157 30.6787 2.12681 0.0314051 0 0 1.00101 3.11845e-06
158 31.5081 2.75556 0.0682628 0 0 1.00101 2.49844e-06
164 0.784529 3.73162 0.900072 0 0 1.001 3.82074e-06
241 0.714336 4.58324 0.448397 0 0 1.001 4.27362e-06
162 1.54856 3.6887 0.062495 0 0 1.001 5.10344e-06
244 0.737546 5.22677 1.26447 0 0 1.001 5.14587e-06
1081 1.03474 4.31042 1.75538 0 0 1.001 4.95049e-06
243 1.70804 4.43496 0.965187 0 0 1.001 6.70621e-06
168 2.39533 3.72376 0.844464 0 0 1.001 7.12845e-06
247 3.17557 4.41444 1.10031 0 0 1.001 1.02005e-05
166 3.21917 3.70541 0.175889 0 0 1.001 8.92227e-06
245 2.50617 4.60232 0.266731 0 0 1.001 8.46399e-06
248 2.23081 5.19743 1.34159 0 0 1.001 9.07993e-06
1006 3.04871 3.69344 1.75556 0 0 1.001 8.94974e-06
246 3.38419 5.09672 0.260119 0 0 1.001 1.13712e-05
249 4.07991 4.28172 0.164486 0 0 1.001 1.18889e-05
172 4.0442 3.53653 0.871838 0 0 1.001 9.95637e-06
251 4.78181 4.20522 1.13976 0 0 1.001 1.35558e-05
170 4.85393 3.53033 0.128095 0 0 1.001 1.15618e-05
250 4.97067 4.76551 0.297241 0 0 1.001 1.50049e-05
252 3.88404 5.04711 1.24918 0 0 1.001 1.33293e-05
253 5.73389 3.99154 0.302454 0 0 1.001 1.46417e-05
255 6.50345 3.88559 1.00248 0 0 1.001 1.58985e-05
254 6.61881 4.55985 0.237538 0 0 1.001 1.80857e-05
256 5.77377 4.65204 1.23932 0 0 1.001 1.69442e-05
1097 7.47803 3.65641 1.62651 0 0 1.001 1.71131e-05
260 7.53391 4.28648 0.835344 0 0 1.001 1.89237e-05
259 8.24823 3.59565 0.568358 0 0 1.001 1.74182e-05
258 8.28573 4.43952 0.00697254 0 0 1.001 2.08475e-05
1177 7.4945 5.02702 1.58715 0 0 1.001 2.27432e-05
337 7.38845 5.16027 0.113794 0 0 1.001 2.18477e-05
339 8.38721 5.15591 0.747439 0 0 1.001 2.44462e-05
1098 8.40389 4.42413 1.46735 0 0 1.001 2.15662e-05
1101 9.1544 3.70466 1.44793 0 0 1.001 1.90115e-05
264 9.24078 4.4092 0.689298 0 0 1.001 2.2301e-05
1181 9.39589 5.11421 1.48023 0 0 1.001 2.70264e-05
263 10.0639 3.73332 0.785424 0 0 1.001 1.97165e-05
262 10.1529 4.58748 0.00198325 0 0 1.001 2.4268e-05
1102 10.1956 4.42375 1.55962 0 0 1.001 2.41562e-05
268 10.9528 4.50846 0.787746 0 0 1.001 2.49035e-05
265 10.8618 3.77188 0.0897123 0 0 1.001 2.04951e-05
1105 10.9033 3.57957 1.63343 0 0 1.001 1.97904e-05
267 11.6998 3.88632 0.87555 0 0 1.001 2.1172e-05
343 10.1333 5.23089 0.744266 0 0 1.001 2.78873e-05
1185 11.1226 5.26044 1.48283 0 0 1.001 3.02893e-05
266 11.7608 4.76692 0.0146174 0 0 1.001 2.59475e-05
1106 11.7934 4.48276 1.72599 0 0 1.001 2.55183e-05
269 12.514 4.10819 0.200276 0 0 1.001 2.22356e-05
1109 12.5108 3.78681 1.67045 0 0 1.001 2.21755e-05
272 12.6903 4.65136 0.999349 0 0 1.001 2.63969e-05
270 13.3601 5.01958 0.185463 0 0 1.001 2.7141e-05
347 11.9501 5.26224 0.877355 0 0 1.001 2.9557e-05
271 13.4362 4.07277 1.03277 0 0 1.001 2.3728e-05
273 13.7851 4.16802 0.0471394 0 0 1.001 2.22636e-05
1113 14.1649 4.53292 1.7062 0 0 1.001 2.62746e-05
275 14.4871 4.42093 0.754997 0 0 1.001 2.51355e-05
1034 14.7275 3.89602 1.5846 0 0 1.00101 2.16836e-05
200 15.2 3.94486 0.690841 0 0 1.00101 2.14854e-05
277 15.4584 4.69875 0.0838042 0 0 1.00101 2.50218e-05
1117 15.6102 4.91686 1.49486 0 0 1.00101 2.83788e-05
279 16.3899 5.05369 0.830818 0 0 1.00101 2.80193e-05
198 16.154 4.14616 0.104023 0 0 1.00101 2.07255e-05
1038 16.3064 4.37252 1.60247 0 0 1.00101 2.29932e-05
204 16.8752 4.16978 0.881599 0 0 1.001 2.14713e-05
281 17.1703 4.94489 0.132955 0 0 1.001 2.53791e-05
1121 17.3095 5.2132 1.66644 0 0 1.001 2.93181e-05
1042 17.5877 4.22376 1.65898 0 0 1.001 2.2941e-05
283 17.8864 4.95834 0.896244 0 0 1.001 2.61629e-05
208 18.4077 4.2204 0.788115 0 0 1.001 2.09258e-05
209 19.7745 3.61206 0.19975 0 0 1.001 1.7464e-05
285 18.6803 5.07617 0.0457146 0 0 1.001 2.6244e-05
1046 19.0349 4.17516 1.63011 0 0 1.001 2.15554e-05
287 19.3273 5.09387 1.08026 0 0 1.001 2.7223e-05
206 19.2403 4.37886 0.078813 0 0 1.001 2.11643e-05
212 19.8966 4.34966 0.963422 0 0 1.001 2.1619e-05
213 21.2563 3.80596 0.311432 0 0 1.00101 1.85753e-05
210 20.6261 4.50341 0.260501 0 0 1.001 2.22825e-05
211 20.6626 3.95257 1.27163 0 0 1.001 1.96498e-05
216 21.4296 4.65325 1.18878 0 0 1.001 2.26676e-05
214 22.12 4.8804 0.505883 0 0 1.001 2.33538e-05
215 22.2007 4.1504 1.39327 0 0 1.00101 1.9074e-05
217 22.8141 4.12553 0.599597 0 0 1.00101 1.94695e-05
220 22.9217 5.10554 1.29534 0 0 1.001 2.41193e-05
142 24.9442 3.55383 0.751508 0 0 1.001 1.43742e-05
16179 23.5319 4.32943 0.0222995 0 0 1.001 1.89345e-05
144 24.3683 3.7827 1.51926 0 0 1.001 1.61571e-05
219 23.6895 4.5454 1.38712 0 0 1.001 1.99129e-05
221 24.4013 4.55712 0.750971 0 0 1.001 1.89071e-05
223 25.2249 4.46758 1.54402 0 0 1.001 1.77613e-05
227 26.4003 4.34109 1.51341 0 0 1.001 1.51225e-05
225 25.7817 4.49415 0.732128 0 0 1.001 1.62834e-05
226 26.3462 5.29555 0.431744 0 0 1.001 1.76757e-05
229 26.8435 4.28969 0.591245 0 0 1.001 1.3897e-05
232 27.112 5.10008 1.36505 0 0 1.001 1.55712e-05
231 27.8002 4.03022 1.39781 0 0 1.001 1.13874e-05
230 27.7483 4.76495 0.576193 0 0 1.001 1.35026e-05
233 28.5181 3.80909 0.333838 0 0 1.00101 9.50038e-06
236 28.6036 4.58105 1.11631 0 0 1.00101 1.11237e-05
235 29.7399 3.65951 1.17474 0 0 1.00101 6.90922e-06
234 29.498 4.23557 0.455088 0 0 1.00101 8.13605e-06
315 29.7211 4.96287 1.29387 0 0 1.00101 8.7754e-06
240 30.544 4.334 1.02438 0 0 1.00101 6.11797e-06
238 31.5457 4.10864 0.339787 0 0 1.00101 3.65971e-06
317 30.8021 4.94441 0.461991 0 0 1.00101 5.59151e-06
319 31.5727 4.72201 1.36306 0 0 1.00101 3.97739e-06
242 1.57859 5.33598 0.445126 0 0 1.001 6.92854e-06
323 1.51657 6.00736 1.2686 0 0 1.001 7.56788e-06
324 0.995087 6.85317 1.45827 0 0 1.001 6.38761e-06
321 0.700415 5.99074 0.445676 0 0 1.001 5.12443e-06
398 0.190717 7.02013 0.59495 0 0 1.001 3.74821e-06
399 0.156245 6.24145 1.3656 0 0 1.001 3.50502e-06
322 1.70993 6.69987 0.552228 0 0 1.001 8.3277e-06
328 2.46682 6.63199 1.22971 0 0 1.001 1.08999e-05
325 2.60225 5.80976 0.47189 0 0 1.001 1.03728e-05
327 3.06349 5.69975 1.35154 0 0 1.001 1.20672e-05
326 3.27339 6.59243 0.450514 0 0 1.001 1.36062e-05
332 4.05609 6.32189 1.12902 0 0 1.001 1.57451e-05
329 4.20704 5.62547 0.445564 0 0 1.001 1.47903e-05
331 4.94877 5.34898 1.19045 0 0 1.001 1.67175e-05
330 4.89119 6.24907 0.213075 0 0 1.00101 1.83474e-05
411 4.92072 6.80248 1.15657 0 0 1.00101 1.96943e-05
336 5.72261 5.9492 1.12913 0 0 1.001 2.08238e-05
333 5.72639 5.42479 0.282677 0 0 1.001 1.87694e-05
335 6.62514 5.28373 0.936248 0 0 1.001 2.12483e-05
334 6.54997 6.078 0.131692 0 0 1.001 2.33723e-05
415 6.5278 6.58803 0.963679 0 0 1.001 2.48068e-05
413 5.67533 6.77142 0.204312 0 0 1.00101 2.18476e-05
340 7.52322 5.83453 0.905167 0 0 1.001 2.56167e-05
417 7.62847 6.53295 0.108145 0 0 1.001 2.84183e-05
420 7.581 7.03097 1.04119 0 0 1.001 3.00864e-05
1178 8.46501 5.76004 1.56918 0 0 1.001 2.85059e-05
419 8.52304 6.60709 0.69767 0 0 1.001 3.15739e-05
344 9.24649 5.80738 0.672137 0 0 1.001 2.92368e-05
1261 9.41883 6.34865 1.52087 0 0 1.001 3.3973e-05
1258 8.54094 6.93648 1.64903 0 0 1.001 3.3826e-05
423 10.3028 6.57692 0.65599 0 0 1.001 3.55871e-05
1182 10.4273 5.93223 1.44515 0 0 1.001 3.33624e-05
345 11.0543 5.38406 0.0589423 0 0 1.001 2.95132e-05
348 11.2334 6.19675 0.712213 0 0 1.001 3.50884e-05
1265 11.2413 6.7977 1.56141 0 0 1.00099 4.03292e-05
346 11.9868 6.14431 0.083196 0 0 1.001 3.55995e-05
1186 12.0056 6.06793 1.47267 0 0 1.001 3.65436e-05
349 12.7579 5.66868 0.0218118 0 0 1.001 3.2042e-05
352 12.8752 6.39594 0.782869 0 0 1.001 3.85855e-05
351 13.2778 5.61332 1.04501 0 0 1.001 3.32044e-05
427 12.1277 7.0019 0.800229 0 0 1.001 4.15857e-05
1269 13.0522 7.02414 1.5376 0 0 1.001 4.51781e-05
1190 13.8227 6.54757 1.34922 0 0 1.00101 4.04088e-05
276 14.174 5.36676 0.859637 0 0 1.001 3.0927e-05
1114 14.9205 5.55393 1.5811 0 0 1.001 3.35224e-05
355 14.9868 6.21955 0.786396 0 0 1.001 3.69385e-05
356 14.4066 6.84207 0.579911 0 0 1.001 4.14479e-05
1194 15.2948 7.00561 1.40337 0 0 1.00101 4.32385e-05
280 15.6142 5.5533 0.7555 0 0 1.00101 3.25157e-05
357 15.7463 6.24265 0.0146515 0 0 1.00101 3.61899e-05
1197 16.0282 6.46347 1.4497 0 0 1.00101 4.02275e-05
278 16.4766 5.63135 0.031528 0 0 1.00101 3.07811e-05
359 16.7038 6.54335 0.797 0 0 1.00101 3.88678e-05
1118 16.7482 5.92287 1.68637 0 0 1.00101 3.55232e-05
361 17.2936 6.53819 0.0396551 0 0 1.00101 3.72345e-05
284 17.4019 5.9424 0.948256 0 0 1.00101 3.33132e-05
363 18.1248 6.86849 1.13663 0 0 1.00101 3.92237e-05
282 18.0523 5.81683 0.238958 0 0 1.001 3.12007e-05
288 18.5913 5.89521 1.21165 0 0 1.001 3.27219e-05
365 18.6986 6.77785 0.364059 0 0 1.001 3.85967e-05
367 19.2545 6.88111 1.30644 0 0 1.001 3.99448e-05
286 19.2802 5.94411 0.469819 0 0 1.001 3.25581e-05
369 19.9225 7.00651 0.596671 0 0 1.001 3.93003e-05
289 20.0731 5.32509 0.353613 0 0 1.001 2.78369e-05
292 20.1402 6.04576 1.18493 0 0 1.001 3.32831e-05
291 20.8735 5.46755 1.12568 0 0 1.001 2.78254e-05
293 21.3714 5.66567 0.361782 0 0 1.001 2.82845e-05
290 20.8574 6.60376 0.622296 0 0 1.001 3.51785e-05
296 21.5219 6.5935 1.37106 0 0 1.001 3.48007e-05
295 22.0426 5.69175 1.33248 0 0 1.001 2.88487e-05
294 22.0906 6.79767 0.633419 0 0 1.001 3.39408e-05
297 22.7832 5.99232 0.760517 0 0 1.001 2.85829e-05
300 22.9308 6.97489 1.34053 0 0 1.001 3.39476e-05
16260 22.9503 6.82751 0.0388553 0 0 1.001 3.22905e-05
218 23.6212 5.33038 0.548799 0 0 1.001 2.34137e-05
299 23.6478 6.2407 1.28637 0 0 1.001 2.86344e-05
224 24.4534 5.5299 1.33057 0 0 1.001 2.33679e-05
298 23.8144 6.97763 0.628157 0 0 1.001 3.05523e-05
301 24.5322 6.14234 0.539421 0 0 1.001 2.50635e-05
304 24.6061 7.05352 1.26862 0 0 1.001 2.9214e-05
222 25.2013 5.31636 0.630762 0 0 1.001 2.05827e-05
228 25.8925 5.41407 1.54396 0 0 1.001 1.96163e-05
303 25.3478 6.34789 1.43983 0 0 1.001 2.41458e-05
305 25.8007 6.22365 0.562406 0 0 1.001 2.21735e-05
307 26.6015 6.09701 1.35551 0 0 1.001 1.99516e-05
306 26.6465 6.83691 0.682562 0 0 1.001 2.12651e-05
311 28.0964 5.60795 1.39305 0 0 1.001 1.42677e-05
309 27.3281 5.80527 0.634409 0 0 1.001 1.68122e-05
312 27.5565 6.73419 1.45903 0 0 1.001 1.81778e-05
310 28.3053 6.28433 0.69452 0 0 1.001 1.45202e-05
313 28.9518 5.32513 0.679158 0 0 1.00101 1.10136e-05
316 29.1424 6.13731 1.44227 0 0 1.00101 1.21558e-05
314 30.0715 5.73337 0.799784 0 0 1.00101 8.55888e-06
393 29.2721 6.8377 0.653962 0 0 1.001 1.24958e-05
16276 29.2035 5.98206 0.0222564 0 0 1.001 1.12639e-05
16355 30.1204 6.57968 0.0643455 0 0 1.001 9.57246e-06
395 30.1824 6.64167 1.30283 0 0 1.001 9.18817e-06
318 31.6288 5.49554 0.574405 0 0 1.001 4.73542e-06
320 30.8976 5.7209 1.42216 0 0 1.00101 6.35444e-06
397 31.093 6.43644 0.616633 0 0 1.001 6.39245e-06
401 1.02553 7.56168 0.619815 0 0 1.001 5.98897e-06
402 1.64617 8.25231 0.565198 0 0 1.001 8.49654e-06
404 1.10852 8.42732 1.43673 0 0 1.001 6.5261e-06
478 0.436639 8.64665 0.396349 0 0 1.001 3.79916e-06
479 0.251747 7.89924 1.27045 0 0 1.001 3.7058e-06
403 1.87153 7.55051 1.44673 0 0 1.001 9.45752e-06
405 2.38447 7.39503 0.386133 0 0 1.001 1.06876e-05
408 2.54881 8.15968 1.43881 0 0 1.001 1.26892e-05
406 3.05025 8.07732 0.381667 0 0 1.001 1.4426e-05
407 3.23775 7.26357 1.26261 0 0 1.001 1.44061e-05
487 3.19857 8.80827 1.1696 0 0 1.001 1.54094e-05
412 3.92838 7.81023 0.918702 0 0 1.00101 1.82387e-05
409 4.11482 7.05011 0.31747 0 0 1.00101 1.7089e-05
410 4.75478 7.63069 0.0379735 0 0 1.00101 2.05474e-05
491 4.86132 8.19827 0.829627 0 0 1.00101 2.25558e-05
1250 4.78015 7.51234 1.73806 0 0 1.00101 2.22636e-05
1329 4.11861 8.43901 1.66152 0 0 1.00101 2.02992e-05
489 3.92051 8.59054 0.0934429 0 0 1.00101 1.83533e-05
1333 5.71705 8.00916 1.59975 0 0 1.00101 2.75984e-05
416 5.69955 7.32386 0.943406 0 0 1.00101 2.42737e-05
495 6.36444 7.89832 0.594362 0 0 1.00101 2.8369e-05
1334 6.38643 8.67134 1.17158 0 0 1.001 3.15374e-05
414 6.95611 7.28078 0.204642 0 0 1.001 2.81453e-05
1337 7.29798 7.8664 1.20597 0 0 1.00101 3.37811e-05
499 8.36517 7.65943 0.717749 0 0 1.00101 3.50211e-05
1338 8.34439 8.44912 1.16708 0 0 1.001 4.0038e-05
500 7.31193 8.57588 0.492543 0 0 1.00101 3.46665e-05
424 9.56478 7.15567 0.841409 0 0 1.001 3.69785e-05
501 9.41183 7.83478 0.0472001 0 0 1.001 3.92854e-05
1341 9.36405 7.89977 1.36221 0 0 1.001 4.15993e-05
504 9.26793 8.64062 0.555815 0 0 1.001 4.37159e-05
503 10.3406 8.18873 0.675403 0 0 1.001 4.49993e-05
1262 10.4974 7.43786 1.38787 0 0 1.00099 4.24766e-05
428 11.2485 7.54443 0.685866 0 0 1.00099 4.37098e-05
1345 11.3464 8.34132 1.37544 0 0 1.001 4.99963e-05
507 12.0378 8.6132 0.655351 0 0 1.001 5.16173e-05
1266 12.2282 7.75475 1.41985 0 0 1.00099 4.87313e-05
429 12.8222 7.27721 0.0116374 0 0 1.001 4.35267e-05
432 12.9673 7.9764 0.704922 0 0 1.001 4.90307e-05
1349 13.0799 8.68544 1.37806 0 0 1.001 5.59472e-05
1270 13.819 7.98906 1.49577 0 0 1.001 5.18043e-05
431 13.8436 7.5645 0.588193 0 0 1.001 4.56284e-05
1273 14.6355 7.52088 1.47363 0 0 1.001 5.01471e-05
436 14.6936 8.4549 0.770347 0 0 1.001 5.37419e-05
435 15.3761 7.84113 0.546795 0 0 1.00101 4.8241e-05
1274 15.5249 8.61405 1.57589 0 0 1.00101 5.88217e-05
360 16.0474 7.22732 0.653195 0 0 1.00101 4.38764e-05
1277 16.1284 7.99935 1.38993 0 0 1.00101 5.13436e-05
437 16.2593 8.32074 0.0394609 0 0 1.00101 5.09368e-05
439 16.9365 8.36737 0.892138 0 0 1.00101 5.22394e-05
1198 16.9924 7.67006 1.68612 0 0 1.00101 4.91274e-05
364 17.3567 7.48084 0.846449 0 0 1.00101 4.39575e-05
441 17.5963 8.56682 0.139267 0 0 1.00101 5.12665e-05
443 18.0805 8.5584 1.07069 0 0 1.00101 5.25285e-05
362 18.16 7.62086 0.295725 0 0 1.001 4.44524e-05
368 18.7741 7.8763 1.07427 0 0 1.001 4.64606e-05
445 18.7904 8.72537 0.274479 0 0 1.001 5.28485e-05
447 19.4476 8.82617 1.01735 0 0 1.001 5.20022e-05
366 19.507 7.92454 0.214221 0 0 1.001 4.5532e-05
372 19.9517 7.88515 1.15241 0 0 1.001 4.72864e-05
370 20.6226 8.29279 0.609508 0 0 1.001 4.60108e-05
371 20.8511 7.51783 1.34711 0 0 1.001 4.22242e-05
373 21.4718 7.75721 0.591483 0 0 1.001 4.06781e-05
376 21.4703 8.76469 1.30831 0 0 1.001 4.76768e-05
374 22.1735 8.63693 0.58694 0 0 1.00099 4.45465e-05
375 22.2022 7.75377 1.29837 0 0 1.001 4.04968e-05
377 22.9752 7.86685 0.663148 0 0 1.001 3.80123e-05
378 23.6784 8.73845 0.395042 0 0 1.001 3.89371e-05
379 23.8796 7.91336 1.19988 0 0 1.001 3.56693e-05
381 24.5345 7.95141 0.303492 0 0 1.001 3.26696e-05
384 24.6489 8.63455 1.08167 0 0 1.001 3.51159e-05
302 25.2202 7.09015 0.44434 0 0 1.001 2.70134e-05
308 26.1226 7.0884 1.60435 0 0 1.001 2.44745e-05
383 25.4201 7.76345 1.18834 0 0 1.001 2.89611e-05
382 25.4246 8.5434 0.307841 0 0 1.001 3.1001e-05
385 26.1636 7.78023 0.494045 0 0 1.001 2.55015e-05
388 26.1897 8.57035 1.22831 0 0 1.001 2.81115e-05
387 26.8574 7.6621 1.40881 0 0 1.001 2.31377e-05
389 27.6446 7.2562 0.623869 0 0 1.001 1.85546e-05
386 27.0365 8.30678 0.388482 0 0 1.001 2.37251e-05
392 27.7436 8.09566 1.30671 0 0 1.001 2.02963e-05
469 27.9133 8.75109 0.429457 0 0 1.001 2.03065e-05
391 28.5177 7.2136 1.37428 0 0 1.001 1.54124e-05
390 28.5696 7.78845 0.512843 0 0 1.001 1.59593e-05
471 28.6829 8.65415 1.20968 0 0 1.001 1.71473e-05
396 29.4508 7.71927 1.23742 0 0 1.001 1.2789e-05
473 29.5106 8.37209 0.417599 0 0 1.001 1.29135e-05
475 30.3039 8.15917 1.27726 0 0 1.001 9.67416e-06
394 30.3406 7.39132 0.498498 0 0 1.001 9.29752e-06
400 31.0751 7.34817 1.1784 0 0 1.001 6.48227e-06
480 31.1848 8.76424 1.19193 0 0 1.001 6.58973e-06
477 31.3768 8.08625 0.387459 0 0 1.001 5.83646e-06
484 0.969528 9.84892 0.912983 0 0 1.001 5.42188e-06
481 1.08697 9.22301 0.119752 0 0 1.001 5.88295e-06
1322 1.56096 9.86172 1.72351 0 0 1.001 8.37465e-06
559 0.236419 9.3654 1.13131 0 0 1.001 2.84997e-06
558 0.185629 10.0634 0.059388 0 0 1.001 1.84138e-06
483 1.77923 9.06975 1.16682 0 0 1.001 9.25381e-06
482 1.82495 9.94403 0.242063 0 0 1.001 9.01899e-06
485 2.51803 8.98379 0.407426 0 0 1.001 1.21197e-05
488 2.55988 9.81877 0.975286 0 0 1.001 1.24882e-05
567 3.29355 10.2873 0.713563 0 0 1.00101 1.61011e-05
1405 2.38928 10.5084 1.56739 0 0 1.001 1.25395e-05
486 3.35083 9.57686 0.0822165 0 0 1.00101 1.59993e-05
1326 3.54297 9.47003 1.6526 0 0 1.00101 1.78693e-05
492 4.20116 9.20307 0.740602 0 0 1.00101 2.00856e-05
1409 4.32521 9.8948 1.42007 0 0 1.00101 2.17272e-05
571 4.89932 9.90215 0.491522 0 0 1.00101 2.41899e-05
1410 4.97382 10.5462 1.3206 0 0 1.00101 2.59858e-05
1330 5.05381 8.94183 1.54915 0 0 1.001 2.53002e-05
496 5.5278 8.95639 0.575461 0 0 1.00101 2.67778e-05
575 6.37803 9.50242 0.445333 0 0 1.001 3.23409e-05
1413 5.70829 9.64221 1.43056 0 0 1.001 2.99816e-05
1414 6.47219 10.1191 1.19094 0 0 1.00101 3.41283e-05
576 5.59344 10.4898 0.369297 0 0 1.00101 2.92752e-05
1417 7.34331 9.23744 1.1938 0 0 1.001 3.77007e-05
579 8.09553 9.29659 0.455989 0 0 1.001 4.08971e-05
580 7.17974 10.099 0.36431 0 0 1.001 3.78319e-05
1418 8.13575 10.0638 1.10448 0 0 1.001 4.49189e-05
1421 8.98888 9.24106 1.30474 0 0 1.001 4.63805e-05
584 9.0857 9.99597 0.653443 0 0 1.001 4.79025e-05
1422 10.0445 10.2391 1.35333 0 0 1.001 5.62821e-05
583 10.0833 9.54264 0.648756 0 0 1.001 5.09316e-05
1342 10.1519 8.83344 1.36477 0 0 1.001 4.92216e-05
508 11.0695 9.06698 0.652576 0 0 1.001 5.20225e-05
1425 11.0832 9.72872 1.37231 0 0 1.001 5.88302e-05
588 10.7655 10.4627 0.540151 0 0 1.001 5.80986e-05
587 11.7842 9.90684 0.652968 0 0 1.001 5.88125e-05
1346 12.2155 9.03517 1.57876 0 0 1.001 5.72131e-05
512 12.7506 9.50422 0.710546 0 0 1.001 5.86328e-05
510 13.3842 9.81858 0.0346144 0 0 1.001 6.03972e-05
1429 12.7778 10.1319 1.49608 0 0 1.001 6.53986e-05
589 12.4964 10.4198 0.183629 0 0 1.001 6.20956e-05
1426 11.8503 10.5293 1.47759 0 0 1.001 6.60604e-05
1350 13.6905 9.66703 1.58129 0 0 1.001 6.44898e-05
511 13.7636 9.01665 0.685489 0 0 1.001 5.67557e-05
1353 14.4579 8.98847 1.61378 0 0 1.001 6.13527e-05
516 14.468 9.89969 0.937714 0 0 1.001 6.3034e-05
514 15.0482 10.2201 0.04545 0 0 1.001 6.43877e-05
591 13.5505 10.517 0.979234 0 0 1.001 6.63169e-05
515 15.2937 9.35346 0.864821 0 0 1.001 6.0342e-05
1354 15.3003 10.0704 1.69262 0 0 1.001 6.89708e-05
517 15.9912 9.90743 0.210119 0 0 1.001 6.17979e-05
440 16.2397 9.05902 0.821666 0 0 1.00101 5.73517e-05
520 15.9282 10.5518 1.0286 0 0 1.001 6.68566e-05
519 16.8751 10.0033 1.02205 0 0 1.001 6.48826e-05
438 16.9652 9.31907 0.135488 0 0 1.00101 5.65872e-05
521 17.3752 10.3926 0.218276 0 0 1.001 6.43247e-05
444 17.6938 9.48598 1.13439 0 0 1.001 6.0097e-05
523 18.1908 10.4965 0.968414 0 0 1.001 6.65795e-05
442 18.1853 9.56997 0.255772 0 0 1.001 5.87586e-05
448 18.8486 9.68978 1.06029 0 0 1.001 5.94783e-05
446 19.4156 9.93781 0.108675 0 0 1.001 5.8106e-05
452 19.9941 9.9371 0.956253 0 0 1.00099 6.00211e-05
449 20.0948 9.12735 0.228654 0 0 1.001 5.11765e-05
451 20.6192 9.20979 1.18116 0 0 1.001 5.37503e-05
453 21.356 9.27452 0.383528 0 0 1.00099 5.11841e-05
450 20.794 10.1118 0.229672 0 0 1.00099 5.72706e-05
456 21.3793 10.2503 1.02493 0 0 1.001 5.65607e-05
380 22.9638 8.95335 1.13029 0 0 1.00099 4.39338e-05
455 22.1663 9.70731 1.06131 0 0 1.001 5.0825e-05
454 22.1704 10.4091 0.227033 0 0 1.001 5.23554e-05
457 22.9766 9.67335 0.269385 0 0 1.001 4.56247e-05
460 22.9752 10.4877 0.97151 0 0 1.001 5.03634e-05
1298 23.7521 10.4355 1.64689 0 0 1.001 4.76331e-05
459 23.854 9.59994 1.01551 0 0 1.00099 4.26691e-05
461 24.6489 9.42722 0.339706 0 0 1.00099 3.73676e-05
458 23.9221 10.3762 0.225203 0 0 1.001 4.43299e-05
464 24.6314 10.3804 0.986191 0 0 1.001 4.10269e-05
1302 25.4004 10.2126 1.72527 0 0 1.001 3.76413e-05
462 25.4127 10.1665 0.221357 0 0 1.001 3.55663e-05
463 25.4605 9.41384 1.01781 0 0 1.001 3.38466e-05
465 26.2628 9.3048 0.317631 0 0 1.001 2.94519e-05
468 26.257 10.1488 1.00854 0 0 1.001 3.15408e-05
1306 26.9872 9.87126 1.75265 0 0 1.001 2.7643e-05
467 27.0296 9.1429 1.0096 0 0 1.001 2.54948e-05
466 27.1803 9.72024 0.118789 0 0 1.001 2.5081e-05