ITEM: TIMESTEP
23500
ITEM: NUMBER OF ATOMS
32000
ITEM: BOX BOUNDS pp pp pp
0.0000000000000000e+00 3.1748021039364001e+01
0.0000000000000000e+00 3.1748021039364001e+01
0.0000000000000000e+00 3.1748021039364001e+01
ITEM: ATOMS id x y z c_phase c_nbond c_rho v_omega
4 0.19941 1.11561 0.467754 0 0 1.00073 8.29546e-07
83 1.09836 1.61355 0.779678 0 0 1.00073 2.83344e-06
842 0.780187 0.758673 1.40635 0 0 1.00073 1.51558e-06
921 0.131824 1.62503 1.37794 0 0 1.00073 1.33843e-06
3 0.739238 0.0345163 0.618233 0 0 1.00073 6.16412e-07
8 1.77605 0.713733 1.0127 0 0 1.00073 2.64958e-06
85 1.92195 1.36952 0.212415 0 0 1.00073 3.84546e-06
925 1.96013 1.53436 1.74733 0 0 1.00073 4.11807e-06
6 2.57827 0.581994 0.197671 0 0 1.00073 3.56359e-06
87 2.77031 1.36693 0.869877 0 0 1.00073 5.06999e-06
846 2.74132 0.645436 1.73206 0 0 1.00073 3.7453e-06
12 3.504 0.700669 0.954612 0 0 1.00073 4.9304e-06
929 3.74902 1.46384 1.70359 0 0 1.00073 6.58794e-06
10 4.18427 0.594793 0.312138 0 0 1.00073 5.2188e-06
850 4.40964 0.660543 1.62736 0 0 1.00073 5.96911e-06
91 4.16814 1.56822 0.711347 0 0 1.00073 7.51691e-06
16 5.02815 0.262982 1.14495 0 0 1.00073 5.1818e-06
93 5.06565 1.29308 0.37872 0 0 1.00073 7.79275e-06
14 5.71295 0.317699 0.308085 0 0 1.00073 5.90795e-06
95 6.00827 0.974217 0.946872 0 0 1.00073 7.69414e-06
854 5.83644 0.122965 1.69435 0 0 1.00073 5.37083e-06
933 5.17596 1.38518 1.43469 0 0 1.00073 8.42152e-06
97 6.71047 1.0439 0.215628 0 0 1.00073 8.11861e-06
20 6.74739 0.0455666 0.864981 0 0 1.00073 5.42764e-06
937 6.7901 0.648947 1.69084 0 0 1.00073 7.2011e-06
24 8.29894 0.0412831 1.05524 0 0 1.00073 5.5628e-06
99 7.49373 0.858698 0.946988 0 0 1.00073 8.03571e-06
941 8.28446 0.88453 1.61407 0 0 1.00073 8.89621e-06
18 7.64776 0.291159 0.15129 0 0 1.00073 6.21599e-06
938 7.52596 1.67526 1.56375 0 0 1.00073 1.11592e-05
101 8.39843 1.02103 0.228773 0 0 1.00073 8.80075e-06
22 8.90759 0.140426 0.254176 0 0 1.00073 5.677e-06
103 9.16537 0.943533 1.09112 0 0 1.00073 8.66047e-06
945 9.71457 0.616752 1.75996 0 0 1.00073 6.97453e-06
105 9.79712 1.00895 0.105333 0 0 1.00073 8.53424e-06
108 10.0314 1.66412 1.09094 0 0 1.00073 1.15436e-05
102 9.16039 1.72785 0.244547 0 0 1.00073 1.17304e-05
107 10.5015 0.728813 0.831068 0 0 1.00073 7.34699e-06
949 11.4379 0.720677 1.41767 0 0 1.00073 7.03639e-06
946 10.808 1.36328 1.72354 0 0 1.00073 1.05082e-05
26 10.2828 0.036191 0.0800342 0 0 1.00073 4.49399e-06
112 11.4215 1.54308 0.777424 0 0 1.00073 1.10616e-05
36 12.9097 0.0250018 0.638992 0 0 1.00073 2.86167e-06
111 12.1878 0.832219 0.516615 0 0 1.00073 7.0907e-06
870 12.1687 0.0664241 1.30625 0 0 1.00073 3.70012e-06
953 12.9044 0.980364 1.37515 0 0 1.00073 7.66209e-06
950 12.2172 1.66551 1.4638 0 0 1.00073 1.15503e-05
116 12.9736 1.74013 0.607313 0 0 1.00073 1.15369e-05
40 14.4288 0.24046 0.780012 0 0 1.00073 3.23001e-06
115 13.7594 0.975522 0.84045 0 0 1.00073 7.14565e-06
117 14.2973 1.4373 0.153771 0 0 1.00073 9.54198e-06
874 13.6661 0.208989 1.63613 0 0 1.00073 3.29876e-06
957 14.561 1.08122 1.48212 0 0 1.00073 7.40503e-06
119 15.1256 1.51227 0.669032 0 0 1.00073 9.48315e-06
44 15.8402 0.781436 0.790976 0 0 1.00073 5.65559e-06
878 15.2196 0.43993 1.63962 0 0 1.00073 3.68326e-06
882 16.6663 0.79946 1.34919 0 0 1.00073 5.6758e-06
961 15.8771 1.51342 1.40544 0 0 1.00073 9.91005e-06
38 15.2105 0.677493 0.0725333 0 0 1.00073 4.8891e-06
123 16.7976 1.64489 0.6908 0 0 1.00073 1.03794e-05
48 17.3872 0.874604 0.562775 0 0 1.00073 6.11172e-06
886 18.0486 0.951371 1.42714 0 0 1.00072 7.11613e-06
47 18.163 0.135601 0.69492 0 0 1.00072 2.93781e-06
51 19.5565 0.300631 0.674178 0 0 1.00073 4.77029e-06
52 18.9102 0.991633 0.694459 0 0 1.00072 7.60595e-06
889 19.0475 0.426964 1.55133 0 0 1.00072 4.53175e-06
890 19.7686 1.28173 1.69701 0 0 1.00072 1.02757e-05
55 21.186 0.71721 1.07628 0 0 1.00073 7.356e-06
56 20.3756 1.11508 0.966788 0 0 1.00073 9.19875e-06
54 21.3052 1.15228 0.215466 0 0 1.00073 1.0067e-05
893 20.454 0.22483 1.43148 0 0 1.00073 5.51221e-06
53 20.2883 0.207532 0.0721691 0 0 1.00073 5.3551e-06
57 22.0785 0.684144 0.540676 0 0 1.00073 8.14665e-06
59 22.8874 0.848429 1.40627 0 0 1.00073 8.93424e-06
60 22.294 1.58521 1.33324 0 0 1.00073 1.24708e-05
58 23.0479 1.48447 0.470625 0 0 1.00073 1.15576e-05
63 24.3305 0.806024 1.42245 0 0 1.00072 9.10624e-06
61 23.6372 0.7674 0.572995 0 0 1.00072 8.87295e-06
62 24.5788 1.5997 0.744214 0 0 1.00072 1.1697e-05
64 23.6613 1.67302 1.39102 0 0 1.00073 1.25032e-05
65 25.027 0.722674 0.538473 0 0 1.00072 8.83559e-06
67 26.0592 0.758187 1.16671 0 0 1.00073 8.32078e-06
68 25.3079 1.55031 1.45856 0 0 1.00072 1.13876e-05
66 26.006 1.33582 0.425006 0 0 1.00073 1.00905e-05
17548 25.1781 0.179228 1.36045 0 0 1.00072 7.07005e-06
70 27.7056 1.59514 0.386014 0 0 1.00073 8.86235e-06
71 27.6722 0.812109 0.87249 0 0 1.00073 7.2262e-06
72 26.8594 1.38698 1.2541 0 0 1.00073 9.29333e-06
69 26.8314 0.592297 0.240233 0 0 1.00073 7.49308e-06
17552 27.1129 0.00842215 0.999004 0 0 1.00073 5.7679e-06
913 28.4299 0.613599 1.41235 0 0 1.00073 5.93095e-06
76 28.7576 1.48098 0.7334 0 0 1.00073 7.08861e-06
914 29.4661 1.16337 1.56788 0 0 1.00073 5.72775e-06
917 29.8445 0.336624 1.45658 0 0 1.00073 3.86899e-06
75 29.3128 0.557389 0.618125 0 0 1.00073 4.78814e-06
841 31.6136 0.302251 1.25651 0 0 1.00073 1.60779e-06
79 30.7532 0.582517 0.477447 0 0 1.00073 3.09786e-06
80 30.1954 1.34378 0.772607 0 0 1.00073 4.87414e-06
918 30.9414 1.06423 1.38738 0 0 1.00073 3.47405e-06
82 1.28966 2.36767 0.119009 0 0 1.00073 4.14118e-06
84 0.312817 2.39294 0.8071 0 0 1.00073 2.44889e-06
163 1.51414 3.13662 0.940781 0 0 1.00072 5.5483e-06
922 1.31635 2.2899 1.58701 0 0 1.00073 4.2045e-06
1001 0.603488 3.02619 1.54878 0 0 1.00073 3.53357e-06
161 0.552246 3.09956 0.128438 0 0 1.00073 3.38531e-06
88 2.09426 2.28344 0.782573 0 0 1.00073 5.38178e-06
167 2.90287 3.08492 0.854094 0 0 1.00072 8.32321e-06
926 2.85431 2.05248 1.53584 0 0 1.00073 6.50422e-06
86 2.90977 2.19947 0.051081 0 0 1.00073 6.75689e-06
1005 2.33628 2.94292 1.7502 0 0 1.00072 6.86266e-06
1009 3.53716 3.16391 1.64465 0 0 1.00073 1.00194e-05
92 3.58941 2.32233 0.781647 0 0 1.00073 8.23226e-06
171 4.47018 3.02469 0.754179 0 0 1.00073 1.10355e-05
930 4.37146 2.35348 1.57885 0 0 1.00073 9.56365e-06
96 5.13612 2.2436 0.81766 0 0 1.00073 1.05122e-05
94 5.88248 2.09763 0.14 0 0 1.00073 1.09691e-05
175 5.95591 2.83327 0.953562 0 0 1.00073 1.33322e-05
934 6.06818 1.84898 1.48641 0 0 1.00073 1.04132e-05
173 5.27427 2.98591 0.0109677 0 0 1.00073 1.27108e-05
100 6.77983 1.81579 0.780065 0 0 1.00073 1.08923e-05
1017 6.84771 2.66677 1.54063 0 0 1.00073 1.40691e-05
177 6.92559 2.5615 0.122685 0 0 1.00073 1.33088e-05
98 7.68852 1.84608 0.131992 0 0 1.00073 1.15866e-05
104 8.34703 1.80734 0.934947 0 0 1.00073 1.19854e-05
179 7.72864 2.65288 0.902699 0 0 1.00073 1.49196e-05
180 6.87843 3.37568 0.782348 0 0 1.00073 1.63154e-05
1018 7.82379 3.43436 1.49956 0 0 1.00073 1.84338e-05
1021 8.5363 2.57964 1.64001 0 0 1.00073 1.55923e-05
181 8.60655 2.57123 0.036916 0 0 1.00073 1.49151e-05
183 9.28758 2.57227 0.930011 0 0 1.00073 1.60887e-05
942 9.31057 1.82701 1.71503 0 0 1.00073 1.29376e-05
185 9.93534 2.54293 0.20559 0 0 1.00073 1.58702e-05
1022 9.53236 3.3481 1.50122 0 0 1.00073 2.07985e-05
184 8.63664 3.44487 0.703494 0 0 1.00073 1.90588e-05
182 9.44342 3.45932 0.0514056 0 0 1.00073 2.00857e-05
188 10.3381 3.20593 0.880976 0 0 1.00073 1.94919e-05
106 10.5631 1.77251 0.196081 0 0 1.00073 1.21494e-05
187 10.9947 2.46351 0.918589 0 0 1.00073 1.55645e-05
1026 11.1868 3.2363 1.59403 0 0 1.00073 2.03958e-05
186 11.0926 3.4798 0.168422 0 0 1.00073 2.11301e-05
1029 11.8498 2.53794 1.59515 0 0 1.00073 1.69987e-05
192 11.9047 3.33112 0.809028 0 0 1.00073 2.11298e-05
191 12.3214 2.40025 0.743321 0 0 1.00073 1.60667e-05
1033 13.3186 2.79835 1.69563 0 0 1.00073 1.82659e-05
196 13.0091 3.38059 0.816594 0 0 1.00073 2.21277e-05
195 13.6729 2.85304 0.840449 0 0 1.00073 1.79483e-05
954 13.7004 1.83801 1.47377 0 0 1.00073 1.18429e-05
120 14.4118 2.32986 0.924469 0 0 1.00073 1.48324e-05
1037 14.5806 3.26475 1.55667 0 0 1.00073 2.13377e-05
197 14.6378 3.12306 0.0426237 0 0 1.00073 1.96247e-05
114 13.7631 2.14356 0.0502549 0 0 1.00073 1.4061e-05
199 15.2551 3.3784 0.872368 0 0 1.00073 2.15837e-05
958 15.1888 2.27499 1.44783 0 0 1.00073 1.47332e-05
118 15.2481 2.46041 0.131405 0 0 1.00073 1.55375e-05
124 16.0887 2.46912 0.70503 0 0 1.00072 1.54801e-05
1041 15.9308 3.27618 1.50979 0 0 1.00073 2.1105e-05
201 16.0892 3.27771 0.0204032 0 0 1.00073 2.11889e-05
962 16.7289 2.56695 1.53197 0 0 1.00072 1.66251e-05
127 18.1845 1.79839 0.75476 0 0 1.00072 1.18341e-05
203 16.8296 3.29162 0.674518 0 0 1.00072 2.12411e-05
965 17.5141 1.89621 1.56476 0 0 1.00072 1.23608e-05
128 17.4563 2.50642 0.679277 0 0 1.00072 1.60603e-05
1045 17.5948 3.2827 1.50583 0 0 1.00072 2.12445e-05
969 18.9201 1.77473 1.50155 0 0 1.00073 1.21945e-05
207 18.4064 3.16184 0.717028 0 0 1.00072 2.03515e-05
966 18.4182 2.6609 1.59952 0 0 1.00072 1.77088e-05
131 19.7836 1.87198 0.844189 0 0 1.00073 1.28303e-05
129 19.1171 1.85356 0.00992053 0 0 1.00072 1.23312e-05
132 19.2652 2.6669 1.01767 0 0 1.00073 1.75429e-05
209 19.3351 3.31432 0.1926 0 0 1.00072 2.16313e-05
130 19.958 2.65464 0.112543 0 0 1.00073 1.7501e-05
133 20.5796 1.87029 0.205405 0 0 1.00073 1.3188e-05
135 21.3372 2.02952 0.962361 0 0 1.00073 1.42985e-05
973 20.6054 2.14635 1.74471 0 0 1.00073 1.51655e-05
134 21.5179 2.83547 0.460602 0 0 1.00073 1.81841e-05
136 20.5851 2.82647 1.0945 0 0 1.00073 1.89983e-05
213 20.8367 3.41757 0.328277 0 0 1.00073 2.20944e-05
137 22.2193 2.03537 0.514659 0 0 1.00073 1.43111e-05
139 23.1629 2.50919 1.51347 0 0 1.00073 1.62412e-05
138 23.2813 3.07418 0.729075 0 0 1.00073 1.82809e-05
140 22.4101 2.94969 1.2368 0 0 1.00073 1.91257e-05
141 23.9407 2.26678 0.621896 0 0 1.00073 1.43768e-05
143 24.6601 2.43734 1.58133 0 0 1.00073 1.50721e-05
142 24.6436 3.14369 0.77249 0 0 1.00073 1.75656e-05
144 24.0265 3.36627 1.53312 0 0 1.00073 1.95102e-05
16108 25.2582 3.26084 0.00358616 0 0 1.00073 1.70526e-05
147 26.1205 2.14552 1.35724 0 0 1.00073 1.24634e-05
149 26.7336 2.16189 0.512573 0 0 1.00073 1.15366e-05
145 25.3406 2.27828 0.529028 0 0 1.00072 1.36246e-05
146 26.0638 3.03042 0.698865 0 0 1.00072 1.52611e-05
148 25.4433 3.0192 1.52164 0 0 1.00073 1.59568e-05
152 26.7798 2.96726 1.52824 0 0 1.00073 1.39479e-05
151 27.6798 2.31087 1.22794 0 0 1.00073 1.04074e-05
150 27.3339 3.0489 0.632634 0 0 1.00073 1.28874e-05
153 28.4369 2.37201 0.344942 0 0 1.00073 9.45277e-06
156 28.4845 3.04485 1.19469 0 0 1.00073 1.08421e-05
993 28.6684 1.9961 1.50552 0 0 1.00073 8.3862e-06
155 29.6004 2.23199 0.880442 0 0 1.00073 7.2106e-06
154 29.4054 2.90234 0.285804 0 0 1.00073 8.77189e-06
235 29.5061 3.48328 1.18107 0 0 1.00073 9.55855e-06
997 30.1147 1.97342 1.70256 0 0 1.00073 6.20179e-06
159 31.0652 2.06452 0.92181 0 0 1.00073 4.58319e-06
160 30.3845 2.8539 0.996851 0 0 1.00073 6.54565e-06
239 31.2695 3.42103 0.971871 0 0 1.00073 5.91418e-06
998 31.1907 2.77414 1.72647 0 0 1.00073 5.20191e-06
237 30.3638 3.40136 0.152223 0 0 1.00073 7.75644e-06
157 30.5533 2.03353 0.0334125 0 0 1.00073 5.4377e-06
158 31.3382 2.72832 0.0764933 0 0 1.00073 4.93027e-06
164 0.557511 3.77603 0.915995 0 0 1.00073 3.91331e-06
241 0.446953 4.61054 0.469746 0 0 1.00073 4.29348e-06
243 1.44304 4.57187 0.981846 0 0 1.00072 6.88386e-06
162 1.31254 3.78975 0.0687357 0 0 1.00073 5.46456e-06
244 0.433052 5.27153 1.27531 0 0 1.00073 4.80588e-06
168 2.14123 3.90061 0.849562 0 0 1.00072 7.64064e-06
247 2.87739 4.64944 1.12007 0 0 1.00073 1.06614e-05
166 2.95518 3.93792 0.196383 0 0 1.00072 9.77935e-06
245 2.2248 4.8006 0.279834 0 0 1.00073 8.81374e-06
249 3.76667 4.58043 0.167187 0 0 1.00073 1.28667e-05
172 3.79326 3.81369 0.883473 0 0 1.00073 1.12276e-05
251 4.43944 4.55086 1.15033 0 0 1.00073 1.47736e-05
170 4.58012 3.86074 0.142047 0 0 1.00072 1.31717e-05
250 4.60546 5.1207 0.318048 0 0 1.00073 1.6107e-05
176 5.25729 3.65792 1.14725 0 0 1.00073 1.44681e-05
253 5.39759 4.37023 0.323469 0 0 1.00073 1.65263e-05
174 6.11658 3.5518 0.173997 0 0 1.00073 1.58883e-05
255 6.12668 4.30672 1.02496 0 0 1.00073 1.82983e-05
254 6.2236 4.98283 0.275763 0 0 1.00073 2.02018e-05
256 5.38148 5.04434 1.28162 0 0 1.00073 1.84138e-05
1097 7.10536 4.08088 1.64393 0 0 1.00073 1.99179e-05
260 7.13278 4.70245 0.860251 0 0 1.00073 2.15561e-05
259 7.85831 4.02007 0.562943 0 0 1.00073 2.06565e-05
258 7.83716 4.88977 0.0275837 0 0 1.00072 2.40161e-05
1098 7.93521 4.90647 1.49056 0 0 1.00073 2.48785e-05
1101 8.71314 4.1447 1.47297 0 0 1.00073 2.28005e-05
264 8.75608 4.8478 0.697843 0 0 1.00073 2.58549e-05
263 9.60109 4.13407 0.807499 0 0 1.00073 2.39002e-05
1102 9.65623 4.85725 1.57915 0 0 1.00072 2.85655e-05
262 9.60514 5.01178 0.0183407 0 0 1.00073 2.82983e-05
268 10.3933 4.89563 0.796286 0 0 1.00073 2.91653e-05
265 10.3894 4.1254 0.118941 0 0 1.00073 2.45179e-05
1105 10.4271 3.94236 1.65547 0 0 1.00073 2.42452e-05
267 11.1753 4.25206 0.894081 0 0 1.00073 2.60464e-05
1106 11.1881 4.82361 1.75083 0 0 1.00072 3.01435e-05
266 11.155 5.1505 0.0157927 0 0 1.00073 3.12797e-05
269 11.9757 4.37774 0.211098 0 0 1.00073 2.67816e-05
1109 11.9707 4.0664 1.68979 0 0 1.00073 2.69014e-05
272 12.0741 4.93528 1.00812 0 0 1.00072 3.1513e-05
271 12.8247 4.28621 1.00821 0 0 1.00073 2.81151e-05
273 13.2479 4.37563 0.0567475 0 0 1.00072 2.78989e-05
1113 13.4989 4.72423 1.69386 0 0 1.00073 3.15311e-05
275 13.8905 4.53449 0.780801 0 0 1.00073 2.98412e-05
200 14.6178 4.01003 0.696248 0 0 1.00073 2.58172e-05
1034 14.1384 4.04395 1.59053 0 0 1.00073 2.69376e-05
1117 14.9492 4.99815 1.52411 0 0 1.00073 3.46233e-05
277 14.8338 4.77714 0.0820806 0 0 1.00073 3.08179e-05
194 13.8028 3.56311 0.00923882 0 0 1.00073 2.2663e-05
279 15.6908 5.00981 0.820053 0 0 1.00073 3.32539e-05
198 15.5842 4.15597 0.108126 0 0 1.00073 2.65539e-05
1038 15.6726 4.37867 1.60003 0 0 1.00073 2.8914e-05
204 16.2962 4.10595 0.907221 0 0 1.00072 2.68002e-05
281 16.5545 4.84294 0.172069 0 0 1.00073 3.14907e-05
1121 16.5994 5.10835 1.65521 0 0 1.00073 3.53675e-05
1042 16.98 4.08086 1.67914 0 0 1.00072 2.76956e-05
283 17.272 4.75409 0.90952 0 0 1.00072 3.14157e-05
208 17.8633 4.02275 0.80689 0 0 1.00072 2.58886e-05
285 18.0892 4.81733 0.0352781 0 0 1.00072 3.14697e-05
1046 18.5191 3.91126 1.6559 0 0 1.00072 2.61237e-05
287 18.7307 4.7836 1.09447 0 0 1.00072 3.19236e-05
206 18.7101 4.11658 0.0771341 0 0 1.00072 2.61186e-05
212 19.4017 4.04109 0.964962 0 0 1.00072 2.6217e-05
289 19.4694 4.96764 0.357898 0 0 1.00072 3.25837e-05
210 20.126 4.14265 0.252696 0 0 1.00073 2.65667e-05
211 20.1807 3.60617 1.27435 0 0 1.00073 2.37586e-05
291 20.2999 5.07636 1.11929 0 0 1.00073 3.26072e-05
216 20.947 4.25458 1.22704 0 0 1.00073 2.66981e-05
295 21.4811 5.21625 1.37249 0 0 1.00072 3.29741e-05
214 21.615 4.41776 0.517541 0 0 1.00073 2.70395e-05
293 20.7778 5.22732 0.353932 0 0 1.00073 3.25328e-05
215 21.7654 3.74826 1.3928 0 0 1.00073 2.29358e-05
217 22.3996 3.6779 0.607702 0 0 1.00073 2.2892e-05
16179 23.1145 3.88229 0.0444716 0 0 1.00073 2.23697e-05
219 23.2694 4.10876 1.40863 0 0 1.00073 2.35882e-05
220 22.4459 4.63645 1.31173 0 0 1.00072 2.78847e-05
218 23.1338 4.85699 0.54177 0 0 1.00073 2.71902e-05
223 24.8549 4.01557 1.55775 0 0 1.00073 2.09779e-05
221 23.9934 4.11953 0.771934 0 0 1.00073 2.24657e-05
222 24.7776 4.84728 0.636383 0 0 1.00073 2.41136e-05
224 23.9728 5.06635 1.34296 0 0 1.00073 2.73935e-05
228 25.4638 4.98369 1.58997 0 0 1.00073 2.32627e-05
227 26.066 3.94618 1.52048 0 0 1.00072 1.82834e-05
229 26.5122 3.92507 0.596209 0 0 1.00072 1.70296e-05
225 25.4315 4.11036 0.772268 0 0 1.00073 1.97435e-05
226 25.9496 4.87809 0.415872 0 0 1.00073 2.11393e-05
233 28.2554 3.54119 0.338526 0 0 1.00073 1.23923e-05
232 26.7462 4.72482 1.37442 0 0 1.00073 1.88716e-05
231 27.51 3.7198 1.41281 0 0 1.00073 1.43139e-05
311 27.7267 5.26923 1.40192 0 0 1.00073 1.76822e-05
236 28.2896 4.30427 1.11331 0 0 1.00073 1.41906e-05
230 27.4131 4.42805 0.582847 0 0 1.00073 1.66515e-05
313 28.6285 5.05876 0.699058 0 0 1.00073 1.41429e-05
234 29.2246 4.03061 0.473351 0 0 1.00073 1.10774e-05
315 29.4165 4.77155 1.31607 0 0 1.00073 1.18007e-05
240 30.2836 4.2228 1.03036 0 0 1.00073 8.85238e-06
238 31.3029 4.06574 0.357665 0 0 1.00073 6.17276e-06
317 30.5225 4.84167 0.476114 0 0 1.00073 8.37521e-06
319 31.2926 4.68904 1.38955 0 0 1.00073 6.60655e-06
242 1.26497 5.45325 0.458577 0 0 1.00072 6.79462e-06
323 1.17767 6.13397 1.27606 0 0 1.00072 7.00194e-06
324 0.645236 6.91477 1.48831 0 0 1.00072 5.72127e-06
322 1.36293 6.84399 0.566726 0 0 1.00072 7.73512e-06
321 0.356415 6.02078 0.450268 0 0 1.00072 4.62166e-06
248 1.90211 5.37388 1.36572 0 0 1.00073 8.94319e-06
328 2.10836 6.84947 1.24089 0 0 1.00073 1.03818e-05
325 2.26903 6.02284 0.499298 0 0 1.00073 1.03489e-05
327 2.68454 5.94621 1.39278 0 0 1.00073 1.19497e-05
246 3.0571 5.36446 0.27203 0 0 1.00073 1.17932e-05
326 2.90029 6.88371 0.464596 0 0 1.00073 1.33632e-05
252 3.51822 5.35023 1.28017 0 0 1.00073 1.37458e-05
332 3.67742 6.65417 1.13951 0 0 1.00073 1.57013e-05
329 3.8235 5.95988 0.475769 0 0 1.00073 1.51475e-05
331 4.56344 5.72439 1.21888 0 0 1.00073 1.75841e-05
330 4.4627 6.63698 0.225285 0 0 1.00073 1.86599e-05
336 5.27189 6.38541 1.15455 0 0 1.00073 2.1622e-05
333 5.30104 5.83237 0.313788 0 0 1.00073 1.99339e-05
335 6.17841 5.75319 0.954111 0 0 1.00073 2.3128e-05
334 6.06781 6.55927 0.146464 0 0 1.00073 2.46656e-05
337 6.91726 5.60464 0.137791 0 0 1.00073 2.4054e-05
340 7.00901 6.34248 0.958114 0 0 1.00073 2.78816e-05
1177 7.0068 5.49899 1.59603 0 0 1.00073 2.49059e-05
339 7.8815 5.63937 0.757546 0 0 1.00073 2.74035e-05
1178 7.90103 6.28812 1.59174 0 0 1.00073 3.11669e-05
417 7.07888 7.02853 0.145014 0 0 1.00073 2.99675e-05
344 8.66312 6.31183 0.705233 0 0 1.00073 3.25366e-05
1181 8.84667 5.59776 1.4951 0 0 1.00072 3.05133e-05
343 9.53899 5.6865 0.741354 0 0 1.00073 3.17716e-05
1182 9.78672 6.41637 1.46063 0 0 1.00072 3.74321e-05
1261 8.76166 6.8951 1.54786 0 0 1.00073 3.699e-05
1185 10.4586 5.69047 1.48152 0 0 1.00073 3.48052e-05
345 10.4367 5.78637 0.0847754 0 0 1.00073 3.39644e-05
347 11.3085 5.60852 0.92562 0 0 1.00073 3.42953e-05
346 11.2863 6.51223 0.119273 0 0 1.00073 4.01147e-05
1186 11.2656 6.45915 1.49009 0 0 1.00073 4.15767e-05
348 10.5614 6.67847 0.72572 0 0 1.00072 4.01491e-05
349 12.0686 5.98168 0.0557604 0 0 1.00073 3.75742e-05
352 12.1155 6.72721 0.805281 0 0 1.00073 4.40231e-05
270 12.7147 5.29025 0.186296 0 0 1.00072 3.35399e-05
351 12.5569 5.88507 1.04889 0 0 1.00073 3.87178e-05
1190 12.9887 6.80507 1.37827 0 0 1.00073 4.70151e-05
276 13.455 5.54803 0.861473 0 0 1.00072 3.65975e-05
274 14.0597 5.3505 0.0280707 0 0 1.00073 3.54609e-05
1114 14.1608 5.67135 1.57807 0 0 1.00072 3.91777e-05
355 14.2054 6.35251 0.791924 0 0 1.00073 4.28946e-05
280 14.8723 5.60767 0.772514 0 0 1.00073 3.8287e-05
357 14.9786 6.28084 0.0319412 0 0 1.00073 4.27358e-05
356 13.5905 7.02149 0.586314 0 0 1.00073 4.79189e-05
1197 15.2163 6.52317 1.43446 0 0 1.00073 4.73802e-05
278 15.7831 5.61034 0.041333 0 0 1.00073 3.743e-05
284 16.6525 5.81257 0.942185 0 0 1.00073 3.96534e-05
359 15.9123 6.46287 0.802676 0 0 1.00073 4.52854e-05
1118 15.9719 5.85927 1.69346 0 0 1.00073 4.1644e-05
361 16.5288 6.4116 0.0491467 0 0 1.00073 4.40924e-05
363 17.3514 6.63275 1.15143 0 0 1.00073 4.62068e-05
282 17.3738 5.59482 0.264231 0 0 1.00072 3.69869e-05
288 17.8857 5.64487 1.24037 0 0 1.00072 3.87e-05
365 17.9293 6.50826 0.395131 0 0 1.00072 4.49945e-05
367 18.5033 6.55011 1.35436 0 0 1.00072 4.60339e-05
286 18.5844 5.61815 0.515948 0 0 1.00072 3.77131e-05
292 19.4909 5.65269 1.20063 0 0 1.00073 3.80591e-05
369 19.1874 6.60233 0.616874 0 0 1.00073 4.47108e-05
371 20.122 7.03168 1.34979 0 0 1.00073 4.76326e-05
290 20.1798 6.178 0.628655 0 0 1.00073 4.03432e-05
294 21.4551 6.28851 0.645528 0 0 1.00072 3.86726e-05
296 20.879 6.10307 1.38843 0 0 1.00073 3.95221e-05
297 22.2034 5.48579 0.786273 0 0 1.00072 3.26848e-05
299 23.0797 5.72116 1.28878 0 0 1.00073 3.28866e-05
300 22.3204 6.43789 1.36655 0 0 1.00073 3.87399e-05
16260 22.35 6.29148 0.0541863 0 0 1.00072 3.67984e-05
298 23.2696 6.42563 0.650212 0 0 1.00072 3.48524e-05
301 24.0576 5.62444 0.540309 0 0 1.00072 2.88528e-05
303 24.8733 5.84742 1.44157 0 0 1.00073 2.81107e-05
304 24.0714 6.4931 1.28353 0 0 1.00073 3.34982e-05
302 24.7032 6.5715 0.434486 0 0 1.00072 3.14899e-05
305 25.3463 5.76202 0.568453 0 0 1.00073 2.60026e-05
307 26.1616 5.64772 1.35628 0 0 1.00073 2.35571e-05
306 26.1858 6.38012 0.694208 0 0 1.00072 2.51662e-05
308 25.6399 6.594 1.64836 0 0 1.00073 2.85952e-05
309 26.9284 5.41958 0.643393 0 0 1.00073 2.03122e-05
312 27.1445 6.32366 1.4689 0 0 1.00073 2.18378e-05
310 27.9198 5.94534 0.710751 0 0 1.00073 1.79704e-05
389 27.2188 6.84437 0.638718 0 0 1.00072 2.2458e-05
391 28.1325 6.87326 1.37361 0 0 1.00072 1.91106e-05
316 28.7702 5.86202 1.4641 0 0 1.00073 1.5518e-05
314 29.7465 5.54996 0.812693 0 0 1.00073 1.16819e-05
395 29.8309 6.44606 1.31606 0 0 1.00073 1.25047e-05
393 28.8908 6.55504 0.653606 0 0 1.00072 1.60306e-05
16355 29.7654 6.3907 0.0747481 0 0 1.00073 1.28887e-05
16276 28.8604 5.71563 0.042794 0 0 1.00073 1.45068e-05
318 31.3136 5.45479 0.589961 0 0 1.00073 7.48634e-06
320 30.5774 5.61785 1.44801 0 0 1.00073 9.32242e-06
397 30.7634 6.33929 0.636807 0 0 1.00073 9.41428e-06
399 31.5837 6.22212 1.37833 0 0 1.00073 6.99118e-06
398 31.593 7.01456 0.605445 0 0 1.00072 6.84047e-06
401 0.664981 7.62299 0.646126 0 0 1.00073 5.26252e-06
402 1.26054 8.38392 0.595598 0 0 1.00073 7.44932e-06
403 1.51258 7.72591 1.47731 0 0 1.00073 8.57002e-06
404 0.754351 8.51972 1.45876 0 0 1.00073 5.4328e-06
478 0.0780815 8.66063 0.395564 0 0 1.00073 2.93428e-06
405 2.01147 7.59889 0.38319 0 0 1.00073 9.97322e-06
408 2.15522 8.41411 1.45325 0 0 1.00073 1.14799e-05
406 2.64125 8.37146 0.393666 0 0 1.00073 1.32234e-05
407 2.83724 7.5532 1.27625 0 0 1.00073 1.36949e-05
412 3.4882 8.17906 0.934049 0 0 1.00073 1.72005e-05
409 3.69824 7.41894 0.326904 0 0 1.00073 1.68376e-05
410 4.30273 8.05164 0.0618307 0 0 1.00073 2.01942e-05
411 4.47185 7.23151 1.2019 0 0 1.00073 1.97162e-05
491 4.4109 8.65961 0.848067 0 0 1.00073 2.17671e-05
1250 4.31244 7.94484 1.76185 0 0 1.00073 2.14905e-05
413 5.19508 7.20968 0.224315 0 0 1.00073 2.2206e-05
1333 5.20551 8.53534 1.62315 0 0 1.00073 2.66779e-05
416 5.2163 7.79682 0.942391 0 0 1.00073 2.4248e-05
414 6.43365 7.80756 0.191351 0 0 1.00073 2.89361e-05
415 6.02794 7.07409 0.996766 0 0 1.00073 2.55775e-05
495 5.86617 8.41924 0.633419 0 0 1.00073 2.84057e-05
1337 6.74082 8.45 1.23786 0 0 1.00073 3.40462e-05
420 7.00494 7.60923 1.04518 0 0 1.00073 3.13707e-05
419 7.9305 7.16757 0.728901 0 0 1.00073 3.39308e-05
1258 7.92919 7.52654 1.67873 0 0 1.00073 3.59996e-05
499 7.78104 8.24937 0.717955 0 0 1.00073 3.67087e-05
421 8.67084 7.05766 0.00723863 0 0 1.00073 3.57858e-05
424 8.94484 7.7086 0.863531 0 0 1.00073 4.01861e-05
423 9.63028 7.06638 0.663337 0 0 1.00072 3.90561e-05
1262 9.81062 8.03097 1.42721 0 0 1.00072 4.65198e-05
501 8.77152 8.40893 0.0723556 0 0 1.00073 4.17552e-05
1341 8.71832 8.49568 1.38319 0 0 1.00073 4.36746e-05
503 9.65456 8.78202 0.705964 0 0 1.00073 4.82889e-05
1265 10.4787 7.29813 1.58022 0 0 1.00072 4.49953e-05
428 10.5108 8.0382 0.694334 0 0 1.00072 4.78849e-05
427 11.3861 7.42208 0.824221 0 0 1.00072 4.69683e-05
1266 11.4229 8.19083 1.42944 0 0 1.00072 5.36005e-05
426 11.2076 8.31303 0.00946435 0 0 1.00073 5.09865e-05
429 12.0594 7.65385 0.0328693 0 0 1.00073 4.95855e-05
432 12.1931 8.35868 0.720587 0 0 1.00072 5.50946e-05
1269 12.2561 7.37047 1.57285 0 0 1.00072 5.10149e-05
431 13.0487 7.84035 0.598883 0 0 1.00072 5.28238e-05
1270 12.9825 8.27847 1.50437 0 0 1.00072 5.86129e-05
1273 13.7801 7.71059 1.47793 0 0 1.00073 5.65152e-05
435 14.536 7.91815 0.511022 0 0 1.00073 5.61232e-05
1194 14.4233 7.12038 1.38168 0 0 1.00073 5.03723e-05
1274 14.6434 8.67651 1.56923 0 0 1.00073 6.60801e-05
436 13.8736 8.64573 0.779396 0 0 1.00073 6.14237e-05
360 15.2215 7.24846 0.633275 0 0 1.00073 5.16925e-05
1277 15.2387 8.02929 1.37598 0 0 1.00073 5.94937e-05
364 16.5547 7.36181 0.881749 0 0 1.00073 5.1681e-05
439 16.0555 8.27482 0.87498 0 0 1.00073 6.0607e-05
1198 16.1088 7.5384 1.66473 0 0 1.00073 5.66595e-05
437 15.4288 8.34467 0.0016796 0 0 1.00073 6.01766e-05
441 16.777 8.39312 0.147528 0 0 1.00073 6.0455e-05
443 17.2356 8.31783 1.09542 0 0 1.00073 6.12199e-05
362 17.3488 7.36202 0.296122 0 0 1.00073 5.18538e-05
368 17.9277 7.58673 1.10247 0 0 1.00073 5.45191e-05
445 17.9787 8.38404 0.3007 0 0 1.00073 6.085e-05
447 18.6434 8.4009 1.03817 0 0 1.00072 5.97411e-05
366 18.7096 7.52626 0.230617 0 0 1.00073 5.23183e-05
372 19.1594 7.45177 1.16361 0 0 1.00073 5.30187e-05
370 19.87 7.79478 0.62112 0 0 1.00072 5.21839e-05
451 19.8338 8.66183 1.18956 0 0 1.00072 6.10484e-05
449 19.3367 8.63502 0.211745 0 0 1.00072 5.87415e-05
375 21.524 7.18252 1.31254 0 0 1.00072 4.54999e-05
373 20.7769 7.25088 0.608858 0 0 1.00072 4.66584e-05
453 20.6321 8.69329 0.379746 0 0 1.00072 5.77952e-05
376 20.7263 8.21159 1.32375 0 0 1.00072 5.49678e-05
374 21.4823 8.05307 0.635792 0 0 1.00072 5.04488e-05
377 22.3463 7.27542 0.677809 0 0 1.00072 4.28483e-05
379 23.2873 7.31654 1.21178 0 0 1.00072 4.04475e-05
380 22.3015 8.32206 1.14741 0 0 1.00072 4.96165e-05
378 23.0474 8.1252 0.39373 0 0 1.00072 4.44158e-05
383 24.9023 7.18882 1.183 0 0 1.00073 3.32149e-05
381 23.9719 7.38273 0.292104 0 0 1.00072 3.75139e-05
384 24.0879 7.99759 1.07987 0 0 1.00072 3.984e-05
461 24.1085 8.77346 0.358804 0 0 1.00072 4.23347e-05
463 24.9449 8.78292 1.00929 0 0 1.00072 3.89484e-05
382 24.9071 7.95445 0.293482 0 0 1.00072 3.55139e-05
387 26.374 7.16168 1.41207 0 0 1.00072 2.71921e-05
385 25.6899 7.28546 0.498361 0 0 1.00072 2.96554e-05
388 25.6868 8.01224 1.24505 0 0 1.00072 3.25794e-05
467 26.5596 8.61063 1.00266 0 0 1.00073 2.98776e-05
386 26.5883 7.81934 0.381693 0 0 1.00072 2.78731e-05
465 25.7792 8.74313 0.319994 0 0 1.00073 3.41374e-05
390 28.1645 7.43132 0.52253 0 0 1.00072 1.98312e-05
392 27.2919 7.63953 1.32781 0 0 1.00072 2.44905e-05
471 28.2692 8.27857 1.21312 0 0 1.00072 2.09757e-05
469 27.4831 8.29943 0.435833 0 0 1.00073 2.44118e-05
394 29.9826 7.18121 0.508908 0 0 1.00073 1.25882e-05
396 29.0745 7.44767 1.23364 0 0 1.00072 1.63358e-05
474 30.0087 8.6505 0.537592 0 0 1.00072 1.32631e-05
475 29.9238 7.95376 1.28159 0 0 1.00072 1.32599e-05
473 29.1308 8.08151 0.418279 0 0 1.00072 1.65654e-05
400 30.7252 7.25222 1.18216 0 0 1.00073 9.63471e-06
479 31.6465 7.8878 1.29131 0 0 1.00072 6.9371e-06
480 30.833 8.65931 1.19087 0 0 1.00072 9.7239e-06
477 31.0326 8.01066 0.388145 0 0 1.00072 8.94442e-06
482 1.49297 10.138 0.260219 0 0 1.00072 7.61212e-06
483 1.41876 9.24177 1.18872 0 0 1.00073 7.90426e-06
484 0.63508 9.91601 0.908169 0 0 1.00073 4.24067e-06
481 0.753106 9.30206 0.125277 0 0 1.00072 5.24824e-06
1322 1.20142 10.0199 1.74134 0 0 1.00073 6.71694e-06
485 2.15604 9.23756 0.432458 0 0 1.00073 1.11209e-05
488 2.20821 10.1105 0.972067 0 0 1.00073 1.09711e-05
486 2.98717 9.94019 0.0775062 0 0 1.00073 1.47303e-05
487 2.80078 9.14435 1.19921 0 0 1.00073 1.41523e-05
1326 3.17315 9.8622 1.66103 0 0 1.00073 1.63461e-05
489 3.51106 8.98866 0.0939544 0 0 1.00073 1.7308e-05
1329 3.67855 8.85049 1.66573 0 0 1.00073 1.87832e-05
492 3.8042 9.6275 0.741852 0 0 1.00073 1.89226e-05
1330 4.60003 9.45544 1.57875 0 0 1.00072 2.42318e-05
1409 3.94805 10.3501 1.43658 0 0 1.00073 2.03025e-05
571 4.51937 10.4102 0.522977 0 0 1.00073 2.2953e-05
496 5.08056 9.46344 0.567343 0 0 1.00073 2.60895e-05
1334 5.86282 9.24426 1.17777 0 0 1.00073 3.04839e-05
575 5.88978 10.0959 0.444139 0 0 1.00073 3.11248e-05
1413 5.2612 10.2264 1.45628 0 0 1.00073 2.86032e-05
500 6.78803 9.16856 0.506165 0 0 1.00073 3.47185e-05
1417 6.79043 9.85991 1.19304 0 0 1.00073 3.69521e-05
1338 7.76927 9.06468 1.18421 0 0 1.00073 4.08906e-05
1421 8.32074 9.90455 1.33024 0 0 1.00073 4.68752e-05
579 7.51065 9.96858 0.463549 0 0 1.00073 4.09024e-05
504 8.62227 9.25419 0.567219 0 0 1.00073 4.49479e-05
1342 9.45045 9.49383 1.39125 0 0 1.00073 5.15848e-05
583 9.42401 10.1722 0.665795 0 0 1.00073 5.25733e-05
508 10.3639 9.64746 0.665348 0 0 1.00073 5.57771e-05
1345 10.6012 8.91055 1.40419 0 0 1.00072 5.45612e-05
507 11.2681 9.09278 0.663582 0 0 1.00073 5.66409e-05
1346 11.4373 9.54765 1.61011 0 0 1.00073 6.24737e-05
1425 10.3691 10.3701 1.36952 0 0 1.00073 6.17021e-05
587 11.0788 10.4674 0.665525 0 0 1.00073 6.31453e-05
512 11.9862 9.98176 0.721705 0 0 1.00073 6.4621e-05
1349 12.2181 9.08545 1.34788 0 0 1.00072 6.19169e-05
511 12.9539 9.35218 0.689566 0 0 1.00073 6.43561e-05
1350 12.854 10.0519 1.58233 0 0 1.00073 7.19526e-05
510 12.5915 10.2029 0.0275247 0 0 1.00073 6.7224e-05
1353 13.5355 9.2305 1.61393 0 0 1.00072 6.91566e-05
516 13.6704 10.1184 0.945438 0 0 1.00073 7.17383e-05
515 14.448 9.46497 0.854789 0 0 1.00073 6.87625e-05
1354 14.4362 10.1698 1.69991 0 0 1.00073 7.84258e-05
514 14.2587 10.3914 0.0316506 0 0 1.00072 7.50062e-05
517 15.1699 9.9651 0.215793 0 0 1.00073 7.35918e-05
440 15.3899 9.0673 0.789963 0 0 1.00073 6.67689e-05
519 16.0578 9.88095 1.0223 0 0 1.00073 7.5295e-05
521 16.5811 10.2342 0.23086 0 0 1.00073 7.6478e-05
438 16.1829 9.21394 0.131685 0 0 1.00073 6.70968e-05
444 16.8494 9.26867 1.13413 0 0 1.00073 6.99535e-05
523 17.41 10.1833 0.975355 0 0 1.00073 7.7644e-05
442 17.4044 9.27204 0.264246 0 0 1.00073 6.82244e-05
448 18.0349 9.33907 1.10658 0 0 1.00073 6.9178e-05
525 18.0476 10.3424 0.18619 0 0 1.00073 7.62185e-05
527 18.6484 10.2741 1.08113 0 0 1.00072 7.5402e-05
446 18.6536 9.49056 0.121285 0 0 1.00073 6.72888e-05
452 19.214 9.39166 0.959356 0 0 1.00072 6.80544e-05
529 19.4367 10.2766 0.312987 0 0 1.00072 7.26593e-05
1369 19.5429 10.1552 1.72149 0 0 1.00072 7.5881e-05
450 20.0806 9.52743 0.22665 0 0 1.00072 6.52761e-05
531 20.299 10.5242 0.89265 0 0 1.00072 7.08519e-05
455 21.4697 9.07336 1.05517 0 0 1.00073 5.76056e-05
456 20.6701 9.59731 1.04838 0 0 1.00073 6.42808e-05
533 20.7936 10.4569 0.0693458 0 0 1.00072 6.74304e-05
535 21.6782 10.5582 0.804534 0 0 1.00073 6.43478e-05
1373 21.0342 10.3934 1.68502 0 0 1.00073 7.03982e-05