ITEM: TIMESTEP
38500
ITEM: NUMBER OF ATOMS
32000
ITEM: BOX BOUNDS pp pp pp
0.0000000000000000e+00 3.1748021039364001e+01
0.0000000000000000e+00 3.1748021039364001e+01
0.0000000000000000e+00 3.1748021039364001e+01
ITEM: ATOMS id x y z c_phase c_nbond c_rho v_omega
4 0.244049 1.09668 0.465561 0 0 1.00096 1.50047e-06
83 1.17318 1.5449 0.775896 0 0 1.00096 3.53757e-06
842 0.814619 0.704331 1.39853 0 0 1.00096 2.12684e-06
921 0.212832 1.61129 1.37657 0 0 1.00096 2.09301e-06
8 1.80783 0.618799 1.00873 0 0 1.00096 3.2076e-06
85 1.9924 1.2634 0.200663 0 0 1.00096 4.51893e-06
925 2.03836 1.41142 1.73366 0 0 1.00096 4.70435e-06
6 2.59904 0.434904 0.185486 0 0 1.00096 4.01e-06
87 2.83957 1.21545 0.856179 0 0 1.00096 5.63557e-06
846 2.77087 0.497673 1.72064 0 0 1.00096 4.15188e-06
12 3.53194 0.506727 0.94614 0 0 1.00096 5.24254e-06
929 3.82842 1.26577 1.68581 0 0 1.00096 7.00258e-06
10 4.21254 0.379348 0.297935 0 0 1.00096 5.49162e-06
850 4.43102 0.429605 1.6184 0 0 1.00096 6.15288e-06
91 4.26063 1.34323 0.708317 0 0 1.00096 7.93189e-06
16 5.04497 0.024226 1.12055 0 0 1.00096 5.2981e-06
93 5.14499 1.04973 0.366141 0 0 1.00097 8.02228e-06
14 5.73359 0.0636479 0.290448 0 0 1.00096 6.00994e-06
95 6.06643 0.709237 0.945233 0 0 1.00097 7.6991e-06
933 5.25114 1.11885 1.43196 0 0 1.00097 8.48145e-06
934 6.18483 1.57763 1.4774 0 0 1.00097 1.0464e-05
97 6.77506 0.774696 0.209287 0 0 1.00097 8.1753e-06
937 6.8266 0.372919 1.68344 0 0 1.00096 7.05092e-06
99 7.55179 0.579741 0.9428 0 0 1.00096 7.94506e-06
18 7.66184 0.00824712 0.147505 0 0 1.00096 6.06386e-06
938 7.65497 1.38096 1.5554 0 0 1.00096 1.10155e-05
100 6.91048 1.5337 0.779541 0 0 1.00096 1.09718e-05
98 7.82302 1.55415 0.12373 0 0 1.00096 1.14798e-05
941 8.36261 0.585042 1.6135 0 0 1.00096 8.54845e-06
101 8.47606 0.741947 0.216348 0 0 1.00096 8.65777e-06
103 9.23397 0.669394 1.07543 0 0 1.00096 8.38325e-06
945 9.77931 0.351156 1.75252 0 0 1.00096 6.63333e-06
105 9.87921 0.733883 0.111379 0 0 1.00096 8.22463e-06
102 9.30862 1.45671 0.230611 0 0 1.00096 1.15789e-05
104 8.4997 1.50509 0.933506 0 0 1.00096 1.17109e-05
942 9.4787 1.5265 1.7221 0 0 1.00096 1.25852e-05
108 10.1803 1.39871 1.07597 0 0 1.00096 1.13253e-05
107 10.5719 0.486162 0.835054 0 0 1.00096 7.12336e-06
949 11.517 0.497072 1.41377 0 0 1.00096 6.88093e-06
946 10.9505 1.1314 1.72274 0 0 1.00096 1.04028e-05
112 11.5881 1.33007 0.780143 0 0 1.00096 1.11305e-05
106 10.7329 1.51435 0.18474 0 0 1.00096 1.19145e-05
111 12.2716 0.645787 0.519195 0 0 1.00096 7.13859e-06
953 13.0134 0.802834 1.3736 0 0 1.00096 7.54903e-06
950 12.3981 1.47915 1.45614 0 0 1.00097 1.16137e-05
116 13.1776 1.59482 0.61199 0 0 1.00096 1.17957e-05
40 14.46 0.161077 0.782435 0 0 1.00096 3.48367e-06
115 13.8628 0.871283 0.827596 0 0 1.00096 7.2916e-06
117 14.4646 1.32743 0.137442 0 0 1.00096 9.59389e-06
874 13.689 0.0770802 1.63096 0 0 1.00096 3.39663e-06
957 14.6753 1.02377 1.4819 0 0 1.00096 7.81901e-06
954 13.9049 1.7242 1.46261 0 0 1.00096 1.19573e-05
119 15.2866 1.46449 0.66752 0 0 1.00096 9.8757e-06
44 15.9252 0.761694 0.78955 0 0 1.00096 5.79058e-06
878 15.2597 0.404111 1.63444 0 0 1.00096 3.67556e-06
961 16.044 1.50749 1.41765 0 0 1.00096 1.0201e-05
38 15.2694 0.622701 0.0712369 0 0 1.00096 4.93509e-06
882 16.7445 0.83291 1.35331 0 0 1.00096 5.78194e-06
123 16.9673 1.69822 0.697502 0 0 1.00096 1.08573e-05
48 17.4769 0.94915 0.566135 0 0 1.00096 6.46936e-06
886 18.1483 1.06957 1.4261 0 0 1.00096 7.59691e-06
47 18.1717 0.252859 0.693764 0 0 1.00096 3.51049e-06
885 17.2996 0.0529323 1.40033 0 0 1.00096 1.95192e-06
51 19.579 0.465407 0.683255 0 0 1.00096 5.03643e-06
52 19.001 1.15131 0.699105 0 0 1.00096 8.27734e-06
889 19.0679 0.584074 1.55717 0 0 1.00096 4.80292e-06
890 19.9118 1.46936 1.69758 0 0 1.00096 1.09791e-05
55 21.2577 0.945704 1.08221 0 0 1.00097 8.05215e-06
56 20.4761 1.3179 0.953177 0 0 1.00096 9.72558e-06
54 21.4116 1.39344 0.210682 0 0 1.00097 1.09904e-05
893 20.4597 0.443252 1.42018 0 0 1.00097 6.15607e-06
53 20.3031 0.427714 0.0647101 0 0 1.00096 6.26045e-06
57 22.1477 0.950067 0.540973 0 0 1.00097 9.0011e-06
59 22.9713 1.11001 1.40661 0 0 1.00096 9.69149e-06
58 23.1554 1.75758 0.474537 0 0 1.00096 1.24028e-05
17538 22.7705 0.244261 0.460514 0 0 1.00096 5.85548e-06
17540 21.7802 0.0437161 0.862337 0 0 1.00096 4.9651e-06
63 24.4123 1.07521 1.40989 0 0 1.00096 9.88146e-06
61 23.701 1.02769 0.560132 0 0 1.00096 9.58457e-06
17544 23.5416 0.193517 1.24546 0 0 1.00096 6.40069e-06
17542 24.3545 0.174289 0.589441 0 0 1.00096 6.63125e-06
65 25.0908 0.978601 0.522274 0 0 1.00096 9.43198e-06
67 26.1072 0.995641 1.15542 0 0 1.00096 8.80245e-06
66 26.0995 1.59458 0.415792 0 0 1.00096 1.06463e-05
17548 25.1976 0.42397 1.34657 0 0 1.00096 7.60717e-06
17546 25.9227 0.140444 0.332783 0 0 1.00096 6.66242e-06
71 27.7222 0.997941 0.867263 0 0 1.00096 7.61345e-06
72 26.9431 1.6103 1.24408 0 0 1.00096 9.71355e-06
69 26.8711 0.813835 0.243773 0 0 1.00096 7.98355e-06
17552 27.103 0.216907 0.999557 0 0 1.00096 6.21843e-06
17556 28.3619 0.102011 0.730891 0 0 1.00096 5.04437e-06
913 28.4702 0.778214 1.41451 0 0 1.00096 6.21242e-06
76 28.8331 1.62315 0.727576 0 0 1.00096 7.24215e-06
914 29.5244 1.28432 1.56272 0 0 1.00096 5.8771e-06
917 29.8626 0.427267 1.45151 0 0 1.00096 4.08626e-06
75 29.3411 0.671623 0.615807 0 0 1.00096 5.01205e-06
841 31.6234 0.299834 1.25426 0 0 1.00096 1.71524e-06
79 30.7819 0.620541 0.477159 0 0 1.00096 3.19838e-06
80 30.2597 1.41352 0.767188 0 0 1.00096 4.86508e-06
918 30.9902 1.10013 1.37723 0 0 1.00096 3.51856e-06
82 1.40225 2.28536 0.10598 0 0 1.00096 4.96255e-06
84 0.429613 2.36736 0.799782 0 0 1.00096 3.30607e-06
163 1.65782 3.02783 0.929846 0 0 1.00096 6.46347e-06
922 1.42709 2.20366 1.58057 0 0 1.00096 4.99896e-06
1001 0.745282 2.98742 1.54585 0 0 1.00096 4.43535e-06
161 0.697635 3.06565 0.120716 0 0 1.00096 4.39694e-06
88 2.20698 2.15466 0.776809 0 0 1.00096 6.09851e-06
167 3.06092 2.91149 0.845923 0 0 1.00096 9.16695e-06
926 2.96775 1.89262 1.53107 0 0 1.00096 7.13782e-06
86 3.02315 2.03909 0.0433658 0 0 1.00096 7.45196e-06
1005 2.47656 2.79908 1.73512 0 0 1.00096 7.65568e-06
1009 3.71719 2.94259 1.63548 0 0 1.00096 1.07441e-05
92 3.71753 2.12311 0.777547 0 0 1.00096 8.85902e-06
171 4.6385 2.78648 0.754203 0 0 1.00096 1.16315e-05
930 4.51735 2.11748 1.57667 0 0 1.00096 1.00294e-05
96 5.27177 1.98221 0.815798 0 0 1.00096 1.07823e-05
94 6.01974 1.82008 0.140107 0 0 1.00097 1.11348e-05
175 6.1498 2.54802 0.947696 0 0 1.00096 1.36452e-05
173 5.44963 2.71166 0.0169544 0 0 1.00096 1.30929e-05
174 6.34184 3.24621 0.154494 0 0 1.00096 1.63284e-05
176 5.48247 3.38313 1.1179 0 0 1.00096 1.51117e-05
1017 7.0488 2.35951 1.53171 0 0 1.00096 1.41512e-05
177 7.09235 2.27502 0.11053 0 0 1.00096 1.35452e-05
179 7.93006 2.34369 0.875165 0 0 1.00096 1.48748e-05
180 7.1229 3.07318 0.782247 0 0 1.00096 1.67546e-05
1018 8.09855 3.10544 1.49449 0 0 1.00096 1.84674e-05
1021 8.74932 2.26723 1.62777 0 0 1.00096 1.53752e-05
181 8.8144 2.27541 0.0289743 0 0 1.00096 1.48679e-05
183 9.51493 2.27311 0.928358 0 0 1.00096 1.58159e-05
1022 9.8365 3.03411 1.49738 0 0 1.00096 2.06711e-05
184 8.91566 3.11326 0.696795 0 0 1.00096 1.89638e-05
182 9.74488 3.15999 0.0374407 0 0 1.00096 2.02963e-05
185 10.172 2.27563 0.198364 0 0 1.00096 1.58828e-05
188 10.6239 2.93244 0.865081 0 0 1.00097 1.96328e-05
187 11.2337 2.21018 0.916785 0 0 1.00096 1.55318e-05
1026 11.5032 2.99806 1.59346 0 0 1.00096 2.05806e-05
186 11.4248 3.21091 0.164225 0 0 1.00096 2.10545e-05
1025 10.6572 2.06887 1.74621 0 0 1.00097 1.51811e-05
1029 12.1264 2.33249 1.61015 0 0 1.00097 1.73305e-05
192 12.2397 3.11148 0.822964 0 0 1.00096 2.16118e-05
191 12.5873 2.22914 0.749135 0 0 1.00097 1.67138e-05
196 13.3392 3.2321 0.819096 0 0 1.00097 2.27254e-05
1033 13.629 2.6269 1.69671 0 0 1.00097 1.81019e-05
195 14.008 2.75112 0.843649 0 0 1.00097 1.9022e-05
120 14.6789 2.23443 0.919004 0 0 1.00096 1.49728e-05
1037 14.9548 3.16578 1.55464 0 0 1.00097 2.12393e-05
197 14.9609 3.04948 0.041049 0 0 1.00096 2.00052e-05
114 13.9996 2.02395 0.0330911 0 0 1.00096 1.46557e-05
194 14.1639 3.43631 0.0326782 0 0 1.00096 2.335e-05
199 15.6398 3.3316 0.866904 0 0 1.00096 2.20869e-05
958 15.4664 2.25527 1.46052 0 0 1.00096 1.56883e-05
118 15.5229 2.40283 0.119703 0 0 1.00096 1.57495e-05
124 16.3522 2.47185 0.711069 0 0 1.00096 1.58679e-05
1041 16.3097 3.30146 1.51447 0 0 1.00096 2.19374e-05
201 16.4455 3.27774 0.0060482 0 0 1.00096 2.14989e-05
962 17.0195 2.61882 1.54276 0 0 1.00096 1.72868e-05
127 18.3748 1.93094 0.747825 0 0 1.00096 1.25024e-05
203 17.191 3.35021 0.667491 0 0 1.00096 2.21175e-05
965 17.7172 1.97091 1.56423 0 0 1.00096 1.24872e-05
128 17.7298 2.59677 0.668875 0 0 1.00096 1.67593e-05
1045 17.9379 3.38837 1.50527 0 0 1.00096 2.18035e-05
969 19.1118 1.94139 1.49792 0 0 1.00096 1.31498e-05
207 18.728 3.30506 0.721476 0 0 1.00096 2.09876e-05
966 18.7019 2.79927 1.60833 0 0 1.00096 1.83727e-05
131 19.9618 2.06922 0.842642 0 0 1.00096 1.34728e-05
129 19.3021 2.01813 0.019983 0 0 1.00096 1.30019e-05
132 19.5449 2.87372 1.02278 0 0 1.00096 1.87869e-05
209 19.6617 3.5238 0.198206 0 0 1.00096 2.27692e-05
130 20.2247 2.85955 0.114069 0 0 1.00096 1.84113e-05
133 20.7603 2.09633 0.202988 0 0 1.00096 1.41157e-05
135 21.5178 2.26583 0.954598 0 0 1.00096 1.49821e-05
973 20.8183 2.37653 1.74565 0 0 1.00097 1.61034e-05
136 20.866 3.05648 1.07325 0 0 1.00096 1.97233e-05
134 21.7822 3.10948 0.46443 0 0 1.00097 1.93034e-05
60 22.4409 1.86411 1.33022 0 0 1.00097 1.33665e-05
137 22.3905 2.3135 0.495807 0 0 1.00097 1.52358e-05
139 23.3814 2.8018 1.50313 0 0 1.00096 1.69551e-05
140 22.6487 3.24248 1.22443 0 0 1.00097 2.00424e-05
62 24.6942 1.86671 0.727102 0 0 1.00096 1.23065e-05
138 23.5142 3.38357 0.718863 0 0 1.00097 1.91246e-05
64 23.803 1.94444 1.37487 0 0 1.00096 1.32012e-05
141 24.0944 2.56457 0.616889 0 0 1.00096 1.51714e-05
143 24.8428 2.72502 1.55506 0 0 1.00096 1.55896e-05
142 24.8677 3.44034 0.759154 0 0 1.00096 1.80176e-05
68 25.4241 1.81968 1.43752 0 0 1.00096 1.1901e-05
147 26.2685 2.40665 1.35475 0 0 1.00096 1.29262e-05
145 25.4991 2.54746 0.534994 0 0 1.00096 1.40906e-05
146 26.2663 3.29967 0.687481 0 0 1.00096 1.55481e-05
148 25.6496 3.31683 1.51479 0 0 1.00096 1.63936e-05
70 27.8057 1.78465 0.379009 0 0 1.00096 9.08685e-06
149 26.8737 2.39163 0.505933 0 0 1.00096 1.18097e-05
152 26.9645 3.22313 1.52114 0 0 1.00096 1.41549e-05
151 27.8074 2.50822 1.21735 0 0 1.00096 1.04978e-05
150 27.5143 3.26939 0.620171 0 0 1.00096 1.29693e-05
153 28.5716 2.53835 0.340045 0 0 1.00096 9.46291e-06
156 28.6511 3.21498 1.18237 0 0 1.00096 1.06973e-05
993 28.776 2.15922 1.50378 0 0 1.00096 8.48029e-06
155 29.7054 2.33642 0.872218 0 0 1.00096 7.18299e-06
154 29.5574 3.03557 0.279685 0 0 1.00097 8.61599e-06
997 30.2237 2.05938 1.69363 0 0 1.00096 6.14892e-06
159 31.1688 2.08851 0.915364 0 0 1.00096 4.46741e-06
160 30.5212 2.91578 0.988567 0 0 1.00096 6.25506e-06
239 31.4357 3.43532 0.963087 0 0 1.00096 5.47388e-06
998 31.3294 2.79368 1.72128 0 0 1.00096 4.92764e-06
237 30.5363 3.4735 0.153469 0 0 1.00097 7.40895e-06
157 30.6495 2.09302 0.0330551 0 0 1.00096 5.41213e-06
158 31.4687 2.73882 0.0718389 0 0 1.00096 4.65558e-06
164 0.731927 3.73338 0.90612 0 0 1.00096 5.02685e-06
241 0.651797 4.58098 0.455488 0 0 1.00096 5.50533e-06
243 1.64621 4.45974 0.971494 0 0 1.00096 8.11066e-06
162 1.49366 3.70416 0.0663822 0 0 1.00096 6.58343e-06
244 0.666594 5.2294 1.26925 0 0 1.00096 6.22225e-06
1081 0.974517 4.31745 1.76016 0 0 1.00096 6.04561e-06
168 2.33694 3.75873 0.848063 0 0 1.00096 8.75324e-06
247 3.1058 4.46431 1.10753 0 0 1.00096 1.19474e-05
166 3.15783 3.75382 0.182958 0 0 1.00096 1.08698e-05
245 2.44034 4.64219 0.272471 0 0 1.00096 1.01171e-05
246 3.30715 5.15366 0.265708 0 0 1.00096 1.32229e-05
248 2.15404 5.233 1.35 0 0 1.00096 1.04712e-05
249 4.00634 4.34624 0.167659 0 0 1.00096 1.40487e-05
172 3.98604 3.59604 0.877354 0 0 1.00096 1.20767e-05
251 4.70168 4.282 1.14593 0 0 1.00096 1.5819e-05
170 4.78959 3.60227 0.133596 0 0 1.00096 1.40147e-05
250 4.88394 4.84425 0.305309 0 0 1.00096 1.73901e-05
252 3.79798 5.1144 1.25968 0 0 1.00096 1.51996e-05
253 5.65411 4.07549 0.31003 0 0 1.00096 1.73676e-05
255 6.41514 3.97924 1.01158 0 0 1.00096 1.88437e-05
254 6.52365 4.65426 0.24946 0 0 1.00096 2.11068e-05
256 5.68077 4.74031 1.25272 0 0 1.00096 1.94889e-05
1097 7.39007 3.75203 1.63505 0 0 1.00096 2.02985e-05
260 7.43685 4.37939 0.844363 0 0 1.00096 2.22094e-05
259 8.15439 3.68946 0.570573 0 0 1.00096 2.10364e-05
258 8.17643 4.53942 0.0143481 0 0 1.00096 2.46011e-05
1098 8.29143 4.53153 1.47764 0 0 1.00096 2.51747e-05
1177 7.37694 5.13394 1.59357 0 0 1.00096 2.58618e-05
337 7.2741 5.26045 0.122717 0 0 1.00096 2.51522e-05
339 8.26337 5.26337 0.754255 0 0 1.00096 2.81706e-05
1101 9.04781 3.80221 1.458 0 0 1.00096 2.28368e-05
264 9.12176 4.50595 0.695027 0 0 1.00096 2.63197e-05
263 9.95046 3.82 0.793976 0 0 1.00096 2.39939e-05
262 10.0174 4.67885 0.00938552 0 0 1.00096 2.87933e-05
1181 9.26131 5.2226 1.48862 0 0 1.00096 3.10769e-05
1102 10.0637 4.51863 1.56827 0 0 1.00096 2.85329e-05
268 10.8142 4.59116 0.794124 0 0 1.00096 2.96097e-05
265 10.7438 3.84654 0.100466 0 0 1.00096 2.50258e-05
1105 10.7876 3.65629 1.64374 0 0 1.00096 2.41645e-05
267 11.5697 3.96151 0.883188 0 0 1.00096 2.60331e-05
1106 11.6434 4.55229 1.73596 0 0 1.00096 3.03196e-05
266 11.6108 4.84633 0.0196203 0 0 1.00096 3.13029e-05
269 12.377 4.15994 0.204328 0 0 1.00096 2.73649e-05
1109 12.3765 3.84321 1.67864 0 0 1.00096 2.71146e-05
272 12.5362 4.70641 1.00629 0 0 1.00096 3.18074e-05
271 13.279 4.11054 1.02749 0 0 1.00096 2.89793e-05
270 13.1987 5.06794 0.188699 0 0 1.00096 3.32756e-05
273 13.6506 4.20383 0.0523588 0 0 1.00096 2.80082e-05
1113 13.9985 4.56179 1.70544 0 0 1.00096 3.18961e-05
275 14.3376 4.43395 0.764084 0 0 1.00096 3.08821e-05
200 15.0511 3.94307 0.694825 0 0 1.00097 2.69332e-05
1034 14.5792 3.91788 1.58852 0 0 1.00097 2.71785e-05
274 14.5605 5.22928 0.0076333 0 0 1.00096 3.60333e-05
277 15.3011 4.70045 0.0864973 0 0 1.00097 3.13385e-05
1117 15.4459 4.92219 1.50824 0 0 1.00096 3.47894e-05
279 16.2116 5.02361 0.830264 0 0 1.00097 3.42985e-05
198 16.0095 4.13242 0.108233 0 0 1.00096 2.68356e-05
1038 16.1473 4.35841 1.60477 0 0 1.00096 2.898e-05
204 16.7288 4.13741 0.89094 0 0 1.00096 2.73821e-05
281 17.0152 4.90136 0.146834 0 0 1.00096 3.19651e-05
1121 17.132 5.16986 1.66744 0 0 1.00096 3.57797e-05
1042 17.4342 4.17231 1.66758 0 0 1.00096 2.86233e-05
283 17.7314 4.89053 0.905125 0 0 1.00096 3.23816e-05
208 18.27 4.15555 0.796258 0 0 1.00096 2.67045e-05
285 18.5301 4.99394 0.0467644 0 0 1.00096 3.24933e-05
1046 18.9056 4.09647 1.64149 0 0 1.00096 2.70887e-05
287 19.1765 5.00007 1.08725 0 0 1.00096 3.3135e-05
206 19.1059 4.29749 0.0812569 0 0 1.00096 2.6955e-05
212 19.7708 4.25968 0.96676 0 0 1.00096 2.71044e-05
289 19.92 5.21986 0.356328 0 0 1.00096 3.3758e-05
213 21.1477 3.69589 0.318271 0 0 1.00096 2.3437e-05
210 20.4991 4.39859 0.260648 0 0 1.00096 2.76444e-05
211 20.5375 3.85252 1.27276 0 0 1.00096 2.47019e-05
216 21.3067 4.54109 1.20242 0 0 1.00096 2.76512e-05
214 21.9913 4.75075 0.511574 0 0 1.00096 2.81521e-05
215 22.0894 4.03746 1.39403 0 0 1.00096 2.36456e-05
217 22.7085 4.00042 0.603248 0 0 1.00097 2.38773e-05
220 22.8022 4.97491 1.302 0 0 1.00096 2.86222e-05
16179 23.4252 4.20432 0.0289062 0 0 1.00096 2.31575e-05
218 23.4986 5.19826 0.549187 0 0 1.00096 2.77151e-05
144 24.2811 3.66772 1.5242 0 0 1.00096 1.99748e-05
219 23.5838 4.42425 1.39467 0 0 1.00096 2.4058e-05
221 24.2983 4.43576 0.758104 0 0 1.00096 2.28368e-05
222 25.0952 5.18735 0.634767 0 0 1.00096 2.42464e-05
223 25.1318 4.34343 1.54931 0 0 1.00096 2.13099e-05
228 25.7866 5.29547 1.55736 0 0 1.00096 2.303e-05
227 26.3174 4.23187 1.51663 0 0 1.00096 1.83103e-05
225 25.6945 4.38715 0.74415 0 0 1.00096 1.97402e-05
226 26.2478 5.17987 0.429146 0 0 1.00096 2.09471e-05
229 26.7609 4.18805 0.593904 0 0 1.00096 1.69996e-05
232 27.0218 4.9958 1.3689 0 0 1.00096 1.85535e-05
231 27.729 3.94233 1.40311 0 0 1.00096 1.41714e-05
230 27.6656 4.67012 0.579444 0 0 1.00096 1.63497e-05
233 28.4537 3.73182 0.336508 0 0 1.00096 1.21799e-05
236 28.5272 4.50198 1.11689 0 0 1.00096 1.37404e-05
235 29.6839 3.60561 1.17764 0 0 1.00096 9.2685e-06
313 28.8739 5.24821 0.685822 0 0 1.00096 1.3491e-05
234 29.4322 4.17446 0.461175 0 0 1.00097 1.05825e-05
315 29.6484 4.9057 1.30082 0 0 1.00097 1.10983e-05
240 30.4823 4.29664 1.02743 0 0 1.00097 8.30811e-06
238 31.4885 4.08857 0.345607 0 0 1.00096 5.69251e-06
317 30.7363 4.9091 0.467085 0 0 1.00096 7.67701e-06
319 31.5071 4.70497 1.3714 0 0 1.00097 5.92026e-06
242 1.50521 5.35616 0.450661 0 0 1.00096 8.28122e-06
323 1.43735 6.03023 1.27291 0 0 1.00096 8.71395e-06
324 0.91363 6.86055 1.46789 0 0 1.00096 7.39316e-06
322 1.62839 6.72691 0.558276 0 0 1.00096 9.59254e-06
321 0.619671 5.98968 0.448852 0 0 1.00096 6.25157e-06
398 0.109997 7.00962 0.599664 0 0 1.00096 4.73331e-06
399 0.0814832 6.22764 1.37066 0 0 1.00096 4.39046e-06
328 2.38268 6.67771 1.23567 0 0 1.00096 1.22215e-05
325 2.52377 5.85394 0.480761 0 0 1.00096 1.19628e-05
327 2.97463 5.75337 1.36485 0 0 1.00096 1.3624e-05
326 3.18462 6.65549 0.456274 0 0 1.00096 1.52817e-05
332 3.9656 6.39599 1.1355 0 0 1.00096 1.75204e-05
329 4.11589 5.69913 0.455497 0 0 1.00096 1.67942e-05
331 4.85693 5.43276 1.20111 0 0 1.00096 1.89376e-05
330 4.7877 6.33548 0.219343 0 0 1.00097 2.05428e-05
411 4.81323 6.89938 1.17022 0 0 1.00097 2.16583e-05
336 5.61433 6.049 1.13968 0 0 1.00096 2.32393e-05
333 5.62414 5.51657 0.293338 0 0 1.00096 2.13653e-05
335 6.51668 5.38878 0.944545 0 0 1.00096 2.41887e-05
334 6.43187 6.18646 0.138358 0 0 1.00096 2.62969e-05
415 6.40583 6.69775 0.974727 0 0 1.00096 2.74218e-05
413 5.55906 6.8717 0.211401 0 0 1.00097 2.42486e-05
340 7.39887 5.94891 0.921409 0 0 1.00096 2.89516e-05
1178 8.32707 5.87873 1.57997 0 0 1.00096 3.20999e-05
417 7.49283 6.6449 0.120304 0 0 1.00096 3.17767e-05
419 8.37718 6.733 0.709399 0 0 1.00096 3.53702e-05
344 9.103 5.9194 0.684045 0 0 1.00096 3.34158e-05
343 9.98651 5.33009 0.747305 0 0 1.00096 3.23952e-05
1261 9.25676 6.47139 1.53286 0 0 1.00096 3.80871e-05
423 10.1347 6.68412 0.66231 0 0 1.00096 4.04001e-05
1182 10.2682 6.03816 1.45418 0 0 1.00096 3.80641e-05
1185 10.9581 5.3522 1.48705 0 0 1.00096 3.51782e-05
345 10.9004 5.46971 0.0692894 0 0 1.00096 3.46522e-05
348 11.0652 6.29989 0.720029 0 0 1.00096 4.06003e-05
1265 11.0528 6.90453 1.5702 0 0 1.00095 4.57342e-05
347 11.7906 5.33246 0.893514 0 0 1.00096 3.48163e-05
346 11.8111 6.21974 0.0950091 0 0 1.00096 4.13823e-05
1186 11.8204 6.14786 1.48249 0 0 1.00096 4.218e-05
349 12.5845 5.72802 0.0341591 0 0 1.00096 3.81331e-05
352 12.6839 6.45965 0.793963 0 0 1.00096 4.5015e-05
351 13.0972 5.66531 1.04923 0 0 1.00096 3.93244e-05
1190 13.6148 6.59182 1.36267 0 0 1.00096 4.74542e-05
276 13.9927 5.39182 0.863338 0 0 1.00096 3.71735e-05
1114 14.7302 5.56359 1.58463 0 0 1.00096 3.99634e-05
355 14.7901 6.23142 0.79039 0 0 1.00096 4.40195e-05
356 14.2016 6.86576 0.587522 0 0 1.00096 4.89809e-05
1194 15.0775 7.01124 1.40281 0 0 1.00097 5.10969e-05
280 15.4276 5.54854 0.764448 0 0 1.00096 3.92634e-05
357 15.5537 6.23207 0.022346 0 0 1.00096 4.36885e-05
1197 15.8257 6.45801 1.45151 0 0 1.00097 4.78716e-05
278 16.3019 5.60662 0.0381612 0 0 1.00097 3.79063e-05
359 16.5052 6.50323 0.802741 0 0 1.00097 4.64832e-05
1118 16.5536 5.88594 1.69072 0 0 1.00097 4.2454e-05
361 17.1027 6.48532 0.0474855 0 0 1.00096 4.50275e-05
284 17.2136 5.88963 0.948887 0 0 1.00097 4.0337e-05
363 17.9321 6.7893 1.14538 0 0 1.00096 4.68837e-05
282 17.8816 5.74133 0.250017 0 0 1.00096 3.80419e-05
288 18.4154 5.81405 1.22336 0 0 1.00096 3.94355e-05
365 18.5079 6.68971 0.376472 0 0 1.00096 4.60218e-05
367 19.0678 6.78005 1.32274 0 0 1.00096 4.70062e-05
286 19.1056 5.84511 0.485294 0 0 1.00096 3.90513e-05
292 19.9776 5.9292 1.19311 0 0 1.00096 3.93174e-05
369 19.7394 6.8859 0.605798 0 0 1.00096 4.60863e-05
291 20.7284 5.35474 1.12674 0 0 1.00096 3.33775e-05
293 21.2216 5.53895 0.362153 0 0 1.00096 3.36491e-05
290 20.6883 6.47985 0.627347 0 0 1.00096 4.12664e-05
296 21.3605 6.45413 1.37741 0 0 1.00096 4.03741e-05
295 21.9022 5.55892 1.3451 0 0 1.00096 3.38964e-05
294 21.9326 6.65327 0.638794 0 0 1.00096 3.93127e-05
297 22.6379 5.85071 0.769104 0 0 1.00096 3.33573e-05
300 22.7793 6.82535 1.34944 0 0 1.00096 3.8904e-05
16260 22.8012 6.6776 0.0450824 0 0 1.00096 3.72499e-05
299 23.5066 6.09709 1.28888 0 0 1.00096 3.30962e-05
224 24.3338 5.40255 1.33631 0 0 1.00096 2.73989e-05
298 23.6792 6.82483 0.636011 0 0 1.00096 3.49453e-05
301 24.4138 5.99911 0.541426 0 0 1.00096 2.90286e-05
304 24.4748 6.90019 1.27323 0 0 1.00096 3.32183e-05
302 25.0935 6.94738 0.443213 0 0 1.00096 3.08286e-05
303 25.2311 6.21082 1.44189 0 0 1.00096 2.77928e-05
305 25.689 6.09576 0.565542 0 0 1.00096 2.5649e-05
307 26.4935 5.97366 1.35742 0 0 1.00096 2.30878e-05
306 26.5342 6.71113 0.687384 0 0 1.00096 2.43963e-05
308 26.0056 6.95332 1.61724 0 0 1.00096 2.77794e-05
311 28.0069 5.51331 1.39663 0 0 1.00096 1.69728e-05
309 27.2305 5.69814 0.638203 0 0 1.00096 1.97467e-05
312 27.4574 6.62073 1.46254 0 0 1.00096 2.09386e-05
310 28.2124 6.18889 0.699672 0 0 1.00096 1.71162e-05
316 29.0536 6.05894 1.44896 0 0 1.00096 1.45405e-05
314 29.9944 5.67792 0.804961 0 0 1.00096 1.07592e-05
393 29.1815 6.75731 0.655648 0 0 1.00096 1.48216e-05
16355 30.0361 6.5223 0.0688011 0 0 1.00096 1.17451e-05
16276 29.1215 5.90487 0.028789 0 0 1.00096 1.36658e-05
395 30.1 6.58376 1.30756 0 0 1.00096 1.12849e-05
318 31.5544 5.47613 0.58006 0 0 1.00096 6.66988e-06
320 30.8225 5.6863 1.43013 0 0 1.00096 8.36658e-06
397 31.0155 6.40318 0.623255 0 0 1.00096 8.33665e-06
401 0.9414 7.56844 0.628405 0 0 1.00096 7.06191e-06
402 1.55637 8.27734 0.574414 0 0 1.00096 9.62622e-06
404 1.02616 8.4417 1.44473 0 0 1.00096 7.41032e-06
478 0.353128 8.64095 0.397915 0 0 1.00096 4.81252e-06
479 0.169417 7.88767 1.27791 0 0 1.00096 4.54491e-06
403 1.78745 7.58527 1.4568 0 0 1.00096 1.05335e-05
405 2.29693 7.43739 0.388068 0 0 1.00096 1.20408e-05
408 2.45596 8.21566 1.44472 0 0 1.00096 1.38127e-05
406 2.95338 8.14235 0.386821 0 0 1.00096 1.584e-05
407 3.14322 7.32743 1.26933 0 0 1.00096 1.58174e-05
412 3.82299 7.894 0.925635 0 0 1.00097 1.98233e-05
409 4.0151 7.13238 0.3229 0 0 1.00097 1.89537e-05
410 4.64548 7.72613 0.0457241 0 0 1.00097 2.25695e-05
491 4.75183 8.30414 0.837368 0 0 1.00097 2.4385e-05
1250 4.66757 7.61169 1.74814 0 0 1.00097 2.39488e-05
1329 4.01314 8.53366 1.66704 0 0 1.00096 2.15822e-05
489 3.82163 8.68002 0.0969772 0 0 1.00097 1.99839e-05
1333 5.5924 8.13064 1.60881 0 0 1.00097 2.95039e-05
416 5.58163 7.43259 0.947159 0 0 1.00097 2.64928e-05
495 6.24277 8.01834 0.606919 0 0 1.00097 3.08756e-05
1334 6.25754 8.80396 1.17765 0 0 1.00096 3.36346e-05
414 6.82725 7.40072 0.204889 0 0 1.00096 3.10559e-05
1337 7.16069 8.00003 1.2173 0 0 1.00097 3.65644e-05
420 7.43895 7.16172 1.04625 0 0 1.00097 3.31737e-05
499 8.21944 7.79308 0.721253 0 0 1.00097 3.86313e-05
1338 8.20002 8.58885 1.17541 0 0 1.00096 4.33877e-05
500 7.18156 8.71165 0.499087 0 0 1.00097 3.75087e-05
1258 8.38948 7.06973 1.66111 0 0 1.00096 3.73167e-05
424 9.41018 7.27903 0.851656 0 0 1.00096 4.14713e-05
501 9.25104 7.96265 0.0572982 0 0 1.00096 4.37412e-05
1341 9.20222 8.03356 1.37266 0 0 1.00096 4.5656e-05
504 9.10508 8.77889 0.562215 0 0 1.00096 4.78284e-05
503 10.1678 8.31946 0.687235 0 0 1.00096 5.01879e-05
1262 10.3251 7.5685 1.40277 0 0 1.00096 4.75803e-05
428 11.0634 7.64995 0.692458 0 0 1.00095 4.94884e-05
1345 11.1584 8.46406 1.38824 0 0 1.00096 5.59962e-05
507 11.8436 8.71215 0.662459 0 0 1.00096 5.86124e-05
427 11.9427 7.08789 0.810334 0 0 1.00096 4.79254e-05
1266 12.0248 7.84508 1.42703 0 0 1.00095 5.51876e-05
429 12.631 7.3506 0.0206131 0 0 1.00096 5.07169e-05
432 12.7719 8.05049 0.712623 0 0 1.00096 5.65941e-05
1269 12.8523 7.09084 1.5508 0 0 1.00096 5.19383e-05
1349 12.8636 8.76158 1.37553 0 0 1.00096 6.38104e-05
1270 13.6087 8.03985 1.50359 0 0 1.00095 5.98637e-05
431 13.6448 7.61115 0.595849 0 0 1.00096 5.36584e-05
1273 14.4214 7.54691 1.47962 0 0 1.00096 5.8152e-05
436 14.4871 8.47907 0.776723 0 0 1.00096 6.31169e-05
435 15.1655 7.83703 0.542531 0 0 1.00096 5.73118e-05
1274 15.3036 8.60552 1.57769 0 0 1.00097 6.83359e-05
360 15.8406 7.21015 0.652908 0 0 1.00097 5.24096e-05
1277 15.9071 7.98347 1.39214 0 0 1.00097 6.04668e-05
439 16.717 8.31842 0.890906 0 0 1.00097 6.18964e-05
437 16.0503 8.30186 0.0342143 0 0 1.00097 6.10643e-05
1198 16.7713 7.61152 1.68439 0 0 1.00097 5.76081e-05
364 17.159 7.43014 0.859425 0 0 1.00097 5.24842e-05
441 17.3929 8.49912 0.145003 0 0 1.00096 6.13096e-05
443 17.8733 8.47506 1.08111 0 0 1.00097 6.19771e-05
362 17.9588 7.53257 0.299784 0 0 1.00096 5.29131e-05
368 18.5653 7.78176 1.08616 0 0 1.00096 5.4851e-05
445 18.5899 8.61676 0.284139 0 0 1.00096 6.20193e-05
447 19.2501 8.69886 1.02704 0 0 1.00096 6.04973e-05
366 19.3089 7.80321 0.223553 0 0 1.00096 5.34041e-05
372 19.7567 7.75671 1.1602 0 0 1.00096 5.44726e-05
370 20.4371 8.14643 0.614226 0 0 1.00096 5.2984e-05
371 20.6692 7.37806 1.35094 0 0 1.00096 4.86004e-05
373 21.3005 7.61283 0.599184 0 0 1.00096 4.69183e-05
376 21.2893 8.60891 1.31539 0 0 1.00096 5.43913e-05
374 22.0044 8.47297 0.601831 0 0 1.00095 5.04152e-05
375 22.0346 7.59345 1.30547 0 0 1.00096 4.59954e-05
377 22.8197 7.7028 0.669934 0 0 1.00095 4.30373e-05
380 22.8028 8.77879 1.13712 0 0 1.00095 4.91348e-05
378 23.5246 8.56882 0.397183 0 0 1.00096 4.36446e-05
379 23.7345 7.74915 1.20523 0 0 1.00096 4.01369e-05
381 24.3967 7.79491 0.302855 0 0 1.00096 3.68219e-05
384 24.5135 8.46029 1.08355 0 0 1.00095 3.90595e-05
383 25.2946 7.60619 1.18866 0 0 1.00096 3.25202e-05
382 25.2985 8.38175 0.306078 0 0 1.00095 3.45485e-05
387 26.7417 7.52537 1.41092 0 0 1.00096 2.60936e-05
385 26.0488 7.6435 0.496952 0 0 1.00096 2.87224e-05
388 26.0694 8.41844 1.23375 0 0 1.00096 3.12502e-05
389 27.5422 7.14227 0.628829 0 0 1.00096 2.12941e-05
386 26.9288 8.17319 0.387984 0 0 1.00096 2.65624e-05
392 27.6361 7.97131 1.31301 0 0 1.00096 2.29373e-05
469 27.8114 8.62695 0.432718 0 0 1.00096 2.27563e-05
391 28.4262 7.11782 1.37538 0 0 1.00096 1.78561e-05
390 28.4734 7.68868 0.516353 0 0 1.00096 1.83575e-05
471 28.5861 8.54958 1.21133 0 0 1.00096 1.93204e-05
396 29.3623 7.6414 1.23743 0 0 1.00096 1.49143e-05
473 29.4219 8.2898 0.418807 0 0 1.00096 1.49572e-05
475 30.2152 8.0991 1.2799 0 0 1.00096 1.15775e-05
394 30.2566 7.32954 0.502714 0 0 1.00096 1.12816e-05
474 30.2864 8.81292 0.531121 0 0 1.00096 1.16598e-05
400 30.9937 7.31523 1.18104 0 0 1.00096 8.28782e-06
480 31.1037 8.7289 1.19331 0 0 1.00096 8.1889e-06
477 31.2972 8.0582 0.389421 0 0 1.00096 7.53153e-06
484 0.893096 9.85744 0.914285 0 0 1.00096 6.37261e-06
481 1.01053 9.23329 0.123316 0 0 1.00096 7.10516e-06
1322 1.47771 9.89354 1.72994 0 0 1.00096 9.11533e-06
559 0.157862 9.35403 1.1347 0 0 1.00096 3.72203e-06
558 0.110556 10.0485 0.0595122 0 0 1.00096 2.82636e-06
483 1.69545 9.10419 1.17424 0 0 1.00096 1.02248e-05
482 1.74774 9.98369 0.24779 0 0 1.00096 1.00895e-05
485 2.4328 9.03855 0.415246 0 0 1.00096 1.34062e-05
488 2.47653 9.88209 0.97691 0 0 1.00096 1.34952e-05
486 3.26404 9.65851 0.082168 0 0 1.00096 1.73155e-05
487 3.10409 8.88363 1.17904 0 0 1.00096 1.66262e-05
567 3.21246 10.3657 0.717008 0 0 1.00097 1.72216e-05
1405 2.31516 10.5695 1.57247 0 0 1.00096 1.33929e-05
1326 3.45508 9.559 1.65752 0 0 1.00096 1.89156e-05
492 4.10534 9.29995 0.743816 0 0 1.00096 2.1566e-05
1330 4.94424 9.06005 1.55879 0 0 1.00096 2.68836e-05
1409 4.23478 9.99989 1.42661 0 0 1.00096 2.29186e-05
571 4.80648 10.0182 0.501238 0 0 1.00097 2.57532e-05
496 5.41933 9.07279 0.575535 0 0 1.00096 2.88159e-05
575 6.25627 9.64012 0.448135 0 0 1.00096 3.44324e-05
1413 5.59772 9.77697 1.44086 0 0 1.00096 3.15867e-05
1414 6.35585 10.2664 1.20132 0 0 1.00096 3.58565e-05
1417 7.20524 9.38189 1.19767 0 0 1.00096 4.01813e-05
579 7.94816 9.44995 0.461184 0 0 1.00096 4.40651e-05
580 7.05092 10.251 0.371124 0 0 1.00096 4.01344e-05
1418 7.99335 10.2284 1.10981 0 0 1.00096 4.76214e-05
1421 8.82101 9.39171 1.31427 0 0 1.00096 4.98984e-05
1342 9.97403 8.9797 1.37559 0 0 1.00096 5.39225e-05
583 9.91546 9.68324 0.656126 0 0 1.00096 5.57544e-05
584 8.93785 10.1478 0.664794 0 0 1.00096 5.15563e-05
1422 9.88293 10.3976 1.36121 0 0 1.00096 6.0541e-05
508 10.8904 9.1919 0.660417 0 0 1.00096 5.8094e-05
1425 10.9001 9.86805 1.37553 0 0 1.00096 6.45951e-05
587 11.6035 10.0261 0.659433 0 0 1.00096 6.60223e-05
1346 12.0187 9.14282 1.59144 0 0 1.00096 6.42632e-05
512 12.5553 9.60023 0.717391 0 0 1.00096 6.70532e-05
510 13.1828 9.89068 0.036682 0 0 1.00096 7.02904e-05
1429 12.5827 10.2301 1.50557 0 0 1.00096 7.38412e-05
589 12.3131 10.5268 0.188934 0 0 1.00096 7.10244e-05
1350 13.4797 9.73833 1.58528 0 0 1.00096 7.40286e-05
511 13.5583 9.07668 0.690443 0 0 1.00096 6.609e-05
1353 14.228 9.02406 1.61876 0 0 1.00096 7.09655e-05
516 14.2667 9.92968 0.942948 0 0 1.00096 7.42154e-05
514 14.8491 10.2379 0.0457583 0 0 1.00096 7.75098e-05
515 15.0808 9.35644 0.86702 0 0 1.00096 7.12448e-05
1354 15.085 10.0699 1.69918 0 0 1.00096 8.09086e-05
517 15.7861 9.8953 0.215196 0 0 1.00096 7.48424e-05
440 16.0271 9.03564 0.817699 0 0 1.00096 6.8239e-05
519 16.6724 9.94784 1.02655 0 0 1.00096 7.72687e-05
520 15.7259 10.5335 1.03201 0 0 1.00096 8.08749e-05
438 16.7705 9.26815 0.139091 0 0 1.00096 6.80985e-05
521 17.1784 10.3269 0.224695 0 0 1.00096 7.7741e-05
444 17.4843 9.4061 1.13796 0 0 1.00096 7.10504e-05
523 17.9994 10.3932 0.974894 0 0 1.00096 7.86904e-05
442 17.9925 9.47224 0.261546 0 0 1.00096 6.95907e-05
448 18.6491 9.57736 1.07625 0 0 1.00096 6.95706e-05
449 19.9093 8.98172 0.228155 0 0 1.00096 5.92966e-05
446 19.2293 9.80139 0.115672 0 0 1.00096 6.78119e-05
452 19.8049 9.77768 0.960621 0 0 1.00095 6.86809e-05
1369 20.1053 10.589 1.71633 0 0 1.00095 7.56711e-05
451 20.4278 9.05123 1.18649 0 0 1.00096 6.126e-05
453 21.1791 9.10831 0.385506 0 0 1.00095 5.79762e-05
450 20.6215 9.94456 0.232192 0 0 1.00095 6.51087e-05
456 21.2084 10.0663 1.03291 0 0 1.00096 6.35599e-05
455 21.9985 9.5307 1.06273 0 0 1.00096 5.68874e-05