ITEM: TIMESTEP
3500
ITEM: NUMBER OF ATOMS
32000
ITEM: BOX BOUNDS pp pp pp
0.0000000000000000e+00 3.1748021039364001e+01
0.0000000000000000e+00 3.1748021039364001e+01
0.0000000000000000e+00 3.1748021039364001e+01
ITEM: ATOMS id x y z c_phase c_nbond c_rho v_omega
4 0.125812 1.10212 0.464898 0 0 1.00006 1.48484e-06
83 0.985411 1.66485 0.778382 0 0 1.00006 2.99193e-06
842 0.722877 0.790854 1.41259 0 0 1.00006 1.8104e-06
921 0.0150971 1.60306 1.37491 0 0 1.00006 1.78329e-06
3 0.735075 0.0607591 0.616263 0 0 1.00006 1.11081e-06
8 1.71838 0.803341 1.01518 0 0 1.00006 2.84377e-06
85 1.81185 1.4687 0.220724 0 0 1.00006 3.75857e-06
925 1.83322 1.65346 1.76046 0 0 1.00006 4.04767e-06
6 2.52853 0.739474 0.203773 0 0 1.00006 3.57596e-06
7 2.59584 0.0444163 1.03697 0 0 1.00006 2.6944e-06
87 2.66026 1.53111 0.882265 0 0 1.00006 4.80896e-06
846 2.67737 0.805954 1.74472 0 0 1.00006 3.83114e-06
12 3.44197 0.920759 0.956743 0 0 1.00006 4.69668e-06
849 3.50333 0.0792451 1.70553 0 0 1.00006 3.44029e-06
929 3.61907 1.69392 1.71921 0 0 1.00006 6.24818e-06
10 4.11488 0.843835 0.324551 0 0 1.00006 5.1361e-06
16 4.96993 0.550628 1.17259 0 0 1.00006 5.21984e-06
93 4.93184 1.58278 0.383602 0 0 1.00006 7.2732e-06
850 4.35456 0.926375 1.62922 0 0 1.00006 5.55573e-06
9 3.48057 0.0981674 0.171196 0 0 1.00006 3.44583e-06
14 5.65478 0.626977 0.324643 0 0 1.00006 5.72557e-06
95 5.89567 1.29207 0.93891 0 0 1.00006 7.44499e-06
97 6.58734 1.37182 0.218278 0 0 1.00006 8.0403e-06
854 5.79082 0.441319 1.69859 0 0 1.00006 5.46627e-06
933 5.04372 1.70537 1.43566 0 0 1.00006 7.78893e-06
20 6.71967 0.371537 0.865719 0 0 1.00006 5.5229e-06
937 6.70141 0.989474 1.69352 0 0 1.00006 7.23862e-06
24 8.27278 0.388485 1.07184 0 0 1.00006 5.70782e-06
99 7.37959 1.20257 0.953334 0 0 1.00006 8.00655e-06
101 8.26017 1.36983 0.236487 0 0 1.00006 8.77975e-06
941 8.14194 1.2507 1.60693 0 0 1.00006 8.57893e-06
18 7.59018 0.628885 0.141487 0 0 1.00006 6.37497e-06
22 8.86455 0.488177 0.272256 0 0 1.00006 5.93851e-06
28 9.55858 0.31824 0.888913 0 0 1.00006 5.23098e-06
103 9.03833 1.28677 1.11113 0 0 1.00006 8.7142e-06
945 9.58736 0.952971 1.76309 0 0 1.00006 7.6779e-06
105 9.65354 1.35372 0.090791 0 0 1.00006 8.93073e-06
32 11.2156 0.199276 0.633061 0 0 1.00006 4.12233e-06
107 10.3757 1.02944 0.823266 0 0 1.00006 7.66486e-06
866 10.5261 0.178237 1.44512 0 0 1.00006 4.37243e-06
949 11.2989 1.00107 1.41756 0 0 1.00006 7.47491e-06
946 10.5983 1.65857 1.72884 0 0 1.00006 1.05768e-05
26 10.2484 0.348791 0.07756 0 0 1.00006 5.08517e-06
36 12.8797 0.200613 0.636683 0 0 1.00006 3.38586e-06
111 12.0576 1.05987 0.507397 0 0 1.00006 7.39005e-06
870 12.1364 0.302286 1.29948 0 0 1.00006 4.1334e-06
953 12.7349 1.18567 1.37248 0 0 1.00006 7.95042e-06
40 14.3781 0.313692 0.765503 0 0 1.00006 3.37859e-06
115 13.6061 1.10384 0.843661 0 0 1.00006 7.23409e-06
117 14.0604 1.55203 0.166245 0 0 1.00006 9.34519e-06
874 13.6137 0.351308 1.6346 0 0 1.00006 3.79849e-06
957 14.3934 1.14471 1.47679 0 0 1.00006 7.38022e-06
119 14.8967 1.55022 0.663362 0 0 1.00006 9.23952e-06
44 15.7173 0.770482 0.788142 0 0 1.00006 5.35882e-06
123 16.5725 1.5488 0.682005 0 0 1.00006 9.28897e-06
878 15.1497 0.462462 1.64087 0 0 1.00006 3.99146e-06
882 16.5573 0.716591 1.34209 0 0 1.00006 5.22683e-06
961 15.6534 1.48697 1.39201 0 0 1.00006 9.13359e-06
38 15.1143 0.70888 0.0678198 0 0 1.00006 4.99262e-06
48 17.2656 0.73919 0.548606 0 0 1.00006 5.38047e-06
127 17.9436 1.59217 0.757262 0 0 1.00006 9.77556e-06
886 17.927 0.754039 1.42749 0 0 1.00006 5.76589e-06
965 17.2437 1.75696 1.56313 0 0 1.00006 1.08436e-05
51 19.5395 0.0315238 0.663137 0 0 1.00006 3.21313e-06
52 18.802 0.738922 0.685366 0 0 1.00006 5.8661e-06
131 19.5589 1.57159 0.842206 0 0 1.00006 1.00782e-05
889 19.0311 0.172982 1.54484 0 0 1.00006 3.56322e-06
890 19.6071 0.985152 1.6901 0 0 1.00006 7.59065e-06
969 18.6779 1.52664 1.50041 0 0 1.00006 9.87355e-06
55 21.0981 0.369903 1.06766 0 0 1.00006 5.41263e-06
56 20.2596 0.794979 0.979348 0 0 1.00006 6.7618e-06
135 21.1246 1.67637 0.953647 0 0 1.00006 1.08363e-05
54 21.1972 0.785553 0.218891 0 0 1.00006 7.03046e-06
133 20.3637 1.53308 0.195528 0 0 1.00006 9.98471e-06
57 22.0151 0.284528 0.539837 0 0 1.00006 5.47672e-06
59 22.8001 0.452676 1.40647 0 0 1.00006 6.43042e-06
60 22.1249 1.17131 1.33026 0 0 1.00006 8.93899e-06
137 22.0154 1.62246 0.537665 0 0 1.00006 1.05243e-05
58 22.928 1.0944 0.44773 0 0 1.00006 8.46483e-06
63 24.2379 0.402764 1.44866 0 0 1.00006 6.37554e-06
61 23.5744 0.378554 0.574499 0 0 1.00006 6.14203e-06
62 24.4491 1.2076 0.754852 0 0 1.00006 8.58186e-06
64 23.4911 1.27232 1.4022 0 0 1.00006 9.23549e-06
65 24.9621 0.336473 0.551729 0 0 1.00006 5.97823e-06
67 26.015 0.402239 1.17146 0 0 1.00006 5.88746e-06
68 25.1807 1.14786 1.47954 0 0 1.00006 8.26017e-06
147 25.9455 1.7565 1.35766 0 0 1.00006 9.32514e-06
66 25.902 0.949697 0.432016 0 0 1.00006 7.16821e-06
70 27.5852 1.29619 0.389305 0 0 1.00006 6.61206e-06
71 27.6216 0.52405 0.874501 0 0 1.00006 5.16548e-06
72 26.766 1.04655 1.26301 0 0 1.00006 6.90425e-06
913 28.3824 0.351111 1.39931 0 0 1.00006 4.36158e-06
69 26.7985 0.25736 0.22751 0 0 1.00006 5.13943e-06
76 28.6599 1.25395 0.74194 0 0 1.00006 5.4756e-06
914 29.3995 0.956647 1.56884 0 0 1.00006 4.36458e-06
993 28.5355 1.7335 1.49846 0 0 1.00006 6.53766e-06
917 29.8197 0.181221 1.46095 0 0 1.00006 2.88166e-06
75 29.2801 0.364185 0.61557 0 0 1.00006 3.5473e-06
841 31.5936 0.266997 1.25658 0 0 1.00006 1.30303e-06
79 30.7092 0.493668 0.471362 0 0 1.00006 2.37088e-06
80 30.1104 1.20566 0.77435 0 0 1.00006 3.83911e-06
918 30.8737 0.975899 1.39379 0 0 1.00006 2.78658e-06
82 1.12511 2.43217 0.129018 0 0 1.00006 3.9721e-06
84 0.147737 2.38241 0.812227 0 0 1.00006 2.6053e-06
163 1.30535 3.23216 0.948958 0 0 1.00006 5.06064e-06
922 1.15411 2.35709 1.59144 0 0 1.00006 3.96248e-06
1001 0.403163 3.03012 1.54959 0 0 1.00006 3.49223e-06
161 0.348803 3.09593 0.131759 0 0 1.00006 3.4609e-06
88 1.92459 2.41123 0.783981 0 0 1.00006 5.04725e-06
167 2.67626 3.26954 0.860601 0 0 1.00006 7.35202e-06
926 2.68417 2.2197 1.5343 0 0 1.00006 5.90553e-06
1009 3.27813 3.41192 1.6496 0 0 1.00006 8.7653e-06
86 2.74048 2.3716 0.0557534 0 0 1.00006 6.12697e-06
92 3.39799 2.54168 0.779742 0 0 1.00006 7.33014e-06
91 4.02031 1.82612 0.711328 0 0 1.00006 6.85675e-06
96 4.93066 2.55449 0.815928 0 0 1.00006 9.46373e-06
171 4.22142 3.30096 0.749707 0 0 1.00006 9.98137e-06
930 4.15105 2.62516 1.58266 0 0 1.00006 8.68469e-06
94 5.66833 2.424 0.133389 0 0 1.00006 1.00254e-05
100 6.57567 2.16039 0.773451 0 0 1.00006 1.0279e-05
175 5.6714 3.17538 0.953067 0 0 1.00006 1.20605e-05
934 5.87824 2.1754 1.49606 0 0 1.00006 9.79237e-06
1017 6.54579 3.04389 1.55448 0 0 1.00006 1.31478e-05
177 6.67182 2.90718 0.13366 0 0 1.00006 1.25197e-05
98 7.47269 2.20446 0.139622 0 0 1.00006 1.11218e-05
104 8.10309 2.17987 0.930867 0 0 1.00006 1.15788e-05
179 7.42635 3.04392 0.932531 0 0 1.00006 1.39921e-05
938 7.31788 2.03867 1.56835 0 0 1.00006 1.07303e-05
1021 8.21314 2.97662 1.65118 0 0 1.00006 1.49611e-05
181 8.29549 2.94749 0.0395123 0 0 1.00006 1.44203e-05
102 8.92456 2.0666 0.252144 0 0 1.00006 1.14754e-05
108 9.79394 2.00323 1.10831 0 0 1.00006 1.16845e-05
183 8.95368 2.94874 0.928937 0 0 1.00006 1.51681e-05
942 9.05285 2.19819 1.70439 0 0 1.00006 1.25019e-05
185 9.58946 2.88345 0.212106 0 0 1.00006 1.51654e-05
106 10.3053 2.09352 0.213105 0 0 1.00006 1.20335e-05
112 11.1789 1.80954 0.771333 0 0 1.00006 1.09533e-05
187 10.651 2.78695 0.921216 0 0 1.00006 1.54864e-05
1029 11.4761 2.81173 1.57667 0 0 1.00006 1.63352e-05
116 12.697 1.92846 0.594639 0 0 1.00006 1.14381e-05
191 11.958 2.62593 0.741712 0 0 1.00006 1.50039e-05
950 11.9477 1.90441 1.46558 0 0 1.00006 1.15851e-05
1033 12.8829 3.00382 1.68835 0 0 1.00006 1.79347e-05
195 13.2196 3.01623 0.846861 0 0 1.00006 1.73866e-05
954 13.4048 1.9813 1.48057 0 0 1.00006 1.19565e-05
120 14.0513 2.43727 0.926177 0 0 1.00006 1.41866e-05
1037 14.0718 3.37585 1.55692 0 0 1.00006 2.03311e-05
199 14.7399 3.43171 0.883446 0 0 1.00006 2.01795e-05
958 14.8153 2.2951 1.44642 0 0 1.00006 1.37017e-05
118 14.8728 2.51014 0.137449 0 0 1.00006 1.44436e-05
197 14.1966 3.21681 0.0352051 0 0 1.00006 1.84427e-05
114 13.4412 2.28466 0.0588772 0 0 1.00006 1.31628e-05
124 15.7295 2.44326 0.694525 0 0 1.00006 1.41559e-05
203 16.3445 3.20463 0.665556 0 0 1.00006 1.87032e-05
962 16.3417 2.4834 1.52588 0 0 1.00006 1.49305e-05
1041 15.4152 3.25626 1.50268 0 0 1.00006 1.96499e-05
201 15.6102 3.25813 0.0216383 0 0 1.00006 1.8877e-05
128 17.0952 2.35877 0.68344 0 0 1.00006 1.37824e-05
207 17.9799 2.93934 0.701488 0 0 1.00006 1.71468e-05
966 18.0508 2.45162 1.58296 0 0 1.00006 1.48861e-05
1045 17.1323 3.12458 1.49646 0 0 1.00006 1.88407e-05
132 18.9202 2.37411 1.01405 0 0 1.00006 1.41787e-05
211 19.7388 3.26259 1.27871 0 0 1.00006 1.93087e-05
209 18.9185 3.01313 0.196149 0 0 1.00006 1.74303e-05
130 19.6155 2.35822 0.103224 0 0 1.00006 1.39002e-05
973 20.3473 1.80832 1.72594 0 0 1.00006 1.17654e-05
134 21.1844 2.4396 0.458712 0 0 1.00006 1.42258e-05
136 20.2243 2.48814 1.11409 0 0 1.00006 1.48238e-05
215 21.3457 3.32274 1.39255 0 0 1.00006 1.89427e-05
213 20.4539 3.01678 0.335033 0 0 1.00006 1.72036e-05
139 22.8951 2.09328 1.51073 0 0 1.00006 1.25866e-05
138 22.9961 2.62794 0.735963 0 0 1.00006 1.43129e-05
140 22.12 2.52399 1.23883 0 0 1.00006 1.45628e-05
217 22.0192 3.2269 0.601308 0 0 1.00006 1.75526e-05
16179 22.7114 3.4276 0.074333 0 0 1.00006 1.77536e-05
141 23.7606 1.83222 0.624473 0 0 1.00006 1.08517e-05
143 24.4468 2.01187 1.60931 0 0 1.00006 1.1418e-05
142 24.3651 2.70782 0.776006 0 0 1.00006 1.34855e-05
144 23.7143 2.92884 1.53711 0 0 1.00006 1.53175e-05
16108 24.9785 2.86765 0.0161597 0 0 1.00006 1.32258e-05
149 26.5632 1.81303 0.512074 0 0 1.00006 8.70109e-06
145 25.1488 1.87785 0.511278 0 0 1.00006 1.01266e-05
146 25.8124 2.63398 0.707792 0 0 1.00006 1.16455e-05
148 25.1804 2.58151 1.52517 0 0 1.00006 1.25134e-05
227 25.747 3.5237 1.51393 0 0 1.00006 1.46089e-05
152 26.5551 2.58239 1.53065 0 0 1.00006 1.0826e-05
229 26.194 3.5245 0.599328 0 0 1.00006 1.34924e-05
151 27.5185 2.00265 1.23758 0 0 1.00006 8.18383e-06
153 28.2639 2.10462 0.344574 0 0 1.00006 7.33385e-06
150 27.1056 2.71145 0.645167 0 0 1.00006 1.0113e-05
231 27.223 3.37484 1.41701 0 0 1.00006 1.16392e-05
156 28.2711 2.77338 1.20601 0 0 1.00006 8.6484e-06
233 28.0019 3.23731 0.328654 0 0 1.00006 9.79087e-06
997 29.9701 1.81727 1.7076 0 0 1.00006 4.916e-06
155 29.4609 2.0557 0.880619 0 0 1.00006 5.74792e-06
154 29.2114 2.67193 0.290902 0 0 1.00006 6.94239e-06
235 29.2687 3.27668 1.17531 0 0 1.00006 7.84906e-06
159 30.9241 1.98873 0.92444 0 0 1.00006 3.78702e-06
160 30.1974 2.7187 1.00225 0 0 1.00006 5.59632e-06
239 31.0425 3.35606 0.97213 0 0 1.00006 4.96987e-06
998 31.0021 2.69922 1.72672 0 0 1.00006 4.51193e-06
237 30.1282 3.26599 0.134831 0 0 1.00006 6.29017e-06
157 30.4239 1.91469 0.026699 0 0 1.00006 4.29908e-06
158 31.1584 2.6669 0.0767173 0 0 1.00006 4.11176e-06
164 0.313081 3.78437 0.91917 0 0 1.00006 3.89826e-06
241 0.164169 4.59607 0.481904 0 0 1.00006 4.10799e-06
243 1.16124 4.66579 0.987102 0 0 1.00006 6.11277e-06
244 0.112154 5.26811 1.2778 0 0 1.00006 4.32712e-06
162 1.06026 3.85951 0.061224 0 0 1.00006 5.22137e-06
168 1.86256 4.03781 0.847486 0 0 1.00006 6.86731e-06
247 2.56352 4.844 1.13619 0 0 1.00006 9.32457e-06
166 2.6708 4.13313 0.206534 0 0 1.00006 8.5305e-06
245 1.9204 4.9592 0.279217 0 0 1.00006 7.92975e-06
249 3.43265 4.84563 0.162061 0 0 1.00006 1.12144e-05
172 3.5155 4.06155 0.885954 0 0 1.00006 1.0134e-05
176 4.93733 3.98067 1.18142 0 0 1.00006 1.28814e-05
251 4.07431 4.86099 1.14696 0 0 1.00006 1.29091e-05
170 4.28324 4.16615 0.148413 0 0 1.00006 1.18109e-05
253 5.03694 4.71858 0.33983 0 0 1.00006 1.46512e-05
174 5.80103 3.91585 0.197163 0 0 1.00006 1.41669e-05
180 6.5184 3.74337 0.773652 0 0 1.00006 1.49573e-05
255 5.71242 4.71038 1.02609 0 0 1.00006 1.6348e-05
1097 6.69634 4.48522 1.64399 0 0 1.00006 1.81726e-05
260 6.71363 5.10461 0.883391 0 0 1.00006 1.97843e-05
184 8.23131 3.86477 0.701883 0 0 1.00006 1.80464e-05
259 7.44142 4.43396 0.54786 0 0 1.00006 1.88729e-05
1018 7.43074 3.84404 1.49772 0 0 1.00006 1.71549e-05
1101 8.23938 4.58147 1.48644 0 0 1.00006 2.15502e-05
188 9.93173 3.55507 0.8862 0 0 1.00006 1.86848e-05
263 9.11789 4.5382 0.821497 0 0 1.00006 2.23388e-05
265 9.90248 4.47913 0.127111 0 0 1.00006 2.29462e-05
1022 9.11168 3.73751 1.49898 0 0 1.00006 1.91626e-05
1105 9.91292 4.32026 1.65638 0 0 1.00006 2.31987e-05
182 9.01943 3.84243 0.0625556 0 0 1.00006 1.88507e-05
192 11.4464 3.62447 0.781719 0 0 1.00006 2.01462e-05
267 10.6341 4.63865 0.906593 0 0 1.00006 2.51009e-05
269 11.4329 4.67131 0.229098 0 0 1.00006 2.57629e-05
1026 10.7443 3.54595 1.58913 0 0 1.00006 1.98561e-05
1109 11.4124 4.35193 1.7049 0 0 1.00006 2.52207e-05
272 11.4428 5.24888 0.988244 0 0 1.00006 2.9735e-05
186 10.6221 3.82509 0.175661 0 0 1.00006 2.04645e-05
196 12.5538 3.56534 0.814776 0 0 1.00006 2.03188e-05
271 12.2396 4.53124 1.0005 0 0 1.00006 2.62058e-05
1113 12.8001 4.97567 1.68963 0 0 1.00006 3.05661e-05
275 13.2785 4.66835 0.800658 0 0 1.00006 2.74938e-05
273 12.6899 4.6011 0.0625425 0 0 1.00006 2.64066e-05
200 14.0394 4.11775 0.69734 0 0 1.00006 2.42228e-05
1034 13.5363 4.20598 1.59389 0 0 1.00006 2.56432e-05
1117 14.2643 5.10655 1.52234 0 0 1.00006 3.21041e-05
279 15.0001 5.00782 0.812682 0 0 1.00006 3.0635e-05
1038 15.0225 4.41089 1.59502 0 0 1.00006 2.75519e-05
277 14.1957 4.89373 0.0641571 0 0 1.00006 2.91358e-05
198 15.01 4.18853 0.0994512 0 0 1.00006 2.46804e-05
204 15.7177 4.06669 0.925799 0 0 1.00006 2.4403e-05
281 15.9329 4.77596 0.187757 0 0 1.00006 2.87232e-05
283 16.6484 4.58784 0.90184 0 0 1.00006 2.7844e-05
1042 16.3713 3.96445 1.69026 0 0 1.00006 2.47291e-05
1121 15.8755 5.05213 1.64277 0 0 1.00006 3.24655e-05
208 17.3161 3.84311 0.812055 0 0 1.00006 2.28081e-05
287 18.1379 4.50408 1.09898 0 0 1.00006 2.72667e-05
1046 17.9987 3.65323 1.65679 0 0 1.00006 2.23811e-05
285 17.5062 4.58871 0.0175105 0 0 1.00006 2.73108e-05
206 18.18 3.86769 0.0616023 0 0 1.00006 2.25572e-05
212 18.9189 3.72559 0.952748 0 0 1.00006 2.1895e-05
289 18.8741 4.6293 0.363066 0 0 1.00006 2.71811e-05
291 19.7382 4.7014 1.0874 0 0 1.00006 2.76595e-05
210 19.6392 3.78749 0.230735 0 0 1.00006 2.16624e-05
216 20.4792 3.84741 1.23521 0 0 1.00006 2.21414e-05
295 20.9316 4.74839 1.39538 0 0 1.00006 2.71368e-05
297 21.6265 4.98339 0.810011 0 0 1.00006 2.68803e-05
214 21.1241 3.95873 0.514054 0 0 1.00006 2.18172e-05
293 20.1858 4.81141 0.351873 0 0 1.00006 2.73446e-05
219 22.8557 3.65969 1.42119 0 0 1.00006 1.92496e-05
220 21.9798 4.16324 1.31213 0 0 1.00006 2.2559e-05
299 22.5173 5.20934 1.27648 0 0 1.00006 2.70257e-05
218 22.6522 4.37684 0.514854 0 0 1.00006 2.21673e-05
223 24.5021 3.5399 1.55819 0 0 1.00006 1.66606e-05
221 23.605 3.666 0.782971 0 0 1.00006 1.792e-05
222 24.3688 4.35147 0.626766 0 0 1.00006 1.93003e-05
224 23.5055 4.58068 1.33569 0 0 1.00006 2.22747e-05
305 24.8888 5.28724 0.568122 0 0 1.00006 2.15028e-05
301 23.5903 5.09801 0.534924 0 0 1.00006 2.37103e-05
228 25.0431 4.52935 1.62272 0 0 1.00006 1.92785e-05
225 25.0907 3.70411 0.801527 0 0 1.00006 1.58722e-05
307 25.7254 5.17001 1.34498 0 0 1.00006 1.95449e-05
232 26.3862 4.31595 1.37297 0 0 1.00006 1.55409e-05
309 26.533 4.9993 0.642492 0 0 1.00006 1.66696e-05
226 25.5596 4.42865 0.391616 0 0 1.00006 1.71845e-05
311 27.3586 4.89372 1.4064 0 0 1.00006 1.47556e-05
236 27.9854 3.99462 1.10529 0 0 1.00006 1.14085e-05
313 28.3023 4.75416 0.706994 0 0 1.00006 1.19494e-05
230 27.0919 4.06415 0.572742 0 0 1.00006 1.31877e-05
234 28.9527 3.78486 0.486869 0 0 1.00006 9.04097e-06
315 29.1104 4.53798 1.33083 0 0 1.00006 9.99681e-06
240 30.0182 4.07991 1.02479 0 0 1.00006 7.47546e-06
238 31.0492 3.97965 0.372649 0 0 1.00006 5.42852e-06
317 30.2273 4.68874 0.49021 0 0 1.00006 7.59113e-06
319 31.0002 4.6058 1.40992 0 0 1.00006 6.1164e-06
242 0.932519 5.52772 0.462219 0 0 1.00006 6.1617e-06
248 1.5566 5.50424 1.37957 0 0 1.00006 7.69127e-06
323 0.820073 6.21519 1.27723 0 0 1.00006 6.28401e-06
324 0.282766 6.91888 1.5072 0 0 1.00006 5.07829e-06
322 0.99687 6.93982 0.573334 0 0 1.00006 6.92561e-06
328 1.73293 7.01838 1.23922 0 0 1.00006 9.17707e-06
325 1.9208 6.18964 0.518239 0 0 1.00006 9.05035e-06
252 3.1337 5.60244 1.29993 0 0 1.00006 1.18231e-05
327 2.29209 6.14179 1.4104 0 0 1.00006 1.02059e-05
332 3.28414 6.94325 1.12975 0 0 1.00006 1.40043e-05
246 2.70791 5.5979 0.27383 0 0 1.00006 1.05115e-05
329 3.42464 6.26181 0.49928 0 0 1.00006 1.33921e-05
250 4.21886 5.44202 0.325685 0 0 1.00006 1.4201e-05
256 4.96602 5.4051 1.31558 0 0 1.00006 1.64124e-05
331 4.16551 6.07317 1.22822 0 0 1.00006 1.54957e-05
333 4.8587 6.20856 0.333057 0 0 1.00006 1.76118e-05
336 4.80825 6.77389 1.16011 0 0 1.00006 1.89726e-05
330 4.03394 6.9997 0.222811 0 0 1.00006 1.64219e-05
254 5.81573 5.39304 0.30095 0 0 1.00006 1.82805e-05
335 5.72739 6.21212 0.962686 0 0 1.00006 2.0524e-05
1177 6.49874 5.953 1.59749 0 0 1.00006 2.26185e-05
340 6.47431 6.83531 1.00631 0 0 1.00006 2.48977e-05
337 6.4182 6.01514 0.153469 0 0 1.00006 2.1765e-05
334 5.58633 7.02006 0.147917 0 0 1.00006 2.19034e-05
264 8.25382 5.28413 0.695394 0 0 1.00006 2.39609e-05
339 7.36777 6.12435 0.754923 0 0 1.00006 2.5101e-05
1098 7.43298 5.38561 1.49287 0 0 1.00006 2.30683e-05
1181 8.28455 6.07546 1.49346 0 0 1.00006 2.82904e-05
344 8.06256 6.81698 0.728406 0 0 1.00006 3.00243e-05
1178 7.32827 6.82378 1.59717 0 0 1.00006 2.85239e-05
258 7.36724 5.32795 0.0448056 0 0 1.00006 2.19473e-05
268 9.81536 5.29126 0.793561 0 0 1.00006 2.72336e-05
343 8.92988 6.1541 0.737313 0 0 1.00006 2.95839e-05
1102 9.0995 5.29584 1.59604 0 0 1.00006 2.67556e-05
1185 9.79311 6.15401 1.46967 0 0 1.00006 3.27328e-05
1182 9.14662 6.91256 1.46327 0 0 1.00006 3.49337e-05
345 9.81352 6.20041 0.094886 0 0 1.00006 3.16881e-05
262 9.04255 5.43637 0.0155232 0 0 1.00006 2.6198e-05
347 10.6405 5.99135 0.9625 0 0 1.00006 3.28816e-05
349 11.3719 6.3414 0.077227 0 0 1.00006 3.57927e-05
346 10.5787 6.90919 0.152947 0 0 1.00006 3.75652e-05
1186 10.5306 6.89058 1.49644 0 0 1.00006 3.90233e-05
270 12.0546 5.60247 0.183646 0 0 1.00006 3.22417e-05
276 12.7366 5.79548 0.862647 0 0 1.00006 3.47644e-05
351 11.8377 6.1819 1.05354 0 0 1.00006 3.639e-05
274 13.3788 5.52303 0.0430421 0 0 1.00006 3.29482e-05
1114 13.3911 5.84893 1.55912 0 0 1.00006 3.70291e-05
355 13.4208 6.56146 0.812154 0 0 1.00006 4.08424e-05
280 14.1259 5.70528 0.774378 0 0 1.00006 3.51951e-05
1197 14.3994 6.63931 1.41055 0 0 1.00006 4.36877e-05
357 14.1977 6.37288 0.0393528 0 0 1.00006 3.95787e-05
278 15.0872 5.63653 0.0367476 0 0 1.00006 3.46423e-05
284 15.8967 5.73918 0.957123 0 0 1.00006 3.63054e-05
359 15.117 6.44626 0.807629 0 0 1.00006 4.12211e-05
363 16.5626 6.46088 1.14396 0 0 1.00006 4.20324e-05
1118 15.1786 5.87045 1.69894 0 0 1.00006 3.8789e-05
282 16.6812 5.42679 0.277134 0 0 1.00006 3.32383e-05
361 15.7453 6.3398 0.0416776 0 0 1.00006 3.99368e-05
286 17.8873 5.31952 0.542223 0 0 1.00006 3.23846e-05
288 17.1753 5.43671 1.24889 0 0 1.00006 3.44064e-05
365 17.1323 6.28693 0.412129 0 0 1.00006 3.95358e-05
367 17.7344 6.26446 1.38517 0 0 1.00006 4.06355e-05
292 18.8424 5.29894 1.20234 0 0 1.00006 3.24089e-05
369 18.4383 6.25241 0.613458 0 0 1.00006 3.8599e-05
290 19.4894 5.78363 0.622418 0 0 1.00006 3.43548e-05
371 19.3932 6.58765 1.35055 0 0 1.00006 4.11917e-05
373 20.0576 6.78326 0.612432 0 0 1.00006 4.00963e-05
294 20.8063 5.80704 0.654365 0 0 1.00006 3.26984e-05
296 20.2481 5.64102 1.39756 0 0 1.00006 3.3557e-05
375 20.8393 6.64913 1.30603 0 0 1.00006 3.87956e-05
377 21.7134 6.70192 0.670352 0 0 1.00006 3.60101e-05
300 21.7149 5.91391 1.38477 0 0 1.00006 3.26007e-05
16260 21.7424 5.76673 0.0551781 0 0 1.00006 3.05074e-05
298 22.7203 5.86646 0.672531 0 0 1.00006 2.9192e-05
379 22.6839 6.73406 1.20916 0 0 1.00006 3.42313e-05
381 23.3969 6.81795 0.271468 0 0 1.00006 3.153e-05
303 24.4016 5.324 1.43561 0 0 1.00006 2.35024e-05
304 23.5282 5.92383 1.29964 0 0 1.00006 2.81082e-05
383 24.3648 6.60451 1.16246 0 0 1.00006 2.82447e-05
302 24.1867 6.04166 0.428462 0 0 1.00006 2.60656e-05
306 25.7204 5.89491 0.701107 0 0 1.00006 2.12807e-05
308 25.1521 6.07714 1.67729 0 0 1.00006 2.44639e-05
385 25.2001 6.77686 0.49677 0 0 1.00006 2.54998e-05
387 25.8668 6.6328 1.40905 0 0 1.00006 2.35261e-05
312 26.7239 5.87636 1.47664 0 0 1.00006 1.87903e-05
310 27.527 5.56864 0.722669 0 0 1.00006 1.53863e-05
389 26.7826 6.3965 0.652072 0 0 1.00006 1.93055e-05
391 27.7324 6.49939 1.36709 0 0 1.00006 1.68229e-05
316 28.3931 5.5438 1.48605 0 0 1.00006 1.33414e-05
390 27.7424 7.03508 0.531033 0 0 1.00006 1.72831e-05
314 29.4137 5.32386 0.818665 0 0 1.00006 1.01476e-05
395 29.4651 6.19977 1.32273 0 0 1.00006 1.11024e-05
394 29.6064 6.91725 0.508251 0 0 1.00006 1.10847e-05
393 28.498 6.2281 0.640984 0 0 1.00006 1.3716e-05
16355 29.4027 6.1678 0.0803983 0 0 1.00006 1.09814e-05
16276 28.5092 5.40972 0.0593357 0 0 1.00006 1.24065e-05
318 30.9875 5.37353 0.595648 0 0 1.00006 6.52501e-06
320 30.2414 5.46978 1.46741 0 0 1.00006 8.45609e-06
397 30.4211 6.1928 0.649958 0 0 1.00006 8.32604e-06
399 31.2442 6.15987 1.38477 0 0 1.00006 6.39771e-06
398 31.2266 6.95909 0.604674 0 0 1.00006 6.47434e-06
321 0.00103591 5.99854 0.447552 0 0 1.00006 4.26644e-06
401 0.288887 7.63247 0.661879 0 0 1.00006 5.03093e-06
402 0.860196 8.45947 0.618637 0 0 1.00006 6.67713e-06
403 1.13954 7.85574 1.49696 0 0 1.00006 7.67249e-06
404 0.3843 8.56085 1.47054 0 0 1.00006 5.17555e-06
405 1.62126 7.75459 0.37312 0 0 1.00006 9.04426e-06
408 1.75371 8.60541 1.46469 0 0 1.00006 9.96369e-06
326 2.51585 7.13368 0.475784 0 0 1.00006 1.15738e-05
406 2.22272 8.61647 0.400119 0 0 1.00006 1.14693e-05
407 2.4243 7.79476 1.27811 0 0 1.00006 1.19597e-05
412 3.04626 8.49338 0.936551 0 0 1.00006 1.47214e-05
409 3.27489 7.74837 0.327486 0 0 1.00006 1.47707e-05
410 3.84672 8.43257 0.0812505 0 0 1.00006 1.77432e-05
411 4.01406 7.63949 1.24549 0 0 1.00006 1.76999e-05
416 4.74023 8.22663 0.924561 0 0 1.00006 2.14142e-05
413 4.70734 7.60881 0.245789 0 0 1.00006 1.99316e-05
1250 3.84664 8.3238 1.76375 0 0 1.00006 1.83896e-05
414 5.9107 8.31048 0.171132 0 0 1.00006 2.63566e-05
415 5.52334 7.55417 1.02968 0 0 1.00006 2.32881e-05
417 6.5347 7.50384 0.16871 0 0 1.00006 2.67628e-05
420 6.44116 8.19255 1.04434 0 0 1.00006 2.89071e-05
419 7.33331 7.72692 0.746996 0 0 1.00006 3.09201e-05
424 8.33513 8.26946 0.869805 0 0 1.00006 3.7313e-05
1258 7.32759 8.13336 1.70017 0 0 1.00006 3.37196e-05
1261 8.10532 7.44498 1.56016 0 0 1.00006 3.39814e-05
421 8.04866 7.56419 0.0271568 0 0 1.00006 3.2771e-05
348 9.89678 7.18281 0.725533 0 0 1.00006 3.75857e-05
423 8.96666 7.57495 0.662627 0 0 1.00006 3.64665e-05
428 9.79163 8.5734 0.694552 0 0 1.00006 4.47034e-05
1262 9.14837 8.64828 1.44572 0 0 1.00006 4.37786e-05
1265 9.70678 7.84308 1.59949 0 0 1.00006 4.23265e-05
352 11.3764 7.11011 0.810373 0 0 1.00006 4.12379e-05
427 10.6368 7.9028 0.843746 0 0 1.00006 4.42161e-05
1266 10.6533 8.66113 1.42825 0 0 1.00006 5.03127e-05
1269 11.4736 7.77163 1.60249 0 0 1.00006 4.78472e-05
429 11.2929 8.08165 0.0434995 0 0 1.00006 4.66226e-05
432 11.4397 8.80595 0.731136 0 0 1.00006 5.23098e-05
356 12.7762 7.26223 0.568651 0 0 1.00006 4.47755e-05
431 12.2481 8.2 0.593389 0 0 1.00006 5.0401e-05
1190 12.1395 7.12898 1.38023 0 0 1.00006 4.43158e-05
1270 12.1617 8.64389 1.49366 0 0 1.00006 5.57482e-05
1273 12.9343 7.97077 1.478 0 0 1.00006 5.25069e-05
360 14.4048 7.3418 0.590999 0 0 1.00006 4.74568e-05
435 13.691 8.07484 0.469764 0 0 1.00006 5.21236e-05
1194 13.539 7.3191 1.34665 0 0 1.00006 4.80304e-05
1277 14.3306 8.16295 1.35576 0 0 1.00006 5.58967e-05
362 16.5084 7.19158 0.281316 0 0 1.00006 4.6533e-05
364 15.7077 7.30926 0.919105 0 0 1.00006 4.83146e-05
439 15.1523 8.28613 0.866877 0 0 1.00006 5.59907e-05
443 16.3438 8.16658 1.11266 0 0 1.00006 5.58188e-05
1198 15.2238 7.51747 1.63311 0 0 1.00006 5.22403e-05
441 15.9415 8.31325 0.15471 0 0 1.00006 5.53691e-05
372 18.3465 7.07703 1.13815 0 0 1.00006 4.57487e-05
368 17.0558 7.3732 1.11846 0 0 1.00006 4.91617e-05
445 17.1427 8.11999 0.339362 0 0 1.00006 5.35407e-05
447 17.7859 8.0465 1.0325 0 0 1.00006 5.35858e-05
366 17.8896 7.1876 0.218501 0 0 1.00006 4.56833e-05
370 19.078 7.36679 0.643336 0 0 1.00006 4.58236e-05
451 19.0037 8.1861 1.18778 0 0 1.00006 5.32716e-05
376 19.9426 7.69438 1.32803 0 0 1.00006 4.7998e-05
453 19.8722 8.17686 0.364094 0 0 1.00006 4.9481e-05
449 18.5257 8.21747 0.177153 0 0 1.00006 5.24184e-05
374 20.763 7.50008 0.673035 0 0 1.00006 4.31703e-05
455 20.7164 8.48316 1.03901 0 0 1.00006 5.01793e-05
380 21.6043 7.7169 1.15195 0 0 1.00006 4.28409e-05
457 21.6726 8.39016 0.263749 0 0 1.00006 4.50621e-05
459 22.644 8.22837 1.022 0 0 1.00006 4.14724e-05
1218 22.4768 7.54886 1.76199 0 0 1.00006 4.0463e-05
378 22.3929 7.52742 0.389155 0 0 1.00006 3.81268e-05
384 23.4963 7.36804 1.05686 0 0 1.00006 3.427e-05
461 23.5379 8.12372 0.386771 0 0 1.00006 3.6547e-05
463 24.3912 8.14737 1.00367 0 0 1.00006 3.36778e-05
1302 24.3021 8.77601 1.69385 0 0 1.00006 3.77019e-05
382 24.3831 7.36684 0.273222 0 0 1.00006 3.03227e-05
388 25.1602 7.43689 1.25644 0 0 1.00006 2.83883e-05
467 26.0606 8.04751 0.992168 0 0 1.00006 2.60782e-05
1306 26.0595 8.67479 1.75991 0 0 1.00006 2.86175e-05
386 26.1287 7.31306 0.371129 0 0 1.00006 2.36425e-05
465 25.2705 8.17286 0.311581 0 0 1.00006 2.93606e-05
466 26.3099 8.62668 0.092561 0 0 1.00006 2.57491e-05
392 26.8205 7.14702 1.34428 0 0 1.00006 2.13111e-05
470 27.9966 8.53553 0.429604 0 0 1.00006 1.83218e-05
471 27.8305 7.86817 1.21601 0 0 1.00006 1.85789e-05
472 27.0127 8.69423 1.02791 0 0 1.00006 2.31637e-05
469 27.0321 7.81764 0.436314 0 0 1.00006 2.12543e-05
396 28.6814 7.13576 1.2316 0 0 1.00006 1.44888e-05
474 29.6235 8.37434 0.545468 0 0 1.00006 1.18538e-05
475 29.5273 7.69743 1.27817 0 0 1.00006 1.21089e-05
476 28.81 8.5847 1.18765 0 0 1.00006 1.53391e-05
473 28.7262 7.74353 0.417669 0 0 1.00006 1.46639e-05
400 30.3528 7.1036 1.18078 0 0 1.00006 9.06744e-06
479 31.2776 7.82951 1.30199 0 0 1.00006 6.47235e-06
480 30.4583 8.50456 1.18557 0 0 1.00006 9.05295e-06
477 30.6643 7.88323 0.381587 0 0 1.00006 8.1585e-06
478 31.4523 8.62685 0.39176 0 0 1.00006 5.62574e-06
482 1.14656 10.2749 0.274024 0 0 1.00006 7.30166e-06
483 1.04173 9.36906 1.20577 0 0 1.00006 7.20547e-06
484 0.279816 9.92954 0.899187 0 0 1.00006 4.1827e-06
481 0.39459 9.33468 0.123524 0 0 1.00006 4.90123e-06
1322 0.837026 10.1206 1.7527 0 0 1.00006 6.31154e-06
485 1.78365 9.43313 0.451839 0 0 1.00006 9.97384e-06
488 1.85177 10.3564 0.969893 0 0 1.00006 1.0292e-05
486 2.61889 10.2534 0.0842226 0 0 1.00006 1.36199e-05
487 2.40296 9.42637 1.22212 0 0 1.00006 1.26898e-05
1326 2.7987 10.2086 1.66462 0 0 1.00006 1.49759e-05
1329 3.23264 9.21107 1.654 0 0 1.00006 1.64913e-05
489 3.10261 9.34516 0.0813721 0 0 1.00006 1.54084e-05
492 3.40783 10.0059 0.73196 0 0 1.00006 1.728e-05
491 3.96479 9.07889 0.854553 0 0 1.00006 1.9175e-05
493 4.61017 9.14793 0.00669241 0 0 1.00006 2.20045e-05
496 4.63838 9.9401 0.570027 0 0 1.00006 2.32732e-05
1330 4.15312 9.93427 1.61417 0 0 1.00006 2.16097e-05
1333 4.70914 9.02959 1.64671 0 0 1.00006 2.33164e-05
495 5.36724 8.9074 0.658597 0 0 1.00006 2.53478e-05
500 6.2792 9.7476 0.513485 0 0 1.00006 3.1615e-05
1334 5.35096 9.78858 1.16159 0 0 1.00006 2.7275e-05
1337 6.19453 9.00967 1.25577 0 0 1.00006 3.01702e-05
1417 6.27534 10.4598 1.18365 0 0 1.00006 3.37652e-05
499 7.21171 8.83396 0.71045 0 0 1.00006 3.4063e-05
501 8.1463 8.99838 0.0811143 0 0 1.00006 3.88411e-05
504 8.00911 9.87238 0.574356 0 0 1.00006 4.14644e-05
1338 7.2223 9.68549 1.1895 0 0 1.00006 3.73936e-05
1341 8.09666 9.11375 1.39491 0 0 1.00006 4.05425e-05
503 8.99424 9.40099 0.724866 0 0 1.00006 4.5052e-05
508 9.69997 10.2792 0.657998 0 0 1.00006 5.25346e-05
1342 8.80356 10.2021 1.40224 0 0 1.00006 4.8845e-05
1345 9.8908 9.53234 1.40852 0 0 1.00006 5.1815e-05
426 10.4661 8.83869 0.0378393 0 0 1.00006 4.83195e-05
507 10.5267 9.63181 0.654846 0 0 1.00006 5.3473e-05
1346 10.698 10.1143 1.62773 0 0 1.00006 6.01568e-05
1349 11.3769 9.58447 1.31427 0 0 1.00006 5.87631e-05
512 11.275 10.5408 0.7173 0 0 1.00006 6.21448e-05
436 13.0759 8.93176 0.785762 0 0 1.00006 5.80012e-05
511 12.1763 9.77202 0.686373 0 0 1.00006 6.1197e-05
516 12.8924 10.438 0.956792 0 0 1.00006 6.89349e-05
1353 12.6262 9.57663 1.60835 0 0 1.00006 6.48114e-05
1350 12.0485 10.5428 1.59662 0 0 1.00006 6.93934e-05
1274 13.7705 8.82371 1.56719 0 0 1.00006 6.14001e-05
440 14.5462 9.18061 0.761264 0 0 1.00006 6.2441e-05
515 13.6102 9.65864 0.836483 0 0 1.00006 6.48161e-05
1354 13.5789 10.3807 1.70305 0 0 1.00006 7.46412e-05
517 14.3488 10.1299 0.21698 0 0 1.00006 6.86771e-05
444 15.9844 9.16123 1.13742 0 0 1.00006 6.43707e-05
1278 15.143 9.05828 1.76062 0 0 1.00006 6.63902e-05
519 15.2151 9.8528 1.01247 0 0 1.00006 6.93157e-05
521 15.7699 10.1792 0.252123 0 0 1.00006 7.02621e-05
523 16.5889 9.97086 0.965303 0 0 1.00006 7.00722e-05
442 16.5898 9.04526 0.263409 0 0 1.00006 6.10344e-05
438 15.3769 9.19999 0.101103 0 0 1.00006 6.22112e-05
452 18.3809 8.93179 0.949361 0 0 1.00006 5.94165e-05
448 17.1789 9.08675 1.13149 0 0 1.00006 6.30501e-05
525 17.2362 10.0464 0.208378 0 0 1.00006 6.82125e-05
527 17.8583 9.89915 1.07812 0 0 1.00006 6.82181e-05
446 17.845 9.13474 0.120458 0 0 1.00006 6.0357e-05
456 19.8978 9.00893 1.07028 0 0 1.00006 5.64197e-05
529 18.6763 9.77319 0.304691 0 0 1.00006 6.34426e-05
531 19.5811 9.94882 0.861956 0 0 1.00006 6.3077e-05
532 18.8005 10.5027 1.15529 0 0 1.00006 7.063e-05
1369 18.74 9.63239 1.72128 0 0 1.00006 6.75521e-05
450 19.3184 9.00397 0.214914 0 0 1.00006 5.64159e-05
533 20.0638 9.83942 0.0750713 0 0 1.00006 5.92649e-05
535 21.0003 9.8717 0.764239 0 0 1.00006 5.65222e-05
1373 20.3231 9.72755 1.68738 0 0 1.00006 6.22976e-05
454 20.8594 9.13402 0.21018 0 0 1.00006 5.21736e-05
460 21.6958 9.09721 0.988769 0 0 1.00006 4.9872e-05
1298 22.4615 8.95555 1.60424 0 0 1.00006 4.74655e-05
539 22.8878 9.75913 0.816297 0 0 1.00006 4.67777e-05
540 22.1603 10.5963 0.882296 0 0 1.00006 5.42555e-05
1377 21.9872 9.86166 1.5604 0 0 1.00006 5.42203e-05