ITEM: TIMESTEP
17500
ITEM: NUMBER OF ATOMS
32000
ITEM: BOX BOUNDS pp pp pp
0.0000000000000000e+00 3.1748021039364001e+01
0.0000000000000000e+00 3.1748021039364001e+01
0.0000000000000000e+00 3.1748021039364001e+01
ITEM: ATOMS id x y z c_phase c_nbond c_rho v_omega
4 0.163538 1.12158 0.466689 0 0 1.00056 2.62369e-06
83 1.05047 1.63914 0.779172 0 0 1.00056 4.59167e-06
842 0.748784 0.77828 1.40851 0 0 1.00056 3.17767e-06
921 0.0820466 1.62819 1.37641 0 0 1.00056 3.14283e-06
3 0.724015 0.0522847 0.617864 0 0 1.00056 2.24363e-06
8 1.74507 0.749483 1.01339 0 0 1.00056 4.27862e-06
85 1.87448 1.40909 0.216208 0 0 1.00056 5.51455e-06
925 1.909 1.58067 1.75211 0 0 1.00056 5.83378e-06
6 2.55016 0.639659 0.201178 0 0 1.00056 5.13777e-06
87 2.72366 1.42562 0.874876 0 0 1.00056 6.66691e-06
846 2.71009 0.702574 1.73636 0 0 1.00056 5.33884e-06
12 3.47263 0.776798 0.957013 0 0 1.00056 6.40619e-06
929 3.69723 1.5409 1.70972 0 0 1.00056 8.14685e-06
10 4.15168 0.679344 0.317318 0 0 1.00056 6.6295e-06
16 4.99977 0.357039 1.15438 0 0 1.00056 6.44009e-06
93 5.01219 1.38881 0.382353 0 0 1.00056 9.13423e-06
850 4.38079 0.750272 1.62976 0 0 1.00056 7.32142e-06
91 4.11056 1.65613 0.712074 0 0 1.00056 8.98602e-06
14 5.68269 0.417954 0.314694 0 0 1.00056 7.01784e-06
95 5.96311 1.07798 0.946244 0 0 1.00056 8.84945e-06
97 6.66282 1.14997 0.218083 0 0 1.00056 9.15104e-06
854 5.81166 0.224806 1.69676 0 0 1.00056 6.46758e-06
933 5.12422 1.49055 1.435 0 0 1.00056 9.78313e-06
20 6.72878 0.151513 0.868167 0 0 1.00056 6.30095e-06
937 6.75337 0.757734 1.69277 0 0 1.00056 8.17984e-06
24 8.28017 0.152154 1.06123 0 0 1.00056 6.01931e-06
99 7.44875 0.968535 0.949121 0 0 1.00056 8.82346e-06
101 8.34559 1.13159 0.233289 0 0 1.00056 9.34463e-06
941 8.2301 1.00152 1.613 0 0 1.00056 9.45959e-06
18 7.62009 0.402045 0.151503 0 0 1.00056 6.90678e-06
22 8.88357 0.252362 0.260696 0 0 1.00056 5.91996e-06
28 9.57073 0.0876298 0.89897 0 0 1.00056 4.45501e-06
103 9.11649 1.05235 1.09707 0 0 1.00056 8.91964e-06
945 9.66726 0.722158 1.76233 0 0 1.00056 7.11695e-06
105 9.7432 1.11839 0.101811 0 0 1.00056 8.62787e-06
32 11.2095 0.0130169 0.642675 0 0 1.00056 2.81364e-06
107 10.4526 0.824215 0.829295 0 0 1.00056 7.03205e-06
949 11.3855 0.808355 1.41836 0 0 1.00056 6.37197e-06
946 10.7325 1.45459 1.72446 0 0 1.00056 1.01059e-05
26 10.262 0.135616 0.0797889 0 0 1.00056 4.23827e-06
112 11.336 1.62704 0.775932 0 0 1.00056 1.03484e-05
36 12.8888 0.0822461 0.639853 0 0 1.00056 1.42308e-06
111 12.1367 0.90502 0.514862 0 0 1.00056 6.00289e-06
870 12.1476 0.142628 1.30533 0 0 1.00056 2.63732e-06
953 12.8419 1.04651 1.37492 0 0 1.00056 6.33823e-06
950 12.1248 1.73827 1.46568 0 0 1.00056 1.05273e-05
40 14.4002 0.26703 0.776403 0 0 1.00056 1.1582e-06
115 13.701 1.01595 0.843221 0 0 1.00056 5.33072e-06
117 14.2125 1.47766 0.158573 0 0 1.00056 7.42614e-06
874 13.6389 0.256527 1.63625 0 0 1.00056 1.66344e-06
957 14.4989 1.10144 1.48076 0 0 1.00056 5.27695e-06
119 15.0447 1.52757 0.667427 0 0 1.00056 7.03587e-06
44 15.7895 0.783829 0.790222 0 0 1.00056 3.12301e-06
878 15.1863 0.449971 1.64055 0 0 1.00056 1.58566e-06
882 16.6199 0.779101 1.34633 0 0 1.00056 3.00051e-06
961 15.7958 1.50967 1.39981 0 0 1.00056 7.2299e-06
38 15.1695 0.692698 0.0710318 0 0 1.00056 2.52721e-06
123 16.7158 1.6193 0.687084 0 0 1.00056 7.32646e-06
48 17.3358 0.839248 0.558192 0 0 1.00056 3.15794e-06
127 18.0959 1.74062 0.755184 0 0 1.00056 8.35204e-06
886 17.9962 0.896475 1.42639 0 0 1.00056 4.05208e-06
47 18.1479 0.0821934 0.693205 0 0 1.00056 -5.8503e-08
51 19.5345 0.226638 0.669585 0 0 1.00056 1.73992e-06
52 18.8621 0.921261 0.690803 0 0 1.00056 4.27715e-06
889 19.0273 0.355621 1.5482 0 0 1.00056 1.68488e-06
890 19.7014 1.19903 1.69438 0 0 1.00056 6.91768e-06
969 18.8316 1.70334 1.50051 0 0 1.00056 8.71013e-06
55 21.1452 0.620623 1.07218 0 0 1.00057 4.31077e-06
56 20.3234 1.02682 0.969708 0 0 1.00056 5.89544e-06
54 21.2535 1.04926 0.214967 0 0 1.00056 6.53448e-06
893 20.4426 0.130463 1.43376 0 0 1.00056 2.43791e-06
53 20.2727 0.113358 0.0723506 0 0 1.00056 1.9902e-06
57 22.0411 0.571892 0.538808 0 0 1.00056 4.95086e-06
59 22.844 0.737621 1.40343 0 0 1.00056 6.05877e-06
60 22.225 1.46789 1.33126 0 0 1.00056 9.17497e-06
58 22.9952 1.37204 0.464382 0 0 1.00056 8.30939e-06
63 24.2869 0.693411 1.42527 0 0 1.00056 6.36772e-06
61 23.6008 0.658662 0.574349 0 0 1.00056 5.90184e-06
62 24.5222 1.48913 0.747302 0 0 1.00056 8.76449e-06
64 23.5931 1.55993 1.39339 0 0 1.00056 9.4693e-06
65 24.9895 0.616081 0.541979 0 0 1.00056 6.07278e-06
67 26.0285 0.659609 1.1678 0 0 1.00056 5.85609e-06
68 25.251 1.43745 1.46371 0 0 1.00056 8.70625e-06
66 25.9569 1.22885 0.425871 0 0 1.00056 7.37422e-06
17548 25.1595 0.0765952 1.36205 0 0 1.00056 4.59773e-06
70 27.6521 1.51595 0.386094 0 0 1.00056 6.44388e-06
71 27.64 0.734893 0.872365 0 0 1.00056 4.8875e-06
72 26.8143 1.29419 1.2554 0 0 1.00056 6.86821e-06
913 28.4003 0.544472 1.40902 0 0 1.00056 3.82472e-06
69 26.8036 0.500849 0.235536 0 0 1.00056 4.98096e-06
76 28.7131 1.42206 0.734426 0 0 1.00056 4.87291e-06
914 29.4296 1.11142 1.56764 0 0 1.00056 3.68496e-06
917 29.8226 0.298606 1.45719 0 0 1.00056 1.88e-06
75 29.2872 0.509571 0.616889 0 0 1.00056 2.6506e-06
841 31.5935 0.301499 1.25624 0 0 1.00056 -3.47547e-07
79 30.7253 0.565808 0.475565 0 0 1.00056 1.0285e-06
80 30.1543 1.31306 0.772805 0 0 1.00056 2.80579e-06
918 30.9064 1.0474 1.38955 0 0 1.00056 1.49963e-06
82 1.22588 2.39834 0.123196 0 0 1.00056 5.95464e-06
84 0.248356 2.40066 0.808723 0 0 1.00056 4.29394e-06
163 1.43784 3.17775 0.943734 0 0 1.00056 7.40334e-06
922 1.25393 2.32096 1.58813 0 0 1.00056 5.97674e-06
1001 0.529292 3.03817 1.5483 0 0 1.00056 5.43436e-06
161 0.476237 3.10945 0.129989 0 0 1.00056 5.32386e-06
88 2.02969 2.33302 0.783344 0 0 1.00056 7.15114e-06
167 2.82029 3.15147 0.856459 0 0 1.00056 1.00798e-05
926 2.78917 2.11264 1.53586 0 0 1.00056 8.14654e-06
86 2.84463 2.26148 0.0535891 0 0 1.00056 8.44283e-06
1005 2.26133 2.99747 1.75531 0 0 1.00056 8.7099e-06
1009 3.44473 3.24982 1.6469 0 0 1.00056 1.17407e-05
92 3.51808 2.39906 0.781699 0 0 1.00056 9.83012e-06
171 4.38194 3.11746 0.753007 0 0 1.00056 1.26885e-05
930 4.29207 2.44494 1.57927 0 0 1.00056 1.11261e-05
96 5.06074 2.34664 0.817804 0 0 1.00056 1.19559e-05
94 5.80514 2.20601 0.139304 0 0 1.00056 1.22843e-05
175 5.85664 2.94493 0.954801 0 0 1.00056 1.472e-05
934 6.00006 1.9553 1.48981 0 0 1.00056 1.16987e-05
173 5.18226 3.09508 0.0072652 0 0 1.00056 1.42744e-05
100 6.70639 1.92716 0.779598 0 0 1.00056 1.19512e-05
1017 6.74506 2.78784 1.54456 0 0 1.00056 1.53079e-05
177 6.83743 2.67353 0.127588 0 0 1.00056 1.44759e-05
98 7.61194 1.96116 0.135964 0 0 1.00056 1.24811e-05
104 8.26256 1.92651 0.934847 0 0 1.00056 1.26779e-05
179 7.62553 2.77682 0.913835 0 0 1.00056 1.59006e-05
938 7.45223 1.79112 1.56616 0 0 1.00056 1.20675e-05
180 6.75805 3.49417 0.781569 0 0 1.00056 1.76003e-05
1021 8.42827 2.70408 1.64371 0 0 1.00056 1.63875e-05
181 8.50139 2.69 0.0397571 0 0 1.00056 1.56547e-05
102 9.07851 1.83539 0.249178 0 0 1.00056 1.20757e-05
108 9.95015 1.76972 1.09667 0 0 1.00056 1.15811e-05
183 9.17404 2.69086 0.930294 0 0 1.00056 1.65133e-05
942 9.22127 1.94478 1.71115 0 0 1.00056 1.32774e-05
185 9.81862 2.649 0.208062 0 0 1.00056 1.59413e-05
1022 9.39063 3.47147 1.5013 0 0 1.00056 2.11929e-05
188 10.204 3.3153 0.884771 0 0 1.00056 1.95257e-05
106 10.4737 1.87402 0.20218 0 0 1.00056 1.19043e-05
187 10.88 2.56448 0.919324 0 0 1.00056 1.52377e-05
1026 11.042 3.33163 1.59313 0 0 1.00056 2.00483e-05
1029 11.7239 2.62206 1.58902 0 0 1.00056 1.61297e-05
192 11.7539 3.42178 0.802026 0 0 1.00056 2.02402e-05
116 12.8763 1.79899 0.603536 0 0 1.00056 1.00449e-05
191 12.1983 2.46974 0.741658 0 0 1.00056 1.47307e-05
1033 13.1757 2.8643 1.69433 0 0 1.00057 1.68677e-05
196 12.8584 3.43934 0.815442 0 0 1.00056 2.03818e-05
195 13.5243 2.90012 0.840163 0 0 1.00056 1.59323e-05
954 13.6004 1.88264 1.47679 0 0 1.00056 1.01852e-05
120 14.2893 2.36664 0.924664 0 0 1.00056 1.26128e-05
1037 14.4134 3.30221 1.5559 0 0 1.00056 1.91265e-05
197 14.4923 3.15279 0.0421256 0 0 1.00056 1.70812e-05
114 13.653 2.19018 0.054812 0 0 1.00056 1.19039e-05
199 15.0856 3.39717 0.874119 0 0 1.00056 1.88198e-05
958 15.0625 2.28132 1.444 0 0 1.00056 1.20538e-05
118 15.1206 2.4802 0.134902 0 0 1.00056 1.28511e-05
124 15.9668 2.46475 0.701485 0 0 1.00056 1.24888e-05
203 16.6693 3.26836 0.673778 0 0 1.00056 1.75424e-05
962 16.598 2.54392 1.52745 0 0 1.00056 1.3407e-05
1041 15.7627 3.2692 1.50635 0 0 1.00056 1.80854e-05
201 15.9298 3.27641 0.0232712 0 0 1.00056 1.78189e-05
965 17.4181 1.85964 1.56352 0 0 1.00056 9.2652e-06
128 17.3323 2.46694 0.680963 0 0 1.00056 1.24611e-05
207 18.2627 3.1005 0.711335 0 0 1.00056 1.63577e-05
966 18.292 2.60213 1.593 0 0 1.00056 1.4046e-05
1045 17.4421 3.23761 1.50196 0 0 1.00056 1.76696e-05
131 19.6998 1.78716 0.842497 0 0 1.00056 9.243e-06
129 19.0312 1.78242 0.00462888 0 0 1.00056 8.62658e-06
132 19.1442 2.58192 1.01431 0 0 1.00056 1.35114e-05
211 20.0287 3.50646 1.27353 0 0 1.00056 1.95768e-05
209 19.1928 3.22832 0.190783 0 0 1.00056 1.7223e-05
130 19.838 2.57089 0.108927 0 0 1.00056 1.34482e-05
133 20.4965 1.7752 0.202691 0 0 1.00056 9.44263e-06
135 21.2552 1.92919 0.960785 0 0 1.00056 1.06963e-05
973 20.5104 2.04971 1.73825 0 0 1.00056 1.15966e-05
134 21.4006 2.72326 0.457081 0 0 1.00056 1.425e-05
136 20.4586 2.73083 1.10008 0 0 1.00056 1.50559e-05
213 20.7032 3.30299 0.328688 0 0 1.00056 1.76338e-05
137 22.1401 1.91877 0.519896 0 0 1.00056 1.07433e-05
139 23.0653 2.38927 1.51336 0 0 1.00056 1.29726e-05
138 23.1784 2.94766 0.729887 0 0 1.00057 1.47308e-05
140 22.3045 2.82847 1.23677 0 0 1.00057 1.53863e-05
141 23.8697 2.14361 0.621089 0 0 1.00056 1.11361e-05
143 24.5771 2.3172 1.58834 0 0 1.00056 1.21408e-05
142 24.5423 3.02121 0.77303 0 0 1.00056 1.43282e-05
144 23.9143 3.2423 1.533 0 0 1.00056 1.62498e-05
16108 25.1555 3.15258 0.00813211 0 0 1.00056 1.38935e-05
147 26.0502 2.03748 1.35513 0 0 1.00056 9.80186e-06
149 26.6648 2.06684 0.511778 0 0 1.00056 8.90635e-06
145 25.2653 2.16683 0.522675 0 0 1.00056 1.06739e-05
146 25.9704 2.91972 0.700508 0 0 1.00056 1.23464e-05
148 25.3484 2.89654 1.52044 0 0 1.00056 1.31176e-05
152 26.6946 2.86083 1.5276 0 0 1.00056 1.1356e-05
151 27.6153 2.2285 1.22959 0 0 1.00056 8.09071e-06
153 28.3683 2.30246 0.344387 0 0 1.00056 7.08636e-06
150 27.2485 2.95782 0.635118 0 0 1.00056 1.03074e-05
156 28.4035 2.97372 1.197 0 0 1.00056 8.5568e-06
233 28.1616 3.46116 0.335886 0 0 1.00056 9.91084e-06
993 28.6123 1.92701 1.50315 0 0 1.00056 6.22429e-06
997 30.0556 1.93615 1.7038 0 0 1.00056 4.18853e-06
155 29.5435 2.18865 0.880843 0 0 1.00056 5.04166e-06
154 29.3299 2.84461 0.286399 0 0 1.00056 6.48268e-06
235 29.4193 3.43176 1.17944 0 0 1.00056 7.40026e-06
159 31.0074 2.05283 0.922406 0 0 1.00056 2.53104e-06
160 30.3134 2.82543 0.998226 0 0 1.00056 4.52863e-06
239 31.1856 3.41274 0.972518 0 0 1.00056 3.8643e-06
998 31.1188 2.76295 1.72592 0 0 1.00056 3.29126e-06
237 30.2772 3.37095 0.147693 0 0 1.00056 5.53095e-06
157 30.4991 2.00814 0.0311939 0 0 1.00056 3.2403e-06
158 31.2687 2.72155 0.0765221 0 0 1.00056 2.80609e-06
164 0.469675 3.79006 0.917523 0 0 1.00056 5.91789e-06
241 0.346497 4.61865 0.47411 0 0 1.00056 6.39658e-06
243 1.34357 4.61357 0.984172 0 0 1.00056 8.91162e-06
162 1.22139 3.82188 0.0672736 0 0 1.00056 7.47878e-06
244 0.321036 5.28413 1.27557 0 0 1.00056 6.9076e-06
168 2.04258 3.95378 0.848577 0 0 1.00056 9.56998e-06
247 2.76724 4.71955 1.12457 0 0 1.00056 1.26196e-05
166 2.85396 4.00848 0.20086 0 0 1.00056 1.16457e-05
245 2.11874 4.86115 0.280756 0 0 1.00056 1.09143e-05
249 3.65037 4.67202 0.166014 0 0 1.00056 1.47854e-05
172 3.69606 3.8982 0.884649 0 0 1.00056 1.30997e-05
251 4.31423 4.65557 1.15001 0 0 1.00056 1.663e-05
170 4.47646 3.96265 0.144837 0 0 1.00056 1.49632e-05
250 4.47339 5.22857 0.321958 0 0 1.00056 1.80867e-05
176 5.14679 3.76484 1.15922 0 0 1.00056 1.60973e-05
253 5.27417 4.48596 0.329161 0 0 1.00056 1.82883e-05
174 6.00608 3.67161 0.182516 0 0 1.00056 1.73683e-05
255 5.98793 4.43747 1.02813 0 0 1.00056 1.99619e-05
254 6.08374 5.11346 0.286401 0 0 1.00056 2.20139e-05
256 5.24111 5.16273 1.29304 0 0 1.00056 2.03187e-05
1097 6.96947 4.21006 1.64556 0 0 1.00056 2.13461e-05
260 6.99189 4.83038 0.867481 0 0 1.00056 2.31289e-05
259 7.71866 4.15205 0.558822 0 0 1.00056 2.17968e-05
1018 7.69206 3.56458 1.50027 0 0 1.00056 1.956e-05
258 7.68073 5.02958 0.0341756 0 0 1.00056 2.54452e-05
1098 7.77096 5.05816 1.49374 0 0 1.00056 2.63909e-05
184 8.50257 3.57786 0.705181 0 0 1.00056 1.99817e-05
1101 8.55816 4.28177 1.47803 0 0 1.00056 2.38843e-05
264 8.59034 4.98519 0.698659 0 0 1.00056 2.69687e-05
263 9.44125 4.26073 0.813426 0 0 1.00056 2.44779e-05
182 9.30189 3.57928 0.0564438 0 0 1.00056 2.05311e-05
1102 9.47346 4.99397 1.58379 0 0 1.00056 2.94438e-05
262 9.42028 5.1467 0.0218676 0 0 1.00056 2.90733e-05
268 10.205 5.01887 0.796311 0 0 1.00056 2.94846e-05
265 10.229 4.23674 0.124884 0 0 1.00056 2.45721e-05
1105 10.2609 4.05905 1.65718 0 0 1.00056 2.45218e-05
267 10.9989 4.37207 0.898979 0 0 1.00056 2.59295e-05
186 10.9388 3.58792 0.171194 0 0 1.00056 2.08545e-05
1106 10.9872 4.93672 1.7562 0 0 1.00056 3.0289e-05
266 10.9518 5.27621 0.0122481 0 0 1.00056 3.13762e-05
269 11.7994 4.46716 0.216481 0 0 1.00056 2.59804e-05
1109 11.7893 4.15534 1.69374 0 0 1.00056 2.61351e-05
272 11.8706 5.0315 1.00544 0 0 1.00056 3.082e-05
271 12.6314 4.3603 1.00337 0 0 1.00056 2.66134e-05
1113 13.2789 4.79833 1.69024 0 0 1.00056 3.0055e-05
273 13.0675 4.44638 0.0583356 0 0 1.00056 2.62965e-05
275 13.6938 4.57654 0.788 0 0 1.00056 2.74659e-05
200 14.4303 4.04246 0.696235 0 0 1.00056 2.31037e-05
1034 13.9447 4.09567 1.59109 0 0 1.00056 2.48942e-05
1117 14.7307 5.0309 1.52488 0 0 1.00056 3.18831e-05
277 14.6289 4.81277 0.0786347 0 0 1.00056 2.7993e-05
279 15.4686 5.00956 0.81573 0 0 1.00056 2.97859e-05
198 15.3978 4.16747 0.106353 0 0 1.00056 2.33899e-05
1038 15.4649 4.38898 1.59638 0 0 1.00056 2.60933e-05
204 16.1077 4.09608 0.912564 0 0 1.00056 2.33268e-05
281 16.3536 4.82386 0.179166 0 0 1.00056 2.75792e-05
1121 16.3685 5.08992 1.64858 0 0 1.00056 3.17041e-05
1042 16.7822 4.0464 1.68136 0 0 1.00056 2.40003e-05
283 17.072 4.70308 0.906242 0 0 1.00056 2.71595e-05
208 17.6846 3.97139 0.807995 0 0 1.00056 2.17997e-05
1046 18.3494 3.83558 1.65554 0 0 1.00056 2.19815e-05
285 17.8989 4.74992 0.0280553 0 0 1.00056 2.67688e-05
287 18.5382 4.70022 1.09415 0 0 1.00056 2.71881e-05
206 18.5362 4.04527 0.0721361 0 0 1.00056 2.17303e-05
212 19.2413 3.95109 0.960069 0 0 1.00056 2.18014e-05
289 19.275 4.86891 0.357324 0 0 1.00056 2.7495e-05
210 19.9631 4.04031 0.245313 0 0 1.00056 2.18925e-05
291 20.1153 4.96717 1.11077 0 0 1.00056 2.79358e-05
215 21.6232 3.62933 1.3891 0 0 1.00056 1.91466e-05
216 20.7915 4.13794 1.2304 0 0 1.00056 2.23982e-05
295 21.2995 5.07981 1.37915 0 0 1.00056 2.82915e-05
214 21.4517 4.2843 0.51533 0 0 1.00056 2.25326e-05
293 20.5855 5.10702 0.348192 0 0 1.00056 2.75899e-05
217 22.2649 3.54801 0.605652 0 0 1.00056 1.87519e-05
16179 22.9775 3.75254 0.0499673 0 0 1.00056 1.84259e-05
219 23.1301 3.98119 1.41015 0 0 1.00056 2.00129e-05
220 22.2901 4.5005 1.31044 0 0 1.00056 2.37309e-05
218 22.9735 4.72053 0.533546 0 0 1.00056 2.31246e-05
223 24.7323 3.88083 1.55676 0 0 1.00056 1.7786e-05
221 23.8589 3.99117 0.773814 0 0 1.00056 1.88924e-05
222 24.6375 4.70823 0.631808 0 0 1.00056 2.0582e-05
224 23.8145 4.92938 1.33964 0 0 1.00056 2.37302e-05
228 25.3209 4.85652 1.59908 0 0 1.00056 2.02441e-05
227 25.9526 3.8284 1.51789 0 0 1.00056 1.54627e-05
229 26.3992 3.81592 0.594559 0 0 1.00056 1.41678e-05
225 25.3125 3.99764 0.780269 0 0 1.00056 1.66583e-05
232 26.6218 4.61289 1.37272 0 0 1.00056 1.61883e-05
226 25.8157 4.75428 0.406937 0 0 1.00056 1.80219e-05
231 27.4078 3.62725 1.41291 0 0 1.00056 1.18886e-05
311 27.5993 5.1678 1.40134 0 0 1.00056 1.52181e-05
236 28.1802 4.22176 1.10916 0 0 1.00056 1.17671e-05
230 27.2984 4.3285 0.580266 0 0 1.00056 1.39239e-05
313 28.5142 4.97981 0.701068 0 0 1.00056 1.17772e-05
234 29.1254 3.96898 0.476303 0 0 1.00056 8.78043e-06
315 29.3079 4.71384 1.32 0 0 1.00056 9.6531e-06
240 30.1879 4.19102 1.02889 0 0 1.00057 6.73199e-06
238 31.2113 4.05258 0.361891 0 0 1.00056 4.08324e-06
317 30.4188 4.81055 0.478692 0 0 1.00056 6.3272e-06
319 31.1893 4.67793 1.39515 0 0 1.00056 4.71409e-06
242 1.14903 5.48898 0.460252 0 0 1.00056 8.98642e-06
323 1.05465 6.17194 1.27581 0 0 1.00056 9.23605e-06
324 0.519446 6.93101 1.4949 0 0 1.00056 8.0412e-06
322 1.23701 6.88749 0.568772 0 0 1.00056 1.01074e-05
321 0.231992 6.0283 0.449086 0 0 1.00056 6.83046e-06
248 1.78192 5.4262 1.37078 0 0 1.00056 1.10211e-05
328 1.97969 6.91447 1.24095 0 0 1.00056 1.2774e-05
325 2.14785 6.08686 0.506221 0 0 1.00056 1.25941e-05
327 2.54911 6.01843 1.40144 0 0 1.00056 1.40953e-05
246 2.9369 5.44675 0.273319 0 0 1.00056 1.39726e-05
326 2.76761 6.97315 0.468248 0 0 1.00056 1.57454e-05
252 3.38678 5.43982 1.2875 0 0 1.00056 1.57742e-05
332 3.54387 6.75382 1.13866 0 0 1.00056 1.80985e-05
329 3.68686 6.06232 0.484182 0 0 1.00056 1.7371e-05
331 4.4271 5.83963 1.224 0 0 1.00056 1.97237e-05
330 4.31479 6.75696 0.226638 0 0 1.00056 2.09967e-05
336 5.11563 6.51551 1.15833 0 0 1.00056 2.38181e-05
333 5.15124 5.95626 0.321829 0 0 1.00056 2.20541e-05
335 6.02526 5.9008 0.957321 0 0 1.00056 2.51362e-05
334 5.90448 6.70873 0.149762 0 0 1.00056 2.69034e-05
337 6.75329 5.73934 0.144297 0 0 1.00056 2.59127e-05
340 6.83201 6.5011 0.974125 0 0 1.00056 2.9962e-05
1177 6.83908 5.64399 1.59692 0 0 1.00056 2.67263e-05
339 7.71015 5.79189 0.757937 0 0 1.00056 2.90507e-05
1178 7.71242 6.45548 1.5952 0 0 1.00056 3.31215e-05
344 8.46705 6.47137 0.714685 0 0 1.00056 3.4221e-05
1181 8.66208 5.74775 1.4965 0 0 1.00056 3.18725e-05
343 9.34025 5.83217 0.739983 0 0 1.00056 3.28469e-05
1182 9.57749 6.57143 1.46206 0 0 1.00056 3.87323e-05
1185 10.2412 5.8316 1.47889 0 0 1.00056 3.54785e-05
345 10.2324 5.91486 0.0909821 0 0 1.00056 3.45093e-05
347 11.0952 5.72457 0.938474 0 0 1.00056 3.44322e-05
346 11.0581 6.63407 0.131898 0 0 1.00056 4.02499e-05
1186 11.0276 6.59106 1.49221 0 0 1.00056 4.19616e-05
348 10.3433 6.83619 0.7282 0 0 1.00056 4.11143e-05
349 11.8443 6.09098 0.0649456 0 0 1.00056 3.71102e-05
352 11.8734 6.84332 0.807933 0 0 1.00056 4.35742e-05
270 12.5018 5.38687 0.1858 0 0 1.00056 3.266e-05
276 13.2236 5.62067 0.861372 0 0 1.00056 3.49447e-05
351 12.3243 5.97593 1.05008 0 0 1.00056 3.77704e-05
1190 12.7191 6.90155 1.38119 0 0 1.00056 4.60453e-05
274 13.8403 5.40357 0.0351746 0 0 1.00056 3.30116e-05
1114 13.916 5.72301 1.57303 0 0 1.00056 3.694e-05
355 13.9557 6.41339 0.795691 0 0 1.00056 4.0454e-05
280 14.633 5.63795 0.773648 0 0 1.00056 3.51868e-05
1197 14.9554 6.55964 1.42532 0 0 1.00056 4.40599e-05
357 14.7296 6.30844 0.0358347 0 0 1.00056 3.94271e-05
278 15.559 5.61888 0.0407571 0 0 1.00056 3.37591e-05
284 16.4109 5.79052 0.942155 0 0 1.00056 3.54867e-05
359 15.6584 6.45586 0.802324 0 0 1.00056 4.10461e-05
1118 15.7217 5.86009 1.69369 0 0 1.00056 3.80717e-05
361 16.2803 6.39167 0.0471252 0 0 1.00056 3.93398e-05
363 17.1017 6.58019 1.14943 0 0 1.00056 4.12863e-05
282 17.1533 5.54424 0.267454 0 0 1.00056 3.23071e-05
286 18.3596 5.53104 0.524845 0 0 1.00056 3.24252e-05
288 17.6573 5.58348 1.24284 0 0 1.00056 3.4016e-05
365 17.6767 6.4445 0.399648 0 0 1.00056 3.94769e-05
367 18.2597 6.46551 1.36291 0 0 1.00056 4.06582e-05
292 19.2813 5.54837 1.19892 0 0 1.00056 3.28727e-05
369 18.9488 6.49778 0.61638 0 0 1.00056 3.87753e-05
290 19.9588 6.06346 0.624578 0 0 1.00056 3.48739e-05
371 19.8881 6.90075 1.34509 0 0 1.00056 4.18264e-05
294 21.2468 6.14827 0.644944 0 0 1.00056 3.35255e-05
296 20.6734 5.96748 1.38919 0 0 1.00056 3.44345e-05
375 21.3036 7.02558 1.30841 0 0 1.00056 4.00564e-05
297 22.0145 5.34111 0.790227 0 0 1.00056 2.80916e-05
299 22.8942 5.57228 1.28396 0 0 1.00056 2.86336e-05
300 22.1223 6.28631 1.36876 0 0 1.00056 3.40573e-05
16260 22.1524 6.14042 0.0541487 0 0 1.00056 3.17638e-05
298 23.09 6.26724 0.652466 0 0 1.00056 3.04242e-05
301 23.9009 5.47494 0.535949 0 0 1.00056 2.49026e-05
303 24.7154 5.70037 1.43726 0 0 1.00056 2.47166e-05
304 23.8936 6.33036 1.28478 0 0 1.00056 2.95702e-05
383 24.7268 7.02313 1.17557 0 0 1.00056 2.95018e-05
302 24.5302 6.42178 0.428303 0 0 1.00056 2.76301e-05
305 25.193 5.62877 0.566204 0 0 1.00056 2.25856e-05
307 26.0141 5.51454 1.35121 0 0 1.00056 2.05709e-05
306 26.0298 6.2461 0.693301 0 0 1.00056 2.20312e-05
308 25.4774 6.44885 1.65618 0 0 1.00056 2.5493e-05
387 26.2075 7.01473 1.40858 0 0 1.00056 2.42199e-05
309 26.7919 5.30502 0.642088 0 0 1.00056 1.74523e-05
312 27.0027 6.20191 1.46867 0 0 1.00056 1.92151e-05
310 27.7858 5.84522 0.712958 0 0 1.00056 1.54307e-05
389 27.0716 6.72284 0.640306 0 0 1.00056 1.96774e-05
391 27.9972 6.7736 1.36972 0 0 1.00056 1.67282e-05
316 28.6401 5.77932 1.46838 0 0 1.00056 1.32742e-05
314 29.6301 5.49513 0.813026 0 0 1.00056 9.51578e-06
395 29.705 6.38609 1.31718 0 0 1.00056 1.04252e-05
393 28.7561 6.4703 0.649133 0 0 1.00056 1.36334e-05
16355 29.6388 6.33604 0.0749759 0 0 1.00056 1.05488e-05
16276 28.7385 5.63695 0.0468835 0 0 1.00056 1.20753e-05
318 31.1991 5.44306 0.591906 0 0 1.00056 5.36937e-06
320 30.4615 5.58655 1.45337 0 0 1.00056 7.37106e-06
397 30.6446 6.30927 0.640672 0 0 1.00056 7.27773e-06
399 31.4669 6.21649 1.37976 0 0 1.00056 5.00972e-06
398 31.4673 7.01336 0.605403 0 0 1.00056 4.77007e-06
401 0.53451 7.64048 0.651927 0 0 1.00056 7.80157e-06
402 1.12171 8.42185 0.603854 0 0 1.00056 1.00637e-05
403 1.38439 7.77951 1.48447 0 0 1.00056 1.10924e-05
404 0.626928 8.54727 1.46277 0 0 1.00056 8.07763e-06
405 1.87696 7.65973 0.37996 0 0 1.00056 1.25614e-05
408 2.01707 8.48808 1.45689 0 0 1.00056 1.40763e-05
406 2.49658 8.46001 0.396765 0 0 1.00056 1.58379e-05
407 2.69559 7.63961 1.27773 0 0 1.00056 1.62108e-05
412 3.33607 8.28907 0.936633 0 0 1.00056 1.97558e-05
409 3.55223 7.53158 0.328045 0 0 1.00057 1.93903e-05
410 4.14652 8.18011 0.0696761 0 0 1.00057 2.29613e-05
411 4.31647 7.36411 1.21613 0 0 1.00057 2.22987e-05
491 4.25777 8.80009 0.852837 0 0 1.00056 2.4681e-05
413 5.03011 7.34114 0.231566 0 0 1.00056 2.47483e-05
1333 5.0351 8.69615 1.63085 0 0 1.00056 2.94457e-05
416 5.05371 7.93957 0.939465 0 0 1.00057 2.68924e-05
414 6.25832 7.96964 0.186353 0 0 1.00056 3.1704e-05
415 5.85911 7.22604 1.00733 0 0 1.00056 2.80513e-05
495 5.69723 8.57807 0.64507 0 0 1.00057 3.1311e-05
1337 6.55654 8.63126 1.24709 0 0 1.00057 3.6838e-05
420 6.81553 7.79168 1.04566 0 0 1.00056 3.40028e-05
417 6.89523 7.18132 0.156072 0 0 1.00056 3.21913e-05
419 7.73291 7.34451 0.737653 0 0 1.00056 3.61392e-05
1258 7.72983 7.71395 1.68608 0 0 1.00056 3.86129e-05
499 7.59057 8.43433 0.718456 0 0 1.00056 3.96053e-05
421 8.46412 7.21662 0.0160617 0 0 1.00056 3.76245e-05
1261 8.54591 7.06707 1.55282 0 0 1.00056 3.88779e-05
424 8.74258 7.88439 0.868369 0 0 1.00056 4.2449e-05
423 9.41234 7.2233 0.66463 0 0 1.00056 4.06084e-05
1262 9.59195 8.22352 1.43622 0 0 1.00056 4.8735e-05
501 8.56359 8.59279 0.0795675 0 0 1.00056 4.45529e-05
1341 8.51138 8.68668 1.38807 0 0 1.00056 4.64585e-05
1265 10.2299 7.46447 1.58594 0 0 1.00056 4.64166e-05
428 10.2742 8.20196 0.696457 0 0 1.00056 4.94392e-05
427 11.1445 7.56646 0.831271 0 0 1.00056 4.76104e-05
1266 11.1706 8.33674 1.4312 0 0 1.00056 5.45655e-05
426 10.9657 8.47293 0.0196241 0 0 1.00056 5.23126e-05
429 11.8122 7.78573 0.0396986 0 0 1.00056 4.95924e-05
432 11.9477 8.49506 0.726058 0 0 1.00056 5.53783e-05
1269 12.0031 7.4933 1.5826 0 0 1.00056 5.08723e-05
356 13.3289 7.09499 0.582853 0 0 1.00056 4.60284e-05
431 12.7923 7.94695 0.599538 0 0 1.00056 5.19943e-05
1270 12.7181 8.38715 1.50264 0 0 1.00056 5.80834e-05
1273 13.508 7.78852 1.47751 0 0 1.00056 5.44707e-05
360 14.9572 7.27651 0.623623 0 0 1.00056 4.79709e-05
435 14.2662 7.96472 0.49815 0 0 1.00056 5.30685e-05
1194 14.1433 7.17837 1.37107 0 0 1.00056 4.79697e-05
1277 14.952 8.06475 1.36794 0 0 1.00057 5.59138e-05
1274 14.3644 8.72051 1.56773 0 0 1.00056 6.2868e-05
436 13.6142 8.72876 0.781873 0 0 1.00056 5.9383e-05
364 16.291 7.34612 0.890278 0 0 1.00057 4.69055e-05
439 15.7708 8.27718 0.869551 0 0 1.00057 5.55765e-05
1198 15.8268 7.52732 1.65534 0 0 1.00056 5.23385e-05
441 16.5108 8.36777 0.149262 0 0 1.00056 5.43697e-05
443 16.9567 8.27128 1.09938 0 0 1.00056 5.51392e-05
362 17.0837 7.30891 0.29235 0 0 1.00056 4.60797e-05
368 17.6513 7.52253 1.10595 0 0 1.00056 4.87374e-05
445 17.7129 8.30556 0.308388 0 0 1.00056 5.36639e-05
447 18.3775 8.29453 1.03748 0 0 1.00056 5.29123e-05
366 18.4497 7.42687 0.228019 0 0 1.00056 4.5755e-05
372 18.9002 7.3409 1.1573 0 0 1.00056 4.65603e-05
370 19.6215 7.66781 0.623097 0 0 1.00056 4.57181e-05
451 19.5721 8.51978 1.18584 0 0 1.00056 5.40166e-05
449 19.0835 8.51096 0.201281 0 0 1.00056 5.1395e-05
373 20.5475 7.11412 0.608201 0 0 1.00056 4.0838e-05
453 20.3908 8.54053 0.372879 0 0 1.00056 5.05668e-05
376 20.4784 8.06067 1.32141 0 0 1.00056 4.88912e-05
374 21.2528 7.89306 0.645254 0 0 1.00056 4.43475e-05
377 22.1404 7.10919 0.674935 0 0 1.00056 3.75377e-05
379 23.0911 7.14776 1.20862 0 0 1.00056 3.5825e-05
380 22.0799 8.14635 1.14586 0 0 1.00056 4.40936e-05
459 23.0737 8.7106 1.0162 0 0 1.00056 4.29514e-05
378 22.8359 7.9539 0.388601 0 0 1.00056 3.92769e-05
381 23.7838 7.22081 0.283326 0 0 1.00056 3.30562e-05
384 23.8974 7.81697 1.07218 0 0 1.00056 3.54947e-05
461 23.9232 8.58857 0.36295 0 0 1.00056 3.76238e-05
463 24.7655 8.60099 1.00264 0 0 1.00056 3.49891e-05
382 24.7335 7.78735 0.28464 0 0 1.00056 3.14096e-05
385 25.5283 7.14391 0.495155 0 0 1.00056 2.62043e-05
388 25.5142 7.8503 1.24577 0 0 1.00056 2.9203e-05
467 26.3948 8.45462 0.997209 0 0 1.00056 2.67325e-05
386 26.4339 7.67785 0.376303 0 0 1.00056 2.45934e-05
465 25.6107 8.58245 0.316008 0 0 1.00056 3.04324e-05
390 28.0218 7.32585 0.523121 0 0 1.00056 1.7251e-05
392 27.1352 7.50379 1.33083 0 0 1.00056 2.17919e-05
471 28.1225 8.16831 1.21151 0 0 1.00056 1.84607e-05
469 27.332 8.16738 0.433796 0 0 1.00056 2.14994e-05
394 29.8535 7.11702 0.508736 0 0 1.00056 1.03216e-05
396 28.9408 7.3677 1.23048 0 0 1.00056 1.4053e-05
474 29.8769 8.58204 0.539019 0 0 1.00056 1.08549e-05
475 29.7882 7.89126 1.27952 0 0 1.00056 1.11322e-05
473 28.9937 7.99479 0.416539 0 0 1.00056 1.41078e-05
400 30.5982 7.22316 1.18054 0 0 1.00056 7.63036e-06
479 31.5197 7.88454 1.29445 0 0 1.00056 4.84976e-06
480 30.705 8.62822 1.18799 0 0 1.00056 7.54073e-06
477 30.9062 7.98805 0.38559 0 0 1.00056 6.70626e-06
478 31.6961 8.66618 0.393695 0 0 1.00056 3.84939e-06
482 1.37101 10.196 0.265638 0 0 1.00056 1.06306e-05
483 1.28892 9.29484 1.19414 0 0 1.00056 1.06928e-05
484 0.511382 9.93565 0.903776 0 0 1.00056 7.05613e-06
481 0.628663 9.32799 0.124676 0 0 1.00056 8.08599e-06
1322 1.07368 10.0662 1.74509 0 0 1.00056 9.58734e-06
485 2.02616 9.31335 0.440125 0 0 1.00056 1.40585e-05
488 2.08326 10.2002 0.970322 0 0 1.00056 1.41255e-05
486 2.85753 10.0502 0.0786594 0 0 1.00056 1.8058e-05
487 2.66201 9.245 1.20783 0 0 1.00056 1.70745e-05
1326 3.04367 9.98112 1.66306 0 0 1.00056 1.9562e-05
489 3.36908 9.11101 0.0914963 0 0 1.00056 2.0299e-05
1329 3.52751 8.97353 1.66301 0 0 1.00056 2.16045e-05
492 3.6672 9.75599 0.741229 0 0 1.00056 2.21904e-05
496 4.92672 9.61935 0.568125 0 0 1.00056 2.94005e-05
1330 4.44564 9.61262 1.58958 0 0 1.00056 2.74381e-05
1409 3.81699 10.4873 1.44205 0 0 1.00056 2.39202e-05
571 4.38764 10.5672 0.533943 0 0 1.00056 2.67613e-05
500 6.6148 9.35359 0.511799 0 0 1.00056 3.80888e-05
1334 5.68953 9.41985 1.1767 0 0 1.00056 3.36341e-05
1417 6.61241 10.0509 1.19287 0 0 1.00056 4.05316e-05
575 5.72952 10.2779 0.444001 0 0 1.00056 3.48614e-05
1413 5.11405 10.4086 1.46318 0 0 1.00056 3.22935e-05
1338 7.58395 9.25971 1.18928 0 0 1.00056 4.41206e-05
1421 8.10847 10.115 1.34032 0 0 1.00056 5.06051e-05
579 7.32287 10.1816 0.466819 0 0 1.00056 4.47715e-05
504 8.416 9.44866 0.572059 0 0 1.00056 4.81004e-05
503 9.43494 8.97474 0.715275 0 0 1.00056 5.09261e-05
1342 9.23159 9.71056 1.39872 0 0 1.00056 5.50012e-05
583 9.216 10.3748 0.673902 0 0 1.00056 5.6456e-05
508 10.141 9.8416 0.667637 0 0 1.00056 5.88397e-05
1345 10.3662 9.10026 1.40943 0 0 1.00056 5.69931e-05
507 11.0236 9.25765 0.664308 0 0 1.00056 5.84458e-05
1346 11.194 9.72122 1.61812 0 0 1.00056 6.49185e-05
512 11.7486 10.1512 0.725557 0 0 1.00056 6.66153e-05
1349 11.9456 9.23338 1.33743 0 0 1.00056 6.27963e-05
511 12.6994 9.4792 0.691473 0 0 1.00056 6.43629e-05
1353 13.2417 9.33217 1.61239 0 0 1.00056 6.8097e-05
1350 12.591 10.1973 1.58454 0 0 1.00056 7.301e-05
510 12.3416 10.3447 0.027914 0 0 1.00056 6.84045e-05
516 13.4179 10.2129 0.949355 0 0 1.00056 7.09414e-05
515 14.1799 9.52592 0.849915 0 0 1.00056 6.57516e-05
1354 14.1605 10.2298 1.69995 0 0 1.00056 7.60508e-05
517 14.9044 10.0147 0.218078 0 0 1.00056 6.90274e-05
1357 14.9939 9.68941 1.7623 0 0 1.00056 7.20188e-05
514 14.0057 10.4716 0.0274229 0 0 1.00056 7.25723e-05
440 15.1189 9.09982 0.779137 0 0 1.00056 6.22026e-05
444 16.5756 9.23397 1.13218 0 0 1.00056 6.33284e-05
519 15.7917 9.87261 1.01939 0 0 1.00056 6.89042e-05
521 16.3216 10.2189 0.235668 0 0 1.00056 6.84643e-05
438 15.9275 9.20958 0.126988 0 0 1.00056 6.11169e-05
523 17.1511 10.1194 0.971967 0 0 1.00056 6.88426e-05
442 17.1474 9.20649 0.264455 0 0 1.00056 6.03449e-05
448 17.7661 9.26329 1.11482 0 0 1.00056 6.16761e-05
525 17.7923 10.2532 0.191272 0 0 1.00056 6.62773e-05
527 18.403 10.1615 1.07773 0 0 1.00056 6.62296e-05
446 18.3993 9.3849 0.120947 0 0 1.00056 5.87855e-05
452 18.9523 9.25386 0.954452 0 0 1.00056 5.97618e-05
529 19.1991 10.1278 0.308746 0 0 1.00056 6.30374e-05
1369 19.2909 9.99941 1.71916 0 0 1.00056 6.73634e-05
450 19.8389 9.37397 0.220471 0 0 1.00056 5.69302e-05
531 20.0743 10.3568 0.882585 0 0 1.00056 6.21813e-05
455 21.233 8.90071 1.04625 0 0 1.00056 5.10901e-05
456 20.4288 9.42314 1.05096 0 0 1.00056 5.68513e-05
533 20.5663 10.2765 0.0673933 0 0 1.00056 5.8841e-05
535 21.4661 10.3592 0.791532 0 0 1.00056 5.69052e-05
1373 20.8104 10.1994 1.68101 0 0 1.00057 6.28882e-05
454 21.3253 9.56965 0.206061 0 0 1.00056 5.24774e-05
457 22.1343 8.83625 0.268683 0 0 1.00056 4.60713e-05