ITEM: TIMESTEP
45000
ITEM: NUMBER OF ATOMS
32000
ITEM: BOX BOUNDS pp pp pp
0.0000000000000000e+00 3.1748021039364001e+01
0.0000000000000000e+00 3.1748021039364001e+01
0.0000000000000000e+00 3.1748021039364001e+01
ITEM: ATOMS id x y z c_phase c_nbond c_rho v_omega
4 0.254578 1.10163 0.462424 0 0 1.00102 7.78818e-07
83 1.19625 1.52783 0.771588 0 0 1.00102 2.69224e-06
842 0.820073 0.693422 1.39378 0 0 1.00101 1.28756e-06
921 0.238852 1.61728 1.37359 0 0 1.00102 1.54303e-06
8 1.81161 0.589608 1.00527 0 0 1.00101 2.13107e-06
85 2.01242 1.22931 0.194263 0 0 1.00101 3.41145e-06
925 2.06017 1.37021 1.72629 0 0 1.00101 3.75851e-06
6 2.59736 0.385479 0.178688 0 0 1.00101 2.64593e-06
87 2.85908 1.1626 0.848935 0 0 1.00101 4.36634e-06
846 2.77216 0.446085 1.71452 0 0 1.00101 2.94108e-06
12 3.53245 0.436854 0.940566 0 0 1.00101 3.71168e-06
929 3.85085 1.19244 1.67599 0 0 1.00101 5.59289e-06
10 4.2125 0.300439 0.290731 0 0 1.00102 3.76297e-06
850 4.42868 0.342851 1.61234 0 0 1.00102 4.47272e-06
91 4.28881 1.25946 0.704882 0 0 1.00102 6.28577e-06
93 5.16696 0.958745 0.358438 0 0 1.00102 6.08154e-06
95 6.07898 0.608788 0.941922 0 0 1.00102 5.57126e-06
933 5.27081 1.01833 1.42806 0 0 1.00102 6.57411e-06
934 6.22317 1.47357 1.47101 0 0 1.00102 8.3761e-06
94 6.06675 1.71428 0.137644 0 0 1.00102 8.92223e-06
97 6.79152 0.6731 0.205507 0 0 1.00102 5.85324e-06
937 6.82914 0.267801 1.67764 0 0 1.00102 4.84157e-06
99 7.565 0.473795 0.939612 0 0 1.00101 5.49646e-06
938 7.69828 1.26815 1.54898 0 0 1.00101 8.54836e-06
100 6.95522 1.42643 0.776557 0 0 1.00102 8.61577e-06
98 7.86963 1.44388 0.119113 0 0 1.00102 8.7895e-06
941 8.38266 0.469855 1.61032 0 0 1.00101 5.89082e-06
101 8.49912 0.637641 0.209822 0 0 1.00102 5.9077e-06
103 9.2533 0.567077 1.06717 0 0 1.00102 5.51205e-06
945 9.7959 0.253396 1.74767 0 0 1.00101 3.88024e-06
105 9.90582 0.633617 0.111629 0 0 1.00101 5.14538e-06
102 9.36244 1.35704 0.22247 0 0 1.00102 8.54706e-06
104 8.55273 1.39065 0.929925 0 0 1.00101 8.88304e-06
942 9.53976 1.41192 1.72072 0 0 1.00102 9.60149e-06
108 10.2355 1.30125 1.06797 0 0 1.00102 8.22056e-06
107 10.5931 0.398507 0.83567 0 0 1.00101 4.0464e-06
949 11.5417 0.416225 1.41018 0 0 1.00101 3.73155e-06
946 11.0045 1.04819 1.72096 0 0 1.00102 7.31975e-06
112 11.6548 1.25666 0.779955 0 0 1.00101 7.81016e-06
106 10.7971 1.42031 0.180501 0 0 1.00101 8.49259e-06
111 12.3037 0.583473 0.519262 0 0 1.00101 3.76631e-06
953 13.0539 0.740948 1.3719 0 0 1.00101 4.02814e-06
950 12.4691 1.41463 1.45072 0 0 1.00102 8.13739e-06
116 13.2636 1.55322 0.611514 0 0 1.00102 8.08674e-06
40 14.4699 0.14117 0.781522 0 0 1.00101 -2.15746e-07
115 13.9041 0.843655 0.820379 0 0 1.00101 3.57001e-06
117 14.5314 1.29793 0.128212 0 0 1.00102 5.37373e-06
874 13.6934 0.0344338 1.62733 0 0 1.00101 -1.14316e-08
957 14.7229 1.01537 1.48157 0 0 1.00101 4.08481e-06
954 13.9892 1.69432 1.45586 0 0 1.00102 8.22067e-06
119 15.3541 1.45941 0.664587 0 0 1.00101 5.64681e-06
44 15.9585 0.767334 0.788834 0 0 1.00101 1.56301e-06
878 15.2724 0.403592 1.63289 0 0 1.00101 -1.43571e-07
961 16.1134 1.51825 1.42362 0 0 1.00102 5.88042e-06
38 15.2911 0.61181 0.0687837 0 0 1.00101 7.40555e-07
882 16.7753 0.858421 1.3555 0 0 1.00101 1.44877e-06
123 17.0404 1.73686 0.700252 0 0 1.00101 6.24825e-06
48 17.5146 0.995387 0.5667 0 0 1.00101 1.92199e-06
886 18.1904 1.13083 1.42563 0 0 1.00101 3.00427e-06
47 18.1765 0.31571 0.694396 0 0 1.00101 -9.48193e-07
885 17.2935 0.0891277 1.40275 0 0 1.00101 -2.30218e-06
51 19.5893 0.54545 0.689091 0 0 1.00101 2.92306e-07
52 19.0414 1.23302 0.701762 0 0 1.00101 3.52815e-06
889 19.0765 0.660858 1.56269 0 0 1.00101 2.29556e-07
890 19.9747 1.56018 1.69893 0 0 1.00102 6.14089e-06
55 21.2909 1.05696 1.08671 0 0 1.00102 3.32849e-06
56 20.5189 1.41606 0.945174 0 0 1.00102 4.77925e-06
54 21.4599 1.50805 0.207049 0 0 1.00102 5.98426e-06
893 20.4624 0.545485 1.41437 0 0 1.00102 1.45432e-06
53 20.3115 0.535625 0.0605752 0 0 1.00102 1.52514e-06
17534 20.964 0.106156 0.257795 0 0 1.00102 -7.37205e-07
57 22.1809 1.07667 0.542299 0 0 1.00102 4.2186e-06
59 23.01 1.23345 1.40527 0 0 1.00102 5.0686e-06
17538 22.7642 0.362003 0.453798 0 0 1.00101 1.16668e-06
17540 21.7669 0.16343 0.861551 0 0 1.00102 3.28719e-07
63 24.4483 1.20279 1.40209 0 0 1.00101 5.47124e-06
61 23.7292 1.15145 0.55326 0 0 1.00101 4.91364e-06
17544 23.5366 0.323396 1.24103 0 0 1.00101 1.94378e-06
17542 24.3467 0.301405 0.582053 0 0 1.00101 2.19251e-06
65 25.1175 1.10096 0.513396 0 0 1.00101 4.97283e-06
67 26.1267 1.10992 1.14854 0 0 1.00101 4.60598e-06
66 26.1389 1.71906 0.409819 0 0 1.00101 6.29202e-06
17548 25.2056 0.540261 1.33891 0 0 1.00101 3.3365e-06
17546 25.9185 0.259683 0.329331 0 0 1.00101 2.48856e-06
71 27.7408 1.09035 0.863599 0 0 1.00102 3.69551e-06
72 26.9767 1.7191 1.2375 0 0 1.00101 5.6155e-06
69 26.8865 0.922738 0.243089 0 0 1.00101 3.85932e-06
17552 27.096 0.319642 0.998375 0 0 1.00101 2.29236e-06
17556 28.3556 0.182438 0.72908 0 0 1.00102 1.32629e-06
913 28.4837 0.861353 1.41465 0 0 1.00101 2.49954e-06
76 28.8607 1.69701 0.723724 0 0 1.00102 3.44806e-06
914 29.5441 1.34878 1.55864 0 0 1.00101 2.33869e-06
917 29.8652 0.478934 1.44799 0 0 1.00101 6.73577e-07
75 29.3483 0.733945 0.613309 0 0 1.00101 1.39719e-06
841 31.6199 0.311666 1.25181 0 0 1.00101 -1.41719e-06
79 30.7877 0.64967 0.475593 0 0 1.00102 -1.81832e-07
80 30.2807 1.45593 0.76288 0 0 1.00102 1.35194e-06
918 31.0041 1.12786 1.37124 0 0 1.00102 2.23697e-07
82 1.44125 2.26212 0.0986111 0 0 1.00101 4.08586e-06
84 0.470982 2.36806 0.794682 0 0 1.00102 2.72657e-06
922 1.46476 2.17729 1.57521 0 0 1.00102 4.2582e-06
1001 0.796934 2.98139 1.5419 0 0 1.00102 3.95354e-06
161 0.751361 3.06212 0.114906 0 0 1.00102 3.83953e-06
163 1.70954 2.99287 0.922591 0 0 1.00101 5.68869e-06
88 2.24505 2.11158 0.771658 0 0 1.00101 5.0788e-06
167 3.11852 2.84824 0.839667 0 0 1.00101 8.01703e-06
926 3.00483 1.83428 1.52565 0 0 1.00101 5.97682e-06
86 3.06169 1.98232 0.0382686 0 0 1.00101 6.13963e-06
1005 2.52655 2.74803 1.72612 0 0 1.00101 6.78174e-06
1009 3.78251 2.85914 1.6281 0 0 1.00101 9.50053e-06
92 3.76162 2.04909 0.772521 0 0 1.00101 7.43074e-06
171 4.69966 2.69619 0.750775 0 0 1.00101 1.00027e-05
930 4.56754 2.02762 1.57281 0 0 1.00102 8.47619e-06
170 4.86995 3.50408 0.127402 0 0 1.00101 1.23738e-05
96 5.3185 1.88325 0.81211 0 0 1.00102 8.84998e-06
175 6.22135 2.43806 0.941578 0 0 1.00101 1.15279e-05
173 5.51415 2.60849 0.0160488 0 0 1.00101 1.10596e-05
174 6.42891 3.12812 0.144421 0 0 1.00101 1.40554e-05
176 5.56834 3.27655 1.10298 0 0 1.00101 1.33145e-05
1017 7.12294 2.2411 1.52544 0 0 1.00101 1.18382e-05
177 7.15418 2.16548 0.103174 0 0 1.00102 1.10857e-05
179 8.00562 2.22707 0.861216 0 0 1.00101 1.21903e-05
180 7.21701 2.95591 0.778562 0 0 1.00101 1.43824e-05
1018 8.20547 2.97869 1.48779 0 0 1.00101 1.57816e-05
1021 8.82964 2.14807 1.61895 0 0 1.00101 1.25526e-05
181 8.89479 2.16599 0.0229427 0 0 1.00102 1.18894e-05
183 9.60258 2.16075 0.924709 0 0 1.00101 1.26312e-05
1022 9.95906 2.91391 1.49078 0 0 1.00101 1.73618e-05
184 9.0264 2.98828 0.689946 0 0 1.00101 1.59028e-05
182 9.86803 3.04959 0.0277321 0 0 1.00101 1.69587e-05
185 10.2653 2.17766 0.192697 0 0 1.00102 1.25487e-05
188 10.7417 2.83256 0.853073 0 0 1.00102 1.62471e-05
187 11.3319 2.11989 0.914046 0 0 1.00102 1.21165e-05
1026 11.6352 2.91339 1.5898 0 0 1.00102 1.70929e-05
186 11.5618 3.11477 0.160765 0 0 1.00102 1.71267e-05
1025 10.7541 1.97883 1.73388 0 0 1.00102 1.21032e-05
1029 12.2452 2.2639 1.61527 0 0 1.00102 1.38538e-05
192 12.3828 3.03892 0.826437 0 0 1.00101 1.77732e-05
191 12.7 2.17531 0.751115 0 0 1.00102 1.30744e-05
196 13.476 3.18687 0.818682 0 0 1.00102 1.84332e-05
1033 13.7582 2.57141 1.69554 0 0 1.00102 1.40457e-05
195 14.1538 2.73412 0.845464 0 0 1.00102 1.50931e-05
120 14.7913 2.21225 0.91447 0 0 1.00102 1.05999e-05
114 14.1012 1.99245 0.0232241 0 0 1.00102 1.04585e-05
194 14.3177 3.40241 0.0417858 0 0 1.00101 1.86698e-05
1037 15.1108 3.14205 1.55103 0 0 1.00102 1.65281e-05
197 15.1001 3.03929 0.0380966 0 0 1.00102 1.51781e-05
199 15.8046 3.33112 0.862329 0 0 1.00102 1.72075e-05
958 15.5854 2.26406 1.46668 0 0 1.00102 1.15101e-05
118 15.6377 2.39484 0.112466 0 0 1.00101 1.09535e-05
124 16.4637 2.48927 0.712238 0 0 1.00101 1.10498e-05
1041 16.4703 3.33464 1.51421 0 0 1.00101 1.71584e-05
962 17.1429 2.65745 1.54633 0 0 1.00101 1.24725e-05
203 17.345 3.39599 0.660359 0 0 1.00101 1.67812e-05
965 17.8017 2.01444 1.56364 0 0 1.00101 7.5622e-06
128 17.8461 2.65295 0.661692 0 0 1.00101 1.16419e-05
1045 18.0829 3.44888 1.49935 0 0 1.00101 1.64772e-05
127 18.4578 2.0029 0.743436 0 0 1.00101 7.58518e-06
969 19.1953 2.02527 1.49482 0 0 1.00101 8.34724e-06
207 18.8636 3.38201 0.718892 0 0 1.00101 1.53961e-05
966 18.8244 2.87322 1.60989 0 0 1.00101 1.31971e-05
131 20.0383 2.16688 0.841102 0 0 1.00101 8.34939e-06
129 19.3835 2.10298 0.0248387 0 0 1.00101 7.77432e-06
132 19.6689 2.9799 1.02459 0 0 1.00101 1.35592e-05
130 20.3393 2.96475 0.112315 0 0 1.00101 1.29127e-05
133 20.8402 2.20794 0.200224 0 0 1.00102 8.96447e-06
135 21.5962 2.37806 0.948255 0 0 1.00102 9.75707e-06
973 20.9114 2.48795 1.74111 0 0 1.00102 1.10747e-05
136 20.9835 3.17049 1.06106 0 0 1.00102 1.42892e-05
58 23.2043 1.88845 0.473781 0 0 1.00102 7.54549e-06
134 21.8973 3.24351 0.464725 0 0 1.00102 1.39834e-05
60 22.506 1.99685 1.32782 0 0 1.00102 8.55802e-06
137 22.4657 2.44663 0.484858 0 0 1.00102 1.0169e-05
140 22.7513 3.38196 1.21398 0 0 1.00102 1.48313e-05
139 23.477 2.94117 1.49647 0 0 1.00102 1.19782e-05
62 24.7445 1.99394 0.717313 0 0 1.00101 7.65853e-06
138 23.6159 3.5325 0.712235 0 0 1.00102 1.40199e-05
64 23.8628 2.07277 1.3647 0 0 1.00101 8.47137e-06
141 24.1618 2.70632 0.612651 0 0 1.00101 1.03283e-05
143 24.9212 2.86035 1.54057 0 0 1.00101 1.09023e-05
68 25.474 1.94677 1.42617 0 0 1.00101 7.47293e-06
147 26.3306 2.53225 1.35126 0 0 1.00101 8.60503e-06
145 25.5657 2.67652 0.534717 0 0 1.00101 9.44491e-06
146 26.3507 3.42869 0.680292 0 0 1.00101 1.09687e-05
148 25.7362 3.4586 1.50834 0 0 1.00101 1.18195e-05
70 27.8452 1.87902 0.373914 0 0 1.00102 5.02019e-06
149 26.9313 2.50375 0.500655 0 0 1.00101 7.48863e-06
152 27.041 3.34549 1.51544 0 0 1.00101 9.85403e-06
151 27.858 2.60546 1.21063 0 0 1.00102 6.43658e-06
150 27.5882 3.37723 0.612377 0 0 1.00101 8.69878e-06
153 28.6244 2.6227 0.335968 0 0 1.00102 5.46572e-06
156 28.7169 3.30023 1.17461 0 0 1.00102 6.72752e-06
993 28.8175 2.2414 1.50107 0 0 1.00102 4.70405e-06
155 29.7444 2.39408 0.866286 0 0 1.00102 3.52529e-06
154 29.6169 3.10491 0.274821 0 0 1.00102 4.7896e-06
997 30.2637 2.10774 1.6876 0 0 1.00102 2.65492e-06
159 31.2056 2.11097 0.910364 0 0 1.00102 1.08849e-06
160 30.5722 2.95405 0.982843 0 0 1.00102 2.71237e-06
239 31.498 3.45278 0.956184 0 0 1.00102 2.0607e-06
998 31.3806 2.81303 1.71606 0 0 1.00102 1.61031e-06
237 30.6023 3.51686 0.150848 0 0 1.00102 3.74655e-06
157 30.684 2.1317 0.030918 0 0 1.00102 1.87274e-06
158 31.5165 2.75545 0.0674816 0 0 1.00102 1.217e-06
164 0.79735 3.72598 0.89865 0 0 1.00101 4.65402e-06
241 0.730036 4.57871 0.446827 0 0 1.00101 5.18673e-06
162 1.56185 3.67901 0.061935 0 0 1.00101 5.94725e-06
244 0.756037 5.22084 1.26336 0 0 1.00101 6.12124e-06
1081 1.05026 4.30319 1.75428 0 0 1.00102 5.83558e-06
243 1.7237 4.42258 0.963866 0 0 1.00101 7.60443e-06
168 2.40984 3.70837 0.844017 0 0 1.00101 7.9674e-06
247 3.1936 4.39468 1.09891 0 0 1.00101 1.11005e-05
166 3.23431 3.68606 0.174563 0 0 1.00101 9.7615e-06
245 2.52283 4.58539 0.265783 0 0 1.00101 9.39226e-06
248 2.25108 5.18182 1.33973 0 0 1.00101 1.00669e-05
1006 3.06475 3.67319 1.75412 0 0 1.00101 9.7882e-06
246 3.40422 5.07476 0.25936 0 0 1.00101 1.23422e-05
249 4.09878 4.25764 0.164462 0 0 1.00101 1.27693e-05
172 4.05859 3.51403 0.871094 0 0 1.00101 1.07729e-05
251 4.80296 4.17759 1.13897 0 0 1.00101 1.44163e-05
250 4.99352 4.73717 0.295918 0 0 1.00101 1.59166e-05
252 3.90722 5.02224 1.24705 0 0 1.00101 1.42838e-05
253 5.75457 3.96176 0.301342 0 0 1.00101 1.54747e-05
255 6.52676 3.85305 1.00108 0 0 1.00101 1.67046e-05
254 6.64399 4.52681 0.23533 0 0 1.00101 1.89416e-05
256 5.79877 4.62103 1.23658 0 0 1.00101 1.78273e-05
335 6.65472 5.24784 0.935261 0 0 1.00101 2.21497e-05
1097 7.50131 3.62344 1.62549 0 0 1.00101 1.79132e-05
260 7.55982 4.25412 0.83418 0 0 1.00101 1.97612e-05
259 8.27284 3.56308 0.569127 0 0 1.00101 1.82129e-05
258 8.31494 4.40491 0.00631167 0 0 1.00101 2.16713e-05
1177 7.52698 4.99062 1.58702 0 0 1.00101 2.36248e-05
337 7.41943 5.12551 0.112678 0 0 1.00101 2.27399e-05
339 8.42112 5.11929 0.747104 0 0 1.00101 2.53091e-05
1098 8.43449 4.38771 1.46602 0 0 1.00101 2.23849e-05
1101 9.18317 3.6711 1.44669 0 0 1.00101 1.98136e-05
264 9.27308 4.37574 0.689317 0 0 1.00101 2.31353e-05
1181 9.43317 5.07743 1.47976 0 0 1.00101 2.78848e-05
263 10.0943 3.70295 0.784574 0 0 1.00101 2.05142e-05
262 10.1898 4.55547 0.00150494 0 0 1.00101 2.5106e-05
1102 10.2319 4.39115 1.55912 0 0 1.00101 2.49766e-05
268 10.9906 4.47926 0.787698 0 0 1.00101 2.57577e-05
265 10.8933 3.74482 0.0879845 0 0 1.00102 2.13168e-05
1105 10.9344 3.55252 1.63214 0 0 1.00101 2.06205e-05
343 10.1739 5.19679 0.7454 0 0 1.00101 2.8765e-05
1185 11.1687 5.22888 1.4838 0 0 1.00101 3.11703e-05
267 11.735 3.85963 0.875145 0 0 1.00101 2.19629e-05
266 11.8016 4.73853 0.0147366 0 0 1.00101 2.67468e-05
1106 11.8351 4.45798 1.72528 0 0 1.00101 2.64188e-05
269 12.5512 4.088 0.200958 0 0 1.00101 2.30482e-05
1109 12.5474 3.76569 1.67002 0 0 1.00101 2.30179e-05
272 12.7327 4.63051 0.999278 0 0 1.00101 2.7238e-05
347 11.9943 5.23685 0.874706 0 0 1.00101 3.04722e-05
270 13.4041 5.00074 0.186399 0 0 1.00101 2.78893e-05
271 13.4795 4.05704 1.03637 0 0 1.00101 2.4559e-05
273 13.8209 4.15255 0.04707 0 0 1.00101 2.29633e-05
1113 14.2108 4.52068 1.70869 0 0 1.00102 2.71221e-05
275 14.5273 4.41235 0.754102 0 0 1.00102 2.5853e-05
1034 14.7676 3.88529 1.58548 0 0 1.00102 2.2398e-05
200 15.2399 3.9409 0.691151 0 0 1.00102 2.21341e-05
277 15.5005 4.69356 0.08438 0 0 1.00102 2.55797e-05
1117 15.6548 4.91099 1.49259 0 0 1.00102 2.89805e-05
279 16.4384 5.05833 0.832595 0 0 1.00102 2.85417e-05
198 16.1921 4.14527 0.103834 0 0 1.00102 2.11202e-05
1038 16.3491 4.37246 1.60336 0 0 1.00102 2.35224e-05
204 16.9137 4.17455 0.880236 0 0 1.00101 2.17913e-05
281 17.2113 4.95302 0.130095 0 0 1.00101 2.55917e-05
1121 17.3574 5.22184 1.66744 0 0 1.00102 2.96645e-05
1042 17.6283 4.23424 1.65769 0 0 1.00101 2.32096e-05
283 17.9276 4.97336 0.894506 0 0 1.00101 2.62803e-05
208 18.4433 4.23465 0.786592 0 0 1.00101 2.08967e-05
209 19.8025 3.63229 0.200891 0 0 1.00101 1.70522e-05
285 18.7198 5.09525 0.0460496 0 0 1.00101 2.609e-05
1046 19.0684 4.19321 1.62754 0 0 1.00101 2.14168e-05
287 19.3671 5.11655 1.07899 0 0 1.00101 2.69385e-05
206 19.2746 4.39767 0.0786517 0 0 1.00101 2.08756e-05
212 19.9289 4.37089 0.963005 0 0 1.00101 2.11788e-05
213 21.2833 3.83241 0.309914 0 0 1.00102 1.78237e-05
210 20.6585 4.52884 0.260828 0 0 1.00101 2.1606e-05
211 20.6944 3.97663 1.27163 0 0 1.00102 1.90911e-05
216 21.4611 4.68093 1.18505 0 0 1.00101 2.18753e-05
214 22.1528 4.91287 0.504529 0 0 1.00101 2.2321e-05
215 22.2286 4.17815 1.39308 0 0 1.00102 1.81895e-05
217 22.8404 4.15661 0.598727 0 0 1.00102 1.8381e-05
220 22.9525 5.13859 1.29331 0 0 1.00101 2.29331e-05
142 24.9623 3.58152 0.749204 0 0 1.00101 1.30829e-05
16179 23.5583 4.36051 0.0209411 0 0 1.00102 1.76886e-05
144 24.3897 3.81099 1.51744 0 0 1.00101 1.49434e-05
219 23.7161 4.57569 1.38469 0 0 1.00101 1.86904e-05
221 24.4272 4.58731 0.748935 0 0 1.00101 1.7532e-05
223 25.2484 4.49834 1.54206 0 0 1.00101 1.63791e-05
227 26.4211 4.36761 1.51194 0 0 1.00101 1.36739e-05
225 25.8033 4.52041 0.728836 0 0 1.00101 1.4787e-05
229 26.8639 4.31404 0.590447 0 0 1.00101 1.23829e-05
232 27.1351 5.12527 1.36348 0 0 1.00101 1.3981e-05
231 27.8177 4.05063 1.39598 0 0 1.00101 9.94391e-06
230 27.7692 4.78741 0.5751 0 0 1.00101 1.19001e-05
233 28.5335 3.82628 0.332964 0 0 1.00102 8.02409e-06
236 28.6229 4.59892 1.1159 0 0 1.00102 9.5847e-06
235 29.7533 3.67017 1.17367 0 0 1.00102 5.5207e-06
234 29.514 4.2481 0.45353 0 0 1.00102 6.63478e-06
315 29.7397 4.97441 1.29181 0 0 1.00102 7.24729e-06
240 30.5594 4.33995 1.02349 0 0 1.00102 4.68099e-06
238 31.5596 4.10925 0.338539 0 0 1.00102 2.2812e-06
317 30.8187 4.94948 0.460908 0 0 1.00102 4.11481e-06
319 31.5895 4.72178 1.36086 0 0 1.00102 2.59377e-06
242 1.59754 5.32487 0.444115 0 0 1.00101 7.93794e-06
323 1.53762 5.99548 1.26785 0 0 1.00101 8.65152e-06
324 1.01689 6.84586 1.45581 0 0 1.00101 7.54964e-06
321 0.721491 5.98584 0.445211 0 0 1.00101 6.20231e-06
398 0.211889 7.01824 0.59391 0 0 1.00101 4.93419e-06
399 0.176004 6.24038 1.36432 0 0 1.00101 4.59214e-06
322 1.7314 6.68681 0.551074 0 0 1.00101 9.4955e-06
328 2.48936 6.61339 1.22869 0 0 1.00101 1.20497e-05
325 2.62275 5.79159 0.470084 0 0 1.00101 1.14253e-05
327 3.08754 5.67884 1.34845 0 0 1.00101 1.31023e-05
326 3.29701 6.56878 0.44982 0 0 1.00101 1.47438e-05
332 4.0805 6.29493 1.12822 0 0 1.00102 1.68345e-05
329 4.23135 5.59857 0.443714 0 0 1.00101 1.5806e-05
331 4.97348 5.31927 1.18847 0 0 1.00101 1.7675e-05
330 4.91912 6.21845 0.212525 0 0 1.00102 1.94128e-05
411 4.95018 6.76872 1.15387 0 0 1.00102 2.08113e-05
409 4.14157 7.02068 0.317055 0 0 1.00102 1.82688e-05
336 5.75228 5.91466 1.12736 0 0 1.00102 2.18201e-05
333 5.7539 5.39251 0.280838 0 0 1.00101 1.97275e-05
334 6.58221 6.04088 0.131304 0 0 1.00101 2.43601e-05
415 6.56153 6.55066 0.962138 0 0 1.00102 2.58536e-05
413 5.7071 6.73649 0.203712 0 0 1.00102 2.2948e-05
340 7.55736 5.7959 0.90209 0 0 1.00101 2.65306e-05
417 7.66581 6.49475 0.106408 0 0 1.00101 2.94238e-05
420 7.62074 6.98732 1.04163 0 0 1.00102 3.11185e-05
1178 8.50358 5.72028 1.56792 0 0 1.00101 2.94041e-05
419 8.5635 6.56494 0.696203 0 0 1.00101 3.2532e-05
344 9.28615 5.76934 0.670624 0 0 1.00101 3.01313e-05
1261 9.46451 6.30762 1.51948 0 0 1.00101 3.48887e-05
1258 8.58377 6.89224 1.64756 0 0 1.00101 3.48002e-05
423 10.3498 6.54038 0.656327 0 0 1.00101 3.65352e-05
1182 10.472 5.8964 1.44467 0 0 1.00101 3.42565e-05
345 11.0966 5.35373 0.0578143 0 0 1.00101 3.03768e-05
348 11.2804 6.1617 0.712162 0 0 1.00101 3.59572e-05
1265 11.2946 6.76194 1.56145 0 0 1.001 4.12454e-05
346 12.0355 6.1171 0.0819716 0 0 1.00101 3.65288e-05
1186 12.0578 6.04016 1.47206 0 0 1.00101 3.7458e-05
349 12.8057 5.64647 0.0200401 0 0 1.00101 3.28868e-05
352 12.9287 6.3728 0.781748 0 0 1.00101 3.94781e-05
351 13.3279 5.5933 1.04608 0 0 1.00101 3.40641e-05
427 12.1794 6.97206 0.799711 0 0 1.00101 4.25082e-05
1269 13.1087 7.00058 1.53643 0 0 1.00101 4.61265e-05
1190 13.8809 6.53054 1.3475 0 0 1.00102 4.1248e-05
276 14.2242 5.35516 0.860594 0 0 1.00101 3.1736e-05
1114 14.9732 5.54721 1.58226 0 0 1.00101 3.4332e-05
355 15.0413 6.21207 0.787377 0 0 1.00102 3.76961e-05
356 14.4635 6.83089 0.579576 0 0 1.00101 4.22614e-05
1194 15.3553 7.00047 1.40573 0 0 1.00102 4.4004e-05
280 15.6652 5.55036 0.754582 0 0 1.00102 3.31372e-05
357 15.7989 6.24126 0.0141481 0 0 1.00102 3.67636e-05
1197 16.0841 6.46148 1.45094 0 0 1.00102 4.08069e-05
278 16.5237 5.63418 0.0308872 0 0 1.00102 3.1165e-05
359 16.7581 6.551 0.796964 0 0 1.00102 3.92731e-05
1118 16.8017 5.93008 1.68718 0 0 1.00102 3.60468e-05
361 17.345 6.54951 0.0385318 0 0 1.00102 3.73836e-05
284 17.453 5.95391 0.949546 0 0 1.00102 3.35657e-05
363 18.1769 6.88778 1.13544 0 0 1.00102 3.91777e-05
282 18.0978 5.83442 0.23692 0 0 1.00101 3.12195e-05
288 18.6383 5.91483 1.20948 0 0 1.00101 3.26153e-05
365 18.7495 6.79962 0.361595 0 0 1.00101 3.82737e-05
367 19.3047 6.90667 1.30295 0 0 1.00101 3.95262e-05
286 19.3264 5.96839 0.466442 0 0 1.00101 3.21623e-05
369 19.9712 7.03756 0.594849 0 0 1.00101 3.85314e-05
289 20.1132 5.35091 0.3536 0 0 1.00101 2.72363e-05
292 20.1834 6.07542 1.18312 0 0 1.00101 3.26789e-05
291 20.9115 5.49582 1.12561 0 0 1.00101 2.70643e-05
293 21.4103 5.6979 0.362134 0 0 1.00101 2.73155e-05
290 20.9021 6.6356 0.621384 0 0 1.00101 3.41842e-05
296 21.5649 6.62979 1.3695 0 0 1.00101 3.3717e-05
295 22.0793 5.72572 1.32911 0 0 1.00101 2.77562e-05
294 22.1321 6.83531 0.632235 0 0 1.00101 3.25697e-05
297 22.821 6.02871 0.758333 0 0 1.00101 2.72304e-05
300 22.9709 7.01406 1.3379 0 0 1.00101 3.23982e-05
16260 22.9892 6.86645 0.0374421 0 0 1.00101 3.06515e-05
218 23.6525 5.36385 0.5485 0 0 1.00101 2.20192e-05
299 23.6848 6.27779 1.28538 0 0 1.00101 2.71033e-05
224 24.4843 5.56207 1.32853 0 0 1.00101 2.1849e-05
298 23.8498 7.01743 0.626005 0 0 1.00101 2.88059e-05
301 24.5629 6.17898 0.538833 0 0 1.00101 2.33961e-05
226 26.3712 5.32403 0.432152 0 0 1.00101 1.60197e-05
222 25.2284 5.34868 0.629452 0 0 1.00101 1.89981e-05
228 25.9198 5.44367 1.53987 0 0 1.00101 1.80309e-05
303 25.3784 6.38284 1.43864 0 0 1.00101 2.24349e-05
305 25.8295 6.25611 0.561485 0 0 1.00101 2.03916e-05
307 26.6297 6.12781 1.35435 0 0 1.00101 1.82245e-05
306 26.6758 6.86865 0.681031 0 0 1.00101 1.93743e-05
311 28.1197 5.63035 1.39167 0 0 1.00102 1.26132e-05
309 27.3533 5.83138 0.633172 0 0 1.00101 1.50754e-05
312 27.5826 6.76225 1.45755 0 0 1.00101 1.63837e-05
310 28.3294 6.30706 0.693016 0 0 1.00101 1.27663e-05
313 28.9716 5.34235 0.677261 0 0 1.00102 9.39811e-06
316 29.1658 6.15499 1.4402 0 0 1.00102 1.04862e-05
393 29.2957 6.85609 0.653396 0 0 1.00101 1.07166e-05
16276 29.2245 5.99936 0.0207768 0 0 1.00101 9.55902e-06
314 30.0914 5.74434 0.798406 0 0 1.00102 6.96216e-06
16355 30.1422 6.59151 0.0633952 0 0 1.00101 7.85659e-06
395 30.2041 6.65339 1.30135 0 0 1.00102 7.5363e-06
318 31.6479 5.49608 0.573103 0 0 1.00101 3.25554e-06
320 30.9172 5.72586 1.41995 0 0 1.00102 4.84395e-06
397 31.1132 6.44105 0.615015 0 0 1.00101 4.80376e-06
401 1.04774 7.55461 0.617852 0 0 1.00101 7.25471e-06
402 1.67009 8.24 0.563163 0 0 1.00101 9.85831e-06
404 1.13062 8.41819 1.43474 0 0 1.00101 7.88659e-06
478 0.458465 8.64362 0.39632 0 0 1.00102 5.17744e-06
479 0.273707 7.8977 1.26844 0 0 1.00101 4.98694e-06
403 1.8941 7.53525 1.44434 0 0 1.00101 1.0717e-05
405 2.40765 7.37744 0.386365 0 0 1.00101 1.19461e-05
408 2.57418 8.13816 1.43783 0 0 1.00102 1.40331e-05
406 3.07626 8.0532 0.381204 0 0 1.00101 1.57796e-05
407 3.26337 7.23966 1.26155 0 0 1.00102 1.56269e-05
487 3.2242 8.78108 1.16763 0 0 1.00101 1.68333e-05
412 3.95715 7.78055 0.917752 0 0 1.00102 1.95342e-05
410 4.7844 7.59741 0.0370135 0 0 1.00102 2.17942e-05
491 4.89131 8.16205 0.828825 0 0 1.00102 2.38765e-05
1250 4.81154 7.47823 1.73634 0 0 1.00102 2.34817e-05
1329 4.14787 8.40618 1.66085 0 0 1.00102 2.16853e-05
489 3.94689 8.55918 0.0935518 0 0 1.00102 1.97557e-05
1333 5.75189 7.96846 1.59879 0 0 1.00102 2.88626e-05
416 5.73209 7.28665 0.943917 0 0 1.00102 2.54332e-05
495 6.3978 7.85786 0.592338 0 0 1.00102 2.95781e-05
1334 6.42224 8.62733 1.1715 0 0 1.00102 3.28802e-05
414 6.99155 7.24017 0.206334 0 0 1.00101 2.92582e-05
1337 7.33623 7.82218 1.20459 0 0 1.00102 3.49541e-05
500 7.34771 8.53084 0.492603 0 0 1.00102 3.59515e-05
499 8.40578 7.61497 0.718929 0 0 1.00102 3.60916e-05
1338 8.38482 8.40327 1.16686 0 0 1.00101 4.12205e-05
424 9.60789 7.11432 0.840545 0 0 1.00101 3.79324e-05
501 9.4565 7.79194 0.0464431 0 0 1.00101 4.03529e-05
1341 9.40974 7.85565 1.36141 0 0 1.00101 4.26588e-05
504 9.31345 8.59497 0.556298 0 0 1.00101 4.49185e-05
503 10.389 8.14547 0.674291 0 0 1.00101 4.60462e-05
1262 10.546 7.39482 1.38587 0 0 1.00101 4.34084e-05
428 11.3004 7.50865 0.68635 0 0 1.001 4.46988e-05
1345 11.3996 8.30081 1.37415 0 0 1.00101 5.09957e-05
1342 10.2023 8.78585 1.36409 0 0 1.00101 5.03585e-05
507 12.0922 8.57971 0.655752 0 0 1.00101 5.26723e-05
1266 12.2859 7.72393 1.42043 0 0 1.001 4.97304e-05
429 12.8752 7.25106 0.0113147 0 0 1.00101 4.44297e-05
432 13.022 7.95036 0.70527 0 0 1.00101 4.9998e-05
1349 13.1409 8.65933 1.38146 0 0 1.00101 5.69882e-05
1270 13.8782 7.97031 1.49614 0 0 1.00101 5.27509e-05
431 13.8989 7.54663 0.588214 0 0 1.00101 4.64764e-05
1273 14.6954 7.50958 1.4743 0 0 1.00102 5.10437e-05
436 14.751 8.44399 0.770907 0 0 1.00101 5.45621e-05
435 15.4343 7.83843 0.549986 0 0 1.00102 4.88861e-05
1274 15.5869 8.61327 1.57794 0 0 1.00102 5.96358e-05
360 16.1042 7.2286 0.655018 0 0 1.00102 4.43647e-05
1277 16.1898 8.00071 1.39128 0 0 1.00103 5.19199e-05
437 16.3166 8.32268 0.0426134 0 0 1.00102 5.12491e-05
439 16.9966 8.37841 0.89446 0 0 1.00102 5.24333e-05
1198 17.0538 7.68421 1.68866 0 0 1.00103 4.95672e-05
364 17.4103 7.49203 0.844482 0 0 1.00102 4.40807e-05
441 17.6512 8.58312 0.139117 0 0 1.00102 5.10111e-05
443 18.1365 8.57945 1.0693 0 0 1.00102 5.21854e-05
362 18.2141 7.64273 0.295894 0 0 1.00101 4.4196e-05
368 18.8303 7.90054 1.07205 0 0 1.00101 4.5955e-05
445 18.8441 8.75352 0.27305 0 0 1.00101 5.20168e-05
366 19.5598 7.956 0.212373 0 0 1.00101 4.46387e-05
372 20.004 7.91891 1.15078 0 0 1.00101 4.63803e-05
370 20.6718 8.33177 0.609091 0 0 1.00101 4.46701e-05
371 20.8998 7.55469 1.34646 0 0 1.00101 4.11366e-05
373 21.5169 7.79531 0.589707 0 0 1.00101 3.91818e-05
376 21.5181 8.80645 1.30641 0 0 1.00101 4.59138e-05
374 22.2179 8.68085 0.583111 0 0 1.00101 4.25661e-05
375 22.2468 7.79641 1.29626 0 0 1.00101 3.89352e-05
377 23.0162 7.91033 0.6612 0 0 1.00101 3.61562e-05
304 24.6406 7.09337 1.267 0 0 1.00101 2.74116e-05
378 23.7186 8.78384 0.39437 0 0 1.00101 3.66757e-05
379 23.918 7.95688 1.19794 0 0 1.00101 3.37252e-05
381 24.5705 7.99269 0.303585 0 0 1.00101 3.05559e-05
384 24.6844 8.68105 1.08053 0 0 1.00101 3.29362e-05
302 25.2532 7.12705 0.444639 0 0 1.00101 2.50622e-05
308 26.1535 7.12303 1.60008 0 0 1.00101 2.26163e-05
383 25.4531 7.80462 1.18759 0 0 1.00101 2.69657e-05
382 25.4576 8.58618 0.308148 0 0 1.00101 2.87462e-05
385 26.1937 7.8157 0.493066 0 0 1.00101 2.34404e-05
388 26.2214 8.61025 1.22617 0 0 1.00101 2.59658e-05
387 26.888 7.69715 1.40762 0 0 1.00101 2.11831e-05
389 27.6713 7.28453 0.622399 0 0 1.00101 1.6629e-05
386 27.0647 8.34131 0.388405 0 0 1.00101 2.15851e-05
392 27.772 8.12714 1.30441 0 0 1.00101 1.82988e-05
469 27.9398 8.78283 0.428379 0 0 1.00101 1.8196e-05
391 28.5418 7.23671 1.37351 0 0 1.00101 1.35948e-05
390 28.5947 7.8128 0.511785 0 0 1.00101 1.40235e-05
471 28.7084 8.68023 1.20875 0 0 1.00101 1.51848e-05
396 29.4742 7.73724 1.23713 0 0 1.00101 1.09829e-05
473 29.5337 8.39139 0.417278 0 0 1.00101 1.10219e-05
475 30.3274 8.1718 1.27629 0 0 1.00101 7.92275e-06
394 30.3625 7.4042 0.497438 0 0 1.00101 7.57288e-06
400 31.0966 7.35287 1.17759 0 0 1.00101 4.87071e-06
480 31.2063 8.76991 1.19146 0 0 1.00101 4.91895e-06
477 31.3975 8.08971 0.387136 0 0 1.00101 4.19019e-06
484 0.989464 9.84193 0.912827 0 0 1.00101 6.92037e-06
481 1.10663 9.2155 0.119242 0 0 1.00101 7.31102e-06
1322 1.58342 9.84766 1.7219 0 0 1.00101 9.92426e-06
559 0.257079 9.36424 1.13048 0 0 1.00101 4.27729e-06
558 0.204646 10.0635 0.0597285 0 0 1.00101 3.35422e-06
483 1.80165 9.05491 1.16516 0 0 1.00101 1.07089e-05
482 1.84477 9.92778 0.241197 0 0 1.00101 1.05703e-05
485 2.54045 8.96282 0.406022 0 0 1.00101 1.35573e-05
488 2.58192 9.79538 0.975567 0 0 1.00102 1.40448e-05
567 3.31476 10.2597 0.713466 0 0 1.00102 1.77036e-05
1405 2.40884 10.4859 1.56653 0 0 1.00101 1.4151e-05
486 3.37358 9.54785 0.0834434 0 0 1.00102 1.75353e-05
1326 3.56678 9.43898 1.65226 0 0 1.00102 1.93763e-05
492 4.22692 9.16961 0.740995 0 0 1.00102 2.15406e-05
1409 4.34968 9.85907 1.41946 0 0 1.00102 2.32734e-05
571 4.92386 9.86324 0.490176 0 0 1.00102 2.57371e-05
1410 4.99945 10.5043 1.32135 0 0 1.00102 2.76342e-05
1330 5.08396 8.90207 1.54786 0 0 1.00101 2.66878e-05
496 5.55706 8.91726 0.577174 0 0 1.00102 2.81599e-05
575 6.41127 9.45677 0.446243 0 0 1.00101 3.38238e-05
1413 5.73869 9.59773 1.42902 0 0 1.00102 3.14711e-05
1414 6.50439 10.0708 1.18976 0 0 1.00102 3.57073e-05
576 5.62048 10.4444 0.371258 0 0 1.00102 3.09273e-05
1417 7.38176 9.18991 1.19465 0 0 1.00101 3.9063e-05
579 8.1364 9.24648 0.456589 0 0 1.00101 4.2266e-05
580 7.21507 10.0492 0.364188 0 0 1.00101 3.94128e-05
1418 8.17547 10.0105 1.10497 0 0 1.00101 4.64295e-05
1421 9.03624 9.19193 1.30431 0 0 1.00101 4.76654e-05
584 9.12669 9.94634 0.652384 0 0 1.00101 4.93773e-05
1422 10.09 10.1881 1.35324 0 0 1.00101 5.77303e-05
583 10.1301 9.49649 0.649067 0 0 1.00101 5.22369e-05
508 11.1196 9.0257 0.65275 0 0 1.00101 5.31619e-05
1425 11.1351 9.68353 1.37394 0 0 1.00101 6.00819e-05
588 10.8112 10.4162 0.54147 0 0 1.00101 5.95851e-05
587 11.8347 9.86737 0.653648 0 0 1.00101 6.00903e-05
1346 12.2712 8.99929 1.57766 0 0 1.00101 5.82844e-05
512 12.8053 9.4719 0.711117 0 0 1.00101 5.97616e-05
1429 12.8327 10.0992 1.4959 0 0 1.00101 6.66517e-05
589 12.5472 10.3843 0.184535 0 0 1.00101 6.34459e-05
1426 11.9001 10.4868 1.47698 0 0 1.00101 6.74655e-05
510 13.44 9.7933 0.0363722 0 0 1.00101 6.15228e-05
1350 13.7498 9.64255 1.58285 0 0 1.00101 6.55684e-05
511 13.821 8.99511 0.686603 0 0 1.00101 5.77234e-05
1353 14.5225 8.9746 1.61496 0 0 1.00101 6.22853e-05
516 14.5238 9.88719 0.938688 0 0 1.00101 6.39813e-05
591 13.6018 10.4904 0.97884 0 0 1.00101 6.75377e-05
514 15.1026 10.2111 0.0474299 0 0 1.00101 6.50287e-05
515 15.3527 9.34902 0.866406 0 0 1.00101 6.10719e-05
1354 15.3602 10.0673 1.69309 0 0 1.00101 6.97825e-05
517 16.047 9.90768 0.210659 0 0 1.00101 6.19837e-05
440 16.2982 9.06262 0.824817 0 0 1.00102 5.7704e-05
520 15.9832 10.554 1.02962 0 0 1.00101 6.71435e-05
519 16.9303 10.0163 1.02254 0 0 1.00101 6.47746e-05
438 17.018 9.33044 0.136025 0 0 1.00102 5.64506e-05
521 17.4277 10.4088 0.217996 0 0 1.00101 6.35036e-05
444 17.7507 9.50636 1.13502 0 0 1.00102 5.97131e-05
523 18.2417 10.5238 0.967704 0 0 1.00101 6.53348e-05
442 18.2369 9.59492 0.255507 0 0 1.00101 5.78859e-05
447 19.5003 8.85978 1.01542 0 0 1.00101 5.09693e-05
448 18.9019 9.7197 1.05689 0 0 1.00101 5.83476e-05
446 19.4645 9.9744 0.107532 0 0 1.00101 5.63874e-05
452 20.0439 9.98035 0.955615 0 0 1.00101 5.82049e-05
449 20.1435 9.16625 0.229366 0 0 1.00101 4.96337e-05
451 20.67 9.25267 1.1802 0 0 1.00101 5.20976e-05
453 21.4024 9.31949 0.38329 0 0 1.001 4.91118e-05
450 20.8388 10.1571 0.229465 0 0 1.001 5.48789e-05
456 21.4237 10.3006 1.02288 0 0 1.00101 5.41141e-05
380 23.0061 9.0004 1.12805 0 0 1.001 4.17922e-05
455 22.2099 9.75545 1.06061 0 0 1.00101 4.8492e-05
454 22.209 10.4595 0.227541 0 0 1.00101 4.95594e-05