ITEM: TIMESTEP
23000
ITEM: NUMBER OF ATOMS
32000
ITEM: BOX BOUNDS pp pp pp
0.0000000000000000e+00 3.1748021039364001e+01
0.0000000000000000e+00 3.1748021039364001e+01
0.0000000000000000e+00 3.1748021039364001e+01
ITEM: ATOMS id x y z c_phase c_nbond c_rho v_omega
4 0.196785 1.11476 0.467749 0 0 1.00071 1.19586e-06
83 1.09473 1.61441 0.779764 0 0 1.00071 3.23687e-06
842 0.777925 0.759058 1.40658 0 0 1.00071 1.87403e-06
921 0.128088 1.624 1.37793 0 0 1.00072 1.7074e-06
3 0.738254 0.0347245 0.618279 0 0 1.00071 9.62762e-07
8 1.77381 0.715562 1.0128 0 0 1.00071 3.04024e-06
85 1.91838 1.37163 0.212778 0 0 1.00071 4.2695e-06
925 1.95639 1.53708 1.74781 0 0 1.00071 4.53487e-06
6 2.57622 0.585523 0.198034 0 0 1.00071 3.9834e-06
87 2.76675 1.37064 0.870364 0 0 1.00071 5.51223e-06
846 2.73914 0.649107 1.73245 0 0 1.00071 4.15509e-06
12 3.50166 0.705815 0.954937 0 0 1.00071 5.36996e-06
929 3.74507 1.46916 1.70424 0 0 1.00071 7.05599e-06
10 4.18188 0.600643 0.312605 0 0 1.00072 5.67588e-06
850 4.40748 0.666974 1.62771 0 0 1.00072 6.42192e-06
91 4.16367 1.57437 0.711541 0 0 1.00072 8.00793e-06
16 5.02613 0.269685 1.14571 0 0 1.00072 5.63401e-06
93 5.06147 1.29986 0.379162 0 0 1.00072 8.29779e-06
14 5.71066 0.324838 0.308657 0 0 1.00072 6.37912e-06
95 6.00477 0.981773 0.946995 0 0 1.00072 8.19368e-06
854 5.83467 0.130387 1.69464 0 0 1.00072 5.82222e-06
933 5.17194 1.39284 1.43488 0 0 1.00072 8.92585e-06
97 6.70671 1.05156 0.215927 0 0 1.00072 8.63252e-06
20 6.74605 0.0532908 0.865337 0 0 1.00072 5.88868e-06
937 6.7873 0.656988 1.69114 0 0 1.00072 7.68633e-06
24 8.2975 0.0493745 1.05574 0 0 1.00071 6.01122e-06
99 7.49017 0.866728 0.947247 0 0 1.00071 8.53263e-06
941 8.28016 0.893223 1.61417 0 0 1.00071 9.38594e-06
18 7.64561 0.299222 0.151415 0 0 1.00072 6.69081e-06
938 7.52008 1.68387 1.56418 0 0 1.00071 1.16992e-05
101 8.39414 1.02899 0.229261 0 0 1.00071 9.30119e-06
22 8.90566 0.148471 0.254699 0 0 1.00071 6.11696e-06
24446 11.2313 14.3955 15.6999 4 11 1.00074 0.002
103 9.16137 0.951427 1.09168 0 0 1.00072 9.13278e-06
945 9.71083 0.624425 1.76029 0 0 1.00072 7.4106e-06
105 9.79265 1.01668 0.105186 0 0 1.00071 8.99776e-06
108 10.0247 1.67167 1.09159 0 0 1.00072 1.20304e-05
102 9.15368 1.73555 0.245121 0 0 1.00071 1.22537e-05
107 10.4975 0.735503 0.831035 0 0 1.00071 7.75265e-06
949 11.4336 0.726667 1.41785 0 0 1.00071 7.3914e-06
946 10.8017 1.36973 1.72379 0 0 1.00072 1.093e-05
26 10.2811 0.0430844 0.0800174 0 0 1.00071 4.87862e-06
112 11.4143 1.54873 0.777488 0 0 1.00071 1.14642e-05
36 12.9078 0.0283224 0.639116 0 0 1.00072 3.08626e-06
111 12.1834 0.836837 0.516611 0 0 1.00071 7.40589e-06
870 12.1669 0.0714632 1.30626 0 0 1.00071 3.9776e-06
953 12.8991 0.984495 1.37528 0 0 1.00071 7.94059e-06
950 12.2095 1.67021 1.4642 0 0 1.00072 1.19123e-05
116 12.9653 1.74345 0.607211 0 0 1.00072 1.18492e-05
40 14.4262 0.241184 0.779827 0 0 1.00071 3.37218e-06
115 13.7543 0.977305 0.840818 0 0 1.00071 7.36399e-06
117 14.29 1.43898 0.154317 0 0 1.00071 9.74734e-06
874 13.6637 0.211593 1.63618 0 0 1.00071 3.48661e-06
957 14.5557 1.08139 1.48213 0 0 1.00071 7.57373e-06
119 15.1186 1.51189 0.669053 0 0 1.00071 9.63948e-06
44 15.8357 0.779999 0.790972 0 0 1.00071 5.75158e-06
878 15.2167 0.439241 1.63973 0 0 1.00071 3.80513e-06
882 16.6623 0.796151 1.34896 0 0 1.00071 5.74111e-06
961 15.8701 1.51154 1.40507 0 0 1.00071 1.00249e-05
38 15.2069 0.67707 0.0724611 0 0 1.00071 5.01121e-06
123 16.7905 1.64096 0.690577 0 0 1.00071 1.04553e-05
48 17.3826 0.869886 0.562397 0 0 1.00071 6.15576e-06
886 18.044 0.945078 1.42709 0 0 1.00071 7.1363e-06
47 18.1614 0.129336 0.694722 0 0 1.00071 2.94479e-06
51 19.5544 0.29277 0.673686 0 0 1.00071 4.78091e-06
52 18.9059 0.983892 0.694148 0 0 1.00071 7.60776e-06
889 19.0457 0.419331 1.55096 0 0 1.00071 4.54871e-06
890 19.7627 1.27316 1.69676 0 0 1.00071 1.02704e-05
969 18.9124 1.76701 1.50155 0 0 1.00071 1.22e-05
55 21.1824 0.707405 1.07584 0 0 1.00072 7.37904e-06
56 20.3711 1.10595 0.967119 0 0 1.00072 9.20487e-06
54 21.3007 1.1418 0.215483 0 0 1.00072 1.00712e-05
893 20.4529 0.215231 1.43164 0 0 1.00072 5.51005e-06
53 20.2868 0.197669 0.0722542 0 0 1.00072 5.34315e-06
57 22.0751 0.672882 0.540488 0 0 1.00072 8.17044e-06
59 22.8837 0.837496 1.40599 0 0 1.00072 8.98075e-06
60 22.2882 1.5736 1.33306 0 0 1.00072 1.2488e-05
58 23.0435 1.47326 0.470111 0 0 1.00072 1.15944e-05
63 24.3269 0.794958 1.4227 0 0 1.00071 9.17667e-06
61 23.6341 0.756611 0.573141 0 0 1.00071 8.93043e-06
62 24.5742 1.58876 0.744563 0 0 1.00071 1.17672e-05
64 23.6556 1.66192 1.39128 0 0 1.00071 1.2552e-05
65 25.0239 0.712086 0.538827 0 0 1.00071 8.92327e-06
67 26.0568 0.748363 1.16681 0 0 1.00071 8.43426e-06
68 25.3033 1.53924 1.45906 0 0 1.00071 1.14753e-05
66 26.002 1.32514 0.425144 0 0 1.00071 1.0193e-05
17548 25.1766 0.169099 1.36056 0 0 1.00071 7.16924e-06
70 27.7014 1.58695 0.386088 0 0 1.00072 8.99933e-06
71 27.6697 0.804137 0.87249 0 0 1.00072 7.36757e-06
72 26.8559 1.37765 1.25425 0 0 1.00072 9.41544e-06
69 26.8292 0.582993 0.239837 0 0 1.00071 7.62161e-06
913 28.4276 0.606326 1.412 0 0 1.00071 6.09507e-06
76 28.7542 1.47459 0.733537 0 0 1.00071 7.24431e-06
914 29.4634 1.15758 1.5679 0 0 1.00071 5.89842e-06
917 29.8429 0.332069 1.45664 0 0 1.00071 4.05349e-06
75 29.3109 0.551924 0.618034 0 0 1.00071 4.96172e-06
841 31.6122 0.300864 1.25652 0 0 1.00071 1.80491e-06
79 30.7511 0.57976 0.477296 0 0 1.00071 3.28596e-06
80 30.1923 1.33982 0.772686 0 0 1.00071 5.04888e-06
918 30.9388 1.06149 1.38763 0 0 1.00071 3.66001e-06
82 1.28476 2.36896 0.119441 0 0 1.00071 4.58445e-06
84 0.307896 2.3923 0.807344 0 0 1.00072 2.85382e-06
163 1.50826 3.13881 0.941183 0 0 1.00071 6.01746e-06
922 1.31161 2.29134 1.58725 0 0 1.00072 4.62875e-06
1001 0.597831 3.026 1.54891 0 0 1.00071 3.96431e-06
161 0.54639 3.0991 0.128694 0 0 1.00071 3.82957e-06
88 2.08932 2.28635 0.782791 0 0 1.00071 5.84201e-06
167 2.89641 3.0893 0.854463 0 0 1.00071 8.83975e-06
926 2.84933 2.05644 1.53606 0 0 1.00071 6.96831e-06
86 2.90469 2.20343 0.0513961 0 0 1.00071 7.24706e-06
1005 2.33054 2.94636 1.75081 0 0 1.00071 7.34764e-06
1009 3.52997 3.16996 1.64512 0 0 1.00071 1.05529e-05
92 3.58385 2.32761 0.781849 0 0 1.00071 8.73816e-06
171 4.46321 3.03128 0.754312 0 0 1.00071 1.16048e-05
930 4.36529 2.36004 1.57908 0 0 1.00072 1.00881e-05
96 5.13014 2.25104 0.817872 0 0 1.00072 1.10615e-05
94 5.87632 2.10551 0.140121 0 0 1.00072 1.1533e-05
175 5.94798 2.84147 0.953939 0 0 1.00072 1.39269e-05
934 6.06281 1.85682 1.48689 0 0 1.00072 1.09556e-05
173 5.26691 2.99377 0.0108684 0 0 1.00071 1.33148e-05
100 6.77394 1.82394 0.780241 0 0 1.00072 1.14394e-05
1017 6.83952 2.6758 1.54121 0 0 1.00072 1.46655e-05
177 6.91844 2.56968 0.123264 0 0 1.00072 1.39097e-05
98 7.68232 1.85445 0.132464 0 0 1.00072 1.21478e-05
104 8.34022 1.81611 0.935171 0 0 1.00071 1.25319e-05
179 7.72029 2.66201 0.903865 0 0 1.00071 1.55238e-05
180 6.86877 3.38444 0.782616 0 0 1.00072 1.6959e-05
1018 7.81313 3.44411 1.50005 0 0 1.00071 1.9091e-05
1021 8.52756 2.58889 1.64065 0 0 1.00071 1.61867e-05
181 8.59793 2.5798 0.0373761 0 0 1.00071 1.55151e-05
183 9.27825 2.58093 0.930329 0 0 1.00071 1.66684e-05
942 9.3033 1.83575 1.71499 0 0 1.00072 1.34608e-05
185 9.92567 2.55041 0.206021 0 0 1.00072 1.64195e-05
1022 9.52067 3.35727 1.50167 0 0 1.00072 2.14273e-05
184 8.62569 3.45468 0.704003 0 0 1.00071 1.97241e-05
182 9.43171 3.46794 0.0521152 0 0 1.00072 2.0729e-05
188 10.327 3.21375 0.881701 0 0 1.00072 2.00811e-05
106 10.5556 1.77957 0.196704 0 0 1.00071 1.26203e-05
187 10.9851 2.47058 0.918927 0 0 1.00072 1.60629e-05
1026 11.1748 3.243 1.5944 0 0 1.00072 2.09448e-05
186 11.0798 3.48731 0.168953 0 0 1.00072 2.17119e-05
1029 11.8392 2.54361 1.59499 0 0 1.00072 1.74443e-05
192 11.892 3.33718 0.808876 0 0 1.00071 2.16354e-05
191 12.311 2.40455 0.743405 0 0 1.00072 1.64544e-05
1033 13.3067 2.8025 1.69591 0 0 1.00072 1.86497e-05
196 12.9964 3.38398 0.816843 0 0 1.00072 2.25445e-05
195 13.6603 2.85522 0.840672 0 0 1.00072 1.82674e-05
954 13.692 1.84025 1.47425 0 0 1.00072 1.21187e-05
120 14.4013 2.33133 0.924752 0 0 1.00071 1.50807e-05
1037 14.5665 3.26636 1.55699 0 0 1.00072 2.16516e-05
197 14.6254 3.12373 0.0429021 0 0 1.00071 1.99012e-05
114 13.7536 2.1458 0.0508906 0 0 1.00071 1.4324e-05
199 15.2407 3.37823 0.872827 0 0 1.00071 2.18364e-05
958 15.178 2.27389 1.44766 0 0 1.00071 1.49079e-05
118 15.2372 2.46032 0.131957 0 0 1.00071 1.57333e-05
124 16.0783 2.46702 0.704933 0 0 1.00071 1.56255e-05
962 16.7178 2.56333 1.53174 0 0 1.00071 1.67313e-05
1041 15.9166 3.27381 1.5098 0 0 1.00071 2.12961e-05
201 16.0757 3.27573 0.0209945 0 0 1.00071 2.13631e-05
127 18.1768 1.79173 0.754933 0 0 1.00071 1.18603e-05
203 16.816 3.2878 0.674779 0 0 1.00071 2.13586e-05
965 17.5059 1.89154 1.56476 0 0 1.00071 1.24257e-05
128 17.4457 2.50131 0.679631 0 0 1.00071 1.61227e-05
207 18.3942 3.15486 0.716764 0 0 1.00071 2.03956e-05
1045 17.5819 3.27717 1.50576 0 0 1.00071 2.13403e-05
966 18.4075 2.65425 1.5991 0 0 1.00071 1.77459e-05
131 19.7764 1.86307 0.844112 0 0 1.00071 1.28359e-05
129 19.1097 1.84572 0.00954008 0 0 1.00071 1.23394e-05
132 19.2549 2.65786 1.01749 0 0 1.00071 1.75395e-05
209 19.3231 3.30512 0.192594 0 0 1.00071 2.16339e-05
130 19.9478 2.6457 0.112385 0 0 1.00071 1.75022e-05
133 20.5725 1.86045 0.205275 0 0 1.00071 1.31871e-05
135 21.3302 2.01939 0.962297 0 0 1.00072 1.43037e-05
973 20.5973 2.13654 1.74422 0 0 1.00072 1.51629e-05
134 21.508 2.82416 0.46038 0 0 1.00072 1.81813e-05
136 20.5744 2.81668 1.09513 0 0 1.00072 1.89953e-05
213 20.8254 3.40598 0.32851 0 0 1.00072 2.20703e-05
137 22.2126 2.02377 0.515219 0 0 1.00072 1.43237e-05
139 23.1548 2.4974 1.51351 0 0 1.00072 1.62708e-05
138 23.2729 3.06173 0.729256 0 0 1.00072 1.83009e-05
140 22.4013 2.93775 1.23691 0 0 1.00072 1.91251e-05
141 23.935 2.25466 0.621882 0 0 1.00071 1.44219e-05
143 24.6534 2.42564 1.58202 0 0 1.00071 1.51336e-05
142 24.6354 3.1317 0.772675 0 0 1.00071 1.76107e-05
144 24.0174 3.35419 1.53318 0 0 1.00071 1.9543e-05
16108 25.2499 3.25007 0.00413947 0 0 1.00071 1.71153e-05
147 26.1149 2.13485 1.3571 0 0 1.00071 1.25564e-05
149 26.7281 2.15232 0.512586 0 0 1.00071 1.16448e-05
145 25.3345 2.26727 0.528527 0 0 1.00071 1.37011e-05
146 26.0563 3.01947 0.699117 0 0 1.00071 1.53339e-05
148 25.4357 3.00724 1.52162 0 0 1.00071 1.60244e-05
152 26.7731 2.95676 1.52827 0 0 1.00071 1.40399e-05
151 27.6748 2.30247 1.22816 0 0 1.00072 1.05359e-05
150 27.3272 3.03968 0.632959 0 0 1.00071 1.29877e-05
233 28.248 3.53294 0.338427 0 0 1.00072 1.24941e-05
153 28.4316 2.36467 0.344977 0 0 1.00072 9.58764e-06
156 28.4782 3.03742 1.195 0 0 1.00071 1.0963e-05
993 28.6641 1.98886 1.50537 0 0 1.00071 8.53332e-06
155 29.5961 2.22694 0.880571 0 0 1.00072 7.35928e-06
154 29.3995 2.89603 0.28595 0 0 1.00072 8.90389e-06
235 29.4994 3.47755 1.18107 0 0 1.00072 9.67799e-06
997 30.1102 1.96896 1.70276 0 0 1.00071 6.36681e-06
159 31.0608 2.0622 0.921958 0 0 1.00072 4.74816e-06
160 30.379 2.85017 0.997079 0 0 1.00072 6.69396e-06
239 31.263 3.41898 0.972108 0 0 1.00072 6.04371e-06
998 31.1852 2.77194 1.72657 0 0 1.00072 5.35818e-06
237 30.3571 3.39736 0.151996 0 0 1.00072 7.88083e-06
157 30.5492 2.02996 0.0332978 0 0 1.00072 5.59782e-06
158 31.3329 2.72639 0.0765996 0 0 1.00072 5.08024e-06
164 0.550773 3.77591 0.916326 0 0 1.00071 4.37349e-06
241 0.439212 4.60992 0.47027 0 0 1.00071 4.78807e-06
243 1.43534 4.57409 0.982281 0 0 1.00071 7.40515e-06
162 1.30548 3.79109 0.0688238 0 0 1.00071 5.96389e-06
244 0.424454 5.2713 1.27557 0 0 1.00071 5.30848e-06
168 2.1336 3.90382 0.849698 0 0 1.00071 8.16364e-06
247 2.86877 4.65412 1.12066 0 0 1.00071 1.12392e-05
166 2.94723 3.94257 0.196921 0 0 1.00071 1.03418e-05
245 2.21656 4.80434 0.280144 0 0 1.00071 9.38725e-06
249 3.75749 4.58681 0.167302 0 0 1.00071 1.34934e-05
172 3.78562 3.81956 0.883829 0 0 1.00071 1.18133e-05
251 4.42956 4.55844 1.15067 0 0 1.00071 1.54121e-05
170 4.57186 3.86799 0.142465 0 0 1.00071 1.37959e-05
250 4.59499 5.12846 0.318638 0 0 1.00071 1.67961e-05
176 5.2485 3.66575 1.14849 0 0 1.00071 1.50891e-05
253 5.38772 4.37868 0.324161 0 0 1.00071 1.72065e-05
174 6.10763 3.5606 0.174884 0 0 1.00072 1.65408e-05
255 6.11562 4.3164 1.02564 0 0 1.00071 1.89903e-05
254 6.21228 4.9924 0.276921 0 0 1.00072 2.09516e-05
256 5.37033 5.05309 1.28292 0 0 1.00072 1.91184e-05
1097 7.09444 4.0906 1.64456 0 0 1.00071 2.06105e-05
260 7.12133 4.71193 0.861192 0 0 1.00072 2.23036e-05
259 7.84691 4.02983 0.562971 0 0 1.00071 2.13601e-05
258 7.82437 4.90009 0.0284057 0 0 1.00071 2.48029e-05
1098 7.92192 4.91788 1.4914 0 0 1.00071 2.56582e-05
1101 8.70051 4.15494 1.47388 0 0 1.00071 2.35196e-05
264 8.74246 4.85794 0.698359 0 0 1.00071 2.66363e-05
263 9.58788 4.14331 0.808402 0 0 1.00071 2.46036e-05
1102 9.6412 4.86741 1.5801 0 0 1.00071 2.93475e-05
262 9.58984 5.02156 0.0190529 0 0 1.00072 2.90944e-05
268 10.3776 4.9045 0.79681 0 0 1.00071 2.99199e-05
265 10.376 4.13327 0.119841 0 0 1.00072 2.51853e-05
1105 10.4134 3.95083 1.65618 0 0 1.00072 2.49083e-05
267 11.1606 4.26059 0.894947 0 0 1.00071 2.6706e-05
1106 11.1714 4.83168 1.75192 0 0 1.00071 3.08727e-05
266 11.1381 5.15933 0.0160066 0 0 1.00072 3.20505e-05
269 11.9608 4.38358 0.211917 0 0 1.00071 2.73881e-05
1109 11.9555 4.07254 1.69063 0 0 1.00071 2.74841e-05
272 12.0571 4.94173 1.00856 0 0 1.00071 3.219e-05
271 12.8084 4.2908 1.00822 0 0 1.00071 2.86432e-05
273 13.2327 4.37979 0.0572876 0 0 1.00071 2.84161e-05
1113 13.4806 4.72876 1.6941 0 0 1.00071 3.20833e-05
275 13.8739 4.53632 0.781859 0 0 1.00072 3.02877e-05
200 14.6019 4.0109 0.696633 0 0 1.00072 2.61504e-05
1034 14.1221 4.04674 1.59107 0 0 1.00072 2.73542e-05
1117 14.9309 4.99919 1.52483 0 0 1.00071 3.50543e-05
277 14.8165 4.77815 0.0822776 0 0 1.00072 3.12159e-05
194 13.7891 3.5656 0.00882269 0 0 1.00071 2.30314e-05
279 15.672 5.00787 0.820126 0 0 1.00072 3.35816e-05
198 15.5685 4.15499 0.108375 0 0 1.00071 2.68331e-05
1038 15.6551 4.37782 1.60016 0 0 1.00071 2.92337e-05
204 16.2802 4.10325 0.908049 0 0 1.00071 2.70153e-05
281 16.5375 4.83929 0.173152 0 0 1.00071 3.17287e-05
1121 16.58 5.1049 1.65507 0 0 1.00071 3.56412e-05
1042 16.9633 4.07617 1.67967 0 0 1.00071 2.78548e-05
283 17.2552 4.74779 0.909667 0 0 1.00071 3.15768e-05
208 17.8483 4.0165 0.807307 0 0 1.00071 2.59869e-05
285 18.0732 4.80954 0.0350069 0 0 1.00071 3.15683e-05
1046 18.5049 3.90308 1.65617 0 0 1.00071 2.61762e-05
287 18.7146 4.77457 1.09474 0 0 1.00071 3.19761e-05
206 18.6955 4.10855 0.0770089 0 0 1.00071 2.61765e-05
212 19.3882 4.03165 0.964778 0 0 1.00071 2.62369e-05
289 19.4531 4.95725 0.358118 0 0 1.00071 3.25978e-05
210 20.1124 4.13204 0.25231 0 0 1.00071 2.6562e-05
211 20.1679 3.59594 1.2744 0 0 1.00071 2.37587e-05
291 20.2845 5.0652 1.11884 0 0 1.00071 3.26129e-05
216 20.934 4.24291 1.22759 0 0 1.00071 2.66889e-05
295 21.4661 5.20284 1.37328 0 0 1.00071 3.29352e-05
214 21.6014 4.40454 0.517583 0 0 1.00071 2.70142e-05
293 20.7618 5.21511 0.353673 0 0 1.00071 3.2514e-05
215 21.7536 3.73649 1.39259 0 0 1.00072 2.29434e-05
217 22.3885 3.66506 0.607695 0 0 1.00072 2.2878e-05
16179 23.1032 3.86947 0.0450907 0 0 1.00072 2.23742e-05
219 23.258 4.09628 1.40888 0 0 1.00071 2.35978e-05
220 22.4331 4.62316 1.3118 0 0 1.00071 2.7861e-05
218 23.1207 4.84363 0.541263 0 0 1.00071 2.71749e-05
223 24.845 4.00257 1.55778 0 0 1.00071 2.10076e-05
221 23.9825 4.10697 0.772257 0 0 1.00071 2.24805e-05
222 24.7663 4.83383 0.636184 0 0 1.00071 2.41165e-05
224 23.9599 5.05311 1.34286 0 0 1.00071 2.73841e-05
228 25.4524 4.97139 1.59092 0 0 1.00071 2.32844e-05
227 26.0569 3.93469 1.52037 0 0 1.00071 1.83414e-05
229 26.5031 3.9143 0.596177 0 0 1.00071 1.70935e-05
225 25.422 4.09925 0.773125 0 0 1.00071 1.97881e-05
232 26.7363 4.71386 1.37442 0 0 1.00071 1.89199e-05
226 25.9389 4.86601 0.415243 0 0 1.00071 2.11658e-05
231 27.502 3.71053 1.41295 0 0 1.00071 1.44062e-05
311 27.7168 5.2592 1.40202 0 0 1.00071 1.77244e-05
236 28.281 4.29586 1.11309 0 0 1.00072 1.42687e-05
230 27.404 4.4181 0.582789 0 0 1.00071 1.67098e-05
313 28.6196 5.05062 0.699418 0 0 1.00072 1.41989e-05
234 29.2168 4.02398 0.473731 0 0 1.00072 1.11761e-05
315 29.4081 4.76531 1.31657 0 0 1.00072 1.18777e-05
240 30.2762 4.21872 1.03042 0 0 1.00072 8.95024e-06
238 31.2959 4.06331 0.358125 0 0 1.00072 6.27786e-06
317 30.5145 4.8377 0.476449 0 0 1.00072 8.45396e-06
319 31.2847 4.68684 1.39019 0 0 1.00072 6.69603e-06
242 1.25602 5.45488 0.45893 0 0 1.00071 7.3514e-06
323 1.16823 6.13579 1.27633 0 0 1.00071 7.56333e-06
324 0.635607 6.91484 1.48915 0 0 1.00071 6.28418e-06
322 1.35326 6.84621 0.567116 0 0 1.00071 8.34107e-06
321 0.346825 6.02007 0.45038 0 0 1.00071 5.15657e-06
248 1.8928 5.37702 1.36642 0 0 1.00071 9.5064e-06
328 2.09844 6.85355 1.24127 0 0 1.00071 1.10125e-05
325 2.25959 6.02687 0.500078 0 0 1.00071 1.09713e-05
327 2.67404 5.95105 1.3939 0 0 1.00071 1.25697e-05
246 3.04771 5.36998 0.272366 0 0 1.00071 1.24286e-05
326 2.88994 6.88976 0.465122 0 0 1.00072 1.40473e-05
252 3.50796 5.35659 1.28112 0 0 1.00071 1.43799e-05
332 3.66697 6.66121 1.1399 0 0 1.00072 1.64073e-05
329 3.81274 5.96707 0.476697 0 0 1.00071 1.58406e-05
331 4.55264 5.73274 1.21973 0 0 1.00071 1.8293e-05
330 4.45095 6.64557 0.225708 0 0 1.00072 1.94214e-05
336 5.25949 6.39509 1.15534 0 0 1.00072 2.23969e-05
333 5.2891 5.84142 0.314738 0 0 1.00072 2.06989e-05
335 6.16606 5.76415 0.954796 0 0 1.00072 2.392e-05
334 6.05464 6.57031 0.147063 0 0 1.00071 2.55166e-05
337 6.90403 5.61463 0.138635 0 0 1.00072 2.48747e-05
340 6.99476 6.35436 0.959852 0 0 1.00071 2.87541e-05
1177 6.99332 5.50992 1.59665 0 0 1.00072 2.57003e-05
339 7.8675 5.65071 0.758058 0 0 1.00071 2.8248e-05
1178 7.88574 6.30071 1.59269 0 0 1.00071 3.20636e-05
344 8.6471 6.32368 0.706514 0 0 1.00071 3.34667e-05
1181 8.83156 5.60903 1.49588 0 0 1.00071 3.13638e-05
343 9.52262 5.69719 0.741747 0 0 1.00071 3.26397e-05
1182 9.76947 6.4279 1.46147 0 0 1.00071 3.83829e-05
1261 8.74407 6.90805 1.549 0 0 1.00071 3.79682e-05
1185 10.4406 5.70076 1.482 0 0 1.00071 3.56599e-05
345 10.4197 5.79553 0.0857716 0 0 1.00072 3.48298e-05
347 11.2908 5.61661 0.927281 0 0 1.00071 3.51099e-05
346 11.2673 6.52066 0.120806 0 0 1.00071 4.10389e-05
1186 11.2458 6.4686 1.49104 0 0 1.00071 4.25088e-05
348 10.5433 6.68998 0.726562 0 0 1.00071 4.11414e-05
349 12.0498 5.98896 0.0570376 0 0 1.00071 3.83912e-05
352 12.0952 6.7351 0.806214 0 0 1.00071 4.49402e-05
270 12.6969 5.29648 0.186752 0 0 1.00071 3.42306e-05
351 12.5374 5.89103 1.04961 0 0 1.00071 3.94788e-05
1190 12.9662 6.81131 1.37934 0 0 1.00072 4.78999e-05
276 13.4356 5.55222 0.862029 0 0 1.00071 3.72373e-05
274 14.0412 5.353 0.0291979 0 0 1.00071 3.599e-05
1114 14.1403 5.67389 1.57835 0 0 1.00071 3.97601e-05
355 14.1844 6.35557 0.792777 0 0 1.00071 4.35491e-05
280 14.8522 5.60829 0.773183 0 0 1.00071 3.876e-05
357 14.9577 6.28104 0.0328287 0 0 1.00071 4.3272e-05
356 13.5685 7.02563 0.58674 0 0 1.00071 4.87489e-05
1197 15.1944 6.52429 1.43435 0 0 1.00071 4.79474e-05
278 15.7641 5.60896 0.0417974 0 0 1.00071 3.78073e-05
284 16.6322 5.80866 0.942551 0 0 1.00071 3.99573e-05
359 15.8909 6.46018 0.803176 0 0 1.00072 4.57154e-05
1118 15.9509 5.85736 1.69406 0 0 1.00072 4.2044e-05
361 16.5079 6.40771 0.0495119 0 0 1.00071 4.44281e-05
363 17.3305 6.62618 1.15182 0 0 1.00071 4.64826e-05
282 17.3553 5.58838 0.264966 0 0 1.00071 3.71825e-05
288 17.8665 5.63768 1.24104 0 0 1.00071 3.88614e-05
365 17.9081 6.5007 0.395999 0 0 1.00071 4.51676e-05
367 18.483 6.54091 1.35552 0 0 1.00071 4.61601e-05
286 18.5655 5.60872 0.517134 0 0 1.00071 3.77866e-05
292 19.4735 5.64183 1.2008 0 0 1.00071 3.80799e-05
369 19.1676 6.59131 0.617287 0 0 1.00071 4.4749e-05
371 20.1026 7.01855 1.34969 0 0 1.00072 4.76112e-05
290 20.1615 6.16624 0.628661 0 0 1.00071 4.03345e-05
294 21.438 6.27462 0.645744 0 0 1.00071 3.86205e-05
296 20.862 6.08963 1.38873 0 0 1.00071 3.94864e-05
297 22.1879 5.47165 0.786824 0 0 1.00071 3.26426e-05
299 23.0646 5.70675 1.28855 0 0 1.00071 3.2839e-05
300 22.3043 6.42319 1.36696 0 0 1.00071 3.86719e-05
16260 22.3339 6.2767 0.0544988 0 0 1.00071 3.67308e-05
298 23.2551 6.41038 0.650639 0 0 1.00071 3.47826e-05
301 24.0449 5.60997 0.540144 0 0 1.00071 2.8819e-05
303 24.8607 5.83334 1.44136 0 0 1.00071 2.80882e-05
304 24.0571 6.47758 1.2838 0 0 1.00071 3.34327e-05
302 24.6894 6.55707 0.434158 0 0 1.00071 3.14285e-05
305 25.3341 5.74905 0.568454 0 0 1.00071 2.59856e-05
307 26.1499 5.63489 1.35602 0 0 1.00071 2.35571e-05
306 26.1734 6.36716 0.694337 0 0 1.00071 2.51337e-05
308 25.6271 6.58014 1.64924 0 0 1.00071 2.85545e-05
309 26.9176 5.40834 0.64346 0 0 1.00071 2.03307e-05
312 27.1334 6.31187 1.46906 0 0 1.00071 2.18271e-05
310 27.9093 5.93536 0.711118 0 0 1.00071 1.79806e-05
389 27.2073 6.83253 0.639052 0 0 1.00071 2.24164e-05
391 28.1221 6.86334 1.37349 0 0 1.00071 1.90822e-05
316 28.7601 5.85362 1.46463 0 0 1.00072 1.55443e-05
314 29.7375 5.54391 0.812908 0 0 1.00072 1.17245e-05
395 29.8213 6.43962 1.31638 0 0 1.00072 1.2508e-05
393 28.8804 6.54641 0.653451 0 0 1.00071 1.60163e-05
16355 29.7557 6.38457 0.0749403 0 0 1.00071 1.28846e-05
16276 28.851 5.70747 0.0433064 0 0 1.00071 1.45345e-05
318 31.3047 5.45239 0.590322 0 0 1.00071 7.53001e-06
320 30.5685 5.61386 1.44867 0 0 1.00072 9.36966e-06
397 30.7543 6.33535 0.637327 0 0 1.00071 9.41553e-06
399 31.5748 6.22026 1.3787 0 0 1.00071 7.00082e-06
398 31.5835 7.01301 0.605687 0 0 1.00071 6.80307e-06
401 0.655015 7.62301 0.646847 0 0 1.00071 5.86348e-06
402 1.24998 8.38566 0.596484 0 0 1.00071 8.08994e-06
403 1.50276 7.72893 1.47824 0 0 1.00071 9.19304e-06
404 0.744718 8.52053 1.45943 0 0 1.00071 6.03975e-06
478 0.0682258 8.65951 0.395631 0 0 1.00071 3.53754e-06
405 2.00113 7.60252 0.383188 0 0 1.00071 1.06392e-05
408 2.14466 8.41892 1.4539 0 0 1.00072 1.21433e-05
406 2.63011 8.37735 0.394173 0 0 1.00072 1.39315e-05
407 2.82628 7.55905 1.27678 0 0 1.00072 1.43815e-05
412 3.47637 8.18686 0.934637 0 0 1.00072 1.79399e-05
409 3.68679 7.42686 0.327281 0 0 1.00072 1.75901e-05
410 4.29047 8.06087 0.062659 0 0 1.00072 2.10152e-05
411 4.45963 7.2411 1.20342 0 0 1.00072 2.04917e-05
491 4.39891 8.66982 0.848862 0 0 1.00072 2.25914e-05
413 5.182 7.21929 0.225134 0 0 1.00072 2.30427e-05
1333 5.19205 8.54731 1.6243 0 0 1.00072 2.75201e-05
416 5.20339 7.80737 0.942661 0 0 1.00072 2.50926e-05
414 6.41957 7.81957 0.191298 0 0 1.00072 2.98901e-05
415 6.01444 7.08532 0.998042 0 0 1.00072 2.64387e-05
495 5.85274 8.43103 0.634762 0 0 1.00072 2.93315e-05
1337 6.72604 8.46364 1.23919 0 0 1.00072 3.50132e-05
420 6.98964 7.62285 1.04574 0 0 1.00072 3.23268e-05
417 7.06398 7.03986 0.146276 0 0 1.00071 3.09011e-05
419 7.91444 7.18079 0.730129 0 0 1.00071 3.49126e-05
1258 7.91303 7.54064 1.68003 0 0 1.00072 3.70035e-05
499 7.76556 8.26319 0.718517 0 0 1.00072 3.7777e-05
421 8.65383 7.06936 0.00833238 0 0 1.00071 3.6793e-05
424 8.92822 7.72167 0.864546 0 0 1.00071 4.12727e-05
423 9.61228 7.07787 0.664018 0 0 1.00071 4.00852e-05
1262 9.79256 8.04536 1.42876 0 0 1.00071 4.76779e-05
501 8.75446 8.42247 0.0733879 0 0 1.00072 4.29277e-05
1341 8.70141 8.50996 1.38431 0 0 1.00071 4.48062e-05
1265 10.4583 7.31037 1.58147 0 0 1.00071 4.60692e-05
428 10.4912 8.05004 0.695147 0 0 1.00071 4.90601e-05
427 11.366 7.43225 0.825471 0 0 1.00071 4.80478e-05
1266 11.4019 8.2013 1.43045 0 0 1.00071 5.47978e-05
426 11.1875 8.3243 0.0107652 0 0 1.00071 5.22342e-05
429 12.0388 7.66286 0.033999 0 0 1.00071 5.06731e-05
432 12.1725 8.36803 0.721729 0 0 1.00071 5.6313e-05
1269 12.2349 7.37899 1.57449 0 0 1.00071 5.20459e-05
431 13.0273 7.84711 0.59966 0 0 1.00071 5.38879e-05
1270 12.9604 8.28559 1.50515 0 0 1.00071 5.97749e-05
1273 13.7573 7.71516 1.47869 0 0 1.00071 5.74496e-05
435 14.5134 7.91983 0.510602 0 0 1.00072 5.69877e-05
1194 14.3998 7.1232 1.38156 0 0 1.00072 5.11454e-05
1274 14.62 8.67809 1.56986 0 0 1.00072 6.70858e-05
436 13.8517 8.65043 0.780308 0 0 1.00071 6.25464e-05
360 15.1992 7.24864 0.633136 0 0 1.00072 5.23401e-05
1277 15.2147 8.03004 1.37602 0 0 1.00072 6.02883e-05
364 16.5327 7.35831 0.88302 0 0 1.00072 5.21335e-05
439 16.0316 8.27264 0.875108 0 0 1.00072 6.12508e-05
1198 16.0851 7.53525 1.66461 0 0 1.00072 5.72292e-05
437 15.4065 8.34506 0.00123491 0 0 1.00072 6.09585e-05
441 16.7547 8.38854 0.148222 0 0 1.00072 6.09475e-05
443 17.2124 8.31159 1.09631 0 0 1.00072 6.16265e-05
362 17.3266 7.35515 0.296364 0 0 1.00071 5.21496e-05
368 17.9047 7.57909 1.10326 0 0 1.00071 5.47689e-05
445 17.9565 8.37504 0.30181 0 0 1.00071 6.10761e-05
447 18.6214 8.38965 1.03862 0 0 1.00071 5.98773e-05
366 18.6879 7.51557 0.230935 0 0 1.00071 5.24202e-05
372 19.1379 7.44021 1.16356 0 0 1.00071 5.30547e-05
370 19.8495 7.78177 0.621642 0 0 1.00071 5.21687e-05
451 19.8123 8.6476 1.18961 0 0 1.00071 6.1004e-05
449 19.3158 8.62217 0.211333 0 0 1.00071 5.87653e-05
375 21.506 7.16722 1.31248 0 0 1.00071 4.54047e-05
373 20.758 7.23721 0.609168 0 0 1.00071 4.6606e-05
453 20.6123 8.67812 0.379584 0 0 1.00071 5.76545e-05
376 20.706 8.19679 1.32386 0 0 1.00071 5.48903e-05
374 21.4636 8.03747 0.636973 0 0 1.00071 5.03143e-05
377 22.3295 7.25937 0.677896 0 0 1.00071 4.27303e-05
379 23.2715 7.30038 1.21176 0 0 1.00071 4.03282e-05
380 22.2835 8.30523 1.14756 0 0 1.00071 4.94446e-05
378 23.0303 8.10874 0.393577 0 0 1.00071 4.42552e-05
383 24.8884 7.17307 1.18259 0 0 1.00071 3.31204e-05
381 23.9569 7.36717 0.291634 0 0 1.00071 3.73989e-05
384 24.0727 7.98046 1.07948 0 0 1.00071 3.96832e-05
461 24.0938 8.75593 0.35941 0 0 1.00071 4.21174e-05
463 24.9309 8.7658 1.00893 0 0 1.00071 3.87518e-05
382 24.8933 7.93847 0.292985 0 0 1.00071 3.53639e-05
387 26.3609 7.14767 1.41198 0 0 1.00071 2.71255e-05
385 25.6772 7.27177 0.498321 0 0 1.00071 2.95669e-05
388 25.6733 7.99689 1.24532 0 0 1.00071 3.24501e-05
467 26.5468 8.59583 1.0024 0 0 1.00071 2.97157e-05
386 26.5762 7.80571 0.381454 0 0 1.00071 2.77542e-05
465 25.7661 8.7278 0.319943 0 0 1.00071 3.39485e-05
390 28.1535 7.42086 0.522777 0 0 1.00071 1.97632e-05
392 27.2797 7.62652 1.32828 0 0 1.00071 2.44077e-05
471 28.2579 8.26772 1.2132 0 0 1.00071 2.08575e-05
469 27.4714 8.28665 0.435904 0 0 1.00071 2.42766e-05
394 29.9727 7.17435 0.509122 0 0 1.00071 1.25404e-05
396 29.0643 7.43943 1.23357 0 0 1.00071 1.62757e-05
474 29.9987 8.64319 0.537924 0 0 1.00071 1.31195e-05
475 29.9135 7.94704 1.28168 0 0 1.00071 1.31753e-05
473 29.1203 8.07266 0.418329 0 0 1.00071 1.64595e-05
400 30.7156 7.24836 1.18227 0 0 1.00071 9.59222e-06
479 31.6369 7.88605 1.29187 0 0 1.00071 6.8493e-06
480 30.8234 8.65519 1.19091 0 0 1.00071 9.58966e-06
477 31.0231 8.00725 0.388161 0 0 1.00071 8.84583e-06
482 1.4838 10.1412 0.260851 0 0 1.00071 8.28212e-06
483 1.40898 9.24463 1.18945 0 0 1.00071 8.55267e-06
484 0.625871 9.91613 0.908078 0 0 1.00071 4.86275e-06
481 0.743775 9.30267 0.125436 0 0 1.00071 5.89839e-06
1322 1.19184 10.0223 1.74201 0 0 1.00072 7.34237e-06
485 2.14613 9.24235 0.433284 0 0 1.00071 1.1829e-05
488 2.19874 10.1162 0.972218 0 0 1.00072 1.16669e-05
486 2.97726 9.94767 0.0777178 0 0 1.00072 1.54987e-05
487 2.79014 9.15122 1.20023 0 0 1.00071 1.48712e-05
1326 3.16327 9.87053 1.66166 0 0 1.00071 1.7077e-05
489 3.50002 8.99722 0.0940229 0 0 1.00072 1.80966e-05
1329 3.66692 8.85935 1.66604 0 0 1.00071 1.95312e-05
492 3.79361 9.63664 0.742192 0 0 1.00071 1.97214e-05
1330 4.58799 9.46698 1.58005 0 0 1.00071 2.50561e-05
1409 3.93806 10.36 1.43745 0 0 1.00071 2.10904e-05
571 4.50914 10.4215 0.52415 0 0 1.00072 2.38124e-05
496 5.06847 9.47485 0.567691 0 0 1.00072 2.69858e-05
1334 5.84908 9.25735 1.17827 0 0 1.00072 3.1405e-05
575 5.87703 10.1094 0.444472 0 0 1.00072 3.20935e-05
1413 5.2496 10.2399 1.45735 0 0 1.00071 2.94811e-05
500 6.7741 9.1823 0.507003 0 0 1.00072 3.57589e-05
1417 6.77613 9.87422 1.19359 0 0 1.00071 3.7967e-05
1338 7.75422 9.07929 1.18526 0 0 1.00072 4.19869e-05
1421 8.30352 9.92032 1.33166 0 0 1.00071 4.8053e-05
579 7.49545 9.98443 0.464223 0 0 1.00072 4.20389e-05
504 8.60537 9.26864 0.568112 0 0 1.00072 4.61457e-05
503 9.63644 8.79625 0.70732 0 0 1.00071 4.95374e-05
1342 9.43242 9.50994 1.39262 0 0 1.00071 5.28718e-05
583 9.40689 10.1871 0.666932 0 0 1.00071 5.39312e-05
508 10.3454 9.66159 0.666198 0 0 1.00071 5.71938e-05
1345 10.5817 8.92448 1.40549 0 0 1.00071 5.58787e-05
507 11.2477 9.10449 0.664353 0 0 1.00071 5.80162e-05
1346 11.417 9.56018 1.61165 0 0 1.00071 6.39415e-05
1425 10.3509 10.3859 1.37035 0 0 1.00071 6.31755e-05
587 11.0604 10.481 0.666631 0 0 1.00072 6.47553e-05
512 11.9663 9.99361 0.722714 0 0 1.00072 6.62045e-05
1349 12.1954 9.09565 1.34787 0 0 1.00071 6.32906e-05
511 12.9326 9.36054 0.690432 0 0 1.00071 6.57762e-05
1350 12.8321 10.0617 1.58329 0 0 1.00071 7.35691e-05
510 12.5705 10.2123 0.0280031 0 0 1.00071 6.88776e-05
1353 13.511 9.2368 1.61467 0 0 1.00071 7.04844e-05
516 13.6492 10.1239 0.946438 0 0 1.00071 7.33131e-05
515 14.4255 9.46776 0.855102 0 0 1.00071 6.9992e-05
1354 14.4131 10.1724 1.70071 0 0 1.00071 7.99064e-05
514 14.2374 10.3956 0.0318864 0 0 1.00071 7.65712e-05
517 15.1476 9.9667 0.216582 0 0 1.00071 7.48071e-05
440 15.3671 9.06762 0.789697 0 0 1.00072 6.77017e-05
519 16.0356 9.87784 1.02269 0 0 1.00071 7.62005e-05
521 16.5594 10.2304 0.231776 0 0 1.00071 7.72453e-05
438 16.1616 9.2111 0.131957 0 0 1.00072 6.78512e-05
444 16.8265 9.26333 1.13452 0 0 1.00071 7.05457e-05
523 17.3884 10.1754 0.975638 0 0 1.00071 7.81013e-05
442 17.3829 9.2641 0.264831 0 0 1.00072 6.86141e-05
448 18.0126 9.3303 1.10783 0 0 1.00071 6.94593e-05
525 18.0264 10.3323 0.187146 0 0 1.00072 7.64404e-05
527 18.6281 10.2622 1.08127 0 0 1.00071 7.54786e-05
446 18.6325 9.47916 0.121788 0 0 1.00072 6.73933e-05
452 19.1924 9.37767 0.95937 0 0 1.00071 6.80348e-05
529 19.4172 10.2617 0.313104 0 0 1.00071 7.25248e-05
1369 19.5223 10.1397 1.72159 0 0 1.00071 7.57624e-05
450 20.0608 9.51216 0.226603 0 0 1.00071 6.51252e-05
531 20.2807 10.5078 0.892162 0 0 1.00071 7.05762e-05
455 21.4505 9.05669 1.05471 0 0 1.00071 5.74e-05
456 20.6504 9.58039 1.04891 0 0 1.00071 6.40762e-05
533 20.7752 10.4394 0.0696238 0 0 1.00071 6.71091e-05
535 21.6612 10.5394 0.803778 0 0 1.00071 6.39571e-05
1373 21.0162 10.375 1.68482 0 0 1.00072 7.00698e-05
454 21.5243 9.73145 0.212934 0 0 1.00071 5.93192e-05