ITEM: TIMESTEP
48500
ITEM: NUMBER OF ATOMS
32000
ITEM: BOX BOUNDS pp pp pp
0.0000000000000000e+00 3.1748021039364001e+01
0.0000000000000000e+00 3.1748021039364001e+01
0.0000000000000000e+00 3.1748021039364001e+01
ITEM: ATOMS id x y z c_phase c_nbond c_rho v_omega
4 0.258006 1.08775 0.461757 0 0 1.00104 2.6937e-06
83 1.20614 1.50197 0.770454 0 0 1.00104 4.61221e-06
842 0.821242 0.671679 1.39189 0 0 1.00104 3.17622e-06
921 0.250957 1.6042 1.3732 0 0 1.00104 3.37434e-06
8 1.8117 0.558309 1.00397 0 0 1.00104 4.08012e-06
85 2.02067 1.19455 0.191258 0 0 1.00103 5.4019e-06
925 2.07054 1.33175 1.72322 0 0 1.00103 5.60194e-06
6 2.59339 0.341851 0.175735 0 0 1.00104 4.65077e-06
87 2.86654 1.11745 0.845904 0 0 1.00103 6.30479e-06
846 2.77126 0.402652 1.71198 0 0 1.00103 4.816e-06
12 3.52932 0.382206 0.939046 0 0 1.00103 5.61853e-06
929 3.85983 1.13616 1.6721 0 0 1.00103 7.42307e-06
10 4.20924 0.240648 0.287509 0 0 1.00104 5.67077e-06
850 4.42363 0.279572 1.6109 0 0 1.00104 6.27673e-06
91 4.30041 1.1967 0.704655 0 0 1.00104 8.16488e-06
93 5.17442 0.891888 0.35549 0 0 1.00104 7.92255e-06
95 6.08137 0.537434 0.941906 0 0 1.00104 7.24188e-06
933 5.27696 0.947093 1.42781 0 0 1.00104 8.28446e-06
934 6.23951 1.40077 1.46978 0 0 1.00104 1.00024e-05
94 6.08716 1.63909 0.138282 0 0 1.00104 1.0695e-05
97 6.79534 0.600367 0.204939 0 0 1.00104 7.53653e-06
937 6.82613 0.194696 1.67625 0 0 1.00104 6.36017e-06
99 7.56686 0.399086 0.939683 0 0 1.00104 7.00395e-06
938 7.71689 1.19046 1.54802 0 0 1.00103 9.97706e-06
100 6.97448 1.35123 0.777274 0 0 1.00104 1.02321e-05
98 7.88882 1.36617 0.118757 0 0 1.00104 1.03514e-05
941 8.38812 0.390059 1.611 0 0 1.00104 7.17803e-06
101 8.50573 0.563177 0.207837 0 0 1.00104 7.3547e-06
103 9.2572 0.494624 1.06358 0 0 1.00104 6.73689e-06
945 9.80021 0.18433 1.74753 0 0 1.00103 4.98405e-06
105 9.91379 0.560106 0.113257 0 0 1.00103 6.3741e-06
102 9.3849 1.28522 0.220188 0 0 1.00104 9.8927e-06
104 8.57552 1.31098 0.930555 0 0 1.00103 1.0226e-05
942 9.56673 1.33254 1.723 0 0 1.00104 1.07202e-05
108 10.2591 1.23117 1.06584 0 0 1.00104 9.37102e-06
107 10.5981 0.333466 0.83835 0 0 1.00103 5.14878e-06
949 11.5481 0.35405 1.41012 0 0 1.00103 4.7331e-06
946 11.0276 0.986722 1.72307 0 0 1.00104 8.32619e-06
112 11.6844 1.19907 0.782695 0 0 1.00104 8.92402e-06
106 10.8245 1.35013 0.180817 0 0 1.00103 9.63438e-06
111 12.3144 0.531348 0.521563 0 0 1.00103 4.87325e-06
953 13.069 0.688578 1.37327 0 0 1.00104 4.96898e-06
950 12.5002 1.36151 1.45081 0 0 1.00104 9.17165e-06
116 13.3041 1.51228 0.6135 0 0 1.00104 9.21767e-06
40 14.4684 0.112421 0.782323 0 0 1.00103 9.17621e-07
115 13.9192 0.810385 0.818363 0 0 1.00104 4.67465e-06
117 14.5598 1.26177 0.125506 0 0 1.00104 6.44297e-06
957 14.7423 0.99441 1.4837 0 0 1.00104 5.34579e-06
954 14.0284 1.66129 1.45503 0 0 1.00104 9.30122e-06
119 15.3838 1.43806 0.665043 0 0 1.00104 6.91582e-06
44 15.9695 0.75138 0.790179 0 0 1.00104 2.85389e-06
878 15.273 0.385921 1.63408 0 0 1.00104 1.07541e-06
961 16.1446 1.50633 1.42966 0 0 1.00104 7.23204e-06
38 15.2948 0.585613 0.0683448 0 0 1.00103 1.95506e-06
882 16.7856 0.853863 1.35868 0 0 1.00104 2.88114e-06
123 17.074 1.73904 0.704347 0 0 1.00104 7.82199e-06
48 17.5276 1.00173 0.568483 0 0 1.00103 3.55517e-06
886 18.2071 1.14569 1.42777 0 0 1.00103 4.73473e-06
47 18.1726 0.330117 0.695863 0 0 1.00103 7.68232e-07
885 17.2834 0.0901342 1.40503 0 0 1.00103 -7.66697e-07
51 19.5887 0.571434 0.693397 0 0 1.00104 2.19527e-06
52 19.058 1.25784 0.705335 0 0 1.00103 5.39266e-06
889 19.0764 0.684304 1.56706 0 0 1.00103 2.1373e-06
890 20.0033 1.59274 1.70187 0 0 1.00104 8.15597e-06
55 21.3032 1.10076 1.09031 0 0 1.00104 5.55675e-06
56 20.5369 1.45157 0.943833 0 0 1.00104 6.82281e-06
54 21.4813 1.55133 0.207414 0 0 1.00104 8.09414e-06
893 20.46 0.582994 1.4128 0 0 1.00104 3.42546e-06
53 20.3113 0.573743 0.0605559 0 0 1.00104 3.47101e-06
17534 20.9536 0.146711 0.259737 0 0 1.00104 1.27703e-06
57 22.1938 1.12669 0.544336 0 0 1.00104 6.39948e-06
59 23.0262 1.284 1.40544 0 0 1.00104 7.33883e-06
17538 22.7563 0.408636 0.450712 0 0 1.00104 3.30011e-06
17540 21.7556 0.210433 0.861351 0 0 1.00104 2.46713e-06
63 24.4636 1.25578 1.39911 0 0 1.00103 7.63307e-06
61 23.7401 1.20187 0.550573 0 0 1.00103 7.0401e-06
17544 23.5303 0.376714 1.23868 0 0 1.00103 4.13189e-06
17542 24.3393 0.353233 0.578742 0 0 1.00103 4.26066e-06
65 25.1279 1.15074 0.509869 0 0 1.00103 6.96512e-06
67 26.1345 1.15607 1.14538 0 0 1.00103 6.51084e-06
66 26.1572 1.76899 0.407856 0 0 1.00103 8.16313e-06
17548 25.2065 0.588025 1.3349 0 0 1.00103 5.36476e-06
17546 25.9132 0.307379 0.327767 0 0 1.00103 4.38988e-06
71 27.7485 1.12471 0.862179 0 0 1.00104 5.28979e-06
72 26.9927 1.76196 1.23504 0 0 1.00104 7.37865e-06
69 26.892 0.964984 0.242975 0 0 1.00104 5.59951e-06
17552 27.0901 0.359764 0.997195 0 0 1.00104 4.02052e-06
17556 28.3498 0.210508 0.728274 0 0 1.00104 2.8011e-06
913 28.4883 0.890552 1.41424 0 0 1.00104 3.99059e-06
76 28.8733 1.72117 0.722681 0 0 1.00104 4.79946e-06
914 29.5534 1.3672 1.55693 0 0 1.00104 3.58047e-06
917 29.8642 0.491876 1.44656 0 0 1.00104 1.86318e-06
75 29.3498 0.751838 0.61219 0 0 1.00104 2.66265e-06
841 31.6161 0.302441 1.25104 0 0 1.00104 -6.22484e-07
79 30.7878 0.650164 0.474709 0 0 1.00104 7.69505e-07
80 30.2901 1.46269 0.761306 0 0 1.00104 2.38904e-06
918 31.0097 1.12703 1.36869 0 0 1.00104 1.14413e-06
82 1.45934 2.23264 0.0954228 0 0 1.00103 6.06406e-06
84 0.490986 2.35177 0.793056 0 0 1.00104 4.60139e-06
922 1.48281 2.14698 1.57365 0 0 1.00104 6.10816e-06
1001 0.822794 2.96177 1.54124 0 0 1.00104 5.7644e-06
161 0.777706 3.04273 0.112871 0 0 1.00104 5.78441e-06
163 1.73433 2.95693 0.919951 0 0 1.00103 7.60338e-06
88 2.2629 2.07134 0.770299 0 0 1.00103 7.01708e-06
167 3.14607 2.79687 0.837804 0 0 1.00103 9.98149e-06
926 3.02233 1.7867 1.52472 0 0 1.00103 7.84326e-06
86 3.07869 1.93456 0.0367211 0 0 1.00103 8.15929e-06
1005 2.55086 2.70401 1.72289 0 0 1.00103 8.64358e-06
1009 3.81465 2.79691 1.62641 0 0 1.00103 1.1365e-05
92 3.78193 1.99222 0.771584 0 0 1.00103 9.36027e-06
171 4.72835 2.6299 0.750935 0 0 1.00103 1.19142e-05
930 4.59145 1.96211 1.57277 0 0 1.00104 1.02783e-05
170 4.90887 3.43292 0.125776 0 0 1.00103 1.4418e-05
172 4.09383 3.45217 0.869829 0 0 1.00103 1.27593e-05
96 5.33933 1.81247 0.812226 0 0 1.00104 1.06546e-05
175 6.25534 2.36099 0.940561 0 0 1.00103 1.32648e-05
173 5.54371 2.53489 0.0173593 0 0 1.00103 1.29768e-05
174 6.47055 3.046 0.141031 0 0 1.00103 1.59213e-05
176 5.6104 3.20152 1.0971 0 0 1.00103 1.51852e-05
1017 7.15847 2.16003 1.52493 0 0 1.00103 1.33874e-05
177 7.18168 2.08832 0.101048 0 0 1.00104 1.28231e-05
179 8.0406 2.1467 0.85614 0 0 1.00103 1.37074e-05
180 7.26278 2.87488 0.779525 0 0 1.00103 1.61264e-05
1018 8.25813 2.89305 1.48764 0 0 1.00103 1.72568e-05
259 8.33073 3.47686 0.571471 0 0 1.00103 1.99205e-05
1021 8.86728 2.06656 1.61727 0 0 1.00103 1.3848e-05
181 8.9321 2.08863 0.0218659 0 0 1.00104 1.33993e-05
183 9.64341 2.08205 0.925806 0 0 1.00104 1.3918e-05
1022 10.0192 2.83153 1.49069 0 0 1.00103 1.8584e-05
184 9.08042 2.90277 0.689312 0 0 1.00103 1.73725e-05
182 9.92817 2.97148 0.0250203 0 0 1.00104 1.84848e-05
185 10.3084 2.10607 0.192124 0 0 1.00104 1.38612e-05
188 10.7992 2.76122 0.849483 0 0 1.00104 1.75757e-05
187 11.3795 2.0537 0.916199 0 0 1.00104 1.32818e-05
1026 11.701 2.85118 1.59203 0 0 1.00104 1.82781e-05
186 11.6292 3.0439 0.162897 0 0 1.00104 1.83631e-05
1025 10.8017 1.9144 1.73044 0 0 1.00104 1.32461e-05
1105 11.0073 3.48019 1.62965 0 0 1.00103 2.18488e-05
1029 12.3048 2.2105 1.62301 0 0 1.00104 1.49782e-05
192 12.4543 2.9829 0.832888 0 0 1.00104 1.90447e-05
191 12.7542 2.12873 0.755726 0 0 1.00104 1.42963e-05
196 13.5416 3.14438 0.822545 0 0 1.00104 1.96541e-05
1033 13.8222 2.52494 1.6999 0 0 1.00105 1.50694e-05
195 14.2269 2.70887 0.850961 0 0 1.00104 1.64413e-05
120 14.8454 2.18235 0.915689 0 0 1.00104 1.17122e-05
114 14.1493 1.95758 0.0209651 0 0 1.00104 1.16618e-05
194 14.3935 3.36488 0.0510346 0 0 1.00104 2.00683e-05
1037 15.1884 3.11252 1.55361 0 0 1.00104 1.769e-05
197 15.169 3.01553 0.0405125 0 0 1.00104 1.65112e-05
199 15.8873 3.31296 0.864442 0 0 1.00104 1.86123e-05
958 15.6437 2.25175 1.47353 0 0 1.00104 1.29254e-05
118 15.6921 2.37129 0.112324 0 0 1.00104 1.22208e-05
124 16.5174 2.4805 0.716144 0 0 1.00103 1.25317e-05
1041 16.5508 3.33641 1.51821 0 0 1.00104 1.87383e-05
962 17.2037 2.66154 1.55158 0 0 1.00104 1.40846e-05
203 17.4215 3.40338 0.66037 0 0 1.00103 1.84492e-05
965 17.8413 2.02077 1.56638 0 0 1.00104 9.1676e-06
128 17.9023 2.66569 0.66131 0 0 1.00103 1.33582e-05
1045 18.1555 3.46461 1.49961 0 0 1.00103 1.82751e-05
127 18.4968 2.0236 0.744309 0 0 1.00103 9.40554e-06
969 19.235 2.0534 1.49641 0 0 1.00104 1.03302e-05
207 18.9307 3.40584 0.72092 0 0 1.00103 1.72762e-05
966 18.8857 2.89659 1.61419 0 0 1.00103 1.51016e-05
129 19.4212 2.12996 0.0301782 0 0 1.00103 9.65837e-06
132 19.7309 3.01961 1.02911 0 0 1.00104 1.56295e-05
131 20.0746 2.20178 0.843209 0 0 1.00104 1.03833e-05
130 20.3954 3.00384 0.114514 0 0 1.00104 1.49695e-05
133 20.8781 2.25006 0.20133 0 0 1.00104 1.10775e-05
135 21.6343 2.42183 0.946916 0 0 1.00104 1.18957e-05
973 20.9574 2.53206 1.74046 0 0 1.00104 1.32893e-05
136 21.0413 3.21596 1.05827 0 0 1.00104 1.64403e-05
58 23.2274 1.94211 0.47427 0 0 1.00104 9.72744e-06
134 21.9545 3.29832 0.467708 0 0 1.00104 1.62294e-05
60 22.5374 2.05157 1.3281 0 0 1.00104 1.08407e-05
137 22.5022 2.50072 0.481831 0 0 1.00104 1.23746e-05
140 22.8033 3.4406 1.21093 0 0 1.00104 1.7061e-05
139 23.5246 3.00028 1.49488 0 0 1.00104 1.42135e-05
62 24.7684 2.04624 0.7137 0 0 1.00103 9.71945e-06
64 23.8911 2.12654 1.36088 0 0 1.00104 1.06657e-05
141 24.1956 2.76531 0.612152 0 0 1.00104 1.24748e-05
143 24.9607 2.91719 1.535 0 0 1.00103 1.29896e-05
68 25.498 1.99923 1.4216 0 0 1.00103 9.4903e-06
147 26.3614 2.58368 1.35056 0 0 1.00103 1.04776e-05
145 25.5985 2.72936 0.535415 0 0 1.00103 1.13732e-05
146 26.3931 3.48126 0.678432 0 0 1.00103 1.273e-05
148 25.7802 3.51837 1.50664 0 0 1.00103 1.37923e-05
70 27.8636 1.91337 0.372145 0 0 1.00104 6.55536e-06
149 26.9593 2.54764 0.498967 0 0 1.00103 9.18367e-06
152 27.0801 3.39475 1.51386 0 0 1.00103 1.15484e-05
151 27.8831 2.64182 1.20835 0 0 1.00104 7.97978e-06
150 27.6254 3.41845 0.609965 0 0 1.00103 1.02181e-05
153 28.65 2.65133 0.334816 0 0 1.00104 6.79721e-06
156 28.7501 3.32966 1.17194 0 0 1.00104 8.01422e-06
993 28.8382 2.2694 1.50017 0 0 1.00104 6.07759e-06
155 29.7636 2.40926 0.863972 0 0 1.00104 4.63146e-06
154 29.6466 3.12439 0.273458 0 0 1.00104 5.86979e-06
997 30.283 2.11791 1.68535 0 0 1.00104 3.70251e-06
159 31.2231 2.10684 0.908644 0 0 1.00104 1.90829e-06
160 30.5975 2.95806 0.98094 0 0 1.00104 3.62128e-06
239 31.5291 3.44504 0.953782 0 0 1.00104 2.70984e-06
998 31.4062 2.80711 1.71444 0 0 1.00104 2.38359e-06
237 30.6351 3.523 0.150158 0 0 1.00104 4.57462e-06
157 30.7005 2.13576 0.0303109 0 0 1.00104 2.7941e-06
158 31.5397 2.74726 0.066127 0 0 1.00104 1.92181e-06
164 0.830326 3.70448 0.896084 0 0 1.00103 6.53324e-06
241 0.769765 4.55952 0.443557 0 0 1.00103 7.12525e-06
162 1.59591 3.64737 0.0611277 0 0 1.00103 7.96182e-06
244 0.802141 5.19824 1.26185 0 0 1.00103 8.00081e-06
1081 1.08942 4.27811 1.7526 0 0 1.00104 7.64157e-06
243 1.76264 4.38464 0.961471 0 0 1.00103 9.55776e-06
168 2.44633 3.66329 0.8436 0 0 1.00103 9.95488e-06
247 3.23769 4.33924 1.09606 0 0 1.00103 1.31411e-05
166 3.27176 3.63144 0.171453 0 0 1.00103 1.18404e-05
245 2.56407 4.53612 0.263858 0 0 1.00103 1.15035e-05
248 2.30084 5.13602 1.33611 0 0 1.00103 1.21066e-05
1006 3.10442 3.61678 1.7518 0 0 1.00103 1.16977e-05
246 3.45314 5.01338 0.257595 0 0 1.00103 1.45595e-05
249 4.14471 4.1917 0.164389 0 0 1.00103 1.49176e-05
251 4.854 4.10337 1.13754 0 0 1.00103 1.64196e-05
252 3.96369 4.95453 1.24264 0 0 1.00103 1.64022e-05
331 5.03267 5.23993 1.18418 0 0 1.00103 1.98611e-05
250 5.04852 4.66091 0.292597 0 0 1.00103 1.81261e-05
253 5.80414 3.88225 0.298707 0 0 1.00103 1.75193e-05
255 6.58208 3.76709 0.998125 0 0 1.00103 1.85516e-05
256 5.85841 4.53885 1.23029 0 0 1.00103 1.98635e-05
254 6.7036 4.4392 0.229906 0 0 1.00103 2.10239e-05
335 6.72493 5.15391 0.933107 0 0 1.00103 2.42774e-05
1097 7.55605 3.53688 1.62377 0 0 1.00103 1.95633e-05
260 7.6209 4.16867 0.831771 0 0 1.00103 2.16454e-05
1177 7.60358 4.89583 1.58752 0 0 1.00103 2.55441e-05
337 7.49281 5.03383 0.109901 0 0 1.00103 2.49321e-05
258 8.38368 4.31357 0.00496193 0 0 1.00103 2.35967e-05
339 8.50081 5.02354 0.746589 0 0 1.00103 2.72629e-05
1098 8.50614 4.29286 1.46353 0 0 1.00103 2.40293e-05
1101 9.25084 3.58275 1.44456 0 0 1.00103 2.12512e-05
264 9.34892 4.28741 0.68998 0 0 1.00103 2.48516e-05
1181 9.52033 4.98158 1.47949 0 0 1.00103 2.95637e-05
263 10.1656 3.62194 0.783292 0 0 1.00103 2.19553e-05
262 10.2764 4.4702 0.00106714 0 0 1.00103 2.68793e-05
1102 10.3169 4.30544 1.55894 0 0 1.00103 2.63436e-05
268 11.0795 4.40108 0.788417 0 0 1.00103 2.72912e-05
265 10.9674 3.67126 0.0844398 0 0 1.00104 2.28631e-05
343 10.2692 5.10701 0.748953 0 0 1.00103 3.05665e-05
1185 11.2767 5.14566 1.48712 0 0 1.00103 3.2666e-05
345 11.1957 5.27236 0.0560317 0 0 1.00103 3.22296e-05
267 11.818 3.78775 0.875357 0 0 1.00103 2.31897e-05
266 11.8975 4.66162 0.0159458 0 0 1.00103 2.82821e-05
1106 11.9336 4.39128 1.72486 0 0 1.00103 2.77245e-05
269 12.6398 4.03086 0.204535 0 0 1.00103 2.44861e-05
1109 12.6338 3.70713 1.67006 0 0 1.00103 2.41881e-05
272 12.833 4.57223 1.00066 0 0 1.00103 2.86058e-05
347 12.098 5.16766 0.869512 0 0 1.00103 3.21327e-05
270 13.5085 4.94687 0.190884 0 0 1.00103 2.92953e-05
271 13.5837 4.01101 1.04726 0 0 1.00104 2.59592e-05
273 13.9057 4.10633 0.0487989 0 0 1.00103 2.43309e-05
1113 14.3204 4.48487 1.71667 0 0 1.00104 2.84756e-05
275 14.6225 4.38305 0.753862 0 0 1.00104 2.72939e-05
1034 14.8641 3.8525 1.58965 0 0 1.00104 2.36901e-05
200 15.3365 3.92336 0.693765 0 0 1.00104 2.36753e-05
277 15.6016 4.67229 0.0886284 0 0 1.00104 2.71686e-05
1117 15.7613 4.88893 1.48892 0 0 1.00104 3.03733e-05
279 16.5562 5.06157 0.840057 0 0 1.00104 3.03618e-05
198 16.2846 4.13406 0.10614 0 0 1.00104 2.26238e-05
1038 16.4532 4.36489 1.60807 0 0 1.00104 2.50761e-05
204 17.0076 4.178 0.879483 0 0 1.00103 2.34299e-05
281 17.3113 4.96351 0.126529 0 0 1.00104 2.73483e-05
1121 17.4739 5.23479 1.67244 0 0 1.00104 3.14927e-05
1042 17.7279 4.25238 1.65697 0 0 1.00103 2.50715e-05
283 18.0283 5.00107 0.892982 0 0 1.00103 2.82338e-05
208 18.5312 4.26063 0.785821 0 0 1.00103 2.28531e-05
209 19.8733 3.67247 0.206701 0 0 1.00103 1.9092e-05
285 18.8175 5.13217 0.0501526 0 0 1.00103 2.81749e-05
1046 19.1513 4.22895 1.62396 0 0 1.00103 2.34241e-05
287 19.4653 5.16304 1.07937 0 0 1.00103 2.90898e-05
206 19.3601 4.43398 0.081464 0 0 1.00103 2.29379e-05
212 20.0096 4.41379 0.965106 0 0 1.00103 2.32931e-05
213 21.3523 3.88765 0.309028 0 0 1.00104 2.00294e-05
210 20.7396 4.58135 0.264893 0 0 1.00103 2.37812e-05
211 20.775 4.02742 1.27532 0 0 1.00104 2.13059e-05
216 21.5407 4.73986 1.17974 0 0 1.00104 2.41701e-05
214 22.2356 4.9824 0.504729 0 0 1.00104 2.45829e-05
215 22.2998 4.23808 1.39627 0 0 1.00104 2.0534e-05
217 22.9073 4.22338 0.599742 0 0 1.00104 2.05873e-05
220 23.0302 5.21052 1.29234 0 0 1.00103 2.51569e-05
138 23.6677 3.59556 0.711324 0 0 1.00104 1.62318e-05
142 25.0102 3.64058 0.745985 0 0 1.00103 1.50725e-05
16179 23.626 4.4269 0.0204445 0 0 1.00104 1.98474e-05
144 24.4453 3.87226 1.5161 0 0 1.00103 1.70533e-05
219 23.7839 4.64136 1.38232 0 0 1.00104 2.08571e-05
221 24.493 4.65205 0.747023 0 0 1.00103 1.95507e-05
223 25.3086 4.56505 1.54058 0 0 1.00103 1.83517e-05
227 26.4744 4.42415 1.51124 0 0 1.00103 1.54111e-05
225 25.8589 4.57587 0.723663 0 0 1.00103 1.65637e-05
229 26.9162 4.36457 0.590519 0 0 1.00103 1.39678e-05
232 27.1935 5.17794 1.36258 0 0 1.00103 1.54704e-05
231 27.8628 4.09241 1.3938 0 0 1.00103 1.14046e-05
230 27.8223 4.83294 0.574455 0 0 1.00104 1.32163e-05
233 28.5737 3.85953 0.332252 0 0 1.00104 9.27457e-06
236 28.6719 4.63379 1.11687 0 0 1.00104 1.07467e-05
235 29.7885 3.68822 1.17268 0 0 1.00104 6.55029e-06
234 29.5554 4.26995 0.451074 0 0 1.00104 7.61927e-06
315 29.7869 4.99396 1.28891 0 0 1.00104 8.13069e-06
240 30.5989 4.34607 1.02281 0 0 1.00104 5.44537e-06
238 31.5955 4.10259 0.336147 0 0 1.00104 2.87393e-06
317 30.8608 4.95331 0.45908 0 0 1.00104 4.77797e-06
319 31.6319 4.71327 1.35675 0 0 1.00104 3.144e-06
242 1.6446 5.28917 0.442178 0 0 1.00103 1.00278e-05
323 1.5896 5.95795 1.26725 0 0 1.00103 1.06957e-05
324 1.07078 6.81908 1.45115 0 0 1.00103 9.52742e-06
321 0.774152 5.96486 0.444808 0 0 1.00103 8.22474e-06
398 0.26484 7.00371 0.592279 0 0 1.00103 6.92782e-06
399 0.225211 6.2286 1.36276 0 0 1.00103 6.42959e-06
322 1.78443 6.64585 0.548534 0 0 1.00103 1.17228e-05
328 2.54452 6.55957 1.22712 0 0 1.00103 1.42737e-05
325 2.67289 5.73899 0.465887 0 0 1.00103 1.36547e-05
327 3.14637 5.62023 1.34186 0 0 1.00103 1.52593e-05
326 3.35465 6.50295 0.448231 0 0 1.00103 1.7163e-05
332 4.13953 6.22167 1.12686 0 0 1.00103 1.91889e-05
329 4.29013 5.5253 0.439178 0 0 1.00103 1.81385e-05
330 4.98651 6.1364 0.210951 0 0 1.00104 2.1933e-05
411 5.02103 6.67899 1.14773 0 0 1.00104 2.33023e-05
409 4.20656 6.9407 0.315811 0 0 1.00104 2.0902e-05
336 5.82317 5.82371 1.12331 0 0 1.00103 2.41315e-05
333 5.81978 5.30667 0.276205 0 0 1.00103 2.20666e-05
334 6.65915 5.94346 0.130031 0 0 1.00103 2.68566e-05
415 6.64193 6.45307 0.958772 0 0 1.00103 2.8373e-05
413 5.78366 6.64371 0.201795 0 0 1.00104 2.56337e-05
340 7.63782 5.69553 0.89493 0 0 1.00103 2.87179e-05
417 7.75438 6.39486 0.102031 0 0 1.00103 3.20573e-05
420 7.71505 6.87462 1.04294 0 0 1.00103 3.36816e-05
1257 7.66478 6.09237 1.76156 0 0 1.00103 3.14459e-05
1178 8.59426 5.61758 1.56557 0 0 1.00103 3.13767e-05
419 8.65875 6.45589 0.692825 0 0 1.00103 3.49374e-05
344 9.37923 5.67001 0.667478 0 0 1.00103 3.21921e-05
1261 9.57176 6.20174 1.51689 0 0 1.00103 3.69001e-05
1258 8.68485 6.77872 1.64469 0 0 1.00103 3.71021e-05
424 9.70906 7.00715 0.838673 0 0 1.00103 4.0361e-05
423 10.4605 6.44462 0.65765 0 0 1.00103 3.87803e-05
1182 10.5765 5.80308 1.44428 0 0 1.00103 3.60107e-05
348 11.3905 6.06968 0.713108 0 0 1.00103 3.78024e-05
1265 11.4194 6.66919 1.56279 0 0 1.00102 4.31085e-05
346 12.1499 6.04299 0.0805837 0 0 1.00103 3.85935e-05
1186 12.1807 5.96633 1.47153 0 0 1.00103 3.90614e-05
349 12.9187 5.58463 0.0172088 0 0 1.00103 3.46468e-05
352 13.0549 6.3092 0.780279 0 0 1.00103 4.12733e-05
427 12.3005 6.89238 0.799697 0 0 1.00103 4.45785e-05
1269 13.2416 6.9369 1.53517 0 0 1.00103 4.79307e-05
351 13.4462 5.53658 1.05061 0 0 1.00103 3.55302e-05
1190 14.0184 6.4821 1.3446 0 0 1.00104 4.27776e-05
276 14.3437 5.3194 0.865052 0 0 1.00103 3.32769e-05
356 14.5984 6.79573 0.580393 0 0 1.00103 4.42029e-05
1114 15.0987 5.52398 1.58716 0 0 1.00104 3.58535e-05
355 15.1709 6.18595 0.792514 0 0 1.00104 3.94796e-05
1194 15.4994 6.98079 1.41353 0 0 1.00104 4.58207e-05
280 15.7871 5.5347 0.754683 0 0 1.00104 3.48363e-05
357 15.9245 6.22866 0.0162342 0 0 1.00104 3.87111e-05
1197 16.2174 6.44906 1.45604 0 0 1.00104 4.24814e-05
278 16.6375 5.63194 0.0325027 0 0 1.00104 3.29704e-05
359 16.8887 6.56069 0.799883 0 0 1.00104 4.1285e-05
1118 16.9309 5.94066 1.69265 0 0 1.00104 3.79148e-05
361 17.4693 6.56732 0.0390241 0 0 1.00104 3.93974e-05
284 17.5769 5.97353 0.956069 0 0 1.00104 3.55665e-05
363 18.3036 6.92556 1.13627 0 0 1.00104 4.12494e-05
282 18.2091 5.86756 0.235503 0 0 1.00103 3.33141e-05
288 18.7529 5.95409 1.20788 0 0 1.00103 3.46888e-05
365 18.8732 6.84276 0.359769 0 0 1.00103 4.0449e-05
367 19.4271 6.95962 1.2991 0 0 1.00103 4.17488e-05
286 19.4394 6.01771 0.462473 0 0 1.00103 3.43633e-05
289 20.2126 5.40396 0.357487 0 0 1.00103 2.94056e-05
292 20.29 6.13884 1.18276 0 0 1.00103 3.49747e-05
291 21.0064 5.55572 1.12968 0 0 1.00104 2.93315e-05
293 21.5073 5.76666 0.366693 0 0 1.00103 2.96202e-05
290 21.0124 6.70317 0.623591 0 0 1.00104 3.64272e-05
296 21.6713 6.70891 1.37083 0 0 1.00103 3.60086e-05
295 22.1708 5.7993 1.32551 0 0 1.00103 3.00052e-05
294 22.235 6.91674 0.633814 0 0 1.00103 3.47565e-05
297 22.915 6.10755 0.757253 0 0 1.00103 2.94067e-05
16260 23.0861 6.95018 0.0379171 0 0 1.00103 3.26742e-05
218 23.7315 5.43597 0.55105 0 0 1.00103 2.41286e-05
299 23.7766 6.35863 1.28727 0 0 1.00103 2.91125e-05
224 24.5617 5.63151 1.32736 0 0 1.00103 2.37856e-05
301 24.6402 6.25797 0.540777 0 0 1.00103 2.52828e-05
226 26.4344 5.38384 0.435433 0 0 1.00103 1.76094e-05
222 25.2971 5.41778 0.629074 0 0 1.00103 2.08274e-05
228 25.9885 5.50715 1.53382 0 0 1.00103 1.97543e-05
303 25.4547 6.4584 1.43981 0 0 1.00103 2.41594e-05
305 25.9019 6.32508 0.562276 0 0 1.00103 2.19743e-05
307 26.7002 6.19319 1.3549 0 0 1.00103 1.96928e-05
306 26.7488 6.93527 0.680329 0 0 1.00103 2.06566e-05
311 28.178 5.67578 1.39112 0 0 1.00104 1.37902e-05
309 27.4165 5.88516 0.632671 0 0 1.00103 1.63648e-05
312 27.6479 6.82063 1.45743 0 0 1.00103 1.75451e-05
310 28.3897 6.35237 0.691774 0 0 1.00103 1.37705e-05
313 29.0219 5.37504 0.67459 0 0 1.00104 1.04049e-05
316 29.2239 6.18861 1.43783 0 0 1.00104 1.13352e-05
393 29.3547 6.89023 0.653881 0 0 1.00103 1.13558e-05
16276 29.2777 6.0314 0.0186345 0 0 1.00103 1.03983e-05
314 30.1415 5.76176 0.796531 0 0 1.00104 7.6448e-06
16355 30.197 6.60985 0.0621025 0 0 1.00103 8.35866e-06
395 30.2582 6.67205 1.29994 0 0 1.00104 8.06324e-06
318 31.696 5.48833 0.570947 0 0 1.00103 3.65755e-06
320 30.9664 5.72909 1.41644 0 0 1.00104 5.38765e-06
397 31.1639 6.44237 0.612361 0 0 1.00103 5.15938e-06
401 1.10298 7.52723 0.613741 0 0 1.00103 9.43358e-06
404 1.18577 8.38574 1.43115 0 0 1.00103 1.00504e-05
478 0.513369 8.62483 0.396997 0 0 1.00104 7.38958e-06
479 0.328404 7.88363 1.26498 0 0 1.00103 6.96114e-06
402 1.7301 8.19999 0.558348 0 0 1.00103 1.22838e-05
403 1.94936 7.48881 1.43959 0 0 1.00103 1.29244e-05
405 2.4649 7.32518 0.386989 0 0 1.00103 1.44012e-05
408 2.63712 8.07653 1.43635 0 0 1.00104 1.64852e-05
406 3.1408 7.98539 0.379943 0 0 1.00103 1.85355e-05
407 3.32577 7.17312 1.25962 0 0 1.00104 1.80523e-05
487 3.28799 8.70558 1.16273 0 0 1.00103 1.95754e-05
412 4.02754 7.70011 0.915414 0 0 1.00104 2.22932e-05
410 4.85677 7.50829 0.0337468 0 0 1.00104 2.47167e-05
491 4.96463 8.06585 0.826842 0 0 1.00104 2.6875e-05
1250 4.88742 7.38837 1.73295 0 0 1.00104 2.60865e-05
1329 4.21959 8.31838 1.6596 0 0 1.00104 2.44917e-05
489 4.01219 8.47378 0.0927625 0 0 1.00104 2.28134e-05
1333 5.83577 7.86268 1.59719 0 0 1.00104 3.17492e-05
416 5.81025 7.18868 0.945396 0 0 1.00104 2.81618e-05
495 6.47782 7.7523 0.586929 0 0 1.00104 3.26121e-05
1334 6.50857 8.51352 1.17113 0 0 1.00103 3.61468e-05
1330 5.15728 8.79776 1.54543 0 0 1.00103 2.96964e-05
414 7.07639 7.13421 0.209877 0 0 1.00103 3.21605e-05
1337 7.42717 7.70844 1.20147 0 0 1.00104 3.79134e-05
500 7.43338 8.41435 0.492043 0 0 1.00103 3.94219e-05
499 8.50208 7.50027 0.721934 0 0 1.00104 3.89575e-05
1338 8.48097 8.28594 1.16649 0 0 1.00103 4.44186e-05
501 9.56213 7.68078 0.0442573 0 0 1.00103 4.34579e-05
1341 9.51761 7.74258 1.35983 0 0 1.00103 4.54372e-05
504 9.42156 8.47753 0.557197 0 0 1.00103 4.84104e-05
503 10.503 8.03388 0.671717 0 0 1.00102 4.90187e-05
1262 10.6601 7.28444 1.38177 0 0 1.00103 4.56323e-05
428 11.4223 7.41485 0.688203 0 0 1.00102 4.72255e-05
1345 11.5247 8.1964 1.37159 0 0 1.00103 5.36196e-05
1342 10.3217 8.66457 1.36294 0 0 1.00103 5.35866e-05
507 12.2205 8.49156 0.657459 0 0 1.00103 5.57582e-05
1266 12.4219 7.64268 1.42303 0 0 1.00102 5.20123e-05
429 12.9998 7.17976 0.0121995 0 0 1.00103 4.67518e-05
432 13.1509 7.87987 0.707652 0 0 1.00103 5.25063e-05
1349 13.2848 8.58969 1.39084 0 0 1.00103 5.97134e-05
1270 14.0182 7.91786 1.49858 0 0 1.00103 5.48797e-05
431 14.0291 7.49545 0.590108 0 0 1.00103 4.861e-05
1273 14.8369 7.47499 1.47755 0 0 1.00104 5.30514e-05
436 14.8871 8.40947 0.774524 0 0 1.00103 5.71437e-05
435 15.5729 7.82332 0.560025 0 0 1.00104 5.11388e-05
1274 15.7344 8.604 1.58538 0 0 1.00104 6.21939e-05
360 16.24 7.22312 0.662346 0 0 1.00104 4.63578e-05
1277 16.3363 7.99585 1.39671 0 0 1.00105 5.41137e-05
437 16.4543 8.31827 0.0537209 0 0 1.00104 5.36752e-05
439 17.1411 8.39662 0.903753 0 0 1.00104 5.48125e-05
1198 17.2014 7.71134 1.69847 0 0 1.00105 5.18253e-05
364 17.5389 7.50994 0.84335 0 0 1.00104 4.6235e-05
441 17.7837 8.61238 0.142928 0 0 1.00104 5.33623e-05
443 18.2713 8.62109 1.07005 0 0 1.00104 5.4464e-05
362 18.345 7.68576 0.300466 0 0 1.00104 4.64192e-05
368 18.9663 7.95003 1.07097 0 0 1.00103 4.81049e-05
445 18.9743 8.81089 0.27433 0 0 1.00103 5.43444e-05
366 19.6886 8.02153 0.212486 0 0 1.00103 4.69009e-05
369 20.0903 7.10295 0.595066 0 0 1.00103 4.0824e-05
372 20.1311 7.99088 1.15159 0 0 1.00103 4.87131e-05
370 20.7924 8.41589 0.61324 0 0 1.00103 4.6936e-05
371 21.0195 7.63451 1.34992 0 0 1.00103 4.34279e-05
373 21.6281 7.87707 0.590178 0 0 1.00103 4.12617e-05
300 23.0702 7.09976 1.33643 0 0 1.00103 3.44508e-05
374 22.3272 8.77582 0.579287 0 0 1.00103 4.43998e-05
375 22.3565 7.88984 1.29635 0 0 1.00103 4.10469e-05
377 23.1177 8.00472 0.661124 0 0 1.00103 3.80549e-05
298 23.9383 7.10367 0.624938 0 0 1.00103 3.0724e-05
304 24.7266 7.18009 1.26774 0 0 1.00103 2.91719e-05
379 24.0129 8.05179 1.19821 0 0 1.00103 3.54433e-05
381 24.6601 8.08132 0.307429 0 0 1.00103 3.20461e-05
384 24.7724 8.78207 1.08245 0 0 1.00103 3.43179e-05
302 25.3355 7.20591 0.448619 0 0 1.00103 2.65751e-05
308 26.2303 7.1973 1.59436 0 0 1.00103 2.40547e-05
383 25.5352 7.89369 1.19004 0 0 1.00103 2.84092e-05
382 25.5399 8.67761 0.312208 0 0 1.00103 2.98926e-05
385 26.2688 7.89064 0.493917 0 0 1.00103 2.46574e-05
388 26.2999 8.6954 1.22547 0 0 1.00103 2.69949e-05
387 26.9635 7.7715 1.40866 0 0 1.00103 2.23089e-05
389 27.7382 7.34243 0.621604 0 0 1.00103 1.75781e-05
386 27.1354 8.41293 0.39102 0 0 1.00103 2.23883e-05
392 27.8424 8.19206 1.30255 0 0 1.00103 1.90359e-05
391 28.6023 7.28272 1.37458 0 0 1.00103 1.44091e-05
390 28.6576 7.86045 0.511544 0 0 1.00103 1.46183e-05
471 28.772 8.73172 1.20948 0 0 1.00103 1.55876e-05
396 29.5328 7.77012 1.23886 0 0 1.00103 1.14464e-05
473 29.5917 8.42621 0.41822 0 0 1.00103 1.12642e-05
475 30.386 8.19133 1.2761 0 0 1.00103 8.08764e-06
394 30.4176 7.42452 0.496351 0 0 1.00103 7.88758e-06
400 31.1503 7.35421 1.17745 0 0 1.00103 5.09325e-06
480 31.2602 8.7723 1.19202 0 0 1.00103 4.81874e-06
477 31.4496 8.08705 0.387324 0 0 1.00103 4.19388e-06
484 1.04078 9.81387 0.91276 0 0 1.00103 9.32313e-06
481 1.15693 9.18663 0.117739 0 0 1.00103 9.71868e-06
1322 1.64041 9.80246 1.71914 0 0 1.00103 1.24144e-05
559 0.309149 9.34989 1.12989 0 0 1.00103 6.39022e-06
558 0.254041 10.0514 0.0610444 0 0 1.00103 5.6919e-06
483 1.85812 9.00872 1.16177 0 0 1.00103 1.32002e-05
482 1.89557 9.87686 0.239092 0 0 1.00103 1.33188e-05
485 2.59667 8.90168 0.402282 0 0 1.00103 1.62674e-05
488 2.63769 9.72769 0.976503 0 0 1.00104 1.68946e-05
1405 2.45899 10.4212 1.56518 0 0 1.00103 1.69422e-05
567 3.36904 10.183 0.712653 0 0 1.00104 2.084e-05
486 3.43117 9.46704 0.0858025 0 0 1.00104 2.06369e-05
1326 3.62599 9.35453 1.65246 0 0 1.00104 2.22245e-05
492 4.29083 9.07939 0.741821 0 0 1.00104 2.46316e-05
1409 4.41092 9.76368 1.41834 0 0 1.00104 2.64319e-05
571 4.98486 9.76022 0.48609 0 0 1.00104 2.92289e-05
1410 5.06413 10.394 1.32318 0 0 1.00104 3.12124e-05
496 5.62834 8.81456 0.580811 0 0 1.00104 3.14567e-05
575 6.49243 9.33809 0.447305 0 0 1.00103 3.75845e-05
1413 5.81323 9.48239 1.42514 0 0 1.00104 3.48747e-05
1414 6.58403 9.9459 1.18667 0 0 1.00104 3.95692e-05
576 5.68863 10.3255 0.374549 0 0 1.00104 3.48785e-05
1417 7.47429 9.06766 1.19639 0 0 1.00103 4.26097e-05
579 8.23477 9.11799 0.457052 0 0 1.00103 4.61602e-05
580 7.30179 9.92064 0.362365 0 0 1.00103 4.36631e-05
1418 8.27162 9.87486 1.10546 0 0 1.00103 5.05849e-05
1421 9.14916 9.0666 1.30337 0 0 1.00103 5.12929e-05
584 9.2253 9.81897 0.648894 0 0 1.00103 5.37901e-05
1501 9.23019 10.5565 1.27963 0 0 1.00103 5.91445e-05
1422 10.1987 10.059 1.35264 0 0 1.00103 6.21242e-05
583 10.2416 9.37786 0.649509 0 0 1.00103 5.6295e-05
508 11.2379 8.91899 0.653308 0 0 1.00103 5.66964e-05
1425 11.2581 9.5682 1.3781 0 0 1.00103 6.39569e-05
588 10.9205 10.2968 0.543944 0 0 1.00103 6.45491e-05
587 11.9546 9.76476 0.655454 0 0 1.00103 6.43631e-05
1346 12.4023 8.90593 1.57574 0 0 1.00103 6.12393e-05
512 12.9349 9.38641 0.713424 0 0 1.00103 6.34633e-05
1429 12.963 10.0135 1.49611 0 0 1.00103 7.07119e-05
589 12.6681 10.2908 0.186888 0 0 1.00103 6.84863e-05
1426 12.0186 10.3775 1.47583 0 0 1.00103 7.20968e-05
510 13.5727 9.72402 0.0416081 0 0 1.00103 6.57948e-05
1350 13.8903 9.57664 1.58785 0 0 1.00103 6.88712e-05
511 13.957 8.93535 0.691096 0 0 1.00103 6.08058e-05
1353 14.6751 8.93396 1.61933 0 0 1.00103 6.48944e-05
516 14.6565 9.84881 0.942887 0 0 1.00103 6.76867e-05
591 13.7239 10.4185 0.978777 0 0 1.00103 7.21742e-05
514 15.2324 10.1801 0.0545436 0 0 1.00103 6.91294e-05
515 15.4932 9.32979 0.872467 0 0 1.00103 6.42119e-05
1354 15.5025 10.0516 1.69571 0 0 1.00103 7.31635e-05
517 16.1805 9.89888 0.215208 0 0 1.00103 6.52121e-05
440 16.4382 9.0627 0.835437 0 0 1.00104 6.03624e-05
520 16.1151 10.5507 1.03442 0 0 1.00103 7.07905e-05
519 17.0627 10.0381 1.02675 0 0 1.00103 6.77435e-05
438 17.1453 9.34778 0.141298 0 0 1.00104 5.91558e-05
521 17.5544 10.4375 0.221202 0 0 1.00103 6.63633e-05
444 17.888 9.54636 1.1404 0 0 1.00104 6.22587e-05
523 18.3649 10.5791 0.96988 0 0 1.00103 6.78334e-05
442 18.362 9.64415 0.25928 0 0 1.00103 6.03605e-05
447 19.6288 8.93063 1.01555 0 0 1.00103 5.32538e-05
448 19.0312 9.78212 1.05347 0 0 1.00103 6.06535e-05
446 19.5837 10.0512 0.109666 0 0 1.00103 5.85542e-05
376 21.635 8.89705 1.30731 0 0 1.00103 4.78061e-05
452 20.1651 10.0735 0.959075 0 0 1.00103 6.02257e-05
449 20.263 9.24898 0.235888 0 0 1.00103 5.18363e-05
451 20.7937 9.34599 1.18312 0 0 1.00103 5.41744e-05
453 21.5163 9.41652 0.387555 0 0 1.00102 5.09428e-05
450 20.9486 10.2541 0.233817 0 0 1.00102 5.65245e-05
456 21.5326 10.4103 1.02362 0 0 1.00103 5.56287e-05
380 23.1103 9.1031 1.12812 0 0 1.00102 4.34408e-05
455 22.3171 9.86013 1.06427 0 0 1.00103 5.00181e-05
454 22.3045 10.5683 0.233415 0 0 1.00103 5.0733e-05