ITEM: TIMESTEP
22000
ITEM: NUMBER OF ATOMS
32000
ITEM: BOX BOUNDS pp pp pp
0.0000000000000000e+00 3.1748021039364001e+01
0.0000000000000000e+00 3.1748021039364001e+01
0.0000000000000000e+00 3.1748021039364001e+01
ITEM: ATOMS id x y z c_phase c_nbond c_rho v_omega
4 0.190452 1.11346 0.467686 0 0 1.00069 1.71407e-06
83 1.08637 1.61651 0.779874 0 0 1.00069 3.79343e-06
842 0.772307 0.760145 1.40702 0 0 1.00069 2.35941e-06
921 0.11951 1.62236 1.37781 0 0 1.00069 2.2347e-06
3 0.735242 0.0354065 0.618326 0 0 1.00069 1.42976e-06
8 1.7682 0.719445 1.013 0 0 1.00069 3.55631e-06
85 1.91003 1.37614 0.213546 0 0 1.00069 4.8356e-06
925 1.94765 1.54282 1.74874 0 0 1.00069 5.09196e-06
6 2.57098 0.592891 0.19877 0 0 1.00069 4.53077e-06
87 2.75845 1.37835 0.871337 0 0 1.00069 6.09256e-06
846 2.73358 0.656645 1.73319 0 0 1.00069 4.68358e-06
12 3.49584 0.716379 0.955537 0 0 1.00069 5.93652e-06
929 3.73597 1.48005 1.70545 0 0 1.00069 7.6635e-06
10 4.17591 0.612609 0.313567 0 0 1.00069 6.26625e-06
850 4.40201 0.680017 1.6283 0 0 1.00069 7.00006e-06
91 4.15353 1.58701 0.711887 0 0 1.00069 8.64918e-06
16 5.0209 0.283299 1.14724 0 0 1.00069 6.2176e-06
93 5.05193 1.31375 0.380024 0 0 1.00069 8.95769e-06
14 5.70495 0.339385 0.309828 0 0 1.00069 6.99818e-06
95 5.99661 0.997132 0.947142 0 0 1.00069 8.85265e-06
854 5.82999 0.145392 1.69509 0 0 1.00069 6.40871e-06
933 5.16272 1.40844 1.43513 0 0 1.00069 9.58513e-06
97 6.69807 1.06718 0.216529 0 0 1.00069 9.32477e-06
20 6.74228 0.0689643 0.865992 0 0 1.00069 6.51014e-06
937 6.78059 0.673263 1.69158 0 0 1.00069 8.33442e-06
24 8.29366 0.0658333 1.05667 0 0 1.00069 6.64894e-06
99 7.48198 0.883066 0.947689 0 0 1.00069 9.21303e-06
941 8.2705 0.910862 1.61416 0 0 1.00069 1.00688e-05
18 7.64029 0.315648 0.151656 0 0 1.00069 7.35235e-06
938 7.5072 1.70138 1.56484 0 0 1.00069 1.24343e-05
101 8.38459 1.04529 0.230208 0 0 1.00069 1.00076e-05
22 8.9009 0.164938 0.255759 0 0 1.00069 6.75975e-06
28 9.58368 0.00469874 0.901322 0 0 1.00069 5.41119e-06
103 9.15247 0.967553 1.09268 0 0 1.00069 9.81198e-06
945 9.70245 0.640066 1.76071 0 0 1.00069 8.05593e-06
105 9.78289 1.03261 0.104828 0 0 1.00069 9.6856e-06
108 10.0105 1.68717 1.09271 0 0 1.00069 1.27382e-05
107 10.4886 0.749288 0.830821 0 0 1.00069 8.36531e-06
949 11.4243 0.739085 1.41796 0 0 1.00069 7.9385e-06
946 10.7884 1.38297 1.72399 0 0 1.00069 1.15518e-05
26 10.277 0.0573353 0.0799818 0 0 1.00069 5.47689e-06
112 11.3993 1.56051 0.777416 0 0 1.00069 1.20651e-05
36 12.9038 0.035503 0.639222 0 0 1.00069 3.44939e-06
111 12.1741 0.846604 0.516435 0 0 1.00069 7.89756e-06
870 12.1627 0.081981 1.30607 0 0 1.00069 4.42237e-06
953 12.8881 0.993242 1.37527 0 0 1.00069 8.36346e-06
950 12.1934 1.68006 1.46468 0 0 1.00069 1.24486e-05
116 12.9483 1.75071 0.606774 0 0 1.00069 1.23103e-05
40 14.4209 0.243196 0.779261 0 0 1.00069 3.5681e-06
115 13.7439 0.981472 0.841333 0 0 1.00069 7.68306e-06
117 14.2752 1.44302 0.15524 0 0 1.00069 1.00361e-05
874 13.6587 0.217268 1.63604 0 0 1.00069 3.77009e-06
957 14.5447 1.08228 1.48186 0 0 1.00069 7.78457e-06
119 15.1045 1.51176 0.668855 0 0 1.00069 9.81763e-06
44 15.8267 0.777748 0.79077 0 0 1.00069 5.81786e-06
878 15.2107 0.438414 1.63972 0 0 1.00069 3.93477e-06
882 16.6541 0.790127 1.34832 0 0 1.00069 5.71549e-06
961 15.8559 1.50835 1.40405 0 0 1.00069 1.00966e-05
38 15.1995 0.676889 0.0721782 0 0 1.00069 5.15537e-06
123 16.7763 1.63382 0.689921 0 0 1.00069 1.04386e-05
48 17.3734 0.861141 0.561473 0 0 1.00069 6.07446e-06
886 18.0348 0.933124 1.42683 0 0 1.00069 6.97414e-06
47 18.1583 0.117505 0.694205 0 0 1.00069 2.76719e-06
51 19.5503 0.277692 0.672624 0 0 1.00069 4.56073e-06
52 18.8975 0.969138 0.693384 0 0 1.00068 7.38982e-06
889 19.0421 0.404684 1.55014 0 0 1.00069 4.35066e-06
890 19.751 1.25665 1.69615 0 0 1.00069 1.00056e-05
969 18.8972 1.75224 1.50135 0 0 1.00069 1.19765e-05
55 21.175 0.688474 1.0749 0 0 1.00069 7.14512e-06
56 20.3621 1.08837 0.967627 0 0 1.00069 8.9534e-06
54 21.2916 1.12158 0.215381 0 0 1.00069 9.7941e-06
893 20.4508 0.196685 1.43188 0 0 1.00069 5.2377e-06
53 20.2838 0.178727 0.0722662 0 0 1.00069 5.05571e-06
57 22.0684 0.651095 0.540027 0 0 1.00069 7.92094e-06
59 22.876 0.816279 1.40538 0 0 1.00069 8.77913e-06
60 22.2764 1.5511 1.33263 0 0 1.00069 1.22376e-05
58 23.0345 1.45161 0.468977 0 0 1.00069 1.137e-05
63 24.3191 0.773467 1.42318 0 0 1.00069 9.01973e-06
61 23.6276 0.735709 0.573331 0 0 1.00069 8.73604e-06
62 24.5645 1.56759 0.745161 0 0 1.00068 1.16137e-05
64 23.644 1.64039 1.39172 0 0 1.00069 1.23631e-05
65 25.0173 0.691559 0.539449 0 0 1.00068 8.78662e-06
67 26.0515 0.729312 1.16698 0 0 1.00069 8.36343e-06
68 25.2936 1.51776 1.46001 0 0 1.00069 1.13682e-05
66 25.9935 1.30446 0.425347 0 0 1.00069 1.00999e-05
17548 25.1731 0.149415 1.36075 0 0 1.00069 7.06046e-06
70 27.6922 1.57116 0.38618 0 0 1.00069 8.99629e-06
71 27.664 0.788742 0.872458 0 0 1.00069 7.36041e-06
72 26.8482 1.35959 1.25453 0 0 1.00069 9.38139e-06
69 26.8242 0.564991 0.238983 0 0 1.00069 7.56906e-06
913 28.4223 0.592268 1.41129 0 0 1.00069 6.1437e-06
76 28.7466 1.46236 0.733788 0 0 1.00069 7.29373e-06
914 29.4572 1.14645 1.5679 0 0 1.00069 5.98901e-06
917 29.8388 0.323377 1.45677 0 0 1.00069 4.15331e-06
75 29.3063 0.541463 0.617826 0 0 1.00069 5.02863e-06
841 31.6085 0.298416 1.25651 0 0 1.00069 1.95611e-06
79 30.746 0.574675 0.476964 0 0 1.00069 3.40195e-06
80 30.1853 1.33237 0.772812 0 0 1.00069 5.15332e-06
918 30.9327 1.05641 1.38809 0 0 1.00069 3.79848e-06
82 1.27379 2.37197 0.120339 0 0 1.00069 5.20391e-06
84 0.296912 2.39146 0.807809 0 0 1.00069 3.44034e-06
163 1.49533 3.1437 0.941955 0 0 1.00069 6.6873e-06
922 1.30096 2.29458 1.58765 0 0 1.00069 5.21818e-06
1001 0.585347 3.02604 1.54908 0 0 1.00069 4.59543e-06
161 0.533509 3.09865 0.129198 0 0 1.00069 4.48307e-06
88 2.07823 2.29259 0.783173 0 0 1.00069 6.47207e-06
167 2.88227 3.0985 0.85516 0 0 1.00069 9.55188e-06
926 2.83812 2.06464 1.53637 0 0 1.00069 7.58463e-06
86 2.89333 2.21173 0.0520473 0 0 1.00069 7.90311e-06
1005 2.31782 2.95362 1.75195 0 0 1.00069 8.02233e-06
1009 3.51427 3.18248 1.6459 0 0 1.00069 1.12822e-05
92 3.57149 2.33851 0.782176 0 0 1.00069 9.41144e-06
171 4.44803 3.04488 0.754495 0 0 1.00069 1.2377e-05
930 4.35167 2.3735 1.57941 0 0 1.00069 1.07832e-05
96 5.11699 2.26629 0.818212 0 0 1.00069 1.17906e-05
94 5.8628 2.12163 0.140338 0 0 1.00069 1.22847e-05
175 5.93089 2.85825 0.954562 0 0 1.00069 1.4729e-05
934 6.05089 1.87277 1.4877 0 0 1.00069 1.16763e-05
173 5.25098 3.00996 0.0106486 0 0 1.00069 1.41305e-05
100 6.76103 1.84058 0.780479 0 0 1.00069 1.21739e-05
1017 6.82191 2.69421 1.5422 0 0 1.00069 1.54753e-05
177 6.90303 2.58642 0.12442 0 0 1.00069 1.47249e-05
98 7.66884 1.8716 0.133396 0 0 1.00069 1.29202e-05
104 8.32554 1.83402 0.935452 0 0 1.00069 1.32942e-05
179 7.70246 2.6807 0.906082 0 0 1.00069 1.63549e-05
180 6.84818 3.40238 0.783 0 0 1.00069 1.78412e-05
1018 7.79061 3.46406 1.50073 0 0 1.00069 2.00042e-05
1021 8.50898 2.60778 1.64165 0 0 1.00069 1.70157e-05
181 8.57967 2.59744 0.03825 0 0 1.00069 1.63567e-05
102 9.13933 1.75136 0.246195 0 0 1.00069 1.29996e-05
183 9.25861 2.59869 0.930754 0 0 1.00069 1.74867e-05
942 9.28777 1.85354 1.71459 0 0 1.00069 1.42022e-05
185 9.90544 2.56588 0.206793 0 0 1.00069 1.72043e-05
1022 9.49629 3.37602 1.50222 0 0 1.00069 2.23098e-05
184 8.6027 3.47484 0.704833 0 0 1.00069 2.06616e-05
182 9.40729 3.48575 0.0534597 0 0 1.00069 2.16356e-05
188 10.3038 3.22988 0.882878 0 0 1.00069 2.09202e-05
106 10.54 1.79422 0.197895 0 0 1.00069 1.33151e-05
187 10.9653 2.48522 0.919359 0 0 1.00069 1.67884e-05
1026 11.1499 3.25684 1.59473 0 0 1.00069 2.17268e-05
186 11.0533 3.50298 0.169874 0 0 1.00069 2.25515e-05
1029 11.8174 2.55543 1.59427 0 0 1.00069 1.80807e-05
192 11.866 3.34992 0.808226 0 0 1.00069 2.23537e-05
191 12.2896 2.41372 0.743343 0 0 1.00069 1.70085e-05
1033 13.2822 2.81128 1.69602 0 0 1.00069 1.91847e-05
196 12.9704 3.39135 0.81703 0 0 1.00069 2.31142e-05
195 13.6347 2.86028 0.840839 0 0 1.00069 1.86964e-05
954 13.6747 1.84526 1.47488 0 0 1.00069 1.25066e-05
120 14.3801 2.3349 0.925008 0 0 1.00069 1.54014e-05
1037 14.5379 3.27016 1.55718 0 0 1.00069 2.20384e-05
197 14.6004 3.12583 0.0431967 0 0 1.00069 2.02577e-05
114 13.7344 2.15093 0.0519586 0 0 1.00069 1.46908e-05
199 15.2117 3.37859 0.873403 0 0 1.00069 2.21179e-05
958 15.1563 2.27228 1.44701 0 0 1.00069 1.50774e-05
118 15.2152 2.46085 0.132817 0 0 1.00069 1.59613e-05
124 16.0573 2.46351 0.704459 0 0 1.00068 1.57343e-05
962 16.6954 2.55672 1.53096 0 0 1.00068 1.67337e-05
1041 15.8879 3.26976 1.50943 0 0 1.00069 2.14482e-05
201 16.0484 3.27257 0.0218797 0 0 1.00069 2.15116e-05
127 18.1615 1.77913 0.755055 0 0 1.00069 1.1703e-05
203 16.7886 3.28094 0.674955 0 0 1.00068 2.13741e-05
965 17.4894 1.8828 1.56449 0 0 1.00069 1.23485e-05
128 17.4244 2.49181 0.680063 0 0 1.00069 1.60431e-05
207 18.3698 3.14166 0.715956 0 0 1.00068 2.02467e-05
966 18.386 2.64161 1.598 0 0 1.00068 1.75793e-05
1045 17.5559 3.2668 1.50526 0 0 1.00068 2.12883e-05
131 19.7621 1.84598 0.843793 0 0 1.00069 1.25965e-05
129 19.0948 1.83082 0.00861405 0 0 1.00068 1.21256e-05
132 19.2341 2.64057 1.01693 0 0 1.00069 1.7287e-05
209 19.2988 3.28759 0.192384 0 0 1.00068 2.13907e-05
130 19.9274 2.62866 0.111869 0 0 1.00069 1.72498e-05
133 20.5582 1.84154 0.20484 0 0 1.00069 1.29185e-05
135 21.3163 1.99985 0.962021 0 0 1.00069 1.4038e-05
973 20.5812 2.1176 1.74308 0 0 1.00069 1.48922e-05
134 21.4881 2.80238 0.459797 0 0 1.00069 1.79029e-05
136 20.553 2.79787 1.09619 0 0 1.00069 1.87246e-05
213 20.8028 3.38369 0.328765 0 0 1.00069 2.17556e-05
137 22.1992 2.00135 0.516196 0 0 1.00069 1.40624e-05
139 23.1383 2.47458 1.51349 0 0 1.00069 1.60607e-05
138 23.2556 3.03768 0.729495 0 0 1.00069 1.80724e-05
140 22.3836 2.91466 1.237 0 0 1.00069 1.88559e-05
141 23.923 2.2312 0.621768 0 0 1.00069 1.42269e-05
143 24.6394 2.40295 1.58334 0 0 1.00069 1.49929e-05
142 24.6184 3.10851 0.772933 0 0 1.00069 1.74408e-05
144 23.9987 3.33082 1.53323 0 0 1.00069 1.93627e-05
16108 25.2327 3.22935 0.00512284 0 0 1.00069 1.69759e-05
147 26.103 2.11419 1.35679 0 0 1.00069 1.24784e-05
149 26.7165 2.13386 0.512542 0 0 1.00069 1.15907e-05
145 25.3218 2.24596 0.527451 0 0 1.00069 1.35738e-05
146 26.0406 2.99835 0.699545 0 0 1.00069 1.52283e-05
148 25.4199 2.98409 1.52152 0 0 1.00069 1.5917e-05
152 26.7589 2.93646 1.52829 0 0 1.00069 1.39927e-05
151 27.664 2.28629 1.22856 0 0 1.00069 1.05477e-05
150 27.3129 3.02197 0.63355 0 0 1.00069 1.29527e-05
233 28.2324 3.51716 0.338156 0 0 1.00069 1.24873e-05
153 28.4199 2.35059 0.344996 0 0 1.00069 9.61104e-06
156 28.4647 3.02321 1.19558 0 0 1.00069 1.09926e-05
993 28.6547 1.97493 1.50503 0 0 1.00069 8.58996e-06
155 29.5865 2.21742 0.880771 0 0 1.00069 7.43077e-06
154 29.3868 2.88399 0.286211 0 0 1.00069 8.95274e-06
235 29.4849 3.46673 1.18099 0 0 1.00069 9.73536e-06
997 30.1002 1.9605 1.70311 0 0 1.00069 6.48086e-06
159 31.0509 2.05805 0.922214 0 0 1.00069 4.87117e-06
160 30.3671 2.84326 0.997486 0 0 1.00069 6.79942e-06
239 31.249 3.41551 0.9725 0 0 1.00069 6.14477e-06
998 31.1731 2.76801 1.7267 0 0 1.00069 5.50063e-06
237 30.3426 3.39002 0.151455 0 0 1.00069 7.9462e-06
157 30.5399 2.02337 0.033022 0 0 1.00069 5.69183e-06
158 31.3211 2.72306 0.076792 0 0 1.00069 5.19044e-06
164 0.53608 3.77624 0.916916 0 0 1.00069 5.07154e-06
241 0.422482 4.6093 0.47133 0 0 1.00069 5.56351e-06
243 1.41869 4.57916 0.983078 0 0 1.00069 8.19759e-06
162 1.2901 3.79438 0.0689336 0 0 1.00069 6.70064e-06
244 0.405964 5.27155 1.27602 0 0 1.00069 6.12061e-06
168 2.11702 3.9108 0.849895 0 0 1.00068 8.92257e-06
247 2.85023 4.66403 1.12181 0 0 1.00069 1.20898e-05
166 2.93005 3.95242 0.19802 0 0 1.00069 1.11398e-05
245 2.19878 4.8125 0.280728 0 0 1.00069 1.02496e-05
249 3.73779 4.60019 0.167533 0 0 1.00069 1.43949e-05
172 3.76908 3.83181 0.884454 0 0 1.00069 1.26369e-05
251 4.40844 4.57416 1.15119 0 0 1.00069 1.63267e-05
170 4.55408 3.88303 0.143322 0 0 1.00069 1.46643e-05
250 4.57267 5.14462 0.319816 0 0 1.00069 1.78012e-05
176 5.22963 3.68185 1.1509 0 0 1.00069 1.59444e-05
253 5.36669 4.39614 0.325554 0 0 1.00069 1.81647e-05
174 6.08854 3.5787 0.17669 0 0 1.00069 1.74348e-05
255 6.09213 4.33636 1.02683 0 0 1.00069 1.99649e-05
254 6.18839 5.01224 0.279261 0 0 1.00069 2.20281e-05
256 5.34667 5.07116 1.28541 0 0 1.00069 2.0142e-05
1097 7.07135 4.11047 1.6455 0 0 1.00069 2.15804e-05
260 7.09724 4.73143 0.862974 0 0 1.00069 2.33689e-05
259 7.82295 4.04989 0.56287 0 0 1.00069 2.23431e-05
258 7.79761 4.92139 0.0300688 0 0 1.00069 2.59241e-05
1098 7.89409 4.94133 1.49276 0 0 1.00069 2.67833e-05
1101 8.6741 4.17594 1.47539 0 0 1.00069 2.45426e-05
264 8.7141 4.87886 0.699204 0 0 1.00069 2.77547e-05
263 9.56045 4.16237 0.809989 0 0 1.00069 2.56021e-05
1102 9.61006 4.8883 1.58163 0 0 1.00069 3.04749e-05
262 9.55818 5.04186 0.0203752 0 0 1.00069 3.02355e-05
268 10.3455 4.92289 0.797565 0 0 1.00069 3.09995e-05
265 10.3483 4.14961 0.121494 0 0 1.00069 2.61324e-05
1105 10.385 3.96828 1.65716 0 0 1.00069 2.58544e-05
267 11.1304 4.27832 0.896371 0 0 1.00069 2.76516e-05
1106 11.1372 4.8484 1.75359 0 0 1.00068 3.19188e-05
266 11.1033 5.17781 0.0162207 0 0 1.00069 3.3167e-05
269 11.9305 4.39596 0.213363 0 0 1.00069 2.82508e-05
1109 11.9245 4.08528 1.69184 0 0 1.00069 2.82966e-05
272 12.0223 4.95535 1.00897 0 0 1.00068 3.31452e-05
271 12.7751 4.30064 1.00787 0 0 1.00069 2.9363e-05
273 13.2018 4.38888 0.0581205 0 0 1.00068 2.9143e-05
1113 13.4432 4.73852 1.69404 0 0 1.00069 3.28249e-05
275 13.8403 4.54068 0.783601 0 0 1.00069 3.08613e-05
200 14.5697 4.01343 0.697044 0 0 1.00069 2.6554e-05
1034 14.0891 4.05291 1.59162 0 0 1.00069 2.78863e-05
1117 14.8937 5.00196 1.52565 0 0 1.00069 3.55583e-05
277 14.7815 4.78106 0.0823276 0 0 1.00069 3.17199e-05
194 13.7612 3.57131 0.00776241 0 0 1.00069 2.35327e-05
279 15.6341 5.00483 0.819849 0 0 1.00069 3.39186e-05
198 15.5366 4.15388 0.108548 0 0 1.00069 2.71469e-05
1038 15.6198 4.3768 1.59992 0 0 1.00069 2.9569e-05
204 16.2481 4.09864 0.909311 0 0 1.00068 2.71848e-05
281 16.5033 4.83292 0.17494 0 0 1.00069 3.19268e-05
1121 16.5409 5.09882 1.65427 0 0 1.00069 3.58467e-05
1042 16.9297 4.06749 1.68029 0 0 1.00068 2.78953e-05
283 17.2213 4.73608 0.909529 0 0 1.00068 3.16092e-05
208 17.8179 4.00484 0.80779 0 0 1.00068 2.5928e-05
285 18.0409 4.79495 0.0341575 0 0 1.00068 3.14992e-05
1046 18.4762 3.88746 1.65633 0 0 1.00068 2.60135e-05
287 18.6821 4.75744 1.09495 0 0 1.00068 3.17977e-05
206 18.666 4.09342 0.0764715 0 0 1.00068 2.60413e-05
212 19.3612 4.01359 0.964124 0 0 1.00069 2.60134e-05
289 19.4203 4.93747 0.358287 0 0 1.00069 3.23512e-05
210 20.0849 4.11175 0.251294 0 0 1.00069 2.62887e-05
211 20.1421 3.57628 1.27428 0 0 1.00069 2.3497e-05
291 20.2536 5.04384 1.11764 0 0 1.00069 3.23556e-05
215 21.7298 3.71377 1.39203 0 0 1.00069 2.27025e-05
216 20.908 4.22045 1.2284 0 0 1.00069 2.64118e-05
295 21.4358 5.17701 1.37462 0 0 1.00069 3.2613e-05
214 21.574 4.37908 0.517454 0 0 1.00069 2.6705e-05
293 20.7295 5.19174 0.352935 0 0 1.00069 3.22124e-05
217 22.3658 3.64028 0.607515 0 0 1.00069 2.25846e-05
16179 23.0802 3.84477 0.0461966 0 0 1.00069 2.21179e-05
219 23.2349 4.0722 1.40925 0 0 1.00069 2.33815e-05
220 22.4072 4.59751 1.31176 0 0 1.00069 2.7576e-05
218 23.094 4.81789 0.540086 0 0 1.00069 2.69075e-05
223 24.8247 3.9774 1.55776 0 0 1.00069 2.0848e-05
221 23.96 4.08275 0.772779 0 0 1.00069 2.22696e-05
222 24.7431 4.80789 0.63566 0 0 1.00069 2.39094e-05
224 23.9337 5.02756 1.34252 0 0 1.00069 2.71614e-05
228 25.4288 4.94767 1.59272 0 0 1.00069 2.315e-05
227 26.0382 3.91251 1.52009 0 0 1.00069 1.82498e-05
229 26.4843 3.89356 0.59605 0 0 1.00069 1.7002e-05
225 25.4023 4.07789 0.774733 0 0 1.00069 1.9653e-05
232 26.7159 4.69278 1.37433 0 0 1.00069 1.88412e-05
226 25.9168 4.84275 0.413899 0 0 1.00069 2.10205e-05
231 27.485 3.69273 1.41316 0 0 1.00069 1.43919e-05
311 27.6958 5.23999 1.40216 0 0 1.00069 1.76658e-05
236 28.2629 4.27979 1.11258 0 0 1.00069 1.42512e-05
230 27.385 4.39903 0.58259 0 0 1.00069 1.66366e-05
313 28.6008 5.03517 0.700068 0 0 1.00069 1.41645e-05
234 29.2003 4.01143 0.474459 0 0 1.00069 1.11967e-05
315 29.3902 4.75357 1.31752 0 0 1.00069 1.18945e-05
240 30.2603 4.21129 1.03045 0 0 1.00069 9.00016e-06
238 31.2806 4.05903 0.359071 0 0 1.00069 6.34791e-06
317 30.4974 4.83045 0.477135 0 0 1.00069 8.48731e-06
319 31.2676 4.68307 1.39145 0 0 1.00069 6.76851e-06
242 1.23677 5.4589 0.459615 0 0 1.00069 8.23474e-06
323 1.14799 6.14025 1.27678 0 0 1.00069 8.48937e-06
324 0.61503 6.91579 1.49078 0 0 1.00069 7.25982e-06
322 1.33255 6.85156 0.567903 0 0 1.00069 9.36545e-06
321 0.326289 6.01943 0.450564 0 0 1.00069 6.04748e-06
248 1.87285 5.38396 1.36775 0 0 1.00069 1.03832e-05
328 2.07725 6.86258 1.24192 0 0 1.00069 1.2068e-05
325 2.23941 6.0357 0.50167 0 0 1.00069 1.19595e-05
327 2.65159 5.96142 1.39602 0 0 1.00069 1.35448e-05
246 3.02756 5.38177 0.273036 0 0 1.00069 1.33925e-05
326 2.86788 6.90277 0.466202 0 0 1.00069 1.51669e-05
252 3.48602 5.36989 1.28291 0 0 1.00069 1.53329e-05
332 3.64474 6.67609 1.14053 0 0 1.00069 1.75432e-05
329 3.78985 5.98225 0.478588 0 0 1.00069 1.69072e-05
331 4.52972 5.75017 1.2213 0 0 1.00069 1.93646e-05
330 4.42607 6.66362 0.226551 0 0 1.00069 2.06181e-05
336 5.23331 6.41516 1.15679 0 0 1.00069 2.35947e-05
333 5.26385 5.86023 0.316662 0 0 1.00069 2.1844e-05
335 6.14009 5.78685 0.956046 0 0 1.00069 2.50989e-05
334 6.02699 6.59326 0.148286 0 0 1.00069 2.68209e-05
337 6.87625 5.63527 0.140341 0 0 1.00069 2.60753e-05
340 6.96494 6.37894 0.963275 0 0 1.00069 3.00783e-05
1177 6.96503 5.5324 1.59761 0 0 1.00069 2.68692e-05
339 7.8383 5.67414 0.758918 0 0 1.00069 2.94867e-05
1178 7.85389 6.32669 1.59429 0 0 1.00069 3.34219e-05
344 8.61383 6.34822 0.708948 0 0 1.00069 3.48594e-05
1181 8.80019 5.63221 1.49706 0 0 1.00069 3.26108e-05
343 9.48877 5.71934 0.742312 0 0 1.00069 3.39089e-05
1182 9.73389 6.45173 1.46278 0 0 1.00069 3.98044e-05
1261 8.70764 6.93479 1.55096 0 0 1.00069 3.94726e-05
1185 10.4036 5.72211 1.48251 0 0 1.00069 3.69053e-05
345 10.3847 5.81463 0.0876307 0 0 1.00069 3.60856e-05
347 11.2545 5.63355 0.930283 0 0 1.00069 3.62882e-05
346 11.2283 6.53842 0.123749 0 0 1.00069 4.23862e-05
1186 11.2053 6.4883 1.49246 0 0 1.00069 4.3872e-05
348 10.506 6.71394 0.727975 0 0 1.00069 4.26219e-05
349 12.0114 6.00443 0.0593987 0 0 1.00069 3.95684e-05
352 12.0538 6.75181 0.807701 0 0 1.00069 4.62587e-05
270 12.6604 5.30982 0.18739 0 0 1.00068 3.52214e-05
276 13.396 5.56149 0.862718 0 0 1.00069 3.8109e-05
351 12.4977 5.90373 1.05063 0 0 1.00069 4.05461e-05
1190 12.9204 6.82468 1.38093 0 0 1.00069 4.91407e-05
274 14.0037 5.3589 0.0311419 0 0 1.00069 3.6695e-05
1114 14.0986 5.67975 1.57829 0 0 1.00068 4.04997e-05
355 14.1418 6.36268 0.794082 0 0 1.00069 4.44063e-05
280 14.8114 5.61039 0.774061 0 0 1.00069 3.93275e-05
357 14.9152 6.28244 0.0342656 0 0 1.00069 4.39461e-05
356 13.5238 7.03492 0.587167 0 0 1.00069 4.98893e-05
1197 15.15 6.52745 1.43351 0 0 1.00069 4.86031e-05
278 15.7259 5.60718 0.0423639 0 0 1.00069 3.82329e-05
284 16.5912 5.80178 0.942882 0 0 1.00069 4.02033e-05
359 15.8477 6.45579 0.803719 0 0 1.00069 4.6148e-05
1118 15.9085 5.85441 1.69463 0 0 1.00069 4.24327e-05
361 16.4657 6.401 0.049864 0 0 1.00069 4.47303e-05
363 17.2883 6.61409 1.15205 0 0 1.00069 4.66274e-05
282 17.3179 5.57653 0.266058 0 0 1.00068 3.72631e-05
288 17.8279 5.62424 1.2419 0 0 1.00068 3.88509e-05
365 17.8655 6.48668 0.397331 0 0 1.00069 4.51608e-05
367 18.442 6.52352 1.35738 0 0 1.00068 4.60533e-05
286 18.5275 5.59086 0.519126 0 0 1.00068 3.76318e-05
292 19.4383 5.62115 1.20078 0 0 1.00069 3.78289e-05
369 19.1274 6.57042 0.617718 0 0 1.00069 4.45025e-05
371 20.0635 6.99343 1.34914 0 0 1.00069 4.72719e-05
290 20.1245 6.14384 0.628355 0 0 1.00069 4.0034e-05
294 21.4033 6.24798 0.645942 0 0 1.00069 3.82691e-05
296 20.8276 6.06383 1.38906 0 0 1.00069 3.91597e-05
297 22.1564 5.44443 0.787731 0 0 1.00069 3.23227e-05
299 23.0338 5.67896 1.28793 0 0 1.00069 3.25395e-05
300 22.2714 6.39491 1.36756 0 0 1.00069 3.83306e-05
16260 22.301 6.24829 0.0549086 0 0 1.00069 3.63592e-05
298 23.2254 6.38102 0.651326 0 0 1.00069 3.44456e-05
301 24.0191 5.5821 0.539677 0 0 1.00069 2.85478e-05
303 24.8347 5.80617 1.44083 0 0 1.00069 2.78816e-05
304 24.0279 6.44764 1.28423 0 0 1.00069 3.31403e-05
302 24.6609 6.52933 0.433393 0 0 1.00069 3.11372e-05
305 25.3089 5.72414 0.56835 0 0 1.00069 2.57753e-05
307 26.1256 5.61018 1.3554 0 0 1.00069 2.34053e-05
306 26.1478 6.34228 0.694498 0 0 1.00069 2.49283e-05
308 25.6005 6.55345 1.65087 0 0 1.00069 2.83528e-05
309 26.8951 5.38678 0.643508 0 0 1.00069 2.02065e-05
312 27.1103 6.28923 1.46929 0 0 1.00069 2.16917e-05
310 27.8873 5.91633 0.71179 0 0 1.00069 1.78739e-05
389 27.1833 6.80988 0.639646 0 0 1.00068 2.22219e-05
391 28.1001 6.8445 1.37317 0 0 1.00069 1.89364e-05
316 28.7388 5.83767 1.46565 0 0 1.00069 1.54883e-05
314 29.7184 5.53264 0.813289 0 0 1.00069 1.16974e-05
395 29.8008 6.42759 1.31694 0 0 1.00069 1.24338e-05
393 28.8584 6.53008 0.653062 0 0 1.00069 1.58893e-05
16355 29.7349 6.37325 0.0753033 0 0 1.00069 1.27799e-05
16276 28.831 5.69204 0.0443015 0 0 1.00069 1.4462e-05
318 31.2858 5.4484 0.591007 0 0 1.00069 7.52128e-06
320 30.5496 5.60666 1.44994 0 0 1.00069 9.37476e-06
397 30.7349 6.32833 0.638345 0 0 1.00069 9.33777e-06
399 31.5557 6.21739 1.37936 0 0 1.00069 6.95656e-06
398 31.5629 7.01085 0.606123 0 0 1.00069 6.67191e-06
401 0.633703 7.62401 0.648289 0 0 1.00069 6.93619e-06
402 1.22738 8.39011 0.59832 0 0 1.00069 9.26038e-06
403 1.4818 7.73597 1.48005 0 0 1.00069 1.02995e-05
404 0.724099 8.52321 1.46071 0 0 1.00069 7.1787e-06
478 0.0471338 8.65838 0.39575 0 0 1.00069 4.67598e-06
405 1.97903 7.61075 0.383159 0 0 1.00069 1.1793e-05
408 2.12215 8.42951 1.45515 0 0 1.00069 1.335e-05
406 2.60637 8.39018 0.395221 0 0 1.00069 1.51921e-05
407 2.80297 7.57167 1.27774 0 0 1.00069 1.5558e-05
412 3.45128 8.20342 0.935784 0 0 1.00069 1.92282e-05
409 3.66249 7.4437 0.32805 0 0 1.00069 1.88393e-05
410 4.26451 8.08034 0.064456 0 0 1.00069 2.24101e-05
411 4.4338 7.26126 1.20646 0 0 1.00069 2.17658e-05
491 4.37354 8.6913 0.850443 0 0 1.00069 2.4054e-05
413 5.15438 7.23936 0.226878 0 0 1.00069 2.43862e-05
1333 5.16379 8.57225 1.62652 0 0 1.00069 2.89987e-05
416 5.1762 7.82937 0.943084 0 0 1.0007 2.65016e-05
414 6.39007 7.84458 0.191206 0 0 1.00069 3.1449e-05
415 5.9861 7.10869 1.00056 0 0 1.00069 2.78101e-05
495 5.82452 8.45559 0.6375 0 0 1.00069 3.09124e-05
1337 6.69517 8.49192 1.24178 0 0 1.00069 3.66536e-05
420 6.95773 7.65115 1.04676 0 0 1.00069 3.38778e-05
417 7.03286 7.06337 0.14885 0 0 1.00069 3.23469e-05
419 7.88104 7.2082 0.732499 0 0 1.00069 3.64437e-05
1258 7.87946 7.56983 1.6824 0 0 1.00069 3.86202e-05
499 7.73335 8.29189 0.719582 0 0 1.00069 3.95442e-05
421 8.61862 7.09367 0.0105644 0 0 1.00069 3.83271e-05
424 8.89386 7.7488 0.866428 0 0 1.00069 4.2993e-05
423 9.57516 7.10177 0.665204 0 0 1.00069 4.16522e-05
1262 9.75539 8.0752 1.43159 0 0 1.00069 4.95249e-05
501 8.71913 8.45068 0.0754895 0 0 1.00069 4.48411e-05
1341 8.66642 8.53958 1.38636 0 0 1.00069 4.66857e-05
1265 10.4162 7.33581 1.58359 0 0 1.00068 4.77136e-05
428 10.4509 8.0748 0.696584 0 0 1.00069 5.08909e-05
427 11.3249 7.45365 0.827695 0 0 1.00069 4.96665e-05
1266 11.3589 8.22324 1.43204 0 0 1.00068 5.66376e-05
426 11.1462 8.34807 0.0133392 0 0 1.00069 5.41704e-05
429 11.9966 7.68199 0.0361098 0 0 1.00069 5.22881e-05
432 12.1306 8.38789 0.723742 0 0 1.00069 5.81551e-05
1269 12.1918 7.39694 1.57726 0 0 1.00069 5.35467e-05
431 12.9835 7.86181 0.600844 0 0 1.00069 5.54297e-05
1270 12.9153 8.3009 1.50616 0 0 1.00068 6.14661e-05
1273 13.7109 7.72529 1.47963 0 0 1.00069 5.87102e-05
435 14.4674 7.92435 0.509347 0 0 1.00069 5.8126e-05
1194 14.3522 7.12985 1.38071 0 0 1.00069 5.21476e-05
1274 14.5725 8.68234 1.57055 0 0 1.00069 6.83795e-05
436 13.8073 8.66107 0.78175 0 0 1.00069 6.41206e-05
360 15.1541 7.2501 0.632369 0 0 1.00069 5.31228e-05
1277 15.1661 8.03268 1.3755 0 0 1.00069 6.12499e-05
364 16.4881 7.35241 0.885091 0 0 1.00069 5.25545e-05
439 15.9833 8.26955 0.874901 0 0 1.00069 6.1935e-05
1198 16.0373 7.53005 1.66371 0 0 1.00069 5.78038e-05
441 16.7096 8.38072 0.14926 0 0 1.00069 6.13872e-05
443 17.1653 8.30036 1.0976 0 0 1.00069 6.1887e-05
362 17.2818 7.34267 0.296435 0 0 1.00069 5.23136e-05
368 17.858 7.56499 1.10435 0 0 1.00069 5.48234e-05
445 17.9116 8.35836 0.303689 0 0 1.00069 6.10475e-05
447 18.5768 8.36844 1.03905 0 0 1.00069 5.97057e-05
366 18.6441 7.49543 0.231172 0 0 1.00069 5.22463e-05
372 19.0944 7.41831 1.16298 0 0 1.00069 5.2766e-05
370 19.808 7.75709 0.622375 0 0 1.00069 5.18107e-05
451 19.7686 8.62049 1.18935 0 0 1.00069 6.05654e-05
449 19.2734 8.59787 0.210167 0 0 1.00069 5.84193e-05
375 21.4694 7.13784 1.31209 0 0 1.00069 4.499e-05
373 20.7198 7.2111 0.609488 0 0 1.00069 4.62273e-05
453 20.5721 8.64921 0.378963 0 0 1.00068 5.70711e-05
376 20.6648 8.16846 1.32376 0 0 1.00069 5.4463e-05
374 21.4255 8.00756 0.639052 0 0 1.00068 4.98042e-05
377 22.2954 7.22852 0.67783 0 0 1.00068 4.22859e-05
379 23.2392 7.26928 1.21154 0 0 1.00069 3.99284e-05
380 22.247 8.27288 1.14763 0 0 1.00069 4.89197e-05
378 22.9954 8.07714 0.393094 0 0 1.00069 4.37567e-05
383 24.8597 7.14272 1.18163 0 0 1.00069 3.28037e-05
381 23.9259 7.33727 0.290535 0 0 1.00068 3.70018e-05
384 24.0416 7.94747 1.07855 0 0 1.00069 3.9243e-05
461 24.0636 8.72223 0.360488 0 0 1.00068 4.15547e-05
463 24.9017 8.73283 1.00811 0 0 1.00069 3.8264e-05
382 24.8649 7.90778 0.291866 0 0 1.00068 3.49356e-05
387 26.3338 7.12072 1.4117 0 0 1.00069 2.68919e-05
385 25.6508 7.24557 0.498131 0 0 1.00069 2.92653e-05
388 25.6452 7.96736 1.24577 0 0 1.00069 3.21e-05
467 26.5201 8.56744 1.00181 0 0 1.00069 2.93161e-05
386 26.5511 7.77962 0.38089 0 0 1.00069 2.7417e-05
465 25.7387 8.69843 0.319716 0 0 1.00069 3.34761e-05
390 28.1303 7.40101 0.523214 0 0 1.00069 1.95403e-05
392 27.2543 7.60159 1.32914 0 0 1.00069 2.41616e-05
471 28.2342 8.24714 1.21329 0 0 1.00069 2.05558e-05
469 27.4469 8.26225 0.435959 0 0 1.00069 2.39278e-05
394 29.9517 7.16156 0.509498 0 0 1.00069 1.2373e-05
396 29.0427 7.42397 1.23337 0 0 1.00069 1.60852e-05
474 29.9775 8.62965 0.538559 0 0 1.00069 1.2773e-05
475 29.8915 7.93459 1.28178 0 0 1.00069 1.29502e-05
473 29.0982 8.05603 0.418388 0 0 1.00069 1.61796e-05
400 30.695 7.24157 1.18242 0 0 1.00069 9.45065e-06
479 31.6163 7.88356 1.29291 0 0 1.00069 6.62793e-06
480 30.8028 8.64801 1.1909 0 0 1.00069 9.2686e-06
477 31.0026 8.00147 0.388152 0 0 1.00069 8.5934e-06
482 1.46409 10.1488 0.262189 0 0 1.00069 9.62476e-06
483 1.38801 9.25147 1.19092 0 0 1.00069 9.79865e-06
484 0.60604 9.91744 0.907867 0 0 1.00069 6.10745e-06
481 0.723692 9.30497 0.125772 0 0 1.00069 7.14562e-06
1322 1.17133 10.028 1.74331 0 0 1.00069 8.60802e-06
485 2.12494 9.25304 0.435032 0 0 1.00069 1.31663e-05
488 2.17848 10.129 0.97252 0 0 1.00069 1.306e-05
486 2.95606 9.96386 0.0782621 0 0 1.00069 1.6997e-05
487 2.76746 9.16607 1.20231 0 0 1.00069 1.6222e-05
1326 3.14224 9.88833 1.66287 0 0 1.00069 1.85191e-05
489 3.47656 9.01552 0.0941953 0 0 1.00069 1.95333e-05
1329 3.64225 8.87806 1.66653 0 0 1.00069 2.09015e-05
492 3.77109 9.65605 0.742855 0 0 1.00069 2.12431e-05
1330 4.5626 9.49117 1.58269 0 0 1.00069 2.66088e-05
1409 3.91676 10.3809 1.43923 0 0 1.00069 2.2681e-05
571 4.48742 10.4454 0.526618 0 0 1.00069 2.55232e-05
496 5.04293 9.49877 0.568459 0 0 1.00069 2.86393e-05
1334 5.82028 9.28461 1.17918 0 0 1.00069 3.30722e-05
575 5.85023 10.1375 0.445208 0 0 1.00069 3.39393e-05
1413 5.22519 10.2679 1.45951 0 0 1.00069 3.12104e-05
500 6.74498 9.21094 0.508744 0 0 1.00069 3.7595e-05
1417 6.7463 9.90394 1.19466 0 0 1.00069 3.98579e-05
1338 7.72296 9.1096 1.18726 0 0 1.00069 4.3892e-05
1421 8.26783 9.95304 1.3345 0 0 1.00069 5.01948e-05
579 7.46378 10.0174 0.465645 0 0 1.00069 4.41241e-05
504 8.57039 9.2987 0.569897 0 0 1.00069 4.82003e-05
503 9.59908 8.82589 0.709963 0 0 1.00069 5.15897e-05
1342 9.39527 9.54345 1.39523 0 0 1.00069 5.51019e-05
583 9.37153 10.2183 0.669259 0 0 1.00069 5.6361e-05
508 10.3073 9.69114 0.667793 0 0 1.00069 5.95916e-05
1345 10.5417 8.95352 1.40779 0 0 1.00069 5.80291e-05
507 11.206 9.12914 0.665686 0 0 1.00069 6.02219e-05
1346 11.3756 9.58643 1.61444 0 0 1.00069 6.63566e-05
1425 10.3134 10.4189 1.37192 0 0 1.00069 6.57948e-05
587 11.0226 10.5095 0.668819 0 0 1.00069 6.75467e-05
512 11.9255 10.0187 0.724546 0 0 1.00069 6.87959e-05
1349 12.1491 9.11731 1.34743 0 0 1.00069 6.54277e-05
511 12.889 9.37856 0.691876 0 0 1.00069 6.79434e-05
1350 12.7873 10.0828 1.58487 0 0 1.00069 7.61242e-05
510 12.5277 10.2326 0.0289153 0 0 1.00069 7.15378e-05
1353 13.461 9.25064 1.61563 0 0 1.00069 7.24137e-05
516 13.606 10.1363 0.948146 0 0 1.00069 7.56844e-05
515 14.3797 9.47463 0.855313 0 0 1.00069 7.16803e-05
1354 14.3662 10.1791 1.70182 0 0 1.00069 8.19837e-05
514 14.1941 10.4054 0.0321511 0 0 1.00068 7.88714e-05
517 15.1023 9.97138 0.217885 0 0 1.00069 7.64201e-05
440 15.3209 9.0696 0.788721 0 0 1.00069 6.88459e-05
519 15.9904 9.87299 1.02303 0 0 1.00069 7.71778e-05
521 16.5152 10.2242 0.233328 0 0 1.00069 7.79689e-05
438 16.1182 9.2068 0.132117 0 0 1.00069 6.8682e-05
444 16.7801 9.25401 1.13482 0 0 1.00069 7.10319e-05
523 17.3447 10.1612 0.975757 0 0 1.00069 7.8267e-05
442 17.3395 9.24961 0.265634 0 0 1.00069 6.87831e-05
448 17.9673 9.31416 1.10985 0 0 1.00069 6.94433e-05
525 17.9833 10.3137 0.188739 0 0 1.00069 7.62221e-05
527 18.5871 10.24 1.08118 0 0 1.00069 7.50599e-05
446 18.5898 9.45787 0.122452 0 0 1.00069 6.70953e-05
452 19.1486 9.35113 0.959013 0 0 1.00068 6.7553e-05
529 19.3776 10.2333 0.313019 0 0 1.00069 7.17898e-05
1369 19.4803 10.1104 1.72142 0 0 1.00068 7.51125e-05
450 20.0204 9.4831 0.226198 0 0 1.00068 6.44535e-05
531 20.2435 10.4766 0.890901 0 0 1.00069 6.96804e-05
455 21.4113 9.02476 1.05356 0 0 1.00069 5.67635e-05
456 20.6104 9.54803 1.0497 0 0 1.00069 6.33805e-05
533 20.7375 10.4059 0.0699195 0 0 1.00069 6.61471e-05
535 21.6263 10.5031 0.802045 0 0 1.00069 6.29687e-05
1373 20.9794 10.3395 1.68422 0 0 1.00069 6.91958e-05
454 21.4885 9.69836 0.21221 0 0 1.00069 5.85343e-05
459 23.2248 8.85274 1.01927 0 0 1.00069 4.7298e-05