ITEM: TIMESTEP
34000
ITEM: NUMBER OF ATOMS
32000
ITEM: BOX BOUNDS pp pp pp
0.0000000000000000e+00 3.1748021039364001e+01
0.0000000000000000e+00 3.1748021039364001e+01
0.0000000000000000e+00 3.1748021039364001e+01
ITEM: ATOMS id x y z c_phase c_nbond c_rho v_omega
4 0.216578 1.10419 0.466602 0 0 1.00091 3.13098e-06
83 1.13678 1.56702 0.777876 0 0 1.00091 5.10926e-06
842 0.790602 0.721609 1.40186 0 0 1.00091 3.64785e-06
921 0.174445 1.61727 1.37702 0 0 1.00091 3.75037e-06
3 0.721702 0.00229794 0.617952 0 0 1.00091 2.64059e-06
8 1.78445 0.647741 1.01124 0 0 1.00091 4.62936e-06
85 1.95693 1.29623 0.205851 0 0 1.00091 5.98379e-06
925 2.00133 1.44909 1.73913 0 0 1.00091 6.20048e-06
6 2.57903 0.479547 0.190785 0 0 1.00091 5.36712e-06
87 2.8049 1.26139 0.861905 0 0 1.00091 6.99776e-06
846 2.74889 0.541744 1.72554 0 0 1.00091 5.47663e-06
12 3.51016 0.56471 0.950482 0 0 1.00091 6.49575e-06
929 3.79123 1.32486 1.69301 0 0 1.00091 8.26401e-06
10 4.19043 0.443552 0.304077 0 0 1.00091 6.62048e-06
850 4.41138 0.497934 1.62312 0 0 1.00091 7.27828e-06
91 4.2189 1.41087 0.710955 0 0 1.00091 9.14361e-06
16 5.0269 0.0943471 1.12981 0 0 1.00091 6.25801e-06
93 5.10725 1.12207 0.372182 0 0 1.00091 9.08028e-06
14 5.71377 0.138475 0.297781 0 0 1.00091 6.88825e-06
95 6.03543 0.787053 0.948038 0 0 1.00091 8.57426e-06
933 5.21543 1.19738 1.4348 0 0 1.00091 9.57127e-06
934 6.1361 1.65726 1.48206 0 0 1.00091 1.14171e-05
97 6.74146 0.853673 0.213254 0 0 1.00091 8.90878e-06
937 6.80259 0.452833 1.68814 0 0 1.00091 7.7728e-06
99 7.52051 0.660875 0.946149 0 0 1.00091 8.51808e-06
941 8.32592 0.671753 1.61606 0 0 1.00091 9.04161e-06
18 7.64371 0.0909035 0.151156 0 0 1.00091 6.59804e-06
938 7.60241 1.46632 1.56004 0 0 1.00091 1.1668e-05
100 6.8569 1.61637 0.781812 0 0 1.00091 1.17566e-05
98 7.76821 1.63947 0.12812 0 0 1.00091 1.21133e-05
101 8.43824 0.822739 0.222298 0 0 1.00091 9.06028e-06
103 9.1993 0.747832 1.0823 0 0 1.00091 8.62463e-06
945 9.74619 0.425746 1.75676 0 0 1.00091 6.73822e-06
105 9.83977 0.812757 0.111835 0 0 1.00091 8.32157e-06
102 9.24943 1.5345 0.237169 0 0 1.00091 1.18327e-05
104 8.43988 1.59289 0.936022 0 0 1.00091 1.22176e-05
942 9.41421 1.61293 1.72183 0 0 1.00091 1.28781e-05
108 10.1211 1.47404 1.08228 0 0 1.00091 1.13445e-05
107 10.5363 0.554735 0.835484 0 0 1.00091 7.02966e-06
949 11.4792 0.55978 1.41655 0 0 1.00091 6.59322e-06
946 10.8929 1.19564 1.72403 0 0 1.00091 1.02437e-05
112 11.5223 1.38926 0.780578 0 0 1.00091 1.06878e-05
106 10.6671 1.58842 0.1894 0 0 1.00091 1.18254e-05
111 12.2309 0.697364 0.519558 0 0 1.00091 6.57094e-06
953 12.9662 0.852718 1.37469 0 0 1.00091 6.9165e-06
950 12.3292 1.53075 1.45937 0 0 1.00091 1.10227e-05
116 13.0993 1.63364 0.611811 0 0 1.00091 1.08963e-05
40 14.4354 0.181677 0.782566 0 0 1.00091 2.50245e-06
115 13.8169 0.898135 0.832775 0 0 1.00091 6.36576e-06
117 14.3987 1.35827 0.143847 0 0 1.00091 8.53032e-06
874 13.6676 0.112759 1.63366 0 0 1.00091 2.67373e-06
957 14.6264 1.03554 1.48182 0 0 1.00091 6.6545e-06
954 13.8284 1.75307 1.4666 0 0 1.00091 1.09963e-05
119 15.2227 1.47533 0.668333 0 0 1.00091 8.48997e-06
44 15.8846 0.765811 0.789785 0 0 1.00091 4.53123e-06
878 15.2334 0.410838 1.63569 0 0 1.00091 2.72268e-06
882 16.7067 0.821093 1.35091 0 0 1.00091 4.4721e-06
961 15.9792 1.50637 1.41242 0 0 1.00091 8.82784e-06
38 15.2373 0.637497 0.0725733 0 0 1.00091 3.76414e-06
123 16.901 1.67903 0.694217 0 0 1.00091 9.1119e-06
48 17.434 0.925045 0.564375 0 0 1.00091 4.88031e-06
886 18.1033 1.03263 1.42545 0 0 1.00091 5.9971e-06
47 18.1533 0.216181 0.69312 0 0 1.00091 1.92242e-06
885 17.2877 0.0328373 1.39872 0 0 1.00091 7.24759e-07
51 19.5572 0.416617 0.678885 0 0 1.00091 3.27898e-06
52 18.9586 1.10196 0.696324 0 0 1.00091 6.32519e-06
889 19.0471 0.536287 1.55301 0 0 1.00091 3.27838e-06
890 19.8537 1.41272 1.69462 0 0 1.00091 9.10558e-06
55 21.2203 0.876946 1.07813 0 0 1.00091 6.05503e-06
56 20.4316 1.25715 0.956786 0 0 1.00091 7.70686e-06
54 21.3637 1.32203 0.211494 0 0 1.00091 8.68381e-06
893 20.4433 0.377998 1.42237 0 0 1.00091 4.40505e-06
53 20.2832 0.36115 0.0665299 0 0 1.00091 4.17637e-06
57 22.1108 0.870959 0.538966 0 0 1.00091 6.81512e-06
59 22.9303 1.03249 1.40537 0 0 1.00091 7.60864e-06
58 23.107 1.67698 0.472415 0 0 1.00091 1.00007e-05
17538 22.7603 0.170606 0.463154 0 0 1.00091 3.82204e-06
63 24.3727 0.995613 1.41284 0 0 1.00091 7.76231e-06
61 23.6665 0.951172 0.562781 0 0 1.00091 7.35971e-06
65 25.0568 0.903626 0.526391 0 0 1.00091 7.19498e-06
17544 23.5309 0.111198 1.2465 0 0 1.00091 4.45564e-06
17542 24.3453 0.0953014 0.592678 0 0 1.0009 4.54137e-06
67 26.0781 0.92599 1.15811 0 0 1.00091 6.67829e-06
68 25.3742 1.7408 1.44293 0 0 1.00091 9.73627e-06
66 26.0561 1.51882 0.418003 0 0 1.00091 8.3365e-06
17548 25.1771 0.351893 1.34983 0 0 1.00091 5.60281e-06
17546 25.9104 0.0679429 0.33342 0 0 1.00091 4.4796e-06
70 27.7609 1.73015 0.380924 0 0 1.00091 6.86605e-06
71 27.6926 0.944174 0.868245 0 0 1.00091 5.47336e-06
72 26.9034 1.54509 1.24646 0 0 1.00091 7.55979e-06
69 26.8441 0.749135 0.242573 0 0 1.00091 5.75345e-06
17552 27.0915 0.155734 0.999022 0 0 1.00091 4.14538e-06
17556 28.3493 0.0565277 0.731095 0 0 1.00091 2.96691e-06
913 28.4438 0.730444 1.41316 0 0 1.00091 4.19838e-06
76 28.7959 1.5829 0.728974 0 0 1.00091 5.12237e-06
914 29.4931 1.24941 1.56413 0 0 1.00091 3.88221e-06
917 29.8433 0.401402 1.453 0 0 1.00091 2.09438e-06
75 29.3182 0.63901 0.616569 0 0 1.00091 2.91548e-06
841 31.6068 0.301558 1.25558 0 0 1.00091 -2.84817e-07
79 30.7588 0.611249 0.477474 0 0 1.00091 1.11298e-06
80 30.2266 1.39467 0.769059 0 0 1.00091 2.79971e-06
918 30.9617 1.09093 1.38053 0 0 1.00091 1.52917e-06
82 1.3541 2.31199 0.111419 0 0 1.00091 6.59104e-06
84 0.380186 2.37723 0.802759 0 0 1.00091 4.99909e-06
163 1.60105 3.06304 0.93443 0 0 1.00091 8.13551e-06
922 1.38023 2.23092 1.58344 0 0 1.00091 6.60294e-06
1001 0.688915 3.00085 1.54721 0 0 1.00091 6.16991e-06
161 0.639346 3.07843 0.124129 0 0 1.00091 6.15996e-06
88 2.15899 2.19488 0.779756 0 0 1.00091 7.62997e-06
167 2.99926 2.9651 0.849995 0 0 1.00091 1.06812e-05
926 2.91991 1.94109 1.53383 0 0 1.00091 8.55687e-06
86 2.97479 2.0882 0.0472567 0 0 1.00091 8.89304e-06
1005 2.4209 2.84343 1.74097 0 0 1.00091 9.23495e-06
1009 3.64919 3.0101 1.63967 0 0 1.00091 1.22151e-05
92 3.66485 2.18355 0.78047 0 0 1.00091 1.02141e-05
171 4.57374 2.85846 0.756052 0 0 1.00091 1.29584e-05
930 4.45968 2.18826 1.57896 0 0 1.00091 1.12948e-05
96 5.21694 2.06011 0.818228 0 0 1.00091 1.19439e-05
94 5.96418 1.90274 0.142116 0 0 1.00091 1.21595e-05
175 6.07712 2.63295 0.951667 0 0 1.00091 1.47046e-05
173 5.38247 2.7937 0.0173566 0 0 1.00091 1.43344e-05
174 6.25888 3.33789 0.162657 0 0 1.00091 1.74626e-05
176 5.40012 3.46577 1.1289 0 0 1.00091 1.63836e-05
1017 6.97418 2.44972 1.53608 0 0 1.00091 1.50343e-05
177 7.0274 2.35956 0.116515 0 0 1.00091 1.43601e-05
179 7.8552 2.43365 0.885691 0 0 1.00091 1.55607e-05
180 7.03435 3.16281 0.784275 0 0 1.00091 1.76403e-05
1018 8.00121 3.2018 1.49795 0 0 1.00091 1.924e-05
1021 8.67128 2.35745 1.63346 0 0 1.00091 1.58865e-05
181 8.73659 2.36098 0.0337924 0 0 1.00091 1.53071e-05
183 9.43212 2.3597 0.930628 0 0 1.00091 1.61157e-05
1022 9.73 3.12522 1.5004 0 0 1.00091 2.09592e-05
184 8.81648 3.21009 0.701114 0 0 1.00091 1.95103e-05
182 9.63808 3.24665 0.0444141 0 0 1.00091 2.04998e-05
185 10.0858 2.35238 0.202868 0 0 1.00091 1.59146e-05
188 10.5223 3.01035 0.872465 0 0 1.00091 1.95082e-05
187 11.1459 2.28183 0.918494 0 0 1.00091 1.52329e-05
1026 11.3924 3.06441 1.59452 0 0 1.00091 2.02101e-05
186 11.3091 3.28817 0.167061 0 0 1.00091 2.07985e-05
1025 10.5698 2.13893 1.75424 0 0 1.00091 1.50584e-05
1029 12.0263 2.38805 1.60527 0 0 1.00091 1.67005e-05
192 12.1222 3.17181 0.819268 0 0 1.00091 2.08496e-05
191 12.4911 2.27496 0.747954 0 0 1.00091 1.58025e-05
196 13.2265 3.27238 0.819005 0 0 1.00091 2.15789e-05
1033 13.5206 2.67414 1.69554 0 0 1.00092 1.72579e-05
195 13.8893 2.7748 0.842752 0 0 1.00091 1.758e-05
120 14.5824 2.25958 0.921306 0 0 1.00091 1.37833e-05
1037 14.8272 3.19251 1.5548 0 0 1.00091 1.99901e-05
197 14.8478 3.06768 0.0417814 0 0 1.00091 1.84052e-05
114 13.9121 2.05491 0.0398912 0 0 1.00091 1.34041e-05
194 14.0397 3.47093 0.0255374 0 0 1.00091 2.1832e-05
199 15.5075 3.34293 0.868637 0 0 1.00091 2.03423e-05
958 15.3666 2.25608 1.45524 0 0 1.00091 1.40791e-05
118 15.4247 2.41847 0.123684 0 0 1.00091 1.42077e-05
124 16.2581 2.46833 0.708069 0 0 1.00091 1.40734e-05
1041 16.1801 3.28816 1.51175 0 0 1.00091 2.00247e-05
201 16.3232 3.27574 0.011183 0 0 1.00091 1.95261e-05
962 16.9171 2.59975 1.53765 0 0 1.00091 1.54586e-05
127 18.3016 1.88986 0.749241 0 0 1.00091 1.04941e-05
203 17.067 3.32969 0.669147 0 0 1.00091 1.98305e-05
965 17.6419 1.94727 1.56248 0 0 1.00091 1.0906e-05
128 17.6324 2.56748 0.67157 0 0 1.00091 1.4652e-05
1045 17.8206 3.35508 1.50459 0 0 1.0009 1.96581e-05
969 19.0388 1.89038 1.49795 0 0 1.00091 1.11122e-05
207 18.6171 3.26134 0.719558 0 0 1.0009 1.85825e-05
966 18.6019 2.75586 1.60331 0 0 1.0009 1.62624e-05
131 19.8935 2.00987 0.841809 0 0 1.00091 1.12778e-05
129 19.2303 1.96886 0.0154108 0 0 1.00091 1.07404e-05
132 19.4443 2.80959 1.0189 0 0 1.00091 1.63128e-05
209 19.5481 3.45976 0.194629 0 0 1.00091 1.99705e-05
130 20.129 2.79809 0.11285 0 0 1.00091 1.58006e-05
133 20.69 2.02873 0.202891 0 0 1.00091 1.16585e-05
135 21.4485 2.19644 0.955786 0 0 1.00091 1.27051e-05
973 20.7394 2.30695 1.74436 0 0 1.00091 1.39041e-05
134 21.6866 3.02793 0.461488 0 0 1.00091 1.65494e-05
136 20.7676 2.98814 1.07853 0 0 1.00091 1.72573e-05
60 22.3816 1.78063 1.32918 0 0 1.00091 1.10879e-05
137 22.3237 2.23105 0.500712 0 0 1.00091 1.2686e-05
139 23.3 2.71495 1.50402 0 0 1.00091 1.46163e-05
140 22.5626 3.1559 1.22726 0 0 1.00091 1.74496e-05
62 24.644 1.78859 0.731373 0 0 1.00091 9.98429e-06
138 23.4283 3.29193 0.720343 0 0 1.00091 1.64511e-05
64 23.7458 1.86466 1.37886 0 0 1.00091 1.09975e-05
141 24.0325 2.47701 0.617172 0 0 1.00091 1.26679e-05
143 24.7729 2.64081 1.56196 0 0 1.00091 1.33171e-05
142 24.7854 3.35401 0.762462 0 0 1.00091 1.54947e-05
147 26.2093 2.33008 1.35458 0 0 1.00091 1.06817e-05
145 25.4364 2.46919 0.532284 0 0 1.00091 1.1681e-05
146 26.1905 3.22189 0.689914 0 0 1.00091 1.31475e-05
148 25.573 3.22935 1.51575 0 0 1.00091 1.40581e-05
149 26.8167 2.32523 0.507426 0 0 1.00091 9.50726e-06
152 26.8945 3.14888 1.52221 0 0 1.00091 1.19518e-05
151 27.7549 2.45151 1.21991 0 0 1.00091 8.36352e-06
150 27.4451 3.2064 0.62337 0 0 1.00091 1.06692e-05
153 28.5164 2.49134 0.341145 0 0 1.00091 7.25044e-06
156 28.587 3.16709 1.18564 0 0 1.00091 8.60069e-06
993 28.7294 2.11253 1.50365 0 0 1.00091 6.44099e-06
155 29.6599 2.30806 0.87457 0 0 1.00091 5.07617e-06
154 29.497 2.9985 0.281587 0 0 1.00091 6.4414e-06
997 30.1771 2.03583 1.69631 0 0 1.00091 4.19609e-06
159 31.1237 2.0838 0.917653 0 0 1.00091 2.44892e-06
160 30.4661 2.90032 0.990858 0 0 1.00091 4.24608e-06
239 31.3717 3.43508 0.966048 0 0 1.00091 3.51739e-06
998 31.2742 2.79041 1.72305 0 0 1.00091 3.04181e-06
237 30.4695 3.45584 0.153116 0 0 1.00091 5.30555e-06
157 30.6063 2.07772 0.0331864 0 0 1.00091 3.26383e-06
158 31.4152 2.73898 0.0738423 0 0 1.00091 2.57578e-06
164 0.665216 3.74949 0.909924 0 0 1.00091 6.84546e-06
241 0.57553 4.59347 0.461079 0 0 1.00091 7.41951e-06
243 1.57109 4.49712 0.975627 0 0 1.00091 9.94852e-06
162 1.42409 3.7331 0.067909 0 0 1.00091 8.35518e-06
244 0.582042 5.24648 1.27165 0 0 1.00091 8.17346e-06
168 2.26344 3.80434 0.849608 0 0 1.0009 1.04351e-05
247 3.02259 4.52262 1.11299 0 0 1.00091 1.3643e-05
166 3.08208 3.81146 0.188949 0 0 1.00091 1.24843e-05
245 2.36073 4.69364 0.276128 0 0 1.00091 1.19236e-05
246 3.2166 5.22054 0.269557 0 0 1.00091 1.5039e-05
248 2.06374 5.27933 1.35609 0 0 1.00091 1.23262e-05
249 3.91898 4.41861 0.169524 0 0 1.00091 1.56582e-05
172 3.91378 3.66269 0.880874 0 0 1.00091 1.35911e-05
251 4.60783 4.3643 1.14943 0 0 1.00091 1.73366e-05
170 4.71148 3.6809 0.138306 0 0 1.00091 1.54298e-05
250 4.78436 4.92928 0.311785 0 0 1.00091 1.89608e-05
252 3.6982 5.18817 1.26761 0 0 1.00091 1.69239e-05
253 5.56142 4.1646 0.316409 0 0 1.00091 1.87254e-05
255 6.31367 4.07718 1.01814 0 0 1.00091 2.00951e-05
254 6.4175 4.75344 0.260312 0 0 1.00091 2.24177e-05
256 5.57541 4.83254 1.26397 0 0 1.00091 2.09475e-05
1097 7.29014 3.84927 1.63996 0 0 1.00091 2.13084e-05
260 7.32959 4.47528 0.85144 0 0 1.00091 2.32681e-05
259 8.04985 3.78682 0.570577 0 0 1.00091 2.18002e-05
258 8.05795 4.64345 0.0208813 0 0 1.0009 2.55327e-05
1098 8.16925 4.64188 1.48388 0 0 1.00091 2.61645e-05
1177 7.24958 5.24294 1.59614 0 0 1.00091 2.71217e-05
1101 8.93181 3.90228 1.46446 0 0 1.00091 2.34598e-05
264 8.99531 4.60634 0.698175 0 0 1.00091 2.69387e-05
263 9.82946 3.91096 0.799875 0 0 1.00091 2.42699e-05
1102 9.92548 4.61671 1.5729 0 0 1.0009 2.9014e-05
262 9.87605 4.77596 0.0146829 0 0 1.00091 2.91174e-05
268 10.6713 4.67918 0.796852 0 0 1.00091 2.95959e-05
265 10.6206 3.92681 0.109037 0 0 1.00091 2.4874e-05
1105 10.6646 3.73691 1.64934 0 0 1.00091 2.41969e-05
267 11.4347 4.04411 0.887669 0 0 1.00091 2.5772e-05
1106 11.4901 4.6278 1.74113 0 0 1.0009 3.00911e-05
266 11.4571 4.93428 0.0212713 0 0 1.00091 3.11162e-05
269 12.2386 4.22093 0.207008 0 0 1.00091 2.65829e-05
1109 12.2393 3.90528 1.6826 0 0 1.00091 2.64947e-05
272 12.381 4.77009 1.00818 0 0 1.0009 3.11098e-05
271 13.1232 4.15785 1.02012 0 0 1.00091 2.77387e-05
270 13.0367 5.12988 0.188986 0 0 1.0009 3.24402e-05
273 13.5145 4.25169 0.055071 0 0 1.0009 2.68068e-05
1113 13.8324 4.60303 1.70027 0 0 1.00091 3.0609e-05
275 14.1882 4.45944 0.769375 0 0 1.00091 2.91384e-05
200 14.9035 3.9576 0.695529 0 0 1.00091 2.49828e-05
1034 14.4307 3.95044 1.58791 0 0 1.00091 2.57758e-05
274 14.3946 5.2622 0.0153777 0 0 1.00091 3.42154e-05
277 15.1448 4.71969 0.0854813 0 0 1.00091 2.92812e-05
1117 15.283 4.94158 1.51323 0 0 1.00091 3.29455e-05
279 16.0375 5.01481 0.825599 0 0 1.00091 3.17979e-05
198 15.8654 4.13663 0.108344 0 0 1.00091 2.47833e-05
1038 15.9891 4.36067 1.60125 0 0 1.00091 2.7155e-05
204 16.5832 4.12397 0.89536 0 0 1.00091 2.51394e-05
281 16.8616 4.88093 0.154995 0 0 1.00091 2.93289e-05
1121 16.9574 5.14758 1.6613 0 0 1.00091 3.33529e-05
1042 17.2827 4.14013 1.66968 0 0 1.0009 2.62196e-05
283 17.5787 4.84596 0.906414 0 0 1.0009 2.95133e-05
208 18.1327 4.11345 0.798706 0 0 1.0009 2.40379e-05
285 18.3822 4.93851 0.0426903 0 0 1.0009 2.9268e-05
1046 18.7761 4.03904 1.64533 0 0 1.0009 2.45323e-05
287 19.0281 4.93289 1.08772 0 0 1.0009 2.99733e-05
206 18.9714 4.2421 0.079183 0 0 1.0009 2.40034e-05
212 19.6455 4.19394 0.964929 0 0 1.00091 2.4226e-05
289 19.7692 5.1438 0.354773 0 0 1.00091 3.03007e-05
213 21.0384 3.61253 0.320779 0 0 1.00091 2.04649e-05
210 20.3721 4.32171 0.256952 0 0 1.00091 2.44808e-05
211 20.4141 3.77739 1.26995 0 0 1.00091 2.20004e-05
291 20.5849 5.27115 1.1219 0 0 1.00091 3.0159e-05
216 21.1838 4.45579 1.20875 0 0 1.00091 2.47095e-05
214 21.8626 4.65163 0.512147 0 0 1.00091 2.49492e-05
215 21.9771 3.95105 1.39095 0 0 1.00091 2.09531e-05
217 22.6007 3.90447 0.602984 0 0 1.00091 2.09746e-05
16179 23.3158 4.10944 0.0321467 0 0 1.00091 2.01834e-05
220 22.6812 4.87454 1.30292 0 0 1.00091 2.56624e-05
218 23.3738 5.09802 0.545084 0 0 1.00091 2.46373e-05
144 24.1898 3.57924 1.52487 0 0 1.00091 1.7553e-05
219 23.475 4.33132 1.39691 0 0 1.00091 2.14191e-05
223 25.034 4.24757 1.55 0 0 1.00091 1.88337e-05
221 24.1915 4.3435 0.760794 0 0 1.00091 2.01227e-05
222 24.9847 5.08906 0.634168 0 0 1.00091 2.14601e-05
224 24.2112 5.30516 1.33652 0 0 1.00091 2.46856e-05
228 25.6752 5.20569 1.56539 0 0 1.00091 2.06154e-05
227 26.2276 4.14931 1.51603 0 0 1.00091 1.60097e-05
229 26.671 4.11317 0.593579 0 0 1.00091 1.45789e-05
225 25.6009 4.30782 0.751622 0 0 1.00091 1.7225e-05
226 26.1431 5.0937 0.423397 0 0 1.00091 1.83422e-05
233 28.3792 3.67847 0.336537 0 0 1.00091 9.92765e-06
232 26.9245 4.9186 1.36897 0 0 1.00091 1.62473e-05
231 27.6489 3.87895 1.40518 0 0 1.00091 1.1995e-05
230 27.5747 4.60194 0.579498 0 0 1.00091 1.39994e-05
236 28.4413 4.447 1.11479 0 0 1.00091 1.16053e-05
235 29.6162 3.57248 1.17794 0 0 1.00091 7.22599e-06
313 28.7856 5.19605 0.689311 0 0 1.00091 1.13253e-05
234 29.3552 4.13554 0.46484 0 0 1.00091 8.44773e-06
315 29.5647 4.87025 1.30479 0 0 1.00091 9.11387e-06
240 30.4084 4.27915 1.02792 0 0 1.00091 6.32666e-06
238 31.4181 4.08532 0.350095 0 0 1.00091 3.68209e-06
317 30.6575 4.89308 0.470567 0 0 1.00091 5.68081e-06
319 31.4287 4.70421 1.37784 0 0 1.00091 4.08582e-06
242 1.41793 5.39022 0.454166 0 0 1.00091 1.02238e-05
323 1.34452 6.06681 1.27433 0 0 1.00091 1.07218e-05
324 0.818751 6.88237 1.475 0 0 1.00091 9.56387e-06
322 1.53335 6.76804 0.562435 0 0 1.00091 1.17099e-05
321 0.524745 6.00443 0.449757 0 0 1.00091 8.31274e-06
328 2.28538 6.73469 1.23846 0 0 1.00091 1.43152e-05
325 2.4323 5.90941 0.488223 0 0 1.00091 1.39319e-05
327 2.87184 5.81531 1.37518 0 0 1.00091 1.55071e-05
326 3.08331 6.72875 0.460459 0 0 1.00091 1.73412e-05
332 3.86333 6.47735 1.13871 0 0 1.00091 1.94792e-05
329 4.01199 5.78087 0.463953 0 0 1.00091 1.86011e-05
331 4.7533 5.52231 1.2089 0 0 1.00091 2.06439e-05
330 4.67273 6.4289 0.2237 0 0 1.00091 2.24236e-05
411 4.69424 7.00287 1.18201 0 0 1.00091 2.36841e-05
336 5.49504 6.15258 1.14717 0 0 1.00091 2.49779e-05
333 5.51036 5.61341 0.302379 0 0 1.00091 2.29707e-05
335 6.39834 5.49836 0.950124 0 0 1.00091 2.56942e-05
334 6.30438 6.29996 0.143777 0 0 1.00091 2.79597e-05
415 6.27469 6.81197 0.983739 0 0 1.00091 2.92199e-05
413 5.43164 6.97689 0.21788 0 0 1.00091 2.61838e-05
337 7.14977 5.36417 0.130192 0 0 1.00091 2.64241e-05
340 7.26536 6.06696 0.935339 0 0 1.00091 3.04588e-05
339 8.13179 5.37497 0.758063 0 0 1.00091 2.92572e-05
1178 8.18218 6.00009 1.58609 0 0 1.0009 3.3377e-05
417 7.34988 6.76089 0.130974 0 0 1.00091 3.3347e-05
419 8.22507 6.86334 0.718275 0 0 1.00091 3.68567e-05
344 8.95359 6.03577 0.693054 0 0 1.0009 3.44171e-05
1181 9.12052 5.33331 1.49255 0 0 1.0009 3.1887e-05
343 9.83478 5.43438 0.747309 0 0 1.0009 3.28857e-05
1261 9.09028 6.59718 1.54001 0 0 1.0009 3.92739e-05
423 9.96421 6.79714 0.665184 0 0 1.0009 4.11657e-05
1182 10.1063 6.14854 1.45828 0 0 1.0009 3.87369e-05
1185 10.7909 5.44955 1.48625 0 0 1.0009 3.53758e-05
345 10.7436 5.56216 0.0768737 0 0 1.00091 3.47438e-05
347 11.6293 5.41076 0.905235 0 0 1.0009 3.44588e-05
346 11.6353 6.30427 0.104335 0 0 1.00091 4.10101e-05
1186 11.6358 6.23603 1.48596 0 0 1.0009 4.21011e-05
348 10.8958 6.4107 0.723681 0 0 1.0009 4.0989e-05
1265 10.8629 7.01862 1.57408 0 0 1.0009 4.64147e-05
349 12.4116 5.79952 0.0431459 0 0 1.00091 3.74034e-05
352 12.4949 6.53534 0.799629 0 0 1.00091 4.42902e-05
351 12.9179 5.7279 1.0488 0 0 1.00091 3.83991e-05
1190 13.4098 6.64989 1.36866 0 0 1.00091 4.63982e-05
276 13.8138 5.43251 0.862515 0 0 1.0009 3.56922e-05
1114 14.5431 5.58944 1.58151 0 0 1.00091 3.81807e-05
355 14.5973 6.26242 0.789628 0 0 1.00091 4.18947e-05
356 14.0005 6.90714 0.58906 0 0 1.00091 4.71979e-05
1194 14.8646 7.038 1.39512 0 0 1.00091 4.8972e-05
280 15.2445 5.56208 0.767372 0 0 1.00091 3.69259e-05
357 15.3646 6.24301 0.0257356 0 0 1.00091 4.10407e-05
1197 15.6278 6.47293 1.44485 0 0 1.00091 4.54661e-05
278 16.1301 5.60447 0.0396225 0 0 1.00091 3.5243e-05
359 16.3114 6.48726 0.801871 0 0 1.00091 4.33279e-05
1118 16.3638 5.8713 1.68841 0 0 1.00091 3.98319e-05
361 16.9152 6.46018 0.0487974 0 0 1.00091 4.1615e-05
284 17.0294 5.86241 0.944104 0 0 1.00091 3.73631e-05
363 17.7431 6.73911 1.14587 0 0 1.00091 4.33813e-05
282 17.7138 5.69393 0.254609 0 0 1.0009 3.46672e-05
288 18.2422 5.7601 1.22739 0 0 1.0009 3.62612e-05
365 18.32 6.63328 0.381531 0 0 1.0009 4.20641e-05
367 18.8846 6.7093 1.33042 0 0 1.0009 4.32078e-05
286 18.9339 5.77559 0.493926 0 0 1.0009 3.53599e-05
292 19.8175 5.84398 1.19355 0 0 1.00091 3.5726e-05
369 19.559 6.79965 0.607499 0 0 1.00091 4.18244e-05
293 21.0727 5.44518 0.357943 0 0 1.00091 3.00765e-05
290 20.5211 6.38939 0.625907 0 0 1.00091 3.73841e-05
296 21.2011 6.34861 1.37717 0 0 1.00091 3.68122e-05
295 21.7616 5.4572 1.35095 0 0 1.00091 3.06908e-05
294 21.7746 6.54474 0.638343 0 0 1.00091 3.5547e-05
297 22.4923 5.74274 0.77202 0 0 1.00091 2.99949e-05
299 23.364 5.98668 1.2861 0 0 1.00091 3.00556e-05
300 22.6272 6.7109 1.35172 0 0 1.00091 3.55548e-05
16260 22.6507 6.56428 0.0458075 0 0 1.00091 3.35134e-05
298 23.5413 6.70817 0.638056 0 0 1.0009 3.15359e-05
301 24.2917 5.88977 0.539125 0 0 1.00091 2.59338e-05
304 24.3396 6.78163 1.27297 0 0 1.00091 3.02211e-05
302 24.9617 6.83936 0.43814 0 0 1.0009 2.78366e-05
303 25.1095 6.10554 1.43906 0 0 1.00091 2.51303e-05
305 25.5714 6.00001 0.564624 0 0 1.00091 2.2883e-05
307 26.3794 5.88036 1.35504 0 0 1.00091 2.06447e-05
306 26.4148 6.61715 0.687847 0 0 1.00091 2.17938e-05
308 25.882 6.85033 1.62422 0 0 1.00091 2.52561e-05
311 27.9085 5.4449 1.39671 0 0 1.00091 1.48301e-05
309 27.125 5.6197 0.63836 0 0 1.00091 1.73215e-05
312 27.3495 6.5367 1.46223 0 0 1.00091 1.86646e-05
310 28.1097 6.1211 0.701614 0 0 1.00091 1.48612e-05
389 27.4304 7.05901 0.630087 0 0 1.00091 1.88783e-05
391 28.3241 7.05015 1.37306 0 0 1.00091 1.573e-05
316 28.9544 6.00517 1.45247 0 0 1.00091 1.25431e-05
314 29.9055 5.64467 0.807451 0 0 1.00091 8.76389e-06
395 30.0052 6.54829 1.30929 0 0 1.00091 9.38032e-06
393 29.0796 6.70294 0.65426 0 0 1.00091 1.26979e-05
16355 29.9396 6.48914 0.0707191 0 0 1.00091 9.62339e-06
16276 29.028 5.85335 0.0326368 0 0 1.00091 1.14422e-05
318 31.4671 5.47507 0.583469 0 0 1.00091 4.72548e-06
320 30.7346 5.67109 1.43549 0 0 1.00091 6.54621e-06
397 30.9252 6.39027 0.627507 0 0 1.00091 6.37294e-06
399 31.7416 6.23153 1.37305 0 0 1.00091 4.20962e-06
398 0.0152558 7.01769 0.601827 0 0 1.00091 6.94197e-06
401 0.843067 7.59152 0.634875 0 0 1.00091 9.36021e-06
402 1.45104 8.31625 0.582474 0 0 1.00091 1.19839e-05
404 0.929762 8.47234 1.44992 0 0 1.00091 9.81399e-06
478 0.254808 8.65492 0.397282 0 0 1.00091 7.2415e-06
479 0.0734136 7.89462 1.28243 0 0 1.00091 6.83717e-06
403 1.69063 7.63382 1.46427 0 0 1.00091 1.27983e-05
405 2.1953 7.49224 0.387876 0 0 1.00091 1.42773e-05
408 2.34945 8.28209 1.44842 0 0 1.00091 1.6148e-05
406 2.84234 8.21768 0.390515 0 0 1.00091 1.81149e-05
407 3.03586 7.40054 1.27309 0 0 1.00091 1.79976e-05
412 3.70504 7.98518 0.930531 0 0 1.00091 2.20265e-05
409 3.90314 7.22339 0.326392 0 0 1.00091 2.10754e-05
410 4.52423 7.8285 0.0533763 0 0 1.00091 2.48057e-05
491 4.63115 8.41603 0.843109 0 0 1.00091 2.67476e-05
1250 4.54404 7.71538 1.75481 0 0 1.00091 2.61193e-05
1329 3.89564 8.63431 1.66927 0 0 1.00091 2.39629e-05
489 3.71014 8.77901 0.0990506 0 0 1.00091 2.24809e-05
1333 5.45841 8.25575 1.61524 0 0 1.00091 3.17578e-05
416 5.45408 7.54567 0.948103 0 0 1.00092 2.85879e-05
414 6.69006 7.52524 0.203778 0 0 1.00091 3.30385e-05
495 6.11162 8.14189 0.618181 0 0 1.00091 3.3122e-05
1337 7.01642 8.13662 1.22631 0 0 1.00091 3.8696e-05
420 7.29001 7.2972 1.04845 0 0 1.00091 3.50313e-05
1258 8.23313 7.20612 1.66907 0 0 1.00091 3.90336e-05
499 8.06838 7.93104 0.722833 0 0 1.00091 4.06101e-05
1338 8.05133 8.73201 1.181 0 0 1.00091 4.57324e-05
424 9.25232 7.40716 0.858467 0 0 1.00091 4.29265e-05
501 9.08695 8.09642 0.0658472 0 0 1.00091 4.54718e-05
1341 9.03767 8.17119 1.37876 0 0 1.00091 4.74956e-05
503 9.99397 8.45737 0.696246 0 0 1.0009 5.18227e-05
1262 10.1519 7.7051 1.41278 0 0 1.0009 4.89172e-05
428 10.8783 7.76401 0.695445 0 0 1.0009 5.01965e-05
426 11.5818 8.05108 0.00132572 0 0 1.0009 5.29105e-05
1345 10.9716 8.59544 1.39582 0 0 1.0009 5.73539e-05
427 11.7583 7.18443 0.816221 0 0 1.0009 4.7925e-05
1266 11.8244 7.94519 1.42849 0 0 1.0009 5.54274e-05
429 12.4414 7.4379 0.0266279 0 0 1.0009 5.02239e-05
432 12.5795 8.13901 0.716222 0 0 1.0009 5.62066e-05
1269 12.6558 7.16907 1.55757 0 0 1.0009 5.13934e-05
1270 13.4029 8.10638 1.50425 0 0 1.0009 5.88929e-05
431 13.4488 7.6752 0.598028 0 0 1.0009 5.24861e-05
1273 14.2125 7.5907 1.47819 0 0 1.00091 5.62024e-05
435 14.9597 7.85665 0.53281 0 0 1.00091 5.45888e-05
436 14.2854 8.52479 0.777564 0 0 1.00091 6.09521e-05
1274 15.0888 8.6208 1.57233 0 0 1.00091 6.52996e-05
360 15.6386 7.21769 0.645993 0 0 1.00091 4.94832e-05
1277 15.691 7.9929 1.38598 0 0 1.00092 5.73659e-05
439 16.5025 8.30003 0.883739 0 0 1.00092 5.7755e-05
1198 16.5568 7.58233 1.67455 0 0 1.00092 5.41669e-05
437 15.8466 8.31159 0.0236266 0 0 1.00091 5.7369e-05
364 16.9639 7.40734 0.865138 0 0 1.00091 4.87305e-05
441 17.1927 8.46509 0.144523 0 0 1.00091 5.65327e-05
443 17.6687 8.42502 1.08343 0 0 1.00091 5.73105e-05
362 17.7609 7.47768 0.297639 0 0 1.00091 4.85625e-05
368 18.3598 7.72086 1.08915 0 0 1.00091 5.06638e-05
445 18.3919 8.5456 0.2871 0 0 1.00091 5.65385e-05
447 19.0543 8.60873 1.02786 0 0 1.00091 5.53217e-05
366 19.1138 7.71886 0.224916 0 0 1.00091 4.85386e-05
372 19.5642 7.66404 1.15922 0 0 1.00091 4.98281e-05
370 20.2527 8.03989 0.612944 0 0 1.00091 4.81164e-05
371 20.4901 7.27395 1.3474 0 0 1.00091 4.44638e-05
373 21.1292 7.50572 0.599782 0 0 1.00091 4.2701e-05
376 21.1075 8.49158 1.3146 0 0 1.0009 5.01016e-05
374 21.8336 8.34954 0.609164 0 0 1.0009 4.59188e-05
375 21.867 7.47109 1.30497 0 0 1.0009 4.21001e-05
377 22.6627 7.57748 0.669937 0 0 1.0009 3.91113e-05
380 22.6388 8.64484 1.13685 0 0 1.0009 4.50452e-05
378 23.3667 8.43981 0.393237 0 0 1.0009 3.97302e-05
379 23.5862 7.62263 1.20423 0 0 1.0009 3.67309e-05
381 24.2542 7.6762 0.297206 0 0 1.0009 3.34021e-05
384 24.372 8.32555 1.07953 0 0 1.0009 3.5689e-05
383 25.1631 7.48521 1.18405 0 0 1.00091 2.9578e-05
382 25.1655 8.2588 0.299689 0 0 1.0009 3.12754e-05
387 26.6177 7.42157 1.40877 0 0 1.00091 2.36217e-05
385 25.9262 7.54157 0.495295 0 0 1.0009 2.58268e-05
388 25.9407 8.30237 1.23417 0 0 1.0009 2.84701e-05
386 26.8115 8.07388 0.383682 0 0 1.00091 2.38395e-05
390 28.3658 7.61837 0.516573 0 0 1.00091 1.60725e-05
392 27.5187 7.87843 1.31508 0 0 1.00091 2.06549e-05
469 27.6979 8.53596 0.431984 0 0 1.00091 2.02488e-05
471 28.4769 8.47534 1.20971 0 0 1.00091 1.70848e-05
396 29.2619 7.58989 1.23468 0 0 1.00091 1.28587e-05
473 29.3198 8.23495 0.417316 0 0 1.00091 1.27656e-05
475 30.1131 8.06277 1.27949 0 0 1.00091 9.68248e-06
394 30.1596 7.2914 0.504206 0 0 1.00091 9.23575e-06
474 30.1882 8.77156 0.532226 0 0 1.00091 9.53194e-06
400 30.8988 7.30305 1.18069 0 0 1.00091 6.4345e-06
480 31.0081 8.7156 1.19189 0 0 1.00091 6.23654e-06
477 31.2031 8.05158 0.388828 0 0 1.00091 5.53054e-06
482 1.65484 10.0389 0.252732 0 0 1.00091 1.27907e-05
483 1.59664 9.15262 1.17989 0 0 1.00091 1.26996e-05
484 0.799968 9.88245 0.913445 0 0 1.00091 8.9702e-06
481 0.917574 9.26056 0.125078 0 0 1.00091 9.7196e-06
1322 1.37889 9.93971 1.73403 0 0 1.00091 1.16884e-05
559 0.0642769 9.36291 1.13562 0 0 1.00091 6.21592e-06
558 0.0180577 10.0551 0.0575497 0 0 1.00091 5.42609e-06
485 2.33324 9.10574 0.422362 0 0 1.00091 1.59958e-05
488 2.37924 9.95891 0.97679 0 0 1.00091 1.62104e-05
486 3.16328 9.75086 0.0820943 0 0 1.00091 2.01149e-05
487 2.99612 8.96896 1.18734 0 0 1.00091 1.91532e-05
1326 3.35449 9.65646 1.65999 0 0 1.00091 2.16736e-05
567 3.11695 10.4538 0.718983 0 0 1.00091 2.01844e-05
492 3.99705 9.40443 0.745307 0 0 1.00091 2.42997e-05
1330 4.82391 9.18354 1.56689 0 0 1.00091 2.96072e-05
1409 4.13149 10.111 1.43182 0 0 1.00091 2.59289e-05
571 4.7022 10.1414 0.510723 0 0 1.00091 2.88278e-05
496 5.29984 9.19429 0.575027 0 0 1.00091 3.15547e-05
1334 6.12008 8.93976 1.1811 0 0 1.00091 3.61018e-05
575 6.12586 9.78168 0.450359 0 0 1.00091 3.73395e-05
1413 5.47792 9.9159 1.44889 0 0 1.00091 3.45878e-05
1414 6.23111 10.4164 1.2111 0 0 1.00091 3.91517e-05
500 7.04412 8.85137 0.504499 0 0 1.00091 3.99641e-05
1417 7.06062 9.52863 1.19952 0 0 1.00091 4.29999e-05
579 7.79524 9.6078 0.465692 0 0 1.00091 4.6889e-05
580 6.91449 10.4063 0.37802 0 0 1.00091 4.34103e-05
1418 7.84633 10.3962 1.11403 0 0 1.00091 5.09498e-05
1421 8.64982 9.54615 1.32198 0 0 1.0009 5.26273e-05
504 8.93936 8.92213 0.566867 0 0 1.00091 4.99758e-05
1342 9.79571 9.13252 1.38314 0 0 1.0009 5.61282e-05
583 9.74623 9.83021 0.662345 0 0 1.00091 5.83842e-05
584 8.78662 10.3038 0.675742 0 0 1.00091 5.48064e-05
508 10.7116 9.32671 0.66547 0 0 1.00091 5.99403e-05
507 11.6509 8.82333 0.665418 0 0 1.0009 5.93748e-05
1425 10.7187 10.0163 1.3756 0 0 1.00091 6.70894e-05
587 11.4244 10.1572 0.663858 0 0 1.00091 6.80927e-05
1346 11.8247 9.26131 1.59892 0 0 1.00091 6.54393e-05
512 12.3634 9.71196 0.720481 0 0 1.00091 6.77498e-05
1349 12.6504 8.85333 1.36729 0 0 1.0009 6.37512e-05
511 13.3573 9.15557 0.690719 0 0 1.0009 6.52618e-05
1350 13.2728 9.82779 1.584 0 0 1.0009 7.39231e-05
510 12.9839 9.98168 0.0364204 0 0 1.00091 7.01761e-05
1429 12.3908 10.3429 1.51039 0 0 1.00091 7.52855e-05
1353 14.0026 9.08012 1.6166 0 0 1.0009 6.95108e-05
516 14.0691 9.98216 0.943537 0 0 1.0009 7.25323e-05
515 14.8727 9.38474 0.863042 0 0 1.00091 6.80961e-05
1354 14.8735 10.0945 1.69846 0 0 1.00091 7.80874e-05
514 14.6531 10.2818 0.0422601 0 0 1.0009 7.45433e-05
517 15.5839 9.91356 0.215014 0 0 1.00091 7.05958e-05
440 15.8191 9.04121 0.807694 0 0 1.00091 6.42523e-05
519 16.4728 9.92494 1.02374 0 0 1.00091 7.17071e-05
438 16.5789 9.24987 0.136038 0 0 1.00091 6.30171e-05
520 15.5255 10.5456 1.02937 0 0 1.00091 7.65402e-05
521 16.9829 10.2975 0.225031 0 0 1.00091 7.09959e-05
444 17.2785 9.36139 1.13408 0 0 1.00091 6.56027e-05
523 17.8086 10.3284 0.973049 0 0 1.00091 7.15903e-05
442 17.8015 9.41136 0.260656 0 0 1.00091 6.33232e-05
448 18.451 9.50373 1.08299 0 0 1.00091 6.3655e-05
525 18.4336 10.5353 0.173696 0 0 1.00091 6.8847e-05
449 19.7232 8.87753 0.220634 0 0 1.0009 5.36415e-05
527 19.0185 10.5037 1.07791 0 0 1.0009 6.82415e-05
446 19.0421 9.7075 0.115148 0 0 1.00091 6.11322e-05
452 19.6147 9.66118 0.957213 0 0 1.0009 6.24883e-05
529 19.7897 10.5655 0.31146 0 0 1.0009 6.50828e-05
1369 19.9255 10.4581 1.71338 0 0 1.0009 6.93089e-05
451 20.2367 8.93398 1.18434 0 0 1.0009 5.60931e-05
453 21.0009 8.98521 0.3808 0 0 1.0009 5.26379e-05
450 20.4458 9.82146 0.227666 0 0 1.0009 5.88601e-05
456 21.034 9.92707 1.03367 0 0 1.00091 5.80099e-05
455 21.827 9.39646 1.05693 0 0 1.0009 5.21108e-05
454 21.8622 10.0857 0.217921 0 0 1.0009 5.29205e-05
457 22.6687 9.35439 0.268824 0 0 1.00091 4.63679e-05