ITEM: TIMESTEP
20500
ITEM: NUMBER OF ATOMS
32000
ITEM: BOX BOUNDS pp pp pp
0.0000000000000000e+00 3.1748021039364001e+01
0.0000000000000000e+00 3.1748021039364001e+01
0.0000000000000000e+00 3.1748021039364001e+01
ITEM: ATOMS id x y z c_phase c_nbond c_rho v_omega
4 0.180301 1.11304 0.467435 0 0 1.00065 2.21191e-06
83 1.0731 1.62105 0.779811 0 0 1.00065 4.26441e-06
842 0.763247 0.763089 1.40758 0 0 1.00065 2.77804e-06
921 0.10589 1.62135 1.37743 0 0 1.00065 2.7443e-06
3 0.730228 0.0378155 0.618281 0 0 1.00065 1.83459e-06
8 1.75913 0.726421 1.01318 0 0 1.00065 3.94276e-06
85 1.89676 1.38413 0.214566 0 0 1.00065 5.2551e-06
925 1.93359 1.55253 1.74996 0 0 1.00065 5.50313e-06
6 2.56247 0.605202 0.199717 0 0 1.00065 4.89452e-06
87 2.74527 1.39108 0.87264 0 0 1.00065 6.46801e-06
846 2.72444 0.668916 1.73424 0 0 1.00065 5.01938e-06
12 3.48639 0.733302 0.956248 0 0 1.00065 6.25751e-06
929 3.72143 1.49733 1.70702 0 0 1.00065 7.9984e-06
10 4.16616 0.631622 0.314889 0 0 1.00065 6.57501e-06
16 5.0122 0.304615 1.1495 0 0 1.00065 6.4809e-06
850 4.39306 0.700385 1.62899 0 0 1.00065 7.27348e-06
91 4.13746 1.60704 0.71216 0 0 1.00065 8.99013e-06
93 5.03677 1.33564 0.381052 0 0 1.00065 9.27273e-06
14 5.69556 0.362226 0.311482 0 0 1.00065 7.26997e-06
95 5.98348 1.02102 0.947095 0 0 1.00065 9.13599e-06
97 6.68424 1.09163 0.217222 0 0 1.00065 9.63034e-06
854 5.82208 0.168626 1.69571 0 0 1.00065 6.64087e-06
933 5.148 1.43275 1.43524 0 0 1.00065 9.8909e-06
20 6.73576 0.0933303 0.866863 0 0 1.00065 6.76819e-06
937 6.76955 0.698364 1.69205 0 0 1.00065 8.58992e-06
24 8.28698 0.0914122 1.05805 0 0 1.00065 6.93395e-06
99 7.46879 0.908452 0.948194 0 0 1.00065 9.49959e-06
941 8.25499 0.93806 1.61387 0 0 1.00065 1.03528e-05
18 7.63143 0.341283 0.151838 0 0 1.00065 7.6501e-06
938 7.48683 1.72838 1.56543 0 0 1.00065 1.27342e-05
101 8.36936 1.07085 0.231401 0 0 1.00065 1.03355e-05
22 8.89289 0.190776 0.257322 0 0 1.00065 7.07792e-06
28 9.57733 0.0290349 0.900593 0 0 1.00065 5.75027e-06
103 9.13824 0.992718 1.09404 0 0 1.00065 1.01315e-05
945 9.6888 0.664372 1.76115 0 0 1.00065 8.39176e-06
105 9.7674 1.05788 0.104028 0 0 1.00064 1.0068e-05
108 9.98823 1.71156 1.09406 0 0 1.00065 1.30998e-05
107 10.4745 0.771135 0.830317 0 0 1.00064 8.72298e-06
949 11.4094 0.758981 1.41795 0 0 1.00064 8.31694e-06
946 10.7676 1.40382 1.724 0 0 1.00065 1.18921e-05
26 10.2698 0.0800784 0.0799104 0 0 1.00065 5.8514e-06
112 11.376 1.57953 0.776977 0 0 1.00065 1.24367e-05
36 12.8969 0.0479287 0.63934 0 0 1.00065 3.83227e-06
111 12.1595 0.862837 0.515958 0 0 1.00065 8.28976e-06
870 12.1557 0.0991003 1.30567 0 0 1.00065 4.80879e-06
953 12.8708 1.00787 1.37499 0 0 1.00065 8.75582e-06
950 12.1686 1.69627 1.46498 0 0 1.00065 1.28269e-05
40 14.4123 0.248056 0.778264 0 0 1.00065 3.90009e-06
115 13.7277 0.989621 0.841909 0 0 1.00065 8.04234e-06
117 14.2524 1.45123 0.156445 0 0 1.00065 1.03769e-05
874 13.6505 0.227329 1.63575 0 0 1.00064 4.15398e-06
957 14.5279 1.08543 1.48124 0 0 1.00065 8.10623e-06
119 15.0829 1.5137 0.668326 0 0 1.00065 1.00965e-05
44 15.8129 0.776574 0.790399 0 0 1.00065 6.06275e-06
878 15.2012 0.439123 1.63961 0 0 1.00065 4.28151e-06
882 16.6415 0.783305 1.34729 0 0 1.00065 5.89386e-06
961 15.8344 1.50561 1.40234 0 0 1.00065 1.03173e-05
38 15.1879 0.678852 0.0717401 0 0 1.00064 5.45289e-06
123 16.7548 1.62556 0.688812 0 0 1.00065 1.05454e-05
48 17.3595 0.850527 0.560096 0 0 1.00065 6.14063e-06
127 18.1384 1.76289 0.755057 0 0 1.00064 1.16018e-05
886 18.0209 0.917642 1.42638 0 0 1.00064 6.9527e-06
47 18.1537 0.102368 0.693528 0 0 1.00064 2.70742e-06
51 19.5442 0.257566 0.671206 0 0 1.00065 4.32667e-06
52 18.8847 0.949728 0.692265 0 0 1.00064 7.20202e-06
889 19.0365 0.385181 1.54899 0 0 1.00064 4.24204e-06
890 19.7336 1.23435 1.69519 0 0 1.00064 9.72116e-06
969 18.8743 1.73268 1.50087 0 0 1.00065 1.17935e-05
55 21.1642 0.66267 1.07362 0 0 1.00065 6.71659e-06
56 20.3484 1.06463 0.968257 0 0 1.00065 8.58739e-06
54 21.2781 1.09405 0.215193 0 0 1.00065 9.24179e-06
893 20.4476 0.171423 1.43222 0 0 1.00065 4.86202e-06
53 20.2793 0.153265 0.0722548 0 0 1.00065 4.62251e-06
57 22.0584 0.62121 0.539396 0 0 1.00065 7.33073e-06
59 22.8645 0.786947 1.40449 0 0 1.00065 8.18499e-06
60 22.2585 1.52007 1.33196 0 0 1.00065 1.16461e-05
58 23.0208 1.42183 0.467283 0 0 1.00065 1.06902e-05
63 24.3076 0.743643 1.42382 0 0 1.00064 8.31295e-06
61 23.6179 0.706862 0.573567 0 0 1.00064 8.03112e-06
62 24.5497 1.53833 0.745917 0 0 1.00064 1.08718e-05
64 23.6263 1.61057 1.39225 0 0 1.00065 1.16879e-05
65 25.0072 0.663186 0.540287 0 0 1.00064 8.01237e-06
67 26.0432 0.702967 1.16717 0 0 1.00065 7.60706e-06
68 25.2788 1.48791 1.46129 0 0 1.00065 1.06337e-05
66 25.9806 1.2759 0.425553 0 0 1.00065 9.29908e-06
17548 25.1679 0.122099 1.36102 0 0 1.00064 6.33072e-06
70 27.6779 1.54963 0.38621 0 0 1.00065 8.21201e-06
71 27.6552 0.767699 0.872361 0 0 1.00065 6.57561e-06
72 26.8363 1.3347 1.25483 0 0 1.00065 8.6217e-06
69 26.8165 0.54028 0.237693 0 0 1.00065 6.75513e-06
913 28.414 0.573125 1.41028 0 0 1.00065 5.40368e-06
76 28.7346 1.44594 0.734063 0 0 1.00065 6.5438e-06
914 29.4473 1.13156 1.56781 0 0 1.00065 5.27667e-06
917 29.8324 0.312034 1.45691 0 0 1.00065 3.43127e-06
75 29.2989 0.527633 0.617459 0 0 1.00065 4.26797e-06
841 31.6023 0.296231 1.25644 0 0 1.00065 1.27335e-06
79 30.7378 0.568676 0.476409 0 0 1.00065 2.671e-06
80 30.174 1.3229 0.772874 0 0 1.00065 4.43754e-06
918 30.9229 1.05034 1.38864 0 0 1.00065 3.1183e-06
82 1.25648 2.37789 0.121522 0 0 1.00065 5.71732e-06
84 0.279568 2.3917 0.808301 0 0 1.00065 3.99311e-06
163 1.47491 3.15243 0.942819 0 0 1.00064 7.23244e-06
922 1.28406 2.30064 1.58798 0 0 1.00065 5.69939e-06
1001 0.565588 3.02746 1.54901 0 0 1.00065 5.17048e-06
161 0.513225 3.0995 0.129745 0 0 1.00065 5.08666e-06
88 2.06067 2.30323 0.783468 0 0 1.00065 6.9406e-06
167 2.86006 3.11352 0.855878 0 0 1.00064 1.00316e-05
926 2.82034 2.0779 1.53647 0 0 1.00065 7.97883e-06
86 2.87546 2.2254 0.0528084 0 0 1.00065 8.33422e-06
1005 2.29768 2.96563 1.7533 0 0 1.00064 8.51461e-06
1009 3.48957 3.20236 1.64656 0 0 1.00065 1.17285e-05
92 3.55202 2.35593 0.782314 0 0 1.00065 9.80884e-06
171 4.42423 3.06639 0.754343 0 0 1.00065 1.28087e-05
930 4.33016 2.39458 1.57956 0 0 1.00065 1.11493e-05
96 5.09631 2.29019 0.818354 0 0 1.00065 1.21494e-05
94 5.84158 2.14685 0.140316 0 0 1.00065 1.26363e-05
175 5.90418 2.88441 0.954997 0 0 1.00065 1.51041e-05
934 6.03202 1.89745 1.48856 0 0 1.00065 1.19904e-05
173 5.22611 3.03549 0.00992232 0 0 1.00065 1.45531e-05
100 6.74072 1.86648 0.780457 0 0 1.00065 1.2486e-05
1017 6.79434 2.72268 1.54319 0 0 1.00065 1.58277e-05
177 6.87899 2.61259 0.125792 0 0 1.00065 1.50945e-05
98 7.64769 1.8984 0.134488 0 0 1.00065 1.32691e-05
104 8.30246 1.86186 0.935461 0 0 1.00064 1.36335e-05
179 7.67468 2.70982 0.90894 0 0 1.00065 1.67183e-05
180 6.81614 3.43031 0.782961 0 0 1.00065 1.82449e-05
1018 7.75565 3.49492 1.50097 0 0 1.00065 2.04081e-05
1021 8.47999 2.637 1.64254 0 0 1.00065 1.73761e-05
181 8.55132 2.6252 0.039113 0 0 1.00065 1.67559e-05
102 9.11684 1.77626 0.247447 0 0 1.00065 1.33575e-05
183 9.22816 2.62646 0.930841 0 0 1.00065 1.78599e-05
942 9.26346 1.88105 1.71352 0 0 1.00065 1.45304e-05
185 9.87418 2.59046 0.2075 0 0 1.00065 1.75869e-05
1022 9.45874 3.40511 1.50222 0 0 1.00065 2.26881e-05
184 8.56711 3.50633 0.705386 0 0 1.00065 2.11069e-05
182 9.36976 3.51392 0.0548996 0 0 1.00065 2.20603e-05
188 10.2682 3.25537 0.88389 0 0 1.00065 2.13244e-05
106 10.5156 1.81761 0.199434 0 0 1.00064 1.37051e-05
187 10.9346 2.50854 0.919486 0 0 1.00065 1.71877e-05
1026 11.1116 3.27879 1.59438 0 0 1.00065 2.21196e-05
1029 11.784 2.57449 1.59253 0 0 1.00065 1.8433e-05
192 11.8263 3.37066 0.806452 0 0 1.00065 2.27359e-05
116 12.9221 1.76344 0.60576 0 0 1.00065 1.26813e-05
191 12.2569 2.4291 0.742833 0 0 1.00065 1.73353e-05
1033 13.2447 2.82592 1.69547 0 0 1.00065 1.9587e-05
196 12.9309 3.40412 0.816672 0 0 1.00065 2.34229e-05
195 13.5957 2.87001 0.840646 0 0 1.00065 1.89979e-05
954 13.6481 1.85448 1.47543 0 0 1.00065 1.28893e-05
120 14.3479 2.34224 0.924958 0 0 1.00065 1.57124e-05
1037 14.4944 3.27769 1.55678 0 0 1.00065 2.23579e-05
197 14.5624 3.13131 0.043123 0 0 1.00064 2.05369e-05
114 13.7052 2.16064 0.0531769 0 0 1.00064 1.49895e-05
199 15.1677 3.38141 0.873748 0 0 1.00064 2.23493e-05
958 15.1232 2.2719 1.44576 0 0 1.00065 1.52982e-05
118 15.1819 2.46396 0.133738 0 0 1.00064 1.62148e-05
124 16.0256 2.46057 0.703424 0 0 1.00064 1.59044e-05
962 16.6615 2.54912 1.52953 0 0 1.00064 1.68259e-05
1041 15.8445 3.26602 1.50832 0 0 1.00064 2.16149e-05
201 16.007 3.27038 0.0227043 0 0 1.00065 2.16255e-05
203 16.7472 3.27324 0.674718 0 0 1.00064 2.13704e-05
965 17.4645 1.87197 1.5639 0 0 1.00064 1.24098e-05
128 17.3922 2.48012 0.680414 0 0 1.00064 1.60041e-05
207 18.3328 3.12456 0.714438 0 0 1.00064 2.00545e-05
966 18.3535 2.62519 1.59609 0 0 1.00064 1.74495e-05
1045 17.5167 3.25373 1.50406 0 0 1.00064 2.12705e-05
131 19.7404 1.82305 0.843228 0 0 1.00064 1.2282e-05
129 19.0724 1.81126 0.00721226 0 0 1.00064 1.18645e-05
132 19.203 2.61749 1.01592 0 0 1.00065 1.69654e-05
209 19.2623 3.26427 0.191916 0 0 1.00064 2.0996e-05
130 19.8965 2.60601 0.110955 0 0 1.00065 1.68338e-05
133 20.5366 1.81603 0.204108 0 0 1.00065 1.24532e-05
135 21.2952 1.97318 0.961505 0 0 1.00065 1.35177e-05
973 20.5569 2.09182 1.74123 0 0 1.00065 1.44911e-05
134 21.458 2.77264 0.458858 0 0 1.00065 1.73116e-05
136 20.5206 2.77237 1.09755 0 0 1.00065 1.82653e-05
213 20.7686 3.35329 0.328919 0 0 1.00065 2.11498e-05
137 22.1787 1.9705 0.51751 0 0 1.00065 1.34297e-05
139 23.1132 2.44303 1.51335 0 0 1.00065 1.54246e-05
138 23.2292 3.00444 0.729701 0 0 1.00065 1.73685e-05
140 22.3567 2.88279 1.23694 0 0 1.00065 1.82049e-05
141 23.9047 2.19874 0.621525 0 0 1.00065 1.3492e-05
143 24.6181 2.37138 1.58509 0 0 1.00065 1.42854e-05
142 24.5924 3.07637 0.773114 0 0 1.00065 1.66809e-05
144 23.97 3.29839 1.53313 0 0 1.00065 1.86721e-05
16108 25.2062 3.20083 0.00639698 0 0 1.00065 1.61813e-05
147 26.0848 2.08555 1.35621 0 0 1.00065 1.17225e-05
149 26.6985 2.10847 0.512353 0 0 1.00065 1.08061e-05
145 25.3023 2.21651 0.52579 0 0 1.00064 1.27936e-05
146 26.0165 2.96915 0.700013 0 0 1.00065 1.44394e-05
148 25.3955 2.95189 1.52119 0 0 1.00065 1.51955e-05
152 26.7368 2.90833 1.52812 0 0 1.00065 1.32536e-05
151 27.6471 2.26413 1.22899 0 0 1.00065 9.82029e-06
153 28.4018 2.33157 0.344893 0 0 1.00065 8.84814e-06
150 27.2907 2.99769 0.634258 0 0 1.00065 1.21874e-05
233 28.208 3.49568 0.337569 0 0 1.00065 1.17337e-05
156 28.4436 3.00395 1.19622 0 0 1.00065 1.02801e-05
993 28.6399 1.95597 1.50438 0 0 1.00065 7.8771e-06
155 29.5714 2.205 0.880887 0 0 1.00065 6.7112e-06
154 29.3669 2.8679 0.286455 0 0 1.00065 8.21571e-06
235 29.4623 3.45244 1.1806 0 0 1.00065 9.05975e-06
997 30.0844 1.9495 1.70343 0 0 1.00065 5.80732e-06
159 31.0353 2.05345 0.922409 0 0 1.00065 4.19634e-06
160 30.3483 2.83462 0.997878 0 0 1.00065 6.14533e-06
239 31.2269 3.41201 0.972763 0 0 1.00065 5.51251e-06
998 31.154 2.76366 1.72658 0 0 1.00065 4.89722e-06
237 30.3198 3.38095 0.150404 0 0 1.00065 7.24217e-06
157 30.5253 2.01527 0.0324775 0 0 1.00065 4.95866e-06
158 31.3025 2.71976 0.0769086 0 0 1.00065 4.50941e-06
164 0.512877 3.77832 0.917445 0 0 1.00065 5.72196e-06
241 0.396093 4.61002 0.472667 0 0 1.00065 6.29323e-06
243 1.39248 4.58835 0.983848 0 0 1.00064 8.86848e-06
162 1.2659 3.80091 0.0687635 0 0 1.00065 7.33128e-06
244 0.376721 5.27361 1.27625 0 0 1.00065 6.8848e-06
168 2.0909 3.92268 0.849795 0 0 1.00064 9.50791e-06
247 2.82114 4.68028 1.12311 0 0 1.00065 1.27037e-05
166 2.90314 3.96859 0.199377 0 0 1.00064 1.16936e-05
245 2.1708 4.82638 0.281226 0 0 1.00065 1.09331e-05
249 3.707 4.62172 0.167504 0 0 1.00065 1.49839e-05
172 3.74313 3.85142 0.884919 0 0 1.00065 1.31635e-05
251 4.3754 4.599 1.15132 0 0 1.00065 1.6882e-05
170 4.52637 3.90694 0.144253 0 0 1.00064 1.51731e-05
250 4.53786 5.17031 0.321114 0 0 1.00065 1.84302e-05
176 5.20018 3.70702 1.15404 0 0 1.00065 1.63934e-05
253 5.33395 4.42363 0.327214 0 0 1.00064 1.86968e-05
174 6.05892 3.60702 0.179024 0 0 1.00065 1.78751e-05
255 6.05555 4.36756 1.02785 0 0 1.00065 2.0473e-05
254 6.15142 5.04348 0.282258 0 0 1.00065 2.26209e-05
256 5.30975 5.09948 1.2885 0 0 1.00065 2.07376e-05
1097 7.03543 4.14121 1.64602 0 0 1.00065 2.20347e-05
260 7.05997 4.76193 0.864976 0 0 1.00065 2.39112e-05
259 7.78594 4.08125 0.562009 0 0 1.00065 2.27967e-05
258 7.75637 4.95484 0.0320108 0 0 1.00064 2.64916e-05
1098 7.85099 4.97781 1.49373 0 0 1.00065 2.73509e-05
1101 8.63328 4.20857 1.47672 0 0 1.00064 2.50279e-05
264 8.67051 4.91165 0.699605 0 0 1.00065 2.83008e-05
263 9.51833 4.19231 0.811573 0 0 1.00065 2.60708e-05
1102 9.56222 4.92089 1.58282 0 0 1.00064 3.10217e-05
262 9.50972 5.07398 0.0215544 0 0 1.00065 3.08016e-05
268 10.2962 4.95202 0.797684 0 0 1.00065 3.15176e-05
265 10.3061 4.17566 0.12321 0 0 1.00065 2.65842e-05
1105 10.3414 3.99565 1.65756 0 0 1.00065 2.63077e-05
267 11.0841 4.30655 0.897623 0 0 1.00065 2.8139e-05
186 11.0128 3.52815 0.170667 0 0 1.00065 2.30039e-05
1106 11.0849 4.8749 1.75487 0 0 1.00064 3.24483e-05
266 11.0503 5.20753 0.0155782 0 0 1.00065 3.37657e-05
269 11.8843 4.41643 0.214811 0 0 1.00064 2.87005e-05
1109 11.8772 4.10569 1.69267 0 0 1.00064 2.86901e-05
272 11.9693 4.97758 1.00835 0 0 1.00064 3.3617e-05
271 12.7246 4.31723 1.00652 0 0 1.00065 2.97079e-05
273 13.1548 4.40469 0.0586336 0 0 1.00064 2.95629e-05
1113 13.3864 4.7551 1.69288 0 0 1.00064 3.32341e-05
275 13.7892 4.54925 0.78538 0 0 1.00065 3.11198e-05
200 14.5211 4.01957 0.69698 0 0 1.00065 2.67779e-05
1034 14.0389 4.06396 1.59155 0 0 1.00065 2.82152e-05
1117 14.8375 5.00828 1.52569 0 0 1.00064 3.57946e-05
277 14.7285 4.78804 0.0815792 0 0 1.00065 3.19805e-05
194 13.7189 3.58207 0.00562761 0 0 1.00065 2.38468e-05
279 15.5769 5.00284 0.818653 0 0 1.00065 3.40238e-05
198 15.4883 4.15483 0.108169 0 0 1.00065 2.73322e-05
1038 15.5664 4.37751 1.59874 0 0 1.00065 2.98018e-05
204 16.1995 4.09426 0.910585 0 0 1.00064 2.7269e-05
281 16.4517 4.82625 0.176885 0 0 1.00064 3.19432e-05
1121 16.4818 5.09231 1.6523 0 0 1.00065 3.58908e-05
1042 16.879 4.05696 1.68061 0 0 1.00064 2.78958e-05
283 17.17 4.72136 0.908636 0 0 1.00064 3.1487e-05
208 17.7721 3.99018 0.808023 0 0 1.00064 2.57899e-05
285 17.9922 4.77619 0.0324142 0 0 1.00064 3.12293e-05
1046 18.4329 3.86674 1.65606 0 0 1.00064 2.57975e-05
287 18.6329 4.73477 1.09477 0 0 1.00064 3.14383e-05
206 18.6215 4.07378 0.0752837 0 0 1.00064 2.57605e-05
212 19.3202 3.98939 0.962807 0 0 1.00064 2.56357e-05
289 19.3707 4.91102 0.358186 0 0 1.00065 3.18309e-05
210 20.0432 4.08443 0.249485 0 0 1.00065 2.57591e-05
211 20.1033 3.54968 1.27392 0 0 1.00065 2.30658e-05
291 20.2066 5.01494 1.11545 0 0 1.00065 3.1834e-05
215 21.6936 3.68252 1.391 0 0 1.00065 2.21641e-05
216 20.8684 4.18971 1.22924 0 0 1.00065 2.58716e-05
295 21.3897 5.1414 1.37629 0 0 1.00064 3.1934e-05
214 21.5324 4.34406 0.516975 0 0 1.00065 2.60225e-05
293 20.6805 5.16003 0.351557 0 0 1.00065 3.15601e-05
217 22.3314 3.60617 0.607041 0 0 1.00065 2.18624e-05
16179 23.0452 3.81075 0.0476947 0 0 1.00065 2.13624e-05
219 23.1994 4.0389 1.4096 0 0 1.00065 2.27206e-05
220 22.3676 4.56206 1.31142 0 0 1.00065 2.68853e-05
218 23.0532 4.78235 0.538097 0 0 1.00065 2.61537e-05
223 24.7934 3.94232 1.55751 0 0 1.00065 2.0121e-05
221 23.9257 4.04924 0.773334 0 0 1.00065 2.15237e-05
222 24.7073 4.7718 0.634629 0 0 1.00065 2.31168e-05
224 23.8934 4.99208 1.34173 0 0 1.00065 2.64305e-05
228 25.3923 4.91472 1.59509 0 0 1.00065 2.2447e-05
227 26.0091 3.88171 1.51944 0 0 1.00065 1.75253e-05
229 26.4552 3.8649 0.595705 0 0 1.00065 1.62291e-05
225 25.3718 4.04842 0.776875 0 0 1.00065 1.88998e-05
232 26.684 4.6636 1.37395 0 0 1.00065 1.81314e-05
226 25.8824 4.81054 0.411733 0 0 1.00065 2.024e-05
231 27.4587 3.66824 1.41323 0 0 1.00065 1.36896e-05
311 27.6631 5.21353 1.40209 0 0 1.00065 1.69839e-05
236 28.2346 4.25789 1.11159 0 0 1.00065 1.35408e-05
230 27.3554 4.37285 0.58206 0 0 1.00065 1.58695e-05
313 28.5712 5.01425 0.700756 0 0 1.00065 1.34704e-05
234 29.1745 3.99465 0.475357 0 0 1.00065 1.04911e-05
315 29.362 4.73799 1.31863 0 0 1.00065 1.12537e-05
240 30.2354 4.20208 1.03019 0 0 1.00065 8.35355e-06
238 31.2565 4.05435 0.360326 0 0 1.00065 5.71005e-06
317 30.4704 4.82147 0.477992 0 0 1.00065 7.86321e-06
319 31.2406 4.6791 1.39302 0 0 1.00065 6.21102e-06
242 1.20641 5.46674 0.460303 0 0 1.00064 9.01363e-06
323 1.11594 6.14884 1.27692 0 0 1.00064 9.32398e-06
324 0.582373 6.9191 1.4927 0 0 1.00064 8.18492e-06
322 1.29973 6.86165 0.568753 0 0 1.00065 1.02905e-05
321 0.29385 6.02033 0.450518 0 0 1.00064 6.89595e-06
248 1.8414 5.39596 1.36923 0 0 1.00065 1.11021e-05
328 2.04372 6.87805 1.24223 0 0 1.00065 1.29783e-05
325 2.20764 6.05072 0.503735 0 0 1.00065 1.27659e-05
327 2.61622 5.97851 1.39851 0 0 1.00065 1.43032e-05
246 2.99593 5.40116 0.273662 0 0 1.00065 1.41133e-05
326 2.83318 6.92431 0.467473 0 0 1.00065 1.60681e-05
252 3.45155 5.39119 1.28499 0 0 1.00065 1.59982e-05
332 3.60979 6.70013 1.14068 0 0 1.00065 1.84106e-05
329 3.75401 6.00679 0.481036 0 0 1.00065 1.76695e-05
331 4.4939 5.77785 1.2229 0 0 1.00065 2.00738e-05
330 4.38728 6.69262 0.227318 0 0 1.00065 2.14626e-05
336 5.19245 6.44675 1.15811 0 0 1.00065 2.43781e-05
333 5.22453 5.89004 0.31905 0 0 1.00065 2.25627e-05
335 6.09983 5.82253 0.95714 0 0 1.00065 2.57924e-05
334 5.98415 6.62955 0.149565 0 0 1.00065 2.76412e-05
337 6.83324 5.66767 0.142327 0 0 1.00065 2.67436e-05
340 6.9187 6.41747 0.967635 0 0 1.00065 3.08633e-05
1177 6.92111 5.56738 1.59801 0 0 1.00065 2.75041e-05
339 7.79332 5.71091 0.759297 0 0 1.00065 3.01476e-05
1178 7.80466 6.36731 1.59543 0 0 1.00064 3.41974e-05
344 8.56265 6.38681 0.711647 0 0 1.00064 3.56348e-05
1181 8.7519 5.66833 1.49758 0 0 1.00064 3.32462e-05
343 9.43686 5.75427 0.74215 0 0 1.00064 3.45623e-05
1182 9.67937 6.48913 1.46334 0 0 1.00064 4.05712e-05
1261 8.65152 6.97663 1.55253 0 0 1.00064 4.0347e-05
1185 10.3469 5.75581 1.48191 0 0 1.00064 3.75309e-05
345 10.3314 5.84516 0.0894965 0 0 1.00065 3.67274e-05
347 11.199 5.66084 0.933645 0 0 1.00064 3.68977e-05
346 11.169 6.56726 0.127222 0 0 1.00065 4.30778e-05
1186 11.1436 6.51971 1.49306 0 0 1.00064 4.45683e-05
348 10.4492 6.75198 0.728859 0 0 1.00064 4.34347e-05
349 11.9531 6.02999 0.0619722 0 0 1.00065 4.01825e-05
352 11.9909 6.77919 0.808561 0 0 1.00065 4.68989e-05
270 12.6051 5.33217 0.187408 0 0 1.00064 3.57837e-05
276 13.3361 5.57774 0.86266 0 0 1.00064 3.85321e-05
351 12.4373 5.92473 1.05092 0 0 1.00064 4.10528e-05
1190 12.8508 6.84702 1.3817 0 0 1.00065 4.97274e-05
274 13.9469 5.37025 0.0331348 0 0 1.00065 3.70179e-05
1114 14.0355 5.69074 1.57684 0 0 1.00064 4.08141e-05
355 14.0773 6.37603 0.794983 0 0 1.00065 4.47505e-05
280 14.7497 5.61607 0.774342 0 0 1.00065 3.95163e-05
357 14.8511 6.28743 0.0354593 0 0 1.00065 4.41681e-05
1197 15.083 6.53477 1.43096 0 0 1.00065 4.87667e-05
278 15.6682 5.60742 0.0423752 0 0 1.00065 3.83534e-05
284 16.5293 5.79439 0.942701 0 0 1.00065 4.01604e-05
359 15.7825 6.45213 0.803569 0 0 1.00065 4.61235e-05
1118 15.8444 5.85263 1.69442 0 0 1.00065 4.25107e-05
361 16.402 6.39414 0.0495374 0 0 1.00065 4.46138e-05
363 17.2244 6.5991 1.15145 0 0 1.00065 4.63874e-05
282 17.2615 5.56195 0.266996 0 0 1.00064 3.70749e-05
288 17.7696 5.60707 1.24243 0 0 1.00064 3.8604e-05
365 17.801 6.46897 0.398583 0 0 1.00064 4.47525e-05
367 18.38 6.50065 1.35942 0 0 1.00064 4.55952e-05
286 18.4701 5.56727 0.521479 0 0 1.00064 3.71807e-05
292 19.3849 5.59336 1.20027 0 0 1.00065 3.72933e-05
369 19.0666 6.54258 0.6177 0 0 1.00065 4.38419e-05
371 20.004 6.95919 1.34787 0 0 1.00065 4.65142e-05
290 20.0682 6.11363 0.627417 0 0 1.00065 3.93533e-05
294 21.3504 6.21146 0.645895 0 0 1.00065 3.74896e-05
296 20.7754 6.02843 1.38919 0 0 1.00065 3.84758e-05
297 22.1083 5.40682 0.788804 0 0 1.00064 3.15704e-05
299 22.9866 5.64044 1.28675 0 0 1.00065 3.17718e-05
300 22.2211 6.35575 1.36815 0 0 1.00065 3.75568e-05
16260 22.2507 6.20911 0.0551521 0 0 1.00064 3.54854e-05
298 23.1797 6.3402 0.652058 0 0 1.00064 3.36072e-05
301 23.9791 5.54341 0.538731 0 0 1.00065 2.77332e-05
303 24.7945 5.76829 1.43979 0 0 1.00065 2.71446e-05
304 23.9827 6.40585 1.28462 0 0 1.00065 3.23468e-05
302 24.6167 6.49081 0.432024 0 0 1.00064 3.02892e-05
305 25.2697 5.68967 0.567952 0 0 1.00065 2.49788e-05
307 26.0879 5.57578 1.35419 0 0 1.00065 2.26697e-05
306 26.1079 6.30777 0.694466 0 0 1.00065 2.41473e-05
308 25.5591 6.51623 1.65296 0 0 1.00065 2.76352e-05
309 26.8601 5.357 0.643336 0 0 1.00065 1.94471e-05
312 27.074 6.25786 1.46932 0 0 1.00065 2.1001e-05
310 27.8529 5.89027 0.712537 0 0 1.00065 1.71613e-05
389 27.1456 6.77861 0.640273 0 0 1.00064 2.14707e-05
391 28.0654 6.81877 1.37232 0 0 1.00064 1.8266e-05
316 28.7053 5.81602 1.46685 0 0 1.00065 1.48446e-05
314 29.6882 5.51787 0.813569 0 0 1.00065 1.10523e-05
395 29.7683 6.41172 1.31739 0 0 1.00065 1.18205e-05
393 28.8237 6.50799 0.652162 0 0 1.00065 1.51887e-05
16355 29.7022 6.35865 0.0756559 0 0 1.00065 1.20789e-05
16276 28.7995 5.67126 0.0456109 0 0 1.00065 1.37453e-05
318 31.256 5.4444 0.591729 0 0 1.00065 6.89742e-06
320 30.5195 5.59784 1.45146 0 0 1.00065 8.80172e-06
397 30.7041 6.31992 0.639585 0 0 1.00065 8.70072e-06
399 31.5254 6.21508 1.37991 0 0 1.00065 6.38777e-06
398 31.5303 7.00981 0.606413 0 0 1.00064 6.05254e-06
401 0.599816 7.62771 0.650118 0 0 1.00065 7.97659e-06
402 1.19134 8.39906 0.600828 0 0 1.00065 1.03756e-05
403 1.44852 7.74877 1.48217 0 0 1.00065 1.13273e-05
404 0.691106 8.52964 1.46207 0 0 1.00065 8.31077e-06
478 0.0134249 8.6593 0.395648 0 0 1.00065 5.83529e-06
405 1.944 7.62527 0.382726 0 0 1.00065 1.2824e-05
408 2.08631 8.44757 1.45643 0 0 1.00065 1.44566e-05
406 2.56872 8.41177 0.396458 0 0 1.00065 1.62999e-05
407 2.76613 7.59262 1.27848 0 0 1.00065 1.65542e-05
412 3.41169 8.23038 0.936904 0 0 1.00065 2.02959e-05
409 3.62434 7.47111 0.328773 0 0 1.00065 1.98221e-05
410 4.22374 8.11177 0.0669403 0 0 1.00065 2.35114e-05
411 4.3933 7.29358 1.21042 0 0 1.00065 2.27305e-05
491 4.33364 8.72589 0.85219 0 0 1.00065 2.52736e-05
413 5.11129 7.27135 0.229141 0 0 1.00065 2.53374e-05
1333 5.11952 8.61188 1.62895 0 0 1.00065 3.01782e-05
416 5.13377 7.86436 0.942845 0 0 1.00065 2.75512e-05
414 6.34427 7.88425 0.190465 0 0 1.00065 3.25451e-05
415 5.942 7.1457 1.0036 0 0 1.00065 2.87404e-05
495 5.78048 8.49461 0.641013 0 0 1.00065 3.21148e-05
1337 6.64721 8.53652 1.24467 0 0 1.00065 3.78595e-05
420 6.90834 7.69586 1.04732 0 0 1.00065 3.49391e-05
417 6.98483 7.10051 0.152113 0 0 1.00065 3.32371e-05
419 7.82951 7.25138 0.735126 0 0 1.00065 3.73876e-05
1258 7.82758 7.6157 1.68466 0 0 1.00065 3.97008e-05
499 7.68363 8.33727 0.720251 0 0 1.00065 4.07922e-05
421 8.56463 7.13218 0.0132346 0 0 1.00065 3.92121e-05
424 8.8411 7.79166 0.868106 0 0 1.00065 4.40848e-05
423 9.51835 7.1397 0.665869 0 0 1.00064 4.25478e-05
1262 9.69846 8.12226 1.43429 0 0 1.00064 5.07181e-05
501 8.66489 8.4956 0.0778924 0 0 1.00065 4.61473e-05
1341 8.61255 8.58635 1.3881 0 0 1.00065 4.80055e-05
1265 10.3518 7.37607 1.58523 0 0 1.00064 4.86681e-05
428 10.3894 8.11445 0.697504 0 0 1.00064 5.19982e-05
427 11.2622 7.48824 0.82972 0 0 1.00064 5.05631e-05
1266 11.2934 8.25842 1.43274 0 0 1.00064 5.77052e-05
426 11.0833 8.38665 0.0163132 0 0 1.00064 5.53599e-05
429 11.9324 7.71343 0.038211 0 0 1.00065 5.31696e-05
432 12.0668 8.42053 0.725413 0 0 1.00064 5.91961e-05
1269 12.1263 7.42607 1.57977 0 0 1.00064 5.43084e-05
431 12.9172 7.8868 0.601225 0 0 1.00064 5.62184e-05
1270 12.8469 8.32651 1.50583 0 0 1.00064 6.23323e-05
356 13.4562 7.05151 0.586464 0 0 1.00065 5.03771e-05
1273 13.6407 7.74307 1.47943 0 0 1.00065 5.9187e-05
435 14.3978 7.93423 0.506202 0 0 1.00065 5.84971e-05
1194 14.2802 7.14253 1.3779 0 0 1.00065 5.25334e-05
1274 14.5007 8.69165 1.56998 0 0 1.00065 6.87295e-05
436 13.7402 8.68022 0.782522 0 0 1.00065 6.47918e-05
360 15.0861 7.25534 0.629977 0 0 1.00065 5.32833e-05
1277 15.0925 8.03979 1.37329 0 0 1.00065 6.14584e-05
364 16.4206 7.34674 0.887206 0 0 1.00065 5.24327e-05
439 15.9103 8.26839 0.873476 0 0 1.00065 6.18388e-05
1198 15.9651 7.52536 1.66104 0 0 1.00065 5.77693e-05
441 16.6413 8.3727 0.149899 0 0 1.00065 6.10531e-05
443 17.0941 8.28705 1.09851 0 0 1.00065 6.14365e-05
362 17.214 7.32754 0.295653 0 0 1.00065 5.19282e-05
368 17.7875 7.54727 1.10513 0 0 1.00064 5.43559e-05
445 17.8437 8.33711 0.305768 0 0 1.00065 6.02846e-05
447 18.5091 8.34029 1.03888 0 0 1.00064 5.89002e-05
366 18.5778 7.46889 0.230738 0 0 1.00065 5.152e-05
372 19.0285 7.38899 1.16138 0 0 1.00065 5.19757e-05
370 19.7448 7.72383 0.622968 0 0 1.00064 5.09312e-05
451 19.7021 8.58361 1.18841 0 0 1.00064 5.95266e-05
449 19.2089 8.56535 0.20774 0 0 1.00065 5.74106e-05
375 21.4134 7.09728 1.3111 0 0 1.00064 4.41285e-05
373 20.6615 7.17551 0.609477 0 0 1.00064 4.5379e-05
453 20.5107 8.60972 0.377478 0 0 1.00064 5.58625e-05
376 20.6019 8.12952 1.32317 0 0 1.00065 5.35406e-05
374 21.3671 7.96635 0.641667 0 0 1.00064 4.87642e-05
377 22.243 7.18573 0.677314 0 0 1.00064 4.13391e-05
379 23.1893 7.22599 1.21087 0 0 1.00065 3.90409e-05
380 22.1907 8.22792 1.14739 0 0 1.00064 4.79011e-05
459 23.1741 8.8028 1.01863 0 0 1.00065 4.62062e-05
378 22.9416 8.03328 0.392042 0 0 1.00064 4.27378e-05
383 24.815 7.10032 1.17991 0 0 1.00065 3.19758e-05
381 23.878 7.29574 0.288581 0 0 1.00064 3.60668e-05
384 23.9931 7.90137 1.07681 0 0 1.00064 3.83128e-05
461 24.0163 8.67516 0.361811 0 0 1.00064 4.04811e-05
463 24.856 8.68664 1.00663 0 0 1.00064 3.73116e-05
382 24.8206 7.86507 0.289911 0 0 1.00064 3.39756e-05
387 26.2913 7.08313 1.41096 0 0 1.00065 2.61472e-05
385 25.6095 7.20929 0.497567 0 0 1.00064 2.84258e-05
388 25.6012 7.92612 1.24613 0 0 1.00064 3.12737e-05
467 26.478 8.52783 1.00064 0 0 1.00065 2.84589e-05
386 26.5116 7.74346 0.379794 0 0 1.00064 2.65475e-05
465 25.6956 8.65757 0.319045 0 0 1.00065 3.25078e-05
390 28.0937 7.37388 0.523618 0 0 1.00064 1.87926e-05
392 27.2142 7.56692 1.33008 0 0 1.00064 2.34274e-05
471 28.1966 8.219 1.21309 0 0 1.00065 1.98055e-05
469 27.4081 8.22855 0.43575 0 0 1.00065 2.30886e-05
394 29.9184 7.1447 0.50975 0 0 1.00065 1.1685e-05
396 29.0083 7.4033 1.23273 0 0 1.00065 1.54056e-05
474 29.9435 8.61195 0.539246 0 0 1.00065 1.19944e-05
475 29.8566 7.91837 1.28148 0 0 1.00064 1.22896e-05
473 29.0629 8.03371 0.418239 0 0 1.00065 1.54197e-05
400 30.6622 7.23364 1.18222 0 0 1.00065 8.84216e-06
479 31.5835 7.88216 1.29399 0 0 1.00064 5.99137e-06
480 30.7698 8.63978 1.19044 0 0 1.00064 8.559e-06
477 30.9699 7.99523 0.387839 0 0 1.00064 7.89062e-06
482 1.43236 10.163 0.264059 0 0 1.00064 1.10019e-05
483 1.35437 9.26435 1.19269 0 0 1.00065 1.10322e-05
484 0.573988 9.92205 0.907153 0 0 1.00065 7.39938e-06
481 0.691376 9.31102 0.126069 0 0 1.00064 8.40174e-06
1322 1.13828 10.0393 1.74466 0 0 1.00065 9.92447e-06
485 2.09114 9.27161 0.437464 0 0 1.00065 1.44443e-05
488 2.146 10.1511 0.972544 0 0 1.00065 1.44779e-05
486 2.92224 9.99102 0.0790342 0 0 1.00065 1.8454e-05
487 2.7314 9.19086 1.20497 0 0 1.00065 1.74881e-05
1326 3.10866 9.91775 1.66392 0 0 1.00065 1.99468e-05
489 3.43949 9.04562 0.0941225 0 0 1.00065 2.08007e-05
1329 3.6031 8.90839 1.66635 0 0 1.00065 2.21149e-05
492 3.73538 9.68777 0.743286 0 0 1.00065 2.26628e-05
496 5.00282 9.53722 0.569196 0 0 1.00065 3.00747e-05
1330 4.52254 9.53005 1.58598 0 0 1.00064 2.8016e-05
1409 3.88273 10.4149 1.44125 0 0 1.00064 2.42895e-05
571 4.45302 10.4843 0.530042 0 0 1.00065 2.71971e-05
1334 5.77524 9.32796 1.17958 0 0 1.00065 3.44588e-05
575 5.80837 10.1824 0.445851 0 0 1.00065 3.55978e-05
1413 5.18684 10.313 1.46198 0 0 1.00065 3.28721e-05
500 6.69974 9.25651 0.510773 0 0 1.00065 3.9053e-05
1417 6.69992 9.95113 1.19534 0 0 1.00065 4.14957e-05
1338 7.67464 9.15758 1.18917 0 0 1.00065 4.53573e-05
1421 8.21269 10.0049 1.33775 0 0 1.00065 5.19868e-05
579 7.41476 10.07 0.46717 0 0 1.00065 4.58827e-05
504 8.5166 9.34646 0.571718 0 0 1.00065 4.97271e-05
503 9.54187 8.87305 0.712852 0 0 1.00064 5.30017e-05
1342 9.33827 9.5967 1.39778 0 0 1.00064 5.68317e-05
583 9.31724 10.2681 0.671945 0 0 1.00065 5.83427e-05
508 10.2492 9.7386 0.668997 0 0 1.00065 6.13618e-05
1345 10.4807 8.99982 1.40961 0 0 1.00064 5.95088e-05
507 11.1424 9.16911 0.666338 0 0 1.00065 6.1669e-05
1346 11.3124 9.62866 1.61691 0 0 1.00065 6.80765e-05
1425 10.2562 10.4718 1.37294 0 0 1.00065 6.79491e-05
587 10.9651 10.5557 0.671105 0 0 1.00065 6.97435e-05
512 11.8636 10.0598 0.725982 0 0 1.00065 7.06012e-05
1349 12.0786 9.15287 1.34502 0 0 1.00064 6.67341e-05
511 12.8229 9.40889 0.692657 0 0 1.00065 6.92039e-05
1353 13.3852 9.27449 1.61527 0 0 1.00064 7.33658e-05
1350 12.7191 10.1178 1.58561 0 0 1.00065 7.77911e-05
510 12.4627 10.2668 0.029412 0 0 1.00065 7.33027e-05
516 13.5405 10.1585 0.949349 0 0 1.00065 7.69991e-05
515 14.3104 9.48832 0.854207 0 0 1.00065 7.22982e-05
1354 14.2951 10.1926 1.70181 0 0 1.00065 8.28691e-05
517 15.0337 9.98229 0.218734 0 0 1.00065 7.68499e-05
514 14.1285 10.424 0.0314557 0 0 1.00064 7.99837e-05
440 15.2511 9.07613 0.785998 0 0 1.00065 6.9001e-05
444 16.71 9.24375 1.1342 0 0 1.00065 7.05446e-05
519 15.922 9.86938 1.02229 0 0 1.00065 7.69429e-05
521 16.4484 10.2189 0.234745 0 0 1.00065 7.7413e-05
438 16.0526 9.2041 0.131203 0 0 1.00065 6.85267e-05
523 17.2784 10.1438 0.974914 0 0 1.00065 7.72405e-05
442 17.2737 9.23166 0.265903 0 0 1.00065 6.79806e-05
448 17.8987 9.29377 1.11191 0 0 1.00065 6.85712e-05
525 17.9179 10.29 0.190281 0 0 1.00065 7.48371e-05
527 18.5244 10.2106 1.08031 0 0 1.00064 7.36503e-05
446 18.5248 9.42999 0.122644 0 0 1.00065 6.59212e-05
452 19.082 9.31527 0.957811 0 0 1.00064 6.62837e-05
529 19.3169 10.1948 0.31219 0 0 1.00065 7.01249e-05
1369 19.4163 10.0702 1.72071 0 0 1.00064 7.36664e-05
450 19.9588 9.44349 0.224937 0 0 1.00064 6.30254e-05
531 20.1862 10.4338 0.888508 0 0 1.00065 6.8021e-05
455 21.3512 8.98057 1.05144 0 0 1.00065 5.55758e-05
456 20.5491 9.50336 1.05045 0 0 1.00065 6.20571e-05
533 20.6796 10.3597 0.0697629 0 0 1.00064 6.44309e-05
535 21.5723 10.4525 0.799027 0 0 1.00065 6.13705e-05
1373 20.9226 10.2902 1.68318 0 0 1.00065 6.77285e-05
454 21.4334 9.65259 0.210689 0 0 1.00065 5.71309e-05