ITEM: TIMESTEP
26500
ITEM: NUMBER OF ATOMS
32000
ITEM: BOX BOUNDS pp pp pp
0.0000000000000000e+00 3.1748021039364001e+01
0.0000000000000000e+00 3.1748021039364001e+01
0.0000000000000000e+00 3.1748021039364001e+01
ITEM: ATOMS id x y z c_phase c_nbond c_rho v_omega
4 0.206549 1.12325 0.467533 0 0 1.00079 -5.41569e-07
83 1.11144 1.61112 0.778994 0 0 1.00079 1.3307e-06
842 0.784993 0.758629 1.40519 0 0 1.00079 1.00318e-07
921 0.145844 1.63367 1.37768 0 0 1.00079 6.57995e-08
3 0.736368 0.0353469 0.618001 0 0 1.00079 -8.69731e-07
8 1.78034 0.704726 1.01236 0 0 1.00079 1.01636e-06
85 1.93403 1.35908 0.21078 0 0 1.00079 2.15368e-06
925 1.97316 1.52058 1.74489 0 0 1.00079 2.53488e-06
6 2.58118 0.563452 0.195854 0 0 1.00079 1.71672e-06
87 2.78255 1.34729 0.867483 0 0 1.00079 3.24979e-06
846 2.74507 0.625582 1.7301 0 0 1.00079 1.98428e-06
12 3.50862 0.672404 0.952907 0 0 1.00079 2.95614e-06
929 3.7634 1.43456 1.70006 0 0 1.00079 4.63434e-06
10 4.18877 0.562201 0.309954 0 0 1.00079 3.09334e-06
850 4.4133 0.624246 1.62537 0 0 1.00079 3.87006e-06
91 4.18527 1.53414 0.710574 0 0 1.00079 5.40943e-06
16 5.0305 0.22504 1.14088 0 0 1.00079 2.96521e-06
93 5.08085 1.25506 0.376579 0 0 1.00079 5.47479e-06
14 5.71682 0.2772 0.305336 0 0 1.00079 3.52061e-06
95 6.01953 0.931135 0.946381 0 0 1.00079 5.24579e-06
854 5.83743 0.0804466 1.6928 0 0 1.00079 3.07219e-06
933 5.19055 1.34199 1.43384 0 0 1.00079 6.12693e-06
97 6.72326 1.00021 0.214522 0 0 1.00079 5.50469e-06
20 6.74587 0.00120826 0.86318 0 0 1.00079 2.92397e-06
937 6.79728 0.602675 1.68914 0 0 1.00079 4.6868e-06
8248 12.8815 15.3838 15.3634 4 23 1.00082 0.002
99 7.50553 0.812527 0.945907 0 0 1.00079 5.34061e-06
941 8.30067 0.83413 1.61331 0 0 1.00079 6.08096e-06
18 7.65104 0.244702 0.151077 0 0 1.00079 3.50616e-06
938 7.55147 1.62566 1.56131 0 0 1.00079 8.41313e-06
101 8.41461 0.975209 0.226494 0 0 1.00079 5.88738e-06
22 8.91 0.0938661 0.251645 0 0 1.00079 2.83578e-06
103 9.18026 0.897789 1.08816 0 0 1.00079 5.68991e-06
945 9.72785 0.571942 1.75776 0 0 1.00079 4.0336e-06
105 9.81477 0.964404 0.106581 0 0 1.00079 5.3924e-06
102 9.1909 1.68344 0.2417 0 0 1.00079 8.59163e-06
108 10.0622 1.62041 1.08733 0 0 1.00079 8.33338e-06
107 10.517 0.689758 0.83128 0 0 1.00079 4.25286e-06
949 11.4554 0.685571 1.41621 0 0 1.00079 3.90144e-06
946 10.8371 1.32541 1.72177 0 0 1.00079 7.34646e-06
22253 4.61232 15.8179 10.9391 0 0 1.00081 0.000108146
112 11.4558 1.51006 0.776939 0 0 1.00079 7.70548e-06
106 10.5985 1.73163 0.193098 0 0 1.00079 8.77599e-06
36 12.9133 0.00525119 0.637757 0 0 1.00079 -1.85526e-07
111 12.2064 0.80508 0.516377 0 0 1.00079 3.82069e-06
870 12.1719 0.0363967 1.30556 0 0 1.00079 6.60771e-07
953 12.9283 0.955764 1.37356 0 0 1.00079 4.35961e-06
950 12.2551 1.63801 1.46071 0 0 1.00079 8.12763e-06
116 13.0152 1.72102 0.607433 0 0 1.00079 7.99765e-06
40 14.4373 0.235314 0.779886 0 0 1.00079 1.06956e-07
115 13.7825 0.964862 0.837569 0 0 1.00079 3.80341e-06
117 14.3332 1.42756 0.150192 0 0 1.00079 6.00129e-06
874 13.673 0.192827 1.63483 0 0 1.00079 2.19474e-07
957 14.5863 1.07926 1.48078 0 0 1.00079 4.08008e-06
119 15.1602 1.51399 0.667806 0 0 1.00079 5.97286e-06
44 15.8602 0.789442 0.789865 0 0 1.00079 2.36781e-06
878 15.2304 0.443084 1.63767 0 0 1.00079 4.86854e-07
882 16.6848 0.818043 1.34886 0 0 1.00079 2.45375e-06
961 15.9128 1.52349 1.40601 0 0 1.00079 6.47565e-06
38 15.2258 0.679446 0.0722803 0 0 1.00079 1.54785e-06
123 16.8339 1.66744 0.690645 0 0 1.00079 6.9271e-06
48 17.4085 0.901898 0.563292 0 0 1.00079 2.8943e-06
886 18.071 0.987464 1.42571 0 0 1.00079 4.04749e-06
47 18.1671 0.171876 0.694503 0 0 1.00079 4.1335e-08
885 17.3094 0.0149962 1.39867 0 0 1.00079 -1.14667e-06
51 19.5637 0.346544 0.675535 0 0 1.00079 1.92612e-06
52 18.9304 1.03676 0.694576 0 0 1.00079 4.62788e-06
889 19.0535 0.471032 1.55172 0 0 1.00079 1.63647e-06
890 19.799 1.33149 1.69615 0 0 1.00079 7.45057e-06
55 21.2027 0.775111 1.07708 0 0 1.0008 4.75161e-06
56 20.3979 1.16864 0.96301 0 0 1.00079 6.41845e-06
54 21.3274 1.21438 0.213726 0 0 1.00079 7.4875e-06
893 20.4558 0.281098 1.42876 0 0 1.00079 2.95471e-06
53 20.2925 0.265624 0.0700935 0 0 1.00079 2.74097e-06
57 22.0936 0.751029 0.540165 0 0 1.00079 5.74403e-06
59 22.9051 0.913357 1.40638 0 0 1.00079 6.66811e-06
60 22.3243 1.65411 1.33227 0 0 1.00079 1.00885e-05
58 23.0692 1.55188 0.471752 0 0 1.00079 9.29771e-06
17538 22.7858 0.0576562 0.470487 0 0 1.00079 2.99088e-06
63 24.3475 0.872289 1.41966 0 0 1.00079 7.14536e-06
61 23.6507 0.832102 0.570419 0 0 1.00079 6.73444e-06
62 24.6015 1.66583 0.740535 0 0 1.00079 9.73873e-06
64 23.6904 1.73962 1.38768 0 0 1.00079 1.0391e-05
65 25.0402 0.786563 0.535029 0 0 1.00079 6.94029e-06
67 26.068 0.817732 1.16493 0 0 1.00079 6.59789e-06
68 25.3304 1.61705 1.45421 0 0 1.00079 9.58904e-06
66 26.0239 1.4008 0.423009 0 0 1.00079 8.38684e-06
17548 25.1819 0.240011 1.35844 0 0 1.00079 5.19938e-06
70 27.7245 1.64578 0.384707 0 0 1.00079 7.40932e-06
71 27.6808 0.86117 0.871699 0 0 1.00079 5.7496e-06
72 26.8747 1.444 1.25216 0 0 1.00079 7.74019e-06
69 26.8383 0.649153 0.241584 0 0 1.00079 5.86975e-06
17552 27.1098 0.0617522 1.00029 0 0 1.00079 4.15952e-06
913 28.4369 0.658447 1.41381 0 0 1.00079 4.52789e-06
76 28.771 1.52122 0.732072 0 0 1.00079 5.77375e-06
914 29.4753 1.19969 1.56734 0 0 1.00079 4.50932e-06
917 29.8467 0.365563 1.45588 0 0 1.00079 2.61701e-06
75 29.317 0.591815 0.618215 0 0 1.00079 3.4717e-06
841 31.6137 0.312531 1.25645 0 0 1.00079 5.16099e-07
79 30.7576 0.601126 0.47811 0 0 1.00079 1.92187e-06
80 30.2064 1.36955 0.771795 0 0 1.00079 3.70149e-06
918 30.949 1.08271 1.38569 0 0 1.00079 2.37772e-06
82 1.31026 2.3628 0.116829 0 0 1.00079 2.57259e-06
84 0.333951 2.39949 0.805709 0 0 1.00079 1.10967e-06
163 1.54102 3.12678 0.938678 0 0 1.00079 4.02776e-06
922 1.33627 2.28369 1.5857 0 0 1.00079 2.74549e-06
1001 0.629371 3.02988 1.54801 0 0 1.00079 2.22071e-06
161 0.579018 3.10506 0.126954 0 0 1.00079 1.99765e-06
88 2.11475 2.26901 0.78138 0 0 1.00079 3.69626e-06
167 2.93268 3.06169 0.852353 0 0 1.00079 6.51526e-06
926 2.87486 2.031 1.53446 0 0 1.00079 4.73703e-06
86 2.931 2.17853 0.049664 0 0 1.00079 4.85866e-06
1005 2.36218 2.92512 1.74702 0 0 1.00079 5.239e-06
1009 3.57107 3.13095 1.64216 0 0 1.00079 8.14915e-06
92 3.61337 2.29338 0.780617 0 0 1.00079 6.2544e-06
171 4.50253 2.98817 0.753763 0 0 1.00079 8.87573e-06
930 4.39876 2.31688 1.57785 0 0 1.00079 7.48255e-06
96 5.16233 2.20188 0.816786 0 0 1.00079 8.1746e-06
94 5.90936 2.05302 0.139791 0 0 1.00079 8.43112e-06
175 5.99356 2.78689 0.951782 0 0 1.00079 1.08367e-05
934 6.09075 1.80424 1.48395 0 0 1.00079 7.94302e-06
173 5.30873 2.94209 0.0119912 0 0 1.00079 1.02717e-05
174 6.1606 3.50205 0.16979 0 0 1.00079 1.32761e-05
100 6.80533 1.76925 0.779373 0 0 1.00079 8.25068e-06
1017 6.88685 2.61525 1.53765 0 0 1.00079 1.1417e-05
177 6.95867 2.51481 0.120118 0 0 1.00079 1.05399e-05
98 7.71577 1.79809 0.129965 0 0 1.00079 8.68243e-06
179 7.76888 2.60083 0.896558 0 0 1.00079 1.1999e-05
180 6.92622 3.32572 0.781229 0 0 1.00079 1.35916e-05
1018 7.87777 3.37851 1.49694 0 0 1.00079 1.55026e-05
104 8.37789 1.75688 0.933863 0 0 1.00079 9.0045e-06
1021 8.57898 2.52642 1.63635 0 0 1.00079 1.25429e-05
181 8.64823 2.52225 0.0349533 0 0 1.00079 1.17375e-05
183 9.33379 2.52248 0.928418 0 0 1.00079 1.28033e-05
942 9.34471 1.7763 1.71497 0 0 1.00079 9.84191e-06
185 9.98361 2.49985 0.203727 0 0 1.00079 1.24705e-05
1022 9.59304 3.29511 1.49862 0 0 1.00079 1.74316e-05
184 8.69222 3.38889 0.701006 0 0 1.00079 1.58056e-05
182 9.50375 3.40997 0.0480756 0 0 1.00079 1.66225e-05
188 10.3956 3.16079 0.876852 0 0 1.00079 1.59315e-05
187 11.043 2.4226 0.916637 0 0 1.00079 1.20399e-05
1026 11.2501 3.19736 1.59145 0 0 1.00079 1.67545e-05
186 11.1599 3.43678 0.165997 0 0 1.00079 1.72688e-05
1025 10.4659 2.27966 1.76155 0 0 1.00079 1.18817e-05
1029 11.9048 2.505 1.59528 0 0 1.00079 1.34294e-05
192 11.9719 3.29622 0.809541 0 0 1.00079 1.72747e-05
191 12.3754 2.37519 0.74277 0 0 1.00079 1.24643e-05
196 13.0775 3.36095 0.814915 0 0 1.00079 1.81399e-05
1033 13.382 2.77388 1.69268 0 0 1.0008 1.43806e-05
195 13.7401 2.84111 0.838815 0 0 1.0008 1.41636e-05
954 13.7431 1.8246 1.46993 0 0 1.00079 8.28007e-06
120 14.4668 2.32129 0.921872 0 0 1.00079 1.10738e-05
1037 14.6573 3.25534 1.55334 0 0 1.0008 1.72273e-05
197 14.7043 3.11953 0.04044 0 0 1.00079 1.54828e-05
114 13.812 2.13019 0.0462441 0 0 1.00079 1.03789e-05
199 15.3336 3.37992 0.868715 0 0 1.00079 1.74503e-05
958 15.2459 2.28092 1.4476 0 0 1.00079 1.11379e-05
118 15.3057 2.4611 0.127455 0 0 1.00079 1.16428e-05
124 16.1441 2.48128 0.704144 0 0 1.00079 1.16706e-05
1041 16.0087 3.29029 1.50778 0 0 1.00079 1.71432e-05
201 16.1634 3.28977 0.0159017 0 0 1.00079 1.70375e-05
962 16.7893 2.58783 1.53147 0 0 1.00079 1.29674e-05
127 18.2248 1.83742 0.751968 0 0 1.00079 8.55119e-06
203 16.9045 3.31452 0.671112 0 0 1.00079 1.73181e-05
965 17.5573 1.92286 1.5627 0 0 1.00079 8.91783e-06
128 17.5138 2.53641 0.675477 0 0 1.00079 1.24744e-05
1045 17.6659 3.31514 1.50367 0 0 1.00079 1.74204e-05
969 18.9605 1.81988 1.4994 0 0 1.00079 9.1285e-06
207 18.4736 3.20308 0.716422 0 0 1.00079 1.67271e-05
966 18.477 2.69974 1.59932 0 0 1.00079 1.42693e-05
131 19.8213 1.92445 0.842668 0 0 1.00079 9.8136e-06
129 19.1563 1.89992 0.0106216 0 0 1.00079 9.14416e-06
132 19.3223 2.72039 1.0166 0 0 1.00079 1.4374e-05
209 19.4022 3.3692 0.191084 0 0 1.00079 1.8255e-05
130 20.0137 2.70823 0.111619 0 0 1.00079 1.43708e-05
133 20.6174 1.92883 0.204223 0 0 1.00079 1.03459e-05
135 21.3741 2.08972 0.960447 0 0 1.00079 1.16329e-05
973 20.649 2.20415 1.74489 0 0 1.00079 1.23646e-05
134 21.5722 2.90338 0.459986 0 0 1.00079 1.5495e-05
136 20.6439 2.88482 1.0885 0 0 1.00079 1.60398e-05
213 20.8995 3.48695 0.324819 0 0 1.00079 1.92036e-05
137 22.2543 2.10465 0.509588 0 0 1.00079 1.18486e-05
139 23.2069 2.58003 1.51099 0 0 1.00079 1.39911e-05
138 23.3275 3.14938 0.726025 0 0 1.0008 1.60459e-05
140 22.458 3.02123 1.23373 0 0 1.0008 1.67087e-05
141 23.9706 2.33993 0.620314 0 0 1.00079 1.23091e-05
143 24.6958 2.5079 1.57558 0 0 1.00079 1.31731e-05
142 24.688 3.21662 0.769523 0 0 1.00079 1.56552e-05
144 24.0769 3.43932 1.5307 0 0 1.00079 1.74611e-05
147 26.149 2.21054 1.35685 0 0 1.00079 1.08479e-05
145 25.3717 2.34537 0.530471 0 0 1.00079 1.18267e-05
146 26.1034 3.09762 0.696017 0 0 1.00079 1.36646e-05
148 25.4838 3.0919 1.52019 0 0 1.00079 1.424e-05
149 26.7606 2.22077 0.511311 0 0 1.00079 9.98165e-06
152 26.815 3.03165 1.52686 0 0 1.00079 1.24988e-05
151 27.7037 2.36288 1.22576 0 0 1.00079 9.00977e-06
150 27.3685 3.10614 0.629695 0 0 1.00079 1.14988e-05
153 28.4625 2.41814 0.343953 0 0 1.00079 8.15245e-06
156 28.5159 3.09159 1.19211 0 0 1.00079 9.62742e-06
993 28.6877 2.04123 1.50569 0 0 1.00079 7.13063e-06
155 29.6192 2.26474 0.879089 0 0 1.00079 6.07455e-06
154 29.4337 2.94244 0.284419 0 0 1.00079 7.6417e-06
235 29.5395 3.52036 1.18045 0 0 1.00079 8.51308e-06
997 30.1346 2.00237 1.70102 0 0 1.00079 5.11433e-06
159 31.0839 2.08102 0.920694 0 0 1.00079 3.56473e-06
160 30.4097 2.87876 0.995137 0 0 1.00079 5.50654e-06
239 31.3005 3.43649 0.97015 0 0 1.00079 5.01763e-06
998 31.216 2.78996 1.72558 0 0 1.00079 4.26957e-06
237 30.3964 3.42848 0.152852 0 0 1.00079 6.76352e-06
157 30.5704 2.0575 0.0336574 0 0 1.00079 4.36311e-06
158 31.3623 2.74287 0.0756482 0 0 1.00079 3.95712e-06
164 0.589821 3.77996 0.913972 0 0 1.00079 2.6228e-06
241 0.485337 4.61737 0.466858 0 0 1.00079 3.00463e-06
243 1.48128 4.56212 0.979472 0 0 1.00079 5.47931e-06
162 1.3462 3.78518 0.0679505 0 0 1.00079 3.96679e-06
244 0.476843 5.27613 1.27389 0 0 1.00079 3.6646e-06
168 2.17791 3.88466 0.848899 0 0 1.00079 6.05317e-06
247 2.9206 4.62463 1.11725 0 0 1.00079 9.01588e-06
166 2.99371 3.91332 0.193728 0 0 1.00079 7.97318e-06
245 2.26563 4.78194 0.278115 0 0 1.00079 7.21954e-06
249 3.81246 4.54567 0.16699 0 0 1.00079 1.09283e-05
172 3.83012 3.78165 0.881756 0 0 1.00079 9.25834e-06
251 4.48937 4.50876 1.14882 0 0 1.00079 1.27611e-05
170 4.62034 3.82072 0.140274 0 0 1.00079 1.09796e-05
250 4.65887 5.07763 0.315283 0 0 1.00079 1.4025e-05
176 5.30056 3.61384 1.14089 0 0 1.00079 1.21802e-05
253 5.44717 4.3228 0.320288 0 0 1.00079 1.41579e-05
255 6.18301 4.25216 1.02151 0 0 1.00079 1.57767e-05
254 6.28207 4.92891 0.270083 0 0 1.00079 1.76417e-05
256 5.43898 4.99502 1.27514 0 0 1.00079 1.62153e-05
1097 7.16127 4.02532 1.64063 0 0 1.00079 1.72048e-05
260 7.1921 4.64846 0.855797 0 0 1.00079 1.87649e-05
259 7.91686 3.96446 0.563308 0 0 1.00079 1.76171e-05
258 7.90402 4.83097 0.0239672 0 0 1.00079 2.09027e-05
1098 8.00526 4.84146 1.4862 0 0 1.00079 2.18813e-05
1101 8.77916 4.08609 1.46802 0 0 1.00079 1.95701e-05
264 8.82816 4.78986 0.695603 0 0 1.00079 2.25104e-05
263 9.67067 4.08119 0.802856 0 0 1.00079 2.03396e-05
1102 9.73687 4.79898 1.57414 0 0 1.00079 2.49856e-05
262 9.68684 4.95589 0.0150832 0 0 1.00079 2.45682e-05
268 10.4772 4.84485 0.793721 0 0 1.00079 2.52928e-05
265 10.4603 4.08016 0.114402 0 0 1.00079 2.07315e-05
1105 10.4995 3.89356 1.6511 0 0 1.00079 2.05796e-05
267 11.2541 4.2034 0.889331 0 0 1.00079 2.20403e-05
1106 11.2783 4.7774 1.74449 0 0 1.00079 2.61375e-05
266 11.2466 5.10039 0.015049 0 0 1.00079 2.69125e-05
269 12.0557 4.34446 0.207 0 0 1.00079 2.25531e-05
1109 12.0524 4.03075 1.68449 0 0 1.00079 2.28842e-05
272 12.1668 4.89862 1.00517 0 0 1.00079 2.71307e-05
271 12.9143 4.26011 1.00793 0 0 1.00079 2.38589e-05
273 13.3305 4.35221 0.0538077 0 0 1.00079 2.3283e-05
270 12.8124 5.25559 0.183977 0 0 1.00079 2.86202e-05
1113 13.5995 4.69883 1.69156 0 0 1.00079 2.69841e-05
275 13.9816 4.52429 0.774226 0 0 1.00079 2.53554e-05
200 14.7052 4.00594 0.693286 0 0 1.00079 2.15118e-05
1034 14.2276 4.02772 1.58611 0 0 1.00079 2.25734e-05
1117 15.0509 4.99281 1.51782 0 0 1.00079 2.97667e-05
277 14.9293 4.77257 0.0803473 0 0 1.00079 2.59392e-05
194 13.8769 3.54912 0.0116334 0 0 1.00079 1.84276e-05
279 15.7957 5.02245 0.818292 0 0 1.00079 2.84657e-05
198 15.6712 4.1627 0.105788 0 0 1.00079 2.19669e-05
1038 15.7693 4.38425 1.59708 0 0 1.00079 2.43285e-05
204 16.3847 4.12255 0.900824 0 0 1.00079 2.2433e-05
281 16.6489 4.86588 0.164414 0 0 1.00079 2.67045e-05
1121 16.7081 5.12983 1.65347 0 0 1.00079 3.05972e-05
1042 17.0731 4.10868 1.67351 0 0 1.00079 2.35317e-05
283 17.3661 4.79218 0.906299 0 0 1.00079 2.6978e-05
208 17.9472 4.06044 0.802278 0 0 1.00079 2.18448e-05
285 18.1791 4.86468 0.0351876 0 0 1.00079 2.71536e-05
1046 18.5987 3.95961 1.65119 0 0 1.00079 2.23949e-05
287 18.8218 4.83809 1.09012 0 0 1.00079 2.79673e-05
206 18.7917 4.16519 0.0759513 0 0 1.00079 2.2212e-05
212 19.4772 4.09746 0.963435 0 0 1.00079 2.26524e-05
289 19.5613 5.0307 0.354513 0 0 1.00079 2.88065e-05
210 20.2025 4.20676 0.252698 0 0 1.00079 2.32211e-05
211 20.2528 3.6672 1.27149 0 0 1.00079 2.05631e-05
291 20.3868 5.14392 1.11872 0 0 1.00079 2.90873e-05
216 21.0198 4.32453 1.22074 0 0 1.00079 2.36373e-05
295 21.5663 5.29735 1.36469 0 0 1.00079 3.0039e-05
214 21.6914 4.49775 0.514804 0 0 1.00079 2.42368e-05
215 21.8313 3.81868 1.39144 0 0 1.00079 2.0156e-05
217 22.4621 3.75556 0.605497 0 0 1.00079 2.04289e-05
16179 23.1772 3.9603 0.0391537 0 0 1.00079 2.00416e-05
219 23.3327 4.18438 1.40478 0 0 1.00079 2.12949e-05
220 22.5178 4.71691 1.30852 0 0 1.00079 2.53447e-05
218 23.2074 4.93859 0.542332 0 0 1.00079 2.48338e-05
223 24.9094 4.09465 1.55556 0 0 1.00079 1.91729e-05
221 24.0544 4.19612 0.767998 0 0 1.00079 2.03897e-05
222 24.8404 4.92961 0.635526 0 0 1.00079 2.22848e-05
224 24.045 5.1471 1.341 0 0 1.00079 2.53059e-05
228 25.5274 5.0593 1.58244 0 0 1.00079 2.16061e-05
227 26.115 4.01666 1.51953 0 0 1.00079 1.67387e-05
229 26.5607 3.9916 0.595146 0 0 1.00079 1.55475e-05
225 25.4834 4.17882 0.765528 0 0 1.00079 1.80149e-05
226 26.0083 4.95276 0.418034 0 0 1.00079 1.95763e-05
233 28.2932 3.593 0.338119 0 0 1.00079 1.1164e-05
232 26.7997 4.7927 1.37303 0 0 1.00079 1.74885e-05
231 27.5523 3.77742 1.4109 0 0 1.00079 1.30043e-05
236 28.3351 4.35731 1.11383 0 0 1.00079 1.3047e-05
230 27.4618 4.49027 0.581938 0 0 1.00079 1.5377e-05
313 28.6754 5.1105 0.696054 0 0 1.00079 1.30821e-05
234 29.2641 4.07305 0.470548 0 0 1.00079 1.00037e-05
315 29.4604 4.81187 1.31259 0 0 1.00079 1.08281e-05
240 30.3208 4.25048 1.02959 0 0 1.0008 7.94334e-06
238 31.3375 4.08326 0.355028 0 0 1.00079 5.32618e-06
317 30.5628 4.86853 0.474045 0 0 1.00079 7.50227e-06
319 31.3328 4.70519 1.38595 0 0 1.00079 5.81803e-06
242 1.31031 5.4472 0.456664 0 0 1.00079 5.44171e-06
323 1.2264 6.12682 1.27472 0 0 1.00079 5.8366e-06
324 0.695704 6.91754 1.48391 0 0 1.00079 4.70507e-06
322 1.413 6.83442 0.56485 0 0 1.00079 6.53331e-06
321 0.405866 6.02837 0.449548 0 0 1.00079 3.48823e-06
248 1.94961 5.35852 1.36215 0 0 1.00079 7.57366e-06
328 2.16003 6.82864 1.23911 0 0 1.00079 9.13197e-06
325 2.31746 6.00238 0.495366 0 0 1.00079 8.87452e-06
327 2.73892 5.92039 1.38678 0 0 1.00079 1.05031e-05
246 3.1046 5.33522 0.270483 0 0 1.00079 1.00863e-05
326 2.95419 6.85132 0.462237 0 0 1.00079 1.1902e-05
252 3.57074 5.3153 1.27535 0 0 1.00079 1.20491e-05
332 3.73198 6.61533 1.13779 0 0 1.00079 1.41297e-05
329 3.87908 5.92058 0.471247 0 0 1.00079 1.33789e-05
331 4.61955 5.6779 1.21462 0 0 1.00079 1.56499e-05
330 4.5244 6.58923 0.223449 0 0 1.00079 1.68325e-05
336 5.33733 6.3305 1.15085 0 0 1.00079 1.9632e-05
333 5.36317 5.7815 0.309197 0 0 1.00079 1.7736e-05
335 6.24344 5.69134 0.951093 0 0 1.00079 2.07058e-05
334 6.13756 6.49683 0.143987 0 0 1.00079 2.23336e-05
415 6.10007 7.01039 0.990805 0 0 1.00079 2.34841e-05
337 6.98659 5.5476 0.133953 0 0 1.00079 2.13206e-05
340 7.08496 6.27478 0.949465 0 0 1.00079 2.52451e-05
1177 7.07827 5.43665 1.5933 0 0 1.00079 2.23211e-05
339 7.95608 5.57491 0.755462 0 0 1.00079 2.43839e-05
1178 7.98364 6.2163 1.58726 0 0 1.00079 2.83139e-05
417 7.15893 6.96374 0.138936 0 0 1.00079 2.73827e-05
344 8.74953 6.24415 0.699021 0 0 1.00079 2.92253e-05
1181 8.92807 5.5331 1.49131 0 0 1.00079 2.72483e-05
343 9.62729 5.62549 0.739982 0 0 1.00079 2.81072e-05
1182 9.88118 6.35037 1.45664 0 0 1.00079 3.37558e-05
1261 8.85796 6.82085 1.5425 0 0 1.00079 3.38716e-05
421 8.76322 6.99066 0.00233106 0 0 1.00079 3.25192e-05
423 9.72886 7.00075 0.660631 0 0 1.00079 3.53716e-05
1185 10.557 5.63186 1.47916 0 0 1.00079 3.08887e-05
345 10.529 5.73409 0.0799434 0 0 1.00079 2.98382e-05
347 11.4049 5.56265 0.91656 0 0 1.00079 2.99625e-05
346 11.3907 6.46436 0.111594 0 0 1.00079 3.55551e-05
1186 11.3749 6.40535 1.48502 0 0 1.00079 3.72242e-05
348 10.6609 6.61301 0.721708 0 0 1.00079 3.58908e-05
349 12.1718 5.94091 0.0491546 0 0 1.00079 3.27107e-05
352 12.2282 6.68298 0.800282 0 0 1.00079 3.91199e-05
351 12.6648 5.85144 1.04475 0 0 1.00079 3.39438e-05
1190 13.1138 6.77051 1.37171 0 0 1.00079 4.17441e-05
276 13.5627 5.52532 0.857962 0 0 1.00079 3.16426e-05
274 14.1618 5.33728 0.0214729 0 0 1.00079 3.03776e-05
1114 14.2752 5.65785 1.57502 0 0 1.00079 3.42052e-05
355 14.3227 6.33699 0.786758 0 0 1.00079 3.74685e-05
280 14.9847 5.60564 0.767634 0 0 1.00079 3.31613e-05
356 13.713 6.99936 0.583697 0 0 1.00079 4.223e-05
357 15.0954 6.28184 0.0265351 0 0 1.00079 3.70578e-05
1197 15.3395 6.51868 1.43332 0 0 1.00079 4.17563e-05
278 15.8887 5.62044 0.0378096 0 0 1.00079 3.21035e-05
359 16.0325 6.48089 0.798474 0 0 1.00079 3.9718e-05
1118 16.0898 5.87215 1.68768 0 0 1.00079 3.64703e-05
361 16.6461 6.43715 0.0459082 0 0 1.00079 3.85147e-05
284 16.7666 5.83757 0.938527 0 0 1.00079 3.44995e-05
363 17.4696 6.67386 1.14645 0 0 1.00079 4.08133e-05
282 17.4776 5.63491 0.25836 0 0 1.00079 3.21039e-05
288 17.994 5.68881 1.23363 0 0 1.00079 3.40237e-05
365 18.0484 6.55558 0.387993 0 0 1.00079 3.98911e-05
367 18.6186 6.60661 1.34422 0 0 1.00079 4.12436e-05
286 18.6911 5.67563 0.50668 0 0 1.00079 3.33792e-05
292 19.5901 5.71869 1.19639 0 0 1.00079 3.41357e-05
369 19.3004 6.67033 0.611566 0 0 1.00079 4.03126e-05
293 20.8681 5.3019 0.353177 0 0 1.00079 2.92368e-05
290 20.2838 6.25019 0.625751 0 0 1.00079 3.6537e-05
294 21.5523 6.37379 0.641497 0 0 1.00079 3.55099e-05
296 20.976 6.18484 1.38322 0 0 1.00079 3.61302e-05
297 22.2916 5.57192 0.780439 0 0 1.00079 2.99719e-05
299 23.1658 5.80923 1.28736 0 0 1.00079 3.05133e-05
300 22.4128 6.52774 1.36098 0 0 1.00079 3.59851e-05
16260 22.4415 6.3824 0.0499498 0 0 1.00079 3.40723e-05
298 23.3516 6.51924 0.645239 0 0 1.00079 3.2519e-05
301 24.1283 5.71328 0.539143 0 0 1.00079 2.6825e-05
303 24.9441 5.93382 1.44067 0 0 1.00079 2.63283e-05
304 24.152 6.58826 1.27956 0 0 1.00079 3.14869e-05
302 24.7811 6.6608 0.434524 0 0 1.00079 2.96478e-05
305 25.4143 5.84245 0.566651 0 0 1.00079 2.43425e-05
307 26.2267 5.72701 1.35615 0 0 1.00079 2.21254e-05
306 26.2544 6.46071 0.691851 0 0 1.00079 2.37535e-05
308 25.712 6.67963 1.64115 0 0 1.00079 2.70608e-05
311 27.7808 5.33198 1.40033 0 0 1.00079 1.65092e-05
309 26.9873 5.48963 0.641658 0 0 1.00079 1.90045e-05
312 27.2052 6.39721 1.46681 0 0 1.00079 2.06395e-05
310 27.9764 6.00826 0.707612 0 0 1.00079 1.68686e-05
389 27.2819 6.91859 0.635555 0 0 1.00079 2.12796e-05
391 28.1889 6.93607 1.37347 0 0 1.00079 1.81045e-05
316 28.8245 5.91539 1.46037 0 0 1.00079 1.45514e-05
314 29.7935 5.5894 0.810967 0 0 1.00079 1.07924e-05
395 29.8821 6.4879 1.31387 0 0 1.00079 1.16821e-05
393 28.9468 6.61013 0.653706 0 0 1.00079 1.50993e-05
16355 29.817 6.43118 0.073065 0 0 1.00079 1.20309e-05
16276 28.9103 5.76778 0.0390444 0 0 1.00079 1.35093e-05
318 31.3589 5.47264 0.58769 0 0 1.00079 6.73992e-06
320 30.6236 5.6451 1.44404 0 0 1.00079 8.53685e-06
397 30.8109 6.36635 0.633595 0 0 1.00079 8.66644e-06
399 31.6298 6.2368 1.3763 0 0 1.00079 6.33419e-06
398 31.643 7.0276 0.603936 0 0 1.00079 6.18917e-06
401 0.717094 7.62632 0.642233 0 0 1.00079 4.22095e-06
402 1.31585 8.37675 0.591124 0 0 1.00079 6.45741e-06
403 1.56435 7.71162 1.4727 0 0 1.00079 7.55399e-06
404 0.805103 8.51835 1.45555 0 0 1.00079 4.59414e-06
478 0.129783 8.67118 0.395285 0 0 1.00079 2.0248e-06
405 2.06534 7.58067 0.3835 0 0 1.00079 8.75861e-06
408 2.211 8.38845 1.45062 0 0 1.00079 1.05222e-05
406 2.6997 8.33961 0.391426 0 0 1.00079 1.20965e-05
407 2.89503 7.52149 1.27398 0 0 1.00079 1.24614e-05
412 3.55093 8.13549 0.931649 0 0 1.00079 1.5965e-05
409 3.75845 7.37522 0.325383 0 0 1.0008 1.5303e-05
410 4.36749 7.99975 0.0580866 0 0 1.0008 1.86247e-05
411 4.53664 7.17793 1.19449 0 0 1.0008 1.80776e-05
491 4.47477 8.60168 0.84472 0 0 1.00079 2.04112e-05
1250 4.37897 7.89041 1.75813 0 0 1.0008 2.01876e-05
1329 3.7407 8.80031 1.66527 0 0 1.00079 1.77894e-05
413 5.26433 7.15529 0.220798 0 0 1.00079 2.02811e-05
1333 5.27841 8.46675 1.61838 0 0 1.00079 2.53325e-05
416 5.28551 7.73677 0.941831 0 0 1.0008 2.25376e-05
414 6.50905 7.73887 0.192751 0 0 1.00079 2.67376e-05
495 5.93819 8.3515 0.627104 0 0 1.0008 2.66118e-05
1337 6.82127 8.37142 1.23197 0 0 1.0008 3.21104e-05
420 7.08802 7.53161 1.04336 0 0 1.00079 2.9056e-05
419 8.01749 7.09204 0.723167 0 0 1.00079 3.10647e-05
1258 8.01772 7.44579 1.67289 0 0 1.00079 3.33596e-05
499 7.86532 8.16993 0.716298 0 0 1.00079 3.41223e-05
424 9.03579 7.63366 0.859118 0 0 1.00079 3.69044e-05
1262 9.91065 7.94846 1.41967 0 0 1.00079 4.29009e-05
501 8.86473 8.3312 0.0678235 0 0 1.00079 3.85726e-05
1341 8.81158 8.41341 1.37858 0 0 1.00079 4.08606e-05
503 9.75458 8.70033 0.699899 0 0 1.00079 4.47514e-05
1265 10.5918 7.22833 1.57425 0 0 1.00079 4.09905e-05
428 10.6194 7.97074 0.691016 0 0 1.00079 4.37052e-05
427 11.497 7.36471 0.818059 0 0 1.00079 4.22316e-05
1266 11.5405 8.13102 1.42476 0 0 1.00078 4.90236e-05
426 11.3189 8.2493 0.00347088 0 0 1.00079 4.60668e-05
429 12.1737 7.60334 0.027432 0 0 1.00079 4.4218e-05
432 12.3077 8.30634 0.715069 0 0 1.00079 4.96465e-05
1269 12.374 7.32247 1.5639 0 0 1.00079 4.60066e-05
431 13.1682 7.80347 0.594711 0 0 1.00079 4.68823e-05
1270 13.1065 8.23901 1.50005 0 0 1.00078 5.28599e-05
1273 13.9083 7.68606 1.47324 0 0 1.00079 5.06981e-05
435 14.6629 7.91118 0.513167 0 0 1.00079 4.95084e-05
1194 14.5546 7.10642 1.38124 0 0 1.00079 4.45059e-05
1274 14.7753 8.66995 1.56493 0 0 1.00079 5.93166e-05
436 13.996 8.6213 0.774363 0 0 1.00079 5.47071e-05
360 15.3467 7.25028 0.632971 0 0 1.00079 4.54369e-05
1277 15.3737 8.02833 1.37445 0 0 1.0008 5.28316e-05
364 16.6785 7.38547 0.872705 0 0 1.0008 4.55218e-05
439 16.1897 8.29146 0.872982 0 0 1.0008 5.36824e-05
1198 16.2424 7.55983 1.66294 0 0 1.0008 5.04164e-05
437 15.5543 8.34606 0.00386733 0 0 1.0008 5.28379e-05
441 16.9026 8.42437 0.142455 0 0 1.00079 5.34145e-05
443 17.3666 8.35841 1.08785 0 0 1.00079 5.46285e-05
362 17.4737 7.40599 0.29301 0 0 1.00079 4.59542e-05
368 18.0585 7.63522 1.09501 0 0 1.00079 4.87549e-05
445 18.1039 8.44139 0.29257 0 0 1.00079 5.46489e-05
447 18.7681 8.47119 1.03218 0 0 1.00079 5.40629e-05
366 18.8323 7.59304 0.226254 0 0 1.00079 4.71262e-05
372 19.2819 7.52326 1.16015 0 0 1.00079 4.83473e-05
370 19.9864 7.87577 0.615402 0 0 1.00079 4.7717e-05
451 19.9562 8.75029 1.18559 0 0 1.00079 5.62769e-05
449 19.4546 8.71568 0.21162 0 0 1.00079 5.34664e-05
371 20.2328 7.11217 1.34678 0 0 1.00079 4.36169e-05
375 21.6273 7.27644 1.30914 0 0 1.00079 4.2328e-05
373 20.884 7.33536 0.604018 0 0 1.00079 4.28955e-05
453 20.7443 8.78799 0.377825 0 0 1.00079 5.37532e-05
376 20.8419 8.30284 1.31922 0 0 1.00079 5.09135e-05
374 21.5889 8.14968 0.625725 0 0 1.00079 4.70957e-05
377 22.4417 7.37419 0.674264 0 0 1.00079 4.01147e-05
379 23.3771 7.41603 1.20889 0 0 1.00079 3.81627e-05
380 22.4035 8.42597 1.14313 0 0 1.00079 4.6782e-05
378 23.1441 8.2273 0.392105 0 0 1.00079 4.19535e-05
383 24.9805 7.28615 1.18318 0 0 1.00079 3.15315e-05
381 24.057 7.47916 0.292602 0 0 1.00079 3.54541e-05
384 24.1734 8.10357 1.07947 0 0 1.00079 3.79223e-05
382 24.9843 8.05394 0.294462 0 0 1.00079 3.38809e-05
387 26.4468 7.2487 1.41102 0 0 1.00079 2.58945e-05
385 25.7606 7.37087 0.496811 0 0 1.00079 2.81742e-05
388 25.7626 8.10762 1.24153 0 0 1.00079 3.11658e-05
467 26.6306 8.7029 1.0028 0 0 1.00079 2.8723e-05
386 26.6546 7.90471 0.381695 0 0 1.00079 2.66766e-05
390 28.2243 7.49757 0.520199 0 0 1.00079 1.88444e-05
392 27.3592 7.72076 1.32385 0 0 1.00079 2.33947e-05
471 28.3304 8.34722 1.21193 0 0 1.00079 2.00954e-05
469 27.5469 8.37985 0.434239 0 0 1.00079 2.34004e-05
394 30.0348 7.22569 0.507169 0 0 1.00079 1.18231e-05
396 29.1294 7.50062 1.23366 0 0 1.00079 1.55026e-05
474 30.0614 8.69792 0.535405 0 0 1.00079 1.25859e-05
475 29.9791 7.99754 1.28083 0 0 1.00079 1.25189e-05
473 29.1867 8.13822 0.417431 0 0 1.00079 1.57543e-05
400 30.776 7.27896 1.18139 0 0 1.00079 8.93599e-06
479 31.6972 7.90188 1.28834 0 0 1.00079 6.34438e-06
480 30.8839 8.68763 1.1908 0 0 1.00079 9.10367e-06
477 31.0827 8.03478 0.387844 0 0 1.00079 8.28534e-06
482 1.54046 10.1221 0.257157 0 0 1.00079 6.87413e-06
483 1.47011 9.22804 1.18544 0 0 1.00079 7.08599e-06
484 0.682986 9.91826 0.909226 0 0 1.00079 3.52496e-06
481 0.801448 9.30182 0.124513 0 0 1.00079 4.30091e-06
1322 1.25197 10.009 1.73853 0 0 1.00079 6.11807e-06
485 2.20787 9.21202 0.428563 0 0 1.00079 1.01278e-05
488 2.25779 10.0794 0.972245 0 0 1.00079 1.02306e-05
486 3.03886 9.89844 0.07723 0 0 1.00079 1.37925e-05
487 2.85713 9.10637 1.19469 0 0 1.00079 1.32069e-05
1326 3.2255 9.8151 1.65895 0 0 1.00079 1.56024e-05
489 3.56921 8.94087 0.0941914 0 0 1.00079 1.61181e-05
492 3.86018 9.57553 0.740999 0 0 1.00079 1.79068e-05
1330 4.66484 9.38916 1.57326 0 0 1.00079 2.32037e-05
1409 4.0009 10.293 1.4334 0 0 1.00079 1.95477e-05
571 4.5732 10.345 0.517701 0 0 1.00079 2.20051e-05
496 5.14509 9.39783 0.566971 0 0 1.00079 2.47759e-05
1334 5.93726 9.1686 1.1765 0 0 1.00079 2.91124e-05
575 5.95848 10.0178 0.443783 0 0 1.00079 2.98702e-05
1413 5.32384 10.1486 1.45214 0 0 1.00079 2.76809e-05
500 6.86337 9.08924 0.50306 0 0 1.00079 3.28105e-05
1417 6.86864 9.77648 1.19202 0 0 1.00079 3.55262e-05
1338 7.85174 8.9802 1.18017 0 0 1.00079 3.86863e-05
579 7.59359 9.87667 0.461504 0 0 1.00079 3.89934e-05
1421 8.41606 9.81277 1.3246 0 0 1.00079 4.48088e-05
504 8.71514 9.17056 0.563912 0 0 1.00079 4.22816e-05
1342 9.55074 9.4009 1.38551 0 0 1.00079 4.86023e-05
583 9.51846 10.0853 0.661445 0 0 1.00079 4.9689e-05
508 10.4664 9.56636 0.662112 0 0 1.00079 5.18464e-05
1345 10.7097 8.83081 1.39826 0 0 1.00079 5.05031e-05
507 11.3811 9.02624 0.660429 0 0 1.00079 5.18459e-05
1346 11.5506 9.47589 1.60299 0 0 1.00079 5.78447e-05
1425 10.4709 10.2785 1.36719 0 0 1.00079 5.82918e-05
587 11.1807 10.3893 0.661192 0 0 1.0008 5.86739e-05
512 12.0974 9.91483 0.717284 0 0 1.00079 5.90652e-05
1349 12.3451 9.0283 1.34895 0 0 1.00079 5.65278e-05
511 13.0734 9.3061 0.685434 0 0 1.00079 5.78343e-05
1350 12.9772 9.99686 1.57819 0 0 1.00079 6.56893e-05
510 12.7079 10.1502 0.026188 0 0 1.00079 6.06486e-05
1429 12.1231 10.5482 1.51073 0 0 1.00079 6.58629e-05
1353 13.6733 9.19647 1.61003 0 0 1.00079 6.26373e-05
516 13.7889 10.089 0.940434 0 0 1.00079 6.41508e-05
515 14.5743 9.45193 0.852854 0 0 1.00079 6.11242e-05
1354 14.5658 10.1572 1.69519 0 0 1.00079 7.04029e-05
514 14.3772 10.3706 0.0307002 0 0 1.00079 6.60446e-05
517 15.2946 9.9603 0.211145 0 0 1.00079 6.4512e-05
440 15.5181 9.06947 0.790725 0 0 1.00079 5.90463e-05
519 16.1826 9.90345 1.01865 0 0 1.00079 6.66971e-05
521 16.7029 10.2622 0.224815 0 0 1.00079 6.72596e-05
438 16.3026 9.23502 0.129052 0 0 1.00079 5.89356e-05
1357 15.4223 9.65603 1.76023 0 0 1.00079 6.80462e-05
444 16.9783 9.30458 1.12987 0 0 1.00079 6.22853e-05
523 17.531 10.2346 0.971323 0 0 1.00079 6.94222e-05
442 17.5248 9.32326 0.259261 0 0 1.00079 6.08588e-05
448 18.1609 9.39563 1.09623 0 0 1.00079 6.22683e-05
525 18.1661 10.4078 0.178872 0 0 1.00079 6.84421e-05
527 18.7616 10.3496 1.07724 0 0 1.00079 6.85544e-05
446 18.7722 9.56328 0.116202 0 0 1.00079 6.0874e-05
452 19.3361 9.47934 0.956009 0 0 1.00079 6.25138e-05
529 19.5456 10.3707 0.309777 0 0 1.00079 6.69198e-05
1369 19.6594 10.2515 1.71675 0 0 1.00079 7.03589e-05
450 20.1924 9.62309 0.224311 0 0 1.00079 6.04954e-05
455 21.5787 9.17682 1.05432 0 0 1.00079 5.41526e-05
456 20.7812 9.7026 1.04178 0 0 1.00079 6.00902e-05
533 20.8964 10.5669 0.0652692 0 0 1.00079 6.32857e-05
1373 21.1356 10.5079 1.68252 0 0 1.00079 6.65819e-05
454 21.64 9.85668 0.212244 0 0 1.00079 5.61275e-05