ITEM: TIMESTEP
16500
ITEM: NUMBER OF ATOMS
32000
ITEM: BOX BOUNDS pp pp pp
0.0000000000000000e+00 3.1748021039364001e+01
0.0000000000000000e+00 3.1748021039364001e+01
0.0000000000000000e+00 3.1748021039364001e+01
ITEM: ATOMS id x y z c_phase c_nbond c_rho v_omega
4 0.159875 1.12517 0.466422 0 0 1.00053 1.93486e-06
83 1.04494 1.64604 0.778874 0 0 1.00053 3.90833e-06
842 0.745799 0.784225 1.40873 0 0 1.00053 2.51215e-06
921 0.0760632 1.6312 1.3761 0 0 1.00053 2.47088e-06
3 0.723738 0.0579908 0.617615 0 0 1.00053 1.56659e-06
8 1.74229 0.758193 1.01335 0 0 1.00053 3.62046e-06
85 1.86913 1.41841 0.216601 0 0 1.00053 4.82158e-06
925 1.90269 1.59106 1.75264 0 0 1.00053 5.1944e-06
6 2.54808 0.652321 0.201473 0 0 1.00053 4.46528e-06
87 2.71858 1.43833 0.875428 0 0 1.00053 6.00798e-06
846 2.70708 0.71502 1.73688 0 0 1.00053 4.73209e-06
12 3.47016 0.792679 0.956951 0 0 1.00053 5.77144e-06
929 3.6913 1.55689 1.7103 0 0 1.00053 7.5432e-06
10 4.14896 0.696739 0.317953 0 0 1.00053 6.00109e-06
16 4.99768 0.376281 1.1558 0 0 1.00053 5.87206e-06
93 5.00643 1.40819 0.382498 0 0 1.00053 8.4979e-06
850 4.37893 0.768423 1.62958 0 0 1.00053 6.72814e-06
91 4.1039 1.67391 0.711806 0 0 1.00053 8.33679e-06
14 5.68083 0.438417 0.315584 0 0 1.00053 6.40767e-06
95 5.95878 1.0988 0.94554 0 0 1.00053 8.26447e-06
97 6.65831 1.17138 0.218128 0 0 1.00053 8.54418e-06
854 5.81038 0.245519 1.69664 0 0 1.00053 5.93819e-06
933 5.11867 1.51154 1.43459 0 0 1.00053 9.1889e-06
20 6.72895 0.172851 0.868148 0 0 1.00053 5.73289e-06
937 6.75044 0.779592 1.69252 0 0 1.00053 7.64698e-06
24 8.28079 0.174671 1.06201 0 0 1.00053 5.43582e-06
99 7.44481 0.990699 0.949143 0 0 1.00053 8.24185e-06
101 8.34067 1.15415 0.233657 0 0 1.00053 8.71018e-06
941 8.22461 1.02494 1.61218 0 0 1.00053 8.87764e-06
18 7.61906 0.424321 0.151031 0 0 1.00053 6.30154e-06
22 8.88354 0.275231 0.261716 0 0 1.00053 5.28411e-06
28 9.57153 0.109682 0.897998 0 0 1.00053 3.84523e-06
103 9.11235 1.0746 1.09784 0 0 1.00053 8.29381e-06
945 9.66298 0.743911 1.76221 0 0 1.00053 6.53197e-06
105 9.73841 1.14108 0.100814 0 0 1.00053 7.94582e-06
32 11.2119 0.0319723 0.641906 0 0 1.00053 2.05868e-06
107 10.4486 0.844361 0.828629 0 0 1.00053 6.32358e-06
9220 30.2858 15.6263 15.6854 0 0 1.00052 2.96821e-05
949 11.3809 0.82742 1.41812 0 0 1.00053 5.61649e-06
946 10.7242 1.47408 1.72423 0 0 1.00053 9.39198e-06
26 10.2627 0.156646 0.0796207 0 0 1.00053 3.53463e-06
112 11.3262 1.64542 0.775278 0 0 1.00053 9.53892e-06
36 12.8897 0.0960464 0.639766 0 0 1.00053 4.99978e-07
111 12.1328 0.921597 0.514214 0 0 1.00053 5.13203e-06
870 12.1485 0.159576 1.30482 0 0 1.00053 1.79885e-06
953 12.8358 1.06184 1.37458 0 0 1.00053 5.42465e-06
950 12.1138 1.75491 1.4655 0 0 1.00053 9.67052e-06
40 14.4 0.275523 0.775468 0 0 1.00053 7.09281e-08
115 13.6959 1.02723 0.843355 0 0 1.00053 4.30068e-06
117 14.2031 1.48879 0.158985 0 0 1.00053 6.30693e-06
874 13.6388 0.268579 1.63614 0 0 1.00053 6.88006e-07
957 14.493 1.10923 1.48039 0 0 1.00053 4.17153e-06
119 15.0358 1.5345 0.666921 0 0 1.00053 5.85319e-06
44 15.7857 0.788214 0.790006 0 0 1.00053 1.90861e-06
123 16.7065 1.61931 0.686433 0 0 1.00053 6.01294e-06
878 15.1851 0.455779 1.64071 0 0 1.00053 4.52544e-07
882 16.6164 0.77955 1.34601 0 0 1.00053 1.74233e-06
961 15.7866 1.51318 1.39891 0 0 1.00053 5.97982e-06
38 15.1672 0.6995 0.0706634 0 0 1.00053 1.35762e-06
48 17.332 0.837288 0.55767 0 0 1.00053 1.85526e-06
127 18.0856 1.73497 0.755029 0 0 1.00053 6.97553e-06
886 17.9918 0.891172 1.42638 0 0 1.00053 2.72735e-06
47 18.1497 0.0771326 0.693146 0 0 1.00053 -1.35216e-06
51 19.5349 0.217579 0.669192 0 0 1.00053 4.83462e-07
52 18.8582 0.913427 0.690361 0 0 1.00053 2.95705e-06
889 19.0277 0.347173 1.54819 0 0 1.00053 4.16241e-07
890 19.6943 1.18852 1.69437 0 0 1.00053 5.59244e-06
969 18.8211 1.69507 1.50037 0 0 1.00053 7.33831e-06
55 21.1422 0.607646 1.07196 0 0 1.00053 3.14181e-06
56 20.3185 1.01541 0.970157 0 0 1.00053 4.63837e-06
54 21.2487 1.03549 0.214804 0 0 1.00053 5.31223e-06
133 20.4868 1.76285 0.202115 0 0 1.00053 8.14624e-06
893 20.4443 0.117993 1.4345 0 0 1.00053 1.20818e-06
53 20.274 0.101478 0.0722778 0 0 1.00053 7.25736e-07
57 22.0387 0.556507 0.538715 0 0 1.00053 3.83559e-06
59 22.8402 0.721936 1.40338 0 0 1.00053 5.05024e-06
60 22.2169 1.45148 1.33126 0 0 1.00053 8.05865e-06
58 22.9896 1.35626 0.463486 0 0 1.00053 7.28443e-06
63 24.2828 0.677293 1.42604 0 0 1.00053 5.50176e-06
61 23.598 0.643287 0.574668 0 0 1.00053 4.95353e-06
62 24.5157 1.47331 0.747801 0 0 1.00053 7.91373e-06
64 23.5849 1.54367 1.39394 0 0 1.00053 8.50953e-06
65 24.9862 0.600965 0.542588 0 0 1.00053 5.27172e-06
67 26.0259 0.645673 1.16821 0 0 1.00053 5.17624e-06
68 25.2443 1.42118 1.4647 0 0 1.00053 7.93575e-06
66 25.9515 1.21377 0.425995 0 0 1.00053 6.66388e-06
17548 25.1592 0.0619714 1.36267 0 0 1.00053 3.8397e-06
70 27.6457 1.50517 0.386065 0 0 1.00053 5.89198e-06
71 27.637 0.724425 0.872507 0 0 1.00053 4.33949e-06
72 26.8092 1.28116 1.25577 0 0 1.00053 6.25554e-06
913 28.3977 0.535466 1.40887 0 0 1.00053 3.34669e-06
69 26.8016 0.488258 0.234872 0 0 1.00053 4.3551e-06
76 28.708 1.41452 0.734602 0 0 1.00053 4.40339e-06
914 29.4256 1.10535 1.56774 0 0 1.00053 3.26454e-06
917 29.8212 0.294712 1.4574 0 0 1.00053 1.49231e-06
75 29.2853 0.504101 0.616761 0 0 1.00053 2.22347e-06
841 31.5924 0.304054 1.25617 0 0 1.00053 -6.62711e-07
79 30.7232 0.565372 0.475367 0 0 1.00053 6.69357e-07
80 30.1497 1.31032 0.772801 0 0 1.00053 2.41855e-06
918 30.9027 1.04709 1.38987 0 0 1.00053 1.14584e-06
82 1.21785 2.40596 0.123593 0 0 1.00053 5.24064e-06
84 0.24005 2.40433 0.808781 0 0 1.00053 3.59843e-06
163 1.42765 3.1869 0.943889 0 0 1.00053 6.71166e-06
922 1.24591 2.32858 1.58807 0 0 1.00053 5.30623e-06
1001 0.519245 3.04246 1.54803 0 0 1.00053 4.76282e-06
161 0.466114 3.11346 0.129956 0 0 1.00053 4.61221e-06
88 2.0215 2.34389 0.783153 0 0 1.00053 6.47132e-06
167 2.80939 3.16515 0.856467 0 0 1.00053 9.39257e-06
926 2.78092 2.12535 1.53541 0 0 1.00053 7.49729e-06
86 2.83667 2.27463 0.0536861 0 0 1.00053 7.7397e-06
1005 2.25133 3.00907 1.75578 0 0 1.00053 8.06372e-06
1009 3.43215 3.2668 1.64674 0 0 1.00053 1.10875e-05
92 3.50911 2.41465 0.781268 0 0 1.00053 9.1562e-06
171 4.37037 3.13586 0.752326 0 0 1.00053 1.20268e-05
930 4.2817 2.46315 1.57893 0 0 1.00053 1.05046e-05
96 5.05144 2.36704 0.817342 0 0 1.00053 1.13092e-05
94 5.79565 2.2274 0.138718 0 0 1.00053 1.16262e-05
175 5.84351 2.96681 0.954393 0 0 1.00053 1.40798e-05
934 5.99191 1.9764 1.48987 0 0 1.00053 1.11184e-05
173 5.17035 3.1165 0.00616745 0 0 1.00053 1.35828e-05
100 6.69769 1.94933 0.778949 0 0 1.00053 1.13351e-05
1017 6.73136 2.81152 1.54467 0 0 1.00053 1.47149e-05
177 6.82647 2.69575 0.127945 0 0 1.00053 1.38181e-05
98 7.60295 1.9842 0.136223 0 0 1.00053 1.18377e-05
104 8.25218 1.95028 0.934263 0 0 1.00053 1.2058e-05
179 7.61211 2.8013 0.915104 0 0 1.00053 1.52643e-05
938 7.44344 1.81417 1.56595 0 0 1.00053 1.14932e-05
1021 8.41399 2.72877 1.64366 0 0 1.00053 1.57842e-05
181 8.48789 2.71392 0.0396875 0 0 1.00053 1.49749e-05
102 9.06887 1.85745 0.249444 0 0 1.00053 1.1396e-05
108 9.94065 1.79164 1.09721 0 0 1.00053 1.09091e-05
183 9.15922 2.71469 0.929758 0 0 1.00053 1.58264e-05
942 9.2103 1.9684 1.70993 0 0 1.00053 1.26501e-05
185 9.80348 2.67101 0.207977 0 0 1.00053 1.51868e-05
1022 9.37127 3.4959 1.50056 0 0 1.00053 2.04846e-05
188 10.186 3.33774 0.884621 0 0 1.00053 1.87645e-05
106 10.4632 1.89534 0.202891 0 0 1.00053 1.11421e-05
187 10.8653 2.58566 0.918948 0 0 1.00053 1.44664e-05
1026 11.0222 3.35185 1.5923 0 0 1.00053 1.92625e-05
1029 11.7075 2.64058 1.58751 0 0 1.00053 1.52783e-05
192 11.7334 3.44144 0.8002 0 0 1.00053 1.93228e-05
116 12.8649 1.81344 0.602528 0 0 1.00053 9.07133e-06
191 12.1824 2.48595 0.741005 0 0 1.00053 1.37749e-05
1033 13.1563 2.87949 1.6936 0 0 1.00054 1.58794e-05
196 12.8379 3.45367 0.814688 0 0 1.00053 1.93006e-05
195 13.5044 2.91284 0.839698 0 0 1.00053 1.48403e-05
954 13.5881 1.89455 1.47689 0 0 1.00053 9.17647e-06
120 14.2737 2.37709 0.924197 0 0 1.00053 1.1465e-05
1037 14.3902 3.31263 1.55525 0 0 1.00053 1.79457e-05
197 14.4728 3.1624 0.0414784 0 0 1.00053 1.58348e-05
114 13.6395 2.20256 0.054988 0 0 1.00053 1.07749e-05
199 15.0622 3.40466 0.87386 0 0 1.00053 1.75345e-05
958 15.0462 2.28695 1.44322 0 0 1.00053 1.0819e-05
118 15.1042 2.48778 0.134938 0 0 1.00053 1.15929e-05
124 15.951 2.46824 0.700712 0 0 1.00053 1.11773e-05
203 16.6473 3.26878 0.673195 0 0 1.00053 1.61038e-05
962 16.5807 2.54423 1.52668 0 0 1.00053 1.20405e-05
1041 15.7394 3.27263 1.50543 0 0 1.00053 1.67558e-05
201 15.908 3.28056 0.0230408 0 0 1.00053 1.64139e-05
965 17.4063 1.8572 1.56336 0 0 1.00053 7.91439e-06
128 17.3162 2.46446 0.680876 0 0 1.00053 1.10521e-05
207 18.243 3.09419 0.710163 0 0 1.00053 1.49039e-05
966 18.2751 2.59604 1.59206 0 0 1.00053 1.26183e-05
1045 17.4208 3.23406 1.50115 0 0 1.00053 1.6236e-05
131 19.6898 1.77658 0.842247 0 0 1.00053 7.91335e-06
129 19.0212 1.77434 0.00367538 0 0 1.00053 7.2572e-06
132 19.1284 2.57176 1.01375 0 0 1.00053 1.20908e-05
211 20.0074 3.49338 1.27345 0 0 1.00053 1.81855e-05
209 19.1733 3.21802 0.190179 0 0 1.00053 1.57612e-05
130 19.8223 2.56048 0.108076 0 0 1.00053 1.20704e-05
135 21.2452 1.91547 0.960622 0 0 1.00053 9.46743e-06
973 20.4983 2.03681 1.7375 0 0 1.00053 1.02944e-05
134 21.385 2.70791 0.456462 0 0 1.00053 1.3018e-05
136 20.4415 2.71803 1.10079 0 0 1.00053 1.37205e-05
213 20.6848 3.2876 0.328357 0 0 1.00053 1.62753e-05
137 22.1304 1.90249 0.52058 0 0 1.00053 9.60726e-06
139 23.0524 2.37212 1.5136 0 0 1.00053 1.19502e-05
138 23.1645 2.92953 0.729945 0 0 1.00053 1.37163e-05
140 22.2902 2.81121 1.23679 0 0 1.00053 1.42444e-05
217 22.246 3.52964 0.605099 0 0 1.00053 1.75819e-05
141 23.8608 2.12597 0.620994 0 0 1.00053 1.02026e-05
143 24.5662 2.29969 1.58957 0 0 1.00053 1.12938e-05
142 24.5284 3.00336 0.773006 0 0 1.00053 1.34707e-05
144 23.8986 3.22415 1.53318 0 0 1.00053 1.53258e-05
16108 25.1413 3.13685 0.0085217 0 0 1.00053 1.31087e-05
147 26.0411 2.02194 1.35498 0 0 1.00053 9.10816e-06
149 26.656 2.05339 0.51161 0 0 1.00053 8.27041e-06
145 25.2556 2.15076 0.521744 0 0 1.00053 9.89354e-06
146 25.9576 2.90368 0.700692 0 0 1.00053 1.16369e-05
148 25.3352 2.87863 1.52041 0 0 1.00053 1.23658e-05
152 26.6829 2.84544 1.52763 0 0 1.00053 1.07255e-05
151 27.6068 2.21699 1.22991 0 0 1.00053 7.55117e-06
153 28.3593 2.29316 0.344225 0 0 1.00053 6.58602e-06
150 27.2368 2.94487 0.635402 0 0 1.00053 9.72842e-06
156 28.3924 2.96396 1.19733 0 0 1.00053 8.06355e-06
233 28.1485 3.44995 0.335341 0 0 1.00053 9.3945e-06
993 28.6052 1.91782 1.50294 0 0 1.00053 5.74824e-06
997 30.048 1.93223 1.704 0 0 1.00053 3.78746e-06
155 29.5362 2.18356 0.880881 0 0 1.00053 4.6153e-06
154 29.3198 2.83734 0.286345 0 0 1.00053 6.03388e-06
235 29.4071 3.42516 1.17918 0 0 1.00053 6.96263e-06
159 31.0001 2.05315 0.922393 0 0 1.00053 2.16257e-06
160 30.3038 2.82275 0.998377 0 0 1.00053 4.1427e-06
239 31.1741 3.41336 0.972412 0 0 1.00053 3.48155e-06
998 31.109 2.76323 1.72573 0 0 1.00053 2.92462e-06
237 30.2653 3.36795 0.146816 0 0 1.00053 5.11539e-06
157 30.4923 2.0063 0.0307904 0 0 1.00053 2.84618e-06
158 31.2596 2.72263 0.0763297 0 0 1.00053 2.43409e-06
164 0.457492 3.79454 0.917451 0 0 1.00053 5.23662e-06
241 0.332327 4.62205 0.474416 0 0 1.00053 5.70651e-06
243 1.32959 4.62253 0.984138 0 0 1.00053 8.22799e-06
162 1.20894 3.82957 0.066686 0 0 1.00053 6.77257e-06
244 0.304862 5.28802 1.27527 0 0 1.00053 6.24574e-06
168 2.02887 3.96493 0.848058 0 0 1.00053 8.88272e-06
247 2.75182 4.73353 1.12488 0 0 1.00053 1.19397e-05
166 2.84012 4.02272 0.201143 0 0 1.00053 1.09288e-05
245 2.10388 4.87341 0.280433 0 0 1.00053 1.02177e-05
249 3.63422 4.68983 0.165332 0 0 1.00053 1.40685e-05
172 3.68289 3.91499 0.88434 0 0 1.00053 1.24345e-05
251 4.29658 4.67562 1.14929 0 0 1.00053 1.59572e-05
170 4.46255 3.98256 0.14481 0 0 1.00053 1.42685e-05
250 4.4548 5.24916 0.321964 0 0 1.00053 1.73803e-05
176 5.13171 3.7856 1.16061 0 0 1.00053 1.54438e-05
253 5.25713 4.50814 0.329566 0 0 1.00053 1.75872e-05
174 5.99143 3.69478 0.183424 0 0 1.00053 1.6673e-05
255 5.96828 4.4624 1.02781 0 0 1.00053 1.92957e-05
254 6.06433 5.13842 0.287415 0 0 1.00053 2.13079e-05
256 5.22113 5.18519 1.29421 0 0 1.00053 1.96584e-05
180 6.74158 3.51731 0.78075 0 0 1.00053 1.69437e-05
1097 6.95041 4.2349 1.64498 0 0 1.00053 2.07159e-05
260 6.97236 4.85506 0.868003 0 0 1.00053 2.24483e-05
259 7.69944 4.17767 0.557445 0 0 1.00053 2.10888e-05
1018 7.6739 3.58988 1.4996 0 0 1.00053 1.89327e-05
258 7.65887 5.05643 0.0345786 0 0 1.00053 2.46957e-05
1098 7.74746 5.08693 1.49328 0 0 1.00053 2.57348e-05
184 8.48423 3.60391 0.704724 0 0 1.00053 1.93062e-05
1101 8.53632 4.30839 1.47805 0 0 1.00053 2.3234e-05
264 8.56704 5.01185 0.697971 0 0 1.00053 2.62265e-05
263 9.41901 4.28588 0.813669 0 0 1.00053 2.37231e-05
182 9.2827 3.60344 0.0566363 0 0 1.00053 1.97647e-05
1102 9.44731 5.02064 1.58374 0 0 1.00053 2.87214e-05
262 9.3941 5.1732 0.0215289 0 0 1.00053 2.82364e-05
268 10.1782 5.04356 0.795479 0 0 1.00053 2.86406e-05
265 10.207 4.25955 0.124994 0 0 1.00053 2.37144e-05
1105 10.2374 4.08273 1.65657 0 0 1.00053 2.379e-05
267 10.9741 4.39639 0.899051 0 0 1.00053 2.50814e-05
186 10.9177 3.61036 0.17106 0 0 1.00053 1.99988e-05
1106 10.9582 4.95995 1.75623 0 0 1.00053 2.94915e-05
269 11.7749 4.48671 0.216675 0 0 1.00053 2.49857e-05
1109 11.7635 4.17446 1.69373 0 0 1.00053 2.52205e-05
272 11.8414 5.05208 1.004 0 0 1.00053 2.98259e-05
271 12.6043 4.37732 1.0021 0 0 1.00053 2.55378e-05
1113 13.2467 4.81538 1.68911 0 0 1.00053 2.89725e-05
273 13.042 4.4628 0.0578224 0 0 1.00053 2.51449e-05
275 13.6657 4.58825 0.788431 0 0 1.00053 2.62152e-05
200 14.4039 4.05259 0.695625 0 0 1.00053 2.18215e-05
1034 13.917 4.10868 1.5906 0 0 1.00053 2.37283e-05
1117 14.6986 5.04074 1.52419 0 0 1.00053 3.05273e-05
277 14.5995 4.82342 0.0772182 0 0 1.00053 2.6621e-05
279 15.4364 5.01411 0.814457 0 0 1.00053 2.83245e-05
198 15.3714 4.17397 0.105381 0 0 1.00053 2.19934e-05
1038 15.4348 4.39496 1.59536 0 0 1.00053 2.4749e-05
204 16.0809 4.09884 0.912791 0 0 1.00053 2.18958e-05
281 16.3247 4.82519 0.179322 0 0 1.00053 2.60501e-05
1121 16.3343 5.09118 1.64719 0 0 1.00053 3.01877e-05
1042 16.7537 4.04497 1.68132 0 0 1.00053 2.25229e-05
283 17.0429 4.69916 0.905123 0 0 1.00053 2.56059e-05
208 17.6592 3.96694 0.807664 0 0 1.00053 2.0306e-05
1046 18.3251 3.82694 1.65519 0 0 1.00053 2.04771e-05
285 17.8714 4.74314 0.0263121 0 0 1.00053 2.51877e-05
287 18.5101 4.69045 1.09372 0 0 1.00053 2.56298e-05
206 18.5115 4.03744 0.0708125 0 0 1.00053 2.02387e-05
212 19.2184 3.9398 0.959056 0 0 1.00053 2.03418e-05
289 19.2467 4.85644 0.356756 0 0 1.00053 2.59585e-05
210 19.9399 4.02699 0.243723 0 0 1.00053 2.04598e-05
291 20.0882 4.95246 1.10919 0 0 1.00053 2.65247e-05
215 21.603 3.61253 1.38858 0 0 1.00053 1.79585e-05
216 20.7691 4.1218 1.23066 0 0 1.00053 2.10785e-05
295 21.2726 5.06029 1.38003 0 0 1.00053 2.69892e-05
214 21.4282 4.26555 0.514603 0 0 1.00053 2.12707e-05
293 20.5573 5.09059 0.346879 0 0 1.00053 2.62185e-05
16179 22.9581 3.73396 0.0504933 0 0 1.00053 1.73729e-05
219 23.1099 3.96257 1.41047 0 0 1.00053 1.90124e-05
220 22.2672 4.48083 1.31017 0 0 1.00053 2.25899e-05
218 22.9501 4.70059 0.532014 0 0 1.00053 2.20967e-05
223 24.7146 3.86084 1.55672 0 0 1.00053 1.69648e-05
221 23.8397 3.97236 0.773926 0 0 1.00053 1.79685e-05
222 24.617 4.68746 0.630855 0 0 1.00053 1.97627e-05
224 23.7911 4.90889 1.33906 0 0 1.00053 2.28185e-05
228 25.2998 4.83734 1.60051 0 0 1.00053 1.95295e-05
227 25.9363 3.81098 1.5176 0 0 1.00053 1.47766e-05
229 26.3832 3.79985 0.59423 0 0 1.00053 1.35195e-05
225 25.2954 3.98096 0.781329 0 0 1.00053 1.59176e-05
232 26.6036 4.59615 1.37249 0 0 1.00053 1.55906e-05
226 25.7962 4.73577 0.40543 0 0 1.00053 1.73427e-05
309 26.7719 5.28781 0.641704 0 0 1.00053 1.68667e-05
231 27.3932 3.61383 1.41293 0 0 1.00053 1.13396e-05
311 27.5805 5.15266 1.40126 0 0 1.00053 1.46975e-05
236 28.1645 4.20991 1.1085 0 0 1.00053 1.12564e-05
230 27.2819 4.31393 0.579685 0 0 1.00053 1.335e-05
313 28.4975 4.96847 0.701143 0 0 1.00053 1.1308e-05
234 29.1114 3.96069 0.476562 0 0 1.00053 8.32487e-06
315 29.2921 4.70592 1.3205 0 0 1.00053 9.21416e-06
240 30.1743 4.18754 1.02849 0 0 1.00053 6.31788e-06
238 31.1985 4.05245 0.362274 0 0 1.00053 3.70142e-06
317 30.404 4.80715 0.478827 0 0 1.00053 5.93917e-06
319 31.1744 4.67787 1.39573 0 0 1.00053 4.33788e-06
242 1.13244 5.49684 0.460105 0 0 1.00053 8.30481e-06
323 1.03674 6.17998 1.27538 0 0 1.00053 8.5989e-06
324 0.500966 6.93523 1.49548 0 0 1.00053 7.43706e-06
322 1.21874 6.89639 0.568633 0 0 1.00053 9.46466e-06
321 0.21403 6.03125 0.448572 0 0 1.00053 6.15987e-06
248 1.76461 5.43688 1.3711 0 0 1.00053 1.03527e-05
328 1.96097 6.92705 1.24038 0 0 1.00053 1.21534e-05
325 2.13057 6.09946 0.506825 0 0 1.00053 1.19125e-05
327 2.52946 6.03241 1.40209 0 0 1.00053 1.34347e-05
246 2.9199 5.46277 0.273014 0 0 1.00053 1.32815e-05
326 2.74859 6.99 0.468334 0 0 1.00053 1.50716e-05
252 3.36791 5.4569 1.28806 0 0 1.00053 1.51003e-05
332 3.52469 6.77251 1.13771 0 0 1.00053 1.74569e-05
329 3.66737 6.08176 0.484976 0 0 1.00053 1.6685e-05
331 4.40772 5.86139 1.22401 0 0 1.00053 1.90595e-05
330 4.29378 6.77942 0.22613 0 0 1.00053 2.02895e-05
336 5.09309 6.53951 1.15801 0 0 1.00053 2.31333e-05
333 5.1299 5.97959 0.32243 0 0 1.00053 2.13419e-05
335 6.00361 5.9284 0.95706 0 0 1.00053 2.44389e-05
334 5.8813 6.73645 0.149456 0 0 1.00053 2.61582e-05
337 6.72988 5.76481 0.14461 0 0 1.00053 2.51763e-05
340 6.80641 6.53054 0.975906 0 0 1.00053 2.92404e-05
1177 6.8149 5.67124 1.59623 0 0 1.00053 2.60679e-05
339 7.68587 5.8208 0.757115 0 0 1.00053 2.83164e-05
1178 7.68507 6.48676 1.59471 0 0 1.00053 3.24288e-05
344 8.43874 6.50149 0.715273 0 0 1.00053 3.34364e-05
1181 8.63557 5.77629 1.49572 0 0 1.00053 3.11535e-05
343 9.31166 5.86035 0.738939 0 0 1.00053 3.20363e-05
1182 9.54718 6.60103 1.46125 0 0 1.00053 3.7927e-05
1185 10.2096 5.85931 1.47752 0 0 1.00053 3.46596e-05
345 10.2032 5.94044 0.0909943 0 0 1.00053 3.35706e-05
347 11.0643 5.74836 0.939612 0 0 1.00053 3.35178e-05
346 11.0251 6.65878 0.132934 0 0 1.00053 3.91721e-05
1186 10.9928 6.61728 1.49159 0 0 1.00053 4.10176e-05
348 10.3119 6.86641 0.727544 0 0 1.00053 4.01659e-05
266 10.9227 5.30155 0.0106862 0 0 1.00053 3.04274e-05
349 11.8119 6.11386 0.065381 0 0 1.00053 3.59993e-05
352 11.8382 6.86715 0.807233 0 0 1.00053 4.24177e-05
270 12.4712 5.4076 0.184836 0 0 1.00053 3.15532e-05
276 13.1899 5.63757 0.860585 0 0 1.00053 3.37371e-05
351 12.2904 5.99545 1.04945 0 0 1.00053 3.66504e-05
1190 12.679 6.92229 1.38057 0 0 1.00053 4.48386e-05
274 13.8086 5.41721 0.0352508 0 0 1.00053 3.16451e-05
1114 13.8799 5.7363 1.57143 0 0 1.00053 3.56493e-05
355 13.919 6.4283 0.79557 0 0 1.00053 3.90477e-05
280 14.598 5.64763 0.772958 0 0 1.00053 3.37349e-05
1197 14.9166 6.57008 1.42325 0 0 1.00053 4.24999e-05
357 14.693 6.31787 0.0353365 0 0 1.00053 3.78547e-05
278 15.5263 5.62492 0.0396974 0 0 1.00053 3.22037e-05
284 16.3752 5.79131 0.941726 0 0 1.00053 3.3883e-05
359 15.6207 6.45939 0.801531 0 0 1.00053 3.93689e-05
1118 15.6843 5.86489 1.69315 0 0 1.00053 3.65422e-05
361 16.2435 6.39298 0.0457639 0 0 1.00053 3.75938e-05
363 17.0643 6.57584 1.14839 0 0 1.00053 3.95629e-05
282 17.1209 5.54043 0.267063 0 0 1.00053 3.06754e-05
286 18.3265 5.52075 0.525421 0 0 1.00053 3.07864e-05
288 17.6235 5.57745 1.24258 0 0 1.00053 3.23896e-05
365 17.6389 6.4381 0.399487 0 0 1.00053 3.77253e-05
367 18.223 6.45543 1.36371 0 0 1.00053 3.89637e-05
292 19.2502 5.53486 1.19831 0 0 1.00053 3.13115e-05
369 18.9131 6.4844 0.615552 0 0 1.00053 3.71074e-05
290 19.9257 6.04797 0.623376 0 0 1.00053 3.33806e-05
371 19.8528 6.88247 1.34411 0 0 1.00053 4.02796e-05
294 21.2156 6.12818 0.644469 0 0 1.00053 3.22439e-05
296 20.6427 5.94826 1.38917 0 0 1.00053 3.30478e-05
375 21.2702 7.00257 1.30749 0 0 1.00053 3.87698e-05
297 21.9865 5.32006 0.790599 0 0 1.00053 2.69192e-05
299 22.8664 5.5502 1.28314 0 0 1.00053 2.7593e-05
300 22.0925 6.26383 1.36899 0 0 1.00053 3.29213e-05
16260 22.1229 6.11834 0.0535144 0 0 1.00053 3.06079e-05
298 23.0631 6.24344 0.652517 0 0 1.00053 2.94522e-05
301 23.8777 5.45265 0.534973 0 0 1.00053 2.40169e-05
303 24.6917 5.67802 1.43665 0 0 1.00053 2.3957e-05
304 23.8668 6.30559 1.28497 0 0 1.00053 2.8718e-05
383 24.7001 6.99763 1.17428 0 0 1.00053 2.8785e-05
302 24.5043 6.399 0.427078 0 0 1.00053 2.6852e-05
305 25.1702 5.60869 0.565611 0 0 1.00053 2.18674e-05
307 25.9921 5.49431 1.35043 0 0 1.00053 1.99311e-05
306 26.0065 6.22563 0.692942 0 0 1.00053 2.1419e-05
308 25.4527 6.42649 1.65739 0 0 1.00053 2.48504e-05
387 26.1822 6.99197 1.40798 0 0 1.00053 2.36539e-05
312 26.9814 6.18328 1.46865 0 0 1.00053 1.86882e-05
310 27.7659 5.83025 0.713119 0 0 1.00053 1.49378e-05
389 27.0496 6.70421 0.640347 0 0 1.00053 1.91641e-05
391 27.9769 6.75847 1.36903 0 0 1.00053 1.62702e-05
316 28.6208 5.76713 1.46898 0 0 1.00053 1.28171e-05
314 29.6131 5.48768 0.812822 0 0 1.00053 9.09401e-06
395 29.6863 6.37761 1.31716 0 0 1.00053 1.00124e-05
393 28.7361 6.45772 0.648162 0 0 1.00053 1.31826e-05
16355 29.6203 6.3285 0.0746884 0 0 1.00053 1.01201e-05
16276 28.7207 5.62562 0.0471868 0 0 1.00053 1.16197e-05
318 31.1826 5.44285 0.591882 0 0 1.00053 4.96828e-06
320 30.4445 5.58292 1.45395 0 0 1.00053 6.97428e-06
397 30.6272 6.30581 0.640951 0 0 1.00053 6.87347e-06
399 31.4497 6.21717 1.37969 0 0 1.00053 4.61197e-06
398 31.4488 7.01458 0.605016 0 0 1.00053 4.38406e-06
401 0.515438 7.64492 0.652364 0 0 1.00053 7.2163e-06
402 1.10139 8.42965 0.604643 0 0 1.00053 9.49382e-06
403 1.36559 7.78998 1.48504 0 0 1.00053 1.05278e-05
404 0.608108 8.55319 1.46288 0 0 1.00053 7.57723e-06
405 1.85744 7.67158 0.378951 0 0 1.00053 1.19436e-05
408 1.99679 8.50181 1.45689 0 0 1.00053 1.35192e-05
406 2.47556 8.47643 0.396674 0 0 1.00053 1.52121e-05
407 2.67488 7.65579 1.27727 0 0 1.00053 1.56004e-05
412 3.31394 8.30912 0.936269 0 0 1.00053 1.91117e-05
409 3.53124 7.5524 0.327579 0 0 1.00053 1.87182e-05
410 4.12402 8.20361 0.0702832 0 0 1.00053 2.22754e-05
411 4.29389 7.38857 1.21771 0 0 1.00053 2.16702e-05
413 5.00632 7.36545 0.232086 0 0 1.00053 2.40464e-05
1333 5.01022 8.7251 1.63117 0 0 1.00053 2.87937e-05
416 5.03029 7.96555 0.937986 0 0 1.00054 2.62106e-05
414 6.23315 7.99931 0.184633 0 0 1.00053 3.09621e-05
415 5.83477 7.25419 1.00825 0 0 1.00053 2.73722e-05
495 5.67285 8.6069 0.645963 0 0 1.00053 3.05952e-05
1337 6.52982 8.664 1.24744 0 0 1.00053 3.60893e-05
420 6.78817 7.82504 1.04476 0 0 1.00053 3.32915e-05
417 6.86895 7.20975 0.156941 0 0 1.00053 3.13966e-05
419 7.70431 7.37718 0.738064 0 0 1.00053 3.53511e-05
1258 7.7008 7.74842 1.68615 0 0 1.00053 3.79269e-05
499 7.56327 8.4681 0.717411 0 0 1.00053 3.88188e-05
421 8.43449 7.24665 0.0165349 0 0 1.00053 3.67413e-05
1261 8.51434 7.09911 1.5525 0 0 1.00053 3.81146e-05
424 8.7135 7.91709 0.867983 0 0 1.00053 4.1594e-05
423 9.38087 7.25324 0.663804 0 0 1.00053 3.97137e-05
1262 9.56032 8.25913 1.43639 0 0 1.00053 4.78509e-05
501 8.53375 8.6269 0.0795389 0 0 1.00053 4.36343e-05
1341 8.48147 8.72182 1.38767 0 0 1.00053 4.5624e-05
1265 10.193 7.49615 1.58585 0 0 1.00053 4.55267e-05
428 10.2399 8.2332 0.69566 0 0 1.00053 4.83757e-05
427 11.1091 7.59489 0.831357 0 0 1.00053 4.65161e-05
1266 11.1337 8.36493 1.43034 0 0 1.00053 5.34315e-05
426 10.9307 8.50385 0.0201664 0 0 1.00053 5.10852e-05
429 11.7762 7.8121 0.0395571 0 0 1.00053 4.82858e-05
432 11.912 8.52207 0.725786 0 0 1.00053 5.40299e-05
1269 11.9658 7.51814 1.58321 0 0 1.00053 4.97227e-05
356 13.2904 7.11198 0.581115 0 0 1.00053 4.4594e-05
431 12.7545 7.96938 0.598465 0 0 1.00053 5.05794e-05
1270 12.679 8.40968 1.50125 0 0 1.00053 5.67057e-05
1273 13.4676 7.80604 1.47662 0 0 1.00053 5.29645e-05
360 14.918 7.28576 0.621117 0 0 1.00053 4.6251e-05
435 14.2262 7.97721 0.49509 0 0 1.00053 5.13221e-05
1194 14.1015 7.19269 1.36854 0 0 1.00053 4.65025e-05
1277 14.9088 8.07523 1.36596 0 0 1.00053 5.41488e-05
1274 14.3227 8.73235 1.56685 0 0 1.00053 6.10251e-05
436 13.576 8.74712 0.781208 0 0 1.00053 5.76341e-05
364 16.2512 7.34781 0.890806 0 0 1.00053 4.51187e-05
439 15.728 8.28217 0.867939 0 0 1.00053 5.35981e-05
1198 15.7842 7.53025 1.6533 0 0 1.00053 5.05493e-05
441 16.471 8.36796 0.148503 0 0 1.00053 5.22889e-05
443 16.9143 8.2678 1.09929 0 0 1.00053 5.31341e-05
362 17.0439 7.30472 0.290716 0 0 1.00053 4.42051e-05
368 17.6095 7.51589 1.1059 0 0 1.00053 4.68981e-05
445 17.6728 8.29668 0.30879 0 0 1.00053 5.16263e-05
447 18.337 8.28077 1.0367 0 0 1.00053 5.10464e-05
366 18.4106 7.41449 0.22663 0 0 1.00053 4.3946e-05
372 18.861 7.32631 1.15568 0 0 1.00053 4.47967e-05
370 19.5838 7.65042 0.622875 0 0 1.00053 4.41141e-05
451 19.532 8.49968 1.18483 0 0 1.00053 5.23367e-05
449 19.0451 8.49417 0.198854 0 0 1.00053 4.96296e-05
373 20.5128 7.09464 0.607513 0 0 1.00053 3.94285e-05
453 20.3541 8.5184 0.371094 0 0 1.00053 4.90555e-05
376 20.4404 8.03854 1.32077 0 0 1.00053 4.74649e-05
374 21.218 7.86936 0.646162 0 0 1.00053 4.30632e-05
377 22.1093 7.08437 0.673992 0 0 1.00053 3.64042e-05
379 23.0613 7.12216 1.20793 0 0 1.00053 3.48687e-05
380 22.0459 8.11967 1.14535 0 0 1.00053 4.30076e-05
457 22.1015 8.80856 0.267543 0 0 1.00053 4.50281e-05
459 23.0431 8.68017 1.0155 0 0 1.00053 4.20726e-05
378 22.8038 7.92781 0.387427 0 0 1.00053 3.8328e-05
1218 22.8988 7.97487 1.7639 0 0 1.00053 4.11974e-05
381 23.7554 7.1961 0.281525 0 0 1.00053 3.22092e-05
384 23.8683 7.78914 1.07073 0 0 1.00053 3.47085e-05
461 23.8951 8.55986 0.363345 0 0 1.00053 3.68747e-05
463 24.7381 8.57243 1.00153 0 0 1.00053 3.4348e-05
382 24.7073 7.76159 0.282921 0 0 1.00053 3.07164e-05
385 25.5039 7.12212 0.494379 0 0 1.00053 2.55875e-05
388 25.4879 7.82501 1.24582 0 0 1.00053 2.86135e-05
467 26.3697 8.43003 0.996287 0 0 1.00053 2.62216e-05
386 26.4107 7.65589 0.375231 0 0 1.00053 2.40398e-05
465 25.5851 8.55727 0.315033 0 0 1.00053 2.98627e-05
390 28.0005 7.3097 0.523009 0 0 1.00053 1.6796e-05
392 27.1115 7.48267 1.33122 0 0 1.00053 2.12979e-05
470 28.2458 8.82174 0.414066 0 0 1.00053 1.7433e-05
471 28.1003 8.15121 1.21115 0 0 1.00053 1.802e-05
469 27.3093 8.14684 0.433209 0 0 1.00053 2.1026e-05
394 29.8344 7.10786 0.508371 0 0 1.00053 9.91074e-06
396 28.9208 7.3557 1.22989 0 0 1.00053 1.36272e-05
474 29.8574 8.57205 0.538968 0 0 1.00053 1.04488e-05
475 29.768 7.88213 1.27895 0 0 1.00053 1.07325e-05
476 29.0444 8.82062 1.18677 0 0 1.00053 1.41151e-05
473 28.9732 7.98167 0.416043 0 0 1.00053 1.36883e-05
400 30.5794 7.21961 1.18005 0 0 1.00053 7.24443e-06
479 31.501 7.88537 1.29454 0 0 1.00053 4.44838e-06
480 30.686 8.62424 1.18726 0 0 1.00053 7.14758e-06
477 30.8876 7.98557 0.384863 0 0 1.00053 6.31072e-06
478 31.6771 8.6684 0.393046 0 0 1.00053 3.45172e-06
482 1.35344 10.2069 0.26598 0 0 1.00053 1.0172e-05
483 1.26984 9.30513 1.19446 0 0 1.00053 1.02089e-05
484 0.493256 9.94021 0.90266 0 0 1.00053 6.62219e-06
481 0.610521 9.33372 0.124153 0 0 1.00053 7.57027e-06
1322 1.05491 10.0752 1.74511 0 0 1.00053 9.19504e-06
485 2.00738 9.32742 0.440765 0 0 1.00053 1.35188e-05
488 2.06521 10.2167 0.969487 0 0 1.00053 1.36869e-05
486 2.839 10.0702 0.0784086 0 0 1.00053 1.75387e-05
487 2.64184 9.26331 1.20851 0 0 1.00053 1.65485e-05
1326 3.02483 10.0026 1.66252 0 0 1.00053 1.91072e-05
489 3.34878 9.13323 0.0903817 0 0 1.00053 1.96809e-05
1329 3.50526 8.99575 1.66163 0 0 1.00053 2.10412e-05
492 3.64756 9.77917 0.740241 0 0 1.00053 2.16424e-05
491 4.23567 8.82546 0.852699 0 0 1.00053 2.40432e-05
496 4.90466 9.64747 0.567515 0 0 1.00053 2.87423e-05
1330 4.42313 9.64076 1.59046 0 0 1.00053 2.68676e-05
1409 3.79801 10.5119 1.44197 0 0 1.00053 2.34666e-05
500 6.59009 9.38706 0.511701 0 0 1.00053 3.73249e-05
1334 5.66437 9.45135 1.17528 0 0 1.00053 3.29532e-05
1417 6.58694 10.0851 1.19158 0 0 1.00053 3.97941e-05
575 5.70682 10.3104 0.44294 0 0 1.00053 3.41768e-05
1413 5.09311 10.4411 1.46312 0 0 1.00053 3.17267e-05
1338 7.55742 9.29511 1.18884 0 0 1.00053 4.33158e-05
1421 8.07765 10.1529 1.34069 0 0 1.00053 4.97326e-05
579 7.29616 10.2199 0.466154 0 0 1.00053 4.39309e-05
504 8.38645 9.48413 0.571672 0 0 1.00053 4.71538e-05
503 9.4033 9.01033 0.715545 0 0 1.00053 4.99153e-05
1342 9.20013 9.75014 1.39851 0 0 1.00053 5.40567e-05
583 9.18639 10.4117 0.674011 0 0 1.00053 5.53714e-05
508 10.1091 9.87763 0.666552 0 0 1.00053 5.76492e-05
1345 10.332 9.13564 1.40889 0 0 1.00053 5.59513e-05
507 10.9882 9.2891 0.663083 0 0 1.00053 5.71546e-05
1346 11.1585 9.75394 1.61815 0 0 1.00053 6.37088e-05
512 11.7146 10.1834 0.724861 0 0 1.00053 6.50493e-05
1349 11.9054 9.26241 1.33469 0 0 1.00053 6.14186e-05
511 12.6623 9.50464 0.69059 0 0 1.00053 6.26842e-05
516 13.381 10.2331 0.94897 0 0 1.00053 6.89101e-05
1353 13.1979 9.35363 1.61125 0 0 1.00053 6.64023e-05
1350 12.5523 10.2257 1.58405 0 0 1.00053 7.13527e-05
510 12.3056 10.3725 0.0268457 0 0 1.00053 6.65165e-05
515 14.1404 9.54047 0.848117 0 0 1.00053 6.36662e-05
1354 14.1194 10.2443 1.69917 0 0 1.00053 7.38884e-05
517 14.8653 10.0273 0.217295 0 0 1.00053 6.65347e-05
1357 14.9499 9.69995 1.76147 0 0 1.00053 6.98608e-05
514 13.9689 10.4893 0.0254512 0 0 1.00053 7.00644e-05
440 15.0787 9.10967 0.776581 0 0 1.00053 6.00717e-05
444 16.5343 9.23246 1.13127 0 0 1.00053 6.10947e-05
1278 15.7354 9.04522 1.76307 0 0 1.00053 6.40018e-05
519 15.7518 9.87547 1.01812 0 0 1.00053 6.64285e-05
521 16.2831 10.2204 0.235502 0 0 1.00053 6.57751e-05
438 15.8894 9.21321 0.125042 0 0 1.00053 5.8831e-05
523 17.1121 10.1128 0.970696 0 0 1.00053 6.63378e-05
442 17.1087 9.19973 0.263465 0 0 1.00053 5.80526e-05
448 17.7253 9.25453 1.11539 0 0 1.00053 5.95746e-05
525 17.754 10.2423 0.191143 0 0 1.00053 6.38423e-05
527 18.3656 10.1463 1.07671 0 0 1.00053 6.40915e-05
446 18.361 9.37124 0.11994 0 0 1.00053 5.67389e-05
452 18.9124 9.23473 0.953143 0 0 1.00053 5.78339e-05
529 19.163 10.1065 0.307362 0 0 1.00053 6.11012e-05
531 20.04 10.332 0.880589 0 0 1.00053 6.06442e-05
1369 19.2521 9.97693 1.71865 0 0 1.00053 6.55067e-05
450 19.8022 9.35176 0.218688 0 0 1.00053 5.52447e-05
455 21.1966 8.87468 1.04455 0 0 1.00053 4.98402e-05
456 20.3918 9.39727 1.05103 0 0 1.00053 5.54016e-05