ITEM: TIMESTEP
27000
ITEM: NUMBER OF ATOMS
32000
ITEM: BOX BOUNDS pp pp pp
0.0000000000000000e+00 3.1748021039364001e+01
0.0000000000000000e+00 3.1748021039364001e+01
0.0000000000000000e+00 3.1748021039364001e+01
ITEM: ATOMS id x y z c_phase c_nbond c_rho v_omega
4 0.206955 1.12426 0.467435 0 0 1.0008 -3.58086e-07
83 1.11287 1.61047 0.778859 0 0 1.0008 1.52878e-06
842 0.785019 0.758372 1.40502 0 0 1.0008 2.73201e-07
921 0.147466 1.63481 1.37758 0 0 1.0008 2.77144e-07
3 0.735063 0.0352903 0.617975 0 0 1.0008 -7.32209e-07
8 1.78024 0.703027 1.01233 0 0 1.0008 1.17446e-06
85 1.93522 1.35711 0.210516 0 0 1.0008 2.33426e-06
925 1.9746 1.51806 1.74456 0 0 1.0008 2.73602e-06
6 2.58077 0.560192 0.195549 0 0 1.0008 1.85452e-06
87 2.78376 1.34382 0.867145 0 0 1.0008 3.42179e-06
846 2.74489 0.62211 1.72986 0 0 1.0008 2.13567e-06
12 3.50847 0.667535 0.952694 0 0 1.0008 3.08571e-06
929 3.76497 1.4295 1.6996 0 0 1.0008 4.80424e-06
10 4.18855 0.556611 0.309615 0 0 1.0008 3.20263e-06
850 4.41297 0.618045 1.62516 0 0 1.0008 3.98519e-06
91 4.18722 1.52828 0.710525 0 0 1.0008 5.56516e-06
16 5.02987 0.218569 1.14028 0 0 1.0008 3.04297e-06
93 5.08238 1.24855 0.37627 0 0 1.0008 5.59177e-06
14 5.71636 0.27028 0.304901 0 0 1.0008 3.57714e-06
95 6.02034 0.923774 0.946402 0 0 1.0008 5.3221e-06
854 5.83654 0.073204 1.69269 0 0 1.0008 3.12653e-06
933 5.19202 1.33464 1.43384 0 0 1.0008 6.24959e-06
97 6.72425 0.992729 0.214388 0 0 1.0008 5.55833e-06
8245 12.0902 15.1118 14.6563 4 18 1.00083 0.002
937 6.79737 0.594796 1.68902 0 0 1.0008 4.72826e-06
8248 13.0385 14.799 15.3634 4 23 1.00083 0.002
99 7.5063 0.804625 0.945852 0 0 1.0008 5.35622e-06
941 8.30212 0.825497 1.61335 0 0 1.0008 6.06416e-06
18 7.65033 0.236733 0.151063 0 0 1.0008 3.48676e-06
938 7.55459 1.61718 1.56111 0 0 1.0008 8.46994e-06
101 8.41601 0.967306 0.226167 0 0 1.0008 5.86223e-06
22 8.90903 0.0858178 0.25123 0 0 1.0008 2.75311e-06
103 9.18141 0.889901 1.08779 0 0 1.0008 5.62449e-06
945 9.72871 0.56419 1.75756 0 0 1.0008 3.93579e-06
105 9.81629 0.95664 0.10682 0 0 1.0008 5.28425e-06
102 9.19464 1.67573 0.241301 0 0 1.0008 8.55336e-06
108 10.066 1.6128 1.08689 0 0 1.0008 8.24471e-06
107 10.5181 0.682879 0.831405 0 0 1.0008 4.10042e-06
949 11.4568 0.679305 1.41608 0 0 1.0008 3.69979e-06
946 10.8406 1.31872 1.72167 0 0 1.0008 7.21391e-06
22253 4.61239 15.7524 10.9443 0 0 1.00082 0.000107383
112 11.46 1.50411 0.776964 0 0 1.0008 7.51549e-06
106 10.6029 1.72442 0.192707 0 0 1.0008 8.64543e-06
36 12.9123 0.00140712 0.637536 0 0 1.0008 -4.98856e-07
111 12.2079 0.800043 0.516386 0 0 1.0008 3.55542e-06
870 12.1708 0.0308708 1.30549 0 0 1.0008 3.98689e-07
953 12.9307 0.951105 1.37337 0 0 1.0008 4.05384e-06
950 12.2599 1.63296 1.46034 0 0 1.0008 7.88744e-06
116 13.0205 1.71733 0.607514 0 0 1.0008 7.68466e-06
40 14.4371 0.233724 0.779844 0 0 1.0008 -3.12964e-07
115 13.7848 0.962456 0.837134 0 0 1.0008 3.42514e-06
117 14.3374 1.4253 0.149661 0 0 1.0008 5.5642e-06
874 13.6725 0.18949 1.63464 0 0 1.0008 -1.33037e-07
957 14.5889 1.07817 1.48059 0 0 1.0008 3.65153e-06
119 15.1644 1.51348 0.66761 0 0 1.0008 5.47511e-06
44 15.8618 0.790005 0.789679 0 0 1.0008 1.83209e-06
878 15.2306 0.442837 1.63734 0 0 1.0008 1.74836e-08
882 16.6862 0.820244 1.34873 0 0 1.0008 1.87614e-06
961 15.9172 1.52431 1.40607 0 0 1.0008 5.93723e-06
38 15.2267 0.678949 0.0722426 0 0 1.0008 1.04053e-06
123 16.8383 1.67026 0.690588 0 0 1.0008 6.3013e-06
48 17.4103 0.905502 0.56325 0 0 1.0008 2.26114e-06
886 18.0732 0.992443 1.42541 0 0 1.0008 3.4053e-06
47 18.1662 0.176888 0.694323 0 0 1.0008 -5.84332e-07
885 17.308 0.018203 1.39854 0 0 1.0008 -1.72856e-06
51 19.5634 0.353175 0.675644 0 0 1.0008 1.24199e-06
52 18.9323 1.04319 0.694494 0 0 1.0008 3.9391e-06
889 19.053 0.477304 1.5516 0 0 1.0008 9.78118e-07
890 19.8027 1.33873 1.69576 0 0 1.0008 6.7591e-06
55 21.2041 0.783754 1.07701 0 0 1.00081 4.06606e-06
56 20.4002 1.1765 0.962305 0 0 1.0008 5.70366e-06
54 21.3298 1.22367 0.213385 0 0 1.00081 6.77545e-06
893 20.4549 0.289429 1.42814 0 0 1.00081 2.30154e-06
53 20.2919 0.27417 0.0697182 0 0 1.0008 2.06787e-06
57 22.0948 0.761112 0.539947 0 0 1.00081 5.07427e-06
59 22.9069 0.923189 1.40618 0 0 1.0008 6.02444e-06
60 22.3281 1.66452 1.33185 0 0 1.00081 9.39488e-06
58 23.0717 1.56223 0.471725 0 0 1.0008 8.61809e-06
17538 22.7841 0.0671547 0.46996 0 0 1.0008 2.35662e-06
63 24.3493 0.882431 1.41903 0 0 1.0008 6.56612e-06
61 23.6518 0.842 0.569814 0 0 1.0008 6.11019e-06
62 24.6043 1.67603 0.739751 0 0 1.0008 9.12247e-06
64 23.6941 1.74983 1.38689 0 0 1.0008 9.74363e-06
65 25.0414 0.796395 0.53433 0 0 1.0008 6.3773e-06
67 26.0686 0.826918 1.16443 0 0 1.0008 6.08793e-06
68 25.3333 1.62732 1.45328 0 0 1.0008 9.02071e-06
66 26.026 1.41085 0.422555 0 0 1.0008 7.85012e-06
17548 25.1815 0.24933 1.35787 0 0 1.0008 4.67208e-06
70 27.7268 1.65361 0.384375 0 0 1.0008 6.94281e-06
71 27.6814 0.868758 0.871429 0 0 1.0008 5.31237e-06
72 26.8765 1.4528 1.25167 0 0 1.0008 7.25147e-06
69 26.8385 0.657959 0.241673 0 0 1.0008 5.39361e-06
17552 27.1084 0.0700046 1.00031 0 0 1.0008 3.71883e-06
913 28.4373 0.66535 1.41387 0 0 1.0008 4.13127e-06
76 28.7725 1.52744 0.731765 0 0 1.0008 5.36111e-06
914 29.4762 1.20523 1.56713 0 0 1.0008 4.14343e-06
917 29.8463 0.369983 1.45568 0 0 1.0008 2.28187e-06
75 29.3169 0.597099 0.618134 0 0 1.0008 3.10367e-06
841 31.6129 0.313952 1.25641 0 0 1.0008 2.3259e-07
79 30.7575 0.603915 0.478144 0 0 1.0008 1.5995e-06
80 30.2075 1.37344 0.771583 0 0 1.0008 3.34505e-06
918 30.9496 1.08543 1.38535 0 0 1.0008 2.06053e-06
82 1.31296 2.36173 0.116471 0 0 1.0008 2.79298e-06
84 0.33678 2.40028 0.805468 0 0 1.0008 1.33868e-06
163 1.54484 3.12489 0.938365 0 0 1.0008 4.28012e-06
922 1.33893 2.28238 1.58552 0 0 1.0008 2.97811e-06
1001 0.633085 3.03016 1.5479 0 0 1.0008 2.48012e-06
161 0.582807 3.10565 0.126691 0 0 1.0008 2.24904e-06
88 2.11742 2.26639 0.781208 0 0 1.0008 3.91107e-06
167 2.93692 3.05757 0.852146 0 0 1.0008 6.7557e-06
926 2.87752 2.02719 1.53431 0 0 1.0008 4.946e-06
86 2.93372 2.17482 0.0494528 0 0 1.0008 5.05846e-06
1005 2.36586 2.9219 1.7466 0 0 1.0008 5.49241e-06
1009 3.576 3.12523 1.6419 0 0 1.0008 8.39756e-06
92 3.61654 2.28834 0.780513 0 0 1.0008 6.45421e-06
171 4.50709 2.98186 0.7538 0 0 1.0008 9.08971e-06
930 4.40248 2.31058 1.57784 0 0 1.0008 7.67947e-06
96 5.16576 2.19475 0.816759 0 0 1.0008 8.33402e-06
94 5.9128 2.04537 0.139811 0 0 1.00081 8.55965e-06
175 5.99888 2.77893 0.951647 0 0 1.0008 1.10057e-05
934 6.09352 1.7966 1.48373 0 0 1.0008 8.0643e-06
173 5.31353 2.93458 0.0122084 0 0 1.0008 1.04566e-05
174 6.16699 3.4935 0.169217 0 0 1.0008 1.34679e-05
100 6.8085 1.76129 0.779384 0 0 1.0008 8.33967e-06
1017 6.89236 2.60645 1.5374 0 0 1.0008 1.15539e-05
177 6.96311 2.50677 0.119781 0 0 1.0008 1.06565e-05
98 7.7191 1.78983 0.129709 0 0 1.0008 8.72628e-06
179 7.77446 2.59193 0.895736 0 0 1.0008 1.2085e-05
180 6.93316 3.31713 0.781221 0 0 1.0008 1.37573e-05
1018 7.88572 3.36895 1.49678 0 0 1.0008 1.56355e-05
104 8.38178 1.74822 0.93383 0 0 1.0008 9.01666e-06
1021 8.58492 2.51731 1.636 0 0 1.0008 1.25925e-05
181 8.65393 2.5138 0.0347163 0 0 1.0008 1.17689e-05
183 9.3402 2.51388 0.928337 0 0 1.0008 1.27922e-05
942 9.34912 1.76756 1.71517 0 0 1.0008 9.81261e-06
185 9.99026 2.49229 0.203528 0 0 1.0008 1.2419e-05
1022 9.60195 3.28596 1.49847 0 0 1.0008 1.74564e-05
184 8.70029 3.37928 0.700788 0 0 1.0008 1.58779e-05
182 9.51251 3.4014 0.0476487 0 0 1.0008 1.66485e-05
188 10.4039 3.15291 0.876361 0 0 1.00081 1.58834e-05
187 11.0496 2.4154 0.916488 0 0 1.0008 1.19093e-05
1026 11.2593 3.19048 1.5913 0 0 1.0008 1.66543e-05
186 11.1696 3.4292 0.165764 0 0 1.0008 1.71577e-05
1025 10.4725 2.27221 1.76086 0 0 1.00081 1.1809e-05
1029 11.9126 2.49912 1.5955 0 0 1.00081 1.32508e-05
192 11.9817 3.28998 0.809781 0 0 1.0008 1.70962e-05
191 12.3829 2.37052 0.74283 0 0 1.0008 1.2229e-05
196 13.0875 3.35712 0.814837 0 0 1.00081 1.785e-05
1033 13.391 2.76928 1.69236 0 0 1.00081 1.40586e-05
195 13.7497 2.83863 0.83873 0 0 1.00081 1.38176e-05
954 13.7486 1.82178 1.46942 0 0 1.0008 7.91868e-06
120 14.4743 2.31926 0.921547 0 0 1.0008 1.06358e-05
1037 14.6684 3.2532 1.55294 0 0 1.00081 1.67691e-05
197 14.7138 3.11827 0.0401578 0 0 1.0008 1.49889e-05
114 13.8186 2.12727 0.0456493 0 0 1.0008 9.99525e-06
199 15.345 3.37955 0.86828 0 0 1.0008 1.69125e-05
958 15.2537 2.28114 1.44767 0 0 1.0008 1.06583e-05
118 15.3136 2.46052 0.126886 0 0 1.0008 1.10985e-05
124 16.1517 2.4825 0.704003 0 0 1.0008 1.10617e-05
1041 16.0199 3.29195 1.50752 0 0 1.0008 1.65648e-05
201 16.174 3.29104 0.0152363 0 0 1.0008 1.63825e-05
962 16.7977 2.59049 1.5314 0 0 1.0008 1.23419e-05
127 18.2299 1.84296 0.751476 0 0 1.0008 7.84995e-06
203 16.9153 3.31756 0.670552 0 0 1.0008 1.66277e-05
965 17.563 1.9264 1.56228 0 0 1.0008 8.2551e-06
128 17.5217 2.54051 0.674855 0 0 1.0008 1.17748e-05
1045 17.6761 3.31971 1.50325 0 0 1.0008 1.66897e-05
969 18.9657 1.82644 1.49893 0 0 1.0008 8.43041e-06
207 18.4832 3.20901 0.716252 0 0 1.0008 1.59343e-05
966 18.4852 2.70531 1.59912 0 0 1.0008 1.35339e-05
131 19.8262 1.93217 0.842309 0 0 1.0008 9.0626e-06
129 19.1613 1.90665 0.0107057 0 0 1.0008 8.38657e-06
132 19.3304 2.7283 1.01632 0 0 1.0008 1.36121e-05
209 19.4119 3.37735 0.190876 0 0 1.0008 1.7418e-05
130 20.0215 2.71626 0.11142 0 0 1.0008 1.35583e-05
133 20.6223 1.93757 0.20393 0 0 1.0008 9.58353e-06
135 21.3791 2.09878 0.959903 0 0 1.0008 1.08842e-05
973 20.655 2.21279 1.7446 0 0 1.0008 1.16257e-05
134 21.5798 2.91375 0.459767 0 0 1.0008 1.46983e-05
136 20.6523 2.89363 1.0874 0 0 1.0008 1.52379e-05
213 20.9087 3.49748 0.324187 0 0 1.0008 1.83631e-05
137 22.2589 2.11518 0.508679 0 0 1.00081 1.1112e-05
139 23.2131 2.59092 1.51025 0 0 1.0008 1.32812e-05
138 23.3342 3.16099 0.725332 0 0 1.00081 1.53004e-05
140 22.4649 3.03219 1.23297 0 0 1.00081 1.59464e-05
141 23.9746 2.35121 0.619887 0 0 1.0008 1.16353e-05
143 24.7009 2.51877 1.57439 0 0 1.0008 1.2537e-05
142 24.6944 3.22793 0.76881 0 0 1.0008 1.49737e-05
144 24.0844 3.45063 1.52998 0 0 1.0008 1.6746e-05
147 26.153 2.2206 1.35656 0 0 1.0008 1.02988e-05
145 25.376 2.35577 0.530498 0 0 1.0008 1.12179e-05
146 26.1091 3.1081 0.695376 0 0 1.0008 1.30701e-05
148 25.4897 3.10317 1.51967 0 0 1.0008 1.36197e-05
149 26.7643 2.22991 0.510943 0 0 1.0008 9.45042e-06
152 26.8201 3.04164 1.52639 0 0 1.0008 1.19556e-05
151 27.707 2.37092 1.22524 0 0 1.0008 8.52676e-06
150 27.3735 3.11506 0.62907 0 0 1.0008 1.0971e-05
153 28.466 2.42529 0.343669 0 0 1.0008 7.69562e-06
156 28.5205 3.09884 1.19153 0 0 1.0008 9.16178e-06
993 28.6903 2.04819 1.50554 0 0 1.0008 6.70844e-06
155 29.6217 2.26979 0.878743 0 0 1.0008 5.67903e-06
154 29.4377 2.9486 0.284107 0 0 1.00081 7.21357e-06
235 29.5444 3.52609 1.1802 0 0 1.0008 8.08309e-06
997 30.1373 2.00677 1.70067 0 0 1.0008 4.75252e-06
159 31.0863 2.08343 0.92045 0 0 1.0008 3.22493e-06
160 30.4132 2.88248 0.994769 0 0 1.0008 5.12177e-06
239 31.305 3.43873 0.969802 0 0 1.0008 4.65268e-06
998 31.2197 2.79223 1.72538 0 0 1.0008 3.92509e-06
237 30.4011 3.43263 0.15283 0 0 1.00081 6.36047e-06
157 30.5725 2.06115 0.0336096 0 0 1.0008 4.00048e-06
158 31.3656 2.74497 0.0754551 0 0 1.0008 3.60099e-06
164 0.594601 3.78029 0.913627 0 0 1.0008 2.90233e-06
241 0.49113 4.61814 0.466388 0 0 1.0008 3.2958e-06
243 1.48707 4.56019 0.979124 0 0 1.0008 5.78017e-06
162 1.35113 3.78413 0.0677996 0 0 1.0008 4.23818e-06
244 0.483609 5.27651 1.27366 0 0 1.0008 3.98584e-06
168 2.18334 3.8817 0.848841 0 0 1.0008 6.33203e-06
247 2.92718 4.62018 1.11691 0 0 1.0008 9.32187e-06
166 2.9994 3.90894 0.193344 0 0 1.0008 8.24265e-06
245 2.27178 4.77853 0.277863 0 0 1.0008 7.51797e-06
249 3.81935 4.53959 0.167034 0 0 1.0008 1.12133e-05
172 3.83553 3.77605 0.881586 0 0 1.0008 9.51694e-06
251 4.49697 4.50146 1.14874 0 0 1.0008 1.30501e-05
170 4.62624 3.81379 0.140057 0 0 1.0008 1.12254e-05
250 4.667 5.07012 0.314951 0 0 1.0008 1.43216e-05
176 5.30695 3.60624 1.14005 0 0 1.0008 1.24123e-05
253 5.45458 4.31461 0.319905 0 0 1.0008 1.44094e-05
255 6.19149 4.24282 1.02115 0 0 1.0008 1.60117e-05
254 6.29094 4.9196 0.269321 0 0 1.0008 1.79014e-05
256 5.44781 4.98648 1.27433 0 0 1.0008 1.65118e-05
1097 7.16966 4.01578 1.64039 0 0 1.0008 1.74111e-05
260 7.20108 4.63915 0.855327 0 0 1.0008 1.89887e-05
259 7.92555 3.9549 0.563546 0 0 1.0008 1.77692e-05
258 7.91412 4.82082 0.0235437 0 0 1.0008 2.1097e-05
1098 8.01598 4.83036 1.48583 0 0 1.0008 2.20878e-05
1101 8.78908 4.07604 1.46753 0 0 1.0008 1.9691e-05
264 8.8391 4.77987 0.695492 0 0 1.0008 2.26587e-05
263 9.68105 4.07205 0.802353 0 0 1.0008 2.03878e-05
1102 9.74921 4.78894 1.57371 0 0 1.0008 2.50827e-05
262 9.69923 4.9462 0.0147264 0 0 1.0008 2.46614e-05
268 10.4899 4.836 0.793577 0 0 1.0008 2.53218e-05
265 10.4708 4.07219 0.11381 0 0 1.0008 2.07208e-05
1105 10.5103 3.8851 1.6507 0 0 1.0008 2.05687e-05
267 11.2659 4.19495 0.88883 0 0 1.0008 2.19585e-05
1106 11.292 4.76935 1.74385 0 0 1.0008 2.61052e-05
266 11.2604 5.09164 0.0150881 0 0 1.0008 2.68544e-05
269 12.0677 4.33843 0.206555 0 0 1.0008 2.23957e-05
1109 12.0647 4.02437 1.68395 0 0 1.0008 2.27344e-05
272 12.1809 4.8921 1.00493 0 0 1.0008 2.69809e-05
271 12.9278 4.25529 1.00816 0 0 1.0008 2.36134e-05
273 13.3427 4.34777 0.053497 0 0 1.0008 2.29416e-05
270 12.8272 5.24941 0.183814 0 0 1.0008 2.83602e-05
1113 13.6148 4.69422 1.6915 0 0 1.0008 2.66667e-05
275 13.9953 4.52199 0.7734 0 0 1.0008 2.49724e-05
200 14.7181 4.0047 0.692983 0 0 1.00081 2.10433e-05
1034 14.2409 4.02447 1.58562 0 0 1.00081 2.21666e-05
1117 15.0662 4.99137 1.51695 0 0 1.0008 2.92309e-05
277 14.9435 4.77123 0.0801903 0 0 1.0008 2.53855e-05
194 13.8877 3.54618 0.0121403 0 0 1.0008 1.80306e-05
279 15.8116 5.02394 0.818157 0 0 1.0008 2.78275e-05
198 15.684 4.16316 0.105501 0 0 1.0008 2.13331e-05
1038 15.7837 4.38458 1.59671 0 0 1.0008 2.37234e-05
204 16.3978 4.12462 0.899913 0 0 1.0008 2.17539e-05
281 16.6629 4.86901 0.16328 0 0 1.0008 2.59227e-05
1121 16.7245 5.13283 1.65327 0 0 1.0008 2.98573e-05
1042 17.0869 4.11256 1.67263 0 0 1.0008 2.28206e-05
283 17.3802 4.79774 0.905779 0 0 1.0008 2.61677e-05
208 17.9595 4.06594 0.801525 0 0 1.0008 2.10313e-05
285 18.1925 4.87172 0.0352007 0 0 1.0008 2.62373e-05
1046 18.6105 3.96676 1.65028 0 0 1.0008 2.15886e-05
287 18.8354 4.84634 1.08935 0 0 1.0008 2.70665e-05
206 18.8037 4.17244 0.0757399 0 0 1.0008 2.13165e-05
212 19.4884 4.10592 0.963058 0 0 1.0008 2.17717e-05
289 19.5752 5.04035 0.353953 0 0 1.0008 2.78329e-05
210 20.2138 4.21654 0.252597 0 0 1.0008 2.23047e-05
211 20.2635 3.67642 1.27084 0 0 1.0008 1.97187e-05
291 20.3999 5.15435 1.11837 0 0 1.0008 2.81125e-05
216 21.0306 4.33525 1.21946 0 0 1.0008 2.27475e-05
295 21.5793 5.30999 1.36314 0 0 1.0008 2.90936e-05
214 21.7028 4.51014 0.514193 0 0 1.0008 2.33375e-05
215 21.841 3.82944 1.39095 0 0 1.0008 1.93139e-05
217 22.4713 3.76758 0.604954 0 0 1.00081 1.96129e-05
16179 23.1865 3.97243 0.0382536 0 0 1.0008 1.92263e-05
219 23.3422 4.19612 1.40384 0 0 1.0008 2.04946e-05
220 22.5287 4.72941 1.30768 0 0 1.0008 2.44732e-05
218 23.2185 4.95136 0.542157 0 0 1.0008 2.39636e-05
223 24.9176 4.10696 1.55487 0 0 1.0008 1.84735e-05
221 24.0635 4.20807 0.76714 0 0 1.0008 1.96193e-05
222 24.85 4.94253 0.635129 0 0 1.0008 2.15235e-05
224 24.0561 5.15973 1.34031 0 0 1.0008 2.44824e-05
228 25.5373 5.07116 1.58088 0 0 1.0008 2.08929e-05
227 26.1225 4.02765 1.51906 0 0 1.0008 1.61135e-05
229 26.568 4.00199 0.594798 0 0 1.0008 1.49399e-05
225 25.4912 4.18954 0.764232 0 0 1.0008 1.73292e-05
226 26.0173 4.96449 0.418154 0 0 1.0008 1.88886e-05
233 28.2989 3.60106 0.337892 0 0 1.0008 1.06634e-05
232 26.808 4.80333 1.37252 0 0 1.0008 1.68689e-05
231 27.5587 3.78638 1.41035 0 0 1.0008 1.24685e-05
236 28.3421 4.36559 1.11373 0 0 1.0008 1.25319e-05
230 27.4692 4.50004 0.581582 0 0 1.0008 1.48046e-05
313 28.6826 5.11858 0.695399 0 0 1.0008 1.25599e-05
234 29.2701 4.07962 0.469991 0 0 1.00081 9.53534e-06
315 29.4672 4.81809 1.31189 0 0 1.00081 1.03571e-05
240 30.3264 4.2547 1.02936 0 0 1.00081 7.52561e-06
238 31.3427 4.08579 0.35458 0 0 1.0008 4.94596e-06
317 30.5689 4.87256 0.473666 0 0 1.0008 7.07499e-06
319 31.339 4.70747 1.38533 0 0 1.00081 5.43158e-06
242 1.31725 5.44585 0.456379 0 0 1.0008 5.75481e-06
323 1.23399 6.12525 1.27456 0 0 1.0008 6.17842e-06
324 0.703634 6.91757 1.48323 0 0 1.0008 5.04879e-06
322 1.42077 6.83244 0.564601 0 0 1.0008 6.86542e-06
321 0.413513 6.02923 0.44942 0 0 1.0008 3.81023e-06
248 1.95696 5.35561 1.36167 0 0 1.0008 7.90412e-06
328 2.16812 6.82477 1.23894 0 0 1.0008 9.48067e-06
325 2.32492 5.99861 0.494813 0 0 1.0008 9.19917e-06
327 2.74742 5.91572 1.38594 0 0 1.0008 1.08475e-05
246 3.11185 5.33003 0.270309 0 0 1.0008 1.03982e-05
326 2.96255 6.84555 0.461987 0 0 1.0008 1.22407e-05
252 3.57887 5.30914 1.27474 0 0 1.0008 1.23771e-05
332 3.74049 6.60847 1.1377 0 0 1.0008 1.44813e-05
329 3.88768 5.91369 0.470661 0 0 1.0008 1.37083e-05
331 4.62825 5.66983 1.21414 0 0 1.0008 1.59765e-05
330 4.53399 6.58089 0.223304 0 0 1.00081 1.7173e-05
336 5.34755 6.32095 1.15051 0 0 1.0008 1.9977e-05
333 5.37273 5.77266 0.308619 0 0 1.0008 1.80474e-05
335 6.25351 5.68073 0.950868 0 0 1.0008 2.10051e-05
334 6.1484 6.48604 0.143785 0 0 1.0008 2.26574e-05
415 6.11139 6.99938 0.990158 0 0 1.0008 2.38378e-05
337 6.99723 5.5377 0.13351 0 0 1.0008 2.15903e-05
340 7.09678 6.26315 0.948378 0 0 1.0008 2.55459e-05
1177 7.08938 5.42593 1.59323 0 0 1.0008 2.26096e-05
339 7.96757 5.56384 0.755396 0 0 1.0008 2.46225e-05
1178 7.99659 6.20401 1.58695 0 0 1.0008 2.86042e-05
417 7.17141 6.95249 0.138188 0 0 1.0008 2.77066e-05
344 8.76292 6.2325 0.698337 0 0 1.0008 2.94559e-05
1181 8.94067 5.52197 1.49109 0 0 1.0008 2.74519e-05
343 9.64088 5.61496 0.740081 0 0 1.0008 2.82489e-05
1182 9.89594 6.339 1.45643 0 0 1.0008 3.39347e-05
1261 8.87313 6.80809 1.54208 0 0 1.0008 3.41545e-05
421 8.77763 6.97902 0.00179437 0 0 1.0008 3.27925e-05
423 9.74427 6.98938 0.660556 0 0 1.0008 3.55858e-05
1185 10.5723 5.62177 1.47919 0 0 1.0008 3.09676e-05
345 10.5432 5.72492 0.0793771 0 0 1.0008 2.99009e-05
347 11.4197 5.55462 0.915423 0 0 1.0008 2.99299e-05
346 11.4068 6.45591 0.110637 0 0 1.0008 3.55693e-05
1186 11.3919 6.39602 1.48464 0 0 1.0008 3.72575e-05
348 10.6763 6.60172 0.721406 0 0 1.0008 3.59824e-05
349 12.1876 5.93368 0.0483193 0 0 1.0008 3.25803e-05
352 12.2457 6.6752 0.799803 0 0 1.0008 3.90338e-05
351 12.6814 5.84537 1.04443 0 0 1.0008 3.37689e-05
1190 13.1333 6.76436 1.37102 0 0 1.0008 4.15236e-05
276 13.5792 5.52112 0.857676 0 0 1.0008 3.13166e-05
274 14.1773 5.33451 0.0205895 0 0 1.0008 2.99311e-05
1114 14.2928 5.65515 1.5748 0 0 1.0008 3.38045e-05
355 14.3407 6.334 0.786245 0 0 1.0008 3.70262e-05
280 15.0018 5.60476 0.767052 0 0 1.0008 3.26129e-05
356 13.7319 6.9952 0.583545 0 0 1.0008 4.18833e-05
357 15.1132 6.28144 0.0258719 0 0 1.0008 3.64347e-05
1197 15.3585 6.5175 1.43337 0 0 1.0008 4.11386e-05
278 15.9046 5.62153 0.0373789 0 0 1.0008 3.13694e-05
359 16.0509 6.48332 0.798005 0 0 1.00081 3.89626e-05
1118 16.1078 5.87379 1.68692 0 0 1.0008 3.57823e-05
361 16.6639 6.44081 0.0455225 0 0 1.0008 3.76238e-05
284 16.784 5.84116 0.938117 0 0 1.0008 3.36755e-05
363 17.4877 6.68011 1.14569 0 0 1.0008 3.98387e-05
282 17.4932 5.6409 0.257527 0 0 1.0008 3.119e-05
288 18.0104 5.69542 1.23254 0 0 1.0008 3.30964e-05
365 18.0665 6.56282 0.386899 0 0 1.0008 3.88326e-05
367 18.6362 6.61533 1.34252 0 0 1.0008 4.01863e-05
286 18.7073 5.68439 0.505204 0 0 1.0008 3.23856e-05
292 19.6052 5.72891 1.19555 0 0 1.0008 3.31324e-05
369 19.3176 6.68097 0.610616 0 0 1.0008 3.91895e-05
293 20.8818 5.31352 0.352972 0 0 1.0008 2.82388e-05
290 20.2996 6.26148 0.62514 0 0 1.0008 3.54428e-05
294 21.5672 6.38724 0.640656 0 0 1.0008 3.44382e-05
296 20.9909 6.19766 1.38209 0 0 1.0008 3.50847e-05
297 22.305 5.58542 0.779289 0 0 1.0008 2.90122e-05
299 23.1791 5.82311 1.28676 0 0 1.0008 2.95957e-05
300 22.4271 6.54194 1.35971 0 0 1.0008 3.49627e-05
16260 22.4555 6.39678 0.0491216 0 0 1.0008 3.30356e-05
298 23.3642 6.53406 0.64419 0 0 1.0008 3.15516e-05
301 24.1392 5.7273 0.538717 0 0 1.0008 2.5969e-05
303 24.9551 5.94744 1.44013 0 0 1.0008 2.55286e-05
304 24.1645 6.60333 1.27855 0 0 1.0008 3.059e-05
302 24.7931 6.675 0.434302 0 0 1.0008 2.87821e-05
305 25.4248 5.85519 0.566123 0 0 1.0008 2.35749e-05
307 26.2369 5.73951 1.35578 0 0 1.0008 2.14328e-05
306 26.2651 6.47349 0.691214 0 0 1.0008 2.30282e-05
308 25.7233 6.6932 1.63957 0 0 1.0008 2.62875e-05
311 27.7893 5.34182 1.39984 0 0 1.0008 1.59314e-05
309 26.9965 5.50067 0.641152 0 0 1.0008 1.8367e-05
312 27.2148 6.40882 1.46618 0 0 1.0008 1.99926e-05
310 27.9852 6.01818 0.706917 0 0 1.0008 1.62819e-05
389 27.2917 6.93038 0.634827 0 0 1.0008 2.0618e-05
391 28.1978 6.946 1.3732 0 0 1.0008 1.75102e-05
316 28.8331 5.92373 1.45959 0 0 1.0008 1.40219e-05
314 29.8008 5.5955 0.810574 0 0 1.0008 1.0317e-05
395 29.8902 6.49436 1.31338 0 0 1.0008 1.11951e-05
393 28.9556 6.61879 0.653547 0 0 1.0008 1.4557e-05
16355 29.825 6.43751 0.0726995 0 0 1.0008 1.15342e-05
16276 28.918 5.77597 0.0383341 0 0 1.0008 1.298e-05
318 31.3659 5.47523 0.587277 0 0 1.0008 6.33407e-06
320 30.6307 5.64919 1.44332 0 0 1.0008 8.10309e-06
397 30.8183 6.37042 0.633016 0 0 1.0008 8.22336e-06
399 31.637 6.23884 1.37596 0 0 1.0008 5.93284e-06
398 31.6507 7.02938 0.603659 0 0 1.0008 5.77469e-06
401 0.7252 7.62645 0.641631 0 0 1.0008 4.54462e-06
402 1.32445 8.3751 0.59048 0 0 1.0008 6.77921e-06
403 1.5725 7.70883 1.47206 0 0 1.0008 7.90312e-06
404 0.81306 8.51768 1.4551 0 0 1.0008 4.92694e-06
478 0.137782 8.67254 0.395252 0 0 1.0008 2.32395e-06
405 2.0737 7.57722 0.383641 0 0 1.0008 9.09109e-06
408 2.21979 8.38371 1.45036 0 0 1.0008 1.08723e-05
406 2.7088 8.33387 0.391218 0 0 1.0008 1.24335e-05
407 2.90411 7.51577 1.2738 0 0 1.0008 1.28196e-05
412 3.56078 8.12778 0.931473 0 0 1.00081 1.63224e-05
409 3.76781 7.36752 0.325299 0 0 1.00081 1.56467e-05
410 4.37757 7.99066 0.0576695 0 0 1.00081 1.89657e-05
411 4.54683 7.16861 1.19356 0 0 1.00081 1.84386e-05
491 4.48478 8.59157 0.844456 0 0 1.0008 2.07607e-05
1250 4.38955 7.8809 1.75782 0 0 1.00081 2.05761e-05
1329 3.75054 8.79146 1.66546 0 0 1.0008 1.81583e-05
413 5.27514 7.14577 0.220447 0 0 1.00081 2.06276e-05
1333 5.28999 8.45485 1.618 0 0 1.0008 2.57251e-05
416 5.2964 7.7263 0.942034 0 0 1.00081 2.29033e-05
414 6.52082 7.72693 0.193244 0 0 1.0008 2.70843e-05
495 5.94946 8.33972 0.626378 0 0 1.00081 2.69709e-05
1337 6.83398 8.35787 1.23141 0 0 1.00081 3.24917e-05
420 7.10114 7.51825 1.04344 0 0 1.00081 2.94097e-05
419 8.03109 7.07904 0.722583 0 0 1.0008 3.13713e-05
1258 8.03175 7.43194 1.67242 0 0 1.0008 3.37029e-05
499 7.87856 8.15621 0.716419 0 0 1.00081 3.44614e-05
424 9.05004 7.62072 0.858796 0 0 1.0008 3.71849e-05
1262 9.92645 7.9343 1.41892 0 0 1.0008 4.31555e-05
501 8.87931 8.31775 0.0674014 0 0 1.0008 3.88739e-05
1341 8.82635 8.39926 1.37832 0 0 1.0008 4.12046e-05
503 9.7703 8.68625 0.699339 0 0 1.0008 4.5028e-05
1265 10.6096 7.21634 1.5738 0 0 1.0008 4.11583e-05
428 10.6364 7.95906 0.690888 0 0 1.0008 4.38864e-05
427 11.5142 7.35477 0.817469 0 0 1.0008 4.22703e-05
1266 11.559 8.1206 1.42452 0 0 1.0008 4.91336e-05
426 11.3362 8.23824 0.00284014 0 0 1.0008 4.61552e-05
429 12.1914 7.59448 0.0268518 0 0 1.0008 4.41497e-05
432 12.3256 8.29721 0.714596 0 0 1.0008 4.96006e-05
1269 12.3925 7.3141 1.56295 0 0 1.0008 4.59454e-05
431 13.1868 7.79694 0.594367 0 0 1.0008 4.66386e-05
1270 13.1259 8.23203 1.4998 0 0 1.0008 5.26899e-05
1273 13.9283 7.68156 1.4729 0 0 1.0008 5.03685e-05
435 14.6825 7.90955 0.513788 0 0 1.0008 4.89247e-05
1194 14.575 7.10371 1.38148 0 0 1.0008 4.40214e-05
1274 14.7959 8.66841 1.56465 0 0 1.0008 5.87648e-05
436 14.0151 8.61684 0.773921 0 0 1.0008 5.42924e-05
360 15.366 7.25013 0.633116 0 0 1.00081 4.47323e-05
1277 15.3946 8.02782 1.3745 0 0 1.00081 5.21197e-05
364 16.6975 7.38892 0.871447 0 0 1.00081 4.45636e-05
439 16.2104 8.29384 0.872891 0 0 1.00081 5.27291e-05
1198 16.2631 7.56297 1.66284 0 0 1.00081 4.95819e-05
437 15.5736 8.34587 0.00441411 0 0 1.00081 5.19629e-05
441 16.9218 8.42915 0.141808 0 0 1.0008 5.22308e-05
443 17.3867 8.36471 1.08674 0 0 1.0008 5.34388e-05
362 17.4928 7.41277 0.292612 0 0 1.0008 4.48476e-05
368 18.0785 7.6428 1.09382 0 0 1.0008 4.75792e-05
445 18.1231 8.45042 0.291378 0 0 1.0008 5.33046e-05
447 18.7872 8.48232 1.03109 0 0 1.0008 5.27054e-05
366 18.8511 7.60353 0.225508 0 0 1.0008 4.58644e-05
372 19.3008 7.53454 1.15938 0 0 1.0008 4.71501e-05
370 20.0042 7.88867 0.614412 0 0 1.0008 4.64175e-05
451 19.975 8.76446 1.18471 0 0 1.0008 5.48624e-05
449 19.4726 8.72857 0.211497 0 0 1.0008 5.19963e-05
371 20.2498 7.12485 1.34605 0 0 1.0008 4.24595e-05
375 21.6432 7.29137 1.3082 0 0 1.0008 4.12003e-05
373 20.9004 7.34877 0.603048 0 0 1.0008 4.16809e-05
453 20.7615 8.80324 0.377321 0 0 1.0008 5.23477e-05
376 20.8597 8.3174 1.31814 0 0 1.0008 4.9591e-05
374 21.6053 8.16514 0.623856 0 0 1.0008 4.58414e-05
377 22.4564 7.38992 0.67338 0 0 1.0008 3.90157e-05
379 23.391 7.4319 1.208 0 0 1.0008 3.71501e-05
380 22.4193 8.44264 1.14202 0 0 1.0008 4.55921e-05
378 23.1591 8.24371 0.391569 0 0 1.0008 4.08384e-05
383 24.9927 7.30167 1.1828 0 0 1.0008 3.06727e-05
381 24.0702 7.4946 0.292418 0 0 1.0008 3.4479e-05
384 24.1867 8.12058 1.07896 0 0 1.0008 3.69471e-05
382 24.9963 8.06995 0.294349 0 0 1.0008 3.29859e-05
387 26.4582 7.26254 1.4105 0 0 1.0008 2.51651e-05
385 25.7716 7.38454 0.496289 0 0 1.0008 2.73745e-05
388 25.7745 8.1229 1.24057 0 0 1.0008 3.03498e-05
467 26.6416 8.71772 1.00249 0 0 1.0008 2.79808e-05
386 26.665 7.91841 0.381449 0 0 1.0008 2.59477e-05
390 28.2336 7.50809 0.519641 0 0 1.0008 1.82402e-05
392 27.3697 7.73369 1.32291 0 0 1.0008 2.2725e-05
471 28.34 8.35817 1.21151 0 0 1.0008 1.94994e-05
469 27.5569 8.39275 0.433752 0 0 1.0008 2.27415e-05
394 30.0429 7.2326 0.506777 0 0 1.0008 1.13353e-05
396 29.138 7.50896 1.2335 0 0 1.0008 1.49638e-05
474 30.0696 8.70535 0.534964 0 0 1.0008 1.21048e-05
475 29.9878 8.00435 1.28057 0 0 1.0008 1.20238e-05
473 29.1953 8.14719 0.417162 0 0 1.0008 1.52145e-05
400 30.784 7.28297 1.18119 0 0 1.0008 8.48531e-06
479 31.7052 7.9038 1.28785 0 0 1.0008 5.93445e-06
480 30.8919 8.69191 1.19073 0 0 1.0008 8.6642e-06
477 31.0905 8.03837 0.387744 0 0 1.0008 7.84456e-06
482 1.54767 10.119 0.256774 0 0 1.0008 7.14637e-06
483 1.47811 9.22533 1.18502 0 0 1.0008 7.4006e-06
484 0.690336 9.91818 0.909449 0 0 1.0008 3.80497e-06
481 0.808827 9.30137 0.124434 0 0 1.0008 4.57556e-06
1322 1.25987 10.0067 1.73818 0 0 1.0008 6.42016e-06
485 2.21585 9.2073 0.428078 0 0 1.0008 1.04286e-05
488 2.26542 10.0737 0.972449 0 0 1.0008 1.0518e-05
486 3.04674 9.89099 0.0773997 0 0 1.0008 1.40762e-05
487 2.86595 9.09956 1.19416 0 0 1.0008 1.35378e-05
1326 3.23368 9.80676 1.65888 0 0 1.0008 1.59245e-05
489 3.57822 8.93245 0.0944107 0 0 1.0008 1.64407e-05
492 3.86887 9.56636 0.741119 0 0 1.0008 1.8223e-05
1330 4.67506 9.37762 1.57272 0 0 1.0008 2.35566e-05
1409 4.0091 10.283 1.43319 0 0 1.0008 1.9846e-05
571 4.58144 10.3336 0.517142 0 0 1.0008 2.22909e-05
496 5.1551 9.38639 0.567267 0 0 1.0008 2.51085e-05
1334 5.94902 9.15547 1.17666 0 0 1.0008 2.94898e-05
575 5.96919 10.0042 0.444071 0 0 1.0008 3.02004e-05
1413 5.33366 10.1351 1.45183 0 0 1.0008 2.80109e-05
500 6.87514 9.07551 0.502932 0 0 1.00081 3.31628e-05
1417 6.881 9.76202 1.1923 0 0 1.0008 3.58956e-05
1338 7.86475 8.96564 1.17997 0 0 1.0008 3.90548e-05
579 7.60661 9.86084 0.461573 0 0 1.0008 3.93361e-05
1421 8.43119 9.79695 1.32418 0 0 1.0008 4.51798e-05
504 8.72976 9.1561 0.563798 0 0 1.0008 4.2629e-05
1342 9.56666 9.38496 1.38509 0 0 1.0008 4.89346e-05
583 9.5333 10.0703 0.6612 0 0 1.0008 5.00099e-05
508 10.4825 9.55237 0.662005 0 0 1.0008 5.20904e-05
1345 10.7269 8.8171 1.39779 0 0 1.0008 5.07244e-05
507 11.3989 9.01471 0.660326 0 0 1.0008 5.19731e-05
1346 11.5686 9.46347 1.60237 0 0 1.0008 5.80038e-05
1425 10.487 10.2629 1.36736 0 0 1.0008 5.85841e-05
587 11.1967 10.3758 0.660958 0 0 1.00081 5.88633e-05
512 12.1149 9.90327 0.716999 0 0 1.0008 5.91045e-05
1349 12.3651 9.01842 1.34962 0 0 1.0008 5.65345e-05
511 13.0921 9.29802 0.685166 0 0 1.0008 5.76368e-05
1350 12.9966 9.98734 1.57805 0 0 1.0008 6.55852e-05
510 12.726 10.141 0.0263408 0 0 1.0008 6.05463e-05
1429 12.1406 10.5363 1.51034 0 0 1.0008 6.5957e-05
1353 13.695 9.19044 1.60988 0 0 1.0008 6.23592e-05
516 13.8073 10.0837 0.940035 0 0 1.0008 6.37607e-05
515 14.594 9.44934 0.85287 0 0 1.0008 6.05201e-05
1354 14.5861 10.1547 1.69484 0 0 1.0008 6.98125e-05
514 14.3955 10.3667 0.0308167 0 0 1.0008 6.53539e-05
517 15.3137 9.95919 0.210654 0 0 1.0008 6.35073e-05
440 15.538 9.06948 0.791106 0 0 1.0008 5.81631e-05
519 16.2019 9.90678 1.01826 0 0 1.0008 6.54915e-05
521 16.7216 10.2666 0.22403 0 0 1.0008 6.57131e-05
438 16.321 9.2381 0.128758 0 0 1.0008 5.77351e-05
1357 15.4437 9.656 1.75995 0 0 1.0008 6.72102e-05
444 16.9982 9.31018 1.12933 0 0 1.0008 6.09958e-05
523 17.5495 10.2427 0.970687 0 0 1.0008 6.77712e-05
442 17.5432 9.33127 0.258558 0 0 1.0008 5.94033e-05
448 18.1802 9.40466 1.09451 0 0 1.0008 6.07584e-05
525 18.1841 10.4184 0.177729 0 0 1.0008 6.65914e-05
527 18.7788 10.3618 1.07648 0 0 1.0008 6.6768e-05
446 18.7903 9.57496 0.115358 0 0 1.0008 5.92265e-05
452 19.3548 9.49342 0.955294 0 0 1.0008 6.09585e-05
529 19.562 10.3859 0.309123 0 0 1.0008 6.51264e-05
1369 19.6773 10.2671 1.71565 0 0 1.0008 6.86816e-05
450 20.2094 9.63852 0.223798 0 0 1.0008 5.89005e-05
455 21.5955 9.19351 1.05378 0 0 1.0008 5.27943e-05
456 20.7982 9.71961 1.04041 0 0 1.0008 5.85743e-05
533 20.9119 10.5847 0.0644315 0 0 1.0008 6.16312e-05
1373 21.1511 10.5265 1.68165 0 0 1.0008 6.50344e-05
454 21.6549 9.87418 0.211888 0 0 1.0008 5.46758e-05
459 23.3767 9.03977 1.0161 0 0 1.0008 4.47877e-05
457 22.4617 9.14367 0.268969 0 0 1.0008 4.79305e-05
460 22.469 9.9109 0.98239 0 0 1.0008 5.301e-05
1298 23.251 9.82378 1.63493 0 0 1.0008 5.04104e-05
461 24.2035 8.89997 0.35198 0 0 1.0008 3.94632e-05
463 25.0358 8.90627 1.00897 0 0 1.0008 3.64335e-05
458 23.4818 9.79118 0.215608 0 0 1.0008 4.67276e-05
1302 24.964 9.63882 1.71714 0 0 1.0008 4.0282e-05
464 24.1852 9.82563 0.983503 0 0 1.0008 4.4011e-05
1381 24.3657 10.5933 1.58788 0 0 1.0008 4.67433e-05
462 24.9934 9.64525 0.217251 0 0 1.0008 3.84939e-05