ITEM: TIMESTEP
11500
ITEM: NUMBER OF ATOMS
32000
ITEM: BOX BOUNDS pp pp pp
0.0000000000000000e+00 3.1748021039364001e+01
0.0000000000000000e+00 3.1748021039364001e+01
0.0000000000000000e+00 3.1748021039364001e+01
ITEM: ATOMS id x y z c_phase c_nbond c_rho v_omega
4 0.159112 1.13041 0.466213 0 0 1.00036 -9.14054e-07
83 1.03357 1.6681 0.778311 0 0 1.00036 9.31631e-07
842 0.748174 0.801516 1.40993 0 0 1.00036 -3.47211e-07
921 0.063946 1.63447 1.37614 0 0 1.00036 -3.83892e-07
3 0.739812 0.0734749 0.616691 0 0 1.00036 -1.28764e-06
8 1.74467 0.789925 1.01334 0 0 1.00036 7.11142e-07
85 1.85892 1.45295 0.217821 0 0 1.00036 1.76292e-06
925 1.88733 1.63074 1.75508 0 0 1.00036 2.23417e-06
6 2.55312 0.701812 0.202167 0 0 1.00036 1.46065e-06
7 2.59836 0.00678732 1.03468 0 0 1.00036 4.58911e-07
87 2.70806 1.48945 0.877559 0 0 1.00036 2.96794e-06
846 2.70712 0.765173 1.73927 0 0 1.00036 1.85658e-06
12 3.47187 0.858479 0.956116 0 0 1.00036 2.78171e-06
849 3.50607 0.0157004 1.70354 0 0 1.00036 1.33411e-06
929 3.67528 1.62502 1.71278 0 0 1.00036 4.56517e-06
10 4.14906 0.770017 0.31996 0 0 1.00036 3.0749e-06
16 4.9998 0.459609 1.16163 0 0 1.00036 3.1014e-06
93 4.99054 1.49197 0.381958 0 0 1.00036 5.47936e-06
850 4.38226 0.846021 1.62821 0 0 1.00036 3.77031e-06
9 3.48571 0.0377195 0.171771 0 0 1.00036 1.11551e-06
91 4.08416 1.74932 0.71019 0 0 1.00036 5.22809e-06
14 5.68401 0.52748 0.31835 0 0 1.00036 3.55928e-06
95 5.94826 1.19011 0.941264 0 0 1.00036 5.46785e-06
97 6.64607 1.26562 0.216781 0 0 1.00036 5.82468e-06
854 5.81568 0.336923 1.69549 0 0 1.00036 3.27657e-06
933 5.10256 1.6034 1.43263 0 0 1.00036 6.2048e-06
20 6.74009 0.266443 0.866249 0 0 1.00036 3.11508e-06
937 6.74576 0.877062 1.69066 0 0 1.00036 5.05274e-06
24 8.2928 0.27467 1.06423 0 0 1.00036 3.04543e-06
99 7.43457 1.08931 0.94838 0 0 1.00036 5.68339e-06
101 8.32506 1.25454 0.233428 0 0 1.00036 6.23922e-06
941 8.20642 1.1298 1.60741 0 0 1.00036 6.35309e-06
18 7.62347 0.521659 0.146433 0 0 1.00036 3.7831e-06
22 8.89212 0.376023 0.264608 0 0 1.00036 2.99956e-06
28 9.58298 0.207887 0.891779 0 0 1.00036 1.9189e-06
103 9.09941 1.17397 1.10028 0 0 1.00036 6.01836e-06
945 9.64924 0.841862 1.76024 0 0 1.00036 4.59248e-06
105 9.72214 1.2415 0.0944924 0 0 1.00036 5.84523e-06
32 11.2307 0.114729 0.636282 0 0 1.00036 3.90048e-07
107 10.4365 0.933478 0.824017 0 0 1.00036 4.39843e-06
866 10.5388 0.0811721 1.44592 0 0 1.00036 8.70523e-07
949 11.3652 0.911956 1.41553 0 0 1.00036 3.94696e-06
946 10.6905 1.56173 1.72252 0 0 1.00036 7.43229e-06
26 10.274 0.249083 0.0769999 0 0 1.00036 1.60979e-06
112 11.285 1.72623 0.770985 0 0 1.00036 7.68357e-06
36 12.9025 0.153949 0.637187 0 0 1.00036 -7.69133e-07
111 12.1204 0.992951 0.509705 0 0 1.00036 3.60036e-06
870 12.1604 0.233027 1.30047 0 0 1.00036 2.84103e-07
953 12.8129 1.12744 1.37176 0 0 1.00036 4.07578e-06
40 14.408 0.307698 0.769702 0 0 1.00036 -9.0155e-07
115 13.6776 1.07356 0.842215 0 0 1.00036 3.14578e-06
117 14.165 1.5319 0.159471 0 0 1.00036 5.22324e-06
874 13.6455 0.318702 1.63373 0 0 1.00036 -4.07794e-07
957 14.4711 1.13966 1.47754 0 0 1.00036 3.17965e-06
119 14.9996 1.55841 0.663866 0 0 1.00036 5.02794e-06
44 15.7761 0.798812 0.787904 0 0 1.00036 1.21647e-06
123 16.6702 1.60909 0.683546 0 0 1.00036 5.46258e-06
878 15.1878 0.475792 1.63967 0 0 1.00036 -3.38012e-07
882 16.6093 0.772165 1.34374 0 0 1.00036 1.16931e-06
961 15.7502 1.52119 1.39445 0 0 1.00036 5.16385e-06
38 15.1639 0.721507 0.0680329 0 0 1.00036 6.26304e-07
48 17.3242 0.816807 0.55482 0 0 1.00036 1.46011e-06
127 18.0463 1.69661 0.754751 0 0 1.00036 6.53077e-06
886 17.982 0.855467 1.42594 0 0 1.00036 2.22915e-06
47 18.172 0.0414554 0.692036 0 0 1.00036 -1.70855e-06
51 19.5512 0.162247 0.667357 0 0 1.00036 2.29318e-07
52 18.8519 0.863783 0.688537 0 0 1.00036 2.66435e-06
131 19.6539 1.71364 0.842223 0 0 1.00036 7.66055e-06
889 19.0439 0.296124 1.54739 0 0 1.00036 9.70398e-08
890 19.6738 1.12699 1.69418 0 0 1.00036 5.05445e-06
969 18.7819 1.64508 1.50004 0 0 1.00036 6.86671e-06
129 18.9847 1.72272 0.000667861 0 0 1.00036 7.0485e-06
55 21.1427 0.532981 1.07122 0 0 1.00036 3.03721e-06
56 20.3092 0.948122 0.973352 0 0 1.00036 4.40381e-06
54 21.242 0.955828 0.215909 0 0 1.00036 5.16993e-06
133 20.4534 1.69029 0.200771 0 0 1.00036 8.0224e-06
893 20.4701 0.0472303 1.43777 0 0 1.00036 7.47612e-07
53 20.2973 0.0303133 0.0734526 0 0 1.00036 4.30365e-07
57 22.0438 0.468702 0.539622 0 0 1.00036 3.73881e-06
59 22.8389 0.633839 1.40432 0 0 1.00036 4.99252e-06
60 22.194 1.35991 1.33233 0 0 1.00036 7.86988e-06
58 22.9798 1.26773 0.460132 0 0 1.00036 7.41931e-06
63 24.2803 0.586832 1.43208 0 0 1.00036 5.5046e-06
61 23.6027 0.556115 0.577011 0 0 1.00036 5.0281e-06
62 24.5024 1.38427 0.751782 0 0 1.00036 8.20218e-06
64 23.5622 1.4532 1.3979 0 0 1.00036 8.54416e-06
65 24.9893 0.514371 0.547144 0 0 1.00036 5.44862e-06
67 26.033 0.56578 1.17108 0 0 1.00036 5.46581e-06
68 25.2305 1.33018 1.47088 0 0 1.00036 8.14513e-06
66 25.9442 1.1273 0.428527 0 0 1.00036 7.09827e-06
70 27.6337 1.43975 0.387619 0 0 1.00036 6.6915e-06
71 27.6423 0.661064 0.8744 0 0 1.00036 4.90415e-06
72 26.8036 1.20551 1.25914 0 0 1.00036 6.78442e-06
913 28.404 0.479054 1.408 0 0 1.00036 3.95837e-06
69 26.812 0.413627 0.232874 0 0 1.00036 4.79939e-06
76 28.7016 1.36581 0.737132 0 0 1.00036 5.34745e-06
914 29.4249 1.06372 1.56908 0 0 1.00036 4.11354e-06
917 29.8326 0.264191 1.45926 0 0 1.00036 2.26622e-06
75 29.2949 0.464652 0.616917 0 0 1.00036 3.06664e-06
841 31.6044 0.304365 1.25629 0 0 1.00036 4.12468e-07
79 30.7306 0.551127 0.474744 0 0 1.00036 1.73819e-06
80 30.1449 1.28472 0.773774 0 0 1.00036 3.54577e-06
918 30.9024 1.03392 1.39203 0 0 1.00036 2.24855e-06
82 1.19388 2.43162 0.125104 0 0 1.00036 2.07398e-06
84 0.215727 2.41095 0.809638 0 0 1.00036 5.81651e-07
163 1.39171 3.21994 0.944946 0 0 1.00036 3.45194e-06
922 1.22152 2.35525 1.58858 0 0 1.00036 2.24512e-06
1001 0.485017 3.05338 1.54806 0 0 1.00036 1.69259e-06
161 0.432254 3.12218 0.130318 0 0 1.00036 1.43144e-06
88 1.99603 2.38557 0.782626 0 0 1.00036 3.33149e-06
167 2.76928 3.22127 0.856598 0 0 1.00036 6.01608e-06
926 2.75479 2.17743 1.5339 0 0 1.00036 4.36885e-06
86 2.81165 2.32786 0.0536501 0 0 1.00036 4.48135e-06
1005 2.21541 3.05571 1.75839 0 0 1.00036 4.87921e-06
1009 3.38345 3.33904 1.64647 0 0 1.00036 7.69568e-06
92 3.47829 2.47999 0.779301 0 0 1.00036 5.89828e-06
171 4.32535 3.21554 0.749042 0 0 1.00036 8.68926e-06
930 4.2432 2.54193 1.57784 0 0 1.00036 7.33892e-06
96 5.01724 2.45609 0.814811 0 0 1.00036 8.10822e-06
94 5.76001 2.3209 0.134865 0 0 1.00036 8.48727e-06
100 6.66478 2.04777 0.774896 0 0 1.00036 8.46102e-06
175 5.78968 3.06389 0.951871 0 0 1.00036 1.08439e-05
934 5.96176 2.06998 1.48991 0 0 1.00036 8.19998e-06
1017 6.67331 2.91793 1.54524 0 0 1.00036 1.17233e-05
177 6.78174 2.79445 0.128147 0 0 1.00036 1.07887e-05
98 7.56764 2.08664 0.135879 0 0 1.00036 9.07647e-06
104 8.20935 2.05658 0.930482 0 0 1.00036 9.46863e-06
179 7.55459 2.9116 0.919807 0 0 1.00036 1.23438e-05
938 7.40903 1.91771 1.5643 0 0 1.00036 8.80581e-06
1021 8.35093 2.84097 1.64306 0 0 1.00036 1.3111e-05
181 8.42938 2.82116 0.0375548 0 0 1.00036 1.22694e-05
102 9.0291 1.95569 0.248675 0 0 1.00036 8.95583e-06
108 9.90029 1.89005 1.09853 0 0 1.00036 8.80337e-06
183 9.09379 2.8219 0.926357 0 0 1.00036 1.31765e-05
942 9.16368 2.07477 1.70401 0 0 1.00036 1.02177e-05
185 9.73626 2.76942 0.206098 0 0 1.00036 1.26914e-05
188 10.1033 3.4385 0.882537 0 0 1.00036 1.62763e-05
106 10.4183 1.98955 0.204597 0 0 1.00036 9.02848e-06
187 10.7988 2.6801 0.916385 0 0 1.00036 1.24386e-05
1029 11.6328 2.72328 1.58016 0 0 1.00036 1.32994e-05
1026 10.9305 3.44287 1.58793 0 0 1.00036 1.70535e-05
116 12.8159 1.87483 0.596822 0 0 1.00036 7.62757e-06
191 12.1111 2.55672 0.737362 0 0 1.00036 1.18524e-05
950 12.0657 1.82843 1.46352 0 0 1.00036 8.05037e-06
1033 13.0665 2.94452 1.68986 0 0 1.00036 1.43621e-05
196 12.7423 3.51442 0.81074 0 0 1.00036 1.72856e-05
195 13.4129 2.96673 0.83744 0 0 1.00036 1.34228e-05
954 13.5341 1.94456 1.4763 0 0 1.00036 7.9876e-06
120 14.204 2.41806 0.921289 0 0 1.00036 1.02794e-05
1037 14.2827 3.35391 1.55227 0 0 1.00036 1.66265e-05
199 14.9541 3.43095 0.873144 0 0 1.00036 1.64225e-05
958 14.9743 2.30637 1.43982 0 0 1.00036 9.73721e-06
118 15.031 2.51337 0.134647 0 0 1.00036 1.06094e-05
197 14.3827 3.19875 0.0380114 0 0 1.00036 1.45764e-05
114 13.5798 2.25283 0.0543742 0 0 1.00036 9.32987e-06
124 15.8811 2.47462 0.697478 0 0 1.00036 1.04035e-05
203 16.5473 3.25993 0.670876 0 0 1.00036 1.53032e-05
962 16.5043 2.53654 1.5239 0 0 1.00036 1.12618e-05
1041 15.6317 3.28099 1.50168 0 0 1.00036 1.5828e-05
201 15.8087 3.28903 0.0220021 0 0 1.00036 1.54253e-05
965 17.3585 1.83531 1.5627 0 0 1.00036 7.33561e-06
128 17.247 2.44132 0.680955 0 0 1.00036 1.04554e-05
207 18.1567 3.05168 0.706014 0 0 1.00036 1.44406e-05
966 18.2027 2.55638 1.58868 0 0 1.00036 1.20164e-05
1045 17.325 3.20674 1.4984 0 0 1.00036 1.56076e-05
132 19.0629 2.51161 1.01279 0 0 1.00036 1.16759e-05
211 19.9156 3.41858 1.27553 0 0 1.00036 1.78818e-05
209 19.0892 3.15545 0.190001 0 0 1.00036 1.54183e-05
130 19.7578 2.49737 0.105983 0 0 1.00036 1.18911e-05
135 21.2115 1.83713 0.960696 0 0 1.00036 9.32031e-06
973 20.4531 1.9637 1.73457 0 0 1.00036 9.91398e-06
134 21.3227 2.62061 0.456267 0 0 1.00036 1.30865e-05
136 20.3712 2.64399 1.10583 0 0 1.00036 1.34187e-05
215 21.5174 3.51834 1.38889 0 0 1.00036 1.81413e-05
213 20.6087 3.19984 0.329397 0 0 1.00036 1.61303e-05
137 22.0988 1.8105 0.526325 0 0 1.00036 9.6283e-06
139 23.0054 2.27778 1.51606 0 0 1.00036 1.20454e-05
138 23.1124 2.82881 0.732711 0 0 1.00036 1.40864e-05
140 22.2353 2.71539 1.23884 0 0 1.00036 1.42084e-05
217 22.1688 3.42791 0.604979 0 0 1.00036 1.76798e-05
141 23.8348 2.02753 0.622807 0 0 1.00036 1.05377e-05
143 24.5304 2.20302 1.5973 0 0 1.00036 1.15388e-05
142 24.4773 2.90392 0.775161 0 0 1.00036 1.39917e-05
144 23.8382 3.12421 1.53642 0 0 1.00036 1.56513e-05
16108 25.0897 3.04701 0.0129346 0 0 1.00036 1.39097e-05
147 26.0151 1.93447 1.35615 0 0 1.00036 9.58999e-06
149 26.6316 1.97528 0.512602 0 0 1.00036 9.01207e-06
145 25.2263 2.05985 0.519209 0 0 1.00036 1.03979e-05
146 25.9131 2.81344 0.703931 0 0 1.00036 1.2367e-05
148 25.2878 2.77977 1.5225 0 0 1.00036 1.29431e-05
152 26.6436 2.75905 1.52971 0 0 1.00036 1.14706e-05
151 27.5836 2.14905 1.2332 0 0 1.00036 8.45141e-06
153 28.3339 2.23527 0.345128 0 0 1.00036 7.68685e-06
150 27.1974 2.8695 0.639033 0 0 1.00036 1.07813e-05
231 27.3389 3.53662 1.41523 0 0 1.00036 1.25132e-05
156 28.3556 2.90477 1.20071 0 0 1.00036 9.22552e-06
233 28.1024 3.38288 0.334686 0 0 1.00036 1.07157e-05
993 28.5888 1.86146 1.50305 0 0 1.00036 6.65882e-06
997 30.0286 1.90204 1.70601 0 0 1.00036 4.87692e-06
155 29.518 2.14693 0.882274 0 0 1.00036 5.82757e-06
154 29.2882 2.7898 0.287777 0 0 1.00036 7.39602e-06
235 29.3646 3.38149 1.17972 0 0 1.00036 8.40734e-06
159 30.9814 2.04276 0.923361 0 0 1.00036 3.53626e-06
160 30.2737 2.7978 1.00053 0 0 1.00036 5.65442e-06
239 31.1338 3.40446 0.97325 0 0 1.00036 5.13821e-06
998 31.0775 2.75354 1.72631 0 0 1.00036 4.39181e-06
237 30.2245 3.34121 0.144172 0 0 1.00036 6.71718e-06
157 30.4769 1.98517 0.0301339 0 0 1.00036 4.19671e-06
158 31.2315 2.71564 0.0763562 0 0 1.00036 4.04279e-06
164 0.412961 3.80524 0.918068 0 0 1.00036 2.01479e-06
241 0.278129 4.62789 0.476304 0 0 1.00036 2.27832e-06
243 1.27483 4.65479 0.984744 0 0 1.00036 4.67248e-06
162 1.16321 3.85566 0.0647427 0 0 1.00036 3.39989e-06
168 1.97611 4.00832 0.846448 0 0 1.00036 5.42859e-06
247 2.68942 4.79156 1.12691 0 0 1.00036 8.2223e-06
166 2.78607 4.08121 0.201967 0 0 1.00036 7.2883e-06
245 2.04458 4.9217 0.279071 0 0 1.00036 6.51012e-06
249 3.56817 4.76602 0.161822 0 0 1.00036 1.02017e-05
172 3.63015 3.987 0.883027 0 0 1.00036 8.94766e-06
251 4.22218 4.76346 1.14601 0 0 1.00036 1.21633e-05
170 4.40601 4.06938 0.143819 0 0 1.00036 1.06713e-05
176 5.06874 3.87743 1.16659 0 0 1.00036 1.19532e-05
253 5.18465 4.60618 0.330701 0 0 1.00036 1.38038e-05
174 5.93011 3.7975 0.186397 0 0 1.00036 1.31499e-05
180 6.66991 3.6211 0.775968 0 0 1.00036 1.36916e-05
255 5.88203 4.57437 1.02539 0 0 1.00036 1.56246e-05
254 5.97982 5.25103 0.290478 0 0 1.00036 1.74011e-05
1097 6.86525 4.34771 1.64205 0 0 1.00036 1.72889e-05
260 6.88543 4.96701 0.869942 0 0 1.00036 1.88062e-05
259 7.61359 4.29342 0.550108 0 0 1.00036 1.76789e-05
1018 7.59316 3.70452 1.49602 0 0 1.00036 1.58355e-05
258 7.56026 5.17791 0.0347936 0 0 1.00036 2.09202e-05
1098 7.63975 5.21862 1.4905 0 0 1.00036 2.21558e-05
184 8.40145 3.72151 0.701241 0 0 1.00036 1.63756e-05
1101 8.43588 4.42992 1.4778 0 0 1.00036 2.01425e-05
264 8.46006 5.13315 0.693614 0 0 1.00036 2.27175e-05
263 9.3166 4.39983 0.813777 0 0 1.00036 2.0667e-05
1022 9.28336 3.60635 1.49659 0 0 1.00036 1.75802e-05
182 9.19586 3.71211 0.0558155 0 0 1.00036 1.68614e-05
1102 9.32547 5.14275 1.58364 0 0 1.00036 2.54336e-05
268 10.0527 5.15532 0.790727 0 0 1.00036 2.54462e-05
265 10.1047 4.36155 0.123339 0 0 1.00036 2.0791e-05
1105 10.1271 4.19064 1.65314 0 0 1.00036 2.1126e-05
192 11.6383 3.52852 0.790654 0 0 1.00036 1.71882e-05
267 10.8578 4.50587 0.898658 0 0 1.00036 2.25438e-05
269 11.6594 4.57311 0.216813 0 0 1.00036 2.25963e-05
1109 11.6419 4.25959 1.69387 0 0 1.00036 2.27577e-05
272 11.7027 5.14385 0.995939 0 0 1.00036 2.71488e-05
186 10.8201 3.71012 0.169192 0 0 1.00036 1.76381e-05
1106 10.8207 5.066 1.75626 0 0 1.00036 2.68168e-05
271 12.477 4.45184 0.996564 0 0 1.00036 2.32691e-05
1113 13.0923 4.89064 1.68468 0 0 1.00036 2.70633e-05
273 12.9216 4.53237 0.0549214 0 0 1.00036 2.31104e-05
275 13.5324 4.6358 0.790345 0 0 1.00036 2.42202e-05
200 14.2803 4.09232 0.693047 0 0 1.00036 2.03724e-05
1034 13.7862 4.16285 1.58871 0 0 1.00036 2.20994e-05
1117 14.5456 5.07923 1.52121 0 0 1.00036 2.8786e-05
277 14.4607 4.86448 0.0704436 0 0 1.00036 2.51442e-05
279 15.2843 5.02567 0.809805 0 0 1.00036 2.70182e-05
198 15.2484 4.19445 0.101325 0 0 1.00036 2.08849e-05
1038 15.2926 4.4145 1.5918 0 0 1.00036 2.36648e-05
204 15.956 4.10164 0.914888 0 0 1.00036 2.09401e-05
281 16.189 4.81981 0.180813 0 0 1.00036 2.51555e-05
1042 16.6213 4.02855 1.68246 0 0 1.00036 2.15708e-05
1121 16.1729 5.08766 1.64262 0 0 1.00036 2.90885e-05
283 16.907 4.66957 0.901505 0 0 1.00036 2.47917e-05
208 17.543 3.93389 0.807688 0 0 1.00036 1.97828e-05
287 18.381 4.63161 1.09422 0 0 1.00036 2.51169e-05
1046 18.2143 3.77467 1.65493 0 0 1.00036 1.98504e-05
285 17.7449 4.69767 0.0206593 0 0 1.00036 2.46986e-05
206 18.3999 3.98651 0.0667277 0 0 1.00036 2.00203e-05
212 19.1163 3.87265 0.956495 0 0 1.00036 2.00523e-05
289 19.1179 4.78288 0.35743 0 0 1.00036 2.57057e-05
291 19.966 4.86863 1.10412 0 0 1.00036 2.65659e-05
210 19.8379 3.94919 0.238645 0 0 1.00036 2.03387e-05
216 20.6713 4.03111 1.23405 0 0 1.00036 2.11189e-05
295 21.1536 4.95315 1.38745 0 0 1.00036 2.70662e-05
214 21.3261 4.16161 0.514171 0 0 1.00036 2.14921e-05
293 20.4306 4.99711 0.344889 0 0 1.00036 2.65349e-05
16179 22.8784 3.6303 0.0570568 0 0 1.00036 1.79139e-05
297 21.8623 5.20422 0.796839 0 0 1.00036 2.74579e-05
219 23.0253 3.86002 1.41502 0 0 1.00036 1.94793e-05
220 22.1686 4.37291 1.31189 0 0 1.00036 2.28701e-05
218 22.8495 4.59017 0.527838 0 0 1.00036 2.28283e-05
223 24.6442 3.75179 1.5591 0 0 1.00036 1.75669e-05
221 23.7613 3.86815 0.77748 0 0 1.00036 1.86179e-05
222 24.5329 4.57297 0.629595 0 0 1.00036 2.07426e-05
224 23.6917 4.79637 1.33942 0 0 1.00036 2.35388e-05
228 25.2124 4.7319 1.61044 0 0 1.00036 2.05945e-05
227 25.8736 3.71454 1.51856 0 0 1.00036 1.56322e-05
229 26.3221 3.70868 0.595746 0 0 1.00036 1.46159e-05
225 25.2283 3.88714 0.789328 0 0 1.00036 1.68971e-05
232 26.5309 4.50247 1.37432 0 0 1.00036 1.68924e-05
309 26.6903 5.19097 0.64306 0 0 1.00036 1.84649e-05
226 25.7171 4.63217 0.401602 0 0 1.00036 1.86687e-05
311 27.5049 5.06703 1.4041 0 0 1.00036 1.63031e-05
236 28.1048 4.14039 1.10791 0 0 1.00036 1.26583e-05
230 27.2186 4.23058 0.579229 0 0 1.00036 1.4687e-05
313 28.4328 4.9009 0.703819 0 0 1.00036 1.31493e-05
234 29.0601 3.90806 0.479761 0 0 1.00036 9.93083e-06
315 29.2314 4.65557 1.32502 0 0 1.00036 1.09737e-05
240 30.124 4.15878 1.02843 0 0 1.00036 8.06521e-06
238 31.1517 4.04057 0.36483 0 0 1.00036 5.61918e-06
317 30.3471 4.7786 0.480985 0 0 1.00036 8.05e-06
319 31.1169 4.66642 1.39961 0 0 1.00036 6.35038e-06
244 0.240616 5.29596 1.27534 0 0 1.00036 2.70341e-06
242 1.06599 5.52355 0.46011 0 0 1.00036 4.55577e-06
323 0.96342 6.20772 1.27504 0 0 1.00036 4.75972e-06
324 0.425021 6.9448 1.49964 0 0 1.00036 3.47649e-06
322 1.14386 6.92781 0.56872 0 0 1.00036 5.31513e-06
321 0.142256 6.03392 0.447596 0 0 1.00036 2.37978e-06
248 1.69398 5.47826 1.37343 0 0 1.00036 6.53926e-06
328 1.88298 6.97729 1.23892 0 0 1.00036 7.94302e-06
325 2.05966 6.14967 0.509618 0 0 1.00036 7.81579e-06
252 3.2886 5.52994 1.29102 0 0 1.00036 1.1097e-05
327 2.44752 6.09046 1.40528 0 0 1.00036 9.33817e-06
246 2.8499 5.52992 0.27146 0 0 1.00036 9.33371e-06
332 3.44295 6.85359 1.13348 0 0 1.00036 1.31043e-05
329 3.58508 6.16609 0.488279 0 0 1.00036 1.24637e-05
250 4.37585 5.33948 0.321193 0 0 1.00036 1.33624e-05
331 4.32452 5.95816 1.22381 0 0 1.00036 1.49023e-05
336 4.99418 6.6466 1.15613 0 0 1.00036 1.86118e-05
330 4.20427 6.87882 0.222817 0 0 1.00036 1.56668e-05
333 5.03707 6.08367 0.324051 0 0 1.00036 1.70232e-05
256 5.13411 5.28565 1.29951 0 0 1.00036 1.57641e-05
335 5.90811 6.05375 0.955508 0 0 1.00036 2.01656e-05
340 6.69057 6.66489 0.983643 0 0 1.00036 2.46931e-05
337 6.62468 5.87931 0.144469 0 0 1.00036 2.10205e-05
334 5.77948 6.86176 0.146208 0 0 1.00036 2.1431e-05
1177 6.70545 5.79586 1.59322 0 0 1.00036 2.20944e-05
339 7.57563 5.95306 0.752314 0 0 1.00036 2.428e-05
344 8.30775 6.6394 0.716691 0 0 1.00036 2.91537e-05
1178 7.55944 6.63161 1.59217 0 0 1.00036 2.81273e-05
1181 8.51266 5.90731 1.49155 0 0 1.00036 2.73525e-05
343 9.1785 5.98914 0.733399 0 0 1.00036 2.82695e-05
1182 9.40517 6.73706 1.45703 0 0 1.00036 3.3827e-05
262 9.27309 5.29277 0.0174626 0 0 1.00036 2.47103e-05
1185 10.0612 5.98698 1.47058 0 0 1.00036 3.11624e-05
345 10.0669 6.05621 0.0890144 0 0 1.00036 2.98707e-05
347 10.9169 5.85626 0.944155 0 0 1.00036 3.04603e-05
349 11.6583 6.21606 0.0658422 0 0 1.00036 3.28653e-05
346 10.8688 6.77023 0.136162 0 0 1.00036 3.52864e-05
1186 10.8274 6.73719 1.48849 0 0 1.00036 3.7246e-05
352 11.672 6.97442 0.803019 0 0 1.00036 3.86844e-05
348 10.1643 7.00419 0.723085 0 0 1.00036 3.59899e-05
266 10.7864 5.41526 0.00125698 0 0 1.00036 2.73609e-05
270 12.3258 5.49839 0.179601 0 0 1.00036 2.90862e-05
276 13.0297 5.71105 0.857065 0 0 1.00036 3.1394e-05
351 12.1294 6.08139 1.04638 0 0 1.00036 3.36535e-05
1190 12.4867 7.01517 1.37706 0 0 1.00036 4.15254e-05
274 13.6582 5.47307 0.0349065 0 0 1.00036 2.94538e-05
1114 13.7072 5.79238 1.56416 0 0 1.00036 3.34559e-05
355 13.7438 6.49139 0.79616 0 0 1.00036 3.67437e-05
280 14.4313 5.68422 0.770169 0 0 1.00036 3.1793e-05
1197 14.7308 6.6102 1.41497 0 0 1.00036 4.03111e-05
357 14.5184 6.35244 0.033164 0 0 1.00036 3.58159e-05
278 15.3718 5.64242 0.0355354 0 0 1.00036 3.08676e-05
284 16.2062 5.78396 0.942671 0 0 1.00036 3.28229e-05
359 15.4417 6.46585 0.79966 0 0 1.00036 3.76443e-05
1118 15.5057 5.87903 1.69218 0 0 1.00036 3.51149e-05
361 16.0689 6.38652 0.0409254 0 0 1.00036 3.63098e-05
363 16.887 6.54323 1.14552 0 0 1.00036 3.87169e-05
282 16.9684 5.50981 0.267462 0 0 1.00036 3.00078e-05
286 18.1727 5.45774 0.530611 0 0 1.00036 3.03147e-05
288 17.465 5.53656 1.24334 0 0 1.00036 3.1702e-05
365 17.4606 6.39337 0.401534 0 0 1.00036 3.70449e-05
367 18.05 6.39423 1.3704 0 0 1.00036 3.84651e-05
292 19.1066 5.45698 1.19868 0 0 1.00036 3.10331e-05
369 18.7468 6.40627 0.614582 0 0 1.00036 3.69641e-05
290 19.7734 5.95904 0.621441 0 0 1.00036 3.35766e-05
371 19.6897 6.78052 1.34392 0 0 1.00036 4.04564e-05
373 20.3529 6.98574 0.608638 0 0 1.00036 4.01915e-05
294 21.0738 6.0168 0.646814 0 0 1.00036 3.29161e-05
296 20.5033 5.84224 1.39299 0 0 1.00036 3.32547e-05
375 21.1179 6.87759 1.30724 0 0 1.00036 3.94794e-05
299 22.7444 5.43038 1.28273 0 0 1.00036 2.8247e-05
377 21.9699 6.94925 0.673757 0 0 1.00036 3.75584e-05
300 21.959 6.1413 1.37448 0 0 1.00036 3.36341e-05
16260 21.9912 5.99625 0.0547568 0 0 1.00036 3.15349e-05
298 22.9447 6.11306 0.657814 0 0 1.00036 3.06759e-05
379 22.9285 6.98432 1.20912 0 0 1.00036 3.61979e-05
301 23.779 5.33059 0.534354 0 0 1.00036 2.51562e-05
381 23.6307 7.06129 0.277812 0 0 1.00036 3.39965e-05
303 24.591 5.55639 1.43765 0 0 1.00036 2.51886e-05
304 23.7491 6.17194 1.29039 0 0 1.00036 2.9966e-05
383 24.5836 6.86016 1.17224 0 0 1.00036 3.05746e-05
302 24.3928 6.27405 0.426109 0 0 1.00036 2.84142e-05
305 25.0741 5.49766 0.56665 0 0 1.00036 2.33377e-05
307 25.9005 5.38334 1.35018 0 0 1.00036 2.13451e-05
306 25.9084 6.11247 0.695343 0 0 1.00036 2.3288e-05
308 25.3474 6.30509 1.66701 0 0 1.00036 2.64878e-05
385 25.3997 7.00191 0.495277 0 0 1.00036 2.78406e-05
387 26.0734 6.86824 1.40937 0 0 1.00036 2.57267e-05
312 26.8929 6.08008 1.47243 0 0 1.00036 2.0599e-05
310 27.6852 5.74458 0.717059 0 0 1.00036 1.69761e-05
389 26.9578 6.59997 0.644498 0 0 1.00036 2.14255e-05
391 27.8929 6.67241 1.36944 0 0 1.00036 1.85851e-05
316 28.5426 5.69598 1.47496 0 0 1.00036 1.4781e-05
314 29.5461 5.43941 0.814084 0 0 1.00036 1.12004e-05
395 29.6103 6.32443 1.31981 0 0 1.00036 1.23389e-05
394 29.7567 7.0507 0.508959 0 0 1.00036 1.25407e-05
393 28.6547 6.38371 0.646315 0 0 1.00036 1.5474e-05
16355 29.5461 6.27895 0.0756203 0 0 1.00036 1.24834e-05
16276 28.6504 5.55759 0.0510775 0 0 1.00036 1.37568e-05
318 31.1178 5.43 0.59315 0 0 1.00036 7.14903e-06
320 30.3767 5.55382 1.45862 0 0 1.00036 9.13254e-06
397 30.5577 6.27675 0.64405 0 0 1.00036 9.28599e-06
399 31.3802 6.20925 1.38138 0 0 1.00036 6.95353e-06
398 31.374 7.00793 0.604837 0 0 1.00036 7.07162e-06
401 0.437575 7.65471 0.655345 0 0 1.00036 3.06288e-06
402 1.01832 8.45579 0.608755 0 0 1.00036 4.91823e-06
403 1.28742 7.82945 1.489 0 0 1.00036 6.20629e-06
404 0.530584 8.56999 1.46523 0 0 1.00036 3.2627e-06
405 1.77689 7.7178 0.375048 0 0 1.00036 7.47e-06
408 1.9123 8.5571 1.45829 0 0 1.00036 8.75247e-06
326 2.66915 7.06063 0.468916 0 0 1.00036 1.05594e-05
406 2.38843 8.54446 0.396356 0 0 1.00036 1.01955e-05
407 2.58752 7.72402 1.276 0 0 1.00036 1.09871e-05
412 3.22054 8.3957 0.934629 0 0 1.00036 1.39764e-05
409 3.44258 7.64267 0.325123 0 0 1.00036 1.38885e-05
410 4.02834 8.30726 0.0718459 0 0 1.00036 1.70147e-05
411 4.19614 7.49833 1.22528 0 0 1.00036 1.70211e-05
416 4.92851 8.08213 0.930478 0 0 1.00037 2.10236e-05
413 4.90293 7.47416 0.233512 0 0 1.00036 1.91912e-05
1250 4.03047 8.20222 1.76303 0 0 1.00036 1.82359e-05
414 6.12166 8.13407 0.175019 0 0 1.00036 2.56706e-05
415 5.72676 7.383 1.01234 0 0 1.00036 2.26583e-05
420 6.66548 7.97895 1.0402 0 0 1.00036 2.82449e-05
495 5.56613 8.73774 0.648539 0 0 1.00036 2.49589e-05
417 6.75144 7.33904 0.158754 0 0 1.00036 2.636e-05
419 7.57376 7.52725 0.738566 0 0 1.00036 3.03963e-05
1258 7.56788 7.90923 1.68662 0 0 1.00036 3.30841e-05
1261 8.36799 7.24729 1.55071 0 0 1.00036 3.34831e-05
421 8.29907 7.38419 0.0163789 0 0 1.00036 3.18166e-05
499 7.4402 8.62353 0.710967 0 0 1.00036 3.32795e-05
424 8.57964 8.06777 0.864642 0 0 1.00036 3.64039e-05
423 9.2346 7.39092 0.658636 0 0 1.00036 3.51035e-05
1262 9.41323 8.42405 1.43616 0 0 1.00036 4.25987e-05
1265 10.0188 7.64311 1.58551 0 0 1.00036 4.09887e-05
501 8.39784 8.78419 0.076476 0 0 1.00036 3.77708e-05
428 10.0795 8.37709 0.690505 0 0 1.00036 4.30336e-05
427 10.9412 7.7255 0.830959 0 0 1.00036 4.20568e-05
1266 10.9601 8.4934 1.4256 0 0 1.00036 4.82249e-05
429 11.6053 7.93046 0.0368618 0 0 1.00036 4.37239e-05
426 10.7663 8.64541 0.0209767 0 0 1.00036 4.56587e-05
432 11.7433 8.64415 0.723396 0 0 1.00036 4.9e-05
1269 11.7883 7.63084 1.58609 0 0 1.00036 4.5563e-05
356 13.1071 7.18477 0.57207 0 0 1.00036 4.13567e-05
431 12.5745 8.06935 0.592438 0 0 1.00036 4.66071e-05
1270 12.4926 8.51095 1.49421 0 0 1.00036 5.22085e-05
1273 13.2745 7.88219 1.47288 0 0 1.00036 4.91582e-05
360 14.7319 7.31945 0.609499 0 0 1.00036 4.38124e-05
435 14.035 8.02707 0.481049 0 0 1.00036 4.80473e-05
1194 13.9011 7.25302 1.35687 0 0 1.00036 4.39023e-05
1277 14.7017 8.11658 1.35798 0 0 1.00036 5.14641e-05
1274 14.1231 8.77981 1.56372 0 0 1.00036 5.70568e-05
364 16.0609 7.3438 0.895788 0 0 1.00036 4.3951e-05
439 15.5236 8.29482 0.862521 0 0 1.00036 5.1479e-05
443 16.7122 8.23856 1.10153 0 0 1.00036 5.20208e-05
1198 15.581 7.53492 1.64519 0 0 1.00036 4.85516e-05
441 16.2824 8.3556 0.14739 0 0 1.00036 5.09196e-05
362 16.855 7.27183 0.285116 0 0 1.00036 4.32915e-05
368 17.4118 7.47088 1.1088 0 0 1.00036 4.62859e-05
445 17.4839 8.23918 0.315151 0 0 1.00036 5.10153e-05
447 18.1447 8.20039 1.03587 0 0 1.00036 5.11434e-05
366 18.227 7.33973 0.223161 0 0 1.00036 4.38066e-05
372 18.677 7.24217 1.15045 0 0 1.00036 4.45098e-05
370 19.4076 7.55192 0.62708 0 0 1.00036 4.47789e-05
451 19.3444 8.3881 1.18433 0 0 1.00036 5.29564e-05
449 18.8651 8.39765 0.191375 0 0 1.00036 5.05727e-05
453 20.1849 8.39573 0.367303 0 0 1.00036 5.03073e-05
376 20.2641 7.91656 1.32239 0 0 1.00036 4.83831e-05
374 21.0582 7.73885 0.655573 0 0 1.00036 4.43573e-05
455 21.0291 8.73302 1.04159 0 0 1.00036 5.16926e-05
380 21.8914 7.97544 1.14798 0 0 1.00036 4.46367e-05
457 21.9528 8.65787 0.267489 0 0 1.00036 4.74573e-05
459 22.9053 8.51717 1.01774 0 0 1.00036 4.43584e-05
378 22.6601 7.78557 0.38763 0 0 1.00036 4.03469e-05
384 23.7393 7.63977 1.06819 0 0 1.00036 3.67411e-05
461 23.7716 8.40453 0.371489 0 0 1.00036 3.95637e-05
463 24.6178 8.41922 1.00205 0 0 1.00036 3.6969e-05
382 24.5948 7.62176 0.279762 0 0 1.00036 3.30781e-05
388 25.374 7.68838 1.25096 0 0 1.00036 3.09988e-05
467 26.2624 8.296 0.996783 0 0 1.00036 2.90585e-05
386 26.3132 7.53513 0.374583 0 0 1.00036 2.6516e-05
465 25.4758 8.41995 0.315178 0 0 1.00036 3.2762e-05
390 27.9122 7.21757 0.526194 0 0 1.00036 1.94097e-05
392 27.0107 7.36691 1.33733 0 0 1.00036 2.37104e-05
470 28.1609 8.72469 0.41961 0 0 1.00036 2.07085e-05
471 28.0074 8.05485 1.21359 0 0 1.00036 2.08574e-05
469 27.2142 8.03282 0.434644 0 0 1.00036 2.39135e-05
396 28.8382 7.28463 1.23081 0 0 1.00036 1.62323e-05
474 29.7776 8.51042 0.541576 0 0 1.00036 1.35375e-05
475 29.6846 7.82527 1.27942 0 0 1.00036 1.35679e-05
476 28.964 8.74311 1.18791 0 0 1.00036 1.72592e-05
473 28.8891 7.90421 0.416984 0 0 1.00036 1.66135e-05
400 30.5023 7.18984 1.18052 0 0 1.00036 9.95894e-06
479 31.4241 7.87758 1.29707 0 0 1.00036 7.22327e-06
480 30.608 8.59206 1.1868 0 0 1.00036 1.02122e-05
477 30.812 7.96042 0.383558 0 0 1.00036 9.23063e-06
478 31.6003 8.66597 0.391831 0 0 1.00036 6.48346e-06
482 1.28387 10.2463 0.267684 0 0 1.00036 5.05815e-06
483 1.19175 9.34308 1.1972 0 0 1.00036 5.4496e-06
484 0.420771 9.94971 0.899558 0 0 1.00036 1.87523e-06
481 0.537708 9.34887 0.122771 0 0 1.00036 2.81177e-06
1322 0.979152 10.1064 1.74727 0 0 1.00036 4.37854e-06
485 1.9309 9.38334 0.443603 0 0 1.00036 8.42102e-06
488 1.99263 10.2834 0.966989 0 0 1.00036 8.48233e-06
486 2.76447 10.1546 0.077201 0 0 1.00036 1.20041e-05
487 2.55844 9.34056 1.21212 0 0 1.00036 1.1425e-05
1326 2.94702 10.0958 1.66125 0 0 1.00036 1.37516e-05
489 3.26492 9.22932 0.0845623 0 0 1.00036 1.4235e-05
1329 3.41053 9.09359 1.65631 0 0 1.00036 1.57732e-05
492 3.56634 9.88069 0.735372 0 0 1.00036 1.60664e-05
491 4.14165 8.9383 0.851499 0 0 1.00036 1.85755e-05
496 4.81132 9.77418 0.564423 0 0 1.00036 2.26713e-05
1330 4.32742 9.76769 1.59543 0 0 1.00036 2.10962e-05
1333 4.90219 8.85686 1.63338 0 0 1.00036 2.32128e-05
500 6.48183 9.54058 0.509622 0 0 1.00036 3.10854e-05
1334 5.55473 9.59532 1.16785 0 0 1.00036 2.69137e-05
1337 6.41092 8.81406 1.24819 0 0 1.00036 3.02391e-05
1417 6.47653 10.2425 1.18496 0 0 1.00036 3.31813e-05
575 5.61111 10.4585 0.43642 0 0 1.00036 2.76196e-05
504 8.25332 9.64771 0.568024 0 0 1.00036 4.05037e-05
1338 7.43871 9.45934 1.18575 0 0 1.00036 3.70473e-05
1341 8.34455 8.88573 1.38543 0 0 1.00036 3.98631e-05
1421 7.9397 10.329 1.34202 0 0 1.00036 4.26816e-05
579 7.17979 10.3967 0.460791 0 0 1.00036 3.68641e-05
503 9.25783 9.1746 0.714966 0 0 1.00036 4.37404e-05
508 9.963 10.0442 0.659067 0 0 1.00036 5.05067e-05
1342 9.05727 9.93533 1.39631 0 0 1.00036 4.74248e-05
1345 10.1729 9.30013 1.40507 0 0 1.00036 4.99792e-05
507 10.823 9.43328 0.655393 0 0 1.00036 5.08452e-05
1346 10.9928 9.90523 1.61769 0 0 1.00036 5.72434e-05
512 11.5569 10.3308 0.719745 0 0 1.00036 5.7768e-05
1349 11.7155 9.3962 1.32159 0 0 1.00036 5.55397e-05
511 12.4876 9.61845 0.685384 0 0 1.00036 5.67874e-05
516 13.2072 10.3216 0.94712 0 0 1.00036 6.25459e-05
1353 12.9898 9.44965 1.60613 0 0 1.00036 6.08416e-05
1350 12.3703 10.3561 1.58261 0 0 1.00036 6.44686e-05
510 12.1384 10.4973 0.0208612 0 0 1.00036 5.88762e-05
436 13.3952 8.82652 0.778093 0 0 1.00036 5.32517e-05
440 14.8878 9.14603 0.766011 0 0 1.00036 5.68248e-05
515 13.9526 9.59967 0.839941 0 0 1.00036 5.89111e-05
1354 13.9248 10.3058 1.69606 0 0 1.00036 6.8094e-05
517 14.6809 10.0759 0.214308 0 0 1.00036 6.20066e-05
1357 14.7397 9.74244 1.75903 0 0 1.00036 6.58733e-05
514 13.7962 10.563 0.015503 0 0 1.00036 6.3415e-05
444 16.3381 9.21297 1.12985 0 0 1.00036 5.95344e-05
1278 15.5219 9.05915 1.75822 0 0 1.00036 6.13066e-05
519 15.5618 9.87674 1.01358 0 0 1.00036 6.33945e-05
521 16.1019 10.2135 0.23757 0 0 1.00036 6.37414e-05
438 15.7078 9.21729 0.116885 0 0 1.00036 5.66621e-05
523 16.9274 10.0666 0.967093 0 0 1.00036 6.54912e-05
442 16.9257 9.15183 0.261609 0 0 1.00036 5.71295e-05
448 17.5319 9.1983 1.12085 0 0 1.00036 5.95177e-05
525 17.5738 10.1746 0.194527 0 0 1.00036 6.4364e-05
527 18.1898 10.0581 1.07561 0 0 1.00036 6.52747e-05
446 18.1811 9.28952 0.119088 0 0 1.00036 5.76154e-05
452 18.725 9.12735 0.950856 0 0 1.00036 5.84304e-05
529 18.9948 9.98697 0.305449 0 0 1.00036 6.30021e-05
531 19.8813 10.1949 0.875315 0 0 1.00036 6.36802e-05
1369 19.0706 9.85348 1.7198 0 0 1.00036 6.67605e-05
450 19.6324 9.22744 0.215197 0 0 1.00036 5.68651e-05
456 20.2198 9.25655 1.05661 0 0 1.00036 5.73369e-05
533 20.3722 10.1012 0.0677323 0 0 1.00036 6.08284e-05
535 21.2854 10.1629 0.781706 0 0 1.00036 5.92587e-05