ITEM: TIMESTEP
10500
ITEM: NUMBER OF ATOMS
32000
ITEM: BOX BOUNDS pp pp pp
0.0000000000000000e+00 3.1748021039364001e+01
0.0000000000000000e+00 3.1748021039364001e+01
0.0000000000000000e+00 3.1748021039364001e+01
ITEM: ATOMS id x y z c_phase c_nbond c_rho v_omega
4 0.158539 1.12665 0.466222 0 0 1.00033 -1.31482e-06
83 1.031 1.66758 0.77844 0 0 1.00033 4.91026e-07
842 0.748529 0.80019 1.41023 0 0 1.00033 -7.44942e-07
921 0.061183 1.63037 1.3762 0 0 1.00033 -8.42232e-07
3 0.74286 0.0718726 0.616635 0 0 1.00033 -1.62032e-06
8 1.7451 0.791791 1.01344 0 0 1.00033 3.45576e-07
85 1.85679 1.4551 0.218087 0 0 1.00033 1.35067e-06
925 1.8844 1.63375 1.75557 0 0 1.00033 1.78544e-06
6 2.55392 0.706639 0.202387 0 0 1.00033 1.1224e-06
7 2.602 0.0117057 1.0349 0 0 1.00033 1.73108e-07
87 2.70577 1.49477 0.878035 0 0 1.00033 2.56983e-06
846 2.7073 0.770587 1.73974 0 0 1.00033 1.50346e-06
12 3.47203 0.86656 0.956201 0 0 1.00033 2.4534e-06
849 3.50974 0.0240584 1.70359 0 0 1.00033 1.0653e-06
929 3.67202 1.63381 1.71341 0 0 1.00033 4.17368e-06
10 4.14904 0.779619 0.320429 0 0 1.00033 2.79896e-06
16 5.00038 0.471404 1.16273 0 0 1.00033 2.89057e-06
93 4.98726 1.50365 0.382117 0 0 1.00033 5.17661e-06
850 4.38268 0.856636 1.62824 0 0 1.00033 3.46357e-06
9 3.48924 0.0454571 0.171614 0 0 1.00033 8.73109e-07
91 4.08012 1.75923 0.710216 0 0 1.00033 4.85035e-06
14 5.68465 0.540299 0.318982 0 0 1.00033 3.38129e-06
95 5.94602 1.20346 0.940889 0 0 1.00033 5.25721e-06
97 6.64334 1.2795 0.216859 0 0 1.00033 5.67854e-06
854 5.81692 0.350486 1.69561 0 0 1.00033 3.11842e-06
933 5.09914 1.61662 1.43267 0 0 1.00033 5.87695e-06
20 6.74217 0.280354 0.866148 0 0 1.00033 3.04257e-06
937 6.74474 0.891843 1.69074 0 0 1.00033 4.92177e-06
24 8.29495 0.28981 1.06494 0 0 1.00033 3.10333e-06
99 7.43232 1.1042 0.948686 0 0 1.00033 5.61156e-06
101 8.32164 1.26964 0.233743 0 0 1.00033 6.25126e-06
941 8.20284 1.14587 1.60711 0 0 1.00033 6.31295e-06
18 7.62409 0.536043 0.145869 0 0 1.00033 3.77775e-06
22 8.89351 0.391026 0.265366 0 0 1.00033 3.13313e-06
28 9.58494 0.222623 0.891183 0 0 1.00033 2.16503e-06
103 9.09645 1.18901 1.10118 0 0 1.00033 6.11236e-06
945 9.64649 0.856814 1.76044 0 0 1.00033 4.78517e-06
105 9.71841 1.25635 0.0939105 0 0 1.00033 6.04559e-06
32 11.2338 0.126394 0.635781 0 0 1.00033 8.37489e-07
107 10.4338 0.946524 0.823769 0 0 1.00033 4.69735e-06
866 10.5423 0.0944738 1.44556 0 0 1.00033 1.20759e-06
949 11.3618 0.924114 1.4157 0 0 1.00033 4.36509e-06
946 10.6836 1.57483 1.72298 0 0 1.00033 7.7006e-06
26 10.2758 0.26251 0.0768981 0 0 1.00033 1.93251e-06
112 11.2765 1.73768 0.770909 0 0 1.00033 8.0632e-06
36 12.9045 0.160895 0.637163 0 0 1.00033 -8.19123e-08
111 12.1173 1.00239 0.50952 0 0 1.00033 4.15891e-06
870 12.1623 0.242942 1.3003 0 0 1.00033 8.29349e-07
953 12.8079 1.13576 1.372 0 0 1.00033 4.71694e-06
40 14.409 0.309812 0.769525 0 0 1.00033 1.04115e-09
115 13.6733 1.07825 0.84256 0 0 1.00033 3.948e-06
117 14.1569 1.53548 0.160061 0 0 1.00033 6.13875e-06
874 13.6463 0.324155 1.63394 0 0 1.00033 3.5564e-07
957 14.4661 1.14152 1.47779 0 0 1.00033 4.09279e-06
119 14.9916 1.55853 0.663976 0 0 1.00033 6.08522e-06
44 15.7734 0.796295 0.788083 0 0 1.00033 2.33335e-06
123 16.6622 1.60251 0.683668 0 0 1.00033 6.75444e-06
878 15.1876 0.475447 1.64008 0 0 1.00033 6.58832e-07
882 16.6071 0.766361 1.34393 0 0 1.00033 2.3715e-06
961 15.7423 1.51834 1.39445 0 0 1.00033 6.28119e-06
38 15.1622 0.72099 0.0679652 0 0 1.00033 1.69056e-06
48 17.3213 0.80815 0.554527 0 0 1.00033 2.78363e-06
127 18.0375 1.68446 0.755423 0 0 1.00033 7.95777e-06
886 17.9791 0.843959 1.42658 0 0 1.00033 3.5537e-06
47 18.1754 0.0298142 0.692076 0 0 1.00033 -3.89657e-07
51 19.5534 0.146859 0.667259 0 0 1.00033 1.59326e-06
52 18.8496 0.849232 0.688591 0 0 1.00033 4.07774e-06
131 19.6457 1.69666 0.842825 0 0 1.00033 9.16677e-06
889 19.0462 0.281787 1.54768 0 0 1.00033 1.45944e-06
890 19.6689 1.11047 1.69461 0 0 1.00033 6.44405e-06
969 18.7731 1.63104 1.50074 0 0 1.00033 8.3086e-06
129 18.9764 1.7078 0.000568796 0 0 1.00033 8.57943e-06
55 21.1411 0.513703 1.07134 0 0 1.00033 4.44977e-06
56 20.3064 0.930154 0.974628 0 0 1.00033 5.83386e-06
54 21.2397 0.935264 0.216605 0 0 1.00033 6.60357e-06
133 20.4457 1.67123 0.200791 0 0 1.00033 9.55223e-06
893 20.4746 0.0291311 1.43873 0 0 1.00033 2.06032e-06
53 20.3011 0.0112549 0.0740708 0 0 1.00033 1.78506e-06
57 22.0435 0.446484 0.540093 0 0 1.00033 5.09499e-06
59 22.8373 0.611925 1.405 0 0 1.00033 6.30636e-06
60 22.1883 1.33711 1.3329 0 0 1.00033 9.24601e-06
58 22.9767 1.2459 0.459419 0 0 1.00033 8.79621e-06
63 24.2784 0.564387 1.43408 0 0 1.00033 6.68704e-06
61 23.6024 0.534344 0.577473 0 0 1.00033 6.29173e-06
62 24.4987 1.36215 0.752842 0 0 1.00032 9.44415e-06
64 23.5565 1.43095 1.39913 0 0 1.00033 9.85614e-06
65 24.9888 0.492491 0.548255 0 0 1.00032 6.56882e-06
67 26.0337 0.545464 1.17172 0 0 1.00033 6.49235e-06
68 25.2269 1.30754 1.47253 0 0 1.00033 9.27744e-06
66 25.9418 1.10518 0.429327 0 0 1.00033 8.17806e-06
70 27.6305 1.42177 0.388155 0 0 1.00033 7.64226e-06
71 27.6428 0.643878 0.874853 0 0 1.00033 5.7992e-06
72 26.8018 1.18575 1.26009 0 0 1.00033 7.78687e-06
913 28.4044 0.463098 1.40749 0 0 1.00033 4.77785e-06
69 26.8134 0.394037 0.232482 0 0 1.00033 5.7592e-06
76 28.6996 1.35154 0.737962 0 0 1.00033 6.20849e-06
914 29.4246 1.0504 1.56938 0 0 1.00033 4.87374e-06
917 29.8343 0.253711 1.45971 0 0 1.00033 2.96993e-06
75 29.2963 0.45204 0.616962 0 0 1.00033 3.83525e-06
841 31.6065 0.299703 1.25637 0 0 1.00033 1.02521e-06
79 30.7314 0.543776 0.474486 0 0 1.00033 2.4189e-06
80 30.1437 1.27474 0.774082 0 0 1.00033 4.28783e-06
918 30.9021 1.02657 1.39248 0 0 1.00033 2.92051e-06
82 1.18873 2.43167 0.125548 0 0 1.00033 1.57885e-06
84 0.210505 2.40728 0.810017 0 0 1.00033 7.57429e-08
163 1.38414 3.22138 0.945371 0 0 1.00033 2.89201e-06
922 1.21641 2.35567 1.58889 0 0 1.00033 1.7283e-06
1001 0.477876 3.05057 1.5483 0 0 1.00033 1.12727e-06
161 0.425095 3.11879 0.130627 0 0 1.00033 8.94692e-07
88 1.99071 2.38881 0.782793 0 0 1.00033 2.84694e-06
167 2.76099 3.22741 0.856912 0 0 1.00033 5.47236e-06
926 2.74957 2.18307 1.53396 0 0 1.00033 3.89335e-06
86 2.80635 2.33347 0.0538823 0 0 1.00033 4.01829e-06
1005 2.20793 3.06008 1.75906 0 0 1.00033 4.32352e-06
1009 3.37368 3.34829 1.64674 0 0 1.00033 7.12659e-06
92 3.47196 2.48803 0.779307 0 0 1.00033 5.43308e-06
96 5.01021 2.46876 0.814775 0 0 1.00033 7.7063e-06
171 4.31608 3.22643 0.748882 0 0 1.00033 8.20541e-06
930 4.23555 2.55269 1.57804 0 0 1.00033 6.88452e-06
94 5.7527 2.33439 0.134602 0 0 1.00033 8.15181e-06
100 6.65806 2.06249 0.774637 0 0 1.00033 8.23037e-06
175 5.77886 3.07828 0.95187 0 0 1.00033 1.04335e-05
934 5.95555 2.08388 1.49035 0 0 1.00033 7.89378e-06
1017 6.66169 2.93425 1.5459 0 0 1.00033 1.13896e-05
177 6.77236 2.80916 0.128635 0 0 1.00033 1.05119e-05
98 7.56029 2.10204 0.136265 0 0 1.00033 8.93197e-06
104 8.2007 2.07278 0.930376 0 0 1.00033 9.38512e-06
179 7.5429 2.92861 0.921129 0 0 1.00033 1.21052e-05
938 7.40209 1.93359 1.56451 0 0 1.00033 8.63605e-06
1021 8.33819 2.85855 1.64362 0 0 1.00033 1.29504e-05
181 8.41734 2.83749 0.0377211 0 0 1.00033 1.21661e-05
102 9.02087 1.9704 0.248996 0 0 1.00033 8.99626e-06
108 9.8919 1.90492 1.09937 0 0 1.00033 8.96848e-06
183 9.08059 2.83837 0.926444 0 0 1.00033 1.31155e-05
942 9.15433 2.09116 1.70375 0 0 1.00033 1.02146e-05
185 9.72261 2.78419 0.206436 0 0 1.00033 1.27557e-05
188 10.0865 3.4538 0.882889 0 0 1.00033 1.6337e-05
106 10.409 2.00331 0.205444 0 0 1.00033 9.2682e-06
187 10.7851 2.69413 0.916735 0 0 1.00033 1.26995e-05
1029 11.6177 2.73529 1.57979 0 0 1.00033 1.36462e-05
1026 10.9119 3.45656 1.58804 0 0 1.00033 1.72443e-05
116 12.8058 1.88239 0.596535 0 0 1.00033 8.28831e-06
191 12.0966 2.56627 0.737574 0 0 1.00033 1.23176e-05
950 12.0558 1.83866 1.46393 0 0 1.00033 8.54593e-06
1033 13.0483 2.95291 1.69016 0 0 1.00033 1.49983e-05
196 12.7229 3.52191 0.811018 0 0 1.00033 1.78256e-05
195 13.3942 2.97309 0.838076 0 0 1.00033 1.41962e-05
954 13.5228 1.95015 1.47702 0 0 1.00033 8.75774e-06
120 14.1896 2.42155 0.921645 0 0 1.00033 1.11868e-05
1037 14.261 3.35765 1.55287 0 0 1.00033 1.75224e-05
199 14.9321 3.43166 0.874184 0 0 1.00032 1.75128e-05
958 14.9594 2.306 1.44033 0 0 1.00033 1.07582e-05
118 15.0158 2.51366 0.135273 0 0 1.00033 1.17032e-05
197 14.3642 3.20129 0.0381027 0 0 1.00033 1.55669e-05
114 13.5674 2.25799 0.0548654 0 0 1.00033 1.01286e-05
124 15.8666 2.47136 0.697653 0 0 1.00033 1.16294e-05
203 16.5266 3.25368 0.671156 0 0 1.00033 1.66869e-05
962 16.4885 2.5308 1.52449 0 0 1.00032 1.25473e-05
1041 15.6096 3.27855 1.50214 0 0 1.00033 1.70268e-05
201 15.7883 3.28592 0.0224898 0 0 1.00033 1.66924e-05
965 17.3482 1.82668 1.56343 0 0 1.00033 8.67595e-06
128 17.2324 2.4321 0.681742 0 0 1.00033 1.18693e-05
207 18.1386 3.03859 0.706007 0 0 1.00033 1.601e-05
966 18.1876 2.5443 1.58889 0 0 1.00033 1.3483e-05
1045 17.3051 3.19714 1.49893 0 0 1.00032 1.70683e-05
132 19.0489 2.49521 1.01349 0 0 1.00033 1.3236e-05
211 19.8966 3.39946 1.27691 0 0 1.00033 1.95475e-05
209 19.0716 3.13826 0.190931 0 0 1.00033 1.70784e-05
130 19.7438 2.48035 0.10611 0 0 1.00033 1.35117e-05
135 21.2039 1.81735 0.960942 0 0 1.00033 1.08185e-05
973 20.4432 1.94506 1.7345 0 0 1.00033 1.14022e-05
134 21.309 2.59854 0.456945 0 0 1.00033 1.47025e-05
136 20.3561 2.62499 1.10767 0 0 1.00033 1.49881e-05
215 21.4993 3.49489 1.38994 0 0 1.00033 1.98432e-05
213 20.5927 3.1775 0.330427 0 0 1.00033 1.78106e-05
137 22.0914 1.78745 0.528198 0 0 1.00033 1.10874e-05
139 22.9948 2.25484 1.5168 0 0 1.00033 1.34846e-05
138 23.101 2.80397 0.733815 0 0 1.00033 1.56056e-05
140 22.2236 2.69183 1.23983 0 0 1.00033 1.57166e-05
217 22.1526 3.40295 0.605487 0 0 1.00033 1.9287e-05
141 23.8287 2.00318 0.623592 0 0 1.00033 1.19076e-05
143 24.5225 2.17928 1.59948 0 0 1.00033 1.28076e-05
142 24.4662 2.87935 0.776 0 0 1.00033 1.53558e-05
144 23.8253 3.09987 1.5376 0 0 1.00033 1.70837e-05
16108 25.0785 3.02434 0.0141562 0 0 1.00033 1.52488e-05
147 26.0091 1.91229 1.35677 0 0 1.00033 1.07009e-05
149 26.6259 1.95488 0.513009 0 0 1.00033 1.0089e-05
145 25.2195 2.03699 0.518821 0 0 1.00033 1.16148e-05
146 25.9032 2.79069 0.705003 0 0 1.00033 1.35654e-05
148 25.2773 2.75521 1.52343 0 0 1.00033 1.42095e-05
152 26.6351 2.73694 1.53045 0 0 1.00033 1.25757e-05
151 27.5783 2.13071 1.23418 0 0 1.00033 9.44442e-06
153 28.3281 2.21871 0.345472 0 0 1.00033 8.62313e-06
150 27.1887 2.84952 0.640212 0 0 1.00033 1.18649e-05
231 27.3271 3.51626 1.41602 0 0 1.00033 1.36176e-05
156 28.3477 2.88809 1.20175 0 0 1.00033 1.01815e-05
233 28.0925 3.3643 0.334611 0 0 1.00033 1.17317e-05
993 28.585 1.84534 1.50302 0 0 1.00033 7.5314e-06
997 30.0242 1.89128 1.70652 0 0 1.00033 5.62906e-06
155 29.5139 2.13505 0.882561 0 0 1.00033 6.65279e-06
154 29.2814 2.77489 0.288393 0 0 1.00033 8.27572e-06
235 29.3555 3.36792 1.17983 0 0 1.00033 9.30031e-06
159 30.9773 2.03583 0.923693 0 0 1.00033 4.25708e-06
160 30.2671 2.78776 1.0011 0 0 1.00033 6.46695e-06
239 31.1253 3.39783 0.973515 0 0 1.00033 5.89472e-06
998 31.071 2.74667 1.72656 0 0 1.00033 5.12313e-06
237 30.2156 3.33104 0.143557 0 0 1.00033 7.55069e-06
157 30.4734 1.97602 0.0300016 0 0 1.00033 4.95932e-06
158 31.2255 2.7092 0.0765745 0 0 1.00033 4.78973e-06
164 0.403677 3.80231 0.918391 0 0 1.00033 1.42813e-06
241 0.266928 4.62382 0.476984 0 0 1.00033 1.64726e-06
243 1.26357 4.65601 0.985105 0 0 1.00033 4.02085e-06
244 0.227485 5.29233 1.27562 0 0 1.00033 2.01195e-06
162 1.15371 3.85573 0.0646429 0 0 1.00033 2.82542e-06
168 1.96535 4.01184 0.846496 0 0 1.00033 4.8295e-06
247 2.67676 4.79809 1.12764 0 0 1.00033 7.56736e-06
166 2.77503 4.0877 0.202417 0 0 1.00033 6.69143e-06
245 2.03234 4.92609 0.279133 0 0 1.00033 5.87481e-06
249 3.55473 4.77601 0.161619 0 0 1.00033 9.5755e-06
172 3.61927 3.99637 0.883174 0 0 1.00033 8.38289e-06
251 4.20725 4.7759 1.14584 0 0 1.00033 1.15261e-05
170 4.39433 4.08154 0.144053 0 0 1.00032 1.01291e-05
176 5.05602 3.8908 1.16802 0 0 1.00033 1.14225e-05
253 5.16989 4.6206 0.331411 0 0 1.00033 1.32334e-05
174 5.91758 3.8128 0.187393 0 0 1.00033 1.26803e-05
180 6.65543 3.6369 0.775625 0 0 1.00033 1.33075e-05
255 5.86473 4.59159 1.02536 0 0 1.00033 1.50716e-05
254 5.96269 5.26854 0.291488 0 0 1.00033 1.68332e-05
1097 6.84809 4.36541 1.64207 0 0 1.00033 1.68057e-05
260 6.86775 4.98455 0.870958 0 0 1.00033 1.83112e-05
259 7.5962 4.31148 0.549483 0 0 1.00033 1.73024e-05
1018 7.57703 3.72249 1.49599 0 0 1.00033 1.54982e-05
258 7.54018 5.19704 0.0355316 0 0 1.00033 2.04616e-05
1098 7.61804 5.23992 1.49055 0 0 1.00033 2.16677e-05
184 8.38465 3.73987 0.701238 0 0 1.00033 1.61631e-05
1101 8.41564 4.44933 1.47849 0 0 1.00033 1.9835e-05
264 8.43839 5.15244 0.693555 0 0 1.00033 2.23534e-05
263 9.29595 4.41767 0.814568 0 0 1.00033 2.04869e-05
1022 9.26584 3.62356 1.49665 0 0 1.00033 1.74235e-05
182 9.17827 3.72878 0.0563713 0 0 1.00033 1.67531e-05
268 10.0274 5.17282 0.790781 0 0 1.00033 2.53088e-05
1102 9.3011 5.16239 1.58454 0 0 1.00033 2.51309e-05
265 10.0839 4.37695 0.123758 0 0 1.00033 2.07644e-05
1105 10.105 4.20757 1.65336 0 0 1.00033 2.10785e-05
192 11.619 3.54114 0.789765 0 0 1.00033 1.75292e-05
267 10.8344 4.52281 0.89952 0 0 1.00033 2.26581e-05
269 11.6359 4.58561 0.217882 0 0 1.00033 2.29121e-05
1109 11.6175 4.27209 1.695 0 0 1.00033 2.29677e-05
272 11.6748 5.15752 0.995317 0 0 1.00032 2.73598e-05
186 10.8003 3.72497 0.1697 0 0 1.00033 1.78309e-05
1106 10.7932 5.08271 1.75726 0 0 1.00032 2.68308e-05
271 12.4516 4.46218 0.996759 0 0 1.00033 2.371e-05
1113 13.0611 4.90137 1.68517 0 0 1.00033 2.76529e-05
273 12.897 4.54132 0.0554663 0 0 1.00033 2.37169e-05
275 13.5054 4.6407 0.7918 0 0 1.00033 2.4943e-05
200 14.2552 4.09574 0.693669 0 0 1.00033 2.13381e-05
1034 13.7598 4.16916 1.58957 0 0 1.00033 2.28729e-05
1117 14.5147 5.08268 1.52186 0 0 1.00033 2.97318e-05
277 14.4324 4.86799 0.0701114 0 0 1.00033 2.62176e-05
279 15.2536 5.02354 0.810227 0 0 1.00033 2.82642e-05
198 15.2233 4.19388 0.101484 0 0 1.00033 2.21219e-05
1038 15.2638 4.41422 1.59248 0 0 1.00033 2.48516e-05
204 15.9306 4.09776 0.916491 0 0 1.00032 2.22747e-05
281 16.1614 4.81418 0.18207 0 0 1.00033 2.66663e-05
1042 16.5944 4.02116 1.68402 0 0 1.00032 2.29558e-05
1121 16.1403 5.083 1.64321 0 0 1.00033 3.04887e-05
283 16.8792 4.65941 0.901998 0 0 1.00032 2.63641e-05
208 17.5191 3.92293 0.808752 0 0 1.00032 2.14025e-05
287 18.3546 4.61568 1.09554 0 0 1.00033 2.68824e-05
1046 18.1914 3.76012 1.65602 0 0 1.00032 2.14463e-05
285 17.719 4.68401 0.0205533 0 0 1.00033 2.64828e-05
206 18.3767 3.97176 0.0666696 0 0 1.00033 2.17997e-05
212 19.0953 3.85477 0.956915 0 0 1.00033 2.17818e-05
289 19.0913 4.76367 0.358655 0 0 1.00033 2.76014e-05
291 19.9409 4.84766 1.10383 0 0 1.00033 2.84951e-05
210 19.8167 3.92908 0.238303 0 0 1.00033 2.21411e-05
216 20.6509 4.0086 1.23551 0 0 1.00033 2.29111e-05
295 21.129 4.92747 1.38994 0 0 1.00033 2.89397e-05
214 21.3046 4.13622 0.514854 0 0 1.00033 2.32969e-05
293 20.4041 4.97385 0.34571 0 0 1.00033 2.8548e-05
16179 22.8611 3.60484 0.0593551 0 0 1.00033 1.95634e-05
297 21.8363 5.1764 0.799246 0 0 1.00033 2.93667e-05
219 23.0073 3.83515 1.41674 0 0 1.00033 2.11033e-05
220 22.148 4.34688 1.31305 0 0 1.00033 2.46038e-05
218 22.8282 4.56336 0.527416 0 0 1.00033 2.45866e-05
223 24.6292 3.72528 1.56007 0 0 1.00033 1.89744e-05
221 23.7446 3.84271 0.778876 0 0 1.00033 2.01683e-05
222 24.5151 4.54503 0.629906 0 0 1.00033 2.22677e-05
224 23.6709 4.76927 1.34012 0 0 1.00033 2.51713e-05
301 23.7584 5.3012 0.535018 0 0 1.00033 2.68915e-05
228 25.194 4.70623 1.61312 0 0 1.00033 2.2047e-05
227 25.8603 3.69053 1.51902 0 0 1.00033 1.68984e-05
229 26.3089 3.6854 0.596604 0 0 1.00033 1.58497e-05
225 25.2139 3.86383 0.7916 0 0 1.00033 1.82839e-05
232 26.5155 4.47882 1.37504 0 0 1.00033 1.81581e-05
309 26.6733 5.16645 0.643752 0 0 1.00033 1.97593e-05
226 25.7003 4.60631 0.401145 0 0 1.00033 2.00679e-05
311 27.4891 5.04487 1.40511 0 0 1.00033 1.74796e-05
236 28.0923 4.12157 1.10809 0 0 1.00033 1.36958e-05
230 27.2053 4.209 0.579277 0 0 1.00033 1.58329e-05
313 28.4193 4.88212 0.704715 0 0 1.00033 1.42366e-05
234 29.0494 3.89229 0.480869 0 0 1.00033 1.08855e-05
315 29.2188 4.64043 1.32623 0 0 1.00033 1.1944e-05
240 30.1135 4.1482 1.02852 0 0 1.00033 8.93557e-06
238 31.1419 4.03286 0.365762 0 0 1.00033 6.43272e-06
317 30.3352 4.76738 0.481993 0 0 1.00033 8.97325e-06
319 31.1051 4.65883 1.40078 0 0 1.00033 7.18176e-06
242 1.05242 5.52368 0.460409 0 0 1.00033 3.88863e-06
323 0.948546 6.20811 1.27525 0 0 1.00033 4.04811e-06
324 0.409786 6.94145 1.50062 0 0 1.00033 2.73401e-06
322 1.12865 6.92887 0.569069 0 0 1.00033 4.61525e-06
321 0.127631 6.02914 0.447707 0 0 1.00033 1.69919e-06
248 1.67974 5.48138 1.37411 0 0 1.00033 5.82659e-06
328 1.86724 6.9822 1.2389 0 0 1.00033 7.21189e-06
325 2.04524 6.15451 0.510439 0 0 1.00033 7.11704e-06
252 3.27269 5.53941 1.29186 0 0 1.00033 1.03882e-05
327 2.43119 6.09698 1.406 0 0 1.00033 8.59678e-06
246 2.83559 5.53814 0.271556 0 0 1.00033 8.67645e-06
332 3.42633 6.86483 1.13297 0 0 1.00033 1.2384e-05
329 3.56845 6.17783 0.489263 0 0 1.00033 1.17773e-05
250 4.35984 5.35241 0.321475 0 0 1.00033 1.2724e-05
331 4.30774 5.97251 1.22409 0 0 1.00033 1.41958e-05
333 5.01832 6.09944 0.324795 0 0 1.00033 1.63501e-05
336 4.97432 6.66299 1.15617 0 0 1.00033 1.78742e-05
330 4.18624 6.89367 0.222605 0 0 1.00033 1.49589e-05
256 5.11663 5.3008 1.30091 0 0 1.00033 1.51229e-05
335 5.88886 6.07374 0.955797 0 0 1.00033 1.94895e-05
1177 6.68348 5.81591 1.59327 0 0 1.00033 2.14679e-05
340 6.66724 6.68671 0.985672 0 0 1.00033 2.39998e-05
337 6.60326 5.89709 0.14506 0 0 1.00033 2.0437e-05
334 5.75889 6.88173 0.146079 0 0 1.00033 2.0737e-05
339 7.55338 5.97455 0.752136 0 0 1.00033 2.37404e-05
344 8.28127 6.662 0.717659 0 0 1.00033 2.86221e-05
1178 7.53421 6.65579 1.59228 0 0 1.00033 2.74725e-05
1181 8.48794 5.9287 1.49147 0 0 1.00033 2.6871e-05
343 9.15167 6.01 0.733315 0 0 1.00033 2.7907e-05
1185 10.0317 6.00789 1.47015 0 0 1.00033 3.09015e-05
1182 9.37664 6.75948 1.45708 0 0 1.00033 3.33695e-05
262 9.24864 5.31149 0.0173906 0 0 1.00033 2.44385e-05
345 10.0394 6.07446 0.0895323 0 0 1.00033 2.96596e-05
347 10.8871 5.87321 0.946003 0 0 1.00033 3.04631e-05
349 11.6272 6.23164 0.0669626 0 0 1.00033 3.30406e-05
346 10.8372 6.78772 0.137794 0 0 1.00033 3.51823e-05
1186 10.7943 6.75659 1.48892 0 0 1.00033 3.70419e-05
352 11.6388 6.99126 0.803325 0 0 1.00033 3.87283e-05
348 10.1346 7.02674 0.723116 0 0 1.00033 3.56735e-05
270 12.2964 5.51153 0.17976 0 0 1.00033 2.94989e-05
276 12.9976 5.72127 0.857632 0 0 1.00033 3.19645e-05
351 12.0972 6.09398 1.04699 0 0 1.00033 3.38948e-05
1190 12.4481 7.02936 1.37742 0 0 1.00033 4.17751e-05
274 13.6279 5.47943 0.0358908 0 0 1.00033 3.02422e-05
1114 13.6726 5.79935 1.56399 0 0 1.00032 3.41756e-05
355 13.7084 6.4996 0.797734 0 0 1.00033 3.75745e-05
280 14.3977 5.68698 0.77087 0 0 1.00033 3.2782e-05
1197 14.6936 6.61381 1.41481 0 0 1.00033 4.13574e-05
357 14.483 6.35467 0.033928 0 0 1.00033 3.69251e-05
278 15.3405 5.64126 0.035857 0 0 1.00033 3.22412e-05
284 16.172 5.77818 0.944473 0 0 1.00033 3.43852e-05
359 15.4057 6.46286 0.800751 0 0 1.00033 3.90193e-05
1118 15.4696 5.87784 1.69347 0 0 1.00033 3.64047e-05
361 16.0334 6.38054 0.0411954 0 0 1.00033 3.79736e-05
363 16.8511 6.53255 1.14626 0 0 1.00033 4.05639e-05
282 16.9372 5.49922 0.268801 0 0 1.00033 3.1786e-05
286 18.1413 5.44055 0.53277 0 0 1.00033 3.22342e-05
288 17.4329 5.52416 1.2448 0 0 1.00033 3.34788e-05
365 17.4243 6.37984 0.403236 0 0 1.00033 3.90329e-05
367 18.0148 6.37784 1.37318 0 0 1.00033 4.04823e-05
292 19.0773 5.43718 1.20005 0 0 1.00033 3.29936e-05
369 18.7127 6.38635 0.615467 0 0 1.00033 3.91564e-05
290 19.742 5.93685 0.622223 0 0 1.00033 3.57336e-05
371 19.6565 6.75595 1.34545 0 0 1.00033 4.27327e-05
373 20.3199 6.95959 0.610033 0 0 1.00033 4.25814e-05
294 21.0443 5.99006 0.648469 0 0 1.00033 3.50624e-05
296 20.4748 5.81683 1.39497 0 0 1.00033 3.5328e-05
375 21.0867 6.84836 1.30838 0 0 1.00033 4.17322e-05
299 22.719 5.40209 1.2834 0 0 1.00033 3.00712e-05
377 21.9412 6.91754 0.674588 0 0 1.00033 3.97577e-05
300 21.9316 6.11242 1.3768 0 0 1.00033 3.56622e-05
16260 21.9637 5.967 0.0557689 0 0 1.00033 3.36076e-05
298 22.92 6.08199 0.660075 0 0 1.00033 3.26332e-05
379 22.9011 6.95225 1.21032 0 0 1.00033 3.82422e-05
305 25.0539 5.47064 0.567528 0 0 1.00033 2.49023e-05
381 23.6048 7.02956 0.277837 0 0 1.00033 3.59648e-05
303 24.57 5.52718 1.43852 0 0 1.00033 2.68128e-05
304 23.7245 6.14044 1.29247 0 0 1.00033 3.17769e-05
383 24.5593 6.82767 1.17238 0 0 1.00033 3.23405e-05
302 24.3697 6.24413 0.426827 0 0 1.00033 3.01442e-05
307 25.8813 5.35617 1.35055 0 0 1.00033 2.2757e-05
306 25.8879 6.08469 0.696571 0 0 1.00033 2.47895e-05
308 25.3256 6.27604 1.66961 0 0 1.00033 2.80721e-05
385 25.3779 6.97289 0.496177 0 0 1.00033 2.95144e-05
387 26.0505 6.83832 1.41024 0 0 1.00033 2.72483e-05
312 26.8745 6.05424 1.47374 0 0 1.00033 2.19441e-05
310 27.6683 5.72212 0.718345 0 0 1.00033 1.82069e-05
389 26.9387 6.57381 0.645998 0 0 1.00033 2.27977e-05
391 27.8755 6.6501 1.36987 0 0 1.00033 1.98298e-05
316 28.5264 5.67654 1.47673 0 0 1.00033 1.58775e-05
314 29.5323 5.42447 0.814798 0 0 1.00033 1.2194e-05
395 29.5948 6.3084 1.32062 0 0 1.00033 1.33528e-05
394 29.7408 7.0336 0.509347 0 0 1.00033 1.35632e-05
393 28.6378 6.36354 0.646206 0 0 1.00033 1.6588e-05
16355 29.5309 6.26394 0.0763261 0 0 1.00033 1.34971e-05
16276 28.6357 5.53854 0.0524181 0 0 1.00033 1.48668e-05
318 31.1044 5.42229 0.593674 0 0 1.00033 7.99717e-06
320 30.3627 5.54286 1.45991 0 0 1.00033 1.00545e-05
397 30.5435 6.26564 0.645024 0 0 1.00033 1.02094e-05
399 31.3661 6.20253 1.38196 0 0 1.00033 7.80078e-06
398 31.3587 7.00131 0.605037 0 0 1.00033 7.96415e-06
401 0.421908 7.65148 0.65616 0 0 1.00033 2.37659e-06
402 1.00175 8.45593 0.609758 0 0 1.00033 4.23214e-06
403 1.27173 7.83225 1.48989 0 0 1.00033 5.47155e-06
404 0.515098 8.56828 1.46582 0 0 1.00033 2.56125e-06
405 1.76067 7.72197 0.374659 0 0 1.00033 6.78301e-06
408 1.8955 8.5631 1.45876 0 0 1.00033 8.01322e-06
326 2.65307 7.06955 0.469393 0 0 1.00033 9.83452e-06
406 2.37108 8.55303 0.396569 0 0 1.00033 9.49456e-06
407 2.57007 7.73268 1.27601 0 0 1.00033 1.02381e-05
412 3.20198 8.40802 0.93456 0 0 1.00033 1.3226e-05
409 3.42477 7.65563 0.325059 0 0 1.00033 1.31674e-05
410 4.00914 8.32301 0.0724807 0 0 1.00033 1.62964e-05
411 4.17658 7.51542 1.22704 0 0 1.00033 1.62854e-05
416 4.90813 8.10057 0.929411 0 0 1.00033 2.0266e-05
413 4.88215 7.49103 0.234283 0 0 1.00033 1.84934e-05
1250 4.01052 8.21814 1.76284 0 0 1.00033 1.74143e-05
414 6.09906 8.15616 0.173806 0 0 1.00033 2.49782e-05
415 5.70498 7.40406 1.01363 0 0 1.00033 2.19562e-05
420 6.64092 8.00502 1.03993 0 0 1.00033 2.75456e-05
495 5.54464 8.75922 0.649289 0 0 1.00033 2.4221e-05
417 6.72779 7.36 0.159592 0 0 1.00033 2.5665e-05
419 7.54745 7.55233 0.739219 0 0 1.00033 2.97284e-05
1258 7.54123 7.93685 1.68728 0 0 1.00033 3.23787e-05
1261 8.33876 7.27219 1.55106 0 0 1.00033 3.28335e-05
421 8.27176 7.40685 0.0170983 0 0 1.00033 3.12382e-05
499 7.41532 8.64992 0.710282 0 0 1.00033 3.26035e-05
424 8.55261 8.09318 0.864649 0 0 1.00033 3.5782e-05
423 9.20515 7.4138 0.658516 0 0 1.00033 3.46276e-05
1262 9.38365 8.45229 1.43669 0 0 1.00033 4.2001e-05
1265 9.98394 7.66798 1.58634 0 0 1.00032 4.05242e-05
428 10.0473 8.40134 0.690381 0 0 1.00033 4.258e-05
427 10.9073 7.74715 0.831906 0 0 1.00033 4.18424e-05
1266 10.9254 8.51458 1.42548 0 0 1.00032 4.78712e-05
429 11.5708 7.94926 0.0373729 0 0 1.00033 4.37094e-05
432 11.7094 8.664 0.723908 0 0 1.00033 4.89615e-05
426 10.7331 8.66908 0.0222158 0 0 1.00033 4.53818e-05
1269 11.7528 7.64888 1.58767 0 0 1.00033 4.54914e-05
356 13.0703 7.19468 0.57147 0 0 1.00033 4.18887e-05
431 12.5382 8.08489 0.592353 0 0 1.00032 4.69315e-05
1270 12.4552 8.527 1.49382 0 0 1.00032 5.23565e-05
1273 13.2359 7.89312 1.47338 0 0 1.00033 4.96055e-05
360 14.6947 7.32171 0.608293 0 0 1.00033 4.49858e-05
435 13.9965 8.03253 0.479627 0 0 1.00033 4.89735e-05
1194 13.8609 7.26081 1.35584 0 0 1.00033 4.47292e-05
1277 14.66 8.12089 1.35781 0 0 1.00033 5.26505e-05
1274 14.0831 8.78506 1.56431 0 0 1.00033 5.78984e-05
364 16.0222 7.33868 0.898375 0 0 1.00033 4.57538e-05
439 15.4823 8.29304 0.862972 0 0 1.00033 5.31624e-05
443 16.6712 8.22858 1.10344 0 0 1.00033 5.41812e-05
1198 15.5403 7.53198 1.6449 0 0 1.00033 4.99849e-05
441 16.2443 8.34877 0.148514 0 0 1.00033 5.30774e-05
362 16.8166 7.26089 0.285212 0 0 1.00033 4.53458e-05
368 17.3718 7.45773 1.11085 0 0 1.00033 4.84613e-05
445 17.4456 8.2232 0.318054 0 0 1.00033 5.34832e-05
447 18.1052 8.1801 1.03689 0 0 1.00033 5.37442e-05
366 18.1895 7.32014 0.223541 0 0 1.00033 4.62022e-05
372 18.6396 7.22107 1.15048 0 0 1.00033 4.68046e-05
370 19.3712 7.52789 0.629494 0 0 1.00033 4.73556e-05
451 19.306 8.36161 1.1857 0 0 1.00033 5.56562e-05
449 18.828 8.37385 0.190887 0 0 1.00033 5.34794e-05
453 20.15 8.36679 0.367669 0 0 1.00032 5.30603e-05
376 20.228 7.88787 1.32417 0 0 1.00033 5.09422e-05
374 21.0253 7.70812 0.658729 0 0 1.00033 4.68499e-05
455 20.9944 8.70031 1.04227 0 0 1.00033 5.44168e-05
380 21.8594 7.94209 1.1497 0 0 1.00033 4.70418e-05
457 21.9219 8.62295 0.268347 0 0 1.00033 5.00359e-05
459 22.8766 8.47977 1.01931 0 0 1.00033 4.66423e-05
378 22.6303 7.75227 0.38873 0 0 1.00033 4.26246e-05
384 23.7124 7.60502 1.06832 0 0 1.00033 3.87623e-05
461 23.7459 8.36834 0.374235 0 0 1.00033 4.1678e-05
463 24.5928 8.38371 1.00304 0 0 1.00033 3.88516e-05
382 24.5715 7.58876 0.27983 0 0 1.00032 3.49418e-05
388 25.3502 7.65606 1.25273 0 0 1.00033 3.27034e-05
467 26.2402 8.2639 0.997336 0 0 1.00033 3.06087e-05
386 26.293 7.50595 0.374985 0 0 1.00033 2.8012e-05
465 25.4532 8.38751 0.315786 0 0 1.00033 3.44678e-05
390 27.8938 7.19383 0.527357 0 0 1.00033 2.06651e-05
392 26.9897 7.33855 1.33908 0 0 1.00033 2.50929e-05
470 28.1436 8.69995 0.421323 0 0 1.00033 2.19568e-05
471 27.9882 8.03044 1.2145 0 0 1.00033 2.21108e-05
469 27.1945 8.00471 0.435492 0 0 1.00033 2.52949e-05
396 28.8213 7.26523 1.23138 0 0 1.00033 1.73621e-05
474 29.7613 8.49263 0.542441 0 0 1.00033 1.45626e-05
475 29.6677 7.80859 1.27971 0 0 1.00033 1.46135e-05
476 28.9477 8.72242 1.18836 0 0 1.00033 1.83896e-05
473 28.8718 7.88326 0.417565 0 0 1.00033 1.77511e-05
400 30.4866 7.17858 1.18083 0 0 1.00033 1.09292e-05
479 31.4086 7.87092 1.29777 0 0 1.00033 8.09321e-06
480 30.5923 8.58042 1.18688 0 0 1.00033 1.11581e-05
477 30.7966 7.95009 0.383547 0 0 1.00033 1.01655e-05
478 31.5849 8.66034 0.391868 0 0 1.00033 7.3375e-06
482 1.2701 10.2492 0.268133 0 0 1.00033 4.48973e-06
483 1.17621 9.34573 1.19787 0 0 1.00033 4.77829e-06
484 0.406405 9.94663 0.899183 0 0 1.00033 1.26113e-06
481 0.523117 9.34676 0.122772 0 0 1.00033 2.17199e-06
1322 0.964369 10.1077 1.74769 0 0 1.00033 3.73512e-06
485 1.91563 9.38951 0.444293 0 0 1.00033 7.76425e-06
488 1.97829 10.2918 0.966739 0 0 1.00033 7.88678e-06
486 2.74964 10.1667 0.0772811 0 0 1.00033 1.1415e-05
487 2.54196 9.35108 1.21291 0 0 1.00033 1.07371e-05
1326 2.93157 10.1097 1.66114 0 0 1.00033 1.30965e-05
489 3.24812 9.24356 0.083787 0 0 1.00033 1.35694e-05
1329 3.39171 9.10837 1.65555 0 0 1.00033 1.50256e-05
492 3.55007 9.89631 0.734631 0 0 1.00033 1.54319e-05
491 4.12284 8.95602 0.851492 0 0 1.00033 1.78447e-05
496 4.79271 9.79499 0.564249 0 0 1.00033 2.19761e-05
1330 4.30852 9.78848 1.59664 0 0 1.00032 2.03665e-05
1333 4.88084 8.87855 1.63414 0 0 1.00033 2.24077e-05
500 6.45997 9.56674 0.509597 0 0 1.00033 3.03816e-05
1334 5.53282 9.6196 1.16665 0 0 1.00033 2.61802e-05
1337 6.38713 8.83929 1.24861 0 0 1.00033 2.94352e-05
1417 6.4546 10.2698 1.18402 0 0 1.00033 3.24858e-05
575 5.59202 10.4837 0.435466 0 0 1.00033 2.69937e-05
504 8.22653 9.67593 0.567885 0 0 1.00033 3.98244e-05
1338 7.4148 9.48779 1.18552 0 0 1.00033 3.62953e-05
1341 8.31702 8.91416 1.38561 0 0 1.00033 3.91501e-05
1421 7.91229 10.36 1.3427 0 0 1.00033 4.19494e-05
579 7.15657 10.4277 0.460084 0 0 1.00033 3.61897e-05
501 8.3703 8.81098 0.0765087 0 0 1.00033 3.71438e-05
503 9.22853 9.20285 0.71548 0 0 1.00033 4.31277e-05
508 9.9336 10.0732 0.658208 0 0 1.00033 4.99517e-05
1342 9.02879 9.96816 1.39625 0 0 1.00033 4.67614e-05
1345 10.1409 9.3287 1.40487 0 0 1.00033 4.94393e-05
507 10.7898 9.4577 0.654687 0 0 1.00033 5.04779e-05
1346 10.9596 9.93128 1.61817 0 0 1.00033 5.68226e-05
1349 11.6775 9.41889 1.32 0 0 1.00033 5.53532e-05
512 11.5252 10.356 0.719371 0 0 1.00033 5.75855e-05
436 13.359 8.83818 0.778681 0 0 1.00033 5.38739e-05
511 12.4525 9.63684 0.685284 0 0 1.00033 5.69607e-05
516 13.1722 10.3353 0.947744 0 0 1.00033 6.30984e-05
1353 12.9483 9.46482 1.60611 0 0 1.00033 6.10644e-05
1350 12.3339 10.3783 1.58329 0 0 1.00033 6.4457e-05
510 12.1047 10.5179 0.0209466 0 0 1.00033 5.89548e-05
440 14.8495 9.14905 0.765312 0 0 1.00033 5.83368e-05
515 13.9147 9.60701 0.839471 0 0 1.00033 5.98857e-05
1354 13.8858 10.3143 1.69643 0 0 1.00033 6.8927e-05
517 14.6437 10.0812 0.214859 0 0 1.00033 6.36025e-05
1357 14.6975 9.74726 1.75979 0 0 1.00033 6.72023e-05
514 13.7612 10.5733 0.0145923 0 0 1.00032 6.44192e-05
444 16.2985 9.20504 1.13106 0 0 1.00033 6.18412e-05
1278 15.4791 9.05803 1.75868 0 0 1.00033 6.29746e-05
519 15.5232 9.87273 1.01385 0 0 1.00033 6.54598e-05
521 16.0652 10.2077 0.239355 0 0 1.00033 6.65142e-05
438 15.6709 9.21366 0.11623 0 0 1.00033 5.87894e-05
523 16.8899 10.0532 0.967581 0 0 1.00033 6.84864e-05
442 16.8885 9.13757 0.262476 0 0 1.00033 5.97883e-05
448 17.4926 9.18293 1.1232 0 0 1.00033 6.23469e-05
525 17.5368 10.1567 0.196535 0 0 1.00033 6.78463e-05
527 18.1536 10.0363 1.07675 0 0 1.00033 6.87199e-05
446 18.1442 9.26868 0.120073 0 0 1.00033 6.08098e-05
452 18.6867 9.10157 0.951714 0 0 1.00033 6.13884e-05
529 18.96 9.95846 0.306205 0 0 1.00033 6.64679e-05
531 19.8485 10.1629 0.875219 0 0 1.00033 6.71459e-05
1369 19.0337 9.82466 1.72141 0 0 1.00033 6.99848e-05
450 19.5976 9.19791 0.215718 0 0 1.00033 5.99625e-05
456 20.1842 9.22406 1.05919 0 0 1.00033 6.03312e-05
533 20.3388 10.0667 0.0691801 0 0 1.00033 6.41935e-05
535 21.2544 10.125 0.780993 0 0 1.00033 6.22893e-05
1373 20.5837 9.97414 1.68546 0 0 1.00033 6.7169e-05