ITEM: TIMESTEP
21500
ITEM: NUMBER OF ATOMS
32000
ITEM: BOX BOUNDS pp pp pp
0.0000000000000000e+00 3.1748021039364001e+01
0.0000000000000000e+00 3.1748021039364001e+01
0.0000000000000000e+00 3.1748021039364001e+01
ITEM: ATOMS id x y z c_phase c_nbond c_rho v_omega
4 0.187031 1.11304 0.467622 0 0 1.00068 1.88418e-06
83 1.08192 1.61777 0.779885 0 0 1.00068 3.96439e-06
842 0.769243 0.760872 1.40722 0 0 1.00067 2.5051e-06
921 0.114947 1.62176 1.37771 0 0 1.00068 2.40968e-06
3 0.73351 0.0359361 0.618325 0 0 1.00067 1.56963e-06
8 1.76513 0.721533 1.01307 0 0 1.00067 3.7005e-06
85 1.90557 1.37856 0.213913 0 0 1.00067 4.99643e-06
925 1.94295 1.54583 1.74917 0 0 1.00067 5.24889e-06
6 2.56809 0.596745 0.199113 0 0 1.00067 4.6766e-06
87 2.75402 1.38237 0.871797 0 0 1.00067 6.24698e-06
846 2.73051 0.660524 1.73354 0 0 1.00067 4.81867e-06
12 3.49264 0.721796 0.955801 0 0 1.00067 6.07788e-06
929 3.7311 1.48562 1.706 0 0 1.00067 7.81474e-06
10 4.17262 0.618725 0.31403 0 0 1.00068 6.41177e-06
850 4.39899 0.68662 1.62855 0 0 1.00068 7.1349e-06
91 4.14814 1.59348 0.712015 0 0 1.00068 8.81048e-06
16 5.01798 0.290204 1.14799 0 0 1.00068 6.35506e-06
93 5.04684 1.32084 0.380409 0 0 1.00068 9.12036e-06
14 5.70179 0.346785 0.310398 0 0 1.00068 7.14946e-06
95 5.99221 1.00491 0.947158 0 0 1.00068 9.01342e-06
854 5.82733 0.152958 1.69529 0 0 1.00068 6.54346e-06
933 5.15779 1.41636 1.4352 0 0 1.00068 9.7452e-06
97 6.69344 1.07513 0.216794 0 0 1.00068 9.50257e-06
20 6.74009 0.0768995 0.866292 0 0 1.00068 6.66605e-06
937 6.7769 0.681468 1.69174 0 0 1.00068 8.49158e-06
24 8.29144 0.0741757 1.05711 0 0 1.00067 6.82729e-06
99 7.47758 0.891347 0.947868 0 0 1.00067 9.39043e-06
941 8.26535 0.919768 1.61407 0 0 1.00067 1.02518e-05
18 7.63733 0.323996 0.151746 0 0 1.00068 7.53294e-06
938 7.50042 1.71022 1.56507 0 0 1.00067 1.26222e-05
101 8.37951 1.0536 0.230637 0 0 1.00067 1.02081e-05
22 8.89824 0.17334 0.256279 0 0 1.00067 6.95391e-06
28 9.5816 0.0126071 0.901074 0 0 1.00067 5.61008e-06
103 9.14774 0.975756 1.09313 0 0 1.00068 1.00115e-05
945 9.69794 0.647999 1.76084 0 0 1.00068 8.25719e-06
105 9.77775 1.0408 0.104593 0 0 1.00067 9.90804e-06
108 10.0031 1.6951 1.09318 0 0 1.00068 1.29584e-05
107 10.4839 0.756365 0.830655 0 0 1.00067 8.57401e-06
949 11.4194 0.745501 1.41794 0 0 1.00067 8.14506e-06
946 10.7815 1.38974 1.72399 0 0 1.00068 1.17578e-05
26 10.2746 0.0646839 0.0799554 0 0 1.00067 5.68823e-06
112 11.3916 1.56662 0.777287 0 0 1.00067 1.22793e-05
36 12.9016 0.0393841 0.639239 0 0 1.00068 3.62876e-06
111 12.1693 0.851762 0.516281 0 0 1.00067 8.10113e-06
870 12.1605 0.0874631 1.30591 0 0 1.00067 4.61649e-06
953 12.8824 0.997873 1.37517 0 0 1.00067 8.55378e-06
950 12.1852 1.68523 1.46479 0 0 1.00068 1.26544e-05
116 12.9396 1.75467 0.606454 0 0 1.00068 1.25032e-05
40 14.4181 0.244531 0.778919 0 0 1.00067 3.6993e-06
115 13.7386 0.983893 0.841517 0 0 1.00067 7.84627e-06
117 14.2677 1.44543 0.15564 0 0 1.00067 1.01879e-05
874 13.656 0.220371 1.6359 0 0 1.00067 3.93243e-06
957 14.5392 1.08304 1.48164 0 0 1.00067 7.91449e-06
119 15.0974 1.51208 0.668675 0 0 1.00067 9.92929e-06
44 15.8222 0.777016 0.790622 0 0 1.00067 5.8936e-06
878 15.2076 0.438344 1.63965 0 0 1.00067 4.04951e-06
882 16.65 0.787507 1.34795 0 0 1.00067 5.74983e-06
961 15.8488 1.50712 1.40347 0 0 1.00067 1.01678e-05
38 15.1957 0.677202 0.0720086 0 0 1.00067 5.26339e-06
123 16.7692 1.63069 0.689536 0 0 1.00067 1.04603e-05
48 17.3688 0.857218 0.560984 0 0 1.00067 6.0669e-06
886 18.0302 0.927581 1.42666 0 0 1.00067 6.92446e-06
47 18.1568 0.112056 0.69394 0 0 1.00067 2.70372e-06
51 19.5483 0.270595 0.672107 0 0 1.00067 4.44018e-06
52 18.8933 0.962247 0.692984 0 0 1.00067 7.28718e-06
889 19.0403 0.397795 1.54972 0 0 1.00067 4.26372e-06
890 19.7452 1.24883 1.69581 0 0 1.00067 9.8663e-06
969 18.8896 1.74532 1.50119 0 0 1.00067 1.18751e-05
55 21.1714 0.679465 1.07445 0 0 1.00068 6.97539e-06
56 20.3575 1.08005 0.96784 0 0 1.00068 8.79705e-06
54 21.2871 1.11197 0.215306 0 0 1.00068 9.59098e-06
893 20.4498 0.187861 1.43199 0 0 1.00068 5.07105e-06
53 20.2823 0.16978 0.0722463 0 0 1.00068 4.87537e-06
57 22.065 0.640693 0.539795 0 0 1.00068 7.71401e-06
59 22.8721 0.806105 1.40508 0 0 1.00068 8.58217e-06
60 22.2704 1.54033 1.3324 0 0 1.00068 1.20328e-05
58 23.0299 1.44126 0.468398 0 0 1.00068 1.11531e-05
63 24.3153 0.763138 1.42341 0 0 1.00067 8.81345e-06
61 23.6244 0.725695 0.573406 0 0 1.00067 8.51977e-06
62 24.5596 1.55744 0.745428 0 0 1.00067 1.1404e-05
64 23.6381 1.63006 1.39192 0 0 1.00067 1.21565e-05
65 25.0139 0.681713 0.539736 0 0 1.00067 8.57331e-06
67 26.0487 0.720166 1.16705 0 0 1.00068 8.17259e-06
68 25.2886 1.50743 1.46046 0 0 1.00067 1.11726e-05
66 25.9892 1.29454 0.425424 0 0 1.00067 9.89623e-06
17548 25.1713 0.139949 1.36084 0 0 1.00067 6.86194e-06
70 27.6874 1.56363 0.386203 0 0 1.00068 8.82373e-06
71 27.661 0.781387 0.872431 0 0 1.00068 7.18493e-06
72 26.8442 1.35094 1.25465 0 0 1.00068 9.2029e-06
69 26.8216 0.556376 0.238544 0 0 1.00068 7.37341e-06
913 28.4195 0.585551 1.41095 0 0 1.00067 5.99252e-06
76 28.7426 1.45656 0.733896 0 0 1.00068 7.14407e-06
914 29.4538 1.14116 1.56789 0 0 1.00067 5.8586e-06
917 29.8366 0.319296 1.45683 0 0 1.00067 4.02242e-06
75 29.3038 0.536529 0.617708 0 0 1.00067 4.88063e-06
841 31.6064 0.297405 1.25649 0 0 1.00067 1.85208e-06
79 30.7432 0.572388 0.476781 0 0 1.00068 3.27696e-06
80 30.1815 1.32891 0.772852 0 0 1.00068 5.02842e-06
918 30.9294 1.0541 1.38829 0 0 1.00068 3.69123e-06
82 1.268 2.37369 0.120768 0 0 1.00067 5.3965e-06
84 0.291122 2.39128 0.808008 0 0 1.00068 3.63714e-06
163 1.48853 3.14637 0.942291 0 0 1.00067 6.8989e-06
922 1.29532 2.29637 1.5878 0 0 1.00068 5.3984e-06
1001 0.578775 3.02628 1.5491 0 0 1.00068 4.80718e-06
161 0.52675 3.09867 0.12942 0 0 1.00068 4.70468e-06
88 2.07236 2.2959 0.783314 0 0 1.00067 6.65678e-06
167 2.87486 3.10329 0.855452 0 0 1.00067 9.75652e-06
926 2.83218 2.06886 1.53645 0 0 1.00067 7.75021e-06
86 2.88734 2.21605 0.0523427 0 0 1.00067 8.08416e-06
1005 2.31112 2.95742 1.75245 0 0 1.00067 8.22198e-06
1009 3.50605 3.18891 1.64618 0 0 1.00067 1.14833e-05
92 3.56498 2.34412 0.782273 0 0 1.00067 9.59001e-06
171 4.44009 3.05185 0.754508 0 0 1.00067 1.25845e-05
930 4.3445 2.38034 1.5795 0 0 1.00068 1.09602e-05
96 5.11008 2.27406 0.81831 0 0 1.00068 1.19755e-05
94 5.85571 2.12984 0.140387 0 0 1.00068 1.24763e-05
175 5.92198 2.86679 0.954773 0 0 1.00068 1.49352e-05
934 6.04459 1.88083 1.48802 0 0 1.00068 1.18538e-05
173 5.24267 3.01826 0.0104744 0 0 1.00067 1.43461e-05
100 6.75425 1.84903 0.780519 0 0 1.00068 1.23596e-05
1017 6.81274 2.70354 1.54258 0 0 1.00068 1.56827e-05
177 6.895 2.59495 0.124937 0 0 1.00068 1.49386e-05
98 7.66179 1.88033 0.133807 0 0 1.00068 1.31289e-05
104 8.31786 1.84312 0.935497 0 0 1.00067 1.3504e-05
179 7.6932 2.69022 0.907092 0 0 1.00067 1.65759e-05
180 6.83751 3.41151 0.783069 0 0 1.00068 1.80743e-05
1018 7.77898 3.47418 1.5009 0 0 1.00067 2.02493e-05
1021 8.49934 2.61736 1.642 0 0 1.00067 1.72416e-05
181 8.57022 2.60648 0.038604 0 0 1.00067 1.65959e-05
102 9.13185 1.75946 0.246658 0 0 1.00067 1.32194e-05
183 9.24848 2.60776 0.930839 0 0 1.00067 1.77214e-05
942 9.27969 1.86256 1.71426 0 0 1.00068 1.44134e-05
185 9.89504 2.57385 0.207085 0 0 1.00068 1.74421e-05
1022 9.48379 3.38555 1.5023 0 0 1.00068 2.2558e-05
184 8.59085 3.48514 0.705104 0 0 1.00067 2.09272e-05
182 9.39479 3.49492 0.0540218 0 0 1.00068 2.18987e-05
188 10.292 3.23817 0.883295 0 0 1.00068 2.11736e-05
106 10.5319 1.80179 0.198434 0 0 1.00067 1.35451e-05
187 10.9551 2.49278 0.919443 0 0 1.00068 1.70262e-05
1026 11.1371 3.26396 1.59468 0 0 1.00068 2.19722e-05
186 11.0398 3.51111 0.170209 0 0 1.00068 2.2822e-05
1029 11.8063 2.56156 1.59373 0 0 1.00068 1.82956e-05
192 11.8528 3.35658 0.80771 0 0 1.00067 2.25906e-05
191 12.2787 2.41859 0.743198 0 0 1.00068 1.72068e-05
1033 13.2697 2.81592 1.69588 0 0 1.00068 1.93936e-05
196 12.9572 3.39534 0.81696 0 0 1.00068 2.33113e-05
195 13.6217 2.8632 0.840795 0 0 1.00068 1.88659e-05
954 13.6659 1.84806 1.47507 0 0 1.00068 1.26857e-05
120 14.3694 2.33704 0.925009 0 0 1.00067 1.55506e-05
1037 14.5234 3.27238 1.55709 0 0 1.00068 2.2198e-05
197 14.5877 3.12731 0.0432165 0 0 1.00067 2.04077e-05
114 13.7247 2.15386 0.0523947 0 0 1.00067 1.48507e-05
199 15.1971 3.37919 0.873546 0 0 1.00067 2.22372e-05
958 15.1453 2.27183 1.44659 0 0 1.00067 1.5173e-05
118 15.2042 2.46154 0.133147 0 0 1.00067 1.60771e-05
124 16.0468 2.46217 0.704122 0 0 1.00067 1.58017e-05
962 16.6841 2.55383 1.53048 0 0 1.00067 1.67562e-05
1041 15.8735 3.26815 1.50908 0 0 1.00067 2.1522e-05
201 16.0346 3.27146 0.0221964 0 0 1.00067 2.15765e-05
127 18.1538 1.77331 0.755052 0 0 1.00067 1.16395e-05
203 16.7748 3.27798 0.674908 0 0 1.00067 2.13806e-05
965 17.4811 1.87884 1.56429 0 0 1.00067 1.23401e-05
128 17.4137 2.48752 0.680188 0 0 1.00067 1.60167e-05
207 18.3575 3.13555 0.715462 0 0 1.00067 2.01667e-05
966 18.3752 2.63575 1.59736 0 0 1.00067 1.75064e-05
1045 17.5429 3.26207 1.50487 0 0 1.00067 2.12691e-05
131 19.7549 1.83792 0.843596 0 0 1.00067 1.24591e-05
129 19.0874 1.82387 0.00812553 0 0 1.00067 1.20087e-05
132 19.2238 2.63244 1.01659 0 0 1.00067 1.71518e-05
209 19.2867 3.27937 0.192227 0 0 1.00067 2.12429e-05
130 19.9171 2.62067 0.111563 0 0 1.00067 1.70896e-05
133 20.551 1.8326 0.204587 0 0 1.00067 1.27396e-05
135 21.3093 1.99055 0.961849 0 0 1.00068 1.3847e-05
973 20.5731 2.1086 1.74246 0 0 1.00068 1.47264e-05
134 21.4781 2.79202 0.459479 0 0 1.00068 1.76968e-05
136 20.5422 2.78895 1.09666 0 0 1.00068 1.85499e-05
213 20.7914 3.3731 0.328831 0 0 1.00068 2.15425e-05
137 22.1924 1.99063 0.516644 0 0 1.00068 1.38482e-05
139 23.13 2.46365 1.51346 0 0 1.00068 1.58592e-05
138 23.2469 3.02616 0.729577 0 0 1.00068 1.78552e-05
140 22.3747 2.90361 1.237 0 0 1.00068 1.86395e-05
141 23.9169 2.21996 0.62169 0 0 1.00067 1.40095e-05
143 24.6324 2.39204 1.58395 0 0 1.00067 1.47954e-05
142 24.6098 3.09739 0.773018 0 0 1.00067 1.72287e-05
144 23.9892 3.31961 1.53322 0 0 1.00067 1.91608e-05
16108 25.2239 3.21945 0.00557048 0 0 1.00067 1.67657e-05
147 26.097 2.10427 1.35662 0 0 1.00067 1.22899e-05
149 26.7105 2.12502 0.512493 0 0 1.00067 1.14041e-05
145 25.3153 2.23575 0.526896 0 0 1.00067 1.33667e-05
146 26.0326 2.98823 0.699724 0 0 1.00067 1.50296e-05
148 25.4118 2.97296 1.52144 0 0 1.00067 1.57285e-05
152 26.7516 2.92672 1.52826 0 0 1.00067 1.38194e-05
151 27.6584 2.27857 1.22873 0 0 1.00068 1.03916e-05
150 27.3055 3.01352 0.633813 0 0 1.00067 1.27796e-05
233 28.2243 3.50966 0.337985 0 0 1.00068 1.23285e-05
153 28.4139 2.34391 0.344979 0 0 1.00068 9.45403e-06
156 28.4577 3.01647 1.19583 0 0 1.00068 1.08492e-05
993 28.6497 1.96828 1.50483 0 0 1.00068 8.45048e-06
155 29.5815 2.21298 0.880835 0 0 1.00068 7.29782e-06
154 29.3802 2.8783 0.286317 0 0 1.00068 8.81242e-06
235 29.4774 3.46166 1.18089 0 0 1.00068 9.61109e-06
997 30.0949 1.95655 1.70325 0 0 1.00067 6.36844e-06
159 31.0457 2.05624 0.922307 0 0 1.00068 4.76447e-06
160 30.3608 2.8401 0.99765 0 0 1.00068 6.69199e-06
239 31.2416 3.41407 0.972636 0 0 1.00068 6.04596e-06
998 31.1668 2.7663 1.7267 0 0 1.00068 5.41531e-06
237 30.335 3.38669 0.151138 0 0 1.00068 7.82164e-06
157 30.5351 2.02037 0.0328568 0 0 1.00068 5.56475e-06
158 31.3149 2.72168 0.0768608 0 0 1.00068 5.08239e-06
164 0.528378 3.77667 0.917149 0 0 1.00067 5.3155e-06
241 0.413735 4.60928 0.471827 0 0 1.00067 5.84336e-06
243 1.41 4.58198 0.983403 0 0 1.00067 8.46676e-06
162 1.28205 3.7963 0.0689321 0 0 1.00067 6.94523e-06
244 0.396298 5.27198 1.27616 0 0 1.00067 6.42061e-06
168 2.10834 3.91453 0.849923 0 0 1.00067 9.16232e-06
247 2.84057 4.66924 1.12231 0 0 1.00067 1.23569e-05
166 2.92109 3.95759 0.198531 0 0 1.00067 1.1379e-05
245 2.18949 4.81689 0.280963 0 0 1.00067 1.05339e-05
249 3.72755 4.60715 0.167594 0 0 1.00067 1.46645e-05
172 3.76044 3.83814 0.884681 0 0 1.00067 1.28756e-05
251 4.39746 4.58225 1.15133 0 0 1.00067 1.65932e-05
170 4.54484 3.89079 0.143699 0 0 1.00067 1.49082e-05
250 4.5611 5.15297 0.320334 0 0 1.00067 1.81029e-05
176 5.21982 3.69006 1.15202 0 0 1.00067 1.6175e-05
253 5.35579 4.40511 0.326184 0 0 1.00067 1.84348e-05
174 6.07865 3.58794 0.177536 0 0 1.00068 1.76736e-05
255 6.07997 4.34657 1.02727 0 0 1.00067 2.02358e-05
254 6.17608 5.02243 0.280353 0 0 1.00068 2.23387e-05
256 5.3344 5.08041 1.28654 0 0 1.00068 2.04423e-05
1097 7.05941 4.12056 1.64578 0 0 1.00067 2.1843e-05
260 7.08483 4.74141 0.863739 0 0 1.00068 2.36703e-05
259 7.81062 4.06015 0.56268 0 0 1.00067 2.26132e-05
258 7.78387 4.93233 0.030812 0 0 1.00067 2.62452e-05
1098 7.87976 4.95331 1.49322 0 0 1.00067 2.7107e-05
1101 8.66052 4.18664 1.47594 0 0 1.00067 2.48331e-05
264 8.69959 4.88958 0.699453 0 0 1.00067 2.80776e-05
263 9.54642 4.17214 0.810613 0 0 1.00067 2.58921e-05
1102 9.59414 4.89898 1.58215 0 0 1.00067 3.08063e-05
262 9.54204 5.05233 0.0208868 0 0 1.00068 3.05737e-05
268 10.3291 4.93237 0.797725 0 0 1.00067 3.13218e-05
265 10.3343 4.15806 0.122169 0 0 1.00068 2.64165e-05
1105 10.3705 3.97721 1.65739 0 0 1.00068 2.61368e-05
267 11.115 4.28748 0.896882 0 0 1.00067 2.79476e-05
1106 11.1198 4.85702 1.75414 0 0 1.00067 3.22408e-05
266 11.0856 5.18744 0.0161331 0 0 1.00068 3.35201e-05
269 11.9151 4.4025 0.213928 0 0 1.00067 2.85296e-05
1109 11.9088 4.09188 1.6922 0 0 1.00067 2.85504e-05
272 12.0047 4.96249 1.0089 0 0 1.00067 3.3444e-05
271 12.7583 4.30589 1.00749 0 0 1.00067 2.95936e-05
273 13.1861 4.39383 0.0583708 0 0 1.00067 2.93947e-05
1113 13.4243 4.74375 1.69374 0 0 1.00067 3.30698e-05
275 13.8233 4.54324 0.784268 0 0 1.00067 3.10467e-05
200 14.5535 4.01513 0.697075 0 0 1.00068 2.66984e-05
1034 14.0724 4.05632 1.59167 0 0 1.00068 2.80753e-05
1117 14.875 5.00375 1.52576 0 0 1.00067 3.57172e-05
277 14.7639 4.78301 0.0821622 0 0 1.00068 3.18922e-05
194 13.7471 3.57457 0.00710105 0 0 1.00067 2.37202e-05
279 15.6151 5.00379 0.819511 0 0 1.00067 3.40173e-05
198 15.5205 4.15381 0.108479 0 0 1.00067 2.72627e-05
1038 15.6021 4.3767 1.59958 0 0 1.00067 2.9691e-05
204 16.2319 4.0968 0.909777 0 0 1.00067 2.72429e-05
281 16.4861 4.83028 0.175658 0 0 1.00067 3.19763e-05
1121 16.5212 5.09626 1.65366 0 0 1.00067 3.58954e-05
1042 16.9129 4.0636 1.68042 0 0 1.00067 2.79022e-05
283 17.2042 4.73075 0.909282 0 0 1.00067 3.15889e-05
208 17.8027 3.99954 0.807899 0 0 1.00067 2.58821e-05
285 18.0247 4.78824 0.033615 0 0 1.00067 3.14232e-05
1046 18.4619 3.88014 1.65627 0 0 1.00067 2.59236e-05
287 18.6658 4.74943 1.09492 0 0 1.00067 3.1675e-05
206 18.6512 4.08642 0.0761041 0 0 1.00067 2.59442e-05
212 19.3475 4.00509 0.963703 0 0 1.00067 2.58736e-05
289 19.4038 4.92818 0.358279 0 0 1.00067 3.2178e-05
210 20.0711 4.10218 0.25071 0 0 1.00067 2.61037e-05
211 20.1292 3.56698 1.27417 0 0 1.00067 2.33334e-05
291 20.238 5.03375 1.11694 0 0 1.00067 3.21755e-05
215 21.7178 3.70292 1.3917 0 0 1.00068 2.25172e-05
216 20.8948 4.20976 1.22872 0 0 1.00067 2.62213e-05
295 21.4205 5.16468 1.37521 0 0 1.00067 3.23852e-05
214 21.5602 4.36694 0.51732 0 0 1.00067 2.6478e-05
293 20.7133 5.18069 0.352496 0 0 1.00067 3.19954e-05
217 22.3544 3.62845 0.607375 0 0 1.00068 2.23509e-05
16179 23.0686 3.83298 0.0467107 0 0 1.00068 2.18859e-05
219 23.2232 4.06068 1.40939 0 0 1.00068 2.31782e-05
220 22.3941 4.58525 1.31167 0 0 1.00067 2.73527e-05
218 23.0805 4.8056 0.539445 0 0 1.00067 2.66766e-05
223 24.8143 3.9653 1.55771 0 0 1.00067 2.06477e-05
221 23.9486 4.07116 0.772991 0 0 1.00067 2.20524e-05
222 24.7313 4.79544 0.635347 0 0 1.00067 2.36884e-05
224 23.9204 5.01532 1.34229 0 0 1.00067 2.69465e-05
228 25.4168 4.93631 1.59356 0 0 1.00067 2.2964e-05
227 26.0286 3.90187 1.5199 0 0 1.00067 1.80692e-05
229 26.4747 3.88364 0.595957 0 0 1.00067 1.68142e-05
225 25.3922 4.06768 0.775485 0 0 1.00067 1.94554e-05
232 26.7053 4.6827 1.37425 0 0 1.00067 1.8671e-05
226 25.9054 4.83163 0.413196 0 0 1.00068 2.08201e-05
231 27.4763 3.68422 1.41322 0 0 1.00067 1.42382e-05
311 27.685 5.23083 1.40218 0 0 1.00068 1.75108e-05
236 28.2535 4.27216 1.11228 0 0 1.00068 1.41003e-05
230 27.3752 4.38995 0.582446 0 0 1.00068 1.64593e-05
313 28.591 5.02786 0.700344 0 0 1.00068 1.40166e-05
234 29.1918 4.00552 0.474793 0 0 1.00068 1.10588e-05
315 29.3809 4.74808 1.31794 0 0 1.00068 1.17706e-05
240 30.2521 4.20793 1.03041 0 0 1.00068 8.88506e-06
238 31.2726 4.0572 0.359526 0 0 1.00068 6.24273e-06
317 30.4885 4.82717 0.477459 0 0 1.00068 8.37524e-06
319 31.2587 4.68149 1.39203 0 0 1.00068 6.68075e-06
242 1.22672 5.46125 0.459909 0 0 1.00067 8.54976e-06
323 1.13741 6.14286 1.27691 0 0 1.00067 8.83183e-06
324 0.60427 6.91664 1.49151 0 0 1.00067 7.63945e-06
322 1.32172 6.85465 0.568256 0 0 1.00067 9.75103e-06
321 0.315569 6.01946 0.450609 0 0 1.00067 6.38511e-06
248 1.86244 5.38773 1.36833 0 0 1.00067 1.06841e-05
328 2.06619 6.86749 1.24213 0 0 1.00067 1.24569e-05
325 2.22889 6.04046 0.502427 0 0 1.00067 1.23038e-05
327 2.63989 5.9669 1.39696 0 0 1.00067 1.38768e-05
246 3.01707 5.38799 0.273318 0 0 1.00067 1.37072e-05
326 2.8564 6.90969 0.466701 0 0 1.00068 1.55644e-05
252 3.47459 5.3768 1.2837 0 0 1.00067 1.56352e-05
332 3.63317 6.68388 1.1407 0 0 1.00068 1.79351e-05
329 3.77796 5.99019 0.479484 0 0 1.00068 1.72555e-05
331 4.51784 5.75918 1.22195 0 0 1.00068 1.97018e-05
330 4.41319 6.67304 0.226903 0 0 1.00068 2.10148e-05
336 5.21976 6.42549 1.15736 0 0 1.00068 2.39788e-05
333 5.25078 5.86995 0.317553 0 0 1.00068 2.21974e-05
335 6.1267 5.79852 0.956529 0 0 1.00068 2.54561e-05
334 6.01274 6.60511 0.148819 0 0 1.00067 2.72339e-05
337 6.86195 5.64587 0.141106 0 0 1.00068 2.64312e-05
340 6.94959 6.39156 0.964853 0 0 1.00067 3.049e-05
1177 6.95044 5.54388 1.59788 0 0 1.00068 2.72138e-05
339 7.82333 5.68617 0.759175 0 0 1.00067 2.98543e-05
1178 7.83753 6.34002 1.59483 0 0 1.00067 3.38419e-05
344 8.59681 6.36085 0.709987 0 0 1.00067 3.52889e-05
1181 8.78413 5.64406 1.49739 0 0 1.00067 3.29806e-05
343 9.47149 5.73075 0.74239 0 0 1.00067 3.42914e-05
1182 9.71574 6.46398 1.46314 0 0 1.00067 4.02449e-05
1261 8.68899 6.94851 1.55167 0 0 1.00067 3.99509e-05
1185 10.3847 5.73311 1.48246 0 0 1.00067 3.72831e-05
345 10.3669 5.82454 0.0883841 0 0 1.00068 3.64695e-05
347 11.236 5.64239 0.931539 0 0 1.00067 3.66552e-05
346 11.2085 6.54774 0.125039 0 0 1.00067 4.28062e-05
1186 11.1848 6.49852 1.49284 0 0 1.00067 4.42937e-05
348 10.4871 6.72634 0.728432 0 0 1.00067 4.30895e-05
349 11.992 6.01263 0.0603826 0 0 1.00067 3.99423e-05
352 12.0328 6.76063 0.808153 0 0 1.00067 4.66655e-05
270 12.642 5.31695 0.187505 0 0 1.00067 3.55511e-05
276 13.376 5.56657 0.862808 0 0 1.00067 3.83847e-05
351 12.4776 5.91045 1.05086 0 0 1.00067 4.08757e-05
1190 12.8972 6.83181 1.38137 0 0 1.00068 4.95197e-05
274 13.9847 5.36232 0.03191 0 0 1.00067 3.69217e-05
1114 14.0776 5.68309 1.57793 0 0 1.00067 4.07218e-05
355 14.1203 6.36675 0.794487 0 0 1.00067 4.4662e-05
280 14.7908 5.61193 0.774253 0 0 1.00067 3.94925e-05
357 14.8939 6.2837 0.0347705 0 0 1.00067 4.41427e-05
356 13.5013 7.04009 0.587087 0 0 1.00067 5.02328e-05
1197 15.1277 6.52952 1.43277 0 0 1.00067 4.87716e-05
278 15.7067 5.60685 0.0424538 0 0 1.00067 3.83549e-05
284 16.5706 5.7989 0.942867 0 0 1.00067 4.0244e-05
359 15.826 6.45416 0.803756 0 0 1.00068 4.62341e-05
1118 15.8872 5.85343 1.69465 0 0 1.00068 4.2526e-05
361 16.4445 6.39827 0.0498436 0 0 1.00067 4.4772e-05
363 17.267 6.60864 1.15193 0 0 1.00067 4.65974e-05
282 17.2992 5.57121 0.266435 0 0 1.00067 3.72388e-05
288 17.8085 5.61808 1.24213 0 0 1.00067 3.87882e-05
365 17.8441 6.48031 0.397819 0 0 1.00067 4.50667e-05
367 18.4214 6.51544 1.35811 0 0 1.00067 4.59202e-05
286 18.5084 5.58254 0.519967 0 0 1.00067 3.74962e-05
292 19.4206 5.61142 1.20065 0 0 1.00067 3.765e-05
369 19.1072 6.56065 0.617774 0 0 1.00067 4.42995e-05
371 20.0437 6.98154 1.34875 0 0 1.00068 4.70227e-05
290 20.1058 6.13329 0.628085 0 0 1.00067 3.98128e-05
294 21.3858 6.23533 0.645958 0 0 1.00067 3.80153e-05
296 20.8103 6.05156 1.38913 0 0 1.00067 3.89299e-05
297 22.1405 5.43143 0.788117 0 0 1.00067 3.20809e-05
299 23.0182 5.66568 1.28756 0 0 1.00067 3.22997e-05
300 22.2548 6.3814 1.36778 0 0 1.00067 3.80792e-05
16260 22.2844 6.23475 0.0550344 0 0 1.00067 3.60838e-05
298 23.2103 6.36696 0.651606 0 0 1.00067 3.41859e-05
301 24.0059 5.56876 0.539392 0 0 1.00067 2.83083e-05
303 24.8215 5.79314 1.44052 0 0 1.00068 2.76726e-05
304 24.013 6.43328 1.28439 0 0 1.00067 3.28998e-05
302 24.6463 6.51607 0.432968 0 0 1.00067 3.08908e-05
305 25.296 5.71224 0.568252 0 0 1.00067 2.55574e-05
307 26.1132 5.59834 1.35503 0 0 1.00067 2.32134e-05
306 26.1346 6.33039 0.69453 0 0 1.00067 2.47187e-05
308 25.5869 6.54066 1.65162 0 0 1.00067 2.81514e-05
309 26.8835 5.37649 0.643489 0 0 1.00068 2.00201e-05
312 27.0984 6.27842 1.46935 0 0 1.00067 2.15169e-05
310 27.876 5.90729 0.712084 0 0 1.00067 1.77054e-05
389 27.1709 6.79909 0.6399 0 0 1.00067 2.20251e-05
391 28.0887 6.83558 1.37294 0 0 1.00067 1.87675e-05
316 28.7278 5.83014 1.46611 0 0 1.00068 1.53465e-05
314 29.7084 5.52741 0.813434 0 0 1.00068 1.15658e-05
395 29.7901 6.422 1.31715 0 0 1.00068 1.22982e-05
393 28.847 6.52239 0.652816 0 0 1.00067 1.57227e-05
16355 29.7241 6.36806 0.0754631 0 0 1.00067 1.2622e-05
16276 28.8206 5.68478 0.044776 0 0 1.00067 1.43046e-05
318 31.276 5.44679 0.591304 0 0 1.00067 7.4032e-06
320 30.5396 5.60344 1.45051 0 0 1.00068 9.26711e-06
397 30.7247 6.32523 0.638815 0 0 1.00067 9.20018e-06
399 31.5457 6.21635 1.37962 0 0 1.00067 6.84194e-06
398 31.5522 7.01022 0.606289 0 0 1.00067 6.52711e-06
401 0.622547 7.62496 0.64897 0 0 1.00067 7.3642e-06
402 1.21553 8.39281 0.599222 0 0 1.00068 9.73141e-06
403 1.47085 7.73995 1.48086 0 0 1.00067 1.07339e-05
404 0.713271 8.52505 1.46126 0 0 1.00067 7.65083e-06
478 0.0360646 8.65837 0.395779 0 0 1.00067 5.1525e-06
405 1.96748 7.61531 0.383093 0 0 1.00067 1.22329e-05
408 2.11037 8.43526 1.45568 0 0 1.00068 1.38292e-05
406 2.59396 8.39708 0.39571 0 0 1.00068 1.56794e-05
407 2.79081 7.5784 1.2781 0 0 1.00068 1.59963e-05
412 3.43821 8.21215 0.936268 0 0 1.00068 1.9711e-05
409 3.64986 7.45257 0.328379 0 0 1.00068 1.92848e-05
410 4.25102 8.09054 0.0653532 0 0 1.00068 2.29169e-05
411 4.4204 7.27177 1.20789 0 0 1.00068 2.2212e-05
491 4.36036 8.70255 0.851143 0 0 1.00068 2.4611e-05
413 5.14009 7.24979 0.227716 0 0 1.00068 2.48407e-05
1333 5.14916 8.58519 1.62748 0 0 1.00068 2.95515e-05
416 5.16215 7.84079 0.943146 0 0 1.00068 2.69996e-05
414 6.37486 7.85754 0.191073 0 0 1.00068 3.19858e-05
415 5.97147 7.12078 1.0017 0 0 1.00068 2.8267e-05
495 5.80993 8.46833 0.638789 0 0 1.00068 3.14859e-05
1337 6.67928 8.50652 1.2429 0 0 1.00068 3.72428e-05
420 6.94133 7.66578 1.0471 0 0 1.00068 3.44064e-05
417 7.01689 7.07551 0.150052 0 0 1.00067 3.28094e-05
419 7.86391 7.22234 0.73352 0 0 1.00067 3.694e-05
1258 7.86224 7.58487 1.68334 0 0 1.00068 3.91676e-05
499 7.71683 8.30673 0.719957 0 0 1.00068 4.01647e-05
421 8.60063 7.10624 0.0115761 0 0 1.00067 3.88114e-05
424 8.8763 7.76281 0.867158 0 0 1.00067 4.35674e-05
423 9.55624 7.11415 0.665583 0 0 1.00067 4.21516e-05
1262 9.73644 8.0906 1.4327 0 0 1.00067 5.01531e-05
501 8.70108 8.46534 0.0764256 0 0 1.00068 4.55063e-05
1341 8.64852 8.55488 1.38714 0 0 1.00067 4.73514e-05
1265 10.3948 7.34896 1.58433 0 0 1.00067 4.82467e-05
428 10.4304 8.0877 0.697064 0 0 1.00067 5.14997e-05
427 11.304 7.46485 0.82854 0 0 1.00067 5.01865e-05
1266 11.3371 8.23467 1.43249 0 0 1.00067 5.72435e-05
426 11.1252 8.36056 0.0144674 0 0 1.00067 5.48226e-05
429 11.9752 7.69211 0.0369592 0 0 1.00067 5.28098e-05
432 12.1093 8.3984 0.724474 0 0 1.00067 5.87593e-05
1269 12.17 7.40635 1.57829 0 0 1.00067 5.40148e-05
431 12.9614 7.86975 0.60114 0 0 1.00067 5.59177e-05
1270 12.8925 8.30909 1.50627 0 0 1.00067 6.19976e-05
1273 13.6875 7.73087 1.47974 0 0 1.00067 5.90695e-05
435 14.4442 7.92723 0.50844 0 0 1.00067 5.84435e-05
1194 14.3282 7.13371 1.37992 0 0 1.00068 5.24336e-05
1274 14.5485 8.68505 1.57052 0 0 1.00068 6.87122e-05
436 13.7849 8.66704 0.782171 0 0 1.00067 6.45915e-05
360 15.1314 7.25143 0.631701 0 0 1.00068 5.33209e-05
1277 15.1415 8.03463 1.3749 0 0 1.00068 6.14833e-05
364 16.4656 7.35008 0.885887 0 0 1.00068 5.26087e-05
439 15.959 8.2687 0.874536 0 0 1.00068 6.20482e-05
1198 16.0132 7.52805 1.66293 0 0 1.00068 5.79013e-05
441 16.6868 8.37756 0.149575 0 0 1.00068 6.14029e-05
443 17.1416 8.29545 1.09799 0 0 1.00068 6.18273e-05
362 17.2592 7.33713 0.296266 0 0 1.00067 5.22607e-05
368 17.8346 7.55861 1.10468 0 0 1.00067 5.47192e-05
445 17.889 8.35078 0.304458 0 0 1.00068 6.08677e-05
447 18.5543 8.35857 1.03907 0 0 1.00067 5.94767e-05
366 18.6221 7.48608 0.231111 0 0 1.00068 5.20448e-05
372 19.0725 7.40805 1.16251 0 0 1.00067 5.25215e-05
370 19.787 7.74549 0.622619 0 0 1.00067 5.15324e-05
451 19.7465 8.6077 1.18908 0 0 1.00067 6.02276e-05
449 19.252 8.58651 0.209433 0 0 1.00067 5.81157e-05
375 21.4508 7.12384 1.3118 0 0 1.00067 4.47033e-05
373 20.7005 7.19875 0.609533 0 0 1.00067 4.59523e-05
453 20.5517 8.63553 0.378531 0 0 1.00067 5.66759e-05
376 20.644 8.155 1.3236 0 0 1.00067 5.41542e-05
374 21.4062 7.99334 0.63998 0 0 1.00067 4.94611e-05
377 22.2781 7.21378 0.677706 0 0 1.00067 4.19793e-05
379 23.2227 7.2544 1.21135 0 0 1.00067 3.96436e-05
380 22.2284 8.25743 1.14759 0 0 1.00067 4.8576e-05
378 22.9776 8.06206 0.392786 0 0 1.00067 4.34263e-05
383 24.845 7.12816 1.1811 0 0 1.00067 3.25545e-05
381 23.9101 7.32298 0.289926 0 0 1.00067 3.67143e-05
384 24.0256 7.93166 1.07801 0 0 1.00067 3.89434e-05
461 24.048 8.70609 0.360975 0 0 1.00067 4.12039e-05
463 24.8867 8.71702 1.00766 0 0 1.00067 3.7952e-05
382 24.8503 7.89311 0.291257 0 0 1.00067 3.46405e-05
387 26.3198 7.10782 1.4115 0 0 1.00067 2.6682e-05
385 25.6372 7.23307 0.497987 0 0 1.00067 2.9023e-05
388 25.6307 7.95322 1.24594 0 0 1.00067 3.1846e-05
467 26.5063 8.55386 1.00147 0 0 1.00067 2.90487e-05
386 26.5381 7.76717 0.380569 0 0 1.00067 2.71651e-05
465 25.7245 8.6844 0.319548 0 0 1.00067 3.31722e-05
390 28.1183 7.39161 0.523397 0 0 1.00067 1.93415e-05
392 27.2411 7.58967 1.32951 0 0 1.00067 2.39547e-05
471 28.2219 8.23741 1.21329 0 0 1.00067 2.03359e-05
469 27.4342 8.25064 0.435944 0 0 1.00067 2.3681e-05
394 29.9408 7.15563 0.509641 0 0 1.00067 1.22033e-05
396 29.0314 7.41675 1.23321 0 0 1.00067 1.59077e-05
474 29.9664 8.62342 0.538847 0 0 1.00067 1.25416e-05
475 29.8801 7.92887 1.28176 0 0 1.00067 1.27696e-05
473 29.0866 8.04825 0.418388 0 0 1.00067 1.59676e-05
400 30.6842 7.23863 1.18243 0 0 1.00067 9.30264e-06
479 31.6055 7.88279 1.29336 0 0 1.00067 6.45641e-06
480 30.792 8.64495 1.19082 0 0 1.00067 9.05582e-06
477 30.9919 7.99908 0.38811 0 0 1.00067 8.40188e-06
482 1.45369 10.1532 0.262866 0 0 1.00067 1.02073e-05
483 1.37698 9.25545 1.1916 0 0 1.00068 1.03216e-05
484 0.595561 9.91866 0.907711 0 0 1.00067 6.64893e-06
481 0.713102 9.30667 0.125929 0 0 1.00067 7.67087e-06
1322 1.16051 10.0315 1.74388 0 0 1.00068 9.16314e-06
485 2.11382 9.25893 0.435905 0 0 1.00067 1.37156e-05
488 2.16782 10.136 0.972617 0 0 1.00068 1.36638e-05
486 2.94494 9.97256 0.0785605 0 0 1.00068 1.76278e-05
487 2.7556 9.17403 1.2033 0 0 1.00067 1.6773e-05
1326 3.13121 9.89781 1.66336 0 0 1.00067 1.91353e-05
489 3.46433 9.02523 0.0942502 0 0 1.00068 2.00977e-05
1329 3.62937 8.8879 1.66662 0 0 1.00068 2.14431e-05
492 3.75932 9.66631 0.743109 0 0 1.00067 2.18689e-05
1330 4.54939 9.50382 1.58392 0 0 1.00067 2.72391e-05
1409 3.90558 10.3919 1.44002 0 0 1.00067 2.33751e-05
571 4.47609 10.458 0.527838 0 0 1.00068 2.62564e-05
496 5.02968 9.51127 0.568796 0 0 1.00068 2.92939e-05
1334 5.80538 9.29877 1.17947 0 0 1.00068 3.37182e-05
575 5.83637 10.1521 0.445522 0 0 1.00068 3.46946e-05
1413 5.21252 10.2826 1.46048 0 0 1.00068 3.19464e-05
500 6.72997 9.22581 0.509537 0 0 1.00068 3.8288e-05
1417 6.73093 9.91936 1.19505 0 0 1.00067 4.06171e-05
1338 7.70692 9.12529 1.18807 0 0 1.00068 4.46017e-05
1421 8.24953 9.96999 1.33575 0 0 1.00067 5.10416e-05
579 7.44751 10.0346 0.466272 0 0 1.00068 4.49498e-05
504 8.55251 9.31429 0.57065 0 0 1.00068 4.89571e-05
503 9.58004 8.84128 0.711093 0 0 1.00067 5.23149e-05
1342 9.37631 9.56084 1.39629 0 0 1.00067 5.59447e-05
583 9.35347 10.2345 0.670293 0 0 1.00067 5.73133e-05
508 10.288 9.70657 0.668375 0 0 1.00067 6.04802e-05
1345 10.5214 8.96861 1.40863 0 0 1.00067 5.8792e-05
507 11.1848 9.14209 0.666092 0 0 1.00067 6.09937e-05
1346 11.3546 9.60015 1.61549 0 0 1.00067 6.72344e-05
1425 10.2944 10.4361 1.37245 0 0 1.00068 6.68291e-05
587 11.0034 10.5245 0.669734 0 0 1.00068 6.86258e-05
512 11.9048 10.032 0.725207 0 0 1.00068 6.97371e-05
1349 12.1256 9.12877 1.34684 0 0 1.00067 6.61532e-05
511 12.8669 9.38825 0.692314 0 0 1.00067 6.86689e-05
1350 12.7645 10.094 1.58532 0 0 1.00067 7.70201e-05
510 12.506 10.2436 0.0292071 0 0 1.00067 7.2491e-05
1353 13.4357 9.25819 1.61572 0 0 1.00067 7.30142e-05
516 13.5841 10.1433 0.948717 0 0 1.00067 7.64655e-05
515 14.3565 9.47876 0.85511 0 0 1.00067 7.21625e-05
1354 14.3425 10.1832 1.70201 0 0 1.00067 8.25925e-05
514 14.1722 10.4112 0.0320625 0 0 1.00067 7.96048e-05
517 15.0794 9.97452 0.218305 0 0 1.00067 7.68503e-05
440 15.2976 9.07131 0.787949 0 0 1.00068 6.91099e-05
519 15.9676 9.87131 1.02291 0 0 1.00067 7.73106e-05
521 16.4929 10.2219 0.233908 0 0 1.00067 7.79888e-05
438 16.0963 9.20541 0.131949 0 0 1.00068 6.88177e-05
444 16.7567 9.2501 1.13471 0 0 1.00067 7.10046e-05
523 17.3226 10.1549 0.97558 0 0 1.00067 7.80485e-05
442 17.3176 9.24313 0.265829 0 0 1.00068 6.86346e-05
448 17.9445 9.30687 1.11062 0 0 1.00067 6.92232e-05
525 17.9616 10.3052 0.189354 0 0 1.00068 7.58577e-05
527 18.5663 10.2297 1.08095 0 0 1.00067 7.46298e-05
446 18.5682 9.44805 0.122609 0 0 1.00068 6.67642e-05
452 19.1265 9.33866 0.958672 0 0 1.00067 6.7154e-05
529 19.3575 10.22 0.312826 0 0 1.00067 7.12549e-05
1369 19.4591 10.0965 1.72121 0 0 1.00067 7.46189e-05
450 20 9.46939 0.225857 0 0 1.00067 6.39899e-05
531 20.2245 10.4618 0.890157 0 0 1.00067 6.91033e-05
455 21.3915 9.00955 1.05289 0 0 1.00067 5.63554e-05
456 20.5901 9.53264 1.04999 0 0 1.00068 6.29245e-05
533 20.7184 10.39 0.0699478 0 0 1.00067 6.55602e-05
535 21.6085 10.4858 0.801093 0 0 1.00068 6.23956e-05
1373 20.9606 10.3226 1.68387 0 0 1.00068 6.86571e-05
454 21.4703 9.68261 0.211761 0 0 1.00067 5.80554e-05
459 23.2081 8.83564 1.0191 0 0 1.00067 4.69264e-05