LAMMPS data file via write_data, version 29 Oct 2020, timestep = 10000

400 atoms
2 atom types

0.0 10.0 xlo xhi
0.0 10.0 ylo yhi
-0.05 0.05 zlo zhi

Masses

1 0.25
2 0.25

Atoms # rheo

3 1 1.004459298096351 1.0 0 0.5669763033216587 0.8934665735215362 0.0 0 0 0
8 1 1.0043997957402206 1.0 0 0.04861406929271567 1.044923962504389 0.0 0 0 0
2 1 1.004339554907879 1.0 0 0.227304515925649 0.3720729254242326 0.0 0 0 0
98 1 1.0042743106702048 1.0 0 0.9883865618869025 0.6111611493341869 0.0 0 1 0
4 1 1.0042804037871869 1.0 0 0.9953146687360294 1.2011005206298377 0.0 0 0 0
97 1 1.0043690201164024 1.0 0 0.7060644140077468 0.2728925793092726 0.0 0 1 0
99 1 1.0042394880723802 1.0 0 1.3994357609711012 0.8172458171295724 0.0 0 1 0
100 1 1.0041414465811491 1.0 0 1.9186609497685592 1.0147646714911946 0.0 0 1 0
191 1 1.0043441026600688 1.0 0 2.4504711909331274 0.672164442465534 0.0 0 1 0
95 1 1.0041984453497594 1.0 0 2.116947387851913 0.5321601893485486 0.0 0 1 0
94 1 1.0038568067065385 1.0 0 1.6652184940154007 0.36745936635453685 0.0 0 1 0
93 1 1.0036529516214787 1.0 0 1.387364143549367 0.15139593756618458 0.0 0 1 0
192 1 1.004448762700416 1.0 0 2.9517546298437565 0.623037357048158 0.0 0 1 0
197 1 1.0043814921923602 1.0 0 3.1481352390643758 1.1574506622891203 0.0 0 1 0
196 1 1.0042678337940378 1.0 0 2.529801015849762 1.0964671688737087 0.0 0 1 0
198 1 1.00376739108517 1.0 0 3.7368333325322745 0.9236606031151215 0.0 0 1 0
193 1 1.004258583133917 1.0 0 3.344881541948509 0.5123103172491039 0.0 0 1 0
194 1 1.0040037202775438 1.0 0 3.7390691855733755 0.30812641931761336 0.0 0 1 0
103 1 1.0036745308024744 1.0 0 4.057035754492303 1.2580972833032726 0.0 0 0 0
104 1 1.003601300785731 1.0 0 4.476548824146023 0.9293089910829856 0.0 0 0 0
105 1 1.003955400263198 1.0 0 4.824400484027626 0.48035611321761856 0.0 0 0 0
109 1 1.0040327645591052 1.0 0 4.879215461045276 1.051544125349944 0.0 0 0 0
199 1 1.0036786074848747 1.0 0 4.099541685438313 0.6982508804108187 0.0 0 1 0
200 1 1.0039120953590956 1.0 0 4.396581242359533 0.22747408075725414 0.0 0 1 0
9 1 1.004424856740365 1.0 0 0.5872779038835905 1.4165652343762491 0.0 0 0 0
19 1 1.0045108992721627 1.0 0 0.22347697918642478 1.933147557279578 0.0 0 0 0
155 1 1.0040113737313159 1.0 0 4.724328371744509 4.441626620230765 0.0 0 0 0
14 1 1.0044787574337992 1.0 0 0.3252823505021278 1.625650283519114 0.0 0 0 0
29 1 1.004326465147316 1.0 0 0.03999804417954492 2.489017000607076 0.0 0 0 0
20 1 1.0045745073043886 1.0 0 1.0140411940738276 2.036660214520308 0.0 0 0 0
25 1 1.0045670129454047 1.0 0 1.0954562808699242 2.2993278849002925 0.0 0 0 0
5 1 1.0042702675877926 1.0 0 1.6539705812988599 1.352449157227428 0.0 0 0 0
101 1 1.004179303666497 1.0 0 2.3609560774489355 1.47385325434585 0.0 0 0 0
10 1 1.0043637384198656 1.0 0 1.533986624796706 1.597825635760837 0.0 0 0 0
15 1 1.0045750322724671 1.0 0 1.3235831081464737 1.8370949688615676 0.0 0 0 0
121 1 1.0030488718711807 1.0 0 2.0462355123222222 2.2822868765804434 0.0 0 0 0
116 1 1.0029160542237125 1.0 0 2.167730968218196 2.1168889907376975 0.0 0 0 0
102 1 1.0043915657176161 1.0 0 3.299526850707079 1.373668543430592 0.0 0 0 0
106 1 1.0039062093125615 1.0 0 2.5241868764516244 1.7501442468886552 0.0 0 0 0
107 1 1.0043159422930545 1.0 0 3.404438119465011 1.696434816139483 0.0 0 0 0
111 1 1.0036242547909555 1.0 0 2.640579571159033 1.908200419795961 0.0 0 0 0
112 1 1.0041881852994126 1.0 0 3.4646564855194155 1.95970932283357 0.0 0 0 0
126 1 1.0032046056288508 1.0 0 2.8775117294813293 2.4513896179538364 0.0 0 0 0
117 1 1.0041475590109845 1.0 0 3.8772060282924437 2.059531003854179 0.0 0 0 0
122 1 1.0039562231284218 1.0 0 3.9434919983791548 2.2762046900635147 0.0 0 0 0
108 1 1.004277253067056 1.0 0 4.337247556990293 1.5003401252696187 0.0 0 0 0
127 1 1.003714819404824 1.0 0 4.247509259920186 2.4287003623200816 0.0 0 0 0
113 1 1.0044617545794274 1.0 0 4.593499004501845 1.6852839576003988 0.0 0 0 0
118 1 1.0041400849542734 1.0 0 4.8930912011097405 1.9154388133591596 0.0 0 0 0
123 1 1.0039896027464406 1.0 0 4.96346372110959 2.1711703220249263 0.0 0 0 0
154 1 1.0038206145646564 1.0 0 4.461069432300577 4.1173038835971365 0.0 0 0 0
34 1 1.004293114566711 1.0 0 0.06647027574777048 2.8746968193250653 0.0 0 0 0
39 1 1.0043289651888345 1.0 0 0.22893814829934694 3.0828224247786604 0.0 0 0 0
44 1 1.0043396320844706 1.0 0 0.4947250168344602 3.3518537054980992 0.0 0 0 0
30 1 1.0042284455670303 1.0 0 0.779552824673813 2.5426783062121956 0.0 0 0 0
49 1 1.0044019936918274 1.0 0 0.6812564454303118 3.5669215854342813 0.0 0 0 0
40 1 1.0039327594733738 1.0 0 1.163359236977657 2.8957044230113187 0.0 0 0 0
141 1 1.004088975404129 1.0 0 2.383505639152157 2.971096840326213 0.0 0 0 0
35 1 1.0038866930607684 1.0 0 1.3727313919932294 2.697566340909473 0.0 0 0 0
136 1 1.0037192421208627 1.0 0 2.276117963275848 2.804335574065359 0.0 0 0 0
45 1 1.0040346975866867 1.0 0 1.328519474076851 3.146015696100781 0.0 0 0 0
50 1 1.0040834731046318 1.0 0 1.590217692073194 3.279245172560898 0.0 0 0 0
146 1 1.0041262278701653 1.0 0 2.4220763280343074 3.2397394324697943 0.0 0 0 0
55 1 1.0042807920611323 1.0 0 1.738428409468455 3.5928790668917965 0.0 0 0 0
131 1 1.0030684170521929 1.0 0 2.6410066944710895 2.571827342818307 0.0 0 0 0
132 1 1.0041970595024596 1.0 0 3.6735960556365614 2.6887305830992196 0.0 0 0 0
142 1 1.003986769431611 1.0 0 3.3916797554409728 3.006230301120051 0.0 0 0 0
147 1 1.0044732571096737 1.0 0 3.507865427005054 3.303131468246315 0.0 0 0 0
151 1 1.0042329453514216 1.0 0 2.513548237906062 3.5450507930826753 0.0 0 0 0
152 1 1.0044547601182312 1.0 0 3.168647081390861 3.4824267102787294 0.0 0 0 0
137 1 1.0041103299411305 1.0 0 3.8669569137910083 2.862935750721198 0.0 0 0 0
148 1 1.0040165032651807 1.0 0 4.281360652332971 3.488483824950999 0.0 0 0 0
143 1 1.0041259800085534 1.0 0 4.513414730678122 3.2578036809788258 0.0 0 0 0
133 1 1.0042575178368427 1.0 0 4.901428626043866 2.787539483111955 0.0 0 0 0
138 1 1.0042553777189591 1.0 0 4.802628337443787 3.0499320431390124 0.0 0 0 0
48 1 1.003945998630396 1.0 0 0.14028463530736837 3.9698627359491163 0.0 0 0 0
52 1 1.0038142918200947 1.0 0 0.24528516849689225 4.5884936961691905 0.0 0 0 0
53 1 1.0041043160009753 1.0 0 0.5368701628979998 4.188610780976899 0.0 0 0 0
58 1 1.004122030003687 1.0 0 1.0516147485442926 4.39489119718013 0.0 0 0 0
54 1 1.0044352926310467 1.0 0 1.0099115138874917 3.8518058515952744 0.0 0 0 0
57 1 1.003994383419801 1.0 0 0.6792977784449387 4.800068797617506 0.0 0 0 0
65 1 1.0042155164619282 1.0 0 2.064840438095473 4.35969545193957 0.0 0 0 0
59 1 1.0041968418615221 1.0 0 1.3856696653522482 4.074515140893934 0.0 0 0 0
60 1 1.0043060144457363 1.0 0 1.9001577483257375 3.9612810816957778 0.0 0 0 0
64 1 1.003864261023629 1.0 0 1.6295146658662978 4.603306204750678 0.0 0 0 0
161 1 1.0042773730203924 1.0 0 2.482877213120349 4.3787347305778 0.0 0 0 0
63 1 1.0036791667349743 1.0 0 1.3993777373914467 4.836715449570877 0.0 0 0 0
162 1 1.0041237530589224 1.0 0 2.9863630285735048 4.3900603323129435 0.0 0 0 0
156 1 1.004449991270392 1.0 0 2.5495541573564693 3.8696035495981334 0.0 0 0 0
157 1 1.0045055750292995 1.0 0 3.178365235964532 3.9069655070136307 0.0 0 0 0
158 1 1.004244876180291 1.0 0 3.6388448953501475 4.02222670452304 0.0 0 0 0
163 1 1.0039294366043767 1.0 0 3.3648326893024527 4.502730753717252 0.0 0 0 0
164 1 1.003830207873341 1.0 0 3.688807866218094 4.7319748494459475 0.0 0 0 0
159 1 1.0039107032231347 1.0 0 4.01947662804395 4.388585483027174 0.0 0 0 0
149 1 1.0035787269079164 1.0 0 4.862127130711119 3.828454859377426 0.0 0 0 0
160 1 1.0040296806563493 1.0 0 4.327413594034608 4.767372669743882 0.0 0 0 0
153 1 1.0041581133289654 1.0 0 4.017795357674739 3.7180758702384002 0.0 0 0 0
251 1 1.0042365454715294 1.0 0 4.942991386454311 4.97613821205292 0.0 0 0 0
166 1 1.0042792497167201 1.0 0 2.4725205151520764 4.962542285789959 0.0 0 0 0
167 1 1.0042434195198406 1.0 0 2.7970356147615387 4.989277237745877 0.0 0 0 0
56 1 1.0039691756655802 1.0 0 0.46069148137783167 5.194764264981556 0.0 0 0 0
62 1 1.0036859710393344 1.0 0 1.1227293293170169 5.119037171797279 0.0 0 0 0
61 1 1.0038189981838 1.0 0 0.9000218763365584 5.509508100825358 0.0 0 0 0
365 1 1.0040245246679738 1.0 0 0.7081617382970513 5.974612318269739 0.0 1 0 0
66 1 1.0039128841306209 1.0 0 1.1749503569082913 6.053408356876942 0.0 0 0 0
360 1 1.004379647404519 1.0 0 0.3096638994287279 5.670593326011772 0.0 1 0 0
67 1 1.0040706603485456 1.0 0 1.4659404094098971 5.761080524177408 0.0 0 0 0
69 1 1.004401310137051 1.0 0 1.9075115040130566 5.3387971435745785 0.0 0 0 0
70 1 1.0043037220871514 1.0 0 2.1406484168928612 5.0536716162474375 0.0 0 0 0
68 1 1.004212312931603 1.0 0 1.7138728455327692 5.5267189281193145 0.0 0 0 0
51 1 1.0037858116930838 1.0 0 0.009006000103269685 5.044833462838932 0.0 0 0 0
296 1 1.0039242422069536 1.0 0 4.504224746506938 9.826830381021894 0.0 0 0 0
168 1 1.0042451653359585 1.0 0 3.1288022641138236 5.1331014121817775 0.0 0 0 0
169 1 1.0043448710720293 1.0 0 3.3210122748070217 5.416341072280937 0.0 0 0 0
170 1 1.0042566485278224 1.0 0 3.4872578097936877 5.6948049042415825 0.0 0 0 0
171 1 1.0043021863858048 1.0 0 2.5093393694573325 5.774057633561626 0.0 0 0 0
172 1 1.0039145801989395 1.0 0 2.7533338987810323 5.89120708814977 0.0 0 0 0
165 1 1.0039331005680703 1.0 0 3.865253944917769 5.103771541389302 0.0 0 0 0
256 1 1.0041172869999848 1.0 0 4.457913437694144 5.198572703329322 0.0 0 0 0
261 1 1.0038838783959276 1.0 0 4.106579890710921 5.545965227157181 0.0 0 0 0
262 1 1.003686702859451 1.0 0 4.293710675236745 5.946167258758261 0.0 0 0 0
266 1 1.0038653064554526 1.0 0 3.803191845627892 6.021195836294127 0.0 0 0 0
257 1 1.0040123884136412 1.0 0 4.725290113484725 5.65625126549815 0.0 0 0 0
379 1 1.0040288958254582 1.0 0 0.5114477553610819 7.4650580174258945 0.0 1 0 0
375 1 1.0044110884135282 1.0 0 1.0440675080022437 6.912778073672906 0.0 1 0 0
370 1 1.0038887478702279 1.0 0 0.8904549216347056 6.401564643755872 0.0 1 0 0
374 1 1.003942953338701 1.0 0 0.4997153209596617 7.035909286101893 0.0 1 0 0
369 1 1.0039151923045617 1.0 0 0.4724753675904618 6.751191437040705 0.0 1 0 0
364 1 1.0042083833953808 1.0 0 0.23250734023797356 6.307828452474583 0.0 1 0 0
71 1 1.0044628948031127 1.0 0 1.4334135165246995 6.81029426252293 0.0 0 0 0
72 1 1.004510687810218 1.0 0 1.6431947697339604 6.634141158968588 0.0 0 0 0
73 1 1.0047320946474216 1.0 0 1.8727399781498442 6.380927857778754 0.0 0 0 0
74 1 1.0048995124223261 1.0 0 2.1408737696343545 6.467031780581892 0.0 0 0 0
75 1 1.0049305026281954 1.0 0 2.341684796708274 6.227697856297289 0.0 0 0 0
80 1 1.00312093800252 1.0 0 2.387788111280409 7.206633605991477 0.0 0 0 0
77 1 1.0046805501501284 1.0 0 1.7219499436367243 7.485962470418781 0.0 0 0 0
173 1 1.0044151376076265 1.0 0 2.927419567115768 6.218371934412459 0.0 0 0 0
177 1 1.0029834907526423 1.0 0 2.708918529737131 7.173687454995133 0.0 0 0 0
174 1 1.0044409248781445 1.0 0 3.1185784398556553 6.45568397074317 0.0 0 0 0
179 1 1.003413237363371 1.0 0 3.001100528361419 7.309584891097781 0.0 0 0 0
175 1 1.004361216721335 1.0 0 3.3064322518533817 6.591698686644125 0.0 0 0 0
271 1 1.0041834215942746 1.0 0 3.604198009398402 6.719137601459479 0.0 0 0 0
276 1 1.0040273784269746 1.0 0 3.5401371305581883 7.4498691635424255 0.0 0 0 0
277 1 1.0036999982947823 1.0 0 3.8408058824944167 7.4780619841179234 0.0 0 0 0
272 1 1.0036735477428762 1.0 0 3.954011394478994 6.887810709632067 0.0 0 0 0
267 1 1.0036083697891967 1.0 0 4.115704959376044 6.361868585968278 0.0 0 0 0
273 1 1.003641292420179 1.0 0 4.397990363053332 7.14449384530838 0.0 0 0 0
268 1 1.0038137211175284 1.0 0 4.466404241026269 6.733217389815044 0.0 0 0 0
263 1 1.0040431294548555 1.0 0 4.709347242761529 6.349396945783257 0.0 0 0 0
394 1 1.0038426479354448 1.0 0 0.1644920548535955 8.628050401779314 0.0 1 0 0
389 1 1.0039402238210797 1.0 0 0.42565166919643665 8.345893828136255 0.0 1 0 0
384 1 1.004037688572502 1.0 0 0.5254452920059234 7.963353776193099 0.0 1 0 0
385 1 1.0045453095161156 1.0 0 0.975585066489811 8.020964319037134 0.0 1 0 0
380 1 1.0046745179279304 1.0 0 1.0491417161802232 7.545564675943405 0.0 1 0 0
390 1 1.0043104905429159 1.0 0 0.870533513206282 8.681898558829973 0.0 1 0 0
81 1 1.004736616136403 1.0 0 1.3150787924133183 8.283911036731801 0.0 0 0 0
78 1 1.0043019087947915 1.0 0 2.0485988967379583 7.553861802580733 0.0 0 0 0
76 1 1.004805892955927 1.0 0 1.4823192757715193 7.613201009503274 0.0 0 0 0
82 1 1.0046750521437788 1.0 0 1.6074296848741592 8.473512794749917 0.0 0 0 0
83 1 1.004498126069726 1.0 0 1.8641371518336896 8.662179802880926 0.0 0 0 0
79 1 1.0035706482196403 1.0 0 2.206874504840425 7.744845020213029 0.0 0 0 0
84 1 1.0042817368077066 1.0 0 2.094789571078407 8.656306318723823 0.0 0 0 0
176 1 1.0030826815957563 1.0 0 2.541150707572069 7.898853656108216 0.0 0 0 0
181 1 1.0041493475869565 1.0 0 2.53727743082451 8.715534623729697 0.0 0 0 0
180 1 1.0039332515963102 1.0 0 3.2471248715228453 7.595778097881074 0.0 0 0 0
178 1 1.0032829793143874 1.0 0 2.8897700762531966 7.878138295659338 0.0 0 0 0
184 1 1.0044049488885405 1.0 0 3.229108454449338 8.729524298481593 0.0 0 0 0
185 1 1.0043671095881428 1.0 0 3.339191368875539 8.386117386415163 0.0 0 0 0
281 1 1.0043178267960824 1.0 0 3.6191581745793133 8.352105223733307 0.0 0 0 0
293 1 1.0040132248603166 1.0 0 4.824375226582228 8.614032266048557 0.0 0 0 0
278 1 1.0035886529377351 1.0 0 4.35808492331231 7.565589609717532 0.0 0 0 0
288 1 1.004102585444067 1.0 0 4.566410262362954 8.291505353603464 0.0 0 0 0
287 1 1.0042934200961482 1.0 0 4.099102088327932 8.64627305842461 0.0 0 0 0
282 1 1.0040186859066886 1.0 0 3.965116499239994 8.07322306851797 0.0 0 0 0
283 1 1.0037698431835969 1.0 0 4.358525085389906 7.901237647048724 0.0 0 0 0
400 1 1.0043596376059467 1.0 0 0.26486689035504096 9.32652884311036 0.0 1 0 0
86 1 1.0041757615557405 1.0 0 1.2116761737956045 9.031664331684516 0.0 0 0 0
395 1 1.0042494175322687 1.0 0 0.6074579199815195 9.054272448135286 0.0 1 0 0
96 1 1.0043126502961517 1.0 0 0.45652869827669246 9.831027309892976 0.0 0 0 0
91 1 1.0040441077691782 1.0 0 0.8728663247970532 9.509879154093767 0.0 0 0 0
92 1 1.0036559726518144 1.0 0 1.1456086172479245 9.806717753680623 0.0 0 0 0
85 1 1.003963790406364 1.0 0 2.359387689924192 8.92984176246587 0.0 0 0 0
87 1 1.0038210666698122 1.0 0 1.4940120819645684 9.296335038316757 0.0 0 0 0
88 1 1.0036033230756694 1.0 0 1.717028039968937 9.56085294676624 0.0 0 0 0
89 1 1.0038944277424524 1.0 0 2.0104538557320906 9.713943979594559 0.0 0 0 0
90 1 1.0041075777378148 1.0 0 2.1874366905884637 9.829085130409416 0.0 0 0 0
183 1 1.0042603119510205 1.0 0 2.9678280138138167 8.963665391358576 0.0 0 0 0
182 1 1.0040075487597466 1.0 0 2.760719717511947 9.158921261065418 0.0 0 0 0
189 1 1.0043258626691778 1.0 0 3.418365752560177 9.681564758914776 0.0 0 0 0
186 1 1.0043838256566688 1.0 0 2.5476192015323935 9.871462801945373 0.0 0 0 0
187 1 1.0043582779522895 1.0 0 2.825961449897491 9.96638517098725 0.0 0 0 0
188 1 1.004305069648804 1.0 0 3.1599908154896146 9.960201208322564 0.0 0 0 0
190 1 1.0042018921939173 1.0 0 3.5748713473772162 9.316607442033279 0.0 0 0 0
297 1 1.004090636741279 1.0 0 4.775618103481604 9.33018621539393 0.0 0 0 0
286 1 1.0041039084958907 1.0 0 3.8414960132339706 9.053531280994212 0.0 0 0 0
291 1 1.0040120959436665 1.0 0 4.19815315833208 9.505174656792446 0.0 0 0 0
292 1 1.0042853009871218 1.0 0 4.4378754930222915 9.054115896637516 0.0 0 0 0
195 1 1.0039578684861452 1.0 0 3.9250488740779073 9.90861251535518 0.0 0 0 0
115 1 1.0040425264960262 1.0 0 5.626691258114479 0.9693577806254304 0.0 0 0 0
211 1 1.0038445184325104 1.0 0 5.816406047081452 0.4249726716851222 0.0 0 0 0
212 1 1.0037905531766795 1.0 0 6.1549078222476465 0.10763420172995089 0.0 0 0 0
206 1 1.0038543856998408 1.0 0 5.46941436944059 0.2410161371668625 0.0 0 0 0
216 1 1.0039613744378875 1.0 0 6.17229598162202 0.9590080380758671 0.0 0 0 0
110 1 1.0040817465490801 1.0 0 5.213776379665269 0.5868135537829439 0.0 0 0 0
217 1 1.0041712413647688 1.0 0 6.448393360767219 0.6791398732178976 0.0 0 0 0
128 1 1.0039956778633161 1.0 0 5.059183968750942 2.4989652548192143 0.0 0 0 0
220 1 1.00409446016458 1.0 0 7.237885511839925 0.02895775705551333 0.0 0 0 0
218 1 1.0043915434884048 1.0 0 6.662317429440993 0.49917362805741217 0.0 0 0 0
219 1 1.0045566112006101 1.0 0 6.9485988591037815 0.31547650579274567 0.0 0 0 0
224 1 1.0043255551536994 1.0 0 7.081082192720369 1.1432851386699865 0.0 0 0 0
321 1 1.0040210972815735 1.0 0 7.521663744408822 0.7669981107174783 0.0 0 0 0
24 1 1.004301162983605 1.0 0 9.999133821602289 2.1693381384180515 0.0 -1 0 0
318 1 1.0047544098211494 1.0 0 8.120670135159356 0.2530781693699507 0.0 0 0 0
319 1 1.0046958424589294 1.0 0 8.316174509742414 0.4149457889168844 0.0 0 0 0
320 1 1.004106610096474 1.0 0 8.487222400079983 0.7852563151507868 0.0 0 0 0
322 1 1.0039784430676946 1.0 0 7.727394283796558 0.9707845326041067 0.0 0 0 0
11 1 1.003671746718642 1.0 0 9.120468956247699 0.6014234460336251 0.0 -1 0 0
12 1 1.0035337914653653 1.0 0 9.349220575672609 0.9309193800520232 0.0 -1 0 0
315 1 1.0043230221713466 1.0 0 8.903752261538598 0.21695549289744223 0.0 0 0 0
6 1 1.004124472041245 1.0 0 9.514602429206615 0.22481139808120099 0.0 -1 0 0
46 1 1.0036467712463462 1.0 0 9.590786122678503 4.867256076047218 0.0 -1 0 0
16 1 1.0034945318947388 1.0 0 8.793666746041168 1.062654568378568 0.0 -1 0 0
7 1 1.0040864434611732 1.0 0 9.796789264811366 0.6090038869647669 0.0 -1 0 0
114 1 1.0041309280902302 1.0 0 5.245171853571907 1.3680827350531939 0.0 0 0 0
125 1 1.0040117104278143 1.0 0 6.019169932428355 1.9026194837771115 0.0 0 0 0
120 1 1.0037452736153742 1.0 0 5.873782063030666 1.2875137000668824 0.0 0 0 0
124 1 1.0037506673824133 1.0 0 5.633277635473255 2.073937297204946 0.0 0 0 0
119 1 1.003646836639821 1.0 0 5.556143014661113 1.6938465565300325 0.0 0 0 0
221 1 1.004483999013951 1.0 0 6.377394532247759 1.6715797389602547 0.0 0 0 0
226 1 1.004444759567925 1.0 0 6.503485364996659 2.5020630404409663 0.0 0 0 0
222 1 1.0043344507448515 1.0 0 6.656229346220762 1.6484841023086303 0.0 0 0 0
223 1 1.0043125812133575 1.0 0 6.86988857671544 1.4145979691354231 0.0 0 0 0
225 1 1.0045413739803248 1.0 0 7.309879546156181 1.2833656967434903 0.0 0 0 0
229 1 1.0028030660261156 1.0 0 7.205276710057525 2.134601643448125 0.0 0 0 0
230 1 1.00266476101873 1.0 0 7.3462298580559855 2.218433277680733 0.0 0 0 0
323 1 1.0046926600409165 1.0 0 7.896320818856351 1.3156967532388857 0.0 0 0 0
328 1 1.0036844513699936 1.0 0 7.845594688837083 2.31412929138087 0.0 0 0 0
324 1 1.0047461978228192 1.0 0 8.057697007844068 1.6427556241417975 0.0 0 0 0
325 1 1.0047004009080125 1.0 0 8.325403436160185 1.559003454510789 0.0 0 0 0
21 1 1.0045922684948954 1.0 0 8.597071621739772 1.7314902709833457 0.0 -1 0 0
13 1 1.0040966317700468 1.0 0 9.706071076413211 1.3170339928791976 0.0 -1 0 0
22 1 1.0041722613912658 1.0 0 8.95809796824411 1.972676546195367 0.0 -1 0 0
17 1 1.003544515358981 1.0 0 9.089548622758606 1.3360792785211066 0.0 -1 0 0
18 1 1.0038962582166457 1.0 0 9.505336271555988 1.6248274949255228 0.0 -1 0 0
28 1 1.0039177960820083 1.0 0 9.398934028393414 2.473577993316101 0.0 -1 0 0
23 1 1.0038857877669243 1.0 0 9.34851468877599 2.1218573678368164 0.0 -1 0 0
139 1 1.0041431753764005 1.0 0 5.424834480053011 3.405914875918388 0.0 0 0 0
134 1 1.0044316645006637 1.0 0 5.566590483893688 2.9745258574836844 0.0 0 0 0
129 1 1.0042920368957324 1.0 0 5.719411645079706 2.544857332850852 0.0 0 0 0
140 1 1.0042251649653675 1.0 0 5.887336472486131 3.6698394718343623 0.0 0 0 0
130 1 1.0044853495568413 1.0 0 6.164207371029057 2.5698674506698778 0.0 0 0 0
135 1 1.004381905909328 1.0 0 6.0749363290269525 3.1478747908450178 0.0 0 0 0
144 1 1.0037383367329797 1.0 0 5.1373518902340924 3.6777359130796294 0.0 0 0 0
231 1 1.0043660319661463 1.0 0 6.360533381724564 3.326907017897309 0.0 0 0 0
227 1 1.0042021914091799 1.0 0 6.776103142994764 2.5465991555252487 0.0 0 0 0
228 1 1.0037875428478533 1.0 0 6.987112755827371 2.638529653626525 0.0 0 0 0
232 1 1.0044706587326544 1.0 0 6.701650465597549 3.4951923455939267 0.0 0 0 0
233 1 1.0045063141993922 1.0 0 6.902163329769592 3.519535035467385 0.0 0 0 0
326 1 1.003805346980348 1.0 0 7.45428192527623 3.0258241069284857 0.0 0 0 0
327 1 1.00303967681194 1.0 0 7.5952038935444115 2.7475047274238054 0.0 0 0 0
333 1 1.0038801054465503 1.0 0 7.967254145610414 3.662985600923276 0.0 0 0 0
329 1 1.0040603054894024 1.0 0 7.996954355659651 2.6728677675570305 0.0 0 0 0
334 1 1.0037625615929036 1.0 0 8.100841915099412 3.562386932686456 0.0 0 0 0
330 1 1.0044310361901407 1.0 0 8.281345789554182 2.615603855095521 0.0 0 0 0
335 1 1.0037308707016546 1.0 0 8.402410578997603 3.4893457576749602 0.0 0 0 0
26 1 1.0046231224807698 1.0 0 8.516250478473749 2.5430762143154224 0.0 -1 0 0
31 1 1.0038351762894366 1.0 0 8.64802656163441 3.4258963068275734 0.0 -1 0 0
38 1 1.0041555628983232 1.0 0 9.550321883062741 3.3169570884583837 0.0 -1 0 0
33 1 1.0040122645631195 1.0 0 9.381452309532783 2.9827981349119534 0.0 -1 0 0
37 1 1.003982324852037 1.0 0 9.168470932047029 3.6827996257946634 0.0 -1 0 0
27 1 1.0042754259030822 1.0 0 8.941382991265062 2.5601629811502575 0.0 -1 0 0
32 1 1.0040643167203291 1.0 0 8.90146580375345 3.130749829506128 0.0 -1 0 0
43 1 1.0039992029266729 1.0 0 9.855862696912144 3.640070052721916 0.0 -1 0 0
150 1 1.0040924316271955 1.0 0 5.189632589838615 4.341750568079147 0.0 0 0 0
236 1 1.0042053204532417 1.0 0 6.175271359359078 4.038217832830949 0.0 0 0 0
145 1 1.004057908478338 1.0 0 5.581806480364845 4.068874333253775 0.0 0 0 0
242 1 1.003743909831735 1.0 0 6.140861800348247 4.848802845993132 0.0 0 0 0
241 1 1.0040118685351342 1.0 0 5.790396091423269 4.480879066157228 0.0 0 0 0
246 1 1.0041907078987802 1.0 0 5.379046030225127 4.826499899573915 0.0 0 0 0
234 1 1.0045529876757182 1.0 0 7.079758972284662 3.859470562625081 0.0 0 0 0
235 1 1.004545672353027 1.0 0 7.350829344587299 3.929117072772745 0.0 0 0 0
237 1 1.00426439831573 1.0 0 6.449106908286303 4.299268703187825 0.0 0 0 0
238 1 1.0042111806709786 1.0 0 6.639442183938495 4.548293400590626 0.0 0 0 0
239 1 1.004477485191095 1.0 0 6.994811255763435 4.74232199994036 0.0 0 0 0
240 1 1.0043824949682514 1.0 0 7.208210766728652 4.927714454997943 0.0 0 0 0
331 1 1.004163083352535 1.0 0 7.609011667472405 4.133703841656238 0.0 0 0 0
332 1 1.0038212138024571 1.0 0 7.82393280659001 4.1039902753585125 0.0 0 0 0
336 1 1.0044993285643733 1.0 0 7.550461298385235 4.942038425348718 0.0 0 0 0
339 1 1.0044289680506908 1.0 0 8.406207146040197 4.539801453301418 0.0 0 0 0
41 1 1.003627037774208 1.0 0 9.19792084706013 4.4858158839109485 0.0 -1 0 0
338 1 1.0047927384713138 1.0 0 8.234599694313632 4.87309180670034 0.0 0 0 0
340 1 1.003503538516033 1.0 0 8.639839898080325 4.2876087361680355 0.0 0 0 0
42 1 1.0040288040982979 1.0 0 9.525527780128632 4.077799232247466 0.0 -1 0 0
345 1 1.0037708510585515 1.0 0 9.007736525114794 4.799577844562896 0.0 0 0 0
47 1 1.0038126508118619 1.0 0 9.778255896680287 4.411816159876526 0.0 -1 0 0
36 1 1.003260811091433 1.0 0 8.834216858067084 4.033101004124301 0.0 -1 0 0
252 1 1.0039642269840405 1.0 0 5.165470745101921 5.475039425035118 0.0 0 0 0
258 1 1.0041531646572717 1.0 0 5.015919297764476 6.0532991667467035 0.0 0 0 0
253 1 1.004023946354244 1.0 0 5.460177866129872 5.7866620905714505 0.0 0 0 0
248 1 1.0038297765870636 1.0 0 5.906710879925765 5.532706940837346 0.0 0 0 0
247 1 1.0039547724663875 1.0 0 5.590126896283319 5.164996432590041 0.0 0 0 0
254 1 1.0038990383361028 1.0 0 6.039844429112722 6.065265606613422 0.0 0 0 0
249 1 1.0036645779368114 1.0 0 6.309709198712313 5.828717997532497 0.0 0 0 0
250 1 1.0038438367278297 1.0 0 6.883521618422392 5.945612217823839 0.0 0 0 0
245 1 1.0040675589161914 1.0 0 7.063195334025836 5.57223757770817 0.0 0 0 0
244 1 1.003872069420219 1.0 0 6.6342823343392725 5.342963517996268 0.0 0 0 0
243 1 1.0037656324520097 1.0 0 6.2926167510289455 5.168364393272936 0.0 0 0 0
342 1 1.0037817566537557 1.0 0 8.019648795071047 5.64430884691874 0.0 0 0 0
346 1 1.004006054699763 1.0 0 7.571642238451725 6.039387770062234 0.0 0 0 0
347 1 1.0037393598863944 1.0 0 8.128753882873431 6.0404519196848465 0.0 0 0 0
348 1 1.0033813046001574 1.0 0 8.73399084862749 5.938989922975977 0.0 0 0 0
341 1 1.0039853378655206 1.0 0 7.546617817580161 5.572502916624545 0.0 0 0 0
343 1 1.00404719203654 1.0 0 8.439576017030424 5.486528102113809 0.0 0 0 0
344 1 1.0041856771349624 1.0 0 8.805937194018298 5.23197232915985 0.0 0 0 0
353 1 1.0034821138328942 1.0 0 8.95534760602961 6.265266890944558 0.0 0 0 0
359 1 1.0043278518146002 1.0 0 9.922615353286222 6.174337177552348 0.0 0 0 0
355 1 1.0041933630938442 1.0 0 9.835506532986708 5.506512680655964 0.0 0 0 0
354 1 1.0041040788140105 1.0 0 9.447228695103478 5.936880612361777 0.0 0 0 0
349 1 1.0038095156145501 1.0 0 9.134353801057118 5.656434460309025 0.0 0 0 0
350 1 1.0038742810301373 1.0 0 9.394195734013914 5.298441755047284 0.0 0 0 0
304 1 1.0039126864875418 1.0 0 9.490410738943433 9.12921906967011 0.0 0 -1 0
259 1 1.0045966211748225 1.0 0 5.591838302289376 6.329272849495504 0.0 0 0 0
269 1 1.0046226087285188 1.0 0 5.186322569166335 6.8741768500413185 0.0 0 0 0
274 1 1.0044775387656748 1.0 0 5.0516712384302345 7.14697759760701 0.0 0 0 0
264 1 1.0047666447766566 1.0 0 5.412378890331909 6.622090487244824 0.0 0 0 0
275 1 1.0043096507173155 1.0 0 5.885886639192567 7.250483444820068 0.0 0 0 0
280 1 1.004300032633182 1.0 0 6.098057203171913 7.457859141960342 0.0 0 0 0
255 1 1.004005458112087 1.0 0 6.662629540916624 6.3006196562418815 0.0 0 0 0
260 1 1.004327231366635 1.0 0 6.596065375772432 6.529908878340709 0.0 0 0 0
265 1 1.0045734508517528 1.0 0 6.23193650113184 6.740395555559675 0.0 0 0 0
270 1 1.0045380148639351 1.0 0 6.171660770451916 6.983282523252486 0.0 0 0 0
371 1 1.002629955482775 1.0 0 7.001588058514277 7.253048166553372 0.0 0 0 0
356 1 1.0046669490715627 1.0 0 7.350694143660365 6.6862555950811275 0.0 0 0 0
376 1 1.0024607159955712 1.0 0 7.032489760274333 7.452950655541356 0.0 0 0 0
361 1 1.0043188281317872 1.0 0 7.4276716028754395 6.881725460801035 0.0 0 0 0
351 1 1.0044837138764662 1.0 0 7.510345725268759 6.326749073518735 0.0 0 0 0
352 1 1.00418612632616 1.0 0 8.36046874976516 6.379006385604764 0.0 0 0 0
357 1 1.0044897299972322 1.0 0 8.31384978743134 6.670313774114812 0.0 0 0 0
362 1 1.0037996227784796 1.0 0 8.693776067179222 6.914780346783997 0.0 0 0 0
367 1 1.0038887031850756 1.0 0 8.397399454421201 7.133748491852067 0.0 0 0 0
366 1 1.00377049614983 1.0 0 7.593859593432563 7.136782611745045 0.0 0 0 0
377 1 1.0038085058094077 1.0 0 8.343968619391022 7.479454142402163 0.0 0 0 0
372 1 1.002947253171058 1.0 0 8.896444056811267 7.2823923102707155 0.0 0 0 0
358 1 1.0043623665452233 1.0 0 9.322282140788971 6.5202487527213995 0.0 0 0 0
363 1 1.0045444858734816 1.0 0 9.59144635902832 6.695576746107469 0.0 0 0 0
368 1 1.0043246620006028 1.0 0 9.711064075510743 7.011246138588771 0.0 0 0 0
373 1 1.004224889675702 1.0 0 9.668116738246955 7.237197659746381 0.0 0 0 0
378 1 1.0040464085047065 1.0 0 9.957034393590327 7.458075438334524 0.0 0 0 0
279 1 1.004305902839226 1.0 0 5.005260972763605 7.507074176601276 0.0 0 0 0
284 1 1.0043245770006985 1.0 0 5.184067080138569 7.787403936208713 0.0 0 0 0
289 1 1.0041823952986324 1.0 0 5.290822609634984 8.050597401327913 0.0 0 0 0
294 1 1.0041425399093749 1.0 0 5.427779249455972 8.25549593841212 0.0 0 0 0
299 1 1.0041891501087272 1.0 0 5.681540567157253 8.59660053741316 0.0 0 0 0
285 1 1.0042516995857367 1.0 0 6.124476251431258 7.713737431912615 0.0 0 0 0
396 1 1.004755343676184 1.0 0 7.3439029815481875 8.35499059771665 0.0 0 0 0
295 1 1.0044117265933 1.0 0 6.3527639353482 8.229496198028052 0.0 0 0 0
290 1 1.0042762870325452 1.0 0 6.190862843406263 7.985863771393759 0.0 0 0 0
386 1 1.003936959550947 1.0 0 7.222043693855352 7.814979391628776 0.0 0 0 0
391 1 1.0044271736759522 1.0 0 7.426910995855221 8.081087840582128 0.0 0 0 0
300 1 1.0046408324665488 1.0 0 6.6006173643141475 8.41335025257705 0.0 0 0 0
205 1 1.0045960931843576 1.0 0 6.697515382402066 8.676300603363705 0.0 0 -1 0
392 1 1.0048882530266836 1.0 0 8.279135441162788 8.012494525087147 0.0 0 0 0
381 1 1.0036325958655263 1.0 0 7.508111901309528 7.6328356245394495 0.0 0 0 0
397 1 1.0047033888087147 1.0 0 8.353011723353179 8.261049781382846 0.0 0 0 0
301 1 1.0043830838882417 1.0 0 7.60152852947454 8.627543087580964 0.0 0 -1 0
302 1 1.0041056919992335 1.0 0 8.346219633434657 8.572544942458444 0.0 0 -1 0
387 1 1.0037964747112926 1.0 0 8.833356575009935 7.881662487021863 0.0 0 0 0
382 1 1.0032272670063194 1.0 0 8.977127385330764 7.657475333248892 0.0 0 0 0
388 1 1.0044082855727696 1.0 0 9.68822951431438 8.034811884859483 0.0 0 0 0
393 1 1.004598957529645 1.0 0 9.486896154914568 8.248618006741163 0.0 0 0 0
383 1 1.0042167896398988 1.0 0 9.882523179369478 7.852875338022899 0.0 0 0 0
398 1 1.0045952734209334 1.0 0 9.300375297544942 8.573444861199937 0.0 0 0 0
298 1 1.0038377212968668 1.0 0 5.108120778704989 8.83911185039383 0.0 0 0 0
202 1 1.003923170306073 1.0 0 5.23132242236568 9.554410184041322 0.0 0 -1 0
203 1 1.0037456256606379 1.0 0 5.459302947675805 9.109423271774938 0.0 0 -1 0
208 1 1.0037319939610785 1.0 0 5.931071675152387 9.370142861917884 0.0 0 -1 0
204 1 1.004229392696024 1.0 0 6.003914660591907 8.903803832323305 0.0 0 -1 0
207 1 1.0037828057468379 1.0 0 5.641131287617896 9.757947649983517 0.0 0 -1 0
209 1 1.0039690865152853 1.0 0 6.334838610482191 9.214903123812505 0.0 0 -1 0
210 1 1.00392322050793 1.0 0 6.965263999989842 9.04327359415316 0.0 0 -1 0
311 1 1.0033842243687199 1.0 0 7.5345978075668905 9.346532501272618 0.0 0 -1 0
215 1 1.0034178436777683 1.0 0 7.045125832127148 9.45158009619828 0.0 0 -1 0
214 1 1.0037130179297555 1.0 0 6.695769426943143 9.588571542846601 0.0 0 -1 0
213 1 1.0038016795509774 1.0 0 6.318763650345854 9.812647052374345 0.0 0 -1 0
306 1 1.0038313539655037 1.0 0 7.588233988650598 9.001971661382425 0.0 0 -1 0
308 1 1.0036552248003896 1.0 0 8.708231541026555 9.059318479381412 0.0 0 -1 0