ITEM: TIMESTEP
6000
ITEM: NUMBER OF ATOMS
8000
ITEM: BOX BOUNDS pp pp pp
0.0000000000000000e+00 3.1748021039364001e+01
0.0000000000000000e+00 1.5874010519682001e+01
0.0000000000000000e+00 1.5874010519682001e+01
ITEM: ATOMS id x y z vx vy vz c_rho_peratom
1 6.97902e-17 -6.31565e-16 1.14193e-16 -3.37998e-17 -9.83467e-17 -8.08275e-18 1
2 0.793701 0.835536 -6.67024e-17 -4.4581e-08 0.00123759 8.03463e-19 1
3 0.793701 0.0418352 0.793701 -4.4581e-08 0.00123759 -4.35638e-18 1
4 8.15896e-17 0.793701 0.793701 -4.1751e-17 -1.28048e-16 -5.33978e-18 1
5 1.5874 0.0826351 -1.64355e-16 -8.43707e-08 0.00244471 -3.73084e-18 1
8 1.5874 0.876336 0.793701 -8.43707e-08 0.00244471 -1.45645e-18 1
43 3.32488e-17 1.5874 7.91616e-17 -4.32542e-17 -1.51106e-16 2.27289e-18 1
45 0.793701 1.62924 0.793701 -4.4581e-08 0.00123759 6.35851e-19 1
47 1.5874 1.67004 -2.7123e-16 -8.43707e-08 0.00244471 3.4118e-18 1
421 1.07345e-16 -6.4117e-16 1.5874 -2.30458e-17 -9.82974e-17 -6.43496e-18 1
422 0.793701 0.835536 1.5874 -4.4581e-08 0.00123759 -2.78492e-18 1
425 1.5874 0.0826351 1.5874 -8.43707e-08 0.00244471 -4.98826e-18 1
463 6.58086e-17 1.5874 1.5874 -4.20246e-17 -1.46163e-16 -2.731e-18 1
467 1.5874 1.67004 1.5874 -8.43707e-08 0.00244471 8.40733e-18 1
6 2.38111 0.915096 -3.7579e-16 -1.15211e-07 0.00359164 4.22122e-19 1
7 2.38111 0.121396 0.793701 -1.15211e-07 0.00359164 -5.52494e-18 1
9 3.17481 0.157163 -5.09369e-16 -1.33974e-07 0.00465013 -2.14656e-18 1
12 3.17481 0.950864 0.793701 -1.33974e-07 0.00465013 -1.62103e-18 1
49 2.38111 1.7088 0.793701 -1.15211e-07 0.00359164 2.61834e-18 1
51 3.17481 1.74456 -5.14156e-16 -1.33974e-07 0.00465013 5.75844e-19 1
426 2.38111 0.915096 1.5874 -1.15211e-07 0.00359164 -3.41165e-18 1
429 3.17481 0.157163 1.5874 -1.33974e-07 0.00465013 -7.80747e-18 1
471 3.17481 1.74456 1.5874 -1.33974e-07 0.00465013 1.21582e-17 1
10 3.96851 0.982759 -4.78777e-16 -1.39143e-07 0.00559412 1.55263e-19 1
11 3.96851 0.189059 0.793701 -1.39143e-07 0.00559412 -1.84728e-18 1
16 4.76221 1.01 0.793701 -1.31756e-07 0.00640036 -1.68607e-18 1
53 3.96851 1.77646 0.793701 -1.39143e-07 0.00559412 1.00313e-18 1
430 3.96851 0.982759 1.5874 -1.39143e-07 0.00559412 -1.75232e-18 1
433 4.76221 0.216297 1.5874 -1.31756e-07 0.00640036 -6.1689e-18 1
475 4.76221 1.8037 1.5874 -1.31756e-07 0.00640036 -3.50783e-18 1
15 5.55591 0.23821 0.793701 -1.13617e-07 0.00704901 -1.84909e-17 1
20 6.34961 1.04796 0.793701 -7.74113e-08 0.00752408 -2.95255e-17 1
57 5.55591 1.82561 0.793701 -1.13617e-07 0.00704901 -2.98153e-18 1
434 5.55591 1.03191 1.5874 -1.13617e-07 0.00704901 -1.0516e-17 1
437 6.34961 0.254258 1.5874 -7.74113e-08 0.00752408 -4.7733e-17 1
479 6.34961 1.84166 1.5874 -7.74113e-08 0.00752408 -4.96855e-18 1
19 7.14331 0.264047 0.793701 -1.01021e-08 0.00781389 -5.5408e-17 1
23 8.7307 0.264047 0.793701 1.01021e-08 0.00781389 -3.98891e-17 1
24 7.93701 1.06104 0.793701 -3.32042e-17 0.00791129 -3.11883e-17 1
61 7.14331 1.85145 0.793701 -1.01021e-08 0.00781389 -1.35162e-17 1
65 8.7307 1.85145 0.793701 1.01021e-08 0.00781389 -2.99754e-19 1
438 7.14331 1.05775 1.5874 -1.01021e-08 0.00781389 -3.37832e-17 1
441 7.93701 0.267337 1.5874 -2.96788e-17 0.00791129 -6.41038e-17 1
442 8.7307 1.05775 1.5874 1.01021e-08 0.00781389 -1.43365e-17 1
483 7.93701 1.85474 1.5874 -8.80663e-18 0.00791129 -4.19759e-19 1
27 10.3181 0.23821 0.793701 1.13617e-07 0.00704901 -2.9086e-17 1
28 9.5244 1.04796 0.793701 7.74113e-08 0.00752408 -1.35556e-17 1
69 10.3181 1.82561 0.793701 1.13617e-07 0.00704901 1.50397e-18 1
445 9.5244 0.254258 1.5874 7.74113e-08 0.00752408 -3.4398e-17 1
446 10.3181 1.03191 1.5874 1.13617e-07 0.00704901 -1.67658e-17 1
487 9.5244 1.84166 1.5874 7.74113e-08 0.00752408 1.60183e-18 1
30 11.9055 0.982759 -4.14898e-16 1.39143e-07 0.00559412 -4.8417e-18 1
31 11.9055 0.189059 0.793701 1.39143e-07 0.00559412 -9.1735e-18 1
32 11.1118 1.01 0.793701 1.31756e-07 0.00640036 -9.6991e-18 1
73 11.9055 1.77646 0.793701 1.39143e-07 0.00559412 -1.39136e-17 1
449 11.1118 0.216297 1.5874 1.31756e-07 0.00640036 -3.94238e-17 1
450 11.9055 0.982759 1.5874 1.39143e-07 0.00559412 -3.89767e-17 1
491 11.1118 1.8037 1.5874 1.31756e-07 0.00640036 -2.56969e-17 1
33 12.6992 0.157163 -4.19074e-16 1.33974e-07 0.00465013 8.6871e-18 1
34 13.4929 0.915096 -3.30869e-16 1.15211e-07 0.00359164 -8.41868e-18 1
35 13.4929 0.121396 0.793701 1.15211e-07 0.00359164 -5.4144e-18 1
36 12.6992 0.950864 0.793701 1.33974e-07 0.00465013 -1.00215e-17 1
75 12.6992 1.74456 -4.63182e-16 1.33974e-07 0.00465013 -9.70885e-18 1
77 13.4929 1.7088 0.793701 1.15211e-07 0.00359164 -1.80621e-17 1
453 12.6992 0.157163 1.5874 1.33974e-07 0.00465013 -4.44766e-17 1
454 13.4929 0.915096 1.5874 1.15211e-07 0.00359164 -2.94074e-17 1
495 12.6992 1.74456 1.5874 1.33974e-07 0.00465013 -3.63508e-17 1
37 14.2866 0.0826351 -1.90985e-16 8.43707e-08 0.00244471 -9.07705e-18 1
38 15.0803 0.835536 1.46937e-17 4.4581e-08 0.00123759 -1.21254e-17 1
39 15.0803 0.0418352 0.793701 4.4581e-08 0.00123759 -2.00802e-17 1
40 14.2866 0.876336 0.793701 8.43707e-08 0.00244471 -1.43145e-17 1
41 15.874 -1.9833e-16 1.56333e-16 1.80507e-17 -1.77189e-17 -1.66219e-17 1
42 15.874 0.793701 0.793701 3.94296e-17 -2.06795e-17 -2.49743e-17 1
79 14.2866 1.67004 -1.9628e-16 8.43707e-08 0.00244471 -9.04071e-18 1
81 15.0803 1.62924 0.793701 4.4581e-08 0.00123759 -1.07138e-17 1
83 15.874 1.5874 1.2062e-16 6.50756e-17 -3.85254e-17 -9.01995e-18 1
457 14.2866 0.0826351 1.5874 8.43707e-08 0.00244471 -2.97854e-17 1
458 15.0803 0.835536 1.5874 4.4581e-08 0.00123759 -2.24283e-17 1
461 15.874 -1.10593e-16 1.5874 1.05826e-17 -1.95635e-17 -3.03202e-17 1
499 14.2866 1.67004 1.5874 8.43707e-08 0.00244471 -2.5001e-17 1
503 15.874 1.5874 1.5874 4.94737e-17 -1.99154e-17 -2.64332e-17 1
44 0.793701 2.42294 -1.7413e-16 -4.4581e-08 0.00123759 5.92606e-18 1
46 2.49226e-17 2.3811 0.793701 -4.41166e-17 -1.34928e-16 1.45206e-18 1
50 1.5874 2.46374 0.793701 -8.43707e-08 0.00244471 6.55017e-18 1
85 4.3355e-17 3.1748 -5.05103e-17 -5.18428e-17 -1.23516e-16 1.44059e-17 1
87 0.793701 3.21664 0.793701 -4.4581e-08 0.00123759 3.23406e-18 1
89 1.5874 3.25744 -3.28663e-16 -8.43707e-08 0.00244471 7.54347e-18 1
464 0.793701 2.42294 1.5874 -4.4581e-08 0.00123759 4.68044e-18 1
505 3.54278e-17 3.1748 1.5874 -5.27791e-17 -1.21497e-16 -7.19553e-18 1
509 1.5874 3.25744 1.5874 -8.43707e-08 0.00244471 1.15495e-17 1
48 2.38111 2.5025 -4.3911e-16 -1.15211e-07 0.00359164 3.97342e-18 1
54 3.17481 2.53826 0.793701 -1.33974e-07 0.00465013 9.76868e-18 1
91 2.38111 3.2962 0.793701 -1.15211e-07 0.00359164 1.02469e-17 1
93 3.17481 3.33197 -4.84213e-16 -1.33974e-07 0.00465013 4.17847e-18 1
468 2.38111 2.5025 1.5874 -1.15211e-07 0.00359164 2.54471e-17 1
513 3.17481 3.33197 1.5874 -1.33974e-07 0.00465013 1.3912e-17 1
52 3.96851 2.57016 -4.25822e-16 -1.39143e-07 0.00559412 9.65379e-19 1
58 4.76221 2.5974 0.793701 -1.31756e-07 0.00640036 -1.56458e-19 1
95 3.96851 3.36386 0.793701 -1.39143e-07 0.00559412 4.6896e-18 1
472 3.96851 2.57016 1.5874 -1.39143e-07 0.00559412 7.76364e-18 1
517 4.76221 3.3911 1.5874 -1.31756e-07 0.00640036 -3.48029e-18 1
62 6.34961 2.63536 0.793701 -7.74113e-08 0.00752408 1.46936e-18 1
99 5.55591 3.41301 0.793701 -1.13617e-07 0.00704901 3.72433e-18 1
476 5.55591 2.61931 1.5874 -1.13617e-07 0.00704901 -2.77789e-19 1
521 6.34961 3.42906 1.5874 -7.74113e-08 0.00752408 5.80437e-18 1
66 7.93701 2.64844 0.793701 -6.82812e-18 0.00791129 5.24082e-18 1
103 7.14331 3.43885 0.793701 -1.01021e-08 0.00781389 6.4691e-18 1
107 8.7307 3.43885 0.793701 1.01021e-08 0.00781389 6.73393e-18 1
480 7.14331 2.64515 1.5874 -1.01021e-08 0.00781389 5.14672e-18 1
484 8.7307 2.64515 1.5874 1.01021e-08 0.00781389 8.20036e-18 1
525 7.93701 3.44214 1.5874 -6.29402e-19 0.00791129 9.37591e-18 1
70 9.5244 2.63536 0.793701 7.74113e-08 0.00752408 7.6456e-18 1
111 10.3181 3.41301 0.793701 1.13617e-07 0.00704901 3.18181e-18 1
488 10.3181 2.61931 1.5874 1.13617e-07 0.00704901 -6.86841e-18 1
529 9.5244 3.42906 1.5874 7.74113e-08 0.00752408 1.9099e-18 1
72 11.9055 2.57016 -4.68439e-16 1.39143e-07 0.00559412 -3.14615e-18 1
74 11.1118 2.5974 0.793701 1.31756e-07 0.00640036 -2.91032e-18 1
115 11.9055 3.36386 0.793701 1.39143e-07 0.00559412 -7.17647e-18 1
492 11.9055 2.57016 1.5874 1.39143e-07 0.00559412 -3.10044e-17 1
533 11.1118 3.3911 1.5874 1.31756e-07 0.00640036 -1.33352e-17 1
76 13.4929 2.5025 -3.60606e-16 1.15211e-07 0.00359164 -9.03419e-18 1
78 12.6992 2.53826 0.793701 1.33974e-07 0.00465013 -1.86622e-17 1
117 12.6992 3.33197 -4.97779e-16 1.33974e-07 0.00465013 -5.63455e-18 1
119 13.4929 3.2962 0.793701 1.15211e-07 0.00359164 -1.95718e-17 1
496 13.4929 2.5025 1.5874 1.15211e-07 0.00359164 -4.19019e-17 1
537 12.6992 3.33197 1.5874 1.33974e-07 0.00465013 -3.85019e-17 1
80 15.0803 2.42294 -5.97492e-17 4.4581e-08 0.00123759 -4.77142e-18 1
82 14.2866 2.46374 0.793701 8.43707e-08 0.00244471 -1.65741e-17 1
84 15.874 2.3811 0.793701 6.67959e-17 -3.6562e-17 -8.2245e-18 1
121 14.2866 3.25744 -2.18303e-16 8.43707e-08 0.00244471 -7.36209e-18 1
123 15.0803 3.21664 0.793701 4.4581e-08 0.00123759 -1.71106e-17 1
125 15.874 3.1748 7.82808e-17 5.14742e-17 -3.26948e-17 -2.09348e-18 1
500 15.0803 2.42294 1.5874 4.4581e-08 0.00123759 -1.99269e-17 1
541 14.2866 3.25744 1.5874 8.43707e-08 0.00244471 -3.85112e-17 1
545 15.874 3.1748 1.5874 6.46433e-17 -3.64388e-17 -1.25517e-17 1
86 0.793701 4.01034 -1.75796e-16 -4.4581e-08 0.00123759 2.29399e-17 1
88 5.30664e-17 3.9685 0.793701 -5.83972e-17 -1.09005e-16 4.12868e-18 1
92 1.5874 4.05114 0.793701 -8.43707e-08 0.00244471 2.56852e-18 1
127 2.83189e-17 4.7622 1.3953e-17 -6.37163e-17 -1.02525e-16 2.58167e-17 1
129 0.793701 4.80404 0.793701 -4.4581e-08 0.00123759 2.47859e-18 1
131 1.5874 4.84484 -2.5e-16 -8.43707e-08 0.00244471 1.4512e-17 1
506 0.793701 4.01034 1.5874 -4.4581e-08 0.00123759 -1.50216e-17 1
547 4.07125e-18 4.7622 1.5874 -6.78021e-17 -1.04299e-16 -1.87832e-17 1
551 1.5874 4.84484 1.5874 -8.43707e-08 0.00244471 -1.24155e-17 1
90 2.38111 4.0899 -3.89959e-16 -1.15211e-07 0.00359164 4.93747e-18 1
96 3.17481 4.12567 0.793701 -1.33974e-07 0.00465013 9.64821e-19 1
133 2.38111 4.8836 0.793701 -1.15211e-07 0.00359164 -3.25275e-18 1
135 3.17481 4.91937 -4.4646e-16 -1.33974e-07 0.00465013 3.53212e-18 1
510 2.38111 4.0899 1.5874 -1.15211e-07 0.00359164 2.07932e-18 1
555 3.17481 4.91937 1.5874 -1.33974e-07 0.00465013 -1.02162e-17 1
94 3.96851 4.15756 -4.27379e-16 -1.39143e-07 0.00559412 2.73093e-18 1
100 4.76221 4.1848 0.793701 -1.31756e-07 0.00640036 2.07112e-18 1
137 3.96851 4.95126 0.793701 -1.39143e-07 0.00559412 -5.09619e-18 1
514 3.96851 4.15756 1.5874 -1.39143e-07 0.00559412 -6.05998e-18 1
559 4.76221 4.9785 1.5874 -1.31756e-07 0.00640036 -5.76997e-18 1
104 6.34961 4.22276 0.793701 -7.74113e-08 0.00752408 6.22089e-18 1
141 5.55591 5.00041 0.793701 -1.13617e-07 0.00704901 2.69605e-18 1
518 5.55591 4.20671 1.5874 -1.13617e-07 0.00704901 3.42132e-19 1
563 6.34961 5.01646 1.5874 -7.74113e-08 0.00752408 9.1473e-19 1
108 7.93701 4.23584 0.793701 6.61196e-18 0.00791129 4.04714e-18 1
145 7.14331 5.02625 0.793701 -1.01021e-08 0.00781389 -1.5266e-18 1
149 8.7307 5.02625 0.793701 1.01021e-08 0.00781389 -1.34759e-17 1
522 7.14331 4.23255 1.5874 -1.01021e-08 0.00781389 7.57684e-18 1
526 8.7307 4.23255 1.5874 1.01021e-08 0.00781389 1.9942e-18 1
567 7.93701 5.02954 1.5874 8.18061e-18 0.00791129 -5.52063e-18 1
112 9.5244 4.22276 0.793701 7.74113e-08 0.00752408 1.05651e-18 1
153 10.3181 5.00041 0.793701 1.13617e-07 0.00704901 -1.55971e-18 1
530 10.3181 4.20671 1.5874 1.13617e-07 0.00704901 -7.65454e-18 1
571 9.5244 5.01646 1.5874 7.74113e-08 0.00752408 -1.08524e-17 1
114 11.9055 4.15756 -5.89265e-16 1.39143e-07 0.00559412 2.05799e-18 1
116 11.1118 4.1848 0.793701 1.31756e-07 0.00640036 -5.23789e-19 1
157 11.9055 4.95126 0.793701 1.39143e-07 0.00559412 -8.45335e-18 1
534 11.9055 4.15756 1.5874 1.39143e-07 0.00559412 -1.89675e-17 1
575 11.1118 4.9785 1.5874 1.31756e-07 0.00640036 -1.63904e-17 1
118 13.4929 4.0899 -4.06778e-16 1.15211e-07 0.00359164 -4.7549e-18 1
120 12.6992 4.12567 0.793701 1.33974e-07 0.00465013 -1.24977e-17 1
159 12.6992 4.91937 -6.11263e-16 1.33974e-07 0.00465013 5.455e-19 1
161 13.4929 4.8836 0.793701 1.15211e-07 0.00359164 -1.65196e-17 1
538 13.4929 4.0899 1.5874 1.15211e-07 0.00359164 -4.01052e-17 1
579 12.6992 4.91937 1.5874 1.33974e-07 0.00465013 -4.02059e-17 1
122 15.0803 4.01034 -7.89279e-17 4.4581e-08 0.00123759 -4.65849e-18 1
124 14.2866 4.05114 0.793701 8.43707e-08 0.00244471 -2.15274e-17 1
126 15.874 3.9685 0.793701 3.56595e-17 -3.27887e-17 -1.16812e-17 1
163 14.2866 4.84484 -2.72225e-16 8.43707e-08 0.00244471 1.65892e-18 1
165 15.0803 4.80404 0.793701 4.4581e-08 0.00123759 -1.61365e-17 1
167 15.874 4.7622 4.83389e-17 3.10225e-18 -4.59522e-17 8.1863e-18 1
542 15.0803 4.01034 1.5874 4.4581e-08 0.00123759 -2.94695e-17 1
583 14.2866 4.84484 1.5874 8.43707e-08 0.00244471 -4.08682e-17 1
587 15.874 4.7622 1.5874 3.0019e-17 -2.88464e-17 -1.72998e-17 1
128 0.793701 5.59774 -9.29778e-17 -4.4581e-08 0.00123759 2.16161e-17 1
130 -1.97472e-17 5.5559 0.793701 -5.42946e-17 -9.21996e-17 1.33999e-18 1
134 1.5874 5.63854 0.793701 -8.43707e-08 0.00244471 9.23569e-19 1
169 -1.74145e-17 6.3496 6.44781e-17 -4.41355e-17 -7.24624e-17 1.50853e-17 1
171 0.793701 6.39144 0.793701 -4.4581e-08 0.00123759 -1.19085e-18 1
173 1.5874 6.43224 -2.17946e-16 -8.43707e-08 0.00244471 -1.09441e-18 1
548 0.793701 5.59774 1.5874 -4.4581e-08 0.00123759 -2.00267e-17 1
589 -2.88873e-17 6.3496 1.5874 -4.57471e-17 -7.61783e-17 -1.22624e-17 1
593 1.5874 6.43224 1.5874 -8.43707e-08 0.00244471 -8.84507e-18 1
132 2.38111 5.6773 -3.50204e-16 -1.15211e-07 0.00359164 3.6207e-18 1
138 3.17481 5.71307 0.793701 -1.33974e-07 0.00465013 -7.56058e-18 1
175 2.38111 6.471 0.793701 -1.15211e-07 0.00359164 -5.5808e-18 1
177 3.17481 6.50677 -4.49946e-16 -1.33974e-07 0.00465013 -2.50559e-18 1
552 2.38111 5.6773 1.5874 -1.15211e-07 0.00359164 -8.17223e-18 1
597 3.17481 6.50677 1.5874 -1.33974e-07 0.00465013 -1.50646e-17 1
136 3.96851 5.74496 -4.68289e-16 -1.39143e-07 0.00559412 1.69224e-18 1
142 4.76221 5.7722 0.793701 -1.31756e-07 0.00640036 -1.85418e-18 1
179 3.96851 6.53866 0.793701 -1.39143e-07 0.00559412 -6.8139e-18 1
181 4.76221 6.5659 -5.48672e-16 -1.31756e-07 0.00640036 2.04383e-18 1
556 3.96851 5.74496 1.5874 -1.39143e-07 0.00559412 -1.06756e-17 1
601 4.76221 6.5659 1.5874 -1.31756e-07 0.00640036 -1.22817e-17 1
146 6.34961 5.81016 0.793701 -7.74113e-08 0.00752408 -1.59002e-17 1
183 5.55591 6.58781 0.793701 -1.13617e-07 0.00704901 -1.70528e-17 1
560 5.55591 5.79411 1.5874 -1.13617e-07 0.00704901 -7.39898e-18 1
605 6.34961 6.60386 1.5874 -7.74113e-08 0.00752408 -4.92767e-17 1
150 7.93701 5.82324 0.793701 2.13876e-17 0.00791129 -3.48502e-17 1
187 7.14331 6.61365 0.793701 -1.01021e-08 0.00781389 -5.21584e-17 1
191 8.7307 6.61365 0.793701 1.01021e-08 0.00781389 -6.21805e-17 1
564 7.14331 5.81995 1.5874 -1.01021e-08 0.00781389 -3.09721e-17 1
568 8.7307 5.81995 1.5874 1.01021e-08 0.00781389 -4.05076e-17 1
609 7.93701 6.61694 1.5874 1.04605e-17 0.00791129 -8.85393e-17 1
154 9.5244 5.81016 0.793701 7.74113e-08 0.00752408 -2.84994e-17 1
195 10.3181 6.58781 0.793701 1.13617e-07 0.00704901 -2.25827e-17 1
572 10.3181 5.79411 1.5874 1.13617e-07 0.00704901 -1.80656e-17 1
613 9.5244 6.60386 1.5874 7.74113e-08 0.00752408 -5.63663e-17 1
156 11.9055 5.74496 -5.78345e-16 1.39143e-07 0.00559412 7.45084e-18 1
158 11.1118 5.7722 0.793701 1.31756e-07 0.00640036 -5.58985e-18 1
199 11.9055 6.53866 0.793701 1.39143e-07 0.00559412 -3.15264e-17 1
576 11.9055 5.74496 1.5874 1.39143e-07 0.00559412 -4.19134e-17 1
617 11.1118 6.5659 1.5874 1.31756e-07 0.00640036 -2.97128e-17 1
160 13.4929 5.6773 -4.83079e-16 1.15211e-07 0.00359164 1.38136e-18 1
162 12.6992 5.71307 0.793701 1.33974e-07 0.00465013 -3.06656e-17 1
201 12.6992 6.50677 -6.06708e-16 1.33974e-07 0.00465013 -1.20799e-17 1
203 13.4929 6.471 0.793701 1.15211e-07 0.00359164 -4.43404e-17 1
580 13.4929 5.6773 1.5874 1.15211e-07 0.00359164 -5.83239e-17 1
621 12.6992 6.50677 1.5874 1.33974e-07 0.00465013 -6.57105e-17 1
164 15.0803 5.59774 -1.06993e-16 4.4581e-08 0.00123759 1.37619e-17 1
166 14.2866 5.63854 0.793701 8.43707e-08 0.00244471 -1.53231e-17 1
168 15.874 5.5559 0.793701 -4.81375e-18 -3.37654e-17 6.88757e-18 1
205 14.2866 6.43224 -2.4765e-16 8.43707e-08 0.00244471 5.52572e-18 1
207 15.0803 6.39144 0.793701 4.4581e-08 0.00123759 -2.04569e-18 1
209 15.874 6.3496 1.08284e-16 -2.14574e-17 -5.34262e-17 3.04226e-17 1
584 15.0803 5.59774 1.5874 4.4581e-08 0.00123759 -3.47743e-17 1
625 14.2866 6.43224 1.5874 8.43707e-08 0.00244471 -5.64924e-17 1
629 15.874 6.3496 1.5874 -5.33731e-21 -4.82453e-17 -1.61218e-17 1
170 0.793701 7.18514 -6.6815e-17 -4.4581e-08 0.00123759 3.47682e-19 1
172 8.81364e-18 7.1433 0.793701 -2.91241e-17 -6.80459e-17 -3.06202e-18 1
176 1.5874 7.22594 0.793701 -8.43707e-08 0.00244471 -1.41643e-17 1
211 -1.84798e-17 7.93701 6.59429e-17 -4.33037e-18 -4.69549e-17 -3.86097e-18 1
212 0.793701 8.77254 -1.0011e-16 -4.4581e-08 0.00123759 -1.97508e-17 1
213 0.793701 7.97884 0.793701 -4.4581e-08 0.00123759 -2.08135e-17 1
214 -5.50077e-17 8.73071 0.793701 8.27652e-18 -6.81666e-17 -1.89448e-17 1
215 1.5874 8.01964 -2.17338e-16 -8.43707e-08 0.00244471 -1.4008e-17 1
218 1.5874 8.81334 0.793701 -8.43707e-08 0.00244471 -4.27189e-17 1
590 0.793701 7.18514 1.5874 -4.4581e-08 0.00123759 -1.0059e-17 1
631 -2.03688e-18 7.93701 1.5874 -1.73457e-17 -6.6179e-17 -9.334e-18 1
632 0.793701 8.77254 1.5874 -4.4581e-08 0.00123759 -2.48963e-17 1
635 1.5874 8.01964 1.5874 -8.43707e-08 0.00244471 -3.13697e-17 1
174 2.38111 7.2647 -3.32429e-16 -1.15211e-07 0.00359164 -1.26627e-17 1
180 3.17481 7.30047 0.793701 -1.33974e-07 0.00465013 -1.96668e-17 1
216 2.38111 8.8521 -3.63607e-16 -1.15211e-07 0.00359164 -8.66614e-18 1
217 2.38111 8.0584 0.793701 -1.15211e-07 0.00359164 -3.89442e-17 1
219 3.17481 8.09417 -4.50668e-16 -1.33974e-07 0.00465013 -7.99912e-18 1
222 3.17481 8.88787 0.793701 -1.33974e-07 0.00465013 -3.4544e-17 1
594 2.38111 7.2647 1.5874 -1.15211e-07 0.00359164 -2.36638e-17 1
636 2.38111 8.8521 1.5874 -1.15211e-07 0.00359164 -6.14464e-17 1
639 3.17481 8.09417 1.5874 -1.33974e-07 0.00465013 -4.95979e-17 1
178 3.96851 7.33236 -5.315e-16 -1.39143e-07 0.00559412 -2.85149e-18 1
184 4.76221 7.3596 0.793701 -1.31756e-07 0.00640036 -9.38969e-18 1
221 3.96851 8.12606 0.793701 -1.39143e-07 0.00559412 -2.0859e-17 1
598 3.96851 7.33236 1.5874 -1.39143e-07 0.00559412 -2.4583e-17 1
643 4.76221 8.1533 1.5874 -1.31756e-07 0.00640036 -2.72389e-17 1
188 6.34961 7.39756 0.793701 -7.74113e-08 0.00752408 -3.6281e-17 1
225 5.55591 8.17522 0.793701 -1.13617e-07 0.00704901 -1.28906e-17 1
602 5.55591 7.38151 1.5874 -1.13617e-07 0.00704901 -3.35689e-17 1
647 6.34961 8.19126 1.5874 -7.74113e-08 0.00752408 -6.71188e-17 1
192 7.93701 7.41064 0.793701 8.41972e-18 0.00791129 -6.38614e-17 1
229 7.14331 8.20105 0.793701 -1.01021e-08 0.00781389 -3.9736e-17 1
233 8.7307 8.20105 0.793701 1.01021e-08 0.00781389 -5.50338e-17 1
606 7.14331 7.40735 1.5874 -1.01021e-08 0.00781389 -1.01741e-16 1
610 8.7307 7.40735 1.5874 1.01021e-08 0.00781389 -1.13544e-16 1
651 7.93701 8.20434 1.5874 -1.05937e-17 0.00791129 -1.215e-16 1
196 9.5244 7.39756 0.793701 7.74113e-08 0.00752408 -4.38335e-17 1
237 10.3181 8.17522 0.793701 1.13617e-07 0.00704901 -3.05481e-17 1
614 10.3181 7.38151 1.5874 1.13617e-07 0.00704901 -4.50797e-17 1
655 9.5244 8.19126 1.5874 7.74113e-08 0.00752408 -8.91346e-17 1
198 11.9055 7.33236 -5.9643e-16 1.39143e-07 0.00559412 -1.42294e-17 1
200 11.1118 7.3596 0.793701 1.31756e-07 0.00640036 -2.37647e-17 1
241 11.9055 8.12606 0.793701 1.39143e-07 0.00559412 -3.60664e-17 1
618 11.9055 7.33236 1.5874 1.39143e-07 0.00559412 -4.65414e-17 1
659 11.1118 8.1533 1.5874 1.31756e-07 0.00640036 -5.0639e-17 1
202 13.4929 7.2647 -4.61084e-16 1.15211e-07 0.00359164 -2.30276e-17 1
204 12.6992 7.30047 0.793701 1.33974e-07 0.00465013 -5.25815e-17 1
243 12.6992 8.09417 -5.61251e-16 1.33974e-07 0.00465013 -2.6619e-17 1
244 13.4929 8.8521 -4.83826e-16 1.15211e-07 0.00359164 -2.52026e-17 1
245 13.4929 8.0584 0.793701 1.15211e-07 0.00359164 -4.68208e-17 1
246 12.6992 8.88787 0.793701 1.33974e-07 0.00465013 -3.55561e-17 1
622 13.4929 7.2647 1.5874 1.15211e-07 0.00359164 -6.26683e-17 1
663 12.6992 8.09417 1.5874 1.33974e-07 0.00465013 -4.82145e-17 1
664 13.4929 8.8521 1.5874 1.15211e-07 0.00359164 -3.17722e-17 1
206 15.0803 7.18514 -6.19635e-17 4.4581e-08 0.00123759 1.91425e-17 1
208 14.2866 7.22594 0.793701 8.43707e-08 0.00244471 -3.73464e-17 1
210 15.874 7.1433 0.793701 -1.61886e-17 -8.53395e-17 1.25318e-17 1
247 14.2866 8.01964 -3.06711e-16 8.43707e-08 0.00244471 -1.45856e-17 1
248 15.0803 8.77254 -2.13565e-16 4.4581e-08 0.00123759 7.58485e-19 1
249 15.0803 7.97884 0.793701 4.4581e-08 0.00123759 -1.57114e-17 1
250 14.2866 8.81334 0.793701 8.43707e-08 0.00244471 -2.69679e-17 1
251 15.874 7.93701 4.26397e-17 -3.5621e-17 -1.26944e-16 3.44681e-17 1
252 15.874 8.73071 0.793701 -5.13662e-18 -1.48047e-16 1.25601e-17 1
626 15.0803 7.18514 1.5874 4.4581e-08 0.00123759 -4.60018e-17 1
667 14.2866 8.01964 1.5874 8.43707e-08 0.00244471 -4.79854e-17 1
668 15.0803 8.77254 1.5874 4.4581e-08 0.00123759 -2.35292e-17 1
671 15.874 7.93701 1.5874 1.57303e-17 -1.2712e-16 -2.3735e-17 1
253 -6.65919e-17 9.52441 2.82327e-17 2.44166e-17 -9.49552e-17 -2.96295e-17 1
254 0.793701 10.3599 -1.66633e-16 -4.4581e-08 0.00123759 -2.06845e-17 1
255 0.793701 9.56624 0.793701 -4.4581e-08 0.00123759 -2.88019e-17 1
256 -1.06595e-16 10.3181 0.793701 2.56764e-17 -1.0152e-16 -1.194e-17 1
257 1.5874 9.60704 -2.76882e-16 -8.43707e-08 0.00244471 -1.68785e-17 1
260 1.5874 10.4007 0.793701 -8.43707e-08 0.00244471 -1.9022e-17 1
673 -1.14231e-16 9.52441 1.5874 9.81936e-18 -8.873e-17 -1.0401e-17 1
674 0.793701 10.3599 1.5874 -4.4581e-08 0.00123759 -1.75672e-17 1
677 1.5874 9.60704 1.5874 -8.43707e-08 0.00244471 -4.56234e-17 1
258 2.38111 10.4395 -3.84493e-16 -1.15211e-07 0.00359164 -1.88053e-19 1
259 2.38111 9.6458 0.793701 -1.15211e-07 0.00359164 -3.02406e-17 1
261 3.17481 9.68157 -4.83461e-16 -1.33974e-07 0.00465013 2.63732e-18 1
264 3.17481 10.4753 0.793701 -1.33974e-07 0.00465013 -7.36441e-18 1
678 2.38111 10.4395 1.5874 -1.15211e-07 0.00359164 -4.33603e-17 1
681 3.17481 9.68157 1.5874 -1.33974e-07 0.00465013 -5.03719e-17 1
220 3.96851 8.91976 -5.05531e-16 -1.39143e-07 0.00559412 1.33463e-18 1
226 4.76221 8.947 0.793701 -1.31756e-07 0.00640036 -8.03852e-18 1
640 3.96851 8.91976 1.5874 -1.39143e-07 0.00559412 -4.15794e-17 1
262 3.96851 10.5072 -5.28638e-16 -1.39143e-07 0.00559412 3.37489e-18 1
263 3.96851 9.71346 0.793701 -1.39143e-07 0.00559412 -9.12681e-18 1
268 4.76221 10.5344 0.793701 -1.31756e-07 0.00640036 -2.07824e-18 1
682 3.96851 10.5072 1.5874 -1.39143e-07 0.00559412 -1.95221e-17 1
685 4.76221 9.7407 1.5874 -1.31756e-07 0.00640036 -1.92635e-17 1
230 6.34961 8.98496 0.793701 -7.74113e-08 0.00752408 -1.63713e-17 1
644 5.55591 8.96892 1.5874 -1.13617e-07 0.00704901 -3.59155e-17 1
267 5.55591 9.76262 0.793701 -1.13617e-07 0.00704901 -5.41436e-18 1
272 6.34961 10.5724 0.793701 -7.74113e-08 0.00752408 -7.28204e-18 1
686 5.55591 10.5563 1.5874 -1.13617e-07 0.00704901 -1.86829e-17 1
689 6.34961 9.77866 1.5874 -7.74113e-08 0.00752408 -4.72662e-17 1
234 7.93701 8.99804 0.793701 -2.9361e-18 0.00791129 -4.80461e-17 1
648 7.14331 8.99475 1.5874 -1.01021e-08 0.00781389 -9.12556e-17 1
652 8.7307 8.99475 1.5874 1.01021e-08 0.00781389 -1.19055e-16 1
271 7.14331 9.78845 0.793701 -1.01021e-08 0.00781389 -2.45033e-17 1
275 8.7307 9.78845 0.793701 1.01021e-08 0.00781389 -6.96287e-17 1
276 7.93701 10.5854 0.793701 -1.82743e-17 0.00791129 -5.24991e-17 1
690 7.14331 10.5822 1.5874 -1.01021e-08 0.00781389 -6.86806e-17 1
693 7.93701 9.79174 1.5874 -3.92497e-17 0.00791129 -1.08262e-16 1
694 8.7307 10.5822 1.5874 1.01021e-08 0.00781389 -1.13302e-16 1
238 9.5244 8.98496 0.793701 7.74113e-08 0.00752408 -5.16696e-17 1
656 10.3181 8.96892 1.5874 1.13617e-07 0.00704901 -6.36892e-17 1
279 10.3181 9.76262 0.793701 1.13617e-07 0.00704901 -4.49138e-17 1
280 9.5244 10.5724 0.793701 7.74113e-08 0.00752408 -7.08039e-17 1
697 9.5244 9.77866 1.5874 7.74113e-08 0.00752408 -8.58769e-17 1
698 10.3181 10.5563 1.5874 1.13617e-07 0.00704901 -4.76678e-17 1
240 11.9055 8.91976 -5.36784e-16 1.39143e-07 0.00559412 -1.46528e-17 1
242 11.1118 8.947 0.793701 1.31756e-07 0.00640036 -3.655e-17 1
660 11.9055 8.91976 1.5874 1.39143e-07 0.00559412 -5.64818e-17 1
282 11.9055 10.5072 -5.08396e-16 1.39143e-07 0.00559412 -1.91127e-17 1
283 11.9055 9.71346 0.793701 1.39143e-07 0.00559412 -3.61433e-17 1
284 11.1118 10.5344 0.793701 1.31756e-07 0.00640036 -2.82962e-17 1
701 11.1118 9.7407 1.5874 1.31756e-07 0.00640036 -5.00499e-17 1
702 11.9055 10.5072 1.5874 1.39143e-07 0.00559412 -2.91811e-17 1
285 12.6992 9.68157 -5.60808e-16 1.33974e-07 0.00465013 -2.08553e-17 1
286 13.4929 10.4395 -4.98831e-16 1.15211e-07 0.00359164 -2.1208e-17 1
287 13.4929 9.6458 0.793701 1.15211e-07 0.00359164 -2.44103e-17 1
288 12.6992 10.4753 0.793701 1.33974e-07 0.00465013 -2.77739e-17 1
705 12.6992 9.68157 1.5874 1.33974e-07 0.00465013 -3.5033e-17 1
706 13.4929 10.4395 1.5874 1.15211e-07 0.00359164 -1.94268e-17 1
289 14.2866 9.60704 -3.91911e-16 8.43707e-08 0.00244471 -1.69661e-17 1
290 15.0803 10.3599 -1.99772e-16 4.4581e-08 0.00123759 -9.11419e-18 1
291 15.0803 9.56624 0.793701 4.4581e-08 0.00123759 -6.90039e-18 1
292 14.2866 10.4007 0.793701 8.43707e-08 0.00244471 -1.67185e-17 1
293 15.874 9.52441 -2.99151e-17 -2.73086e-17 -1.29537e-16 1.1313e-17 1
294 15.874 10.3181 0.793701 -3.37865e-17 -1.31494e-16 -5.49862e-18 1
709 14.2866 9.60704 1.5874 8.43707e-08 0.00244471 -1.68345e-17 1
710 15.0803 10.3599 1.5874 4.4581e-08 0.00123759 -2.43757e-17 1
713 15.874 9.52441 1.5874 -9.20612e-19 -1.45785e-16 -7.12118e-18 1
295 -9.37562e-17 11.1118 4.29889e-17 3.53502e-17 -1.09484e-16 -2.68823e-18 1
296 0.793701 11.9473 -6.57644e-17 -4.4581e-08 0.00123759 8.32879e-18 1
297 0.793701 11.1536 0.793701 -4.4581e-08 0.00123759 -3.96008e-18 1
298 -2.39879e-17 11.9055 0.793701 4.55709e-17 -9.18939e-17 -2.88457e-18 1
299 1.5874 11.1944 -2.64415e-16 -8.43707e-08 0.00244471 -1.84298e-18 1
302 1.5874 11.9881 0.793701 -8.43707e-08 0.00244471 -9.55569e-18 1
715 -1.42323e-17 11.1118 1.5874 5.23097e-17 -9.88396e-17 -1.23678e-17 1
716 0.793701 11.9473 1.5874 -4.4581e-08 0.00123759 -1.04808e-17 1
719 1.5874 11.1944 1.5874 -8.43707e-08 0.00244471 -3.07268e-17 1
300 2.38111 12.0269 -3.47642e-16 -1.15211e-07 0.00359164 4.90514e-18 1
301 2.38111 11.2332 0.793701 -1.15211e-07 0.00359164 -7.11285e-18 1
303 3.17481 11.269 -4.76107e-16 -1.33974e-07 0.00465013 5.97684e-18 1
306 3.17481 12.0627 0.793701 -1.33974e-07 0.00465013 -3.79514e-18 1
720 2.38111 12.0269 1.5874 -1.15211e-07 0.00359164 -3.35715e-17 1
723 3.17481 11.269 1.5874 -1.33974e-07 0.00465013 -2.2694e-17 1
304 3.96851 12.0946 -5.48447e-16 -1.39143e-07 0.00559412 5.21551e-18 1
305 3.96851 11.3009 0.793701 -1.39143e-07 0.00559412 -2.19577e-18 1
310 4.76221 12.1218 0.793701 -1.31756e-07 0.00640036 -2.06193e-18 1
724 3.96851 12.0946 1.5874 -1.39143e-07 0.00559412 -2.25717e-17 1
727 4.76221 11.3281 1.5874 -1.31756e-07 0.00640036 -1.37212e-17 1
309 5.55591 11.35 0.793701 -1.13617e-07 0.00704901 -1.78735e-18 1
314 6.34961 12.1598 0.793701 -7.74113e-08 0.00752408 -6.36829e-18 1
728 5.55591 12.1437 1.5874 -1.13617e-07 0.00704901 -1.53006e-17 1
731 6.34961 11.3661 1.5874 -7.74113e-08 0.00752408 -3.32084e-17 1
313 7.14331 11.3759 0.793701 -1.01021e-08 0.00781389 -2.27481e-17 1
317 8.7307 11.3759 0.793701 1.01021e-08 0.00781389 -7.17982e-17 1
318 7.93701 12.1728 0.793701 -1.93851e-17 0.00791129 -4.24697e-17 1
732 7.14331 12.1696 1.5874 -1.01021e-08 0.00781389 -7.02906e-17 1
735 7.93701 11.3791 1.5874 -4.9052e-17 0.00791129 -1.05236e-16 1
736 8.7307 12.1696 1.5874 1.01021e-08 0.00781389 -1.07601e-16 1
321 10.3181 11.35 0.793701 1.13617e-07 0.00704901 -3.77059e-17 1
322 9.5244 12.1598 0.793701 7.74113e-08 0.00752408 -4.99046e-17 1
739 9.5244 11.3661 1.5874 7.74113e-08 0.00752408 -7.90856e-17 1
740 10.3181 12.1437 1.5874 1.13617e-07 0.00704901 -3.77992e-17 1
324 11.9055 12.0946 -4.5679e-16 1.39143e-07 0.00559412 -1.50779e-17 1
325 11.9055 11.3009 0.793701 1.39143e-07 0.00559412 -1.96897e-17 1
326 11.1118 12.1218 0.793701 1.31756e-07 0.00640036 -1.75268e-17 1
743 11.1118 11.3281 1.5874 1.31756e-07 0.00640036 -2.27777e-17 1
744 11.9055 12.0946 1.5874 1.39143e-07 0.00559412 -2.33565e-17 1
327 12.6992 11.269 -5.13373e-16 1.33974e-07 0.00465013 -2.22003e-17 1
328 13.4929 12.0269 -4.07945e-16 1.15211e-07 0.00359164 -2.12834e-17 1
329 13.4929 11.2332 0.793701 1.15211e-07 0.00359164 -2.07785e-17 1
330 12.6992 12.0627 0.793701 1.33974e-07 0.00465013 -1.98616e-17 1
747 12.6992 11.269 1.5874 1.33974e-07 0.00465013 -2.04754e-17 1
748 13.4929 12.0269 1.5874 1.15211e-07 0.00359164 -2.57761e-17 1
331 14.2866 11.1944 -3.15686e-16 8.43707e-08 0.00244471 -1.92362e-17 1
332 15.0803 11.9473 -1.37648e-16 4.4581e-08 0.00123759 -2.11803e-17 1
333 15.0803 11.1536 0.793701 4.4581e-08 0.00123759 -2.85575e-17 1
334 14.2866 11.9881 0.793701 8.43707e-08 0.00244471 -3.13268e-17 1
335 15.874 11.1118 -2.35599e-17 -6.6576e-17 -9.86342e-17 -8.67617e-18 1
336 15.874 11.9055 0.793701 -6.40235e-17 -7.17092e-17 -2.88623e-17 1
751 14.2866 11.1944 1.5874 8.43707e-08 0.00244471 -2.98859e-17 1
752 15.0803 11.9473 1.5874 4.4581e-08 0.00123759 -4.5442e-17 1
755 15.874 11.1118 1.5874 -3.88332e-17 -1.231e-16 -2.54104e-17 1
337 -6.93171e-17 12.6992 8.91099e-17 3.09697e-17 -9.51597e-17 1.42161e-17 1
338 0.793701 13.5347 -2.21185e-17 -4.4581e-08 0.00123759 1.19187e-17 1
339 0.793701 12.741 0.793701 -4.4581e-08 0.00123759 7.71925e-19 1
340 3.89223e-17 13.4929 0.793701 2.313e-17 -9.68818e-17 8.11807e-18 1
341 1.5874 12.7818 -2.2018e-16 -8.43707e-08 0.00244471 4.16251e-18 1
344 1.5874 13.5755 0.793701 -8.43707e-08 0.00244471 -2.04133e-17 1
757 5.2024e-17 12.6992 1.5874 4.00211e-17 -8.26237e-17 -1.0723e-18 1
758 0.793701 13.5347 1.5874 -4.4581e-08 0.00123759 -6.06935e-18 1
761 1.5874 12.7818 1.5874 -8.43707e-08 0.00244471 -2.77248e-17 1