ITEM: TIMESTEP
25000
ITEM: NUMBER OF ATOMS
8000
ITEM: BOX BOUNDS pp pp pp
0.0000000000000000e+00 3.1748021039364001e+01
0.0000000000000000e+00 1.5874010519682001e+01
0.0000000000000000e+00 1.5874010519682001e+01
ITEM: ATOMS id x y z vx vy vz c_rho_peratom
2 0.793717 0.918518 -4.62874e-16 -9.52063e-09 0.000589317 9.49313e-17 1
3 0.793717 0.124817 0.793701 -9.52063e-09 0.000589317 5.85021e-17 1
4 -3.52804e-16 0.793701 0.793701 -1.18794e-16 -1.60106e-16 5.90097e-17 1
5 1.58746 0.246516 -6.31089e-16 -1.81974e-08 0.00116416 9.02923e-17 1
8 1.58746 1.04022 0.793701 -1.81974e-08 0.00116416 7.90001e-17 1
43 -2.6204e-16 1.5874 4.39156e-17 -1.57541e-16 -1.59137e-16 7.04065e-17 1
45 0.793717 1.71222 0.793701 -9.52063e-09 0.000589317 7.47868e-17 1
422 0.793717 0.918518 1.5874 -9.52063e-09 0.000589317 3.34286e-17 1
425 1.58746 0.246516 1.5874 -1.81974e-08 0.00116416 2.07256e-17 1
463 -5.55821e-16 1.5874 1.5874 -1.27791e-16 -1.64061e-16 3.06949e-17 1
6 2.38121 1.1558 -6.83939e-16 -2.58527e-08 0.00171035 1.04773e-16 1
7 2.38121 0.362104 0.793701 -2.58527e-08 0.00171035 6.02228e-17 1
9 3.17496 0.468744 -5.96555e-16 -3.17588e-08 0.00221443 7.00099e-17 1
12 3.17496 1.26244 0.793701 -3.17588e-08 0.00221443 6.65433e-17 1
426 2.38121 1.1558 1.5874 -2.58527e-08 0.00171035 2.95891e-17 1
429 3.17496 0.468744 1.5874 -3.17588e-08 0.00221443 2.25142e-17 1
10 3.9687 1.35752 -5.71537e-16 -3.50575e-08 0.00266396 6.48047e-17 1
11 3.9687 0.563819 0.793701 -3.50575e-08 0.00266396 4.00277e-17 1
16 4.76242 1.4387 0.793701 -3.55385e-08 0.00304788 3.35884e-17 1
430 3.9687 1.35752 1.5874 -3.50575e-08 0.00266396 2.53647e-17 1
433 4.76242 0.644999 1.5874 -3.55385e-08 0.00304788 1.02802e-17 1
15 5.5561 0.710296 0.793701 -3.29495e-08 0.00335673 1.2009e-17 1
20 6.34975 1.55181 0.793701 -2.27211e-08 0.00358292 2.50945e-19 1
434 5.5561 1.504 1.5874 -3.29495e-08 0.00335673 1.78445e-18 1
437 6.34975 0.758113 1.5874 -2.27211e-08 0.00358292 -7.18217e-18 1
19 7.14339 0.787279 0.793701 2.32299e-09 0.00372089 -4.18893e-18 1
23 8.73062 0.787279 0.793701 -2.32299e-09 0.00372089 -5.18036e-18 1
24 7.93701 1.59078 0.793701 4.016e-18 0.00376726 -7.31155e-18 1
438 7.14339 1.58098 1.5874 2.32299e-09 0.00372089 -1.2787e-17 1
441 7.93701 0.79708 1.5874 6.16602e-18 0.00376726 -1.27428e-17 1
442 8.73062 1.58098 1.5874 -2.32299e-09 0.00372089 -1.51851e-17 1
27 10.3179 0.710296 0.793701 3.29495e-08 0.00335673 -9.16625e-18 1
28 9.52426 1.55181 0.793701 2.27211e-08 0.00358292 -6.12632e-18 1
445 9.52426 0.758113 1.5874 2.27211e-08 0.00358292 -1.60332e-17 1
446 10.3179 1.504 1.5874 3.29495e-08 0.00335673 -2.31241e-17 1
30 11.9053 1.35752 -3.40136e-16 3.50575e-08 0.00266396 1.59253e-17 1
31 11.9053 0.563819 0.793701 3.50575e-08 0.00266396 -5.299e-18 1
32 11.1116 1.4387 0.793701 3.55385e-08 0.00304788 -1.25132e-17 1
449 11.1116 0.644999 1.5874 3.55385e-08 0.00304788 -2.59349e-17 1
450 11.9053 1.35752 1.5874 3.50575e-08 0.00266396 -2.22044e-17 1
33 12.699 0.468744 -3.13203e-16 3.17588e-08 0.00221443 3.33732e-17 1
34 13.4928 1.1558 -3.70462e-16 2.58527e-08 0.00171035 2.32214e-17 1
35 13.4928 0.362104 0.793701 2.58527e-08 0.00171035 1.31927e-17 1
36 12.699 1.26244 0.793701 3.17588e-08 0.00221443 -5.01078e-19 1
453 12.699 0.468744 1.5874 3.17588e-08 0.00221443 -8.68888e-18 1
454 13.4928 1.1558 1.5874 2.58527e-08 0.00171035 5.98457e-19 1
37 14.2866 0.246516 -3.35329e-16 1.81974e-08 0.00116416 3.18874e-17 1
38 15.0803 0.918518 -2.98975e-16 9.52063e-09 0.000589317 1.77504e-17 1
39 15.0803 0.124817 0.793701 9.52063e-09 0.000589317 2.2767e-17 1
40 14.2866 1.04022 0.793701 1.81974e-08 0.00116416 4.24941e-18 1
41 15.874 -6.47699e-16 -6.50102e-17 5.32087e-17 -1.33177e-16 3.57777e-17 1
42 15.874 0.793701 0.793701 3.95666e-17 -9.58274e-17 5.98292e-18 1
81 15.0803 1.71222 0.793701 9.52063e-09 0.000589317 -4.10661e-19 1
83 15.874 1.5874 -2.15488e-16 7.60423e-17 -4.87018e-17 1.18314e-17 1
457 14.2866 0.246516 1.5874 1.81974e-08 0.00116416 2.99958e-17 1
458 15.0803 0.918518 1.5874 9.52063e-09 0.000589317 2.17385e-17 1
461 15.874 -6.98816e-16 1.5874 2.82883e-17 -1.54044e-16 3.99988e-17 1
503 15.874 1.5874 1.5874 3.81363e-17 -7.46955e-17 4.249e-18 1
47 1.58746 1.83392 -6.9184e-16 -1.81974e-08 0.00116416 9.24204e-17 1
467 1.58746 1.83392 1.5874 -1.81974e-08 0.00116416 3.52602e-17 1
44 0.793717 2.50592 -4.82018e-16 -9.52063e-09 0.000589317 6.69166e-17 1
46 -5.92294e-16 2.3811 0.793701 -1.49061e-16 -1.53789e-16 6.14225e-17 1
50 1.58746 2.62762 0.793701 -1.81974e-08 0.00116416 5.98073e-17 1
85 -2.91662e-16 3.1748 1.23487e-16 -1.39308e-16 -1.48226e-16 5.72049e-17 1
87 0.793717 3.29962 0.793701 -9.52063e-09 0.000589317 6.568e-17 1
89 1.58746 3.42132 -6.76323e-16 -1.81974e-08 0.00116416 6.78674e-17 1
464 0.793717 2.50592 1.5874 -9.52063e-09 0.000589317 3.83001e-17 1
505 -8.19145e-16 3.1748 1.5874 -1.45228e-16 -1.30985e-16 5.3841e-17 1
509 1.58746 3.42132 1.5874 -1.81974e-08 0.00116416 3.29622e-17 1
49 2.38121 1.94951 0.793701 -2.58527e-08 0.00171035 7.02027e-17 1
51 3.17496 2.05614 -6.20932e-16 -3.17588e-08 0.00221443 8.43024e-17 1
471 3.17496 2.05614 1.5874 -3.17588e-08 0.00221443 3.3529e-17 1
48 2.38121 2.74321 -7.02311e-16 -2.58527e-08 0.00171035 8.81934e-17 1
54 3.17496 2.84985 0.793701 -3.17588e-08 0.00221443 5.46505e-17 1
91 2.38121 3.53691 0.793701 -2.58527e-08 0.00171035 4.66822e-17 1
468 2.38121 2.74321 1.5874 -2.58527e-08 0.00171035 2.42399e-17 1
53 3.9687 2.15122 0.793701 -3.50575e-08 0.00266396 5.36015e-17 1
475 4.76242 2.2324 1.5874 -3.55385e-08 0.00304788 1.74462e-17 1
52 3.9687 2.94492 -6.33016e-16 -3.50575e-08 0.00266396 5.716e-17 1
58 4.76242 3.0261 0.793701 -3.55385e-08 0.00304788 3.66512e-17 1
472 3.9687 2.94492 1.5874 -3.50575e-08 0.00266396 2.8991e-17 1
57 5.5561 2.2977 0.793701 -3.29495e-08 0.00335673 1.70805e-17 1
479 6.34975 2.34551 1.5874 -2.27211e-08 0.00358292 -1.75363e-17 1
62 6.34975 3.13921 0.793701 -2.27211e-08 0.00358292 4.35295e-18 1
476 5.5561 3.0914 1.5874 -3.29495e-08 0.00335673 -8.78635e-18 1
61 7.14339 2.37468 0.793701 2.32299e-09 0.00372089 -6.71927e-18 1
65 8.73062 2.37468 0.793701 -2.32299e-09 0.00372089 -1.19344e-17 1
483 7.93701 2.38448 1.5874 -1.51928e-17 0.00376726 -2.0774e-17 1
66 7.93701 3.17818 0.793701 -3.2862e-17 0.00376726 -1.32224e-17 1
480 7.14339 3.16838 1.5874 2.32299e-09 0.00372089 -3.91727e-17 1
484 8.73062 3.16838 1.5874 -2.32299e-09 0.00372089 -4.89665e-17 1
69 10.3179 2.2977 0.793701 3.29495e-08 0.00335673 -1.25431e-17 1
487 9.52426 2.34551 1.5874 2.27211e-08 0.00358292 -2.61571e-17 1
70 9.52426 3.13921 0.793701 2.27211e-08 0.00358292 -2.48506e-17 1
488 10.3179 3.0914 1.5874 3.29495e-08 0.00335673 -3.3997e-17 1
73 11.9053 2.15122 0.793701 3.50575e-08 0.00266396 -1.00341e-17 1
491 11.1116 2.2324 1.5874 3.55385e-08 0.00304788 -2.72817e-17 1
72 11.9053 2.94492 -4.20029e-16 3.50575e-08 0.00266396 1.48724e-17 1
74 11.1116 3.0261 0.793701 3.55385e-08 0.00304788 -1.06329e-17 1
492 11.9053 2.94492 1.5874 3.50575e-08 0.00266396 -1.90239e-17 1
77 13.4928 1.94951 0.793701 2.58527e-08 0.00171035 -4.32066e-18 1
75 12.699 2.05614 -4.05109e-16 3.17588e-08 0.00221443 1.56822e-17 1
495 12.699 2.05614 1.5874 3.17588e-08 0.00221443 -1.08497e-17 1
76 13.4928 2.74321 -4.00039e-16 2.58527e-08 0.00171035 8.85632e-18 1
78 12.699 2.84985 0.793701 3.17588e-08 0.00221443 -5.0981e-18 1
119 13.4928 3.53691 0.793701 2.58527e-08 0.00171035 1.28922e-18 1
496 13.4928 2.74321 1.5874 2.58527e-08 0.00171035 -7.70692e-18 1
79 14.2866 1.83392 -3.46587e-16 1.81974e-08 0.00116416 6.82545e-18 1
499 14.2866 1.83392 1.5874 1.81974e-08 0.00116416 -2.49244e-18 1
80 15.0803 2.50592 -2.43835e-16 9.52063e-09 0.000589317 9.90674e-18 1
82 14.2866 2.62762 0.793701 1.81974e-08 0.00116416 -3.49516e-18 1
84 15.874 2.3811 0.793701 9.07889e-17 -6.01183e-17 -2.1749e-17 1
121 14.2866 3.42132 -3.0051e-16 1.81974e-08 0.00116416 1.11809e-17 1
123 15.0803 3.29962 0.793701 9.52063e-09 0.000589317 -9.6121e-20 1
125 15.874 3.1748 -1.32448e-16 1.26056e-16 -1.016e-16 5.0259e-18 1
500 15.0803 2.50592 1.5874 9.52063e-09 0.000589317 2.03537e-18 1
541 14.2866 3.42132 1.5874 1.81974e-08 0.00116416 1.06844e-18 1
545 15.874 3.1748 1.5874 8.05189e-17 -9.43628e-17 4.73196e-18 1
86 0.793717 4.09332 -5.26955e-16 -9.52063e-09 0.000589317 5.27595e-17 1
88 -6.12525e-16 3.9685 0.793701 -1.18503e-16 -1.27154e-16 8.27374e-17 1
92 1.58746 4.21502 0.793701 -1.81974e-08 0.00116416 5.47014e-17 1
127 -2.15042e-16 4.7622 1.81405e-16 -1.12018e-16 -8.56558e-17 4.95788e-17 1
129 0.793717 4.88702 0.793701 -9.52063e-09 0.000589317 7.08582e-17 1
131 1.58746 5.00872 -6.40781e-16 -1.81974e-08 0.00116416 7.19675e-17 1
506 0.793717 4.09332 1.5874 -9.52063e-09 0.000589317 5.66861e-17 1
547 -7.35107e-16 4.7622 1.5874 -1.3127e-16 -8.09174e-17 8.08802e-17 1
551 1.58746 5.00872 1.5874 -1.81974e-08 0.00116416 3.75539e-17 1
93 3.17496 3.64355 -6.34834e-16 -3.17588e-08 0.00221443 7.55672e-17 1
513 3.17496 3.64355 1.5874 -3.17588e-08 0.00221443 1.44491e-17 1
90 2.38121 4.33061 -6.70447e-16 -2.58527e-08 0.00171035 7.82587e-17 1
96 3.17496 4.43725 0.793701 -3.17588e-08 0.00221443 4.42536e-17 1
133 2.38121 5.12431 0.793701 -2.58527e-08 0.00171035 4.31688e-17 1
135 3.17496 5.23095 -5.06065e-16 -3.17588e-08 0.00221443 7.81809e-17 1
510 2.38121 4.33061 1.5874 -2.58527e-08 0.00171035 1.23449e-17 1
555 3.17496 5.23095 1.5874 -3.17588e-08 0.00221443 4.90785e-18 1
95 3.9687 3.73862 0.793701 -3.50575e-08 0.00266396 4.92483e-17 1
517 4.76242 3.8198 1.5874 -3.55385e-08 0.00304788 1.23186e-17 1
94 3.9687 4.53232 -4.86269e-16 -3.50575e-08 0.00266396 6.05018e-17 1
100 4.76242 4.6135 0.793701 -3.55385e-08 0.00304788 3.02968e-17 1
514 3.9687 4.53232 1.5874 -3.50575e-08 0.00266396 1.39204e-17 1
99 5.5561 3.8851 0.793701 -3.29495e-08 0.00335673 1.70601e-17 1
521 6.34975 3.93291 1.5874 -2.27211e-08 0.00358292 -3.17939e-17 1
104 6.34975 4.72662 0.793701 -2.27211e-08 0.00358292 1.44419e-18 1
518 5.5561 4.6788 1.5874 -3.29495e-08 0.00335673 -6.33e-18 1
103 7.14339 3.96208 0.793701 2.32299e-09 0.00372089 -2.14081e-18 1
107 8.73062 3.96208 0.793701 -2.32299e-09 0.00372089 -2.90461e-17 1
525 7.93701 3.97188 1.5874 -4.10224e-17 0.00376726 -5.57936e-17 1
108 7.93701 4.76558 0.793701 -8.11819e-18 0.00376726 -8.63615e-18 1
522 7.14339 4.75578 1.5874 2.32299e-09 0.00372089 -2.56578e-17 1
526 8.73062 4.75578 1.5874 -2.32299e-09 0.00372089 -4.85281e-17 1
111 10.3179 3.8851 0.793701 3.29495e-08 0.00335673 -1.83543e-17 1
529 9.52426 3.93291 1.5874 2.27211e-08 0.00358292 -6.21884e-17 1
112 9.52426 4.72662 0.793701 2.27211e-08 0.00358292 -2.18535e-17 1
530 10.3179 4.6788 1.5874 3.29495e-08 0.00335673 -4.63184e-17 1
115 11.9053 3.73862 0.793701 3.50575e-08 0.00266396 1.08793e-18 1
533 11.1116 3.8198 1.5874 3.55385e-08 0.00304788 -2.50368e-17 1
116 11.1116 4.6135 0.793701 3.55385e-08 0.00304788 7.06599e-18 1
534 11.9053 4.53232 1.5874 3.50575e-08 0.00266396 -1.00728e-17 1
537 12.699 3.64355 1.5874 3.17588e-08 0.00221443 -3.41501e-18 1
118 13.4928 4.33061 -2.95729e-16 2.58527e-08 0.00171035 2.36115e-17 1
120 12.699 4.43725 0.793701 3.17588e-08 0.00221443 1.34331e-17 1
161 13.4928 5.12431 0.793701 2.58527e-08 0.00171035 2.66161e-17 1
538 13.4928 4.33061 1.5874 2.58527e-08 0.00171035 1.13078e-17 1
579 12.699 5.23095 1.5874 3.17588e-08 0.00221443 1.56598e-17 1
122 15.0803 4.09332 -2.85662e-16 9.52063e-09 0.000589317 6.5038e-18 1
124 14.2866 4.21502 0.793701 1.81974e-08 0.00116416 1.15421e-17 1
126 15.874 3.9685 0.793701 9.22671e-17 -1.19589e-16 -1.65421e-17 1
163 14.2866 5.00872 -2.89219e-16 1.81974e-08 0.00116416 2.24412e-17 1
165 15.0803 4.88702 0.793701 9.52063e-09 0.000589317 1.58247e-17 1
167 15.874 4.7622 -5.90454e-17 8.75735e-17 -1.04954e-16 -3.54412e-18 1
542 15.0803 4.09332 1.5874 9.52063e-09 0.000589317 2.06576e-17 1
583 14.2866 5.00872 1.5874 1.81974e-08 0.00116416 2.37231e-17 1
587 15.874 4.7622 1.5874 6.70439e-17 -7.58422e-17 3.80111e-17 1
128 0.793717 5.68072 -5.54881e-16 -9.52063e-09 0.000589317 7.62124e-17 1
130 -4.81376e-16 5.5559 0.793701 -1.22793e-16 -3.27755e-17 8.41469e-17 1
134 1.58746 5.80242 0.793701 -1.81974e-08 0.00116416 5.58869e-17 1
169 -1.29764e-16 6.3496 1.22228e-16 -1.47728e-16 -2.12029e-17 7.82157e-17 1
171 0.793717 6.47442 0.793701 -9.52063e-09 0.000589317 6.74454e-17 1
173 1.58746 6.59612 -5.63232e-16 -1.81974e-08 0.00116416 7.92163e-17 1
548 0.793717 5.68072 1.5874 -9.52063e-09 0.000589317 5.46112e-17 1
589 -1.58297e-16 6.3496 1.5874 -1.49974e-16 -3.8451e-17 5.61204e-17 1
593 1.58746 6.59612 1.5874 -1.81974e-08 0.00116416 2.76678e-17 1
132 2.38121 5.91801 -6.81011e-16 -2.58527e-08 0.00171035 8.68532e-17 1
138 3.17496 6.02465 0.793701 -3.17588e-08 0.00221443 4.02691e-17 1
175 2.38121 6.71171 0.793701 -2.58527e-08 0.00171035 2.96506e-17 1
177 3.17496 6.81835 -6.54709e-16 -3.17588e-08 0.00221443 9.56135e-17 1
552 2.38121 5.91801 1.5874 -2.58527e-08 0.00171035 9.17804e-18 1
597 3.17496 6.81835 1.5874 -3.17588e-08 0.00221443 -1.86443e-17 1
137 3.9687 5.32602 0.793701 -3.50575e-08 0.00266396 4.40975e-17 1
559 4.76242 5.4072 1.5874 -3.55385e-08 0.00304788 -3.79364e-18 1
136 3.9687 6.11972 -5.21401e-16 -3.50575e-08 0.00266396 9.65806e-17 1
142 4.76242 6.2009 0.793701 -3.55385e-08 0.00304788 2.78269e-17 1
179 3.9687 6.91342 0.793701 -3.50575e-08 0.00266396 3.36693e-17 1
181 4.76242 6.9946 -5.99948e-16 -3.55385e-08 0.00304788 8.64021e-17 1
556 3.9687 6.11972 1.5874 -3.50575e-08 0.00266396 -1.5226e-17 1
601 4.76242 6.9946 1.5874 -3.55385e-08 0.00304788 -2.86197e-17 1
141 5.5561 5.4725 0.793701 -3.29495e-08 0.00335673 9.07828e-18 1
563 6.34975 5.52032 1.5874 -2.27211e-08 0.00358292 -1.15139e-17 1
146 6.34975 6.31402 0.793701 -2.27211e-08 0.00358292 4.71173e-18 1
183 5.5561 7.0599 0.793701 -3.29495e-08 0.00335673 2.52429e-17 1
560 5.5561 6.2662 1.5874 -3.29495e-08 0.00335673 -1.61118e-17 1
145 7.14339 5.54948 0.793701 2.32299e-09 0.00372089 -6.55712e-18 1
149 8.73062 5.54948 0.793701 -2.32299e-09 0.00372089 -8.59311e-18 1
567 7.93701 5.55928 1.5874 -6.0266e-18 0.00376726 -1.50753e-17 1
150 7.93701 6.35298 0.793701 1.24316e-17 0.00376726 -3.78108e-18 1
564 7.14339 6.34318 1.5874 2.32299e-09 0.00372089 -4.87978e-18 1
568 8.73062 6.34318 1.5874 -2.32299e-09 0.00372089 -1.67027e-17 1
153 10.3179 5.4725 0.793701 3.29495e-08 0.00335673 -8.42057e-19 1
571 9.52426 5.52032 1.5874 2.27211e-08 0.00358292 -3.15118e-17 1
154 9.52426 6.31402 0.793701 2.27211e-08 0.00358292 -3.39895e-18 1
195 10.3179 7.0599 0.793701 3.29495e-08 0.00335673 6.01527e-18 1
572 10.3179 6.2662 1.5874 3.29495e-08 0.00335673 -2.25359e-17 1
157 11.9053 5.32602 0.793701 3.50575e-08 0.00266396 1.97699e-17 1
575 11.1116 5.4072 1.5874 3.55385e-08 0.00304788 -3.34014e-17 1
156 11.9053 6.11972 -2.81752e-16 3.50575e-08 0.00266396 5.19238e-17 1
158 11.1116 6.2009 0.793701 3.55385e-08 0.00304788 1.30795e-17 1
199 11.9053 6.91342 0.793701 3.50575e-08 0.00266396 3.12042e-17 1
576 11.9053 6.11972 1.5874 3.50575e-08 0.00266396 1.4436e-17 1
617 11.1116 6.9946 1.5874 3.55385e-08 0.00304788 1.49146e-17 1
160 13.4928 5.91801 -3.06308e-16 2.58527e-08 0.00171035 4.66669e-17 1
162 12.699 6.02465 0.793701 3.17588e-08 0.00221443 3.0818e-17 1
201 12.699 6.81835 -2.85409e-16 3.17588e-08 0.00221443 4.63912e-17 1
203 13.4928 6.71171 0.793701 2.58527e-08 0.00171035 3.67109e-17 1
580 13.4928 5.91801 1.5874 2.58527e-08 0.00171035 2.30182e-17 1
621 12.699 6.81835 1.5874 3.17588e-08 0.00221443 3.35366e-17 1
164 15.0803 5.68072 -2.09759e-16 9.52063e-09 0.000589317 6.69031e-18 1
166 14.2866 5.80242 0.793701 1.81974e-08 0.00116416 3.21909e-17 1
168 15.874 5.5559 0.793701 7.41165e-17 -6.70076e-17 1.5508e-17 1
205 14.2866 6.59612 -2.48006e-16 1.81974e-08 0.00116416 1.8497e-17 1
207 15.0803 6.47442 0.793701 9.52063e-09 0.000589317 2.31283e-17 1
209 15.874 6.3496 1.22391e-16 9.17726e-17 -5.88194e-17 4.07964e-19 1
584 15.0803 5.68072 1.5874 9.52063e-09 0.000589317 3.89823e-17 1
625 14.2866 6.59612 1.5874 1.81974e-08 0.00116416 2.71006e-17 1
629 15.874 6.3496 1.5874 9.9279e-17 -4.15015e-17 5.12365e-17 1
170 0.793717 7.26812 -3.1596e-16 -9.52063e-09 0.000589317 7.62592e-17 1
172 5.03648e-17 7.1433 0.793701 -1.61871e-16 -4.1542e-17 6.50002e-17 1
176 1.58746 7.38982 0.793701 -1.81974e-08 0.00116416 4.01271e-17 1
211 1.47683e-16 7.93701 1.60482e-17 -1.66752e-16 -4.22989e-17 7.26991e-17 1
213 0.793717 8.06182 0.793701 -9.52063e-09 0.000589317 4.42359e-17 1
214 4.08986e-16 8.73071 0.793701 -1.5451e-16 -5.37817e-17 3.52038e-17 1
215 1.58746 8.18352 -2.20341e-16 -1.81974e-08 0.00116416 5.85308e-17 1
590 0.793717 7.26812 1.5874 -9.52063e-09 0.000589317 3.58521e-17 1
631 2.7346e-16 7.93701 1.5874 -1.69336e-16 -7.14114e-17 2.60085e-17 1
635 1.58746 8.18352 1.5874 -1.81974e-08 0.00116416 -1.31914e-18 1
174 2.38121 7.50541 -4.40785e-16 -2.58527e-08 0.00171035 6.48708e-17 1
180 3.17496 7.61205 0.793701 -3.17588e-08 0.00221443 2.14411e-17 1
217 2.38121 8.29911 0.793701 -2.58527e-08 0.00171035 1.41005e-17 1
219 3.17496 8.40575 -3.98776e-16 -3.17588e-08 0.00221443 5.12736e-17 1
594 2.38121 7.50541 1.5874 -2.58527e-08 0.00171035 -2.39256e-18 1
639 3.17496 8.40575 1.5874 -3.17588e-08 0.00221443 -7.05604e-19 1
178 3.9687 7.70712 -5.8754e-16 -3.50575e-08 0.00266396 8.03401e-17 1
184 4.76242 7.7883 0.793701 -3.55385e-08 0.00304788 2.69292e-17 1
221 3.9687 8.50082 0.793701 -3.50575e-08 0.00266396 2.34767e-17 1
598 3.9687 7.70712 1.5874 -3.50575e-08 0.00266396 -1.51585e-17 1
643 4.76242 8.582 1.5874 -3.55385e-08 0.00304788 9.20376e-18 1
605 6.34975 7.10772 1.5874 -2.27211e-08 0.00358292 1.02076e-19 1
188 6.34975 7.90142 0.793701 -2.27211e-08 0.00358292 4.22368e-17 1
225 5.5561 8.6473 0.793701 -3.29495e-08 0.00335673 4.2434e-17 1
602 5.5561 7.8536 1.5874 -3.29495e-08 0.00335673 3.20042e-18 1
647 6.34975 8.69512 1.5874 -2.27211e-08 0.00358292 4.11672e-17 1
187 7.14339 7.13688 0.793701 2.32299e-09 0.00372089 1.08102e-17 1
191 8.73062 7.13688 0.793701 -2.32299e-09 0.00372089 8.21353e-18 1
609 7.93701 7.14668 1.5874 2.55654e-17 0.00376726 -9.28518e-18 1
192 7.93701 7.94039 0.793701 4.36442e-17 0.00376726 2.57976e-17 1
229 7.14339 8.72428 0.793701 2.32299e-09 0.00372089 6.71085e-17 1
233 8.73062 8.72428 0.793701 -2.32299e-09 0.00372089 2.26522e-17 1
606 7.14339 7.93058 1.5874 2.32299e-09 0.00372089 1.45591e-17 1
610 8.73062 7.93058 1.5874 -2.32299e-09 0.00372089 -2.36125e-17 1
651 7.93701 8.73409 1.5874 2.13205e-17 0.00376726 1.8112e-17 1
613 9.52426 7.10772 1.5874 2.27211e-08 0.00358292 -2.8352e-17 1
196 9.52426 7.90142 0.793701 2.27211e-08 0.00358292 9.79549e-18 1
237 10.3179 8.6473 0.793701 3.29495e-08 0.00335673 4.45568e-18 1
614 10.3179 7.8536 1.5874 3.29495e-08 0.00335673 -1.24812e-17 1
655 9.52426 8.69512 1.5874 2.27211e-08 0.00358292 -2.31552e-17 1
200 11.1116 7.7883 0.793701 3.55385e-08 0.00304788 2.26896e-17 1
241 11.9053 8.50082 0.793701 3.50575e-08 0.00266396 4.16088e-17 1
618 11.9053 7.70712 1.5874 3.50575e-08 0.00266396 4.16219e-17 1
659 11.1116 8.582 1.5874 3.55385e-08 0.00304788 1.23263e-17 1
202 13.4928 7.50541 -2.95831e-16 2.58527e-08 0.00171035 3.74103e-17 1
204 12.699 7.61205 0.793701 3.17588e-08 0.00221443 4.64477e-17 1
243 12.699 8.40575 -3.62914e-16 3.17588e-08 0.00221443 5.07898e-17 1
245 13.4928 8.29911 0.793701 2.58527e-08 0.00171035 5.20292e-17 1
622 13.4928 7.50541 1.5874 2.58527e-08 0.00171035 3.5466e-17 1
663 12.699 8.40575 1.5874 3.17588e-08 0.00221443 4.9784e-17 1
206 15.0803 7.26812 -1.11497e-16 9.52063e-09 0.000589317 1.3626e-18 1
208 14.2866 7.38982 0.793701 1.81974e-08 0.00116416 2.78532e-17 1
210 15.874 7.1433 0.793701 1.21935e-16 -6.51607e-17 3.74928e-17 1
247 14.2866 8.18352 -3.31833e-16 1.81974e-08 0.00116416 2.48416e-17 1
249 15.0803 8.06182 0.793701 9.52063e-09 0.000589317 3.7911e-17 1
251 15.874 7.93701 1.69348e-16 1.01331e-16 -1.09492e-16 3.5715e-17 1
252 15.874 8.73071 0.793701 1.40512e-16 -6.7082e-17 9.40817e-17 1
626 15.0803 7.26812 1.5874 9.52063e-09 0.000589317 4.91233e-17 1
667 14.2866 8.18352 1.5874 1.81974e-08 0.00116416 6.00558e-17 1
671 15.874 7.93701 1.5874 1.62252e-16 -5.89881e-17 8.07888e-17 1
212 0.793717 8.85552 -2.52039e-16 -9.52063e-09 0.000589317 5.22559e-17 1
632 0.793717 8.85552 1.5874 -9.52063e-09 0.000589317 -1.47133e-17 1
218 1.58746 8.97722 0.793701 -1.81974e-08 0.00116416 9.71016e-18 1
253 4.75478e-16 9.52441 -4.45287e-17 -1.2328e-16 -4.63323e-17 4.21853e-17 1
254 0.793717 10.4429 -1.66517e-16 -9.52063e-09 0.000589317 8.95246e-19 1
255 0.793717 9.64922 0.793701 -9.52063e-09 0.000589317 -9.40651e-18 1
256 6.41712e-16 10.3181 0.793701 -1.46421e-16 -9.67741e-17 -3.43767e-18 1
257 1.58746 9.77092 -2.11885e-16 -1.81974e-08 0.00116416 2.56158e-17 1
260 1.58746 10.5646 0.793701 -1.81974e-08 0.00116416 -1.84833e-17 1
673 7.48595e-16 9.52441 1.5874 -1.67214e-16 -8.3481e-17 -1.13465e-17 1
674 0.793717 10.4429 1.5874 -9.52063e-09 0.000589317 -3.08943e-17 1
677 1.58746 9.77092 1.5874 -1.81974e-08 0.00116416 -3.29017e-17 1
216 2.38121 9.09281 -2.11682e-16 -2.58527e-08 0.00171035 4.11146e-17 1
222 3.17496 9.19945 0.793701 -3.17588e-08 0.00221443 1.78124e-17 1
636 2.38121 9.09281 1.5874 -2.58527e-08 0.00171035 -1.47323e-17 1
259 2.38121 9.88651 0.793701 -2.58527e-08 0.00171035 6.39246e-18 1
261 3.17496 9.99315 -4.44944e-16 -3.17588e-08 0.00221443 3.02701e-17 1
681 3.17496 9.99315 1.5874 -3.17588e-08 0.00221443 9.03486e-18 1
220 3.9687 9.29452 -4.53359e-16 -3.50575e-08 0.00266396 3.56796e-17 1
226 4.76242 9.3757 0.793701 -3.55385e-08 0.00304788 2.44924e-17 1
640 3.9687 9.29452 1.5874 -3.50575e-08 0.00266396 1.53757e-17 1
263 3.9687 10.0882 0.793701 -3.50575e-08 0.00266396 2.10609e-17 1
685 4.76242 10.1694 1.5874 -3.55385e-08 0.00304788 1.44331e-17 1
230 6.34975 9.48882 0.793701 -2.27211e-08 0.00358292 7.7565e-17 1
644 5.5561 9.441 1.5874 -3.29495e-08 0.00335673 3.65458e-17 1
267 5.5561 10.2347 0.793701 -3.29495e-08 0.00335673 3.33593e-17 1
689 6.34975 10.2825 1.5874 -2.27211e-08 0.00358292 7.05478e-17 1
234 7.93701 9.52779 0.793701 6.40377e-17 0.00376726 6.18628e-17 1
648 7.14339 9.51798 1.5874 2.32299e-09 0.00372089 6.51404e-17 1
652 8.73062 9.51798 1.5874 -2.32299e-09 0.00372089 7.65246e-18 1
271 7.14339 10.3117 0.793701 2.32299e-09 0.00372089 6.86042e-17 1
275 8.73062 10.3117 0.793701 -2.32299e-09 0.00372089 2.54102e-17 1
693 7.93701 10.3215 1.5874 4.95865e-17 0.00376726 4.62863e-17 1
238 9.52426 9.48882 0.793701 2.27211e-08 0.00358292 3.59484e-18 1
656 10.3179 9.441 1.5874 3.29495e-08 0.00335673 -3.06982e-17 1
279 10.3179 10.2347 0.793701 3.29495e-08 0.00335673 3.09076e-18 1
697 9.52426 10.2825 1.5874 2.27211e-08 0.00358292 -1.85156e-17 1
240 11.9053 9.29452 -5.2638e-16 3.50575e-08 0.00266396 4.97957e-17 1
242 11.1116 9.3757 0.793701 3.55385e-08 0.00304788 1.50955e-17 1
660 11.9053 9.29452 1.5874 3.50575e-08 0.00266396 2.00347e-17 1
283 11.9053 10.0882 0.793701 3.50575e-08 0.00266396 3.29733e-17 1
701 11.1116 10.1694 1.5874 3.55385e-08 0.00304788 -2.4819e-17 1
244 13.4928 9.09281 -5.69364e-16 2.58527e-08 0.00171035 6.69228e-17 1
246 12.699 9.19945 0.793701 3.17588e-08 0.00221443 5.09638e-17 1
664 13.4928 9.09281 1.5874 2.58527e-08 0.00171035 5.74796e-17 1
285 12.699 9.99315 -6.69542e-16 3.17588e-08 0.00221443 6.9712e-17 1
287 13.4928 9.88651 0.793701 2.58527e-08 0.00171035 7.03228e-17 1
705 12.699 9.99315 1.5874 3.17588e-08 0.00221443 2.81466e-17 1
248 15.0803 8.85552 -1.81811e-16 9.52063e-09 0.000589317 3.97709e-17 1
668 15.0803 8.85552 1.5874 9.52063e-09 0.000589317 1.00295e-16 1
250 14.2866 8.97722 0.793701 1.81974e-08 0.00116416 6.25164e-17 1
289 14.2866 9.77092 -4.23577e-16 1.81974e-08 0.00116416 8.18165e-17 1
290 15.0803 10.4429 -1.43229e-16 9.52063e-09 0.000589317 1.08079e-16 1
291 15.0803 9.64922 0.793701 9.52063e-09 0.000589317 1.00484e-16 1
292 14.2866 10.5646 0.793701 1.81974e-08 0.00116416 9.73032e-17 1
293 15.874 9.52441 5.28535e-17 9.45179e-17 -5.80527e-17 9.03354e-17 1
294 15.874 10.3181 0.793701 9.18623e-17 -1.23694e-17 1.19692e-16 1
709 14.2866 9.77092 1.5874 1.81974e-08 0.00116416 8.64283e-17 1
710 15.0803 10.4429 1.5874 9.52063e-09 0.000589317 9.21087e-17 1
713 15.874 9.52441 1.5874 1.29144e-16 -3.09075e-17 1.07264e-16 1
295 4.57256e-16 11.1118 -1.2631e-16 -1.23923e-16 -9.42325e-17 6.30358e-18 1
296 0.793717 12.0303 -3.22404e-16 -9.52063e-09 0.000589317 -2.77742e-17 1
297 0.793717 11.2366 0.793701 -9.52063e-09 0.000589317 -3.68744e-17 1
298 3.96511e-16 11.9055 0.793701 -1.69091e-16 -1.03763e-16 -1.59591e-17 1
299 1.58746 11.3583 -2.43396e-16 -1.81974e-08 0.00116416 -1.0374e-17 1
302 1.58746 12.152 0.793701 -1.81974e-08 0.00116416 -3.02684e-17 1
715 6.19455e-16 11.1118 1.5874 -1.95251e-16 -1.0564e-16 -7.61352e-18 1
716 0.793717 12.0303 1.5874 -9.52063e-09 0.000589317 -1.80586e-17 1
719 1.58746 11.3583 1.5874 -1.81974e-08 0.00116416 -1.44641e-17 1
258 2.38121 10.6802 -3.30797e-16 -2.58527e-08 0.00171035 1.59047e-17 1
678 2.38121 10.6802 1.5874 -2.58527e-08 0.00171035 -4.20531e-18 1
264 3.17496 10.7869 0.793701 -3.17588e-08 0.00221443 1.43413e-17 1
300 2.38121 12.2676 -4.10296e-16 -2.58527e-08 0.00171035 4.74838e-18 1
301 2.38121 11.4739 0.793701 -2.58527e-08 0.00171035 -6.94872e-18 1
303 3.17496 11.5806 -3.88888e-16 -3.17588e-08 0.00221443 -1.42933e-18 1
720 2.38121 12.2676 1.5874 -2.58527e-08 0.00171035 -8.56719e-18 1
723 3.17496 11.5806 1.5874 -3.17588e-08 0.00221443 1.59827e-18 1
262 3.9687 10.8819 -3.6164e-16 -3.50575e-08 0.00266396 6.29989e-18 1
268 4.76242 10.9631 0.793701 -3.55385e-08 0.00304788 1.39165e-17 1
682 3.9687 10.8819 1.5874 -3.50575e-08 0.00266396 8.80577e-18 1
305 3.9687 11.6756 0.793701 -3.50575e-08 0.00266396 7.68091e-18 1
727 4.76242 11.7568 1.5874 -3.55385e-08 0.00304788 5.06565e-18 1
272 6.34975 11.0762 0.793701 -2.27211e-08 0.00358292 2.92624e-17 1
686 5.5561 11.0284 1.5874 -3.29495e-08 0.00335673 2.41098e-17 1
309 5.5561 11.8221 0.793701 -3.29495e-08 0.00335673 1.43135e-17 1
731 6.34975 11.8699 1.5874 -2.27211e-08 0.00358292 1.83421e-17 1
276 7.93701 11.1152 0.793701 6.0825e-17 0.00376726 2.67364e-17 1
690 7.14339 11.1054 1.5874 2.32299e-09 0.00372089 5.23736e-17 1
694 8.73062 11.1054 1.5874 -2.32299e-09 0.00372089 1.40263e-17 1
313 7.14339 11.8991 0.793701 2.32299e-09 0.00372089 8.50198e-18 1
317 8.73062 11.8991 0.793701 -2.32299e-09 0.00372089 1.28191e-18 1
735 7.93701 11.9089 1.5874 1.19352e-17 0.00376726 1.46276e-17 1
280 9.52426 11.0762 0.793701 2.27211e-08 0.00358292 4.66532e-18 1
698 10.3179 11.0284 1.5874 3.29495e-08 0.00335673 -2.04867e-17 1
321 10.3179 11.8221 0.793701 3.29495e-08 0.00335673 1.03686e-17 1
739 9.52426 11.8699 1.5874 2.27211e-08 0.00358292 1.72544e-18 1
282 11.9053 10.8819 -6.22998e-16 3.50575e-08 0.00266396 6.48044e-17 1
284 11.1116 10.9631 0.793701 3.55385e-08 0.00304788 2.87269e-17 1
702 11.9053 10.8819 1.5874 3.50575e-08 0.00266396 5.76277e-18 1
325 11.9053 11.6756 0.793701 3.50575e-08 0.00266396 4.97777e-17 1
743 11.1116 11.7568 1.5874 3.55385e-08 0.00304788 1.05844e-17 1
286 13.4928 10.6802 -6.12852e-16 2.58527e-08 0.00171035 8.83017e-17 1
706 13.4928 10.6802 1.5874 2.58527e-08 0.00171035 5.21709e-17 1
288 12.699 10.7869 0.793701 3.17588e-08 0.00221443 5.90497e-17 1
329 13.4928 11.4739 0.793701 2.58527e-08 0.00171035 7.89485e-17 1
747 12.699 11.5806 1.5874 3.17588e-08 0.00221443 3.60422e-17 1
748 13.4928 12.2676 1.5874 2.58527e-08 0.00171035 5.25251e-17 1
331 14.2866 11.3583 -2.92531e-16 1.81974e-08 0.00116416 1.19933e-16 1
332 15.0803 12.0303 -9.47779e-17 9.52063e-09 0.000589317 1.43894e-16 1
333 15.0803 11.2366 0.793701 9.52063e-09 0.000589317 9.94678e-17 1
334 14.2866 12.152 0.793701 1.81974e-08 0.00116416 8.88451e-17 1
335 15.874 11.1118 1.05046e-16 5.52908e-17 -5.84361e-18 1.33155e-16 1
336 15.874 11.9055 0.793701 3.9509e-17 -3.87424e-17 8.35859e-17 1
751 14.2866 11.3583 1.5874 1.81974e-08 0.00116416 6.2412e-17 1
752 15.0803 12.0303 1.5874 9.52063e-09 0.000589317 4.78617e-17 1
755 15.874 11.1118 1.5874 6.1692e-17 -3.77641e-17 6.4318e-17 1
337 1.75378e-16 12.6992 -1.21729e-16 -1.27594e-16 -1.03417e-16 7.30116e-19 1
338 0.793717 13.6177 -4.58056e-16 -9.52063e-09 0.000589317 -6.60871e-18 1
339 0.793717 12.824 0.793701 -9.52063e-09 0.000589317 -4.14119e-17 1
340 -1.46959e-16 13.4929 0.793701 -1.51659e-16 -9.2368e-17 -1.24988e-17 1
341 1.58746 12.9457 -4.44066e-16 -1.81974e-08 0.00116416 -6.18551e-18 1
344 1.58746 13.7394 0.793701 -1.81974e-08 0.00116416 -1.73362e-17 1
757 2.51657e-16 12.6992 1.5874 -1.94199e-16 -1.06069e-16 -1.13127e-17 1
758 0.793717 13.6177 1.5874 -9.52063e-09 0.000589317 -2.74502e-17 1
761 1.58746 12.9457 1.5874 -1.81974e-08 0.00116416 -1.30539e-17 1
306 3.17496 12.3743 0.793701 -3.17588e-08 0.00221443 -7.47865e-18 1
342 2.38121 13.855 -6.34137e-16 -2.58527e-08 0.00171035 3.72642e-17 1
343 2.38121 13.0613 0.793701 -2.58527e-08 0.00171035 -7.90406e-18 1
345 3.17496 13.168 -5.86771e-16 -3.17588e-08 0.00221443 1.99092e-17 1
348 3.17496 13.9617 0.793701 -3.17588e-08 0.00221443 1.62235e-17 1
762 2.38121 13.855 1.5874 -2.58527e-08 0.00171035 -5.12279e-18 1
765 3.17496 13.168 1.5874 -3.17588e-08 0.00221443 -7.33228e-18 1
724 3.9687 12.4693 1.5874 -3.50575e-08 0.00266396 -4.77588e-19 1
310 4.76242 12.5505 0.793701 -3.55385e-08 0.00304788 9.00263e-18 1
346 3.9687 14.0567 -6.51281e-16 -3.50575e-08 0.00266396 1.03577e-17 1
347 3.9687 13.263 0.793701 -3.50575e-08 0.00266396 3.56254e-18 1
349 4.76242 13.3442 -6.16461e-16 -3.55385e-08 0.00304788 1.2676e-18 1
352 4.76242 14.1379 0.793701 -3.55385e-08 0.00304788 1.06472e-18 1
766 3.9687 14.0567 1.5874 -3.50575e-08 0.00266396 -1.51135e-19 1
769 4.76242 13.3442 1.5874 -3.55385e-08 0.00304788 5.98598e-19 1
314 6.34975 12.6636 0.793701 -2.27211e-08 0.00358292 1.3531e-17 1
728 5.5561 12.6158 1.5874 -3.29495e-08 0.00335673 4.005e-18 1
351 5.5561 13.4095 0.793701 -3.29495e-08 0.00335673 1.06398e-17 1
773 6.34975 13.4573 1.5874 -2.27211e-08 0.00358292 1.12789e-18 1
318 7.93701 12.7026 0.793701 -4.26044e-18 0.00376726 1.20757e-18 1
732 7.14339 12.6928 1.5874 2.32299e-09 0.00372089 1.21856e-18 1
736 8.73062 12.6928 1.5874 -2.32299e-09 0.00372089 -2.16339e-18 1
355 7.14339 13.4865 0.793701 2.32299e-09 0.00372089 6.05775e-18 1
359 8.73062 13.4865 0.793701 -2.32299e-09 0.00372089 2.44444e-18 1
777 7.93701 13.4963 1.5874 -7.01504e-18 0.00376726 -5.92921e-18 1