ITEM: TIMESTEP
5000
ITEM: NUMBER OF ATOMS
8000
ITEM: BOX BOUNDS pp pp pp
0.0000000000000000e+00 3.1748021039364001e+01
0.0000000000000000e+00 1.5874010519682001e+01
0.0000000000000000e+00 1.5874010519682001e+01
ITEM: ATOMS id x y z vx vy vz c_rho_peratom
1 7.00047e-17 -2.53916e-16 7.78698e-17 -1.29535e-17 -1.20626e-17 8.00746e-18 1
2 0.793701 0.829226 -3.55347e-17 -7.81084e-09 0.00128688 1.74368e-17 1
3 0.793701 0.0355256 0.793701 -7.81084e-09 0.00128688 1.21972e-17 1
4 7.25172e-17 0.793701 0.793701 3.88769e-18 -1.0875e-17 2.02944e-18 1
5 1.5874 0.0701726 -1.05326e-16 -1.57225e-08 0.00254207 2.91707e-17 1
8 1.5874 0.863873 0.793701 -1.57225e-08 0.00254207 1.69668e-17 1
43 2.8965e-17 1.5874 7.25724e-17 3.43058e-18 -6.07092e-18 1.30846e-18 1
45 0.793701 1.62293 0.793701 -7.81084e-09 0.00128688 4.82319e-18 1
47 1.5874 1.65757 -1.65616e-16 -1.57225e-08 0.00254207 1.72944e-17 1
421 7.84083e-17 -2.2569e-16 1.5874 2.33611e-18 -1.44512e-17 2.59692e-20 1
422 0.793701 0.829226 1.5874 -7.81084e-09 0.00128688 3.98351e-18 1
425 1.5874 0.0701726 1.5874 -1.57225e-08 0.00254207 1.0877e-17 1
463 6.3823e-17 1.5874 1.5874 1.52198e-17 -1.151e-17 -2.54638e-18 1
467 1.5874 1.65757 1.5874 -1.57225e-08 0.00254207 4.00815e-18 1
6 2.3811 0.896789 -2.22806e-16 -2.34811e-08 0.00373467 3.17027e-17 1
7 2.3811 0.103089 0.793701 -2.34811e-08 0.00373467 2.55372e-17 1
9 3.17481 0.133463 -3.0056e-16 -3.02092e-08 0.00483531 2.62058e-17 1
12 3.17481 0.927164 0.793701 -3.02092e-08 0.00483531 2.18805e-17 1
49 2.3811 1.69049 0.793701 -2.34811e-08 0.00373467 1.20572e-17 1
51 3.17481 1.72086 -3.20037e-16 -3.02092e-08 0.00483531 2.17065e-17 1
426 2.3811 0.896789 1.5874 -2.34811e-08 0.00373467 1.12273e-17 1
429 3.17481 0.133463 1.5874 -3.02092e-08 0.00483531 1.93358e-17 1
471 3.17481 1.72086 1.5874 -3.02092e-08 0.00483531 9.67399e-18 1
10 3.96851 0.954251 -2.915e-16 -3.47769e-08 0.00581689 2.53883e-17 1
11 3.96851 0.16055 0.793701 -3.47769e-08 0.00581689 2.52983e-17 1
16 4.76221 0.977383 0.793701 -3.7033e-08 0.00665524 3.13878e-17 1
53 3.96851 1.74795 0.793701 -3.47769e-08 0.00581689 2.10489e-17 1
430 3.96851 0.954251 1.5874 -3.47769e-08 0.00581689 1.93389e-17 1
433 4.76221 0.183682 1.5874 -3.7033e-08 0.00665524 2.43304e-17 1
475 4.76221 1.77108 1.5874 -3.7033e-08 0.00665524 3.02998e-17 1
15 5.55591 0.202292 0.793701 -3.6549e-08 0.00732971 2.27239e-17 1
20 6.34961 1.00962 0.793701 -2.3125e-08 0.00782371 2.06995e-17 1
57 5.55591 1.78969 0.793701 -3.6549e-08 0.00732971 3.34287e-17 1
434 5.55591 0.995992 1.5874 -3.6549e-08 0.00732971 3.164e-17 1
437 6.34961 0.215921 1.5874 -2.3125e-08 0.00782371 1.74933e-17 1
479 6.34961 1.80332 1.5874 -2.3125e-08 0.00782371 2.80224e-17 1
19 7.14331 0.224235 0.793701 1.8839e-08 0.00812506 9.41128e-18 1
23 8.7307 0.224235 0.793701 -1.8839e-08 0.00812506 9.99137e-18 1
24 7.93701 1.02073 0.793701 1.68255e-17 0.00822634 1.10688e-17 1
61 7.14331 1.81164 0.793701 1.8839e-08 0.00812506 1.62886e-17 1
65 8.7307 1.81164 0.793701 -1.8839e-08 0.00812506 1.85452e-17 1
438 7.14331 1.01794 1.5874 1.8839e-08 0.00812506 1.67551e-17 1
441 7.93701 0.227029 1.5874 2.12182e-17 0.00822634 9.5791e-18 1
442 8.7307 1.01794 1.5874 -1.8839e-08 0.00812506 1.69401e-17 1
483 7.93701 1.81443 1.5874 1.09761e-17 0.00822634 1.98248e-17 1
27 10.3181 0.202292 0.793701 3.6549e-08 0.00732971 2.81978e-17 1
28 9.5244 1.00962 0.793701 2.3125e-08 0.00782371 2.36452e-17 1
69 10.3181 1.78969 0.793701 3.6549e-08 0.00732971 4.09495e-17 1
445 9.5244 0.215921 1.5874 2.3125e-08 0.00782371 3.03718e-17 1
446 10.3181 0.995992 1.5874 3.6549e-08 0.00732971 4.24393e-17 1
487 9.5244 1.80332 1.5874 2.3125e-08 0.00782371 3.1839e-17 1
30 11.9055 0.954251 -1.8905e-16 3.47769e-08 0.00581689 2.96019e-17 1
31 11.9055 0.16055 0.793701 3.47769e-08 0.00581689 5.1593e-17 1
32 11.1118 0.977383 0.793701 3.7033e-08 0.00665524 4.23121e-17 1
73 11.9055 1.74795 0.793701 3.47769e-08 0.00581689 3.11726e-17 1
449 11.1118 0.183682 1.5874 3.7033e-08 0.00665524 5.73122e-17 1
450 11.9055 0.954251 1.5874 3.47769e-08 0.00581689 4.9696e-17 1
491 11.1118 1.77108 1.5874 3.7033e-08 0.00665524 4.7472e-17 1
33 12.6992 0.133463 -2.18632e-16 3.02092e-08 0.00483531 4.07582e-17 1
34 13.4929 0.896789 -1.28118e-16 2.34811e-08 0.00373467 3.77162e-17 1
35 13.4929 0.103089 0.793701 2.34811e-08 0.00373467 6.70482e-17 1
36 12.6992 0.927164 0.793701 3.02092e-08 0.00483531 5.00176e-17 1
75 12.6992 1.72086 -2.28273e-16 3.02092e-08 0.00483531 2.20285e-17 1
77 13.4929 1.69049 0.793701 2.34811e-08 0.00373467 4.71836e-17 1
453 12.6992 0.133463 1.5874 3.02092e-08 0.00483531 6.39864e-17 1
454 13.4929 0.896789 1.5874 2.34811e-08 0.00373467 6.88532e-17 1
495 12.6992 1.72086 1.5874 3.02092e-08 0.00483531 4.93406e-17 1
37 14.2866 0.0701726 -5.35443e-17 1.57225e-08 0.00254207 4.42879e-17 1
38 15.0803 0.829226 5.06008e-17 7.81084e-09 0.00128688 3.01483e-17 1
39 15.0803 0.0355256 0.793701 7.81084e-09 0.00128688 6.834e-17 1
40 14.2866 0.863873 0.793701 1.57225e-08 0.00254207 6.84286e-17 1
41 15.874 1.3927e-17 1.27355e-16 3.37287e-18 -4.70898e-17 2.59887e-17 1
42 15.874 0.793701 0.793701 -1.56191e-17 -3.28736e-17 4.61393e-17 1
79 14.2866 1.65757 -7.10442e-17 1.57225e-08 0.00254207 1.8214e-17 1
81 15.0803 1.62293 0.793701 7.81084e-09 0.00128688 5.41511e-17 1
83 15.874 1.5874 8.50866e-17 -6.88374e-18 -6.81092e-18 1.54136e-17 1
457 14.2866 0.0701726 1.5874 1.57225e-08 0.00254207 7.33636e-17 1
458 15.0803 0.829226 1.5874 7.81084e-09 0.00128688 7.77632e-17 1
461 15.874 5.20946e-17 1.5874 -4.64432e-17 -3.96836e-17 4.42938e-17 1
499 14.2866 1.65757 1.5874 1.57225e-08 0.00254207 7.95981e-17 1
503 15.874 1.5874 1.5874 -4.53394e-17 -2.46376e-17 4.76944e-17 1
44 0.793701 2.41663 -1.18899e-16 -7.81084e-09 0.00128688 9.46099e-19 1
46 4.00183e-17 2.3811 0.793701 1.53365e-17 -8.55307e-18 -3.24746e-18 1
50 1.5874 2.45127 0.793701 -1.57225e-08 0.00254207 3.45893e-18 1
85 6.36562e-17 3.1748 -6.07944e-17 1.77197e-17 -1.44789e-17 -4.10853e-18 1
87 0.793701 3.21033 0.793701 -7.81084e-09 0.00128688 -1.96708e-18 1
89 1.5874 3.24497 -2.18066e-16 -1.57225e-08 0.00254207 8.5518e-21 1
464 0.793701 2.41663 1.5874 -7.81084e-09 0.00128688 9.81318e-19 1
505 7.48106e-17 3.1748 1.5874 2.13168e-17 -1.31098e-17 -1.72534e-18 1
509 1.5874 3.24497 1.5874 -1.57225e-08 0.00254207 3.57431e-18 1
48 2.3811 2.48419 -2.86484e-16 -2.34811e-08 0.00373467 9.91887e-18 1
54 3.17481 2.51456 0.793701 -3.02092e-08 0.00483531 1.15889e-17 1
91 2.3811 3.27789 0.793701 -2.34811e-08 0.00373467 6.97496e-18 1
93 3.17481 3.30827 -3.00987e-16 -3.02092e-08 0.00483531 1.02252e-17 1
468 2.3811 2.48419 1.5874 -2.34811e-08 0.00373467 6.40673e-18 1
513 3.17481 3.30827 1.5874 -3.02092e-08 0.00483531 1.26591e-17 1
52 3.96851 2.54165 -2.38013e-16 -3.47769e-08 0.00581689 1.84238e-17 1
58 4.76221 2.56478 0.793701 -3.7033e-08 0.00665524 2.90704e-17 1
95 3.96851 3.33535 0.793701 -3.47769e-08 0.00581689 1.78432e-17 1
472 3.96851 2.54165 1.5874 -3.47769e-08 0.00581689 1.79391e-17 1
517 4.76221 3.35848 1.5874 -3.7033e-08 0.00665524 2.39548e-17 1
62 6.34961 2.59702 0.793701 -2.3125e-08 0.00782371 2.31443e-17 1
99 5.55591 3.37709 0.793701 -3.6549e-08 0.00732971 2.31176e-17 1
476 5.55591 2.58339 1.5874 -3.6549e-08 0.00732971 3.23655e-17 1
521 6.34961 3.39072 1.5874 -2.3125e-08 0.00782371 2.40301e-17 1
66 7.93701 2.60813 0.793701 2.78764e-18 0.00822634 1.69666e-17 1
103 7.14331 3.39904 0.793701 1.8839e-08 0.00812506 1.56227e-17 1
107 8.7307 3.39904 0.793701 -1.8839e-08 0.00812506 2.22235e-17 1
480 7.14331 2.60534 1.5874 1.8839e-08 0.00812506 2.40899e-17 1
484 8.7307 2.60534 1.5874 -1.8839e-08 0.00812506 2.89536e-17 1
525 7.93701 3.40183 1.5874 -7.02584e-21 0.00822634 2.65432e-17 1
70 9.5244 2.59702 0.793701 2.3125e-08 0.00782371 3.13331e-17 1
111 10.3181 3.37709 0.793701 3.6549e-08 0.00732971 3.92955e-17 1
488 10.3181 2.58339 1.5874 3.6549e-08 0.00732971 5.00966e-17 1
529 9.5244 3.39072 1.5874 2.3125e-08 0.00782371 4.18202e-17 1
72 11.9055 2.54165 -2.85073e-16 3.47769e-08 0.00581689 1.63377e-17 1
74 11.1118 2.56478 0.793701 3.7033e-08 0.00665524 3.79346e-17 1
115 11.9055 3.33535 0.793701 3.47769e-08 0.00581689 2.34838e-17 1
492 11.9055 2.54165 1.5874 3.47769e-08 0.00581689 3.87467e-17 1
533 11.1118 3.35848 1.5874 3.7033e-08 0.00665524 4.92759e-17 1
76 13.4929 2.48419 -2.0838e-16 2.34811e-08 0.00373467 1.64742e-17 1
78 12.6992 2.51456 0.793701 3.02092e-08 0.00483531 2.55542e-17 1
117 12.6992 3.30827 -3.35286e-16 3.02092e-08 0.00483531 1.35166e-17 1
119 13.4929 3.27789 0.793701 2.34811e-08 0.00373467 3.05454e-17 1
496 13.4929 2.48419 1.5874 2.34811e-08 0.00373467 5.40387e-17 1
537 12.6992 3.30827 1.5874 3.02092e-08 0.00483531 3.50492e-17 1
80 15.0803 2.41663 -3.16515e-17 7.81084e-09 0.00128688 9.60554e-18 1
82 14.2866 2.45127 0.793701 1.57225e-08 0.00254207 4.12462e-17 1
84 15.874 2.3811 0.793701 -2.47293e-17 1.32893e-18 2.50543e-17 1
121 14.2866 3.24497 -1.48501e-16 1.57225e-08 0.00254207 1.68811e-17 1
123 15.0803 3.21033 0.793701 7.81084e-09 0.00128688 2.58174e-17 1
125 15.874 3.1748 5.50819e-17 -2.38854e-17 1.45277e-17 1.00934e-17 1
500 15.0803 2.41663 1.5874 7.81084e-09 0.00128688 5.84849e-17 1
541 14.2866 3.24497 1.5874 1.57225e-08 0.00254207 4.59028e-17 1
545 15.874 3.1748 1.5874 -3.9955e-17 3.07369e-18 2.5183e-17 1
86 0.793701 4.00403 -1.42306e-16 -7.81084e-09 0.00128688 -1.65388e-18 1
88 9.21094e-17 3.9685 0.793701 2.09112e-17 -3.13004e-17 -1.95724e-18 1
92 1.5874 4.03868 0.793701 -1.57225e-08 0.00254207 1.4891e-18 1
127 6.9154e-17 4.7622 -1.28311e-17 1.78098e-17 -5.55118e-17 2.58946e-19 1
129 0.793701 4.79773 0.793701 -7.81084e-09 0.00128688 2.34743e-18 1
131 1.5874 4.83238 -1.6934e-16 -1.57225e-08 0.00254207 1.73722e-18 1
506 0.793701 4.00403 1.5874 -7.81084e-09 0.00128688 1.94337e-18 1
547 6.09357e-17 4.7622 1.5874 2.31352e-17 -5.02076e-17 2.62032e-18 1
551 1.5874 4.83238 1.5874 -1.57225e-08 0.00254207 6.04975e-18 1
90 2.3811 4.07159 -2.43413e-16 -2.34811e-08 0.00373467 4.50776e-18 1
96 3.17481 4.10197 0.793701 -3.02092e-08 0.00483531 1.05643e-17 1
133 2.3811 4.86529 0.793701 -2.34811e-08 0.00373467 5.56794e-18 1
135 3.17481 4.89567 -2.79902e-16 -3.02092e-08 0.00483531 6.01661e-18 1
510 2.3811 4.07159 1.5874 -2.34811e-08 0.00373467 6.66083e-18 1
555 3.17481 4.89567 1.5874 -3.02092e-08 0.00483531 8.65417e-18 1
94 3.96851 4.12905 -2.60333e-16 -3.47769e-08 0.00581689 1.07469e-17 1
100 4.76221 4.15219 0.793701 -3.7033e-08 0.00665524 1.65336e-17 1
137 3.96851 4.92275 0.793701 -3.47769e-08 0.00581689 1.08792e-17 1
514 3.96851 4.12905 1.5874 -3.47769e-08 0.00581689 1.42558e-17 1
559 4.76221 4.94589 1.5874 -3.7033e-08 0.00665524 1.48134e-17 1
104 6.34961 4.18442 0.793701 -2.3125e-08 0.00782371 1.37635e-17 1
141 5.55591 4.9645 0.793701 -3.6549e-08 0.00732971 1.3518e-17 1
518 5.55591 4.17079 1.5874 -3.6549e-08 0.00732971 1.94561e-17 1
563 6.34961 4.97812 1.5874 -2.3125e-08 0.00782371 1.58394e-17 1
108 7.93701 4.19553 0.793701 -8.79275e-18 0.00822634 1.64192e-17 1
145 7.14331 4.98644 0.793701 1.8839e-08 0.00812506 1.24733e-17 1
149 8.7307 4.98644 0.793701 -1.8839e-08 0.00812506 2.12508e-17 1
522 7.14331 4.19274 1.5874 1.8839e-08 0.00812506 2.1046e-17 1
526 8.7307 4.19274 1.5874 -1.8839e-08 0.00812506 3.20056e-17 1
567 7.93701 4.98923 1.5874 -5.04737e-18 0.00822634 2.18981e-17 1
112 9.5244 4.18442 0.793701 2.3125e-08 0.00782371 2.90782e-17 1
153 10.3181 4.9645 0.793701 3.6549e-08 0.00732971 3.0086e-17 1
530 10.3181 4.17079 1.5874 3.6549e-08 0.00732971 4.88877e-17 1
571 9.5244 4.97812 1.5874 2.3125e-08 0.00782371 3.87572e-17 1
114 11.9055 4.12905 -4.20771e-16 3.47769e-08 0.00581689 3.86619e-18 1
116 11.1118 4.15219 0.793701 3.7033e-08 0.00665524 3.0466e-17 1
157 11.9055 4.92275 0.793701 3.47769e-08 0.00581689 1.3013e-17 1
534 11.9055 4.12905 1.5874 3.47769e-08 0.00581689 3.25329e-17 1
575 11.1118 4.94589 1.5874 3.7033e-08 0.00665524 4.06267e-17 1
118 13.4929 4.07159 -2.8992e-16 2.34811e-08 0.00373467 1.67929e-17 1
120 12.6992 4.10197 0.793701 3.02092e-08 0.00483531 1.982e-17 1
159 12.6992 4.89567 -4.50085e-16 3.02092e-08 0.00483531 6.36874e-18 1
161 13.4929 4.86529 0.793701 2.34811e-08 0.00373467 1.55797e-17 1
538 13.4929 4.07159 1.5874 2.34811e-08 0.00373467 3.61668e-17 1
579 12.6992 4.89567 1.5874 3.02092e-08 0.00483531 2.33058e-17 1
122 15.0803 4.00403 -6.49492e-17 7.81084e-09 0.00128688 1.88196e-17 1
124 14.2866 4.03868 0.793701 1.57225e-08 0.00254207 2.69597e-17 1
126 15.874 3.9685 0.793701 -2.58911e-17 1.26689e-17 1.3407e-17 1
163 14.2866 4.83238 -2.06324e-16 1.57225e-08 0.00254207 1.45919e-17 1
165 15.0803 4.79773 0.793701 7.81084e-09 0.00128688 1.63993e-17 1
167 15.874 4.7622 4.02143e-17 -9.39125e-18 1.097e-17 1.08285e-18 1
542 15.0803 4.00403 1.5874 7.81084e-09 0.00128688 2.8063e-17 1
583 14.2866 4.83238 1.5874 1.57225e-08 0.00254207 2.92892e-17 1
587 15.874 4.7622 1.5874 -2.65952e-17 5.62267e-19 1.98208e-17 1
128 0.793701 5.59143 -7.7905e-17 -7.81084e-09 0.00128688 2.23457e-18 1
130 9.44062e-18 5.5559 0.793701 1.65663e-17 -6.68691e-17 3.48847e-18 1
134 1.5874 5.62608 0.793701 -1.57225e-08 0.00254207 5.62263e-18 1
169 -2.02235e-18 6.3496 1.49842e-17 1.39809e-17 -7.30656e-17 2.69724e-18 1
171 0.793701 6.38513 0.793701 -7.81084e-09 0.00128688 4.6736e-18 1
173 1.5874 6.41978 -1.44167e-16 -1.57225e-08 0.00254207 3.15761e-18 1
548 0.793701 5.59143 1.5874 -7.81084e-09 0.00128688 6.53685e-18 1
589 -5.03494e-18 6.3496 1.5874 1.43376e-17 -7.39488e-17 4.49981e-18 1
593 1.5874 6.41978 1.5874 -1.57225e-08 0.00254207 1.14114e-17 1
132 2.3811 5.65899 -2.2295e-16 -2.34811e-08 0.00373467 3.62593e-18 1
138 3.17481 5.68937 0.793701 -3.02092e-08 0.00483531 8.45963e-18 1
175 2.3811 6.45269 0.793701 -2.34811e-08 0.00373467 8.14057e-18 1
177 3.17481 6.48307 -2.88566e-16 -3.02092e-08 0.00483531 3.4701e-18 1
552 2.3811 5.65899 1.5874 -2.34811e-08 0.00373467 1.20199e-17 1
597 3.17481 6.48307 1.5874 -3.02092e-08 0.00483531 1.97942e-17 1
136 3.96851 5.71645 -2.98961e-16 -3.47769e-08 0.00581689 5.19565e-18 1
142 4.76221 5.73959 0.793701 -3.7033e-08 0.00665524 1.90339e-17 1
179 3.96851 6.51015 0.793701 -3.47769e-08 0.00581689 2.02016e-17 1
181 4.76221 6.53329 -3.52384e-16 -3.7033e-08 0.00665524 4.96898e-18 1
556 3.96851 5.71645 1.5874 -3.47769e-08 0.00581689 1.62205e-17 1
601 4.76221 6.53329 1.5874 -3.7033e-08 0.00665524 2.16719e-17 1
146 6.34961 5.77182 0.793701 -2.3125e-08 0.00782371 1.2157e-17 1
183 5.55591 6.5519 0.793701 -3.6549e-08 0.00732971 1.84129e-17 1
560 5.55591 5.7582 1.5874 -3.6549e-08 0.00732971 1.58422e-17 1
605 6.34961 6.56553 1.5874 -2.3125e-08 0.00782371 1.36948e-17 1
150 7.93701 5.78293 0.793701 -8.22359e-18 0.00822634 1.53531e-17 1
187 7.14331 6.57384 0.793701 1.8839e-08 0.00812506 1.11646e-17 1
191 8.7307 6.57384 0.793701 -1.8839e-08 0.00812506 1.534e-17 1
564 7.14331 5.78014 1.5874 1.8839e-08 0.00812506 1.48606e-17 1
568 8.7307 5.78014 1.5874 -1.8839e-08 0.00812506 2.4759e-17 1
609 7.93701 6.57663 1.5874 3.33793e-22 0.00822634 1.58794e-17 1
154 9.5244 5.77182 0.793701 2.3125e-08 0.00782371 2.36452e-17 1
195 10.3181 6.5519 0.793701 3.6549e-08 0.00732971 1.80563e-17 1
572 10.3181 5.7582 1.5874 3.6549e-08 0.00732971 4.10516e-17 1
613 9.5244 6.56553 1.5874 2.3125e-08 0.00782371 2.63374e-17 1
156 11.9055 5.71645 -4.75772e-16 3.47769e-08 0.00581689 -3.11288e-18 1
158 11.1118 5.73959 0.793701 3.7033e-08 0.00665524 1.79028e-17 1
199 11.9055 6.51015 0.793701 3.47769e-08 0.00581689 9.46549e-18 1
576 11.9055 5.71645 1.5874 3.47769e-08 0.00581689 2.19048e-17 1
617 11.1118 6.53329 1.5874 3.7033e-08 0.00665524 3.00578e-17 1
160 13.4929 5.65899 -3.63222e-16 2.34811e-08 0.00373467 -7.2421e-19 1
162 12.6992 5.68937 0.793701 3.02092e-08 0.00483531 8.21386e-18 1
201 12.6992 6.48307 -4.59387e-16 3.02092e-08 0.00483531 -5.90603e-18 1
203 13.4929 6.45269 0.793701 2.34811e-08 0.00373467 9.08754e-19 1
580 13.4929 5.65899 1.5874 2.34811e-08 0.00373467 1.83427e-17 1
621 12.6992 6.48307 1.5874 3.02092e-08 0.00483531 2.26121e-17 1
164 15.0803 5.59143 -8.27667e-17 7.81084e-09 0.00128688 -6.87288e-18 1
166 14.2866 5.62608 0.793701 1.57225e-08 0.00254207 4.76928e-18 1
168 15.874 5.5559 0.793701 -1.7703e-17 -9.96409e-19 4.3763e-18 1
205 14.2866 6.41978 -1.79804e-16 1.57225e-08 0.00254207 -1.22259e-17 1
207 15.0803 6.38513 0.793701 7.81084e-09 0.00128688 -2.39553e-18 1
209 15.874 6.3496 1.04815e-16 -1.46479e-17 1.6387e-17 -2.6235e-17 1
584 15.0803 5.59143 1.5874 7.81084e-09 0.00128688 2.37248e-17 1
625 14.2866 6.41978 1.5874 1.57225e-08 0.00254207 1.00856e-17 1
629 15.874 6.3496 1.5874 -2.27584e-17 3.85668e-18 1.44464e-17 1
170 0.793701 7.17883 -7.05651e-17 -7.81084e-09 0.00128688 2.44645e-18 1
172 1.3159e-17 7.1433 0.793701 1.04821e-17 -7.42441e-17 4.27696e-18 1
176 1.5874 7.21348 0.793701 -1.57225e-08 0.00254207 5.25078e-18 1
211 -1.89765e-17 7.93701 -1.04261e-17 4.44544e-18 -7.30362e-17 3.74994e-18 1
212 0.793701 8.76623 -1.0907e-16 -7.81084e-09 0.00128688 3.60833e-18 1
213 0.793701 7.97253 0.793701 -7.81084e-09 0.00128688 4.90156e-18 1
214 -5.46929e-18 8.73071 0.793701 -1.67053e-17 -5.25093e-17 1.79808e-17 1
215 1.5874 8.00718 -1.55098e-16 -1.57225e-08 0.00254207 1.38729e-18 1
218 1.5874 8.80088 0.793701 -1.57225e-08 0.00254207 5.29667e-18 1
590 0.793701 7.17883 1.5874 -7.81084e-09 0.00128688 5.04903e-18 1
631 2.94733e-17 7.93701 1.5874 -2.40756e-18 -6.11191e-17 5.61715e-18 1
632 0.793701 8.76623 1.5874 -7.81084e-09 0.00128688 8.22955e-18 1
635 1.5874 8.00718 1.5874 -1.57225e-08 0.00254207 8.1372e-18 1
174 2.3811 7.24639 -2.13925e-16 -2.34811e-08 0.00373467 2.58832e-18 1
180 3.17481 7.27677 0.793701 -3.02092e-08 0.00483531 1.0371e-17 1
216 2.3811 8.83379 -2.698e-16 -2.34811e-08 0.00373467 -4.57705e-21 1
217 2.3811 8.04009 0.793701 -2.34811e-08 0.00373467 5.89847e-18 1
219 3.17481 8.07047 -3.11996e-16 -3.02092e-08 0.00483531 1.40275e-18 1
222 3.17481 8.86417 0.793701 -3.02092e-08 0.00483531 6.5177e-18 1
594 2.3811 7.24639 1.5874 -2.34811e-08 0.00373467 1.36026e-17 1
636 2.3811 8.83379 1.5874 -2.34811e-08 0.00373467 1.2193e-17 1
639 3.17481 8.07047 1.5874 -3.02092e-08 0.00483531 1.44492e-17 1
178 3.96851 7.30385 -3.50309e-16 -3.47769e-08 0.00581689 3.18941e-18 1
184 4.76221 7.32699 0.793701 -3.7033e-08 0.00665524 1.89973e-17 1
221 3.96851 8.09756 0.793701 -3.47769e-08 0.00581689 1.05544e-17 1
598 3.96851 7.30385 1.5874 -3.47769e-08 0.00581689 2.00619e-17 1
643 4.76221 8.12069 1.5874 -3.7033e-08 0.00665524 1.42127e-17 1
188 6.34961 7.35923 0.793701 -2.3125e-08 0.00782371 9.43388e-18 1
225 5.55591 8.1393 0.793701 -3.6549e-08 0.00732971 8.3583e-18 1
602 5.55591 7.3456 1.5874 -3.6549e-08 0.00732971 1.44619e-17 1
647 6.34961 8.15293 1.5874 -2.3125e-08 0.00782371 1.15287e-17 1
192 7.93701 7.37033 0.793701 2.72771e-18 0.00822634 9.57373e-18 1
229 7.14331 8.16124 0.793701 1.8839e-08 0.00812506 7.08389e-18 1
233 8.7307 8.16124 0.793701 -1.8839e-08 0.00812506 7.81165e-18 1
606 7.14331 7.36754 1.5874 1.8839e-08 0.00812506 1.24885e-17 1
610 8.7307 7.36754 1.5874 -1.8839e-08 0.00812506 1.58269e-17 1
651 7.93701 8.16403 1.5874 7.41909e-18 0.00822634 1.15879e-17 1
196 9.5244 7.35923 0.793701 2.3125e-08 0.00782371 1.18369e-17 1
237 10.3181 8.1393 0.793701 3.6549e-08 0.00732971 1.01082e-17 1
614 10.3181 7.3456 1.5874 3.6549e-08 0.00732971 2.42324e-17 1
655 9.5244 8.15293 1.5874 2.3125e-08 0.00782371 1.55135e-17 1
198 11.9055 7.30385 -4.36471e-16 3.47769e-08 0.00581689 -6.84238e-18 1
200 11.1118 7.32699 0.793701 3.7033e-08 0.00665524 1.07484e-17 1
241 11.9055 8.09756 0.793701 3.47769e-08 0.00581689 1.56224e-17 1
618 11.9055 7.30385 1.5874 3.47769e-08 0.00581689 3.45015e-17 1
659 11.1118 8.12069 1.5874 3.7033e-08 0.00665524 2.97757e-17 1
202 13.4929 7.24639 -3.21832e-16 2.34811e-08 0.00373467 -9.95292e-18 1
204 12.6992 7.27677 0.793701 3.02092e-08 0.00483531 1.22429e-17 1
243 12.6992 8.07047 -4.01158e-16 3.02092e-08 0.00483531 -1.81337e-18 1
244 13.4929 8.83379 -3.55928e-16 2.34811e-08 0.00373467 -5.9721e-18 1
245 13.4929 8.04009 0.793701 2.34811e-08 0.00373467 1.05519e-17 1
246 12.6992 8.86417 0.793701 3.02092e-08 0.00483531 1.99831e-17 1
622 13.4929 7.24639 1.5874 2.34811e-08 0.00373467 2.5675e-17 1
663 12.6992 8.07047 1.5874 3.02092e-08 0.00483531 4.72859e-17 1
664 13.4929 8.83379 1.5874 2.34811e-08 0.00373467 4.1763e-17 1
206 15.0803 7.17883 -4.76356e-17 7.81084e-09 0.00128688 -1.79687e-17 1
208 14.2866 7.21348 0.793701 1.57225e-08 0.00254207 -3.43883e-18 1
210 15.874 7.1433 0.793701 -1.73541e-17 2.36859e-17 -7.2589e-18 1
247 14.2866 8.00718 -2.0959e-16 1.57225e-08 0.00254207 -1.40579e-17 1
248 15.0803 8.76623 -1.34827e-16 7.81084e-09 0.00128688 -2.7482e-17 1
249 15.0803 7.97253 0.793701 7.81084e-09 0.00128688 -7.0519e-18 1
250 14.2866 8.80088 0.793701 1.57225e-08 0.00254207 2.94275e-18 1
251 15.874 7.93701 6.35773e-17 3.46662e-18 4.73102e-17 -3.25509e-17 1
252 15.874 8.73071 0.793701 1.63646e-17 4.74957e-17 -1.28942e-17 1
626 15.0803 7.17883 1.5874 7.81084e-09 0.00128688 4.85286e-18 1
667 14.2866 8.00718 1.5874 1.57225e-08 0.00254207 1.98538e-17 1
668 15.0803 8.76623 1.5874 7.81084e-09 0.00128688 7.84818e-18 1
671 15.874 7.93701 1.5874 -4.53383e-18 4.11892e-17 1.65162e-18 1
253 -1.77472e-17 9.52441 -8.29084e-17 -2.15687e-17 -5.29441e-17 2.11836e-17 1
254 0.793701 10.3536 -1.83885e-16 -7.81084e-09 0.00128688 1.1029e-17 1
255 0.793701 9.55993 0.793701 -7.81084e-09 0.00128688 1.25505e-17 1
256 3.08163e-17 10.3181 0.793701 -4.32604e-17 -5.74702e-17 2.33261e-17 1
257 1.5874 9.59458 -2.22486e-16 -1.57225e-08 0.00254207 1.57411e-18 1
260 1.5874 10.3883 0.793701 -1.57225e-08 0.00254207 6.08639e-18 1
673 2.22224e-17 9.52441 1.5874 -3.90693e-17 -4.82145e-17 1.11058e-17 1
674 0.793701 10.3536 1.5874 -7.81084e-09 0.00128688 9.0322e-18 1
677 1.5874 9.59458 1.5874 -1.57225e-08 0.00254207 9.90335e-18 1
258 2.3811 10.4212 -2.90365e-16 -2.34811e-08 0.00373467 1.32555e-18 1
259 2.3811 9.62749 0.793701 -2.34811e-08 0.00373467 5.52586e-18 1
261 3.17481 9.65787 -3.43459e-16 -3.02092e-08 0.00483531 1.65894e-18 1
264 3.17481 10.4516 0.793701 -3.02092e-08 0.00483531 5.09567e-18 1
678 2.3811 10.4212 1.5874 -2.34811e-08 0.00373467 9.36436e-18 1
681 3.17481 9.65787 1.5874 -3.02092e-08 0.00483531 1.17197e-17 1
220 3.96851 8.89126 -3.51367e-16 -3.47769e-08 0.00581689 2.45434e-18 1
226 4.76221 8.91439 0.793701 -3.7033e-08 0.00665524 7.26387e-18 1
640 3.96851 8.89126 1.5874 -3.47769e-08 0.00581689 1.30759e-17 1
262 3.96851 10.4787 -3.63078e-16 -3.47769e-08 0.00581689 2.43943e-18 1
263 3.96851 9.68496 0.793701 -3.47769e-08 0.00581689 6.14058e-18 1
268 4.76221 10.5018 0.793701 -3.7033e-08 0.00665524 5.77918e-18 1
682 3.96851 10.4787 1.5874 -3.47769e-08 0.00581689 1.037e-17 1
685 4.76221 9.70809 1.5874 -3.7033e-08 0.00665524 1.14638e-17 1
230 6.34961 8.94663 0.793701 -2.3125e-08 0.00782371 6.54243e-18 1
644 5.55591 8.933 1.5874 -3.6549e-08 0.00732971 1.16642e-17 1
267 5.55591 9.7267 0.793701 -3.6549e-08 0.00732971 6.90615e-18 1
272 6.34961 10.534 0.793701 -2.3125e-08 0.00782371 4.93964e-18 1
686 5.55591 10.5204 1.5874 -3.6549e-08 0.00732971 9.71114e-18 1
689 6.34961 9.74033 1.5874 -2.3125e-08 0.00782371 1.0042e-17 1
234 7.93701 8.95773 0.793701 9.50817e-18 0.00822634 5.92315e-18 1
648 7.14331 8.95494 1.5874 1.8839e-08 0.00812506 1.01539e-17 1
652 8.7307 8.95494 1.5874 -1.8839e-08 0.00812506 1.20556e-17 1
271 7.14331 9.74864 0.793701 1.8839e-08 0.00812506 5.15275e-18 1
275 8.7307 9.74864 0.793701 -1.8839e-08 0.00812506 6.91236e-18 1
276 7.93701 10.5451 0.793701 1.55103e-17 0.00822634 5.06773e-18 1
690 7.14331 10.5423 1.5874 1.8839e-08 0.00812506 7.7549e-18 1
693 7.93701 9.75144 1.5874 1.33238e-17 0.00822634 9.61278e-18 1
694 8.7307 10.5423 1.5874 -1.8839e-08 0.00812506 1.22434e-17 1
238 9.5244 8.94663 0.793701 2.3125e-08 0.00782371 8.10696e-18 1
656 10.3181 8.933 1.5874 3.6549e-08 0.00732971 1.66674e-17 1
279 10.3181 9.7267 0.793701 3.6549e-08 0.00732971 1.27983e-17 1
280 9.5244 10.534 0.793701 2.3125e-08 0.00782371 1.22417e-17 1
697 9.5244 9.74033 1.5874 2.3125e-08 0.00782371 1.56457e-17 1
698 10.3181 10.5204 1.5874 3.6549e-08 0.00732971 1.64191e-17 1
240 11.9055 8.89126 -3.92999e-16 3.47769e-08 0.00581689 1.45746e-17 1
242 11.1118 8.91439 0.793701 3.7033e-08 0.00665524 1.5135e-17 1
660 11.9055 8.89126 1.5874 3.47769e-08 0.00581689 3.48403e-17 1
282 11.9055 10.4787 -3.44561e-16 3.47769e-08 0.00581689 2.44136e-17 1
283 11.9055 9.68496 0.793701 3.47769e-08 0.00581689 1.72938e-17 1
284 11.1118 10.5018 0.793701 3.7033e-08 0.00665524 1.77163e-17 1
701 11.1118 9.70809 1.5874 3.7033e-08 0.00665524 9.01959e-18 1
702 11.9055 10.4787 1.5874 3.47769e-08 0.00581689 1.30515e-17 1
285 12.6992 9.65787 -3.94158e-16 3.02092e-08 0.00483531 7.71782e-18 1
286 13.4929 10.4212 -3.48808e-16 2.34811e-08 0.00373467 1.5058e-18 1
287 13.4929 9.62749 0.793701 2.34811e-08 0.00373467 1.6605e-17 1
288 12.6992 10.4516 0.793701 3.02092e-08 0.00483531 1.92437e-17 1
705 12.6992 9.65787 1.5874 3.02092e-08 0.00483531 3.56611e-17 1
706 13.4929 10.4212 1.5874 2.34811e-08 0.00373467 3.02441e-17 1
289 14.2866 9.59458 -2.83895e-16 1.57225e-08 0.00254207 -1.6918e-17 1
290 15.0803 10.3536 -1.25593e-16 7.81084e-09 0.00128688 -8.24287e-18 1
291 15.0803 9.55993 0.793701 7.81084e-09 0.00128688 -1.57132e-18 1
292 14.2866 10.3883 0.793701 1.57225e-08 0.00254207 1.98115e-17 1
293 15.874 9.52441 1.9719e-17 2.2993e-17 2.43667e-17 -2.41576e-17 1
294 15.874 10.3181 0.793701 1.263e-17 3.17223e-17 4.49222e-18 1
709 14.2866 9.59458 1.5874 1.57225e-08 0.00254207 2.73507e-17 1
710 15.0803 10.3536 1.5874 7.81084e-09 0.00128688 1.55405e-17 1
713 15.874 9.52441 1.5874 1.72365e-17 3.95283e-17 -2.69278e-19 1
295 1.1409e-17 11.1118 -1.13802e-16 -3.7655e-17 -5.01729e-17 2.56559e-17 1
296 0.793701 11.941 -1.58346e-16 -7.81084e-09 0.00128688 1.49635e-17 1
297 0.793701 11.1473 0.793701 -7.81084e-09 0.00128688 1.79115e-17 1
298 6.38965e-17 11.9055 0.793701 -3.7856e-17 -3.68276e-17 2.05564e-17 1
299 1.5874 11.182 -2.30523e-16 -1.57225e-08 0.00254207 2.31022e-18 1
302 1.5874 11.9757 0.793701 -1.57225e-08 0.00254207 7.47754e-18 1
715 8.99034e-17 11.1118 1.5874 -4.26455e-17 -5.21696e-17 9.36611e-18 1
716 0.793701 11.941 1.5874 -7.81084e-09 0.00128688 4.90175e-18 1
719 1.5874 11.182 1.5874 -1.57225e-08 0.00254207 6.49605e-18 1
300 2.3811 12.0086 -2.79304e-16 -2.34811e-08 0.00373467 -1.67712e-18 1
301 2.3811 11.2149 0.793701 -2.34811e-08 0.00373467 3.31919e-18 1
303 3.17481 11.2453 -3.44141e-16 -3.02092e-08 0.00483531 7.50503e-19 1
306 3.17481 12.039 0.793701 -3.02092e-08 0.00483531 -6.85219e-19 1
720 2.3811 12.0086 1.5874 -2.34811e-08 0.00373467 2.10882e-18 1
723 3.17481 11.2453 1.5874 -3.02092e-08 0.00483531 7.32829e-18 1
304 3.96851 12.0661 -3.83261e-16 -3.47769e-08 0.00581689 5.35905e-19 1
305 3.96851 11.2724 0.793701 -3.47769e-08 0.00581689 4.12695e-18 1
310 4.76221 12.0892 0.793701 -3.7033e-08 0.00665524 3.43881e-18 1
724 3.96851 12.0661 1.5874 -3.47769e-08 0.00581689 6.02158e-18 1
727 4.76221 11.2955 1.5874 -3.7033e-08 0.00665524 8.40078e-18 1
309 5.55591 11.3141 0.793701 -3.6549e-08 0.00732971 4.26358e-18 1
314 6.34961 12.1214 0.793701 -2.3125e-08 0.00782371 2.97653e-18 1
728 5.55591 12.1078 1.5874 -3.6549e-08 0.00732971 5.83876e-18 1
731 6.34961 11.3277 1.5874 -2.3125e-08 0.00782371 6.58957e-18 1
313 7.14331 11.336 0.793701 1.8839e-08 0.00812506 3.4938e-18 1
317 8.7307 11.336 0.793701 -1.8839e-08 0.00812506 8.28132e-18 1
318 7.93701 12.1325 0.793701 2.33695e-17 0.00822634 4.05682e-18 1
732 7.14331 12.1297 1.5874 1.8839e-08 0.00812506 4.55625e-18 1
735 7.93701 11.3388 1.5874 2.18286e-17 0.00822634 7.18876e-18 1
736 8.7307 12.1297 1.5874 -1.8839e-08 0.00812506 1.00317e-17 1
321 10.3181 11.3141 0.793701 3.6549e-08 0.00732971 2.17007e-17 1
322 9.5244 12.1214 0.793701 2.3125e-08 0.00782371 1.52638e-17 1
739 9.5244 11.3277 1.5874 2.3125e-08 0.00782371 1.94062e-17 1
740 10.3181 12.1078 1.5874 3.6549e-08 0.00732971 3.46582e-17 1
324 11.9055 12.0661 -2.44158e-16 3.47769e-08 0.00581689 1.70268e-17 1
325 11.9055 11.2724 0.793701 3.47769e-08 0.00581689 1.50553e-17 1
326 11.1118 12.0892 0.793701 3.7033e-08 0.00665524 2.31064e-17 1
743 11.1118 11.2955 1.5874 3.7033e-08 0.00665524 2.24834e-17 1
744 11.9055 12.0661 1.5874 3.47769e-08 0.00581689 2.95149e-17 1
327 12.6992 11.2453 -3.38007e-16 3.02092e-08 0.00483531 1.23929e-17 1
328 13.4929 12.0086 -2.60756e-16 2.34811e-08 0.00373467 1.39292e-17 1
329 13.4929 11.2149 0.793701 2.34811e-08 0.00373467 1.87187e-17 1
330 12.6992 12.039 0.793701 3.02092e-08 0.00483531 1.74846e-17 1
747 12.6992 11.2453 1.5874 3.02092e-08 0.00483531 2.09058e-17 1
748 13.4929 12.0086 1.5874 2.34811e-08 0.00373467 1.80071e-17 1
331 14.2866 11.182 -2.20497e-16 1.57225e-08 0.00254207 6.39036e-18 1
332 15.0803 11.941 -6.89883e-17 7.81084e-09 0.00128688 4.10165e-18 1
333 15.0803 11.1473 0.793701 7.81084e-09 0.00128688 2.62878e-17 1
334 14.2866 11.9757 0.793701 1.57225e-08 0.00254207 2.26513e-17 1
335 15.874 11.1118 4.45128e-17 2.61071e-17 2.07767e-17 -1.40718e-17 1
336 15.874 11.9055 0.793701 5.25484e-19 -4.10427e-18 2.23231e-18 1
751 14.2866 11.182 1.5874 1.57225e-08 0.00254207 2.1377e-17 1
752 15.0803 11.941 1.5874 7.81084e-09 0.00128688 1.15604e-17 1
755 15.874 11.1118 1.5874 -1.50219e-17 1.55148e-17 6.00461e-18 1
337 3.07785e-17 12.6992 -6.84898e-17 -4.01498e-17 -2.75967e-17 1.30579e-17 1
338 0.793701 13.5284 -1.40677e-16 -7.81084e-09 0.00128688 1.56815e-17 1
339 0.793701 12.7347 0.793701 -7.81084e-09 0.00128688 1.07862e-17 1
340 5.81859e-17 13.4929 0.793701 -2.20148e-17 -4.80054e-17 4.89291e-18 1
341 1.5874 12.7694 -2.36154e-16 -1.57225e-08 0.00254207 4.01021e-18 1
344 1.5874 13.5631 0.793701 -1.57225e-08 0.00254207 -4.18512e-19 1
757 7.4765e-17 12.6992 1.5874 -3.1918e-17 -4.34718e-17 4.55279e-18 1
758 0.793701 13.5284 1.5874 -7.81084e-09 0.00128688 1.99758e-18 1
761 1.5874 12.7694 1.5874 -1.57225e-08 0.00254207 -5.16811e-20 1
342 2.3811 13.596 -3.02171e-16 -2.34811e-08 0.00373467 1.67107e-19 1
343 2.3811 12.8023 0.793701 -2.34811e-08 0.00373467 -5.06251e-18 1
345 3.17481 12.8327 -3.50096e-16 -3.02092e-08 0.00483531 -1.39127e-18 1
348 3.17481 13.6264 0.793701 -3.02092e-08 0.00483531 6.57148e-19 1
762 2.3811 13.596 1.5874 -2.34811e-08 0.00373467 2.03456e-18 1
765 3.17481 12.8327 1.5874 -3.02092e-08 0.00483531 2.46229e-18 1