ITEM: TIMESTEP
200
ITEM: NUMBER OF ATOMS
32000
ITEM: BOX BOUNDS pp pp pp
0.0000000000000000e+00 3.1748021039364001e+01
0.0000000000000000e+00 3.1748021039364001e+01
0.0000000000000000e+00 3.1748021039364001e+01
ITEM: ATOMS id x y z c_rho_peratom
1 31.6972 0.0426165 31.6316 1.00408
2 0.95084 0.837937 31.5631 1.00429
3 0.579791 31.6661 0.545407 1.00436
4 0.113518 0.904122 0.434267 1.00433
5 1.69063 31.5552 0.151979 1.00448
6 2.40695 0.742376 0.182749 1.00462
7 2.49165 0.0774663 0.960259 1.00463
8 1.60084 0.654244 0.961969 1.00475
9 3.32474 0.148678 0.0282861 1.0047
10 4.01488 0.973658 0.249319 1.00489
11 4.10287 31.6546 0.953664 1.00485
12 3.21127 0.999602 0.852219 1.00478
13 4.68192 0.0634719 0.0655 1.00457
14 5.44536 0.781912 0.164944 1.00456
15 5.5423 31.6068 0.853166 1.00457
16 4.72326 0.629439 1.03275 1.0048
17 6.26026 31.6901 0.0484866 1.00445
18 7.48136 0.912186 31.6331 1.00475
19 7.36879 31.6694 0.735099 1.00425
20 6.60713 0.606737 0.694401 1.00447
21 8.0724 31.5763 0.187762 1.0042
22 8.83531 0.795237 0.173669 1.00413
23 8.88195 31.5684 0.859459 1.00379
24 8.10744 0.614102 0.970133 1.00423
25 9.37329 31.5725 31.6794 1.00384
26 10.224 0.677953 -0.0231435 1.00408
27 10.325 31.4333 0.526033 1.00362
28 9.40828 0.654815 0.727742 1.00389
29 10.8241 31.5923 31.5092 1.00412
30 11.7185 0.414388 31.6065 1.00419
31 11.9764 31.3954 0.6271 1.00392
32 11.1472 0.493082 0.509432 1.00375
33 12.805 31.5032 31.5947 1.0043
34 13.6215 0.665588 31.5933 1.00478
35 13.6012 31.4949 1.02851 1.00432
36 12.7421 0.440549 0.524169 1.00428
37 14.3046 0.100374 0.0167337 1.00491
38 15.166 0.816395 0.0502241 1.00538
39 15.1827 31.5182 1.01574 1.00483
40 14.3028 0.508315 0.677458 1.00486
41 15.7847 31.7059 0.275705 1.00543
42 16.509 0.904027 31.6694 1.0058
43 16.5652 31.5424 0.758325 1.00549
44 15.6806 0.938998 0.720093 1.00529
45 17.5591 0.00171669 31.6951 1.0057
46 18.136 0.939914 31.6288 1.00586
47 18.2188 0.0166348 0.62224 1.00556
48 17.3195 0.846982 0.451726 1.00566
49 18.9185 31.7289 31.3687 1.00552
50 19.5555 0.743053 31.4713 1.00597
51 19.599 0.0815075 0.539793 1.00552
52 18.9613 0.714436 0.604645 1.00565
53 20.3985 31.5295 -0.0140968 1.00559
54 21.3525 0.675808 31.6681 1.00558
55 21.2009 0.305332 0.889854 1.00545
56 20.3697 0.700487 0.857456 1.00575
57 22.0995 0.105876 0.226579 1.0051
58 23.2096 0.886073 31.6894 1.00511
59 22.8538 0.194016 1.04263 1.00492
60 22.2427 0.913968 1.01386 1.00515
61 23.6438 0.204921 0.208836 1.00491
62 24.714 0.914194 0.351706 1.0049
63 24.2813 0.0939918 0.981 1.00477
64 23.6077 0.94111 0.944007 1.00504
65 24.9938 0.0395118 0.265998 1.00464
66 26.0298 0.559229 31.7466 1.00445
67 26.2311 0.0904105 0.908551 1.00437
68 25.3323 0.764628 1.11273 1.00475
69 26.8311 31.6523 31.6734 1.00424
70 27.6732 1.04615 0.132947 1.00419
71 27.6486 0.141355 0.614911 1.00426
72 26.8789 0.73587 0.924523 1.00435
73 28.6537 0.343168 31.5482 1.00405
74 29.5335 1.08807 31.5643 1.00429
75 29.2903 31.7543 0.496477 1.00426
76 28.7036 1.02227 0.550828 1.00434
77 29.9756 31.7461 31.5541 1.00413
78 31.0273 1.07558 31.6899 1.00422
79 30.6321 0.281308 0.440889 1.00428
80 30.1113 1.0547 0.592192 1.00444
81 0.113846 1.71233 31.3911 1.00431
82 0.993814 2.31319 0.0699802 1.00469
83 0.844442 1.6094 0.656951 1.0047
84 0.0411434 2.27686 0.763653 1.00474
85 1.56166 1.41804 0.134484 1.00462
86 2.54142 2.31596 31.6944 1.00502
87 2.48468 1.52413 0.844646 1.00484
88 1.79189 2.39123 0.703009 1.00493
89 3.06364 1.65549 31.4459 1.00502
90 3.96246 2.68743 31.5065 1.00522
91 3.79867 1.87903 0.582485 1.00505
92 3.14593 2.66704 0.694174 1.00503
93 4.71528 1.58472 0.264983 1.00496
94 5.44747 2.59756 0.0182924 1.0052
95 5.75082 1.52341 0.698985 1.00482
96 4.7013 2.71524 0.681048 1.00528
97 6.34197 1.48596 0.0682885 1.00481
98 7.27414 2.43179 0.120357 1.00512
99 7.16868 1.40379 0.750993 1.00457
100 6.3187 2.28692 0.608192 1.00492
101 8.10378 1.68768 0.132371 1.00483
102 8.68237 2.24345 0.216412 1.00505
103 8.90515 1.60788 0.996513 1.00444
104 7.86829 2.41229 0.763993 1.00492
105 9.59707 1.63311 -0.00359938 1.00467
106 10.1355 2.36013 0.24642 1.00476
107 10.2723 1.29649 0.654698 1.00412
108 9.629 2.36969 1.06875 1.00463
109 11.0281 1.60188 31.623 1.00453
110 11.6779 2.34935 31.5647 1.00505
111 12.0532 1.28564 0.456685 1.00432
112 11.0473 2.07799 0.727033 1.00438
113 12.6839 1.28977 31.6422 1.00498
114 13.3625 2.50228 0.0653885 1.00558
115 13.5904 1.30096 0.878662 1.00471
116 12.6422 2.0694 0.469257 1.00506
117 14.0335 1.75313 0.209821 1.00518
118 14.9374 2.58404 0.11192 1.00554
119 14.9026 1.72705 0.628543 1.00506
120 13.9409 2.60616 0.897258 1.00516
121 15.7046 1.92184 31.6371 1.00565
122 16.651 2.2301 31.3711 1.00614
123 16.6714 1.59839 0.593006 1.00561
124 15.8002 2.55036 0.709369 1.0057
125 17.5013 1.75785 31.5098 1.00594
126 18.2583 2.29347 31.5593 1.0064
127 18.0308 1.53658 0.72196 1.00576
128 17.1232 2.41405 0.599845 1.00595
129 19.0579 1.65178 31.5762 1.00615
130 19.6767 2.36121 31.6166 1.00638
131 19.6172 1.49254 0.72173 1.00585
132 19.0511 2.29725 0.826344 1.00598
133 20.5269 1.50764 31.6195 1.0062
134 21.2989 2.36717 0.093435 1.00604
135 21.2945 1.58749 0.683738 1.00578
136 20.3912 2.42286 0.86766 1.00617
137 22.1953 1.38015 0.167535 1.00544
138 23.2326 2.3052 0.283611 1.00584
139 23.0188 1.82464 1.06754 1.00527
140 22.3713 2.28 0.767058 1.0057
141 24.0027 1.56024 0.166076 1.00516
142 24.5203 2.30438 0.22481 1.00541
143 24.6404 1.65096 1.16675 1.00509
144 24.0079 2.62924 0.969507 1.00554
145 25.2743 1.55524 31.7294 1.00491
146 25.9865 2.29944 0.246033 1.00518
147 26.1537 1.41043 0.855839 1.00471
148 25.4578 2.23433 0.912602 1.00529
149 26.7271 1.51957 0.144622 1.00452
150 27.3311 2.48167 0.243236 1.00515
151 27.7156 1.68272 0.865593 1.00467
152 26.8094 2.21339 1.06386 1.00488
153 28.3477 1.77401 0.0779994 1.00458
154 29.3174 2.44091 0.0536011 1.00496
155 29.5948 1.91088 0.688595 1.00456
156 28.4908 2.56774 0.906179 1.00511
157 30.3702 1.66054 31.6799 1.00447
158 31.1357 2.54802 31.592 1.00476
159 30.9035 1.87782 0.85593 1.00467
160 30.2323 2.66896 0.860815 1.00487
161 0.192325 2.99434 31.7247 1.00494
162 0.953085 3.83635 31.5605 1.00544
163 1.16331 3.28648 0.793542 1.00522
164 0.164509 3.7483 0.673548 1.00522
165 1.76328 3.30636 31.5477 1.00519
166 2.45582 4.20693 31.7362 1.00574
167 2.47811 3.26706 0.717662 1.00534
168 1.67637 4.02121 0.596093 1.00568
169 3.15024 3.41826 31.6179 1.00543
170 4.10181 4.25517 31.7428 1.00578
171 3.96736 3.2884 0.56707 1.00529
172 3.36067 4.12802 0.720261 1.00572
173 4.83953 3.46755 31.5532 1.00548
174 5.52802 3.96985 0.10235 1.00593
175 5.38792 3.34144 0.760657 1.00538
176 4.72817 4.11263 1.11188 1.00571
177 6.57187 3.02466 0.0282001 1.00543
178 7.342 3.74447 31.5287 1.00577
179 7.09292 3.25548 0.905254 1.0052
180 6.2668 3.89491 0.677913 1.00561
181 8.15093 3.15955 31.7038 1.00554
182 8.7885 3.9766 0.0212153 1.00568
183 8.58689 3.19413 0.906886 1.0051
184 8.02696 4.16634 0.653804 1.00562
185 9.41348 3.02348 0.0334239 1.00525
186 10.4403 4.02971 0.0484638 1.00545
187 10.4148 3.02667 0.959724 1.00484
188 9.72898 3.74768 0.837335 1.00525
189 10.8188 2.89241 31.6385 1.00499
190 11.6926 3.96541 31.6143 1.0054
191 11.7776 2.82361 0.696692 1.00491
192 11.311 3.92118 0.746468 1.00519
193 12.4041 3.09909 31.596 1.00546
194 13.2737 3.85072 31.6259 1.00588
195 13.1435 3.10541 0.866918 1.00527
196 12.4482 3.60566 0.78618 1.00534
197 14.2249 3.31801 31.7317 1.00559
198 15.0743 4.18177 31.6742 1.00582
199 14.6722 3.51034 0.835167 1.00557
200 14.007 4.16345 0.663706 1.00583
201 15.5819 3.346 0.0305901 1.00598
202 16.7542 3.7349 31.5971 1.00635
203 16.3522 3.21168 0.561651 1.00613
204 15.79 4.16516 0.845011 1.00593
205 17.3773 3.11425 31.5411 1.00658
206 18.3211 3.85476 31.617 1.00684
207 18.0622 2.91431 0.505328 1.00639
208 17.4839 3.84439 0.645659 1.00643
209 19.0604 2.92653 0.0320493 1.0067
210 19.8258 3.69704 31.6452 1.00731
211 19.938 3.21803 1.02986 1.00639
212 19.1902 3.66284 0.624864 1.00677
213 20.5887 2.88503 31.7397 1.00642
214 21.3177 3.7493 31.7604 1.00658
215 21.6273 3.16596 0.925529 1.00601
216 20.7839 3.6814 0.930033 1.00635
217 22.2485 2.97003 0.154199 1.0063
218 22.9164 4.14875 31.6944 1.0066
219 23.0734 3.43751 0.96485 1.00616
220 22.269 3.97759 0.803529 1.00636
221 23.9282 3.43329 0.249977 1.00632
222 24.6582 4.03767 0.0795511 1.00644
223 24.7092 3.17958 0.965894 1.00574
224 23.7865 4.31043 0.69996 1.00645
225 25.3448 3.48791 0.321974 1.00607
226 25.8079 4.25045 31.5784 1.00661
227 25.9921 3.20078 0.931615 1.00569
228 25.365 4.24471 1.05937 1.00628
229 26.3852 3.19742 0.0723465 1.00584
230 27.2796 3.80489 0.0646404 1.0061
231 27.4314 3.15475 0.999339 1.0054
232 26.7665 4.14338 0.859813 1.00611
233 28.112 3.02952 31.6617 1.00555
234 29.0341 3.67283 0.164023 1.00586
235 29.3991 3.10232 0.895595 1.00509
236 28.1829 3.77216 0.609705 1.00573
237 30.0858 3.15471 31.556 1.00531
238 31.0749 3.91043 0.130167 1.00541
239 31.0364 3.29953 0.737849 1.00508
240 30.126 4.05957 0.592564 1.00567
241 0.0782254 4.51215 0.155232 1.00552
242 0.725136 5.53482 0.134037 1.00608
243 0.980792 4.81561 0.715535 1.00586
244 31.7269 5.36612 0.866456 1.00571
245 1.80215 5.03728 0.0186943 1.00611
246 2.55513 5.74462 31.7042 1.00634
247 2.37486 4.92114 0.906563 1.00601
248 1.37047 5.59838 1.05518 1.00602
249 3.1933 4.94483 31.6519 1.00602
250 4.01582 5.5302 0.16646 1.00631
251 3.7895 4.95708 0.8157 1.00591
252 2.92554 5.77082 1.1015 1.00606
253 4.82491 4.86506 0.237122 1.00615
254 5.63492 5.59877 0.190072 1.00647
255 5.39604 4.93153 0.976786 1.00597
256 4.81409 5.55863 1.11856 1.00609
257 6.44187 4.53332 31.5852 1.00647
258 7.12275 5.45271 31.7059 1.00677
259 7.19465 4.66826 0.426839 1.00614
260 6.55514 5.28962 0.757841 1.00639
261 8.06583 4.94126 31.4683 1.00612
262 8.79787 5.61086 0.0128428 1.00634
263 8.9273 4.7029 0.810631 1.00576
264 8.10035 5.42933 0.525901 1.00633
265 9.72314 4.59912 0.100052 1.00589
266 10.2853 5.67484 31.636 1.00644
267 10.4694 4.88641 0.865703 1.0058
268 9.56223 5.33966 0.750815 1.00615
269 11.304 4.71789 0.197395 1.00568
270 11.9644 5.71357 0.155113 1.00614
271 12.0899 4.55231 1.01568 1.0055
272 11.2833 5.32043 0.871807 1.00598
273 12.7164 4.59901 31.7422 1.00606
274 13.293 5.50835 0.040269 1.00639
275 13.2036 4.65938 0.782299 1.00604
276 12.6119 5.8242 0.774394 1.00621
277 14.2427 4.98027 31.7304 1.00639
278 15.0738 5.55167 31.625 1.00693
279 15.0105 4.9591 0.71643 1.0062
280 14.0902 5.61564 0.659869 1.00643
281 16.052 4.6642 0.083087 1.00631
282 16.8075 5.31601 31.7275 1.00663
283 16.6928 4.51569 0.738253 1.00628
284 15.9637 5.72751 0.897468 1.00648
285 17.6472 4.48269 31.5181 1.00651
286 18.078 5.22033 0.300697 1.00681
287 18.2499 4.42675 0.876767 1.00664
288 17.2965 5.39333 1.03204 1.00642
289 19.0407 4.42728 0.134019 1.00718
290 19.7143 5.71397 0.263152 1.00699
291 20.0478 4.69715 0.662893 1.00699
292 19.1424 5.23864 0.831637 1.0069
293 20.4414 4.74674 31.6178 1.0073
294 21.0832 5.61922 0.216171 1.00705
295 21.2833 4.53619 1.01055 1.00662
296 20.6601 5.45674 0.936864 1.00695
297 21.9056 4.72826 0.318827 1.00695
298 23.101 5.58772 0.205542 1.00699
299 22.8226 4.95202 0.723159 1.00678
300 22.1992 5.76172 0.955051 1.00715
301 23.9558 4.80082 31.7519 1.00676
302 24.4437 5.8557 31.6168 1.00703
303 24.7427 5.11264 0.842727 1.00657
304 23.8958 5.65107 0.85003 1.00662
305 25.1627 5.08773 0.0233277 1.00682
306 25.9298 5.771 0.205036 1.00659
307 25.9431 4.93111 0.79442 1.00635
308 25.5081 5.83784 1.19319 1.00651
309 26.7928 4.83516 0.130563 1.00645
310 27.6753 5.48212 0.276894 1.00666
311 27.5325 4.72729 0.873541 1.00604
312 26.9575 5.705 0.922103 1.00632
313 28.5505 4.71413 0.265932 1.00634
314 29.5156 5.293 0.288657 1.00622
315 29.1818 4.4965 0.984364 1.00571
316 28.4726 5.39853 1.04976 1.00634
317 30.2641 4.70058 0.0956598 1.00591
318 30.9056 5.38187 0.238304 1.00588
319 30.9388 4.72486 1.10637 1.00552
320 30.2579 5.47786 1.11071 1.00582
321 31.5926 6.08194 31.7739 1.00618
322 0.883606 7.14697 0.166664 1.00658
323 0.730807 6.43956 0.908764 1.00642
324 0.148478 6.9863 1.09102 1.00659
325 1.79541 6.28527 0.231716 1.00663
326 2.34651 7.34494 0.165043 1.00691
327 2.07623 6.30285 1.12534 1.00626
328 1.58319 7.09865 0.86888 1.00657
329 3.23175 6.35215 0.281305 1.00651
330 3.86481 7.28357 0.0284019 1.0065
331 4.04349 6.25217 0.929001 1.00637
332 3.26283 7.0748 0.895406 1.00667
333 4.70601 6.36378 0.160505 1.00644
334 5.44484 7.23427 31.7082 1.00673
335 5.60036 6.54259 0.779983 1.00672
336 4.60193 6.92942 0.882814 1.00666
337 6.24038 6.13114 0.0330301 1.00691
338 6.9616 7.03505 31.5942 1.0071
339 7.1649 6.43255 0.812483 1.00686
340 6.2956 7.12557 0.938622 1.00683
341 7.89056 6.24213 31.4439 1.00708
342 8.77523 6.89651 31.6949 1.00658
343 8.66507 6.37533 0.658966 1.00653
344 7.8991 7.03734 0.742928 1.0067
345 9.6388 6.23155 0.0133831 1.00642
346 10.4193 6.93612 0.112088 1.00669
347 10.4152 6.06844 0.999728 1.00656
348 9.77914 7.26622 0.706714 1.00677
349 11.2551 6.44696 0.104781 1.00662
350 11.8433 7.36877 0.0356574 1.00663
351 11.708 6.12434 0.989239 1.00631
352 11.2927 7.06567 0.723489 1.00639
353 12.6412 6.37152 31.6115 1.0064
354 13.5852 7.16877 31.3982 1.00688
355 13.4315 6.51978 0.759976 1.00636
356 12.6751 7.24169 0.453716 1.00669
357 14.1315 6.35421 31.7076 1.0069
358 15.0092 7.26653 31.6053 1.00724
359 15.1999 6.3154 0.709423 1.00667
360 14.397 7.16718 0.432619 1.00674
361 15.7605 6.23155 31.5293 1.00735
362 16.5755 6.97657 0.0411503 1.00706
363 16.6908 6.30709 0.884532 1.0066
364 15.7708 7.13553 0.834848 1.00679
365 17.1983 6.15198 0.210031 1.00688
366 18.08 6.98269 31.6391 1.00754
367 17.9299 6.1727 1.06451 1.00681
368 17.188 7.21098 0.806193 1.00703
369 18.685 6.09368 0.299735 1.00722
370 19.3396 7.19266 0.285695 1.00721
371 19.7964 6.44415 0.89652 1.00692
372 18.5585 6.85367 0.767973 1.00724
373 20.4096 6.61197 0.214515 1.00682
374 21.0589 7.32289 0.289838 1.00678
375 21.2677 6.4667 0.802166 1.00698
376 20.227 7.53442 0.995106 1.00682
377 22.0592 6.44592 0.196708 1.0071
378 22.73 7.41564 31.7144 1.00706
379 23.0819 6.49325 0.768757 1.00689
380 21.9279 7.54374 0.77829 1.00699
381 23.651 6.61882 31.5447 1.00686
382 24.6238 7.28972 31.546 1.00696
383 24.5591 6.35904 0.712582 1.00697
384 23.7566 7.10683 0.536425 1.00702
385 25.4515 6.66834 0.0771788 1.00723
386 26.3448 7.23555 31.6971 1.00734
387 26.0368 6.47281 0.854633 1.00677
388 25.4644 7.37038 0.865772 1.00716
389 26.9419 6.30395 0.133948 1.00685
390 27.8721 7.09738 0.0867075 1.00704
391 27.9161 6.551 0.831301 1.00717
392 26.9443 7.00286 0.98532 1.00707
393 28.4689 6.15744 0.0562312 1.00702
394 29.5328 6.87093 0.04467 1.00727
395 29.4941 6.25576 0.945791 1.0067
396 28.7995 7.22308 0.690609 1.00713
397 30.3788 6.26505 0.217809 1.00669
398 31.0498 7.11821 0.193946 1.00679
399 31.2213 6.24558 0.947479 1.0061
400 30.3802 7.27444 0.718671 1.00679
401 0.15254 7.73049 0.314559 1.00689
402 0.618832 8.59816 0.363955 1.0071
403 0.968126 8.07416 1.23632 1.0067
404 0.246462 8.7418 1.18263 1.00696
405 1.39436 7.85525 31.7826 1.00681
406 2.02502 8.71877 0.266685 1.00704
407 2.16903 7.96265 1.01208 1.0066
408 1.62754 8.9129 1.19133 1.00673
409 3.15921 7.96972 0.0416721 1.00678
410 3.68066 8.62515 0.0381696 1.00653
411 3.86864 7.88418 1.11463 1.00663
412 2.86168 8.69981 0.705281 1.00674
413 4.54579 7.78592 0.0996351 1.00658
414 5.8015 8.60932 0.207653 1.0072
415 5.41134 7.86567 0.948408 1.00704
416 4.57914 8.44169 0.796668 1.0068
417 6.32965 7.71341 0.143041 1.00688
418 7.30784 8.67053 31.6512 1.00715
419 7.13254 7.95102 0.762003 1.0068
420 6.29343 8.56683 1.05037 1.00694
421 7.86217 7.74844 31.719 1.00684
422 8.9674 8.4894 31.7133 1.00693
423 8.78095 7.6455 0.637607 1.00681
424 8.24537 8.52459 0.860421 1.007
425 9.719 7.89963 31.5724 1.00678
426 10.3986 8.81729 0.131765 1.00681
427 10.4434 7.97314 0.815619 1.00652
428 9.58573 8.65906 0.694261 1.00674
429 11.1323 8.07466 0.0461163 1.00666
430 11.9118 8.97698 31.6264 1.00701
431 12.1023 8.12293 0.535096 1.00656
432 11.3655 8.69981 0.715686 1.0067
433 12.7496 8.21009 31.529 1.00709
434 13.7716 8.78893 31.584 1.00742
435 13.6669 7.95931 0.337662 1.00692
436 13.0332 8.63068 0.762396 1.0069
437 14.5779 8.26081 31.5694 1.00722
438 15.3694 8.96051 31.6911 1.00743
439 15.1471 8.05246 0.689643 1.00684
440 14.5802 8.91729 0.56176 1.00718
441 16.0424 8.12726 31.6518 1.00707
442 16.7172 8.70086 31.7424 1.00735
443 16.4107 7.94237 0.849337 1.00706
444 16.1409 8.87903 0.919506 1.00695
445 17.2211 7.88917 0.192387 1.00734
446 18.0109 8.83453 31.5609 1.00731
447 18.0033 7.79854 0.798792 1.00716
448 17.2891 8.9205 0.917939 1.00699
449 18.7248 8.02609 31.5527 1.00733
450 19.5371 8.76166 31.6627 1.00695
451 19.2745 7.9843 0.83846 1.00704
452 18.5504 8.62116 0.623049 1.00705
453 20.1339 8.0237 0.0931039 1.0069
454 21.2048 8.99966 31.7188 1.00701
455 21.0242 8.2848 0.702261 1.00691
456 20.1889 8.80651 0.75358 1.0068
457 21.9435 8.23692 31.6913 1.00707
458 23.0735 8.71895 -0.000165717 1.00724
459 22.9892 8.05696 0.67624 1.00718
460 21.9611 9.00072 0.764362 1.00696
461 23.8297 7.95295 0.123102 1.00701
462 24.4563 8.7551 31.6368 1.00725
463 24.686 8.00866 0.639004 1.00716
464 23.6784 8.93886 0.803046 1.00707
465 25.3339 8.0957 31.655 1.00721
466 26.3062 8.66888 31.5289 1.00739
467 26.1311 8.03037 0.644358 1.00712
468 25.5196 8.90713 0.70426 1.00684
469 27.083 7.79981 31.6464 1.00718
470 27.9372 8.63013 0.106146 1.00732
471 27.7754 7.98594 0.806275 1.00745
472 27.0022 8.77421 0.771784 1.0071
473 28.6199 7.79158 31.7079 1.00702
474 29.4419 8.49244 0.230855 1.00732
475 29.4152 7.80314 0.816681 1.00711
476 28.807 8.7842 0.835236 1.00723
477 30.5317 8.01895 31.7252 1.00726
478 31.1718 8.8565 0.0328774 1.00721
479 31.1418 8.0353 0.93712 1.00688
480 30.3433 8.75477 0.742406 1.00704
481 0.165942 9.59378 31.6413 1.00706
482 0.960598 10.4436 0.235824 1.00701
483 0.884658 9.56693 1.07417 1.00707
484 0.0660221 10.1657 0.713405 1.00696
485 1.50538 9.58347 0.361821 1.00708
486 2.5617 10.3984 0.0961893 1.00711
487 2.2371 9.56423 1.18944 1.00713
488 1.73319 10.5452 0.840073 1.00719
489 3.09295 9.57723 31.6615 1.00687
490 3.75947 10.2475 31.6891 1.00687
491 3.88542 9.29645 0.75691 1.00662
492 3.29925 10.1969 0.693243 1.00679
493 4.53027 9.26986 0.0537507 1.00679
494 5.42829 10.3151 31.5472 1.00686
495 5.29789 9.17762 0.743383 1.00691
496 4.55736 10.2345 0.645084 1.00667
497 6.22945 9.47269 31.5446 1.00732
498 7.16442 9.90075 31.6399 1.00706
499 7.15006 9.1139 0.769117 1.00708
500 6.15074 9.98406 0.633008 1.00676
501 7.95938 9.15756 0.18119 1.00707
502 8.68074 10.4153 31.7228 1.00659
503 8.92087 9.47555 0.796239 1.00658
504 7.85503 10.0452 0.799861 1.00682
505 9.39724 9.59735 31.7222 1.00675
506 10.1211 10.3381 31.6681 1.00657
507 10.3973 9.62298 0.674119 1.00656
508 9.62374 10.3189 0.674103 1.00628
509 10.9178 9.6319 31.5801 1.00704
510 11.7424 10.4679 31.7058 1.00695
511 12.15 9.71448 0.622904 1.00712
512 11.2774 10.4463 0.703289 1.00671
513 12.6589 9.84951 31.5493 1.00737
514 13.3986 10.244 31.5911 1.00765
515 13.5962 9.37868 0.770056 1.00736
516 12.8441 10.1922 0.948256 1.00682
517 14.2792 9.91506 0.0194748 1.00749
518 15.0267 10.7218 0.108778 1.00713
519 15.2382 9.49996 0.872935 1.00683
520 14.229 10.4315 0.898371 1.00709
521 15.7362 9.8834 0.151237 1.00728
522 16.5652 10.4931 31.7161 1.00742
523 16.746 9.67758 0.69541 1.00697
524 15.7102 10.5593 0.902668 1.00668
525 17.2883 9.78547 0.0513469 1.00719
526 18.4348 10.5377 0.214115 1.00709
527 18.0999 9.67038 0.739996 1.007
528 17.517 10.4566 0.788288 1.00703
529 18.8093 9.4742 0.0880271 1.00705
530 19.6216 10.6559 31.6283 1.00737
531 19.8068 9.66851 0.60415 1.00689
532 18.9262 10.18 0.921608 1.00702
533 20.2193 9.65112 31.5699 1.00711
534 21.1464 10.3817 31.5417 1.00729
535 21.1791 9.66504 0.55709 1.00703
536 20.6733 10.5337 0.71436 1.00706
537 22.2892 9.77289 31.6663 1.00711
538 22.9078 10.439 31.6766 1.00702
539 23.0496 9.67243 0.659375 1.00681
540 22.4019 10.521 0.816805 1.00693
541 23.8353 9.66519 31.4691 1.007
542 24.4506 10.3154 6.07142e-05 1.0069
543 24.6893 9.64138 0.591128 1.00694
544 23.6578 10.5551 0.497398 1.00689
545 25.6824 9.58809 -0.00489469 1.00693
546 26.3671 10.4829 31.518 1.00695
547 26.2939 9.48313 0.618119 1.00686
548 25.4049 10.3278 0.764595 1.00677
549 27.1008 9.61882 31.6613 1.00726
550 28.1298 10.4194 0.134191 1.00709
551 27.9845 9.55742 0.658653 1.00731
552 26.8381 10.3636 0.700451 1.00686
553 28.693 9.40198 31.6463 1.0074
554 29.4207 10.1791 0.200558 1.00722
555 29.6065 9.3595 1.10586 1.00712
556 28.8124 10.0672 1.1504 1.00711
557 30.2947 9.31557 31.7358 1.00721
558 30.9556 10.168 31.6795 1.00698
559 31.0657 9.5422 0.967301 1.0068
560 30.2656 10.0224 0.809165 1.00694
561 31.7936 10.8745 31.7235 1.00687
562 1.09948 12.0594 0.0314054 1.00665
563 0.740196 11.2965 0.942602 1.007
564 0.193258 12.0789 0.878517 1.00669
565 1.47695 11.2488 0.10584 1.00692
566 2.40754 12.0208 0.113022 1.00694
567 2.52036 11.0227 0.813959 1.00681
568 1.78713 12.0596 0.825624 1.00657
569 3.09144 11.3811 0.0157818 1.00681
570 3.75318 11.8892 31.623 1.00644
571 4.1667 11.1563 0.747119 1.00626
572 3.30761 11.7585 0.958854 1.00614
573 4.57631 10.8318 31.5608 1.00682
574 5.52977 11.9629 0.0520862 1.0066
575 5.36034 10.8928 0.543646 1.00667
576 4.74035 11.8621 0.61804 1.00621
577 6.34857 10.7984 31.6802 1.00685
578 7.14038 11.877 31.6185 1.00635
579 6.8949 10.9719 0.616458 1.00663
580 6.20887 11.5663 0.69278 1.00642
581 7.67066 10.9266 0.119198 1.00668
582 8.50537 11.8781 0.130762 1.00645
583 8.75966 10.9058 0.794503 1.00661
584 7.99709 11.4429 0.976495 1.00649
585 9.50248 11.1516 31.5921 1.00632
586 10.3294 12.0359 0.169141 1.0064
587 10.3434 11.1155 0.692219 1.00631
588 9.53954 11.8586 0.638636 1.00642
589 11.04 11.4588 0.161996 1.00662
590 11.8138 12.1057 0.285236 1.00676
591 12.1457 11.1676 0.994308 1.00638
592 11.0793 12.153 1.00542 1.0066
593 12.5839 11.0979 0.26009 1.00702
594 13.4902 11.7692 0.119741 1.00719
595 13.4731 10.9536 0.861576 1.00688
596 12.7626 12.1742 0.712845 1.0065
597 14.1974 11.3201 31.693 1.00745
598 15.0028 12.1276 31.6381 1.00715
599 14.987 11.3384 0.838513 1.00687
600 14.2057 11.9426 0.863972 1.00694
601 15.8514 11.376 31.5253 1.00744
602 16.7167 11.8647 31.6213 1.00795
603 16.4443 11.1939 0.825848 1.00736
604 15.7989 12.0438 0.56968 1.00735
605 17.548 11.1661 31.7254 1.00751
606 18.2897 11.9652 0.146062 1.00783
607 18.291 11.1983 0.952153 1.00718
608 17.4157 11.8552 0.917192 1.0077
609 19.1976 11.3541 0.304419 1.00726
610 20.0379 11.8777 0.0727525 1.00732
611 19.8927 11.0777 1.00053 1.007
612 19.0423 11.8433 1.23247 1.00708
613 20.6578 11.2552 31.5578 1.00709
614 21.5433 11.7611 0.254261 1.00705
615 21.4476 10.968 0.78622 1.00706
616 20.4445 11.8333 0.975617 1.007
617 22.12 11.159 31.5054 1.00709
618 22.9743 12.1889 31.6767 1.0069
619 22.9328 11.4082 0.554061 1.0071
620 22.1871 12.0332 0.847915 1.00716
621 23.925 11.4049 31.6244 1.00679
622 24.599 12.2173 31.6581 1.00642
623 24.6947 11.303 0.65299 1.00693
624 24.1005 12.1129 0.807138 1.00666
625 25.2908 11.3294 31.7176 1.00712
626 26.0781 12.0696 0.106466 1.00669
627 26.1161 11.0761 0.504782 1.00695
628 25.4569 12.0435 0.990553 1.00674
629 27.339 11.2406 0.157555 1.00687
630 28.1358 12.0197 31.6777 1.00637
631 28.0803 11.0021 0.868023 1.00692
632 26.9564 11.8556 0.792115 1.00676
633 28.7724 11.1284 0.0737724 1.00673
634 29.7473 11.6768 0.192394 1.00646
635 29.3907 10.7871 0.838023 1.00689
636 28.9175 11.9495 0.722412 1.00632
637 30.4244 10.9208 0.0916344 1.00688
638 31.4499 11.692 0.00310122 1.00669
639 31.2396 10.872 0.970642 1.00702
640 30.6414 11.5825 0.816683 1.00685
641 0.425327 12.5822 31.4701 1.00653
642 0.737324 13.6868 31.3671 1.00598
643 0.945217 12.8831 0.669164 1.00614
644 0.351035 13.8068 0.727061 1.00602
645 1.55779 12.9922 31.6783 1.0064
646 2.68381 13.7098 31.3658 1.00614
647 2.54443 12.7912 0.658511 1.00638
648 1.96757 13.5882 0.425485 1.00611
649 3.1372 12.8778 -0.0321198 1.0063
650 3.85551 13.2999 0.0674529 1.00597
651 3.92052 12.5281 0.620041 1.00596
652 3.11638 13.5589 0.985951 1.00595
653 4.76077 12.7012 31.6119 1.00633
654 5.45238 13.6459 31.4816 1.00639
655 5.43934 12.7181 0.800159 1.00616
656 4.648 13.5287 0.460531 1.00594
657 6.30784 12.4956 31.6722 1.00633
658 7.28585 13.3643 0.0570928 1.00584
659 7.05505 12.6002 0.749913 1.00595
660 6.40197 13.1999 0.804214 1.00584
661 7.94329 12.5089 0.154634 1.00607
662 8.75742 13.6773 31.5374 1.00616
663 8.6146 12.749 0.807067 1.00601
664 7.9778 13.491 0.664531 1.00582
665 9.29783 12.5965 31.6193 1.00641
666 10.4781 13.3037 31.6852 1.00649
667 10.2304 12.7758 0.916596 1.00647
668 9.50961 13.3655 0.578614 1.00631
669 11.3557 12.9848 31.5217 1.00663
670 12.0879 13.8895 31.6431 1.0067
671 11.88 12.8682 0.718023 1.00644
672 11.2132 13.6448 0.567731 1.0062
673 12.6162 13.1416 0.0314581 1.00674
674 13.5631 13.7079 31.7004 1.00705
675 13.2573 12.8653 0.860945 1.00643
676 12.6004 13.5681 1.05015 1.00631
677 14.024 12.9376 0.314243 1.00691
678 14.8842 13.446 31.7205 1.00691
679 14.8338 12.8456 0.915169 1.00683
680 13.9953 13.7282 1.10159 1.00629
681 15.8076 12.8541 31.6 1.00721
682 17.0621 13.5968 0.0344803 1.00778
683 16.721 12.7171 0.613477 1.00793
684 15.7226 13.376 0.711178 1.00709
685 17.4461 12.73 31.6946 1.00824
686 18.5559 13.3489 0.271114 1.00799
687 18.3589 12.5669 1.00154 1.00749
688 17.5707 13.6917 1.03582 1.00779
689 19.2881 12.4917 0.355582 1.00763
690 20.1436 13.5188 0.234632 1.00753
691 20.0783 12.7605 1.09073 1.00723
692 19.2628 13.2511 1.00082 1.00763
693 20.6742 12.6443 0.140551 1.00721
694 21.6032 13.3929 0.108594 1.0074
695 21.3523 12.4168 0.852307 1.00712
696 20.9422 13.4078 0.943748 1.00723
697 22.3037 12.8089 31.4557 1.00715
698 23.2486 13.7636 31.2046 1.00674
699 23.3056 12.7243 0.509653 1.0067
700 22.4624 13.6105 0.335588 1.00709
701 23.8706 12.7536 31.3975 1.00642
702 24.7156 13.8592 0.00855433 1.00603
703 24.6686 13.0108 0.501895 1.00628
704 23.735 13.6388 0.330867 1.00646
705 25.4136 13.0469 31.5944 1.00602
706 26.4988 13.356 0.241658 1.00608
707 26.3422 12.605 0.873693 1.00653
708 25.6333 13.4691 0.822883 1.00608
709 27.027 12.555 0.132882 1.0064
710 28.1738 13.2629 0.0350813 1.00598
711 27.986 12.5584 0.817482 1.00655
712 27.2789 13.5981 0.614384 1.00629
713 29.0356 12.5625 31.7056 1.00597
714 29.8432 13.3704 31.5887 1.00582
715 29.8708 12.5769 0.690009 1.0062
716 29.051 13.4208 0.604578 1.00595
717 30.7477 12.3529 0.0746164 1.00629
718 31.1164 13.4311 31.5534 1.00589
719 31.5056 12.8435 0.575602 1.00632
720 30.6007 13.4089 0.522026 1.00602
721 31.7737 14.2925 31.6006 1.00567
722 0.780685 14.9958 0.110683 1.00587
723 1.16591 14.3864 0.63404 1.00608
724 0.0801232 15.3193 0.962574 1.00594
725 1.76729 14.4825 31.4289 1.00581
726 2.44053 15.0887 31.6545 1.00585
727 2.63022 14.3679 0.625628 1.00588
728 1.87812 15.0746 0.616167 1.00597
729 3.40172 14.3118 0.132108 1.0057
730 4.04975 15.0025 31.7194 1.00581
731 4.18541 14.2426 0.890076 1.00563
732 3.44864 15.0634 0.903641 1.00585
733 4.66146 14.1337 31.4968 1.00608
734 5.73939 14.8539 0.091311 1.00619
735 5.83024 14.0475 0.65138 1.00585
736 4.80031 14.9539 0.823923 1.0059
737 6.62035 14.2337 31.688 1.00612
738 7.29156 14.9716 0.115942 1.00615
739 7.21156 14.2038 0.789931 1.00575
740 6.35587 15.0997 0.838057 1.00575
741 7.89486 14.3116 31.5633 1.00611
742 8.86153 14.889 31.5772 1.00636
743 8.60007 14.1178 0.59197 1.00605
744 8.05832 15.0877 0.895645 1.00598
745 9.65863 14.1396 31.5617 1.00625
746 10.2306 14.9263 0.22756 1.00592
747 10.4284 13.9953 0.635875 1.00616
748 9.55723 14.9671 0.853047 1.00583
749 11.2531 14.3173 31.4528 1.00635
750 11.9924 15.0085 0.07038 1.00653
751 11.9781 14.4608 0.943762 1.00605
752 11.0862 14.9036 0.704293 1.006
753 13.0196 14.3912 0.281835 1.007
754 13.6247 15.2938 0.149694 1.00698
755 13.5947 14.5588 1.20595 1.00639
756 12.8028 15.0757 0.77566 1.0064
757 14.4244 14.3468 0.353641 1.00702
758 15.2442 15.1967 0.412979 1.00752
759 15.13 14.2673 0.917239 1.00679
760 14.2608 15.2719 1.17285 1.00671
761 15.9053 14.1807 0.251053 1.00733
762 16.9059 15.0108 0.146342 1.00792
763 16.6465 14.3906 0.704749 1.00744
764 16.0281 15.3199 1.07373 1.00732
765 17.9075 14.0855 0.299163 1.008
766 18.3322 14.8346 0.222065 1.0084
767 18.6729 14.2129 1.11334 1.0079
768 17.7696 15.0713 0.94677 1.008
769 19.1176 14.1114 31.7381 1.00792
770 19.8308 14.6931 31.693 1.00771
771 19.929 14.2014 1.08275 1.00779
772 19.3835 15.0397 0.88003 1.0079
773 20.9832 14.0229 31.5629 1.00756
774 21.2211 14.9127 0.0971355 1.00756
775 21.5758 14.2544 0.978528 1.00736
776 20.5038 14.8171 0.758389 1.00762
777 22.3028 14.4421 31.6158 1.00711
778 23.0654 15.189 31.5734 1.00662
779 23.0995 14.4809 0.461097 1.00653
780 21.9872 15.0717 0.682871 1.00737
781 23.9016 14.6034 31.3926 1.00622
782 24.5123 15.3763 31.728 1.00591
783 24.5505 14.1666 0.965858 1.00606
784 23.9201 14.9581 0.657578 1.00611
785 25.4231 14.3893 0.234455 1.00566
786 26.2082 15.2271 0.0520833 1.00538
787 26.1369 14.3273 0.852237 1.00573
788 25.3202 14.9886 0.89817 1.0056
789 26.9702 14.3851 0.0928961 1.00565
790 27.923 14.9066 31.5896 1.00534
791 27.9782 14.2568 0.602647 1.00569
792 27.0089 15.1337 0.960949 1.00539
793 28.5723 14.1433 31.6571 1.00554
794 29.204 15.2576 0.289084 1.00539
795 29.5246 14.3071 0.518434 1.00576
796 28.4729 14.9835 0.963073 1.00546
797 30.4478 14.4251 0.0398701 1.00552
798 31.1578 15.2975 31.5288 1.00531
799 31.3315 14.5445 0.59534 1.00574
800 30.351 15.1251 0.574486 1.00553
801 0.0644555 15.9903 31.6537 1.00558
802 1.00417 15.6461 0.849971 1.00598
803 1.59565 15.9109 31.4796 1.00568
804 2.61919 15.8305 0.752582 1.00593
805 3.21108 15.9451 0.118286 1.00589
806 4.0028 15.9853 0.716611 1.00594
807 4.83822 15.7765 0.123965 1.00628
808 5.40738 15.8062 0.621871 1.00613
809 6.42447 15.9126 31.6291 1.00606
810 7.0733 15.7748 0.776328 1.00568
811 8.1406 15.8089 31.6815 1.00665
812 8.87282 15.5586 0.863596 1.00606
813 9.53207 15.7674 31.7063 1.00625
814 10.0964 15.9506 0.806073 1.00569
815 10.9568 15.6558 0.229475 1.00625
816 12.0669 16.0311 0.778626 1.00607
817 12.5679 15.8167 0.0882275 1.0064
818 13.3866 16.0763 0.980876 1.00631