ITEM: TIMESTEP
7000
ITEM: NUMBER OF ATOMS
8000
ITEM: BOX BOUNDS pp pp pp
0.0000000000000000e+00 3.1748021039364001e+01
0.0000000000000000e+00 1.5874010519682001e+01
0.0000000000000000e+00 1.5874010519682001e+01
ITEM: ATOMS id x y z vx vy vz c_rho_peratom
2 0.793701 0.841604 -8.63913e-18 2.36279e-08 0.00119019 -1.41125e-18 1
3 0.793701 0.047903 0.793701 2.36279e-08 0.00119019 -6.72462e-18 1
4 -3.11306e-17 0.793701 0.793701 -3.98877e-17 -2.64485e-17 -6.245e-18 1
5 1.5874 0.0946197 -1.57385e-17 4.45926e-08 0.00235109 -5.19548e-19 1
8 1.5874 0.88832 0.793701 4.45926e-08 0.00235109 -1.03802e-17 1
43 -2.48829e-17 1.5874 8.8177e-17 -3.53817e-17 -2.00239e-19 4.71011e-19 1
45 0.793701 1.6353 0.793701 2.36279e-08 0.00119019 -1.18262e-17 1
47 1.5874 1.68202 -1.62538e-17 4.45926e-08 0.00235109 -8.13112e-19 1
422 0.793701 0.841604 1.5874 2.36279e-08 0.00119019 -1.63589e-17 1
425 1.5874 0.0946197 1.5874 4.45926e-08 0.00235109 -9.45016e-18 1
463 -3.67013e-17 1.5874 1.5874 -4.66169e-17 1.79944e-18 -1.46036e-17 1
467 1.5874 1.68202 1.5874 4.45926e-08 0.00235109 -1.56327e-17 1
6 2.38111 0.932701 -2.0981e-17 6.06041e-08 0.00345409 1.81645e-18 1
7 2.38111 0.139001 0.793701 6.06041e-08 0.00345409 -3.34386e-18 1
9 3.17481 0.179954 -2.96222e-17 7.01941e-08 0.00447204 2.51239e-18 1
12 3.17481 0.973654 0.793701 7.01941e-08 0.00447204 -1.59155e-18 1
49 2.38111 1.7264 0.793701 6.06041e-08 0.00345409 -6.96606e-18 1
426 2.38111 0.932701 1.5874 6.06041e-08 0.00345409 -7.66401e-18 1
429 3.17481 0.179954 1.5874 7.01941e-08 0.00447204 -1.008e-17 1
10 3.96851 1.01017 -2.71967e-17 7.25925e-08 0.00537988 4.91671e-18 1
11 3.96851 0.216473 0.793701 7.25925e-08 0.00537988 -5.22153e-18 1
16 4.76222 1.04136 0.793701 6.6859e-08 0.00615525 4.58912e-20 1
430 3.96851 1.01017 1.5874 7.25925e-08 0.00537988 -5.41976e-18 1
433 4.76222 0.24766 1.5874 6.6859e-08 0.00615525 -9.196e-18 1
15 5.55592 0.272748 0.793701 5.33058e-08 0.00677905 -8.38148e-18 1
20 6.34961 1.08482 0.793701 4.24719e-08 0.00723593 -4.22932e-18 1
434 5.55592 1.06645 1.5874 5.33058e-08 0.00677905 2.17544e-17 1
437 6.34961 0.291122 1.5874 4.24719e-08 0.00723593 1.02337e-17 1
19 7.14331 0.302331 0.793701 5.11891e-08 0.00751465 -3.24274e-18 1
23 8.7307 0.302331 0.793701 -5.11891e-08 0.00751465 -1.719e-17 1
24 7.93701 1.0998 0.793701 1.06995e-17 0.00760832 -2.17541e-17 1
438 7.14331 1.09603 1.5874 5.11891e-08 0.00751465 3.449e-19 1
441 7.93701 0.306097 1.5874 -1.39607e-17 0.00760832 -1.60732e-18 1
442 8.7307 1.09603 1.5874 -5.11891e-08 0.00751465 -2.54602e-17 1
27 10.3181 0.272748 0.793701 -5.33058e-08 0.00677905 -2.77876e-17 1
28 9.5244 1.08482 0.793701 -4.24719e-08 0.00723593 -3.4237e-17 1
445 9.5244 0.291122 1.5874 -4.24719e-08 0.00723593 -2.26937e-17 1
446 10.3181 1.06645 1.5874 -5.33058e-08 0.00677905 -2.79391e-17 1
30 11.9055 1.01017 -4.15292e-17 -7.25925e-08 0.00537988 -1.22393e-17 1
31 11.9055 0.216473 0.793701 -7.25925e-08 0.00537988 -2.30678e-17 1
32 11.1118 1.04136 0.793701 -6.6859e-08 0.00615525 -2.77353e-17 1
449 11.1118 0.24766 1.5874 -6.6859e-08 0.00615525 -3.57266e-17 1
450 11.9055 1.01017 1.5874 -7.25925e-08 0.00537988 -2.3631e-17 1
33 12.6992 0.179954 -3.60045e-17 -7.01941e-08 0.00447204 -1.00769e-17 1
34 13.4929 0.932701 -3.21709e-17 -6.06041e-08 0.00345409 -1.0125e-17 1
35 13.4929 0.139001 0.793701 -6.06041e-08 0.00345409 -1.45284e-17 1
36 12.6992 0.973654 0.793701 -7.01941e-08 0.00447204 -1.81257e-17 1
77 13.4929 1.7264 0.793701 -6.06041e-08 0.00345409 -1.38298e-17 1
453 12.6992 0.179954 1.5874 -7.01941e-08 0.00447204 -2.32984e-17 1
454 13.4929 0.932701 1.5874 -6.06041e-08 0.00345409 -1.3149e-17 1
37 14.2866 0.0946197 -2.61916e-17 -4.45926e-08 0.00235109 -7.27629e-18 1
38 15.0803 0.841604 -9.24755e-18 -2.36279e-08 0.00119019 -9.20056e-19 1
39 15.0803 0.047903 0.793701 -2.36279e-08 0.00119019 3.34213e-18 1
40 14.2866 0.88832 0.793701 -4.45926e-08 0.00235109 -1.0066e-17 1
41 15.874 2.31695e-18 8.31019e-17 5.01135e-17 1.00855e-18 6.58436e-18 1
42 15.874 0.793701 0.793701 4.33438e-17 -5.17327e-19 4.57614e-18 1
79 14.2866 1.68202 -2.26996e-17 -4.45926e-08 0.00235109 -8.00019e-18 1
81 15.0803 1.6353 0.793701 -2.36279e-08 0.00119019 1.30416e-18 1
83 15.874 1.5874 8.02137e-17 2.15778e-17 -1.89478e-17 4.01775e-18 1
457 14.2866 0.0946197 1.5874 -4.45926e-08 0.00235109 -4.42505e-18 1
458 15.0803 0.841604 1.5874 -2.36279e-08 0.00119019 1.2646e-18 1
461 15.874 -6.44537e-18 1.5874 4.86708e-17 -1.62397e-17 -1.58078e-18 1
499 14.2866 1.68202 1.5874 -4.45926e-08 0.00235109 -3.60996e-18 1
503 15.874 1.5874 1.5874 3.05734e-17 -1.65926e-18 1.25109e-17 1
44 0.793701 2.429 -6.97549e-18 2.36279e-08 0.00119019 2.7073e-18 1
46 -3.48729e-17 2.3811 0.793701 -4.65247e-17 7.78728e-19 -2.78453e-18 1
50 1.5874 2.47572 0.793701 4.45926e-08 0.00235109 -2.2027e-18 1
85 -4.34749e-17 3.1748 2.68776e-18 -5.62394e-17 -2.77532e-17 3.84477e-18 1
87 0.793701 3.22271 0.793701 2.36279e-08 0.00119019 4.61955e-18 1
89 1.5874 3.26942 -9.19344e-18 4.45926e-08 0.00235109 1.10433e-17 1
464 0.793701 2.429 1.5874 2.36279e-08 0.00119019 -1.33087e-17 1
505 -4.41677e-17 3.1748 1.5874 -5.20238e-17 -2.63151e-17 -7.87481e-18 1
509 1.5874 3.26942 1.5874 4.45926e-08 0.00235109 -6.11155e-19 1
51 3.17481 1.76736 -2.34841e-17 7.01941e-08 0.00447204 5.67232e-18 1
471 3.17481 1.76736 1.5874 7.01941e-08 0.00447204 -3.07995e-18 1
48 2.38111 2.5201 -1.76541e-17 6.06041e-08 0.00345409 5.1329e-18 1
54 3.17481 2.56106 0.793701 7.01941e-08 0.00447204 1.45595e-18 1
91 2.38111 3.3138 0.793701 6.06041e-08 0.00345409 7.3305e-18 1
93 3.17481 3.35476 -2.01631e-17 7.01941e-08 0.00447204 8.22834e-18 1
468 2.38111 2.5201 1.5874 6.06041e-08 0.00345409 -2.4926e-18 1
513 3.17481 3.35476 1.5874 7.01941e-08 0.00447204 5.06545e-18 1
53 3.96851 1.80387 0.793701 7.25925e-08 0.00537988 2.8628e-18 1
475 4.76222 1.83506 1.5874 6.6859e-08 0.00615525 1.7867e-17 1
52 3.96851 2.59757 -2.58354e-17 7.25925e-08 0.00537988 5.46744e-18 1
58 4.76222 2.62876 0.793701 6.6859e-08 0.00615525 2.25226e-17 1
95 3.96851 3.39128 0.793701 7.25925e-08 0.00537988 8.06779e-18 1
472 3.96851 2.59757 1.5874 7.25925e-08 0.00537988 1.97717e-18 1
517 4.76222 3.42246 1.5874 6.6859e-08 0.00615525 2.45049e-17 1
57 5.55592 1.86015 0.793701 5.33058e-08 0.00677905 2.41615e-17 1
479 6.34961 1.87852 1.5874 4.24719e-08 0.00723593 2.9407e-17 1
62 6.34961 2.67222 0.793701 4.24719e-08 0.00723593 2.59026e-17 1
99 5.55592 3.44755 0.793701 5.33058e-08 0.00677905 4.53356e-17 1
476 5.55592 2.65385 1.5874 5.33058e-08 0.00677905 5.02238e-17 1
521 6.34961 3.46592 1.5874 4.24719e-08 0.00723593 3.75924e-17 1
61 7.14331 1.88973 0.793701 5.11891e-08 0.00751465 -1.33016e-17 1
65 8.7307 1.88973 0.793701 -5.11891e-08 0.00751465 -4.54094e-17 1
483 7.93701 1.8935 1.5874 7.18315e-18 0.00760832 -2.65855e-17 1
66 7.93701 2.6872 0.793701 3.72443e-17 0.00760832 -3.63181e-17 1
103 7.14331 3.47713 0.793701 5.11891e-08 0.00751465 -3.10029e-18 1
107 8.7307 3.47713 0.793701 -5.11891e-08 0.00751465 -4.88686e-17 1
480 7.14331 2.68343 1.5874 5.11891e-08 0.00751465 -3.79488e-18 1
484 8.7307 2.68343 1.5874 -5.11891e-08 0.00751465 -4.39215e-17 1
525 7.93701 3.4809 1.5874 1.63214e-17 0.00760832 -3.14388e-17 1
69 10.3181 1.86015 0.793701 -5.33058e-08 0.00677905 -3.96365e-17 1
487 9.5244 1.87852 1.5874 -4.24719e-08 0.00723593 -3.33623e-17 1
70 9.5244 2.67222 0.793701 -4.24719e-08 0.00723593 -5.67748e-17 1
111 10.3181 3.44755 0.793701 -5.33058e-08 0.00677905 -4.42209e-17 1
488 10.3181 2.65385 1.5874 -5.33058e-08 0.00677905 -4.65973e-17 1
529 9.5244 3.46592 1.5874 -4.24719e-08 0.00723593 -4.50505e-17 1
73 11.9055 1.80387 0.793701 -7.25925e-08 0.00537988 -2.36763e-17 1
491 11.1118 1.83506 1.5874 -6.6859e-08 0.00615525 -3.17307e-17 1
72 11.9055 2.59757 -4.2268e-17 -7.25925e-08 0.00537988 -1.48063e-17 1
74 11.1118 2.62876 0.793701 -6.6859e-08 0.00615525 -3.38152e-17 1
115 11.9055 3.39128 0.793701 -7.25925e-08 0.00537988 -2.76922e-17 1
492 11.9055 2.59757 1.5874 -7.25925e-08 0.00537988 -2.98033e-17 1
533 11.1118 3.42246 1.5874 -6.6859e-08 0.00615525 -4.74856e-17 1
75 12.6992 1.76736 -3.8913e-17 -7.01941e-08 0.00447204 -1.18446e-17 1
495 12.6992 1.76736 1.5874 -7.01941e-08 0.00447204 -1.33693e-17 1
76 13.4929 2.5201 -3.06715e-17 -6.06041e-08 0.00345409 -1.02888e-17 1
78 12.6992 2.56106 0.793701 -7.01941e-08 0.00447204 -2.03712e-17 1
117 12.6992 3.35476 -3.89218e-17 -7.01941e-08 0.00447204 -1.25284e-17 1
119 13.4929 3.3138 0.793701 -6.06041e-08 0.00345409 -1.2821e-17 1
496 13.4929 2.5201 1.5874 -6.06041e-08 0.00345409 -4.34131e-18 1
537 12.6992 3.35476 1.5874 -7.01941e-08 0.00447204 -2.10364e-17 1
80 15.0803 2.429 -1.07277e-17 -2.36279e-08 0.00119019 -3.48311e-18 1
82 14.2866 2.47572 0.793701 -4.45926e-08 0.00235109 -7.6411e-18 1
84 15.874 2.3811 0.793701 -1.53001e-18 -2.41699e-17 1.91964e-17 1
121 14.2866 3.26942 -2.172e-17 -4.45926e-08 0.00235109 -8.09171e-18 1
123 15.0803 3.22271 0.793701 -2.36279e-08 0.00119019 1.47392e-18 1
125 15.874 3.1748 5.71188e-17 -2.41022e-17 -1.64939e-17 -2.56183e-18 1
500 15.0803 2.429 1.5874 -2.36279e-08 0.00119019 1.22603e-17 1
541 14.2866 3.26942 1.5874 -4.45926e-08 0.00235109 8.62455e-18 1
545 15.874 3.1748 1.5874 -3.22062e-18 -3.47249e-17 2.62995e-17 1
86 0.793701 4.01641 -2.13147e-18 2.36279e-08 0.00119019 9.43338e-18 1
88 -4.49768e-17 3.9685 0.793701 -5.30165e-17 -5.9051e-17 -1.12531e-18 1
92 1.5874 4.06312 0.793701 4.45926e-08 0.00235109 9.86567e-18 1
127 -4.41275e-17 4.7622 6.74218e-17 -5.16156e-17 -7.7636e-17 5.56716e-18 1
129 0.793701 4.81011 0.793701 2.36279e-08 0.00119019 1.65737e-18 1
131 1.5874 4.85682 -6.50899e-18 4.45926e-08 0.00235109 1.49723e-17 1
506 0.793701 4.01641 1.5874 2.36279e-08 0.00119019 -4.46277e-18 1
547 -4.10532e-17 4.7622 1.5874 -4.60764e-17 -7.8195e-17 -9.26202e-18 1
551 1.5874 4.85682 1.5874 4.45926e-08 0.00235109 4.15252e-18 1
90 2.38111 4.1075 -1.26387e-17 6.06041e-08 0.00345409 1.36162e-17 1
96 3.17481 4.14846 0.793701 7.01941e-08 0.00447204 1.73208e-17 1
133 2.38111 4.9012 0.793701 6.06041e-08 0.00345409 2.08368e-17 1
135 3.17481 4.94216 -1.6789e-17 7.01941e-08 0.00447204 1.83552e-17 1
510 2.38111 4.1075 1.5874 6.06041e-08 0.00345409 9.20126e-18 1
555 3.17481 4.94216 1.5874 7.01941e-08 0.00447204 3.34769e-17 1
94 3.96851 4.18498 -2.23512e-17 7.25925e-08 0.00537988 7.11664e-18 1
100 4.76222 4.21616 0.793701 6.6859e-08 0.00615525 3.04378e-17 1
137 3.96851 4.97868 0.793701 7.25925e-08 0.00537988 3.12773e-17 1
514 3.96851 4.18498 1.5874 7.25925e-08 0.00537988 1.68845e-17 1
559 4.76222 5.00986 1.5874 6.6859e-08 0.00615525 1.64875e-17 1
104 6.34961 4.25963 0.793701 4.24719e-08 0.00723593 4.16667e-17 1
141 5.55592 5.03495 0.793701 5.33058e-08 0.00677905 6.08856e-17 1
518 5.55592 4.24125 1.5874 5.33058e-08 0.00677905 3.64668e-17 1
563 6.34961 5.05333 1.5874 4.24719e-08 0.00723593 2.12354e-17 1
108 7.93701 4.2746 0.793701 3.14163e-17 0.00760832 -2.09712e-17 1
145 7.14331 5.06453 0.793701 5.11891e-08 0.00751465 1.32605e-17 1
149 8.7307 5.06453 0.793701 -5.11891e-08 0.00751465 -5.35875e-18 1
522 7.14331 4.27083 1.5874 5.11891e-08 0.00751465 -2.47616e-18 1
526 8.7307 4.27083 1.5874 -5.11891e-08 0.00751465 -2.89274e-17 1
567 7.93701 5.0683 1.5874 6.86672e-18 0.00760832 -1.74346e-17 1
112 9.5244 4.25963 0.793701 -4.24719e-08 0.00723593 -2.36525e-17 1
153 10.3181 5.03495 0.793701 -5.33058e-08 0.00677905 9.45592e-18 1
530 10.3181 4.24125 1.5874 -5.33058e-08 0.00677905 -4.38962e-17 1
571 9.5244 5.05333 1.5874 -4.24719e-08 0.00723593 -3.4213e-18 1
114 11.9055 4.18498 -4.265e-17 -7.25925e-08 0.00537988 -1.23068e-17 1
116 11.1118 4.21616 0.793701 -6.6859e-08 0.00615525 -2.861e-17 1
157 11.9055 4.97868 0.793701 -7.25925e-08 0.00537988 -2.75504e-17 1
534 11.9055 4.18498 1.5874 -7.25925e-08 0.00537988 -4.05163e-17 1
575 11.1118 5.00986 1.5874 -6.6859e-08 0.00615525 -4.04785e-17 1
118 13.4929 4.1075 -3.18685e-17 -6.06041e-08 0.00345409 -1.1421e-17 1
120 12.6992 4.14846 0.793701 -7.01941e-08 0.00447204 -2.45406e-17 1
159 12.6992 4.94216 -4.278e-17 -7.01941e-08 0.00447204 -1.3911e-17 1
161 13.4929 4.9012 0.793701 -6.06041e-08 0.00345409 -2.08277e-17 1
538 13.4929 4.1075 1.5874 -6.06041e-08 0.00345409 -5.4115e-18 1
579 12.6992 4.94216 1.5874 -7.01941e-08 0.00447204 -3.40083e-17 1
122 15.0803 4.01641 -1.25496e-17 -2.36279e-08 0.00119019 -7.50213e-18 1
124 14.2866 4.06312 0.793701 -4.45926e-08 0.00235109 -5.26281e-18 1
126 15.874 3.9685 0.793701 -7.02814e-18 -3.6024e-17 4.34687e-18 1
163 14.2866 4.85682 -2.56283e-17 -4.45926e-08 0.00235109 -1.30874e-17 1
165 15.0803 4.81011 0.793701 -2.36279e-08 0.00119019 1.55945e-18 1
167 15.874 4.7622 6.28801e-17 2.37037e-17 -3.24175e-17 -1.41249e-17 1
542 15.0803 4.01641 1.5874 -2.36279e-08 0.00119019 1.61298e-17 1
583 14.2866 4.85682 1.5874 -4.45926e-08 0.00235109 1.23467e-17 1
587 15.874 4.7622 1.5874 5.73661e-18 -4.79347e-17 1.03957e-17 1
128 0.793701 5.60381 -1.72271e-18 2.36279e-08 0.00119019 1.08291e-17 1
130 -3.81846e-17 5.5559 0.793701 -4.34997e-17 -8.65599e-17 -5.51675e-19 1
134 1.5874 5.65052 0.793701 4.45926e-08 0.00235109 1.51418e-17 1
169 -3.2249e-17 6.3496 9.72368e-17 -3.93931e-17 -1.06266e-16 1.39011e-17 1
171 0.793701 6.39751 0.793701 2.36279e-08 0.00119019 1.05003e-17 1
173 1.5874 6.44422 -5.80107e-18 4.45926e-08 0.00235109 1.73025e-17 1
548 0.793701 5.60381 1.5874 2.36279e-08 0.00119019 -3.80725e-18 1
589 -2.82741e-17 6.3496 1.5874 -3.25473e-17 -9.14132e-17 -6.48307e-18 1
593 1.5874 6.44422 1.5874 4.45926e-08 0.00235109 1.93092e-17 1
132 2.38111 5.6949 -1.18791e-17 6.06041e-08 0.00345409 2.0625e-17 1
138 3.17481 5.73586 0.793701 7.01941e-08 0.00447204 4.52719e-17 1
175 2.38111 6.4886 0.793701 6.06041e-08 0.00345409 3.41054e-17 1
177 3.17481 6.52956 -1.76841e-17 7.01941e-08 0.00447204 2.07566e-17 1
552 2.38111 5.6949 1.5874 6.06041e-08 0.00345409 3.29531e-17 1
597 3.17481 6.52956 1.5874 7.01941e-08 0.00447204 4.62794e-17 1
136 3.96851 5.77238 -1.6302e-17 7.25925e-08 0.00537988 2.44054e-17 1
142 4.76222 5.80356 0.793701 6.6859e-08 0.00615525 4.18302e-17 1
179 3.96851 6.56608 0.793701 7.25925e-08 0.00537988 3.62953e-17 1
181 4.76222 6.59726 -1.53366e-17 6.6859e-08 0.00615525 3.37229e-17 1
556 3.96851 5.77238 1.5874 7.25925e-08 0.00537988 3.20471e-17 1
601 4.76222 6.59726 1.5874 6.6859e-08 0.00615525 6.66626e-18 1
146 6.34961 5.84703 0.793701 4.24719e-08 0.00723593 5.29845e-17 1
183 5.55592 6.62235 0.793701 5.33058e-08 0.00677905 6.21818e-17 1
560 5.55592 5.82865 1.5874 5.33058e-08 0.00677905 1.72884e-17 1
605 6.34961 6.64073 1.5874 4.24719e-08 0.00723593 2.02044e-17 1
150 7.93701 5.862 0.793701 -5.59764e-19 0.00760832 3.82721e-18 1
187 7.14331 6.65193 0.793701 5.11891e-08 0.00751465 2.7494e-17 1
191 8.7307 6.65193 0.793701 -5.11891e-08 0.00751465 7.41427e-18 1
564 7.14331 5.85823 1.5874 5.11891e-08 0.00751465 4.99619e-18 1
568 8.7307 5.85823 1.5874 -5.11891e-08 0.00751465 6.40196e-18 1
609 7.93701 6.6557 1.5874 -1.8847e-17 0.00760832 6.32609e-19 1
154 9.5244 5.84703 0.793701 -4.24719e-08 0.00723593 2.63755e-17 1
195 10.3181 6.62235 0.793701 -5.33058e-08 0.00677905 1.45233e-17 1
572 10.3181 5.82865 1.5874 -5.33058e-08 0.00677905 4.31723e-18 1
613 9.5244 6.64073 1.5874 -4.24719e-08 0.00723593 2.67674e-17 1
156 11.9055 5.77238 -4.00075e-17 -7.25925e-08 0.00537988 -9.97432e-18 1
158 11.1118 5.80356 0.793701 -6.6859e-08 0.00615525 -3.99551e-18 1
199 11.9055 6.56608 0.793701 -7.25925e-08 0.00537988 -2.70649e-17 1
576 11.9055 5.77238 1.5874 -7.25925e-08 0.00537988 -4.04894e-17 1
617 11.1118 6.59726 1.5874 -6.6859e-08 0.00615525 -1.90648e-17 1
160 13.4929 5.6949 -3.46554e-17 -6.06041e-08 0.00345409 -1.52662e-17 1
162 12.6992 5.73586 0.793701 -7.01941e-08 0.00447204 -2.9953e-17 1
201 12.6992 6.52956 -4.26998e-17 -7.01941e-08 0.00447204 -1.4536e-17 1
203 13.4929 6.4886 0.793701 -6.06041e-08 0.00345409 -2.09297e-17 1
580 13.4929 5.6949 1.5874 -6.06041e-08 0.00345409 -1.61569e-17 1
621 12.6992 6.52956 1.5874 -7.01941e-08 0.00447204 -3.31184e-17 1
164 15.0803 5.60381 -2.04554e-17 -2.36279e-08 0.00119019 -2.01259e-17 1
166 14.2866 5.65052 0.793701 -4.45926e-08 0.00235109 -1.03836e-17 1
168 15.874 5.5559 0.793701 3.98142e-17 -2.72197e-17 -7.67346e-18 1
205 14.2866 6.44422 -2.43588e-17 -4.45926e-08 0.00235109 -1.52603e-17 1
207 15.0803 6.39751 0.793701 -2.36279e-08 0.00119019 6.12571e-18 1
209 15.874 6.3496 1.468e-16 7.26213e-17 -1.78045e-17 -2.67406e-17 1
584 15.0803 5.60381 1.5874 -2.36279e-08 0.00119019 2.33846e-17 1
625 14.2866 6.44422 1.5874 -4.45926e-08 0.00235109 1.40898e-17 1
629 15.874 6.3496 1.5874 3.06881e-17 -7.85961e-18 3.19751e-18 1
170 0.793701 7.19121 1.19032e-17 2.36279e-08 0.00119019 2.66589e-17 1
172 -2.36758e-17 7.1433 0.793701 -3.13368e-17 -1.12257e-16 1.46001e-17 1
176 1.5874 7.23792 0.793701 4.45926e-08 0.00235109 2.22337e-17 1
211 -1.8646e-17 7.93701 8.07922e-17 -2.62814e-17 -1.27295e-16 4.02968e-17 1
212 0.793701 8.77861 5.79077e-18 2.36279e-08 0.00119019 2.45092e-17 1
213 0.793701 7.98491 0.793701 2.36279e-08 0.00119019 3.03937e-17 1
214 -3.00125e-17 8.73071 0.793701 -4.45138e-17 -1.0185e-16 3.97445e-17 1
215 1.5874 8.03162 1.16285e-18 4.45926e-08 0.00235109 2.59748e-17 1
590 0.793701 7.19121 1.5874 2.36279e-08 0.00119019 6.9656e-18 1
631 -2.29159e-17 7.93701 1.5874 -3.15516e-17 -9.84161e-17 1.45398e-17 1
632 0.793701 8.77861 1.5874 2.36279e-08 0.00119019 2.80019e-17 1
635 1.5874 8.03162 1.5874 4.45926e-08 0.00235109 1.70164e-17 1
174 2.38111 7.28231 -1.42424e-17 6.06041e-08 0.00345409 1.72546e-17 1
180 3.17481 7.32326 0.793701 7.01941e-08 0.00447204 2.42369e-17 1
217 2.38111 8.07601 0.793701 6.06041e-08 0.00345409 1.60555e-17 1
219 3.17481 8.11696 -2.94184e-17 7.01941e-08 0.00447204 3.83342e-18 1
594 2.38111 7.28231 1.5874 6.06041e-08 0.00345409 3.25169e-17 1
639 3.17481 8.11696 1.5874 7.01941e-08 0.00447204 6.80516e-18 1
178 3.96851 7.35978 -2.96521e-17 7.25925e-08 0.00537988 7.65052e-18 1
184 4.76222 7.39096 0.793701 6.6859e-08 0.00615525 2.55823e-17 1
221 3.96851 8.15348 0.793701 7.25925e-08 0.00537988 -5.41779e-18 1
598 3.96851 7.35978 1.5874 7.25925e-08 0.00537988 1.48094e-17 1
643 4.76222 8.18467 1.5874 6.6859e-08 0.00615525 -1.92315e-17 1
188 6.34961 7.43443 0.793701 4.24719e-08 0.00723593 4.73782e-17 1
225 5.55592 8.20975 0.793701 5.33058e-08 0.00677905 1.49659e-17 1
602 5.55592 7.41605 1.5874 5.33058e-08 0.00677905 4.14652e-18 1
647 6.34961 8.22813 1.5874 4.24719e-08 0.00723593 4.96076e-19 1
192 7.93701 7.4494 0.793701 -2.08355e-17 0.00760832 2.21233e-17 1
229 7.14331 8.23934 0.793701 5.11891e-08 0.00751465 3.58273e-17 1
233 8.7307 8.23934 0.793701 -5.11891e-08 0.00751465 1.88248e-17 1
606 7.14331 7.44564 1.5874 5.11891e-08 0.00751465 1.01496e-17 1
610 8.7307 7.44564 1.5874 -5.11891e-08 0.00751465 8.14816e-18 1
651 7.93701 8.2431 1.5874 -2.11096e-17 0.00760832 2.20953e-17 1
196 9.5244 7.43443 0.793701 -4.24719e-08 0.00723593 5.41626e-18 1
237 10.3181 8.20975 0.793701 -5.33058e-08 0.00677905 -1.33959e-17 1
614 10.3181 7.41605 1.5874 -5.33058e-08 0.00677905 5.69769e-20 1
655 9.5244 8.22813 1.5874 -4.24719e-08 0.00723593 -9.5688e-19 1
198 11.9055 7.35978 -4.10213e-17 -7.25925e-08 0.00537988 -9.9586e-18 1
200 11.1118 7.39096 0.793701 -6.6859e-08 0.00615525 -1.62655e-17 1
241 11.9055 8.15348 0.793701 -7.25925e-08 0.00537988 -2.2037e-17 1
618 11.9055 7.35978 1.5874 -7.25925e-08 0.00537988 -3.34313e-17 1
659 11.1118 8.18467 1.5874 -6.6859e-08 0.00615525 -2.82361e-17 1
202 13.4929 7.28231 -3.09292e-17 -6.06041e-08 0.00345409 -1.20648e-17 1
204 12.6992 7.32326 0.793701 -7.01941e-08 0.00447204 -2.48949e-17 1
243 12.6992 8.11696 -3.66155e-17 -7.01941e-08 0.00447204 -1.01602e-17 1
245 13.4929 8.07601 0.793701 -6.06041e-08 0.00345409 -9.21034e-18 1
622 13.4929 7.28231 1.5874 -6.06041e-08 0.00345409 -5.2265e-18 1
663 12.6992 8.11696 1.5874 -7.01941e-08 0.00447204 -2.09791e-17 1
206 15.0803 7.19121 -1.41636e-17 -2.36279e-08 0.00119019 -1.15249e-17 1
208 14.2866 7.23792 0.793701 -4.45926e-08 0.00235109 6.4373e-18 1
210 15.874 7.1433 0.793701 6.04909e-17 -9.32376e-18 5.11266e-19 1
247 14.2866 8.03162 -1.99043e-17 -4.45926e-08 0.00235109 -6.36093e-18 1
248 15.0803 8.77861 -1.33269e-17 -2.36279e-08 0.00119019 -6.53265e-18 1
249 15.0803 7.98491 0.793701 -2.36279e-08 0.00119019 8.32932e-18 1
251 15.874 7.93701 9.73514e-17 5.58619e-17 -1.57244e-17 -1.25537e-17 1
252 15.874 8.73071 0.793701 3.49287e-17 -2.36127e-17 -8.49418e-18 1
626 15.0803 7.19121 1.5874 -2.36279e-08 0.00119019 1.47664e-17 1
667 14.2866 8.03162 1.5874 -4.45926e-08 0.00235109 1.51684e-18 1
668 15.0803 8.77861 1.5874 -2.36279e-08 0.00119019 -1.06973e-17 1
671 15.874 7.93701 1.5874 3.69514e-17 -2.56011e-17 -6.15678e-18 1
218 1.5874 8.82533 0.793701 4.45926e-08 0.00235109 2.42956e-17 1
253 -3.58306e-17 9.52441 1.27704e-17 -5.51258e-17 -6.95211e-17 2.59487e-17 1
254 0.793701 10.366 -9.11347e-18 2.36279e-08 0.00119019 2.80116e-18 1
255 0.793701 9.57231 0.793701 2.36279e-08 0.00119019 1.68708e-17 1
256 -6.31213e-17 10.3181 0.793701 -9.47843e-17 -8.43498e-17 -1.13473e-18 1
257 1.5874 9.61903 -1.40197e-17 4.45926e-08 0.00235109 6.32279e-18 1
260 1.5874 10.4127 0.793701 4.45926e-08 0.00235109 -4.77638e-19 1
673 -4.83943e-17 9.52441 1.5874 -7.07741e-17 -1.10571e-16 2.15857e-17 1
674 0.793701 10.366 1.5874 2.36279e-08 0.00119019 8.38251e-18 1
677 1.5874 9.61903 1.5874 4.45926e-08 0.00235109 1.8101e-17 1
216 2.38111 8.86971 -2.12877e-17 6.06041e-08 0.00345409 6.32103e-18 1
222 3.17481 8.91066 0.793701 7.01941e-08 0.00447204 -7.35419e-18 1
636 2.38111 8.86971 1.5874 6.06041e-08 0.00345409 6.54341e-18 1
258 2.38111 10.4571 -2.75284e-17 6.06041e-08 0.00345409 -3.96286e-18 1
259 2.38111 9.66341 0.793701 6.06041e-08 0.00345409 -1.57761e-18 1
261 3.17481 9.70436 -3.8925e-17 7.01941e-08 0.00447204 -1.04828e-17 1
264 3.17481 10.4981 0.793701 7.01941e-08 0.00447204 -2.1605e-17 1
678 2.38111 10.4571 1.5874 6.06041e-08 0.00345409 -8.7278e-18 1
681 3.17481 9.70436 1.5874 7.01941e-08 0.00447204 -1.75258e-17 1
220 3.96851 8.94718 -3.83854e-17 7.25925e-08 0.00537988 -8.49339e-18 1
226 4.76222 8.97837 0.793701 6.6859e-08 0.00615525 -1.84211e-17 1
640 3.96851 8.94718 1.5874 7.25925e-08 0.00537988 -2.5648e-17 1
262 3.96851 10.5346 -3.82482e-17 7.25925e-08 0.00537988 -9.80619e-18 1
263 3.96851 9.74088 0.793701 7.25925e-08 0.00537988 -2.31388e-17 1
268 4.76222 10.5658 0.793701 6.6859e-08 0.00615525 -2.37144e-17 1
682 3.96851 10.5346 1.5874 7.25925e-08 0.00537988 -3.47742e-17 1
685 4.76222 9.77207 1.5874 6.6859e-08 0.00615525 -3.72007e-17 1
230 6.34961 9.02183 0.793701 4.24719e-08 0.00723593 1.57217e-17 1
644 5.55592 9.00345 1.5874 5.33058e-08 0.00677905 -2.91118e-17 1
267 5.55592 9.79715 0.793701 5.33058e-08 0.00677905 -1.30227e-17 1
689 6.34961 9.81553 1.5874 4.24719e-08 0.00723593 6.04824e-18 1
234 7.93701 9.0368 0.793701 -8.8339e-18 0.00760832 4.52011e-17 1
648 7.14331 9.03304 1.5874 5.11891e-08 0.00751465 3.59961e-17 1
652 8.7307 9.03304 1.5874 -5.11891e-08 0.00751465 3.96659e-17 1
271 7.14331 9.82674 0.793701 5.11891e-08 0.00751465 4.21856e-17 1
275 8.7307 9.82674 0.793701 -5.11891e-08 0.00751465 3.2772e-17 1
693 7.93701 9.8305 1.5874 -1.47662e-17 0.00760832 8.31964e-17 1
238 9.5244 9.02183 0.793701 -4.24719e-08 0.00723593 1.45805e-18 1
656 10.3181 9.00345 1.5874 -5.33058e-08 0.00677905 -2.18906e-17 1
279 10.3181 9.79715 0.793701 -5.33058e-08 0.00677905 -1.25939e-17 1
697 9.5244 9.81553 1.5874 -4.24719e-08 0.00723593 1.68899e-17 1
240 11.9055 8.94718 -3.74764e-17 -7.25925e-08 0.00537988 -7.97747e-18 1
242 11.1118 8.97837 0.793701 -6.6859e-08 0.00615525 -1.97175e-17 1
660 11.9055 8.94718 1.5874 -7.25925e-08 0.00537988 -2.76954e-17 1
282 11.9055 10.5346 -3.56663e-17 -7.25925e-08 0.00537988 -4.9357e-18 1
283 11.9055 9.74088 0.793701 -7.25925e-08 0.00537988 -1.71265e-17 1
284 11.1118 10.5658 0.793701 -6.6859e-08 0.00615525 -1.93992e-17 1
701 11.1118 9.77207 1.5874 -6.6859e-08 0.00615525 -2.98723e-17 1
702 11.9055 10.5346 1.5874 -7.25925e-08 0.00537988 -2.48313e-17 1
244 13.4929 8.86971 -2.80794e-17 -6.06041e-08 0.00345409 -7.2478e-18 1
246 12.6992 8.91066 0.793701 -7.01941e-08 0.00447204 -1.79299e-17 1
664 13.4929 8.86971 1.5874 -6.06041e-08 0.00345409 -1.35614e-17 1
285 12.6992 9.70436 -3.56544e-17 -7.01941e-08 0.00447204 -7.49273e-18 1
286 13.4929 10.4571 -2.3855e-17 -6.06041e-08 0.00345409 -9.18419e-19 1
287 13.4929 9.66341 0.793701 -6.06041e-08 0.00345409 -1.30071e-17 1
288 12.6992 10.4981 0.793701 -7.01941e-08 0.00447204 -1.38499e-17 1
705 12.6992 9.70436 1.5874 -7.01941e-08 0.00447204 -2.19704e-17 1
706 13.4929 10.4571 1.5874 -6.06041e-08 0.00345409 -1.38387e-17 1
250 14.2866 8.82533 0.793701 -4.45926e-08 0.00235109 -5.73383e-18 1
289 14.2866 9.61903 -1.40168e-17 -4.45926e-08 0.00235109 4.66849e-19 1
290 15.0803 10.366 9.7959e-18 -2.36279e-08 0.00119019 2.34792e-17 1
291 15.0803 9.57231 0.793701 -2.36279e-08 0.00119019 -2.06806e-18 1
292 14.2866 10.4127 0.793701 -4.45926e-08 0.00235109 6.42294e-18 1
293 15.874 9.52441 6.85285e-18 4.57877e-17 -1.57969e-17 -5.0994e-18 1
294 15.874 10.3181 0.793701 3.8453e-17 1.42886e-17 -3.09137e-18 1
709 14.2866 9.61903 1.5874 -4.45926e-08 0.00235109 -1.18343e-17 1
710 15.0803 10.366 1.5874 -2.36279e-08 0.00119019 -5.60895e-18 1
713 15.874 9.52441 1.5874 2.33183e-17 -1.19379e-17 -1.51579e-17 1
295 -6.6815e-17 11.1118 -9.6704e-18 -1.01592e-16 -6.74974e-17 -7.39507e-18 1
296 0.793701 11.9534 -2.19888e-17 2.36279e-08 0.00119019 -1.57659e-17 1
297 0.793701 11.1597 0.793701 2.36279e-08 0.00119019 -8.44708e-18 1
298 2.71744e-17 11.9055 0.793701 -1.04311e-16 -7.49767e-17 -1.9903e-17 1
299 1.5874 11.2064 -1.84923e-17 4.45926e-08 0.00235109 -2.99878e-18 1
302 1.5874 12.0001 0.793701 4.45926e-08 0.00235109 -2.3248e-18 1
715 4.54977e-17 11.1118 1.5874 -1.00475e-16 -8.71296e-17 -1.28016e-17 1
716 0.793701 11.9534 1.5874 2.36279e-08 0.00119019 -1.18849e-17 1
719 1.5874 11.2064 1.5874 4.45926e-08 0.00235109 -6.44964e-18 1
300 2.38111 12.0445 -3.17047e-17 6.06041e-08 0.00345409 -1.11955e-17 1
301 2.38111 11.2508 0.793701 6.06041e-08 0.00345409 -1.20375e-17 1
303 3.17481 11.2918 -3.77293e-17 7.01941e-08 0.00447204 -1.15629e-17 1
306 3.17481 12.0855 0.793701 7.01941e-08 0.00447204 -2.13341e-17 1
720 2.38111 12.0445 1.5874 6.06041e-08 0.00345409 -9.69003e-18 1
723 3.17481 11.2918 1.5874 7.01941e-08 0.00447204 -2.90825e-17 1
304 3.96851 12.122 -3.72891e-17 7.25925e-08 0.00537988 -8.64177e-18 1
305 3.96851 11.3283 0.793701 7.25925e-08 0.00537988 -2.4184e-17 1
310 4.76222 12.1532 0.793701 6.6859e-08 0.00615525 -2.29809e-17 1
724 3.96851 12.122 1.5874 7.25925e-08 0.00537988 -3.65949e-17 1
727 4.76222 11.3595 1.5874 6.6859e-08 0.00615525 -3.89918e-17 1
272 6.34961 10.6092 0.793701 4.24719e-08 0.00723593 1.99844e-18 1
686 5.55592 10.5909 1.5874 5.33058e-08 0.00677905 -2.86465e-17 1
309 5.55592 11.3846 0.793701 5.33058e-08 0.00677905 -1.90366e-17 1
314 6.34961 12.1966 0.793701 4.24719e-08 0.00723593 2.4752e-18 1
728 5.55592 12.1783 1.5874 5.33058e-08 0.00677905 -2.89588e-17 1
731 6.34961 11.4029 1.5874 4.24719e-08 0.00723593 1.42502e-17 1
276 7.93701 10.6242 0.793701 -1.94292e-17 0.00760832 4.74252e-17 1
690 7.14331 10.6204 1.5874 5.11891e-08 0.00751465 7.15686e-17 1
694 8.7307 10.6204 1.5874 -5.11891e-08 0.00751465 7.81747e-17 1
313 7.14331 11.4141 0.793701 5.11891e-08 0.00751465 2.72916e-17 1
317 8.7307 11.4141 0.793701 -5.11891e-08 0.00751465 3.43179e-17 1
318 7.93701 12.2116 0.793701 -1.90158e-17 0.00760832 4.49003e-17 1
732 7.14331 12.2078 1.5874 5.11891e-08 0.00751465 6.05118e-17 1
735 7.93701 11.4179 1.5874 -1.50835e-17 0.00760832 9.84253e-17 1
736 8.7307 12.2078 1.5874 -5.11891e-08 0.00751465 7.48608e-17 1
280 9.5244 10.6092 0.793701 -4.24719e-08 0.00723593 8.44744e-18 1
698 10.3181 10.5909 1.5874 -5.33058e-08 0.00677905 -2.27677e-17 1
321 10.3181 11.3846 0.793701 -5.33058e-08 0.00677905 -1.53709e-17 1
322 9.5244 12.1966 0.793701 -4.24719e-08 0.00723593 4.66178e-18 1
739 9.5244 11.4029 1.5874 -4.24719e-08 0.00723593 1.78918e-17 1
740 10.3181 12.1783 1.5874 -5.33058e-08 0.00677905 -2.84305e-17 1
324 11.9055 12.122 -3.43361e-17 -7.25925e-08 0.00537988 -2.92663e-18 1
325 11.9055 11.3283 0.793701 -7.25925e-08 0.00537988 -1.59413e-17 1
326 11.1118 12.1532 0.793701 -6.6859e-08 0.00615525 -2.26499e-17 1
743 11.1118 11.3595 1.5874 -6.6859e-08 0.00615525 -3.31886e-17 1
744 11.9055 12.122 1.5874 -7.25925e-08 0.00537988 -2.89241e-17 1
327 12.6992 11.2918 -3.10206e-17 -7.01941e-08 0.00447204 -3.61793e-18 1
328 13.4929 12.0445 -1.66622e-17 -6.06041e-08 0.00345409 9.71187e-18 1
329 13.4929 11.2508 0.793701 -6.06041e-08 0.00345409 -3.66361e-18 1
330 12.6992 12.0855 0.793701 -7.01941e-08 0.00447204 -1.39865e-17 1
747 12.6992 11.2918 1.5874 -7.01941e-08 0.00447204 -2.11067e-17 1
748 13.4929 12.0445 1.5874 -6.06041e-08 0.00345409 -1.42525e-17 1
331 14.2866 11.2064 6.23219e-18 -4.45926e-08 0.00235109 2.93809e-17 1
332 15.0803 11.9534 3.21846e-17 -2.36279e-08 0.00119019 5.21148e-17 1
333 15.0803 11.1597 0.793701 -2.36279e-08 0.00119019 2.32108e-17 1
334 14.2866 12.0001 0.793701 -4.45926e-08 0.00235109 1.36783e-17 1
335 15.874 11.1118 2.74045e-17 6.71292e-17 1.5451e-18 3.3364e-17 1
336 15.874 11.9055 0.793701 4.28671e-17 6.31656e-19 1.57933e-17 1
751 14.2866 11.2064 1.5874 -4.45926e-08 0.00235109 -2.0828e-18 1
752 15.0803 11.9534 1.5874 -2.36279e-08 0.00119019 -6.19533e-18 1
755 15.874 11.1118 1.5874 2.83825e-17 2.35258e-17 -1.18573e-17 1
337 -5.92587e-17 12.6992 2.65964e-17 -9.60397e-17 -8.6824e-17 -1.50144e-17 1
338 0.793701 13.5408 -1.88601e-17 2.36279e-08 0.00119019 -9.15808e-18 1
339 0.793701 12.7471 0.793701 2.36279e-08 0.00119019 -1.09593e-17 1
340 1.2497e-17 13.4929 0.793701 -7.79566e-17 -9.67948e-17 -9.06253e-18 1
341 1.5874 12.7938 -2.60259e-17 4.45926e-08 0.00235109 -9.43724e-18 1
344 1.5874 13.5875 0.793701 4.45926e-08 0.00235109 6.50671e-20 1
757 8.32641e-17 12.6992 1.5874 -9.90684e-17 -7.40387e-17 -1.52291e-17 1
758 0.793701 13.5408 1.5874 2.36279e-08 0.00119019 -1.32494e-17 1
761 1.5874 12.7938 1.5874 4.45926e-08 0.00235109 -3.83494e-18 1
342 2.38111 13.6319 -2.1987e-17 6.06041e-08 0.00345409 2.66907e-18 1
343 2.38111 12.8382 0.793701 6.06041e-08 0.00345409 -2.29187e-18 1
345 3.17481 12.8792 -3.6897e-17 7.01941e-08 0.00447204 -8.88637e-18 1
348 3.17481 13.6729 0.793701 7.01941e-08 0.00447204 -1.09059e-17 1