ITEM: TIMESTEP
23000
ITEM: NUMBER OF ATOMS
8000
ITEM: BOX BOUNDS pp pp pp
0.0000000000000000e+00 3.1748021039364001e+01
0.0000000000000000e+00 1.5874010519682001e+01
0.0000000000000000e+00 1.5874010519682001e+01
ITEM: ATOMS id x y z vx vy vz c_rho_peratom
2 0.793714 0.912391 -1.83039e-17 -5.16759e-09 0.000637186 -1.31077e-16 1
3 0.793714 0.11869 0.793701 -5.16759e-09 0.000637186 -7.45982e-17 1
4 2.6758e-17 0.793701 0.793701 -2.5674e-17 -4.00782e-19 -7.95262e-17 1
5 1.58745 0.234417 -1.50659e-16 -9.93285e-09 0.00125871 -1.08312e-16 1
8 1.58745 1.02812 0.793701 -9.93285e-09 0.00125871 -1.09021e-16 1
43 1.36952e-16 1.5874 3.62365e-16 -2.01281e-17 -3.26244e-17 -1.12392e-16 1
45 0.793714 1.70609 0.793701 -5.16759e-09 0.000637186 -1.10016e-16 1
422 0.793714 0.912391 1.5874 -5.16759e-09 0.000637186 -3.98227e-17 1
425 1.58745 0.234417 1.5874 -9.93285e-09 0.00125871 -3.95564e-17 1
463 5.19239e-17 1.5874 1.5874 -5.28711e-17 -4.16911e-17 -4.32088e-17 1
6 2.3812 1.13804 -1.41012e-16 -1.4453e-08 0.00184927 -1.05101e-16 1
7 2.3812 0.344335 0.793701 -1.4453e-08 0.00184927 -7.16123e-17 1
9 3.17494 0.445746 -1.04996e-16 -1.82956e-08 0.00239428 -6.50527e-17 1
12 3.17494 1.23945 0.793701 -1.82956e-08 0.00239428 -9.34604e-17 1
426 2.3812 1.13804 1.5874 -1.4453e-08 0.00184927 -7.99921e-17 1
429 3.17494 0.445746 1.5874 -1.82956e-08 0.00239428 -5.46414e-17 1
10 3.96867 1.32986 -1.68906e-16 -2.08184e-08 0.00288033 -9.58946e-17 1
11 3.96867 0.53616 0.793701 -2.08184e-08 0.00288033 -5.09964e-17 1
16 4.76239 1.40706 0.793701 -2.19449e-08 0.00329543 -6.73712e-17 1
430 3.96867 1.32986 1.5874 -2.08184e-08 0.00288033 -5.99602e-17 1
433 4.76239 0.613361 1.5874 -2.19449e-08 0.00329543 -2.44248e-17 1
15 5.55607 0.675459 0.793701 -2.1415e-08 0.00362937 -3.88501e-17 1
20 6.34973 1.51463 0.793701 -1.41253e-08 0.00387394 -4.367e-17 1
434 5.55607 1.46916 1.5874 -2.1415e-08 0.00362937 -3.01579e-17 1
437 6.34973 0.720932 1.5874 -1.41253e-08 0.00387394 -6.49083e-18 1
19 7.14338 0.74867 0.793701 8.02946e-09 0.00402313 -1.30739e-17 1
23 8.73063 0.74867 0.793701 -8.02946e-09 0.00402313 -1.70265e-17 1
24 7.93701 1.55169 0.793701 1.1854e-17 0.00407327 -2.58448e-17 1
438 7.14338 1.54237 1.5874 8.02946e-09 0.00402313 -2.21209e-17 1
441 7.93701 0.757991 1.5874 2.45609e-18 0.00407327 -1.115e-17 1
442 8.73063 1.54237 1.5874 -8.02946e-09 0.00402313 -5.26522e-17 1
27 10.3179 0.675459 0.793701 2.1415e-08 0.00362937 -3.77335e-17 1
28 9.52428 1.51463 0.793701 1.41253e-08 0.00387394 -6.60774e-17 1
445 9.52428 0.720932 1.5874 1.41253e-08 0.00387394 -3.29172e-17 1
446 10.3179 1.46916 1.5874 2.1415e-08 0.00362937 -6.50535e-17 1
30 11.9053 1.32986 -3.38015e-17 2.08184e-08 0.00288033 -2.29422e-18 1
31 11.9053 0.53616 0.793701 2.08184e-08 0.00288033 -1.21062e-18 1
32 11.1116 1.40706 0.793701 2.19449e-08 0.00329543 -2.91051e-17 1
449 11.1116 0.613361 1.5874 2.19449e-08 0.00329543 -2.29732e-17 1
450 11.9053 1.32986 1.5874 2.08184e-08 0.00288033 -8.52664e-18 1
33 12.6991 0.445746 -5.76801e-17 1.82956e-08 0.00239428 -1.42838e-17 1
34 13.4928 1.13804 -7.47823e-17 1.4453e-08 0.00184927 -2.35649e-17 1
35 13.4928 0.344335 0.793701 1.4453e-08 0.00184927 -7.826e-18 1
36 12.6991 1.23945 0.793701 1.82956e-08 0.00239428 -5.66487e-18 1
453 12.6991 0.445746 1.5874 1.82956e-08 0.00239428 7.43937e-18 1
454 13.4928 1.13804 1.5874 1.4453e-08 0.00184927 1.15807e-18 1
37 14.2866 0.234417 -6.40397e-17 9.93285e-09 0.00125871 -2.84318e-17 1
38 15.0803 0.912391 -7.73058e-17 5.16759e-09 0.000637186 -5.07029e-17 1
39 15.0803 0.11869 0.793701 5.16759e-09 0.000637186 -5.07967e-18 1
40 14.2866 1.02812 0.793701 9.93285e-09 0.00125871 -1.35071e-17 1
41 15.874 -1.06306e-16 1.06959e-16 -3.60274e-17 -6.0447e-17 -6.82283e-17 1
42 15.874 0.793701 0.793701 -4.48661e-17 -3.81205e-17 -5.4611e-19 1
81 15.0803 1.70609 0.793701 5.16759e-09 0.000637186 -8.9088e-18 1
83 15.874 1.5874 -8.87919e-17 -3.56437e-17 -2.06289e-17 -6.70019e-17 1
457 14.2866 0.234417 1.5874 9.93285e-09 0.00125871 -3.63868e-18 1
458 15.0803 0.912391 1.5874 5.16759e-09 0.000637186 6.60549e-18 1
461 15.874 -1.30021e-16 1.5874 -4.49689e-17 -5.63044e-17 2.10281e-17 1
503 15.874 1.5874 1.5874 -5.55797e-17 -3.34672e-17 5.05158e-18 1
47 1.58745 1.82182 -1.62245e-16 -9.93285e-09 0.00125871 -1.46115e-16 1
467 1.58745 1.82182 1.5874 -9.93285e-09 0.00125871 -6.98725e-17 1
44 0.793714 2.49979 -3.83958e-17 -5.16759e-09 0.000637186 -1.46339e-16 1
46 3.5921e-17 2.3811 0.793701 -5.07353e-17 -9.02546e-17 -8.55591e-17 1
50 1.58745 2.61552 0.793701 -9.93285e-09 0.00125871 -1.46516e-16 1
85 2.11285e-16 3.1748 3.15011e-16 -8.6698e-19 -1.16078e-16 -1.11324e-16 1
87 0.793714 3.29349 0.793701 -5.16759e-09 0.000637186 -1.25387e-16 1
89 1.58745 3.40922 -1.53602e-16 -9.93285e-09 0.00125871 -1.4797e-16 1
464 0.793714 2.49979 1.5874 -5.16759e-09 0.000637186 -4.82608e-17 1
505 7.86982e-17 3.1748 1.5874 -5.74183e-17 -1.17127e-16 -4.06944e-17 1
509 1.58745 3.40922 1.5874 -9.93285e-09 0.00125871 -6.618e-17 1
49 2.3812 1.93174 0.793701 -1.4453e-08 0.00184927 -1.37424e-16 1
51 3.17494 2.03315 -1.58519e-16 -1.82956e-08 0.00239428 -1.09957e-16 1
471 3.17494 2.03315 1.5874 -1.82956e-08 0.00239428 -9.29109e-17 1
48 2.3812 2.72544 -1.50703e-16 -1.4453e-08 0.00184927 -1.28043e-16 1
54 3.17494 2.82685 0.793701 -1.82956e-08 0.00239428 -1.17823e-16 1
91 2.3812 3.51914 0.793701 -1.4453e-08 0.00184927 -1.37769e-16 1
468 2.3812 2.72544 1.5874 -1.4453e-08 0.00184927 -9.42636e-17 1
53 3.96867 2.12356 0.793701 -2.08184e-08 0.00288033 -9.16211e-17 1
475 4.76239 2.20076 1.5874 -2.19449e-08 0.00329543 -5.13019e-17 1
52 3.96867 2.91726 -2.02479e-16 -2.08184e-08 0.00288033 -1.20047e-16 1
58 4.76239 2.99446 0.793701 -2.19449e-08 0.00329543 -7.34063e-17 1
472 3.96867 2.91726 1.5874 -2.08184e-08 0.00288033 -6.76528e-17 1
57 5.55607 2.26286 0.793701 -2.1415e-08 0.00362937 -6.49455e-17 1
479 6.34973 2.30833 1.5874 -1.41253e-08 0.00387394 -3.63226e-17 1
62 6.34973 3.10203 0.793701 -1.41253e-08 0.00387394 -5.56332e-17 1
476 5.55607 3.05656 1.5874 -2.1415e-08 0.00362937 -4.48905e-17 1
61 7.14338 2.33607 0.793701 8.02946e-09 0.00402313 -4.17377e-17 1
65 8.73063 2.33607 0.793701 -8.02946e-09 0.00402313 -5.01939e-17 1
483 7.93701 2.34539 1.5874 1.34889e-17 0.00407327 -5.16687e-17 1
66 7.93701 3.13909 0.793701 5.3268e-17 0.00407327 -3.57931e-17 1
480 7.14338 3.12977 1.5874 8.02946e-09 0.00402313 -3.70477e-17 1
484 8.73063 3.12977 1.5874 -8.02946e-09 0.00402313 -6.49785e-17 1
69 10.3179 2.26286 0.793701 2.1415e-08 0.00362937 -6.51069e-17 1
487 9.52428 2.30833 1.5874 1.41253e-08 0.00387394 -9.14271e-17 1
70 9.52428 3.10203 0.793701 1.41253e-08 0.00387394 -4.86205e-17 1
488 10.3179 3.05656 1.5874 2.1415e-08 0.00362937 -8.55333e-17 1
73 11.9053 2.12356 0.793701 2.08184e-08 0.00288033 -1.28945e-17 1
491 11.1116 2.20076 1.5874 2.19449e-08 0.00329543 -5.23541e-17 1
72 11.9053 2.91726 -3.52574e-17 2.08184e-08 0.00288033 -2.49804e-18 1
74 11.1116 2.99446 0.793701 2.19449e-08 0.00329543 -3.1372e-17 1
492 11.9053 2.91726 1.5874 2.08184e-08 0.00288033 -4.32748e-17 1
77 13.4928 1.93174 0.793701 1.4453e-08 0.00184927 -1.23445e-17 1
75 12.6991 2.03315 -5.5721e-17 1.82956e-08 0.00239428 -1.28522e-17 1
495 12.6991 2.03315 1.5874 1.82956e-08 0.00239428 -4.79967e-18 1
76 13.4928 2.72544 -6.11183e-17 1.4453e-08 0.00184927 -1.79531e-17 1
78 12.6991 2.82685 0.793701 1.82956e-08 0.00239428 -1.41123e-17 1
119 13.4928 3.51914 0.793701 1.4453e-08 0.00184927 -1.81506e-17 1
496 13.4928 2.72544 1.5874 1.4453e-08 0.00184927 -1.01845e-17 1
79 14.2866 1.82182 -7.7011e-17 9.93285e-09 0.00125871 -3.10928e-17 1
499 14.2866 1.82182 1.5874 9.93285e-09 0.00125871 -5.12958e-18 1
80 15.0803 2.49979 -8.50746e-17 5.16759e-09 0.000637186 -4.61211e-17 1
82 14.2866 2.61552 0.793701 9.93285e-09 0.00125871 -2.11413e-17 1
84 15.874 2.3811 0.793701 -5.28577e-17 9.44719e-19 -2.14029e-17 1
121 14.2866 3.40922 -6.79818e-17 9.93285e-09 0.00125871 -2.71302e-17 1
123 15.0803 3.29349 0.793701 5.16759e-09 0.000637186 -3.0593e-17 1
125 15.874 3.1748 3.56206e-17 -4.0957e-17 4.64549e-17 -8.50854e-17 1
500 15.0803 2.49979 1.5874 5.16759e-09 0.000637186 -9.63406e-18 1
541 14.2866 3.40922 1.5874 9.93285e-09 0.00125871 -1.3784e-17 1
545 15.874 3.1748 1.5874 -7.52162e-17 1.7421e-17 -1.92087e-17 1
86 0.793714 4.08719 -1.27812e-16 -5.16759e-09 0.000637186 -1.45272e-16 1
88 1.50118e-16 3.9685 0.793701 -3.41538e-17 -1.31417e-16 -8.70048e-17 1
92 1.58745 4.20292 0.793701 -9.93285e-09 0.00125871 -1.39858e-16 1
127 3.56914e-16 4.7622 3.87835e-16 -9.09797e-18 -1.50842e-16 -1.1484e-16 1
129 0.793714 4.88089 0.793701 -5.16759e-09 0.000637186 -1.0603e-16 1
131 1.58745 4.99662 -1.39237e-16 -9.93285e-09 0.00125871 -1.37679e-16 1
506 0.793714 4.08719 1.5874 -5.16759e-09 0.000637186 -4.47903e-17 1
547 1.4291e-16 4.7622 1.5874 -3.23319e-17 -1.49195e-16 -4.62858e-17 1
551 1.58745 4.99662 1.5874 -9.93285e-09 0.00125871 -6.16976e-17 1
93 3.17494 3.62055 -1.54535e-16 -1.82956e-08 0.00239428 -1.16644e-16 1
513 3.17494 3.62055 1.5874 -1.82956e-08 0.00239428 -8.96827e-17 1
90 2.3812 4.31284 -1.29213e-16 -1.4453e-08 0.00184927 -1.18007e-16 1
96 3.17494 4.41425 0.793701 -1.82956e-08 0.00239428 -1.07044e-16 1
133 2.3812 5.10654 0.793701 -1.4453e-08 0.00184927 -1.21465e-16 1
135 3.17494 5.20795 -9.03803e-17 -1.82956e-08 0.00239428 -7.8353e-17 1
510 2.3812 4.31284 1.5874 -1.4453e-08 0.00184927 -9.08796e-17 1
555 3.17494 5.20795 1.5874 -1.82956e-08 0.00239428 -8.2501e-17 1
95 3.96867 3.71096 0.793701 -2.08184e-08 0.00288033 -8.6639e-17 1
517 4.76239 3.78816 1.5874 -2.19449e-08 0.00329543 -4.57847e-17 1
94 3.96867 4.50466 -1.37617e-16 -2.08184e-08 0.00288033 -9.23747e-17 1
100 4.76239 4.58186 0.793701 -2.19449e-08 0.00329543 -5.62524e-17 1
514 3.96867 4.50466 1.5874 -2.08184e-08 0.00288033 -6.06204e-17 1
99 5.55607 3.85026 0.793701 -2.1415e-08 0.00362937 -5.66237e-17 1
521 6.34973 3.89573 1.5874 -1.41253e-08 0.00387394 -3.34099e-17 1
104 6.34973 4.68944 0.793701 -1.41253e-08 0.00387394 -4.26768e-17 1
518 5.55607 4.64396 1.5874 -2.1415e-08 0.00362937 -2.61567e-17 1
103 7.14338 3.92347 0.793701 8.02946e-09 0.00402313 -4.3883e-17 1
107 8.73063 3.92347 0.793701 -8.02946e-09 0.00402313 -2.4686e-17 1
525 7.93701 3.93279 1.5874 7.89173e-17 0.00407327 -3.27033e-17 1
108 7.93701 4.72649 0.793701 8.38826e-17 0.00407327 -3.86878e-17 1
522 7.14338 4.71717 1.5874 8.02946e-09 0.00402313 -3.09039e-17 1
526 8.73063 4.71717 1.5874 -8.02946e-09 0.00402313 -2.72436e-17 1
111 10.3179 3.85026 0.793701 2.1415e-08 0.00362937 -2.34386e-17 1
529 9.52428 3.89573 1.5874 1.41253e-08 0.00387394 -5.28326e-17 1
112 9.52428 4.68944 0.793701 1.41253e-08 0.00387394 -1.0726e-17 1
530 10.3179 4.64396 1.5874 2.1415e-08 0.00362937 -4.85001e-17 1
115 11.9053 3.71096 0.793701 2.08184e-08 0.00288033 -2.65043e-17 1
533 11.1116 3.78816 1.5874 2.19449e-08 0.00329543 -7.32582e-17 1
116 11.1116 4.58186 0.793701 2.19449e-08 0.00329543 -1.89591e-17 1
534 11.9053 4.50466 1.5874 2.08184e-08 0.00288033 -7.62682e-17 1
537 12.6991 3.62055 1.5874 1.82956e-08 0.00239428 -4.75892e-17 1
118 13.4928 4.31284 -1.39488e-17 1.4453e-08 0.00184927 -3.94484e-18 1
120 12.6991 4.41425 0.793701 1.82956e-08 0.00239428 -2.00958e-17 1
161 13.4928 5.10654 0.793701 1.4453e-08 0.00184927 -1.94126e-17 1
538 13.4928 4.31284 1.5874 1.4453e-08 0.00184927 -3.56747e-17 1
579 12.6991 5.20795 1.5874 1.82956e-08 0.00239428 -6.19826e-17 1
122 15.0803 4.08719 -6.42409e-17 5.16759e-09 0.000637186 -5.2483e-17 1
124 14.2866 4.20292 0.793701 9.93285e-09 0.00125871 -1.95985e-17 1
126 15.874 3.9685 0.793701 -7.3696e-17 2.8248e-17 -4.78982e-17 1
163 14.2866 4.99662 -2.11467e-17 9.93285e-09 0.00125871 -2.7204e-17 1
165 15.0803 4.88089 0.793701 5.16759e-09 0.000637186 -2.16863e-17 1
167 15.874 4.7622 2.03052e-16 -4.63688e-17 1.04369e-18 -8.18671e-17 1
542 15.0803 4.08719 1.5874 5.16759e-09 0.000637186 -1.5193e-17 1
583 14.2866 4.99662 1.5874 9.93285e-09 0.00125871 -2.43639e-17 1
587 15.874 4.7622 1.5874 -8.95616e-17 2.55684e-17 -1.9573e-17 1
128 0.793714 5.67459 -1.54053e-16 -5.16759e-09 0.000637186 -1.39111e-16 1
130 1.64145e-16 5.5559 0.793701 -3.81679e-17 -1.56666e-16 -8.49486e-17 1
134 1.58745 5.79032 0.793701 -9.93285e-09 0.00125871 -9.49919e-17 1
169 3.56133e-16 6.3496 4.11407e-16 -3.94772e-17 -1.7478e-16 -1.1331e-16 1
171 0.793714 6.46829 0.793701 -5.16759e-09 0.000637186 -7.50982e-17 1
173 1.58745 6.58402 -1.10055e-16 -9.93285e-09 0.00125871 -1.13588e-16 1
548 0.793714 5.67459 1.5874 -5.16759e-09 0.000637186 -4.53012e-17 1
589 2.70589e-16 6.3496 1.5874 2.49545e-17 -2.12644e-16 -1.02317e-16 1
593 1.58745 6.58402 1.5874 -9.93285e-09 0.00125871 -2.8313e-17 1
132 2.3812 5.90024 -9.98254e-17 -1.4453e-08 0.00184927 -9.78595e-17 1
138 3.17494 6.00165 0.793701 -1.82956e-08 0.00239428 -6.77378e-17 1
175 2.3812 6.69394 0.793701 -1.4453e-08 0.00184927 -3.62176e-17 1
177 3.17494 6.79535 -7.71124e-17 -1.82956e-08 0.00239428 -3.90998e-17 1
552 2.3812 5.90024 1.5874 -1.4453e-08 0.00184927 -5.55073e-17 1
597 3.17494 6.79535 1.5874 -1.82956e-08 0.00239428 -1.97298e-17 1
137 3.96867 5.29836 0.793701 -2.08184e-08 0.00288033 -6.41678e-17 1
559 4.76239 5.37556 1.5874 -2.19449e-08 0.00329543 -2.81256e-17 1
136 3.96867 6.09206 -1.11299e-16 -2.08184e-08 0.00288033 -6.49472e-17 1
142 4.76239 6.16926 0.793701 -2.19449e-08 0.00329543 -4.08782e-17 1
179 3.96867 6.88576 0.793701 -2.08184e-08 0.00288033 -2.59341e-17 1
181 4.76239 6.96297 -1.64815e-16 -2.19449e-08 0.00329543 -6.40511e-17 1
556 3.96867 6.09206 1.5874 -2.08184e-08 0.00288033 -3.51344e-17 1
601 4.76239 6.96297 1.5874 -2.19449e-08 0.00329543 -6.60416e-18 1
141 5.55607 5.43766 0.793701 -2.1415e-08 0.00362937 -3.74166e-17 1
563 6.34973 5.48314 1.5874 -1.41253e-08 0.00387394 -1.73167e-17 1
146 6.34973 6.27684 0.793701 -1.41253e-08 0.00387394 -3.02758e-17 1
183 5.55607 7.02506 0.793701 -2.1415e-08 0.00362937 -3.04133e-17 1
560 5.55607 6.23136 1.5874 -2.1415e-08 0.00362937 -4.73217e-18 1
145 7.14338 5.51087 0.793701 8.02946e-09 0.00402313 -4.24017e-17 1
149 8.73063 5.51087 0.793701 -8.02946e-09 0.00402313 -2.39502e-17 1
567 7.93701 5.52019 1.5874 9.36672e-17 0.00407327 -3.03132e-17 1
150 7.93701 6.31389 0.793701 8.90613e-17 0.00407327 -3.02209e-17 1
564 7.14338 6.30457 1.5874 8.02946e-09 0.00402313 -1.81864e-17 1
568 8.73063 6.30457 1.5874 -8.02946e-09 0.00402313 -1.42426e-17 1
153 10.3179 5.43766 0.793701 2.1415e-08 0.00362937 -5.87986e-18 1
571 9.52428 5.48314 1.5874 1.41253e-08 0.00387394 -2.22066e-17 1
154 9.52428 6.27684 0.793701 1.41253e-08 0.00387394 -3.00144e-18 1
195 10.3179 7.02506 0.793701 2.1415e-08 0.00362937 4.77372e-19 1
572 10.3179 6.23136 1.5874 2.1415e-08 0.00362937 -1.92547e-17 1
157 11.9053 5.29836 0.793701 2.08184e-08 0.00288033 -2.11928e-17 1
575 11.1116 5.37556 1.5874 2.19449e-08 0.00329543 -4.98464e-17 1
156 11.9053 6.09206 -1.12514e-17 2.08184e-08 0.00288033 -4.22762e-18 1
158 11.1116 6.16926 0.793701 2.19449e-08 0.00329543 -1.21339e-17 1
199 11.9053 6.88576 0.793701 2.08184e-08 0.00288033 -2.44812e-17 1
576 11.9053 6.09206 1.5874 2.08184e-08 0.00288033 -5.46372e-17 1
617 11.1116 6.96297 1.5874 2.19449e-08 0.00329543 -2.62376e-17 1
160 13.4928 5.90024 -1.13472e-17 1.4453e-08 0.00184927 -3.01079e-17 1
162 12.6991 6.00165 0.793701 1.82956e-08 0.00239428 -2.91366e-17 1
201 12.6991 6.79535 -2.66609e-17 1.82956e-08 0.00239428 -2.83357e-17 1
203 13.4928 6.69394 0.793701 1.4453e-08 0.00184927 -5.21297e-17 1
580 13.4928 5.90024 1.5874 1.4453e-08 0.00184927 -5.1789e-17 1
621 12.6991 6.79535 1.5874 1.82956e-08 0.00239428 -6.53012e-17 1
164 15.0803 5.67459 -1.80306e-17 5.16759e-09 0.000637186 -4.21609e-17 1
166 14.2866 5.79032 0.793701 9.93285e-09 0.00125871 -3.09683e-17 1
168 15.874 5.5559 0.793701 -6.29567e-17 1.24064e-17 -2.56701e-17 1
205 14.2866 6.58402 -1.4534e-17 9.93285e-09 0.00125871 -4.91312e-17 1
207 15.0803 6.46829 0.793701 5.16759e-09 0.000637186 -2.14295e-17 1
209 15.874 6.3496 1.89877e-16 -5.61158e-17 -4.4476e-17 -3.579e-17 1
584 15.0803 5.67459 1.5874 5.16759e-09 0.000637186 -1.46222e-17 1
625 14.2866 6.58402 1.5874 9.93285e-09 0.00125871 -4.86291e-17 1
629 15.874 6.3496 1.5874 -4.97252e-17 -1.92699e-18 6.69359e-18 1
170 0.793714 7.262 -9.95808e-17 -5.16759e-09 0.000637186 -9.71914e-17 1
172 3.47592e-16 7.1433 0.793701 4.96663e-18 -2.26803e-16 -1.25643e-16 1
176 1.58745 7.37772 0.793701 -9.93285e-09 0.00125871 -3.20083e-17 1
211 4.56498e-16 7.93701 1.99553e-16 -1.32427e-17 -2.3598e-16 -1.27182e-16 1
213 0.793714 8.0557 0.793701 -5.16759e-09 0.000637186 -7.56661e-17 1
214 5.8066e-16 8.73071 0.793701 5.49024e-17 -1.96779e-16 -9.95606e-17 1
215 1.58745 8.17142 -9.53572e-17 -9.93285e-09 0.00125871 -3.3491e-17 1
590 0.793714 7.262 1.5874 -5.16759e-09 0.000637186 -6.57799e-17 1
631 4.22467e-16 7.93701 1.5874 7.39017e-17 -2.05035e-16 -8.643e-17 1
635 1.58745 8.17142 1.5874 -9.93285e-09 0.00125871 -3.20663e-17 1
174 2.3812 7.48764 -6.92882e-17 -1.4453e-08 0.00184927 -2.31309e-17 1
180 3.17494 7.58905 0.793701 -1.82956e-08 0.00239428 1.98696e-19 1
217 2.3812 8.28134 0.793701 -1.4453e-08 0.00184927 -3.99563e-18 1
219 3.17494 8.38275 -7.16432e-17 -1.82956e-08 0.00239428 4.51097e-18 1
594 2.3812 7.48764 1.5874 -1.4453e-08 0.00184927 -6.46469e-18 1
639 3.17494 8.38275 1.5874 -1.82956e-08 0.00239428 -1.28711e-17 1
178 3.96867 7.67946 -1.0216e-16 -2.08184e-08 0.00288033 -2.17836e-17 1
184 4.76239 7.75667 0.793701 -2.19449e-08 0.00329543 -2.49395e-17 1
221 3.96867 8.47317 0.793701 -2.08184e-08 0.00288033 -1.76983e-17 1
598 3.96867 7.67946 1.5874 -2.08184e-08 0.00288033 -1.28198e-17 1
643 4.76239 8.55037 1.5874 -2.19449e-08 0.00329543 -7.33245e-18 1
605 6.34973 7.07054 1.5874 -1.41253e-08 0.00387394 -1.2521e-18 1
188 6.34973 7.86424 0.793701 -1.41253e-08 0.00387394 -1.77888e-17 1
225 5.55607 8.61246 0.793701 -2.1415e-08 0.00362937 -1.46703e-17 1
602 5.55607 7.81876 1.5874 -2.1415e-08 0.00362937 -2.11893e-18 1
647 6.34973 8.65794 1.5874 -1.41253e-08 0.00387394 2.30805e-18 1
187 7.14338 7.09827 0.793701 8.02946e-09 0.00402313 -2.44415e-17 1
191 8.73063 7.09827 0.793701 -8.02946e-09 0.00402313 -5.53489e-18 1
609 7.93701 7.1076 1.5874 1.0399e-16 0.00407327 -6.46216e-18 1
192 7.93701 7.9013 0.793701 1.01125e-16 0.00407327 -6.29677e-18 1
229 7.14338 8.68567 0.793701 8.02946e-09 0.00402313 -6.08918e-18 1
233 8.73063 8.68567 0.793701 -8.02946e-09 0.00402313 3.28145e-18 1
606 7.14338 7.89197 1.5874 8.02946e-09 0.00402313 7.84183e-19 1
610 8.73063 7.89197 1.5874 -8.02946e-09 0.00402313 4.02547e-18 1
651 7.93701 8.695 1.5874 1.04407e-16 0.00407327 6.38868e-18 1
613 9.52428 7.07054 1.5874 1.41253e-08 0.00387394 -2.1712e-18 1
196 9.52428 7.86424 0.793701 1.41253e-08 0.00387394 5.92168e-18 1
237 10.3179 8.61246 0.793701 2.1415e-08 0.00362937 -2.05322e-18 1
614 10.3179 7.81876 1.5874 2.1415e-08 0.00362937 -5.57641e-18 1
655 9.52428 8.65794 1.5874 1.41253e-08 0.00387394 4.26368e-18 1
200 11.1116 7.75667 0.793701 2.19449e-08 0.00329543 -1.1481e-17 1
241 11.9053 8.47317 0.793701 2.08184e-08 0.00288033 -5.45344e-17 1
618 11.9053 7.67946 1.5874 2.08184e-08 0.00288033 -6.57457e-17 1
659 11.1116 8.55037 1.5874 2.19449e-08 0.00329543 -3.90807e-17 1
202 13.4928 7.48764 -4.37994e-17 1.4453e-08 0.00184927 -5.68262e-17 1
204 12.6991 7.58905 0.793701 1.82956e-08 0.00239428 -4.89961e-17 1
243 12.6991 8.38275 -5.77782e-17 1.82956e-08 0.00239428 -3.62839e-17 1
245 13.4928 8.28134 0.793701 1.4453e-08 0.00184927 -8.00341e-17 1
622 13.4928 7.48764 1.5874 1.4453e-08 0.00184927 -8.20638e-17 1
663 12.6991 8.38275 1.5874 1.82956e-08 0.00239428 -1.00721e-16 1
206 15.0803 7.262 1.64107e-18 5.16759e-09 0.000637186 -2.6098e-17 1
208 14.2866 7.37772 0.793701 9.93285e-09 0.00125871 -5.39104e-17 1
210 15.874 7.1433 0.793701 -6.00776e-17 -8.45193e-17 8.68693e-18 1
247 14.2866 8.17142 -5.4045e-17 9.93285e-09 0.00125871 -6.36685e-17 1
249 15.0803 8.0557 0.793701 5.16759e-09 0.000637186 -1.79886e-17 1
251 15.874 7.93701 1.35662e-16 -8.0114e-17 -1.29337e-16 -2.35127e-17 1
252 15.874 8.73071 0.793701 -6.98424e-17 -1.47904e-16 1.11677e-17 1
626 15.0803 7.262 1.5874 5.16759e-09 0.000637186 -1.18378e-17 1
667 14.2866 8.17142 1.5874 9.93285e-09 0.00125871 -5.0742e-17 1
671 15.874 7.93701 1.5874 -1.65106e-17 -1.26643e-16 6.07546e-17 1
212 0.793714 8.8494 -1.24271e-16 -5.16759e-09 0.000637186 -7.58588e-17 1
632 0.793714 8.8494 1.5874 -5.16759e-09 0.000637186 -4.16714e-17 1
218 1.58745 8.96512 0.793701 -9.93285e-09 0.00125871 -3.67156e-17 1
253 5.92863e-16 9.52441 1.2469e-17 2.65172e-17 -1.80425e-16 -1.0106e-16 1
254 0.793714 10.4368 -1.05915e-16 -5.16759e-09 0.000637186 -5.63975e-17 1
255 0.793714 9.6431 0.793701 -5.16759e-09 0.000637186 -5.10343e-17 1
256 7.34575e-16 10.3181 0.793701 4.70671e-17 -1.30997e-16 -6.43519e-17 1
257 1.58745 9.75882 -1.06603e-16 -9.93285e-09 0.00125871 -3.94637e-17 1
260 1.58745 10.5525 0.793701 -9.93285e-09 0.00125871 -2.90544e-17 1
673 8.68774e-16 9.52441 1.5874 7.19022e-17 -1.46304e-16 -4.73551e-17 1
674 0.793714 10.4368 1.5874 -5.16759e-09 0.000637186 -3.14327e-17 1
677 1.58745 9.75882 1.5874 -9.93285e-09 0.00125871 -2.16784e-17 1
216 2.3812 9.07504 -8.67662e-17 -1.4453e-08 0.00184927 -7.63474e-18 1
222 3.17494 9.17645 0.793701 -1.82956e-08 0.00239428 -1.57706e-17 1
636 2.3812 9.07504 1.5874 -1.4453e-08 0.00184927 -1.51867e-17 1
259 2.3812 9.86874 0.793701 -1.4453e-08 0.00184927 -1.98399e-17 1
261 3.17494 9.97015 -1.00046e-16 -1.82956e-08 0.00239428 -2.39572e-17 1
681 3.17494 9.97015 1.5874 -1.82956e-08 0.00239428 -3.08401e-18 1
220 3.96867 9.26687 -8.3735e-17 -2.08184e-08 0.00288033 -2.14154e-17 1
226 4.76239 9.34407 0.793701 -2.19449e-08 0.00329543 -1.43559e-17 1
640 3.96867 9.26687 1.5874 -2.08184e-08 0.00288033 -6.91709e-18 1
263 3.96867 10.0606 0.793701 -2.08184e-08 0.00288033 -1.47316e-17 1
685 4.76239 10.1378 1.5874 -2.19449e-08 0.00329543 -6.10302e-18 1
230 6.34973 9.45164 0.793701 -1.41253e-08 0.00387394 -1.91305e-17 1
644 5.55607 9.40616 1.5874 -2.1415e-08 0.00362937 -2.77479e-18 1
267 5.55607 10.1999 0.793701 -2.1415e-08 0.00362937 -4.02502e-17 1
689 6.34973 10.2453 1.5874 -1.41253e-08 0.00387394 -8.15697e-18 1
234 7.93701 9.4887 0.793701 9.64873e-17 0.00407327 4.95635e-19 1
648 7.14338 9.47938 1.5874 8.02946e-09 0.00402313 3.52085e-18 1
652 8.73063 9.47938 1.5874 -8.02946e-09 0.00402313 5.74395e-18 1
271 7.14338 10.2731 0.793701 8.02946e-09 0.00402313 -1.62095e-17 1
275 8.73063 10.2731 0.793701 -8.02946e-09 0.00402313 -2.10727e-18 1
693 7.93701 10.2824 1.5874 8.78022e-17 0.00407327 6.86134e-18 1
238 9.52428 9.45164 0.793701 1.41253e-08 0.00387394 -2.03606e-18 1
656 10.3179 9.40616 1.5874 2.1415e-08 0.00362937 -1.02379e-17 1
279 10.3179 10.1999 0.793701 2.1415e-08 0.00362937 -3.20708e-17 1
697 9.52428 10.2453 1.5874 1.41253e-08 0.00387394 -3.92989e-18 1
240 11.9053 9.26687 -8.07769e-17 2.08184e-08 0.00288033 -4.55365e-17 1
242 11.1116 9.34407 0.793701 2.19449e-08 0.00329543 -4.22528e-17 1
660 11.9053 9.26687 1.5874 2.08184e-08 0.00288033 -7.69006e-17 1
283 11.9053 10.0606 0.793701 2.08184e-08 0.00288033 -7.17373e-17 1
701 11.1116 10.1378 1.5874 2.19449e-08 0.00329543 -3.24116e-17 1
244 13.4928 9.07504 -9.19886e-17 1.4453e-08 0.00184927 -6.7473e-17 1
246 12.6991 9.17645 0.793701 1.82956e-08 0.00239428 -9.78598e-17 1
664 13.4928 9.07504 1.5874 1.4453e-08 0.00184927 -8.77303e-17 1
285 12.6991 9.97015 -8.6253e-17 1.82956e-08 0.00239428 -5.70263e-17 1
287 13.4928 9.86874 0.793701 1.4453e-08 0.00184927 -9.50899e-17 1
705 12.6991 9.97015 1.5874 1.82956e-08 0.00239428 -8.76477e-17 1
248 15.0803 8.8494 -2.85908e-17 5.16759e-09 0.000637186 -5.11057e-17 1
668 15.0803 8.8494 1.5874 5.16759e-09 0.000637186 1.70574e-17 1
250 14.2866 8.96512 0.793701 9.93285e-09 0.00125871 -6.79628e-17 1
289 14.2866 9.75882 -6.99016e-17 9.93285e-09 0.00125871 -6.12101e-17 1
290 15.0803 10.4368 -2.66954e-17 5.16759e-09 0.000637186 -2.49126e-17 1
291 15.0803 9.6431 0.793701 5.16759e-09 0.000637186 -1.8847e-17 1
292 14.2866 10.5525 0.793701 9.93285e-09 0.00125871 -4.22118e-17 1
293 15.874 9.52441 7.28415e-17 -8.52279e-17 -1.3485e-16 -3.16359e-17 1
294 15.874 10.3181 0.793701 -6.94361e-17 -1.30455e-16 1.32039e-18 1
709 14.2866 9.75882 1.5874 9.93285e-09 0.00125871 -3.55275e-17 1
710 15.0803 10.4368 1.5874 5.16759e-09 0.000637186 4.99998e-18 1
713 15.874 9.52441 1.5874 -5.90208e-17 -1.45397e-16 4.47586e-17 1
295 5.2891e-16 11.1118 -1.64123e-17 1.69695e-17 -1.16508e-16 -7.53754e-17 1
296 0.793714 12.0242 -1.01561e-16 -5.16759e-09 0.000637186 -5.55049e-17 1
297 0.793714 11.2305 0.793701 -5.16759e-09 0.000637186 -4.28569e-17 1
298 5.4875e-16 11.9055 0.793701 3.01461e-17 -9.76254e-17 -6.11711e-17 1
299 1.58745 11.3462 -8.08255e-17 -9.93285e-09 0.00125871 -3.75122e-17 1
302 1.58745 12.1399 0.793701 -9.93285e-09 0.00125871 -3.08788e-17 1
715 7.81272e-16 11.1118 1.5874 5.86294e-17 -1.1302e-16 -4.64262e-17 1
716 0.793714 12.0242 1.5874 -5.16759e-09 0.000637186 -3.3426e-17 1
719 1.58745 11.3462 1.5874 -9.93285e-09 0.00125871 -2.06764e-17 1
258 2.3812 10.6624 -8.69216e-17 -1.4453e-08 0.00184927 -2.87668e-17 1
678 2.3812 10.6624 1.5874 -1.4453e-08 0.00184927 -8.64766e-18 1
264 3.17494 10.7639 0.793701 -1.82956e-08 0.00239428 -1.11513e-17 1
300 2.3812 12.2498 -1.02073e-16 -1.4453e-08 0.00184927 -3.93872e-17 1
301 2.3812 11.4561 0.793701 -1.4453e-08 0.00184927 -1.7428e-17 1
303 3.17494 11.5576 -9.00952e-17 -1.82956e-08 0.00239428 -2.8832e-17 1
720 2.3812 12.2498 1.5874 -1.4453e-08 0.00184927 -9.42311e-18 1
723 3.17494 11.5576 1.5874 -1.82956e-08 0.00239428 8.57672e-19 1
262 3.96867 10.8543 -8.48408e-17 -2.08184e-08 0.00288033 -2.46163e-17 1
268 4.76239 10.9315 0.793701 -2.19449e-08 0.00329543 -3.55715e-17 1
682 3.96867 10.8543 1.5874 -2.08184e-08 0.00288033 -1.33773e-18 1
305 3.96867 11.648 0.793701 -2.08184e-08 0.00288033 -1.47896e-17 1
727 4.76239 11.7252 1.5874 -2.19449e-08 0.00329543 -1.96949e-17 1
272 6.34973 11.039 0.793701 -1.41253e-08 0.00387394 -4.71649e-17 1
686 5.55607 10.9936 1.5874 -2.1415e-08 0.00362937 -1.69675e-17 1
309 5.55607 11.7873 0.793701 -2.1415e-08 0.00362937 -6.20201e-17 1
731 6.34973 11.8327 1.5874 -1.41253e-08 0.00387394 -6.24116e-18 1
276 7.93701 11.0761 0.793701 4.93983e-17 0.00407327 -4.22585e-19 1
690 7.14338 11.0668 1.5874 8.02946e-09 0.00402313 3.66212e-18 1
694 8.73063 11.0668 1.5874 -8.02946e-09 0.00402313 2.03776e-17 1
313 7.14338 11.8605 0.793701 8.02946e-09 0.00402313 -7.07659e-18 1
317 8.73063 11.8605 0.793701 -8.02946e-09 0.00402313 2.45182e-18 1
735 7.93701 11.8698 1.5874 3.42122e-17 0.00407327 2.6926e-17 1
280 9.52428 11.039 0.793701 1.41253e-08 0.00387394 -2.40159e-17 1
698 10.3179 10.9936 1.5874 2.1415e-08 0.00362937 -2.45887e-17 1
321 10.3179 11.7873 0.793701 2.1415e-08 0.00362937 -2.29528e-17 1
739 9.52428 11.8327 1.5874 1.41253e-08 0.00387394 2.09846e-17 1
282 11.9053 10.8543 -7.60379e-17 2.08184e-08 0.00288033 -3.88021e-17 1
284 11.1116 10.9315 0.793701 2.19449e-08 0.00329543 -3.7755e-17 1
702 11.9053 10.8543 1.5874 2.08184e-08 0.00288033 -4.30928e-17 1
325 11.9053 11.648 0.793701 2.08184e-08 0.00288033 -1.23915e-17 1
743 11.1116 11.7252 1.5874 2.19449e-08 0.00329543 -1.79027e-17 1
286 13.4928 10.6624 -5.30147e-17 1.4453e-08 0.00184927 -3.96847e-17 1
706 13.4928 10.6624 1.5874 1.4453e-08 0.00184927 -6.72255e-17 1
288 12.6991 10.7639 0.793701 1.82956e-08 0.00239428 -6.12791e-17 1
329 13.4928 11.4561 0.793701 1.4453e-08 0.00184927 -2.97668e-17 1
747 12.6991 11.5576 1.5874 1.82956e-08 0.00239428 -4.1793e-17 1
748 13.4928 12.2498 1.5874 1.4453e-08 0.00184927 -7.12133e-18 1
331 14.2866 11.3462 -3.93331e-17 9.93285e-09 0.00125871 -1.98429e-17 1
332 15.0803 12.0242 -2.78323e-17 5.16759e-09 0.000637186 -1.2619e-17 1
333 15.0803 11.2305 0.793701 5.16759e-09 0.000637186 -2.53065e-18 1
334 14.2866 12.1399 0.793701 9.93285e-09 0.00125871 1.58332e-18 1
335 15.874 11.1118 9.31396e-17 -5.54489e-17 -1.44151e-16 -1.1947e-17 1
336 15.874 11.9055 0.793701 -4.42586e-17 -1.46428e-16 -1.67643e-17 1
751 14.2866 11.3462 1.5874 9.93285e-09 0.00125871 -1.1487e-17 1
752 15.0803 12.0242 1.5874 5.16759e-09 0.000637186 9.04144e-18 1
755 15.874 11.1118 1.5874 -6.05597e-17 -1.53732e-16 8.50007e-18 1
337 2.90973e-16 12.6992 1.19069e-16 3.44048e-18 -7.32502e-17 -8.36289e-17 1
338 0.793714 13.6116 -1.18798e-16 -5.16759e-09 0.000637186 -8.32248e-17 1
339 0.793714 12.8179 0.793701 -5.16759e-09 0.000637186 -4.63674e-17 1
340 3.85145e-17 13.4929 0.793701 7.2183e-18 -7.37711e-17 -6.62163e-17 1
341 1.58745 12.9336 -1.16144e-16 -9.93285e-09 0.00125871 -5.51754e-17 1
344 1.58745 13.7273 0.793701 -9.93285e-09 0.00125871 -4.21219e-17 1
757 4.68878e-16 12.6992 1.5874 3.80792e-17 -8.4389e-17 -5.00536e-17 1
758 0.793714 13.6116 1.5874 -5.16759e-09 0.000637186 -3.37316e-17 1
761 1.58745 12.9336 1.5874 -9.93285e-09 0.00125871 -2.13006e-17 1
306 3.17494 12.3513 0.793701 -1.82956e-08 0.00239428 -1.59585e-17 1
342 2.3812 13.8372 -1.4938e-16 -1.4453e-08 0.00184927 -6.21308e-17 1
343 2.3812 13.0435 0.793701 -1.4453e-08 0.00184927 -3.16864e-17 1
345 3.17494 13.145 -1.30322e-16 -1.82956e-08 0.00239428 -4.3536e-17 1
348 3.17494 13.9387 0.793701 -1.82956e-08 0.00239428 -3.49253e-17 1
762 2.3812 13.8372 1.5874 -1.4453e-08 0.00184927 -2.11872e-17 1
765 3.17494 13.145 1.5874 -1.82956e-08 0.00239428 -8.12586e-18 1
724 3.96867 12.4417 1.5874 -2.08184e-08 0.00288033 -9.13186e-18 1
310 4.76239 12.5189 0.793701 -2.19449e-08 0.00329543 -4.07506e-17 1
346 3.96867 14.0291 -9.62622e-17 -2.08184e-08 0.00288033 -3.41278e-17 1
347 3.96867 13.2354 0.793701 -2.08184e-08 0.00288033 -2.13466e-17 1
349 4.76239 13.3126 -4.67511e-17 -2.19449e-08 0.00329543 -2.05007e-17 1
352 4.76239 14.1063 0.793701 -2.19449e-08 0.00329543 -1.88586e-17 1
766 3.96867 14.0291 1.5874 -2.08184e-08 0.00288033 -1.58303e-17 1
769 4.76239 13.3126 1.5874 -2.19449e-08 0.00329543 -3.78157e-17 1
314 6.34973 12.6264 0.793701 -1.41253e-08 0.00387394 -4.78139e-17 1
728 5.55607 12.581 1.5874 -2.1415e-08 0.00362937 -4.08528e-17 1
351 5.55607 13.3747 0.793701 -2.1415e-08 0.00362937 -5.21494e-17 1
773 6.34973 13.4201 1.5874 -1.41253e-08 0.00387394 -4.22632e-17 1
318 7.93701 12.6635 0.793701 1.74702e-17 0.00407327 7.68438e-18 1
732 7.14338 12.6542 1.5874 8.02946e-09 0.00402313 3.63467e-18 1
736 8.73063 12.6542 1.5874 -8.02946e-09 0.00402313 3.78776e-17 1