ITEM: TIMESTEP
28000
ITEM: NUMBER OF ATOMS
8000
ITEM: BOX BOUNDS pp pp pp
0.0000000000000000e+00 3.1748021039364001e+01
0.0000000000000000e+00 1.5874010519682001e+01
0.0000000000000000e+00 1.5874010519682001e+01
ITEM: ATOMS id x y z vx vy vz c_rho_peratom
2 0.793721 0.926856 -7.12585e-16 -4.84276e-09 0.000524172 5.46953e-19 1
3 0.793721 0.133155 0.793701 -4.84276e-09 0.000524172 4.14623e-18 1
4 -5.72788e-16 0.793701 0.793701 1.08457e-16 -1.35463e-16 -2.1447e-17 1
5 1.58747 0.26298 -9.60562e-16 -9.27307e-09 0.00103547 9.25683e-18 1
8 1.58747 1.05668 0.793701 -9.27307e-09 0.00103547 9.99155e-18 1
43 -5.17055e-16 1.5874 -1.17565e-16 1.06856e-16 -1.53979e-16 -6.62784e-18 1
45 0.793721 1.72056 0.793701 -4.84276e-09 0.000524172 1.00856e-17 1
422 0.793721 0.926856 1.5874 -4.84276e-09 0.000524172 1.28319e-17 1
425 1.58747 0.26298 1.5874 -9.27307e-09 0.00103547 1.09112e-17 1
463 -7.64083e-16 1.5874 1.5874 1.28545e-16 -1.0614e-16 1.43639e-17 1
6 2.38124 1.17999 -1.15897e-15 -1.3584e-08 0.0015213 5.72184e-18 1
7 2.38124 0.386284 0.793701 -1.3584e-08 0.0015213 9.86441e-18 1
9 3.175 0.50004 -1.10615e-15 -1.73903e-08 0.00196966 1.04843e-17 1
12 3.175 1.29374 0.793701 -1.73903e-08 0.00196966 9.57013e-18 1
426 2.38124 1.17999 1.5874 -1.3584e-08 0.0015213 6.95848e-18 1
429 3.175 0.50004 1.5874 -1.73903e-08 0.00196966 1.34309e-17 1
10 3.96875 1.39516 -1.10083e-15 -2.00267e-08 0.00236951 2.5586e-17 1
11 3.96875 0.601457 0.793701 -2.00267e-08 0.00236951 4.99334e-17 1
16 4.76246 1.48175 0.793701 -2.12788e-08 0.00271098 4.14984e-17 1
430 3.96875 1.39516 1.5874 -2.00267e-08 0.00236951 1.73265e-17 1
433 4.76246 0.688051 1.5874 -2.12788e-08 0.00271098 5.62263e-17 1
15 5.55614 0.757702 0.793701 -2.07593e-08 0.00298568 7.73368e-17 1
20 6.34979 1.60241 0.793701 -1.41569e-08 0.00318686 2.15404e-17 1
434 5.55614 1.5514 1.5874 -2.07593e-08 0.00298568 2.89428e-17 1
437 6.34979 0.808705 1.5874 -1.41569e-08 0.00318686 5.05983e-17 1
19 7.1434 0.839815 0.793701 5.19316e-09 0.00330957 5.18331e-17 1
23 8.73061 0.839815 0.793701 -5.19316e-09 0.00330957 7.46907e-17 1
24 7.93701 1.64397 0.793701 1.71278e-17 0.00335082 7.41026e-17 1
438 7.1434 1.63352 1.5874 5.19316e-09 0.00330957 1.21764e-17 1
441 7.93701 0.85027 1.5874 2.8748e-17 0.00335082 2.68622e-17 1
442 8.73061 1.63352 1.5874 -5.19316e-09 0.00330957 2.3936e-17 1
27 10.3179 0.757702 0.793701 2.07593e-08 0.00298568 1.12403e-17 1
28 9.52422 1.60241 0.793701 1.41569e-08 0.00318686 6.19644e-17 1
445 9.52422 0.808705 1.5874 1.41569e-08 0.00318686 1.18772e-17 1
446 10.3179 1.5514 1.5874 2.07593e-08 0.00298568 1.29142e-18 1
30 11.9053 1.39516 -4.83788e-16 2.00267e-08 0.00236951 4.55721e-17 1
31 11.9053 0.601457 0.793701 2.00267e-08 0.00236951 3.37051e-17 1
32 11.1115 1.48175 0.793701 2.12788e-08 0.00271098 3.3614e-18 1
449 11.1115 0.688051 1.5874 2.12788e-08 0.00271098 -4.86409e-19 1
450 11.9053 1.39516 1.5874 2.00267e-08 0.00236951 1.78676e-18 1
33 12.699 0.50004 -3.09052e-16 1.73903e-08 0.00196966 7.16808e-17 1
34 13.4928 1.17999 -4.30046e-16 1.3584e-08 0.0015213 3.92645e-17 1
35 13.4928 0.386284 0.793701 1.3584e-08 0.0015213 2.58276e-17 1
36 12.699 1.29374 0.793701 1.73903e-08 0.00196966 3.00187e-17 1
453 12.699 0.50004 1.5874 1.73903e-08 0.00196966 1.38972e-17 1
454 13.4928 1.17999 1.5874 1.3584e-08 0.0015213 4.74984e-18 1
37 14.2865 0.26298 -2.81183e-16 9.27307e-09 0.00103547 1.76185e-17 1
38 15.0803 0.926856 -9.77985e-17 4.84276e-09 0.000524172 1.00089e-17 1
39 15.0803 0.133155 0.793701 4.84276e-09 0.000524172 -1.73648e-18 1
40 14.2865 1.05668 0.793701 9.27307e-09 0.00103547 7.79134e-18 1
41 15.874 -1.92472e-15 3.72925e-16 -9.89386e-17 -3.96314e-17 2.38717e-18 1
42 15.874 0.793701 0.793701 -1.01535e-16 -5.13262e-17 1.11798e-18 1
81 15.0803 1.72056 0.793701 4.84276e-09 0.000524172 6.45484e-18 1
83 15.874 1.5874 1.54622e-16 -1.12027e-16 -7.79819e-17 1.41378e-17 1
457 14.2865 0.26298 1.5874 9.27307e-09 0.00103547 -2.09873e-18 1
458 15.0803 0.926856 1.5874 4.84276e-09 0.000524172 -2.74199e-18 1
461 15.874 -1.90562e-15 1.5874 -1.04831e-16 -1.03112e-17 -2.03962e-17 1
503 15.874 1.5874 1.5874 -9.90426e-17 -6.72504e-17 5.27769e-18 1
47 1.58747 1.85038 -9.8742e-16 -9.27307e-09 0.00103547 1.4293e-17 1
467 1.58747 1.85038 1.5874 -9.27307e-09 0.00103547 1.53539e-17 1
44 0.793721 2.51426 -6.034e-16 -4.84276e-09 0.000524172 2.86196e-17 1
46 -8.08143e-16 2.3811 0.793701 1.19558e-16 -1.24789e-16 2.41302e-17 1
50 1.58747 2.64408 0.793701 -9.27307e-09 0.00103547 2.33825e-17 1
85 -6.87783e-16 3.1748 4.45277e-17 1.23302e-16 -1.53451e-16 5.09148e-17 1
87 0.793721 3.30796 0.793701 -4.84276e-09 0.000524172 4.61405e-17 1
89 1.58747 3.43778 -8.87987e-16 -9.27307e-09 0.00103547 2.8986e-17 1
464 0.793721 2.51426 1.5874 -4.84276e-09 0.000524172 3.12776e-17 1
505 -9.8307e-16 3.1748 1.5874 1.03539e-16 -1.1566e-16 4.60963e-17 1
509 1.58747 3.43778 1.5874 -9.27307e-09 0.00103547 3.41092e-17 1
49 2.38124 1.97369 0.793701 -1.3584e-08 0.0015213 8.74778e-18 1
51 3.175 2.08744 -1.08357e-15 -1.73903e-08 0.00196966 1.94588e-17 1
471 3.175 2.08744 1.5874 -1.73903e-08 0.00196966 2.07115e-18 1
48 2.38124 2.76739 -1.05754e-15 -1.3584e-08 0.0015213 2.55746e-17 1
54 3.175 2.88114 0.793701 -1.73903e-08 0.00196966 1.44186e-17 1
91 2.38124 3.56109 0.793701 -1.3584e-08 0.0015213 2.48759e-17 1
468 2.38124 2.76739 1.5874 -1.3584e-08 0.0015213 1.10126e-17 1
53 3.96875 2.18886 0.793701 -2.00267e-08 0.00236951 9.16942e-18 1
475 4.76246 2.27545 1.5874 -2.12788e-08 0.00271098 2.36453e-18 1
52 3.96875 2.98256 -9.96139e-16 -2.00267e-08 0.00236951 3.45048e-17 1
58 4.76246 3.06915 0.793701 -2.12788e-08 0.00271098 5.82573e-18 1
472 3.96875 2.98256 1.5874 -2.00267e-08 0.00236951 -9.71359e-19 1
57 5.55614 2.3451 0.793701 -2.07593e-08 0.00298568 7.80407e-18 1
479 6.34979 2.39611 1.5874 -1.41569e-08 0.00318686 -3.87557e-18 1
62 6.34979 3.18981 0.793701 -1.41569e-08 0.00318686 2.0195e-17 1
476 5.55614 3.1388 1.5874 -2.07593e-08 0.00298568 -4.247e-18 1
61 7.1434 2.42722 0.793701 5.19316e-09 0.00330957 4.47767e-17 1
65 8.73061 2.42722 0.793701 -5.19316e-09 0.00330957 9.90093e-17 1
483 7.93701 2.43767 1.5874 3.07147e-17 0.00335082 1.20842e-17 1
66 7.93701 3.23137 0.793701 -2.88774e-18 0.00335082 8.05022e-17 1
480 7.1434 3.22092 1.5874 5.19316e-09 0.00330957 -9.72479e-18 1
484 8.73061 3.22092 1.5874 -5.19316e-09 0.00330957 1.20349e-17 1
69 10.3179 2.3451 0.793701 2.07593e-08 0.00298568 2.87915e-17 1
487 9.52422 2.39611 1.5874 1.41569e-08 0.00318686 1.70692e-17 1
70 9.52422 3.18981 0.793701 1.41569e-08 0.00318686 6.9156e-17 1
488 10.3179 3.1388 1.5874 2.07593e-08 0.00298568 3.44328e-18 1
73 11.9053 2.18886 0.793701 2.00267e-08 0.00236951 1.29024e-17 1
491 11.1115 2.27545 1.5874 2.12788e-08 0.00271098 -2.12956e-18 1
72 11.9053 2.98256 -4.98711e-16 2.00267e-08 0.00236951 3.88387e-17 1
74 11.1115 3.06915 0.793701 2.12788e-08 0.00271098 8.73779e-18 1
492 11.9053 2.98256 1.5874 2.00267e-08 0.00236951 1.53641e-17 1
77 13.4928 1.97369 0.793701 1.3584e-08 0.0015213 1.62652e-17 1
75 12.699 2.08744 -4.50221e-16 1.73903e-08 0.00196966 5.99358e-17 1
495 12.699 2.08744 1.5874 1.73903e-08 0.00196966 5.678e-18 1
76 13.4928 2.76739 -3.89086e-16 1.3584e-08 0.0015213 4.301e-17 1
78 12.699 2.88114 0.793701 1.73903e-08 0.00196966 3.1887e-17 1
119 13.4928 3.56109 0.793701 1.3584e-08 0.0015213 2.9533e-17 1
496 13.4928 2.76739 1.5874 1.3584e-08 0.0015213 5.73781e-18 1
79 14.2865 1.85038 -3.15942e-16 9.27307e-09 0.00103547 1.57038e-17 1
499 14.2865 1.85038 1.5874 9.27307e-09 0.00103547 1.35528e-18 1
80 15.0803 2.51426 4.29143e-18 4.84276e-09 0.000524172 1.43581e-17 1
82 14.2865 2.64408 0.793701 9.27307e-09 0.00103547 1.07065e-17 1
84 15.874 2.3811 0.793701 -1.11167e-16 -9.06122e-17 1.30483e-17 1
121 14.2865 3.43778 -2.45691e-16 9.27307e-09 0.00103547 2.39298e-17 1
123 15.0803 3.30796 0.793701 4.84276e-09 0.000524172 1.31489e-17 1
125 15.874 3.1748 2.10766e-16 -1.16739e-16 -1.13189e-16 1.91151e-17 1
500 15.0803 2.51426 1.5874 4.84276e-09 0.000524172 4.61976e-18 1
541 14.2865 3.43778 1.5874 9.27307e-09 0.00103547 4.19321e-18 1
545 15.874 3.1748 1.5874 -1.08342e-16 -1.07758e-16 1.15014e-17 1
86 0.793721 4.10166 -6.52215e-16 -4.84276e-09 0.000524172 4.39627e-17 1
88 -9.52175e-16 3.9685 0.793701 9.98276e-17 -1.13654e-16 7.17014e-17 1
92 1.58747 4.23148 0.793701 -9.27307e-09 0.00103547 4.1977e-17 1
127 -7.03827e-16 4.7622 4.74081e-17 1.04273e-16 -8.33479e-17 7.37988e-17 1
129 0.793721 4.89536 0.793701 -4.84276e-09 0.000524172 6.62219e-17 1
131 1.58747 5.02518 -7.87819e-16 -9.27307e-09 0.00103547 2.64855e-17 1
506 0.793721 4.10166 1.5874 -4.84276e-09 0.000524172 5.68816e-17 1
547 -9.57449e-16 4.7622 1.5874 7.76269e-17 -6.26782e-17 6.46673e-17 1
551 1.58747 5.02518 1.5874 -9.27307e-09 0.00103547 4.88866e-17 1
93 3.175 3.67484 -9.79562e-16 -1.73903e-08 0.00196966 4.709e-17 1
513 3.175 3.67484 1.5874 -1.73903e-08 0.00196966 5.38434e-18 1
90 2.38124 4.35479 -9.62367e-16 -1.3584e-08 0.0015213 2.79811e-17 1
96 3.175 4.46854 0.793701 -1.73903e-08 0.00196966 2.64997e-17 1
133 2.38124 5.14849 0.793701 -1.3584e-08 0.0015213 3.10204e-17 1
135 3.175 5.26224 -9.28075e-16 -1.73903e-08 0.00196966 3.01863e-17 1
510 2.38124 4.35479 1.5874 -1.3584e-08 0.0015213 2.63991e-17 1
555 3.175 5.26224 1.5874 -1.73903e-08 0.00196966 1.74125e-17 1
95 3.96875 3.77626 0.793701 -2.00267e-08 0.00236951 1.72443e-17 1
517 4.76246 3.86285 1.5874 -2.12788e-08 0.00271098 -3.99464e-19 1
94 3.96875 4.56996 -8.90127e-16 -2.00267e-08 0.00236951 3.70314e-17 1
100 4.76246 4.65655 0.793701 -2.12788e-08 0.00271098 9.64604e-18 1
514 3.96875 4.56996 1.5874 -2.00267e-08 0.00236951 6.13056e-18 1
99 5.55614 3.9325 0.793701 -2.07593e-08 0.00298568 1.00748e-17 1
521 6.34979 3.98351 1.5874 -1.41569e-08 0.00318686 -1.47377e-17 1
104 6.34979 4.77721 0.793701 -1.41569e-08 0.00318686 2.05691e-17 1
518 5.55614 4.7262 1.5874 -2.07593e-08 0.00298568 -8.24238e-18 1
103 7.1434 4.01462 0.793701 5.19316e-09 0.00330957 4.83119e-17 1
107 8.73061 4.01462 0.793701 -5.19316e-09 0.00330957 6.84311e-17 1
525 7.93701 4.02507 1.5874 -5.28482e-18 0.00335082 -1.17794e-17 1
108 7.93701 4.81877 0.793701 -4.31362e-17 0.00335082 5.20167e-17 1
522 7.1434 4.80832 1.5874 5.19316e-09 0.00330957 -3.50242e-17 1
526 8.73061 4.80832 1.5874 -5.19316e-09 0.00330957 -8.42045e-18 1
111 10.3179 3.9325 0.793701 2.07593e-08 0.00298568 1.5102e-17 1
529 9.52422 3.98351 1.5874 1.41569e-08 0.00318686 2.41947e-18 1
112 9.52422 4.77721 0.793701 1.41569e-08 0.00318686 2.0856e-17 1
530 10.3179 4.7262 1.5874 2.07593e-08 0.00298568 1.92792e-18 1
115 11.9053 3.77626 0.793701 2.00267e-08 0.00236951 2.78929e-17 1
533 11.1115 3.86285 1.5874 2.12788e-08 0.00271098 1.59289e-17 1
116 11.1115 4.65655 0.793701 2.12788e-08 0.00271098 9.39912e-18 1
534 11.9053 4.56996 1.5874 2.00267e-08 0.00236951 3.73915e-17 1
537 12.699 3.67484 1.5874 1.73903e-08 0.00196966 2.96941e-17 1
118 13.4928 4.35479 -2.5485e-16 1.3584e-08 0.0015213 3.90468e-17 1
120 12.699 4.46854 0.793701 1.73903e-08 0.00196966 3.54416e-17 1
161 13.4928 5.14849 0.793701 1.3584e-08 0.0015213 1.80641e-17 1
538 13.4928 4.35479 1.5874 1.3584e-08 0.0015213 1.5929e-17 1
579 12.699 5.26224 1.5874 1.73903e-08 0.00196966 1.72791e-17 1
122 15.0803 4.10166 -1.96944e-16 4.84276e-09 0.000524172 2.14479e-17 1
124 14.2865 4.23148 0.793701 9.27307e-09 0.00103547 1.89653e-17 1
126 15.874 3.9685 0.793701 -1.11295e-16 -1.29627e-16 2.16266e-17 1
163 14.2865 5.02518 -2.98983e-16 9.27307e-09 0.00103547 2.45243e-17 1
165 15.0803 4.89536 0.793701 4.84276e-09 0.000524172 2.21561e-17 1
167 15.874 4.7622 3.17256e-17 -1.08653e-16 -1.41708e-16 2.57258e-17 1
542 15.0803 4.10166 1.5874 4.84276e-09 0.000524172 9.39922e-18 1
583 14.2865 5.02518 1.5874 9.27307e-09 0.00103547 6.56916e-18 1
587 15.874 4.7622 1.5874 -1.04399e-16 -1.32201e-16 2.06699e-17 1
128 0.793721 5.68906 -6.05211e-16 -4.84276e-09 0.000524172 5.77738e-17 1
130 -8.61e-16 5.5559 0.793701 6.20779e-17 -2.22551e-17 9.08805e-17 1
134 1.58747 5.81888 0.793701 -9.27307e-09 0.00103547 4.41194e-17 1
169 -5.98642e-16 6.3496 1.01923e-16 6.14371e-17 -4.62639e-18 1.08969e-16 1
171 0.793721 6.48276 0.793701 -4.84276e-09 0.000524172 6.85268e-17 1
173 1.58747 6.61258 -5.8892e-16 -9.27307e-09 0.00103547 4.47964e-17 1
548 0.793721 5.68906 1.5874 -4.84276e-09 0.000524172 6.19014e-17 1
589 -5.27211e-16 6.3496 1.5874 3.04486e-17 -1.20534e-17 5.99336e-17 1
593 1.58747 6.61258 1.5874 -9.27307e-09 0.00103547 4.08525e-17 1
132 2.38124 5.94219 -8.6609e-16 -1.3584e-08 0.0015213 2.41e-17 1
138 3.175 6.05594 0.793701 -1.73903e-08 0.00196966 3.14134e-17 1
175 2.38124 6.73589 0.793701 -1.3584e-08 0.0015213 3.69213e-17 1
177 3.175 6.84964 -1.00607e-15 -1.73903e-08 0.00196966 3.94987e-17 1
552 2.38124 5.94219 1.5874 -1.3584e-08 0.0015213 3.16394e-17 1
597 3.175 6.84964 1.5874 -1.73903e-08 0.00196966 2.18258e-17 1
137 3.96875 5.36366 0.793701 -2.00267e-08 0.00236951 2.09694e-17 1
559 4.76246 5.45025 1.5874 -2.12788e-08 0.00271098 2.1854e-18 1
136 3.96875 6.15736 -9.82061e-16 -2.00267e-08 0.00236951 3.38345e-17 1
142 4.76246 6.24395 0.793701 -2.12788e-08 0.00271098 1.70616e-17 1
179 3.96875 6.95106 0.793701 -2.00267e-08 0.00236951 3.02497e-17 1
181 4.76246 7.03766 -8.2548e-16 -2.12788e-08 0.00271098 5.25069e-17 1
556 3.96875 6.15736 1.5874 -2.00267e-08 0.00236951 1.03829e-17 1
601 4.76246 7.03766 1.5874 -2.12788e-08 0.00271098 -6.13074e-18 1
141 5.55614 5.5199 0.793701 -2.07593e-08 0.00298568 1.0895e-17 1
563 6.34979 5.57091 1.5874 -1.41569e-08 0.00318686 -2.86338e-17 1
146 6.34979 6.36461 0.793701 -1.41569e-08 0.00318686 3.14389e-17 1
183 5.55614 7.10731 0.793701 -2.07593e-08 0.00298568 2.67472e-17 1
560 5.55614 6.31361 1.5874 -2.07593e-08 0.00298568 -6.84413e-18 1
145 7.1434 5.60202 0.793701 5.19316e-09 0.00330957 4.46868e-17 1
149 8.73061 5.60202 0.793701 -5.19316e-09 0.00330957 4.2585e-17 1
567 7.93701 5.61247 1.5874 -5.23168e-17 0.00335082 -2.24395e-17 1
150 7.93701 6.40617 0.793701 -7.46527e-17 0.00335082 5.96568e-17 1
564 7.1434 6.39572 1.5874 5.19316e-09 0.00330957 -1.93618e-17 1
568 8.73061 6.39572 1.5874 -5.19316e-09 0.00330957 8.50469e-18 1
153 10.3179 5.5199 0.793701 2.07593e-08 0.00298568 8.16349e-18 1
571 9.52422 5.57091 1.5874 1.41569e-08 0.00318686 -4.89222e-19 1
154 9.52422 6.36461 0.793701 1.41569e-08 0.00318686 4.27999e-17 1
195 10.3179 7.10731 0.793701 2.07593e-08 0.00298568 2.60477e-17 1
572 10.3179 6.31361 1.5874 2.07593e-08 0.00298568 -1.59709e-18 1
157 11.9053 5.36366 0.793701 2.00267e-08 0.00236951 1.12035e-17 1
575 11.1115 5.45025 1.5874 2.12788e-08 0.00271098 9.42924e-18 1
156 11.9053 6.15736 -5.10654e-16 2.00267e-08 0.00236951 3.63361e-18 1
158 11.1115 6.24395 0.793701 2.12788e-08 0.00271098 -4.18619e-19 1
199 11.9053 6.95106 0.793701 2.00267e-08 0.00236951 -2.68693e-17 1
576 11.9053 6.15736 1.5874 2.00267e-08 0.00236951 -1.6731e-17 1
617 11.1115 7.03766 1.5874 2.12788e-08 0.00271098 -2.27523e-17 1
160 13.4928 5.94219 -4.13998e-16 1.3584e-08 0.0015213 1.67414e-17 1
162 12.699 6.05594 0.793701 1.73903e-08 0.00196966 -5.8151e-18 1
201 12.699 6.84964 -5.14615e-16 1.73903e-08 0.00196966 8.78111e-19 1
203 13.4928 6.73589 0.793701 1.3584e-08 0.0015213 6.89923e-18 1
580 13.4928 5.94219 1.5874 1.3584e-08 0.0015213 1.19455e-18 1
621 12.699 6.84964 1.5874 1.73903e-08 0.00196966 -2.96201e-17 1
164 15.0803 5.68906 -2.64809e-16 4.84276e-09 0.000524172 2.77939e-17 1
166 14.2865 5.81888 0.793701 9.27307e-09 0.00103547 1.56151e-17 1
168 15.874 5.5559 0.793701 -1.01694e-16 -1.27616e-16 2.90169e-17 1
205 14.2865 6.61258 -4.32206e-16 9.27307e-09 0.00103547 2.52087e-17 1
207 15.0803 6.48276 0.793701 4.84276e-09 0.000524172 2.38371e-17 1
209 15.874 6.3496 2.31358e-16 -1.06877e-16 -1.26989e-16 4.71164e-17 1
584 15.0803 5.68906 1.5874 4.84276e-09 0.000524172 1.56259e-17 1
625 14.2865 6.61258 1.5874 9.27307e-09 0.00103547 1.04407e-17 1
629 15.874 6.3496 1.5874 -8.80999e-17 -1.11776e-16 2.61948e-17 1
170 0.793721 7.27646 -3.89525e-16 -4.84276e-09 0.000524172 7.7889e-17 1
172 -4.36153e-16 7.1433 0.793701 2.34424e-17 -4.20902e-17 7.77037e-17 1
176 1.58747 7.40629 0.793701 -9.27307e-09 0.00103547 4.42426e-17 1
211 -3.37152e-16 7.93701 -9.5182e-17 6.86856e-17 -7.76723e-17 1.01831e-16 1
213 0.793721 8.07016 0.793701 -4.84276e-09 0.000524172 4.56224e-17 1
214 -1.16783e-16 8.73071 0.793701 7.73467e-17 -9.75001e-17 5.47062e-17 1
215 1.58747 8.19999 -4.71188e-16 -9.27307e-09 0.00103547 4.89525e-17 1
590 0.793721 7.27646 1.5874 -4.84276e-09 0.000524172 4.21936e-17 1
631 -3.1219e-16 7.93701 1.5874 2.92977e-17 -9.86038e-17 5.28565e-17 1
635 1.58747 8.19999 1.5874 -9.27307e-09 0.00103547 2.68792e-17 1
174 2.38124 7.52959 -7.21524e-16 -1.3584e-08 0.0015213 4.3689e-17 1
180 3.175 7.64334 0.793701 -1.73903e-08 0.00196966 3.61733e-17 1
217 2.38124 8.32329 0.793701 -1.3584e-08 0.0015213 3.86715e-17 1
219 3.175 8.43705 -7.47816e-16 -1.73903e-08 0.00196966 4.03413e-17 1
594 2.38124 7.52959 1.5874 -1.3584e-08 0.0015213 3.00876e-17 1
639 3.175 8.43705 1.5874 -1.73903e-08 0.00196966 2.35697e-17 1
178 3.96875 7.74476 -8.58804e-16 -2.00267e-08 0.00236951 5.14424e-17 1
184 4.76246 7.83136 0.793701 -2.12788e-08 0.00271098 3.39263e-17 1
221 3.96875 8.53846 0.793701 -2.00267e-08 0.00236951 3.3945e-17 1
598 3.96875 7.74476 1.5874 -2.00267e-08 0.00236951 8.02811e-18 1
643 4.76246 8.62506 1.5874 -2.12788e-08 0.00271098 1.96642e-17 1
605 6.34979 7.15831 1.5874 -1.41569e-08 0.00318686 -2.89986e-18 1
188 6.34979 7.95201 0.793701 -1.41569e-08 0.00318686 4.45222e-17 1
225 5.55614 8.69471 0.793701 -2.07593e-08 0.00298568 4.5545e-17 1
602 5.55614 7.90101 1.5874 -2.07593e-08 0.00298568 5.92357e-19 1
647 6.34979 8.74571 1.5874 -1.41569e-08 0.00318686 3.16092e-17 1
187 7.1434 7.18942 0.793701 5.19316e-09 0.00330957 5.53448e-17 1
191 8.73061 7.18942 0.793701 -5.19316e-09 0.00330957 6.73103e-17 1
609 7.93701 7.19987 1.5874 -7.43405e-17 0.00335082 1.21659e-17 1
192 7.93701 7.99357 0.793701 -8.43251e-17 0.00335082 6.47766e-17 1
229 7.1434 8.77682 0.793701 5.19316e-09 0.00330957 5.83444e-17 1
233 8.73061 8.77682 0.793701 -5.19316e-09 0.00330957 6.33429e-17 1
606 7.1434 7.98312 1.5874 5.19316e-09 0.00330957 1.05398e-17 1
610 8.73061 7.98312 1.5874 -5.19316e-09 0.00330957 3.58886e-17 1
651 7.93701 8.78728 1.5874 -5.98377e-17 0.00335082 1.98734e-17 1
613 9.52422 7.15831 1.5874 1.41569e-08 0.00318686 2.84469e-17 1
196 9.52422 7.95201 0.793701 1.41569e-08 0.00318686 6.35225e-17 1
237 10.3179 8.69471 0.793701 2.07593e-08 0.00298568 3.02565e-17 1
614 10.3179 7.90101 1.5874 2.07593e-08 0.00298568 1.17383e-17 1
655 9.52422 8.74571 1.5874 1.41569e-08 0.00318686 2.71744e-17 1
200 11.1115 7.83136 0.793701 2.12788e-08 0.00271098 -7.50825e-18 1
241 11.9053 8.53846 0.793701 2.00267e-08 0.00236951 -1.5833e-17 1
618 11.9053 7.74476 1.5874 2.00267e-08 0.00236951 -4.59232e-17 1
659 11.1115 8.62506 1.5874 2.12788e-08 0.00271098 -1.65931e-17 1
202 13.4928 7.52959 -5.41736e-16 1.3584e-08 0.0015213 1.55561e-17 1
204 12.699 7.64334 0.793701 1.73903e-08 0.00196966 -1.98202e-17 1
243 12.699 8.43705 -5.62691e-16 1.73903e-08 0.00196966 7.62284e-18 1
245 13.4928 8.32329 0.793701 1.3584e-08 0.0015213 1.05089e-17 1
622 13.4928 7.52959 1.5874 1.3584e-08 0.0015213 -3.92164e-18 1
663 12.699 8.43705 1.5874 1.73903e-08 0.00196966 -3.26625e-17 1
206 15.0803 7.27646 -1.93463e-16 4.84276e-09 0.000524172 4.29334e-17 1
208 14.2865 7.40629 0.793701 9.27307e-09 0.00103547 2.39462e-17 1
210 15.874 7.1433 0.793701 -9.1008e-17 -1.05563e-16 4.36577e-17 1
247 14.2865 8.19999 -5.88235e-16 9.27307e-09 0.00103547 2.8785e-17 1
249 15.0803 8.07016 0.793701 4.84276e-09 0.000524172 3.47271e-17 1
251 15.874 7.93701 4.3208e-16 -1.03574e-16 -8.65123e-17 6.47256e-17 1
252 15.874 8.73071 0.793701 -7.76437e-17 -6.01258e-17 5.05717e-17 1
626 15.0803 7.27646 1.5874 4.84276e-09 0.000524172 1.80277e-17 1
667 14.2865 8.19999 1.5874 9.27307e-09 0.00103547 1.09606e-17 1
671 15.874 7.93701 1.5874 -7.04602e-17 -8.35335e-17 3.38503e-17 1
212 0.793721 8.86386 -4.91229e-16 -4.84276e-09 0.000524172 5.09423e-17 1
632 0.793721 8.86386 1.5874 -4.84276e-09 0.000524172 3.32202e-17 1
218 1.58747 8.99369 0.793701 -9.27307e-09 0.00103547 3.17303e-17 1
253 4.84388e-17 9.52441 -1.97785e-16 1.09892e-16 -5.80207e-17 4.73881e-17 1
254 0.793721 10.4513 -3.84966e-16 -4.84276e-09 0.000524172 3.42958e-17 1
255 0.793721 9.65756 0.793701 -4.84276e-09 0.000524172 2.77789e-17 1
256 1.90866e-16 10.3181 0.793701 1.01976e-16 -6.47444e-17 3.5223e-17 1
257 1.58747 9.78739 -4.23341e-16 -9.27307e-09 0.00103547 3.49523e-17 1
260 1.58747 10.5811 0.793701 -9.27307e-09 0.00103547 2.58419e-17 1
673 2.32756e-16 9.52441 1.5874 6.5943e-17 -7.97457e-17 7.2888e-17 1
674 0.793721 10.4513 1.5874 -4.84276e-09 0.000524172 2.31149e-17 1
677 1.58747 9.78739 1.5874 -9.27307e-09 0.00103547 1.72365e-17 1
216 2.38124 9.11699 -4.80085e-16 -1.3584e-08 0.0015213 3.55734e-17 1
222 3.175 9.23075 0.793701 -1.73903e-08 0.00196966 3.35355e-17 1
636 2.38124 9.11699 1.5874 -1.3584e-08 0.0015213 2.74436e-17 1
259 2.38124 9.91069 0.793701 -1.3584e-08 0.0015213 3.48689e-17 1
261 3.175 10.0244 -6.6915e-16 -1.73903e-08 0.00196966 3.47994e-17 1
681 3.175 10.0244 1.5874 -1.73903e-08 0.00196966 2.48002e-17 1
220 3.96875 9.33216 -6.49227e-16 -2.00267e-08 0.00236951 3.96418e-17 1
226 4.76246 9.41876 0.793701 -2.12788e-08 0.00271098 4.25066e-17 1
640 3.96875 9.33216 1.5874 -2.00267e-08 0.00236951 2.56304e-17 1
263 3.96875 10.1259 0.793701 -2.00267e-08 0.00236951 3.35336e-17 1
685 4.76246 10.2125 1.5874 -2.12788e-08 0.00271098 6.89193e-17 1
230 6.34979 9.53941 0.793701 -1.41569e-08 0.00318686 5.37655e-17 1
644 5.55614 9.48841 1.5874 -2.07593e-08 0.00298568 6.65454e-17 1
267 5.55614 10.2821 0.793701 -2.07593e-08 0.00298568 6.85478e-17 1
689 6.34979 10.3331 1.5874 -1.41569e-08 0.00318686 8.22677e-17 1
234 7.93701 9.58098 0.793701 -2.41161e-17 0.00335082 5.3632e-17 1
648 7.1434 9.57052 1.5874 5.19316e-09 0.00330957 3.87204e-17 1
652 8.73061 9.57052 1.5874 -5.19316e-09 0.00330957 1.48608e-17 1
271 7.1434 10.3642 0.793701 5.19316e-09 0.00330957 5.36051e-17 1
275 8.73061 10.3642 0.793701 -5.19316e-09 0.00330957 3.72914e-17 1
693 7.93701 10.3747 1.5874 -5.72924e-18 0.00335082 2.50589e-17 1
238 9.52422 9.53941 0.793701 1.41569e-08 0.00318686 3.99101e-17 1
656 10.3179 9.48841 1.5874 2.07593e-08 0.00298568 7.84381e-18 1
279 10.3179 10.2821 0.793701 2.07593e-08 0.00298568 2.21099e-17 1
697 9.52422 10.3331 1.5874 1.41569e-08 0.00318686 1.23569e-17 1
240 11.9053 9.33216 -5.75264e-16 2.00267e-08 0.00236951 1.6457e-17 1
242 11.1115 9.41876 0.793701 2.12788e-08 0.00271098 1.3669e-17 1
660 11.9053 9.33216 1.5874 2.00267e-08 0.00236951 -1.98229e-17 1
283 11.9053 10.1259 0.793701 2.00267e-08 0.00236951 1.31886e-17 1
701 11.1115 10.2125 1.5874 2.12788e-08 0.00271098 8.63903e-18 1
244 13.4928 9.11699 -8.64669e-16 1.3584e-08 0.0015213 1.78787e-17 1
246 12.699 9.23075 0.793701 1.73903e-08 0.00196966 4.77261e-19 1
664 13.4928 9.11699 1.5874 1.3584e-08 0.0015213 -5.77555e-18 1
285 12.699 10.0244 -8.73496e-16 1.73903e-08 0.00196966 1.73301e-17 1
287 13.4928 9.91069 0.793701 1.3584e-08 0.0015213 5.9959e-18 1
705 12.699 10.0244 1.5874 1.73903e-08 0.00196966 -5.51494e-18 1
248 15.0803 8.86386 -1.21472e-16 4.84276e-09 0.000524172 4.32583e-17 1
668 15.0803 8.86386 1.5874 4.84276e-09 0.000524172 2.21316e-17 1
250 14.2865 8.99369 0.793701 9.27307e-09 0.00103547 2.08976e-17 1
289 14.2865 9.78739 -5.49921e-16 9.27307e-09 0.00103547 2.60301e-17 1
290 15.0803 10.4513 -3.47492e-17 4.84276e-09 0.000524172 3.16125e-17 1
291 15.0803 9.65756 0.793701 4.84276e-09 0.000524172 2.89707e-17 1
292 14.2865 10.5811 0.793701 9.27307e-09 0.00103547 1.50111e-17 1
293 15.874 9.52441 4.39385e-16 -7.53329e-17 -2.68112e-17 5.12034e-17 1
294 15.874 10.3181 0.793701 -5.19325e-17 -3.0545e-17 2.83915e-17 1
709 14.2865 9.78739 1.5874 9.27307e-09 0.00103547 9.03468e-18 1
710 15.0803 10.4513 1.5874 4.84276e-09 0.000524172 1.7009e-17 1
713 15.874 9.52441 1.5874 -5.58877e-17 -5.14883e-17 2.76931e-17 1
295 7.69468e-18 11.1118 -2.88328e-16 9.94385e-17 -6.28791e-17 2.65152e-17 1
296 0.793721 12.0387 -4.72916e-16 -4.84276e-09 0.000524172 2.66213e-17 1
297 0.793721 11.245 0.793701 -4.84276e-09 0.000524172 2.15362e-17 1
298 -3.35051e-17 11.9055 0.793701 1.03473e-16 -6.83574e-17 2.26385e-17 1
299 1.58747 11.3748 -4.19681e-16 -9.27307e-09 0.00103547 3.10247e-17 1
302 1.58747 12.1685 0.793701 -9.27307e-09 0.00103547 1.9771e-17 1
715 1.75019e-16 11.1118 1.5874 9.03588e-17 -8.14395e-17 3.36249e-17 1
716 0.793721 12.0387 1.5874 -4.84276e-09 0.000524172 1.01585e-17 1
719 1.58747 11.3748 1.5874 -9.27307e-09 0.00103547 1.49813e-17 1
258 2.38124 10.7044 -4.7372e-16 -1.3584e-08 0.0015213 3.41395e-17 1
678 2.38124 10.7044 1.5874 -1.3584e-08 0.0015213 2.50137e-17 1
264 3.175 10.8181 0.793701 -1.73903e-08 0.00196966 3.03894e-17 1
300 2.38124 12.2918 -4.68785e-16 -1.3584e-08 0.0015213 2.53819e-17 1
301 2.38124 11.4981 0.793701 -1.3584e-08 0.0015213 2.7657e-17 1
303 3.175 11.6118 -4.71809e-16 -1.73903e-08 0.00196966 3.18769e-17 1
720 2.38124 12.2918 1.5874 -1.3584e-08 0.0015213 1.98512e-17 1
723 3.175 11.6118 1.5874 -1.73903e-08 0.00196966 2.28057e-17 1
262 3.96875 10.9196 -5.71588e-16 -2.00267e-08 0.00236951 3.11997e-17 1
268 4.76246 11.0062 0.793701 -2.12788e-08 0.00271098 5.86581e-17 1
682 3.96875 10.9196 1.5874 -2.00267e-08 0.00236951 3.61622e-17 1
305 3.96875 11.7133 0.793701 -2.00267e-08 0.00236951 2.7304e-17 1
727 4.76246 11.7999 1.5874 -2.12788e-08 0.00271098 4.59366e-17 1
272 6.34979 11.1268 0.793701 -1.41569e-08 0.00318686 8.96722e-17 1
686 5.55614 11.0758 1.5874 -2.07593e-08 0.00298568 9.41352e-17 1
309 5.55614 11.8695 0.793701 -2.07593e-08 0.00298568 8.87158e-17 1
731 6.34979 11.9205 1.5874 -1.41569e-08 0.00318686 5.534e-17 1
276 7.93701 11.1684 0.793701 1.34379e-17 0.00335082 4.83865e-17 1
690 7.1434 11.1579 1.5874 5.19316e-09 0.00330957 4.79116e-17 1
694 8.73061 11.1579 1.5874 -5.19316e-09 0.00330957 2.15769e-17 1
313 7.1434 11.9516 0.793701 5.19316e-09 0.00330957 7.15112e-17 1
317 8.73061 11.9516 0.793701 -5.19316e-09 0.00330957 3.38776e-17 1
735 7.93701 11.9621 1.5874 -9.58847e-18 0.00335082 3.58927e-17 1
280 9.52422 11.1268 0.793701 1.41569e-08 0.00318686 2.31519e-17 1
698 10.3179 11.0758 1.5874 2.07593e-08 0.00298568 1.57302e-17 1
321 10.3179 11.8695 0.793701 2.07593e-08 0.00298568 1.66483e-17 1
739 9.52422 11.9205 1.5874 1.41569e-08 0.00318686 2.12765e-17 1
282 11.9053 10.9196 -6.94435e-16 2.00267e-08 0.00236951 2.10112e-17 1
284 11.1115 11.0062 0.793701 2.12788e-08 0.00271098 1.86439e-17 1
702 11.9053 10.9196 1.5874 2.00267e-08 0.00236951 1.27748e-17 1
325 11.9053 11.7133 0.793701 2.00267e-08 0.00236951 2.07494e-17 1
743 11.1115 11.7999 1.5874 2.12788e-08 0.00271098 1.67105e-17 1
286 13.4928 10.7044 -8.3034e-16 1.3584e-08 0.0015213 2.15769e-17 1
706 13.4928 10.7044 1.5874 1.3584e-08 0.0015213 6.24093e-18 1
288 12.699 10.8181 0.793701 1.73903e-08 0.00196966 1.20568e-17 1
329 13.4928 11.4981 0.793701 1.3584e-08 0.0015213 1.77519e-17 1
747 12.699 11.6118 1.5874 1.73903e-08 0.00196966 1.78157e-17 1
748 13.4928 12.2918 1.5874 1.3584e-08 0.0015213 1.58389e-17 1
331 14.2865 11.3748 -3.3712e-16 9.27307e-09 0.00103547 2.5907e-17 1
332 15.0803 12.0387 6.33772e-17 4.84276e-09 0.000524172 2.33509e-17 1
333 15.0803 11.245 0.793701 4.84276e-09 0.000524172 1.94139e-17 1
334 14.2865 12.1685 0.793701 9.27307e-09 0.00103547 1.92368e-17 1
335 15.874 11.1118 3.51157e-16 -4.50661e-17 -1.69238e-17 2.89544e-17 1
336 15.874 11.9055 0.793701 -5.59063e-17 -3.19098e-17 -8.11453e-19 1
751 14.2865 11.3748 1.5874 9.27307e-09 0.00103547 1.42615e-17 1
752 15.0803 12.0387 1.5874 4.84276e-09 0.000524172 -5.19315e-18 1
755 15.874 11.1118 1.5874 -6.09254e-17 -4.84182e-17 -1.53914e-18 1
337 -2.04825e-16 12.6992 -1.59226e-16 9.31771e-17 -4.72701e-17 7.16523e-18 1
338 0.793721 13.6261 -6.22824e-16 -4.84276e-09 0.000524172 1.2389e-17 1
339 0.793721 12.8324 0.793701 -4.84276e-09 0.000524172 1.80767e-17 1
340 -5.44794e-16 13.4929 0.793701 7.01508e-17 -3.00808e-17 1.60833e-17 1
341 1.58747 12.9622 -6.20021e-16 -9.27307e-09 0.00103547 2.39833e-17 1
344 1.58747 13.7559 0.793701 -9.27307e-09 0.00103547 1.74771e-17 1
757 -1.60749e-16 12.6992 1.5874 9.11919e-17 -5.42529e-17 1.80949e-17 1
758 0.793721 13.6261 1.5874 -4.84276e-09 0.000524172 1.51533e-17 1
761 1.58747 12.9622 1.5874 -9.27307e-09 0.00103547 1.09618e-17 1
306 3.175 12.4055 0.793701 -1.73903e-08 0.00196966 1.74886e-17 1
342 2.38124 13.8792 -8.80902e-16 -1.3584e-08 0.0015213 2.29983e-17 1
343 2.38124 13.0855 0.793701 -1.3584e-08 0.0015213 1.56993e-17 1
345 3.175 13.1992 -7.37662e-16 -1.73903e-08 0.00196966 3.06015e-17 1
348 3.175 13.9929 0.793701 -1.73903e-08 0.00196966 1.54534e-17 1
762 2.38124 13.8792 1.5874 -1.3584e-08 0.0015213 1.0301e-17 1
765 3.175 13.1992 1.5874 -1.73903e-08 0.00196966 1.20989e-17 1
724 3.96875 12.507 1.5874 -2.00267e-08 0.00236951 1.78174e-17 1
310 4.76246 12.5936 0.793701 -2.12788e-08 0.00271098 4.05299e-17 1
346 3.96875 14.0944 -9.2006e-16 -2.00267e-08 0.00236951 6.92465e-17 1
347 3.96875 13.3007 0.793701 -2.00267e-08 0.00236951 2.46495e-17 1
349 4.76246 13.3873 -8.5593e-16 -2.12788e-08 0.00271098 1.05982e-16 1
352 4.76246 14.181 0.793701 -2.12788e-08 0.00271098 4.64636e-17 1
766 3.96875 14.0944 1.5874 -2.00267e-08 0.00236951 1.04273e-17 1
769 4.76246 13.3873 1.5874 -2.12788e-08 0.00271098 1.61265e-17 1
314 6.34979 12.7142 0.793701 -1.41569e-08 0.00318686 8.54024e-17 1
728 5.55614 12.6632 1.5874 -2.07593e-08 0.00298568 3.24714e-17 1
351 5.55614 13.4569 0.793701 -2.07593e-08 0.00298568 6.79261e-17 1
773 6.34979 13.5079 1.5874 -1.41569e-08 0.00318686 2.89483e-17 1
318 7.93701 12.7558 0.793701 -6.31053e-18 0.00335082 4.93352e-17 1
732 7.1434 12.7453 1.5874 5.19316e-09 0.00330957 3.99373e-17 1
736 8.73061 12.7453 1.5874 -5.19316e-09 0.00330957 3.45919e-17 1
355 7.1434 13.539 0.793701 5.19316e-09 0.00330957 6.50398e-17 1
359 8.73061 13.539 0.793701 -5.19316e-09 0.00330957 3.76419e-17 1
777 7.93701 13.5495 1.5874 -1.71145e-17 0.00335082 4.00271e-17 1
322 9.52422 12.7142 0.793701 1.41569e-08 0.00318686 2.20686e-17 1
740 10.3179 12.6632 1.5874 2.07593e-08 0.00298568 1.82689e-17 1
363 10.3179 13.4569 0.793701 2.07593e-08 0.00298568 1.69234e-17 1