ITEM: TIMESTEP
26000
ITEM: NUMBER OF ATOMS
8000
ITEM: BOX BOUNDS pp pp pp
0.0000000000000000e+00 3.1748021039364001e+01
0.0000000000000000e+00 1.5874010519682001e+01
0.0000000000000000e+00 1.5874010519682001e+01
ITEM: ATOMS id x y z vx vy vz c_rho_peratom
2 0.793718 0.921406 -4.69969e-16 -8.34507e-09 0.000566748 -8.16572e-17 1
3 0.793718 0.127706 0.793701 -8.34507e-09 0.000566748 -1.26529e-16 1
4 -6.26326e-16 0.793701 0.793701 1.57659e-18 3.75259e-17 -1.26442e-16 1
5 1.58746 0.25222 -6.84901e-16 -1.59526e-08 0.00111958 -9.13435e-17 1
8 1.58746 1.04592 0.793701 -1.59526e-08 0.00111958 -9.36637e-17 1
43 -6.6412e-16 1.5874 2.37957e-17 -2.05279e-17 -2.4244e-17 -6.59196e-17 1
45 0.793718 1.71511 0.793701 -8.34507e-09 0.000566748 -7.99158e-17 1
422 0.793718 0.921406 1.5874 -8.34507e-09 0.000566748 -1.17335e-16 1
425 1.58746 0.25222 1.5874 -1.59526e-08 0.00111958 -7.624e-17 1
463 -8.52135e-16 1.5874 1.5874 -9.81154e-18 3.3172e-17 -1.06528e-16 1
6 2.38122 1.16418 -7.72549e-16 -2.27704e-08 0.00164486 -8.11795e-17 1
7 2.38122 0.370481 0.793701 -2.27704e-08 0.00164486 -8.17561e-17 1
9 3.17498 0.479586 -7.09289e-16 -2.81579e-08 0.00212963 -6.28972e-17 1
12 3.17498 1.27329 0.793701 -2.81579e-08 0.00212963 -7.18849e-17 1
426 2.38122 1.16418 1.5874 -2.27704e-08 0.00164486 -5.55007e-17 1
429 3.17498 0.479586 1.5874 -2.81579e-08 0.00212963 -2.85067e-17 1
10 3.96872 1.37056 -7.00998e-16 -3.13023e-08 0.00256195 -3.29728e-17 1
11 3.96872 0.576859 0.793701 -3.13023e-08 0.00256195 -2.98495e-17 1
16 4.76243 1.45361 0.793701 -3.1984e-08 0.00293117 -1.98377e-17 1
430 3.96872 1.37056 1.5874 -3.13023e-08 0.00256195 -2.92027e-17 1
433 4.76243 0.659914 1.5874 -3.1984e-08 0.00293117 3.45649e-18 1
15 5.55611 0.72672 0.793701 -2.99141e-08 0.00322818 1.09103e-17 1
20 6.34976 1.56934 0.793701 -2.06315e-08 0.00344571 5.32455e-18 1
434 5.55611 1.52042 1.5874 -2.99141e-08 0.00322818 -2.91014e-18 1
437 6.34976 0.77564 1.5874 -2.06315e-08 0.00344571 3.0679e-18 1
19 7.14339 0.80548 0.793701 2.86727e-09 0.0035784 1.64124e-17 1
23 8.73062 0.80548 0.793701 -2.86727e-09 0.0035784 1.45783e-17 1
24 7.93701 1.60921 0.793701 -7.05988e-17 0.00362299 1.17152e-17 1
438 7.14339 1.59918 1.5874 2.86727e-09 0.0035784 3.95654e-18 1
441 7.93701 0.815508 1.5874 -8.1682e-17 0.00362299 8.15651e-18 1
442 8.73062 1.59918 1.5874 -2.86727e-09 0.0035784 1.9012e-17 1
27 10.3179 0.72672 0.793701 2.99141e-08 0.00322818 3.4989e-17 1
28 9.52425 1.56934 0.793701 2.06315e-08 0.00344571 2.26929e-17 1
445 9.52425 0.77564 1.5874 2.06315e-08 0.00344571 2.29082e-17 1
446 10.3179 1.52042 1.5874 2.99141e-08 0.00322818 5.04267e-17 1
30 11.9053 1.37056 -2.37414e-16 3.13023e-08 0.00256195 4.09258e-17 1
31 11.9053 0.576859 0.793701 3.13023e-08 0.00256195 4.65705e-17 1
32 11.1116 1.45361 0.793701 3.1984e-08 0.00293117 5.19002e-17 1
449 11.1116 0.659914 1.5874 3.1984e-08 0.00293117 6.1528e-17 1
450 11.9053 1.37056 1.5874 3.13023e-08 0.00256195 7.57852e-17 1
33 12.699 0.479586 -1.22175e-16 2.81579e-08 0.00212963 2.27886e-17 1
34 13.4928 1.16418 -2.64464e-16 2.27704e-08 0.00164486 -6.04978e-18 1
35 13.4928 0.370481 0.793701 2.27704e-08 0.00164486 -6.45427e-18 1
36 12.699 1.27329 0.793701 2.81579e-08 0.00212963 2.81621e-17 1
453 12.699 0.479586 1.5874 2.81579e-08 0.00212963 1.96908e-17 1
454 13.4928 1.16418 1.5874 2.27704e-08 0.00164486 2.92252e-18 1
37 14.2865 0.25222 -1.90044e-16 1.59526e-08 0.00111958 -1.92893e-17 1
38 15.0803 0.921406 -1.38131e-16 8.34507e-09 0.000566748 9.21014e-18 1
39 15.0803 0.127706 0.793701 8.34507e-09 0.000566748 -1.69608e-17 1
40 14.2865 1.04592 0.793701 1.59526e-08 0.00111958 -1.34431e-17 1
41 15.874 -1.28941e-15 1.75178e-16 8.36535e-17 -6.49658e-17 -1.38301e-18 1
42 15.874 0.793701 0.793701 7.89223e-17 -3.97136e-17 8.09285e-18 1
81 15.0803 1.71511 0.793701 8.34507e-09 0.000566748 1.32881e-17 1
83 15.874 1.5874 -6.0081e-21 6.40644e-17 -4.27661e-17 5.11089e-17 1
457 14.2865 0.25222 1.5874 1.59526e-08 0.00111958 -1.69277e-17 1
458 15.0803 0.921406 1.5874 8.34507e-09 0.000566748 -2.04868e-17 1
461 15.874 -1.3092e-15 1.5874 8.64562e-17 7.55594e-19 -5.78188e-17 1
503 15.874 1.5874 1.5874 6.88798e-17 -1.0217e-17 -2.27373e-17 1
47 1.58746 1.83962 -6.82378e-16 -1.59526e-08 0.00111958 -6.23896e-17 1
467 1.58746 1.83962 1.5874 -1.59526e-08 0.00111958 -6.50574e-17 1
44 0.793718 2.50881 -4.14526e-16 -8.34507e-09 0.000566748 -3.74279e-17 1
46 -9.78911e-16 2.3811 0.793701 -1.70201e-17 -3.75725e-17 -7.25803e-17 1
50 1.58746 2.63332 0.793701 -1.59526e-08 0.00111958 -4.73941e-17 1
85 -8.05923e-16 3.1748 1.94426e-16 -4.3167e-17 -8.44275e-17 -3.48542e-17 1
87 0.793718 3.30251 0.793701 -8.34507e-09 0.000566748 -4.18202e-17 1
89 1.58746 3.42702 -6.66129e-16 -1.59526e-08 0.00111958 -2.64966e-17 1
464 0.793718 2.50881 1.5874 -8.34507e-09 0.000566748 -6.36487e-17 1
505 -1.16774e-15 3.1748 1.5874 9.67754e-19 -7.27281e-17 -6.92524e-17 1
509 1.58746 3.42702 1.5874 -1.59526e-08 0.00111958 -2.61664e-17 1
49 2.38122 1.95788 0.793701 -2.27704e-08 0.00164486 -7.26274e-17 1
51 3.17498 2.06699 -7.57061e-16 -2.81579e-08 0.00212963 -4.79827e-17 1
471 3.17498 2.06699 1.5874 -2.81579e-08 0.00212963 -5.13344e-17 1
48 2.38122 2.75158 -7.71219e-16 -2.27704e-08 0.00164486 -4.36449e-17 1
54 3.17498 2.86069 0.793701 -2.81579e-08 0.00212963 -4.48892e-17 1
91 2.38122 3.54528 0.793701 -2.27704e-08 0.00164486 -2.77329e-17 1
468 2.38122 2.75158 1.5874 -2.27704e-08 0.00164486 -3.47963e-17 1
53 3.96872 2.16426 0.793701 -3.13023e-08 0.00256195 -3.97403e-17 1
475 4.76243 2.24732 1.5874 -3.1984e-08 0.00293117 -2.68403e-17 1
52 3.96872 2.95796 -7.49826e-16 -3.13023e-08 0.00256195 -1.91773e-17 1
58 4.76243 3.04102 0.793701 -3.1984e-08 0.00293117 -1.58553e-17 1
472 3.96872 2.95796 1.5874 -3.13023e-08 0.00256195 -3.79808e-17 1
57 5.55611 2.31412 0.793701 -2.99141e-08 0.00322818 -7.30938e-18 1
479 6.34976 2.36304 1.5874 -2.06315e-08 0.00344571 -3.99891e-18 1
62 6.34976 3.15674 0.793701 -2.06315e-08 0.00344571 6.25658e-19 1
476 5.55611 3.10782 1.5874 -2.99141e-08 0.00322818 -1.49226e-17 1
61 7.14339 2.39288 0.793701 2.86727e-09 0.0035784 6.83685e-18 1
65 8.73062 2.39288 0.793701 -2.86727e-09 0.0035784 1.31983e-17 1
483 7.93701 2.40291 1.5874 -5.7256e-17 0.00362299 1.347e-17 1
66 7.93701 3.19661 0.793701 -6.76688e-17 0.00362299 6.66391e-18 1
480 7.14339 3.18658 1.5874 2.86727e-09 0.0035784 5.18365e-18 1
484 8.73062 3.18658 1.5874 -2.86727e-09 0.0035784 2.64081e-17 1
69 10.3179 2.31412 0.793701 2.99141e-08 0.00322818 3.22852e-17 1
487 9.52425 2.36304 1.5874 2.06315e-08 0.00344571 3.26436e-17 1
70 9.52425 3.15674 0.793701 2.06315e-08 0.00344571 2.08082e-18 1
488 10.3179 3.10782 1.5874 2.99141e-08 0.00322818 3.57504e-17 1
73 11.9053 2.16426 0.793701 3.13023e-08 0.00256195 4.97027e-17 1
491 11.1116 2.24732 1.5874 3.1984e-08 0.00293117 6.98828e-17 1
72 11.9053 2.95796 -3.35378e-16 3.13023e-08 0.00256195 3.06576e-17 1
74 11.1116 3.04102 0.793701 3.1984e-08 0.00293117 3.45563e-17 1
492 11.9053 2.95796 1.5874 3.13023e-08 0.00256195 4.98397e-17 1
77 13.4928 1.95788 0.793701 2.27704e-08 0.00164486 1.65344e-18 1
75 12.699 2.06699 -3.21489e-16 2.81579e-08 0.00212963 2.0475e-17 1
495 12.699 2.06699 1.5874 2.81579e-08 0.00212963 4.37922e-17 1
76 13.4928 2.75158 -3.59442e-16 2.27704e-08 0.00164486 3.17603e-18 1
78 12.699 2.86069 0.793701 2.81579e-08 0.00212963 2.83596e-17 1
119 13.4928 3.54528 0.793701 2.27704e-08 0.00164486 1.96943e-18 1
496 13.4928 2.75158 1.5874 2.27704e-08 0.00164486 1.36803e-18 1
79 14.2865 1.83962 -2.59447e-16 1.59526e-08 0.00111958 1.7179e-18 1
499 14.2865 1.83962 1.5874 1.59526e-08 0.00111958 -1.46852e-17 1
80 15.0803 2.50881 -7.71372e-17 8.34507e-09 0.000566748 5.09048e-17 1
82 14.2865 2.63332 0.793701 1.59526e-08 0.00111958 3.89336e-18 1
84 15.874 2.3811 0.793701 5.80824e-17 -2.43758e-17 4.65375e-17 1
121 14.2865 3.42702 -2.77954e-16 1.59526e-08 0.00111958 8.68875e-18 1
123 15.0803 3.30251 0.793701 8.34507e-09 0.000566748 3.29575e-17 1
125 15.874 3.1748 4.79534e-17 5.43831e-17 -4.51037e-17 6.74282e-17 1
500 15.0803 2.50881 1.5874 8.34507e-09 0.000566748 -2.13892e-17 1
541 14.2865 3.42702 1.5874 1.59526e-08 0.00111958 -1.45483e-17 1
545 15.874 3.1748 1.5874 5.33461e-17 -6.1588e-17 -2.26205e-17 1
86 0.793718 4.09621 -4.62739e-16 -8.34507e-09 0.000566748 -2.02712e-17 1
88 -1.04424e-15 3.9685 0.793701 -2.05838e-17 -1.04461e-16 -6.20051e-17 1
92 1.58746 4.22072 0.793701 -1.59526e-08 0.00111958 -2.37301e-17 1
127 -6.967e-16 4.7622 2.27553e-16 -3.82719e-17 -1.12392e-16 -3.60937e-17 1
129 0.793718 4.88991 0.793701 -8.34507e-09 0.000566748 -3.9954e-17 1
131 1.58746 5.01442 -6.29983e-16 -1.59526e-08 0.00111958 -2.18511e-17 1
506 0.793718 4.09621 1.5874 -8.34507e-09 0.000566748 -4.53859e-17 1
547 -1.0961e-15 4.7622 1.5874 8.0624e-18 -1.1233e-16 -6.45869e-17 1
551 1.58746 5.01442 1.5874 -1.59526e-08 0.00111958 -2.76737e-17 1
93 3.17498 3.65439 -7.54131e-16 -2.81579e-08 0.00212963 -3.01183e-17 1
513 3.17498 3.65439 1.5874 -2.81579e-08 0.00212963 -2.42049e-17 1
90 2.38122 4.33898 -7.5968e-16 -2.27704e-08 0.00164486 -3.07801e-17 1
96 3.17498 4.44809 0.793701 -2.81579e-08 0.00212963 -2.17817e-17 1
133 2.38122 5.13268 0.793701 -2.27704e-08 0.00164486 -1.93459e-17 1
135 3.17498 5.24179 -7.21904e-16 -2.81579e-08 0.00212963 -4.92818e-17 1
510 2.38122 4.33898 1.5874 -2.27704e-08 0.00164486 -1.2561e-17 1
555 3.17498 5.24179 1.5874 -2.81579e-08 0.00212963 2.52327e-18 1
95 3.96872 3.75166 0.793701 -3.13023e-08 0.00256195 -2.01358e-17 1
517 4.76243 3.83472 1.5874 -3.1984e-08 0.00293117 -1.50713e-17 1
94 3.96872 4.54536 -6.27274e-16 -3.13023e-08 0.00256195 -2.49746e-17 1
100 4.76243 4.62842 0.793701 -3.1984e-08 0.00293117 -7.26506e-18 1
514 3.96872 4.54536 1.5874 -3.13023e-08 0.00256195 -8.01136e-18 1
99 5.55611 3.90152 0.793701 -2.99141e-08 0.00322818 -2.89502e-18 1
521 6.34976 3.95044 1.5874 -2.06315e-08 0.00344571 -6.09642e-19 1
104 6.34976 4.74414 0.793701 -2.06315e-08 0.00344571 7.20763e-18 1
518 5.55611 4.69522 1.5874 -2.99141e-08 0.00322818 8.66782e-19 1
103 7.14339 3.98028 0.793701 2.86727e-09 0.0035784 3.45866e-18 1
107 8.73062 3.98028 0.793701 -2.86727e-09 0.0035784 -1.60501e-17 1
525 7.93701 3.99031 1.5874 -8.13836e-17 0.00362299 1.57286e-17 1
108 7.93701 4.78401 0.793701 -9.82217e-17 0.00362299 -1.07383e-17 1
522 7.14339 4.77398 1.5874 2.86727e-09 0.0035784 4.16763e-18 1
526 8.73062 4.77398 1.5874 -2.86727e-09 0.0035784 1.31558e-17 1
111 10.3179 3.90152 0.793701 2.99141e-08 0.00322818 2.55499e-18 1
529 9.52425 3.95044 1.5874 2.06315e-08 0.00344571 2.48971e-17 1
112 9.52425 4.74414 0.793701 2.06315e-08 0.00344571 -2.96048e-17 1
530 10.3179 4.69522 1.5874 2.99141e-08 0.00322818 1.2864e-17 1
115 11.9053 3.75166 0.793701 3.13023e-08 0.00256195 2.70665e-17 1
533 11.1116 3.83472 1.5874 3.1984e-08 0.00293117 2.29756e-17 1
116 11.1116 4.62842 0.793701 3.1984e-08 0.00293117 1.5537e-17 1
534 11.9053 4.54536 1.5874 3.13023e-08 0.00256195 1.15221e-17 1
537 12.699 3.65439 1.5874 2.81579e-08 0.00212963 1.58161e-17 1
118 13.4928 4.33898 -2.70122e-16 2.27704e-08 0.00164486 -4.0254e-18 1
120 12.699 4.44809 0.793701 2.81579e-08 0.00212963 6.95173e-18 1
161 13.4928 5.13268 0.793701 2.27704e-08 0.00164486 -2.09575e-17 1
538 13.4928 4.33898 1.5874 2.27704e-08 0.00164486 -1.21779e-17 1
579 12.699 5.24179 1.5874 2.81579e-08 0.00212963 -2.0429e-18 1
122 15.0803 4.09621 -2.63606e-16 8.34507e-09 0.000566748 2.18747e-17 1
124 14.2865 4.22072 0.793701 1.59526e-08 0.00111958 -1.58166e-17 1
126 15.874 3.9685 0.793701 5.24074e-17 -5e-17 3.01368e-17 1
163 14.2865 5.01442 -2.88115e-16 1.59526e-08 0.00111958 -1.35905e-17 1
165 15.0803 4.88991 0.793701 8.34507e-09 0.000566748 -1.24511e-17 1
167 15.874 4.7622 -1.57266e-17 5.1588e-17 3.39095e-18 2.07366e-17 1
542 15.0803 4.09621 1.5874 8.34507e-09 0.000566748 -1.94336e-17 1
583 14.2865 5.01442 1.5874 1.59526e-08 0.00111958 -2.45223e-17 1
587 15.874 4.7622 1.5874 4.94828e-17 -3.23027e-17 -3.1708e-17 1
128 0.793718 5.68361 -4.86812e-16 -8.34507e-09 0.000566748 -2.89984e-17 1
130 -8.47569e-16 5.5559 0.793701 -2.46668e-18 -1.23667e-16 -6.40845e-17 1
134 1.58746 5.80812 0.793701 -1.59526e-08 0.00111958 -2.63663e-17 1
169 -5.12086e-16 6.3496 1.04309e-16 -6.72944e-18 -1.33749e-16 -5.55195e-17 1
171 0.793718 6.47731 0.793701 -8.34507e-09 0.000566748 -5.26788e-17 1
173 1.58746 6.60182 -5.56637e-16 -1.59526e-08 0.00111958 -2.7736e-17 1
548 0.793718 5.68361 1.5874 -8.34507e-09 0.000566748 -4.22121e-17 1
589 -5.00227e-16 6.3496 1.5874 1.17707e-17 -1.39957e-16 -4.83775e-17 1
593 1.58746 6.60182 1.5874 -1.59526e-08 0.00111958 -2.23149e-17 1
132 2.38122 5.92638 -8.07927e-16 -2.27704e-08 0.00164486 -3.46901e-17 1
138 3.17498 6.03549 0.793701 -2.81579e-08 0.00212963 -2.00234e-17 1
175 2.38122 6.72009 0.793701 -2.27704e-08 0.00164486 -2.22699e-17 1
177 3.17498 6.82919 -9.04934e-16 -2.81579e-08 0.00212963 -5.62714e-17 1
552 2.38122 5.92638 1.5874 -2.27704e-08 0.00164486 -7.1832e-18 1
597 3.17498 6.82919 1.5874 -2.81579e-08 0.00212963 1.68282e-17 1
137 3.96872 5.33906 0.793701 -3.13023e-08 0.00256195 -1.70721e-17 1
559 4.76243 5.42212 1.5874 -3.1984e-08 0.00293117 8.668e-18 1
136 3.96872 6.13276 -7.38868e-16 -3.13023e-08 0.00256195 -4.58434e-17 1
142 4.76243 6.21582 0.793701 -3.1984e-08 0.00293117 -7.38124e-18 1
179 3.96872 6.92646 0.793701 -3.13023e-08 0.00256195 -2.0637e-17 1
181 4.76243 7.00952 -6.83415e-16 -3.1984e-08 0.00293117 -2.5479e-17 1
556 3.96872 6.13276 1.5874 -3.13023e-08 0.00256195 2.06439e-17 1
601 4.76243 7.00952 1.5874 -3.1984e-08 0.00293117 2.11443e-17 1
141 5.55611 5.48892 0.793701 -2.99141e-08 0.00322818 5.32666e-18 1
563 6.34976 5.53784 1.5874 -2.06315e-08 0.00344571 2.94488e-18 1
146 6.34976 6.33154 0.793701 -2.06315e-08 0.00344571 9.7042e-18 1
183 5.55611 7.07632 0.793701 -2.99141e-08 0.00322818 5.18383e-18 1
560 5.55611 6.28262 1.5874 -2.99141e-08 0.00322818 1.33379e-17 1
145 7.14339 5.56768 0.793701 2.86727e-09 0.0035784 1.77549e-18 1
149 8.73062 5.56768 0.793701 -2.86727e-09 0.0035784 -2.97614e-17 1
567 7.93701 5.57771 1.5874 -1.14141e-16 0.00362299 2.86655e-18 1
150 7.93701 6.37141 0.793701 -9.34845e-17 0.00362299 -1.40271e-17 1
564 7.14339 6.36138 1.5874 2.86727e-09 0.0035784 3.46618e-18 1
568 8.73062 6.36138 1.5874 -2.86727e-09 0.0035784 2.80997e-18 1
153 10.3179 5.48892 0.793701 2.99141e-08 0.00322818 -5.61305e-18 1
571 9.52425 5.53784 1.5874 2.06315e-08 0.00344571 6.6026e-18 1
154 9.52425 6.33154 0.793701 2.06315e-08 0.00344571 -3.15136e-17 1
195 10.3179 7.07632 0.793701 2.99141e-08 0.00322818 -2.44924e-17 1
572 10.3179 6.28262 1.5874 2.99141e-08 0.00322818 5.30305e-18 1
157 11.9053 5.33906 0.793701 3.13023e-08 0.00256195 9.56369e-18 1
575 11.1116 5.42212 1.5874 3.1984e-08 0.00293117 7.72803e-18 1
156 11.9053 6.13276 -1.62988e-16 3.13023e-08 0.00256195 -1.98562e-17 1
158 11.1116 6.21582 0.793701 3.1984e-08 0.00293117 6.07028e-18 1
199 11.9053 6.92646 0.793701 3.13023e-08 0.00256195 6.65183e-19 1
576 11.9053 6.13276 1.5874 3.13023e-08 0.00256195 1.4539e-18 1
617 11.1116 7.00952 1.5874 3.1984e-08 0.00293117 1.38304e-18 1
160 13.4928 5.92638 -2.30713e-16 2.27704e-08 0.00164486 -4.53599e-17 1
162 12.699 6.03549 0.793701 2.81579e-08 0.00212963 -1.05981e-17 1
201 12.699 6.82919 -1.91863e-16 2.81579e-08 0.00212963 -5.89943e-17 1
203 13.4928 6.72009 0.793701 2.27704e-08 0.00164486 -2.12993e-17 1
580 13.4928 5.92638 1.5874 2.27704e-08 0.00164486 -6.66303e-18 1
621 12.699 6.82919 1.5874 2.81579e-08 0.00212963 5.33368e-19 1
164 15.0803 5.68361 -1.82698e-16 8.34507e-09 0.000566748 8.86353e-19 1
166 14.2865 5.80812 0.793701 1.59526e-08 0.00111958 -2.31786e-17 1
168 15.874 5.5559 0.793701 5.49527e-17 -2.3769e-18 -1.30569e-17 1
205 14.2865 6.60182 -2.0048e-16 1.59526e-08 0.00111958 -3.29265e-17 1
207 15.0803 6.47731 0.793701 8.34507e-09 0.000566748 -1.31689e-17 1
209 15.874 6.3496 2.02418e-16 5.68911e-17 -1.5199e-17 1.18188e-17 1
584 15.0803 5.68361 1.5874 8.34507e-09 0.000566748 -3.52813e-17 1
625 14.2865 6.60182 1.5874 1.59526e-08 0.00111958 -1.49316e-17 1
629 15.874 6.3496 1.5874 4.64008e-17 -1.3129e-17 -4.99642e-17 1
170 0.793718 7.27101 -3.49036e-16 -8.34507e-09 0.000566748 -6.38375e-17 1
172 -3.10312e-16 7.1433 0.793701 -4.37277e-18 -1.80654e-16 -8.27422e-17 1
176 1.58746 7.39552 0.793701 -1.59526e-08 0.00111958 -4.9711e-17 1
211 -2.66161e-16 7.93701 -7.54833e-17 -1.50355e-17 -1.85955e-16 -1.0498e-16 1
213 0.793718 8.06471 0.793701 -8.34507e-09 0.000566748 -9.91618e-17 1
214 -4.46908e-17 8.73071 0.793701 -3.87179e-17 -1.96186e-16 -1.02981e-16 1
215 1.58746 8.18923 -3.2533e-16 -1.59526e-08 0.00111958 -8.24176e-17 1
590 0.793718 7.27101 1.5874 -8.34507e-09 0.000566748 -2.75569e-17 1
631 -1.93956e-16 7.93701 1.5874 -2.61171e-17 -2.19177e-16 -2.37949e-17 1
635 1.58746 8.18923 1.5874 -1.59526e-08 0.00111958 -5.78478e-18 1
174 2.38122 7.51379 -6.15727e-16 -2.27704e-08 0.00164486 -5.45851e-17 1
180 3.17498 7.62289 0.793701 -2.81579e-08 0.00212963 -3.00712e-17 1
217 2.38122 8.30749 0.793701 -2.27704e-08 0.00164486 -4.22531e-17 1
219 3.17498 8.41659 -6.25313e-16 -2.81579e-08 0.00212963 -6.01979e-17 1
594 2.38122 7.51379 1.5874 -2.27704e-08 0.00164486 -2.10274e-18 1
639 3.17498 8.41659 1.5874 -2.81579e-08 0.00212963 1.0203e-17 1
178 3.96872 7.72016 -8.04612e-16 -3.13023e-08 0.00256195 -5.00591e-17 1
184 4.76243 7.80322 0.793701 -3.1984e-08 0.00293117 -1.01212e-17 1
221 3.96872 8.51386 0.793701 -3.13023e-08 0.00256195 -1.66718e-17 1
598 3.96872 7.72016 1.5874 -3.13023e-08 0.00256195 1.90108e-17 1
643 4.76243 8.59692 1.5874 -3.1984e-08 0.00293117 1.62727e-17 1
605 6.34976 7.12524 1.5874 -2.06315e-08 0.00344571 8.87938e-18 1
188 6.34976 7.91895 0.793701 -2.06315e-08 0.00344571 1.10931e-17 1
225 5.55611 8.66373 0.793701 -2.99141e-08 0.00322818 1.05015e-17 1
602 5.55611 7.87002 1.5874 -2.99141e-08 0.00322818 1.50208e-17 1
647 6.34976 8.71265 1.5874 -2.06315e-08 0.00344571 1.2983e-17 1
187 7.14339 7.15508 0.793701 2.86727e-09 0.0035784 9.54929e-19 1
191 8.73062 7.15508 0.793701 -2.86727e-09 0.0035784 -2.47009e-17 1
609 7.93701 7.16511 1.5874 -8.00839e-17 0.00362299 3.72953e-18 1
192 7.93701 7.95881 0.793701 -6.20298e-17 0.00362299 -9.43147e-18 1
229 7.14339 8.74249 0.793701 2.86727e-09 0.0035784 2.63469e-18 1
233 8.73062 8.74249 0.793701 -2.86727e-09 0.0035784 -4.13398e-17 1
606 7.14339 7.94878 1.5874 2.86727e-09 0.0035784 4.99462e-18 1
610 8.73062 7.94878 1.5874 -2.86727e-09 0.0035784 -9.75937e-18 1
651 7.93701 8.75251 1.5874 -7.78551e-17 0.00362299 -5.21712e-18 1
613 9.52425 7.12524 1.5874 2.06315e-08 0.00344571 -4.71883e-18 1
196 9.52425 7.91895 0.793701 2.06315e-08 0.00344571 -4.72164e-17 1
237 10.3179 8.66373 0.793701 2.99141e-08 0.00322818 -4.3887e-17 1
614 10.3179 7.87002 1.5874 2.99141e-08 0.00322818 -1.51791e-17 1
655 9.52425 8.71265 1.5874 2.06315e-08 0.00344571 -2.70775e-17 1
200 11.1116 7.80322 0.793701 3.1984e-08 0.00293117 -9.07478e-18 1
241 11.9053 8.51386 0.793701 3.13023e-08 0.00256195 -1.06935e-17 1
618 11.9053 7.72016 1.5874 3.13023e-08 0.00256195 1.1907e-18 1
659 11.1116 8.59692 1.5874 3.1984e-08 0.00293117 -1.18684e-17 1
202 13.4928 7.51379 -2.09004e-16 2.27704e-08 0.00164486 -6.49565e-17 1
204 12.699 7.62289 0.793701 2.81579e-08 0.00212963 -1.79654e-17 1
243 12.699 8.41659 -2.77085e-16 2.81579e-08 0.00212963 -7.25081e-17 1
245 13.4928 8.30749 0.793701 2.27704e-08 0.00164486 -2.91509e-17 1
622 13.4928 7.51379 1.5874 2.27704e-08 0.00164486 1.74337e-18 1
663 12.699 8.41659 1.5874 2.81579e-08 0.00212963 7.44226e-18 1
206 15.0803 7.27101 -4.00094e-17 8.34507e-09 0.000566748 -1.4623e-18 1
208 14.2865 7.39552 0.793701 1.59526e-08 0.00111958 -1.90922e-17 1
210 15.874 7.1433 0.793701 5.17643e-17 -3.87217e-17 -1.11279e-17 1
247 14.2865 8.18923 -2.46556e-16 1.59526e-08 0.00111958 -3.4956e-17 1
249 15.0803 8.06471 0.793701 8.34507e-09 0.000566748 -5.43776e-18 1
251 15.874 7.93701 3.37905e-16 4.75936e-17 -6.51453e-17 1.33001e-17 1
252 15.874 8.73071 0.793701 3.97512e-17 -8.68905e-17 -1.9698e-18 1
626 15.0803 7.27101 1.5874 8.34507e-09 0.000566748 -3.03056e-17 1
667 14.2865 8.18923 1.5874 1.59526e-08 0.00111958 -8.37927e-18 1
671 15.874 7.93701 1.5874 3.78333e-17 -5.58462e-17 -3.1018e-17 1
212 0.793718 8.85841 -3.57768e-16 -8.34507e-09 0.000566748 -1.25734e-16 1
632 0.793718 8.85841 1.5874 -8.34507e-09 0.000566748 -2.47056e-18 1
218 1.58746 8.98293 0.793701 -1.59526e-08 0.00111958 -6.51317e-17 1
253 7.54021e-17 9.52441 -5.89289e-17 -4.13885e-17 -1.84122e-16 -1.15837e-16 1
254 0.793718 10.4458 -1.4627e-16 -8.34507e-09 0.000566748 -6.2487e-17 1
255 0.793718 9.65211 0.793701 -8.34507e-09 0.000566748 -5.34856e-17 1
256 2.03209e-16 10.3181 0.793701 -6.12667e-17 -7.65122e-17 -4.88656e-18 1
257 1.58746 9.77663 -2.31976e-16 -1.59526e-08 0.00111958 -7.31985e-17 1
260 1.58746 10.5703 0.793701 -1.59526e-08 0.00111958 3.88552e-18 1
673 2.74131e-16 9.52441 1.5874 -5.44095e-17 -9.43173e-17 4.66944e-18 1
674 0.793718 10.4458 1.5874 -8.34507e-09 0.000566748 3.45456e-17 1
677 1.58746 9.77663 1.5874 -1.59526e-08 0.00111958 1.69282e-17 1
216 2.38122 9.10119 -2.98326e-16 -2.27704e-08 0.00164486 -5.76801e-17 1
222 3.17498 9.21029 0.793701 -2.81579e-08 0.00212963 -1.09206e-17 1
636 2.38122 9.10119 1.5874 -2.27704e-08 0.00164486 9.39029e-18 1
259 2.38122 9.89489 0.793701 -2.27704e-08 0.00164486 -4.59722e-18 1
261 3.17498 10.004 -4.60076e-16 -2.81579e-08 0.00212963 1.69554e-17 1
681 3.17498 10.004 1.5874 -2.81579e-08 0.00212963 1.85178e-17 1
220 3.96872 9.30756 -5.72092e-16 -3.13023e-08 0.00256195 -4.85551e-18 1
226 4.76243 9.39062 0.793701 -3.1984e-08 0.00293117 1.01127e-17 1
640 3.96872 9.30756 1.5874 -3.13023e-08 0.00256195 1.2679e-17 1
263 3.96872 10.1013 0.793701 -3.13023e-08 0.00256195 2.17463e-17 1
685 4.76243 10.1843 1.5874 -3.1984e-08 0.00293117 1.69564e-17 1
230 6.34976 9.50635 0.793701 -2.06315e-08 0.00344571 1.98939e-17 1
644 5.55611 9.45743 1.5874 -2.99141e-08 0.00322818 1.81413e-17 1
267 5.55611 10.2511 0.793701 -2.99141e-08 0.00322818 2.98041e-17 1
689 6.34976 10.3 1.5874 -2.06315e-08 0.00344571 1.81081e-17 1
234 7.93701 9.54621 0.793701 -5.37424e-17 0.00362299 -2.12618e-17 1
648 7.14339 9.53619 1.5874 2.86727e-09 0.0035784 9.13479e-18 1
652 8.73062 9.53619 1.5874 -2.86727e-09 0.0035784 -1.52925e-17 1
271 7.14339 10.3299 0.793701 2.86727e-09 0.0035784 1.0219e-17 1
275 8.73062 10.3299 0.793701 -2.86727e-09 0.0035784 -3.30724e-17 1
693 7.93701 10.3399 1.5874 -6.05635e-17 0.00362299 -9.73336e-19 1
238 9.52425 9.50635 0.793701 2.06315e-08 0.00344571 -6.19425e-17 1
656 10.3179 9.45743 1.5874 2.99141e-08 0.00322818 -2.13318e-17 1
279 10.3179 10.2511 0.793701 2.99141e-08 0.00322818 -4.00759e-17 1
697 9.52425 10.3 1.5874 2.06315e-08 0.00344571 -1.6062e-17 1
240 11.9053 9.30756 -4.79236e-16 3.13023e-08 0.00256195 -6.71383e-17 1
242 11.1116 9.39062 0.793701 3.1984e-08 0.00293117 -2.56503e-17 1
660 11.9053 9.30756 1.5874 3.13023e-08 0.00256195 -4.94905e-18 1
283 11.9053 10.1013 0.793701 3.13023e-08 0.00256195 -4.97461e-17 1
701 11.1116 10.1843 1.5874 3.1984e-08 0.00293117 -1.35302e-17 1
244 13.4928 9.10119 -4.81984e-16 2.27704e-08 0.00164486 -7.19439e-17 1
246 12.699 9.21029 0.793701 2.81579e-08 0.00212963 -4.58777e-17 1
664 13.4928 9.10119 1.5874 2.27704e-08 0.00164486 -8.59648e-18 1
285 12.699 10.004 -6.49553e-16 2.81579e-08 0.00212963 -1.04712e-16 1
287 13.4928 9.89489 0.793701 2.27704e-08 0.00164486 -5.50174e-17 1
705 12.699 10.004 1.5874 2.81579e-08 0.00212963 1.27211e-18 1
248 15.0803 8.85841 -1.15509e-17 8.34507e-09 0.000566748 7.49891e-19 1
668 15.0803 8.85841 1.5874 8.34507e-09 0.000566748 -1.6858e-17 1
250 14.2865 8.98293 0.793701 1.59526e-08 0.00111958 -2.33321e-17 1
289 14.2865 9.77663 -2.76677e-16 1.59526e-08 0.00111958 -4.0613e-17 1
290 15.0803 10.4458 9.13904e-17 8.34507e-09 0.000566748 -2.01885e-17 1
291 15.0803 9.65211 0.793701 8.34507e-09 0.000566748 -1.08418e-17 1
292 14.2865 10.5703 0.793701 1.59526e-08 0.00111958 -4.09475e-17 1
293 15.874 9.52441 3.40985e-16 3.80478e-17 -1.0707e-16 1.13164e-17 1
294 15.874 10.3181 0.793701 4.28851e-17 -1.50846e-16 -1.86638e-17 1
709 14.2865 9.77663 1.5874 1.59526e-08 0.00111958 -1.95622e-17 1
710 15.0803 10.4458 1.5874 8.34507e-09 0.000566748 -2.67005e-17 1
713 15.874 9.52441 1.5874 2.96152e-17 -1.20019e-16 -2.45893e-17 1
295 4.60483e-17 11.1118 -3.08856e-17 -6.15906e-17 -8.37538e-17 -2.46396e-17 1
296 0.793718 12.0332 -2.26351e-16 -8.34507e-09 0.000566748 3.91597e-18 1
297 0.793718 11.2395 0.793701 -8.34507e-09 0.000566748 3.79697e-17 1
298 -4.59886e-17 11.9055 0.793701 -5.7157e-17 -3.99246e-17 8.22481e-17 1
299 1.58746 11.364 -1.53739e-16 -1.59526e-08 0.00111958 5.9262e-19 1
302 1.58746 12.1577 0.793701 -1.59526e-08 0.00111958 4.81724e-17 1
715 1.66095e-16 11.1118 1.5874 -5.28115e-17 2.19852e-18 7.44236e-17 1
716 0.793718 12.0332 1.5874 -8.34507e-09 0.000566748 9.93117e-17 1
719 1.58746 11.364 1.5874 -1.59526e-08 0.00111958 4.34509e-17 1
258 2.38122 10.6886 -2.32339e-16 -2.27704e-08 0.00164486 1.94525e-17 1
678 2.38122 10.6886 1.5874 -2.27704e-08 0.00164486 2.4312e-17 1
264 3.17498 10.7977 0.793701 -2.81579e-08 0.00212963 3.80746e-17 1
300 2.38122 12.276 -2.6293e-16 -2.27704e-08 0.00164486 4.58274e-17 1
301 2.38122 11.4823 0.793701 -2.27704e-08 0.00164486 4.19938e-17 1
303 3.17498 11.5914 -2.70252e-16 -2.81579e-08 0.00212963 7.45414e-17 1
720 2.38122 12.276 1.5874 -2.27704e-08 0.00164486 3.01675e-17 1
723 3.17498 11.5914 1.5874 -2.81579e-08 0.00212963 2.57654e-17 1
262 3.96872 10.895 -3.38443e-16 -3.13023e-08 0.00256195 7.01283e-17 1
268 4.76243 10.978 0.793701 -3.1984e-08 0.00293117 4.07402e-17 1
682 3.96872 10.895 1.5874 -3.13023e-08 0.00256195 2.52654e-17 1
305 3.96872 11.6887 0.793701 -3.13023e-08 0.00256195 5.27955e-17 1
727 4.76243 11.7717 1.5874 -3.1984e-08 0.00293117 2.72575e-17 1
272 6.34976 11.0937 0.793701 -2.06315e-08 0.00344571 3.38811e-17 1
686 5.55611 11.0448 1.5874 -2.99141e-08 0.00322818 2.07829e-17 1
309 5.55611 11.8385 0.793701 -2.99141e-08 0.00322818 5.31919e-17 1
731 6.34976 11.8874 1.5874 -2.06315e-08 0.00344571 9.61855e-18 1
276 7.93701 11.1336 0.793701 -4.16747e-17 0.00362299 6.60152e-18 1
690 7.14339 11.1236 1.5874 2.86727e-09 0.0035784 6.57862e-18 1
694 8.73062 11.1236 1.5874 -2.86727e-09 0.0035784 -6.74574e-18 1
313 7.14339 11.9173 0.793701 2.86727e-09 0.0035784 3.73165e-17 1
317 8.73062 11.9173 0.793701 -2.86727e-09 0.0035784 1.42013e-17 1
735 7.93701 11.9273 1.5874 -6.27458e-17 0.00362299 4.7109e-18 1
280 9.52425 11.0937 0.793701 2.06315e-08 0.00344571 -1.9337e-17 1
698 10.3179 11.0448 1.5874 2.99141e-08 0.00322818 -1.82251e-17 1
321 10.3179 11.8385 0.793701 2.99141e-08 0.00322818 -1.77555e-17 1
739 9.52425 11.8874 1.5874 2.06315e-08 0.00344571 -5.17509e-18 1
282 11.9053 10.895 -5.42072e-16 3.13023e-08 0.00256195 -9.06752e-17 1
284 11.1116 10.978 0.793701 3.1984e-08 0.00293117 -4.17434e-17 1
702 11.9053 10.895 1.5874 3.13023e-08 0.00256195 -4.30076e-18 1
325 11.9053 11.6887 0.793701 3.13023e-08 0.00256195 -6.48626e-17 1
743 11.1116 11.7717 1.5874 3.1984e-08 0.00293117 -1.87248e-17 1
286 13.4928 10.6886 -5.48889e-16 2.27704e-08 0.00164486 -8.78794e-17 1
706 13.4928 10.6886 1.5874 2.27704e-08 0.00164486 -4.97375e-18 1
288 12.699 10.7977 0.793701 2.81579e-08 0.00212963 -7.04207e-17 1
329 13.4928 11.4823 0.793701 2.27704e-08 0.00164486 -5.90695e-17 1
747 12.699 11.5914 1.5874 2.81579e-08 0.00212963 2.55246e-18 1
748 13.4928 12.276 1.5874 2.27704e-08 0.00164486 -1.09482e-17 1
331 14.2865 11.364 -1.46764e-16 1.59526e-08 0.00111958 -6.53843e-17 1
332 15.0803 12.0332 1.16189e-16 8.34507e-09 0.000566748 -6.14004e-17 1
333 15.0803 11.2395 0.793701 8.34507e-09 0.000566748 -4.97324e-17 1
334 14.2865 12.1577 0.793701 1.59526e-08 0.00111958 -5.39623e-17 1
335 15.874 11.1118 3.66152e-16 4.75616e-17 -1.54939e-16 -2.28532e-17 1
336 15.874 11.9055 0.793701 5.58569e-17 -2.13765e-16 -8.68389e-17 1
751 14.2865 11.364 1.5874 1.59526e-08 0.00111958 -2.70748e-17 1
752 15.0803 12.0332 1.5874 8.34507e-09 0.000566748 -7.55721e-17 1
755 15.874 11.1118 1.5874 4.7683e-17 -2.2181e-16 -6.32417e-17 1
337 -2.17606e-16 12.6992 5.60075e-17 -6.04084e-17 -7.73802e-17 2.07758e-17 1
338 0.793718 13.6206 -4.12922e-16 -8.34507e-09 0.000566748 -3.7369e-17 1
339 0.793718 12.8269 0.793701 -8.34507e-09 0.000566748 7.85872e-17 1
340 -5.78097e-16 13.4929 0.793701 -6.10718e-17 -1.17636e-16 6.80305e-17 1
341 1.58746 12.9514 -3.62486e-16 -1.59526e-08 0.00111958 1.44408e-18 1
344 1.58746 13.7451 0.793701 -1.59526e-08 0.00111958 6.49483e-18 1
757 -2.05478e-16 12.6992 1.5874 -4.3424e-17 -9.17307e-17 1.15684e-16 1
758 0.793718 13.6206 1.5874 -8.34507e-09 0.000566748 6.32773e-17 1
761 1.58746 12.9514 1.5874 -1.59526e-08 0.00111958 5.27193e-17 1
306 3.17498 12.3851 0.793701 -2.81579e-08 0.00212963 5.10979e-17 1
342 2.38122 13.8634 -5.94678e-16 -2.27704e-08 0.00164486 -9.28227e-18 1
343 2.38122 13.0697 0.793701 -2.27704e-08 0.00164486 3.63343e-17 1
345 3.17498 13.1788 -4.6828e-16 -2.81579e-08 0.00212963 4.99621e-17 1
348 3.17498 13.9725 0.793701 -2.81579e-08 0.00212963 2.11976e-17 1
762 2.38122 13.8634 1.5874 -2.27704e-08 0.00164486 2.25166e-17 1
765 3.17498 13.1788 1.5874 -2.81579e-08 0.00212963 2.79701e-17 1
724 3.96872 12.4824 1.5874 -3.13023e-08 0.00256195 2.8553e-17 1
310 4.76243 12.5654 0.793701 -3.1984e-08 0.00293117 5.72054e-17 1
346 3.96872 14.0698 -5.90133e-16 -3.13023e-08 0.00256195 3.48261e-17 1
347 3.96872 13.2761 0.793701 -3.13023e-08 0.00256195 4.24225e-17 1
349 4.76243 13.3591 -4.91635e-16 -3.1984e-08 0.00293117 7.4662e-17 1
352 4.76243 14.1528 0.793701 -3.1984e-08 0.00293117 4.08022e-17 1
766 3.96872 14.0698 1.5874 -3.13023e-08 0.00256195 1.81558e-17 1
769 4.76243 13.3591 1.5874 -3.1984e-08 0.00293117 1.99371e-17 1
314 6.34976 12.6811 0.793701 -2.06315e-08 0.00344571 7.28024e-17 1
728 5.55611 12.6322 1.5874 -2.99141e-08 0.00322818 2.01011e-17 1
351 5.55611 13.4259 0.793701 -2.99141e-08 0.00322818 7.70264e-17 1
773 6.34976 13.4748 1.5874 -2.06315e-08 0.00344571 1.51504e-17 1
318 7.93701 12.721 0.793701 -7.9896e-17 0.00362299 3.66358e-17 1
732 7.14339 12.711 1.5874 2.86727e-09 0.0035784 8.61839e-18 1
736 8.73062 12.711 1.5874 -2.86727e-09 0.0035784 1.0002e-17 1
355 7.14339 13.5047 0.793701 2.86727e-09 0.0035784 7.14305e-17 1
359 8.73062 13.5047 0.793701 -2.86727e-09 0.0035784 2.72698e-17 1