ITEM: TIMESTEP
10000
ITEM: NUMBER OF ATOMS
8000
ITEM: BOX BOUNDS pp pp pp
0.0000000000000000e+00 3.1748021039364001e+01
0.0000000000000000e+00 1.5874010519682001e+01
0.0000000000000000e+00 1.5874010519682001e+01
ITEM: ATOMS id x y z vx vy vz c_rho_peratom
2 0.793703 0.858447 -1.4055e-16 1.54889e-09 0.00105862 3.61852e-17 1
3 0.793703 0.0647468 0.793701 1.54889e-09 0.00105862 4.65265e-18 1
4 -1.31725e-16 0.793701 0.793701 7.83928e-17 -6.31273e-17 1.01021e-18 1
5 1.58741 0.127887 -2.88021e-16 2.85629e-09 0.00209117 3.17649e-17 1
8 1.58741 0.921588 0.793701 2.85629e-09 0.00209117 7.12906e-18 1
43 -1.07705e-16 1.5874 4.18225e-17 9.20479e-17 -7.76717e-17 3.31989e-17 1
45 0.793703 1.65215 0.793701 1.54889e-09 0.00105862 3.10729e-18 1
47 1.58741 1.71529 -2.67109e-16 2.85629e-09 0.00209117 3.26063e-17 1
422 0.793703 0.858447 1.5874 1.54889e-09 0.00105862 -2.40366e-17 1
425 1.58741 0.127887 1.5874 2.85629e-09 0.00209117 -1.79256e-17 1
463 -2.03129e-16 1.5874 1.5874 9.43318e-17 -7.27327e-17 -3.29571e-17 1
467 1.58741 1.71529 1.5874 2.85629e-09 0.00209117 -1.58401e-17 1
6 2.38112 0.981568 -4.15981e-16 3.6441e-09 0.00307225 3.21064e-17 1
7 2.38112 0.187867 0.793701 3.6441e-09 0.00307225 3.19129e-18 1
9 3.17482 0.243213 -6.15682e-16 3.91702e-09 0.00397767 2.16426e-17 1
12 3.17482 1.03691 0.793701 3.91702e-09 0.00397767 -4.16139e-18 1
49 2.38112 1.77527 0.793701 3.6441e-09 0.00307225 4.42025e-20 1
426 2.38112 0.981568 1.5874 3.6441e-09 0.00307225 -2.2172e-17 1
429 3.17482 0.243213 1.5874 3.91702e-09 0.00397767 -2.76153e-17 1
10 3.96853 1.08626 -6.49657e-16 3.69605e-09 0.00478516 9.17224e-18 1
11 3.96853 0.292564 0.793701 3.69605e-09 0.00478516 -4.05496e-18 1
16 4.76223 1.12841 0.793701 2.19336e-09 0.00547481 -7.14537e-18 1
430 3.96853 1.08626 1.5874 3.69605e-09 0.00478516 -2.45769e-17 1
433 4.76223 0.334707 1.5874 2.19336e-09 0.00547481 -2.18014e-17 1
15 5.55593 0.368609 0.793701 -8.46553e-10 0.00602965 -7.80765e-19 1
20 6.34963 1.18714 0.793701 2.95536e-09 0.00643602 -6.26715e-18 1
434 5.55593 1.16231 1.5874 -8.46553e-10 0.00602965 -1.4436e-17 1
437 6.34963 0.393437 1.5874 2.95536e-09 0.00643602 -1.16854e-17 1
19 7.14332 0.408582 0.793701 2.7423e-08 0.00668392 -3.65949e-18 1
23 8.73069 0.408582 0.793701 -2.7423e-08 0.00668392 -2.41589e-18 1
24 7.93701 1.20737 0.793701 -2.21498e-17 0.00676724 -4.24767e-18 1
438 7.14332 1.20228 1.5874 2.7423e-08 0.00668392 -3.91329e-18 1
441 7.93701 0.413672 1.5874 -4.42078e-17 0.00676724 -1.66245e-19 1
442 8.73069 1.20228 1.5874 -2.7423e-08 0.00668392 6.90704e-18 1
27 10.3181 0.368609 0.793701 8.46553e-10 0.00602965 -6.98147e-18 1
28 9.52438 1.18714 0.793701 -2.95536e-09 0.00643602 -1.88592e-18 1
445 9.52438 0.393437 1.5874 -2.95536e-09 0.00643602 2.06771e-17 1
446 10.3181 1.16231 1.5874 8.46553e-10 0.00602965 7.55873e-18 1
30 11.9055 1.08626 -5.56133e-16 -3.69605e-09 0.00478516 -4.27327e-18 1
31 11.9055 0.292564 0.793701 -3.69605e-09 0.00478516 -1.1171e-17 1
32 11.1118 1.12841 0.793701 -2.19336e-09 0.00547481 -8.79231e-18 1
449 11.1118 0.334707 1.5874 -2.19336e-09 0.00547481 9.05045e-19 1
450 11.9055 1.08626 1.5874 -3.69605e-09 0.00478516 -1.62325e-17 1
33 12.6992 0.243213 -4.1746e-16 -3.91702e-09 0.00397767 1.26057e-18 1
34 13.4929 0.981568 -3.20831e-16 -3.6441e-09 0.00307225 4.74854e-18 1
35 13.4929 0.187867 0.793701 -3.6441e-09 0.00307225 9.79535e-18 1
36 12.6992 1.03691 0.793701 -3.91702e-09 0.00397767 -3.07262e-18 1
77 13.4929 1.77527 0.793701 -3.6441e-09 0.00307225 -7.93817e-19 1
453 12.6992 0.243213 1.5874 -3.91702e-09 0.00397767 -1.0727e-17 1
454 13.4929 0.981568 1.5874 -3.6441e-09 0.00307225 -1.45802e-18 1
37 14.2866 0.127887 -2.34003e-16 -2.85629e-09 0.00209117 8.13393e-18 1
38 15.0803 0.858447 -5.4361e-17 -1.54889e-09 0.00105862 1.07714e-17 1
39 15.0803 0.0647468 0.793701 -1.54889e-09 0.00105862 2.52507e-17 1
40 14.2866 0.921588 0.793701 -2.85629e-09 0.00209117 1.63045e-17 1
41 15.874 -2.04625e-16 1.68546e-16 -3.11394e-17 2.94236e-17 1.78865e-17 1
42 15.874 0.793701 0.793701 -3.55332e-17 1.26045e-17 2.06382e-17 1
79 14.2866 1.71529 -1.74087e-16 -2.85629e-09 0.00209117 6.76204e-18 1
81 15.0803 1.65215 0.793701 -1.54889e-09 0.00105862 1.46396e-17 1
83 15.874 1.5874 1.97234e-16 -3.96122e-17 7.48022e-18 9.81991e-18 1
457 14.2866 0.127887 1.5874 -2.85629e-09 0.00209117 1.92682e-17 1
458 15.0803 0.858447 1.5874 -1.54889e-09 0.00105862 1.46748e-17 1
461 15.874 -2.14871e-16 1.5874 -3.46966e-17 1.39506e-17 2.51685e-17 1
499 14.2866 1.71529 1.5874 -2.85629e-09 0.00209117 -2.77022e-18 1
503 15.874 1.5874 1.5874 -5.21257e-17 -1.36507e-17 -3.44991e-18 1
44 0.793703 2.44585 -1.86459e-16 1.54889e-09 0.00105862 2.57034e-17 1
46 -1.88633e-16 2.3811 0.793701 9.99712e-17 -9.47166e-17 5.90638e-18 1
50 1.58741 2.50899 0.793701 2.85629e-09 0.00209117 8.57742e-19 1
85 -1.81565e-16 3.1748 -4.50286e-18 1.17876e-16 -1.22484e-16 3.06687e-17 1
87 0.793703 3.23955 0.793701 1.54889e-09 0.00105862 6.81928e-18 1
89 1.58741 3.30269 -3.15514e-16 2.85629e-09 0.00209117 1.59956e-17 1
464 0.793703 2.44585 1.5874 1.54889e-09 0.00105862 -1.3228e-17 1
505 -2.48083e-16 3.1748 1.5874 9.6874e-17 -9.40759e-17 6.87291e-18 1
509 1.58741 3.30269 1.5874 2.85629e-09 0.00209117 -7.12991e-18 1
51 3.17482 1.83061 -5.90743e-16 3.91702e-09 0.00397767 1.70051e-17 1
471 3.17482 1.83061 1.5874 3.91702e-09 0.00397767 -1.97681e-17 1
48 2.38112 2.56897 -4.45311e-16 3.6441e-09 0.00307225 1.79284e-17 1
54 3.17482 2.62431 0.793701 3.91702e-09 0.00397767 -3.72909e-18 1
91 2.38112 3.36267 0.793701 3.6441e-09 0.00307225 -1.74411e-18 1
93 3.17482 3.41802 -6.21411e-16 3.91702e-09 0.00397767 1.53259e-17 1
468 2.38112 2.56897 1.5874 3.6441e-09 0.00307225 -1.38266e-17 1
513 3.17482 3.41802 1.5874 3.91702e-09 0.00397767 -1.39117e-17 1
53 3.96853 1.87996 0.793701 3.69605e-09 0.00478516 -6.52207e-18 1
475 4.76223 1.92211 1.5874 2.19336e-09 0.00547481 -1.92931e-17 1
52 3.96853 2.67367 -6.65641e-16 3.69605e-09 0.00478516 2.35286e-17 1
58 4.76223 2.71581 0.793701 2.19336e-09 0.00547481 -2.31846e-18 1
95 3.96853 3.46737 0.793701 3.69605e-09 0.00478516 -2.25954e-18 1
472 3.96853 2.67367 1.5874 3.69605e-09 0.00478516 -1.90248e-17 1
517 4.76223 3.50951 1.5874 2.19336e-09 0.00547481 -3.51576e-17 1
57 5.55593 1.95601 0.793701 -8.46553e-10 0.00602965 -4.01238e-18 1
479 6.34963 1.98084 1.5874 2.95536e-09 0.00643602 -7.79033e-18 1
62 6.34963 2.77454 0.793701 2.95536e-09 0.00643602 -3.35487e-18 1
99 5.55593 3.54341 0.793701 -8.46553e-10 0.00602965 -3.03557e-18 1
476 5.55593 2.74971 1.5874 -8.46553e-10 0.00602965 -2.51341e-17 1
521 6.34963 3.56824 1.5874 2.95536e-09 0.00643602 -3.77511e-17 1
61 7.14332 1.99598 0.793701 2.7423e-08 0.00668392 -4.99696e-18 1
65 8.73069 1.99598 0.793701 -2.7423e-08 0.00668392 -2.84829e-18 1
483 7.93701 2.00107 1.5874 -2.54943e-17 0.00676724 7.55056e-19 1
66 7.93701 2.79477 0.793701 -6.76276e-17 0.00676724 -3.30894e-18 1
103 7.14332 3.58338 0.793701 2.7423e-08 0.00668392 -7.42475e-18 1
107 8.73069 3.58338 0.793701 -2.7423e-08 0.00668392 -2.2039e-18 1
480 7.14332 2.78968 1.5874 2.7423e-08 0.00668392 -2.03649e-17 1
484 8.73069 2.78968 1.5874 -2.7423e-08 0.00668392 -1.84287e-18 1
525 7.93701 3.58847 1.5874 -9.98419e-17 0.00676724 -2.37899e-17 1
69 10.3181 1.95601 0.793701 8.46553e-10 0.00602965 -5.59374e-18 1
487 9.52438 1.98084 1.5874 -2.95536e-09 0.00643602 4.06092e-18 1
70 9.52438 2.77454 0.793701 -2.95536e-09 0.00643602 -9.54653e-18 1
111 10.3181 3.54341 0.793701 8.46553e-10 0.00602965 -1.87353e-17 1
488 10.3181 2.74971 1.5874 8.46553e-10 0.00602965 -2.01901e-18 1
529 9.52438 3.56824 1.5874 -2.95536e-09 0.00643602 -8.92286e-19 1
73 11.9055 1.87996 0.793701 -3.69605e-09 0.00478516 -9.76648e-18 1
491 11.1118 1.92211 1.5874 -2.19336e-09 0.00547481 -8.65875e-18 1
72 11.9055 2.67367 -6.2533e-16 -3.69605e-09 0.00478516 -1.38226e-17 1
74 11.1118 2.71581 0.793701 -2.19336e-09 0.00547481 -1.45154e-17 1
115 11.9055 3.46737 0.793701 -3.69605e-09 0.00478516 -2.14647e-17 1
492 11.9055 2.67367 1.5874 -3.69605e-09 0.00478516 -2.44036e-17 1
533 11.1118 3.50951 1.5874 -2.19336e-09 0.00547481 -1.28332e-17 1
75 12.6992 1.83061 -4.62062e-16 -3.91702e-09 0.00397767 -2.70876e-18 1
495 12.6992 1.83061 1.5874 -3.91702e-09 0.00397767 -2.10453e-17 1
76 13.4929 2.56897 -2.39417e-16 -3.6441e-09 0.00307225 5.23447e-19 1
78 12.6992 2.62431 0.793701 -3.91702e-09 0.00397767 -1.74286e-17 1
117 12.6992 3.41802 -4.42266e-16 -3.91702e-09 0.00397767 -5.80595e-18 1
119 13.4929 3.36267 0.793701 -3.6441e-09 0.00307225 -1.25193e-17 1
496 13.4929 2.56897 1.5874 -3.6441e-09 0.00307225 -2.5649e-17 1
537 12.6992 3.41802 1.5874 -3.91702e-09 0.00397767 -3.79169e-17 1
80 15.0803 2.44585 -4.0373e-17 -1.54889e-09 0.00105862 7.31056e-18 1
82 14.2866 2.50899 0.793701 -2.85629e-09 0.00209117 1.98701e-18 1
84 15.874 2.3811 0.793701 -5.90958e-17 -1.34758e-17 1.08068e-18 1
121 14.2866 3.30269 -1.75684e-16 -2.85629e-09 0.00209117 3.40598e-18 1
123 15.0803 3.23955 0.793701 -1.54889e-09 0.00105862 1.6721e-18 1
125 15.874 3.1748 1.41465e-16 -5.85652e-17 -3.00101e-17 3.44697e-18 1
500 15.0803 2.44585 1.5874 -1.54889e-09 0.00105862 -1.02863e-17 1
541 14.2866 3.30269 1.5874 -2.85629e-09 0.00209117 -1.70605e-17 1
545 15.874 3.1748 1.5874 -8.04731e-17 -3.13083e-17 -2.44614e-17 1
86 0.793703 4.03325 -1.60664e-16 1.54889e-09 0.00105862 2.2147e-17 1
88 -2.22929e-16 3.9685 0.793701 1.22665e-16 -1.20928e-16 3.28574e-17 1
92 1.58741 4.09639 0.793701 2.85629e-09 0.00209117 4.38109e-18 1
127 -1.26533e-16 4.7622 9.19463e-17 1.4258e-16 -1.19216e-16 3.29135e-17 1
129 0.793703 4.82695 0.793701 1.54889e-09 0.00105862 2.3522e-17 1
131 1.58741 4.89009 -3.00224e-16 2.85629e-09 0.00209117 1.8749e-17 1
506 0.793703 4.03325 1.5874 1.54889e-09 0.00105862 1.24674e-17 1
547 -2.31082e-16 4.7622 1.5874 1.11545e-16 -1.07622e-16 4.23492e-17 1
551 1.58741 4.89009 1.5874 2.85629e-09 0.00209117 1.95557e-17 1
90 2.38112 4.15637 -4.65092e-16 3.6441e-09 0.00307225 1.11095e-17 1
96 3.17482 4.21172 0.793701 3.91702e-09 0.00397767 5.82397e-19 1
133 2.38112 4.95007 0.793701 3.6441e-09 0.00307225 1.71291e-17 1
135 3.17482 5.00542 -5.77962e-16 3.91702e-09 0.00397767 1.48095e-17 1
510 2.38112 4.15637 1.5874 3.6441e-09 0.00307225 -4.03394e-19 1
555 3.17482 5.00542 1.5874 3.91702e-09 0.00397767 6.56276e-18 1
94 3.96853 4.26107 -6.65777e-16 3.69605e-09 0.00478516 1.78009e-17 1
100 4.76223 4.30321 0.793701 2.19336e-09 0.00547481 -1.66485e-18 1
137 3.96853 5.05477 0.793701 3.69605e-09 0.00478516 3.21355e-18 1
514 3.96853 4.26107 1.5874 3.69605e-09 0.00478516 -2.09432e-17 1
559 4.76223 5.09691 1.5874 2.19336e-09 0.00547481 -1.32939e-17 1
104 6.34963 4.36194 0.793701 2.95536e-09 0.00643602 1.88381e-19 1
141 5.55593 5.13081 0.793701 -8.46553e-10 0.00602965 1.09271e-17 1
518 5.55593 4.33711 1.5874 -8.46553e-10 0.00602965 -3.21941e-17 1
563 6.34963 5.15564 1.5874 2.95536e-09 0.00643602 -1.04971e-17 1
108 7.93701 4.38217 0.793701 -1.34892e-16 0.00676724 2.19806e-18 1
145 7.14332 5.17079 0.793701 2.7423e-08 0.00668392 2.33191e-17 1
149 8.73069 5.17079 0.793701 -2.7423e-08 0.00668392 1.11718e-17 1
522 7.14332 4.37708 1.5874 2.7423e-08 0.00668392 -2.67557e-17 1
526 8.73069 4.37708 1.5874 -2.7423e-08 0.00668392 -8.07178e-20 1
567 7.93701 5.17587 1.5874 -1.32472e-16 0.00676724 6.98262e-18 1
112 9.52438 4.36194 0.793701 -2.95536e-09 0.00643602 -5.97606e-18 1
153 10.3181 5.13081 0.793701 8.46553e-10 0.00602965 -2.33415e-18 1
530 10.3181 4.33711 1.5874 8.46553e-10 0.00602965 -1.65284e-18 1
571 9.52438 5.15564 1.5874 -2.95536e-09 0.00643602 8.8157e-18 1
114 11.9055 4.26107 -6.82208e-16 -3.69605e-09 0.00478516 -1.18763e-17 1
116 11.1118 4.30321 0.793701 -2.19336e-09 0.00547481 -1.42575e-17 1
157 11.9055 5.05477 0.793701 -3.69605e-09 0.00478516 -1.14345e-17 1
534 11.9055 4.26107 1.5874 -3.69605e-09 0.00478516 -2.45253e-17 1
575 11.1118 5.09691 1.5874 -2.19336e-09 0.00547481 -1.99103e-18 1
118 13.4929 4.15637 -3.43305e-16 -3.6441e-09 0.00307225 -4.79334e-20 1
120 12.6992 4.21172 0.793701 -3.91702e-09 0.00397767 -1.79511e-17 1
159 12.6992 5.00542 -5.77267e-16 -3.91702e-09 0.00397767 -7.82815e-18 1
161 13.4929 4.95007 0.793701 -3.6441e-09 0.00307225 -6.18991e-18 1
538 13.4929 4.15637 1.5874 -3.6441e-09 0.00307225 -2.39668e-17 1
579 12.6992 5.00542 1.5874 -3.91702e-09 0.00397767 -1.66163e-17 1
122 15.0803 4.03325 -1.19018e-16 -1.54889e-09 0.00105862 3.58181e-18 1
124 14.2866 4.09639 0.793701 -2.85629e-09 0.00209117 -2.09297e-18 1
126 15.874 3.9685 0.793701 -6.2039e-17 -4.97442e-17 -1.10562e-18 1
163 14.2866 4.89009 -3.0286e-16 -2.85629e-09 0.00209117 3.05295e-18 1
165 15.0803 4.82695 0.793701 -1.54889e-09 0.00105862 8.01467e-18 1
167 15.874 4.7622 5.26467e-17 -4.13924e-17 -6.27775e-17 1.9906e-18 1
542 15.0803 4.03325 1.5874 -1.54889e-09 0.00105862 -6.21298e-18 1
583 14.2866 4.89009 1.5874 -2.85629e-09 0.00209117 9.66471e-19 1
587 15.874 4.7622 1.5874 -5.37516e-17 -4.65072e-17 3.70633e-18 1
128 0.793703 5.62065 -1.2749e-16 1.54889e-09 0.00105862 3.03608e-17 1
130 -2.01283e-16 5.5559 0.793701 1.28777e-16 -1.17272e-16 4.84162e-17 1
134 1.58741 5.68379 0.793701 2.85629e-09 0.00209117 3.24435e-17 1
169 -1.76603e-16 6.3496 1.64119e-16 1.27743e-16 -1.22999e-16 3.67728e-17 1
171 0.793703 6.41435 0.793701 1.54889e-09 0.00105862 4.12159e-17 1
173 1.58741 6.47749 -2.30983e-16 2.85629e-09 0.00209117 4.96802e-17 1
548 0.793703 5.62065 1.5874 1.54889e-09 0.00105862 3.47294e-17 1
589 -2.11171e-16 6.3496 1.5874 1.06044e-16 -1.20337e-16 5.1582e-17 1
593 1.58741 6.47749 1.5874 2.85629e-09 0.00209117 3.70505e-17 1
132 2.38112 5.74377 -4.18201e-16 3.6441e-09 0.00307225 3.5312e-17 1
138 3.17482 5.79912 0.793701 3.91702e-09 0.00397767 2.56376e-17 1
175 2.38112 6.53747 0.793701 3.6441e-09 0.00307225 5.35092e-17 1
177 3.17482 6.59282 -4.88761e-16 3.91702e-09 0.00397767 4.1364e-17 1
552 2.38112 5.74377 1.5874 3.6441e-09 0.00307225 3.19895e-17 1
597 3.17482 6.59282 1.5874 3.91702e-09 0.00397767 3.10299e-17 1
136 3.96853 5.84847 -5.29839e-16 3.69605e-09 0.00478516 1.73799e-17 1
142 4.76223 5.89061 0.793701 2.19336e-09 0.00547481 1.49676e-17 1
179 3.96853 6.64217 0.793701 3.69605e-09 0.00478516 3.62604e-17 1
181 4.76223 6.68431 -5.28769e-16 2.19336e-09 0.00547481 2.13238e-17 1
556 3.96853 5.84847 1.5874 3.69605e-09 0.00478516 7.62265e-18 1
601 4.76223 6.68431 1.5874 2.19336e-09 0.00547481 2.10754e-17 1
146 6.34963 5.94934 0.793701 2.95536e-09 0.00643602 4.50275e-17 1
183 5.55593 6.71821 0.793701 -8.46553e-10 0.00602965 3.70162e-17 1
560 5.55593 5.92451 1.5874 -8.46553e-10 0.00602965 9.33251e-18 1
605 6.34963 6.74304 1.5874 2.95536e-09 0.00643602 3.64639e-17 1
150 7.93701 5.96958 0.793701 -1.07102e-16 0.00676724 4.56285e-17 1
187 7.14332 6.75819 0.793701 2.7423e-08 0.00668392 5.99843e-17 1
191 8.73069 6.75819 0.793701 -2.7423e-08 0.00668392 3.45717e-17 1
564 7.14332 5.96449 1.5874 2.7423e-08 0.00668392 1.98123e-17 1
568 8.73069 5.96449 1.5874 -2.7423e-08 0.00668392 2.14755e-17 1
609 7.93701 6.76328 1.5874 -8.62626e-17 0.00676724 3.44941e-17 1
154 9.52438 5.94934 0.793701 -2.95536e-09 0.00643602 8.96198e-18 1
195 10.3181 6.71821 0.793701 8.46553e-10 0.00602965 3.61499e-18 1
572 10.3181 5.92451 1.5874 8.46553e-10 0.00602965 1.14501e-17 1
613 9.52438 6.74304 1.5874 -2.95536e-09 0.00643602 3.60385e-17 1
156 11.9055 5.84847 -6.70015e-16 -3.69605e-09 0.00478516 -1.90822e-17 1
158 11.1118 5.89061 0.793701 -2.19336e-09 0.00547481 -4.82089e-18 1
199 11.9055 6.64217 0.793701 -3.69605e-09 0.00478516 -2.88492e-17 1
576 11.9055 5.84847 1.5874 -3.69605e-09 0.00478516 -2.85541e-18 1
617 11.1118 6.68431 1.5874 -2.19336e-09 0.00547481 6.71144e-18 1
160 13.4929 5.74377 -4.5163e-16 -3.6441e-09 0.00307225 -4.4434e-18 1
162 12.6992 5.79912 0.793701 -3.91702e-09 0.00397767 -1.36434e-17 1
201 12.6992 6.59282 -6.37382e-16 -3.91702e-09 0.00397767 -2.80037e-17 1
203 13.4929 6.53747 0.793701 -3.6441e-09 0.00307225 -5.93991e-18 1
580 13.4929 5.74377 1.5874 -3.6441e-09 0.00307225 1.85881e-18 1
621 12.6992 6.59282 1.5874 -3.91702e-09 0.00397767 -2.29584e-19 1
164 15.0803 5.62065 -2.14051e-16 -1.54889e-09 0.00105862 4.32358e-18 1
166 14.2866 5.68379 0.793701 -2.85629e-09 0.00209117 5.84178e-18 1
168 15.874 5.5559 0.793701 -3.49346e-17 -6.36001e-17 1.17115e-17 1
205 14.2866 6.47749 -3.40511e-16 -2.85629e-09 0.00209117 -6.54611e-19 1
207 15.0803 6.41435 0.793701 -1.54889e-09 0.00105862 1.34635e-17 1
209 15.874 6.3496 8.86213e-17 -2.71428e-17 -7.20394e-17 5.59771e-18 1
584 15.0803 5.62065 1.5874 -1.54889e-09 0.00105862 1.85671e-17 1
625 14.2866 6.47749 1.5874 -2.85629e-09 0.00209117 1.78564e-17 1
629 15.874 6.3496 1.5874 -2.57164e-17 -6.28117e-17 2.7459e-17 1
170 0.793703 7.20805 -5.31994e-17 1.54889e-09 0.00105862 4.11668e-17 1
172 -2.43969e-16 7.1433 0.793701 1.03707e-16 -1.22292e-16 5.40488e-17 1
176 1.58741 7.27119 0.793701 2.85629e-09 0.00209117 5.04436e-17 1
211 -2.55704e-16 7.93701 2.02605e-16 9.77381e-17 -1.30593e-16 4.98657e-17 1
212 0.793703 8.79545 -8.73388e-17 1.54889e-09 0.00105862 3.1777e-17 1
213 0.793703 8.00175 0.793701 1.54889e-09 0.00105862 4.07108e-17 1
214 -3.66289e-16 8.73071 0.793701 6.52791e-17 -1.33258e-16 5.20389e-17 1
215 1.58741 8.06489 -2.3333e-16 2.85629e-09 0.00209117 3.46761e-17 1
590 0.793703 7.20805 1.5874 1.54889e-09 0.00105862 4.0526e-17 1
631 -3.1807e-16 7.93701 1.5874 7.51711e-17 -1.34242e-16 3.75844e-17 1
632 0.793703 8.79545 1.5874 1.54889e-09 0.00105862 2.46691e-17 1
635 1.58741 8.06489 1.5874 2.85629e-09 0.00209117 4.02834e-17 1
174 2.38112 7.33117 -3.73238e-16 3.6441e-09 0.00307225 5.43871e-17 1
180 3.17482 7.38652 0.793701 3.91702e-09 0.00397767 6.13391e-17 1
217 2.38112 8.12487 0.793701 3.6441e-09 0.00307225 4.61671e-17 1
219 3.17482 8.18022 -4.53589e-16 3.91702e-09 0.00397767 2.7938e-17 1
594 2.38112 7.33117 1.5874 3.6441e-09 0.00307225 4.84178e-17 1
639 3.17482 8.18022 1.5874 3.91702e-09 0.00397767 5.24835e-17 1
178 3.96853 7.43587 -5.12831e-16 3.69605e-09 0.00478516 3.08473e-17 1
184 4.76223 7.47801 0.793701 2.19336e-09 0.00547481 5.34365e-17 1
221 3.96853 8.22957 0.793701 3.69605e-09 0.00478516 6.10108e-17 1
598 3.96853 7.43587 1.5874 3.69605e-09 0.00478516 4.89734e-17 1
643 4.76223 8.27171 1.5874 2.19336e-09 0.00547481 5.53608e-17 1
188 6.34963 7.53674 0.793701 2.95536e-09 0.00643602 4.35925e-17 1
225 5.55593 8.30561 0.793701 -8.46553e-10 0.00602965 4.4753e-17 1
602 5.55593 7.51191 1.5874 -8.46553e-10 0.00602965 4.3678e-17 1
647 6.34963 8.33044 1.5874 2.95536e-09 0.00643602 5.07587e-17 1
192 7.93701 7.55698 0.793701 -6.70948e-17 0.00676724 3.66779e-17 1
229 7.14332 8.34559 0.793701 2.7423e-08 0.00668392 2.19941e-17 1
233 8.73069 8.34559 0.793701 -2.7423e-08 0.00668392 1.25022e-17 1
606 7.14332 7.55189 1.5874 2.7423e-08 0.00668392 4.16118e-17 1
610 8.73069 7.55189 1.5874 -2.7423e-08 0.00668392 4.31656e-17 1
651 7.93701 8.35068 1.5874 -6.9303e-17 0.00676724 3.2244e-17 1
196 9.52438 7.53674 0.793701 -2.95536e-09 0.00643602 1.90989e-17 1
237 10.3181 8.30561 0.793701 8.46553e-10 0.00602965 3.14837e-18 1
614 10.3181 7.51191 1.5874 8.46553e-10 0.00602965 3.67815e-17 1
655 9.52438 8.33044 1.5874 -2.95536e-09 0.00643602 4.53959e-17 1
198 11.9055 7.43587 -8.13684e-16 -3.69605e-09 0.00478516 -4.59246e-17 1
200 11.1118 7.47801 0.793701 -2.19336e-09 0.00547481 -1.91086e-17 1
241 11.9055 8.22957 0.793701 -3.69605e-09 0.00478516 -3.7857e-17 1
618 11.9055 7.43587 1.5874 -3.69605e-09 0.00478516 -4.34165e-18 1
659 11.1118 8.27171 1.5874 -2.19336e-09 0.00547481 7.9766e-18 1
202 13.4929 7.33117 -4.72998e-16 -3.6441e-09 0.00307225 -1.72728e-17 1
204 12.6992 7.38652 0.793701 -3.91702e-09 0.00397767 -2.95678e-17 1
243 12.6992 8.18022 -6.03805e-16 -3.91702e-09 0.00397767 -3.48139e-17 1
245 13.4929 8.12487 0.793701 -3.6441e-09 0.00307225 -1.25439e-17 1
622 13.4929 7.33117 1.5874 -3.6441e-09 0.00307225 8.8624e-18 1
663 12.6992 8.18022 1.5874 -3.91702e-09 0.00397767 -4.49371e-18 1
206 15.0803 7.20805 -2.24545e-16 -1.54889e-09 0.00105862 4.79575e-18 1
208 14.2866 7.27119 0.793701 -2.85629e-09 0.00209117 3.16145e-18 1
210 15.874 7.1433 0.793701 -2.31707e-17 -7.49272e-17 2.15275e-17 1
247 14.2866 8.06489 -3.63893e-16 -2.85629e-09 0.00209117 -1.3424e-18 1
248 15.0803 8.79545 -1.85037e-16 -1.54889e-09 0.00105862 1.36892e-17 1
249 15.0803 8.00175 0.793701 -1.54889e-09 0.00105862 1.72819e-17 1
251 15.874 7.93701 6.7818e-17 -2.88131e-17 -8.36125e-17 1.26655e-17 1
252 15.874 8.73071 0.793701 -2.43348e-17 -7.7768e-17 3.3406e-17 1
626 15.0803 7.20805 1.5874 -1.54889e-09 0.00105862 2.72284e-17 1
667 14.2866 8.06489 1.5874 -2.85629e-09 0.00209117 1.71554e-17 1
668 15.0803 8.79545 1.5874 -1.54889e-09 0.00105862 3.13787e-17 1
671 15.874 7.93701 1.5874 -1.4236e-17 -7.23164e-17 3.72132e-17 1
218 1.58741 8.85859 0.793701 2.85629e-09 0.00209117 2.29045e-17 1
253 -3.37162e-16 9.52441 1.04519e-16 6.78359e-17 -1.16526e-16 4.59379e-17 1
254 0.793703 10.3829 -1.52312e-16 1.54889e-09 0.00105862 2.13745e-17 1
255 0.793703 9.58915 0.793701 1.54889e-09 0.00105862 2.2581e-17 1
256 -4.09989e-16 10.3181 0.793701 3.80813e-17 -1.27123e-16 2.89896e-17 1
257 1.58741 9.65229 -3.17677e-16 2.85629e-09 0.00209117 1.24471e-17 1
260 1.58741 10.446 0.793701 2.85629e-09 0.00209117 9.83927e-18 1
673 -4.00227e-16 9.52441 1.5874 4.04471e-17 -1.40765e-16 2.20946e-17 1
674 0.793703 10.3829 1.5874 1.54889e-09 0.00105862 9.69726e-18 1
677 1.58741 9.65229 1.5874 2.85629e-09 0.00209117 1.27217e-17 1
216 2.38112 8.91857 -3.79485e-16 3.6441e-09 0.00307225 1.43425e-17 1
222 3.17482 8.97392 0.793701 3.91702e-09 0.00397767 3.03439e-17 1
636 2.38112 8.91857 1.5874 3.6441e-09 0.00307225 3.01577e-17 1
258 2.38112 10.506 -4.82565e-16 3.6441e-09 0.00307225 7.84423e-18 1
259 2.38112 9.71227 0.793701 3.6441e-09 0.00307225 1.51886e-17 1
261 3.17482 9.76762 -5.39659e-16 3.91702e-09 0.00397767 7.17038e-18 1
264 3.17482 10.5613 0.793701 3.91702e-09 0.00397767 1.83499e-17 1
678 2.38112 10.506 1.5874 3.6441e-09 0.00307225 1.42728e-17 1
681 3.17482 9.76762 1.5874 3.91702e-09 0.00397767 2.45371e-17 1
220 3.96853 9.02327 -5.12889e-16 3.69605e-09 0.00478516 1.14284e-17 1
226 4.76223 9.06541 0.793701 2.19336e-09 0.00547481 3.75523e-17 1
640 3.96853 9.02327 1.5874 3.69605e-09 0.00478516 4.29012e-17 1
262 3.96853 10.6107 -6.40223e-16 3.69605e-09 0.00478516 6.80106e-18 1
263 3.96853 9.81697 0.793701 3.69605e-09 0.00478516 2.43535e-17 1
268 4.76223 10.6528 0.793701 2.19336e-09 0.00547481 2.20797e-17 1
682 3.96853 10.6107 1.5874 3.69605e-09 0.00478516 2.75341e-17 1
685 4.76223 9.85911 1.5874 2.19336e-09 0.00547481 3.53083e-17 1
230 6.34963 9.12414 0.793701 2.95536e-09 0.00643602 2.24881e-17 1
644 5.55593 9.09932 1.5874 -8.46553e-10 0.00602965 4.60246e-17 1
267 5.55593 9.89302 0.793701 -8.46552e-10 0.00602965 2.14063e-17 1
689 6.34963 9.91784 1.5874 2.95536e-09 0.00643602 4.01437e-17 1
234 7.93701 9.14438 0.793701 -6.71211e-17 0.00676724 4.66723e-18 1
648 7.14332 9.13929 1.5874 2.7423e-08 0.00668392 3.38571e-17 1
652 8.73069 9.13929 1.5874 -2.7423e-08 0.00668392 2.91733e-17 1
271 7.14332 9.93299 0.793701 2.7423e-08 0.00668392 5.57318e-18 1
275 8.73069 9.93299 0.793701 -2.7423e-08 0.00668392 -2.38996e-17 1
693 7.93701 9.93808 1.5874 -7.76023e-17 0.00676724 2.01697e-17 1
238 9.52438 9.12414 0.793701 -2.95536e-09 0.00643602 -5.43718e-19 1
656 10.3181 9.09932 1.5874 8.46553e-10 0.00602965 1.81665e-17 1
279 10.3181 9.89302 0.793701 8.46553e-10 0.00602965 -1.89004e-17 1
697 9.52438 9.91784 1.5874 -2.95536e-09 0.00643602 8.20146e-18 1
240 11.9055 9.02327 -6.10582e-16 -3.69605e-09 0.00478516 -2.54358e-17 1
242 11.1118 9.06541 0.793701 -2.19336e-09 0.00547481 -1.52674e-17 1
660 11.9055 9.02327 1.5874 -3.69605e-09 0.00478516 -1.27419e-17 1
282 11.9055 10.6107 -3.78385e-16 -3.69605e-09 0.00478516 1.25527e-17 1
283 11.9055 9.81697 0.793701 -3.69605e-09 0.00478516 -1.18985e-17 1
284 11.1118 10.6528 0.793701 -2.19336e-09 0.00547481 -9.62252e-18 1
701 11.1118 9.85911 1.5874 -2.19336e-09 0.00547481 -3.02281e-18 1
702 11.9055 10.6107 1.5874 -3.69605e-09 0.00478516 -3.45812e-18 1
244 13.4929 8.91857 -4.35656e-16 -3.6441e-09 0.00307225 -6.88113e-18 1
246 12.6992 8.97392 0.793701 -3.91702e-09 0.00397767 -2.34905e-17 1
664 13.4929 8.91857 1.5874 -3.6441e-09 0.00307225 4.1197e-18 1
285 12.6992 9.76762 -4.40269e-16 -3.91702e-09 0.00397767 7.5906e-19 1
286 13.4929 10.506 -2.70555e-16 -3.6441e-09 0.00307225 2.24897e-17 1
287 13.4929 9.71227 0.793701 -3.6441e-09 0.00307225 6.20623e-18 1
288 12.6992 10.5613 0.793701 -3.91702e-09 0.00397767 1.21141e-17 1
705 12.6992 9.76762 1.5874 -3.91702e-09 0.00397767 -7.82191e-18 1
706 13.4929 10.506 1.5874 -3.6441e-09 0.00307225 1.34535e-17 1
250 14.2866 8.85859 0.793701 -2.85629e-09 0.00209117 1.01051e-17 1
289 14.2866 9.65229 -2.36484e-16 -2.85629e-09 0.00209117 1.60964e-17 1
290 15.0803 10.3829 -7.26207e-17 -1.54889e-09 0.00105862 2.44002e-17 1
291 15.0803 9.58915 0.793701 -1.54889e-09 0.00105862 3.08796e-17 1
292 14.2866 10.446 0.793701 -2.85629e-09 0.00209117 2.81545e-17 1
293 15.874 9.52441 1.04202e-17 -2.84664e-17 -7.18651e-17 1.99939e-17 1
294 15.874 10.3181 0.793701 -2.9919e-17 -5.30869e-17 3.79951e-17 1
709 14.2866 9.65229 1.5874 -2.85629e-09 0.00209117 2.15996e-17 1
710 15.0803 10.3829 1.5874 -1.54889e-09 0.00105862 3.84366e-17 1
713 15.874 9.52441 1.5874 -2.10655e-17 -6.80128e-17 4.66093e-17 1
295 -3.51994e-16 11.1118 -4.34357e-17 2.99814e-17 -1.17463e-16 2.38062e-17 1
296 0.793703 11.9703 -2.72206e-16 1.54889e-09 0.00105862 2.69636e-17 1
297 0.793703 11.1766 0.793701 1.54889e-09 0.00105862 1.39099e-17 1
298 -2.77663e-16 11.9055 0.793701 2.43318e-17 -1.12727e-16 1.68608e-17 1
299 1.58741 11.2397 -3.68451e-16 2.85629e-09 0.00209117 1.53505e-17 1
302 1.58741 12.0334 0.793701 2.85629e-09 0.00209117 1.00332e-17 1
715 -3.28571e-16 11.1118 1.5874 2.49748e-17 -1.25554e-16 1.56368e-17 1
716 0.793703 11.9703 1.5874 1.54889e-09 0.00105862 8.69546e-18 1
719 1.58741 11.2397 1.5874 2.85629e-09 0.00209117 7.21748e-18 1
300 2.38112 12.0934 -5.51066e-16 3.6441e-09 0.00307225 1.05506e-17 1
301 2.38112 11.2997 0.793701 3.6441e-09 0.00307225 1.23868e-17 1
303 3.17482 11.355 -6.47351e-16 3.91702e-09 0.00397767 7.41603e-18 1
306 3.17482 12.1487 0.793701 3.91702e-09 0.00397767 7.53165e-18 1
720 2.38112 12.0934 1.5874 3.6441e-09 0.00307225 4.52723e-18 1
723 3.17482 11.355 1.5874 3.91702e-09 0.00397767 1.41587e-17 1
304 3.96853 12.1981 -7.56122e-16 3.69605e-09 0.00478516 9.47004e-18 1
305 3.96853 11.4044 0.793701 3.69605e-09 0.00478516 1.74356e-17 1
310 4.76223 12.2402 0.793701 2.19336e-09 0.00547481 1.39441e-17 1
724 3.96853 12.1981 1.5874 3.69605e-09 0.00478516 -4.36659e-18 1
727 4.76223 11.4465 1.5874 2.19336e-09 0.00547481 2.10712e-17 1
272 6.34963 10.7115 0.793701 2.95536e-09 0.00643602 1.09584e-17 1
686 5.55593 10.6867 1.5874 -8.46552e-10 0.00602965 3.48152e-17 1
309 5.55593 11.4804 0.793701 -8.46552e-10 0.00602965 1.70614e-17 1
314 6.34963 12.2989 0.793701 2.95536e-09 0.00643602 8.30453e-18 1
728 5.55593 12.2741 1.5874 -8.46552e-10 0.00602965 1.09272e-17 1
731 6.34963 11.5052 1.5874 2.95536e-09 0.00643602 1.61745e-17 1
276 7.93701 10.7318 0.793701 -5.9204e-17 0.00676724 -2.43522e-17 1
690 7.14332 10.7267 1.5874 2.7423e-08 0.00668392 1.58901e-17 1
694 8.73069 10.7267 1.5874 -2.7423e-08 0.00668392 -1.2486e-17 1
313 7.14332 11.5204 0.793701 2.7423e-08 0.00668392 -4.14374e-18 1
317 8.73069 11.5204 0.793701 -2.7423e-08 0.00668392 -5.57923e-17 1
318 7.93701 12.3192 0.793701 -6.2365e-17 0.00676724 -1.66615e-17 1
732 7.14332 12.3141 1.5874 2.7423e-08 0.00668392 -3.43695e-19 1
735 7.93701 11.5255 1.5874 -8.0327e-17 0.00676724 -9.54953e-18 1
736 8.73069 12.3141 1.5874 -2.7423e-08 0.00668392 -2.49206e-17 1
280 9.52438 10.7115 0.793701 -2.95536e-09 0.00643602 -5.89972e-17 1
698 10.3181 10.6867 1.5874 8.46553e-10 0.00602965 -1.74987e-17 1
321 10.3181 11.4804 0.793701 8.46553e-10 0.00602965 -4.7606e-17 1
322 9.52438 12.2989 0.793701 -2.95536e-09 0.00643602 -5.01007e-17 1
739 9.52438 11.5052 1.5874 -2.95536e-09 0.00643602 -4.19047e-17 1
740 10.3181 12.2741 1.5874 8.46553e-10 0.00602965 -1.99732e-17 1
324 11.9055 12.1981 -2.78264e-16 -3.69605e-09 0.00478516 1.51294e-17 1
325 11.9055 11.4044 0.793701 -3.69605e-09 0.00478516 1.48685e-17 1
326 11.1118 12.2402 0.793701 -2.19336e-09 0.00547481 -1.01905e-17 1
743 11.1118 11.4465 1.5874 -2.19336e-09 0.00547481 -2.55163e-18 1
744 11.9055 12.1981 1.5874 -3.69605e-09 0.00478516 5.17516e-18 1
327 12.6992 11.355 -2.66133e-16 -3.91702e-09 0.00397767 2.57916e-17 1
328 13.4929 12.0934 -2.2249e-16 -3.6441e-09 0.00307225 3.01223e-17 1
329 13.4929 11.2997 0.793701 -3.6441e-09 0.00307225 2.80411e-17 1
330 12.6992 12.1487 0.793701 -3.91702e-09 0.00397767 2.35153e-17 1
747 12.6992 11.355 1.5874 -3.91702e-09 0.00397767 6.35151e-18 1
748 13.4929 12.0934 1.5874 -3.6441e-09 0.00307225 1.81952e-17 1
331 14.2866 11.2397 -1.1734e-16 -2.85629e-09 0.00209117 2.95016e-17 1
332 15.0803 11.9703 4.5302e-17 -1.54889e-09 0.00105862 2.84322e-17 1
333 15.0803 11.1766 0.793701 -1.54889e-09 0.00105862 3.64299e-17 1
334 14.2866 12.0334 0.793701 -2.85629e-09 0.00209117 3.36905e-17 1
335 15.874 11.1118 9.52913e-17 -3.01425e-17 -3.47866e-17 2.32737e-17 1
336 15.874 11.9055 0.793701 -3.17033e-17 -1.40807e-17 4.08531e-17 1
751 14.2866 11.2397 1.5874 -2.85629e-09 0.00209117 3.04004e-17 1
752 15.0803 11.9703 1.5874 -1.54889e-09 0.00105862 4.05723e-17 1
755 15.874 11.1118 1.5874 -2.34645e-17 -3.26422e-17 5.08868e-17 1
337 -3.74579e-16 12.6992 -7.37075e-17 1.94935e-17 -9.11214e-17 2.22255e-17 1
338 0.793703 13.5577 -2.58858e-16 1.54889e-09 0.00105862 2.88872e-17 1
339 0.793703 12.764 0.793701 1.54889e-09 0.00105862 1.16927e-17 1
340 -3.13285e-16 13.4929 0.793701 3.00474e-17 -7.04216e-17 1.0635e-17 1
341 1.58741 12.8271 -4.27463e-16 2.85629e-09 0.00209117 2.13153e-17 1
344 1.58741 13.6208 0.793701 2.85629e-09 0.00209117 6.66608e-18 1
757 -2.35002e-16 12.6992 1.5874 2.37385e-17 -9.80545e-17 1.19289e-17 1
758 0.793703 13.5577 1.5874 1.54889e-09 0.00105862 1.02548e-18 1
761 1.58741 12.8271 1.5874 2.85629e-09 0.00209117 6.72194e-20 1
342 2.38112 13.6808 -5.20649e-16 3.6441e-09 0.00307225 1.67928e-17 1
343 2.38112 12.8871 0.793701 3.6441e-09 0.00307225 4.12914e-18 1
345 3.17482 12.9424 -6.87668e-16 3.91702e-09 0.00397767 1.28818e-17 1
348 3.17482 13.7361 0.793701 3.91702e-09 0.00397767 1.19385e-18 1