ITEM: TIMESTEP
20000
ITEM: NUMBER OF ATOMS
8000
ITEM: BOX BOUNDS pp pp pp
0.0000000000000000e+00 3.1748021039364001e+01
0.0000000000000000e+00 1.5874010519682001e+01
0.0000000000000000e+00 1.5874010519682001e+01
ITEM: ATOMS id x y z vx vy vz c_rho_peratom
2 0.793711 0.902255 -1.56496e-16 6.94467e-10 0.000716379 -1.45263e-16 1
3 0.793711 0.108554 0.793701 6.94467e-10 0.000716379 -1.56268e-16 1
4 -3.63705e-16 0.793701 0.793701 -8.41984e-17 5.73306e-19 -1.46401e-16 1
5 1.58744 0.214401 -4.45644e-16 1.19949e-09 0.00141515 -1.50302e-16 1
8 1.58744 1.0081 0.793701 1.19949e-09 0.00141515 -1.54006e-16 1
43 -4.24939e-16 1.5874 9.93305e-17 -5.76188e-17 -1.75077e-17 -1.24096e-16 1
45 0.793711 1.69596 0.793701 6.94467e-10 0.000716379 -1.55994e-16 1
422 0.793711 0.902255 1.5874 6.94467e-10 0.000716379 -1.48855e-16 1
425 1.58744 0.214401 1.5874 1.19949e-09 0.00141515 -1.19169e-16 1
463 -5.85414e-16 1.5874 1.5874 -9.27588e-17 -1.32959e-17 -1.47435e-16 1
6 2.38117 1.10864 -5.06576e-16 9.31457e-10 0.00207908 -8.28707e-17 1
7 2.38117 0.314938 0.793701 9.31457e-10 0.00207908 -1.21002e-16 1
9 3.17491 0.407695 -5.86944e-16 -7.36834e-11 0.00269183 -7.10582e-17 1
12 3.17491 1.2014 0.793701 -7.36834e-11 0.00269183 -6.01467e-17 1
426 2.38117 1.10864 1.5874 9.31457e-10 0.00207908 -9.74092e-17 1
429 3.17491 0.407695 1.5874 -7.36834e-11 0.00269183 -5.2536e-17 1
10 3.96863 1.2841 -5.98348e-16 -1.48323e-09 0.00323828 -4.94417e-17 1
11 3.96863 0.490397 0.793701 -1.48323e-09 0.00323828 -3.93302e-17 1
16 4.76234 1.35471 0.793701 -3.43447e-09 0.00370498 -1.69803e-17 1
430 3.96863 1.2841 1.5874 -1.48323e-09 0.00323828 -7.67541e-18 1
433 4.76234 0.561014 1.5874 -3.43447e-09 0.00370498 4.81851e-18 1
15 5.55603 0.617817 0.793701 -5.67947e-09 0.00408043 -2.54641e-17 1
20 6.3497 1.45311 0.793701 -2.29675e-09 0.0043554 -1.62571e-17 1
434 5.55603 1.41152 1.5874 -5.67947e-09 0.00408043 1.75924e-17 1
437 6.3497 0.659414 1.5874 -2.29675e-09 0.0043554 1.73212e-17 1
19 7.14336 0.684787 0.793701 1.61974e-08 0.00452314 -2.0127e-17 1
23 8.73065 0.684787 0.793701 -1.61974e-08 0.00452314 3.99813e-18 1
24 7.93701 1.48701 0.793701 1.1217e-16 0.00457952 -1.28371e-18 1
438 7.14336 1.47849 1.5874 1.61974e-08 0.00452314 3.43244e-17 1
441 7.93701 0.693314 1.5874 1.19157e-16 0.00457952 3.26859e-17 1
442 8.73065 1.47849 1.5874 -1.61974e-08 0.00452314 4.12135e-17 1
27 10.318 0.617817 0.793701 5.67947e-09 0.00408043 5.2906e-18 1
28 9.52431 1.45311 0.793701 2.29675e-09 0.0043554 -3.41757e-18 1
445 9.52431 0.659414 1.5874 2.29675e-09 0.0043554 2.67739e-17 1
446 10.318 1.41152 1.5874 5.67947e-09 0.00408043 2.1031e-17 1
30 11.9054 1.2841 -3.19456e-16 1.48323e-09 0.00323828 -2.73814e-18 1
31 11.9054 0.490397 0.793701 1.48323e-09 0.00323828 2.61497e-19 1
32 11.1117 1.35471 0.793701 3.43447e-09 0.00370498 6.45364e-18 1
449 11.1117 0.561014 1.5874 3.43447e-09 0.00370498 1.32842e-17 1
450 11.9054 1.2841 1.5874 1.48323e-09 0.00323828 1.16054e-17 1
33 12.6991 0.407695 -3.2829e-16 7.36835e-11 0.00269183 -8.97264e-18 1
34 13.4928 1.10864 -3.21045e-16 -9.31457e-10 0.00207908 -2.2704e-17 1
35 13.4928 0.314938 0.793701 -9.31457e-10 0.00207908 -2.16743e-17 1
36 12.6991 1.2014 0.793701 7.36835e-11 0.00269183 -5.93187e-19 1
453 12.6991 0.407695 1.5874 7.36835e-11 0.00269183 4.46465e-18 1
454 13.4928 1.10864 1.5874 -9.31457e-10 0.00207908 4.12366e-18 1
37 14.2866 0.214401 -2.79191e-16 -1.19949e-09 0.00141515 -3.66052e-17 1
38 15.0803 0.902255 -9.34764e-17 -6.94467e-10 0.000716379 -7.37408e-17 1
39 15.0803 0.108554 0.793701 -6.94467e-10 0.000716379 -5.10625e-17 1
40 14.2866 1.0081 0.793701 -1.19949e-09 0.00141515 -5.7791e-17 1
41 15.874 4.44816e-17 1.16571e-16 2.11277e-18 -4.61757e-17 -3.45019e-17 1
42 15.874 0.793701 0.793701 5.26739e-17 -5.80243e-17 -3.73662e-17 1
81 15.0803 1.69596 0.793701 -6.94467e-10 0.000716379 -6.58974e-17 1
83 15.874 1.5874 9.04698e-17 2.41414e-17 -9.75026e-18 -6.63959e-17 1
457 14.2866 0.214401 1.5874 -1.19949e-09 0.00141515 4.83846e-18 1
458 15.0803 0.902255 1.5874 -6.94467e-10 0.000716379 1.07418e-17 1
461 15.874 2.08054e-16 1.5874 3.78344e-17 -6.30733e-17 2.00851e-18 1
503 15.874 1.5874 1.5874 1.06492e-16 -1.15954e-17 2.8128e-17 1
47 1.58744 1.8018 -2.96522e-16 1.19949e-09 0.00141515 -9.84713e-17 1
467 1.58744 1.8018 1.5874 1.19949e-09 0.00141515 -1.49072e-16 1
44 0.793711 2.48966 -1.75398e-16 6.94467e-10 0.000716379 -1.07185e-16 1
46 -5.58624e-16 2.3811 0.793701 -6.58422e-17 -4.81221e-17 -1.4658e-16 1
50 1.58744 2.5955 0.793701 1.19949e-09 0.00141515 -1.19969e-16 1
85 -6.10152e-16 3.1748 5.06351e-17 -6.15523e-17 -9.56035e-17 -1.09439e-16 1
87 0.793711 3.28336 0.793701 6.94467e-10 0.000716379 -1.26073e-16 1
89 1.58744 3.3892 -4.15797e-16 1.19949e-09 0.00141515 -8.42649e-17 1
464 0.793711 2.48966 1.5874 6.94467e-10 0.000716379 -1.50358e-16 1
505 -5.75878e-16 3.1748 1.5874 -6.44006e-17 -7.89478e-17 -1.27613e-16 1
509 1.58744 3.3892 1.5874 1.19949e-09 0.00141515 -8.99303e-17 1
49 2.38117 1.90234 0.793701 9.31457e-10 0.00207908 -9.63607e-17 1
51 3.17491 1.9951 -5.41211e-16 -7.36835e-11 0.00269183 -5.25625e-17 1
471 3.17491 1.9951 1.5874 -7.36834e-11 0.00269183 -3.174e-17 1
48 2.38117 2.69604 -4.91906e-16 9.31457e-10 0.00207908 -6.88197e-17 1
54 3.17491 2.7888 0.793701 -7.36834e-11 0.00269183 -4.80573e-17 1
91 2.38117 3.48974 0.793701 9.31457e-10 0.00207908 -6.60932e-17 1
468 2.38117 2.69604 1.5874 9.31457e-10 0.00207908 -7.70269e-17 1
53 3.96863 2.0778 0.793701 -1.48323e-09 0.00323828 -2.19227e-17 1
475 4.76234 2.14842 1.5874 -3.43447e-09 0.00370498 1.66921e-17 1
52 3.96863 2.8715 -4.939e-16 -1.48323e-09 0.00323828 -3.58378e-17 1
58 4.76234 2.94212 0.793701 -3.43447e-09 0.00370498 -7.78569e-18 1
472 3.96863 2.8715 1.5874 -1.48323e-09 0.00323828 4.71041e-18 1
57 5.55603 2.20522 0.793701 -5.67947e-09 0.00408043 -8.44379e-18 1
479 6.3497 2.24682 1.5874 -2.29675e-09 0.0043554 3.25714e-17 1
62 6.3497 3.04052 0.793701 -2.29675e-09 0.0043554 -2.63447e-18 1
476 5.55603 2.99892 1.5874 -5.67947e-09 0.00408043 2.82568e-17 1
61 7.14336 2.27219 0.793701 1.61974e-08 0.00452314 -6.40556e-18 1
65 8.73065 2.27219 0.793701 -1.61974e-08 0.00452314 3.00271e-18 1
483 7.93701 2.28071 1.5874 1.16949e-16 0.00457952 4.7823e-17 1
66 7.93701 3.07442 0.793701 9.00217e-17 0.00457952 3.35644e-18 1
480 7.14336 3.06589 1.5874 1.61974e-08 0.00452314 3.18633e-17 1
484 8.73065 3.06589 1.5874 -1.61974e-08 0.00452314 5.01911e-17 1
69 10.318 2.20522 0.793701 5.67947e-09 0.00408043 -1.74561e-18 1
487 9.52431 2.24682 1.5874 2.29675e-09 0.0043554 3.19966e-17 1
70 9.52431 3.04052 0.793701 2.29675e-09 0.0043554 -1.01588e-17 1
488 10.318 2.99892 1.5874 5.67947e-09 0.00408043 2.68035e-17 1
73 11.9054 2.0778 0.793701 1.48323e-09 0.00323828 6.7971e-18 1
491 11.1117 2.14842 1.5874 3.43447e-09 0.00370498 1.88728e-17 1
72 11.9054 2.8715 -5.59635e-16 1.48323e-09 0.00323828 -1.66367e-17 1
74 11.1117 2.94212 0.793701 3.43447e-09 0.00370498 6.54939e-18 1
492 11.9054 2.8715 1.5874 1.48323e-09 0.00323828 2.15237e-17 1
77 13.4928 1.90234 0.793701 -9.31457e-10 0.00207908 -1.76654e-17 1
75 12.6991 1.9951 -3.6908e-16 7.36835e-11 0.00269183 -2.65291e-18 1
495 12.6991 1.9951 1.5874 7.36834e-11 0.00269183 1.2595e-17 1
76 13.4928 2.69604 -3.78475e-16 -9.31457e-10 0.00207908 -1.54397e-17 1
78 12.6991 2.7888 0.793701 7.36835e-11 0.00269183 7.61188e-18 1
119 13.4928 3.48974 0.793701 -9.31457e-10 0.00207908 -2.83142e-18 1
496 13.4928 2.69604 1.5874 -9.31457e-10 0.00207908 1.24213e-17 1
79 14.2866 1.8018 -2.65486e-16 -1.19949e-09 0.00141515 -6.17143e-17 1
499 14.2866 1.8018 1.5874 -1.19949e-09 0.00141515 1.63242e-18 1
80 15.0803 2.48966 -4.62757e-17 -6.94467e-10 0.000716379 -7.205e-17 1
82 14.2866 2.5955 0.793701 -1.19949e-09 0.00141515 -5.10999e-17 1
84 15.874 2.3811 0.793701 6.62588e-17 3.34089e-17 -3.70302e-17 1
121 14.2866 3.3892 -1.84177e-16 -1.19949e-09 0.00141515 -2.93718e-17 1
123 15.0803 3.28336 0.793701 -6.94467e-10 0.000716379 -5.64198e-17 1
125 15.874 3.1748 1.47807e-16 3.19232e-17 3.4758e-17 -4.41757e-17 1
500 15.0803 2.48966 1.5874 -6.94467e-10 0.000716379 -7.09712e-18 1
541 14.2866 3.3892 1.5874 -1.19949e-09 0.00141515 -2.37296e-18 1
545 15.874 3.1748 1.5874 8.05499e-17 3.27352e-17 -8.28769e-18 1
86 0.793711 4.07706 -2.97781e-16 6.94467e-10 0.000716379 -1.05615e-16 1
88 -6.03749e-16 3.9685 0.793701 -6.45737e-17 -1.28541e-16 -1.34784e-16 1
92 1.58744 4.1829 0.793701 1.19949e-09 0.00141515 -7.58108e-17 1
127 -4.96149e-16 4.7622 1.66309e-16 -6.33002e-17 -1.57356e-16 -1.20567e-16 1
129 0.793711 4.87076 0.793701 6.94467e-10 0.000716379 -9.87337e-17 1
131 1.58744 4.9766 -6.67273e-16 1.19949e-09 0.00141515 -8.81553e-17 1
506 0.793711 4.07706 1.5874 6.94467e-10 0.000716379 -8.12189e-17 1
547 -6.26018e-16 4.7622 1.5874 -5.87407e-17 -1.18948e-16 -7.67902e-17 1
551 1.58744 4.9766 1.5874 1.19949e-09 0.00141515 -3.43626e-17 1
93 3.17491 3.5825 -4.87992e-16 -7.36835e-11 0.00269183 -4.09867e-17 1
513 3.17491 3.5825 1.5874 -7.36834e-11 0.00269183 -3.19309e-17 1
90 2.38117 4.28344 -6.75375e-16 9.31457e-10 0.00207908 -5.51521e-17 1
96 3.17491 4.3762 0.793701 -7.36834e-11 0.00269183 -3.57585e-17 1
133 2.38117 5.07714 0.793701 9.31457e-10 0.00207908 -3.87731e-17 1
135 3.17491 5.1699 -6.60145e-16 -7.36834e-11 0.00269183 -3.87817e-17 1
510 2.38117 4.28344 1.5874 9.31457e-10 0.00207908 -4.87055e-17 1
555 3.17491 5.1699 1.5874 -7.36834e-11 0.00269183 -2.7135e-17 1
95 3.96863 3.6652 0.793701 -1.48323e-09 0.00323828 -2.09851e-17 1
517 4.76234 3.73582 1.5874 -3.43447e-09 0.00370498 2.12941e-17 1
94 3.96863 4.4589 -2.87156e-16 -1.48323e-09 0.00323828 -3.2443e-17 1
100 4.76234 4.52952 0.793701 -3.43447e-09 0.00370498 -3.06854e-18 1
137 3.96863 5.2526 0.793701 -1.48323e-09 0.00323828 -1.8868e-17 1
514 3.96863 4.4589 1.5874 -1.48323e-09 0.00323828 -3.94364e-18 1
559 4.76234 5.32322 1.5874 -3.43447e-09 0.00370498 9.23043e-18 1
99 5.55603 3.79262 0.793701 -5.67947e-09 0.00408043 -4.83077e-19 1
521 6.3497 3.83422 1.5874 -2.29675e-09 0.0043554 1.04803e-17 1
104 6.3497 4.62792 0.793701 -2.29675e-09 0.0043554 -9.47274e-18 1
518 5.55603 4.58632 1.5874 -5.67947e-09 0.00408043 1.75212e-17 1
103 7.14336 3.85959 0.793701 1.61974e-08 0.00452314 -4.7463e-18 1
107 8.73065 3.85959 0.793701 -1.61974e-08 0.00452314 -6.88971e-19 1
525 7.93701 3.86812 1.5874 7.45469e-17 0.00457952 2.69698e-17 1
108 7.93701 4.66182 0.793701 4.00447e-17 0.00457952 -2.63075e-18 1
522 7.14336 4.65329 1.5874 1.61974e-08 0.00452314 -1.08977e-17 1
526 8.73065 4.65329 1.5874 -1.61974e-08 0.00452314 3.15216e-17 1
111 10.318 3.79262 0.793701 5.67947e-09 0.00408043 -1.53527e-18 1
529 9.52431 3.83422 1.5874 2.29675e-09 0.0043554 2.72294e-17 1
112 9.52431 4.62792 0.793701 2.29675e-09 0.0043554 -4.42612e-19 1
530 10.318 4.58632 1.5874 5.67947e-09 0.00408043 2.99079e-17 1
115 11.9054 3.6652 0.793701 1.48323e-09 0.00323828 9.04176e-18 1
533 11.1117 3.73582 1.5874 3.43447e-09 0.00370498 3.26479e-17 1
114 11.9054 4.4589 -6.51277e-16 1.48323e-09 0.00323828 -1.93522e-17 1
116 11.1117 4.52952 0.793701 3.43447e-09 0.00370498 1.57969e-17 1
157 11.9054 5.2526 0.793701 1.48323e-09 0.00323828 3.72323e-17 1
534 11.9054 4.4589 1.5874 1.48323e-09 0.00323828 4.88165e-17 1
575 11.1117 5.32322 1.5874 3.43447e-09 0.00370498 7.01252e-17 1
537 12.6991 3.5825 1.5874 7.36835e-11 0.00269183 2.75491e-17 1
118 13.4928 4.28344 -3.10326e-16 -9.31457e-10 0.00207908 -8.11439e-18 1
120 12.6991 4.3762 0.793701 7.36835e-11 0.00269183 1.42848e-17 1
161 13.4928 5.07714 0.793701 -9.31457e-10 0.00207908 1.12943e-17 1
538 13.4928 4.28344 1.5874 -9.31457e-10 0.00207908 2.70067e-17 1
579 12.6991 5.1699 1.5874 7.36834e-11 0.00269183 4.23367e-17 1
122 15.0803 4.07706 -4.15428e-17 -6.94467e-10 0.000716379 -2.02711e-17 1
124 14.2866 4.1829 0.793701 -1.19949e-09 0.00141515 -1.16142e-17 1
126 15.874 3.9685 0.793701 4.26088e-17 3.33645e-17 -3.8169e-17 1
163 14.2866 4.9766 -2.27739e-16 -1.19949e-09 0.00141515 -1.08305e-17 1
165 15.0803 4.87076 0.793701 -6.94467e-10 0.000716379 -1.04009e-17 1
167 15.874 4.7622 1.88883e-16 9.08337e-17 1.45924e-17 -3.31749e-17 1
542 15.0803 4.07706 1.5874 -6.94467e-10 0.000716379 -1.16049e-17 1
583 14.2866 4.9766 1.5874 -1.19949e-09 0.00141515 2.06346e-17 1
587 15.874 4.7622 1.5874 3.75356e-17 2.12807e-17 -1.38193e-17 1
128 0.793711 5.66446 -4.02597e-16 6.94467e-10 0.000716379 -1.09875e-16 1
130 -5.9913e-16 5.5559 0.793701 -7.01136e-17 -1.44105e-16 -8.3896e-17 1
134 1.58744 5.7703 0.793701 1.19949e-09 0.00141515 -4.92525e-17 1
169 -3.71264e-16 6.3496 2.59132e-16 -5.78811e-17 -1.68626e-16 -8.64816e-17 1
171 0.793711 6.45816 0.793701 6.94467e-10 0.000716379 -3.51659e-17 1
173 1.58744 6.564 -5.42867e-16 1.19949e-09 0.00141515 -6.77345e-17 1
548 0.793711 5.66446 1.5874 6.94467e-10 0.000716379 -2.52373e-17 1
589 -5.73262e-16 6.3496 1.5874 -6.68632e-17 -8.0875e-17 9.3993e-19 1
593 1.58744 6.564 1.5874 1.19949e-09 0.00141515 -2.06788e-18 1
132 2.38117 5.87084 -8.1909e-16 9.31457e-10 0.00207908 -5.2116e-17 1
138 3.17491 5.9636 0.793701 -7.36834e-11 0.00269183 -2.60486e-17 1
175 2.38117 6.66454 0.793701 9.31457e-10 0.00207908 -2.3464e-17 1
177 3.17491 6.7573 -6.59129e-16 -7.36834e-11 0.00269183 -2.97703e-17 1
552 2.38117 5.87084 1.5874 9.31457e-10 0.00207908 -1.77782e-17 1
597 3.17491 6.7573 1.5874 -7.36834e-11 0.00269183 -4.59095e-18 1
136 3.96863 6.0463 -4.40323e-16 -1.48323e-09 0.00323828 -2.69157e-17 1
142 4.76234 6.11692 0.793701 -3.43447e-09 0.00370498 -6.79049e-18 1
179 3.96863 6.84 0.793701 -1.48323e-09 0.00323828 -1.75134e-17 1
181 4.76234 6.91062 -3.43184e-16 -3.43447e-09 0.00370498 -3.69721e-17 1
556 3.96863 6.0463 1.5874 -1.48323e-09 0.00323828 -8.45542e-18 1
601 4.76234 6.91062 1.5874 -3.43447e-09 0.00370498 -8.54926e-18 1
141 5.55603 5.38002 0.793701 -5.67947e-09 0.00408043 -3.68195e-18 1
563 6.3497 5.42162 1.5874 -2.29675e-09 0.0043554 -1.00906e-17 1
146 6.3497 6.21532 0.793701 -2.29675e-09 0.0043554 -3.2406e-17 1
183 5.55603 6.96742 0.793701 -5.67947e-09 0.00408043 -3.17948e-17 1
560 5.55603 6.17372 1.5874 -5.67947e-09 0.00408043 -9.58636e-18 1
605 6.3497 7.00902 1.5874 -2.29675e-09 0.0043554 -2.11582e-17 1
145 7.14336 5.44699 0.793701 1.61974e-08 0.00452314 -2.63281e-17 1
149 8.73065 5.44699 0.793701 -1.61974e-08 0.00452314 5.39356e-18 1
567 7.93701 5.45552 1.5874 7.71822e-17 0.00457952 1.42106e-17 1
150 7.93701 6.24922 0.793701 6.91723e-17 0.00457952 -1.76512e-17 1
187 7.14336 7.03439 0.793701 1.61974e-08 0.00452314 -3.13941e-17 1
191 8.73065 7.03439 0.793701 -1.61974e-08 0.00452314 -3.75866e-18 1
564 7.14336 6.24069 1.5874 1.61974e-08 0.00452314 -1.39705e-17 1
568 8.73065 6.24069 1.5874 -1.61974e-08 0.00452314 2.03233e-17 1
609 7.93701 7.04292 1.5874 9.65246e-17 0.00457952 -9.02219e-18 1
153 10.318 5.38002 0.793701 5.67947e-09 0.00408043 1.71506e-17 1
571 9.52431 5.42162 1.5874 2.29675e-09 0.0043554 1.80405e-17 1
154 9.52431 6.21532 0.793701 2.29675e-09 0.0043554 5.06027e-18 1
195 10.318 6.96742 0.793701 5.67947e-09 0.00408043 1.14422e-17 1
572 10.318 6.17372 1.5874 5.67947e-09 0.00408043 3.90961e-17 1
613 9.52431 7.00902 1.5874 2.29675e-09 0.0043554 9.53034e-18 1
156 11.9054 6.0463 -4.11818e-16 1.48323e-09 0.00323828 2.70005e-17 1
158 11.1117 6.11692 0.793701 3.43447e-09 0.00370498 4.26805e-17 1
199 11.9054 6.84 0.793701 1.48323e-09 0.00323828 4.65494e-17 1
576 11.9054 6.0463 1.5874 1.48323e-09 0.00323828 6.55234e-17 1
617 11.1117 6.91062 1.5874 3.43447e-09 0.00370498 4.527e-17 1
160 13.4928 5.87084 -2.65531e-16 -9.31457e-10 0.00207908 8.38396e-18 1
162 12.6991 5.9636 0.793701 7.36834e-11 0.00269183 3.71319e-17 1
201 12.6991 6.7573 -2.87131e-16 7.36834e-11 0.00269183 4.36336e-17 1
203 13.4928 6.66454 0.793701 -9.31457e-10 0.00207908 1.13577e-17 1
580 13.4928 5.87084 1.5874 -9.31457e-10 0.00207908 1.09412e-17 1
621 12.6991 6.7573 1.5874 7.36834e-11 0.00269183 1.30622e-17 1
164 15.0803 5.66446 -1.5494e-16 -6.94467e-10 0.000716379 -1.2966e-17 1
166 14.2866 5.7703 0.793701 -1.19949e-09 0.00141515 -1.92951e-19 1
168 15.874 5.5559 0.793701 9.04413e-17 -9.67924e-20 -2.90211e-17 1
205 14.2866 6.564 -2.7343e-16 -1.19949e-09 0.00141515 1.06727e-18 1
207 15.0803 6.45816 0.793701 -6.94467e-10 0.000716379 -5.52136e-18 1
209 15.874 6.3496 -2.67452e-18 1.29648e-16 -2.94904e-17 -1.59734e-17 1
584 15.0803 5.66446 1.5874 -6.94467e-10 0.000716379 9.60916e-18 1
625 14.2866 6.564 1.5874 -1.19949e-09 0.00141515 -1.527e-18 1
629 15.874 6.3496 1.5874 7.73743e-17 -2.33409e-17 -2.26078e-17 1
170 0.793711 7.25186 -3.85085e-16 6.94467e-10 0.000716379 -5.27519e-17 1
172 -4.33094e-16 7.1433 0.793701 -6.24089e-17 -1.08398e-16 7.70212e-18 1
176 1.58744 7.35771 0.793701 1.19949e-09 0.00141515 -1.80091e-17 1
211 -2.81511e-16 7.93701 2.19391e-16 -4.74881e-17 -1.30088e-16 -1.6116e-17 1
213 0.793711 8.04556 0.793701 6.94467e-10 0.000716379 1.39579e-17 1
214 -1.87768e-16 8.73071 0.793701 -5.9072e-17 -1.43455e-16 3.51428e-17 1
215 1.58744 8.15141 -4.88765e-16 1.19949e-09 0.00141515 -2.75095e-17 1
590 0.793711 7.25186 1.5874 6.94467e-10 0.000716379 2.5797e-17 1
631 -4.0924e-16 7.93701 1.5874 -6.21581e-17 -1.02701e-16 5.15718e-17 1
635 1.58744 8.15141 1.5874 1.19949e-09 0.00141515 2.45609e-17 1
174 2.38117 7.45824 -6.06213e-16 9.31457e-10 0.00207908 -2.68191e-17 1
180 3.17491 7.551 0.793701 -7.36834e-11 0.00269183 -1.34886e-17 1
217 2.38117 8.25194 0.793701 9.31457e-10 0.00207908 -5.99129e-18 1
219 3.17491 8.3447 -4.96811e-16 -7.36834e-11 0.00269183 -4.23598e-17 1
594 2.38117 7.45824 1.5874 9.31457e-10 0.00207908 8.87403e-18 1
639 3.17491 8.3447 1.5874 -7.36834e-11 0.00269183 2.55274e-17 1
178 3.96863 7.6337 -5.17883e-16 -1.48323e-09 0.00323828 -5.11836e-17 1
184 4.76234 7.70432 0.793701 -3.43447e-09 0.00370498 -4.0651e-17 1
221 3.96863 8.4274 0.793701 -1.48323e-09 0.00323828 -3.73984e-17 1
598 3.96863 7.6337 1.5874 -1.48323e-09 0.00323828 1.6549e-17 1
643 4.76234 8.49802 1.5874 -3.43447e-09 0.00370498 1.8647e-17 1
188 6.3497 7.80272 0.793701 -2.29675e-09 0.0043554 -4.56732e-17 1
225 5.55603 8.55482 0.793701 -5.67947e-09 0.00408043 -6.28309e-17 1
602 5.55603 7.76112 1.5874 -5.67947e-09 0.00408043 3.36381e-20 1
647 6.3497 8.59642 1.5874 -2.29675e-09 0.0043554 -1.04204e-17 1
192 7.93701 7.83662 0.793701 8.80929e-17 0.00457952 -1.6902e-17 1
229 7.14336 8.62179 0.793701 1.61974e-08 0.00452314 -5.32137e-17 1
233 8.73065 8.62179 0.793701 -1.61974e-08 0.00452314 -1.20017e-17 1
606 7.14336 7.82809 1.5874 1.61974e-08 0.00452314 -3.44708e-17 1
610 8.73065 7.82809 1.5874 -1.61974e-08 0.00452314 -1.55552e-17 1
651 7.93701 8.63032 1.5874 1.24555e-16 0.00457952 -5.23121e-17 1
196 9.52431 7.80272 0.793701 2.29675e-09 0.0043554 2.17055e-18 1
237 10.318 8.55482 0.793701 5.67947e-09 0.00408043 9.12838e-18 1
614 10.318 7.76112 1.5874 5.67947e-09 0.00408043 1.19699e-17 1
655 9.52431 8.59642 1.5874 2.29675e-09 0.0043554 -1.18801e-17 1
200 11.1117 7.70432 0.793701 3.43447e-09 0.00370498 1.82305e-17 1
241 11.9054 8.4274 0.793701 1.48323e-09 0.00323828 1.54405e-17 1
618 11.9054 7.6337 1.5874 1.48323e-09 0.00323828 1.85292e-17 1
659 11.1117 8.49802 1.5874 3.43447e-09 0.00370498 1.07007e-17 1
202 13.4928 7.45824 -3.32736e-16 -9.31457e-10 0.00207908 2.48934e-17 1
204 12.6991 7.551 0.793701 7.36834e-11 0.00269183 2.01786e-17 1
243 12.6991 8.3447 -5.67789e-16 7.36834e-11 0.00269183 4.00197e-17 1
245 13.4928 8.25194 0.793701 -9.31457e-10 0.00207908 5.14649e-18 1
622 13.4928 7.45824 1.5874 -9.31457e-10 0.00207908 -8.27691e-18 1
663 12.6991 8.3447 1.5874 7.36834e-11 0.00269183 3.64815e-18 1
206 15.0803 7.25186 -2.17619e-16 -6.94467e-10 0.000716379 -1.33423e-17 1
208 14.2866 7.35771 0.793701 -1.19949e-09 0.00141515 -3.34092e-18 1
210 15.874 7.1433 0.793701 1.20085e-16 -3.58044e-17 -2.09712e-17 1
247 14.2866 8.15141 -3.87369e-16 -1.19949e-09 0.00141515 -8.24142e-18 1
249 15.0803 8.04556 0.793701 -6.94467e-10 0.000716379 -1.11181e-17 1
251 15.874 7.93701 -1.47695e-16 1.30677e-16 -3.91626e-17 -2.16902e-17 1
252 15.874 8.73071 0.793701 8.98361e-17 -6.19742e-17 -3.39176e-17 1
626 15.0803 7.25186 1.5874 -6.94467e-10 0.000716379 4.55988e-19 1
667 14.2866 8.15141 1.5874 -1.19949e-09 0.00141515 3.2346e-18 1
671 15.874 7.93701 1.5874 8.99855e-17 -5.21066e-17 -2.54729e-17 1
212 0.793711 8.83926 -2.59887e-16 6.94467e-10 0.000716379 -6.51859e-18 1
632 0.793711 8.83926 1.5874 6.94467e-10 0.000716379 5.19687e-17 1
218 1.58744 8.94511 0.793701 1.19949e-09 0.00141515 1.74165e-17 1
253 -6.76884e-17 9.52441 2.12175e-16 -8.26545e-17 -1.56603e-16 -6.55224e-18 1
254 0.793711 10.4267 -8.16265e-17 6.94467e-10 0.000716379 -1.80165e-17 1
255 0.793711 9.63296 0.793701 6.94467e-10 0.000716379 4.52604e-17 1
256 8.20269e-17 10.3181 0.793701 -8.58899e-17 -1.52122e-16 2.35087e-17 1
257 1.58744 9.73881 -1.55876e-16 1.19949e-09 0.00141515 -2.07233e-17 1
260 1.58744 10.5325 0.793701 1.19949e-09 0.00141515 2.35585e-17 1
673 6.1697e-17 9.52441 1.5874 -5.83625e-17 -1.6352e-16 6.10729e-17 1
674 0.793711 10.4267 1.5874 6.94467e-10 0.000716379 7.6118e-17 1
677 1.58744 9.73881 1.5874 1.19949e-09 0.00141515 5.91324e-17 1
216 2.38117 9.04564 -3.79937e-16 9.31457e-10 0.00207908 -4.23962e-17 1
222 3.17491 9.1384 0.793701 -7.36834e-11 0.00269183 -3.81732e-17 1
636 2.38117 9.04564 1.5874 9.31457e-10 0.00207908 3.26908e-17 1
259 2.38117 9.83934 0.793701 9.31457e-10 0.00207908 -1.11214e-17 1
261 3.17491 9.9321 -4.75845e-16 -7.36834e-11 0.00269183 -8.74261e-17 1
681 3.17491 9.9321 1.5874 -7.36834e-11 0.00269183 1.49188e-18 1
220 3.96863 9.2211 -4.30356e-16 -1.48323e-09 0.00323828 -9.07473e-17 1
226 4.76234 9.29172 0.793701 -3.43447e-09 0.00370498 -6.88677e-17 1
640 3.96863 9.2211 1.5874 -1.48323e-09 0.00323828 8.86425e-18 1
263 3.96863 10.0148 0.793701 -1.48323e-09 0.00323828 -7.27027e-17 1
685 4.76234 10.0854 1.5874 -3.43447e-09 0.00370498 -1.4717e-17 1
230 6.3497 9.39012 0.793701 -2.29675e-09 0.0043554 -7.22663e-17 1
644 5.55603 9.34852 1.5874 -5.67947e-09 0.00408043 1.2477e-17 1
267 5.55603 10.1422 0.793701 -5.67947e-09 0.00408043 -6.96306e-17 1
689 6.3497 10.1838 1.5874 -2.29675e-09 0.0043554 -1.89587e-17 1
234 7.93701 9.42402 0.793701 1.15578e-16 0.00457952 -4.85148e-17 1
648 7.14336 9.41549 1.5874 1.61974e-08 0.00452314 -5.53211e-17 1
652 8.73065 9.41549 1.5874 -1.61974e-08 0.00452314 -4.17003e-17 1
271 7.14336 10.2092 0.793701 1.61974e-08 0.00452314 -7.68937e-17 1
275 8.73065 10.2092 0.793701 -1.61974e-08 0.00452314 -2.77866e-17 1
693 7.93701 10.2177 1.5874 1.33977e-16 0.00457952 -4.98446e-17 1
238 9.52431 9.39012 0.793701 2.29675e-09 0.0043554 -1.70299e-18 1
656 10.318 9.34852 1.5874 5.67947e-09 0.00408043 2.21306e-18 1
279 10.318 10.1422 0.793701 5.67947e-09 0.00408043 1.52924e-17 1
697 9.52431 10.1838 1.5874 2.29675e-09 0.0043554 -2.01939e-17 1
240 11.9054 9.2211 -5.24564e-16 1.48323e-09 0.00323828 5.72801e-17 1
242 11.1117 9.29172 0.793701 3.43447e-09 0.00370498 2.50346e-17 1
660 11.9054 9.2211 1.5874 1.48323e-09 0.00323828 1.72974e-17 1
283 11.9054 10.0148 0.793701 1.48323e-09 0.00323828 7.1392e-17 1
701 11.1117 10.0854 1.5874 3.43447e-09 0.00370498 3.62263e-17 1
244 13.4928 9.04564 -5.77581e-16 -9.31457e-10 0.00207908 3.1609e-17 1
246 12.6991 9.1384 0.793701 7.36834e-11 0.00269183 3.40985e-17 1
664 13.4928 9.04564 1.5874 -9.31457e-10 0.00207908 7.93444e-18 1
285 12.6991 9.9321 -5.91222e-16 7.36834e-11 0.00269183 5.74455e-17 1
287 13.4928 9.83934 0.793701 -9.31457e-10 0.00207908 3.91483e-17 1
705 12.6991 9.9321 1.5874 7.36834e-11 0.00269183 4.02052e-17 1
248 15.0803 8.83926 -3.08498e-16 -6.94467e-10 0.000716379 -2.15566e-17 1
668 15.0803 8.83926 1.5874 -6.94467e-10 0.000716379 -6.62937e-18 1
250 14.2866 8.94511 0.793701 -1.19949e-09 0.00141515 -4.95506e-18 1
289 14.2866 9.73881 -5.09867e-16 -1.19949e-09 0.00141515 2.48379e-18 1
290 15.0803 10.4267 -4.10101e-16 -6.94467e-10 0.000716379 -1.59281e-17 1
291 15.0803 9.63296 0.793701 -6.94467e-10 0.000716379 -1.62476e-17 1
292 14.2866 10.5325 0.793701 -1.19949e-09 0.00141515 1.04451e-17 1
293 15.874 9.52441 -2.18022e-16 6.8357e-17 -5.90539e-17 -3.00662e-17 1
294 15.874 10.3181 0.793701 1.83822e-17 -2.5498e-17 -1.85157e-17 1
709 14.2866 9.73881 1.5874 -1.19949e-09 0.00141515 2.69882e-18 1
710 15.0803 10.4267 1.5874 -6.94467e-10 0.000716379 -6.79453e-18 1
713 15.874 9.52441 1.5874 3.17986e-17 -3.85458e-17 -1.80017e-17 1
295 -1.47709e-17 11.1118 6.6352e-17 -1.18954e-16 -9.44167e-17 -4.86618e-17 1
296 0.793711 12.0141 -1.94867e-16 6.94467e-10 0.000716379 -6.39201e-17 1
297 0.793711 11.2204 0.793701 6.94467e-10 0.000716379 7.35376e-18 1
298 -2.00335e-20 11.9055 0.793701 -1.26111e-16 -8.70042e-17 -2.7259e-17 1
299 1.58744 11.3262 -2.5806e-16 1.19949e-09 0.00141515 -5.44195e-17 1
302 1.58744 12.1199 0.793701 1.19949e-09 0.00141515 -3.10927e-17 1
715 5.10081e-17 11.1118 1.5874 -8.49919e-17 -1.48006e-16 4.17974e-17 1
716 0.793711 12.0141 1.5874 6.94467e-10 0.000716379 2.37062e-17 1
719 1.58744 11.3262 1.5874 1.19949e-09 0.00141515 4.69548e-17 1
258 2.38117 10.633 -3.55141e-16 9.31457e-10 0.00207908 -6.77449e-17 1
678 2.38117 10.633 1.5874 9.31457e-10 0.00207908 2.25398e-17 1
264 3.17491 10.7258 0.793701 -7.36834e-11 0.00269183 -5.80829e-17 1
300 2.38117 12.2204 -4.30948e-16 9.31457e-10 0.00207908 -6.8071e-17 1
301 2.38117 11.4267 0.793701 9.31457e-10 0.00207908 -3.29747e-17 1
303 3.17491 11.5195 -4.71148e-16 -7.36834e-11 0.00269183 -7.27428e-17 1
306 3.17491 12.3132 0.793701 -7.36834e-11 0.00269183 -4.19269e-17 1
720 2.38117 12.2204 1.5874 9.31457e-10 0.00207908 -1.11788e-17 1
723 3.17491 11.5195 1.5874 -7.36834e-11 0.00269183 -2.62601e-17 1
262 3.96863 10.8085 -4.52473e-16 -1.48323e-09 0.00323828 -8.14586e-17 1
268 4.76234 10.8791 0.793701 -3.43447e-09 0.00370498 -6.97232e-17 1
682 3.96863 10.8085 1.5874 -1.48323e-09 0.00323828 -3.9926e-17 1
305 3.96863 11.6022 0.793701 -1.48323e-09 0.00323828 -5.36988e-17 1
724 3.96863 12.3959 1.5874 -1.48323e-09 0.00323828 -2.60773e-17 1
727 4.76234 11.6728 1.5874 -3.43447e-09 0.00370498 -4.77401e-17 1
272 6.3497 10.9775 0.793701 -2.29675e-09 0.0043554 -7.42969e-17 1
686 5.55603 10.9359 1.5874 -5.67947e-09 0.00408043 -2.73506e-17 1
309 5.55603 11.7296 0.793701 -5.67947e-09 0.00408043 -5.59334e-17 1
731 6.3497 11.7712 1.5874 -2.29675e-09 0.0043554 -2.33961e-17 1
276 7.93701 11.0114 0.793701 9.53557e-17 0.00457952 -5.31931e-17 1
690 7.14336 11.0029 1.5874 1.61974e-08 0.00452314 -3.26043e-17 1
694 8.73065 11.0029 1.5874 -1.61974e-08 0.00452314 -2.51317e-17 1
313 7.14336 11.7966 0.793701 1.61974e-08 0.00452314 -4.86739e-17 1
317 8.73065 11.7966 0.793701 -1.61974e-08 0.00452314 -3.83344e-17 1
735 7.93701 11.8051 1.5874 7.66324e-17 0.00457952 -2.13734e-17 1
280 9.52431 10.9775 0.793701 2.29675e-09 0.0043554 -2.05751e-17 1
698 10.318 10.9359 1.5874 5.67947e-09 0.00408043 1.25726e-17 1
321 10.318 11.7296 0.793701 5.67947e-09 0.00408043 3.24814e-18 1
739 9.52431 11.7712 1.5874 2.29675e-09 0.0043554 -1.43377e-17 1
282 11.9054 10.8085 -6.23267e-16 1.48323e-09 0.00323828 3.48393e-17 1
284 11.1117 10.8791 0.793701 3.43447e-09 0.00370498 6.24729e-17 1
702 11.9054 10.8085 1.5874 1.48323e-09 0.00323828 7.25098e-17 1
324 11.9054 12.3959 -7.59022e-16 1.48323e-09 0.00323828 -5.99076e-18 1
325 11.9054 11.6022 0.793701 1.48323e-09 0.00323828 5.43344e-17 1
743 11.1117 11.6728 1.5874 3.43447e-09 0.00370498 4.19844e-17 1
744 11.9054 12.3959 1.5874 1.48323e-09 0.00323828 2.34258e-17 1
286 13.4928 10.633 -6.7485e-16 -9.31457e-10 0.00207908 1.40168e-17 1
706 13.4928 10.633 1.5874 -9.31457e-10 0.00207908 4.33744e-17 1
288 12.6991 10.7258 0.793701 7.36834e-11 0.00269183 6.81187e-17 1
327 12.6991 11.5195 -8.19364e-16 7.36834e-11 0.00269183 -3.62053e-19 1
328 13.4928 12.2204 -7.81919e-16 -9.31457e-10 0.00207908 -1.31769e-17 1
329 13.4928 11.4267 0.793701 -9.31457e-10 0.00207908 2.06191e-17 1
330 12.6991 12.3132 0.793701 7.36835e-11 0.00269183 1.16568e-18 1
747 12.6991 11.5195 1.5874 7.36834e-11 0.00269183 5.48405e-17 1
748 13.4928 12.2204 1.5874 -9.31457e-10 0.00207908 1.49017e-17 1
331 14.2866 11.3262 -6.12923e-16 -1.19949e-09 0.00141515 -1.01135e-17 1
332 15.0803 12.0141 -2.68541e-16 -6.94467e-10 0.000716379 -1.26231e-17 1
333 15.0803 11.2204 0.793701 -6.94467e-10 0.000716379 -8.89537e-18 1
334 14.2866 12.1199 0.793701 -1.19949e-09 0.00141515 -2.75086e-18 1
335 15.874 11.1118 -5.6643e-17 8.11065e-18 -8.15479e-18 -1.92064e-17 1
336 15.874 11.9055 0.793701 -3.85555e-18 8.19915e-18 -1.33578e-17 1
751 14.2866 11.3262 1.5874 -1.19949e-09 0.00141515 1.55586e-17 1
752 15.0803 12.0141 1.5874 -6.94467e-10 0.000716379 -5.36462e-18 1
755 15.874 11.1118 1.5874 2.07884e-18 -6.40387e-18 -8.78414e-18 1
337 -1.21701e-16 12.6992 -4.40259e-17 -1.41051e-16 -4.7928e-17 -8.55572e-17 1
338 0.793711 13.6015 -3.60729e-16 6.94467e-10 0.000716379 -1.10526e-16 1
339 0.793711 12.8078 0.793701 6.94467e-10 0.000716379 -4.6486e-17 1
340 -2.30053e-16 13.4929 0.793701 -1.39049e-16 -5.44189e-17 -6.80975e-17 1
341 1.58744 12.9136 -3.80781e-16 1.19949e-09 0.00141515 -8.33168e-17 1
344 1.58744 13.7073 0.793701 1.19949e-09 0.00141515 -6.91471e-17 1
757 -3.18274e-17 12.6992 1.5874 -1.28364e-16 -8.88019e-17 -1.56701e-17 1
758 0.793711 13.6015 1.5874 6.94467e-10 0.000716379 -3.21084e-17 1
761 1.58744 12.9136 1.5874 1.19949e-09 0.00141515 -1.71005e-17 1
342 2.38117 13.8078 -6.30081e-16 9.31457e-10 0.00207908 -1.1242e-16 1
343 2.38117 13.0141 0.793701 9.31457e-10 0.00207908 -5.03085e-17 1
345 3.17491 13.1069 -5.92775e-16 -7.36834e-11 0.00269183 -7.93131e-17 1
348 3.17491 13.9006 0.793701 -7.36834e-11 0.00269183 -6.26858e-17 1
762 2.38117 13.8078 1.5874 9.31457e-10 0.00207908 -3.42454e-17 1
765 3.17491 13.1069 1.5874 -7.36834e-11 0.00269183 -2.24453e-17 1
310 4.76234 12.4665 0.793701 -3.43447e-09 0.00370498 -2.63437e-17 1
346 3.96863 13.9833 -5.86045e-16 -1.48323e-09 0.00323828 -7.93814e-17 1
347 3.96863 13.1896 0.793701 -1.48323e-09 0.00323828 -2.90919e-17 1
349 4.76234 13.2602 -4.95189e-16 -3.43447e-09 0.00370498 -6.44862e-17 1
352 4.76234 14.0539 0.793701 -3.43447e-09 0.00370498 -1.63601e-17 1
766 3.96863 13.9833 1.5874 -1.48323e-09 0.00323828 -3.10058e-18 1
769 4.76234 13.2602 1.5874 -3.43447e-09 0.00370498 2.13682e-17 1
314 6.3497 12.5649 0.793701 -2.29675e-09 0.0043554 -2.86964e-17 1
728 5.55603 12.5233 1.5874 -5.67947e-09 0.00408043 -1.02289e-17 1
351 5.55603 13.317 0.793701 -5.67947e-09 0.00408043 -6.44724e-18 1