ITEM: TIMESTEP
3000
ITEM: NUMBER OF ATOMS
8000
ITEM: BOX BOUNDS pp pp pp
0.0000000000000000e+00 3.1748021039364001e+01
0.0000000000000000e+00 1.5874010519682001e+01
0.0000000000000000e+00 1.5874010519682001e+01
ITEM: ATOMS id x y z vx vy vz c_rho_peratom
1 7.8173e-18 -1.78388e-16 7.79172e-18 3.21395e-17 -6.01167e-17 2.27918e-17 1
2 0.793701 0.815843 -1.6912e-16 -2.67576e-08 0.00139141 2.06794e-17 1
3 0.793701 0.0221421 0.793701 -2.67576e-08 0.00139141 6.11123e-18 1
4 6.45554e-18 0.793701 0.793701 2.0862e-17 -5.69657e-17 1.45989e-17 1
5 1.5874 0.0437376 -3.39805e-16 -5.25268e-08 0.00274856 1.06984e-17 1
8 1.5874 0.837438 0.793701 -5.25268e-08 0.00274856 1.59317e-17 1
43 2.62318e-18 1.5874 1.36118e-17 5.54965e-18 -6.47967e-17 3.02067e-17 1
45 0.793701 1.60954 0.793701 -2.67576e-08 0.00139141 1.5038e-17 1
47 1.5874 1.63114 -3.34081e-16 -5.25268e-08 0.00274856 1.55433e-17 1
421 -1.64659e-17 -1.57283e-16 1.5874 2.12281e-17 -4.82709e-17 1.98583e-18 1
422 0.793701 0.815843 1.5874 -2.67576e-08 0.00139141 2.70591e-18 1
425 1.5874 0.0437376 1.5874 -5.25268e-08 0.00274856 2.42945e-18 1
463 1.27658e-18 1.5874 1.5874 2.97008e-18 -6.82384e-17 3.21979e-18 1
467 1.5874 1.63114 1.5874 -5.25268e-08 0.00274856 7.49804e-18 1
6 2.3811 0.857955 -4.99383e-16 -7.57422e-08 0.00403804 1.16595e-17 1
7 2.3811 0.0642548 0.793701 -7.57422e-08 0.00403804 9.39048e-18 1
9 3.1748 0.0831887 -6.35817e-16 -9.39633e-08 0.00522808 3.69278e-18 1
12 3.1748 0.876889 0.793701 -9.39633e-08 0.00522808 7.59635e-18 1
49 2.3811 1.65166 0.793701 -7.57422e-08 0.00403804 1.65927e-17 1
51 3.1748 1.67059 -6.42517e-16 -9.39633e-08 0.00522808 4.24111e-18 1
426 2.3811 0.857955 1.5874 -7.57422e-08 0.00403804 6.05379e-18 1
429 3.1748 0.0831887 1.5874 -9.39633e-08 0.00522808 1.57489e-18 1
471 3.1748 1.67059 1.5874 -9.39633e-08 0.00522808 4.111e-18 1
10 3.9685 0.893774 -7.63627e-16 -1.04445e-07 0.00628939 1.27327e-18 1
11 3.9685 0.100074 0.793701 -1.04445e-07 0.00628939 1.39013e-18 1
13 4.7622 0.114494 -8.69003e-16 -1.05822e-07 0.00719584 6.96698e-19 1
16 4.7622 0.908195 0.793701 -1.05822e-07 0.00719584 6.39046e-19 1
53 3.9685 1.68747 0.793701 -1.04445e-07 0.00628939 4.51462e-18 1
55 4.7622 1.7019 -8.70538e-16 -1.05822e-07 0.00719584 1.14264e-18 1
430 3.9685 0.893774 1.5874 -1.04445e-07 0.00628939 7.33587e-19 1
433 4.7622 0.114494 1.5874 -1.05822e-07 0.00719584 1.42605e-19 1
475 4.7622 1.7019 1.5874 -1.05822e-07 0.00719584 6.42109e-19 1
14 5.5559 0.919796 -9.36999e-16 -9.71583e-08 0.0079251 7.73028e-19 1
15 5.5559 0.126095 0.793701 -9.71583e-08 0.0079251 4.9708e-19 1
17 6.34961 0.134592 -9.67242e-16 -6.78757e-08 0.00845922 1.81164e-18 1
20 6.34961 0.928292 0.793701 -6.78757e-08 0.00845922 6.15928e-19 1
57 5.5559 1.7135 0.793701 -9.71583e-08 0.0079251 5.41566e-19 1
59 6.34961 1.72199 -9.75161e-16 -6.78757e-08 0.00845922 9.54894e-19 1
434 5.5559 0.919796 1.5874 -9.71583e-08 0.0079251 1.38758e-19 1
437 6.34961 0.134592 1.5874 -6.78757e-08 0.00845922 5.7627e-19 1
479 6.34961 1.72199 1.5874 -6.78757e-08 0.00845922 1.38414e-19 1
18 7.14331 0.933475 -9.91911e-16 -2.37353e-09 0.00878505 2.11588e-18 1
19 7.14331 0.139775 0.793701 -2.37353e-09 0.00878505 3.0561e-18 1
21 7.93701 0.141517 -1.00034e-15 4.15627e-18 0.00889455 4.95941e-18 1
22 8.7307 0.933475 -9.88879e-16 2.37353e-09 0.00878505 3.49151e-18 1
23 8.7307 0.139775 0.793701 2.37353e-09 0.00878505 4.3257e-18 1
24 7.93701 0.935217 0.793701 3.66739e-18 0.00889455 1.50737e-18 1
61 7.14331 1.72718 0.793701 -2.37353e-09 0.00878505 5.89495e-19 1
63 7.93701 1.72892 -1.00322e-15 2.521e-18 0.00889455 1.85443e-18 1
65 8.7307 1.72718 0.793701 2.37353e-09 0.00878505 1.0248e-18 1
438 7.14331 0.933475 1.5874 -2.37353e-09 0.00878505 4.37965e-19 1
441 7.93701 0.141517 1.5874 5.66792e-18 0.00889455 2.08204e-18 1
442 8.7307 0.933475 1.5874 2.37353e-09 0.00878505 7.9352e-19 1
483 7.93701 1.72892 1.5874 3.00521e-18 0.00889455 3.12726e-19 1
25 9.52441 0.134592 -9.58836e-16 6.78757e-08 0.00845922 4.97366e-18 1
26 10.3181 0.919796 -9.24284e-16 9.71583e-08 0.0079251 4.51359e-18 1
27 10.3181 0.126095 0.793701 9.71583e-08 0.0079251 3.60332e-18 1
28 9.52441 0.928292 0.793701 6.78757e-08 0.00845922 2.08153e-18 1
67 9.52441 1.72199 -9.64266e-16 6.78757e-08 0.00845922 2.33631e-18 1
69 10.3181 1.7135 0.793701 9.71583e-08 0.0079251 1.81689e-18 1
445 9.52441 0.134592 1.5874 6.78757e-08 0.00845922 1.60978e-18 1
446 10.3181 0.919796 1.5874 9.71583e-08 0.0079251 9.80164e-19 1
487 9.52441 1.72199 1.5874 6.78757e-08 0.00845922 4.95093e-19 1
29 11.1118 0.114494 -8.46053e-16 1.05822e-07 0.00719584 1.05935e-17 1
30 11.9055 0.893774 -7.32536e-16 1.04445e-07 0.00628939 1.60667e-17 1
31 11.9055 0.100074 0.793701 1.04445e-07 0.00628939 1.03213e-17 1
32 11.1118 0.908195 0.793701 1.05822e-07 0.00719584 6.35599e-18 1
71 11.1118 1.7019 -8.56012e-16 1.05822e-07 0.00719584 4.01395e-18 1
73 11.9055 1.68747 0.793701 1.04445e-07 0.00628939 5.19775e-18 1
449 11.1118 0.114494 1.5874 1.05822e-07 0.00719584 1.5098e-18 1
450 11.9055 0.893774 1.5874 1.04445e-07 0.00628939 1.18085e-18 1
491 11.1118 1.7019 1.5874 1.05822e-07 0.00719584 5.98401e-19 1
33 12.6992 0.0831887 -6.03886e-16 9.39633e-08 0.00522808 2.28289e-17 1
34 13.4929 0.857955 -4.80626e-16 7.57422e-08 0.00403804 7.91317e-18 1
35 13.4929 0.0642548 0.793701 7.57422e-08 0.00403804 7.08072e-18 1
36 12.6992 0.876889 0.793701 9.39633e-08 0.00522808 9.09323e-18 1
75 12.6992 1.67059 -6.30072e-16 9.39633e-08 0.00522808 2.40171e-18 1
77 13.4929 1.65166 0.793701 7.57422e-08 0.00403804 -3.32146e-18 1
453 12.6992 0.0831887 1.5874 9.39633e-08 0.00522808 1.43397e-18 1
454 13.4929 0.857955 1.5874 7.57422e-08 0.00403804 7.28211e-19 1
495 12.6992 1.67059 1.5874 9.39633e-08 0.00522808 5.39933e-19 1
37 14.2866 0.0437376 -3.34499e-16 5.25268e-08 0.00274856 7.60903e-18 1
38 15.0803 0.815843 -1.76871e-16 2.67576e-08 0.00139141 -6.63801e-19 1
39 15.0803 0.0221421 0.793701 2.67576e-08 0.00139141 9.38399e-19 1
40 14.2866 0.837438 0.793701 5.25268e-08 0.00274856 6.55259e-19 1
41 15.874 1.35327e-16 -1.0638e-18 -1.91056e-17 -2.75142e-17 4.61559e-19 1
42 15.874 0.793701 0.793701 -1.20676e-17 -3.28178e-17 -1.25534e-19 1
79 14.2866 1.63114 -3.55239e-16 5.25268e-08 0.00274856 -1.53716e-17 1
81 15.0803 1.60954 0.793701 2.67576e-08 0.00139141 -2.6401e-18 1
83 15.874 1.5874 -2.15686e-18 -2.02484e-18 -3.66859e-17 -1.75779e-18 1
457 14.2866 0.0437376 1.5874 5.25268e-08 0.00274856 7.13325e-19 1
458 15.0803 0.815843 1.5874 2.67576e-08 0.00139141 2.80581e-19 1
461 15.874 1.34346e-16 1.5874 -1.98079e-17 -2.83868e-17 2.27316e-19 1
499 14.2866 1.63114 1.5874 5.25268e-08 0.00274856 2.61299e-19 1
503 15.874 1.5874 1.5874 7.85524e-20 -3.84946e-17 3.47179e-20 1
44 0.793701 2.40324 -1.66659e-16 -2.67576e-08 0.00139141 1.89027e-17 1
46 -1.43956e-17 2.3811 0.793701 -2.73513e-17 -9.18093e-17 1.15589e-17 1
50 1.5874 2.42484 0.793701 -5.25268e-08 0.00274856 1.49929e-17 1
85 -3.8812e-17 3.1748 6.87243e-18 -5.8203e-17 -8.80325e-17 1.13791e-17 1
87 0.793701 3.19694 0.793701 -2.67576e-08 0.00139141 7.28843e-18 1
89 1.5874 3.21854 -3.47524e-16 -5.25268e-08 0.00274856 5.76487e-18 1
464 0.793701 2.40324 1.5874 -2.67576e-08 0.00139141 4.88237e-18 1
505 -3.37681e-17 3.1748 1.5874 -5.29954e-17 -1.01036e-16 1.44107e-18 1
509 1.5874 3.21854 1.5874 -5.25268e-08 0.00274856 2.79455e-18 1
48 2.3811 2.44536 -5.00279e-16 -7.57422e-08 0.00403804 6.89235e-18 1
54 3.1748 2.46429 0.793701 -9.39633e-08 0.00522808 1.24829e-17 1
91 2.3811 3.23906 0.793701 -7.57422e-08 0.00403804 1.00818e-17 1
93 3.1748 3.25799 -6.46302e-16 -9.39633e-08 0.00522808 6.3055e-18 1
468 2.3811 2.44536 1.5874 -7.57422e-08 0.00403804 6.5732e-18 1
513 3.1748 3.25799 1.5874 -9.39633e-08 0.00522808 5.34875e-18 1
52 3.9685 2.48118 -7.73056e-16 -1.04445e-07 0.00628939 4.88375e-18 1
58 4.7622 2.4956 0.793701 -1.05822e-07 0.00719584 3.63034e-18 1
95 3.9685 3.27488 0.793701 -1.04445e-07 0.00628939 9.13516e-18 1
97 4.7622 3.2893 -8.72563e-16 -1.05822e-07 0.00719584 2.67784e-18 1
472 3.9685 2.48118 1.5874 -1.04445e-07 0.00628939 3.04474e-18 1
517 4.7622 3.2893 1.5874 -1.05822e-07 0.00719584 8.52878e-19 1
56 5.5559 2.5072 -9.33858e-16 -9.71583e-08 0.0079251 7.3695e-19 1
62 6.34961 2.51569 0.793701 -6.78757e-08 0.00845922 2.86544e-19 1
99 5.5559 3.3009 0.793701 -9.71583e-08 0.0079251 4.49609e-19 1
101 6.34961 3.30939 -9.72632e-16 -6.78757e-08 0.00845922 3.61822e-19 1
476 5.5559 2.5072 1.5874 -9.71583e-08 0.0079251 2.30241e-19 1
521 6.34961 3.30939 1.5874 -6.78757e-08 0.00845922 5.74754e-20 1
60 7.14331 2.52088 -9.96046e-16 -2.37353e-09 0.00878505 8.66461e-19 1
64 8.7307 2.52088 -9.95694e-16 2.37353e-09 0.00878505 1.25203e-18 1
66 7.93701 2.52262 0.793701 1.62838e-18 0.00889455 4.74894e-19 1
103 7.14331 3.31458 0.793701 -2.37353e-09 0.00878505 1.80997e-19 1
105 7.93701 3.31632 -1.00645e-15 6.68778e-19 0.00889455 5.72395e-19 1
107 8.7307 3.31458 0.793701 2.37353e-09 0.00878505 2.70552e-19 1
480 7.14331 2.52088 1.5874 -2.37353e-09 0.00878505 1.16335e-19 1
484 8.7307 2.52088 1.5874 2.37353e-09 0.00878505 2.16369e-19 1
525 7.93701 3.31632 1.5874 7.65949e-19 0.00889455 5.70508e-20 1
68 10.3181 2.5072 -9.26065e-16 9.71583e-08 0.0079251 1.39327e-18 1
70 9.52441 2.51569 0.793701 6.78757e-08 0.00845922 7.16082e-19 1
109 9.52441 3.30939 -9.70216e-16 6.78757e-08 0.00845922 6.44905e-19 1
111 10.3181 3.3009 0.793701 9.71583e-08 0.0079251 3.38766e-19 1
488 10.3181 2.5072 1.5874 9.71583e-08 0.0079251 3.02742e-19 1
529 9.52441 3.30939 1.5874 6.78757e-08 0.00845922 8.41851e-20 1
72 11.9055 2.48118 -7.62347e-16 1.04445e-07 0.00628939 7.43934e-19 1
74 11.1118 2.4956 0.793701 1.05822e-07 0.00719584 1.12818e-18 1
113 11.1118 3.2893 -8.69471e-16 1.05822e-07 0.00719584 3.81081e-19 1
115 11.9055 3.27488 0.793701 1.04445e-07 0.00628939 -2.3377e-19 1
492 11.9055 2.48118 1.5874 1.04445e-07 0.00628939 2.35376e-19 1
533 11.1118 3.2893 1.5874 1.05822e-07 0.00719584 8.87503e-20 1
76 13.4929 2.44536 -5.18826e-16 7.57422e-08 0.00403804 -2.20764e-17 1
78 12.6992 2.46429 0.793701 9.39633e-08 0.00522808 -1.81016e-18 1
117 12.6992 3.25799 -6.49199e-16 9.39633e-08 0.00522808 -7.19099e-18 1
119 13.4929 3.23906 0.793701 7.57422e-08 0.00403804 -7.74425e-18 1
496 13.4929 2.44536 1.5874 7.57422e-08 0.00403804 2.1702e-19 1
537 12.6992 3.25799 1.5874 9.39633e-08 0.00522808 9.8494e-20 1
80 15.0803 2.40324 -1.91833e-16 2.67576e-08 0.00139141 -1.53871e-17 1
82 14.2866 2.42484 0.793701 5.25268e-08 0.00274856 -1.01792e-17 1
84 15.874 2.3811 0.793701 1.35174e-17 -4.25693e-17 -1.47837e-18 1
121 14.2866 3.21854 -3.75763e-16 5.25268e-08 0.00274856 -3.28028e-17 1
123 15.0803 3.19694 0.793701 2.67576e-08 0.00139141 -5.90603e-18 1
125 15.874 3.1748 -4.29126e-18 1.51041e-17 -4.65269e-17 -4.21742e-18 1
500 15.0803 2.40324 1.5874 2.67576e-08 0.00139141 5.27583e-20 1
541 14.2866 3.21854 1.5874 5.25268e-08 0.00274856 1.11037e-19 1
545 15.874 3.1748 1.5874 2.08353e-17 -4.6578e-17 -9.9579e-21 1
86 0.793701 3.99064 -1.76183e-16 -2.67576e-08 0.00139141 2.77597e-18 1
88 -4.99566e-17 3.9685 0.793701 -6.89824e-17 -8.4185e-17 1.39469e-18 1
92 1.5874 4.01224 0.793701 -5.25268e-08 0.00274856 1.73874e-18 1
127 -5.35685e-17 4.7622 3.00832e-19 -7.13124e-17 -7.55168e-17 3.72209e-19 1
129 0.793701 4.78435 0.793701 -2.67576e-08 0.00139141 9.40816e-20 1
131 1.5874 4.80594 -3.43163e-16 -5.25268e-08 0.00274856 2.78378e-19 1
506 0.793701 3.99064 1.5874 -2.67576e-08 0.00139141 1.58761e-19 1
547 -5.35552e-17 4.7622 1.5874 -7.08813e-17 -7.67858e-17 -4.49789e-19 1
551 1.5874 4.80594 1.5874 -5.25268e-08 0.00274856 -5.07586e-19 1
90 2.3811 4.03276 -5.02068e-16 -7.57422e-08 0.00403804 1.92351e-18 1
96 3.1748 4.05169 0.793701 -9.39633e-08 0.00522808 6.2954e-18 1
133 2.3811 4.82646 0.793701 -7.57422e-08 0.00403804 6.11875e-19 1
135 3.1748 4.84539 -6.37224e-16 -9.39633e-08 0.00522808 4.99759e-19 1
510 2.3811 4.03276 1.5874 -7.57422e-08 0.00403804 1.89786e-18 1
555 3.1748 4.84539 1.5874 -9.39633e-08 0.00522808 1.1861e-18 1
94 3.9685 4.06858 -7.48331e-16 -1.04445e-07 0.00628939 2.85329e-18 1
100 4.7622 4.083 0.793701 -1.05822e-07 0.00719584 9.72512e-19 1
137 3.9685 4.86228 0.793701 -1.04445e-07 0.00628939 6.41974e-19 1
139 4.7622 4.8767 -8.69208e-16 -1.05822e-07 0.00719584 1.86263e-19 1
514 3.9685 4.06858 1.5874 -1.04445e-07 0.00628939 1.98422e-18 1
559 4.7622 4.8767 1.5874 -1.05822e-07 0.00719584 1.29892e-19 1
98 5.5559 4.0946 -9.40879e-16 -9.71583e-08 0.0079251 2.68602e-19 1
104 6.34961 4.10309 0.793701 -6.78757e-08 0.00845922 7.31379e-20 1
141 5.5559 4.8883 0.793701 -9.71583e-08 0.0079251 6.05272e-20 1
143 6.34961 4.89679 -9.69997e-16 -6.78757e-08 0.00845922 3.70769e-20 1
518 5.5559 4.0946 1.5874 -9.71583e-08 0.0079251 7.10239e-20 1
563 6.34961 4.89679 1.5874 -6.78757e-08 0.00845922 6.11542e-20 1
102 7.14331 4.10828 -9.9516e-16 -2.37353e-09 0.00878505 1.99424e-19 1
106 8.7307 4.10828 -9.95442e-16 2.37353e-09 0.00878505 2.71816e-19 1
108 7.93701 4.11002 0.793701 2.0295e-19 0.00889455 4.55815e-20 1
145 7.14331 4.90198 0.793701 -2.37353e-09 0.00878505 -9.4443e-21 1
147 7.93701 4.90372 -1.00755e-15 -1.83735e-19 0.00889455 8.71687e-20 1
149 8.7307 4.90198 0.793701 2.37353e-09 0.00878505 -2.28102e-19 1
522 7.14331 4.10828 1.5874 -2.37353e-09 0.00878505 5.69232e-22 1
526 8.7307 4.10828 1.5874 2.37353e-09 0.00878505 -1.10148e-19 1
567 7.93701 4.90372 1.5874 -4.05482e-19 0.00889455 -1.77983e-19 1
110 10.3181 4.0946 -9.36168e-16 9.71583e-08 0.0079251 2.26253e-19 1
112 9.52441 4.10309 0.793701 6.78757e-08 0.00845922 2.68346e-20 1
151 9.52441 4.89679 -9.67893e-16 6.78757e-08 0.00845922 9.68589e-20 1
153 10.3181 4.8883 0.793701 9.71583e-08 0.0079251 -1.98627e-19 1
530 10.3181 4.0946 1.5874 9.71583e-08 0.0079251 -9.48312e-20 1
571 9.52441 4.89679 1.5874 6.78757e-08 0.00845922 -4.57465e-19 1
114 11.9055 4.06858 -7.68726e-16 1.04445e-07 0.00628939 -1.36699e-18 1
116 11.1118 4.083 0.793701 1.05822e-07 0.00719584 -3.35028e-20 1
155 11.1118 4.8767 -8.69491e-16 1.05822e-07 0.00719584 -1.10174e-19 1
157 11.9055 4.86228 0.793701 1.04445e-07 0.00628939 -6.28504e-19 1
534 11.9055 4.06858 1.5874 1.04445e-07 0.00628939 -3.01891e-20 1
575 11.1118 4.8767 1.5874 1.05822e-07 0.00719584 -2.29675e-19 1
118 13.4929 4.03276 -5.20085e-16 7.57422e-08 0.00403804 -2.62696e-17 1
120 12.6992 4.05169 0.793701 9.39633e-08 0.00522808 -2.75801e-18 1
159 12.6992 4.84539 -6.41166e-16 9.39633e-08 0.00522808 -1.00788e-17 1
161 13.4929 4.82646 0.793701 7.57422e-08 0.00403804 -7.33923e-18 1
538 13.4929 4.03276 1.5874 7.57422e-08 0.00403804 1.39916e-19 1
579 12.6992 4.84539 1.5874 9.39633e-08 0.00522808 -8.88165e-20 1
122 15.0803 3.99064 -1.93143e-16 2.67576e-08 0.00139141 -1.72209e-17 1
124 14.2866 4.01224 0.793701 5.25268e-08 0.00274856 -1.03085e-17 1
126 15.874 3.9685 0.793701 1.86857e-17 -5.1347e-17 -1.65939e-18 1
163 14.2866 4.80594 -3.63562e-16 5.25268e-08 0.00274856 -2.85284e-17 1
165 15.0803 4.78435 0.793701 2.67576e-08 0.00139141 -4.5578e-18 1
167 15.874 4.7622 -2.07852e-18 1.04895e-17 -5.55768e-17 -2.87872e-18 1
542 15.0803 3.99064 1.5874 2.67576e-08 0.00139141 7.82817e-21 1
583 14.2866 4.80594 1.5874 5.25268e-08 0.00274856 -8.03484e-20 1
587 15.874 4.7622 1.5874 1.48669e-17 -5.4681e-17 -6.0902e-20 1
128 0.793701 5.57805 -1.75261e-16 -2.67576e-08 0.00139141 -9.32839e-21 1
130 -5.07018e-17 5.5559 0.793701 -6.52489e-17 -6.30327e-17 -3.44542e-19 1
134 1.5874 5.59964 0.793701 -5.25268e-08 0.00274856 -1.87882e-19 1
169 -3.70488e-17 6.3496 -8.60118e-20 -4.57506e-17 -3.92541e-17 -1.49528e-19 1
171 0.793701 6.37175 0.793701 -2.67576e-08 0.00139141 -2.38067e-19 1
173 1.5874 6.39334 -3.41836e-16 -5.25268e-08 0.00274856 -4.96811e-20 1
548 0.793701 5.57805 1.5874 -2.67576e-08 0.00139141 -5.4997e-19 1
589 -3.58989e-17 6.3496 1.5874 -4.45652e-17 -3.97392e-17 -1.86406e-18 1
593 1.5874 6.39334 1.5874 -5.25268e-08 0.00274856 -3.40115e-19 1
132 2.3811 5.62016 -4.98762e-16 -7.57422e-08 0.00403804 -8.80625e-21 1
138 3.1748 5.63909 0.793701 -9.39633e-08 0.00522808 2.97372e-20 1
175 2.3811 6.41386 0.793701 -7.57422e-08 0.00403804 -5.40595e-20 1
177 3.1748 6.43279 -6.3484e-16 -9.39633e-08 0.00522808 -1.42263e-20 1
552 2.3811 5.62016 1.5874 -7.57422e-08 0.00403804 -1.75341e-19 1
597 3.1748 6.43279 1.5874 -9.39633e-08 0.00522808 -1.15134e-19 1
136 3.9685 5.65598 -7.59513e-16 -1.04445e-07 0.00628939 1.78327e-20 1
142 4.7622 5.6704 0.793701 -1.05822e-07 0.00719584 5.63314e-20 1
179 3.9685 6.44968 0.793701 -1.04445e-07 0.00628939 3.62197e-20 1
181 4.7622 6.4641 -8.40151e-16 -1.05822e-07 0.00719584 -4.57234e-20 1
556 3.9685 5.65598 1.5874 -1.04445e-07 0.00628939 5.18491e-20 1
601 4.7622 6.4641 1.5874 -1.05822e-07 0.00719584 1.88147e-19 1
140 5.5559 5.682 -9.26782e-16 -9.71583e-08 0.0079251 -2.70285e-20 1
146 6.34961 5.6905 0.793701 -6.78757e-08 0.00845922 1.03751e-19 1
183 5.5559 6.4757 0.793701 -9.71583e-08 0.0079251 2.33517e-19 1
185 6.34961 6.4842 -9.86025e-16 -6.78757e-08 0.00845922 -5.88729e-20 1
560 5.5559 5.682 1.5874 -9.71583e-08 0.0079251 1.65978e-19 1
605 6.34961 6.4842 1.5874 -6.78757e-08 0.00845922 7.46201e-19 1
144 7.14331 5.69568 -9.9521e-16 -2.37353e-09 0.00878505 -6.41644e-21 1
148 8.7307 5.69568 -9.93951e-16 2.37353e-09 0.00878505 2.42621e-20 1
150 7.93701 5.69742 0.793701 -6.83125e-19 0.00889455 -2.32941e-19 1
187 7.14331 6.48938 0.793701 -2.37353e-09 0.00878505 2.56982e-19 1
189 7.93701 6.49112 -1.00008e-15 -8.25925e-19 0.00889455 -1.46611e-20 1
191 8.7307 6.48938 0.793701 2.37353e-09 0.00878505 -7.53097e-19 1
564 7.14331 5.69568 1.5874 -2.37353e-09 0.00878505 1.35029e-19 1
568 8.7307 5.69568 1.5874 2.37353e-09 0.00878505 -7.48725e-19 1
609 7.93701 6.49112 1.5874 -1.85538e-18 0.00889455 1.39362e-19 1
152 10.3181 5.682 -9.27087e-16 9.71583e-08 0.0079251 5.48011e-21 1
154 9.52441 5.6905 0.793701 6.78757e-08 0.00845922 -6.92083e-19 1
193 9.52441 6.4842 -9.6604e-16 6.78757e-08 0.00845922 -7.92494e-22 1
195 10.3181 6.4757 0.793701 9.71583e-08 0.0079251 -8.48965e-19 1
572 10.3181 5.682 1.5874 9.71583e-08 0.0079251 -7.79742e-19 1
613 9.52441 6.4842 1.5874 6.78757e-08 0.00845922 -1.95148e-18 1
156 11.9055 5.65598 -7.56882e-16 1.04445e-07 0.00628939 -1.28363e-18 1
158 11.1118 5.6704 0.793701 1.05822e-07 0.00719584 -3.42072e-19 1
197 11.1118 6.4641 -8.61857e-16 1.05822e-07 0.00719584 -1.30801e-19 1
199 11.9055 6.44968 0.793701 1.04445e-07 0.00628939 -9.10211e-19 1
576 11.9055 5.65598 1.5874 1.04445e-07 0.00628939 -3.39426e-19 1
617 11.1118 6.4641 1.5874 1.05822e-07 0.00719584 -7.73093e-19 1
160 13.4929 5.62016 -5.05696e-16 7.57422e-08 0.00403804 -2.03425e-17 1
162 12.6992 5.63909 0.793701 9.39633e-08 0.00522808 -2.4273e-18 1
201 12.6992 6.43279 -6.35616e-16 9.39633e-08 0.00522808 -5.3701e-18 1
203 13.4929 6.41386 0.793701 7.57422e-08 0.00403804 -5.8555e-18 1
580 13.4929 5.62016 1.5874 7.57422e-08 0.00403804 -4.60074e-19 1
621 12.6992 6.43279 1.5874 9.39633e-08 0.00522808 -1.05682e-18 1
164 15.0803 5.57805 -1.80067e-16 2.67576e-08 0.00139141 -1.09282e-17 1
166 14.2866 5.59964 0.793701 5.25268e-08 0.00274856 -6.21122e-18 1
168 15.874 5.5559 0.793701 1.06311e-17 -5.63085e-17 -1.0275e-18 1
205 14.2866 6.39334 -3.4542e-16 5.25268e-08 0.00274856 -1.71155e-17 1
207 15.0803 6.37175 0.793701 2.67576e-08 0.00139141 -1.97238e-18 1
209 15.874 6.3496 -5.09002e-19 5.606e-18 -5.98306e-17 -8.10407e-19 1
584 15.0803 5.57805 1.5874 2.67576e-08 0.00139141 -2.31059e-19 1
625 14.2866 6.39334 1.5874 5.25268e-08 0.00274856 -7.1146e-19 1
629 15.874 6.3496 1.5874 8.1339e-18 -5.80334e-17 -5.27305e-20 1
170 0.793701 7.16545 -1.75461e-16 -2.67576e-08 0.00139141 -3.85626e-19 1
172 -1.50892e-17 7.1433 0.793701 -1.82624e-17 -3.9724e-17 -6.02489e-19 1
176 1.5874 7.18704 0.793701 -5.25268e-08 0.00274856 -1.4133e-19 1
211 -2.15341e-18 7.93701 -8.93929e-19 7.44838e-19 -6.40177e-17 -4.40304e-19 1
212 0.793701 8.75285 -1.79525e-16 -2.67576e-08 0.00139141 -3.29226e-19 1
213 0.793701 7.95915 0.793701 -2.67576e-08 0.00139141 -3.8336e-19 1
214 -1.36383e-17 8.73071 0.793701 1.18261e-17 -6.95466e-17 -2.91407e-19 1
215 1.5874 7.98074 -3.45242e-16 -5.25268e-08 0.00274856 -3.3956e-19 1
218 1.5874 8.77444 0.793701 -5.25268e-08 0.00274856 -1.32959e-19 1
590 0.793701 7.16545 1.5874 -2.67576e-08 0.00139141 -9.01384e-19 1
631 -2.16918e-18 7.93701 1.5874 1.11564e-18 -6.36083e-17 -1.627e-18 1
632 0.793701 8.75285 1.5874 -2.67576e-08 0.00139141 -5.80839e-19 1
635 1.5874 7.98074 1.5874 -5.25268e-08 0.00274856 -3.80937e-19 1
174 2.3811 7.20756 -4.98107e-16 -7.57422e-08 0.00403804 -4.82053e-20 1
180 3.1748 7.22649 0.793701 -9.39633e-08 0.00522808 2.66034e-20 1
216 2.3811 8.79496 -4.99526e-16 -7.57422e-08 0.00403804 2.12596e-20 1
217 2.3811 8.00126 0.793701 -7.57422e-08 0.00403804 -4.7998e-20 1
219 3.1748 8.02019 -6.41988e-16 -9.39633e-08 0.00522808 -2.86004e-21 1
222 3.1748 8.81389 0.793701 -9.39633e-08 0.00522808 2.54807e-20 1
594 2.3811 7.20756 1.5874 -7.57422e-08 0.00403804 -1.84556e-19 1
636 2.3811 8.79496 1.5874 -7.57422e-08 0.00403804 -2.97148e-19 1
639 3.1748 8.02019 1.5874 -9.39633e-08 0.00522808 -5.58102e-20 1
178 3.9685 7.24338 -7.55995e-16 -1.04445e-07 0.00628939 -2.66221e-20 1
184 4.7622 7.2578 0.793701 -1.05822e-07 0.00719584 2.51385e-19 1
220 3.9685 8.83078 -7.59547e-16 -1.04445e-07 0.00628939 -5.94361e-21 1
221 3.9685 8.03708 0.793701 -1.04445e-07 0.00628939 1.5599e-19 1
223 4.7622 8.0515 -8.69175e-16 -1.05822e-07 0.00719584 -4.27245e-20 1
226 4.7622 8.8452 0.793701 -1.05822e-07 0.00719584 6.26087e-19 1
598 3.9685 7.24338 1.5874 -1.04445e-07 0.00628939 9.14111e-20 1
640 3.9685 8.83078 1.5874 -1.04445e-07 0.00628939 3.15925e-19 1
643 4.7622 8.0515 1.5874 -1.05822e-07 0.00719584 7.88898e-19 1
182 5.5559 7.2694 -9.31229e-16 -9.71583e-08 0.0079251 -7.40293e-20 1
188 6.34961 7.2779 0.793701 -6.78757e-08 0.00845922 8.79101e-19 1
224 5.5559 8.8568 -9.27382e-16 -9.71583e-08 0.0079251 -2.76329e-20 1
225 5.5559 8.0631 0.793701 -9.71583e-08 0.0079251 9.77185e-19 1
227 6.34961 8.0716 -9.7845e-16 -6.78757e-08 0.00845922 -5.95821e-20 1
230 6.34961 8.8653 0.793701 -6.78757e-08 0.00845922 2.48854e-18 1
602 5.5559 7.2694 1.5874 -9.71583e-08 0.0079251 1.03817e-18 1
644 5.5559 8.8568 1.5874 -9.71583e-08 0.0079251 2.7001e-18 1
647 6.34961 8.0716 1.5874 -6.78757e-08 0.00845922 3.43551e-18 1
186 7.14331 7.28308 -9.9621e-16 -2.37353e-09 0.00878505 -5.26223e-20 1
190 8.7307 7.28308 -9.92826e-16 2.37353e-09 0.00878505 -1.32559e-20 1
192 7.93701 7.28482 0.793701 -1.15388e-18 0.00889455 5.3344e-19 1
228 7.14331 8.87048 -9.94966e-16 -2.37353e-09 0.00878505 -1.90015e-20 1
229 7.14331 8.07678 0.793701 -2.37353e-09 0.00878505 2.17637e-18 1
231 7.93701 8.07852 -1.00644e-15 1.98592e-19 0.00889455 -2.85816e-20 1
232 8.7307 8.87048 -9.94303e-16 2.37353e-09 0.00878505 2.53599e-20 1
233 8.7307 8.07678 0.793701 2.37353e-09 0.00878505 1.06676e-18 1
234 7.93701 8.87222 0.793701 1.95087e-18 0.00889455 3.53573e-18 1
606 7.14331 7.28308 1.5874 -2.37353e-09 0.00878505 2.21385e-18 1
610 8.7307 7.28308 1.5874 2.37353e-09 0.00878505 -6.22772e-20 1
648 7.14331 8.87048 1.5874 -2.37353e-09 0.00878505 7.17221e-18 1
651 7.93701 8.07852 1.5874 -1.07467e-18 0.00889455 4.44906e-18 1
652 8.7307 8.87048 1.5874 2.37353e-09 0.00878505 5.93037e-18 1
194 10.3181 7.2694 -9.29545e-16 9.71583e-08 0.0079251 1.2949e-20 1
196 9.52441 7.2779 0.793701 6.78757e-08 0.00845922 -1.15017e-18 1
235 9.52441 8.0716 -9.73323e-16 6.78757e-08 0.00845922 2.068e-20 1
236 10.3181 8.8568 -9.25584e-16 9.71583e-08 0.0079251 3.73204e-19 1
237 10.3181 8.0631 0.793701 9.71583e-08 0.0079251 -3.758e-19 1
238 9.52441 8.8653 0.793701 6.78757e-08 0.00845922 1.36857e-18 1
614 10.3181 7.2694 1.5874 9.71583e-08 0.0079251 -1.7591e-18 1
655 9.52441 8.0716 1.5874 6.78757e-08 0.00845922 2.88114e-19 1
656 10.3181 8.8568 1.5874 9.71583e-08 0.0079251 1.0705e-18 1
198 11.9055 7.24338 -7.61761e-16 1.04445e-07 0.00628939 -7.81087e-19 1
200 11.1118 7.2578 0.793701 1.05822e-07 0.00719584 -5.63032e-19 1
239 11.1118 8.0515 -8.6593e-16 1.05822e-07 0.00719584 2.8408e-19 1
240 11.9055 8.83078 -7.53896e-16 1.04445e-07 0.00628939 1.81535e-18 1
241 11.9055 8.03708 0.793701 1.04445e-07 0.00628939 -5.08974e-19 1
242 11.1118 8.8452 0.793701 1.05822e-07 0.00719584 4.21482e-19 1
618 11.9055 7.24338 1.5874 1.04445e-07 0.00628939 -7.58522e-19 1
659 11.1118 8.0515 1.5874 1.05822e-07 0.00719584 -5.31556e-19 1
660 11.9055 8.83078 1.5874 1.04445e-07 0.00628939 7.11329e-20 1
202 13.4929 7.20756 -5.03412e-16 7.57422e-08 0.00403804 -1.12822e-17 1
204 12.6992 7.22649 0.793701 9.39633e-08 0.00522808 -4.2834e-18 1
243 12.6992 8.02019 -6.40272e-16 9.39633e-08 0.00522808 -3.58578e-18 1
244 13.4929 8.79496 -4.97773e-16 7.57422e-08 0.00403804 -9.6784e-18 1
245 13.4929 8.00126 0.793701 7.57422e-08 0.00403804 -5.38154e-18 1
246 12.6992 8.81389 0.793701 9.39633e-08 0.00522808 -1.41921e-19 1
622 13.4929 7.20756 1.5874 7.57422e-08 0.00403804 -2.27289e-18 1
663 12.6992 8.02019 1.5874 9.39633e-08 0.00522808 -9.86921e-19 1
664 13.4929 8.79496 1.5874 7.57422e-08 0.00403804 -3.96692e-19 1
206 15.0803 7.16545 -1.76541e-16 2.67576e-08 0.00139141 -4.59873e-18 1
208 14.2866 7.18704 0.793701 5.25268e-08 0.00274856 -4.84656e-18 1
210 15.874 7.1433 0.793701 2.67389e-18 -5.77949e-17 1.93881e-19 1
247 14.2866 7.98074 -3.46842e-16 5.25268e-08 0.00274856 -1.4537e-17 1
248 15.0803 8.75285 -1.70023e-16 2.67576e-08 0.00139141 -3.96453e-18 1
249 15.0803 7.95915 0.793701 2.67576e-08 0.00139141 -1.27674e-18 1
250 14.2866 8.77444 0.793701 5.25268e-08 0.00274856 -3.39137e-18 1
251 15.874 7.93701 4.47535e-18 -6.46747e-18 -5.85531e-17 6.01872e-18 1
252 15.874 8.73071 0.793701 -1.20359e-17 -5.28924e-17 9.85475e-19 1
626 15.0803 7.16545 1.5874 2.67576e-08 0.00139141 -2.63446e-19 1
667 14.2866 7.98074 1.5874 5.25268e-08 0.00274856 -9.59917e-19 1
668 15.0803 8.75285 1.5874 2.67576e-08 0.00139141 7.64114e-20 1
671 15.874 7.93701 1.5874 -3.18977e-18 -5.70223e-17 1.10082e-19 1
253 -4.16187e-17 9.52441 -2.35556e-18 2.1263e-17 -6.32792e-17 -6.12177e-21 1
254 0.793701 10.3402 -1.64047e-16 -2.67576e-08 0.00139141 1.85847e-19 1
255 0.793701 9.54655 0.793701 -2.67576e-08 0.00139141 -4.40412e-20 1
256 -5.28243e-17 10.3181 0.793701 2.98923e-17 -5.80031e-17 3.88196e-20 1
257 1.5874 9.56814 -3.40633e-16 -5.25268e-08 0.00274856 5.47785e-20 1
260 1.5874 10.3618 0.793701 -5.25268e-08 0.00274856 -2.54357e-19 1
673 -4.23918e-17 9.52441 1.5874 2.14092e-17 -6.30549e-17 -5.11165e-19 1
674 0.793701 10.3402 1.5874 -2.67576e-08 0.00139141 -1.01152e-18 1
677 1.5874 9.56814 1.5874 -5.25268e-08 0.00274856 -5.92029e-19 1
258 2.3811 10.3824 -4.94076e-16 -7.57422e-08 0.00403804 -6.144e-20 1
259 2.3811 9.58866 0.793701 -7.57422e-08 0.00403804 -1.28546e-19 1
261 3.1748 9.6076 -6.35025e-16 -9.39633e-08 0.00522808 3.10436e-20 1
264 3.1748 10.4013 0.793701 -9.39633e-08 0.00522808 -1.06439e-19 1
678 2.3811 10.3824 1.5874 -7.57422e-08 0.00403804 -1.06046e-18 1
681 3.1748 9.6076 1.5874 -9.39633e-08 0.00522808 -1.70467e-19 1
262 3.9685 10.4182 -7.59434e-16 -1.04445e-07 0.00628939 -1.41449e-20 1
263 3.9685 9.62448 0.793701 -1.04445e-07 0.00628939 2.31717e-19 1
265 4.7622 9.6389 -8.61724e-16 -1.05822e-07 0.00719584 -3.37634e-21 1
268 4.7622 10.4326 0.793701 -1.05822e-07 0.00719584 6.83329e-19 1
682 3.9685 10.4182 1.5874 -1.04445e-07 0.00628939 2.67653e-19 1
685 4.7622 9.6389 1.5874 -1.05822e-07 0.00719584 1.29802e-18 1
266 5.5559 10.4442 -9.27264e-16 -9.71583e-08 0.0079251 4.37551e-20 1
267 5.5559 9.6505 0.793701 -9.71583e-08 0.0079251 1.63101e-18 1
269 6.34961 9.659 -9.77559e-16 -6.78757e-08 0.00845922 1.98723e-20 1
272 6.34961 10.4527 0.793701 -6.78757e-08 0.00845922 2.7804e-18 1
686 5.5559 10.4442 1.5874 -9.71583e-08 0.0079251 2.94462e-18 1
689 6.34961 9.659 1.5874 -6.78757e-08 0.00845922 5.83079e-18 1
270 7.14331 10.4579 -9.99366e-16 -2.37353e-09 0.00878505 1.94426e-19 1
271 7.14331 9.66418 0.793701 -2.37353e-09 0.00878505 4.07781e-18 1
273 7.93701 9.66592 -1.01211e-15 5.27284e-18 0.00889455 8.28367e-20 1
274 8.7307 10.4579 -9.97599e-16 2.37353e-09 0.00878505 5.03702e-19 1
275 8.7307 9.66418 0.793701 2.37353e-09 0.00878505 3.63133e-18 1
276 7.93701 10.4596 0.793701 8.87939e-18 0.00889455 4.20346e-18 1
690 7.14331 10.4579 1.5874 -2.37353e-09 0.00878505 7.84419e-18 1
693 7.93701 9.66592 1.5874 4.66681e-18 0.00889455 8.84355e-18 1
694 8.7307 10.4579 1.5874 2.37353e-09 0.00878505 7.09824e-18 1
277 9.52441 9.659 -9.76703e-16 6.78757e-08 0.00845922 2.81895e-19 1
278 10.3181 10.4442 -9.22844e-16 9.71583e-08 0.0079251 1.34417e-18 1
279 10.3181 9.6505 0.793701 9.71583e-08 0.0079251 1.32265e-18 1
280 9.52441 10.4527 0.793701 6.78757e-08 0.00845922 2.50175e-18 1
697 9.52441 9.659 1.5874 6.78757e-08 0.00845922 4.51786e-18 1
698 10.3181 10.4442 1.5874 9.71583e-08 0.0079251 2.46129e-18 1
281 11.1118 9.6389 -8.60373e-16 1.05822e-07 0.00719584 2.19439e-18 1
282 11.9055 10.4182 -7.43941e-16 1.04445e-07 0.00628939 5.98152e-18 1
283 11.9055 9.62448 0.793701 1.04445e-07 0.00628939 1.47275e-18 1
284 11.1118 10.4326 0.793701 1.05822e-07 0.00719584 1.73991e-18 1
701 11.1118 9.6389 1.5874 1.05822e-07 0.00719584 9.52716e-19 1
702 11.9055 10.4182 1.5874 1.04445e-07 0.00628939 9.61631e-19 1
285 12.6992 9.6076 -6.25269e-16 9.39633e-08 0.00522808 3.84802e-18 1
286 13.4929 10.3824 -4.87612e-16 7.57422e-08 0.00403804 2.70808e-18 1
287 13.4929 9.58866 0.793701 7.57422e-08 0.00403804 6.3909e-20 1
288 12.6992 10.4013 0.793701 9.39633e-08 0.00522808 2.37558e-18 1
705 12.6992 9.6076 1.5874 9.39633e-08 0.00522808 4.66123e-19 1
706 13.4929 10.3824 1.5874 7.57422e-08 0.00403804 8.54155e-19 1
289 14.2866 9.56814 -3.39207e-16 5.25268e-08 0.00274856 -4.41429e-18 1
290 15.0803 10.3402 -1.77284e-16 2.67576e-08 0.00139141 2.50427e-18 1
291 15.0803 9.54655 0.793701 2.67576e-08 0.00139141 2.44139e-19 1
292 14.2866 10.3618 0.793701 5.25268e-08 0.00274856 1.65842e-18 1
293 15.874 9.52441 7.26174e-18 -2.23837e-17 -4.39972e-17 3.9935e-18 1
294 15.874 10.3181 0.793701 -2.89979e-17 -3.89341e-17 1.2938e-18 1
709 14.2866 9.56814 1.5874 5.25268e-08 0.00274856 4.47139e-19 1
710 15.0803 10.3402 1.5874 2.67576e-08 0.00139141 1.01197e-18 1
713 15.874 9.52441 1.5874 -2.06763e-17 -4.3991e-17 4.65579e-19 1
295 -6.0482e-17 11.1118 1.21584e-17 3.81662e-17 -5.83943e-17 1.93019e-19 1
296 0.793701 11.9276 -1.55409e-16 -2.67576e-08 0.00139141 5.57986e-19 1