ITEM: TIMESTEP
22000
ITEM: NUMBER OF ATOMS
8000
ITEM: BOX BOUNDS pp pp pp
0.0000000000000000e+00 3.1748021039364001e+01
0.0000000000000000e+00 1.5874010519682001e+01
0.0000000000000000e+00 1.5874010519682001e+01
ITEM: ATOMS id x y z vx vy vz c_rho_peratom
2 0.793713 0.909143 -2.51545e-19 -1.48175e-08 0.000662559 7.93565e-17 1
3 0.793713 0.115443 0.793701 -1.48175e-08 0.000662559 5.72294e-17 1
4 -1.62582e-16 0.793701 0.793701 7.11737e-17 -1.58256e-16 5.32147e-17 1
5 1.58745 0.228004 -2.751e-16 -2.8295e-08 0.00130884 9.3153e-17 1
8 1.58745 1.0217 0.793701 -2.8295e-08 0.00130884 7.14392e-17 1
43 -5.25881e-17 1.5874 3.77414e-16 5.9042e-17 -1.58574e-16 7.95508e-17 1
45 0.793713 1.70284 0.793701 -1.48175e-08 0.000662559 6.83966e-17 1
422 0.793713 0.909143 1.5874 -1.48175e-08 0.000662559 3.63758e-17 1
425 1.58745 0.228004 1.5874 -2.8295e-08 0.00130884 3.761e-17 1
463 -4.96399e-16 1.5874 1.5874 7.51226e-17 -1.40119e-16 3.94213e-17 1
6 2.38119 1.12862 -3.19304e-16 -3.97088e-08 0.0019229 1.04459e-16 1
7 2.38119 0.334917 0.793701 -3.97088e-08 0.0019229 8.11135e-17 1
9 3.17493 0.433555 -3.9474e-16 -4.79447e-08 0.00248962 9.84007e-17 1
12 3.17493 1.22726 0.793701 -4.79447e-08 0.00248962 7.1741e-17 1
426 2.38119 1.12862 1.5874 -3.97088e-08 0.0019229 4.26907e-17 1
429 3.17493 0.433555 1.5874 -4.79447e-08 0.00248962 3.84145e-17 1
10 3.96866 1.3152 -5.7861e-16 -5.19405e-08 0.00299502 6.27905e-17 1
11 3.96866 0.521498 0.793701 -5.19405e-08 0.00299502 5.31625e-17 1
16 4.76237 1.39029 0.793701 -5.15082e-08 0.00342665 4.66716e-17 1
430 3.96866 1.3152 1.5874 -5.19405e-08 0.00299502 3.3058e-17 1
433 4.76237 0.59659 1.5874 -5.15082e-08 0.00342665 2.96437e-17 1
15 5.55606 0.656991 0.793701 -4.65665e-08 0.00377389 3.8379e-17 1
20 6.34972 1.49492 0.793701 -3.22662e-08 0.0040282 2.73194e-17 1
434 5.55606 1.45069 1.5874 -4.65665e-08 0.00377389 3.66145e-17 1
437 6.34972 0.701223 1.5874 -3.22662e-08 0.0040282 2.80697e-17 1
19 7.14337 0.728203 0.793701 -8.54749e-10 0.00418334 1.18334e-17 1
23 8.73064 0.728203 0.793701 8.54749e-10 0.00418334 5.79795e-18 1
24 7.93701 1.53097 0.793701 1.44254e-17 0.00423547 1.32837e-17 1
438 7.14337 1.5219 1.5874 -8.54749e-10 0.00418334 2.10309e-17 1
441 7.93701 0.73727 1.5874 -3.36402e-18 0.00423547 1.7575e-17 1
442 8.73064 1.5219 1.5874 8.54749e-10 0.00418334 1.66844e-17 1
27 10.318 0.656991 0.793701 4.65665e-08 0.00377389 -9.26326e-19 1
28 9.52429 1.49492 0.793701 3.22662e-08 0.0040282 6.33935e-18 1
445 9.52429 0.701223 1.5874 3.22662e-08 0.0040282 1.14208e-17 1
446 10.318 1.45069 1.5874 4.65665e-08 0.00377389 2.15617e-18 1
30 11.9053 1.3152 -5.99138e-16 5.19405e-08 0.00299502 -5.63846e-18 1
31 11.9053 0.521498 0.793701 5.19405e-08 0.00299502 -2.0069e-17 1
32 11.1116 1.39029 0.793701 5.15082e-08 0.00342665 -6.04656e-18 1
449 11.1116 0.59659 1.5874 5.15082e-08 0.00342665 -3.25885e-18 1
450 11.9053 1.3152 1.5874 5.19405e-08 0.00299502 -1.69486e-17 1
33 12.6991 0.433555 -7.45457e-16 4.79447e-08 0.00248962 -2.1218e-17 1
34 13.4928 1.12862 -6.60985e-16 3.97088e-08 0.0019229 -7.71281e-18 1
35 13.4928 0.334917 0.793701 3.97088e-08 0.0019229 -1.39826e-17 1
36 12.6991 1.22726 0.793701 4.79447e-08 0.00248962 -2.00614e-17 1
453 12.6991 0.433555 1.5874 4.79447e-08 0.00248962 -2.19095e-17 1
454 13.4928 1.12862 1.5874 3.97088e-08 0.0019229 -1.35329e-17 1
37 14.2866 0.228004 -4.78815e-16 2.8295e-08 0.00130884 1.0707e-17 1
38 15.0803 0.909143 -2.20332e-16 1.48175e-08 0.000662559 1.26481e-17 1
39 15.0803 0.115443 0.793701 1.48175e-08 0.000662559 5.20292e-17 1
40 14.2866 1.0217 0.793701 2.8295e-08 0.00130884 1.22642e-17 1
41 15.874 -5.33715e-16 1.86906e-16 -3.5092e-17 -7.11482e-17 2.22329e-17 1
42 15.874 0.793701 0.793701 -2.52943e-17 -7.81791e-17 5.86985e-17 1
81 15.0803 1.70284 0.793701 1.48175e-08 0.000662559 2.20145e-17 1
83 15.874 1.5874 4.08964e-17 -3.64246e-17 -5.15896e-17 1.34888e-17 1
457 14.2866 0.228004 1.5874 2.8295e-08 0.00130884 1.01303e-17 1
458 15.0803 0.909143 1.5874 1.48175e-08 0.000662559 4.94339e-17 1
461 15.874 -4.3097e-16 1.5874 -2.2199e-17 -6.93649e-17 7.68133e-17 1
503 15.874 1.5874 1.5874 -1.71328e-17 -7.53654e-17 5.39039e-17 1
47 1.58745 1.8154 -1.92214e-16 -2.8295e-08 0.00130884 9.64397e-17 1
467 1.58745 1.8154 1.5874 -2.8295e-08 0.00130884 3.83132e-17 1
44 0.793713 2.49654 -5.36998e-17 -1.48175e-08 0.000662559 9.61128e-17 1
46 -2.50889e-16 2.3811 0.793701 7.14791e-17 -1.26545e-16 6.91846e-17 1
50 1.58745 2.60911 0.793701 -2.8295e-08 0.00130884 6.93813e-17 1
85 -6.7967e-17 3.1748 3.21931e-16 6.67091e-17 -1.18156e-16 9.45252e-17 1
87 0.793713 3.29024 0.793701 -1.48175e-08 0.000662559 6.94357e-17 1
89 1.58745 3.40281 -2.14788e-16 -2.8295e-08 0.00130884 9.09984e-17 1
464 0.793713 2.49654 1.5874 -1.48175e-08 0.000662559 3.89819e-17 1
505 -4.08409e-16 3.1748 1.5874 7.16061e-17 -1.19065e-16 3.88685e-17 1
509 1.58745 3.40281 1.5874 -2.8295e-08 0.00130884 3.5842e-17 1
49 2.38119 1.92232 0.793701 -3.97088e-08 0.0019229 7.2499e-17 1
51 3.17493 2.02096 -4.4408e-16 -4.79447e-08 0.00248962 8.75751e-17 1
471 3.17493 2.02096 1.5874 -4.79447e-08 0.00248962 4.27398e-17 1
48 2.38119 2.71602 -3.32545e-16 -3.97088e-08 0.0019229 9.2816e-17 1
54 3.17493 2.81466 0.793701 -4.79447e-08 0.00248962 6.16381e-17 1
91 2.38119 3.50972 0.793701 -3.97088e-08 0.0019229 6.5786e-17 1
468 2.38119 2.71602 1.5874 -3.97088e-08 0.0019229 4.04022e-17 1
53 3.96866 2.1089 0.793701 -5.19405e-08 0.00299502 5.14902e-17 1
475 4.76237 2.18399 1.5874 -5.15082e-08 0.00342665 3.93383e-17 1
52 3.96866 2.9026 -5.21673e-16 -5.19405e-08 0.00299502 5.45588e-17 1
58 4.76237 2.97769 0.793701 -5.15082e-08 0.00342665 4.24234e-17 1
472 3.96866 2.9026 1.5874 -5.19405e-08 0.00299502 3.868e-17 1
57 5.55606 2.24439 0.793701 -4.65665e-08 0.00377389 4.55292e-17 1
479 6.34972 2.28862 1.5874 -3.22662e-08 0.0040282 3.17096e-17 1
62 6.34972 3.08232 0.793701 -3.22662e-08 0.0040282 3.21796e-17 1
476 5.55606 3.03809 1.5874 -4.65665e-08 0.00377389 4.17893e-17 1
61 7.14337 2.3156 0.793701 -8.54749e-10 0.00418334 1.64036e-17 1
65 8.73064 2.3156 0.793701 8.54749e-10 0.00418334 1.06112e-17 1
483 7.93701 2.32467 1.5874 2.32465e-17 0.00423547 2.40277e-17 1
66 7.93701 3.11837 0.793701 1.96654e-17 0.00423547 1.77823e-17 1
480 7.14337 3.1093 1.5874 -8.54749e-10 0.00418334 2.86649e-17 1
484 8.73064 3.1093 1.5874 8.54749e-10 0.00418334 1.31788e-17 1
69 10.318 2.24439 0.793701 4.65665e-08 0.00377389 2.68344e-18 1
487 9.52429 2.28862 1.5874 3.22662e-08 0.0040282 2.98662e-18 1
70 9.52429 3.08232 0.793701 3.22662e-08 0.0040282 5.01836e-18 1
488 10.318 3.03809 1.5874 4.65665e-08 0.00377389 -8.04666e-19 1
73 11.9053 2.1089 0.793701 5.19405e-08 0.00299502 -1.02041e-17 1
491 11.1116 2.18399 1.5874 5.15082e-08 0.00342665 -1.02576e-17 1
72 11.9053 2.9026 -7.70309e-16 5.19405e-08 0.00299502 1.61285e-17 1
74 11.1116 2.97769 0.793701 5.15082e-08 0.00342665 1.55644e-17 1
492 11.9053 2.9026 1.5874 5.19405e-08 0.00299502 -1.10941e-17 1
77 13.4928 1.92232 0.793701 3.97088e-08 0.0019229 -8.87379e-18 1
75 12.6991 2.02096 -6.35057e-16 4.79447e-08 0.00248962 -7.47026e-18 1
495 12.6991 2.02096 1.5874 4.79447e-08 0.00248962 -1.76083e-17 1
76 13.4928 2.71602 -6.23737e-16 3.97088e-08 0.0019229 6.00796e-20 1
78 12.6991 2.81466 0.793701 4.79447e-08 0.00248962 -9.65448e-18 1
119 13.4928 3.50972 0.793701 3.97088e-08 0.0019229 -8.53032e-18 1
496 13.4928 2.71602 1.5874 3.97088e-08 0.0019229 -1.33474e-17 1
79 14.2866 1.8154 -5.32344e-16 2.8295e-08 0.00130884 4.78085e-18 1
499 14.2866 1.8154 1.5874 2.8295e-08 0.00130884 5.84687e-18 1
80 15.0803 2.49654 -1.71161e-16 1.48175e-08 0.000662559 1.44204e-17 1
82 14.2866 2.60911 0.793701 2.8295e-08 0.00130884 2.60813e-18 1
84 15.874 2.3811 0.793701 -2.95231e-17 -5.77774e-17 2.49127e-17 1
121 14.2866 3.40281 -4.0134e-16 2.8295e-08 0.00130884 7.57895e-18 1
123 15.0803 3.29024 0.793701 1.48175e-08 0.000662559 1.07425e-17 1
125 15.874 3.1748 2.06724e-16 -4.94586e-17 -7.72501e-17 3.07655e-17 1
500 15.0803 2.49654 1.5874 1.48175e-08 0.000662559 1.9155e-17 1
541 14.2866 3.40281 1.5874 2.8295e-08 0.00130884 -7.75037e-18 1
545 15.874 3.1748 1.5874 -2.61952e-17 -8.8568e-17 1.67306e-17 1
86 0.793713 4.08395 -1.34002e-16 -1.48175e-08 0.000662559 8.86292e-17 1
88 -2.23476e-16 3.9685 0.793701 7.33949e-17 -1.17513e-16 7.07782e-17 1
92 1.58745 4.19651 0.793701 -2.8295e-08 0.00130884 6.10282e-17 1
127 3.55436e-17 4.7622 4.15417e-16 7.87561e-17 -1.06847e-16 8.67984e-17 1
129 0.793713 4.87765 0.793701 -1.48175e-08 0.000662559 6.17622e-17 1
131 1.58745 4.99021 -4.81119e-16 -2.8295e-08 0.00130884 7.64688e-17 1
506 0.793713 4.08395 1.5874 -1.48175e-08 0.000662559 3.67837e-17 1
547 -3.7742e-16 4.7622 1.5874 7.14277e-17 -1.1103e-16 4.01025e-17 1
551 1.58745 4.99021 1.5874 -2.8295e-08 0.00130884 3.33665e-17 1
93 3.17493 3.60836 -3.49827e-16 -4.79447e-08 0.00248962 7.74527e-17 1
513 3.17493 3.60836 1.5874 -4.79447e-08 0.00248962 4.08786e-17 1
90 2.38119 4.30342 -4.21081e-16 -3.97088e-08 0.0019229 8.37602e-17 1
96 3.17493 4.40206 0.793701 -4.79447e-08 0.00248962 6.16984e-17 1
133 2.38119 5.09712 0.793701 -3.97088e-08 0.0019229 6.00345e-17 1
135 3.17493 5.19576 -5.39075e-16 -4.79447e-08 0.00248962 7.10343e-17 1
510 2.38119 4.30342 1.5874 -3.97088e-08 0.0019229 3.71832e-17 1
555 3.17493 5.19576 1.5874 -4.79447e-08 0.00248962 3.25898e-17 1
95 3.96866 3.6963 0.793701 -5.19405e-08 0.00299502 4.78536e-17 1
517 4.76237 3.77139 1.5874 -5.15082e-08 0.00342665 3.84728e-17 1
94 3.96866 4.49 -3.23199e-16 -5.19405e-08 0.00299502 5.23646e-17 1
100 4.76237 4.56509 0.793701 -5.15082e-08 0.00342665 4.11795e-17 1
137 3.96866 5.2837 0.793701 -5.19405e-08 0.00299502 4.0215e-17 1
514 3.96866 4.49 1.5874 -5.19405e-08 0.00299502 3.31374e-17 1
559 4.76237 5.35879 1.5874 -5.15082e-08 0.00342665 2.27323e-17 1
99 5.55606 3.83179 0.793701 -4.65665e-08 0.00377389 4.25531e-17 1
521 6.34972 3.87602 1.5874 -3.22662e-08 0.0040282 3.54636e-17 1
104 6.34972 4.66973 0.793701 -3.22662e-08 0.0040282 3.69651e-17 1
518 5.55606 4.62549 1.5874 -4.65665e-08 0.00377389 3.08263e-17 1
103 7.14337 3.903 0.793701 -8.54749e-10 0.00418334 2.94444e-17 1
107 8.73064 3.903 0.793701 8.54749e-10 0.00418334 1.42487e-17 1
525 7.93701 3.91207 1.5874 -6.50901e-18 0.00423547 2.77266e-17 1
108 7.93701 4.70577 0.793701 -1.54166e-17 0.00423547 2.7045e-17 1
522 7.14337 4.69671 1.5874 -8.54749e-10 0.00418334 3.09519e-17 1
526 8.73064 4.69671 1.5874 8.54749e-10 0.00418334 2.74329e-17 1
111 10.318 3.83179 0.793701 4.65665e-08 0.00377389 2.83674e-17 1
529 9.52429 3.87602 1.5874 3.22662e-08 0.0040282 7.18674e-18 1
112 9.52429 4.66973 0.793701 3.22662e-08 0.0040282 2.35152e-17 1
530 10.318 4.62549 1.5874 4.65665e-08 0.00377389 2.11847e-17 1
115 11.9053 3.6963 0.793701 5.19405e-08 0.00299502 1.66547e-17 1
533 11.1116 3.77139 1.5874 5.15082e-08 0.00342665 1.30303e-17 1
114 11.9053 4.49 -9.23933e-16 5.19405e-08 0.00299502 1.63404e-17 1
116 11.1116 4.56509 0.793701 5.15082e-08 0.00342665 4.24048e-17 1
157 11.9053 5.2837 0.793701 5.19405e-08 0.00299502 1.5072e-17 1
534 11.9053 4.49 1.5874 5.19405e-08 0.00299502 5.92671e-18 1
575 11.1116 5.35879 1.5874 5.15082e-08 0.00342665 1.62532e-17 1
537 12.6991 3.60836 1.5874 4.79447e-08 0.00248962 -1.42301e-17 1
118 13.4928 4.30342 -5.98276e-16 3.97088e-08 0.0019229 -3.11964e-18 1
120 12.6991 4.40206 0.793701 4.79447e-08 0.00248962 -4.0434e-18 1
161 13.4928 5.09712 0.793701 3.97088e-08 0.0019229 -1.23527e-17 1
538 13.4928 4.30342 1.5874 3.97088e-08 0.0019229 -1.56576e-17 1
579 12.6991 5.19576 1.5874 4.79447e-08 0.00248962 -6.3279e-18 1
122 15.0803 4.08395 -1.37736e-16 1.48175e-08 0.000662559 1.61185e-17 1
124 14.2866 4.19651 0.793701 2.8295e-08 0.00130884 -4.95231e-18 1
126 15.874 3.9685 0.793701 -4.35458e-17 -9.5459e-17 1.89107e-17 1
163 14.2866 4.99021 -4.7468e-16 2.8295e-08 0.00130884 -2.35542e-18 1
165 15.0803 4.87765 0.793701 1.48175e-08 0.000662559 4.41641e-18 1
167 15.874 4.7622 2.31096e-16 -5.88715e-17 -9.22509e-17 2.63231e-17 1
542 15.0803 4.08395 1.5874 1.48175e-08 0.000662559 -3.48419e-18 1
583 14.2866 4.99021 1.5874 2.8295e-08 0.00130884 -2.05367e-18 1
587 15.874 4.7622 1.5874 -3.61475e-17 -9.77118e-17 8.74458e-19 1
128 0.793713 5.67135 -2.96034e-16 -1.48175e-08 0.000662559 7.35669e-17 1
130 -2.46368e-16 5.5559 0.793701 7.74777e-17 -9.87247e-17 6.82816e-17 1
134 1.58745 5.78391 0.793701 -2.8295e-08 0.00130884 5.48838e-17 1
169 3.83551e-17 6.3496 4.12507e-16 8.31794e-17 -8.56896e-17 7.48009e-17 1
171 0.793713 6.46505 0.793701 -1.48175e-08 0.000662559 5.93697e-17 1
173 1.58745 6.57761 -5.01236e-16 -2.8295e-08 0.00130884 6.29062e-17 1
548 0.793713 5.67135 1.5874 -1.48175e-08 0.000662559 3.73393e-17 1
589 -2.81216e-16 6.3496 1.5874 7.80351e-17 -8.96849e-17 4.21965e-17 1
593 1.58745 6.57761 1.5874 -2.8295e-08 0.00130884 3.65967e-17 1
132 2.38119 5.89082 -6.66014e-16 -3.97088e-08 0.0019229 7.02814e-17 1
138 3.17493 5.98946 0.793701 -4.79447e-08 0.00248962 4.87012e-17 1
175 2.38119 6.68452 0.793701 -3.97088e-08 0.0019229 5.70485e-17 1
177 3.17493 6.78316 -6.46484e-16 -4.79447e-08 0.00248962 5.48096e-17 1
552 2.38119 5.89082 1.5874 -3.97088e-08 0.0019229 3.3427e-17 1
597 3.17493 6.78316 1.5874 -4.79447e-08 0.00248962 3.21542e-17 1
136 3.96866 6.0774 -4.85865e-16 -5.19405e-08 0.00299502 3.8433e-17 1
142 4.76237 6.15249 0.793701 -5.15082e-08 0.00342665 1.99244e-17 1
179 3.96866 6.8711 0.793701 -5.19405e-08 0.00299502 3.06999e-17 1
181 4.76237 6.94619 -4.79448e-16 -5.15082e-08 0.00342665 1.70466e-17 1
556 3.96866 6.0774 1.5874 -5.19405e-08 0.00299502 2.26338e-17 1
601 4.76237 6.94619 1.5874 -5.15082e-08 0.00342665 2.00675e-17 1
141 5.55606 5.41919 0.793701 -4.65665e-08 0.00377389 2.66779e-17 1
563 6.34972 5.46343 1.5874 -3.22662e-08 0.0040282 2.35671e-17 1
146 6.34972 6.25713 0.793701 -3.22662e-08 0.0040282 1.67993e-17 1
183 5.55606 7.0066 0.793701 -4.65665e-08 0.00377389 1.25196e-17 1
560 5.55606 6.21289 1.5874 -4.65665e-08 0.00377389 1.65384e-17 1
605 6.34972 7.05083 1.5874 -3.22662e-08 0.0040282 1.81585e-17 1
145 7.14337 5.49041 0.793701 -8.54749e-10 0.00418334 2.85858e-17 1
149 8.73064 5.49041 0.793701 8.54749e-10 0.00418334 2.23608e-17 1
567 7.93701 5.49947 1.5874 -2.46149e-17 0.00423547 3.21352e-17 1
150 7.93701 6.29317 0.793701 -1.96304e-17 0.00423547 2.14985e-17 1
187 7.14337 7.07781 0.793701 -8.54749e-10 0.00418334 2.02888e-17 1
191 8.73064 7.07781 0.793701 8.54749e-10 0.00418334 2.37242e-17 1
564 7.14337 6.28411 1.5874 -8.54749e-10 0.00418334 2.21486e-17 1
568 8.73064 6.28411 1.5874 8.54749e-10 0.00418334 2.83711e-17 1
609 7.93701 7.08687 1.5874 -1.2747e-17 0.00423547 2.16015e-17 1
153 10.318 5.41919 0.793701 4.65665e-08 0.00377389 3.47402e-17 1
571 9.52429 5.46343 1.5874 3.22662e-08 0.0040282 2.40854e-17 1
154 9.52429 6.25713 0.793701 3.22662e-08 0.0040282 1.91853e-17 1
195 10.318 7.0066 0.793701 4.65665e-08 0.00377389 1.1219e-17 1
572 10.318 6.21289 1.5874 4.65665e-08 0.00377389 7.35128e-18 1
613 9.52429 7.05083 1.5874 3.22662e-08 0.0040282 1.14568e-17 1
156 11.9053 6.0774 -5.94509e-16 5.19405e-08 0.00299502 2.10324e-17 1
158 11.1116 6.15249 0.793701 5.15082e-08 0.00342665 2.11327e-17 1
199 11.9053 6.8711 0.793701 5.19405e-08 0.00299502 2.11584e-17 1
576 11.9053 6.0774 1.5874 5.19405e-08 0.00299502 9.79589e-18 1
617 11.1116 6.94619 1.5874 5.15082e-08 0.00342665 7.2705e-18 1
160 13.4928 5.89082 -5.24752e-16 3.97088e-08 0.0019229 -1.56307e-17 1
162 12.6991 5.98946 0.793701 4.79447e-08 0.00248962 -8.34354e-19 1
201 12.6991 6.78316 -4.83947e-16 4.79447e-08 0.00248962 3.49489e-18 1
203 13.4928 6.68452 0.793701 3.97088e-08 0.0019229 2.8392e-17 1
580 13.4928 5.89082 1.5874 3.97088e-08 0.0019229 1.79673e-17 1
621 12.6991 6.78316 1.5874 4.79447e-08 0.00248962 4.14064e-17 1
164 15.0803 5.67135 -2.33898e-16 1.48175e-08 0.000662559 8.07849e-18 1
166 14.2866 5.78391 0.793701 2.8295e-08 0.00130884 8.26925e-18 1
168 15.874 5.5559 0.793701 -4.42796e-17 -8.97795e-17 1.52849e-17 1
205 14.2866 6.57761 -4.60317e-16 2.8295e-08 0.00130884 5.29454e-18 1
207 15.0803 6.46505 0.793701 1.48175e-08 0.000662559 1.70541e-17 1
209 15.874 6.3496 1.39343e-16 -5.52979e-17 -8.47253e-17 2.14308e-17 1
584 15.0803 5.67135 1.5874 1.48175e-08 0.000662559 5.26107e-18 1
625 14.2866 6.57761 1.5874 2.8295e-08 0.00130884 2.64228e-17 1
629 15.874 6.3496 1.5874 -4.12346e-17 -8.46368e-17 1.0759e-18 1
170 0.793713 7.25875 -3.93642e-16 -1.48175e-08 0.000662559 6.25644e-17 1
172 -8.87472e-17 7.1433 0.793701 8.33735e-17 -8.46735e-17 6.45987e-17 1
176 1.58745 7.37131 0.793701 -2.8295e-08 0.00130884 5.91391e-17 1
211 1.14567e-16 7.93701 2.78713e-16 8.80112e-17 -8.21985e-17 6.50012e-17 1
213 0.793713 8.05245 0.793701 -1.48175e-08 0.000662559 5.1123e-17 1
214 1.97385e-16 8.73071 0.793701 8.6083e-17 -9.26128e-17 5.02719e-17 1
215 1.58745 8.16501 -5.20351e-16 -2.8295e-08 0.00130884 6.02214e-17 1
590 0.793713 7.25875 1.5874 -1.48175e-08 0.000662559 3.63625e-17 1
631 -5.71488e-17 7.93701 1.5874 8.16968e-17 -9.54065e-17 3.6203e-17 1
635 1.58745 8.16501 1.5874 -2.8295e-08 0.00130884 5.3152e-17 1
174 2.38119 7.47822 -6.26217e-16 -3.97088e-08 0.0019229 6.32534e-17 1
180 3.17493 7.57686 0.793701 -4.79447e-08 0.00248962 5.70762e-17 1
217 2.38119 8.27192 0.793701 -3.97088e-08 0.0019229 7.40724e-17 1
219 3.17493 8.37056 -6.14373e-16 -4.79447e-08 0.00248962 5.86131e-17 1
594 2.38119 7.47822 1.5874 -3.97088e-08 0.0019229 4.91241e-17 1
639 3.17493 8.37056 1.5874 -4.79447e-08 0.00248962 4.97529e-17 1
178 3.96866 7.6648 -7.02504e-16 -5.19405e-08 0.00299502 2.76261e-17 1
184 4.76237 7.73989 0.793701 -5.15082e-08 0.00342665 2.79506e-17 1
221 3.96866 8.4585 0.793701 -5.19405e-08 0.00299502 5.03015e-17 1
598 3.96866 7.6648 1.5874 -5.19405e-08 0.00299502 3.31997e-17 1
643 4.76237 8.5336 1.5874 -5.15082e-08 0.00342665 3.99497e-17 1
188 6.34972 7.84453 0.793701 -3.22662e-08 0.0040282 1.87415e-17 1
225 5.55606 8.594 0.793701 -4.65665e-08 0.00377389 3.47035e-17 1
602 5.55606 7.8003 1.5874 -4.65665e-08 0.00377389 2.75948e-17 1
647 6.34972 8.63823 1.5874 -3.22662e-08 0.0040282 3.68941e-17 1
192 7.93701 7.88057 0.793701 -1.71728e-17 0.00423547 2.82094e-17 1
229 7.14337 8.66521 0.793701 -8.54749e-10 0.00418334 3.04377e-17 1
233 8.73064 8.66521 0.793701 8.54749e-10 0.00418334 2.22872e-17 1
606 7.14337 7.87151 1.5874 -8.54749e-10 0.00418334 2.74292e-17 1
610 8.73064 7.87151 1.5874 8.54749e-10 0.00418334 1.5936e-17 1
651 7.93701 8.67427 1.5874 -2.94332e-17 0.00423547 3.03971e-17 1
196 9.52429 7.84453 0.793701 3.22662e-08 0.0040282 1.44099e-17 1
237 10.318 8.594 0.793701 4.65665e-08 0.00377389 3.14139e-19 1
614 10.318 7.8003 1.5874 4.65665e-08 0.00377389 4.28666e-18 1
655 9.52429 8.63823 1.5874 3.22662e-08 0.0040282 1.36273e-17 1
200 11.1116 7.73989 0.793701 5.15082e-08 0.00342665 1.62226e-17 1
241 11.9053 8.4585 0.793701 5.19405e-08 0.00299502 5.41305e-17 1
618 11.9053 7.6648 1.5874 5.19405e-08 0.00299502 3.91011e-17 1
659 11.1116 8.5336 1.5874 5.15082e-08 0.00342665 1.85018e-17 1
202 13.4928 7.47822 -6.20791e-16 3.97088e-08 0.0019229 2.52644e-17 1
204 12.6991 7.57686 0.793701 4.79447e-08 0.00248962 5.56569e-17 1
243 12.6991 8.37056 -8.45963e-16 4.79447e-08 0.00248962 6.03952e-17 1
245 13.4928 8.27192 0.793701 3.97088e-08 0.0019229 7.35359e-17 1
622 13.4928 7.47822 1.5874 3.97088e-08 0.0019229 5.05506e-17 1
663 12.6991 8.37056 1.5874 4.79447e-08 0.00248962 5.57058e-17 1
206 15.0803 7.25875 -2.1558e-16 1.48175e-08 0.000662559 1.79243e-17 1
208 14.2866 7.37131 0.793701 2.8295e-08 0.00130884 3.58747e-17 1
210 15.874 7.1433 0.793701 -4.98187e-17 -8.042e-17 1.51281e-17 1
247 14.2866 8.16501 -5.50488e-16 2.8295e-08 0.00130884 4.04338e-17 1
249 15.0803 8.05245 0.793701 1.48175e-08 0.000662559 1.58512e-17 1
251 15.874 7.93701 8.33008e-17 -5.70194e-17 -7.19896e-17 1.78246e-17 1
252 15.874 8.73071 0.793701 -5.99325e-17 -6.90903e-17 5.66681e-18 1
626 15.0803 7.25875 1.5874 1.48175e-08 0.000662559 5.29748e-18 1
667 14.2866 8.16501 1.5874 2.8295e-08 0.00130884 2.73214e-17 1
671 15.874 7.93701 1.5874 -6.38362e-17 -7.8791e-17 -3.84094e-18 1
212 0.793713 8.84615 -2.95552e-16 -1.48175e-08 0.000662559 5.35466e-17 1
632 0.793713 8.84615 1.5874 -1.48175e-08 0.000662559 4.04102e-17 1
218 1.58745 8.95871 0.793701 -2.8295e-08 0.00130884 6.56562e-17 1
253 3.38064e-16 9.52441 2.34075e-16 9.04234e-17 -1.01337e-16 6.06756e-17 1
254 0.793713 10.4335 -3.48161e-17 -1.48175e-08 0.000662559 5.16879e-17 1
255 0.793713 9.63985 0.793701 -1.48175e-08 0.000662559 4.75158e-17 1
256 4.68981e-16 10.3181 0.793701 8.38201e-17 -1.13563e-16 3.74432e-17 1
257 1.58745 9.75241 -1.19094e-16 -2.8295e-08 0.00130884 6.76238e-17 1
260 1.58745 10.5461 0.793701 -2.8295e-08 0.00130884 6.79942e-17 1
673 4.67949e-16 9.52441 1.5874 9.08921e-17 -1.15956e-16 1.54503e-17 1
674 0.793713 10.4335 1.5874 -1.48175e-08 0.000662559 3.63917e-17 1
677 1.58745 9.75241 1.5874 -2.8295e-08 0.00130884 5.61525e-17 1
216 2.38119 9.06562 -3.74083e-16 -3.97088e-08 0.0019229 7.6005e-17 1
222 3.17493 9.16426 0.793701 -4.79447e-08 0.00248962 6.86774e-17 1
636 2.38119 9.06562 1.5874 -3.97088e-08 0.0019229 5.62341e-17 1
259 2.38119 9.85932 0.793701 -3.97088e-08 0.0019229 7.55958e-17 1
261 3.17493 9.95796 -6.52241e-16 -4.79447e-08 0.00248962 7.89135e-17 1
681 3.17493 9.95796 1.5874 -4.79447e-08 0.00248962 3.50881e-17 1
220 3.96866 9.2522 -5.96079e-16 -5.19405e-08 0.00299502 5.26016e-17 1
226 4.76237 9.3273 0.793701 -5.15082e-08 0.00342665 5.38387e-17 1
640 3.96866 9.2522 1.5874 -5.19405e-08 0.00299502 4.2775e-17 1
263 3.96866 10.0459 0.793701 -5.19405e-08 0.00299502 6.12128e-17 1
685 4.76237 10.121 1.5874 -5.15082e-08 0.00342665 4.33791e-17 1
230 6.34972 9.43193 0.793701 -3.22662e-08 0.0040282 3.92979e-17 1
644 5.55606 9.3877 1.5874 -4.65665e-08 0.00377389 3.87256e-17 1
267 5.55606 10.1814 0.793701 -4.65665e-08 0.00377389 4.22765e-17 1
689 6.34972 10.2256 1.5874 -3.22662e-08 0.0040282 4.47049e-17 1
234 7.93701 9.46798 0.793701 -1.96339e-17 0.00423547 2.88683e-17 1
648 7.14337 9.45891 1.5874 -8.54749e-10 0.00418334 4.6654e-17 1
652 8.73064 9.45891 1.5874 8.54749e-10 0.00418334 2.15781e-17 1
271 7.14337 10.2526 0.793701 -8.54749e-10 0.00418334 3.59158e-17 1
275 8.73064 10.2526 0.793701 8.54749e-10 0.00418334 1.61305e-17 1
693 7.93701 10.2617 1.5874 -3.01559e-17 0.00423547 3.69916e-17 1
238 9.52429 9.43193 0.793701 3.22662e-08 0.0040282 3.78884e-18 1
656 10.318 9.3877 1.5874 4.65665e-08 0.00377389 1.72083e-17 1
279 10.318 10.1814 0.793701 4.65665e-08 0.00377389 -6.81848e-18 1
697 9.52429 10.2256 1.5874 3.22662e-08 0.0040282 1.82484e-17 1
240 11.9053 9.2522 -7.9319e-16 5.19405e-08 0.00299502 5.35205e-17 1
242 11.1116 9.3273 0.793701 5.15082e-08 0.00342665 1.69695e-17 1
660 11.9053 9.2522 1.5874 5.19405e-08 0.00299502 3.83028e-17 1
283 11.9053 10.0459 0.793701 5.19405e-08 0.00299502 4.16209e-17 1
701 11.1116 10.121 1.5874 5.15082e-08 0.00342665 1.83626e-17 1
244 13.4928 9.06562 -7.67903e-16 3.97088e-08 0.0019229 6.7013e-17 1
246 12.6991 9.16426 0.793701 4.79447e-08 0.00248962 8.69685e-17 1
664 13.4928 9.06562 1.5874 3.97088e-08 0.0019229 4.84943e-17 1
285 12.6991 9.95796 -7.63182e-16 4.79447e-08 0.00248962 4.8179e-17 1
287 13.4928 9.85932 0.793701 3.97088e-08 0.0019229 7.28151e-17 1
705 12.6991 9.95796 1.5874 4.79447e-08 0.00248962 4.76453e-17 1
248 15.0803 8.84615 -2.01342e-16 1.48175e-08 0.000662559 2.42356e-17 1
668 15.0803 8.84615 1.5874 1.48175e-08 0.000662559 8.66761e-18 1
250 14.2866 8.95871 0.793701 2.8295e-08 0.00130884 4.71099e-17 1
289 14.2866 9.75241 -5.20887e-16 2.8295e-08 0.00130884 4.40559e-17 1
290 15.0803 10.4335 -2.98134e-16 1.48175e-08 0.000662559 1.90423e-17 1
291 15.0803 9.63985 0.793701 1.48175e-08 0.000662559 1.57991e-17 1
292 14.2866 10.5461 0.793701 2.8295e-08 0.00130884 3.70587e-17 1
293 15.874 9.52441 3.5313e-17 -4.94937e-17 -6.67203e-17 1.59267e-17 1
294 15.874 10.3181 0.793701 -4.85758e-17 -5.86325e-17 8.68538e-18 1
709 14.2866 9.75241 1.5874 2.8295e-08 0.00130884 2.20188e-17 1
710 15.0803 10.4335 1.5874 1.48175e-08 0.000662559 3.68876e-18 1
713 15.874 9.52441 1.5874 -6.5386e-17 -6.19463e-17 -2.97823e-18 1
295 3.86554e-16 11.1118 2.15829e-16 9.68122e-17 -1.07731e-16 6.21507e-17 1
296 0.793713 12.021 -4.60221e-17 -1.48175e-08 0.000662559 6.04135e-17 1
297 0.793713 11.2273 0.793701 -1.48175e-08 0.000662559 4.25174e-17 1
298 3.49858e-16 11.9055 0.793701 9.63697e-17 -1.02245e-16 3.13413e-17 1
299 1.58745 11.3398 -2.68377e-16 -2.8295e-08 0.00130884 7.20992e-17 1
302 1.58745 12.1335 0.793701 -2.8295e-08 0.00130884 5.23397e-17 1
715 4.03634e-16 11.1118 1.5874 1.13302e-16 -1.14413e-16 -4.88321e-19 1
716 0.793713 12.021 1.5874 -1.48175e-08 0.000662559 2.13313e-17 1
719 1.58745 11.3398 1.5874 -2.8295e-08 0.00130884 4.01477e-17 1
258 2.38119 10.653 -4.67217e-16 -3.97088e-08 0.0019229 8.80704e-17 1
678 2.38119 10.653 1.5874 -3.97088e-08 0.0019229 3.36681e-17 1
264 3.17493 10.7517 0.793701 -4.79447e-08 0.00248962 6.70474e-17 1
300 2.38119 12.2404 -5.15846e-16 -3.97088e-08 0.0019229 8.59249e-17 1
301 2.38119 11.4467 0.793701 -3.97088e-08 0.0019229 6.25149e-17 1
303 3.17493 11.5454 -6.17949e-16 -4.79447e-08 0.00248962 8.15042e-17 1
306 3.17493 12.3391 0.793701 -4.79447e-08 0.00248962 5.65841e-17 1
720 2.38119 12.2404 1.5874 -3.97088e-08 0.0019229 2.40245e-17 1
723 3.17493 11.5454 1.5874 -4.79447e-08 0.00248962 3.75599e-17 1
262 3.96866 10.8396 -5.76084e-16 -5.19405e-08 0.00299502 6.8639e-17 1
268 4.76237 10.9147 0.793701 -5.15082e-08 0.00342665 4.98194e-17 1
682 3.96866 10.8396 1.5874 -5.19405e-08 0.00299502 4.8995e-17 1
305 3.96866 11.6333 0.793701 -5.19405e-08 0.00299502 6.2564e-17 1
724 3.96866 12.427 1.5874 -5.19405e-08 0.00299502 5.18812e-17 1
727 4.76237 11.7084 1.5874 -5.15082e-08 0.00342665 5.83519e-17 1
272 6.34972 11.0193 0.793701 -3.22662e-08 0.0040282 3.35806e-17 1
686 5.55606 10.9751 1.5874 -4.65665e-08 0.00377389 5.14433e-17 1
309 5.55606 11.7688 0.793701 -4.65665e-08 0.00377389 4.09116e-17 1
731 6.34972 11.813 1.5874 -3.22662e-08 0.0040282 4.71504e-17 1
276 7.93701 11.0554 0.793701 -1.74138e-17 0.00423547 2.74631e-17 1
690 7.14337 11.0463 1.5874 -8.54749e-10 0.00418334 4.43738e-17 1
694 8.73064 11.0463 1.5874 8.54749e-10 0.00418334 1.53387e-17 1
313 7.14337 11.84 0.793701 -8.54749e-10 0.00418334 3.12256e-17 1
317 8.73064 11.84 0.793701 8.54749e-10 0.00418334 2.07833e-17 1
735 7.93701 11.8491 1.5874 -3.88524e-17 0.00423547 2.90827e-17 1
280 9.52429 11.0193 0.793701 3.22662e-08 0.0040282 1.05766e-17 1
698 10.318 10.9751 1.5874 4.65665e-08 0.00377389 9.20401e-18 1
321 10.318 11.7688 0.793701 4.65665e-08 0.00377389 -1.72282e-18 1
739 9.52429 11.813 1.5874 3.22662e-08 0.0040282 9.56736e-18 1
282 11.9053 10.8396 -9.10257e-16 5.19405e-08 0.00299502 -2.9858e-18 1
284 11.1116 10.9147 0.793701 5.15082e-08 0.00342665 -6.16197e-18 1
702 11.9053 10.8396 1.5874 5.19405e-08 0.00299502 2.22594e-17 1
324 11.9053 12.427 -1.05435e-15 5.19405e-08 0.00299502 -2.18951e-17 1
325 11.9053 11.6333 0.793701 5.19405e-08 0.00299502 -3.66851e-18 1
743 11.1116 11.7084 1.5874 5.15082e-08 0.00342665 -3.32418e-18 1
744 11.9053 12.427 1.5874 5.19405e-08 0.00299502 -1.24096e-17 1
286 13.4928 10.653 -8.08626e-16 3.97088e-08 0.0019229 2.71767e-17 1
706 13.4928 10.653 1.5874 3.97088e-08 0.0019229 2.97231e-17 1
288 12.6991 10.7517 0.793701 4.79447e-08 0.00248962 4.54341e-17 1
327 12.6991 11.5454 -1.09783e-15 4.79447e-08 0.00248962 -1.48557e-17 1
328 13.4928 12.2404 -1.0096e-15 3.97088e-08 0.0019229 -2.15153e-17 1
329 13.4928 11.4467 0.793701 3.97088e-08 0.0019229 2.1631e-17 1
330 12.6991 12.3391 0.793701 4.79447e-08 0.00248962 -1.54955e-17 1
747 12.6991 11.5454 1.5874 4.79447e-08 0.00248962 8.8687e-18 1
748 13.4928 12.2404 1.5874 3.97088e-08 0.0019229 -1.13183e-17 1
331 14.2866 11.3398 -6.68135e-16 2.8295e-08 0.00130884 7.73171e-18 1
332 15.0803 12.021 -2.9283e-16 1.48175e-08 0.000662559 -3.64334e-18 1
333 15.0803 11.2273 0.793701 1.48175e-08 0.000662559 2.02416e-17 1
334 14.2866 12.1335 0.793701 2.8295e-08 0.00130884 6.47533e-18 1
335 15.874 11.1118 7.68581e-17 -3.27193e-17 -5.38349e-17 1.34155e-17 1
336 15.874 11.9055 0.793701 -1.52808e-17 -6.08918e-17 1.20193e-17 1
751 14.2866 11.3398 1.5874 2.8295e-08 0.00130884 4.00383e-18 1
752 15.0803 12.021 1.5874 1.48175e-08 0.000662559 4.40154e-18 1
755 15.874 11.1118 1.5874 -3.66431e-17 -4.97841e-17 4.26205e-18 1
337 2.64975e-16 12.6992 3.03424e-16 8.28261e-17 -1.17716e-16 7.31981e-17 1
338 0.793713 13.6084 -1.79419e-17 -1.48175e-08 0.000662559 6.58636e-17 1
339 0.793713 12.8147 0.793701 -1.48175e-08 0.000662559 4.74971e-17 1
340 5.63047e-17 13.4929 0.793701 5.99621e-17 -1.26146e-16 5.35891e-17 1
341 1.58745 12.9272 -2.88337e-16 -2.8295e-08 0.00130884 7.8003e-17 1
344 1.58745 13.7209 0.793701 -2.8295e-08 0.00130884 5.87442e-17 1
757 2.2677e-16 12.6992 1.5874 9.49042e-17 -9.43788e-17 4.77847e-18 1
758 0.793713 13.6084 1.5874 -1.48175e-08 0.000662559 2.98847e-17 1
761 1.58745 12.9272 1.5874 -2.8295e-08 0.00130884 3.28001e-17 1
342 2.38119 13.8278 -5.42395e-16 -3.97088e-08 0.0019229 9.86636e-17 1
343 2.38119 13.0341 0.793701 -3.97088e-08 0.0019229 5.85488e-17 1
345 3.17493 13.1328 -6.81845e-16 -4.79447e-08 0.00248962 8.11225e-17 1
348 3.17493 13.9265 0.793701 -4.79447e-08 0.00248962 6.29843e-17 1
762 2.38119 13.8278 1.5874 -3.97088e-08 0.0019229 3.71447e-17 1
765 3.17493 13.1328 1.5874 -4.79447e-08 0.00248962 3.77135e-17 1
310 4.76237 12.5021 0.793701 -5.15082e-08 0.00342665 5.4787e-17 1
346 3.96866 14.0144 -6.15208e-16 -5.19405e-08 0.00299502 6.29821e-17 1
347 3.96866 13.2207 0.793701 -5.19405e-08 0.00299502 5.36317e-17 1
349 4.76237 13.2958 -5.21009e-16 -5.15082e-08 0.00342665 5.75488e-17 1
352 4.76237 14.0895 0.793701 -5.15082e-08 0.00342665 4.34994e-17 1
766 3.96866 14.0144 1.5874 -5.19405e-08 0.00299502 3.9637e-17 1
769 4.76237 13.2958 1.5874 -5.15082e-08 0.00342665 4.27639e-17 1
314 6.34972 12.6067 0.793701 -3.22662e-08 0.0040282 3.72237e-17 1
728 5.55606 12.5625 1.5874 -4.65665e-08 0.00377389 4.68612e-17 1
351 5.55606 13.3562 0.793701 -4.65665e-08 0.00377389 4.41513e-17 1
356 6.34972 14.1941 0.793701 -3.22662e-08 0.0040282 3.00925e-17 1
770 5.55606 14.1499 1.5874 -4.65665e-08 0.00377389 3.69693e-17 1
773 6.34972 13.4004 1.5874 -3.22662e-08 0.0040282 3.31139e-17 1
318 7.93701 12.6428 0.793701 -3.57882e-17 0.00423547 2.10387e-17 1