ITEM: TIMESTEP
24000
ITEM: NUMBER OF ATOMS
8000
ITEM: BOX BOUNDS pp pp pp
0.0000000000000000e+00 3.1748021039364001e+01
0.0000000000000000e+00 1.5874010519682001e+01
0.0000000000000000e+00 1.5874010519682001e+01
ITEM: ATOMS id x y z vx vy vz c_rho_peratom
2 0.793716 0.915514 -5.69768e-16 3.33204e-09 0.000612784 -5.32679e-17 1
3 0.793716 0.121814 0.793701 3.33204e-09 0.000612784 1.48278e-17 1
4 -8.54239e-17 0.793701 0.793701 -1.72782e-17 -8.93078e-17 -4.18153e-18 1
5 1.58745 0.240585 -6.96193e-16 6.24237e-09 0.00121051 -4.53284e-17 1
8 1.58745 1.03429 0.793701 6.24237e-09 0.00121051 -4.61322e-17 1
43 2.4829e-17 1.5874 -8.31507e-17 -1.31193e-17 -5.15716e-17 -5.45552e-17 1
45 0.793716 1.70921 0.793701 3.33204e-09 0.000612784 -3.9039e-17 1
422 0.793716 0.915514 1.5874 3.33204e-09 0.000612784 2.12276e-17 1
425 1.58745 0.240585 1.5874 6.24237e-09 0.00121051 5.24206e-18 1
463 -2.81402e-16 1.5874 1.5874 -3.04382e-17 -7.64785e-17 9.6614e-18 1
6 2.3812 1.14709 -7.79349e-16 7.79686e-09 0.00177845 -7.21217e-17 1
7 2.3812 0.353393 0.793701 7.79686e-09 0.00177845 -5.94848e-17 1
9 3.17495 0.45747 -5.82857e-16 7.82711e-09 0.0023026 -6.31815e-17 1
12 3.17495 1.25117 0.793701 7.82711e-09 0.0023026 -8.33056e-17 1
426 2.3812 1.14709 1.5874 7.79686e-09 0.00177845 -5.12327e-17 1
429 3.17495 0.45747 1.5874 7.82711e-09 0.0023026 -4.94966e-17 1
10 3.96869 1.34396 -6.65432e-16 6.6035e-09 0.00277003 -6.43433e-17 1
11 3.96869 0.55026 0.793701 6.6035e-09 0.00277003 -6.69372e-17 1
16 4.7624 1.42319 0.793701 4.10712e-09 0.00316924 -5.96077e-17 1
430 3.96869 1.34396 1.5874 6.6035e-09 0.00277003 -5.39285e-17 1
433 4.7624 0.629489 1.5874 4.10712e-09 0.00316924 -3.5478e-17 1
15 5.55609 0.693218 0.793701 7.6483e-10 0.00349039 -5.91001e-17 1
20 6.34974 1.53359 0.793701 1.88819e-09 0.00372559 -4.84192e-17 1
434 5.55609 1.48692 1.5874 7.6483e-10 0.00349039 -2.20676e-17 1
437 6.34974 0.739886 1.5874 1.88819e-09 0.00372559 -2.82767e-17 1
19 7.14338 0.768352 0.793701 1.5803e-08 0.00386906 -6.50528e-17 1
23 8.73063 0.768352 0.793701 -1.5803e-08 0.00386906 -5.84385e-17 1
24 7.93701 1.57162 0.793701 1.67504e-17 0.00391728 -3.71632e-17 1
438 7.14338 1.56205 1.5874 1.5803e-08 0.00386906 -7.18228e-18 1
441 7.93701 0.777918 1.5874 2.34786e-17 0.00391728 -2.86023e-18 1
442 8.73063 1.56205 1.5874 -1.5803e-08 0.00386906 3.11442e-17 1
27 10.3179 0.693218 0.793701 -7.6483e-10 0.00349039 -5.3579e-17 1
28 9.52427 1.53359 0.793701 -1.88819e-09 0.00372559 -3.51286e-17 1
445 9.52427 0.739886 1.5874 -1.88819e-09 0.00372559 5.37514e-18 1
446 10.3179 1.48692 1.5874 -7.6483e-10 0.00349039 -9.24086e-19 1
30 11.9053 1.34396 -2.69601e-16 -6.6035e-09 0.00277003 -4.60012e-17 1
31 11.9053 0.55026 0.793701 -6.6035e-09 0.00277003 -3.66795e-17 1
32 11.1116 1.42319 0.793701 -4.10712e-09 0.00316924 -3.21077e-17 1
449 11.1116 0.629489 1.5874 -4.10712e-09 0.00316924 -2.25905e-17 1
450 11.9053 1.34396 1.5874 -6.6035e-09 0.00277003 -7.05834e-18 1
33 12.6991 0.45747 -2.35129e-16 -7.82711e-09 0.0023026 -3.82542e-17 1
34 13.4928 1.14709 -2.72963e-16 -7.79686e-09 0.00177845 -2.77553e-17 1
35 13.4928 0.353393 0.793701 -7.79686e-09 0.00177845 -2.68632e-17 1
36 12.6991 1.25117 0.793701 -7.82711e-09 0.0023026 -2.0852e-17 1
453 12.6991 0.45747 1.5874 -7.82711e-09 0.0023026 -1.49758e-17 1
454 13.4928 1.14709 1.5874 -7.79686e-09 0.00177845 -8.23594e-18 1
37 14.2866 0.240585 -2.84534e-16 -6.24237e-09 0.00121051 -3.00144e-17 1
38 15.0803 0.915514 -3.44483e-16 -3.33204e-09 0.000612784 -1.38339e-17 1
39 15.0803 0.121814 0.793701 -3.33204e-09 0.000612784 -3.87876e-17 1
40 14.2866 1.03429 0.793701 -6.24237e-09 0.00121051 -1.91692e-17 1
41 15.874 -3.08594e-16 -1.77406e-16 -1.68269e-17 -3.4785e-17 -3.02061e-17 1
42 15.874 0.793701 0.793701 -1.60337e-17 -3.44114e-17 -4.04806e-17 1
81 15.0803 1.70921 0.793701 -3.33204e-09 0.000612784 -1.19409e-17 1
83 15.874 1.5874 -3.39791e-16 -2.443e-17 -9.25299e-17 2.41039e-17 1
457 14.2866 0.240585 1.5874 -6.24237e-09 0.00121051 -2.15885e-17 1
458 15.0803 0.915514 1.5874 -3.33204e-09 0.000612784 -2.61958e-17 1
461 15.874 -3.9332e-16 1.5874 -1.98938e-17 -4.21753e-17 -2.8415e-17 1
503 15.874 1.5874 1.5874 -1.15926e-17 -3.27378e-17 -2.67862e-17 1
47 1.58745 1.82799 -8.2528e-16 6.24237e-09 0.00121051 -6.83137e-17 1
467 1.58745 1.82799 1.5874 6.24237e-09 0.00121051 -2.44214e-17 1
44 0.793716 2.50292 -6.35811e-16 3.33204e-09 0.000612784 -6.77057e-17 1
46 -3.02388e-16 2.3811 0.793701 -4.1266e-17 -6.89514e-17 -3.76048e-17 1
50 1.58745 2.62169 0.793701 6.24237e-09 0.00121051 -7.10519e-17 1
85 -4.99663e-17 3.1748 -1.11112e-16 -3.83347e-17 -8.93022e-17 -5.62069e-17 1
87 0.793716 3.29662 0.793701 3.33204e-09 0.000612784 -6.25396e-17 1
89 1.58745 3.41539 -8.60773e-16 6.24237e-09 0.00121051 -7.35042e-17 1
464 0.793716 2.50292 1.5874 3.33204e-09 0.000612784 -1.16266e-17 1
505 -5.00723e-16 3.1748 1.5874 -6.97952e-17 -1.04869e-16 -1.95099e-17 1
509 1.58745 3.41539 1.5874 6.24237e-09 0.00121051 -4.10912e-17 1
49 2.3812 1.94079 0.793701 7.79686e-09 0.00177845 -8.9661e-17 1
51 3.17495 2.04487 -7.94671e-16 7.82711e-09 0.0023026 -7.38301e-17 1
471 3.17495 2.04487 1.5874 7.82711e-09 0.0023026 -6.52158e-17 1
48 2.3812 2.73449 -8.88277e-16 7.79686e-09 0.00177845 -8.43108e-17 1
54 3.17495 2.83857 0.793701 7.82711e-09 0.0023026 -8.77681e-17 1
91 2.3812 3.5282 0.793701 7.79686e-09 0.00177845 -9.66489e-17 1
468 2.3812 2.73449 1.5874 7.79686e-09 0.00177845 -6.4837e-17 1
53 3.96869 2.13766 0.793701 6.6035e-09 0.00277003 -6.77792e-17 1
475 4.7624 2.21689 1.5874 4.10712e-09 0.00316924 -3.64634e-17 1
52 3.96869 2.93136 -7.31376e-16 6.6035e-09 0.00277003 -5.44454e-17 1
58 4.7624 3.01059 0.793701 4.10712e-09 0.00316924 -4.45458e-17 1
472 3.96869 2.93136 1.5874 6.6035e-09 0.00277003 -5.56674e-17 1
57 5.55609 2.28062 0.793701 7.6483e-10 0.00349039 -4.00772e-17 1
479 6.34974 2.32729 1.5874 1.88819e-09 0.00372559 -1.27948e-17 1
62 6.34974 3.12099 0.793701 1.88819e-09 0.00372559 -1.42745e-17 1
476 5.55609 3.07432 1.5874 7.6483e-10 0.00349039 -8.86597e-18 1
61 7.14338 2.35575 0.793701 1.5803e-08 0.00386906 -3.19047e-17 1
65 8.73063 2.35575 0.793701 -1.5803e-08 0.00386906 -2.60654e-17 1
483 7.93701 2.36532 1.5874 2.64403e-17 0.00391728 1.30821e-17 1
66 7.93701 3.15902 0.793701 1.28464e-17 0.00391728 -2.31329e-17 1
480 7.14338 3.14945 1.5874 1.5803e-08 0.00386906 -4.22754e-18 1
484 8.73063 3.14945 1.5874 -1.5803e-08 0.00386906 1.30105e-17 1
69 10.3179 2.28062 0.793701 -7.6483e-10 0.00349039 -2.69859e-17 1
487 9.52427 2.32729 1.5874 -1.88819e-09 0.00372559 2.51045e-17 1
70 9.52427 3.12099 0.793701 -1.88819e-09 0.00372559 -2.29634e-17 1
488 10.3179 3.07432 1.5874 -7.6483e-10 0.00349039 9.5244e-18 1
73 11.9053 2.13766 0.793701 -6.6035e-09 0.00277003 -2.74818e-17 1
491 11.1116 2.21689 1.5874 -4.10712e-09 0.00316924 -3.74615e-18 1
72 11.9053 2.93136 -3.2812e-16 -6.6035e-09 0.00277003 -5.56958e-17 1
74 11.1116 3.01059 0.793701 -4.10712e-09 0.00316924 -2.41263e-17 1
492 11.9053 2.93136 1.5874 -6.6035e-09 0.00277003 3.70991e-18 1
77 13.4928 1.94079 0.793701 -7.79686e-09 0.00177845 -7.57704e-18 1
75 12.6991 2.04487 -2.99316e-16 -7.82711e-09 0.0023026 -4.67037e-17 1
495 12.6991 2.04487 1.5874 -7.82711e-09 0.0023026 1.45189e-18 1
76 13.4928 2.73449 -2.97147e-16 -7.79686e-09 0.00177845 -3.55849e-17 1
78 12.6991 2.83857 0.793701 -7.82711e-09 0.0023026 -2.88652e-17 1
119 13.4928 3.5282 0.793701 -7.79686e-09 0.00177845 -1.87348e-17 1
496 13.4928 2.73449 1.5874 -7.79686e-09 0.00177845 1.18197e-17 1
79 14.2866 1.82799 -2.91233e-16 -6.24237e-09 0.00121051 -9.70014e-18 1
499 14.2866 1.82799 1.5874 -6.24237e-09 0.00121051 3.41159e-18 1
80 15.0803 2.50292 -2.92536e-16 -3.33204e-09 0.000612784 2.30061e-17 1
82 14.2866 2.62169 0.793701 -6.24237e-09 0.00121051 3.18821e-18 1
84 15.874 2.3811 0.793701 -3.38436e-18 -1.01088e-16 1.85023e-17 1
121 14.2866 3.41539 -2.72136e-16 -6.24237e-09 0.00121051 -6.71781e-18 1
123 15.0803 3.29662 0.793701 -3.33204e-09 0.000612784 2.21762e-17 1
125 15.874 3.1748 -2.46581e-16 -2.49115e-17 -1.34049e-16 4.115e-17 1
500 15.0803 2.50292 1.5874 -3.33204e-09 0.000612784 8.90622e-18 1
541 14.2866 3.41539 1.5874 -6.24237e-09 0.00121051 1.72907e-17 1
545 15.874 3.1748 1.5874 1.03384e-17 -1.22886e-16 2.23044e-17 1
86 0.793716 4.09032 -7.31116e-16 3.33204e-09 0.000612784 -6.44991e-17 1
88 -3.61156e-16 3.9685 0.793701 -6.44397e-17 -1.26366e-16 -5.49715e-17 1
92 1.58745 4.20909 0.793701 6.24237e-09 0.00121051 -7.50214e-17 1
127 1.52809e-17 4.7622 -3.81708e-17 -4.38427e-17 -1.54664e-16 -5.44639e-17 1
129 0.793716 4.88402 0.793701 3.33204e-09 0.000612784 -6.20628e-17 1
131 1.58745 5.00279 -8.32584e-16 6.24237e-09 0.00121051 -7.36893e-17 1
506 0.793716 4.09032 1.5874 3.33204e-09 0.000612784 -3.22067e-17 1
547 -4.42811e-16 4.7622 1.5874 -7.11004e-17 -1.46641e-16 -2.63832e-17 1
551 1.58745 5.00279 1.5874 6.24237e-09 0.00121051 -3.59186e-17 1
93 3.17495 3.63227 -8.06054e-16 7.82711e-09 0.0023026 -6.83662e-17 1
513 3.17495 3.63227 1.5874 7.82711e-09 0.0023026 -6.78595e-17 1
90 2.3812 4.3219 -8.57365e-16 7.79686e-09 0.00177845 -8.19122e-17 1
96 3.17495 4.42597 0.793701 7.82711e-09 0.0023026 -8.47253e-17 1
133 2.3812 5.1156 0.793701 7.79686e-09 0.00177845 -8.76937e-17 1
135 3.17495 5.21967 -6.64249e-16 7.82711e-09 0.0023026 -5.22625e-17 1
510 2.3812 4.3219 1.5874 7.79686e-09 0.00177845 -6.50677e-17 1
555 3.17495 5.21967 1.5874 7.82711e-09 0.0023026 -5.47071e-17 1
95 3.96869 3.72506 0.793701 6.6035e-09 0.00277003 -6.13114e-17 1
517 4.7624 3.80429 1.5874 4.10712e-09 0.00316924 -2.10219e-17 1
94 3.96869 4.51876 -5.82216e-16 6.6035e-09 0.00277003 -2.11364e-17 1
100 4.7624 4.59799 0.793701 4.10712e-09 0.00316924 -2.14285e-17 1
514 3.96869 4.51876 1.5874 6.6035e-09 0.00277003 -4.23042e-17 1
99 5.55609 3.86802 0.793701 7.6483e-10 0.00349039 -2.69894e-18 1
521 6.34974 3.91469 1.5874 1.88819e-09 0.00372559 1.44787e-17 1
104 6.34974 4.70839 0.793701 1.88819e-09 0.00372559 1.06516e-17 1
518 5.55609 4.66172 1.5874 7.6483e-10 0.00349039 1.94305e-17 1
103 7.14338 3.94315 0.793701 1.5803e-08 0.00386906 4.47547e-19 1
107 8.73063 3.94315 0.793701 -1.5803e-08 0.00386906 -1.78901e-17 1
525 7.93701 3.95272 1.5874 1.2349e-17 0.00391728 -1.98685e-18 1
108 7.93701 4.74642 0.793701 1.33476e-17 0.00391728 -8.69577e-18 1
522 7.14338 4.73685 1.5874 1.5803e-08 0.00386906 1.54534e-17 1
526 8.73063 4.73685 1.5874 -1.5803e-08 0.00386906 9.0171e-18 1
111 10.3179 3.86802 0.793701 -7.6483e-10 0.00349039 -1.65053e-17 1
529 9.52427 3.91469 1.5874 -1.88819e-09 0.00372559 2.21187e-17 1
112 9.52427 4.70839 0.793701 -1.88819e-09 0.00372559 -9.40733e-18 1
530 10.3179 4.66172 1.5874 -7.6483e-10 0.00349039 2.49639e-17 1
115 11.9053 3.72506 0.793701 -6.6035e-09 0.00277003 -2.58585e-17 1
533 11.1116 3.80429 1.5874 -4.10712e-09 0.00316924 1.25797e-17 1
116 11.1116 4.59799 0.793701 -4.10712e-09 0.00316924 -1.82627e-17 1
534 11.9053 4.51876 1.5874 -6.6035e-09 0.00277003 8.71245e-18 1
537 12.6991 3.63227 1.5874 -7.82711e-09 0.0023026 2.00567e-18 1
118 13.4928 4.3219 -2.74793e-16 -7.79686e-09 0.00177845 -3.32008e-17 1
120 12.6991 4.42597 0.793701 -7.82711e-09 0.0023026 -2.53022e-17 1
161 13.4928 5.1156 0.793701 -7.79686e-09 0.00177845 -2.58409e-17 1
538 13.4928 4.3219 1.5874 -7.79686e-09 0.00177845 4.53379e-19 1
579 12.6991 5.21967 1.5874 -7.82711e-09 0.0023026 -4.63354e-18 1
122 15.0803 4.09032 -3.57952e-16 -3.33204e-09 0.000612784 2.26845e-18 1
124 14.2866 4.20909 0.793701 -6.24237e-09 0.00121051 -3.03634e-18 1
126 15.874 3.9685 0.793701 -1.48961e-17 -1.42545e-16 3.85521e-17 1
163 14.2866 5.00279 -3.48622e-16 -6.24237e-09 0.00121051 -2.99823e-17 1
165 15.0803 4.88402 0.793701 -3.33204e-09 0.000612784 -2.53066e-18 1
167 15.874 4.7622 -1.98561e-16 -2.84108e-17 -9.7898e-17 -1.60075e-17 1
542 15.0803 4.09032 1.5874 -3.33204e-09 0.000612784 1.4743e-17 1
583 14.2866 5.00279 1.5874 -6.24237e-09 0.00121051 -4.42726e-18 1
587 15.874 4.7622 1.5874 -1.79873e-18 -1.45184e-16 2.36288e-17 1
128 0.793716 5.67772 -7.56648e-16 3.33204e-09 0.000612784 -6.4969e-17 1
130 -2.46683e-16 5.5559 0.793701 -4.52016e-17 -1.55436e-16 -4.39874e-17 1
134 1.58745 5.79649 0.793701 6.24237e-09 0.00121051 -5.3587e-17 1
169 1.24256e-16 6.3496 -7.7688e-17 -1.68704e-17 -1.51363e-16 -4.03813e-17 1
171 0.793716 6.47142 0.793701 3.33204e-09 0.000612784 -1.73299e-17 1
173 1.58745 6.59019 -7.42316e-16 6.24237e-09 0.00121051 -4.95665e-17 1
548 0.793716 5.67772 1.5874 3.33204e-09 0.000612784 -1.03076e-17 1
589 2.85653e-17 6.3496 1.5874 -7.80576e-18 -1.09107e-16 -4.50135e-18 1
593 1.58745 6.59019 1.5874 6.24237e-09 0.00121051 -1.66811e-17 1
132 2.3812 5.9093 -8.2764e-16 7.79686e-09 0.00177845 -8.17978e-17 1
138 3.17495 6.01337 0.793701 7.82711e-09 0.0023026 -8.16993e-17 1
175 2.3812 6.703 0.793701 7.79686e-09 0.00177845 -6.28544e-17 1
177 3.17495 6.80707 -6.69569e-16 7.82711e-09 0.0023026 -9.37015e-17 1
552 2.3812 5.9093 1.5874 7.79686e-09 0.00177845 -4.25918e-17 1
597 3.17495 6.80707 1.5874 7.82711e-09 0.0023026 -4.93272e-17 1
137 3.96869 5.31246 0.793701 6.6035e-09 0.00277003 -5.06899e-17 1
559 4.7624 5.39169 1.5874 4.10712e-09 0.00316924 -3.30537e-18 1
136 3.96869 6.10616 -5.94669e-16 6.6035e-09 0.00277003 -5.46417e-17 1
142 4.7624 6.18539 0.793701 4.10712e-09 0.00316924 -3.77351e-17 1
179 3.96869 6.89986 0.793701 6.6035e-09 0.00277003 -7.37832e-17 1
181 4.7624 6.97909 -5.6715e-16 4.10712e-09 0.00316924 -7.50402e-17 1
556 3.96869 6.10616 1.5874 6.6035e-09 0.00277003 -3.2655e-17 1
601 4.7624 6.97909 1.5874 4.10712e-09 0.00316924 -1.27568e-17 1
141 5.55609 5.45542 0.793701 7.6483e-10 0.00349039 -1.79587e-17 1
563 6.34974 5.50209 1.5874 1.88819e-09 0.00372559 1.61602e-17 1
146 6.34974 6.29579 0.793701 1.88819e-09 0.00372559 -3.53559e-17 1
183 5.55609 7.04282 0.793701 7.6483e-10 0.00349039 -3.6929e-17 1
560 5.55609 6.24912 1.5874 7.6483e-10 0.00349039 2.27005e-18 1
145 7.14338 5.53055 0.793701 1.5803e-08 0.00386906 -1.21443e-17 1
149 8.73063 5.53055 0.793701 -1.5803e-08 0.00386906 -1.54676e-17 1
567 7.93701 5.54012 1.5874 -6.3285e-18 0.00391728 1.06184e-19 1
150 7.93701 6.33382 0.793701 -6.88199e-18 0.00391728 -2.15824e-17 1
564 7.14338 6.32426 1.5874 1.5803e-08 0.00386906 1.77985e-18 1
568 8.73063 6.32426 1.5874 -1.5803e-08 0.00386906 -8.41197e-18 1
153 10.3179 5.45542 0.793701 -7.6483e-10 0.00349039 -1.46962e-17 1
571 9.52427 5.50209 1.5874 -1.88819e-09 0.00372559 8.3165e-18 1
154 9.52427 6.29579 0.793701 -1.88819e-09 0.00372559 -1.58069e-17 1
195 10.3179 7.04282 0.793701 -7.6483e-10 0.00349039 -1.84938e-17 1
572 10.3179 6.24912 1.5874 -7.6483e-10 0.00349039 -9.38173e-18 1
157 11.9053 5.31246 0.793701 -6.6035e-09 0.00277003 -2.27174e-17 1
575 11.1116 5.39169 1.5874 -4.10712e-09 0.00316924 5.47753e-18 1
156 11.9053 6.10616 -2.07491e-16 -6.6035e-09 0.00277003 -3.09299e-17 1
158 11.1116 6.18539 0.793701 -4.10712e-09 0.00316924 -2.19587e-17 1
199 11.9053 6.89986 0.793701 -6.6035e-09 0.00277003 -2.47893e-17 1
576 11.9053 6.10616 1.5874 -6.6035e-09 0.00277003 -1.45088e-17 1
617 11.1116 6.97909 1.5874 -4.10712e-09 0.00316924 -2.01727e-17 1
160 13.4928 5.9093 -3.59777e-16 -7.79686e-09 0.00177845 -4.45223e-17 1
162 12.6991 6.01337 0.793701 -7.82711e-09 0.0023026 -2.29511e-17 1
201 12.6991 6.80707 -2.85896e-16 -7.82711e-09 0.0023026 -3.10474e-17 1
203 13.4928 6.703 0.793701 -7.79686e-09 0.00177845 -3.57281e-17 1
580 13.4928 5.9093 1.5874 -7.79686e-09 0.00177845 -1.95365e-17 1
621 12.6991 6.80707 1.5874 -7.82711e-09 0.0023026 -3.3606e-17 1
164 15.0803 5.67772 -3.48634e-16 -3.33204e-09 0.000612784 -3.15424e-17 1
166 14.2866 5.79649 0.793701 -6.24237e-09 0.00121051 -3.12078e-17 1
168 15.874 5.5559 0.793701 -2.80416e-17 -9.8784e-17 -1.07044e-17 1
205 14.2866 6.59019 -3.61167e-16 -6.24237e-09 0.00121051 -4.29402e-17 1
207 15.0803 6.47142 0.793701 -3.33204e-09 0.000612784 -3.16892e-17 1
209 15.874 6.3496 -6.96285e-17 -3.60378e-17 -9.2002e-17 -3.09803e-17 1
584 15.0803 5.67772 1.5874 -3.33204e-09 0.000612784 -8.29062e-18 1
625 14.2866 6.59019 1.5874 -6.24237e-09 0.00121051 -3.29186e-17 1
629 15.874 6.3496 1.5874 -2.49966e-17 -1.04484e-16 -8.27571e-18 1
170 0.793716 7.26512 -5.6442e-16 3.33204e-09 0.000612784 -1.38147e-18 1
172 2.47384e-16 7.1433 0.793701 1.56745e-17 -9.49564e-17 -5.13944e-18 1
176 1.58745 7.38389 0.793701 6.24237e-09 0.00121051 -1.49332e-17 1
211 3.73459e-16 7.93701 -2.8267e-16 1.99041e-17 -1.09573e-16 1.71141e-17 1
213 0.793716 8.05882 0.793701 3.33204e-09 0.000612784 -8.02137e-19 1
214 6.35764e-16 8.73071 0.793701 1.52019e-17 -1.19733e-16 9.97175e-18 1
215 1.58745 8.17759 -3.522e-16 6.24237e-09 0.00121051 -7.36057e-19 1
590 0.793716 7.26512 1.5874 3.33204e-09 0.000612784 -6.73568e-18 1
631 4.78164e-16 7.93701 1.5874 1.3831e-17 -9.38759e-17 3.69824e-18 1
635 1.58745 8.17759 1.5874 6.24237e-09 0.00121051 -2.22762e-17 1
174 2.3812 7.4967 -4.73901e-16 7.79686e-09 0.00177845 -5.81407e-17 1
180 3.17495 7.60077 0.793701 7.82711e-09 0.0023026 -8.3422e-17 1
217 2.3812 8.2904 0.793701 7.79686e-09 0.00177845 -4.91103e-17 1
219 3.17495 8.39447 -3.22179e-16 7.82711e-09 0.0023026 -6.91276e-17 1
594 2.3812 7.4967 1.5874 7.79686e-09 0.00177845 -3.9455e-17 1
639 3.17495 8.39447 1.5874 7.82711e-09 0.0023026 -6.31547e-17 1
178 3.96869 7.69356 -5.32178e-16 6.6035e-09 0.00277003 -8.86288e-17 1
184 4.7624 7.77279 0.793701 4.10712e-09 0.00316924 -5.46692e-17 1
221 3.96869 8.48726 0.793701 6.6035e-09 0.00277003 -8.35953e-17 1
598 3.96869 7.69356 1.5874 6.6035e-09 0.00277003 -4.98934e-17 1
643 4.7624 8.56649 1.5874 4.10712e-09 0.00316924 -3.88928e-17 1
605 6.34974 7.08949 1.5874 1.88819e-09 0.00372559 -6.20313e-18 1
188 6.34974 7.88319 0.793701 1.88819e-09 0.00372559 -6.73952e-17 1
225 5.55609 8.63022 0.793701 7.6483e-10 0.00349039 -6.78744e-17 1
602 5.55609 7.83652 1.5874 7.6483e-10 0.00349039 -1.23479e-17 1
647 6.34974 8.67689 1.5874 1.88819e-09 0.00372559 -1.28862e-17 1
187 7.14338 7.11796 0.793701 1.5803e-08 0.00386906 -4.50278e-17 1
191 8.73063 7.11796 0.793701 -1.5803e-08 0.00386906 -1.82991e-17 1
609 7.93701 7.12752 1.5874 -7.05525e-18 0.00391728 -4.98545e-18 1
192 7.93701 7.92122 0.793701 -3.25183e-17 0.00391728 -4.07079e-17 1
229 7.14338 8.70536 0.793701 1.5803e-08 0.00386906 -5.37657e-17 1
233 8.73063 8.70536 0.793701 -1.5803e-08 0.00386906 -2.74921e-17 1
606 7.14338 7.91166 1.5874 1.5803e-08 0.00386906 -8.28005e-18 1
610 8.73063 7.91166 1.5874 -1.5803e-08 0.00386906 -8.13802e-18 1
651 7.93701 8.71492 1.5874 -4.4376e-17 0.00391728 -2.88578e-18 1
613 9.52427 7.08949 1.5874 -1.88819e-09 0.00372559 -1.30216e-17 1
196 9.52427 7.88319 0.793701 -1.88819e-09 0.00372559 -1.50466e-17 1
237 10.3179 8.63022 0.793701 -7.6483e-10 0.00349039 -1.97941e-17 1
614 10.3179 7.83652 1.5874 -7.6483e-10 0.00349039 -1.49497e-17 1
655 9.52427 8.67689 1.5874 -1.88819e-09 0.00372559 -9.94802e-18 1
200 11.1116 7.77279 0.793701 -4.10712e-09 0.00316924 -2.73622e-17 1
241 11.9053 8.48726 0.793701 -6.6035e-09 0.00277003 -5.11604e-17 1
618 11.9053 7.69356 1.5874 -6.6035e-09 0.00277003 -4.03691e-17 1
659 11.1116 8.56649 1.5874 -4.10712e-09 0.00316924 -2.88613e-17 1
202 13.4928 7.4967 -4.13529e-16 -7.79686e-09 0.00177845 -4.26225e-17 1
204 12.6991 7.60077 0.793701 -7.82711e-09 0.0023026 -4.16402e-17 1
243 12.6991 8.39447 -4.30645e-16 -7.82711e-09 0.0023026 -4.38571e-17 1
245 13.4928 8.2904 0.793701 -7.79686e-09 0.00177845 -6.99266e-17 1
622 13.4928 7.4967 1.5874 -7.79686e-09 0.00177845 -5.73647e-17 1
663 12.6991 8.39447 1.5874 -7.82711e-09 0.0023026 -6.57023e-17 1
206 15.0803 7.26512 -2.63866e-16 -3.33204e-09 0.000612784 -3.67474e-17 1
208 14.2866 7.38389 0.793701 -6.24237e-09 0.00121051 -4.94985e-17 1
210 15.874 7.1433 0.793701 -3.27996e-17 -1.17615e-16 -2.53044e-17 1
247 14.2866 8.17759 -4.75204e-16 -6.24237e-09 0.00121051 -5.50648e-17 1
249 15.0803 8.05882 0.793701 -3.33204e-09 0.000612784 -3.87152e-17 1
251 15.874 7.93701 -6.10763e-17 -3.65146e-17 -1.37726e-16 -3.51974e-17 1
252 15.874 8.73071 0.793701 -2.15116e-17 -1.44818e-16 -3.33417e-17 1
626 15.0803 7.26512 1.5874 -3.33204e-09 0.000612784 -2.87194e-17 1
667 14.2866 8.17759 1.5874 -6.24237e-09 0.00121051 -4.48098e-17 1
671 15.874 7.93701 1.5874 -1.76474e-17 -1.44361e-16 -1.76877e-17 1
212 0.793716 8.85252 -4.76825e-16 3.33204e-09 0.000612784 2.42839e-17 1
632 0.793716 8.85252 1.5874 3.33204e-09 0.000612784 -2.36463e-18 1
218 1.58745 8.97129 0.793701 6.24237e-09 0.00121051 -2.10798e-17 1
253 6.48715e-16 9.52441 -3.63477e-16 2.63638e-17 -1.39213e-16 4.34916e-17 1
254 0.793716 10.4399 -3.38073e-16 3.33204e-09 0.000612784 2.53048e-17 1
255 0.793716 9.64622 0.793701 3.33204e-09 0.000612784 5.10748e-18 1
256 9.02889e-16 10.3181 0.793701 2.76064e-17 -1.46446e-16 1.58037e-17 1
257 1.58745 9.76499 -2.9777e-16 6.24237e-09 0.00121051 6.86783e-18 1
260 1.58745 10.5587 0.793701 6.24237e-09 0.00121051 -3.45515e-18 1
673 1.03603e-15 9.52441 1.5874 1.17845e-17 -1.32223e-16 8.29389e-18 1
674 0.793716 10.4399 1.5874 3.33204e-09 0.000612784 8.66771e-18 1
677 1.58745 9.76499 1.5874 6.24237e-09 0.00121051 -7.98891e-18 1
216 2.3812 9.0841 -2.08409e-16 7.79686e-09 0.00177845 -2.77021e-17 1
222 3.17495 9.18818 0.793701 7.82711e-09 0.0023026 -7.67628e-17 1
636 2.3812 9.0841 1.5874 7.79686e-09 0.00177845 -3.99044e-17 1
259 2.3812 9.8778 0.793701 7.79686e-09 0.00177845 -3.99921e-17 1
261 3.17495 9.98188 -3.73647e-16 7.82711e-09 0.0023026 -4.68511e-17 1
681 3.17495 9.98188 1.5874 7.82711e-09 0.0023026 -6.07725e-17 1
220 3.96869 9.28097 -3.82289e-16 6.6035e-09 0.00277003 -6.58617e-17 1
226 4.7624 9.3602 0.793701 4.10712e-09 0.00316924 -6.4347e-17 1
640 3.96869 9.28097 1.5874 6.6035e-09 0.00277003 -6.7643e-17 1
263 3.96869 10.0747 0.793701 6.6035e-09 0.00277003 -6.64816e-17 1
685 4.7624 10.1539 1.5874 4.10712e-09 0.00316924 -4.17318e-17 1
230 6.34974 9.47059 0.793701 1.88819e-09 0.00372559 -4.28395e-17 1
644 5.55609 9.42392 1.5874 7.6483e-10 0.00349039 -2.15383e-17 1
267 5.55609 10.2176 0.793701 7.6483e-10 0.00349039 -3.48579e-17 1
689 6.34974 10.2643 1.5874 1.88819e-09 0.00372559 5.46082e-18 1
234 7.93701 9.50862 0.793701 -4.84295e-17 0.00391728 -2.65483e-17 1
648 7.14338 9.49906 1.5874 1.5803e-08 0.00386906 4.41714e-19 1
652 8.73063 9.49906 1.5874 -1.5803e-08 0.00386906 1.52792e-18 1
271 7.14338 10.2928 0.793701 1.5803e-08 0.00386906 -1.17704e-17 1
275 8.73063 10.2928 0.793701 -1.5803e-08 0.00386906 -3.72019e-17 1
693 7.93701 10.3023 1.5874 -3.53237e-17 0.00391728 5.42977e-18 1
238 9.52427 9.47059 0.793701 -1.88819e-09 0.00372559 -3.85869e-17 1
656 10.3179 9.42392 1.5874 -7.6483e-10 0.00349039 -1.15646e-17 1
279 10.3179 10.2176 0.793701 -7.6483e-10 0.00349039 -5.04509e-17 1
697 9.52427 10.2643 1.5874 -1.88819e-09 0.00372559 -3.19993e-18 1
240 11.9053 9.28097 -4.3312e-16 -6.6035e-09 0.00277003 -5.79002e-17 1
242 11.1116 9.3602 0.793701 -4.10712e-09 0.00316924 -4.0116e-17 1
660 11.9053 9.28097 1.5874 -6.6035e-09 0.00277003 -4.12744e-17 1
283 11.9053 10.0747 0.793701 -6.6035e-09 0.00277003 -5.9796e-17 1
701 11.1116 10.1539 1.5874 -4.10712e-09 0.00316924 -1.33218e-17 1
244 13.4928 9.0841 -6.58894e-16 -7.79686e-09 0.00177845 -6.94927e-17 1
246 12.6991 9.18818 0.793701 -7.82711e-09 0.0023026 -7.8034e-17 1
664 13.4928 9.0841 1.5874 -7.79686e-09 0.00177845 -6.0034e-17 1
285 12.6991 9.98188 -5.98488e-16 -7.82711e-09 0.0023026 -7.48176e-17 1
287 13.4928 9.8778 0.793701 -7.79686e-09 0.00177845 -7.19198e-17 1
705 12.6991 9.98188 1.5874 -7.82711e-09 0.0023026 -5.43425e-17 1
248 15.0803 8.85252 -3.51057e-16 -3.33204e-09 0.000612784 -4.7339e-17 1
668 15.0803 8.85252 1.5874 -3.33204e-09 0.000612784 -2.26987e-17 1
250 14.2866 8.97129 0.793701 -6.24237e-09 0.00121051 -5.15241e-17 1
289 14.2866 9.76499 -5.12407e-16 -6.24237e-09 0.00121051 -5.10575e-17 1
290 15.0803 10.4399 -2.55279e-16 -3.33204e-09 0.000612784 -3.41527e-17 1
291 15.0803 9.64622 0.793701 -3.33204e-09 0.000612784 -3.58295e-17 1
292 14.2866 10.5587 0.793701 -6.24237e-09 0.00121051 -3.51959e-17 1
293 15.874 9.52441 -1.54555e-16 -7.68293e-18 -1.23937e-16 -3.93259e-17 1
294 15.874 10.3181 0.793701 1.01088e-17 -1.21521e-16 -4.79756e-17 1
709 14.2866 9.76499 1.5874 -6.24237e-09 0.00121051 -3.18051e-17 1
710 15.0803 10.4399 1.5874 -3.33204e-09 0.000612784 -2.84811e-17 1
713 15.874 9.52441 1.5874 -1.50711e-17 -1.40578e-16 -2.8828e-17 1
295 6.86247e-16 11.1118 -3.42293e-16 4.08579e-17 -1.44084e-16 9.30503e-18 1
296 0.793716 12.0273 -3.90463e-16 3.33204e-09 0.000612784 6.2569e-18 1
297 0.793716 11.2336 0.793701 3.33204e-09 0.000612784 1.36655e-17 1
298 8.08533e-16 11.9055 0.793701 5.89868e-17 -1.43406e-16 1.12592e-17 1
299 1.58745 11.3524 -2.70035e-16 6.24237e-09 0.00121051 4.84181e-18 1
302 1.58745 12.1461 0.793701 6.24237e-09 0.00121051 5.40735e-18 1
715 1.07337e-15 11.1118 1.5874 4.85449e-17 -1.47517e-16 2.2378e-17 1
716 0.793716 12.0273 1.5874 3.33204e-09 0.000612784 2.83671e-17 1
719 1.58745 11.3524 1.5874 6.24237e-09 0.00121051 4.62725e-18 1
258 2.3812 10.6715 -3.06126e-16 7.79686e-09 0.00177845 -1.66165e-17 1
678 2.3812 10.6715 1.5874 7.79686e-09 0.00177845 -2.633e-17 1
264 3.17495 10.7756 0.793701 7.82711e-09 0.0023026 -4.99473e-17 1
300 2.3812 12.2589 -3.62337e-16 7.79686e-09 0.00177845 -1.49739e-17 1
301 2.3812 11.4652 0.793701 7.79686e-09 0.00177845 -1.7087e-17 1
303 3.17495 11.5693 -3.38865e-16 7.82711e-09 0.0023026 -3.21613e-17 1
720 2.3812 12.2589 1.5874 7.79686e-09 0.00177845 -2.42787e-18 1
723 3.17495 11.5693 1.5874 7.82711e-09 0.0023026 -2.77154e-17 1
262 3.96869 10.8684 -3.40692e-16 6.6035e-09 0.00277003 -4.44451e-17 1
268 4.7624 10.9476 0.793701 4.10712e-09 0.00316924 -4.24699e-17 1
682 3.96869 10.8684 1.5874 6.6035e-09 0.00277003 -4.89141e-17 1
305 3.96869 11.6621 0.793701 6.6035e-09 0.00277003 -3.84116e-17 1
727 4.7624 11.7413 1.5874 4.10712e-09 0.00316924 -4.26959e-17 1
272 6.34974 11.058 0.793701 1.88819e-09 0.00372559 -1.22622e-17 1
686 5.55609 11.0113 1.5874 7.6483e-10 0.00349039 -1.94281e-17 1
309 5.55609 11.805 0.793701 7.6483e-10 0.00349039 -3.25004e-17 1
731 6.34974 11.8517 1.5874 1.88819e-09 0.00372559 3.72006e-18 1
276 7.93701 11.096 0.793701 -1.23417e-17 0.00391728 -2.38763e-17 1
690 7.14338 11.0865 1.5874 1.5803e-08 0.00386906 1.48051e-17 1
694 8.73063 11.0865 1.5874 -1.5803e-08 0.00386906 -7.71745e-18 1
313 7.14338 11.8802 0.793701 1.5803e-08 0.00386906 -3.27212e-17 1
317 8.73063 11.8802 0.793701 -1.5803e-08 0.00386906 -6.66209e-17 1
735 7.93701 11.8897 1.5874 -3.12092e-17 0.00391728 -6.80816e-18 1
280 9.52427 11.058 0.793701 -1.88819e-09 0.00372559 -5.24645e-17 1
698 10.3179 11.0113 1.5874 -7.6483e-10 0.00349039 -1.66286e-17 1
321 10.3179 11.805 0.793701 -7.6483e-10 0.00349039 -5.80314e-17 1
739 9.52427 11.8517 1.5874 -1.88819e-09 0.00372559 -3.96756e-17 1
282 11.9053 10.8684 -3.97576e-16 -6.6035e-09 0.00277003 -7.90373e-17 1
284 11.1116 10.9476 0.793701 -4.10712e-09 0.00316924 -5.23004e-17 1
702 11.9053 10.8684 1.5874 -6.6035e-09 0.00277003 -3.55873e-17 1
325 11.9053 11.6621 0.793701 -6.6035e-09 0.00277003 -7.4528e-17 1
743 11.1116 11.7413 1.5874 -4.10712e-09 0.00316924 -3.94144e-17 1
286 13.4928 10.6715 -5.14032e-16 -7.79686e-09 0.00177845 -6.1949e-17 1
706 13.4928 10.6715 1.5874 -7.79686e-09 0.00177845 -5.29359e-17 1
288 12.6991 10.7756 0.793701 -7.82711e-09 0.0023026 -7.49188e-17 1
329 13.4928 11.4652 0.793701 -7.79686e-09 0.00177845 -5.51814e-17 1
747 12.6991 11.5693 1.5874 -7.82711e-09 0.0023026 -5.37588e-17 1
748 13.4928 12.2589 1.5874 -7.79686e-09 0.00177845 -3.41275e-17 1
331 14.2866 11.3524 -2.94868e-16 -6.24237e-09 0.00121051 -3.6862e-17 1
332 15.0803 12.0273 -2.05176e-16 -3.33204e-09 0.000612784 -3.4267e-17 1
333 15.0803 11.2336 0.793701 -3.33204e-09 0.000612784 -2.46796e-17 1
334 14.2866 12.1461 0.793701 -6.24237e-09 0.00121051 -2.97253e-17 1
335 15.874 11.1118 -6.10834e-17 4.32947e-17 -1.306e-16 -3.27421e-17 1
336 15.874 11.9055 0.793701 4.96317e-17 -8.95379e-17 -3.03869e-17 1
751 14.2866 11.3524 1.5874 -6.24237e-09 0.00121051 -2.19388e-17 1
752 15.0803 12.0273 1.5874 -3.33204e-09 0.000612784 -1.12278e-17 1
755 15.874 11.1118 1.5874 1.61234e-17 -1.08308e-16 -3.92883e-17 1
337 4.87106e-16 12.6992 -3.04186e-16 5.52069e-17 -1.2664e-16 -1.87714e-18 1
338 0.793716 13.6147 -5.24971e-16 3.33204e-09 0.000612784 2.02722e-17 1
339 0.793716 12.821 0.793701 3.33204e-09 0.000612784 1.63087e-17 1
340 2.42342e-16 13.4929 0.793701 4.53432e-17 -1.14887e-16 2.02955e-17 1
341 1.58745 12.9398 -4.17361e-16 6.24237e-09 0.00121051 8.14736e-18 1
344 1.58745 13.7335 0.793701 6.24237e-09 0.00121051 2.34883e-17 1
757 7.57814e-16 12.6992 1.5874 6.13749e-17 -1.15985e-16 4.25091e-17 1
758 0.793716 13.6147 1.5874 3.33204e-09 0.000612784 4.08404e-17 1
761 1.58745 12.9398 1.5874 6.24237e-09 0.00121051 1.85075e-17 1
306 3.17495 12.363 0.793701 7.82711e-09 0.0023026 -2.43894e-17 1
342 2.3812 13.8463 -5.21181e-16 7.79686e-09 0.00177845 -1.66375e-17 1
343 2.3812 13.0526 0.793701 7.79686e-09 0.00177845 -6.01699e-18 1
345 3.17495 13.1567 -4.55782e-16 7.82711e-09 0.0023026 -3.25842e-17 1
348 3.17495 13.9504 0.793701 7.82711e-09 0.0023026 -2.72143e-17 1
762 2.3812 13.8463 1.5874 7.79686e-09 0.00177845 9.76221e-19 1
765 3.17495 13.1567 1.5874 7.82711e-09 0.0023026 -1.22563e-17 1
724 3.96869 12.4558 1.5874 6.6035e-09 0.00277003 -2.55027e-17 1
310 4.7624 12.535 0.793701 4.10712e-09 0.00316924 -3.64941e-17 1
346 3.96869 14.0432 -5.02146e-16 6.6035e-09 0.00277003 -3.28652e-17 1
347 3.96869 13.2495 0.793701 6.6035e-09 0.00277003 -3.03576e-17 1
349 4.7624 13.3287 -4.57586e-16 4.10712e-09 0.00316924 -3.16982e-17 1
352 4.7624 14.1224 0.793701 4.10712e-09 0.00316924 -3.32821e-17 1
766 3.96869 14.0432 1.5874 6.6035e-09 0.00277003 -2.33425e-17 1
769 4.7624 13.3287 1.5874 4.10712e-09 0.00316924 -2.93424e-17 1
314 6.34974 12.6454 0.793701 1.88819e-09 0.00372559 -4.58415e-17 1
728 5.55609 12.5987 1.5874 7.6483e-10 0.00349039 -3.07497e-17 1
351 5.55609 13.3924 0.793701 7.6483e-10 0.00349039 -4.53654e-17 1
773 6.34974 13.4391 1.5874 1.88819e-09 0.00372559 -2.60588e-17 1
318 7.93701 12.6834 0.793701 -7.13099e-18 0.00391728 -9.67587e-17 1
732 7.14338 12.6739 1.5874 1.5803e-08 0.00386906 -7.5833e-18 1
736 8.73063 12.6739 1.5874 -1.5803e-08 0.00386906 -5.56577e-17 1
355 7.14338 13.4676 0.793701 1.5803e-08 0.00386906 -1.09429e-16 1
359 8.73063 13.4676 0.793701 -1.5803e-08 0.00386906 -1.39722e-16 1