ITEM: TIMESTEP
21000
ITEM: NUMBER OF ATOMS
8000
ITEM: BOX BOUNDS pp pp pp
0.0000000000000000e+00 3.1748021039364001e+01
0.0000000000000000e+00 1.5874010519682001e+01
0.0000000000000000e+00 1.5874010519682001e+01
ITEM: ATOMS id x y z vx vy vz c_rho_peratom
2 0.793712 0.905766 -4.88647e-16 1.8671e-09 0.000688944 1.26691e-16 1
3 0.793712 0.112066 0.793701 1.8671e-09 0.000688944 1.24553e-16 1
4 -6.35328e-16 0.793701 0.793701 7.3666e-17 -1.53483e-16 1.5089e-16 1
5 1.58744 0.221335 -8.59594e-16 3.4352e-09 0.00136095 1.03925e-16 1
8 1.58744 1.01504 0.793701 3.4352e-09 0.00136095 6.88676e-17 1
43 -5.19461e-16 1.5874 -1.05363e-16 8.93031e-17 -1.35561e-16 1.34854e-16 1
45 0.793712 1.69947 0.793701 1.8671e-09 0.000688944 1.02942e-16 1
422 0.793712 0.905766 1.5874 1.8671e-09 0.000688944 8.11946e-17 1
425 1.58744 0.221335 1.5874 3.4352e-09 0.00136095 3.55238e-17 1
463 -8.4077e-16 1.5874 1.5874 3.13291e-17 -1.50208e-16 1.29326e-16 1
6 2.38118 1.11882 -8.60393e-16 3.98464e-09 0.00199947 5.96178e-17 1
7 2.38118 0.325122 0.793701 3.98464e-09 0.00199947 4.2831e-17 1
9 3.17492 0.420878 -9.1639e-16 3.46441e-09 0.00258875 4.77821e-17 1
12 3.17492 1.21458 0.793701 3.46441e-09 0.00258875 1.60425e-17 1
426 2.38118 1.11882 1.5874 3.98464e-09 0.00199947 1.48464e-17 1
429 3.17492 0.420878 1.5874 3.46441e-09 0.00258875 -3.70879e-18 1
10 3.96865 1.29995 -8.95788e-16 2.17114e-09 0.00311427 2.33304e-17 1
11 3.96865 0.506251 0.793701 2.17114e-09 0.00311427 3.22354e-18 1
16 4.76236 1.37285 0.793701 -4.51499e-12 0.0035631 -2.01257e-17 1
430 3.96865 1.29995 1.5874 2.17114e-09 0.00311427 -8.77361e-18 1
433 4.76236 0.57915 1.5874 -4.51503e-12 0.0035631 -3.62057e-17 1
15 5.55605 0.637787 0.793701 -2.75149e-09 0.00392417 -3.0054e-17 1
20 6.34971 1.47443 0.793701 -2.88097e-10 0.00418861 -3.69175e-17 1
434 5.55605 1.43149 1.5874 -2.75149e-09 0.00392417 -8.3576e-17 1
437 6.34971 0.680727 1.5874 -2.88097e-10 0.00418861 -8.30761e-17 1
19 7.14337 0.706919 0.793701 1.6552e-08 0.00434992 -1.3588e-17 1
23 8.73065 0.706919 0.793701 -1.6552e-08 0.00434992 -8.73194e-18 1
24 7.93701 1.50942 0.793701 -6.09074e-17 0.00440414 -1.21456e-17 1
438 7.14337 1.50062 1.5874 1.6552e-08 0.00434992 -7.29248e-17 1
441 7.93701 0.715722 1.5874 -4.97139e-17 0.00440414 -3.86556e-17 1
442 8.73065 1.50062 1.5874 -1.6552e-08 0.00434992 -2.19291e-17 1
27 10.318 0.637787 0.793701 2.75149e-09 0.00392417 -1.92856e-17 1
28 9.5243 1.47443 0.793701 2.88097e-10 0.00418861 -1.2873e-17 1
445 9.5243 0.680727 1.5874 2.88097e-10 0.00418861 -1.40579e-17 1
446 10.318 1.43149 1.5874 2.75149e-09 0.00392417 -2.4486e-17 1
30 11.9054 1.29995 -4.25402e-16 -2.17114e-09 0.00311427 -7.05648e-18 1
31 11.9054 0.506251 0.793701 -2.17114e-09 0.00311427 -2.47584e-17 1
32 11.1117 1.37285 0.793701 4.51507e-12 0.0035631 -3.48616e-17 1
449 11.1117 0.57915 1.5874 4.51506e-12 0.0035631 -4.28472e-17 1
450 11.9054 1.29995 1.5874 -2.17114e-09 0.00311427 -4.8752e-17 1
33 12.6991 0.420878 -4.4709e-16 -3.46441e-09 0.00258875 -2.11493e-17 1
34 13.4928 1.11882 -5.01122e-16 -3.98464e-09 0.00199947 -1.43709e-17 1
35 13.4928 0.325122 0.793701 -3.98464e-09 0.00199947 -1.29908e-17 1
36 12.6991 1.21458 0.793701 -3.46441e-09 0.00258875 -2.45775e-17 1
453 12.6991 0.420878 1.5874 -3.46441e-09 0.00258875 -2.33772e-17 1
454 13.4928 1.11882 1.5874 -3.98464e-09 0.00199947 -1.92858e-17 1
37 14.2866 0.221335 -4.67172e-16 -3.4352e-09 0.00136095 -1.29941e-17 1
38 15.0803 0.905766 -3.47165e-16 -1.8671e-09 0.000688944 -1.5914e-17 1
39 15.0803 0.112066 0.793701 -1.8671e-09 0.000688944 -2.22076e-17 1
40 14.2866 1.01504 0.793701 -3.4352e-09 0.00136095 -1.84655e-17 1
41 15.874 -8.57353e-17 -6.03005e-17 9.2704e-18 -2.74413e-17 -2.34528e-17 1
42 15.874 0.793701 0.793701 1.07445e-17 -1.12485e-17 -3.60301e-17 1
81 15.0803 1.69947 0.793701 -1.8671e-09 0.000688944 -1.26028e-17 1
83 15.874 1.5874 -1.22676e-16 8.29964e-18 1.80964e-18 -1.23971e-17 1
457 14.2866 0.221335 1.5874 -3.4352e-09 0.00136095 -1.613e-17 1
458 15.0803 0.905766 1.5874 -1.8671e-09 0.000688944 -4.55844e-17 1
461 15.874 -1.85773e-17 1.5874 -1.07121e-18 -4.92823e-17 -5.70183e-17 1
503 15.874 1.5874 1.5874 -5.73643e-18 3.85508e-17 -6.2619e-17 1
47 1.58744 1.80874 -6.27095e-16 3.4352e-09 0.00136095 5.78689e-17 1
467 1.58744 1.80874 1.5874 3.4352e-09 0.00136095 5.76825e-17 1
44 0.793712 2.49317 -4.38726e-16 1.8671e-09 0.000688944 6.80305e-17 1
46 -6.62921e-16 2.3811 0.793701 5.05368e-17 -1.13833e-16 1.38661e-16 1
50 1.58744 2.60244 0.793701 3.4352e-09 0.00136095 3.42146e-17 1
85 -6.04528e-16 3.1748 -1.43972e-16 9.637e-17 -8.23786e-17 8.76395e-17 1
87 0.793712 3.28687 0.793701 1.8671e-09 0.000688944 6.53915e-17 1
89 1.58744 3.39614 -5.73885e-16 3.4352e-09 0.00136095 3.40987e-17 1
464 0.793712 2.49317 1.5874 1.8671e-09 0.000688944 9.83797e-17 1
505 -6.76339e-16 3.1748 1.5874 1.42146e-17 -1.07939e-16 1.18154e-16 1
509 1.58744 3.39614 1.5874 3.4352e-09 0.00136095 4.19969e-17 1
49 2.38118 1.91252 0.793701 3.98464e-09 0.00199947 2.07399e-17 1
51 3.17492 2.00828 -8.42519e-16 3.46441e-09 0.00258875 3.09942e-17 1
471 3.17492 2.00828 1.5874 3.46441e-09 0.00258875 3.74196e-18 1
48 2.38118 2.70622 -7.34058e-16 3.98464e-09 0.00199947 2.89684e-17 1
54 3.17492 2.80198 0.793701 3.46441e-09 0.00258875 8.69945e-18 1
91 2.38118 3.49992 0.793701 3.98464e-09 0.00199947 1.25348e-17 1
468 2.38118 2.70622 1.5874 3.98464e-09 0.00199947 1.99406e-17 1
53 3.96865 2.09365 0.793701 2.17114e-09 0.00311427 2.58801e-20 1
475 4.76236 2.16655 1.5874 -4.51502e-12 0.0035631 -4.06403e-17 1
52 3.96865 2.88735 -7.55099e-16 2.17114e-09 0.00311427 9.66013e-18 1
58 4.76236 2.96025 0.793701 -4.51499e-12 0.0035631 -2.06657e-17 1
472 3.96865 2.88735 1.5874 2.17114e-09 0.00311427 -1.41116e-17 1
57 5.55605 2.22519 0.793701 -2.75149e-09 0.00392417 -3.92428e-17 1
479 6.34971 2.26813 1.5874 -2.88097e-10 0.00418861 -9.56019e-17 1
62 6.34971 3.06183 0.793701 -2.88097e-10 0.00418861 -1.96684e-17 1
476 5.55605 3.01889 1.5874 -2.75149e-09 0.00392417 -7.00689e-17 1
61 7.14337 2.29432 0.793701 1.6552e-08 0.00434992 -2.27006e-17 1
65 8.73065 2.29432 0.793701 -1.6552e-08 0.00434992 -1.46643e-17 1
483 7.93701 2.30312 1.5874 -4.30432e-17 0.00440414 -4.31737e-17 1
66 7.93701 3.09682 0.793701 -4.79022e-17 0.00440414 -2.05894e-17 1
480 7.14337 3.08802 1.5874 1.6552e-08 0.00434992 -5.85154e-17 1
484 8.73065 3.08802 1.5874 -1.6552e-08 0.00434992 -2.36383e-17 1
69 10.318 2.22519 0.793701 2.75149e-09 0.00392417 -1.58346e-17 1
487 9.5243 2.26813 1.5874 2.88097e-10 0.00418861 -1.3661e-17 1
70 9.5243 3.06183 0.793701 2.88097e-10 0.00418861 -1.37976e-17 1
488 10.318 3.01889 1.5874 2.75149e-09 0.00392417 -1.24186e-17 1
73 11.9054 2.09365 0.793701 -2.17114e-09 0.00311427 -3.04847e-17 1
491 11.1117 2.16655 1.5874 4.51507e-12 0.0035631 -4.03877e-17 1
72 11.9054 2.88735 -6.75106e-16 -2.17114e-09 0.00311427 -6.25364e-18 1
74 11.1117 2.96025 0.793701 4.51509e-12 0.0035631 -1.55507e-17 1
492 11.9054 2.88735 1.5874 -2.17114e-09 0.00311427 -3.75056e-17 1
77 13.4928 1.91252 0.793701 -3.98464e-09 0.00199947 -1.99856e-17 1
75 12.6991 2.00828 -4.97376e-16 -3.46441e-09 0.00258875 -7.75969e-18 1
495 12.6991 2.00828 1.5874 -3.46441e-09 0.00258875 -3.63026e-17 1
76 13.4928 2.70622 -5.56409e-16 -3.98464e-09 0.00199947 9.60933e-18 1
78 12.6991 2.80198 0.793701 -3.46441e-09 0.00258875 -1.78285e-17 1
119 13.4928 3.49992 0.793701 -3.98464e-09 0.00199947 -1.10931e-17 1
496 13.4928 2.70622 1.5874 -3.98464e-09 0.00199947 -3.66328e-17 1
79 14.2866 1.80874 -5.03434e-16 -3.4352e-09 0.00136095 3.40591e-19 1
499 14.2866 1.80874 1.5874 -3.4352e-09 0.00136095 -3.38666e-17 1
80 15.0803 2.49317 -2.45349e-16 -1.8671e-09 0.000688944 2.41959e-17 1
82 14.2866 2.60244 0.793701 -3.4352e-09 0.00136095 -6.76418e-18 1
84 15.874 2.3811 0.793701 -2.1491e-17 2.13868e-17 -5.71507e-18 1
121 14.2866 3.39614 -4.17192e-16 -3.4352e-09 0.00136095 3.14441e-17 1
123 15.0803 3.28687 0.793701 -1.8671e-09 0.000688944 3.52257e-18 1
125 15.874 3.1748 2.85434e-17 -2.14592e-17 -4.16082e-17 4.51915e-17 1
500 15.0803 2.49317 1.5874 -1.8671e-09 0.000688944 -5.18191e-17 1
541 14.2866 3.39614 1.5874 -3.4352e-09 0.00136095 -5.40373e-17 1
545 15.874 3.1748 1.5874 -2.29688e-17 -1.52411e-17 -4.36526e-17 1
86 0.793712 4.08057 -4.97624e-16 1.8671e-09 0.000688944 4.71222e-17 1
88 -6.0774e-16 3.9685 0.793701 4.22303e-17 -7.71684e-17 1.14878e-16 1
92 1.58744 4.18984 0.793701 3.4352e-09 0.00136095 1.64315e-17 1
127 -4.52915e-16 4.7622 -3.71502e-17 7.29297e-17 -4.58082e-17 8.22235e-17 1
129 0.793712 4.87427 0.793701 1.8671e-09 0.000688944 4.53144e-17 1
131 1.58744 4.98354 -7.74045e-16 3.4352e-09 0.00136095 1.56581e-17 1
506 0.793712 4.08057 1.5874 1.8671e-09 0.000688944 7.06943e-17 1
547 -6.366e-16 4.7622 1.5874 8.07065e-18 -8.57978e-17 7.7649e-17 1
551 1.58744 4.98354 1.5874 3.4352e-09 0.00136095 2.03077e-17 1
93 3.17492 3.59568 -6.83371e-16 3.46441e-09 0.00258875 1.68032e-17 1
513 3.17492 3.59568 1.5874 3.46441e-09 0.00258875 4.71593e-18 1
90 2.38118 4.29362 -7.58473e-16 3.98464e-09 0.00199947 1.62753e-17 1
96 3.17492 4.38938 0.793701 3.46441e-09 0.00258875 1.36684e-17 1
133 2.38118 5.08733 0.793701 3.98464e-09 0.00199947 2.55484e-18 1
135 3.17492 5.18308 -8.46198e-16 3.46441e-09 0.00258875 1.2024e-17 1
510 2.38118 4.29362 1.5874 3.98464e-09 0.00199947 1.68611e-17 1
555 3.17492 5.18308 1.5874 3.46441e-09 0.00258875 1.5927e-17 1
95 3.96865 3.68105 0.793701 2.17114e-09 0.00311427 -1.98287e-18 1
517 4.76236 3.75395 1.5874 -4.51499e-12 0.0035631 -3.72e-17 1
94 3.96865 4.47475 -5.26855e-16 2.17114e-09 0.00311427 6.22135e-18 1
100 4.76236 4.54765 0.793701 -4.51499e-12 0.0035631 1.39704e-17 1
137 3.96865 5.26845 0.793701 2.17114e-09 0.00311427 1.55801e-17 1
514 3.96865 4.47475 1.5874 2.17114e-09 0.00311427 4.49678e-18 1
559 4.76236 5.34135 1.5874 -4.51499e-12 0.0035631 3.10486e-17 1
99 5.55605 3.81259 0.793701 -2.75149e-09 0.00392417 1.15136e-17 1
521 6.34971 3.85553 1.5874 -2.88097e-10 0.00418861 -5.16433e-17 1
104 6.34971 4.64923 0.793701 -2.88097e-10 0.00418861 5.07524e-17 1
518 5.55605 4.60629 1.5874 -2.75149e-09 0.00392417 -9.79565e-18 1
103 7.14337 3.88172 0.793701 1.6552e-08 0.00434992 -1.01769e-17 1
107 8.73065 3.88172 0.793701 -1.6552e-08 0.00434992 -1.71544e-17 1
525 7.93701 3.89052 1.5874 -3.12997e-17 0.00440414 -3.08764e-17 1
108 7.93701 4.68422 0.793701 -2.28812e-17 0.00440414 -1.43101e-17 1
522 7.14337 4.67542 1.5874 1.6552e-08 0.00434992 -2.18095e-17 1
526 8.73065 4.67542 1.5874 -1.6552e-08 0.00434992 -1.31773e-17 1
111 10.318 3.81259 0.793701 2.75149e-09 0.00392417 -1.03219e-17 1
529 9.5243 3.85553 1.5874 2.88097e-10 0.00418861 -8.4836e-18 1
112 9.5243 4.64923 0.793701 2.88097e-10 0.00418861 -1.03967e-17 1
530 10.318 4.60629 1.5874 2.75149e-09 0.00392417 -7.04905e-18 1
115 11.9054 3.68105 0.793701 -2.17114e-09 0.00311427 -1.81234e-17 1
533 11.1117 3.75395 1.5874 4.51508e-12 0.0035631 -1.70645e-17 1
114 11.9054 4.47475 -7.79665e-16 -2.17114e-09 0.00311427 -1.7083e-17 1
116 11.1117 4.54765 0.793701 4.51508e-12 0.0035631 -1.87188e-17 1
157 11.9054 5.26845 0.793701 -2.17114e-09 0.00311427 -3.0355e-17 1
534 11.9054 4.47475 1.5874 -2.17114e-09 0.00311427 -1.99463e-17 1
575 11.1117 5.34135 1.5874 4.51505e-12 0.0035631 -2.89352e-17 1
537 12.6991 3.59568 1.5874 -3.46441e-09 0.00258875 -2.51086e-17 1
118 13.4928 4.29362 -5.18923e-16 -3.98464e-09 0.00199947 8.49822e-18 1
120 12.6991 4.38938 0.793701 -3.46441e-09 0.00258875 -1.43015e-17 1
161 13.4928 5.08733 0.793701 -3.98464e-09 0.00199947 -1.61664e-17 1
538 13.4928 4.29362 1.5874 -3.98464e-09 0.00199947 -2.69765e-17 1
579 12.6991 5.18308 1.5874 -3.46441e-09 0.00258875 -1.99402e-17 1
122 15.0803 4.08057 -2.23853e-16 -1.8671e-09 0.000688944 4.08811e-17 1
124 14.2866 4.18984 0.793701 -3.4352e-09 0.00136095 -8.5729e-18 1
126 15.874 3.9685 0.793701 -1.49496e-17 -7.07173e-17 2.1673e-17 1
163 14.2866 4.98354 -3.99235e-16 -3.4352e-09 0.00136095 1.44875e-17 1
165 15.0803 4.87427 0.793701 -1.8671e-09 0.000688944 1.9523e-17 1
167 15.874 4.7622 4.44901e-17 -2.31448e-17 -8.45089e-17 4.84592e-17 1
542 15.0803 4.08057 1.5874 -1.8671e-09 0.000688944 -3.88819e-17 1
583 14.2866 4.98354 1.5874 -3.4352e-09 0.00136095 -2.03684e-17 1
587 15.874 4.7622 1.5874 1.21551e-18 -5.07272e-17 7.70547e-18 1
128 0.793712 5.66797 -6.01518e-16 1.8671e-09 0.000688944 3.33286e-17 1
130 -6.09331e-16 5.5559 0.793701 1.76568e-17 -8.49026e-17 7.36558e-17 1
134 1.58744 5.77724 0.793701 3.4352e-09 0.00136095 -5.20728e-18 1
169 -4.28273e-16 6.3496 3.49261e-17 3.72277e-17 -7.58722e-17 5.95942e-17 1
171 0.793712 6.46167 0.793701 1.8671e-09 0.000688944 1.2471e-17 1
173 1.58744 6.57094 -6.7203e-16 3.4352e-09 0.00136095 -2.08793e-17 1
548 0.793712 5.66797 1.5874 1.8671e-09 0.000688944 2.40974e-17 1
589 -5.61326e-16 6.3496 1.5874 1.21759e-18 -1.27727e-16 2.14319e-17 1
593 1.58744 6.57094 1.5874 3.4352e-09 0.00136095 -8.63572e-20 1
132 2.38118 5.88103 -9.14981e-16 3.98464e-09 0.00199947 -4.52789e-18 1
138 3.17492 5.97678 0.793701 3.46441e-09 0.00258875 5.33867e-18 1
175 2.38118 6.67473 0.793701 3.98464e-09 0.00199947 -2.05016e-17 1
177 3.17492 6.77048 -8.77024e-16 3.46441e-09 0.00258875 3.39871e-18 1
552 2.38118 5.88103 1.5874 3.98464e-09 0.00199947 3.38222e-18 1
597 3.17492 6.77048 1.5874 3.46441e-09 0.00258875 -7.72572e-18 1
136 3.96865 6.06215 -7.08685e-16 2.17114e-09 0.00311427 2.34696e-17 1
142 4.76236 6.13505 0.793701 -4.51505e-12 0.0035631 4.51275e-17 1
179 3.96865 6.85586 0.793701 2.17114e-09 0.00311427 2.10679e-17 1
181 4.76236 6.92875 -6.6371e-16 -4.51508e-12 0.0035631 2.47602e-17 1
556 3.96865 6.06215 1.5874 2.17114e-09 0.00311427 1.80294e-17 1
601 4.76236 6.92875 1.5874 -4.51502e-12 0.0035631 5.3793e-17 1
141 5.55605 5.39999 0.793701 -2.75149e-09 0.00392417 6.91881e-17 1
563 6.34971 5.44293 1.5874 -2.88097e-10 0.00418861 3.88099e-17 1
146 6.34971 6.23663 0.793701 -2.88097e-10 0.00418861 6.94276e-17 1
183 5.55605 6.98739 0.793701 -2.75149e-09 0.00392417 8.54524e-17 1
560 5.55605 6.19369 1.5874 -2.75149e-09 0.00392417 8.37465e-17 1
605 6.34971 7.03033 1.5874 -2.88097e-10 0.00418861 5.27481e-17 1
145 7.14337 5.46912 0.793701 1.6552e-08 0.00434992 1.97904e-17 1
149 8.73065 5.46912 0.793701 -1.6552e-08 0.00434992 -1.45278e-17 1
567 7.93701 5.47792 1.5874 -1.4129e-17 0.00440414 -1.39092e-17 1
150 7.93701 6.27163 0.793701 8.58556e-18 0.00440414 -1.28499e-17 1
187 7.14337 7.05652 0.793701 1.6552e-08 0.00434992 1.63526e-17 1
191 8.73065 7.05652 0.793701 -1.6552e-08 0.00434992 -2.55402e-17 1
564 7.14337 6.26282 1.5874 1.6552e-08 0.00434992 1.4377e-17 1
568 8.73065 6.26282 1.5874 -1.6552e-08 0.00434992 -1.92476e-17 1
609 7.93701 7.06533 1.5874 -8.00072e-18 0.00440414 -2.47104e-17 1
153 10.318 5.39999 0.793701 2.75149e-09 0.00392417 -1.64666e-17 1
571 9.5243 5.44293 1.5874 2.88097e-10 0.00418861 -9.58812e-18 1
154 9.5243 6.23663 0.793701 2.88097e-10 0.00418861 -1.84844e-17 1
195 10.318 6.98739 0.793701 2.75149e-09 0.00392417 -6.76832e-17 1
572 10.318 6.19369 1.5874 2.75149e-09 0.00392417 -4.89164e-17 1
613 9.5243 7.03033 1.5874 2.88097e-10 0.00418861 -4.70193e-17 1
156 11.9054 6.06215 -2.9077e-16 -2.17114e-09 0.00311427 -4.18586e-17 1
158 11.1117 6.13505 0.793701 4.51504e-12 0.0035631 -5.0502e-17 1
199 11.9054 6.85586 0.793701 -2.17114e-09 0.00311427 -7.0714e-17 1
576 11.9054 6.06215 1.5874 -2.17114e-09 0.00311427 -4.69316e-17 1
617 11.1117 6.92875 1.5874 4.51505e-12 0.0035631 -8.28031e-17 1
160 13.4928 5.88103 -2.45001e-16 -3.98464e-09 0.00199947 -1.05249e-17 1
162 12.6991 5.97678 0.793701 -3.46441e-09 0.00258875 -4.20326e-17 1
201 12.6991 6.77048 -3.87755e-17 -3.46441e-09 0.00258875 -5.35038e-17 1
203 13.4928 6.67473 0.793701 -3.98464e-09 0.00199947 -3.14998e-17 1
580 13.4928 5.88103 1.5874 -3.98464e-09 0.00199947 -2.09165e-17 1
621 12.6991 6.77048 1.5874 -3.46441e-09 0.00258875 -3.76258e-17 1
164 15.0803 5.66797 -2.34121e-16 -1.8671e-09 0.000688944 2.34632e-17 1
166 14.2866 5.77724 0.793701 -3.4352e-09 0.00136095 -4.09214e-18 1
168 15.874 5.5559 0.793701 -2.08866e-17 -5.82562e-17 6.48978e-17 1
205 14.2866 6.57094 -2.3408e-16 -3.4352e-09 0.00136095 3.71261e-18 1
207 15.0803 6.46167 0.793701 -1.8671e-09 0.000688944 4.40961e-17 1
209 15.874 6.3496 -2.27165e-17 -6.56024e-17 -5.40908e-17 4.89658e-17 1
584 15.0803 5.66797 1.5874 -1.8671e-09 0.000688944 1.46332e-17 1
625 14.2866 6.57094 1.5874 -3.4352e-09 0.00136095 -4.15308e-18 1
629 15.874 6.3496 1.5874 -1.85659e-17 -2.64907e-17 4.68304e-17 1
170 0.793712 7.25537 -5.87392e-16 1.8671e-09 0.000688944 -5.30234e-18 1
172 -4.59881e-16 7.1433 0.793701 1.25832e-17 -8.88842e-17 1.28103e-17 1
176 1.58744 7.36464 0.793701 3.4352e-09 0.00136095 -3.36308e-17 1
211 -3.56919e-16 7.93701 9.10919e-18 4.92878e-17 -4.50244e-17 5.08813e-18 1
213 0.793712 8.04907 0.793701 1.8671e-09 0.000688944 -5.44528e-17 1
214 -2.19921e-16 8.73071 0.793701 4.72121e-17 -8.60859e-17 -5.9202e-17 1
215 1.58744 8.15834 -5.94516e-16 3.4352e-09 0.00136095 -3.80849e-17 1
590 0.793712 7.25537 1.5874 1.8671e-09 0.000688944 -1.14031e-17 1
631 -3.96126e-16 7.93701 1.5874 7.21238e-18 -1.13303e-16 -2.65022e-17 1
635 1.58744 8.15834 1.5874 3.4352e-09 0.00136095 -4.67946e-17 1
174 2.38118 7.46843 -7.32147e-16 3.98464e-09 0.00199947 -2.89655e-17 1
180 3.17492 7.56418 0.793701 3.46441e-09 0.00258875 -1.76401e-17 1
217 2.38118 8.26213 0.793701 3.98464e-09 0.00199947 -4.48584e-17 1
219 3.17492 8.35788 -7.6003e-16 3.46441e-09 0.00258875 -1.73907e-17 1
594 2.38118 7.46843 1.5874 3.98464e-09 0.00199947 -1.64515e-17 1
639 3.17492 8.35788 1.5874 3.46441e-09 0.00258875 -2.45534e-17 1
178 3.96865 7.64956 -8.86045e-16 2.17114e-09 0.00311427 1.16729e-17 1
184 4.76236 7.72245 0.793701 -4.51504e-12 0.0035631 6.63177e-17 1
221 3.96865 8.44326 0.793701 2.17114e-09 0.00311427 1.98536e-17 1
598 3.96865 7.64956 1.5874 2.17114e-09 0.00311427 5.82599e-18 1
643 4.76236 8.51616 1.5874 -4.515e-12 0.0035631 2.38337e-17 1
188 6.34971 7.82403 0.793701 -2.88097e-10 0.00418861 6.45055e-17 1
225 5.55605 8.57479 0.793701 -2.75149e-09 0.00392417 8.07696e-17 1
602 5.55605 7.78109 1.5874 -2.75149e-09 0.00392417 4.63855e-17 1
647 6.34971 8.61773 1.5874 -2.88097e-10 0.00418861 -1.0869e-17 1
192 7.93701 7.85903 0.793701 -5.00287e-19 0.00440414 -2.41946e-17 1
229 7.14337 8.64392 0.793701 1.6552e-08 0.00434992 -2.42518e-18 1
233 8.73065 8.64392 0.793701 -1.6552e-08 0.00434992 -3.71042e-17 1
606 7.14337 7.85022 1.5874 1.6552e-08 0.00434992 -2.05511e-17 1
610 8.73065 7.85022 1.5874 -1.6552e-08 0.00434992 -3.88225e-17 1
651 7.93701 8.65273 1.5874 -9.27696e-18 0.00440414 -4.35707e-17 1
196 9.5243 7.82403 0.793701 2.88097e-10 0.00418861 -5.47802e-17 1
237 10.318 8.57479 0.793701 2.75149e-09 0.00392417 -9.41984e-17 1
614 10.318 7.78109 1.5874 2.75149e-09 0.00392417 -7.58893e-17 1
655 9.5243 8.61773 1.5874 2.88097e-10 0.00418861 -4.49109e-17 1
200 11.1117 7.72245 0.793701 4.51505e-12 0.0035631 -9.48951e-17 1
241 11.9054 8.44326 0.793701 -2.17114e-09 0.00311427 -7.86927e-17 1
618 11.9054 7.64956 1.5874 -2.17114e-09 0.00311427 -5.78091e-17 1
659 11.1117 8.51616 1.5874 4.51507e-12 0.0035631 -6.94054e-17 1
202 13.4928 7.46843 -1.74709e-16 -3.98464e-09 0.00199947 -3.99766e-17 1
204 12.6991 7.56418 0.793701 -3.46441e-09 0.00258875 -5.77876e-17 1
243 12.6991 8.35788 -3.18074e-16 -3.46441e-09 0.00258875 -8.01475e-17 1
245 13.4928 8.26213 0.793701 -3.98464e-09 0.00199947 -3.2947e-17 1
622 13.4928 7.46843 1.5874 -3.98464e-09 0.00199947 -2.18942e-17 1
663 12.6991 8.35788 1.5874 -3.46441e-09 0.00258875 -4.42754e-17 1
206 15.0803 7.25537 -2.05631e-16 -1.8671e-09 0.000688944 3.41039e-17 1
208 14.2866 7.36464 0.793701 -3.4352e-09 0.00136095 7.73661e-18 1
210 15.874 7.1433 0.793701 -4.80208e-17 -1.66518e-17 9.7214e-17 1
247 14.2866 8.15834 -3.22985e-16 -3.4352e-09 0.00136095 6.06187e-18 1
249 15.0803 8.04907 0.793701 -1.8671e-09 0.000688944 5.59823e-17 1
251 15.874 7.93701 -1.12516e-16 -5.58115e-17 2.73869e-19 7.1706e-17 1
252 15.874 8.73071 0.793701 -3.02051e-17 -1.19589e-17 7.60001e-17 1
626 15.0803 7.25537 1.5874 -1.8671e-09 0.000688944 3.75706e-17 1
667 14.2866 8.15834 1.5874 -3.4352e-09 0.00136095 8.5165e-20 1
671 15.874 7.93701 1.5874 -3.47197e-17 -9.43079e-18 5.63707e-17 1
212 0.793712 8.84277 -4.09425e-16 1.8671e-09 0.000688944 -4.42256e-17 1
632 0.793712 8.84277 1.5874 1.8671e-09 0.000688944 -7.33264e-17 1
218 1.58744 8.95204 0.793701 3.4352e-09 0.00136095 -7.47533e-17 1
253 -2.47376e-16 9.52441 7.00418e-18 9.94519e-17 -1.03818e-16 -3.39743e-17 1
254 0.793712 10.4302 -2.56548e-16 1.8671e-09 0.000688944 -3.41591e-17 1
255 0.793712 9.63647 0.793701 1.8671e-09 0.000688944 -7.69604e-17 1
256 -1.35324e-16 10.3181 0.793701 8.60278e-17 -1.11165e-16 -5.51218e-17 1
257 1.58744 9.74574 -2.83618e-16 3.4352e-09 0.00136095 -4.02174e-17 1
260 1.58744 10.5394 0.793701 3.4352e-09 0.00136095 -5.42142e-17 1
673 4.89237e-18 9.52441 1.5874 4.05711e-17 -1.02399e-16 -6.37034e-17 1
674 0.793712 10.4302 1.5874 1.8671e-09 0.000688944 -9.60571e-17 1
677 1.58744 9.74574 1.5874 3.4352e-09 0.00136095 -8.88673e-17 1
216 2.38118 9.05583 -5.24634e-16 3.98464e-09 0.00199947 -3.53036e-17 1
222 3.17492 9.15158 0.793701 3.46441e-09 0.00258875 -2.63611e-17 1
636 2.38118 9.05583 1.5874 3.98464e-09 0.00199947 -5.85305e-17 1
259 2.38118 9.84953 0.793701 3.98464e-09 0.00199947 -5.1152e-17 1
261 3.17492 9.94528 -8.57687e-16 3.46441e-09 0.00258875 -1.87753e-17 1
681 3.17492 9.94528 1.5874 3.46441e-09 0.00258875 -3.83986e-17 1
220 3.96865 9.23696 -8.52571e-16 2.17114e-09 0.00311427 1.21181e-17 1
226 4.76236 9.30986 0.793701 -4.51502e-12 0.0035631 6.41327e-17 1
640 3.96865 9.23696 1.5874 2.17114e-09 0.00311427 -6.23477e-18 1
263 3.96865 10.0307 0.793701 2.17114e-09 0.00311427 1.33873e-17 1
685 4.76236 10.1036 1.5874 -4.515e-12 0.0035631 7.51118e-18 1
230 6.34971 9.41143 0.793701 -2.88097e-10 0.00418861 4.30165e-17 1
644 5.55605 9.36849 1.5874 -2.75149e-09 0.00392417 2.35102e-18 1
267 5.55605 10.1622 0.793701 -2.75149e-09 0.00392417 7.8543e-17 1
689 6.34971 10.2051 1.5874 -2.88097e-10 0.00418861 -1.8182e-17 1
234 7.93701 9.44643 0.793701 1.66315e-18 0.00440414 -3.18856e-17 1
648 7.14337 9.43763 1.5874 1.6552e-08 0.00434992 -3.74264e-17 1
652 8.73065 9.43763 1.5874 -1.6552e-08 0.00434992 -4.42732e-17 1
271 7.14337 10.2313 0.793701 1.6552e-08 0.00434992 -5.26695e-18 1
275 8.73065 10.2313 0.793701 -1.6552e-08 0.00434992 -3.49139e-17 1
693 7.93701 10.2401 1.5874 -3.02218e-18 0.00440414 -4.20254e-17 1
238 9.5243 9.41143 0.793701 2.88097e-10 0.00418861 -5.67377e-17 1
656 10.318 9.36849 1.5874 2.75149e-09 0.00392417 -6.12253e-17 1
279 10.318 10.1622 0.793701 2.75149e-09 0.00392417 -5.93028e-17 1
697 9.5243 10.2051 1.5874 2.88097e-10 0.00418861 -4.10405e-17 1
240 11.9054 9.23696 -2.47569e-16 -2.17114e-09 0.00311427 -9.25521e-17 1
242 11.1117 9.30986 0.793701 4.51505e-12 0.0035631 -8.46141e-17 1
660 11.9054 9.23696 1.5874 -2.17114e-09 0.00311427 -5.68949e-17 1
283 11.9054 10.0307 0.793701 -2.17114e-09 0.00311427 -6.16437e-17 1
701 11.1117 10.1036 1.5874 4.51505e-12 0.0035631 -4.80746e-17 1
244 13.4928 9.05583 -3.60991e-16 -3.98464e-09 0.00199947 -4.26649e-17 1
246 12.6991 9.15158 0.793701 -3.46441e-09 0.00258875 -6.62866e-17 1
664 13.4928 9.05583 1.5874 -3.98464e-09 0.00199947 -3.19657e-17 1
285 12.6991 9.94528 -2.98304e-16 -3.46441e-09 0.00258875 -6.71066e-17 1
287 13.4928 9.84953 0.793701 -3.98464e-09 0.00199947 -4.00814e-17 1
705 12.6991 9.94528 1.5874 -3.46441e-09 0.00258875 -3.72331e-17 1
248 15.0803 8.84277 -2.3964e-16 -1.8671e-09 0.000688944 5.75545e-17 1
668 15.0803 8.84277 1.5874 -1.8671e-09 0.000688944 3.00426e-17 1
250 14.2866 8.95204 0.793701 -3.4352e-09 0.00136095 2.75817e-18 1
289 14.2866 9.74574 -3.27114e-16 -3.4352e-09 0.00136095 1.19546e-17 1
290 15.0803 10.4302 -3.01252e-16 -1.8671e-09 0.000688944 4.22336e-17 1
291 15.0803 9.63647 0.793701 -1.8671e-09 0.000688944 4.49811e-17 1
292 14.2866 10.5394 0.793701 -3.4352e-09 0.00136095 5.78483e-18 1
293 15.874 9.52441 -1.63795e-16 -3.30707e-17 -2.94923e-17 7.82133e-17 1
294 15.874 10.3181 0.793701 -1.75282e-17 -8.8808e-17 5.14163e-17 1
709 14.2866 9.74574 1.5874 -3.4352e-09 0.00136095 -6.5212e-18 1
710 15.0803 10.4302 1.5874 -1.8671e-09 0.000688944 5.78689e-18 1
713 15.874 9.52441 1.5874 -1.82581e-17 -5.16253e-17 2.93285e-17 1
295 -3.82017e-16 11.1118 -1.55607e-16 1.17116e-16 -1.33234e-16 -1.25688e-17 1
296 0.793712 12.0176 -4.44579e-16 1.8671e-09 0.000688944 3.15477e-18 1
297 0.793712 11.2239 0.793701 1.8671e-09 0.000688944 -5.32395e-17 1
298 -4.23068e-16 11.9055 0.793701 1.01175e-16 -1.28351e-16 -2.22068e-17 1
299 1.58744 11.3331 -5.3819e-16 3.4352e-09 0.00136095 -1.542e-17 1
302 1.58744 12.1268 0.793701 3.4352e-09 0.00136095 -3.24199e-17 1
715 -2.44676e-16 11.1118 1.5874 5.94193e-17 -1.03784e-16 -7.5547e-17 1
716 0.793712 12.0176 1.5874 1.8671e-09 0.000688944 -7.23791e-17 1
719 1.58744 11.3331 1.5874 3.4352e-09 0.00136095 -7.4097e-17 1
258 2.38118 10.6432 -6.78348e-16 3.98464e-09 0.00199947 -2.69511e-17 1
678 2.38118 10.6432 1.5874 3.98464e-09 0.00199947 -5.85101e-17 1
264 3.17492 10.739 0.793701 3.46441e-09 0.00258875 -2.84126e-17 1
300 2.38118 12.2306 -7.78971e-16 3.98464e-09 0.00199947 -1.02074e-17 1
301 2.38118 11.4369 0.793701 3.98464e-09 0.00199947 -3.64604e-17 1
303 3.17492 11.5327 -8.34378e-16 3.46441e-09 0.00258875 -1.78309e-17 1
306 3.17492 12.3264 0.793701 3.46441e-09 0.00258875 -2.01077e-17 1
720 2.38118 12.2306 1.5874 3.98464e-09 0.00199947 -3.68577e-17 1
723 3.17492 11.5327 1.5874 3.46441e-09 0.00258875 -2.53786e-17 1
262 3.96865 10.8244 -8.66085e-16 2.17114e-09 0.00311427 1.35941e-17 1
268 4.76236 10.8973 0.793701 -4.51503e-12 0.0035631 6.57817e-17 1
682 3.96865 10.8244 1.5874 2.17114e-09 0.00311427 -1.12348e-17 1
305 3.96865 11.6181 0.793701 2.17114e-09 0.00311427 1.49204e-17 1
724 3.96865 12.4118 1.5874 2.17114e-09 0.00311427 2.2898e-18 1
727 4.76236 11.691 1.5874 -4.515e-12 0.0035631 1.379e-17 1
272 6.34971 10.9988 0.793701 -2.88097e-10 0.00418861 5.2849e-17 1
686 5.55605 10.9559 1.5874 -2.75149e-09 0.00392417 5.7333e-18 1
309 5.55605 11.7496 0.793701 -2.75149e-09 0.00392417 8.63494e-17 1
731 6.34971 11.7925 1.5874 -2.88097e-10 0.00418861 -1.09776e-17 1
276 7.93701 11.0338 0.793701 1.39734e-18 0.00440414 -2.73728e-17 1
690 7.14337 11.025 1.5874 1.6552e-08 0.00434992 -3.07365e-17 1
694 8.73065 11.025 1.5874 -1.6552e-08 0.00434992 -3.52448e-17 1
313 7.14337 11.8187 0.793701 1.6552e-08 0.00434992 6.5729e-19 1
317 8.73065 11.8187 0.793701 -1.6552e-08 0.00434992 -2.64656e-17 1
735 7.93701 11.8275 1.5874 -1.05673e-17 0.00440414 -3.43213e-17 1
280 9.5243 10.9988 0.793701 2.88097e-10 0.00418861 -2.71341e-17 1
698 10.318 10.9559 1.5874 2.75149e-09 0.00392417 -2.93559e-17 1
321 10.318 11.7496 0.793701 2.75149e-09 0.00392417 -2.08073e-17 1
739 9.5243 11.7925 1.5874 2.88097e-10 0.00418861 -2.3567e-17 1
282 11.9054 10.8244 -4.92765e-16 -2.17114e-09 0.00311427 -6.64308e-17 1
284 11.1117 10.8973 0.793701 4.51505e-12 0.0035631 -4.18515e-17 1
702 11.9054 10.8244 1.5874 -2.17114e-09 0.00311427 -1.74629e-17 1
324 11.9054 12.4118 -8.27321e-16 -2.17114e-09 0.00311427 -1.85548e-17 1
325 11.9054 11.6181 0.793701 -2.17114e-09 0.00311427 -3.01604e-17 1
743 11.1117 11.691 1.5874 4.51506e-12 0.0035631 -1.28926e-17 1
744 11.9054 12.4118 1.5874 -2.17114e-09 0.00311427 -6.23627e-18 1
286 13.4928 10.6432 -4.96727e-16 -3.98464e-09 0.00199947 -2.39549e-17 1
706 13.4928 10.6432 1.5874 -3.98464e-09 0.00199947 -3.21162e-17 1
288 12.6991 10.739 0.793701 -3.46441e-09 0.00258875 -4.35112e-17 1
327 12.6991 11.5327 -8.25696e-16 -3.46441e-09 0.00258875 -2.9123e-17 1
328 13.4928 12.2306 -8.24926e-16 -3.98464e-09 0.00199947 -1.1429e-17 1
329 13.4928 11.4369 0.793701 -3.98464e-09 0.00199947 -2.01376e-17 1
330 12.6991 12.3264 0.793701 -3.46441e-09 0.00258875 -1.28994e-17 1
747 12.6991 11.5327 1.5874 -3.46441e-09 0.00258875 -1.50972e-17 1
748 13.4928 12.2306 1.5874 -3.98464e-09 0.00199947 -1.30049e-17 1
331 14.2866 11.3331 -5.22395e-16 -3.4352e-09 0.00136095 3.78658e-18 1
332 15.0803 12.0176 -2.60209e-16 -1.8671e-09 0.000688944 7.01703e-18 1
333 15.0803 11.2239 0.793701 -1.8671e-09 0.000688944 2.67205e-17 1
334 14.2866 12.1268 0.793701 -3.4352e-09 0.00136095 -5.66575e-18 1
335 15.874 11.1118 -3.39592e-17 -1.02579e-17 -9.816e-17 3.12994e-17 1
336 15.874 11.9055 0.793701 -5.5886e-18 -1.14894e-16 7.5217e-18 1
751 14.2866 11.3331 1.5874 -3.4352e-09 0.00136095 -1.6831e-17 1
752 15.0803 12.0176 1.5874 -1.8671e-09 0.000688944 2.15478e-19 1
755 15.874 11.1118 1.5874 -1.69541e-17 -1.37695e-16 -3.79275e-18 1
337 -5.26294e-16 12.6992 -2.13001e-16 1.37469e-16 -1.60481e-16 2.68195e-17 1
338 0.793712 13.605 -5.46543e-16 1.8671e-09 0.000688944 6.86254e-17 1
339 0.793712 12.8113 0.793701 1.8671e-09 0.000688944 -9.37763e-18 1
340 -6.72199e-16 13.4929 0.793701 1.29683e-16 -1.36761e-16 2.72051e-17 1
341 1.58744 12.9205 -6.66098e-16 3.4352e-09 0.00136095 2.29676e-17 1
344 1.58744 13.7142 0.793701 3.4352e-09 0.00136095 1.96742e-17 1
757 -4.64257e-16 12.6992 1.5874 9.42175e-17 -1.10458e-16 -3.51173e-17 1
758 0.793712 13.605 1.5874 1.8671e-09 0.000688944 -7.14202e-18 1
761 1.58744 12.9205 1.5874 3.4352e-09 0.00136095 -3.41217e-17 1
342 2.38118 13.818 -9.74079e-16 3.98464e-09 0.00199947 3.35887e-17 1
343 2.38118 13.0243 0.793701 3.98464e-09 0.00199947 -2.15564e-17 1
345 3.17492 13.1201 -9.42796e-16 3.46441e-09 0.00258875 -8.27976e-19 1
348 3.17492 13.9138 0.793701 3.46441e-09 0.00258875 -6.36848e-18 1
762 2.38118 13.818 1.5874 3.98464e-09 0.00199947 -1.62127e-17 1
765 3.17492 13.1201 1.5874 3.46441e-09 0.00258875 -1.69206e-17 1
310 4.76236 12.4847 0.793701 -4.51501e-12 0.0035631 5.92918e-17 1
346 3.96865 13.9992 -9.10715e-16 2.17114e-09 0.00311427 2.85792e-17 1
347 3.96865 13.2055 0.793701 2.17114e-09 0.00311427 9.41214e-18 1
349 4.76236 13.2784 -8.53892e-16 -4.51502e-12 0.0035631 6.64223e-17 1
352 4.76236 14.0721 0.793701 -4.51498e-12 0.0035631 2.17788e-17 1
766 3.96865 13.9992 1.5874 2.17114e-09 0.00311427 -6.8378e-19 1
769 4.76236 13.2784 1.5874 -4.51499e-12 0.0035631 1.3827e-17 1
314 6.34971 12.5862 0.793701 -2.88097e-10 0.00418861 3.70344e-17 1
728 5.55605 12.5433 1.5874 -2.75149e-09 0.00392417 5.78775e-18 1
351 5.55605 13.337 0.793701 -2.75149e-09 0.00392417 3.78082e-17 1