ITEM: TIMESTEP
27000
ITEM: NUMBER OF ATOMS
8000
ITEM: BOX BOUNDS pp pp pp
0.0000000000000000e+00 3.1748021039364001e+01
0.0000000000000000e+00 1.5874010519682001e+01
0.0000000000000000e+00 1.5874010519682001e+01
ITEM: ATOMS id x y z vx vy vz c_rho_peratom
2 0.793719 0.924184 -7.62974e-16 2.13048e-09 0.000545044 -5.1012e-18 1
3 0.793719 0.130484 0.793701 2.13048e-09 0.000545044 7.06957e-17 1
4 -6.7162e-16 0.793701 0.793701 -1.98441e-17 -1.12075e-16 5.33249e-17 1
5 1.58747 0.257705 -9.83951e-16 3.98212e-09 0.0010767 1.37276e-18 1
8 1.58747 1.05141 0.793701 3.98212e-09 0.0010767 1.18061e-17 1
43 -7.76574e-16 1.5874 -2.2887e-16 -2.3406e-17 -5.32438e-17 -2.18218e-17 1
45 0.793719 1.71788 0.793701 2.13048e-09 0.000545044 2.14418e-18 1
422 0.793719 0.924184 1.5874 2.13048e-09 0.000545044 6.97607e-17 1
425 1.58747 0.257705 1.5874 3.98212e-09 0.0010767 4.03231e-17 1
463 -9.15937e-16 1.5874 1.5874 -1.26807e-17 -1.25672e-16 3.59375e-17 1
6 2.38123 1.17224 -1.05657e-15 4.6625e-09 0.00158187 -2.56186e-17 1
7 2.38123 0.378537 0.793701 4.6625e-09 0.00158187 -5.42292e-18 1
9 3.17499 0.490013 -9.5822e-16 4.0726e-09 0.00204809 -2.868e-17 1
12 3.17499 1.28371 0.793701 4.0726e-09 0.00204809 -2.19159e-17 1
426 2.38123 1.17224 1.5874 4.6625e-09 0.00158187 5.70319e-18 1
429 3.17499 0.490013 1.5874 4.0726e-09 0.00204809 -6.9215e-18 1
10 3.96873 1.3831 -8.7748e-16 2.55991e-09 0.00246385 -3.67885e-17 1
11 3.96873 0.589398 0.793701 2.55991e-09 0.00246385 -3.23585e-17 1
16 4.76245 1.46796 0.793701 2.08698e-10 0.00281892 -6.14361e-17 1
430 3.96873 1.3831 1.5874 2.55991e-09 0.00246385 -1.57438e-17 1
433 4.76245 0.674258 1.5874 2.08698e-10 0.00281892 -1.43746e-17 1
15 5.55613 0.742514 0.793701 -2.50484e-09 0.00310456 -6.70321e-17 1
20 6.34978 1.5862 0.793701 -8.06046e-10 0.00331376 -8.8557e-17 1
434 5.55613 1.53621 1.5874 -2.50484e-09 0.00310456 -3.69843e-17 1
437 6.34978 0.792496 1.5874 -8.06046e-10 0.00331376 -2.04322e-17 1
19 7.1434 0.822983 0.793701 1.27121e-08 0.00344136 -6.48107e-17 1
23 8.73061 0.822983 0.793701 -1.27121e-08 0.00344136 -7.38107e-17 1
24 7.93701 1.62693 0.793701 6.28375e-17 0.00348425 -5.60336e-17 1
438 7.1434 1.61668 1.5874 1.27121e-08 0.00344136 -3.05548e-17 1
441 7.93701 0.833229 1.5874 5.1495e-17 0.00348425 -3.48288e-17 1
442 8.73061 1.61668 1.5874 -1.27121e-08 0.00344136 -2.73529e-17 1
27 10.3179 0.742514 0.793701 2.50484e-09 0.00310456 -4.83185e-17 1
28 9.52424 1.5862 0.793701 8.06046e-10 0.00331376 -4.48747e-17 1
445 9.52424 0.792496 1.5874 8.06046e-10 0.00331376 -3.03412e-17 1
446 10.3179 1.53621 1.5874 2.50484e-09 0.00310456 -1.93767e-17 1
30 11.9053 1.3831 -3.35624e-16 -2.55991e-09 0.00246385 -5.36125e-17 1
31 11.9053 0.589398 0.793701 -2.55991e-09 0.00246385 -2.43436e-17 1
32 11.1116 1.46796 0.793701 -2.08698e-10 0.00281892 -2.54693e-17 1
449 11.1116 0.674258 1.5874 -2.08698e-10 0.00281892 -2.28482e-17 1
450 11.9053 1.3831 1.5874 -2.55991e-09 0.00246385 -2.05737e-17 1
33 12.699 0.490013 -2.21673e-16 -4.0726e-09 0.00204809 -4.17053e-17 1
34 13.4928 1.17224 -3.73885e-16 -4.6625e-09 0.00158187 -2.86603e-17 1
35 13.4928 0.378537 0.793701 -4.6625e-09 0.00158187 -8.70453e-18 1
36 12.699 1.28371 0.793701 -4.0726e-09 0.00204809 -3.04772e-17 1
453 12.699 0.490013 1.5874 -4.0726e-09 0.00204809 -1.01951e-17 1
454 13.4928 1.17224 1.5874 -4.6625e-09 0.00158187 -2.25727e-17 1
37 14.2865 0.257705 -2.8481e-16 -3.98212e-09 0.0010767 3.84716e-18 1
38 15.0803 0.924184 -1.50398e-16 -2.13048e-09 0.000545044 1.61863e-17 1
39 15.0803 0.130484 0.793701 -2.13048e-09 0.000545044 5.87699e-17 1
40 14.2865 1.05141 0.793701 -3.98212e-09 0.0010767 4.28114e-18 1
41 15.874 -1.61877e-15 1.88651e-16 -8.39553e-17 -1.00372e-16 6.61718e-17 1
42 15.874 0.793701 0.793701 -8.35249e-17 -1.1683e-16 6.88712e-17 1
81 15.0803 1.71788 0.793701 -2.13048e-09 0.000545044 1.62146e-17 1
83 15.874 1.5874 7.3621e-17 -8.96763e-17 -5.66589e-17 1.01257e-17 1
457 14.2865 0.257705 1.5874 -3.98212e-09 0.0010767 1.62044e-17 1
458 15.0803 0.924184 1.5874 -2.13048e-09 0.000545044 4.98301e-17 1
461 15.874 -1.54171e-15 1.5874 -3.63322e-17 -1.40867e-16 9.05891e-17 1
503 15.874 1.5874 1.5874 -8.25609e-17 -1.14874e-16 5.85025e-17 1
47 1.58747 1.84511 -9.50101e-16 3.98212e-09 0.0010767 -2.83098e-17 1
467 1.58747 1.84511 1.5874 3.98212e-09 0.0010767 1.21108e-17 1
44 0.793719 2.51159 -6.41658e-16 2.13048e-09 0.000545044 -3.37899e-17 1
46 -1.08033e-15 2.3811 0.793701 -1.95322e-17 -5.78847e-17 -1.62735e-17 1
50 1.58747 2.63881 0.793701 3.98212e-09 0.0010767 -2.39018e-17 1
85 -9.57207e-16 3.1748 -1.34701e-17 -2.32945e-17 -5.40282e-17 -3.94383e-17 1
87 0.793719 3.30529 0.793701 2.13048e-09 0.000545044 -2.69042e-17 1
89 1.58747 3.43251 -8.61453e-16 3.98212e-09 0.0010767 -3.23115e-17 1
464 0.793719 2.51159 1.5874 2.13048e-09 0.000545044 -3.87317e-18 1
505 -1.23249e-15 3.1748 1.5874 -1.63162e-17 -6.71546e-17 -1.76151e-17 1
509 1.58747 3.43251 1.5874 3.98212e-09 0.0010767 -2.0716e-17 1
49 2.38123 1.96594 0.793701 4.6625e-09 0.00158187 -2.06614e-17 1
51 3.17499 2.07741 -9.46982e-16 4.0726e-09 0.00204809 -2.60634e-17 1
471 3.17499 2.07741 1.5874 4.0726e-09 0.00204809 -1.34179e-17 1
48 2.38123 2.75964 -9.81243e-16 4.6625e-09 0.00158187 -2.85837e-17 1
54 3.17499 2.87111 0.793701 4.0726e-09 0.00204809 -2.47146e-17 1
91 2.38123 3.55334 0.793701 4.6625e-09 0.00158187 -2.75517e-17 1
468 2.38123 2.75964 1.5874 4.6625e-09 0.00158187 -1.58451e-17 1
53 3.96873 2.1768 0.793701 2.55991e-09 0.00246385 -2.976e-17 1
475 4.76245 2.26166 1.5874 2.08698e-10 0.00281892 -3.25262e-17 1
52 3.96873 2.9705 -8.58831e-16 2.55991e-09 0.00246385 -2.61011e-17 1
58 4.76245 3.05536 0.793701 2.08698e-10 0.00281892 -3.38286e-17 1
472 3.96873 2.9705 1.5874 2.55991e-09 0.00246385 -1.82041e-17 1
57 5.55613 2.32991 0.793701 -2.50484e-09 0.00310456 -8.2973e-17 1
479 6.34978 2.3799 1.5874 -8.06046e-10 0.00331376 -4.63999e-17 1
62 6.34978 3.1736 0.793701 -8.06046e-10 0.00331376 -6.12443e-17 1
476 5.55613 3.12362 1.5874 -2.50484e-09 0.00310456 -4.07168e-17 1
61 7.1434 2.41038 0.793701 1.27121e-08 0.00344136 -6.94679e-17 1
65 8.73061 2.41038 0.793701 -1.27121e-08 0.00344136 -2.9887e-17 1
483 7.93701 2.42063 1.5874 7.16012e-17 0.00348425 -1.728e-17 1
66 7.93701 3.21433 0.793701 5.607e-17 0.00348425 -3.48741e-17 1
480 7.1434 3.20408 1.5874 1.27121e-08 0.00344136 -1.91063e-17 1
484 8.73061 3.20408 1.5874 -1.27121e-08 0.00344136 -2.42426e-18 1
69 10.3179 2.32991 0.793701 2.50484e-09 0.00310456 -1.78687e-17 1
487 9.52424 2.3799 1.5874 8.06046e-10 0.00331376 -9.11018e-18 1
70 9.52424 3.1736 0.793701 8.06046e-10 0.00331376 -1.35423e-17 1
488 10.3179 3.12362 1.5874 2.50484e-09 0.00310456 -8.93097e-18 1
73 11.9053 2.1768 0.793701 -2.55991e-09 0.00246385 -2.93471e-17 1
491 11.1116 2.26166 1.5874 -2.08698e-10 0.00281892 -1.69998e-17 1
72 11.9053 2.9705 -4.24855e-16 -2.55991e-09 0.00246385 -3.79886e-17 1
74 11.1116 3.05536 0.793701 -2.08698e-10 0.00281892 -1.23357e-17 1
492 11.9053 2.9705 1.5874 -2.55991e-09 0.00246385 -2.05951e-17 1
77 13.4928 1.96594 0.793701 -4.6625e-09 0.00158187 -2.63793e-17 1
75 12.699 2.07741 -4.17178e-16 -4.0726e-09 0.00204809 -5.15145e-17 1
495 12.699 2.07741 1.5874 -4.0726e-09 0.00204809 -3.26675e-17 1
76 13.4928 2.75964 -4.30677e-16 -4.6625e-09 0.00158187 -1.77622e-17 1
78 12.699 2.87111 0.793701 -4.0726e-09 0.00204809 -2.88281e-17 1
119 13.4928 3.55334 0.793701 -4.6625e-09 0.00158187 -8.46316e-18 1
496 13.4928 2.75964 1.5874 -4.6625e-09 0.00158187 -3.56108e-17 1
79 14.2865 1.84511 -3.04271e-16 -3.98212e-09 0.0010767 -5.68812e-18 1
499 14.2865 1.84511 1.5874 -3.98212e-09 0.0010767 -1.45846e-17 1
80 15.0803 2.51159 -1.51542e-17 -2.13048e-09 0.000545044 4.24557e-19 1
82 14.2865 2.63881 0.793701 -3.98212e-09 0.0010767 -9.17459e-18 1
84 15.874 2.3811 0.793701 -8.84203e-17 -5.27953e-17 9.53882e-18 1
121 14.2865 3.43251 -3.07419e-16 -3.98212e-09 0.0010767 2.4943e-18 1
123 15.0803 3.30529 0.793701 -2.13048e-09 0.000545044 -4.32703e-19 1
125 15.874 3.1748 1.60211e-16 -8.53179e-17 -5.13337e-17 5.68113e-19 1
500 15.0803 2.51159 1.5874 -2.13048e-09 0.000545044 2.99249e-18 1
541 14.2865 3.43251 1.5874 -3.98212e-09 0.0010767 -9.13728e-18 1
545 15.874 3.1748 1.5874 -8.37899e-17 -6.04831e-17 2.96029e-19 1
86 0.793719 4.09899 -6.41094e-16 2.13048e-09 0.000545044 -3.55934e-17 1
88 -1.14095e-15 3.9685 0.793701 -1.8376e-17 -7.66426e-17 -3.24804e-17 1
92 1.58747 4.22621 0.793701 3.98212e-09 0.0010767 -2.89486e-17 1
127 -8.20169e-16 4.7622 2.98691e-17 -1.96849e-17 -9.96178e-17 -3.93555e-17 1
129 0.793719 4.89269 0.793701 2.13048e-09 0.000545044 -3.18645e-17 1
131 1.58747 5.01991 -8.08834e-16 3.98212e-09 0.0010767 -3.09273e-17 1
506 0.793719 4.09899 1.5874 2.13048e-09 0.000545044 -2.47563e-17 1
547 -1.12116e-15 4.7622 1.5874 -1.27139e-17 -1.00141e-16 -2.81228e-17 1
551 1.58747 5.01991 1.5874 3.98212e-09 0.0010767 -2.38932e-17 1
93 3.17499 3.66482 -9.10946e-16 4.0726e-09 0.00204809 -2.4687e-17 1
513 3.17499 3.66482 1.5874 4.0726e-09 0.00204809 -1.80434e-17 1
90 2.38123 4.34704 -9.40262e-16 4.6625e-09 0.00158187 -2.77475e-17 1
96 3.17499 4.45852 0.793701 4.0726e-09 0.00204809 -2.66837e-17 1
133 2.38123 5.14074 0.793701 4.6625e-09 0.00158187 -2.67426e-17 1
135 3.17499 5.25222 -9.29105e-16 4.0726e-09 0.00204809 -2.64602e-17 1
510 2.38123 4.34704 1.5874 4.6625e-09 0.00158187 -2.09992e-17 1
555 3.17499 5.25222 1.5874 4.0726e-09 0.00204809 -1.93623e-17 1
95 3.96873 3.7642 0.793701 2.55991e-09 0.00246385 -2.47368e-17 1
517 4.76245 3.84906 1.5874 2.08698e-10 0.00281892 -1.654e-17 1
94 3.96873 4.5579 -7.91997e-16 2.55991e-09 0.00246385 -2.77405e-17 1
100 4.76245 4.64276 0.793701 2.08698e-10 0.00281892 -2.91438e-17 1
514 3.96873 4.5579 1.5874 2.55991e-09 0.00246385 -2.07011e-17 1
99 5.55613 3.91732 0.793701 -2.50484e-09 0.00310456 -2.68157e-17 1
521 6.34978 3.9673 1.5874 -8.06046e-10 0.00331376 -1.71528e-17 1
104 6.34978 4.761 0.793701 -8.06046e-10 0.00331376 -2.62765e-17 1
518 5.55613 4.71102 1.5874 -2.50484e-09 0.00310456 -6.61577e-18 1
103 7.1434 3.99779 0.793701 1.27121e-08 0.00344136 -3.14718e-17 1
107 8.73061 3.99779 0.793701 -1.27121e-08 0.00344136 -1.70099e-17 1
525 7.93701 4.00803 1.5874 7.53268e-17 0.00348425 1.01769e-18 1
108 7.93701 4.80173 0.793701 8.08626e-17 0.00348425 -1.79082e-17 1
522 7.1434 4.79149 1.5874 1.27121e-08 0.00344136 3.79721e-18 1
526 8.73061 4.79149 1.5874 -1.27121e-08 0.00344136 -1.00318e-18 1
111 10.3179 3.91732 0.793701 2.50484e-09 0.00310456 -7.39918e-18 1
529 9.52424 3.9673 1.5874 8.06046e-10 0.00331376 -7.8131e-18 1
112 9.52424 4.761 0.793701 8.06046e-10 0.00331376 -6.13656e-18 1
530 10.3179 4.71102 1.5874 2.50484e-09 0.00310456 -5.234e-18 1
115 11.9053 3.7642 0.793701 -2.55991e-09 0.00246385 -1.21146e-17 1
533 11.1116 3.84906 1.5874 -2.08698e-10 0.00281892 -8.64994e-18 1
116 11.1116 4.64276 0.793701 -2.08698e-10 0.00281892 -3.37147e-18 1
534 11.9053 4.5579 1.5874 -2.55991e-09 0.00246385 3.07751e-18 1
537 12.699 3.66482 1.5874 -4.0726e-09 0.00204809 -1.55601e-17 1
118 13.4928 4.34704 -3.77077e-16 -4.6625e-09 0.00158187 7.4544e-18 1
120 12.699 4.45852 0.793701 -4.0726e-09 0.00204809 -1.1363e-18 1
161 13.4928 5.14074 0.793701 -4.6625e-09 0.00158187 2.31488e-17 1
538 13.4928 4.34704 1.5874 -4.6625e-09 0.00158187 9.09293e-18 1
579 12.699 5.25222 1.5874 -4.0726e-09 0.00204809 2.3621e-17 1
122 15.0803 4.09899 -2.67834e-16 -2.13048e-09 0.000545044 4.72834e-19 1
124 14.2865 4.22621 0.793701 -3.98212e-09 0.0010767 9.69547e-18 1
126 15.874 3.9685 0.793701 -6.42935e-17 -8.03772e-17 -4.35231e-19 1
163 14.2865 5.01991 -4.38637e-16 -3.98212e-09 0.0010767 1.24314e-17 1
165 15.0803 4.89269 0.793701 -2.13048e-09 0.000545044 1.26051e-17 1
167 15.874 4.7622 -3.0752e-17 -1.98534e-17 -9.92801e-17 -8.41489e-18 1
542 15.0803 4.09899 1.5874 -2.13048e-09 0.000545044 1.4866e-17 1
583 14.2865 5.01991 1.5874 -3.98212e-09 0.0010767 4.33018e-17 1
587 15.874 4.7622 1.5874 -4.14492e-17 -9.72187e-17 1.46281e-17 1
128 0.793719 5.68639 -6.76522e-16 2.13048e-09 0.000545044 -3.41493e-17 1
130 -8.83495e-16 5.5559 0.793701 -1.17243e-17 -1.17871e-16 -3.50786e-17 1
134 1.58747 5.81361 0.793701 3.98212e-09 0.0010767 -2.71235e-17 1
169 -5.59991e-16 6.3496 -1.12826e-16 -1.33012e-17 -1.33908e-16 -3.38336e-17 1
171 0.793719 6.48009 0.793701 2.13048e-09 0.000545044 -2.6442e-17 1
173 1.58747 6.60731 -7.52833e-16 3.98212e-09 0.0010767 -2.75294e-17 1
548 0.793719 5.68639 1.5874 2.13048e-09 0.000545044 -2.48865e-17 1
589 -4.92592e-16 6.3496 1.5874 -8.16281e-18 -1.19416e-16 -2.44478e-17 1
593 1.58747 6.60731 1.5874 3.98212e-09 0.0010767 -1.95756e-17 1
132 2.38123 5.93444 -9.88623e-16 4.6625e-09 0.00158187 -2.74263e-17 1
138 3.17499 6.04592 0.793701 4.0726e-09 0.00204809 -2.64996e-17 1
175 2.38123 6.72814 0.793701 4.6625e-09 0.00158187 -2.24815e-17 1
177 3.17499 6.83962 -1.11093e-15 4.0726e-09 0.00204809 -2.48918e-17 1
552 2.38123 5.93444 1.5874 4.6625e-09 0.00158187 -1.95543e-17 1
597 3.17499 6.83962 1.5874 4.0726e-09 0.00204809 -1.79851e-17 1
137 3.96873 5.3516 0.793701 2.55991e-09 0.00246385 -2.80899e-17 1
559 4.76245 5.43646 1.5874 2.08698e-10 0.00281892 -1.49222e-17 1
136 3.96873 6.1453 -9.58994e-16 2.55991e-09 0.00246385 -2.78991e-17 1
142 4.76245 6.23016 0.793701 2.08698e-10 0.00281892 -2.6132e-17 1
179 3.96873 6.939 0.793701 2.55991e-09 0.00246385 -2.50693e-17 1
181 4.76245 7.02386 -8.4404e-16 2.08698e-10 0.00281892 -2.84159e-17 1
556 3.96873 6.1453 1.5874 2.55991e-09 0.00246385 -2.18476e-17 1
601 4.76245 7.02386 1.5874 2.08698e-10 0.00281892 -1.41048e-17 1
141 5.55613 5.50472 0.793701 -2.50484e-09 0.00310456 -3.34461e-17 1
563 6.34978 5.5547 1.5874 -8.06046e-10 0.00331376 2.10789e-18 1
146 6.34978 6.3484 0.793701 -8.06046e-10 0.00331376 -1.94397e-17 1
183 5.55613 7.09212 0.793701 -2.50484e-09 0.00310456 -1.87065e-17 1
560 5.55613 6.29842 1.5874 -2.50484e-09 0.00310456 -3.09815e-18 1
145 7.1434 5.58519 0.793701 1.27121e-08 0.00344136 -1.81783e-17 1
149 8.73061 5.58519 0.793701 -1.27121e-08 0.00344136 -4.23832e-18 1
567 7.93701 5.59543 1.5874 8.32592e-17 0.00348425 5.16884e-18 1
150 7.93701 6.38913 0.793701 7.13115e-17 0.00348425 -7.39532e-18 1
564 7.1434 6.37889 1.5874 1.27121e-08 0.00344136 4.19656e-18 1
568 8.73061 6.37889 1.5874 -1.27121e-08 0.00344136 1.00175e-17 1
153 10.3179 5.50472 0.793701 2.50484e-09 0.00310456 4.44779e-18 1
571 9.52424 5.5547 1.5874 8.06046e-10 0.00331376 4.38323e-18 1
154 9.52424 6.3484 0.793701 8.06046e-10 0.00331376 1.06862e-17 1
195 10.3179 7.09212 0.793701 2.50484e-09 0.00310456 1.19616e-17 1
572 10.3179 6.29842 1.5874 2.50484e-09 0.00310456 1.58415e-17 1
157 11.9053 5.3516 0.793701 -2.55991e-09 0.00246385 1.0627e-18 1
575 11.1116 5.43646 1.5874 -2.08698e-10 0.00281892 1.18022e-17 1
156 11.9053 6.1453 -5.20572e-16 -2.55991e-09 0.00246385 -1.38754e-17 1
158 11.1116 6.23016 0.793701 -2.08698e-10 0.00281892 4.89755e-18 1
199 11.9053 6.939 0.793701 -2.55991e-09 0.00246385 4.80814e-18 1
576 11.9053 6.1453 1.5874 -2.55991e-09 0.00246385 2.47235e-17 1
617 11.1116 7.02386 1.5874 -2.08698e-10 0.00281892 2.34468e-17 1
160 13.4928 5.93444 -5.39314e-16 -4.6625e-09 0.00158187 4.40729e-18 1
162 12.699 6.04592 0.793701 -4.0726e-09 0.00204809 1.39589e-17 1
201 12.699 6.83962 -5.85067e-16 -4.0726e-09 0.00204809 -7.54009e-18 1
203 13.4928 6.72814 0.793701 -4.6625e-09 0.00158187 1.89142e-17 1
580 13.4928 5.93444 1.5874 -4.6625e-09 0.00158187 4.74719e-17 1
621 12.699 6.83962 1.5874 -4.0726e-09 0.00204809 3.12777e-17 1
164 15.0803 5.68639 -3.47099e-16 -2.13048e-09 0.000545044 -7.28926e-18 1
166 14.2865 5.81361 0.793701 -3.98212e-09 0.0010767 2.92743e-17 1
168 15.874 5.5559 0.793701 2.16381e-17 -1.0317e-16 -1.70384e-18 1
205 14.2865 6.60731 -5.28378e-16 -3.98212e-09 0.0010767 -1.27617e-17 1
207 15.0803 6.48009 0.793701 -2.13048e-09 0.000545044 5.13989e-18 1
209 15.874 6.3496 8.91593e-17 5.65765e-17 -9.27149e-17 -2.17277e-17 1
584 15.0803 5.68639 1.5874 -2.13048e-09 0.000545044 4.5336e-17 1
625 14.2865 6.60731 1.5874 -3.98212e-09 0.0010767 4.40523e-17 1
629 15.874 6.3496 1.5874 3.74499e-17 -1.04826e-16 1.30136e-17 1
170 0.793719 7.27379 -5.92184e-16 2.13048e-09 0.000545044 -1.68108e-17 1
172 -3.36104e-16 7.1433 0.793701 -1.31733e-17 -9.96161e-17 -1.84665e-17 1
176 1.58747 7.40101 0.793701 3.98212e-09 0.0010767 -7.50385e-18 1
211 -3.05247e-16 7.93701 -3.81444e-16 -1.54749e-17 -7.55495e-17 1.43296e-17 1
213 0.793719 8.06749 0.793701 2.13048e-09 0.000545044 1.93628e-17 1
214 -4.68009e-17 8.73071 0.793701 -1.89401e-17 -1.3126e-17 3.75074e-17 1
215 1.58747 8.19471 -5.79722e-16 3.98212e-09 0.0010767 5.15613e-18 1
590 0.793719 7.27379 1.5874 2.13048e-09 0.000545044 -1.78614e-17 1
631 -2.23286e-16 7.93701 1.5874 -1.7498e-17 -1.11543e-17 -1.73997e-17 1
635 1.58747 8.19471 1.5874 3.98212e-09 0.0010767 -1.30425e-17 1
174 2.38123 7.52184 -8.39648e-16 4.6625e-09 0.00158187 -2.06248e-17 1
180 3.17499 7.63332 0.793701 4.0726e-09 0.00204809 -2.11098e-17 1
217 2.38123 8.31554 0.793701 4.6625e-09 0.00158187 -4.70549e-18 1
219 3.17499 8.42702 -7.98326e-16 4.0726e-09 0.00204809 -2.48755e-17 1
594 2.38123 7.52184 1.5874 4.6625e-09 0.00158187 -1.46183e-17 1
639 3.17499 8.42702 1.5874 4.0726e-09 0.00204809 -1.50459e-17 1
178 3.96873 7.7327 -9.54301e-16 2.55991e-09 0.00246385 -2.39598e-17 1
184 4.76245 7.81756 0.793701 2.08698e-10 0.00281892 -2.06699e-17 1
221 3.96873 8.5264 0.793701 2.55991e-09 0.00246385 -2.30481e-17 1
598 3.96873 7.7327 1.5874 2.55991e-09 0.00246385 -2.0507e-17 1
643 4.76245 8.61126 1.5874 2.08698e-10 0.00281892 -1.58643e-17 1
605 6.34978 7.1421 1.5874 -8.06046e-10 0.00331376 -1.15419e-18 1
188 6.34978 7.9358 0.793701 -8.06046e-10 0.00331376 -1.52229e-17 1
225 5.55613 8.67952 0.793701 -2.50484e-09 0.00310456 -2.0822e-17 1
602 5.55613 7.88582 1.5874 -2.50484e-09 0.00310456 -8.75501e-18 1
647 6.34978 8.7295 1.5874 -8.06046e-10 0.00331376 -3.82725e-18 1
187 7.1434 7.17259 0.793701 1.27121e-08 0.00344136 -1.31083e-17 1
191 8.73061 7.17259 0.793701 -1.27121e-08 0.00344136 3.61914e-18 1
609 7.93701 7.18283 1.5874 6.80284e-17 0.00348425 7.09298e-18 1
192 7.93701 7.97653 0.793701 5.37634e-17 0.00348425 -6.57391e-18 1
229 7.1434 8.75999 0.793701 1.27121e-08 0.00344136 -6.92606e-18 1
233 8.73061 8.75999 0.793701 -1.27121e-08 0.00344136 9.54793e-18 1
606 7.1434 7.96629 1.5874 1.27121e-08 0.00344136 1.62267e-18 1
610 8.73061 7.96629 1.5874 -1.27121e-08 0.00344136 1.18779e-17 1
651 7.93701 8.77023 1.5874 5.60316e-17 0.00348425 9.04267e-18 1
613 9.52424 7.1421 1.5874 8.06046e-10 0.00331376 1.60741e-17 1
196 9.52424 7.9358 0.793701 8.06046e-10 0.00331376 9.63119e-18 1
237 10.3179 8.67952 0.793701 2.50484e-09 0.00310456 2.32242e-17 1
614 10.3179 7.88582 1.5874 2.50484e-09 0.00310456 2.0299e-17 1
655 9.52424 8.7295 1.5874 8.06046e-10 0.00331376 1.88917e-17 1
200 11.1116 7.81756 0.793701 -2.08698e-10 0.00281892 1.44377e-17 1
241 11.9053 8.5264 0.793701 -2.55991e-09 0.00246385 1.98765e-17 1
618 11.9053 7.7327 1.5874 -2.55991e-09 0.00246385 2.47825e-17 1
659 11.1116 8.61126 1.5874 -2.08698e-10 0.00281892 2.49074e-17 1
202 13.4928 7.52184 -6.13626e-16 -4.6625e-09 0.00158187 -1.71679e-17 1
204 12.699 7.63332 0.793701 -4.0726e-09 0.00204809 4.90947e-18 1
243 12.699 8.42702 -6.39137e-16 -4.0726e-09 0.00204809 1.26658e-17 1
245 13.4928 8.31554 0.793701 -4.6625e-09 0.00158187 -6.99997e-18 1
622 13.4928 7.52184 1.5874 -4.6625e-09 0.00158187 2.48239e-17 1
663 12.699 8.42702 1.5874 -4.0726e-09 0.00204809 1.65503e-17 1
206 15.0803 7.27379 -2.81461e-16 -2.13048e-09 0.000545044 -3.00119e-17 1
208 14.2865 7.40101 0.793701 -3.98212e-09 0.0010767 -1.03224e-18 1
210 15.874 7.1433 0.793701 7.04342e-17 -9.04549e-17 -1.17229e-17 1
247 14.2865 8.19471 -6.08777e-16 -3.98212e-09 0.0010767 -3.33592e-17 1
249 15.0803 8.06749 0.793701 -2.13048e-09 0.000545044 -1.69937e-17 1
251 15.874 7.93701 2.27899e-16 6.6903e-17 -8.30527e-17 -2.64465e-17 1
252 15.874 8.73071 0.793701 6.42838e-17 -8.85691e-17 -2.00411e-17 1
626 15.0803 7.27379 1.5874 -2.13048e-09 0.000545044 1.65183e-17 1
667 14.2865 8.19471 1.5874 -3.98212e-09 0.0010767 8.78042e-18 1
671 15.874 7.93701 1.5874 6.65798e-17 -9.14554e-17 -4.05486e-18 1
212 0.793719 8.86119 -6.94131e-16 2.13048e-09 0.000545044 5.14274e-17 1
632 0.793719 8.86119 1.5874 2.13048e-09 0.000545044 -1.50722e-17 1
218 1.58747 8.98841 0.793701 3.98212e-09 0.0010767 2.11026e-17 1
253 7.89122e-17 9.52441 -4.59234e-16 -2.11982e-17 -3.04552e-17 5.75e-17 1
254 0.793719 10.4486 -5.30365e-16 2.13048e-09 0.000545044 1.15982e-17 1
255 0.793719 9.65489 0.793701 2.13048e-09 0.000545044 1.63591e-17 1
256 2.4026e-16 10.3181 0.793701 -4.13922e-18 -1.08413e-16 -2.37998e-17 1
257 1.58747 9.78211 -5.1269e-16 3.98212e-09 0.0010767 1.57853e-17 1
260 1.58747 10.5758 0.793701 3.98212e-09 0.0010767 -2.22232e-17 1
673 3.3342e-16 9.52441 1.5874 -6.1542e-18 -9.32109e-17 -2.15387e-17 1
674 0.793719 10.4486 1.5874 2.13048e-09 0.000545044 -2.60067e-17 1
677 1.58747 9.78211 1.5874 3.98212e-09 0.0010767 -1.55388e-17 1
216 2.38123 9.10924 -4.97883e-16 4.6625e-09 0.00158187 -1.16716e-17 1
222 3.17499 9.22072 0.793701 4.0726e-09 0.00204809 -2.26442e-17 1
636 2.38123 9.10924 1.5874 4.6625e-09 0.00158187 -1.17499e-17 1
259 2.38123 9.90294 0.793701 4.6625e-09 0.00158187 -1.94682e-17 1
261 3.17499 10.0144 -6.522e-16 4.0726e-09 0.00204809 -4.53243e-17 1
681 3.17499 10.0144 1.5874 4.0726e-09 0.00204809 -1.68845e-17 1
220 3.96873 9.3201 -7.03787e-16 2.55991e-09 0.00246385 -4.07433e-17 1
226 4.76245 9.40496 0.793701 2.08698e-10 0.00281892 -2.95314e-17 1
640 3.96873 9.3201 1.5874 2.55991e-09 0.00246385 -2.02411e-17 1
263 3.96873 10.1138 0.793701 2.55991e-09 0.00246385 -3.66242e-17 1
685 4.76245 10.1987 1.5874 2.08698e-10 0.00281892 -2.27338e-17 1
230 6.34978 9.5232 0.793701 -8.06046e-10 0.00331376 -1.77777e-17 1
644 5.55613 9.47322 1.5874 -2.50484e-09 0.00310456 -1.31087e-17 1
267 5.55613 10.2669 0.793701 -2.50484e-09 0.00310456 -4.3008e-17 1
689 6.34978 10.3169 1.5874 -8.06046e-10 0.00331376 -1.10481e-17 1
234 7.93701 9.56393 0.793701 4.08222e-17 0.00348425 8.1303e-18 1
648 7.1434 9.55369 1.5874 1.27121e-08 0.00344136 4.06058e-18 1
652 8.73061 9.55369 1.5874 -1.27121e-08 0.00344136 2.02179e-17 1
271 7.1434 10.3474 0.793701 1.27121e-08 0.00344136 -9.04573e-18 1
275 8.73061 10.3474 0.793701 -1.27121e-08 0.00344136 1.79312e-17 1
693 7.93701 10.3576 1.5874 3.9122e-17 0.00348425 2.11222e-17 1
238 9.52424 9.5232 0.793701 8.06046e-10 0.00331376 3.1449e-17 1
656 10.3179 9.47322 1.5874 2.50484e-09 0.00310456 3.043e-17 1
279 10.3179 10.2669 0.793701 2.50484e-09 0.00310456 4.90967e-17 1
697 9.52424 10.3169 1.5874 8.06046e-10 0.00331376 3.01153e-17 1
240 11.9053 9.3201 -7.11515e-16 -2.55991e-09 0.00246385 6.34722e-17 1
242 11.1116 9.40496 0.793701 -2.08698e-10 0.00281892 4.64473e-17 1
660 11.9053 9.3201 1.5874 -2.55991e-09 0.00246385 2.4155e-17 1
283 11.9053 10.1138 0.793701 -2.55991e-09 0.00246385 4.04622e-17 1
701 11.1116 10.1987 1.5874 -2.08698e-10 0.00281892 3.88702e-17 1
244 13.4928 9.10924 -8.72296e-16 -4.6625e-09 0.00158187 -1.70017e-17 1
246 12.699 9.22072 0.793701 -4.0726e-09 0.00204809 7.77588e-18 1
664 13.4928 9.10924 1.5874 -4.6625e-09 0.00158187 7.03542e-18 1
285 12.699 10.0144 -9.75361e-16 -4.0726e-09 0.00204809 2.72424e-17 1
287 13.4928 9.90294 0.793701 -4.6625e-09 0.00158187 -8.65953e-18 1
705 12.699 10.0144 1.5874 -4.0726e-09 0.00204809 1.55659e-17 1
248 15.0803 8.86119 -2.14483e-16 -2.13048e-09 0.000545044 -3.33115e-17 1
668 15.0803 8.86119 1.5874 -2.13048e-09 0.000545044 -3.77171e-18 1
250 14.2865 8.98841 0.793701 -3.98212e-09 0.0010767 -2.03112e-17 1
289 14.2865 9.78211 -5.51813e-16 -3.98212e-09 0.0010767 -3.19185e-17 1
290 15.0803 10.4486 -8.24108e-17 -2.13048e-09 0.000545044 -2.52943e-17 1
291 15.0803 9.65489 0.793701 -2.13048e-09 0.000545044 -2.12013e-17 1
292 14.2865 10.5758 0.793701 -3.98212e-09 0.0010767 -2.35685e-18 1
293 15.874 9.52441 2.52797e-16 5.07982e-17 -9.52315e-17 -2.51981e-17 1
294 15.874 10.3181 0.793701 4.9971e-17 -8.93869e-17 -1.22014e-17 1
709 14.2865 9.78211 1.5874 -3.98212e-09 0.0010767 1.90046e-18 1
710 15.0803 10.4486 1.5874 -2.13048e-09 0.000545044 8.72738e-18 1
713 15.874 9.52441 1.5874 5.54443e-17 -8.96196e-17 -9.41913e-18 1
295 3.96921e-17 11.1118 -4.51883e-16 -4.97653e-18 -8.98793e-17 -1.78622e-17 1
296 0.793719 12.036 -6.15451e-16 2.13048e-09 0.000545044 -3.46278e-17 1
297 0.793719 11.2423 0.793701 2.13048e-09 0.000545044 -4.07052e-17 1
298 -1.34205e-17 11.9055 0.793701 6.29745e-18 -9.34677e-17 -5.82586e-17 1
299 1.58747 11.3695 -4.89116e-16 3.98212e-09 0.0010767 -3.34948e-17 1
302 1.58747 12.1632 0.793701 3.98212e-09 0.0010767 -3.34775e-17 1
715 2.3654e-16 11.1118 1.5874 9.35276e-18 -1.22753e-16 -3.84576e-17 1
716 0.793719 12.036 1.5874 2.13048e-09 0.000545044 -3.53364e-17 1
719 1.58747 11.3695 1.5874 3.98212e-09 0.0010767 -1.99906e-17 1
258 2.38123 10.6966 -4.62739e-16 4.6625e-09 0.00158187 -3.90056e-17 1
678 2.38123 10.6966 1.5874 4.6625e-09 0.00158187 -1.45997e-17 1
264 3.17499 10.8081 0.793701 4.0726e-09 0.00204809 -3.8436e-17 1
300 2.38123 12.284 -5.03661e-16 4.6625e-09 0.00158187 -4.26887e-17 1
301 2.38123 11.4903 0.793701 4.6625e-09 0.00158187 -3.49729e-17 1
303 3.17499 11.6018 -4.84153e-16 4.0726e-09 0.00204809 -5.75291e-17 1
720 2.38123 12.284 1.5874 4.6625e-09 0.00158187 -2.24292e-17 1
723 3.17499 11.6018 1.5874 4.0726e-09 0.00204809 -2.26299e-17 1
262 3.96873 10.9075 -5.98597e-16 2.55991e-09 0.00246385 -6.73597e-17 1
268 4.76245 10.9924 0.793701 2.08698e-10 0.00281892 -5.06723e-17 1
682 3.96873 10.9075 1.5874 2.55991e-09 0.00246385 -2.39e-17 1
305 3.96873 11.7012 0.793701 2.55991e-09 0.00246385 -4.90524e-17 1
727 4.76245 11.7861 1.5874 2.08698e-10 0.00281892 -2.79472e-17 1
272 6.34978 11.1106 0.793701 -8.06046e-10 0.00331376 -4.29069e-17 1
686 5.55613 11.0606 1.5874 -2.50484e-09 0.00310456 -2.60975e-17 1
309 5.55613 11.8543 0.793701 -2.50484e-09 0.00310456 -5.9292e-17 1
731 6.34978 11.9043 1.5874 -8.06046e-10 0.00331376 -1.98922e-17 1
276 7.93701 11.1513 0.793701 1.95093e-17 0.00348425 -3.63457e-18 1
690 7.1434 11.1411 1.5874 1.27121e-08 0.00344136 7.92433e-18 1
694 8.73061 11.1411 1.5874 -1.27121e-08 0.00344136 2.56604e-17 1
313 7.1434 11.9348 0.793701 1.27121e-08 0.00344136 -3.09324e-17 1
317 8.73061 11.9348 0.793701 -1.27121e-08 0.00344136 -3.11219e-17 1
735 7.93701 11.945 1.5874 2.24925e-17 0.00348425 6.86928e-18 1
280 9.52424 11.1106 0.793701 8.06046e-10 0.00331376 1.25718e-17 1
698 10.3179 11.0606 1.5874 2.50484e-09 0.00310456 3.0697e-17 1
321 10.3179 11.8543 0.793701 2.50484e-09 0.00310456 2.49876e-18 1
739 9.52424 11.9043 1.5874 8.06046e-10 0.00331376 -1.53461e-19 1
282 11.9053 10.9075 -7.80681e-16 -2.55991e-09 0.00246385 3.20176e-17 1
284 11.1116 10.9924 0.793701 -2.08698e-10 0.00281892 4.70839e-17 1
702 11.9053 10.9075 1.5874 -2.55991e-09 0.00246385 2.81962e-17 1
325 11.9053 11.7012 0.793701 -2.55991e-09 0.00246385 1.88978e-17 1
743 11.1116 11.7861 1.5874 -2.08698e-10 0.00281892 2.00758e-17 1
286 13.4928 10.6966 -8.85912e-16 -4.6625e-09 0.00158187 -1.12824e-17 1
706 13.4928 10.6966 1.5874 -4.6625e-09 0.00158187 2.37186e-17 1
288 12.699 10.8081 0.793701 -4.0726e-09 0.00204809 1.54266e-17 1
329 13.4928 11.4903 0.793701 -4.6625e-09 0.00158187 2.85531e-17 1
747 12.699 11.6018 1.5874 -4.0726e-09 0.00204809 3.45947e-17 1
748 13.4928 12.284 1.5874 -4.6625e-09 0.00158187 6.3394e-17 1
331 14.2865 11.3695 -4.31065e-16 -3.98212e-09 0.0010767 -3.5139e-18 1
332 15.0803 12.036 -1.01151e-16 -2.13048e-09 0.000545044 2.91935e-17 1
333 15.0803 11.2423 0.793701 -2.13048e-09 0.000545044 1.81828e-17 1
334 14.2865 12.1632 0.793701 -3.98212e-09 0.0010767 5.94231e-17 1
335 15.874 11.1118 2.41861e-16 4.28801e-17 -8.78228e-17 -9.82302e-18 1
336 15.874 11.9055 0.793701 3.53478e-17 -5.04283e-19 6.05082e-17 1
751 14.2865 11.3695 1.5874 -3.98212e-09 0.0010767 4.96418e-17 1
752 15.0803 12.036 1.5874 -2.13048e-09 0.000545044 8.15065e-17 1
755 15.874 11.1118 1.5874 5.12046e-17 -1.40021e-17 4.42236e-17 1
337 -2.16017e-16 12.6992 -3.07203e-16 2.16684e-18 -8.94315e-17 -2.41095e-17 1
338 0.793719 13.6234 -7.84635e-16 2.13048e-09 0.000545044 8.84612e-18 1
339 0.793719 12.8297 0.793701 2.13048e-09 0.000545044 -4.11583e-17 1
340 -5.52383e-16 13.4929 0.793701 4.05697e-18 -6.58966e-17 -3.06911e-17 1
341 1.58747 12.9569 -7.17836e-16 3.98212e-09 0.0010767 -2.94639e-17 1
344 1.58747 13.7506 0.793701 3.98212e-09 0.0010767 -1.76876e-17 1
757 -1.40177e-16 12.6992 1.5874 1.21707e-17 -6.34675e-17 -4.25038e-17 1
758 0.793719 13.6234 1.5874 2.13048e-09 0.000545044 -1.90789e-17 1
761 1.58747 12.9569 1.5874 3.98212e-09 0.0010767 -1.85274e-17 1
306 3.17499 12.3955 0.793701 4.0726e-09 0.00204809 -4.55654e-17 1
342 2.38123 13.8714 -8.70047e-16 4.6625e-09 0.00158187 -3.25138e-17 1
343 2.38123 13.0777 0.793701 4.6625e-09 0.00158187 -3.29592e-17 1
345 3.17499 13.1892 -6.72858e-16 4.0726e-09 0.00204809 -4.9034e-17 1
348 3.17499 13.9829 0.793701 4.0726e-09 0.00204809 -3.51777e-17 1
762 2.38123 13.8714 1.5874 4.6625e-09 0.00158187 -1.19044e-17 1
765 3.17499 13.1892 1.5874 4.0726e-09 0.00204809 -2.52534e-17 1
724 3.96873 12.4949 1.5874 2.55991e-09 0.00246385 -2.76369e-17 1
310 4.76245 12.5798 0.793701 2.08698e-10 0.00281892 -5.44961e-17 1
346 3.96873 14.0823 -7.6634e-16 2.55991e-09 0.00246385 -5.18013e-17 1
347 3.96873 13.2886 0.793701 2.55991e-09 0.00246385 -4.58161e-17 1
349 4.76245 13.3735 -7.70073e-16 2.08698e-10 0.00281892 -7.17376e-17 1
352 4.76245 14.1672 0.793701 2.08698e-10 0.00281892 -4.00993e-17 1
766 3.96873 14.0823 1.5874 2.55991e-09 0.00246385 -2.03019e-17 1
769 4.76245 13.3735 1.5874 2.08698e-10 0.00281892 -2.52267e-17 1
314 6.34978 12.698 0.793701 -8.06046e-10 0.00331376 -4.77513e-17 1
728 5.55613 12.648 1.5874 -2.50484e-09 0.00310456 -2.91614e-17 1
351 5.55613 13.4417 0.793701 -2.50484e-09 0.00310456 -5.28227e-17 1
773 6.34978 13.4917 1.5874 -8.06046e-10 0.00331376 -1.41865e-17 1
318 7.93701 12.7387 0.793701 3.39616e-17 0.00348425 -6.22606e-17 1
732 7.1434 12.7285 1.5874 1.27121e-08 0.00344136 -1.42081e-17 1
736 8.73061 12.7285 1.5874 -1.27121e-08 0.00344136 -2.36901e-17 1
355 7.1434 13.5222 0.793701 1.27121e-08 0.00344136 -5.55412e-17 1
359 8.73061 13.5222 0.793701 -1.27121e-08 0.00344136 -9.6426e-17 1
777 7.93701 13.5324 1.5874 2.521e-17 0.00348425 -3.02977e-17 1