ITEM: TIMESTEP
14000
ITEM: NUMBER OF ATOMS
8000
ITEM: BOX BOUNDS pp pp pp
0.0000000000000000e+00 3.1748021039364001e+01
0.0000000000000000e+00 1.5874010519682001e+01
0.0000000000000000e+00 1.5874010519682001e+01
ITEM: ATOMS id x y z vx vy vz c_rho_peratom
2 0.793705 0.878044 -2.53375e-16 1.46114e-08 0.000905523 -5.18851e-17 1
3 0.793705 0.0843438 0.793701 1.46114e-08 0.000905523 -5.66005e-17 1
4 -1.52966e-16 0.793701 0.793701 2.6008e-17 -6.00111e-17 -3.81021e-17 1
5 1.58742 0.16659 -3.48799e-16 2.76563e-08 0.00178877 -5.81599e-17 1
8 1.58742 0.96029 0.793701 2.76563e-08 0.00178877 -5.49155e-17 1
43 -1.48503e-16 1.5874 -4.17843e-17 1.96914e-17 -6.92613e-17 -2.54317e-17 1
45 0.793705 1.67174 0.793701 1.46114e-08 0.000905523 -3.42567e-17 1
47 1.58742 1.75399 -3.27352e-16 2.76563e-08 0.00178877 -4.91586e-17 1
422 0.793705 0.878044 1.5874 1.46114e-08 0.000905523 -4.2792e-17 1
425 1.58742 0.16659 1.5874 2.76563e-08 0.00178877 -5.23845e-17 1
463 -2.83994e-16 1.5874 1.5874 -1.19626e-18 -4.05787e-17 -2.16837e-17 1
467 1.58742 1.75399 1.5874 2.76563e-08 0.00178877 -3.93678e-17 1
6 2.38114 1.03842 -4.5133e-16 3.75416e-08 0.00262797 -4.38814e-17 1
7 2.38114 0.244715 0.793701 3.75416e-08 0.00262797 -3.872e-17 1
9 3.17485 0.3168 -5.3009e-16 4.33529e-08 0.00340248 -1.74497e-17 1
12 3.17485 1.1105 0.793701 4.33529e-08 0.00340248 -1.96592e-17 1
426 2.38114 1.03842 1.5874 3.75416e-08 0.00262797 -2.89337e-17 1
429 3.17485 0.3168 1.5874 4.33529e-08 0.00340248 -1.13502e-17 1
10 3.96856 1.17477 -4.70675e-16 4.46633e-08 0.00409319 -1.10323e-18 1
11 3.96856 0.381074 0.793701 4.46633e-08 0.00409319 -1.76082e-18 1
16 4.76227 1.22966 0.793701 4.07962e-08 0.00468311 5.44472e-18 1
430 3.96856 1.17477 1.5874 4.46633e-08 0.00409319 -4.2044e-18 1
433 4.76227 0.43596 1.5874 4.07962e-08 0.00468311 5.54161e-18 1
15 5.55597 0.48011 0.793701 3.19569e-08 0.00515771 1.72597e-17 1
20 6.34965 1.30614 0.793701 2.60236e-08 0.00550531 2.26168e-17 1
434 5.55597 1.27381 1.5874 3.19569e-08 0.00515771 1.25517e-17 1
437 6.34965 0.512442 1.5874 2.60236e-08 0.00550531 2.71432e-17 1
19 7.14333 0.532164 0.793701 3.57111e-08 0.00571735 3.97222e-17 1
23 8.73068 0.532164 0.793701 -3.57111e-08 0.00571735 1.91764e-17 1
24 7.93701 1.33249 0.793701 2.95423e-18 0.00578861 3.9225e-17 1
438 7.14333 1.32586 1.5874 3.57111e-08 0.00571735 1.97338e-17 1
441 7.93701 0.538792 1.5874 -1.91236e-18 0.00578861 1.44916e-17 1
442 8.73068 1.32586 1.5874 -3.57111e-08 0.00571735 -2.3701e-17 1
27 10.318 0.48011 0.793701 -3.19569e-08 0.00515771 -3.07347e-18 1
28 9.52436 1.30614 0.793701 -2.60236e-08 0.00550531 1.40017e-19 1
445 9.52436 0.512442 1.5874 -2.60236e-08 0.00550531 -2.26377e-17 1
446 10.318 1.27381 1.5874 -3.19569e-08 0.00515771 -6.20684e-17 1
30 11.9054 1.17477 -5.26125e-16 -4.46633e-08 0.00409319 -1.28007e-17 1
31 11.9054 0.381074 0.793701 -4.46633e-08 0.00409319 -1.07185e-17 1
32 11.1117 1.22966 0.793701 -4.07962e-08 0.00468311 -2.67498e-17 1
449 11.1117 0.43596 1.5874 -4.07962e-08 0.00468311 -3.42287e-17 1
450 11.9054 1.17477 1.5874 -4.46633e-08 0.00409319 -3.08094e-17 1
33 12.6992 0.3168 -5.33683e-16 -4.33529e-08 0.00340248 -2.06402e-17 1
34 13.4929 1.03842 -5.80621e-16 -3.75416e-08 0.00262797 -2.46328e-17 1
35 13.4929 0.244715 0.793701 -3.75416e-08 0.00262797 -2.33348e-17 1
36 12.6992 1.1105 0.793701 -4.33529e-08 0.00340248 -1.5019e-17 1
453 12.6992 0.3168 1.5874 -4.33529e-08 0.00340248 -1.11344e-17 1
454 13.4929 1.03842 1.5874 -3.75416e-08 0.00262797 -1.93076e-17 1
37 14.2866 0.16659 -5.43474e-16 -2.76563e-08 0.00178877 -2.74159e-17 1
38 15.0803 0.878044 -3.39572e-16 -1.46114e-08 0.000905523 -8.69961e-18 1
39 15.0803 0.0843438 0.793701 -1.46114e-08 0.000905523 -7.46628e-18 1
40 14.2866 0.96029 0.793701 -2.76563e-08 0.00178877 -2.18004e-17 1
41 15.874 -1.39707e-16 -1.65592e-16 2.24851e-17 1.39105e-17 1.11154e-17 1
42 15.874 0.793701 0.793701 2.32488e-17 2.84336e-18 9.87633e-18 1
79 14.2866 1.75399 -4.3546e-16 -2.76563e-08 0.00178877 -2.29853e-17 1
81 15.0803 1.67174 0.793701 -1.46114e-08 0.000905523 -7.43355e-18 1
83 15.874 1.5874 -1.6739e-16 7.01365e-18 8.18956e-18 4.54053e-18 1
457 14.2866 0.16659 1.5874 -2.76563e-08 0.00178877 -1.74655e-17 1
458 15.0803 0.878044 1.5874 -1.46114e-08 0.000905523 -3.08863e-18 1
461 15.874 -1.49407e-16 1.5874 3.42385e-17 2.39393e-17 -1.55429e-18 1
499 14.2866 1.75399 1.5874 -2.76563e-08 0.00178877 -2.07643e-17 1
503 15.874 1.5874 1.5874 2.56084e-17 5.80425e-18 1.55741e-17 1
44 0.793705 2.46545 -1.83331e-16 1.46114e-08 0.000905523 -2.98503e-17 1
46 -3.26806e-16 2.3811 0.793701 -2.70738e-18 -6.17588e-17 -7.0569e-18 1
50 1.58742 2.54769 0.793701 2.76563e-08 0.00178877 -3.79489e-17 1
85 -3.59542e-16 3.1748 1.5708e-17 -9.03289e-18 -7.29999e-17 -2.02606e-17 1
87 0.793705 3.25915 0.793701 1.46114e-08 0.000905523 -1.56009e-17 1
89 1.58742 3.34139 -2.62999e-16 2.76563e-08 0.00178877 -3.44715e-17 1
464 0.793705 2.46545 1.5874 1.46114e-08 0.000905523 -2.22606e-17 1
505 -3.91907e-16 3.1748 1.5874 -1.28123e-17 -7.09098e-17 -4.08136e-18 1
509 1.58742 3.34139 1.5874 2.76563e-08 0.00178877 -3.70847e-17 1
49 2.38114 1.83212 0.793701 3.75416e-08 0.00262797 -4.22293e-17 1
51 3.17485 1.9042 -4.20133e-16 4.33529e-08 0.00340248 -2.03382e-17 1
471 3.17485 1.9042 1.5874 4.33529e-08 0.00340248 -2.73927e-17 1
48 2.38114 2.62582 -3.95365e-16 3.75416e-08 0.00262797 -3.6005e-17 1
54 3.17485 2.6979 0.793701 4.33529e-08 0.00340248 -4.44982e-17 1
91 2.38114 3.41952 0.793701 3.75416e-08 0.00262797 -4.98157e-17 1
93 3.17485 3.4916 -4.3351e-16 4.33529e-08 0.00340248 -4.20475e-17 1
468 2.38114 2.62582 1.5874 3.75416e-08 0.00262797 -4.47486e-17 1
513 3.17485 3.4916 1.5874 4.33529e-08 0.00340248 -6.22796e-17 1
53 3.96856 1.96848 0.793701 4.46633e-08 0.00409319 -1.59687e-17 1
475 4.76227 2.02336 1.5874 4.07962e-08 0.00468311 5.77674e-18 1
52 3.96856 2.76218 -3.81173e-16 4.46633e-08 0.00409319 -3.88681e-17 1
58 4.76227 2.81706 0.793701 4.07962e-08 0.00468311 -2.77879e-17 1
95 3.96856 3.55588 0.793701 4.46633e-08 0.00409319 -6.14995e-17 1
472 3.96856 2.76218 1.5874 4.46633e-08 0.00409319 -3.00076e-17 1
57 5.55597 2.06751 0.793701 3.19569e-08 0.00515771 -1.4243e-18 1
479 6.34965 2.09984 1.5874 2.60236e-08 0.00550531 9.80459e-18 1
62 6.34965 2.89354 0.793701 2.60236e-08 0.00550531 -1.06531e-17 1
476 5.55597 2.86121 1.5874 3.19569e-08 0.00515771 4.6473e-18 1
61 7.14333 2.11957 0.793701 3.57111e-08 0.00571735 2.23715e-17 1
65 8.73068 2.11957 0.793701 -3.57111e-08 0.00571735 3.49034e-17 1
483 7.93701 2.12619 1.5874 1.04054e-17 0.00578861 2.92784e-18 1
66 7.93701 2.91989 0.793701 5.80395e-17 0.00578861 4.5268e-17 1
480 7.14333 2.91327 1.5874 3.57111e-08 0.00571735 8.38309e-18 1
484 8.73068 2.91327 1.5874 -3.57111e-08 0.00571735 -2.07588e-18 1
69 10.318 2.06751 0.793701 -3.19569e-08 0.00515771 -3.1945e-17 1
487 9.52436 2.09984 1.5874 -2.60236e-08 0.00550531 -5.27658e-17 1
70 9.52436 2.89354 0.793701 -2.60236e-08 0.00550531 7.8906e-18 1
488 10.318 2.86121 1.5874 -3.19569e-08 0.00515771 -6.97059e-17 1
73 11.9054 1.96848 0.793701 -4.46633e-08 0.00409319 -2.1195e-17 1
491 11.1117 2.02336 1.5874 -4.07962e-08 0.00468311 -7.22986e-17 1
72 11.9054 2.76218 -5.80179e-16 -4.46633e-08 0.00409319 -1.10742e-17 1
74 11.1117 2.81706 0.793701 -4.07962e-08 0.00468311 -3.50768e-17 1
115 11.9054 3.55588 0.793701 -4.46633e-08 0.00409319 -1.53247e-17 1
492 11.9054 2.76218 1.5874 -4.46633e-08 0.00409319 -3.2154e-17 1
77 13.4929 1.83212 0.793701 -3.75416e-08 0.00262797 -1.84011e-17 1
75 12.6992 1.9042 -5.65974e-16 -4.33529e-08 0.00340248 -1.50077e-17 1
495 12.6992 1.9042 1.5874 -4.33529e-08 0.00340248 -1.64286e-17 1
76 13.4929 2.62582 -4.77346e-16 -3.75416e-08 0.00262797 -1.96674e-17 1
78 12.6992 2.6979 0.793701 -4.33529e-08 0.00340248 -1.25632e-17 1
117 12.6992 3.4916 -5.15549e-16 -4.33529e-08 0.00340248 -1.33889e-17 1
119 13.4929 3.41952 0.793701 -3.75416e-08 0.00262797 -1.78709e-17 1
496 13.4929 2.62582 1.5874 -3.75416e-08 0.00262797 -2.1086e-17 1
537 12.6992 3.4916 1.5874 -4.33529e-08 0.00340248 -1.6452e-17 1
80 15.0803 2.46545 -2.79456e-16 -1.46114e-08 0.000905523 -1.15604e-17 1
82 14.2866 2.54769 0.793701 -2.76563e-08 0.00178877 -2.24884e-17 1
84 15.874 2.3811 0.793701 1.16387e-17 2.06847e-17 1.25681e-17 1
121 14.2866 3.34139 -3.52216e-16 -2.76563e-08 0.00178877 -1.86274e-17 1
123 15.0803 3.25915 0.793701 -1.46114e-08 0.000905523 -2.40562e-18 1
125 15.874 3.1748 -1.15797e-16 -1.56598e-17 1.10045e-17 1.61359e-17 1
500 15.0803 2.46545 1.5874 -1.46114e-08 0.000905523 -5.70556e-18 1
541 14.2866 3.34139 1.5874 -2.76563e-08 0.00178877 -2.42115e-17 1
545 15.874 3.1748 1.5874 1.64083e-17 2.76019e-17 8.64625e-18 1
86 0.793705 4.05285 -1.38915e-16 1.46114e-08 0.000905523 -3.09378e-17 1
88 -3.85582e-16 3.9685 0.793701 -1.72843e-17 -7.71185e-17 -9.55869e-18 1
92 1.58742 4.13509 0.793701 2.76563e-08 0.00178877 -3.86464e-17 1
127 -2.42862e-16 4.7622 1.58886e-16 -7.18454e-18 -7.27611e-17 -2.56905e-17 1
129 0.793705 4.84655 0.793701 1.46114e-08 0.000905523 -3.36855e-17 1
131 1.58742 4.92879 -1.79776e-16 2.76563e-08 0.00178877 -4.53857e-17 1
506 0.793705 4.05285 1.5874 1.46114e-08 0.000905523 -1.93113e-17 1
547 -4.9559e-16 4.7622 1.5874 -2.94324e-17 -8.32761e-17 -7.47417e-18 1
551 1.58742 4.92879 1.5874 2.76563e-08 0.00178877 -4.68599e-17 1
90 2.38114 4.21322 -2.81756e-16 3.75416e-08 0.00262797 -4.36684e-17 1
96 3.17485 4.2853 0.793701 4.33529e-08 0.00340248 -6.05714e-17 1
133 2.38114 5.00692 0.793701 3.75416e-08 0.00262797 -4.8579e-17 1
135 3.17485 5.079 -2.69877e-16 4.33529e-08 0.00340248 -4.17103e-17 1
510 2.38114 4.21322 1.5874 3.75416e-08 0.00262797 -5.72469e-17 1
555 3.17485 5.079 1.5874 4.33529e-08 0.00340248 -7.26868e-17 1
517 4.76227 3.61076 1.5874 4.07962e-08 0.00468311 -3.12383e-17 1
94 3.96856 4.34958 -3.55411e-16 4.46633e-08 0.00409319 -5.4171e-17 1
100 4.76227 4.40446 0.793701 4.07962e-08 0.00468311 -5.88869e-17 1
137 3.96856 5.14328 0.793701 4.46633e-08 0.00409319 -6.79151e-17 1
514 3.96856 4.34958 1.5874 4.46633e-08 0.00409319 -7.49028e-17 1
559 4.76227 5.19816 1.5874 4.07962e-08 0.00468311 -4.89905e-17 1
99 5.55597 3.65491 0.793701 3.19569e-08 0.00515771 -2.67181e-17 1
521 6.34965 3.68724 1.5874 2.60236e-08 0.00550531 -9.65344e-20 1
104 6.34965 4.48094 0.793701 2.60236e-08 0.00550531 -1.38559e-17 1
141 5.55597 5.24231 0.793701 3.19569e-08 0.00515771 -3.79254e-17 1
518 5.55597 4.44861 1.5874 3.19569e-08 0.00515771 -1.7797e-17 1
563 6.34965 5.27465 1.5874 2.60236e-08 0.00550531 -2.66474e-18 1
103 7.14333 3.70697 0.793701 3.57111e-08 0.00571735 8.35077e-18 1
107 8.73068 3.70697 0.793701 -3.57111e-08 0.00571735 5.82227e-17 1
525 7.93701 3.71359 1.5874 1.16783e-16 0.00578861 1.9263e-17 1
108 7.93701 4.5073 0.793701 9.69122e-17 0.00578861 3.99885e-17 1
145 7.14333 5.29437 0.793701 3.57111e-08 0.00571735 3.74836e-18 1
149 8.73068 5.29437 0.793701 -3.57111e-08 0.00571735 3.50474e-17 1
522 7.14333 4.50067 1.5874 3.57111e-08 0.00571735 8.04763e-18 1
526 8.73068 4.50067 1.5874 -3.57111e-08 0.00571735 1.78537e-17 1
567 7.93701 5.301 1.5874 8.72729e-17 0.00578861 1.54766e-17 1
111 10.318 3.65491 0.793701 -3.19569e-08 0.00515771 -2.22951e-17 1
529 9.52436 3.68724 1.5874 -2.60236e-08 0.00550531 -1.97174e-17 1
112 9.52436 4.48094 0.793701 -2.60236e-08 0.00550531 1.60024e-17 1
153 10.318 5.24231 0.793701 -3.19569e-08 0.00515771 -4.2914e-18 1
530 10.318 4.44861 1.5874 -3.19569e-08 0.00515771 -2.46995e-19 1
571 9.52436 5.27465 1.5874 -2.60236e-08 0.00550531 3.38822e-17 1
533 11.1117 3.61076 1.5874 -4.07962e-08 0.00468311 -3.82395e-17 1
114 11.9054 4.34958 -4.53423e-16 -4.46633e-08 0.00409319 -1.00176e-17 1
116 11.1117 4.40446 0.793701 -4.07962e-08 0.00468311 -1.53573e-17 1
157 11.9054 5.14328 0.793701 -4.46633e-08 0.00409319 -1.17102e-17 1
534 11.9054 4.34958 1.5874 -4.46633e-08 0.00409319 -1.18671e-17 1
575 11.1117 5.19816 1.5874 -4.07962e-08 0.00468311 2.68446e-17 1
118 13.4929 4.21322 -4.64998e-16 -3.75416e-08 0.00262797 -1.36153e-17 1
120 12.6992 4.2853 0.793701 -4.33529e-08 0.00340248 -1.31184e-17 1
159 12.6992 5.079 -5.46922e-16 -4.33529e-08 0.00340248 -1.00309e-17 1
161 13.4929 5.00692 0.793701 -3.75416e-08 0.00262797 -1.56783e-17 1
538 13.4929 4.21322 1.5874 -3.75416e-08 0.00262797 -2.58325e-17 1
579 12.6992 5.079 1.5874 -4.33529e-08 0.00340248 -2.0679e-17 1
122 15.0803 4.05285 -2.27539e-16 -1.46114e-08 0.000905523 4.99917e-18 1
124 14.2866 4.13509 0.793701 -2.76563e-08 0.00178877 -1.70084e-17 1
126 15.874 3.9685 0.793701 1.27614e-18 1.37905e-17 2.89738e-17 1
163 14.2866 4.92879 -3.65567e-16 -2.76563e-08 0.00178877 4.36745e-18 1
165 15.0803 4.84655 0.793701 -1.46114e-08 0.000905523 8.72082e-18 1
167 15.874 4.7622 -3.22244e-17 -2.05522e-17 6.47666e-18 3.60939e-17 1
542 15.0803 4.05285 1.5874 -1.46114e-08 0.000905523 -8.49745e-18 1
583 14.2866 4.92879 1.5874 -2.76563e-08 0.00178877 -2.56079e-17 1
587 15.874 4.7622 1.5874 1.27061e-17 5.93754e-18 7.70772e-18 1
128 0.793705 5.64025 -1.71786e-16 1.46114e-08 0.000905523 -4.12579e-17 1
130 -3.87375e-16 5.5559 0.793701 -2.56618e-17 -8.10974e-17 -2.04453e-17 1
134 1.58742 5.72249 0.793701 2.76563e-08 0.00178877 -5.02443e-17 1
169 -3.2072e-16 6.3496 2.83699e-16 -2.32098e-17 -9.09942e-17 -2.52244e-17 1
171 0.793705 6.43395 0.793701 1.46114e-08 0.000905523 -3.7279e-17 1
173 1.58742 6.51619 -2.05674e-16 2.76563e-08 0.00178877 -4.60306e-17 1
548 0.793705 5.64025 1.5874 1.46114e-08 0.000905523 -3.0507e-17 1
589 -5.58184e-16 6.3496 1.5874 -4.61089e-17 -1.03137e-16 -1.98703e-17 1
593 1.58742 6.51619 1.5874 2.76563e-08 0.00178877 -4.8343e-17 1
132 2.38114 5.80062 -2.07256e-16 3.75416e-08 0.00262797 -4.01119e-17 1
138 3.17485 5.8727 0.793701 4.33529e-08 0.00340248 -5.49499e-17 1
175 2.38114 6.59432 0.793701 3.75416e-08 0.00262797 -5.68654e-17 1
177 3.17485 6.6664 -2.88786e-16 4.33529e-08 0.00340248 -3.5593e-17 1
552 2.38114 5.80062 1.5874 3.75416e-08 0.00262797 -6.25216e-17 1
597 3.17485 6.6664 1.5874 4.33529e-08 0.00340248 -8.1929e-17 1
136 3.96856 5.93698 -3.51032e-16 4.46633e-08 0.00409319 -6.00497e-17 1
142 4.76227 5.99186 0.793701 4.07962e-08 0.00468311 -7.86284e-17 1
179 3.96856 6.73068 0.793701 4.46633e-08 0.00409319 -7.58811e-17 1
181 4.76227 6.78556 -2.6595e-16 4.07962e-08 0.00468311 -4.31699e-17 1
556 3.96856 5.93698 1.5874 4.46633e-08 0.00409319 -7.56986e-17 1
601 4.76227 6.78556 1.5874 4.07962e-08 0.00468311 -7.28375e-17 1
146 6.34965 6.06835 0.793701 2.60236e-08 0.00550531 -1.96699e-17 1
183 5.55597 6.82971 0.793701 3.19569e-08 0.00515771 -5.17492e-17 1
560 5.55597 6.03601 1.5874 3.19569e-08 0.00515771 -2.34063e-17 1
605 6.34965 6.86205 1.5874 2.60236e-08 0.00550531 -7.14925e-18 1
150 7.93701 6.0947 0.793701 3.6865e-17 0.00578861 2.60364e-17 1
187 7.14333 6.88177 0.793701 3.57111e-08 0.00571735 7.32066e-18 1
191 8.73068 6.88177 0.793701 -3.57111e-08 0.00571735 5.11316e-17 1
564 7.14333 6.08807 1.5874 3.57111e-08 0.00571735 3.95033e-18 1
568 8.73068 6.08807 1.5874 -3.57111e-08 0.00571735 3.96867e-17 1
609 7.93701 6.8884 1.5874 5.39278e-17 0.00578861 2.7252e-17 1
154 9.52436 6.06835 0.793701 -2.60236e-08 0.00550531 1.65263e-17 1
195 10.318 6.82971 0.793701 -3.19569e-08 0.00515771 -6.14963e-18 1
572 10.318 6.03601 1.5874 -3.19569e-08 0.00515771 5.32907e-17 1
613 9.52436 6.86205 1.5874 -2.60236e-08 0.00550531 4.48444e-17 1
156 11.9054 5.93698 -3.43535e-16 -4.46633e-08 0.00409319 -3.31241e-17 1
158 11.1117 5.99186 0.793701 -4.07962e-08 0.00468311 -1.12e-17 1
199 11.9054 6.73068 0.793701 -4.46633e-08 0.00409319 -1.78535e-17 1
576 11.9054 5.93698 1.5874 -4.46633e-08 0.00409319 4.32736e-18 1
617 11.1117 6.78556 1.5874 -4.07962e-08 0.00468311 2.2726e-17 1
160 13.4929 5.80062 -4.79833e-16 -3.75416e-08 0.00262797 7.2881e-19 1
162 12.6992 5.8727 0.793701 -4.33529e-08 0.00340248 -1.39212e-17 1
201 12.6992 6.6664 -3.4898e-16 -4.33529e-08 0.00340248 -1.32959e-17 1
203 13.4929 6.59432 0.793701 -3.75416e-08 0.00262797 -2.36802e-18 1
580 13.4929 5.80062 1.5874 -3.75416e-08 0.00262797 -2.25454e-17 1
621 12.6992 6.6664 1.5874 -4.33529e-08 0.00340248 -1.88276e-17 1
164 15.0803 5.64025 -2.36817e-16 -1.46114e-08 0.000905523 2.69135e-17 1
166 14.2866 5.72249 0.793701 -2.76563e-08 0.00178877 6.09393e-19 1
168 15.874 5.5559 0.793701 9.85682e-18 -6.57257e-19 2.87862e-17 1
205 14.2866 6.51619 -3.74988e-16 -2.76563e-08 0.00178877 1.5049e-17 1
207 15.0803 6.43395 0.793701 -1.46114e-08 0.000905523 1.72012e-17 1
209 15.874 6.3496 -1.17796e-16 2.03326e-17 7.39477e-18 3.58124e-17 1
584 15.0803 5.64025 1.5874 -1.46114e-08 0.000905523 -6.17514e-18 1
625 14.2866 6.51619 1.5874 -2.76563e-08 0.00178877 -1.26734e-17 1
629 15.874 6.3496 1.5874 1.8501e-17 -7.40736e-18 1.4302e-18 1
170 0.793705 7.22765 -1.66253e-16 1.46114e-08 0.000905523 -4.00317e-17 1
172 -5.03526e-16 7.1433 0.793701 -4.28574e-17 -1.15281e-16 -2.91804e-17 1
176 1.58742 7.30989 0.793701 2.76563e-08 0.00178877 -5.03639e-17 1
211 -4.16147e-16 7.93701 2.70027e-16 -3.59022e-17 -1.12544e-16 -3.16616e-17 1
212 0.793705 8.81505 -1.60083e-16 1.46114e-08 0.000905523 -3.78407e-17 1
213 0.793705 8.02135 0.793701 1.46114e-08 0.000905523 -4.42208e-17 1
214 -3.74276e-16 8.73071 0.793701 -2.32563e-17 -9.90179e-17 -4.86798e-17 1
215 1.58742 8.1036 -2.26531e-16 2.76563e-08 0.00178877 -3.94057e-17 1
590 0.793705 7.22765 1.5874 1.46114e-08 0.000905523 -3.39129e-17 1
631 -5.13576e-16 7.93701 1.5874 -3.90072e-17 -1.28473e-16 -3.47306e-17 1
632 0.793705 8.81505 1.5874 1.46114e-08 0.000905523 -4.68478e-17 1
635 1.58742 8.1036 1.5874 2.76563e-08 0.00178877 -4.15042e-17 1
174 2.38114 7.38802 -2.38617e-16 3.75416e-08 0.00262797 -3.85063e-17 1
180 3.17485 7.46011 0.793701 4.33529e-08 0.00340248 -6.70058e-17 1
217 2.38114 8.18172 0.793701 3.75416e-08 0.00262797 -5.97957e-17 1
219 3.17485 8.25381 -2.27143e-16 4.33529e-08 0.00340248 -3.0586e-17 1
594 2.38114 7.38802 1.5874 3.75416e-08 0.00262797 -6.02989e-17 1
639 3.17485 8.25381 1.5874 4.33529e-08 0.00340248 -8.17194e-17 1
178 3.96856 7.52438 -2.25787e-16 4.46633e-08 0.00409319 -1.65389e-17 1
184 4.76227 7.57926 0.793701 4.07962e-08 0.00468311 -7.02756e-17 1
221 3.96856 8.31808 0.793701 4.46633e-08 0.00409319 -7.72457e-17 1
598 3.96856 7.52438 1.5874 4.46633e-08 0.00409319 -1.00664e-16 1
643 4.76227 8.37296 1.5874 4.07962e-08 0.00468311 -8.83711e-17 1
188 6.34965 7.65575 0.793701 2.60236e-08 0.00550531 -1.49723e-17 1
225 5.55597 8.41712 0.793701 3.19569e-08 0.00515771 -5.62386e-17 1
602 5.55597 7.62341 1.5874 3.19569e-08 0.00515771 -3.9911e-17 1
647 6.34965 8.44945 1.5874 2.60236e-08 0.00550531 -1.85529e-18 1
192 7.93701 7.6821 0.793701 3.46315e-17 0.00578861 4.165e-17 1
229 7.14333 8.46917 0.793701 3.57111e-08 0.00571735 6.36579e-18 1
233 8.73068 8.46917 0.793701 -3.57111e-08 0.00571735 3.09006e-17 1
606 7.14333 7.67547 1.5874 3.57111e-08 0.00571735 1.79182e-17 1
610 8.73068 7.67547 1.5874 -3.57111e-08 0.00571735 3.72578e-17 1
651 7.93701 8.4758 1.5874 3.70483e-17 0.00578861 3.32601e-17 1
196 9.52436 7.65575 0.793701 -2.60236e-08 0.00550531 2.73072e-17 1
237 10.318 8.41712 0.793701 -3.19569e-08 0.00515771 -1.47673e-17 1
614 10.318 7.62341 1.5874 -3.19569e-08 0.00515771 2.18994e-17 1
655 9.52436 8.44945 1.5874 -2.60236e-08 0.00550531 2.16251e-17 1
200 11.1117 7.57926 0.793701 -4.07962e-08 0.00468311 -2.78573e-17 1
241 11.9054 8.31808 0.793701 -4.46633e-08 0.00409319 -2.24892e-17 1
618 11.9054 7.52438 1.5874 -4.46633e-08 0.00409319 -1.50146e-17 1
659 11.1117 8.37296 1.5874 -4.07962e-08 0.00468311 -6.02435e-19 1
202 13.4929 7.38802 -3.6449e-16 -3.75416e-08 0.00262797 -7.39713e-18 1
204 12.6992 7.46011 0.793701 -4.33529e-08 0.00340248 -1.43177e-17 1
243 12.6992 8.25381 -2.9955e-16 -4.33529e-08 0.00340248 -1.65269e-17 1
245 13.4929 8.18172 0.793701 -3.75416e-08 0.00262797 -1.67562e-17 1
622 13.4929 7.38802 1.5874 -3.75416e-08 0.00262797 -1.86455e-17 1
663 12.6992 8.25381 1.5874 -4.33529e-08 0.00340248 -1.9513e-17 1
206 15.0803 7.22765 -3.02644e-16 -1.46114e-08 0.000905523 1.98188e-17 1
208 14.2866 7.30989 0.793701 -2.76563e-08 0.00178877 1.16941e-19 1
210 15.874 7.1433 0.793701 2.51927e-17 2.65152e-18 8.0326e-18 1
247 14.2866 8.1036 -4.40693e-16 -2.76563e-08 0.00178877 -1.12781e-17 1
248 15.0803 8.81505 -3.80389e-16 -1.46114e-08 0.000905523 -1.21807e-17 1
249 15.0803 8.02135 0.793701 -1.46114e-08 0.000905523 -1.06774e-17 1
251 15.874 7.93701 -2.0482e-16 2.89833e-17 9.80407e-18 7.37631e-18 1
252 15.874 8.73071 0.793701 2.61411e-17 -6.01586e-18 -1.28904e-17 1
626 15.0803 7.22765 1.5874 -1.46114e-08 0.000905523 -9.25197e-18 1
667 14.2866 8.1036 1.5874 -2.76563e-08 0.00178877 -1.88986e-17 1
668 15.0803 8.81505 1.5874 -1.46114e-08 0.000905523 -1.61918e-17 1
671 15.874 7.93701 1.5874 2.52782e-17 -1.57729e-17 -1.35347e-17 1
218 1.58742 8.8973 0.793701 2.76563e-08 0.00178877 -6.227e-17 1
253 -2.92718e-16 9.52441 1.28555e-16 -7.4059e-18 -5.85296e-17 -4.15488e-17 1
254 0.793705 10.4025 -1.65323e-16 1.46114e-08 0.000905523 -5.48412e-17 1
255 0.793705 9.60875 0.793701 1.46114e-08 0.000905523 -6.90206e-17 1
256 -2.39258e-16 10.3181 0.793701 1.60816e-17 -5.46722e-17 -7.26678e-17 1
257 1.58742 9.691 -2.29135e-16 2.76563e-08 0.00178877 -5.05337e-17 1
260 1.58742 10.4847 0.793701 2.76563e-08 0.00178877 -8.54312e-17 1
673 -2.22221e-16 9.52441 1.5874 -3.44814e-18 -8.3743e-17 -5.60447e-17 1
674 0.793705 10.4025 1.5874 1.46114e-08 0.000905523 -8.74379e-17 1
677 1.58742 9.691 1.5874 2.76563e-08 0.00178877 -7.69202e-17 1
216 2.38114 8.97542 -1.94037e-16 3.75416e-08 0.00262797 -3.65941e-17 1
222 3.17485 9.04751 0.793701 4.33529e-08 0.00340248 -6.32138e-17 1
636 2.38114 8.97542 1.5874 3.75416e-08 0.00262797 -6.22128e-17 1
258 2.38114 10.5628 -3.5098e-16 3.75416e-08 0.00262797 -4.16265e-17 1
259 2.38114 9.76912 0.793701 3.75416e-08 0.00262797 -6.85149e-17 1
261 3.17485 9.84121 -3.59432e-16 4.33529e-08 0.00340248 -2.57087e-17 1
678 2.38114 10.5628 1.5874 3.75416e-08 0.00262797 -7.96447e-17 1
681 3.17485 9.84121 1.5874 4.33529e-08 0.00340248 -7.4374e-17 1
220 3.96856 9.11178 -1.83783e-16 4.46633e-08 0.00409319 -2.07619e-17 1
226 4.76227 9.16667 0.793701 4.07962e-08 0.00468311 -9.01743e-17 1
640 3.96856 9.11178 1.5874 4.46633e-08 0.00409319 -9.49723e-17 1
263 3.96856 9.90548 0.793701 4.46633e-08 0.00409319 -6.1509e-17 1
685 4.76227 9.96037 1.5874 4.07962e-08 0.00468311 -6.98693e-17 1
230 6.34965 9.24315 0.793701 2.60236e-08 0.00550531 -4.46964e-17 1
644 5.55597 9.21082 1.5874 3.19569e-08 0.00515771 -5.6504e-17 1
267 5.55597 10.0045 0.793701 3.19569e-08 0.00515771 -8.2092e-17 1
689 6.34965 10.0368 1.5874 2.60236e-08 0.00550531 -3.06193e-17 1
234 7.93701 9.2695 0.793701 2.02735e-17 0.00578861 1.04033e-17 1
648 7.14333 9.26287 1.5874 3.57111e-08 0.00571735 1.91841e-17 1
652 8.73068 9.26287 1.5874 -3.57111e-08 0.00571735 3.09152e-17 1
271 7.14333 10.0566 0.793701 3.57111e-08 0.00571735 -2.22344e-17 1
275 8.73068 10.0566 0.793701 -3.57111e-08 0.00571735 1.63643e-17 1
693 7.93701 10.0632 1.5874 4.44892e-17 0.00578861 1.90334e-17 1
238 9.52436 9.24315 0.793701 -2.60236e-08 0.00550531 3.38006e-18 1
656 10.318 9.21082 1.5874 -3.19569e-08 0.00515771 4.50832e-18 1
279 10.318 10.0045 0.793701 -3.19569e-08 0.00515771 -1.00502e-18 1
697 9.52436 10.0368 1.5874 -2.60236e-08 0.00550531 1.55176e-17 1
240 11.9054 9.11178 -3.51357e-16 -4.46633e-08 0.00409319 -1.42646e-17 1
242 11.1117 9.16667 0.793701 -4.07962e-08 0.00468311 -1.6059e-17 1
660 11.9054 9.11178 1.5874 -4.46633e-08 0.00409319 -1.03608e-17 1
283 11.9054 9.90548 0.793701 -4.46633e-08 0.00409319 -9.65535e-18 1
701 11.1117 9.96037 1.5874 -4.07962e-08 0.00468311 -4.23644e-18 1
244 13.4929 8.97542 -4.01305e-16 -3.75416e-08 0.00262797 -2.40258e-17 1
246 12.6992 9.04751 0.793701 -4.33529e-08 0.00340248 -1.7088e-17 1
664 13.4929 8.97542 1.5874 -3.75416e-08 0.00262797 -1.82923e-17 1
285 12.6992 9.84121 -3.51031e-16 -4.33529e-08 0.00340248 -1.77105e-17 1
286 13.4929 10.5628 -3.48773e-16 -3.75416e-08 0.00262797 -2.34941e-17 1
287 13.4929 9.76912 0.793701 -3.75416e-08 0.00262797 -1.97576e-17 1
705 12.6992 9.84121 1.5874 -4.33529e-08 0.00340248 -9.44546e-18 1
706 13.4929 10.5628 1.5874 -3.75416e-08 0.00262797 -9.65698e-18 1
250 14.2866 8.8973 0.793701 -2.76563e-08 0.00178877 -2.16052e-17 1
289 14.2866 9.691 -3.80347e-16 -2.76563e-08 0.00178877 -2.26425e-17 1
290 15.0803 10.4025 -3.13471e-16 -1.46114e-08 0.000905523 -1.09879e-17 1
291 15.0803 9.60875 0.793701 -1.46114e-08 0.000905523 -1.15572e-17 1
292 14.2866 10.4847 0.793701 -2.76563e-08 0.00178877 -1.68739e-17 1
293 15.874 9.52441 -2.55128e-16 3.00381e-17 -8.5926e-18 -8.44269e-18 1
294 15.874 10.3181 0.793701 3.15109e-17 -8.14977e-18 -3.76088e-18 1
709 14.2866 9.691 1.5874 -2.76563e-08 0.00178877 -1.6314e-17 1
710 15.0803 10.4025 1.5874 -1.46114e-08 0.000905523 -1.40698e-17 1
713 15.874 9.52441 1.5874 2.61373e-17 -8.25918e-19 -1.38194e-17 1
295 -2.26223e-16 11.1118 -6.47014e-17 2.32539e-17 -5.03165e-17 -5.80647e-17 1
296 0.793705 11.9899 -1.78471e-16 1.46114e-08 0.000905523 -5.52614e-17 1
297 0.793705 11.1962 0.793701 1.46114e-08 0.000905523 -8.44206e-17 1
298 -1.74867e-16 11.9055 0.793701 3.83946e-17 -6.37443e-17 -8.67728e-17 1
299 1.58742 11.2784 -2.4481e-16 2.76563e-08 0.00178877 -5.16601e-17 1
302 1.58742 12.0721 0.793701 2.76563e-08 0.00178877 -7.98716e-17 1
715 -2.48509e-16 11.1118 1.5874 2.88583e-17 -6.03851e-17 -8.60708e-17 1
716 0.793705 11.9899 1.5874 1.46114e-08 0.000905523 -9.67743e-17 1
719 1.58742 11.2784 1.5874 2.76563e-08 0.00178877 -1.00588e-16 1
264 3.17485 10.6349 0.793701 4.33529e-08 0.00340248 -4.33966e-17 1
300 2.38114 12.1502 -3.02665e-16 3.75416e-08 0.00262797 -3.41218e-17 1
301 2.38114 11.3565 0.793701 3.75416e-08 0.00262797 -6.01025e-17 1
303 3.17485 11.4286 -3.70989e-16 4.33529e-08 0.00340248 -1.98835e-17 1
306 3.17485 12.2223 0.793701 4.33529e-08 0.00340248 -3.15578e-17 1
720 2.38114 12.1502 1.5874 3.75416e-08 0.00262797 -7.56799e-17 1
723 3.17485 11.4286 1.5874 4.33529e-08 0.00340248 -5.29217e-17 1
262 3.96856 10.6992 -4.17554e-16 4.46633e-08 0.00409319 -3.24349e-17 1
268 4.76227 10.7541 0.793701 4.07962e-08 0.00468311 -5.70393e-17 1
682 3.96856 10.6992 1.5874 4.46633e-08 0.00409319 -4.99312e-17 1
305 3.96856 11.4929 0.793701 4.46633e-08 0.00409319 -2.32378e-17 1
310 4.76227 12.3415 0.793701 4.07962e-08 0.00468311 -2.91059e-17 1
724 3.96856 12.2866 1.5874 4.46633e-08 0.00409319 -3.26377e-17 1
727 4.76227 11.5478 1.5874 4.07962e-08 0.00468311 -2.00231e-17 1
272 6.34965 10.8305 0.793701 2.60236e-08 0.00550531 -4.90882e-17 1
686 5.55597 10.7982 1.5874 3.19569e-08 0.00515771 -3.40957e-17 1
309 5.55597 11.5919 0.793701 3.19569e-08 0.00515771 -3.30341e-17 1
314 6.34965 12.418 0.793701 2.60236e-08 0.00550531 -2.16139e-17 1
728 5.55597 12.3856 1.5874 3.19569e-08 0.00515771 -4.80037e-18 1
731 6.34965 11.6242 1.5874 2.60236e-08 0.00550531 -2.17201e-17 1
276 7.93701 10.8569 0.793701 3.20309e-17 0.00578861 6.19069e-18 1
690 7.14333 10.8503 1.5874 3.57111e-08 0.00571735 -2.42571e-17 1
694 8.73068 10.8503 1.5874 -3.57111e-08 0.00571735 1.21615e-17 1
313 7.14333 11.644 0.793701 3.57111e-08 0.00571735 -1.48027e-17 1
317 8.73068 11.644 0.793701 -3.57111e-08 0.00571735 2.31496e-17 1
735 7.93701 11.6506 1.5874 6.92793e-17 0.00578861 -1.01212e-17 1
280 9.52436 10.8305 0.793701 -2.60236e-08 0.00550531 1.33084e-17 1
698 10.318 10.7982 1.5874 -3.19569e-08 0.00515771 7.33686e-18 1
321 10.318 11.5919 0.793701 -3.19569e-08 0.00515771 5.37964e-18 1
322 9.52436 12.418 0.793701 -2.60236e-08 0.00550531 1.95142e-17 1
739 9.52436 11.6242 1.5874 -2.60236e-08 0.00550531 1.11677e-17 1
740 10.318 12.3856 1.5874 -3.19569e-08 0.00515771 3.04133e-17 1
282 11.9054 10.6992 -3.94301e-16 -4.46633e-08 0.00409319 -1.02805e-17 1
284 11.1117 10.7541 0.793701 -4.07962e-08 0.00468311 -2.79138e-18 1
702 11.9054 10.6992 1.5874 -4.46633e-08 0.00409319 -1.96053e-18 1
324 11.9054 12.2866 -4.36014e-16 -4.46633e-08 0.00409319 -2.47441e-17 1
325 11.9054 11.4929 0.793701 -4.46633e-08 0.00409319 -4.64228e-18 1
326 11.1117 12.3415 0.793701 -4.07962e-08 0.00468311 1.69097e-18 1
743 11.1117 11.5478 1.5874 -4.07962e-08 0.00468311 2.21839e-17 1
744 11.9054 12.2866 1.5874 -4.46633e-08 0.00409319 1.83195e-17 1
288 12.6992 10.6349 0.793701 -4.33529e-08 0.00340248 -1.12626e-17 1
327 12.6992 11.4286 -3.68037e-16 -4.33529e-08 0.00340248 -1.56635e-17 1
328 13.4929 12.1502 -3.35182e-16 -3.75416e-08 0.00262797 -2.08914e-17 1
329 13.4929 11.3565 0.793701 -3.75416e-08 0.00262797 -1.45951e-17 1
330 12.6992 12.2223 0.793701 -4.33529e-08 0.00340248 -7.87216e-18 1
747 12.6992 11.4286 1.5874 -4.33529e-08 0.00340248 -2.57902e-18 1
748 13.4929 12.1502 1.5874 -3.75416e-08 0.00262797 -6.91264e-18 1
331 14.2866 11.2784 -3.21888e-16 -2.76563e-08 0.00178877 -2.23582e-17 1
332 15.0803 11.9899 -2.5413e-16 -1.46114e-08 0.000905523 -1.2742e-17 1
333 15.0803 11.1962 0.793701 -1.46114e-08 0.000905523 -8.91377e-18 1
334 14.2866 12.0721 0.793701 -2.76563e-08 0.00178877 -1.57573e-17 1
335 15.874 11.1118 -1.84847e-16 3.79408e-17 -4.77822e-19 -7.11208e-18 1
336 15.874 11.9055 0.793701 3.85626e-17 1.15677e-17 -3.98665e-18 1
751 14.2866 11.2784 1.5874 -2.76563e-08 0.00178877 -1.16856e-17 1
752 15.0803 11.9899 1.5874 -1.46114e-08 0.000905523 -1.25847e-17 1
755 15.874 11.1118 1.5874 3.48633e-17 -3.01506e-18 -1.3291e-17 1
337 -1.14886e-16 12.6992 -4.64623e-17 3.76e-17 -7.14512e-17 -6.5889e-17 1
338 0.793705 13.5773 -1.81925e-16 1.46114e-08 0.000905523 -6.14185e-17 1
339 0.793705 12.7836 0.793701 1.46114e-08 0.000905523 -9.0536e-17 1
340 -1.42547e-16 13.4929 0.793701 4.46543e-17 -8.11218e-17 -8.57e-17 1
341 1.58742 12.8658 -2.58743e-16 2.76563e-08 0.00178877 -4.91211e-17 1
344 1.58742 13.6595 0.793701 2.76563e-08 0.00178877 -7.43092e-17 1
757 -1.74317e-16 12.6992 1.5874 3.3856e-17 -7.37009e-17 -8.37792e-17 1
758 0.793705 13.5773 1.5874 1.46114e-08 0.000905523 -8.88204e-17 1
761 1.58742 12.8658 1.5874 2.76563e-08 0.00178877 -9.30374e-17 1
342 2.38114 13.7376 -3.63036e-16 3.75416e-08 0.00262797 -2.98464e-17 1
343 2.38114 12.9439 0.793701 3.75416e-08 0.00262797 -5.66849e-17 1
345 3.17485 13.016 -3.95385e-16 4.33529e-08 0.00340248 -1.31869e-17 1
348 3.17485 13.8097 0.793701 4.33529e-08 0.00340248 -2.59725e-17 1
762 2.38114 13.7376 1.5874 3.75416e-08 0.00262797 -6.41279e-17 1
765 3.17485 13.016 1.5874 4.33529e-08 0.00340248 -4.75643e-17 1