ITEM: TIMESTEP
30000
ITEM: NUMBER OF ATOMS
8000
ITEM: BOX BOUNDS pp pp pp
0.0000000000000000e+00 3.1748021039364001e+01
0.0000000000000000e+00 1.5874010519682001e+01
0.0000000000000000e+00 1.5874010519682001e+01
ITEM: ATOMS id x y z vx vy vz c_rho_peratom
2 0.793723 0.931896 -9.07864e-16 -1.84174e-10 0.000484794 -6.63433e-17 1
3 0.793723 0.138195 0.793701 -1.84174e-10 0.000484794 -5.0409e-17 1
4 5.12234e-16 0.793701 0.793701 5.66029e-17 -6.114e-17 -4.39968e-17 1
5 1.58748 0.272932 -1.03794e-15 -3.93597e-10 0.00095769 -6.49595e-17 1
8 1.58748 1.06663 0.793701 -3.93597e-10 0.00095769 -4.10529e-17 1
43 4.51216e-16 1.5874 -3.8492e-16 5.85324e-17 -5.2573e-17 -5.1589e-17 1
45 0.793723 1.7256 0.793701 -1.84174e-10 0.000484794 -3.92456e-17 1
422 0.793723 0.931896 1.5874 -1.84174e-10 0.000484794 -2.32446e-17 1
425 1.58748 0.272932 1.5874 -3.93597e-10 0.00095769 -2.42452e-17 1
463 3.32226e-16 1.5874 1.5874 5.48669e-17 -4.88925e-17 -2.60943e-17 1
6 2.38125 1.1946 -1.20082e-15 -1.35962e-09 0.00140702 -6.15642e-17 1
7 2.38125 0.4009 0.793701 -1.35962e-09 0.00140702 -4.34114e-17 1
9 3.17502 0.518956 -9.70556e-16 -3.03304e-09 0.00182171 -6.79799e-17 1
12 3.17502 1.31266 0.793701 -3.03304e-09 0.00182171 -5.15366e-17 1
426 2.38125 1.1946 1.5874 -1.35962e-09 0.00140702 -1.70044e-17 1
429 3.17502 0.518956 1.5874 -3.03304e-09 0.00182171 -2.02229e-17 1
10 3.96877 1.41791 -9.86209e-16 -4.95386e-09 0.00219152 -7.87015e-17 1
11 3.96877 0.624206 0.793701 -4.95386e-09 0.00219152 -5.3844e-17 1
16 4.76249 1.50777 0.793701 -6.94225e-09 0.00250734 -4.92263e-17 1
430 3.96877 1.41791 1.5874 -4.95386e-09 0.00219152 -1.85481e-17 1
433 4.76249 0.714072 1.5874 -6.94225e-09 0.00250734 -1.82955e-17 1
15 5.55617 0.786353 0.793701 -8.51281e-09 0.0027614 -3.37865e-17 1
20 6.34981 1.63298 0.793701 -5.43296e-09 0.00294745 -2.27015e-17 1
434 5.55617 1.58005 1.5874 -8.51281e-09 0.0027614 -1.06875e-17 1
437 6.34981 0.839283 1.5874 -5.43296e-09 0.00294745 -9.35255e-18 1
19 7.14342 0.871568 0.793701 8.79642e-09 0.00306095 -1.38042e-17 1
23 8.7306 0.871568 0.793701 -8.79642e-09 0.00306095 -4.47699e-17 1
24 7.93701 1.67612 0.793701 -2.86423e-17 0.00309909 -3.13562e-17 1
438 7.14342 1.66527 1.5874 8.79642e-09 0.00306095 -4.36095e-18 1
441 7.93701 0.882418 1.5874 -4.16593e-17 0.00309909 -1.3324e-17 1
442 8.7306 1.66527 1.5874 -8.79642e-09 0.00306095 -2.73882e-17 1
27 10.3178 0.786353 0.793701 8.51281e-09 0.0027614 -6.041e-17 1
28 9.5242 1.63298 0.793701 5.43296e-09 0.00294745 -6.60002e-17 1
445 9.5242 0.839283 1.5874 5.43296e-09 0.00294745 -2.80798e-17 1
446 10.3178 1.58005 1.5874 8.51281e-09 0.0027614 -2.84919e-17 1
30 11.9052 1.41791 -4.94329e-16 4.95386e-09 0.00219152 -1.11503e-16 1
31 11.9052 0.624206 0.793701 4.95386e-09 0.00219152 -5.89154e-17 1
32 11.1115 1.50777 0.793701 6.94225e-09 0.00250734 -6.65867e-17 1
449 11.1115 0.714072 1.5874 6.94225e-09 0.00250734 -1.91642e-17 1
450 11.9052 1.41791 1.5874 4.95386e-09 0.00219152 -2.29815e-17 1
33 12.699 0.518956 -6.13554e-17 3.03304e-09 0.00182171 -7.0693e-17 1
34 13.4928 1.1946 -1.81742e-16 1.35962e-09 0.00140702 -5.14957e-17 1
35 13.4928 0.4009 0.793701 1.35962e-09 0.00140702 -3.43816e-17 1
36 12.699 1.31266 0.793701 3.03304e-09 0.00182171 -5.74011e-17 1
453 12.699 0.518956 1.5874 3.03304e-09 0.00182171 -2.7173e-17 1
454 13.4928 1.1946 1.5874 1.35962e-09 0.00140702 -2.62437e-17 1
37 14.2865 0.272932 -1.06698e-16 3.93597e-10 0.00095769 -2.90875e-17 1
38 15.0803 0.931896 7.55917e-17 1.84174e-10 0.000484794 -2.51497e-17 1
39 15.0803 0.138195 0.793701 1.84174e-10 0.000484794 -1.31284e-17 1
40 14.2865 1.06663 0.793701 3.93597e-10 0.00095769 -2.55355e-17 1
41 15.874 -2.38032e-15 5.91342e-16 -2.85613e-17 -1.09985e-16 -7.03296e-18 1
42 15.874 0.793701 0.793701 -2.24276e-17 -1.17603e-16 -7.05175e-18 1
81 15.0803 1.7256 0.793701 1.84174e-10 0.000484794 -2.62084e-17 1
83 15.874 1.5874 3.51428e-16 -3.88563e-17 -9.17333e-17 -1.8087e-17 1
457 14.2865 0.272932 1.5874 3.93597e-10 0.00095769 -1.39443e-17 1
458 15.0803 0.931896 1.5874 1.84174e-10 0.000484794 -1.13647e-17 1
461 15.874 -2.27452e-15 1.5874 -1.25912e-17 -1.12612e-16 -6.07458e-18 1
503 15.874 1.5874 1.5874 -1.64508e-17 -1.04011e-16 -1.97659e-18 1
47 1.58748 1.86033 -1.12904e-15 -3.93597e-10 0.00095769 -5.83472e-17 1
467 1.58748 1.86033 1.5874 -3.93597e-10 0.00095769 -1.61848e-17 1
44 0.793723 2.5193 -7.93814e-16 -1.84174e-10 0.000484794 -5.40658e-17 1
46 2.60286e-16 2.3811 0.793701 5.12238e-17 -5.13113e-17 -4.12936e-17 1
50 1.58748 2.65403 0.793701 -3.93597e-10 0.00095769 -2.92806e-17 1
85 3.03031e-16 3.1748 -2.24205e-16 4.87372e-17 -7.33001e-17 -4.32603e-17 1
87 0.793723 3.313 0.793701 -1.84174e-10 0.000484794 -2.34447e-17 1
89 1.58748 3.44773 -1.03998e-15 -3.93597e-10 0.00095769 -5.05453e-17 1
464 0.793723 2.5193 1.5874 -1.84174e-10 0.000484794 -1.23077e-17 1
505 5.58054e-17 3.1748 1.5874 6.73579e-17 -4.57004e-17 -3.10033e-19 1
509 1.58748 3.44773 1.5874 -3.93597e-10 0.00095769 -2.83805e-18 1
49 2.38125 1.9883 0.793701 -1.35962e-09 0.00140702 -4.08702e-17 1
51 3.17502 2.10636 -1.08641e-15 -3.03304e-09 0.00182171 -7.33705e-17 1
471 3.17502 2.10636 1.5874 -3.03304e-09 0.00182171 -1.74278e-17 1
48 2.38125 2.782 -1.12828e-15 -1.35962e-09 0.00140702 -5.91701e-17 1
54 3.17502 2.90006 0.793701 -3.03304e-09 0.00182171 -5.5802e-17 1
91 2.38125 3.5757 0.793701 -1.35962e-09 0.00140702 -3.87496e-17 1
468 2.38125 2.782 1.5874 -1.35962e-09 0.00140702 -1.57057e-17 1
53 3.96877 2.21161 0.793701 -4.95386e-09 0.00219152 -5.91691e-17 1
475 4.76249 2.30147 1.5874 -6.94225e-09 0.00250734 -1.05804e-17 1
52 3.96877 3.00531 -1.0485e-15 -4.95386e-09 0.00219152 -7.82643e-17 1
58 4.76249 3.09517 0.793701 -6.94225e-09 0.00250734 -4.83735e-17 1
472 3.96877 3.00531 1.5874 -4.95386e-09 0.00219152 -1.0957e-17 1
57 5.55617 2.37375 0.793701 -8.51281e-09 0.0027614 -3.42288e-17 1
479 6.34981 2.42668 1.5874 -5.43296e-09 0.00294745 -4.98692e-19 1
62 6.34981 3.22038 0.793701 -5.43296e-09 0.00294745 -4.36584e-17 1
476 5.55617 3.16745 1.5874 -8.51281e-09 0.0027614 2.4912e-19 1
61 7.14342 2.45897 0.793701 8.79642e-09 0.00306095 -2.85093e-17 1
65 8.7306 2.45897 0.793701 -8.79642e-09 0.00306095 -7.12743e-17 1
483 7.93701 2.46982 1.5874 -7.46318e-17 0.00309909 -1.14021e-17 1
66 7.93701 3.26352 0.793701 -6.21758e-17 0.00309909 -4.69215e-17 1
480 7.14342 3.25267 1.5874 8.79642e-09 0.00306095 6.41575e-18 1
484 8.7306 3.25267 1.5874 -8.79642e-09 0.00306095 -1.49795e-17 1
69 10.3178 2.37375 0.793701 8.51281e-09 0.0027614 -8.24965e-17 1
487 9.5242 2.42668 1.5874 5.43296e-09 0.00294745 -4.23869e-17 1
70 9.5242 3.22038 0.793701 5.43296e-09 0.00294745 -8.70937e-17 1
488 10.3178 3.16745 1.5874 8.51281e-09 0.0027614 -4.15881e-17 1
73 11.9052 2.21161 0.793701 4.95386e-09 0.00219152 -6.63038e-17 1
491 11.1115 2.30147 1.5874 6.94225e-09 0.00250734 -2.47122e-17 1
72 11.9052 3.00531 -5.19911e-16 4.95386e-09 0.00219152 -1.06147e-16 1
74 11.1115 3.09517 0.793701 6.94225e-09 0.00250734 -7.27807e-17 1
492 11.9052 3.00531 1.5874 4.95386e-09 0.00219152 -2.76543e-17 1
77 13.4928 1.9883 0.793701 1.35962e-09 0.00140702 -4.65966e-17 1
75 12.699 2.10636 -3.06271e-16 3.03304e-09 0.00182171 -8.73162e-17 1
495 12.699 2.10636 1.5874 3.03304e-09 0.00182171 -3.54146e-17 1
76 13.4928 2.782 -2.49828e-16 1.35962e-09 0.00140702 -6.38812e-17 1
78 12.699 2.90006 0.793701 3.03304e-09 0.00182171 -6.39472e-17 1
119 13.4928 3.5757 0.793701 1.35962e-09 0.00140702 -5.51302e-17 1
496 13.4928 2.782 1.5874 1.35962e-09 0.00140702 -3.38846e-17 1
79 14.2865 1.86033 -1.77973e-16 3.93597e-10 0.00095769 -4.4046e-17 1
499 14.2865 1.86033 1.5874 3.93597e-10 0.00095769 -1.9009e-17 1
80 15.0803 2.5193 5.02667e-17 1.84174e-10 0.000484794 -3.42075e-17 1
82 14.2865 2.65403 0.793701 3.93597e-10 0.00095769 -4.04544e-17 1
84 15.874 2.3811 0.793701 -3.17145e-17 -7.24247e-17 -1.81489e-17 1
121 14.2865 3.44773 -2.44083e-16 3.93597e-10 0.00095769 -4.77736e-17 1
123 15.0803 3.313 0.793701 1.84174e-10 0.000484794 -3.03212e-17 1
125 15.874 3.1748 2.40828e-16 -4.15751e-17 -7.86872e-17 -1.82334e-17 1
500 15.0803 2.5193 1.5874 1.84174e-10 0.000484794 -1.93107e-17 1
541 14.2865 3.44773 1.5874 3.93597e-10 0.00095769 -2.90935e-17 1
545 15.874 3.1748 1.5874 -2.23149e-17 -7.89693e-17 -1.52309e-17 1
86 0.793723 4.1067 -8.74381e-16 -1.84174e-10 0.000484794 -4.38114e-17 1
88 7.78695e-17 3.9685 0.793701 5.92582e-17 -7.60359e-17 -2.64806e-17 1
92 1.58748 4.24143 0.793701 -3.93597e-10 0.00095769 -2.7842e-17 1
127 1.97606e-16 4.7622 -2.31957e-16 5.55405e-17 -8.78063e-17 -3.37422e-17 1
129 0.793723 4.9004 0.793701 -1.84174e-10 0.000484794 -3.36984e-17 1
131 1.58748 5.03514 -1.02824e-15 -3.93597e-10 0.00095769 -5.91945e-17 1
506 0.793723 4.1067 1.5874 -1.84174e-10 0.000484794 3.84621e-18 1
547 7.34196e-18 4.7622 1.5874 5.48464e-17 -1.02835e-16 -5.38615e-18 1
551 1.58748 5.03514 1.5874 -3.93597e-10 0.00095769 -3.31616e-17 1
93 3.17502 3.69376 -1.01213e-15 -3.03304e-09 0.00182171 -6.97643e-17 1
513 3.17502 3.69376 1.5874 -3.03304e-09 0.00182171 -1.64751e-17 1
90 2.38125 4.3694 -1.0752e-15 -1.35962e-09 0.00140702 -5.83626e-17 1
96 3.17502 4.48746 0.793701 -3.03304e-09 0.00182171 -5.2365e-17 1
133 2.38125 5.1631 0.793701 -1.35962e-09 0.00140702 -4.9583e-17 1
135 3.17502 5.28116 -1.01901e-15 -3.03304e-09 0.00182171 -7.57338e-17 1
510 2.38125 4.3694 1.5874 -1.35962e-09 0.00140702 -2.44107e-17 1
555 3.17502 5.28116 1.5874 -3.03304e-09 0.00182171 -1.81983e-17 1
95 3.96877 3.79901 0.793701 -4.95386e-09 0.00219152 -5.68371e-17 1
517 4.76249 3.88887 1.5874 -6.94225e-09 0.00250734 -1.5891e-18 1
94 3.96877 4.59271 -9.44894e-16 -4.95386e-09 0.00219152 -8.27236e-17 1
100 4.76249 4.68257 0.793701 -6.94225e-09 0.00250734 -4.69255e-17 1
514 3.96877 4.59271 1.5874 -4.95386e-09 0.00219152 -8.92487e-18 1
99 5.55617 3.96116 0.793701 -8.51281e-09 0.0027614 -4.63617e-17 1
521 6.34981 4.01409 1.5874 -5.43296e-09 0.00294745 6.75874e-18 1
104 6.34981 4.80779 0.793701 -5.43296e-09 0.00294745 -3.88697e-17 1
518 5.55617 4.75486 1.5874 -8.51281e-09 0.0027614 3.96235e-18 1
103 7.14342 4.04637 0.793701 8.79642e-09 0.00306095 -4.78699e-17 1
107 8.7306 4.04637 0.793701 -8.79642e-09 0.00306095 -4.52919e-17 1
525 7.93701 4.05722 1.5874 -3.39682e-17 0.00309909 1.76112e-17 1
108 7.93701 4.85092 0.793701 1.48074e-18 0.00309909 -1.97763e-17 1
522 7.14342 4.84007 1.5874 8.79642e-09 0.00306095 1.62205e-17 1
526 8.7306 4.84007 1.5874 -8.79642e-09 0.00306095 2.30052e-18 1
111 10.3178 3.96116 0.793701 8.51281e-09 0.0027614 -7.83172e-17 1
529 9.5242 4.01409 1.5874 5.43296e-09 0.00294745 -2.55593e-17 1
112 9.5242 4.80779 0.793701 5.43296e-09 0.00294745 -4.33876e-17 1
530 10.3178 4.75486 1.5874 8.51281e-09 0.0027614 -3.52233e-17 1
115 11.9052 3.79901 0.793701 4.95386e-09 0.00219152 -6.49825e-17 1
533 11.1115 3.88887 1.5874 6.94225e-09 0.00250734 -3.52199e-17 1
116 11.1115 4.68257 0.793701 6.94225e-09 0.00250734 -6.60444e-17 1
534 11.9052 4.59271 1.5874 4.95386e-09 0.00219152 -2.97097e-17 1
537 12.699 3.69376 1.5874 3.03304e-09 0.00182171 -3.85923e-17 1
118 13.4928 4.3694 -2.94365e-16 1.35962e-09 0.00140702 -6.27586e-17 1
120 12.699 4.48746 0.793701 3.03304e-09 0.00182171 -6.30911e-17 1
161 13.4928 5.1631 0.793701 1.35962e-09 0.00140702 -4.47948e-17 1
538 13.4928 4.3694 1.5874 1.35962e-09 0.00140702 -3.39907e-17 1
579 12.699 5.28116 1.5874 3.03304e-09 0.00182171 -3.16105e-17 1
122 15.0803 4.1067 -2.21327e-16 1.84174e-10 0.000484794 -2.99142e-17 1
124 14.2865 4.24143 0.793701 3.93597e-10 0.00095769 -3.70269e-17 1
126 15.874 3.9685 0.793701 -2.80812e-17 -8.8258e-17 -1.70956e-17 1
163 14.2865 5.03514 -3.41697e-16 3.93597e-10 0.00095769 -3.61142e-17 1
165 15.0803 4.9004 0.793701 1.84174e-10 0.000484794 -1.99144e-17 1
167 15.874 4.7622 8.50305e-17 -2.72804e-17 -8.51646e-17 -1.69257e-17 1
542 15.0803 4.1067 1.5874 1.84174e-10 0.000484794 -2.12626e-17 1
583 14.2865 5.03514 1.5874 3.93597e-10 0.00095769 -1.52173e-17 1
587 15.874 4.7622 1.5874 -3.29231e-17 -8.09368e-17 -1.9737e-17 1
128 0.793723 5.6941 -8.70147e-16 -1.84174e-10 0.000484794 -5.21435e-17 1
130 5.70001e-17 5.5559 0.793701 5.06072e-17 -9.97952e-17 -3.6877e-17 1
134 1.58748 5.82884 0.793701 -3.93597e-10 0.00095769 -5.37103e-17 1
169 2.90934e-16 6.3496 -9.22528e-17 6.16177e-17 -1.23091e-16 -3.57294e-17 1
171 0.793723 6.4878 0.793701 -1.84174e-10 0.000484794 -4.6348e-17 1
173 1.58748 6.62254 -8.71671e-16 -3.93597e-10 0.00095769 -7.91184e-17 1
548 0.793723 5.6941 1.5874 -1.84174e-10 0.000484794 -2.75125e-17 1
589 3.94042e-16 6.3496 1.5874 4.25825e-17 -1.12035e-16 -9.58279e-18 1
593 1.58748 6.62254 1.5874 -3.93597e-10 0.00095769 -3.26348e-17 1
132 2.38125 5.9568 -1.09841e-15 -1.35962e-09 0.00140702 -7.97726e-17 1
138 3.17502 6.07486 0.793701 -3.03304e-09 0.00182171 -4.91724e-17 1
175 2.38125 6.7505 0.793701 -1.35962e-09 0.00140702 -5.05009e-17 1
177 3.17502 6.86856 -1.14799e-15 -3.03304e-09 0.00182171 -8.67578e-17 1
552 2.38125 5.9568 1.5874 -1.35962e-09 0.00140702 -2.8998e-17 1
597 3.17502 6.86856 1.5874 -3.03304e-09 0.00182171 -4.18306e-18 1
137 3.96877 5.38641 0.793701 -4.95386e-09 0.00219152 -5.39829e-17 1
559 4.76249 5.47627 1.5874 -6.94225e-09 0.00250734 -4.91116e-18 1
136 3.96877 6.18011 -1.07672e-15 -4.95386e-09 0.00219152 -8.5463e-17 1
142 4.76249 6.26998 0.793701 -6.94225e-09 0.00250734 -4.88952e-17 1
179 3.96877 6.97381 0.793701 -4.95386e-09 0.00219152 -4.80087e-17 1
181 4.76249 7.06368 -8.61752e-16 -6.94225e-09 0.00250734 -7.11414e-17 1
556 3.96877 6.18011 1.5874 -4.95386e-09 0.00219152 -6.64674e-18 1
601 4.76249 7.06368 1.5874 -6.94225e-09 0.00250734 -6.63111e-20 1
141 5.55617 5.54856 0.793701 -8.51281e-09 0.0027614 -2.98985e-17 1
563 6.34981 5.60149 1.5874 -5.43296e-09 0.00294745 7.28057e-18 1
146 6.34981 6.39519 0.793701 -5.43296e-09 0.00294745 -1.46289e-17 1
183 5.55617 7.13596 0.793701 -8.51281e-09 0.0027614 -4.1889e-17 1
560 5.55617 6.34226 1.5874 -8.51281e-09 0.0027614 -2.88281e-18 1
145 7.14342 5.63377 0.793701 8.79642e-09 0.00306095 -9.17201e-18 1
149 8.7306 5.63377 0.793701 -8.79642e-09 0.00306095 -1.03413e-17 1
567 7.93701 5.64462 1.5874 1.00064e-17 0.00309909 6.53814e-18 1
150 7.93701 6.43832 0.793701 3.8846e-18 0.00309909 -2.34896e-18 1
564 7.14342 6.42747 1.5874 8.79642e-09 0.00306095 5.23227e-18 1
568 8.7306 6.42747 1.5874 -8.79642e-09 0.00306095 -4.29811e-18 1
153 10.3178 5.54856 0.793701 8.51281e-09 0.0027614 -4.64394e-17 1
571 9.5242 5.60149 1.5874 5.43296e-09 0.00294745 -1.08163e-17 1
154 9.5242 6.39519 0.793701 5.43296e-09 0.00294745 -2.56356e-17 1
195 10.3178 7.13596 0.793701 8.51281e-09 0.0027614 -3.6554e-17 1
572 10.3178 6.34226 1.5874 8.51281e-09 0.0027614 -1.16146e-17 1
157 11.9052 5.38641 0.793701 4.95386e-09 0.00219152 -4.66871e-17 1
575 11.1115 5.47627 1.5874 6.94225e-09 0.00250734 -2.07633e-17 1
156 11.9052 6.18011 -5.23072e-16 4.95386e-09 0.00219152 -4.29444e-17 1
158 11.1115 6.26998 0.793701 6.94225e-09 0.00250734 -3.04263e-17 1
199 11.9052 6.97381 0.793701 4.95386e-09 0.00219152 -2.14541e-17 1
576 11.9052 6.18011 1.5874 4.95386e-09 0.00219152 -1.73038e-17 1
617 11.1115 7.06368 1.5874 6.94225e-09 0.00250734 -1.47469e-17 1
160 13.4928 5.9568 -4.69116e-16 1.35962e-09 0.00140702 -2.96142e-17 1
162 12.699 6.07486 0.793701 3.03304e-09 0.00182171 -3.27479e-17 1
201 12.699 6.86856 -5.28024e-16 3.03304e-09 0.00182171 -2.00196e-17 1
203 13.4928 6.7505 0.793701 1.35962e-09 0.00140702 -1.43368e-17 1
580 13.4928 5.9568 1.5874 1.35962e-09 0.00140702 -1.71283e-17 1
621 12.699 6.86856 1.5874 3.03304e-09 0.00182171 -1.37676e-17 1
164 15.0803 5.6941 -2.39626e-16 1.84174e-10 0.000484794 -1.48915e-17 1
166 14.2865 5.82884 0.793701 3.93597e-10 0.00095769 -2.04005e-17 1
168 15.874 5.5559 0.793701 -2.84096e-17 -7.72793e-17 -1.46065e-17 1
205 14.2865 6.62254 -4.48771e-16 3.93597e-10 0.00095769 -1.03026e-17 1
207 15.0803 6.4878 0.793701 1.84174e-10 0.000484794 -1.03411e-17 1
209 15.874 6.3496 3.05918e-16 -1.84315e-17 -8.11118e-17 -8.35129e-18 1
584 15.0803 5.6941 1.5874 1.84174e-10 0.000484794 -9.08166e-18 1
625 14.2865 6.62254 1.5874 3.93597e-10 0.00095769 -5.24236e-18 1
629 15.874 6.3496 1.5874 -2.27374e-17 -7.55912e-17 -1.17752e-17 1
170 0.793723 7.2815 -5.80836e-16 -1.84174e-10 0.000484794 -5.33274e-17 1
172 4.35768e-16 7.1433 0.793701 4.85753e-17 -1.43829e-16 -2.94226e-17 1
176 1.58748 7.41624 0.793701 -3.93597e-10 0.00095769 -4.72213e-17 1
211 6.05533e-16 7.93701 -2.00004e-16 6.17645e-17 -1.43715e-16 -2.98502e-17 1
213 0.793723 8.0752 0.793701 -1.84174e-10 0.000484794 -3.3555e-17 1
214 9.08414e-16 8.73071 0.793701 5.42463e-17 -1.4124e-16 -2.97193e-17 1
215 1.58748 8.20994 -6.6634e-16 -3.93597e-10 0.00095769 -6.27637e-17 1
590 0.793723 7.2815 1.5874 -1.84174e-10 0.000484794 -1.36483e-17 1
631 6.11236e-16 7.93701 1.5874 4.38542e-17 -1.48466e-16 -3.16467e-18 1
635 1.58748 8.20994 1.5874 -3.93597e-10 0.00095769 -1.83686e-17 1
174 2.38125 7.5442 -9.64366e-16 -1.35962e-09 0.00140702 -8.48789e-17 1
180 3.17502 7.66226 0.793701 -3.03304e-09 0.00182171 -4.39504e-17 1
217 2.38125 8.33791 0.793701 -1.35962e-09 0.00140702 -3.9398e-17 1
219 3.17502 8.45596 -8.10075e-16 -3.03304e-09 0.00182171 -6.96876e-17 1
594 2.38125 7.5442 1.5874 -1.35962e-09 0.00140702 -1.42482e-17 1
639 3.17502 8.45596 1.5874 -3.03304e-09 0.00182171 3.07552e-18 1
178 3.96877 7.76751 -9.39044e-16 -4.95386e-09 0.00219152 -7.51743e-17 1
184 4.76249 7.85738 0.793701 -6.94225e-09 0.00250734 -4.71339e-17 1
221 3.96877 8.56121 0.793701 -4.95386e-09 0.00219152 -3.21649e-17 1
598 3.96877 7.76751 1.5874 -4.95386e-09 0.00219152 6.47814e-18 1
643 4.76249 8.65108 1.5874 -6.94225e-09 0.00250734 1.77859e-17 1
605 6.34981 7.18889 1.5874 -5.43296e-09 0.00294745 6.50755e-18 1
188 6.34981 7.98259 0.793701 -5.43296e-09 0.00294745 -3.60214e-17 1
225 5.55617 8.72336 0.793701 -8.51281e-09 0.0027614 -4.73212e-17 1
602 5.55617 7.92966 1.5874 -8.51281e-09 0.0027614 9.00981e-18 1
647 6.34981 8.77629 1.5874 -5.43296e-09 0.00294745 3.54271e-17 1
187 7.14342 7.22117 0.793701 8.79642e-09 0.00306095 -4.01258e-18 1
191 8.7306 7.22117 0.793701 -8.79642e-09 0.00306095 -2.22611e-17 1
609 7.93701 7.23202 1.5874 -3.25469e-17 0.00309909 -1.34816e-18 1
192 7.93701 8.02572 0.793701 -4.4354e-17 0.00309909 -8.19047e-18 1
229 7.14342 8.80857 0.793701 8.79642e-09 0.00306095 -2.47954e-17 1
233 8.7306 8.80857 0.793701 -8.79642e-09 0.00306095 -1.82024e-17 1
606 7.14342 8.01487 1.5874 8.79642e-09 0.00306095 1.07884e-17 1
610 8.7306 8.01487 1.5874 -8.79642e-09 0.00306095 -9.3512e-18 1
651 7.93701 8.81942 1.5874 -3.49467e-17 0.00309909 3.52878e-18 1
613 9.5242 7.18889 1.5874 5.43296e-09 0.00294745 -1.03822e-17 1
196 9.5242 7.98259 0.793701 5.43296e-09 0.00294745 -3.98104e-17 1
237 10.3178 8.72336 0.793701 8.51281e-09 0.0027614 -2.42375e-17 1
614 10.3178 7.92966 1.5874 8.51281e-09 0.0027614 -1.52579e-17 1
655 9.5242 8.77629 1.5874 5.43296e-09 0.00294745 -1.50334e-17 1
200 11.1115 7.85738 0.793701 6.94225e-09 0.00250734 -2.80342e-17 1
241 11.9052 8.56121 0.793701 4.95386e-09 0.00219152 -9.92628e-18 1
618 11.9052 7.76751 1.5874 4.95386e-09 0.00219152 -1.12762e-17 1
659 11.1115 8.65108 1.5874 6.94225e-09 0.00250734 -1.08288e-17 1
202 13.4928 7.5442 -5.42771e-16 1.35962e-09 0.00140702 -2.88301e-18 1
204 12.699 7.66226 0.793701 3.03304e-09 0.00182171 -7.15888e-18 1
243 12.699 8.45596 -5.32606e-16 3.03304e-09 0.00182171 -3.49912e-18 1
245 13.4928 8.33791 0.793701 1.35962e-09 0.00140702 -1.16275e-18 1
622 13.4928 7.5442 1.5874 1.35962e-09 0.00140702 -6.80337e-18 1
663 12.699 8.45596 1.5874 3.03304e-09 0.00182171 -4.66518e-18 1
206 15.0803 7.2815 -1.80705e-16 1.84174e-10 0.000484794 -2.36137e-18 1
208 14.2865 7.41624 0.793701 3.93597e-10 0.00095769 -5.54484e-18 1
210 15.874 7.1433 0.793701 -1.12349e-17 -8.83093e-17 -7.97085e-18 1
247 14.2865 8.20994 -5.92197e-16 3.93597e-10 0.00095769 1.87976e-18 1
249 15.0803 8.0752 0.793701 1.84174e-10 0.000484794 -3.45311e-18 1
251 15.874 7.93701 4.88021e-16 -6.61169e-18 -1.06071e-16 -7.47288e-19 1
252 15.874 8.73071 0.793701 -1.30376e-17 -1.21981e-16 -1.66315e-18 1
626 15.0803 7.2815 1.5874 1.84174e-10 0.000484794 -8.2651e-18 1
667 14.2865 8.20994 1.5874 3.93597e-10 0.00095769 -6.21194e-18 1
671 15.874 7.93701 1.5874 -9.02034e-18 -1.00147e-16 -7.72246e-18 1
212 0.793723 8.8689 -6.48244e-16 -1.84174e-10 0.000484794 -4.48536e-17 1
632 0.793723 8.8689 1.5874 -1.84174e-10 0.000484794 -1.3383e-17 1
218 1.58748 9.00364 0.793701 -3.93597e-10 0.00095769 -3.38828e-17 1
253 1.19468e-15 9.52441 -3.64181e-16 6.40215e-17 -1.5069e-16 -4.54197e-17 1
254 0.793723 10.4563 -5.10471e-16 -1.84174e-10 0.000484794 -5.83361e-17 1
255 0.793723 9.6626 0.793701 -1.84174e-10 0.000484794 -3.36182e-17 1
256 1.47833e-15 10.3181 0.793701 7.06526e-17 -1.79918e-16 -3.95194e-17 1
257 1.58748 9.79734 -5.19086e-16 -3.93597e-10 0.00095769 -5.45768e-17 1
260 1.58748 10.591 0.793701 -3.93597e-10 0.00095769 -2.97379e-17 1
673 1.44398e-15 9.52441 1.5874 6.25686e-17 -1.60187e-16 -1.42768e-17 1
674 0.793723 10.4563 1.5874 -1.84174e-10 0.000484794 -7.04174e-18 1
677 1.58748 9.79734 1.5874 -3.93597e-10 0.00095769 -8.29692e-18 1
216 2.38125 9.13161 -5.55409e-16 -1.35962e-09 0.00140702 -6.12875e-17 1
222 3.17502 9.24966 0.793701 -3.03304e-09 0.00182171 -3.05588e-17 1
636 2.38125 9.13161 1.5874 -1.35962e-09 0.00140702 -4.49027e-18 1
259 2.38125 9.92531 0.793701 -1.35962e-09 0.00140702 -2.82067e-17 1
261 3.17502 10.0434 -6.76853e-16 -3.03304e-09 0.00182171 -5.12007e-17 1
681 3.17502 10.0434 1.5874 -3.03304e-09 0.00182171 4.50747e-19 1
220 3.96877 9.35491 -5.9553e-16 -4.95386e-09 0.00219152 -5.96192e-17 1
226 4.76249 9.44478 0.793701 -6.94225e-09 0.00250734 -2.02751e-17 1
640 3.96877 9.35491 1.5874 -4.95386e-09 0.00219152 1.69236e-17 1
263 3.96877 10.1486 0.793701 -4.95386e-09 0.00219152 -1.93999e-17 1
685 4.76249 10.2385 1.5874 -6.94225e-09 0.00250734 3.40971e-17 1
230 6.34981 9.56999 0.793701 -5.43296e-09 0.00294745 -2.72914e-17 1
644 5.55617 9.51706 1.5874 -8.51281e-09 0.0027614 4.64201e-17 1
267 5.55617 10.3108 0.793701 -8.51281e-09 0.0027614 -2.79676e-18 1
689 6.34981 10.3637 1.5874 -5.43296e-09 0.00294745 6.97753e-17 1
234 7.93701 9.61312 0.793701 1.83277e-17 0.00309909 -1.63595e-17 1
648 7.14342 9.60227 1.5874 8.79642e-09 0.00306095 4.0239e-17 1
652 8.7306 9.60227 1.5874 -8.79642e-09 0.00306095 -2.20212e-17 1
271 7.14342 10.396 0.793701 8.79642e-09 0.00306095 -1.01444e-17 1
275 8.7306 10.396 0.793701 -8.79642e-09 0.00306095 -2.20623e-17 1
693 7.93701 10.4068 1.5874 3.77551e-17 0.00309909 -2.53997e-18 1
238 9.5242 9.56999 0.793701 5.43296e-09 0.00294745 -2.05987e-17 1
656 10.3178 9.51706 1.5874 8.51281e-09 0.0027614 -1.29348e-17 1
279 10.3178 10.3108 0.793701 8.51281e-09 0.0027614 -1.43042e-17 1
697 9.5242 10.3637 1.5874 5.43296e-09 0.00294745 -4.20582e-17 1
240 11.9052 9.35491 -5.00961e-16 4.95386e-09 0.00219152 -1.14469e-17 1
242 11.1115 9.44478 0.793701 6.94225e-09 0.00250734 -1.23727e-17 1
660 11.9052 9.35491 1.5874 4.95386e-09 0.00219152 -5.58295e-18 1
283 11.9052 10.1486 0.793701 4.95386e-09 0.00219152 -1.17099e-17 1
701 11.1115 10.2385 1.5874 6.94225e-09 0.00250734 -1.36609e-17 1
244 13.4928 9.13161 -8.6318e-16 1.35962e-09 0.00140702 -1.94119e-18 1
246 12.699 9.24966 0.793701 3.03304e-09 0.00182171 -3.35446e-18 1
664 13.4928 9.13161 1.5874 1.35962e-09 0.00140702 -5.98237e-18 1
285 12.699 10.0434 -8.46474e-16 3.03304e-09 0.00182171 -1.77216e-17 1
287 13.4928 9.92531 0.793701 1.35962e-09 0.00140702 -1.24092e-17 1
705 12.699 10.0434 1.5874 3.03304e-09 0.00182171 -9.87912e-18 1
248 15.0803 8.8689 -6.28969e-17 1.84174e-10 0.000484794 2.33921e-18 1
668 15.0803 8.8689 1.5874 1.84174e-10 0.000484794 -5.92208e-18 1
250 14.2865 9.00364 0.793701 3.93597e-10 0.00095769 -3.11719e-18 1
289 14.2865 9.79734 -5.11767e-16 3.93597e-10 0.00095769 -7.47792e-18 1
290 15.0803 10.4563 6.99697e-17 1.84174e-10 0.000484794 -5.29083e-18 1
291 15.0803 9.6626 0.793701 1.84174e-10 0.000484794 -2.99508e-18 1
292 14.2865 10.591 0.793701 3.93597e-10 0.00095769 -1.92669e-17 1
293 15.874 9.52441 5.73512e-16 -2.31109e-17 -1.35984e-16 2.49888e-18 1
294 15.874 10.3181 0.793701 -2.96505e-17 -1.37342e-16 1.54432e-18 1
709 14.2865 9.79734 1.5874 3.93597e-10 0.00095769 -7.66948e-18 1
710 15.0803 10.4563 1.5874 1.84174e-10 0.000484794 -4.75538e-18 1
713 15.874 9.52441 1.5874 -1.60533e-17 -1.32539e-16 -2.53105e-19 1
295 1.24671e-15 11.1118 -4.42118e-16 7.57555e-17 -1.70264e-16 -6.54929e-17 1
296 0.793723 12.0437 -6.03806e-16 -1.84174e-10 0.000484794 -7.23911e-17 1
297 0.793723 11.25 0.793701 -1.84174e-10 0.000484794 -3.84059e-17 1
298 1.29491e-15 11.9055 0.793701 8.37866e-17 -1.66039e-16 -5.0796e-17 1
299 1.58748 11.3847 -4.83278e-16 -3.93597e-10 0.00095769 -5.75794e-17 1
302 1.58748 12.1784 0.793701 -3.93597e-10 0.00095769 -3.83173e-17 1
715 1.57981e-15 11.1118 1.5874 8.39944e-17 -1.79119e-16 -7.44224e-18 1
716 0.793723 12.0437 1.5874 -1.84174e-10 0.000484794 -5.08046e-18 1
719 1.58748 11.3847 1.5874 -3.93597e-10 0.00095769 -2.14126e-18 1
258 2.38125 10.719 -5.06746e-16 -1.35962e-09 0.00140702 -4.89591e-17 1
678 2.38125 10.719 1.5874 -1.35962e-09 0.00140702 -5.90652e-18 1
264 3.17502 10.8371 0.793701 -3.03304e-09 0.00182171 -2.48927e-17 1
300 2.38125 12.3064 -4.11884e-16 -1.35962e-09 0.00140702 -5.80441e-17 1
301 2.38125 11.5127 0.793701 -1.35962e-09 0.00140702 -3.05926e-17 1
303 3.17502 11.6308 -3.40459e-16 -3.03304e-09 0.00182171 -4.86318e-17 1
720 2.38125 12.3064 1.5874 -1.35962e-09 0.00140702 -8.73938e-18 1
723 3.17502 11.6308 1.5874 -3.03304e-09 0.00182171 -4.82425e-18 1
262 3.96877 10.9423 -4.06356e-16 -4.95386e-09 0.00219152 -5.24341e-17 1
268 4.76249 11.0322 0.793701 -6.94225e-09 0.00250734 -8.7165e-18 1
682 3.96877 10.9423 1.5874 -4.95386e-09 0.00219152 1.56603e-17 1
305 3.96877 11.736 0.793701 -4.95386e-09 0.00219152 -2.50447e-17 1
727 4.76249 11.8259 1.5874 -6.94225e-09 0.00250734 2.56477e-17 1
272 6.34981 11.1574 0.793701 -5.43296e-09 0.00294745 2.14156e-17 1
686 5.55617 11.1045 1.5874 -8.51281e-09 0.0027614 5.13073e-17 1
309 5.55617 11.8982 0.793701 -8.51281e-09 0.0027614 9.53643e-18 1
731 6.34981 11.9511 1.5874 -5.43296e-09 0.00294745 4.19544e-17 1
276 7.93701 11.2005 0.793701 9.0601e-17 0.00309909 -7.49973e-18 1
690 7.14342 11.1897 1.5874 8.79642e-09 0.00306095 4.43234e-17 1
694 8.7306 11.1897 1.5874 -8.79642e-09 0.00306095 -3.62494e-17 1
313 7.14342 11.9834 0.793701 8.79642e-09 0.00306095 1.48603e-17 1
317 8.7306 11.9834 0.793701 -8.79642e-09 0.00306095 -8.0212e-18 1
735 7.93701 11.9942 1.5874 5.29415e-17 0.00309909 3.758e-18 1
280 9.5242 11.1574 0.793701 5.43296e-09 0.00294745 -2.16318e-17 1
698 10.3178 11.1045 1.5874 8.51281e-09 0.0027614 -3.36868e-17 1
321 10.3178 11.8982 0.793701 8.51281e-09 0.0027614 -8.94985e-18 1
739 9.5242 11.9511 1.5874 5.43296e-09 0.00294745 -2.8169e-17 1
282 11.9052 10.9423 -5.64299e-16 4.95386e-09 0.00219152 -2.18421e-17 1
284 11.1115 11.0322 0.793701 6.94225e-09 0.00250734 -1.23797e-17 1
702 11.9052 10.9423 1.5874 4.95386e-09 0.00219152 -1.58679e-17 1
325 11.9052 11.736 0.793701 4.95386e-09 0.00219152 -2.42424e-17 1
743 11.1115 11.8259 1.5874 6.94225e-09 0.00250734 -1.69446e-17 1
286 13.4928 10.719 -8.5205e-16 1.35962e-09 0.00140702 -3.65271e-17 1
706 13.4928 10.719 1.5874 1.35962e-09 0.00140702 -1.67686e-17 1
288 12.699 10.8371 0.793701 3.03304e-09 0.00182171 -2.76176e-17 1
329 13.4928 11.5127 0.793701 1.35962e-09 0.00140702 -4.56105e-17 1
747 12.699 11.6308 1.5874 3.03304e-09 0.00182171 -2.56238e-17 1
748 13.4928 12.3064 1.5874 1.35962e-09 0.00140702 -3.28172e-17 1
331 14.2865 11.3847 -3.05361e-16 3.93597e-10 0.00095769 -2.95844e-17 1
332 15.0803 12.0437 1.88617e-16 1.84174e-10 0.000484794 -1.30414e-17 1
333 15.0803 11.25 0.793701 1.84174e-10 0.000484794 -1.88732e-17 1
334 14.2865 12.1784 0.793701 3.93597e-10 0.00095769 -3.752e-17 1
335 15.874 11.1118 5.31284e-16 -3.71335e-17 -1.13085e-16 -5.46111e-18 1
336 15.874 11.9055 0.793701 -3.56959e-17 -9.51433e-17 -2.03132e-17 1
751 14.2865 11.3847 1.5874 3.93597e-10 0.00095769 -1.7138e-17 1
752 15.0803 12.0437 1.5874 1.84174e-10 0.000484794 -1.05747e-17 1
755 15.874 11.1118 1.5874 -2.27416e-17 -1.29262e-16 5.11505e-18 1
337 1.10315e-15 12.6992 -4.11623e-16 8.32659e-17 -1.45265e-16 -7.99375e-17 1
338 0.793723 13.6311 -7.68571e-16 -1.84174e-10 0.000484794 -7.63583e-17 1
339 0.793723 12.8374 0.793701 -1.84174e-10 0.000484794 -5.2726e-17 1
340 7.39813e-16 13.4929 0.793701 8.32404e-17 -1.05844e-16 -6.11316e-17 1
341 1.58748 12.9721 -6.40683e-16 -3.93597e-10 0.00095769 -7.04855e-17 1
344 1.58748 13.7658 0.793701 -3.93597e-10 0.00095769 -5.06582e-17 1
757 1.16155e-15 12.6992 1.5874 8.46777e-17 -1.51511e-16 -1.01232e-17 1
758 0.793723 13.6311 1.5874 -1.84174e-10 0.000484794 -2.07991e-17 1
761 1.58748 12.9721 1.5874 -3.93597e-10 0.00095769 -1.19754e-17 1
306 3.17502 12.4245 0.793701 -3.03304e-09 0.00182171 -3.64417e-17 1
342 2.38125 13.8938 -8.08046e-16 -1.35962e-09 0.00140702 -6.39599e-17 1
343 2.38125 13.1001 0.793701 -1.35962e-09 0.00140702 -4.17518e-17 1
345 3.17502 13.2182 -5.89294e-16 -3.03304e-09 0.00182171 -5.76075e-17 1
348 3.17502 14.0119 0.793701 -3.03304e-09 0.00182171 -3.73867e-17 1
762 2.38125 13.8938 1.5874 -1.35962e-09 0.00140702 -1.83147e-17 1
765 3.17502 13.2182 1.5874 -3.03304e-09 0.00182171 -1.25428e-17 1
724 3.96877 12.5297 1.5874 -4.95386e-09 0.00219152 4.65915e-18 1
310 4.76249 12.6196 0.793701 -6.94225e-09 0.00250734 -2.23728e-17 1
346 3.96877 14.1171 -6.80083e-16 -4.95386e-09 0.00219152 -6.09601e-17 1
347 3.96877 13.3234 0.793701 -4.95386e-09 0.00219152 -3.44286e-17 1
349 4.76249 13.4133 -5.60021e-16 -6.94225e-09 0.00250734 -5.65965e-17 1
352 4.76249 14.207 0.793701 -6.94225e-09 0.00250734 -2.65895e-17 1
766 3.96877 14.1171 1.5874 -4.95386e-09 0.00219152 -4.50797e-18 1
769 4.76249 13.4133 1.5874 -6.94225e-09 0.00250734 3.66064e-18 1
314 6.34981 12.7448 0.793701 -5.43296e-09 0.00294745 9.20431e-18 1
728 5.55617 12.6919 1.5874 -8.51281e-09 0.0027614 1.71339e-17 1
351 5.55617 13.4856 0.793701 -8.51281e-09 0.0027614 -1.26161e-17 1
773 6.34981 13.5385 1.5874 -5.43296e-09 0.00294745 3.88262e-18 1
318 7.93701 12.7879 0.793701 3.21942e-17 0.00309909 5.46147e-19 1
732 7.14342 12.7771 1.5874 8.79642e-09 0.00306095 1.01541e-17 1
736 8.7306 12.7771 1.5874 -8.79642e-09 0.00306095 -2.73074e-18 1