ITEM: TIMESTEP
19000
ITEM: NUMBER OF ATOMS
8000
ITEM: BOX BOUNDS pp pp pp
0.0000000000000000e+00 3.1748021039364001e+01
0.0000000000000000e+00 1.5874010519682001e+01
0.0000000000000000e+00 1.5874010519682001e+01
ITEM: ATOMS id x y z vx vy vz c_rho_peratom
2 0.79371 0.898603 2.89908e-17 -1.88561e-08 0.000744907 3.9547e-17 1
3 0.79371 0.104903 0.793701 -1.88561e-08 0.000744907 3.29774e-17 1
4 -1.40252e-16 0.793701 0.793701 -5.82443e-17 -9.89619e-17 3.9681e-17 1
5 1.58743 0.20719 -1.88666e-16 -3.59917e-08 0.0014715 3.4817e-17 1
8 1.58743 1.00089 0.793701 -3.59917e-08 0.0014715 3.20708e-17 1
43 -1.28841e-16 1.5874 2.67073e-16 -4.67608e-17 -1.00547e-16 4.65913e-17 1
45 0.79371 1.6923 0.793701 -1.88561e-08 0.000744907 3.23913e-17 1
422 0.79371 0.898603 1.5874 -1.88561e-08 0.000744907 2.63592e-17 1
425 1.58743 0.20719 1.5874 -3.59917e-08 0.0014715 2.90804e-17 1
463 -3.3399e-16 1.5874 1.5874 -6.16588e-17 -1.07735e-16 2.64461e-17 1
6 2.38117 1.09805 -3.23712e-16 -5.02284e-08 0.00216187 3.41242e-17 1
7 2.38117 0.304347 0.793701 -5.02284e-08 0.00216187 3.50762e-17 1
9 3.1749 0.393987 -4.20539e-16 -6.01554e-08 0.00279901 3.42638e-17 1
12 3.1749 1.18769 0.793701 -6.01554e-08 0.00279901 3.53822e-17 1
426 2.38117 1.09805 1.5874 -5.02284e-08 0.00216187 2.73201e-17 1
429 3.1749 0.393987 1.5874 -6.01554e-08 0.00279901 3.28787e-17 1
10 3.96862 1.26761 -4.95211e-16 -6.45807e-08 0.00336722 4.01869e-17 1
11 3.96862 0.47391 0.793701 -6.45807e-08 0.00336722 3.92128e-17 1
16 4.76233 1.33586 0.793701 -6.33896e-08 0.0038525 4.672e-17 1
430 3.96862 1.26761 1.5874 -6.45807e-08 0.00336722 3.27154e-17 1
433 4.76233 0.542155 1.5874 -6.33896e-08 0.0038525 3.91883e-17 1
15 5.55602 0.597051 0.793701 -5.66797e-08 0.00424291 7.07152e-17 1
20 6.34969 1.43095 0.793701 -3.92061e-08 0.00452884 6.60417e-17 1
434 5.55602 1.39075 1.5874 -5.66797e-08 0.00424291 4.15998e-17 1
437 6.34969 0.637251 1.5874 -3.92061e-08 0.00452884 4.457e-17 1
19 7.14335 0.661772 0.793701 -2.43795e-09 0.00470326 5.43583e-17 1
23 8.73066 0.661772 0.793701 2.43795e-09 0.00470326 1.78226e-17 1
24 7.93701 1.46371 0.793701 -1.2638e-17 0.00476188 2.89404e-17 1
438 7.14335 1.45547 1.5874 -2.43795e-09 0.00470326 2.96164e-17 1
441 7.93701 0.670012 1.5874 -2.55308e-17 0.00476188 2.38508e-17 1
442 8.73066 1.45547 1.5874 2.43795e-09 0.00470326 1.12312e-17 1
27 10.318 0.597051 0.793701 5.66797e-08 0.00424291 2.02501e-17 1
28 9.52432 1.43095 0.793701 3.92061e-08 0.00452884 2.2107e-17 1
445 9.52432 0.637251 1.5874 3.92061e-08 0.00452884 6.18726e-18 1
446 10.318 1.39075 1.5874 5.66797e-08 0.00424291 -4.21117e-19 1
30 11.9054 1.26761 -2.34316e-16 6.45807e-08 0.00336722 8.95172e-18 1
31 11.9054 0.47391 0.793701 6.45807e-08 0.00336722 -2.86615e-18 1
32 11.1117 1.33586 0.793701 6.33896e-08 0.0038525 2.05841e-17 1
449 11.1117 0.542155 1.5874 6.33896e-08 0.0038525 -3.24734e-18 1
450 11.9054 1.26761 1.5874 6.45807e-08 0.00336722 -3.95872e-18 1
33 12.6991 0.393987 -1.88801e-16 6.01554e-08 0.00279901 -1.38443e-17 1
34 13.4928 1.09805 -2.40055e-16 5.02284e-08 0.00216187 -1.22516e-17 1
35 13.4928 0.304347 0.793701 5.02284e-08 0.00216187 -1.948e-17 1
36 12.6991 1.18769 0.793701 6.01554e-08 0.00279901 -4.2037e-18 1
453 12.6991 0.393987 1.5874 6.01554e-08 0.00279901 -9.44882e-18 1
454 13.4928 1.09805 1.5874 5.02284e-08 0.00216187 -7.27487e-18 1
37 14.2866 0.20719 -2.65879e-16 3.59917e-08 0.0014715 -5.52437e-18 1
38 15.0803 0.898603 -2.15607e-16 1.88561e-08 0.000744907 2.16368e-17 1
39 15.0803 0.104903 0.793701 1.88561e-08 0.000744907 -1.15438e-17 1
40 14.2866 1.00089 0.793701 3.59917e-08 0.0014715 -1.16108e-17 1
41 15.874 -3.19434e-17 3.30502e-17 -8.12284e-17 2.05212e-17 1.76656e-17 1
42 15.874 0.793701 0.793701 -1.12467e-16 -1.83995e-18 -1.07512e-17 1
81 15.0803 1.6923 0.793701 1.88561e-08 0.000744907 -3.15303e-18 1
83 15.874 1.5874 -4.05956e-17 -1.04622e-16 -1.98803e-17 1.78464e-17 1
457 14.2866 0.20719 1.5874 3.59917e-08 0.0014715 -2.10351e-17 1
458 15.0803 0.898603 1.5874 1.88561e-08 0.000744907 -1.31301e-17 1
461 15.874 2.37545e-17 1.5874 -1.00969e-16 3.51482e-17 -2.31565e-17 1
503 15.874 1.5874 1.5874 -1.21443e-16 -7.46835e-18 -1.19657e-17 1
47 1.58743 1.79459 -1.21016e-16 -3.59917e-08 0.0014715 3.60828e-17 1
467 1.58743 1.79459 1.5874 -3.59917e-08 0.0014715 2.29333e-17 1
44 0.79371 2.486 -3.08608e-17 -1.88561e-08 0.000744907 3.70975e-17 1
46 -2.97981e-16 2.3811 0.793701 -4.97553e-17 -1.03435e-16 3.32935e-17 1
50 1.58743 2.58829 0.793701 -3.59917e-08 0.0014715 2.74004e-17 1
85 -3.41641e-16 3.1748 1.75161e-16 -3.57478e-17 -8.95386e-17 3.94753e-17 1
87 0.79371 3.2797 0.793701 -1.88561e-08 0.000744907 2.42834e-17 1
89 1.58743 3.38199 -1.71519e-16 -3.59917e-08 0.0014715 3.59815e-17 1
464 0.79371 2.486 1.5874 -1.88561e-08 0.000744907 1.89516e-17 1
505 -3.82031e-16 3.1748 1.5874 -4.72267e-17 -9.55583e-17 1.89865e-17 1
509 1.58743 3.38199 1.5874 -3.59917e-08 0.0014715 1.63456e-17 1
49 2.38117 1.89175 0.793701 -5.02284e-08 0.00216187 3.18806e-17 1
51 3.1749 1.98139 -4.14007e-16 -6.01554e-08 0.00279901 4.06044e-17 1
471 3.1749 1.98139 1.5874 -6.01554e-08 0.00279901 2.34861e-17 1
48 2.38117 2.68545 -2.74682e-16 -5.02284e-08 0.00216187 4.10667e-17 1
54 3.1749 2.77509 0.793701 -6.01554e-08 0.00279901 3.49558e-17 1
91 2.38117 3.47915 0.793701 -5.02284e-08 0.00216187 3.02278e-17 1
468 2.38117 2.68545 1.5874 -5.02284e-08 0.00216187 1.79702e-17 1
53 3.96862 2.06131 0.793701 -6.45807e-08 0.00336722 3.90583e-17 1
475 4.76233 2.12956 1.5874 -6.33896e-08 0.0038525 3.7669e-17 1
52 3.96862 2.85501 -3.89232e-16 -6.45807e-08 0.00336722 4.86257e-17 1
58 4.76233 2.92326 0.793701 -6.33896e-08 0.0038525 4.62592e-17 1
472 3.96862 2.85501 1.5874 -6.45807e-08 0.00336722 2.90066e-17 1
57 5.55602 2.18445 0.793701 -5.66797e-08 0.00424291 5.23611e-17 1
479 6.34969 2.22465 1.5874 -3.92061e-08 0.00452884 3.11283e-17 1
62 6.34969 3.01835 0.793701 -3.92061e-08 0.00452884 4.22137e-17 1
476 5.55602 2.97815 1.5874 -5.66797e-08 0.00424291 3.50157e-17 1
61 7.14335 2.24917 0.793701 -2.43795e-09 0.00470326 3.83104e-17 1
65 8.73066 2.24917 0.793701 2.43795e-09 0.00470326 1.46091e-17 1
483 7.93701 2.25741 1.5874 -3.00678e-17 0.00476188 1.82635e-17 1
66 7.93701 3.05111 0.793701 -2.77539e-17 0.00476188 2.25734e-17 1
480 7.14335 3.04287 1.5874 -2.43795e-09 0.00470326 2.06049e-17 1
484 8.73066 3.04287 1.5874 2.43795e-09 0.00470326 9.58224e-18 1
69 10.318 2.18445 0.793701 5.66797e-08 0.00424291 2.17566e-17 1
487 9.52432 2.22465 1.5874 3.92061e-08 0.00452884 2.63412e-18 1
70 9.52432 3.01835 0.793701 3.92061e-08 0.00452884 1.34756e-17 1
488 10.318 2.97815 1.5874 5.66797e-08 0.00424291 5.27414e-18 1
73 11.9054 2.06131 0.793701 6.45807e-08 0.00336722 1.02898e-17 1
491 11.1117 2.12956 1.5874 6.33896e-08 0.0038525 -6.37272e-19 1
72 11.9054 2.85501 -4.89599e-16 6.45807e-08 0.00336722 1.54312e-17 1
74 11.1117 2.92326 0.793701 6.33896e-08 0.0038525 1.9167e-17 1
492 11.9054 2.85501 1.5874 6.45807e-08 0.00336722 1.4138e-17 1
77 13.4928 1.89175 0.793701 5.02284e-08 0.00216187 -6.25517e-19 1
75 12.6991 1.98139 -3.07531e-16 6.01554e-08 0.00279901 -2.65477e-18 1
495 12.6991 1.98139 1.5874 6.01554e-08 0.00279901 5.05477e-18 1
76 13.4928 2.68545 -3.79693e-16 5.02284e-08 0.00216187 1.04803e-17 1
78 12.6991 2.77509 0.793701 6.01554e-08 0.00279901 1.39003e-17 1
119 13.4928 3.47915 0.793701 5.02284e-08 0.00216187 3.23693e-17 1
496 13.4928 2.68545 1.5874 5.02284e-08 0.00216187 1.81498e-17 1
79 14.2866 1.79459 -3.04368e-16 3.59917e-08 0.0014715 4.48054e-18 1
499 14.2866 1.79459 1.5874 3.59917e-08 0.0014715 -1.1402e-18 1
80 15.0803 2.486 -2.01909e-16 1.88561e-08 0.000744907 4.23672e-17 1
82 14.2866 2.58829 0.793701 3.59917e-08 0.0014715 1.53849e-17 1
84 15.874 2.3811 0.793701 -1.04793e-16 -3.03752e-17 6.19466e-18 1
121 14.2866 3.38199 -2.77058e-16 3.59917e-08 0.0014715 4.76204e-17 1
123 15.0803 3.2797 0.793701 1.88561e-08 0.000744907 4.94587e-17 1
125 15.874 3.1748 -5.30722e-18 -4.47863e-17 -7.35959e-17 4.85567e-17 1
500 15.0803 2.486 1.5874 1.88561e-08 0.000744907 7.57171e-18 1
541 14.2866 3.38199 1.5874 3.59917e-08 0.0014715 5.4142e-17 1
545 15.874 3.1748 1.5874 -9.79873e-17 -3.1469e-17 1.18392e-17 1
86 0.79371 4.07341 -8.03893e-17 -1.88561e-08 0.000744907 3.23655e-17 1
88 -3.66831e-16 3.9685 0.793701 -3.17871e-17 -7.79693e-17 2.57056e-17 1
92 1.58743 4.17569 0.793701 -3.59917e-08 0.0014715 2.28118e-17 1
127 -2.63744e-16 4.7622 4.03834e-16 -1.48632e-17 -5.89393e-17 2.6446e-17 1
129 0.79371 4.86711 0.793701 -1.88561e-08 0.000744907 1.61814e-17 1
131 1.58743 4.96939 -2.97221e-16 -3.59917e-08 0.0014715 1.77914e-17 1
506 0.79371 4.07341 1.5874 -1.88561e-08 0.000744907 1.32436e-17 1
547 -4.31421e-16 4.7622 1.5874 -1.70151e-17 -8.59698e-17 6.03776e-18 1
551 1.58743 4.96939 1.5874 -3.59917e-08 0.0014715 2.88288e-17 1
93 3.1749 3.56879 -2.85477e-16 -6.01554e-08 0.00279901 4.6448e-17 1
513 3.1749 3.56879 1.5874 -6.01554e-08 0.00279901 3.01436e-17 1
90 2.38117 4.27285 -3.41003e-16 -5.02284e-08 0.00216187 2.50046e-17 1
96 3.1749 4.36249 0.793701 -6.01554e-08 0.00279901 3.88086e-17 1
133 2.38117 5.06655 0.793701 -5.02284e-08 0.00216187 2.93938e-17 1
135 3.1749 5.15619 -3.8263e-16 -6.01554e-08 0.00279901 2.41901e-17 1
510 2.38117 4.27285 1.5874 -5.02284e-08 0.00216187 4.41005e-17 1
555 3.1749 5.15619 1.5874 -6.01554e-08 0.00279901 5.48964e-17 1
95 3.96862 3.64871 0.793701 -6.45807e-08 0.00336722 4.07453e-17 1
517 4.76233 3.71696 1.5874 -6.33896e-08 0.0038525 3.50655e-17 1
94 3.96862 4.44241 -1.54342e-16 -6.45807e-08 0.00336722 4.64191e-17 1
100 4.76233 4.51066 0.793701 -6.33896e-08 0.0038525 4.04004e-17 1
137 3.96862 5.23611 0.793701 -6.45807e-08 0.00336722 4.33762e-17 1
514 3.96862 4.44241 1.5874 -6.45807e-08 0.00336722 3.75407e-17 1
559 4.76233 5.30436 1.5874 -6.33896e-08 0.0038525 2.66906e-17 1
99 5.55602 3.77185 0.793701 -5.66797e-08 0.00424291 4.35916e-17 1
521 6.34969 3.81205 1.5874 -3.92061e-08 0.00452884 2.30084e-17 1
104 6.34969 4.60575 0.793701 -3.92061e-08 0.00452884 2.94929e-17 1
518 5.55602 4.56555 1.5874 -5.66797e-08 0.00424291 2.71204e-17 1
103 7.14335 3.83657 0.793701 -2.43795e-09 0.00470326 2.80586e-17 1
107 8.73066 3.83657 0.793701 2.43795e-09 0.00470326 2.38687e-17 1
525 7.93701 3.84481 1.5874 -4.09605e-17 0.00476188 1.62648e-17 1
108 7.93701 4.63851 0.793701 -5.59874e-17 0.00476188 3.08334e-17 1
522 7.14335 4.63027 1.5874 -2.43795e-09 0.00470326 1.63856e-17 1
526 8.73066 4.63027 1.5874 2.43795e-09 0.00470326 2.17e-17 1
111 10.318 3.77185 0.793701 5.66797e-08 0.00424291 2.68637e-17 1
529 9.52432 3.81205 1.5874 3.92061e-08 0.00452884 1.17742e-17 1
112 9.52432 4.60575 0.793701 3.92061e-08 0.00452884 5.00042e-17 1
530 10.318 4.56555 1.5874 5.66797e-08 0.00424291 2.6146e-17 1
115 11.9054 3.64871 0.793701 6.45807e-08 0.00336722 2.91825e-17 1
533 11.1117 3.71696 1.5874 6.33896e-08 0.0038525 2.10111e-17 1
114 11.9054 4.44241 -5.74991e-16 6.45807e-08 0.00336722 3.17865e-17 1
116 11.1117 4.51066 0.793701 6.33896e-08 0.0038525 3.84196e-17 1
157 11.9054 5.23611 0.793701 6.45807e-08 0.00336722 3.71448e-17 1
534 11.9054 4.44241 1.5874 6.45807e-08 0.00336722 3.47878e-17 1
575 11.1117 5.30436 1.5874 6.33896e-08 0.0038525 3.57864e-17 1
537 12.6991 3.56879 1.5874 6.01554e-08 0.00279901 3.09221e-17 1
118 13.4928 4.27285 -3.0658e-16 5.02284e-08 0.00216187 2.19442e-17 1
120 12.6991 4.36249 0.793701 6.01554e-08 0.00279901 3.45271e-17 1
161 13.4928 5.06655 0.793701 5.02284e-08 0.00216187 3.46808e-17 1
538 13.4928 4.27285 1.5874 5.02284e-08 0.00216187 7.14769e-17 1
579 12.6991 5.15619 1.5874 6.01554e-08 0.00279901 4.45131e-17 1
122 15.0803 4.07341 -1.67648e-16 1.88561e-08 0.000744907 5.29794e-17 1
124 14.2866 4.17569 0.793701 3.59917e-08 0.0014715 6.16512e-17 1
126 15.874 3.9685 0.793701 -1.98041e-17 -7.74666e-17 5.16191e-17 1
163 14.2866 4.96939 -2.17015e-16 3.59917e-08 0.0014715 1.15673e-17 1
165 15.0803 4.86711 0.793701 1.88561e-08 0.000744907 6.61487e-17 1
167 15.874 4.7622 1.08343e-16 5.06825e-17 -5.28159e-17 2.87131e-17 1
542 15.0803 4.07341 1.5874 1.88561e-08 0.000744907 8.1312e-17 1
583 14.2866 4.96939 1.5874 3.59917e-08 0.0014715 1.01417e-16 1
587 15.874 4.7622 1.5874 -1.27009e-17 -6.57743e-17 5.78055e-17 1
128 0.79371 5.66081 -8.78348e-17 -1.88561e-08 0.000744907 2.18431e-17 1
130 -3.93296e-16 5.5559 0.793701 2.06341e-17 -8.22168e-17 -3.95819e-19 1
134 1.58743 5.76309 0.793701 -3.59917e-08 0.0014715 1.56627e-17 1
169 -2.45294e-16 6.3496 4.89822e-16 3.18844e-17 -5.5631e-17 -1.47528e-17 1
171 0.79371 6.45451 0.793701 -1.88561e-08 0.000744907 -1.9857e-17 1
173 1.58743 6.55679 -2.34576e-16 -3.59917e-08 0.0014715 2.99652e-17 1
548 0.79371 5.66081 1.5874 -1.88561e-08 0.000744907 -1.1047e-17 1
589 -4.51932e-16 6.3496 1.5874 6.00194e-17 -1.15464e-16 -3.5762e-17 1
593 1.58743 6.55679 1.5874 -3.59917e-08 0.0014715 -9.32977e-18 1
132 2.38117 5.86025 -4.47954e-16 -5.02284e-08 0.00216187 1.46524e-17 1
138 3.1749 5.94989 0.793701 -6.01554e-08 0.00279901 4.58103e-17 1
175 2.38117 6.65395 0.793701 -5.02284e-08 0.00216187 3.13718e-17 1
177 3.1749 6.74359 -3.83631e-16 -6.01554e-08 0.00279901 1.18283e-17 1
552 2.38117 5.86025 1.5874 -5.02284e-08 0.00216187 4.10313e-17 1
597 3.1749 6.74359 1.5874 -6.01554e-08 0.00279901 3.10063e-17 1
136 3.96862 6.02981 -2.85273e-16 -6.45807e-08 0.00336722 2.55506e-17 1
142 4.76233 6.09806 0.793701 -6.33896e-08 0.0038525 3.964e-17 1
179 3.96862 6.82351 0.793701 -6.45807e-08 0.00336722 4.27115e-17 1
181 4.76233 6.89176 -2.73713e-16 -6.33896e-08 0.0038525 2.17522e-17 1
556 3.96862 6.02981 1.5874 -6.45807e-08 0.00336722 3.46592e-17 1
601 4.76233 6.89176 1.5874 -6.33896e-08 0.0038525 3.30125e-17 1
141 5.55602 5.35925 0.793701 -5.66797e-08 0.00424291 3.14253e-17 1
563 6.34969 5.39945 1.5874 -3.92061e-08 0.00452884 1.69187e-17 1
146 6.34969 6.19315 0.793701 -3.92061e-08 0.00452884 2.01609e-17 1
183 5.55602 6.94665 0.793701 -5.66797e-08 0.00424291 2.89141e-17 1
560 5.55602 6.15295 1.5874 -5.66797e-08 0.00424291 2.0912e-17 1
605 6.34969 6.98685 1.5874 -3.92061e-08 0.00452884 2.16886e-17 1
145 7.14335 5.42397 0.793701 -2.43795e-09 0.00470326 2.52345e-17 1
149 8.73066 5.42397 0.793701 2.43795e-09 0.00470326 5.1869e-17 1
567 7.93701 5.43222 1.5874 -6.58114e-17 0.00476188 2.2357e-17 1
150 7.93701 6.22592 0.793701 -1.00095e-16 0.00476188 3.3059e-17 1
187 7.14335 7.01138 0.793701 -2.43795e-09 0.00470326 2.07755e-17 1
191 8.73066 7.01138 0.793701 2.43795e-09 0.00470326 3.57608e-17 1
564 7.14335 6.21768 1.5874 -2.43795e-09 0.00470326 1.43084e-17 1
568 8.73066 6.21768 1.5874 2.43795e-09 0.00470326 3.73965e-17 1
609 7.93701 7.01962 1.5874 -1.11385e-16 0.00476188 2.11917e-17 1
153 10.318 5.35925 0.793701 5.66797e-08 0.00424291 6.34167e-17 1
571 9.52432 5.39945 1.5874 3.92061e-08 0.00452884 4.42137e-17 1
154 9.52432 6.19315 0.793701 3.92061e-08 0.00452884 6.62911e-17 1
195 10.318 6.94665 0.793701 5.66797e-08 0.00424291 6.49447e-17 1
572 10.318 6.15295 1.5874 5.66797e-08 0.00424291 4.99451e-17 1
613 9.52432 6.98685 1.5874 3.92061e-08 0.00452884 4.3381e-17 1
156 11.9054 6.02981 -3.0273e-16 6.45807e-08 0.00336722 3.36235e-17 1
158 11.1117 6.09806 0.793701 6.33896e-08 0.0038525 5.58689e-17 1
199 11.9054 6.82351 0.793701 6.45807e-08 0.00336722 3.49213e-17 1
576 11.9054 6.02981 1.5874 6.45807e-08 0.00336722 3.61581e-17 1
617 11.1117 6.89176 1.5874 6.33896e-08 0.0038525 4.5327e-17 1
160 13.4928 5.86025 -1.9178e-16 5.02284e-08 0.00216187 4.41734e-18 1
162 12.6991 5.94989 0.793701 6.01554e-08 0.00279901 2.63867e-17 1
201 12.6991 6.74359 -1.50172e-16 6.01554e-08 0.00279901 1.21141e-17 1
203 13.4928 6.65395 0.793701 5.02284e-08 0.00216187 1.38305e-17 1
580 13.4928 5.86025 1.5874 5.02284e-08 0.00216187 4.73443e-17 1
621 12.6991 6.74359 1.5874 6.01554e-08 0.00279901 2.88352e-17 1
164 15.0803 5.66081 -1.50328e-16 1.88561e-08 0.000744907 4.88872e-18 1
166 14.2866 5.76309 0.793701 3.59917e-08 0.0014715 2.63157e-17 1
168 15.874 5.5559 0.793701 5.38485e-17 -3.03143e-17 4.02441e-17 1
205 14.2866 6.55679 -2.14465e-16 3.59917e-08 0.0014715 -6.50907e-18 1
207 15.0803 6.45451 0.793701 1.88561e-08 0.000744907 1.95833e-17 1
209 15.874 6.3496 2.13214e-18 6.27419e-17 8.25658e-18 3.54649e-18 1
584 15.0803 5.66081 1.5874 1.88561e-08 0.000744907 7.92025e-17 1
625 14.2866 6.55679 1.5874 3.59917e-08 0.0014715 3.74006e-17 1
629 15.874 6.3496 1.5874 4.45621e-17 -2.06406e-17 3.85344e-17 1
170 0.79371 7.24821 -1.49061e-16 -1.88561e-08 0.000744907 -5.26233e-18 1
172 -3.48065e-16 7.1433 0.793701 7.15072e-17 -8.51958e-17 -6.31638e-17 1
176 1.58743 7.35049 0.793701 -3.59917e-08 0.0014715 4.01405e-19 1
211 -2.43953e-16 7.93701 3.86333e-16 4.65842e-17 -5.01437e-17 -5.46461e-17 1
213 0.79371 8.04191 0.793701 -1.88561e-08 0.000744907 -4.87481e-17 1
214 -1.38252e-16 8.73071 0.793701 7.52632e-17 -3.71344e-17 -8.56379e-17 1
215 1.58743 8.1442 -2.52016e-16 -3.59917e-08 0.0014715 2.44918e-17 1
590 0.79371 7.24821 1.5874 -1.88561e-08 0.000744907 -4.21467e-17 1
631 -3.19638e-16 7.93701 1.5874 7.33029e-17 -6.4474e-17 -4.61535e-17 1
635 1.58743 8.1442 1.5874 -3.59917e-08 0.0014715 -1.75711e-17 1
174 2.38117 7.44765 -3.26216e-16 -5.02284e-08 0.00216187 2.58057e-17 1
180 3.1749 7.53729 0.793701 -6.01554e-08 0.00279901 2.50865e-17 1
217 2.38117 8.24135 0.793701 -5.02284e-08 0.00216187 2.02523e-17 1
219 3.1749 8.33099 -2.54512e-16 -6.01554e-08 0.00279901 1.42398e-17 1
594 2.38117 7.44765 1.5874 -5.02284e-08 0.00216187 6.95427e-18 1
639 3.1749 8.33099 1.5874 -6.01554e-08 0.00279901 6.86053e-18 1
178 3.96862 7.61721 -3.31791e-16 -6.45807e-08 0.00336722 3.44322e-18 1
184 4.76233 7.68546 0.793701 -6.33896e-08 0.0038525 4.46674e-17 1
221 3.96862 8.41092 0.793701 -6.45807e-08 0.00336722 2.14498e-17 1
598 3.96862 7.61721 1.5874 -6.45807e-08 0.00336722 3.31225e-17 1
643 4.76233 8.47916 1.5874 -6.33896e-08 0.0038525 6.24605e-17 1
188 6.34969 7.78056 0.793701 -3.92061e-08 0.00452884 3.50914e-17 1
225 5.55602 8.53406 0.793701 -5.66797e-08 0.00424291 7.65088e-17 1
602 5.55602 7.74036 1.5874 -5.66797e-08 0.00424291 5.30327e-17 1
647 6.34969 8.57426 1.5874 -3.92061e-08 0.00452884 7.36678e-17 1
192 7.93701 7.81332 0.793701 -1.32162e-16 0.00476188 2.16124e-17 1
229 7.14335 8.59878 0.793701 -2.43795e-09 0.00470326 3.1447e-17 1
233 8.73066 8.59878 0.793701 2.43795e-09 0.00470326 2.27814e-17 1
606 7.14335 7.80508 1.5874 -2.43795e-09 0.00470326 2.53508e-17 1
610 8.73066 7.80508 1.5874 2.43795e-09 0.00470326 2.29173e-17 1
651 7.93701 8.60702 1.5874 -1.4222e-16 0.00476188 2.18686e-17 1
196 9.52432 7.78056 0.793701 3.92061e-08 0.00452884 4.04027e-17 1
237 10.318 8.53406 0.793701 5.66797e-08 0.00424291 5.04176e-17 1
614 10.318 7.74036 1.5874 5.66797e-08 0.00424291 4.583e-17 1
655 9.52432 8.57426 1.5874 3.92061e-08 0.00452884 2.92618e-17 1
200 11.1117 7.68546 0.793701 6.33896e-08 0.0038525 4.83745e-17 1
241 11.9054 8.41092 0.793701 6.45807e-08 0.00336722 2.23788e-17 1
618 11.9054 7.61721 1.5874 6.45807e-08 0.00336722 3.41455e-17 1
659 11.1117 8.47916 1.5874 6.33896e-08 0.0038525 4.93119e-17 1
202 13.4928 7.44765 -1.9827e-16 5.02284e-08 0.00216187 9.71947e-19 1
204 12.6991 7.53729 0.793701 6.01554e-08 0.00279901 1.59587e-17 1
243 12.6991 8.33099 -3.18559e-16 6.01554e-08 0.00279901 9.88141e-18 1
245 13.4928 8.24135 0.793701 5.02284e-08 0.00216187 8.109e-18 1
622 13.4928 7.44765 1.5874 5.02284e-08 0.00216187 2.07064e-17 1
663 12.6991 8.33099 1.5874 6.01554e-08 0.00279901 1.78749e-17 1
206 15.0803 7.24821 -1.86399e-16 1.88561e-08 0.000744907 -5.23407e-18 1
208 14.2866 7.35049 0.793701 3.59917e-08 0.0014715 4.57692e-18 1
210 15.874 7.1433 0.793701 5.5133e-17 1.63465e-17 1.0173e-17 1
247 14.2866 8.1442 -2.73669e-16 3.59917e-08 0.0014715 -4.59834e-18 1
249 15.0803 8.04191 0.793701 1.88561e-08 0.000744907 1.97465e-18 1
251 15.874 7.93701 -9.68633e-17 5.42839e-17 3.43342e-17 -3.51963e-18 1
252 15.874 8.73071 0.793701 4.87458e-17 3.38387e-17 -1.51761e-18 1
626 15.0803 7.24821 1.5874 1.88561e-08 0.000744907 2.14791e-17 1
667 14.2866 8.1442 1.5874 3.59917e-08 0.0014715 1.51662e-17 1
671 15.874 7.93701 1.5874 4.57195e-17 2.49994e-17 7.01558e-18 1
212 0.79371 8.83561 -6.33727e-17 -1.88561e-08 0.000744907 -8.35776e-18 1
632 0.79371 8.83561 1.5874 -1.88561e-08 0.000744907 -5.08765e-17 1
218 1.58743 8.9379 0.793701 -3.59917e-08 0.0014715 -3.09888e-19 1
253 -6.27089e-17 9.52441 3.75841e-16 4.60462e-17 -5.75751e-17 -3.63359e-17 1
254 0.79371 10.423 8.31454e-17 -1.88561e-08 0.000744907 9.71646e-18 1
255 0.79371 9.62931 0.793701 -1.88561e-08 0.000744907 -5.27362e-17 1
256 6.4263e-17 10.3181 0.793701 6.33572e-17 -5.07784e-17 -7.59838e-17 1
257 1.58743 9.7316 1.41023e-17 -3.59917e-08 0.0014715 2.44757e-17 1
260 1.58743 10.5253 0.793701 -3.59917e-08 0.0014715 -2.3903e-17 1
673 9.9749e-17 9.52441 1.5874 8.26891e-17 -5.24996e-17 -7.1263e-17 1
674 0.79371 10.423 1.5874 -1.88561e-08 0.000744907 -7.96753e-17 1
677 1.58743 9.7316 1.5874 -3.59917e-08 0.0014715 -4.12936e-17 1
216 2.38117 9.03505 -1.57913e-16 -5.02284e-08 0.00216187 2.5427e-17 1
222 3.1749 9.12469 0.793701 -6.01554e-08 0.00279901 3.90568e-18 1
636 2.38117 9.03505 1.5874 -5.02284e-08 0.00216187 -8.37355e-18 1
259 2.38117 9.82875 0.793701 -5.02284e-08 0.00216187 -6.23729e-18 1
261 3.1749 9.91839 -2.35159e-16 -6.01554e-08 0.00279901 3.12784e-17 1
681 3.1749 9.91839 1.5874 -6.01554e-08 0.00279901 -2.80349e-17 1
220 3.96862 9.20462 -2.77091e-16 -6.45807e-08 0.00336722 4.07292e-17 1
226 4.76233 9.27286 0.793701 -6.33896e-08 0.0038525 7.14223e-17 1
640 3.96862 9.20462 1.5874 -6.45807e-08 0.00336722 1.06564e-17 1
263 3.96862 9.99832 0.793701 -6.45807e-08 0.00336722 3.05201e-17 1
685 4.76233 10.0666 1.5874 -6.33896e-08 0.0038525 6.13359e-17 1
230 6.34969 9.36796 0.793701 -3.92061e-08 0.00452884 7.53146e-17 1
644 5.55602 9.32776 1.5874 -5.66797e-08 0.00424291 1.05634e-16 1
267 5.55602 10.1215 0.793701 -5.66797e-08 0.00424291 1.04044e-16 1
689 6.34969 10.1617 1.5874 -3.92061e-08 0.00452884 8.56201e-17 1
234 7.93701 9.40072 0.793701 -1.36248e-16 0.00476188 2.70754e-17 1
648 7.14335 9.39248 1.5874 -2.43795e-09 0.00470326 4.68279e-17 1
652 8.73066 9.39248 1.5874 2.43795e-09 0.00470326 2.36554e-17 1
271 7.14335 10.1862 0.793701 -2.43795e-09 0.00470326 4.43652e-17 1
275 8.73066 10.1862 0.793701 2.43795e-09 0.00470326 3.43636e-17 1
693 7.93701 10.1944 1.5874 -1.35275e-16 0.00476188 2.70477e-17 1
238 9.52432 9.36796 0.793701 3.92061e-08 0.00452884 3.91724e-17 1
656 10.318 9.32776 1.5874 5.66797e-08 0.00424291 5.23065e-17 1
279 10.318 10.1215 0.793701 5.66797e-08 0.00424291 4.54677e-17 1
697 9.52432 10.1617 1.5874 3.92061e-08 0.00452884 4.29717e-17 1
240 11.9054 9.20462 -3.46664e-16 6.45807e-08 0.00336722 1.42285e-17 1
242 11.1117 9.27286 0.793701 6.33896e-08 0.0038525 3.42494e-17 1
660 11.9054 9.20462 1.5874 6.45807e-08 0.00336722 2.96067e-17 1
283 11.9054 9.99832 0.793701 6.45807e-08 0.00336722 1.99903e-17 1
701 11.1117 10.0666 1.5874 6.33896e-08 0.0038525 5.52289e-17 1
244 13.4928 9.03505 -3.47945e-16 5.02284e-08 0.00216187 6.53447e-18 1
246 12.6991 9.12469 0.793701 6.01554e-08 0.00279901 1.24183e-17 1
664 13.4928 9.03505 1.5874 5.02284e-08 0.00216187 1.28169e-17 1
285 12.6991 9.91839 -3.59441e-16 6.01554e-08 0.00279901 1.201e-17 1
287 13.4928 9.82875 0.793701 5.02284e-08 0.00216187 1.31927e-17 1
705 12.6991 9.91839 1.5874 6.01554e-08 0.00279901 1.83224e-17 1
248 15.0803 8.83561 -1.97319e-16 1.88561e-08 0.000744907 -5.38671e-18 1
668 15.0803 8.83561 1.5874 1.88561e-08 0.000744907 1.18247e-17 1
250 14.2866 8.9379 0.793701 3.59917e-08 0.0014715 5.03698e-18 1
289 14.2866 9.7316 -2.90089e-16 3.59917e-08 0.0014715 2.9128e-18 1
290 15.0803 10.423 -1.92866e-16 1.88561e-08 0.000744907 -2.1126e-19 1
291 15.0803 9.62931 0.793701 1.88561e-08 0.000744907 3.34309e-18 1
292 14.2866 10.5253 0.793701 3.59917e-08 0.0014715 1.14102e-17 1
293 15.874 9.52441 -1.00711e-16 5.24603e-17 3.9382e-17 -1.06989e-17 1
294 15.874 10.3181 0.793701 4.43128e-17 5.32078e-17 3.05503e-18 1
709 14.2866 9.7316 1.5874 3.59917e-08 0.0014715 1.51704e-17 1
710 15.0803 10.423 1.5874 1.88561e-08 0.000744907 1.32135e-17 1
713 15.874 9.52441 1.5874 3.99675e-17 4.27744e-17 8.72014e-18 1
295 2.75006e-18 11.1118 2.48223e-16 2.26524e-17 -8.7964e-17 -2.12138e-18 1
296 0.79371 12.0104 -1.74236e-17 -1.88561e-08 0.000744907 2.53446e-17 1
297 0.79371 11.2167 0.793701 -1.88561e-08 0.000744907 -2.82337e-17 1
298 4.22231e-17 11.9055 0.793701 2.64616e-17 -9.02295e-17 -3.02646e-17 1
299 1.58743 11.319 -8.00957e-17 -3.59917e-08 0.0014715 3.17201e-17 1
302 1.58743 12.1127 0.793701 -3.59917e-08 0.0014715 1.7066e-17 1
715 5.37996e-17 11.1118 1.5874 5.82818e-17 -4.90255e-17 -9.13939e-17 1
716 0.79371 12.0104 1.5874 -1.88561e-08 0.000744907 -4.87116e-17 1
719 1.58743 11.319 1.5874 -3.59917e-08 0.0014715 -5.97432e-17 1
258 2.38117 10.6225 -1.60189e-16 -5.02284e-08 0.00216187 2.76331e-17 1
678 2.38117 10.6225 1.5874 -5.02284e-08 0.00216187 -4.89725e-17 1
264 3.1749 10.7121 0.793701 -6.01554e-08 0.00279901 2.6918e-18 1
300 2.38117 12.2099 -2.68972e-16 -5.02284e-08 0.00216187 5.8872e-17 1
301 2.38117 11.4162 0.793701 -5.02284e-08 0.00216187 -2.49011e-18 1
303 3.1749 11.5058 -3.2732e-16 -6.01554e-08 0.00279901 6.7006e-17 1
306 3.1749 12.2995 0.793701 -6.01554e-08 0.00279901 4.10134e-17 1
720 2.38117 12.2099 1.5874 -5.02284e-08 0.00216187 -1.45557e-17 1
723 3.1749 11.5058 1.5874 -6.01554e-08 0.00279901 -2.88407e-17 1
262 3.96862 10.792 -3.07178e-16 -6.45807e-08 0.00336722 7.45004e-17 1
268 4.76233 10.8603 0.793701 -6.33896e-08 0.0038525 8.94771e-17 1
682 3.96862 10.792 1.5874 -6.45807e-08 0.00336722 -1.19383e-18 1
305 3.96862 11.5857 0.793701 -6.45807e-08 0.00336722 6.05057e-17 1
724 3.96862 12.3794 1.5874 -6.45807e-08 0.00336722 2.76638e-17 1
727 4.76233 11.654 1.5874 -6.33896e-08 0.0038525 5.8727e-17 1
272 6.34969 10.9554 0.793701 -3.92061e-08 0.00452884 7.68527e-17 1
686 5.55602 10.9152 1.5874 -5.66797e-08 0.00424291 9.18832e-17 1
309 5.55602 11.7089 0.793701 -5.66797e-08 0.00424291 1.03389e-16 1
731 6.34969 11.7491 1.5874 -3.92061e-08 0.00452884 5.04987e-17 1
276 7.93701 10.9881 0.793701 -1.26524e-16 0.00476188 3.28999e-17 1
690 7.14335 10.9799 1.5874 -2.43795e-09 0.00470326 3.62946e-17 1
694 8.73066 10.9799 1.5874 2.43795e-09 0.00470326 3.25144e-17 1
313 7.14335 11.7736 0.793701 -2.43795e-09 0.00470326 3.9836e-17 1
317 8.73066 11.7736 0.793701 2.43795e-09 0.00470326 2.91029e-17 1
735 7.93701 11.7818 1.5874 -1.20097e-16 0.00476188 2.32027e-17 1
280 9.52432 10.9554 0.793701 3.92061e-08 0.00452884 4.19104e-17 1
698 10.318 10.9152 1.5874 5.66797e-08 0.00424291 5.98433e-17 1
321 10.318 11.7089 0.793701 5.66797e-08 0.00424291 3.8658e-17 1
739 9.52432 11.7491 1.5874 3.92061e-08 0.00452884 3.96541e-17 1
282 11.9054 10.792 -3.72152e-16 6.45807e-08 0.00336722 5.90832e-18 1
284 11.1117 10.8603 0.793701 6.33896e-08 0.0038525 3.93331e-17 1
702 11.9054 10.792 1.5874 6.45807e-08 0.00336722 3.82524e-17 1
324 11.9054 12.3794 -5.11911e-16 6.45807e-08 0.00336722 -7.46092e-18 1
325 11.9054 11.5857 0.793701 6.45807e-08 0.00336722 2.97134e-17 1
743 11.1117 11.654 1.5874 6.33896e-08 0.0038525 5.22069e-17 1
744 11.9054 12.3794 1.5874 6.45807e-08 0.00336722 3.17598e-17 1
286 13.4928 10.6225 -3.86732e-16 5.02284e-08 0.00216187 9.77697e-18 1
706 13.4928 10.6225 1.5874 5.02284e-08 0.00216187 2.02038e-17 1
288 12.6991 10.7121 0.793701 6.01554e-08 0.00279901 2.16044e-17 1
327 12.6991 11.5058 -5.10965e-16 6.01554e-08 0.00279901 1.95117e-18 1
328 13.4928 12.2099 -5.25903e-16 5.02284e-08 0.00216187 -3.56974e-18 1
329 13.4928 11.4162 0.793701 5.02284e-08 0.00216187 1.74336e-17 1
330 12.6991 12.2995 0.793701 6.01554e-08 0.00279901 1.33551e-17 1
747 12.6991 11.5058 1.5874 6.01554e-08 0.00279901 2.85433e-17 1
748 13.4928 12.2099 1.5874 5.02284e-08 0.00216187 2.12899e-17 1
331 14.2866 11.319 -3.46217e-16 3.59917e-08 0.0014715 5.42958e-18 1
332 15.0803 12.0104 -7.92961e-17 1.88561e-08 0.000744907 2.58691e-18 1
333 15.0803 11.2167 0.793701 1.88561e-08 0.000744907 1.04247e-17 1
334 14.2866 12.1127 0.793701 3.59917e-08 0.0014715 9.91735e-18 1
335 15.874 11.1118 9.64243e-17 5.25473e-17 4.60388e-17 1.03993e-18 1
336 15.874 11.9055 0.793701 5.12207e-17 3.42029e-17 5.91778e-18 1
751 14.2866 11.319 1.5874 3.59917e-08 0.0014715 1.62888e-17 1
752 15.0803 12.0104 1.5874 1.88561e-08 0.000744907 6.45927e-18 1
755 15.874 11.1118 1.5874 3.81131e-17 4.91673e-17 3.92329e-18 1
337 1.86167e-17 12.6992 1.59489e-16 -5.32261e-18 -1.09181e-16 1.63134e-17 1
338 0.79371 13.5978 -1.11034e-16 -1.88561e-08 0.000744907 3.08597e-17 1
339 0.79371 12.8041 0.793701 -1.88561e-08 0.000744907 1.20818e-17 1
340 -6.52883e-17 13.4929 0.793701 -2.22381e-17 -9.24289e-17 5.51571e-18 1
341 1.58743 12.9064 -1.81818e-16 -3.59917e-08 0.0014715 4.8422e-17 1
344 1.58743 13.7001 0.793701 -3.59917e-08 0.0014715 3.57789e-17 1
757 3.41326e-17 12.6992 1.5874 2.17027e-17 -7.18458e-17 -4.09168e-17 1
758 0.79371 13.5978 1.5874 -1.88561e-08 0.000744907 4.00341e-18 1
761 1.58743 12.9064 1.5874 -3.59917e-08 0.0014715 8.42852e-18 1
342 2.38117 13.7973 -2.92138e-16 -5.02284e-08 0.00216187 5.21596e-17 1
343 2.38117 13.0036 0.793701 -5.02284e-08 0.00216187 3.80543e-17 1
345 3.1749 13.0932 -3.74998e-16 -6.01554e-08 0.00279901 6.358e-17 1
348 3.1749 13.8869 0.793701 -6.01554e-08 0.00279901 4.78418e-17 1
762 2.38117 13.7973 1.5874 -5.02284e-08 0.00216187 3.06694e-17 1
765 3.1749 13.0932 1.5874 -6.01554e-08 0.00279901 2.47761e-17 1
310 4.76233 12.4477 0.793701 -6.33896e-08 0.0038525 9.43076e-17 1
346 3.96862 13.9668 -4.19957e-16 -6.45807e-08 0.00336722 5.96072e-17 1
347 3.96862 13.1731 0.793701 -6.45807e-08 0.00336722 6.27096e-17 1
349 4.76233 13.2414 -4.2617e-16 -6.33896e-08 0.0038525 7.72157e-17 1
352 4.76233 14.0351 0.793701 -6.33896e-08 0.0038525 5.98354e-17 1
766 3.96862 13.9668 1.5874 -6.45807e-08 0.00336722 3.52935e-17 1
769 4.76233 13.2414 1.5874 -6.33896e-08 0.0038525 3.69704e-17 1
314 6.34969 12.5428 0.793701 -3.92061e-08 0.00452884 6.03024e-17 1
728 5.55602 12.5026 1.5874 -5.66797e-08 0.00424291 4.6717e-17 1
351 5.55602 13.2963 0.793701 -5.66797e-08 0.00424291 6.91426e-17 1
356 6.34969 14.1302 0.793701 -3.92061e-08 0.00452884 4.587e-17 1
770 5.55602 14.09 1.5874 -5.66797e-08 0.00424291 2.46604e-17 1
773 6.34969 13.3365 1.5874 -3.92061e-08 0.00452884 1.3653e-17 1