ITEM: TIMESTEP
29000
ITEM: NUMBER OF ATOMS
8000
ITEM: BOX BOUNDS pp pp pp
0.0000000000000000e+00 3.1748021039364001e+01
0.0000000000000000e+00 1.5874010519682001e+01
0.0000000000000000e+00 1.5874010519682001e+01
ITEM: ATOMS id x y z vx vy vz c_rho_peratom
2 0.793722 0.929425 -4.4365e-16 -8.93568e-09 0.000504099 -1.89602e-17 1
3 0.793722 0.135724 0.793701 -8.93568e-09 0.000504099 1.29429e-17 1
4 1.51236e-16 0.793701 0.793701 1.34389e-16 -1.08718e-16 4.83957e-18 1
5 1.58748 0.268054 -6.67203e-16 -1.70494e-08 0.000995822 -4.58439e-18 1
8 1.58748 1.06175 0.793701 -1.70494e-08 0.000995822 7.56929e-19 1
43 1.58345e-16 1.5874 8.32801e-17 1.10903e-16 -1.19197e-16 -2.62434e-17 1
45 0.793722 1.72313 0.793701 -8.93568e-09 0.000504099 7.69938e-18 1
422 0.793722 0.929425 1.5874 -8.93568e-09 0.000504099 -1.37401e-18 1
425 1.58748 0.268054 1.5874 -1.70494e-08 0.000995822 8.95373e-19 1
463 -2.46418e-17 1.5874 1.5874 1.32623e-16 -1.10111e-16 -4.07566e-18 1
6 2.38124 1.18744 -8.78809e-16 -2.42869e-08 0.00146305 -1.06168e-19 1
7 2.38124 0.393735 0.793701 -2.42869e-08 0.00146305 5.80965e-18 1
9 3.17501 0.509683 -7.75798e-16 -2.99807e-08 0.00189424 2.93211e-17 1
12 3.17501 1.30338 0.793701 -2.99807e-08 0.00189424 1.48751e-17 1
426 2.38124 1.18744 1.5874 -2.42869e-08 0.00146305 1.43745e-17 1
429 3.17501 0.509683 1.5874 -2.99807e-08 0.00189424 5.24829e-18 1
10 3.96876 1.40675 -7.7257e-16 -3.32786e-08 0.00227877 3.4044e-17 1
11 3.96876 0.613054 0.793701 -3.32786e-08 0.00227877 2.00072e-17 1
16 4.76248 1.49502 0.793701 -3.38836e-08 0.00260717 -8.69707e-18 1
430 3.96876 1.40675 1.5874 -3.32786e-08 0.00227877 -6.71779e-18 1
433 4.76248 0.701316 1.5874 -3.38836e-08 0.00260717 -5.08581e-18 1
15 5.55615 0.772308 0.793701 -3.14609e-08 0.00287135 -1.7047e-17 1
20 6.3498 1.61799 0.793701 -2.20285e-08 0.00306482 -9.31147e-18 1
434 5.55615 1.56601 1.5874 -3.14609e-08 0.00287135 -1.82466e-17 1
437 6.3498 0.824293 1.5874 -2.20285e-08 0.00306482 -1.61999e-17 1
19 7.14341 0.856002 0.793701 5.78296e-10 0.00318283 2.06221e-17 1
23 8.7306 0.856002 0.793701 -5.78296e-10 0.00318283 2.72275e-17 1
24 7.93701 1.66036 0.793701 1.02769e-17 0.0032225 1.99287e-17 1
438 7.14341 1.6497 1.5874 5.78296e-10 0.00318283 -2.38518e-17 1
441 7.93701 0.866658 1.5874 1.2639e-17 0.0032225 -5.75289e-18 1
442 8.7306 1.6497 1.5874 -5.78296e-10 0.00318283 -1.2039e-17 1
27 10.3179 0.772308 0.793701 3.14609e-08 0.00287135 2.32111e-17 1
28 9.52421 1.61799 0.793701 2.20285e-08 0.00306482 1.68592e-18 1
445 9.52421 0.824293 1.5874 2.20285e-08 0.00306482 9.85202e-18 1
446 10.3179 1.56601 1.5874 3.14609e-08 0.00287135 -3.93887e-17 1
30 11.9053 1.40675 -2.05824e-16 3.32786e-08 0.00227877 3.58447e-17 1
31 11.9053 0.613054 0.793701 3.32786e-08 0.00227877 9.61302e-18 1
32 11.1115 1.49502 0.793701 3.38836e-08 0.00260717 -1.66189e-18 1
449 11.1115 0.701316 1.5874 3.38836e-08 0.00260717 -7.96805e-18 1
450 11.9053 1.40675 1.5874 3.32786e-08 0.00227877 -4.45959e-18 1
33 12.699 0.509683 1.77437e-16 2.99807e-08 0.00189424 5.07011e-17 1
34 13.4928 1.18744 1.70144e-17 2.42869e-08 0.00146305 5.24024e-17 1
35 13.4928 0.393735 0.793701 2.42869e-08 0.00146305 2.19362e-17 1
36 12.699 1.30338 0.793701 2.99807e-08 0.00189424 3.24833e-17 1
453 12.699 0.509683 1.5874 2.99807e-08 0.00189424 7.72022e-18 1
454 13.4928 1.18744 1.5874 2.42869e-08 0.00146305 1.45764e-17 1
37 14.2865 0.268054 6.85985e-17 1.70494e-08 0.000995822 3.75575e-17 1
38 15.0803 0.929425 1.51804e-16 8.93568e-09 0.000504099 4.24123e-17 1
39 15.0803 0.135724 0.793701 8.93568e-09 0.000504099 1.56133e-17 1
40 14.2865 1.06175 0.793701 1.70494e-08 0.000995822 2.45825e-17 1
41 15.874 -2.19076e-15 6.49736e-16 -9.34087e-17 -8.72416e-18 3.58363e-17 1
42 15.874 0.793701 0.793701 -6.85378e-17 1.04513e-17 3.45649e-17 1
81 15.0803 1.72313 0.793701 8.93568e-09 0.000504099 2.88873e-17 1
83 15.874 1.5874 3.06812e-16 -8.52927e-17 -2.47791e-17 5.21219e-17 1
457 14.2865 0.268054 1.5874 1.70494e-08 0.000995822 1.34723e-17 1
458 15.0803 0.929425 1.5874 8.93568e-09 0.000504099 1.3014e-17 1
461 15.874 -2.14314e-15 1.5874 -7.80819e-17 1.98781e-17 2.03022e-17 1
503 15.874 1.5874 1.5874 -3.85393e-17 -2.01861e-17 2.8039e-17 1
47 1.58748 1.85545 -7.34816e-16 -1.70494e-08 0.000995822 -6.67101e-18 1
467 1.58748 1.85545 1.5874 -1.70494e-08 0.000995822 5.25651e-18 1
44 0.793722 2.51683 -3.7153e-16 -8.93568e-09 0.000504099 3.52142e-19 1
46 -5.55493e-17 2.3811 0.793701 1.25631e-16 -9.91109e-17 4.08157e-18 1
50 1.58748 2.64916 0.793701 -1.70494e-08 0.000995822 -3.3089e-19 1
85 5.11217e-17 3.1748 2.37932e-16 1.07938e-16 -7.52115e-17 -1.84899e-17 1
87 0.793722 3.31053 0.793701 -8.93568e-09 0.000504099 -1.92047e-19 1
89 1.58748 3.44286 -6.83578e-16 -1.70494e-08 0.000995822 1.1358e-17 1
464 0.793722 2.51683 1.5874 -8.93568e-09 0.000504099 -9.30561e-18 1
505 -2.99844e-16 3.1748 1.5874 1.25392e-16 -9.71009e-17 -1.10343e-17 1
509 1.58748 3.44286 1.5874 -1.70494e-08 0.000995822 -2.09586e-17 1
49 2.38124 1.98114 0.793701 -2.42869e-08 0.00146305 1.13175e-18 1
51 3.17501 2.09708 -7.86303e-16 -2.99807e-08 0.00189424 2.14768e-17 1
471 3.17501 2.09708 1.5874 -2.99807e-08 0.00189424 1.48916e-18 1
48 2.38124 2.77484 -8.00066e-16 -2.42869e-08 0.00146305 1.04559e-17 1
54 3.17501 2.89078 0.793701 -2.99807e-08 0.00189424 1.53243e-19 1
91 2.38124 3.56854 0.793701 -2.42869e-08 0.00146305 -6.07655e-18 1
468 2.38124 2.77484 1.5874 -2.42869e-08 0.00146305 -6.42908e-18 1
53 3.96876 2.20045 0.793701 -3.32786e-08 0.00227877 1.6307e-17 1
475 4.76248 2.28872 1.5874 -3.38836e-08 0.00260717 2.17821e-18 1
52 3.96876 2.99416 -7.91416e-16 -3.32786e-08 0.00227877 2.89689e-17 1
58 4.76248 3.08242 0.793701 -3.38836e-08 0.00260717 3.8877e-17 1
472 3.96876 2.99416 1.5874 -3.32786e-08 0.00227877 -2.63328e-18 1
57 5.55615 2.35971 0.793701 -3.14609e-08 0.00287135 1.69472e-17 1
479 6.3498 2.41169 1.5874 -2.20285e-08 0.00306482 -1.02978e-17 1
62 6.3498 3.20539 0.793701 -2.20285e-08 0.00306482 3.51156e-17 1
476 5.55615 3.15341 1.5874 -3.14609e-08 0.00287135 1.00476e-17 1
61 7.14341 2.4434 0.793701 5.78296e-10 0.00318283 1.56786e-17 1
65 8.7306 2.4434 0.793701 -5.78296e-10 0.00318283 8.21833e-18 1
483 7.93701 2.45406 1.5874 3.01783e-17 0.0032225 -2.09089e-17 1
66 7.93701 3.24776 0.793701 5.39816e-17 0.0032225 1.95807e-17 1
480 7.14341 3.2371 1.5874 5.78296e-10 0.00318283 -3.38115e-17 1
484 8.7306 3.2371 1.5874 -5.78296e-10 0.00318283 -1.93827e-17 1
69 10.3179 2.35971 0.793701 3.14609e-08 0.00287135 -8.47754e-18 1
487 9.52421 2.41169 1.5874 2.20285e-08 0.00306482 -3.35181e-17 1
70 9.52421 3.20539 0.793701 2.20285e-08 0.00306482 1.11037e-17 1
488 10.3179 3.15341 1.5874 3.14609e-08 0.00287135 -2.26407e-17 1
73 11.9053 2.20045 0.793701 3.32786e-08 0.00227877 1.54452e-17 1
491 11.1115 2.28872 1.5874 3.38836e-08 0.00260717 -3.52017e-17 1
72 11.9053 2.99416 -2.38763e-16 3.32786e-08 0.00227877 3.18064e-17 1
74 11.1115 3.08242 0.793701 3.38836e-08 0.00260717 1.18393e-17 1
492 11.9053 2.99416 1.5874 3.32786e-08 0.00227877 1.42471e-17 1
77 13.4928 1.98114 0.793701 2.42869e-08 0.00146305 4.33397e-17 1
75 12.699 2.09708 -2.44602e-17 2.99807e-08 0.00189424 5.07174e-17 1
495 12.699 2.09708 1.5874 2.99807e-08 0.00189424 2.14863e-17 1
76 13.4928 2.77484 -4.24751e-17 2.42869e-08 0.00146305 4.33081e-17 1
78 12.699 2.89078 0.793701 2.99807e-08 0.00189424 4.38353e-17 1
119 13.4928 3.56854 0.793701 2.42869e-08 0.00146305 3.76369e-17 1
496 13.4928 2.77484 1.5874 2.42869e-08 0.00146305 2.43712e-17 1
79 14.2865 1.85545 -4.51788e-17 1.70494e-08 0.000995822 3.59084e-17 1
499 14.2865 1.85545 1.5874 1.70494e-08 0.000995822 8.22419e-18 1
80 15.0803 2.51683 1.10043e-16 8.93568e-09 0.000504099 2.18034e-17 1
82 14.2865 2.64916 0.793701 1.70494e-08 0.000995822 3.12535e-17 1
84 15.874 2.3811 0.793701 -6.68123e-17 -7.90369e-17 5.85892e-17 1
121 14.2865 3.44286 -9.01044e-17 1.70494e-08 0.000995822 1.52848e-17 1
123 15.0803 3.31053 0.793701 8.93568e-09 0.000504099 3.80822e-17 1
125 15.874 3.1748 2.38493e-16 -8.48979e-17 -7.58632e-17 3.75176e-18 1
500 15.0803 2.51683 1.5874 8.93568e-09 0.000504099 1.64416e-17 1
541 14.2865 3.44286 1.5874 1.70494e-08 0.000995822 2.11669e-17 1
545 15.874 3.1748 1.5874 -5.61405e-17 -1.11227e-16 3.92248e-17 1
86 0.793722 4.10423 -4.66181e-16 -8.93568e-09 0.000504099 -3.34994e-18 1
88 -2.30474e-16 3.9685 0.793701 1.21902e-16 -6.21374e-17 -2.77302e-17 1
92 1.58748 4.23656 0.793701 -1.70494e-08 0.000995822 -5.7097e-18 1
127 -8.80237e-18 4.7622 2.28717e-16 8.93072e-17 -3.11709e-17 -4.98229e-17 1
129 0.793722 4.89793 0.793701 -8.93568e-09 0.000504099 -3.6137e-17 1
131 1.58748 5.03026 -6.81952e-16 -1.70494e-08 0.000995822 7.0291e-18 1
506 0.793722 4.10423 1.5874 -8.93568e-09 0.000504099 -2.71692e-17 1
547 -3.17596e-16 4.7622 1.5874 1.22778e-16 -8.2148e-17 -3.64524e-17 1
551 1.58748 5.03026 1.5874 -1.70494e-08 0.000995822 -3.85178e-17 1
93 3.17501 3.68448 -7.46833e-16 -2.99807e-08 0.00189424 3.01405e-17 1
513 3.17501 3.68448 1.5874 -2.99807e-08 0.00189424 -2.81944e-17 1
90 2.38124 4.36224 -8.01937e-16 -2.42869e-08 0.00146305 2.63228e-17 1
96 3.17501 4.47819 0.793701 -2.99807e-08 0.00189424 -7.44926e-18 1
133 2.38124 5.15594 0.793701 -2.42869e-08 0.00146305 -1.07087e-17 1
135 3.17501 5.27189 -8.253e-16 -2.99807e-08 0.00189424 2.67927e-17 1
510 2.38124 4.36224 1.5874 -2.42869e-08 0.00146305 -3.6742e-17 1
555 3.17501 5.27189 1.5874 -2.99807e-08 0.00189424 -3.61937e-17 1
95 3.96876 3.78786 0.793701 -3.32786e-08 0.00227877 6.38649e-18 1
517 4.76248 3.87612 1.5874 -3.38836e-08 0.00260717 -1.575e-18 1
94 3.96876 4.58156 -7.63166e-16 -3.32786e-08 0.00227877 3.00577e-17 1
100 4.76248 4.66982 0.793701 -3.38836e-08 0.00260717 5.32126e-18 1
514 3.96876 4.58156 1.5874 -3.32786e-08 0.00227877 -2.1918e-17 1
99 5.55615 3.94711 0.793701 -3.14609e-08 0.00287135 2.81096e-17 1
521 6.3498 3.9991 1.5874 -2.20285e-08 0.00306482 -5.52486e-17 1
104 6.3498 4.7928 0.793701 -2.20285e-08 0.00306482 -1.713e-17 1
518 5.55615 4.74081 1.5874 -3.14609e-08 0.00287135 -5.34375e-17 1
103 7.14341 4.0308 0.793701 5.78297e-10 0.00318283 5.83771e-18 1
107 8.7306 4.0308 0.793701 -5.78296e-10 0.00318283 2.31352e-17 1
525 7.93701 4.04146 1.5874 8.96313e-17 0.0032225 -5.10108e-17 1
108 7.93701 4.83516 0.793701 5.56129e-17 0.0032225 5.68668e-18 1
522 7.14341 4.8245 1.5874 5.78297e-10 0.00318283 -8.16574e-17 1
526 8.7306 4.8245 1.5874 -5.78296e-10 0.00318283 -2.09932e-17 1
111 10.3179 3.94711 0.793701 3.14609e-08 0.00287135 2.83846e-17 1
529 9.52421 3.9991 1.5874 2.20285e-08 0.00306482 -3.15152e-18 1
112 9.52421 4.7928 0.793701 2.20285e-08 0.00306482 2.63386e-17 1
530 10.3179 4.74081 1.5874 3.14609e-08 0.00287135 1.58824e-17 1
115 11.9053 3.78786 0.793701 3.32786e-08 0.00227877 3.79858e-17 1
533 11.1115 3.87612 1.5874 3.38836e-08 0.00260717 1.4839e-17 1
116 11.1115 4.66982 0.793701 3.38836e-08 0.00260717 4.68168e-17 1
534 11.9053 4.58156 1.5874 3.32786e-08 0.00227877 3.46256e-17 1
537 12.699 3.68448 1.5874 2.99807e-08 0.00189424 2.96453e-17 1
118 13.4928 4.36224 -9.72721e-17 2.42869e-08 0.00146305 2.58226e-17 1
120 12.699 4.47819 0.793701 2.99807e-08 0.00189424 3.98428e-17 1
161 13.4928 5.15594 0.793701 2.42869e-08 0.00146305 2.40018e-17 1
538 13.4928 4.36224 1.5874 2.42869e-08 0.00146305 2.57839e-17 1
579 12.699 5.27189 1.5874 2.99807e-08 0.00189424 2.98674e-17 1
122 15.0803 4.10423 -1.10095e-16 8.93568e-09 0.000504099 -1.67137e-17 1
124 14.2865 4.23656 0.793701 1.70494e-08 0.000995822 2.21105e-17 1
126 15.874 3.9685 0.793701 -7.44677e-17 -4.20808e-17 3.09096e-17 1
163 14.2865 5.03026 -2.08728e-16 1.70494e-08 0.000995822 5.08479e-18 1
165 15.0803 4.89793 0.793701 8.93568e-09 0.000504099 8.86822e-18 1
167 15.874 4.7622 1.20232e-16 -9.61256e-17 -1.37404e-17 -1.16369e-17 1
542 15.0803 4.10423 1.5874 8.93568e-09 0.000504099 2.30862e-17 1
583 14.2865 5.03026 1.5874 1.70494e-08 0.000995822 1.77218e-17 1
587 15.874 4.7622 1.5874 -8.77518e-17 -2.31544e-17 1.14543e-17 1
128 0.793722 5.69163 -4.50804e-16 -8.93568e-09 0.000504099 -3.09425e-17 1
130 -1.78251e-16 5.5559 0.793701 1.17648e-16 -6.95558e-17 -8.11208e-17 1
134 1.58748 5.82396 0.793701 -1.70494e-08 0.000995822 -2.408e-17 1
169 1.00002e-16 6.3496 3.16605e-16 9.61922e-17 -8.30268e-17 -7.82856e-17 1
171 0.793722 6.48533 0.793701 -8.93568e-09 0.000504099 -4.65128e-17 1
173 1.58748 6.61766 -5.23051e-16 -1.70494e-08 0.000995822 -4.64283e-18 1
548 0.793722 5.69163 1.5874 -8.93568e-09 0.000504099 -3.8746e-17 1
589 1.03213e-16 6.3496 1.5874 1.35646e-16 -5.43321e-17 -1.95848e-17 1
593 1.58748 6.61766 1.5874 -1.70494e-08 0.000995822 -4.07961e-17 1
132 2.38124 5.94964 -8.25725e-16 -2.42869e-08 0.00146305 1.45572e-17 1
138 3.17501 6.06559 0.793701 -2.99807e-08 0.00189424 -4.29023e-18 1
175 2.38124 6.74334 0.793701 -2.42869e-08 0.00146305 -9.91324e-18 1
177 3.17501 6.85929 -9.14545e-16 -2.99807e-08 0.00189424 2.26227e-17 1
552 2.38124 5.94964 1.5874 -2.42869e-08 0.00146305 -3.99811e-17 1
597 3.17501 6.85929 1.5874 -2.99807e-08 0.00189424 -2.58779e-17 1
137 3.96876 5.37526 0.793701 -3.32786e-08 0.00227877 -3.47171e-18 1
559 4.76248 5.46352 1.5874 -3.38836e-08 0.00260717 -2.54337e-17 1
136 3.96876 6.16896 -8.81863e-16 -3.32786e-08 0.00227877 2.47379e-17 1
142 4.76248 6.25722 0.793701 -3.38836e-08 0.00260717 -2.71942e-18 1
179 3.96876 6.96266 0.793701 -3.32786e-08 0.00227877 -8.50229e-19 1
181 4.76248 7.05092 -6.7395e-16 -3.38836e-08 0.00260717 2.43967e-17 1
556 3.96876 6.16896 1.5874 -3.32786e-08 0.00227877 -2.18681e-17 1
601 4.76248 7.05092 1.5874 -3.38836e-08 0.00260717 -3.47683e-17 1
141 5.55615 5.53451 0.793701 -3.14609e-08 0.00287135 -1.08352e-17 1
563 6.3498 5.5865 1.5874 -2.20285e-08 0.00306482 -7.83285e-17 1
146 6.3498 6.3802 0.793701 -2.20285e-08 0.00306482 -1.05325e-17 1
183 5.55615 7.12191 0.793701 -3.14609e-08 0.00287135 -1.27379e-17 1
560 5.55615 6.32821 1.5874 -3.14609e-08 0.00287135 -4.59328e-17 1
145 7.14341 5.61821 0.793701 5.78297e-10 0.00318283 -1.07727e-17 1
149 8.7306 5.61821 0.793701 -5.78296e-10 0.00318283 1.51355e-17 1
567 7.93701 5.62886 1.5874 5.48358e-17 0.0032225 -3.7481e-17 1
150 7.93701 6.42256 0.793701 1.74975e-17 0.0032225 8.57927e-18 1
564 7.14341 6.41191 1.5874 5.78297e-10 0.00318283 -4.65325e-17 1
568 8.7306 6.41191 1.5874 -5.78296e-10 0.00318283 -7.41668e-18 1
153 10.3179 5.53451 0.793701 3.14609e-08 0.00287135 3.72509e-17 1
571 9.52421 5.5865 1.5874 2.20285e-08 0.00306482 3.36979e-18 1
154 9.52421 6.3802 0.793701 2.20285e-08 0.00306482 2.32293e-17 1
195 10.3179 7.12191 0.793701 3.14609e-08 0.00287135 2.89285e-17 1
572 10.3179 6.32821 1.5874 3.14609e-08 0.00287135 1.65401e-17 1
157 11.9053 5.37526 0.793701 3.32786e-08 0.00227877 5.21367e-17 1
575 11.1115 5.46352 1.5874 3.38836e-08 0.00260717 3.36418e-17 1
156 11.9053 6.16896 -4.75542e-16 3.32786e-08 0.00227877 3.78141e-17 1
158 11.1115 6.25722 0.793701 3.38836e-08 0.00260717 4.42614e-17 1
199 11.9053 6.96266 0.793701 3.32786e-08 0.00227877 4.24714e-17 1
576 11.9053 6.16896 1.5874 3.32786e-08 0.00227877 3.10388e-17 1
617 11.1115 7.05092 1.5874 3.38836e-08 0.00260717 3.15426e-17 1
160 13.4928 5.94964 -3.68375e-16 2.42869e-08 0.00146305 1.7154e-17 1
162 12.699 6.06559 0.793701 2.99807e-08 0.00189424 3.21265e-17 1
201 12.699 6.85929 -5.14362e-16 2.99807e-08 0.00189424 2.32954e-17 1
203 13.4928 6.74334 0.793701 2.42869e-08 0.00146305 1.10124e-17 1
580 13.4928 5.94964 1.5874 2.42869e-08 0.00146305 1.45532e-17 1
621 12.699 6.85929 1.5874 2.99807e-08 0.00189424 1.40978e-17 1
164 15.0803 5.69163 -1.77703e-16 8.93568e-09 0.000504099 -2.89169e-18 1
166 14.2865 5.82396 0.793701 1.70494e-08 0.000995822 9.57726e-18 1
168 15.874 5.5559 0.793701 -1.04567e-16 -4.21888e-17 3.58752e-18 1
205 14.2865 6.61766 -3.82217e-16 1.70494e-08 0.000995822 2.2915e-18 1
207 15.0803 6.48533 0.793701 8.93568e-09 0.000504099 -8.49949e-18 1
209 15.874 6.3496 3.26086e-16 -1.35883e-16 -5.13219e-17 -3.954e-18 1
584 15.0803 5.69163 1.5874 8.93568e-09 0.000504099 5.15981e-18 1
625 14.2865 6.61766 1.5874 1.70494e-08 0.000995822 -3.88997e-18 1
629 15.874 6.3496 1.5874 -1.25769e-16 -7.23797e-17 -3.60038e-18 1
170 0.793722 7.27903 -2.26233e-16 -8.93568e-09 0.000504099 -3.4595e-17 1
172 2.45019e-16 7.1433 0.793701 1.27341e-16 -8.351e-17 -5.34373e-17 1
176 1.58748 7.41136 0.793701 -1.70494e-08 0.000995822 -2.41878e-17 1
211 4.08876e-16 7.93701 1.10045e-16 1.20697e-16 -8.65866e-17 -6.36604e-17 1
213 0.793722 8.07273 0.793701 -8.93568e-09 0.000504099 -3.1242e-17 1
214 6.8648e-16 8.73071 0.793701 1.4842e-16 -8.37356e-17 -3.51014e-17 1
215 1.58748 8.20506 -3.76754e-16 -1.70494e-08 0.000995822 -4.55758e-18 1
590 0.793722 7.27903 1.5874 -8.93568e-09 0.000504099 -2.21499e-17 1
631 4.0696e-16 7.93701 1.5874 1.3302e-16 -8.63279e-17 -1.76821e-17 1
635 1.58748 8.20506 1.5874 -1.70494e-08 0.000995822 -3.79008e-17 1
174 2.38124 7.53704 -6.66406e-16 -2.42869e-08 0.00146305 1.00989e-17 1
180 3.17501 7.65299 0.793701 -2.99807e-08 0.00189424 -3.22517e-19 1
217 2.38124 8.33074 0.793701 -2.42869e-08 0.00146305 -1.6949e-17 1
219 3.17501 8.44669 -6.13794e-16 -2.99807e-08 0.00189424 2.29702e-17 1
594 2.38124 7.53704 1.5874 -2.42869e-08 0.00146305 -2.95596e-17 1
639 3.17501 8.44669 1.5874 -2.99807e-08 0.00189424 -3.01861e-17 1
178 3.96876 7.75636 -7.20541e-16 -3.32786e-08 0.00227877 2.50472e-17 1
184 4.76248 7.84462 0.793701 -3.38836e-08 0.00260717 -1.73627e-17 1
221 3.96876 8.55006 0.793701 -3.32786e-08 0.00227877 -1.22121e-17 1
598 3.96876 7.75636 1.5874 -3.32786e-08 0.00227877 -3.57011e-17 1
643 4.76248 8.63832 1.5874 -3.38836e-08 0.00260717 -9.03491e-17 1
605 6.3498 7.1739 1.5874 -2.20285e-08 0.00306482 -6.92362e-17 1
188 6.3498 7.9676 0.793701 -2.20285e-08 0.00306482 -2.40327e-17 1
225 5.55615 8.70931 0.793701 -3.14609e-08 0.00287135 -3.89447e-17 1
602 5.55615 7.91561 1.5874 -3.14609e-08 0.00287135 -9.94758e-17 1
647 6.3498 8.7613 1.5874 -2.20285e-08 0.00306482 -1.20213e-16 1
187 7.14341 7.20561 0.793701 5.78296e-10 0.00318283 -2.2881e-18 1
191 8.7306 7.20561 0.793701 -5.78296e-10 0.00318283 1.92597e-17 1
609 7.93701 7.21626 1.5874 2.48809e-17 0.0032225 -2.30236e-17 1
192 7.93701 8.00996 0.793701 9.58313e-19 0.0032225 9.62064e-18 1
229 7.14341 8.79301 0.793701 5.78296e-10 0.00318283 -5.96305e-18 1
233 8.7306 8.79301 0.793701 -5.78296e-10 0.00318283 2.4397e-17 1
606 7.14341 7.99931 1.5874 5.78297e-10 0.00318283 -6.10023e-17 1
610 8.7306 7.99931 1.5874 -5.78296e-10 0.00318283 6.01775e-20 1
651 7.93701 8.80366 1.5874 1.78895e-17 0.0032225 -2.50561e-17 1
613 9.52421 7.1739 1.5874 2.20285e-08 0.00306482 1.33525e-17 1
196 9.52421 7.9676 0.793701 2.20285e-08 0.00306482 3.07177e-17 1
237 10.3179 8.70931 0.793701 3.14609e-08 0.00287135 6.08322e-17 1
614 10.3179 7.91561 1.5874 3.14609e-08 0.00287135 5.45736e-17 1
655 9.52421 8.7613 1.5874 2.20285e-08 0.00306482 3.9719e-17 1
200 11.1115 7.84462 0.793701 3.38836e-08 0.00260717 4.91333e-17 1
241 11.9053 8.55006 0.793701 3.32786e-08 0.00227877 4.38055e-17 1
618 11.9053 7.75636 1.5874 3.32786e-08 0.00227877 2.77817e-17 1
659 11.1115 8.63832 1.5874 3.38836e-08 0.00260717 5.61416e-17 1
202 13.4928 7.53704 -5.2456e-16 2.42869e-08 0.00146305 1.06391e-17 1
204 12.699 7.65299 0.793701 2.99807e-08 0.00189424 2.60109e-17 1
243 12.699 8.44669 -5.64606e-16 2.99807e-08 0.00189424 2.91321e-17 1
245 13.4928 8.33074 0.793701 2.42869e-08 0.00146305 -7.34131e-20 1
622 13.4928 7.53704 1.5874 2.42869e-08 0.00146305 -3.42469e-18 1
663 12.699 8.44669 1.5874 2.99807e-08 0.00189424 7.4067e-18 1
206 15.0803 7.27903 -1.28061e-16 8.93568e-09 0.000504099 -8.15289e-18 1
208 14.2865 7.41136 0.793701 1.70494e-08 0.000995822 -1.64607e-17 1
210 15.874 7.1433 0.793701 -1.59528e-16 -6.91814e-17 -1.49336e-17 1
247 14.2865 8.20506 -5.48756e-16 1.70494e-08 0.000995822 1.84718e-18 1
249 15.0803 8.07273 0.793701 8.93568e-09 0.000504099 -3.17599e-17 1
251 15.874 7.93701 5.14222e-16 -1.77898e-16 -8.06772e-17 -1.29005e-17 1
252 15.874 8.73071 0.793701 -1.52209e-16 -8.10735e-17 -1.43555e-17 1
626 15.0803 7.27903 1.5874 8.93568e-09 0.000504099 -2.28749e-17 1
667 14.2865 8.20506 1.5874 1.70494e-08 0.000995822 -2.46957e-17 1
671 15.874 7.93701 1.5874 -1.52992e-16 -7.84201e-17 -1.44564e-17 1
212 0.793722 8.86643 -3.56305e-16 -8.93568e-09 0.000504099 -2.50018e-17 1
632 0.793722 8.86643 1.5874 -8.93568e-09 0.000504099 -4.0111e-17 1
218 1.58748 8.99876 0.793701 -1.70494e-08 0.000995822 -2.70901e-17 1
253 9.03423e-16 9.52441 -6.15392e-17 1.57498e-16 -1.07148e-16 -3.63329e-17 1
254 0.793722 10.4538 -2.36946e-16 -8.93568e-09 0.000504099 1.51791e-17 1
255 0.793722 9.66013 0.793701 -8.93568e-09 0.000504099 -1.92684e-17 1
256 1.10357e-15 10.3181 0.793701 1.79244e-16 -6.95445e-17 -1.34198e-17 1
257 1.58748 9.79246 -2.98794e-16 -1.70494e-08 0.000995822 1.17989e-17 1
260 1.58748 10.5862 0.793701 -1.70494e-08 0.000995822 -2.84136e-18 1
673 1.11377e-15 9.52441 1.5874 1.71132e-16 -7.46717e-17 -3.55403e-17 1
674 0.793722 10.4538 1.5874 -8.93568e-09 0.000504099 -2.87513e-17 1
677 1.58748 9.79246 1.5874 -1.70494e-08 0.000995822 -3.76321e-17 1
216 2.38124 9.12444 -3.61845e-16 -2.42869e-08 0.00146305 1.63113e-17 1
222 3.17501 9.24039 0.793701 -2.99807e-08 0.00189424 -1.28794e-17 1
636 2.38124 9.12444 1.5874 -2.42869e-08 0.00146305 -3.73966e-17 1
259 2.38124 9.91814 0.793701 -2.42869e-08 0.00146305 -1.48466e-17 1
261 3.17501 10.0341 -5.32756e-16 -2.99807e-08 0.00189424 4.26123e-17 1
681 3.17501 10.0341 1.5874 -2.99807e-08 0.00189424 -4.7256e-17 1
220 3.96876 9.34376 -4.96374e-16 -3.32786e-08 0.00227877 3.58186e-17 1
226 4.76248 9.43202 0.793701 -3.38836e-08 0.00260717 -2.58874e-17 1
640 3.96876 9.34376 1.5874 -3.32786e-08 0.00227877 -5.63217e-17 1
263 3.96876 10.1375 0.793701 -3.32786e-08 0.00227877 -9.83967e-18 1
685 4.76248 10.2257 1.5874 -3.38836e-08 0.00260717 -1.11401e-16 1
230 6.3498 9.555 0.793701 -2.20285e-08 0.00306482 -2.83254e-17 1
644 5.55615 9.50301 1.5874 -3.14609e-08 0.00287135 -1.45905e-16 1
267 5.55615 10.2967 0.793701 -3.14609e-08 0.00287135 -4.09947e-17 1
689 6.3498 10.3487 1.5874 -2.20285e-08 0.00306482 -1.40074e-16 1
234 7.93701 9.59736 0.793701 -1.19986e-17 0.0032225 1.3176e-17 1
648 7.14341 9.58671 1.5874 5.78297e-10 0.00318283 -6.60008e-17 1
652 8.7306 9.58671 1.5874 -5.78296e-10 0.00318283 3.34277e-18 1
271 7.14341 10.3804 0.793701 5.78296e-10 0.00318283 -1.06177e-17 1
275 8.7306 10.3804 0.793701 -5.78296e-10 0.00318283 2.87547e-17 1
693 7.93701 10.3911 1.5874 1.64427e-17 0.0032225 -2.64488e-17 1
238 9.52421 9.555 0.793701 2.20285e-08 0.00306482 4.93154e-17 1
656 10.3179 9.50301 1.5874 3.14609e-08 0.00287135 6.43946e-17 1
279 10.3179 10.2967 0.793701 3.14609e-08 0.00287135 5.82836e-17 1
697 9.52421 10.3487 1.5874 2.20285e-08 0.00306482 2.98006e-17 1
240 11.9053 9.34376 -5.46733e-16 3.32786e-08 0.00227877 3.8078e-17 1
242 11.1115 9.43202 0.793701 3.38836e-08 0.00260717 5.69523e-17 1
660 11.9053 9.34376 1.5874 3.32786e-08 0.00227877 1.94246e-17 1
283 11.9053 10.1375 0.793701 3.32786e-08 0.00227877 3.06299e-17 1
701 11.1115 10.2257 1.5874 3.38836e-08 0.00260717 3.63438e-17 1
244 13.4928 9.12444 -8.46831e-16 2.42869e-08 0.00146305 1.41362e-17 1
246 12.699 9.24039 0.793701 2.99807e-08 0.00189424 1.7054e-17 1
664 13.4928 9.12444 1.5874 2.42869e-08 0.00146305 -2.4241e-18 1
285 12.699 10.0341 -8.18286e-16 2.99807e-08 0.00189424 2.53186e-17 1
287 13.4928 9.91814 0.793701 2.42869e-08 0.00146305 1.47055e-17 1
705 12.699 10.0341 1.5874 2.99807e-08 0.00189424 9.9032e-18 1
248 15.0803 8.86643 -4.29011e-17 8.93568e-09 0.000504099 1.59622e-18 1
668 15.0803 8.86643 1.5874 8.93568e-09 0.000504099 -2.04491e-17 1
250 14.2865 8.99876 0.793701 1.70494e-08 0.000995822 -1.32599e-17 1
289 14.2865 9.79246 -4.86779e-16 1.70494e-08 0.000995822 1.59578e-17 1
290 15.0803 10.4538 5.85051e-17 8.93568e-09 0.000504099 2.00289e-17 1
291 15.0803 9.66013 0.793701 8.93568e-09 0.000504099 -2.32569e-18 1
292 14.2865 10.5862 0.793701 1.70494e-08 0.000995822 2.42195e-17 1
293 15.874 9.52441 5.48654e-16 -1.13581e-16 -9.3808e-17 8.94753e-18 1
294 15.874 10.3181 0.793701 -7.02668e-17 -8.95128e-17 5.59239e-18 1
709 14.2865 9.79246 1.5874 1.70494e-08 0.000995822 2.20372e-18 1
710 15.0803 10.4538 1.5874 8.93568e-09 0.000504099 1.2096e-17 1
713 15.874 9.52441 1.5874 -1.12233e-16 -7.40575e-17 -8.72667e-18 1
295 8.497e-16 11.1118 -1.53977e-16 1.71306e-16 -8.24377e-17 1.98984e-17 1
296 0.793722 12.0412 -2.75572e-16 -8.93568e-09 0.000504099 3.69643e-17 1
297 0.793722 11.2475 0.793701 -8.93568e-09 0.000504099 9.89148e-18 1
298 8.43748e-16 11.9055 0.793701 1.73801e-16 -7.65132e-17 1.12995e-17 1
299 1.58748 11.3799 -2.28215e-16 -1.70494e-08 0.000995822 4.30719e-17 1
302 1.58748 12.1736 0.793701 -1.70494e-08 0.000995822 3.12899e-17 1
715 1.1235e-15 11.1118 1.5874 1.88298e-16 -5.62554e-17 -2.60643e-17 1
716 0.793722 12.0412 1.5874 -8.93568e-09 0.000504099 -1.13129e-17 1
719 1.58748 11.3799 1.5874 -1.70494e-08 0.000995822 -1.98257e-17 1
258 2.38124 10.7118 -3.11988e-16 -2.42869e-08 0.00146305 4.30552e-17 1
678 2.38124 10.7118 1.5874 -2.42869e-08 0.00146305 -3.73219e-17 1
264 3.17501 10.8278 0.793701 -2.99807e-08 0.00189424 2.01915e-18 1
300 2.38124 12.2992 -1.9179e-16 -2.42869e-08 0.00146305 6.2783e-17 1
301 2.38124 11.5055 0.793701 -2.42869e-08 0.00146305 1.85337e-17 1
303 3.17501 11.6215 -2.16108e-16 -2.99807e-08 0.00189424 7.28094e-17 1
720 2.38124 12.2992 1.5874 -2.42869e-08 0.00146305 -1.44467e-17 1
723 3.17501 11.6215 1.5874 -2.99807e-08 0.00189424 -3.63748e-17 1
262 3.96876 10.9312 -3.58351e-16 -3.32786e-08 0.00227877 6.08965e-17 1
268 4.76248 11.0194 0.793701 -3.38836e-08 0.00260717 -2.83262e-17 1
682 3.96876 10.9312 1.5874 -3.32786e-08 0.00227877 -6.61295e-17 1
305 3.96876 11.7249 0.793701 -3.32786e-08 0.00227877 -7.43846e-19 1
727 4.76248 11.8131 1.5874 -3.38836e-08 0.00260717 -1.02047e-16 1
272 6.3498 11.1424 0.793701 -2.20285e-08 0.00306482 -5.2181e-17 1
686 5.55615 11.0904 1.5874 -3.14609e-08 0.00287135 -1.65981e-16 1
309 5.55615 11.8841 0.793701 -3.14609e-08 0.00287135 -7.39558e-17 1
731 6.3498 11.9361 1.5874 -2.20285e-08 0.00306482 -1.31458e-16 1
276 7.93701 11.1848 0.793701 -5.18524e-18 0.0032225 1.18658e-17 1
690 7.14341 11.1741 1.5874 5.78297e-10 0.00318283 -8.06351e-17 1
694 8.7306 11.1741 1.5874 -5.78296e-10 0.00318283 2.76643e-18 1
313 7.14341 11.9678 0.793701 5.78297e-10 0.00318283 -3.80311e-17 1
317 8.7306 11.9678 0.793701 -5.78296e-10 0.00318283 3.43462e-17 1
735 7.93701 11.9785 1.5874 5.89549e-17 0.0032225 -1.86972e-17 1
280 9.52421 11.1424 0.793701 2.20285e-08 0.00306482 3.80352e-17 1
698 10.3179 11.0904 1.5874 3.14609e-08 0.00287135 3.07117e-17 1
321 10.3179 11.8841 0.793701 3.14609e-08 0.00287135 3.93397e-17 1
739 9.52421 11.9361 1.5874 2.20285e-08 0.00306482 1.55923e-17 1
282 11.9053 10.9312 -5.64314e-16 3.32786e-08 0.00227877 4.1071e-17 1
284 11.1115 11.0194 0.793701 3.38836e-08 0.00260717 4.02211e-17 1
702 11.9053 10.9312 1.5874 3.32786e-08 0.00227877 1.63104e-17 1
325 11.9053 11.7249 0.793701 3.32786e-08 0.00227877 3.61701e-17 1
743 11.1115 11.8131 1.5874 3.38836e-08 0.00260717 1.77693e-17 1
286 13.4928 10.7118 -7.39216e-16 2.42869e-08 0.00146305 3.05611e-17 1
706 13.4928 10.7118 1.5874 2.42869e-08 0.00146305 1.71801e-17 1
288 12.699 10.8278 0.793701 2.99807e-08 0.00189424 2.7585e-17 1
329 13.4928 11.5055 0.793701 2.42869e-08 0.00146305 3.65071e-17 1
747 12.699 11.6215 1.5874 2.99807e-08 0.00189424 2.03169e-17 1
748 13.4928 12.2992 1.5874 2.42869e-08 0.00146305 2.96753e-17 1
331 14.2865 11.3799 -2.21327e-16 1.70494e-08 0.000995822 3.17514e-17 1
332 15.0803 12.0412 1.68248e-16 8.93568e-09 0.000504099 3.31003e-17 1
333 15.0803 11.2475 0.793701 8.93568e-09 0.000504099 2.49385e-17 1
334 14.2865 12.1736 0.793701 1.70494e-08 0.000995822 3.77537e-17 1
335 15.874 11.1118 4.5455e-16 -3.98256e-17 -1.05906e-16 2.34529e-17 1
336 15.874 11.9055 0.793701 -4.90678e-17 -1.30977e-16 1.15252e-17 1
751 14.2865 11.3799 1.5874 1.70494e-08 0.000995822 2.73173e-17 1
752 15.0803 12.0412 1.5874 8.93568e-09 0.000504099 1.94895e-17 1
755 15.874 11.1118 1.5874 -7.01967e-17 -9.95342e-17 -1.71186e-18 1
337 6.30423e-16 12.6992 3.99051e-17 1.52412e-16 -7.11865e-17 4.55341e-18 1
338 0.793722 13.6286 -3.36964e-16 -8.93568e-09 0.000504099 8.4479e-18 1
339 0.793722 12.8349 0.793701 -8.93568e-09 0.000504099 2.87234e-17 1
340 2.43331e-16 13.4929 0.793701 1.58899e-16 -9.95316e-17 1.11961e-17 1
341 1.58748 12.9673 -3.42734e-16 -1.70494e-08 0.000995822 4.02171e-17 1
344 1.58748 13.761 0.793701 -1.70494e-08 0.000995822 2.93453e-17 1
757 6.93285e-16 12.6992 1.5874 1.76671e-16 -8.21519e-17 -9.54357e-18 1
758 0.793722 13.6286 1.5874 -8.93568e-09 0.000504099 2.08817e-18 1
761 1.58748 12.9673 1.5874 -1.70494e-08 0.000995822 -1.22369e-18 1
306 3.17501 12.4152 0.793701 -2.99807e-08 0.00189424 3.04257e-17 1
342 2.38124 13.8866 -5.98017e-16 -2.42869e-08 0.00146305 4.12593e-17 1
343 2.38124 13.0929 0.793701 -2.42869e-08 0.00146305 3.8266e-17 1
345 3.17501 13.2089 -4.32106e-16 -2.99807e-08 0.00189424 6.66877e-17 1
348 3.17501 14.0026 0.793701 -2.99807e-08 0.00189424 3.52829e-17 1
762 2.38124 13.8866 1.5874 -2.42869e-08 0.00146305 -1.1984e-18 1
765 3.17501 13.2089 1.5874 -2.99807e-08 0.00189424 -9.56845e-18 1
724 3.96876 12.5186 1.5874 -3.32786e-08 0.00227877 -3.76958e-17 1
310 4.76248 12.6068 0.793701 -3.38836e-08 0.00260717 -4.35312e-17 1
346 3.96876 14.106 -5.66851e-16 -3.32786e-08 0.00227877 4.57801e-17 1
347 3.96876 13.3123 0.793701 -3.32786e-08 0.00227877 1.56062e-17 1
349 4.76248 13.4005 -4.12593e-16 -3.38836e-08 0.00260717 8.43104e-18 1
352 4.76248 14.1942 0.793701 -3.38836e-08 0.00260717 -2.41133e-17 1
766 3.96876 14.106 1.5874 -3.32786e-08 0.00227877 -5.07192e-18 1
769 4.76248 13.4005 1.5874 -3.38836e-08 0.00260717 -3.68365e-17 1
314 6.3498 12.7298 0.793701 -2.20285e-08 0.00306482 -8.6164e-17 1
728 5.55615 12.6778 1.5874 -3.14609e-08 0.00287135 -9.82296e-17 1
351 5.55615 13.4715 0.793701 -3.14609e-08 0.00287135 -7.46416e-17 1
773 6.3498 13.5235 1.5874 -2.20285e-08 0.00306482 -3.93421e-17 1
318 7.93701 12.7722 0.793701 5.80539e-17 0.0032225 8.95213e-18 1
732 7.14341 12.7615 1.5874 5.78297e-10 0.00318283 -3.85616e-17 1
736 8.7306 12.7615 1.5874 -5.78296e-10 0.00318283 1.35053e-17 1
355 7.14341 13.5552 0.793701 5.78297e-10 0.00318283 -1.81993e-17 1
359 8.7306 13.5552 0.793701 -5.78296e-10 0.00318283 7.12899e-17 1