ITEM: TIMESTEP
12000
ITEM: NUMBER OF ATOMS
8000
ITEM: BOX BOUNDS pp pp pp
0.0000000000000000e+00 3.1748021039364001e+01
0.0000000000000000e+00 1.5874010519682001e+01
0.0000000000000000e+00 1.5874010519682001e+01
ITEM: ATOMS id x y z vx vy vz c_rho_peratom
2 0.793704 0.868628 -4.29084e-17 -2.64721e-08 0.000979082 -1.50712e-17 1
3 0.793704 0.0749279 0.793701 -2.64721e-08 0.000979082 -5.73279e-18 1
4 1.42224e-16 0.793701 0.793701 4.44044e-18 -1.42687e-16 3.82356e-18 1
5 1.58741 0.147994 -8.58726e-17 -5.04828e-08 0.00193407 -1.51691e-17 1
8 1.58741 0.941695 0.793701 -5.04828e-08 0.00193407 -2.0562e-17 1
43 2.19924e-16 1.5874 5.98173e-17 9.67004e-18 -1.67139e-16 -1.2504e-18 1
45 0.793704 1.66233 0.793701 -2.64721e-08 0.000979082 -8.14583e-18 1
47 1.58741 1.7354 -9.79149e-17 -5.04828e-08 0.00193407 -2.78173e-17 1
422 0.793704 0.868628 1.5874 -2.64721e-08 0.000979082 4.76857e-19 1
425 1.58741 0.147994 1.5874 -5.04828e-08 0.00193407 -1.25543e-17 1
463 7.83887e-17 1.5874 1.5874 -2.14057e-17 -1.50871e-16 1.883e-17 1
467 1.58741 1.7354 1.5874 -5.04828e-08 0.00193407 -1.28049e-17 1
6 2.38113 1.0111 -1.57858e-16 -6.99205e-08 0.00284144 -2.86309e-17 1
7 2.38113 0.217402 0.793701 -6.99205e-08 0.00284144 -1.82619e-17 1
9 3.17484 0.281445 -2.12368e-16 -8.28142e-08 0.00367885 -1.84201e-17 1
12 3.17484 1.07515 0.793701 -8.28142e-08 0.00367885 -3.18163e-17 1
426 2.38113 1.0111 1.5874 -6.99205e-08 0.00284144 -2.68517e-17 1
429 3.17484 0.281445 1.5874 -8.28142e-08 0.00367885 -1.92338e-17 1
10 3.96855 1.13225 -2.15349e-16 -8.77989e-08 0.00442567 -2.38674e-17 1
11 3.96855 0.338549 0.793701 -8.77989e-08 0.00442567 -1.49722e-17 1
16 4.76225 1.18101 0.793701 -8.505e-08 0.00506351 -1.80868e-17 1
430 3.96855 1.13225 1.5874 -8.77989e-08 0.00442567 -1.75777e-17 1
433 4.76225 0.387313 1.5874 -8.505e-08 0.00506351 -7.72651e-18 1
15 5.55595 0.42654 0.793701 -7.51059e-08 0.00557666 -1.16915e-17 1
20 6.34964 1.24897 0.793701 -5.1401e-08 0.0059525 -8.72851e-18 1
434 5.55595 1.22024 1.5874 -7.51059e-08 0.00557666 -8.67927e-18 1
437 6.34964 0.455267 1.5874 -5.1401e-08 0.0059525 -3.89915e-18 1
19 7.14332 0.472791 0.793701 -3.05391e-09 0.00618177 -1.90595e-18 1
23 8.73069 0.472791 0.793701 3.05391e-09 0.00618177 -2.06824e-17 1
24 7.93701 1.27238 0.793701 -5.43565e-17 0.00625883 -5.97428e-18 1
438 7.14332 1.26649 1.5874 -3.05391e-09 0.00618177 -5.18482e-18 1
441 7.93701 0.47868 1.5874 -9.21006e-17 0.00625883 -9.73613e-18 1
442 8.73069 1.26649 1.5874 3.05391e-09 0.00618177 -9.61541e-18 1
27 10.3181 0.42654 0.793701 7.51059e-08 0.00557666 -1.95698e-17 1
28 9.52437 1.24897 0.793701 5.1401e-08 0.0059525 -1.85002e-17 1
445 9.52437 0.455267 1.5874 5.1401e-08 0.0059525 -3.08359e-17 1
446 10.3181 1.22024 1.5874 7.51059e-08 0.00557666 -2.12952e-17 1
30 11.9055 1.13225 -6.57274e-17 8.77989e-08 0.00442567 2.17037e-17 1
31 11.9055 0.338549 0.793701 8.77989e-08 0.00442567 2.74244e-18 1
32 11.1118 1.18101 0.793701 8.505e-08 0.00506351 2.31855e-19 1
449 11.1118 0.387313 1.5874 8.505e-08 0.00506351 -2.44353e-17 1
450 11.9055 1.13225 1.5874 8.77989e-08 0.00442567 -1.36526e-17 1
33 12.6992 0.281445 -9.50214e-17 8.28142e-08 0.00367885 2.69219e-17 1
34 13.4929 1.0111 -1.15296e-16 6.99205e-08 0.00284144 3.12141e-17 1
35 13.4929 0.217402 0.793701 6.99205e-08 0.00284144 1.1189e-17 1
36 12.6992 1.07515 0.793701 8.28142e-08 0.00367885 1.59191e-17 1
453 12.6992 0.281445 1.5874 8.28142e-08 0.00367885 -1.33997e-17 1
454 13.4929 1.0111 1.5874 6.99205e-08 0.00284144 -7.74023e-18 1
37 14.2866 0.147994 -1.14511e-16 5.04828e-08 0.00193407 2.93346e-17 1
38 15.0803 0.868628 -4.11015e-17 2.64721e-08 0.000979082 3.40126e-17 1
39 15.0803 0.0749279 0.793701 2.64721e-08 0.000979082 1.61403e-17 1
40 14.2866 0.941695 0.793701 5.04828e-08 0.00193407 1.11126e-17 1
41 15.874 -2.73079e-16 6.60596e-17 -3.26591e-17 -3.12191e-17 5.7883e-17 1
42 15.874 0.793701 0.793701 -1.65364e-17 -5.69721e-17 2.94308e-17 1
79 14.2866 1.7354 -7.31998e-17 5.04828e-08 0.00193407 3.8317e-17 1
81 15.0803 1.66233 0.793701 2.64721e-08 0.000979082 2.26134e-17 1
83 15.874 1.5874 5.74397e-17 -2.59189e-17 -5.71719e-17 3.46935e-17 1
457 14.2866 0.147994 1.5874 5.04828e-08 0.00193407 -6.70331e-18 1
458 15.0803 0.868628 1.5874 2.64721e-08 0.000979082 1.33627e-18 1
461 15.874 -2.33504e-16 1.5874 -1.50701e-17 -3.88541e-17 7.40072e-18 1
499 14.2866 1.7354 1.5874 5.04828e-08 0.00193407 -2.62504e-18 1
503 15.874 1.5874 1.5874 -2.74095e-18 -5.41321e-17 1.86284e-17 1
44 0.793704 2.45603 -3.78632e-17 -2.64721e-08 0.000979082 -1.13103e-17 1
46 1.20887e-16 2.3811 0.793701 -1.66085e-17 -1.70891e-16 1.7039e-17 1
50 1.58741 2.5291 0.793701 -5.04828e-08 0.00193407 -1.83846e-17 1
85 2.03205e-16 3.1748 1.04652e-16 -3.92952e-18 -1.55054e-16 9.04545e-18 1
87 0.793704 3.24973 0.793701 -2.64721e-08 0.000979082 1.66816e-18 1
89 1.58741 3.3228 -8.27118e-17 -5.04828e-08 0.00193407 -1.54393e-17 1
464 0.793704 2.45603 1.5874 -2.64721e-08 0.000979082 8.18952e-18 1
505 3.07052e-17 3.1748 1.5874 -5.27691e-17 -1.54433e-16 3.02207e-17 1
509 1.58741 3.3228 1.5874 -5.04828e-08 0.00193407 -6.50996e-18 1
49 2.38113 1.8048 0.793701 -6.99205e-08 0.00284144 -3.72866e-17 1
51 3.17484 1.86885 -1.89817e-16 -8.28142e-08 0.00367885 -4.07149e-17 1
471 3.17484 1.86885 1.5874 -8.28142e-08 0.00367885 -2.80119e-17 1
48 2.38113 2.5985 -1.44668e-16 -6.99205e-08 0.00284144 -3.56638e-17 1
54 3.17484 2.66255 0.793701 -8.28142e-08 0.00367885 -4.1777e-17 1
91 2.38113 3.3922 0.793701 -6.99205e-08 0.00284144 -2.05027e-17 1
93 3.17484 3.45625 -1.6792e-16 -8.28142e-08 0.00367885 -3.9315e-17 1
468 2.38113 2.5985 1.5874 -6.99205e-08 0.00284144 -1.92129e-17 1
513 3.17484 3.45625 1.5874 -8.28142e-08 0.00367885 -1.6382e-17 1
53 3.96855 1.92595 0.793701 -8.77989e-08 0.00442567 -3.80274e-17 1
475 4.76225 1.97471 1.5874 -8.505e-08 0.00506351 -1.59103e-17 1
52 3.96855 2.71965 -1.78492e-16 -8.77989e-08 0.00442567 -4.26525e-17 1
58 4.76225 2.76841 0.793701 -8.505e-08 0.00506351 -2.10673e-17 1
95 3.96855 3.51335 0.793701 -8.77989e-08 0.00442567 -3.01736e-17 1
472 3.96855 2.71965 1.5874 -8.77989e-08 0.00442567 -2.10452e-17 1
57 5.55595 2.01394 0.793701 -7.51059e-08 0.00557666 -1.23846e-17 1
479 6.34964 2.04267 1.5874 -5.1401e-08 0.0059525 -4.72725e-18 1
62 6.34964 2.83637 0.793701 -5.1401e-08 0.0059525 -4.45511e-18 1
476 5.55595 2.80764 1.5874 -7.51059e-08 0.00557666 -6.04746e-18 1
61 7.14332 2.06019 0.793701 -3.05391e-09 0.00618177 -4.35454e-18 1
65 8.73069 2.06019 0.793701 3.05391e-09 0.00618177 -2.19274e-18 1
483 7.93701 2.06608 1.5874 -1.25051e-17 0.00625883 -4.95878e-18 1
66 7.93701 2.85978 0.793701 1.15749e-17 0.00625883 6.46568e-19 1
480 7.14332 2.85389 1.5874 -3.05391e-09 0.00618177 -3.03396e-18 1
484 8.73069 2.85389 1.5874 3.05391e-09 0.00618177 -7.06874e-18 1
69 10.3181 2.01394 0.793701 7.51059e-08 0.00557666 -3.10691e-18 1
487 9.52437 2.04267 1.5874 5.1401e-08 0.0059525 -1.14399e-17 1
70 9.52437 2.83637 0.793701 5.1401e-08 0.0059525 2.47546e-18 1
488 10.3181 2.80764 1.5874 7.51059e-08 0.00557666 -5.76213e-18 1
73 11.9055 1.92595 0.793701 8.77989e-08 0.00442567 2.45821e-17 1
491 11.1118 1.97471 1.5874 8.505e-08 0.00506351 -1.26571e-17 1
72 11.9055 2.71965 -5.52099e-17 8.77989e-08 0.00442567 4.97514e-17 1
74 11.1118 2.76841 0.793701 8.505e-08 0.00506351 2.12732e-17 1
115 11.9055 3.51335 0.793701 8.77989e-08 0.00442567 5.12167e-17 1
492 11.9055 2.71965 1.5874 8.77989e-08 0.00442567 2.73261e-18 1
77 13.4929 1.8048 0.793701 6.99205e-08 0.00284144 2.56491e-17 1
75 12.6992 1.86885 -7.51384e-17 8.28142e-08 0.00367885 4.353e-17 1
495 12.6992 1.86885 1.5874 8.28142e-08 0.00367885 -6.27764e-18 1
76 13.4929 2.5985 -3.98384e-17 6.99205e-08 0.00284144 5.94172e-17 1
78 12.6992 2.66255 0.793701 8.28142e-08 0.00367885 4.60488e-17 1
117 12.6992 3.45625 -2.54997e-17 8.28142e-08 0.00367885 7.27727e-17 1
119 13.4929 3.3922 0.793701 6.99205e-08 0.00284144 4.78536e-17 1
496 13.4929 2.5985 1.5874 6.99205e-08 0.00284144 9.51202e-19 1
537 12.6992 3.45625 1.5874 8.28142e-08 0.00367885 8.3154e-18 1
80 15.0803 2.45603 -2.16499e-17 2.64721e-08 0.000979082 3.50885e-17 1
82 14.2866 2.5291 0.793701 5.04828e-08 0.00193407 3.15259e-17 1
84 15.874 2.3811 0.793701 -1.68664e-17 -5.1451e-17 3.75699e-17 1
121 14.2866 3.3228 -2.82929e-17 5.04828e-08 0.00193407 4.97054e-17 1
123 15.0803 3.24973 0.793701 2.64721e-08 0.000979082 3.94582e-17 1
125 15.874 3.1748 5.43127e-17 -8.55517e-18 -5.11803e-17 2.87924e-17 1
500 15.0803 2.45603 1.5874 2.64721e-08 0.000979082 1.19185e-17 1
541 14.2866 3.3228 1.5874 5.04828e-08 0.00193407 1.49589e-17 1
545 15.874 3.1748 1.5874 3.96185e-18 -4.2778e-17 3.15551e-17 1
86 0.793704 4.04343 -2.12154e-17 -2.64721e-08 0.000979082 -3.31463e-18 1
88 1.21836e-16 3.9685 0.793701 -4.03223e-17 -1.26293e-16 2.16236e-17 1
92 1.58741 4.1165 0.793701 -5.04828e-08 0.00193407 -3.42422e-18 1
127 2.75347e-16 4.7622 2.64407e-16 -3.62827e-17 -1.11997e-16 1.57669e-17 1
129 0.793704 4.83713 0.793701 -2.64721e-08 0.000979082 8.75583e-18 1
131 1.58741 4.9102 -6.34813e-17 -5.04828e-08 0.00193407 -2.27729e-18 1
506 0.793704 4.04343 1.5874 -2.64721e-08 0.000979082 8.2308e-18 1
547 4.03979e-17 4.7622 1.5874 -7.80017e-17 -1.13095e-16 2.12433e-17 1
551 1.58741 4.9102 1.5874 -5.04828e-08 0.00193407 2.17854e-19 1
90 2.38113 4.1859 -1.13285e-16 -6.99205e-08 0.00284144 -1.40659e-17 1
96 3.17484 4.24995 0.793701 -8.28142e-08 0.00367885 -2.32873e-17 1
133 2.38113 4.97961 0.793701 -6.99205e-08 0.00284144 -3.59459e-18 1
135 3.17484 5.04365 -1.26902e-16 -8.28142e-08 0.00367885 -1.18277e-17 1
510 2.38113 4.1859 1.5874 -6.99205e-08 0.00284144 -1.14464e-17 1
555 3.17484 5.04365 1.5874 -8.28142e-08 0.00367885 -1.19991e-17 1
517 4.76225 3.56212 1.5874 -8.505e-08 0.00506351 -4.202e-18 1
94 3.96855 4.30705 -1.68443e-16 -8.77989e-08 0.00442567 -2.34848e-17 1
100 4.76225 4.35582 0.793701 -8.505e-08 0.00506351 -5.23123e-18 1
137 3.96855 5.10075 0.793701 -8.77989e-08 0.00442567 -1.57855e-17 1
514 3.96855 4.30705 1.5874 -8.77989e-08 0.00442567 -8.00235e-18 1
559 4.76225 5.14952 1.5874 -8.505e-08 0.00506351 3.45806e-18 1
99 5.55595 3.60134 0.793701 -7.51059e-08 0.00557666 -2.83341e-18 1
521 6.34964 3.63007 1.5874 -5.1401e-08 0.0059525 -3.96869e-19 1
104 6.34964 4.42377 0.793701 -5.1401e-08 0.0059525 5.81235e-18 1
141 5.55595 5.18874 0.793701 -7.51059e-08 0.00557666 8.01937e-18 1
518 5.55595 4.39504 1.5874 -7.51059e-08 0.00557666 5.26447e-18 1
563 6.34964 5.21747 1.5874 -5.1401e-08 0.0059525 5.19273e-18 1
103 7.14332 3.64759 0.793701 -3.05391e-09 0.00618177 2.20739e-18 1
107 8.73069 3.64759 0.793701 3.05391e-09 0.00618177 3.26771e-18 1
525 7.93701 3.65348 1.5874 1.73943e-17 0.00625883 -4.88519e-18 1
108 7.93701 4.44718 0.793701 1.30751e-17 0.00625883 2.9797e-18 1
145 7.14332 5.23499 0.793701 -3.05391e-09 0.00618177 3.66585e-18 1
149 8.73069 5.23499 0.793701 3.05391e-09 0.00618177 1.33585e-18 1
522 7.14332 4.44129 1.5874 -3.05391e-09 0.00618177 1.2163e-19 1
526 8.73069 4.44129 1.5874 3.05391e-09 0.00618177 -1.10061e-18 1
567 7.93701 5.24088 1.5874 -6.49232e-18 0.00625883 4.88062e-18 1
111 10.3181 3.60134 0.793701 7.51059e-08 0.00557666 1.13448e-17 1
529 9.52437 3.63007 1.5874 5.1401e-08 0.0059525 -4.7509e-18 1
112 9.52437 4.42377 0.793701 5.1401e-08 0.0059525 4.67698e-18 1
153 10.3181 5.18874 0.793701 7.51059e-08 0.00557666 4.25641e-18 1
530 10.3181 4.39504 1.5874 7.51059e-08 0.00557666 -8.34836e-18 1
571 9.52437 5.21747 1.5874 5.1401e-08 0.0059525 -2.03783e-18 1
533 11.1118 3.56212 1.5874 8.505e-08 0.00506351 4.68054e-18 1
114 11.9055 4.30705 -3.11657e-17 8.77989e-08 0.00442567 6.43795e-17 1
116 11.1118 4.35582 0.793701 8.505e-08 0.00506351 2.24816e-17 1
157 11.9055 5.10075 0.793701 8.77989e-08 0.00442567 2.50861e-17 1
534 11.9055 4.30705 1.5874 8.77989e-08 0.00442567 3.56516e-20 1
575 11.1118 5.14952 1.5874 8.505e-08 0.00506351 -1.88741e-17 1
118 13.4929 4.1859 -3.17507e-17 6.99205e-08 0.00284144 5.44411e-17 1
120 12.6992 4.24995 0.793701 8.28142e-08 0.00367885 4.72416e-17 1
159 12.6992 5.04365 -5.5587e-17 8.28142e-08 0.00367885 4.90982e-17 1
161 13.4929 4.97961 0.793701 6.99205e-08 0.00284144 2.66924e-17 1
538 13.4929 4.1859 1.5874 6.99205e-08 0.00284144 1.20073e-17 1
579 12.6992 5.04365 1.5874 8.28142e-08 0.00367885 -1.04298e-18 1
122 15.0803 4.04343 -1.28838e-17 2.64721e-08 0.000979082 3.50383e-17 1
124 14.2866 4.1165 0.793701 5.04828e-08 0.00193407 4.08179e-17 1
126 15.874 3.9685 0.793701 1.935e-17 -4.41352e-17 4.43657e-17 1
163 14.2866 4.9102 -5.98178e-17 5.04828e-08 0.00193407 3.4549e-17 1
165 15.0803 4.83713 0.793701 2.64721e-08 0.000979082 3.25527e-17 1
167 15.874 4.7622 4.74062e-17 2.9233e-17 -3.77593e-17 4.66978e-17 1
542 15.0803 4.04343 1.5874 2.64721e-08 0.000979082 2.90458e-17 1
583 14.2866 4.9102 1.5874 5.04828e-08 0.00193407 1.88104e-17 1
587 15.874 4.7622 1.5874 5.26206e-17 -4.15011e-17 2.99602e-17 1
128 0.793704 5.63083 -1.32319e-17 -2.64721e-08 0.000979082 3.86279e-18 1
130 1.39135e-16 5.5559 0.793701 -7.11785e-17 -1.01653e-16 2.09635e-17 1
134 1.58741 5.7039 0.793701 -5.04828e-08 0.00193407 6.82862e-18 1
169 1.73907e-16 6.3496 3.52224e-16 -6.47669e-17 -9.56127e-17 1.68704e-17 1
171 0.793704 6.42453 0.793701 -2.64721e-08 0.000979082 7.52161e-18 1
173 1.58741 6.4976 -4.70945e-17 -5.04828e-08 0.00193407 2.103e-18 1
548 0.793704 5.63083 1.5874 -2.64721e-08 0.000979082 5.99928e-18 1
589 5.3204e-17 6.3496 1.5874 -9.01908e-17 -1.0752e-16 6.92791e-18 1
593 1.58741 6.4976 1.5874 -5.04828e-08 0.00193407 -6.06471e-18 1
132 2.38113 5.77331 -9.63585e-17 -6.99205e-08 0.00284144 -1.89878e-18 1
138 3.17484 5.83735 0.793701 -8.28142e-08 0.00367885 -1.01236e-17 1
175 2.38113 6.56701 0.793701 -6.99205e-08 0.00284144 -2.01042e-18 1
177 3.17484 6.63105 -1.13823e-16 -8.28142e-08 0.00367885 -5.02977e-18 1
552 2.38113 5.77331 1.5874 -6.99205e-08 0.00284144 -6.06944e-18 1
597 3.17484 6.63105 1.5874 -8.28142e-08 0.00367885 -6.81811e-18 1
136 3.96855 5.89445 -1.32206e-16 -8.77989e-08 0.00442567 -7.53399e-18 1
142 4.76225 5.94322 0.793701 -8.505e-08 0.00506351 -2.04419e-19 1
179 3.96855 6.68815 0.793701 -8.77989e-08 0.00442567 -1.22584e-18 1
181 4.76225 6.73692 -1.12428e-16 -8.505e-08 0.00506351 6.84225e-19 1
556 3.96855 5.89445 1.5874 -8.77989e-08 0.00442567 -4.28059e-18 1
601 4.76225 6.73692 1.5874 -8.505e-08 0.00506351 -6.57025e-19 1
146 6.34964 6.01117 0.793701 -5.1401e-08 0.0059525 4.16199e-18 1
183 5.55595 6.77614 0.793701 -7.51059e-08 0.00557666 2.20227e-18 1
560 5.55595 5.98244 1.5874 -7.51059e-08 0.00557666 5.49747e-18 1
605 6.34964 6.80487 1.5874 -5.1401e-08 0.0059525 -5.17992e-18 1
150 7.93701 6.03458 0.793701 -4.60874e-17 0.00625883 1.75641e-19 1
187 7.14332 6.82239 0.793701 -3.05391e-09 0.00618177 -7.88688e-19 1
191 8.73069 6.82239 0.793701 3.05391e-09 0.00618177 -1.24319e-18 1
564 7.14332 6.02869 1.5874 -3.05391e-09 0.00618177 -2.67007e-18 1
568 8.73069 6.02869 1.5874 3.05391e-09 0.00618177 1.79564e-17 1
609 7.93701 6.82828 1.5874 -6.42113e-17 0.00625883 1.3086e-18 1
154 9.52437 6.01117 0.793701 5.1401e-08 0.0059525 1.08245e-19 1
195 10.3181 6.77614 0.793701 7.51059e-08 0.00557666 1.71807e-19 1
572 10.3181 5.98244 1.5874 7.51059e-08 0.00557666 -1.04202e-17 1
613 9.52437 6.80487 1.5874 5.1401e-08 0.0059525 2.2868e-17 1
156 11.9055 5.89445 2.02087e-17 8.77989e-08 0.00442567 3.96215e-17 1
158 11.1118 5.94322 0.793701 8.505e-08 0.00506351 6.34074e-18 1
199 11.9055 6.68815 0.793701 8.77989e-08 0.00442567 1.36619e-17 1
576 11.9055 5.89445 1.5874 8.77989e-08 0.00442567 -1.23409e-17 1
617 11.1118 6.73692 1.5874 8.505e-08 0.00506351 -1.73919e-17 1
160 13.4929 5.77331 -1.00076e-16 6.99205e-08 0.00284144 2.84741e-17 1
162 12.6992 5.83735 0.793701 8.28142e-08 0.00367885 1.81479e-17 1
201 12.6992 6.63105 -5.83779e-17 8.28142e-08 0.00367885 3.04004e-17 1
203 13.4929 6.56701 0.793701 6.99205e-08 0.00284144 1.67229e-17 1
580 13.4929 5.77331 1.5874 6.99205e-08 0.00284144 3.17884e-18 1
621 12.6992 6.63105 1.5874 8.28142e-08 0.00367885 -2.0376e-18 1
164 15.0803 5.63083 -4.29176e-17 2.64721e-08 0.000979082 4.30989e-17 1
166 14.2866 5.7039 0.793701 5.04828e-08 0.00193407 1.93298e-17 1
168 15.874 5.5559 0.793701 4.68068e-17 -2.03066e-17 4.02986e-17 1
205 14.2866 6.4976 -1.08506e-16 5.04828e-08 0.00193407 3.249e-17 1
207 15.0803 6.42453 0.793701 2.64721e-08 0.000979082 2.92446e-17 1
209 15.874 6.3496 8.97226e-18 2.63136e-17 -2.24192e-17 5.73255e-17 1
584 15.0803 5.63083 1.5874 2.64721e-08 0.000979082 1.29087e-17 1
625 14.2866 6.4976 1.5874 5.04828e-08 0.00193407 2.18991e-18 1
629 15.874 6.3496 1.5874 5.63133e-17 -1.57336e-17 2.00629e-17 1
170 0.793704 7.21823 7.45783e-18 -2.64721e-08 0.000979082 3.30309e-18 1
172 4.68063e-17 7.1433 0.793701 -8.22765e-17 -9.20807e-17 9.39858e-18 1
176 1.58741 7.2913 0.793701 -5.04828e-08 0.00193407 -2.40711e-18 1
211 4.89017e-17 7.93701 3.51318e-16 -6.7979e-17 -6.28273e-17 4.91759e-18 1
212 0.793704 8.80563 -2.17174e-17 -2.64721e-08 0.000979082 -9.90586e-19 1
213 0.793704 8.01193 0.793701 -2.64721e-08 0.000979082 -8.67281e-19 1
214 -1.7042e-17 8.73071 0.793701 -5.41834e-17 -6.93727e-17 -2.8384e-18 1
215 1.58741 8.085 -4.22313e-17 -5.04828e-08 0.00193407 3.11628e-18 1
590 0.793704 7.21823 1.5874 -2.64721e-08 0.000979082 -3.76691e-18 1
631 -6.40418e-17 7.93701 1.5874 -7.70809e-17 -7.47189e-17 -2.37443e-18 1
632 0.793704 8.80563 1.5874 -2.64721e-08 0.000979082 -6.93438e-18 1
635 1.58741 8.085 1.5874 -5.04828e-08 0.00193407 -1.20827e-17 1
174 2.38113 7.36071 -7.21559e-17 -6.99205e-08 0.00284144 3.01e-18 1
180 3.17484 7.42475 0.793701 -8.28142e-08 0.00367885 1.01637e-18 1
217 2.38113 8.15441 0.793701 -6.99205e-08 0.00284144 -5.53781e-18 1
219 3.17484 8.21845 -1.98667e-17 -8.28142e-08 0.00367885 1.12861e-17 1
594 2.38113 7.36071 1.5874 -6.99205e-08 0.00284144 -1.35342e-17 1
639 3.17484 8.21845 1.5874 -8.28142e-08 0.00367885 -6.91425e-18 1
178 3.96855 7.48185 -6.06215e-17 -8.77989e-08 0.00442567 5.07357e-18 1
184 4.76225 7.53062 0.793701 -8.505e-08 0.00506351 1.87847e-17 1
221 3.96855 8.27555 0.793701 -8.77989e-08 0.00442567 2.75589e-17 1
598 3.96855 7.48185 1.5874 -8.77989e-08 0.00442567 -3.1828e-18 1
643 4.76225 8.32432 1.5874 -8.505e-08 0.00506351 -4.06199e-18 1
188 6.34964 7.59857 0.793701 -5.1401e-08 0.0059525 1.38102e-18 1
225 5.55595 8.36355 0.793701 -7.51059e-08 0.00557666 3.03096e-17 1
602 5.55595 7.56984 1.5874 -7.51059e-08 0.00557666 -8.98485e-18 1
647 6.34964 8.39227 1.5874 -5.1401e-08 0.0059525 -5.15524e-18 1
192 7.93701 7.62198 0.793701 -7.91261e-17 0.00625883 1.07571e-18 1
229 7.14332 8.4098 0.793701 -3.05391e-09 0.00618177 1.93052e-17 1
233 8.73069 8.4098 0.793701 3.05391e-09 0.00618177 -2.30321e-18 1
606 7.14332 7.6161 1.5874 -3.05391e-09 0.00618177 -8.56334e-18 1
610 8.73069 7.6161 1.5874 3.05391e-09 0.00618177 1.81797e-17 1
651 7.93701 8.41569 1.5874 -8.43009e-17 0.00625883 -3.70006e-18 1
196 9.52437 7.59857 0.793701 5.1401e-08 0.0059525 -2.46015e-18 1
237 10.3181 8.36355 0.793701 7.51059e-08 0.00557666 -2.54559e-18 1
614 10.3181 7.56984 1.5874 7.51059e-08 0.00557666 2.45882e-19 1
655 9.52437 8.39227 1.5874 5.1401e-08 0.0059525 4.16289e-18 1
200 11.1118 7.53062 0.793701 8.505e-08 0.00506351 4.93307e-18 1
241 11.9055 8.27555 0.793701 8.77989e-08 0.00442567 1.36897e-17 1
618 11.9055 7.48185 1.5874 8.77989e-08 0.00442567 -1.32449e-17 1
659 11.1118 8.32432 1.5874 8.505e-08 0.00506351 -2.34137e-17 1
202 13.4929 7.36071 -1.04508e-16 6.99205e-08 0.00284144 2.7203e-17 1
204 12.6992 7.42475 0.793701 8.28142e-08 0.00367885 1.83366e-17 1
243 12.6992 8.21845 -7.19096e-17 8.28142e-08 0.00367885 3.88778e-17 1
245 13.4929 8.15441 0.793701 6.99205e-08 0.00284144 2.12449e-17 1
622 13.4929 7.36071 1.5874 6.99205e-08 0.00284144 7.91454e-19 1
663 12.6992 8.21845 1.5874 8.28142e-08 0.00367885 -7.40279e-18 1
206 15.0803 7.21823 -7.86961e-17 2.64721e-08 0.000979082 4.56208e-17 1
208 14.2866 7.2913 0.793701 5.04828e-08 0.00193407 2.3028e-17 1
210 15.874 7.1433 0.793701 3.0245e-17 -3.03101e-17 4.99626e-17 1
247 14.2866 8.085 -1.22346e-16 5.04828e-08 0.00193407 3.2073e-17 1
248 15.0803 8.80563 -8.97038e-17 2.64721e-08 0.000979082 3.46339e-17 1
249 15.0803 8.01193 0.793701 2.64721e-08 0.000979082 4.16265e-17 1
251 15.874 7.93701 -2.61699e-17 1.58683e-17 -3.79394e-17 5.06827e-17 1
252 15.874 8.73071 0.793701 1.87978e-17 -5.80103e-17 4.88027e-17 1
626 15.0803 7.21823 1.5874 2.64721e-08 0.000979082 1.2214e-17 1
667 14.2866 8.085 1.5874 5.04828e-08 0.00193407 6.16212e-18 1
668 15.0803 8.80563 1.5874 2.64721e-08 0.000979082 2.66571e-17 1
671 15.874 7.93701 1.5874 3.44507e-17 -3.98612e-17 3.11977e-17 1
218 1.58741 8.8787 0.793701 -5.04828e-08 0.00193407 -6.25291e-20 1
253 1.35707e-17 9.52441 1.8475e-16 -3.24468e-17 -9.40913e-17 -1.89002e-18 1
254 0.793704 10.393 -1.63726e-17 -2.64721e-08 0.000979082 1.84384e-18 1
255 0.793704 9.59933 0.793701 -2.64721e-08 0.000979082 1.14701e-18 1
256 3.38796e-17 10.3181 0.793701 -1.38256e-17 -1.06354e-16 -1.91076e-18 1
257 1.58741 9.6724 -3.90745e-17 -5.04828e-08 0.00193407 6.47923e-18 1
260 1.58741 10.4661 0.793701 -5.04828e-08 0.00193407 1.00703e-17 1
673 1.07831e-17 9.52441 1.5874 -3.31675e-17 -9.1588e-17 -4.18509e-18 1
674 0.793704 10.393 1.5874 -2.64721e-08 0.000979082 -1.39045e-18 1
677 1.58741 9.6724 1.5874 -5.04828e-08 0.00193407 -1.82645e-18 1
216 2.38113 8.94811 -2.42445e-17 -6.99205e-08 0.00284144 1.19745e-17 1
222 3.17484 9.01215 0.793701 -8.28142e-08 0.00367885 1.16412e-17 1
636 2.38113 8.94811 1.5874 -6.99205e-08 0.00284144 -1.10401e-17 1
258 2.38113 10.5355 -4.991e-17 -6.99205e-08 0.00284144 2.52125e-17 1
259 2.38113 9.74181 0.793701 -6.99205e-08 0.00284144 1.04508e-17 1
261 3.17484 9.80585 -3.87082e-17 -8.28142e-08 0.00367885 3.68248e-17 1
678 2.38113 10.5355 1.5874 -6.99205e-08 0.00284144 1.10487e-17 1
681 3.17484 9.80585 1.5874 -8.28142e-08 0.00367885 1.10898e-17 1
220 3.96855 9.06926 3.82346e-17 -8.77989e-08 0.00442567 5.29776e-17 1
226 4.76225 9.11802 0.793701 -8.505e-08 0.00506351 4.76371e-17 1
640 3.96855 9.06926 1.5874 -8.77989e-08 0.00442567 7.45551e-18 1
263 3.96855 9.86296 0.793701 -8.77989e-08 0.00442567 2.94863e-17 1
685 4.76225 9.91172 1.5874 -8.505e-08 0.00506351 1.0365e-17 1
230 6.34964 9.18597 0.793701 -5.1401e-08 0.0059525 3.95698e-17 1
644 5.55595 9.15725 1.5874 -7.51059e-08 0.00557666 8.72669e-18 1
267 5.55595 9.95095 0.793701 -7.51059e-08 0.00557666 3.99095e-17 1
689 6.34964 9.97967 1.5874 -5.1401e-08 0.0059525 1.2202e-17 1
234 7.93701 9.20939 0.793701 -6.82335e-17 0.00625883 1.3332e-17 1
648 7.14332 9.2035 1.5874 -3.05391e-09 0.00618177 5.6461e-18 1
652 8.73069 9.2035 1.5874 3.05391e-09 0.00618177 -1.6419e-17 1
271 7.14332 9.9972 0.793701 -3.05391e-09 0.00618177 2.58308e-17 1
275 8.73069 9.9972 0.793701 3.05391e-09 0.00618177 -2.77063e-18 1
693 7.93701 10.0031 1.5874 -5.7102e-17 0.00625883 -1.1772e-17 1
238 9.52437 9.18597 0.793701 5.1401e-08 0.0059525 -9.15943e-18 1
656 10.3181 9.15725 1.5874 7.51059e-08 0.00557666 -3.25028e-17 1
279 10.3181 9.95095 0.793701 7.51059e-08 0.00557666 6.65513e-18 1
697 9.52437 9.97967 1.5874 5.1401e-08 0.0059525 -4.58921e-17 1
240 11.9055 9.06926 -9.59873e-17 8.77989e-08 0.00442567 4.16794e-17 1
242 11.1118 9.11802 0.793701 8.505e-08 0.00506351 1.5759e-17 1
660 11.9055 9.06926 1.5874 8.77989e-08 0.00442567 -2.22081e-17 1
283 11.9055 9.86296 0.793701 8.77989e-08 0.00442567 2.79427e-17 1
701 11.1118 9.91172 1.5874 8.505e-08 0.00506351 -4.10853e-17 1
244 13.4929 8.94811 -1.05056e-16 6.99205e-08 0.00284144 3.91859e-17 1
246 12.6992 9.01215 0.793701 8.28142e-08 0.00367885 2.09097e-17 1
664 13.4929 8.94811 1.5874 6.99205e-08 0.00284144 -1.30893e-19 1
285 12.6992 9.80585 -1.03175e-16 8.28142e-08 0.00367885 4.30478e-17 1
286 13.4929 10.5355 -8.99082e-17 6.99205e-08 0.00284144 3.54472e-17 1
287 13.4929 9.74181 0.793701 6.99205e-08 0.00284144 2.33431e-17 1
705 12.6992 9.80585 1.5874 8.28142e-08 0.00367885 -6.60285e-18 1
706 13.4929 10.5355 1.5874 6.99205e-08 0.00284144 1.42528e-17 1
250 14.2866 8.8787 0.793701 5.04828e-08 0.00193407 2.84363e-17 1
289 14.2866 9.6724 -9.64551e-17 5.04828e-08 0.00193407 3.03947e-17 1
290 15.0803 10.393 -7.99032e-17 2.64721e-08 0.000979082 2.47921e-17 1
291 15.0803 9.59933 0.793701 2.64721e-08 0.000979082 3.35692e-17 1
292 14.2866 10.4661 0.793701 5.04828e-08 0.00193407 2.52415e-17 1
293 15.874 9.52441 -4.49266e-17 7.12034e-18 -5.43703e-17 3.16854e-17 1
294 15.874 10.3181 0.793701 6.9113e-18 -5.59047e-17 3.72652e-17 1
709 14.2866 9.6724 1.5874 5.04828e-08 0.00193407 1.83387e-17 1
710 15.0803 10.393 1.5874 2.64721e-08 0.000979082 4.10251e-17 1
713 15.874 9.52441 1.5874 1.88189e-17 -6.07041e-17 4.46174e-17 1
295 5.45851e-17 11.1118 1.58495e-17 -4.09831e-18 -1.07669e-16 -2.16613e-18 1
296 0.793704 11.9804 -2.79572e-17 -2.64721e-08 0.000979082 2.03536e-18 1
297 0.793704 11.1867 0.793701 -2.64721e-08 0.000979082 2.89253e-18 1
298 7.81352e-17 11.9055 0.793701 9.16959e-18 -1.08214e-16 6.91565e-19 1
299 1.58741 11.2598 -4.34048e-17 -5.04828e-08 0.00193407 1.00781e-17 1
302 1.58741 12.0535 0.793701 -5.04828e-08 0.00193407 5.49237e-18 1
715 4.50538e-17 11.1118 1.5874 -3.52826e-18 -1.05563e-16 1.34262e-18 1
716 0.793704 11.9804 1.5874 -2.64721e-08 0.000979082 3.98437e-19 1
719 1.58741 11.2598 1.5874 -5.04828e-08 0.00193407 5.16098e-18 1
264 3.17484 10.5996 0.793701 -8.28142e-08 0.00367885 2.05318e-17 1
300 2.38113 12.1229 -7.62162e-17 -6.99205e-08 0.00284144 1.25771e-17 1
301 2.38113 11.3292 0.793701 -6.99205e-08 0.00284144 1.26995e-17 1
303 3.17484 11.3933 -6.26469e-17 -8.28142e-08 0.00367885 3.37996e-17 1
306 3.17484 12.187 0.793701 -8.28142e-08 0.00367885 4.59628e-18 1
720 2.38113 12.1229 1.5874 -6.99205e-08 0.00284144 2.35458e-18 1
723 3.17484 11.3933 1.5874 -8.28142e-08 0.00367885 6.35084e-18 1
262 3.96855 10.6567 -6.00968e-17 -8.77989e-08 0.00442567 5.1809e-17 1
268 4.76225 10.7054 0.793701 -8.505e-08 0.00506351 1.89976e-17 1
682 3.96855 10.6567 1.5874 -8.77989e-08 0.00442567 1.04009e-17 1
305 3.96855 11.4504 0.793701 -8.77989e-08 0.00442567 1.01366e-17 1
310 4.76225 12.2928 0.793701 -8.505e-08 0.00506351 -3.37419e-18 1
724 3.96855 12.2441 1.5874 -8.77989e-08 0.00442567 -5.27037e-18 1
727 4.76225 11.4991 1.5874 -8.505e-08 0.00506351 -6.72668e-18 1
272 6.34964 10.7734 0.793701 -5.1401e-08 0.0059525 1.4378e-17 1
686 5.55595 10.7446 1.5874 -7.51059e-08 0.00557666 5.95947e-19 1
309 5.55595 11.5383 0.793701 -7.51059e-08 0.00557666 2.02108e-18 1
314 6.34964 12.3608 0.793701 -5.1401e-08 0.0059525 -2.53776e-18 1
728 5.55595 12.332 1.5874 -7.51059e-08 0.00557666 -1.11925e-17 1
731 6.34964 11.5671 1.5874 -5.1401e-08 0.0059525 -1.51548e-17 1
276 7.93701 10.7968 0.793701 -1.16305e-17 0.00625883 3.08564e-18 1
690 7.14332 10.7909 1.5874 -3.05391e-09 0.00618177 -9.932e-18 1
694 8.73069 10.7909 1.5874 3.05391e-09 0.00618177 -3.69002e-17 1
313 7.14332 11.5846 0.793701 -3.05391e-09 0.00618177 -1.95069e-18 1
317 8.73069 11.5846 0.793701 3.05391e-09 0.00618177 -6.49111e-18 1
735 7.93701 11.5905 1.5874 -5.11582e-18 0.00625883 -2.32632e-17 1
280 9.52437 10.7734 0.793701 5.1401e-08 0.0059525 -5.18931e-18 1
698 10.3181 10.7446 1.5874 7.51059e-08 0.00557666 -5.50566e-17 1
321 10.3181 11.5383 0.793701 7.51059e-08 0.00557666 -7.10191e-18 1
322 9.52437 12.3608 0.793701 5.1401e-08 0.0059525 -8.59252e-18 1
739 9.52437 11.5671 1.5874 5.1401e-08 0.0059525 -4.36143e-17 1
740 10.3181 12.332 1.5874 7.51059e-08 0.00557666 -4.34692e-17 1
282 11.9055 10.6567 -1.20555e-16 8.77989e-08 0.00442567 4.37486e-17 1
284 11.1118 10.7054 0.793701 8.505e-08 0.00506351 1.83876e-17 1
702 11.9055 10.6567 1.5874 8.77989e-08 0.00442567 -1.7289e-17 1
324 11.9055 12.2441 -1.06832e-16 8.77989e-08 0.00442567 4.79049e-17 1
325 11.9055 11.4504 0.793701 8.77989e-08 0.00442567 2.62096e-17 1
326 11.1118 12.2928 0.793701 8.505e-08 0.00506351 3.2802e-19 1
743 11.1118 11.4991 1.5874 8.505e-08 0.00506351 -3.48785e-17 1
744 11.9055 12.2441 1.5874 8.77989e-08 0.00442567 -1.89758e-17 1
288 12.6992 10.5996 0.793701 8.28142e-08 0.00367885 2.91278e-17 1
327 12.6992 11.3933 -9.45021e-17 8.28142e-08 0.00367885 5.02965e-17 1
328 13.4929 12.1229 -5.19854e-17 6.99205e-08 0.00284144 5.38397e-17 1
329 13.4929 11.3292 0.793701 6.99205e-08 0.00284144 3.55538e-17 1
330 12.6992 12.187 0.793701 8.28142e-08 0.00367885 3.84943e-17 1
747 12.6992 11.3933 1.5874 8.28142e-08 0.00367885 4.60829e-18 1
748 13.4929 12.1229 1.5874 6.99205e-08 0.00284144 2.27211e-17 1
331 14.2866 11.2598 -6.60875e-17 5.04828e-08 0.00193407 3.10442e-17 1
332 15.0803 11.9804 -5.72619e-17 2.64721e-08 0.000979082 3.03422e-17 1
333 15.0803 11.1867 0.793701 2.64721e-08 0.000979082 3.33368e-17 1
334 14.2866 12.0535 0.793701 5.04828e-08 0.00193407 4.57061e-17 1
335 15.874 11.1118 -5.40394e-17 -1.80019e-19 -4.98305e-17 2.5419e-17 1
336 15.874 11.9055 0.793701 7.63215e-18 -3.93858e-17 3.9674e-17 1
751 14.2866 11.2598 1.5874 5.04828e-08 0.00193407 3.69155e-17 1
752 15.0803 11.9804 1.5874 2.64721e-08 0.000979082 5.4077e-17 1
755 15.874 11.1118 1.5874 8.455e-18 -4.6219e-17 5.37951e-17 1
337 1.0427e-16 12.6992 2.70632e-17 1.67157e-17 -1.12905e-16 -2.06459e-18 1
338 0.793704 13.5678 -3.22627e-17 -2.64721e-08 0.000979082 -2.08369e-18 1
339 0.793704 12.7741 0.793701 -2.64721e-08 0.000979082 7.02319e-19 1
340 1.07332e-16 13.4929 0.793701 1.90258e-17 -1.13245e-16 1.55123e-18 1
341 1.58741 12.8472 -6.60642e-17 -5.04828e-08 0.00193407 1.91798e-18 1
344 1.58741 13.6409 0.793701 -5.04828e-08 0.00193407 -1.04412e-19 1
757 9.22218e-17 12.6992 1.5874 1.48055e-17 -1.12027e-16 3.23153e-18 1
758 0.793704 13.5678 1.5874 -2.64721e-08 0.000979082 2.77763e-18 1
761 1.58741 12.8472 1.5874 -5.04828e-08 0.00193407 5.49567e-19 1
342 2.38113 13.7103 -1.21321e-16 -6.99205e-08 0.00284144 -1.43723e-18 1
343 2.38113 12.9166 0.793701 -6.99205e-08 0.00284144 1.63116e-18 1
345 3.17484 12.9807 -1.51334e-16 -8.28142e-08 0.00367885 2.48791e-18 1
348 3.17484 13.7744 0.793701 -8.28142e-08 0.00367885 -4.56975e-18 1
762 2.38113 13.7103 1.5874 -6.99205e-08 0.00284144 -9.84887e-19 1
765 3.17484 12.9807 1.5874 -8.28142e-08 0.00367885 -2.65301e-18 1
346 3.96855 13.8315 -2.29643e-16 -8.77989e-08 0.00442567 -7.26883e-18 1
347 3.96855 13.0378 0.793701 -8.77989e-08 0.00442567 -5.04719e-18 1
349 4.76225 13.0865 -2.28739e-16 -8.505e-08 0.00506351 -9.63158e-19 1