ITEM: TIMESTEP
13000
ITEM: NUMBER OF ATOMS
8000
ITEM: BOX BOUNDS pp pp pp
0.0000000000000000e+00 3.1748021039364001e+01
0.0000000000000000e+00 1.5874010519682001e+01
0.0000000000000000e+00 1.5874010519682001e+01
ITEM: ATOMS id x y z vx vy vz c_rho_peratom
2 0.793704 0.873428 -9.01255e-17 -1.27462e-08 0.000941584 2.83122e-17 1
3 0.793704 0.0797278 0.793701 -1.27462e-08 0.000941584 2.33237e-17 1
4 -1.32477e-16 0.793701 0.793701 -6.82134e-17 -6.06619e-17 5.97569e-18 1
5 1.58742 0.157474 -1.6798e-16 -2.43526e-08 0.00186 2.65853e-17 1
8 1.58742 0.951174 0.793701 -2.43526e-08 0.00186 1.70572e-17 1
43 -7.13547e-17 1.5874 4.15512e-17 -7.98992e-17 -7.80237e-17 9.33926e-18 1
45 0.793704 1.66713 0.793701 -1.27462e-08 0.000941584 1.20202e-17 1
47 1.58742 1.74487 -1.99421e-16 -2.43526e-08 0.00186 2.85843e-17 1
422 0.793704 0.873428 1.5874 -1.27462e-08 0.000941584 1.52247e-18 1
425 1.58742 0.157474 1.5874 -2.43526e-08 0.00186 1.20861e-17 1
463 -2.05709e-16 1.5874 1.5874 -5.25127e-17 -8.20004e-17 -7.31829e-18 1
467 1.58742 1.74487 1.5874 -2.43526e-08 0.00186 8.06478e-19 1
6 2.38113 1.02503 -3.02087e-16 -3.39438e-08 0.00273262 2.63126e-17 1
7 2.38113 0.231326 0.793701 -3.39438e-08 0.00273262 1.21175e-17 1
9 3.17484 0.299468 -3.86941e-16 -4.052e-08 0.00353796 5.75096e-18 1
12 3.17484 1.09317 0.793701 -4.052e-08 0.00353796 1.95061e-17 1
426 2.38113 1.02503 1.5874 -3.39438e-08 0.00273262 2.83798e-18 1
429 3.17484 0.299468 1.5874 -4.052e-08 0.00353796 1.57391e-17 1
10 3.96856 1.15393 -3.6952e-16 -4.33304e-08 0.00425618 1.18605e-17 1
11 3.96856 0.360228 0.793701 -4.33304e-08 0.00425618 7.76092e-18 1
16 4.76226 1.20581 0.793701 -4.27336e-08 0.0048696 1.05348e-17 1
430 3.96856 1.15393 1.5874 -4.33304e-08 0.00425618 1.91924e-17 1
433 4.76226 0.412112 1.5874 -4.27336e-08 0.0048696 1.01023e-17 1
15 5.55596 0.453849 0.793701 -3.90481e-08 0.0053631 -1.13297e-18 1
20 6.34964 1.27811 0.793701 -2.53801e-08 0.00572454 -1.47538e-18 1
434 5.55596 1.24755 1.5874 -3.90481e-08 0.0053631 1.43426e-17 1
437 6.34964 0.484414 1.5874 -2.53801e-08 0.00572454 -1.03058e-18 1
19 7.14333 0.503058 0.793701 9.70011e-09 0.00594503 -5.64973e-18 1
23 8.73068 0.503058 0.793701 -9.70011e-09 0.00594503 -1.34168e-18 1
24 7.93701 1.30302 0.793701 -2.74304e-17 0.00601913 -4.0592e-18 1
438 7.14333 1.29676 1.5874 9.70011e-09 0.00594503 8.30647e-19 1
441 7.93701 0.509324 1.5874 -1.55895e-17 0.00601913 5.91579e-18 1
442 8.73068 1.29676 1.5874 -9.70011e-09 0.00594503 2.55741e-17 1
27 10.3181 0.453849 0.793701 3.90481e-08 0.0053631 -1.45034e-17 1
28 9.52437 1.27811 0.793701 2.53801e-08 0.00572454 -6.01932e-18 1
445 9.52437 0.484414 1.5874 2.53801e-08 0.00572454 3.43544e-17 1
446 10.3181 1.24755 1.5874 3.90481e-08 0.0053631 -3.33841e-18 1
30 11.9055 1.15393 -3.17831e-16 4.33304e-08 0.00425618 -2.49235e-17 1
31 11.9055 0.360228 0.793701 4.33304e-08 0.00425618 -2.08072e-17 1
32 11.1118 1.20581 0.793701 4.27336e-08 0.0048696 -6.07754e-17 1
449 11.1118 0.412112 1.5874 4.27336e-08 0.0048696 -1.21349e-17 1
450 11.9055 1.15393 1.5874 4.33304e-08 0.00425618 -4.56326e-17 1
33 12.6992 0.299468 -2.81155e-16 4.052e-08 0.00353796 -1.68967e-17 1
34 13.4929 1.02503 -2.66012e-16 3.39438e-08 0.00273262 -2.59393e-17 1
35 13.4929 0.231326 0.793701 3.39438e-08 0.00273262 -2.07243e-17 1
36 12.6992 1.09317 0.793701 4.052e-08 0.00353796 -1.97827e-17 1
453 12.6992 0.299468 1.5874 4.052e-08 0.00353796 -5.39841e-18 1
454 13.4929 1.02503 1.5874 3.39438e-08 0.00273262 -1.58817e-17 1
37 14.2866 0.157474 -1.59445e-16 2.43526e-08 0.00186 -3.3369e-17 1
38 15.0803 0.873428 9.96744e-18 1.27462e-08 0.000941584 -5.02596e-17 1
39 15.0803 0.0797278 0.793701 1.27462e-08 0.000941584 -6.07891e-17 1
40 14.2866 0.951174 0.793701 2.43526e-08 0.00186 -4.16346e-17 1
41 15.874 -4.56811e-16 2.06995e-16 3.00191e-17 2.08251e-17 -5.59676e-17 1
42 15.874 0.793701 0.793701 3.10271e-17 1.95307e-17 -6.01702e-17 1
79 14.2866 1.74487 -1.32687e-16 2.43526e-08 0.00186 -4.25274e-17 1
81 15.0803 1.66713 0.793701 1.27462e-08 0.000941584 -5.38101e-17 1
83 15.874 1.5874 1.46375e-16 4.49577e-17 4.24808e-17 -6.43738e-17 1
457 14.2866 0.157474 1.5874 2.43526e-08 0.00186 -3.41973e-17 1
458 15.0803 0.873428 1.5874 1.27462e-08 0.000941584 -4.67524e-17 1
461 15.874 -4.057e-16 1.5874 4.00971e-17 1.60205e-17 -4.41997e-17 1
499 14.2866 1.74487 1.5874 2.43526e-08 0.00186 -3.14519e-17 1
503 15.874 1.5874 1.5874 4.36783e-17 4.32815e-17 -4.29752e-17 1
44 0.793704 2.46083 -1.09076e-16 -1.27462e-08 0.000941584 1.00809e-17 1
46 -1.89387e-16 2.3811 0.793701 -6.75915e-17 -1.0657e-16 -3.55554e-18 1
50 1.58742 2.53858 0.793701 -2.43526e-08 0.00186 1.67221e-17 1
85 -1.1792e-16 3.1748 6.64122e-17 -8.04292e-17 -1.19673e-16 -8.66027e-18 1
87 0.793704 3.25453 0.793701 -1.27462e-08 0.000941584 8.24714e-18 1
89 1.58742 3.33228 -1.54594e-16 -2.43526e-08 0.00186 2.16273e-17 1
464 0.793704 2.46083 1.5874 -1.27462e-08 0.000941584 7.86912e-18 1
505 -2.70911e-16 3.1748 1.5874 -5.20622e-17 -1.25257e-16 -1.63974e-19 1
509 1.58742 3.33228 1.5874 -2.43526e-08 0.00186 2.42042e-17 1
49 2.38113 1.81873 0.793701 -3.39438e-08 0.00273262 2.23473e-17 1
51 3.17484 1.88687 -3.21444e-16 -4.052e-08 0.00353796 3.58894e-17 1
471 3.17484 1.88687 1.5874 -4.052e-08 0.00353796 1.06698e-17 1
48 2.38113 2.61243 -2.64932e-16 -3.39438e-08 0.00273262 3.07529e-17 1
54 3.17484 2.68057 0.793701 -4.052e-08 0.00353796 4.57941e-17 1
91 2.38113 3.40613 0.793701 -3.39438e-08 0.00273262 5.63914e-17 1
93 3.17484 3.47427 -3.01151e-16 -4.052e-08 0.00353796 5.83297e-17 1
468 2.38113 2.61243 1.5874 -3.39438e-08 0.00273262 1.18499e-17 1
513 3.17484 3.47427 1.5874 -4.052e-08 0.00353796 4.84464e-17 1
53 3.96856 1.94763 0.793701 -4.33304e-08 0.00425618 3.35087e-17 1
475 4.76226 1.99951 1.5874 -4.27336e-08 0.0048696 4.30206e-17 1
52 3.96856 2.74133 -2.97326e-16 -4.33304e-08 0.00425618 4.5713e-17 1
58 4.76226 2.79321 0.793701 -4.27336e-08 0.0048696 4.10228e-17 1
95 3.96856 3.53503 0.793701 -4.33304e-08 0.00425618 5.77041e-17 1
472 3.96856 2.74133 1.5874 -4.33304e-08 0.00425618 4.62289e-17 1
57 5.55596 2.04125 0.793701 -3.90481e-08 0.0053631 1.46714e-17 1
479 6.34964 2.07182 1.5874 -2.53801e-08 0.00572454 1.29515e-17 1
62 6.34964 2.86552 0.793701 -2.53801e-08 0.00572454 8.22061e-18 1
476 5.55596 2.83495 1.5874 -3.90481e-08 0.0053631 4.44494e-17 1
61 7.14333 2.09046 0.793701 9.70011e-09 0.00594503 -1.35738e-18 1
65 8.73068 2.09046 0.793701 -9.70011e-09 0.00594503 -4.00549e-18 1
483 7.93701 2.09673 1.5874 -3.65764e-17 0.00601913 5.63952e-18 1
66 7.93701 2.89043 0.793701 -5.81322e-17 0.00601913 -8.50184e-19 1
480 7.14333 2.88416 1.5874 9.70011e-09 0.00594503 4.99705e-18 1
484 8.73068 2.88416 1.5874 -9.70011e-09 0.00594503 4.32684e-18 1
69 10.3181 2.04125 0.793701 3.90481e-08 0.0053631 -4.83639e-17 1
487 9.52437 2.07182 1.5874 2.53801e-08 0.00572454 1.13143e-17 1
70 9.52437 2.86552 0.793701 2.53801e-08 0.00572454 -1.1342e-17 1
488 10.3181 2.83495 1.5874 3.90481e-08 0.0053631 -1.44237e-17 1
73 11.9055 1.94763 0.793701 4.33304e-08 0.00425618 -6.17444e-17 1
491 11.1118 1.99951 1.5874 4.27336e-08 0.0048696 -5.73851e-17 1
72 11.9055 2.74133 -3.70005e-16 4.33304e-08 0.00425618 -5.43107e-17 1
74 11.1118 2.79321 0.793701 4.27336e-08 0.0048696 -6.51546e-17 1
115 11.9055 3.53503 0.793701 4.33304e-08 0.00425618 -3.9463e-17 1
492 11.9055 2.74133 1.5874 4.33304e-08 0.00425618 -3.72149e-17 1
77 13.4929 1.81873 0.793701 3.39438e-08 0.00273262 -2.47125e-17 1
75 12.6992 1.88687 -3.29401e-16 4.052e-08 0.00353796 -2.78965e-17 1
495 12.6992 1.88687 1.5874 4.052e-08 0.00353796 -2.91819e-17 1
76 13.4929 2.61243 -2.11332e-16 3.39438e-08 0.00273262 -3.67953e-17 1
78 12.6992 2.68057 0.793701 4.052e-08 0.00353796 -3.34538e-17 1
117 12.6992 3.47427 -2.90357e-16 4.052e-08 0.00353796 -3.80125e-17 1
119 13.4929 3.40613 0.793701 3.39438e-08 0.00273262 -2.64886e-17 1
496 13.4929 2.61243 1.5874 3.39438e-08 0.00273262 -1.94129e-17 1
537 12.6992 3.47427 1.5874 4.052e-08 0.00353796 -1.77157e-17 1
80 15.0803 2.46083 -4.58172e-18 1.27462e-08 0.000941584 -4.76764e-17 1
82 14.2866 2.53858 0.793701 2.43526e-08 0.00186 -2.84457e-17 1
84 15.874 2.3811 0.793701 4.40514e-17 2.85928e-17 -5.87853e-17 1
121 14.2866 3.33228 -8.01721e-17 2.43526e-08 0.00186 -3.9322e-17 1
123 15.0803 3.25453 0.793701 1.27462e-08 0.000941584 -3.1292e-17 1
125 15.874 3.1748 1.15039e-16 6.24724e-17 -4.77686e-19 -5.29535e-17 1
500 15.0803 2.46083 1.5874 1.27462e-08 0.000941584 -3.61926e-17 1
541 14.2866 3.33228 1.5874 2.43526e-08 0.00186 -1.08002e-17 1
545 15.874 3.1748 1.5874 2.38351e-17 4.6432e-18 -3.96588e-17 1
86 0.793704 4.04823 -6.03093e-17 -1.27462e-08 0.000941584 1.11186e-17 1
88 -1.68449e-16 3.9685 0.793701 -5.17468e-17 -1.29229e-16 -6.35275e-18 1
92 1.58742 4.12598 0.793701 -2.43526e-08 0.00186 4.99549e-17 1
127 -1.44172e-17 4.7622 2.41858e-16 -5.46366e-17 -1.31778e-16 -1.18712e-17 1
129 0.793704 4.84193 0.793701 -1.27462e-08 0.000941584 1.98154e-17 1
131 1.58742 4.91968 -5.67415e-17 -2.43526e-08 0.00186 6.91697e-17 1
506 0.793704 4.04823 1.5874 -1.27462e-08 0.000941584 1.59872e-17 1
547 -2.32977e-16 4.7622 1.5874 -2.22873e-17 -1.21325e-16 6.93843e-18 1
551 1.58742 4.91968 1.5874 -2.43526e-08 0.00186 3.06954e-17 1
90 2.38113 4.19983 -1.5726e-16 -3.39438e-08 0.00273262 7.73565e-17 1
96 3.17484 4.26797 0.793701 -4.052e-08 0.00353796 8.84968e-17 1
133 2.38113 4.99353 0.793701 -3.39438e-08 0.00273262 8.5016e-17 1
135 3.17484 5.06167 -1.7683e-16 -4.052e-08 0.00353796 1.09294e-16 1
510 2.38113 4.19983 1.5874 -3.39438e-08 0.00273262 5.39985e-17 1
555 3.17484 5.06167 1.5874 -4.052e-08 0.00353796 4.8122e-17 1
517 4.76226 3.58691 1.5874 -4.27336e-08 0.0048696 4.97703e-17 1
94 3.96856 4.32873 -2.68508e-16 -4.33304e-08 0.00425618 7.46586e-17 1
100 4.76226 4.38061 0.793701 -4.27336e-08 0.0048696 3.45887e-17 1
137 3.96856 5.12243 0.793701 -4.33304e-08 0.00425618 5.63377e-17 1
514 3.96856 4.32873 1.5874 -4.33304e-08 0.00425618 4.55476e-17 1
559 4.76226 5.17432 1.5874 -4.27336e-08 0.0048696 1.55771e-17 1
99 5.55596 3.62865 0.793701 -3.90481e-08 0.0053631 2.58645e-17 1
521 6.34964 3.65922 1.5874 -2.53801e-08 0.00572454 2.53947e-17 1
104 6.34964 4.45292 0.793701 -2.53801e-08 0.00572454 2.10929e-17 1
141 5.55596 5.21605 0.793701 -3.90481e-08 0.0053631 2.01977e-17 1
518 5.55596 4.42235 1.5874 -3.90481e-08 0.0053631 2.90681e-17 1
563 6.34964 5.24662 1.5874 -2.53801e-08 0.00572454 1.78772e-17 1
103 7.14333 3.67786 0.793701 9.70011e-09 0.00594503 7.8282e-18 1
107 8.73068 3.67786 0.793701 -9.70011e-09 0.00594503 -1.24136e-18 1
525 7.93701 3.68413 1.5874 -7.49963e-17 0.00601913 3.22302e-18 1
108 7.93701 4.47783 0.793701 -6.81578e-17 0.00601913 5.45887e-18 1
145 7.14333 5.26526 0.793701 9.70011e-09 0.00594503 1.39512e-17 1
149 8.73068 5.26526 0.793701 -9.70011e-09 0.00594503 6.46478e-19 1
522 7.14333 4.47156 1.5874 9.70011e-09 0.00594503 1.71211e-17 1
526 8.73068 4.47156 1.5874 -9.70011e-09 0.00594503 -1.09859e-18 1
567 7.93701 5.27153 1.5874 -6.06406e-17 0.00601913 2.88436e-19 1
111 10.3181 3.62865 0.793701 3.90481e-08 0.0053631 -2.08098e-17 1
529 9.52437 3.65922 1.5874 2.53801e-08 0.00572454 -2.55828e-18 1
112 9.52437 4.45292 0.793701 2.53801e-08 0.00572454 -4.80899e-18 1
153 10.3181 5.21605 0.793701 3.90481e-08 0.0053631 -2.66816e-17 1
530 10.3181 4.42235 1.5874 3.90481e-08 0.0053631 -1.08909e-17 1
571 9.52437 5.24662 1.5874 2.53801e-08 0.00572454 -1.20021e-17 1
533 11.1118 3.58691 1.5874 4.27336e-08 0.0048696 -1.60513e-17 1
114 11.9055 4.32873 -2.83248e-16 4.33304e-08 0.00425618 -2.78597e-17 1
116 11.1118 4.38061 0.793701 4.27336e-08 0.0048696 -4.1524e-17 1
157 11.9055 5.12243 0.793701 4.33304e-08 0.00425618 -4.09966e-17 1
534 11.9055 4.32873 1.5874 4.33304e-08 0.00425618 -1.37462e-17 1
575 11.1118 5.17432 1.5874 4.27336e-08 0.0048696 -1.90374e-17 1
118 13.4929 4.19983 -2.00773e-16 3.39438e-08 0.00273262 -3.70766e-17 1
120 12.6992 4.26797 0.793701 4.052e-08 0.00353796 -3.07127e-17 1
159 12.6992 5.06167 -3.12995e-16 4.052e-08 0.00353796 -2.82663e-17 1
161 13.4929 4.99353 0.793701 3.39438e-08 0.00273262 -1.82363e-17 1
538 13.4929 4.19983 1.5874 3.39438e-08 0.00273262 -5.64733e-18 1
579 12.6992 5.06167 1.5874 4.052e-08 0.00353796 -4.97976e-18 1
122 15.0803 4.04823 1.30584e-17 1.27462e-08 0.000941584 -3.57205e-17 1
124 14.2866 4.12598 0.793701 2.43526e-08 0.00186 -1.64166e-17 1
126 15.874 3.9685 0.793701 3.95052e-17 -1.6525e-17 -5.53352e-17 1
163 14.2866 4.91968 -1.09955e-16 2.43526e-08 0.00186 -2.30592e-17 1
165 15.0803 4.84193 0.793701 1.27462e-08 0.000941584 -2.33055e-17 1
167 15.874 4.7622 1.55143e-16 5.11709e-17 -4.68867e-17 -4.51761e-17 1
542 15.0803 4.04823 1.5874 1.27462e-08 0.000941584 -1.40151e-17 1
583 14.2866 4.91968 1.5874 2.43526e-08 0.00186 -8.28109e-18 1
587 15.874 4.7622 1.5874 7.05381e-18 -3.52447e-17 -3.0585e-17 1
128 0.793704 5.63563 -6.91186e-18 -1.27462e-08 0.000941584 2.7874e-17 1
130 -1.16035e-16 5.5559 0.793701 -2.12842e-17 -1.1996e-16 4.89746e-18 1
134 1.58742 5.71338 0.793701 -2.43526e-08 0.00186 4.65846e-17 1
169 -6.92195e-17 6.3496 4.01835e-16 -2.83727e-17 -1.24266e-16 3.08067e-18 1
171 0.793704 6.42933 0.793701 -1.27462e-08 0.000941584 2.15803e-17 1
173 1.58742 6.50708 5.64525e-19 -2.43526e-08 0.00186 7.9061e-17 1
548 0.793704 5.63563 1.5874 -1.27462e-08 0.000941584 1.64431e-17 1
589 -1.98846e-16 6.3496 1.5874 -5.4717e-18 -1.27749e-16 3.72248e-18 1
593 1.58742 6.50708 1.5874 -2.43526e-08 0.00186 9.51711e-18 1
132 2.38113 5.78723 -6.97138e-17 -3.39438e-08 0.00273262 1.19906e-16 1
138 3.17484 5.85537 0.793701 -4.052e-08 0.00353796 6.7545e-17 1
175 2.38113 6.58093 0.793701 -3.39438e-08 0.00273262 5.62219e-17 1
177 3.17484 6.64907 -1.53157e-16 -4.052e-08 0.00353796 1.18112e-16 1
552 2.38113 5.78723 1.5874 -3.39438e-08 0.00273262 2.7583e-17 1
597 3.17484 6.64907 1.5874 -4.052e-08 0.00353796 1.50876e-17 1
136 3.96856 5.91613 -2.30943e-16 -4.33304e-08 0.00425618 8.79532e-17 1
142 4.76226 5.96802 0.793701 -4.27336e-08 0.0048696 2.58537e-17 1
179 3.96856 6.70983 0.793701 -4.33304e-08 0.00425618 4.34251e-17 1
181 4.76226 6.76172 -1.92833e-16 -4.27336e-08 0.0048696 8.39647e-17 1
556 3.96856 5.91613 1.5874 -4.33304e-08 0.00425618 1.74825e-17 1
601 4.76226 6.76172 1.5874 -4.27336e-08 0.0048696 8.66103e-18 1
146 6.34964 6.04032 0.793701 -2.53801e-08 0.00572454 1.9689e-17 1
183 5.55596 6.80345 0.793701 -3.90481e-08 0.0053631 2.73804e-17 1
560 5.55596 6.00975 1.5874 -3.90481e-08 0.0053631 6.66447e-18 1
605 6.34964 6.83402 1.5874 -2.53801e-08 0.00572454 2.02565e-18 1
150 7.93701 6.06523 0.793701 -2.74643e-17 0.00601913 3.21424e-18 1
187 7.14333 6.85266 0.793701 9.70011e-09 0.00594503 7.31772e-18 1
191 8.73068 6.85266 0.793701 -9.70011e-09 0.00594503 -2.79285e-18 1
564 7.14333 6.05896 1.5874 9.70011e-09 0.00594503 4.99742e-19 1
568 8.73068 6.05896 1.5874 -9.70011e-09 0.00594503 -1.31309e-17 1
609 7.93701 6.85893 1.5874 -4.29752e-18 0.00601913 -1.06563e-17 1
154 9.52437 6.04032 0.793701 2.53801e-08 0.00572454 -3.84363e-18 1
195 10.3181 6.80345 0.793701 3.90481e-08 0.0053631 -1.21901e-17 1
572 10.3181 6.00975 1.5874 3.90481e-08 0.0053631 -2.12369e-17 1
613 9.52437 6.83402 1.5874 2.53801e-08 0.00572454 -2.97612e-17 1
156 11.9055 5.91613 -1.89344e-16 4.33304e-08 0.00425618 -1.3439e-17 1
158 11.1118 5.96802 0.793701 4.27336e-08 0.0048696 -2.94968e-17 1
199 11.9055 6.70983 0.793701 4.33304e-08 0.00425618 -1.58617e-17 1
576 11.9055 5.91613 1.5874 4.33304e-08 0.00425618 -8.53767e-18 1
617 11.1118 6.76172 1.5874 4.27336e-08 0.0048696 -1.9955e-17 1
160 13.4929 5.78723 -2.40517e-16 3.39438e-08 0.00273262 -1.86429e-17 1
162 12.6992 5.85537 0.793701 4.052e-08 0.00353796 -1.45969e-17 1
201 12.6992 6.64907 -2.24177e-16 4.052e-08 0.00353796 -1.13266e-17 1
203 13.4929 6.58093 0.793701 3.39438e-08 0.00273262 -8.37679e-18 1
580 13.4929 5.78723 1.5874 3.39438e-08 0.00273262 -5.718e-18 1
621 12.6992 6.64907 1.5874 4.052e-08 0.00353796 -2.61116e-18 1
164 15.0803 5.63563 7.33423e-18 1.27462e-08 0.000941584 -2.30519e-17 1
166 14.2866 5.71338 0.793701 2.43526e-08 0.00186 -1.51292e-17 1
168 15.874 5.5559 0.793701 1.28659e-17 -6.08883e-17 -4.00922e-17 1
205 14.2866 6.50708 -1.23975e-16 2.43526e-08 0.00186 -1.52949e-17 1
207 15.0803 6.42933 0.793701 1.27462e-08 0.000941584 -2.74357e-17 1
209 15.874 6.3496 1.20013e-16 1.77943e-17 -7.50367e-17 -3.60689e-17 1
584 15.0803 5.63563 1.5874 1.27462e-08 0.000941584 -2.4926e-17 1
625 14.2866 6.50708 1.5874 2.43526e-08 0.00186 -1.97944e-17 1
629 15.874 6.3496 1.5874 7.67085e-18 -6.28192e-17 -2.56899e-17 1
170 0.793704 7.22303 3.38668e-17 -1.27462e-08 0.000941584 2.80617e-17 1
172 -2.0433e-16 7.1433 0.793701 -9.95591e-18 -1.40721e-16 4.78182e-18 1
176 1.58742 7.30078 0.793701 -2.43526e-08 0.00186 3.29449e-17 1
211 -1.88467e-16 7.93701 4.09398e-16 -1.92839e-17 -1.54182e-16 -1.47308e-19 1
212 0.793704 8.81043 -1.79976e-17 -1.27462e-08 0.000941584 8.59396e-18 1
213 0.793704 8.01673 0.793701 -1.27462e-08 0.000941584 1.2327e-17 1
214 -2.44024e-16 8.73071 0.793701 -8.04436e-18 -1.70166e-16 3.60431e-18 1
215 1.58742 8.09448 -5.03569e-17 -2.43526e-08 0.00186 4.78037e-17 1
590 0.793704 7.22303 1.5874 -1.27462e-08 0.000941584 1.18977e-18 1
631 -2.74174e-16 7.93701 1.5874 1.30098e-18 -1.51225e-16 4.43758e-19 1
632 0.793704 8.81043 1.5874 -1.27462e-08 0.000941584 1.22262e-17 1
635 1.58742 8.09448 1.5874 -2.43526e-08 0.00186 -5.53632e-18 1
174 2.38113 7.37463 -6.08989e-17 -3.39438e-08 0.00273262 1.04711e-16 1
180 3.17484 7.44277 0.793701 -4.052e-08 0.00353796 5.21058e-17 1
217 2.38113 8.16833 0.793701 -3.39438e-08 0.00273262 3.2647e-17 1
219 3.17484 8.23647 -1.01227e-16 -4.052e-08 0.00353796 6.28521e-17 1
594 2.38113 7.37463 1.5874 -3.39438e-08 0.00273262 -6.23727e-18 1
639 3.17484 8.23647 1.5874 -4.052e-08 0.00353796 2.93807e-18 1
178 3.96856 7.50353 -1.42191e-16 -4.33304e-08 0.00425618 9.01892e-17 1
184 4.76226 7.55542 0.793701 -4.27336e-08 0.0048696 4.1971e-17 1
221 3.96856 8.29723 0.793701 -4.33304e-08 0.00425618 3.31057e-17 1
598 3.96856 7.50353 1.5874 -4.33304e-08 0.00425618 1.20941e-17 1
643 4.76226 8.34912 1.5874 -4.27336e-08 0.0048696 1.17194e-17 1
188 6.34964 7.62772 0.793701 -2.53801e-08 0.00572454 1.50897e-17 1
225 5.55596 8.39085 0.793701 -3.90481e-08 0.0053631 2.1584e-17 1
602 5.55596 7.59715 1.5874 -3.90481e-08 0.0053631 6.52603e-18 1
647 6.34964 8.42142 1.5874 -2.53801e-08 0.00572454 4.28494e-18 1
192 7.93701 7.65263 0.793701 2.00032e-17 0.00601913 -7.03694e-20 1
229 7.14333 8.44006 0.793701 9.70011e-09 0.00594503 3.40849e-18 1
233 8.73068 8.44006 0.793701 -9.70011e-09 0.00594503 -5.45025e-18 1
606 7.14333 7.64636 1.5874 9.70011e-09 0.00594503 -2.71002e-18 1
610 8.73068 7.64636 1.5874 -9.70011e-09 0.00594503 -2.479e-17 1
651 7.93701 8.44633 1.5874 2.45552e-18 0.00601913 -1.00718e-17 1
196 9.52437 7.62772 0.793701 2.53801e-08 0.00572454 -1.21186e-17 1
237 10.3181 8.39085 0.793701 3.90481e-08 0.0053631 -2.88118e-17 1
614 10.3181 7.59715 1.5874 3.90481e-08 0.0053631 -3.59316e-17 1
655 9.52437 8.42142 1.5874 2.53801e-08 0.00572454 -2.8442e-17 1
200 11.1118 7.55542 0.793701 4.27336e-08 0.0048696 -3.27018e-17 1
241 11.9055 8.29723 0.793701 4.33304e-08 0.00425618 -2.36977e-17 1
618 11.9055 7.50353 1.5874 4.33304e-08 0.00425618 -1.44102e-17 1
659 11.1118 8.34912 1.5874 4.27336e-08 0.0048696 -2.43029e-17 1
202 13.4929 7.37463 -1.48097e-16 3.39438e-08 0.00273262 -9.31517e-18 1
204 12.6992 7.44277 0.793701 4.052e-08 0.00353796 -5.9689e-18 1
243 12.6992 8.23647 -1.44194e-16 4.052e-08 0.00353796 -7.79868e-18 1
245 13.4929 8.16833 0.793701 3.39438e-08 0.00273262 -2.02414e-18 1
622 13.4929 7.37463 1.5874 3.39438e-08 0.00273262 -2.23283e-18 1
663 12.6992 8.23647 1.5874 4.052e-08 0.00353796 2.93864e-19 1
206 15.0803 7.22303 -3.07067e-17 1.27462e-08 0.000941584 -2.69195e-17 1
208 14.2866 7.30078 0.793701 2.43526e-08 0.00186 -2.12628e-17 1
210 15.874 7.1433 0.793701 1.39189e-17 -7.1093e-17 -2.69554e-17 1
247 14.2866 8.09448 -1.13875e-16 2.43526e-08 0.00186 -2.2873e-17 1
248 15.0803 8.81043 -3.42819e-17 1.27462e-08 0.000941584 -2.77943e-17 1
249 15.0803 8.01673 0.793701 1.27462e-08 0.000941584 -2.68236e-17 1
251 15.874 7.93701 8.13672e-17 1.34395e-17 -7.31057e-17 -2.60346e-17 1
252 15.874 8.73071 0.793701 3.37324e-17 -6.00534e-17 -2.21056e-17 1
626 15.0803 7.22303 1.5874 1.27462e-08 0.000941584 -2.50438e-17 1
667 14.2866 8.09448 1.5874 2.43526e-08 0.00186 -6.67204e-18 1
668 15.0803 8.81043 1.5874 1.27462e-08 0.000941584 -1.62927e-17 1
671 15.874 7.93701 1.5874 3.38394e-17 -6.84471e-17 -2.08672e-17 1
218 1.58742 8.88818 0.793701 -2.43526e-08 0.00186 1.70527e-17 1
253 -2.01613e-16 9.52441 2.38993e-16 -1.79116e-17 -1.78564e-16 3.18982e-18 1
254 0.793704 10.3978 -2.98758e-17 -1.27462e-08 0.000941584 -3.61465e-19 1
255 0.793704 9.60413 0.793701 -1.27462e-08 0.000941584 1.19191e-17 1
256 -1.75749e-16 10.3181 0.793701 -3.89507e-17 -1.4841e-16 1.19513e-17 1
257 1.58742 9.68188 -1.03521e-16 -2.43526e-08 0.00186 6.47218e-19 1
260 1.58742 10.4756 0.793701 -2.43526e-08 0.00186 1.43307e-17 1
673 -1.86803e-16 9.52441 1.5874 -1.32847e-17 -1.70659e-16 1.56532e-17 1
674 0.793704 10.3978 1.5874 -1.27462e-08 0.000941584 2.60378e-17 1
677 1.58742 9.68188 1.5874 -2.43526e-08 0.00186 2.2428e-17 1
216 2.38113 8.96203 -9.25784e-17 -3.39438e-08 0.00273262 2.54186e-17 1
222 3.17484 9.03017 0.793701 -4.052e-08 0.00353796 1.53693e-17 1
636 2.38113 8.96203 1.5874 -3.39438e-08 0.00273262 6.09599e-18 1
258 2.38113 10.5494 -1.93608e-16 -3.39438e-08 0.00273262 -1.20976e-17 1
259 2.38113 9.75573 0.793701 -3.39438e-08 0.00273262 1.00885e-17 1
261 3.17484 9.82387 -2.10906e-16 -4.052e-08 0.00353796 -5.81902e-18 1
678 2.38113 10.5494 1.5874 -3.39438e-08 0.00273262 2.75926e-17 1
681 3.17484 9.82387 1.5874 -4.052e-08 0.00353796 1.5975e-17 1
220 3.96856 9.09093 -5.9677e-17 -4.33304e-08 0.00425618 1.30363e-17 1
226 4.76226 9.14282 0.793701 -4.27336e-08 0.0048696 1.0107e-17 1
640 3.96856 9.09093 1.5874 -4.33304e-08 0.00425618 1.11117e-17 1
263 3.96856 9.88463 0.793701 -4.33304e-08 0.00425618 -2.67762e-18 1
685 4.76226 9.93652 1.5874 -4.27336e-08 0.0048696 8.85461e-18 1
230 6.34964 9.21512 0.793701 -2.53801e-08 0.00572454 2.33302e-18 1
644 5.55596 9.18455 1.5874 -3.90481e-08 0.0053631 9.42922e-18 1
267 5.55596 9.97826 0.793701 -3.90481e-08 0.0053631 2.23142e-18 1
689 6.34964 10.0088 1.5874 -2.53801e-08 0.00572454 5.56367e-18 1
234 7.93701 9.24003 0.793701 -9.18107e-18 0.00601913 -3.09583e-18 1
648 7.14333 9.23376 1.5874 9.70011e-09 0.00594503 8.78565e-19 1
652 8.73068 9.23376 1.5874 -9.70011e-09 0.00594503 -9.8143e-18 1
271 7.14333 10.0275 0.793701 9.70011e-09 0.00594503 -4.44383e-18 1
275 8.73068 10.0275 0.793701 -9.70011e-09 0.00594503 -3.30765e-18 1
693 7.93701 10.0337 1.5874 -2.21843e-17 0.00601913 1.03308e-17 1
238 9.52437 9.21512 0.793701 2.53801e-08 0.00572454 -1.17842e-17 1
656 10.3181 9.18455 1.5874 3.90481e-08 0.0053631 -1.19687e-17 1
279 10.3181 9.97826 0.793701 3.90481e-08 0.0053631 -1.19994e-17 1
697 9.52437 10.0088 1.5874 2.53801e-08 0.00572454 6.22302e-18 1
240 11.9055 9.09093 -1.92585e-16 4.33304e-08 0.00425618 -1.4775e-17 1
242 11.1118 9.14282 0.793701 4.27336e-08 0.0048696 -2.55602e-17 1
660 11.9055 9.09093 1.5874 4.33304e-08 0.00425618 -9.47557e-19 1
283 11.9055 9.88463 0.793701 4.33304e-08 0.00425618 -5.46561e-18 1
701 11.1118 9.93652 1.5874 4.27336e-08 0.0048696 4.84115e-18 1
244 13.4929 8.96203 -1.11723e-16 3.39438e-08 0.00273262 -4.7981e-18 1
246 12.6992 9.03017 0.793701 4.052e-08 0.00353796 1.48159e-20 1
664 13.4929 8.96203 1.5874 3.39438e-08 0.00273262 1.77766e-18 1
285 12.6992 9.82387 -1.40386e-16 4.052e-08 0.00353796 -7.75066e-18 1
286 13.4929 10.5494 -1.13089e-16 3.39438e-08 0.00273262 -2.7042e-17 1
287 13.4929 9.75573 0.793701 3.39438e-08 0.00273262 -2.1465e-18 1
705 12.6992 9.82387 1.5874 4.052e-08 0.00353796 8.77535e-18 1
706 13.4929 10.5494 1.5874 3.39438e-08 0.00273262 5.06465e-18 1
250 14.2866 8.88818 0.793701 2.43526e-08 0.00186 -1.02424e-17 1
289 14.2866 9.68188 -7.32095e-17 2.43526e-08 0.00186 -1.14529e-17 1
290 15.0803 10.3978 -4.09447e-17 1.27462e-08 0.000941584 -1.91737e-17 1
291 15.0803 9.60413 0.793701 1.27462e-08 0.000941584 -2.32489e-17 1
292 14.2866 10.4756 0.793701 2.43526e-08 0.00186 -2.37206e-17 1
293 15.874 9.52441 4.46823e-17 3.69829e-17 -4.54666e-17 -2.39021e-17 1
294 15.874 10.3181 0.793701 4.12566e-17 -4.29886e-17 -2.86663e-17 1
709 14.2866 9.68188 1.5874 2.43526e-08 0.00186 -1.06581e-17 1
710 15.0803 10.3978 1.5874 1.27462e-08 0.000941584 -2.34789e-17 1
713 15.874 9.52441 1.5874 3.88041e-17 -4.85531e-17 -2.47632e-17 1
295 -1.33788e-16 11.1118 5.54381e-17 -5.3314e-17 -1.30279e-16 1.24716e-17 1
296 0.793704 11.9852 -1.99919e-17 -1.27462e-08 0.000941584 1.23399e-17 1
297 0.793704 11.1915 0.793701 -1.27462e-08 0.000941584 1.88954e-17 1
298 -8.83699e-17 11.9055 0.793701 -6.29853e-17 -1.1482e-16 3.0022e-17 1
299 1.58742 11.2693 -9.01655e-17 -2.43526e-08 0.00186 -1.46972e-18 1
302 1.58742 12.063 0.793701 -2.43526e-08 0.00186 2.01793e-17 1
715 -1.3081e-16 11.1118 1.5874 -5.51672e-17 -1.12186e-16 2.99169e-17 1
716 0.793704 11.9852 1.5874 -1.27462e-08 0.000941584 3.61155e-17 1
719 1.58742 11.2693 1.5874 -2.43526e-08 0.00186 2.94526e-17 1
264 3.17484 10.6176 0.793701 -4.052e-08 0.00353796 -1.92822e-18 1
300 2.38113 12.1368 -1.44086e-16 -3.39438e-08 0.00273262 -3.2987e-18 1
301 2.38113 11.3431 0.793701 -3.39438e-08 0.00273262 8.7044e-18 1
303 3.17484 11.4113 -2.18709e-16 -4.052e-08 0.00353796 -1.51744e-17 1
306 3.17484 12.205 0.793701 -4.052e-08 0.00353796 8.32511e-18 1
720 2.38113 12.1368 1.5874 -3.39438e-08 0.00273262 2.24362e-17 1
723 3.17484 11.4113 1.5874 -4.052e-08 0.00353796 1.90222e-17 1
262 3.96856 10.6783 -2.59225e-16 -4.33304e-08 0.00425618 -1.76725e-17 1
268 4.76226 10.7302 0.793701 -4.27336e-08 0.0048696 -1.33398e-18 1
682 3.96856 10.6783 1.5874 -4.33304e-08 0.00425618 1.07894e-17 1
305 3.96856 11.472 0.793701 -4.33304e-08 0.00425618 4.77191e-19 1
310 4.76226 12.3176 0.793701 -4.27336e-08 0.0048696 7.70454e-19 1
724 3.96856 12.2657 1.5874 -4.33304e-08 0.00425618 8.00894e-18 1
727 4.76226 11.5239 1.5874 -4.27336e-08 0.0048696 9.59929e-18 1
272 6.34964 10.8025 0.793701 -2.53801e-08 0.00572454 6.36231e-19 1
686 5.55596 10.772 1.5874 -3.90481e-08 0.0053631 7.23756e-18 1
309 5.55596 11.5657 0.793701 -3.90481e-08 0.0053631 1.54013e-18 1
314 6.34964 12.3899 0.793701 -2.53801e-08 0.00572454 -1.01783e-17 1
728 5.55596 12.3594 1.5874 -3.90481e-08 0.0053631 2.39331e-19 1
731 6.34964 11.5962 1.5874 -2.53801e-08 0.00572454 2.13637e-18 1
276 7.93701 10.8274 0.793701 -4.19227e-17 0.00601913 -2.21942e-18 1
690 7.14333 10.8212 1.5874 9.70011e-09 0.00594503 1.49225e-17 1
694 8.73068 10.8212 1.5874 -9.70011e-09 0.00594503 3.07744e-17 1
313 7.14333 11.6149 0.793701 9.70011e-09 0.00594503 -6.44195e-18 1
317 8.73068 11.6149 0.793701 -9.70011e-09 0.00594503 1.13402e-17 1
735 7.93701 11.6211 1.5874 -4.50432e-17 0.00601913 3.22641e-17 1
280 9.52437 10.8025 0.793701 2.53801e-08 0.00572454 3.5317e-18 1
698 10.3181 10.772 1.5874 3.90481e-08 0.0053631 2.72431e-17 1
321 10.3181 11.5657 0.793701 3.90481e-08 0.0053631 1.08371e-17 1
322 9.52437 12.3899 0.793701 2.53801e-08 0.00572454 2.06953e-17 1
739 9.52437 11.5962 1.5874 2.53801e-08 0.00572454 4.98369e-17 1
740 10.3181 12.3594 1.5874 3.90481e-08 0.0053631 6.37648e-17 1
282 11.9055 10.6783 -2.19389e-16 4.33304e-08 0.00425618 -2.94243e-17 1
284 11.1118 10.7302 0.793701 4.27336e-08 0.0048696 -5.70118e-18 1
702 11.9055 10.6783 1.5874 4.33304e-08 0.00425618 2.41942e-17 1
324 11.9055 12.2657 -2.75012e-16 4.33304e-08 0.00425618 -6.31923e-17 1
325 11.9055 11.472 0.793701 4.33304e-08 0.00425618 -5.13181e-18 1
326 11.1118 12.3176 0.793701 4.27336e-08 0.0048696 6.15696e-18 1
743 11.1118 11.5239 1.5874 4.27336e-08 0.0048696 5.1609e-17 1
744 11.9055 12.2657 1.5874 4.33304e-08 0.00425618 6.46654e-17 1
288 12.6992 10.6176 0.793701 4.052e-08 0.00353796 -3.11359e-18 1
327 12.6992 11.4113 -1.78698e-16 4.052e-08 0.00353796 -5.54299e-17 1
328 13.4929 12.1368 -1.19097e-16 3.39438e-08 0.00273262 -7.40456e-17 1
329 13.4929 11.3431 0.793701 3.39438e-08 0.00273262 -2.17023e-17 1
330 12.6992 12.205 0.793701 4.052e-08 0.00353796 -1.22294e-17 1
747 12.6992 11.4113 1.5874 4.052e-08 0.00353796 3.86468e-17 1
748 13.4929 12.1368 1.5874 3.39438e-08 0.00273262 3.62801e-17 1
331 14.2866 11.2693 -8.08457e-17 2.43526e-08 0.00186 -4.62455e-17 1
332 15.0803 11.9852 -2.83157e-17 1.27462e-08 0.000941584 -4.26262e-17 1
333 15.0803 11.1915 0.793701 1.27462e-08 0.000941584 -3.57532e-17 1
334 14.2866 12.063 0.793701 2.43526e-08 0.00186 -3.16421e-17 1
335 15.874 11.1118 3.00814e-17 4.44689e-17 -4.68294e-17 -2.4649e-17 1
336 15.874 11.9055 0.793701 7.1686e-17 -4.97186e-17 -2.92408e-17 1
751 14.2866 11.2693 1.5874 2.43526e-08 0.00186 -6.16939e-18 1
752 15.0803 11.9852 1.5874 1.27462e-08 0.000941584 -8.11005e-18 1
755 15.874 11.1118 1.5874 6.09466e-17 -4.89575e-17 -1.83793e-17 1
337 -3.31575e-17 12.6992 9.24444e-17 -5.71483e-17 -1.15962e-16 2.82011e-17 1
338 0.793704 13.5726 -3.03243e-17 -1.27462e-08 0.000941584 2.10757e-17 1
339 0.793704 12.7789 0.793701 -1.27462e-08 0.000941584 3.38887e-17 1
340 -3.5268e-17 13.4929 0.793701 -7.06737e-17 -1.05134e-16 3.69557e-17 1
341 1.58742 12.8567 -9.78988e-17 -2.43526e-08 0.00186 1.07469e-17 1
344 1.58742 13.6504 0.793701 -2.43526e-08 0.00186 2.7535e-17 1
757 -5.09287e-17 12.6992 1.5874 -6.3368e-17 -1.11983e-16 3.63068e-17 1
758 0.793704 13.5726 1.5874 -1.27462e-08 0.000941584 3.38269e-17 1
761 1.58742 12.8567 1.5874 -2.43526e-08 0.00186 2.90799e-17 1
342 2.38113 13.7242 -2.12843e-16 -3.39438e-08 0.00273262 4.39496e-18 1
343 2.38113 12.9305 0.793701 -3.39438e-08 0.00273262 1.4579e-17 1
345 3.17484 12.9987 -2.61094e-16 -4.052e-08 0.00353796 -3.24559e-18 1
348 3.17484 13.7924 0.793701 -4.052e-08 0.00353796 6.77899e-18 1
762 2.38113 13.7242 1.5874 -3.39438e-08 0.00273262 1.90136e-17 1
765 3.17484 12.9987 1.5874 -4.052e-08 0.00353796 1.03494e-17 1
346 3.96856 13.8531 -3.66923e-16 -4.33304e-08 0.00425618 -3.71412e-18 1
347 3.96856 13.0594 0.793701 -4.33304e-08 0.00425618 5.72544e-18 1
349 4.76226 13.1113 -3.84545e-16 -4.27336e-08 0.0048696 -1.02373e-17 1
352 4.76226 13.905 0.793701 -4.27336e-08 0.0048696 -1.56682e-19 1
766 3.96856 13.8531 1.5874 -4.33304e-08 0.00425618 3.52307e-18 1