ITEM: TIMESTEP
11000
ITEM: NUMBER OF ATOMS
8000
ITEM: BOX BOUNDS pp pp pp
0.0000000000000000e+00 3.1748021039364001e+01
0.0000000000000000e+00 1.5874010519682001e+01
0.0000000000000000e+00 1.5874010519682001e+01
ITEM: ATOMS id x y z vx vy vz c_rho_peratom
2 0.793703 0.863637 -1.65555e-16 1.60848e-08 0.00101807 4.15478e-19 1
3 0.793703 0.0699368 0.793701 1.60848e-08 0.00101807 7.03169e-18 1
4 8.46345e-17 0.793701 0.793701 2.1923e-17 -7.42771e-17 1.06287e-17 1
5 1.58741 0.138137 -3.0686e-16 3.04953e-08 0.00201109 -7.81949e-19 1
8 1.58741 0.931838 0.793701 3.04953e-08 0.00201109 7.34884e-18 1
43 1.51165e-16 1.5874 4.8561e-17 2.45511e-17 -6.60161e-17 2.7811e-18 1
45 0.793703 1.65734 0.793701 1.60848e-08 0.00101807 1.07597e-17 1
47 1.58741 1.72554 -3.18854e-16 3.04953e-08 0.00201109 -4.66001e-19 1
422 0.793703 0.863637 1.5874 1.60848e-08 0.00101807 1.54599e-17 1
425 1.58741 0.138137 1.5874 3.04953e-08 0.00201109 1.21031e-17 1
463 4.41882e-17 1.5874 1.5874 2.29562e-17 -6.44368e-17 1.71829e-17 1
467 1.58741 1.72554 1.5874 3.04953e-08 0.00201109 1.62638e-17 1
6 2.38112 0.996624 -4.82628e-16 4.16334e-08 0.00295459 -8.48681e-18 1
7 2.38112 0.202923 0.793701 4.16334e-08 0.00295459 3.67666e-18 1
9 3.17483 0.262703 -7.24674e-16 4.84833e-08 0.00382534 -2.34185e-17 1
12 3.17483 1.0564 0.793701 4.84833e-08 0.00382534 2.90918e-18 1
49 2.38112 1.79032 0.793701 4.16334e-08 0.00295459 6.82046e-18 1
426 2.38112 0.996624 1.5874 4.16334e-08 0.00295459 1.99281e-17 1
429 3.17483 0.262703 1.5874 4.84833e-08 0.00382534 1.32772e-17 1
10 3.96854 1.10971 -7.63194e-16 5.04429e-08 0.0046019 -8.35041e-18 1
11 3.96854 0.316006 0.793701 5.04429e-08 0.0046019 -5.23006e-18 1
16 4.76224 1.15523 0.793701 4.65785e-08 0.00526514 -1.42621e-18 1
430 3.96854 1.10971 1.5874 5.04429e-08 0.0046019 3.86208e-18 1
433 4.76224 0.361525 1.5874 4.65785e-08 0.00526514 -5.10477e-18 1
15 5.55594 0.398141 0.793701 3.69366e-08 0.00579873 -8.69231e-18 1
20 6.34963 1.21866 0.793701 3.02537e-08 0.00618954 -2.70215e-18 1
434 5.55594 1.19184 1.5874 3.69366e-08 0.00579873 -6.34387e-18 1
437 6.34963 0.424957 1.5874 3.02537e-08 0.00618954 -1.00252e-17 1
19 7.14332 0.441315 0.793701 4.06972e-08 0.00642794 -7.60591e-18 1
23 8.73069 0.441315 0.793701 -4.06972e-08 0.00642794 -3.77812e-18 1
24 7.93701 1.24051 0.793701 1.12042e-16 0.00650807 -3.51556e-18 1
438 7.14332 1.23502 1.5874 4.06972e-08 0.00642794 -7.99037e-18 1
441 7.93701 0.446812 1.5874 9.53632e-17 0.00650807 -1.07271e-17 1
442 8.73069 1.23502 1.5874 -4.06972e-08 0.00642794 -1.6723e-17 1
27 10.3181 0.398141 0.793701 -3.69366e-08 0.00579873 -7.18383e-18 1
28 9.52438 1.21866 0.793701 -3.02537e-08 0.00618954 -4.7616e-18 1
445 9.52438 0.424957 1.5874 -3.02537e-08 0.00618954 -1.095e-17 1
446 10.3181 1.19184 1.5874 -3.69366e-08 0.00579873 -9.25281e-18 1
30 11.9055 1.10971 -7.73974e-16 -5.04429e-08 0.0046019 -1.84035e-17 1
31 11.9055 0.316006 0.793701 -5.04429e-08 0.0046019 -1.04357e-17 1
32 11.1118 1.15523 0.793701 -4.65785e-08 0.00526514 -9.33835e-18 1
449 11.1118 0.361525 1.5874 -4.65785e-08 0.00526514 -7.50816e-18 1
450 11.9055 1.10971 1.5874 -5.04429e-08 0.0046019 -8.57128e-18 1
33 12.6992 0.262703 -6.44738e-16 -4.84833e-08 0.00382534 -2.50548e-17 1
34 13.4929 0.996624 -5.22694e-16 -4.16334e-08 0.00295459 -2.82627e-17 1
35 13.4929 0.202923 0.793701 -4.16334e-08 0.00295459 -2.59967e-17 1
36 12.6992 1.0564 0.793701 -4.84833e-08 0.00382534 -1.74393e-17 1
77 13.4929 1.79032 0.793701 -4.16334e-08 0.00295459 -1.63857e-17 1
453 12.6992 0.262703 1.5874 -4.84833e-08 0.00382534 -2.15792e-17 1
454 13.4929 0.996624 1.5874 -4.16334e-08 0.00295459 -1.98828e-17 1
37 14.2866 0.138137 -4.25158e-16 -3.04953e-08 0.00201109 -3.25434e-17 1
38 15.0803 0.863637 -2.29999e-16 -1.60848e-08 0.00101807 -3.60733e-17 1
39 15.0803 0.0699368 0.793701 -1.60848e-08 0.00101807 -4.21987e-17 1
40 14.2866 0.931838 0.793701 -3.04953e-08 0.00201109 -3.08568e-17 1
41 15.874 -3.66995e-16 5.7703e-17 1.88567e-17 -1.0766e-16 -3.39464e-17 1
42 15.874 0.793701 0.793701 3.24562e-17 -9.39089e-17 -3.9711e-17 1
79 14.2866 1.72554 -3.61076e-16 -3.04953e-08 0.00201109 -2.75417e-17 1
81 15.0803 1.65734 0.793701 -1.60848e-08 0.00101807 -3.24878e-17 1
83 15.874 1.5874 2.67769e-17 3.00551e-17 -6.2074e-17 -2.83781e-17 1
457 14.2866 0.138137 1.5874 -3.04953e-08 0.00201109 -3.77315e-17 1
458 15.0803 0.863637 1.5874 -1.60848e-08 0.00101807 -3.6292e-17 1
461 15.874 -4.38742e-16 1.5874 2.27883e-17 -9.63416e-17 -5.48895e-17 1
499 14.2866 1.72554 1.5874 -3.04953e-08 0.00201109 -1.79042e-17 1
503 15.874 1.5874 1.5874 4.38952e-17 -4.44872e-17 -2.56242e-17 1
44 0.793703 2.45104 -2.12602e-16 1.60848e-08 0.00101807 3.80893e-18 1
46 8.52347e-17 2.3811 0.793701 2.49016e-17 -5.56871e-17 1.28118e-17 1
50 1.58741 2.51924 0.793701 3.04953e-08 0.00201109 8.97418e-18 1
85 1.50996e-16 3.1748 6.72046e-17 2.765e-17 -5.93827e-17 9.59581e-18 1
87 0.793703 3.24474 0.793701 1.60848e-08 0.00101807 1.02365e-17 1
89 1.58741 3.31294 -3.33197e-16 3.04953e-08 0.00201109 1.04254e-17 1
464 0.793703 2.45104 1.5874 1.60848e-08 0.00101807 1.54199e-17 1
505 5.271e-17 3.1748 1.5874 2.70245e-17 -6.1663e-17 1.17064e-17 1
509 1.58741 3.31294 1.5874 3.04953e-08 0.00201109 6.06683e-18 1
51 3.17483 1.8501 -6.7329e-16 4.84833e-08 0.00382534 -7.55983e-19 1
471 3.17483 1.8501 1.5874 4.84833e-08 0.00382534 1.16996e-17 1
48 2.38112 2.58402 -4.9792e-16 4.16334e-08 0.00295459 6.81047e-18 1
54 3.17483 2.6438 0.793701 4.84833e-08 0.00382534 7.39214e-18 1
91 2.38112 3.37773 0.793701 4.16334e-08 0.00295459 9.22687e-18 1
93 3.17483 3.4375 -6.60159e-16 4.84833e-08 0.00382534 1.16333e-17 1
468 2.38112 2.58402 1.5874 4.16334e-08 0.00295459 8.5554e-18 1
513 3.17483 3.4375 1.5874 4.84833e-08 0.00382534 8.34724e-18 1
53 3.96854 1.90341 0.793701 5.04429e-08 0.0046019 4.32829e-18 1
475 4.76224 1.94893 1.5874 4.65785e-08 0.00526514 5.80463e-19 1
52 3.96854 2.69711 -7.20325e-16 5.04429e-08 0.0046019 8.24915e-18 1
58 4.76224 2.74263 0.793701 4.65785e-08 0.00526514 1.68176e-17 1
95 3.96854 3.49081 0.793701 5.04429e-08 0.0046019 1.54539e-17 1
472 3.96854 2.69711 1.5874 5.04429e-08 0.0046019 6.46231e-18 1
517 4.76224 3.53633 1.5874 4.65785e-08 0.00526514 5.21766e-17 1
57 5.55594 1.98554 0.793701 3.69366e-08 0.00579873 1.07468e-17 1
479 6.34963 2.01236 1.5874 3.02537e-08 0.00618954 6.15833e-18 1
62 6.34963 2.80606 0.793701 3.02537e-08 0.00618954 2.47198e-17 1
99 5.55594 3.57294 0.793701 3.69366e-08 0.00579873 3.53564e-17 1
476 5.55594 2.77924 1.5874 3.69366e-08 0.00579873 2.81279e-17 1
521 6.34963 3.59976 1.5874 3.02537e-08 0.00618954 5.13429e-17 1
61 7.14332 2.02872 0.793701 4.06972e-08 0.00642794 4.21715e-18 1
65 8.73069 2.02872 0.793701 -4.06972e-08 0.00642794 -1.37573e-18 1
483 7.93701 2.03421 1.5874 8.65597e-17 0.00650807 -8.63748e-18 1
66 7.93701 2.82791 0.793701 4.94489e-17 0.00650807 9.86333e-18 1
103 7.14332 3.61612 0.793701 4.06972e-08 0.00642794 2.57839e-17 1
107 8.73069 3.61612 0.793701 -4.06972e-08 0.00642794 1.56147e-17 1
480 7.14332 2.82242 1.5874 4.06972e-08 0.00642794 1.96199e-17 1
484 8.73069 2.82242 1.5874 -4.06972e-08 0.00642794 -8.12358e-18 1
525 7.93701 3.62161 1.5874 1.42697e-17 0.00650807 2.93009e-17 1
69 10.3181 1.98554 0.793701 -3.69366e-08 0.00579873 -4.71133e-18 1
487 9.52438 2.01236 1.5874 -3.02537e-08 0.00618954 -2.30248e-17 1
70 9.52438 2.80606 0.793701 -3.02537e-08 0.00618954 2.36189e-18 1
111 10.3181 3.57294 0.793701 -3.69366e-08 0.00579873 3.4535e-18 1
488 10.3181 2.77924 1.5874 -3.69366e-08 0.00579873 -1.06406e-17 1
529 9.52438 3.59976 1.5874 -3.02537e-08 0.00618954 7.59961e-18 1
73 11.9055 1.90341 0.793701 -5.04429e-08 0.0046019 -9.0552e-18 1
491 11.1118 1.94893 1.5874 -4.65785e-08 0.00526514 -5.10426e-18 1
72 11.9055 2.69711 -8.15444e-16 -5.04429e-08 0.0046019 -8.78742e-18 1
74 11.1118 2.74263 0.793701 -4.65785e-08 0.00526514 -3.82542e-18 1
115 11.9055 3.49081 0.793701 -5.04429e-08 0.0046019 -5.23904e-18 1
492 11.9055 2.69711 1.5874 -5.04429e-08 0.0046019 -2.74905e-18 1
533 11.1118 3.53633 1.5874 -4.65785e-08 0.00526514 1.195e-18 1
75 12.6992 1.8501 -6.68121e-16 -4.84833e-08 0.00382534 -1.73149e-17 1
495 12.6992 1.8501 1.5874 -4.84833e-08 0.00382534 -7.10368e-18 1
76 13.4929 2.58402 -4.06511e-16 -4.16334e-08 0.00295459 -1.61287e-17 1
78 12.6992 2.6438 0.793701 -4.84833e-08 0.00382534 -8.38111e-18 1
117 12.6992 3.4375 -6.1867e-16 -4.84833e-08 0.00382534 -1.36092e-17 1
119 13.4929 3.37773 0.793701 -4.16334e-08 0.00295459 -1.79132e-17 1
496 13.4929 2.58402 1.5874 -4.16334e-08 0.00295459 -6.25429e-18 1
537 12.6992 3.4375 1.5874 -4.84833e-08 0.00382534 -2.57226e-18 1
80 15.0803 2.45104 -2.12283e-16 -1.60848e-08 0.00101807 -2.57927e-17 1
82 14.2866 2.51924 0.793701 -3.04953e-08 0.00201109 -2.28965e-17 1
84 15.874 2.3811 0.793701 3.79104e-17 -1.85525e-17 -2.15181e-17 1
121 14.2866 3.31294 -3.16752e-16 -3.04953e-08 0.00201109 -2.47468e-17 1
123 15.0803 3.24474 0.793701 -1.60848e-08 0.00101807 -3.02586e-17 1
125 15.874 3.1748 3.26758e-17 2.0701e-17 -7.89376e-18 -1.6982e-17 1
500 15.0803 2.45104 1.5874 -1.60848e-08 0.00101807 -2.21477e-17 1
541 14.2866 3.31294 1.5874 -3.04953e-08 0.00201109 -1.93693e-17 1
545 15.874 3.1748 1.5874 3.77249e-17 -1.18355e-17 -2.28563e-17 1
86 0.793703 4.03844 -1.12704e-16 1.60848e-08 0.00101807 1.26924e-17 1
88 1.28734e-16 3.9685 0.793701 2.76477e-17 -7.29982e-17 1.05854e-17 1
92 1.58741 4.10664 0.793701 3.04953e-08 0.00201109 7.27796e-18 1
127 2.74903e-16 4.7622 2.13285e-16 2.87403e-17 -8.98261e-17 1.44587e-17 1
129 0.793703 4.83214 0.793701 1.60848e-08 0.00101807 5.40457e-18 1
131 1.58741 4.90034 -2.79264e-16 3.04953e-08 0.00201109 1.41609e-17 1
506 0.793703 4.03844 1.5874 1.60848e-08 0.00101807 3.69074e-20 1
547 1.1173e-16 4.7622 1.5874 2.35614e-17 -9.66832e-17 -3.06271e-18 1
551 1.58741 4.90034 1.5874 3.04953e-08 0.00201109 -6.95195e-18 1
90 2.38112 4.17143 -4.81898e-16 4.16334e-08 0.00295459 1.51587e-17 1
96 3.17483 4.23121 0.793701 4.84833e-08 0.00382534 1.6613e-17 1
133 2.38112 4.96513 0.793701 4.16334e-08 0.00295459 1.17259e-17 1
135 3.17483 5.02491 -5.82338e-16 4.84833e-08 0.00382534 1.35068e-17 1
510 2.38112 4.17143 1.5874 4.16334e-08 0.00295459 4.73027e-18 1
555 3.17483 5.02491 1.5874 4.84833e-08 0.00382534 1.78161e-17 1
94 3.96854 4.28451 -7.22229e-16 5.04429e-08 0.0046019 -1.12679e-17 1
100 4.76224 4.33003 0.793701 4.65785e-08 0.00526514 5.19132e-17 1
137 3.96854 5.07821 0.793701 5.04429e-08 0.0046019 4.85207e-17 1
514 3.96854 4.28451 1.5874 5.04429e-08 0.0046019 4.76333e-17 1
559 4.76224 5.12373 1.5874 4.65785e-08 0.00526514 7.64462e-17 1
104 6.34963 4.39346 0.793701 3.02537e-08 0.00618954 3.33562e-17 1
141 5.55594 5.16034 0.793701 3.69366e-08 0.00579873 6.02624e-17 1
518 5.55594 4.36664 1.5874 3.69366e-08 0.00579873 8.01975e-17 1
563 6.34963 5.18716 1.5874 3.02537e-08 0.00618954 5.28853e-17 1
108 7.93701 4.41531 0.793701 1.44021e-17 0.00650807 2.27453e-17 1
145 7.14332 5.20352 0.793701 4.06972e-08 0.00642794 2.01902e-17 1
149 8.73069 5.20352 0.793701 -4.06972e-08 0.00642794 1.6026e-17 1
522 7.14332 4.40982 1.5874 4.06972e-08 0.00642794 5.01999e-17 1
526 8.73069 4.40982 1.5874 -4.06972e-08 0.00642794 3.54618e-17 1
567 7.93701 5.20902 1.5874 5.45745e-18 0.00650807 3.63738e-17 1
112 9.52438 4.39346 0.793701 -3.02537e-08 0.00618954 1.54816e-17 1
153 10.3181 5.16034 0.793701 -3.69366e-08 0.00579873 7.65797e-18 1
530 10.3181 4.36664 1.5874 -3.69366e-08 0.00579873 1.42887e-17 1
571 9.52438 5.18716 1.5874 -3.02537e-08 0.00618954 1.69384e-17 1
114 11.9055 4.28451 -8.57585e-16 -5.04429e-08 0.0046019 -1.20601e-17 1
116 11.1118 4.33003 0.793701 -4.65785e-08 0.00526514 -4.07263e-19 1
157 11.9055 5.07821 0.793701 -5.04429e-08 0.0046019 -1.76782e-17 1
534 11.9055 4.28451 1.5874 -5.04429e-08 0.0046019 -1.15095e-18 1
575 11.1118 5.12373 1.5874 -4.65785e-08 0.00526514 2.98799e-18 1
118 13.4929 4.17143 -4.94861e-16 -4.16334e-08 0.00295459 -3.03197e-17 1
120 12.6992 4.23121 0.793701 -4.84833e-08 0.00382534 -1.70714e-17 1
159 12.6992 5.02491 -7.54077e-16 -4.84833e-08 0.00382534 -3.17969e-17 1
161 13.4929 4.96513 0.793701 -4.16334e-08 0.00295459 -4.62486e-17 1
538 13.4929 4.17143 1.5874 -4.16334e-08 0.00295459 -1.40845e-17 1
579 12.6992 5.02491 1.5874 -4.84833e-08 0.00382534 -1.6184e-17 1
122 15.0803 4.03844 -2.34401e-16 -1.60848e-08 0.00101807 -3.28607e-17 1
124 14.2866 4.10664 0.793701 -3.04953e-08 0.00201109 -4.07926e-17 1
126 15.874 3.9685 0.793701 2.32432e-17 -1.03227e-17 -2.57409e-17 1
163 14.2866 4.90034 -4.41119e-16 -3.04953e-08 0.00201109 -4.87928e-17 1
165 15.0803 4.83214 0.793701 -1.60848e-08 0.00101807 -5.13423e-17 1
167 15.874 4.7622 -2.65431e-17 6.03503e-19 1.71077e-17 -3.13931e-17 1
542 15.0803 4.03844 1.5874 -1.60848e-08 0.00101807 -2.54967e-17 1
583 14.2866 4.90034 1.5874 -3.04953e-08 0.00201109 -3.29113e-17 1
587 15.874 4.7622 1.5874 3.04412e-17 -2.3394e-18 -2.06874e-17 1
128 0.793703 5.62584 -4.63143e-17 1.60848e-08 0.00101807 1.38288e-17 1
130 1.89307e-16 5.5559 0.793701 3.0461e-17 -1.05728e-16 6.72827e-18 1
134 1.58741 5.69404 0.793701 3.04953e-08 0.00201109 5.96355e-18 1
169 2.05049e-16 6.3496 2.97417e-16 3.28241e-17 -1.16241e-16 1.36293e-17 1
171 0.793703 6.41954 0.793701 1.60848e-08 0.00101807 4.99121e-18 1
173 1.58741 6.48774 -1.86781e-16 3.04953e-08 0.00201109 4.13153e-18 1
548 0.793703 5.62584 1.5874 1.60848e-08 0.00101807 -1.36011e-17 1
589 1.36538e-16 6.3496 1.5874 2.97088e-17 -1.16097e-16 -9.46908e-18 1
593 1.58741 6.48774 1.5874 3.04953e-08 0.00201109 -5.11352e-18 1
132 2.38112 5.75883 -4.1365e-16 4.16334e-08 0.00295459 9.50913e-18 1
138 3.17483 5.81861 0.793701 4.84833e-08 0.00382534 1.68838e-17 1
175 2.38112 6.55253 0.793701 4.16334e-08 0.00295459 1.00339e-18 1
177 3.17483 6.61231 -5.49439e-16 4.84833e-08 0.00382534 1.70477e-18 1
552 2.38112 5.75883 1.5874 4.16334e-08 0.00295459 6.17993e-18 1
597 3.17483 6.61231 1.5874 4.84833e-08 0.00382534 8.29315e-18 1
136 3.96854 5.87191 -5.78062e-16 5.04429e-08 0.0046019 9.83445e-18 1
142 4.76224 5.91743 0.793701 4.65785e-08 0.00526514 5.39987e-17 1
179 3.96854 6.66561 0.793701 5.04429e-08 0.0046019 1.43335e-17 1
181 4.76224 6.71113 -6.3544e-16 4.65785e-08 0.00526514 7.72091e-18 1
556 3.96854 5.87191 1.5874 5.04429e-08 0.0046019 2.94997e-17 1
601 4.76224 6.71113 1.5874 4.65785e-08 0.00526514 1.78988e-17 1
146 6.34963 5.98086 0.793701 3.02537e-08 0.00618954 2.55738e-17 1
183 5.55594 6.74775 0.793701 3.69366e-08 0.00579873 2.06965e-17 1
560 5.55594 5.95405 1.5874 3.69366e-08 0.00579873 4.23084e-17 1
605 6.34963 6.77456 1.5874 3.02537e-08 0.00618954 1.45064e-17 1
150 7.93701 6.00272 0.793701 2.67148e-17 0.00650807 9.15901e-18 1
187 7.14332 6.79092 0.793701 4.06972e-08 0.00642794 5.88795e-18 1
191 8.73069 6.79092 0.793701 -4.06972e-08 0.00642794 -3.2272e-19 1
564 7.14332 5.99722 1.5874 4.06972e-08 0.00642794 2.69881e-17 1
568 8.73069 5.99722 1.5874 -4.06972e-08 0.00642794 -4.5913e-18 1
609 7.93701 6.79642 1.5874 4.75678e-17 0.00650807 -1.16448e-17 1
154 9.52438 5.98086 0.793701 -3.02537e-08 0.00618954 8.30169e-18 1
195 10.3181 6.74775 0.793701 -3.69366e-08 0.00579873 1.55634e-18 1
572 10.3181 5.95405 1.5874 -3.69366e-08 0.00579873 -8.40448e-18 1
613 9.52438 6.77456 1.5874 -3.02537e-08 0.00618954 -2.63402e-17 1
156 11.9055 5.87191 -8.367e-16 -5.04429e-08 0.0046019 -1.73758e-17 1
158 11.1118 5.91743 0.793701 -4.65785e-08 0.00526514 -7.96381e-18 1
199 11.9055 6.66561 0.793701 -5.04429e-08 0.0046019 -2.78837e-17 1
576 11.9055 5.87191 1.5874 -5.04429e-08 0.0046019 -2.33066e-17 1
617 11.1118 6.71113 1.5874 -4.65785e-08 0.00526514 -1.93497e-17 1
160 13.4929 5.75883 -6.02089e-16 -4.16334e-08 0.00295459 -4.52657e-17 1
162 12.6992 5.81861 0.793701 -4.84833e-08 0.00382534 -4.56102e-17 1
201 12.6992 6.61231 -8.29732e-16 -4.84833e-08 0.00382534 -2.49207e-17 1
203 13.4929 6.55253 0.793701 -4.16334e-08 0.00295459 -5.55557e-17 1
580 13.4929 5.75883 1.5874 -4.16334e-08 0.00295459 -4.25191e-17 1
621 12.6992 6.61231 1.5874 -4.84833e-08 0.00382534 -4.84822e-17 1
164 15.0803 5.62584 -3.34464e-16 -1.60848e-08 0.00101807 -5.39945e-17 1
166 14.2866 5.69404 0.793701 -3.04953e-08 0.00201109 -6.95366e-17 1
168 15.874 5.5559 0.793701 6.94636e-18 2.26519e-17 -4.52001e-17 1
205 14.2866 6.48774 -4.6604e-16 -3.04953e-08 0.00201109 -4.80758e-17 1
207 15.0803 6.41954 0.793701 -1.60848e-08 0.00101807 -6.53345e-17 1
209 15.874 6.3496 -1.17715e-17 -1.51516e-17 4.24817e-17 -5.23549e-17 1
584 15.0803 5.62584 1.5874 -1.60848e-08 0.00101807 -4.10795e-17 1
625 14.2866 6.48774 1.5874 -3.04953e-08 0.00201109 -5.38335e-17 1
629 15.874 6.3496 1.5874 1.18232e-17 3.44289e-17 -3.76456e-17 1
170 0.793703 7.21324 1.90632e-17 1.60848e-08 0.00101807 8.11734e-18 1
172 9.75079e-17 7.1433 0.793701 3.50328e-17 -1.24735e-16 7.75175e-18 1
176 1.58741 7.28144 0.793701 3.04953e-08 0.00201109 -2.18676e-18 1
211 6.97019e-17 7.93701 3.24767e-16 3.94038e-17 -1.30043e-16 1.23564e-17 1
212 0.793703 8.80064 -7.03687e-17 1.60848e-08 0.00101807 8.58435e-18 1
213 0.793703 8.00694 0.793701 1.60848e-08 0.00101807 5.73367e-18 1
214 -1.00019e-16 8.73071 0.793701 3.78561e-17 -1.3104e-16 1.10819e-17 1
215 1.58741 8.07514 -2.56318e-16 3.04953e-08 0.00201109 5.6687e-19 1
590 0.793703 7.21324 1.5874 1.60848e-08 0.00101807 -8.01138e-18 1
631 -2.84078e-17 7.93701 1.5874 3.47506e-17 -1.257e-16 1.37834e-18 1
632 0.793703 8.80064 1.5874 1.60848e-08 0.00101807 3.25613e-18 1
635 1.58741 8.07514 1.5874 3.04953e-08 0.00201109 -4.92308e-18 1
174 2.38112 7.34623 -4.29415e-16 4.16334e-08 0.00295459 -6.83597e-18 1
180 3.17483 7.40601 0.793701 4.84833e-08 0.00382534 -5.11266e-18 1
217 2.38112 8.13993 0.793701 4.16334e-08 0.00295459 -1.0956e-17 1
219 3.17483 8.19971 -5.47621e-16 4.84833e-08 0.00382534 -5.73494e-18 1
594 2.38112 7.34623 1.5874 4.16334e-08 0.00295459 -4.60752e-18 1
639 3.17483 8.19971 1.5874 4.84833e-08 0.00382534 -7.30378e-18 1
178 3.96854 7.45931 -6.06684e-16 5.04429e-08 0.0046019 1.73654e-18 1
184 4.76224 7.50483 0.793701 4.65785e-08 0.00526514 6.61287e-18 1
221 3.96854 8.25301 0.793701 5.04429e-08 0.0046019 -3.21404e-19 1
598 3.96854 7.45931 1.5874 5.04429e-08 0.0046019 3.51381e-18 1
643 4.76224 8.29853 1.5874 4.65785e-08 0.00526514 -5.43899e-18 1
188 6.34963 7.56826 0.793701 3.02537e-08 0.00618954 4.59564e-18 1
225 5.55594 8.33515 0.793701 3.69366e-08 0.00579873 1.4321e-18 1
602 5.55594 7.54145 1.5874 3.69366e-08 0.00579873 -1.45352e-18 1
647 6.34963 8.36196 1.5874 3.02537e-08 0.00618954 -1.04662e-17 1
192 7.93701 7.59012 0.793701 8.52101e-17 0.00650807 -2.37156e-18 1
229 7.14332 8.37832 0.793701 4.06972e-08 0.00642794 4.81735e-19 1
233 8.73069 8.37832 0.793701 -4.06972e-08 0.00642794 -3.69717e-18 1
606 7.14332 7.58462 1.5874 4.06972e-08 0.00642794 -4.36307e-18 1
610 8.73069 7.58462 1.5874 -4.06972e-08 0.00642794 -2.42293e-17 1
651 7.93701 8.38382 1.5874 7.29883e-17 0.00650807 -8.08294e-18 1
196 9.52438 7.56826 0.793701 -3.02537e-08 0.00618954 -2.81054e-18 1
237 10.3181 8.33515 0.793701 -3.69366e-08 0.00579873 -1.11421e-18 1
614 10.3181 7.54145 1.5874 -3.69366e-08 0.00579873 -6.36906e-18 1
655 9.52438 8.36196 1.5874 -3.02537e-08 0.00618954 -6.28835e-18 1
198 11.9055 7.45931 -1.04529e-15 -5.04429e-08 0.0046019 -1.15054e-17 1
200 11.1118 7.50483 0.793701 -4.65785e-08 0.00526514 -4.52313e-18 1
241 11.9055 8.25301 0.793701 -5.04429e-08 0.0046019 -8.02269e-18 1
618 11.9055 7.45931 1.5874 -5.04429e-08 0.0046019 -3.01593e-17 1
659 11.1118 8.29853 1.5874 -4.65785e-08 0.00526514 -4.68066e-19 1
202 13.4929 7.34623 -6.25753e-16 -4.16334e-08 0.00295459 -2.25594e-17 1
204 12.6992 7.40601 0.793701 -4.84833e-08 0.00382534 -2.71217e-17 1
243 12.6992 8.19971 -8.18981e-16 -4.84833e-08 0.00382534 -1.42105e-17 1
245 13.4929 8.13993 0.793701 -4.16334e-08 0.00295459 -2.06106e-17 1
622 13.4929 7.34623 1.5874 -4.16334e-08 0.00295459 -4.46226e-17 1
663 12.6992 8.19971 1.5874 -4.84833e-08 0.00382534 -2.38177e-17 1
206 15.0803 7.21324 -3.29631e-16 -1.60848e-08 0.00101807 -4.5215e-17 1
208 14.2866 7.28144 0.793701 -3.04953e-08 0.00201109 -4.55699e-17 1
210 15.874 7.1433 0.793701 -8.43518e-18 4.62692e-17 -4.78099e-17 1
247 14.2866 8.07514 -4.98481e-16 -3.04953e-08 0.00201109 -2.30194e-17 1
248 15.0803 8.80064 -2.86228e-16 -1.60848e-08 0.00101807 -2.836e-17 1
249 15.0803 8.00694 0.793701 -1.60848e-08 0.00101807 -3.3939e-17 1
251 15.874 7.93701 7.52578e-19 -8.4304e-18 1.30961e-17 -3.57848e-17 1
252 15.874 8.73071 0.793701 -2.83651e-18 2.74687e-18 -3.1076e-17 1
626 15.0803 7.21324 1.5874 -1.60848e-08 0.00101807 -4.50673e-17 1
667 14.2866 8.07514 1.5874 -3.04953e-08 0.00201109 -3.23738e-17 1
668 15.0803 8.80064 1.5874 -1.60848e-08 0.00101807 -2.9924e-17 1
671 15.874 7.93701 1.5874 -7.00752e-18 3.15712e-17 -3.92525e-17 1
218 1.58741 8.86884 0.793701 3.04953e-08 0.00201109 2.68224e-20 1
253 -6.60852e-17 9.52441 1.70088e-16 3.77734e-17 -1.30556e-16 1.00344e-17 1
254 0.793703 10.388 -1.74155e-16 1.60848e-08 0.00101807 5.9926e-18 1
255 0.793703 9.59434 0.793701 1.60848e-08 0.00101807 8.41933e-18 1
256 -2.22308e-16 10.3181 0.793701 3.17286e-17 -1.32242e-16 8.50761e-18 1
257 1.58741 9.66254 -3.88302e-16 3.04953e-08 0.00201109 4.30021e-18 1
260 1.58741 10.4562 0.793701 3.04953e-08 0.00201109 4.11103e-18 1
673 -1.98393e-16 9.52441 1.5874 3.43743e-17 -1.32701e-16 7.97401e-18 1
674 0.793703 10.388 1.5874 1.60848e-08 0.00101807 6.99805e-18 1
677 1.58741 9.66254 1.5874 3.04953e-08 0.00201109 1.97273e-18 1
216 2.38112 8.93363 -4.54813e-16 4.16334e-08 0.00295459 -3.15358e-18 1
222 3.17483 8.99341 0.793701 4.84833e-08 0.00382534 -7.32979e-18 1
636 2.38112 8.93363 1.5874 4.16334e-08 0.00295459 -7.93404e-18 1
258 2.38112 10.521 -6.04179e-16 4.16334e-08 0.00295459 8.5357e-19 1
259 2.38112 9.72733 0.793701 4.16334e-08 0.00295459 -2.59158e-18 1
261 3.17483 9.78711 -6.78583e-16 4.84833e-08 0.00382534 -1.98878e-18 1
264 3.17483 10.5808 0.793701 4.84833e-08 0.00382534 -1.27536e-18 1
678 2.38112 10.521 1.5874 4.16334e-08 0.00295459 -5.75405e-19 1
681 3.17483 9.78711 1.5874 4.84833e-08 0.00382534 -1.13718e-17 1
220 3.96854 9.04671 -6.2759e-16 5.04429e-08 0.0046019 -1.05317e-18 1
226 4.76224 9.09223 0.793701 4.65785e-08 0.00526514 1.59298e-19 1
640 3.96854 9.04671 1.5874 5.04429e-08 0.0046019 -1.00511e-17 1
262 3.96854 10.6341 -7.76796e-16 5.04429e-08 0.0046019 -1.78432e-18 1
263 3.96854 9.84041 0.793701 5.04429e-08 0.0046019 -2.74495e-18 1
268 4.76224 10.6796 0.793701 4.65785e-08 0.00526514 -1.58479e-18 1
682 3.96854 10.6341 1.5874 5.04429e-08 0.0046019 -4.96068e-18 1
685 4.76224 9.88593 1.5874 4.65785e-08 0.00526514 -5.12781e-18 1
230 6.34963 9.15566 0.793701 3.02537e-08 0.00618954 1.61414e-19 1
644 5.55594 9.12885 1.5874 3.69366e-08 0.00579873 -7.8479e-18 1
267 5.55594 9.92255 0.793701 3.69366e-08 0.00579873 -8.05224e-19 1
689 6.34963 9.94936 1.5874 3.02537e-08 0.00618954 2.81949e-18 1
234 7.93701 9.17752 0.793701 7.06195e-17 0.00650807 2.7627e-20 1
648 7.14332 9.17202 1.5874 4.06972e-08 0.00642794 -2.23457e-18 1
652 8.73069 9.17202 1.5874 -4.06972e-08 0.00642794 -5.24619e-18 1
271 7.14332 9.96572 0.793701 4.06972e-08 0.00642794 -1.9079e-18 1
275 8.73069 9.96572 0.793701 -4.06972e-08 0.00642794 2.71993e-18 1
693 7.93701 9.97122 1.5874 7.38378e-17 0.00650807 -3.50403e-18 1
238 9.52438 9.15566 0.793701 -3.02537e-08 0.00618954 -1.04994e-18 1
656 10.3181 9.12885 1.5874 -3.69366e-08 0.00579873 1.89771e-19 1
279 10.3181 9.92255 0.793701 -3.69366e-08 0.00579873 -3.32896e-18 1
697 9.52438 9.94936 1.5874 -3.02537e-08 0.00618954 -3.349e-18 1
240 11.9055 9.04671 -8.53056e-16 -5.04429e-08 0.0046019 -1.38454e-17 1
242 11.1118 9.09223 0.793701 -4.65785e-08 0.00526514 -4.8938e-18 1
660 11.9055 9.04671 1.5874 -5.04429e-08 0.0046019 -3.28349e-18 1
282 11.9055 10.6341 -5.95841e-16 -5.04429e-08 0.0046019 -1.81109e-17 1
283 11.9055 9.84041 0.793701 -5.04429e-08 0.0046019 -1.06098e-17 1
284 11.1118 10.6796 0.793701 -4.65785e-08 0.00526514 -8.90734e-18 1
701 11.1118 9.88593 1.5874 -4.65785e-08 0.00526514 -8.16613e-19 1
702 11.9055 10.6341 1.5874 -5.04429e-08 0.0046019 -5.9467e-18 1
244 13.4929 8.93363 -6.29709e-16 -4.16334e-08 0.00295459 -1.96335e-17 1
246 12.6992 8.99341 0.793701 -4.84833e-08 0.00382534 -1.2094e-17 1
664 13.4929 8.93363 1.5874 -4.16334e-08 0.00295459 -1.82755e-17 1
285 12.6992 9.78711 -6.69018e-16 -4.84833e-08 0.00382534 -2.03967e-17 1
286 13.4929 10.521 -5.11384e-16 -4.16334e-08 0.00295459 -3.20338e-17 1
287 13.4929 9.72733 0.793701 -4.16334e-08 0.00295459 -2.27713e-17 1
288 12.6992 10.5808 0.793701 -4.84833e-08 0.00382534 -2.00066e-17 1
705 12.6992 9.78711 1.5874 -4.84833e-08 0.00382534 -9.05615e-18 1
706 13.4929 10.521 1.5874 -4.16334e-08 0.00295459 -1.9753e-17 1
250 14.2866 8.86884 0.793701 -3.04953e-08 0.00201109 -2.41188e-17 1
289 14.2866 9.66254 -4.11013e-16 -3.04953e-08 0.00201109 -3.08577e-17 1
290 15.0803 10.388 -2.5423e-16 -1.60848e-08 0.00101807 -4.5625e-17 1
291 15.0803 9.59434 0.793701 -1.60848e-08 0.00101807 -3.31008e-17 1
292 14.2866 10.4562 0.793701 -3.04953e-08 0.00201109 -3.7279e-17 1
293 15.874 9.52441 -7.83687e-17 4.63402e-18 2.49167e-18 -3.53484e-17 1
294 15.874 10.3181 0.793701 1.07905e-17 -1.04683e-17 -4.34876e-17 1
709 14.2866 9.66254 1.5874 -3.04953e-08 0.00201109 -2.34041e-17 1
710 15.0803 10.388 1.5874 -1.60848e-08 0.00101807 -2.97994e-17 1
713 15.874 9.52441 1.5874 2.9351e-18 -8.55425e-18 -3.07112e-17 1
295 -1.79952e-16 11.1118 -4.00537e-18 2.99785e-17 -1.28704e-16 6.43397e-18 1
296 0.793703 11.9754 -2.43881e-16 1.60848e-08 0.00101807 3.82166e-18 1
297 0.793703 11.1817 0.793701 1.60848e-08 0.00101807 4.86818e-18 1
298 -1.32589e-16 11.9055 0.793701 2.74455e-17 -1.22714e-16 5.42525e-18 1
299 1.58741 11.2499 -4.20815e-16 3.04953e-08 0.00201109 1.69389e-18 1
302 1.58741 12.0436 0.793701 3.04953e-08 0.00201109 1.10809e-18 1
715 -1.91091e-16 11.1118 1.5874 2.78381e-17 -1.31654e-16 6.78369e-18 1
716 0.793703 11.9754 1.5874 1.60848e-08 0.00101807 3.97489e-18 1
719 1.58741 11.2499 1.5874 3.04953e-08 0.00201109 3.80684e-18 1
300 2.38112 12.1084 -6.19496e-16 4.16334e-08 0.00295459 -3.01106e-18 1
301 2.38112 11.3147 0.793701 4.16334e-08 0.00295459 2.37711e-21 1
303 3.17483 11.3745 -7.64379e-16 4.84833e-08 0.00382534 -2.51611e-18 1
306 3.17483 12.1682 0.793701 4.84833e-08 0.00382534 -2.81021e-18 1
720 2.38112 12.1084 1.5874 4.16334e-08 0.00295459 1.01984e-18 1
723 3.17483 11.3745 1.5874 4.84833e-08 0.00382534 5.44329e-19 1
304 3.96854 12.2215 -8.85701e-16 5.04429e-08 0.0046019 -1.9971e-17 1
305 3.96854 11.4278 0.793701 5.04429e-08 0.0046019 -8.76465e-19 1
310 4.76224 12.267 0.793701 4.65785e-08 0.00526514 -1.44585e-17 1
724 3.96854 12.2215 1.5874 5.04429e-08 0.0046019 1.40374e-17 1
727 4.76224 11.4733 1.5874 4.65785e-08 0.00526514 1.53041e-18 1
272 6.34963 10.7431 0.793701 3.02537e-08 0.00618954 -9.72027e-18 1
686 5.55594 10.7162 1.5874 3.69366e-08 0.00579873 3.0744e-18 1
309 5.55594 11.5099 0.793701 3.69366e-08 0.00579873 -1.97201e-17 1
314 6.34963 12.3305 0.793701 3.02537e-08 0.00618954 -3.59905e-17 1
728 5.55594 12.3036 1.5874 3.69366e-08 0.00579873 -8.62198e-18 1
731 6.34963 11.5368 1.5874 3.02537e-08 0.00618954 -2.43743e-18 1
276 7.93701 10.7649 0.793701 7.51748e-17 0.00650807 4.81545e-19 1
690 7.14332 10.7594 1.5874 4.06972e-08 0.00642794 1.14845e-19 1
694 8.73069 10.7594 1.5874 -4.06972e-08 0.00642794 -4.97668e-19 1
313 7.14332 11.5531 0.793701 4.06972e-08 0.00642794 -1.14598e-17 1
317 8.73069 11.5531 0.793701 -4.06972e-08 0.00642794 9.76205e-18 1
318 7.93701 12.3523 0.793701 7.7594e-17 0.00650807 -4.90188e-18 1
732 7.14332 12.3468 1.5874 4.06972e-08 0.00642794 -5.59587e-18 1
735 7.93701 11.5586 1.5874 8.29125e-17 0.00650807 -9.93454e-19 1
736 8.73069 12.3468 1.5874 -4.06972e-08 0.00642794 8.81231e-19 1
280 9.52438 10.7431 0.793701 -3.02537e-08 0.00618954 7.42384e-18 1
698 10.3181 10.7162 1.5874 -3.69366e-08 0.00579873 -2.04891e-18 1
321 10.3181 11.5099 0.793701 -3.69366e-08 0.00579873 -4.96029e-19 1
322 9.52438 12.3305 0.793701 -3.02537e-08 0.00618954 7.34869e-18 1
739 9.52438 11.5368 1.5874 -3.02537e-08 0.00618954 1.64314e-18 1
740 10.3181 12.3036 1.5874 -3.69366e-08 0.00579873 -3.61238e-18 1
324 11.9055 12.2215 -5.08347e-16 -5.04429e-08 0.0046019 -2.1397e-17 1
325 11.9055 11.4278 0.793701 -5.04429e-08 0.0046019 -1.60375e-17 1
326 11.1118 12.267 0.793701 -4.65785e-08 0.00526514 -1.38359e-17 1
743 11.1118 11.4733 1.5874 -4.65785e-08 0.00526514 -5.03704e-18 1
744 11.9055 12.2215 1.5874 -5.04429e-08 0.0046019 -1.03502e-17 1
327 12.6992 11.3745 -5.05542e-16 -4.84833e-08 0.00382534 -2.72014e-17 1
328 13.4929 12.1084 -4.81769e-16 -4.16334e-08 0.00295459 -3.67586e-17 1
329 13.4929 11.3147 0.793701 -4.16334e-08 0.00295459 -3.33791e-17 1
330 12.6992 12.1682 0.793701 -4.84833e-08 0.00382534 -2.68167e-17 1
747 12.6992 11.3745 1.5874 -4.84833e-08 0.00382534 -1.39353e-17 1
748 13.4929 12.1084 1.5874 -4.16334e-08 0.00295459 -2.49055e-17 1
331 14.2866 11.2499 -3.63884e-16 -3.04953e-08 0.00201109 -4.63613e-17 1
332 15.0803 11.9754 -1.93101e-16 -1.60848e-08 0.00101807 -5.52964e-17 1
333 15.0803 11.1817 0.793701 -1.60848e-08 0.00101807 -5.03792e-17 1
334 14.2866 12.0436 0.793701 -3.04953e-08 0.00201109 -4.61715e-17 1
335 15.874 11.1118 -8.11233e-17 1.11875e-17 -9.05752e-18 -5.32521e-17 1
336 15.874 11.9055 0.793701 1.59593e-17 -2.35159e-17 -5.57553e-17 1
751 14.2866 11.2499 1.5874 -3.04953e-08 0.00201109 -2.97365e-17 1
752 15.0803 11.9754 1.5874 -1.60848e-08 0.00101807 -3.70616e-17 1
755 15.874 11.1118 1.5874 1.28701e-17 -2.01354e-17 -3.5645e-17 1
337 -2.46897e-16 12.6992 1.93577e-17 2.84741e-17 -1.09258e-16 6.28526e-18 1
338 0.793703 13.5628 -1.79838e-16 1.60848e-08 0.00101807 6.49101e-18 1
339 0.793703 12.7691 0.793701 1.60848e-08 0.00101807 3.3595e-18 1
340 -1.57003e-16 13.4929 0.793701 2.89756e-17 -9.37298e-17 4.23048e-18 1
341 1.58741 12.8373 -4.18004e-16 3.04953e-08 0.00201109 1.48087e-18 1
344 1.58741 13.631 0.793701 3.04953e-08 0.00201109 2.00709e-18 1
757 -9.64173e-17 12.6992 1.5874 2.70359e-17 -1.10512e-16 4.12098e-18 1
758 0.793703 13.5628 1.5874 1.60848e-08 0.00101807 1.72673e-18 1
761 1.58741 12.8373 1.5874 3.04953e-08 0.00201109 4.41268e-19 1
342 2.38112 13.6958 -5.70692e-16 4.16334e-08 0.00295459 -1.03259e-17 1
343 2.38112 12.9021 0.793701 4.16334e-08 0.00295459 -2.63409e-18 1
345 3.17483 12.9619 -8.00071e-16 4.84833e-08 0.00382534 -2.5879e-17 1