ITEM: TIMESTEP
4000
ITEM: NUMBER OF ATOMS
8000
ITEM: BOX BOUNDS pp pp pp
0.0000000000000000e+00 3.1748021039364001e+01
0.0000000000000000e+00 1.5874010519682001e+01
0.0000000000000000e+00 1.5874010519682001e+01
ITEM: ATOMS id x y z vx vy vz c_rho_peratom
1 9.58328e-17 -2.47274e-16 5.30299e-17 2.46863e-18 -2.32276e-17 -6.99041e-18 1
2 0.793701 0.822665 -5.88025e-17 4.12243e-08 0.00133812 -1.15639e-17 1
3 0.793701 0.0289645 0.793701 4.12243e-08 0.00133812 -5.12879e-18 1
4 3.51979e-17 0.793701 0.793701 2.24045e-18 -4.26094e-17 -6.31366e-18 1
5 1.5874 0.0572134 -1.46028e-16 7.96003e-08 0.0026433 -1.68371e-17 1
8 1.5874 0.850914 0.793701 7.96003e-08 0.0026433 -1.41295e-17 1
43 1.76696e-17 1.5874 8.96457e-17 6.05597e-18 -4.41026e-17 -9.58664e-18 1
45 0.793701 1.61637 0.793701 4.12243e-08 0.00133812 -8.82163e-18 1
47 1.5874 1.64461 -1.21288e-16 7.96003e-08 0.0026433 -2.00539e-17 1
421 1.51436e-17 -2.25621e-16 1.5874 1.57144e-17 -2.25581e-17 -2.7842e-18 1
422 0.793701 0.822665 1.5874 4.12243e-08 0.00133812 -3.98876e-18 1
425 1.5874 0.0572134 1.5874 7.96003e-08 0.0026433 -1.7753e-18 1
463 -1.0879e-17 1.5874 1.5874 1.82688e-18 -4.53985e-17 -1.6779e-18 1
467 1.5874 1.64461 1.5874 7.96003e-08 0.0026433 -5.39635e-18 1
6 2.3811 0.877752 -1.92641e-16 1.12095e-07 0.00388339 -3.49109e-17 1
7 2.3811 0.0840513 0.793701 1.12095e-07 0.00388339 -1.30454e-17 1
9 3.1748 0.108818 -2.1179e-16 1.3559e-07 0.00502786 -3.80689e-17 1
12 3.1748 0.902518 0.793701 1.3559e-07 0.00502786 -2.86848e-17 1
49 2.3811 1.67145 0.793701 1.12095e-07 0.00388339 -2.28992e-17 1
51 3.1748 1.69622 -2.22114e-16 1.3559e-07 0.00502786 -3.25501e-17 1
426 2.3811 0.877752 1.5874 1.12095e-07 0.00388339 -5.13823e-18 1
429 3.1748 0.108818 1.5874 1.3559e-07 0.00502786 -1.92029e-18 1
471 3.1748 1.69622 1.5874 1.3559e-07 0.00502786 -8.67871e-18 1
10 3.96851 0.924604 -2.07305e-16 1.46947e-07 0.00604853 -2.97555e-17 1
11 3.96851 0.130904 0.793701 1.46947e-07 0.00604853 -1.60631e-17 1
16 4.76221 0.943466 0.793701 1.42689e-07 0.00692026 -1.15028e-17 1
53 3.96851 1.7183 0.793701 1.46947e-07 0.00604853 -1.8703e-17 1
430 3.96851 0.924604 1.5874 1.46947e-07 0.00604853 -4.41901e-18 1
433 4.76221 0.149765 1.5874 1.42689e-07 0.00692026 -4.58842e-19 1
475 4.76221 1.73717 1.5874 1.42689e-07 0.00692026 -3.85869e-19 1
15 5.55591 0.16494 0.793701 1.21452e-07 0.00762159 -4.44997e-18 1
20 6.34961 0.969753 0.793701 9.47982e-08 0.00813526 -1.39673e-18 1
57 5.55591 1.75234 0.793701 1.21452e-07 0.00762159 -3.71593e-18 1
434 5.55591 0.95864 1.5874 1.21452e-07 0.00762159 -1.24431e-18 1
437 6.34961 0.176053 1.5874 9.47982e-08 0.00813526 1.4832e-18 1
479 6.34961 1.76345 1.5874 9.47982e-08 0.00813526 3.48546e-18 1
19 7.14331 0.182832 0.793701 8.28384e-08 0.00844861 2.1638e-18 1
23 8.7307 0.182832 0.793701 -8.28384e-08 0.00844861 -7.17272e-19 1
24 7.93701 0.978811 0.793701 -3.32057e-19 0.00855392 3.10926e-18 1
61 7.14331 1.77023 0.793701 8.28384e-08 0.00844861 5.75674e-18 1
65 8.7307 1.77023 0.793701 -8.28384e-08 0.00844861 3.80716e-18 1
438 7.14331 0.976532 1.5874 8.28384e-08 0.00844861 5.73889e-18 1
441 7.93701 0.18511 1.5874 -5.70604e-18 0.00855392 3.19408e-18 1
442 8.7307 0.976532 1.5874 -8.28384e-08 0.00844861 4.2404e-18 1
483 7.93701 1.77251 1.5874 3.40208e-18 0.00855392 1.80579e-17 1
27 10.3181 0.16494 0.793701 -1.21452e-07 0.00762159 -8.75058e-18 1
28 9.5244 0.969753 0.793701 -9.47982e-08 0.00813526 -4.75345e-18 1
69 10.3181 1.75234 0.793701 -1.21452e-07 0.00762159 -7.43279e-18 1
445 9.5244 0.176053 1.5874 -9.47982e-08 0.00813526 -1.78737e-18 1
446 10.3181 0.95864 1.5874 -1.21452e-07 0.00762159 -3.61416e-18 1
487 9.5244 1.76345 1.5874 -9.47982e-08 0.00813526 2.72959e-18 1
30 11.9055 0.924604 -2.49163e-16 -1.46947e-07 0.00604853 -1.34102e-17 1
31 11.9055 0.130904 0.793701 -1.46947e-07 0.00604853 -8.561e-18 1
32 11.1118 0.943466 0.793701 -1.42689e-07 0.00692026 -6.19831e-18 1
73 11.9055 1.7183 0.793701 -1.46947e-07 0.00604853 -5.23136e-18 1
449 11.1118 0.149765 1.5874 -1.42689e-07 0.00692026 -3.4108e-18 1
450 11.9055 0.924604 1.5874 -1.46947e-07 0.00604853 -3.87872e-18 1
491 11.1118 1.73717 1.5874 -1.42689e-07 0.00692026 -4.01607e-18 1
33 12.6992 0.108818 -1.9846e-16 -1.3559e-07 0.00502786 -1.3368e-17 1
34 13.4929 0.877752 -1.57492e-16 -1.12095e-07 0.00388339 -1.19706e-17 1
35 13.4929 0.0840513 0.793701 -1.12095e-07 0.00388339 -1.55171e-17 1
36 12.6992 0.902518 0.793701 -1.3559e-07 0.00502786 -6.08979e-18 1
75 12.6992 1.69622 -2.08012e-16 -1.3559e-07 0.00502786 -1.31889e-17 1
77 13.4929 1.67145 0.793701 -1.12095e-07 0.00388339 -5.97182e-18 1
453 12.6992 0.108818 1.5874 -1.3559e-07 0.00502786 -1.48938e-17 1
454 13.4929 0.877752 1.5874 -1.12095e-07 0.00388339 -1.18858e-17 1
495 12.6992 1.69622 1.5874 -1.3559e-07 0.00502786 -6.71692e-18 1
37 14.2866 0.0572134 -9.43572e-17 -7.96003e-08 0.0026433 -7.71842e-18 1
38 15.0803 0.822665 -4.17416e-17 -4.12243e-08 0.00133812 7.19999e-19 1
39 15.0803 0.0289645 0.793701 -4.12243e-08 0.00133812 -3.0251e-18 1
40 14.2866 0.850914 0.793701 -7.96003e-08 0.0026433 -6.12446e-18 1
41 15.874 6.96184e-17 2.41541e-17 -7.72561e-19 6.77915e-18 6.59003e-18 1
42 15.874 0.793701 0.793701 6.49502e-18 -8.06995e-18 2.64933e-18 1
79 14.2866 1.64461 -1.00831e-16 -7.96003e-08 0.0026433 -2.46573e-18 1
81 15.0803 1.61637 0.793701 -4.12243e-08 0.00133812 6.68731e-19 1
83 15.874 1.5874 8.6086e-18 4.16197e-18 -1.87224e-17 5.08484e-18 1
457 14.2866 0.0572134 1.5874 -7.96003e-08 0.0026433 -1.7485e-17 1
458 15.0803 0.822665 1.5874 -4.12243e-08 0.00133812 -2.91054e-18 1
461 15.874 5.73843e-17 1.5874 7.31855e-18 6.29282e-18 1.90218e-18 1
499 14.2866 1.64461 1.5874 -7.96003e-08 0.0026433 -4.19179e-18 1
503 15.874 1.5874 1.5874 6.94732e-18 -1.82121e-17 9.75373e-19 1
44 0.793701 2.41007 -2.63585e-17 4.12243e-08 0.00133812 -1.70395e-17 1
46 -1.8852e-17 2.3811 0.793701 8.26793e-18 -3.48349e-17 -5.43946e-18 1
50 1.5874 2.43831 0.793701 7.96003e-08 0.0026433 -9.31935e-18 1
85 -8.40307e-18 3.1748 3.4513e-17 1.47764e-17 -2.2756e-17 -1.90326e-17 1
87 0.793701 3.20377 0.793701 4.12243e-08 0.00133812 -4.9326e-18 1
89 1.5874 3.23202 -7.94338e-17 7.96003e-08 0.0026433 -1.02242e-17 1
464 0.793701 2.41007 1.5874 4.12243e-08 0.00133812 -2.0572e-18 1
505 -2.64835e-18 3.1748 1.5874 1.36008e-17 -1.6165e-17 9.45971e-19 1
509 1.5874 3.23202 1.5874 7.96003e-08 0.0026433 3.60781e-19 1
48 2.3811 2.46515 -1.60086e-16 1.12095e-07 0.00388339 -1.74624e-17 1
54 3.1748 2.48992 0.793701 1.3559e-07 0.00502786 -1.5398e-17 1
91 2.3811 3.25885 0.793701 1.12095e-07 0.00388339 -3.60626e-18 1
93 3.1748 3.28362 -1.53903e-16 1.3559e-07 0.00502786 -3.34006e-18 1
468 2.3811 2.46515 1.5874 1.12095e-07 0.00388339 -4.83859e-18 1
513 3.1748 3.28362 1.5874 1.3559e-07 0.00502786 -7.52597e-19 1
52 3.96851 2.51201 -1.75827e-16 1.46947e-07 0.00604853 -6.94369e-18 1
58 4.76221 2.53087 0.793701 1.42689e-07 0.00692026 8.88649e-19 1
95 3.96851 3.30571 0.793701 1.46947e-07 0.00604853 3.48872e-18 1
472 3.96851 2.51201 1.5874 1.46947e-07 0.00604853 -3.3407e-18 1
517 4.76221 3.32457 1.5874 1.42689e-07 0.00692026 5.93151e-18 1
62 6.34961 2.55715 0.793701 9.47982e-08 0.00813526 5.24334e-18 1
99 5.55591 3.33974 0.793701 1.21452e-07 0.00762159 9.87245e-18 1
476 5.55591 2.54604 1.5874 1.21452e-07 0.00762159 3.24539e-18 1
521 6.34961 3.35085 1.5874 9.47982e-08 0.00813526 2.04705e-17 1
66 7.93701 2.56621 0.793701 8.72739e-18 0.00855392 1.25035e-17 1
103 7.14331 3.35763 0.793701 8.28384e-08 0.00844861 1.58171e-17 1
107 8.7307 3.35763 0.793701 -8.28384e-08 0.00844861 1.17075e-17 1
480 7.14331 2.56393 1.5874 8.28384e-08 0.00844861 2.36959e-17 1
484 8.7307 2.56393 1.5874 -8.28384e-08 0.00844861 2.23938e-17 1
525 7.93701 3.35991 1.5874 1.15043e-17 0.00855392 4.56822e-17 1
70 9.5244 2.55715 0.793701 -9.47982e-08 0.00813526 1.25437e-18 1
111 10.3181 3.33974 0.793701 -1.21452e-07 0.00762159 -1.15816e-18 1
488 10.3181 2.54604 1.5874 -1.21452e-07 0.00762159 -6.30119e-19 1
529 9.5244 3.35085 1.5874 -9.47982e-08 0.00813526 1.44333e-17 1
72 11.9055 2.51201 -2.10945e-16 -1.46947e-07 0.00604853 -1.09018e-17 1
74 11.1118 2.53087 0.793701 -1.42689e-07 0.00692026 -6.97876e-18 1
115 11.9055 3.30571 0.793701 -1.46947e-07 0.00604853 -2.90792e-18 1
492 11.9055 2.51201 1.5874 -1.46947e-07 0.00604853 -3.75514e-18 1
533 11.1118 3.32457 1.5874 -1.42689e-07 0.00692026 -1.68664e-18 1
76 13.4929 2.46515 -1.48348e-16 -1.12095e-07 0.00388339 -3.42206e-18 1
78 12.6992 2.48992 0.793701 -1.3559e-07 0.00502786 -5.31601e-18 1
117 12.6992 3.28362 -1.80192e-16 -1.3559e-07 0.00502786 -1.82198e-18 1
119 13.4929 3.25885 0.793701 -1.12095e-07 0.00388339 1.27224e-18 1
496 13.4929 2.46515 1.5874 -1.12095e-07 0.00388339 -3.4715e-18 1
537 12.6992 3.28362 1.5874 -1.3559e-07 0.00502786 -1.57155e-18 1
80 15.0803 2.41007 -3.91304e-17 -4.12243e-08 0.00133812 4.95515e-18 1
82 14.2866 2.43831 0.793701 -7.96003e-08 0.0026433 6.87407e-20 1
84 15.874 2.3811 0.793701 -8.79947e-19 -2.31399e-17 3.20943e-18 1
121 14.2866 3.23202 -9.93555e-17 -7.96003e-08 0.0026433 5.53983e-18 1
123 15.0803 3.20377 0.793701 -4.12243e-08 0.00133812 4.38681e-18 1
125 15.874 3.1748 1.18984e-17 -1.16545e-17 -3.23702e-17 8.84132e-18 1
500 15.0803 2.41007 1.5874 -4.12243e-08 0.00133812 -3.73429e-19 1
541 14.2866 3.23202 1.5874 -7.96003e-08 0.0026433 -2.53359e-19 1
545 15.874 3.1748 1.5874 -1.23257e-17 -2.95099e-17 -2.11436e-20 1
86 0.793701 3.99747 -3.6129e-17 4.12243e-08 0.00133812 -7.03258e-18 1
88 1.44472e-17 3.9685 0.793701 1.79695e-17 -3.08205e-17 -1.00589e-19 1
92 1.5874 4.02572 0.793701 7.96003e-08 0.0026433 7.49285e-19 1
127 3.56986e-18 4.7622 3.75208e-18 1.64543e-17 -7.66002e-17 1.06795e-18 1
129 0.793701 4.79117 0.793701 4.12243e-08 0.00133812 4.75692e-18 1
131 1.5874 4.81942 -7.24131e-17 7.96003e-08 0.0026433 3.06309e-18 1
506 0.793701 3.99747 1.5874 4.12243e-08 0.00133812 3.51066e-18 1
547 9.68404e-18 4.7622 1.5874 1.31555e-17 -6.17642e-17 7.22647e-18 1
551 1.5874 4.81942 1.5874 7.96003e-08 0.0026433 8.33128e-18 1
90 2.3811 4.05255 -1.07975e-16 1.12095e-07 0.00388339 1.37462e-18 1
96 3.1748 4.07732 0.793701 1.3559e-07 0.00502786 6.1483e-18 1
133 2.3811 4.84625 0.793701 1.12095e-07 0.00388339 6.8725e-18 1
135 3.1748 4.87102 -1.23559e-16 1.3559e-07 0.00502786 8.10553e-18 1
510 2.3811 4.05255 1.5874 1.12095e-07 0.00388339 5.44306e-18 1
555 3.1748 4.87102 1.5874 1.3559e-07 0.00502786 1.12542e-17 1
94 3.96851 4.09941 -1.12236e-16 1.46947e-07 0.00604853 8.95581e-18 1
100 4.76221 4.11827 0.793701 1.42689e-07 0.00692026 1.5912e-17 1
137 3.96851 4.89311 0.793701 1.46947e-07 0.00604853 1.49028e-17 1
514 3.96851 4.09941 1.5874 1.46947e-07 0.00604853 9.50044e-18 1
559 4.76221 4.91197 1.5874 1.42689e-07 0.00692026 1.96535e-17 1
104 6.34961 4.14456 0.793701 9.47982e-08 0.00813526 1.81597e-17 1
141 5.55591 4.92714 0.793701 1.21452e-07 0.00762159 2.07256e-17 1
518 5.55591 4.13344 1.5874 1.21452e-07 0.00762159 1.98432e-17 1
563 6.34961 4.93826 1.5874 9.47982e-08 0.00813526 2.97137e-17 1
108 7.93701 4.15361 0.793701 1.67851e-17 0.00855392 1.96257e-17 1
145 7.14331 4.94504 0.793701 8.28384e-08 0.00844861 1.90468e-17 1
149 8.7307 4.94504 0.793701 -8.28384e-08 0.00844861 1.3097e-17 1
522 7.14331 4.15133 1.5874 8.28384e-08 0.00844861 4.87276e-17 1
526 8.7307 4.15133 1.5874 -8.28384e-08 0.00844861 4.41794e-17 1
567 7.93701 4.94731 1.5874 1.55275e-17 0.00855392 4.42842e-17 1
112 9.5244 4.14456 0.793701 -9.47982e-08 0.00813526 6.62496e-18 1
153 10.3181 4.92714 0.793701 -1.21452e-07 0.00762159 3.58275e-18 1
530 10.3181 4.13344 1.5874 -1.21452e-07 0.00762159 4.68461e-18 1
571 9.5244 4.93826 1.5874 -9.47982e-08 0.00813526 1.85588e-17 1
114 11.9055 4.09941 -1.75002e-16 -1.46947e-07 0.00604853 2.04642e-18 1
116 11.1118 4.11827 0.793701 -1.42689e-07 0.00692026 2.27179e-19 1
157 11.9055 4.89311 0.793701 -1.46947e-07 0.00604853 3.19502e-18 1
534 11.9055 4.09941 1.5874 -1.46947e-07 0.00604853 4.99872e-19 1
575 11.1118 4.91197 1.5874 -1.42689e-07 0.00692026 2.28119e-18 1
118 13.4929 4.05255 -1.50089e-16 -1.12095e-07 0.00388339 8.48849e-18 1
120 12.6992 4.07732 0.793701 -1.3559e-07 0.00502786 3.28297e-18 1
159 12.6992 4.87102 -1.71507e-16 -1.3559e-07 0.00502786 1.02783e-17 1
161 13.4929 4.84625 0.793701 -1.12095e-07 0.00388339 1.81025e-17 1
538 13.4929 4.05255 1.5874 -1.12095e-07 0.00388339 2.49641e-18 1
579 12.6992 4.87102 1.5874 -1.3559e-07 0.00502786 3.81247e-18 1
122 15.0803 3.99747 -6.36085e-17 -4.12243e-08 0.00133812 9.26226e-18 1
124 14.2866 4.02572 0.793701 -7.96003e-08 0.0026433 1.34731e-17 1
126 15.874 3.9685 0.793701 -1.99894e-17 -3.4031e-17 7.8507e-18 1
163 14.2866 4.81942 -1.36716e-16 -7.96003e-08 0.0026433 1.42239e-17 1
165 15.0803 4.79117 0.793701 -4.12243e-08 0.00133812 2.34929e-17 1
167 15.874 4.7622 -1.79932e-17 -1.89909e-17 -2.99567e-17 1.22851e-17 1
542 15.0803 3.99747 1.5874 -4.12243e-08 0.00133812 2.20281e-18 1
583 14.2866 4.81942 1.5874 -7.96003e-08 0.0026433 1.29303e-17 1
587 15.874 4.7622 1.5874 -3.00422e-17 -1.84037e-17 3.48359e-18 1
128 0.793701 5.58487 -4.02749e-17 4.12243e-08 0.00133812 3.80641e-18 1
130 -2.92131e-17 5.5559 0.793701 6.48058e-18 -8.14188e-17 1.35597e-17 1
134 1.5874 5.61312 0.793701 7.96003e-08 0.0026433 7.32553e-18 1
169 -4.52209e-17 6.3496 -5.61914e-18 4.97133e-18 -6.78524e-17 3.57219e-18 1
171 0.793701 6.37857 0.793701 4.12243e-08 0.00133812 6.74306e-18 1
173 1.5874 6.40682 -6.60542e-17 7.96003e-08 0.0026433 6.96363e-18 1
548 0.793701 5.58487 1.5874 4.12243e-08 0.00133812 1.20963e-17 1
589 -3.71743e-17 6.3496 1.5874 3.08379e-18 -8.15849e-17 7.58071e-18 1
593 1.5874 6.40682 1.5874 7.96003e-08 0.0026433 8.01206e-18 1
132 2.3811 5.63995 -9.81899e-17 1.12095e-07 0.00388339 7.86733e-18 1
138 3.1748 5.66472 0.793701 1.3559e-07 0.00502786 1.12146e-17 1
175 2.3811 6.43366 0.793701 1.12095e-07 0.00388339 9.47832e-18 1
177 3.1748 6.45842 -1.26285e-16 1.3559e-07 0.00502786 9.5144e-18 1
552 2.3811 5.63995 1.5874 1.12095e-07 0.00388339 9.76165e-18 1
597 3.1748 6.45842 1.5874 1.3559e-07 0.00502786 6.26092e-18 1
136 3.96851 5.68681 -1.31893e-16 1.46947e-07 0.00604853 1.08127e-17 1
142 4.76221 5.70567 0.793701 1.42689e-07 0.00692026 1.65895e-17 1
179 3.96851 6.48051 0.793701 1.46947e-07 0.00604853 8.98644e-18 1
181 4.76221 6.49937 -1.5546e-16 1.42689e-07 0.00692026 9.01745e-18 1
556 3.96851 5.68681 1.5874 1.46947e-07 0.00604853 9.04658e-18 1
601 4.76221 6.49937 1.5874 1.42689e-07 0.00692026 8.87572e-18 1
146 6.34961 5.73196 0.793701 9.47982e-08 0.00813526 1.74162e-17 1
183 5.55591 6.51454 0.793701 1.21452e-07 0.00762159 1.34363e-17 1
560 5.55591 5.72084 1.5874 1.21452e-07 0.00762159 2.02937e-17 1
605 6.34961 6.52566 1.5874 9.47982e-08 0.00813526 1.67111e-17 1
150 7.93701 5.74101 0.793701 1.68419e-17 0.00855392 1.38643e-17 1
187 7.14331 6.53244 0.793701 8.28384e-08 0.00844861 1.18608e-17 1
191 8.7307 6.53244 0.793701 -8.28384e-08 0.00844861 8.94506e-18 1
564 7.14331 5.73874 1.5874 8.28384e-08 0.00844861 2.71742e-17 1
568 8.7307 5.73874 1.5874 -8.28384e-08 0.00844861 2.34819e-17 1
609 7.93701 6.53471 1.5874 1.26877e-17 0.00855392 1.9871e-17 1
154 9.5244 5.73196 0.793701 -9.47982e-08 0.00813526 7.03668e-18 1
195 10.3181 6.51454 0.793701 -1.21452e-07 0.00762159 3.95136e-18 1
572 10.3181 5.72084 1.5874 -1.21452e-07 0.00762159 6.36096e-18 1
613 9.5244 6.52566 1.5874 -9.47982e-08 0.00813526 1.23861e-17 1
156 11.9055 5.68681 -1.63353e-16 -1.46947e-07 0.00604853 7.5464e-18 1
158 11.1118 5.70567 0.793701 -1.42689e-07 0.00692026 2.93842e-18 1
199 11.9055 6.48051 0.793701 -1.46947e-07 0.00604853 3.50258e-18 1
576 11.9055 5.68681 1.5874 -1.46947e-07 0.00604853 2.32217e-18 1
617 11.1118 6.49937 1.5874 -1.42689e-07 0.00692026 3.02801e-18 1
160 13.4929 5.63995 -1.62669e-16 -1.12095e-07 0.00388339 1.40069e-17 1
162 12.6992 5.66472 0.793701 -1.3559e-07 0.00502786 8.31971e-18 1
201 12.6992 6.45842 -1.66587e-16 -1.3559e-07 0.00502786 1.07779e-17 1
203 13.4929 6.43366 0.793701 -1.12095e-07 0.00388339 1.5367e-17 1
580 13.4929 5.63995 1.5874 -1.12095e-07 0.00388339 1.51303e-17 1
621 12.6992 6.45842 1.5874 -1.3559e-07 0.00502786 5.31968e-18 1
164 15.0803 5.58487 -9.49158e-17 -4.12243e-08 0.00133812 1.96778e-17 1
166 14.2866 5.61312 0.793701 -7.96003e-08 0.0026433 3.06831e-17 1
168 15.874 5.5559 0.793701 -2.11243e-17 -5.15277e-18 1.74887e-17 1
205 14.2866 6.40682 -1.26186e-16 -7.96003e-08 0.0026433 1.64599e-17 1
207 15.0803 6.37857 0.793701 -4.12243e-08 0.00133812 1.95051e-17 1
209 15.874 6.3496 -2.23756e-18 -1.28081e-17 -3.73388e-18 2.24909e-17 1
584 15.0803 5.58487 1.5874 -4.12243e-08 0.00133812 1.48337e-17 1
625 14.2866 6.40682 1.5874 -7.96003e-08 0.0026433 1.54644e-17 1
629 15.874 6.3496 1.5874 -2.29663e-17 -1.5849e-17 3.41739e-18 1
170 0.793701 7.17227 -3.47798e-17 4.12243e-08 0.00133812 3.57194e-18 1
172 -2.35285e-17 7.1433 0.793701 4.34192e-18 -7.12999e-17 2.10898e-18 1
176 1.5874 7.20052 0.793701 7.96003e-08 0.0026433 4.76658e-18 1
211 -2.76904e-17 7.93701 -1.03222e-17 -3.43104e-18 -7.88328e-17 -2.50711e-18 1
212 0.793701 8.75967 -5.77123e-17 4.12243e-08 0.00133812 -2.72059e-18 1
213 0.793701 7.96597 0.793701 4.12243e-08 0.00133812 1.31693e-18 1
214 -3.41768e-18 8.73071 0.793701 -4.70114e-18 -8.28742e-17 3.21689e-18 1
215 1.5874 7.99422 -6.54027e-17 7.96003e-08 0.0026433 5.45642e-18 1
218 1.5874 8.78792 0.793701 7.96003e-08 0.0026433 1.36964e-18 1
590 0.793701 7.17227 1.5874 4.12243e-08 0.00133812 4.45034e-18 1
631 1.1041e-18 7.93701 1.5874 3.54894e-18 -7.453e-17 7.39323e-18 1
632 0.793701 8.75967 1.5874 4.12243e-08 0.00133812 8.34492e-18 1
635 1.5874 7.99422 1.5874 7.96003e-08 0.0026433 6.63402e-18 1
174 2.3811 7.22736 -9.26031e-17 1.12095e-07 0.00388339 9.52424e-18 1
180 3.1748 7.25212 0.793701 1.3559e-07 0.00502786 9.00188e-18 1
216 2.3811 8.81476 -1.2689e-16 1.12095e-07 0.00388339 1.70216e-18 1
217 2.3811 8.02106 0.793701 1.12095e-07 0.00388339 6.37487e-18 1
219 3.1748 8.04582 -1.47641e-16 1.3559e-07 0.00502786 5.19831e-18 1
222 3.1748 8.83952 0.793701 1.3559e-07 0.00502786 4.06719e-18 1
594 2.3811 7.22736 1.5874 1.12095e-07 0.00388339 1.00186e-17 1
636 2.3811 8.81476 1.5874 1.12095e-07 0.00388339 1.0588e-17 1
639 3.1748 8.04582 1.5874 1.3559e-07 0.00502786 1.49003e-17 1
178 3.96851 7.27421 -1.64044e-16 1.46947e-07 0.00604853 6.3359e-18 1
184 4.76221 7.29307 0.793701 1.42689e-07 0.00692026 8.0834e-18 1
221 3.96851 8.06791 0.793701 1.46947e-07 0.00604853 6.56999e-18 1
598 3.96851 7.27421 1.5874 1.46947e-07 0.00604853 7.95723e-18 1
643 4.76221 8.08677 1.5874 1.42689e-07 0.00692026 8.94489e-18 1
188 6.34961 7.31936 0.793701 9.47982e-08 0.00813526 8.2548e-18 1
225 5.55591 8.10194 0.793701 1.21452e-07 0.00762159 4.90302e-18 1
602 5.55591 7.30824 1.5874 1.21452e-07 0.00762159 9.7178e-18 1
647 6.34961 8.11306 1.5874 9.47982e-08 0.00813526 7.27764e-18 1
192 7.93701 7.32842 0.793701 1.00682e-17 0.00855392 7.93706e-18 1
229 7.14331 8.11984 0.793701 8.28384e-08 0.00844861 5.39328e-18 1
233 8.7307 8.11984 0.793701 -8.28384e-08 0.00844861 5.24248e-18 1
606 7.14331 7.32614 1.5874 8.28384e-08 0.00844861 1.33712e-17 1
610 8.7307 7.32614 1.5874 -8.28384e-08 0.00844861 1.38998e-17 1
651 7.93701 8.12212 1.5874 7.84452e-18 0.00855392 1.04971e-17 1
196 9.5244 7.31936 0.793701 -9.47982e-08 0.00813526 5.38435e-18 1
237 10.3181 8.10194 0.793701 -1.21452e-07 0.00762159 3.136e-18 1
614 10.3181 7.30824 1.5874 -1.21452e-07 0.00762159 6.35805e-18 1
655 9.5244 8.11306 1.5874 -9.47982e-08 0.00813526 8.68728e-18 1
198 11.9055 7.27421 -1.68371e-16 -1.46947e-07 0.00604853 6.86973e-18 1
200 11.1118 7.29307 0.793701 -1.42689e-07 0.00692026 2.75603e-18 1
241 11.9055 8.06791 0.793701 -1.46947e-07 0.00604853 2.80644e-18 1
618 11.9055 7.27421 1.5874 -1.46947e-07 0.00604853 2.13565e-18 1
659 11.1118 8.08677 1.5874 -1.42689e-07 0.00692026 3.40489e-18 1
202 13.4929 7.22736 -1.44435e-16 -1.12095e-07 0.00388339 1.0343e-17 1
204 12.6992 7.25212 0.793701 -1.3559e-07 0.00502786 5.6707e-18 1
243 12.6992 8.04582 -1.59371e-16 -1.3559e-07 0.00502786 9.04017e-18 1
244 13.4929 8.81476 -1.4279e-16 -1.12095e-07 0.00388339 7.64666e-18 1
245 13.4929 8.02106 0.793701 -1.12095e-07 0.00388339 6.38283e-18 1
246 12.6992 8.83952 0.793701 -1.3559e-07 0.00502786 3.25093e-18 1
622 13.4929 7.22736 1.5874 -1.12095e-07 0.00388339 6.05399e-18 1
663 12.6992 8.04582 1.5874 -1.3559e-07 0.00502786 1.91796e-18 1
664 13.4929 8.81476 1.5874 -1.12095e-07 0.00388339 1.35426e-18 1
206 15.0803 7.17227 -5.89765e-17 -4.12243e-08 0.00133812 1.26884e-17 1
208 14.2866 7.20052 0.793701 -7.96003e-08 0.0026433 1.24566e-17 1
210 15.874 7.1433 0.793701 -1.64427e-17 -3.18558e-17 5.93953e-18 1
247 14.2866 7.99422 -1.12746e-16 -7.96003e-08 0.0026433 8.14791e-18 1
248 15.0803 8.75967 -4.81497e-17 -4.12243e-08 0.00133812 9.52663e-18 1
249 15.0803 7.96597 0.793701 -4.12243e-08 0.00133812 5.30684e-18 1
250 14.2866 8.78792 0.793701 -7.96003e-08 0.0026433 5.41817e-18 1
251 15.874 7.93701 4.55423e-17 -2.03778e-17 -4.87867e-17 8.26398e-18 1
252 15.874 8.73071 0.793701 -2.4226e-17 -6.93054e-17 5.24049e-18 1
626 15.0803 7.17227 1.5874 -4.12243e-08 0.00133812 3.27343e-18 1
667 14.2866 7.99422 1.5874 -7.96003e-08 0.0026433 1.54557e-18 1
668 15.0803 8.75967 1.5874 -4.12243e-08 0.00133812 -1.72898e-18 1
671 15.874 7.93701 1.5874 -1.99274e-17 -4.96839e-17 1.70098e-19 1
253 2.50146e-18 9.52441 -7.9738e-17 -8.34482e-18 -6.56182e-17 -8.6585e-18 1
254 0.793701 10.3471 -1.44346e-16 4.12243e-08 0.00133812 -3.13957e-18 1
255 0.793701 9.55337 0.793701 4.12243e-08 0.00133812 -9.58015e-19 1
256 4.449e-17 10.3181 0.793701 -1.40274e-18 -5.27411e-17 -6.89931e-18 1
257 1.5874 9.58162 -1.22685e-16 7.96003e-08 0.0026433 -4.95725e-18 1
260 1.5874 10.3753 0.793701 7.96003e-08 0.0026433 2.2395e-19 1
673 3.87653e-17 9.52441 1.5874 -6.23539e-18 -8.06529e-17 5.78702e-18 1
674 0.793701 10.3471 1.5874 4.12243e-08 0.00133812 -5.33149e-18 1
677 1.5874 9.58162 1.5874 7.96003e-08 0.0026433 4.4502e-18 1
258 2.3811 10.4022 -1.53849e-16 1.12095e-07 0.00388339 7.85661e-19 1
259 2.3811 9.60846 0.793701 1.12095e-07 0.00388339 1.585e-18 1
261 3.1748 9.63322 -1.64258e-16 1.3559e-07 0.00502786 -1.79537e-20 1
264 3.1748 10.4269 0.793701 1.3559e-07 0.00502786 2.18763e-18 1
678 2.3811 10.4022 1.5874 1.12095e-07 0.00388339 8.64486e-18 1
681 3.1748 9.63322 1.5874 1.3559e-07 0.00502786 8.1243e-18 1
220 3.96851 8.86161 -1.67415e-16 1.46947e-07 0.00604853 1.474e-18 1
226 4.76221 8.88047 0.793701 1.42689e-07 0.00692026 3.04496e-18 1
640 3.96851 8.86161 1.5874 1.46947e-07 0.00604853 8.8435e-18 1
262 3.96851 10.449 -1.74498e-16 1.46947e-07 0.00604853 1.31548e-19 1
263 3.96851 9.65531 0.793701 1.46947e-07 0.00604853 1.46644e-18 1
268 4.76221 10.4679 0.793701 1.42689e-07 0.00692026 1.00182e-18 1
682 3.96851 10.449 1.5874 1.46947e-07 0.00604853 3.04381e-18 1
685 4.76221 9.67417 1.5874 1.42689e-07 0.00692026 2.98976e-18 1
230 6.34961 8.90676 0.793701 9.47982e-08 0.00813526 3.16579e-18 1
644 5.55591 8.89565 1.5874 1.21452e-07 0.00762159 4.50627e-18 1
267 5.55591 9.68935 0.793701 1.21452e-07 0.00762159 1.76108e-18 1
272 6.34961 10.4942 0.793701 9.47982e-08 0.00813526 1.85885e-18 1
686 5.55591 10.483 1.5874 1.21452e-07 0.00762159 2.28072e-18 1
689 6.34961 9.70046 1.5874 9.47982e-08 0.00813526 3.94789e-18 1
234 7.93701 8.91582 0.793701 5.79687e-18 0.00855392 3.89431e-18 1
648 7.14331 8.91354 1.5874 8.28384e-08 0.00844861 6.60778e-18 1
652 8.7307 8.91354 1.5874 -8.28384e-08 0.00844861 7.53315e-18 1
271 7.14331 9.70724 0.793701 8.28384e-08 0.00844861 2.74389e-18 1
275 8.7307 9.70724 0.793701 -8.28384e-08 0.00844861 2.37385e-18 1
276 7.93701 10.5032 0.793701 2.89583e-18 0.00855392 2.12728e-18 1
690 7.14331 10.5009 1.5874 8.28384e-08 0.00844861 3.96648e-18 1
693 7.93701 9.70952 1.5874 4.59731e-18 0.00855392 5.61103e-18 1
694 8.7307 10.5009 1.5874 -8.28384e-08 0.00844861 3.63615e-18 1
238 9.5244 8.90676 0.793701 -9.47982e-08 0.00813526 2.92447e-18 1
656 10.3181 8.89565 1.5874 -1.21452e-07 0.00762159 5.28771e-18 1
279 10.3181 9.68935 0.793701 -1.21452e-07 0.00762159 -3.89016e-19 1
280 9.5244 10.4942 0.793701 -9.47982e-08 0.00813526 -1.06657e-18 1
697 9.5244 9.70046 1.5874 -9.47982e-08 0.00813526 4.24271e-18 1
698 10.3181 10.483 1.5874 -1.21452e-07 0.00762159 6.3045e-19 1
240 11.9055 8.86161 -1.62908e-16 -1.46947e-07 0.00604853 6.7745e-18 1
242 11.1118 8.88047 0.793701 -1.42689e-07 0.00692026 2.03474e-18 1
660 11.9055 8.86161 1.5874 -1.46947e-07 0.00604853 1.68619e-18 1
282 11.9055 10.449 -1.65069e-16 -1.46947e-07 0.00604853 3.51837e-18 1
283 11.9055 9.65531 0.793701 -1.46947e-07 0.00604853 1.97539e-18 1
284 11.1118 10.4679 0.793701 -1.42689e-07 0.00692026 -1.3568e-18 1
701 11.1118 9.67417 1.5874 -1.42689e-07 0.00692026 1.86285e-18 1
702 11.9055 10.449 1.5874 -1.46947e-07 0.00604853 9.64757e-19 1
285 12.6992 9.63322 -1.50548e-16 -1.3559e-07 0.00502786 8.37272e-18 1
286 13.4929 10.4022 -1.23245e-16 -1.12095e-07 0.00388339 7.78645e-18 1
287 13.4929 9.60846 0.793701 -1.12095e-07 0.00388339 3.77549e-18 1
288 12.6992 10.4269 0.793701 -1.3559e-07 0.00502786 2.73712e-18 1
705 12.6992 9.63322 1.5874 -1.3559e-07 0.00502786 1.21091e-18 1
706 13.4929 10.4022 1.5874 -1.12095e-07 0.00388339 2.13331e-18 1
289 14.2866 9.58162 -1.02219e-16 -7.96003e-08 0.0026433 7.81806e-18 1
290 15.0803 10.3471 -2.66934e-17 -4.12243e-08 0.00133812 1.0365e-17 1
291 15.0803 9.55337 0.793701 -4.12243e-08 0.00133812 5.93604e-18 1
292 14.2866 10.3753 0.793701 -7.96003e-08 0.0026433 5.73463e-18 1
293 15.874 9.52441 4.26534e-17 -2.81203e-17 -6.46558e-17 9.84724e-18 1
294 15.874 10.3181 0.793701 -2.62534e-17 -3.44915e-17 7.72567e-18 1
709 14.2866 9.58162 1.5874 -7.96003e-08 0.0026433 1.73039e-18 1
710 15.0803 10.3471 1.5874 -4.12243e-08 0.00133812 4.33477e-18 1
713 15.874 9.52441 1.5874 -2.72818e-17 -6.09286e-17 8.98983e-19 1
295 5.64495e-17 11.1118 -1.2071e-16 -8.95773e-18 -4.16901e-17 -3.11222e-18 1
296 0.793701 11.9345 -1.24582e-16 4.12243e-08 0.00133812 2.21273e-17 1
297 0.793701 11.1408 0.793701 4.12243e-08 0.00133812 -2.24546e-19 1
298 9.50282e-17 11.9055 0.793701 1.61758e-17 -4.19167e-17 -1.09634e-17 1
299 1.5874 11.169 -1.52682e-16 7.96003e-08 0.0026433 1.37803e-17 1
302 1.5874 11.9627 0.793701 7.96003e-08 0.0026433 1.70835e-17 1
715 8.69063e-17 11.1118 1.5874 1.44782e-17 -4.02584e-17 -1.33237e-17 1
716 0.793701 11.9345 1.5874 4.12243e-08 0.00133812 -1.36021e-18 1
719 1.5874 11.169 1.5874 7.96003e-08 0.0026433 6.11717e-18 1
300 2.3811 11.9896 -1.42975e-16 1.12095e-07 0.00388339 1.81804e-17 1
301 2.3811 11.1959 0.793701 1.12095e-07 0.00388339 1.09748e-17 1
303 3.1748 11.2206 -1.68744e-16 1.3559e-07 0.00502786 3.88484e-18 1
306 3.1748 12.0143 0.793701 1.3559e-07 0.00502786 1.68316e-17 1
720 2.3811 11.9896 1.5874 1.12095e-07 0.00388339 2.04512e-17 1
723 3.1748 11.2206 1.5874 1.3559e-07 0.00502786 1.22834e-17 1
304 3.96851 12.0364 -1.8449e-16 1.46947e-07 0.00604853 2.80445e-18 1
305 3.96851 11.2427 0.793701 1.46947e-07 0.00604853 3.42864e-18 1
310 4.76221 12.0553 0.793701 1.42689e-07 0.00692026 2.61702e-18 1
724 3.96851 12.0364 1.5874 1.46947e-07 0.00604853 1.24242e-17 1
727 4.76221 11.2616 1.5874 1.42689e-07 0.00692026 2.5428e-18 1
309 5.55591 11.2767 0.793701 1.21452e-07 0.00762159 1.295e-18 1
314 6.34961 12.0816 0.793701 9.47982e-08 0.00813526 1.84895e-18 1
728 5.55591 12.0704 1.5874 1.21452e-07 0.00762159 2.06921e-18 1
731 6.34961 11.2879 1.5874 9.47982e-08 0.00813526 2.63714e-18 1
313 7.14331 11.2946 0.793701 8.28384e-08 0.00844861 1.98883e-18 1
317 8.7307 11.2946 0.793701 -8.28384e-08 0.00844861 4.95018e-19 1
318 7.93701 12.0906 0.793701 -4.02328e-18 0.00855392 1.5367e-18 1
732 7.14331 12.0883 1.5874 8.28384e-08 0.00844861 3.14623e-18 1
735 7.93701 11.2969 1.5874 -6.30936e-19 0.00855392 3.29016e-18 1
736 8.7307 12.0883 1.5874 -8.28384e-08 0.00844861 2.20075e-18 1
321 10.3181 11.2767 0.793701 -1.21452e-07 0.00762159 -2.86282e-18 1
322 9.5244 12.0816 0.793701 -9.47982e-08 0.00813526 -1.62856e-18 1
739 9.5244 11.2879 1.5874 -9.47982e-08 0.00813526 1.20966e-18 1
740 10.3181 12.0704 1.5874 -1.21452e-07 0.00762159 2.57376e-19 1
324 11.9055 12.0364 -1.74042e-16 -1.46947e-07 0.00604853 -2.86454e-18 1
325 11.9055 11.2427 0.793701 -1.46947e-07 0.00604853 2.6592e-19 1
326 11.1118 12.0553 0.793701 -1.42689e-07 0.00692026 -2.06958e-18 1
743 11.1118 11.2616 1.5874 -1.42689e-07 0.00692026 1.96551e-19 1
744 11.9055 12.0364 1.5874 -1.46947e-07 0.00604853 3.00262e-19 1
327 12.6992 11.2206 -1.51123e-16 -1.3559e-07 0.00502786 4.92687e-18 1
328 13.4929 11.9896 -1.09556e-16 -1.12095e-07 0.00388339 2.09758e-18 1
329 13.4929 11.1959 0.793701 -1.12095e-07 0.00388339 3.95456e-18 1
330 12.6992 12.0143 0.793701 -1.3559e-07 0.00502786 -2.4687e-18 1
747 12.6992 11.2206 1.5874 -1.3559e-07 0.00502786 1.6123e-18 1
748 13.4929 11.9896 1.5874 -1.12095e-07 0.00388339 3.74766e-18 1
331 14.2866 11.169 -7.40648e-17 -7.96003e-08 0.0026433 8.97822e-18 1
332 15.0803 11.9345 -1.89384e-17 -4.12243e-08 0.00133812 8.77101e-18 1
333 15.0803 11.1408 0.793701 -4.12243e-08 0.00133812 7.81449e-18 1
334 14.2866 11.9627 0.793701 -7.96003e-08 0.0026433 4.29565e-18 1
335 15.874 11.1118 3.5968e-17 -1.78246e-17 -1.97112e-17 1.13272e-17 1
336 15.874 11.9055 0.793701 -7.69309e-18 -1.69181e-17 8.18565e-18 1
751 14.2866 11.169 1.5874 -7.96003e-08 0.0026433 4.42903e-18 1
752 15.0803 11.9345 1.5874 -4.12243e-08 0.00133812 5.69709e-18 1
755 15.874 11.1118 1.5874 -1.87972e-17 -1.92551e-17 5.90915e-18 1
337 9.33608e-17 12.6992 -6.50374e-17 -3.62243e-18 -4.42009e-17 -2.86729e-18 1
338 0.793701 13.5219 -8.77354e-17 4.12243e-08 0.00133812 2.0942e-17 1
339 0.793701 12.7282 0.793701 4.12243e-08 0.00133812 1.29367e-17 1
340 9.34156e-17 13.4929 0.793701 2.97829e-17 -2.0601e-17 2.61226e-18 1
341 1.5874 12.7564 -1.17994e-16 7.96003e-08 0.0026433 2.81662e-17 1
344 1.5874 13.5501 0.793701 7.96003e-08 0.0026433 1.97401e-17 1
757 1.00064e-16 12.6992 1.5874 3.80698e-17 -3.61132e-17 -6.86111e-18 1
758 0.793701 13.5219 1.5874 4.12243e-08 0.00133812 1.5054e-18 1
761 1.5874 12.7564 1.5874 7.96003e-08 0.0026433 1.17407e-17 1
342 2.3811 13.577 -1.38391e-16 1.12095e-07 0.00388339 1.22643e-17 1
343 2.3811 12.7833 0.793701 1.12095e-07 0.00388339 2.42005e-17 1
345 3.1748 12.808 -1.64219e-16 1.3559e-07 0.00502786 1.09424e-17 1
348 3.1748 13.6017 0.793701 1.3559e-07 0.00502786 2.06368e-17 1