ITEM: TIMESTEP
400
ITEM: NUMBER OF ATOMS
32000
ITEM: BOX BOUNDS pp pp pp
0.0000000000000000e+00 3.1748021039364001e+01
0.0000000000000000e+00 3.1748021039364001e+01
0.0000000000000000e+00 3.1748021039364001e+01
ITEM: ATOMS id x y z c_rho_peratom
1 31.7192 0.0700783 31.5657 1.00495
2 0.996763 0.83292 31.5167 1.00499
3 0.603701 31.6907 0.49483 1.00492
4 0.133028 0.934033 0.367399 1.00505
5 1.70564 31.5833 0.118855 1.00493
6 2.42899 0.748652 0.149882 1.00496
7 2.51304 0.0762393 0.947122 1.00482
8 1.62309 0.684043 0.910239 1.00505
9 3.35387 0.154649 0.0369869 1.00489
10 4.03 0.985503 0.246705 1.00497
11 4.12902 31.6598 0.985719 1.00486
12 3.26993 1.01649 0.836325 1.00494
13 4.6989 0.0548013 0.110284 1.00472
14 5.47843 0.770894 0.206243 1.00476
15 5.57656 31.5886 0.902415 1.00483
16 4.76873 0.636523 1.05115 1.00492
17 6.28005 31.6753 0.106559 1.00479
18 7.49066 0.873346 31.6609 1.00497
19 7.38081 31.6068 0.802386 1.00486
20 6.62772 0.570252 0.724675 1.0049
21 8.07369 31.5025 0.214686 1.0048
22 8.81728 0.735041 0.17171 1.00482
23 8.86943 31.4414 0.896937 1.00483
24 8.1242 0.555709 0.9809 1.00496
25 9.36208 31.4926 31.6821 1.00468
26 10.1983 0.599876 31.6946 1.00481
27 10.2911 31.3299 0.519484 1.00481
28 9.42166 0.571336 0.743653 1.00484
29 10.7996 31.5059 31.4777 1.0049
30 11.7016 0.349561 31.5759 1.00497
31 11.9442 31.3113 0.602405 1.00507
32 11.1283 0.395835 0.492706 1.00487
33 12.7917 31.4475 31.5843 1.0051
34 13.6069 0.633865 31.5872 1.00525
35 13.6022 31.4303 1.00786 1.0053
36 12.7513 0.359874 0.514894 1.00518
37 14.3226 0.052728 0.0171086 1.00532
38 15.1482 0.789543 0.0134543 1.00551
39 15.1909 31.4742 0.994438 1.0054
40 14.3021 0.458237 0.678791 1.00543
41 15.7985 31.6782 0.252591 1.00557
42 16.5093 0.87753 31.6139 1.00565
43 16.5712 31.5112 0.717696 1.00563
44 15.6697 0.902839 0.697057 1.00556
45 17.5558 31.7402 31.6237 1.00558
46 18.1279 0.915476 31.5374 1.00563
47 18.2063 31.74 0.561415 1.0056
48 17.2949 0.819002 0.383144 1.00562
49 18.9013 31.7175 31.2884 1.00551
50 19.5337 0.724505 31.406 1.00573
51 19.581 0.0530557 0.487331 1.00568
52 18.9155 0.698242 0.532403 1.00563
53 20.3713 31.5201 31.7012 1.00582
54 21.3061 0.678864 31.6871 1.00583
55 21.1641 0.321899 0.874256 1.00593
56 20.3391 0.704819 0.810657 1.00593
57 22.0642 0.133228 0.262079 1.00576
58 23.1742 0.91505 0.0341373 1.00575
59 22.8514 0.259642 1.10461 1.00581
60 22.224 0.967123 1.05844 1.00582
61 23.6304 0.235325 0.285303 1.00575
62 24.6688 0.955743 0.448677 1.00568
63 24.2804 0.159128 1.07246 1.00577
64 23.598 1.00598 1.03875 1.00583
65 24.9817 0.0886906 0.345404 1.00561
66 25.994 0.599776 0.0950113 1.00547
67 26.1936 0.130968 0.971139 1.00551
68 25.3168 0.829515 1.20248 1.00571
69 26.8166 31.7128 31.716 1.00537
70 27.6299 1.08104 0.158964 1.00534
71 27.6404 0.20269 0.639421 1.00541
72 26.8542 0.781426 0.986507 1.00548
73 28.6468 0.404523 31.5289 1.00526
74 29.5172 1.13775 31.5127 1.00539
75 29.2879 0.0814662 0.456448 1.00529
76 28.6816 1.0578 0.535511 1.00541
77 29.9995 0.067796 31.4771 1.00524
78 31.0418 1.10783 31.6084 1.00521
79 30.6381 0.325572 0.366502 1.00522
80 30.1054 1.0849 0.551774 1.00541
81 0.139954 1.74484 31.3386 1.00508
82 1.03279 2.33981 0.0277009 1.00511
83 0.887714 1.61602 0.620742 1.00517
84 0.0754195 2.28537 0.702935 1.00524
85 1.61617 1.41952 0.0976382 1.00505
86 2.57931 2.34186 31.6644 1.00511
87 2.52361 1.5436 0.808167 1.00502
88 1.83501 2.40616 0.66383 1.00512
89 3.10293 1.65201 31.4296 1.00513
90 3.98629 2.70178 31.4984 1.00505
91 3.83348 1.90438 0.561411 1.00506
92 3.19435 2.68403 0.671438 1.00504
93 4.74334 1.61372 0.265558 1.00497
94 5.46983 2.595 0.00932548 1.00501
95 5.77398 1.51004 0.718439 1.00494
96 4.73955 2.73018 0.671767 1.00508
97 6.38067 1.47048 0.0769037 1.00487
98 7.30272 2.41008 0.0985657 1.00495
99 7.21234 1.36479 0.764983 1.00493
100 6.35327 2.28696 0.600807 1.00491
101 8.12156 1.63145 0.13437 1.00496
102 8.72152 2.21156 0.198372 1.00501
103 8.92805 1.5302 0.990495 1.00503
104 7.91056 2.37415 0.767059 1.00498
105 9.59324 1.5791 31.7278 1.00495
106 10.1402 2.29429 0.219087 1.00495
107 10.2664 1.2175 0.656228 1.0049
108 9.65391 2.27764 1.04624 1.005
109 11.0104 1.52633 31.5867 1.00498
110 11.6802 2.28343 31.5319 1.00514
111 12.0285 1.21396 0.425998 1.00509
112 11.0515 1.99518 0.706288 1.00498
113 12.6816 1.23703 31.6043 1.00531
114 13.3346 2.45563 0.0214935 1.00547
115 13.5653 1.23798 0.833842 1.00538
116 12.6229 2.01086 0.442411 1.00538
117 13.9994 1.71267 0.169364 1.00541
118 14.9035 2.57595 0.0676746 1.00542
119 14.8737 1.69435 0.59086 1.00537
120 13.9278 2.5735 0.853314 1.00543
121 15.693 1.91452 31.5778 1.00556
122 16.622 2.23556 31.3153 1.0057
123 16.6328 1.58632 0.532599 1.00559
124 15.7593 2.54404 0.644979 1.00558
125 17.4759 1.73572 31.4328 1.00562
126 18.2412 2.29013 31.4809 1.00583
127 17.9948 1.52207 0.646416 1.00566
128 17.0899 2.40196 0.53372 1.00571
129 19.0237 1.61638 31.5111 1.00572
130 19.6628 2.32966 31.5893 1.00588
131 19.6018 1.47551 0.662337 1.00579
132 19.0124 2.27772 0.783473 1.0058
133 20.4844 1.48122 31.6248 1.00595
134 21.2833 2.35931 0.133913 1.00587
135 21.2556 1.5871 0.697346 1.00588
136 20.3518 2.39858 0.861312 1.00597
137 22.1683 1.40721 0.217068 1.00581
138 23.2034 2.3757 0.378499 1.00595
139 23.0235 1.88198 1.15425 1.00585
140 22.3434 2.32871 0.830788 1.00592
141 23.9642 1.59358 0.263711 1.00572
142 24.4874 2.38141 0.335113 1.00578
143 24.6324 1.73241 1.27673 1.00584
144 23.9623 2.70468 1.07467 1.00593
145 25.2359 1.60328 0.0934721 1.00559
146 25.9234 2.35287 0.329608 1.00573
147 26.0896 1.46655 0.963849 1.00566
148 25.4027 2.30188 1.04837 1.00587
149 26.671 1.56631 0.202554 1.00547
150 27.2538 2.50909 0.294794 1.00568
151 27.6644 1.7334 0.915691 1.00561
152 26.7377 2.26633 1.14372 1.00573
153 28.3018 1.83847 0.0867499 1.00548
154 29.269 2.48195 0.0404877 1.00557
155 29.5658 1.93631 0.665558 1.00544
156 28.4136 2.58461 0.923353 1.00575
157 30.3757 1.71419 31.621 1.00538
158 31.1441 2.56607 31.5734 1.0053
159 30.901 1.89466 0.791269 1.00538
160 30.2204 2.67672 0.830586 1.00549
161 0.23558 3.00245 31.7001 1.00523
162 0.985774 3.83747 31.5722 1.00528
163 1.21056 3.288 0.777737 1.00527
164 0.208167 3.74274 0.68826 1.00528
165 1.81717 3.31675 31.5448 1.00516
166 2.49157 4.22518 0.0154606 1.00529
167 2.51671 3.30483 0.70341 1.00519
168 1.72348 4.04293 0.622495 1.00539
169 3.17338 3.44872 31.602 1.00515
170 4.11395 4.28164 0.00859532 1.00515
171 4.0052 3.33225 0.565708 1.00506
172 3.38519 4.16233 0.744761 1.00528
173 4.85229 3.47911 31.5496 1.00502
174 5.5605 3.99529 0.0904567 1.00521
175 5.4262 3.34696 0.766257 1.00507
176 4.75361 4.12805 1.13057 1.00519
177 6.58701 3.01791 0.013458 1.005
178 7.36951 3.72143 31.525 1.00502
179 7.15179 3.23817 0.879353 1.00497
180 6.30073 3.89155 0.654306 1.00506
181 8.17177 3.13173 31.6816 1.00504
182 8.81893 3.9517 0.00680866 1.00496
183 8.64945 3.14595 0.874148 1.00499
184 8.05564 4.12811 0.620802 1.005
185 9.42557 2.98524 0.0318134 1.00499
186 10.456 3.98353 0.0542775 1.00497
187 10.4548 2.96496 0.929051 1.00504
188 9.76742 3.7009 0.823346 1.00508
189 10.8204 2.85395 31.6263 1.00497
190 11.6828 3.92129 31.6075 1.00504
191 11.7828 2.75462 0.669892 1.00518
192 11.3142 3.85416 0.735917 1.00507
193 12.3907 3.03986 31.5768 1.00526
194 13.2435 3.81917 31.6099 1.00542
195 13.1262 3.07043 0.820464 1.0054
196 12.4381 3.57149 0.759745 1.0053
197 14.1768 3.29331 31.7068 1.0054
198 15.0319 4.18322 31.6547 1.00547
199 14.6463 3.50592 0.794127 1.00549
200 13.9747 4.16727 0.620321 1.00552
201 15.5607 3.33205 31.7225 1.0056
202 16.7274 3.73177 31.5614 1.00577
203 16.3248 3.21384 0.512022 1.00575
204 15.7518 4.16073 0.809935 1.00561
205 17.3771 3.09585 31.4763 1.00587
206 18.3038 3.82098 31.5877 1.00609
207 18.032 2.88994 0.453848 1.00589
208 17.4377 3.81814 0.621048 1.00589
209 19.0208 2.90942 31.7336 1.00602
210 19.7951 3.68418 31.6588 1.00635
211 19.8944 3.18339 1.03477 1.00607
212 19.1459 3.62889 0.630024 1.00615
213 20.5539 2.87276 0.0204404 1.00596
214 21.2754 3.75904 0.0925713 1.00611
215 21.5896 3.18497 0.981435 1.00601
216 20.7318 3.67415 0.959345 1.00613
217 22.2176 2.99759 0.227671 1.00606
218 22.8678 4.18867 0.0444759 1.00613
219 23.0547 3.5016 1.02899 1.00613
220 22.2209 4.02111 0.878521 1.00614
221 23.8571 3.48589 0.337598 1.0061
222 24.5846 4.11641 0.167104 1.00606
223 24.6761 3.27565 1.07195 1.00598
224 23.7317 4.3952 0.800607 1.00619
225 25.2851 3.54655 0.406313 1.00599
226 25.729 4.28438 31.6688 1.00605
227 25.9283 3.27792 1.03421 1.00595
228 25.2917 4.33839 1.15314 1.00615
229 26.292 3.25187 0.160362 1.00586
230 27.1923 3.83947 0.144316 1.00589
231 27.3592 3.18999 1.05995 1.00581
232 26.6587 4.17559 0.943748 1.00599
233 28.0396 3.05297 31.7169 1.00576
234 28.9749 3.67777 0.204337 1.0058
235 29.3528 3.11577 0.901975 1.00561
236 28.1033 3.7926 0.660347 1.00584
237 30.0687 3.16925 31.5767 1.00559
238 31.0681 3.90322 0.151755 1.0054
239 31.0349 3.29536 0.731263 1.00537
240 30.0995 4.03565 0.637531 1.00567
241 0.114563 4.50637 0.202309 1.00529
242 0.781108 5.52417 0.220665 1.00539
243 1.02493 4.79169 0.771233 1.00544
244 0.0159858 5.33138 0.959092 1.00537
245 1.82955 5.04841 0.0806389 1.00543
246 2.56038 5.74839 0.0373138 1.0054
247 2.40022 4.92384 0.966134 1.00546
248 1.39514 5.58155 1.13807 1.00542
249 3.21803 4.96371 31.6961 1.00527
250 4.02495 5.54534 0.211265 1.00526
251 3.81224 4.97049 0.885613 1.00525
252 2.9421 5.76827 1.18826 1.0053
253 4.84424 4.86903 0.25537 1.00522
254 5.63622 5.55736 0.214047 1.00526
255 5.42634 4.91133 0.991519 1.00513
256 4.81249 5.55085 1.18555 1.00518
257 6.43151 4.51434 31.5778 1.00529
258 7.13258 5.43304 31.7037 1.00527
259 7.22622 4.63015 0.417791 1.00513
260 6.57274 5.25826 0.758837 1.00523
261 8.08633 4.90882 31.4546 1.00498
262 8.8362 5.57555 31.739 1.00507
263 8.97124 4.66676 0.789521 1.00502
264 8.11797 5.39547 0.52164 1.00512
265 9.74486 4.57391 0.0858286 1.00502
266 10.3222 5.65875 31.6349 1.00522
267 10.5009 4.84602 0.858616 1.00512
268 9.6065 5.32588 0.739917 1.00515
269 11.311 4.70002 0.192445 1.00508
270 11.9549 5.69399 0.14177 1.00527
271 12.1025 4.53358 0.994203 1.00524
272 11.3023 5.30228 0.872437 1.00524
273 12.6859 4.58711 31.7302 1.0054
274 13.2759 5.49915 0.00915184 1.00555
275 13.1817 4.65906 0.75018 1.00553
276 12.6121 5.82862 0.763326 1.00546
277 14.1964 4.971 31.7091 1.00567
278 15.0531 5.56995 31.6175 1.006
279 14.9818 4.9829 0.682957 1.00572
280 14.0716 5.63427 0.632883 1.0057
281 16.0191 4.68198 0.0603458 1.00575
282 16.7692 5.31367 31.7473 1.00596
283 16.6698 4.51225 0.718573 1.00583
284 15.9352 5.73027 0.87067 1.00591
285 17.6277 4.47099 31.5121 1.00592
286 18.0363 5.19753 0.322316 1.00619
287 18.2158 4.39663 0.881523 1.00612
288 17.259 5.37203 1.0416 1.00603
289 19.0112 4.41421 0.141796 1.00635
290 19.6359 5.69614 0.31946 1.00645
291 19.9792 4.65827 0.707353 1.00641
292 19.0638 5.19546 0.871185 1.00637
293 20.3745 4.72297 31.6831 1.00646
294 21.0016 5.64159 0.288037 1.0065
295 21.2109 4.55823 1.06032 1.0063
296 20.564 5.46637 1.01103 1.00653
297 21.8392 4.78112 0.402379 1.00634
298 23.0016 5.66767 0.256045 1.00635
299 22.7399 5.02507 0.805011 1.00636
300 22.0704 5.80131 1.00263 1.00666
301 23.8841 4.8882 0.0710243 1.00617
302 24.3685 5.90943 31.6706 1.00622
303 24.6659 5.1907 0.924038 1.00625
304 23.814 5.73977 0.89866 1.0063
305 25.081 5.14466 0.0833745 1.00614
306 25.8614 5.81004 0.263537 1.00599
307 25.8758 4.99462 0.87864 1.00607
308 25.4321 5.92762 1.2579 1.0062
309 26.705 4.84949 0.205808 1.00596
310 27.6263 5.48239 0.353926 1.00592
311 27.4666 4.74818 0.947635 1.0059
312 26.9035 5.74894 1.00981 1.00598
313 28.4688 4.68539 0.339357 1.00585
314 29.4899 5.27594 0.394284 1.00567
315 29.144 4.47769 1.04024 1.00572
316 28.4403 5.40255 1.12565 1.00592
317 30.2518 4.67125 0.15491 1.00558
318 30.9193 5.35179 0.31412 1.0054
319 30.9505 4.67377 1.16358 1.00548
320 30.25 5.44216 1.18554 1.00555
321 31.6246 6.05316 0.134664 1.00538
322 0.910297 7.09465 0.292174 1.0054
323 0.756509 6.38882 1.02586 1.00549
324 0.173511 6.96694 1.23335 1.00557
325 1.80745 6.27193 0.316186 1.00551
326 2.36182 7.31777 0.28032 1.00548
327 2.09542 6.29248 1.23724 1.00536
328 1.59673 7.09105 1.00593 1.00545
329 3.23243 6.36399 0.363261 1.00535
330 3.83114 7.24035 0.108384 1.00521
331 4.03257 6.22726 1.03411 1.00527
332 3.23497 7.06244 0.992758 1.00538
333 4.68714 6.34004 0.214873 1.0052
334 5.41781 7.18101 0.0121703 1.00514
335 5.58667 6.48728 0.841258 1.00528
336 4.60389 6.90338 0.985793 1.0053
337 6.25004 6.09721 0.0533997 1.00533
338 6.95663 6.94461 31.6092 1.00532
339 7.17526 6.35114 0.785333 1.0053
340 6.2755 7.03888 0.96991 1.00524
341 7.88686 6.20176 31.4396 1.00529
342 8.79543 6.86609 31.6783 1.00509
343 8.70531 6.32102 0.653155 1.00513
344 7.90929 6.97571 0.72604 1.00519
345 9.67268 6.20998 0.0181221 1.00514
346 10.4491 6.92398 0.105348 1.00532
347 10.4468 6.04843 0.982533 1.00538
348 9.80729 7.23695 0.700979 1.00535
349 11.264 6.43468 0.0829036 1.00536
350 11.8688 7.3803 31.7468 1.00547
351 11.7204 6.12497 0.987309 1.00539
352 11.3116 7.06655 0.713451 1.00537
353 12.6377 6.39542 31.5973 1.00542
354 13.5788 7.20521 31.3769 1.00576
355 13.415 6.54129 0.723142 1.0056
356 12.6902 7.25713 0.428255 1.00564
357 14.129 6.36465 31.6782 1.00585
358 14.9963 7.28213 31.5931 1.00618
359 15.1732 6.34225 0.668849 1.00599
360 14.3952 7.20269 0.408554 1.00593
361 15.723 6.24327 31.5382 1.00628
362 16.5426 7.00331 0.0610005 1.00633
363 16.6572 6.31802 0.904732 1.00606
364 15.7557 7.17592 0.818444 1.00612
365 17.1622 6.15603 0.22828 1.0062
366 18.008 7.00922 31.6822 1.00675
367 17.8798 6.15357 1.11285 1.00634
368 17.137 7.23035 0.844508 1.00647
369 18.6134 6.08915 0.348477 1.00652
370 19.2253 7.20736 0.334781 1.00672
371 19.6803 6.44387 0.967455 1.0066
372 18.4798 6.8613 0.825191 1.00666
373 20.2923 6.6305 0.280215 1.00653
374 20.9316 7.37182 0.340774 1.00659
375 21.1344 6.48988 0.873119 1.00666
376 20.1073 7.55678 1.02805 1.0067
377 21.9598 6.50174 0.262426 1.00656
378 22.623 7.46071 0.00435006 1.00658
379 22.9603 6.57522 0.803863 1.0065
380 21.8169 7.59945 0.799805 1.00672
381 23.5617 6.67544 31.5866 1.00622
382 24.5718 7.31487 31.584 1.0062
383 24.5129 6.45721 0.746903 1.00637
384 23.6811 7.19132 0.571266 1.00643
385 25.3848 6.71538 0.114439 1.00623
386 26.3123 7.24251 31.7442 1.00609
387 25.9857 6.53771 0.913786 1.00612
388 25.4011 7.40719 0.883344 1.00629
389 26.9112 6.3193 0.207224 1.00592
390 27.859 7.05465 0.171151 1.00584
391 27.8854 6.53358 0.921368 1.00608
392 26.9289 7.02726 1.02542 1.00611
393 28.4658 6.13643 0.161521 1.00587
394 29.5661 6.84067 0.148744 1.0058
395 29.4932 6.20648 1.0275 1.00585
396 28.7957 7.17255 0.787922 1.00588
397 30.3952 6.22145 0.320391 1.00564
398 31.1102 7.0587 0.302007 1.00553
399 31.2408 6.20316 1.0592 1.00548
400 30.3917 7.21603 0.829736 1.00563
401 0.189881 7.70409 0.435658 1.00551
402 0.658592 8.57578 0.458732 1.00556
403 0.992974 8.02573 1.36059 1.00549
404 0.283844 8.70245 1.2926 1.00554
405 1.43106 7.8484 0.150381 1.00542
406 2.03885 8.71258 0.347974 1.00547
407 2.18236 7.93426 1.1262 1.0054
408 1.64138 8.86859 1.30713 1.00539
409 3.125 7.92954 0.137722 1.00534
410 3.65932 8.59236 0.0852264 1.00519
411 3.85478 7.82002 1.19915 1.00529
412 2.85129 8.67322 0.799042 1.00536
413 4.52633 7.748 0.163588 1.00514
414 5.77175 8.51891 0.209716 1.00536
415 5.38061 7.7699 1.00119 1.00534
416 4.56135 8.37219 0.864602 1.00528
417 6.31546 7.64231 0.15872 1.0052
418 7.27151 8.59215 31.6529 1.00538
419 7.13887 7.87268 0.760231 1.00523
420 6.27171 8.44476 1.06231 1.0053
421 7.86905 7.67777 31.7313 1.00522
422 8.96772 8.45735 31.7075 1.00531
423 8.80321 7.60737 0.629247 1.00526
424 8.24258 8.43698 0.846021 1.00537
425 9.74983 7.8862 31.5618 1.00526
426 10.4205 8.82439 0.101988 1.00542
427 10.4679 7.95426 0.800369 1.00534
428 9.60742 8.62166 0.682115 1.00533
429 11.1624 8.08987 0.0141547 1.0054
430 11.9403 9.02858 31.6239 1.00569
431 12.1335 8.15051 0.504058 1.00553
432 11.3931 8.73696 0.697753 1.00557
433 12.7781 8.25072 31.5043 1.00577
434 13.7737 8.86985 31.5688 1.00614
435 13.6743 7.99716 0.307646 1.00588
436 13.053 8.69731 0.718477 1.0059
437 14.5792 8.31897 31.5435 1.00616
438 15.3641 9.03653 31.6933 1.00643
439 15.1434 8.11134 0.682745 1.00614
440 14.5715 8.99535 0.561918 1.00626
441 16.0054 8.18352 31.6744 1.0063
442 16.6713 8.78724 0.0310103 1.00659
443 16.3813 7.98345 0.879419 1.00643
444 16.1047 8.94682 0.930353 1.0064
445 17.1777 7.92193 0.213453 1.00666
446 17.9326 8.89473 31.6034 1.00674
447 17.9245 7.81916 0.82564 1.00669
448 17.2415 8.96556 0.946625 1.00662
449 18.6324 8.05112 31.6046 1.00677
450 19.4333 8.81807 31.6879 1.00673
451 19.1597 8.00359 0.882957 1.00674
452 18.4534 8.66615 0.661525 1.00672
453 20.0105 8.05836 0.121014 1.00668
454 21.0941 9.04058 31.7132 1.0068
455 20.9038 8.32558 0.720594 1.00676
456 20.0729 8.84307 0.778619 1.00678
457 21.8323 8.28963 31.7135 1.00673
458 22.9947 8.77675 31.7195 1.00669
459 22.8828 8.1097 0.674752 1.00668
460 21.8603 9.03585 0.740654 1.00683
461 23.7496 8.01442 0.125996 1.00643
462 24.4238 8.7986 31.6349 1.00645
463 24.6207 8.05615 0.649359 1.0064
464 23.6326 8.97577 0.759513 1.00663
465 25.3175 8.11229 31.6634 1.0062
466 26.3296 8.65032 31.5493 1.00609
467 26.1203 8.04082 0.652436 1.00611
468 25.4906 8.91937 0.693923 1.00612
469 27.0841 7.78344 31.7224 1.00594
470 27.9656 8.58994 0.159526 1.00589
471 27.7956 7.94499 0.86507 1.00613
472 27.0225 8.75186 0.772568 1.006
473 28.6817 7.74945 0.04928 1.00569
474 29.5203 8.42853 0.295834 1.00573
475 29.4627 7.75728 0.905525 1.0058
476 28.8399 8.70962 0.904458 1.00587
477 30.5868 7.9651 0.087732 1.0056
478 31.2666 8.79187 0.132575 1.00553
479 31.1852 7.97815 1.0451 1.00558
480 30.3968 8.66695 0.849664 1.00563
481 0.232387 9.53806 31.7237 1.00543
482 1.01509 10.426 0.286654 1.00541
483 0.909911 9.54757 1.16195 1.00549
484 0.146407 10.1174 0.78032 1.00545
485 1.55529 9.56769 0.426286 1.00548
486 2.55607 10.3762 0.114214 1.00544
487 2.25652 9.55741 1.25697 1.00549
488 1.75892 10.5298 0.902522 1.00552
489 3.05008 9.54931 31.7052 1.00534
490 3.73542 10.215 31.6783 1.00532
491 3.85828 9.24539 0.809132 1.0052
492 3.2849 10.1592 0.72798 1.00529
493 4.49744 9.21791 0.0666139 1.00526
494 5.3808 10.2156 31.5223 1.00536
495 5.25164 9.07846 0.751965 1.00531
496 4.52218 10.1512 0.638313 1.00525
497 6.2059 9.36602 31.5296 1.00549
498 7.11791 9.79206 31.6309 1.00544
499 7.12012 9.00289 0.754833 1.0054
500 6.12469 9.87451 0.602358 1.00532
501 7.96579 9.08113 0.168178 1.0054
502 8.65459 10.3521 31.715 1.00533
503 8.90752 9.42182 0.770843 1.0053
504 7.84985 9.95607 0.754922 1.00539
505 9.39957 9.5608 31.695 1.00535
506 10.1258 10.3482 31.6571 1.00542
507 10.4257 9.62261 0.656408 1.00543
508 9.62489 10.3019 0.662853 1.00529
509 10.9314 9.66484 31.5742 1.00563
510 11.7575 10.5359 31.7177 1.00575
511 12.1674 9.74509 0.613621 1.00593
512 11.2862 10.4827 0.705494 1.0057
513 12.6746 9.91272 31.559 1.00601
514 13.4104 10.3519 31.6115 1.00623
515 13.6105 9.44917 0.7436 1.00626
516 12.8646 10.242 0.935286 1.006
517 14.2755 9.99845 0.0400985 1.00632
518 15.0074 10.8181 0.12816 1.00625
519 15.2208 9.57692 0.871716 1.00626
520 14.2264 10.5137 0.903836 1.00625
521 15.7296 9.96568 0.152345 1.00646
522 16.5332 10.5833 31.7478 1.00658
523 16.686 9.75012 0.723673 1.00651
524 15.6998 10.6669 0.915167 1.00627
525 17.2487 9.8465 0.0601339 1.00664
526 18.4023 10.5979 0.233368 1.00671
527 18.0247 9.71127 0.789434 1.0067
528 17.4686 10.5455 0.838282 1.00664
529 18.7388 9.53783 0.108475 1.00674
530 19.5933 10.6934 31.6499 1.00689
531 19.7121 9.72117 0.6189 1.00681
532 18.8634 10.2358 0.95241 1.00676
533 20.141 9.7017 31.573 1.00686
534 21.1248 10.4162 31.5203 1.00693
535 21.1078 9.71573 0.539498 1.00688
536 20.6171 10.5574 0.698872 1.00685
537 22.2135 9.80966 31.6522 1.0068
538 22.8969 10.4834 31.6148 1.00663
539 23.0029 9.70357 0.611032 1.00661
540 22.3534 10.5373 0.761585 1.0067
541 23.8029 9.68609 31.448 1.00648
542 24.4602 10.3485 31.7126 1.00636
543 24.664 9.64983 0.553117 1.00635
544 23.6523 10.5962 0.445178 1.00653
545 25.6907 9.59073 31.7306 1.00606
546 26.4109 10.4641 31.5329 1.00603
547 26.3149 9.47339 0.614987 1.00597
548 25.4151 10.3431 0.727114 1.0062
549 27.1551 9.56008 31.6985 1.00594
550 28.224 10.3419 0.158771 1.00575
551 28.0199 9.49989 0.692738 1.00593
552 26.8926 10.3259 0.691988 1.00595
553 28.783 9.36104 31.7113 1.00574
554 29.5083 10.0944 0.221767 1.00566
555 29.6577 9.27945 1.16924 1.00574
556 28.8594 9.97844 1.17733 1.00579
557 30.3803 9.25428 0.053714 1.00553
558 31.0566 10.1074 31.7097 1.00544
559 31.1366 9.46653 1.03761 1.00549
560 30.3371 9.96403 0.873241 1.00558
561 0.141101 10.8476 31.7427 1.00538
562 1.17539 12.0662 31.7398 1.00533
563 0.802642 11.266 0.953039 1.00549
564 0.267934 12.0515 0.861898 1.00538
565 1.53619 11.2573 0.107715 1.0054
566 2.43142 12.0239 0.0549474 1.00546
567 2.53174 11.0162 0.822803 1.00534
568 1.84323 12.0682 0.804131 1.00529
569 3.08806 11.3547 31.7243 1.00539
570 3.74708 11.8431 31.5612 1.00526
571 4.13982 11.0847 0.710975 1.00514
572 3.30526 11.7412 0.928577 1.0051
573 4.53614 10.7766 31.5279 1.00535
574 5.49655 11.8599 31.7375 1.00535
575 5.32428 10.8082 0.513922 1.00534
576 4.73862 11.7937 0.560134 1.00516
577 6.29896 10.7076 31.625 1.00543
578 7.10706 11.7699 31.5983 1.00532
579 6.86987 10.8516 0.583538 1.00537
580 6.16539 11.4689 0.626534 1.00531
581 7.64496 10.8388 0.0886579 1.0054
582 8.49607 11.8144 0.105705 1.0054
583 8.74737 10.8512 0.769559 1.00542
584 7.97321 11.359 0.930571 1.00541
585 9.48455 11.1454 31.5931 1.00534
586 10.3276 12.0776 0.178582 1.00553
587 10.357 11.1164 0.694548 1.00548
588 9.53413 11.8373 0.625459 1.00549
589 11.0647 11.5038 0.185528 1.00565
590 11.8207 12.1719 0.310693 1.00581
591 12.1442 11.2405 0.999885 1.00573
592 11.1009 12.2002 1.01875 1.00576
593 12.5984 11.1876 0.266988 1.00593
594 13.4768 11.8872 0.174464 1.00606
595 13.4772 11.0447 0.870184 1.00607
596 12.7589 12.2573 0.759867 1.00581
597 14.1912 11.4094 31.7314 1.00622
598 14.9819 12.232 31.7173 1.00613
599 14.9605 11.4638 0.870183 1.00622
600 14.1959 12.061 0.907784 1.00614
601 15.8497 11.4739 31.5632 1.0064
602 16.7263 11.9484 31.6778 1.00665
603 16.4358 11.2972 0.855596 1.00661
604 15.7834 12.1492 0.613767 1.00637
605 17.5285 11.2563 0.0299882 1.0067
606 18.297 12.0239 0.182737 1.00678
607 18.2489 11.2386 1.00535 1.00671
608 17.39 11.9167 0.946376 1.00677
609 19.1902 11.3845 0.332987 1.00674
610 20.0552 11.8964 0.0772479 1.00668
611 19.8514 11.0846 1.01438 1.00673
612 19.0403 11.8633 1.28736 1.00664
613 20.6569 11.2761 31.5502 1.00671
614 21.5609 11.7752 0.215676 1.00668
615 21.418 10.9766 0.75726 1.00683
616 20.4495 11.8199 0.990059 1.00663
617 22.1289 11.181 31.4696 1.00668
618 23.0065 12.1975 31.6108 1.00646
619 22.9573 11.4318 0.48991 1.00667
620 22.2076 12.0324 0.801098 1.00674
621 23.9391 11.426 31.5856 1.00642
622 24.649 12.2262 31.6265 1.00613
623 24.7107 11.3183 0.609617 1.00641
624 24.1217 12.1088 0.751856 1.00633
625 25.3499 11.3181 31.6857 1.00638
626 26.1392 12.0341 0.0881772 1.0061
627 26.1515 11.066 0.483091 1.00618
628 25.4803 12.0401 0.953673 1.00629
629 27.4207 11.191 0.170175 1.0059
630 28.2431 11.9433 31.6948 1.00556
631 28.1374 10.943 0.87185 1.00581
632 27.0403 11.7954 0.784461 1.00597
633 28.9067 11.0483 0.0838988 1.00554
634 29.8794 11.6065 0.198122 1.00537
635 29.492 10.7194 0.863477 1.00561
636 29.0139 11.8626 0.715095 1.00546
637 30.5432 10.8534 0.11265 1.00546
638 31.5757 11.6769 31.7438 1.00537
639 31.317 10.8231 0.996557 1.00552
640 30.7396 11.5327 0.808466 1.00548
641 0.512288 12.6013 31.4188 1.00525
642 0.819464 13.7043 31.3122 1.00503
643 1.02557 12.9018 0.614356 1.00511
644 0.428597 13.8358 0.667434 1.00506
645 1.63047 13.0105 31.6052 1.00524
646 2.71347 13.7117 31.2775 1.00509
647 2.57045 12.7911 0.621737 1.00523
648 2.01338 13.6124 0.362809 1.00509
649 3.14351 12.8623 31.6369 1.0052
650 3.87767 13.2814 31.733 1.00509
651 3.91948 12.5041 0.579125 1.00508
652 3.14608 13.5431 0.934109 1.00502
653 4.7536 12.6498 31.5483 1.00526
654 5.46678 13.5715 31.4334 1.00533
655 5.42606 12.6374 0.719527 1.00522
656 4.67157 13.4698 0.403741 1.0051
657 6.26851 12.4305 31.6336 1.00531
658 7.26539 13.2971 0.00359765 1.00516
659 7.05496 12.4972 0.695103 1.00522
660 6.39508 13.1238 0.72059 1.00517
661 7.91554 12.4386 0.117499 1.00527
662 8.75469 13.6528 31.5069 1.00532
663 8.62709 12.6946 0.775816 1.00536
664 7.98479 13.4223 0.627396 1.00521
665 9.28766 12.5823 31.6142 1.00546
666 10.473 13.3406 31.6954 1.00557
667 10.2517 12.7872 0.912443 1.00566
668 9.51856 13.3533 0.564111 1.00552
669 11.3576 13.0573 31.5503 1.00566
670 12.103 14.0049 31.6899 1.0056
671 11.8788 12.9565 0.776832 1.0057
672 11.2322 13.6992 0.606104 1.00552
673 12.6339 13.2548 0.086202 1.00574
674 13.557 13.8291 0.0409604 1.00581
675 13.2572 12.9923 0.931241 1.00578
676 12.6135 13.6945 1.10985 1.00565
677 14.0279 13.0425 0.366419 1.00596
678 14.8783 13.5519 0.0574776 1.00589
679 14.8186 12.9642 0.963392 1.00606
680 13.9771 13.8579 1.1703 1.00572
681 15.8437 12.9292 31.6708 1.00616
682 17.0963 13.6179 0.0956173 1.00639
683 16.7302 12.7985 0.655805 1.00661
684 15.7317 13.4704 0.777162 1.00611
685 17.4969 12.7652 0.0150689 1.00671
686 18.6083 13.3365 0.314937 1.00657
687 18.366 12.6041 1.0349 1.00661
688 17.6192 13.7216 1.08559 1.00645
689 19.3225 12.4996 0.385437 1.00667
690 20.2055 13.5061 0.246164 1.00643
691 20.0973 12.7376 1.11609 1.00651
692 19.3055 13.2463 1.04028 1.00654
693 20.7261 12.6447 0.12351 1.00653
694 21.6638 13.3874 0.0717847 1.00655
695 21.3821 12.4046 0.834719 1.00664
696 20.9811 13.3933 0.927731 1.00644
697 22.3671 12.8411 31.4046 1.00654
698 23.2918 13.7845 31.1363 1.00618
699 23.3335 12.7414 0.448332 1.0063
700 22.5028 13.6093 0.2734 1.00639
701 23.9108 12.7895 31.3367 1.00613
702 24.7454 13.8611 31.7057 1.00591
703 24.7108 13.007 0.467468 1.00607
704 23.7769 13.6557 0.270915 1.00608
705 25.4817 13.0317 31.5847 1.00592
706 26.5685 13.3243 0.238491 1.00583
707 26.3834 12.5834 0.87274 1.00603
708 25.6778 13.4297 0.813289 1.00598
709 27.1419 12.504 0.130428 1.00581
710 28.2739 13.1996 0.0453954 1.00548
711 28.0605 12.4859 0.793521 1.00573
712 27.3673 13.5127 0.615725 1.00579
713 29.1833 12.5089 31.6913 1.00527
714 29.9614 13.3463 31.5746 1.00515
715 29.9851 12.5157 0.65605 1.00529
716 29.162 13.3562 0.576074 1.00533
717 30.8802 12.3269 0.0493286 1.00525
718 31.2428 13.4335 31.5005 1.00505
719 31.6134 12.8308 0.526009 1.0052
720 30.7016 13.4044 0.489525 1.00514
721 0.104273 14.3217 31.546 1.00491
722 0.831542 15.0485 0.0448494 1.00492
723 1.20963 14.4171 0.582075 1.00505
724 0.123919 15.342 0.914545 1.00491
725 1.8024 14.5085 31.3541 1.00492
726 2.4853 15.1202 31.5709 1.00483
727 2.65291 14.3818 0.571023 1.00491
728 1.90133 15.1097 0.5605 1.00488
729 3.41944 14.3005 0.053107 1.00487
730 4.07183 14.9986 31.66 1.00487
731 4.19107 14.2097 0.831654 1.00489
732 3.45001 15.0691 0.834737 1.00482
733 4.69236 14.1058 31.4286 1.00511
734 5.7308 14.8065 0.0173004 1.0052
735 5.82912 13.9886 0.564889 1.00513
736 4.80647 14.9174 0.737629 1.00498
737 6.62087 14.185 31.6251 1.00523
738 7.29811 14.9364 0.0478294 1.00522
739 7.22708 14.1304 0.736233 1.00514
740 6.34094 15.0325 0.762963 1.005
741 7.90014 14.2821 31.5173 1.00526
742 8.84853 14.8809 31.5541 1.00535
743 8.62671 14.0848 0.567281 1.00532
744 8.0728 15.0277 0.836544 1.0052
745 9.66225 14.1424 31.553 1.00538
746 10.2451 14.9412 0.228949 1.00522
747 10.4311 14.0198 0.643061 1.00546
748 9.56832 14.9448 0.834473 1.00521
749 11.2435 14.3956 31.4774 1.0054
750 12.0008 15.1021 0.118686 1.00545
751 11.9939 14.5592 0.993666 1.00542
752 11.0996 14.9688 0.733623 1.00532
753 13.022 14.5067 0.340386 1.00571
754 13.6239 15.3949 0.245461 1.00556
755 13.5783 14.7007 1.28054 1.00559
756 12.8019 15.1983 0.864038 1.00544
757 14.4188 14.4733 0.441688 1.00578
758 15.2701 15.2552 0.488854 1.0058
759 15.1398 14.3937 1.00639 1.00583
760 14.269 15.4152 1.24332 1.00556
761 15.9336 14.2638 0.318021 1.00597
762 16.9888 15.0177 0.18525 1.00603
763 16.7013 14.4309 0.76313 1.00605
764 16.05 15.3801 1.12829 1.00579
765 17.9724 14.0911 0.329652 1.00639
766 18.409 14.8213 0.213759 1.00631
767 18.7322 14.2022 1.14161 1.00639
768 17.8437 15.0637 0.951649 1.00614
769 19.1929 14.0961 0.00379823 1.00636
770 19.9056 14.6617 31.6795 1.00617
771 19.9938 14.1617 1.09169 1.00643
772 19.4516 15.0051 0.871152 1.00618
773 21.0507 14.0106 31.5304 1.00635
774 21.2779 14.8946 0.0330929 1.00617
775 21.5957 14.2341 0.947535 1.00638
776 20.5656 14.7716 0.748265 1.00621
777 22.3361 14.4376 31.5321 1.00622
778 23.0924 15.2044 31.5038 1.00592
779 23.1196 14.4814 0.411985 1.00603
780 22.0245 15.0558 0.646429 1.0062
781 23.9538 14.6056 31.344 1.00588
782 24.5425 15.3616 31.7116 1.0057
783 24.5517 14.1564 0.936191 1.00593
784 23.9208 14.9544 0.623405 1.00586
785 25.4655 14.3645 0.220637 1.00569
786 26.2563 15.1654 0.0949752 1.00545
787 26.1772 14.2731 0.858969 1.00571
788 25.3217 14.955 0.907021 1.00565
789 27.0461 14.3186 0.103337 1.00558
790 28.0012 14.8536 31.6167 1.00531
791 28.0529 14.1802 0.604087 1.00545
792 27.0513 15.0664 0.957143 1.00541
793 28.6875 14.0849 31.645 1.00527
794 29.2777 15.2068 0.286219 1.0051
795 29.6392 14.2581 0.497829 1.00521
796 28.5289 14.9367 0.954652 1.00529
797 30.5308 14.4065 0.0115225 1.00498
798 31.208 15.3321 31.4951 1.00476
799 31.404 14.5489 0.560683 1.00496
800 30.3972 15.1143 0.549449 1.00496
801 0.0921958 16.019 31.6174 1.00468
802 1.01936 15.6723 0.782263 1.00483
803 1.6216 15.9277 31.4176 1.00467
804 2.61286 15.8355 0.699576 1.0047
805 3.22084 15.9248 0.0272275 1.00468
806 4.01073 15.971 0.648783 1.00473
807 4.81858 15.7474 0.0469761 1.00497
808 5.41592 15.7666 0.560578 1.00494
809 6.42008 15.8711 31.5953 1.00497
810 7.07083 15.7257 0.701209 1.00491
811 8.14488 15.7636 31.653 1.00533
812 8.86712 15.5299 0.827154 1.00521
813 9.52556 15.7689 31.691 1.00522
814 10.1042 15.9503 0.819552 1.00502
815 10.9785 15.7148 0.248835 1.00527
816 12.0586 16.1211 0.836248 1.00518
817 12.5932 15.9207 0.139912 1.0053
818 13.4046 16.1988 1.06729 1.00524