ITEM: TIMESTEP
17000
ITEM: NUMBER OF ATOMS
8000
ITEM: BOX BOUNDS pp pp pp
0.0000000000000000e+00 3.1748021039364001e+01
0.0000000000000000e+00 1.5874010519682001e+01
0.0000000000000000e+00 1.5874010519682001e+01
ITEM: ATOMS id x y z vx vy vz c_rho_peratom
2 0.793708 0.890858 -2.6208e-17 8.13063e-09 0.000805417 -2.92661e-17 1
3 0.793708 0.0971574 0.793701 8.13063e-09 0.000805417 -9.14484e-17 1
4 2.59602e-16 0.793701 0.793701 -7.20669e-17 -1.21103e-16 -5.69873e-17 1
5 1.58743 0.191895 -1.03666e-16 1.53385e-08 0.00159102 -4.18211e-17 1
8 1.58743 0.985595 0.793701 1.53385e-08 0.00159102 -5.7833e-17 1
43 2.28422e-16 1.5874 1.53686e-16 -6.7705e-17 -1.70472e-16 -4.35164e-17 1
45 0.793708 1.68456 0.793701 8.13063e-09 0.000805417 -5.97647e-17 1
422 0.793708 0.890858 1.5874 8.13063e-09 0.000805417 -1.01052e-16 1
425 1.58743 0.191895 1.5874 1.53385e-08 0.00159102 -9.98607e-17 1
463 6.1438e-17 1.5874 1.5874 -9.82596e-17 -1.7882e-16 -5.94032e-17 1
6 2.38115 1.07558 -1.45343e-16 2.04928e-08 0.00233747 -3.42285e-17 1
7 2.38115 0.281883 0.793701 2.04928e-08 0.00233747 -6.32348e-17 1
9 3.17488 0.36491 -1.77506e-16 2.312e-08 0.00302636 -3.65129e-17 1
12 3.17488 1.15861 0.793701 2.312e-08 0.00302636 -4.61977e-17 1
426 2.38115 1.07558 1.5874 2.04928e-08 0.00233747 -5.79066e-17 1
429 3.17488 0.36491 1.5874 2.312e-08 0.00302636 -5.48603e-17 1
10 3.9686 1.23264 -2.31171e-16 2.31515e-08 0.00364072 -3.72327e-17 1
11 3.9686 0.438938 0.793701 2.31515e-08 0.00364072 -4.96497e-17 1
16 4.7623 1.29585 0.793701 2.01764e-08 0.00416543 -4.83027e-17 1
430 3.9686 1.23264 1.5874 2.31515e-08 0.00364072 -4.1834e-17 1
433 4.7623 0.502151 1.5874 2.01764e-08 0.00416543 -5.79039e-17 1
15 5.556 0.552999 0.793701 1.44276e-08 0.00458755 -5.57841e-17 1
20 6.34968 1.38394 0.793701 1.27801e-08 0.00489671 -4.4369e-17 1
434 5.556 1.3467 1.5874 1.44276e-08 0.00458755 -6.83557e-17 1
437 6.34968 0.590236 1.5874 1.27801e-08 0.00489671 -8.8425e-17 1
19 7.14334 0.612949 0.793701 2.63075e-08 0.00508531 -5.59415e-17 1
23 8.73067 0.612949 0.793701 -2.63075e-08 0.00508531 -8.04394e-17 1
24 7.93701 1.41428 0.793701 3.48872e-17 0.00514869 -4.60011e-17 1
438 7.14334 1.40665 1.5874 2.63075e-08 0.00508531 -7.5987e-17 1
441 7.93701 0.620583 1.5874 1.11118e-17 0.00514869 -1.05746e-16 1
442 8.73067 1.40665 1.5874 -2.63075e-08 0.00508531 -7.12973e-17 1
27 10.318 0.552999 0.793701 -1.44276e-08 0.00458755 -5.68889e-17 1
28 9.52433 1.38394 0.793701 -1.27801e-08 0.00489671 -4.75063e-17 1
445 9.52433 0.590236 1.5874 -1.27801e-08 0.00489671 -8.14855e-17 1
446 10.318 1.3467 1.5874 -1.44276e-08 0.00458755 -3.72478e-17 1
30 11.9054 1.23264 -4.52905e-17 -2.31515e-08 0.00364072 -1.02107e-17 1
31 11.9054 0.438938 0.793701 -2.31515e-08 0.00364072 -3.92612e-17 1
32 11.1117 1.29585 0.793701 -2.01764e-08 0.00416543 -3.50392e-17 1
449 11.1117 0.502151 1.5874 -2.01764e-08 0.00416543 -5.1583e-17 1
450 11.9054 1.23264 1.5874 -2.31515e-08 0.00364072 -3.4453e-17 1
33 12.6991 0.36491 -9.67645e-17 -2.312e-08 0.00302636 -1.75966e-17 1
34 13.4929 1.07558 -7.76266e-17 -2.04928e-08 0.00233747 -7.45934e-18 1
35 13.4929 0.281883 0.793701 -2.04928e-08 0.00233747 -2.64245e-17 1
36 12.6991 1.15861 0.793701 -2.312e-08 0.00302636 -1.06658e-17 1
453 12.6991 0.36491 1.5874 -2.312e-08 0.00302636 -3.98865e-17 1
454 13.4929 1.07558 1.5874 -2.04928e-08 0.00233747 -4.77627e-18 1
37 14.2866 0.191895 -1.54571e-16 -1.53385e-08 0.00159102 -2.44747e-17 1
38 15.0803 0.890858 -1.33726e-16 -8.13063e-09 0.000805417 -1.04583e-17 1
39 15.0803 0.0971574 0.793701 -8.13063e-09 0.000805417 -1.24475e-17 1
40 14.2866 0.985595 0.793701 -1.53385e-08 0.00159102 -8.10696e-18 1
41 15.874 7.74807e-17 1.21012e-17 -4.61784e-17 1.50214e-17 4.39454e-18 1
42 15.874 0.793701 0.793701 -1.46315e-17 1.91258e-17 5.21765e-18 1
81 15.0803 1.68456 0.793701 -8.13063e-09 0.000805417 5.1191e-18 1
83 15.874 1.5874 -7.35255e-17 -1.51749e-17 1.99925e-17 7.08837e-18 1
457 14.2866 0.191895 1.5874 -1.53385e-08 0.00159102 -1.5112e-17 1
458 15.0803 0.890858 1.5874 -8.13063e-09 0.000805417 3.35188e-18 1
461 15.874 7.33066e-17 1.5874 -9.70291e-18 2.26194e-17 6.60335e-18 1
503 15.874 1.5874 1.5874 1.58224e-17 3.27694e-17 1.80842e-17 1
47 1.58743 1.7793 -6.92219e-17 1.53385e-08 0.00159102 -3.47458e-17 1
467 1.58743 1.7793 1.5874 1.53385e-08 0.00159102 -5.82263e-17 1
44 0.793708 2.47826 -6.06124e-17 8.13063e-09 0.000805417 -5.49613e-17 1
46 4.6212e-17 2.3811 0.793701 -6.62928e-17 -2.09226e-16 -5.51324e-17 1
50 1.58743 2.573 0.793701 1.53385e-08 0.00159102 -4.11468e-17 1
85 4.97229e-17 3.1748 1.10832e-16 -5.92576e-17 -1.95683e-16 -7.40283e-17 1
87 0.793708 3.27196 0.793701 8.13063e-09 0.000805417 -3.26686e-17 1
89 1.58743 3.3667 -1.03364e-16 1.53385e-08 0.00159102 -3.82606e-17 1
464 0.793708 2.47826 1.5874 8.13063e-09 0.000805417 -4.09246e-17 1
505 1.08912e-17 3.1748 1.5874 -5.09118e-17 -1.57128e-16 -6.18374e-18 1
509 1.58743 3.3667 1.5874 1.53385e-08 0.00159102 -5.0882e-17 1
49 2.38115 1.86928 0.793701 2.04928e-08 0.00233747 -3.81817e-17 1
51 3.17488 1.95231 -1.71574e-16 2.312e-08 0.00302636 -3.105e-17 1
471 3.17488 1.95231 1.5874 2.312e-08 0.00302636 -4.39232e-17 1
48 2.38115 2.66298 -1.097e-16 2.04928e-08 0.00233747 -3.16607e-17 1
54 3.17488 2.74601 0.793701 2.312e-08 0.00302636 -3.54931e-17 1
91 2.38115 3.45668 0.793701 2.04928e-08 0.00233747 -4.72775e-17 1
468 2.38115 2.66298 1.5874 2.04928e-08 0.00233747 -4.94453e-17 1
53 3.9686 2.02634 0.793701 2.31515e-08 0.00364072 -4.0719e-17 1
475 4.7623 2.08955 1.5874 2.01764e-08 0.00416543 -5.40799e-17 1
52 3.9686 2.82004 -1.95128e-16 2.31515e-08 0.00364072 -3.25954e-17 1
58 4.7623 2.88325 0.793701 2.01764e-08 0.00416543 -4.47507e-17 1
472 3.9686 2.82004 1.5874 2.31515e-08 0.00364072 -6.70068e-17 1
57 5.556 2.1404 0.793701 1.44276e-08 0.00458755 -4.24099e-17 1
479 6.34968 2.17764 1.5874 1.27801e-08 0.00489671 -6.42868e-17 1
62 6.34968 2.97134 0.793701 1.27801e-08 0.00489671 -3.8007e-17 1
476 5.556 2.9341 1.5874 1.44276e-08 0.00458755 -5.75924e-17 1
61 7.14334 2.20035 0.793701 2.63075e-08 0.00508531 -3.01952e-17 1
65 8.73067 2.20035 0.793701 -2.63075e-08 0.00508531 -3.92925e-17 1
483 7.93701 2.20798 1.5874 3.94043e-17 0.00514869 -5.62869e-17 1
66 7.93701 3.00168 0.793701 4.28447e-17 0.00514869 -2.83365e-17 1
480 7.14334 2.99405 1.5874 2.63075e-08 0.00508531 -6.20224e-17 1
484 8.73067 2.99405 1.5874 -2.63075e-08 0.00508531 -3.5123e-17 1
69 10.318 2.1404 0.793701 -1.44276e-08 0.00458755 -2.2021e-17 1
487 9.52433 2.17764 1.5874 -1.27801e-08 0.00489671 -3.43648e-17 1
70 9.52433 2.97134 0.793701 -1.27801e-08 0.00489671 -2.79498e-17 1
488 10.318 2.9341 1.5874 -1.44276e-08 0.00458755 -3.49508e-17 1
73 11.9054 2.02634 0.793701 -2.31515e-08 0.00364072 -1.64779e-17 1
491 11.1117 2.08955 1.5874 -2.01764e-08 0.00416543 -3.34527e-17 1
72 11.9054 2.82004 -4.90506e-17 -2.31515e-08 0.00364072 4.12342e-18 1
74 11.1117 2.88325 0.793701 -2.01764e-08 0.00416543 -2.02766e-17 1
492 11.9054 2.82004 1.5874 -2.31515e-08 0.00364072 -1.79096e-17 1
77 13.4929 1.86928 0.793701 -2.04928e-08 0.00233747 1.60287e-17 1
75 12.6991 1.95231 -1.76322e-17 -2.312e-08 0.00302636 8.41565e-18 1
495 12.6991 1.95231 1.5874 -2.312e-08 0.00302636 2.71163e-18 1
76 13.4929 2.66298 -4.51876e-17 -2.04928e-08 0.00233747 1.78925e-17 1
78 12.6991 2.74601 0.793701 -2.312e-08 0.00302636 2.07609e-17 1
119 13.4929 3.45668 0.793701 -2.04928e-08 0.00233747 4.29905e-17 1
496 13.4929 2.66298 1.5874 -2.04928e-08 0.00233747 4.01598e-17 1
79 14.2866 1.7793 -1.0088e-16 -1.53385e-08 0.00159102 -2.61194e-18 1
499 14.2866 1.7793 1.5874 -1.53385e-08 0.00159102 2.22826e-17 1
80 15.0803 2.47826 -9.54098e-17 -8.13063e-09 0.000805417 2.26619e-18 1
82 14.2866 2.573 0.793701 -1.53385e-08 0.00159102 2.5254e-17 1
84 15.874 2.3811 0.793701 1.91152e-17 2.48997e-17 1.86949e-17 1
121 14.2866 3.3667 -5.5689e-17 -1.53385e-08 0.00159102 1.54126e-17 1
123 15.0803 3.27196 0.793701 -8.13063e-09 0.000805417 2.07657e-17 1
125 15.874 3.1748 -1.60905e-17 1.5629e-17 1.29736e-17 1.51962e-17 1
500 15.0803 2.47826 1.5874 -8.13063e-09 0.000805417 2.67533e-17 1
541 14.2866 3.3667 1.5874 -1.53385e-08 0.00159102 3.90188e-17 1
545 15.874 3.1748 1.5874 4.25339e-17 1.58786e-17 3.05252e-17 1
86 0.793708 4.06566 -9.69189e-17 8.13063e-09 0.000805417 -4.27735e-17 1
88 3.41973e-17 3.9685 0.793701 -2.27179e-17 -1.561e-16 -2.22328e-17 1
92 1.58743 4.1604 0.793701 1.53385e-08 0.00159102 -4.55536e-17 1
127 2.16213e-16 4.7622 3.0558e-16 -1.62804e-17 -1.56732e-16 -5.07387e-17 1
129 0.793708 4.85936 0.793701 8.13063e-09 0.000805417 -3.80825e-17 1
131 1.58743 4.9541 -2.51266e-16 1.53385e-08 0.00159102 -7.14301e-17 1
506 0.793708 4.06566 1.5874 8.13063e-09 0.000805417 -2.04224e-17 1
547 3.03618e-18 4.7622 1.5874 -2.86239e-17 -1.70782e-16 -2.94917e-18 1
551 1.58743 4.9541 1.5874 1.53385e-08 0.00159102 -5.76931e-17 1
93 3.17488 3.53971 -1.51217e-16 2.312e-08 0.00302636 -3.9794e-17 1
513 3.17488 3.53971 1.5874 2.312e-08 0.00302636 -9.6373e-17 1
90 2.38115 4.25039 -2.1437e-16 2.04928e-08 0.00233747 -6.13799e-17 1
96 3.17488 4.33341 0.793701 2.312e-08 0.00302636 -9.56243e-17 1
133 2.38115 5.04409 0.793701 2.04928e-08 0.00233747 -9.39386e-17 1
135 3.17488 5.12711 -2.89168e-16 2.312e-08 0.00302636 -1.16523e-16 1
510 2.38115 4.25039 1.5874 2.04928e-08 0.00233747 -1.00684e-16 1
555 3.17488 5.12711 1.5874 2.312e-08 0.00302636 -1.00466e-16 1
95 3.9686 3.61374 0.793701 2.31515e-08 0.00364072 -6.12572e-17 1
517 4.7623 3.67695 1.5874 2.01764e-08 0.00416543 -7.11102e-17 1
94 3.9686 4.40744 -1.57851e-16 2.31515e-08 0.00364072 -7.31014e-17 1
100 4.7623 4.47065 0.793701 2.01764e-08 0.00416543 -6.60758e-17 1
137 3.9686 5.20114 0.793701 2.31515e-08 0.00364072 -1.10795e-16 1
514 3.9686 4.40744 1.5874 2.31515e-08 0.00364072 -1.04514e-16 1
559 4.7623 5.26435 1.5874 2.01764e-08 0.00416543 -9.17251e-17 1
99 5.556 3.7278 0.793701 1.44276e-08 0.00458755 -4.09414e-17 1
521 6.34968 3.76504 1.5874 1.27801e-08 0.00489671 -6.09612e-17 1
104 6.34968 4.55874 0.793701 1.27801e-08 0.00489671 -3.54741e-17 1
518 5.556 4.5215 1.5874 1.44276e-08 0.00458755 -7.29745e-17 1
103 7.14334 3.78775 0.793701 2.63075e-08 0.00508531 -2.89457e-17 1
107 8.73067 3.78775 0.793701 -2.63075e-08 0.00508531 -2.58574e-17 1
525 7.93701 3.79538 1.5874 5.8719e-17 0.00514869 -4.65259e-17 1
108 7.93701 4.58909 0.793701 6.10188e-17 0.00514869 -1.43923e-17 1
522 7.14334 4.58145 1.5874 2.63075e-08 0.00508531 -5.41976e-17 1
526 8.73067 4.58145 1.5874 -2.63075e-08 0.00508531 -2.93075e-17 1
111 10.318 3.7278 0.793701 -1.44276e-08 0.00458755 -6.0404e-18 1
529 9.52433 3.76504 1.5874 -1.27801e-08 0.00489671 -1.9335e-17 1
112 9.52433 4.55874 0.793701 -1.27801e-08 0.00489671 -5.83335e-18 1
530 10.318 4.5215 1.5874 -1.44276e-08 0.00458755 -1.50259e-17 1
115 11.9054 3.61374 0.793701 -2.31515e-08 0.00364072 -1.28334e-18 1
533 11.1117 3.67695 1.5874 -2.01764e-08 0.00416543 -3.06342e-17 1
114 11.9054 4.40744 -6.72138e-18 -2.31515e-08 0.00364072 1.75946e-17 1
116 11.1117 4.47065 0.793701 -2.01764e-08 0.00416543 -7.08573e-18 1
157 11.9054 5.20114 0.793701 -2.31515e-08 0.00364072 8.60238e-19 1
534 11.9054 4.40744 1.5874 -2.31515e-08 0.00364072 -1.37311e-17 1
575 11.1117 5.26435 1.5874 -2.01764e-08 0.00416543 -2.13622e-17 1
537 12.6991 3.53971 1.5874 -2.312e-08 0.00302636 1.83758e-17 1
118 13.4929 4.25039 1.5985e-17 -2.04928e-08 0.00233747 3.51377e-17 1
120 12.6991 4.33341 0.793701 -2.312e-08 0.00302636 3.61547e-17 1
161 13.4929 5.04409 0.793701 -2.04928e-08 0.00233747 5.25185e-17 1
538 13.4929 4.25039 1.5874 -2.04928e-08 0.00233747 3.54667e-17 1
579 12.6991 5.12711 1.5874 -2.312e-08 0.00302636 2.01486e-17 1
122 15.0803 4.06566 -2.95785e-17 -8.13063e-09 0.000805417 1.45646e-17 1
124 14.2866 4.1604 0.793701 -1.53385e-08 0.00159102 4.0131e-17 1
126 15.874 3.9685 0.793701 3.13565e-17 2.76804e-18 2.28421e-17 1
163 14.2866 4.9541 -7.80976e-18 -1.53385e-08 0.00159102 2.77003e-17 1
165 15.0803 4.85936 0.793701 -8.13063e-09 0.000805417 2.81021e-17 1
167 15.874 4.7622 1.0196e-16 2.2918e-17 -1.39904e-17 1.94862e-17 1
542 15.0803 4.06566 1.5874 -8.13063e-09 0.000805417 2.55249e-17 1
583 14.2866 4.9541 1.5874 -1.53385e-08 0.00159102 2.94805e-17 1
587 15.874 4.7622 1.5874 3.70547e-17 -1.47453e-17 2.85669e-17 1
128 0.793708 5.65306 -2.22787e-16 8.13063e-09 0.000805417 -7.46292e-17 1
130 3.94747e-17 5.5559 0.793701 -2.97837e-17 -1.72256e-16 -3.97124e-17 1
134 1.58743 5.7478 0.793701 1.53385e-08 0.00159102 -7.02541e-17 1
169 1.60456e-16 6.3496 3.029e-16 -2.07396e-17 -1.55023e-16 -7.42139e-17 1
171 0.793708 6.44676 0.793701 8.13063e-09 0.000805417 -6.63739e-17 1
173 1.58743 6.5415 -3.61385e-16 1.53385e-08 0.00159102 -1.05702e-16 1
548 0.793708 5.65306 1.5874 8.13063e-09 0.000805417 -2.16852e-17 1
589 -8.15195e-17 6.3496 1.5874 -4.76691e-17 -1.78356e-16 -1.4077e-17 1
593 1.58743 6.5415 1.5874 1.53385e-08 0.00159102 -5.00816e-17 1
132 2.38115 5.83779 -3.84887e-16 2.04928e-08 0.00233747 -1.23947e-16 1
138 3.17488 5.92081 0.793701 2.312e-08 0.00302636 -1.29276e-16 1
175 2.38115 6.63149 0.793701 2.04928e-08 0.00233747 -1.0295e-16 1
177 3.17488 6.71451 -3.36975e-16 2.312e-08 0.00302636 -1.29129e-16 1
552 2.38115 5.83779 1.5874 2.04928e-08 0.00233747 -8.06119e-17 1
597 3.17488 6.71451 1.5874 2.312e-08 0.00302636 -1.00779e-16 1
136 3.9686 5.99484 -2.24334e-16 2.31515e-08 0.00364072 -1.16054e-16 1
142 4.7623 6.05806 0.793701 2.01764e-08 0.00416543 -7.51918e-17 1
179 3.9686 6.78854 0.793701 2.31515e-08 0.00364072 -1.17075e-16 1
181 4.7623 6.85176 -1.25886e-16 2.01764e-08 0.00416543 -6.42822e-17 1
556 3.9686 5.99484 1.5874 2.31515e-08 0.00364072 -8.6847e-17 1
601 4.7623 6.85176 1.5874 2.01764e-08 0.00416543 -9.04941e-17 1
141 5.556 5.3152 0.793701 1.44276e-08 0.00458755 -4.59189e-17 1
563 6.34968 5.35244 1.5874 1.27801e-08 0.00489671 -6.22471e-17 1
146 6.34968 6.14614 0.793701 1.27801e-08 0.00489671 -2.11925e-17 1
183 5.556 6.9026 0.793701 1.44276e-08 0.00458755 -4.46873e-17 1
560 5.556 6.1089 1.5874 1.44276e-08 0.00458755 -7.32331e-17 1
605 6.34968 6.93984 1.5874 1.27801e-08 0.00489671 -4.89099e-17 1
145 7.14334 5.37515 0.793701 2.63075e-08 0.00508531 -1.71356e-17 1
149 8.73067 5.37515 0.793701 -2.63075e-08 0.00508531 -7.10917e-18 1
567 7.93701 5.38279 1.5874 6.62633e-17 0.00514869 -4.05587e-17 1
150 7.93701 6.17649 0.793701 5.35178e-17 0.00514869 -4.18513e-18 1
187 7.14334 6.96255 0.793701 2.63075e-08 0.00508531 -6.78295e-18 1
191 8.73067 6.96255 0.793701 -2.63075e-08 0.00508531 -1.82691e-17 1
564 7.14334 6.16885 1.5874 2.63075e-08 0.00508531 -3.59213e-17 1
568 8.73067 6.16885 1.5874 -2.63075e-08 0.00508531 -3.93555e-17 1
609 7.93701 6.97019 1.5874 3.29832e-17 0.00514869 -3.95914e-17 1
153 10.318 5.3152 0.793701 -1.44276e-08 0.00458755 -9.24518e-18 1
571 9.52433 5.35244 1.5874 -1.27801e-08 0.00489671 -2.48806e-17 1
154 9.52433 6.14614 0.793701 -1.27801e-08 0.00489671 -1.44333e-17 1
195 10.318 6.9026 0.793701 -1.44276e-08 0.00458755 -2.3938e-17 1
572 10.318 6.1089 1.5874 -1.44276e-08 0.00458755 -2.96308e-17 1
613 9.52433 6.93984 1.5874 -1.27801e-08 0.00489671 -4.44801e-17 1
156 11.9054 5.99484 5.17192e-17 -2.31515e-08 0.00364072 1.41036e-18 1
158 11.1117 6.05806 0.793701 -2.01764e-08 0.00416543 -2.26942e-17 1
199 11.9054 6.78854 0.793701 -2.31515e-08 0.00364072 -8.54533e-18 1
576 11.9054 5.99484 1.5874 -2.31515e-08 0.00364072 -8.88064e-18 1
617 11.1117 6.85176 1.5874 -2.01764e-08 0.00416543 -3.06062e-17 1
160 13.4929 5.83779 5.19474e-17 -2.04928e-08 0.00233747 3.52798e-17 1
162 12.6991 5.92081 0.793701 -2.312e-08 0.00302636 2.67991e-17 1
201 12.6991 6.71451 7.76182e-17 -2.312e-08 0.00302636 1.81317e-17 1
203 13.4929 6.63149 0.793701 -2.04928e-08 0.00233747 2.94326e-17 1
580 13.4929 5.83779 1.5874 -2.04928e-08 0.00233747 2.93291e-17 1
621 12.6991 6.71451 1.5874 -2.312e-08 0.00302636 9.33603e-18 1
164 15.0803 5.65306 -3.94791e-17 -8.13063e-09 0.000805417 1.46769e-17 1
166 14.2866 5.7478 0.793701 -1.53385e-08 0.00159102 3.67715e-17 1
168 15.874 5.5559 0.793701 2.27943e-17 -3.08217e-17 2.0756e-17 1
205 14.2866 6.5415 -3.66393e-17 -1.53385e-08 0.00159102 1.40883e-17 1
207 15.0803 6.44676 0.793701 -8.13063e-09 0.000805417 1.146e-17 1
209 15.874 6.3496 2.52767e-17 5.19017e-18 -3.7556e-17 1.28769e-17 1
584 15.0803 5.65306 1.5874 -8.13063e-09 0.000805417 1.73503e-17 1
625 14.2866 6.5415 1.5874 -1.53385e-08 0.00159102 1.42803e-17 1
629 15.874 6.3496 1.5874 3.48102e-17 -5.4079e-17 2.08037e-17 1
170 0.793708 7.24046 -3.20736e-16 8.13063e-09 0.000805417 -9.93543e-17 1
172 -2.54056e-17 7.1433 0.793701 -3.74691e-17 -1.51508e-16 -6.33674e-17 1
176 1.58743 7.3352 0.793701 1.53385e-08 0.00159102 -7.18492e-17 1
211 9.27708e-17 7.93701 2.10472e-16 -8.49446e-18 -1.1832e-16 -8.56277e-17 1
213 0.793708 8.03416 0.793701 8.13063e-09 0.000805417 -7.23217e-17 1
214 2.01853e-16 8.73071 0.793701 1.11687e-17 -8.3397e-17 -7.80311e-17 1
215 1.58743 8.1289 -3.41708e-16 1.53385e-08 0.00159102 -9.38639e-17 1
590 0.793708 7.24046 1.5874 8.13063e-09 0.000805417 -2.30911e-17 1
631 5.45429e-17 7.93701 1.5874 -1.53104e-17 -1.30475e-16 -3.29551e-17 1
635 1.58743 8.1289 1.5874 1.53385e-08 0.00159102 -2.78932e-17 1
174 2.38115 7.42519 -3.78903e-16 2.04928e-08 0.00233747 -1.06002e-16 1
180 3.17488 7.50821 0.793701 2.312e-08 0.00302636 -1.06818e-16 1
217 2.38115 8.21889 0.793701 2.04928e-08 0.00233747 -6.14109e-17 1
219 3.17488 8.30192 -2.62879e-16 2.312e-08 0.00302636 -7.07467e-17 1
594 2.38115 7.42519 1.5874 2.04928e-08 0.00233747 -7.39908e-17 1
639 3.17488 8.30192 1.5874 2.312e-08 0.00302636 -8.11207e-17 1
178 3.9686 7.58224 -2.17778e-16 2.31515e-08 0.00364072 -7.39528e-17 1
184 4.7623 7.64546 0.793701 2.01764e-08 0.00416543 -8.12493e-17 1
221 3.9686 8.37594 0.793701 2.31515e-08 0.00364072 -8.30439e-17 1
598 3.9686 7.58224 1.5874 2.31515e-08 0.00364072 -1.13216e-16 1
643 4.7623 8.43916 1.5874 2.01764e-08 0.00416543 -8.79993e-17 1
188 6.34968 7.73354 0.793701 1.27801e-08 0.00489671 -3.29036e-17 1
225 5.556 8.49 0.793701 1.44276e-08 0.00458755 -5.9705e-17 1
602 5.556 7.6963 1.5874 1.44276e-08 0.00458755 -8.07079e-17 1
647 6.34968 8.52724 1.5874 1.27801e-08 0.00489671 -8.0961e-17 1
192 7.93701 7.76389 0.793701 2.56563e-17 0.00514869 -2.29715e-17 1
229 7.14334 8.54995 0.793701 2.63075e-08 0.00508531 -4.4307e-17 1
233 8.73067 8.54995 0.793701 -2.63075e-08 0.00508531 -3.90629e-17 1
606 7.14334 7.75625 1.5874 2.63075e-08 0.00508531 -5.63303e-17 1
610 8.73067 7.75625 1.5874 -2.63075e-08 0.00508531 -4.77966e-17 1
651 7.93701 8.55759 1.5874 2.93143e-17 0.00514869 -4.68747e-17 1
196 9.52433 7.73354 0.793701 -1.27801e-08 0.00489671 -3.35254e-17 1
237 10.318 8.49 0.793701 -1.44276e-08 0.00458755 -2.88282e-17 1
614 10.318 7.6963 1.5874 -1.44276e-08 0.00458755 -4.20933e-17 1
655 9.52433 8.52724 1.5874 -1.27801e-08 0.00489671 -3.71296e-17 1
200 11.1117 7.64546 0.793701 -2.01764e-08 0.00416543 -2.21461e-17 1
241 11.9054 8.37594 0.793701 -2.31515e-08 0.00364072 -1.92974e-17 1
618 11.9054 7.58224 1.5874 -2.31515e-08 0.00364072 -2.52067e-17 1
659 11.1117 8.43916 1.5874 -2.01764e-08 0.00416543 -4.32723e-17 1
202 13.4929 7.42519 -2.96933e-17 -2.04928e-08 0.00233747 1.01515e-17 1
204 12.6991 7.50821 0.793701 -2.312e-08 0.00302636 8.30791e-18 1
243 12.6991 8.30192 -1.00733e-16 -2.312e-08 0.00302636 -5.00032e-18 1
245 13.4929 8.21889 0.793701 -2.04928e-08 0.00233747 -4.02851e-18 1
622 13.4929 7.42519 1.5874 -2.04928e-08 0.00233747 5.57403e-18 1
663 12.6991 8.30192 1.5874 -2.312e-08 0.00302636 -1.44185e-17 1
206 15.0803 7.24046 -8.61839e-17 -8.13063e-09 0.000805417 -7.90275e-19 1
208 14.2866 7.3352 0.793701 -1.53385e-08 0.00159102 6.32546e-18 1
210 15.874 7.1433 0.793701 9.03109e-18 -5.40865e-17 5.65228e-18 1
247 14.2866 8.1289 -1.16817e-16 -1.53385e-08 0.00159102 -9.45315e-18 1
249 15.0803 8.03416 0.793701 -8.13063e-09 0.000805417 -9.50522e-18 1
251 15.874 7.93701 -1.01385e-16 -7.56211e-18 -4.28576e-17 -4.17675e-18 1
252 15.874 8.73071 0.793701 -6.87591e-18 -4.52744e-17 -1.34517e-17 1
626 15.0803 7.24046 1.5874 -8.13063e-09 0.000805417 1.9421e-18 1
667 14.2866 8.1289 1.5874 -1.53385e-08 0.00159102 -6.88175e-18 1
671 15.874 7.93701 1.5874 8.29587e-18 -6.33677e-17 -1.07385e-19 1
212 0.793708 8.82786 -2.34253e-16 8.13063e-09 0.000805417 -7.93977e-17 1
632 0.793708 8.82786 1.5874 8.13063e-09 0.000805417 -3.59067e-17 1
218 1.58743 8.9226 0.793701 1.53385e-08 0.00159102 -5.48771e-17 1
253 3.57511e-16 9.52441 1.72774e-16 3.61803e-17 -6.93921e-17 -6.53902e-17 1
254 0.793708 10.4153 -6.82445e-17 8.13063e-09 0.000805417 -4.71597e-17 1
255 0.793708 9.62156 0.793701 8.13063e-09 0.000805417 -6.1258e-17 1
256 5.03317e-16 10.3181 0.793701 6.31515e-17 -4.4919e-17 -6.40064e-17 1
257 1.58743 9.7163 -1.22007e-16 1.53385e-08 0.00159102 -5.11761e-17 1
260 1.58743 10.51 0.793701 1.53385e-08 0.00159102 -5.14466e-17 1
673 4.71207e-16 9.52441 1.5874 5.42712e-17 -5.42008e-17 -5.12237e-17 1
674 0.793708 10.4153 1.5874 8.13063e-09 0.000805417 -4.37984e-17 1
677 1.58743 9.7163 1.5874 1.53385e-08 0.00159102 -3.41675e-17 1
216 2.38115 9.01259 -2.22109e-16 2.04928e-08 0.00233747 -6.48235e-17 1
222 3.17488 9.09562 0.793701 2.312e-08 0.00302636 -5.39906e-17 1
636 2.38115 9.01259 1.5874 2.04928e-08 0.00233747 -3.19709e-17 1
259 2.38115 9.80629 0.793701 2.04928e-08 0.00233747 -4.12295e-17 1
261 3.17488 9.88932 -1.69667e-16 2.312e-08 0.00302636 -4.20512e-17 1
681 3.17488 9.88932 1.5874 2.312e-08 0.00302636 -3.95637e-17 1
220 3.9686 9.16964 -2.13609e-16 2.31515e-08 0.00364072 -4.56702e-17 1
226 4.7623 9.23286 0.793701 2.01764e-08 0.00416543 -6.32982e-17 1
640 3.9686 9.16964 1.5874 2.31515e-08 0.00364072 -6.48065e-17 1
263 3.9686 9.96334 0.793701 2.31515e-08 0.00364072 -4.95407e-17 1
685 4.7623 10.0266 1.5874 2.01764e-08 0.00416543 -5.18846e-17 1
230 6.34968 9.32094 0.793701 1.27801e-08 0.00489671 -6.67151e-17 1
644 5.556 9.2837 1.5874 1.44276e-08 0.00458755 -7.15155e-17 1
267 5.556 10.0774 0.793701 1.44276e-08 0.00458755 -6.02585e-17 1
689 6.34968 10.1146 1.5874 1.27801e-08 0.00489671 -6.68196e-17 1
234 7.93701 9.35129 0.793701 2.1068e-17 0.00514869 -4.05015e-17 1
648 7.14334 9.34366 1.5874 2.63075e-08 0.00508531 -6.70175e-17 1
652 8.73067 9.34366 1.5874 -2.63075e-08 0.00508531 -2.41011e-17 1
271 7.14334 10.1374 0.793701 2.63075e-08 0.00508531 -6.15443e-17 1
275 8.73067 10.1374 0.793701 -2.63075e-08 0.00508531 -3.25822e-17 1
693 7.93701 10.145 1.5874 4.05264e-17 0.00514869 -3.93804e-17 1
238 9.52433 9.32094 0.793701 -1.27801e-08 0.00489671 -3.09718e-17 1
656 10.318 9.2837 1.5874 -1.44276e-08 0.00458755 -4.43207e-17 1
279 10.318 10.0774 0.793701 -1.44276e-08 0.00458755 -3.70116e-17 1
697 9.52433 10.1146 1.5874 -1.27801e-08 0.00489671 -4.15735e-17 1
240 11.9054 9.16964 -1.83942e-16 -2.31515e-08 0.00364072 -2.79479e-17 1
242 11.1117 9.23286 0.793701 -2.01764e-08 0.00416543 -3.59749e-17 1
660 11.9054 9.16964 1.5874 -2.31515e-08 0.00364072 -3.7241e-17 1
283 11.9054 9.96334 0.793701 -2.31515e-08 0.00364072 -4.38111e-17 1
701 11.1117 10.0266 1.5874 -2.01764e-08 0.00416543 -5.32768e-17 1
244 13.4929 9.01259 -1.64231e-16 -2.04928e-08 0.00233747 -1.97649e-17 1
246 12.6991 9.09562 0.793701 -2.312e-08 0.00302636 -2.22751e-17 1
664 13.4929 9.01259 1.5874 -2.04928e-08 0.00233747 -1.77204e-17 1
285 12.6991 9.88932 -2.03605e-16 -2.312e-08 0.00302636 -3.75575e-17 1
287 13.4929 9.80629 0.793701 -2.04928e-08 0.00233747 -2.87016e-17 1
705 12.6991 9.88932 1.5874 -2.312e-08 0.00302636 -3.17457e-17 1
248 15.0803 8.82786 -1.31825e-16 -8.13063e-09 0.000805417 -1.67767e-17 1
668 15.0803 8.82786 1.5874 -8.13063e-09 0.000805417 -1.49457e-17 1
250 14.2866 8.9226 0.793701 -1.53385e-08 0.00159102 -1.7907e-17 1
289 14.2866 9.7163 -1.56783e-16 -1.53385e-08 0.00159102 -2.80399e-17 1
290 15.0803 10.4153 -1.21301e-16 -8.13063e-09 0.000805417 -2.85416e-17 1
291 15.0803 9.62156 0.793701 -8.13063e-09 0.000805417 -2.33373e-17 1
292 14.2866 10.51 0.793701 -1.53385e-08 0.00159102 -3.30299e-17 1
293 15.874 9.52441 -9.97355e-17 -1.4173e-17 -3.32215e-17 -1.7371e-17 1
294 15.874 10.3181 0.793701 -1.16865e-17 -2.84762e-17 -1.94592e-17 1
709 14.2866 9.7163 1.5874 -1.53385e-08 0.00159102 -2.51762e-17 1
710 15.0803 10.4153 1.5874 -8.13063e-09 0.000805417 -2.47195e-17 1
713 15.874 9.52441 1.5874 -4.91611e-18 -4.0902e-17 -1.44977e-17 1
295 5.11996e-16 11.1118 6.77599e-17 6.19895e-17 -4.00671e-17 -5.29323e-17 1
296 0.793708 12.0027 -1.05009e-16 8.13063e-09 0.000805417 -8.23831e-17 1
297 0.793708 11.209 0.793701 8.13063e-09 0.000805417 -5.48196e-17 1
298 5.35721e-16 11.9055 0.793701 5.88009e-17 -3.46305e-17 -5.48345e-17 1
299 1.58743 11.3037 -1.31676e-16 1.53385e-08 0.00159102 -5.51372e-17 1
302 1.58743 12.0974 0.793701 1.53385e-08 0.00159102 -8.12875e-17 1
715 5.05928e-16 11.1118 1.5874 6.91096e-17 -3.44673e-17 -4.24464e-17 1
716 0.793708 12.0027 1.5874 8.13063e-09 0.000805417 -5.01704e-17 1
719 1.58743 11.3037 1.5874 1.53385e-08 0.00159102 -5.19101e-17 1
258 2.38115 10.6 -1.29503e-16 2.04928e-08 0.00233747 -4.12542e-17 1
678 2.38115 10.6 1.5874 2.04928e-08 0.00233747 -4.35727e-17 1
264 3.17488 10.683 0.793701 2.312e-08 0.00302636 -4.33432e-17 1
300 2.38115 12.1874 -1.87923e-16 2.04928e-08 0.00233747 -5.55872e-17 1
301 2.38115 11.3937 0.793701 2.04928e-08 0.00233747 -6.53794e-17 1
303 3.17488 11.4767 -1.9231e-16 2.312e-08 0.00302636 -4.13457e-17 1
306 3.17488 12.2704 0.793701 2.312e-08 0.00302636 -5.37259e-17 1
720 2.38115 12.1874 1.5874 2.04928e-08 0.00233747 -7.25788e-17 1
723 3.17488 11.4767 1.5874 2.312e-08 0.00302636 -4.78061e-17 1
262 3.9686 10.757 -2.0743e-16 2.31515e-08 0.00364072 -4.05262e-17 1
268 4.7623 10.8203 0.793701 2.01764e-08 0.00416543 -4.76684e-17 1
682 3.9686 10.757 1.5874 2.31515e-08 0.00364072 -3.1865e-17 1
305 3.9686 11.5507 0.793701 2.31515e-08 0.00364072 -3.61873e-17 1
724 3.9686 12.3444 1.5874 2.31515e-08 0.00364072 -3.90699e-17 1
727 4.7623 11.614 1.5874 2.01764e-08 0.00416543 -4.55897e-17 1
272 6.34968 10.9083 0.793701 1.27801e-08 0.00489671 -6.07902e-17 1
686 5.556 10.8711 1.5874 1.44276e-08 0.00458755 -6.06468e-17 1
309 5.556 11.6648 0.793701 1.44276e-08 0.00458755 -6.09395e-17 1
731 6.34968 11.702 1.5874 1.27801e-08 0.00489671 -7.6794e-17 1
276 7.93701 10.9387 0.793701 2.35334e-17 0.00514869 -4.47592e-17 1
690 7.14334 10.9311 1.5874 2.63075e-08 0.00508531 -5.86727e-17 1
694 8.73067 10.9311 1.5874 -2.63075e-08 0.00508531 -5.98289e-17 1
313 7.14334 11.7248 0.793701 2.63075e-08 0.00508531 -6.21506e-17 1
317 8.73067 11.7248 0.793701 -2.63075e-08 0.00508531 -5.72445e-17 1
735 7.93701 11.7324 1.5874 2.11672e-17 0.00514869 -8.74772e-17 1
280 9.52433 10.9083 0.793701 -1.27801e-08 0.00489671 -4.12279e-17 1
698 10.318 10.8711 1.5874 -1.44276e-08 0.00458755 -6.43775e-17 1
321 10.318 11.6648 0.793701 -1.44276e-08 0.00458755 -4.75884e-17 1
739 9.52433 11.702 1.5874 -1.27801e-08 0.00489671 -7.94525e-17 1
282 11.9054 10.757 -2.94597e-16 -2.31515e-08 0.00364072 -5.37797e-17 1
284 11.1117 10.8203 0.793701 -2.01764e-08 0.00416543 -4.92332e-17 1
702 11.9054 10.757 1.5874 -2.31515e-08 0.00364072 -4.21764e-17 1
324 11.9054 12.3444 -3.49497e-16 -2.31515e-08 0.00364072 -6.44141e-17 1
325 11.9054 11.5507 0.793701 -2.31515e-08 0.00364072 -5.15226e-17 1
743 11.1117 11.614 1.5874 -2.01764e-08 0.00416543 -5.08381e-17 1
744 11.9054 12.3444 1.5874 -2.31515e-08 0.00364072 -5.32677e-17 1
286 13.4929 10.6 -2.25397e-16 -2.04928e-08 0.00233747 -4.37793e-17 1
706 13.4929 10.6 1.5874 -2.04928e-08 0.00233747 -3.51793e-17 1
288 12.6991 10.683 0.793701 -2.312e-08 0.00302636 -4.37241e-17 1
327 12.6991 11.4767 -3.20721e-16 -2.312e-08 0.00302636 -6.26061e-17 1
328 13.4929 12.1874 -3.09323e-16 -2.04928e-08 0.00233747 -6.22958e-17 1
329 13.4929 11.3937 0.793701 -2.04928e-08 0.00233747 -4.50919e-17 1
330 12.6991 12.2704 0.793701 -2.312e-08 0.00302636 -5.67427e-17 1
747 12.6991 11.4767 1.5874 -2.312e-08 0.00302636 -4.42193e-17 1
748 13.4929 12.1874 1.5874 -2.04928e-08 0.00233747 -4.18126e-17 1
331 14.2866 11.3037 -2.02309e-16 -1.53385e-08 0.00159102 -4.23677e-17 1
332 15.0803 12.0027 -3.264e-17 -8.13063e-09 0.000805417 -3.21329e-17 1
333 15.0803 11.209 0.793701 -8.13063e-09 0.000805417 -2.77414e-17 1
334 14.2866 12.0974 0.793701 -1.53385e-08 0.00159102 -3.98108e-17 1
335 15.874 11.1118 8.50371e-17 -2.64252e-17 -2.23122e-17 -1.95333e-17 1
336 15.874 11.9055 0.793701 -1.99414e-17 -1.20114e-17 -1.55683e-17 1
751 14.2866 11.3037 1.5874 -1.53385e-08 0.00159102 -3.56897e-17 1
752 15.0803 12.0027 1.5874 -8.13063e-09 0.000805417 -2.5649e-17 1
755 15.874 11.1118 1.5874 -7.29385e-18 -1.80565e-17 -1.65357e-17 1
337 5.43774e-16 12.6992 6.54916e-17 5.08927e-17 3.30762e-17 -1.12998e-16 1
338 0.793708 13.5901 -1.05415e-16 8.13063e-09 0.000805417 -9.78206e-17 1
339 0.793708 12.7964 0.793701 8.13063e-09 0.000805417 -9.62936e-17 1
340 4.88176e-16 13.4929 0.793701 2.77788e-17 3.38049e-17 -1.21733e-16 1
341 1.58743 12.8911 -1.65976e-16 1.53385e-08 0.00159102 -8.02874e-17 1
344 1.58743 13.6848 0.793701 1.53385e-08 0.00159102 -1.09726e-16 1
757 5.14532e-16 12.6992 1.5874 3.87626e-17 -3.38736e-17 -5.24832e-17 1
758 0.793708 13.5901 1.5874 8.13063e-09 0.000805417 -1.02536e-16 1
761 1.58743 12.8911 1.5874 1.53385e-08 0.00159102 -8.20995e-17 1
342 2.38115 13.7748 -1.44178e-16 2.04928e-08 0.00233747 -4.69349e-17 1
343 2.38115 12.9811 0.793701 2.04928e-08 0.00233747 -8.19124e-17 1
345 3.17488 13.0641 -1.84481e-16 2.312e-08 0.00302636 -4.26087e-17 1
348 3.17488 13.8578 0.793701 2.312e-08 0.00302636 -6.21078e-17 1
762 2.38115 13.7748 1.5874 2.04928e-08 0.00233747 -9.14357e-17 1
765 3.17488 13.0641 1.5874 2.312e-08 0.00302636 -6.67019e-17 1
310 4.7623 12.4077 0.793701 2.01764e-08 0.00416543 -5.01525e-17 1
346 3.9686 13.9318 -1.85767e-16 2.31515e-08 0.00364072 -4.32453e-17 1
347 3.9686 13.1381 0.793701 2.31515e-08 0.00364072 -4.55468e-17 1
349 4.7623 13.2014 -2.53461e-16 2.01764e-08 0.00416543 -5.02502e-17 1
352 4.7623 13.9951 0.793701 2.01764e-08 0.00416543 -6.29516e-17 1
766 3.9686 13.9318 1.5874 2.31515e-08 0.00364072 -5.44954e-17 1
769 4.7623 13.2014 1.5874 2.01764e-08 0.00416543 -6.43449e-17 1
314 6.34968 12.4957 0.793701 1.27801e-08 0.00489671 -9.66879e-17 1
728 5.556 12.4585 1.5874 1.44276e-08 0.00458755 -8.50084e-17 1
351 5.556 13.2522 0.793701 1.44276e-08 0.00458755 -9.37485e-17 1
356 6.34968 14.0831 0.793701 1.27801e-08 0.00489671 -1.15381e-16 1