ITEM: TIMESTEP
16000
ITEM: NUMBER OF ATOMS
8000
ITEM: BOX BOUNDS pp pp pp
0.0000000000000000e+00 3.1748021039364001e+01
0.0000000000000000e+00 1.5874010519682001e+01
0.0000000000000000e+00 1.5874010519682001e+01
ITEM: ATOMS id x y z vx vy vz c_rho_peratom
2 0.793707 0.886752 -5.50607e-17 -1.90083e-08 0.000837491 3.53085e-18 1
3 0.793707 0.0930519 0.793701 -1.90083e-08 0.000837491 4.9128e-19 1
4 3.36913e-16 0.793701 0.793701 4.41205e-17 -2.9799e-17 -1.23362e-17 1
5 1.58742 0.183787 -2.39485e-16 -3.62908e-08 0.00165438 1.31985e-17 1
8 1.58742 0.977488 0.793701 -3.62908e-08 0.00165438 1.04427e-17 1
43 2.96723e-16 1.5874 1.66386e-16 4.53641e-17 -1.56399e-17 2.57457e-19 1
45 0.793707 1.68045 0.793701 -1.90083e-08 0.000837491 -8.67856e-18 1
47 1.58742 1.77119 -2.36219e-16 -3.62908e-08 0.00165438 4.4869e-18 1
422 0.793707 0.886752 1.5874 -1.90083e-08 0.000837491 -1.74778e-17 1
425 1.58742 0.183787 1.5874 -3.62908e-08 0.00165438 7.6106e-18 1
463 1.53624e-16 1.5874 1.5874 4.82307e-17 -1.78024e-17 -3.3311e-17 1
467 1.58742 1.77119 1.5874 -3.62908e-08 0.00165438 6.84872e-18 1
6 2.38115 1.06368 -4.63573e-16 -5.05468e-08 0.00243055 1.69271e-17 1
7 2.38115 0.269975 0.793701 -5.05468e-08 0.00243055 2.52731e-17 1
9 3.17487 0.349496 -6.8849e-16 -6.03416e-08 0.00314687 2.30526e-17 1
12 3.17487 1.1432 0.793701 -6.03416e-08 0.00314687 3.07919e-17 1
426 2.38115 1.06368 1.5874 -5.05468e-08 0.00243055 2.32228e-17 1
429 3.17487 0.349496 1.5874 -6.03416e-08 0.00314687 4.01304e-17 1
10 3.96859 1.2141 -5.78679e-16 -6.45405e-08 0.00378569 2.07567e-17 1
11 3.96859 0.4204 0.793701 -6.45405e-08 0.00378569 3.82086e-17 1
16 4.76229 1.27465 0.793701 -6.31853e-08 0.00433129 2.21258e-17 1
430 3.96859 1.2141 1.5874 -6.45405e-08 0.00378569 5.14027e-17 1
433 4.76229 0.480945 1.5874 -6.31853e-08 0.00433129 4.89781e-17 1
15 5.55599 0.529647 0.793701 -5.65093e-08 0.00477023 1.8577e-17 1
20 6.34967 1.35901 0.793701 -3.86228e-08 0.00509171 -1.98063e-17 1
434 5.55599 1.32335 1.5874 -5.65093e-08 0.00477023 3.33623e-17 1
437 6.34967 0.565312 1.5874 -3.86228e-08 0.00509171 2.27206e-17 1
19 7.14334 0.587068 0.793701 1.70713e-10 0.00528782 -1.44674e-17 1
23 8.73067 0.587068 0.793701 -1.70713e-10 0.00528782 -3.46838e-17 1
24 7.93701 1.38808 0.793701 -3.85947e-17 0.00535373 -3.1193e-17 1
438 7.14334 1.38077 1.5874 1.70713e-10 0.00528782 1.59055e-17 1
441 7.93701 0.594379 1.5874 -4.0207e-17 0.00535373 2.22395e-17 1
442 8.73067 1.38077 1.5874 -1.70713e-10 0.00528782 1.15237e-17 1
27 10.318 0.529647 0.793701 5.65093e-08 0.00477023 -5.14145e-18 1
28 9.52434 1.35901 0.793701 3.86228e-08 0.00509171 -4.34705e-17 1
445 9.52434 0.565312 1.5874 3.86228e-08 0.00509171 2.87519e-17 1
446 10.318 1.32335 1.5874 5.65093e-08 0.00477023 1.54098e-17 1
30 11.9054 1.2141 -7.53475e-16 6.45405e-08 0.00378569 -4.46735e-17 1
31 11.9054 0.4204 0.793701 6.45405e-08 0.00378569 -1.0018e-17 1
32 11.1117 1.27465 0.793701 6.31853e-08 0.00433129 -2.28127e-17 1
449 11.1117 0.480945 1.5874 6.31853e-08 0.00433129 2.83355e-17 1
450 11.9054 1.2141 1.5874 6.45405e-08 0.00378569 -6.43632e-18 1
33 12.6991 0.349496 -6.87103e-16 6.03416e-08 0.00314687 -3.23729e-17 1
34 13.4929 1.06368 -6.41702e-16 5.05468e-08 0.00243055 -4.23678e-17 1
35 13.4929 0.269975 0.793701 5.05468e-08 0.00243055 -1.82036e-17 1
36 12.6991 1.1432 0.793701 6.03416e-08 0.00314687 -4.6898e-17 1
453 12.6991 0.349496 1.5874 6.03416e-08 0.00314687 8.68467e-18 1
454 13.4929 1.06368 1.5874 5.05468e-08 0.00243055 -1.93471e-17 1
37 14.2866 0.183787 -4.68221e-16 3.62908e-08 0.00165438 -2.57034e-17 1
38 15.0803 0.886752 -1.22863e-16 1.90083e-08 0.000837491 -4.69069e-17 1
39 15.0803 0.0930519 0.793701 1.90083e-08 0.000837491 -3.55277e-17 1
40 14.2866 0.977488 0.793701 3.62908e-08 0.00165438 -3.99011e-17 1
41 15.874 -7.91913e-17 1.56773e-16 7.47158e-18 1.98687e-17 -6.11006e-17 1
42 15.874 0.793701 0.793701 -2.0752e-17 2.24198e-17 -5.94318e-17 1
79 14.2866 1.77119 -3.4796e-16 3.62908e-08 0.00165438 -4.15956e-17 1
81 15.0803 1.68045 0.793701 1.90083e-08 0.000837491 -6.07497e-17 1
83 15.874 1.5874 8.9703e-17 -1.96587e-17 2.43796e-17 -6.41664e-17 1
457 14.2866 0.183787 1.5874 3.62908e-08 0.00165438 -9.76361e-18 1
458 15.0803 0.886752 1.5874 1.90083e-08 0.000837491 -3.40721e-17 1
461 15.874 -1.46941e-16 1.5874 -3.06416e-17 1.44674e-17 -4.47696e-17 1
499 14.2866 1.77119 1.5874 3.62908e-08 0.00165438 -3.23575e-17 1
503 15.874 1.5874 1.5874 -3.2219e-17 1.37324e-17 -5.45165e-17 1
44 0.793707 2.47415 -9.33103e-17 -1.90083e-08 0.000837491 -3.43763e-18 1
46 8.80922e-17 2.3811 0.793701 3.87928e-17 -1.36497e-17 -1.66148e-17 1
50 1.58742 2.56489 0.793701 -3.62908e-08 0.00165438 8.54213e-18 1
85 4.89414e-17 3.1748 1.80797e-16 3.00144e-17 -1.96985e-17 -4.08556e-18 1
87 0.793707 3.26785 0.793701 -1.90083e-08 0.000837491 -3.22111e-18 1
89 1.58742 3.35859 -3.02132e-16 -3.62908e-08 0.00165438 1.02117e-18 1
464 0.793707 2.47415 1.5874 -1.90083e-08 0.000837491 -8.36374e-18 1
505 -1.23062e-17 3.1748 1.5874 4.42799e-17 -1.98763e-17 -2.47568e-17 1
509 1.58742 3.35859 1.5874 -3.62908e-08 0.00165438 1.58169e-17 1
49 2.38115 1.85738 0.793701 -5.05468e-08 0.00243055 1.80448e-17 1
51 3.17487 1.9369 -5.00869e-16 -6.03416e-08 0.00314687 1.28986e-17 1
471 3.17487 1.9369 1.5874 -6.03416e-08 0.00314687 3.18064e-17 1
48 2.38115 2.65108 -4.49166e-16 -5.05468e-08 0.00243055 4.56328e-18 1
54 3.17487 2.7306 0.793701 -6.03416e-08 0.00314687 1.76899e-17 1
91 2.38115 3.44478 0.793701 -5.05468e-08 0.00243055 1.53773e-17 1
93 3.17487 3.5243 -5.089e-16 -6.03416e-08 0.00314687 8.90519e-20 1
468 2.38115 2.65108 1.5874 -5.05468e-08 0.00243055 2.08906e-17 1
513 3.17487 3.5243 1.5874 -6.03416e-08 0.00314687 2.13292e-17 1
53 3.96859 2.0078 0.793701 -6.45405e-08 0.00378569 2.20508e-17 1
475 4.76229 2.06835 1.5874 -6.31853e-08 0.00433129 3.8844e-17 1
52 3.96859 2.8015 -4.29416e-16 -6.45405e-08 0.00378569 -3.36374e-18 1
58 4.76229 2.86205 0.793701 -6.31853e-08 0.00433129 -8.38527e-18 1
95 3.96859 3.5952 0.793701 -6.45405e-08 0.00378569 7.52345e-18 1
472 3.96859 2.8015 1.5874 -6.45405e-08 0.00378569 2.72168e-17 1
57 5.55599 2.11705 0.793701 -5.65093e-08 0.00477023 -2.52795e-17 1
479 6.34967 2.15271 1.5874 -3.86228e-08 0.00509171 1.75223e-17 1
62 6.34967 2.94641 0.793701 -3.86228e-08 0.00509171 -4.47467e-17 1
476 5.55599 2.91075 1.5874 -5.65093e-08 0.00477023 1.35897e-17 1
61 7.14334 2.17447 0.793701 1.70713e-10 0.00528782 -3.16043e-17 1
65 8.73067 2.17447 0.793701 -1.70713e-10 0.00528782 -5.44896e-17 1
483 7.93701 2.18178 1.5874 -5.67782e-17 0.00535373 1.2319e-17 1
66 7.93701 2.97548 0.793701 -6.11289e-17 0.00535373 -4.12923e-17 1
480 7.14334 2.96817 1.5874 1.70713e-10 0.00528782 8.01667e-18 1
484 8.73067 2.96817 1.5874 -1.70713e-10 0.00528782 -3.01669e-18 1
69 10.318 2.11705 0.793701 5.65093e-08 0.00477023 -3.62218e-17 1
487 9.52434 2.15271 1.5874 3.86228e-08 0.00509171 1.05034e-18 1
70 9.52434 2.94641 0.793701 3.86228e-08 0.00509171 -6.41232e-17 1
488 10.318 2.91075 1.5874 5.65093e-08 0.00477023 -7.73547e-18 1
73 11.9054 2.0078 0.793701 6.45405e-08 0.00378569 -6.36805e-17 1
491 11.1117 2.06835 1.5874 6.31853e-08 0.00433129 -1.44348e-17 1
72 11.9054 2.8015 -7.8941e-16 6.45405e-08 0.00378569 -3.46157e-17 1
74 11.1117 2.86205 0.793701 6.31853e-08 0.00433129 -4.96139e-17 1
115 11.9054 3.5952 0.793701 6.45405e-08 0.00378569 -7.76686e-17 1
492 11.9054 2.8015 1.5874 6.45405e-08 0.00378569 -5.55397e-17 1
77 13.4929 1.85738 0.793701 5.05468e-08 0.00243055 -5.34129e-17 1
75 12.6991 1.9369 -7.50169e-16 6.03416e-08 0.00314687 -4.0797e-17 1
495 12.6991 1.9369 1.5874 6.03416e-08 0.00314687 -4.62367e-17 1
76 13.4929 2.65108 -5.98494e-16 5.05468e-08 0.00243055 -3.5637e-17 1
78 12.6991 2.7306 0.793701 6.03416e-08 0.00314687 -7.86571e-17 1
117 12.6991 3.5243 -8.03489e-16 6.03416e-08 0.00314687 -5.85614e-17 1
119 13.4929 3.44478 0.793701 5.05468e-08 0.00243055 -5.99436e-17 1
496 13.4929 2.65108 1.5874 5.05468e-08 0.00243055 -4.93578e-17 1
537 12.6991 3.5243 1.5874 6.03416e-08 0.00314687 -5.99542e-17 1
80 15.0803 2.47415 -1.92646e-16 1.90083e-08 0.000837491 -5.92846e-17 1
82 14.2866 2.56489 0.793701 3.62908e-08 0.00165438 -4.89028e-17 1
84 15.874 2.3811 0.793701 -3.09192e-17 -1.02682e-17 -6.89505e-17 1
121 14.2866 3.35859 -3.82185e-16 3.62908e-08 0.00165438 -4.54987e-17 1
123 15.0803 3.26785 0.793701 1.90083e-08 0.000837491 -5.02229e-17 1
125 15.874 3.1748 -1.32643e-17 -2.37547e-17 -2.61212e-17 -7.58685e-17 1
500 15.0803 2.47415 1.5874 1.90083e-08 0.000837491 -3.95311e-17 1
541 14.2866 3.35859 1.5874 3.62908e-08 0.00165438 -3.07645e-17 1
545 15.874 3.1748 1.5874 -3.43649e-17 -2.87042e-18 -3.44441e-17 1
86 0.793707 4.06155 -5.82793e-17 -1.90083e-08 0.000837491 1.25475e-18 1
88 -2.18103e-17 3.9685 0.793701 2.36898e-17 -3.3851e-17 -1.78422e-17 1
92 1.58742 4.15229 0.793701 -3.62908e-08 0.00165438 1.05417e-17 1
127 1.47391e-16 4.7622 3.7387e-16 2.07978e-17 -5.94349e-17 7.07232e-18 1
129 0.793707 4.85526 0.793701 -1.90083e-08 0.000837491 7.34332e-19 1
131 1.58742 4.94599 -1.75068e-16 -3.62908e-08 0.00165438 6.15778e-18 1
506 0.793707 4.06155 1.5874 -1.90083e-08 0.000837491 -1.24044e-18 1
547 -8.36036e-17 4.7622 1.5874 4.06065e-17 -4.60816e-17 -2.37347e-17 1
551 1.58742 4.94599 1.5874 -3.62908e-08 0.00165438 9.75722e-18 1
90 2.38115 4.23848 -3.58889e-16 -5.05468e-08 0.00243055 1.40959e-18 1
96 3.17487 4.318 0.793701 -6.03416e-08 0.00314687 1.18644e-17 1
133 2.38115 5.03218 0.793701 -5.05468e-08 0.00243055 1.08625e-17 1
135 3.17487 5.1117 -3.04464e-16 -6.03416e-08 0.00314687 -7.70195e-18 1
510 2.38115 4.23848 1.5874 -5.05468e-08 0.00243055 1.769e-17 1
555 3.17487 5.1117 1.5874 -6.03416e-08 0.00314687 -2.40746e-18 1
517 4.76229 3.65575 1.5874 -6.31853e-08 0.00433129 -3.9051e-18 1
94 3.96859 4.3889 -4.18151e-16 -6.45405e-08 0.00378569 -3.7903e-18 1
100 4.76229 4.44945 0.793701 -6.31853e-08 0.00433129 -2.62789e-17 1
137 3.96859 5.1826 0.793701 -6.45405e-08 0.00378569 -1.5878e-17 1
514 3.96859 4.3889 1.5874 -6.45405e-08 0.00378569 -1.07072e-17 1
559 4.76229 5.24315 1.5874 -6.31853e-08 0.00433129 -3.35677e-17 1
99 5.55599 3.70445 0.793701 -5.65093e-08 0.00477023 -4.02582e-17 1
521 6.34967 3.74011 1.5874 -3.86228e-08 0.00509171 -1.50129e-17 1
104 6.34967 4.53382 0.793701 -3.86228e-08 0.00509171 -5.82398e-17 1
141 5.55599 5.29185 0.793701 -5.65093e-08 0.00477023 -5.58365e-17 1
518 5.55599 4.49815 1.5874 -5.65093e-08 0.00477023 -3.41206e-17 1
563 6.34967 5.32752 1.5874 -3.86228e-08 0.00509171 -5.17116e-17 1
103 7.14334 3.76187 0.793701 1.70713e-10 0.00528782 -4.45556e-17 1
107 8.73067 3.76187 0.793701 -1.70713e-10 0.00528782 -7.02387e-17 1
525 7.93701 3.76918 1.5874 -8.82456e-17 0.00535373 -7.02242e-18 1
108 7.93701 4.56288 0.793701 -8.23035e-17 0.00535373 -6.17304e-17 1
145 7.14334 5.34927 0.793701 1.70713e-10 0.00528782 -6.97721e-17 1
149 8.73067 5.34927 0.793701 -1.70713e-10 0.00528782 -7.68134e-17 1
522 7.14334 4.55557 1.5874 1.70713e-10 0.00528782 -3.32755e-17 1
526 8.73067 4.55557 1.5874 -1.70713e-10 0.00528782 -1.85078e-17 1
567 7.93701 5.35658 1.5874 -6.2137e-17 0.00535373 -3.57751e-17 1
111 10.318 3.70445 0.793701 5.65093e-08 0.00477023 -5.02095e-17 1
529 9.52434 3.74011 1.5874 3.86228e-08 0.00509171 -1.16494e-17 1
112 9.52434 4.53382 0.793701 3.86228e-08 0.00509171 -7.35327e-17 1
153 10.318 5.29185 0.793701 5.65093e-08 0.00477023 -4.20793e-17 1
530 10.318 4.49815 1.5874 5.65093e-08 0.00477023 -1.00873e-17 1
571 9.52434 5.32752 1.5874 3.86228e-08 0.00509171 -1.64579e-17 1
533 11.1117 3.65575 1.5874 6.31853e-08 0.00433129 -2.66342e-17 1
114 11.9054 4.3889 -7.38924e-16 6.45405e-08 0.00378569 -6.84682e-17 1
116 11.1117 4.44945 0.793701 6.31853e-08 0.00433129 -4.53179e-17 1
157 11.9054 5.1826 0.793701 6.45405e-08 0.00378569 -4.01741e-17 1
534 11.9054 4.3889 1.5874 6.45405e-08 0.00378569 -3.19015e-17 1
575 11.1117 5.24315 1.5874 6.31853e-08 0.00433129 -6.97143e-18 1
118 13.4929 4.23848 -6.39071e-16 5.05468e-08 0.00243055 -6.34136e-17 1
120 12.6991 4.318 0.793701 6.03416e-08 0.00314687 -7.45649e-17 1
159 12.6991 5.1117 -8.08723e-16 6.03416e-08 0.00314687 -7.41155e-17 1
161 13.4929 5.03218 0.793701 5.05468e-08 0.00243055 -5.49156e-17 1
538 13.4929 4.23848 1.5874 5.05468e-08 0.00243055 -4.10195e-17 1
579 12.6991 5.1117 1.5874 6.03416e-08 0.00314687 -2.83348e-17 1
122 15.0803 4.06155 -1.90345e-16 1.90083e-08 0.000837491 -5.53292e-17 1
124 14.2866 4.15229 0.793701 3.62908e-08 0.00165438 -4.15539e-17 1
126 15.874 3.9685 0.793701 -2.78481e-17 2.64912e-18 -4.57708e-17 1
163 14.2866 4.94599 -3.77098e-16 3.62908e-08 0.00165438 -4.5976e-17 1
165 15.0803 4.85526 0.793701 1.90083e-08 0.000837491 -3.00564e-17 1
167 15.874 4.7622 1.15674e-16 -2.46035e-17 -5.62009e-18 -4.55224e-17 1
542 15.0803 4.06155 1.5874 1.90083e-08 0.000837491 -2.19361e-17 1
583 14.2866 4.94599 1.5874 3.62908e-08 0.00165438 -2.90625e-17 1
587 15.874 4.7622 1.5874 -3.34026e-17 1.82166e-17 -1.85219e-17 1
128 0.793707 5.64896 -5.84629e-17 -1.90083e-08 0.000837491 1.37894e-17 1
130 2.96608e-17 5.5559 0.793701 3.04588e-17 -6.74648e-17 -4.85758e-18 1
134 1.58742 5.73969 0.793701 -3.62908e-08 0.00165438 1.3215e-17 1
169 1.45319e-16 6.3496 4.69713e-16 3.05467e-17 -8.81928e-17 2.33131e-17 1
171 0.793707 6.44266 0.793701 -1.90083e-08 0.000837491 1.29728e-17 1
173 1.58742 6.53339 -1.41674e-16 -3.62908e-08 0.00165438 1.84095e-20 1
548 0.793707 5.64896 1.5874 -1.90083e-08 0.000837491 -3.67049e-18 1
589 -5.1913e-17 6.3496 1.5874 3.33506e-17 -6.67032e-17 -8.55233e-18 1
593 1.58742 6.53339 1.5874 -3.62908e-08 0.00165438 9.20288e-18 1
132 2.38115 5.82588 -2.17002e-16 -5.05468e-08 0.00243055 -7.13046e-18 1
138 3.17487 5.9054 0.793701 -6.03416e-08 0.00314687 -5.9832e-18 1
175 2.38115 6.61958 0.793701 -5.05468e-08 0.00243055 3.77019e-18 1
177 3.17487 6.6991 -4.22804e-16 -6.03416e-08 0.00314687 -1.95043e-17 1
552 2.38115 5.82588 1.5874 -5.05468e-08 0.00243055 1.29914e-18 1
597 3.17487 6.6991 1.5874 -6.03416e-08 0.00314687 -5.74788e-18 1
136 3.96859 5.9763 -4.96887e-16 -6.45405e-08 0.00378569 -2.84155e-17 1
142 4.76229 6.03685 0.793701 -6.31853e-08 0.00433129 -4.25051e-17 1
179 3.96859 6.77 0.793701 -6.45405e-08 0.00378569 -2.09055e-17 1
181 4.76229 6.83055 -5.38859e-16 -6.31853e-08 0.00433129 -4.60166e-17 1
556 3.96859 5.9763 1.5874 -6.45405e-08 0.00378569 -1.69976e-17 1
601 4.76229 6.83055 1.5874 -6.31853e-08 0.00433129 -2.38848e-17 1
146 6.34967 6.12122 0.793701 -3.86228e-08 0.00509171 -7.67989e-17 1
183 5.55599 6.87925 0.793701 -5.65093e-08 0.00477023 -6.24291e-17 1
560 5.55599 6.08555 1.5874 -5.65093e-08 0.00477023 -4.70276e-17 1
605 6.34967 6.91492 1.5874 -3.86228e-08 0.00509171 -5.1504e-17 1
150 7.93701 6.15028 0.793701 -4.46382e-17 0.00535373 -7.19947e-17 1
187 7.14334 6.93667 0.793701 1.70713e-10 0.00528782 -7.24444e-17 1
191 8.73067 6.93667 0.793701 -1.70713e-10 0.00528782 -6.18251e-17 1
564 7.14334 6.14297 1.5874 1.70713e-10 0.00528782 -4.91765e-17 1
568 8.73067 6.14297 1.5874 -1.70713e-10 0.00528782 -2.45258e-17 1
609 7.93701 6.94398 1.5874 -1.68173e-17 0.00535373 -3.02556e-17 1
154 9.52434 6.12122 0.793701 3.86228e-08 0.00509171 -5.95153e-17 1
195 10.318 6.87925 0.793701 5.65093e-08 0.00477023 -1.68232e-17 1
572 10.318 6.08555 1.5874 5.65093e-08 0.00477023 -2.20814e-18 1
613 9.52434 6.91492 1.5874 3.86228e-08 0.00509171 6.20403e-19 1
156 11.9054 5.9763 -5.9406e-16 6.45405e-08 0.00378569 -5.12588e-17 1
158 11.1117 6.03685 0.793701 6.31853e-08 0.00433129 -1.80688e-17 1
199 11.9054 6.77 0.793701 6.45405e-08 0.00378569 -1.34184e-17 1
576 11.9054 5.9763 1.5874 6.45405e-08 0.00378569 -6.11764e-18 1
617 11.1117 6.83055 1.5874 6.31853e-08 0.00433129 6.19845e-18 1
160 13.4929 5.82588 -6.21909e-16 5.05468e-08 0.00243055 -5.91873e-17 1
162 12.6991 5.9054 0.793701 6.03416e-08 0.00314687 -4.14106e-17 1
201 12.6991 6.6991 -5.06461e-16 6.03416e-08 0.00314687 -5.14719e-17 1
203 13.4929 6.61958 0.793701 5.05468e-08 0.00243055 -4.49475e-17 1
580 13.4929 5.82588 1.5874 5.05468e-08 0.00243055 -2.98542e-17 1
621 12.6991 6.6991 1.5874 6.03416e-08 0.00314687 -1.01817e-17 1
164 15.0803 5.64896 -1.26142e-16 1.90083e-08 0.000837491 -2.98247e-17 1
166 14.2866 5.73969 0.793701 3.62908e-08 0.00165438 -3.78557e-17 1
168 15.874 5.5559 0.793701 -3.46453e-17 1.26917e-17 -2.21071e-17 1
205 14.2866 6.53339 -3.70054e-16 3.62908e-08 0.00165438 -3.62777e-17 1
207 15.0803 6.44266 0.793701 1.90083e-08 0.000837491 -1.93322e-17 1
209 15.874 6.3496 9.95409e-17 -3.71426e-17 1.29601e-17 -2.67749e-17 1
584 15.0803 5.64896 1.5874 1.90083e-08 0.000837491 -1.96591e-17 1
625 14.2866 6.53339 1.5874 3.62908e-08 0.00165438 -2.2763e-17 1
629 15.874 6.3496 1.5874 -3.46695e-17 1.64034e-17 -1.66795e-17 1
170 0.793707 7.23636 -5.37182e-17 -1.90083e-08 0.000837491 1.55169e-17 1
172 3.10888e-17 7.1433 0.793701 2.56952e-17 -8.76377e-17 1.68782e-17 1
176 1.58742 7.32709 0.793701 -3.62908e-08 0.00165438 1.00463e-17 1
211 7.94053e-17 7.93701 4.12072e-16 2.99769e-17 -1.08098e-16 3.64447e-17 1
212 0.793707 8.82376 -8.09692e-17 -1.90083e-08 0.000837491 2.89367e-17 1
213 0.793707 8.03006 0.793701 -1.90083e-08 0.000837491 1.7176e-17 1
214 1.2942e-16 8.73071 0.793701 1.79769e-17 -1.21045e-16 2.96658e-17 1
215 1.58742 8.12079 -2.52352e-16 -3.62908e-08 0.00165438 1.0335e-18 1
590 0.793707 7.23636 1.5874 -1.90083e-08 0.000837491 8.09916e-18 1
631 2.24836e-17 7.93701 1.5874 1.91995e-17 -9.24705e-17 1.42292e-17 1
632 0.793707 8.82376 1.5874 -1.90083e-08 0.000837491 1.6754e-17 1
635 1.58742 8.12079 1.5874 -3.62908e-08 0.00165438 1.75161e-17 1
174 2.38115 7.41328 -3.60943e-16 -5.05468e-08 0.00243055 -1.53885e-17 1
180 3.17487 7.4928 0.793701 -6.03416e-08 0.00314687 -1.09944e-17 1
217 2.38115 8.20698 0.793701 -5.05468e-08 0.00243055 -2.86716e-18 1
219 3.17487 8.2865 -4.53382e-16 -6.03416e-08 0.00314687 -1.2709e-17 1
594 2.38115 7.41328 1.5874 -5.05468e-08 0.00243055 8.38749e-18 1
639 3.17487 8.2865 1.5874 -6.03416e-08 0.00314687 -4.23241e-18 1
178 3.96859 7.5637 -4.58185e-16 -6.45405e-08 0.00378569 -2.08936e-17 1
184 4.76229 7.62425 0.793701 -6.31853e-08 0.00433129 -2.75114e-17 1
221 3.96859 8.3574 0.793701 -6.45405e-08 0.00378569 -8.86497e-18 1
598 3.96859 7.5637 1.5874 -6.45405e-08 0.00378569 -8.91557e-18 1
643 4.76229 8.41795 1.5874 -6.31853e-08 0.00433129 1.28665e-17 1
188 6.34967 7.70862 0.793701 -3.86228e-08 0.00509171 -5.68515e-17 1
225 5.55599 8.46665 0.793701 -5.65093e-08 0.00477023 -2.12193e-17 1
602 5.55599 7.67295 1.5874 -5.65093e-08 0.00477023 -2.67051e-17 1
647 6.34967 8.50232 1.5874 -3.86228e-08 0.00509171 1.88627e-18 1
192 7.93701 7.73768 0.793701 -2.20211e-18 0.00535373 -5.89875e-17 1
229 7.14334 8.52407 0.793701 1.70713e-10 0.00528782 -3.62934e-17 1
233 8.73067 8.52407 0.793701 -1.70713e-10 0.00528782 -2.92472e-17 1
606 7.14334 7.73037 1.5874 1.70713e-10 0.00528782 -2.87922e-17 1
610 8.73067 7.73037 1.5874 -1.70713e-10 0.00528782 -1.31863e-17 1
651 7.93701 8.53138 1.5874 1.19149e-17 0.00535373 -2.56296e-17 1
196 9.52434 7.70862 0.793701 3.86228e-08 0.00509171 -2.15878e-17 1
237 10.318 8.46665 0.793701 5.65093e-08 0.00477023 1.52967e-17 1
614 10.318 7.67295 1.5874 5.65093e-08 0.00477023 2.21923e-17 1
655 9.52434 8.50232 1.5874 3.86228e-08 0.00509171 2.0807e-17 1
200 11.1117 7.62425 0.793701 6.31853e-08 0.00433129 2.49788e-18 1
241 11.9054 8.3574 0.793701 6.45405e-08 0.00378569 2.00178e-18 1
618 11.9054 7.5637 1.5874 6.45405e-08 0.00378569 6.61531e-18 1
659 11.1117 8.41795 1.5874 6.31853e-08 0.00433129 2.55535e-17 1
202 13.4929 7.41328 -4.27157e-16 5.05468e-08 0.00243055 -4.75824e-17 1
204 12.6991 7.4928 0.793701 6.03416e-08 0.00314687 -2.25311e-17 1
243 12.6991 8.2865 -4.08423e-16 6.03416e-08 0.00314687 -3.21663e-17 1
245 13.4929 8.20698 0.793701 5.05468e-08 0.00243055 -3.10485e-17 1
622 13.4929 7.41328 1.5874 5.05468e-08 0.00243055 -1.53632e-17 1
663 12.6991 8.2865 1.5874 6.03416e-08 0.00314687 3.29964e-18 1
206 15.0803 7.23636 -1.52511e-16 1.90083e-08 0.000837491 -2.04556e-17 1
208 14.2866 7.32709 0.793701 3.62908e-08 0.00165438 -2.86827e-17 1
210 15.874 7.1433 0.793701 -3.96506e-17 1.6613e-17 -1.28839e-17 1
247 14.2866 8.12079 -3.57583e-16 3.62908e-08 0.00165438 -2.53288e-17 1
248 15.0803 8.82376 -1.56188e-16 1.90083e-08 0.000837491 -1.2536e-17 1
249 15.0803 8.03006 0.793701 1.90083e-08 0.000837491 -1.02257e-17 1
251 15.874 7.93701 4.57462e-17 -3.8395e-17 2.15912e-17 -2.44142e-17 1
252 15.874 8.73071 0.793701 -4.20353e-17 2.53604e-17 -1.12968e-17 1
626 15.0803 7.23636 1.5874 1.90083e-08 0.000837491 -1.7135e-17 1
667 14.2866 8.12079 1.5874 3.62908e-08 0.00165438 -1.07647e-17 1
668 15.0803 8.82376 1.5874 1.90083e-08 0.000837491 1.42454e-19 1
671 15.874 7.93701 1.5874 -4.1168e-17 2.70202e-17 -6.91925e-18 1
218 1.58742 8.91449 0.793701 -3.62908e-08 0.00165438 9.39556e-18 1
253 2.10055e-16 9.52441 2.75367e-16 1.97999e-17 -1.32585e-16 3.6708e-17 1
254 0.793707 10.4112 -1.09106e-16 -1.90083e-08 0.000837491 2.46979e-17 1
255 0.793707 9.61746 0.793701 -1.90083e-08 0.000837491 2.12542e-17 1
256 2.66049e-16 10.3181 0.793701 1.33227e-17 -1.43625e-16 2.71175e-17 1
257 1.58742 9.70819 -2.54113e-16 -3.62908e-08 0.00165438 1.80397e-17 1
260 1.58742 10.5019 0.793701 -3.62908e-08 0.00165438 1.38316e-17 1
673 2.40348e-16 9.52441 1.5874 8.83165e-18 -1.3697e-16 2.47553e-17 1
674 0.793707 10.4112 1.5874 -1.90083e-08 0.000837491 1.88679e-17 1
677 1.58742 9.70819 1.5874 -3.62908e-08 0.00165438 1.09351e-17 1
216 2.38115 9.00068 -3.27735e-16 -5.05468e-08 0.00243055 1.27861e-18 1
222 3.17487 9.0802 0.793701 -6.03416e-08 0.00314687 -9.15084e-18 1
636 2.38115 9.00068 1.5874 -5.05468e-08 0.00243055 5.62377e-18 1
258 2.38115 10.5881 -5.55004e-16 -5.05468e-08 0.00243055 1.57039e-17 1
259 2.38115 9.79438 0.793701 -5.05468e-08 0.00243055 9.6483e-19 1
261 3.17487 9.8739 -6.27212e-16 -6.03416e-08 0.00314687 2.43266e-18 1
678 2.38115 10.5881 1.5874 -5.05468e-08 0.00243055 3.11136e-18 1
681 3.17487 9.8739 1.5874 -6.03416e-08 0.00314687 -3.70135e-18 1
220 3.96859 9.15111 -3.93227e-16 -6.45405e-08 0.00378569 -1.7961e-17 1
226 4.76229 9.21165 0.793701 -6.31853e-08 0.00433129 4.8629e-18 1
640 3.96859 9.15111 1.5874 -6.45405e-08 0.00378569 7.97097e-18 1
263 3.96859 9.94481 0.793701 -6.45405e-08 0.00378569 2.14197e-18 1
685 4.76229 10.0054 1.5874 -6.31853e-08 0.00433129 3.41351e-17 1
230 6.34967 9.29602 0.793701 -3.86228e-08 0.00509171 -2.19203e-18 1
644 5.55599 9.26035 1.5874 -5.65093e-08 0.00477023 4.00848e-17 1
267 5.55599 10.0541 0.793701 -5.65093e-08 0.00477023 2.23439e-17 1
689 6.34967 10.0897 1.5874 -3.86228e-08 0.00509171 3.83109e-17 1
234 7.93701 9.32508 0.793701 2.04575e-17 0.00535373 -2.36293e-17 1
648 7.14334 9.31777 1.5874 1.70713e-10 0.00528782 3.79662e-18 1
652 8.73067 9.31777 1.5874 -1.70713e-10 0.00528782 -1.05919e-17 1
271 7.14334 10.1115 0.793701 1.70713e-10 0.00528782 7.64487e-18 1
275 8.73067 10.1115 0.793701 -1.70713e-10 0.00528782 2.54223e-18 1
693 7.93701 10.1188 1.5874 1.04546e-17 0.00535373 -1.58226e-17 1
238 9.52434 9.29602 0.793701 3.86228e-08 0.00509171 1.79995e-17 1
656 10.318 9.26035 1.5874 5.65093e-08 0.00477023 2.99964e-17 1
279 10.318 10.0541 0.793701 5.65093e-08 0.00477023 1.78123e-17 1
697 9.52434 10.0897 1.5874 3.86228e-08 0.00509171 1.74269e-17 1
240 11.9054 9.15111 -4.72353e-16 6.45405e-08 0.00378569 -1.02102e-17 1
242 11.1117 9.21165 0.793701 6.31853e-08 0.00433129 1.22559e-17 1
660 11.9054 9.15111 1.5874 6.45405e-08 0.00378569 2.34669e-17 1
283 11.9054 9.94481 0.793701 6.45405e-08 0.00378569 1.08983e-17 1
701 11.1117 10.0054 1.5874 6.31853e-08 0.00433129 3.41068e-17 1
244 13.4929 9.00068 -3.8367e-16 5.05468e-08 0.00243055 -2.35929e-17 1
246 12.6991 9.0802 0.793701 6.03416e-08 0.00314687 -3.68034e-18 1
664 13.4929 9.00068 1.5874 5.05468e-08 0.00243055 1.77665e-18 1
285 12.6991 9.8739 -3.49116e-16 6.03416e-08 0.00314687 2.09738e-18 1
286 13.4929 10.5881 -2.86431e-16 5.05468e-08 0.00243055 6.78336e-18 1
287 13.4929 9.79438 0.793701 5.05468e-08 0.00243055 -5.21915e-18 1
705 12.6991 9.8739 1.5874 6.03416e-08 0.00314687 2.58814e-17 1
706 13.4929 10.5881 1.5874 5.05468e-08 0.00243055 7.38034e-18 1
250 14.2866 8.91449 0.793701 3.62908e-08 0.00165438 -1.524e-17 1
289 14.2866 9.70819 -2.09357e-16 3.62908e-08 0.00165438 -2.37433e-18 1
290 15.0803 10.4112 -5.31505e-17 1.90083e-08 0.000837491 -4.89024e-18 1
291 15.0803 9.61746 0.793701 1.90083e-08 0.000837491 -5.78345e-18 1
292 14.2866 10.5019 0.793701 3.62908e-08 0.00165438 -7.07121e-18 1
293 15.874 9.52441 2.25966e-17 -2.43495e-17 2.01948e-17 -2.95241e-17 1
294 15.874 10.3181 0.793701 -3.75206e-17 1.46231e-17 -1.89481e-17 1
709 14.2866 9.70819 1.5874 3.62908e-08 0.00165438 -9.82108e-19 1
710 15.0803 10.4112 1.5874 1.90083e-08 0.000837491 -5.98037e-18 1
713 15.874 9.52441 1.5874 -4.65434e-17 1.49977e-17 1.80369e-18 1
295 3.02334e-16 11.1118 7.53572e-17 1.48535e-17 -1.47709e-16 2.59011e-17 1
296 0.793707 11.9986 -9.57405e-17 -1.90083e-08 0.000837491 1.98116e-17 1
297 0.793707 11.2049 0.793701 -1.90083e-08 0.000837491 2.23127e-17 1
298 3.26457e-16 11.9055 0.793701 1.36493e-17 -1.44655e-16 2.38123e-17 1
299 1.58742 11.2956 -2.90278e-16 -3.62908e-08 0.00165438 2.20788e-17 1
302 1.58742 12.0893 0.793701 -3.62908e-08 0.00165438 2.46535e-17 1
715 2.51166e-16 11.1118 1.5874 1.09811e-17 -1.50981e-16 2.13549e-17 1
716 0.793707 11.9986 1.5874 -1.90083e-08 0.000837491 2.73734e-17 1
719 1.58742 11.2956 1.5874 -3.62908e-08 0.00165438 1.82917e-17 1
264 3.17487 10.6676 0.793701 -6.03416e-08 0.00314687 4.7941e-18 1
300 2.38115 12.1755 -4.21304e-16 -5.05468e-08 0.00243055 2.39824e-17 1
301 2.38115 11.3818 0.793701 -5.05468e-08 0.00243055 1.5559e-17 1
303 3.17487 11.4613 -5.61316e-16 -6.03416e-08 0.00314687 2.25253e-17 1
306 3.17487 12.255 0.793701 -6.03416e-08 0.00314687 2.70269e-17 1
720 2.38115 12.1755 1.5874 -5.05468e-08 0.00243055 2.30324e-17 1
723 3.17487 11.4613 1.5874 -6.03416e-08 0.00314687 1.28849e-17 1
262 3.96859 10.7385 -6.0132e-16 -6.45405e-08 0.00378569 1.40703e-17 1
268 4.76229 10.7991 0.793701 -6.31853e-08 0.00433129 2.86146e-17 1
682 3.96859 10.7385 1.5874 -6.45405e-08 0.00378569 1.28265e-17 1
305 3.96859 11.5322 0.793701 -6.45405e-08 0.00378569 2.9328e-17 1
310 4.76229 12.3865 0.793701 -6.31853e-08 0.00433129 4.68928e-17 1
724 3.96859 12.3259 1.5874 -6.45405e-08 0.00378569 2.64442e-17 1
727 4.76229 11.5928 1.5874 -6.31853e-08 0.00433129 2.61135e-17 1
272 6.34967 10.8834 0.793701 -3.86228e-08 0.00509171 3.43925e-17 1
686 5.55599 10.8478 1.5874 -5.65093e-08 0.00477023 3.81099e-17 1
309 5.55599 11.6415 0.793701 -5.65093e-08 0.00477023 4.42157e-17 1
314 6.34967 12.4708 0.793701 -3.86228e-08 0.00509171 4.83997e-17 1
728 5.55599 12.4352 1.5874 -5.65093e-08 0.00477023 2.8251e-17 1
731 6.34967 11.6771 1.5874 -3.86228e-08 0.00509171 3.06366e-17 1
276 7.93701 10.9125 0.793701 1.69147e-17 0.00535373 7.54741e-18 1
690 7.14334 10.9052 1.5874 1.70713e-10 0.00528782 1.52447e-17 1
694 8.73067 10.9052 1.5874 -1.70713e-10 0.00528782 -8.49316e-18 1
313 7.14334 11.6989 0.793701 1.70713e-10 0.00528782 3.78989e-17 1
317 8.73067 11.6989 0.793701 -1.70713e-10 0.00528782 2.92253e-17 1
735 7.93701 11.7062 1.5874 -7.23487e-18 0.00535373 -9.27262e-18 1
280 9.52434 10.8834 0.793701 3.86228e-08 0.00509171 2.19179e-17 1
698 10.318 10.8478 1.5874 5.65093e-08 0.00477023 4.60599e-17 1
321 10.318 11.6415 0.793701 5.65093e-08 0.00477023 3.67018e-17 1
322 9.52434 12.4708 0.793701 3.86228e-08 0.00509171 5.7116e-17 1
739 9.52434 11.6771 1.5874 3.86228e-08 0.00509171 2.59816e-17 1
740 10.318 12.4352 1.5874 5.65093e-08 0.00477023 5.60051e-17 1
282 11.9054 10.7385 -4.23489e-16 6.45405e-08 0.00378569 -1.2513e-18 1
284 11.1117 10.7991 0.793701 6.31853e-08 0.00433129 1.5384e-17 1
702 11.9054 10.7385 1.5874 6.45405e-08 0.00378569 5.06812e-17 1
324 11.9054 12.3259 -4.75455e-16 6.45405e-08 0.00378569 1.07984e-17 1
325 11.9054 11.5322 0.793701 6.45405e-08 0.00378569 1.86612e-17 1
326 11.1117 12.3865 0.793701 6.31853e-08 0.00433129 4.25451e-17 1
743 11.1117 11.5928 1.5874 6.31853e-08 0.00433129 6.6713e-17 1
744 11.9054 12.3259 1.5874 6.45405e-08 0.00378569 5.30684e-17 1
288 12.6991 10.6676 0.793701 6.03416e-08 0.00314687 7.87263e-18 1
327 12.6991 11.4613 -3.8913e-16 6.03416e-08 0.00314687 1.60534e-17 1
328 13.4929 12.1755 -2.77642e-16 5.05468e-08 0.00243055 2.68915e-17 1
329 13.4929 11.3818 0.793701 5.05468e-08 0.00243055 -8.14863e-18 1
330 12.6991 12.255 0.793701 6.03416e-08 0.00314687 1.87281e-17 1
747 12.6991 11.4613 1.5874 6.03416e-08 0.00314687 2.40336e-17 1
748 13.4929 12.1755 1.5874 5.05468e-08 0.00243055 -3.74584e-18 1
331 14.2866 11.2956 -1.31118e-16 3.62908e-08 0.00165438 9.08758e-18 1
332 15.0803 11.9986 9.43318e-17 1.90083e-08 0.000837491 -7.71116e-19 1
333 15.0803 11.2049 0.793701 1.90083e-08 0.000837491 -8.28155e-18 1
334 14.2866 12.0893 0.793701 3.62908e-08 0.00165438 4.22684e-18 1
335 15.874 11.1118 1.60886e-16 -7.96339e-18 2.27204e-17 -3.12076e-17 1
336 15.874 11.9055 0.793701 -2.4037e-17 1.44951e-17 -2.60371e-17 1
751 14.2866 11.2956 1.5874 3.62908e-08 0.00165438 -1.0161e-17 1
752 15.0803 11.9986 1.5874 1.90083e-08 0.000837491 -1.18049e-17 1
755 15.874 11.1118 1.5874 -3.71536e-17 1.43703e-17 -8.71508e-18 1
337 3.25985e-16 12.6992 1.13868e-16 1.81707e-17 -1.12313e-16 1.79899e-17 1
338 0.793707 13.586 -6.06345e-17 -1.90083e-08 0.000837491 1.69425e-17 1
339 0.793707 12.7923 0.793701 -1.90083e-08 0.000837491 2.50916e-17 1
340 3.23971e-16 13.4929 0.793701 2.67534e-17 -8.0223e-17 1.3713e-17 1
341 1.58742 12.883 -2.37655e-16 -3.62908e-08 0.00165438 1.81881e-17 1
344 1.58742 13.6767 0.793701 -3.62908e-08 0.00165438 2.94238e-17 1
757 3.39017e-16 12.6992 1.5874 2.59553e-17 -1.23937e-16 1.59054e-17 1
758 0.793707 13.586 1.5874 -1.90083e-08 0.000837491 2.21126e-17 1
761 1.58742 12.883 1.5874 -3.62908e-08 0.00165438 3.33197e-17 1
342 2.38115 13.7629 -4.66964e-16 -5.05468e-08 0.00243055 1.58872e-17 1
343 2.38115 12.9692 0.793701 -5.05468e-08 0.00243055 2.71764e-17 1
345 3.17487 13.0487 -5.60937e-16 -6.03416e-08 0.00314687 2.30499e-17 1
348 3.17487 13.8424 0.793701 -6.03416e-08 0.00314687 3.3318e-17 1
762 2.38115 13.7629 1.5874 -5.05468e-08 0.00243055 3.07123e-17 1
765 3.17487 13.0487 1.5874 -6.03416e-08 0.00314687 3.30631e-17 1
346 3.96859 13.9133 -6.35412e-16 -6.45405e-08 0.00378569 3.03662e-17 1