ITEM: TIMESTEP
8000
ITEM: NUMBER OF ATOMS
8000
ITEM: BOX BOUNDS pp pp pp
0.0000000000000000e+00 3.1748021039364001e+01
0.0000000000000000e+00 1.5874010519682001e+01
0.0000000000000000e+00 1.5874010519682001e+01
ITEM: ATOMS id x y z vx vy vz c_rho_peratom
2 0.793702 0.847439 -5.53065e-17 8.10723e-09 0.00114461 2.52495e-18 1
3 0.793702 0.0537384 0.793701 8.10723e-09 0.00114461 3.70558e-18 1
4 -2.32619e-16 0.793701 0.793701 -1.61935e-17 -9.83138e-17 4.92684e-18 1
5 1.58741 0.106145 -1.05067e-16 1.54757e-08 0.00226104 1.18731e-18 1
8 1.58741 0.899846 0.793701 1.54757e-08 0.00226104 3.70592e-18 1
43 -2.07795e-16 1.5874 9.22833e-17 -6.15409e-18 -1.14782e-16 4.07303e-18 1
45 0.793702 1.64114 0.793701 8.10723e-09 0.00114461 1.02155e-17 1
47 1.58741 1.69355 -1.04566e-16 1.54757e-08 0.00226104 3.22376e-18 1
422 0.793702 0.847439 1.5874 8.10723e-09 0.00114461 1.03508e-17 1
425 1.58741 0.106145 1.5874 1.54757e-08 0.00226104 3.96174e-18 1
463 -2.25039e-16 1.5874 1.5874 -5.46545e-18 -9.65636e-17 1.78589e-17 1
467 1.58741 1.69355 1.5874 1.54757e-08 0.00226104 1.13678e-17 1
6 2.38111 0.949631 -1.54423e-16 2.13767e-08 0.00332181 -1.01472e-18 1
7 2.38111 0.15593 0.793701 2.13767e-08 0.00332181 1.75095e-18 1
9 3.17482 0.20187 -2.21961e-16 2.5327e-08 0.00430078 -1.19395e-18 1
12 3.17482 0.995571 0.793701 2.5327e-08 0.00430078 1.47567e-18 1
49 2.38111 1.74333 0.793701 2.13767e-08 0.00332181 3.15571e-18 1
426 2.38111 0.949631 1.5874 2.13767e-08 0.00332181 6.41395e-18 1
429 3.17482 0.20187 1.5874 2.5327e-08 0.00430078 2.99932e-18 1
10 3.96852 1.03654 -2.1691e-16 2.68691e-08 0.00517385 -3.48495e-18 1
11 3.96852 0.242835 0.793701 2.68691e-08 0.00517385 1.10666e-18 1
16 4.76222 1.07152 0.793701 2.47971e-08 0.00591952 1.05056e-18 1
430 3.96852 1.03654 1.5874 2.68691e-08 0.00517385 5.89539e-18 1
433 4.76222 0.277818 1.5874 2.47971e-08 0.00591952 5.18308e-18 1
15 5.55592 0.305961 0.793701 1.87142e-08 0.00651944 1.93515e-18 1
20 6.34962 1.12027 0.793701 1.78372e-08 0.00695882 -4.22639e-19 1
434 5.55592 1.09966 1.5874 1.87142e-08 0.00651944 5.6182e-18 1
437 6.34962 0.326571 1.5874 1.78372e-08 0.00695882 5.95693e-18 1
19 7.14331 0.339143 0.793701 3.73279e-08 0.00722686 9.32864e-19 1
23 8.7307 0.339143 0.793701 -3.73279e-08 0.00722686 1.92846e-18 1
24 7.93701 1.13707 0.793701 -1.54361e-17 0.00731694 -6.9106e-19 1
438 7.14331 1.13284 1.5874 3.73279e-08 0.00722686 1.53199e-18 1
441 7.93701 0.343369 1.5874 -1.27061e-17 0.00731694 3.99016e-18 1
442 8.7307 1.13284 1.5874 -3.73279e-08 0.00722686 2.06515e-18 1
27 10.3181 0.305961 0.793701 -1.87142e-08 0.00651944 -2.53e-18 1
28 9.52439 1.12027 0.793701 -1.78372e-08 0.00695882 6.05972e-19 1
445 9.52439 0.326571 1.5874 -1.78372e-08 0.00695882 1.7999e-18 1
446 10.3181 1.09966 1.5874 -1.87142e-08 0.00651944 -2.44647e-18 1
30 11.9055 1.03654 -2.45591e-16 -2.68691e-08 0.00517385 -3.07688e-19 1
31 11.9055 0.242835 0.793701 -2.68691e-08 0.00517385 -4.40817e-18 1
32 11.1118 1.07152 0.793701 -2.47971e-08 0.00591952 -2.16381e-17 1
449 11.1118 0.277818 1.5874 -2.47971e-08 0.00591952 -7.34245e-18 1
450 11.9055 1.03654 1.5874 -2.68691e-08 0.00517385 -8.49779e-18 1
33 12.6992 0.20187 -2.0459e-16 -2.5327e-08 0.00430078 1.67911e-18 1
34 13.4929 0.949631 -1.56729e-16 -2.13767e-08 0.00332181 8.34796e-18 1
35 13.4929 0.15593 0.793701 -2.13767e-08 0.00332181 1.08126e-18 1
36 12.6992 0.995571 0.793701 -2.5327e-08 0.00430078 3.03399e-18 1
77 13.4929 1.74333 0.793701 -2.13767e-08 0.00332181 2.54646e-17 1
453 12.6992 0.20187 1.5874 -2.5327e-08 0.00430078 -4.00097e-18 1
454 13.4929 0.949631 1.5874 -2.13767e-08 0.00332181 2.64496e-18 1
37 14.2866 0.106145 -1.39344e-16 -1.54757e-08 0.00226104 2.83903e-18 1
38 15.0803 0.847439 -6.00665e-17 -8.10723e-09 0.00114461 7.30178e-18 1
39 15.0803 0.0537384 0.793701 -8.10723e-09 0.00114461 6.31294e-18 1
40 14.2866 0.899846 0.793701 -1.54757e-08 0.00226104 9.32426e-18 1
41 15.874 -1.36732e-16 9.2952e-17 1.63514e-17 -4.64972e-17 6.98474e-18 1
42 15.874 0.793701 0.793701 2.50721e-18 -4.52663e-17 9.22647e-18 1
79 14.2866 1.69355 -9.46995e-17 -1.54757e-08 0.00226104 1.67838e-17 1
81 15.0803 1.64114 0.793701 -8.10723e-09 0.00114461 1.68087e-17 1
83 15.874 1.5874 5.54267e-17 -1.08807e-17 -3.57278e-17 5.43686e-18 1
457 14.2866 0.106145 1.5874 -1.54757e-08 0.00226104 3.11951e-18 1
458 15.0803 0.847439 1.5874 -8.10723e-09 0.00114461 1.43016e-17 1
461 15.874 -1.82879e-16 1.5874 2.2111e-17 -4.45267e-17 8.01182e-18 1
499 14.2866 1.69355 1.5874 -1.54757e-08 0.00226104 1.40263e-17 1
503 15.874 1.5874 1.5874 -2.48733e-17 -4.10283e-17 1.25993e-17 1
44 0.793702 2.43484 -4.2534e-17 8.10723e-09 0.00114461 6.62037e-18 1
46 -2.25056e-16 2.3811 0.793701 3.25287e-18 -1.11577e-16 2.35744e-17 1
50 1.58741 2.48725 0.793701 1.54757e-08 0.00226104 8.68812e-18 1
85 -1.96732e-16 3.1748 5.36327e-17 2.88654e-17 -1.17026e-16 1.15633e-17 1
87 0.793702 3.22854 0.793701 8.10723e-09 0.00114461 1.80107e-17 1
89 1.58741 3.28095 -9.42529e-17 1.54757e-08 0.00226104 3.48924e-18 1
464 0.793702 2.43484 1.5874 8.10723e-09 0.00114461 2.24152e-17 1
505 -2.42202e-16 3.1748 1.5874 7.97303e-18 -1.1633e-16 2.71954e-17 1
509 1.58741 3.28095 1.5874 1.54757e-08 0.00226104 2.47484e-18 1
51 3.17482 1.78927 -1.95901e-16 2.5327e-08 0.00430078 -5.25863e-18 1
471 3.17482 1.78927 1.5874 2.5327e-08 0.00430078 6.08022e-18 1
48 2.38111 2.53703 -1.52251e-16 2.13767e-08 0.00332181 1.08801e-18 1
54 3.17482 2.58297 0.793701 2.5327e-08 0.00430078 -1.08413e-18 1
91 2.38111 3.33073 0.793701 2.13767e-08 0.00332181 -2.5941e-18 1
93 3.17482 3.37667 -2.3454e-16 2.5327e-08 0.00430078 -1.09996e-17 1
468 2.38111 2.53703 1.5874 2.13767e-08 0.00332181 3.02656e-18 1
513 3.17482 3.37667 1.5874 2.5327e-08 0.00430078 -8.95641e-19 1
53 3.96852 1.83024 0.793701 2.68691e-08 0.00517385 4.71256e-19 1
475 4.76222 1.86522 1.5874 2.47971e-08 0.00591952 6.38014e-18 1
52 3.96852 2.62394 -2.40958e-16 2.68691e-08 0.00517385 -1.21729e-17 1
58 4.76222 2.65892 0.793701 2.47971e-08 0.00591952 -2.94585e-19 1
95 3.96852 3.41764 0.793701 2.68691e-08 0.00517385 -3.05403e-18 1
472 3.96852 2.62394 1.5874 2.68691e-08 0.00517385 5.26956e-18 1
517 4.76222 3.45262 1.5874 2.47971e-08 0.00591952 6.21566e-18 1
57 5.55592 1.89336 0.793701 1.87142e-08 0.00651944 5.17378e-19 1
479 6.34962 1.91397 1.5874 1.78372e-08 0.00695882 3.1068e-18 1
62 6.34962 2.70767 0.793701 1.78372e-08 0.00695882 -8.34457e-19 1
99 5.55592 3.48076 0.793701 1.87142e-08 0.00651944 9.4416e-19 1
476 5.55592 2.68706 1.5874 1.87142e-08 0.00651944 5.98175e-18 1
521 6.34962 3.50137 1.5874 1.78372e-08 0.00695882 4.303e-18 1
61 7.14331 1.92654 0.793701 3.73279e-08 0.00722686 -2.85252e-18 1
65 8.7307 1.92654 0.793701 -3.73279e-08 0.00722686 -5.59911e-19 1
483 7.93701 1.93077 1.5874 -1.69434e-17 0.00731694 3.88394e-19 1
66 7.93701 2.72447 0.793701 -2.05719e-17 0.00731694 -4.36751e-18 1
103 7.14331 3.51395 0.793701 3.73279e-08 0.00722686 -2.73683e-18 1
107 8.7307 3.51395 0.793701 -3.73279e-08 0.00722686 -5.96807e-18 1
480 7.14331 2.72024 1.5874 3.73279e-08 0.00722686 6.91839e-19 1
484 8.7307 2.72024 1.5874 -3.73279e-08 0.00722686 2.69206e-18 1
525 7.93701 3.51817 1.5874 -1.97434e-17 0.00731694 1.95571e-18 1
69 10.3181 1.89336 0.793701 -1.87142e-08 0.00651944 -4.23665e-17 1
487 9.52439 1.91397 1.5874 -1.78372e-08 0.00695882 2.93836e-18 1
70 9.52439 2.70767 0.793701 -1.78372e-08 0.00695882 -2.22567e-17 1
111 10.3181 3.48076 0.793701 -1.87142e-08 0.00651944 -3.37093e-17 1
488 10.3181 2.68706 1.5874 -1.87142e-08 0.00651944 -4.26464e-17 1
529 9.52439 3.50137 1.5874 -1.78372e-08 0.00695882 -1.44492e-17 1
73 11.9055 1.83024 0.793701 -2.68691e-08 0.00517385 -1.68291e-17 1
491 11.1118 1.86522 1.5874 -2.47971e-08 0.00591952 -3.05689e-17 1
72 11.9055 2.62394 -2.17607e-16 -2.68691e-08 0.00517385 1.36342e-17 1
74 11.1118 2.65892 0.793701 -2.47971e-08 0.00591952 -5.02884e-17 1
115 11.9055 3.41764 0.793701 -2.68691e-08 0.00517385 -4.69458e-18 1
492 11.9055 2.62394 1.5874 -2.68691e-08 0.00517385 -2.60156e-17 1
533 11.1118 3.45262 1.5874 -2.47971e-08 0.00591952 -5.4139e-17 1
75 12.6992 1.78927 -1.75591e-16 -2.5327e-08 0.00430078 2.18152e-17 1
495 12.6992 1.78927 1.5874 -2.5327e-08 0.00430078 1.58001e-18 1
76 13.4929 2.53703 -6.8071e-17 -2.13767e-08 0.00332181 4.42287e-17 1
78 12.6992 2.58297 0.793701 -2.5327e-08 0.00430078 2.52092e-17 1
117 12.6992 3.37667 -1.45232e-16 -2.5327e-08 0.00430078 3.76711e-17 1
119 13.4929 3.33073 0.793701 -2.13767e-08 0.00332181 3.17504e-17 1
496 13.4929 2.53703 1.5874 -2.13767e-08 0.00332181 1.50035e-17 1
537 12.6992 3.37667 1.5874 -2.5327e-08 0.00430078 7.0483e-19 1
80 15.0803 2.43484 -7.55242e-17 -8.10723e-09 0.00114461 1.09217e-17 1
82 14.2866 2.48725 0.793701 -1.54757e-08 0.00226104 3.00029e-17 1
84 15.874 2.3811 0.793701 -3.63866e-17 -3.75431e-17 6.11477e-18 1
121 14.2866 3.28095 -8.24197e-17 -1.54757e-08 0.00226104 2.42288e-17 1
123 15.0803 3.22854 0.793701 -8.10723e-09 0.00114461 8.08623e-18 1
125 15.874 3.1748 7.60428e-18 -4.27982e-17 -3.61826e-17 -4.71696e-18 1
500 15.0803 2.43484 1.5874 -8.10723e-09 0.00114461 1.19055e-17 1
541 14.2866 3.28095 1.5874 -1.54757e-08 0.00226104 1.00685e-17 1
545 15.874 3.1748 1.5874 -5.57452e-17 -4.86449e-17 7.8681e-19 1
86 0.793702 4.02224 -1.96833e-17 8.10723e-09 0.00114461 1.18885e-18 1
88 -2.17142e-16 3.9685 0.793701 2.92337e-17 -1.20338e-16 2.58524e-17 1
92 1.58741 4.07465 0.793701 1.54757e-08 0.00226104 -1.36045e-18 1
127 -1.76768e-16 4.7622 1.23799e-16 3.62855e-17 -8.55065e-17 -6.29859e-18 1
129 0.793702 4.81594 0.793701 8.10723e-09 0.00114461 -3.13343e-18 1
131 1.58741 4.86835 -7.37082e-17 1.54757e-08 0.00226104 -6.19704e-18 1
506 0.793702 4.02224 1.5874 8.10723e-09 0.00114461 1.02439e-17 1
547 -2.15975e-16 4.7622 1.5874 8.10437e-18 -1.20043e-16 1.77874e-17 1
551 1.58741 4.86835 1.5874 1.54757e-08 0.00226104 -5.10268e-18 1
90 2.38111 4.12443 -1.6204e-16 2.13767e-08 0.00332181 -6.05318e-18 1
96 3.17482 4.17037 0.793701 2.5327e-08 0.00430078 -6.18167e-18 1
133 2.38111 4.91813 0.793701 2.13767e-08 0.00332181 -8.97998e-18 1
135 3.17482 4.96407 -2.04259e-16 2.5327e-08 0.00430078 -1.12215e-17 1
510 2.38111 4.12443 1.5874 2.13767e-08 0.00332181 -1.02351e-17 1
555 3.17482 4.96407 1.5874 2.5327e-08 0.00430078 4.23547e-19 1
94 3.96852 4.21134 -2.796e-16 2.68691e-08 0.00517385 -1.84833e-17 1
100 4.76222 4.24632 0.793701 2.47971e-08 0.00591952 7.25441e-19 1
137 3.96852 5.00504 0.793701 2.68691e-08 0.00517385 2.0991e-18 1
514 3.96852 4.21134 1.5874 2.68691e-08 0.00517385 4.70785e-18 1
559 4.76222 5.04002 1.5874 2.47971e-08 0.00591952 7.69542e-18 1
104 6.34962 4.29507 0.793701 1.78372e-08 0.00695882 2.20222e-18 1
141 5.55592 5.06816 0.793701 1.87142e-08 0.00651944 6.11726e-18 1
518 5.55592 4.27446 1.5874 1.87142e-08 0.00651944 6.55723e-18 1
563 6.34962 5.08877 1.5874 1.78372e-08 0.00695882 5.61514e-18 1
108 7.93701 4.31187 0.793701 -1.75766e-17 0.00731694 -1.09208e-18 1
145 7.14331 5.10135 0.793701 3.73279e-08 0.00722686 1.96655e-18 1
149 8.7307 5.10135 0.793701 -3.73279e-08 0.00722686 5.63651e-18 1
522 7.14331 4.30765 1.5874 3.73279e-08 0.00722686 2.67626e-18 1
526 8.7307 4.30765 1.5874 -3.73279e-08 0.00722686 4.56849e-18 1
567 7.93701 5.10557 1.5874 -1.05813e-17 0.00731694 3.93454e-18 1
112 9.52439 4.29507 0.793701 -1.78372e-08 0.00695882 9.05568e-19 1
153 10.3181 5.06816 0.793701 -1.87142e-08 0.00651944 4.42736e-18 1
530 10.3181 4.27446 1.5874 -1.87142e-08 0.00651944 -2.7822e-17 1
571 9.52439 5.08877 1.5874 -1.78372e-08 0.00695882 5.22217e-18 1
114 11.9055 4.21134 -2.5579e-16 -2.68691e-08 0.00517385 4.43021e-18 1
116 11.1118 4.24632 0.793701 -2.47971e-08 0.00591952 -9.25425e-18 1
157 11.9055 5.00504 0.793701 -2.68691e-08 0.00517385 -5.50778e-18 1
534 11.9055 4.21134 1.5874 -2.68691e-08 0.00517385 -1.4704e-17 1
575 11.1118 5.04002 1.5874 -2.47971e-08 0.00591952 -1.10292e-17 1
118 13.4929 4.12443 -1.36783e-16 -2.13767e-08 0.00332181 2.13129e-17 1
120 12.6992 4.17037 0.793701 -2.5327e-08 0.00430078 5.33445e-18 1
159 12.6992 4.96407 -2.40853e-16 -2.5327e-08 0.00430078 8.63208e-19 1
161 13.4929 4.91813 0.793701 -2.13767e-08 0.00332181 5.07689e-19 1
538 13.4929 4.12443 1.5874 -2.13767e-08 0.00332181 4.50067e-18 1
579 12.6992 4.96407 1.5874 -2.5327e-08 0.00430078 -5.3953e-18 1
122 15.0803 4.02224 -9.80617e-17 -8.10723e-09 0.00114461 -2.52862e-18 1
124 14.2866 4.07465 0.793701 -1.54757e-08 0.00226104 7.74726e-18 1
126 15.874 3.9685 0.793701 -5.69741e-17 -4.18719e-17 -5.23491e-18 1
163 14.2866 4.86835 -1.57489e-16 -1.54757e-08 0.00226104 -2.68533e-18 1
165 15.0803 4.81594 0.793701 -8.10723e-09 0.00114461 -3.18108e-18 1
167 15.874 4.7622 -7.1955e-18 -5.44611e-17 -3.22985e-17 -1.08673e-17 1
542 15.0803 4.02224 1.5874 -8.10723e-09 0.00114461 2.22138e-18 1
583 14.2866 4.86835 1.5874 -1.54757e-08 0.00226104 2.22744e-18 1
587 15.874 4.7622 1.5874 -5.87415e-17 -2.56118e-17 2.06442e-18 1
128 0.793702 5.60964 -7.1468e-19 8.10723e-09 0.00114461 -1.99081e-17 1
130 -2.09609e-16 5.5559 0.793701 5.30543e-18 -7.60262e-17 -1.08981e-17 1
134 1.58741 5.66205 0.793701 1.54757e-08 0.00226104 -1.11909e-17 1
169 -2.22505e-16 6.3496 1.65922e-16 -1.15908e-17 -4.57322e-17 -3.37491e-17 1
171 0.793702 6.40334 0.793701 8.10723e-09 0.00114461 -2.2885e-17 1
173 1.58741 6.45575 -6.12299e-17 1.54757e-08 0.00226104 -1.91567e-17 1
548 0.793702 5.60964 1.5874 8.10723e-09 0.00114461 2.80059e-18 1
589 -2.15458e-16 6.3496 1.5874 -2.05736e-17 -5.63958e-17 8.96314e-19 1
593 1.58741 6.45575 1.5874 1.54757e-08 0.00226104 -1.51034e-18 1
132 2.38111 5.71183 -1.24305e-16 2.13767e-08 0.00332181 -1.11049e-17 1
138 3.17482 5.75777 0.793701 2.5327e-08 0.00430078 -5.73563e-19 1
175 2.38111 6.50553 0.793701 2.13767e-08 0.00332181 -7.42411e-18 1
177 3.17482 6.55147 -1.46007e-16 2.5327e-08 0.00430078 -3.2076e-18 1
552 2.38111 5.71183 1.5874 2.13767e-08 0.00332181 -8.53892e-19 1
597 3.17482 6.55147 1.5874 2.5327e-08 0.00430078 7.17746e-18 1
136 3.96852 5.79874 -1.58615e-16 2.68691e-08 0.00517385 -3.52527e-20 1
142 4.76222 5.83372 0.793701 2.47971e-08 0.00591952 2.31211e-17 1
179 3.96852 6.59244 0.793701 2.68691e-08 0.00517385 2.62211e-17 1
181 4.76222 6.62742 -1.44503e-16 2.47971e-08 0.00591952 2.84683e-17 1
556 3.96852 5.79874 1.5874 2.68691e-08 0.00517385 8.53325e-18 1
601 4.76222 6.62742 1.5874 2.47971e-08 0.00591952 7.86246e-18 1
146 6.34962 5.88247 0.793701 1.78372e-08 0.00695882 4.588e-18 1
183 5.55592 6.65557 0.793701 1.87142e-08 0.00651944 3.57351e-17 1
560 5.55592 5.86186 1.5874 1.87142e-08 0.00651944 6.29463e-18 1
605 6.34962 6.67618 1.5874 1.78372e-08 0.00695882 8.5263e-18 1
150 7.93701 5.89927 0.793701 -4.14409e-18 0.00731694 4.22477e-18 1
187 7.14331 6.68875 0.793701 3.73279e-08 0.00722686 4.14492e-18 1
191 8.7307 6.68875 0.793701 -3.73279e-08 0.00722686 7.96656e-18 1
564 7.14331 5.89505 1.5874 3.73279e-08 0.00722686 5.43973e-18 1
568 8.7307 5.89505 1.5874 -3.73279e-08 0.00722686 5.98037e-18 1
609 7.93701 6.69297 1.5874 3.68013e-18 0.00731694 8.48813e-18 1
154 9.52439 5.88247 0.793701 -1.78372e-08 0.00695882 9.28651e-18 1
195 10.3181 6.65557 0.793701 -1.87142e-08 0.00651944 3.97046e-18 1
572 10.3181 5.86186 1.5874 -1.87142e-08 0.00651944 8.48264e-19 1
613 9.52439 6.67618 1.5874 -1.78372e-08 0.00695882 7.91211e-18 1
156 11.9055 5.79874 -2.50619e-16 -2.68691e-08 0.00517385 -3.01277e-18 1
158 11.1118 5.83372 0.793701 -2.47971e-08 0.00591952 -1.84796e-18 1
199 11.9055 6.59244 0.793701 -2.68691e-08 0.00517385 -6.76158e-18 1
576 11.9055 5.79874 1.5874 -2.68691e-08 0.00517385 -9.05748e-18 1
617 11.1118 6.62742 1.5874 -2.47971e-08 0.00591952 -4.48312e-18 1
160 13.4929 5.71183 -2.14043e-16 -2.13767e-08 0.00332181 -6.24013e-18 1
162 12.6992 5.75777 0.793701 -2.5327e-08 0.00430078 -5.93648e-18 1
201 12.6992 6.55147 -2.52319e-16 -2.5327e-08 0.00430078 -6.18872e-18 1
203 13.4929 6.50553 0.793701 -2.13767e-08 0.00332181 -6.20253e-18 1
580 13.4929 5.71183 1.5874 -2.13767e-08 0.00332181 -2.38337e-18 1
621 12.6992 6.55147 1.5874 -2.5327e-08 0.00430078 -6.56392e-18 1
164 15.0803 5.60964 -1.4754e-16 -8.10723e-09 0.00114461 -9.02041e-18 1
166 14.2866 5.66205 0.793701 -1.54757e-08 0.00226104 -3.81413e-18 1
168 15.874 5.5559 0.793701 -4.97854e-17 -1.1982e-17 2.19021e-18 1
205 14.2866 6.45575 -1.82743e-16 -1.54757e-08 0.00226104 -9.89428e-18 1
207 15.0803 6.40334 0.793701 -8.10723e-09 0.00114461 8.16182e-19 1
209 15.874 6.3496 5.04752e-17 -4.19473e-17 -9.65451e-18 -3.14011e-19 1
584 15.0803 5.60964 1.5874 -8.10723e-09 0.00114461 4.34862e-18 1
625 14.2866 6.45575 1.5874 -1.54757e-08 0.00226104 -1.18655e-18 1
629 15.874 6.3496 1.5874 -1.90904e-17 5.19574e-18 1.54717e-17 1
170 0.793702 7.19704 2.23157e-17 8.10723e-09 0.00114461 -2.58027e-17 1
172 -2.61589e-16 7.1433 0.793701 -2.7606e-17 -2.98188e-17 -1.94131e-17 1
176 1.58741 7.24945 0.793701 1.54757e-08 0.00226104 -1.35488e-17 1
211 -2.69887e-16 7.93701 1.68988e-16 -3.45291e-17 -2.79866e-17 -2.00373e-17 1
212 0.793702 8.78444 1.68013e-17 8.10723e-09 0.00114461 -1.28832e-17 1
213 0.793702 7.99074 0.793701 8.10723e-09 0.00114461 -1.13237e-17 1
214 -3.30419e-16 8.73071 0.793701 -4.93737e-17 -2.99817e-17 -4.30279e-18 1
215 1.58741 8.04315 -4.49225e-17 1.54757e-08 0.00226104 -1.71063e-17 1
590 0.793702 7.19704 1.5874 8.10723e-09 0.00114461 -7.0898e-18 1
631 -2.89036e-16 7.93701 1.5874 -3.79789e-17 -1.50226e-17 -6.74639e-18 1
632 0.793702 8.78444 1.5874 8.10723e-09 0.00114461 -1.14208e-18 1
635 1.58741 8.04315 1.5874 1.54757e-08 0.00226104 -4.45959e-18 1
174 2.38111 7.29924 -1.07052e-16 2.13767e-08 0.00332181 -1.08388e-17 1
180 3.17482 7.34518 0.793701 2.5327e-08 0.00430078 4.58955e-18 1
217 2.38111 8.09294 0.793701 2.13767e-08 0.00332181 -1.27805e-18 1
219 3.17482 8.13888 -1.4844e-16 2.5327e-08 0.00430078 1.43067e-18 1
594 2.38111 7.29924 1.5874 2.13767e-08 0.00332181 6.47833e-19 1
639 3.17482 8.13888 1.5874 2.5327e-08 0.00430078 8.20639e-18 1
178 3.96852 7.38614 -1.76422e-16 2.68691e-08 0.00517385 2.16248e-17 1
184 4.76222 7.42112 0.793701 2.47971e-08 0.00591952 4.83994e-17 1
221 3.96852 8.17984 0.793701 2.68691e-08 0.00517385 1.69252e-17 1
598 3.96852 7.38614 1.5874 2.68691e-08 0.00517385 9.70291e-18 1
643 4.76222 8.21482 1.5874 2.47971e-08 0.00591952 9.90434e-18 1
188 6.34962 7.46988 0.793701 1.78372e-08 0.00695882 2.03371e-17 1
225 5.55592 8.24297 0.793701 1.87142e-08 0.00651944 3.03384e-17 1
602 5.55592 7.44927 1.5874 1.87142e-08 0.00651944 1.05978e-17 1
647 6.34962 8.26358 1.5874 1.78372e-08 0.00695882 1.95506e-17 1
192 7.93701 7.48667 0.793701 5.45089e-18 0.00731694 9.41873e-18 1
229 7.14331 8.27615 0.793701 3.73279e-08 0.00722686 8.70822e-18 1
233 8.7307 8.27615 0.793701 -3.73279e-08 0.00722686 1.84216e-17 1
606 7.14331 7.48245 1.5874 3.73279e-08 0.00722686 1.52135e-17 1
610 8.7307 7.48245 1.5874 -3.73279e-08 0.00722686 1.46708e-17 1
651 7.93701 8.28037 1.5874 5.03961e-18 0.00731694 2.18262e-17 1
196 9.52439 7.46988 0.793701 -1.78372e-08 0.00695882 1.28732e-17 1
237 10.3181 8.24297 0.793701 -1.87142e-08 0.00651944 1.28926e-18 1
614 10.3181 7.44927 1.5874 -1.87142e-08 0.00651944 8.72587e-18 1
655 9.52439 8.26358 1.5874 -1.78372e-08 0.00695882 2.56965e-17 1
198 11.9055 7.38614 -2.71716e-16 -2.68691e-08 0.00517385 -3.48767e-18 1
200 11.1118 7.42112 0.793701 -2.47971e-08 0.00591952 -1.3753e-17 1
241 11.9055 8.17984 0.793701 -2.68691e-08 0.00517385 -1.78327e-17 1
618 11.9055 7.38614 1.5874 -2.68691e-08 0.00517385 -6.61827e-18 1
659 11.1118 8.21482 1.5874 -2.47971e-08 0.00591952 1.12808e-18 1
202 13.4929 7.29924 -2.06851e-16 -2.13767e-08 0.00332181 -8.65892e-18 1
204 12.6992 7.34518 0.793701 -2.5327e-08 0.00430078 -7.4251e-18 1
243 12.6992 8.13888 -2.31949e-16 -2.5327e-08 0.00430078 -6.58827e-18 1
245 13.4929 8.09294 0.793701 -2.13767e-08 0.00332181 -8.24047e-18 1
622 13.4929 7.29924 1.5874 -2.13767e-08 0.00332181 -4.08119e-18 1
663 12.6992 8.13888 1.5874 -2.5327e-08 0.00430078 -4.09458e-18 1
206 15.0803 7.19704 -1.46116e-16 -8.10723e-09 0.00114461 -4.57131e-18 1
208 14.2866 7.24945 0.793701 -1.54757e-08 0.00226104 -6.4448e-18 1
210 15.874 7.1433 0.793701 -1.40271e-17 -7.56152e-18 1.74152e-17 1
247 14.2866 8.04315 -1.75928e-16 -1.54757e-08 0.00226104 -1.01757e-17 1
248 15.0803 8.78444 -1.35151e-16 -8.10723e-09 0.00114461 -9.32e-18 1
249 15.0803 7.99074 0.793701 -8.10723e-09 0.00114461 -1.66888e-18 1
251 15.874 7.93701 1.33024e-17 -1.99483e-17 -1.3494e-17 5.04826e-18 1
252 15.874 8.73071 0.793701 -3.75189e-18 -2.37812e-17 4.35135e-18 1
626 15.0803 7.19704 1.5874 -8.10723e-09 0.00114461 1.74806e-18 1
667 14.2866 8.04315 1.5874 -1.54757e-08 0.00226104 -3.52317e-18 1
668 15.0803 8.78444 1.5874 -8.10723e-09 0.00114461 1.06335e-18 1
671 15.874 7.93701 1.5874 9.28437e-18 -2.53132e-17 1.42311e-17 1
218 1.58741 8.83685 0.793701 1.54757e-08 0.00226104 2.17832e-18 1
253 -3.44258e-16 9.52441 9.27354e-17 -6.45626e-17 -6.71487e-17 1.64282e-18 1
254 0.793702 10.3718 3.39866e-17 8.10723e-09 0.00114461 1.3018e-17 1
255 0.793702 9.57814 0.793701 8.10723e-09 0.00114461 1.01e-17 1
256 -3.81502e-16 10.3181 0.793701 -7.19171e-17 -6.96807e-17 1.31924e-17 1
257 1.58741 9.63055 -4.82165e-17 1.54757e-08 0.00226104 -5.9323e-19 1
260 1.58741 10.4243 0.793701 1.54757e-08 0.00226104 2.56673e-17 1
673 -3.53314e-16 9.52441 1.5874 -5.87623e-17 -4.5482e-17 4.76411e-18 1
674 0.793702 10.3718 1.5874 8.10723e-09 0.00114461 1.3292e-17 1
677 1.58741 9.63055 1.5874 1.54757e-08 0.00226104 1.16188e-17 1
216 2.38111 8.88664 -1.03628e-16 2.13767e-08 0.00332181 -5.6748e-18 1
222 3.17482 8.93258 0.793701 2.5327e-08 0.00430078 1.57545e-17 1
636 2.38111 8.88664 1.5874 2.13767e-08 0.00332181 7.33959e-18 1
258 2.38111 10.474 -7.07314e-17 2.13767e-08 0.00332181 2.55518e-17 1
259 2.38111 9.68034 0.793701 2.13767e-08 0.00332181 2.35163e-17 1
261 3.17482 9.72628 -1.63708e-16 2.5327e-08 0.00430078 1.28034e-17 1
264 3.17482 10.52 0.793701 2.5327e-08 0.00430078 3.93361e-17 1
678 2.38111 10.474 1.5874 2.13767e-08 0.00332181 2.68537e-17 1
681 3.17482 9.72628 1.5874 2.5327e-08 0.00430078 2.46821e-17 1
220 3.96852 8.97354 -2.01467e-16 2.68691e-08 0.00517385 7.49091e-18 1
226 4.76222 9.00852 0.793701 2.47971e-08 0.00591952 2.06578e-17 1
640 3.96852 8.97354 1.5874 2.68691e-08 0.00517385 1.9448e-17 1
262 3.96852 10.5609 -1.85779e-16 2.68691e-08 0.00517385 1.95601e-17 1
263 3.96852 9.76724 0.793701 2.68691e-08 0.00517385 2.49296e-17 1
268 4.76222 10.5959 0.793701 2.47971e-08 0.00591952 2.87902e-17 1
682 3.96852 10.5609 1.5874 2.68691e-08 0.00517385 3.30523e-17 1
685 4.76222 9.80222 1.5874 2.47971e-08 0.00591952 2.90511e-17 1
230 6.34962 9.05728 0.793701 1.78372e-08 0.00695882 1.10382e-17 1
644 5.55592 9.03667 1.5874 1.87142e-08 0.00651944 1.73577e-17 1
267 5.55592 9.83037 0.793701 1.87142e-08 0.00651944 1.93036e-17 1
689 6.34962 9.85098 1.5874 1.78372e-08 0.00695882 7.77162e-18 1
234 7.93701 9.07407 0.793701 -9.08759e-18 0.00731694 1.3085e-17 1
648 7.14331 9.06985 1.5874 3.73279e-08 0.00722686 2.16142e-17 1
652 8.7307 9.06985 1.5874 -3.73279e-08 0.00722686 3.09753e-17 1
271 7.14331 9.86355 0.793701 3.73279e-08 0.00722686 3.34633e-18 1
275 8.7307 9.86355 0.793701 -3.73279e-08 0.00722686 1.32922e-17 1
693 7.93701 9.86777 1.5874 -9.72598e-18 0.00731694 2.80474e-17 1
238 9.52439 9.05728 0.793701 -1.78372e-08 0.00695882 2.22474e-17 1
656 10.3181 9.03667 1.5874 -1.87142e-08 0.00651944 2.14061e-17 1
279 10.3181 9.83037 0.793701 -1.87142e-08 0.00651944 1.22549e-17 1
697 9.52439 9.85098 1.5874 -1.78372e-08 0.00695882 2.08811e-17 1
240 11.9055 8.97354 -2.40059e-16 -2.68691e-08 0.00517385 -4.33837e-18 1
242 11.1118 9.00852 0.793701 -2.47971e-08 0.00591952 -8.45923e-18 1
660 11.9055 8.97354 1.5874 -2.68691e-08 0.00517385 -2.52108e-18 1
282 11.9055 10.5609 -2.18704e-16 -2.68691e-08 0.00517385 1.11344e-17 1
283 11.9055 9.76724 0.793701 -2.68691e-08 0.00517385 -2.7125e-17 1
284 11.1118 10.5959 0.793701 -2.47971e-08 0.00591952 -1.88905e-17 1
701 11.1118 9.80222 1.5874 -2.47971e-08 0.00591952 9.84881e-18 1
702 11.9055 10.5609 1.5874 -2.68691e-08 0.00517385 -2.95225e-17 1
244 13.4929 8.88664 -2.03285e-16 -2.13767e-08 0.00332181 -9.67881e-18 1
246 12.6992 8.93258 0.793701 -2.5327e-08 0.00430078 -1.83741e-17 1
664 13.4929 8.88664 1.5874 -2.13767e-08 0.00332181 -4.15384e-18 1
285 12.6992 9.72628 -2.26049e-16 -2.5327e-08 0.00430078 -8.62743e-18 1
286 13.4929 10.474 -1.75062e-16 -2.13767e-08 0.00332181 -5.54591e-18 1
287 13.4929 9.68034 0.793701 -2.13767e-08 0.00332181 -1.8141e-17 1
288 12.6992 10.52 0.793701 -2.5327e-08 0.00430078 -2.75922e-17 1
705 12.6992 9.72628 1.5874 -2.5327e-08 0.00430078 -1.2388e-17 1
706 13.4929 10.474 1.5874 -2.13767e-08 0.00332181 -6.50608e-18 1
250 14.2866 8.83685 0.793701 -1.54757e-08 0.00226104 -9.11785e-18 1
289 14.2866 9.63055 -1.50401e-16 -1.54757e-08 0.00226104 -9.12588e-18 1
290 15.0803 10.3718 -6.32549e-17 -8.10723e-09 0.00114461 -4.99608e-18 1
291 15.0803 9.57814 0.793701 -8.10723e-09 0.00114461 -7.65698e-18 1
292 14.2866 10.4243 0.793701 -1.54757e-08 0.00226104 -6.85506e-18 1
293 15.874 9.52441 -5.63528e-17 -6.17124e-18 -1.645e-17 -6.70883e-18 1
294 15.874 10.3181 0.793701 2.2512e-18 -2.09167e-17 -6.21052e-18 1
709 14.2866 9.63055 1.5874 -1.54757e-08 0.00226104 -3.8689e-18 1
710 15.0803 10.3718 1.5874 -8.10723e-09 0.00114461 -3.06365e-18 1
713 15.874 9.52441 1.5874 2.26903e-18 -2.77992e-17 2.81003e-18 1
295 -4.13814e-16 11.1118 4.91051e-17 -8.68458e-17 -6.77373e-17 1.57776e-17 1
296 0.793702 11.9592 1.90721e-17 8.10723e-09 0.00114461 2.02592e-17 1
297 0.793702 11.1655 0.793701 8.10723e-09 0.00114461 1.97654e-17 1
298 -2.87062e-16 11.9055 0.793701 -9.75997e-17 -6.75813e-17 1.33905e-17 1
299 1.58741 11.218 9.22892e-18 1.54757e-08 0.00226104 2.87934e-17 1
302 1.58741 12.0117 0.793701 1.54757e-08 0.00226104 2.88996e-17 1
715 -2.60899e-16 11.1118 1.5874 -8.34177e-17 -6.69315e-17 1.56544e-17 1
716 0.793702 11.9592 1.5874 8.10723e-09 0.00114461 1.30121e-17 1
719 1.58741 11.218 1.5874 1.54757e-08 0.00226104 1.91508e-17 1
300 2.38111 12.0614 -5.75108e-17 2.13767e-08 0.00332181 3.91168e-17 1
301 2.38111 11.2677 0.793701 2.13767e-08 0.00332181 4.4168e-17 1
303 3.17482 11.3137 -1.16219e-16 2.5327e-08 0.00430078 3.36503e-17 1
306 3.17482 12.1074 0.793701 2.5327e-08 0.00430078 4.43017e-17 1
720 2.38111 12.0614 1.5874 2.13767e-08 0.00332181 2.68473e-17 1
723 3.17482 11.3137 1.5874 2.5327e-08 0.00430078 3.65307e-17 1
304 3.96852 12.1483 -1.87233e-16 2.68691e-08 0.00517385 2.28466e-17 1
305 3.96852 11.3546 0.793701 2.68691e-08 0.00517385 3.7591e-17 1
310 4.76222 12.1833 0.793701 2.47971e-08 0.00591952 4.13872e-17 1
724 3.96852 12.1483 1.5874 2.68691e-08 0.00517385 3.80904e-17 1
727 4.76222 11.3896 1.5874 2.47971e-08 0.00591952 4.50215e-17 1
272 6.34962 10.6447 0.793701 1.78372e-08 0.00695882 5.67443e-18 1
686 5.55592 10.6241 1.5874 1.87142e-08 0.00651944 2.46024e-17 1
309 5.55592 11.4178 0.793701 1.87142e-08 0.00651944 3.1279e-17 1
314 6.34962 12.2321 0.793701 1.78372e-08 0.00695882 1.45094e-17 1
728 5.55592 12.2115 1.5874 1.87142e-08 0.00651944 3.15662e-17 1
731 6.34962 11.4384 1.5874 1.78372e-08 0.00695882 5.52392e-18 1
276 7.93701 10.6615 0.793701 -5.91758e-18 0.00731694 2.61396e-18 1
690 7.14331 10.6573 1.5874 3.73279e-08 0.00722686 1.21469e-17 1
694 8.7307 10.6573 1.5874 -3.73279e-08 0.00722686 1.13012e-17 1
313 7.14331 11.451 0.793701 3.73279e-08 0.00722686 -3.97743e-19 1
317 8.7307 11.451 0.793701 -3.73279e-08 0.00722686 1.21392e-19 1
318 7.93701 12.2489 0.793701 4.50458e-18 0.00731694 4.12662e-18 1
732 7.14331 12.2447 1.5874 3.73279e-08 0.00722686 1.18611e-17 1
735 7.93701 11.4552 1.5874 9.82006e-19 0.00731694 1.99132e-17 1
736 8.7307 12.2447 1.5874 -3.73279e-08 0.00722686 1.96651e-18 1
280 9.52439 10.6447 0.793701 -1.78372e-08 0.00695882 4.50593e-18 1
698 10.3181 10.6241 1.5874 -1.87142e-08 0.00651944 1.01708e-17 1
321 10.3181 11.4178 0.793701 -1.87142e-08 0.00651944 -5.56162e-18 1
322 9.52439 12.2321 0.793701 -1.78372e-08 0.00695882 1.10902e-18 1
739 9.52439 11.4384 1.5874 -1.78372e-08 0.00695882 -1.00121e-17 1
740 10.3181 12.2115 1.5874 -1.87142e-08 0.00651944 -1.44257e-17 1
324 11.9055 12.1483 -2.02193e-16 -2.68691e-08 0.00517385 2.85352e-17 1
325 11.9055 11.3546 0.793701 -2.68691e-08 0.00517385 -3.85503e-17 1
326 11.1118 12.1833 0.793701 -2.47971e-08 0.00591952 -3.51931e-17 1
743 11.1118 11.3896 1.5874 -2.47971e-08 0.00591952 -2.9162e-17 1
744 11.9055 12.1483 1.5874 -2.68691e-08 0.00517385 -5.98539e-17 1
327 12.6992 11.3137 -1.75616e-16 -2.5327e-08 0.00430078 1.0922e-17 1
328 13.4929 12.0614 -1.31196e-16 -2.13767e-08 0.00332181 1.35607e-18 1
329 13.4929 11.2677 0.793701 -2.13767e-08 0.00332181 -4.82229e-18 1
330 12.6992 12.1074 0.793701 -2.5327e-08 0.00430078 -1.64314e-17 1
747 12.6992 11.3137 1.5874 -2.5327e-08 0.00430078 -2.8696e-17 1
748 13.4929 12.0614 1.5874 -2.13767e-08 0.00332181 -3.58622e-18 1
331 14.2866 11.218 -7.7246e-17 -1.54757e-08 0.00226104 -1.69978e-18 1
332 15.0803 11.9592 3.64206e-17 -8.10723e-09 0.00114461 4.51325e-18 1
333 15.0803 11.1655 0.793701 -8.10723e-09 0.00114461 -3.48716e-18 1
334 14.2866 12.0117 0.793701 -1.54757e-08 0.00226104 8.65439e-19 1
335 15.874 11.1118 3.43591e-17 4.41874e-18 -3.28602e-17 -2.13407e-18 1
336 15.874 11.9055 0.793701 3.85462e-18 -4.45544e-17 1.64684e-19 1
751 14.2866 11.218 1.5874 -1.54757e-08 0.00226104 -6.48866e-19 1
752 15.0803 11.9592 1.5874 -8.10723e-09 0.00114461 5.39846e-19 1
755 15.874 11.1118 1.5874 4.89758e-18 -2.63568e-17 -8.1364e-19 1
337 -4.02136e-16 12.6992 7.47925e-17 -1.12447e-16 -8.10593e-17 1.41412e-17 1
338 0.793702 13.5466 -2.10282e-17 8.10723e-09 0.00114461 5.98584e-18 1
339 0.793702 12.7529 0.793701 8.10723e-09 0.00114461 1.52986e-17 1
340 -2.7666e-16 13.4929 0.793701 -1.04044e-16 -9.72061e-17 1.23908e-17 1
341 1.58741 12.8054 -3.41192e-17 1.54757e-08 0.00226104 1.95271e-17 1
344 1.58741 13.5991 0.793701 1.54757e-08 0.00226104 1.15628e-17 1
757 -2.01732e-16 12.6992 1.5874 -1.05953e-16 -8.24941e-17 1.00359e-17 1
758 0.793702 13.5466 1.5874 8.10723e-09 0.00114461 1.00242e-17 1
761 1.58741 12.8054 1.5874 1.54757e-08 0.00226104 1.3706e-17 1
342 2.38111 13.6488 -1.15472e-16 2.13767e-08 0.00332181 1.24059e-17 1
343 2.38111 12.8551 0.793701 2.13767e-08 0.00332181 3.12837e-17 1
345 3.17482 12.9011 -1.56309e-16 2.5327e-08 0.00430078 2.66879e-17 1
348 3.17482 13.6948 0.793701 2.5327e-08 0.00430078 1.81562e-17 1