ITEM: TIMESTEP
15000
ITEM: NUMBER OF ATOMS
8000
ITEM: BOX BOUNDS pp pp pp
0.0000000000000000e+00 3.1748021039364001e+01
0.0000000000000000e+00 1.5874010519682001e+01
0.0000000000000000e+00 1.5874010519682001e+01
ITEM: ATOMS id x y z vx vy vz c_rho_peratom
2 0.793706 0.882483 -1.46576e-16 -1.36234e-08 0.000870843 8.5687e-17 1
3 0.793706 0.0887829 0.793701 -1.36234e-08 0.000870843 4.28618e-17 1
4 1.31505e-16 0.793701 0.793701 4.96269e-17 -1.00071e-16 4.92366e-17 1
5 1.58742 0.175357 -3.05014e-16 -2.60341e-08 0.00172026 6.58372e-17 1
8 1.58742 0.969057 0.793701 -2.60341e-08 0.00172026 4.99191e-17 1
43 1.34053e-16 1.5874 9.42281e-17 4.03616e-17 -1.10487e-16 7.15483e-17 1
45 0.793706 1.67618 0.793701 -1.36234e-08 0.000870843 5.57891e-17 1
47 1.58742 1.76276 -2.61274e-16 -2.60341e-08 0.00172026 7.5895e-17 1
422 0.793706 0.882483 1.5874 -1.36234e-08 0.000870843 2.87059e-17 1
425 1.58742 0.175357 1.5874 -2.60341e-08 0.00172026 2.2707e-17 1
463 -9.62457e-18 1.5874 1.5874 4.71e-17 -1.04924e-16 3.9531e-17 1
467 1.58742 1.76276 1.5874 -2.60341e-08 0.00172026 3.43754e-17 1
6 2.38114 1.05129 -4.76394e-16 -3.63612e-08 0.00252733 4.8439e-17 1
7 2.38114 0.257592 0.793701 -3.63612e-08 0.00252733 1.30868e-17 1
9 3.17486 0.333468 -6.45232e-16 -4.35475e-08 0.00327218 -7.68699e-19 1
12 3.17486 1.12717 0.793701 -4.35475e-08 0.00327218 2.1624e-18 1
426 2.38114 1.05129 1.5874 -3.63612e-08 0.00252733 2.38995e-17 1
429 3.17486 0.333468 1.5874 -4.35475e-08 0.00327218 3.78938e-18 1
10 3.96858 1.19482 -5.96782e-16 -4.67404e-08 0.00393644 1.05502e-17 1
11 3.96858 0.401121 0.793701 -4.67404e-08 0.00393644 -2.83039e-17 1
16 4.76228 1.25259 0.793701 -4.61418e-08 0.00450377 -5.90754e-18 1
430 3.96858 1.19482 1.5874 -4.67404e-08 0.00393644 3.69455e-18 1
433 4.76228 0.458892 1.5874 -4.61418e-08 0.00450377 -1.27719e-17 1
15 5.55598 0.505363 0.793701 -4.19555e-08 0.00496019 -1.47947e-17 1
20 6.34966 1.33309 0.793701 -2.78251e-08 0.00529447 3.78393e-17 1
434 5.55598 1.29906 1.5874 -4.19555e-08 0.00496019 -6.34004e-18 1
437 6.34966 0.539394 1.5874 -2.78251e-08 0.00529447 -2.41705e-17 1
19 7.14334 0.560153 0.793701 6.63618e-09 0.00549839 5.23004e-18 1
23 8.73067 0.560153 0.793701 -6.63618e-09 0.00549839 -1.63991e-17 1
24 7.93701 1.36083 0.793701 5.75623e-17 0.00556692 2.50001e-17 1
438 7.14334 1.35385 1.5874 6.63618e-09 0.00549839 -1.08692e-18 1
441 7.93701 0.567129 1.5874 2.44591e-17 0.00556692 -2.44114e-17 1
442 8.73067 1.35385 1.5874 -6.63618e-09 0.00549839 -1.48528e-17 1
27 10.318 0.505363 0.793701 4.19555e-08 0.00496019 -1.7715e-17 1
28 9.52435 1.33309 0.793701 2.78251e-08 0.00529447 -1.68589e-17 1
445 9.52435 0.539394 1.5874 2.78251e-08 0.00529447 -1.69591e-17 1
446 10.318 1.29906 1.5874 4.19555e-08 0.00496019 -6.86659e-18 1
30 11.9054 1.19482 -6.57815e-16 4.67404e-08 0.00393644 1.13893e-17 1
31 11.9054 0.401121 0.793701 4.67404e-08 0.00393644 1.22961e-17 1
32 11.1117 1.25259 0.793701 4.61418e-08 0.00450377 -2.78295e-18 1
449 11.1117 0.458892 1.5874 4.61418e-08 0.00450377 -1.0776e-18 1
450 11.9054 1.19482 1.5874 4.67404e-08 0.00393644 5.1281e-18 1
33 12.6991 0.333468 -6.36633e-16 4.35475e-08 0.00327218 2.98125e-17 1
34 13.4929 1.05129 -5.68532e-16 3.63612e-08 0.00252733 4.08124e-17 1
35 13.4929 0.257592 0.793701 3.63612e-08 0.00252733 3.25601e-17 1
36 12.6991 1.12717 0.793701 4.35475e-08 0.00327218 2.4069e-17 1
453 12.6991 0.333468 1.5874 4.35475e-08 0.00327218 1.83563e-17 1
454 13.4929 1.05129 1.5874 3.63612e-08 0.00252733 1.81293e-17 1
37 14.2866 0.175357 -4.7968e-16 2.60341e-08 0.00172026 4.4028e-17 1
38 15.0803 0.882483 -1.28522e-16 1.36234e-08 0.000870843 5.47186e-17 1
39 15.0803 0.0887829 0.793701 1.36234e-08 0.000870843 4.276e-17 1
40 14.2866 0.969057 0.793701 2.60341e-08 0.00172026 3.61296e-17 1
41 15.874 -1.23114e-16 9.68895e-17 -7.50693e-17 -1.06653e-17 6.01471e-17 1
42 15.874 0.793701 0.793701 -6.88165e-17 2.67731e-18 5.01694e-17 1
79 14.2866 1.76276 -2.74023e-16 2.60341e-08 0.00172026 4.97689e-17 1
81 15.0803 1.67618 0.793701 1.36234e-08 0.000870843 4.72218e-17 1
83 15.874 1.5874 1.50332e-16 -7.14793e-17 2.44556e-17 5.94836e-17 1
457 14.2866 0.175357 1.5874 2.60341e-08 0.00172026 2.23259e-17 1
458 15.0803 0.882483 1.5874 1.36234e-08 0.000870843 2.56796e-17 1
461 15.874 -1.08505e-16 1.5874 -6.22315e-17 -1.79332e-17 3.84782e-17 1
499 14.2866 1.76276 1.5874 2.60341e-08 0.00172026 2.43e-17 1
503 15.874 1.5874 1.5874 -5.88849e-17 2.62877e-17 3.44367e-17 1
44 0.793706 2.46988 -9.49844e-17 -1.36234e-08 0.000870843 7.72609e-17 1
46 -3.31976e-17 2.3811 0.793701 6.42058e-17 -1.06823e-16 5.88417e-17 1
50 1.58742 2.55646 0.793701 -2.60341e-08 0.00172026 4.75726e-17 1
85 -3.69836e-17 3.1748 1.48009e-16 8.05492e-17 -1.0407e-16 7.34189e-17 1
87 0.793706 3.26358 0.793701 -1.36234e-08 0.000870843 6.01559e-17 1
89 1.58742 3.35016 -2.67544e-16 -2.60341e-08 0.00172026 5.01887e-17 1
464 0.793706 2.46988 1.5874 -1.36234e-08 0.000870843 4.03445e-17 1
505 -9.36735e-17 3.1748 1.5874 7.3521e-17 -9.44358e-17 5.07797e-17 1
509 1.58742 3.35016 1.5874 -2.60341e-08 0.00172026 4.32853e-17 1
49 2.38114 1.84499 0.793701 -3.63612e-08 0.00252733 3.22826e-17 1
51 3.17486 1.92087 -5.13035e-16 -4.35475e-08 0.00327218 2.97795e-17 1
471 3.17486 1.92087 1.5874 -4.35475e-08 0.00327218 1.56768e-17 1
48 2.38114 2.63869 -4.20786e-16 -3.63612e-08 0.00252733 3.71274e-17 1
54 3.17486 2.71457 0.793701 -4.35475e-08 0.00327218 2.29092e-17 1
91 2.38114 3.43239 0.793701 -3.63612e-08 0.00252733 2.90916e-17 1
93 3.17486 3.50827 -5.29145e-16 -4.35475e-08 0.00327218 3.01344e-17 1
468 2.38114 2.63869 1.5874 -3.63612e-08 0.00252733 2.92151e-17 1
513 3.17486 3.50827 1.5874 -4.35475e-08 0.00327218 1.67868e-17 1
53 3.96858 1.98852 0.793701 -4.67404e-08 0.00393644 1.31776e-17 1
475 4.76228 2.04629 1.5874 -4.61418e-08 0.00450377 8.65927e-18 1
52 3.96858 2.78222 -5.26384e-16 -4.67404e-08 0.00393644 5.17622e-17 1
58 4.76228 2.83999 0.793701 -4.61418e-08 0.00450377 4.32431e-17 1
95 3.96858 3.57592 0.793701 -4.67404e-08 0.00393644 3.40498e-17 1
472 3.96858 2.78222 1.5874 -4.67404e-08 0.00393644 1.28575e-17 1
57 5.55598 2.09276 0.793701 -4.19555e-08 0.00496019 4.37148e-17 1
479 6.34966 2.1268 1.5874 -2.78251e-08 0.00529447 3.9112e-17 1
62 6.34966 2.9205 0.793701 -2.78251e-08 0.00529447 9.01831e-17 1
476 5.55598 2.88646 1.5874 -4.19555e-08 0.00496019 4.16731e-17 1
61 7.14334 2.14755 0.793701 6.63618e-09 0.00549839 7.06978e-17 1
65 8.73067 2.14755 0.793701 -6.63618e-09 0.00549839 1.35941e-17 1
483 7.93701 2.15453 1.5874 4.83663e-17 0.00556692 1.95713e-17 1
66 7.93701 2.94823 0.793701 7.74356e-17 0.00556692 6.42138e-17 1
480 7.14334 2.94125 1.5874 6.63618e-09 0.00549839 6.43382e-17 1
484 8.73067 2.94125 1.5874 -6.63618e-09 0.00549839 1.62932e-17 1
69 10.318 2.09276 0.793701 4.19555e-08 0.00496019 -3.76059e-18 1
487 9.52435 2.1268 1.5874 2.78251e-08 0.00529447 -6.80646e-18 1
70 9.52435 2.9205 0.793701 2.78251e-08 0.00529447 3.20652e-18 1
488 10.318 2.88646 1.5874 4.19555e-08 0.00496019 -3.42455e-19 1
73 11.9054 1.98852 0.793701 4.67404e-08 0.00393644 1.23932e-17 1
491 11.1117 2.04629 1.5874 4.61418e-08 0.00450377 7.67667e-19 1
72 11.9054 2.78222 -5.84503e-16 4.67404e-08 0.00393644 -6.20904e-19 1
74 11.1117 2.83999 0.793701 4.61418e-08 0.00450377 1.2364e-17 1
115 11.9054 3.57592 0.793701 4.67404e-08 0.00393644 1.69123e-17 1
492 11.9054 2.78222 1.5874 4.67404e-08 0.00393644 1.53136e-17 1
77 13.4929 1.84499 0.793701 3.63612e-08 0.00252733 3.3871e-17 1
75 12.6991 1.92087 -5.93434e-16 4.35475e-08 0.00327218 1.38251e-17 1
495 12.6991 1.92087 1.5874 4.35475e-08 0.00327218 1.97019e-17 1
76 13.4929 2.63869 -4.1159e-16 3.63612e-08 0.00252733 1.86745e-17 1
78 12.6991 2.71457 0.793701 4.35475e-08 0.00327218 2.01167e-17 1
117 12.6991 3.50827 -5.27506e-16 4.35475e-08 0.00327218 -4.95286e-18 1
119 13.4929 3.43239 0.793701 3.63612e-08 0.00252733 3.25641e-17 1
496 13.4929 2.63869 1.5874 3.63612e-08 0.00252733 3.01528e-17 1
537 12.6991 3.50827 1.5874 4.35475e-08 0.00327218 2.23058e-17 1
80 15.0803 2.46988 -3.03367e-17 1.36234e-08 0.000870843 4.32769e-17 1
82 14.2866 2.55646 0.793701 2.60341e-08 0.00172026 4.48475e-17 1
84 15.874 2.3811 0.793701 -5.88246e-17 4.33915e-17 5.3077e-17 1
121 14.2866 3.35016 -1.87815e-16 2.60341e-08 0.00172026 3.16265e-17 1
123 15.0803 3.26358 0.793701 1.36234e-08 0.000870843 3.7723e-17 1
125 15.874 3.1748 2.14734e-16 -5.64684e-17 7.66288e-17 3.88404e-17 1
500 15.0803 2.46988 1.5874 1.36234e-08 0.000870843 3.17974e-17 1
541 14.2866 3.35016 1.5874 2.60341e-08 0.00172026 3.32557e-17 1
545 15.874 3.1748 1.5874 -4.61093e-17 5.07372e-17 3.3619e-17 1
86 0.793706 4.05729 -8.80494e-17 -1.36234e-08 0.000870843 6.07539e-17 1
88 -7.87929e-17 3.9685 0.793701 9.02557e-17 -8.40428e-17 7.0459e-17 1
92 1.58742 4.14386 0.793701 -2.60341e-08 0.00172026 4.32375e-17 1
127 7.93138e-17 4.7622 2.66537e-16 9.59217e-17 -5.36041e-17 5.30708e-17 1
129 0.793706 4.85099 0.793701 -1.36234e-08 0.000870843 5.65094e-17 1
131 1.58742 4.93756 -1.89933e-16 -2.60341e-08 0.00172026 3.00668e-17 1
506 0.793706 4.05729 1.5874 -1.36234e-08 0.000870843 5.18988e-17 1
547 -1.77868e-16 4.7622 1.5874 8.89162e-17 -7.46773e-17 5.30952e-17 1
551 1.58742 4.93756 1.5874 -2.60341e-08 0.00172026 4.64777e-17 1
90 2.38114 4.22609 -3.3844e-16 -3.63612e-08 0.00252733 2.10506e-17 1
96 3.17486 4.30197 0.793701 -4.35475e-08 0.00327218 2.13822e-17 1
133 2.38114 5.0198 0.793701 -3.63612e-08 0.00252733 1.79952e-17 1
135 3.17486 5.09567 -3.27658e-16 -4.35475e-08 0.00327218 2.58458e-17 1
510 2.38114 4.22609 1.5874 -3.63612e-08 0.00252733 2.85295e-17 1
555 3.17486 5.09567 1.5874 -4.35475e-08 0.00327218 3.58014e-18 1
517 4.76228 3.63369 1.5874 -4.61418e-08 0.00450377 1.49231e-17 1
94 3.96858 4.36962 -5.03749e-16 -4.67404e-08 0.00393644 5.42744e-17 1
100 4.76228 4.42739 0.793701 -4.61418e-08 0.00450377 4.403e-17 1
137 3.96858 5.16332 0.793701 -4.67404e-08 0.00393644 2.9659e-17 1
514 3.96858 4.36962 1.5874 -4.67404e-08 0.00393644 7.56815e-18 1
559 4.76228 5.2211 1.5874 -4.61418e-08 0.00450377 3.37745e-17 1
99 5.55598 3.68016 0.793701 -4.19555e-08 0.00496019 7.11272e-17 1
521 6.34966 3.7142 1.5874 -2.78251e-08 0.00529447 6.66208e-17 1
104 6.34966 4.5079 0.793701 -2.78251e-08 0.00529447 8.00573e-17 1
141 5.55598 5.26757 0.793701 -4.19555e-08 0.00496019 6.01154e-17 1
518 5.55598 4.47387 1.5874 -4.19555e-08 0.00496019 4.35053e-17 1
563 6.34966 5.3016 1.5874 -2.78251e-08 0.00529447 7.12456e-17 1
103 7.14334 3.73496 0.793701 6.63618e-09 0.00549839 9.63994e-17 1
107 8.73067 3.73496 0.793701 -6.63618e-09 0.00549839 3.92001e-17 1
525 7.93701 3.74193 1.5874 3.81701e-17 0.00556692 5.38913e-17 1
108 7.93701 4.53563 0.793701 4.33187e-17 0.00556692 6.61625e-17 1
145 7.14334 5.32236 0.793701 6.63618e-09 0.00549839 6.07753e-17 1
149 8.73067 5.32236 0.793701 -6.63618e-09 0.00549839 3.10729e-17 1
522 7.14334 4.52866 1.5874 6.63618e-09 0.00549839 6.06213e-17 1
526 8.73067 4.52866 1.5874 -6.63618e-09 0.00549839 2.57702e-17 1
567 7.93701 5.32933 1.5874 2.63396e-18 0.00556692 3.62813e-17 1
111 10.318 3.68016 0.793701 4.19555e-08 0.00496019 9.64508e-18 1
529 9.52435 3.7142 1.5874 2.78251e-08 0.00529447 2.47269e-18 1
112 9.52435 4.5079 0.793701 2.78251e-08 0.00529447 1.52013e-17 1
153 10.318 5.26757 0.793701 4.19555e-08 0.00496019 1.57307e-17 1
530 10.318 4.47387 1.5874 4.19555e-08 0.00496019 2.76912e-18 1
571 9.52435 5.3016 1.5874 2.78251e-08 0.00529447 3.87908e-18 1
533 11.1117 3.63369 1.5874 4.61418e-08 0.00450377 1.21786e-17 1
114 11.9054 4.36962 -4.49824e-16 4.67404e-08 0.00393644 1.04837e-17 1
116 11.1117 4.42739 0.793701 4.61418e-08 0.00450377 1.78318e-17 1
157 11.9054 5.16332 0.793701 4.67404e-08 0.00393644 2.05742e-17 1
534 11.9054 4.36962 1.5874 4.67404e-08 0.00393644 1.46442e-17 1
575 11.1117 5.2211 1.5874 4.61418e-08 0.00450377 1.25025e-18 1
118 13.4929 4.22609 -3.99288e-16 3.63612e-08 0.00252733 1.97638e-17 1
120 12.6991 4.30197 0.793701 4.35475e-08 0.00327218 2.28006e-17 1
159 12.6991 5.09567 -5.44147e-16 4.35475e-08 0.00327218 2.37167e-17 1
161 13.4929 5.0198 0.793701 3.63612e-08 0.00252733 3.73275e-17 1
538 13.4929 4.22609 1.5874 3.63612e-08 0.00252733 3.01916e-17 1
579 12.6991 5.09567 1.5874 4.35475e-08 0.00327218 1.85995e-17 1
122 15.0803 4.05729 3.81706e-19 1.36234e-08 0.000870843 3.39819e-17 1
124 14.2866 4.14386 0.793701 2.60341e-08 0.00172026 3.71994e-17 1
126 15.874 3.9685 0.793701 -4.21615e-17 7.28608e-17 2.83381e-17 1
163 14.2866 4.93756 -2.29959e-16 2.60341e-08 0.00172026 3.96673e-17 1
165 15.0803 4.85099 0.793701 1.36234e-08 0.000870843 3.09284e-17 1
167 15.874 4.7622 2.38519e-16 -5.05001e-17 5.75146e-17 3.82269e-17 1
542 15.0803 4.05729 1.5874 1.36234e-08 0.000870843 2.57246e-17 1
583 14.2866 4.93756 1.5874 2.60341e-08 0.00172026 2.93372e-17 1
587 15.874 4.7622 1.5874 -4.99302e-17 5.68592e-17 1.59519e-17 1
128 0.793706 5.64469 -1.35609e-16 -1.36234e-08 0.000870843 3.44924e-17 1
130 -1.01241e-16 5.5559 0.793701 8.57319e-17 -5.4931e-17 5.25872e-17 1
134 1.58742 5.73126 0.793701 -2.60341e-08 0.00172026 3.76224e-17 1
169 -3.91751e-17 6.3496 3.45274e-16 8.10352e-17 -4.01865e-17 2.7442e-17 1
171 0.793706 6.43839 0.793701 -1.36234e-08 0.000870843 4.48e-17 1
173 1.58742 6.52496 -1.81784e-16 -2.60341e-08 0.00172026 2.40142e-17 1
548 0.793706 5.64469 1.5874 -1.36234e-08 0.000870843 5.02675e-17 1
589 -2.08662e-16 6.3496 1.5874 8.92079e-17 -5.43799e-17 4.13019e-17 1
593 1.58742 6.52496 1.5874 -2.60341e-08 0.00172026 4.00318e-17 1
132 2.38114 5.8135 -2.12939e-16 -3.63612e-08 0.00252733 1.69535e-17 1
138 3.17486 5.88937 0.793701 -4.35475e-08 0.00327218 9.75776e-18 1
175 2.38114 6.6072 0.793701 -3.63612e-08 0.00252733 1.97823e-17 1
177 3.17486 6.68307 -3.97078e-16 -4.35475e-08 0.00327218 1.73537e-17 1
552 2.38114 5.8135 1.5874 -3.63612e-08 0.00252733 1.99438e-17 1
597 3.17486 6.68307 1.5874 -4.35475e-08 0.00327218 3.24151e-18 1
136 3.96858 5.95703 -5.05562e-16 -4.67404e-08 0.00393644 4.33174e-17 1
142 4.76228 6.0148 0.793701 -4.61418e-08 0.00450377 4.58985e-17 1
179 3.96858 6.75073 0.793701 -4.67404e-08 0.00393644 1.24465e-17 1
181 4.76228 6.8085 -5.05885e-16 -4.61418e-08 0.00450377 4.17563e-17 1
556 3.96858 5.95703 1.5874 -4.67404e-08 0.00393644 9.87437e-18 1
601 4.76228 6.8085 1.5874 -4.61418e-08 0.00450377 4.6712e-17 1
146 6.34966 6.0953 0.793701 -2.78251e-08 0.00529447 6.21833e-17 1
183 5.55598 6.85497 0.793701 -4.19555e-08 0.00496019 5.62316e-17 1
560 5.55598 6.06127 1.5874 -4.19555e-08 0.00496019 8.25701e-17 1
605 6.34966 6.889 1.5874 -2.78251e-08 0.00529447 9.20875e-17 1
150 7.93701 6.12303 0.793701 4.3098e-18 0.00556692 4.70182e-17 1
187 7.14334 6.90976 0.793701 6.63618e-09 0.00549839 5.0464e-17 1
191 8.73067 6.90976 0.793701 -6.63618e-09 0.00549839 3.35479e-17 1
564 7.14334 6.11606 1.5874 6.63618e-09 0.00549839 5.49128e-17 1
568 8.73067 6.11606 1.5874 -6.63618e-09 0.00549839 1.23462e-17 1
609 7.93701 6.91673 1.5874 -1.6801e-17 0.00556692 2.1602e-17 1
154 9.52435 6.0953 0.793701 2.78251e-08 0.00529447 3.04926e-17 1
195 10.318 6.85497 0.793701 4.19555e-08 0.00496019 1.74951e-17 1
572 10.318 6.06127 1.5874 4.19555e-08 0.00496019 -3.91487e-18 1
613 9.52435 6.889 1.5874 2.78251e-08 0.00529447 1.15318e-18 1
156 11.9054 5.95703 -3.93726e-16 4.67404e-08 0.00393644 3.19607e-17 1
158 11.1117 6.0148 0.793701 4.61418e-08 0.00450377 1.48647e-17 1
199 11.9054 6.75073 0.793701 4.67404e-08 0.00393644 1.93084e-17 1
576 11.9054 5.95703 1.5874 4.67404e-08 0.00393644 2.27491e-18 1
617 11.1117 6.8085 1.5874 4.61418e-08 0.00450377 -3.88423e-18 1
160 13.4929 5.8135 -4.44439e-16 3.63612e-08 0.00252733 3.60342e-17 1
162 12.6991 5.88937 0.793701 4.35475e-08 0.00327218 3.06409e-17 1
201 12.6991 6.68307 -3.75747e-16 4.35475e-08 0.00327218 3.31297e-17 1
203 13.4929 6.6072 0.793701 3.63612e-08 0.00252733 3.77153e-17 1
580 13.4929 5.8135 1.5874 3.63612e-08 0.00252733 2.79508e-17 1
621 12.6991 6.68307 1.5874 4.35475e-08 0.00327218 1.59319e-17 1
164 15.0803 5.64469 -7.666e-17 1.36234e-08 0.000870843 3.64327e-17 1
166 14.2866 5.73126 0.793701 2.60341e-08 0.00172026 3.93871e-17 1
168 15.874 5.5559 0.793701 -5.35015e-17 3.76535e-17 2.53749e-17 1
205 14.2866 6.52496 -3.16281e-16 2.60341e-08 0.00172026 3.59664e-17 1
207 15.0803 6.43839 0.793701 1.36234e-08 0.000870843 3.02366e-17 1
209 15.874 6.3496 9.00373e-17 -5.07074e-17 2.94057e-17 2.65619e-17 1
584 15.0803 5.64469 1.5874 1.36234e-08 0.000870843 2.3764e-17 1
625 14.2866 6.52496 1.5874 2.60341e-08 0.00172026 2.80026e-17 1
629 15.874 6.3496 1.5874 -7.24936e-17 1.81611e-17 1.52475e-17 1
170 0.793706 7.23209 -1.57193e-16 -1.36234e-08 0.000870843 2.96822e-17 1
172 -1.59261e-16 7.1433 0.793701 8.12302e-17 -4.88067e-17 3.60229e-17 1
176 1.58742 7.31866 0.793701 -2.60341e-08 0.00172026 4.34586e-17 1
211 -8.08013e-17 7.93701 2.32973e-16 5.86665e-17 -4.48249e-17 2.07545e-17 1
212 0.793706 8.81949 -2.28593e-16 -1.36234e-08 0.000870843 4.11259e-17 1
213 0.793706 8.02579 0.793701 -1.36234e-08 0.000870843 4.71454e-17 1
214 3.01063e-18 8.73071 0.793701 7.29412e-17 -3.67253e-17 3.49163e-17 1
215 1.58742 8.11236 -3.00575e-16 -2.60341e-08 0.00172026 3.71975e-17 1
590 0.793706 7.23209 1.5874 -1.36234e-08 0.000870843 3.82993e-17 1
631 -1.14435e-16 7.93701 1.5874 8.17129e-17 -4.45259e-17 3.23948e-17 1
632 0.793706 8.81949 1.5874 -1.36234e-08 0.000870843 3.12391e-17 1
635 1.58742 8.11236 1.5874 -2.60341e-08 0.00172026 3.26532e-17 1
174 2.38114 7.4009 -3.32519e-16 -3.63612e-08 0.00252733 1.66377e-17 1
180 3.17486 7.47677 0.793701 -4.35475e-08 0.00327218 6.32077e-18 1
217 2.38114 8.1946 0.793701 -3.63612e-08 0.00252733 2.71577e-17 1
219 3.17486 8.27047 -3.91154e-16 -4.35475e-08 0.00327218 5.56751e-18 1
594 2.38114 7.4009 1.5874 -3.63612e-08 0.00252733 2.3237e-17 1
639 3.17486 8.27047 1.5874 -4.35475e-08 0.00327218 8.76107e-18 1
178 3.96858 7.54443 -4.20689e-16 -4.67404e-08 0.00393644 1.55788e-17 1
184 4.76228 7.6022 0.793701 -4.61418e-08 0.00450377 2.45284e-17 1
221 3.96858 8.33813 0.793701 -4.67404e-08 0.00393644 -2.94818e-18 1
598 3.96858 7.54443 1.5874 -4.67404e-08 0.00393644 1.07175e-17 1
643 4.76228 8.3959 1.5874 -4.61418e-08 0.00450377 3.60999e-17 1
188 6.34966 7.6827 0.793701 -2.78251e-08 0.00529447 5.27046e-17 1
225 5.55598 8.44237 0.793701 -4.19555e-08 0.00496019 4.67956e-17 1
602 5.55598 7.64867 1.5874 -4.19555e-08 0.00496019 8.64167e-17 1
647 6.34966 8.4764 1.5874 -2.78251e-08 0.00529447 8.1498e-17 1
192 7.93701 7.71043 0.793701 -4.73448e-19 0.00556692 1.29716e-17 1
229 7.14334 8.49716 0.793701 6.63618e-09 0.00549839 1.53102e-17 1
233 8.73067 8.49716 0.793701 -6.63618e-09 0.00549839 -2.70317e-17 1
606 7.14334 7.70346 1.5874 6.63618e-09 0.00549839 4.56059e-17 1
610 8.73067 7.70346 1.5874 -6.63618e-09 0.00549839 -8.99113e-18 1
651 7.93701 8.50413 1.5874 -2.99845e-17 0.00556692 -1.35296e-17 1
196 9.52435 7.6827 0.793701 2.78251e-08 0.00529447 1.39301e-18 1
237 10.318 8.44237 0.793701 4.19555e-08 0.00496019 -2.28223e-18 1
614 10.318 7.64867 1.5874 4.19555e-08 0.00496019 -4.86715e-18 1
655 9.52435 8.4764 1.5874 2.78251e-08 0.00529447 -1.60531e-17 1
200 11.1117 7.6022 0.793701 4.61418e-08 0.00450377 1.22073e-17 1
241 11.9054 8.33813 0.793701 4.67404e-08 0.00393644 4.0487e-17 1
618 11.9054 7.54443 1.5874 4.67404e-08 0.00393644 1.14575e-17 1
659 11.1117 8.3959 1.5874 4.61418e-08 0.00450377 1.51422e-17 1
202 13.4929 7.4009 -3.75191e-16 3.63612e-08 0.00252733 4.23067e-17 1
204 12.6991 7.47677 0.793701 4.35475e-08 0.00327218 3.64235e-17 1
243 12.6991 8.27047 -3.63977e-16 4.35475e-08 0.00327218 5.21734e-17 1
245 13.4929 8.1946 0.793701 3.63612e-08 0.00252733 5.0127e-17 1
622 13.4929 7.4009 1.5874 3.63612e-08 0.00252733 2.23384e-17 1
663 12.6991 8.27047 1.5874 4.35475e-08 0.00327218 2.51525e-17 1
206 15.0803 7.23209 -1.93203e-16 1.36234e-08 0.000870843 3.06187e-17 1
208 14.2866 7.31866 0.793701 2.60341e-08 0.00172026 3.55744e-17 1
210 15.874 7.1433 0.793701 -6.90943e-17 9.44049e-18 1.52382e-17 1
247 14.2866 8.11236 -4.03196e-16 2.60341e-08 0.00172026 5.1511e-17 1
248 15.0803 8.81949 -2.73352e-16 1.36234e-08 0.000870843 4.56019e-17 1
249 15.0803 8.02579 0.793701 1.36234e-08 0.000870843 3.20298e-17 1
251 15.874 7.93701 -3.36215e-17 -7.55913e-17 3.21138e-18 2.27088e-17 1
252 15.874 8.73071 0.793701 -1.07765e-16 1.18226e-17 2.8217e-17 1
626 15.0803 7.23209 1.5874 1.36234e-08 0.000870843 2.46283e-17 1
667 14.2866 8.11236 1.5874 2.60341e-08 0.00172026 2.42957e-17 1
668 15.0803 8.81949 1.5874 1.36234e-08 0.000870843 2.41152e-17 1
671 15.874 7.93701 1.5874 -9.936e-17 1.59831e-17 2.00564e-17 1
218 1.58742 8.90606 0.793701 -2.60341e-08 0.00172026 3.86522e-17 1
253 2.31266e-18 9.52441 6.27726e-17 7.536e-17 -4.87385e-17 3.02103e-17 1
254 0.793706 10.4069 -2.16125e-16 -1.36234e-08 0.000870843 3.1395e-17 1
255 0.793706 9.61319 0.793701 -1.36234e-08 0.000870843 3.63406e-17 1
256 1.84137e-17 10.3181 0.793701 9.3743e-17 -4.987e-17 4.41586e-17 1
257 1.58742 9.69976 -3.16691e-16 -2.60341e-08 0.00172026 3.36084e-17 1
260 1.58742 10.4935 0.793701 -2.60341e-08 0.00172026 1.83316e-17 1
673 1.05479e-16 9.52441 1.5874 7.74249e-17 -3.59561e-17 3.33974e-17 1
674 0.793706 10.4069 1.5874 -1.36234e-08 0.000870843 2.73109e-17 1
677 1.58742 9.69976 1.5874 -2.60341e-08 0.00172026 1.93372e-17 1
216 2.38114 8.9883 -3.0997e-16 -3.63612e-08 0.00252733 1.80334e-17 1
222 3.17486 9.06417 0.793701 -4.35475e-08 0.00327218 -5.7117e-18 1
636 2.38114 8.9883 1.5874 -3.63612e-08 0.00252733 1.78386e-17 1
258 2.38114 10.5757 -4.84796e-16 -3.63612e-08 0.00252733 1.02547e-17 1
259 2.38114 9.782 0.793701 -3.63612e-08 0.00252733 7.90883e-18 1
261 3.17486 9.85787 -4.88461e-16 -4.35475e-08 0.00327218 1.78968e-18 1
678 2.38114 10.5757 1.5874 -3.63612e-08 0.00252733 9.55495e-18 1
681 3.17486 9.85787 1.5874 -4.35475e-08 0.00327218 -1.68122e-18 1
220 3.96858 9.13183 -3.11398e-16 -4.67404e-08 0.00393644 1.86522e-18 1
226 4.76228 9.1896 0.793701 -4.61418e-08 0.00450377 9.95762e-18 1
640 3.96858 9.13183 1.5874 -4.67404e-08 0.00393644 -7.59644e-19 1
263 3.96858 9.92553 0.793701 -4.67404e-08 0.00393644 -1.49156e-17 1
685 4.76228 9.9833 1.5874 -4.61418e-08 0.00450377 -5.12446e-18 1
230 6.34966 9.2701 0.793701 -2.78251e-08 0.00529447 3.58146e-17 1
644 5.55598 9.23607 1.5874 -4.19555e-08 0.00496019 5.85528e-17 1
267 5.55598 10.0298 0.793701 -4.19555e-08 0.00496019 1.90471e-17 1
689 6.34966 10.0638 1.5874 -2.78251e-08 0.00529447 3.4232e-17 1
234 7.93701 9.29784 0.793701 -7.22806e-18 0.00556692 -1.90022e-17 1
648 7.14334 9.29086 1.5874 6.63618e-09 0.00549839 1.70706e-17 1
652 8.73067 9.29086 1.5874 -6.63618e-09 0.00549839 -3.19466e-17 1
271 7.14334 10.0846 0.793701 6.63618e-09 0.00549839 2.51099e-18 1
275 8.73067 10.0846 0.793701 -6.63618e-09 0.00549839 -2.84429e-17 1
693 7.93701 10.0915 1.5874 -2.373e-17 0.00556692 -2.17505e-17 1
238 9.52435 9.2701 0.793701 2.78251e-08 0.00529447 -2.70362e-17 1
656 10.318 9.23607 1.5874 4.19555e-08 0.00496019 1.32923e-18 1
279 10.318 10.0298 0.793701 4.19555e-08 0.00496019 -3.70985e-18 1
697 9.52435 10.0638 1.5874 2.78251e-08 0.00529447 -1.9494e-17 1
240 11.9054 9.13183 -4.43154e-16 4.67404e-08 0.00393644 4.86187e-17 1
242 11.1117 9.1896 0.793701 4.61418e-08 0.00450377 3.22117e-17 1
660 11.9054 9.13183 1.5874 4.67404e-08 0.00393644 3.10921e-17 1
283 11.9054 9.92553 0.793701 4.67404e-08 0.00393644 4.47812e-17 1
701 11.1117 9.9833 1.5874 4.61418e-08 0.00450377 1.73595e-17 1
244 13.4929 8.9883 -4.30147e-16 3.63612e-08 0.00252733 7.55083e-17 1
246 12.6991 9.06417 0.793701 4.35475e-08 0.00327218 5.56237e-17 1
664 13.4929 8.9883 1.5874 3.63612e-08 0.00252733 2.45597e-17 1
285 12.6991 9.85787 -4.35636e-16 4.35475e-08 0.00327218 6.18954e-17 1
286 13.4929 10.5757 -4.0404e-16 3.63612e-08 0.00252733 5.58849e-17 1
287 13.4929 9.782 0.793701 3.63612e-08 0.00252733 5.37994e-17 1
705 12.6991 9.85787 1.5874 4.35475e-08 0.00327218 2.26688e-17 1
706 13.4929 10.5757 1.5874 3.63612e-08 0.00252733 1.09149e-17 1
250 14.2866 8.90606 0.793701 2.60341e-08 0.00172026 5.4767e-17 1
289 14.2866 9.69976 -3.42445e-16 2.60341e-08 0.00172026 7.19913e-17 1
290 15.0803 10.4069 -2.17961e-16 1.36234e-08 0.000870843 5.90774e-17 1
291 15.0803 9.61319 0.793701 1.36234e-08 0.000870843 4.61724e-17 1
292 14.2866 10.4935 0.793701 2.60341e-08 0.00172026 4.8134e-17 1
293 15.874 9.52441 -1.06586e-16 -1.10343e-16 -2.78024e-19 3.9536e-17 1
294 15.874 10.3181 0.793701 -1.17508e-16 3.95684e-18 4.07522e-17 1
709 14.2866 9.69976 1.5874 2.60341e-08 0.00172026 1.719e-17 1
710 15.0803 10.4069 1.5874 1.36234e-08 0.000870843 1.65714e-17 1
713 15.874 9.52441 1.5874 -1.1902e-16 1.11142e-17 2.35587e-17 1
295 -4.66338e-17 11.1118 -6.9167e-17 1.14824e-16 -5.73257e-17 3.24966e-17 1
296 0.793706 11.9943 -1.63163e-16 -1.36234e-08 0.000870843 2.88144e-17 1
297 0.793706 11.2006 0.793701 -1.36234e-08 0.000870843 2.59502e-17 1
298 1.18096e-17 11.9055 0.793701 9.51513e-17 -8.0359e-17 3.67336e-17 1
299 1.58742 11.2872 -3.02829e-16 -2.60341e-08 0.00172026 1.92191e-17 1
302 1.58742 12.0809 0.793701 -2.60341e-08 0.00172026 2.12806e-17 1
715 -7.49366e-18 11.1118 1.5874 8.43691e-17 -6.49526e-17 4.42796e-17 1
716 0.793706 11.9943 1.5874 -1.36234e-08 0.000870843 3.23887e-17 1
719 1.58742 11.2872 1.5874 -2.60341e-08 0.00172026 1.80528e-17 1
264 3.17486 10.6516 0.793701 -4.35475e-08 0.00327218 -2.98058e-18 1
300 2.38114 12.1631 -3.86894e-16 -3.63612e-08 0.00252733 1.41575e-17 1
301 2.38114 11.3694 0.793701 -3.63612e-08 0.00252733 1.1436e-17 1
303 3.17486 11.4453 -4.81937e-16 -4.35475e-08 0.00327218 7.78176e-18 1
306 3.17486 12.239 0.793701 -4.35475e-08 0.00327218 5.70514e-18 1
720 2.38114 12.1631 1.5874 -3.63612e-08 0.00252733 1.18865e-17 1
723 3.17486 11.4453 1.5874 -4.35475e-08 0.00327218 1.67456e-18 1
262 3.96858 10.7192 -4.82919e-16 -4.67404e-08 0.00393644 1.10953e-17 1
268 4.76228 10.777 0.793701 -4.61418e-08 0.00450377 -3.72189e-18 1
682 3.96858 10.7192 1.5874 -4.67404e-08 0.00393644 -2.04813e-17 1
305 3.96858 11.5129 0.793701 -4.67404e-08 0.00393644 -1.7896e-18 1
310 4.76228 12.3644 0.793701 -4.61418e-08 0.00450377 -1.19934e-17 1
724 3.96858 12.3066 1.5874 -4.67404e-08 0.00393644 -6.71126e-18 1
727 4.76228 11.5707 1.5874 -4.61418e-08 0.00450377 -1.62227e-17 1
272 6.34966 10.8575 0.793701 -2.78251e-08 0.00529447 1.13869e-18 1
686 5.55598 10.8235 1.5874 -4.19555e-08 0.00496019 1.66332e-18 1
309 5.55598 11.6172 0.793701 -4.19555e-08 0.00496019 -3.62442e-18 1
314 6.34966 12.4449 0.793701 -2.78251e-08 0.00529447 -2.00217e-17 1
728 5.55598 12.4109 1.5874 -4.19555e-08 0.00496019 -1.55133e-17 1
731 6.34966 11.6512 1.5874 -2.78251e-08 0.00529447 -3.55489e-18 1
276 7.93701 10.8852 0.793701 2.61647e-18 0.00556692 -1.38944e-17 1
690 7.14334 10.8783 1.5874 6.63618e-09 0.00549839 -2.14113e-18 1
694 8.73067 10.8783 1.5874 -6.63618e-09 0.00549839 -2.37171e-17 1
313 7.14334 11.672 0.793701 6.63618e-09 0.00549839 -1.68705e-17 1
317 8.73067 11.672 0.793701 -6.63618e-09 0.00549839 -2.28239e-17 1
735 7.93701 11.6789 1.5874 1.08424e-17 0.00556692 -1.57819e-17 1
280 9.52435 10.8575 0.793701 2.78251e-08 0.00529447 -2.51231e-17 1
698 10.318 10.8235 1.5874 4.19555e-08 0.00496019 -8.5259e-18 1
321 10.318 11.6172 0.793701 4.19555e-08 0.00496019 -2.65496e-17 1
322 9.52435 12.4449 0.793701 2.78251e-08 0.00529447 -3.79384e-17 1
739 9.52435 11.6512 1.5874 2.78251e-08 0.00529447 -2.07549e-17 1
740 10.318 12.4109 1.5874 4.19555e-08 0.00496019 -2.1862e-17 1
282 11.9054 10.7192 -5.6494e-16 4.67404e-08 0.00393644 3.19092e-17 1
284 11.1117 10.777 0.793701 4.61418e-08 0.00450377 1.26155e-17 1
702 11.9054 10.7192 1.5874 4.67404e-08 0.00393644 1.41812e-17 1
324 11.9054 12.3066 -6.17711e-16 4.67404e-08 0.00393644 -3.2375e-18 1
325 11.9054 11.5129 0.793701 4.67404e-08 0.00393644 7.29654e-18 1
326 11.1117 12.3644 0.793701 4.61418e-08 0.00450377 -1.97313e-17 1
743 11.1117 11.5707 1.5874 4.61418e-08 0.00450377 -5.57322e-18 1
744 11.9054 12.3066 1.5874 4.67404e-08 0.00393644 -6.95087e-19 1
288 12.6991 10.6516 0.793701 4.35475e-08 0.00327218 2.89247e-17 1
327 12.6991 11.4453 -5.15238e-16 4.35475e-08 0.00327218 1.84392e-17 1
328 13.4929 12.1631 -4.02401e-16 3.63612e-08 0.00252733 2.67683e-17 1
329 13.4929 11.3694 0.793701 3.63612e-08 0.00252733 2.66287e-17 1
330 12.6991 12.239 0.793701 4.35475e-08 0.00327218 8.88943e-18 1
747 12.6991 11.4453 1.5874 4.35475e-08 0.00327218 9.39132e-18 1
748 13.4929 12.1631 1.5874 3.63612e-08 0.00252733 1.6453e-17 1
331 14.2866 11.2872 -2.81702e-16 2.60341e-08 0.00172026 5.64854e-17 1
332 15.0803 11.9943 -1.00918e-16 1.36234e-08 0.000870843 7.34478e-17 1
333 15.0803 11.2006 0.793701 1.36234e-08 0.000870843 4.34005e-17 1
334 14.2866 12.0809 0.793701 2.60341e-08 0.00172026 4.05777e-17 1
335 15.874 11.1118 -1.1815e-17 -1.11448e-16 -8.29143e-18 6.24908e-17 1
336 15.874 11.9055 0.793701 -1.00634e-16 -5.328e-18 5.25911e-17 1
751 14.2866 11.2872 1.5874 2.60341e-08 0.00172026 1.66259e-17 1
752 15.0803 11.9943 1.5874 1.36234e-08 0.000870843 3.01708e-17 1
755 15.874 11.1118 1.5874 -1.03864e-16 4.49199e-18 2.78511e-17 1
337 1.40285e-17 12.6992 -1.06199e-17 7.62139e-17 -9.33774e-17 3.45406e-17 1
338 0.793706 13.5817 -1.43403e-16 -1.36234e-08 0.000870843 3.42284e-17 1
339 0.793706 12.788 0.793701 -1.36234e-08 0.000870843 3.61368e-17 1
340 3.64254e-17 13.4929 0.793701 6.10525e-17 -7.86539e-17 4.75756e-17 1
341 1.58742 12.8746 -2.54248e-16 -2.60341e-08 0.00172026 2.47883e-17 1
344 1.58742 13.6683 0.793701 -2.60341e-08 0.00172026 2.76156e-17 1
757 4.92898e-17 12.6992 1.5874 6.56956e-17 -8.18752e-17 4.8622e-17 1
758 0.793706 13.5817 1.5874 -1.36234e-08 0.000870843 4.52994e-17 1
761 1.58742 12.8746 1.5874 -2.60341e-08 0.00172026 2.68595e-17 1
342 2.38114 13.7505 -4.30517e-16 -3.63612e-08 0.00252733 1.3463e-17 1
343 2.38114 12.9568 0.793701 -3.63612e-08 0.00252733 1.05467e-17 1
345 3.17486 13.0327 -5.00604e-16 -4.35475e-08 0.00327218 4.44484e-18 1
348 3.17486 13.8264 0.793701 -4.35475e-08 0.00327218 -1.48888e-17 1
762 2.38114 13.7505 1.5874 -3.63612e-08 0.00252733 -2.64913e-19 1
765 3.17486 13.0327 1.5874 -4.35475e-08 0.00327218 -6.51559e-18 1
346 3.96858 13.894 -5.78471e-16 -4.67404e-08 0.00393644 -1.60795e-17 1
347 3.96858 13.1003 0.793701 -4.67404e-08 0.00393644 -1.39746e-17 1
349 4.76228 13.1581 -6.43798e-16 -4.61418e-08 0.00450377 -1.47383e-17 1
352 4.76228 13.9518 0.793701 -4.61418e-08 0.00450377 -3.55825e-17 1