ITEM: TIMESTEP
1000
ITEM: NUMBER OF ATOMS
8000
ITEM: BOX BOUNDS pp pp pp
0.0000000000000000e+00 3.1748021039364001e+01
0.0000000000000000e+00 1.5874010519682001e+01
0.0000000000000000e+00 1.5874010519682001e+01
ITEM: ATOMS id x y z vx vy vz c_rho_peratom
1 -2.68485e-18 2.86868e-17 -9.48421e-20 -3.6972e-19 -1.37558e-18 -3.6312e-20 1
2 0.793701 0.801371 -6.22276e-17 6.14935e-08 0.00150444 -2.26055e-21 1
3 0.793701 0.00767089 0.793701 6.14935e-08 0.00150444 -1.72365e-20 1
4 -1.27746e-18 0.793701 0.793701 9.40633e-20 1.2965e-18 -8.83747e-21 1
5 1.5874 0.0151527 -1.21719e-16 1.17842e-07 0.00297183 3.52492e-20 1
8 1.5874 0.808853 0.793701 1.17842e-07 0.00297183 1.44086e-20 1
43 -6.48433e-19 1.5874 -2.5485e-21 3.87548e-19 4.48697e-18 -3.78007e-21 1
45 0.793701 1.59507 0.793701 6.14935e-08 0.00150444 1.28555e-21 1
47 1.5874 1.60255 -1.2224e-16 1.17842e-07 0.00297183 -6.25643e-21 1
421 -2.61498e-18 2.8859e-17 1.5874 -3.55763e-19 -1.28824e-18 -1.2609e-20 1
422 0.793701 0.801371 1.5874 6.14935e-08 0.00150444 -1.16567e-22 1
425 1.5874 0.0151527 1.5874 1.17842e-07 0.00297183 6.68615e-21 1
463 -6.4164e-19 1.5874 1.5874 3.9108e-19 4.4911e-18 2.59822e-22 1
467 1.5874 1.60255 1.5874 1.17842e-07 0.00297183 3.36441e-21 1
6 2.3811 0.815962 -1.78119e-16 1.63599e-07 0.00436604 9.10727e-20 1
7 2.3811 0.0222613 0.793701 1.63599e-07 0.00436604 9.52425e-20 1
9 3.1748 0.0288216 -2.29092e-16 1.93156e-07 0.00565275 4.78294e-19 1
12 3.1748 0.822522 0.793701 1.93156e-07 0.00565275 1.40151e-19 1
49 2.3811 1.60966 0.793701 1.63599e-07 0.00436604 7.71519e-21 1
51 3.1748 1.61622 -2.30047e-16 1.93156e-07 0.00565275 7.33331e-20 1
426 2.3811 0.815962 1.5874 1.63599e-07 0.00436604 2.25859e-20 1
429 3.1748 0.0288216 1.5874 1.93156e-07 0.00565275 4.49847e-20 1
471 3.1748 1.61622 1.5874 1.93156e-07 0.00565275 2.57286e-20 1
10 3.9685 0.828373 -2.75074e-16 2.01384e-07 0.00680027 4.88091e-19 1
11 3.9685 0.0346721 0.793701 2.01384e-07 0.00680027 3.48676e-19 1
13 4.7622 0.0396688 -3.16082e-16 1.84914e-07 0.00778035 4.88517e-19 1
16 4.7622 0.833369 0.793701 1.84914e-07 0.00778035 1.4925e-19 1
53 3.9685 1.62207 0.793701 2.01384e-07 0.00680027 7.46745e-20 1
55 4.7622 1.62707 -3.14682e-16 1.84914e-07 0.00778035 9.16277e-20 1
430 3.9685 0.828373 1.5874 2.01384e-07 0.00680027 6.01487e-20 1
433 4.7622 0.0396688 1.5874 1.84914e-07 0.00778035 6.18463e-20 1
475 4.7622 1.62707 1.5874 1.84914e-07 0.00778035 1.56153e-20 1
14 5.5559 0.837389 -3.4811e-16 1.46713e-07 0.00856884 8.9228e-20 1
15 5.5559 0.0436888 0.793701 1.46713e-07 0.00856884 7.551e-20 1
17 6.3496 0.046633 -3.67595e-16 1.06445e-07 0.00914635 2.51084e-20 1
20 6.3496 0.840334 0.793701 1.06445e-07 0.00914635 1.45494e-20 1
57 5.5559 1.63109 0.793701 1.46713e-07 0.00856884 2.30222e-20 1
59 6.3496 1.63403 -3.67663e-16 1.06445e-07 0.00914635 9.36624e-21 1
434 5.5559 0.837389 1.5874 1.46713e-07 0.00856884 1.86834e-20 1
437 6.3496 0.046633 1.5874 1.06445e-07 0.00914635 8.53656e-21 1
479 6.3496 1.63403 1.5874 1.06445e-07 0.00914635 2.57944e-21 1
18 7.14331 0.84213 -3.796e-16 8.97443e-08 0.00949864 3.59029e-21 1
19 7.14331 0.0484291 0.793701 8.97443e-08 0.00949864 4.23936e-21 1
21 7.93701 0.0490327 -3.8561e-16 -4.4301e-20 0.00961704 -8.62939e-22 1
22 8.73071 0.84213 -3.79488e-16 -8.97443e-08 0.00949864 -3.48591e-21 1
23 8.73071 0.0484291 0.793701 -8.97443e-08 0.00949864 6.11601e-22 1
24 7.93701 0.842733 0.793701 -2.36398e-20 0.00961704 1.7875e-22 1
61 7.14331 1.63583 0.793701 8.97443e-08 0.00949864 1.72493e-21 1
63 7.93701 1.63643 -3.86148e-16 -4.37474e-20 0.00961704 -2.03501e-21 1
65 8.73071 1.63583 0.793701 -8.97443e-08 0.00949864 2.55386e-22 1
438 7.14331 0.84213 1.5874 8.97443e-08 0.00949864 1.26701e-21 1
441 7.93701 0.0490327 1.5874 -4.59255e-20 0.00961704 4.95984e-22 1
442 8.73071 0.84213 1.5874 -8.97443e-08 0.00949864 2.90851e-21 1
483 7.93701 1.63643 1.5874 -4.32804e-20 0.00961704 1.22442e-21 1
25 9.52441 0.046633 -3.66746e-16 -1.06445e-07 0.00914635 5.62178e-22 1
26 10.3181 0.837389 -3.4788e-16 -1.46713e-07 0.00856884 1.00795e-21 1
27 10.3181 0.0436888 0.793701 -1.46713e-07 0.00856884 1.7191e-21 1
28 9.52441 0.840334 0.793701 -1.06445e-07 0.00914635 1.11967e-21 1
67 9.52441 1.63403 -3.66737e-16 -1.06445e-07 0.00914635 1.76707e-22 1
69 10.3181 1.63109 0.793701 -1.46713e-07 0.00856884 6.69046e-22 1
445 9.52441 0.046633 1.5874 -1.06445e-07 0.00914635 1.72594e-22 1
446 10.3181 0.837389 1.5874 -1.46713e-07 0.00856884 6.42536e-22 1
487 9.52441 1.63403 1.5874 -1.06445e-07 0.00914635 1.25141e-21 1
29 11.1118 0.0396688 -3.15305e-16 -1.84914e-07 0.00778035 1.57389e-21 1
30 11.9055 0.828373 -2.76405e-16 -2.01384e-07 0.00680027 1.3948e-21 1
31 11.9055 0.0346721 0.793701 -2.01384e-07 0.00680027 1.33123e-21 1
32 11.1118 0.833369 0.793701 -1.84914e-07 0.00778035 -2.35088e-22 1
71 11.1118 1.62707 -3.13622e-16 -1.84914e-07 0.00778035 1.41744e-21 1
73 11.9055 1.62207 0.793701 -2.01384e-07 0.00680027 -9.64822e-22 1
449 11.1118 0.0396688 1.5874 -1.84914e-07 0.00778035 5.47893e-22 1
450 11.9055 0.828373 1.5874 -2.01384e-07 0.00680027 -2.26611e-21 1
491 11.1118 1.62707 1.5874 -1.84914e-07 0.00778035 -2.27491e-21 1
33 12.6992 0.0288216 -2.30087e-16 -1.93156e-07 0.00565275 6.55109e-22 1
34 13.4929 0.815962 -1.77935e-16 -1.63599e-07 0.00436604 -6.10303e-22 1
35 13.4929 0.0222613 0.793701 -1.63599e-07 0.00436604 1.35271e-21 1
36 12.6992 0.822522 0.793701 -1.93156e-07 0.00565275 -4.74832e-22 1
75 12.6992 1.61622 -2.2904e-16 -1.93156e-07 0.00565275 1.92505e-21 1
77 13.4929 1.60966 0.793701 -1.63599e-07 0.00436604 -8.07651e-21 1
453 12.6992 0.0288216 1.5874 -1.93156e-07 0.00565275 -2.59486e-22 1
454 13.4929 0.815962 1.5874 -1.63599e-07 0.00436604 -3.51776e-21 1
495 12.6992 1.61622 1.5874 -1.93156e-07 0.00565275 -1.43525e-20 1
37 14.2866 0.0151527 -1.21183e-16 -1.17842e-07 0.00297183 6.87435e-21 1
38 15.0803 0.801371 -6.19514e-17 -6.14935e-08 0.00150444 6.02872e-21 1
39 15.0803 0.00767089 0.793701 -6.14935e-08 0.00150444 -4.65186e-21 1
40 14.2866 0.808853 0.793701 -1.17842e-07 0.00297183 2.46705e-21 1
41 15.874 1.2648e-16 1.51842e-20 2.02564e-19 2.66769e-17 1.4992e-20 1
42 15.874 0.793701 0.793701 -1.65579e-20 2.94962e-17 1.79921e-20 1
79 14.2866 1.60255 -1.21881e-16 -1.17842e-07 0.00297183 3.4276e-21 1
81 15.0803 1.59507 0.793701 -6.14935e-08 0.00150444 4.28777e-21 1
83 15.874 1.5874 1.49136e-20 -2.81796e-19 3.28308e-17 1.47885e-20 1
457 14.2866 0.0151527 1.5874 -1.17842e-07 0.00297183 -4.92069e-21 1
458 15.0803 0.801371 1.5874 -6.14935e-08 0.00150444 -5.65858e-22 1
461 15.874 1.26593e-16 1.5874 2.37291e-19 2.67545e-17 -2.86475e-21 1
499 14.2866 1.60255 1.5874 -1.17842e-07 0.00297183 -2.12085e-20 1
503 15.874 1.5874 1.5874 -2.30784e-19 3.28428e-17 7.6284e-22 1
44 0.793701 2.38877 -6.28784e-17 6.14935e-08 0.00150444 2.11044e-21 1
46 -4.07838e-19 2.3811 0.793701 5.08631e-19 6.08569e-18 2.17913e-21 1
50 1.5874 2.39625 0.793701 1.17842e-07 0.00297183 -1.40938e-20 1
85 -7.09473e-19 3.1748 1.52481e-20 3.60898e-19 3.4622e-18 5.24487e-21 1
87 0.793701 3.18247 0.793701 6.14935e-08 0.00150444 2.84261e-21 1
89 1.5874 3.18995 -1.24107e-16 1.17842e-07 0.00297183 4.02853e-21 1
464 0.793701 2.38877 1.5874 6.14935e-08 0.00150444 -3.68468e-21 1
505 -7.08752e-19 3.1748 1.5874 3.61901e-19 3.43645e-18 -8.79868e-22 1
509 1.5874 3.18995 1.5874 1.17842e-07 0.00297183 7.55629e-22 1
48 2.3811 2.40336 -1.78579e-16 1.63599e-07 0.00436604 1.18949e-20 1
54 3.1748 2.40992 0.793701 1.93156e-07 0.00565275 2.11138e-20 1
91 2.3811 3.19706 0.793701 1.63599e-07 0.00436604 -4.49389e-21 1
93 3.1748 3.20362 -2.33337e-16 1.93156e-07 0.00565275 5.92338e-21 1
468 2.3811 2.40336 1.5874 1.63599e-07 0.00436604 4.28814e-21 1
513 3.1748 3.20362 1.5874 1.93156e-07 0.00565275 1.45264e-21 1
52 3.9685 2.41577 -2.77975e-16 2.01384e-07 0.00680027 2.60379e-20 1
58 4.7622 2.42077 0.793701 1.84914e-07 0.00778035 1.51442e-20 1
95 3.9685 3.20947 0.793701 2.01384e-07 0.00680027 5.33377e-21 1
97 4.7622 3.21447 -3.19139e-16 1.84914e-07 0.00778035 4.53928e-21 1
472 3.9685 2.41577 1.5874 2.01384e-07 0.00680027 8.80453e-21 1
517 4.7622 3.21447 1.5874 1.84914e-07 0.00778035 1.72457e-21 1
56 5.5559 2.42479 -3.47724e-16 1.46713e-07 0.00856884 1.00005e-20 1
62 6.3496 2.42773 0.793701 1.06445e-07 0.00914635 2.83205e-21 1
99 5.5559 3.21849 0.793701 1.46713e-07 0.00856884 2.48908e-21 1
101 6.3496 3.22144 -3.73086e-16 1.06445e-07 0.00914635 2.11654e-21 1
476 5.5559 2.42479 1.5874 1.46713e-07 0.00856884 2.48467e-21 1
521 6.3496 3.22144 1.5874 1.06445e-07 0.00914635 -9.8731e-22 1
60 7.14331 2.42953 -3.85437e-16 8.97443e-08 0.00949864 1.26254e-21 1
64 8.73071 2.42953 -3.85829e-16 -8.97443e-08 0.00949864 3.9284e-21 1
66 7.93701 2.43013 0.793701 -2.24023e-20 0.00961704 -4.88603e-21 1
103 7.14331 3.22323 0.793701 8.97443e-08 0.00949864 -2.7983e-21 1
105 7.93701 3.22383 -3.91644e-16 2.3016e-20 0.00961704 1.70881e-21 1
107 8.73071 3.22323 0.793701 -8.97443e-08 0.00949864 1.4741e-21 1
480 7.14331 2.42953 1.5874 8.97443e-08 0.00949864 -5.67384e-22 1
484 8.73071 2.42953 1.5874 -8.97443e-08 0.00949864 -3.73041e-22 1
525 7.93701 3.22383 1.5874 -4.42029e-20 0.00961704 -4.52746e-21 1
68 10.3181 2.42479 -3.47053e-16 -1.46713e-07 0.00856884 1.59674e-21 1
70 9.52441 2.42773 0.793701 -1.06445e-07 0.00914635 1.15498e-21 1
109 9.52441 3.22144 -3.73127e-16 -1.06445e-07 0.00914635 1.1972e-21 1
111 10.3181 3.21849 0.793701 -1.46713e-07 0.00856884 -6.04807e-22 1
488 10.3181 2.42479 1.5874 -1.46713e-07 0.00856884 -9.59404e-22 1
529 9.52441 3.22144 1.5874 -1.06445e-07 0.00914635 -1.78248e-21 1
72 11.9055 2.41577 -2.7686e-16 -2.01384e-07 0.00680027 2.25424e-21 1
74 11.1118 2.42077 0.793701 -1.84914e-07 0.00778035 7.15993e-22 1
113 11.1118 3.21447 -3.19086e-16 -1.84914e-07 0.00778035 3.14289e-21 1
115 11.9055 3.20947 0.793701 -2.01384e-07 0.00680027 -3.53606e-21 1
492 11.9055 2.41577 1.5874 -2.01384e-07 0.00680027 -4.11013e-21 1
533 11.1118 3.21447 1.5874 -1.84914e-07 0.00778035 -2.2193e-20 1
76 13.4929 2.40336 -1.7845e-16 -1.63599e-07 0.00436604 5.01121e-21 1
78 12.6992 2.40992 0.793701 -1.93156e-07 0.00565275 4.75771e-21 1
117 12.6992 3.20362 -2.33112e-16 -1.93156e-07 0.00565275 3.76124e-21 1
119 13.4929 3.19706 0.793701 -1.63599e-07 0.00436604 1.0172e-20 1
496 13.4929 2.40336 1.5874 -1.63599e-07 0.00436604 1.86487e-21 1
537 12.6992 3.20362 1.5874 -1.93156e-07 0.00565275 -8.55016e-21 1
80 15.0803 2.38877 -6.25993e-17 -6.14935e-08 0.00150444 3.47976e-21 1
82 14.2866 2.39625 0.793701 -1.17842e-07 0.00297183 -3.38089e-21 1
84 15.874 2.3811 0.793701 -3.22381e-19 3.45989e-17 1.15976e-20 1
121 14.2866 3.18995 -1.23869e-16 -1.17842e-07 0.00297183 2.30909e-21 1
123 15.0803 3.18247 0.793701 -6.14935e-08 0.00150444 1.49098e-21 1
125 15.874 3.1748 9.89617e-21 -7.17657e-20 3.21123e-17 1.6058e-21 1
500 15.0803 2.38877 1.5874 -6.14935e-08 0.00150444 5.78464e-22 1
541 14.2866 3.18995 1.5874 -1.17842e-07 0.00297183 1.18489e-20 1
545 15.874 3.1748 1.5874 -6.26305e-20 3.21027e-17 1.86331e-21 1
86 0.793701 3.97617 -6.28911e-17 6.14935e-08 0.00150444 2.55359e-21 1
88 -1.16311e-18 3.9685 0.793701 1.23089e-19 -6.67462e-19 3.11837e-21 1
92 1.5874 3.98366 0.793701 1.17842e-07 0.00297183 1.93355e-20 1
127 -1.14719e-18 4.7622 4.41756e-21 1.25382e-19 -8.39444e-19 1.12524e-21 1
129 0.793701 4.76987 0.793701 6.14935e-08 0.00150444 2.52652e-21 1
131 1.5874 4.77736 -1.21334e-16 1.17842e-07 0.00297183 -1.66468e-20 1
506 0.793701 3.97617 1.5874 6.14935e-08 0.00150444 5.71954e-21 1
547 -1.15873e-18 4.7622 1.5874 1.25202e-19 -8.42832e-19 2.22227e-22 1
551 1.5874 4.77736 1.5874 1.17842e-07 0.00297183 1.83399e-20 1
90 2.3811 3.99076 -1.79e-16 1.63599e-07 0.00436604 1.36863e-21 1
96 3.1748 3.99732 0.793701 1.93156e-07 0.00565275 -2.32045e-21 1
133 2.3811 4.78446 0.793701 1.63599e-07 0.00436604 4.87348e-21 1
135 3.1748 4.79102 -2.28218e-16 1.93156e-07 0.00565275 2.0111e-21 1
510 2.3811 3.99076 1.5874 1.63599e-07 0.00436604 -4.21816e-22 1
555 3.1748 4.79102 1.5874 1.93156e-07 0.00565275 6.18355e-21 1
94 3.9685 4.00317 -2.75789e-16 2.01384e-07 0.00680027 2.57611e-21 1
100 4.7622 4.00817 0.793701 1.84914e-07 0.00778035 2.22766e-21 1
137 3.9685 4.79688 0.793701 2.01384e-07 0.00680027 4.4419e-21 1
139 4.7622 4.80187 -3.11714e-16 1.84914e-07 0.00778035 5.52072e-21 1
514 3.9685 4.00317 1.5874 2.01384e-07 0.00680027 5.08593e-22 1
559 4.7622 4.80187 1.5874 1.84914e-07 0.00778035 2.69523e-21 1
98 5.5559 4.01219 -3.48099e-16 1.46713e-07 0.00856884 4.38052e-21 1
104 6.3496 4.01514 0.793701 1.06445e-07 0.00914635 1.62384e-21 1
141 5.5559 4.80589 0.793701 1.46713e-07 0.00856884 4.99978e-21 1
143 6.3496 4.80884 -3.65143e-16 1.06445e-07 0.00914635 2.64525e-21 1
518 5.5559 4.01219 1.5874 1.46713e-07 0.00856884 2.55271e-23 1
563 6.3496 4.80884 1.5874 1.06445e-07 0.00914635 -2.18303e-22 1
102 7.14331 4.01693 -3.82105e-16 8.97443e-08 0.00949864 6.75533e-22 1
106 8.73071 4.01693 -3.82114e-16 -8.97443e-08 0.00949864 6.69344e-22 1
108 7.93701 4.01754 0.793701 -5.66229e-20 0.00961704 5.88786e-21 1
145 7.14331 4.81063 0.793701 8.97443e-08 0.00949864 3.54341e-21 1
147 7.93701 4.81124 -3.84449e-16 -5.2699e-20 0.00961704 1.26406e-21 1
149 8.73071 4.81063 0.793701 -8.97443e-08 0.00949864 1.09174e-21 1
522 7.14331 4.01693 1.5874 8.97443e-08 0.00949864 3.52807e-22 1
526 8.73071 4.01693 1.5874 -8.97443e-08 0.00949864 -8.99857e-22 1
567 7.93701 4.81124 1.5874 -3.9229e-20 0.00961704 9.64991e-22 1
110 10.3181 4.01219 -3.4764e-16 -1.46713e-07 0.00856884 -1.38003e-21 1
112 9.52441 4.01514 0.793701 -1.06445e-07 0.00914635 -6.70914e-23 1
151 9.52441 4.80884 -3.6494e-16 -1.06445e-07 0.00914635 8.14705e-22 1
153 10.3181 4.80589 0.793701 -1.46713e-07 0.00856884 -2.25121e-20 1
530 10.3181 4.01219 1.5874 -1.46713e-07 0.00856884 -3.71024e-20 1
571 9.52441 4.80884 1.5874 -1.06445e-07 0.00914635 -1.36544e-20 1
114 11.9055 4.00317 -2.76542e-16 -2.01384e-07 0.00680027 4.53908e-21 1
116 11.1118 4.00817 0.793701 -1.84914e-07 0.00778035 -2.4159e-20 1
155 11.1118 4.80187 -3.11491e-16 -1.84914e-07 0.00778035 5.80914e-22 1
157 11.9055 4.79688 0.793701 -2.01384e-07 0.00680027 -1.12004e-19 1
534 11.9055 4.00317 1.5874 -2.01384e-07 0.00680027 -1.41319e-19 1
575 11.1118 4.80187 1.5874 -1.84914e-07 0.00778035 -2.42505e-19 1
118 13.4929 3.99076 -1.78587e-16 -1.63599e-07 0.00436604 2.09291e-21 1
120 12.6992 3.99732 0.793701 -1.93156e-07 0.00565275 -2.11479e-20 1
159 12.6992 4.79102 -2.27953e-16 -1.93156e-07 0.00565275 2.84542e-21 1
161 13.4929 4.78446 0.793701 -1.63599e-07 0.00436604 -6.84604e-20 1
538 13.4929 3.99076 1.5874 -1.63599e-07 0.00436604 -1.01684e-19 1
579 12.6992 4.79102 1.5874 -1.93156e-07 0.00565275 -4.58339e-19 1
122 15.0803 3.97617 -6.26558e-17 -6.14935e-08 0.00150444 5.16111e-22 1
124 14.2866 3.98366 0.793701 -1.17842e-07 0.00297183 -1.89302e-21 1
126 15.874 3.9685 0.793701 2.76306e-19 2.80768e-17 4.78076e-21 1
163 14.2866 4.77736 -1.21139e-16 -1.17842e-07 0.00297183 -6.85101e-21 1
165 15.0803 4.76987 0.793701 -6.14935e-08 0.00150444 7.88101e-21 1
167 15.874 4.7622 6.94738e-21 3.58786e-19 2.78724e-17 2.94866e-21 1
542 15.0803 3.97617 1.5874 -6.14935e-08 0.00150444 1.11076e-21 1
583 14.2866 4.77736 1.5874 -1.17842e-07 0.00297183 -4.28748e-20 1
587 15.874 4.7622 1.5874 3.54407e-19 2.78756e-17 9.08069e-21 1
128 0.793701 5.56357 -6.15382e-17 6.14935e-08 0.00150444 2.71773e-21 1
130 -7.65632e-19 5.5559 0.793701 3.17554e-19 2.76248e-18 1.16812e-21 1
134 1.5874 5.57106 0.793701 1.17842e-07 0.00297183 4.25997e-21 1
169 -5.97291e-19 6.3496 1.13725e-20 4.33444e-19 5.18384e-18 4.53028e-21 1
171 0.793701 6.35728 0.793701 6.14935e-08 0.00150444 3.52927e-21 1
173 1.5874 6.36476 -1.20254e-16 1.17842e-07 0.00297183 2.92101e-20 1
548 0.793701 5.56357 1.5874 6.14935e-08 0.00150444 -2.76989e-22 1
589 -5.9594e-19 6.3496 1.5874 4.31368e-19 5.20187e-18 -3.75884e-21 1
593 1.5874 6.36476 1.5874 1.17842e-07 0.00297183 -1.50622e-20 1
132 2.3811 5.57816 -1.75949e-16 1.63599e-07 0.00436604 8.97186e-21 1
138 3.1748 5.58473 0.793701 1.93156e-07 0.00565275 1.10399e-20 1
175 2.3811 6.37187 0.793701 1.63599e-07 0.00436604 2.24422e-20 1
177 3.1748 6.37843 -2.26409e-16 1.93156e-07 0.00565275 8.48408e-20 1
552 2.3811 5.57816 1.5874 1.63599e-07 0.00436604 2.11838e-21 1
597 3.1748 6.37843 1.5874 1.93156e-07 0.00565275 8.53865e-21 1
136 3.9685 5.59058 -2.72496e-16 2.01384e-07 0.00680027 2.47775e-20 1
142 4.7622 5.59557 0.793701 1.84914e-07 0.00778035 1.73047e-20 1
179 3.9685 6.38428 0.793701 2.01384e-07 0.00680027 7.13501e-20 1
181 4.7622 6.38927 -3.08626e-16 1.84914e-07 0.00778035 9.27471e-20 1
556 3.9685 5.59058 1.5874 2.01384e-07 0.00680027 5.60874e-21 1
601 4.7622 6.38927 1.5874 1.84914e-07 0.00778035 1.92442e-20 1
140 5.5559 5.59959 -3.42037e-16 1.46713e-07 0.00856884 1.72187e-20 1
146 6.3496 5.60254 0.793701 1.06445e-07 0.00914635 2.2394e-21 1
183 5.5559 6.39329 0.793701 1.46713e-07 0.00856884 2.96173e-20 1
185 6.3496 6.39624 -3.65058e-16 1.06445e-07 0.00914635 1.01849e-20 1
560 5.5559 5.59959 1.5874 1.46713e-07 0.00856884 3.72049e-21 1
605 6.3496 6.39624 1.5874 1.06445e-07 0.00914635 1.52403e-21 1
144 7.14331 5.60433 -3.77708e-16 8.97443e-08 0.00949864 1.07145e-21 1
148 8.73071 5.60433 -3.79137e-16 -8.97443e-08 0.00949864 5.33342e-21 1
150 7.93701 5.60494 0.793701 -1.80928e-20 0.00961704 -4.60095e-21 1
187 7.14331 6.39803 0.793701 8.97443e-08 0.00949864 -3.3862e-21 1
189 7.93701 6.39864 -3.82035e-16 4.94202e-20 0.00961704 1.52301e-21 1
191 8.73071 6.39803 0.793701 -8.97443e-08 0.00949864 -1.45219e-22 1
564 7.14331 5.60433 1.5874 8.97443e-08 0.00949864 -6.12562e-22 1
568 8.73071 5.60433 1.5874 -8.97443e-08 0.00949864 -3.99803e-21 1
609 7.93701 6.39864 1.5874 1.63953e-20 0.00961704 -5.34138e-21 1
152 10.3181 5.59959 -3.41519e-16 -1.46713e-07 0.00856884 1.09385e-21 1
154 9.52441 5.60254 0.793701 -1.06445e-07 0.00914635 -2.3263e-21 1
193 9.52441 6.39624 -3.62251e-16 -1.06445e-07 0.00914635 1.31451e-21 1
195 10.3181 6.39329 0.793701 -1.46713e-07 0.00856884 -2.76429e-20 1
572 10.3181 5.59959 1.5874 -1.46713e-07 0.00856884 -1.18547e-19 1
613 9.52441 6.39624 1.5874 -1.06445e-07 0.00914635 -2.13953e-20 1
156 11.9055 5.59058 -2.72655e-16 -2.01384e-07 0.00680027 -2.19875e-21 1
158 11.1118 5.59557 0.793701 -1.84914e-07 0.00778035 -1.03485e-19 1
197 11.1118 6.38927 -3.10667e-16 -1.84914e-07 0.00778035 -2.17469e-21 1
199 11.9055 6.38428 0.793701 -2.01384e-07 0.00680027 -1.72018e-19 1
576 11.9055 5.59058 1.5874 -2.01384e-07 0.00680027 -8.10719e-19 1
617 11.1118 6.38927 1.5874 -1.84914e-07 0.00778035 -3.5839e-19 1
160 13.4929 5.57816 -1.75286e-16 -1.63599e-07 0.00436604 -9.53202e-21 1
162 12.6992 5.58473 0.793701 -1.93156e-07 0.00565275 -2.19865e-19 1
201 12.6992 6.37843 -2.26697e-16 -1.93156e-07 0.00565275 -2.59225e-20 1
203 13.4929 6.37187 0.793701 -1.63599e-07 0.00436604 -7.33701e-20 1
580 13.4929 5.57816 1.5874 -1.63599e-07 0.00436604 -4.40025e-19 1
621 12.6992 6.37843 1.5874 -1.93156e-07 0.00565275 -1.03317e-18 1
164 15.0803 5.56357 -6.12731e-17 -6.14935e-08 0.00150444 -5.38246e-21 1
166 14.2866 5.57106 0.793701 -1.17842e-07 0.00297183 -6.85932e-21 1
168 15.874 5.5559 0.793701 1.88385e-19 3.13046e-17 1.49791e-20 1
205 14.2866 6.36476 -1.20337e-16 -1.17842e-07 0.00297183 -4.59721e-21 1
207 15.0803 6.35728 0.793701 -6.14935e-08 0.00150444 4.34909e-20 1
209 15.874 6.3496 4.93047e-21 8.76363e-20 3.35839e-17 1.46052e-21 1
584 15.0803 5.56357 1.5874 -6.14935e-08 0.00150444 2.4058e-20 1
625 14.2866 6.36476 1.5874 -1.17842e-07 0.00297183 -1.23357e-20 1
629 15.874 6.3496 1.5874 5.41336e-20 3.36018e-17 5.2172e-20 1
170 0.793701 7.15098 -6.1482e-17 6.14935e-08 0.00150444 6.754e-21 1
172 -3.6478e-19 7.1433 0.793701 5.71354e-19 8.5446e-18 3.40865e-21 1
176 1.5874 7.15846 0.793701 1.17842e-07 0.00297183 -5.45278e-22 1
211 3.28563e-19 7.93701 1.63896e-21 8.97032e-19 1.44932e-17 1.34168e-21 1
212 0.793701 8.73838 -6.15071e-17 6.14935e-08 0.00150444 5.44961e-21 1
213 0.793701 7.94468 0.793701 6.14935e-08 0.00150444 6.77606e-21 1
214 3.11151e-19 8.73071 0.793701 8.89894e-19 1.45497e-17 3.1888e-21 1
215 1.5874 7.95216 -1.21129e-16 1.17842e-07 0.00297183 2.87234e-20 1
218 1.5874 8.74586 0.793701 1.17842e-07 0.00297183 3.83312e-20 1
590 0.793701 7.15098 1.5874 6.14935e-08 0.00150444 2.53192e-22 1
631 3.01418e-19 7.93701 1.5874 8.87998e-19 1.45318e-17 3.48127e-21 1
632 0.793701 8.73838 1.5874 6.14935e-08 0.00150444 3.90092e-21 1
635 1.5874 7.95216 1.5874 1.17842e-07 0.00297183 -4.80905e-21 1
174 2.3811 7.16557 -1.75397e-16 1.63599e-07 0.00436604 8.99265e-20 1
180 3.1748 7.17213 0.793701 1.93156e-07 0.00565275 1.58777e-19 1
216 2.3811 8.75297 -1.75884e-16 1.63599e-07 0.00436604 9.2583e-20 1
217 2.3811 7.95927 0.793701 1.63599e-07 0.00436604 6.65244e-20 1
219 3.1748 7.96583 -2.26911e-16 1.93156e-07 0.00565275 4.62624e-19 1
222 3.1748 8.75953 0.793701 1.93156e-07 0.00565275 1.44536e-19 1
594 2.3811 7.16557 1.5874 1.63599e-07 0.00436604 -5.16666e-21 1
636 2.3811 8.75297 1.5874 1.63599e-07 0.00436604 3.3888e-20 1
639 3.1748 7.96583 1.5874 1.93156e-07 0.00565275 6.1366e-20 1
178 3.9685 7.17798 -2.71874e-16 2.01384e-07 0.00680027 4.80793e-19 1
184 4.7622 7.18297 0.793701 1.84914e-07 0.00778035 1.5291e-19 1
220 3.9685 8.76538 -2.72852e-16 2.01384e-07 0.00680027 4.8323e-19 1
221 3.9685 7.97168 0.793701 2.01384e-07 0.00680027 3.43225e-19 1
223 4.7622 7.97667 -3.11388e-16 1.84914e-07 0.00778035 4.85469e-19 1
226 4.7622 8.77037 0.793701 1.84914e-07 0.00778035 1.50876e-19 1
598 3.9685 7.17798 1.5874 2.01384e-07 0.00680027 5.57908e-20 1
640 3.9685 8.76538 1.5874 2.01384e-07 0.00680027 5.93931e-20 1
643 4.7622 7.97667 1.5874 1.84914e-07 0.00778035 5.84136e-20 1
182 5.5559 7.18699 -3.42215e-16 1.46713e-07 0.00856884 8.97003e-20 1
188 6.3496 7.18994 0.793701 1.06445e-07 0.00914635 9.00372e-21 1
224 5.5559 8.77439 -3.4278e-16 1.46713e-07 0.00856884 8.6488e-20 1
225 5.5559 7.98069 0.793701 1.46713e-07 0.00856884 6.68044e-20 1
227 6.3496 7.98364 -3.65819e-16 1.06445e-07 0.00914635 2.00165e-20 1
230 6.3496 8.77734 0.793701 1.06445e-07 0.00914635 1.31913e-20 1
602 5.5559 7.18699 1.5874 1.46713e-07 0.00856884 1.71568e-20 1
644 5.5559 8.77439 1.5874 1.46713e-07 0.00856884 1.50578e-20 1
647 6.3496 7.98364 1.5874 1.06445e-07 0.00914635 2.99715e-21 1
186 7.14331 7.19173 -3.76929e-16 8.97443e-08 0.00949864 2.23327e-21 1
190 8.73071 7.19173 -3.78029e-16 -8.97443e-08 0.00949864 8.12394e-22 1
192 7.93701 7.19234 0.793701 -2.39353e-21 0.00961704 2.36363e-21 1
228 7.14331 8.77913 -3.78402e-16 8.97443e-08 0.00949864 -6.17871e-22 1
229 7.14331 7.98543 0.793701 8.97443e-08 0.00949864 1.47604e-21 1
231 7.93701 7.98604 -3.84617e-16 6.00431e-20 0.00961704 -5.08304e-21 1
232 8.73071 8.77913 -3.78777e-16 -8.97443e-08 0.00949864 -1.7627e-21 1
233 8.73071 7.98543 0.793701 -8.97443e-08 0.00949864 4.8715e-21 1
234 7.93701 8.77974 0.793701 -1.78818e-20 0.00961704 1.05629e-21 1
606 7.14331 7.19173 1.5874 8.97443e-08 0.00949864 6.24484e-22 1
610 8.73071 7.19173 1.5874 -8.97443e-08 0.00949864 -1.2916e-21 1
648 7.14331 8.77913 1.5874 8.97443e-08 0.00949864 5.637e-22 1
651 7.93701 7.98604 1.5874 -2.07546e-21 0.00961704 -2.23963e-21 1
652 8.73071 8.77913 1.5874 -8.97443e-08 0.00949864 2.17222e-21 1
194 10.3181 7.18699 -3.42489e-16 -1.46713e-07 0.00856884 -4.59778e-21 1
196 9.52441 7.18994 0.793701 -1.06445e-07 0.00914635 5.21093e-22 1
235 9.52441 7.98364 -3.6515e-16 -1.06445e-07 0.00914635 -1.82772e-21 1
236 10.3181 8.77439 -3.4289e-16 -1.46713e-07 0.00856884 9.44654e-22 1
237 10.3181 7.98069 0.793701 -1.46713e-07 0.00856884 7.01176e-21 1
238 9.52441 8.77734 0.793701 -1.06445e-07 0.00914635 6.20018e-21 1
614 10.3181 7.18699 1.5874 -1.46713e-07 0.00856884 -5.53838e-20 1
655 9.52441 7.98364 1.5874 -1.06445e-07 0.00914635 3.39786e-21 1
656 10.3181 8.77439 1.5874 -1.46713e-07 0.00856884 6.83137e-21 1
198 11.9055 7.17798 -2.73029e-16 -2.01384e-07 0.00680027 -2.8197e-22 1
200 11.1118 7.18297 0.793701 -1.84914e-07 0.00778035 -3.69242e-20 1
239 11.1118 7.97667 -3.11882e-16 -1.84914e-07 0.00778035 2.8243e-22 1
240 11.9055 8.76538 -2.73203e-16 -2.01384e-07 0.00680027 2.14672e-21 1
241 11.9055 7.97168 0.793701 -2.01384e-07 0.00680027 2.66558e-20 1
242 11.1118 8.77037 0.793701 -1.84914e-07 0.00778035 2.54998e-20 1
618 11.9055 7.17798 1.5874 -2.01384e-07 0.00680027 -4.20878e-19 1
659 11.1118 7.97667 1.5874 -1.84914e-07 0.00778035 -4.94596e-20 1
660 11.9055 8.76538 1.5874 -2.01384e-07 0.00680027 8.39445e-20 1
202 13.4929 7.16557 -1.75236e-16 -1.63599e-07 0.00436604 -5.41932e-21 1
204 12.6992 7.17213 0.793701 -1.93156e-07 0.00565275 -3.5627e-20 1
243 12.6992 7.96583 -2.27211e-16 -1.93156e-07 0.00565275 5.60049e-21 1
244 13.4929 8.75297 -1.75621e-16 -1.63599e-07 0.00436604 2.1548e-20 1
245 13.4929 7.95927 0.793701 -1.63599e-07 0.00436604 1.36664e-19 1
246 12.6992 8.75953 0.793701 -1.93156e-07 0.00565275 9.22439e-20 1
622 13.4929 7.16557 1.5874 -1.63599e-07 0.00436604 -1.00062e-19 1
663 12.6992 7.96583 1.5874 -1.93156e-07 0.00565275 3.37491e-20 1
664 13.4929 8.75297 1.5874 -1.63599e-07 0.00436604 3.13237e-19 1
206 15.0803 7.15098 -6.12312e-17 -6.14935e-08 0.00150444 6.14213e-21 1
208 14.2866 7.15846 0.793701 -1.17842e-07 0.00297183 8.95277e-20 1
210 15.874 7.1433 0.793701 -8.96496e-20 3.67276e-17 4.44108e-20 1
247 14.2866 7.95216 -1.20637e-16 -1.17842e-07 0.00297183 2.02211e-20 1
248 15.0803 8.73838 -6.13323e-17 -6.14935e-08 0.00150444 1.02584e-20 1
249 15.0803 7.94468 0.793701 -6.14935e-08 0.00150444 1.0084e-19 1
250 14.2866 8.74586 0.793701 -1.17842e-07 0.00297183 1.48294e-19 1
251 15.874 7.93701 1.12862e-20 -3.98148e-19 4.26437e-17 5.34193e-21 1
252 15.874 8.73071 0.793701 -3.97342e-19 4.26488e-17 5.19115e-20 1
626 15.0803 7.15098 1.5874 -6.14935e-08 0.00150444 1.62334e-19 1
667 14.2866 7.95216 1.5874 -1.17842e-07 0.00297183 2.89249e-19 1
668 15.0803 8.73838 1.5874 -6.14935e-08 0.00150444 2.14016e-19 1
671 15.874 7.93701 1.5874 -4.84574e-19 4.26222e-17 1.10382e-19 1
253 -4.30833e-19 9.52441 7.83534e-22 5.34778e-19 8.74084e-18 -7.23071e-21 1
254 0.793701 10.3258 -6.21366e-17 6.14935e-08 0.00150444 -8.44247e-21 1
255 0.793701 9.53208 0.793701 6.14935e-08 0.00150444 4.08162e-21 1
256 -6.80328e-19 10.3181 0.793701 3.76117e-19 5.9028e-18 -1.68484e-20 1
257 1.5874 9.53956 -1.20401e-16 1.17842e-07 0.00297183 1.10439e-20 1
260 1.5874 10.3333 0.793701 1.17842e-07 0.00297183 2.54889e-21 1
673 -3.88058e-19 9.52441 1.5874 5.53127e-19 8.73738e-18 -6.10149e-22 1
674 0.793701 10.3258 1.5874 6.14935e-08 0.00150444 -1.44992e-21 1
677 1.5874 9.53956 1.5874 1.17842e-07 0.00297183 1.74061e-20 1
258 2.3811 10.3404 -1.7635e-16 1.63599e-07 0.00436604 1.04436e-20 1
259 2.3811 9.54667 0.793701 1.63599e-07 0.00436604 1.7554e-20 1
261 3.1748 9.55323 -2.26813e-16 1.93156e-07 0.00565275 9.19112e-20 1
264 3.1748 10.3469 0.793701 1.93156e-07 0.00565275 3.14142e-20 1
678 2.3811 10.3404 1.5874 1.63599e-07 0.00436604 1.20167e-20 1
681 3.1748 9.55323 1.5874 1.93156e-07 0.00565275 2.52797e-20 1
262 3.9685 10.3528 -2.73871e-16 2.01384e-07 0.00680027 3.20476e-20 1
263 3.9685 9.55908 0.793701 2.01384e-07 0.00680027 8.16268e-20 1
265 4.7622 9.56408 -3.1119e-16 1.84914e-07 0.00778035 9.26632e-20 1
268 4.7622 10.3578 0.793701 1.84914e-07 0.00778035 1.94238e-20 1
682 3.9685 10.3528 1.5874 2.01384e-07 0.00680027 1.28647e-20 1
685 4.7622 9.56408 1.5874 1.84914e-07 0.00778035 2.33284e-20 1
266 5.5559 10.3618 -3.42503e-16 1.46713e-07 0.00856884 1.04691e-20 1
267 5.5559 9.5681 0.793701 1.46713e-07 0.00856884 2.48783e-20 1
269 6.3496 9.57104 -3.63972e-16 1.06445e-07 0.00914635 9.32642e-21 1
272 6.3496 10.3647 0.793701 1.06445e-07 0.00914635 4.83083e-21 1
686 5.5559 10.3618 1.5874 1.46713e-07 0.00856884 2.84807e-21 1
689 6.3496 9.57104 1.5874 1.06445e-07 0.00914635 2.31404e-21 1
270 7.14331 10.3665 -3.78614e-16 8.97443e-08 0.00949864 3.68534e-21 1
271 7.14331 9.57284 0.793701 8.97443e-08 0.00949864 4.71174e-21 1
273 7.93701 9.57344 -3.85306e-16 -7.19443e-20 0.00961704 5.8863e-21 1
274 8.73071 10.3665 -3.78316e-16 -8.97443e-08 0.00949864 2.00143e-21 1
275 8.73071 9.57284 0.793701 -8.97443e-08 0.00949864 1.88518e-21 1
276 7.93701 10.3671 0.793701 -4.05588e-20 0.00961704 1.58885e-21 1
690 7.14331 10.3665 1.5874 8.97443e-08 0.00949864 -1.10105e-21 1
693 7.93701 9.57344 1.5874 -4.48732e-20 0.00961704 4.96658e-22 1
694 8.73071 10.3665 1.5874 -8.97443e-08 0.00949864 6.31776e-21 1
277 9.52441 9.57104 -3.63046e-16 -1.06445e-07 0.00914635 1.77981e-21 1
278 10.3181 10.3618 -3.42131e-16 -1.46713e-07 0.00856884 3.6253e-21 1
279 10.3181 9.5681 0.793701 -1.46713e-07 0.00856884 1.22725e-20 1
280 9.52441 10.3647 0.793701 -1.06445e-07 0.00914635 1.35177e-20 1
697 9.52441 9.57104 1.5874 -1.06445e-07 0.00914635 8.85719e-21 1
698 10.3181 10.3618 1.5874 -1.46713e-07 0.00856884 1.01821e-20 1
281 11.1118 9.56408 -3.11318e-16 -1.84914e-07 0.00778035 1.6798e-21 1
282 11.9055 10.3528 -2.73106e-16 -2.01384e-07 0.00680027 2.44873e-21 1
283 11.9055 9.55908 0.793701 -2.01384e-07 0.00680027 5.00316e-20 1
284 11.1118 10.3578 0.793701 -1.84914e-07 0.00778035 1.69883e-20 1
701 11.1118 9.56408 1.5874 -1.84914e-07 0.00778035 3.67944e-20 1
702 11.9055 10.3528 1.5874 -2.01384e-07 0.00680027 5.27104e-20 1
285 12.6992 9.55323 -2.26761e-16 -1.93156e-07 0.00565275 2.36748e-20 1
286 13.4929 10.3404 -1.75884e-16 -1.63599e-07 0.00436604 1.51042e-21 1
287 13.4929 9.54667 0.793701 -1.63599e-07 0.00436604 1.05687e-19 1
288 12.6992 10.3469 0.793701 -1.93156e-07 0.00565275 4.80863e-20 1
705 12.6992 9.55323 1.5874 -1.93156e-07 0.00565275 1.70306e-19 1
706 13.4929 10.3404 1.5874 -1.63599e-07 0.00436604 1.43545e-19 1
289 14.2866 9.53956 -1.20454e-16 -1.17842e-07 0.00297183 -1.72406e-20 1
290 15.0803 10.3258 -6.18487e-17 -6.14935e-08 0.00150444 3.48665e-21 1
291 15.0803 9.53208 0.793701 -6.14935e-08 0.00150444 7.13192e-20 1
292 14.2866 10.3333 0.793701 -1.17842e-07 0.00297183 4.34771e-20 1
293 15.874 9.52441 6.35862e-21 -4.11074e-20 3.68954e-17 2.38262e-21 1
294 15.874 10.3181 0.793701 7.11203e-20 3.40586e-17 2.15962e-20 1
709 14.2866 9.53956 1.5874 -1.17842e-07 0.00297183 2.46672e-19 1
710 15.0803 10.3258 1.5874 -6.14935e-08 0.00150444 8.22911e-20 1
713 15.874 9.52441 1.5874 -9.93316e-20 3.68517e-17 7.6049e-20 1
295 -1.0044e-18 11.1118 -1.24286e-19 2.00834e-19 5.24706e-18 -6.30011e-20 1