ITEM: TIMESTEP
2000
ITEM: NUMBER OF ATOMS
8000
ITEM: BOX BOUNDS pp pp pp
0.0000000000000000e+00 3.1748021039364001e+01
0.0000000000000000e+00 1.5874010519682001e+01
0.0000000000000000e+00 1.5874010519682001e+01
ITEM: ATOMS id x y z vx vy vz c_rho_peratom
1 -1.29027e-18 1.49068e-17 -6.20659e-19 9.10339e-19 -2.40626e-17 -1.73504e-19 1
2 0.793701 0.808748 -1.20596e-16 -4.50847e-08 0.00144682 -2.97918e-20 1
3 0.793701 0.0150478 0.793701 -4.50847e-08 0.00144682 -1.88429e-19 1
4 -1.23508e-18 0.793701 0.793701 5.32857e-19 -2.66205e-17 -6.65414e-21 1
5 1.5874 0.0297245 -2.36325e-16 -8.48707e-08 0.00285802 -9.24634e-20 1
8 1.5874 0.823425 0.793701 -8.48707e-08 0.00285802 -8.40081e-22 1
43 1.23472e-18 1.5874 -2.4911e-20 1.38162e-18 -2.52427e-17 -5.42232e-21 1
45 0.793701 1.60245 0.793701 -4.50847e-08 0.00144682 1.46655e-20 1
47 1.5874 1.61713 -2.36238e-16 -8.48707e-08 0.00285802 2.87338e-20 1
421 -1.16032e-18 1.52685e-17 1.5874 6.18963e-19 -2.35309e-17 -1.60421e-19 1
422 0.793701 0.808748 1.5874 -4.50847e-08 0.00144682 1.16496e-20 1
425 1.5874 0.0297245 1.5874 -8.48707e-08 0.00285802 -5.31154e-19 1
463 1.30347e-18 1.5874 1.5874 1.40118e-18 -2.52864e-17 6.47278e-21 1
467 1.5874 1.61713 1.5874 -8.48707e-08 0.00285802 5.68292e-21 1
6 2.3811 0.837369 -3.47157e-16 -1.14599e-07 0.00419884 4.78627e-20 1
7 2.3811 0.0436686 0.793701 -1.14599e-07 0.00419884 -2.86114e-20 1
9 3.1748 0.056537 -4.42445e-16 -1.30682e-07 0.00543627 9.31833e-20 1
12 3.1748 0.850238 0.793701 -1.30682e-07 0.00543627 6.83083e-20 1
49 2.3811 1.63107 0.793701 -1.14599e-07 0.00419884 3.46832e-20 1
51 3.1748 1.64394 -4.44251e-16 -1.30682e-07 0.00543627 5.49017e-20 1
426 2.3811 0.837369 1.5874 -1.14599e-07 0.00419884 -1.65908e-20 1
429 3.1748 0.056537 1.5874 -1.30682e-07 0.00543627 -2.42799e-20 1
471 3.1748 1.64394 1.5874 -1.30682e-07 0.00543627 9.82902e-21 1
10 3.9685 0.861713 -5.28933e-16 -1.31773e-07 0.00653985 9.73198e-20 1
11 3.9685 0.0680129 0.793701 -1.31773e-07 0.00653985 8.70747e-20 1
13 4.7622 0.0778139 -6.04117e-16 -1.20242e-07 0.00748239 9.80235e-20 1
16 4.7622 0.871514 0.793701 -1.20242e-07 0.00748239 7.16461e-20 1
53 3.9685 1.65541 0.793701 -1.31773e-07 0.00653985 5.32471e-20 1
55 4.7622 1.66521 -6.04236e-16 -1.20242e-07 0.00748239 5.52717e-20 1
430 3.9685 0.861713 1.5874 -1.31773e-07 0.00653985 4.72035e-20 1
433 4.7622 0.0778139 1.5874 -1.20242e-07 0.00748239 4.84523e-20 1
475 4.7622 1.66521 1.5874 -1.20242e-07 0.00748239 2.951e-20 1
14 5.5559 0.879399 -6.64922e-16 -9.99404e-08 0.00824069 5.52911e-20 1
15 5.5559 0.0856989 0.793701 -9.99404e-08 0.00824069 5.60046e-20 1
17 6.34961 0.0914739 -7.002e-16 -6.37915e-08 0.00879608 3.45468e-20 1
20 6.34961 0.885174 0.793701 -6.37915e-08 0.00879608 2.73714e-20 1
57 5.5559 1.6731 0.793701 -9.99404e-08 0.00824069 3.39153e-20 1
59 6.34961 1.67887 -7.04081e-16 -6.37915e-08 0.00879608 2.14062e-20 1
434 5.5559 0.879399 1.5874 -9.99404e-08 0.00824069 3.13636e-20 1
437 6.34961 0.0914739 1.5874 -6.37915e-08 0.00879608 2.10976e-20 1
479 6.34961 1.67887 1.5874 -6.37915e-08 0.00879608 1.25977e-20 1
18 7.14331 0.888697 -7.26293e-16 3.01872e-09 0.00913488 1.62015e-20 1
19 7.14331 0.0949967 0.793701 3.01872e-09 0.00913488 1.47011e-20 1
21 7.93701 0.0961806 -7.38369e-16 -2.34125e-18 0.00924874 1.86132e-20 1
22 8.7307 0.888697 -7.2541e-16 -3.01872e-09 0.00913488 3.66945e-20 1
23 8.7307 0.0949967 0.793701 -3.01872e-09 0.00913488 3.0633e-21 1
24 7.93701 0.889881 0.793701 1.5911e-17 0.00924874 5.49113e-21 1
61 7.14331 1.6824 0.793701 3.01872e-09 0.00913488 9.17015e-21 1
63 7.93701 1.68358 -7.36046e-16 1.00328e-17 0.00924874 1.70811e-20 1
65 8.7307 1.6824 0.793701 -3.01872e-09 0.00913488 -1.11411e-22 1
438 7.14331 0.888697 1.5874 3.01872e-09 0.00913488 9.34614e-21 1
441 7.93701 0.0961806 1.5874 -2.34904e-18 0.00924874 4.92451e-21 1
442 8.7307 0.888697 1.5874 -3.01872e-09 0.00913488 6.96735e-22 1
483 7.93701 1.68358 1.5874 1.00287e-17 0.00924874 2.74308e-21 1
25 9.52441 0.0914739 -7.00072e-16 6.37915e-08 0.00879608 1.46547e-20 1
26 10.3181 0.879399 -6.64056e-16 9.99404e-08 0.00824069 8.16893e-21 1
27 10.3181 0.0856989 0.793701 9.99404e-08 0.00824069 2.57972e-21 1
28 9.52441 0.885174 0.793701 6.37915e-08 0.00879608 -2.17135e-21 1
67 9.52441 1.67887 -7.00495e-16 6.37915e-08 0.00879608 1.66553e-20 1
69 10.3181 1.6731 0.793701 9.99404e-08 0.00824069 -2.68575e-21 1
445 9.52441 0.0914739 1.5874 6.37915e-08 0.00879608 1.20084e-21 1
446 10.3181 0.879399 1.5874 9.99404e-08 0.00824069 -1.00837e-21 1
487 9.52441 1.67887 1.5874 6.37915e-08 0.00879608 -2.73998e-21 1
29 11.1118 0.0778139 -6.0371e-16 1.20242e-07 0.00748239 2.5491e-21 1
30 11.9055 0.861713 -5.28754e-16 1.31773e-07 0.00653985 2.48776e-22 1
31 11.9055 0.0680129 0.793701 1.31773e-07 0.00653985 2.13855e-21 1
32 11.1118 0.871514 0.793701 1.20242e-07 0.00748239 -1.83626e-22 1
71 11.1118 1.66521 -6.01162e-16 1.20242e-07 0.00748239 -6.19295e-22 1
73 11.9055 1.65541 0.793701 1.31773e-07 0.00653985 -1.15794e-20 1
449 11.1118 0.0778139 1.5874 1.20242e-07 0.00748239 4.36453e-22 1
450 11.9055 0.861713 1.5874 1.31773e-07 0.00653985 -9.13428e-21 1
491 11.1118 1.66521 1.5874 1.20242e-07 0.00748239 -1.18666e-20 1
33 12.6992 0.056537 -4.42504e-16 1.30682e-07 0.00543627 9.98186e-21 1
34 13.4929 0.837369 -3.43821e-16 1.14599e-07 0.00419884 -1.99594e-20 1
35 13.4929 0.0436686 0.793701 1.14599e-07 0.00419884 -1.77989e-20 1
36 12.6992 0.850238 0.793701 1.30682e-07 0.00543627 -9.73957e-21 1
75 12.6992 1.64394 -4.41115e-16 1.30682e-07 0.00543627 -4.54371e-21 1
77 13.4929 1.63107 0.793701 1.14599e-07 0.00419884 -4.48185e-20 1
453 12.6992 0.056537 1.5874 1.30682e-07 0.00543627 -3.00693e-21 1
454 13.4929 0.837369 1.5874 1.14599e-07 0.00419884 -3.11982e-20 1
495 12.6992 1.64394 1.5874 1.30682e-07 0.00543627 -6.02808e-20 1
37 14.2866 0.0297245 -2.35948e-16 8.48707e-08 0.00285802 -1.66435e-19 1
38 15.0803 0.808748 -1.20547e-16 4.50847e-08 0.00144682 -2.69381e-19 1
39 15.0803 0.0150478 0.793701 4.50847e-08 0.00144682 -1.30859e-19 1
40 14.2866 0.823425 0.793701 8.48707e-08 0.00285802 -4.61788e-20 1
41 15.874 2.40836e-16 -7.31806e-19 -2.23215e-18 -9.21188e-18 -3.58801e-19 1
42 15.874 0.793701 0.793701 -2.54145e-18 -1.03464e-17 -8.06375e-20 1
79 14.2866 1.61713 -2.36626e-16 8.48707e-08 0.00285802 -6.06552e-20 1
81 15.0803 1.60245 0.793701 4.50847e-08 0.00144682 -4.09944e-20 1
83 15.874 1.5874 -8.22738e-20 -2.38056e-18 -9.23431e-18 -1.23735e-19 1
457 14.2866 0.0297245 1.5874 8.48707e-08 0.00285802 -3.01421e-20 1
458 15.0803 0.808748 1.5874 4.50847e-08 0.00144682 -3.28324e-20 1
461 15.874 2.41487e-16 1.5874 -2.11559e-18 -9.23228e-18 -4.23895e-20 1
499 14.2866 1.61713 1.5874 8.48707e-08 0.00285802 -3.68109e-20 1
503 15.874 1.5874 1.5874 -2.34817e-18 -9.19196e-18 -1.00328e-20 1
44 0.793701 2.39615 -1.22143e-16 -4.50847e-08 0.00144682 9.87597e-21 1
46 5.39806e-18 2.3811 0.793701 2.51714e-18 -2.35897e-17 1.73193e-21 1
50 1.5874 2.41083 0.793701 -8.48707e-08 0.00285802 1.60817e-20 1
85 4.71175e-18 3.1748 3.73195e-20 1.97746e-18 -2.82687e-17 4.52857e-21 1
87 0.793701 3.18985 0.793701 -4.50847e-08 0.00144682 3.95504e-21 1
89 1.5874 3.20453 -2.41585e-16 -8.48707e-08 0.00285802 -1.35506e-20 1
464 0.793701 2.39615 1.5874 -4.50847e-08 0.00144682 -7.16126e-21 1
505 4.705e-18 3.1748 1.5874 1.97343e-18 -2.83037e-17 -1.89054e-22 1
509 1.5874 3.20453 1.5874 -8.48707e-08 0.00285802 3.373e-21 1
48 2.3811 2.42477 -3.48623e-16 -1.14599e-07 0.00419884 1.99584e-20 1
54 3.1748 2.43764 0.793701 -1.30682e-07 0.00543627 2.3021e-20 1
91 2.3811 3.21847 0.793701 -1.14599e-07 0.00419884 1.29233e-21 1
93 3.1748 3.23134 -4.49695e-16 -1.30682e-07 0.00543627 -1.9252e-20 1
468 2.3811 2.42477 1.5874 -1.14599e-07 0.00419884 1.10175e-20 1
513 3.1748 3.23134 1.5874 -1.30682e-07 0.00543627 6.62499e-21 1
52 3.9685 2.44911 -5.37572e-16 -1.31773e-07 0.00653985 2.96859e-20 1
58 4.7622 2.45892 0.793701 -1.20242e-07 0.00748239 2.54236e-20 1
95 3.9685 3.24282 0.793701 -1.31773e-07 0.00653985 1.21748e-20 1
97 4.7622 3.25262 -6.08386e-16 -1.20242e-07 0.00748239 1.39231e-20 1
472 3.9685 2.44911 1.5874 -1.31773e-07 0.00653985 1.67805e-20 1
517 4.7622 3.25262 1.5874 -1.20242e-07 0.00748239 5.35984e-21 1
56 5.5559 2.4668 -6.6196e-16 -9.99404e-08 0.00824069 2.1799e-20 1
62 6.34961 2.47258 0.793701 -6.37915e-08 0.00879608 1.21355e-20 1
99 5.5559 3.2605 0.793701 -9.99404e-08 0.00824069 9.1655e-21 1
101 6.34961 3.26628 -7.0529e-16 -6.37915e-08 0.00879608 6.10135e-21 1
476 5.5559 2.4668 1.5874 -9.99404e-08 0.00824069 1.12725e-20 1
521 6.34961 3.26628 1.5874 -6.37915e-08 0.00879608 4.38587e-21 1
60 7.14331 2.4761 -7.3257e-16 3.01872e-09 0.00913488 6.61835e-21 1
64 8.7307 2.4761 -7.31725e-16 -3.01872e-09 0.00913488 9.02346e-21 1
66 7.93701 2.47728 0.793701 1.36172e-18 0.00924874 2.64434e-21 1
103 7.14331 3.2698 0.793701 3.01872e-09 0.00913488 3.81178e-21 1
105 7.93701 3.27098 -7.3858e-16 7.64061e-21 0.00924874 7.31461e-21 1
107 8.7307 3.2698 0.793701 -3.01872e-09 0.00913488 -3.17783e-21 1
480 7.14331 2.4761 1.5874 3.01872e-09 0.00913488 3.26113e-21 1
484 8.7307 2.4761 1.5874 -3.01872e-09 0.00913488 -3.81637e-21 1
525 7.93701 3.27098 1.5874 2.67543e-21 0.00924874 -5.50863e-21 1
68 10.3181 2.4668 -6.61377e-16 9.99404e-08 0.00824069 1.83974e-21 1
70 9.52441 2.47258 0.793701 6.37915e-08 0.00879608 -4.12023e-21 1
109 9.52441 3.26628 -7.0511e-16 6.37915e-08 0.00879608 1.37681e-21 1
111 10.3181 3.2605 0.793701 9.99404e-08 0.00824069 -1.90125e-20 1
488 10.3181 2.4668 1.5874 9.99404e-08 0.00824069 -1.75283e-20 1
529 9.52441 3.26628 1.5874 6.37915e-08 0.00879608 -2.13359e-20 1
72 11.9055 2.44911 -5.30022e-16 1.31773e-07 0.00653985 -2.15323e-21 1
74 11.1118 2.45892 0.793701 1.20242e-07 0.00748239 -1.41014e-20 1
113 11.1118 3.25262 -6.06867e-16 1.20242e-07 0.00748239 -3.14735e-21 1
115 11.9055 3.24282 0.793701 1.31773e-07 0.00653985 -3.84645e-20 1
492 11.9055 2.44911 1.5874 1.31773e-07 0.00653985 -3.47488e-20 1
533 11.1118 3.25262 1.5874 1.20242e-07 0.00748239 -6.20571e-20 1
76 13.4929 2.42477 -3.473e-16 1.14599e-07 0.00419884 -6.80835e-21 1
78 12.6992 2.43764 0.793701 1.30682e-07 0.00543627 -1.81625e-20 1
117 12.6992 3.23134 -4.4776e-16 1.30682e-07 0.00543627 -3.00909e-20 1
119 13.4929 3.21847 0.793701 1.14599e-07 0.00419884 -6.36885e-21 1
496 13.4929 2.42477 1.5874 1.14599e-07 0.00419884 -1.40092e-20 1
537 12.6992 3.23134 1.5874 1.30682e-07 0.00543627 -4.01258e-20 1
80 15.0803 2.39615 -1.21894e-16 4.50847e-08 0.00144682 -4.23449e-20 1
82 14.2866 2.41083 0.793701 8.48707e-08 0.00285802 -3.23949e-20 1
84 15.874 2.3811 0.793701 -3.44257e-18 -6.88444e-18 -1.52035e-20 1
121 14.2866 3.20453 -2.39833e-16 8.48707e-08 0.00285802 -1.1598e-20 1
123 15.0803 3.18985 0.793701 4.50847e-08 0.00144682 -1.00275e-20 1
125 15.874 3.1748 -1.03767e-19 -4.31197e-18 -9.4912e-18 -6.18135e-20 1
500 15.0803 2.39615 1.5874 4.50847e-08 0.00144682 -6.4571e-21 1
541 14.2866 3.20453 1.5874 8.48707e-08 0.00285802 -3.40195e-20 1
545 15.874 3.1748 1.5874 -4.32973e-18 -9.48178e-18 7.24093e-22 1
86 0.793701 3.98355 -1.22381e-16 -4.50847e-08 0.00144682 8.4379e-21 1
88 2.58204e-18 3.9685 0.793701 1.05108e-18 -3.37676e-17 5.52294e-21 1
92 1.5874 3.99823 0.793701 -8.48707e-08 0.00285802 9.30724e-21 1
127 1.88006e-18 4.7622 1.62403e-20 8.37611e-19 -3.07541e-17 3.64764e-21 1
129 0.793701 4.77725 0.793701 -4.50847e-08 0.00144682 5.60465e-21 1
131 1.5874 4.79193 -2.35251e-16 -8.48707e-08 0.00285802 2.09025e-20 1
506 0.793701 3.98355 1.5874 -4.50847e-08 0.00144682 -3.9842e-22 1
547 1.86445e-18 4.7622 1.5874 8.34279e-19 -3.07369e-17 1.43357e-21 1
551 1.5874 4.79193 1.5874 -8.48707e-08 0.00285802 -5.23505e-21 1
90 2.3811 4.01217 -3.46972e-16 -1.14599e-07 0.00419884 1.04866e-20 1
96 3.1748 4.02504 0.793701 -1.30682e-07 0.00543627 1.58253e-20 1
133 2.3811 4.80587 0.793701 -1.14599e-07 0.00419884 -7.48329e-21 1
135 3.1748 4.81874 -4.39581e-16 -1.30682e-07 0.00543627 4.90253e-20 1
510 2.3811 4.01217 1.5874 -1.14599e-07 0.00419884 -1.5944e-21 1
555 3.1748 4.81874 1.5874 -1.30682e-07 0.00543627 -7.83921e-21 1
94 3.9685 4.03652 -5.22707e-16 -1.31773e-07 0.00653985 1.3247e-20 1
100 4.7622 4.04632 0.793701 -1.20242e-07 0.00748239 7.15158e-21 1
137 3.9685 4.83022 0.793701 -1.31773e-07 0.00653985 1.12157e-20 1
139 4.7622 4.84002 -6.01246e-16 -1.20242e-07 0.00748239 1.6876e-20 1
514 3.9685 4.03652 1.5874 -1.31773e-07 0.00653985 -1.45264e-21 1
559 4.7622 4.84002 1.5874 -1.20242e-07 0.00748239 -7.34671e-21 1
98 5.5559 4.0542 -6.6737e-16 -9.99404e-08 0.00824069 7.68526e-21 1
104 6.34961 4.05998 0.793701 -6.37915e-08 0.00879608 4.82651e-21 1
141 5.5559 4.8479 0.793701 -9.99404e-08 0.00824069 7.67297e-21 1
143 6.34961 4.85368 -7.00451e-16 -6.37915e-08 0.00879608 1.55862e-21 1
518 5.5559 4.0542 1.5874 -9.99404e-08 0.00824069 -3.53868e-22 1
563 6.34961 4.85368 1.5874 -6.37915e-08 0.00879608 3.61028e-21 1
102 7.14331 4.0635 -7.23358e-16 3.01872e-09 0.00913488 1.46341e-21 1
106 8.7307 4.0635 -7.24391e-16 -3.01872e-09 0.00913488 4.65929e-22 1
108 7.93701 4.06468 0.793701 -4.37788e-20 0.00924874 -2.0261e-22 1
145 7.14331 4.8572 0.793701 3.01872e-09 0.00913488 -1.015e-21 1
147 7.93701 4.85838 -7.37831e-16 -4.86698e-20 0.00924874 1.38753e-21 1
149 8.7307 4.8572 0.793701 -3.01872e-09 0.00913488 -5.58123e-20 1
522 7.14331 4.0635 1.5874 3.01872e-09 0.00913488 1.53733e-21 1
526 8.7307 4.0635 1.5874 -3.01872e-09 0.00913488 -2.20077e-20 1
567 7.93701 4.85838 1.5874 -9.67574e-20 0.00924874 -3.20344e-20 1
110 10.3181 4.0542 -6.66003e-16 9.99404e-08 0.00824069 -2.0734e-21 1
112 9.52441 4.05998 0.793701 6.37915e-08 0.00879608 -2.39214e-20 1
151 9.52441 4.85368 -6.99166e-16 6.37915e-08 0.00879608 1.1502e-21 1
153 10.3181 4.8479 0.793701 9.99404e-08 0.00824069 -9.95611e-20 1
530 10.3181 4.0542 1.5874 9.99404e-08 0.00824069 -8.19627e-20 1
571 9.52441 4.85368 1.5874 6.37915e-08 0.00879608 -1.57053e-19 1
114 11.9055 4.03652 -5.29971e-16 1.31773e-07 0.00653985 1.23349e-21 1
116 11.1118 4.04632 0.793701 1.20242e-07 0.00748239 -6.33161e-20 1
155 11.1118 4.84002 -6.01617e-16 1.20242e-07 0.00748239 3.34373e-25 1
157 11.9055 4.83022 0.793701 1.31773e-07 0.00653985 -1.35844e-19 1
534 11.9055 4.03652 1.5874 1.31773e-07 0.00653985 -1.57646e-19 1
575 11.1118 4.84002 1.5874 1.20242e-07 0.00748239 -2.17405e-19 1
118 13.4929 4.01217 -3.46169e-16 1.14599e-07 0.00419884 -2.42577e-21 1
120 12.6992 4.02504 0.793701 1.30682e-07 0.00543627 -8.18644e-20 1
159 12.6992 4.81874 -4.38697e-16 1.30682e-07 0.00543627 3.16827e-20 1
161 13.4929 4.80587 0.793701 1.14599e-07 0.00419884 -1.04649e-19 1
538 13.4929 4.01217 1.5874 1.14599e-07 0.00419884 -1.41836e-19 1
579 12.6992 4.81874 1.5874 1.30682e-07 0.00543627 -2.63837e-19 1
122 15.0803 3.98355 -1.22196e-16 4.50847e-08 0.00144682 -3.05305e-20 1
124 14.2866 3.99823 0.793701 8.48707e-08 0.00285802 -2.40572e-20 1
126 15.874 3.9685 0.793701 -3.09104e-18 -1.76746e-17 -1.59449e-20 1
163 14.2866 4.79193 -2.35484e-16 8.48707e-08 0.00285802 -1.07004e-20 1
165 15.0803 4.77725 0.793701 4.50847e-08 0.00144682 -2.46841e-20 1
167 15.874 4.7622 -5.10963e-20 -2.03258e-18 -1.70538e-17 -3.6963e-20 1
542 15.0803 3.98355 1.5874 4.50847e-08 0.00144682 -2.45926e-20 1
583 14.2866 4.79193 1.5874 8.48707e-08 0.00285802 -9.32964e-20 1
587 15.874 4.7622 1.5874 -2.03171e-18 -1.70248e-17 -7.0378e-21 1
128 0.793701 5.57095 -1.19746e-16 -4.50847e-08 0.00144682 7.21498e-21 1
130 8.25446e-19 5.5559 0.793701 6.67886e-19 -2.42613e-17 4.86219e-21 1
134 1.5874 5.58563 0.793701 -8.48707e-08 0.00285802 6.10412e-21 1
169 7.70551e-19 6.3496 3.95923e-20 4.38744e-19 -2.28354e-17 -1.94662e-21 1
171 0.793701 6.36465 0.793701 -4.50847e-08 0.00144682 -6.14819e-21 1
173 1.5874 6.37933 -2.34054e-16 -8.48707e-08 0.00285802 1.01383e-21 1
548 0.793701 5.57095 1.5874 -4.50847e-08 0.00144682 -5.92455e-21 1
589 7.53039e-19 6.3496 1.5874 4.28471e-19 -2.27979e-17 -1.00593e-20 1
593 1.5874 6.37933 1.5874 -8.48707e-08 0.00285802 -2.25235e-20 1
132 2.3811 5.59957 -3.42438e-16 -1.14599e-07 0.00419884 -1.32136e-20 1
138 3.1748 5.61244 0.793701 -1.30682e-07 0.00543627 -4.71832e-21 1
175 2.3811 6.39327 0.793701 -1.14599e-07 0.00419884 3.68035e-20 1
177 3.1748 6.40614 -4.37184e-16 -1.30682e-07 0.00543627 4.9405e-20 1
552 2.3811 5.59957 1.5874 -1.14599e-07 0.00419884 -1.8947e-20 1
597 3.1748 6.40614 1.5874 -1.30682e-07 0.00543627 -2.52261e-20 1
136 3.9685 5.62392 -5.25499e-16 -1.31773e-07 0.00653985 3.41045e-20 1
142 4.7622 5.63372 0.793701 -1.20242e-07 0.00748239 2.01276e-20 1
179 3.9685 6.41762 0.793701 -1.31773e-07 0.00653985 4.046e-20 1
181 4.7622 6.42742 -5.8349e-16 -1.20242e-07 0.00748239 5.38672e-20 1
556 3.9685 5.62392 1.5874 -1.31773e-07 0.00653985 -1.50902e-20 1
601 4.7622 6.42742 1.5874 -1.20242e-07 0.00748239 -5.95865e-21 1
140 5.5559 5.6416 -6.57212e-16 -9.99404e-08 0.00824069 2.2793e-20 1
146 6.34961 5.64738 0.793701 -6.37915e-08 0.00879608 6.53688e-21 1
183 5.5559 6.4353 0.793701 -9.99404e-08 0.00824069 2.73666e-20 1
185 6.34961 6.44108 -7.10619e-16 -6.37915e-08 0.00879608 2.10264e-20 1
560 5.5559 5.6416 1.5874 -9.99404e-08 0.00824069 -3.85144e-21 1
605 6.34961 6.44108 1.5874 -6.37915e-08 0.00879608 -4.89251e-21 1
144 7.14331 5.6509 -7.26088e-16 3.01872e-09 0.00913488 5.81055e-21 1
148 8.7307 5.6509 -7.25923e-16 -3.01872e-09 0.00913488 2.42413e-21 1
150 7.93701 5.65208 0.793701 -1.3638e-19 0.00924874 -9.30131e-20 1
187 7.14331 6.4446 0.793701 3.01872e-09 0.00913488 -3.66107e-20 1
189 7.93701 6.44578 -7.288e-16 -1.4327e-19 0.00924874 4.00945e-21 1
191 8.7307 6.4446 0.793701 -3.01872e-09 0.00913488 -1.7606e-18 1
564 7.14331 5.6509 1.5874 3.01872e-09 0.00913488 -2.58625e-20 1
568 8.7307 5.6509 1.5874 -3.01872e-09 0.00913488 -9.73635e-19 1
609 7.93701 6.44578 1.5874 -1.95116e-18 0.00924874 -1.00022e-18 1
152 10.3181 5.6416 -6.55859e-16 9.99404e-08 0.00824069 -2.14697e-21 1
154 9.52441 5.64738 0.793701 6.37915e-08 0.00879608 -5.34608e-19 1
193 9.52441 6.44108 -6.92884e-16 6.37915e-08 0.00879608 2.76643e-22 1
195 10.3181 6.4353 0.793701 9.99404e-08 0.00824069 -1.7911e-18 1
572 10.3181 5.6416 1.5874 9.99404e-08 0.00824069 -1.04876e-18 1
613 9.52441 6.44108 1.5874 6.37915e-08 0.00879608 -1.07851e-17 1
156 11.9055 5.62392 -5.23852e-16 1.31773e-07 0.00653985 2.60191e-21 1
158 11.1118 5.63372 0.793701 1.20242e-07 0.00748239 -1.96561e-19 1
197 11.1118 6.42742 -5.95766e-16 1.20242e-07 0.00748239 1.19747e-22 1
199 11.9055 6.41762 0.793701 1.31773e-07 0.00653985 -2.0545e-19 1
576 11.9055 5.62392 1.5874 1.31773e-07 0.00653985 -3.55125e-19 1
617 11.1118 6.42742 1.5874 1.20242e-07 0.00748239 -1.14813e-18 1
160 13.4929 5.59957 -3.41167e-16 1.14599e-07 0.00419884 -7.14309e-22 1
162 12.6992 5.61244 0.793701 1.30682e-07 0.00543627 -1.75463e-19 1
201 12.6992 6.40614 -4.36611e-16 1.30682e-07 0.00543627 3.38338e-21 1
203 13.4929 6.39327 0.793701 1.14599e-07 0.00419884 -1.2155e-19 1
580 13.4929 5.59957 1.5874 1.14599e-07 0.00419884 -2.32769e-19 1
621 12.6992 6.40614 1.5874 1.30682e-07 0.00543627 -3.43538e-19 1
164 15.0803 5.57095 -1.19717e-16 4.50847e-08 0.00144682 -8.92169e-21 1
166 14.2866 5.58563 0.793701 8.48707e-08 0.00285802 -6.56845e-20 1
168 15.874 5.5559 0.793701 -1.98305e-18 -8.12036e-18 -8.53993e-21 1
205 14.2866 6.37933 -2.32784e-16 8.48707e-08 0.00285802 7.4542e-21 1
207 15.0803 6.36465 0.793701 4.50847e-08 0.00144682 -1.35498e-20 1
209 15.874 6.3496 9.72091e-21 -1.4159e-18 -5.25488e-18 1.11773e-21 1
584 15.0803 5.57095 1.5874 4.50847e-08 0.00144682 -5.09598e-20 1
625 14.2866 6.37933 1.5874 8.48707e-08 0.00285802 -1.19971e-19 1
629 15.874 6.3496 1.5874 -1.4058e-18 -5.22331e-18 -4.77534e-21 1
170 0.793701 7.15835 -1.19881e-16 -4.50847e-08 0.00144682 -6.62237e-20 1
172 1.0357e-18 7.1433 0.793701 2.87822e-19 -2.19038e-17 -5.04885e-20 1
176 1.5874 7.17303 0.793701 -8.48707e-08 0.00285802 -3.78371e-20 1
211 1.68011e-18 7.93701 -4.04814e-19 5.29481e-19 -1.75243e-17 -2.1374e-19 1
212 0.793701 8.74575 -1.23352e-16 -4.50847e-08 0.00144682 -7.3538e-19 1
213 0.793701 7.95205 0.793701 -4.50847e-08 0.00144682 -2.71384e-19 1
214 2.24036e-18 8.73071 0.793701 3.76457e-19 -1.75513e-17 -3.71537e-19 1
215 1.5874 7.96673 -2.35821e-16 -8.48707e-08 0.00285802 -1.28966e-19 1
218 1.5874 8.76043 0.793701 -8.48707e-08 0.00285802 -1.34253e-19 1
590 0.793701 7.15835 1.5874 -4.50847e-08 0.00144682 -5.46909e-20 1
631 1.2663e-18 7.93701 1.5874 3.42656e-19 -1.78934e-17 -9.22031e-20 1
632 0.793701 8.74575 1.5874 -4.50847e-08 0.00144682 -2.36559e-19 1
635 1.5874 7.96673 1.5874 -8.48707e-08 0.00285802 -1.17044e-19 1
174 2.3811 7.18697 -3.41787e-16 -1.14599e-07 0.00419884 5.47184e-20 1
180 3.1748 7.19984 0.793701 -1.30682e-07 0.00543627 6.08055e-20 1
216 2.3811 8.77437 -3.43328e-16 -1.14599e-07 0.00419884 2.03389e-19 1
217 2.3811 7.98067 0.793701 -1.14599e-07 0.00419884 -2.06054e-20 1
219 3.1748 7.99354 -4.40049e-16 -1.30682e-07 0.00543627 6.3248e-20 1
222 3.1748 8.78724 0.793701 -1.30682e-07 0.00543627 6.76163e-20 1
594 2.3811 7.18697 1.5874 -1.14599e-07 0.00419884 -4.36695e-20 1
636 2.3811 8.77437 1.5874 -1.14599e-07 0.00419884 -8.54643e-20 1
639 3.1748 7.99354 1.5874 -1.30682e-07 0.00543627 -1.41106e-20 1
178 3.9685 7.21132 -5.2387e-16 -1.31773e-07 0.00653985 8.77353e-20 1
184 4.7622 7.22112 0.793701 -1.20242e-07 0.00748239 5.83828e-20 1
220 3.9685 8.79872 -5.25493e-16 -1.31773e-07 0.00653985 1.01559e-19 1
221 3.9685 8.00502 0.793701 -1.31773e-07 0.00653985 7.13339e-20 1
223 4.7622 8.01482 -5.99106e-16 -1.20242e-07 0.00748239 9.12759e-20 1
226 4.7622 8.80852 0.793701 -1.20242e-07 0.00748239 6.19762e-20 1
598 3.9685 7.21132 1.5874 -1.31773e-07 0.00653985 -6.12632e-21 1
640 3.9685 8.79872 1.5874 -1.31773e-07 0.00653985 4.53514e-21 1
643 4.7622 8.01482 1.5874 -1.20242e-07 0.00748239 1.18611e-20 1
182 5.5559 7.229 -6.56835e-16 -9.99404e-08 0.00824069 5.21498e-20 1
188 6.34961 7.23478 0.793701 -6.37915e-08 0.00879608 1.82923e-20 1
224 5.5559 8.8164 -6.55073e-16 -9.99404e-08 0.00824069 5.3521e-20 1
225 5.5559 8.0227 0.793701 -9.99404e-08 0.00824069 5.13949e-20 1
227 6.34961 8.02848 -7.06e-16 -6.37915e-08 0.00879608 3.2177e-20 1
230 6.34961 8.82218 0.793701 -6.37915e-08 0.00879608 7.18146e-20 1
602 5.5559 7.229 1.5874 -9.99404e-08 0.00824069 9.87399e-21 1
644 5.5559 8.8164 1.5874 -9.99404e-08 0.00824069 1.10827e-19 1
647 6.34961 8.02848 1.5874 -6.37915e-08 0.00879608 4.07522e-19 1
186 7.14331 7.2383 -7.23988e-16 3.01872e-09 0.00913488 1.02155e-20 1
190 8.7307 7.2383 -7.22e-16 -3.01872e-09 0.00913488 1.06414e-21 1
192 7.93701 7.23949 0.793701 -6.12768e-19 0.00924874 -6.00554e-19 1
228 7.14331 8.8257 -7.22761e-16 3.01872e-09 0.00913488 1.0958e-20 1
229 7.14331 8.032 0.793701 3.01872e-09 0.00913488 1.23521e-20 1
231 7.93701 8.03319 -7.354e-16 -8.14818e-20 0.00924874 3.94144e-21 1
232 8.7307 8.8257 -7.22425e-16 -3.01872e-09 0.00913488 1.15491e-21 1
233 8.7307 8.032 0.793701 -3.01872e-09 0.00913488 -1.67653e-18 1
234 7.93701 8.82689 0.793701 3.04276e-19 0.00924874 1.31215e-19 1
606 7.14331 7.2383 1.5874 3.01872e-09 0.00913488 -1.68002e-20 1
610 8.7307 7.2383 1.5874 -3.01872e-09 0.00913488 -1.05286e-17 1
648 7.14331 8.8257 1.5874 3.01872e-09 0.00913488 2.72183e-18 1
651 7.93701 8.03319 1.5874 -1.82437e-18 0.00924874 6.19488e-20 1
652 8.7307 8.8257 1.5874 -3.01872e-09 0.00913488 2.01283e-18 1
194 10.3181 7.229 -6.56124e-16 9.99404e-08 0.00824069 -9.21331e-22 1
196 9.52441 7.23478 0.793701 6.37915e-08 0.00879608 -6.20047e-18 1
235 9.52441 8.02848 -7.02757e-16 6.37915e-08 0.00879608 -6.6428e-23 1
236 10.3181 8.8164 -6.54685e-16 9.99404e-08 0.00824069 1.31594e-21 1
237 10.3181 8.0227 0.793701 9.99404e-08 0.00824069 -1.77741e-18 1
238 9.52441 8.82218 0.793701 6.37915e-08 0.00879608 -4.27905e-19 1
614 10.3181 7.229 1.5874 9.99404e-08 0.00824069 -1.08248e-17 1
655 9.52441 8.02848 1.5874 6.37915e-08 0.00879608 -1.03237e-17 1
656 10.3181 8.8164 1.5874 9.99404e-08 0.00824069 -8.35372e-19 1
198 11.9055 7.21132 -5.27038e-16 1.31773e-07 0.00653985 1.79819e-21 1
200 11.1118 7.22112 0.793701 1.20242e-07 0.00748239 -5.89666e-19 1
239 11.1118 8.01482 -5.98691e-16 1.20242e-07 0.00748239 1.28758e-21 1
240 11.9055 8.79872 -5.24777e-16 1.31773e-07 0.00653985 -6.64265e-21 1
241 11.9055 8.00502 0.793701 1.31773e-07 0.00653985 -1.10374e-19 1
242 11.1118 8.80852 0.793701 1.20242e-07 0.00748239 -1.00305e-19 1
618 11.9055 7.21132 1.5874 1.31773e-07 0.00653985 -3.53199e-19 1
659 11.1118 8.01482 1.5874 1.20242e-07 0.00748239 -1.05945e-18 1
660 11.9055 8.79872 1.5874 1.31773e-07 0.00653985 -6.73848e-20 1
202 13.4929 7.18697 -3.4123e-16 1.14599e-07 0.00419884 8.76679e-21 1
204 12.6992 7.19984 0.793701 1.30682e-07 0.00543627 -1.31692e-19 1
243 12.6992 7.99354 -4.40114e-16 1.30682e-07 0.00543627 7.92157e-21 1
244 13.4929 8.77437 -3.41529e-16 1.14599e-07 0.00419884 -8.90378e-20 1
245 13.4929 7.98067 0.793701 1.14599e-07 0.00419884 -2.28441e-20 1
246 12.6992 8.78724 0.793701 1.30682e-07 0.00543627 -2.37494e-20 1
622 13.4929 7.18697 1.5874 1.14599e-07 0.00419884 -1.67681e-19 1
663 12.6992 7.99354 1.5874 1.30682e-07 0.00543627 -1.35789e-19 1
664 13.4929 8.77437 1.5874 1.14599e-07 0.00419884 1.16096e-19 1
206 15.0803 7.15835 -1.19413e-16 4.50847e-08 0.00144682 7.19534e-20 1
208 14.2866 7.17303 0.793701 8.48707e-08 0.00285802 -2.68141e-20 1
210 15.874 7.1433 0.793701 -9.75616e-19 -4.25335e-18 1.57389e-20 1
247 14.2866 7.96673 -2.33699e-16 8.48707e-08 0.00285802 1.66391e-19 1
248 15.0803 8.74575 -1.16424e-16 4.50847e-08 0.00144682 7.49517e-19 1
249 15.0803 7.95205 0.793701 4.50847e-08 0.00144682 2.66167e-20 1
250 14.2866 8.76043 0.793701 8.48707e-08 0.00285802 3.63705e-20 1
251 15.874 7.93701 4.52387e-19 -1.12864e-18 -7.43722e-19 2.19467e-19 1
252 15.874 8.73071 0.793701 -1.93585e-18 -1.40861e-18 2.8966e-20 1
626 15.0803 7.15835 1.5874 4.50847e-08 0.00144682 -6.27745e-20 1
667 14.2866 7.96673 1.5874 8.48707e-08 0.00285802 -1.57911e-19 1
668 15.0803 8.74575 1.5874 4.50847e-08 0.00144682 -6.90315e-19 1
671 15.874 7.93701 1.5874 -1.14522e-18 -6.99744e-19 -1.79234e-19 1
253 7.19401e-18 9.52441 -2.8532e-18 -2.2214e-18 -2.45955e-17 -2.07537e-19 1
254 0.793701 10.3332 -1.17656e-16 -4.50847e-08 0.00144682 6.10636e-18 1
255 0.793701 9.53945 0.793701 -4.50847e-08 0.00144682 1.11629e-19 1
256 4.66149e-18 10.3181 0.793701 -1.06151e-17 -2.83928e-17 6.94083e-19 1
257 1.5874 9.55413 -2.35035e-16 -8.48707e-08 0.00285802 1.53444e-18 1
260 1.5874 10.3478 0.793701 -8.48707e-08 0.00285802 1.88934e-18 1
673 4.69993e-18 9.52441 1.5874 -2.10642e-18 -2.3855e-17 -3.03659e-19 1
674 0.793701 10.3332 1.5874 -4.50847e-08 0.00144682 -4.41748e-19 1
677 1.5874 9.55413 1.5874 -8.48707e-08 0.00285802 -2.17902e-19 1
258 2.3811 10.3618 -3.4077e-16 -1.14599e-07 0.00419884 8.74821e-19 1
259 2.3811 9.56807 0.793701 -1.14599e-07 0.00419884 4.01957e-19 1
261 3.1748 9.58094 -4.37867e-16 -1.30682e-07 0.00543627 1.97305e-19 1
264 3.1748 10.3746 0.793701 -1.30682e-07 0.00543627 3.67035e-20 1
678 2.3811 10.3618 1.5874 -1.14599e-07 0.00419884 -1.1603e-19 1
681 3.1748 9.58094 1.5874 -1.30682e-07 0.00543627 -3.56712e-20 1
262 3.9685 10.3861 -5.25753e-16 -1.31773e-07 0.00653985 -2.26097e-20 1
263 3.9685 9.59242 0.793701 -1.31773e-07 0.00653985 6.87708e-20 1
265 4.7622 9.60222 -5.96606e-16 -1.20242e-07 0.00748239 5.60689e-20 1
268 4.7622 10.3959 0.793701 -1.20242e-07 0.00748239 2.60409e-20 1
682 3.9685 10.3861 1.5874 -1.31773e-07 0.00653985 -5.00779e-22 1
685 4.7622 9.60222 1.5874 -1.20242e-07 0.00748239 1.61443e-20 1
266 5.5559 10.4038 -6.53593e-16 -9.99404e-08 0.00824069 2.04745e-20 1
267 5.5559 9.61011 0.793701 -9.99404e-08 0.00824069 4.33488e-20 1
269 6.34961 9.61588 -7.04024e-16 -6.37915e-08 0.00879608 1.95765e-20 1
272 6.34961 10.4096 0.793701 -6.37915e-08 0.00879608 7.22068e-20 1
686 5.5559 10.4038 1.5874 -9.99404e-08 0.00824069 1.14979e-19 1
689 6.34961 9.61588 1.5874 -6.37915e-08 0.00879608 1.05296e-18 1
270 7.14331 10.4131 -7.26136e-16 3.01872e-09 0.00913488 3.48208e-21 1
271 7.14331 9.6194 0.793701 3.01872e-09 0.00913488 2.01424e-19 1
273 7.93701 9.62059 -7.39505e-16 4.63913e-18 0.00924874 3.2237e-21 1
274 8.7307 10.4131 -7.24288e-16 -3.01872e-09 0.00913488 2.18751e-21 1
275 8.7307 9.6194 0.793701 -3.01872e-09 0.00913488 2.68504e-19 1
276 7.93701 10.4143 0.793701 1.71446e-17 0.00924874 3.28428e-19 1
690 7.14331 10.4131 1.5874 3.01872e-09 0.00913488 3.08198e-18 1
693 7.93701 9.62059 1.5874 4.96349e-18 0.00924874 5.90847e-18 1
694 8.7307 10.4131 1.5874 -3.01872e-09 0.00913488 4.91135e-18 1
277 9.52441 9.61588 -7.00624e-16 6.37915e-08 0.00879608 1.72804e-21 1
278 10.3181 10.4038 -6.5162e-16 9.99404e-08 0.00824069 4.55811e-22 1
279 10.3181 9.61011 0.793701 9.99404e-08 0.00824069 6.17914e-21 1
280 9.52441 10.4096 0.793701 6.37915e-08 0.00879608 1.89564e-19 1
697 9.52441 9.61588 1.5874 6.37915e-08 0.00879608 1.59328e-18 1
698 10.3181 10.4038 1.5874 9.99404e-08 0.00824069 3.36641e-19 1
281 11.1118 9.60222 -5.9704e-16 1.20242e-07 0.00748239 -2.79415e-21 1
282 11.9055 10.3861 -5.24007e-16 1.31773e-07 0.00653985 -4.72098e-20 1
283 11.9055 9.59242 0.793701 1.31773e-07 0.00653985 5.6801e-21 1
284 11.1118 10.3959 0.793701 1.20242e-07 0.00748239 1.67859e-20 1
701 11.1118 9.60222 1.5874 1.20242e-07 0.00748239 -4.92946e-21 1
702 11.9055 10.3861 1.5874 1.31773e-07 0.00653985 7.51862e-20 1
285 12.6992 9.58094 -4.37632e-16 1.30682e-07 0.00543627 -2.33992e-19 1
286 13.4929 10.3618 -3.43921e-16 1.14599e-07 0.00419884 -2.37304e-18 1
287 13.4929 9.56807 0.793701 1.14599e-07 0.00419884 3.66762e-20 1
288 12.6992 10.3746 0.793701 1.30682e-07 0.00543627 4.75093e-20 1
705 12.6992 9.58094 1.5874 1.30682e-07 0.00543627 2.68397e-19 1
706 13.4929 10.3618 1.5874 1.14599e-07 0.00419884 2.44904e-18 1
289 14.2866 9.55413 -2.33385e-16 8.48707e-08 0.00285802 -1.61503e-18 1
290 15.0803 10.3332 -1.22791e-16 4.50847e-08 0.00144682 -5.97823e-18 1
291 15.0803 9.53945 0.793701 4.50847e-08 0.00144682 3.96909e-20 1
292 14.2866 10.3478 0.793701 8.48707e-08 0.00285802 3.71585e-20 1
293 15.874 9.52441 2.90115e-18 1.11768e-18 -1.05881e-17 2.5609e-19 1
294 15.874 10.3181 0.793701 1.39229e-17 -2.08881e-17 2.60924e-20 1
709 14.2866 9.55413 1.5874 8.48707e-08 0.00285802 1.68606e-18 1
710 15.0803 10.3332 1.5874 4.50847e-08 0.00144682 6.04114e-18 1
713 15.874 9.52441 1.5874 1.09616e-18 -1.06087e-17 -2.07694e-19 1
295 -7.38011e-18 11.1118 4.52504e-18 -3.01265e-17 -3.27172e-17 5.82219e-18 1