ITEM: TIMESTEP
18000
ITEM: NUMBER OF ATOMS
8000
ITEM: BOX BOUNDS pp pp pp
0.0000000000000000e+00 3.1748021039364001e+01
0.0000000000000000e+00 1.5874010519682001e+01
0.0000000000000000e+00 1.5874010519682001e+01
ITEM: ATOMS id x y z vx vy vz c_rho_peratom
2 0.793709 0.894806 -1.21504e-16 -3.63744e-09 0.000774571 3.33377e-17 1
3 0.793709 0.101106 0.793701 -3.63744e-09 0.000774571 2.25928e-17 1
4 1.1763e-16 0.793701 0.793701 -2.82991e-17 -8.88503e-17 2.06962e-17 1
5 1.58743 0.199692 -2.62886e-16 -7.04843e-09 0.00153009 1.83322e-17 1
8 1.58743 0.993392 0.793701 -7.04843e-09 0.00153009 2.15236e-17 1
43 8.02394e-17 1.5874 3.50929e-17 -3.72052e-17 -5.6868e-17 4.03388e-17 1
45 0.793709 1.68851 0.793701 -3.63744e-09 0.000774571 2.4384e-17 1
422 0.793709 0.894806 1.5874 -3.63744e-09 0.000774571 1.77299e-17 1
425 1.58743 0.199692 1.5874 -7.04843e-09 0.00153009 2.84564e-17 1
463 -5.6475e-17 1.5874 1.5874 -2.70717e-17 -4.41073e-17 8.76159e-18 1
6 2.38116 1.08703 -3.62107e-16 -1.03639e-08 0.00224796 1.40433e-17 1
7 2.38116 0.293334 0.793701 -1.03639e-08 0.00224796 1.14849e-17 1
9 3.17489 0.379733 -4.04164e-16 -1.32353e-08 0.00291047 -2.69376e-18 1
12 3.17489 1.17343 0.793701 -1.32353e-08 0.00291047 4.84645e-19 1
426 2.38116 1.08703 1.5874 -1.03639e-08 0.00224796 2.57225e-17 1
429 3.17489 0.379733 1.5874 -1.32353e-08 0.00291047 1.14453e-17 1
10 3.96861 1.25047 -4.70497e-16 -1.51752e-08 0.0035013 -1.05378e-17 1
11 3.96861 0.456766 0.793701 -1.51752e-08 0.0035013 -6.96197e-18 1
16 4.76232 1.31625 0.793701 -1.63508e-08 0.00400591 -5.05162e-18 1
430 3.96861 1.25047 1.5874 -1.51752e-08 0.0035013 1.43207e-17 1
433 4.76232 0.522545 1.5874 -1.63508e-08 0.00400591 1.39118e-17 1
15 5.55601 0.575456 0.793701 -1.66547e-08 0.00441187 8.44483e-19 1
20 6.34969 1.4079 0.793701 -9.95227e-09 0.00470919 -4.04149e-18 1
434 5.55601 1.36916 1.5874 -1.66547e-08 0.00441187 1.44359e-17 1
437 6.34969 0.614203 1.5874 -9.95227e-09 0.00470919 2.22376e-17 1
19 7.14335 0.637838 0.793701 1.36115e-08 0.00489056 1.19183e-17 1
23 8.73066 0.637838 0.793701 -1.36115e-08 0.00489056 1.06345e-17 1
24 7.93701 1.43948 0.793701 -1.6273e-17 0.00495151 7.01627e-19 1
438 7.14335 1.43154 1.5874 1.36115e-08 0.00489056 1.19786e-17 1
441 7.93701 0.645781 1.5874 -1.99386e-17 0.00495151 2.48e-17 1
442 8.73066 1.43154 1.5874 -1.36115e-08 0.00489056 3.07838e-18 1
27 10.318 0.575456 0.793701 1.66547e-08 0.00441187 2.53508e-17 1
28 9.52433 1.4079 0.793701 9.95227e-09 0.00470919 8.87561e-19 1
445 9.52433 0.614203 1.5874 9.95227e-09 0.00470919 1.04301e-17 1
446 10.318 1.36916 1.5874 1.66547e-08 0.00441187 9.45848e-18 1
30 11.9054 1.25047 -1.27381e-16 1.51752e-08 0.0035013 2.72663e-17 1
31 11.9054 0.456766 0.793701 1.51752e-08 0.0035013 4.08372e-17 1
32 11.1117 1.31625 0.793701 1.63508e-08 0.00400591 2.67316e-17 1
449 11.1117 0.522545 1.5874 1.63508e-08 0.00400591 2.24763e-17 1
450 11.9054 1.25047 1.5874 1.51752e-08 0.0035013 2.63057e-17 1
33 12.6991 0.379733 -8.64255e-17 1.32353e-08 0.00291047 4.75169e-17 1
34 13.4929 1.08703 -8.17127e-17 1.03639e-08 0.00224796 1.09709e-17 1
35 13.4929 0.293334 0.793701 1.03639e-08 0.00224796 2.74332e-17 1
36 12.6991 1.17343 0.793701 1.32353e-08 0.00291047 2.52699e-17 1
453 12.6991 0.379733 1.5874 1.32353e-08 0.00291047 1.73684e-17 1
454 13.4929 1.08703 1.5874 1.03639e-08 0.00224796 2.55083e-17 1
37 14.2866 0.199692 -9.6509e-17 7.04843e-09 0.00153009 1.08142e-17 1
38 15.0803 0.894806 -2.32907e-17 3.63744e-09 0.000774571 -2.43056e-17 1
39 15.0803 0.101106 0.793701 3.63744e-09 0.000774571 7.34674e-18 1
40 14.2866 0.993392 0.793701 7.04843e-09 0.00153009 1.15569e-17 1
41 15.874 9.39844e-17 2.24258e-16 1.05834e-16 -3.68765e-17 -3.12639e-17 1
42 15.874 0.793701 0.793701 1.12278e-16 -7.94418e-18 -2.66139e-18 1
81 15.0803 1.68851 0.793701 3.63744e-09 0.000774571 -9.08044e-18 1
83 15.874 1.5874 1.40716e-16 1.20531e-16 2.27956e-17 -3.74086e-17 1
457 14.2866 0.199692 1.5874 7.04843e-09 0.00153009 3.17786e-17 1
458 15.0803 0.894806 1.5874 3.63744e-09 0.000774571 2.39072e-17 1
461 15.874 1.3537e-16 1.5874 7.74163e-17 -3.16272e-17 1.71832e-17 1
503 15.874 1.5874 1.5874 1.28842e-16 1.35721e-17 7.90351e-18 1
47 1.58743 1.78709 -2.54594e-16 -7.04843e-09 0.00153009 3.17098e-17 1
467 1.58743 1.78709 1.5874 -7.04843e-09 0.00153009 2.8723e-17 1
44 0.793709 2.48221 -2.54161e-16 -3.63744e-09 0.000774571 5.18388e-17 1
46 -7.39386e-17 2.3811 0.793701 -3.92823e-17 -2.64254e-18 3.33333e-17 1
50 1.58743 2.58079 0.793701 -7.04843e-09 0.00153009 2.68759e-17 1
85 -1.44863e-16 3.1748 -1.12446e-16 -5.27887e-17 2.81161e-18 6.50025e-17 1
87 0.793709 3.27591 0.793701 -3.63744e-09 0.000774571 4.0214e-17 1
89 1.58743 3.37449 -3.96537e-16 -7.04843e-09 0.00153009 5.57831e-17 1
464 0.793709 2.48221 1.5874 -3.63744e-09 0.000774571 1.73196e-17 1
505 -1.35645e-16 3.1748 1.5874 -4.31409e-17 1.57837e-17 5.70584e-18 1
509 1.58743 3.37449 1.5874 -7.04843e-09 0.00153009 3.42241e-17 1
49 2.38116 1.88074 0.793701 -1.03639e-08 0.00224796 1.86789e-17 1
51 3.17489 1.96713 -4.44769e-16 -1.32353e-08 0.00291047 -8.87402e-19 1
471 3.17489 1.96713 1.5874 -1.32353e-08 0.00291047 4.09995e-17 1
48 2.38116 2.67444 -4.08081e-16 -1.03639e-08 0.00224796 2.46738e-17 1
54 3.17489 2.76083 0.793701 -1.32353e-08 0.00291047 3.20772e-17 1
91 2.38116 3.46814 0.793701 -1.03639e-08 0.00224796 6.05685e-17 1
468 2.38116 2.67444 1.5874 -1.03639e-08 0.00224796 5.73122e-17 1
53 3.96861 2.04417 0.793701 -1.51752e-08 0.0035013 -2.36282e-18 1
475 4.76232 2.10995 1.5874 -1.63508e-08 0.00400591 3.15608e-17 1
52 3.96861 2.83787 -4.70247e-16 -1.51752e-08 0.0035013 -5.08298e-18 1
58 4.76232 2.90365 0.793701 -1.63508e-08 0.00400591 1.07061e-17 1
472 3.96861 2.83787 1.5874 -1.51752e-08 0.0035013 6.195e-17 1
57 5.55601 2.16286 0.793701 -1.66547e-08 0.00441187 -8.86819e-18 1
479 6.34969 2.2016 1.5874 -9.95227e-09 0.00470919 -1.75121e-18 1
62 6.34969 2.9953 0.793701 -9.95227e-09 0.00470919 -1.5485e-17 1
476 5.55601 2.95656 1.5874 -1.66547e-08 0.00441187 1.44686e-17 1
61 7.14335 2.22524 0.793701 1.36115e-08 0.00489056 -8.57973e-18 1
65 8.73066 2.22524 0.793701 -1.36115e-08 0.00489056 -8.71308e-18 1
483 7.93701 2.23318 1.5874 -1.6774e-17 0.00495151 -5.70692e-18 1
66 7.93701 3.02688 0.793701 -9.44223e-18 0.00495151 -1.40337e-17 1
480 7.14335 3.01894 1.5874 1.36115e-08 0.00489056 -1.41254e-17 1
484 8.73066 3.01894 1.5874 -1.36115e-08 0.00489056 -2.09453e-17 1
69 10.318 2.16286 0.793701 1.66547e-08 0.00441187 -1.33259e-17 1
487 9.52433 2.2016 1.5874 9.95227e-09 0.00470919 -1.2498e-17 1
70 9.52433 2.9953 0.793701 9.95227e-09 0.00470919 -2.8487e-17 1
488 10.318 2.95656 1.5874 1.66547e-08 0.00441187 -1.54966e-17 1
73 11.9054 2.04417 0.793701 1.51752e-08 0.0035013 1.99537e-18 1
491 11.1117 2.10995 1.5874 1.63508e-08 0.00400591 1.62193e-17 1
72 11.9054 2.83787 -3.76325e-16 1.51752e-08 0.0035013 -4.85064e-17 1
74 11.1117 2.90365 0.793701 1.63508e-08 0.00400591 -3.93924e-17 1
492 11.9054 2.83787 1.5874 1.51752e-08 0.0035013 1.67291e-17 1
77 13.4929 1.88074 0.793701 1.03639e-08 0.00224796 -4.5405e-18 1
75 12.6991 1.96713 -1.53093e-16 1.32353e-08 0.00291047 -1.84668e-17 1
495 12.6991 1.96713 1.5874 1.32353e-08 0.00291047 2.0884e-17 1
76 13.4929 2.67444 -2.24327e-16 1.03639e-08 0.00224796 -5.58289e-17 1
78 12.6991 2.76083 0.793701 1.32353e-08 0.00291047 -3.70431e-17 1
119 13.4929 3.46814 0.793701 1.03639e-08 0.00224796 -5.88027e-17 1
496 13.4929 2.67444 1.5874 1.03639e-08 0.00224796 -7.0392e-18 1
79 14.2866 1.78709 -1.11473e-16 7.04843e-09 0.00153009 -3.00062e-17 1
499 14.2866 1.78709 1.5874 7.04843e-09 0.00153009 7.36677e-18 1
80 15.0803 2.48221 -2.11377e-17 3.63744e-09 0.000774571 -4.55007e-17 1
82 14.2866 2.58079 0.793701 7.04843e-09 0.00153009 -3.16654e-17 1
84 15.874 2.3811 0.793701 1.25463e-16 3.27106e-17 -9.80379e-18 1
121 14.2866 3.37449 -1.36165e-16 7.04843e-09 0.00153009 -5.71374e-17 1
123 15.0803 3.27591 0.793701 3.63744e-09 0.000774571 -4.22548e-17 1
125 15.874 3.1748 1.62072e-16 9.23356e-17 4.48775e-17 -3.53283e-17 1
500 15.0803 2.48221 1.5874 3.63744e-09 0.000774571 -1.12675e-17 1
541 14.2866 3.37449 1.5874 7.04843e-09 0.00153009 -3.44759e-17 1
545 15.874 3.1748 1.5874 1.35185e-16 2.77573e-17 -1.1587e-17 1
86 0.793709 4.06961 -3.72745e-16 -3.63744e-09 0.000774571 8.23355e-17 1
88 -1.58559e-16 3.9685 0.793701 -6.32738e-17 -4.95589e-18 4.84517e-17 1
92 1.58743 4.16819 0.793701 -7.04843e-09 0.00153009 6.64128e-17 1
127 -6.0123e-17 4.7622 5.8736e-17 -1.00652e-16 -5.30173e-17 8.91608e-17 1
129 0.793709 4.86331 0.793701 -3.63744e-09 0.000774571 6.7161e-17 1
131 1.58743 4.96189 -5.64316e-16 -7.04843e-09 0.00153009 8.66549e-17 1
506 0.793709 4.06961 1.5874 -3.63744e-09 0.000774571 1.64165e-17 1
547 -2.22702e-16 4.7622 1.5874 -6.83274e-17 -4.10143e-17 1.82713e-18 1
551 1.58743 4.96189 1.5874 -7.04843e-09 0.00153009 4.10503e-17 1
93 3.17489 3.55453 -4.66599e-16 -1.32353e-08 0.00291047 3.4783e-17 1
513 3.17489 3.55453 1.5874 -1.32353e-08 0.00291047 7.36725e-17 1
90 2.38116 4.26184 -5.45327e-16 -1.03639e-08 0.00224796 7.00739e-17 1
96 3.17489 4.34824 0.793701 -1.32353e-08 0.00291047 9.52038e-17 1
133 2.38116 5.05554 0.793701 -1.03639e-08 0.00224796 9.91804e-17 1
135 3.17489 5.14194 -6.02871e-16 -1.32353e-08 0.00291047 8.53047e-17 1
510 2.38116 4.26184 1.5874 -1.03639e-08 0.00224796 5.59553e-17 1
555 3.17489 5.14194 1.5874 -1.32353e-08 0.00291047 7.54695e-17 1
95 3.96861 3.63157 0.793701 -1.51752e-08 0.0035013 5.28893e-17 1
517 4.76232 3.69735 1.5874 -1.63508e-08 0.00400591 6.20461e-17 1
94 3.96861 4.42527 -4.19916e-16 -1.51752e-08 0.0035013 4.70761e-17 1
100 4.76232 4.49105 0.793701 -1.63508e-08 0.00400591 5.48301e-17 1
137 3.96861 5.21897 0.793701 -1.51752e-08 0.0035013 9.88711e-17 1
514 3.96861 4.42527 1.5874 -1.51752e-08 0.0035013 8.45232e-17 1
559 4.76232 5.28475 1.5874 -1.63508e-08 0.00400591 7.945e-17 1
99 5.55601 3.75026 0.793701 -1.66547e-08 0.00441187 1.83402e-18 1
521 6.34969 3.78901 1.5874 -9.95227e-09 0.00470919 -1.16517e-17 1
104 6.34969 4.58271 0.793701 -9.95227e-09 0.00470919 -9.74521e-18 1
518 5.55601 4.54396 1.5874 -1.66547e-08 0.00441187 3.86843e-17 1
103 7.14335 3.81264 0.793701 1.36115e-08 0.00489056 -1.54712e-17 1
107 8.73066 3.81264 0.793701 -1.36115e-08 0.00489056 -2.40642e-17 1
525 7.93701 3.82058 1.5874 -5.01561e-18 0.00495151 -2.25821e-17 1
108 7.93701 4.61428 0.793701 7.9978e-18 0.00495151 -8.52744e-18 1
522 7.14335 4.60634 1.5874 1.36115e-08 0.00489056 -1.88785e-17 1
526 8.73066 4.60634 1.5874 -1.36115e-08 0.00489056 -3.24834e-17 1
111 10.318 3.75026 0.793701 1.66547e-08 0.00441187 -5.6141e-17 1
529 9.52433 3.78901 1.5874 9.95227e-09 0.00470919 -3.5423e-17 1
112 9.52433 4.58271 0.793701 9.95227e-09 0.00470919 -4.37987e-17 1
530 10.318 4.54396 1.5874 1.66547e-08 0.00441187 -4.9425e-17 1
115 11.9054 3.63157 0.793701 1.51752e-08 0.0035013 -7.16682e-17 1
533 11.1117 3.69735 1.5874 1.63508e-08 0.00400591 -1.64937e-17 1
114 11.9054 4.42527 -4.8572e-16 1.51752e-08 0.0035013 -7.30932e-17 1
116 11.1117 4.49105 0.793701 1.63508e-08 0.00400591 -8.43914e-17 1
157 11.9054 5.21897 0.793701 1.51752e-08 0.0035013 -9.50228e-17 1
534 11.9054 4.42527 1.5874 1.51752e-08 0.0035013 -5.87413e-17 1
575 11.1117 5.28475 1.5874 1.63508e-08 0.00400591 -7.56295e-17 1
537 12.6991 3.55453 1.5874 1.32353e-08 0.00291047 -2.94526e-17 1
118 13.4929 4.26184 -1.96329e-16 1.03639e-08 0.00224796 -5.58962e-17 1
120 12.6991 4.34824 0.793701 1.32353e-08 0.00291047 -8.52471e-17 1
161 13.4929 5.05554 0.793701 1.03639e-08 0.00224796 -6.65922e-17 1
538 13.4929 4.26184 1.5874 1.03639e-08 0.00224796 -6.20434e-17 1
579 12.6991 5.14194 1.5874 1.32353e-08 0.00291047 -8.55154e-17 1
122 15.0803 4.06961 1.4873e-17 3.63744e-09 0.000774571 -4.59756e-17 1
124 14.2866 4.16819 0.793701 7.04843e-09 0.00153009 -6.22767e-17 1
126 15.874 3.9685 0.793701 9.45395e-17 4.07691e-17 -2.92574e-17 1
163 14.2866 4.96189 -3.8568e-17 7.04843e-09 0.00153009 -3.62426e-17 1
165 15.0803 4.86331 0.793701 3.63744e-09 0.000774571 -5.16622e-17 1
167 15.874 4.7622 2.50058e-16 4.24495e-17 2.93391e-17 -1.90237e-17 1
542 15.0803 4.06961 1.5874 3.63744e-09 0.000774571 -4.02923e-17 1
583 14.2866 4.96189 1.5874 7.04843e-09 0.00153009 -6.14114e-17 1
587 15.874 4.7622 1.5874 9.52357e-17 3.63155e-17 -3.10222e-17 1
128 0.793709 5.65701 -4.30956e-16 -3.63744e-09 0.000774571 9.80519e-17 1
130 -2.24645e-16 5.5559 0.793701 -1.08494e-16 -7.88101e-17 5.93632e-17 1
134 1.58743 5.7556 0.793701 -7.04843e-09 0.00153009 8.29073e-17 1
169 -9.55917e-17 6.3496 1.38578e-16 -1.31719e-16 -1.02184e-16 9.66918e-17 1
171 0.793709 6.45071 0.793701 -3.63744e-09 0.000774571 7.03944e-17 1
173 1.58743 6.5493 -5.50429e-16 -7.04843e-09 0.00153009 8.31717e-17 1
548 0.793709 5.65701 1.5874 -3.63744e-09 0.000774571 2.29791e-17 1
589 -3.15406e-16 6.3496 1.5874 -1.09024e-16 -1.00897e-16 1.00202e-17 1
593 1.58743 6.5493 1.5874 -7.04843e-09 0.00153009 4.59618e-17 1
132 2.38116 5.84924 -6.77934e-16 -1.03639e-08 0.00224796 8.2312e-17 1
138 3.17489 5.93564 0.793701 -1.32353e-08 0.00291047 1.02847e-16 1
175 2.38116 6.64294 0.793701 -1.03639e-08 0.00224796 8.46221e-17 1
177 3.17489 6.72934 -5.84433e-16 -1.32353e-08 0.00291047 5.63617e-17 1
552 2.38116 5.84924 1.5874 -1.03639e-08 0.00224796 6.0497e-17 1
597 3.17489 6.72934 1.5874 -1.32353e-08 0.00291047 5.44431e-17 1
136 3.96861 6.01267 -4.85761e-16 -1.51752e-08 0.0035013 6.40826e-17 1
142 4.76232 6.07845 0.793701 -1.63508e-08 0.00400591 4.71514e-17 1
179 3.96861 6.80637 0.793701 -1.51752e-08 0.0035013 4.46687e-17 1
181 4.76232 6.87215 -3.38164e-16 -1.63508e-08 0.00400591 1.31184e-17 1
556 3.96861 6.01267 1.5874 -1.51752e-08 0.0035013 7.09367e-17 1
601 4.76232 6.87215 1.5874 -1.63508e-08 0.00400591 2.84852e-17 1
141 5.55601 5.33766 0.793701 -1.66547e-08 0.00441187 2.39199e-17 1
563 6.34969 5.37641 1.5874 -9.95227e-09 0.00470919 1.94319e-18 1
146 6.34969 6.17011 0.793701 -9.95227e-09 0.00470919 -8.94554e-18 1
183 5.55601 6.92506 0.793701 -1.66547e-08 0.00441187 -6.55147e-18 1
560 5.55601 6.13136 1.5874 -1.66547e-08 0.00441187 2.63222e-17 1
605 6.34969 6.96381 1.5874 -9.95227e-09 0.00470919 -1.73193e-17 1
145 7.14335 5.40004 0.793701 1.36115e-08 0.00489056 -2.9279e-18 1
149 8.73066 5.40004 0.793701 -1.36115e-08 0.00489056 -1.24705e-17 1
567 7.93701 5.40798 1.5874 1.24213e-17 0.00495151 -2.01594e-17 1
150 7.93701 6.20168 0.793701 2.4273e-17 0.00495151 -1.26225e-18 1
187 7.14335 6.98744 0.793701 1.36115e-08 0.00489056 -8.73708e-18 1
191 8.73066 6.98744 0.793701 -1.36115e-08 0.00489056 -8.20332e-18 1
564 7.14335 6.19374 1.5874 1.36115e-08 0.00489056 -1.90332e-17 1
568 8.73066 6.19374 1.5874 -1.36115e-08 0.00489056 -2.79002e-17 1
609 7.93701 6.99539 1.5874 3.07962e-17 0.00495151 -2.13639e-17 1
153 10.318 5.33766 0.793701 1.66547e-08 0.00441187 -6.30779e-17 1
571 9.52433 5.37641 1.5874 9.95227e-09 0.00470919 -5.01022e-17 1
154 9.52433 6.17011 0.793701 9.95227e-09 0.00470919 -2.7866e-17 1
195 10.318 6.92506 0.793701 1.66547e-08 0.00441187 -3.20455e-17 1
572 10.318 6.13136 1.5874 1.66547e-08 0.00441187 -6.39882e-17 1
613 9.52433 6.96381 1.5874 9.95227e-09 0.00470919 -3.41529e-17 1
156 11.9054 6.01267 -2.73237e-16 1.51752e-08 0.0035013 -4.5491e-17 1
158 11.1117 6.07845 0.793701 1.63508e-08 0.00400591 -6.76616e-17 1
199 11.9054 6.80637 0.793701 1.51752e-08 0.0035013 -5.16948e-17 1
576 11.9054 6.01267 1.5874 1.51752e-08 0.0035013 -8.98625e-17 1
617 11.1117 6.87215 1.5874 1.63508e-08 0.00400591 -6.55642e-17 1
160 13.4929 5.84924 -6.34549e-17 1.03639e-08 0.00224796 -2.85534e-17 1
162 12.6991 5.93564 0.793701 1.32353e-08 0.00291047 -6.61356e-17 1
201 12.6991 6.72934 -1.06446e-16 1.32353e-08 0.00291047 -2.50826e-17 1
203 13.4929 6.64294 0.793701 1.03639e-08 0.00224796 -3.54426e-17 1
580 13.4929 5.84924 1.5874 1.03639e-08 0.00224796 -6.49634e-17 1
621 12.6991 6.72934 1.5874 1.32353e-08 0.00291047 -6.53057e-17 1
164 15.0803 5.65701 1.83847e-17 3.63744e-09 0.000774571 -1.36519e-17 1
166 14.2866 5.7556 0.793701 7.04843e-09 0.00153009 -4.47935e-17 1
168 15.874 5.5559 0.793701 4.37273e-17 2.99248e-17 -2.33758e-17 1
205 14.2866 6.5493 -6.08559e-17 7.04843e-09 0.00153009 -6.214e-18 1
207 15.0803 6.45071 0.793701 3.63744e-09 0.000774571 -2.07477e-17 1
209 15.874 6.3496 1.27164e-16 1.51583e-17 -1.76999e-18 5.51211e-18 1
584 15.0803 5.65701 1.5874 3.63744e-09 0.000774571 -4.69758e-17 1
625 14.2866 6.5493 1.5874 7.04843e-09 0.00153009 -3.7851e-17 1
629 15.874 6.3496 1.5874 3.67242e-17 2.31169e-17 -2.08463e-17 1
170 0.793709 7.24441 -4.85698e-16 -3.63744e-09 0.000774571 8.54371e-17 1
172 -2.21442e-16 7.1433 0.793701 -1.34188e-16 -1.27861e-16 6.04575e-17 1
176 1.58743 7.343 0.793701 -7.04843e-09 0.00153009 7.40963e-17 1
211 -8.96107e-17 7.93701 2.73621e-17 -1.56604e-16 -1.1049e-16 7.08034e-17 1
213 0.793709 8.03811 0.793701 -3.63744e-09 0.000774571 6.91112e-17 1
214 1.3048e-17 8.73071 0.793701 -1.40583e-16 -1.01597e-16 4.98356e-17 1
215 1.58743 8.1367 -5.73624e-16 -7.04843e-09 0.00153009 6.18895e-17 1
590 0.793709 7.24441 1.5874 -3.63744e-09 0.000774571 4.03335e-17 1
631 -1.79372e-16 7.93701 1.5874 -1.26576e-16 -1.21633e-16 4.04841e-17 1
635 1.58743 8.1367 1.5874 -7.04843e-09 0.00153009 5.12057e-17 1
174 2.38116 7.43664 -5.88906e-16 -1.03639e-08 0.00224796 5.67675e-17 1
180 3.17489 7.52304 0.793701 -1.32353e-08 0.00291047 4.8023e-17 1
217 2.38116 8.23034 0.793701 -1.03639e-08 0.00224796 5.07794e-17 1
219 3.17489 8.31674 -4.73647e-16 -1.32353e-08 0.00291047 2.04945e-17 1
594 2.38116 7.43664 1.5874 -1.03639e-08 0.00224796 4.9146e-17 1
639 3.17489 8.31674 1.5874 -1.32353e-08 0.00291047 2.81741e-17 1
178 3.96861 7.60007 -4.39372e-16 -1.51752e-08 0.0035013 1.03088e-17 1
184 4.76232 7.66585 0.793701 -1.63508e-08 0.00400591 3.1419e-18 1
221 3.96861 8.39377 0.793701 -1.51752e-08 0.0035013 5.464e-18 1
598 3.96861 7.60007 1.5874 -1.51752e-08 0.0035013 2.55417e-17 1
643 4.76232 8.45955 1.5874 -1.63508e-08 0.00400591 8.3914e-18 1
188 6.34969 7.75751 0.793701 -9.95227e-09 0.00470919 -1.18101e-17 1
225 5.55601 8.51246 0.793701 -1.66547e-08 0.00441187 -3.48894e-18 1
602 5.55601 7.71876 1.5874 -1.66547e-08 0.00441187 -3.55463e-18 1
647 6.34969 8.55121 1.5874 -9.95227e-09 0.00470919 -1.38796e-17 1
192 7.93701 7.78909 0.793701 3.39463e-17 0.00495151 -6.52127e-18 1
229 7.14335 8.57484 0.793701 1.36115e-08 0.00489056 -8.35257e-18 1
233 8.73066 8.57484 0.793701 -1.36115e-08 0.00489056 -5.61899e-18 1
606 7.14335 7.78114 1.5874 1.36115e-08 0.00489056 -2.00415e-17 1
610 8.73066 7.78114 1.5874 -1.36115e-08 0.00489056 -2.06457e-17 1
651 7.93701 8.58279 1.5874 3.48972e-17 0.00495151 -1.67556e-17 1
196 9.52433 7.75751 0.793701 9.95227e-09 0.00470919 -1.00705e-17 1
237 10.318 8.51246 0.793701 1.66547e-08 0.00441187 -1.07496e-17 1
614 10.318 7.71876 1.5874 1.66547e-08 0.00441187 -3.65989e-17 1
655 9.52433 8.55121 1.5874 9.95227e-09 0.00470919 -2.21083e-17 1
200 11.1117 7.66585 0.793701 1.63508e-08 0.00400591 -2.95979e-17 1
241 11.9054 8.39377 0.793701 1.51752e-08 0.0035013 -2.60861e-17 1
618 11.9054 7.60007 1.5874 1.51752e-08 0.0035013 -5.40253e-17 1
659 11.1117 8.45955 1.5874 1.63508e-08 0.00400591 -3.94914e-17 1
202 13.4929 7.43664 -1.29898e-16 1.03639e-08 0.00224796 -6.4998e-18 1
204 12.6991 7.52304 0.793701 1.32353e-08 0.00291047 -3.25204e-17 1
243 12.6991 8.31674 -2.58102e-16 1.32353e-08 0.00291047 -8.35592e-18 1
245 13.4929 8.23034 0.793701 1.03639e-08 0.00224796 -1.81608e-17 1
622 13.4929 7.43664 1.5874 1.03639e-08 0.00224796 -3.78161e-17 1
663 12.6991 8.31674 1.5874 1.32353e-08 0.00291047 -4.10999e-17 1
206 15.0803 7.24441 -6.93879e-17 3.63744e-09 0.000774571 9.5695e-18 1
208 14.2866 7.343 0.793701 7.04843e-09 0.00153009 -1.43122e-17 1
210 15.874 7.1433 0.793701 1.404e-17 -1.22858e-17 -4.20439e-19 1
247 14.2866 8.1367 -1.94562e-16 7.04843e-09 0.00153009 4.30275e-18 1
249 15.0803 8.03811 0.793701 3.63744e-09 0.000774571 -1.32596e-19 1
251 15.874 7.93701 -3.95862e-17 8.0506e-18 -2.78257e-17 1.65245e-17 1
252 15.874 8.73071 0.793701 1.01397e-17 -3.17584e-17 5.35588e-18 1
626 15.0803 7.24441 1.5874 3.63744e-09 0.000774571 -1.60032e-17 1
667 14.2866 8.1367 1.5874 7.04843e-09 0.00153009 -2.01744e-17 1
671 15.874 7.93701 1.5874 1.48414e-17 -2.37749e-17 -5.26507e-18 1
212 0.793709 8.83181 -4.25599e-16 -3.63744e-09 0.000774571 5.85538e-17 1
632 0.793709 8.83181 1.5874 -3.63744e-09 0.000774571 4.57871e-17 1
218 1.58743 8.9304 0.793701 -7.04843e-09 0.00153009 5.11775e-17 1
253 1.13055e-16 9.52441 -3.2396e-18 -1.50427e-16 -8.59775e-17 4.98318e-17 1
254 0.793709 10.4192 -2.79526e-16 -3.63744e-09 0.000774571 4.38196e-17 1
255 0.793709 9.62551 0.793701 -3.63744e-09 0.000774571 4.99493e-17 1
256 2.31451e-16 10.3181 0.793701 -1.37775e-16 -8.44547e-17 4.49929e-17 1
257 1.58743 9.7241 -3.32624e-16 -7.04843e-09 0.00153009 3.73466e-17 1
260 1.58743 10.5178 0.793701 -7.04843e-09 0.00153009 4.08126e-17 1
673 2.4875e-16 9.52441 1.5874 -1.23876e-16 -9.26714e-17 3.552e-17 1
674 0.793709 10.4192 1.5874 -3.63744e-09 0.000774571 3.87925e-17 1
677 1.58743 9.7241 1.5874 -7.04843e-09 0.00153009 3.88488e-17 1
216 2.38116 9.02404 -4.56176e-16 -1.03639e-08 0.00224796 2.85596e-17 1
222 3.17489 9.11044 0.793701 -1.32353e-08 0.00291047 9.79803e-18 1
636 2.38116 9.02404 1.5874 -1.03639e-08 0.00224796 3.66005e-17 1
259 2.38116 9.81774 0.793701 -1.03639e-08 0.00224796 2.48825e-17 1
261 3.17489 9.90414 -4.47879e-16 -1.32353e-08 0.00291047 8.39223e-18 1
681 3.17489 9.90414 1.5874 -1.32353e-08 0.00291047 1.22625e-17 1
220 3.96861 9.18747 -4.67878e-16 -1.51752e-08 0.0035013 5.25587e-18 1
226 4.76232 9.25325 0.793701 -1.63508e-08 0.00400591 -9.40092e-18 1
640 3.96861 9.18747 1.5874 -1.51752e-08 0.0035013 4.97764e-19 1
263 3.96861 9.98117 0.793701 -1.51752e-08 0.0035013 -1.45183e-17 1
685 4.76232 10.047 1.5874 -1.63508e-08 0.00400591 -1.81179e-17 1
230 6.34969 9.34491 0.793701 -9.95227e-09 0.00470919 -6.64635e-18 1
644 5.55601 9.30616 1.5874 -1.66547e-08 0.00441187 -5.26086e-18 1
267 5.55601 10.0999 0.793701 -1.66547e-08 0.00441187 -7.54221e-18 1
689 6.34969 10.1386 1.5874 -9.95227e-09 0.00470919 1.4315e-18 1
234 7.93701 9.37649 0.793701 3.25465e-17 0.00495151 -1.53701e-17 1
648 7.14335 9.36854 1.5874 1.36115e-08 0.00489056 -9.81474e-18 1
652 8.73066 9.36854 1.5874 -1.36115e-08 0.00489056 -2.90866e-17 1
271 7.14335 10.1622 0.793701 1.36115e-08 0.00489056 -1.15737e-17 1
275 8.73066 10.1622 0.793701 -1.36115e-08 0.00489056 -3.36108e-17 1
693 7.93701 10.1702 1.5874 2.74964e-19 0.00495151 -2.32395e-17 1
238 9.52433 9.34491 0.793701 9.95227e-09 0.00470919 -5.85141e-18 1
656 10.318 9.30616 1.5874 1.66547e-08 0.00441187 -2.83596e-17 1
279 10.318 10.0999 0.793701 1.66547e-08 0.00441187 -5.83219e-18 1
697 9.52433 10.1386 1.5874 9.95227e-09 0.00470919 -3.01589e-17 1
240 11.9054 9.18747 -2.76924e-16 1.51752e-08 0.0035013 -1.20228e-17 1
242 11.1117 9.25325 0.793701 1.63508e-08 0.00400591 -1.52321e-17 1
660 11.9054 9.18747 1.5874 1.51752e-08 0.0035013 -3.26458e-17 1
283 11.9054 9.98117 0.793701 1.51752e-08 0.0035013 -2.04185e-17 1
701 11.1117 10.047 1.5874 1.63508e-08 0.00400591 -2.66257e-17 1
244 13.4929 9.02404 -3.23692e-16 1.03639e-08 0.00224796 2.28788e-18 1
246 12.6991 9.11044 0.793701 1.32353e-08 0.00291047 -2.27291e-17 1
664 13.4929 9.02404 1.5874 1.03639e-08 0.00224796 -2.90861e-17 1
285 12.6991 9.90414 -3.64667e-16 1.32353e-08 0.00291047 -8.30149e-18 1
287 13.4929 9.81774 0.793701 1.03639e-08 0.00224796 -1.30972e-17 1
705 12.6991 9.90414 1.5874 1.32353e-08 0.00291047 -2.87317e-17 1
248 15.0803 8.83181 -1.53275e-16 3.63744e-09 0.000774571 9.58131e-18 1
668 15.0803 8.83181 1.5874 3.63744e-09 0.000774571 -1.02985e-17 1
250 14.2866 8.9304 0.793701 7.04843e-09 0.00153009 -9.47886e-18 1
289 14.2866 9.7241 -2.78605e-16 7.04843e-09 0.00153009 6.01503e-18 1
290 15.0803 10.4192 -1.47157e-16 3.63744e-09 0.000774571 8.42736e-19 1
291 15.0803 9.62551 0.793701 3.63744e-09 0.000774571 -4.16854e-18 1
292 14.2866 10.5178 0.793701 7.04843e-09 0.00153009 -7.47222e-18 1
293 15.874 9.52441 -4.48666e-17 1.93994e-17 -1.62123e-17 6.90047e-18 1
294 15.874 10.3181 0.793701 2.56713e-17 -2.45069e-17 -1.49961e-17 1
709 14.2866 9.7241 1.5874 7.04843e-09 0.00153009 -1.81876e-17 1
710 15.0803 10.4192 1.5874 3.63744e-09 0.000774571 -1.14407e-17 1
713 15.874 9.52441 1.5874 1.29586e-17 -3.63996e-17 -6.72421e-18 1
295 1.90299e-16 11.1118 -1.27259e-16 -1.38503e-16 -1.10181e-16 5.83184e-17 1
296 0.793709 12.0066 -3.57772e-16 -3.63744e-09 0.000774571 5.78677e-17 1
297 0.793709 11.2129 0.793701 -3.63744e-09 0.000774571 5.53654e-17 1
298 2.37108e-16 11.9055 0.793701 -1.24426e-16 -1.33512e-16 5.66098e-17 1
299 1.58743 11.3115 -4.01563e-16 -7.04843e-09 0.00153009 3.08309e-17 1
302 1.58743 12.1052 0.793701 -7.04843e-09 0.00153009 3.93939e-17 1
715 2.30626e-16 11.1118 1.5874 -1.24322e-16 -9.17188e-17 4.22476e-17 1
716 0.793709 12.0066 1.5874 -3.63744e-09 0.000774571 5.08351e-17 1
719 1.58743 11.3115 1.5874 -7.04843e-09 0.00153009 3.80966e-17 1
258 2.38116 10.6114 -4.03191e-16 -1.03639e-08 0.00224796 1.28802e-17 1
678 2.38116 10.6114 1.5874 -1.03639e-08 0.00224796 3.14421e-17 1
264 3.17489 10.6978 0.793701 -1.32353e-08 0.00291047 1.97434e-18 1
300 2.38116 12.1988 -4.86869e-16 -1.03639e-08 0.00224796 -1.66986e-19 1
301 2.38116 11.4051 0.793701 -1.03639e-08 0.00224796 1.81251e-17 1
303 3.17489 11.4915 -4.95416e-16 -1.32353e-08 0.00291047 -1.40421e-17 1
306 3.17489 12.2852 0.793701 -1.32353e-08 0.00291047 -7.27323e-18 1
720 2.38116 12.1988 1.5874 -1.03639e-08 0.00224796 2.6241e-17 1
723 3.17489 11.4915 1.5874 -1.32353e-08 0.00291047 1.97743e-17 1
262 3.96861 10.7749 -5.03503e-16 -1.51752e-08 0.0035013 1.26203e-17 1
268 4.76232 10.8407 0.793701 -1.63508e-08 0.00400591 -6.99953e-18 1
682 3.96861 10.7749 1.5874 -1.51752e-08 0.0035013 -6.34474e-18 1
305 3.96861 11.5686 0.793701 -1.51752e-08 0.0035013 -9.15131e-18 1
724 3.96861 12.3623 1.5874 -1.51752e-08 0.0035013 1.22928e-17 1
727 4.76232 11.6344 1.5874 -1.63508e-08 0.00400591 5.83408e-18 1
272 6.34969 10.9323 0.793701 -9.95227e-09 0.00470919 2.40384e-18 1
686 5.55601 10.8936 1.5874 -1.66547e-08 0.00441187 9.62074e-19 1
309 5.55601 11.6873 0.793701 -1.66547e-08 0.00441187 3.17834e-18 1
731 6.34969 11.726 1.5874 -9.95227e-09 0.00470919 2.69432e-17 1
276 7.93701 10.9639 0.793701 1.24715e-17 0.00495151 -2.62003e-17 1
690 7.14335 10.9559 1.5874 1.36115e-08 0.00489056 9.16566e-18 1
694 8.73066 10.9559 1.5874 -1.36115e-08 0.00489056 -1.6392e-17 1
313 7.14335 11.7496 0.793701 1.36115e-08 0.00489056 8.8759e-18 1
317 8.73066 11.7496 0.793701 -1.36115e-08 0.00489056 -4.04021e-18 1
735 7.93701 11.7576 1.5874 5.2389e-18 0.00495151 1.80474e-17 1
280 9.52433 10.9323 0.793701 9.95227e-09 0.00470919 -1.32782e-17 1
698 10.318 10.8936 1.5874 1.66547e-08 0.00441187 -2.1687e-17 1
321 10.318 11.6873 0.793701 1.66547e-08 0.00441187 7.29419e-18 1
739 9.52433 11.726 1.5874 9.95227e-09 0.00470919 8.35771e-19 1
282 11.9054 10.7749 -3.56999e-16 1.51752e-08 0.0035013 -2.66786e-18 1
284 11.1117 10.8407 0.793701 1.63508e-08 0.00400591 -9.5089e-18 1
702 11.9054 10.7749 1.5874 1.51752e-08 0.0035013 -3.01442e-17 1
324 11.9054 12.3623 -4.69696e-16 1.51752e-08 0.0035013 1.43149e-17 1
325 11.9054 11.5686 0.793701 1.51752e-08 0.0035013 -1.33793e-17 1
743 11.1117 11.6344 1.5874 1.63508e-08 0.00400591 -2.55572e-17 1
744 11.9054 12.3623 1.5874 1.51752e-08 0.0035013 -2.5695e-17 1
286 13.4929 10.6114 -4.25506e-16 1.03639e-08 0.00224796 7.66378e-18 1
706 13.4929 10.6114 1.5874 1.03639e-08 0.00224796 -2.34871e-17 1
288 12.6991 10.6978 0.793701 1.32353e-08 0.00291047 -1.64393e-17 1
327 12.6991 11.4915 -5.25078e-16 1.32353e-08 0.00291047 7.34695e-18 1
328 13.4929 12.1988 -5.29044e-16 1.03639e-08 0.00224796 1.54221e-17 1
329 13.4929 11.4051 0.793701 1.03639e-08 0.00224796 -3.28441e-18 1
330 12.6991 12.2852 0.793701 1.32353e-08 0.00291047 -7.19915e-18 1
747 12.6991 11.4915 1.5874 1.32353e-08 0.00291047 -3.15388e-17 1
748 13.4929 12.1988 1.5874 1.03639e-08 0.00224796 -9.45544e-18 1
331 14.2866 11.3115 -3.41201e-16 7.04843e-09 0.00153009 9.82728e-18 1
332 15.0803 12.0066 -2.25229e-17 3.63744e-09 0.000774571 2.74909e-18 1
333 15.0803 11.2129 0.793701 3.63744e-09 0.000774571 -9.08642e-18 1
334 14.2866 12.1052 0.793701 7.04843e-09 0.00153009 2.75056e-18 1
335 15.874 11.1118 1.7997e-16 4.97772e-17 -1.77302e-17 -1.48509e-17 1
336 15.874 11.9055 0.793701 4.00945e-17 -7.25517e-18 -2.23779e-17 1
751 14.2866 11.3115 1.5874 7.04843e-09 0.00153009 -9.53796e-18 1
752 15.0803 12.0066 1.5874 3.63744e-09 0.000774571 -4.39372e-18 1
755 15.874 11.1118 1.5874 1.90509e-17 -2.2049e-17 -1.26752e-17 1
337 2.64853e-16 12.6992 -1.56698e-16 -1.30844e-16 -1.45121e-16 5.58357e-17 1
338 0.793709 13.594 -3.51058e-16 -3.63744e-09 0.000774571 4.24299e-17 1
339 0.793709 12.8003 0.793701 -3.63744e-09 0.000774571 6.01643e-17 1
340 2.27351e-16 13.4929 0.793701 -1.12512e-16 -1.53465e-16 5.11057e-17 1
341 1.58743 12.8989 -4.5248e-16 -7.04843e-09 0.00153009 3.48454e-17 1
344 1.58743 13.6926 0.793701 -7.04843e-09 0.00153009 3.83328e-17 1
757 2.58295e-16 12.6992 1.5874 -1.07424e-16 -1.48458e-16 6.49113e-17 1
758 0.793709 13.594 1.5874 -3.63744e-09 0.000774571 6.34952e-17 1
761 1.58743 12.8989 1.5874 -7.04843e-09 0.00153009 4.18329e-17 1
342 2.38116 13.7862 -4.19523e-16 -1.03639e-08 0.00224796 2.41222e-18 1
343 2.38116 12.9925 0.793701 -1.03639e-08 0.00224796 9.84134e-18 1
345 3.17489 13.0789 -4.73001e-16 -1.32353e-08 0.00291047 -1.77053e-17 1
348 3.17489 13.8726 0.793701 -1.32353e-08 0.00291047 -6.52034e-18 1
762 2.38116 13.7862 1.5874 -1.03639e-08 0.00224796 2.3187e-17 1
765 3.17489 13.0789 1.5874 -1.32353e-08 0.00291047 1.09584e-17 1
310 4.76232 12.4281 0.793701 -1.63508e-08 0.00400591 -3.12547e-18 1
346 3.96861 13.9497 -4.63098e-16 -1.51752e-08 0.0035013 -1.89947e-17 1
347 3.96861 13.156 0.793701 -1.51752e-08 0.0035013 -9.51922e-18 1
349 4.76232 13.2218 -5.32812e-16 -1.63508e-08 0.00400591 -1.70845e-17 1
352 4.76232 14.0155 0.793701 -1.63508e-08 0.00400591 -5.68948e-19 1
766 3.96861 13.9497 1.5874 -1.51752e-08 0.0035013 1.46939e-17 1
769 4.76232 13.2218 1.5874 -1.63508e-08 0.00400591 2.44701e-17 1
314 6.34969 12.5197 0.793701 -9.95227e-09 0.00470919 1.68508e-17 1
728 5.55601 12.481 1.5874 -1.66547e-08 0.00441187 3.07547e-17 1
351 5.55601 13.2747 0.793701 -1.66547e-08 0.00441187 8.5075e-18 1