ITEM: TIMESTEP
9000
ITEM: NUMBER OF ATOMS
8000
ITEM: BOX BOUNDS pp pp pp
0.0000000000000000e+00 3.1748021039364001e+01
0.0000000000000000e+00 1.5874010519682001e+01
0.0000000000000000e+00 1.5874010519682001e+01
ITEM: ATOMS id x y z vx vy vz c_rho_peratom
2 0.793702 0.853051 -1.16747e-16 -3.82264e-08 0.00110077 -3.04006e-17 1
3 0.793702 0.0593501 0.793701 -3.82264e-08 0.00110077 -1.91368e-17 1
4 -3.12316e-16 0.793701 0.793701 -4.17572e-17 -7.58624e-17 -2.08414e-17 1
5 1.58741 0.117228 -2.31531e-16 -7.28571e-08 0.00217445 -3.01891e-17 1
8 1.58741 0.910929 0.793701 -7.28571e-08 0.00217445 -2.86939e-17 1
43 -3.0181e-16 1.5874 4.90079e-17 -5.82264e-17 -4.81374e-17 -3.34308e-17 1
45 0.793702 1.64675 0.793701 -3.82264e-08 0.00110077 -2.99265e-17 1
47 1.58741 1.70463 -1.94262e-16 -7.28571e-08 0.00217445 -3.44066e-17 1
422 0.793702 0.853051 1.5874 -3.82264e-08 0.00110077 -1.39406e-17 1
425 1.58741 0.117228 1.5874 -7.28571e-08 0.00217445 -8.41161e-18 1
463 -3.59899e-16 1.5874 1.5874 -5.94127e-17 -6.08344e-17 -1.71109e-17 1
467 1.58741 1.70463 1.5874 -7.28571e-08 0.00217445 -1.94294e-17 1
6 2.38111 0.965912 -3.14204e-16 -1.00658e-07 0.00319459 -3.74831e-17 1
7 2.38111 0.172211 0.793701 -1.00658e-07 0.00319459 -2.24412e-17 1
9 3.17482 0.222946 -4.51091e-16 -1.1882e-07 0.00413607 -3.07111e-17 1
12 3.17482 1.01665 0.793701 -1.1882e-07 0.00413607 -1.8815e-17 1
49 2.38111 1.75961 0.793701 -1.00658e-07 0.00319459 -2.42962e-17 1
426 2.38111 0.965912 1.5874 -1.00658e-07 0.00319459 -6.65675e-18 1
429 3.17482 0.222946 1.5874 -1.1882e-07 0.00413607 -2.51629e-18 1
10 3.96852 1.06189 -4.46333e-16 -1.25498e-07 0.00497571 -2.10655e-17 1
11 3.96852 0.268186 0.793701 -1.25498e-07 0.00497571 -1.13549e-17 1
16 4.76223 1.10052 0.793701 -1.20847e-07 0.00569282 -9.24491e-18 1
430 3.96852 1.06189 1.5874 -1.25498e-07 0.00497571 -1.16892e-18 1
433 4.76223 0.306819 1.5874 -1.20847e-07 0.00569282 -4.50847e-18 1
15 5.55593 0.337898 0.793701 -1.05706e-07 0.00626976 -1.33491e-17 1
20 6.34962 1.15436 0.793701 -7.31219e-08 0.00669232 -3.53113e-17 1
434 5.55593 1.1316 1.5874 -1.05706e-07 0.00626976 -3.50907e-17 1
437 6.34962 0.360659 1.5874 -7.31219e-08 0.00669232 -2.71599e-17 1
19 7.14331 0.374542 0.793701 -1.14604e-08 0.00695009 -1.54506e-17 1
23 8.7307 0.374542 0.793701 1.14604e-08 0.00695009 4.56947e-19 1
24 7.93701 1.17291 0.793701 2.30214e-17 0.00703672 -1.31145e-17 1
438 7.14331 1.16824 1.5874 -1.14604e-08 0.00695009 -2.32049e-17 1
441 7.93701 0.379208 1.5874 5.22435e-17 0.00703672 -9.17759e-18 1
442 8.7307 1.16824 1.5874 1.14604e-08 0.00695009 -1.56692e-19 1
27 10.3181 0.337898 0.793701 1.05706e-07 0.00626976 1.27395e-17 1
28 9.52439 1.15436 0.793701 7.31219e-08 0.00669232 1.09081e-17 1
445 9.52439 0.360659 1.5874 7.31219e-08 0.00669232 -5.00905e-18 1
446 10.3181 1.1316 1.5874 1.05706e-07 0.00626976 1.02336e-17 1
30 11.9055 1.06189 -4.11126e-16 1.25498e-07 0.00497571 1.46363e-17 1
31 11.9055 0.268186 0.793701 1.25498e-07 0.00497571 1.35709e-17 1
32 11.1118 1.10052 0.793701 1.20847e-07 0.00569282 1.59254e-17 1
449 11.1118 0.306819 1.5874 1.20847e-07 0.00569282 1.0255e-17 1
450 11.9055 1.06189 1.5874 1.25498e-07 0.00497571 7.75367e-18 1
33 12.6992 0.222946 -3.31934e-16 1.1882e-07 0.00413607 2.22651e-17 1
34 13.4929 0.965912 -2.56398e-16 1.00658e-07 0.00319459 1.01168e-17 1
35 13.4929 0.172211 0.793701 1.00658e-07 0.00319459 6.52282e-18 1
36 12.6992 1.01665 0.793701 1.1882e-07 0.00413607 9.51015e-18 1
77 13.4929 1.75961 0.793701 1.00658e-07 0.00319459 5.79752e-18 1
453 12.6992 0.222946 1.5874 1.1882e-07 0.00413607 1.15629e-17 1
454 13.4929 0.965912 1.5874 1.00658e-07 0.00319459 1.12068e-17 1
37 14.2866 0.117228 -2.16136e-16 7.28571e-08 0.00217445 1.21537e-17 1
38 15.0803 0.853051 -7.90878e-17 3.82264e-08 0.00110077 -1.71568e-18 1
39 15.0803 0.0593501 0.793701 3.82264e-08 0.00110077 -1.45694e-17 1
40 14.2866 0.910929 0.793701 7.28571e-08 0.00217445 4.90327e-19 1
41 15.874 -2.83052e-16 1.11129e-16 -5.1059e-18 -2.35519e-17 -7.43905e-18 1
42 15.874 0.793701 0.793701 1.35836e-17 -1.52056e-17 2.58293e-19 1
79 14.2866 1.70463 -1.46186e-16 7.28571e-08 0.00217445 -2.01533e-18 1
81 15.0803 1.64675 0.793701 3.82264e-08 0.00110077 6.09798e-18 1
83 15.874 1.5874 9.64839e-17 1.49868e-17 -2.01337e-17 9.09999e-18 1
457 14.2866 0.117228 1.5874 7.28571e-08 0.00217445 -7.24747e-18 1
458 15.0803 0.853051 1.5874 3.82264e-08 0.00110077 6.48214e-19 1
461 15.874 -3.13037e-16 1.5874 7.21675e-18 6.03722e-18 -1.97259e-17 1
499 14.2866 1.70463 1.5874 7.28571e-08 0.00217445 9.49527e-18 1
503 15.874 1.5874 1.5874 2.99387e-17 -3.03119e-18 7.4747e-18 1
44 0.793702 2.44045 -1.16215e-16 -3.82264e-08 0.00110077 -2.9459e-17 1
46 -3.6381e-16 2.3811 0.793701 -7.09048e-17 -3.04858e-17 -3.31987e-17 1
50 1.58741 2.49833 0.793701 -7.28571e-08 0.00217445 -2.40764e-17 1
85 -3.61505e-16 3.1748 1.50055e-17 -8.49011e-17 -4.69057e-17 -2.22807e-17 1
87 0.793702 3.23415 0.793701 -3.82264e-08 0.00110077 -1.93136e-17 1
89 1.58741 3.29203 -2.10473e-16 -7.28571e-08 0.00217445 -2.00633e-17 1
464 0.793702 2.44045 1.5874 -3.82264e-08 0.00110077 -2.1509e-17 1
505 -4.02066e-16 3.1748 1.5874 -7.28097e-17 -2.46864e-17 -1.72378e-17 1
509 1.58741 3.29203 1.5874 -7.28571e-08 0.00217445 -7.95949e-18 1
51 3.17482 1.81035 -3.98826e-16 -1.1882e-07 0.00413607 -3.27166e-17 1
471 3.17482 1.81035 1.5874 -1.1882e-07 0.00413607 3.15999e-18 1
48 2.38111 2.55331 -3.06656e-16 -1.00658e-07 0.00319459 -2.92118e-17 1
54 3.17482 2.60405 0.793701 -1.1882e-07 0.00413607 -1.12373e-17 1
91 2.38111 3.34701 0.793701 -1.00658e-07 0.00319459 -9.52244e-18 1
93 3.17482 3.39775 -4.47993e-16 -1.1882e-07 0.00413607 -1.98346e-17 1
468 2.38111 2.55331 1.5874 -1.00658e-07 0.00319459 -4.57287e-18 1
513 3.17482 3.39775 1.5874 -1.1882e-07 0.00413607 8.65278e-18 1
53 3.96852 1.85559 0.793701 -1.25498e-07 0.00497571 -7.29855e-18 1
475 4.76223 1.89422 1.5874 -1.20847e-07 0.00569282 -3.59743e-18 1
52 3.96852 2.64929 -4.70282e-16 -1.25498e-07 0.00497571 -2.32404e-17 1
58 4.76223 2.68792 0.793701 -1.20847e-07 0.00569282 -6.64716e-18 1
95 3.96852 3.44299 0.793701 -1.25498e-07 0.00497571 -3.7031e-18 1
472 3.96852 2.64929 1.5874 -1.25498e-07 0.00497571 1.4272e-17 1
517 4.76223 3.48162 1.5874 -1.20847e-07 0.00569282 3.52231e-18 1
57 5.55593 1.9253 0.793701 -1.05706e-07 0.00626976 -2.9585e-17 1
479 6.34962 1.94806 1.5874 -7.31219e-08 0.00669232 -4.5539e-17 1
62 6.34962 2.74176 0.793701 -7.31219e-08 0.00669232 -3.98015e-17 1
99 5.55593 3.5127 0.793701 -1.05706e-07 0.00626976 -2.7932e-17 1
476 5.55593 2.719 1.5874 -1.05706e-07 0.00626976 -2.57232e-17 1
521 6.34962 3.53546 1.5874 -7.31219e-08 0.00669232 -4.4176e-17 1
61 7.14331 1.96194 0.793701 -1.14604e-08 0.00695009 -3.03702e-17 1
65 8.7307 1.96194 0.793701 1.14604e-08 0.00695009 4.37721e-18 1
483 7.93701 1.96661 1.5874 3.19708e-17 0.00703672 -4.82884e-19 1
66 7.93701 2.76031 0.793701 8.0226e-18 0.00703672 -3.56793e-18 1
103 7.14331 3.54934 0.793701 -1.14604e-08 0.00695009 -2.10533e-17 1
107 8.7307 3.54934 0.793701 1.14604e-08 0.00695009 2.28662e-17 1
480 7.14331 2.75564 1.5874 -1.14604e-08 0.00695009 -1.81668e-17 1
484 8.7307 2.75564 1.5874 1.14604e-08 0.00695009 1.85199e-17 1
525 7.93701 3.55401 1.5874 2.51824e-17 0.00703672 1.43992e-17 1
69 10.3181 1.9253 0.793701 1.05706e-07 0.00626976 2.01653e-17 1
487 9.52439 1.94806 1.5874 7.31219e-08 0.00669232 1.16587e-17 1
70 9.52439 2.74176 0.793701 7.31219e-08 0.00669232 3.19037e-17 1
111 10.3181 3.5127 0.793701 1.05706e-07 0.00626976 3.82227e-17 1
488 10.3181 2.719 1.5874 1.05706e-07 0.00626976 1.9565e-17 1
529 9.52439 3.53546 1.5874 7.31219e-08 0.00669232 2.09113e-17 1
73 11.9055 1.85559 0.793701 1.25498e-07 0.00497571 2.02137e-17 1
491 11.1118 1.89422 1.5874 1.20847e-07 0.00569282 1.44015e-17 1
72 11.9055 2.64929 -3.85705e-16 1.25498e-07 0.00497571 2.65352e-18 1
74 11.1118 2.68792 0.793701 1.20847e-07 0.00569282 3.48495e-17 1
115 11.9055 3.44299 0.793701 1.25498e-07 0.00497571 4.80651e-17 1
492 11.9055 2.64929 1.5874 1.25498e-07 0.00497571 2.42521e-17 1
533 11.1118 3.48162 1.5874 1.20847e-07 0.00569282 3.15297e-17 1
75 12.6992 1.81035 -3.09368e-16 1.1882e-07 0.00413607 1.57154e-18 1
495 12.6992 1.81035 1.5874 1.1882e-07 0.00413607 1.40897e-17 1
76 13.4929 2.55331 -1.35745e-16 1.00658e-07 0.00319459 -2.93527e-18 1
78 12.6992 2.60405 0.793701 1.1882e-07 0.00413607 2.12326e-17 1
117 12.6992 3.39775 -2.70306e-16 1.1882e-07 0.00413607 -7.17931e-19 1
119 13.4929 3.34701 0.793701 1.00658e-07 0.00319459 8.76263e-18 1
496 13.4929 2.55331 1.5874 1.00658e-07 0.00319459 1.58461e-17 1
537 12.6992 3.39775 1.5874 1.1882e-07 0.00413607 2.8853e-17 1
80 15.0803 2.44045 -8.25334e-17 3.82264e-08 0.00110077 3.40349e-18 1
82 14.2866 2.49833 0.793701 7.28571e-08 0.00217445 1.8866e-18 1
84 15.874 2.3811 0.793701 3.70393e-17 -1.02285e-17 2.02513e-17 1
121 14.2866 3.29203 -1.33688e-16 7.28571e-08 0.00217445 -2.52644e-18 1
123 15.0803 3.23415 0.793701 3.82264e-08 0.00110077 7.98999e-18 1
125 15.874 3.1748 3.64327e-17 3.59353e-17 -1.4131e-17 1.42612e-17 1
500 15.0803 2.44045 1.5874 3.82264e-08 0.00110077 7.01915e-18 1
541 14.2866 3.29203 1.5874 7.28571e-08 0.00217445 8.05433e-18 1
545 15.874 3.1748 1.5874 5.44297e-17 -2.09552e-17 1.18251e-17 1
86 0.793702 4.02785 -1.05762e-16 -3.82264e-08 0.00110077 -1.43189e-17 1
88 -3.86577e-16 3.9685 0.793701 -8.45361e-17 -6.43762e-17 -1.50075e-17 1
92 1.58741 4.08573 0.793701 -7.28571e-08 0.00217445 -7.33402e-18 1
127 -3.3313e-16 4.7622 7.66399e-17 -7.54504e-17 -9.30462e-17 -6.08459e-18 1
129 0.793702 4.82155 0.793701 -3.82264e-08 0.00110077 -6.46617e-18 1
131 1.58741 4.87943 -2.09858e-16 -7.28571e-08 0.00217445 -9.29537e-18 1
506 0.793702 4.02785 1.5874 -3.82264e-08 0.00110077 -3.83726e-18 1
547 -3.70398e-16 4.7622 1.5874 -7.30959e-17 -8.60849e-17 -8.67829e-18 1
551 1.58741 4.87943 1.5874 -7.28571e-08 0.00217445 3.90683e-18 1
90 2.38111 4.14071 -3.31303e-16 -1.00658e-07 0.00319459 -1.36097e-17 1
96 3.17482 4.19145 0.793701 -1.1882e-07 0.00413607 -3.18809e-18 1
133 2.38111 4.93441 0.793701 -1.00658e-07 0.00319459 -6.6179e-19 1
135 3.17482 4.98515 -4.14097e-16 -1.1882e-07 0.00413607 -9.42115e-18 1
510 2.38111 4.14071 1.5874 -1.00658e-07 0.00319459 7.61887e-18 1
555 3.17482 4.98515 1.5874 -1.1882e-07 0.00413607 7.06987e-18 1
94 3.96852 4.23669 -5.0312e-16 -1.25498e-07 0.00497571 -1.02561e-17 1
100 4.76223 4.27532 0.793701 -1.20847e-07 0.00569282 -1.0433e-17 1
137 3.96852 5.03039 0.793701 -1.25498e-07 0.00497571 -3.48549e-18 1
514 3.96852 4.23669 1.5874 -1.25498e-07 0.00497571 5.31701e-18 1
559 4.76223 5.06902 1.5874 -1.20847e-07 0.00569282 -1.61275e-17 1
104 6.34962 4.32916 0.793701 -7.31219e-08 0.00669232 -4.19363e-17 1
141 5.55593 5.1001 0.793701 -1.05706e-07 0.00626976 -3.50283e-17 1
518 5.55593 4.3064 1.5874 -1.05706e-07 0.00626976 -3.69682e-17 1
563 6.34962 5.12286 1.5874 -7.31219e-08 0.00669232 -4.87505e-17 1
108 7.93701 4.34771 0.793701 6.1407e-18 0.00703672 1.05134e-18 1
145 7.14331 5.13675 0.793701 -1.14604e-08 0.00695009 -2.25969e-17 1
149 8.7307 5.13675 0.793701 1.14604e-08 0.00695009 5.24374e-18 1
522 7.14331 4.34304 1.5874 -1.14604e-08 0.00695009 -1.7759e-17 1
526 8.7307 4.34304 1.5874 1.14604e-08 0.00695009 1.98607e-17 1
567 7.93701 5.14141 1.5874 2.89811e-17 0.00703672 1.18001e-17 1
112 9.52439 4.32916 0.793701 7.31219e-08 0.00669232 2.53601e-17 1
153 10.3181 5.1001 0.793701 1.05706e-07 0.00626976 7.59087e-18 1
530 10.3181 4.3064 1.5874 1.05706e-07 0.00626976 1.98078e-17 1
571 9.52439 5.12286 1.5874 7.31219e-08 0.00669232 9.29396e-18 1
114 11.9055 4.23669 -4.30766e-16 1.25498e-07 0.00497571 6.88123e-18 1
116 11.1118 4.27532 0.793701 1.20847e-07 0.00569282 3.95739e-17 1
157 11.9055 5.03039 0.793701 1.25498e-07 0.00497571 2.98803e-17 1
534 11.9055 4.23669 1.5874 1.25498e-07 0.00497571 4.39968e-17 1
575 11.1118 5.06902 1.5874 1.20847e-07 0.00569282 2.55142e-17 1
118 13.4929 4.14071 -2.35703e-16 1.00658e-07 0.00319459 -1.97608e-19 1
120 12.6992 4.19145 0.793701 1.1882e-07 0.00413607 2.89398e-17 1
159 12.6992 4.98515 -4.08304e-16 1.1882e-07 0.00413607 2.78998e-18 1
161 13.4929 4.93441 0.793701 1.00658e-07 0.00319459 1.26477e-17 1
538 13.4929 4.14071 1.5874 1.00658e-07 0.00319459 1.57411e-17 1
579 12.6992 4.98515 1.5874 1.1882e-07 0.00413607 3.22578e-17 1
122 15.0803 4.02785 -1.35136e-16 3.82264e-08 0.00110077 1.93319e-18 1
124 14.2866 4.08573 0.793701 7.28571e-08 0.00217445 3.60495e-18 1
126 15.874 3.9685 0.793701 5.06021e-17 -2.19581e-17 1.38814e-17 1
163 14.2866 4.87943 -2.47228e-16 7.28571e-08 0.00217445 1.74988e-18 1
165 15.0803 4.82155 0.793701 3.82264e-08 0.00110077 9.21453e-19 1
167 15.874 4.7622 -4.52486e-18 3.0134e-17 -2.58081e-17 1.19675e-17 1
542 15.0803 4.02785 1.5874 3.82264e-08 0.00110077 3.70608e-18 1
583 14.2866 4.87943 1.5874 7.28571e-08 0.00217445 1.52834e-18 1
587 15.874 4.7622 1.5874 5.79671e-17 -3.37328e-17 2.38674e-18 1
128 0.793702 5.61525 -9.75813e-17 -3.82264e-08 0.00110077 -3.58704e-18 1
130 -3.76314e-16 5.5559 0.793701 -6.31554e-17 -1.02598e-16 -5.27961e-18 1
134 1.58741 5.67313 0.793701 -7.28571e-08 0.00217445 -4.59838e-19 1
169 -3.79386e-16 6.3496 1.2411e-16 -4.26321e-17 -1.20359e-16 6.28664e-19 1
171 0.793702 6.40895 0.793701 -3.82264e-08 0.00110077 -3.12935e-18 1
173 1.58741 6.46683 -1.9298e-16 -7.28571e-08 0.00217445 -5.64678e-18 1
548 0.793702 5.61525 1.5874 -3.82264e-08 0.00110077 -5.22349e-18 1
589 -3.72363e-16 6.3496 1.5874 -4.35721e-17 -1.19939e-16 -9.39524e-18 1
593 1.58741 6.46683 1.5874 -7.28571e-08 0.00217445 3.88575e-18 1
132 2.38111 5.72811 -3.01222e-16 -1.00658e-07 0.00319459 -7.80346e-18 1
138 3.17482 5.77885 0.793701 -1.1882e-07 0.00413607 -1.35371e-18 1
175 2.38111 6.52182 0.793701 -1.00658e-07 0.00319459 1.72543e-19 1
177 3.17482 6.57255 -3.40754e-16 -1.1882e-07 0.00413607 -7.88355e-18 1
552 2.38111 5.72811 1.5874 -1.00658e-07 0.00319459 8.26403e-18 1
597 3.17482 6.57255 1.5874 -1.1882e-07 0.00413607 2.90169e-18 1
136 3.96852 5.82409 -3.65775e-16 -1.25498e-07 0.00497571 -6.20612e-19 1
142 4.76223 5.86272 0.793701 -1.20847e-07 0.00569282 -1.22136e-17 1
179 3.96852 6.61779 0.793701 -1.25498e-07 0.00497571 -6.15344e-18 1
181 4.76223 6.65642 -3.79824e-16 -1.20847e-07 0.00569282 7.3355e-18 1
556 3.96852 5.82409 1.5874 -1.25498e-07 0.00497571 -2.94699e-18 1
601 4.76223 6.65642 1.5874 -1.20847e-07 0.00569282 -1.37049e-17 1
146 6.34962 5.91656 0.793701 -7.31219e-08 0.00669232 -3.51038e-17 1
183 5.55593 6.6875 0.793701 -1.05706e-07 0.00626976 -2.01278e-17 1
560 5.55593 5.8938 1.5874 -1.05706e-07 0.00626976 -3.75473e-17 1
605 6.34962 6.71026 1.5874 -7.31219e-08 0.00669232 -2.32327e-17 1
150 7.93701 5.93511 0.793701 2.67364e-17 0.00703672 -3.92169e-18 1
187 7.14331 6.72415 0.793701 -1.14604e-08 0.00695009 -1.16697e-17 1
191 8.7307 6.72415 0.793701 1.14604e-08 0.00695009 -5.81495e-18 1
564 7.14331 5.93045 1.5874 -1.14604e-08 0.00695009 -1.51071e-17 1
568 8.7307 5.93045 1.5874 1.14604e-08 0.00695009 6.30325e-18 1
609 7.93701 6.72881 1.5874 4.98371e-17 0.00703672 -5.70576e-18 1
154 9.52439 5.91656 0.793701 7.31219e-08 0.00669232 -3.42093e-18 1
195 10.3181 6.6875 0.793701 1.05706e-07 0.00626976 -5.45468e-18 1
572 10.3181 5.8938 1.5874 1.05706e-07 0.00626976 -2.95348e-19 1
613 9.52439 6.71026 1.5874 7.31219e-08 0.00669232 -2.20001e-17 1
156 11.9055 5.82409 -4.49808e-16 1.25498e-07 0.00497571 5.88566e-18 1
158 11.1118 5.86272 0.793701 1.20847e-07 0.00569282 5.68375e-18 1
199 11.9055 6.61779 0.793701 1.25498e-07 0.00497571 1.5412e-17 1
576 11.9055 5.82409 1.5874 1.25498e-07 0.00497571 2.10178e-17 1
617 11.1118 6.65642 1.5874 1.20847e-07 0.00569282 -5.05047e-18 1
160 13.4929 5.72811 -3.49763e-16 1.00658e-07 0.00319459 9.03126e-18 1
162 12.6992 5.77885 0.793701 1.1882e-07 0.00413607 1.53218e-17 1
201 12.6992 6.57255 -4.40859e-16 1.1882e-07 0.00413607 1.71346e-17 1
203 13.4929 6.52182 0.793701 1.00658e-07 0.00319459 6.14824e-18 1
580 13.4929 5.72811 1.5874 1.00658e-07 0.00319459 1.08612e-17 1
621 12.6992 6.57255 1.5874 1.1882e-07 0.00413607 7.73068e-18 1
164 15.0803 5.61525 -2.02322e-16 3.82264e-08 0.00110077 2.0736e-18 1
166 14.2866 5.67313 0.793701 7.28571e-08 0.00217445 2.78692e-18 1
168 15.874 5.5559 0.793701 3.14006e-17 -4.09645e-17 3.02068e-18 1
205 14.2866 6.46683 -2.84424e-16 7.28571e-08 0.00217445 3.90437e-18 1
207 15.0803 6.40895 0.793701 3.82264e-08 0.00110077 -1.70428e-17 1
209 15.874 6.3496 5.65196e-17 1.11254e-17 -4.22709e-17 1.83231e-18 1
584 15.0803 5.61525 1.5874 3.82264e-08 0.00110077 -1.52719e-17 1
625 14.2866 6.46683 1.5874 7.28571e-08 0.00217445 -1.36788e-17 1
629 15.874 6.3496 1.5874 2.98777e-17 -7.25509e-17 -2.1928e-17 1
170 0.793702 7.20265 -7.96048e-17 -3.82264e-08 0.00110077 -1.23137e-17 1
172 -4.25925e-16 7.1433 0.793701 -3.43995e-17 -1.43489e-16 -4.94745e-18 1
176 1.58741 7.26053 0.793701 -7.28571e-08 0.00217445 -2.84672e-18 1
211 -4.3561e-16 7.93701 9.80209e-17 -2.07959e-17 -1.34936e-16 -2.03316e-17 1
212 0.793702 8.79006 -1.12446e-16 -3.82264e-08 0.00110077 -2.69695e-17 1
213 0.793702 7.99636 0.793701 -3.82264e-08 0.00110077 -1.09228e-17 1
214 -5.04748e-16 8.73071 0.793701 -1.37996e-17 -1.1914e-16 -1.43057e-17 1
215 1.58741 8.05423 -2.03944e-16 -7.28571e-08 0.00217445 -1.81705e-17 1
590 0.793702 7.20265 1.5874 -3.82264e-08 0.00110077 -4.84094e-19 1
631 -4.65013e-16 7.93701 1.5874 -2.59617e-17 -1.47185e-16 -1.16688e-18 1
632 0.793702 8.79006 1.5874 -3.82264e-08 0.00110077 -5.71546e-18 1
635 1.58741 8.05423 1.5874 -7.28571e-08 0.00217445 4.99301e-19 1
174 2.38111 7.31552 -2.81571e-16 -1.00658e-07 0.00319459 -9.20442e-18 1
180 3.17482 7.36625 0.793701 -1.1882e-07 0.00413607 -4.75229e-18 1
217 2.38111 8.10922 0.793701 -1.00658e-07 0.00319459 -6.36044e-18 1
219 3.17482 8.15995 -3.31135e-16 -1.1882e-07 0.00413607 -4.83552e-18 1
594 2.38111 7.31552 1.5874 -1.00658e-07 0.00319459 4.67436e-18 1
639 3.17482 8.15995 1.5874 -1.1882e-07 0.00413607 -3.70667e-18 1
178 3.96852 7.41149 -3.68764e-16 -1.25498e-07 0.00497571 -1.0033e-18 1
184 4.76223 7.45012 0.793701 -1.20847e-07 0.00569282 -1.454e-17 1
221 3.96852 8.20519 0.793701 -1.25498e-07 0.00497571 -1.02978e-17 1
598 3.96852 7.41149 1.5874 -1.25498e-07 0.00497571 -6.94771e-18 1
643 4.76223 8.24382 1.5874 -1.20847e-07 0.00569282 -1.61534e-17 1
188 6.34962 7.50396 0.793701 -7.31219e-08 0.00669232 -1.44924e-17 1
225 5.55593 8.2749 0.793701 -1.05706e-07 0.00626976 -1.41973e-17 1
602 5.55593 7.4812 1.5874 -1.05706e-07 0.00626976 -1.49786e-17 1
647 6.34962 8.29766 1.5874 -7.31219e-08 0.00669232 -1.01975e-17 1
192 7.93701 7.52251 0.793701 8.28341e-17 0.00703672 -9.53674e-18 1
229 7.14331 8.31155 0.793701 -1.14604e-08 0.00695009 -1.03412e-17 1
233 8.7307 8.31155 0.793701 1.14604e-08 0.00695009 -1.34897e-17 1
606 7.14331 7.51785 1.5874 -1.14604e-08 0.00695009 -1.18668e-17 1
610 8.7307 7.51785 1.5874 1.14604e-08 0.00695009 -3.81993e-17 1
651 7.93701 8.31621 1.5874 1.03964e-16 0.00703672 -2.53217e-17 1
196 9.52439 7.50396 0.793701 7.31219e-08 0.00669232 -1.32839e-17 1
237 10.3181 8.2749 0.793701 1.05706e-07 0.00626976 -8.87559e-18 1
614 10.3181 7.4812 1.5874 1.05706e-07 0.00626976 -3.37773e-17 1
655 9.52439 8.29766 1.5874 7.31219e-08 0.00669232 -4.88983e-17 1
198 11.9055 7.41149 -5.7079e-16 1.25498e-07 0.00497571 7.06299e-18 1
200 11.1118 7.45012 0.793701 1.20847e-07 0.00569282 1.33725e-18 1
241 11.9055 8.20519 0.793701 1.25498e-07 0.00497571 1.11751e-17 1
618 11.9055 7.41149 1.5874 1.25498e-07 0.00497571 4.08243e-18 1
659 11.1118 8.24382 1.5874 1.20847e-07 0.00569282 -4.22154e-18 1
202 13.4929 7.31552 -3.55204e-16 1.00658e-07 0.00319459 1.1735e-17 1
204 12.6992 7.36625 0.793701 1.1882e-07 0.00413607 1.16365e-17 1
243 12.6992 8.15995 -4.46484e-16 1.1882e-07 0.00413607 2.91979e-18 1
245 13.4929 8.10922 0.793701 1.00658e-07 0.00319459 -2.81597e-18 1
622 13.4929 7.31552 1.5874 1.00658e-07 0.00319459 -6.36025e-18 1
663 12.6992 8.15995 1.5874 1.1882e-07 0.00413607 6.37978e-18 1
206 15.0803 7.20265 -2.11041e-16 3.82264e-08 0.00110077 -7.36954e-18 1
208 14.2866 7.26053 0.793701 7.28571e-08 0.00217445 -1.50723e-17 1
210 15.874 7.1433 0.793701 1.0661e-17 -5.76514e-17 -2.61233e-17 1
247 14.2866 8.05423 -3.02801e-16 7.28571e-08 0.00217445 -4.05858e-18 1
248 15.0803 8.79006 -2.04943e-16 3.82264e-08 0.00110077 -8.37898e-18 1
249 15.0803 7.99636 0.793701 3.82264e-08 0.00110077 -2.69452e-17 1
251 15.874 7.93701 1.85764e-17 1.21056e-18 -4.75266e-17 -8.94486e-18 1
252 15.874 8.73071 0.793701 -1.65176e-18 -3.58296e-17 -2.29461e-17 1
626 15.0803 7.20265 1.5874 3.82264e-08 0.00110077 -2.95782e-17 1
667 14.2866 8.05423 1.5874 7.28571e-08 0.00217445 -1.72087e-17 1
668 15.0803 8.79006 1.5874 3.82264e-08 0.00110077 -3.147e-17 1
671 15.874 7.93701 1.5874 9.60361e-18 -4.60693e-17 -3.44431e-17 1
218 1.58741 8.84793 0.793701 -7.28571e-08 0.00217445 -1.52102e-17 1
253 -4.90806e-16 9.52441 1.87668e-17 3.93894e-18 -9.15346e-17 -2.84208e-17 1
254 0.793702 10.3775 -1.15866e-16 -3.82264e-08 0.00110077 -3.08858e-17 1
255 0.793702 9.58376 0.793701 -3.82264e-08 0.00110077 -2.04915e-17 1
256 -5.2134e-16 10.3181 0.793701 2.41714e-17 -8.03313e-17 -1.99974e-17 1
257 1.58741 9.64163 -2.34548e-16 -7.28571e-08 0.00217445 -2.70728e-17 1
260 1.58741 10.4353 0.793701 -7.28571e-08 0.00217445 -3.15875e-17 1
673 -5.27126e-16 9.52441 1.5874 1.27253e-18 -9.75346e-17 -8.02153e-18 1
674 0.793702 10.3775 1.5874 -3.82264e-08 0.00110077 -1.61754e-17 1
677 1.58741 9.64163 1.5874 -7.28571e-08 0.00217445 -1.4345e-17 1
216 2.38111 8.90292 -2.92273e-16 -1.00658e-07 0.00319459 -1.42548e-17 1
222 3.17482 8.95365 0.793701 -1.1882e-07 0.00413607 -4.20062e-18 1
636 2.38111 8.90292 1.5874 -1.00658e-07 0.00319459 -6.55154e-18 1
258 2.38111 10.4903 -3.40743e-16 -1.00658e-07 0.00319459 -3.73243e-17 1
259 2.38111 9.69662 0.793701 -1.00658e-07 0.00319459 -1.77017e-17 1
261 3.17482 9.74735 -4.27471e-16 -1.1882e-07 0.00413607 -1.68279e-17 1
264 3.17482 10.5411 0.793701 -1.1882e-07 0.00413607 -1.76554e-17 1
678 2.38111 10.4903 1.5874 -1.00658e-07 0.00319459 -1.98484e-17 1
681 3.17482 9.74735 1.5874 -1.1882e-07 0.00413607 -6.03273e-18 1
220 3.96852 8.99889 -4.42964e-16 -1.25498e-07 0.00497571 2.31806e-18 1
226 4.76223 9.03753 0.793701 -1.20847e-07 0.00569282 -3.9734e-18 1
640 3.96852 8.99889 1.5874 -1.25498e-07 0.00497571 -7.34272e-18 1
262 3.96852 10.5863 -5.18961e-16 -1.25498e-07 0.00497571 -3.33476e-17 1
263 3.96852 9.79259 0.793701 -1.25498e-07 0.00497571 4.57672e-18 1
268 4.76223 10.6249 0.793701 -1.20847e-07 0.00569282 9.14199e-20 1
682 3.96852 10.5863 1.5874 -1.25498e-07 0.00497571 -3.563e-18 1
685 4.76223 9.83123 1.5874 -1.20847e-07 0.00569282 4.36662e-18 1
230 6.34962 9.09136 0.793701 -7.31219e-08 0.00669232 -1.24057e-17 1
644 5.55593 9.0686 1.5874 -1.05706e-07 0.00626976 -8.91293e-18 1
267 5.55593 9.8623 0.793701 -1.05706e-07 0.00626976 -9.24237e-18 1
689 6.34962 9.88506 1.5874 -7.31219e-08 0.00669232 -8.28585e-18 1
234 7.93701 9.10991 0.793701 1.30867e-16 0.00703672 -9.09944e-18 1
648 7.14331 9.10525 1.5874 -1.14604e-08 0.00695009 -8.44473e-18 1
652 8.7307 9.10525 1.5874 1.14604e-08 0.00695009 -2.54465e-17 1
271 7.14331 9.89895 0.793701 -1.14604e-08 0.00695009 -1.83267e-17 1
275 8.7307 9.89895 0.793701 1.14604e-08 0.00695009 9.59635e-18 1
693 7.93701 9.90361 1.5874 1.33759e-16 0.00703672 -7.7295e-18 1
238 9.52439 9.09136 0.793701 7.31219e-08 0.00669232 9.8247e-18 1
656 10.3181 9.0686 1.5874 1.05706e-07 0.00626976 2.04946e-18 1
279 10.3181 9.8623 0.793701 1.05706e-07 0.00626976 4.21159e-17 1
697 9.52439 9.88506 1.5874 7.31219e-08 0.00669232 2.41113e-17 1
240 11.9055 8.99889 -4.93524e-16 1.25498e-07 0.00497571 2.26196e-19 1
242 11.1118 9.03753 0.793701 1.20847e-07 0.00569282 1.98311e-17 1
660 11.9055 8.99889 1.5874 1.25498e-07 0.00497571 2.10215e-17 1
282 11.9055 10.5863 -3.87045e-16 1.25498e-07 0.00497571 8.21154e-18 1
283 11.9055 9.79259 0.793701 1.25498e-07 0.00497571 2.98356e-17 1
284 11.1118 10.6249 0.793701 1.20847e-07 0.00569282 3.68065e-17 1
701 11.1118 9.83123 1.5874 1.20847e-07 0.00569282 3.92541e-17 1
702 11.9055 10.5863 1.5874 1.25498e-07 0.00497571 3.78463e-17 1
244 13.4929 8.90292 -3.6208e-16 1.00658e-07 0.00319459 -7.8673e-19 1
246 12.6992 8.95365 0.793701 1.1882e-07 0.00413607 8.55638e-18 1
664 13.4929 8.90292 1.5874 1.00658e-07 0.00319459 -8.79289e-18 1
285 12.6992 9.74735 -4.11796e-16 1.1882e-07 0.00413607 -1.11532e-18 1
286 13.4929 10.4903 -3.12184e-16 1.00658e-07 0.00319459 -3.71715e-18 1
287 13.4929 9.69662 0.793701 1.00658e-07 0.00319459 -6.54765e-18 1
288 12.6992 10.5411 0.793701 1.1882e-07 0.00413607 1.40724e-17 1
705 12.6992 9.74735 1.5874 1.1882e-07 0.00413607 1.01784e-17 1
706 13.4929 10.4903 1.5874 1.00658e-07 0.00319459 -1.74503e-17 1
250 14.2866 8.84793 0.793701 7.28571e-08 0.00217445 -1.7595e-17 1
289 14.2866 9.64163 -2.48638e-16 7.28571e-08 0.00217445 -3.51817e-18 1
290 15.0803 10.3775 -1.22198e-16 3.82264e-08 0.00110077 -6.40575e-18 1
291 15.0803 9.58376 0.793701 3.82264e-08 0.00110077 -2.33155e-17 1
292 14.2866 10.4353 0.793701 7.28571e-08 0.00217445 -2.36416e-17 1
293 15.874 9.52441 -5.76666e-17 -1.47492e-17 -2.84988e-17 -7.58519e-18 1
294 15.874 10.3181 0.793701 -3.02476e-17 -3.74597e-17 -2.84475e-17 1
709 14.2866 9.64163 1.5874 7.28571e-08 0.00217445 -3.16628e-17 1
710 15.0803 10.3775 1.5874 3.82264e-08 0.00110077 -4.14198e-17 1
713 15.874 9.52441 1.5874 -1.47979e-17 -3.37713e-17 -3.69471e-17 1
295 -4.90649e-16 11.1118 -6.62559e-17 4.1027e-17 -7.55559e-17 -3.07419e-17 1
296 0.793702 11.9649 -1.98244e-16 -3.82264e-08 0.00110077 -3.04951e-17 1
297 0.793702 11.1712 0.793701 -3.82264e-08 0.00110077 -2.64739e-17 1
298 -4.06372e-16 11.9055 0.793701 4.37407e-17 -7.13623e-17 -1.98949e-17 1
299 1.58741 11.229 -2.47005e-16 -7.28571e-08 0.00217445 -4.0449e-17 1
302 1.58741 12.0227 0.793701 -7.28571e-08 0.00217445 -3.58531e-17 1
715 -4.32379e-16 11.1118 1.5874 3.58677e-17 -7.56108e-17 -1.23763e-17 1
716 0.793702 11.9649 1.5874 -3.82264e-08 0.00110077 -1.55181e-17 1
719 1.58741 11.229 1.5874 -7.28571e-08 0.00217445 -2.55836e-17 1
300 2.38111 12.0777 -3.73402e-16 -1.00658e-07 0.00319459 -5.09925e-17 1
301 2.38111 11.284 0.793701 -1.00658e-07 0.00319459 -4.21523e-17 1
303 3.17482 11.3348 -4.72004e-16 -1.1882e-07 0.00413607 -5.12757e-17 1
306 3.17482 12.1285 0.793701 -1.1882e-07 0.00413607 -6.2473e-17 1
720 2.38111 12.0777 1.5874 -1.00658e-07 0.00319459 -3.66096e-17 1
723 3.17482 11.3348 1.5874 -1.1882e-07 0.00413607 -3.23555e-17 1
304 3.96852 12.1737 -5.58946e-16 -1.25498e-07 0.00497571 -6.06955e-17 1
305 3.96852 11.38 0.793701 -1.25498e-07 0.00497571 -3.2095e-17 1
310 4.76223 12.2123 0.793701 -1.20847e-07 0.00569282 -3.42908e-17 1
724 3.96852 12.1737 1.5874 -1.25498e-07 0.00497571 -4.81289e-17 1
727 4.76223 11.4186 1.5874 -1.20847e-07 0.00569282 -6.44828e-18 1
272 6.34962 10.6788 0.793701 -7.31219e-08 0.00669232 -3.14118e-17 1
686 5.55593 10.656 1.5874 -1.05706e-07 0.00626976 -1.22173e-18 1
309 5.55593 11.4497 0.793701 -1.05706e-07 0.00626976 -2.44132e-17 1
314 6.34962 12.2662 0.793701 -7.31219e-08 0.00669232 -5.34451e-17 1
728 5.55593 12.2434 1.5874 -1.05706e-07 0.00626976 -2.03267e-17 1
731 6.34962 11.4725 1.5874 -7.31219e-08 0.00669232 -2.1791e-17 1
276 7.93701 10.6973 0.793701 1.15472e-16 0.00703672 -1.59318e-17 1
690 7.14331 10.6926 1.5874 -1.14604e-08 0.00695009 -1.45251e-17 1
694 8.7307 10.6926 1.5874 1.14604e-08 0.00695009 1.40376e-17 1
313 7.14331 11.4863 0.793701 -1.14604e-08 0.00695009 -3.66104e-17 1
317 8.7307 11.4863 0.793701 1.14604e-08 0.00695009 -5.47767e-18 1
318 7.93701 12.2847 0.793701 1.04781e-16 0.00703672 -2.98102e-17 1
732 7.14331 12.2801 1.5874 -1.14604e-08 0.00695009 -2.87502e-17 1
735 7.93701 11.491 1.5874 1.241e-16 0.00703672 -1.25611e-17 1
736 8.7307 12.2801 1.5874 1.14604e-08 0.00695009 1.32792e-17 1
280 9.52439 10.6788 0.793701 7.31219e-08 0.00669232 2.64637e-17 1
698 10.3181 10.656 1.5874 1.05706e-07 0.00626976 5.70488e-17 1
321 10.3181 11.4497 0.793701 1.05706e-07 0.00626976 2.60505e-17 1
322 9.52439 12.2662 0.793701 7.31219e-08 0.00669232 2.88575e-17 1
739 9.52439 11.4725 1.5874 7.31219e-08 0.00669232 4.46958e-17 1
740 10.3181 12.2434 1.5874 1.05706e-07 0.00626976 5.93863e-17 1
324 11.9055 12.1737 -3.09577e-16 1.25498e-07 0.00497571 1.93885e-17 1
325 11.9055 11.38 0.793701 1.25498e-07 0.00497571 2.66515e-17 1
326 11.1118 12.2123 0.793701 1.20847e-07 0.00569282 4.27801e-17 1
743 11.1118 11.4186 1.5874 1.20847e-07 0.00569282 5.55519e-17 1
744 11.9055 12.1737 1.5874 1.25498e-07 0.00497571 4.35586e-17 1
327 12.6992 11.3348 -3.12645e-16 1.1882e-07 0.00413607 3.11081e-18 1
328 13.4929 12.0777 -2.70838e-16 1.00658e-07 0.00319459 -2.72814e-18 1
329 13.4929 11.284 0.793701 1.00658e-07 0.00319459 -9.9487e-18 1
330 12.6992 12.1285 0.793701 1.1882e-07 0.00413607 1.4388e-17 1
747 12.6992 11.3348 1.5874 1.1882e-07 0.00413607 1.74584e-17 1
748 13.4929 12.0777 1.5874 1.00658e-07 0.00319459 -1.19554e-17 1
331 14.2866 11.229 -1.80659e-16 7.28571e-08 0.00217445 -9.50693e-18 1
332 15.0803 11.9649 -9.1234e-19 3.82264e-08 0.00110077 -1.51119e-17 1
333 15.0803 11.1712 0.793701 3.82264e-08 0.00110077 -3.49861e-17 1
334 14.2866 12.0227 0.793701 7.28571e-08 0.00217445 -2.99947e-17 1
335 15.874 11.1118 3.14987e-17 -3.44377e-17 -3.43066e-17 -1.34419e-17 1
336 15.874 11.9055 0.793701 -3.57093e-17 -3.34902e-17 -4.30591e-17 1
751 14.2866 11.229 1.5874 7.28571e-08 0.00217445 -3.7497e-17 1
752 15.0803 11.9649 1.5874 3.82264e-08 0.00110077 -4.99312e-17 1
755 15.874 11.1118 1.5874 -3.39209e-17 -4.92396e-17 -4.47937e-17 1
337 -5.10869e-16 12.6992 -5.26105e-17 2.76423e-17 -6.79124e-17 -2.37237e-17 1
338 0.793702 13.5523 -1.80992e-16 -3.82264e-08 0.00110077 -2.25765e-17 1
339 0.793702 12.7586 0.793701 -3.82264e-08 0.00110077 -1.82889e-17 1
340 -4.48775e-16 13.4929 0.793701 1.39625e-17 -7.60104e-17 -1.92282e-17 1
341 1.58741 12.8164 -2.84651e-16 -7.28571e-08 0.00217445 -3.68522e-17 1
344 1.58741 13.6101 0.793701 -7.28571e-08 0.00217445 -2.44694e-17 1
757 -3.68209e-16 12.6992 1.5874 3.8865e-17 -6.84922e-17 -1.46309e-17 1
758 0.793702 13.5523 1.5874 -3.82264e-08 0.00110077 -1.20497e-17 1
761 1.58741 12.8164 1.5874 -7.28571e-08 0.00217445 -2.06945e-17 1
342 2.38111 13.6651 -3.69733e-16 -1.00658e-07 0.00319459 -4.26076e-17 1
343 2.38111 12.8714 0.793701 -1.00658e-07 0.00319459 -4.73108e-17 1