ITEM: TIMESTEP
11000
ITEM: NUMBER OF ATOMS
9495
ITEM: BOX BOUNDS mm mm mm
0.0000000000000000e+00 3.1748021039364001e+01
0.0000000000000000e+00 3.1748021039364001e+01
-7.4072398406925706e-04 3.1748021039364001e+01
ITEM: ATOMS id type x y z c_phase c_temp c_surf c_nbond c_visc f_3[1]
1 1 0.116341 1.10259 0.464337 4 2.3276e-13 2 0 0.0994487 -0.68194
2 1 0.974108 1.6685 0.77798 4 1.17426e-12 2 0 0.0994487 -0.517032
3 1 0.714648 0.793562 1.41295 4 4.35708e-13 2 0 0.0994487 -0.281794
4 1 0.00336375 1.60273 1.37437 4 3.0429e-13 2 0 0.0994487 -0.804051
5 1 0.729896 0.0633724 0.61602 4 2.20472e-13 3 0 0.0994487 -0.190374
6 1 1.71015 0.808983 1.0155 4 2.00241e-12 2 0 0.0994487 -0.332069
7 1 1.80059 1.47468 0.221075 4 2.6935e-12 2 0 0.0994487 -0.125829
8 1 1.82015 1.66049 1.76126 4 3.46321e-12 2 0 0.0994487 -0.139533
9 1 2.52093 0.749102 0.203812 4 4.66698e-12 2 0 0.0994487 -0.14294
10 1 2.59149 0.0538711 1.03726 4 3.84493e-12 2 0 0.0994487 -0.295004
11 1 2.64922 1.541 0.882848 4 1.13476e-11 2 0 0.0994487 0.235754
12 1 2.66829 0.815502 1.7457 4 6.5673e-12 2 0 0.0994487 -0.187041
13 1 3.43386 0.933692 0.956349 4 2.38985e-11 2 0 0.0994487 0.32024
14 1 3.49924 0.0925696 1.70571 4 1.12533e-11 2 0 0.0994487 0.178053
15 1 3.60652 1.70798 1.71994 4 4.40737e-11 2 0 0.0994487 0.0487948
16 1 4.10576 0.858321 0.325305 4 5.39262e-11 2 0 0.0994487 0.153146
17 1 4.96159 0.56786 1.17466 4 1.66072e-10 2 0 0.0994487 -0.0370675
18 1 4.91949 1.59987 0.383508 4 2.90222e-10 2 0 0.0994487 -0.100248
19 1 4.3472 0.941527 1.62884 4 7.84973e-11 2 0 0.0994487 0.110738
20 1 3.47612 0.111428 0.171027 4 9.90797e-12 2 0 0.0994487 0.166215
21 1 5.64741 0.645627 0.325839 4 4.09463e-10 2 0 0.0994487 -0.080605
22 1 5.88414 1.31048 0.938036 4 9.04537e-10 2 0 0.0994487 -0.199586
23 1 6.57478 1.39104 0.218369 4 2.15547e-09 2 0 0.0994487 -0.0861337
24 1 5.78374 0.460658 1.69897 4 3.9577e-10 2 0 0.0994487 -0.0846527
25 1 5.03122 1.72414 1.43602 4 3.51972e-10 2 0 0.0994487 0.0453716
26 1 6.7138 0.39031 0.865278 4 1.43916e-09 2 0 0.0994487 -0.079382
27 1 6.69104 1.00962 1.69374 4 1.78483e-09 2 0 0.0994487 -0.107923
28 1 8.2679 0.408875 1.07337 4 8.83851e-09 2 0 0.0994487 -0.100166
29 1 7.36782 1.22285 0.954198 4 5.43542e-09 2 0 0.0994487 -0.302552
30 1 8.24709 1.39092 0.236779 4 1.5649e-08 2 0 0.0994487 -0.0460641
31 1 8.12868 1.27217 1.60653 4 1.2486e-08 2 0 0.0994487 -0.00811687
32 1 7.58247 0.647807 0.140287 4 4.32371e-09 2 0 0.0994487 -0.110936
33 1 8.85849 0.508506 0.273966 4 1.66287e-08 2 0 0.0994487 -0.0616461
34 1 9.55301 0.3386 0.888639 4 3.44747e-08 2 0 0.0994487 0.00506431
35 1 9.02586 1.30716 1.1133 4 3.85821e-08 2 0 0.0994487 -0.0606445
37 1 9.63995 1.37474 0.0900752 4 6.11385e-08 2 0 0.0994487 0.0992916
38 1 11.2128 0.215893 0.632658 4 1.85093e-07 2 0 0.0994487 0.203504
39 1 10.3637 1.04743 0.823114 4 1.32547e-07 2 0 0.0994487 0.539887
40 1 10.523 0.196295 1.44539 4 8.63308e-08 2 0 0.0994487 0.0644291
41 1 11.2856 1.01846 1.41785 4 3.71311e-07 2 0 0.0994487 0.164709
42 1 10.5797 1.67706 1.72992 4 2.61055e-07 2 0 0.0994487 0.118165
43 1 10.2431 0.367861 0.0780499 4 5.24501e-08 2 0 0.0994487 0.149801
44 1 12.8757 0.211714 0.636805 4 1.04286e-06 2 0 0.0994487 0.0587892
45 1 12.0457 1.07408 0.506655 4 8.85795e-07 2 0 0.0994487 -0.0235495
46 1 12.1319 0.316439 1.29957 4 5.57806e-07 2 0 0.0994487 0.018838
47 1 12.7194 1.19864 1.3723 4 1.89698e-06 2 0 0.0994487 -0.0305246
48 1 14.3729 0.318493 0.764646 4 4.4408e-06 2 0 0.0994487 -0.0460361
49 1 13.5924 1.113 0.843618 4 4.23229e-06 2 0 0.0994487 -0.263046
50 1 14.0399 1.55958 0.167469 4 8.0227e-06 2 0 0.0994487 -0.089823
51 1 13.6075 0.359834 1.6352 4 2.14069e-06 2 0 0.0994487 -0.0562616
52 1 14.3777 1.14948 1.47647 4 7.53638e-06 2 0 0.0994487 -0.0178242
53 1 14.8761 1.55337 0.662943 4 1.59499e-05 2 0 0.0994487 0.389956
54 1 15.7061 0.770636 0.788259 4 1.74657e-05 2 0 0.0994487 0.366489
55 1 16.5532 1.54451 0.681338 4 6.39597e-05 2 0 0.0994487 0.000815355
56 1 15.1422 0.4642 1.64149 4 8.05507e-06 2 0 0.0994487 0.15208
57 1 16.547 0.712289 1.3421 4 3.43206e-05 2 0 0.0994487 0.095633
58 1 15.6341 1.48544 1.3916 4 2.90983e-05 2 0 0.0994487 0.153638
59 1 15.1049 0.711806 0.0677822 4 7.84549e-06 2 0 0.0994487 0.169205
60 1 17.2544 0.732268 0.547589 4 5.28263e-05 2 0 0.0994487 0.0286357
61 1 17.9231 1.58109 0.757246 4 0.000160742 2 0 0.0994487 0.0415751
62 1 17.916 0.742935 1.42801 4 8.57215e-05 2 0 0.0994487 -0.224368
63 1 17.2202 1.74884 1.56274 4 0.000124102 2 0 0.0994487 -0.0984758
64 1 19.5372 0.0167772 0.662766 4 9.41118e-05 2 0 0.0994487 0.0436478
65 1 18.7918 0.725074 0.684829 4 0.000122573 2 0 0.0994487 -0.269938
66 1 19.5395 1.55488 0.841653 4 0.000336799 2 0 0.0994487 -0.341145
67 1 19.0276 0.158607 1.54508 4 8.91334e-05 2 0 0.0994487 -0.158661
68 1 19.5934 0.967491 1.68957 4 0.000199472 2 0 0.0994487 0.00835794
69 1 18.6564 1.51302 1.50035 4 0.000222993 2 0 0.0994487 -0.250295
70 1 21.0889 0.349843 1.06749 4 0.000200782 2 0 0.0994487 -0.196119
71 1 20.2493 0.776373 0.980057 4 0.000224765 2 0 0.0994487 -0.0497459
72 1 21.1062 1.65725 0.951506 4 0.000560003 2 0 0.0994487 0.692952
73 1 21.1874 0.765598 0.218806 4 0.000247812 2 0 0.0994487 -0.044585
74 1 20.3457 1.51479 0.193617 4 0.000393056 2 0 0.0994487 -0.0805959
75 1 22.0087 0.262534 0.539755 4 0.000203533 2 0 0.0994487 0.0993654
76 1 22.7913 0.430275 1.40734 4 0.000246085 2 0 0.0994487 0.206609
77 1 22.1105 1.14763 1.32981 4 0.000403571 2 0 0.0994487 0.240043
78 1 21.9982 1.59955 0.538558 4 0.000613848 2 0 0.0994487 0.185184
79 1 22.9157 1.07463 0.445168 4 0.000393312 2 0 0.0994487 0.0520945
80 1 24.228 0.380179 1.45209 4 0.000238155 2 0 0.0994487 0.0576228
81 1 23.5672 0.357563 0.57369 4 0.000239575 2 0 0.0994487 0.0385783
82 1 24.4367 1.18687 0.754729 4 0.000449429 2 0 0.0994487 -0.0192798
83 1 23.4757 1.2499 1.4028 4 0.000501228 2 0 0.0994487 0.0298908
84 1 24.955 0.315686 0.551996 4 0.00020042 2 0 0.0994487 -0.0171931
85 1 26.0085 0.383365 1.1715 4 0.000159082 2 0 0.0994487 -0.185855
86 1 25.169 1.12579 1.48087 4 0.000378003 2 0 0.0994487 0.0251118
87 1 25.9301 1.73476 1.35794 4 0.00051352 2 0 0.0994487 0.0345435
88 1 25.8917 0.929212 0.432102 4 0.000239963 2 0 0.0994487 -0.0954148
89 1 27.5736 1.28032 0.38906 4 0.000142926 2 0 0.0994487 0.0454521
90 1 27.6142 0.50928 0.874321 4 8.50499e-05 2 0 0.0994487 0.175391
91 1 26.7559 1.02809 1.26347 4 0.000183094 2 0 0.0994487 -0.236879
92 1 28.3748 0.337482 1.39813 4 4.75521e-05 2 0 0.0994487 0.00984628
93 1 26.7925 0.240345 0.226621 4 9.18463e-05 2 0 0.0994487 0.0380767
94 1 28.6489 1.24263 0.742341 4 7.92512e-05 2 0 0.0994487 0.102409
95 1 29.3912 0.945639 1.56878 4 3.62494e-05 2 0 0.0994487 -0.0191998
96 1 28.5228 1.71921 1.49749 4 0.000116274 2 0 0.0994487 -0.0429783
97 1 29.8133 0.173958 1.46124 4 1.6447e-05 2 0 0.0994487 0.133416
98 1 29.2734 0.3547 0.615275 4 2.56635e-05 2 0 0.0994487 -0.0816806
99 1 31.5874 0.266128 1.25663 4 4.38358e-06 3 0 0.0994487 0.830097
100 1 30.7016 0.49015 0.470738 4 1.07628e-05 2 0 0.0994487 0.354852
101 1 30.1009 1.19877 0.774133 4 2.80589e-05 2 0 0.0994487 0.210921
102 1 30.8649 0.971942 1.39386 4 1.43977e-05 2 0 0.0994487 0.703282
103 1 1.11081 2.43607 0.129285 4 1.71284e-12 2 0 0.0994487 -0.0373223
104 1 0.133403 2.3821 0.812241 4 6.36135e-13 2 0 0.0994487 -0.984517
105 1 1.28845 3.23764 0.949187 4 5.15317e-12 2 0 0.0994487 0.22209
106 1 1.13977 2.36077 1.59162 4 2.27604e-12 2 0 0.0994487 -0.222189
107 1 0.386685 3.02999 1.54944 4 1.2939e-12 2 0 0.0994487 -0.671256
108 1 0.332248 3.09582 0.131296 4 1.01327e-12 2 0 0.0994487 -0.59134
109 1 1.90972 2.41867 0.78376 4 6.93431e-12 2 0 0.0994487 0.0782083
110 1 2.65852 3.28029 0.860875 4 3.87286e-11 2 0 0.0994487 0.0668031
111 1 2.66931 2.22918 1.53373 4 1.78493e-11 2 0 0.0994487 0.0829548
112 1 3.2579 3.42668 1.64938 4 9.23327e-11 2 0 0.0994487 0.00397463
113 1 2.7261 2.38168 0.0557193 4 1.47165e-11 2 0 0.0994487 0.1466
114 1 3.38195 2.55413 0.779289 4 6.37237e-11 2 0 0.0994487 0.211583
115 1 4.00679 1.841 0.711184 4 9.91095e-11 2 0 0.0994487 -0.0361241
116 1 4.91383 2.57277 0.815661 4 5.73722e-10 2 0 0.0994487 -0.259351
117 1 4.20148 3.3175 0.749446 4 3.45497e-10 2 0 0.0994487 0.0062151
118 1 4.13245 2.64107 1.58328 4 1.88437e-10 2 0 0.0994487 0.0270772
119 1 5.65047 2.44269 0.132743 4 1.23711e-09 2 0 0.0994487 -0.189925
120 1 6.55776 2.18062 0.772597 4 3.80924e-09 2 0 0.0994487 -0.289385
121 1 5.64874 3.19593 0.952489 4 2.28177e-09 2 0 0.0994487 -0.754634
122 1 5.861 2.19426 1.49672 4 1.44686e-09 2 0 0.0994487 0.0126355
123 1 6.52037 3.06691 1.5557 4 6.11363e-09 2 0 0.0994487 0.0443575
124 1 6.65033 2.92778 0.134227 4 5.61591e-09 2 0 0.0994487 0.0288868
125 1 7.45405 2.22586 0.139832 4 1.09789e-08 2 0 0.0994487 -0.0535025
126 1 8.08209 2.20208 0.930382 4 2.57962e-08 2 0 0.0994487 -0.302074
127 1 7.40132 3.06835 0.934051 4 2.06234e-08 2 0 0.0994487 -0.0455243
128 1 7.29928 2.06035 1.56856 4 8.2835e-09 2 0 0.0994487 -0.0607328
129 1 8.18545 3.00183 1.65211 4 4.69472e-08 2 0 0.0994487 -0.0454157
130 1 8.26934 2.9712 0.0392146 4 4.89175e-08 2 0 0.0994487 -0.150617
131 1 8.90393 2.08699 0.252387 4 5.37934e-08 2 0 0.0994487 0.00243344
132 1 9.77243 2.0246 1.10996 4 1.51972e-07 2 0 0.0994487 0.173466
133 1 8.92671 2.97262 0.928693 4 1.21763e-07 2 0 0.0994487 -0.156758
134 1 9.03062 2.22066 1.70398 4 7.22393e-08 2 0 0.0994487 -0.0819677
135 1 9.56096 2.90576 0.21312 4 2.00757e-07 2 0 0.0994487 0.17312
136 1 10.2834 2.1137 0.214297 4 2.16059e-07 2 0 0.0994487 0.337739
137 1 11.1583 1.82604 0.771092 4 6.01607e-07 2 0 0.0994487 0.260091
138 1 10.6214 2.80819 0.921535 4 7.24942e-07 2 0 0.0994487 0.541919
139 1 11.4444 2.82964 1.57484 4 1.77765e-06 2 0 0.0994487 0.0952006
140 1 12.6737 1.94118 0.593851 4 3.46482e-06 2 0 0.0994487 -0.283931
141 1 11.928 2.64099 0.742299 4 2.654e-06 2 0 0.0994487 -0.0386717
142 1 11.9239 1.9206 1.46509 4 1.45579e-06 2 0 0.0994487 0.0946554
143 1 12.8449 3.01766 1.68597 4 8.1425e-06 2 0 0.0994487 0.0363581
144 1 13.1791 3.03035 0.848852 4 1.26362e-05 2 0 0.0994487 -0.440851
145 1 13.3784 1.9912 1.48064 4 6.35491e-06 2 0 0.0994487 -0.0150681
146 1 14.0206 2.44438 0.927124 4 1.71487e-05 2 0 0.0994487 -0.133087
147 1 14.0279 3.38359 1.55716 4 3.36558e-05 2 0 0.0994487 0.0255769
148 1 14.6961 3.43698 0.884932 4 6.57982e-05 2 0 0.0994487 -0.332933
149 1 14.7823 2.29758 1.44821 4 2.80393e-05 2 0 0.0994487 0.0469306
150 1 14.8418 2.51505 0.136557 4 3.22856e-05 2 0 0.0994487 0.173008
151 1 14.1591 3.2262 0.0325348 4 3.24431e-05 2 0 0.0994487 -0.246104
152 1 13.4137 2.29398 0.0590902 4 8.315e-06 2 0 0.0994487 -0.28096
153 1 15.6993 2.44373 0.692668 4 6.7295e-05 2 0 0.0994487 0.364403
154 1 16.3029 3.20095 0.662084 4 0.000192388 2 0 0.0994487 0.328598
155 1 16.308 2.47951 1.52575 4 0.000117608 2 0 0.0994487 -0.10064
156 1 15.3694 3.25723 1.50191 4 0.000100268 2 0 0.0994487 -0.00766483
157 1 15.5706 3.25854 0.0192499 4 8.97406e-05 2 0 0.0994487 0.29024
158 1 17.0646 2.35032 0.682778 4 0.000178876 2 0 0.0994487 0.0234906
159 1 17.944 2.92608 0.699539 4 0.000523127 2 0 0.0994487 -0.231178
160 1 18.0193 2.43917 1.58112 4 0.000357869 2 0 0.0994487 -0.149124
161 1 17.0918 3.1162 1.49491 4 0.000348158 2 0 0.0994487 -0.143424
162 1 18.8908 2.35742 1.01358 4 0.000521213 2 0 0.0994487 -0.5168
163 1 19.7027 3.2427 1.27782 4 0.00148401 2 0 0.0994487 0.394904
164 1 18.884 2.99607 0.196019 4 0.000832337 2 0 0.0994487 -0.171802
165 1 19.587 2.34239 0.101452 4 0.000631007 2 0 0.0994487 -0.132364
166 1 20.3251 1.78863 1.72442 4 0.000470772 2 0 0.0994487 0.0449629
167 1 21.1565 2.41663 0.458355 4 0.00114425 2 0 0.0994487 0.1962
168 1 20.1948 2.46882 1.11433 4 0.000897947 2 0 0.0994487 0.286796
169 1 21.31 3.29463 1.39314 4 0.00281906 2 0 0.0994487 0.0777476
170 1 20.4222 2.99313 0.334941 4 0.00148793 2 0 0.0994487 0.186302
171 1 22.8719 2.07007 1.50872 4 0.00109884 2 0 0.0994487 -0.0221108
172 1 22.9717 2.60199 0.735523 4 0.0019924 2 0 0.0994487 0.133349
173 1 22.0961 2.49917 1.23787 4 0.00160257 2 0 0.0994487 0.186467
174 1 21.9898 3.20043 0.598797 4 0.00309404 2 0 0.0994487 -0.0757263
175 1 22.6771 3.40124 0.07601 4 0.00372481 2 0 0.0994487 0.0760807
176 1 23.7438 1.80844 0.624025 4 0.0008267 2 0 0.0994487 -0.0873459
177 1 24.4289 1.98763 1.61102 4 0.000935113 2 0 0.0994487 -0.0641679
178 1 24.342 2.68296 0.775192 4 0.00183868 2 0 0.0994487 -0.341075
179 1 23.6887 2.90303 1.53628 4 0.00241726 2 0 0.0994487 -0.110492
180 1 24.4728 3.51078 1.55704 4 0.00384775 2 0 0.0994487 -0.118295
181 1 24.9562 2.84566 0.0146836 4 0.00161903 2 0 0.0994487 -0.086456
182 1 26.5483 1.79415 0.511367 4 0.000395056 2 0 0.0994487 -0.00559548
183 1 25.1322 1.85613 0.509414 4 0.000725228 2 0 0.0994487 -0.0215216
184 1 25.7918 2.61203 0.707489 4 0.00121988 2 0 0.0994487 0.228212
185 1 25.1579 2.55548 1.52547 4 0.00138816 2 0 0.0994487 0.057674
186 1 25.7213 3.49812 1.51211 4 0.00276319 2 0 0.0994487 0.123863
187 1 26.5364 2.56002 1.53049 4 0.000814281 2 0 0.0994487 0.0579515
188 1 26.1686 3.50068 0.599043 4 0.00230511 2 0 0.0994487 0.168851
189 1 27.5039 1.98546 1.23792 4 0.000280244 2 0 0.0994487 -0.186412
190 1 28.2489 2.09022 0.343734 4 0.000185774 2 0 0.0994487 -0.0177229
191 1 27.0867 2.6924 0.645359 4 0.00067814 2 0 0.0994487 -0.105596
192 1 27.1998 3.35397 1.41682 4 0.00111082 2 0 0.0994487 -0.0983251
193 1 28.2537 2.75799 1.20639 4 0.000333606 2 0 0.0994487 -0.418303
194 1 27.982 3.21993 0.326384 4 0.000547072 2 0 0.0994487 -0.125256
195 1 29.9568 1.80906 1.70764 4 4.65687e-05 2 0 0.0994487 0.183201
196 1 29.4477 2.04702 0.879698 4 8.5228e-05 2 0 0.0994487 -0.00708022
197 1 29.1956 2.6589 0.290703 4 0.000149496 2 0 0.0994487 -0.0578276
198 1 29.2495 3.2651 1.17365 4 0.00024104 2 0 0.0994487 0.118635
199 1 30.9114 1.98502 0.924207 4 3.14486e-05 2 0 0.0994487 0.967252
200 1 30.1815 2.71094 1.00186 4 8.04071e-05 2 0 0.0994487 0.67512
201 1 31.0247 3.35309 0.97101 4 7.15382e-05 2 0 0.0994487 0.99841
202 1 30.9865 2.69483 1.72648 4 4.43565e-05 2 0 0.0994487 0.578502
203 1 30.1092 3.25953 0.132205 4 0.00010428 2 0 0.0994487 -0.0443656
204 1 30.4116 1.90909 0.0255368 4 3.37561e-05 2 0 0.0994487 0.106045
205 1 31.1434 2.66402 0.0761253 4 3.66243e-05 2 0 0.0994487 0.70882
206 1 0.293831 3.78503 0.918557 4 1.89944e-12 2 0 0.0994487 -0.999347
207 1 0.143046 4.59443 0.482118 4 2.28999e-12 2 0 0.0994487 -0.784494
208 1 1.14036 4.67093 0.986638 4 1.01694e-11 2 0 0.0994487 -0.516754
209 1 0.0884667 5.26681 1.27761 4 3.00698e-12 2 0 0.0994487 -0.887458
210 1 1.04069 3.86421 0.0595682 4 4.34802e-12 2 0 0.0994487 0.0148878
211 1 1.84117 4.04604 0.847105 4 2.00763e-11 2 0 0.0994487 0.00826698
212 1 2.54049 4.85585 1.13748 4 8.66141e-11 2 0 0.0994487 -0.333847
213 1 2.64953 4.14475 0.20674 4 6.32001e-11 2 0 0.0994487 -0.0285724
214 1 1.89758 4.96895 0.278386 4 3.495e-11 2 0 0.0994487 -0.153434
215 1 3.40771 4.86189 0.161635 4 2.74314e-10 2 0 0.0994487 -0.0163885
216 1 3.494 4.07675 0.885909 4 2.13073e-10 2 0 0.0994487 0.0268918
217 1 4.91235 4.00001 1.18344 4 1.4486e-09 2 0 0.0994487 0.0115084
218 1 4.04658 4.88002 1.14639 4 7.48603e-10 2 0 0.0994487 0.264488
219 1 4.26027 4.18509 0.149001 4 5.78005e-10 2 0 0.0994487 0.0377379
220 1 5.00947 4.74001 0.341082 4 2.35755e-09 2 0 0.0994487 0.0765394
221 1 5.77735 3.9378 0.198707 4 3.43103e-09 2 0 0.0994487 0.0260155
222 1 6.48883 3.76611 0.772067 4 9.60087e-09 2 0 0.0994487 0.204553
223 1 5.68025 4.73638 1.02487 4 6.44849e-09 2 0 0.0994487 -0.621689
224 1 6.66321 4.5115 1.6428 4 1.78364e-08 2 0 0.0994487 0.158933
225 1 6.68072 5.1315 0.885352 4 3.01037e-08 2 0 0.0994487 0.206854
226 1 8.1982 3.892 0.700757 4 9.84757e-08 2 0 0.0994487 -0.369901
227 1 7.40842 4.46072 0.5468 4 5.00814e-08 2 0 0.0994487 -0.0252128
228 1 7.39886 3.87029 1.49684 4 3.26669e-08 2 0 0.0994487 0.102577
229 1 8.20004 4.61106 1.48677 4 1.48713e-07 2 0 0.0994487 -0.0118376
230 1 9.8976 3.57792 0.885667 4 5.75695e-07 2 0 0.0994487 0.592782
231 1 9.07913 4.56551 0.821335 4 4.23423e-07 2 0 0.0994487 -0.658543
232 1 9.86266 4.50302 0.126324 4 8.0154e-07 2 0 0.0994487 0.0958654
233 1 9.07829 3.76256 1.49819 4 2.50701e-07 2 0 0.0994487 -0.0708857
234 1 9.86881 4.3462 1.65532 4 9.08231e-07 2 0 0.0994487 -0.0856626
235 1 8.98541 3.86821 0.0631775 4 2.0947e-07 2 0 0.0994487 -0.138754
236 1 11.408 3.64493 0.778297 4 3.2261e-06 2 0 0.0994487 0.202067
237 1 10.5891 4.66652 0.906264 4 2.58193e-06 2 0 0.0994487 0.045077
238 1 11.3867 4.69403 0.230734 4 5.98483e-06 2 0 0.0994487 -0.0498901
239 1 10.7059 3.56689 1.58785 4 1.39859e-06 2 0 0.0994487 -0.0448492
240 1 11.3652 4.3716 1.70545 4 4.7756e-06 2 0 0.0994487 -0.0798278
241 1 11.3894 5.27213 0.983682 4 8.93396e-06 2 0 0.0994487 -0.674479
242 1 10.5826 3.84888 0.176129 4 1.27976e-06 2 0 0.0994487 0.210466
243 1 12.5168 3.57716 0.814749 4 9.85243e-06 2 0 0.0994487 -0.0105746
244 1 12.1916 4.55033 1.00021 4 1.35758e-05 2 0 0.0994487 0.105049
245 1 12.7362 4.99738 1.68903 4 2.70122e-05 2 0 0.0994487 0.19133
246 1 13.2258 4.67863 0.80017 4 4.21522e-05 2 0 0.0994487 -0.00469576
247 1 12.6435 4.61885 0.0632315 4 2.14131e-05 2 0 0.0994487 -0.0335801
248 1 13.9891 4.12825 0.69648 4 6.03127e-05 2 0 0.0994487 -0.430173
249 1 13.4832 4.21781 1.59317 4 3.6267e-05 2 0 0.0994487 0.0820189
250 1 14.2046 5.11838 1.52001 4 0.000135789 2 0 0.0994487 -0.0289904
251 1 14.9402 5.01141 0.811699 4 0.000240627 2 0 0.0994487 -0.0526796
252 1 14.9642 4.4167 1.59432 4 0.000162363 2 0 0.0994487 -0.0635598
253 1 14.1405 4.90647 0.0597868 4 0.000104346 2 0 0.0994487 -0.0856935
254 1 14.961 4.19423 0.096508 4 0.000125505 2 0 0.0994487 0.0322746
255 1 15.6685 4.06642 0.926277 4 0.000228696 2 0 0.0994487 0.872583
256 1 15.8798 4.77595 0.186426 4 0.000406623 2 0 0.0994487 0.165393
257 1 16.5936 4.58036 0.900182 4 0.00068749 2 0 0.0994487 -0.078931
258 1 16.3184 3.95875 1.6903 4 0.000354004 2 0 0.0994487 -0.0433918
259 1 15.8111 5.05317 1.64084 4 0.000466789 2 0 0.0994487 0.0995032
260 1 17.2689 3.83372 0.811237 4 0.000679389 2 0 0.0994487 -0.345368
261 1 18.0864 4.48855 1.09806 4 0.00174841 2 0 0.0994487 -0.612069
262 1 17.9525 3.63794 1.65602 4 0.000883409 2 0 0.0994487 -0.192797
263 1 17.4569 4.57727 0.0147963 4 0.00105484 2 0 0.0994487 -0.0974043
264 1 18.1348 3.8547 0.0583493 4 0.0010223 2 0 0.0994487 -0.120511
265 1 18.8779 3.70667 0.95022 4 0.00150551 2 0 0.0994487 0.0693182
266 1 18.8235 4.60949 0.361826 4 0.00268203 2 0 0.0994487 0.115619
267 1 19.6906 4.67872 1.0803 4 0.00510083 2 0 0.0994487 0.931544
268 1 18.7859 5.27693 1.20102 4 0.0047059 2 0 0.0994487 0.599219
269 1 19.5987 3.76722 0.227421 4 0.00205578 2 0 0.0994487 0.164278
270 1 20.4384 3.82188 1.23329 4 0.00346974 2 0 0.0994487 0.325983
271 1 20.8846 4.71868 1.39403 4 0.00954179 2 0 0.0994487 0.149082
272 1 21.5775 4.95128 0.810455 4 0.0152789 2 0 0.0994487 -0.00367873
273 1 21.0824 3.93136 0.512408 4 0.00479282 2 0 0.0994487 0.0883219
274 1 20.1339 4.78559 0.352846 4 0.00671028 2 0 0.0994487 0.1456
275 1 22.8205 3.63186 1.42135 4 0.00505203 2 0 0.0994487 -0.0183842
276 1 21.9406 4.13318 1.31068 4 0.00752203 2 0 0.0994487 0.0272286
277 1 22.4705 5.17735 1.27286 4 0.0217946 2 0 0.0994487 0.0207408
278 1 22.6119 4.34705 0.510028 4 0.00972831 2 0 0.0994487 -0.0220861
279 1 23.5735 3.63903 0.782677 4 0.00523682 2 0 0.0994487 0.185591
280 1 24.336 4.32055 0.625018 4 0.0089298 2 0 0.0994487 -0.150079
281 1 23.4679 4.54946 1.33355 4 0.0123884 2 0 0.0994487 -0.0790347
282 1 24.8518 5.25716 0.566763 4 0.016555 2 0 0.0994487 0.040916
283 1 23.5518 5.06386 0.533607 4 0.0190974 2 0 0.0994487 -0.0968692
284 1 25.0086 4.50055 1.62342 4 0.00845969 2 0 0.0994487 -0.0421895
285 1 25.0629 3.68037 0.802132 4 0.004084 2 0 0.0994487 -0.187899
286 1 24.363 5.28843 1.43377 4 0.0204023 2 0 0.0994487 -0.154698
287 1 25.6904 5.1389 1.34266 4 0.0111688 2 0 0.0994487 0.210107
288 1 26.3575 4.29031 1.37159 4 0.00407508 2 0 0.0994487 0.149487
289 1 26.5026 4.97257 0.640732 4 0.00623059 2 0 0.0994487 0.0989709
290 1 25.5284 4.40089 0.388179 4 0.00625248 2 0 0.0994487 0.0559518
291 1 27.3302 4.86961 1.40568 4 0.00350473 2 0 0.0994487 0.0066109
292 1 27.9624 3.97641 1.10408 4 0.00111406 2 0 0.0994487 -0.309496
293 1 28.2771 4.73475 0.706344 4 0.00159124 2 0 0.0994487 -0.0812471
294 1 27.0674 4.04323 0.570038 4 0.00215791 2 0 0.0994487 0.0120249
295 1 28.9321 3.77016 0.487204 4 0.00044184 2 0 0.0994487 -0.00703296
296 1 29.0873 4.52317 1.33085 4 0.000717848 2 0 0.0994487 0.0574843
297 1 29.9979 4.07209 1.02303 4 0.000237399 2 0 0.0994487 -0.275223
298 1 31.0296 3.97382 0.373364 4 0.000100856 2 0 0.0994487 0.657582
299 1 30.2046 4.67765 0.491317 4 0.000308127 2 0 0.0994487 0.00995685
300 1 30.9783 4.59929 1.41131 4 0.000158975 2 0 0.0994487 0.679912
301 1 0.908283 5.53205 0.461647 4 1.13219e-11 2 0 0.0994487 -0.463785
302 1 1.53161 5.51184 1.37971 4 2.63576e-11 2 0 0.0994487 -0.117387
303 1 0.793684 6.22023 1.2768 4 1.31454e-11 2 0 0.0994487 -0.703381
304 1 0.257003 6.91734 1.50738 4 7.82706e-12 2 0 0.0994487 -0.772633
305 1 0.969942 6.9454 0.573423 4 2.42233e-11 2 0 0.0994487 -0.473533
306 1 1.7053 7.02884 1.23811 4 6.86846e-11 2 0 0.0994487 0.0665176
307 1 1.89588 6.19966 0.519025 4 6.75147e-11 2 0 0.0994487 -0.1564
308 1 3.10475 5.61709 1.30057 4 2.86598e-10 2 0 0.0994487 0.0402521
309 1 2.26359 6.15348 1.40977 4 1.01027e-10 2 0 0.0994487 0.0408557
310 1 3.25442 6.96226 1.12748 4 7.49919e-10 2 0 0.0994487 -0.0541243
311 1 2.68177 5.61289 0.273587 4 1.53365e-10 2 0 0.0994487 -0.059686
312 1 3.39503 6.28191 0.500536 4 6.76962e-10 2 0 0.0994487 -0.121445
313 1 4.18979 5.46246 0.325783 4 1.22802e-09 2 0 0.0994487 0.031017
314 1 4.93434 5.42873 1.31778 4 3.8304e-09 2 0 0.0994487 -0.235101
315 1 4.13622 6.09659 1.22779 4 1.83999e-09 2 0 0.0994487 -0.0893897
316 1 4.82567 6.23357 0.333842 4 4.60547e-09 2 0 0.0994487 -0.0345765
317 1 4.77312 6.79931 1.15967 4 6.65244e-09 2 0 0.0994487 -0.305931
318 1 4.00267 7.02511 0.221759 4 2.10605e-09 2 0 0.0994487 -0.0853444
319 1 5.78575 5.42185 0.301847 4 9.963e-09 2 0 0.0994487 0.0125016
320 1 5.6935 6.24342 0.9632 4 1.61765e-08 2 0 0.0994487 -0.967779
321 1 6.4578 5.98425 1.59671 4 3.54209e-08 2 0 0.0994487 0.140914
322 1 6.43234 6.86927 1.00965 4 6.14993e-08 2 0 0.0994487 0.851672
323 1 6.37773 6.04115 0.154639 4 2.62019e-08 2 0 0.0994487 0.111112
324 1 5.54993 7.05206 0.147147 4 1.64156e-08 2 0 0.0994487 0.036386
325 1 8.21355 5.31419 0.694273 4 2.39716e-07 2 0 0.0994487 -0.089594
326 1 7.32761 6.15925 0.754293 4 1.25202e-07 2 0 0.0994487 0.225731
327 1 7.39163 5.41839 1.49138 4 8.62768e-08 2 0 0.0994487 0.136753
328 1 8.23884 6.11028 1.49159 4 3.91978e-07 2 0 0.0994487 0.0187364
329 1 8.01352 6.85364 0.728993 4 4.46562e-07 2 0 0.0994487 0.0691852
330 1 7.28191 6.86379 1.59601 4 1.84844e-07 2 1 0.0994487 0.126048
331 1 7.33029 5.3575 0.0461812 4 6.06844e-08 2 0 0.0994487 0.0813565
332 1 9.76796 5.3194 0.792562 4 1.43741e-06 2 0 0.0994487 0.328445
333 1 8.88016 6.18865 0.736908 4 9.01647e-07 2 0 0.0994487 -0.235543
334 1 9.05434 5.3271 1.5973 4 6.42574e-07 2 0 0.0994487 -0.0628316
335 1 9.73844 6.19052 1.46731 4 2.48824e-06 2 0 0.0994487 -0.106404
336 1 9.09351 6.95013 1.463 4 1.95707e-06 2 2 0.0994487 -0.0756728
337 1 9.76329 6.23201 0.0941385 4 2.13623e-06 2 0 0.0994487 -0.0359525
338 1 8.99733 5.46479 0.012702 4 5.33642e-07 2 0 0.0994487 -0.134754
339 1 10.5831 6.02196 0.964384 4 5.69721e-06 2 0 0.0994487 -0.356511
340 1 11.3128 6.37134 0.0776634 4 1.08939e-05 2 0 0.0994487 0.100341
341 1 10.5187 6.94145 0.15452 4 6.95012e-06 2 0 0.0994487 -0.0735409
342 1 10.4686 6.92564 1.49614 4 8.79569e-06 2 1 0.0994487 -0.0635396
343 1 11.9994 5.6274 0.183157 4 1.76404e-05 2 0 0.0994487 -0.0105314
344 1 12.6757 5.81849 0.861776 4 4.65104e-05 2 0 0.0994487 0.0817413
345 1 11.7774 6.20735 1.05291 4 2.2086e-05 2 0 0.0994487 0.292159
346 1 13.3219 5.86668 1.55471 4 8.62049e-05 2 0 0.0994487 0.208165
347 1 13.3506 6.58297 0.813679 4 0.000146442 2 0 0.0994487 -0.292126
348 1 13.3212 5.53867 0.0424813 4 6.96707e-05 2 0 0.0994487 -0.142911
349 1 14.0617 5.71565 0.77266 4 0.000173223 2 0 0.0994487 -0.372702
350 1 14.3278 6.65176 1.40646 4 0.000417723 2 1 0.0994487 -0.103114
351 1 14.1303 6.38483 0.0380077 4 0.000219606 2 0 0.0994487 -0.0826112
352 1 15.0282 5.64393 0.034369 4 0.000335029 2 0 0.0994487 0.0573639
353 1 15.8305 5.73813 0.95832 4 0.000804716 2 0 0.0994487 0.625796
354 1 15.0472 6.45091 0.806774 4 0.000657582 2 0 0.0994487 -0.176064
355 1 16.491 6.45257 1.1401 4 0.00218492 2 0 0.0994487 0.208325
356 1 15.1058 5.87594 1.69804 4 0.000503868 2 0 0.0994487 -0.0976588
357 1 16.62 5.41933 0.276819 4 0.0010928 2 0 0.0994487 0.0799267
358 1 15.6753 6.3382 0.0390223 4 0.000865997 2 0 0.0994487 0.0398507
359 1 17.8271 5.30128 0.541411 4 0.00240651 2 0 0.0994487 0.150337
360 1 17.113 5.42499 1.24767 4 0.00176697 2 0 0.0994487 -0.286563
361 1 17.0619 6.27419 0.411469 4 0.00270332 2 0 0.0994487 0.138954
362 1 17.6649 6.24649 1.38542 4 0.00441394 2 0 0.0994487 -0.254243
363 1 18.2745 7.0517 1.13153 4 0.0104934 2 1 0.0994487 0.631164
364 1 18.3714 6.23173 0.609762 4 0.00684273 2 0 0.0994487 0.156192
365 1 19.429 5.75829 0.62055 4 0.0100616 2 0 0.0994487 0.0572026
366 1 19.3279 6.55755 1.35081 4 0.0167208 2 1 0.0994487 0.274744
367 1 19.9942 6.75229 0.610261 4 0.0287716 2 0 0.0994487 -0.0118972
368 1 20.7494 5.77593 0.653722 4 0.0218739 2 0 0.0994487 -0.104029
369 1 20.1931 5.61076 1.39557 4 0.0144961 2 0 0.0994487 0.312049
370 1 20.7787 6.6124 1.30355 4 0.0444796 2 1 0.0994487 -0.345306
371 1 21.6592 6.66248 0.666524 4 0.0541393 2 0 0.0994487 -0.043743
372 1 21.6631 5.87866 1.38528 4 0.0355385 2 0 0.0994487 0.0419143
373 1 21.6904 5.73259 0.0517844 4 0.0255083 2 0 0.0994487 -0.00148828
374 1 22.6732 5.8279 0.674154 4 0.0361698 2 0 0.0994487 0.0027108
375 1 22.6319 6.69333 1.20734 4 0.0742543 2 0 0.0994487 -0.202383
376 1 23.3484 6.78052 0.267835 4 0.0639692 2 0 0.0994487 -0.125331
377 1 23.4822 5.88496 1.30013 4 0.0410481 2 0 0.0994487 -0.17629
378 1 24.3197 6.56281 1.15825 4 0.0529159 2 0 0.0994487 0.174837
379 1 24.1457 6.00685 0.427617 4 0.0353958 2 0 0.0994487 0.0024513
380 1 25.6831 5.86213 0.700952 4 0.0183704 2 0 0.0994487 0.163904
381 1 25.1124 6.04132 1.67733 4 0.0271897 2 0 0.0994487 0.00367471
382 1 25.1593 6.74159 0.495153 4 0.0388429 2 0 0.0994487 0.0904002
383 1 25.8251 6.59457 1.40775 4 0.0269741 2 0 0.0994487 0.0881083
384 1 26.6903 5.84511 1.4763 4 0.0106392 2 0 0.0994487 0.0917621
385 1 27.4966 5.54334 0.722172 4 0.00485588 2 0 0.0994487 -0.251574
386 1 26.7485 6.36567 0.651888 4 0.0136621 2 0 0.0994487 0.0387495
387 1 27.7011 6.47315 1.36539 4 0.00761642 2 0 0.0994487 0.131488
388 1 28.3648 5.52203 1.4872 4 0.00250814 2 0 0.0994487 0.0456318
389 1 27.7097 7.0074 0.530173 4 0.00947524 2 0 0.0994487 0.0321172
390 1 29.3889 5.30889 0.818726 4 0.000990521 2 0 0.0994487 0.316733
391 1 29.4379 6.18214 1.32212 4 0.0014631 2 0 0.0994487 -0.00338361
392 1 29.5784 6.89773 0.506505 4 0.00181929 2 0 0.0994487 0.0925822
393 1 28.4685 6.20589 0.638647 4 0.00332593 2 0 0.0994487 -0.270086
394 1 29.3762 6.15398 0.0801838 4 0.00138876 2 0 0.0994487 0.0969257
395 1 28.4822 5.38976 0.0592959 4 0.00178748 2 0 0.0994487 -0.105003
396 1 30.9636 5.36838 0.595026 4 0.000279766 2 0 0.0994487 0.667851
397 1 30.2159 5.45949 1.46813 4 0.000494844 2 0 0.0994487 0.05402
398 1 30.3958 6.18258 0.649752 4 0.000670974 2 0 0.0994487 0.328997
399 1 31.2189 6.15516 1.38439 4 0.000329467 2 0 0.0994487 0.587258
400 1 31.1994 6.95407 0.60342 4 0.000495201 2 0 0.0994487 0.812249
401 1 31.7235 5.99622 0.446564 4 0.00021346 2 0 0.0994487 0.87973
402 1 0.261851 7.63199 0.661866 4 1.18688e-11 2 0 0.0994487 -0.876374
403 1 0.831025 8.46344 0.61936 4 3.30907e-11 2 0 0.0994487 -0.577626
404 1 1.11211 7.86396 1.49711 4 3.64488e-11 2 0 0.0994487 -0.154429
405 1 0.356955 8.5626 1.47035 4 1.6379e-11 2 0 0.0994487 -0.764984
406 1 1.59266 7.76478 0.37187 4 7.93928e-11 2 0 0.0994487 -0.0897882
407 1 1.72382 8.61735 1.46471 4 1.21337e-10 2 0 0.0994487 0.0395965
408 1 2.48799 7.14986 0.476331 4 2.61187e-10 2 0 0.0994487 -0.0836967
409 1 2.19177 8.6335 0.399707 4 2.61313e-10 2 0 0.0994487 -0.137268
410 1 2.39416 7.81099 1.27726 4 2.76631e-10 2 0 0.0994487 0.0869915
411 1 3.01349 8.51445 0.935533 4 9.08402e-10 2 0 0.0994487 -0.539314
412 1 3.24418 7.77117 0.327041 4 9.69494e-10 2 0 0.0994487 -0.196205
413 1 3.81243 8.45898 0.0822892 4 2.34087e-09 2 0 0.0994487 -0.0457789
414 1 3.97971 7.67009 1.24863 4 2.84594e-09 2 0 0.0994487 -0.0554896
415 1 4.70459 8.25653 0.921772 4 9.91597e-09 2 0 0.0994487 0.295329
416 1 4.67023 7.63706 0.247803 4 6.72951e-09 2 0 0.0994487 0.0376913
417 1 3.81127 8.34851 1.76162 4 2.32096e-09 2 0 0.0994487 -0.0574362
418 1 5.86955 8.34822 0.169905 4 4.12223e-08 2 0 0.0994487 0.113105
419 1 5.48363 7.59071 1.03232 4 2.4854e-08 2 0 0.0994487 -0.467666
420 1 6.49365 7.53799 0.169175 4 7.28423e-08 2 0 0.0994487 0.187623
421 1 6.39674 8.23976 1.04384 4 1.14101e-07 2 0 0.0994487 0.338146
422 1 7.28583 7.76918 0.746313 4 2.94435e-07 2 1 0.0994487 0.00992884
423 1 8.2859 8.31376 0.868772 4 1.35201e-06 2 2 0.0994487 0.278826
424 1 7.27857 8.18368 1.7015 4 4.35018e-07 2 2 0.0994487 -0.174663
425 1 8.05208 7.48784 1.5604 4 7.2451e-07 2 1 0.0994487 0.1851
426 1 7.99895 7.60312 0.0282118 4 4.51562e-07 2 0 0.0994487 0.0674126
427 1 9.84313 7.22199 0.72344 4 4.92301e-06 2 1 0.0994487 -0.346917
428 1 8.91207 7.61626 0.661731 4 1.99484e-06 2 1 0.0994487 0.158741
429 1 9.73234 8.61964 0.693151 4 8.08317e-06 2 3 0.0994487 -0.257268
430 1 9.09265 8.69904 1.44495 4 4.99666e-06 2 9 0.0994487 -0.394708
431 1 9.64026 7.88932 1.60055 4 6.96399e-06 2 8 0.0994487 -0.340229
432 1 11.3161 7.14287 0.810636 4 2.219e-05 2 1 0.0994487 0.448474
433 1 10.5731 7.9454 0.844311 4 1.5465e-05 2 3 0.0994487 -0.198623
434 1 10.5877 8.70196 1.4255 4 2.43274e-05 1 8 0.0994487 -0.147927
435 1 11.4057 7.80503 1.60301 4 4.09516e-05 2 7 0.0994487 0.228065
436 1 11.227 8.11851 0.0422735 4 2.2737e-05 2 0 0.0994487 0.174326
437 1 12.7061 7.28322 0.565784 4 0.00010894 2 0 0.0994487 -0.0531454
438 1 12.178 8.23518 0.590765 4 9.08258e-05 2 2 0.0994487 0.163926
439 1 12.0637 7.15788 1.37768 4 5.63142e-05 2 3 0.0994487 0.145613