ITEM: TIMESTEP
16000
ITEM: NUMBER OF ATOMS
9495
ITEM: BOX BOUNDS mm mm mm
0.0000000000000000e+00 3.1748021039364001e+01
0.0000000000000000e+00 3.1748021039364001e+01
-7.4072398406925706e-04 3.1748021039364001e+01
ITEM: ATOMS id type x y z c_phase c_temp c_surf c_nbond c_visc f_3[1]
1 1 0.116341 1.10259 0.464337 4 9.11242e-10 2 0 0.0994487 -0.68194
2 1 0.974108 1.6685 0.77798 4 2.82379e-09 2 0 0.0994487 -0.51703
3 1 0.714648 0.793562 1.41295 4 1.38142e-09 2 0 0.0994487 -0.281793
4 1 0.00336375 1.60273 1.37437 4 1.12744e-09 2 0 0.0994487 -0.804051
5 1 0.729896 0.0633724 0.61602 4 8.17743e-10 3 0 0.0994487 -0.190374
6 1 1.71015 0.808983 1.0155 4 4.17732e-09 2 0 0.0994487 -0.332067
7 1 1.80059 1.47468 0.221075 4 5.1662e-09 2 0 0.0994487 -0.125828
8 1 1.82015 1.66049 1.76126 4 6.24252e-09 2 0 0.0994487 -0.139532
9 1 2.52093 0.749102 0.203812 4 7.70489e-09 2 0 0.0994487 -0.142938
10 1 2.59149 0.0538711 1.03726 4 6.91045e-09 2 0 0.0994487 -0.295003
11 1 2.64922 1.541 0.882848 4 1.44021e-08 2 0 0.0994487 0.235767
12 1 2.66829 0.815502 1.7457 4 9.99083e-09 2 0 0.0994487 -0.187039
13 1 3.43386 0.933692 0.956349 4 2.51672e-08 2 0 0.0994487 0.320252
14 1 3.49924 0.0925696 1.70571 4 1.47381e-08 2 0 0.0994487 0.178055
15 1 3.60652 1.70798 1.71994 4 4.05161e-08 2 0 0.0994487 0.048798
16 1 4.10576 0.858321 0.325305 4 4.69721e-08 2 0 0.0994487 0.15315
17 1 4.96159 0.56786 1.17466 4 1.12469e-07 2 0 0.0994487 -0.0370614
18 1 4.91949 1.59987 0.383508 4 1.65152e-07 2 0 0.0994487 -0.100243
19 1 4.3472 0.941527 1.62884 4 6.30408e-08 2 0 0.0994487 0.110742
20 1 3.47612 0.111428 0.171027 4 1.3384e-08 2 0 0.0994487 0.166217
21 1 5.64741 0.645627 0.325839 4 2.20151e-07 2 0 0.0994487 -0.080601
22 1 5.88414 1.31048 0.938036 4 3.7661e-07 2 0 0.0994487 -0.199549
23 1 6.57478 1.39104 0.218369 4 7.18718e-07 2 0 0.0994487 -0.0861278
24 1 5.78374 0.460658 1.69897 4 2.16934e-07 2 0 0.0994487 -0.0846483
25 1 5.03122 1.72414 1.43602 4 1.88409e-07 2 0 0.0994487 0.0453786
26 1 6.7138 0.39031 0.865278 4 5.53007e-07 2 0 0.0994487 -0.0793764
27 1 6.69104 1.00962 1.69374 4 6.29953e-07 2 0 0.0994487 -0.107917
28 1 8.2679 0.408875 1.07337 4 2.02526e-06 2 0 0.0994487 -0.100158
29 1 7.36782 1.22285 0.954198 4 1.38307e-06 2 0 0.0994487 -0.302516
30 1 8.24709 1.39092 0.236779 4 2.99507e-06 2 0 0.0994487 -0.0460563
31 1 8.12868 1.27217 1.60653 4 2.50374e-06 2 0 0.0994487 -0.00810921
32 1 7.58247 0.647807 0.140287 4 1.23343e-06 2 0 0.0994487 -0.110931
33 1 8.85849 0.508506 0.273966 4 3.23201e-06 2 0 0.0994487 -0.0616402
34 1 9.55301 0.3386 0.888639 4 5.36967e-06 2 0 0.0994487 0.00507333
35 1 9.02586 1.30716 1.1133 4 5.59077e-06 2 0 0.0994487 -0.0606163
37 1 9.63995 1.37474 0.0900752 4 7.92192e-06 2 0 0.0994487 0.0992979
38 1 11.2128 0.215893 0.632658 4 1.79861e-05 2 0 0.0994487 0.203516
39 1 10.3637 1.04743 0.823114 4 1.3443e-05 2 0 0.0994487 0.539912
40 1 10.523 0.196295 1.44539 4 1.04733e-05 2 0 0.0994487 0.0644363
41 1 11.2856 1.01846 1.41785 4 2.8743e-05 2 0 0.0994487 0.164727
42 1 10.5797 1.67706 1.72992 4 2.21243e-05 2 0 0.0994487 0.118174
43 1 10.2431 0.367861 0.0780499 4 7.33916e-06 2 0 0.0994487 0.149807
44 1 12.8757 0.211714 0.636805 4 6.36693e-05 2 0 0.0994487 0.0588013
45 1 12.0457 1.07408 0.506655 4 5.40383e-05 2 0 0.0994487 -0.0235341
46 1 12.1319 0.316439 1.29957 4 4.05746e-05 2 0 0.0994487 0.0188523
47 1 12.7194 1.19864 1.3723 4 9.29609e-05 2 0 0.0994487 -0.030501
48 1 14.3729 0.318493 0.764646 4 0.000175437 2 0 0.0994487 -0.0460238
49 1 13.5924 1.113 0.843618 4 0.000163684 2 0 0.0994487 -0.263008
50 1 14.0399 1.55958 0.167469 4 0.000257471 2 0 0.0994487 -0.0898109
51 1 13.6075 0.359834 1.6352 4 0.000106566 2 0 0.0994487 -0.0562503
52 1 14.3777 1.14948 1.47647 4 0.000241421 2 0 0.0994487 -0.0178058
53 1 14.8761 1.55337 0.662943 4 0.000398234 2 0 0.0994487 0.389994
54 1 15.7061 0.770636 0.788259 4 0.000431276 2 0 0.0994487 0.366517
55 1 16.5532 1.54451 0.681338 4 0.00104667 2 0 0.0994487 0.000856762
56 1 15.1422 0.4642 1.64149 4 0.000259911 2 0 0.0994487 0.152092
57 1 16.547 0.712289 1.3421 4 0.000706059 2 0 0.0994487 0.0956612
58 1 15.6341 1.48544 1.3916 4 0.000598318 2 0 0.0994487 0.153669
59 1 15.1049 0.711806 0.0677822 4 0.000256842 2 0 0.0994487 0.169213
60 1 17.2544 0.732268 0.547589 4 0.000969675 2 0 0.0994487 0.0286581
61 1 17.9231 1.58109 0.757246 4 0.00196108 2 0 0.0994487 0.0416185
62 1 17.916 0.742935 1.42801 4 0.00134552 2 0 0.0994487 -0.224337
63 1 17.2202 1.74884 1.56274 4 0.00165552 2 0 0.0994487 -0.0984461
64 1 19.5372 0.0167772 0.662766 4 0.00148081 2 0 0.0994487 0.0436609
65 1 18.7918 0.725074 0.684829 4 0.00169643 2 0 0.0994487 -0.269913
66 1 19.5395 1.55488 0.841653 4 0.00319186 2 0 0.0994487 -0.341092
67 1 19.0276 0.158607 1.54508 4 0.00142949 2 0 0.0994487 -0.158649
68 1 19.5934 0.967491 1.68957 4 0.00230311 2 0 0.0994487 0.0083811
69 1 18.6564 1.51302 1.50035 4 0.00245277 2 0 0.0994487 -0.250253
70 1 21.0889 0.349843 1.06749 4 0.00237751 2 0 0.0994487 -0.196096
71 1 20.2493 0.776373 0.980057 4 0.00249037 2 0 0.0994487 -0.0496972
72 1 21.1062 1.65725 0.951506 4 0.00437184 2 0 0.0994487 0.693067
73 1 21.1874 0.765598 0.218806 4 0.00267837 2 0 0.0994487 -0.0445672
74 1 20.3457 1.51479 0.193617 4 0.00355002 2 0 0.0994487 -0.0805759
75 1 22.0087 0.262534 0.539755 4 0.00241677 2 0 0.0994487 0.0993843
76 1 22.7913 0.430275 1.40734 4 0.00270365 2 0 0.0994487 0.206637
77 1 22.1105 1.14763 1.32981 4 0.00355769 2 0 0.0994487 0.240103
78 1 21.9982 1.59955 0.538558 4 0.00465125 2 0 0.0994487 0.185223
79 1 22.9157 1.07463 0.445168 4 0.00355501 2 0 0.0994487 0.0521256
80 1 24.228 0.380179 1.45209 4 0.00267313 2 0 0.0994487 0.0576417
81 1 23.5672 0.357563 0.57369 4 0.00268724 2 0 0.0994487 0.0386013
82 1 24.4367 1.18687 0.754729 4 0.00388576 2 0 0.0994487 -0.0192291
83 1 23.4757 1.2499 1.4028 4 0.0041584 2 0 0.0994487 0.0299325
84 1 24.955 0.315686 0.551996 4 0.00237397 2 0 0.0994487 -0.0171751
85 1 26.0085 0.383365 1.1715 4 0.00195696 2 0 0.0994487 -0.185841
86 1 25.169 1.12579 1.48087 4 0.00345393 2 0 0.0994487 0.0251332
87 1 25.9301 1.73476 1.35794 4 0.00413798 2 0 0.0994487 0.0345668
88 1 25.8917 0.929212 0.432102 4 0.00252083 2 0 0.0994487 -0.0953987
89 1 27.5736 1.28032 0.38906 4 0.00170855 2 0 0.0994487 0.0454609
90 1 27.6142 0.50928 0.874321 4 0.00124995 2 0 0.0994487 0.175401
91 1 26.7559 1.02809 1.26347 4 0.00203243 2 0 0.0994487 -0.236855
92 1 28.3748 0.337482 1.39813 4 0.000845387 2 0 0.0994487 0.009853
93 1 26.7925 0.240345 0.226621 4 0.00137385 2 0 0.0994487 0.0380831
94 1 28.6489 1.24263 0.742341 4 0.00113196 2 0 0.0994487 0.102419
95 1 29.3912 0.945639 1.56878 4 0.000678133 2 0 0.0994487 -0.0191961
96 1 28.5228 1.71921 1.49749 4 0.00145204 2 0 0.0994487 -0.0429695
97 1 29.8133 0.173958 1.46124 4 0.000421828 2 0 0.0994487 0.133418
98 1 29.2734 0.3547 0.615275 4 0.000553425 2 0 0.0994487 -0.0816778
99 1 31.5874 0.266128 1.25663 4 0.000178384 3 0 0.0994487 0.830097
100 1 30.7016 0.49015 0.470738 4 0.000319953 2 0 0.0994487 0.354852
101 1 30.1009 1.19877 0.774133 4 0.000574727 2 0 0.0994487 0.210926
102 1 30.8649 0.971942 1.39386 4 0.000380829 2 0 0.0994487 0.703282
103 1 1.11081 2.43607 0.129285 4 3.76234e-09 2 0 0.0994487 -0.0373215
104 1 0.133403 2.3821 0.812241 4 1.9488e-09 2 0 0.0994487 -0.984517
105 1 1.28845 3.23764 0.949187 4 8.41637e-09 2 0 0.0994487 0.222102
106 1 1.13977 2.36077 1.59162 4 4.63967e-09 2 0 0.0994487 -0.222188
107 1 0.386685 3.02999 1.54944 4 3.27771e-09 2 0 0.0994487 -0.671256
108 1 0.332248 3.09582 0.131296 4 2.77617e-09 2 0 0.0994487 -0.59134
109 1 1.90972 2.41867 0.78376 4 1.01653e-08 2 0 0.0994487 0.078214
110 1 2.65852 3.28029 0.860875 4 3.76401e-08 2 0 0.0994487 0.0668098
111 1 2.66931 2.22918 1.53373 4 2.05589e-08 2 0 0.0994487 0.0829581
112 1 3.2579 3.42668 1.64938 4 7.31615e-08 2 0 0.0994487 0.00397861
113 1 2.7261 2.38168 0.0557193 4 1.78979e-08 2 0 0.0994487 0.146602
114 1 3.38195 2.55413 0.779289 4 5.29717e-08 2 0 0.0994487 0.21159
115 1 4.00679 1.841 0.711184 4 7.32135e-08 2 0 0.0994487 -0.0361162
116 1 4.91383 2.57277 0.815661 4 2.72264e-07 2 0 0.0994487 -0.259337
117 1 4.20148 3.3175 0.749446 4 1.92511e-07 2 0 0.0994487 0.00622184
118 1 4.13245 2.64107 1.58328 4 1.21148e-07 2 0 0.0994487 0.0270823
119 1 5.65047 2.44269 0.132743 4 4.87212e-07 2 0 0.0994487 -0.189921
120 1 6.55776 2.18062 0.772597 4 1.0647e-06 2 0 0.0994487 -0.289335
121 1 5.64874 3.19593 0.952489 4 7.59279e-07 2 0 0.0994487 -0.754609
122 1 5.861 2.19426 1.49672 4 5.31637e-07 2 0 0.0994487 0.0126417
123 1 6.52037 3.06691 1.5557 4 1.54905e-06 2 0 0.0994487 0.0443639
124 1 6.65033 2.92778 0.134227 4 1.44138e-06 2 0 0.0994487 0.028892
125 1 7.45405 2.22586 0.139832 4 2.32191e-06 2 0 0.0994487 -0.0534956
126 1 8.08209 2.20208 0.930382 4 4.2339e-06 2 0 0.0994487 -0.302014
127 1 7.40132 3.06835 0.934051 4 3.68318e-06 2 0 0.0994487 -0.045444
128 1 7.29928 2.06035 1.56856 4 1.87818e-06 2 0 0.0994487 -0.0607262
129 1 8.18545 3.00183 1.65211 4 6.76531e-06 2 0 0.0994487 -0.0454089
130 1 8.26934 2.9712 0.0392146 4 7.05263e-06 2 0 0.0994487 -0.150611
131 1 8.90393 2.08699 0.252387 4 7.23897e-06 2 0 0.0994487 0.00244263
132 1 9.77243 2.0246 1.10996 4 1.48347e-05 2 0 0.0994487 0.173504
133 1 8.92671 2.97262 0.928693 4 1.31587e-05 2 0 0.0994487 -0.156689
134 1 9.03062 2.22066 1.70398 4 8.94358e-06 2 0 0.0994487 -0.0819604
135 1 9.56096 2.90576 0.21312 4 1.88386e-05 2 0 0.0994487 0.173129
136 1 10.2834 2.1137 0.214297 4 1.9169e-05 2 0 0.0994487 0.337747
137 1 11.1583 1.82604 0.771092 4 3.98038e-05 2 0 0.0994487 0.260116
138 1 10.6214 2.80819 0.921535 4 4.64677e-05 2 0 0.0994487 0.541954
139 1 11.4444 2.82964 1.57484 4 8.9799e-05 2 0 0.0994487 0.0952171
140 1 12.6737 1.94118 0.593851 4 0.000141666 2 0 0.0994487 -0.283907
141 1 11.928 2.64099 0.742299 4 0.000117937 2 0 0.0994487 -0.0386471
142 1 11.9239 1.9206 1.46509 4 7.60277e-05 2 0 0.0994487 0.0946756
143 1 12.8449 3.01766 1.68597 4 0.000264915 2 0 0.0994487 0.0363731
144 1 13.1791 3.03035 0.848852 4 0.000354624 2 0 0.0994487 -0.440802
145 1 13.3784 1.9912 1.48064 4 0.000215497 2 0 0.0994487 -0.0150515
146 1 14.0206 2.44438 0.927124 4 0.000427994 2 0 0.0994487 -0.132995
147 1 14.0279 3.38359 1.55716 4 0.000712355 2 0 0.0994487 0.0255947
148 1 14.6961 3.43698 0.884932 4 0.00112245 2 0 0.0994487 -0.332768
149 1 14.7823 2.29758 1.44821 4 0.000595618 2 0 0.0994487 0.0469498
150 1 14.8418 2.51505 0.136557 4 0.000672345 2 0 0.0994487 0.173023
151 1 14.1591 3.2262 0.0325348 4 0.000701396 2 0 0.0994487 -0.246093
152 1 13.4137 2.29398 0.0590902 4 0.000267017 2 0 0.0994487 -0.28095
153 1 15.6993 2.44373 0.692668 4 0.00108882 2 0 0.0994487 0.364452
154 1 16.3029 3.20095 0.662084 4 0.0022719 2 0 0.0994487 0.328643
155 1 16.308 2.47951 1.52575 4 0.00160256 2 0 0.0994487 -0.100611
156 1 15.3694 3.25723 1.50191 4 0.00148612 2 0 0.0994487 -0.00764228
157 1 15.5706 3.25854 0.0192499 4 0.00138986 2 0 0.0994487 0.290253
158 1 17.0646 2.35032 0.682778 4 0.00211218 2 0 0.0994487 0.0235283
159 1 17.944 2.92608 0.699539 4 0.00447485 2 0 0.0994487 -0.231135
160 1 18.0193 2.43917 1.58112 4 0.00340386 2 0 0.0994487 -0.149087
161 1 17.0918 3.1162 1.49491 4 0.00341778 2 0 0.0994487 -0.143383
162 1 18.8908 2.35742 1.01358 4 0.00432615 2 0 0.0994487 -0.516707
163 1 19.7027 3.2427 1.27782 4 0.00881153 2 0 0.0994487 0.394974
164 1 18.884 2.99607 0.196019 4 0.0061263 2 0 0.0994487 -0.171778
165 1 19.587 2.34239 0.101452 4 0.00496196 2 0 0.0994487 -0.132345
166 1 20.3251 1.78863 1.72442 4 0.00395446 2 0 0.0994487 0.0449934
167 1 21.1565 2.41663 0.458355 4 0.00716334 2 0 0.0994487 0.196238
168 1 20.1948 2.46882 1.11433 4 0.00607502 2 0 0.0994487 0.286958
169 1 21.31 3.29463 1.39314 4 0.0137479 2 0 0.0994487 0.0778017
170 1 20.4222 2.99313 0.334941 4 0.00872244 2 0 0.0994487 0.186336
171 1 22.8719 2.07007 1.50872 4 0.00704655 2 0 0.0994487 -0.0220726
172 1 22.9717 2.60199 0.735523 4 0.0108242 2 0 0.0994487 0.133414
173 1 22.0961 2.49917 1.23787 4 0.00913149 2 0 0.0994487 0.186553
174 1 21.9898 3.20043 0.598797 4 0.014907 2 0 0.0994487 -0.075657
175 1 22.6771 3.40124 0.07601 4 0.0175924 2 0 0.0994487 0.0761016
176 1 23.7438 1.80844 0.624025 4 0.00580428 2 0 0.0994487 -0.0873059
177 1 24.4289 1.98763 1.61102 4 0.00638108 2 0 0.0994487 -0.0641449
178 1 24.342 2.68296 0.775192 4 0.0102896 2 0 0.0994487 -0.341024
179 1 23.6887 2.90303 1.53628 4 0.0125968 2 0 0.0994487 -0.110456
180 1 24.4728 3.51078 1.55704 4 0.0181103 2 0 0.0994487 -0.118268
181 1 24.9562 2.84566 0.0146836 4 0.00962652 2 0 0.0994487 -0.0864463
182 1 26.5483 1.79415 0.511367 4 0.00340937 2 0 0.0994487 -0.00558075
183 1 25.1322 1.85613 0.509414 4 0.00533973 2 0 0.0994487 -0.0214993
184 1 25.7918 2.61203 0.707489 4 0.00767923 2 0 0.0994487 0.22824
185 1 25.1579 2.55548 1.52547 4 0.00845682 2 0 0.0994487 0.0576948
186 1 25.7213 3.49812 1.51211 4 0.0142928 2 0 0.0994487 0.123877
187 1 26.5364 2.56002 1.53049 4 0.00572151 2 0 0.0994487 0.0579635
188 1 26.1686 3.50068 0.599043 4 0.0124801 2 0 0.0994487 0.168867
189 1 27.5039 1.98546 1.23792 4 0.00263088 2 0 0.0994487 -0.18639
190 1 28.2489 2.09022 0.343734 4 0.00200386 2 0 0.0994487 -0.0177168
191 1 27.0867 2.6924 0.645359 4 0.00497292 2 0 0.0994487 -0.10558
192 1 27.1998 3.35397 1.41682 4 0.00720818 2 0 0.0994487 -0.0983154
193 1 28.2537 2.75799 1.20639 4 0.00298411 2 0 0.0994487 -0.41829
194 1 27.982 3.21993 0.326384 4 0.00431352 2 0 0.0994487 -0.125252
195 1 29.9568 1.80906 1.70764 4 0.000801354 2 0 0.0994487 0.183204
196 1 29.4477 2.04702 0.879698 4 0.00117453 2 0 0.0994487 -0.00706738
197 1 29.1956 2.6589 0.290703 4 0.0017358 2 0 0.0994487 -0.0578245
198 1 29.2495 3.2651 1.17365 4 0.0024177 2 0 0.0994487 0.118641
199 1 30.9114 1.98502 0.924207 4 0.000649836 2 0 0.0994487 0.967254
200 1 30.1815 2.71094 1.00186 4 0.00116536 2 0 0.0994487 0.675143
201 1 31.0247 3.35309 0.97101 4 0.00115822 2 0 0.0994487 0.99841
202 1 30.9865 2.69483 1.72648 4 0.000844267 2 0 0.0994487 0.578504
203 1 30.1092 3.25953 0.132205 4 0.00141405 2 0 0.0994487 -0.0443644
204 1 30.4116 1.90909 0.0255368 4 0.000670323 2 0 0.0994487 0.106046
205 1 31.1434 2.66402 0.0761253 4 0.000746447 2 0 0.0994487 0.708821
206 1 0.293831 3.78503 0.918557 4 4.4325e-09 2 0 0.0994487 -0.999347
207 1 0.143046 4.59443 0.482118 4 5.29926e-09 2 0 0.0994487 -0.784494
208 1 1.14036 4.67093 0.986638 4 1.48079e-08 2 0 0.0994487 -0.516748
209 1 0.0884667 5.26681 1.27761 4 6.71091e-09 2 0 0.0994487 -0.887458
210 1 1.04069 3.86421 0.0595682 4 7.6966e-09 2 0 0.0994487 0.0148886
211 1 1.84117 4.04604 0.847105 4 2.38542e-08 2 0 0.0994487 0.00827588
212 1 2.54049 4.85585 1.13748 4 7.21763e-08 2 0 0.0994487 -0.333841
213 1 2.64953 4.14475 0.20674 4 5.73161e-08 2 0 0.0994487 -0.0285703
214 1 1.89758 4.96895 0.278386 4 3.77405e-08 2 0 0.0994487 -0.153432
215 1 3.40771 4.86189 0.161635 4 1.72966e-07 2 0 0.0994487 -0.0163855
216 1 3.494 4.07675 0.885909 4 1.37443e-07 2 0 0.0994487 0.0269045
217 1 4.91235 4.00001 1.18344 4 5.60543e-07 2 0 0.0994487 0.0115323
218 1 4.04658 4.88002 1.14639 4 3.52216e-07 2 0 0.0994487 0.264497
219 1 4.26027 4.18509 0.149001 4 2.9643e-07 2 0 0.0994487 0.037741
220 1 5.00947 4.74001 0.341082 4 8.38261e-07 2 0 0.0994487 0.076545
221 1 5.77735 3.9378 0.198707 4 1.06315e-06 2 0 0.0994487 0.0260195
222 1 6.48883 3.76611 0.772067 4 2.16854e-06 2 0 0.0994487 0.204567
223 1 5.68025 4.73638 1.02487 4 1.72259e-06 2 0 0.0994487 -0.621632
224 1 6.66321 4.5115 1.6428 4 3.56805e-06 2 0 0.0994487 0.15894
225 1 6.68072 5.1315 0.885352 4 5.33374e-06 2 0 0.0994487 0.206883
226 1 8.1982 3.892 0.700757 4 1.19534e-05 2 0 0.0994487 -0.369883
227 1 7.40842 4.46072 0.5468 4 7.57773e-06 2 0 0.0994487 -0.025203
228 1 7.39886 3.87029 1.49684 4 5.36665e-06 2 0 0.0994487 0.102586
229 1 8.20004 4.61106 1.48677 4 1.66773e-05 2 0 0.0994487 -0.0118276
230 1 9.8976 3.57792 0.885667 4 4.08465e-05 2 0 0.0994487 0.592894
231 1 9.07913 4.56551 0.821335 4 3.49335e-05 2 0 0.0994487 -0.65851
232 1 9.86266 4.50302 0.126324 4 5.45571e-05 2 0 0.0994487 0.0958732
233 1 9.07829 3.76256 1.49819 4 2.31551e-05 2 0 0.0994487 -0.0708761
234 1 9.86881 4.3462 1.65532 4 5.96883e-05 2 0 0.0994487 -0.0856534
235 1 8.98541 3.86821 0.0631775 4 2.07959e-05 2 0 0.0994487 -0.138748
236 1 11.408 3.64493 0.778297 4 0.000139763 2 0 0.0994487 0.202091
237 1 10.5891 4.66652 0.906264 4 0.00012415 2 0 0.0994487 0.0451512
238 1 11.3867 4.69403 0.230734 4 0.000229094 2 0 0.0994487 -0.0498787
239 1 10.7059 3.56689 1.58785 4 7.78028e-05 2 0 0.0994487 -0.0448358
240 1 11.3652 4.3716 1.70545 4 0.000193007 2 0 0.0994487 -0.0798149
241 1 11.3894 5.27213 0.983682 4 0.000307042 2 0 0.0994487 -0.67443
242 1 10.5826 3.84888 0.176129 4 7.36196e-05 2 0 0.0994487 0.210475
243 1 12.5168 3.57716 0.814749 4 0.000306182 2 0 0.0994487 -0.0105435
244 1 12.1916 4.55033 1.00021 4 0.000398076 2 0 0.0994487 0.10514
245 1 12.7362 4.99738 1.68903 4 0.000657157 2 0 0.0994487 0.191345
246 1 13.2258 4.67863 0.80017 4 0.000883691 2 0 0.0994487 -0.0046252
247 1 12.6435 4.61885 0.0632315 4 0.000565475 2 0 0.0994487 -0.0335686
248 1 13.9891 4.12825 0.69648 4 0.00110874 2 0 0.0994487 -0.430128
249 1 13.4832 4.21781 1.59317 4 0.000779851 2 0 0.0994487 0.0820378
250 1 14.2046 5.11838 1.52001 4 0.00203214 2 0 0.0994487 -0.0289699
251 1 14.9402 5.01141 0.811699 4 0.00298954 2 0 0.0994487 -0.0522002
252 1 14.9642 4.4167 1.59432 4 0.00222804 2 0 0.0994487 -0.063541
253 1 14.1405 4.90647 0.0597868 4 0.00171097 2 0 0.0994487 -0.0856783
254 1 14.961 4.19423 0.096508 4 0.00184448 2 0 0.0994487 0.0322899
255 1 15.6685 4.06642 0.926277 4 0.00269958 2 0 0.0994487 0.872624
256 1 15.8798 4.77595 0.186426 4 0.00421931 2 0 0.0994487 0.165415
257 1 16.5936 4.58036 0.900182 4 0.00587283 2 0 0.0994487 -0.0787098
258 1 16.3184 3.95875 1.6903 4 0.00363188 2 0 0.0994487 -0.0433665
259 1 15.8111 5.05317 1.64084 4 0.00473132 2 0 0.0994487 0.0995244
260 1 17.2689 3.83372 0.811237 4 0.00558114 2 0 0.0994487 -0.345303
261 1 18.0864 4.48855 1.09806 4 0.010767 2 0 0.0994487 -0.611744
262 1 17.9525 3.63794 1.65602 4 0.00655638 2 0 0.0994487 -0.192764
263 1 17.4569 4.57727 0.0147963 4 0.00795845 2 0 0.0994487 -0.0973847
264 1 18.1348 3.8547 0.0583493 4 0.00740962 2 0 0.0994487 -0.120491
265 1 18.8779 3.70667 0.95022 4 0.00919969 2 0 0.0994487 0.0696001
266 1 18.8235 4.60949 0.361826 4 0.0142256 2 0 0.0994487 0.115651
267 1 19.6906 4.67872 1.0803 4 0.0222008 2 0 0.0994487 0.931578
268 1 18.7859 5.27693 1.20102 4 0.0220593 2 0 0.0994487 0.599471
269 1 19.5987 3.76722 0.227421 4 0.0113013 2 0 0.0994487 0.164306
270 1 20.4384 3.82188 1.23329 4 0.0161771 2 0 0.0994487 0.326069
271 1 20.8846 4.71868 1.39403 4 0.0352145 2 0 0.0994487 0.149148
272 1 21.5775 4.95128 0.810455 4 0.0511772 2 0 0.0994487 -0.00347372
273 1 21.0824 3.93136 0.512408 4 0.0206103 2 0 0.0994487 0.0883758
274 1 20.1339 4.78559 0.352846 4 0.0272501 2 0 0.0994487 0.145636
275 1 22.8205 3.63186 1.42135 4 0.0217494 2 0 0.0994487 -0.0183392
276 1 21.9406 4.13318 1.31068 4 0.0292048 2 0 0.0994487 0.027299
277 1 22.4705 5.17735 1.27286 4 0.0692578 2 0 0.0994487 0.0203524
278 1 22.6119 4.34705 0.510028 4 0.0361101 2 0 0.0994487 -0.0220278
279 1 23.5735 3.63903 0.782677 4 0.0225357 2 0 0.0994487 0.185682
280 1 24.336 4.32055 0.625018 4 0.0350706 2 0 0.0994487 -0.150042
281 1 23.4679 4.54946 1.33355 4 0.044938 2 0 0.0994487 -0.0791526
282 1 24.8518 5.25716 0.566763 4 0.0596882 2 0 0.0994487 0.040938
283 1 23.5518 5.06386 0.533607 4 0.0639343 2 0 0.0994487 -0.0968149
284 1 25.0086 4.50055 1.62342 4 0.0352202 2 0 0.0994487 -0.0412023
285 1 25.0629 3.68037 0.802132 4 0.0190432 2 0 0.0994487 -0.18785
286 1 24.363 5.28843 1.43377 4 0.0745786 2 0 0.0994487 -0.161648
287 1 25.6904 5.1389 1.34266 4 0.0453536 2 0 0.0994487 0.213514
288 1 26.3575 4.29031 1.37159 4 0.0196875 2 0 0.0994487 0.149498
289 1 26.5026 4.97257 0.640732 4 0.0279352 2 0 0.0994487 0.0989778
290 1 25.5284 4.40089 0.388179 4 0.0271834 2 0 0.0994487 0.0559618
291 1 27.3302 4.86961 1.40568 4 0.0179939 2 0 0.0994487 0.00661234
292 1 27.9624 3.97641 1.10408 4 0.00732515 2 0 0.0994487 -0.309472
293 1 28.2771 4.73475 0.706344 4 0.00995495 2 0 0.0994487 -0.0812474
294 1 27.0674 4.04323 0.570038 4 0.0120657 2 0 0.0994487 0.0120317
295 1 28.9321 3.77016 0.487204 4 0.00376301 2 0 0.0994487 -0.00703211
296 1 29.0873 4.52317 1.33085 4 0.00552418 2 0 0.0994487 0.0574826
297 1 29.9979 4.07209 1.02303 4 0.00251264 2 0 0.0994487 -0.275202
298 1 31.0296 3.97382 0.373364 4 0.00149772 2 0 0.0994487 0.657581
299 1 30.2046 4.67765 0.491317 4 0.00316902 2 0 0.0994487 0.00995441
300 1 30.9783 4.59929 1.41131 4 0.0020923 2 0 0.0994487 0.679908
301 1 0.908283 5.53205 0.461647 4 1.70978e-08 2 0 0.0994487 -0.463784
302 1 1.53161 5.51184 1.37971 4 3.10478e-08 2 0 0.0994487 -0.117385
303 1 0.793684 6.22023 1.2768 4 1.99099e-08 2 0 0.0994487 -0.70338
304 1 0.257003 6.91734 1.50738 4 1.47957e-08 2 0 0.0994487 -0.772633
305 1 0.969942 6.9454 0.573423 4 3.17008e-08 2 0 0.0994487 -0.473532
306 1 1.7053 7.02884 1.23811 4 6.56062e-08 2 0 0.0994487 0.06652
307 1 1.89588 6.19966 0.519025 4 6.29571e-08 2 0 0.0994487 -0.156398
308 1 3.10475 5.61709 1.30057 4 1.76962e-07 2 0 0.0994487 0.0402559
309 1 2.26359 6.15348 1.40977 4 8.40964e-08 2 0 0.0994487 0.0408578
310 1 3.25442 6.96226 1.12748 4 3.83975e-07 2 0 0.0994487 -0.0541196
311 1 2.68177 5.61289 0.273587 4 1.13545e-07 2 0 0.0994487 -0.0596835
312 1 3.39503 6.28191 0.500536 4 3.49822e-07 2 0 0.0994487 -0.121439
313 1 4.18979 5.46246 0.325783 4 5.30694e-07 2 0 0.0994487 0.0310217
314 1 4.93434 5.42873 1.31778 4 1.22999e-06 2 0 0.0994487 -0.235094
315 1 4.13622 6.09659 1.22779 4 7.25242e-07 2 0 0.0994487 -0.0893843
316 1 4.82567 6.23357 0.333842 4 1.45168e-06 2 0 0.0994487 -0.0345714
317 1 4.77312 6.79931 1.15967 4 1.90823e-06 2 0 0.0994487 -0.305924
318 1 4.00267 7.02511 0.221759 4 8.36708e-07 2 0 0.0994487 -0.0853409
319 1 5.78575 5.42185 0.301847 4 2.47078e-06 2 0 0.0994487 0.0125069
320 1 5.6935 6.24342 0.9632 4 3.57471e-06 2 0 0.0994487 -0.967774
321 1 6.4578 5.98425 1.59671 4 6.24046e-06 2 0 0.0994487 0.14092
322 1 6.43234 6.86927 1.00965 4 9.5541e-06 2 0 0.0994487 0.851685
323 1 6.37773 6.04115 0.154639 4 5.08862e-06 2 0 0.0994487 0.111116
324 1 5.54993 7.05206 0.147147 4 3.77954e-06 2 0 0.0994487 0.0363899
325 1 8.21355 5.31419 0.694273 4 2.42293e-05 2 0 0.0994487 -0.0895715
326 1 7.32761 6.15925 0.754293 4 1.56128e-05 2 0 0.0994487 0.225747
327 1 7.39163 5.41839 1.49138 4 1.1583e-05 2 0 0.0994487 0.136761
328 1 8.23884 6.11028 1.49159 4 3.58331e-05 2 0 0.0994487 0.0187463
329 1 8.01352 6.85364 0.728993 4 4.09212e-05 2 0 0.0994487 0.0691993
330 1 7.28191 6.86379 1.59601 4 2.17929e-05 2 1 0.0994487 0.126052
331 1 7.33029 5.3575 0.0461812 4 9.1206e-06 2 0 0.0994487 0.0813613
332 1 9.76796 5.3194 0.792562 4 8.54292e-05 2 0 0.0994487 0.328481
333 1 8.88016 6.18865 0.736908 4 6.50706e-05 2 0 0.0994487 -0.235523
334 1 9.05434 5.3271 1.5973 4 4.91575e-05 2 0 0.0994487 -0.0628231
335 1 9.73844 6.19052 1.46731 4 0.000134005 2 0 0.0994487 -0.106412
336 1 9.09351 6.95013 1.463 4 0.000117796 2 2 0.0994487 -0.0757293
337 1 9.76329 6.23201 0.0941385 4 0.000122569 2 0 0.0994487 -0.0359461
338 1 8.99733 5.46479 0.012702 4 4.48176e-05 2 0 0.0994487 -0.134749
339 1 10.5831 6.02196 0.964384 4 0.000234189 2 0 0.0994487 -0.356396
340 1 11.3128 6.37134 0.0776634 4 0.000379653 2 0 0.0994487 0.100348
341 1 10.5187 6.94145 0.15452 4 0.000290349 2 0 0.0994487 -0.0735326
342 1 10.4686 6.92564 1.49614 4 0.000336687 2 1 0.0994487 -0.0635087
343 1 11.9994 5.6274 0.183157 4 0.00050331 2 0 0.0994487 -0.0105197
344 1 12.6757 5.81849 0.861776 4 0.000984208 2 0 0.0994487 0.0817964
345 1 11.7774 6.20735 1.05291 4 0.000596884 2 0 0.0994487 0.292269
346 1 13.3219 5.86668 1.55471 4 0.00152417 2 0 0.0994487 0.208183
347 1 13.3506 6.58297 0.813679 4 0.00233217 2 0 0.0994487 -0.292081
348 1 13.3212 5.53867 0.0424813 4 0.0013281 2 0 0.0994487 -0.142898
349 1 14.0617 5.71565 0.77266 4 0.00247698 2 0 0.0994487 -0.372538
350 1 14.3278 6.65176 1.40646 4 0.00488559 2 1 0.0994487 -0.103122
351 1 14.1303 6.38483 0.0380077 4 0.00308502 2 0 0.0994487 -0.0826002
352 1 15.0282 5.64393 0.034369 4 0.00393854 2 0 0.0994487 0.0573797
353 1 15.8305 5.73813 0.95832 4 0.00716888 2 0 0.0994487 0.62589
354 1 15.0472 6.45091 0.806774 4 0.00655986 2 0 0.0994487 -0.175998
355 1 16.491 6.45257 1.1401 4 0.0151915 2 0 0.0994487 0.208393
356 1 15.1058 5.87594 1.69804 4 0.00536417 2 0 0.0994487 -0.0976448
357 1 16.62 5.41933 0.276819 4 0.00859661 2 0 0.0994487 0.0799548
358 1 15.6753 6.3382 0.0390223 4 0.00788708 2 0 0.0994487 0.0398648
359 1 17.8271 5.30128 0.541411 4 0.0141628 2 0 0.0994487 0.150375
360 1 17.113 5.42499 1.24767 4 0.0117807 2 0 0.0994487 -0.286506
361 1 17.0619 6.27419 0.411469 4 0.0169818 2 0 0.0994487 0.138983
362 1 17.6649 6.24649 1.38542 4 0.0237036 2 0 0.0994487 -0.254195
363 1 18.2745 7.0517 1.13153 4 0.0453389 2 1 0.0994487 0.631215
364 1 18.3714 6.23173 0.609762 4 0.0312999 2 0 0.0994487 0.156229
365 1 19.429 5.75829 0.62055 4 0.0387523 2 0 0.0994487 0.0572489
366 1 19.3279 6.55755 1.35081 4 0.0591671 2 1 0.0994487 0.274755
367 1 19.9942 6.75229 0.610261 4 0.0896427 2 0 0.0994487 -0.0117671
368 1 20.7494 5.77593 0.653722 4 0.0688892 2 0 0.0994487 -0.103931
369 1 20.1931 5.61076 1.39557 4 0.0497978 2 0 0.0994487 0.312123
370 1 20.7787 6.6124 1.30355 4 0.123625 2 1 0.0994487 -0.352838
371 1 21.6592 6.66248 0.666524 4 0.14 2 0 0.0994487 -0.0441264
372 1 21.6631 5.87866 1.38528 4 0.101574 2 0 0.0994487 0.0394741
373 1 21.6904 5.73259 0.0517844 4 0.0784826 2 0 0.0994487 -0.00145306
374 1 22.6732 5.8279 0.674154 4 0.10443 2 0 0.0994487 0.00288236
375 1 22.6319 6.69333 1.20734 4 0.187069 2 0 0.0994487 -0.221902
376 1 23.3484 6.78052 0.267835 4 0.165411 2 0 0.0994487 -0.125265
377 1 23.4822 5.88496 1.30013 4 0.127361 2 0 0.0994487 -0.189509
378 1 24.3197 6.56281 1.15825 4 0.165248 2 0 0.0994487 0.184134
379 1 24.1457 6.00685 0.427617 4 0.108743 2 0 0.0994487 0.0024828
380 1 25.6831 5.86213 0.700952 4 0.0682294 2 0 0.0994487 0.163937
381 1 25.1124 6.04132 1.67733 4 0.117242 2 0 0.0994487 0.0471575
382 1 25.1593 6.74159 0.495153 4 0.125044 2 0 0.0994487 0.0904513
383 1 25.8251 6.59457 1.40775 4 0.104243 2 0 0.0994487 0.114147
384 1 26.6903 5.84511 1.4763 4 0.0450605 2 0 0.0994487 0.0918346
385 1 27.4966 5.54334 0.722172 4 0.023588 2 0 0.0994487 -0.251582
386 1 26.7485 6.36567 0.651888 4 0.0551759 2 0 0.0994487 0.0387396
387 1 27.7011 6.47315 1.36539 4 0.0349389 2 0 0.0994487 0.131472
388 1 28.3648 5.52203 1.4872 4 0.014404 2 0 0.0994487 0.0456276
389 1 27.7097 7.0074 0.530173 4 0.0417228 2 0 0.0994487 0.0320996
390 1 29.3889 5.30889 0.818726 4 0.00732451 2 0 0.0994487 0.316746
391 1 29.4379 6.18214 1.32212 4 0.0100183 2 0 0.0994487 -0.00338931
392 1 29.5784 6.89773 0.506505 4 0.0120709 2 0 0.0994487 0.0925731
393 1 28.4685 6.20589 0.638647 4 0.0180826 2 0 0.0994487 -0.270101
394 1 29.3762 6.15398 0.0801838 4 0.00982992 2 0 0.0994487 0.0969241
395 1 28.4822 5.38976 0.0592959 4 0.0114023 2 0 0.0994487 -0.105004
396 1 30.9636 5.36838 0.595026 4 0.0032729 2 0 0.0994487 0.667857
397 1 30.2159 5.45949 1.46813 4 0.00463576 2 0 0.0994487 0.0540175
398 1 30.3958 6.18258 0.649752 4 0.00595781 2 0 0.0994487 0.32899
399 1 31.2189 6.15516 1.38439 4 0.00388336 2 0 0.0994487 0.587258
400 1 31.1994 6.95407 0.60342 4 0.00529727 2 0 0.0994487 0.812243
401 1 31.7235 5.99622 0.446564 4 0.0030133 2 0 0.0994487 0.879731
402 1 0.261851 7.63199 0.661866 4 2.05333e-08 2 0 0.0994487 -0.876373
403 1 0.831025 8.46344 0.61936 4 4.18603e-08 2 0 0.0994487 -0.577625
404 1 1.11211 7.86396 1.49711 4 4.35817e-08 2 0 0.0994487 -0.154428
405 1 0.356955 8.5626 1.47035 4 2.65405e-08 2 0 0.0994487 -0.764984
406 1 1.59266 7.76478 0.37187 4 7.56271e-08 2 0 0.0994487 -0.0897867
407 1 1.72382 8.61735 1.46471 4 1.05028e-07 2 0 0.0994487 0.0395982
408 1 2.48799 7.14986 0.476331 4 1.77823e-07 2 0 0.0994487 -0.0836932
409 1 2.19177 8.6335 0.399707 4 1.86925e-07 2 0 0.0994487 -0.137266
410 1 2.39416 7.81099 1.27726 4 1.87266e-07 2 0 0.0994487 0.0869946
411 1 3.01349 8.51445 0.935533 4 4.60856e-07 2 0 0.0994487 -0.539303
412 1 3.24418 7.77117 0.327041 4 4.8134e-07 2 0 0.0994487 -0.196202
413 1 3.81243 8.45898 0.0822892 4 9.34659e-07 2 0 0.0994487 -0.0457764
414 1 3.97971 7.67009 1.24863 4 1.03744e-06 2 0 0.0994487 -0.0554852
415 1 4.70459 8.25653 0.921772 4 2.5954e-06 2 0 0.0994487 0.29536
416 1 4.67023 7.63706 0.247803 4 1.96339e-06 2 0 0.0994487 0.0376958
417 1 3.81127 8.34851 1.76162 4 9.2814e-07 2 0 0.0994487 -0.0574342
418 1 5.86955 8.34822 0.169905 4 7.59354e-06 2 0 0.0994487 0.113109
419 1 5.48363 7.59071 1.03232 4 5.05781e-06 2 0 0.0994487 -0.467648
420 1 6.49365 7.53799 0.169175 4 1.12975e-05 2 0 0.0994487 0.187628
421 1 6.39674 8.23976 1.04384 4 1.56803e-05 2 0 0.0994487 0.33817
422 1 7.28583 7.76918 0.746313 4 3.16454e-05 2 1 0.0994487 0.00994232
423 1 8.2859 8.31376 0.868772 4 9.64765e-05 2 2 0.0994487 0.278825
424 1 7.27857 8.18368 1.7015 4 4.31244e-05 2 2 0.0994487 -0.174671
425 1 8.05208 7.48784 1.5604 4 6.00186e-05 2 1 0.0994487 0.185108
426 1 7.99895 7.60312 0.0282118 4 4.43253e-05 2 0 0.0994487 0.0674164
427 1 9.84313 7.22199 0.72344 4 0.000229433 2 1 0.0994487 -0.346909
428 1 8.91207 7.61626 0.661731 4 0.000122787 2 1 0.0994487 0.158731
429 1 9.73234 8.61964 0.693151 4 0.000350289 2 3 0.0994487 -0.257253
430 1 9.09265 8.69904 1.44495 4 0.000251842 2 9 0.0994487 -0.394735
431 1 9.64026 7.88932 1.60055 4 0.000308372 2 8 0.0994487 -0.340335
432 1 11.3161 7.14287 0.810636 4 0.00063272 2 1 0.0994487 0.448535
433 1 10.5731 7.9454 0.844311 4 0.000524123 2 3 0.0994487 -0.198486
434 1 10.5877 8.70196 1.4255 4 0.000739903 1 8 0.0994487 -0.146611
435 1 11.4057 7.80503 1.60301 4 0.0010249 2 7 0.0994487 0.22831
436 1 11.227 8.11851 0.0422735 4 0.000696083 2 0 0.0994487 0.174333
437 1 12.7061 7.28322 0.565784 4 0.00199633 2 0 0.0994487 -0.0531279
438 1 12.178 8.23518 0.590765 4 0.00181717 2 2 0.0994487 0.163965
439 1 12.0637 7.15788 1.37768 4 0.00122117 2 3 0.0994487 0.1457
440 1 12.0887 8.68064 1.49044 4 0.00230471 1 8 0.0994487 0.0826024
441 1 12.8601 7.99585 1.47598 4 0.00337082 2 6 0.0994487 -0.216763