ITEM: TIMESTEP
32000
ITEM: NUMBER OF ATOMS
9495
ITEM: BOX BOUNDS mm mm mm
0.0000000000000000e+00 5.0848450568943413e+01
-2.1768663377295305e+00 3.3100889418046187e+01
-3.0107256439243628e+01 3.1748021039364001e+01
ITEM: ATOMS id type x y z c_phase c_temp c_surf c_nbond c_visc f_3[1]
2149 1 46.3605 13.5122 -29.3995 0 3.06919 2 0 4.53999e-06 -0.479946
1924 1 47.0188 12.7976 -28.885 0 3.16078 2 0 4.53999e-06 -0.217898
1560 1 47.4307 13.6616 -29.5242 0 3.21604 2 0 4.53999e-06 0.32222
1561 1 48.0093 13.1026 -28.7866 0 3.45691 2 0 4.53999e-06 0.487866
2454 1 45.6951 14.4639 -29.1345 0 2.99267 2 0 4.53999e-06 -0.943079
2453 1 45.8958 14.2553 -30.1041 0 2.98988 2 0 4.53999e-06 -0.425618
1920 1 46.6831 14.5151 -29.5833 0 3.07076 2 0 4.53999e-06 0.196234
2101 1 46.4851 14.0531 -28.573 0 3.0778 2 0 4.53999e-06 -0.83624
1865 1 46.301 15.0262 -28.7392 0 3.02408 2 0 4.53999e-06 -0.858951
2100 1 45.8861 15.39 -29.7974 0 2.96524 2 0 4.53999e-06 -0.309779
1143 1 47.3823 14.5369 -28.952 0 3.21091 2 0 4.53999e-06 0.405293
1142 1 47.2204 15.3199 -28.3981 0 3.13578 2 0 4.53999e-06 0.174557
4521 1 48.2654 15.2292 -29.045 0 3.55775 2 0 4.53999e-06 0.489612
1196 1 48.2142 14.1028 -28.7917 0 3.60213 2 0 4.53999e-06 0.611261
2150 1 46.8658 12.3527 -27.4482 0 3.00843 2 0 4.53999e-06 -0.580418
2503 1 46.6119 13.2446 -28.0234 0 3.08273 2 0 4.53999e-06 -0.856098
2105 1 47.0595 13.349 -27.0808 0 3.04187 2 0 4.53999e-06 -0.885093
1921 1 47.6974 12.9716 -27.8145 0 3.17588 2 0 4.53999e-06 0.168797
1562 1 47.8423 12.4641 -27.0304 0 3.0494 2 0 4.53999e-06 0.115165
1201 1 48.4872 13.3433 -26.9996 0 3.20256 1 0 4.53999e-06 0.543321
3628 1 48.5957 13.5138 -28.0004 0 3.59635 2 0 4.53999e-06 0.675219
4113 1 49.3754 13.4718 -26.729 0 3.53713 2 0 4.53999e-06 0.880275
1870 1 46.1128 14.8711 -27.7875 0 2.97456 2 0 4.53999e-06 -0.944456
2460 1 46.6278 14.274 -26.8647 0 2.97494 2 0 4.53999e-06 -0.91067
1469 1 46.9199 14.3722 -27.7287 0 3.08068 1 0 4.53999e-06 -0.926115
906 1 47.1369 15.2819 -27.3406 0 3.05382 1 0 4.53999e-06 -0.239839
6588 1 45.7933 14.9203 -26.7177 0 2.85524 2 0 4.53999e-06 -0.927322
900 1 47.5054 13.8078 -28.1467 0 3.21925 1 0 4.53999e-06 -0.173208
8451 1 47.7769 14.6624 -27.9868 0 3.25015 1 0 4.53999e-06 0.40557
4545 1 48.3143 14.186 -27.4362 0 3.29491 1 0 4.53999e-06 0.746593
9330 1 48.1597 15.0874 -27.3017 0 3.23423 1 0 4.53999e-06 0.364857
4544 1 49.0009 14.5081 -28.3864 0 3.80855 2 0 4.53999e-06 0.793989
4130 1 48.9676 14.6577 -26.9391 0 3.5101 2 0 4.53999e-06 0.901655
4109 1 49.0297 15.3232 -27.8125 0 3.72189 2 0 4.53999e-06 0.7937
1149 1 47.8853 13.8148 -26.7509 0 3.10308 1 0 4.53999e-06 -0.483367
3632 1 47.6179 14.6968 -26.7345 0 3.07281 1 0 4.53999e-06 -0.52984
4522 1 49.4724 14.0819 -27.5517 0 3.79257 2 0 4.53999e-06 0.945381
2547 1 47.2188 11.5787 -25.1806 0 2.73684 2 0 4.53999e-06 -0.835432
952 1 48.3267 11.9249 -25.5362 0 2.89031 2 0 4.53999e-06 0.213481
2551 1 47.2071 13.1449 -25.9931 0 2.94694 2 0 4.53999e-06 -0.905382
2151 1 47.481 12.209 -26.0704 0 2.91544 2 0 4.53999e-06 -0.606662
2153 1 48.1302 12.903 -26.2882 0 3.03588 1 0 4.53999e-06 0.0224387
1928 1 48.0458 13.3671 -25.6324 0 2.97914 1 0 4.53999e-06 -0.710714
3522 1 48.7903 12.7457 -25.2311 0 2.97297 1 0 4.53999e-06 0.50881
3630 1 49.0095 12.6323 -26.1486 0 3.30835 2 0 4.53999e-06 0.653198
903 1 48.8727 13.561 -25.8751 0 3.10712 1 0 4.53999e-06 0.888658
1922 1 47.9088 12.6173 -24.9768 0 2.867 1 0 4.53999e-06 -0.823239
4125 1 49.3698 13.4103 -24.9618 0 3.02718 1 0 4.53999e-06 0.911883
6032 1 46.8785 15.0731 -26.3421 0 2.93305 2 0 4.53999e-06 -0.556071
6967 1 46.1069 15.1593 -25.6027 0 2.73891 2 0 4.53999e-06 -0.759463
2457 1 47.3355 14.0117 -26.2451 0 2.99072 1 0 4.53999e-06 -0.966875
2104 1 47.1864 14.2875 -25.4732 0 2.89062 2 0 4.53999e-06 -0.951296
3629 1 48.037 14.1979 -25.5934 0 2.98435 1 0 4.53999e-06 -0.698399
7563 1 47.7433 15.0712 -25.6341 0 2.95354 2 0 4.53999e-06 -0.220126
9333 1 48.4159 14.2113 -26.2959 0 3.13138 1 0 4.53999e-06 0.767355
9329 1 48.8231 14.5988 -25.3195 0 3.05757 1 0 4.53999e-06 0.454094
9222 1 48.847 15.0449 -26.0922 0 3.37119 2 0 4.53999e-06 0.561425
3631 1 48.6402 13.8136 -25.0216 0 2.97073 1 0 4.53999e-06 0.982184
4114 1 49.5391 14.2275 -26.0201 0 3.45057 2 0 4.53999e-06 0.955789
8992 1 49.8506 14.2102 -25.0169 0 3.33631 2 0 4.53999e-06 0.96735
9428 1 49.4821 15.1497 -24.9877 0 3.36689 2 0 4.53999e-06 0.555747
1008 1 48.1397 11.1733 -24.5743 0 2.68776 2 0 4.54e-06 0.0949544
1195 1 47.5192 10.9534 -23.6651 0 2.57999 2 0 4.54e-06 -0.680426
4325 1 48.6189 11.1922 -23.4579 0 2.66355 2 0 4.54e-06 0.274544
1866 1 47.9349 13.5387 -24.7835 0 2.87469 1 0 4.53999e-06 -0.864744
1199 1 47.6539 12.0643 -23.9913 0 2.69267 2 0 4.53999e-06 -0.996968
3519 1 48.7421 12.0166 -24.4058 0 2.82803 2 0 4.53999e-06 0.274882
954 1 48.723 12.3572 -23.4333 0 2.77239 1 0 4.53999e-06 -0.316157
1148 1 48.7444 13.0511 -24.3326 0 2.88508 1 0 4.53999e-06 -0.201315
1869 1 48.4337 13.2011 -23.5326 0 2.76659 1 0 4.53999e-06 -0.862655
4587 1 49.7143 12.4942 -24.7108 0 3.24604 2 0 4.53999e-06 0.725328
4520 1 49.4761 12.6011 -23.7681 0 2.91876 1 0 4.53999e-06 0.609063
3870 1 50.462 12.6774 -23.6865 0 3.34529 2 0 4.53999e-06 0.83998
4548 1 49.6926 13.4666 -24.0561 0 2.98893 1 0 4.53999e-06 0.954375
8739 1 50.5026 13.6905 -23.3181 0 3.34768 2 0 4.53999e-06 0.8988
6973 1 46.9604 14.7911 -24.7322 0 2.74157 2 0 4.53999e-06 -0.840147
6604 1 46.7778 14.4717 -23.6314 0 2.56047 2 0 4.54e-06 -0.937324
7205 1 47.4336 13.9717 -24.1727 0 2.73451 2 0 4.53999e-06 -0.949766
1466 1 48.3523 13.9983 -24.0943 0 2.82359 1 0 4.53999e-06 -0.887477
7556 1 48.0493 14.5847 -24.7816 0 2.8765 1 0 4.53999e-06 -0.391788
6298 1 47.7569 14.8956 -23.9628 0 2.71487 2 0 4.53999e-06 -0.352234
9220 1 49.0535 13.9201 -23.5692 0 2.85077 1 0 4.53999e-06 0.619953
8449 1 48.7882 15.1197 -24.2292 0 2.90233 2 0 4.53999e-06 0.131272
9334 1 49.1444 14.2623 -24.4213 0 2.97168 1 0 4.53999e-06 0.747762
7557 1 48.6727 14.7365 -23.3291 0 2.7563 2 0 4.53999e-06 0.0863035
9218 1 49.839 14.4339 -23.7239 0 3.19343 2 0 4.53999e-06 0.769079
1253 1 47.6632 10.6113 -22.0508 0 2.46401 2 0 4.54001e-06 -0.401018
2598 1 47.5322 11.7614 -21.7493 0 2.50077 2 0 4.54001e-06 -0.966062
1976 1 47.784 11.5187 -22.77 0 2.57903 2 0 4.54e-06 -0.848219
1010 1 48.4595 11.5544 -21.6242 0 2.58705 2 0 4.54e-06 -0.192844
955 1 48.7563 11.7451 -22.5238 0 2.69223 1 0 4.54e-06 -0.0369297
4417 1 49.5433 11.8134 -23.0813 0 2.85795 2 0 4.53999e-06 0.464493
4588 1 49.3601 11.1719 -21.9064 0 2.7174 2 0 4.53999e-06 0.410335
4227 1 50.2965 11.8243 -22.2505 0 3.20009 2 0 4.53999e-06 0.730335
7152 1 46.7943 13.362 -21.8198 0 2.38877 2 0 4.54004e-06 -0.804306
2553 1 48.1699 12.4965 -22.7754 0 2.66106 1 0 4.54e-06 -0.887091
7203 1 47.5414 13.4291 -23.1637 0 2.61205 1 0 4.54e-06 -0.880092
4518 1 49.0217 12.7526 -22.5787 0 2.76394 1 0 4.53999e-06 0.13884
7204 1 48.4315 13.3453 -22.5587 0 2.67502 1 0 4.54e-06 -0.99353
2656 1 47.753 12.6738 -21.9997 0 2.54718 1 0 4.54e-06 -0.926036
2552 1 48.7734 12.7585 -21.6636 0 2.66077 1 0 4.54e-06 -0.402184
6970 1 47.8477 13.4796 -21.6398 0 2.51141 1 0 4.54001e-06 -0.992814
6304 1 48.7571 13.5687 -21.7959 0 2.65297 1 0 4.54e-06 -0.20348
8448 1 49.3062 13.2308 -23.1783 0 2.85549 1 0 4.53999e-06 0.974337
4519 1 49.9898 12.6215 -22.7906 0 2.97109 1 0 4.53999e-06 0.873997
3520 1 49.4751 12.0848 -21.8309 0 2.78727 1 0 4.53999e-06 0.559769
902 1 49.581 13.1214 -22.0675 0 2.83418 1 0 4.53999e-06 0.9715
4546 1 50.5057 12.7345 -21.7138 0 3.20859 2 0 4.53999e-06 0.942813
3213 1 50.8453 12.9459 -22.6247 0 3.39626 2 0 4.53999e-06 0.998621
7474 1 45.9112 14.4711 -22.5535 0 2.34502 2 0 4.54006e-06 -0.808872
7202 1 46.607 13.7096 -22.8943 0 2.44544 2 0 4.54002e-06 -0.826122
6908 1 47.2862 14.1694 -22.2605 0 2.47212 2 0 4.54001e-06 -0.633143
6608 1 48.2621 13.9821 -23.1271 0 2.69851 1 0 4.53999e-06 -0.708732
6027 1 47.6123 14.7297 -23.0095 0 2.58624 2 0 4.54e-06 -0.347542
6030 1 48.3098 14.3799 -22.1942 0 2.59879 1 0 4.54e-06 -0.170069
7555 1 49.1612 13.8292 -22.5761 0 2.77619 1 0 4.53999e-06 0.479812
8547 1 49.2302 14.4423 -21.6836 0 2.71226 2 0 4.53999e-06 0.160701
9221 1 50.2712 13.7849 -22.2873 0 3.20168 2 0 4.53999e-06 0.841756
9171 1 49.5911 14.6235 -22.7332 0 2.84187 2 0 4.53999e-06 0.454477
1685 1 47.2694 11.112 -20.0295 0 2.33751 2 0 4.54006e-06 -0.602715
3425 1 47.8328 11.0564 -21.0333 0 2.46798 2 0 4.54001e-06 -0.551595
4630 1 48.8445 10.9357 -20.9662 0 2.58027 2 0 4.54e-06 0.318464
1255 1 47.9836 11.6808 -20.3599 0 2.47147 2 0 4.54001e-06 -0.67213
4229 1 48.7374 11.2425 -19.9853 0 2.55509 2 0 4.54e-06 0.449296
4420 1 49.4435 11.7005 -20.7624 0 2.88124 2 0 4.53999e-06 0.733479
7376 1 47.2491 13.4148 -20.8247 0 2.39122 1 0 4.54003e-06 -0.865553
6905 1 46.4625 13.4058 -20.2009 0 2.28756 2 0 4.54011e-06 -0.832337
2599 1 47.7257 12.4564 -20.9775 0 2.47807 1 0 4.54001e-06 -0.927793
1926 1 48.6856 12.307 -20.7447 0 2.59094 1 0 4.54e-06 -0.0153407
6972 1 48.9242 13.1794 -20.5729 0 2.60408 1 0 4.54e-06 0.798786
6590 1 48.096 13.1299 -20.3887 0 2.48113 1 0 4.54001e-06 -0.733265
901 1 49.8224 12.5379 -21.078 0 2.79602 1 0 4.53999e-06 0.827583
4516 1 49.4002 13.3848 -21.2304 0 2.73251 1 0 4.53999e-06 0.961078
4547 1 49.637 12.726 -20.2005 0 2.69939 1 0 4.53999e-06 0.852908
3873 1 50.4795 13.3804 -20.8605 0 3.15707 2 0 4.53999e-06 0.984508
8989 1 50.2285 13.5918 -19.8694 0 3.05385 2 0 4.53999e-06 0.907402
7373 1 45.6703 14.0046 -21.4962 0 2.28262 2 0 4.54012e-06 -0.992199
6450 1 46.0385 14.3549 -20.4296 0 2.25777 2 0 4.54015e-06 -0.858296
6297 1 46.7174 14.2978 -21.3291 0 2.33733 2 0 4.54006e-06 -0.557063
6240 1 47.0376 14.4984 -20.31 0 2.31907 2 0 4.54008e-06 -0.382264
6245 1 47.7449 14.2899 -21.2139 0 2.44164 2 0 4.54002e-06 -0.2256
6605 1 47.7868 14.0078 -20.2352 0 2.41269 1 0 4.54003e-06 -0.400285
6301 1 48.5189 13.8659 -20.9347 0 2.54938 1 0 4.54e-06 -0.183038
8447 1 48.5432 13.7401 -19.8507 0 2.51007 1 0 4.54001e-06 0.390939
7662 1 48.5352 14.6579 -20.2895 0 2.50317 2 0 4.54001e-06 -0.0546015
8944 1 50.2088 14.2701 -21.3806 0 3.13173 2 0 4.53999e-06 0.795486
8546 1 49.4174 14.1044 -20.6282 0 2.70384 1 0 4.53999e-06 0.548326
9168 1 50.1889 14.5034 -20.3169 0 3.09962 2 0 4.53999e-06 0.741971
9122 1 49.4125 15.1045 -20.8634 0 2.67384 2 0 4.54e-06 0.0932935
1688 1 45.7241 11.8214 -18.2157 0 2.15796 2 0 4.54042e-06 -0.751082
2452 1 46.3046 11.6697 -19.2321 0 2.22257 2 0 4.54022e-06 -0.775416
1259 1 46.9145 10.9126 -18.8832 0 2.24088 2 0 4.54018e-06 -0.258752
1569 1 47.2551 11.8554 -19.4654 0 2.33919 1 0 4.54006e-06 -0.659476
1011 1 46.6874 11.6033 -18.1013 0 2.22711 2 0 4.54021e-06 -0.168998
4330 1 47.658 11.6619 -18.4061 0 2.36067 2 0 4.54005e-06 0.306909
4326 1 47.9342 11.1381 -19.2576 0 2.38374 2 0 4.54004e-06 0.234399
4331 1 48.596 11.7829 -18.8582 0 2.70992 2 0 4.53999e-06 0.619969
2201 1 46.5885 12.3447 -18.649 0 2.2495 1 0 4.54016e-06 -0.749262
2548 1 47.0306 13.1578 -18.9758 0 2.31102 1 0 4.54008e-06 -0.755709
1567 1 47.3438 12.9588 -18.2023 0 2.3321 1 0 4.54007e-06 0.397224
6513 1 46.1739 13.579 -19.0987 0 2.24462 2 0 4.54017e-06 -0.922576
3521 1 48.0249 12.3405 -19.7109 0 2.46417 1 0 4.54001e-06 -0.444124
1566 1 47.4779 12.4326 -18.9312 0 2.36115 1 0 4.54005e-06 -0.342107
7374 1 47.6721 13.2445 -19.5868 0 2.39782 1 0 4.54003e-06 -0.694663
1923 1 48.7495 12.7835 -19.7779 0 2.56313 1 0 4.54e-06 0.696291
4591 1 49.1056 12.0354 -19.7011 0 2.78192 2 0 4.53999e-06 0.729744
1563 1 48.2461 13.1491 -19.183 0 2.47248 1 0 4.54001e-06 0.87436
1198 1 48.1634 12.6206 -18.5183 0 2.46382 1 0 4.54001e-06 0.715042
4515 1 49.1375 12.7376 -18.8436 0 2.78682 2 0 4.53999e-06 0.811246
6303 1 47.765 13.4841 -18.5537 0 2.39128 1 0 4.54003e-06 0.57357
9331 1 49.3245 13.4363 -19.7013 0 2.64594 1 0 4.54e-06 0.911951
3872 1 49.5543 13.6902 -18.8236 0 2.88924 2 0 4.53999e-06 0.781309
6907 1 47.0749 13.8746 -19.5174 0 2.32155 1 0 4.54008e-06 -0.79968
7559 1 46.7346 14.3641 -18.7726 0 2.26695 2 0 4.54014e-06 -0.532985
6031 1 46.8613 13.7104 -18.3508 0 2.28279 1 0 4.54011e-06 -0.602859
8945 1 47.6501 14.3385 -18.3139 0 2.35587 2 0 4.54005e-06 0.153696
9429 1 47.4749 14.7448 -19.2486 0 2.3247 2 0 4.54007e-06 -0.149823
7554 1 47.909 14.0059 -19.2467 0 2.40002 1 0 4.54003e-06 0.0624591
9123 1 48.534 14.6081 -19.0924 0 2.45031 2 0 4.54002e-06 0.316495
9224 1 48.6266 13.7337 -18.7132 0 2.51549 1 0 4.54e-06 0.700097
9169 1 49.2981 14.3531 -19.6702 0 2.6224 2 0 4.54e-06 0.48088
1681 1 44.6693 11.7165 -17.1336 0 2.07099 2 0 4.54101e-06 -0.700357
1313 1 45.8476 11.585 -17.2135 0 2.13612 2 0 4.54052e-06 -0.227526
4328 1 46.8732 11.8184 -17.1368 0 2.20715 2 0 4.54025e-06 0.348911
2202 1 45.5477 12.6275 -17.6095 0 2.15465 1 0 4.54043e-06 -0.774902
2208 1 44.7628 13.0063 -16.5889 0 2.12646 1 0 4.54058e-06 -0.693219
3422 1 45.2735 12.2506 -16.7406 0 2.12121 2 0 4.54061e-06 -0.48914
4416 1 45.7047 12.8539 -16.5343 0 2.15377 1 0 4.54044e-06 0.0711057
7472 1 45.7348 13.3128 -17.1917 0 2.16999 1 0 4.54037e-06 -0.784782
2154 1 46.5308 12.9172 -18.0571 0 2.24107 1 0 4.54018e-06 -0.843027
7377 1 45.9904 13.606 -18.0012 0 2.20463 1 0 4.54026e-06 -0.770673
1257 1 46.2935 12.4156 -17.3569 0 2.19115 1 0 4.5403e-06 -0.275526
4419 1 47.2317 12.2811 -17.7952 0 2.29805 1 0 4.5401e-06 0.344945
1467 1 46.7954 13.1864 -17.4186 0 2.24779 1 0 4.54017e-06 0.35725
3966 1 46.2464 12.175 -16.4057 0 2.15307 2 0 4.54044e-06 0.243718
4232 1 46.9631 12.7369 -16.7618 0 2.23586 1 0 4.54019e-06 0.494525
3641 1 47.2628 13.673 -16.5759 0 2.29386 2 0 4.5401e-06 0.482105
4551 1 47.773 12.9461 -17.4529 0 2.39856 1 0 4.54003e-06 0.628404
4228 1 48.2687 12.1468 -17.6999 0 2.68147 2 0 4.54e-06 0.59103
4549 1 48.6687 13.1348 -17.926 0 2.73057 2 0 4.53999e-06 0.822161
3876 1 48.3874 13.4029 -16.7071 0 2.90341 2 0 4.53999e-06 0.622685
7151 1 44.9152 13.7128 -17.0535 0 2.13756 2 0 4.54051e-06 -0.560364
6242 1 45.6157 14.3398 -17.3275 0 2.15899 2 0 4.54041e-06 -0.278146
6237 1 44.1488 14.4564 -17.0212 0 2.10487 2 0 4.54072e-06 -0.458138
7475 1 44.2137 13.7587 -16.3857 0 2.13372 2 0 4.54053e-06 -0.612966
7657 1 45.4314 13.979 -16.4333 0 2.1716 1 0 4.54036e-06 0.234227
7558 1 46.3678 13.7441 -17.024 0 2.20394 1 0 4.54026e-06 0.242617
6243 1 46.6721 14.1567 -17.6622 0 2.23678 1 0 4.54019e-06 -0.0517397
9223 1 47.4524 13.7032 -17.6333 0 2.34084 1 0 4.54006e-06 0.41084
9120 1 46.2832 14.546 -16.4582 0 2.18946 2 0 4.5403e-06 0.348563
8600 1 48.3695 14.034 -17.6607 0 2.7211 2 0 4.53999e-06 0.561318
2205 1 42.362 13.4427 -14.839 0 2.08447 2 0 4.54088e-06 -0.615065
1056 1 43.8116 12.5429 -15.2045 0 2.0964 2 0 4.54078e-06 -0.0384207
1929 1 43.3012 13.3158 -15.3014 0 2.11693 1 0 4.54063e-06 -0.451677
1684 1 44.0941 12.5216 -16.169 0 2.0922 2 0 4.54081e-06 -0.593237
4590 1 44.1585 13.3129 -14.8877 0 2.15164 1 0 4.54045e-06 0.632082
2655 1 44.2423 13.3465 -15.6702 0 2.14051 1 0 4.5405e-06 -0.0146006
4631 1 44.9255 12.4578 -15.6281 0 2.11245 2 0 4.54066e-06 0.245307
956 1 45.2047 13.2769 -15.8836 0 2.1598 1 0 4.54041e-06 0.515608
904 1 46.1911 13.4095 -16.3257 0 2.18575 1 0 4.54031e-06 0.471532
6509 1 42.2521 14.6122 -14.6975 0 2.09517 2 0 4.54079e-06 -0.413873
7150 1 43.667 14.5946 -15.9462 0 2.13907 2 0 4.54051e-06 -0.433034
7553 1 43.7236 13.9302 -15.5414 0 2.14576 1 0 4.54047e-06 -0.45327
6968 1 42.7602 14.022 -15.239 0 2.11003 2 0 4.54068e-06 -0.599282
9227 1 43.5482 13.8064 -14.7528 0 2.14987 1 0 4.54045e-06 0.926618
8544 1 43.3623 14.4741 -14.9638 0 2.15158 1 0 4.54045e-06 -0.223811
9126 1 44.691 14.5608 -16.1861 0 2.15786 2 0 4.54042e-06 0.163563
9172 1 44.5886 13.9405 -15.59 0 2.17479 1 0 4.54035e-06 0.814988
8943 1 45.5374 14.0372 -15.5266 0 2.43243 2 0 4.54002e-06 0.614869
8898 1 44.2247 14.6085 -15.188 0 2.20974 2 0 4.54025e-06 0.466371
2597 1 41.6249 13.1484 -14.2468 0 2.05681 2 0 4.54116e-06 -0.667871
3523 1 41.0802 13.5153 -13.0715 0 2.10407 2 0 4.54072e-06 -0.0866769
1258 1 42.0835 13.0687 -13.5283 0 2.07804 2 0 4.54094e-06 -0.131457
1683 1 42.4325 12.4858 -14.6226 0 2.05103 2 0 4.54123e-06 -0.275102
4633 1 43.1531 13.0214 -14.5595 0 2.10735 2 0 4.5407e-06 0.0503685
953 1 42.6024 13.4991 -14.131 0 2.10362 1 0 4.54072e-06 -0.28659
3922 1 42.9756 13.2398 -13.5294 0 2.11786 2 0 4.54063e-06 0.303587
4121 1 43.5698 13.5073 -14.1149 0 2.15151 1 0 4.54045e-06 0.598299
6694 1 40.0441 14.8196 -13.1269 0 2.07844 2 0 4.54093e-06 -0.58667
6455 1 40.4525 15.0035 -14.0626 0 2.03079 2 0 4.54151e-06 -0.456892
1197 1 41.9427 13.968 -14.1766 0 2.08586 1 0 4.54087e-06 -0.753408
6591 1 41.1425 13.8479 -13.8427 0 2.07566 2 0 4.54096e-06 -0.713184
6512 1 41.3795 14.6587 -13.8923 0 2.07781 2 0 4.54094e-06 -0.272055
8543 1 40.8154 14.3401 -13.1952 0 2.11006 2 0 4.54068e-06 -0.437296
1565 1 41.8973 13.8129 -13.2727 0 2.1072 2 0 4.5407e-06 0.213442
9170 1 41.577 14.4875 -13.0137 0 2.26993 2 0 4.54013e-06 0.538019
7658 1 42.2305 14.6609 -13.7239 0 2.10292 2 0 4.54073e-06 0.120518
8686 1 43.8492 15.25 -14.5342 0 2.22288 2 0 4.54021e-06 0.2015
6305 1 42.8567 14.2491 -14.2695 0 2.12575 1 0 4.54058e-06 -0.106218
3643 1 42.6805 14.0563 -13.4313 0 2.12651 2 0 4.54057e-06 0.312713
8595 1 43.6451 14.4074 -14.2039 0 2.1781 2 0 4.54034e-06 0.451211
3281 1 43.5335 14.0143 -13.4706 0 2.37209 2 0 4.54004e-06 0.528224
3640 1 44.4263 14.0431 -14.5525 0 2.3735 2 0 4.54004e-06 0.816592
2449 1 40.0868 13.3055 -12.5394 0 2.09064 2 0 4.54083e-06 -0.137578
2199 1 39.2335 13.0913 -12.1408 0 2.04813 2 0 4.54127e-06 -0.567885
1261 1 39.2203 13.6257 -11.4341 0 2.10941 2 0 4.54068e-06 -0.698793
4225 1 40.0694 13.111 -11.6779 0 2.09905 2 0 4.54076e-06 0.372662
4593 1 40.8468 13.625 -12.2803 0 2.28459 2 0 4.54011e-06 0.59545
6974 1 38.97 14.569 -12.0859 0 2.09712 2 0 4.54077e-06 -0.712216
6302 1 38.9456 14.2902 -11.2223 0 2.13322 2 0 4.54054e-06 -0.93789
7149 1 38.3993 15.1541 -11.4747 0 2.10235 2 0 4.54073e-06 -0.588487
2652 1 40.1547 14.0433 -12.757 0 2.11291 2 0 4.54066e-06 -0.543357
2152 1 39.5612 13.9496 -12.1168 0 2.11136 2 0 4.54067e-06 -0.731112
7656 1 39.8428 14.7288 -12.2157 0 2.13247 2 0 4.54054e-06 -0.306364
6906 1 39.4169 15.0731 -11.3924 0 2.16628 2 0 4.54038e-06 0.0435642
4124 1 40.2292 13.8975 -11.6806 0 2.1579 1 0 4.54042e-06 0.723931
8946 1 40.5878 14.3337 -12.325 0 2.26312 2 0 4.54014e-06 0.685853
8897 1 40.3556 14.6855 -11.5844 0 2.36768 2 0 4.54005e-06 0.566888
8838 1 40.8664 15.072 -12.6312 0 2.128 2 0 4.54057e-06 0.249001
3874 1 41.4866 14.2552 -12.15 0 2.3834 2 0 4.54004e-06 0.741783
1260 1 38.6098 13.4372 -10.5697 0 2.09535 2 0 4.54079e-06 -0.482878
1256 1 39.2844 12.8471 -11.0671 0 2.06111 2 0 4.54111e-06 -0.163638
4424 1 39.8626 13.5847 -10.8564 0 2.32331 2 0 4.54007e-06 0.546824
6508 1 37.5058 14.572 -9.82499 0 2.13569 2 0 4.54052e-06 -0.846842
6606 1 38.1876 14.5263 -10.7255 0 2.13635 2 0 4.54052e-06 -0.847432
8450 1 38.2572 14.1079 -10.0282 0 2.14575 2 0 4.54047e-06 -0.522324
8497 1 38.9276 14.7092 -10.5379 0 2.19063 2 0 4.5403e-06 0.332312
9128 1 38.2047 14.9804 -9.50294 0 2.22685 1 0 4.54021e-06 -0.173898
6452 1 38.0674 15.3778 -10.347 0 2.16905 2 0 4.54037e-06 -0.428246
9226 1 39.7236 14.3459 -11.1202 0 2.18987 1 0 4.5403e-06 0.578578
4418 1 39.1653 14.0338 -10.3078 0 2.24525 2 0 4.54017e-06 0.649799
8270 1 38.9879 15.1087 -9.80635 0 2.49031 2 0 4.54001e-06 0.642389
8317 1 40.3978 15.0184 -10.3971 0 2.9918 2 0 4.53999e-06 0.697055
2600 1 37.6071 13.5545 -9.12277 0 2.08895 2 0 4.54084e-06 -0.579295
4324 1 38.2892 13.002 -8.825 0 2.08286 2 0 4.54089e-06 0.16317
2212 1 37.4688 13.1441 -7.87269 0 2.05041 2 0 4.54124e-06 -0.725479
4415 1 38.1002 13.6192 -8.14997 0 2.13511 1 0 4.54053e-06 0.0381867
3967 1 38.8185 13.4374 -8.03795 0 2.32531 2 0 4.54007e-06 0.787455
2456 1 37.0359 14.3299 -8.95059 0 2.10805 2 0 4.54069e-06 -0.949656
9427 1 37.2321 14.6799 -7.87973 0 2.15525 1 0 4.54043e-06 -0.990004
1691 1 38.545 13.7073 -9.33209 0 2.14274 1 0 4.54049e-06 0.450818
8444 1 38.0164 14.2488 -9.17256 0 2.16257 1 0 4.5404e-06 -0.51015
8500 1 38.8888 14.4631 -9.35156 0 2.24776 1 0 4.54017e-06 0.999127
2458 1 37.5145 13.9878 -8.26461 0 2.12664 1 0 4.54057e-06 -0.8877
3970 1 38.891 14.0561 -8.61413 0 2.22366 1 0 4.54021e-06 0.955188
8263 1 37.9072 14.5326 -8.52378 0 2.18287 1 0 4.54032e-06 -0.59738
8990 1 38.4084 14.2391 -7.88043 0 2.21605 1 0 4.54023e-06 0.98833
8738 1 38.2695 14.8826 -8.03563 0 2.27068 1 0 4.54013e-06 0.497916
6241 1 37.571 15.0525 -8.80381 0 2.18411 1 0 4.54032e-06 -0.597536
8316 1 39.2052 14.7991 -8.34126 0 2.67645 2 0 4.54e-06 0.976013
1789 1 38.2162 11.8547 -6.39872 0 2.04926 2 0 4.54125e-06 -0.0324785
1973 1 37.4677 12.1933 -7.7329 0 1.94905 2 0 4.54343e-06 -0.41348
2022 1 37.5328 12.6367 -6.60849 0 2.01871 2 0 4.5417e-06 -0.903823
1013 1 38.6574 12.641 -6.47894 0 2.27634 2 0 4.54012e-06 0.553233
4333 1 38.2683 13.0857 -7.30125 0 2.11604 2 0 4.54064e-06 0.25819
4231 1 38.5185 13.5431 -6.46708 0 2.14555 1 0 4.54047e-06 0.736531
6033 1 36.8257 14.5482 -6.31652 0 2.13032 2 0 4.54055e-06 -0.856459
5920 1 36.7401 15.0606 -7.15183 0 2.14546 2 0 4.54047e-06 -0.966578
8442 1 37.5448 14.1154 -7.41602 0 2.14598 1 0 4.54047e-06 -0.868031
9225 1 37.7176 14.1603 -6.38715 0 2.14344 1 0 4.54048e-06 -0.821621
4116 1 38.1748 13.9962 -7.19596 0 2.17103 1 0 4.54037e-06 0.241516
3692 1 38.8902 14.0706 -6.96414 0 2.25418 1 0 4.54016e-06 0.982542
8684 1 38.5399 14.6923 -6.72245 0 2.29477 1 0 4.5401e-06 0.869661
7653 1 37.9345 14.6645 -7.20244 0 2.20232 1 0 4.54027e-06 -0.166993
8269 1 38.2827 15.4185 -6.6724 0 2.34244 1 0 4.54006e-06 0.546633
7660 1 37.7248 15.2761 -7.54368 0 2.22796 1 0 4.5402e-06 -0.152958
8213 1 37.4971 15.1182 -6.50582 0 2.20288 1 0 4.54026e-06 -0.676312
3212 1 39.601 14.5694 -6.41211 0 2.91194 2 0 4.53999e-06 0.997255
3207 1 39.6376 15.1453 -7.43039 0 3.21751 2 0 4.53999e-06 0.91677
3793 1 38.869 10.6604 -4.35895 0 2.15738 2 0 4.54042e-06 0.30339
1687 1 37.5883 11.2038 -4.64579 0 1.98638 2 0 4.54236e-06 -0.739464
1057 1 37.9149 11.3666 -5.62076 0 2.02042 2 0 4.54167e-06 -0.436052
4673 1 38.6166 11.374 -5.00934 0 2.1237 2 0 4.54059e-06 0.229113
3737 1 39.4764 11.4155 -4.59838 0 2.50412 2 0 4.54001e-06 0.781853
4321 1 37.8782 12.0511 -5.14341 0 2.04246 1 0 4.54134e-06 -0.816056
4014 1 38.9704 12.0902 -5.60038 0 2.34941 2 0 4.54006e-06 0.693213
4634 1 38.5983 12.2057 -4.57568 0 2.10984 1 0 4.54068e-06 0.744268
1974 1 37.697 12.8397 -5.2467 0 2.03202 1 0 4.54149e-06 -0.922907
1925 1 37.5607 13.2282 -4.551 0 2.0056 1 0 4.54194e-06 -0.987334
3423 1 38.5254 12.7941 -5.1475 0 2.10415 1 0 4.54072e-06 0.67784
3514 1 38.1809 13.1316 -5.86701 0 2.08981 1 0 4.54083e-06 -0.60776
3923 1 38.8962 13.2959 -4.6943 0 2.11224 1 0 4.54066e-06 0.997521
3738 1 39.5135 12.3764 -4.66015 0 2.44492 2 0 4.54002e-06 0.977836
3740 1 39.3507 12.9855 -5.79652 0 2.39428 2 0 4.54003e-06 0.962433
2102 1 37.1252 14.1657 -5.24778 0 2.07813 2 0 4.54094e-06 -0.955418
6515 1 36.7543 15.2757 -5.6176 0 2.14798 1 0 4.54046e-06 -0.853793
909 1 37.7489 13.9145 -4.52444 0 2.0565 1 0 4.54117e-06 -0.993503
4230 1 37.9487 13.8033 -5.46547 0 2.09939 1 0 4.54076e-06 -0.916393
3920 1 38.8718 13.7294 -5.59179 0 2.15497 1 0 4.54043e-06 0.991077
8596 1 37.5466 14.8203 -5.63874 0 2.16811 1 0 4.54038e-06 -0.929679
9326 1 38.1309 14.5326 -4.48918 0 2.14092 1 0 4.5405e-06 -0.652461
8948 1 38.2746 14.4624 -5.93337 0 2.20551 1 0 4.54026e-06 0.887697
3642 1 38.5518 14.1136 -4.94192 0 2.15344 1 0 4.54044e-06 0.945435
8315 1 38.3849 14.9684 -5.20214 0 2.26796 1 0 4.54013e-06 0.788447
9425 1 37.5823 15.2551 -4.86964 0 2.19904 1 0 4.54027e-06 -0.809839
8102 1 39.0765 15.3116 -5.87718 0 2.78892 2 0 4.53999e-06 0.835299
2994 1 39.663 15.1182 -4.84978 0 2.97034 2 0 4.53999e-06 0.928198
1309 1 36.4749 9.49494 -2.85147 0 1.84783 2 0 4.54944e-06 -0.315594
3335 1 37.0073 10.2214 -3.42236 0 1.89017 2 0 4.54618e-06 -0.480732
1930 1 37.4942 11.7836 -3.8836 0 1.96548 1 0 4.54291e-06 -0.953284
4332 1 38.1406 11.0064 -3.89226 0 2.04132 1 0 4.54136e-06 -0.252853
1012 1 37.3404 11.033 -3.22872 0 1.93026 1 0 4.54414e-06 -0.851843
4017 1 37.9329 10.2146 -3.49234 0 1.98876 2 0 4.5423e-06 0.0460235
3789 1 38.801 10.47 -3.30554 0 2.30787 2 0 4.54009e-06 0.564939
4414 1 38.0193 11.3407 -3.13215 0 1.99056 1 0 4.54226e-06 -0.579521
3969 1 38.5669 11.6557 -3.99006 0 2.09748 1 0 4.54077e-06 0.686217
3924 1 38.775 11.2699 -2.8735 0 2.08558 1 0 4.54087e-06 0.917744
3371 1 39.5092 11.0716 -3.60149 0 2.49568 2 0 4.54001e-06 0.871937
3278 1 40.3505 11.6319 -4.11594 0 2.92331 2 0 4.53999e-06 0.999472
1568 1 37.2405 12.2552 -2.77062 0 1.87332 1 0 4.54732e-06 -0.966136
2550 1 37.086 13.0397 -3.10525 0 1.87654 2 0 4.54709e-06 -0.992438
2555 1 37.4174 12.5851 -4.12727 0 1.96308 1 0 4.54298e-06 -0.983678
3517 1 38.1503 12.5825 -3.83446 0 2.01701 1 0 4.54173e-06 -0.728847
4233 1 38.0908 13.3418 -3.8072 0 2.02604 1 0 4.54158e-06 -0.513491
4131 1 38.7341 13.6659 -3.9872 0 2.10873 1 0 4.54069e-06 0.962014
4589 1 38.2994 12.0811 -3.2454 0 2.01201 1 0 4.54182e-06 0.551597
4517 1 38.1191 13.6791 -2.8539 0 2.00414 1 0 4.54197e-06 0.45135
3921 1 38.9868 12.7834 -3.85294 0 2.11726 1 0 4.54063e-06 0.949036
3691 1 39.2147 11.9712 -3.49741 0 2.18899 1 0 4.5403e-06 0.923369
3690 1 39.3891 12.9191 -2.84097 0 2.40116 2 0 4.54003e-06 0.963207
1146 1 36.6588 14.6386 -2.83442 0 1.88824 2 0 4.5463e-06 -0.929855
6037 1 36.8549 15.4354 -3.69217 0 2.0767 1 0 4.54095e-06 -0.665951
1868 1 37.3194 13.7577 -3.56272 0 1.95256 1 0 4.54331e-06 -0.993866
3871 1 38.2549 14.1928 -3.67222 0 2.09671 1 0 4.54078e-06 -0.144785
3218 1 38.8152 14.9025 -4.0366 0 2.29387 1 0 4.5401e-06 0.868629
8445 1 37.5275 14.4868 -3.11204 0 1.99746 1 0 4.54211e-06 -0.965756
9424 1 38.1765 14.9972 -3.47066 0 2.1636 1 0 4.54039e-06 -0.403259
8740 1 39.247 14.2366 -4.1285 0 2.33975 2 0 4.54006e-06 0.992492
3209 1 39.8782 14.8976 -3.48665 0 2.78754 2 0 4.53999e-06 0.989901
3639 1 39.2932 13.8064 -2.87204 0 2.40732 2 0 4.54003e-06 0.94986
8996 1 39.142 14.6283 -2.93187 0 2.29785 1 0 4.5401e-06 0.987894
2281 1 35.5337 9.35007 -1.68916 0 1.76186 2 0 4.56234e-06 -0.667803
1790 1 34.8512 8.89784 -1.18914 0 1.69858 2 0 4.58215e-06 -0.63822
2450 1 35.3386 10.0141 -1.06411 0 1.71424 2 0 4.57603e-06 -0.7075
4016 1 37.0463 9.26737 -2.15837 0 1.91233 2 0 4.54495e-06 0.384925
4322 1 36.1017 10.0485 -0.992413 0 1.77776 1 0 4.55906e-06 -0.359538
4632 1 36.3793 9.62581 -1.77755 0 1.83004 1 0 4.55129e-06 -0.318504
3460 1 36.5478 8.87215 -1.07935 0 1.87469 2 0 4.54721e-06 0.376637
4068 1 36.1492 8.66044 -1.92066 0 1.8488 2 0 4.54935e-06 -0.111004
3968 1 36.7522 9.72847 -1.10933 0 1.85819 1 0 4.54851e-06 0.870575
4677 1 37.4284 10.0906 -2.44157 0 1.92083 1 0 4.54455e-06 0.378081
3456 1 37.6503 9.42881 -1.52895 0 2.16526 2 0 4.54039e-06 0.694609
1449 1 35.7792 10.1704 -2.09309 0 1.77975 2 0 4.55868e-06 -0.729572
1698 1 36.5477 10.2886 -2.49805 0 1.84569 2 0 4.54965e-06 -0.719622
1927 1 36.9999 10.9429 -2.40738 0 1.87292 1 0 4.54735e-06 -0.894926
1203 1 36.9162 11.7175 -2.09099 0 1.8347 1 0 4.55077e-06 -0.952862
4594 1 36.6912 10.6316 -1.33611 0 1.82002 1 0 4.55248e-06 -0.481396
1204 1 36.7767 11.6312 -1.05722 0 1.75967 1 0 4.56285e-06 -0.961741
3971 1 38.1316 10.5917 -2.57404 0 1.99818 1 0 4.54209e-06 0.601802
3516 1 37.7966 11.6895 -2.40246 0 1.93195 1 0 4.54407e-06 -0.47377
3693 1 38.6401 11.8984 -2.22414 0 2.02211 1 0 4.54165e-06 0.907009
3515 1 37.6352 11.0449 -1.83871 0 1.93015 1 0 4.54414e-06 0.0988848
3280 1 38.7792 11.4628 -0.958198 0 2.38719 2 0 4.54004e-06 0.980761
3282 1 38.6034 11.0346 -1.81266 0 2.2057 2 0 4.54026e-06 0.915129
4237 1 37.6743 11.2201 -0.905306 0 1.93142 1 0 4.54409e-06 0.209194
3925 1 37.8952 11.9125 -1.51127 0 1.92217 1 0 4.54449e-06 0.438823
4334 1 37.3117 10.2399 -1.52926 0 1.91642 1 0 4.54475e-06 0.848818
3698 1 38.1433 10.2819 -1.6158 0 2.18017 2 0 4.54033e-06 0.795845
3277 1 39.7166 10.7604 -1.81699 0 2.81037 2 0 4.53999e-06 0.913539
1147 1 36.8011 13.3457 -1.55532 0 1.75708 2 0 4.56345e-06 -0.932083
1570 1 36.8349 12.4555 -1.50507 0 1.75468 2 0 4.56402e-06 -0.963343
4592 1 38.0637 12.5664 -2.59073 0 1.9391 1 0 4.54379e-06 0.473623
3624 1 37.619 13.2156 -2.21295 0 1.88524 1 0 4.54649e-06 -0.95487
4126 1 38.5665 12.8979 -1.8033 0 1.99623 1 0 4.54214e-06 0.943275
3625 1 37.7332 12.7379 -1.24554 0 1.8557 1 0 4.54873e-06 0.468673
3279 1 39.2393 13.5287 -1.82105 0 2.36707 2 0 4.54005e-06 0.881792
905 1 36.9604 13.9348 -2.32355 0 1.847 2 0 4.54953e-06 -0.958538
9325 1 37.2161 15.2068 -2.50282 0 1.97462 1 0 4.54265e-06 -0.888003
911 1 36.6895 14.6704 -1.55389 0 1.78168 1 0 4.55833e-06 -0.912423
3627 1 36.6432 14.063 -0.924624 0 1.7008 1 0 4.58123e-06 -0.820452
9328 1 37.6825 13.8379 -1.54658 0 1.88706 1 0 4.54638e-06 -0.704494
4129 1 38.5142 13.8663 -1.36381 0 2.03259 1 0 4.54148e-06 0.787919
8538 1 37.6746 14.6422 -1.8216 0 1.93912 1 0 4.54379e-06 -0.824989
8441 1 38.2728 14.4553 -2.40089 0 2.06542 1 0 4.54107e-06 0.720642
8991 1 38.7555 15.1157 -1.86562 0 2.21892 1 0 4.54022e-06 0.872638
8438 1 38.0516 15.0079 -1.22275 0 2.00235 1 0 4.54201e-06 0.53476
8993 1 39.179 14.4135 -1.70134 0 2.24784 1 0 4.54017e-06 0.880806
3235 1 39.4686 15.2315 -2.38967 0 2.61888 2 0 4.54e-06 0.907131
2993 1 40.6006 14.6491 -1.54713 0 3.15919 2 0 4.53999e-06 0.92845
3222 1 39.7198 14.8628 -1.03148 0 2.63429 2 0 4.54e-06 0.920145
2383 1 25.3408 -1.89882 0.690472 0 1.22648 2 0 1.1634e-05 0.0619478
5 1 0.729896 0.0633724 0.61602 4 2.22905e-05 3 0 0.0994487 -0.190374
1 1 0.116341 1.10259 0.464337 4 2.45735e-05 2 0 0.0994487 -0.68194
9 1 2.52093 0.749102 0.203812 4 6.76498e-05 2 0 0.0994487 -0.142938
20 1 3.47612 0.111428 0.171027 4 9.12492e-05 2 0 0.0994487 0.166217
16 1 4.10576 0.858321 0.325305 4 0.000175846 2 0 0.0994487 0.15315
21 1 5.64741 0.645627 0.325839 4 0.000445042 2 0 0.0994487 -0.0806003
32 1 7.58247 0.647807 0.140287 4 0.00116846 2 0 0.0994487 -0.11093
33 1 8.85849 0.508506 0.273966 4 0.00200174 2 0 0.0994487 -0.0616378
43 1 10.2431 0.367861 0.0780499 4 0.00326353 2 0 0.0994487 0.149809
38 1 11.2128 0.215893 0.632658 4 0.00557524 2 0 0.0994487 0.203521
44 1 12.8757 0.211714 0.636805 4 0.013449 2 0 0.0994487 0.0588063
45 1 12.0457 1.07408 0.506655 4 0.0108404 2 0 0.0994487 -0.0235269
59 1 15.1049 0.711806 0.0677822 4 0.0392272 2 0 0.0994487 0.169215