ITEM: TIMESTEP
52000
ITEM: NUMBER OF ATOMS
9495
ITEM: BOX BOUNDS mm mm mm
-2.9130586929646519e-03 8.6566955976133215e+01
-3.9315674859851950e+00 3.5225065134853111e+01
-2.3763062384048737e+02 3.1748021039364001e+01
ITEM: ATOMS id type x y z c_phase c_temp c_surf c_nbond c_visc f_3[1]
2453 1 73.0902 10.9032 -236.126 0 3.61359 3 0 4.53999e-06 -0.864756
1560 1 76.8765 10.6264 -236.152 0 3.83061 2 0 4.53999e-06 -0.171305
1196 1 77.4867 11.4282 -236.154 0 3.86951 2 0 4.53999e-06 -0.0986825
4544 1 78.1929 12.0386 -236.431 0 3.91858 2 0 4.53999e-06 0.0640025
4522 1 79.1422 11.5945 -236.421 0 4.01361 2 0 4.53999e-06 0.37657
1464 1 76.0986 12.4529 -235.994 0 3.80821 2 0 4.53999e-06 -0.442021
4521 1 77.104 12.3615 -236.433 0 3.85056 2 0 4.53999e-06 -0.196135
4109 1 78.8807 12.6932 -236.095 0 3.97659 2 0 4.53999e-06 0.368161
2099 1 69.6708 14.2275 -237.627 0 2.96278 3 0 4.53999e-06 -0
2150 1 78.0334 9.82781 -234.675 0 3.87436 2 0 4.53999e-06 0.0927014
1924 1 76.774 10.0091 -235.31 0 3.82652 2 0 4.53999e-06 -0.344415
1561 1 77.7395 10.2261 -235.594 0 3.86538 2 0 4.53999e-06 0.139004
3630 1 80.8887 10.2417 -234.317 0 4.11983 2 0 4.53999e-06 -0.0214005
1920 1 75.6108 11.543 -235.767 0 3.79474 2 0 4.53999e-06 -0.815736
2149 1 75.8726 10.5275 -235.77 0 3.79853 2 0 4.53999e-06 -0.675778
2101 1 76.4437 10.9444 -235.047 0 3.82395 2 0 4.53999e-06 -0.653343
2454 1 75.4791 11.2093 -234.728 0 3.78938 2 0 4.53999e-06 -0.771831
1143 1 76.6321 11.5973 -235.781 0 3.83138 2 0 4.53999e-06 -0.477563
900 1 77.5943 11.0829 -235.204 0 3.87471 1 0 4.53999e-06 -0.218558
2503 1 77.1681 10.4848 -234.49 0 3.85148 2 0 4.53999e-06 -0.3624
2105 1 78.1316 10.8042 -234.389 0 3.90292 2 0 4.53999e-06 -0.062541
3632 1 78.1 11.6821 -234.561 0 3.90872 1 0 4.53999e-06 -0.070881
1469 1 76.9244 11.6965 -234.95 0 3.84681 1 0 4.53999e-06 -0.838834
8451 1 77.7075 12.0403 -235.37 0 3.88655 1 0 4.53999e-06 -0.187599
3628 1 78.3113 10.9736 -235.959 0 3.91686 2 0 4.53999e-06 0.215327
1201 1 79.4355 11.1643 -235.523 0 4.04752 2 0 4.53999e-06 0.44362
1921 1 78.6894 10.6099 -235.123 0 3.93581 2 0 4.53999e-06 0.37185
1149 1 78.9824 11.4881 -234.751 0 3.98011 1 0 4.53999e-06 0.700531
4545 1 78.4943 11.6467 -235.461 0 3.94483 1 0 4.53999e-06 0.399066
2153 1 79.9405 10.7706 -234.695 0 4.06298 2 0 4.53999e-06 0.192393
9333 1 79.9174 11.7867 -234.77 0 4.08396 1 0 4.53999e-06 0.828226
4113 1 80.4583 11.4665 -235.732 0 4.48858 2 0 4.53999e-06 0.517784
903 1 80.8904 11.2473 -234.756 0 4.15949 2 0 4.53999e-06 0.310403
8992 1 81.9707 11.3084 -235.012 0 4.26326 2 0 4.53999e-06 0.347128
9428 1 82.9843 12.0525 -234.632 0 4.89964 2 0 4.53999e-06 0.603013
2100 1 75.0028 12.5813 -235.608 0 3.76505 2 0 4.53999e-06 -0.912337
1865 1 75.9119 12.1605 -235 0 3.80778 2 0 4.53999e-06 -0.878736
6299 1 76.164 13.1588 -235.175 0 3.81064 2 0 4.53999e-06 -0.466895
9332 1 77.8487 12.8514 -235.862 0 3.89354 2 0 4.53999e-06 -0.0614873
1142 1 76.8954 12.5137 -235.395 0 3.84356 2 0 4.53999e-06 -0.376536
906 1 77.3808 12.3875 -234.536 0 3.86679 1 0 4.53999e-06 -0.259962
8452 1 78.1799 12.8814 -234.473 0 3.90686 2 0 4.53999e-06 0.114417
6028 1 77.4223 13.2787 -235.037 0 3.86447 2 0 4.53999e-06 -0.100574
4130 1 79.5623 12.153 -235.614 0 4.25377 2 0 4.53999e-06 0.590839
2457 1 78.9099 12.2255 -234.307 0 3.96523 1 0 4.53999e-06 0.273104
9330 1 78.6188 12.4348 -235.179 0 3.95324 1 0 4.53999e-06 0.405274
9222 1 79.5452 12.7899 -234.816 0 4.02843 2 0 4.53999e-06 0.42863
9219 1 78.5634 13.3699 -235.289 0 3.92973 2 0 4.53999e-06 0.238345
4114 1 80.6167 12.3669 -235.068 0 4.15398 2 0 4.53999e-06 0.468222
9329 1 81.4351 12.1213 -234.448 0 4.19997 2 0 4.53999e-06 0.186906
952 1 81.4832 10.3022 -233.221 0 4.18457 2 0 4.53999e-06 -0.230229
4587 1 83.3181 9.90807 -232.943 0 4.3799 2 0 4.53999e-06 0.0641721
1870 1 76.4576 11.9903 -234.198 0 3.83063 2 0 4.53999e-06 -0.635281
2460 1 77.3303 11.4368 -234.173 0 3.86589 2 0 4.53999e-06 -0.336563
1562 1 79.0915 10.3818 -234.141 0 3.96222 2 0 4.53999e-06 0.0971691
2551 1 78.7295 11.3814 -233.808 0 3.94737 2 0 4.53999e-06 -0.0803618
2104 1 79.7027 11.2302 -233.839 0 4.02934 2 0 4.53999e-06 -0.141089
2151 1 80.3706 10.5494 -233.381 0 4.08552 2 0 4.53999e-06 -0.409026
6973 1 80.3172 11.6401 -233.02 0 4.07751 2 0 4.53999e-06 -0.300665
1928 1 81.1634 11.1497 -233.788 0 4.16451 2 0 4.53999e-06 -0.684866
2547 1 81.238 11.1589 -232.673 0 4.16948 2 0 4.53999e-06 -0.396874
3629 1 80.5355 11.7803 -234.036 0 4.10832 2 0 4.53999e-06 0.0293054
7556 1 81.4301 11.9034 -233.392 0 4.19295 2 0 4.53999e-06 -0.276014
3522 1 81.9056 10.7042 -234.08 0 4.23653 2 0 4.53999e-06 0.200063
4125 1 82.9736 11.0356 -233.981 0 4.5986 2 0 4.53999e-06 0.577225
3631 1 82.1123 11.5865 -233.989 0 4.28633 2 0 4.53999e-06 0.390238
1866 1 82.0523 11.1995 -233.243 0 4.26636 2 0 4.53999e-06 -0.560101
1922 1 82.5563 10.4843 -233.27 0 4.31991 2 0 4.53999e-06 -0.0643202
1466 1 82.8782 11.6204 -233.238 0 4.36113 2 0 4.53999e-06 0.36735
1148 1 83.3836 10.8419 -232.924 0 4.42212 1 0 4.53999e-06 0.162918
4548 1 84.247 10.5885 -232.866 0 4.51412 2 0 4.53999e-06 0.453104
9218 1 84.8987 11.3639 -232.68 0 4.84022 2 0 4.53999e-06 0.641103
9334 1 83.9277 11.5975 -233.148 0 4.47068 2 0 4.53999e-06 0.373387
7200 1 74.447 13.3453 -233.037 0 3.62106 3 0 4.53999e-06 -0.789851
1465 1 76.6714 13.0348 -234.257 0 3.83251 2 0 4.53999e-06 -0.38071
6032 1 78.0443 12.1399 -233.845 0 3.90062 2 0 4.53999e-06 -0.0705271
6588 1 77.1113 12.3738 -233.434 0 3.84717 2 0 4.53999e-06 -0.242691
7563 1 79.7097 12.2603 -233.791 0 4.02083 2 0 4.53999e-06 0.190585
6967 1 78.8731 12.2106 -233.027 0 3.94365 2 0 4.53999e-06 -0.0722762
8449 1 82.3578 12.4841 -233.572 0 4.29051 2 0 4.53999e-06 0.172051
1008 1 82.5965 10.0415 -232.178 0 4.35258 2 0 4.53999e-06 -0.614555
1195 1 83.3378 10.0783 -231.216 0 4.50708 2 0 4.53999e-06 -0.584605
4325 1 84.4193 9.97406 -231.375 0 4.65985 2 0 4.53999e-06 0.00143539
3519 1 83.7436 10.2398 -232.143 0 4.49946 1 0 4.53999e-06 -0.0829882
3870 1 85.3786 10.0681 -231.586 0 5.02223 2 0 4.53999e-06 0.554594
7205 1 82.6593 11.0015 -232.527 0 4.3588 1 0 4.53999e-06 -0.847225
6298 1 82.2 11.9064 -232.533 0 4.27997 2 0 4.53999e-06 -0.331183
1199 1 83.2064 10.831 -231.815 0 4.47023 1 0 4.53999e-06 -0.888805
6604 1 82.9665 11.6816 -231.42 0 4.45908 2 0 4.53999e-06 -0.752553
6608 1 83.3134 11.5671 -232.348 0 4.44416 1 0 4.53999e-06 -0.373086
1869 1 83.991 11.085 -232.279 0 4.53787 1 0 4.53999e-06 0.19633
4520 1 84.675 10.5861 -232.027 0 4.65809 1 0 4.53999e-06 0.521816
9220 1 84.6896 11.3599 -231.762 0 4.68156 1 0 4.53999e-06 0.570314
7203 1 83.8433 11.4338 -231.557 0 4.57057 1 0 4.53999e-06 -0.567402
954 1 84.037 10.7227 -231.477 0 4.6032 1 0 4.53999e-06 -0.572291
8448 1 84.869 10.7649 -231.184 0 4.76267 1 0 4.53999e-06 0.716845
7557 1 84.1869 11.9435 -232.177 0 4.56091 2 0 4.53999e-06 0.120219
6027 1 84.3174 11.9859 -231.084 0 4.65288 2 0 4.53999e-06 -0.0687015
9171 1 85.2409 11.817 -231.315 0 4.95749 2 0 4.53999e-06 0.507622
8739 1 85.6104 11.0261 -231.843 0 5.03092 2 0 4.53999e-06 0.814094
3213 1 86.1732 11.3381 -231.013 0 5.24184 2 0 4.53999e-06 0.896535
4417 1 84.9324 10.0284 -230.494 0 4.81503 2 0 4.53999e-06 0.00605844
4588 1 85.6813 9.94439 -229.728 0 4.98076 2 0 4.53999e-06 0.341595
7204 1 84.4774 11.192 -230.941 0 4.70991 1 0 4.53999e-06 -0.273414
1976 1 84.0818 10.4558 -230.644 0 4.66793 1 0 4.53999e-06 -0.540805
7202 1 83.6703 11.2638 -230.732 0 4.61024 2 0 4.53999e-06 -0.812387
2553 1 84.6785 10.8392 -230.146 0 4.81112 1 0 4.53999e-06 -0.448777
6030 1 84.7259 11.7957 -230.211 0 4.78385 2 0 4.53999e-06 -0.00269809
6908 1 84.0275 11.2986 -229.8 0 4.71883 2 0 4.53999e-06 -0.654047
7555 1 85.3105 11.3284 -230.634 0 4.89019 1 0 4.53999e-06 0.692275
4519 1 85.6076 10.5554 -230.792 0 5.07515 2 0 4.53999e-06 0.798284
4227 1 86.4164 10.6954 -230.182 0 5.34642 2 0 4.53999e-06 0.973715
4518 1 85.4753 10.7999 -229.918 0 5.1165 2 0 4.53999e-06 0.683655
9221 1 85.8115 11.663 -229.979 0 5.22705 2 0 4.53999e-06 0.553294
7474 1 83.7385 12.2418 -230.245 0 4.59534 2 0 4.53999e-06 -0.474148
4546 1 86.3001 10.1634 -227.901 0 5.50532 2 0 4.53999e-06 0.698427
955 1 84.8134 10.4478 -229.311 0 4.91053 2 0 4.53999e-06 -0.599605
6304 1 85.055 11.4124 -229.253 0 4.9531 2 0 4.53999e-06 -0.238644
3520 1 86.0192 11.0067 -229.227 0 5.32076 2 0 4.53999e-06 0.888318
1010 1 85.6037 10.3561 -228.708 0 5.09285 2 0 4.53999e-06 0.152811
2656 1 85.128 10.8861 -228.102 0 5.08938 2 0 4.53999e-06 -0.912423
902 1 86.0555 11.2117 -228.205 0 5.45323 2 0 4.53999e-06 0.561652
1253 1 85.2161 9.85998 -227.635 0 5.07834 2 0 4.53999e-06 -0.433596
901 1 86.159 10.2826 -226.77 0 5.38848 2 0 4.53999e-06 0.609852
7373 1 84.7578 10.9545 -227.133 0 5.05934 2 0 4.53999e-06 -0.961224
2552 1 85.689 10.7719 -227.325 0 5.18669 2 0 4.53999e-06 0.00586834
8944 1 86.5638 11.1098 -227.291 0 5.51549 2 0 4.53999e-06 0.887538
8547 1 85.4701 11.5088 -226.821 0 5.1247 2 0 4.53999e-06 -0.237259
2598 1 85.2891 10.4329 -226.633 0 5.12004 2 0 4.53999e-06 -0.646593
4516 1 86.0864 11.0568 -226.445 0 5.31655 2 0 4.53999e-06 0.805998
6970 1 85.3242 11.0194 -226.067 0 5.09902 2 0 4.53999e-06 -0.721461
4420 1 85.7598 10.2367 -225.125 0 5.07408 2 0 4.53999e-06 0.372287
6450 1 84.6906 10.8969 -224.965 0 5.014 2 0 4.53999e-06 -0.925485
2599 1 85.754 10.4404 -225.949 0 5.12467 2 0 4.53999e-06 0.220805
3873 1 86.5074 10.7092 -225.72 0 5.32214 2 0 4.53999e-06 0.98657
9122 1 85.8155 11.5818 -225.802 0 5.09767 2 0 4.53999e-06 0.30577
6297 1 85.1246 11.2919 -225.372 0 5.04844 1 0 4.53999e-06 -0.571287
6301 1 85.859 10.9567 -225.463 0 5.2028 2 0 4.53999e-06 0.936649
7152 1 85.2003 10.5961 -225.425 0 5.06212 1 0 4.53999e-06 -0.604892
4630 1 85.0272 10.3297 -224.485 0 5.01879 2 0 4.53999e-06 -0.368415
4547 1 86.0187 10.8394 -224.775 0 5.18786 2 0 4.53999e-06 0.972903
6245 1 85.5973 11.3408 -224.958 0 5.054 1 0 4.53999e-06 0.438627
1926 1 85.3574 10.6911 -224.774 0 5.04596 1 0 4.53999e-06 0.0365627
7376 1 85.0784 11.3532 -224.558 0 5.0159 1 0 4.53999e-06 -0.336608
6240 1 84.4439 11.6186 -224.323 0 4.96646 2 0 4.53999e-06 -0.735996
3425 1 84.6634 10.8704 -224.251 0 4.99629 2 0 4.53999e-06 -0.959688
1255 1 84.418 11.1622 -223.576 0 4.96942 2 0 4.53999e-06 -0.947811
6905 1 84.0044 11.232 -222.68 0 4.96476 2 0 4.53999e-06 -0.992328
9169 1 84.6302 11.9078 -223.08 0 4.97121 2 0 4.53999e-06 -0.217195
4591 1 84.869 10.3499 -223.61 0 4.98683 2 0 4.53999e-06 -0.261767
8546 1 85.6228 11.2077 -224.266 0 5.03437 1 0 4.53999e-06 0.761806
8989 1 85.6746 10.471 -224.14 0 5.16273 2 0 4.53999e-06 0.597408
6972 1 85.1484 10.9178 -223.822 0 5.01016 2 0 4.53999e-06 0.114367
7662 1 85.1052 11.6358 -223.812 0 4.99198 2 0 4.53999e-06 0.117536
9168 1 85.7128 11.1065 -223.484 0 5.1778 2 0 4.53999e-06 0.764593
6590 1 84.9716 11.0699 -223.002 0 4.99736 2 0 4.53999e-06 0.235691
1923 1 84.5994 10.7517 -222.045 0 5.03111 2 0 4.53999e-06 0.118747
6605 1 84.1465 11.6003 -221.719 0 5.10148 2 0 4.53999e-06 -0.625978
8447 1 84.5916 11.14 -221.041 0 5.35437 2 0 4.53999e-06 0.620831
9123 1 84.7708 12.0283 -221.112 0 5.42248 2 0 4.53999e-06 0.629564
9331 1 84.9871 11.6313 -222.177 0 5.31124 2 0 4.53999e-06 0.814898
6513 1 82.8908 11.8569 -219.542 0 4.90813 2 0 4.53999e-06 -0.856795
1685 1 83.1941 11.0045 -219.762 0 4.95814 2 0 4.53999e-06 -0.67963
7374 1 83.7211 11.2318 -220.962 0 5.08928 2 0 4.53999e-06 -0.625718
4229 1 83.7421 10.5012 -220.34 0 5.02674 2 0 4.53999e-06 -0.153457
6907 1 83.4355 11.6072 -220.252 0 5.03917 2 0 4.53999e-06 -0.780796
3521 1 84.2189 11.217 -220.26 0 5.25982 2 0 4.53999e-06 0.545294
7554 1 84.3594 11.9911 -220.255 0 5.2983 2 0 4.53999e-06 0.567975
4326 1 83.9822 10.9327 -219.501 0 5.02946 2 0 4.53999e-06 0.371383
1563 1 83.9178 11.7321 -219.614 0 5.16655 2 0 4.53999e-06 0.598325
4515 1 84.6783 11.4755 -219.578 0 5.30084 2 0 4.53999e-06 0.947724
3872 1 85.2152 11.4594 -220.376 0 5.49051 2 0 4.53999e-06 0.993992
9429 1 83.8111 12.1375 -220.908 0 5.10339 2 0 4.53999e-06 -0.384357
7559 1 83.5921 12.3695 -219.861 0 5.01834 2 0 4.53999e-06 -0.245928
2452 1 82.6527 11.1476 -218.902 0 4.80442 2 0 4.53999e-06 -0.836901
1566 1 82.7784 11.8941 -218.514 0 4.78189 2 0 4.53999e-06 -0.809918
2201 1 82.0832 11.4883 -218.041 0 4.62918 2 0 4.53999e-06 -0.955433
4330 1 82.8901 11.0044 -218.011 0 4.73031 2 0 4.53999e-06 -0.127004
1569 1 83.3876 11.3825 -219.091 0 4.9348 2 0 4.53999e-06 -0.598159
1259 1 83.5194 10.7693 -218.7 0 4.88054 2 0 4.53999e-06 0.136676
4331 1 84.2114 11.4239 -218.778 0 5.15644 2 0 4.53999e-06 0.772539
1198 1 83.5621 11.5632 -218.223 0 5.00419 2 0 4.53999e-06 0.581544
2548 1 83.4867 12.0804 -218.954 0 4.92902 2 0 4.53999e-06 -0.0460075
6031 1 82.4484 12.4698 -217.859 0 4.64026 2 0 4.53999e-06 -0.433735
9224 1 84.2782 12.2316 -219.156 0 5.21327 2 0 4.53999e-06 0.615535
8945 1 83.4402 12.4706 -218.142 0 4.78628 2 0 4.53999e-06 0.348643
6303 1 83.0053 11.8054 -217.548 0 4.87585 2 0 4.53999e-06 0.529008
1567 1 81.972 11.947 -217.19 0 4.55095 2 0 4.53999e-06 -0.987209
4228 1 82.5024 11.1741 -217.053 0 4.5654 2 0 4.53999e-06 -0.00556011
4549 1 81.9591 11.7396 -216.181 0 4.47451 2 0 4.53999e-06 0.348753
9223 1 81.0204 12.2243 -216.202 0 4.46435 2 0 4.53999e-06 -0.381008
8600 1 82.6984 12.2924 -216.77 0 4.84324 2 0 4.53999e-06 0.562158
3876 1 81.8972 12.7954 -216.108 0 4.45906 2 0 4.53999e-06 0.352873
1011 1 79.8942 11.5705 -214.444 0 4.45231 2 0 4.53999e-06 0.0226848
1688 1 79.2135 12.0162 -214.892 0 4.38953 2 0 4.53999e-06 -0.640038
4419 1 81.1321 11.5565 -215.481 0 4.49348 2 0 4.53999e-06 0.36176
2154 1 80.1981 11.8554 -215.354 0 4.486 2 0 4.53999e-06 -0.290355
4328 1 80.7768 11.9086 -214.575 0 4.75932 2 0 4.53999e-06 0.739954
1467 1 79.8744 12.528 -214.797 0 4.47593 2 0 4.53999e-06 -0.200718
7377 1 78.9033 12.7754 -214.374 0 4.34788 2 0 4.53999e-06 -0.588643
6243 1 80.2873 12.7841 -215.567 0 4.49367 2 0 4.53999e-06 -0.240584
4551 1 81.0876 12.4638 -215.263 0 4.75699 2 0 4.53999e-06 0.860505
3641 1 80.62 12.9009 -214.532 0 4.7682 2 0 4.53999e-06 0.642903
1681 1 77.8684 11.9845 -213.056 0 4.16023 2 0 4.53999e-06 -0.521593
1313 1 79.2644 11.8297 -213.319 0 4.33912 2 0 4.53999e-06 0.260412
7151 1 78.1617 12.824 -213.16 0 4.21655 2 0 4.53999e-06 -0.645617
6237 1 77.2782 12.653 -212.881 0 4.09639 2 0 4.53999e-06 -0.898318
9126 1 77.7121 13.4633 -212.759 0 4.12974 2 0 4.53999e-06 -0.563892
7558 1 79.6922 13.072 -214.113 0 4.42851 2 0 4.53999e-06 0.290979
1257 1 79.341 12.1882 -214.044 0 4.39381 2 0 4.53999e-06 -0.258898
2202 1 78.6134 12.3095 -213.613 0 4.2913 2 0 4.53999e-06 -0.541639
7472 1 78.9395 13.0416 -213.573 0 4.3295 2 0 4.53999e-06 -0.0804518
904 1 79.6475 12.6482 -213.41 0 4.54013 2 0 4.53999e-06 0.923498
6242 1 78.5415 13.6978 -213.085 0 4.23644 2 0 4.53999e-06 -0.0395513
3422 1 78.6118 12.1665 -212.805 0 4.24929 2 0 4.53999e-06 0.133729
3966 1 79.3238 12.4597 -212.742 0 4.47731 2 0 4.53999e-06 0.784632
4416 1 78.7735 12.9288 -212.806 0 4.39045 2 0 4.53999e-06 0.569944
9120 1 79.4656 13.3936 -212.917 0 4.5457 2 0 4.53999e-06 0.6417
4232 1 80.1546 12.2925 -213.994 0 4.64421 2 0 4.53999e-06 0.8323
3640 1 75.595 10.85 -211.136 0 3.67605 3 0 4.53999e-06 -0.46571
1684 1 78.2121 11.8587 -212.12 0 4.14555 2 0 4.53999e-06 0.0425263
2655 1 77.2604 12.0771 -212.026 0 4.0435 2 0 4.53999e-06 -0.723677
7150 1 74.8258 13.2686 -212.08 0 3.57917 3 0 4.53999e-06 -0.960306
2208 1 77.9748 12.566 -212.419 0 4.15722 2 0 4.53999e-06 -0.786388
7475 1 77.38 13.043 -212.025 0 4.06538 2 0 4.53999e-06 -0.843395
956 1 78.0371 12.6113 -211.544 0 4.09358 2 0 4.53999e-06 0.106483
8943 1 77.9685 13.6244 -211.537 0 4.04653 2 0 4.53999e-06 0.0342191
9172 1 77.1515 12.7639 -211.1 0 3.9489 2 0 4.53999e-06 -0.573115
7657 1 78.3386 13.1935 -212.266 0 4.18266 2 0 4.53999e-06 0.186494
4631 1 78.8305 12.5538 -212.011 0 4.38725 2 0 4.53999e-06 0.596428
8898 1 75.9357 12.1968 -209.54 0 4.06565 2 0 4.53999e-06 0.375772
6968 1 74.4708 11.4945 -208.024 0 4.16556 2 0 4.53999e-06 -0.302025
7553 1 76.0077 11.4257 -208.102 0 4.58894 2 0 4.53999e-06 0.816433
8544 1 75.137 11.6848 -208.603 0 4.22572 2 0 4.53999e-06 0.0537903
8595 1 74.6297 12.3971 -208.001 0 4.1801 2 0 4.53999e-06 -0.0910588
8686 1 73.7277 12.161 -207.911 0 4.09847 2 0 4.53999e-06 -0.737833
4590 1 75.6136 12.341 -208.152 0 4.49064 2 0 4.53999e-06 0.608846
6509 1 73.8883 11.5276 -207.325 0 4.11157 2 0 4.53999e-06 -0.76849
6305 1 74.4275 11.9394 -207.449 0 4.15656 2 0 4.53999e-06 -0.501463
2205 1 74.5686 11.3976 -207.115 0 4.15458 2 0 4.53999e-06 -0.0256795
2597 1 74.0047 11.3272 -206.53 0 4.09466 2 0 4.53999e-06 -0.541973
1683 1 74.8959 11.2638 -206.427 0 4.13815 2 0 4.53999e-06 0.415563
953 1 74.3921 11.883 -206.52 0 4.1218 2 0 4.53999e-06 -0.195403
7658 1 73.7115 12.0868 -206.849 0 4.08702 2 0 4.53999e-06 -0.991978
1929 1 75.176 11.2967 -207.604 0 4.22835 2 0 4.53999e-06 0.443294
9227 1 75.1475 11.998 -207.654 0 4.349 2 0 4.53999e-06 0.772693
4633 1 75.1403 11.7595 -206.951 0 4.31134 2 0 4.53999e-06 0.905157
1056 1 75.9167 12.0263 -207.213 0 4.51117 2 0 4.53999e-06 0.953359
3281 1 74.1731 12.4935 -207.225 0 4.11998 2 0 4.53999e-06 -0.400892
4121 1 74.8559 12.3596 -207.058 0 4.1745 1 0 4.53999e-06 0.489427
3643 1 74.3188 12.5733 -206.496 0 4.09943 2 0 4.53999e-06 -0.0625907
6512 1 73.4089 12.9569 -206.436 0 3.99666 2 0 4.53999e-06 -0.683022
3922 1 75.01 12.1452 -206.296 0 4.28318 2 0 4.53999e-06 0.696294
1258 1 74.4946 11.6 -205.695 0 4.07537 2 0 4.53999e-06 0.0768747
1197 1 73.78 12.0779 -206.019 0 4.05825 2 0 4.53999e-06 -0.70375
1565 1 74.4786 12.5727 -205.611 0 4.04766 2 0 4.53999e-06 0.140813
6455 1 69.5073 11.5033 -204.145 0 2.93325 3 0 4.53999e-06 -0.351858
6591 1 72.6434 11.2578 -204.17 0 3.68193 3 0 4.53999e-06 -0.938729
9170 1 71.1121 13.6229 -203.632 0 3.45526 3 0 4.53999e-06 0.0743992
3523 1 73.5572 13.1003 -202.928 0 3.81801 3 0 4.53999e-06 0.545717
3874 1 71.9579 10.055 -202.347 0 6.06787 3 0 4.53999e-06 -0.131199
2652 1 69.376 11.9729 -201.229 0 4.82389 2 0 4.53999e-06 0.178544
4593 1 70.2359 11.3397 -201.097 0 5.19416 2 0 4.53999e-06 0.658548
6694 1 68.947 12.7811 -201.212 0 4.74918 2 0 4.53999e-06 -0.0783715
8543 1 70.1828 12.2645 -201.77 0 5.17196 2 0 4.53999e-06 0.536596
1256 1 67.8767 11.5678 -199.808 0 4.6235 2 0 4.53999e-06 -0.622051
2449 1 68.7124 11.3888 -200.698 0 4.72405 2 0 4.53999e-06 -0.197447
4124 1 69.5223 11.7351 -200.46 0 4.9618 2 0 4.53999e-06 0.702301
4225 1 68.9902 11.6143 -199.863 0 4.73696 2 0 4.53999e-06 0.305593
1261 1 68.4584 11.9734 -200.157 0 4.70301 2 0 4.53999e-06 -0.574084
8838 1 72.3579 12.0395 -200.736 0 5.9097 3 0 4.53999e-06 0.965174
2199 1 68.1761 12.1641 -200.805 0 4.68356 2 0 4.53999e-06 -0.672361
7149 1 67.8405 13.3502 -199.82 0 4.58502 2 0 4.53999e-06 -0.450777
6302 1 68.0101 12.438 -199.936 0 4.65042 2 0 4.53999e-06 -0.959387
1260 1 67.3555 12.4981 -199.496 0 4.56538 2 0 4.53999e-06 -0.997475
2152 1 68.9498 12.1762 -200.653 0 4.76534 2 0 4.53999e-06 0.0840236
6974 1 68.4655 12.7971 -200.419 0 4.70086 2 0 4.53999e-06 -0.346294
7656 1 69.2671 12.767 -200.391 0 4.91285 2 0 4.53999e-06 0.545809
9226 1 68.9406 12.3524 -199.85 0 4.84159 2 0 4.53999e-06 0.752164
8897 1 69.6018 12.2565 -199.879 0 4.94958 2 0 4.53999e-06 0.90377
6906 1 68.7006 12.9207 -199.724 0 4.69804 2 0 4.53999e-06 0.208461
8946 1 70.0127 12.4503 -200.768 0 5.07423 2 0 4.53999e-06 0.908846
4418 1 67.8294 11.9622 -198.939 0 4.57931 2 0 4.53999e-06 -0.504284
4424 1 68.538 12.0458 -199.374 0 4.67646 2 0 4.53999e-06 0.0574853
8497 1 68.2272 12.6847 -199.237 0 4.63214 2 0 4.53999e-06 -0.251798
6606 1 67.6002 13.0301 -198.672 0 4.51317 2 0 4.53999e-06 -0.51372
8317 1 69.2495 12.5646 -199.007 0 4.91598 2 0 4.53999e-06 0.654512
8270 1 68.4955 12.4337 -198.358 0 4.58068 2 0 4.53999e-06 0.176213
6452 1 66.6428 10.0979 -186.831 0 2.8957 3 0 4.53999e-06 -0
6508 1 60.1607 10.6377 -186.527 0 3.52924 3 0 4.53999e-06 0.0589648
8444 1 58.8276 12.6691 -184.524 0 4.38815 2 0 4.53999e-06 -0.526055
2600 1 59.4335 13.37 -184.787 0 4.4416 2 0 4.53999e-06 -0.0461116
2456 1 59.9941 12.6586 -184.559 0 4.58578 2 0 4.53999e-06 0.508291
4324 1 59.3298 14.2033 -184.506 0 4.45555 2 0 4.53999e-06 -0.268998
8500 1 58.4258 12.7941 -183.561 0 4.37418 2 0 4.53999e-06 -0.791505
9128 1 59.3975 12.42 -183.758 0 4.41311 2 0 4.53999e-06 0.0337639
8263 1 59.378 13.4058 -184.11 0 4.46055 2 0 4.53999e-06 -0.32988
1691 1 58.6616 13.5801 -184.117 0 4.42023 2 0 4.53999e-06 -0.937065
8314 1 59.1955 13.2791 -183.527 0 4.44968 2 0 4.53999e-06 -0.519876
6241 1 59.9001 13.2 -183.84 0 4.59589 2 0 4.53999e-06 0.604124
3220 1 59.7544 13.4797 -183.169 0 4.48777 2 0 4.53999e-06 0.208741
3217 1 58.8424 13.8595 -183.231 0 4.43963 2 0 4.53999e-06 -0.860836
2458 1 60.0396 13.8086 -184.319 0 4.62045 2 0 4.53999e-06 0.618437
6185 1 60.5089 13.6024 -183.531 0 4.67639 2 0 4.53999e-06 0.922137
3970 1 59.2468 14.0308 -183.842 0 4.46573 2 0 4.53999e-06 -0.788012
3967 1 59.1922 14.694 -183.374 0 4.46395 2 0 4.53999e-06 -0.658949
8738 1 59.9199 13.9671 -183.72 0 4.50606 1 0 4.53999e-06 0.923676
8316 1 59.5683 14.0531 -183.292 0 4.48786 2 0 4.53999e-06 -0.318719
4415 1 59.7929 14.6389 -183.946 0 4.49337 2 0 4.53999e-06 0.115245
8990 1 59.9531 14.6002 -183.177 0 4.5166 2 0 4.53999e-06 0.351038
9427 1 60.5728 14.4608 -183.645 0 4.70302 2 0 4.53999e-06 0.900963
2212 1 60.0003 15.5885 -183.429 0 4.49318 2 0 4.53999e-06 0.0943871
7660 1 60.3203 14.0254 -182.797 0 4.67044 2 0 4.53999e-06 0.622293
3207 1 59.4326 14.1613 -182.567 0 4.46959 2 0 4.53999e-06 -0.306046
4116 1 59.6418 15.1334 -182.486 0 4.47925 2 0 4.53999e-06 -0.222962
8442 1 60.7136 15.0083 -182.721 0 4.84935 2 0 4.53999e-06 0.745109
3692 1 58.5417 14.687 -180.066 0 3.34007 3 0 4.53999e-06 -0.378111
4014 1 54.0462 15.1709 -174.621 0 4.52722 2 0 4.53999e-06 -0.246916
3740 1 54.5633 15.4781 -175.318 0 4.59673 2 0 4.53999e-06 0.048336
2102 1 53.2398 15.5881 -174.277 0 4.48219 2 0 4.53999e-06 -0.903619
1974 1 53.9465 15.3137 -173.619 0 4.48941 2 0 4.53999e-06 -0.202948
3920 1 54.7818 15.493 -174.165 0 4.59166 2 0 4.53999e-06 0.503889
4321 1 50.1516 15.2809 -171.53 0 3.56508 3 0 4.53999e-06 -0.352998
3423 1 55.2182 14.6219 -171.377 0 3.94069 3 0 4.53999e-06 0.305632
4673 1 51.0388 14.2945 -169.395 0 3.61054 3 0 4.53999e-06 0.336211
1925 1 49.8777 15.2732 -166.699 0 4.32043 2 0 4.53999e-06 -0.770516
1687 1 50.2625 14.595 -166.177 0 4.36924 2 0 4.53999e-06 -0.692645
3642 1 50.846 14.6893 -167.026 0 4.36043 2 0 4.53999e-06 0.130545
3738 1 51.0249 14.2939 -166.173 0 4.40785 2 0 4.53999e-06 0.334898
9425 1 50.8157 15.6125 -166.688 0 4.38502 2 0 4.53999e-06 0.159943
3969 1 49.4994 13.6033 -164.535 0 4.25383 2 0 4.53999e-06 -0.920134
3371 1 50.2777 13.3087 -164.994 0 4.32131 2 0 4.53999e-06 -0.352011
8740 1 51.2085 13.3035 -164.701 0 4.43005 2 0 4.53999e-06 0.525069
4634 1 51.2916 15.0398 -166.098 0 4.57678 2 0 4.53999e-06 0.755128
3278 1 50.3736 13.9589 -165.6 0 4.36589 1 0 4.53999e-06 -0.507319
2555 1 50.1654 14.2358 -164.96 0 4.34744 1 0 4.53999e-06 -0.996379
3793 1 50.2422 14.7714 -165.376 0 4.36982 1 0 4.53999e-06 -0.945661
6687 1 50.3873 14.9331 -164.576 0 4.35134 2 0 4.53999e-06 -0.346584
3923 1 51.1235 13.8739 -165.365 0 4.52116 2 0 4.53999e-06 0.562741
3737 1 50.8847 14.486 -165.612 0 4.40564 1 0 4.53999e-06 0.44998
909 1 50.6211 15.1253 -165.873 0 4.39688 2 0 4.53999e-06 -0.376097
8899 1 51.0546 15.1591 -165.238 0 4.4173 1 0 4.53999e-06 0.478153
3921 1 50.7123 13.9771 -164.813 0 4.37437 1 0 4.53999e-06 0.107169
3517 1 50.9053 14.5916 -164.951 0 4.39659 1 0 4.53999e-06 0.517101
8101 1 51.6053 14.6103 -165.454 0 4.59174 2 0 4.53999e-06 0.998926
8837 1 51.5139 14.1982 -164.699 0 4.56122 2 0 4.53999e-06 0.937993
6689 1 50.313 15.5765 -165.261 0 4.36725 2 0 4.53999e-06 -0.467018
2994 1 52.3045 15.4357 -165.97 0 4.98736 2 0 4.53999e-06 0.93042
3218 1 49.6994 13.2112 -163.534 0 4.19923 2 0 4.53999e-06 -0.422832
9326 1 50.5088 13.426 -164.127 0 4.32273 2 0 4.53999e-06 -0.0200787
8056 1 51.4065 13.6952 -163.833 0 4.62617 2 0 4.53999e-06 0.680425
6244 1 49.2276 14.2426 -163.571 0 4.17243 2 0 4.53999e-06 -0.788296
8743 1 50.0956 14.1445 -164.224 0 4.30779 2 0 4.53999e-06 -0.722012
5809 1 50.4262 14.037 -163.372 0 4.27593 2 0 4.53999e-06 0.0463833
9426 1 50.862 14.3087 -164.205 0 4.36822 2 0 4.53999e-06 0.34044
4233 1 49.0923 14.6191 -161.311 0 4.92434 3 0 4.53999e-06 -0.0461708
8597 1 49.7691 12.6904 -159.717 0 3.58965 3 0 4.53999e-06 -0.175278
4131 1 46.6221 14.6158 -161.041 0 3.55901 3 0 4.53999e-06 -0.991385
8839 1 51.4374 14.7676 -161.122 0 6.98573 3 0 4.53999e-06 0.733363
8265 1 47.383 12.6173 -157.962 0 3.54762 3 0 4.53999e-06 -0.548883
4589 1 48.4809 14.9605 -159.268 0 4.08114 3 0 4.53999e-06 -0.236908
7375 1 52.7379 14.1917 -159.215 0 6.87622 3 0 4.53999e-06 0.60092
3871 1 49.1068 15.4913 -156.909 0 4.04522 3 0 4.53999e-06 -0.396543
8900 1 50.4983 13.8939 -157.765 0 4.92733 3 0 4.53999e-06 0.825695
8322 1 49.2399 13.5177 -155.928 0 4.07784 3 0 4.53999e-06 0.107879
3691 1 46.9777 14.4602 -155.736 0 3.95326 3 0 4.53999e-06 -0.822346
3209 1 48.5951 13.4626 -153.874 0 4.09406 2 0 4.53999e-06 -0.393759
9424 1 49.1671 13.6294 -153.093 0 4.15898 2 0 4.53999e-06 -0.0461244
4592 1 48.4928 14.4684 -153.69 0 4.14234 2 0 4.53999e-06 -0.733681
8645 1 49.5644 14.2447 -153.77 0 4.24354 2 0 4.53999e-06 0.305652
1568 1 49.1658 15.2242 -153.457 0 4.22411 2 0 4.53999e-06 -0.18457
8545 1 49.6259 14.7083 -152.845 0 4.25283 2 0 4.53999e-06 0.249154
5815 1 50.4201 14.854 -153.479 0 4.72806 2 0 4.53999e-06 0.64817
8058 1 49.2897 13.0935 -152.178 0 4.10728 2 0 4.53999e-06 -0.0289857
3690 1 48.3559 13.5536 -152.493 0 4.07465 2 0 4.53999e-06 -0.86039
3924 1 48.7336 13.7345 -151.635 0 4.04007 1 0 4.53999e-06 -0.789442
4517 1 49.3867 13.4702 -151.183 0 4.03999 1 0 4.53999e-06 0.0151252
8216 1 50.0434 13.6164 -151.889 0 4.30536 2 0 4.53999e-06 0.628191
8445 1 48.7306 14.442 -152.713 0 4.13926 2 0 4.53999e-06 -0.846018
9179 1 49.3046 14.0096 -152.244 0 4.14509 1 0 4.53999e-06 -0.315296
3335 1 48.4001 14.5836 -151.516 0 4.00966 2 0 4.53999e-06 -0.835706
1012 1 49.2219 14.8972 -152.035 0 4.12798 2 0 4.53999e-06 -0.238849
1927 1 49.3002 14.2671 -151.546 0 4.08485 1 0 4.53999e-06 -0.434856
1309 1 49.8318 14.9941 -151.35 0 4.11623 2 0 4.53999e-06 0.360328
9173 1 49.9767 13.9526 -152.713 0 4.41376 2 0 4.53999e-06 0.647527
6181 1 51.0177 14.2228 -152.782 0 4.76733 2 0 4.53999e-06 0.936149
1146 1 50.2184 14.6014 -152.112 0 4.4049 2 0 4.53999e-06 0.752879
2550 1 49.9553 14.1782 -151.274 0 4.12141 1 0 4.53999e-06 0.993412
7473 1 50.9027 14.1649 -151.549 0 4.48245 2 0 4.53999e-06 0.998093
8996 1 48.0056 12.9076 -149.855 0 3.81275 2 0 4.53999e-06 -0.335213
3235 1 47.7062 13.6182 -149.588 0 3.80812 1 0 4.53999e-06 -0.777089
3639 1 48.4332 13.6668 -150.292 0 3.88497 1 0 4.53999e-06 -0.508479
8745 1 49.2762 13.3636 -150.313 0 3.94549 1 0 4.53999e-06 0.307589
8441 1 48.6641 13.3853 -149.739 0 3.85432 1 0 4.53999e-06 0.238446
8845 1 50.2411 13.4752 -150.943 0 4.27619 2 0 4.53999e-06 0.714494
8746 1 50.2546 13.6989 -150.017 0 4.22065 2 0 4.53999e-06 0.848313
3277 1 47.9442 14.2736 -150.432 0 3.86315 1 0 4.53999e-06 -0.802662
4334 1 47.4915 14.4681 -149.677 0 3.80747 1 0 4.53999e-06 -0.772643
3971 1 48.8052 14.0156 -150.847 0 3.96746 1 0 4.53999e-06 -0.765415
4677 1 49.2041 14.6179 -150.873 0 4.00251 1 0 4.53999e-06 -0.0146708
905 1 48.2795 14.0627 -149.546 0 3.83812 1 0 4.53999e-06 -0.742334
4016 1 48.3953 15.0653 -150.623 0 3.90316 2 0 4.53999e-06 -0.431112
3516 1 49.6625 14.0311 -150.51 0 4.01416 1 0 4.53999e-06 0.942619
3515 1 48.8016 14.2169 -150.073 0 3.90167 1 0 4.53999e-06 0.0734929
9325 1 49.4946 14.1429 -149.706 0 3.92839 1 0 4.53999e-06 0.820826
1698 1 49.2072 14.7833 -150.132 0 3.94593 1 0 4.53999e-06 0.383967
8503 1 48.2857 14.8719 -149.687 0 3.86209 1 0 4.53999e-06 -0.266645
6587 1 50.2004 14.6601 -150.53 0 4.2435 2 0 4.53999e-06 0.761004
7104 1 45.7467 12.6115 -148.053 0 3.65445 2 0 4.53999e-06 -0.985358
1449 1 46.4974 13.4377 -148.465 0 3.72249 2 0 4.53999e-06 -0.988743
3693 1 48.0346 13.1168 -149.032 0 3.80726 1 0 4.53999e-06 -0.0967094
8991 1 47.7265 12.3917 -149.009 0 3.79561 2 0 4.53999e-06 -0.190864
3624 1 47.1053 13.8654 -149.111 0 3.76782 1 0 4.53999e-06 -0.937822
911 1 47.0673 12.2585 -148.338 0 3.77195 2 0 4.53999e-06 -0.54333
1203 1 47.2269 13.0831 -148.793 0 3.77055 1 0 4.53999e-06 -0.816797
8843 1 47.7767 13.048 -148.073 0 3.79596 2 0 4.53999e-06 0.257481
8950 1 47.7856 13.7298 -148.634 0 3.78774 1 0 4.53999e-06 -0.175821
8646 1 48.7374 12.7193 -149.244 0 3.84099 2 0 4.53999e-06 0.50557
8266 1 49.3769 13.424 -149.405 0 3.87824 1 0 4.53999e-06 0.772194
6034 1 48.6235 13.7511 -149.212 0 3.8404 1 0 4.53999e-06 0.670184
8951 1 48.3151 12.3604 -148.316 0 4.03976 2 0 4.53999e-06 0.633031
8835 1 48.6219 13.3098 -148.553 0 3.81441 1 0 4.53999e-06 0.623655
4068 1 45.9706 13.8842 -149.235 0 3.67472 2 0 4.53999e-06 -0.884825
4632 1 46.763 14.5095 -148.625 0 3.73826 2 0 4.53999e-06 -0.696788
7748 1 47.7334 14.5066 -148.868 0 3.79723 1 0 4.53999e-06 -0.358881
6817 1 47.2299 13.8826 -148.023 0 3.74964 2 0 4.53999e-06 -0.225654
6514 1 47.414 15.2954 -149.087 0 3.79062 2 0 4.53999e-06 -0.45416
8552 1 48.9179 14.5316 -149.254 0 3.87033 1 0 4.53999e-06 0.566214
6463 1 49.145 15.4443 -149.451 0 4.06887 2 0 4.53999e-06 0.404898
5813 1 48.4355 14.1818 -148.629 0 3.81147 1 0 4.53999e-06 0.364766
6183 1 48.4132 15.1386 -148.684 0 3.85414 2 0 4.53999e-06 0.169589
8995 1 46.473 9.13511 -146.196 0 3.60757 2 0 4.53999e-06 -0.0567026
3698 1 45.879 9.73226 -146.175 0 3.59153 2 0 4.53999e-06 -0.730066
3222 1 46.8065 9.89452 -146.534 0 3.6651 1 0 4.53999e-06 -0.0377057
4594 1 46.5855 11.9769 -147.453 0 3.73414 2 0 4.53999e-06 -0.974829
3925 1 46.3165 10.4456 -146.308 0 3.64356 2 0 4.53999e-06 -0.702652
3282 1 47.2522 11.2518 -147.762 0 3.78044 2 0 4.53999e-06 -0.0920894
3279 1 48.0319 11.2322 -147.106 0 4.08845 2 0 4.53999e-06 0.846944
4126 1 46.8384 10.7431 -146.929 0 3.71742 2 0 4.53999e-06 -0.470081
2993 1 47.6194 10.3902 -146.861 0 3.78992 2 0 4.53999e-06 0.493966
8538 1 47.4941 10.9054 -146.223 0 3.92811 2 0 4.53999e-06 0.61221
8006 1 47.2504 11.5292 -146.813 0 3.8045 2 0 4.53999e-06 -0.144734
2996 1 48.5254 10.594 -146.467 0 4.16852 2 0 4.53999e-06 0.981201