ITEM: TIMESTEP
43500
ITEM: NUMBER OF ATOMS
9495
ITEM: BOX BOUNDS mm mm mm
0.0000000000000000e+00 7.2432556509144959e+01
-2.8509644233634197e+00 3.4675138455948534e+01
-1.2461866714039407e+02 3.1748021039364001e+01
ITEM: ATOMS id type x y z c_phase c_temp c_surf c_nbond c_visc f_3[1]
2149 1 61.9438 12.1537 -124.313 0 3.51615 2 0 4.53999e-06 -0.565444
1924 1 62.7381 11.5291 -123.852 0 3.5642 2 0 4.53999e-06 -0.414167
1561 1 63.7664 11.6857 -124.043 0 3.62892 2 0 4.53999e-06 0.1841
1560 1 62.997 12.1925 -124.652 0 3.57026 2 0 4.53999e-06 -0.022642
2150 1 63.6546 11.1334 -123.06 0 3.61545 2 0 4.53999e-06 -0.099982
1921 1 64.4897 11.8684 -123.231 0 3.70994 2 0 4.53999e-06 0.284465
3628 1 64.5863 12.3606 -124.018 0 3.76363 2 0 4.53999e-06 0.347644
1201 1 65.4197 12.3929 -123.276 0 3.87665 2 0 4.53999e-06 0.470408
2454 1 61.4547 12.8896 -123.572 0 3.49985 2 0 4.53999e-06 -0.833599
2453 1 60.996 12.9357 -124.581 0 3.46101 2 0 4.53999e-06 -0.866505
1920 1 62.0371 13.1206 -124.53 0 3.5177 2 0 4.53999e-06 -0.374001
1865 1 62.0411 13.7018 -123.708 0 3.53073 2 0 4.53999e-06 -0.875004
2100 1 61.3175 14.0824 -124.485 0 3.46942 2 0 4.53999e-06 -0.653667
2101 1 62.4362 12.5629 -123.583 0 3.5583 2 0 4.53999e-06 -0.743338
1143 1 62.9763 13.1176 -124.25 0 3.58693 2 0 4.53999e-06 -0.138009
1469 1 62.9846 13.2329 -123.295 0 3.6002 1 0 4.53999e-06 -0.93026
900 1 63.6153 12.4998 -123.492 0 3.64679 1 0 4.53999e-06 -0.254453
1142 1 63.0868 13.9954 -123.714 0 3.60214 2 0 4.53999e-06 -0.234232
4521 1 63.6236 13.8485 -124.734 0 3.64213 2 0 4.53999e-06 0.0762807
1196 1 63.8661 12.8421 -124.41 0 3.67 2 0 4.53999e-06 0.154291
8451 1 63.8262 13.4248 -123.572 0 3.67991 1 0 4.53999e-06 0.0511183
1464 1 62.5485 14.0138 -124.51 0 3.54772 2 0 4.53999e-06 -0.162572
4544 1 64.6573 13.5092 -124.448 0 3.81152 2 0 4.53999e-06 0.354534
4545 1 64.5732 13.0432 -123.475 0 3.78036 1 0 4.53999e-06 0.55555
4522 1 65.4751 12.8624 -124.21 0 4.21627 2 0 4.53999e-06 0.539369
4130 1 65.6087 13.4227 -123.395 0 4.13379 2 0 4.53999e-06 0.700692
4113 1 66.387 12.6737 -123.413 0 4.26961 2 0 4.53999e-06 0.629129
2099 1 58.4315 14.9967 -124.749 0 2.96278 3 0 4.53999e-06 -0
6299 1 62.2937 14.6386 -123.276 0 3.53627 2 0 4.53999e-06 -0.471383
6028 1 63.4545 14.7193 -123.226 0 3.62429 2 0 4.53999e-06 -0.0752869
9332 1 64.1184 14.3346 -123.929 0 3.72219 2 0 4.53999e-06 0.144316
4109 1 65.1428 14.1863 -123.813 0 4.13147 2 0 4.53999e-06 0.54095
2503 1 62.9426 11.9756 -122.963 0 3.59623 2 0 4.53999e-06 -0.575527
2105 1 63.8493 12.1244 -122.592 0 3.66374 2 0 4.53999e-06 -0.321296
1562 1 64.8296 11.4702 -122.374 0 3.71565 2 0 4.53999e-06 -0.0385216
2551 1 64.5021 12.3131 -121.891 0 3.71364 2 0 4.53999e-06 -0.33532
2104 1 65.4322 12.3804 -121.543 0 3.76362 2 0 4.53999e-06 -0.462189
3630 1 66.7863 11.4621 -122.346 0 3.82472 2 0 4.53999e-06 0.0759383
2153 1 65.747 11.9053 -122.433 0 3.81126 2 0 4.53999e-06 0.0398645
1928 1 66.6629 12.1202 -121.56 0 3.80334 2 0 4.53999e-06 -0.620565
2151 1 65.8007 11.3757 -121.498 0 3.74232 2 0 4.53999e-06 -0.449183
8992 1 67.6072 12.3016 -122.576 0 3.94219 2 0 4.53999e-06 0.454457
3522 1 67.5794 11.6625 -121.665 0 3.80683 2 0 4.53999e-06 0.110164
4125 1 68.4863 11.9992 -121.597 0 3.84568 2 0 4.53999e-06 0.464432
1870 1 62.3035 13.639 -122.778 0 3.55258 2 0 4.53999e-06 -0.843578
2460 1 63.0895 12.8761 -122.513 0 3.61132 2 0 4.53999e-06 -0.549648
6588 1 62.6216 13.5065 -121.816 0 3.5612 2 0 4.53999e-06 -0.468928
6032 1 63.6789 13.4846 -121.948 0 3.64485 2 0 4.53999e-06 -0.258411
906 1 63.6072 13.9184 -122.805 0 3.6518 1 0 4.53999e-06 -0.158592
3632 1 63.9736 13.0377 -122.662 0 3.68489 1 0 4.53999e-06 -0.317106
1149 1 64.8042 12.7211 -122.74 0 3.77259 1 0 4.53999e-06 0.383238
2457 1 64.7392 13.2253 -122.043 0 3.7431 1 0 4.53999e-06 -0.0628583
9330 1 64.6472 13.7985 -123.077 0 3.78819 1 0 4.53999e-06 0.448379
7563 1 65.5116 13.5328 -121.645 0 3.78915 2 0 4.53999e-06 0.0987228
9333 1 65.6934 13.0188 -122.498 0 3.87608 1 0 4.53999e-06 0.795439
9222 1 65.4833 14.0616 -122.574 0 3.86808 2 0 4.53999e-06 0.46067
8452 1 64.4193 14.0586 -122.253 0 3.72188 2 0 4.53999e-06 0.0685162
4114 1 66.4711 13.5388 -122.75 0 4.21581 2 0 4.53999e-06 0.594523
903 1 66.5588 12.4639 -122.452 0 3.896 2 0 4.53999e-06 0.41825
9329 1 67.1144 13.1801 -122.042 0 3.8942 2 0 4.53999e-06 0.319966
3629 1 66.2265 12.9069 -121.721 0 3.83066 2 0 4.53999e-06 -0.066257
9428 1 68.5948 13.0022 -122.143 0 4.32799 2 0 4.53999e-06 0.591062
3631 1 67.5728 12.5275 -121.609 0 3.8429 2 0 4.53999e-06 0.345999
7200 1 61.4066 14.3314 -122.242 0 3.45847 2 0 4.53999e-06 -0.834319
1465 1 62.8785 14.3838 -122.36 0 3.57464 2 0 4.53999e-06 -0.213694
9219 1 64.5353 14.7972 -123.02 0 3.75556 2 0 4.53999e-06 0.237632
1008 1 68.2119 10.4652 -120.349 0 3.69756 2 0 4.53999e-06 -0.424522
952 1 66.8335 11.1161 -121.219 0 3.7512 2 0 4.53999e-06 -0.262589
2547 1 66.3133 11.8277 -120.484 0 3.72144 2 0 4.53999e-06 -0.412411
1866 1 67.3725 12.1195 -120.898 0 3.7808 2 0 4.53999e-06 -0.620179
4587 1 68.587 11.0261 -121.31 0 3.76429 2 0 4.53999e-06 0.147897
1922 1 67.8323 11.3443 -120.802 0 3.75673 2 0 4.53999e-06 -0.50411
1148 1 68.6434 11.6764 -120.69 0 3.77474 1 0 4.53999e-06 -0.179801
7205 1 67.9982 12.0274 -120.2 0 3.75258 2 0 4.53999e-06 -0.701847
6608 1 68.7682 12.4252 -120.154 0 3.7688 1 0 4.53999e-06 -0.262582
3519 1 69.1299 10.9879 -120.305 0 3.76347 2 0 4.53999e-06 -0.0391621
4548 1 69.4622 11.5939 -120.998 0 3.81343 2 0 4.53999e-06 0.433856
4520 1 70.073 11.3171 -120.252 0 3.86074 1 0 4.53999e-06 0.37528
9218 1 70.2156 12.2764 -120.824 0 4.11237 2 0 4.53999e-06 0.526797
1869 1 69.4242 11.9025 -120.19 0 3.80179 1 0 4.53999e-06 0.111345
9220 1 70.2668 12.0571 -119.915 0 3.87343 1 0 4.53999e-06 0.561551
3870 1 70.9772 10.989 -120.274 0 4.25926 2 0 4.53999e-06 0.513546
8739 1 71.2719 12.0038 -120.071 0 4.26043 2 0 4.53999e-06 0.718798
6967 1 64.3551 13.4511 -120.935 0 3.65044 2 0 4.53999e-06 -0.255244
6973 1 65.8921 12.9154 -120.714 0 3.74333 2 0 4.53999e-06 -0.301635
7556 1 66.9475 12.9594 -121.015 0 3.79537 2 0 4.53999e-06 -0.24995
1466 1 68.2127 12.5181 -120.945 0 3.80433 2 0 4.53999e-06 0.201537
8449 1 67.9535 13.4677 -121.303 0 3.85111 2 0 4.53999e-06 0.229736
6298 1 67.7681 13.0276 -120.246 0 3.75259 2 0 4.53999e-06 -0.278643
9334 1 69.1771 12.5165 -120.982 0 3.82678 2 0 4.53999e-06 0.40975
7557 1 69.6723 12.8217 -120.021 0 3.80155 2 0 4.53999e-06 0.0892891
1195 1 68.9153 10.4723 -119.388 0 3.70887 2 0 4.53999e-06 -0.439391
4325 1 70.0207 10.5693 -119.648 0 3.82086 2 0 4.53999e-06 0.060943
4417 1 70.6151 10.6058 -118.76 0 3.88778 2 0 4.53999e-06 -0.0184996
1199 1 68.5621 11.4492 -119.699 0 3.7401 2 0 4.53999e-06 -0.728002
7203 1 69.2164 12.1027 -119.436 0 3.76924 1 0 4.53999e-06 -0.690128
954 1 69.5248 11.3611 -119.579 0 3.79327 1 0 4.53999e-06 -0.54196
8448 1 70.4114 11.3587 -119.371 0 3.88573 1 0 4.53999e-06 0.463867
7204 1 70.015 11.901 -119.194 0 3.82646 1 0 4.53999e-06 -0.335936
1976 1 69.6763 11.0156 -118.806 0 3.79025 2 0 4.53999e-06 -0.514449
7202 1 69.3801 11.8992 -118.504 0 3.75703 2 0 4.53999e-06 -0.747332
2553 1 70.3167 11.5127 -118.517 0 3.85046 1 0 4.53999e-06 -0.450655
6030 1 70.4889 12.396 -118.479 0 3.8384 2 0 4.53999e-06 0.162897
7555 1 70.9523 11.9818 -119.133 0 3.94527 1 0 4.53999e-06 0.76047
4519 1 71.2428 11.1563 -119.337 0 4.1805 2 0 4.53999e-06 0.705985
3213 1 72.1032 11.7187 -119.133 0 4.41993 2 0 4.53999e-06 0.930531
4227 1 71.914 10.7501 -118.704 0 4.33342 2 0 4.53999e-06 0.757671
4518 1 71.1009 11.3848 -118.479 0 3.95966 1 0 4.53999e-06 0.896888
9221 1 71.5663 12.2339 -118.43 0 4.20724 2 0 4.53999e-06 0.659426
6604 1 68.3379 12.5714 -119.233 0 3.70479 2 0 4.53999e-06 -0.58321
9171 1 70.55 12.7518 -119.425 0 3.84957 2 0 4.53999e-06 0.390603
6027 1 69.6985 12.6988 -118.98 0 3.7678 2 0 4.53999e-06 -0.268467
1253 1 70.4882 10.5743 -116.681 0 3.76499 2 0 4.53999e-06 -0.629866
4588 1 71.2892 10.4831 -117.962 0 3.92909 2 0 4.53999e-06 0.206436
955 1 70.5821 11.0347 -117.722 0 3.85528 2 0 4.53999e-06 -0.593208
6908 1 70.0932 11.8673 -117.781 0 3.79794 2 0 4.53999e-06 -0.610645
2656 1 70.8277 11.5454 -116.898 0 3.84935 2 0 4.53999e-06 -0.918289
6304 1 70.996 11.9212 -117.753 0 3.90275 2 0 4.53999e-06 0.133717
902 1 71.6635 11.9141 -117.055 0 3.96379 2 0 4.53999e-06 0.466569
4546 1 72.3113 11.1308 -116.889 0 4.22117 2 0 4.53999e-06 0.89422
3520 1 71.7736 11.3477 -117.844 0 4.17573 2 0 4.53999e-06 0.998216
1010 1 71.4018 10.8989 -117.036 0 3.90706 2 0 4.53999e-06 0.220961
7474 1 69.7254 12.8591 -117.9 0 3.69287 2 0 4.53999e-06 -0.332811
7373 1 70.4043 11.677 -115.928 0 3.7613 2 0 4.53999e-06 -0.973066
2598 1 71.0769 10.9802 -115.75 0 3.82762 2 0 4.53999e-06 -0.572598
6970 1 71.1858 11.6067 -115.224 0 3.82212 2 0 4.53999e-06 -0.956864
2599 1 71.7072 11.0823 -115.033 0 3.84251 2 0 4.53999e-06 0.201955
2552 1 71.4484 11.4666 -116.251 0 3.89427 2 0 4.53999e-06 -0.219789
901 1 71.9993 10.9904 -115.889 0 4.07598 2 0 4.53999e-06 0.580615
3873 1 72.451 11.5691 -115.098 0 4.04737 2 0 4.53999e-06 0.989096
4516 1 71.8256 11.6955 -115.571 0 4.0061 2 0 4.53999e-06 0.728444
8944 1 72.2555 11.9178 -116.27 0 4.14413 2 0 4.53999e-06 0.794533
8547 1 71.2417 12.1858 -115.962 0 3.84749 2 0 4.53999e-06 -0.33245
9122 1 71.7667 12.2741 -115.061 0 3.82728 2 0 4.53999e-06 0.225614
4630 1 71.6887 10.7305 -113.236 0 3.81294 2 0 4.53999e-06 0.0774129
4420 1 71.5895 10.7058 -114.3 0 3.7966 2 0 4.53999e-06 -0.0451307
6450 1 70.7689 11.7072 -113.836 0 3.75892 2 0 4.53999e-06 -0.965377
6297 1 71.1552 11.9858 -114.537 0 3.78301 2 0 4.53999e-06 -0.637491
4547 1 72.2078 11.2118 -114.342 0 3.95893 2 0 4.53999e-06 0.912004
6301 1 71.7987 11.7201 -114.504 0 3.82069 1 0 4.53999e-06 0.612683
7152 1 71.1006 11.2492 -114.464 0 3.78617 1 0 4.53999e-06 -0.86889
3425 1 71.1055 11.0912 -113.57 0 3.78396 2 0 4.53999e-06 -0.784078
7376 1 71.2193 11.6863 -113.177 0 3.79962 1 0 4.53999e-06 -0.878596
1926 1 71.6705 11.203 -113.867 0 3.80808 1 0 4.53999e-06 0.239854
8546 1 72.0592 11.7793 -113.709 0 3.81647 1 0 4.53999e-06 0.795872
6972 1 71.8207 11.42 -113.08 0 3.83146 1 0 4.53999e-06 0.882121
8989 1 72.3804 11.1138 -113.471 0 3.98229 2 0 4.53999e-06 0.91805
6245 1 71.454 12.0337 -113.807 0 3.78691 1 0 4.53999e-06 -0.175901
7662 1 71.7333 12.1034 -112.945 0 3.82134 2 0 4.53999e-06 0.253498
1255 1 71.1657 11.1651 -112.684 0 3.81658 2 0 4.53999e-06 -0.711136
9168 1 72.3812 11.7071 -112.602 0 4.0269 2 0 4.53999e-06 0.953898
6905 1 70.7622 11.4696 -111.911 0 3.82058 2 0 4.53999e-06 -0.978497
4591 1 71.9347 11.0089 -112.406 0 4.00474 2 0 4.53999e-06 0.502388
6240 1 70.9497 12.1513 -112.503 0 3.80287 2 0 4.53999e-06 -0.705782
6590 1 71.5268 11.6187 -112.255 0 3.85605 2 0 4.53999e-06 -0.0680761
1923 1 71.381 11.0199 -111.575 0 3.86673 2 0 4.53999e-06 -0.0067824
9331 1 72.0606 11.5543 -111.577 0 4.08284 2 0 4.53999e-06 0.915911
6605 1 71.2455 11.9796 -111.48 0 3.88135 2 0 4.53999e-06 -0.39426
9169 1 71.8159 12.2622 -112.06 0 3.87911 2 0 4.53999e-06 0.401432
1685 1 70.0875 11.1909 -110.108 0 3.7291 2 0 4.53999e-06 -0.572404
6907 1 70.3405 11.9887 -110.169 0 3.7794 2 0 4.53999e-06 -0.626952
6513 1 69.4887 11.9309 -109.827 0 3.6476 2 0 4.53999e-06 -0.735232
4229 1 70.8426 10.7857 -110.736 0 3.80654 2 0 4.53999e-06 -0.188279
7374 1 70.758 11.6357 -110.86 0 3.84839 2 0 4.53999e-06 -0.865276
8447 1 71.5391 11.4639 -110.763 0 4.07454 2 0 4.53999e-06 0.775907
9123 1 71.8452 12.2488 -110.882 0 4.15086 2 0 4.53999e-06 0.705964
3521 1 71.0076 11.4 -110.057 0 3.85905 2 0 4.53999e-06 0.465839
3872 1 72.1674 11.5885 -110.014 0 4.30621 2 0 4.53999e-06 0.927006
7554 1 71.3218 12.145 -110.006 0 4.06065 2 0 4.53999e-06 0.681305
7559 1 70.5683 12.6601 -109.672 0 3.7595 2 0 4.53999e-06 0.0645049
9429 1 70.9278 12.4443 -110.715 0 3.8628 2 0 4.53999e-06 -0.207159
2452 1 69.0441 11.2242 -109.159 0 3.56627 2 0 4.53999e-06 -0.667225
1566 1 69.0171 12.058 -108.85 0 3.56051 2 0 4.53999e-06 -0.785877
2201 1 68.1372 11.7344 -108.338 0 3.49886 2 0 4.53999e-06 -0.797266
4330 1 68.9889 11.3287 -108.134 0 3.53289 2 0 4.53999e-06 -0.190405
6303 1 68.9431 12.2419 -107.889 0 3.55864 2 0 4.53999e-06 0.447363
4326 1 70.5853 11.0361 -109.387 0 3.75388 2 0 4.53999e-06 0.21995
1569 1 69.8888 11.5002 -109.217 0 3.67115 2 0 4.53999e-06 -0.538303
1563 1 70.6107 11.8756 -109.409 0 3.89932 2 0 4.53999e-06 0.704764
2548 1 69.8649 12.2894 -109.136 0 3.656 2 0 4.53999e-06 -0.274101
1259 1 69.7879 10.9828 -108.561 0 3.60531 2 0 4.53999e-06 0.0175864
4331 1 70.5853 11.5014 -108.581 0 3.86106 2 0 4.53999e-06 0.52067
1198 1 69.759 11.9006 -108.324 0 3.60342 2 0 4.53999e-06 0.288661
9224 1 70.592 12.4071 -108.681 0 3.6987 2 0 4.53999e-06 0.489024
4515 1 71.4061 11.606 -109.224 0 4.0787 2 0 4.53999e-06 0.801646
6031 1 68.3876 12.6919 -108.454 0 3.50608 2 0 4.53999e-06 -0.468828
8945 1 69.4666 12.843 -108.45 0 3.55538 2 0 4.53999e-06 0.158252
1688 1 65.4275 12.4124 -106.45 0 3.35232 2 0 4.53999e-06 -0.609734
2154 1 66.4223 12.3575 -106.778 0 3.4768 2 0 4.53999e-06 -0.327181
4419 1 67.3519 12.0248 -106.871 0 3.53348 2 0 4.53999e-06 0.0125219
1567 1 67.979 12.3904 -107.596 0 3.52373 2 0 4.53999e-06 -0.775779
4228 1 68.4189 11.7168 -107.288 0 3.51581 2 0 4.53999e-06 0.164758
9223 1 67.1633 12.8237 -107.335 0 3.51486 2 0 4.53999e-06 -0.41897
6243 1 66.5006 13.3642 -106.71 0 3.47949 2 0 4.53999e-06 -0.276785
1467 1 66.0852 12.847 -106.116 0 3.44462 2 0 4.53999e-06 -0.18951
4551 1 67.1676 12.841 -106.402 0 3.71883 2 0 4.53999e-06 0.777689
8600 1 68.394 13.1365 -107.53 0 3.51579 2 0 4.53999e-06 0.413482
3876 1 67.5815 13.5622 -106.883 0 3.52115 2 0 4.53999e-06 0.257641
4549 1 68.0254 12.6625 -106.728 0 3.77124 2 0 4.53999e-06 0.731749
1681 1 63.7558 12.0787 -104.554 0 3.03959 2 0 4.53999e-06 -0.505774
1257 1 65.4459 12.4687 -105.527 0 3.34607 2 0 4.53999e-06 -0.458767
1313 1 65.4404 11.9288 -104.934 0 3.30106 2 0 4.53999e-06 0.156464
2202 1 64.7137 12.4515 -105.077 0 3.22353 2 0 4.53999e-06 -0.509762
1011 1 65.9793 11.8421 -105.957 0 3.4086 2 0 4.53999e-06 -0.0460204
4328 1 66.8562 12.1694 -105.954 0 3.71291 2 0 4.53999e-06 0.57928
4232 1 66.2374 12.4707 -105.344 0 3.5902 2 0 4.53999e-06 0.742912
6237 1 63.3801 12.9017 -104.61 0 3.01168 2 0 4.53999e-06 -0.762021
7377 1 65.1554 13.1226 -105.835 0 3.30777 2 0 4.53999e-06 -0.545064
7151 1 64.2144 12.9691 -104.614 0 3.12483 2 0 4.53999e-06 -0.550977
6242 1 64.5207 13.8097 -104.512 0 3.13902 2 0 4.53999e-06 -0.0646072
7472 1 65.0323 13.1709 -104.986 0 3.26575 2 0 4.53999e-06 -0.150247
7558 1 65.8628 13.31 -105.373 0 3.38495 2 0 4.53999e-06 0.323876
3641 1 66.7596 13.1717 -105.673 0 3.70928 2 0 4.53999e-06 0.613017
904 1 65.7305 12.8025 -104.729 0 3.48828 2 0 4.53999e-06 0.831464
1684 1 63.7802 11.9476 -103.455 0 3.0005 2 0 4.53999e-06 -0.172579
3422 1 64.575 12.193 -104.307 0 3.15953 2 0 4.53999e-06 0.0239973
3966 1 65.3542 12.3582 -104.183 0 3.42528 2 0 4.53999e-06 0.626524
4631 1 64.7803 12.4738 -103.428 0 3.29899 2 0 4.53999e-06 0.524106
7150 1 62.2173 12.9255 -103.136 0 2.99613 2 0 4.53999e-06 -0.877749
9126 1 63.6698 13.5595 -104.071 0 3.0202 2 0 4.53999e-06 -0.510003
7475 1 63.3099 12.8095 -103.73 0 2.99774 2 0 4.53999e-06 -0.990189
2655 1 63.1202 12.4765 -102.902 0 2.99482 2 0 4.53999e-06 -0.382742
9172 1 63.1376 13.4028 -103.106 0 2.98268 2 0 4.53999e-06 -0.493415
956 1 63.9752 12.8459 -103.057 0 3.01663 2 0 4.53999e-06 0.209666
8943 1 64.0021 13.753 -103.24 0 2.99299 2 0 4.53999e-06 0.118847
4416 1 64.9055 12.9575 -104.251 0 3.33199 2 0 4.53999e-06 0.689349
9120 1 65.4867 13.6093 -104.29 0 3.48655 2 0 4.53999e-06 0.553794
2208 1 64.0155 12.5649 -103.894 0 3.06917 2 0 4.53999e-06 -0.43534
7657 1 64.4164 13.2394 -103.77 0 3.10254 2 0 4.53999e-06 0.344423
6968 1 60.1589 13.098 -101.368 0 3.11942 2 0 4.53999e-06 -0.288367
8686 1 59.719 13.9595 -101.17 0 3.06373 2 0 4.53999e-06 -0.399945
1929 1 60.7026 12.4774 -101.148 0 3.17234 2 0 4.53999e-06 0.168813
8595 1 60.6459 13.7765 -101.028 0 3.13664 2 0 4.53999e-06 0.394818
8898 1 61.7451 13.4536 -102.255 0 3.12127 2 0 4.53999e-06 0.0358448
8544 1 60.8979 13.2272 -101.739 0 3.15435 2 0 4.53999e-06 0.0731325
7553 1 61.553 12.5083 -101.717 0 3.18535 2 0 4.53999e-06 0.40339
4590 1 61.5316 13.2293 -101.13 0 3.41138 2 0 4.53999e-06 0.928687
3640 1 62.5843 12.8939 -102.086 0 3.43449 2 0 4.53999e-06 0.546764
1683 1 59.9069 12.1594 -100.09 0 3.08802 2 0 4.53999e-06 -0.0389272
1258 1 59.4166 12.4188 -99.3988 0 3.02551 2 0 4.53999e-06 -0.2734
1056 1 61.4213 12.4257 -100.517 0 3.47386 2 0 4.53999e-06 0.766078
6455 1 56.1579 13.1856 -99.4532 0 2.92162 3 0 4.53999e-06 -0.453731
6509 1 59.4708 13.1493 -100.829 0 3.0753 2 0 4.53999e-06 -0.782908
2597 1 59.2286 12.6864 -100.234 0 3.05037 2 0 4.53999e-06 -0.830879
2205 1 59.9993 12.6676 -100.693 0 3.11727 2 0 4.53999e-06 -0.262849
6305 1 60.1125 13.3623 -100.682 0 3.11681 2 0 4.53999e-06 -0.049976
7658 1 59.3682 13.5993 -100.233 0 3.05433 2 0 4.53999e-06 -0.729512
3281 1 60.0754 13.8867 -100.28 0 3.08973 2 0 4.53999e-06 0.111108
4633 1 60.526 12.6391 -100.267 0 3.2744 2 0 4.53999e-06 0.635826
953 1 59.7637 12.9685 -99.9855 0 3.08479 2 0 4.53999e-06 -0.541776
3922 1 60.199 12.7759 -99.5134 0 3.22718 2 0 4.53999e-06 0.543155
1197 1 59.1534 13.2056 -99.5724 0 3.02011 2 0 4.53999e-06 -0.900971
3643 1 59.8699 13.549 -99.539 0 3.06011 2 0 4.53999e-06 0.187547
4121 1 60.4818 13.3067 -100.06 0 3.24975 2 0 4.53999e-06 0.726676
9227 1 60.8343 13.1138 -100.735 0 3.2985 2 0 4.53999e-06 0.989001
6591 1 58.6004 12.7521 -99.0737 0 2.95957 2 0 4.53999e-06 -0.904161
6512 1 58.9124 13.7203 -98.8425 0 2.95207 2 0 4.53999e-06 -0.412651
3523 1 58.8526 12.8911 -98.1204 0 2.97105 2 0 4.53999e-06 -0.0283513
9170 1 57.8516 13.2304 -97.7284 0 3.33635 2 0 4.53999e-06 0.00232821
1565 1 59.624 13.0538 -98.8172 0 2.99898 2 0 4.53999e-06 0.288989
2152 1 55.3162 13.4135 -95.8622 0 3.62701 2 0 4.53999e-06 -0.194446
2449 1 55.2563 12.5669 -95.7965 0 3.60328 2 0 4.53999e-06 -0.0887359
8543 1 56.4468 13.2047 -97.171 0 3.73021 2 0 4.53999e-06 -0.119685
8838 1 57.1667 13.7352 -96.7476 0 4.08503 2 0 4.53999e-06 0.695107
6694 1 55.7474 14.0055 -96.6 0 3.66098 2 0 4.53999e-06 -0.128606
2652 1 55.7875 13.1311 -96.4513 0 3.68798 2 0 4.53999e-06 -0.106484
4593 1 56.6671 12.8049 -96.2356 0 4.02004 2 0 4.53999e-06 0.625176
8946 1 56.4453 13.7192 -96.0522 0 3.93134 2 0 4.53999e-06 0.832594
3874 1 57.4477 12.7227 -96.8922 0 4.113 2 0 4.53999e-06 0.653762
6606 1 53.7023 13.863 -94.1212 0 3.38623 2 0 4.53999e-06 -0.84618
1260 1 53.9996 13.1726 -94.8029 0 3.46687 2 0 4.53999e-06 -0.923477
2199 1 54.4655 13.129 -95.6657 0 3.53241 2 0 4.53999e-06 -0.703704
1261 1 55.028 13.1238 -95.2731 0 3.58393 2 0 4.53999e-06 -0.264848
6974 1 54.8057 13.8848 -95.618 0 3.56046 2 0 4.53999e-06 -0.462622
9226 1 55.4041 13.6389 -95.0011 0 3.71876 2 0 4.53999e-06 0.694884
4225 1 55.6037 12.9204 -95.0047 0 3.75905 2 0 4.53999e-06 0.567626
7656 1 55.6277 14.0554 -95.6824 0 3.64221 2 0 4.53999e-06 0.283809
1256 1 54.6892 12.5783 -94.8526 0 3.52042 2 0 4.53999e-06 -0.256792
6302 1 54.5423 13.5421 -94.9917 0 3.52684 2 0 4.53999e-06 -0.974282
4424 1 55.1047 13.2415 -94.4673 0 3.5586 2 0 4.53999e-06 0.304358
8497 1 54.6565 13.8282 -94.3547 0 3.50535 2 0 4.53999e-06 -0.217647
4124 1 55.9607 13.079 -95.6784 0 3.82601 2 0 4.53999e-06 0.774202
8897 1 56.0646 13.6373 -95.1724 0 3.82757 2 0 4.53999e-06 0.891945
8317 1 55.7011 13.9338 -94.1043 0 3.84149 2 0 4.53999e-06 0.610152
7149 1 54.0763 14.2084 -95.0253 0 3.45973 2 0 4.53999e-06 -0.674662
6906 1 55.048 14.1564 -94.9331 0 3.56405 2 0 4.53999e-06 0.0512557
4418 1 54.3953 13.0586 -94.0338 0 3.45253 2 0 4.53999e-06 -0.324746
8270 1 54.6011 13.8588 -93.4292 0 3.39176 2 0 4.53999e-06 -0.0202425
6452 1 52.4591 12.1702 -90.6223 0 2.89557 3 0 4.53999e-06 -0.0674852
6508 1 50.0478 13.2831 -89.2344 0 3.51492 2 0 4.53999e-06 -0.03572
8450 1 52.635 14.487 -89.4403 0 5.31555 3 0 4.53999e-06 0.777452
2456 1 50.0264 13.0011 -87.917 0 3.56305 2 0 4.53999e-06 -0.00359362
6241 1 49.6049 13.4521 -87.3283 0 3.55383 2 0 4.53999e-06 -0.598838
9128 1 49.5222 13.8611 -88.1478 0 3.55388 2 0 4.53999e-06 -0.662567
2458 1 50.2177 13.2696 -86.9507 0 3.57908 2 0 4.53999e-06 0.494374
8263 1 50.0933 13.8783 -87.4572 0 3.59251 2 0 4.53999e-06 0.316208
8444 1 50.4401 13.7584 -88.2892 0 3.78427 2 0 4.53999e-06 0.519482
2600 1 50.7087 13.4913 -87.4995 0 3.76747 2 0 4.53999e-06 0.853109
8314 1 49.4875 14.1471 -87.254 0 3.55143 2 0 4.53999e-06 -0.751454
8500 1 50.0862 14.5954 -88.4331 0 3.57655 2 0 4.53999e-06 0.00724783
3217 1 49.8631 14.8063 -87.5249 0 3.56284 2 0 4.53999e-06 -0.170186
1691 1 50.6873 14.4082 -87.6144 0 3.78971 2 0 4.53999e-06 0.752217
6185 1 49.4086 12.9274 -86.7182 0 3.51229 2 0 4.53999e-06 -0.431975
9427 1 49.8315 13.1072 -85.9958 0 3.53131 2 0 4.53999e-06 0.109929
7660 1 48.971 13.4061 -85.9297 0 3.48157 2 0 4.53999e-06 -0.831503
3220 1 49.0788 13.7455 -86.6865 0 3.51522 2 0 4.53999e-06 -0.994203
8738 1 49.7504 13.6071 -86.6555 0 3.55625 1 0 4.53999e-06 -0.462154
8990 1 49.6092 13.8475 -85.9139 0 3.53531 2 0 4.53999e-06 -0.343998
4415 1 50.2585 13.6544 -86.302 0 3.68776 2 0 4.53999e-06 0.788393
2212 1 50.4126 13.7219 -85.4041 0 3.76629 2 0 4.53999e-06 0.665601
4324 1 50.7779 13.8934 -86.7673 0 3.75632 2 0 4.53999e-06 0.98111
8316 1 49.6633 14.1997 -86.5743 0 3.55215 1 0 4.53999e-06 -0.407587
3967 1 50.1839 14.3648 -86.1093 0 3.61679 2 0 4.53999e-06 0.470887
3970 1 50.197 14.2468 -86.9325 0 3.59 1 0 4.53999e-06 0.517128
3207 1 49.0471 14.4863 -86.0987 0 3.48967 2 0 4.53999e-06 -0.697308
4116 1 49.6397 14.4289 -85.2848 0 3.49675 2 0 4.53999e-06 -0.0771592
8442 1 49.4913 13.4365 -85.0461 0 3.47166 2 0 4.53999e-06 -0.213377
3692 1 48.2629 14.5019 -83.9754 0 3.32223 3 0 4.53999e-06 -0.892721
7653 1 47.9799 15.3953 -82.2796 0 3.61472 2 0 4.53999e-06 0.125031
1973 1 50.8364 14.794 -83.3315 0 4.46752 3 0 4.53999e-06 0.702279
3212 1 47.0003 15.2345 -81.8165 0 3.55195 2 0 4.53999e-06 -0.628244
8102 1 46.5411 14.9244 -80.1664 0 3.59007 2 0 4.53999e-06 -0.850122
5917 1 47.8808 14.6225 -80.5779 0 3.71605 2 0 4.53999e-06 0.532463
8269 1 47.1533 14.719 -81.0073 0 3.60698 2 0 4.53999e-06 -0.383178
4231 1 47.5485 15.8926 -81.315 0 3.65539 2 0 4.53999e-06 -0.144993
9225 1 47.8322 15.4157 -80.5625 0 3.81916 2 0 4.53999e-06 0.827349
8684 1 47.0218 15.4457 -80.6661 0 3.62877 2 0 4.53999e-06 -0.682857
8213 1 48.0349 15.096 -81.359 0 3.82359 2 0 4.53999e-06 0.567719
3646 1 43.9626 15.7154 -50.3217 0 2.64659 2 0 4.54e-06 -0.458481
6458 1 49.0247 15.4825 -81.7589 0 4.14031 2 0 4.53999e-06 0.93079
6182 1 47.7047 14.1553 -79.5671 0 3.61974 2 0 4.53999e-06 0.436743
3740 1 46.5758 15.7736 -79.9466 0 3.60053 2 0 4.53999e-06 -0.732028
8267 1 46.8052 14.3298 -79.52 0 3.58717 2 0 4.53999e-06 -0.429565
3920 1 46.344 15.1411 -79.3262 0 3.5812 2 0 4.53999e-06 -0.998224
8315 1 46.4079 14.4209 -78.6631 0 3.55389 2 0 4.53999e-06 -0.644983
9125 1 47.3004 14.7775 -80.0986 0 3.6399 1 0 4.53999e-06 -0.0629794
7661 1 47.2847 14.4407 -78.7345 0 3.61085 2 0 4.53999e-06 0.323592
6033 1 48.0783 14.9433 -79.8573 0 3.82998 2 0 4.53999e-06 0.954165
6515 1 47.7675 15.0053 -79.1553 0 3.79956 2 0 4.53999e-06 0.878842
3514 1 47.2808 15.519 -79.8037 0 3.6569 1 0 4.53999e-06 0.00834891
8948 1 47.0529 14.9723 -79.3866 0 3.62803 1 0 4.53999e-06 -0.593603
8596 1 47.0122 15.2042 -78.7063 0 3.6207 2 0 4.53999e-06 -0.0413426
1057 1 47.5102 15.782 -79.0692 0 3.71979 2 0 4.53999e-06 0.417404
1789 1 48.0312 15.7436 -79.8017 0 3.86476 2 0 4.53999e-06 0.77693
3423 1 45.9097 14.6442 -77.7058 0 3.50809 2 0 4.53999e-06 -0.855099
1974 1 46.2771 15.2585 -78.4418 0 3.56113 2 0 4.53999e-06 -0.846182
8268 1 46.954 14.4555 -77.7722 0 3.55872 2 0 4.53999e-06 0.224033
4321 1 46.3635 15.0288 -76.7246 0 3.56897 2 0 4.53999e-06 -0.0763745
2102 1 46.8534 15.4319 -77.7558 0 3.58293 2 0 4.53999e-06 0.0511198
7106 1 47.7067 15.1618 -78.2165 0 3.86043 2 0 4.53999e-06 0.720265
8264 1 46.1298 14.5678 -75.6966 0 3.42349 2 0 4.53999e-06 -0.0475156
4673 1 45.9634 15.425 -75.1487 0 3.43993 2 0 4.53999e-06 -0.134659
2994 1 45.5631 13.854 -73.9555 0 3.4055 2 0 4.53999e-06 -0.162553
3738 1 44.6543 14.8313 -73.4189 0 3.39527 2 0 4.53999e-06 -0.823204
4230 1 46.4909 14.5056 -74.6854 0 3.70615 2 0 4.53999e-06 0.658118
3642 1 45.5733 14.8063 -74.4298 0 3.45219 2 0 4.53999e-06 -0.514618
9425 1 46.019 14.6616 -73.7674 0 3.50365 2 0 4.53999e-06 0.506721
4634 1 45.396 15.0821 -73.6426 0 3.44826 2 0 4.53999e-06 -0.505826
1925 1 46.2481 15.4841 -74.1758 0 3.5675 2 0 4.53999e-06 0.423917
5918 1 46.8003 14.8337 -73.7349 0 3.74728 2 0 4.53999e-06 0.982661
1687 1 45.7946 15.726 -73.3943 0 3.47085 2 0 4.53999e-06 0.102919
3923 1 44.7928 14.6588 -72.6036 0 3.40502 2 0 4.53999e-06 -0.78525
3737 1 45.0962 15.3056 -72.8923 0 3.4249 1 0 4.53999e-06 -0.600192
8056 1 44.7475 14.2259 -71.8578 0 3.38951 2 0 4.53999e-06 -0.394933
8740 1 44.243 14.9385 -71.8035 0 3.38288 2 0 4.53999e-06 -0.974288
3921 1 44.9099 15.1776 -72.1006 0 3.41673 1 0 4.53999e-06 -0.866326
3278 1 44.3186 15.3953 -72.6283 0 3.37708 2 0 4.53999e-06 -0.859608
6188 1 46.0967 14.4388 -73.0229 0 3.60223 2 0 4.53999e-06 0.642727
8101 1 45.3273 14.427 -73.1938 0 3.43178 2 0 4.53999e-06 -0.313301
909 1 45.7608 15.0749 -73.0815 0 3.46622 1 0 4.53999e-06 0.766426
6689 1 46.4833 15.3192 -73.0316 0 3.67004 2 0 4.53999e-06 0.916379
8837 1 45.4421 14.4511 -72.4227 0 3.43078 1 0 4.53999e-06 0.166094
3517 1 45.477 15.1173 -72.0376 0 3.44527 1 0 4.53999e-06 0.654314
3793 1 45.5822 15.6564 -72.5105 0 3.45189 1 0 4.53999e-06 0.199002
8899 1 45.9358 14.9608 -72.4643 0 3.46662 1 0 4.53999e-06 0.917751
6687 1 46.1522 15.447 -71.7777 0 3.66749 2 0 4.53999e-06 0.847516
9326 1 44.8045 14.9135 -71.1174 0 3.42331 2 0 4.53999e-06 -0.540119
3218 1 44.482 15.2351 -70.3013 0 3.41965 2 0 4.53999e-06 -0.843144
3371 1 44.4345 15.6828 -71.3121 0 3.39985 2 0 4.53999e-06 -0.726546
9426 1 45.4152 14.6451 -71.5822 0 3.43653 2 0 4.53999e-06 0.367002
2555 1 45.2315 15.708 -71.6062 0 3.4439 2 0 4.53999e-06 0.0515368
8743 1 45.6114 15.2369 -71.0063 0 3.64139 2 0 4.53999e-06 0.777749
3969 1 45.1102 15.8862 -70.5915 0 3.46688 2 0 4.53999e-06 -0.0120839
5809 1 45.3065 14.6812 -70.274 0 3.4646 2 0 4.53999e-06 0.240829
4233 1 45.0034 15.2681 -69.3885 0 3.50313 2 0 4.53999e-06 -0.955884
4131 1 44.6745 15.7196 -68.4947 0 3.50128 2 0 4.53999e-06 -0.778189
6244 1 45.7965 15.5282 -69.9419 0 3.83484 2 0 4.53999e-06 0.865152
8839 1 45.2948 14.5772 -68.5862 0 3.50246 2 0 4.53999e-06 0.0416795
4332 1 45.6409 15.5198 -68.5703 0 3.82965 2 0 4.53999e-06 0.815575
7375 1 45.6715 14.1247 -67.6363 0 3.4621 2 0 4.53999e-06 0.393715
8597 1 44.758 15.038 -67.8002 0 3.49757 2 0 4.53999e-06 -0.957975
8900 1 45.025 14.5732 -66.962 0 3.47406 2 0 4.53999e-06 -0.541705
4589 1 45.1443 15.4405 -66.9351 0 3.51047 2 0 4.53999e-06 -0.282362
1868 1 45.6276 15.0903 -67.6416 0 3.74533 2 0 4.53999e-06 0.964382
1930 1 45.8569 14.7933 -66.6883 0 3.72719 2 0 4.53999e-06 0.966431
8645 1 45.0888 14.1676 -64.7722 0 3.28545 2 0 4.53999e-06 -0.498557
6037 1 45.6379 13.9969 -65.5488 0 3.35503 2 0 4.53999e-06 0.391147
8265 1 44.4986 15.156 -66.2983 0 3.40255 2 0 4.53999e-06 -0.956732
8322 1 44.5705 14.4961 -65.4537 0 3.31524 2 0 4.53999e-06 -0.873139
3691 1 44.9652 15.3677 -65.4204 0 3.37589 2 0 4.53999e-06 -0.333146
3871 1 45.2381 14.6837 -66.0261 0 3.43274 2 0 4.53999e-06 -0.0463551
4017 1 45.6093 15.5575 -66.1351 0 3.72885 2 0 4.53999e-06 0.508536
4414 1 45.869 14.9122 -65.388 0 3.61605 2 0 4.53999e-06 0.945339
9173 1 44.812 13.8791 -63.2912 0 3.16196 2 0 4.53999e-06 -0.707722
5815 1 45.7594 13.4543 -64.6517 0 3.2212 2 0 4.53999e-06 0.396712
6181 1 45.4344 12.8367 -63.8309 0 3.05432 2 0 4.53999e-06 0.0143331
8545 1 45.4845 13.9962 -63.8547 0 3.23862 2 0 4.53999e-06 0.335723
1012 1 46.1344 14.2783 -63.2895 0 3.43273 2 0 4.53999e-06 0.98148
3209 1 44.3718 14.9918 -64.6224 0 3.24151 2 0 4.53999e-06 -0.94611
9424 1 44.858 14.507 -63.9787 0 3.23338 2 0 4.53999e-06 -0.922825
3690 1 44.904 15.3915 -63.8114 0 3.22829 2 0 4.53999e-06 -0.331732
8058 1 44.4875 14.7522 -63.1702 0 3.16638 2 0 4.53999e-06 -0.944433
1568 1 45.9622 14.4069 -64.5186 0 3.49822 2 0 4.53999e-06 0.971713
4592 1 45.3118 15.0272 -64.6402 0 3.31712 2 0 4.53999e-06 0.256896
9179 1 45.2623 14.4857 -63.1726 0 3.21314 1 0 4.53999e-06 -0.146428
8445 1 45.6275 14.8694 -63.7738 0 3.41576 2 0 4.53999e-06 0.663344
7473 1 44.9499 13.1801 -62.4464 0 3.08338 2 0 4.53999e-06 -0.250742
8216 1 44.6252 14.1109 -62.5044 0 3.12042 1 0 4.53999e-06 -0.947095
8845 1 44.5567 13.6359 -61.6585 0 3.05009 2 0 4.53999e-06 -0.657946
1146 1 45.5417 13.6804 -62.9821 0 3.18134 2 0 4.53999e-06 0.421208
2550 1 45.2618 14.0665 -62.2624 0 3.14761 1 0 4.53999e-06 0.283244
6587 1 45.4213 13.5564 -61.5322 0 3.0871 2 0 4.53999e-06 0.41541
1309 1 46.0755 13.9193 -62.3242 0 3.37245 2 0 4.53999e-06 0.910438
4517 1 44.6785 14.8245 -62.2217 0 3.1216 2 0 4.53999e-06 -0.728554
8745 1 44.2806 14.4021 -61.3134 0 3.03607 2 0 4.53999e-06 -0.972893
3516 1 45.0337 14.3118 -61.582 0 3.09382 1 0 4.53999e-06 -0.428945
3924 1 45.1844 15.2418 -62.8903 0 3.20355 2 0 4.53999e-06 -0.0880882
1927 1 45.6075 14.6053 -62.5551 0 3.20476 1 0 4.53999e-06 0.816818
3335 1 46.127 15.2132 -63.0301 0 3.50587 2 0 4.53999e-06 0.74105
4677 1 45.8214 14.3609 -61.5579 0 3.28895 2 0 4.53999e-06 0.947329
3971 1 45.3617 14.979 -61.8554 0 3.15834 2 0 4.53999e-06 0.361919
9325 1 44.7275 13.9438 -60.7434 0 3.00938 1 0 4.53999e-06 -0.461422
8266 1 44.5223 13.5093 -59.8251 0 2.93493 2 0 4.53999e-06 -0.556747
1698 1 45.5614 14.0404 -60.7419 0 3.04944 1 0 4.53999e-06 0.965501
8552 1 45.2921 13.4049 -60.2426 0 2.97663 2 0 4.53999e-06 0.281698
905 1 45.2004 14.1016 -59.8417 0 2.99227 1 0 4.53999e-06 0.972468
6463 1 46.2076 13.4361 -59.7743 0 3.21526 2 0 4.53999e-06 0.89698
3639 1 44.6844 15.1283 -61.1839 0 3.06281 2 0 4.53999e-06 -0.251187
8996 1 43.7646 14.919 -60.7381 0 2.98764 2 0 4.53999e-06 -0.881663
8746 1 43.895 14.0409 -60.245 0 2.95326 2 0 4.53999e-06 -0.893124
8441 1 44.4988 14.5577 -60.2305 0 2.9946 1 0 4.53999e-06 -0.820984
3235 1 44.356 15.2972 -60.0326 0 3.00016 2 0 4.53999e-06 -0.257106
3515 1 45.1702 14.7005 -60.6718 0 3.05601 1 0 4.53999e-06 0.676356