ITEM: TIMESTEP
50500
ITEM: NUMBER OF ATOMS
9495
ITEM: BOX BOUNDS mm mm mm
0.0000000000000000e+00 8.4146259692361809e+01
-3.9723042206480668e+00 3.5172690127489489e+01
-2.1502733777694732e+02 3.1748021039364001e+01
ITEM: ATOMS id type x y z c_phase c_temp c_surf c_nbond c_visc f_3[1]
2453 1 70.677 11.2095 -213.901 0 3.61344 3 0 4.53999e-06 -0.871541
2149 1 73.338 10.8251 -213.496 0 3.75856 2 0 4.53999e-06 -0.67004
1920 1 73.1374 11.8444 -213.543 0 3.75588 2 0 4.53999e-06 -0.76774
1143 1 74.1472 11.8899 -213.496 0 3.79608 2 0 4.53999e-06 -0.431167
1560 1 74.3386 10.9247 -213.868 0 3.79288 2 0 4.53999e-06 -0.154331
3628 1 75.8313 11.2267 -213.61 0 3.88983 2 0 4.53999e-06 0.235879
1196 1 75.0114 11.6814 -213.834 0 3.83797 2 0 4.53999e-06 -0.0596369
4522 1 76.6536 11.8605 -214.05 0 3.99298 2 0 4.53999e-06 0.394879
2100 1 72.4972 12.8526 -213.374 0 3.72238 2 0 4.53999e-06 -0.898898
1464 1 73.6231 12.7634 -213.689 0 3.77088 2 0 4.53999e-06 -0.4018
4521 1 74.6317 12.6351 -214.117 0 3.81755 2 0 4.53999e-06 -0.164545
9332 1 75.3473 13.121 -213.51 0 3.86332 2 0 4.53999e-06 -0.0415546
4544 1 75.7096 12.3131 -214.084 0 3.89094 2 0 4.53999e-06 0.0936794
4109 1 76.3816 12.962 -213.709 0 3.95263 2 0 4.53999e-06 0.389602
2099 1 67.6874 14.3632 -215.083 0 2.96278 3 0 4.53999e-06 -0
2150 1 75.439 10.0618 -212.389 0 3.83794 2 0 4.53999e-06 0.070695
2101 1 73.8892 11.2329 -212.771 0 3.78602 2 0 4.53999e-06 -0.671316
2454 1 72.8936 11.4834 -212.538 0 3.74761 2 0 4.53999e-06 -0.806239
1561 1 75.1947 10.498 -213.315 0 3.83046 2 0 4.53999e-06 0.141182
1924 1 74.2195 10.286 -213.041 0 3.78862 2 0 4.53999e-06 -0.353679
900 1 75.0633 11.3413 -212.889 0 3.84166 1 0 4.53999e-06 -0.21664
2503 1 74.5884 10.7477 -212.203 0 3.81533 2 0 4.53999e-06 -0.394611
2105 1 75.5573 11.038 -212.068 0 3.86967 2 0 4.53999e-06 -0.0982971
2460 1 74.7656 11.6882 -211.858 0 3.83151 2 0 4.53999e-06 -0.373433
3632 1 75.5526 11.9205 -212.22 0 3.87745 1 0 4.53999e-06 -0.103266
1201 1 76.9119 11.4063 -213.153 0 4.0232 2 0 4.53999e-06 0.449076
1921 1 76.1543 10.8473 -212.768 0 3.90593 2 0 4.53999e-06 0.356822
1562 1 76.5051 10.6088 -211.776 0 3.92751 2 0 4.53999e-06 0.0526235
2153 1 77.3689 10.9797 -212.312 0 4.02462 2 0 4.53999e-06 0.176272
1149 1 76.4379 11.7225 -212.389 0 3.95202 1 0 4.53999e-06 0.674156
4545 1 75.9754 11.9066 -213.11 0 3.91741 1 0 4.53999e-06 0.411776
4113 1 77.9259 11.7301 -213.353 0 4.46777 2 0 4.53999e-06 0.535556
3630 1 78.3237 10.4505 -211.973 0 4.05825 2 0 4.53999e-06 -0.0239532
903 1 78.3123 11.4626 -212.379 0 4.11442 2 0 4.53999e-06 0.315477
8992 1 79.3888 11.4912 -212.624 0 4.18356 2 0 4.53999e-06 0.352
1865 1 73.3751 12.422 -212.727 0 3.76898 2 0 4.53999e-06 -0.887465
1870 1 73.8969 12.2651 -211.908 0 3.7939 2 0 4.53999e-06 -0.674382
1465 1 74.1678 13.295 -211.915 0 3.79763 2 0 4.53999e-06 -0.374997
6299 1 73.6446 13.4295 -212.824 0 3.77307 2 0 4.53999e-06 -0.476879
1142 1 74.3868 12.7916 -213.062 0 3.80898 2 0 4.53999e-06 -0.359881
8451 1 75.1874 12.2995 -213.036 0 3.85493 1 0 4.53999e-06 -0.164769
1469 1 74.3925 11.9611 -212.644 0 3.81182 1 0 4.53999e-06 -0.855747
906 1 74.8471 12.6386 -212.199 0 3.83361 1 0 4.53999e-06 -0.277101
8452 1 75.6465 13.1192 -212.101 0 3.87696 2 0 4.53999e-06 0.113512
6028 1 74.9189 13.5408 -212.683 0 3.83248 2 0 4.53999e-06 -0.0945454
4130 1 77.0392 12.4024 -213.226 0 4.23413 2 0 4.53999e-06 0.606176
2457 1 76.3596 12.451 -211.931 0 3.93722 1 0 4.53999e-06 0.260813
9330 1 76.0881 12.686 -212.806 0 3.92595 1 0 4.53999e-06 0.414093
9333 1 77.3714 12.0061 -212.389 0 4.06032 1 0 4.53999e-06 0.848326
9222 1 77.0062 13.0228 -212.419 0 4.01121 2 0 4.53999e-06 0.432868
9219 1 76.0505 13.6227 -212.901 0 3.903 2 0 4.53999e-06 0.250993
4114 1 78.0634 12.6036 -212.654 0 4.1672 2 0 4.53999e-06 0.485299
9329 1 78.879 12.3154 -212.058 0 4.1432 2 0 4.53999e-06 0.212969
9428 1 80.4407 12.1964 -212.244 0 4.78257 2 0 4.53999e-06 0.604183
4587 1 80.7406 10.0755 -210.64 0 4.24355 2 0 4.53999e-06 0.0587802
2551 1 76.1449 11.5992 -211.456 0 3.91433 2 0 4.53999e-06 -0.111921
2104 1 77.118 11.45 -211.462 0 3.99008 2 0 4.53999e-06 -0.154219
2151 1 77.7676 10.7256 -211.044 0 4.02311 2 0 4.53999e-06 -0.406551
6973 1 77.7317 11.8216 -210.635 0 4.02 2 0 4.53999e-06 -0.299938
1928 1 78.587 11.3409 -211.417 0 4.09215 2 0 4.53999e-06 -0.697109
952 1 78.877 10.4754 -210.861 0 4.09064 2 0 4.53999e-06 -0.243294
2547 1 78.6451 11.3316 -210.292 0 4.07896 2 0 4.53999e-06 -0.390796
3522 1 79.3266 10.8887 -211.701 0 4.14484 2 0 4.53999e-06 0.186536
4125 1 80.4034 11.1947 -211.594 0 4.47246 2 0 4.53999e-06 0.546726
3631 1 79.5434 11.7614 -211.6 0 4.19041 2 0 4.53999e-06 0.388791
1866 1 79.4661 11.37 -210.864 0 4.16111 2 0 4.53999e-06 -0.558632
1922 1 79.9616 10.6496 -210.904 0 4.19987 2 0 4.53999e-06 -0.10644
1148 1 80.7995 11.0009 -210.57 0 4.28533 1 0 4.53999e-06 0.124901
7205 1 80.0817 11.1605 -210.165 0 4.22823 2 0 4.53999e-06 -0.811196
1466 1 80.2955 11.7853 -210.865 0 4.23927 2 0 4.53999e-06 0.34986
4548 1 81.666 10.7781 -210.576 0 4.36671 2 0 4.53999e-06 0.431765
9218 1 82.3157 11.5494 -210.385 0 4.68345 2 0 4.53999e-06 0.598385
9334 1 81.329 11.7695 -210.796 0 4.33074 2 0 4.53999e-06 0.35393
7200 1 71.9688 13.5766 -210.771 0 3.62085 3 0 4.53999e-06 -0.802598
6032 1 75.48 12.3691 -211.495 0 3.86806 2 0 4.53999e-06 -0.0903794
6588 1 74.533 12.5753 -211.103 0 3.81113 2 0 4.53999e-06 -0.27689
7563 1 77.1536 12.4757 -211.412 0 3.99086 2 0 4.53999e-06 0.190105
6967 1 76.2984 12.4225 -210.658 0 3.90944 2 0 4.53999e-06 -0.0869735
3629 1 77.9698 11.9822 -211.645 0 4.06468 2 0 4.53999e-06 0.0377754
7556 1 78.8588 12.0903 -211.006 0 4.10999 2 0 4.53999e-06 -0.267129
8449 1 79.7964 12.662 -211.203 0 4.18753 2 0 4.53999e-06 0.184638
6298 1 79.6313 12.0802 -210.157 0 4.1636 2 0 4.53999e-06 -0.307377
1008 1 80.0318 10.1651 -209.848 0 4.2158 2 0 4.53999e-06 -0.606072
1195 1 80.8444 10.1308 -208.943 0 4.3511 2 0 4.53999e-06 -0.541438
4325 1 81.9406 10.0815 -209.115 0 4.50304 2 0 4.53999e-06 0.0189917
6608 1 80.7486 11.711 -209.98 0 4.30131 1 0 4.53999e-06 -0.387934
1199 1 80.655 10.9398 -209.474 0 4.3198 1 0 4.53999e-06 -0.850303
6604 1 80.4233 11.7948 -209.037 0 4.30384 2 0 4.53999e-06 -0.726811
1869 1 81.4321 11.2392 -209.943 0 4.38604 1 0 4.53999e-06 0.124011
3519 1 81.2082 10.3755 -209.853 0 4.34981 2 0 4.53999e-06 -0.0724601
4520 1 82.1367 10.7352 -209.763 0 4.49802 1 0 4.53999e-06 0.492264
9220 1 82.15 11.5001 -209.465 0 4.50861 1 0 4.53999e-06 0.52172
7203 1 81.3011 11.5418 -209.181 0 4.41062 1 0 4.53999e-06 -0.631054
954 1 81.5187 10.8306 -209.175 0 4.44287 1 0 4.53999e-06 -0.581762
8448 1 82.364 10.873 -208.926 0 4.58958 1 0 4.53999e-06 0.672893
7204 1 82.0058 11.3062 -208.653 0 4.53772 1 0 4.53999e-06 -0.285679
1976 1 81.5718 10.5531 -208.372 0 4.49874 1 0 4.53999e-06 -0.553185
3870 1 82.8893 10.2304 -209.409 0 4.86687 2 0 4.53999e-06 0.550957
9171 1 82.7224 11.9535 -209.021 0 4.59975 2 0 4.53999e-06 0.493134
8739 1 83.0814 11.2047 -209.609 0 4.85979 2 0 4.53999e-06 0.78019
7555 1 82.8639 11.3961 -208.41 0 4.70483 1 0 4.53999e-06 0.760257
4519 1 83.1008 10.6142 -208.559 0 4.89692 2 0 4.53999e-06 0.747845
3213 1 83.7137 11.3807 -208.797 0 5.06982 2 0 4.53999e-06 0.898798
6027 1 81.8164 12.1062 -208.75 0 4.47574 2 0 4.53999e-06 -0.100361
7557 1 81.6133 12.0982 -209.809 0 4.40204 2 0 4.53999e-06 0.0747323
4417 1 82.4288 10.1252 -208.224 0 4.64178 2 0 4.53999e-06 -0.0197489
4588 1 83.2019 10.0255 -207.466 0 4.7964 2 0 4.53999e-06 0.305005
7202 1 81.2591 11.4144 -208.297 0 4.45827 2 0 4.53999e-06 -0.786869
2553 1 82.1996 10.9295 -207.901 0 4.62932 1 0 4.53999e-06 -0.454415
6030 1 82.342 11.8855 -207.938 0 4.60822 2 0 4.53999e-06 0.07791
955 1 82.3724 10.5532 -207.054 0 4.72255 2 0 4.53999e-06 -0.597262
6908 1 81.735 11.433 -207.39 0 4.56712 2 0 4.53999e-06 -0.605181
4227 1 83.9383 10.7068 -207.99 0 5.15948 2 0 4.53999e-06 0.95567
4518 1 83.0038 10.8842 -207.691 0 4.92464 2 0 4.53999e-06 0.709776
9221 1 83.4048 11.7175 -207.754 0 5.03753 2 0 4.53999e-06 0.610984
6304 1 82.7146 11.4743 -206.973 0 4.77366 2 0 4.53999e-06 -0.137024
3520 1 83.6055 10.9985 -207.031 0 5.11334 2 0 4.53999e-06 0.946251
7474 1 81.3927 12.3673 -207.814 0 4.43749 2 0 4.53999e-06 -0.434649
1253 1 82.7646 9.95671 -205.443 0 4.83333 2 0 4.53999e-06 -0.461424
1010 1 83.1503 10.4416 -206.437 0 4.88166 2 0 4.53999e-06 0.08405
4546 1 83.9088 10.2659 -205.713 0 5.27345 2 0 4.53999e-06 0.705726
2656 1 82.7056 11.0032 -205.845 0 4.86446 2 0 4.53999e-06 -0.905144
902 1 83.6156 11.3064 -206.036 0 5.21046 2 0 4.53999e-06 0.559165
2552 1 83.2824 10.8462 -205.139 0 4.95635 2 0 4.53999e-06 -0.0444805
8944 1 84.1425 11.2241 -205.139 0 5.26828 2 0 4.53999e-06 0.868668
7373 1 82.3371 11.0586 -204.846 0 4.83105 2 0 4.53999e-06 -0.968201
901 1 83.7809 10.3805 -204.6 0 5.15594 2 0 4.53999e-06 0.615008
8547 1 83.1113 11.5915 -204.687 0 4.90819 2 0 4.53999e-06 -0.221374
2598 1 82.922 10.4927 -204.453 0 4.89992 2 0 4.53999e-06 -0.61679
4516 1 83.6957 11.1287 -204.294 0 5.09264 2 0 4.53999e-06 0.797605
6970 1 82.9777 11.0895 -203.935 0 4.89448 2 0 4.53999e-06 -0.75927
2599 1 83.4044 10.5264 -203.771 0 4.91459 2 0 4.53999e-06 0.232599
3873 1 84.1494 10.827 -203.589 0 5.10752 2 0 4.53999e-06 0.991647
9122 1 83.4903 11.6512 -203.657 0 4.89788 2 0 4.53999e-06 0.314139
6297 1 82.7932 11.3485 -203.255 0 4.85804 1 0 4.53999e-06 -0.619638
6450 1 82.3571 10.9904 -202.787 0 4.81993 2 0 4.53999e-06 -0.942723
6240 1 82.1123 11.6726 -201.954 0 4.76249 2 0 4.53999e-06 -0.740552
3425 1 82.3714 10.8905 -202.066 0 4.8052 2 0 4.53999e-06 -0.952273
6301 1 83.5016 11.0448 -203.291 0 5.00221 2 0 4.53999e-06 0.914179
7152 1 82.8695 10.6515 -203.253 0 4.86441 1 0 4.53999e-06 -0.618741
4420 1 83.4763 10.3249 -202.954 0 4.87903 2 0 4.53999e-06 0.433277
4630 1 82.7503 10.3636 -202.31 0 4.82886 2 0 4.53999e-06 -0.342778
4547 1 83.7049 10.9604 -202.634 0 5.00068 2 0 4.53999e-06 0.983277
6245 1 83.2155 11.4334 -202.774 0 4.86135 1 0 4.53999e-06 0.300797
1926 1 83.0262 10.7534 -202.618 0 4.85578 1 0 4.53999e-06 -0.0854902
8546 1 83.3243 11.2637 -202.087 0 4.94202 1 0 4.53999e-06 0.754383
8989 1 83.4246 10.5216 -202.024 0 4.98028 2 0 4.53999e-06 0.655037
7376 1 82.7366 11.4067 -202.327 0 4.82464 1 0 4.53999e-06 -0.395233
6972 1 82.8733 10.9478 -201.65 0 4.82165 2 0 4.53999e-06 0.156803
1255 1 82.1566 11.103 -201.353 0 4.77082 2 0 4.53999e-06 -0.935654
6905 1 81.7248 11.2875 -200.553 0 4.74404 2 0 4.53999e-06 -0.994897
9169 1 82.3575 11.9298 -200.811 0 4.76711 2 0 4.53999e-06 -0.165018
4591 1 82.6865 10.3557 -201.438 0 4.79408 2 0 4.53999e-06 -0.155288
7662 1 82.836 11.6553 -201.549 0 4.80004 2 0 4.53999e-06 0.174727
9168 1 83.4591 11.0633 -201.318 0 4.98969 2 0 4.53999e-06 0.789739
6590 1 82.7179 11.1019 -200.832 0 4.79449 2 0 4.53999e-06 0.294324
1923 1 82.2561 10.7595 -199.967 0 4.80278 2 0 4.53999e-06 -0.035763
6605 1 81.9027 11.6193 -199.592 0 4.86758 2 0 4.53999e-06 -0.636411
7374 1 81.4368 11.2692 -198.81 0 4.85048 2 0 4.53999e-06 -0.632407
8447 1 82.2972 11.1604 -198.901 0 5.11511 2 0 4.53999e-06 0.598767
9331 1 82.7696 11.5575 -199.956 0 5.09072 2 0 4.53999e-06 0.903145
9123 1 82.549 12.0263 -198.948 0 5.18847 2 0 4.53999e-06 0.682198
9429 1 81.5955 12.1653 -198.816 0 4.86849 2 0 4.53999e-06 -0.334151
6513 1 80.5755 11.8818 -197.471 0 4.65421 2 0 4.53999e-06 -0.848877
2452 1 80.3226 11.1756 -196.829 0 4.53939 2 0 4.53999e-06 -0.813461
4229 1 81.5411 10.527 -198.231 0 4.79955 2 0 4.53999e-06 -0.100519
6907 1 81.1736 11.7069 -198.139 0 4.79725 2 0 4.53999e-06 -0.734794
3521 1 81.9492 11.261 -198.113 0 5.02016 2 0 4.53999e-06 0.598347
7554 1 82.0742 12.0313 -198.103 0 5.05508 2 0 4.53999e-06 0.56929
1685 1 80.9221 11.046 -197.729 0 4.72034 2 0 4.53999e-06 -0.668956
4326 1 81.6768 10.9652 -197.376 0 4.78443 2 0 4.53999e-06 0.349828
1569 1 81.0633 11.4119 -197.013 0 4.68092 2 0 4.53999e-06 -0.608605
1563 1 81.6187 11.766 -197.462 0 4.9168 2 0 4.53999e-06 0.65008
4515 1 82.3784 11.5405 -197.406 0 5.05785 2 0 4.53999e-06 0.941148
3872 1 82.9323 11.4226 -198.202 0 5.25254 2 0 4.53999e-06 0.984708
2548 1 81.104 12.1236 -196.845 0 4.66072 2 0 4.53999e-06 -0.128994
9224 1 81.9108 12.2646 -196.904 0 4.94516 2 0 4.53999e-06 0.616969
7559 1 81.3161 12.4301 -197.687 0 4.76547 2 0 4.53999e-06 -0.182605
1566 1 80.4033 11.9242 -196.433 0 4.49818 2 0 4.53999e-06 -0.850632
2201 1 79.708 11.5245 -195.962 0 4.34334 2 0 4.53999e-06 -0.935534
4330 1 80.5314 11.0729 -195.904 0 4.44327 2 0 4.53999e-06 -0.122934
6303 1 80.6127 11.8947 -195.475 0 4.39539 2 0 4.53999e-06 0.499009
1259 1 81.1698 10.821 -196.563 0 4.61715 2 0 4.53999e-06 0.112181
4331 1 81.866 11.4296 -196.639 0 4.90252 2 0 4.53999e-06 0.73848
1198 1 81.2087 11.6421 -196.122 0 4.72798 2 0 4.53999e-06 0.545083
1567 1 79.5653 12.0263 -195.141 0 4.28291 2 0 4.53999e-06 -0.993499
6031 1 80.0361 12.5274 -195.829 0 4.34406 2 0 4.53999e-06 -0.468297
8945 1 81.0372 12.5528 -196.063 0 4.49832 2 0 4.53999e-06 0.299845
4419 1 78.6431 11.6463 -193.586 0 4.32902 2 0 4.53999e-06 0.307704
2154 1 77.7207 11.9734 -193.502 0 4.31332 2 0 4.53999e-06 -0.282866
4228 1 80.1179 11.2844 -194.955 0 4.28477 2 0 4.53999e-06 0.0221811
4549 1 79.539 11.8841 -194.138 0 4.29209 2 0 4.53999e-06 0.420434
9223 1 78.6119 12.327 -194.294 0 4.29281 2 0 4.53999e-06 -0.371783
6243 1 77.8503 12.9073 -193.676 0 4.32068 2 0 4.53999e-06 -0.199518
4551 1 78.6187 12.5424 -193.351 0 4.57974 2 0 4.53999e-06 0.857969
8600 1 80.2686 12.4309 -194.746 0 4.51545 2 0 4.53999e-06 0.527697
3876 1 79.4351 12.9231 -194.11 0 4.2718 2 0 4.53999e-06 0.342934
1011 1 77.3724 11.653 -192.619 0 4.27488 2 0 4.53999e-06 -0.00369831
4328 1 78.2641 11.9779 -192.696 0 4.5827 2 0 4.53999e-06 0.704663
1688 1 76.7236 12.1315 -193.08 0 4.21176 2 0 4.53999e-06 -0.621794
1467 1 77.3921 12.6249 -192.932 0 4.29942 2 0 4.53999e-06 -0.156845
7377 1 76.4057 12.8731 -192.541 0 4.16851 2 0 4.53999e-06 -0.561589
1257 1 76.8181 12.2676 -192.216 0 4.21396 2 0 4.53999e-06 -0.277541
7558 1 77.1898 13.1469 -192.238 0 4.24961 2 0 4.53999e-06 0.307104
2202 1 76.0806 12.3728 -191.799 0 4.10788 2 0 4.53999e-06 -0.53535
7472 1 76.4098 13.1006 -191.726 0 4.14644 2 0 4.53999e-06 -0.0749169
3641 1 78.1353 12.9686 -192.622 0 4.59158 2 0 4.53999e-06 0.647022
4232 1 77.6293 12.3502 -192.129 0 4.46507 2 0 4.53999e-06 0.808361
1684 1 75.607 11.8606 -190.32 0 3.9498 2 0 4.53999e-06 0.00187045
1313 1 76.7207 11.8746 -191.512 0 4.15797 2 0 4.53999e-06 0.237789
7150 1 72.3901 13.1886 -190.286 0 3.57839 3 0 4.53999e-06 -0.854898
1681 1 75.3199 12.0289 -191.287 0 3.97276 2 0 4.53999e-06 -0.523507
7151 1 75.6125 12.8698 -191.334 0 4.02765 2 0 4.53999e-06 -0.633486
6237 1 74.7045 12.6594 -191.042 0 3.89934 2 0 4.53999e-06 -0.897877
9126 1 75.157 13.4851 -190.928 0 3.93707 2 0 4.53999e-06 -0.566717
2655 1 74.68 12.1323 -190.124 0 3.83715 2 0 4.53999e-06 -0.715071
2208 1 75.411 12.5826 -190.604 0 3.96555 2 0 4.53999e-06 -0.78914
7475 1 74.8279 13.0669 -190.21 0 3.87131 2 0 4.53999e-06 -0.847458
7657 1 75.7926 13.2012 -190.439 0 3.99378 2 0 4.53999e-06 0.201341
904 1 77.1133 12.6991 -191.554 0 4.35972 2 0 4.53999e-06 0.911115
6242 1 75.9993 13.7402 -191.212 0 4.04717 2 0 4.53999e-06 -0.0287529
3422 1 76.0516 12.1933 -190.988 0 4.06192 2 0 4.53999e-06 0.111113
3966 1 76.7717 12.4753 -190.909 0 4.29454 2 0 4.53999e-06 0.76325
4416 1 76.2331 12.9541 -190.975 0 4.20582 2 0 4.53999e-06 0.57837
9120 1 76.921 13.4249 -191.038 0 4.3633 2 0 4.53999e-06 0.636997
4631 1 76.2624 12.5391 -190.187 0 4.19889 2 0 4.53999e-06 0.57854
3640 1 73.741 12.0121 -188.869 0 3.64267 3 0 4.53999e-06 -0.530281
956 1 75.4814 12.6357 -189.728 0 3.90098 2 0 4.53999e-06 0.131888
8943 1 75.4071 13.6557 -189.762 0 3.85841 2 0 4.53999e-06 0.0301095
9172 1 74.6237 12.8591 -189.279 0 3.7586 2 0 4.53999e-06 -0.478525
6968 1 71.8764 11.7803 -186.53 0 3.99068 2 0 4.53999e-06 -0.323418
7553 1 73.3872 11.64 -186.686 0 4.40125 2 0 4.53999e-06 0.780638
8544 1 72.5306 11.9761 -187.092 0 4.04397 2 0 4.53999e-06 -0.00308341
8595 1 72.0865 12.6404 -186.494 0 4.00981 2 0 4.53999e-06 -0.0488171
8898 1 73.3098 12.423 -187.806 0 3.88647 2 0 4.53999e-06 0.352608
4590 1 73.0641 12.5384 -186.621 0 4.31046 2 0 4.53999e-06 0.663687
6509 1 71.28 11.8218 -185.868 0 3.93674 2 0 4.53999e-06 -0.801266
2205 1 71.9595 11.6244 -185.687 0 3.98451 2 0 4.53999e-06 -0.0495532
4633 1 72.5192 11.9239 -185.434 0 4.14269 2 0 4.53999e-06 0.883489
2597 1 71.3642 11.51 -185.141 0 3.91699 2 0 4.53999e-06 -0.587233
1683 1 72.2186 11.383 -184.998 0 3.96058 2 0 4.53999e-06 0.354737
1929 1 72.5946 11.5448 -186.171 0 4.06002 2 0 4.53999e-06 0.432356
8686 1 71.176 12.498 -186.405 0 3.92272 2 0 4.53999e-06 -0.706698
6305 1 71.8417 12.2162 -185.933 0 3.9874 2 0 4.53999e-06 -0.447397
7658 1 71.1185 12.3497 -185.355 0 3.91167 2 0 4.53999e-06 -0.971254
3281 1 71.6301 12.763 -185.676 0 3.95316 2 0 4.53999e-06 -0.297479
4121 1 72.2659 12.5474 -185.446 0 4.11768 2 0 4.53999e-06 0.544484
953 1 71.7545 12.0447 -185.03 0 3.94822 2 0 4.53999e-06 -0.248473
3643 1 71.7014 12.7382 -184.896 0 3.92272 2 0 4.53999e-06 -0.0311897
9227 1 72.5643 12.2669 -186.082 0 4.17881 2 0 4.53999e-06 0.810771
1056 1 73.3407 12.0728 -185.715 0 4.3457 2 0 4.53999e-06 0.959237
6455 1 67.1161 11.7715 -183.083 0 2.93251 3 0 4.53999e-06 -0.369149
1258 1 71.794 11.6458 -184.254 0 3.88861 2 0 4.53999e-06 0.0184636
6512 1 70.8348 13.0979 -184.643 0 3.79985 2 0 4.53999e-06 -0.659371
1197 1 71.133 12.1627 -184.553 0 3.87465 2 0 4.53999e-06 -0.760702
3922 1 72.3505 12.2257 -184.713 0 4.1065 2 0 4.53999e-06 0.680163
1565 1 71.7621 12.5971 -184.007 0 3.85274 2 0 4.53999e-06 0.105742
6591 1 70.1185 11.5405 -182.79 0 3.66685 3 0 4.53999e-06 -0.893189
3523 1 70.8869 13.1603 -181.506 0 3.30801 3 0 4.53999e-06 0.417881
9170 1 68.6544 13.8815 -182.486 0 3.45374 3 0 4.53999e-06 0.0265256
4593 1 67.7687 11.5472 -180.019 0 4.83786 2 0 4.53999e-06 0.474367
3874 1 69.5415 10.276 -181.176 0 6.08264 3 0 4.53999e-06 -0.150251
6694 1 66.5584 12.9871 -180.111 0 4.54728 2 0 4.53999e-06 -0.117894
2652 1 66.9839 12.1912 -180.119 0 4.62968 2 0 4.53999e-06 0.103154
8543 1 67.748 12.5138 -180.681 0 4.7325 2 0 4.53999e-06 0.347215
8838 1 68.5514 12.2824 -179.915 0 5.33678 2 0 4.53999e-06 0.998708
8946 1 67.6013 12.6844 -179.685 0 4.88993 2 0 4.53999e-06 0.848797
1256 1 65.533 11.7473 -178.661 0 4.42816 2 0 4.53999e-06 -0.575862
2449 1 66.3671 11.5934 -179.572 0 4.53164 2 0 4.53999e-06 -0.178039
4225 1 66.6496 11.8436 -178.748 0 4.53972 2 0 4.53999e-06 0.353826
2199 1 65.7657 12.3312 -179.652 0 4.48062 2 0 4.53999e-06 -0.687412
7149 1 65.3906 13.5054 -178.703 0 4.38547 2 0 4.53999e-06 -0.506149
6302 1 65.631 12.6264 -178.806 0 4.45033 2 0 4.53999e-06 -0.964834
1260 1 64.9829 12.6045 -178.379 0 4.37335 2 0 4.53999e-06 -0.998282
2152 1 66.5458 12.3907 -179.535 0 4.55912 2 0 4.53999e-06 0.00326714
6974 1 66.0652 12.9898 -179.309 0 4.49432 2 0 4.53999e-06 -0.377259
7656 1 66.8673 12.9877 -179.289 0 4.57374 2 0 4.53999e-06 0.499983
4124 1 67.1529 11.9947 -179.359 0 4.76632 2 0 4.53999e-06 0.717691
1261 1 66.0922 12.1682 -179.017 0 4.5016 2 0 4.53999e-06 -0.528329
9226 1 66.5526 12.5854 -178.725 0 4.63537 2 0 4.53999e-06 0.728467
8897 1 67.218 12.5028 -178.781 0 4.7472 2 0 4.53999e-06 0.89637
4424 1 66.1801 12.2573 -178.238 0 4.47696 2 0 4.53999e-06 0.114355
6906 1 66.2856 13.1437 -178.609 0 4.48996 2 0 4.53999e-06 0.162865
8497 1 65.8285 12.8889 -178.102 0 4.43154 2 0 4.53999e-06 -0.258143
6606 1 65.1352 13.192 -177.575 0 4.31622 2 0 4.53999e-06 -0.577395
4418 1 65.4884 12.1491 -177.789 0 4.3844 2 0 4.53999e-06 -0.444763
8317 1 66.8729 12.817 -177.885 0 4.7207 2 0 4.53999e-06 0.654918
8270 1 66.1108 12.6987 -177.213 0 4.38207 2 0 4.53999e-06 0.180674
6508 1 58.3697 10.9953 -166.964 0 3.5292 3 0 4.53999e-06 0.0479875
6452 1 64.1398 10.4633 -167.228 0 2.8957 3 0 4.53999e-06 -0
8500 1 56.5212 13.1184 -164.289 0 4.23758 2 0 4.53999e-06 -0.935761
8444 1 57.1445 12.979 -165.134 0 4.24953 2 0 4.53999e-06 -0.465627
9128 1 57.4054 12.558 -164.29 0 4.26428 2 0 4.53999e-06 -0.243804
8263 1 57.6811 13.5261 -164.505 0 4.31466 2 0 4.53999e-06 -0.245939
2456 1 58.2408 12.6949 -164.883 0 4.28091 2 0 4.53999e-06 0.476217
2600 1 57.9335 13.5323 -165.141 0 4.3013 2 0 4.53999e-06 0.207159
2458 1 58.4594 13.7686 -164.477 0 4.48024 2 0 4.53999e-06 0.812279
1691 1 57.0396 13.8717 -164.678 0 4.28488 2 0 4.53999e-06 -0.768787
4324 1 57.9318 14.3355 -164.781 0 4.33182 2 0 4.53999e-06 0.0925021
8314 1 57.3403 13.4163 -163.997 0 4.30578 2 0 4.53999e-06 -0.779218
6241 1 58.0642 13.1735 -164.152 0 4.33033 2 0 4.53999e-06 0.408721
3220 1 57.8179 13.4155 -163.495 0 4.3366 2 0 4.53999e-06 -0.122279
7660 1 58.3545 13.7651 -162.916 0 4.37228 2 0 4.53999e-06 0.344742
6185 1 58.652 13.3755 -163.649 0 4.52382 2 0 4.53999e-06 0.767265
3217 1 57.0228 14.0325 -163.738 0 4.30311 2 0 4.53999e-06 -0.937495
3970 1 57.6211 14.1414 -164.194 0 4.33158 1 0 4.53999e-06 -0.52509
8738 1 58.208 13.8881 -163.904 0 4.36375 1 0 4.53999e-06 0.999039
8316 1 57.7593 14.0291 -163.579 0 4.34543 1 0 4.53999e-06 -0.535768
3207 1 57.4715 14.085 -162.897 0 4.32383 2 0 4.53999e-06 -0.543395
3967 1 57.5886 14.7496 -163.649 0 4.34025 2 0 4.53999e-06 -0.486097
4116 1 57.8328 14.9856 -162.642 0 4.33988 2 0 4.53999e-06 -0.28453
8990 1 58.2171 14.4413 -163.282 0 4.37878 2 0 4.53999e-06 0.36525
4415 1 58.2851 14.5768 -164.051 0 4.409 2 0 4.53999e-06 0.442147
9427 1 58.9004 14.21 -163.601 0 4.56491 2 0 4.53999e-06 0.986013
2212 1 58.5224 15.4098 -163.402 0 4.41479 2 0 4.53999e-06 0.337046
8442 1 58.8857 14.6522 -162.616 0 4.66877 2 0 4.53999e-06 0.659201
3692 1 56.6173 14.6089 -160.433 0 3.33963 3 0 4.53999e-06 -0.444982
3740 1 52.9029 15.4215 -155.97 0 4.41938 2 0 4.53999e-06 -0.335938
8102 1 53.7107 15.4633 -155.63 0 4.47715 2 0 4.53999e-06 0.458199
4014 1 52.4497 15.1873 -155.207 0 4.37004 2 0 4.53999e-06 -0.562161
1974 1 52.5392 15.2091 -154.188 0 4.34211 2 0 4.53999e-06 -0.337083
3920 1 53.2901 15.2001 -154.844 0 4.41094 2 0 4.53999e-06 0.269749
1931 1 41.3247 11.7325 -92.2909 0 3.04554 2 0 4.53999e-06 0.187037
3423 1 53.4767 14.249 -152.055 0 3.93991 3 0 4.53999e-06 0.13751
4673 1 50.0755 14.4436 -150.378 0 3.60923 3 0 4.53999e-06 0.386846
3642 1 49.8625 14.7626 -148.054 0 4.22069 2 0 4.53999e-06 -0.00896367
2994 1 51.3973 14.976 -147.306 0 4.76098 2 0 4.53999e-06 0.942094
8740 1 49.8505 13.2979 -145.872 0 4.19961 2 0 4.53999e-06 0.150362
3371 1 48.971 13.6073 -145.78 0 4.15182 2 0 4.53999e-06 -0.680339
1687 1 49.3029 14.8035 -147.233 0 4.21453 2 0 4.53999e-06 -0.778691
3738 1 49.9839 14.2408 -147.165 0 4.24578 2 0 4.53999e-06 0.123797
4634 1 50.3121 14.9322 -147.235 0 4.41551 2 0 4.53999e-06 0.629005
3278 1 49.2776 14.0337 -146.516 0 4.1965 2 0 4.53999e-06 -0.658599
2555 1 49.1675 14.472 -145.883 0 4.18822 1 0 4.53999e-06 -0.98139
3923 1 50.1027 13.9258 -146.391 0 4.24045 2 0 4.53999e-06 0.453638
3737 1 49.7558 14.5261 -146.653 0 4.23811 1 0 4.53999e-06 -0.342453
3793 1 49.3469 14.9769 -146.356 0 4.21318 1 0 4.53999e-06 -0.849747
909 1 49.7985 15.2389 -146.864 0 4.24863 2 0 4.53999e-06 -0.26813
8899 1 50.2626 15.0978 -146.291 0 4.26561 1 0 4.53999e-06 0.702124
3921 1 49.6867 14.0944 -145.834 0 4.2163 1 0 4.53999e-06 -0.0663475
3517 1 49.9355 14.6775 -145.994 0 4.23799 1 0 4.53999e-06 0.528268
8101 1 50.6139 14.5349 -146.632 0 4.42493 2 0 4.53999e-06 0.956906
3232 1 40.8715 10.9568 -92.6922 0 2.9905 2 0 4.53999e-06 -0.321759
8837 1 50.5125 14.2861 -145.835 0 4.39629 2 0 4.53999e-06 0.934146
3218 1 48.697 13.5992 -144.409 0 4.05974 2 0 4.53999e-06 -0.465625
9326 1 49.4946 13.6416 -145.079 0 4.17289 2 0 4.53999e-06 -0.0293329
8056 1 50.4848 13.5813 -145.192 0 4.47126 2 0 4.53999e-06 0.709557
3969 1 48.4413 14.1447 -145.278 0 4.10112 2 0 4.53999e-06 -0.997551
6244 1 48.494 14.7616 -144.34 0 4.03888 2 0 4.53999e-06 -0.566759
6687 1 49.597 15.1138 -145.548 0 4.19995 2 0 4.53999e-06 -0.128359
9426 1 49.9622 14.3722 -145.251 0 4.34441 2 0 4.53999e-06 0.513794
8743 1 49.1942 14.4503 -145.119 0 4.15823 2 0 4.53999e-06 -0.504959
5809 1 49.5818 14.2527 -144.332 0 4.12697 2 0 4.53999e-06 0.273688
8597 1 48.3812 12.7063 -141.106 0 3.58567 3 0 4.53999e-06 -0.313703
4131 1 46.0226 15.0295 -142.25 0 3.55702 3 0 4.53999e-06 -0.956471
4233 1 48.4198 14.754 -142.249 0 4.73951 3 0 4.53999e-06 0.735047
8839 1 50.6787 14.342 -142.22 0 6.24382 3 0 4.53999e-06 0.951147
8265 1 46.5253 13.0865 -139.207 0 3.54744 3 0 4.53999e-06 -0.119882
8900 1 49.4774 13.5682 -139.237 0 4.19035 3 0 4.53999e-06 0.497493
7375 1 51.8021 13.8347 -140.254 0 6.12653 3 0 4.53999e-06 0.636393
4589 1 47.6742 15.168 -140.382 0 4.07425 3 0 4.53999e-06 -0.643981
3691 1 46.4739 14.8713 -137.537 0 3.95238 3 0 4.53999e-06 -0.871312
3871 1 48.7254 15.2444 -138.338 0 4.01532 3 0 4.53999e-06 -0.226602
8322 1 48.2556 14.2644 -136.596 0 4.06337 2 0 4.53999e-06 0.0116338
3209 1 47.5432 13.8602 -135.733 0 3.99566 2 0 4.53999e-06 -0.634863
4592 1 47.7632 14.8435 -135.628 0 4.0715 2 0 4.53999e-06 -0.738196
8645 1 48.6352 14.4288 -135.562 0 4.1954 2 0 4.53999e-06 0.429313
6037 1 48.9867 15.226 -136.16 0 4.52941 2 0 4.53999e-06 0.47165
8058 1 48.0795 13.3497 -134.168 0 3.96391 2 0 4.53999e-06 -0.282474
3690 1 47.2958 14.0066 -134.424 0 3.95955 2 0 4.53999e-06 -0.964939
1568 1 48.5131 15.404 -135.214 0 4.16392 2 0 4.53999e-06 0.00554847
9424 1 48.1561 13.9194 -134.968 0 4.05281 2 0 4.53999e-06 -0.180402
8445 1 47.8866 14.7874 -134.64 0 4.04656 2 0 4.53999e-06 -0.718241
9179 1 48.2311 14.2472 -134.032 0 4.012 1 0 4.53999e-06 -0.87138
1012 1 48.5154 15.0629 -133.832 0 4.0356 2 0 4.53999e-06 0.0105085
8545 1 48.7909 14.7103 -134.633 0 4.29352 2 0 4.53999e-06 0.593838
5815 1 49.5066 14.7534 -135.206 0 4.5541 2 0 4.53999e-06 0.904333
6181 1 49.9159 14.0633 -134.453 0 4.54885 2 0 4.53999e-06 0.91788
9173 1 48.8793 13.9221 -134.357 0 4.15928 2 0 4.53999e-06 0.524396
4517 1 48.2935 13.4626 -132.84 0 3.84761 1 0 4.53999e-06 -0.443016
8216 1 48.8135 13.5393 -133.572 0 3.97216 2 0 4.53999e-06 0.271432
7473 1 49.7703 13.8866 -133.283 0 4.23541 2 0 4.53999e-06 0.968866
8845 1 49.234 13.2723 -132.713 0 3.98315 2 0 4.53999e-06 0.567669
3924 1 47.8018 13.8646 -133.405 0 3.90863 2 0 4.53999e-06 -0.913297
3335 1 47.5542 14.799 -133.563 0 3.93337 2 0 4.53999e-06 -0.810725
1927 1 48.4308 14.4065 -133.265 0 3.94877 1 0 4.53999e-06 -0.474507
3971 1 48.0611 14.2191 -132.566 0 3.82847 1 0 4.53999e-06 -0.920821
1146 1 49.2172 14.4386 -133.777 0 4.22432 2 0 4.53999e-06 0.874283
2550 1 48.965 14.0346 -132.881 0 3.92518 1 0 4.53999e-06 0.932723
1309 1 49.1275 14.8595 -133.002 0 4.12428 2 0 4.53999e-06 0.536044
3516 1 48.9099 13.8862 -132.116 0 3.82275 1 0 4.53999e-06 0.949957
4677 1 48.5953 14.7218 -132.363 0 3.84158 1 0 4.53999e-06 0.0605656
6587 1 49.5253 14.3888 -132.268 0 4.04129 2 0 4.53999e-06 0.944409
8745 1 48.5444 13.2419 -132.111 0 3.7755 1 0 4.53999e-06 0.0150613
8996 1 47.6952 12.8787 -131.626 0 3.67578 2 0 4.53999e-06 -0.539168
8441 1 48.4355 13.3705 -131.442 0 3.72581 1 0 4.53999e-06 0.2254
8646 1 48.4965 12.5841 -131.05 0 3.68414 2 0 4.53999e-06 0.341348
3693 1 47.9993 13.2284 -130.766 0 3.67966 1 0 4.53999e-06 -0.137113
8991 1 47.5221 12.5154 -130.742 0 3.65139 2 0 4.53999e-06 -0.406523
3235 1 47.5758 13.7175 -131.249 0 3.68591 1 0 4.53999e-06 -0.899974
8746 1 49.4784 13.1367 -131.798 0 3.98258 2 0 4.53999e-06 0.806514
8266 1 49.0757 13.3173 -130.968 0 3.71863 1 0 4.53999e-06 0.84012
3639 1 47.8882 13.7342 -131.967 0 3.74354 1 0 4.53999e-06 -0.83092
3515 1 48.3456 14.3141 -131.733 0 3.76306 1 0 4.53999e-06 -0.281285
3277 1 47.4862 14.6048 -131.925 0 3.72973 1 0 4.53999e-06 -0.843279
905 1 48.1384 14.2471 -131.113 0 3.71805 1 0 4.53999e-06 -0.419597
4334 1 47.6214 15.0966 -131.194 0 3.71105 1 0 4.53999e-06 -0.597793
3624 1 47.2888 14.3773 -130.881 0 3.67061 1 0 4.53999e-06 -0.919864
9325 1 49.1692 14.0365 -131.408 0 3.77426 1 0 4.53999e-06 0.971669
1698 1 48.9153 14.8414 -131.608 0 3.80124 1 0 4.53999e-06 0.673589
6034 1 48.5086 13.84 -130.853 0 3.71009 1 0 4.53999e-06 0.788544
8503 1 48.4155 15.254 -131.011 0 3.77491 2 0 4.53999e-06 0.170695
8552 1 48.9609 14.5801 -130.757 0 3.76308 1 0 4.53999e-06 0.835115
3282 1 46.7872 11.7265 -129.545 0 3.57628 2 0 4.53999e-06 -0.436514
2993 1 46.9786 10.7928 -128.869 0 3.55326 2 0 4.53999e-06 0.149449
2996 1 47.9341 10.7045 -128.837 0 3.81935 2 0 4.53999e-06 0.772556
3279 1 47.5917 11.5542 -129.098 0 3.82812 2 0 4.53999e-06 0.839687
4594 1 46.4491 12.573 -129.153 0 3.56065 2 0 4.53999e-06 -0.902644
911 1 46.9637 12.6846 -130.035 0 3.62687 2 0 4.53999e-06 -0.794108
8951 1 48.0854 12.3699 -130.007 0 3.8714 2 0 4.53999e-06 0.54896
1203 1 47.3006 13.4093 -130.489 0 3.65082 1 0 4.53999e-06 -0.929154
9178 1 47.4522 12.5237 -129.273 0 3.82788 2 0 4.53999e-06 0.564529
8843 1 47.8099 13.287 -129.8 0 3.66061 1 0 4.53999e-06 0.269465
6607 1 46.9686 13.4275 -129.48 0 3.61562 2 0 4.53999e-06 -0.4325
8835 1 48.5643 13.2449 -130.218 0 3.68014 1 0 4.53999e-06 0.661394
4068 1 46.1327 14.6012 -130.676 0 3.58236 2 0 4.53999e-06 -0.919998
7104 1 45.896 13.5423 -129.558 0 3.58154 2 0 4.53999e-06 -0.958182
8950 1 47.7875 13.9891 -130.369 0 3.67386 1 0 4.53999e-06 -0.303373
4632 1 47.0442 15.0029 -130.226 0 3.65298 2 0 4.53999e-06 -0.613251
7748 1 47.9726 14.8341 -130.355 0 3.71445 1 0 4.53999e-06 -0.0548033
1449 1 46.7489 14.0054 -130.191 0 3.62135 2 0 4.53999e-06 -0.973025
6817 1 47.5154 14.258 -129.685 0 3.64892 2 0 4.53999e-06 -0.110486
5813 1 48.5032 14.1689 -130.112 0 3.70538 1 0 4.53999e-06 0.540338
6183 1 48.7926 15.2508 -130.08 0 4.06555 2 0 4.53999e-06 0.501609
8057 1 46.7188 9.62087 -127.887 0 3.44171 2 0 4.53999e-06 0.486027
8995 1 45.7369 9.74836 -127.918 0 3.41866 2 0 4.53999e-06 -0.259109
8649 1 45.9912 9.65617 -127.198 0 3.4434 1 0 4.53999e-06 0.299665
3698 1 45.1922 10.4198 -127.836 0 3.41358 2 0 4.53999e-06 -0.807281
3222 1 46.1023 10.4619 -128.385 0 3.45228 2 0 4.53999e-06 -0.279813
8993 1 46.7125 10.5258 -128.053 0 3.50294 1 0 4.53999e-06 0.653968
4126 1 46.3056 11.2774 -128.697 0 3.50083 2 0 4.53999e-06 -0.569878
8438 1 46.5316 10.3035 -127.33 0 3.47237 1 0 4.53999e-06 0.860236
1570 1 45.5605 10.5347 -127.206 0 3.43916 1 0 4.53999e-06 -0.817725