ITEM: TIMESTEP
18500
ITEM: NUMBER OF ATOMS
9495
ITEM: BOX BOUNDS mm mm mm
0.0000000000000000e+00 3.1748021039364001e+01
0.0000000000000000e+00 3.1748021039364001e+01
-7.4072398406925706e-04 3.1748021039364001e+01
ITEM: ATOMS id type x y z c_phase c_temp c_surf c_nbond c_visc f_3[1]
1 1 0.116341 1.10259 0.464337 4 1.21779e-08 2 0 0.0994487 -0.68194
2 1 0.974108 1.6685 0.77798 4 3.19549e-08 2 0 0.0994487 -0.517029
3 1 0.714648 0.793562 1.41295 4 1.72313e-08 2 0 0.0994487 -0.281793
4 1 0.00336375 1.60273 1.37437 4 1.47206e-08 2 0 0.0994487 -0.804051
5 1 0.729896 0.0633724 0.61602 4 1.08606e-08 3 0 0.0994487 -0.190373
6 1 1.71015 0.808983 1.0155 4 4.50771e-08 2 0 0.0994487 -0.332065
7 1 1.80059 1.47468 0.221075 4 5.4191e-08 2 0 0.0994487 -0.125827
8 1 1.82015 1.66049 1.76126 4 6.39299e-08 2 0 0.0994487 -0.139531
9 1 2.52093 0.749102 0.203812 4 7.72029e-08 2 0 0.0994487 -0.142937
10 1 2.59149 0.0538711 1.03726 4 7.10864e-08 2 0 0.0994487 -0.295003
11 1 2.64922 1.541 0.882848 4 1.31626e-07 2 0 0.0994487 0.235774
12 1 2.66829 0.815502 1.7457 4 9.70627e-08 2 0 0.0994487 -0.187038
13 1 3.43386 0.933692 0.956349 4 2.16352e-07 2 0 0.0994487 0.320258
14 1 3.49924 0.0925696 1.70571 4 1.3688e-07 2 0 0.0994487 0.178056
15 1 3.60652 1.70798 1.71994 4 3.31535e-07 2 0 0.0994487 0.0487997
16 1 4.10576 0.858321 0.325305 4 3.78679e-07 2 0 0.0994487 0.153152
17 1 4.96159 0.56786 1.17466 4 8.33874e-07 2 0 0.0994487 -0.0370581
18 1 4.91949 1.59987 0.383508 4 1.15603e-06 2 0 0.0994487 -0.10024
19 1 4.3472 0.941527 1.62884 4 4.94524e-07 2 0 0.0994487 0.110745
20 1 3.47612 0.111428 0.171027 4 1.25725e-07 2 0 0.0994487 0.166217
21 1 5.64741 0.645627 0.325839 4 1.51515e-06 2 0 0.0994487 -0.0805987
22 1 5.88414 1.31048 0.938036 4 2.3908e-06 2 0 0.0994487 -0.199528
23 1 6.57478 1.39104 0.218369 4 4.24055e-06 2 0 0.0994487 -0.0861244
24 1 5.78374 0.460658 1.69897 4 1.50403e-06 2 0 0.0994487 -0.0846458
25 1 5.03122 1.72414 1.43602 4 1.29429e-06 2 0 0.0994487 0.0453823
26 1 6.7138 0.39031 0.865278 4 3.41554e-06 2 0 0.0994487 -0.0793732
27 1 6.69104 1.00962 1.69374 4 3.79519e-06 2 0 0.0994487 -0.107914
28 1 8.2679 0.408875 1.07337 4 1.06276e-05 2 0 0.0994487 -0.100154
29 1 7.36782 1.22285 0.954198 4 7.50484e-06 2 0 0.0994487 -0.302493
30 1 8.24709 1.39092 0.236779 4 1.48275e-05 2 0 0.0994487 -0.0460515
31 1 8.12868 1.27217 1.60653 4 1.26173e-05 2 0 0.0994487 -0.00810456
32 1 7.58247 0.647807 0.140287 4 6.9163e-06 2 0 0.0994487 -0.110928
33 1 8.85849 0.508506 0.273966 4 1.60716e-05 2 0 0.0994487 -0.0616364
34 1 9.55301 0.3386 0.888639 4 2.49598e-05 2 0 0.0994487 0.00507914
35 1 9.02586 1.30716 1.1133 4 2.54535e-05 2 0 0.0994487 -0.0605986
37 1 9.63995 1.37474 0.0900752 4 3.47896e-05 2 0 0.0994487 0.099302
38 1 11.2128 0.215893 0.632658 4 7.21513e-05 2 0 0.0994487 0.203524
39 1 10.3637 1.04743 0.823114 4 5.48939e-05 2 0 0.0994487 0.539928
40 1 10.523 0.196295 1.44539 4 4.49849e-05 2 0 0.0994487 0.0644411
41 1 11.2856 1.01846 1.41785 4 0.000107611 2 0 0.0994487 0.164739
42 1 10.5797 1.67706 1.72992 4 8.5119e-05 2 0 0.0994487 0.118181
43 1 10.2431 0.367861 0.0780499 4 3.3046e-05 2 0 0.0994487 0.14981
44 1 12.8757 0.211714 0.636805 4 0.000221388 2 0 0.0994487 0.0588098
45 1 12.0457 1.07408 0.506655 4 0.000188192 2 0 0.0994487 -0.0235234
46 1 12.1319 0.316439 1.29957 4 0.000148557 2 0 0.0994487 0.0188622
47 1 12.7194 1.19864 1.3723 4 0.000303243 2 0 0.0994487 -0.0304844
48 1 14.3729 0.318493 0.764646 4 0.000535509 2 0 0.0994487 -0.0460149
49 1 13.5924 1.113 0.843618 4 0.000498099 2 0 0.0994487 -0.262981
50 1 14.0399 1.55958 0.167469 4 0.00074088 2 0 0.0994487 -0.0898022
51 1 13.6075 0.359834 1.6352 4 0.000348193 2 0 0.0994487 -0.0562421
52 1 14.3777 1.14948 1.47647 4 0.000697147 2 0 0.0994487 -0.0177923
53 1 14.8761 1.55337 0.662943 4 0.00107174 2 0 0.0994487 0.390023
54 1 15.7061 0.770636 0.788259 4 0.00115218 2 0 0.0994487 0.366537
55 1 16.5532 1.54451 0.681338 4 0.00248638 2 0 0.0994487 0.000887887
56 1 15.1422 0.4642 1.64149 4 0.000749089 2 0 0.0994487 0.152101
57 1 16.547 0.712289 1.3421 4 0.00178006 2 0 0.0994487 0.0956822
58 1 15.6341 1.48544 1.3916 4 0.00152168 2 0 0.0994487 0.153692
59 1 15.1049 0.711806 0.0677822 4 0.000743677 2 0 0.0994487 0.16922
60 1 17.2544 0.732268 0.547589 4 0.00236165 2 0 0.0994487 0.0286749
61 1 17.9231 1.58109 0.757246 4 0.00430102 2 0 0.0994487 0.0416512
62 1 17.916 0.742935 1.42801 4 0.00314035 2 0 0.0994487 -0.224314
63 1 17.2202 1.74884 1.56274 4 0.00371302 2 0 0.0994487 -0.0984236
64 1 19.5372 0.0167772 0.662766 4 0.00345348 2 0 0.0994487 0.0436706
65 1 18.7918 0.725074 0.684829 4 0.00383878 2 0 0.0994487 -0.269895
66 1 19.5395 1.55488 0.841653 4 0.00657444 2 0 0.0994487 -0.341054
67 1 19.0276 0.158607 1.54508 4 0.00334689 2 0 0.0994487 -0.158639
68 1 19.5934 0.967491 1.68957 4 0.00498085 2 0 0.0994487 0.00839818
69 1 18.6564 1.51302 1.50035 4 0.00523313 2 0 0.0994487 -0.250222
70 1 21.0889 0.349843 1.06749 4 0.00517851 2 0 0.0994487 -0.196078
71 1 20.2493 0.776373 0.980057 4 0.00534053 2 0 0.0994487 -0.0496608
72 1 21.1062 1.65725 0.951506 4 0.00871073 2 0 0.0994487 0.69315
73 1 21.1874 0.765598 0.218806 4 0.00572266 2 0 0.0994487 -0.0445533
74 1 20.3457 1.51479 0.193617 4 0.00723809 2 0 0.0994487 -0.0805612
75 1 22.0087 0.262534 0.539755 4 0.00528708 2 0 0.0994487 0.0993999
76 1 22.7913 0.430275 1.40734 4 0.0058669 2 0 0.0994487 0.206662
77 1 22.1105 1.14763 1.32981 4 0.00738166 2 0 0.0994487 0.240151
78 1 21.9982 1.59955 0.538558 4 0.00933504 2 0 0.0994487 0.185252
79 1 22.9157 1.07463 0.445168 4 0.00748388 2 0 0.0994487 0.0521528
80 1 24.228 0.380179 1.45209 4 0.00590626 2 0 0.0994487 0.0576629
81 1 23.5672 0.357563 0.57369 4 0.00588867 2 0 0.0994487 0.0386244
82 1 24.4367 1.18687 0.754729 4 0.00842967 2 0 0.0994487 -0.0191688
83 1 23.4757 1.2499 1.4028 4 0.00879229 2 0 0.0994487 0.0299722
84 1 24.955 0.315686 0.551996 4 0.00532369 2 0 0.0994487 -0.0171506
85 1 26.0085 0.383365 1.1715 4 0.00447111 2 0 0.0994487 -0.185815
86 1 25.169 1.12579 1.48087 4 0.00762525 2 0 0.0994487 0.0251648
87 1 25.9301 1.73476 1.35794 4 0.00928212 2 0 0.0994487 0.0346136
88 1 25.8917 0.929212 0.432102 4 0.00565364 2 0 0.0994487 -0.09537
89 1 27.5736 1.28032 0.38906 4 0.00393876 2 0 0.0994487 0.0454811
90 1 27.6142 0.50928 0.874321 4 0.00297525 2 0 0.0994487 0.175423
91 1 26.7559 1.02809 1.26347 4 0.00463705 2 0 0.0994487 -0.236802
92 1 28.3748 0.337482 1.39813 4 0.00210102 2 0 0.0994487 0.00986939
93 1 26.7925 0.240345 0.226621 4 0.00325732 2 0 0.0994487 0.0380954
94 1 28.6489 1.24263 0.742341 4 0.00270242 2 0 0.0994487 0.102444
95 1 29.3912 0.945639 1.56878 4 0.00172302 2 0 0.0994487 -0.0191853
96 1 28.5228 1.71921 1.49749 4 0.00338374 2 0 0.0994487 -0.0429464
97 1 29.8133 0.173958 1.46124 4 0.00115365 2 0 0.0994487 0.133423
98 1 29.2734 0.3547 0.615275 4 0.00145035 2 0 0.0994487 -0.08167
99 1 31.5874 0.266128 1.25663 4 0.000557956 3 0 0.0994487 0.830097
100 1 30.7016 0.49015 0.470738 4 0.000913066 2 0 0.0994487 0.354854
101 1 30.1009 1.19877 0.774133 4 0.00149649 2 0 0.0994487 0.210938
102 1 30.8649 0.971942 1.39386 4 0.00105548 2 0 0.0994487 0.703284
103 1 1.11081 2.43607 0.129285 4 4.1263e-08 2 0 0.0994487 -0.037321
104 1 0.133403 2.3821 0.812241 4 2.37434e-08 2 0 0.0994487 -0.984517
105 1 1.28845 3.23764 0.949187 4 8.30349e-08 2 0 0.0994487 0.222107
106 1 1.13977 2.36077 1.59162 4 4.94197e-08 2 0 0.0994487 -0.222188
107 1 0.386685 3.02999 1.54944 4 3.73729e-08 2 0 0.0994487 -0.671256
108 1 0.332248 3.09582 0.131296 4 3.25173e-08 2 0 0.0994487 -0.591339
109 1 1.90972 2.41867 0.78376 4 9.70285e-08 2 0 0.0994487 0.0782167
110 1 2.65852 3.28029 0.860875 4 3.11217e-07 2 0 0.0994487 0.066813
111 1 2.66931 2.22918 1.53373 4 1.80908e-07 2 0 0.0994487 0.0829598
112 1 3.2579 3.42668 1.64938 4 5.64878e-07 2 0 0.0994487 0.00398053
113 1 2.7261 2.38168 0.0557193 4 1.60699e-07 2 0 0.0994487 0.146603
114 1 3.38195 2.55413 0.779289 4 4.17914e-07 2 0 0.0994487 0.211593
115 1 4.00679 1.841 0.711184 4 5.57586e-07 2 0 0.0994487 -0.0361121
116 1 4.91383 2.57277 0.815661 4 1.79159e-06 2 0 0.0994487 -0.25933
117 1 4.20148 3.3175 0.749446 4 1.32794e-06 2 0 0.0994487 0.00622529
118 1 4.13245 2.64107 1.58328 4 8.77538e-07 2 0 0.0994487 0.0270849
119 1 5.65047 2.44269 0.132743 4 3.01764e-06 2 0 0.0994487 -0.189919
120 1 6.55776 2.18062 0.772597 4 5.93331e-06 2 0 0.0994487 -0.289306
121 1 5.64874 3.19593 0.952489 4 4.44942e-06 2 0 0.0994487 -0.754593
122 1 5.861 2.19426 1.49672 4 3.23049e-06 2 0 0.0994487 0.0126452
123 1 6.52037 3.06691 1.5557 4 8.32689e-06 2 0 0.0994487 0.0443676
124 1 6.65033 2.92778 0.134227 4 7.80215e-06 2 0 0.0994487 0.0288951
125 1 7.45405 2.22586 0.139832 4 1.18225e-05 2 0 0.0994487 -0.0534915
126 1 8.08209 2.20208 0.930382 4 1.99444e-05 2 0 0.0994487 -0.301979
127 1 7.40132 3.06835 0.934051 4 1.77483e-05 2 0 0.0994487 -0.0453972
128 1 7.29928 2.06035 1.56856 4 9.79268e-06 2 0 0.0994487 -0.0607223
129 1 8.18545 3.00183 1.65211 4 3.04716e-05 2 0 0.0994487 -0.0454048
130 1 8.26934 2.9712 0.0392146 4 3.17085e-05 2 0 0.0994487 -0.150608
131 1 8.90393 2.08699 0.252387 4 3.20613e-05 2 0 0.0994487 0.00244836
132 1 9.77243 2.0246 1.10996 4 5.96818e-05 2 0 0.0994487 0.173528
133 1 8.92671 2.97262 0.928693 4 5.43699e-05 2 0 0.0994487 -0.156647
134 1 9.03062 2.22066 1.70398 4 3.85779e-05 2 0 0.0994487 -0.0819558
135 1 9.56096 2.90576 0.21312 4 7.45917e-05 2 0 0.0994487 0.173134
136 1 10.2834 2.1137 0.214297 4 7.4928e-05 2 0 0.0994487 0.337751
137 1 11.1583 1.82604 0.771092 4 0.000142093 2 0 0.0994487 0.260133
138 1 10.6214 2.80819 0.921535 4 0.000163938 2 0 0.0994487 0.541976
139 1 11.4444 2.82964 1.57484 4 0.000294548 2 0 0.0994487 0.0952282
140 1 12.6737 1.94118 0.593851 4 0.00043724 2 0 0.0994487 -0.28389
141 1 11.928 2.64099 0.742299 4 0.000372879 2 0 0.0994487 -0.03863
142 1 11.9239 1.9206 1.46509 4 0.000252589 2 0 0.0994487 0.0946896
143 1 12.8449 3.01766 1.68597 4 0.000764772 2 0 0.0994487 0.0363837
144 1 13.1791 3.03035 0.848852 4 0.000982613 2 0 0.0994487 -0.440768
145 1 13.3784 1.9912 1.48064 4 0.00063126 2 0 0.0994487 -0.0150396
146 1 14.0206 2.44438 0.927124 4 0.00114849 2 0 0.0994487 -0.132928
147 1 14.0279 3.38359 1.55716 4 0.00182088 2 0 0.0994487 0.0256076
148 1 14.6961 3.43698 0.884932 4 0.0027047 2 0 0.0994487 -0.332646
149 1 14.7823 2.29758 1.44821 4 0.00152719 2 0 0.0994487 0.046964
150 1 14.8418 2.51505 0.136557 4 0.00170985 2 0 0.0994487 0.173034
151 1 14.1591 3.2262 0.0325348 4 0.00179809 2 0 0.0994487 -0.246085
152 1 13.4137 2.29398 0.0590902 4 0.000766704 2 0 0.0994487 -0.280942
153 1 15.6993 2.44373 0.692668 4 0.00258417 2 0 0.0994487 0.36449
154 1 16.3029 3.20095 0.662084 4 0.0049464 2 0 0.0994487 0.328677
155 1 16.308 2.47951 1.52575 4 0.00361895 2 0 0.0994487 -0.100588
156 1 15.3694 3.25723 1.50191 4 0.00343997 2 0 0.0994487 -0.00762539
157 1 15.5706 3.25854 0.0192499 4 0.00325489 2 0 0.0994487 0.290263
158 1 17.0646 2.35032 0.682778 4 0.00458918 2 0 0.0994487 0.023557
159 1 17.944 2.92608 0.699539 4 0.00890255 2 0 0.0994487 -0.231102
160 1 18.0193 2.43917 1.58112 4 0.00697087 2 0 0.0994487 -0.14906
161 1 17.0918 3.1162 1.49491 4 0.0070546 2 0 0.0994487 -0.143351
162 1 18.8908 2.35742 1.01358 4 0.00857798 2 0 0.0994487 -0.516638
163 1 19.7027 3.2427 1.27782 4 0.0161032 2 0 0.0994487 0.395024
164 1 18.884 2.99607 0.196019 4 0.011731 2 0 0.0994487 -0.171761
165 1 19.587 2.34239 0.101452 4 0.00970161 2 0 0.0994487 -0.132331
166 1 20.3251 1.78863 1.72442 4 0.00793725 2 0 0.0994487 0.0450154
167 1 21.1565 2.41663 0.458355 4 0.0135509 2 0 0.0994487 0.196263
168 1 20.1948 2.46882 1.11433 4 0.0115606 2 0 0.0994487 0.28707
169 1 21.31 3.29463 1.39314 4 0.0246916 2 0 0.0994487 0.0778325
170 1 20.4222 2.99313 0.334941 4 0.0160105 2 0 0.0994487 0.186358
171 1 22.8719 2.07007 1.50872 4 0.0142508 2 0 0.0994487 -0.0220429
172 1 22.9717 2.60199 0.735523 4 0.0215901 2 0 0.0994487 0.133464
173 1 22.0961 2.49917 1.23787 4 0.0174821 2 0 0.0994487 0.186609
174 1 21.9898 3.20043 0.598797 4 0.0275249 2 0 0.0994487 -0.0756189
175 1 22.6771 3.40124 0.07601 4 0.0333236 2 0 0.0994487 0.0761134
176 1 23.7438 1.80844 0.624025 4 0.0122495 2 0 0.0994487 -0.087266
177 1 24.4289 1.98763 1.61102 4 0.0142486 2 0 0.0994487 -0.0641178
178 1 24.342 2.68296 0.775192 4 0.0235457 2 0 0.0994487 -0.340958
179 1 23.6887 2.90303 1.53628 4 0.0291667 2 0 0.0994487 -0.114355
180 1 24.4728 3.51078 1.55704 4 0.0611554 2 0 0.0994487 -0.128206
181 1 24.9562 2.84566 0.0146836 4 0.0216053 2 0 0.0994487 -0.08643
182 1 26.5483 1.79415 0.511367 4 0.00761711 2 0 0.0994487 -0.00554657
183 1 25.1322 1.85613 0.509414 4 0.0117976 2 0 0.0994487 -0.0214642
184 1 25.7918 2.61203 0.707489 4 0.0178344 2 0 0.0994487 0.228306
185 1 25.1579 2.55548 1.52547 4 0.020601 2 0 0.0994487 0.0581861
186 1 25.7213 3.49812 1.51211 4 0.0423513 2 0 0.0994487 0.138851
187 1 26.5364 2.56002 1.53049 4 0.0131451 2 0 0.0994487 0.0580065
188 1 26.1686 3.50068 0.599043 4 0.0301017 2 0 0.0994487 0.168922
189 1 27.5039 1.98546 1.23792 4 0.00592375 2 0 0.0994487 -0.186332
190 1 28.2489 2.09022 0.343734 4 0.00455334 2 0 0.0994487 -0.0177
191 1 27.0867 2.6924 0.645359 4 0.0111581 2 0 0.0994487 -0.105531
192 1 27.1998 3.35397 1.41682 4 0.0164954 2 0 0.0994487 -0.0982378
193 1 28.2537 2.75799 1.20639 4 0.00665676 2 0 0.0994487 -0.418242
194 1 27.982 3.21993 0.326384 4 0.00952107 2 0 0.0994487 -0.125235
195 1 29.9568 1.80906 1.70764 4 0.00199903 2 0 0.0994487 0.18321
196 1 29.4477 2.04702 0.879698 4 0.00279512 2 0 0.0994487 -0.00702562
197 1 29.1956 2.6589 0.290703 4 0.00398873 2 0 0.0994487 -0.0578132
198 1 29.2495 3.2651 1.17365 4 0.00543541 2 0 0.0994487 0.118678
199 1 30.9114 1.98502 0.924207 4 0.00168511 2 0 0.0994487 0.967258
200 1 30.1815 2.71094 1.00186 4 0.00280056 2 0 0.0994487 0.67519
201 1 31.0247 3.35309 0.97101 4 0.00282838 2 0 0.0994487 0.99841
202 1 30.9865 2.69483 1.72648 4 0.00213826 2 0 0.0994487 0.578507
203 1 30.1092 3.25953 0.132205 4 0.00334235 2 0 0.0994487 -0.0443593
204 1 30.4116 1.90909 0.0255368 4 0.00172627 2 0 0.0994487 0.106049
205 1 31.1434 2.66402 0.0761253 4 0.00192118 2 0 0.0994487 0.708822
206 1 0.293831 3.78503 0.918557 4 4.90642e-08 2 0 0.0994487 -0.999347
207 1 0.143046 4.59443 0.482118 4 5.8321e-08 2 0 0.0994487 -0.784494
208 1 1.14036 4.67093 0.986638 4 1.39721e-07 2 0 0.0994487 -0.516747
209 1 0.0884667 5.26681 1.27761 4 7.27966e-08 2 0 0.0994487 -0.887458
210 1 1.04069 3.86421 0.0595682 4 7.78835e-08 2 0 0.0994487 0.0148889
211 1 1.84117 4.04604 0.847105 4 2.10026e-07 2 0 0.0994487 0.00827955
212 1 2.54049 4.85585 1.13748 4 5.64388e-07 2 0 0.0994487 -0.333838
213 1 2.64953 4.14475 0.20674 4 4.60508e-07 2 0 0.0994487 -0.0285694
214 1 1.89758 4.96895 0.278386 4 3.2074e-07 2 0 0.0994487 -0.153431
215 1 3.40771 4.86189 0.161635 4 1.23157e-06 2 0 0.0994487 -0.0163841
216 1 3.494 4.07675 0.885909 4 9.90583e-07 2 0 0.0994487 0.0269106
217 1 4.91235 4.00001 1.18344 4 3.43109e-06 2 0 0.0994487 0.0115444
218 1 4.04658 4.88002 1.14639 4 2.28825e-06 2 0 0.0994487 0.264501
219 1 4.26027 4.18509 0.149001 4 1.98028e-06 2 0 0.0994487 0.0377426
220 1 5.00947 4.74001 0.341082 4 4.97653e-06 2 0 0.0994487 0.0765479
221 1 5.77735 3.9378 0.198707 4 6.08103e-06 2 0 0.0994487 0.0260218
222 1 6.48883 3.76611 0.772067 4 1.12355e-05 2 0 0.0994487 0.204575
223 1 5.68025 4.73638 1.02487 4 9.36494e-06 2 0 0.0994487 -0.621596
224 1 6.66321 4.5115 1.6428 4 1.77333e-05 2 0 0.0994487 0.158943
225 1 6.68072 5.1315 0.885352 4 2.54938e-05 2 0 0.0994487 0.206899
226 1 8.1982 3.892 0.700757 4 5.0914e-05 2 0 0.0994487 -0.369872
227 1 7.40842 4.46072 0.5468 4 3.44895e-05 2 0 0.0994487 -0.0251973
228 1 7.39886 3.87029 1.49684 4 2.51115e-05 2 0 0.0994487 0.102592
229 1 8.20004 4.61106 1.48677 4 6.92418e-05 2 0 0.0994487 -0.0118216
230 1 9.8976 3.57792 0.885667 4 0.000148414 2 0 0.0994487 0.59296
231 1 9.07913 4.56551 0.821335 4 0.000132481 2 0 0.0994487 -0.65849
232 1 9.86266 4.50302 0.126324 4 0.000195707 2 0 0.0994487 0.0958782
233 1 9.07829 3.76256 1.49819 4 9.08507e-05 2 0 0.0994487 -0.0708702
234 1 9.86881 4.3462 1.65532 4 0.000211353 2 0 0.0994487 -0.0856475
235 1 8.98541 3.86821 0.0631775 4 8.32954e-05 2 0 0.0994487 -0.138744
236 1 11.408 3.64493 0.778297 4 0.000438688 2 0 0.0994487 0.202107
237 1 10.5891 4.66652 0.906264 4 0.000402146 2 0 0.0994487 0.0452004
238 1 11.3867 4.69403 0.230734 4 0.000692694 2 0 0.0994487 -0.049871
239 1 10.7059 3.56689 1.58785 4 0.000262343 2 0 0.0994487 -0.044827
240 1 11.3652 4.3716 1.70545 4 0.000592958 2 0 0.0994487 -0.0798061
241 1 11.3894 5.27213 0.983682 4 0.000904003 2 0 0.0994487 -0.674397
242 1 10.5826 3.84888 0.176129 4 0.000251112 2 0 0.0994487 0.21048
243 1 12.5168 3.57716 0.814749 4 0.000873162 2 0 0.0994487 -0.0105216
244 1 12.1916 4.55033 1.00021 4 0.00111851 2 0 0.0994487 0.105203
245 1 12.7362 4.99738 1.68903 4 0.00175425 2 0 0.0994487 0.191356
246 1 13.2258 4.67863 0.80017 4 0.00225861 2 0 0.0994487 -0.00457427
247 1 12.6435 4.61885 0.0632315 4 0.00153587 2 0 0.0994487 -0.0335605
248 1 13.9891 4.12825 0.69648 4 0.00272591 2 0 0.0994487 -0.430094
249 1 13.4832 4.21781 1.59317 4 0.00200493 2 0 0.0994487 0.0820514
250 1 14.2046 5.11838 1.52001 4 0.00474116 2 0 0.0994487 -0.0289548
251 1 14.9402 5.01141 0.811699 4 0.00662677 2 0 0.0994487 -0.0518423
252 1 14.9642 4.4167 1.59432 4 0.00505429 2 0 0.0994487 -0.0635269
253 1 14.1405 4.90647 0.0597868 4 0.00407458 2 0 0.0994487 -0.085667
254 1 14.961 4.19423 0.096508 4 0.00426085 2 0 0.0994487 0.0323013
255 1 15.6685 4.06642 0.926277 4 0.00588417 2 0 0.0994487 0.872653
256 1 15.8798 4.77595 0.186426 4 0.00887332 2 0 0.0994487 0.165432
257 1 16.5936 4.58036 0.900182 4 0.0117062 2 0 0.0994487 -0.0785373
258 1 16.3184 3.95875 1.6903 4 0.00759393 2 0 0.0994487 -0.043347
259 1 15.8111 5.05317 1.64084 4 0.00991431 2 0 0.0994487 0.0995407
260 1 17.2689 3.83372 0.811237 4 0.0109795 2 0 0.0994487 -0.345252
261 1 18.0864 4.48855 1.09806 4 0.0196371 2 0 0.0994487 -0.611478
262 1 17.9525 3.63794 1.65602 4 0.0125558 2 0 0.0994487 -0.192739
263 1 17.4569 4.57727 0.0147963 4 0.0152624 2 0 0.0994487 -0.0973692
264 1 18.1348 3.8547 0.0583493 4 0.0140773 2 0 0.0994487 -0.120476
265 1 18.8779 3.70667 0.95022 4 0.0168204 2 0 0.0994487 0.0698154
266 1 18.8235 4.60949 0.361826 4 0.0249618 2 0 0.0994487 0.115678
267 1 19.6906 4.67872 1.0803 4 0.0371145 2 0 0.0994487 0.931594
268 1 18.7859 5.27693 1.20102 4 0.0372686 2 0 0.0994487 0.599678
269 1 19.5987 3.76722 0.227421 4 0.0201612 2 0 0.0994487 0.164327
270 1 20.4384 3.82188 1.23329 4 0.0280084 2 0 0.0994487 0.326124
271 1 20.8846 4.71868 1.39403 4 0.0575459 2 0 0.0994487 0.14919
272 1 21.5775 4.95128 0.810455 4 0.0834703 2 0 0.0994487 -0.00341326
273 1 21.0824 3.93136 0.512408 4 0.0354788 2 0 0.0994487 0.0884052
274 1 20.1339 4.78559 0.352846 4 0.0448304 2 0 0.0994487 0.145664
275 1 22.8205 3.63186 1.42135 4 0.0442663 2 0 0.0994487 -0.0246726
276 1 21.9406 4.13318 1.31068 4 0.05152 2 0 0.0994487 0.0271965
277 1 22.4705 5.17735 1.27286 4 0.120684 2 0 0.0994487 0.00947611
278 1 22.6119 4.34705 0.510028 4 0.0663818 2 0 0.0994487 -0.0220084
279 1 23.5735 3.63903 0.782677 4 0.0488632 2 0 0.0994487 0.184032
280 1 24.336 4.32055 0.625018 4 0.0836959 2 0 0.0994487 -0.149227
281 1 23.4679 4.54946 1.33355 4 0.109361 2 0 0.0994487 -0.116055
282 1 24.8518 5.25716 0.566763 4 0.139455 2 0 0.0994487 0.0398392
283 1 23.5518 5.06386 0.533607 4 0.125487 2 0 0.0994487 -0.0967798
284 1 25.0086 4.50055 1.62342 4 0.160577 2 0 0.0994487 -0.0401661
285 1 25.0629 3.68037 0.802132 4 0.0497446 2 0 0.0994487 -0.185977
286 1 24.363 5.28843 1.43377 4 0.206605 2 0 0.0994487 -0.239286
287 1 25.6904 5.1389 1.34266 4 0.147134 2 0 0.0994487 0.319137
288 1 26.3575 4.29031 1.37159 4 0.0552575 2 0 0.0994487 0.173447
289 1 26.5026 4.97257 0.640732 4 0.0683042 2 0 0.0994487 0.0994065
290 1 25.5284 4.40089 0.388179 4 0.0679008 2 0 0.0994487 0.0560058
291 1 27.3302 4.86961 1.40568 4 0.0425705 2 0 0.0994487 0.0110358
292 1 27.9624 3.97641 1.10408 4 0.0162546 2 0 0.0994487 -0.309378
293 1 28.2771 4.73475 0.706344 4 0.0217469 2 0 0.0994487 -0.0812154
294 1 27.0674 4.04323 0.570038 4 0.02784 2 0 0.0994487 0.0120743
295 1 28.9321 3.77016 0.487204 4 0.00827379 2 0 0.0994487 -0.00702044
296 1 29.0873 4.52317 1.33085 4 0.0120027 2 0 0.0994487 0.0574922
297 1 29.9979 4.07209 1.02303 4 0.00567068 2 0 0.0994487 -0.275151
298 1 31.0296 3.97382 0.373364 4 0.00357673 2 0 0.0994487 0.657579
299 1 30.2046 4.67765 0.491317 4 0.00707656 2 0 0.0994487 0.00995508
300 1 30.9783 4.59929 1.41131 4 0.00486417 2 0 0.0994487 0.679904
301 1 0.908283 5.53205 0.461647 4 1.62704e-07 2 0 0.0994487 -0.463784
302 1 1.53161 5.51184 1.37971 4 2.72144e-07 2 0 0.0994487 -0.117385
303 1 0.793684 6.22023 1.2768 4 1.89648e-07 2 0 0.0994487 -0.70338
304 1 0.257003 6.91734 1.50738 4 1.51466e-07 2 0 0.0994487 -0.772633
305 1 0.969942 6.9454 0.573423 4 2.87405e-07 2 0 0.0994487 -0.473532
306 1 1.7053 7.02884 1.23811 4 5.35899e-07 2 0 0.0994487 0.0665211
307 1 1.89588 6.19966 0.519025 4 5.10062e-07 2 0 0.0994487 -0.156397
308 1 3.10475 5.61709 1.30057 4 1.25356e-06 2 0 0.0994487 0.0402577
309 1 2.26359 6.15348 1.40977 4 6.56652e-07 2 0 0.0994487 0.0408588
310 1 3.25442 6.96226 1.12748 4 2.54903e-06 2 0 0.0994487 -0.0541176
311 1 2.68177 5.61289 0.273587 4 8.5163e-07 2 0 0.0994487 -0.0596824
312 1 3.39503 6.28191 0.500536 4 2.32805e-06 2 0 0.0994487 -0.121437
313 1 4.18979 5.46246 0.325783 4 3.34179e-06 2 0 0.0994487 0.0310239
314 1 4.93434 5.42873 1.31778 4 7.0473e-06 2 0 0.0994487 -0.235091
315 1 4.13622 6.09659 1.22779 4 4.42964e-06 2 0 0.0994487 -0.0893818
316 1 4.82567 6.23357 0.333842 4 8.25243e-06 2 0 0.0994487 -0.0345689
317 1 4.77312 6.79931 1.15967 4 1.0534e-05 2 0 0.0994487 -0.30592
318 1 4.00267 7.02511 0.221759 4 5.11233e-06 2 0 0.0994487 -0.0853393
319 1 5.78575 5.42185 0.301847 4 1.30772e-05 2 0 0.0994487 0.0125096
320 1 5.6935 6.24342 0.9632 4 1.82353e-05 2 0 0.0994487 -0.967767
321 1 6.4578 5.98425 1.59671 4 2.97155e-05 2 0 0.0994487 0.140923
322 1 6.43234 6.86927 1.00965 4 4.36921e-05 2 0 0.0994487 0.851691
323 1 6.37773 6.04115 0.154639 4 2.4965e-05 2 0 0.0994487 0.111119
324 1 5.54993 7.05206 0.147147 4 1.9448e-05 2 0 0.0994487 0.0363918
325 1 8.21355 5.31419 0.694273 4 9.74159e-05 2 0 0.0994487 -0.089558
326 1 7.32761 6.15925 0.754293 4 6.68741e-05 2 0 0.0994487 0.225756
327 1 7.39163 5.41839 1.49138 4 5.07912e-05 2 0 0.0994487 0.136766
328 1 8.23884 6.11028 1.49159 4 0.000139816 2 0 0.0994487 0.0187524
329 1 8.01352 6.85364 0.728993 4 0.000159683 2 0 0.0994487 0.0692078
330 1 7.28191 6.86379 1.59601 4 9.14561e-05 2 1 0.0994487 0.126055
331 1 7.33029 5.3575 0.0461812 4 4.14183e-05 2 0 0.0994487 0.0813642
332 1 9.76796 5.3194 0.792562 4 0.000294574 2 0 0.0994487 0.328504
333 1 8.88016 6.18865 0.736908 4 0.000236784 2 0 0.0994487 -0.235511
334 1 9.05434 5.3271 1.5973 4 0.000182077 2 0 0.0994487 -0.0628178
335 1 9.73844 6.19052 1.46731 4 0.00044804 2 0 0.0994487 -0.106421
336 1 9.09351 6.95013 1.463 4 0.000406545 2 2 0.0994487 -0.0757888
337 1 9.76329 6.23201 0.0941385 4 0.000416616 2 0 0.0994487 -0.035942
338 1 8.99733 5.46479 0.012702 4 0.000170011 2 0 0.0994487 -0.134746
339 1 10.5831 6.02196 0.964384 4 0.000726631 2 0 0.0994487 -0.356308
340 1 11.3128 6.37134 0.0776634 4 0.00112345 2 0 0.0994487 0.100354
341 1 10.5187 6.94145 0.15452 4 0.000902299 2 0 0.0994487 -0.0735262
342 1 10.4686 6.92564 1.49614 4 0.00102515 2 1 0.0994487 -0.0634645
343 1 11.9994 5.6274 0.183157 4 0.00140557 2 0 0.0994487 -0.0105114
344 1 12.6757 5.81849 0.861776 4 0.00253627 2 0 0.0994487 0.0818365
345 1 11.7774 6.20735 1.05291 4 0.00165041 2 0 0.0994487 0.292354
346 1 13.3219 5.86668 1.55471 4 0.00374221 2 0 0.0994487 0.208196
347 1 13.3506 6.58297 0.813679 4 0.00557413 2 0 0.0994487 -0.292047
348 1 13.3212 5.53867 0.0424813 4 0.00330122 2 0 0.0994487 -0.142888
349 1 14.0617 5.71565 0.77266 4 0.00572603 2 0 0.0994487 -0.372418
350 1 14.3278 6.65176 1.40646 4 0.0107976 2 1 0.0994487 -0.103103
351 1 14.1303 6.38483 0.0380077 4 0.00708517 2 0 0.0994487 -0.0825921
352 1 15.0282 5.64393 0.034369 4 0.00859392 2 0 0.0994487 0.0573914
353 1 15.8305 5.73813 0.95832 4 0.0145672 2 0 0.0994487 0.625961
354 1 15.0472 6.45091 0.806774 4 0.0138229 2 0 0.0994487 -0.175949
355 1 16.491 6.45257 1.1401 4 0.0289102 2 0 0.0994487 0.208447
356 1 15.1058 5.87594 1.69804 4 0.0114662 2 0 0.0994487 -0.0976346
357 1 16.62 5.41933 0.276819 4 0.0167604 2 0 0.0994487 0.0799769
358 1 15.6753 6.3382 0.0390223 4 0.0160836 2 0 0.0994487 0.0398753
359 1 17.8271 5.30128 0.541411 4 0.0254548 2 0 0.0994487 0.150407
360 1 17.113 5.42499 1.24767 4 0.0219523 2 0 0.0994487 -0.286461
361 1 17.0619 6.27419 0.411469 4 0.0311169 2 0 0.0994487 0.139006
362 1 17.6649 6.24649 1.38542 4 0.0415133 2 0 0.0994487 -0.254155
363 1 18.2745 7.0517 1.13153 4 0.0736787 2 1 0.0994487 0.631004
364 1 18.3714 6.23173 0.609762 4 0.0519599 2 0 0.0994487 0.156265
365 1 19.429 5.75829 0.62055 4 0.0615888 2 0 0.0994487 0.0572924
366 1 19.3279 6.55755 1.35081 4 0.0908763 2 0 0.0994487 0.272788
367 1 19.9942 6.75229 0.610261 4 0.131278 2 0 0.0994487 -0.011476
368 1 20.7494 5.77593 0.653722 4 0.105324 2 0 0.0994487 -0.103852
369 1 20.1931 5.61076 1.39557 4 0.0776028 2 0 0.0994487 0.313823
370 1 20.7787 6.6124 1.30355 4 0.178265 2 0 0.0994487 -0.366334
371 1 21.6592 6.66248 0.666524 4 0.202071 2 0 0.0994487 -0.0446128
372 1 21.6631 5.87866 1.38528 4 0.156252 2 0 0.0994487 0.0269069
373 1 21.6904 5.73259 0.0517844 4 0.122621 2 0 0.0994487 -0.00145063
374 1 22.6732 5.8279 0.674154 4 0.169928 2 0 0.0994487 0.0028966
375 1 22.6319 6.69333 1.20734 0 0.275564 2 0 0.099289 -0.265309
376 1 23.3484 6.78052 0.267835 0 0.255839 2 0 0.0994158 -0.125208
377 1 23.4822 5.88496 1.30013 4 0.229937 2 0 0.0994487 -0.20847
378 1 24.3197 6.56281 1.15825 0 0.296223 2 0 0.0991267 0.101988
379 1 24.1457 6.00685 0.427617 4 0.202102 2 0 0.0994487 0.00173665
380 1 25.6831 5.86213 0.700952 4 0.163176 2 0 0.0994487 0.166245
381 1 25.1124 6.04132 1.67733 0 0.349536 2 0 0.0985175 -0.00299494
382 1 25.1593 6.74159 0.495153 4 0.2404 2 0 0.0994487 0.0902801
383 1 25.8251 6.59457 1.40775 0 0.270377 2 0 0.0993249 0.286127
384 1 26.6903 5.84511 1.4763 4 0.124297 2 0 0.0994487 0.14638
385 1 27.4966 5.54334 0.722172 4 0.0537776 2 0 0.0994487 -0.25155
386 1 26.7485 6.36567 0.651888 4 0.127047 2 0 0.0994487 0.0390504
387 1 27.7011 6.47315 1.36539 4 0.0832937 2 0 0.0994487 0.141136
388 1 28.3648 5.52203 1.4872 4 0.03162 2 0 0.0994487 0.0457309
389 1 27.7097 7.0074 0.530173 4 0.0928832 2 0 0.0994487 0.0321062
390 1 29.3889 5.30889 0.818726 4 0.0157474 2 0 0.0994487 0.31679
391 1 29.4379 6.18214 1.32212 4 0.0214068 2 0 0.0994487 -0.00339564
392 1 29.5784 6.89773 0.506505 4 0.0254938 2 0 0.0994487 0.0925595
393 1 28.4685 6.20589 0.638647 4 0.0392909 2 0 0.0994487 -0.270108
394 1 29.3762 6.15398 0.0801838 4 0.0208656 2 0 0.0994487 0.0969233
395 1 28.4822 5.38976 0.0592959 4 0.0244506 2 0 0.0994487 -0.104999
396 1 30.9636 5.36838 0.595026 4 0.0074023 2 0 0.0994487 0.667863
397 1 30.2159 5.45949 1.46813 4 0.0101594 2 0 0.0994487 0.0540162
398 1 30.3958 6.18258 0.649752 4 0.012901 2 0 0.0994487 0.328982
399 1 31.2189 6.15516 1.38439 4 0.00874111 2 0 0.0994487 0.587258
400 1 31.1994 6.95407 0.60342 4 0.0116506 2 0 0.0994487 0.812239
401 1 31.7235 5.99622 0.446564 4 0.00700538 2 0 0.0994487 0.879732
402 1 0.261851 7.63199 0.661866 4 2.03459e-07 2 0 0.0994487 -0.876373
403 1 0.831025 8.46344 0.61936 4 3.74484e-07 2 0 0.0994487 -0.577625
404 1 1.11211 7.86396 1.49711 4 3.83234e-07 2 0 0.0994487 -0.154427
405 1 0.356955 8.5626 1.47035 4 2.56969e-07 2 0 0.0994487 -0.764984
406 1 1.59266 7.76478 0.37187 4 6.15584e-07 2 0 0.0994487 -0.0897861
407 1 1.72382 8.61735 1.46471 4 8.27195e-07 2 0 0.0994487 0.0395989
408 1 2.48799 7.14986 0.476331 4 1.29329e-06 2 0 0.0994487 -0.0836917
409 1 2.19177 8.6335 0.399707 4 1.3788e-06 2 0 0.0994487 -0.137265
410 1 2.39416 7.81099 1.27726 4 1.36131e-06 2 0 0.0994487 0.0869958
411 1 3.01349 8.51445 0.935533 4 3.04531e-06 2 0 0.0994487 -0.539298
412 1 3.24418 7.77117 0.327041 4 3.15713e-06 2 0 0.0994487 -0.196201
413 1 3.81243 8.45898 0.0822892 4 5.71614e-06 2 0 0.0994487 -0.0457753
414 1 3.97971 7.67009 1.24863 4 6.18483e-06 2 0 0.0994487 -0.0554831
415 1 4.70459 8.25653 0.921772 4 1.39244e-05 2 0 0.0994487 0.295374
416 1 4.67023 7.63706 0.247803 4 1.0888e-05 2 0 0.0994487 0.037698
417 1 3.81127 8.34851 1.76162 4 5.68874e-06 2 0 0.0994487 -0.0574333
418 1 5.86955 8.34822 0.169905 4 3.64173e-05 2 0 0.0994487 0.11311
419 1 5.48363 7.59071 1.03232 4 2.50825e-05 2 0 0.0994487 -0.467639
420 1 6.49365 7.53799 0.169175 4 5.14713e-05 2 0 0.0994487 0.18763
421 1 6.39674 8.23976 1.04384 4 6.88345e-05 2 0 0.0994487 0.338179
422 1 7.28583 7.76918 0.746313 4 0.000128946 2 1 0.0994487 0.00994716
423 1 8.2859 8.31376 0.868772 4 0.000349198 2 2 0.0994487 0.278753
424 1 7.27857 8.18368 1.7015 4 0.000171218 2 2 0.0994487 -0.174709
425 1 8.05208 7.48784 1.5604 4 0.000227201 2 1 0.0994487 0.185103
426 1 7.99895 7.60312 0.0282118 4 0.000175958 2 0 0.0994487 0.0674186
427 1 9.84313 7.22199 0.72344 4 0.000735901 2 1 0.0994487 -0.346903
428 1 8.91207 7.61626 0.661731 4 0.000426311 2 1 0.0994487 0.158705
429 1 9.73234 8.61964 0.693151 4 0.00109799 2 3 0.0994487 -0.257203
430 1 9.09265 8.69904 1.44495 4 0.0008251 2 9 0.0994487 -0.394523
431 1 9.64026 7.88932 1.60055 4 0.000975524 2 8 0.0994487 -0.340323
432 1 11.3161 7.14287 0.810636 4 0.0017797 2 1 0.0994487 0.448592
433 1 10.5731 7.9454 0.844311 4 0.00154268 2 3 0.0994487 -0.198321
434 1 10.5877 8.70196 1.4255 4 0.00211852 1 8 0.0994487 -0.146237
435 1 11.4057 7.80503 1.60301 4 0.00279034 2 7 0.0994487 0.228403
436 1 11.227 8.11851 0.0422735 4 0.00198755 2 0 0.0994487 0.17434
437 1 12.7061 7.28322 0.565784 4 0.00495956 2 0 0.0994487 -0.0531151
438 1 12.178 8.23518 0.590765 4 0.00463502 2 2 0.0994487 0.163968
439 1 12.0637 7.15788 1.37768 4 0.00319077 2 3 0.0994487 0.145727
440 1 12.0887 8.68064 1.49044 4 0.00580592 1 8 0.0994487 0.0821964
441 1 12.8601 7.99585 1.47598 4 0.00812219 2 6 0.0994487 -0.216878
442 1 14.3373 7.3542 0.580954 4 0.0131592 2 0 0.0994487 0.0649268
443 1 13.6169 8.09282 0.464536 4 0.0109223 2 2 0.0994487 0.0237736