ITEM: TIMESTEP
26000
ITEM: NUMBER OF ATOMS
9495
ITEM: BOX BOUNDS mm mm mm
0.0000000000000000e+00 4.0998622755149228e+01
-1.1501978083026063e-01 3.1748021039364001e+01
-6.2696691897681740e+00 3.1748021039364001e+01
ITEM: ATOMS id type x y z c_phase c_temp c_surf c_nbond c_visc f_3[1]
2455 1 36.7673 15.5517 -6.26649 0 2.75898 3 0 4.53999e-06 -0.6713
2453 1 38.581 14.3339 -5.105 0 2.64461 2 0 4.54e-06 -0.233984
2100 1 38.6812 15.3617 -5.03719 0 2.68259 2 0 4.54e-06 0.015917
2150 1 38.1997 12.1985 -3.30987 0 2.44426 2 0 4.54002e-06 -0.555201
2503 1 38.3208 13.3789 -3.42429 0 2.48891 2 0 4.54001e-06 -0.935704
1921 1 38.9501 12.8747 -3.09059 0 2.54599 2 0 4.54e-06 -0.148196
2149 1 38.66 13.6561 -4.4085 0 2.62833 2 0 4.54e-06 -0.427345
1924 1 39.0055 12.8355 -4.03436 0 2.61669 2 0 4.54e-06 -0.0341085
1560 1 39.6818 13.6423 -4.2707 0 3.01981 2 0 4.53999e-06 0.593865
1561 1 39.8492 12.8341 -3.49402 0 2.99086 2 0 4.53999e-06 0.594008
1196 1 40.1744 13.8158 -3.40593 0 3.07961 2 0 4.53999e-06 0.819835
900 1 39.4204 13.8626 -2.85423 0 2.64144 1 0 4.54e-06 0.874396
2101 1 38.5958 14.1816 -3.63192 0 2.58358 2 0 4.54e-06 -0.934769
1870 1 38.0769 15.3677 -3.1336 0 2.46048 2 0 4.54001e-06 -0.903129
2454 1 38.2107 14.7139 -4.28392 0 2.60909 2 0 4.54e-06 -0.933919
1865 1 38.7069 15.2234 -3.79105 0 2.6483 2 0 4.54e-06 -0.556607
1920 1 39.2403 14.5721 -4.41097 0 2.92814 2 0 4.53999e-06 0.566811
1469 1 38.6589 14.6178 -2.85283 0 2.49228 1 0 4.54001e-06 -0.886431
1464 1 39.428 15.5709 -4.23341 0 3.01245 2 0 4.53999e-06 0.580115
1143 1 39.6558 14.5988 -3.57618 0 2.80284 1 0 4.53999e-06 0.822018
1142 1 39.4164 15.4743 -3.21844 0 2.8907 2 0 4.53999e-06 0.645332
4521 1 40.5637 15.0067 -3.58283 0 3.29245 2 0 4.53999e-06 0.753845
4544 1 40.9097 14.2295 -2.89007 0 3.30871 2 0 4.53999e-06 0.976964
9332 1 40.264 15.7862 -2.83388 0 3.19093 2 0 4.53999e-06 0.650232
1195 1 36.9493 10.4837 -1.4515 0 2.49499 2 0 4.54001e-06 -0.355
1199 1 37.5248 11.3002 -1.51101 0 2.49029 2 0 4.54001e-06 -0.724664
2547 1 37.7917 11.14 -2.59553 0 2.48721 2 0 4.54001e-06 -0.279188
1008 1 38.3521 10.6075 -1.30226 0 2.9724 2 0 4.53999e-06 0.457476
2151 1 37.9374 12.0694 -2.2606 0 2.40653 2 0 4.54003e-06 -0.791996
1562 1 38.9992 12.1118 -2.56339 0 2.53242 2 0 4.54e-06 0.351745
952 1 39.0551 11.5609 -1.736 0 2.86816 2 0 4.53999e-06 0.606899
1922 1 37.9831 12.2787 -1.28723 0 2.29903 2 0 4.5401e-06 -0.819143
2551 1 37.7029 13.0228 -1.60969 0 2.16847 2 0 4.54038e-06 -0.912861
2457 1 37.8479 13.8044 -1.23926 0 2.09878 1 0 4.54076e-06 -0.867055
2105 1 38.2693 13.6658 -2.48667 0 2.33852 1 0 4.54006e-06 -0.916042
2153 1 38.6078 12.8558 -1.98707 0 2.3684 1 0 4.54004e-06 -0.454105
1928 1 38.515 13.3337 -1.27989 0 2.22598 1 0 4.54021e-06 -0.491523
3630 1 39.8634 12.3933 -1.59733 0 2.85163 2 0 4.53999e-06 0.735222
903 1 39.4163 13.4673 -1.46829 0 2.43075 1 0 4.54002e-06 0.946881
1201 1 39.4053 13.0143 -2.28702 0 2.56007 1 0 4.54e-06 0.687483
3628 1 40.1756 13.1774 -2.62699 0 2.99344 2 0 4.53999e-06 0.794412
4522 1 40.9567 13.4465 -2.26367 0 3.25278 2 0 4.53999e-06 0.941235
4113 1 40.4469 13.4179 -1.36133 0 2.92672 2 0 4.53999e-06 0.903112
6588 1 37.2028 15.5931 -2.73302 0 2.29865 2 0 4.5401e-06 -0.868289
2104 1 37.5859 15.2308 -1.53474 0 2.17549 1 0 4.54035e-06 -0.869643
2460 1 37.891 14.6349 -2.25584 0 2.26734 1 0 4.54014e-06 -0.869231
1149 1 38.7725 14.1143 -1.82843 0 2.31986 1 0 4.54008e-06 -0.283714
3632 1 38.6699 15.0566 -1.91369 0 2.36735 1 0 4.54005e-06 -0.326592
9333 1 39.2213 14.6712 -1.19269 0 2.35783 1 0 4.54005e-06 0.85768
906 1 38.7814 15.7315 -2.54645 0 2.51203 1 0 4.54001e-06 0.170144
4545 1 39.8459 14.1731 -1.87991 0 2.59734 1 0 4.54e-06 0.999612
8451 1 39.6622 14.8164 -2.55599 0 2.69005 1 0 4.54e-06 0.990785
4109 1 40.9954 15.1443 -2.46298 0 3.37267 2 0 4.53999e-06 0.966068
9330 1 39.4897 15.5137 -1.91167 0 2.59025 1 0 4.54e-06 0.58735
4130 1 40.3096 15.0135 -1.6605 0 2.94148 2 0 4.53999e-06 0.960084
1 1 0.116341 1.10259 0.464337 4 1.91377e-06 2 0 0.0994487 -0.68194
5 1 0.729896 0.0633724 0.61602 4 1.71751e-06 3 0 0.0994487 -0.190374
7 1 1.80059 1.47468 0.221075 4 5.28965e-06 2 0 0.0994487 -0.125828
9 1 2.52093 0.749102 0.203812 4 6.88596e-06 2 0 0.0994487 -0.142938
16 1 4.10576 0.858321 0.325305 4 2.19751e-05 2 0 0.0994487 0.153149
18 1 4.91949 1.59987 0.383508 4 5.11471e-05 2 0 0.0994487 -0.100243
20 1 3.47612 0.111428 0.171027 4 9.88242e-06 2 0 0.0994487 0.166216
21 1 5.64741 0.645627 0.325839 4 6.45194e-05 2 0 0.0994487 -0.080601
23 1 6.57478 1.39104 0.218369 4 0.000136177 2 0 0.0994487 -0.0861277
30 1 8.24709 1.39092 0.236779 4 0.000343969 2 0 0.0994487 -0.0460556
32 1 7.58247 0.647807 0.140287 4 0.000200072 2 0 0.0994487 -0.110931
33 1 8.85849 0.508506 0.273966 4 0.000372078 2 0 0.0994487 -0.0616392
37 1 9.63995 1.37474 0.0900752 4 0.0006479 2 0 0.0994487 0.0992991
43 1 10.2431 0.367861 0.0780499 4 0.000636902 2 0 0.0994487 0.149808
38 1 11.2128 0.215893 0.632658 4 0.00112831 2 0 0.0994487 0.203519
44 1 12.8757 0.211714 0.636805 4 0.00270312 2 0 0.0994487 0.0588057
45 1 12.0457 1.07408 0.506655 4 0.00231202 2 0 0.0994487 -0.0235288
50 1 14.0399 1.55958 0.167469 4 0.00682488 2 0 0.0994487 -0.0898056
59 1 15.1049 0.711806 0.0677822 4 0.00715629 2 0 0.0994487 0.169217
60 1 17.2544 0.732268 0.547589 4 0.0222429 2 0 0.0994487 0.0286637
74 1 20.3457 1.51479 0.193617 4 0.087029 2 0 0.0994487 -0.0805812
73 1 21.1874 0.765598 0.218806 4 0.0814374 2 0 0.0994487 -0.0445888
75 1 22.0087 0.262534 0.539755 4 0.0901077 2 0 0.0994487 0.0993114
78 1 21.9982 1.59955 0.538558 4 0.138709 2 0 0.0994487 0.183053
79 1 22.9157 1.07463 0.445168 4 0.139038 2 0 0.0994487 0.0523532
81 1 23.5672 0.357563 0.57369 4 0.132809 2 0 0.0994487 0.0385917
84 1 24.955 0.315686 0.551996 4 0.159508 2 0 0.0994487 -0.0171545
88 1 25.8917 0.929212 0.432102 4 0.193799 2 0 0.0994487 -0.095331
93 1 26.7925 0.240345 0.226621 4 0.146806 2 0 0.0994487 0.0380926
89 1 27.5736 1.28032 0.38906 4 0.198075 2 0 0.0994487 0.0454725
98 1 29.2734 0.3547 0.615275 4 0.0950023 2 0 0.0994487 -0.0816924
100 1 30.7016 0.49015 0.470738 4 0.0601475 2 0 0.0994487 0.35485
103 1 1.11081 2.43607 0.129285 4 4.40575e-06 2 0 0.0994487 -0.0373216
108 1 0.332248 3.09582 0.131296 4 3.88928e-06 2 0 0.0994487 -0.59134
113 1 2.7261 2.38168 0.0557193 4 1.15304e-05 2 0 0.0994487 0.146602
119 1 5.65047 2.44269 0.132743 4 0.000105954 2 0 0.0994487 -0.189922
124 1 6.65033 2.92778 0.134227 4 0.000214466 2 0 0.0994487 0.0288919
125 1 7.45405 2.22586 0.139832 4 0.000289563 2 0 0.0994487 -0.0534955
130 1 8.26934 2.9712 0.0392146 4 0.000616023 2 0 0.0994487 -0.150611
131 1 8.90393 2.08699 0.252387 4 0.000608349 2 0 0.0994487 0.00244355
135 1 9.56096 2.90576 0.21312 4 0.0011577 2 0 0.0994487 0.173129
136 1 10.2834 2.1137 0.214297 4 0.00113678 2 0 0.0994487 0.337748
140 1 12.6737 1.94118 0.593851 4 0.00440156 2 0 0.0994487 -0.283897
152 1 13.4137 2.29398 0.0590902 4 0.00689327 2 0 0.0994487 -0.280945
150 1 14.8418 2.51505 0.136557 4 0.0133765 2 0 0.0994487 0.17303
151 1 14.1591 3.2262 0.0325348 4 0.0135534 2 0 0.0994487 -0.246087
157 1 15.5706 3.25854 0.0192499 4 0.0230793 2 0 0.0994487 0.290261
164 1 18.884 2.99607 0.196019 4 0.10008 2 0 0.0994487 -0.171775
165 1 19.587 2.34239 0.101452 4 0.0958113 2 0 0.0994487 -0.132344
170 1 20.4222 2.99313 0.334941 4 0.147757 2 0 0.0994487 0.185554
167 1 21.1565 2.41663 0.458355 4 0.153482 2 0 0.0994487 0.194042
174 1 21.9898 3.20043 0.598797 4 0.24933 2 0 0.0994487 -0.0661405
175 1 22.6771 3.40124 0.07601 0 0.272628 2 0 0.0993095 0.0761768
176 1 23.7438 1.80844 0.624025 4 0.221767 2 0 0.0994487 -0.0867043
181 1 24.9562 2.84566 0.0146836 0 0.320023 2 0 0.0988937 -0.0864845
183 1 25.1322 1.85613 0.509414 0 0.264103 2 0 0.0993658 -0.0222633
182 1 26.5483 1.79415 0.511367 0 0.255444 2 0 0.0994182 -0.00513144
190 1 28.2489 2.09022 0.343734 4 0.23606 2 0 0.0994487 -0.0177105
194 1 27.982 3.21993 0.326384 0 0.346187 2 0 0.0985658 -0.124574
197 1 29.1956 2.6589 0.290703 4 0.241014 2 0 0.0994487 -0.0578043
203 1 30.1092 3.25953 0.132205 4 0.228635 2 0 0.0994487 -0.044337
204 1 30.4116 1.90909 0.0255368 4 0.124537 2 0 0.0994487 0.106051
205 1 31.1434 2.66402 0.0761253 4 0.146105 2 0 0.0994487 0.708829
207 1 0.143046 4.59443 0.482118 4 6.12096e-06 2 0 0.0994487 -0.784494
210 1 1.04069 3.86421 0.0595682 4 7.05708e-06 2 0 0.0994487 0.0148881
213 1 2.64953 4.14475 0.20674 4 2.6235e-05 2 0 0.0994487 -0.0285713
214 1 1.89758 4.96895 0.278386 4 2.03739e-05 2 0 0.0994487 -0.153433
215 1 3.40771 4.86189 0.161635 4 5.57091e-05 2 0 0.0994487 -0.016387
219 1 4.26027 4.18509 0.149001 4 7.95468e-05 2 0 0.0994487 0.0377398
220 1 5.00947 4.74001 0.341082 4 0.000161017 2 0 0.0994487 0.0765425
221 1 5.77735 3.9378 0.198707 4 0.000184409 2 0 0.0994487 0.026019
227 1 7.40842 4.46072 0.5468 4 0.000690199 2 0 0.0994487 -0.0252048
232 1 9.86266 4.50302 0.126324 4 0.00255066 2 0 0.0994487 0.0958738
235 1 8.98541 3.86821 0.0631775 4 0.00131537 2 0 0.0994487 -0.138748
238 1 11.3867 4.69403 0.230734 4 0.00661586 2 0 0.0994487 -0.049877
242 1 10.5826 3.84888 0.176129 4 0.00297954 2 0 0.0994487 0.210476
247 1 12.6435 4.61885 0.0632315 4 0.0120702 2 0 0.0994487 -0.033563
253 1 14.1405 4.90647 0.0597868 4 0.0257154 2 0 0.0994487 -0.0856659
254 1 14.961 4.19423 0.096508 4 0.0272246 2 0 0.0994487 0.0323023
256 1 15.8798 4.77595 0.186426 4 0.0504884 2 0 0.0994487 0.165438
263 1 17.4569 4.57727 0.0147963 4 0.0920977 2 0 0.0994487 -0.0973704
264 1 18.1348 3.8547 0.0583493 4 0.09832 2 0 0.0994487 -0.120485
266 1 18.8235 4.60949 0.361826 4 0.15128 2 0 0.0994487 0.115649
269 1 19.5987 3.76722 0.227421 4 0.146418 2 0 0.0994487 0.164212
274 1 20.1339 4.78559 0.352846 4 0.227579 2 0 0.0994487 0.143703
273 1 21.0824 3.93136 0.512408 4 0.240336 2 0 0.0994487 0.0826481
278 1 22.6119 4.34705 0.510028 0 0.361304 2 0 0.0983339 -0.0192648
283 1 23.5518 5.06386 0.533607 0 0.486385 2 0 0.0943229 -0.0829485
280 1 24.336 4.32055 0.625018 0 0.475679 2 0 0.0948814 -0.142743
290 1 25.5284 4.40089 0.388179 0 0.506624 2 0 0.0931032 0.0533066
188 1 26.1686 3.50068 0.599043 0 0.439368 2 0 0.0964061 0.168128
289 1 26.5026 4.97257 0.640732 0 0.574299 2 0 0.0869677 0.103836
294 1 27.0674 4.04323 0.570038 0 0.477892 2 0 0.0947708 0.00895497
295 1 28.9321 3.77016 0.487204 0 0.367635 2 0 0.0982264 -0.00607535
299 1 30.2046 4.67765 0.491317 0 0.390252 2 0 0.0977825 0.0142123
298 1 31.0296 3.97382 0.373364 0 0.265905 2 0 0.0993544 0.657608
301 1 0.908283 5.53205 0.461647 4 1.28687e-05 2 0 0.0994487 -0.463785
305 1 0.969942 6.9454 0.573423 4 2.06437e-05 2 0 0.0994487 -0.473532
307 1 1.89588 6.19966 0.519025 4 2.9625e-05 2 0 0.0994487 -0.1564
311 1 2.68177 5.61289 0.273587 4 4.25798e-05 2 0 0.0994487 -0.0596851
312 1 3.39503 6.28191 0.500536 4 9.2672e-05 2 0 0.0994487 -0.121444
313 1 4.18979 5.46246 0.325783 4 0.000120247 2 0 0.0994487 0.0310188
316 1 4.82567 6.23357 0.333842 4 0.000246062 2 0 0.0994487 -0.0345752
319 1 5.78575 5.42185 0.301847 4 0.000343624 2 0 0.0994487 0.0125039
323 1 6.37773 6.04115 0.154639 4 0.00057359 2 0 0.0994487 0.111114
331 1 7.33029 5.3575 0.0461812 4 0.000827216 2 0 0.0994487 0.0813598
337 1 9.76329 6.23201 0.0941385 4 0.00498983 2 0 0.0994487 -0.0359499
338 1 8.99733 5.46479 0.012702 4 0.00245116 2 0 0.0994487 -0.13475
340 1 11.3128 6.37134 0.0776634 4 0.0104484 2 0 0.0994487 0.100352
341 1 10.5187 6.94145 0.15452 4 0.00924805 2 0 0.0994487 -0.0735271
343 1 11.9994 5.6274 0.183157 4 0.0116587 2 0 0.0994487 -0.010514
348 1 13.3212 5.53867 0.0424813 4 0.0219605 2 0 0.0994487 -0.14289
351 1 14.1303 6.38483 0.0380077 4 0.0401015 2 0 0.0994487 -0.0825897
352 1 15.0282 5.64393 0.034369 4 0.0461605 2 0 0.0994487 0.0573968
357 1 16.62 5.41933 0.276819 4 0.0850234 2 0 0.0994487 0.0799925
358 1 15.6753 6.3382 0.0390223 4 0.0744281 2 0 0.0994487 0.0398852
361 1 17.0619 6.27419 0.411469 4 0.129325 2 0 0.0994487 0.138793
359 1 17.8271 5.30128 0.541411 4 0.134401 2 0 0.0994487 0.150043
364 1 18.3714 6.23173 0.609762 4 0.202976 2 0 0.0994487 0.151326
365 1 19.429 5.75829 0.62055 4 0.249949 2 0 0.0994487 0.0488214
367 1 19.9942 6.75229 0.610261 0 0.346178 2 0 0.0985656 -0.00546428
373 1 21.6904 5.73259 0.0517844 0 0.387957 2 0 0.0978316 -0.00179693
376 1 23.3484 6.78052 0.267835 0 0.577927 2 0 0.086526 -0.125413
282 1 24.8518 5.25716 0.566763 0 0.566153 2 0 0.0879102 0.0382814
379 1 24.1457 6.00685 0.427617 0 0.578772 2 0 0.0864214 0.0037683
382 1 25.1593 6.74159 0.495153 0 0.661039 2 0 0.0721695 0.0901214
393 1 28.4685 6.20589 0.638647 0 0.600937 2 0 0.0834049 -0.261809
395 1 28.4822 5.38976 0.0592959 0 0.51335 2 0 0.0926459 -0.105215
392 1 29.5784 6.89773 0.506505 0 0.580617 2 0 0.0861936 0.0815923
394 1 29.3762 6.15398 0.0801838 0 0.523631 2 0 0.0918897 0.0964468
396 1 30.9636 5.36838 0.595026 0 0.440741 2 0 0.0963585 0.656214
400 1 31.1994 6.95407 0.60342 0 0.550413 2 0 0.0895612 0.753413
401 1 31.7235 5.99622 0.446564 0 0.422792 2 0 0.0969459 0.86729
403 1 0.831025 8.46344 0.61936 4 2.60736e-05 2 0 0.0994487 -0.577626
406 1 1.59266 7.76478 0.37187 4 3.58825e-05 2 0 0.0994487 -0.0897879
408 1 2.48799 7.14986 0.476331 4 6.07256e-05 2 0 0.0994487 -0.0836961
409 1 2.19177 8.6335 0.399707 4 6.60237e-05 2 0 0.0994487 -0.137268
412 1 3.24418 7.77117 0.327041 4 0.000121687 2 0 0.0994487 -0.196205
318 1 4.00267 7.02511 0.221759 4 0.00017345 2 0 0.0994487 -0.0853439
413 1 3.81243 8.45898 0.0822892 4 0.000193405 2 0 0.0994487 -0.045779
416 1 4.67023 7.63706 0.247803 4 0.000310691 2 0 0.0994487 0.0376914
324 1 5.54993 7.05206 0.147147 4 0.000485131 2 0 0.0994487 0.0363861
418 1 5.86955 8.34822 0.169905 4 0.000800845 2 0 0.0994487 0.113104
420 1 6.49365 7.53799 0.169175 4 0.00103825 2 0 0.0994487 0.187622
426 1 7.99895 7.60312 0.0282118 4 0.00278584 2 0 0.0994487 0.0674124
436 1 11.227 8.11851 0.0422735 4 0.01753 2 0 0.0994487 0.174338
437 1 12.7061 7.28322 0.565784 4 0.0328647 2 0 0.0994487 -0.0531107
438 1 12.178 8.23518 0.590765 4 0.0327687 2 2 0.0994487 0.163931
443 1 13.6169 8.09282 0.464536 4 0.0603454 2 2 0.0994487 0.0238261
442 1 14.3373 7.3542 0.580954 4 0.0659012 2 0 0.0994487 0.0649486
446 1 16.4328 7.18497 0.276798 4 0.132672 2 0 0.0994487 -0.0623567
451 1 15.8668 8.31534 0.152632 4 0.141971 2 0 0.0994487 -0.185391
453 1 17.0683 8.10487 0.342208 4 0.189077 2 0 0.0994487 0.0341917
455 1 17.816 7.16593 0.212954 4 0.196399 2 0 0.0994487 0.0861806
460 1 18.4485 8.18989 0.168602 0 0.268908 2 0 0.0993345 0.0412018
459 1 19.8034 8.14191 0.360639 0 0.37251 2 0 0.0981384 0.109279
464 1 21.6115 8.34459 0.258573 0 0.519902 2 0 0.0921701 -0.0504448
467 1 22.3364 7.48462 0.386381 0 0.550312 2 0 0.0895663 -0.0973352
469 1 23.4881 8.07549 0.386864 0 0.634306 2 0 0.0777574 -0.0358624
472 1 24.3392 7.32545 0.26928 0 0.644704 2 0 0.0757016 0.0429412
477 1 25.2288 8.1324 0.307821 0 0.701948 2 0 0.0616904 -0.0331813
476 1 26.0919 7.27875 0.36814 0 0.696632 2 0 0.0631807 0.042244
478 1 26.2729 8.58549 0.0891813 0 0.710445 2 0 0.0592371 0.0505284
483 1 26.996 7.78335 0.434662 0 0.711898 2 0 0.0588094 0.128369
389 1 27.7097 7.0074 0.530173 0 0.663966 2 0 0.0714992 0.0307864
480 1 27.9642 8.50472 0.429665 0 0.69065 2 0 0.0648152 0.0549811
488 1 28.6951 7.71879 0.416043 0 0.631929 2 0 0.0782107 0.022529
485 1 29.5942 8.35338 0.54453 0 0.607796 2 0 0.0823596 0.00694798
492 1 30.6367 7.87308 0.379941 0 0.568521 2 0 0.0876469 0.206471
493 1 31.4248 8.62324 0.390578 0 0.561971 2 0 0.0883742 0.815414
494 1 1.11992 10.2843 0.274311 4 4.02414e-05 2 0 0.0994487 -0.355607
497 1 0.36755 9.33519 0.122595 4 2.24267e-05 2 0 0.0994487 -0.58224
499 1 1.75605 9.44536 0.452252 4 5.47686e-05 2 0 0.0994487 -0.146777
501 1 2.59083 10.2762 0.0854603 4 9.72864e-05 2 0 0.0994487 0.111276
505 1 3.07153 9.37068 0.0798637 4 0.000127925 2 0 0.0994487 -0.0110585
508 1 4.57569 9.17985 0.00735123 4 0.000350507 2 0 0.0994487 0.117407
509 1 4.60565 9.97638 0.570406 4 0.000460513 2 0 0.0994487 0.0562671
513 1 6.23892 9.79241 0.51167 4 0.00149572 2 0 0.0994487 0.106566
518 1 8.09535 9.0463 0.0802495 4 0.00433169 2 0 0.0994487 0.030269
519 1 7.95867 9.92351 0.574229 4 0.00517982 2 2 0.0994487 -0.0611638
527 1 10.4031 8.88547 0.040013 4 0.0146952 2 0 0.0994487 -0.138185
539 1 14.2759 10.1516 0.212809 4 0.0988425 2 0 0.0994487 -0.0852931
546 1 15.3043 9.20714 0.0898472 4 0.132281 2 0 0.0994487 -0.197808
543 1 15.695 10.1814 0.251776 4 0.154979 2 0 0.0994487 -0.0160021
545 1 16.5143 9.03182 0.259112 4 0.180471 2 1 0.0994487 0.0415785
549 1 17.1586 10.0288 0.207964 4 0.227217 2 0 0.0994487 0.0235105
551 1 17.7682 9.11154 0.116035 4 0.248966 2 0 0.0994487 -0.0397361
553 1 18.6034 9.73723 0.300646 0 0.31743 2 0 0.0989216 -0.0466986
557 1 19.2484 8.96684 0.211989 0 0.345753 2 0 0.0985716 0.0429301
558 1 19.9932 9.79255 0.07389 0 0.405892 2 0 0.0974121 0.145097
561 1 20.7963 9.08945 0.209734 0 0.466083 2 0 0.095336 0.0682119
569 1 21.9754 9.81742 0.212099 0 0.563113 2 0 0.0882449 0.0468486
568 1 22.7607 8.87875 0.203008 0 0.600338 2 0 0.083491 0.0492736
576 1 24.3138 8.82642 0.209603 0 0.683301 2 0 0.0667512 -0.0721001
577 1 24.4428 10.3356 0.111736 0 0.706491 2 0 0.0603884 -0.207716
583 1 25.6018 9.52349 0.179476 0 0.72066 2 0 0.0561748 0.0559969
588 1 27.1861 9.38966 0.228832 0 0.711851 2 0 0.0588237 -0.00752883
584 1 28.2862 10.152 0.305647 0 0.672797 2 0 0.0693982 -0.111502
592 1 28.8871 9.25543 0.26698 0 0.632116 2 0 0.0781763 0.0231365
589 1 29.6009 9.91576 0.329908 0 0.610824 2 0 0.0818794 0.0412263
595 1 30.4985 9.1312 0.28691 0 0.573666 2 0 0.0870466 0.0544823
596 1 31.2178 9.9685 0.0414754 0 0.537616 2 0 0.0907424 0.595003
1681 1 34.2283 9.09468 0.432564 0 2.32353 2 0 4.54007e-06 -0.196888
1685 1 35.6501 10.4243 0.24507 0 2.17332 2 0 4.54036e-06 -0.0426844
1253 1 36.3624 10.2928 -0.524566 0 2.37607 2 0 4.54004e-06 -0.221137
599 1 1.66792 11.1804 0.0305073 4 5.80258e-05 2 0 0.0994487 -0.0941751
608 1 4.11159 10.9261 0.546717 4 0.000391471 2 0 0.0994487 -0.0855597
609 1 4.7892 11.6902 0.339223 4 0.000687993 2 0 0.0994487 -0.0086021
612 1 5.39439 10.7046 0.434902 4 0.000935801 2 0 0.0994487 0.0228081
613 1 6.16593 11.4412 0.388009 4 0.00171786 2 0 0.0994487 0.0716604
617 1 6.92391 10.7003 0.458607 4 0.00268879 2 0 0.0994487 0.16072
623 1 9.50691 11.8688 0.520922 4 0.0140514 2 2 0.0994487 -0.25342
627 1 10.2834 12.255 0.115866 4 0.0189236 2 0 0.0994487 -0.114997
629 1 11.0549 11.5983 0.194953 4 0.026824 2 0 0.0994487 -0.070939
637 1 11.7607 10.7147 0.0383943 4 0.0349547 2 0 0.0994487 -0.0191208
634 1 12.5748 11.4039 0.278125 4 0.0523176 2 0 0.0994487 -0.0143621
642 1 13.419 12.206 0.294374 4 0.0739313 2 0 0.0994487 -0.099195
646 1 13.4118 10.6812 0.00468363 4 0.0718882 2 0 0.0994487 -0.131034
641 1 14.9558 10.9953 0.27394 4 0.122403 2 0 0.0994487 0.169421
645 1 14.1738 11.6169 0.089015 4 0.0931883 2 0 0.0994487 0.0451279
650 1 16.4403 10.8138 0.15589 4 0.194881 2 0 0.0994487 -0.0836106
651 1 16.6776 12.1548 0.0969389 4 0.210792 2 0 0.0994487 -0.141344
652 1 18.2687 10.7519 0.315825 0 0.305924 2 0 0.0990382 -0.0292825
654 1 18.2374 12.1981 0.296953 0 0.305615 2 0 0.0990411 0.0546128
657 1 17.4291 11.4396 0.214002 0 0.252088 2 0 0.0994372 0.0187257
658 1 19.0265 11.5044 0.456484 0 0.364252 2 0 0.0982843 -0.0216897
662 1 19.517 10.7559 0.104809 0 0.382904 2 0 0.0979369 0.11027
659 1 19.9822 11.9648 0.106136 0 0.426957 2 0 0.0968169 0.0712897
664 1 21.5162 11.819 0.177257 0 0.543508 2 0 0.0902106 0.118684
575 1 23.607 10.5555 0.630744 0 0.697629 2 0 0.0629018 -0.166932
667 1 22.984 11.3835 0.59258 0 0.663419 2 0 0.0716219 0.0122761
680 1 25.4203 11.1028 0.0258328 0 0.72139 2 0 0.0559516 -0.0687409
675 1 26.2388 11.8285 0.0889694 0 0.731737 2 0 0.0527332 -0.127006
676 1 26.1677 10.9659 0.639512 0 0.751305 2 0 0.0464117 0.145822
681 1 27.4806 10.9749 0.222741 0 0.707959 2 0 0.0599656 0.011052
690 1 29.0843 10.8079 0.126121 0 0.624004 2 0 0.0796558 -0.0987013
691 1 30.0142 11.448 0.200894 0 0.606244 2 0 0.0826014 0.0344609
694 1 30.712 10.6944 0.164178 0 0.576003 2 0 0.0867652 0.324021
2452 1 34.7721 10.775 0.228815 0 1.9995 2 0 4.54207e-06 -0.380133
1976 1 36.7269 11.2027 -0.668699 0 2.28761 2 0 4.54011e-06 -0.585321
2598 1 36.2251 12.0295 -0.298132 0 1.96391 2 0 4.54295e-06 -0.613739
3425 1 36.621 10.6218 0.332027 0 2.36347 2 0 4.54005e-06 0.410923
1010 1 36.8643 11.5237 0.322235 0 2.14542 2 0 4.54047e-06 -0.140877
955 1 37.5819 11.9645 -0.0614606 0 2.17942 1 0 4.54034e-06 -0.574017
3519 1 38.3749 11.6354 -0.901167 0 2.53398 2 0 4.54e-06 0.450095
4325 1 37.8019 10.9098 -0.232962 0 2.64701 2 0 4.54e-06 0.475877
4417 1 38.6875 12.0878 -0.0832241 0 2.46923 2 0 4.54001e-06 0.642744
699 1 1.13682 12.8099 0.40217 4 5.6895e-05 2 0 0.0994487 -0.356028
700 1 0.509747 13.7264 0.353066 4 4.44364e-05 2 0 0.0994487 -0.720445
703 1 2.02605 13.5951 0.0514267 4 0.000100803 2 0 0.0994487 -0.0068452
705 1 2.5702 12.6974 0.404418 4 0.000149056 2 0 0.0994487 0.0302299
706 1 3.2224 13.4346 0.560222 4 0.00025824 2 0 0.0994487 0.0804096
709 1 3.90604 12.4375 0.332755 4 0.0004083 2 0 0.0994487 -0.127807
710 1 4.71541 13.3639 0.114075 4 0.000725929 2 0 0.0994487 -0.0602831
714 1 5.40272 12.5268 0.401777 4 0.00113351 2 0 0.0994487 0.0697026
715 1 6.38981 13.1223 0.384615 4 0.00224625 2 0 0.0994487 0.116105
717 1 5.76935 13.9823 0.214111 4 0.00147289 2 0 0.0994487 0.0785517
719 1 7.07599 12.4039 0.476696 4 0.00341245 2 0 0.0994487 0.157421
720 1 7.96078 13.4073 0.407944 4 0.00604396 2 1 0.0994487 -0.0005069
724 1 8.63216 12.717 0.637914 4 0.00900392 2 4 0.0994487 -0.0658342
725 1 9.44503 13.4479 0.44985 4 0.0127059 2 2 0.0994487 0.0472081
638 1 11.8129 12.3439 0.271498 4 0.0380154 2 0 0.0994487 -0.0166269
734 1 12.6352 13.4654 0.131866 4 0.0544979 2 0 0.0994487 -0.204559
739 1 14.0304 13.2174 0.339444 4 0.0912269 2 0 0.0994487 -0.0330339
741 1 14.8665 13.818 0.167348 4 0.118491 2 0 0.0994487 0.0395801
742 1 14.913 12.4603 0.108402 4 0.119711 2 0 0.0994487 0.0890964
751 1 15.9055 13.1317 0.0412274 4 0.165789 2 0 0.0994487 -0.0232726
756 1 17.0036 13.76 0.172621 4 0.225926 2 0 0.0994487 -0.0584844
757 1 17.5662 12.9328 0.182832 0 0.258778 2 0 0.0993984 0.0500632
758 1 18.5806 13.4329 0.346903 0 0.325553 2 0 0.098831 0.209444
759 1 19.2895 12.5811 0.411007 0 0.385831 2 0 0.0978764 -0.0254741
762 1 20.1684 13.5463 0.243481 0 0.457298 2 0 0.0957179 -0.113881
763 1 20.7002 12.6828 0.0999128 0 0.486076 2 0 0.0943392 0.0120411
764 1 21.7077 13.3099 0.131266 0 0.560885 2 0 0.088485 0.0520242
769 1 22.4925 13.5156 0.303288 0 0.620549 2 0 0.0802546 -0.0174166
768 1 23.3438 12.6785 0.451688 0 0.678129 2 0 0.0680701 0.0144141
774 1 23.8708 13.5268 0.225948 0 0.695096 2 0 0.0636013 0.135323
773 1 24.7825 12.7628 0.489903 0 0.745258 2 0 0.0483888 0.0223548
686 1 27.2403 12.2814 0.0549416 0 0.733273 2 0 0.0522481 0.23899
778 1 26.6079 13.1622 0.118101 0 0.760728 2 0 0.0432951 -0.0453004
785 1 27.4852 13.2226 0.493244 0 0.785149 2 0 0.0351876 0.202243
787 1 28.1563 13.9584 0.463173 0 0.785613 2 0 0.0350358 -0.0312682
789 1 29.2131 13.1525 0.433997 0 0.719428 2 0 0.0565552 -0.108295
794 1 30.0913 12.3501 0.550294 0 0.660328 2 0 0.0723367 0.00627442
796 1 30.7962 13.3015 0.315268 0 0.65407 2 0 0.0737275 0.18959
795 1 31.7287 12.7172 0.333603 0 0.594287 2 0 0.0843689 0.771614
2599 1 35.6882 12.5518 0.570055 0 1.71081 2 0 4.57731e-06 -0.582376
2553 1 37.0764 12.9527 -0.29559 0 1.93195 1 0 4.54407e-06 -0.845282
1869 1 37.3249 13.9342 -0.130518 0 1.89454 1 0 4.54592e-06 -0.819601
3522 1 38.8561 12.5808 -1.06046 0 2.34486 1 0 4.54006e-06 0.580299
4518 1 38.0295 13.8396 0.422939 0 1.95608 1 0 4.5432e-06 -0.153797
954 1 38.0116 12.6543 -0.4534 0 2.14698 1 0 4.54047e-06 -0.763201
1148 1 38.1004 13.469 -0.33421 0 2.05362 1 0 4.5412e-06 -0.809324
4519 1 38.6977 13.0156 0.237406 0 2.1354 1 0 4.54053e-06 0.576488
4520 1 39.1271 13.2811 -0.552563 0 2.26351 1 0 4.54014e-06 0.842034
4548 1 38.8697 13.8995 0.216128 0 2.11295 1 0 4.54066e-06 0.717227
4587 1 39.7161 12.591 -0.430367 0 2.63204 2 0 4.54e-06 0.774746
3870 1 39.7776 13.4128 0.313002 0 2.48271 2 0 4.54001e-06 0.8406
800 1 1.19675 14.3549 0.25577 4 6.4156e-05 2 0 0.0994487 -0.322442
801 1 0.159909 15.2708 0.457481 4 3.94592e-05 2 0 0.0994487 -0.90461
802 1 1.00982 15.6443 0.316477 4 5.8596e-05 2 0 0.0994487 -0.384949
806 1 1.89767 15.134 0.173788 4 9.6763e-05 2 0 0.0994487 -0.0299458
808 1 2.63361 14.2969 0.200904 4 0.000157941 2 0 0.0994487 0.162543
813 1 3.40559 15.0919 0.408722 4 0.00029076 2 0 0.0994487 0.0623748
814 1 4.11016 14.115 0.483814 4 0.000504062 2 0 0.0994487 -0.0984342
815 1 4.77626 14.8432 0.256265 4 0.000764643 2 0 0.0994487 -0.0400966
819 1 6.24842 14.9422 0.388109 4 0.00203292 2 0 0.0994487 0.110244
820 1 5.41853 15.7514 0.189836 4 0.00111789 2 0 0.0994487 0.0211456
722 1 7.1891 14.0984 0.453594 4 0.00387896 2 0 0.0994487 0.044749
823 1 7.99284 15.0132 0.553329 4 0.00615649 2 1 0.0994487 0.02145
824 1 7.02912 15.7332 0.370189 4 0.00326896 2 0 0.0994487 0.0989244
827 1 8.66162 14.2054 0.453706 4 0.00865162 2 2 0.0994487 0.0374088
829 1 8.74984 15.6228 0.629615 4 0.00924664 2 2 0.0994487 0.00759014
833 1 10.2398 15.0757 0.06111 4 0.0179551 2 0 0.0994487 -0.121776
837 1 11.9533 15.3008 0.114109 4 0.038527 2 0 0.0994487 -0.0599495
743 1 13.5415 14.0828 0.123918 4 0.0736717 2 0 0.0994487 0.00120246
839 1 12.9881 14.7419 0.265888 4 0.0603196 2 1 0.0994487 -0.114462
845 1 13.5915 15.5711 0.274632 4 0.0726851 2 2 0.0994487 0.128789
843 1 14.3973 14.7319 0.524825 4 0.101939 2 2 0.0994487 0.108517
846 1 15.308 15.3847 0.496822 4 0.138746 2 1 0.0994487 -0.0370111
848 1 15.9703 14.5075 0.370402 4 0.171053 2 0 0.0994487 -0.0484723
851 1 17.1056 15.1642 0.236597 4 0.230187 2 0 0.0994487 -0.0212783
854 1 17.9812 14.2288 0.255717 0 0.283099 2 0 0.0992335 0.100802
856 1 18.4408 14.9466 0.0560899 0 0.309082 2 0 0.0990075 0.158793
858 1 18.8396 15.7141 0.513011 0 0.356153 2 0 0.0984165 0.0148791
868 1 20.1836 15.7418 0.389832 0 0.463748 2 0 0.0954405 -0.0303703
865 1 20.6513 14.7339 0.640183 0 0.504266 2 0 0.0932564 -0.0320944
866 1 21.4736 15.5725 0.46359 0 0.561122 2 0 0.0884597 -0.00899148
871 1 22.1663 14.9486 0.542517 0 0.610245 2 0 0.0819666 -0.0874384
870 1 23.1535 14.3697 0.318853 0 0.662675 2 0 0.0717929 -0.0114108
872 1 22.9521 15.5711 0.33158 0 0.653414 2 0 0.0738627 0.00965824
876 1 23.9475 14.853 0.471826 0 0.709842 2 0 0.0594104 0.109002
881 1 25.5527 14.154 0.105117 0 0.764432 2 0 0.0420615 -0.00528788
883 1 25.4638 15.6188 0.0369123 0 0.76437 2 0 0.0420818 -0.0010652
887 1 27.9862 15.5633 0.596673 0 0.805604 2 0 0.0285975 -0.0886481
793 1 29.8057 14.0661 0.312757 0 0.701787 2 0 0.0617419 -0.0186057
891 1 29.4057 14.9998 0.0190427 0 0.698918 2 0 0.062549 -0.152569
896 1 30.4363 15.0078 0.230467 0 0.691732 2 0 0.0645264 0.275435
895 1 31.4747 14.4494 0.248678 0 0.640881 2 0 0.0764797 0.767127
897 1 31.0376 15.7421 0.619391 0 0.730758 2 0 0.053048 0.721737
7205 1 36.9006 15.324 -0.77254 0 2.0395 2 0 4.54138e-06 -0.823548
2656 1 36.1251 14.1182 0.118937 0 1.70662 2 0 4.57891e-06 -0.787572
7204 1 36.8448 14.7049 0.0175388 0 1.85901 1 0 4.54845e-06 -0.818716
6608 1 37.0813 15.7831 0.129462 0 2.05981 1 0 4.54113e-06 -0.200239
1866 1 37.6088 14.5067 -0.963411 0 2.04551 1 0 4.5413e-06 -0.811189
3629 1 38.3786 15.0066 -0.974009 0 2.18816 1 0 4.54031e-06 -0.161814
1466 1 37.6253 15.0069 -0.292927 0 2.01621 1 0 4.54175e-06 -0.744267
8448 1 38.2227 14.4509 0.0419356 0 2.0368 1 0 4.54142e-06 0.099087
9220 1 38.2376 15.1411 0.140945 0 2.08301 1 0 4.54089e-06 0.281154
3631 1 38.5658 14.1069 -0.745023 0 2.15217 1 0 4.54044e-06 0.0775701
9334 1 39.0086 14.768 -0.216399 0 2.21863 1 0 4.54022e-06 0.758314
9329 1 38.913 15.627 -0.585856 0 2.3221 1 0 4.54008e-06 0.43444
9218 1 39.1225 15.5503 0.473902 0 2.44833 2 0 4.54002e-06 0.573859
4125 1 39.4412 14.0654 -0.530915 0 2.30013 1 0 4.5401e-06 0.981824
8739 1 39.5911 14.4385 0.606477 0 2.42184 2 0 4.54002e-06 0.751488
4114 1 40.2957 14.2958 -0.825408 0 2.73954 2 0 4.53999e-06 0.963975
8992 1 39.9623 15.0298 -0.157018 0 2.64554 2 0 4.54e-06 0.866468
9222 1 39.8617 15.5799 -0.975802 0 2.7601 2 0 4.53999e-06 0.83842
4 1 0.00336375 1.60273 1.37437 4 2.19694e-06 2 0 0.0994487 -0.804051
3 1 0.714648 0.793562 1.41295 4 2.37916e-06 2 0 0.0994487 -0.281793
6 1 1.71015 0.808983 1.0155 4 4.64506e-06 2 0 0.0994487 -0.332067
10 1 2.59149 0.0538711 1.03726 4 6.62344e-06 2 0 0.0994487 -0.295003
11 1 2.64922 1.541 0.882848 4 9.84439e-06 2 0 0.0994487 0.235765
12 1 2.66829 0.815502 1.7457 4 8.12014e-06 2 0 0.0994487 -0.187039
13 1 3.43386 0.933692 0.956349 4 1.43084e-05 2 0 0.0994487 0.32025
17 1 4.96159 0.56786 1.17466 4 4.08811e-05 2 0 0.0994487 -0.0370617
14 1 3.49924 0.0925696 1.70571 4 1.05083e-05 2 0 0.0994487 0.178055
19 1 4.3472 0.941527 1.62884 4 2.71324e-05 2 0 0.0994487 0.110742
22 1 5.88414 1.31048 0.938036 4 8.83076e-05 2 0 0.0994487 -0.199548
26 1 6.7138 0.39031 0.865278 4 0.000118538 2 0 0.0994487 -0.0793762
24 1 5.78374 0.460658 1.69897 4 6.48276e-05 2 0 0.0994487 -0.0846482
27 1 6.69104 1.00962 1.69374 4 0.000126607 2 0 0.0994487 -0.107917
28 1 8.2679 0.408875 1.07337 4 0.000272866 2 0 0.0994487 -0.100157
29 1 7.36782 1.22285 0.954198 4 0.000206865 2 0 0.0994487 -0.302511
31 1 8.12868 1.27217 1.60653 4 0.000303614 2 0 0.0994487 -0.00810859
920 1 7.4347 0.273126 1.85265 4 0.000158029 2 0 0.0994487 -0.123853
34 1 9.55301 0.3386 0.888639 4 0.000511546 2 0 0.0994487 0.00507518
35 1 9.02586 1.30716 1.1133 4 0.000508459 2 0 0.0994487 -0.0606123
36 1 9.5742 0.973184 1.76333 4 0.000586894 2 0 0.0994487 0.0511109
926 1 8.66712 0.0764919 1.83974 4 0.000271991 2 0 0.0994487 0.102395
39 1 10.3637 1.04743 0.823114 4 0.000898711 2 0 0.0994487 0.539916
40 1 10.523 0.196295 1.44539 4 0.000795007 2 0 0.0994487 0.0644382
41 1 11.2856 1.01846 1.41785 4 0.0014995 2 0 0.0994487 0.164732
49 1 13.5924 1.113 0.843618 4 0.00498756 2 0 0.0994487 -0.262992
46 1 12.1319 0.316439 1.29957 4 0.00197226 2 0 0.0994487 0.0188571
47 1 12.7194 1.19864 1.3723 4 0.003352 2 0 0.0994487 -0.0304921
51 1 13.6075 0.359834 1.6352 4 0.00386879 2 0 0.0994487 -0.0562458
48 1 14.3729 0.318493 0.764646 4 0.00545241 2 0 0.0994487 -0.0460189
53 1 14.8761 1.55337 0.662943 4 0.00936341 2 0 0.0994487 0.390011