ITEM: TIMESTEP
24000
ITEM: NUMBER OF ATOMS
9495
ITEM: BOX BOUNDS mm mm mm
0.0000000000000000e+00 3.7742083379370740e+01
0.0000000000000000e+00 3.1748021039364001e+01
-2.1101224680011130e+00 3.1748021039364001e+01
ITEM: ATOMS id type x y z c_phase c_temp c_surf c_nbond c_visc f_3[1]
2455 1 35.4988 15.4339 -2.10695 0 2.76616 3 0 4.53999e-06 -0.306524
2453 1 36.0014 14.2984 -0.448554 0 2.49802 2 0 4.54001e-06 -0.10128
2100 1 36.3486 15.2193 -0.437074 0 2.70675 2 0 4.53999e-06 0.341623
1 1 0.116341 1.10259 0.464337 4 6.50573e-07 2 0 0.0994487 -0.68194
2 1 0.974108 1.6685 0.77798 4 1.32112e-06 2 0 0.0994487 -0.517029
5 1 0.729896 0.0633724 0.61602 4 5.81938e-07 3 0 0.0994487 -0.190373
6 1 1.71015 0.808983 1.0155 4 1.72461e-06 2 0 0.0994487 -0.332065
7 1 1.80059 1.47468 0.221075 4 1.9857e-06 2 0 0.0994487 -0.125827
9 1 2.52093 0.749102 0.203812 4 2.63588e-06 2 0 0.0994487 -0.142937
10 1 2.59149 0.0538711 1.03726 4 2.51533e-06 2 0 0.0994487 -0.295003
11 1 2.64922 1.541 0.882848 4 3.90503e-06 2 0 0.0994487 0.235773
13 1 3.43386 0.933692 0.956349 4 5.8284e-06 2 0 0.0994487 0.320257
16 1 4.10576 0.858321 0.325305 4 9.2074e-06 2 0 0.0994487 0.153152
17 1 4.96159 0.56786 1.17466 4 1.77628e-05 2 0 0.0994487 -0.0370585
18 1 4.91949 1.59987 0.383508 4 2.26683e-05 2 0 0.0994487 -0.10024
20 1 3.47612 0.111428 0.171027 4 3.88561e-06 2 0 0.0994487 0.166217
21 1 5.64741 0.645627 0.325839 4 2.88615e-05 2 0 0.0994487 -0.0805989
22 1 5.88414 1.31048 0.938036 4 4.06122e-05 2 0 0.0994487 -0.199529
23 1 6.57478 1.39104 0.218369 4 6.44706e-05 2 0 0.0994487 -0.0861248
26 1 6.7138 0.39031 0.865278 4 5.5312e-05 2 0 0.0994487 -0.0793736
28 1 8.2679 0.408875 1.07337 4 0.00013537 2 0 0.0994487 -0.100154
29 1 7.36782 1.22285 0.954198 4 0.000101021 2 0 0.0994487 -0.302495
30 1 8.24709 1.39092 0.236779 4 0.000174034 2 0 0.0994487 -0.0460522
32 1 7.58247 0.647807 0.140287 4 9.69128e-05 2 0 0.0994487 -0.110929
33 1 8.85849 0.508506 0.273966 4 0.000188577 2 0 0.0994487 -0.0616369
34 1 9.55301 0.3386 0.888639 4 0.000265565 2 0 0.0994487 0.00507818
35 1 9.02586 1.30716 1.1133 4 0.000265015 2 0 0.0994487 -0.0606015
37 1 9.63995 1.37474 0.0900752 4 0.000342637 2 0 0.0994487 0.0993013
43 1 10.2431 0.367861 0.0780499 4 0.000334805 2 0 0.0994487 0.149809
38 1 11.2128 0.215893 0.632658 4 0.000616744 2 0 0.0994487 0.203522
39 1 10.3637 1.04743 0.823114 4 0.000486941 2 0 0.0994487 0.539924
44 1 12.8757 0.211714 0.636805 4 0.00153589 2 0 0.0994487 0.0588073
45 1 12.0457 1.07408 0.506655 4 0.00131762 2 0 0.0994487 -0.023526
49 1 13.5924 1.113 0.843618 4 0.00289773 2 0 0.0994487 -0.26299
48 1 14.3729 0.318493 0.764646 4 0.00312082 2 0 0.0994487 -0.0460185
50 1 14.0399 1.55958 0.167469 4 0.00399992 2 0 0.0994487 -0.0898052
53 1 14.8761 1.55337 0.662943 4 0.0053874 2 0 0.0994487 0.39001
59 1 15.1049 0.711806 0.0677822 4 0.0040674 2 0 0.0994487 0.169217
54 1 15.7061 0.770636 0.788259 4 0.00579761 2 0 0.0994487 0.366526
55 1 16.5532 1.54451 0.681338 4 0.0113678 2 0 0.0994487 0.000869581
60 1 17.2544 0.732268 0.547589 4 0.0110894 2 0 0.0994487 0.0286629
61 1 17.9231 1.58109 0.757246 4 0.0200928 2 0 0.0994487 0.041626
65 1 18.7918 0.725074 0.684829 4 0.0186007 2 0 0.0994487 -0.269913
64 1 19.5372 0.0167772 0.662766 4 0.0171351 2 0 0.0994487 0.0436591
66 1 19.5395 1.55488 0.841653 4 0.034646 2 0 0.0994487 -0.34102
71 1 20.2493 0.776373 0.980057 4 0.0294202 2 0 0.0994487 -0.0497095
74 1 20.3457 1.51479 0.193617 4 0.0384582 2 0 0.0994487 -0.0805809
70 1 21.0889 0.349843 1.06749 4 0.0313413 2 0 0.0994487 -0.196105
72 1 21.1062 1.65725 0.951506 4 0.0570557 2 0 0.0994487 0.657137
73 1 21.1874 0.765598 0.218806 4 0.033917 2 0 0.0994487 -0.0445737
75 1 22.0087 0.262534 0.539755 4 0.0363129 2 0 0.0994487 0.0993747
78 1 21.9982 1.59955 0.538558 4 0.0670659 2 0 0.0994487 0.184323
79 1 22.9157 1.07463 0.445168 4 0.0660285 2 0 0.0994487 0.0520979
81 1 23.5672 0.357563 0.57369 4 0.059137 2 0 0.0994487 0.0385853
82 1 24.4367 1.18687 0.754729 4 0.107964 2 0 0.0994487 -0.0192112
84 1 24.955 0.315686 0.551996 4 0.0725859 2 0 0.0994487 -0.0172013
85 1 26.0085 0.383365 1.1715 4 0.0846745 2 0 0.0994487 -0.184788
88 1 25.8917 0.929212 0.432102 4 0.0950402 2 0 0.0994487 -0.0954135
91 1 26.7559 1.02809 1.26347 4 0.115133 2 0 0.0994487 -0.245585
93 1 26.7925 0.240345 0.226621 4 0.059385 2 0 0.0994487 0.038076
89 1 27.5736 1.28032 0.38906 4 0.0937481 2 0 0.0994487 0.0454564
90 1 27.6142 0.50928 0.874321 4 0.072375 2 0 0.0994487 0.17544
94 1 28.6489 1.24263 0.742341 4 0.0763203 2 0 0.0994487 0.102564
98 1 29.2734 0.3547 0.615275 4 0.0324491 2 0 0.0994487 -0.0816706
101 1 30.1009 1.19877 0.774133 4 0.0385602 2 0 0.0994487 0.21093
100 1 30.7016 0.49015 0.470738 4 0.0175973 2 0 0.0994487 0.354854
99 1 31.5874 0.266128 1.25663 4 0.00887919 3 0 0.0994487 0.830097
103 1 1.11081 2.43607 0.129285 4 1.62234e-06 2 0 0.0994487 -0.037321
104 1 0.133403 2.3821 0.812241 4 1.09e-06 2 0 0.0994487 -0.984517
105 1 1.28845 3.23764 0.949187 4 2.7655e-06 2 0 0.0994487 0.222105
108 1 0.332248 3.09582 0.131296 4 1.40127e-06 2 0 0.0994487 -0.591339
109 1 1.90972 2.41867 0.78376 4 3.07458e-06 2 0 0.0994487 0.0782163
110 1 2.65852 3.28029 0.860875 4 7.83902e-06 2 0 0.0994487 0.0668119
113 1 2.7261 2.38168 0.0557193 4 4.61638e-06 2 0 0.0994487 0.146602
114 1 3.38195 2.55413 0.779289 4 9.82999e-06 2 0 0.0994487 0.211592
115 1 4.00679 1.841 0.711184 4 1.244e-05 2 0 0.0994487 -0.0361127
116 1 4.91383 2.57277 0.815661 4 3.20501e-05 2 0 0.0994487 -0.259331
117 1 4.20148 3.3175 0.749446 4 2.54033e-05 2 0 0.0994487 0.00622452
119 1 5.65047 2.44269 0.132743 4 4.92281e-05 2 0 0.0994487 -0.18992
120 1 6.55776 2.18062 0.772597 4 8.32131e-05 2 0 0.0994487 -0.28931
121 1 5.64874 3.19593 0.952489 4 6.70194e-05 2 0 0.0994487 -0.754593
124 1 6.65033 2.92778 0.134227 4 0.000104684 2 0 0.0994487 0.0288947
125 1 7.45405 2.22586 0.139832 4 0.000144801 2 0 0.0994487 -0.0534921
126 1 8.08209 2.20208 0.930382 4 0.000218484 2 0 0.0994487 -0.301986
127 1 7.40132 3.06835 0.934051 4 0.000201013 2 0 0.0994487 -0.0454064
130 1 8.26934 2.9712 0.0392146 4 0.000323092 2 0 0.0994487 -0.150608
131 1 8.90393 2.08699 0.252387 4 0.000320471 2 0 0.0994487 0.00244737
132 1 9.77243 2.0246 1.10996 4 0.000520186 2 0 0.0994487 0.173524
133 1 8.92671 2.97262 0.928693 4 0.000492781 2 0 0.0994487 -0.156656
135 1 9.56096 2.90576 0.21312 4 0.000635231 2 0 0.0994487 0.173133
136 1 10.2834 2.1137 0.214297 4 0.000625813 2 0 0.0994487 0.33775
137 1 11.1583 1.82604 0.771092 4 0.0010378 2 0 0.0994487 0.260129
138 1 10.6214 2.80819 0.921535 4 0.00118172 2 0 0.0994487 0.541971
141 1 11.928 2.64099 0.742299 4 0.00228852 2 0 0.0994487 -0.0386335
140 1 12.6737 1.94118 0.593851 4 0.00258978 2 0 0.0994487 -0.283894
144 1 13.1791 3.03035 0.848852 4 0.00502767 2 0 0.0994487 -0.440775
152 1 13.4137 2.29398 0.0590902 4 0.00410846 2 0 0.0994487 -0.280944
146 1 14.0206 2.44438 0.927124 4 0.00567417 2 0 0.0994487 -0.132948
148 1 14.6961 3.43698 0.884932 4 0.0116559 2 0 0.0994487 -0.332674
150 1 14.8418 2.51505 0.136557 4 0.0079312 2 0 0.0994487 0.17303
151 1 14.1591 3.2262 0.0325348 4 0.00828971 2 0 0.0994487 -0.246087
153 1 15.6993 2.44373 0.692668 4 0.0114106 2 0 0.0994487 0.364474
154 1 16.3029 3.20095 0.662084 4 0.0205068 2 0 0.0994487 0.328665
157 1 15.5706 3.25854 0.0192499 4 0.0137675 2 0 0.0994487 0.29026
158 1 17.0646 2.35032 0.682778 4 0.0202273 2 0 0.0994487 0.0235412
159 1 17.944 2.92608 0.699539 4 0.0402526 2 0 0.0994487 -0.231123
162 1 18.8908 2.35742 1.01358 4 0.0446785 2 0 0.0994487 -0.516821
164 1 18.884 2.99607 0.196019 4 0.0530474 2 0 0.0994487 -0.171778
165 1 19.587 2.34239 0.101452 4 0.0466372 2 0 0.0994487 -0.132348
168 1 20.1948 2.46882 1.11433 4 0.0699703 2 0 0.0994487 0.355936
170 1 20.4222 2.99313 0.334941 4 0.0805931 2 0 0.0994487 0.186233
167 1 21.1565 2.41663 0.458355 4 0.080055 2 0 0.0994487 0.195249
173 1 22.0961 2.49917 1.23787 4 0.144061 2 0 0.0994487 0.253092
174 1 21.9898 3.20043 0.598797 4 0.15527 2 0 0.0994487 -0.0720629
172 1 22.9717 2.60199 0.735523 4 0.158431 2 0 0.0994487 0.137319
175 1 22.6771 3.40124 0.07601 4 0.175254 2 0 0.0994487 0.076113
176 1 23.7438 1.80844 0.624025 4 0.125359 2 0 0.0994487 -0.0870876
178 1 24.342 2.68296 0.775192 4 0.216063 2 0 0.0994487 -0.33617
181 1 24.9562 2.84566 0.0146836 4 0.208458 2 0 0.0994487 -0.0864758
183 1 25.1322 1.85613 0.509414 4 0.156165 2 0 0.0994487 -0.0215052
182 1 26.5483 1.79415 0.511367 4 0.144911 2 0 0.0994487 -0.0056692
184 1 25.7918 2.61203 0.707489 4 0.233441 2 0 0.0994487 0.220584
188 1 26.1686 3.50068 0.599043 0 0.319106 2 0 0.0989037 0.167494
191 1 27.0867 2.6924 0.645359 4 0.217703 2 0 0.0994487 -0.103325
189 1 27.5039 1.98546 1.23792 4 0.177967 2 0 0.0994487 -0.213085
190 1 28.2489 2.09022 0.343734 4 0.122458 2 0 0.0994487 -0.0176861
193 1 28.2537 2.75799 1.20639 4 0.223767 2 0 0.0994487 -0.458939
194 1 27.982 3.21993 0.326384 4 0.214684 2 0 0.0994487 -0.125156
196 1 29.4477 2.04702 0.879698 4 0.0940071 2 0 0.0994487 -0.0069131
197 1 29.1956 2.6589 0.290703 4 0.12076 2 0 0.0994487 -0.057817
198 1 29.2495 3.2651 1.17365 4 0.215395 2 0 0.0994487 0.131815
200 1 30.1815 2.71094 1.00186 4 0.103854 2 0 0.0994487 0.685084
203 1 30.1092 3.25953 0.132205 4 0.101229 2 0 0.0994487 -0.0443634
204 1 30.4116 1.90909 0.0255368 4 0.0435415 2 0 0.0994487 0.106045
199 1 30.9114 1.98502 0.924207 4 0.0473026 2 0 0.0994487 0.967252
201 1 31.0247 3.35309 0.97101 4 0.100681 2 0 0.0994487 0.997974
205 1 31.1434 2.66402 0.0761253 4 0.0488822 2 0 0.0994487 0.70882
206 1 0.293831 3.78503 0.918557 4 1.93437e-06 2 0 0.0994487 -0.999347
207 1 0.143046 4.59443 0.482118 4 2.26847e-06 2 0 0.0994487 -0.784494
208 1 1.14036 4.67093 0.986638 4 4.31225e-06 2 0 0.0994487 -0.516751
210 1 1.04069 3.86421 0.0595682 4 2.6899e-06 2 0 0.0994487 0.0148886
211 1 1.84117 4.04604 0.847105 4 5.81625e-06 2 0 0.0994487 0.00827752
212 1 2.54049 4.85585 1.13748 4 1.30069e-05 2 0 0.0994487 -0.333839
213 1 2.64953 4.14475 0.20674 4 1.10312e-05 2 0 0.0994487 -0.0285698
214 1 1.89758 4.96895 0.278386 4 8.37404e-06 2 0 0.0994487 -0.153432
215 1 3.40771 4.86189 0.161635 4 2.4561e-05 2 0 0.0994487 -0.0163848
216 1 3.494 4.07675 0.885909 4 2.02035e-05 2 0 0.0994487 0.0269084
217 1 4.91235 4.00001 1.18344 4 5.49716e-05 2 0 0.0994487 0.0115407
218 1 4.04658 4.88002 1.14639 4 3.99888e-05 2 0 0.0994487 0.2645
219 1 4.26027 4.18509 0.149001 4 3.59396e-05 2 0 0.0994487 0.0377421
220 1 5.00947 4.74001 0.341082 4 7.59828e-05 2 0 0.0994487 0.0765468
221 1 5.77735 3.9378 0.198707 4 8.81998e-05 2 0 0.0994487 0.0260215
222 1 6.48883 3.76611 0.772067 4 0.00014159 2 0 0.0994487 0.204574
223 1 5.68025 4.73638 1.02487 4 0.000126167 2 0 0.0994487 -0.621596
225 1 6.68072 5.1315 0.885352 4 0.000285736 2 0 0.0994487 0.206892
226 1 8.1982 3.892 0.700757 4 0.000481626 2 0 0.0994487 -0.369875
227 1 7.40842 4.46072 0.5468 4 0.000359272 2 0 0.0994487 -0.0251987
230 1 9.8976 3.57792 0.885667 4 0.00111936 2 0 0.0994487 0.592929
231 1 9.07913 4.56551 0.821335 4 0.00106515 2 0 0.0994487 -0.658498
232 1 9.86266 4.50302 0.126324 4 0.00145184 2 0 0.0994487 0.0958773
235 1 8.98541 3.86821 0.0631775 4 0.0007198 2 0 0.0994487 -0.138745
236 1 11.408 3.64493 0.778297 4 0.00267674 2 0 0.0994487 0.202103
237 1 10.5891 4.66652 0.906264 4 0.00258535 2 0 0.0994487 0.0451902
238 1 11.3867 4.69403 0.230734 4 0.00401675 2 0 0.0994487 -0.0498727
241 1 11.3894 5.27213 0.983682 4 0.00508012 2 0 0.0994487 -0.674401
242 1 10.5826 3.84888 0.176129 4 0.0017281 2 0 0.0994487 0.210479
243 1 12.5168 3.57716 0.814749 4 0.00464137 2 0 0.0994487 -0.0105252
244 1 12.1916 4.55033 1.00021 4 0.00583901 2 0 0.0994487 0.105193
246 1 13.2258 4.67863 0.80017 4 0.010273 2 0 0.0994487 -0.00457819
247 1 12.6435 4.61885 0.0632315 4 0.00759753 2 0 0.0994487 -0.0335613
248 1 13.9891 4.12825 0.69648 4 0.0118096 2 0 0.0994487 -0.430098
251 1 14.9402 5.01141 0.811699 4 0.0248896 2 0 0.0994487 -0.0518235
253 1 14.1405 4.90647 0.0597868 4 0.0167155 2 0 0.0994487 -0.0856671
254 1 14.961 4.19423 0.096508 4 0.0171645 2 0 0.0994487 0.0323002
255 1 15.6685 4.06642 0.926277 4 0.023002 2 0 0.0994487 0.872664
256 1 15.8798 4.77595 0.186426 4 0.0322858 2 0 0.0994487 0.165433
257 1 16.5936 4.58036 0.900182 4 0.0436831 2 0 0.0994487 -0.078528
260 1 17.2689 3.83372 0.811237 4 0.0450299 2 0 0.0994487 -0.345269
261 1 18.0864 4.48855 1.09806 4 0.0842587 2 0 0.0994487 -0.722307
263 1 17.4569 4.57727 0.0147963 4 0.0563973 2 0 0.0994487 -0.0973716
264 1 18.1348 3.8547 0.0583493 4 0.0568838 2 0 0.0994487 -0.120485
268 1 18.7859 5.27693 1.20102 4 0.146087 2 0 0.0994487 0.508387
266 1 18.8235 4.60949 0.361826 4 0.0965036 2 0 0.0994487 0.115664
265 1 18.8779 3.70667 0.95022 4 0.0817556 2 0 0.0994487 0.0424321
267 1 19.6906 4.67872 1.0803 4 0.153411 2 0 0.0994487 0.941314
269 1 19.5987 3.76722 0.227421 4 0.086808 2 0 0.0994487 0.164268
274 1 20.1339 4.78559 0.352846 4 0.155668 2 0 0.0994487 0.144977
270 1 20.4384 3.82188 1.23329 4 0.150704 2 0 0.0994487 0.396521
272 1 21.5775 4.95128 0.810455 0 0.269433 2 0 0.0993311 -0.0374697
273 1 21.0824 3.93136 0.512408 4 0.15558 2 0 0.0994487 0.0837449
277 1 22.4705 5.17735 1.27286 0 0.383656 2 0 0.0979219 -0.00533071
278 1 22.6119 4.34705 0.510028 0 0.260089 2 0 0.0993906 -0.0189892
279 1 23.5735 3.63903 0.782677 0 0.2662 2 0 0.0993524 0.161651
283 1 23.5518 5.06386 0.533607 0 0.386314 2 0 0.0978666 -0.0872697
280 1 24.336 4.32055 0.625018 0 0.366988 2 0 0.0982376 -0.143735
282 1 24.8518 5.25716 0.566763 0 0.4675 2 0 0.095272 0.0334598
285 1 25.0629 3.68037 0.802132 0 0.340913 2 0 0.0986388 -0.181771
290 1 25.5284 4.40089 0.388179 0 0.392775 2 0 0.0977263 0.0546547
289 1 26.5026 4.97257 0.640732 0 0.458459 2 0 0.0956702 0.0993048
294 1 27.0674 4.04323 0.570038 0 0.348335 2 0 0.0985349 0.0104276
292 1 27.9624 3.97641 1.10408 0 0.351019 2 0 0.0984955 -0.377544
293 1 28.2771 4.73475 0.706344 0 0.372655 2 0 0.0981362 -0.0707757
295 1 28.9321 3.77016 0.487204 4 0.222717 2 0 0.0994487 -0.00693739
297 1 29.9979 4.07209 1.02303 4 0.213357 2 0 0.0994487 -0.291839
299 1 30.2046 4.67765 0.491317 4 0.205521 2 0 0.0994487 0.01152
298 1 31.0296 3.97382 0.373364 4 0.107625 2 0 0.0994487 0.657544
301 1 0.908283 5.53205 0.461647 4 5.05601e-06 2 0 0.0994487 -0.463784
305 1 0.969942 6.9454 0.573423 4 8.27943e-06 2 0 0.0994487 -0.473532
306 1 1.7053 7.02884 1.23811 4 1.31948e-05 2 0 0.0994487 0.0665205
307 1 1.89588 6.19966 0.519025 4 1.24008e-05 2 0 0.0994487 -0.156397
310 1 3.25442 6.96226 1.12748 4 4.57339e-05 2 0 0.0994487 -0.0541191
311 1 2.68177 5.61289 0.273587 4 1.83852e-05 2 0 0.0994487 -0.0596831
312 1 3.39503 6.28191 0.500536 4 4.19292e-05 2 0 0.0994487 -0.121439
313 1 4.18979 5.46246 0.325783 4 5.55292e-05 2 0 0.0994487 0.0310227
315 1 4.13622 6.09659 1.22779 4 7.03876e-05 2 0 0.0994487 -0.0893835
316 1 4.82567 6.23357 0.333842 4 0.000118008 2 0 0.0994487 -0.0345704
317 1 4.77312 6.79931 1.15967 4 0.000144591 2 0 0.0994487 -0.305923
318 1 4.00267 7.02511 0.221759 4 8.10736e-05 2 0 0.0994487 -0.0853403
319 1 5.78575 5.42185 0.301847 4 0.000169071 2 0 0.0994487 0.0125083
320 1 5.6935 6.24342 0.9632 4 0.000224074 2 0 0.0994487 -0.96776
322 1 6.43234 6.86927 1.00965 4 0.000460978 2 0 0.0994487 0.851682
323 1 6.37773 6.04115 0.154639 4 0.000289877 2 0 0.0994487 0.111118
324 1 5.54993 7.05206 0.147147 4 0.000241066 2 0 0.0994487 0.0363903
325 1 8.21355 5.31419 0.694273 4 0.00085341 2 0 0.0994487 -0.0895622
326 1 7.32761 6.15925 0.754293 4 0.000643112 2 0 0.0994487 0.225751
329 1 8.01352 6.85364 0.728993 4 0.00135106 2 0 0.0994487 0.0692027
331 1 7.33029 5.3575 0.0461812 4 0.000430543 2 0 0.0994487 0.0813633
332 1 9.76796 5.3194 0.792562 4 0.00208223 2 0 0.0994487 0.328499
333 1 8.88016 6.18865 0.736908 4 0.00181356 2 0 0.0994487 -0.235517
337 1 9.76329 6.23201 0.0941385 4 0.00289229 2 0 0.0994487 -0.0359444
338 1 8.99733 5.46479 0.012702 4 0.0013665 2 0 0.0994487 -0.134747
339 1 10.5831 6.02196 0.964384 4 0.00444402 2 0 0.0994487 -0.356232
340 1 11.3128 6.37134 0.0776634 4 0.00640257 2 0 0.0994487 0.100354
341 1 10.5187 6.94145 0.15452 4 0.00554702 2 0 0.0994487 -0.0735243
345 1 11.7774 6.20735 1.05291 4 0.00853605 2 0 0.0994487 0.292408
343 1 11.9994 5.6274 0.183157 4 0.0073028 2 0 0.0994487 -0.0105117
344 1 12.6757 5.81849 0.861776 4 0.0117129 2 0 0.0994487 0.0818352
347 1 13.3506 6.58297 0.813679 4 0.0228486 2 0 0.0994487 -0.292044
348 1 13.3212 5.53867 0.0424813 4 0.014336 2 0 0.0994487 -0.142889
349 1 14.0617 5.71565 0.77266 4 0.0223424 2 0 0.0994487 -0.372417
351 1 14.1303 6.38483 0.0380077 4 0.0271576 2 0 0.0994487 -0.0825904
352 1 15.0282 5.64393 0.034369 4 0.0309882 2 0 0.0994487 0.0573935
354 1 15.0472 6.45091 0.806774 4 0.0461313 2 0 0.0994487 -0.17593
353 1 15.8305 5.73813 0.95832 4 0.0483202 2 0 0.0994487 0.625987
355 1 16.491 6.45257 1.1401 4 0.0854183 2 0 0.0994487 0.202787
357 1 16.62 5.41933 0.276819 4 0.0560057 2 0 0.0994487 0.079983
358 1 15.6753 6.3382 0.0390223 4 0.0517649 2 0 0.0994487 0.0398802
361 1 17.0619 6.27419 0.411469 4 0.0910891 2 0 0.0994487 0.13899
360 1 17.113 5.42499 1.24767 4 0.0772117 2 0 0.0994487 -0.289743
359 1 17.8271 5.30128 0.541411 4 0.0886057 2 0 0.0994487 0.150396
363 1 18.2745 7.0517 1.13153 4 0.182912 2 0 0.0994487 0.766149
364 1 18.3714 6.23173 0.609762 4 0.148095 2 0 0.0994487 0.152267
365 1 19.429 5.75829 0.62055 4 0.183359 2 0 0.0994487 0.0529815
367 1 19.9942 6.75229 0.610261 0 0.280599 2 0 0.0992524 -0.00603036
368 1 20.7494 5.77593 0.653722 0 0.271493 2 0 0.0993173 -0.101083
371 1 21.6592 6.66248 0.666524 0 0.398268 2 0 0.0975995 -0.0451836
373 1 21.6904 5.73259 0.0517844 0 0.303729 2 0 0.099059 -0.00201955
374 1 22.6732 5.8279 0.674154 0 0.405373 2 0 0.0974256 0.00433184
375 1 22.6319 6.69333 1.20734 0 0.50433 2 0 0.0932528 -0.373157
376 1 23.3484 6.78052 0.267835 0 0.49598 2 0 0.0937729 -0.125221
378 1 24.3197 6.56281 1.15825 0 0.577089 2 0 0.0866294 0.358772
379 1 24.1457 6.00685 0.427617 0 0.487775 2 0 0.0942464 0.00454202
382 1 25.1593 6.74159 0.495153 0 0.568383 2 0 0.0876589 0.0889899
380 1 25.6831 5.86213 0.700952 0 0.541037 2 0 0.090437 0.153896
386 1 26.7485 6.36567 0.651888 0 0.555122 2 0 0.0890885 0.0378494
385 1 27.4966 5.54334 0.722172 0 0.479017 2 0 0.0947139 -0.23417
389 1 27.7097 7.0074 0.530173 0 0.529836 2 0 0.0913973 0.0317856
393 1 28.4685 6.20589 0.638647 0 0.451427 2 0 0.0959572 -0.265209
395 1 28.4822 5.38976 0.0592959 0 0.353092 2 0 0.0984643 -0.105315
390 1 29.3889 5.30889 0.818726 0 0.365257 2 0 0.0982678 0.262335
392 1 29.5784 6.89773 0.506505 0 0.386883 2 0 0.0978551 0.0901196
394 1 29.3762 6.15398 0.0801838 0 0.33669 2 0 0.0986949 0.0970394
398 1 30.3958 6.18258 0.649752 0 0.310944 2 0 0.0989894 0.323477
396 1 30.9636 5.36838 0.595026 4 0.218123 2 0 0.0994487 0.661838
400 1 31.1994 6.95407 0.60342 0 0.278516 2 0 0.0992681 0.795481
401 1 31.7235 5.99622 0.446564 4 0.181314 2 0 0.0994487 0.876208
402 1 0.261851 7.63199 0.661866 4 6.6566e-06 2 0 0.0994487 -0.876373
403 1 0.831025 8.46344 0.61936 4 1.05362e-05 2 0 0.0994487 -0.577625
406 1 1.59266 7.76478 0.37187 4 1.50239e-05 2 0 0.0994487 -0.0897865
408 1 2.48799 7.14986 0.476331 4 2.65746e-05 2 0 0.0994487 -0.0836927
409 1 2.19177 8.6335 0.399707 4 2.88161e-05 2 0 0.0994487 -0.137265
411 1 3.01349 8.51445 0.935533 4 5.40845e-05 2 0 0.0994487 -0.5393
412 1 3.24418 7.77117 0.327041 4 5.54674e-05 2 0 0.0994487 -0.196202
413 1 3.81243 8.45898 0.0822892 4 9.05318e-05 2 0 0.0994487 -0.0457761
414 1 3.97971 7.67009 1.24863 4 9.48735e-05 2 0 0.0994487 -0.0554845
415 1 4.70459 8.25653 0.921772 4 0.000183483 2 0 0.0994487 0.295362
416 1 4.67023 7.63706 0.247803 4 0.000150292 2 0 0.0994487 0.0376964
418 1 5.86955 8.34822 0.169905 4 0.000408134 2 0 0.0994487 0.113109
419 1 5.48363 7.59071 1.03232 4 0.000295866 2 0 0.0994487 -0.467647
420 1 6.49365 7.53799 0.169175 4 0.000538169 2 0 0.0994487 0.187628
421 1 6.39674 8.23976 1.04384 4 0.000684374 2 0 0.0994487 0.338167
422 1 7.28583 7.76918 0.746313 4 0.00115646 2 1 0.0994487 0.00993762
423 1 8.2859 8.31376 0.868772 4 0.00267472 2 2 0.0994487 0.27833
426 1 7.99895 7.60312 0.0282118 4 0.00151821 2 0 0.0994487 0.0674167
427 1 9.84313 7.22199 0.72344 4 0.0047613 2 1 0.0994487 -0.346916
428 1 8.91207 7.61626 0.661731 4 0.00308488 2 1 0.0994487 0.158579
429 1 9.73234 8.61964 0.693151 4 0.00689741 2 3 0.0994487 -0.257038
432 1 11.3161 7.14287 0.810636 4 0.00954658 2 1 0.0994487 0.448617
433 1 10.5731 7.9454 0.844311 4 0.00889488 2 3 0.0994487 -0.197912
436 1 11.227 8.11851 0.0422735 4 0.0108783 2 0 0.0994487 0.174337
437 1 12.7061 7.28322 0.565784 4 0.0217579 2 0 0.0994487 -0.053106
438 1 12.178 8.23518 0.590765 4 0.0213876 2 2 0.0994487 0.163976
443 1 13.6169 8.09282 0.464536 4 0.0416651 2 2 0.0994487 0.0238106
442 1 14.3373 7.3542 0.580954 4 0.0461716 2 0 0.0994487 0.0649451
448 1 15.0689 8.29247 0.865596 4 0.0878096 2 3 0.0994487 -0.312337
446 1 16.4328 7.18497 0.276798 4 0.0975442 2 0 0.0994487 -0.0624084
447 1 15.6276 7.3114 0.923132 4 0.0830808 2 1 0.0994487 -0.441694
449 1 16.26 8.16052 1.11176 4 0.128427 1 4 0.0994487 -0.227741
451 1 15.8668 8.31534 0.152632 4 0.107287 2 0 0.0994487 -0.185451
452 1 16.977 7.36262 1.11681 4 0.133455 2 1 0.0994487 0.351488
453 1 17.0683 8.10487 0.342208 4 0.146959 2 0 0.0994487 0.0342428
454 1 17.703 8.02386 1.02699 4 0.185444 2 1 0.0994487 0.870087
455 1 17.816 7.16593 0.212954 4 0.149501 2 0 0.0994487 0.0862476
460 1 18.4485 8.18989 0.168602 4 0.219851 2 0 0.0994487 0.0416473
456 1 19.0043 7.33822 0.644529 4 0.232645 2 0 0.0994487 0.178515
457 1 18.9276 8.15324 1.18625 0 0.276588 2 0 0.0992817 -0.00863151
459 1 19.8034 8.14191 0.360639 0 0.317429 2 0 0.0989217 0.108817
461 1 20.6988 7.46059 0.673449 0 0.376114 2 0 0.0980709 -0.0280936
462 1 20.6463 8.44048 1.03669 0 0.421482 1 0 0.0969835 -0.253549
463 1 21.5411 7.67297 1.15048 0 0.471564 1 0 0.0950812 -0.16384
464 1 21.6115 8.34459 0.258573 0 0.457627 2 0 0.0957044 -0.0503049
465 1 22.5864 8.17833 1.02102 0 0.545479 1 0 0.0900283 -0.008383
467 1 22.3364 7.48462 0.386381 0 0.479475 2 0 0.0946895 -0.0969854
468 1 23.4446 7.32194 1.0516 0 0.571387 1 0 0.0873115 -0.261387
469 1 23.4881 8.07549 0.386864 0 0.559682 2 0 0.088614 -0.0378261
470 1 24.3435 8.10177 1.00287 0 0.635553 1 0 0.0775192 0.0339882
472 1 24.3392 7.32545 0.26928 0 0.559079 2 0 0.088678 0.0433343
473 1 25.1162 7.39484 1.25566 0 0.65877 1 0 0.072683 0.195207
477 1 25.2288 8.1324 0.307821 0 0.610073 2 0 0.0819962 -0.0339828
474 1 26.02 8.00574 0.988901 0 0.666792 1 0 0.0708375 0.0335513
476 1 26.0919 7.27875 0.36814 0 0.592208 2 0 0.0846576 0.042131
478 1 26.2729 8.58549 0.0891813 0 0.603645 2 0 0.0829975 0.0505307
482 1 26.9761 8.65498 1.02594 0 0.675104 1 0 0.0688302 0.240711
483 1 26.996 7.78335 0.434662 0 0.592778 2 0 0.0845789 0.130153
480 1 27.9642 8.50472 0.429665 0 0.547 2 0 0.0898871 0.0562124
481 1 27.7958 7.83833 1.21519 0 0.636756 2 0 0.0772898 0.651703
484 1 28.6515 7.11327 1.23056 0 0.567954 2 0 0.0877085 -0.0867109
488 1 28.6951 7.71879 0.416043 0 0.470859 2 0 0.095116 0.0193571
487 1 28.7798 8.55882 1.18636 0 0.545515 2 0 0.0900273 0.340424
485 1 29.5942 8.35338 0.54453 0 0.416391 2 0 0.0971316 0.00642466
489 1 30.3249 7.09182 1.17973 0 0.436648 2 0 0.0965016 0.44936
491 1 30.4298 8.49193 1.18422 0 0.452323 2 0 0.0959223 0.241486
492 1 30.6367 7.87308 0.379941 0 0.326274 2 0 0.0988232 0.212376
493 1 31.4248 8.62324 0.390578 0 0.303547 2 0 0.0990611 0.839671
494 1 1.11992 10.2843 0.274311 4 1.67374e-05 2 0 0.0994487 -0.355606
495 1 1.01298 9.37753 1.20649 4 1.3562e-05 2 0 0.0994487 -0.41443
496 1 0.252597 9.92934 0.898547 4 9.96538e-06 2 0 0.0994487 -0.993185
497 1 0.36755 9.33519 0.122595 4 8.83175e-06 2 0 0.0994487 -0.58224
499 1 1.75605 9.44536 0.452252 4 2.35016e-05 2 0 0.0994487 -0.146775
500 1 1.82419 10.3747 0.969875 4 2.81677e-05 2 0 0.0994487 -0.235615
501 1 2.59083 10.2762 0.0854603 4 4.34643e-05 2 0 0.0994487 0.111278
502 1 2.37359 9.44609 1.22278 4 3.85781e-05 2 0 0.0994487 -0.235229
505 1 3.07153 9.37068 0.0798637 4 5.82479e-05 2 0 0.0994487 -0.0110562
506 1 3.3764 10.0336 0.729636 4 8.74986e-05 2 0 0.0994487 0.208512
507 1 3.93083 9.10878 0.853479 4 0.000116462 2 0 0.0994487 0.0780787
508 1 4.57569 9.17985 0.00735123 4 0.00017 2 0 0.0994487 0.11741
509 1 4.60565 9.97638 0.570406 4 0.000227435 2 0 0.0994487 0.0562745
512 1 5.32886 8.94347 0.658838 4 0.000328966 2 0 0.0994487 0.271339
513 1 6.23892 9.79241 0.51167 4 0.000787712 2 0 0.0994487 0.106574
514 1 5.3095 9.83096 1.15767 4 0.000396316 2 0 0.0994487 0.142021
515 1 6.15157 9.05029 1.25461 4 0.000671187 2 0 0.0994487 0.0799204
516 1 6.23427 10.5093 1.18094 4 0.000909172 2 0 0.0994487 0.0308577
517 1 7.16567 8.87998 0.708464 4 0.00144707 2 1 0.0994487 -0.121526
518 1 8.09535 9.0463 0.0802495 4 0.00240253 2 0 0.0994487 0.0302756
519 1 7.95867 9.92351 0.574229 4 0.00290971 2 2 0.0994487 -0.0611273
520 1 7.17876 9.73611 1.18759 4 0.00174204 2 2 0.0994487 -0.0102539
522 1 8.93974 9.45316 0.72455 4 0.00505438 2 3 0.0994487 0.0630282
523 1 9.64533 10.3362 0.655345 4 0.00825103 2 4 0.0994487 -0.0479466
526 1 11.3751 8.84686 0.729954 4 0.0159893 2 3 0.0994487 0.23975
527 1 10.4031 8.88547 0.040013 4 0.00889529 2 0 0.0994487 -0.138186
528 1 10.4642 9.68094 0.652445 4 0.0115269 2 5 0.0994487 -0.0275911
531 1 13.0078 8.96564 0.784741 4 0.0397987 2 3 0.0994487 -0.0213197
532 1 12.1098 9.81377 0.682872 4 0.027661 2 4 0.0994487 0.052396
533 1 12.8214 10.4728 0.956288 4 0.0423538 1 4 0.0994487 -0.084917
537 1 13.5317 9.67756 0.832116 4 0.055657 2 4 0.0994487 -0.139648
536 1 14.4701 9.19794 0.757688 4 0.0787037 2 2 0.0994487 -0.219742
539 1 14.2759 10.1516 0.212809 4 0.0724637 2 0 0.0994487 -0.0852929
542 1 15.1352 9.85683 1.0083 4 0.107062 1 4 0.0994487 -0.132376
546 1 15.3043 9.20714 0.0898472 4 0.0999323 2 0 0.0994487 -0.197823
540 1 15.9037 9.16019 1.13615 4 0.133309 1 5 0.0994487 -0.130137
543 1 15.695 10.1814 0.251776 4 0.121003 2 0 0.0994487 -0.0164258
544 1 16.5108 9.95951 0.961184 4 0.166876 1 2 0.0994487 -0.00166128
545 1 16.5143 9.03182 0.259112 4 0.141803 2 1 0.0994487 0.0403745
548 1 17.0975 9.07233 1.12972 4 0.187108 1 3 0.0994487 0.253289
549 1 17.1586 10.0288 0.207964 4 0.186829 2 1 0.0994487 0.0244601
550 1 17.7795 9.87441 1.07576 4 0.239614 1 2 0.0994487 0.0733571
551 1 17.7682 9.11154 0.116035 4 0.204608 2 0 0.0994487 -0.0376149
547 1 18.3024 8.89967 0.945652 4 0.248134 1 1 0.0994487 0.122747
553 1 18.6033 9.73723 0.300649 0 0.271615 2 0 0.0993164 -0.0477615
555 1 18.7425 10.4623 1.14889 0 0.315165 1 0 0.0989456 -0.254947
552 1 19.824 8.96561 1.07126 0 0.366829 1 0 0.0982401 0.0494364
554 1 19.5158 9.90161 0.854913 0 0.351879 1 0 0.0984822 0.0467703
557 1 19.2484 8.96684 0.211989 0 0.296088 2 0 0.0991278 0.0415437
558 1 19.9932 9.79255 0.07389 0 0.357004 2 0 0.0984032 0.144786
559 1 20.935 9.81688 0.757211 0 0.453893 2 0 0.0958577 0.0925876
561 1 20.7963 9.08945 0.209734 0 0.411604 2 0 0.0972625 0.0680362
562 1 21.6363 9.04637 0.987928 0 0.502907 1 0 0.093344 0.0273306
565 1 22.1026 10.5361 0.885873 0 0.554008 2 0 0.0891994 0.102194
569 1 21.9754 9.81742 0.212099 0 0.506346 2 0 0.0931209 0.0465986
564 1 22.8355 9.69743 0.812537 0 0.581844 2 0 0.0860342 0.156353
568 1 22.7607 8.87875 0.203008 0 0.534145 2 0 0.0910377 0.049028
570 1 23.4324 8.98904 0.982659 0 0.612566 1 0 0.0815935 0.042588
575 1 23.607 10.5555 0.630744 0 0.634672 2 0 0.0776873 -0.169801
571 1 24.5162 9.57705 0.769972 0 0.65386 2 0 0.0737678 -0.185717
576 1 24.3138 8.82642 0.209603 0 0.603403 2 0 0.0830329 -0.0717081
577 1 24.4428 10.3356 0.111736 0 0.630516 2 0 0.0784708 -0.208027
578 1 25.2824 8.85953 1.01124 0 0.675954 1 0 0.0686169 0.0908998
580 1 25.3822 10.2667 0.835515 0 0.672178 2 0 0.0695457 0.269884
583 1 25.6018 9.52349 0.179476 0 0.629022 2 0 0.0787478 0.0559275
579 1 26.224 9.39608 0.886798 0 0.674001 2 0 0.0691005 0.0797652
586 1 26.9944 10.1666 0.831438 0 0.652177 2 0 0.0741338 -0.190563
588 1 27.1861 9.38966 0.228832 0 0.589345 2 0 0.0850507 -0.00790681
585 1 27.9652 9.36022 0.955926 0 0.603838 2 0 0.0829698 0.52435
584 1 28.2862 10.152 0.305647 0 0.518212 2 0 0.092297 -0.107945
592 1 28.8871 9.25543 0.26698 0 0.460265 2 0 0.0955939 0.0231344
589 1 29.6009 9.91576 0.329908 0 0.422323 2 0 0.0969595 0.039188
594 1 30.3989 9.83697 1.03252 0 0.463171 2 0 0.095468 0.3609
595 1 30.4985 9.1312 0.28691 0 0.354046 2 0 0.0984499 0.0546403
593 1 31.251 9.29262 1.14098 0 0.489222 2 0 0.094168 0.965025
596 1 31.2178 9.9685 0.0414754 0 0.315112 2 0 0.0989467 0.596014
597 1 0.884307 11.0829 0.861497 4 1.65973e-05 2 0 0.0994487 -0.867626
598 1 0.316488 11.8643 0.731748 4 1.34747e-05 2 0 0.0994487 -0.865355
599 1 1.66792 11.1804 0.0305073 4 2.48388e-05 2 0 0.0994487 -0.0941743
602 1 1.88908 11.9639 0.667798 4 3.67993e-05 2 0 0.0994487 -0.0493157
604 1 2.57572 10.9565 0.706043 4 5.32495e-05 2 0 0.0994487 0.299057
605 1 3.3109 11.6496 0.70437 4 0.000115494 2 0 0.0994487 -0.0817962
608 1 4.11159 10.9261 0.546717 4 0.000191266 2 0 0.0994487 -0.0855542
609 1 4.7892 11.6902 0.339223 4 0.00034713 2 0 0.0994487 -0.00859736
612 1 5.39439 10.7046 0.434902 4 0.000480349 2 0 0.0994487 0.022815
613 1 6.16593 11.4412 0.388009 4 0.000912604 2 0 0.0994487 0.0716671
614 1 5.53205 11.4075 1.24887 4 0.000626931 2 0 0.0994487 -0.115572
615 1 6.25475 12.2081 1.12053 4 0.00115827 2 0 0.0994487 -0.0335542
617 1 6.92391 10.7003 0.458607 4 0.00146186 2 0 0.0994487 0.160726
618 1 7.93838 11.3927 0.716117 4 0.00339817 2 1 0.0994487 0.010576
619 1 7.02439 11.5601 1.11606 4 0.00184834 2 1 0.0994487 0.697596
622 1 8.75665 10.878 0.688582 4 0.00544137 2 3 0.0994487 -0.105508
623 1 9.50691 11.8688 0.520922 4 0.00852518 2 2 0.0994487 -0.253447
627 1 10.2834 12.255 0.115866 4 0.0118195 2 0 0.0994487 -0.115
626 1 11.2153 10.596 0.711587 4 0.0189852 2 2 0.0994487 -0.133822
628 1 10.3669 11.1421 0.680182 4 0.0128573 2 3 0.0994487 -0.197167
629 1 11.0549 11.5983 0.194953 4 0.0172606 2 0 0.0994487 -0.0709442
637 1 11.7607 10.7147 0.0383943 4 0.022959 2 0 0.0994487 -0.0191167
638 1 11.8129 12.3439 0.271498 4 0.025479 2 0 0.0994487 -0.0166205
633 1 12.0903 11.4605 0.999413 4 0.0306455 1 6 0.0994487 0.0381357
634 1 12.5748 11.4039 0.278125 4 0.0360244 2 0 0.0994487 -0.0143571