ITEM: TIMESTEP
34500
ITEM: NUMBER OF ATOMS
9495
ITEM: BOX BOUNDS mm mm mm
0.0000000000000000e+00 5.5669804735067281e+01
-3.0493490993930421e+00 3.3846012955211954e+01
-4.5292976823418172e+01 3.1748021039364001e+01
ITEM: ATOMS id type x y z c_phase c_temp c_surf c_nbond c_visc f_3[1]
2149 1 49.5063 13.2956 -44.7223 0 3.17145 2 0 4.53999e-06 -0.483487
1924 1 50.1582 12.6075 -44.1322 0 3.23769 2 0 4.53999e-06 -0.298235
1560 1 50.5551 13.4378 -44.9126 0 3.27326 2 0 4.53999e-06 0.249575
1561 1 51.1661 12.9192 -44.2225 0 3.36978 2 0 4.53999e-06 0.382524
2454 1 48.858 14.1595 -44.404 0 3.12176 2 0 4.53999e-06 -0.972373
2453 1 48.9426 14.0627 -45.4236 0 3.10136 2 0 4.53999e-06 -0.530696
1865 1 49.4757 14.8309 -44.1187 0 3.15224 2 0 4.53999e-06 -0.86659
2100 1 48.97 15.2025 -45.1042 0 3.08838 2 0 4.53999e-06 -0.523094
1920 1 49.7938 14.2671 -44.9614 0 3.1705 2 0 4.53999e-06 0.0656776
2101 1 49.7069 13.8411 -43.9097 0 3.19705 2 0 4.53999e-06 -0.838387
1464 1 50.1261 15.2028 -44.7583 0 3.18348 2 0 4.53999e-06 0.14769
1143 1 50.5535 14.3256 -44.3836 0 3.28144 2 0 4.53999e-06 0.294948
1142 1 50.3938 15.1318 -43.8402 0 3.23115 2 0 4.53999e-06 0.0364684
4521 1 51.4219 15.0556 -44.5299 0 3.40621 2 0 4.53999e-06 0.425124
1196 1 51.4063 13.9504 -44.2633 0 3.60086 2 0 4.53999e-06 0.495016
4544 1 52.2294 14.3518 -43.9316 0 3.8479 2 0 4.53999e-06 0.710463
2150 1 50.2707 12.2452 -42.8614 0 3.19199 2 0 4.53999e-06 -0.489296
2503 1 49.892 13.154 -43.2354 0 3.21587 2 0 4.53999e-06 -0.849538
2105 1 50.5343 13.1912 -42.4517 0 3.22957 2 0 4.53999e-06 -0.748312
1921 1 51.1372 12.8376 -43.1587 0 3.31416 2 0 4.53999e-06 0.214368
1562 1 51.176 12.3476 -42.3056 0 3.22227 2 0 4.53999e-06 -0.0379822
1201 1 52.0679 13.33 -42.5873 0 3.4205 1 0 4.53999e-06 0.544371
3628 1 51.8505 13.3773 -43.5674 0 3.68063 2 0 4.53999e-06 0.59257
900 1 50.771 13.6239 -43.5435 0 3.32344 1 0 4.53999e-06 -0.263776
4113 1 53.005 13.4047 -42.2344 0 3.69911 2 0 4.53999e-06 0.831267
1870 1 49.4092 14.6795 -43.1283 0 3.14065 2 0 4.53999e-06 -0.95425
2460 1 50.1519 14.0261 -42.2197 0 3.18599 2 0 4.53999e-06 -0.802673
1469 1 50.2235 14.2238 -43.1305 0 3.23086 1 0 4.53999e-06 -0.942868
906 1 50.5284 15.1003 -42.8086 0 3.22543 1 0 4.53999e-06 -0.20953
8451 1 51.0146 14.5223 -43.4452 0 3.34394 1 0 4.53999e-06 0.233367
1149 1 51.3178 13.7041 -42.328 0 3.3028 1 0 4.53999e-06 -0.346946
3632 1 50.9592 14.4537 -42.3534 0 3.26606 1 0 4.53999e-06 -0.48007
4545 1 51.5979 14.0406 -43.0379 0 3.42828 1 0 4.53999e-06 0.770289
9330 1 51.5871 14.8674 -42.7833 0 3.38767 1 0 4.53999e-06 0.466358
4130 1 52.4306 14.4423 -42.5212 0 3.6588 2 0 4.53999e-06 0.86676
4109 1 52.3636 15.1034 -43.3245 0 3.80261 2 0 4.53999e-06 0.755735
4522 1 52.7755 13.8017 -43.2086 0 3.8814 2 0 4.53999e-06 0.865784
952 1 52.2652 11.8462 -40.8739 0 3.08749 2 0 4.53999e-06 0.0381795
2551 1 50.8869 13.0505 -41.4627 0 3.17574 2 0 4.53999e-06 -0.784528
2151 1 51.3142 12.137 -41.187 0 3.10868 2 0 4.53999e-06 -0.650363
2153 1 51.8308 12.8161 -41.8236 0 3.26072 2 0 4.53999e-06 0.0393688
1928 1 52.031 13.0925 -40.9502 0 3.18721 1 0 4.53999e-06 -0.714159
3522 1 52.8502 12.6052 -40.694 0 3.17005 1 0 4.53999e-06 0.368508
3630 1 52.7433 12.539 -41.6761 0 3.46592 2 0 4.53999e-06 0.492573
903 1 52.7729 13.4479 -41.2612 0 3.29681 1 0 4.53999e-06 0.736511
6588 1 49.3254 14.6627 -41.983 0 3.07992 2 0 4.53999e-06 -0.849229
6967 1 49.9539 14.741 -40.8566 0 3.01349 2 0 4.53999e-06 -0.589595
6032 1 50.4059 14.8764 -41.826 0 3.16602 2 0 4.53999e-06 -0.434259
2457 1 51.0451 14.0005 -41.5095 0 3.2033 1 0 4.53999e-06 -0.745448
2104 1 51.3086 13.6172 -40.5817 0 3.12118 2 0 4.53999e-06 -0.863474
7563 1 51.3913 14.7317 -41.0815 0 3.18136 2 0 4.53999e-06 -0.260705
3629 1 51.9943 14.0258 -41.0077 0 3.21476 1 0 4.53999e-06 -0.533862
9333 1 52.0897 13.8946 -41.8516 0 3.34194 1 0 4.53999e-06 0.857472
8452 1 51.3576 15.2541 -41.9432 0 3.27053 2 0 4.53999e-06 0.0138656
9329 1 52.8113 14.2782 -40.7557 0 3.25475 1 0 4.53999e-06 0.303382
9222 1 52.2792 14.8833 -41.591 0 3.32952 2 0 4.53999e-06 0.392342
4114 1 53.0864 14.2528 -41.6851 0 3.61114 2 0 4.53999e-06 0.7885
8992 1 53.728 13.8165 -40.8999 0 3.51514 2 0 4.53999e-06 0.885671
2547 1 51.3378 11.6181 -40.1889 0 2.93478 2 0 4.53999e-06 -0.877127
1195 1 52.1499 10.9423 -38.7809 0 2.78395 2 0 4.53999e-06 -0.632763
1008 1 52.2852 11.161 -39.8812 0 2.89718 2 0 4.53999e-06 -0.149661
4325 1 53.2755 11.0857 -38.8504 0 2.87009 2 0 4.53999e-06 0.192083
3519 1 52.9927 11.8147 -39.6391 0 3.00516 2 0 4.53999e-06 0.101122
1922 1 52.2002 12.4082 -40.0364 0 3.04888 1 0 4.53999e-06 -0.812628
1866 1 52.1597 13.3094 -40.0162 0 3.08585 1 0 4.53999e-06 -0.936353
1199 1 52.1861 12.0888 -38.9784 0 2.90416 2 0 4.53999e-06 -0.911372
7205 1 52.085 13.2498 -39.0556 0 2.94873 1 0 4.53999e-06 -0.969242
4125 1 53.5308 13.1039 -40.3196 0 3.1858 1 0 4.53999e-06 0.81405
1148 1 52.9908 12.8026 -39.703 0 3.07132 1 0 4.53999e-06 -0.159374
1869 1 53.1141 12.7872 -38.8746 0 2.9827 1 0 4.53999e-06 -0.700379
4587 1 53.7271 12.1823 -40.2826 0 3.38127 2 0 4.53999e-06 0.597001
4520 1 53.8071 12.2657 -39.3116 0 3.07166 1 0 4.53999e-06 0.541265
3631 1 52.8051 13.5313 -40.3625 0 3.16824 1 0 4.53999e-06 0.497551
1466 1 52.8265 13.5951 -39.3623 0 3.04059 1 0 4.53999e-06 -0.668821
9220 1 53.7592 13.413 -38.7999 0 3.05018 1 0 4.53999e-06 0.713564
3870 1 54.9181 12.3339 -39.2411 0 3.50736 2 0 4.53999e-06 0.719407
4548 1 54.0648 13.0839 -39.5539 0 3.14599 1 0 4.53999e-06 0.857936
8739 1 55.036 13.3775 -38.8124 0 3.49535 2 0 4.53999e-06 0.817923
6973 1 51.2434 14.4888 -39.9832 0 3.0236 2 0 4.53999e-06 -0.7112
7556 1 52.1727 14.1969 -40.08 0 3.10586 1 0 4.53999e-06 -0.548952
6298 1 52.2366 14.3868 -39.1211 0 2.97094 2 0 4.53999e-06 -0.466633
8449 1 52.9345 14.6968 -39.7539 0 3.12552 2 0 4.53999e-06 0.0521594
9334 1 53.4441 13.8481 -39.8228 0 3.15487 1 0 4.53999e-06 0.754739
7557 1 53.309 14.2739 -38.8935 0 3.02651 2 0 4.53999e-06 0.178094
9428 1 53.6535 14.6849 -40.4157 0 3.55065 2 0 4.53999e-06 0.594232
9218 1 54.2229 14.0242 -39.2816 0 3.36297 2 0 4.53999e-06 0.737362
1976 1 52.7022 11.4229 -37.9348 0 2.80371 2 0 4.53999e-06 -0.73739
955 1 53.631 11.4884 -37.5237 0 2.86968 1 0 4.53999e-06 -0.0664197
4417 1 54.2776 11.499 -38.3294 0 3.00546 2 0 4.53999e-06 0.401611
4588 1 54.3261 10.9124 -37.0727 0 2.89715 2 0 4.53999e-06 0.362856
4227 1 55.2982 11.5453 -37.6384 0 3.43812 2 0 4.53999e-06 0.707515
7202 1 51.7006 13.3286 -37.7004 0 2.70909 2 0 4.53999e-06 -0.947253
954 1 53.4548 12.0105 -38.5302 0 2.94755 1 0 4.53999e-06 -0.0446153
2553 1 53.0212 12.3642 -37.9757 0 2.88117 1 0 4.53999e-06 -0.839591
7203 1 52.4521 13.0015 -38.1763 0 2.86142 1 0 4.53999e-06 -0.934226
4518 1 53.8756 12.3754 -37.6162 0 2.94402 1 0 4.53999e-06 0.230154
7204 1 53.4201 13.0482 -37.9022 0 2.91979 1 0 4.53999e-06 -0.612475
2656 1 52.9971 12.3083 -37.1034 0 2.80254 1 0 4.53999e-06 -0.906166
6304 1 53.9188 13.157 -37.146 0 2.92339 1 0 4.53999e-06 0.0139483
6608 1 53.0203 13.5446 -38.4711 0 2.94308 1 0 4.53999e-06 -0.436553
8448 1 53.9983 12.6567 -38.5027 0 3.03452 1 0 4.53999e-06 0.778983
4519 1 54.819 12.2832 -38.1833 0 3.15323 1 0 4.53999e-06 0.77195
902 1 54.6373 12.6475 -37.2932 0 3.06531 1 0 4.53999e-06 0.980914
4546 1 55.6222 12.5254 -37.0542 0 3.46577 2 0 4.53999e-06 0.983441
3213 1 55.6566 12.7163 -38.1164 0 3.59515 2 0 4.53999e-06 0.947351
7555 1 54.2586 13.2084 -37.9593 0 3.03678 1 0 4.53999e-06 0.733449
9221 1 55.1085 13.4441 -37.6037 0 3.37361 2 0 4.53999e-06 0.751621
6604 1 51.5338 13.9718 -38.5595 0 2.81863 2 0 4.53999e-06 -0.949823
7474 1 51.3962 14.1744 -37.1346 0 2.5563 2 0 4.54e-06 -0.690053
6908 1 52.5489 13.6791 -37.2144 0 2.73824 2 0 4.53999e-06 -0.45288
6027 1 52.4556 14.1587 -38.1197 0 2.84453 2 0 4.53999e-06 -0.27865
6030 1 53.4633 13.8856 -37.5722 0 2.88627 1 0 4.53999e-06 -0.0580704
9171 1 54.2465 14.141 -38.1982 0 3.05229 2 0 4.53999e-06 0.407683
1253 1 53.044 10.4416 -36.8976 0 2.68229 2 0 4.54e-06 -0.368152
2598 1 52.856 11.4707 -36.7772 0 2.7441 2 0 4.53999e-06 -0.862684
1010 1 53.7448 11.3553 -36.468 0 2.81996 2 0 4.53999e-06 -0.0726312
3425 1 53.0565 11.1771 -35.6796 0 2.70592 2 0 4.53999e-06 -0.712098
4630 1 54.0164 10.8232 -35.7044 0 2.80531 2 0 4.53999e-06 0.203505
3520 1 54.6053 11.7721 -36.9427 0 3.012 1 0 4.53999e-06 0.616569
4420 1 54.7369 11.4477 -35.7782 0 3.15973 2 0 4.53999e-06 0.679538
7152 1 52.2841 12.8602 -36.6581 0 2.66975 2 0 4.54e-06 -0.919725
7373 1 51.329 13.4523 -36.1743 0 2.48019 2 0 4.54001e-06 -0.986738
2552 1 53.9219 12.4832 -36.6526 0 2.89097 1 0 4.53999e-06 -0.156206
6970 1 53.2008 13.0898 -36.6776 0 2.78362 1 0 4.53999e-06 -0.811406
7376 1 52.8329 12.9166 -35.6093 0 2.66195 1 0 4.54e-06 -0.968435
2599 1 53.1548 12.188 -36.0843 0 2.74737 1 0 4.53999e-06 -0.886641
1926 1 54.0305 12.0432 -35.7503 0 2.86387 1 0 4.53999e-06 0.153074
6301 1 53.8958 13.325 -36.104 0 2.83925 1 0 4.53999e-06 -0.2302
6972 1 54.3718 12.8962 -35.4318 0 2.89817 1 0 4.53999e-06 0.992785
901 1 55.0939 12.183 -36.245 0 3.25455 2 0 4.53999e-06 0.843003
4516 1 54.6562 12.941 -36.4304 0 3.01952 1 0 4.53999e-06 0.971192
3873 1 55.7081 12.927 -35.9575 0 3.41713 2 0 4.53999e-06 0.994351
8546 1 54.7557 13.5432 -35.7764 0 2.98834 1 0 4.53999e-06 0.543767
6297 1 52.2651 13.7328 -36.0903 0 2.58663 2 0 4.54e-06 -0.566584
6245 1 53.1862 13.739 -35.9092 0 2.70233 2 0 4.53999e-06 -0.294021
8547 1 54.4104 13.874 -36.8808 0 2.97845 2 0 4.53999e-06 0.141715
8944 1 55.3988 13.6764 -36.6176 0 3.37452 2 0 4.53999e-06 0.768349
9168 1 55.495 13.9029 -35.4931 0 3.35296 2 0 4.53999e-06 0.742127
9122 1 54.6049 14.463 -36.0147 0 2.93031 2 0 4.53999e-06 0.0627634
1255 1 53.2023 11.9239 -35.0184 0 2.6979 1 0 4.53999e-06 -0.689159
1685 1 52.7222 11.3026 -34.3403 0 2.59982 2 0 4.54e-06 -0.619639
4229 1 53.6716 11.0753 -34.7067 0 2.73081 2 0 4.53999e-06 0.118852
4326 1 53.3838 11.2485 -33.5641 0 2.62857 2 0 4.54e-06 0.302475
4591 1 54.4454 11.6236 -34.8096 0 3.04439 2 0 4.53999e-06 0.617495
6450 1 51.6887 13.3428 -34.9907 0 2.48511 2 0 4.54001e-06 -0.980997
6905 1 52.4217 12.4886 -34.7563 0 2.58101 2 0 4.54e-06 -0.904883
6590 1 53.6276 12.7017 -35.1994 0 2.75286 1 0 4.53999e-06 -0.679141
6907 1 52.6688 13.0811 -34.1003 0 2.59139 1 0 4.54e-06 -0.870685
8447 1 53.9533 13.195 -34.3618 0 2.74781 1 0 4.53999e-06 0.590341
1569 1 52.6089 12.12 -33.7432 0 2.58356 1 0 4.54e-06 -0.707739
3521 1 53.4186 12.0611 -34.0626 0 2.68071 1 0 4.54e-06 0.184985
7374 1 53.3505 12.7867 -34.2072 0 2.66819 1 0 4.54e-06 -0.665828
1923 1 54.0421 12.3138 -34.5729 0 2.79434 1 0 4.53999e-06 0.66413
6605 1 53.369 13.4179 -34.9376 0 2.68469 1 0 4.54e-06 -0.322059
4547 1 54.9916 12.3058 -35.2867 0 3.17182 2 0 4.53999e-06 0.829935
8989 1 55.5454 13.0872 -34.9173 0 3.31736 2 0 4.53999e-06 0.901331
9331 1 54.6972 12.8598 -34.5515 0 2.89593 1 0 4.53999e-06 0.874736
6240 1 52.5595 13.7008 -35.0056 0 2.58264 2 0 4.54e-06 -0.612263
7662 1 53.9681 13.9887 -35.3064 0 2.78056 2 0 4.53999e-06 -0.0596471
9429 1 53.0946 13.9391 -34.1657 0 2.60684 2 0 4.54e-06 -0.197296
9123 1 53.9771 13.83 -33.7257 0 2.70981 2 0 4.53999e-06 0.361683
9169 1 54.6874 13.7785 -34.7215 0 2.8874 2 0 4.53999e-06 0.458741
2452 1 51.8376 11.5893 -33.0056 0 2.47294 2 0 4.54001e-06 -0.696114
1011 1 51.7331 11.6095 -31.7362 0 2.44956 2 0 4.54002e-06 -0.321414
1688 1 50.8462 11.9522 -31.6807 0 2.37053 2 0 4.54004e-06 -0.685985
1259 1 52.6209 11.013 -32.9838 0 2.50938 2 0 4.54001e-06 -0.107851
4331 1 53.8337 11.8055 -32.9314 0 2.88679 2 0 4.53999e-06 0.737218
4330 1 52.6747 11.6174 -32.2255 0 2.55955 2 0 4.54e-06 0.184045
6513 1 51.7297 12.6547 -33.1599 0 2.49561 2 0 4.54001e-06 -0.90899
7559 1 52.1913 13.5206 -33.353 0 2.5337 2 0 4.54e-06 -0.665603
2201 1 51.9398 12.2137 -32.3735 0 2.50345 1 0 4.54001e-06 -0.838721
6031 1 51.9999 13.0792 -32.3482 0 2.51707 1 0 4.54e-06 -0.737029
2548 1 52.6317 12.841 -33.2614 0 2.57629 1 0 4.54e-06 -0.766931
1566 1 52.6415 12.2469 -32.8545 0 2.57691 1 0 4.54e-06 -0.3008
1563 1 53.4404 12.5009 -33.3667 0 2.66213 1 0 4.54e-06 0.892352
7554 1 53.247 13.3475 -33.4586 0 2.62885 1 0 4.54e-06 0.221522
1567 1 52.5539 12.5628 -32.0105 0 2.56663 1 0 4.54e-06 0.363993
1198 1 53.2584 12.3196 -32.4651 0 2.63585 1 0 4.54e-06 0.835665
6303 1 52.9335 12.9828 -32.5124 0 2.60617 1 0 4.54e-06 0.533369
9224 1 53.7622 13.0676 -32.8221 0 2.68386 1 0 4.54e-06 0.849262
4549 1 53.4824 12.7879 -31.7125 0 2.84633 2 0 4.53999e-06 0.88169
8600 1 53.2564 13.6162 -31.8827 0 2.86455 2 0 4.53999e-06 0.51921
4515 1 54.4538 12.37 -33.5692 0 2.99415 2 0 4.53999e-06 0.835594
3872 1 54.7902 13.3198 -33.5811 0 3.09257 2 0 4.53999e-06 0.774803
8945 1 52.6939 13.6502 -32.6418 0 2.58405 2 0 4.54e-06 -0.0853221
1681 1 49.3638 11.7595 -30.5026 0 2.24175 2 0 4.54018e-06 -0.598637
3422 1 50.1846 11.9554 -30.0089 0 2.29794 2 0 4.5401e-06 -0.227059
1313 1 50.8512 11.4623 -30.6791 0 2.32542 2 0 4.54007e-06 -0.155177
4328 1 52.003 11.7829 -30.624 0 2.43469 2 0 4.54002e-06 0.389543
4228 1 53.1962 11.9417 -31.5266 0 2.81735 2 0 4.53999e-06 0.6375
2202 1 50.417 12.297 -30.8146 0 2.32891 2 0 4.54007e-06 -0.670997
7151 1 49.5384 13.2579 -30.3496 0 2.31089 2 0 4.54009e-06 -0.414857
7472 1 50.4186 12.9812 -30.4572 0 2.33391 1 0 4.54007e-06 -0.606111
2154 1 51.6407 12.5575 -31.6325 0 2.45999 1 0 4.54001e-06 -0.919084
7377 1 50.8302 12.9291 -31.3756 0 2.37849 2 0 4.54004e-06 -0.638265
4419 1 52.2926 12.0953 -31.4098 0 2.51865 1 0 4.54e-06 0.231975
1467 1 51.8657 12.8273 -30.9487 0 2.47254 1 0 4.54001e-06 0.360668
6243 1 51.5748 13.5283 -31.4798 0 2.44663 2 0 4.54002e-06 -0.311877
1257 1 51.2324 12.2058 -30.6262 0 2.38462 1 0 4.54004e-06 0.0516539
4232 1 51.7772 12.669 -30.1487 0 2.59916 2 0 4.54e-06 0.549498
7558 1 51.1938 13.3464 -30.6238 0 2.38722 2 0 4.54004e-06 0.0982419
3641 1 52.105 13.5662 -30.4748 0 2.49166 2 0 4.54001e-06 0.390492
4551 1 52.6999 12.7234 -31.1396 0 2.58977 1 0 4.54e-06 0.641346
9223 1 52.432 13.3204 -31.6206 0 2.56514 1 0 4.54e-06 0.0714331
3876 1 53.1032 13.2759 -30.4994 0 3.0078 2 0 4.53999e-06 0.659751
6237 1 48.7068 13.8149 -30.4472 0 2.28268 2 0 4.54012e-06 -0.418645
6242 1 50.302 13.7954 -30.6897 0 2.31919 2 0 4.54008e-06 -0.18636
1684 1 48.471 12.4514 -29.4371 0 2.29734 2 0 4.5401e-06 -0.519631
7475 1 48.7366 13.2553 -29.7302 0 2.33082 2 0 4.54007e-06 -0.633054
1056 1 47.8317 12.5915 -28.5847 0 2.31298 2 0 4.54008e-06 -0.185654
1929 1 47.2619 13.315 -28.5022 0 2.3144 2 0 4.54008e-06 -0.307155
2655 1 48.4401 13.17 -28.8561 0 2.35946 2 0 4.54005e-06 0.0960219
2208 1 49.3977 12.6495 -29.8176 0 2.31157 2 0 4.54008e-06 -0.437845
4416 1 50.2186 12.7351 -29.6782 0 2.32574 2 0 4.54007e-06 0.239574
956 1 49.4269 13.1073 -29.0407 0 2.40626 2 0 4.54003e-06 0.47126
7657 1 50.0407 13.5294 -29.7307 0 2.34327 2 0 4.54006e-06 0.417826
4631 1 49.2888 12.2209 -28.9631 0 2.30354 2 0 4.54009e-06 0.116077
3966 1 51.0808 12.0751 -29.6467 0 2.33759 2 0 4.54006e-06 0.283892
904 1 51.034 13.0677 -29.7795 0 2.35829 2 0 4.54005e-06 0.435366
6968 1 46.696 13.918 -28.4877 0 2.28106 2 0 4.54012e-06 -0.449252
7150 1 48.1656 14.083 -29.6061 0 2.32377 2 0 4.54007e-06 -0.458474
7553 1 47.8169 13.7026 -28.8555 0 2.3451 2 0 4.54006e-06 -0.322855
8544 1 47.3098 14.3076 -28.3993 0 2.3176 2 0 4.54008e-06 -0.103537
8898 1 48.1039 14.4202 -28.6315 0 2.35706 2 0 4.54005e-06 0.343317
9172 1 48.746 13.7826 -29.0311 0 2.49034 2 0 4.54001e-06 0.478763
9126 1 49.2712 14.0237 -29.7504 0 2.34949 2 0 4.54006e-06 0.105938
8943 1 49.6571 13.9395 -28.928 0 2.62638 2 0 4.54e-06 0.543126
9120 1 50.8859 14.0397 -29.9102 0 2.33286 2 0 4.54007e-06 0.332695
2205 1 46.2983 13.5068 -28.028 0 2.25772 2 0 4.54015e-06 -0.527593
2597 1 45.526 13.3859 -27.6215 0 2.23014 2 0 4.5402e-06 -0.733374
1683 1 46.1915 12.7245 -27.5285 0 2.22961 2 0 4.5402e-06 -0.21926
953 1 46.29 13.7298 -27.3618 0 2.25915 1 0 4.54015e-06 -0.600155
4633 1 46.9628 13.155 -27.7622 0 2.28961 2 0 4.54011e-06 0.128125
1258 1 45.7718 13.32 -26.7799 0 2.23893 2 0 4.54018e-06 -0.275617
3922 1 46.673 13.2484 -26.97 0 2.26274 2 0 4.54014e-06 0.278074
4590 1 48.0401 13.2721 -28.0375 0 2.51077 2 0 4.54001e-06 0.543664
4121 1 47.2105 13.7631 -27.2347 0 2.43745 2 0 4.54002e-06 0.599199
6455 1 43.9129 14.8977 -27.2346 0 2.26453 2 0 4.54014e-06 -0.395457
6591 1 44.8459 13.8072 -26.9632 0 2.27102 2 0 4.54013e-06 -0.766744
6512 1 45.0409 14.6708 -27.1158 0 2.26334 2 0 4.54014e-06 -0.364733
6509 1 46.0129 14.4187 -28.078 0 2.24396 2 0 4.54017e-06 -0.493746
1197 1 45.6626 14.1153 -27.3479 0 2.24486 2 0 4.54017e-06 -0.827944
6305 1 46.7514 14.3009 -27.7191 0 2.28422 1 0 4.54011e-06 -0.0776024
7658 1 46.1447 14.737 -27.1544 0 2.24793 2 0 4.54017e-06 -0.0719091
3643 1 46.4189 14.0524 -26.7009 0 2.2558 2 0 4.54015e-06 0.233469
3281 1 47.0827 14.5661 -27.0236 0 2.2857 2 0 4.54011e-06 0.389605
9227 1 47.4193 13.7172 -27.9528 0 2.33314 1 0 4.54007e-06 0.810555
8686 1 47.4929 15.1376 -28.0486 0 2.29857 2 0 4.5401e-06 0.155582
8595 1 47.6912 14.2967 -27.7141 0 2.47824 2 0 4.54001e-06 0.655849
3640 1 48.5253 13.9305 -28.113 0 2.56645 2 0 4.54e-06 0.76256
2449 1 43.0588 13.4678 -25.4887 0 2.43251 2 0 4.54002e-06 0.146461
2199 1 42.155 13.4808 -25.3332 0 2.37903 2 0 4.54004e-06 -0.449622
6974 1 41.7964 14.4934 -25.1827 0 2.38244 2 0 4.54004e-06 -0.695964
6694 1 43.2899 14.9608 -26.2005 0 2.40086 2 0 4.54003e-06 -0.36177
2652 1 43.0819 14.1925 -25.8294 0 2.44387 2 0 4.54002e-06 -0.224988
2152 1 42.5069 14.1693 -25.2578 0 2.4254 2 0 4.54002e-06 -0.432073
7656 1 42.7223 14.8396 -25.352 0 2.44239 2 0 4.54002e-06 -0.172672
4124 1 43.1418 14.0851 -24.8666 0 2.58616 2 0 4.54e-06 0.829868
8946 1 43.5946 14.5753 -25.4198 0 2.61651 2 0 4.54e-06 0.680747
3523 1 44.6641 13.7783 -26.0505 0 2.3768 2 0 4.54004e-06 0.195574
8543 1 43.9641 14.2812 -26.2999 0 2.39894 2 0 4.54003e-06 -0.234556
8838 1 44.159 15.0899 -25.9209 0 2.41586 2 0 4.54003e-06 0.277821
9170 1 44.8695 14.6321 -26.2459 0 2.349 2 0 4.54006e-06 0.48083
4593 1 43.8618 13.8225 -25.4435 0 2.64464 2 0 4.54e-06 0.57297
3874 1 44.5524 14.4402 -25.3241 0 2.69155 2 0 4.54e-06 0.681821
1565 1 45.5628 14.117 -26.4984 0 2.26839 2 0 4.54013e-06 0.0560325
1260 1 41.2811 13.6924 -24.2354 0 2.35099 2 0 4.54005e-06 -0.78183
1256 1 42.0708 13.242 -24.1096 0 2.35637 2 0 4.54005e-06 -0.0844889
4225 1 42.814 13.4393 -24.6469 0 2.41167 2 0 4.54003e-06 0.397849
6302 1 41.767 14.3411 -24.3943 0 2.38661 2 0 4.54004e-06 -0.977018
7149 1 41.1424 15.0745 -24.4369 0 2.34573 2 0 4.54006e-06 -0.678757
6606 1 40.8813 14.3846 -23.7173 0 2.37099 2 0 4.54004e-06 -0.982424
8497 1 41.9265 14.7454 -23.8258 0 2.4141 2 0 4.54003e-06 -0.0378625
6452 1 40.616 15.0769 -23.1151 0 2.39558 2 0 4.54003e-06 -0.34942
4418 1 41.7531 13.9939 -23.516 0 2.39309 2 0 4.54003e-06 0.0190467
1261 1 42.1444 13.852 -24.6576 0 2.39432 2 0 4.54003e-06 -0.524356
6906 1 42.1646 15.0929 -24.6766 0 2.415 2 0 4.54003e-06 -0.187151
9226 1 42.59 14.5423 -24.3962 0 2.44127 2 0 4.54002e-06 0.480357
8897 1 43.1954 14.8242 -24.7253 0 2.63952 2 0 4.54e-06 0.587393
4424 1 42.5641 13.981 -23.9592 0 2.41372 2 0 4.54003e-06 0.492896
8317 1 42.865 15.1469 -23.5141 0 2.71793 2 0 4.53999e-06 0.483295
2600 1 39.6865 13.3859 -21.4068 0 2.40224 2 0 4.54003e-06 -0.392545
1691 1 40.5814 13.509 -21.6507 0 2.5109 2 0 4.54001e-06 0.525404
6508 1 40.0282 14.3253 -22.8283 0 2.39068 2 0 4.54003e-06 -0.684063
9128 1 40.199 14.832 -21.8997 0 2.46113 2 0 4.54001e-06 -0.072202
8444 1 40.0641 14.0566 -21.9326 0 2.43418 2 0 4.54002e-06 -0.231929
2456 1 39.2669 14.1317 -21.7795 0 2.39333 2 0 4.54003e-06 -0.823086
8450 1 40.871 13.8996 -22.7434 0 2.42075 2 0 4.54002e-06 0.237559
8270 1 41.3813 14.6646 -22.748 0 2.69171 2 0 4.54e-06 0.701433
8500 1 40.8501 14.2899 -21.7939 0 2.64341 2 0 4.54e-06 0.967182
3217 1 40.9822 14.9356 -21.2516 0 2.75635 2 0 4.53999e-06 0.800698
2212 1 39.4483 13.2802 -19.74 0 2.40865 2 0 4.54003e-06 -0.326188
4324 1 40.3782 13.2788 -20.8182 0 2.42486 2 0 4.54002e-06 0.438221
4415 1 39.8242 13.6888 -20.3866 0 2.44661 1 0 4.54002e-06 -0.0883012
9427 1 39.0224 14.0748 -20.029 0 2.42322 2 0 4.54002e-06 -0.981197
2458 1 39.3546 13.9528 -20.836 0 2.4216 2 0 4.54002e-06 -0.896809
8263 1 40.0133 14.1298 -21.1558 0 2.4499 1 0 4.54002e-06 -0.00152022
8990 1 39.7336 14.3492 -19.9146 0 2.47728 1 0 4.54001e-06 -0.287195
8738 1 39.6842 14.5274 -20.5218 0 2.45493 1 0 4.54001e-06 -0.61894
6241 1 39.5163 14.67 -21.2149 0 2.42907 2 0 4.54002e-06 -0.670461
8314 1 40.1837 14.9758 -21.0096 0 2.47609 2 0 4.54001e-06 0.198918
6185 1 38.953 15.0039 -20.2004 0 2.41096 2 0 4.54003e-06 -0.789938
3967 1 40.4337 13.9266 -20.0549 0 2.63164 2 0 4.54e-06 0.827888
3970 1 40.5339 14.1574 -20.8764 0 2.47657 1 0 4.54001e-06 0.986437
8316 1 40.3388 14.6564 -20.2875 0 2.50818 1 0 4.54001e-06 0.759237
1973 1 39.3639 12.7147 -18.9258 0 2.29756 2 0 4.5401e-06 -0.182949
4333 1 39.7417 13.5005 -18.4969 0 2.44599 2 0 4.54002e-06 0.399524
5920 1 38.5858 14.203 -18.3387 0 2.37343 2 0 4.54004e-06 -0.961975
8442 1 39.208 13.9678 -19.1145 0 2.4425 2 0 4.54002e-06 -0.915205
4116 1 39.9584 13.9743 -19.366 0 2.62525 2 0 4.54e-06 0.608992
7653 1 39.3503 14.2036 -18.0706 0 2.46409 2 0 4.54001e-06 -0.740013
7660 1 39.4504 14.781 -19.2721 0 2.47912 2 0 4.54001e-06 -0.416471
3692 1 39.9885 14.4379 -18.5859 0 2.71104 2 0 4.53999e-06 0.719052
3207 1 40.5726 14.8013 -19.3258 0 2.83547 2 0 4.53999e-06 0.797896
1789 1 40.046 12.9228 -16.3797 0 2.41643 2 0 4.54003e-06 0.131361
2022 1 39.4224 13.1481 -17.48 0 2.40413 2 0 4.54003e-06 -0.171872
1013 1 40.457 13.6109 -16.9292 0 2.70971 2 0 4.53999e-06 0.793317
6458 1 38.0538 13.9124 -17.2921 0 2.28895 2 0 4.54011e-06 -0.943937
4231 1 39.9606 13.9266 -17.5823 0 2.66445 2 0 4.54e-06 0.798391
6033 1 38.8385 13.5923 -16.3627 0 2.35222 2 0 4.54005e-06 -0.623782
9225 1 39.6105 13.7554 -16.6254 0 2.44799 1 0 4.54002e-06 -0.145386
8684 1 40.057 14.4782 -16.8112 0 2.65514 2 0 4.54e-06 0.578059
8269 1 39.3981 14.7941 -17.2995 0 2.46093 2 0 4.54001e-06 -0.196943
8213 1 39.0857 13.9838 -17.2344 0 2.41265 2 0 4.54003e-06 -0.872281
9125 1 39.1853 14.6047 -16.2307 0 2.39262 1 0 4.54003e-06 -0.491321
5917 1 38.5561 14.4457 -16.6858 0 2.34178 2 0 4.54006e-06 -0.838997
3740 1 40.8388 14.1781 -16.2779 0 2.74533 2 0 4.53999e-06 0.971088
3212 1 40.4498 14.7319 -17.7035 0 2.86563 2 0 4.53999e-06 0.753439
8102 1 40.2965 14.9105 -16.0795 0 2.68406 2 0 4.54e-06 0.525458
3514 1 40.0899 13.7381 -15.9299 0 2.45745 1 0 4.54001e-06 0.479442
4321 1 40.1707 13.3891 -14.152 0 2.36912 1 0 4.54004e-06 0.0379956
1974 1 39.847 13.5406 -15.0837 0 2.3826 1 0 4.54004e-06 -0.143962
1057 1 40.3995 12.9268 -15.1816 0 2.38156 2 0 4.54004e-06 0.226181
4014 1 40.928 13.6291 -15.3418 0 2.66264 2 0 4.54e-06 0.944612
7106 1 38.3201 14.2242 -14.6433 0 2.28708 2 0 4.54011e-06 -0.987323
6182 1 38.033 14.4522 -15.8224 0 2.28223 2 0 4.54012e-06 -0.971163
6515 1 38.6962 13.8733 -15.5456 0 2.32273 2 0 4.54007e-06 -0.779858
8596 1 39.353 14.1073 -15.1607 0 2.36123 1 0 4.54005e-06 -0.865164
8948 1 39.7312 14.3677 -15.8311 0 2.43213 1 0 4.54002e-06 0.126966
2102 1 39.081 13.71 -14.268 0 2.31435 2 0 4.54008e-06 -0.633698
4230 1 39.8116 14.0141 -14.2509 0 2.35737 1 0 4.54005e-06 -0.248101
8315 1 39.9205 14.6191 -14.8219 0 2.3817 1 0 4.54004e-06 0.367134
8268 1 39.2275 14.5464 -14.3752 0 2.33084 1 0 4.54007e-06 -0.686321
8267 1 39.6389 15.1953 -15.4727 0 2.40083 2 0 4.54003e-06 0.0123051
7661 1 38.8632 14.7837 -15.27 0 2.33169 2 0 4.54007e-06 -0.633909
3920 1 40.4391 14.302 -15.3224 0 2.44574 1 0 4.54002e-06 0.910923
3423 1 40.5989 14.1416 -14.4137 0 2.41465 1 0 4.54003e-06 0.939803
1925 1 39.9206 13.7003 -13.3149 0 2.34508 1 0 4.54006e-06 -0.325276
3793 1 41.2617 12.9908 -12.6888 0 2.43802 2 0 4.54002e-06 0.364452
1687 1 40.3392 12.9971 -13.0175 0 2.33687 2 0 4.54006e-06 -0.185873
4673 1 41.0446 13.4614 -14.0859 0 2.60267 2 0 4.54e-06 0.747755
4634 1 40.8515 13.7522 -13.2656 0 2.43781 1 0 4.54002e-06 0.654951
3517 1 40.432 13.8398 -12.484 0 2.37701 1 0 4.54004e-06 -0.0262307
3737 1 41.8115 13.6629 -13.1119 0 2.79248 2 0 4.53999e-06 0.855163
5918 1 38.6244 14.3898 -13.6457 0 2.29079 2 0 4.54011e-06 -0.995308
6687 1 38.0858 14.3508 -12.3738 0 2.2577 2 0 4.54015e-06 -0.837238
6689 1 38.9162 13.7157 -13.0543 0 2.28829 2 0 4.54011e-06 -0.619232
909 1 39.7292 14.2858 -12.6605 0 2.33961 1 0 4.54006e-06 -0.88764
9425 1 39.5444 14.3678 -13.5015 0 2.33559 1 0 4.54006e-06 -0.935035
8101 1 40.1146 14.9637 -12.9045 0 2.39158 1 0 4.54003e-06 0.0790058
8264 1 39.8301 15.0956 -13.9536 0 2.37159 2 0 4.54004e-06 0.0417079
8899 1 38.9924 14.3752 -12.2709 0 2.29798 1 0 4.5401e-06 -0.838736
8837 1 39.2227 15.0361 -13.0103 0 2.32034 1 0 4.54008e-06 -0.358663
3738 1 41.4835 14.4431 -13.5847 0 2.75379 2 0 4.53999e-06 0.78073
3923 1 40.8779 14.5537 -12.9176 0 2.46148 1 0 4.54001e-06 0.723619
3642 1 40.4231 14.5161 -13.6599 0 2.40275 1 0 4.54003e-06 0.571249
8993 1 41.3941 14.9987 -7.72883 0 2.76906 2 0 4.53999e-06 0.92284
9326 1 40.3672 14.6376 -12.1442 0 2.39579 1 0 4.54003e-06 0.424578
3278 1 42.5386 14.2829 -12.6597 0 3.1619 2 0 4.53999e-06 0.946117
3335 1 39.9244 11.9023 -10.5575 0 2.12234 2 0 4.5406e-06 -0.358621
4017 1 40.8424 12.2572 -10.8345 0 2.24623 2 0 4.54017e-06 0.332034
1012 1 40.0942 12.7193 -10.4619 0 2.21379 1 0 4.54024e-06 -0.6383
1930 1 39.9919 13.2203 -11.3184 0 2.28301 1 0 4.54011e-06 -0.585118
2555 1 39.6095 13.7744 -11.9995 0 2.30775 1 0 4.54009e-06 -0.597887
3789 1 41.6052 12.9143 -11.1133 0 2.61644 2 0 4.54e-06 0.826179
4332 1 40.7626 12.9703 -11.5597 0 2.3449 1 0 4.54006e-06 0.0537523
4414 1 40.8119 13.0754 -10.5109 0 2.31418 1 0 4.54008e-06 0.725
3969 1 41.0647 13.5791 -11.9514 0 2.4272 1 0 4.54002e-06 0.699493
4589 1 40.6436 13.7477 -10.7707 0 2.34809 1 0 4.54006e-06 0.981296
3691 1 41.5888 13.8403 -10.9272 0 2.63292 2 0 4.54e-06 0.972956
3371 1 41.9796 13.5515 -11.9607 0 2.78251 2 0 4.53999e-06 0.962106
6244 1 38.2823 14.5985 -11.3387 0 2.26327 2 0 4.54014e-06 -0.763743
6037 1 38.8673 14.3202 -10.761 0 2.27367 1 0 4.54013e-06 -0.718884
1868 1 39.5375 13.947 -10.989 0 2.28999 1 0 4.54011e-06 -0.743405
3871 1 40.1458 14.3324 -10.7074 0 2.346 1 0 4.54006e-06 0.719928
9424 1 39.9903 14.9943 -10.5361 0 2.37479 1 0 4.54004e-06 0.473828
8743 1 39.6251 14.6734 -11.6807 0 2.33473 1 0 4.54007e-06 -0.795512
8545 1 39.0261 14.8778 -10.1455 0 2.28674 1 0 4.54011e-06 -0.918984
3921 1 41.3677 14.2327 -12.2767 0 2.49418 1 0 4.54001e-06 0.94061
4233 1 40.2847 14.0279 -11.5762 0 2.34991 1 0 4.54006e-06 -0.125555
4131 1 40.9205 14.3947 -11.278 0 2.42058 1 0 4.54002e-06 0.879773
3218 1 40.472 15.1136 -11.3911 0 2.42098 1 0 4.54002e-06 0.522238
8740 1 41.0897 15.0109 -12.0925 0 2.64974 2 0 4.54e-06 0.664983
3209 1 41.7178 15.2166 -10.3766 0 2.98065 2 0 4.53999e-06 0.869908
4068 1 39.1624 10.6304 -8.93522 0 2.01428 2 0 4.54178e-06 -0.292108
1449 1 38.6875 12.1626 -8.43743 0 2.0151 2 0 4.54177e-06 -0.835829
1309 1 39.4316 11.349 -9.88338 0 2.04863 2 0 4.54126e-06 -0.478255
4016 1 39.9811 11.0855 -9.15297 0 2.10714 2 0 4.5407e-06 0.333781
4632 1 39.2403 11.4414 -8.66433 0 2.06386 1 0 4.54108e-06 -0.717933
4677 1 40.3043 11.884 -9.67996 0 2.16166 2 0 4.5404e-06 0.373734
1698 1 39.3257 12.0917 -9.25709 0 2.089 2 0 4.54084e-06 -0.869691
4334 1 40.1311 11.7686 -8.79334 0 2.17319 1 0 4.54036e-06 0.599149
3698 1 40.9373 11.8157 -8.3717 0 2.50497 2 0 4.54001e-06 0.856786
3277 1 42.3087 12.3289 -9.00042 0 3.15885 2 0 4.53999e-06 0.94148
1927 1 39.9211 12.624 -9.54533 0 2.17312 1 0 4.54036e-06 -0.934854
1568 1 39.7874 13.3921 -10.1966 0 2.23484 1 0 4.54019e-06 -0.892313
2550 1 39.146 13.699 -9.85743 0 2.21405 1 0 4.54024e-06 -0.776178
1203 1 39.6528 13.0212 -8.72453 0 2.14969 1 0 4.54045e-06 -0.915425
3624 1 40.0814 13.856 -8.56131 0 2.22575 1 0 4.54021e-06 -0.493246
3924 1 41.4005 13.1204 -9.93509 0 2.52538 2 0 4.54e-06 0.973802
3515 1 40.3912 12.5303 -8.77671 0 2.23227 1 0 4.5402e-06 0.958962
3971 1 40.9924 12.392 -9.68449 0 2.28408 1 0 4.54011e-06 0.759957
3282 1 41.3334 12.6167 -8.70601 0 2.58572 2 0 4.54e-06 0.971528
3516 1 40.5012 13.0875 -9.44194 0 2.26263 1 0 4.54014e-06 0.525638
4592 1 40.6606 13.776 -9.80639 0 2.33711 1 0 4.54006e-06 0.708675
3690 1 41.8342 13.8379 -9.79472 0 2.72641 2 0 4.53999e-06 0.996514
3693 1 41.118 13.5138 -8.94328 0 2.38138 1 0 4.54004e-06 0.906767
6587 1 37.9554 14.758 -9.51355 0 2.22307 2 0 4.54021e-06 -0.575246
1146 1 38.4867 14.1424 -9.66695 0 2.20899 2 0 4.54025e-06 -0.696476
8445 1 39.7536 14.2675 -9.80608 0 2.28859 1 0 4.54011e-06 -0.346152
905 1 39.1321 13.9943 -8.74678 0 2.16464 1 0 4.54039e-06 -0.793155
9325 1 38.9665 14.8231 -9.0665 0 2.22851 1 0 4.5402e-06 -0.556454
9179 1 39.6999 15.0175 -9.82123 0 2.33519 1 0 4.54007e-06 0.0914982
4517 1 40.6207 14.5714 -9.73323 0 2.41688 1 0 4.54002e-06 0.878767
3639 1 41.5422 14.5074 -9.27165 0 2.77144 2 0 4.53999e-06 0.99075
8996 1 41.0517 15.2696 -9.5155 0 2.75587 2 0 4.53999e-06 0.747436
8441 1 40.4072 14.7158 -8.81064 0 2.38662 1 0 4.54004e-06 0.713187
1790 1 37.8214 10.6208 -7.59599 0 1.90525 2 0 4.54531e-06 -0.673014
3460 1 39.4399 10.6621 -7.95664 0 2.07802 2 0 4.54094e-06 0.139557
2281 1 38.4473 11.0616 -8.32959 0 1.97428 2 0 4.54266e-06 -0.74018
2450 1 38.1858 11.5722 -7.52799 0 1.95307 2 0 4.54329e-06 -0.840342
6188 1 38.2972 15.0604 -13.0899 0 2.26689 2 0 4.54014e-06 -0.716412
2993 1 42.6543 15.3451 -7.77589 0 3.43334 2 0 4.53999e-06 0.988553
4594 1 39.7747 12.2545 -8.22407 0 2.14352 1 0 4.54048e-06 -0.598584
4323 1 38.7352 10.8691 -7.37973 0 2.00011 2 0 4.54205e-06 -0.133457
4322 1 39.0399 11.6557 -7.73735 0 2.04157 1 0 4.54135e-06 -0.842563
958 1 38.6801 12.2304 -6.98705 0 1.98421 1 0 4.54241e-06 -0.735632
3968 1 39.7783 11.5933 -7.89662 0 2.14728 1 0 4.54047e-06 0.625621
3927 1 39.3441 11.4751 -7.00664 0 2.07764 1 0 4.54094e-06 0.638958
3369 1 40.0895 10.9377 -7.1691 0 2.41514 2 0 4.54003e-06 0.550359
3456 1 40.3631 11.0004 -8.22842 0 2.4039 2 0 4.54003e-06 0.610279
3086 1 40.8574 11.5345 -7.41906 0 2.60508 2 0 4.54e-06 0.766796
7375 1 37.5712 15.1304 -11.1602 0 2.24419 2 0 4.54017e-06 -0.927629
1204 1 39.4818 12.6104 -7.07054 0 2.07638 1 0 4.54095e-06 -0.555043
1570 1 39.3554 13.1815 -7.82162 0 2.08635 1 0 4.54086e-06 -0.968394
3625 1 40.1902 13.4379 -7.30723 0 2.19374 1 0 4.54029e-06 0.860143