ITEM: TIMESTEP
34000
ITEM: NUMBER OF ATOMS
9495
ITEM: BOX BOUNDS mm mm mm
0.0000000000000000e+00 5.4699954334928186e+01
-2.9440283339256208e+00 3.3685589998681465e+01
-4.2135424276116005e+01 3.1748021039364001e+01
ITEM: ATOMS id type x y z c_phase c_temp c_surf c_nbond c_visc f_3[1]
2149 1 48.8678 13.3468 -41.4294 0 3.1511 2 0 4.53999e-06 -0.483841
1924 1 49.5243 12.6532 -40.854 0 3.22022 2 0 4.53999e-06 -0.28287
1560 1 49.9245 13.4903 -41.6057 0 3.2579 2 0 4.53999e-06 0.26345
1561 1 50.53 12.9691 -40.909 0 3.35672 2 0 4.53999e-06 0.404887
2454 1 48.2175 14.2294 -41.1233 0 3.09584 2 0 4.53999e-06 -0.975267
2453 1 48.3248 14.1061 -42.1322 0 3.07913 2 0 4.53999e-06 -0.515215
1865 1 48.8356 14.8778 -40.8161 0 3.12687 2 0 4.53999e-06 -0.866708
2100 1 48.3468 15.246 -41.8168 0 3.06341 2 0 4.53999e-06 -0.501787
1920 1 49.1662 14.3208 -41.6585 0 3.14927 2 0 4.53999e-06 0.0886558
2101 1 49.0566 13.8904 -40.6115 0 3.17352 2 0 4.53999e-06 -0.839908
1464 1 49.4839 15.2598 -41.4414 0 3.16083 2 0 4.53999e-06 0.160039
1143 1 49.9152 14.3767 -41.0682 0 3.26261 2 0 4.53999e-06 0.317227
1142 1 49.7495 15.1777 -40.524 0 3.20838 2 0 4.53999e-06 0.0609568
4521 1 50.7862 15.0974 -41.203 0 3.39909 2 0 4.53999e-06 0.442093
1196 1 50.7664 13.9912 -40.9355 0 3.62562 2 0 4.53999e-06 0.522553
4544 1 51.5803 14.3882 -40.5871 0 3.8355 2 0 4.53999e-06 0.730181
2150 1 49.5867 12.2819 -39.5166 0 3.15836 2 0 4.53999e-06 -0.514524
2503 1 49.2328 13.1737 -39.9591 0 3.19035 2 0 4.53999e-06 -0.85146
2105 1 49.8349 13.2372 -39.1337 0 3.19532 2 0 4.53999e-06 -0.775524
1921 1 50.4297 12.8729 -39.8611 0 3.28517 2 0 4.53999e-06 0.201543
1562 1 50.5125 12.3802 -39.0251 0 3.19147 2 0 4.53999e-06 0.00420513
1201 1 51.3674 13.353 -39.2208 0 3.38246 1 0 4.53999e-06 0.537003
3628 1 51.1896 13.4055 -40.2162 0 3.66069 2 0 4.53999e-06 0.606842
900 1 50.1116 13.6747 -40.2408 0 3.30124 1 0 4.53999e-06 -0.240027
4113 1 52.289 13.4448 -38.8714 0 3.66573 2 0 4.53999e-06 0.8508
1870 1 48.7466 14.7201 -39.8303 0 3.11025 2 0 4.53999e-06 -0.95464
2460 1 49.4498 14.0862 -38.9013 0 3.14887 2 0 4.53999e-06 -0.823434
1469 1 49.5607 14.2564 -39.8145 0 3.20325 1 0 4.53999e-06 -0.936892
906 1 49.8418 15.144 -39.4903 0 3.19433 1 0 4.53999e-06 -0.219169
8451 1 50.3594 14.565 -40.1204 0 3.32194 1 0 4.53999e-06 0.276589
1149 1 50.6272 13.75 -38.9637 0 3.266 1 0 4.53999e-06 -0.456158
3632 1 50.2714 14.5063 -39.0273 0 3.23362 1 0 4.53999e-06 -0.522126
4545 1 50.9305 14.0695 -39.6878 0 3.40216 1 0 4.53999e-06 0.769447
9330 1 50.9113 14.9104 -39.453 0 3.36146 1 0 4.53999e-06 0.478469
4130 1 51.7416 14.4768 -39.1591 0 3.62835 2 0 4.53999e-06 0.869635
4109 1 51.6989 15.1447 -39.9806 0 3.78388 2 0 4.53999e-06 0.769846
4522 1 52.1039 13.8442 -39.8457 0 3.86191 2 0 4.53999e-06 0.878108
952 1 51.4808 11.8663 -37.5455 0 3.04765 2 0 4.53999e-06 0.0695442
2551 1 50.1429 13.0962 -38.1338 0 3.13485 2 0 4.53999e-06 -0.814331
2151 1 50.5448 12.1563 -37.9046 0 3.07042 2 0 4.53999e-06 -0.651559
2153 1 51.0894 12.8461 -38.4787 0 3.21975 1 0 4.53999e-06 0.0178669
1928 1 51.2183 13.1664 -37.6433 0 3.14957 1 0 4.53999e-06 -0.715712
3522 1 52.0253 12.6388 -37.3615 0 3.13309 1 0 4.53999e-06 0.37765
3630 1 51.9976 12.5784 -38.3363 0 3.48168 2 0 4.53999e-06 0.523009
903 1 52.0039 13.4802 -37.9103 0 3.25896 1 0 4.53999e-06 0.761618
6588 1 48.6211 14.73 -38.6884 0 3.0386 2 0 4.53999e-06 -0.865313
6967 1 49.1871 14.8253 -37.5631 0 2.963 2 0 4.53999e-06 -0.616713
6032 1 49.7191 14.9266 -38.4916 0 3.12794 2 0 4.53999e-06 -0.451738
2457 1 50.3086 14.0567 -38.1806 0 3.16351 1 0 4.53999e-06 -0.80275
2104 1 50.5043 13.7175 -37.2512 0 3.07656 2 0 4.53999e-06 -0.894909
7563 1 50.6572 14.7991 -37.7511 0 3.14215 2 0 4.53999e-06 -0.269052
3629 1 51.2161 14.0746 -37.6782 0 3.17443 1 0 4.53999e-06 -0.553011
9333 1 51.364 13.9458 -38.4986 0 3.30286 1 0 4.53999e-06 0.808872
8452 1 50.6689 15.3122 -38.622 0 3.24085 2 0 4.53999e-06 0.0159552
9329 1 52.0157 14.3404 -37.424 0 3.22058 1 0 4.53999e-06 0.334109
9222 1 51.5737 14.9286 -38.2436 0 3.30087 2 0 4.53999e-06 0.395503
4114 1 52.3851 14.2666 -38.2976 0 3.57475 2 0 4.53999e-06 0.817731
8992 1 52.9804 13.9136 -37.438 0 3.47479 2 0 4.53999e-06 0.906099
2547 1 50.515 11.6026 -36.9188 0 2.8925 2 0 4.53999e-06 -0.877499
1195 1 51.229 10.9396 -35.4861 0 2.7376 2 0 4.53999e-06 -0.650082
1008 1 51.4671 11.1597 -36.5611 0 2.85182 2 0 4.53999e-06 -0.0991117
4325 1 52.3568 11.1044 -35.5178 0 2.82495 2 0 4.53999e-06 0.206663
3519 1 52.1502 11.8645 -36.3647 0 2.97191 2 0 4.53999e-06 0.142937
1922 1 51.3221 12.4786 -36.7705 0 3.01637 1 0 4.53999e-06 -0.815373
1866 1 51.3057 13.3797 -36.7236 0 3.04868 1 0 4.53999e-06 -0.920634
1199 1 51.271 12.0884 -35.735 0 2.85982 2 0 4.53999e-06 -0.933494
7205 1 51.1423 13.4288 -35.7957 0 2.90918 1 0 4.53999e-06 -0.965732
4125 1 52.6793 13.1666 -37.0168 0 3.15853 1 0 4.53999e-06 0.826941
1148 1 52.1338 12.8582 -36.3918 0 3.03754 1 0 4.53999e-06 -0.17621
1869 1 52.1835 12.8595 -35.5533 0 2.94069 1 0 4.53999e-06 -0.754172
4587 1 52.9428 12.266 -36.927 0 3.35499 2 0 4.53999e-06 0.627736
4520 1 52.9507 12.3419 -35.9678 0 3.04217 1 0 4.53999e-06 0.555332
3631 1 51.9637 13.5984 -37.0269 0 3.13091 1 0 4.53999e-06 0.592332
1466 1 51.9426 13.673 -36.0411 0 3.00146 1 0 4.53999e-06 -0.710091
9220 1 52.8177 13.5058 -35.5084 0 3.01472 1 0 4.53999e-06 0.718743
3870 1 54.038 12.4083 -35.8792 0 3.4759 2 0 4.53999e-06 0.742897
4548 1 53.1809 13.1654 -36.2256 0 3.11811 1 0 4.53999e-06 0.886734
8739 1 54.1256 13.4471 -35.4735 0 3.46678 2 0 4.53999e-06 0.832616
6973 1 50.4203 14.5658 -36.6453 0 2.97047 2 0 4.53999e-06 -0.745582
7556 1 51.3495 14.276 -36.7677 0 3.06557 1 0 4.53999e-06 -0.526745
6298 1 51.354 14.4907 -35.8297 0 2.9273 2 0 4.53999e-06 -0.43126
8449 1 52.091 14.7844 -36.4166 0 3.08598 2 0 4.53999e-06 0.0675839
9334 1 52.5806 13.9329 -36.4866 0 3.12215 1 0 4.53999e-06 0.763446
7557 1 52.4014 14.3662 -35.5417 0 2.981 2 0 4.53999e-06 0.174494
9428 1 52.7891 14.7973 -37.0856 0 3.51771 2 0 4.53999e-06 0.571484
9218 1 53.3471 14.1082 -35.9307 0 3.33285 2 0 4.53999e-06 0.750732
1976 1 51.7275 11.4317 -34.6276 0 2.75182 2 0 4.53999e-06 -0.763098
955 1 52.6629 11.5308 -34.27 0 2.82909 1 0 4.53999e-06 -0.0306782
4417 1 53.338 11.5668 -35.044 0 2.97028 2 0 4.53999e-06 0.415695
4588 1 53.356 10.9599 -33.754 0 2.85447 2 0 4.53999e-06 0.381823
4227 1 54.303 11.5941 -34.313 0 3.38676 2 0 4.53999e-06 0.712444
7202 1 50.6704 13.3958 -34.48 0 2.65289 2 0 4.54e-06 -0.939662
954 1 52.5258 12.0675 -35.2488 0 2.91023 1 0 4.53999e-06 -0.0669338
2553 1 52.0484 12.3918 -34.6982 0 2.83446 1 0 4.53999e-06 -0.854354
7203 1 51.4649 13.0647 -34.9169 0 2.81245 1 0 4.53999e-06 -0.940445
4518 1 52.8995 12.4449 -34.338 0 2.90359 1 0 4.53999e-06 0.2258
7204 1 52.4289 13.0983 -34.5604 0 2.86852 1 0 4.53999e-06 -0.769961
2656 1 51.9565 12.3559 -33.8292 0 2.74859 1 0 4.53999e-06 -0.911416
6304 1 52.9043 13.2342 -33.8158 0 2.86875 1 0 4.53999e-06 0.00779504
6608 1 52.091 13.6263 -35.1211 0 2.89557 1 0 4.53999e-06 -0.473931
8448 1 53.0691 12.7579 -35.1769 0 2.99932 1 0 4.53999e-06 0.814804
4519 1 53.8592 12.3434 -34.8481 0 3.11482 1 0 4.53999e-06 0.791973
902 1 53.6303 12.7416 -33.9961 0 3.01764 1 0 4.53999e-06 0.992162
4546 1 54.608 12.5668 -33.7477 0 3.41634 2 0 4.53999e-06 0.983233
3213 1 54.6968 12.759 -34.7909 0 3.55668 2 0 4.53999e-06 0.962868
7555 1 53.2442 13.3386 -34.6247 0 2.98389 1 0 4.53999e-06 0.681906
9221 1 54.1401 13.5132 -34.3155 0 3.3378 2 0 4.53999e-06 0.78006
6604 1 50.5914 14.105 -35.3021 0 2.76897 2 0 4.53999e-06 -0.940385
7474 1 50.2784 14.2337 -33.9389 0 2.50372 2 0 4.54001e-06 -0.733314
6908 1 51.4895 13.7716 -33.9527 0 2.68256 2 0 4.54e-06 -0.502997
6027 1 51.4986 14.2696 -34.8393 0 2.79711 2 0 4.53999e-06 -0.2781
6030 1 52.4489 13.974 -34.2157 0 2.82734 1 0 4.53999e-06 -0.0935695
9171 1 53.3132 14.239 -34.8569 0 3.01586 2 0 4.53999e-06 0.408055
1253 1 51.9623 10.4725 -33.6668 0 2.6319 2 0 4.54e-06 -0.365797
2598 1 51.7939 11.5162 -33.5034 0 2.68927 2 0 4.54e-06 -0.883656
1010 1 52.6829 11.3887 -33.2451 0 2.76543 2 0 4.53999e-06 -0.0890612
3425 1 52.0236 11.1367 -32.4695 0 2.6526 2 0 4.54e-06 -0.693334
4630 1 53.0103 10.8431 -32.5329 0 2.75179 2 0 4.53999e-06 0.25796
3520 1 53.589 11.8352 -33.666 0 2.96343 1 0 4.53999e-06 0.619196
4420 1 53.6861 11.5123 -32.4469 0 3.09923 2 0 4.53999e-06 0.697935
7152 1 51.1887 12.943 -33.4325 0 2.61184 2 0 4.54e-06 -0.905328
7373 1 50.1948 13.5677 -32.9474 0 2.42755 2 0 4.54002e-06 -0.990762
2552 1 52.8756 12.5397 -33.399 0 2.8389 1 0 4.53999e-06 -0.172156
6970 1 52.1245 13.1576 -33.429 0 2.72712 1 0 4.53999e-06 -0.875156
7376 1 51.7129 13.0182 -32.3761 0 2.60211 1 0 4.54e-06 -0.953668
2599 1 52.0674 12.2504 -32.8175 0 2.6894 1 0 4.54e-06 -0.889428
1926 1 52.9681 12.0976 -32.5114 0 2.80808 1 0 4.53999e-06 0.118264
6301 1 52.819 13.4229 -32.8188 0 2.77733 1 0 4.53999e-06 -0.234794
6972 1 53.2999 12.9584 -32.1933 0 2.84104 1 0 4.53999e-06 0.998856
901 1 54.0466 12.2517 -32.9522 0 3.19513 2 0 4.53999e-06 0.842566
4516 1 53.6103 13.0307 -33.1341 0 2.9615 1 0 4.53999e-06 0.976642
3873 1 54.6673 13.0225 -32.6912 0 3.36548 2 0 4.53999e-06 0.994257
8546 1 53.6809 13.6574 -32.4843 0 2.92627 1 0 4.53999e-06 0.52416
6297 1 51.1455 13.8296 -32.8539 0 2.52982 2 0 4.54e-06 -0.586757
6245 1 52.0859 13.8367 -32.7362 0 2.64766 2 0 4.54e-06 -0.277134
8547 1 53.3828 13.9819 -33.5946 0 2.92392 2 0 4.53999e-06 0.158515
8944 1 54.3601 13.7992 -33.3218 0 3.32356 2 0 4.53999e-06 0.769519
9168 1 54.4445 14.0134 -32.2177 0 3.29865 2 0 4.53999e-06 0.749622
9122 1 53.5622 14.5878 -32.72 0 2.87729 2 0 4.53999e-06 0.0608917
1255 1 52.12 11.9302 -31.8086 0 2.65009 1 0 4.54e-06 -0.722115
1685 1 51.6903 11.2312 -31.2251 0 2.54916 2 0 4.54e-06 -0.618105
4229 1 52.6828 11.0825 -31.5425 0 2.69 2 0 4.54e-06 0.176684
4326 1 52.3139 11.2282 -30.4313 0 2.5832 2 0 4.54e-06 0.282491
4591 1 53.3574 11.7191 -31.452 0 2.98156 2 0 4.53999e-06 0.641325
6450 1 50.5559 13.5563 -31.7926 0 2.42928 2 0 4.54002e-06 -0.967013
6905 1 51.2282 12.6319 -31.5025 0 2.50947 2 0 4.54001e-06 -0.888879
6590 1 52.5255 12.7688 -31.9716 0 2.6967 1 0 4.53999e-06 -0.666838
6907 1 51.573 13.2482 -30.9294 0 2.53579 1 0 4.54e-06 -0.855159
8447 1 52.8498 13.3107 -31.152 0 2.69544 1 0 4.53999e-06 0.557824
1569 1 51.5426 12.1199 -30.666 0 2.53458 1 0 4.54e-06 -0.702791
3521 1 52.3931 12.1037 -30.841 0 2.64027 1 0 4.54e-06 0.202406
7374 1 52.2344 12.8512 -31.0365 0 2.61567 1 0 4.54e-06 -0.616202
1923 1 53.0034 12.4294 -31.3356 0 2.74964 1 0 4.53999e-06 0.692726
6605 1 52.2571 13.5255 -31.7434 0 2.62606 1 0 4.54e-06 -0.355252
4547 1 53.9159 12.3822 -31.9922 0 3.10827 2 0 4.53999e-06 0.83108
8989 1 54.4848 13.1791 -31.6554 0 3.2605 2 0 4.53999e-06 0.905291
9331 1 53.6182 12.9981 -31.3077 0 2.84186 1 0 4.53999e-06 0.895818
6240 1 51.4592 13.8478 -31.797 0 2.52417 2 0 4.54e-06 -0.58174
7662 1 52.8715 14.1102 -32.035 0 2.71859 2 0 4.53999e-06 -0.0692776
9429 1 51.9877 14.0871 -30.9552 0 2.54705 2 0 4.54e-06 -0.198513
9123 1 52.925 13.9839 -30.5983 0 2.66328 2 0 4.54e-06 0.339272
9169 1 53.6235 13.8934 -31.486 0 2.83465 2 0 4.53999e-06 0.466125
2452 1 50.7365 11.5626 -29.934 0 2.4138 2 0 4.54003e-06 -0.694543
1011 1 50.7806 11.597 -28.7981 0 2.40218 2 0 4.54003e-06 -0.285295
1688 1 49.879 11.9485 -28.8055 0 2.32657 2 0 4.54007e-06 -0.724496
1259 1 51.5052 10.9831 -29.8939 0 2.45144 2 0 4.54002e-06 -0.141922
4331 1 52.8284 11.8179 -29.8761 0 2.85235 2 0 4.53999e-06 0.719348
4330 1 51.7463 11.6311 -29.2466 0 2.52233 1 0 4.54e-06 0.234946
6513 1 50.5943 12.8205 -30.0381 0 2.43577 2 0 4.54002e-06 -0.902043
7559 1 51.0907 13.6804 -30.1563 0 2.47763 2 0 4.54001e-06 -0.657419
2201 1 50.9321 12.2435 -29.4597 0 2.45443 1 0 4.54001e-06 -0.809463
6031 1 50.9522 13.1653 -29.2639 0 2.46278 1 0 4.54001e-06 -0.72794
2548 1 51.5159 12.9022 -30.1447 0 2.52422 1 0 4.54e-06 -0.833569
1566 1 51.7204 12.261 -29.8558 0 2.54314 1 0 4.54e-06 -0.185944
1563 1 52.4277 12.6466 -30.2683 0 2.62645 1 0 4.54e-06 0.918846
7554 1 52.1817 13.468 -30.3378 0 2.58607 1 0 4.54e-06 0.151511
1567 1 51.5363 12.6126 -29.0355 0 2.51924 1 0 4.54e-06 0.196716
1198 1 52.2846 12.4217 -29.4253 0 2.60408 1 0 4.54e-06 0.837099
6303 1 51.9178 13.0763 -29.4854 0 2.56517 1 0 4.54e-06 0.45983
9224 1 52.7627 13.1936 -29.7817 0 2.65575 1 0 4.54e-06 0.821369
4549 1 52.547 12.858 -28.7254 0 2.82188 2 0 4.53999e-06 0.875719
8600 1 52.3206 13.6959 -28.817 0 2.83862 2 0 4.53999e-06 0.536885
4515 1 53.4175 12.4882 -30.3648 0 2.94463 2 0 4.53999e-06 0.846777
3872 1 53.7303 13.4468 -30.3811 0 3.04284 2 0 4.53999e-06 0.77094
8945 1 51.7315 13.7891 -29.5559 0 2.54251 2 0 4.54e-06 -0.0434141
1681 1 48.4903 11.7414 -27.6158 0 2.20345 2 0 4.54026e-06 -0.628538
3422 1 49.2581 12.0048 -27.1128 0 2.26053 2 0 4.54015e-06 -0.253309
1313 1 49.8937 11.4809 -27.767 0 2.2839 2 0 4.54011e-06 -0.166194
4328 1 51.0261 11.7861 -27.7025 0 2.38851 2 0 4.54004e-06 0.372286
4228 1 52.2588 11.988 -28.5414 0 2.78995 2 0 4.53999e-06 0.634238
2202 1 49.4932 12.345 -27.9526 0 2.29153 2 0 4.5401e-06 -0.701446
7151 1 48.6426 13.3509 -27.4652 0 2.2718 2 0 4.54013e-06 -0.431609
7472 1 49.5164 13.0304 -27.5803 0 2.2988 1 0 4.5401e-06 -0.656015
2154 1 50.653 12.5382 -28.6568 0 2.41241 1 0 4.54003e-06 -0.923378
7377 1 49.9131 13.0226 -28.5097 0 2.34321 2 0 4.54006e-06 -0.673742
4419 1 51.3344 12.1256 -28.4763 0 2.47613 1 0 4.54001e-06 0.242849
1467 1 50.9135 12.9087 -28.0457 0 2.43083 1 0 4.54002e-06 0.307927
6243 1 50.6414 13.6497 -28.4926 0 2.40363 2 0 4.54003e-06 -0.260242
1257 1 50.2788 12.2517 -27.7122 0 2.34378 1 0 4.54006e-06 0.0101027
4232 1 50.8681 12.6776 -27.2513 0 2.5568 2 0 4.54e-06 0.534026
7558 1 50.274 13.4154 -27.6945 0 2.3488 2 0 4.54006e-06 0.110019
3641 1 51.1802 13.5918 -27.4665 0 2.45058 2 0 4.54002e-06 0.423551
4551 1 51.7502 12.7578 -28.1774 0 2.5523 1 0 4.54e-06 0.629384
9223 1 51.4962 13.3976 -28.6237 0 2.52449 1 0 4.54e-06 0.128369
3876 1 52.1894 13.2852 -27.5032 0 2.99138 2 0 4.53999e-06 0.65484
6237 1 47.8357 13.9481 -27.5439 0 2.23588 2 0 4.54019e-06 -0.417519
6242 1 49.4223 13.8744 -27.8241 0 2.28394 2 0 4.54011e-06 -0.211427
1684 1 47.617 12.4882 -26.5713 0 2.25 2 0 4.54016e-06 -0.528553
7475 1 47.8641 13.3453 -26.8402 0 2.28431 2 0 4.54011e-06 -0.618191
1056 1 47.0964 12.5794 -25.6471 0 2.26177 2 0 4.54014e-06 -0.135361
1929 1 46.5479 13.2983 -25.6264 0 2.26598 2 0 4.54014e-06 -0.341809
2655 1 47.6132 13.1975 -25.9957 0 2.3075 2 0 4.54009e-06 0.0649476
2208 1 48.5089 12.7083 -26.9415 0 2.27351 2 0 4.54013e-06 -0.480921
4416 1 49.3269 12.7935 -26.7953 0 2.29223 2 0 4.5401e-06 0.22944
956 1 48.5956 13.156 -26.1608 0 2.478 2 0 4.54001e-06 0.506002
7657 1 49.1796 13.604 -26.8606 0 2.3073 2 0 4.54009e-06 0.39942
4631 1 48.4241 12.2737 -26.0566 0 2.26421 2 0 4.54014e-06 0.149076
3966 1 50.1458 12.1126 -26.7516 0 2.29937 2 0 4.5401e-06 0.273743
904 1 50.1332 13.1195 -26.8822 0 2.32322 2 0 4.54007e-06 0.430157
6968 1 45.984 13.9183 -25.6247 0 2.2372 2 0 4.54019e-06 -0.495169
7150 1 47.3439 14.1933 -26.6803 0 2.27017 2 0 4.54013e-06 -0.434901
7553 1 47.0294 13.7734 -25.9584 0 2.29194 2 0 4.5401e-06 -0.335599
8544 1 46.542 14.3553 -25.4602 0 2.26942 2 0 4.54013e-06 -0.16709
8898 1 47.3506 14.4621 -25.7189 0 2.30472 2 0 4.54009e-06 0.352907
9172 1 47.9238 13.8285 -26.0825 0 2.46228 2 0 4.54001e-06 0.619845
9126 1 48.4033 14.1186 -26.8217 0 2.30348 2 0 4.54009e-06 0.130113
8943 1 48.8568 13.9829 -26.0343 0 2.57917 2 0 4.54e-06 0.563909
9120 1 49.9991 14.1249 -27.0079 0 2.29907 2 0 4.5401e-06 0.331925
2205 1 45.5588 13.5124 -25.166 0 2.21654 2 0 4.54023e-06 -0.561765
2597 1 44.7952 13.3273 -24.7114 0 2.19499 2 0 4.54029e-06 -0.720915
1683 1 45.5029 12.6637 -24.6603 0 2.18962 2 0 4.5403e-06 -0.205431
953 1 45.6062 13.6631 -24.4822 0 2.22187 1 0 4.54022e-06 -0.532421
4633 1 46.2436 13.1281 -24.9015 0 2.24538 2 0 4.54017e-06 0.0777715
1258 1 45.1132 13.2458 -23.9081 0 2.20491 2 0 4.54026e-06 -0.250006
3922 1 46.0259 13.2582 -24.0536 0 2.2258 2 0 4.54021e-06 0.313613
4590 1 47.3219 13.2884 -25.1754 0 2.45443 2 0 4.54001e-06 0.573325
4121 1 46.571 13.6881 -24.4084 0 2.39723 2 0 4.54003e-06 0.598362
6455 1 43.2448 14.9115 -24.3891 0 2.2195 2 0 4.54022e-06 -0.394002
6591 1 44.1315 13.8096 -24.097 0 2.24133 2 0 4.54018e-06 -0.743689
6512 1 44.3206 14.6592 -24.2376 0 2.23614 2 0 4.54019e-06 -0.319399
6509 1 45.3317 14.4631 -25.1844 0 2.20726 2 0 4.54025e-06 -0.478134
1197 1 44.9607 14.0769 -24.4876 0 2.21211 2 0 4.54024e-06 -0.806439
6305 1 46.0175 14.2965 -24.7577 0 2.24226 1 0 4.54018e-06 -0.0889913
7658 1 45.3715 14.7059 -24.1939 0 2.21662 2 0 4.54023e-06 -0.0285741
3643 1 45.6645 14.0181 -23.7888 0 2.22121 2 0 4.54022e-06 0.222831
3281 1 46.3914 14.4302 -24.0111 0 2.24838 2 0 4.54016e-06 0.413283
9227 1 46.708 13.7424 -25.1191 0 2.2866 1 0 4.54011e-06 0.842637
8686 1 46.8361 15.1553 -25.1664 0 2.25714 2 0 4.54015e-06 0.13752
8595 1 46.9168 14.3298 -24.7777 0 2.42042 2 0 4.54002e-06 0.586351
3640 1 47.7089 13.9926 -25.1495 0 2.50475 2 0 4.54001e-06 0.788504
2449 1 42.4818 13.4634 -22.7246 0 2.37574 2 0 4.54004e-06 0.118745
2199 1 41.5759 13.4436 -22.5632 0 2.32274 2 0 4.54007e-06 -0.45848
6974 1 41.2077 14.5356 -22.4025 0 2.33205 2 0 4.54007e-06 -0.679728
6694 1 42.6872 14.9692 -23.3788 0 2.34251 2 0 4.54006e-06 -0.362948
2652 1 42.4868 14.1934 -23.0125 0 2.38739 2 0 4.54004e-06 -0.242523
2152 1 41.904 14.1545 -22.4546 0 2.37288 2 0 4.54004e-06 -0.464823
7656 1 42.1327 14.8364 -22.5368 0 2.39035 2 0 4.54003e-06 -0.165641
4124 1 42.5332 14.0707 -22.0344 0 2.53565 2 0 4.54e-06 0.806065
8946 1 42.9987 14.5481 -22.6079 0 2.55905 2 0 4.54e-06 0.671208
3523 1 43.9539 13.7335 -23.1886 0 2.33896 2 0 4.54006e-06 0.166983
8543 1 43.358 14.2965 -23.4691 0 2.34744 2 0 4.54006e-06 -0.277287
8838 1 43.5595 15.0872 -23.0644 0 2.36793 2 0 4.54005e-06 0.284962
9170 1 44.2614 14.5955 -23.3698 0 2.32339 2 0 4.54007e-06 0.495144
4593 1 43.2434 13.808 -22.5485 0 2.58765 2 0 4.54e-06 0.596951
3874 1 43.9614 14.4049 -22.4791 0 2.63987 2 0 4.54e-06 0.67145
1565 1 44.831 14.0034 -23.611 0 2.24221 2 0 4.54018e-06 0.0520824
1260 1 40.6852 13.6594 -21.345 0 2.30563 2 0 4.54009e-06 -0.740504
1256 1 41.4795 13.1948 -21.3532 0 2.30592 2 0 4.54009e-06 -0.107445
4225 1 42.2305 13.391 -21.8958 0 2.36074 2 0 4.54005e-06 0.362443
6302 1 41.1606 14.3238 -21.6215 0 2.34171 2 0 4.54006e-06 -0.987191
7149 1 40.5595 15.1189 -21.7007 0 2.29963 2 0 4.5401e-06 -0.652061
6606 1 40.287 14.4213 -21.0035 0 2.32472 2 0 4.54007e-06 -0.96751
8497 1 41.2595 14.7617 -21.0542 0 2.37547 2 0 4.54004e-06 -0.0571574
6452 1 40.0569 15.1525 -20.4522 0 2.34781 2 0 4.54006e-06 -0.392145
4418 1 41.2197 14.019 -20.7399 0 2.35579 2 0 4.54005e-06 0.10242
1261 1 41.539 13.8272 -21.8719 0 2.34533 2 0 4.54006e-06 -0.562206
6906 1 41.5869 15.1082 -21.8626 0 2.37428 2 0 4.54004e-06 -0.143135
9226 1 41.9676 14.5312 -21.572 0 2.40182 2 0 4.54003e-06 0.449944
8897 1 42.608 14.8125 -21.9079 0 2.59741 2 0 4.54e-06 0.577
4424 1 42.0048 13.9214 -21.1951 0 2.37276 2 0 4.54004e-06 0.490325
8317 1 42.2815 15.1465 -20.6997 0 2.88803 2 0 4.53999e-06 0.493414
2600 1 39.2119 13.4427 -18.7927 0 2.34483 2 0 4.54006e-06 -0.4309
1691 1 40.0754 13.57 -19.0739 0 2.37969 2 0 4.54004e-06 0.473973
6508 1 39.4817 14.3703 -20.1273 0 2.33978 2 0 4.54006e-06 -0.722178
9128 1 39.7746 14.8607 -19.2689 0 2.4202 2 0 4.54002e-06 -0.0781127
8444 1 39.5626 14.1351 -19.2323 0 2.38284 2 0 4.54004e-06 -0.318652
2456 1 38.7772 14.2098 -19.0784 0 2.33906 2 0 4.54006e-06 -0.854569
8450 1 40.3439 13.9569 -20.0798 0 2.36692 2 0 4.54005e-06 0.169079
8270 1 40.8058 14.7581 -19.991 0 2.64598 2 0 4.54e-06 0.721781
8500 1 40.3835 14.3181 -19.052 0 2.59695 2 0 4.54e-06 0.976389
3217 1 40.5274 15.0481 -18.6699 0 2.75032 2 0 4.53999e-06 0.759229
2212 1 39.001 13.3015 -17.1345 0 2.34025 2 0 4.54006e-06 -0.407398
4324 1 39.8831 13.2497 -18.2422 0 2.36287 2 0 4.54005e-06 0.367885
4415 1 39.4248 13.7068 -17.7272 0 2.39084 1 0 4.54003e-06 -0.0463006
9427 1 38.6337 14.1634 -17.4303 0 2.36384 2 0 4.54005e-06 -0.991647
2458 1 38.946 13.9592 -18.1818 0 2.36711 2 0 4.54005e-06 -0.890387
8263 1 39.5851 14.2183 -18.4761 0 2.40461 1 0 4.54003e-06 0.0942347
8990 1 39.3877 14.3629 -17.2476 0 2.42664 1 0 4.54002e-06 -0.0574569
8738 1 39.3081 14.586 -17.823 0 2.41026 1 0 4.54003e-06 -0.479039
6241 1 39.0328 14.7132 -18.478 0 2.3794 2 0 4.54004e-06 -0.703353
8314 1 39.7431 15.0457 -18.3674 0 2.4408 2 0 4.54002e-06 0.161756
6185 1 38.5984 15.0843 -17.4827 0 2.35685 2 0 4.54005e-06 -0.746976
3967 1 40.0438 13.8981 -17.3442 0 2.58612 2 0 4.54e-06 0.826819
3970 1 40.1059 14.0947 -18.1944 0 2.42871 1 0 4.54002e-06 0.96018
8316 1 40.0226 14.6793 -17.6594 0 2.52424 1 0 4.54e-06 0.819436
1973 1 38.9837 12.6849 -16.3443 0 2.22195 2 0 4.54022e-06 -0.199619
4333 1 39.3551 13.455 -15.908 0 2.37177 2 0 4.54004e-06 0.26991
5920 1 38.2566 14.3352 -15.7668 0 2.31321 2 0 4.54008e-06 -0.953093
8442 1 38.8416 14.0036 -16.5727 0 2.37476 2 0 4.54004e-06 -0.912797
4116 1 39.5794 13.9865 -16.6668 0 2.53946 2 0 4.54e-06 0.638701
7653 1 39.0287 14.1812 -15.5295 0 2.39432 2 0 4.54003e-06 -0.872492
7660 1 39.1166 14.7838 -16.5812 0 2.41575 2 0 4.54003e-06 -0.364838
3692 1 39.6934 14.453 -15.9377 0 2.63776 2 0 4.54e-06 0.772027
3207 1 40.3085 14.8128 -16.6828 0 2.8554 2 0 4.53999e-06 0.848094
1789 1 39.6929 12.8216 -13.9755 0 2.34589 2 0 4.54006e-06 0.0464428
2022 1 39.0366 13.134 -14.9329 0 2.32999 2 0 4.54007e-06 -0.31062
1013 1 40.1251 13.5208 -14.4759 0 2.63031 2 0 4.54e-06 0.737797
6458 1 37.6425 14.135 -14.7511 0 2.241 2 0 4.54018e-06 -0.940412
4231 1 39.64 13.903 -15.078 0 2.57438 2 0 4.54e-06 0.738636
6033 1 38.4241 13.7072 -13.9026 0 2.29855 2 0 4.5401e-06 -0.673493
9225 1 39.2515 13.7746 -14.1858 0 2.38187 1 0 4.54004e-06 -0.321156
8684 1 39.7737 14.4376 -14.3722 0 2.52787 2 0 4.54e-06 0.65212
8269 1 39.1391 14.8519 -14.7937 0 2.39325 2 0 4.54003e-06 -0.107103
8213 1 38.7366 14.1043 -14.7022 0 2.34748 2 0 4.54006e-06 -0.897757
9125 1 38.867 14.7413 -13.7393 0 2.34147 1 0 4.54006e-06 -0.355803
5917 1 38.2303 14.6554 -14.2127 0 2.29315 2 0 4.5401e-06 -0.729175
3740 1 40.562 14.0712 -13.8439 0 2.68661 2 0 4.54e-06 0.986223
3212 1 40.2679 14.6605 -15.1308 0 2.81341 2 0 4.53999e-06 0.820151
8102 1 40.0503 14.8937 -13.6726 0 2.64695 2 0 4.54e-06 0.620504
3514 1 39.7671 13.691 -13.5562 0 2.39841 1 0 4.54003e-06 0.452997
4321 1 39.7489 13.1909 -11.9515 0 2.30603 2 0 4.54009e-06 -0.25744
1974 1 39.4331 13.4707 -12.809 0 2.32957 1 0 4.54007e-06 -0.347817
1057 1 39.9397 12.71 -12.8591 0 2.30785 2 0 4.54009e-06 0.0398556
4014 1 40.5779 13.3904 -13.0086 0 2.60241 2 0 4.54e-06 0.905965
7106 1 37.816 14.4784 -12.3709 0 2.25471 2 0 4.54015e-06 -0.998796
6182 1 37.6104 14.71 -13.4734 0 2.2438 2 0 4.54017e-06 -0.93975
6515 1 38.223 14.1137 -13.1404 0 2.28082 2 0 4.54012e-06 -0.859296
8596 1 38.978 14.1501 -12.9038 0 2.32345 1 0 4.54007e-06 -0.810723
8948 1 39.4374 14.347 -13.5266 0 2.38614 1 0 4.54004e-06 0.396431
2102 1 38.5643 13.8387 -12.03 0 2.27652 2 0 4.54012e-06 -0.664447
4230 1 39.4016 13.9847 -12.0625 0 2.3175 1 0 4.54008e-06 -0.375657
8315 1 39.5738 14.6525 -12.5488 0 2.35404 1 0 4.54005e-06 0.522027
8268 1 38.785 14.6962 -12.1396 0 2.30392 1 0 4.54009e-06 -0.584847
8267 1 39.3655 15.3102 -13.1402 0 2.38155 2 0 4.54004e-06 0.151332
7661 1 38.4782 15.0082 -12.9238 0 2.29674 2 0 4.5401e-06 -0.484673
3920 1 40.1288 14.201 -12.9364 0 2.40071 1 0 4.54003e-06 0.941195
3423 1 40.2722 13.8859 -12.0928 0 2.36316 1 0 4.54005e-06 0.943752
1925 1 39.4435 13.5964 -11.2238 0 2.28996 1 0 4.54011e-06 -0.565696
3793 1 40.8704 12.5349 -10.7681 0 2.36973 2 0 4.54004e-06 0.297784
1687 1 39.8666 12.6713 -10.9975 0 2.25966 2 0 4.54015e-06 -0.406045
4673 1 40.6303 13.0751 -11.8951 0 2.4605 2 0 4.54001e-06 0.594649
4634 1 40.4942 13.4658 -11.1756 0 2.37074 1 0 4.54004e-06 0.584678
3517 1 40.0207 13.6017 -10.489 0 2.31162 1 0 4.54008e-06 -0.308131
3737 1 41.4515 13.1982 -11.12 0 2.71706 2 0 4.53999e-06 0.816728
5918 1 38.1115 14.6831 -11.5034 0 2.26586 2 0 4.54014e-06 -0.986437
6687 1 37.543 14.7686 -10.4954 0 2.23648 2 0 4.54019e-06 -0.883565
6689 1 38.2808 13.9619 -11.0346 0 2.25505 2 0 4.54015e-06 -0.691695
909 1 39.336 14.213 -10.6026 0 2.30043 1 0 4.5401e-06 -0.881026
9425 1 39.105 14.4564 -11.3345 0 2.30801 1 0 4.54009e-06 -0.961982
8101 1 39.7117 15.0206 -10.8384 0 2.37129 1 0 4.54004e-06 0.277078
8264 1 39.4919 15.2026 -11.8104 0 2.38272 2 0 4.54004e-06 0.256677
8899 1 38.4974 14.643 -10.3749 0 2.27679 1 0 4.54012e-06 -0.880995
8837 1 38.7874 15.2817 -11.0794 0 2.30832 1 0 4.54009e-06 -0.132931
3738 1 41.2354 14.0552 -11.4028 0 2.68862 2 0 4.54e-06 0.800497
3923 1 40.5393 14.2936 -10.9251 0 2.40352 1 0 4.54003e-06 0.780051
3642 1 39.9883 14.4675 -11.5318 0 2.36047 1 0 4.54005e-06 0.648425
2994 1 40.7919 15.3402 -11.1128 0 2.86207 2 0 4.53999e-06 0.579392
9326 1 40.0301 14.5187 -10.2753 0 2.35928 1 0 4.54005e-06 0.571599
3278 1 42.2412 13.7434 -10.6553 0 3.10233 2 0 4.53999e-06 0.969537
3335 1 39.3176 11.6313 -8.93927 0 2.06463 2 0 4.54107e-06 -0.439344
4017 1 40.2758 11.8653 -9.17367 0 2.17942 2 0 4.54034e-06 0.234001
1012 1 39.5727 12.43 -8.8016 0 2.14372 1 0 4.54048e-06 -0.769707
1930 1 39.5943 12.9437 -9.6596 0 2.21758 1 0 4.54023e-06 -0.73454
2555 1 39.2237 13.6271 -10.077 0 2.24901 1 0 4.54016e-06 -0.769193
3789 1 41.1279 12.4161 -9.33872 0 2.53277 2 0 4.54e-06 0.756833
4332 1 40.3406 12.6036 -9.83747 0 2.27579 1 0 4.54012e-06 -0.041967
4414 1 40.3047 12.748 -8.86177 0 2.23519 1 0 4.54019e-06 0.591648
3969 1 40.6741 13.2192 -10.1706 0 2.35815 1 0 4.54005e-06 0.683012
4589 1 40.2183 13.4851 -9.10307 0 2.27922 1 0 4.54012e-06 0.75314
3691 1 41.1854 13.4234 -9.19505 0 2.53001 2 0 4.54e-06 0.966092
3371 1 41.6082 13.0296 -10.0622 0 2.70628 2 0 4.53999e-06 0.937349
6244 1 37.8079 14.9633 -9.42393 0 2.24393 2 0 4.54017e-06 -0.784699
6037 1 38.4364 14.5372 -9.12493 0 2.2494 1 0 4.54016e-06 -0.732064
1868 1 39.031 14.0294 -9.24623 0 2.24728 1 0 4.54017e-06 -0.779669
3871 1 39.7445 14.3544 -9.02869 0 2.31552 1 0 4.54008e-06 0.515697
9424 1 39.6188 15.0542 -8.89603 0 2.36008 1 0 4.54005e-06 0.717263
8743 1 39.2145 14.78 -9.88051 0 2.31565 1 0 4.54008e-06 -0.763293
8545 1 38.6198 15.1522 -8.58873 0 2.27681 1 0 4.54012e-06 -0.90348
3921 1 40.9856 13.9054 -10.2168 0 2.41416 1 0 4.54003e-06 0.948598
4233 1 39.8137 13.9093 -9.70028 0 2.29355 1 0 4.5401e-06 -0.507689
4131 1 40.4971 14.2082 -9.48052 0 2.36482 1 0 4.54005e-06 0.884357
3218 1 40.1289 15.0834 -9.64093 0 2.40952 1 0 4.54003e-06 0.641585
8740 1 40.8113 14.759 -10.1682 0 2.61301 2 0 4.54e-06 0.799674
3209 1 41.3331 15.1236 -8.76897 0 2.93359 2 0 4.53999e-06 0.927333
4068 1 38.5618 10.3183 -7.39038 0 1.95947 2 0 4.54309e-06 -0.289978
1449 1 38.1281 11.8416 -6.95406 0 1.95691 2 0 4.54317e-06 -0.799135
1309 1 38.8371 11.0357 -8.2994 0 1.99403 2 0 4.54218e-06 -0.466875
4016 1 39.4197 10.7863 -7.60332 0 2.05329 2 0 4.5412e-06 0.33357
4632 1 38.6985 11.1367 -7.13866 0 2.00833 1 0 4.54189e-06 -0.690761
4677 1 39.7603 11.5922 -8.0897 0 2.10553 2 0 4.54071e-06 0.355135
1698 1 38.7853 11.7856 -7.73423 0 2.03076 2 0 4.54151e-06 -0.843637
4334 1 39.565 11.4714 -7.22202 0 2.11592 1 0 4.54064e-06 0.607068
3698 1 40.3894 11.5185 -6.88519 0 2.43826 2 0 4.54002e-06 0.832862
3277 1 41.8104 12.0252 -7.35797 0 3.09203 2 0 4.53999e-06 0.936485
1927 1 39.3711 12.3377 -7.91662 0 2.10615 1 0 4.54071e-06 -0.912034
1568 1 39.3464 13.1754 -8.49726 0 2.15977 1 0 4.54041e-06 -0.986915
2550 1 38.7553 13.7003 -8.28115 0 2.15735 1 0 4.54042e-06 -0.79706
1203 1 39.1331 12.7913 -7.12692 0 2.08177 1 0 4.5409e-06 -0.897498
3624 1 39.5671 13.6811 -7.06949 0 2.15075 1 0 4.54045e-06 -0.901458
3924 1 40.9197 12.8116 -8.32773 0 2.35515 2 0 4.54005e-06 0.972977
3515 1 39.8466 12.2165 -7.15776 0 2.16879 1 0 4.54037e-06 0.856125
3971 1 40.4714 12.0772 -8.08197 0 2.2163 1 0 4.54023e-06 0.734236
3282 1 40.8055 12.3079 -7.13366 0 2.51296 2 0 4.54001e-06 0.959125
3516 1 39.9984 12.7786 -7.78589 0 2.18818 1 0 4.54031e-06 0.148129
4592 1 40.1617 13.5256 -8.12775 0 2.25167 1 0 4.54016e-06 0.39357
3690 1 41.3721 13.5275 -8.12591 0 2.63781 2 0 4.54e-06 0.993453
3693 1 40.6547 13.1669 -7.41834 0 2.29859 1 0 4.5401e-06 0.895821
6587 1 37.6301 15.0032 -8.06042 0 2.20091 2 0 4.54027e-06 -0.668779
1146 1 38.1314 14.3054 -8.07483 0 2.16667 2 0 4.54038e-06 -0.751881
8445 1 39.2304 14.4097 -8.17111 0 2.24407 1 0 4.54017e-06 -0.245128
905 1 38.7056 14.0636 -7.20417 0 2.10939 1 0 4.54068e-06 -0.779486
9325 1 38.6288 14.9675 -7.47951 0 2.1967 1 0 4.54028e-06 -0.679565
9179 1 39.2532 15.1619 -8.24988 0 2.31407 1 0 4.54008e-06 0.29746
4517 1 40.1553 14.3301 -8.06104 0 2.33445 1 0 4.54007e-06 0.853377
3639 1 41.094 14.2923 -7.75542 0 2.69957 2 0 4.53999e-06 0.996712
8996 1 40.7245 15.0902 -7.97486 0 2.71079 2 0 4.53999e-06 0.903348
8441 1 39.9914 14.7162 -7.25448 0 2.34178 1 0 4.54006e-06 0.784785
1790 1 37.2599 10.3563 -6.11724 0 1.85775 2 0 4.54855e-06 -0.685928
3460 1 38.8699 10.3578 -6.42072 0 2.01933 2 0 4.54169e-06 0.161999
2281 1 37.8833 10.8045 -6.82435 0 1.92301 2 0 4.54445e-06 -0.751667
2450 1 37.63 11.2976 -6.01385 0 1.89957 2 0 4.54563e-06 -0.815893
1538 1 37.0969 10.7396 -5.23226 0 1.84809 2 0 4.54942e-06 -0.884301
4412 1 37.7719 11.1215 -5.20359 0 1.90303 1 0 4.54543e-06 -0.643639
4594 1 39.1721 11.9503 -6.67419 0 2.07284 1 0 4.54099e-06 -0.592627
4323 1 38.1584 10.6011 -5.88704 0 1.94397 2 0 4.54361e-06 -0.15758
4322 1 38.4707 11.3498 -6.21376 0 1.98141 1 0 4.54248e-06 -0.764454
958 1 38.1648 11.9847 -5.49656 0 1.92673 1 0 4.54429e-06 -0.666317
3968 1 39.1909 11.261 -6.39117 0 2.07924 1 0 4.54093e-06 0.640233
3927 1 38.7834 11.1665 -5.48742 0 2.01965 1 0 4.54169e-06 0.706282
3369 1 39.5846 10.6726 -5.66488 0 2.36851 2 0 4.54004e-06 0.585407
3456 1 39.8232 10.7078 -6.69715 0 2.34688 2 0 4.54006e-06 0.617602
3086 1 40.3494 11.2965 -5.89786 0 2.55492 2 0 4.54e-06 0.753585
2546 1 38.0293 13.2336 -5.28792 0 1.85163 2 0 4.54909e-06 -0.917062
1204 1 38.9572 12.403 -5.63181 0 2.01324 1 0 4.5418e-06 -0.693153
1570 1 38.885 13.0611 -6.27469 0 2.01703 1 0 4.54173e-06 -0.958098
3625 1 39.7392 13.3277 -5.86456 0 2.12686 1 0 4.54057e-06 0.802102