ITEM: TIMESTEP
47000
ITEM: NUMBER OF ATOMS
9495
ITEM: BOX BOUNDS mm mm mm
0.0000000000000000e+00 7.8484005880319216e+01
-2.7891952590293507e+00 3.4437777283319100e+01
-1.6685672070369853e+02 3.1748021039364001e+01
ITEM: ATOMS id type x y z c_phase c_temp c_surf c_nbond c_visc f_3[1]
2453 1 66.4204 12.3223 -165.944 0 3.59062 2 0 4.53999e-06 -0.921466
2149 1 67.4632 11.5654 -165.882 0 3.64512 2 0 4.53999e-06 -0.563295
1924 1 68.3293 10.939 -165.45 0 3.69017 2 0 4.53999e-06 -0.381904
1561 1 69.344 11.1169 -165.668 0 3.74609 2 0 4.53999e-06 0.155324
1560 1 68.5081 11.6174 -166.242 0 3.69689 2 0 4.53999e-06 -0.0947601
3628 1 70.1069 11.8003 -165.794 0 3.8339 2 0 4.53999e-06 0.281521
1196 1 69.3219 12.2804 -166.105 0 3.76923 2 0 4.53999e-06 0.0459664
1201 1 71.0936 11.9465 -165.246 0 3.96428 2 0 4.53999e-06 0.449676
4522 1 70.9441 12.4291 -166.154 0 3.97518 2 0 4.53999e-06 0.446633
4113 1 72.0715 12.2935 -165.421 0 4.38572 2 0 4.53999e-06 0.58107
2100 1 66.7759 13.4896 -165.903 0 3.60452 2 0 4.53999e-06 -0.730881
1920 1 67.4726 12.5528 -166.03 0 3.64645 2 0 4.53999e-06 -0.482881
1464 1 67.9593 13.4711 -166.019 0 3.67451 2 0 4.53999e-06 -0.257639
1143 1 68.4457 12.5681 -165.853 0 3.70779 2 0 4.53999e-06 -0.256639
1142 1 68.6131 13.4345 -165.305 0 3.72307 1 0 4.53999e-06 -0.275444
4521 1 68.9875 13.2853 -166.398 0 3.74701 2 0 4.53999e-06 -0.0596927
8451 1 69.3918 12.9023 -165.269 0 3.78286 1 0 4.53999e-06 -0.0530336
9332 1 69.6022 13.7557 -165.688 0 3.80404 2 0 4.53999e-06 0.0215327
4544 1 70.0375 12.9489 -166.268 0 3.85007 2 0 4.53999e-06 0.195482
4545 1 70.1756 12.4981 -165.285 0 3.85866 1 0 4.53999e-06 0.442713
4130 1 71.2203 12.9585 -165.306 0 4.18893 2 0 4.53999e-06 0.64271
4109 1 70.6432 13.5924 -165.776 0 3.925 2 0 4.53999e-06 0.453196
2099 1 63.0594 14.6799 -166.854 0 2.96278 3 0 4.53999e-06 -0
2150 1 69.4394 10.6093 -164.72 0 3.7429 2 0 4.53999e-06 0.00796119
2101 1 68.0225 11.9092 -165.171 0 3.68543 2 0 4.53999e-06 -0.676207
2454 1 67.0346 12.204 -165.01 0 3.63181 2 0 4.53999e-06 -0.753223
900 1 69.238 11.9373 -165.174 0 3.7618 1 0 4.53999e-06 -0.184178
2503 1 68.6411 11.3661 -164.568 0 3.72207 2 0 4.53999e-06 -0.472838
2105 1 69.6134 11.5883 -164.32 0 3.78607 2 0 4.53999e-06 -0.191048
2460 1 68.8231 12.2779 -164.163 0 3.74138 2 0 4.53999e-06 -0.457888
1921 1 70.2875 11.3852 -164.938 0 3.83178 2 0 4.53999e-06 0.308336
1562 1 70.5342 11.1166 -163.932 0 3.83986 2 0 4.53999e-06 -0.0723687
2551 1 70.185 12.0987 -163.624 0 3.83045 2 0 4.53999e-06 -0.208714
2104 1 71.1628 11.9384 -163.549 0 3.89355 2 0 4.53999e-06 -0.23811
2153 1 71.4321 11.4624 -164.4 0 3.92924 2 0 4.53999e-06 0.110201
1149 1 70.5519 12.2596 -164.533 0 3.88156 1 0 4.53999e-06 0.548977
3630 1 72.4151 10.958 -164.191 0 3.92741 2 0 4.53999e-06 -0.000257028
903 1 72.3302 11.975 -164.467 0 4.0074 2 0 4.53999e-06 0.356805
8992 1 73.397 11.8996 -164.665 0 4.01053 2 0 4.53999e-06 0.390756
3522 1 73.3395 11.3069 -163.764 0 3.9449 2 0 4.53999e-06 0.170081
4125 1 74.391 11.5255 -163.647 0 3.99136 2 0 4.53999e-06 0.45142
3631 1 73.5436 12.1561 -163.647 0 3.98005 2 0 4.53999e-06 0.394697
1865 1 67.5586 13.0608 -165.175 0 3.66193 2 0 4.53999e-06 -0.908672
1870 1 67.9708 12.9229 -164.31 0 3.68922 2 0 4.53999e-06 -0.734329
7200 1 67.067 13.804 -163.78 0 3.59493 2 0 4.53999e-06 -0.782694
1465 1 68.347 13.8627 -164.142 0 3.69882 2 0 4.53999e-06 -0.260072
6299 1 67.8291 14.036 -165.025 0 3.67048 2 0 4.53999e-06 -0.452766
1469 1 68.5663 12.5792 -164.969 0 3.72246 1 0 4.53999e-06 -0.886799
6032 1 69.5323 12.8854 -163.685 0 3.78369 2 0 4.53999e-06 -0.168662
906 1 68.9977 13.2174 -164.437 0 3.74998 1 0 4.53999e-06 -0.28597
3632 1 69.6657 12.4729 -164.434 0 3.80014 1 0 4.53999e-06 -0.193273
8452 1 69.788 13.6625 -164.226 0 3.80567 2 0 4.53999e-06 0.088039
2457 1 70.4562 12.9707 -164.043 0 3.86486 1 0 4.53999e-06 0.194477
9330 1 70.2522 13.265 -164.929 0 3.86606 1 0 4.53999e-06 0.426295
9333 1 71.4564 12.5431 -164.454 0 3.99169 1 0 4.53999e-06 0.842655
9222 1 71.1354 13.5609 -164.481 0 3.96035 2 0 4.53999e-06 0.442683
4114 1 72.169 13.1164 -164.691 0 4.33482 2 0 4.53999e-06 0.530263
9329 1 72.9435 12.7533 -164.107 0 4.01418 2 0 4.53999e-06 0.28663
3629 1 72.0196 12.4555 -163.715 0 3.95992 2 0 4.53999e-06 0.0478915
9428 1 74.5212 12.5301 -164.269 0 4.51644 2 0 4.53999e-06 0.602415
6028 1 69.1379 14.1457 -164.854 0 3.75735 2 0 4.53999e-06 -0.0764722
9219 1 70.2545 14.2083 -164.968 0 3.85047 2 0 4.53999e-06 0.272335
1008 1 74.0827 10.3836 -162.056 0 3.94353 2 0 4.53999e-06 -0.572314
4587 1 74.7376 10.5055 -162.968 0 3.96621 2 0 4.53999e-06 0.0726287
3519 1 75.1897 10.6836 -162.113 0 4.03904 2 0 4.53999e-06 -0.0991281
3870 1 76.9872 10.5929 -161.922 0 4.54488 2 0 4.53999e-06 0.523818
2151 1 71.7223 11.0674 -163.303 0 3.88986 2 0 4.53999e-06 -0.405076
6973 1 71.7373 12.3418 -162.712 0 3.89159 2 0 4.53999e-06 -0.272341
1928 1 72.5797 11.7679 -163.533 0 3.93725 2 0 4.53999e-06 -0.671403
952 1 72.8013 10.8369 -163.034 0 3.9043 2 0 4.53999e-06 -0.250458
2547 1 72.4991 11.642 -162.4 0 3.89509 2 0 4.53999e-06 -0.36642
1866 1 73.4187 11.7564 -162.931 0 3.94124 2 0 4.53999e-06 -0.539386
1922 1 73.8948 11.011 -162.967 0 3.945 2 0 4.53999e-06 -0.273428
1148 1 74.744 11.3579 -162.696 0 3.99778 1 0 4.53999e-06 -0.0233727
7205 1 74.0595 11.5559 -162.25 0 3.96386 2 0 4.53999e-06 -0.756271
6608 1 74.7875 12.0599 -162.116 0 4.01348 1 0 4.53999e-06 -0.340428
1466 1 74.269 12.1492 -162.971 0 3.98282 2 0 4.53999e-06 0.303915
4548 1 75.5928 11.16 -162.835 0 4.0617 2 0 4.53999e-06 0.399818
4520 1 76.1436 11.0234 -162.074 0 4.16789 1 0 4.53999e-06 0.417253
9218 1 76.293 11.8815 -162.672 0 4.37688 2 0 4.53999e-06 0.542203
1869 1 75.4516 11.565 -162.125 0 4.07811 1 0 4.53999e-06 0.0439974
9334 1 75.276 12.1173 -162.958 0 4.04347 2 0 4.53999e-06 0.34801
7557 1 75.6903 12.44 -161.957 0 4.09382 2 0 4.53999e-06 0.061602
8739 1 77.2058 11.604 -161.924 0 4.5468 2 0 4.53999e-06 0.727262
6588 1 68.5164 13.0504 -163.393 0 3.70815 2 0 4.53999e-06 -0.323039
7563 1 71.2217 12.9726 -163.497 0 3.90798 2 0 4.53999e-06 0.156649
6967 1 70.3199 12.9251 -162.784 0 3.81295 2 0 4.53999e-06 -0.160964
7556 1 72.8498 12.5189 -163.059 0 3.93854 2 0 4.53999e-06 -0.226592
8449 1 73.8484 13.0661 -163.333 0 3.9913 2 0 4.53999e-06 0.22362
6298 1 73.6731 12.5398 -162.265 0 3.93842 2 0 4.53999e-06 -0.273828
1195 1 74.9449 10.322 -161.197 0 4.0301 2 0 4.53999e-06 -0.485422
4325 1 76.0518 10.3276 -161.44 0 4.16308 2 0 4.53999e-06 0.0331652
4417 1 76.5908 10.3633 -160.528 0 4.25535 2 0 4.53999e-06 -0.0374316
4227 1 78.0494 10.7217 -160.422 0 4.72605 2 0 4.53999e-06 0.882689
1199 1 74.6689 11.2255 -161.618 0 4.01624 1 0 4.53999e-06 -0.787226
6604 1 74.4242 12.1348 -161.204 0 3.98852 2 0 4.53999e-06 -0.643559
9220 1 76.2415 11.7742 -161.754 0 4.1801 1 0 4.53999e-06 0.516584
7203 1 75.3484 11.8285 -161.352 0 4.08327 1 0 4.53999e-06 -0.639608
954 1 75.5799 11.0956 -161.431 0 4.11038 1 0 4.53999e-06 -0.574822
8448 1 76.4484 11.1039 -161.235 0 4.2303 1 0 4.53999e-06 0.554222
7204 1 76.1097 11.5825 -160.975 0 4.17538 1 0 4.53999e-06 -0.28104
1976 1 75.7064 10.7755 -160.655 0 4.14124 2 0 4.53999e-06 -0.517721
7202 1 75.4378 11.6413 -160.431 0 4.11114 2 0 4.53999e-06 -0.750094
2553 1 76.3673 11.1891 -160.266 0 4.22631 1 0 4.53999e-06 -0.41551
6030 1 76.5765 12.1026 -160.264 0 4.21985 2 0 4.53999e-06 0.169265
9171 1 76.7016 12.3324 -161.288 0 4.21365 2 0 4.53999e-06 0.431953
6027 1 75.8604 12.3789 -160.894 0 4.12145 2 0 4.53999e-06 -0.196448
7555 1 77.0098 11.6376 -160.881 0 4.31135 1 0 4.53999e-06 0.799407
4519 1 77.2188 10.8241 -161.006 0 4.51491 2 0 4.53999e-06 0.684091
3213 1 77.9549 11.523 -161.117 0 4.73705 2 0 4.53999e-06 0.901998
4588 1 77.3512 10.2409 -159.778 0 4.34256 2 0 4.53999e-06 0.231956
1010 1 77.446 10.6665 -158.77 0 4.35571 2 0 4.53999e-06 0.214682
955 1 76.633 10.8013 -159.386 0 4.26853 2 0 4.53999e-06 -0.605448
6908 1 76.0664 11.6424 -159.618 0 4.18 2 0 4.53999e-06 -0.562985
4518 1 77.1723 11.1155 -160.155 0 4.34996 1 0 4.53999e-06 0.825052
9221 1 77.6168 11.9272 -160.192 0 4.59985 2 0 4.53999e-06 0.669604
6304 1 77.0204 11.6745 -159.4 0 4.3077 2 0 4.53999e-06 0.0258242
3520 1 77.8152 11.1402 -159.498 0 4.59885 2 0 4.53999e-06 0.991728
7474 1 75.699 12.5907 -159.874 0 4.07938 2 0 4.53999e-06 -0.376163
1253 1 76.7462 10.3111 -157.994 0 4.24272 2 0 4.53999e-06 -0.582207
901 1 78.0691 10.6426 -157.226 0 4.59687 2 0 4.53999e-06 0.568303
4546 1 78.3336 10.7167 -158.27 0 4.71442 2 0 4.53999e-06 0.816653
2598 1 77.2007 10.7221 -157.092 0 4.34574 2 0 4.53999e-06 -0.6014
7373 1 76.5797 11.3342 -157.429 0 4.27143 2 0 4.53999e-06 -0.970013
2656 1 76.9374 11.273 -158.403 0 4.30585 2 0 4.53999e-06 -0.899947
902 1 77.7916 11.5784 -158.577 0 4.5394 2 0 4.53999e-06 0.513256
2552 1 77.5371 11.1319 -157.706 0 4.38754 2 0 4.53999e-06 -0.090725
8944 1 78.3251 11.6077 -157.705 0 4.66267 2 0 4.53999e-06 0.783448
8547 1 77.3884 11.8564 -157.26 0 4.35319 2 0 4.53999e-06 -0.267458
4420 1 77.9403 10.5427 -155.617 0 4.35807 2 0 4.53999e-06 0.445558
4516 1 77.9796 11.3506 -156.911 0 4.53804 2 0 4.53999e-06 0.795698
6970 1 77.3175 11.302 -156.607 0 4.35828 2 0 4.53999e-06 -0.868848
2599 1 77.6889 10.7535 -156.371 0 4.37591 2 0 4.53999e-06 0.0526053
3873 1 78.4808 11.0141 -156.304 0 4.57006 2 0 4.53999e-06 0.975414
9122 1 77.9082 11.8768 -156.3 0 4.36784 2 0 4.53999e-06 0.363709
6450 1 76.8311 11.4828 -155.34 0 4.30518 2 0 4.53999e-06 -0.896067
6297 1 77.2163 11.5824 -155.982 0 4.33693 2 0 4.53999e-06 -0.670012
4547 1 78.168 11.2737 -155.37 0 4.49124 2 0 4.53999e-06 0.971911
6301 1 77.8616 11.2709 -155.944 0 4.47694 2 0 4.53999e-06 0.883798
7152 1 77.1971 10.8813 -155.781 0 4.33533 1 0 4.53999e-06 -0.738421
6245 1 77.5606 11.674 -155.35 0 4.34318 1 0 4.53999e-06 0.0894597
4630 1 77.4365 10.4892 -154.694 0 4.32102 2 0 4.53999e-06 -0.035539
4591 1 77.2579 10.6092 -153.797 0 4.30277 2 0 4.53999e-06 -0.0255234
6240 1 76.6288 11.8224 -154.043 0 4.26758 2 0 4.53999e-06 -0.718944
1255 1 76.7344 11.062 -154.172 0 4.28786 2 0 4.53999e-06 -0.930426
1926 1 77.5411 10.9316 -155.22 0 4.34538 1 0 4.53999e-06 0.0509879
3425 1 76.9456 10.9186 -154.922 0 4.30953 2 0 4.53999e-06 -0.865944
8546 1 77.8177 11.4999 -154.708 0 4.45826 2 0 4.53999e-06 0.707708
8989 1 78.1111 10.8294 -154.702 0 4.48916 2 0 4.53999e-06 0.858223
7376 1 77.1555 11.5343 -154.684 0 4.31582 2 0 4.53999e-06 -0.535997
6972 1 77.4865 11.0576 -154.283 0 4.33568 2 0 4.53999e-06 0.446191
7662 1 77.4191 11.7537 -153.99 0 4.3128 2 0 4.53999e-06 0.298007
9168 1 77.9665 11.1983 -153.75 0 4.49981 2 0 4.53999e-06 0.853078
6905 1 76.3505 11.2906 -153.277 0 4.26501 2 0 4.53999e-06 -0.983505
6605 1 76.609 11.6776 -152.349 0 4.33723 2 0 4.53999e-06 -0.71774
6590 1 77.1601 11.2589 -153.413 0 4.30985 2 0 4.53999e-06 0.0942052
9169 1 76.9846 12.004 -153.143 0 4.30195 2 0 4.53999e-06 -0.0576206
1923 1 76.8275 10.8716 -152.563 0 4.31507 2 0 4.53999e-06 -0.129818
9331 1 77.5102 11.4508 -152.627 0 4.54621 2 0 4.53999e-06 0.940582
4229 1 76.3814 10.6302 -151.291 0 4.29748 2 0 4.53999e-06 -0.0781946
6513 1 75.131 11.8667 -150.454 0 4.11571 2 0 4.53999e-06 -0.814578
7374 1 76.1308 11.4162 -151.6 0 4.31265 2 0 4.53999e-06 -0.714508
9429 1 76.3669 12.251 -151.609 0 4.32909 2 0 4.53999e-06 -0.250153
1685 1 75.6219 11.091 -150.735 0 4.20499 2 0 4.53999e-06 -0.614504
6907 1 75.857 11.8711 -150.946 0 4.25876 2 0 4.53999e-06 -0.664083
3521 1 76.5512 11.2982 -150.831 0 4.46252 2 0 4.53999e-06 0.535764
8447 1 76.9817 11.266 -151.628 0 4.5494 2 0 4.53999e-06 0.727951
9123 1 77.2745 12.0463 -151.833 0 4.60964 2 0 4.53999e-06 0.730961
3872 1 77.5649 11.3116 -150.881 0 4.70467 2 0 4.53999e-06 0.942757
7554 1 76.832 12.0031 -150.949 0 4.523 2 0 4.53999e-06 0.710803
7559 1 76.1835 12.5265 -150.525 0 4.25524 2 0 4.53999e-06 0.0607977
2452 1 74.811 11.2016 -149.742 0 3.9991 2 0 4.53999e-06 -0.724998
1566 1 74.8314 12.0107 -149.448 0 3.9709 2 0 4.53999e-06 -0.845654
2201 1 74.0752 11.6264 -148.988 0 3.85129 2 0 4.53999e-06 -0.885361
4330 1 74.9102 11.2405 -148.759 0 3.91725 2 0 4.53999e-06 -0.13018
4326 1 76.2314 11.013 -150.143 0 4.24298 2 0 4.53999e-06 0.262093
1569 1 75.5857 11.465 -149.899 0 4.14095 2 0 4.53999e-06 -0.587465
1563 1 76.2146 11.8163 -150.236 0 4.37905 2 0 4.53999e-06 0.702442
2548 1 75.5806 12.2172 -149.836 0 4.12701 2 0 4.53999e-06 -0.272005
9224 1 76.347 12.3452 -149.56 0 4.38979 2 0 4.53999e-06 0.564204
1259 1 75.6213 10.9456 -149.297 0 4.0654 2 0 4.53999e-06 0.0907771
4331 1 76.35 11.4901 -149.411 0 4.36895 2 0 4.53999e-06 0.64508
1198 1 75.6263 11.8317 -149.01 0 4.04482 2 0 4.53999e-06 0.431948
4515 1 76.9807 11.6529 -150.119 0 4.52854 2 0 4.53999e-06 0.896393
6031 1 74.3365 12.6291 -148.964 0 3.85189 2 0 4.53999e-06 -0.520987
8945 1 75.3695 12.7347 -149.096 0 3.97135 2 0 4.53999e-06 0.174149
4419 1 72.9442 11.872 -147.052 0 3.93286 2 0 4.53999e-06 0.207194
2154 1 72.0161 12.2208 -147.022 0 3.89443 2 0 4.53999e-06 -0.278296
6303 1 74.9294 12.1179 -148.471 0 3.88669 2 0 4.53999e-06 0.413519
1567 1 73.8696 12.2029 -148.213 0 3.85117 2 0 4.53999e-06 -0.978605
4228 1 74.4353 11.562 -147.877 0 3.83721 2 0 4.53999e-06 0.0776698
4549 1 73.8335 12.3203 -147.226 0 4.15916 2 0 4.53999e-06 0.622899
9223 1 72.9522 12.572 -147.688 0 3.90093 2 0 4.53999e-06 -0.348933
6243 1 72.1847 13.1782 -147.082 0 3.89855 2 0 4.53999e-06 -0.19309
3876 1 73.4965 13.2822 -147.294 0 3.89914 2 0 4.53999e-06 0.332555
8600 1 74.4772 12.7936 -147.923 0 3.84292 2 0 4.53999e-06 0.418609
1688 1 70.9986 12.3473 -146.664 0 3.78623 2 0 4.53999e-06 -0.598674
1011 1 71.5672 11.8079 -146.182 0 3.84439 2 0 4.53999e-06 -0.0553705
1257 1 71.019 12.4199 -145.753 0 3.78553 2 0 4.53999e-06 -0.352142
4328 1 72.462 12.1057 -146.182 0 4.14834 2 0 4.53999e-06 0.613539
7377 1 70.7177 13.0722 -146.093 0 3.74988 2 0 4.53999e-06 -0.517522
1467 1 71.6688 12.8011 -146.402 0 3.87408 2 0 4.53999e-06 -0.113998
7558 1 71.4543 13.2744 -145.659 0 3.82508 2 0 4.53999e-06 0.362208
4551 1 72.8582 12.713 -146.731 0 4.15034 2 0 4.53999e-06 0.83995
3641 1 72.385 13.0896 -146.005 0 4.15196 2 0 4.53999e-06 0.644022
4232 1 71.8234 12.4466 -145.618 0 4.03153 2 0 4.53999e-06 0.758139
1681 1 69.4941 12.0987 -144.892 0 3.54154 2 0 4.53999e-06 -0.517858
1684 1 69.6723 11.8774 -143.85 0 3.50442 2 0 4.53999e-06 -0.0611972
1313 1 70.9098 11.9547 -145.077 0 3.73222 2 0 4.53999e-06 0.200557
3422 1 70.2057 12.2378 -144.522 0 3.62918 2 0 4.53999e-06 0.081945
6237 1 68.8962 12.762 -144.667 0 3.47581 2 0 4.53999e-06 -0.851966
7151 1 69.798 12.9599 -144.861 0 3.59589 2 0 4.53999e-06 -0.602434
9126 1 69.3513 13.5592 -144.419 0 3.50305 2 0 4.53999e-06 -0.520808
2208 1 69.5619 12.6147 -144.153 0 3.53284 2 0 4.53999e-06 -0.749446
7475 1 68.9588 13.0438 -143.811 0 3.44184 2 0 4.53999e-06 -0.916566
7657 1 69.9851 13.2175 -143.966 0 3.5666 2 0 4.53999e-06 0.276982
2202 1 70.2777 12.4791 -145.337 0 3.67757 2 0 4.53999e-06 -0.516751
7472 1 70.6206 13.1879 -145.251 0 3.72071 2 0 4.53999e-06 -0.115331
904 1 71.3077 12.7641 -145.034 0 3.93217 2 0 4.53999e-06 0.882286
3966 1 70.9427 12.5077 -144.412 0 3.86948 2 0 4.53999e-06 0.721239
6242 1 70.1987 13.8141 -144.708 0 3.61599 2 0 4.53999e-06 -0.0129797
4416 1 70.4395 13.0081 -144.512 0 3.78324 2 0 4.53999e-06 0.59133
9120 1 71.1356 13.509 -144.56 0 3.94371 2 0 4.53999e-06 0.607905
4631 1 70.4026 12.5113 -143.709 0 3.77164 2 0 4.53999e-06 0.551183
2655 1 68.8182 12.2077 -143.456 0 3.3958 2 0 4.53999e-06 -0.549345
7150 1 67.9489 12.8404 -143.26 0 3.32239 2 0 4.53999e-06 -0.981788
3640 1 68.3407 12.5116 -142.261 0 3.37287 2 0 4.53999e-06 0.122589
956 1 69.6404 12.7195 -143.273 0 3.47384 2 0 4.53999e-06 0.234906
8943 1 69.4933 13.7433 -143.431 0 3.43855 2 0 4.53999e-06 0.00887403
9172 1 68.8675 13.1005 -142.921 0 3.37341 2 0 4.53999e-06 -0.229122
1929 1 66.5471 12.0326 -140.488 0 3.61487 2 0 4.53999e-06 0.315377
7553 1 67.3566 12.0933 -141.038 0 3.93159 2 0 4.53999e-06 0.66872
8544 1 66.5723 12.6475 -141.267 0 3.59609 2 0 4.53999e-06 0.000930155
6968 1 65.8825 12.4678 -140.779 0 3.54455 2 0 4.53999e-06 -0.335967
8686 1 65.3009 13.2716 -140.595 0 3.47782 2 0 4.53999e-06 -0.580285
8595 1 66.2378 13.2578 -140.603 0 3.56181 2 0 4.53999e-06 0.154314
8898 1 67.3811 12.9515 -141.928 0 3.48584 2 0 4.53999e-06 0.00314507
4590 1 67.1891 12.9617 -140.698 0 3.86196 2 0 4.53999e-06 0.809774
2205 1 65.8685 12.1519 -140.014 0 3.53805 2 0 4.53999e-06 -0.148162
4633 1 66.4242 12.2861 -139.65 0 3.69564 2 0 4.53999e-06 0.792339
2597 1 65.1802 12.0779 -139.513 0 3.46678 2 0 4.53999e-06 -0.722521
1683 1 65.9545 11.7424 -139.349 0 3.50864 2 0 4.53999e-06 0.178656
1056 1 67.3064 12.2627 -139.932 0 3.90771 2 0 4.53999e-06 0.90618
7658 1 65.1187 12.9694 -139.594 0 3.46587 2 0 4.53999e-06 -0.867587
1197 1 65.0179 12.627 -138.879 0 3.42112 2 0 4.53999e-06 -0.929585
6509 1 65.2513 12.5042 -140.167 0 3.49175 2 0 4.53999e-06 -0.817419
6305 1 65.867 12.8221 -140.123 0 3.53936 2 0 4.53999e-06 -0.221305
9227 1 66.5987 12.7414 -140.2 0 3.7313 2 0 4.53999e-06 0.919442
3281 1 65.7323 13.3544 -139.772 0 3.50632 2 0 4.53999e-06 -0.0792217
953 1 65.6488 12.4878 -139.318 0 3.49875 2 0 4.53999e-06 -0.347201
3922 1 66.1529 12.4624 -138.874 0 3.64459 2 0 4.53999e-06 0.652853
3643 1 65.652 13.1254 -138.975 0 3.46727 2 0 4.53999e-06 0.0916797
4121 1 66.2622 12.9392 -139.516 0 3.66741 2 0 4.53999e-06 0.66551
6455 1 61.5433 12.4091 -138.304 0 2.93049 3 0 4.53999e-06 -0.404344
6591 1 64.6199 12.2337 -138.159 0 3.31967 2 0 4.53999e-06 -0.751114
1258 1 65.4606 11.967 -138.645 0 3.43243 2 0 4.53999e-06 -0.0928736
6512 1 64.8473 13.3862 -138.398 0 3.33449 2 0 4.53999e-06 -0.516391
3523 1 64.8956 12.8659 -137.389 0 3.24718 2 0 4.53999e-06 -0.195331
1565 1 65.5739 12.7321 -138.17 0 3.39073 2 0 4.53999e-06 0.322648
9170 1 62.879 14.3769 -137.456 0 3.44791 3 0 4.53999e-06 -0.00769305
3874 1 63.8138 10.8389 -136.093 0 4.65132 3 0 4.53999e-06 0.576495
8543 1 62.0267 13.0025 -135.894 0 4.27367 2 0 4.53999e-06 0.215644
2449 1 60.7887 12.0825 -134.62 0 4.08634 2 0 4.53999e-06 -0.129082
4225 1 61.1223 12.3727 -133.822 0 4.09914 2 0 4.53999e-06 0.468749
4593 1 62.2438 12.1781 -135.068 0 4.63021 2 0 4.53999e-06 0.591553
2199 1 60.0727 12.737 -134.573 0 4.02306 2 0 4.53999e-06 -0.712318
7149 1 59.7121 13.8604 -133.809 0 3.94303 2 0 4.53999e-06 -0.597347
6302 1 60.0841 13.1005 -133.844 0 4.00763 2 0 4.53999e-06 -0.962998
6694 1 61.0094 13.5 -135.245 0 4.11867 2 0 4.53999e-06 -0.164708
2652 1 61.3652 12.6727 -135.23 0 4.19583 2 0 4.53999e-06 0.033165
2152 1 60.909 12.8957 -134.631 0 4.11399 2 0 4.53999e-06 -0.0969933
6974 1 60.4512 13.4426 -134.411 0 4.05114 2 0 4.53999e-06 -0.411084
7656 1 61.2557 13.5202 -134.403 0 4.13251 2 0 4.53999e-06 0.438842
4124 1 61.5615 12.5439 -134.47 0 4.32827 2 0 4.53999e-06 0.759011
1261 1 60.5472 12.6444 -134.062 0 4.05763 2 0 4.53999e-06 -0.390143
9226 1 60.978 13.1131 -133.801 0 4.19315 2 0 4.53999e-06 0.728491
8897 1 61.643 13.0562 -133.907 0 4.30843 2 0 4.53999e-06 0.909277
8838 1 62.898 12.9872 -135.246 0 4.83025 2 0 4.53999e-06 0.978328
8946 1 61.982 13.244 -134.858 0 4.45484 2 0 4.53999e-06 0.809558
1256 1 60.1167 12.1489 -133.687 0 3.99183 2 0 4.53999e-06 -0.40647
1260 1 59.4812 12.8348 -133.572 0 3.94302 2 0 4.53999e-06 -0.97
6606 1 59.3412 13.5213 -132.816 0 3.86733 2 0 4.53999e-06 -0.743489
4418 1 59.943 12.602 -132.85 0 3.93947 2 0 4.53999e-06 -0.38867
4424 1 60.646 12.7568 -133.287 0 4.0332 2 0 4.53999e-06 0.225502
6906 1 60.6625 13.6521 -133.699 0 4.04587 2 0 4.53999e-06 0.10307
8497 1 60.2226 13.3542 -133.162 0 3.98661 2 0 4.53999e-06 -0.268087
8317 1 61.2972 13.3807 -132.943 0 4.29049 2 0 4.53999e-06 0.643004
8270 1 60.4858 13.2447 -132.249 0 3.92257 2 0 4.53999e-06 0.123871
6508 1 54.1854 11.8573 -125.652 0 3.52859 3 0 4.53999e-06 0.132272
6452 1 58.2995 11.3158 -125.863 0 2.8957 3 0 4.53999e-06 -0
8450 1 56.1767 15.2878 -125.654 0 6.35888 3 0 4.53999e-06 -0
8444 1 53.7252 13.5692 -123.924 0 3.92175 2 0 4.53999e-06 -0.0336451
8500 1 52.8251 14.0676 -123.573 0 3.87908 2 0 4.53999e-06 -0.797038
9128 1 53.1891 13.1296 -123.281 0 3.9094 2 0 4.53999e-06 -0.650086
8314 1 53.3134 13.8119 -122.705 0 3.94295 2 0 4.53999e-06 -0.962767
8263 1 53.8687 13.7402 -122.999 0 3.9685 2 0 4.53999e-06 0.0339548
2456 1 54.1888 12.7824 -123.251 0 3.94349 2 0 4.53999e-06 0.303092
2600 1 54.4663 13.6557 -123.35 0 4.14396 2 0 4.53999e-06 0.706739
6241 1 53.7867 13.2211 -122.622 0 3.96082 2 0 4.53999e-06 -0.193707
2458 1 54.4977 13.4972 -122.52 0 4.11775 2 0 4.53999e-06 0.885338
3217 1 53.2462 14.5688 -122.605 0 3.93045 2 0 4.53999e-06 -0.639554
1691 1 53.7614 14.4057 -123.395 0 3.9459 2 0 4.53999e-06 -0.015928
3970 1 53.9571 14.2693 -122.592 0 3.9792 2 0 4.53999e-06 0.191688
4324 1 54.6108 14.2518 -122.758 0 4.15337 2 0 4.53999e-06 0.811869
3220 1 53.3983 13.4681 -122.021 0 3.94737 2 0 4.53999e-06 -0.75307
6185 1 54.1176 12.986 -121.926 0 3.96571 2 0 4.53999e-06 0.213983
8738 1 54.0448 13.7045 -122.113 0 3.98501 1 0 4.53999e-06 0.570734
8316 1 53.595 14.091 -122.08 0 3.9625 1 0 4.53999e-06 -0.803596
7660 1 53.6746 13.3851 -121.23 0 3.94226 2 0 4.53999e-06 -0.320299
8990 1 53.9337 14.0866 -121.418 0 3.9744 2 0 4.53999e-06 -0.0123967
9427 1 54.5635 13.5983 -121.492 0 4.14541 2 0 4.53999e-06 0.765886
8442 1 54.2908 13.9135 -120.524 0 3.93434 2 0 4.53999e-06 0.253746
3207 1 53.0654 14.1886 -121.521 0 3.91921 2 0 4.53999e-06 -0.870733
4415 1 54.4471 14.2123 -121.979 0 4.12292 2 0 4.53999e-06 0.857148
3967 1 53.8704 14.7256 -121.891 0 3.9692 2 0 4.53999e-06 -0.0320223
4116 1 53.662 14.7517 -120.885 0 3.92407 2 0 4.53999e-06 -0.305578
2212 1 54.7037 14.6881 -121.16 0 4.24737 2 0 4.53999e-06 0.685334
3692 1 52.1898 14.4397 -119.088 0 3.33641 3 0 4.53999e-06 -0.608535
3212 1 50.8764 15.3108 -116.494 0 4.1004 2 0 4.53999e-06 0.132862
8102 1 50.0883 14.9283 -114.928 0 4.08425 2 0 4.53999e-06 -0.23745
4014 1 49.0988 15.5798 -114.046 0 4.01063 2 0 4.53999e-06 -0.998393
3740 1 49.3954 15.5408 -114.912 0 4.05658 2 0 4.53999e-06 -0.877854
3920 1 49.6635 14.8661 -114.098 0 4.0313 2 0 4.53999e-06 -0.503648
8948 1 50.041 15.4622 -114.282 0 4.09081 1 0 4.53999e-06 -0.651065
8684 1 50.1996 15.5701 -115.477 0 4.126 2 0 4.53999e-06 -0.450891
8269 1 50.8677 15.118 -115.534 0 4.14641 2 0 4.53999e-06 0.376289
5917 1 51.3486 15.6882 -115.143 0 4.37384 2 0 4.53999e-06 0.983394
8267 1 50.5912 14.8754 -114.16 0 4.09869 2 0 4.53999e-06 0.464352
9125 1 50.7047 15.458 -114.728 0 4.15506 1 0 4.53999e-06 0.771156
6182 1 51.2824 15.5183 -114.116 0 4.36181 2 0 4.53999e-06 0.92536
8596 1 49.8644 15.5594 -113.603 0 4.04692 2 0 4.53999e-06 -0.435466
1974 1 49.321 15.045 -113.237 0 3.9655 2 0 4.53999e-06 -0.764609
8268 1 50.07 15.4485 -112.571 0 3.95925 2 0 4.53999e-06 0.221338
3423 1 49.6035 14.4678 -112.441 0 3.84808 2 0 4.53999e-06 -0.22071
8315 1 50.1734 14.7044 -113.32 0 4.00473 2 0 4.53999e-06 0.264752
7661 1 50.6225 15.447 -113.512 0 4.23854 2 0 4.53999e-06 0.710528
4673 1 47.8061 14.9613 -110.337 0 3.60455 3 0 4.53999e-06 0.0019177
8264 1 50.5642 14.7205 -110.24 0 4.36354 3 0 4.53999e-06 0.445535
3642 1 48.0207 14.9688 -108.224 0 3.89795 2 0 4.53999e-06 -0.013112
4634 1 47.8682 14.7616 -107.406 0 3.87588 2 0 4.53999e-06 0.0209931
1687 1 47.2603 15.4389 -107.343 0 3.85082 2 0 4.53999e-06 -0.659343
2994 1 48.7339 14.2213 -107.694 0 4.08714 2 0 4.53999e-06 0.625869
9425 1 48.5035 15.3549 -107.539 0 4.11373 2 0 4.53999e-06 0.771438
8740 1 46.7426 13.8644 -105.796 0 3.7797 2 0 4.53999e-06 -0.595625
3923 1 47.3212 14.1059 -106.383 0 3.81013 2 0 4.53999e-06 -0.231683
3278 1 46.6349 14.7081 -106.363 0 3.79493 2 0 4.53999e-06 -0.950523
3738 1 47.1811 14.3892 -107.164 0 3.81506 2 0 4.53999e-06 -0.541835
3737 1 47.3296 14.8223 -106.708 0 3.83169 1 0 4.53999e-06 -0.738736
8101 1 47.9667 14.2825 -106.828 0 3.84995 2 0 4.53999e-06 0.41818
909 1 47.8957 15.2828 -106.939 0 3.88085 2 0 4.53999e-06 0.311158
3921 1 47.2187 14.5118 -105.845 0 3.81629 1 0 4.53999e-06 -0.5978
2555 1 47.0137 15.1185 -105.695 0 3.81514 1 0 4.53999e-06 -0.640895
8837 1 48.0122 14.3026 -106.085 0 3.87104 2 0 4.53999e-06 0.751846
3517 1 47.6718 14.8972 -106.024 0 3.83642 1 0 4.53999e-06 0.68194
3793 1 47.2948 15.3627 -106.375 0 3.83318 1 0 4.53999e-06 -0.511585
8899 1 48.1307 15.0473 -106.374 0 3.86424 1 0 4.53999e-06 0.924729
6687 1 47.8022 15.495 -105.641 0 3.85711 2 0 4.53999e-06 0.415226
6188 1 48.6045 14.7773 -106.892 0 4.05272 2 0 4.53999e-06 0.982613
8056 1 47.6476 13.6256 -105.535 0 3.7934 2 0 4.53999e-06 0.31351
3371 1 46.3892 14.612 -105.439 0 3.78368 2 0 4.53999e-06 -0.989775
3218 1 46.4934 14.4481 -104.235 0 3.78556 2 0 4.53999e-06 -0.662455
3969 1 46.5254 15.2407 -104.799 0 3.79501 2 0 4.53999e-06 -0.736596
9326 1 47.0496 14.238 -105.004 0 3.81395 2 0 4.53999e-06 -0.206723
9426 1 47.7561 14.5501 -105.358 0 3.95975 2 0 4.53999e-06 0.699429
8743 1 47.3307 15.0815 -104.986 0 3.83419 2 0 4.53999e-06 0.24261
5809 1 47.5184 14.601 -104.227 0 4.08667 2 0 4.53999e-06 0.59696
6244 1 47.1714 15.63 -104.105 0 3.83591 2 0 4.53999e-06 0.148366
8839 1 48.4506 13.7292 -102.444 0 4.51946 3 0 4.53999e-06 0.597085
4233 1 46.8833 14.9045 -103.328 0 3.77054 2 0 4.53999e-06 -0.132836
8597 1 45.6151 13.5267 -101.998 0 3.57594 3 0 4.53999e-06 -0.706295
4589 1 46.2984 15.6193 -101.266 0 3.68999 3 0 4.53999e-06 0.624699
8900 1 47.0513 13.5157 -100.425 0 3.63808 3 0 4.53999e-06 0.29442
7375 1 49.3181 13.0864 -100.601 0 4.37915 3 0 4.53999e-06 0.661134
8265 1 44.6646 14.2913 -99.8758 0 3.54628 3 0 4.53999e-06 -0.988431
1930 1 48.6015 15.4413 -99.8328 0 4.68043 3 0 4.53999e-06 0.950832
8322 1 46.5358 14.1889 -98.1002 0 3.7145 2 0 4.53999e-06 -0.266193
3691 1 46.2512 15.1265 -98.2788 0 3.70818 2 0 4.53999e-06 -0.618233
3209 1 45.82 14.6018 -97.4799 0 3.64463 2 0 4.53999e-06 -0.906199
4592 1 46.5247 15.2168 -97.3709 0 3.72428 2 0 4.53999e-06 -0.396238
3871 1 47.1054 14.7476 -98.7291 0 3.78232 2 0 4.53999e-06 0.224697
6037 1 47.7433 14.6227 -97.9291 0 4.1235 2 0 4.53999e-06 0.850249
4414 1 47.1877 15.4908 -98.0393 0 3.85671 2 0 4.53999e-06 0.329305
8645 1 46.9946 14.4116 -97.3563 0 3.77534 2 0 4.53999e-06 0.229783
9173 1 46.8067 14.1113 -96.1659 0 3.67102 1 0 4.53999e-06 0.0336327
6181 1 47.7401 13.572 -96.1475 0 3.95346 2 0 4.53999e-06 0.628599
9424 1 46.341 14.5061 -96.7702 0 3.67159 2 0 4.53999e-06 -0.676633
3690 1 45.7797 15.2153 -96.4448 0 3.60127 2 0 4.53999e-06 -0.844729
8445 1 46.6757 15.2867 -96.5065 0 3.6885 2 0 4.53999e-06 -0.0204377
8058 1 45.8255 14.3261 -96.0345 0 3.57951 2 0 4.53999e-06 -0.89261
9179 1 46.5435 14.7437 -95.9243 0 3.63842 1 0 4.53999e-06 -0.741856
5815 1 47.9096 14.2994 -96.9159 0 4.08518 2 0 4.53999e-06 0.924975
8545 1 47.1837 14.6382 -96.5237 0 3.87631 2 0 4.53999e-06 0.941683
1568 1 47.4344 15.2226 -97.1136 0 3.9991 2 0 4.53999e-06 0.713819
1012 1 47.3288 15.154 -95.8769 0 3.85446 2 0 4.53999e-06 0.747536
8216 1 46.4229 13.9513 -95.4944 0 3.57781 2 0 4.53999e-06 -0.460207
8845 1 46.4397 13.4269 -94.6052 0 3.47007 2 0 4.53999e-06 -0.315121
3516 1 46.7078 14.1236 -94.1748 0 3.4739 1 0 4.53999e-06 -0.252216
7473 1 47.2964 13.5606 -95.0628 0 3.68399 2 0 4.53999e-06 0.563073
6587 1 47.4088 13.8597 -94.0369 0 3.6373 2 0 4.53999e-06 0.881347
4517 1 45.9528 14.2481 -94.8564 0 3.50294 2 0 4.53999e-06 -0.981587
3924 1 45.9328 14.9862 -95.396 0 3.55633 2 0 4.53999e-06 -0.840294
3335 1 46.4933 15.7351 -95.6741 0 3.59678 2 0 4.53999e-06 -0.0948789
3971 1 46.4831 14.8844 -94.5332 0 3.51328 2 0 4.53999e-06 -0.316643
2550 1 46.7895 14.2335 -94.9115 0 3.5609 1 0 4.53999e-06 0.558045
1927 1 46.7804 14.8761 -95.2726 0 3.60362 1 0 4.53999e-06 0.273712
1146 1 47.2898 14.3215 -95.583 0 3.79129 2 0 4.53999e-06 0.972435
1309 1 47.4926 14.6098 -94.6508 0 3.74675 2 0 4.53999e-06 0.914132
8996 1 45.5385 13.4512 -92.841 0 3.21872 2 0 4.53999e-06 -0.977935
8745 1 46.1663 13.4599 -93.68 0 3.34352 2 0 4.53999e-06 -0.6956
8746 1 46.5645 12.8212 -93.1325 0 3.26049 2 0 4.53999e-06 -0.0891829
8441 1 46.431 13.5202 -92.6685 0 3.28389 1 0 4.53999e-06 -0.809602
9325 1 47.0731 13.5804 -93.3067 0 3.36854 1 0 4.53999e-06 0.495118
8552 1 47.9228 13.9324 -92.7596 0 3.58887 2 0 4.53999e-06 0.85987
8266 1 47.3844 13.2008 -92.5675 0 3.33171 1 0 4.53999e-06 0.559913
3639 1 46.0112 14.3681 -93.9068 0 3.40735 2 0 4.53999e-06 -0.946656
3515 1 46.5177 14.2123 -93.2601 0 3.36021 1 0 4.53999e-06 -0.863964
3277 1 46.6538 15.1706 -93.0029 0 3.34268 2 0 4.53999e-06 -0.344387
3235 1 46.2346 14.3776 -92.5025 0 3.29042 1 0 4.53999e-06 -0.82784
1698 1 47.4306 14.4464 -93.1994 0 3.41703 1 0 4.53999e-06 0.761289
4677 1 46.9753 14.721 -93.8047 0 3.46971 2 0 4.53999e-06 0.309038
905 1 47.0416 14.1464 -92.5698 0 3.35314 1 0 4.53999e-06 0.0985785
4016 1 47.563 15.1774 -92.6327 0 3.4278 2 0 4.53999e-06 0.294081
6463 1 48.5083 14.7209 -92.6939 0 3.7799 2 0 4.53999e-06 0.820586
8054 1 45.892 11.8624 -91.1462 0 3.107 2 0 4.53999e-06 0.186632
2996 1 45.0486 12.4752 -91.5897 0 3.09197 2 0 4.53999e-06 -0.716615
8646 1 46.6634 12.7793 -92.2435 0 3.24014 2 0 4.53999e-06 0.0179254
8991 1 45.8658 13.192 -91.9299 0 3.19752 1 0 4.53999e-06 -0.92679
3693 1 46.4927 13.842 -91.9205 0 3.27621 1 0 4.53999e-06 -0.915805
8951 1 46.4887 12.7879 -91.4498 0 3.21181 1 0 4.53999e-06 0.150564
1203 1 46.376 13.5529 -91.2187 0 3.25302 1 0 4.53999e-06 -0.865874
3279 1 45.7495 12.8582 -91.0344 0 3.16789 1 0 4.53999e-06 -0.65221
8835 1 47.311 13.0132 -91.6466 0 3.29999 1 0 4.53999e-06 0.56177
6034 1 47.3875 13.9016 -92.0006 0 3.37411 1 0 4.53999e-06 0.967481
8950 1 47.2063 13.7046 -91.3197 0 3.34741 1 0 4.53999e-06 0.740267
5813 1 48.1472 13.563 -91.933 0 3.62982 2 0 4.53999e-06 0.825052
4334 1 46.8677 14.8511 -92.0141 0 3.33515 1 0 4.53999e-06 -0.419907
8503 1 47.8475 14.6059 -91.9994 0 3.46404 1 0 4.53999e-06 0.694767
4632 1 47.423 15.1082 -91.3108 0 3.41547 2 0 4.53999e-06 0.0577845
7748 1 47.8963 14.1478 -91.2332 0 3.61881 2 0 4.53999e-06 0.870596
3624 1 46.7727 14.3563 -91.2661 0 3.32937 1 0 4.53999e-06 -0.536834
6514 1 48.3365 14.9425 -91.0378 0 3.80394 2 0 4.53999e-06 0.664495
6183 1 48.845 14.33 -91.7555 0 3.8624 2 0 4.53999e-06 0.995558
2998 1 44.9446 11.9819 -90.6264 0 3.0821 2 0 4.53999e-06 -0.648097
8993 1 45.0852 12.3726 -89.7856 0 3.13305 1 0 4.53999e-06 -0.773867