ITEM: TIMESTEP
9500
ITEM: NUMBER OF ATOMS
9495
ITEM: BOX BOUNDS mm mm mm
0.0000000000000000e+00 3.1748021039364001e+01
0.0000000000000000e+00 3.1748021039364001e+01
-7.4072398406925706e-04 3.1748021039364001e+01
ITEM: ATOMS id type x y z c_phase c_temp c_surf c_nbond c_visc f_3[1]
1 1 0.116341 1.10259 0.464337 4 4.15921e-15 2 0 0.0994487 -0.68194
2 1 0.974108 1.6685 0.77798 4 2.59481e-14 2 0 0.0994487 -0.517032
3 1 0.714648 0.793562 1.41295 4 8.57179e-15 2 0 0.0994487 -0.281794
4 1 0.00336375 1.60273 1.37437 4 5.53544e-15 2 0 0.0994487 -0.804051
5 1 0.729896 0.0633724 0.61602 4 4.09881e-15 3 0 0.0994487 -0.190374
6 1 1.71015 0.808983 1.0155 4 4.73352e-14 2 0 0.0994487 -0.33207
7 1 1.80059 1.47468 0.221075 4 6.61002e-14 2 0 0.0994487 -0.125829
8 1 1.82015 1.66049 1.76126 4 8.69642e-14 2 0 0.0994487 -0.139533
9 1 2.52093 0.749102 0.203812 4 1.23559e-13 2 0 0.0994487 -0.14294
10 1 2.59149 0.0538711 1.03726 4 9.78904e-14 2 0 0.0994487 -0.295005
11 1 2.64922 1.541 0.882848 4 3.34966e-13 2 0 0.0994487 0.235751
12 1 2.66829 0.815502 1.7457 4 1.79424e-13 2 0 0.0994487 -0.187041
13 1 3.43386 0.933692 0.956349 4 7.70266e-13 2 0 0.0994487 0.320237
14 1 3.49924 0.0925696 1.70571 4 3.31932e-13 2 0 0.0994487 0.178053
15 1 3.60652 1.70798 1.71994 4 1.504e-12 2 0 0.0994487 0.048794
16 1 4.10576 0.858321 0.325305 4 1.89544e-12 2 0 0.0994487 0.153145
17 1 4.96159 0.56786 1.17466 4 6.55592e-12 2 0 0.0994487 -0.0370689
18 1 4.91949 1.59987 0.383508 4 1.2356e-11 2 0 0.0994487 -0.10025
19 1 4.3472 0.941527 1.62884 4 2.8648e-12 2 0 0.0994487 0.110736
20 1 3.47612 0.111428 0.171027 4 2.88658e-13 2 0 0.0994487 0.166215
21 1 5.64741 0.645627 0.325839 4 1.79884e-11 2 0 0.0994487 -0.080606
22 1 5.88414 1.31048 0.938036 4 4.46485e-11 2 0 0.0994487 -0.199595
23 1 6.57478 1.39104 0.218369 4 1.17707e-10 2 0 0.0994487 -0.086135
24 1 5.78374 0.460658 1.69897 4 1.72858e-11 2 0 0.0994487 -0.0846537
25 1 5.03122 1.72414 1.43602 4 1.54198e-11 2 0 0.0994487 0.04537
26 1 6.7138 0.39031 0.865278 4 7.38874e-11 2 0 0.0994487 -0.0793832
27 1 6.69104 1.00962 1.69374 4 9.54057e-11 2 0 0.0994487 -0.107925
28 1 8.2679 0.408875 1.07337 4 5.78638e-10 2 0 0.0994487 -0.100168
29 1 7.36782 1.22285 0.954198 4 3.3744e-10 2 0 0.0994487 -0.30256
30 1 8.24709 1.39092 0.236779 4 1.10823e-09 2 0 0.0994487 -0.0460659
31 1 8.12868 1.27217 1.60653 4 8.68426e-10 2 0 0.0994487 -0.0081186
32 1 7.58247 0.647807 0.140287 4 2.54524e-10 2 0 0.0994487 -0.110937
33 1 8.85849 0.508506 0.273966 4 1.17471e-09 2 0 0.0994487 -0.0616475
34 1 9.55301 0.3386 0.888639 4 2.71066e-09 2 0 0.0994487 0.00506236
35 1 9.02586 1.30716 1.1133 4 3.12618e-09 2 0 0.0994487 -0.0606508
37 1 9.63995 1.37474 0.0900752 4 5.22364e-09 2 0 0.0994487 0.0992902
38 1 11.2128 0.215893 0.632658 4 1.82175e-08 2 0 0.0994487 0.203502
39 1 10.3637 1.04743 0.823114 4 1.27768e-08 2 0 0.0994487 0.539882
40 1 10.523 0.196295 1.44539 4 7.6413e-09 2 0 0.0994487 0.0644276
41 1 11.2856 1.01846 1.41785 4 4.05469e-08 2 0 0.0994487 0.164705
42 1 10.5797 1.67706 1.72992 4 2.71766e-08 2 0 0.0994487 0.118163
43 1 10.2431 0.367861 0.0780499 4 4.36654e-09 2 0 0.0994487 0.1498
44 1 12.8757 0.211714 0.636805 4 1.28385e-07 2 0 0.0994487 0.0587867
45 1 12.0457 1.07408 0.506655 4 1.08579e-07 2 0 0.0994487 -0.0235528
46 1 12.1319 0.316439 1.29957 4 6.29067e-08 2 0 0.0994487 0.0188351
47 1 12.7194 1.19864 1.3723 4 2.5851e-07 2 0 0.0994487 -0.0305294
48 1 14.3729 0.318493 0.764646 4 6.74194e-07 2 0 0.0994487 -0.0460386
49 1 13.5924 1.113 0.843618 4 6.48277e-07 2 0 0.0994487 -0.263054
50 1 14.0399 1.55958 0.167469 4 1.34205e-06 2 0 0.0994487 -0.0898254
51 1 13.6075 0.359834 1.6352 4 2.90546e-07 2 0 0.0994487 -0.0562639
52 1 14.3777 1.14948 1.47647 4 1.27279e-06 2 0 0.0994487 -0.0178278
53 1 14.8761 1.55337 0.662943 4 3.04715e-06 2 0 0.0994487 0.389948
54 1 15.7061 0.770636 0.788259 4 3.34856e-06 2 0 0.0994487 0.366484
55 1 16.5532 1.54451 0.681338 4 1.5018e-05 2 0 0.0994487 0.000807369
56 1 15.1422 0.4642 1.64149 4 1.35358e-06 2 0 0.0994487 0.152077
57 1 16.547 0.712289 1.3421 4 7.1592e-06 2 0 0.0994487 0.0956276
58 1 15.6341 1.48544 1.3916 4 6.11809e-06 2 0 0.0994487 0.153632
59 1 15.1049 0.711806 0.0677822 4 1.31167e-06 2 0 0.0994487 0.169203
60 1 17.2544 0.732268 0.547589 4 1.16518e-05 2 0 0.0994487 0.0286314
61 1 17.9231 1.58109 0.757246 4 4.40047e-05 2 0 0.0994487 0.0415668
62 1 17.916 0.742935 1.42801 4 2.04893e-05 2 0 0.0994487 -0.224374
63 1 17.2202 1.74884 1.56274 4 3.22951e-05 2 0 0.0994487 -0.0984815
64 1 19.5372 0.0167772 0.662766 4 2.25009e-05 2 0 0.0994487 0.0436453
65 1 18.7918 0.725074 0.684829 4 3.14355e-05 2 0 0.0994487 -0.269943
66 1 19.5395 1.55488 0.841653 4 0.000105505 2 0 0.0994487 -0.341155
67 1 19.0276 0.158607 1.54508 4 2.10494e-05 2 0 0.0994487 -0.158663
68 1 19.5934 0.967491 1.68957 4 5.621e-05 2 0 0.0994487 0.00835364
69 1 18.6564 1.51302 1.50035 4 6.43946e-05 2 0 0.0994487 -0.250303
70 1 21.0889 0.349843 1.06749 4 5.56273e-05 2 0 0.0994487 -0.196123
71 1 20.2493 0.776373 0.980057 4 6.47922e-05 2 0 0.0994487 -0.0497549
72 1 21.1062 1.65725 0.951506 4 0.000195852 2 0 0.0994487 0.692931
73 1 21.1874 0.765598 0.218806 4 7.23831e-05 2 0 0.0994487 -0.0445883
74 1 20.3457 1.51479 0.193617 4 0.000126043 2 0 0.0994487 -0.0805996
75 1 22.0087 0.262534 0.539755 4 5.63345e-05 2 0 0.0994487 0.0993619
76 1 22.7913 0.430275 1.40734 4 7.12157e-05 2 0 0.0994487 0.206603
77 1 22.1105 1.14763 1.32981 4 0.000132732 2 0 0.0994487 0.240032
78 1 21.9982 1.59955 0.538558 4 0.000218161 2 0 0.0994487 0.185177
79 1 22.9157 1.07463 0.445168 4 0.000127099 2 0 0.0994487 0.0520889
80 1 24.228 0.380179 1.45209 4 6.78363e-05 2 0 0.0994487 0.0576194
81 1 23.5672 0.357563 0.57369 4 6.82888e-05 2 0 0.0994487 0.0385741
82 1 24.4367 1.18687 0.754729 4 0.000148392 2 0 0.0994487 -0.0192889
83 1 23.4757 1.2499 1.4028 4 0.000169384 2 0 0.0994487 0.0298832
84 1 24.955 0.315686 0.551996 4 5.54706e-05 2 0 0.0994487 -0.0171962
85 1 26.0085 0.383365 1.1715 4 4.34067e-05 2 0 0.0994487 -0.185858
86 1 25.169 1.12579 1.48087 4 0.000120904 2 0 0.0994487 0.0251081
87 1 25.9301 1.73476 1.35794 4 0.000176215 2 0 0.0994487 0.0345396
88 1 25.8917 0.929212 0.432102 4 7.14826e-05 2 0 0.0994487 -0.0954174
89 1 27.5736 1.28032 0.38906 4 4.00119e-05 2 0 0.0994487 0.0454506
90 1 27.6142 0.50928 0.874321 4 2.12902e-05 2 0 0.0994487 0.175389
91 1 26.7559 1.02809 1.26347 4 5.33624e-05 2 0 0.0994487 -0.236883
92 1 28.3748 0.337482 1.39813 4 1.0811e-05 2 0 0.0994487 0.00984534
93 1 26.7925 0.240345 0.226621 4 2.26609e-05 2 0 0.0994487 0.0380757
94 1 28.6489 1.24263 0.742341 4 2.02778e-05 2 0 0.0994487 0.102407
95 1 29.3912 0.945639 1.56878 4 8.12911e-06 2 0 0.0994487 -0.0192002
96 1 28.5228 1.71921 1.49749 4 3.19211e-05 2 0 0.0994487 -0.0429796
97 1 29.8133 0.173958 1.46124 4 3.12902e-06 2 0 0.0994487 0.133416
98 1 29.2734 0.3547 0.615275 4 5.33897e-06 2 0 0.0994487 -0.0816808
99 1 31.5874 0.266128 1.25663 4 6.73772e-07 3 0 0.0994487 0.830097
100 1 30.7016 0.49015 0.470738 4 1.91261e-06 2 0 0.0994487 0.354852
101 1 30.1009 1.19877 0.774133 4 6.03788e-06 2 0 0.0994487 0.21092
102 1 30.8649 0.971942 1.39386 4 2.71441e-06 2 0 0.0994487 0.703281
103 1 1.11081 2.43607 0.129285 4 3.94186e-14 2 0 0.0994487 -0.0373225
104 1 0.133403 2.3821 0.812241 4 1.25019e-14 2 0 0.0994487 -0.984517
105 1 1.28845 3.23764 0.949187 4 1.33806e-13 2 0 0.0994487 0.222087
106 1 1.13977 2.36077 1.59162 4 5.37885e-14 2 0 0.0994487 -0.22219
107 1 0.386685 3.02999 1.54944 4 2.75878e-14 2 0 0.0994487 -0.671256
108 1 0.332248 3.09582 0.131296 4 2.089e-14 2 0 0.0994487 -0.59134
109 1 1.90972 2.41867 0.78376 4 1.90198e-13 2 0 0.0994487 0.0782069
110 1 2.65852 3.28029 0.860875 4 1.27025e-12 2 0 0.0994487 0.0668014
111 1 2.66931 2.22918 1.53373 4 5.46779e-13 2 0 0.0994487 0.0829539
112 1 3.2579 3.42668 1.64938 4 3.32283e-12 2 0 0.0994487 0.00397361
113 1 2.7261 2.38168 0.0557193 4 4.42078e-13 2 0 0.0994487 0.1466
114 1 3.38195 2.55413 0.779289 4 2.26051e-12 2 0 0.0994487 0.211581
115 1 4.00679 1.841 0.711184 4 3.73292e-12 2 0 0.0994487 -0.036126
116 1 4.91383 2.57277 0.815661 4 2.63894e-11 2 0 0.0994487 -0.259354
117 1 4.20148 3.3175 0.749446 4 1.46591e-11 2 0 0.0994487 0.00621342
118 1 4.13245 2.64107 1.58328 4 7.51564e-12 2 0 0.0994487 0.027076
119 1 5.65047 2.44269 0.132743 4 6.20674e-11 2 0 0.0994487 -0.189926
120 1 6.55776 2.18062 0.772597 4 2.24811e-10 2 0 0.0994487 -0.289396
121 1 5.64874 3.19593 0.952489 4 1.2322e-10 2 0 0.0994487 -0.75464
122 1 5.861 2.19426 1.49672 4 7.51986e-11 2 0 0.0994487 0.012634
123 1 6.52037 3.06691 1.5557 4 3.74992e-10 2 0 0.0994487 0.0443559
124 1 6.65033 2.92778 0.134227 4 3.44374e-10 2 0 0.0994487 0.0288856
125 1 7.45405 2.22586 0.139832 4 7.36908e-10 2 0 0.0994487 -0.0535041
126 1 8.08209 2.20208 0.930382 4 1.95246e-09 2 0 0.0994487 -0.302087
127 1 7.40132 3.06835 0.934051 4 1.49041e-09 2 0 0.0994487 -0.0455432
128 1 7.29928 2.06035 1.56856 4 5.39356e-10 2 0 0.0994487 -0.0607343
129 1 8.18545 3.00183 1.65211 4 3.75662e-09 2 0 0.0994487 -0.0454173
130 1 8.26934 2.9712 0.0392146 4 3.90508e-09 2 0 0.0994487 -0.150618
131 1 8.90393 2.08699 0.252387 4 4.47841e-09 2 0 0.0994487 0.00243138
132 1 9.77243 2.0246 1.10996 4 1.47761e-08 2 0 0.0994487 0.173457
133 1 8.92671 2.97262 0.928693 4 1.11863e-08 2 0 0.0994487 -0.156774
134 1 9.03062 2.22066 1.70398 4 6.24863e-09 2 0 0.0994487 -0.0819693
135 1 9.56096 2.90576 0.21312 4 1.97612e-08 2 0 0.0994487 0.173119
136 1 10.2834 2.1137 0.214297 4 2.20412e-08 2 0 0.0994487 0.337738
137 1 11.1583 1.82604 0.771092 4 7.04675e-08 2 0 0.0994487 0.260085
138 1 10.6214 2.80819 0.921535 4 8.55489e-08 2 0 0.0994487 0.541912
139 1 11.4444 2.82964 1.57484 4 2.35156e-07 2 0 0.0994487 0.0951971
140 1 12.6737 1.94118 0.593851 4 5.11816e-07 2 0 0.0994487 -0.283936
141 1 11.928 2.64099 0.742299 4 3.74624e-07 2 0 0.0994487 -0.0386768
142 1 11.9239 1.9206 1.46509 4 1.913e-07 2 0 0.0994487 0.0946512
143 1 12.8449 3.01766 1.68597 4 1.33975e-06 2 0 0.0994487 0.0363551
144 1 13.1791 3.03035 0.848852 4 2.24007e-06 2 0 0.0994487 -0.440861
145 1 13.3784 1.9912 1.48064 4 1.034e-06 2 0 0.0994487 -0.0150715
146 1 14.0206 2.44438 0.927124 4 3.24295e-06 2 0 0.0994487 -0.133106
147 1 14.0279 3.38359 1.55716 4 6.86606e-06 2 0 0.0994487 0.0255733
148 1 14.6961 3.43698 0.884932 4 1.50272e-05 2 0 0.0994487 -0.332966
149 1 14.7823 2.29758 1.44821 4 5.76265e-06 2 0 0.0994487 0.0469268
150 1 14.8418 2.51505 0.136557 4 6.67444e-06 2 0 0.0994487 0.173005
151 1 14.1591 3.2262 0.0325348 4 6.52892e-06 2 0 0.0994487 -0.246106
152 1 13.4137 2.29398 0.0590902 4 1.38059e-06 2 0 0.0994487 -0.280962
153 1 15.6993 2.44373 0.692668 4 1.58708e-05 2 0 0.0994487 0.364393
154 1 16.3029 3.20095 0.662084 4 5.34268e-05 2 0 0.0994487 0.328589
155 1 16.308 2.47951 1.52575 4 3.02171e-05 2 0 0.0994487 -0.100646
156 1 15.3694 3.25723 1.50191 4 2.46265e-05 2 0 0.0994487 -0.00766924
157 1 15.5706 3.25854 0.0192499 4 2.15965e-05 2 0 0.0994487 0.290238
158 1 17.0646 2.35032 0.682778 4 4.96165e-05 2 0 0.0994487 0.0234833
159 1 17.944 2.92608 0.699539 4 0.000171658 2 0 0.0994487 -0.231187
160 1 18.0193 2.43917 1.58112 4 0.00011106 2 0 0.0994487 -0.149131
161 1 17.0918 3.1162 1.49491 4 0.000106109 2 0 0.0994487 -0.143432
162 1 18.8908 2.35742 1.01358 4 0.000174746 2 0 0.0994487 -0.516817
163 1 19.7027 3.2427 1.27782 4 0.000600319 2 0 0.0994487 0.394891
164 1 18.884 2.99607 0.196019 4 0.000296262 2 0 0.0994487 -0.171806
165 1 19.587 2.34239 0.101452 4 0.000216628 2 0 0.0994487 -0.132368
166 1 20.3251 1.78863 1.72442 4 0.000157608 2 0 0.0994487 0.0449573
167 1 21.1565 2.41663 0.458355 4 0.000447916 2 0 0.0994487 0.196193
168 1 20.1948 2.46882 1.11433 4 0.000338476 2 0 0.0994487 0.286767
169 1 21.31 3.29463 1.39314 4 0.00127015 2 0 0.0994487 0.0777376
170 1 20.4222 2.99313 0.334941 4 0.000603778 2 0 0.0994487 0.186295
171 1 22.8719 2.07007 1.50872 4 0.000424863 2 0 0.0994487 -0.0221178
172 1 22.9717 2.60199 0.735523 4 0.000844473 2 0 0.0994487 0.133336
173 1 22.0961 2.49917 1.23787 4 0.000660869 2 0 0.0994487 0.186451
174 1 21.9898 3.20043 0.598797 4 0.00140163 2 0 0.0994487 -0.0757393
175 1 22.6771 3.40124 0.07601 4 0.00170162 2 0 0.0994487 0.0760768
176 1 23.7438 1.80844 0.624025 4 0.000305634 2 0 0.0994487 -0.0873533
177 1 24.4289 1.98763 1.61102 4 0.000350565 2 0 0.0994487 -0.0641721
178 1 24.342 2.68296 0.775192 4 0.000774355 2 0 0.0994487 -0.341084
179 1 23.6887 2.90303 1.53628 4 0.0010556 2 0 0.0994487 -0.110499
180 1 24.4728 3.51078 1.55704 4 0.00180432 2 0 0.0994487 -0.118301
181 1 24.9562 2.84566 0.0146836 4 0.00065588 2 0 0.0994487 -0.0864579
182 1 26.5483 1.79415 0.511367 4 0.000130904 2 0 0.0994487 -0.0055979
183 1 25.1322 1.85613 0.509414 4 0.000260697 2 0 0.0994487 -0.0215256
184 1 25.7918 2.61203 0.707489 4 0.000479991 2 0 0.0994487 0.228206
185 1 25.1579 2.55548 1.52547 4 0.000556065 2 0 0.0994487 0.0576701
186 1 25.7213 3.49812 1.51211 4 0.00122405 2 0 0.0994487 0.12386
187 1 26.5364 2.56002 1.53049 4 0.000300919 2 0 0.0994487 0.0579495
188 1 26.1686 3.50068 0.599043 4 0.000991257 2 0 0.0994487 0.168848
189 1 27.5039 1.98546 1.23792 4 8.9196e-05 2 0 0.0994487 -0.186415
190 1 28.2489 2.09022 0.343734 4 5.48248e-05 2 0 0.0994487 -0.0177239
191 1 27.0867 2.6924 0.645359 4 0.000245383 2 0 0.0994487 -0.105598
192 1 27.1998 3.35397 1.41682 4 0.000430868 2 0 0.0994487 -0.0983269
193 1 28.2537 2.75799 1.20639 4 0.000108952 2 0 0.0994487 -0.418305
194 1 27.982 3.21993 0.326384 4 0.000190385 2 0 0.0994487 -0.125256
195 1 29.9568 1.80906 1.70764 4 1.09066e-05 2 0 0.0994487 0.183201
196 1 29.4477 2.04702 0.879698 4 2.23372e-05 2 0 0.0994487 -0.00708164
197 1 29.1956 2.6589 0.290703 4 4.25948e-05 2 0 0.0994487 -0.0578279
198 1 29.2495 3.2651 1.17365 4 7.43604e-05 2 0 0.0994487 0.118635
199 1 30.9114 1.98502 0.924207 4 6.68194e-06 2 0 0.0994487 0.967251
200 1 30.1815 2.71094 1.00186 4 2.06163e-05 2 0 0.0994487 0.675114
201 1 31.0247 3.35309 0.97101 4 1.71978e-05 2 0 0.0994487 0.998409
202 1 30.9865 2.69483 1.72648 4 9.79617e-06 2 0 0.0994487 0.578502
203 1 30.1092 3.25953 0.132205 4 2.75751e-05 2 0 0.0994487 -0.0443657
204 1 30.4116 1.90909 0.0255368 4 7.35391e-06 2 0 0.0994487 0.106045
205 1 31.1434 2.66402 0.0761253 4 7.80608e-06 2 0 0.0994487 0.70882
206 1 0.293831 3.78503 0.918557 4 4.18711e-14 2 0 0.0994487 -0.999347
207 1 0.143046 4.59443 0.482118 4 5.05136e-14 2 0 0.0994487 -0.784494
208 1 1.14036 4.67093 0.986638 4 2.7582e-13 2 0 0.0994487 -0.516756
209 1 0.0884667 5.26681 1.27761 4 6.72466e-14 2 0 0.0994487 -0.887458
210 1 1.04069 3.86421 0.0595682 4 1.08726e-13 2 0 0.0994487 0.0148876
211 1 1.84117 4.04604 0.847105 4 5.96747e-13 2 0 0.0994487 0.0082646
212 1 2.54049 4.85585 1.13748 4 3.0195e-12 2 0 0.0994487 -0.333849
213 1 2.64953 4.14475 0.20674 4 2.12348e-12 2 0 0.0994487 -0.028573
214 1 1.89758 4.96895 0.278386 4 1.07973e-12 2 0 0.0994487 -0.153434
215 1 3.40771 4.86189 0.161635 4 1.08407e-11 2 0 0.0994487 -0.0163893
216 1 3.494 4.07675 0.885909 4 8.39103e-12 2 0 0.0994487 0.0268885
217 1 4.91235 4.00001 1.18344 4 7.23636e-11 2 0 0.0994487 0.0115023
218 1 4.04658 4.88002 1.14639 4 3.39365e-11 2 0 0.0994487 0.264486
219 1 4.26027 4.18509 0.149001 4 2.52999e-11 2 0 0.0994487 0.0377371
220 1 5.00947 4.74001 0.341082 4 1.21903e-10 2 0 0.0994487 0.0765379
221 1 5.77735 3.9378 0.198707 4 1.91476e-10 2 0 0.0994487 0.0260146
222 1 6.48883 3.76611 0.772067 4 6.19576e-10 2 0 0.0994487 0.204549
223 1 5.68025 4.73638 1.02487 4 3.81916e-10 2 0 0.0994487 -0.621702
224 1 6.66321 4.5115 1.6428 4 1.21223e-09 2 0 0.0994487 0.158931
225 1 6.68072 5.1315 0.885352 4 2.15693e-09 2 0 0.0994487 0.206846
226 1 8.1982 3.892 0.700757 4 8.48866e-09 2 0 0.0994487 -0.369905
227 1 7.40842 4.46072 0.5468 4 3.87712e-09 2 0 0.0994487 -0.0252152
228 1 7.39886 3.87029 1.49684 4 2.44299e-09 2 0 0.0994487 0.102575
229 1 8.20004 4.61106 1.48677 4 1.32597e-08 2 0 0.0994487 -0.0118401
230 1 9.8976 3.57792 0.885667 4 6.44531e-08 2 0 0.0994487 0.592754
231 1 9.07913 4.56551 0.821335 4 4.38664e-08 2 0 0.0994487 -0.658551
232 1 9.86266 4.50302 0.126324 4 9.15539e-08 2 0 0.0994487 0.0958637
233 1 9.07829 3.76256 1.49819 4 2.46518e-08 2 0 0.0994487 -0.0708879
234 1 9.86881 4.3462 1.65532 4 1.04877e-07 2 0 0.0994487 -0.0856647
235 1 8.98541 3.86821 0.0631775 4 1.99053e-08 2 0 0.0994487 -0.138755
236 1 11.408 3.64493 0.778297 4 4.58742e-07 2 0 0.0994487 0.202062
237 1 10.5891 4.66652 0.906264 4 3.47653e-07 2 0 0.0994487 0.0450601
238 1 11.3867 4.69403 0.230734 4 8.98463e-07 2 0 0.0994487 -0.0498927
239 1 10.7059 3.56689 1.58785 4 1.75663e-07 2 0 0.0994487 -0.0448522
240 1 11.3652 4.3716 1.70545 4 6.99555e-07 2 0 0.0994487 -0.0798306
241 1 11.3894 5.27213 0.983682 4 1.41815e-06 2 0 0.0994487 -0.674489
242 1 10.5826 3.84888 0.176129 4 1.58489e-07 2 0 0.0994487 0.210464
243 1 12.5168 3.57716 0.814749 4 1.65296e-06 2 0 0.0994487 -0.010581
244 1 12.1916 4.55033 1.00021 4 2.33655e-06 2 0 0.0994487 0.105029
245 1 12.7362 4.99738 1.68903 4 5.10885e-06 2 0 0.0994487 0.191326
246 1 13.2258 4.67863 0.80017 4 8.58637e-06 2 0 0.0994487 -0.00471021
247 1 12.6435 4.61885 0.0632315 4 3.86324e-06 2 0 0.0994487 -0.0335824
248 1 13.9891 4.12825 0.69648 4 1.31593e-05 2 0 0.0994487 -0.430182
249 1 13.4832 4.21781 1.59317 4 7.31025e-06 2 0 0.0994487 0.0820151
250 1 14.2046 5.11838 1.52001 4 3.29386e-05 2 0 0.0994487 -0.0289946
251 1 14.9402 5.01141 0.811699 4 6.45877e-05 2 0 0.0994487 -0.0527731
252 1 14.9642 4.4167 1.59432 4 4.12351e-05 2 0 0.0994487 -0.0635635
253 1 14.1405 4.90647 0.0597868 4 2.40489e-05 2 0 0.0994487 -0.0856966
254 1 14.961 4.19423 0.096508 4 3.08262e-05 2 0 0.0994487 0.0322716
255 1 15.6685 4.06642 0.926277 4 6.33542e-05 2 0 0.0994487 0.872572
256 1 15.8798 4.77595 0.186426 4 0.000120193 2 0 0.0994487 0.165389
257 1 16.5936 4.58036 0.900182 4 0.000226496 2 0 0.0994487 -0.0789721
258 1 16.3184 3.95875 1.6903 4 0.000105342 2 0 0.0994487 -0.0433966
259 1 15.8111 5.05317 1.64084 4 0.000140062 2 0 0.0994487 0.0994993
260 1 17.2689 3.83372 0.811237 4 0.000228083 2 0 0.0994487 -0.34538
261 1 18.0864 4.48855 1.09806 4 0.000693633 2 0 0.0994487 -0.612128
262 1 17.9525 3.63794 1.65602 4 0.000313589 2 0 0.0994487 -0.192803
263 1 17.4569 4.57727 0.0147963 4 0.000370144 2 0 0.0994487 -0.0974079
264 1 18.1348 3.8547 0.0583493 4 0.000366863 2 0 0.0994487 -0.120515
265 1 18.8779 3.70667 0.95022 4 0.000599454 2 0 0.0994487 0.0692665
266 1 18.8235 4.60949 0.361826 4 0.00115746 2 0 0.0994487 0.115614
267 1 19.6906 4.67872 1.0803 4 0.00247023 2 0 0.0994487 0.931537
268 1 18.7859 5.27693 1.20102 4 0.00219126 2 0 0.0994487 0.599174
269 1 19.5987 3.76722 0.227421 4 0.000865009 2 0 0.0994487 0.164273
270 1 20.4384 3.82188 1.23329 4 0.00160691 2 0 0.0994487 0.325968
271 1 20.8846 4.71868 1.39403 4 0.00508816 2 0 0.0994487 0.14907
272 1 21.5775 4.95128 0.810455 4 0.00865501 2 0 0.0994487 -0.003716
273 1 21.0824 3.93136 0.512408 4 0.00231921 2 0 0.0994487 0.0883119
274 1 20.1339 4.78559 0.352846 4 0.00335931 2 0 0.0994487 0.145593
275 1 22.8205 3.63186 1.42135 4 0.00246813 2 0 0.0994487 -0.0183927
276 1 21.9406 4.13318 1.31068 4 0.00389723 2 0 0.0994487 0.0272156
277 1 22.4705 5.17735 1.27286 4 0.0130642 2 0 0.0994487 0.0207225
278 1 22.6119 4.34705 0.510028 4 0.00521228 2 0 0.0994487 -0.0220969
279 1 23.5735 3.63903 0.782677 4 0.00257719 2 0 0.0994487 0.185573
280 1 24.336 4.32055 0.625018 4 0.00471923 2 0 0.0994487 -0.150088
281 1 23.4679 4.54946 1.33355 4 0.00689449 2 0 0.0994487 -0.0790465
282 1 24.8518 5.25716 0.566763 4 0.00946633 2 0 0.0994487 0.0409096
283 1 23.5518 5.06386 0.533607 4 0.0111917 2 0 0.0994487 -0.0968805
284 1 25.0086 4.50055 1.62342 4 0.00441603 2 0 0.0994487 -0.0421931
285 1 25.0629 3.68037 0.802132 4 0.00193291 2 0 0.0994487 -0.18791
286 1 24.363 5.28843 1.43377 4 0.0121273 2 0 0.0994487 -0.154706
287 1 25.6904 5.1389 1.34266 4 0.00602486 2 0 0.0994487 0.210102
288 1 26.3575 4.29031 1.37159 4 0.0018991 2 0 0.0994487 0.149484
289 1 26.5026 4.97257 0.640732 4 0.00306595 2 0 0.0994487 0.0989677
290 1 25.5284 4.40089 0.388179 4 0.00310289 2 0 0.0994487 0.0559491
291 1 27.3302 4.86961 1.40568 4 0.0015762 2 0 0.0994487 0.00660973
292 1 27.9624 3.97641 1.10408 4 0.000430905 2 0 0.0994487 -0.309502
293 1 28.2771 4.73475 0.706344 4 0.000633788 2 0 0.0994487 -0.0812475
294 1 27.0674 4.04323 0.570038 4 0.000913203 2 0 0.0994487 0.0120233
295 1 28.9321 3.77016 0.487204 4 0.00014806 2 0 0.0994487 -0.00703277
296 1 29.0873 4.52317 1.33085 4 0.000254375 2 0 0.0994487 0.057485
297 1 29.9979 4.07209 1.02303 4 7.14824e-05 2 0 0.0994487 -0.275229
298 1 31.0296 3.97382 0.373364 4 2.52492e-05 2 0 0.0994487 0.657583
299 1 30.2046 4.67765 0.491317 4 9.38564e-05 2 0 0.0994487 0.00995772
300 1 30.9783 4.59929 1.41131 4 4.23835e-05 2 0 0.0994487 0.679913
301 1 0.908283 5.53205 0.461647 4 3.01011e-13 2 0 0.0994487 -0.463785
302 1 1.53161 5.51184 1.37971 4 7.84046e-13 2 0 0.0994487 -0.117388
303 1 0.793684 6.22023 1.2768 4 3.48956e-13 2 0 0.0994487 -0.703381
304 1 0.257003 6.91734 1.50738 4 1.88281e-13 2 0 0.0994487 -0.772633
305 1 0.969942 6.9454 0.573423 4 6.85612e-13 2 0 0.0994487 -0.473533
306 1 1.7053 7.02884 1.23811 4 2.23989e-12 2 0 0.0994487 0.0665169
307 1 1.89588 6.19966 0.519025 4 2.22654e-12 2 0 0.0994487 -0.156401
308 1 3.10475 5.61709 1.30057 4 1.14285e-11 2 0 0.0994487 0.040251
309 1 2.26359 6.15348 1.40977 4 3.513e-12 2 0 0.0994487 0.0408552
310 1 3.25442 6.96226 1.12748 4 3.23915e-11 2 0 0.0994487 -0.0541257
311 1 2.68177 5.61289 0.273587 4 5.61644e-12 2 0 0.0994487 -0.0596867
312 1 3.39503 6.28191 0.500536 4 2.91007e-11 2 0 0.0994487 -0.121447
313 1 4.18979 5.46246 0.325783 4 5.76267e-11 2 0 0.0994487 0.0310157
314 1 4.93434 5.42873 1.31778 4 2.063e-10 2 0 0.0994487 -0.235103
315 1 4.13622 6.09659 1.22779 4 8.9795e-11 2 0 0.0994487 -0.0893913
316 1 4.82567 6.23357 0.333842 4 2.49157e-10 2 0 0.0994487 -0.034578
317 1 4.77312 6.79931 1.15967 4 3.75544e-10 2 0 0.0994487 -0.305933
318 1 4.00267 7.02511 0.221759 4 1.02019e-10 2 0 0.0994487 -0.0853454
319 1 5.78575 5.42185 0.301847 4 6.07822e-10 2 0 0.0994487 0.0125002
320 1 5.6935 6.24342 0.9632 4 1.03636e-09 2 0 0.0994487 -0.967779
321 1 6.4578 5.98425 1.59671 4 2.53101e-09 2 0 0.0994487 0.140912
322 1 6.43234 6.86927 1.00965 4 4.63828e-09 2 0 0.0994487 0.851667
323 1 6.37773 6.04115 0.154639 4 1.79287e-09 2 0 0.0994487 0.111111
324 1 5.54993 7.05206 0.147147 4 1.02551e-09 2 0 0.0994487 0.0363848
325 1 8.21355 5.31419 0.694273 4 2.23711e-08 2 0 0.0994487 -0.0895997
326 1 7.32761 6.15925 0.754293 4 1.0531e-08 2 0 0.0994487 0.225726
327 1 7.39163 5.41839 1.49138 4 7.03577e-09 2 0 0.0994487 0.13675
328 1 8.23884 6.11028 1.49159 4 3.82782e-08 2 0 0.0994487 0.0187338
329 1 8.01352 6.85364 0.728993 4 4.3433e-08 2 0 0.0994487 0.0691813
330 1 7.28191 6.86379 1.59601 4 1.58592e-08 2 1 0.0994487 0.126046
331 1 7.33029 5.3575 0.0461812 4 4.71102e-09 2 0 0.0994487 0.0813553
332 1 9.76796 5.3194 0.792562 4 1.74413e-07 2 0 0.0994487 0.328437
333 1 8.88016 6.18865 0.736908 4 9.86599e-08 2 0 0.0994487 -0.235549
334 1 9.05434 5.3271 1.5973 4 6.87335e-08 2 0 0.0994487 -0.0628336
335 1 9.73844 6.19052 1.46731 4 3.14086e-07 2 0 0.0994487 -0.106422
336 1 9.09351 6.95013 1.463 4 2.3281e-07 2 2 0.0994487 -0.0757524
337 1 9.76329 6.23201 0.0941385 4 2.61471e-07 2 0 0.0994487 -0.0359544
338 1 8.99733 5.46479 0.012702 4 5.43701e-08 2 0 0.0994487 -0.134756
339 1 10.5831 6.02196 0.964384 4 8.25956e-07 2 0 0.0994487 -0.356497
340 1 11.3128 6.37134 0.0776634 4 1.71574e-06 2 0 0.0994487 0.100339
341 1 10.5187 6.94145 0.15452 4 9.92474e-07 2 0 0.0994487 -0.0735412
342 1 10.4686 6.92564 1.49614 4 1.31453e-06 2 1 0.0994487 -0.0636004
343 1 11.9994 5.6274 0.183157 4 3.07246e-06 2 0 0.0994487 -0.0105338
344 1 12.6757 5.81849 0.861776 4 9.41978e-06 2 0 0.0994487 0.0817301
345 1 11.7774 6.20735 1.05291 4 3.95344e-06 2 0 0.0994487 0.292161
346 1 13.3219 5.86668 1.55471 4 1.91865e-05 2 0 0.0994487 0.208162
347 1 13.3506 6.58297 0.813679 4 3.4237e-05 2 0 0.0994487 -0.292134
348 1 13.3212 5.53867 0.0424813 4 1.47978e-05 2 0 0.0994487 -0.142914
349 1 14.0617 5.71565 0.77266 4 4.30564e-05 2 0 0.0994487 -0.372739
350 1 14.3278 6.65176 1.40646 4 0.000115741 2 1 0.0994487 -0.103172
351 1 14.1303 6.38483 0.0380077 4 5.4801e-05 2 0 0.0994487 -0.0826134
352 1 15.0282 5.64393 0.034369 4 9.22028e-05 2 0 0.0994487 0.0573609
353 1 15.8305 5.73813 0.95832 4 0.000259583 2 0 0.0994487 0.625779
354 1 15.0472 6.45091 0.806774 4 0.000198809 2 0 0.0994487 -0.176082
355 1 16.491 6.45257 1.1401 4 0.000813579 2 0 0.0994487 0.208304
356 1 15.1058 5.87594 1.69804 4 0.000146663 2 0 0.0994487 -0.0976618
357 1 16.62 5.41933 0.276819 4 0.000376236 2 0 0.0994487 0.0799217
358 1 15.6753 6.3382 0.0390223 4 0.000274031 2 0 0.0994487 0.039848
359 1 17.8271 5.30128 0.541411 4 0.000981508 2 0 0.0994487 0.150331
360 1 17.113 5.42499 1.24767 4 0.000670137 2 0 0.0994487 -0.286573
361 1 17.0619 6.27419 0.411469 4 0.00106122 2 0 0.0994487 0.13895
362 1 17.6649 6.24649 1.38542 4 0.00190567 2 0 0.0994487 -0.254267
363 1 18.2745 7.0517 1.13153 4 0.00519085 2 1 0.0994487 0.631142
364 1 18.3714 6.23173 0.609762 4 0.00323622 2 0 0.0994487 0.156186
365 1 19.429 5.75829 0.62055 4 0.00524194 2 0 0.0994487 0.0571951
366 1 19.3279 6.55755 1.35081 4 0.00929873 2 1 0.0994487 0.274762
367 1 19.9942 6.75229 0.610261 4 0.017078 2 0 0.0994487 -0.011903
368 1 20.7494 5.77593 0.653722 4 0.0128629 2 0 0.0994487 -0.104047
369 1 20.1931 5.61076 1.39557 4 0.00814613 2 0 0.0994487 0.312036
370 1 20.7787 6.6124 1.30355 4 0.0287483 2 1 0.0994487 -0.344472
371 1 21.6592 6.66248 0.666524 4 0.0361625 2 0 0.0994487 -0.0434796
372 1 21.6631 5.87866 1.38528 4 0.0226498 2 0 0.0994487 0.0421096
373 1 21.6904 5.73259 0.0517844 4 0.015052 2 0 0.0994487 -0.00149492
374 1 22.6732 5.8279 0.674154 4 0.0230911 2 0 0.0994487 0.00268148
375 1 22.6319 6.69333 1.20734 4 0.052323 2 1 0.0994487 -0.203985
376 1 23.3484 6.78052 0.267835 4 0.0434548 2 0 0.0994487 -0.125366
377 1 23.4822 5.88496 1.30013 4 0.0268205 2 0 0.0994487 -0.176395
378 1 24.3197 6.56281 1.15825 4 0.0354072 2 0 0.0994487 0.174071
379 1 24.1457 6.00685 0.427617 4 0.0223581 2 0 0.0994487 0.0024425
380 1 25.6831 5.86213 0.700952 4 0.0105402 2 0 0.0994487 0.163898
381 1 25.1124 6.04132 1.67733 4 0.0166211 2 0 0.0994487 0.00366962
382 1 25.1593 6.74159 0.495153 4 0.024577 2 0 0.0994487 0.090392
383 1 25.8251 6.59457 1.40775 4 0.0162533 2 0 0.0994487 0.0881006
384 1 26.6903 5.84511 1.4763 4 0.0055923 2 0 0.0994487 0.0917604
385 1 27.4966 5.54334 0.722172 4 0.00227727 2 0 0.0994487 -0.251575
386 1 26.7485 6.36567 0.651888 4 0.00737726 2 0 0.0994487 0.0387478
387 1 27.7011 6.47315 1.36539 4 0.00374836 2 0 0.0994487 0.131489
388 1 28.3648 5.52203 1.4872 4 0.00105443 2 0 0.0994487 0.0456322
389 1 27.7097 7.0074 0.530173 4 0.00475826 2 0 0.0994487 0.0321188
390 1 29.3889 5.30889 0.818726 4 0.000359209 2 0 0.0994487 0.316728
391 1 29.4379 6.18214 1.32212 4 0.000555956 2 0 0.0994487 -0.00338246
392 1 29.5784 6.89773 0.506505 4 0.000702508 2 0 0.0994487 0.0925841
393 1 28.4685 6.20589 0.638647 4 0.00145268 2 0 0.0994487 -0.270085
394 1 29.3762 6.15398 0.0801838 4 0.000514222 2 0 0.0994487 0.0969258
395 1 28.4822 5.38976 0.0592959 4 0.000702485 2 0 0.0994487 -0.105003
396 1 30.9636 5.36838 0.595026 4 7.91878e-05 2 0 0.0994487 0.66785
397 1 30.2159 5.45949 1.46813 4 0.000157953 2 0 0.0994487 0.0540208
398 1 30.3958 6.18258 0.649752 4 0.000220533 2 0 0.0994487 0.328999
399 1 31.2189 6.15516 1.38439 4 9.2552e-05 2 0 0.0994487 0.587258
400 1 31.1994 6.95407 0.60342 4 0.000146166 2 0 0.0994487 0.812251
401 1 31.7235 5.99622 0.446564 4 5.42784e-05 2 0 0.0994487 0.879729
402 1 0.261851 7.63199 0.661866 4 2.95622e-13 2 0 0.0994487 -0.876374
403 1 0.831025 8.46344 0.61936 4 9.47806e-13 2 0 0.0994487 -0.577626
404 1 1.11211 7.86396 1.49711 4 1.07327e-12 2 0 0.0994487 -0.154429
405 1 0.356955 8.5626 1.47035 4 4.19306e-13 2 0 0.0994487 -0.764984
406 1 1.59266 7.76478 0.37187 4 2.58349e-12 2 0 0.0994487 -0.0897886
407 1 1.72382 8.61735 1.46471 4 4.11556e-12 2 0 0.0994487 0.0395959
408 1 2.48799 7.14986 0.476331 4 9.87598e-12 2 0 0.0994487 -0.0836977
409 1 2.19177 8.6335 0.399707 4 9.63577e-12 2 0 0.0994487 -0.137269
410 1 2.39416 7.81099 1.27726 4 1.05073e-11 2 0 0.0994487 0.0869905
411 1 3.01349 8.51445 0.935533 4 3.92791e-11 2 0 0.0994487 -0.539317
412 1 3.24418 7.77117 0.327041 4 4.23456e-11 2 0 0.0994487 -0.196206
413 1 3.81243 8.45898 0.0822892 4 1.12999e-10 2 0 0.0994487 -0.0457797
414 1 3.97971 7.67009 1.24863 4 1.43838e-10 2 0 0.0994487 -0.055491
415 1 4.70459 8.25653 0.921772 4 5.82928e-10 2 0 0.0994487 0.29532
416 1 4.67023 7.63706 0.247803 4 3.76146e-10 2 0 0.0994487 0.0376899
417 1 3.81127 8.34851 1.76162 4 1.12343e-10 2 0 0.0994487 -0.0574369
418 1 5.86955 8.34822 0.169905 4 2.85019e-09 2 0 0.0994487 0.113104
419 1 5.48363 7.59071 1.03232 4 1.64413e-09 2 0 0.0994487 -0.467672
420 1 6.49365 7.53799 0.169175 4 5.4796e-09 2 0 0.0994487 0.187622
421 1 6.39674 8.23976 1.04384 4 9.05551e-09 2 0 0.0994487 0.338144
422 1 7.28583 7.76918 0.746313 4 2.63011e-08 2 1 0.0994487 0.00993079
423 1 8.2859 8.31376 0.868772 4 1.47368e-07 2 2 0.0994487 0.278758
424 1 7.27857 8.18368 1.7015 4 4.02188e-08 2 2 0.0994487 -0.174667
425 1 8.05208 7.48784 1.5604 4 7.37791e-08 2 1 0.0994487 0.185076
426 1 7.99895 7.60312 0.0282118 4 4.23932e-08 2 0 0.0994487 0.0674116
427 1 9.84313 7.22199 0.72344 4 6.64179e-07 2 1 0.0994487 -0.34694
428 1 8.91207 7.61626 0.661731 4 2.34229e-07 2 1 0.0994487 0.158693
429 1 9.73234 8.61964 0.693151 4 1.12243e-06 2 3 0.0994487 -0.257329
430 1 9.09265 8.69904 1.44495 4 6.44132e-07 2 9 0.0994487 -0.396584
431 1 9.64026 7.88932 1.60055 4 9.59181e-07 2 8 0.0994487 -0.340849
432 1 11.3161 7.14287 0.810636 4 3.85277e-06 2 1 0.0994487 0.448441
433 1 10.5731 7.9454 0.844311 4 2.44767e-06 2 3 0.0994487 -0.198602
434 1 10.5877 8.70196 1.4255 4 4.05996e-06 1 8 0.0994487 -0.145758
435 1 11.4057 7.80503 1.60301 4 7.57638e-06 2 7 0.0994487 0.228624
436 1 11.227 8.11851 0.0422735 4 3.78452e-06 2 0 0.0994487 0.174314
437 1 12.7061 7.28322 0.565784 4 2.35279e-05 2 0 0.0994487 -0.0531291
438 1 12.178 8.23518 0.590765 4 1.87241e-05 2 2 0.0994487 0.164085