ITEM: TIMESTEP
45000
ITEM: NUMBER OF ATOMS
9495
ITEM: BOX BOUNDS mm mm mm
0.0000000000000000e+00 7.5106017912952481e+01
-2.5253280899304404e+00 3.4306769990625064e+01
-1.4204715944896904e+02 3.1748021039364001e+01
ITEM: ATOMS id type x y z c_phase c_temp c_surf c_nbond c_visc f_3[1]
2149 1 64.263 11.9101 -141.392 0 3.57246 2 0 4.53999e-06 -0.564003
2101 1 64.779 12.2938 -140.678 0 3.61498 2 0 4.53999e-06 -0.718355
1924 1 65.0927 11.2842 -140.944 0 3.62025 2 0 4.53999e-06 -0.402406
1561 1 66.1212 11.4503 -141.146 0 3.68521 2 0 4.53999e-06 0.176903
1560 1 65.3218 11.9553 -141.741 0 3.62795 2 0 4.53999e-06 -0.0543634
900 1 65.981 12.2712 -140.633 0 3.70317 1 0 4.53999e-06 -0.194027
3628 1 66.9092 12.1312 -141.195 0 3.81488 2 0 4.53999e-06 0.315786
1201 1 67.821 12.2153 -140.543 0 3.93907 2 0 4.53999e-06 0.457317
4113 1 68.7977 12.5318 -140.692 0 4.33633 2 0 4.53999e-06 0.610396
2453 1 63.2682 12.6779 -141.563 0 3.51681 2 0 4.53999e-06 -0.895535
2454 1 63.7981 12.623 -140.582 0 3.55733 2 0 4.53999e-06 -0.802448
1920 1 64.3197 12.8897 -141.58 0 3.57412 2 0 4.53999e-06 -0.422349
1865 1 64.3637 13.4499 -140.747 0 3.58935 2 0 4.53999e-06 -0.890815
2100 1 63.6133 13.8334 -141.512 0 3.52751 2 0 4.53999e-06 -0.679923
1464 1 64.8357 13.7975 -141.562 0 3.60552 2 0 4.53999e-06 -0.201278
1143 1 65.2797 12.8951 -141.346 0 3.64342 2 0 4.53999e-06 -0.189262
1469 1 65.3307 12.9496 -140.437 0 3.65742 1 0 4.53999e-06 -0.927935
1142 1 65.4168 13.7762 -140.778 0 3.66045 1 0 4.53999e-06 -0.242879
4521 1 65.8791 13.61 -141.861 0 3.6959 2 0 4.53999e-06 0.0141809
1196 1 66.1685 12.6258 -141.55 0 3.72563 2 0 4.53999e-06 0.108399
8451 1 66.1754 13.2268 -140.696 0 3.73738 1 0 4.53999e-06 0.0269826
9332 1 66.4223 14.0909 -141.098 0 3.77884 2 0 4.53999e-06 0.0754449
4544 1 66.9358 13.2881 -141.636 0 3.86602 2 0 4.53999e-06 0.289689
4545 1 66.9389 12.8201 -140.662 0 3.83735 1 0 4.53999e-06 0.502265
4522 1 67.7883 12.6926 -141.457 0 4.24984 2 0 4.53999e-06 0.49857
4130 1 67.9804 13.2422 -140.618 0 4.19247 2 0 4.53999e-06 0.674941
4109 1 67.4627 13.9543 -141.052 0 4.18214 2 0 4.53999e-06 0.507764
2099 1 60.4149 14.8609 -142.044 0 2.96278 3 0 4.53999e-06 -0
6299 1 64.6495 14.4009 -140.427 0 3.59875 2 0 4.53999e-06 -0.453907
2150 1 66.0774 10.9133 -140.194 0 3.67237 2 0 4.53999e-06 -0.0408413
2503 1 65.3292 11.7328 -140.058 0 3.65277 2 0 4.53999e-06 -0.531413
2105 1 66.2746 11.8881 -139.759 0 3.72069 2 0 4.53999e-06 -0.241361
1921 1 66.9556 11.6714 -140.361 0 3.77411 2 0 4.53999e-06 0.301545
1562 1 67.2217 11.3409 -139.391 0 3.77426 2 0 4.53999e-06 -0.0931518
2551 1 66.8397 12.3024 -139.026 0 3.76499 2 0 4.53999e-06 -0.247875
2104 1 67.8305 12.1987 -138.843 0 3.82542 2 0 4.53999e-06 -0.348749
2153 1 68.1552 11.7266 -139.703 0 3.86989 2 0 4.53999e-06 0.0525025
2151 1 68.3299 11.231 -138.719 0 3.81109 2 0 4.53999e-06 -0.43494
1149 1 67.2389 12.5375 -139.907 0 3.83303 1 0 4.53999e-06 0.467892
3630 1 69.1707 11.2448 -139.56 0 3.86147 2 0 4.53999e-06 0.0295411
1928 1 69.1934 11.9703 -138.821 0 3.85734 2 0 4.53999e-06 -0.651728
903 1 69.0158 12.256 -139.734 0 3.94133 2 0 4.53999e-06 0.373253
8992 1 70.0674 12.1112 -139.896 0 3.93768 2 0 4.53999e-06 0.416522
3522 1 70.018 11.5193 -138.999 0 3.85706 2 0 4.53999e-06 0.147089
4125 1 70.9989 11.7519 -138.905 0 3.8858 2 0 4.53999e-06 0.424671
3631 1 70.1293 12.373 -138.904 0 3.89071 2 0 4.53999e-06 0.375375
1870 1 64.6868 13.3316 -139.839 0 3.61436 2 0 4.53999e-06 -0.802412
7200 1 63.7969 14.1176 -139.3 0 3.51823 2 0 4.53999e-06 -0.812378
2460 1 65.5011 12.6311 -139.628 0 3.6719 2 0 4.53999e-06 -0.523464
6588 1 65.1463 13.3142 -138.874 0 3.62843 2 0 4.53999e-06 -0.399261
6032 1 66.2041 13.1525 -139.076 0 3.71499 2 0 4.53999e-06 -0.224419
906 1 65.7938 13.5743 -139.877 0 3.69445 1 0 4.53999e-06 -0.259873
3632 1 66.3733 12.7799 -139.839 0 3.74307 1 0 4.53999e-06 -0.243227
8452 1 66.5858 13.9288 -139.543 0 3.76322 2 0 4.53999e-06 0.0746554
1465 1 65.166 14.1733 -139.544 0 3.6325 2 0 4.53999e-06 -0.245399
2457 1 67.1809 13.1938 -139.339 0 3.8099 1 0 4.53999e-06 0.129036
9330 1 67.0138 13.5767 -140.265 0 3.84349 1 0 4.53999e-06 0.443063
7563 1 67.9581 13.2751 -138.841 0 3.8515 2 0 4.53999e-06 0.112633
9333 1 68.1447 12.8081 -139.75 0 3.93847 1 0 4.53999e-06 0.847191
9222 1 67.8513 13.8567 -139.779 0 3.92106 2 0 4.53999e-06 0.442872
4114 1 68.8716 13.382 -139.978 0 4.27436 2 0 4.53999e-06 0.558935
9329 1 69.6006 12.994 -139.36 0 3.94018 2 0 4.53999e-06 0.309231
3629 1 68.6974 12.7091 -138.988 0 3.88814 2 0 4.53999e-06 -0.0286001
9428 1 71.1242 12.7831 -139.496 0 4.39122 2 0 4.53999e-06 0.593728
6028 1 65.9111 14.4832 -140.276 0 3.69591 2 0 4.53999e-06 -0.0679028
9219 1 66.9735 14.5469 -140.281 0 3.8154 2 0 4.53999e-06 0.267012
1008 1 70.7518 10.4154 -137.495 0 3.80318 2 0 4.53999e-06 -0.499926
4587 1 71.2624 10.802 -138.455 0 3.83754 2 0 4.53999e-06 0.111318
3519 1 71.7355 10.8567 -137.511 0 3.87901 2 0 4.53999e-06 -0.0803044
3870 1 73.5603 10.8041 -137.428 0 4.37961 2 0 4.53999e-06 0.510821
952 1 69.3761 11.0077 -138.397 0 3.81568 2 0 4.53999e-06 -0.254518
2547 1 68.9308 11.7507 -137.737 0 3.80142 2 0 4.53999e-06 -0.380538
1866 1 69.9669 11.9723 -138.193 0 3.84396 2 0 4.53999e-06 -0.560975
1922 1 70.4274 11.2012 -138.175 0 3.83206 2 0 4.53999e-06 -0.414659
1148 1 71.2551 11.5325 -137.978 0 3.86194 1 0 4.53999e-06 -0.172599
7205 1 70.6034 11.8339 -137.514 0 3.83866 2 0 4.53999e-06 -0.714461
6608 1 71.368 12.2682 -137.436 0 3.86959 1 0 4.53999e-06 -0.28388
1466 1 70.8205 12.3543 -138.257 0 3.87192 2 0 4.53999e-06 0.270237
4548 1 72.0912 11.4009 -138.224 0 3.90912 2 0 4.53999e-06 0.415271
4520 1 72.6817 11.1846 -137.475 0 3.99218 1 0 4.53999e-06 0.384958
9218 1 72.8237 12.0922 -138.065 0 4.21977 2 0 4.53999e-06 0.526425
1869 1 72.0172 11.7512 -137.46 0 3.91798 1 0 4.53999e-06 0.0603984
9220 1 72.8449 11.9264 -137.15 0 4.00593 1 0 4.53999e-06 0.537904
9334 1 71.7896 12.3242 -138.286 0 3.90851 2 0 4.53999e-06 0.38096
8739 1 73.8315 11.8183 -137.316 0 4.38576 2 0 4.53999e-06 0.714761
6967 1 66.9218 13.2252 -138.13 0 3.72637 2 0 4.53999e-06 -0.195923
6973 1 68.3817 12.664 -137.992 0 3.81277 2 0 4.53999e-06 -0.286692
7556 1 69.4584 12.7692 -138.321 0 3.85512 2 0 4.53999e-06 -0.224554
8449 1 70.4761 13.2922 -138.621 0 3.90678 2 0 4.53999e-06 0.236049
6298 1 70.2934 12.8294 -137.565 0 3.83228 2 0 4.53999e-06 -0.263659
7557 1 72.2822 12.6497 -137.283 0 3.92639 2 0 4.53999e-06 0.072028
1195 1 71.5344 10.4037 -136.599 0 3.85191 2 0 4.53999e-06 -0.454881
4325 1 72.6352 10.4662 -136.857 0 3.97587 2 0 4.53999e-06 0.0468686
4417 1 73.2131 10.501 -135.946 0 4.05535 2 0 4.53999e-06 -0.0278791
4227 1 74.5749 10.7158 -135.88 0 4.50789 2 0 4.53999e-06 0.812542
1199 1 71.2024 11.3676 -136.944 0 3.85738 1 0 4.53999e-06 -0.752766
6604 1 70.954 12.3678 -136.527 0 3.82711 2 0 4.53999e-06 -0.601662
7203 1 71.8819 11.9966 -136.696 0 3.90528 1 0 4.53999e-06 -0.653446
954 1 72.1389 11.2485 -136.808 0 3.93148 1 0 4.53999e-06 -0.572747
8448 1 73.019 11.242 -136.615 0 4.03841 1 0 4.53999e-06 0.494787
7204 1 72.6605 11.7569 -136.398 0 3.97994 1 0 4.53999e-06 -0.306531
1976 1 72.2965 10.9038 -136.044 0 3.94782 2 0 4.53999e-06 -0.507116
7202 1 72.0137 11.7712 -135.77 0 3.91598 2 0 4.53999e-06 -0.745743
2553 1 72.9487 11.3606 -135.71 0 4.01819 1 0 4.53999e-06 -0.417527
6030 1 73.1483 12.2566 -135.689 0 4.00855 2 0 4.53999e-06 0.180659
7555 1 73.5786 11.8193 -136.342 0 4.10695 1 0 4.53999e-06 0.783097
4519 1 73.8197 10.9932 -136.5 0 4.32697 2 0 4.53999e-06 0.6882
3213 1 74.6341 11.6237 -136.455 0 4.5676 2 0 4.53999e-06 0.917109
4518 1 73.7442 11.2654 -135.647 0 4.13273 1 0 4.53999e-06 0.882608
9221 1 74.1949 12.092 -135.644 0 4.37761 2 0 4.53999e-06 0.675639
9171 1 73.2084 12.5639 -136.668 0 4.00678 2 0 4.53999e-06 0.405725
6027 1 72.3819 12.5485 -136.22 0 3.92392 2 0 4.53999e-06 -0.245412
4588 1 73.9264 10.377 -135.166 0 4.1164 2 0 4.53999e-06 0.207312
1010 1 74.0441 10.7933 -134.188 0 4.09868 2 0 4.53999e-06 0.213371
955 1 73.2234 10.9342 -134.866 0 4.0382 2 0 4.53999e-06 -0.596134
6908 1 72.6978 11.7643 -135.011 0 3.96966 2 0 4.53999e-06 -0.579998
2656 1 73.4977 11.4251 -134.017 0 4.04109 2 0 4.53999e-06 -0.891693
6304 1 73.6275 11.8124 -134.91 0 4.07693 2 0 4.53999e-06 0.11182
902 1 74.3269 11.7635 -134.144 0 4.1266 2 0 4.53999e-06 0.467059
4546 1 74.9547 10.9752 -133.926 0 4.4321 2 0 4.53999e-06 0.87634
3520 1 74.4039 11.2449 -134.982 0 4.35591 2 0 4.53999e-06 0.999601
7474 1 72.3316 12.7287 -135.176 0 3.86888 2 0 4.53999e-06 -0.351941
1253 1 73.1897 10.5079 -133.615 0 3.96411 2 0 4.53999e-06 -0.640427
2598 1 73.7946 10.8478 -132.714 0 4.04163 2 0 4.53999e-06 -0.538904
901 1 74.6699 10.8497 -132.916 0 4.29745 2 0 4.53999e-06 0.599262
7373 1 73.1074 11.4481 -133.028 0 3.97749 2 0 4.53999e-06 -0.980671
6970 1 73.8795 11.4433 -132.223 0 4.03648 2 0 4.53999e-06 -0.945793
2599 1 74.358 10.934 -132.022 0 4.0531 2 0 4.53999e-06 0.188461
2552 1 74.0892 11.3179 -133.296 0 4.09466 2 0 4.53999e-06 -0.243909
4516 1 74.5203 11.5343 -132.58 0 4.22504 2 0 4.53999e-06 0.762134
8944 1 74.8805 11.8035 -133.327 0 4.36269 2 0 4.53999e-06 0.75872
8547 1 73.8961 12.0227 -132.884 0 4.04978 2 0 4.53999e-06 -0.359291
4420 1 74.4633 10.6343 -131.272 0 4.0086 2 0 4.53999e-06 0.274826
3873 1 75.1028 11.3073 -132.015 0 4.2553 2 0 4.53999e-06 0.990487
9122 1 74.477 12.0773 -132.016 0 4.0434 2 0 4.53999e-06 0.304475
6450 1 73.4696 11.6495 -130.924 0 3.9676 2 0 4.53999e-06 -0.912866
6297 1 73.8318 11.7889 -131.596 0 4.00039 2 0 4.53999e-06 -0.662637
4547 1 74.8739 11.3194 -131.042 0 4.15832 2 0 4.53999e-06 0.999752
6301 1 74.4827 11.4785 -131.559 0 4.12256 2 0 4.53999e-06 0.841983
7152 1 73.8062 11.055 -131.423 0 3.99837 2 0 4.53999e-06 -0.777916
3425 1 73.6721 11.0237 -130.592 0 3.9817 2 0 4.53999e-06 -0.826074
1926 1 74.2745 11.0779 -130.79 0 4.00891 1 0 4.53999e-06 0.278132
8546 1 74.5757 11.6533 -130.373 0 4.01208 1 0 4.53999e-06 0.768014
6245 1 74.2376 11.855 -130.96 0 3.99816 1 0 4.53999e-06 0.111445
4630 1 74.1297 10.6322 -130.177 0 3.99556 2 0 4.53999e-06 -0.0498354
4591 1 74.1932 10.8288 -129.271 0 4.01808 2 0 4.53999e-06 0.21458
6905 1 73.2242 11.3267 -128.88 0 3.99592 2 0 4.53999e-06 -0.970675
6240 1 73.4035 11.9432 -129.566 0 3.97475 2 0 4.53999e-06 -0.755816
8989 1 74.85 10.9577 -130.24 0 4.16304 2 0 4.53999e-06 0.867983
7376 1 73.8506 11.6533 -130.302 0 3.9882 1 0 4.53999e-06 -0.65245
6972 1 74.2463 11.2533 -129.889 0 4.10588 2 0 4.53999e-06 0.608078
7662 1 74.1962 11.9284 -129.718 0 4.00301 2 0 4.53999e-06 0.23397
1255 1 73.5517 11.1551 -129.765 0 3.9859 2 0 4.53999e-06 -0.890291
9168 1 74.7849 11.4838 -129.361 0 4.19043 2 0 4.53999e-06 0.932287
6590 1 73.9407 11.4617 -129.109 0 4.02243 2 0 4.53999e-06 -0.258713
9169 1 74.1134 12.1245 -128.856 0 4.03375 2 0 4.53999e-06 0.243446
4229 1 73.2799 10.7133 -127.347 0 4.01093 2 0 4.53999e-06 -0.153231
7374 1 73.1202 11.5373 -127.529 0 4.03785 2 0 4.53999e-06 -0.79492
9429 1 73.348 12.337 -127.454 0 4.05492 2 0 4.53999e-06 -0.191229
1923 1 73.7407 10.9533 -128.276 0 4.04371 2 0 4.53999e-06 -0.084186
9331 1 74.443 11.4321 -128.406 0 4.24768 2 0 4.53999e-06 0.904034
6605 1 73.5886 11.8064 -128.239 0 4.05901 2 0 4.53999e-06 -0.623501
8447 1 73.9214 11.377 -127.467 0 4.26031 2 0 4.53999e-06 0.805951
9123 1 74.2306 12.1125 -127.697 0 4.32654 2 0 4.53999e-06 0.724745
2452 1 71.5636 11.2116 -125.739 0 3.73558 2 0 4.53999e-06 -0.684176
1566 1 71.5556 12.0392 -125.46 0 3.71569 2 0 4.53999e-06 -0.808858
1685 1 72.5147 11.1354 -126.719 0 3.92597 2 0 4.53999e-06 -0.585925
6907 1 72.7658 11.9265 -126.85 0 3.97719 2 0 4.53999e-06 -0.631851
6513 1 71.9639 11.888 -126.449 0 3.83952 2 0 4.53999e-06 -0.768565
4326 1 73.0487 11.0225 -126.037 0 3.95792 2 0 4.53999e-06 0.232549
1569 1 72.3737 11.4826 -125.845 0 3.86578 2 0 4.53999e-06 -0.563084
1563 1 73.0604 11.8418 -126.102 0 4.10154 2 0 4.53999e-06 0.719225
2548 1 72.3602 12.2573 -125.786 0 3.85192 2 0 4.53999e-06 -0.273424
9224 1 73.1065 12.3877 -125.405 0 4.09668 2 0 4.53999e-06 0.5228
3521 1 73.4179 11.3398 -126.729 0 4.05338 2 0 4.53999e-06 0.466955
3872 1 74.5193 11.4318 -126.742 0 4.46119 2 0 4.53999e-06 0.935721
7554 1 73.7364 12.0569 -126.756 0 4.24578 2 0 4.53999e-06 0.711709
4515 1 73.8439 11.6086 -125.949 0 4.26659 2 0 4.53999e-06 0.84504
7559 1 73.0337 12.5876 -126.39 0 3.96783 2 0 4.53999e-06 0.0736971
2201 1 70.7355 11.6848 -124.988 0 3.62327 2 0 4.53999e-06 -0.841649
4330 1 71.5757 11.2954 -124.739 0 3.67394 2 0 4.53999e-06 -0.162819
6303 1 71.5533 12.1973 -124.484 0 3.65564 2 0 4.53999e-06 0.400648
1567 1 70.5298 12.3106 -124.222 0 3.64608 2 0 4.53999e-06 -0.913016
4228 1 71.0293 11.6539 -123.906 0 3.629 2 0 4.53999e-06 0.0893462
1259 1 72.3448 10.9745 -125.201 0 3.79446 2 0 4.53999e-06 0.0557419
4331 1 73.1078 11.5072 -125.269 0 4.10061 2 0 4.53999e-06 0.57738
1198 1 72.321 11.8833 -124.952 0 3.78159 2 0 4.53999e-06 0.353007
9223 1 69.6592 12.7353 -123.877 0 3.67411 2 0 4.53999e-06 -0.37062
6031 1 70.9784 12.6612 -125.041 0 3.62752 2 0 4.53999e-06 -0.508339
8600 1 71.0628 12.9845 -124.073 0 3.63896 2 0 4.53999e-06 0.406373
8945 1 72.0365 12.8021 -125.079 0 3.71113 2 0 4.53999e-06 0.160115
1688 1 67.7993 12.4032 -122.938 0 3.54006 2 0 4.53999e-06 -0.601725
1257 1 67.7893 12.4648 -121.999 0 3.53484 2 0 4.53999e-06 -0.415613
1011 1 68.3332 11.8453 -122.433 0 3.59415 2 0 4.53999e-06 -0.0553903
4419 1 69.777 11.9866 -123.359 0 3.69542 2 0 4.53999e-06 0.0863154
2154 1 68.8177 12.316 -123.277 0 3.65507 2 0 4.53999e-06 -0.296627
4328 1 69.225 12.1509 -122.442 0 3.89953 2 0 4.53999e-06 0.581358
7377 1 67.5405 13.126 -122.349 0 3.5028 2 0 4.53999e-06 -0.524038
3876 1 70.0909 13.4666 -123.445 0 3.67913 2 0 4.53999e-06 0.285648
6243 1 68.9399 13.3002 -123.27 0 3.65733 2 0 4.53999e-06 -0.246205
1467 1 68.461 12.8433 -122.629 0 3.62924 2 0 4.53999e-06 -0.145474
4551 1 69.5933 12.7891 -122.933 0 3.90075 2 0 4.53999e-06 0.811781
3641 1 69.1525 13.1409 -122.205 0 3.89936 2 0 4.53999e-06 0.630118
4549 1 70.5172 12.5738 -123.312 0 3.92693 2 0 4.53999e-06 0.693638
1681 1 66.2345 12.1039 -121.127 0 3.26798 2 0 4.53999e-06 -0.510032
1313 1 67.7482 11.9634 -121.349 0 3.49052 2 0 4.53999e-06 0.198662
2202 1 67.053 12.4661 -121.55 0 3.41895 2 0 4.53999e-06 -0.4871
3422 1 66.9632 12.2299 -120.746 0 3.3682 2 0 4.53999e-06 0.0719174
3966 1 67.7149 12.4697 -120.637 0 3.62051 2 0 4.53999e-06 0.689649
4232 1 68.5929 12.4725 -121.844 0 3.78014 2 0 4.53999e-06 0.7468
6237 1 65.7306 12.8607 -121.037 0 3.21898 2 0 4.53999e-06 -0.811161
7151 1 66.5801 12.9961 -121.092 0 3.33326 2 0 4.53999e-06 -0.567536
9126 1 66.0606 13.5659 -120.562 0 3.22996 2 0 4.53999e-06 -0.534842
2208 1 66.3423 12.6016 -120.407 0 3.277 2 0 4.53999e-06 -0.654661
7558 1 68.2406 13.3055 -121.874 0 3.57641 2 0 4.53999e-06 0.357074
6242 1 66.9088 13.8295 -120.947 0 3.3449 2 0 4.53999e-06 -0.0401956
7472 1 67.3863 13.185 -121.497 0 3.46488 2 0 4.53999e-06 -0.161127
904 1 68.0832 12.804 -121.241 0 3.68199 2 0 4.53999e-06 0.861477
4416 1 67.245 13.005 -120.756 0 3.53187 2 0 4.53999e-06 0.657156
9120 1 67.8752 13.5915 -120.815 0 3.68969 2 0 4.53999e-06 0.569615
1684 1 66.2947 11.9311 -119.967 0 3.22712 2 0 4.53999e-06 -0.126526
2655 1 65.575 12.381 -119.392 0 3.17531 2 0 4.53999e-06 -0.384164
4631 1 67.142 12.4932 -119.918 0 3.51547 2 0 4.53999e-06 0.536957
7150 1 64.6409 12.8999 -119.511 0 3.15607 2 0 4.53999e-06 -0.935783
7475 1 65.6858 12.8725 -120.138 0 3.19907 2 0 4.53999e-06 -0.999559
9172 1 65.5676 13.3408 -119.423 0 3.16498 2 0 4.53999e-06 -0.428475
956 1 66.3885 12.8315 -119.52 0 3.2253 2 0 4.53999e-06 0.225779
8943 1 66.3634 13.7656 -119.717 0 3.19635 2 0 4.53999e-06 0.0841486
7657 1 66.786 13.2277 -120.225 0 3.31114 2 0 4.53999e-06 0.33565
1929 1 63.1629 12.2852 -117.216 0 3.34697 2 0 4.53999e-06 0.229325
7553 1 63.9997 12.3302 -117.785 0 3.51388 2 0 4.53999e-06 0.542178
6968 1 62.5616 12.8357 -117.464 0 3.29111 2 0 4.53999e-06 -0.318606
8686 1 62.0696 13.6798 -117.27 0 3.23422 2 0 4.53999e-06 -0.475108
8595 1 63.0021 13.5632 -117.199 0 3.3078 2 0 4.53999e-06 0.297793
8544 1 63.2753 12.9827 -117.892 0 3.3244 2 0 4.53999e-06 0.0283913
8898 1 64.0929 13.2449 -118.471 0 3.27862 2 0 4.53999e-06 -0.00314973
3640 1 65.01 12.7274 -118.503 0 3.36904 2 0 4.53999e-06 0.403968
4590 1 63.9141 13.1257 -117.296 0 3.58214 2 0 4.53999e-06 0.88935
2597 1 61.7309 12.4305 -116.28 0 3.22799 2 0 4.53999e-06 -0.793039
2205 1 62.4669 12.4506 -116.751 0 3.29171 2 0 4.53999e-06 -0.219906
1683 1 62.4469 11.9782 -116.119 0 3.26664 2 0 4.53999e-06 0.0474019
1258 1 61.9498 12.2223 -115.428 0 3.20184 2 0 4.53999e-06 -0.208942
4633 1 63.0092 12.4855 -116.348 0 3.44842 2 0 4.53999e-06 0.703126
1056 1 63.9072 12.3574 -116.611 0 3.64205 2 0 4.53999e-06 0.836814
6455 1 58.4027 12.8304 -115.419 0 2.92758 3 0 4.53999e-06 -0.524603
1197 1 61.6111 12.9606 -115.632 0 3.19291 2 0 4.53999e-06 -0.929544
6509 1 61.9028 12.8868 -116.893 0 3.24941 2 0 4.53999e-06 -0.803991
6305 1 62.5381 13.1383 -116.788 0 3.29148 2 0 4.53999e-06 -0.107272
9227 1 63.2644 12.9565 -116.85 0 3.47241 2 0 4.53999e-06 0.970295
7658 1 61.79 13.3418 -116.308 0 3.22878 2 0 4.53999e-06 -0.783964
3281 1 62.4643 13.6677 -116.407 0 3.26419 2 0 4.53999e-06 0.0473104
953 1 62.2383 12.7669 -116.044 0 3.26021 2 0 4.53999e-06 -0.45592
3922 1 62.7033 12.6358 -115.582 0 3.40682 2 0 4.53999e-06 0.591662
3643 1 62.3006 13.3722 -115.637 0 3.23387 2 0 4.53999e-06 0.153189
4121 1 62.9175 13.1487 -116.167 0 3.42386 2 0 4.53999e-06 0.711774
6591 1 61.1196 12.5237 -115.042 0 3.11697 2 0 4.53999e-06 -0.854216
6512 1 61.4306 13.5967 -114.998 0 3.11585 2 0 4.53999e-06 -0.453664
3523 1 61.4005 12.8559 -114.124 0 3.0935 2 0 4.53999e-06 -0.222972
1565 1 62.1266 12.9065 -114.88 0 3.17028 2 0 4.53999e-06 0.29602
9170 1 59.6524 14.3475 -114.412 0 3.44223 3 0 4.53999e-06 -0.275911
3874 1 60.4349 11.4391 -113.047 0 4.36257 3 0 4.53999e-06 0.275356
6694 1 57.9397 13.7993 -112.384 0 3.86101 2 0 4.53999e-06 -0.142514
2652 1 58.1785 12.9302 -112.316 0 3.91505 2 0 4.53999e-06 -0.00398661
8543 1 58.8136 13.0994 -113.027 0 3.97706 2 0 4.53999e-06 0.148511
8838 1 59.6403 13.3992 -112.484 0 4.42839 2 0 4.53999e-06 0.927867
4593 1 59.0972 12.5635 -112.09 0 4.29668 2 0 4.53999e-06 0.689958
2449 1 57.6147 12.3665 -111.692 0 3.81965 2 0 4.53999e-06 -0.108782
1256 1 57.0101 12.3939 -110.747 0 3.731 2 0 4.53999e-06 -0.321692
1260 1 56.3437 13.024 -110.671 0 3.67463 2 0 4.53999e-06 -0.945446
7149 1 56.4786 14.0557 -110.898 0 3.66837 2 0 4.53999e-06 -0.648878
2152 1 57.713 13.2016 -111.725 0 3.84557 2 0 4.53999e-06 -0.134884
2199 1 56.8564 12.9714 -111.585 0 3.74799 2 0 4.53999e-06 -0.710234
6974 1 57.229 13.7021 -111.491 0 3.77769 2 0 4.53999e-06 -0.437065
7656 1 58.036 13.8357 -111.492 0 3.85911 2 0 4.53999e-06 0.375507
4124 1 58.3587 12.8495 -111.548 0 4.05282 2 0 4.53999e-06 0.76897
1261 1 57.3908 12.9204 -111.15 0 3.79751 2 0 4.53999e-06 -0.312007
9226 1 57.7854 13.4122 -110.868 0 3.93046 2 0 4.53999e-06 0.716198
4225 1 57.9566 12.6804 -110.887 0 3.9731 2 0 4.53999e-06 0.520417
6302 1 56.9128 13.3541 -110.893 0 3.73905 2 0 4.53999e-06 -0.969456
4424 1 57.4702 13.035 -110.351 0 3.77023 2 0 4.53999e-06 0.270108
6906 1 57.4444 13.9401 -110.783 0 3.77474 2 0 4.53999e-06 0.071653
8946 1 58.7978 13.5438 -111.939 0 4.16627 2 0 4.53999e-06 0.807886
8897 1 58.4523 13.3786 -111.009 0 4.04449 2 0 4.53999e-06 0.904287
6606 1 56.112 13.7154 -109.943 0 3.59285 2 0 4.53999e-06 -0.801479
8497 1 57.0265 13.6217 -110.234 0 3.71487 2 0 4.53999e-06 -0.264902
8317 1 58.0757 13.7015 -109.98 0 4.03032 2 0 4.53999e-06 0.626092
4418 1 56.7697 12.8626 -109.918 0 3.66608 2 0 4.53999e-06 -0.356179
8270 1 57.1631 13.606 -109.31 0 3.62537 2 0 4.53999e-06 0.0560392
6508 1 51.787 12.4381 -104.665 0 3.52713 3 0 4.53999e-06 -0.00901998
6452 1 54.9621 11.8029 -104.976 0 2.8957 3 0 4.53999e-06 -0
8450 1 54.1557 14.832 -104.212 0 6.06513 3 0 4.53999e-06 0.749221
9128 1 51.0113 13.5698 -102.498 0 3.71239 2 0 4.53999e-06 -0.703066
8263 1 51.7057 13.8364 -101.959 0 3.7651 2 0 4.53999e-06 0.141893
2456 1 51.8124 12.8533 -102.253 0 3.73625 2 0 4.53999e-06 0.131707
8444 1 51.8654 13.6804 -102.863 0 3.75275 2 0 4.53999e-06 0.238173
2600 1 52.3599 13.5691 -102.112 0 3.94162 2 0 4.53999e-06 0.837128
8500 1 51.249 14.4782 -102.874 0 3.71134 2 0 4.53999e-06 -0.351881
1691 1 52.0801 14.4458 -102.277 0 3.94555 2 0 4.53999e-06 0.506712
3220 1 50.9235 13.5742 -101.068 0 3.70753 2 0 4.53999e-06 -0.946463
6241 1 51.3842 13.3239 -101.706 0 3.73951 2 0 4.53999e-06 -0.47137
8314 1 51.1069 13.9893 -101.71 0 3.73023 2 0 4.53999e-06 -0.894702
6185 1 51.4615 12.8811 -101.043 0 3.7154 2 0 4.53999e-06 -0.144526
8738 1 51.5998 13.6225 -101.085 0 3.74575 1 0 4.53999e-06 -0.0290836
8316 1 51.3366 14.1681 -101.076 0 3.73207 1 0 4.53999e-06 -0.61744
7660 1 51.0144 13.2864 -100.301 0 3.6796 2 0 4.53999e-06 -0.614116
8990 1 51.4581 13.9271 -100.36 0 3.71897 2 0 4.53999e-06 -0.250941
2458 1 52.0813 13.3552 -101.405 0 3.88365 2 0 4.53999e-06 0.721532
4415 1 52.0982 13.8965 -100.797 0 3.87486 2 0 4.53999e-06 0.885127
4324 1 52.4739 14.0595 -101.437 0 3.93638 2 0 4.53999e-06 0.963251
9427 1 51.9061 13.2706 -100.416 0 3.72851 2 0 4.53999e-06 0.443703
3207 1 50.7189 14.3308 -100.557 0 3.67319 2 0 4.53999e-06 -0.84235
3217 1 51.2991 14.7303 -101.883 0 3.72927 2 0 4.53999e-06 -0.357441
3967 1 51.7943 14.5793 -100.701 0 3.73858 2 0 4.53999e-06 0.257343
3970 1 51.828 14.2703 -101.474 0 3.76576 2 0 4.53999e-06 0.402489
8442 1 51.5381 13.5805 -99.4578 0 3.66261 2 0 4.53999e-06 -0.0421863
2212 1 52.3163 14.1163 -99.9106 0 3.96398 2 0 4.53999e-06 0.729701
4116 1 51.3741 14.5979 -99.7887 0 3.6737 2 0 4.53999e-06 -0.195456
3692 1 49.7534 14.405 -98.2596 0 3.33241 3 0 4.53999e-06 -0.79701
1973 1 52.5027 15.5045 -97.7073 0 5.21193 3 0 4.53999e-06 0.919721
3212 1 48.627 15.1659 -95.9999 0 3.80888 2 0 4.53999e-06 -0.358441
7653 1 49.4139 15.8785 -96.3858 0 3.85435 2 0 4.53999e-06 0.366937
8213 1 49.4782 15.4767 -95.472 0 4.1492 2 0 4.53999e-06 0.801258
8102 1 48.0288 14.8613 -94.3703 0 3.81464 2 0 4.53999e-06 -0.625148
8684 1 48.3348 15.4918 -94.8648 0 3.86997 2 0 4.53999e-06 -0.666287
3740 1 47.6936 15.6668 -94.2104 0 3.8012 2 0 4.53999e-06 -0.889558
8269 1 48.7327 14.822 -95.0925 0 3.87142 2 0 4.53999e-06 -0.0568731
9225 1 49.0853 15.7954 -94.7272 0 4.07652 2 0 4.53999e-06 0.688687
6182 1 49.3559 14.6895 -93.6407 0 4.06593 2 0 4.53999e-06 0.764681
8267 1 48.4702 14.4702 -93.6784 0 3.81973 2 0 4.53999e-06 -0.00378563
9125 1 48.7871 15.0338 -94.2194 0 3.89028 1 0 4.53999e-06 0.364833
3514 1 48.4429 15.7222 -94.0334 0 3.8715 1 0 4.53999e-06 -0.372359
5917 1 49.4181 15.0486 -94.6525 0 4.10156 2 0 4.53999e-06 0.816572
6033 1 49.4131 15.5314 -93.9894 0 4.08396 2 0 4.53999e-06 0.975355
1974 1 47.466 15.1065 -92.6933 0 3.72111 2 0 4.53999e-06 -0.930669
3920 1 47.6655 14.9884 -93.5656 0 3.7728 2 0 4.53999e-06 -0.907895
8315 1 47.9923 14.4058 -92.8518 0 3.73895 2 0 4.53999e-06 -0.275007
8948 1 48.3466 15.1745 -93.58 0 3.83866 1 0 4.53999e-06 -0.556247
8596 1 48.1951 15.3592 -92.9169 0 3.80258 2 0 4.53999e-06 -0.297875
8268 1 48.4009 14.7892 -91.9519 0 3.71529 2 0 4.53999e-06 0.323639
2102 1 47.8718 15.6868 -92.0831 0 3.72098 2 0 4.53999e-06 -0.302968
4014 1 47.5972 15.8589 -93.3361 0 3.76989 2 0 4.53999e-06 -0.783201
7661 1 48.7782 14.8148 -92.9088 0 3.9488 2 0 4.53999e-06 0.576724
6515 1 49.0172 15.5019 -93.3247 0 4.01521 2 0 4.53999e-06 0.806619
7106 1 48.8153 15.6775 -92.4449 0 4.02846 2 0 4.53999e-06 0.533589
3423 1 47.3738 14.4724 -91.8653 0 3.62223 2 0 4.53999e-06 -0.597327
8264 1 48.2282 13.9678 -90.0279 0 3.5583 3 0 4.53999e-06 0.537474
4673 1 46.887 15.5256 -89.4447 0 3.58593 3 0 4.53999e-06 -0.208918
2994 1 47.0222 13.9319 -87.6374 0 3.62023 2 0 4.53999e-06 0.223468
3738 1 45.6751 14.636 -87.0764 0 3.5698 2 0 4.53999e-06 -0.746763
3642 1 46.6891 14.8689 -88.1959 0 3.65211 2 0 4.53999e-06 -0.315826
4634 1 46.3816 14.924 -87.3891 0 3.6326 2 0 4.53999e-06 -0.457918
1687 1 46.4019 15.7441 -87.1913 0 3.63544 2 0 4.53999e-06 -0.299085
4230 1 47.7319 14.8937 -88.4121 0 4.01777 2 0 4.53999e-06 0.735966
9425 1 47.1859 14.9127 -87.5215 0 3.83931 2 0 4.53999e-06 0.752503
1925 1 47.03 15.761 -87.9601 0 3.68112 2 0 4.53999e-06 0.0950526
5918 1 47.7761 15.4728 -87.323 0 3.97356 2 0 4.53999e-06 0.930233
8056 1 45.9976 13.9169 -85.5214 0 3.55521 2 0 4.53999e-06 -0.032633
8101 1 46.4486 14.3509 -86.8763 0 3.6142 2 0 4.53999e-06 -0.016315
909 1 46.72 15.161 -86.869 0 3.65399 1 0 4.53999e-06 0.598011
8740 1 45.2236 14.437 -85.6525 0 3.54161 2 0 4.53999e-06 -0.856699
3278 1 45.3248 15.2786 -86.2087 0 3.55331 2 0 4.53999e-06 -0.873837
3923 1 45.8174 14.4117 -86.3048 0 3.57431 2 0 4.53999e-06 -0.58319
3737 1 45.9985 15.0847 -86.6169 0 3.59948 1 0 4.53999e-06 -0.772537
3921 1 45.863 14.8453 -85.7617 0 3.58855 1 0 4.53999e-06 -0.868236
8837 1 46.5322 14.375 -86.1234 0 3.60625 1 0 4.53999e-06 0.443615
3517 1 46.3957 15.0555 -85.8774 0 3.61972 1 0 4.53999e-06 0.661684
3793 1 46.2896 15.5805 -86.3062 0 3.62019 1 0 4.53999e-06 -0.124088
9426 1 46.4585 14.6386 -85.3114 0 3.73235 2 0 4.53999e-06 0.608525
2555 1 45.9187 15.5037 -85.5146 0 3.60291 2 0 4.53999e-06 -0.286745
6188 1 47.1938 14.5917 -86.7914 0 3.80565 2 0 4.53999e-06 0.836179
6689 1 47.1821 15.719 -86.6275 0 3.85053 2 0 4.53999e-06 0.646784
8899 1 46.8691 15.0018 -86.256 0 3.64578 1 0 4.53999e-06 0.949802
6687 1 46.8423 15.5914 -85.6143 0 3.81135 2 0 4.53999e-06 0.651738
3371 1 45.1709 15.2292 -85.2113 0 3.55437 2 0 4.53999e-06 -0.921747
3218 1 45.3059 14.934 -84.069 0 3.56804 2 0 4.53999e-06 -0.763417
9326 1 45.7239 14.6327 -84.8764 0 3.58273 2 0 4.53999e-06 -0.379669
8743 1 46.3535 15.2884 -84.8426 0 3.79408 2 0 4.53999e-06 0.593531
3969 1 45.6365 15.7147 -84.5458 0 3.61205 2 0 4.53999e-06 -0.380761
5809 1 46.3147 14.6694 -84.094 0 3.64236 2 0 4.53999e-06 0.506666
6244 1 46.3963 15.7083 -83.8362 0 4.01832 2 0 4.53999e-06 0.513353
8839 1 46.7992 13.8953 -82.3747 0 3.78351 3 0 4.53999e-06 0.495464
4233 1 45.8223 15.0804 -83.1367 0 3.60436 2 0 4.53999e-06 -0.131778
7375 1 47.514 12.9958 -81.1029 0 3.71604 3 0 4.53999e-06 0.459233
8597 1 44.8539 14.3376 -81.7985 0 3.57213 3 0 4.53999e-06 -0.721598
8900 1 45.8501 14.4125 -80.308 0 3.59352 2 0 4.53999e-06 -0.065169
4589 1 45.5908 15.758 -80.8935 0 3.60334 3 0 4.53999e-06 -0.227888
1868 1 47.6376 15.5043 -81.4793 0 4.17175 3 0 4.53999e-06 0.991771
6037 1 46.6383 14.1693 -78.7575 0 3.77032 2 0 4.53999e-06 0.675758
1930 1 46.6502 15.0317 -80.0112 0 3.92944 2 0 4.53999e-06 0.808889
8265 1 45.1757 14.899 -79.6909 0 3.53122 2 0 4.53999e-06 -0.892989
8322 1 45.4586 14.2768 -78.8272 0 3.49158 2 0 4.53999e-06 -0.611408
3691 1 45.4942 15.2318 -78.8015 0 3.51415 2 0 4.53999e-06 -0.630504
3871 1 46.0806 14.6192 -79.3777 0 3.58755 2 0 4.53999e-06 0.326252
4017 1 46.0253 15.6121 -79.5041 0 3.61145 2 0 4.53999e-06 0.0960829
4414 1 46.511 15.1483 -78.7155 0 3.791 2 0 4.53999e-06 0.76714
6181 1 46.5341 13.1668 -76.948 0 3.32653 2 0 4.53999e-06 0.3305
5815 1 46.7957 13.7684 -77.7995 0 3.70242 2 0 4.53999e-06 0.680101
3209 1 45.0112 14.7567 -78.0712 0 3.41638 2 0 4.53999e-06 -0.986895
8645 1 45.9623 14.2223 -78.0745 0 3.49906 2 0 4.53999e-06 -0.175964
8545 1 46.3156 14.2915 -77.1896 0 3.59215 2 0 4.53999e-06 0.748951
9424 1 45.5266 14.5293 -77.3737 0 3.42461 2 0 4.53999e-06 -0.849264
3690 1 45.3055 15.3723 -77.1239 0 3.39002 2 0 4.53999e-06 -0.587509
1568 1 46.6997 14.7628 -77.8295 0 3.71741 2 0 4.53999e-06 0.936133
4592 1 45.88 15.1277 -77.9845 0 3.49235 2 0 4.53999e-06 -0.0561734
8445 1 46.1434 15.1096 -77.1221 0 3.48145 2 0 4.53999e-06 0.417749
9173 1 45.7477 13.9783 -76.7694 0 3.38472 2 0 4.53999e-06 -0.375706
8216 1 45.4054 14.0499 -76.0599 0 3.31752 2 0 4.53999e-06 -0.756384
7473 1 46.0006 13.3617 -75.7333 0 3.2954 2 0 4.53999e-06 0.132632
1146 1 46.3451 14.0049 -76.2654 0 3.51921 2 0 4.53999e-06 0.748844
2550 1 45.8692 14.2071 -75.5431 0 3.31982 1 0 4.53999e-06 0.346747
1309 1 46.6592 14.1782 -75.4512 0 3.52587 2 0 4.53999e-06 0.965696
8058 1 45.0431 14.6078 -76.6063 0 3.34146 2 0 4.53999e-06 -0.98789
1012 1 46.7315 14.724 -76.5588 0 3.61393 2 0 4.53999e-06 0.971407
4517 1 45.0881 14.5759 -75.5253 0 3.26706 2 0 4.53999e-06 -0.972204
9179 1 45.8475 14.6733 -76.5195 0 3.39834 1 0 4.53999e-06 -0.26552
3924 1 45.4289 15.2342 -76.1203 0 3.34741 2 0 4.53999e-06 -0.516109
1927 1 46.1569 14.7672 -75.8965 0 3.3751 1 0 4.53999e-06 0.703838
3335 1 46.2892 15.6161 -76.322 0 3.50626 2 0 4.53999e-06 0.395124
3971 1 45.7425 15.0609 -75.2936 0 3.29436 2 0 4.53999e-06 -0.00253077
8745 1 44.8216 14.024 -74.3817 0 3.13834 2 0 4.53999e-06 -0.913687
8845 1 45.238 13.6384 -75.1652 0 3.22337 2 0 4.53999e-06 -0.597551
9325 1 45.5704 13.7434 -73.9781 0 3.14707 1 0 4.53999e-06 0.0328435
6587 1 46.1289 13.6927 -74.729 0 3.37919 2 0 4.53999e-06 0.579199
8996 1 44.1637 14.3039 -73.6978 0 3.05666 2 0 4.53999e-06 -0.944841
3516 1 45.6181 14.2833 -74.8631 0 3.24447 1 0 4.53999e-06 -0.624151
1698 1 46.2013 14.3066 -73.933 0 3.19464 1 0 4.53999e-06 0.943961
3639 1 45.1265 14.8935 -74.5988 0 3.17955 2 0 4.53999e-06 -0.58877
4677 1 46.2635 14.636 -74.7593 0 3.42978 2 0 4.53999e-06 0.791456
3515 1 45.4391 14.5752 -73.8858 0 3.14594 1 0 4.53999e-06 -0.19625
8746 1 44.7939 13.3223 -73.5083 0 3.05843 2 0 4.53999e-06 -0.543214
8441 1 45.0327 14.0288 -73.3598 0 3.08349 1 0 4.53999e-06 -0.956258
8646 1 45.0495 13.3353 -72.5397 0 3.0305 1 0 4.53999e-06 -0.475386
8991 1 44.5025 13.9575 -72.6884 0 3.02348 2 0 4.53999e-06 -0.993167
8552 1 46.4142 13.6212 -73.4147 0 3.29643 2 0 4.53999e-06 0.697083
8266 1 45.6677 13.2279 -73.1367 0 3.08185 1 0 4.53999e-06 0.00821333
905 1 45.7903 14.1954 -73.1416 0 3.12417 1 0 4.53999e-06 0.586396
5813 1 46.6491 13.0073 -72.7196 0 3.11987 2 0 4.53999e-06 0.385579
8835 1 45.8721 13.0308 -72.1778 0 3.05466 1 0 4.53999e-06 -0.0206185
6034 1 46.1024 13.819 -72.5268 0 3.11249 1 0 4.53999e-06 0.883606
6463 1 47.2238 13.9619 -72.9882 0 3.43609 2 0 4.53999e-06 0.891993
8503 1 46.7789 13.7452 -72.1572 0 3.15187 1 0 4.53999e-06 0.962636
6183 1 47.6138 13.1785 -72.2911 0 3.43769 2 0 4.53999e-06 0.830388
3235 1 44.9002 14.7941 -73.1355 0 3.06804 2 0 4.53999e-06 -0.486457