ITEM: TIMESTEP
12000
ITEM: NUMBER OF ATOMS
9495
ITEM: BOX BOUNDS mm mm mm
0.0000000000000000e+00 3.1748021039364001e+01
0.0000000000000000e+00 3.1748021039364001e+01
-7.4072398406925706e-04 3.1748021039364001e+01
ITEM: ATOMS id type x y z c_phase c_temp c_surf c_nbond c_visc f_3[1]
1 1 0.116341 1.10259 0.464337 4 2.00727e-12 2 0 0.0994487 -0.68194
2 1 0.974108 1.6685 0.77798 4 8.98139e-12 2 0 0.0994487 -0.517032
3 1 0.714648 0.793562 1.41295 4 3.5628e-12 2 0 0.0994487 -0.281794
4 1 0.00336375 1.60273 1.37437 4 2.59351e-12 2 0 0.0994487 -0.804051
5 1 0.729896 0.0633724 0.61602 4 1.86707e-12 3 0 0.0994487 -0.190374
6 1 1.71015 0.808983 1.0155 4 1.47698e-11 2 0 0.0994487 -0.332069
7 1 1.80059 1.47468 0.221075 4 1.94573e-11 2 0 0.0994487 -0.125829
8 1 1.82015 1.66049 1.76126 4 2.46675e-11 2 0 0.0994487 -0.139533
9 1 2.52093 0.749102 0.203812 4 3.23964e-11 2 0 0.0994487 -0.142939
10 1 2.59149 0.0538711 1.03726 4 2.72748e-11 2 0 0.0994487 -0.295004
11 1 2.64922 1.541 0.882848 4 7.39436e-11 2 0 0.0994487 0.235757
12 1 2.66829 0.815502 1.7457 4 4.47346e-11 2 0 0.0994487 -0.18704
13 1 3.43386 0.933692 0.956349 4 1.48483e-10 2 0 0.0994487 0.320243
14 1 3.49924 0.0925696 1.70571 4 7.36481e-11 2 0 0.0994487 0.178053
15 1 3.60652 1.70798 1.71994 4 2.65056e-10 2 0 0.0994487 0.0487954
16 1 4.10576 0.858321 0.325305 4 3.19471e-10 2 0 0.0994487 0.153146
17 1 4.96159 0.56786 1.17466 4 9.23243e-10 2 0 0.0994487 -0.0370663
18 1 4.91949 1.59987 0.383508 4 1.54561e-09 2 0 0.0994487 -0.100247
19 1 4.3472 0.941527 1.62884 4 4.556e-10 2 0 0.0994487 0.110739
20 1 3.47612 0.111428 0.171027 4 6.53191e-11 2 0 0.0994487 0.166215
21 1 5.64741 0.645627 0.325839 4 2.14664e-09 2 0 0.0994487 -0.0806043
22 1 5.88414 1.31048 0.938036 4 4.44472e-09 2 0 0.0994487 -0.199579
23 1 6.57478 1.39104 0.218369 4 1.00168e-08 2 0 0.0994487 -0.0861326
24 1 5.78374 0.460658 1.69897 4 2.0834e-09 2 0 0.0994487 -0.0846519
25 1 5.03122 1.72414 1.43602 4 1.84523e-09 2 0 0.0994487 0.045373
26 1 6.7138 0.39031 0.865278 4 6.92727e-09 2 0 0.0994487 -0.079381
27 1 6.69104 1.00962 1.69374 4 8.40315e-09 2 0 0.0994487 -0.107922
28 1 8.2679 0.408875 1.07337 4 3.72614e-08 2 0 0.0994487 -0.100165
29 1 7.36782 1.22285 0.954198 4 2.35566e-08 2 0 0.0994487 -0.302546
30 1 8.24709 1.39092 0.236779 4 6.30941e-08 2 0 0.0994487 -0.0460627
31 1 8.12868 1.27217 1.60653 4 5.08838e-08 2 0 0.0994487 -0.00811553
32 1 7.58247 0.647807 0.140287 4 1.93018e-08 2 0 0.0994487 -0.110935
33 1 8.85849 0.508506 0.273966 4 6.72438e-08 2 0 0.0994487 -0.0616451
34 1 9.55301 0.3386 0.888639 4 1.31591e-07 2 0 0.0994487 0.00506576
35 1 9.02586 1.30716 1.1133 4 1.44652e-07 2 0 0.0994487 -0.0606398
37 1 9.63995 1.37474 0.0900752 4 2.22751e-07 2 0 0.0994487 0.0992926
38 1 11.2128 0.215893 0.632658 4 6.25518e-07 2 0 0.0994487 0.203506
39 1 10.3637 1.04743 0.823114 4 4.52715e-07 2 0 0.0994487 0.539891
40 1 10.523 0.196295 1.44539 4 3.09023e-07 2 0 0.0994487 0.0644302
41 1 11.2856 1.01846 1.41785 4 1.18414e-06 2 0 0.0994487 0.164711
42 1 10.5797 1.67706 1.72992 4 8.53246e-07 2 0 0.0994487 0.118166
43 1 10.2431 0.367861 0.0780499 4 1.94464e-07 2 0 0.0994487 0.149802
44 1 12.8757 0.211714 0.636805 4 3.12325e-06 2 0 0.0994487 0.0587909
45 1 12.0457 1.07408 0.506655 4 2.65451e-06 2 0 0.0994487 -0.0235473
46 1 12.1319 0.316439 1.29957 4 1.75018e-06 2 0 0.0994487 0.0188401
47 1 12.7194 1.19864 1.3723 4 5.36813e-06 2 0 0.0994487 -0.0305213
48 1 14.3729 0.318493 0.764646 4 1.18705e-05 2 0 0.0994487 -0.0460346
49 1 13.5924 1.113 0.843618 4 1.12493e-05 2 0 0.0994487 -0.263042
50 1 14.0399 1.55958 0.167469 4 2.03183e-05 2 0 0.0994487 -0.0898214
51 1 13.6075 0.359834 1.6352 4 6.08034e-06 2 0 0.0994487 -0.0562601
52 1 14.3777 1.14948 1.47647 4 1.90303e-05 2 0 0.0994487 -0.0178219
53 1 14.8761 1.55337 0.662943 4 3.76884e-05 2 0 0.0994487 0.38996
54 1 15.7061 0.770636 0.788259 4 4.11859e-05 2 0 0.0994487 0.366493
55 1 16.5532 1.54451 0.681338 4 0.000135186 2 0 0.0994487 0.000820017
56 1 15.1422 0.4642 1.64149 4 2.03956e-05 2 0 0.0994487 0.152081
57 1 16.547 0.712289 1.3421 4 7.7252e-05 2 0 0.0994487 0.0956362
58 1 15.6341 1.48544 1.3916 4 6.53006e-05 2 0 0.0994487 0.153642
59 1 15.1049 0.711806 0.0677822 4 1.99336e-05 2 0 0.0994487 0.169206
60 1 17.2544 0.732268 0.547589 4 0.0001154 2 0 0.0994487 0.0286381
61 1 17.9231 1.58109 0.757246 4 0.000313462 2 0 0.0994487 0.0415796
62 1 17.916 0.742935 1.42801 4 0.000179455 2 0 0.0994487 -0.224365
63 1 17.2202 1.74884 1.56274 4 0.000248267 2 0 0.0994487 -0.0984726
64 1 19.5372 0.0167772 0.662766 4 0.000197173 2 0 0.0994487 0.0436491
65 1 18.7918 0.725074 0.684829 4 0.000247579 2 0 0.0994487 -0.269936
66 1 19.5395 1.55488 0.841653 4 0.000612321 2 0 0.0994487 -0.34114
67 1 19.0276 0.158607 1.54508 4 0.000187828 2 0 0.0994487 -0.158659
68 1 19.5934 0.967491 1.68957 4 0.000383297 2 0 0.0994487 0.00836025
69 1 18.6564 1.51302 1.50035 4 0.000422768 2 0 0.0994487 -0.250291
70 1 21.0889 0.349843 1.06749 4 0.000389105 2 0 0.0994487 -0.196117
71 1 20.2493 0.776373 0.980057 4 0.000426939 2 0 0.0994487 -0.0497412
72 1 21.1062 1.65725 0.951506 4 0.000962876 2 0 0.0994487 0.692963
73 1 21.1874 0.765598 0.218806 4 0.000467622 2 0 0.0994487 -0.0445833
74 1 20.3457 1.51479 0.193617 4 0.000705616 2 0 0.0994487 -0.080594
75 1 22.0087 0.262534 0.539755 4 0.00039477 2 0 0.0994487 0.0993674
76 1 22.7913 0.430275 1.40734 4 0.00046669 2 0 0.0994487 0.206612
77 1 22.1105 1.14763 1.32981 4 0.000717396 2 0 0.0994487 0.240049
78 1 21.9982 1.59955 0.538558 4 0.00104669 2 0 0.0994487 0.185188
79 1 22.9157 1.07463 0.445168 4 0.000705002 2 0 0.0994487 0.052098
80 1 24.228 0.380179 1.45209 4 0.000454946 2 0 0.0994487 0.0576252
81 1 23.5672 0.357563 0.57369 4 0.000457522 2 0 0.0994487 0.0385811
82 1 24.4367 1.18687 0.754729 4 0.000796043 2 0 0.0994487 -0.0192731
83 1 23.4757 1.2499 1.4028 4 0.000877308 2 0 0.0994487 0.0298957
84 1 24.955 0.315686 0.551996 4 0.000388631 2 0 0.0994487 -0.0171904
85 1 26.0085 0.383365 1.1715 4 0.000311088 2 0 0.0994487 -0.185853
86 1 25.169 1.12579 1.48087 4 0.000680301 2 0 0.0994487 0.0251151
87 1 25.9301 1.73476 1.35794 4 0.000891159 2 0 0.0994487 0.0345477
88 1 25.8917 0.929212 0.432102 4 0.000448578 2 0 0.0994487 -0.0954119
89 1 27.5736 1.28032 0.38906 4 0.0002763 2 0 0.0994487 0.045454
90 1 27.6142 0.50928 0.874321 4 0.00017427 2 0 0.0994487 0.175393
91 1 26.7559 1.02809 1.26347 4 0.000346719 2 0 0.0994487 -0.236874
92 1 28.3748 0.337482 1.39813 4 0.000102559 2 0 0.0994487 0.00984802
93 1 26.7925 0.240345 0.226621 4 0.000189492 2 0 0.0994487 0.038078
94 1 28.6489 1.24263 0.742341 4 0.000160687 2 0 0.0994487 0.102411
95 1 29.3912 0.945639 1.56878 4 7.89517e-05 2 0 0.0994487 -0.0191986
96 1 28.5228 1.71921 1.49749 4 0.000227194 2 0 0.0994487 -0.0429759
97 1 29.8133 0.173958 1.46124 4 3.90673e-05 2 0 0.0994487 0.133417
98 1 29.2734 0.3547 0.615275 4 5.81478e-05 2 0 0.0994487 -0.0816797
99 1 31.5874 0.266128 1.25663 4 1.17212e-05 3 0 0.0994487 0.830097
100 1 30.7016 0.49015 0.470738 4 2.65513e-05 2 0 0.0994487 0.354852
101 1 30.1009 1.19877 0.774133 4 6.25413e-05 2 0 0.0994487 0.210922
102 1 30.8649 0.971942 1.39386 4 3.44119e-05 2 0 0.0994487 0.703282
103 1 1.11081 2.43607 0.129285 4 1.281e-11 2 0 0.0994487 -0.0373221
104 1 0.133403 2.3821 0.812241 4 5.1826e-12 2 0 0.0994487 -0.984517
105 1 1.28845 3.23764 0.949187 4 3.5911e-11 2 0 0.0994487 0.222093
106 1 1.13977 2.36077 1.59162 4 1.67403e-11 2 0 0.0994487 -0.222189
107 1 0.386685 3.02999 1.54944 4 1.00641e-11 2 0 0.0994487 -0.671256
108 1 0.332248 3.09582 0.131296 4 8.03391e-12 2 0 0.0994487 -0.59134
109 1 1.90972 2.41867 0.78376 4 4.69573e-11 2 0 0.0994487 0.0782095
110 1 2.65852 3.28029 0.860875 4 2.37143e-10 2 0 0.0994487 0.0668047
111 1 2.66931 2.22918 1.53373 4 1.13763e-10 2 0 0.0994487 0.0829555
112 1 3.2579 3.42668 1.64938 4 5.37155e-10 2 0 0.0994487 0.00397552
113 1 2.7261 2.38168 0.0557193 4 9.4964e-11 2 0 0.0994487 0.146601
114 1 3.38195 2.55413 0.779289 4 3.7436e-10 2 0 0.0994487 0.211584
115 1 4.00679 1.841 0.711184 4 5.64187e-10 2 0 0.0994487 -0.0361225
116 1 4.91383 2.57277 0.815661 4 2.92312e-09 2 0 0.0994487 -0.259348
117 1 4.20148 3.3175 0.749446 4 1.83718e-09 2 0 0.0994487 0.00621654
118 1 4.13245 2.64107 1.58328 4 1.03777e-09 2 0 0.0994487 0.0270783
119 1 5.65047 2.44269 0.132743 4 6.01119e-09 2 0 0.0994487 -0.189925
120 1 6.55776 2.18062 0.772597 4 1.69416e-08 2 0 0.0994487 -0.289375
121 1 5.64874 3.19593 0.952489 4 1.06343e-08 2 0 0.0994487 -0.754629
122 1 5.861 2.19426 1.49672 4 6.90013e-09 2 0 0.0994487 0.0126367
123 1 6.52037 3.06691 1.5557 4 2.65763e-08 2 0 0.0994487 0.0443587
124 1 6.65033 2.92778 0.134227 4 2.44551e-08 2 0 0.0994487 0.0288878
125 1 7.45405 2.22586 0.139832 4 4.54995e-08 2 0 0.0994487 -0.0535012
126 1 8.08209 2.20208 0.930382 4 1.00129e-07 2 0 0.0994487 -0.302063
127 1 7.40132 3.06835 0.934051 4 8.19608e-08 2 0 0.0994487 -0.045509
128 1 7.29928 2.06035 1.56856 4 3.49213e-08 2 0 0.0994487 -0.0607316
129 1 8.18545 3.00183 1.65211 4 1.76557e-07 2 0 0.0994487 -0.0454145
130 1 8.26934 2.9712 0.0392146 4 1.8412e-07 2 0 0.0994487 -0.150616
131 1 8.90393 2.08699 0.252387 4 1.98339e-07 2 0 0.0994487 0.00243502
132 1 9.77243 2.0246 1.10996 4 5.15243e-07 2 0 0.0994487 0.173472
133 1 8.92671 2.97262 0.928693 4 4.24844e-07 2 0 0.0994487 -0.156746
134 1 9.03062 2.22066 1.70398 4 2.60778e-07 2 0 0.0994487 -0.0819664
135 1 9.56096 2.90576 0.21312 4 6.75042e-07 2 0 0.0994487 0.173122
136 1 10.2834 2.1137 0.214297 4 7.14257e-07 2 0 0.0994487 0.33774
137 1 11.1583 1.82604 0.771092 4 1.84396e-06 2 0 0.0994487 0.260094
138 1 10.6214 2.80819 0.921535 4 2.2082e-06 2 0 0.0994487 0.541925
139 1 11.4444 2.82964 1.57484 4 5.09002e-06 2 0 0.0994487 0.0952032
140 1 12.6737 1.94118 0.593851 4 9.36677e-06 2 0 0.0994487 -0.283927
141 1 11.928 2.64099 0.742299 4 7.34216e-06 2 0 0.0994487 -0.0386681
142 1 11.9239 1.9206 1.46509 4 4.19466e-06 2 0 0.0994487 0.0946584
143 1 12.8449 3.01766 1.68597 4 2.07433e-05 2 0 0.0994487 0.0363603
144 1 13.1791 3.03035 0.848852 4 3.09319e-05 2 0 0.0994487 -0.440844
145 1 13.3784 1.9912 1.48064 4 1.63295e-05 2 0 0.0994487 -0.0150659
146 1 14.0206 2.44438 0.927124 4 4.06224e-05 2 0 0.0994487 -0.133075
147 1 14.0279 3.38359 1.55716 4 7.64035e-05 2 0 0.0994487 0.0255793
148 1 14.6961 3.43698 0.884932 4 0.000140765 2 0 0.0994487 -0.332911
149 1 14.7823 2.29758 1.44821 4 6.3576e-05 2 0 0.0994487 0.0469331
150 1 14.8418 2.51505 0.136557 4 7.29069e-05 2 0 0.0994487 0.17301
151 1 14.1591 3.2262 0.0325348 4 7.41524e-05 2 0 0.0994487 -0.246102
152 1 13.4137 2.29398 0.0590902 4 2.11018e-05 2 0 0.0994487 -0.280959
153 1 15.6993 2.44373 0.692668 4 0.000141792 2 0 0.0994487 0.364409
154 1 16.3029 3.20095 0.662084 4 0.000371762 2 0 0.0994487 0.328603
155 1 16.308 2.47951 1.52575 4 0.00023667 2 0 0.0994487 -0.100637
156 1 15.3694 3.25723 1.50191 4 0.000206465 2 0 0.0994487 -0.00766194
157 1 15.5706 3.25854 0.0192499 4 0.000186967 2 0 0.0994487 0.290242
158 1 17.0646 2.35032 0.682778 4 0.000345931 2 0 0.0994487 0.0234948
159 1 17.944 2.92608 0.699539 4 0.000925848 2 0 0.0994487 -0.231174
160 1 18.0193 2.43917 1.58112 4 0.000652326 2 0 0.0994487 -0.149121
161 1 17.0918 3.1162 1.49491 4 0.000640142 2 0 0.0994487 -0.14342
162 1 18.8908 2.35742 1.01358 4 0.000913734 2 0 0.0994487 -0.516792
163 1 19.7027 3.2427 1.27782 4 0.00236366 2 0 0.0994487 0.39491
164 1 18.884 2.99607 0.196019 4 0.00141262 2 0 0.0994487 -0.1718
165 1 19.587 2.34239 0.101452 4 0.00109139 2 0 0.0994487 -0.132362
166 1 20.3251 1.78863 1.72442 4 0.000827252 2 0 0.0994487 0.0449658
167 1 21.1565 2.41663 0.458355 4 0.0018523 2 0 0.0994487 0.196204
168 1 20.1948 2.46882 1.11433 4 0.00148396 2 0 0.0994487 0.286811
169 1 21.31 3.29463 1.39314 4 0.00424821 2 0 0.0994487 0.0777524
170 1 20.4222 2.99313 0.334941 4 0.00236413 2 0 0.0994487 0.186305
171 1 22.8719 2.07007 1.50872 4 0.00179083 2 0 0.0994487 -0.0221068
172 1 22.9717 2.60199 0.735523 4 0.00309698 2 0 0.0994487 0.133355
173 1 22.0961 2.49917 1.23787 4 0.00252598 2 0 0.0994487 0.186475
174 1 21.9898 3.20043 0.598797 4 0.0046481 2 0 0.0994487 -0.0757202
175 1 22.6771 3.40124 0.07601 4 0.00556783 2 0 0.0994487 0.0760826
176 1 23.7438 1.80844 0.624025 4 0.00138063 2 0 0.0994487 -0.0873412
177 1 24.4289 1.98763 1.61102 4 0.00154968 2 0 0.0994487 -0.064165
178 1 24.342 2.68296 0.775192 4 0.00287363 2 0 0.0994487 -0.341069
179 1 23.6887 2.90303 1.53628 4 0.00370527 2 0 0.0994487 -0.110488
180 1 24.4728 3.51078 1.55704 4 0.00569823 2 0 0.0994487 -0.118292
181 1 24.9562 2.84566 0.0146836 4 0.00257856 2 0 0.0994487 -0.0864547
182 1 26.5483 1.79415 0.511367 4 0.000698406 2 0 0.0994487 -0.00559243
183 1 25.1322 1.85613 0.509414 4 0.00122803 2 0 0.0994487 -0.0215183
184 1 25.7918 2.61203 0.707489 4 0.00197249 2 0 0.0994487 0.228217
185 1 25.1579 2.55548 1.52547 4 0.0022242 2 0 0.0994487 0.0576771
186 1 25.7213 3.49812 1.51211 4 0.00420818 2 0 0.0994487 0.123865
187 1 26.5364 2.56002 1.53049 4 0.00135919 2 0 0.0994487 0.0579542
188 1 26.1686 3.50068 0.599043 4 0.00356158 2 0 0.0994487 0.168854
189 1 27.5039 1.98546 1.23792 4 0.000506377 2 0 0.0994487 -0.186406
190 1 28.2489 2.09022 0.343734 4 0.000349057 2 0 0.0994487 -0.0177212
191 1 27.0867 2.6924 0.645359 4 0.00114478 2 0 0.0994487 -0.105592
192 1 27.1998 3.35397 1.41682 4 0.00180946 2 0 0.0994487 -0.098322
193 1 28.2537 2.75799 1.20639 4 0.000594617 2 0 0.0994487 -0.418298
194 1 27.982 3.21993 0.326384 4 0.000942361 2 0 0.0994487 -0.125254
195 1 29.9568 1.80906 1.70764 4 9.91235e-05 2 0 0.0994487 0.183202
196 1 29.4477 2.04702 0.879698 4 0.000170805 2 0 0.0994487 -0.00707556
197 1 29.1956 2.6589 0.290703 4 0.000286304 2 0 0.0994487 -0.0578263
198 1 29.2495 3.2651 1.17365 4 0.000442982 2 0 0.0994487 0.118639
199 1 30.9114 1.98502 0.924207 4 7.04462e-05 2 0 0.0994487 0.967252
200 1 30.1815 2.71094 1.00186 4 0.000163225 2 0 0.0994487 0.675125
201 1 31.0247 3.35309 0.97101 4 0.000150056 2 0 0.0994487 0.99841
202 1 30.9865 2.69483 1.72648 4 9.72928e-05 2 0 0.0994487 0.578502
203 1 30.1092 3.25953 0.132205 4 0.000208089 2 0 0.0994487 -0.044365
204 1 30.4116 1.90909 0.0255368 4 7.47061e-05 2 0 0.0994487 0.106045
205 1 31.1434 2.66402 0.0761253 4 8.18503e-05 2 0 0.0994487 0.70882
206 1 0.293831 3.78503 0.918557 4 1.44883e-11 2 0 0.0994487 -0.999347
207 1 0.143046 4.59443 0.482118 4 1.74481e-11 2 0 0.0994487 -0.784494
208 1 1.14036 4.67093 0.986638 4 6.90302e-11 2 0 0.0994487 -0.516752
209 1 0.0884667 5.26681 1.27761 4 2.2723e-11 2 0 0.0994487 -0.887458
210 1 1.04069 3.86421 0.0595682 4 3.09314e-11 2 0 0.0994487 0.014888
211 1 1.84117 4.04604 0.847105 4 1.29548e-10 2 0 0.0994487 0.0082692
212 1 2.54049 4.85585 1.13748 4 5.11484e-10 2 0 0.0994487 -0.333846
213 1 2.64953 4.14475 0.20674 4 3.81175e-10 2 0 0.0994487 -0.0285719
214 1 1.89758 4.96895 0.278386 4 2.20492e-10 2 0 0.0994487 -0.153433
215 1 3.40771 4.86189 0.161635 4 1.51105e-09 2 0 0.0994487 -0.0163878
216 1 3.494 4.07675 0.885909 4 1.17807e-09 2 0 0.0994487 0.0268947
217 1 4.91235 4.00001 1.18344 4 7.03128e-09 2 0 0.0994487 0.0115136
218 1 4.04658 4.88002 1.14639 4 3.82532e-09 2 0 0.0994487 0.264491
219 1 4.26027 4.18509 0.149001 4 3.01609e-09 2 0 0.0994487 0.0377386
220 1 5.00947 4.74001 0.341082 4 1.12157e-08 2 0 0.0994487 0.0765407
221 1 5.77735 3.9378 0.198707 4 1.57074e-08 2 0 0.0994487 0.0260163
222 1 6.48883 3.76611 0.772067 4 4.05537e-08 2 0 0.0994487 0.204556
223 1 5.68025 4.73638 1.02487 4 2.8493e-08 2 0 0.0994487 -0.621679
224 1 6.66321 4.5115 1.6428 4 7.31451e-08 2 0 0.0994487 0.158934
225 1 6.68072 5.1315 0.885352 4 1.19781e-07 2 0 0.0994487 0.20686
226 1 8.1982 3.892 0.700757 4 3.54954e-07 2 0 0.0994487 -0.369898
227 1 7.40842 4.46072 0.5468 4 1.9124e-07 2 0 0.0994487 -0.0252109
228 1 7.39886 3.87029 1.49684 4 1.27263e-07 2 0 0.0994487 0.102579
229 1 8.20004 4.61106 1.48677 4 5.25679e-07 2 0 0.0994487 -0.0118357
230 1 9.8976 3.57792 0.885667 4 1.80233e-06 2 0 0.0994487 0.592805
231 1 9.07913 4.56551 0.821335 4 1.38068e-06 2 0 0.0994487 -0.658536
232 1 9.86266 4.50302 0.126324 4 2.48263e-06 2 0 0.0994487 0.0958668
233 1 9.07829 3.76256 1.49819 4 8.4151e-07 2 0 0.0994487 -0.070884
234 1 9.86881 4.3462 1.65532 4 2.7917e-06 2 0 0.0994487 -0.0856609
235 1 8.98541 3.86821 0.0631775 4 7.1652e-07 2 0 0.0994487 -0.138752
236 1 11.408 3.64493 0.778297 4 8.87493e-06 2 0 0.0994487 0.202071
237 1 10.5891 4.66652 0.906264 4 7.30504e-06 2 0 0.0994487 0.0450899
238 1 11.3867 4.69403 0.230734 4 1.5959e-05 2 0 0.0994487 -0.0498881
239 1 10.7059 3.56689 1.58785 4 4.1122e-06 2 0 0.0994487 -0.044847
240 1 11.3652 4.3716 1.70545 4 1.29126e-05 2 0 0.0994487 -0.0798257
241 1 11.3894 5.27213 0.983682 4 2.31222e-05 2 0 0.0994487 -0.674471
242 1 10.5826 3.84888 0.176129 4 3.79362e-06 2 0 0.0994487 0.210468
243 1 12.5168 3.57716 0.814749 4 2.48077e-05 2 0 0.0994487 -0.0105701
244 1 12.1916 4.55033 1.00021 4 3.36708e-05 2 0 0.0994487 0.105064
245 1 12.7362 4.99738 1.68903 4 6.36964e-05 2 0 0.0994487 0.191332
246 1 13.2258 4.67863 0.80017 4 9.55203e-05 2 0 0.0994487 -0.00468501
247 1 12.6435 4.61885 0.0632315 4 5.17305e-05 2 0 0.0994487 -0.0335783
248 1 13.9891 4.12825 0.69648 4 0.000131883 2 0 0.0994487 -0.430167
249 1 13.4832 4.21781 1.59317 4 8.27297e-05 2 0 0.0994487 0.0820217
250 1 14.2046 5.11838 1.52001 4 0.00028044 2 0 0.0994487 -0.0289871
251 1 14.9402 5.01141 0.811699 4 0.000471658 2 0 0.0994487 -0.0526066
252 1 14.9642 4.4167 1.59432 4 0.000327612 2 0 0.0994487 -0.0635571
253 1 14.1405 4.90647 0.0597868 4 0.000221332 2 0 0.0994487 -0.0856913
254 1 14.961 4.19423 0.096508 4 0.000258001 2 0 0.0994487 0.0322768
255 1 15.6685 4.06642 0.926277 4 0.000441877 2 0 0.0994487 0.872594
256 1 15.8798 4.77595 0.186426 4 0.00075833 2 0 0.0994487 0.165396
257 1 16.5936 4.58036 0.900182 4 0.00121326 2 0 0.0994487 -0.0789021
258 1 16.3184 3.95875 1.6903 4 0.000658616 2 0 0.0994487 -0.0433886
259 1 15.8111 5.05317 1.64084 4 0.000864039 2 0 0.0994487 0.0995062
260 1 17.2689 3.83372 0.811237 4 0.00118772 2 0 0.0994487 -0.34536
261 1 18.0864 4.48855 1.09806 4 0.00281029 2 0 0.0994487 -0.612027
262 1 17.9525 3.63794 1.65602 4 0.00150111 2 0 0.0994487 -0.192793
263 1 17.4569 4.57727 0.0147963 4 0.00180108 2 0 0.0994487 -0.0974022
264 1 18.1348 3.8547 0.0583493 4 0.00172687 2 0 0.0994487 -0.120509
265 1 18.8779 3.70667 0.95022 4 0.00241676 2 0 0.0994487 0.0693473
266 1 18.8235 4.60949 0.361826 4 0.00413111 2 0 0.0994487 0.115623
267 1 19.6906 4.67872 1.0803 4 0.00742175 2 0 0.0994487 0.931541
268 1 18.7859 5.27693 1.20102 4 0.00698533 2 0 0.0994487 0.599232
269 1 19.5987 3.76722 0.227421 4 0.00320536 2 0 0.0994487 0.164281
270 1 20.4384 3.82188 1.23329 4 0.0051579 2 0 0.0994487 0.325991
271 1 20.8846 4.71868 1.39403 4 0.0132402 2 0 0.0994487 0.149088
272 1 21.5775 4.95128 0.810455 4 0.0205799 2 0 0.0994487 -0.0036636
273 1 21.0824 3.93136 0.512408 4 0.0069649 2 0 0.0994487 0.0883266
274 1 20.1339 4.78559 0.352846 4 0.00958617 2 0 0.0994487 0.145604
275 1 22.8205 3.63186 1.42135 4 0.00731979 2 0 0.0994487 -0.0183804
276 1 21.9406 4.13318 1.31068 4 0.0105827 2 0 0.0994487 0.027234
277 1 22.4705 5.17735 1.27286 4 0.0286429 2 0 0.0994487 0.0207456
278 1 22.6119 4.34705 0.510028 4 0.013469 2 0 0.0994487 -0.0220821
279 1 23.5735 3.63903 0.782677 4 0.00756643 2 0 0.0994487 0.185599
280 1 24.336 4.32055 0.625018 4 0.0124676 2 0 0.0994487 -0.150076
281 1 23.4679 4.54946 1.33355 4 0.0168776 2 0 0.0994487 -0.0790305
282 1 24.8518 5.25716 0.566763 4 0.0222685 2 0 0.0994487 0.0409179
283 1 23.5518 5.06386 0.533607 4 0.0253549 2 0 0.0994487 -0.0968661
284 1 25.0086 4.50055 1.62342 4 0.0118959 2 0 0.0994487 -0.0421878
285 1 25.0629 3.68037 0.802132 4 0.00602176 2 0 0.0994487 -0.187893
286 1 24.363 5.28843 1.43377 4 0.0269946 2 0 0.0994487 -0.154696
287 1 25.6904 5.1389 1.34266 4 0.0154708 2 0 0.0994487 0.21011
288 1 26.3575 4.29031 1.37159 4 0.0060552 2 0 0.0994487 0.14949
289 1 26.5026 4.97257 0.640732 4 0.00901696 2 0 0.0994487 0.0989738
290 1 25.5284 4.40089 0.388179 4 0.00900142 2 0 0.0994487 0.0559536
291 1 27.3302 4.86961 1.40568 4 0.00530151 2 0 0.0994487 0.00661337
292 1 27.9624 3.97641 1.10408 4 0.0018187 2 0 0.0994487 -0.309488
293 1 28.2771 4.73475 0.706344 4 0.0025588 2 0 0.0994487 -0.0812434
294 1 27.0674 4.04323 0.570038 4 0.00336185 2 0 0.0994487 0.0120278
295 1 28.9321 3.77016 0.487204 4 0.00077672 2 0 0.0994487 -0.00703152
296 1 29.0873 4.52317 1.33085 4 0.00122585 2 0 0.0994487 0.0574861
297 1 29.9979 4.07209 1.02303 4 0.000442351 2 0 0.0994487 -0.275217
298 1 31.0296 3.97382 0.373364 4 0.000206851 2 0 0.0994487 0.657582
299 1 30.2046 4.67765 0.491317 4 0.000570239 2 0 0.0994487 0.00995748
300 1 30.9783 4.59929 1.41131 4 0.000315422 2 0 0.0994487 0.679912
301 1 0.908283 5.53205 0.461647 4 7.76481e-11 2 0 0.0994487 -0.463785
302 1 1.53161 5.51184 1.37971 4 1.69849e-10 2 0 0.0994487 -0.117387
303 1 0.793684 6.22023 1.2768 4 9.02212e-11 2 0 0.0994487 -0.703381
304 1 0.257003 6.91734 1.50738 4 5.67798e-11 2 0 0.0994487 -0.772633
305 1 0.969942 6.9454 0.573423 4 1.60356e-10 2 0 0.0994487 -0.473533
306 1 1.7053 7.02884 1.23811 4 4.2024e-10 2 0 0.0994487 0.0665183
307 1 1.89588 6.19966 0.519025 4 4.10582e-10 2 0 0.0994487 -0.1564
308 1 3.10475 5.61709 1.30057 4 1.57016e-09 2 0 0.0994487 0.040253
309 1 2.26359 6.15348 1.40977 4 5.96888e-10 2 0 0.0994487 0.0408563
310 1 3.25442 6.96226 1.12748 4 3.92538e-09 2 0 0.0994487 -0.054123
311 1 2.68177 5.61289 0.273587 4 8.80254e-10 2 0 0.0994487 -0.0596854
312 1 3.39503 6.28191 0.500536 4 3.55244e-09 2 0 0.0994487 -0.121444
313 1 4.18979 5.46246 0.325783 4 6.1503e-09 2 0 0.0994487 0.0310182
314 1 4.93434 5.42873 1.31778 4 1.77857e-08 2 0 0.0994487 -0.235099
315 1 4.13622 6.09659 1.22779 4 9.00923e-09 2 0 0.0994487 -0.0893883
316 1 4.82567 6.23357 0.333842 4 2.13069e-08 2 0 0.0994487 -0.0345752
317 1 4.77312 6.79931 1.15967 4 3.005e-08 2 0 0.0994487 -0.305929
318 1 4.00267 7.02511 0.221759 4 1.03433e-08 2 0 0.0994487 -0.0853435
319 1 5.78575 5.42185 0.301847 4 4.32582e-08 2 0 0.0994487 0.0125029
320 1 5.6935 6.24342 0.9632 4 6.82615e-08 2 0 0.0994487 -0.96778
321 1 6.4578 5.98425 1.59671 4 1.40918e-07 2 0 0.0994487 0.140915
322 1 6.43234 6.86927 1.00965 4 2.37159e-07 2 0 0.0994487 0.851677
323 1 6.37773 6.04115 0.154639 4 1.06841e-07 2 0 0.0994487 0.111113
324 1 5.54993 7.05206 0.147147 4 7.01295e-08 2 0 0.0994487 0.036387
325 1 8.21355 5.31419 0.694273 4 8.25528e-07 2 0 0.0994487 -0.0895895
326 1 7.32761 6.15925 0.754293 4 4.55637e-07 2 0 0.0994487 0.225734
327 1 7.39163 5.41839 1.49138 4 3.19746e-07 2 0 0.0994487 0.136755
328 1 8.23884 6.11028 1.49159 4 1.31566e-06 2 0 0.0994487 0.0187384
329 1 8.01352 6.85364 0.728993 4 1.50071e-06 2 0 0.0994487 0.0691885
330 1 7.28191 6.86379 1.59601 4 6.64178e-07 2 1 0.0994487 0.126051
331 1 7.33029 5.3575 0.0461812 4 2.31349e-07 2 0 0.0994487 0.0813575
332 1 9.76796 5.3194 0.792562 4 4.30055e-06 2 0 0.0994487 0.328451
333 1 8.88016 6.18865 0.736908 4 2.845e-06 2 0 0.0994487 -0.235539
334 1 9.05434 5.3271 1.5973 4 2.05648e-06 2 0 0.0994487 -0.0628299
335 1 9.73844 6.19052 1.46731 4 7.2681e-06 2 0 0.0994487 -0.106403
336 1 9.09351 6.95013 1.463 4 5.89238e-06 2 2 0.0994487 -0.0756739
337 1 9.76329 6.23201 0.0941385 4 6.34713e-06 2 0 0.0994487 -0.0359511
338 1 8.99733 5.46479 0.012702 4 1.75237e-06 2 0 0.0994487 -0.134753
339 1 10.5831 6.02196 0.964384 4 1.5468e-05 2 0 0.0994487 -0.356496
340 1 11.3128 6.37134 0.0776634 4 2.83029e-05 2 0 0.0994487 0.100342
341 1 10.5187 6.94145 0.15452 4 1.89873e-05 2 0 0.0994487 -0.0735395
342 1 10.4686 6.92564 1.49614 4 2.34484e-05 2 1 0.0994487 -0.0635318
343 1 11.9994 5.6274 0.183157 4 4.34403e-05 2 0 0.0994487 -0.0105296
344 1 12.6757 5.81849 0.861776 4 0.000105599 2 0 0.0994487 0.0817504
345 1 11.7774 6.20735 1.05291 4 5.35548e-05 2 0 0.0994487 0.292173
346 1 13.3219 5.86668 1.55471 4 0.000186245 2 0 0.0994487 0.208168
347 1 13.3506 6.58297 0.813679 4 0.000307696 2 0 0.0994487 -0.292118
348 1 13.3212 5.53867 0.0424813 4 0.000154099 2 0 0.0994487 -0.142909
349 1 14.0617 5.71565 0.77266 4 0.000353058 2 0 0.0994487 -0.37267
350 1 14.3278 6.65176 1.40646 4 0.00080372 2 1 0.0994487 -0.10311
351 1 14.1303 6.38483 0.0380077 4 0.000446047 2 0 0.0994487 -0.0826092
352 1 15.0282 5.64393 0.034369 4 0.000647215 2 0 0.0994487 0.0573666
353 1 15.8305 5.73813 0.95832 4 0.00143394 2 0 0.0994487 0.625811
354 1 15.0472 6.45091 0.806774 4 0.00120978 2 0 0.0994487 -0.176049
355 1 16.491 6.45257 1.1401 4 0.00362058 2 0 0.0994487 0.20834
356 1 15.1058 5.87594 1.69804 4 0.000945253 2 0 0.0994487 -0.0976562
357 1 16.62 5.41933 0.276819 4 0.00188304 2 0 0.0994487 0.0799308
358 1 15.6753 6.3382 0.0390223 4 0.0015553 2 0 0.0994487 0.0398535
359 1 17.8271 5.30128 0.541411 4 0.00381284 2 0 0.0994487 0.150342
360 1 17.113 5.42499 1.24767 4 0.00290147 2 0 0.0994487 -0.286554
361 1 17.0619 6.27419 0.411469 4 0.00435872 2 0 0.0994487 0.13896
362 1 17.6649 6.24649 1.38542 4 0.00679837 2 0 0.0994487 -0.254233
363 1 18.2745 7.0517 1.13153 4 0.0151747 2 1 0.0994487 0.631173
364 1 18.3714 6.23173 0.609762 4 0.010074 2 0 0.0994487 0.156198
365 1 19.429 5.75829 0.62055 4 0.0141235 2 0 0.0994487 0.0572094
366 1 19.3279 6.55755 1.35081 4 0.0229089 2 1 0.0994487 0.274761
367 1 19.9942 6.75229 0.610261 4 0.0380479 2 0 0.0994487 -0.0118862
368 1 20.7494 5.77593 0.653722 4 0.0289778 2 0 0.0994487 -0.104019
369 1 20.1931 5.61076 1.39557 4 0.0196767 2 0 0.0994487 0.312059
370 1 20.7787 6.6124 1.30355 4 0.056873 2 1 0.0994487 -0.346887
371 1 21.6592 6.66248 0.666524 4 0.0675561 2 0 0.0994487 -0.044357
372 1 21.6631 5.87866 1.38528 4 0.0455117 2 0 0.0994487 0.0413917
373 1 21.6904 5.73259 0.0517844 4 0.0335974 2 0 0.0994487 -0.00148609
374 1 22.6732 5.8279 0.674154 4 0.0460744 2 0 0.0994487 0.00272438
375 1 22.6319 6.69333 1.20734 4 0.0903509 2 0 0.0994487 -0.200118
376 1 23.3484 6.78052 0.267835 4 0.0785882 2 0 0.0994487 -0.125271
377 1 23.4822 5.88496 1.30013 4 0.0519132 2 0 0.0994487 -0.176007
378 1 24.3197 6.56281 1.15825 4 0.0659551 2 0 0.0994487 0.176282
379 1 24.1457 6.00685 0.427617 4 0.0453052 2 0 0.0994487 0.00245231
380 1 25.6831 5.86213 0.700952 4 0.024703 2 0 0.0994487 0.163907
381 1 25.1124 6.04132 1.67733 4 0.0355391 2 0 0.0994487 0.00367618
382 1 25.1593 6.74159 0.495153 4 0.0497675 2 0 0.0994487 0.0904017
383 1 25.8251 6.59457 1.40775 4 0.0355363 2 0 0.0994487 0.0881111
384 1 26.6903 5.84511 1.4763 4 0.0149347 2 0 0.0994487 0.0917639
385 1 27.4966 5.54334 0.722172 4 0.00720078 2 0 0.0994487 -0.251571
386 1 26.7485 6.36567 0.651888 4 0.0189279 2 0 0.0994487 0.0387514
387 1 27.7011 6.47315 1.36539 4 0.0110372 2 0 0.0994487 0.131489
388 1 28.3648 5.52203 1.4872 4 0.00392563 2 0 0.0994487 0.045633
389 1 27.7097 7.0074 0.530173 4 0.0135908 2 0 0.0994487 0.0321183
390 1 29.3889 5.30889 0.818726 4 0.00167173 2 0 0.0994487 0.316743
391 1 29.4379 6.18214 1.32212 4 0.00241266 2 0 0.0994487 -0.00338255
392 1 29.5784 6.89773 0.506505 4 0.00297455 2 0 0.0994487 0.0925835
393 1 28.4685 6.20589 0.638647 4 0.00511187 2 0 0.0994487 -0.270083
394 1 29.3762 6.15398 0.0801838 4 0.00231728 2 0 0.0994487 0.0969265
395 1 28.4822 5.38976 0.0592959 4 0.00289304 2 0 0.0994487 -0.105002
396 1 30.9636 5.36838 0.595026 4 0.000537679 2 0 0.0994487 0.667853
397 1 30.2159 5.45949 1.46813 4 0.000892997 2 0 0.0994487 0.0540206
398 1 30.3958 6.18258 0.649752 4 0.00119263 2 0 0.0994487 0.328998
399 1 31.2189 6.15516 1.38439 4 0.000635343 2 0 0.0994487 0.587258
400 1 31.1994 6.95407 0.60342 4 0.000930078 2 0 0.0994487 0.812248
401 1 31.7235 5.99622 0.446564 4 0.000433422 2 0 0.0994487 0.87973
402 1 0.261851 7.63199 0.661866 4 8.43335e-11 2 0 0.0994487 -0.876373
403 1 0.831025 8.46344 0.61936 4 2.17409e-10 2 0 0.0994487 -0.577626
404 1 1.11211 7.86396 1.49711 4 2.35968e-10 2 0 0.0994487 -0.154428
405 1 0.356955 8.5626 1.47035 4 1.14558e-10 2 0 0.0994487 -0.764984
406 1 1.59266 7.76478 0.37187 4 4.85924e-10 2 0 0.0994487 -0.0897877
407 1 1.72382 8.61735 1.46471 4 7.25427e-10 2 0 0.0994487 0.039597
408 1 2.48799 7.14986 0.476331 4 1.47027e-09 2 0 0.0994487 -0.0836957
409 1 2.19177 8.6335 0.399707 4 1.49059e-09 2 0 0.0994487 -0.137267
410 1 2.39416 7.81099 1.27726 4 1.55407e-09 2 0 0.0994487 0.0869924
411 1 3.01349 8.51445 0.935533 4 4.74778e-09 2 0 0.0994487 -0.539311
412 1 3.24418 7.77117 0.327041 4 5.03966e-09 2 0 0.0994487 -0.196204
413 1 3.81243 8.45898 0.0822892 4 1.15147e-08 2 0 0.0994487 -0.0457782
414 1 3.97971 7.67009 1.24863 4 1.36614e-08 2 0 0.0994487 -0.0554884
415 1 4.70459 8.25653 0.921772 4 4.37701e-08 2 0 0.0994487 0.295338
416 1 4.67023 7.63706 0.247803 4 3.05457e-08 2 0 0.0994487 0.0376925
417 1 3.81127 8.34851 1.76162 4 1.14108e-08 2 0 0.0994487 -0.0574357
418 1 5.86955 8.34822 0.169905 4 1.66427e-07 2 0 0.0994487 0.113106
419 1 5.48363 7.59071 1.03232 4 1.02851e-07 2 0 0.0994487 -0.467661
420 1 6.49365 7.53799 0.169175 4 2.81108e-07 2 0 0.0994487 0.187624
421 1 6.39674 8.23976 1.04384 4 4.2706e-07 2 0 0.0994487 0.338161
422 1 7.28583 7.76918 0.746313 4 1.03378e-06 2 1 0.0994487 0.0099379
423 1 8.2859 8.31376 0.868772 4 4.26138e-06 2 2 0.0994487 0.278841
424 1 7.27857 8.18368 1.7015 4 1.49712e-06 2 2 0.0994487 -0.174645
425 1 8.05208 7.48784 1.5604 4 2.3726e-06 2 1 0.0994487 0.185102
426 1 7.99895 7.60312 0.0282118 4 1.54647e-06 2 0 0.0994487 0.0674136
427 1 9.84313 7.22199 0.72344 4 1.38513e-05 2 1 0.0994487 -0.346913
428 1 8.91207 7.61626 0.661731 4 6.04433e-06 2 1 0.0994487 0.158744
429 1 9.73234 8.61964 0.693151 4 2.23429e-05 2 3 0.0994487 -0.257265
430 1 9.09265 8.69904 1.44495 4 1.43712e-05 2 9 0.0994487 -0.3946
431 1 9.64026 7.88932 1.60055 4 1.93419e-05 2 8 0.0994487 -0.34019
432 1 11.3161 7.14287 0.810636 4 5.46105e-05 2 1 0.0994487 0.448482
433 1 10.5731 7.9454 0.844311 4 3.99291e-05 2 3 0.0994487 -0.198619
434 1 10.5877 8.70196 1.4255 4 6.09966e-05 1 8 0.0994487 -0.148017
435 1 11.4057 7.80503 1.60301 4 9.73098e-05 2 7 0.0994487 0.228048
436 1 11.227 8.11851 0.0422735 4 5.71544e-05 2 0 0.0994487 0.174327
437 1 12.7061 7.28322 0.565784 4 0.000238249 2 0 0.0994487 -0.0531425
438 1 12.178 8.23518 0.590765 4 0.000203439 2 2 0.0994487 0.163923
439 1 12.0637 7.15788 1.37768 4 0.000128721 2 3 0.0994487 0.145607