ITEM: TIMESTEP
37500
ITEM: NUMBER OF ATOMS
9495
ITEM: BOX BOUNDS mm mm mm
0.0000000000000000e+00 6.1692177824601423e+01
-3.3191396091055596e+00 3.4596061641616458e+01
-6.7451342231808098e+01 3.1748021039364001e+01
ITEM: ATOMS id type x y z c_phase c_temp c_surf c_nbond c_visc f_3[1]
2454 1 52.7948 13.7773 -66.5103 0 3.25475 2 0 4.53999e-06 -0.944454
2453 1 52.7106 13.7715 -67.5611 0 3.22547 2 0 4.53999e-06 -0.64887
2149 1 53.4212 12.9761 -66.9642 0 3.2851 2 0 4.53999e-06 -0.499362
2101 1 53.7212 13.4678 -66.1962 0 3.31959 2 0 4.53999e-06 -0.806644
1924 1 54.0585 12.32 -66.3375 0 3.33932 2 0 4.53999e-06 -0.403209
1560 1 54.4522 13.0548 -67.194 0 3.35338 2 0 4.53999e-06 0.158548
1561 1 55.0968 12.5244 -66.5125 0 3.43697 2 0 4.53999e-06 0.277633
1196 1 55.3087 13.5887 -66.7033 0 3.50472 2 0 4.53999e-06 0.354399
3628 1 55.9216 13.1299 -66.1208 0 3.77781 2 0 4.53999e-06 0.510267
2099 1 50.5924 15.5124 -66.8308 0 2.96187 3 0 4.53999e-06 -0.960469
2100 1 52.819 14.9014 -67.2479 0 3.22263 2 0 4.53999e-06 -0.586951
1865 1 53.4215 14.508 -66.3591 0 3.28525 2 0 4.53999e-06 -0.87057
1920 1 53.6413 13.93 -67.207 0 3.28487 2 0 4.53999e-06 -0.0824978
1464 1 54.0342 14.849 -67.0699 0 3.30609 2 0 4.53999e-06 0.0527209
1143 1 54.4696 13.9776 -66.725 0 3.37133 2 0 4.53999e-06 0.175062
1142 1 54.4041 14.8021 -66.1891 0 3.35827 2 0 4.53999e-06 -0.0151957
4521 1 55.2929 14.7395 -66.9774 0 3.47714 2 0 4.53999e-06 0.311832
4544 1 56.1458 14.1134 -66.5333 0 3.90877 2 0 4.53999e-06 0.566079
9332 1 55.4157 15.2493 -65.9731 0 3.48728 2 0 4.53999e-06 0.235585
2150 1 54.5368 11.9229 -65.3612 0 3.35477 2 0 4.53999e-06 -0.325516
1562 1 55.5437 12.1041 -64.6756 0 3.38763 2 0 4.53999e-06 -0.0599023
2503 1 53.9878 12.9149 -65.4368 0 3.3496 2 0 4.53999e-06 -0.761457
2460 1 54.2466 13.6775 -64.7968 0 3.35743 2 0 4.53999e-06 -0.676534
2105 1 54.8063 12.8886 -64.8452 0 3.3944 2 0 4.53999e-06 -0.581205
900 1 54.8349 13.2716 -65.8332 0 3.42891 1 0 4.53999e-06 -0.290662
1921 1 55.4519 12.5782 -65.5132 0 3.46277 2 0 4.53999e-06 0.24562
1149 1 55.6314 13.4063 -64.8502 0 3.47407 1 0 4.53999e-06 -0.0225901
1201 1 56.357 13.0688 -65.1809 0 3.57904 1 0 4.53999e-06 0.546374
4545 1 55.7407 13.7796 -65.5602 0 3.55861 1 0 4.53999e-06 0.727306
2153 1 56.3785 12.5462 -64.3126 0 3.42674 2 0 4.53999e-06 0.0422488
4113 1 57.3328 13.1176 -64.9811 0 3.85963 2 0 4.53999e-06 0.722314
4522 1 56.8673 13.5482 -65.9424 0 4.00448 2 0 4.53999e-06 0.777062
9333 1 56.5058 13.6288 -64.4139 0 3.52389 1 0 4.53999e-06 0.893138
7200 1 52.4838 15.1194 -65.0598 0 3.17615 2 0 4.53999e-06 -0.922256
1870 1 53.4883 14.3917 -65.3655 0 3.29538 2 0 4.53999e-06 -0.939931
1465 1 53.8572 15.1461 -64.7968 0 3.29408 2 0 4.53999e-06 -0.324489
6588 1 53.554 14.2559 -64.3188 0 3.28208 2 0 4.53999e-06 -0.699754
6299 1 53.3854 15.3456 -65.808 0 3.26671 2 0 4.53999e-06 -0.550715
1469 1 54.2545 14.0119 -65.6498 0 3.36264 1 0 4.53999e-06 -0.9634
6032 1 54.5724 14.49 -64.2693 0 3.34991 2 0 4.53999e-06 -0.349928
6028 1 54.3825 15.535 -65.6156 0 3.33446 2 0 4.53999e-06 0.0173182
906 1 54.7427 14.7887 -65.2029 0 3.38725 1 0 4.53999e-06 -0.0498651
8451 1 55.0898 14.1913 -65.8704 0 3.46179 1 0 4.53999e-06 0.234064
3632 1 55.0561 14.0247 -64.8329 0 3.42194 1 0 4.53999e-06 -0.421284
9330 1 55.7634 14.5547 -65.1874 0 3.53065 1 0 4.53999e-06 0.368391
8452 1 55.5193 14.8543 -64.3457 0 3.43477 2 0 4.53999e-06 -0.0400362
9219 1 56.2676 15.4173 -65.0151 0 3.55023 2 0 4.53999e-06 0.354183
4130 1 56.6716 14.1475 -65.202 0 3.82539 2 0 4.53999e-06 0.843592
4109 1 56.4119 14.8361 -65.9166 0 3.91901 2 0 4.53999e-06 0.644057
9222 1 56.5945 14.6343 -64.3223 0 3.52697 2 0 4.53999e-06 0.473536
4114 1 57.4469 14.0218 -64.4484 0 3.81471 2 0 4.53999e-06 0.729778
2151 1 55.9609 11.9971 -63.53 0 3.30354 2 0 4.53999e-06 -0.595334
952 1 56.9827 11.6579 -63.3665 0 3.27129 2 0 4.53999e-06 -0.15008
4587 1 58.5276 11.7213 -62.864 0 3.25927 2 0 4.53999e-06 0.420007
2551 1 55.3353 12.7888 -63.9956 0 3.37318 2 0 4.53999e-06 -0.654147
2104 1 55.9629 13.1072 -63.2971 0 3.34893 2 0 4.53999e-06 -0.651877
2457 1 55.4849 13.7518 -64.0299 0 3.40318 1 0 4.53999e-06 -0.513199
1928 1 56.8861 12.7391 -63.3451 0 3.35394 1 0 4.53999e-06 -0.78216
3522 1 57.7456 12.3484 -63.305 0 3.3282 2 0 4.53999e-06 0.274487
3630 1 57.3206 12.2338 -64.2277 0 3.41975 2 0 4.53999e-06 0.337147
903 1 57.3337 13.1489 -63.988 0 3.47827 1 0 4.53999e-06 0.642159
3631 1 57.8413 13.2209 -62.964 0 3.35684 1 0 4.53999e-06 0.208615
3629 1 56.6815 13.6642 -63.5339 0 3.41678 1 0 4.53999e-06 -0.258943
7556 1 57.0964 13.719 -62.5986 0 3.31728 2 0 4.53999e-06 -0.545462
8992 1 58.3227 13.1899 -63.8416 0 3.70463 2 0 4.53999e-06 0.732949
4125 1 58.5192 12.6937 -62.9478 0 3.32666 1 0 4.53999e-06 0.668718
6967 1 54.6482 14.2618 -63.1516 0 3.26421 2 0 4.53999e-06 -0.514052
7563 1 55.9991 14.3513 -63.5937 0 3.39714 2 0 4.53999e-06 -0.092815
6973 1 56.0374 14.0029 -62.6079 0 3.29622 2 0 4.53999e-06 -0.411242
9329 1 57.593 13.8865 -63.4464 0 3.4477 2 0 4.53999e-06 0.266512
9428 1 58.7443 14.0008 -63.2141 0 3.75801 2 0 4.53999e-06 0.643149
2547 1 56.3085 11.7281 -62.4705 0 3.18804 2 0 4.53999e-06 -0.767953
1195 1 57.7779 10.8352 -61.251 0 3.09573 2 0 4.53999e-06 -0.489338
1008 1 57.4091 11.09 -62.3109 0 3.15936 2 0 4.53999e-06 -0.3643
1199 1 57.7606 11.8497 -61.2975 0 3.16334 2 0 4.53999e-06 -0.804519
1922 1 57.4579 11.9861 -62.4521 0 3.23112 2 0 4.53999e-06 -0.696468
4325 1 58.8608 11.0006 -61.3306 0 3.16721 2 0 4.53999e-06 0.175634
3519 1 58.2976 11.5607 -61.9519 0 3.19521 2 0 4.53999e-06 -0.00397933
4520 1 59.1886 11.8722 -61.7042 0 3.26041 1 0 4.53999e-06 0.562826
954 1 58.7007 11.8372 -60.9964 0 3.19305 1 0 4.53999e-06 -0.285726
8448 1 59.5264 12.0464 -60.8075 0 3.27662 1 0 4.53999e-06 0.708252
3870 1 60.2202 11.8469 -61.7879 0 3.72344 2 0 4.53999e-06 0.668567
1866 1 57.2475 12.8169 -62.4838 0 3.27772 1 0 4.53999e-06 -0.925112
7205 1 57.5589 12.6912 -61.5173 0 3.19471 1 0 4.53999e-06 -0.921649
1148 1 58.1703 12.424 -62.2142 0 3.24833 1 0 4.53999e-06 -0.205072
1466 1 58.001 13.1714 -62.0769 0 3.2631 1 0 4.53999e-06 -0.515883
6298 1 57.5722 13.8043 -61.5104 0 3.20621 2 0 4.53999e-06 -0.526873
1869 1 58.593 12.4686 -61.5806 0 3.23006 1 0 4.53999e-06 0.31617
9220 1 59.391 12.7328 -61.3879 0 3.29574 1 0 4.53999e-06 0.860194
4548 1 59.1903 12.5452 -62.2985 0 3.3066 1 0 4.53999e-06 0.741069
9334 1 58.7065 13.3281 -62.3648 0 3.32469 1 0 4.53999e-06 0.646507
9218 1 59.5631 13.4132 -61.9292 0 3.55348 2 0 4.53999e-06 0.691018
6608 1 58.3497 13.0819 -61.2391 0 3.20809 1 0 4.53999e-06 -0.368024
7557 1 58.7496 13.7182 -61.5256 0 3.26216 2 0 4.53999e-06 0.206351
9171 1 59.7587 13.5736 -60.8821 0 3.31022 2 0 4.53999e-06 0.441781
8739 1 60.5024 12.8177 -61.3616 0 3.72611 2 0 4.53999e-06 0.819072
8449 1 58.0429 14.1917 -62.4163 0 3.33154 2 0 4.53999e-06 0.0400988
1976 1 58.5927 11.3335 -60.2707 0 3.13686 2 0 4.53999e-06 -0.560952
955 1 59.3561 11.3332 -59.5966 0 3.16168 1 0 4.53999e-06 -0.463651
4417 1 59.6732 11.1322 -60.6067 0 3.2498 2 0 4.53999e-06 0.281142
2553 1 58.9887 12.2355 -60.0407 0 3.17237 1 0 4.53999e-06 -0.810949
4518 1 59.8184 12.0026 -59.8326 0 3.25194 1 0 4.53999e-06 0.30615
2656 1 59.1314 12.1359 -59.1381 0 3.11833 1 0 4.53999e-06 -0.969203
4588 1 60.0493 10.7403 -59.4524 0 3.18562 2 0 4.53999e-06 0.196707
4227 1 61.0944 11.2864 -59.9923 0 3.75317 2 0 4.53999e-06 0.667825
4519 1 60.4524 11.8568 -60.5823 0 3.60357 2 0 4.53999e-06 0.706309
3520 1 60.5335 11.4418 -59.137 0 3.28358 1 0 4.53999e-06 0.550725
7202 1 58.0004 12.6483 -59.7386 0 3.04436 2 0 4.53999e-06 -0.89702
7203 1 58.2538 12.4624 -60.7045 0 3.16167 1 0 4.53999e-06 -0.776068
6604 1 57.3103 13.2545 -60.5865 0 3.09148 2 0 4.53999e-06 -0.879517
7474 1 57.9516 13.6787 -59.2469 0 2.91357 2 0 4.53999e-06 -0.527299
6027 1 58.3937 13.5229 -60.3093 0 3.11157 2 0 4.53999e-06 -0.240986
7204 1 59.0364 12.771 -60.6849 0 3.21459 1 0 4.53999e-06 0.0700897
6304 1 59.7956 12.6657 -59.3238 0 3.21283 1 0 4.53999e-06 -0.0923982
6908 1 58.8096 13.0416 -59.1515 0 3.0577 2 0 4.53999e-06 -0.525626
6030 1 59.3708 13.2787 -59.9298 0 3.19053 1 0 4.53999e-06 0.0442325
902 1 60.5534 12.2354 -59.4865 0 3.35228 1 0 4.53999e-06 0.826791
4546 1 61.446 12.1488 -59.2694 0 3.68019 2 0 4.53999e-06 0.956473
3213 1 61.2947 12.4434 -60.4222 0 3.86705 2 0 4.53999e-06 0.869042
7555 1 59.9996 12.7082 -60.3989 0 3.33152 1 0 4.53999e-06 0.714021
9221 1 60.6462 13.0968 -59.7617 0 3.59385 2 0 4.53999e-06 0.502299
1253 1 59.2974 10.3346 -58.706 0 3.03104 2 0 4.53999e-06 -0.37329
2598 1 59.0499 11.3815 -58.6721 0 3.07915 2 0 4.53999e-06 -0.817604
1010 1 59.908 11.1735 -58.4913 0 3.14615 1 0 4.53999e-06 -0.013045
3425 1 59.2811 11.1779 -57.6459 0 3.05588 2 0 4.53999e-06 -0.674527
4630 1 60.041 10.7089 -57.3195 0 3.10899 2 0 4.53999e-06 -0.00130516
2599 1 59.5131 11.8537 -57.9805 0 3.09166 1 0 4.53999e-06 -0.83287
2552 1 60.0255 12.0371 -58.5466 0 3.18138 1 0 4.53999e-06 0.0284763
4420 1 60.6593 11.0454 -57.9954 0 3.38727 2 0 4.53999e-06 0.515406
1926 1 60.3033 11.7156 -57.6986 0 3.1678 1 0 4.53999e-06 0.427028
901 1 61.062 11.7302 -58.4234 0 3.3111 1 0 4.53999e-06 0.815276
4547 1 61.1592 11.8138 -57.4483 0 3.26814 1 0 4.53999e-06 0.853907
7373 1 57.9769 12.867 -58.422 0 2.89072 2 0 4.53999e-06 -0.969955
7152 1 58.813 12.2721 -58.2565 0 3.02437 1 0 4.53999e-06 -0.991879
6297 1 58.9233 13.1933 -57.9707 0 2.98793 2 0 4.53999e-06 -0.489028
6970 1 59.549 12.6647 -58.4602 0 3.11433 1 0 4.53999e-06 -0.533204
7376 1 59.3083 12.3598 -57.425 0 3.03899 1 0 4.53999e-06 -0.976849
6245 1 59.6463 13.1164 -57.2851 0 3.06486 1 0 4.53999e-06 -0.347658
6301 1 60.1174 12.7659 -57.8956 0 3.16358 1 0 4.53999e-06 -0.0996254
4516 1 60.626 12.4628 -58.6004 0 3.28168 1 0 4.53999e-06 0.802422
3873 1 61.6534 12.3658 -58.0832 0 3.58576 2 0 4.53999e-06 0.99289
8546 1 60.9581 12.7848 -57.8675 0 3.29006 1 0 4.53999e-06 0.797744
8944 1 61.2196 13.0637 -58.8092 0 3.58758 2 0 4.53999e-06 0.715045
8547 1 60.2 13.2648 -58.8021 0 3.23983 1 0 4.53999e-06 0.00410294
9122 1 60.6631 13.6979 -58.0492 0 3.24248 2 0 4.53999e-06 0.130375
1255 1 59.7662 11.5169 -56.9639 0 3.0683 1 0 4.53999e-06 -0.404509
1685 1 58.8618 11.4441 -55.6128 0 2.91631 2 0 4.53999e-06 -0.736703
4229 1 59.7354 10.9852 -56.1047 0 3.00791 2 0 4.53999e-06 -0.0610605
3521 1 59.7038 11.7742 -55.5871 0 2.99869 1 0 4.53999e-06 0.130204
6905 1 59.0649 11.91 -56.5761 0 2.97617 1 0 4.53999e-06 -0.922458
4591 1 60.7289 11.2204 -56.8503 0 3.34033 2 0 4.53999e-06 0.574334
1923 1 60.2576 11.7473 -56.2642 0 3.08859 1 0 4.53999e-06 0.508057
9331 1 61.0057 12.1228 -56.3897 0 3.20546 1 0 4.53999e-06 0.846262
6450 1 58.3022 12.4429 -57.2458 0 2.90294 2 0 4.53999e-06 -0.976809
6590 1 59.957 12.2555 -57.0099 0 3.09503 1 0 4.53999e-06 -0.645227
7374 1 59.5139 12.4124 -56.0931 0 2.99933 1 0 4.53999e-06 -0.911344
6605 1 60.0948 12.862 -56.4622 0 3.08164 1 0 4.53999e-06 0.0512409
6240 1 58.97 12.9608 -56.6253 0 2.95777 2 0 4.53999e-06 -0.758072
9429 1 59.4066 13.2599 -55.7671 0 2.9534 2 0 4.53999e-06 -0.321339
6972 1 60.5943 12.3955 -57.2298 0 3.19387 1 0 4.53999e-06 0.915893
9168 1 61.4222 13.303 -57.2639 0 3.56739 2 0 4.53999e-06 0.70616
8447 1 60.2925 12.4212 -55.6952 0 3.08235 1 0 4.53999e-06 0.809459
8989 1 61.7162 12.4527 -56.9369 0 3.57619 2 0 4.53999e-06 0.961164
9169 1 60.9814 13.0236 -56.3044 0 3.39756 2 0 4.53999e-06 0.669384
7662 1 60.506 13.2921 -57.1379 0 3.18663 1 0 4.53999e-06 0.120382
2452 1 57.9439 11.5398 -54.0088 0 2.82831 2 0 4.53999e-06 -0.735343
4326 1 59.4324 11.2 -54.8504 0 2.94325 2 0 4.53999e-06 0.11938
1569 1 58.7864 11.8278 -54.5714 0 2.90414 2 0 4.53999e-06 -0.623605
1259 1 58.8338 11.0638 -53.9448 0 2.87124 2 0 4.53999e-06 -0.00109515
4331 1 59.8062 11.6885 -54.1019 0 3.17226 2 0 4.53999e-06 0.737319
1563 1 59.5805 12.0892 -54.8169 0 2.9749 1 0 4.53999e-06 0.844973
4515 1 60.4761 11.7606 -54.9845 0 3.28511 2 0 4.53999e-06 0.783425
6513 1 58.0943 12.5069 -54.4673 0 2.84615 2 0 4.53999e-06 -0.833126
6907 1 58.9542 12.328 -55.394 0 2.92381 1 0 4.53999e-06 -0.927825
7559 1 58.7982 13.0773 -54.9487 0 2.88205 2 0 4.53999e-06 -0.461367
2548 1 58.9866 12.5374 -54.3398 0 2.91801 2 0 4.53999e-06 0.110455
7554 1 59.7466 12.8291 -54.9973 0 2.97562 2 0 4.53999e-06 0.38574
9224 1 59.6211 12.6473 -53.8556 0 3.14791 2 0 4.53999e-06 0.757913
8945 1 58.6085 13.1725 -53.8584 0 2.87349 2 0 4.53999e-06 -0.00645031
9123 1 60.3822 13.3015 -55.528 0 3.06071 2 0 4.53999e-06 0.351699
3872 1 61.1492 12.57 -55.214 0 3.47269 2 0 4.53999e-06 0.831035
4419 1 57.6571 11.9887 -52.1221 0 2.84776 2 0 4.53999e-06 -0.0378007
2201 1 57.5982 12.0926 -53.0222 0 2.8349 2 0 4.53999e-06 -0.846955
1198 1 59.0449 11.9095 -53.7394 0 3.04844 2 0 4.53999e-06 0.623251
4330 1 58.3778 11.5679 -53.0952 0 2.87545 2 0 4.53999e-06 0.019495
4228 1 58.562 11.8534 -52.2374 0 3.11406 2 0 4.53999e-06 0.590438
6031 1 57.8755 12.8693 -53.3648 0 2.85072 2 0 4.53999e-06 -0.695086
2154 1 56.9624 12.4435 -52.0431 0 2.76978 2 0 4.53999e-06 -0.573821
9223 1 57.5758 13.0407 -52.3412 0 2.8448 2 0 4.53999e-06 -0.37245
1567 1 58.127 12.4744 -52.676 0 2.89344 2 0 4.53999e-06 0.301167
1566 1 58.3242 12.2205 -53.7233 0 2.88098 2 0 4.53999e-06 -0.92546
6303 1 58.7363 12.5263 -53.2389 0 3.03747 2 0 4.53999e-06 0.826277
4549 1 58.7835 12.7359 -52.3576 0 3.1201 2 0 4.53999e-06 0.870907
8600 1 58.3621 13.4166 -52.7701 0 2.8831 2 0 4.53999e-06 0.210099
1681 1 54.3004 11.9418 -50.5079 0 2.44324 2 0 4.54002e-06 -0.508736
1688 1 56.0791 11.9733 -51.7626 0 2.62762 2 0 4.54e-06 -0.552055
1313 1 55.9983 11.5281 -50.7921 0 2.57048 2 0 4.54e-06 -0.122992
1011 1 56.9169 11.6428 -51.632 0 2.72417 2 0 4.53999e-06 -0.0255532
4328 1 57.5702 12.0017 -51.1256 0 2.97868 2 0 4.53999e-06 0.574158
1257 1 56.5092 12.146 -50.9861 0 2.66916 2 0 4.54e-06 0.129416
6237 1 54.0259 13.0013 -50.6211 0 2.44811 2 0 4.54002e-06 -0.568795
7377 1 56.0851 12.8222 -51.5357 0 2.63586 2 0 4.54e-06 -0.586652
2202 1 55.6174 12.2895 -50.9272 0 2.55737 2 0 4.54e-06 -0.614118
7151 1 54.89 12.7437 -50.4394 0 2.48113 2 0 4.54001e-06 -0.448035
7472 1 55.7119 12.9225 -50.5402 0 2.55197 2 0 4.54e-06 -0.102799
6242 1 55.1175 13.5955 -50.5223 0 2.48373 2 0 4.54001e-06 -0.0874056
7558 1 56.4627 13.1669 -50.8678 0 2.65406 2 0 4.54e-06 0.0785532
6243 1 56.8522 13.3045 -51.7849 0 2.73514 2 0 4.53999e-06 -0.293406
4551 1 57.9836 12.6277 -51.7298 0 3.04153 2 0 4.53999e-06 0.758761
1467 1 57.1502 12.6503 -51.339 0 2.90594 2 0 4.53999e-06 0.718029
4232 1 56.9736 12.5615 -50.5199 0 2.871 2 0 4.53999e-06 0.635103
3641 1 57.416 13.3421 -51.0233 0 2.78707 2 0 4.53999e-06 0.397502
3876 1 58.3156 13.4154 -51.4695 0 3.21442 2 0 4.53999e-06 0.602825
4631 1 54.9303 12.0047 -49.1529 0 2.45163 2 0 4.54002e-06 0.21156
1684 1 53.801 12.1172 -49.2586 0 2.46398 2 0 4.54001e-06 -0.424158
3422 1 55.2508 11.8899 -50.2222 0 2.49556 2 0 4.54001e-06 -0.180194
3966 1 56.2741 11.8825 -49.9709 0 2.57089 2 0 4.54e-06 0.392146
7553 1 52.4881 13.3186 -48.7376 0 2.57803 2 0 4.54e-06 -0.291099
7150 1 52.9411 13.4253 -49.6118 0 2.50518 2 0 4.54001e-06 -0.591421
7475 1 53.863 12.898 -49.74 0 2.47045 2 0 4.54001e-06 -0.867273
2208 1 54.5406 12.4468 -49.7797 0 2.46349 2 0 4.54001e-06 -0.363717
9126 1 54.3416 13.6019 -49.9498 0 2.46462 2 0 4.54001e-06 -0.209436
9172 1 53.7513 13.5313 -49.1798 0 2.50968 2 0 4.54001e-06 -0.0692345
956 1 54.3677 12.8391 -48.9824 0 2.47801 2 0 4.54001e-06 0.253753
2655 1 53.2999 12.8779 -48.9512 0 2.53205 2 0 4.54e-06 -0.423223
8943 1 54.6097 13.7107 -49.0208 0 2.48177 2 0 4.54001e-06 0.372053
4416 1 55.4789 12.5422 -49.8024 0 2.50551 2 0 4.54001e-06 0.426095
904 1 56.2872 12.7785 -50.0285 0 2.74273 2 0 4.53999e-06 0.547163
9120 1 55.9562 13.7289 -49.9827 0 2.52005 2 0 4.54e-06 0.381212
7657 1 55.0662 13.214 -49.6331 0 2.47835 2 0 4.54001e-06 0.439734
8898 1 52.8669 14.0523 -48.6045 0 2.5875 2 0 4.54e-06 0.35071
6591 1 49.1312 13.6613 -46.8046 0 2.46248 2 0 4.54001e-06 -0.868307
2597 1 49.8393 13.5009 -47.566 0 2.46291 2 0 4.54001e-06 -0.764713
2205 1 50.749 13.4565 -47.9283 0 2.51367 2 0 4.54001e-06 -0.296854
1683 1 50.3814 12.8456 -47.3738 0 2.4716 2 0 4.54001e-06 -0.215853
953 1 50.4898 13.7269 -47.3087 0 2.49659 2 0 4.54001e-06 -0.738918
4633 1 51.1785 13.1809 -47.4167 0 2.53389 2 0 4.54e-06 0.329686
4121 1 51.2949 13.8735 -47.0726 0 2.66891 2 0 4.54e-06 0.621569
1929 1 51.5854 13.1745 -48.2491 0 2.56416 2 0 4.54e-06 -0.0373907
1056 1 52.4373 12.5883 -48.3037 0 2.56392 2 0 4.54e-06 -0.0401856
9227 1 51.7074 13.6499 -47.6714 0 2.70484 2 0 4.53999e-06 0.846115
4590 1 52.5216 13.4532 -47.8328 0 2.80269 2 0 4.53999e-06 0.665107
3640 1 53.4289 13.4058 -48.2768 0 2.80389 2 0 4.53999e-06 0.5294
6512 1 49.2545 14.5193 -46.7981 0 2.46053 2 0 4.54001e-06 -0.505573
6509 1 50.275 14.1062 -48.0342 0 2.4859 2 0 4.54001e-06 -0.593098
6968 1 51.1716 13.9355 -48.3771 0 2.54054 2 0 4.54e-06 -0.148187
1197 1 49.9107 14.1436 -47.1436 0 2.4684 2 0 4.54001e-06 -0.794158
7658 1 50.4513 14.6471 -47.4651 0 2.48951 2 0 4.54001e-06 -0.30912
6305 1 51.016 14.1642 -47.7473 0 2.53434 2 0 4.54e-06 0.0880087
3281 1 51.2503 14.6175 -47.2653 0 2.53607 2 0 4.54e-06 0.376958
8544 1 51.9662 13.9311 -48.4619 0 2.58297 2 0 4.54e-06 0.280479
8686 1 51.2576 14.8781 -48.298 0 2.52659 2 0 4.54e-06 0.0459287
8595 1 51.871 14.3619 -47.7884 0 2.73957 2 0 4.53999e-06 0.699298
3523 1 48.8449 13.6382 -45.834 0 2.58661 2 0 4.54e-06 0.0675622
1258 1 49.9179 13.3052 -46.7077 0 2.46007 2 0 4.54001e-06 -0.359334
3922 1 50.7203 13.4303 -46.7257 0 2.49316 2 0 4.54001e-06 0.250331
6694 1 47.0568 14.6585 -45.3684 0 2.76787 2 0 4.53999e-06 -0.386778
2652 1 46.8404 13.9232 -44.9203 0 2.82258 2 0 4.53999e-06 -0.231784
8543 1 47.7768 13.9546 -45.5764 0 2.73906 2 0 4.53999e-06 -0.150176
6455 1 47.9153 14.5095 -46.6309 0 2.52503 2 0 4.54e-06 -0.563014
8838 1 48.0072 14.8015 -45.3494 0 2.73718 2 0 4.53999e-06 0.301684
9170 1 48.6995 14.4865 -45.996 0 2.57514 2 0 4.54e-06 0.239583
1565 1 49.8492 14.0485 -46.2879 0 2.46555 2 0 4.54001e-06 -0.00955853
3643 1 50.6139 14.2545 -46.7422 0 2.49076 2 0 4.54001e-06 0.151162
2199 1 45.8602 13.4773 -44.0757 0 2.75594 2 0 4.53999e-06 -0.530522
1260 1 45.2408 13.7526 -43.3596 0 2.69814 2 0 4.53999e-06 -0.896314
1261 1 46.1355 13.7896 -43.5803 0 2.7787 2 0 4.53999e-06 -0.254992
2449 1 46.7341 13.2785 -44.2924 0 2.81662 2 0 4.53999e-06 0.156083
4593 1 47.6366 13.6101 -44.6614 0 3.05031 2 0 4.53999e-06 0.616638
4225 1 46.7855 13.5658 -43.4793 0 2.95594 2 0 4.53999e-06 0.634022
6974 1 45.7231 14.3715 -44.036 0 2.75444 2 0 4.53999e-06 -0.701916
7149 1 45.1589 14.8524 -43.2845 0 2.67783 2 0 4.54e-06 -0.7166
6302 1 45.7387 14.2521 -43.2897 0 2.74507 2 0 4.53999e-06 -0.891441
6906 1 46.139 14.9137 -43.5806 0 2.78633 2 0 4.53999e-06 -0.115614
2152 1 46.3647 14.0172 -44.2624 0 2.81002 2 0 4.53999e-06 -0.353934
7656 1 46.5344 14.6644 -44.4251 0 2.81908 2 0 4.53999e-06 -0.172267
8946 1 47.4502 14.4624 -44.5977 0 3.01278 2 0 4.53999e-06 0.742108
9226 1 46.5696 14.338 -43.4017 0 2.93462 2 0 4.53999e-06 0.705376
4124 1 47.0759 13.9957 -44.0364 0 2.98513 2 0 4.53999e-06 0.962469
8897 1 46.9977 14.7185 -43.8076 0 3.00996 2 0 4.53999e-06 0.643813
3874 1 48.4876 14.1049 -44.8885 0 3.05361 2 0 4.53999e-06 0.822844
1256 1 45.9399 13.2094 -43.1391 0 2.72675 2 0 4.53999e-06 -0.122536
4418 1 45.5505 13.7159 -42.4492 0 2.68503 2 0 4.54e-06 -0.258093
6606 1 44.858 14.3185 -42.5134 0 2.64943 2 0 4.54e-06 -0.961819
8497 1 45.9102 14.5844 -42.7207 0 2.74139 2 0 4.53999e-06 -0.0202134
8270 1 45.4749 14.4003 -41.7328 0 2.66446 2 0 4.54e-06 0.289247
4424 1 46.3284 13.9286 -42.8279 0 2.76933 2 0 4.53999e-06 0.437697
8317 1 46.8808 14.9833 -42.6693 0 3.12818 2 0 4.53999e-06 0.553404
2456 1 42.6529 13.792 -40.1239 0 2.78674 2 0 4.53999e-06 -0.550456
8444 1 43.537 13.664 -40.0924 0 2.84135 2 0 4.53999e-06 0.318384
8450 1 44.6318 13.7737 -41.0983 0 2.74672 2 0 4.53999e-06 0.528538
6508 1 43.5474 14.0244 -40.9937 0 2.74953 2 0 4.53999e-06 -0.325538
6452 1 44.3978 14.6085 -41.3974 0 2.68047 2 0 4.54e-06 -0.178588
9128 1 43.2617 14.5619 -40.1529 0 2.82326 2 0 4.53999e-06 -0.0963021
8500 1 44.1554 14.2759 -40.277 0 3.05133 2 0 4.53999e-06 0.880335
2458 1 42.4559 13.6883 -39.2303 0 2.80381 2 0 4.53999e-06 -0.670149
9427 1 41.9167 13.5401 -38.3735 0 2.76783 2 0 4.53999e-06 -0.795482
2600 1 43.0302 13.1854 -39.4843 0 2.82661 2 0 4.53999e-06 -0.0266528
4324 1 43.4666 13.3302 -38.7968 0 3.02002 2 0 4.53999e-06 0.603945
4415 1 42.74 13.5442 -38.6616 0 2.82207 2 0 4.53999e-06 -0.054434
1691 1 44.1067 13.6834 -39.4243 0 3.09274 2 0 4.53999e-06 0.918537
3967 1 43.077 13.8917 -38.1831 0 2.95019 2 0 4.53999e-06 0.694546
6185 1 41.6055 14.2721 -38.9067 0 2.74749 2 0 4.53999e-06 -0.938323
6241 1 42.5723 14.3855 -39.495 0 2.80379 2 0 4.53999e-06 -0.537085
8738 1 42.4865 14.1916 -38.8569 0 2.80617 1 0 4.53999e-06 -0.826805
8990 1 42.3297 14.135 -38.2403 0 2.79183 2 0 4.53999e-06 -0.741218
3220 1 42.248 14.95 -38.6108 0 2.77358 2 0 4.53999e-06 -0.37206
8263 1 43.1751 13.9439 -39.4444 0 2.84909 2 0 4.53999e-06 0.456108
8314 1 43.1903 14.677 -39.2511 0 2.8417 2 0 4.53999e-06 0.270298
3970 1 43.4393 14.0605 -38.8883 0 2.98145 2 0 4.53999e-06 0.926164
3217 1 44.0537 14.6353 -39.4064 0 3.11022 2 0 4.53999e-06 0.771496
8316 1 42.945 14.4562 -38.5637 0 2.82458 1 0 4.53999e-06 0.441706
2212 1 42.5905 13.1931 -37.8795 0 2.78073 2 0 4.53999e-06 0.105331
1973 1 42.3858 12.818 -36.8393 0 2.71497 2 0 4.53999e-06 0.276974
8442 1 41.8888 13.6162 -37.2788 0 2.75743 2 0 4.53999e-06 -0.807287
5920 1 41.4682 13.2547 -36.2144 0 2.72215 2 0 4.53999e-06 -0.75665
4333 1 42.3504 13.6601 -36.1771 0 3.00983 2 0 4.53999e-06 0.952131
7660 1 41.7682 14.4844 -37.7817 0 2.75879 2 0 4.53999e-06 -0.801899
4116 1 42.5693 13.9992 -37.565 0 2.78848 2 0 4.53999e-06 0.344092
3692 1 42.1501 14.4254 -36.7708 0 2.78444 2 0 4.53999e-06 -0.035959
3207 1 42.7453 14.8484 -37.7553 0 2.80467 2 0 4.53999e-06 0.313595
6458 1 41.1946 12.9925 -35.1447 0 2.66298 2 0 4.54e-06 -0.609731
2022 1 42.3731 13.2706 -35.0144 0 2.88758 2 0 4.53999e-06 0.552706
8213 1 41.6574 13.7544 -34.9551 0 2.75994 2 0 4.53999e-06 -0.659867
7653 1 41.669 14.1126 -35.7525 0 2.77924 2 0 4.53999e-06 -0.65614
3212 1 42.0456 14.9599 -35.5035 0 2.80789 2 0 4.53999e-06 0.0976794
4231 1 42.3989 14.1985 -35.0793 0 2.98734 2 0 4.53999e-06 0.793037
8269 1 41.4493 14.5704 -34.7417 0 2.75817 2 0 4.53999e-06 -0.703807
6182 1 40.9219 13.506 -33.1199 0 2.65096 2 0 4.54e-06 -0.885045
6033 1 41.6961 13.3416 -33.6784 0 2.73234 2 0 4.53999e-06 -0.319417
9225 1 42.0671 13.8361 -34.2188 0 2.78885 2 0 4.53999e-06 0.254998
1789 1 42.6033 13.3565 -33.6632 0 2.94797 2 0 4.53999e-06 0.584782
5917 1 41.1743 13.7296 -34.241 0 2.70948 2 0 4.53999e-06 -0.945208
6515 1 41.9642 13.4693 -32.898 0 2.74937 2 0 4.53999e-06 -0.0347054
1057 1 42.8769 13.6902 -32.7658 0 3.02487 2 0 4.53999e-06 0.796613
9125 1 41.522 14.3311 -33.7951 0 2.75112 1 0 4.53999e-06 -0.901642
8684 1 42.1949 14.659 -34.3037 0 2.80895 2 0 4.53999e-06 0.27015
8102 1 41.8865 15.0883 -33.6077 0 2.77857 2 0 4.53999e-06 -0.219838
8948 1 41.8235 14.2129 -33.1299 0 2.76802 1 0 4.53999e-06 -0.97299
3514 1 42.4317 14.1535 -33.4359 0 2.82231 1 0 4.53999e-06 0.989722
8267 1 41.3522 14.8637 -32.8984 0 2.73296 2 0 4.53999e-06 -0.756113
3920 1 42.328 14.9158 -32.8615 0 2.82862 2 0 4.53999e-06 0.330587
1013 1 42.8521 14.0702 -34.2284 0 3.01995 2 0 4.53999e-06 0.947977
3740 1 42.8056 14.8413 -33.6337 0 3.03807 2 0 4.53999e-06 0.737853
7106 1 41.6312 13.3682 -31.9583 0 2.67782 2 0 4.54e-06 -0.333361
2102 1 42.1671 13.8578 -31.3407 0 2.75346 2 0 4.53999e-06 0.185888
7661 1 41.355 14.1112 -32.4225 0 2.7155 2 0 4.53999e-06 -0.931419
1974 1 42.5513 14.4452 -31.8696 0 2.97832 2 0 4.53999e-06 0.887022
8596 1 42.1863 14.0887 -32.4196 0 2.78961 2 0 4.53999e-06 0.43133
8315 1 41.8765 14.898 -32.1662 0 2.77891 2 0 4.53999e-06 -0.31564
8268 1 41.5979 14.4458 -31.5066 0 2.74435 2 0 4.53999e-06 -0.896125
3423 1 42.3035 15.0913 -31.3066 0 2.87671 2 0 4.53999e-06 0.377021
4014 1 43.086 14.5826 -32.6544 0 3.08008 2 0 4.53999e-06 0.940407
5918 1 41.4915 14.0783 -29.6672 0 2.65812 2 0 4.54e-06 -0.589579
9425 1 41.6553 14.784 -29.2135 0 2.7015 2 0 4.53999e-06 -0.851259
4230 1 41.9002 14.5579 -30.2484 0 2.74716 2 0 4.53999e-06 -0.528609
1925 1 42.356 14.5378 -29.5453 0 2.87477 2 0 4.53999e-06 0.670532
8264 1 41.609 15.1464 -30.7404 0 2.73748 2 0 4.53999e-06 -0.747749
3642 1 41.9009 15.3591 -29.7743 0 2.74573 2 0 4.53999e-06 -0.283463
4321 1 42.5586 14.4645 -30.7505 0 2.99436 2 0 4.53999e-06 0.906381
4673 1 42.7793 15.2362 -30.1267 0 3.03303 2 0 4.53999e-06 0.850598
6689 1 41.9769 13.9053 -28.9045 0 2.66328 2 0 4.54e-06 0.0431664
6188 1 41.1936 14.2686 -28.6544 0 2.62053 2 0 4.54e-06 -0.872878
8899 1 41.9573 14.187 -27.977 0 2.66275 2 0 4.54e-06 0.0218503
8837 1 41.4316 14.8049 -28.0507 0 2.66191 1 0 4.54e-06 -0.992298
3517 1 42.1716 14.7709 -27.6136 0 2.71142 1 0 4.53999e-06 0.63789
909 1 42.0736 14.6882 -28.5147 0 2.71713 1 0 4.53999e-06 0.266496
8101 1 41.6297 15.3323 -28.708 0 2.71124 1 0 4.53999e-06 -0.80427
3923 1 42.0188 15.6165 -28.1868 0 2.75941 1 0 4.53999e-06 -0.161952
8056 1 41.4166 15.4476 -27.6391 0 2.68391 2 0 4.54e-06 -0.844183
1687 1 42.673 14.412 -28.7637 0 2.88281 2 0 4.53999e-06 0.821667
4634 1 42.4341 15.2027 -29.0712 0 2.76942 1 0 4.53999e-06 0.800124
3737 1 42.7521 15.5654 -28.4344 0 2.97059 2 0 4.53999e-06 0.869139
3793 1 42.8475 14.7774 -28.0467 0 2.92792 2 0 4.53999e-06 0.960679
3921 1 42.5089 15.3795 -27.58 0 2.90315 2 0 4.53999e-06 0.854562
6687 1 41.4845 13.7647 -27.2358 0 2.55176 2 0 4.54e-06 -0.369068
6244 1 41.7976 13.8563 -25.661 0 2.55069 2 0 4.54e-06 -0.0301332
5809 1 41.0642 14.2547 -26.2257 0 2.51699 2 0 4.54e-06 -0.94316
8743 1 41.8171 14.6745 -26.3531 0 2.63428 2 0 4.54e-06 -0.680223
9426 1 41.4286 14.6614 -27.1772 0 2.62498 2 0 4.54e-06 -0.942005
9326 1 41.9683 15.2063 -26.9546 0 2.70053 2 0 4.53999e-06 -0.244776
2555 1 42.2371 14.2945 -26.988 0 2.68649 2 0 4.54e-06 0.532864
3218 1 41.8707 15.4406 -25.9696 0 2.66159 2 0 4.54e-06 -0.39383
3969 1 42.5607 14.8949 -26.355 0 2.85904 2 0 4.53999e-06 0.975763
4129 1 43.2894 15.2396 -18.4308 0 2.66453 1 0 4.54e-06 0.990214
7375 1 40.9795 13.7137 -24.2947 0 2.43323 2 0 4.54002e-06 -0.674822
1930 1 42.3532 13.9475 -23.9054 0 2.59506 2 0 4.54e-06 0.281533
8839 1 41.1151 14.3203 -25.0731 0 2.50123 2 0 4.54001e-06 -0.970071
8597 1 41.6884 14.9205 -24.9837 0 2.5923 2 0 4.54e-06 -0.774702
4233 1 42.1576 14.6229 -25.5209 0 2.75967 2 0 4.53999e-06 0.645515
8900 1 41.4551 14.6803 -23.9818 0 2.52422 2 0 4.54e-06 -0.932669
1868 1 41.889 14.2094 -24.5658 0 2.5769 2 0 4.54e-06 -0.265604
8265 1 41.9166 15.3525 -24.3009 0 2.59938 2 0 4.54e-06 -0.391242
4332 1 42.6844 14.2191 -24.9561 0 2.85127 2 0 4.53999e-06 0.659855
4131 1 42.4195 15.3385 -25.1769 0 2.69012 2 0 4.54e-06 0.373925
3789 1 43.1164 15.0605 -24.7322 0 2.94073 2 0 4.53999e-06 0.884325
4017 1 43.1619 14.3272 -24.0633 0 2.88877 2 0 4.53999e-06 0.906288
4589 1 42.5066 14.8345 -24.3059 0 2.71573 2 0 4.53999e-06 0.806993
3691 1 43.0114 15.2238 -23.6002 0 2.88247 2 0 4.53999e-06 0.810141
9173 1 40.8854 13.8815 -22.3101 0 2.38706 2 0 4.54004e-06 -0.772944
7473 1 40.0318 13.4689 -21.8729 0 2.29746 2 0 4.5401e-06 -0.627224
1012 1 42.4741 13.6252 -22.3651 0 2.54729 1 0 4.54e-06 0.181083
1146 1 41.6941 13.3715 -22.0356 0 2.44302 2 0 4.54002e-06 -0.287296
3335 1 43.3687 13.4291 -22.3574 0 2.77223 2 0 4.53999e-06 0.67338
1309 1 42.7607 12.7661 -21.6621 0 2.50121 2 0 4.54001e-06 -0.0197514
6181 1 39.6939 13.9729 -22.8252 0 2.28378 2 0 4.54011e-06 -0.902636
5815 1 40.7307 14.2243 -23.2429 0 2.40041 2 0 4.54003e-06 -0.972043
6037 1 41.5309 13.9582 -23.5408 0 2.49084 2 0 4.54001e-06 -0.502312
1568 1 42.0867 14.0376 -22.9925 0 2.53478 1 0 4.54e-06 -0.0467995
3871 1 42.161 14.816 -23.5213 0 2.59427 1 0 4.54e-06 -0.242478
9424 1 42.0295 14.9526 -22.6109 0 2.56719 1 0 4.54e-06 -0.492459
8545 1 41.7021 14.2157 -22.2715 0 2.48408 1 0 4.54001e-06 -0.883711
8645 1 41.391 14.7153 -22.9609 0 2.49029 1 0 4.54001e-06 -0.86356
8216 1 41.1735 14.7802 -21.8125 0 2.4201 1 0 4.54002e-06 -0.744723
8058 1 41.9564 15.4282 -21.9561 0 2.5587 1 0 4.54e-06 -0.447718
4414 1 42.872 14.2283 -23.1686 0 2.63087 1 0 4.54e-06 0.832604
4592 1 42.7022 14.8532 -22.7492 0 2.63991 1 0 4.54e-06 0.852763
3690 1 43.2983 15.3524 -22.4749 0 2.94816 2 0 4.53999e-06 0.825888
8445 1 42.5871 14.3383 -22.1421 0 2.58545 1 0 4.54e-06 0.882771
4517 1 42.7116 14.9896 -21.7433 0 2.63856 1 0 4.54e-06 0.529398
3924 1 43.5213 14.6994 -21.8556 0 2.91462 2 0 4.53999e-06 0.951929
4068 1 43.0857 11.8768 -19.9326 0 2.42049 2 0 4.54002e-06 0.0880665
6463 1 39.6611 13.5848 -20.7686 0 2.26589 2 0 4.54014e-06 -0.36793
6587 1 40.8782 13.4636 -21.3241 0 2.34176 2 0 4.54006e-06 -0.242951
1698 1 42.555 13.1233 -20.6688 0 2.49879 1 0 4.54001e-06 -0.455139
2550 1 41.9873 13.7475 -21.1898 0 2.47328 1 0 4.54001e-06 -0.40634
1203 1 42.5156 13.9437 -20.2474 0 2.51513 1 0 4.54e-06 -0.848672
905 1 41.6611 13.9523 -20.2687 0 2.40684 1 0 4.54003e-06 -0.451166
4632 1 42.6684 12.6777 -19.8107 0 2.45531 1 0 4.54001e-06 -0.470373
4016 1 43.414 12.516 -20.5261 0 2.52001 2 0 4.54e-06 0.438729
4334 1 43.5667 13.2086 -19.9605 0 2.60946 1 0 4.54e-06 0.842609
4677 1 43.4558 13.2291 -21.0554 0 2.77442 2 0 4.53999e-06 0.708623
1927 1 42.7798 13.7091 -21.4944 0 2.57551 1 0 4.54e-06 0.405478
3515 1 43.3051 13.8822 -20.5151 0 2.6372 1 0 4.54e-06 0.970978
3971 1 43.6508 13.9678 -21.4807 0 2.87989 2 0 4.53999e-06 0.93507
3282 1 44.1503 14.018 -20.1055 0 2.96732 2 0 4.53999e-06 0.992248
6183 1 38.6188 13.7724 -20.6485 0 2.24752 2 0 4.54017e-06 -0.697315
5813 1 39.4768 14.4803 -20.7264 0 2.2621 2 0 4.54014e-06 -0.550991
8845 1 40.362 14.3207 -21.3845 0 2.31837 2 0 4.54008e-06 -0.705647
8552 1 40.456 13.8797 -20.4792 0 2.29562 1 0 4.5401e-06 -0.0677483
8503 1 39.7552 14.2189 -19.8569 0 2.25502 1 0 4.54015e-06 -0.542246
6034 1 40.8805 14.2435 -19.8499 0 2.31715 1 0 4.54008e-06 -0.0482241
8266 1 40.3196 14.8376 -20.4087 0 2.29164 2 0 4.5401e-06 -0.260131
8835 1 39.598 15.0646 -19.832 0 2.25105 2 0 4.54016e-06 -0.35879
9325 1 41.2364 14.1826 -21.0681 0 2.38957 1 0 4.54003e-06 -0.890069