ITEM: TIMESTEP
45500
ITEM: NUMBER OF ATOMS
9495
ITEM: BOX BOUNDS mm mm mm
0.0000000000000000e+00 7.5950823678348598e+01
-2.5860556128637664e+00 3.4279092884165507e+01
-1.4797697854825984e+02 3.1748021039364001e+01
ITEM: ATOMS id type x y z c_phase c_temp c_surf c_nbond c_visc f_3[1]
2149 1 65.0525 11.8285 -147.333 0 3.59117 2 0 4.53999e-06 -0.56232
2101 1 65.5796 12.1971 -146.62 0 3.63379 2 0 4.53999e-06 -0.708131
1924 1 65.8931 11.1996 -146.888 0 3.63881 2 0 4.53999e-06 -0.397777
1561 1 66.9197 11.3685 -147.091 0 3.70301 2 0 4.53999e-06 0.173339
1560 1 66.1114 11.8749 -147.683 0 3.64699 2 0 4.53999e-06 -0.0639299
900 1 66.7885 12.1892 -146.585 0 3.72115 1 0 4.53999e-06 -0.183005
3628 1 67.7017 12.049 -147.159 0 3.82389 2 0 4.53999e-06 0.306241
1201 1 68.6349 12.152 -146.537 0 3.95046 2 0 4.53999e-06 0.453593
4113 1 69.6116 12.4794 -146.692 0 4.35324 2 0 4.53999e-06 0.60294
2453 1 64.045 12.5894 -147.472 0 3.5354 2 0 4.53999e-06 -0.903238
2454 1 64.5976 12.5221 -146.501 0 3.57652 2 0 4.53999e-06 -0.790762
1920 1 65.0998 12.8116 -147.508 0 3.59299 2 0 4.53999e-06 -0.435206
1865 1 65.1519 13.3555 -146.668 0 3.60867 2 0 4.53999e-06 -0.899488
2100 1 64.3948 13.7489 -147.428 0 3.54698 2 0 4.53999e-06 -0.692904
1464 1 65.6107 13.7263 -147.485 0 3.62453 2 0 4.53999e-06 -0.214568
1143 1 66.0646 12.8209 -147.289 0 3.66209 2 0 4.53999e-06 -0.204583
1469 1 66.1298 12.8539 -146.391 0 3.67599 1 0 4.53999e-06 -0.919733
1142 1 66.2091 13.6972 -146.716 0 3.67941 1 0 4.53999e-06 -0.24939
4521 1 66.6489 13.5349 -147.809 0 3.71363 2 0 4.53999e-06 -0.00580047
1196 1 66.9501 12.5436 -147.505 0 3.74146 2 0 4.53999e-06 0.0920831
8451 1 66.9719 13.1524 -146.652 0 3.75431 1 0 4.53999e-06 0.00791402
9332 1 67.2077 14.0126 -147.056 0 3.79442 2 0 4.53999e-06 0.0580199
4544 1 67.7014 13.2081 -147.611 0 3.87266 2 0 4.53999e-06 0.263505
4545 1 67.7412 12.7421 -146.634 0 3.84889 1 0 4.53999e-06 0.481928
4522 1 68.5696 12.633 -147.449 0 4.10279 2 0 4.53999e-06 0.484225
4130 1 68.7842 13.1736 -146.605 0 4.2001 2 0 4.53999e-06 0.667281
4109 1 68.2518 13.8624 -147.053 0 4.09945 2 0 4.53999e-06 0.49343
2099 1 61.076 14.8157 -148.059 0 2.96278 3 0 4.53999e-06 -0
6299 1 65.4363 14.3112 -146.398 0 3.61833 2 0 4.53999e-06 -0.452671
2150 1 66.9048 10.8385 -146.142 0 3.69102 2 0 4.53999e-06 -0.0260244
2503 1 66.1474 11.6419 -146.002 0 3.67149 2 0 4.53999e-06 -0.515731
2105 1 67.1035 11.8144 -145.714 0 3.73965 2 0 4.53999e-06 -0.225361
1921 1 67.7876 11.6021 -146.315 0 3.79286 2 0 4.53999e-06 0.301062
1562 1 68.0373 11.2935 -145.326 0 3.79264 2 0 4.53999e-06 -0.09968
2551 1 67.6692 12.2664 -144.985 0 3.78338 2 0 4.53999e-06 -0.2407
2104 1 68.6564 12.1342 -144.84 0 3.84454 2 0 4.53999e-06 -0.317037
2153 1 68.9633 11.6624 -145.697 0 3.88732 2 0 4.53999e-06 0.0653949
2151 1 69.1722 11.1897 -144.688 0 3.8318 2 0 4.53999e-06 -0.425414
1149 1 68.0633 12.4729 -145.876 0 3.85006 1 0 4.53999e-06 0.483667
3630 1 69.967 11.1734 -145.538 0 3.87717 2 0 4.53999e-06 0.0192637
1928 1 70.0339 11.9241 -144.819 0 3.87708 2 0 4.53999e-06 -0.65848
903 1 69.8369 12.1864 -145.738 0 3.9588 2 0 4.53999e-06 0.367383
8992 1 70.8932 12.0585 -145.91 0 3.95275 2 0 4.53999e-06 0.409194
3522 1 70.8325 11.4702 -145.017 0 3.87798 2 0 4.53999e-06 0.157152
4125 1 71.8369 11.6807 -144.912 0 3.90918 2 0 4.53999e-06 0.422338
3631 1 70.9817 12.3194 -144.909 0 3.9114 2 0 4.53999e-06 0.384531
1870 1 65.4982 13.2204 -145.772 0 3.63487 2 0 4.53999e-06 -0.784986
7200 1 64.6069 14.0418 -145.233 0 3.53791 2 0 4.53999e-06 -0.804457
2460 1 66.324 12.539 -145.579 0 3.69156 2 0 4.53999e-06 -0.504512
6588 1 65.9892 13.2512 -144.815 0 3.65073 2 0 4.53999e-06 -0.376994
6032 1 67.0321 13.0893 -145.044 0 3.73588 2 0 4.53999e-06 -0.205212
906 1 66.5675 13.4731 -145.827 0 3.70926 1 0 4.53999e-06 -0.284458
3632 1 67.189 12.7026 -145.805 0 3.76118 1 0 4.53999e-06 -0.223927
8452 1 67.3523 13.8757 -145.542 0 3.77538 2 0 4.53999e-06 0.0798607
1465 1 65.9436 14.0989 -145.515 0 3.65067 2 0 4.53999e-06 -0.257921
2457 1 67.9849 13.1576 -145.342 0 3.8288 1 0 4.53999e-06 0.151764
9330 1 67.8151 13.5006 -146.245 0 3.85752 1 0 4.53999e-06 0.440157
7563 1 68.7534 13.1927 -144.813 0 3.86788 2 0 4.53999e-06 0.123067
9333 1 68.9656 12.7458 -145.741 0 3.95618 1 0 4.53999e-06 0.843163
9222 1 68.6691 13.7818 -145.771 0 3.93841 2 0 4.53999e-06 0.44326
4114 1 69.689 13.3192 -145.97 0 4.29282 2 0 4.53999e-06 0.550948
9329 1 70.4332 12.9334 -145.369 0 3.95839 2 0 4.53999e-06 0.304546
3629 1 69.5201 12.6479 -144.992 0 3.90778 2 0 4.53999e-06 -0.0002084
9428 1 71.974 12.7128 -145.512 0 4.41962 2 0 4.53999e-06 0.597011
6028 1 66.7211 14.4002 -146.22 0 3.71737 2 0 4.53999e-06 -0.0685795
9219 1 67.8025 14.4589 -146.272 0 3.83641 2 0 4.53999e-06 0.27546
1008 1 71.5829 10.4094 -143.448 0 3.83791 2 0 4.53999e-06 -0.52558
4587 1 72.1477 10.7223 -144.398 0 3.86761 2 0 4.53999e-06 0.100457
3519 1 72.5989 10.8134 -143.481 0 3.9183 2 0 4.53999e-06 -0.0911793
3870 1 74.419 10.7488 -143.375 0 4.42043 2 0 4.53999e-06 0.51299
952 1 70.2279 10.9676 -144.374 0 3.83714 2 0 4.53999e-06 -0.250347
2547 1 69.8199 11.7238 -143.722 0 3.82502 2 0 4.53999e-06 -0.370877
1866 1 70.8276 11.9173 -144.199 0 3.86708 2 0 4.53999e-06 -0.546807
1922 1 71.2965 11.1531 -144.205 0 3.85922 2 0 4.53999e-06 -0.373679
1148 1 72.1295 11.4925 -143.983 0 3.89458 1 0 4.53999e-06 -0.134076
7205 1 71.4663 11.7609 -143.523 0 3.86874 2 0 4.53999e-06 -0.724693
6608 1 72.225 12.2155 -143.428 0 3.90466 1 0 4.53999e-06 -0.29855
1466 1 71.6833 12.3018 -144.261 0 3.89821 2 0 4.53999e-06 0.283056
4548 1 72.9716 11.3384 -144.196 0 3.94584 2 0 4.53999e-06 0.409518
4520 1 73.5481 11.1417 -143.447 0 4.03581 1 0 4.53999e-06 0.391381
9218 1 73.692 12.038 -144.04 0 4.2578 2 0 4.53999e-06 0.528412
1869 1 72.8774 11.7039 -143.449 0 3.95755 1 0 4.53999e-06 0.0471259
9220 1 73.698 11.8853 -143.125 0 4.04985 1 0 4.53999e-06 0.532917
9334 1 72.6612 12.2673 -144.281 0 3.94033 2 0 4.53999e-06 0.37084
8739 1 74.6777 11.7625 -143.292 0 4.4265 2 0 4.53999e-06 0.716287
6967 1 67.7803 13.1499 -144.108 0 3.7508 2 0 4.53999e-06 -0.192039
6973 1 69.2145 12.5843 -143.993 0 3.83364 2 0 4.53999e-06 -0.275672
7556 1 70.3002 12.7058 -144.327 0 3.87545 2 0 4.53999e-06 -0.220774
8449 1 71.3185 13.2351 -144.625 0 3.92653 2 0 4.53999e-06 0.23484
6298 1 71.1387 12.7596 -143.565 0 3.85806 2 0 4.53999e-06 -0.264051
7557 1 73.141 12.5953 -143.273 0 3.96857 2 0 4.53999e-06 0.0677756
1195 1 72.3924 10.3841 -142.569 0 3.89735 2 0 4.53999e-06 -0.462108
4325 1 73.4933 10.4315 -142.824 0 4.02391 2 0 4.53999e-06 0.0427531
4417 1 74.0642 10.4666 -141.91 0 4.10699 2 0 4.53999e-06 -0.0307293
4227 1 75.4531 10.7162 -141.838 0 4.56396 2 0 4.53999e-06 0.832265
1199 1 72.0728 11.3352 -142.933 0 3.89669 1 0 4.53999e-06 -0.762183
6604 1 71.8208 12.3036 -142.521 0 3.86673 2 0 4.53999e-06 -0.611624
7203 1 72.7564 11.9567 -142.683 0 3.95014 1 0 4.53999e-06 -0.645935
954 1 73.0025 11.211 -142.786 0 3.97654 1 0 4.53999e-06 -0.577407
8448 1 73.88 11.2057 -142.594 0 4.08721 1 0 4.53999e-06 0.508615
7204 1 73.5298 11.712 -142.364 0 4.0296 1 0 4.53999e-06 -0.295404
1976 1 73.1559 10.8702 -142.02 0 3.99747 2 0 4.53999e-06 -0.507376
7202 1 72.8767 11.7353 -141.759 0 3.96606 2 0 4.53999e-06 -0.745958
2553 1 73.8115 11.315 -141.672 0 4.07137 1 0 4.53999e-06 -0.41231
6030 1 74.0182 12.2145 -141.655 0 4.06289 2 0 4.53999e-06 0.182862
7555 1 74.4431 11.7703 -142.303 0 4.15909 1 0 4.53999e-06 0.78921
4519 1 74.6725 10.946 -142.449 0 4.37441 2 0 4.53999e-06 0.684558
3213 1 75.4664 11.5984 -142.454 0 4.61181 2 0 4.53999e-06 0.912172
4518 1 74.6099 11.2267 -141.597 0 4.18786 1 0 4.53999e-06 0.871382
9221 1 75.061 12.0455 -141.604 0 4.4339 2 0 4.53999e-06 0.677459
9171 1 74.0859 12.5042 -142.648 0 4.05883 2 0 4.53999e-06 0.411883
6027 1 73.2608 12.5035 -142.206 0 3.9744 2 0 4.53999e-06 -0.234547
4588 1 74.7903 10.3424 -141.138 0 4.17427 2 0 4.53999e-06 0.210999
1010 1 74.9115 10.762 -140.145 0 4.16145 2 0 4.53999e-06 0.22067
955 1 74.089 10.9025 -140.811 0 4.09649 2 0 4.53999e-06 -0.602567
6908 1 73.5485 11.7322 -140.986 0 4.02359 2 0 4.53999e-06 -0.57402
2656 1 74.3702 11.3856 -139.934 0 4.10439 2 0 4.53999e-06 -0.89556
6304 1 74.4859 11.7755 -140.853 0 4.13385 2 0 4.53999e-06 0.0890683
902 1 75.2008 11.7161 -140.075 0 4.18935 2 0 4.53999e-06 0.474875
4546 1 75.8198 10.9243 -139.832 0 4.49975 2 0 4.53999e-06 0.869062
3520 1 75.2654 11.2138 -140.93 0 4.41514 2 0 4.53999e-06 0.999218
7474 1 73.1843 12.6915 -141.17 0 3.92364 2 0 4.53999e-06 -0.357452
1253 1 74.0911 10.4602 -139.528 0 4.03162 2 0 4.53999e-06 -0.626717
2598 1 74.6535 10.8226 -138.644 0 4.11526 2 0 4.53999e-06 -0.565265
901 1 75.5322 10.7974 -138.821 0 4.36936 2 0 4.53999e-06 0.590418
7373 1 73.9927 11.4246 -138.959 0 4.04894 2 0 4.53999e-06 -0.976719
6970 1 74.7573 11.4106 -138.139 0 4.1157 2 0 4.53999e-06 -0.930464
2599 1 75.185 10.8863 -137.938 0 4.13258 2 0 4.53999e-06 0.097122
2552 1 74.9665 11.2774 -139.219 0 4.16427 2 0 4.53999e-06 -0.185941
4516 1 75.4042 11.4843 -138.475 0 4.30068 2 0 4.53999e-06 0.776402
8944 1 75.7446 11.7648 -139.24 0 4.43308 2 0 4.53999e-06 0.756106
8547 1 74.7866 11.9814 -138.785 0 4.12191 2 0 4.53999e-06 -0.334208
4420 1 75.4184 10.6367 -137.191 0 4.09883 2 0 4.53999e-06 0.39493
3873 1 75.9596 11.193 -137.898 0 4.33094 2 0 4.53999e-06 0.982244
9122 1 75.3703 12.0175 -137.89 0 4.12336 2 0 4.53999e-06 0.342131
6450 1 74.3349 11.619 -136.846 0 4.05045 2 0 4.53999e-06 -0.901141
6297 1 74.6952 11.7316 -137.514 0 4.08429 2 0 4.53999e-06 -0.672759
4547 1 75.7087 11.3497 -136.914 0 4.24157 2 0 4.53999e-06 0.990305
6301 1 75.3465 11.4126 -137.477 0 4.22543 2 0 4.53999e-06 0.86885
7152 1 74.6777 10.9978 -137.32 0 4.08139 1 0 4.53999e-06 -0.751856
3425 1 74.4973 11.0088 -136.482 0 4.06267 2 0 4.53999e-06 -0.843405
1926 1 75.0988 11.0376 -136.719 0 4.0941 1 0 4.53999e-06 0.183214
8546 1 75.3903 11.6165 -136.251 0 4.19203 2 0 4.53999e-06 0.747888
6245 1 75.0863 11.8043 -136.879 0 4.08758 1 0 4.53999e-06 0.105976
4630 1 74.9633 10.595 -136.117 0 4.07517 2 0 4.53999e-06 -0.0461451
4591 1 74.9445 10.7726 -135.195 0 4.08624 2 0 4.53999e-06 0.134654
6905 1 74.0172 11.3004 -134.805 0 4.05856 2 0 4.53999e-06 -0.972789
6240 1 74.218 11.9035 -135.505 0 4.04392 2 0 4.53999e-06 -0.747981
8989 1 75.6753 10.9213 -136.176 0 4.24527 2 0 4.53999e-06 0.862078
7376 1 74.6994 11.6255 -136.21 0 4.07153 1 0 4.53999e-06 -0.601454
6972 1 75.0631 11.199 -135.796 0 4.1932 2 0 4.53999e-06 0.565251
7662 1 75.0132 11.8751 -135.574 0 4.08163 2 0 4.53999e-06 0.26304
1255 1 74.3588 11.128 -135.684 0 4.05974 2 0 4.53999e-06 -0.901698
9168 1 75.5793 11.3929 -135.244 0 4.26629 2 0 4.53999e-06 0.919208
6590 1 74.7455 11.4164 -134.989 0 4.0924 2 0 4.53999e-06 -0.179912
9169 1 74.8385 12.0884 -134.702 0 4.09991 2 0 4.53999e-06 0.177135
4229 1 74.0776 10.6899 -133.139 0 4.07803 2 0 4.53999e-06 -0.124377
7374 1 73.8757 11.502 -133.342 0 4.10095 2 0 4.53999e-06 -0.77629
9429 1 74.1238 12.3068 -133.31 0 4.12025 2 0 4.53999e-06 -0.199395
1923 1 74.4978 10.935 -134.13 0 4.10822 2 0 4.53999e-06 -0.125927
9331 1 75.2165 11.3908 -134.28 0 4.31505 2 0 4.53999e-06 0.899635
6605 1 74.3394 11.7496 -134.076 0 4.12286 2 0 4.53999e-06 -0.705069
8447 1 74.6985 11.3538 -133.304 0 4.32659 2 0 4.53999e-06 0.812196
9123 1 75.0041 12.0814 -133.582 0 4.38934 2 0 4.53999e-06 0.726787
2452 1 72.3849 11.2094 -131.536 0 3.79922 2 0 4.53999e-06 -0.693488
1566 1 72.3839 12.0329 -131.259 0 3.77749 2 0 4.53999e-06 -0.81954
1685 1 73.2984 11.123 -132.523 0 3.99241 2 0 4.53999e-06 -0.592029
6907 1 73.5491 11.9143 -132.674 0 4.04444 2 0 4.53999e-06 -0.631905
6513 1 72.7643 11.8815 -132.25 0 3.90767 2 0 4.53999e-06 -0.779024
4326 1 73.8483 11.0199 -131.858 0 4.02598 2 0 4.53999e-06 0.238652
1569 1 73.1832 11.4799 -131.656 0 3.9337 2 0 4.53999e-06 -0.572048
1563 1 73.8568 11.8337 -131.934 0 4.16939 2 0 4.53999e-06 0.726323
2548 1 73.1744 12.2475 -131.599 0 3.92183 2 0 4.53999e-06 -0.270818
9224 1 73.9268 12.3774 -131.246 0 4.18239 2 0 4.53999e-06 0.534658
3521 1 74.205 11.3254 -132.549 0 4.11905 2 0 4.53999e-06 0.483229
3872 1 75.2849 11.3987 -132.574 0 4.51601 2 0 4.53999e-06 0.940018
7554 1 74.5185 12.0391 -132.613 0 4.31009 2 0 4.53999e-06 0.713376
4515 1 74.6351 11.6222 -131.79 0 4.32966 2 0 4.53999e-06 0.861661
7559 1 73.8345 12.5694 -132.224 0 4.04007 2 0 4.53999e-06 0.0782634
2201 1 71.583 11.6679 -130.792 0 3.67502 2 0 4.53999e-06 -0.854568
4330 1 72.4217 11.2833 -130.543 0 3.73143 2 0 4.53999e-06 -0.154625
6303 1 72.4104 12.1779 -130.281 0 3.70939 2 0 4.53999e-06 0.39574
1567 1 71.3717 12.2846 -130.026 0 3.69325 2 0 4.53999e-06 -0.940576
4228 1 71.8915 11.6341 -129.7 0 3.6756 2 0 4.53999e-06 0.0774521
1259 1 73.1757 10.9696 -131.022 0 3.86187 2 0 4.53999e-06 0.0663271
4331 1 73.9272 11.506 -131.103 0 4.16957 2 0 4.53999e-06 0.596351
1198 1 73.1578 11.8738 -130.766 0 3.84791 2 0 4.53999e-06 0.374323
9223 1 70.4861 12.699 -129.639 0 3.72906 2 0 4.53999e-06 -0.356177
6031 1 71.8266 12.6522 -130.828 0 3.67886 2 0 4.53999e-06 -0.519344
8600 1 71.9398 12.9346 -129.844 0 3.6857 2 0 4.53999e-06 0.399565
8945 1 72.8772 12.7871 -130.885 0 3.77482 2 0 4.53999e-06 0.16221
1688 1 68.5939 12.3926 -128.68 0 3.60194 2 0 4.53999e-06 -0.599659
1257 1 68.5869 12.4564 -127.745 0 3.59756 2 0 4.53999e-06 -0.395429
1011 1 69.1329 11.8403 -128.179 0 3.65669 2 0 4.53999e-06 -0.0566298
4419 1 70.5722 11.9638 -129.092 0 3.75261 2 0 4.53999e-06 0.124319
2154 1 69.6155 12.2964 -129.024 0 3.7147 2 0 4.53999e-06 -0.289954
4328 1 70.0259 12.1409 -128.187 0 3.96181 2 0 4.53999e-06 0.585466
7377 1 68.3336 13.1176 -128.098 0 3.56603 2 0 4.53999e-06 -0.518803
3876 1 70.9317 13.4278 -129.209 0 3.73321 2 0 4.53999e-06 0.302806
6243 1 69.7536 13.2744 -129.033 0 3.71727 2 0 4.53999e-06 -0.233261
1467 1 69.2584 12.8366 -128.383 0 3.69071 2 0 4.53999e-06 -0.136049
4551 1 70.4057 12.7706 -128.691 0 3.96228 2 0 4.53999e-06 0.824198
3641 1 69.9559 13.1285 -127.964 0 3.96271 2 0 4.53999e-06 0.634227
4549 1 71.353 12.5244 -129.097 0 3.98261 2 0 4.53999e-06 0.682241
1681 1 67.0499 12.1053 -126.884 0 3.34053 2 0 4.53999e-06 -0.513545
1313 1 68.5232 11.9657 -127.082 0 3.55049 2 0 4.53999e-06 0.202249
2202 1 67.8491 12.4742 -127.306 0 3.48403 2 0 4.53999e-06 -0.491501
3422 1 67.765 12.2359 -126.496 0 3.43505 2 0 4.53999e-06 0.0739875
3966 1 68.512 12.4907 -126.384 0 3.68304 2 0 4.53999e-06 0.701044
4232 1 69.3917 12.4689 -127.597 0 3.84332 2 0 4.53999e-06 0.747983
6237 1 66.5243 12.8437 -126.77 0 3.28697 2 0 4.53999e-06 -0.823367
7151 1 67.3796 12.9936 -126.844 0 3.40087 2 0 4.53999e-06 -0.577351
9126 1 66.8816 13.5699 -126.334 0 3.29956 2 0 4.53999e-06 -0.532053
2208 1 67.1352 12.6102 -126.154 0 3.34314 2 0 4.53999e-06 -0.694604
7558 1 69.0396 13.3003 -127.628 0 3.6394 2 0 4.53999e-06 0.363631
6242 1 67.7254 13.8289 -126.694 0 3.41344 2 0 4.53999e-06 -0.0312429
7472 1 68.188 13.1885 -127.248 0 3.52999 2 0 4.53999e-06 -0.149437
904 1 68.8804 12.7945 -126.998 0 3.74501 2 0 4.53999e-06 0.868697
4416 1 68.0363 13.0111 -126.508 0 3.59604 2 0 4.53999e-06 0.640265
9120 1 68.6851 13.5741 -126.566 0 3.7543 2 0 4.53999e-06 0.57922
1684 1 67.1274 11.9183 -125.747 0 3.29798 2 0 4.53999e-06 -0.119227
2655 1 66.3942 12.3312 -125.184 0 3.2272 2 0 4.53999e-06 -0.408327
4631 1 67.9455 12.4946 -125.674 0 3.58033 2 0 4.53999e-06 0.538955
7150 1 65.4596 12.8856 -125.241 0 3.19694 2 0 4.53999e-06 -0.949653
7475 1 66.4896 12.9195 -125.869 0 3.26158 2 0 4.53999e-06 -0.996674
9172 1 66.3893 13.2861 -125.092 0 3.21882 2 0 4.53999e-06 -0.377072
956 1 67.2005 12.8139 -125.266 0 3.28954 2 0 4.53999e-06 0.237208
8943 1 67.1361 13.7646 -125.459 0 3.26042 2 0 4.53999e-06 0.0597644
7657 1 67.5826 13.2252 -125.969 0 3.37756 2 0 4.53999e-06 0.323302
1929 1 64.0009 12.2235 -122.837 0 3.41528 2 0 4.53999e-06 0.252353
7553 1 64.8314 12.2735 -123.403 0 3.65982 2 0 4.53999e-06 0.583187
6968 1 63.3813 12.7461 -123.096 0 3.35355 2 0 4.53999e-06 -0.324874
8686 1 62.8671 13.5815 -122.904 0 3.29349 2 0 4.53999e-06 -0.502501
8595 1 63.8013 13.4906 -122.854 0 3.37 2 0 4.53999e-06 0.261311
8544 1 64.0882 12.9014 -123.54 0 3.39318 2 0 4.53999e-06 0.0203436
8898 1 64.9044 13.1716 -124.144 0 3.32946 2 0 4.53999e-06 -0.0183351
3640 1 65.8581 12.6891 -124.244 0 3.33723 2 0 4.53999e-06 0.310041
4590 1 64.7233 13.091 -122.949 0 3.65244 2 0 4.53999e-06 0.870717
2597 1 62.5837 12.3414 -121.893 0 3.28659 2 0 4.53999e-06 -0.77679
2205 1 63.3082 12.377 -122.369 0 3.35213 2 0 4.53999e-06 -0.201935
1683 1 63.315 11.9179 -121.728 0 3.3259 2 0 4.53999e-06 0.0808316
1258 1 62.8168 12.1552 -121.035 0 3.25853 2 0 4.53999e-06 -0.181701
4633 1 63.8548 12.4362 -121.976 0 3.50905 2 0 4.53999e-06 0.727254
1056 1 64.7512 12.3369 -122.244 0 3.70845 2 0 4.53999e-06 0.857701
6455 1 59.1762 12.7117 -120.963 0 2.92872 3 0 4.53999e-06 -0.476851
1197 1 62.4515 12.875 -121.247 0 3.24894 2 0 4.53999e-06 -0.933721
6509 1 62.7302 12.7937 -122.514 0 3.30863 2 0 4.53999e-06 -0.809235
6305 1 63.3616 13.0615 -122.424 0 3.35217 2 0 4.53999e-06 -0.133733
9227 1 64.0897 12.9056 -122.488 0 3.53673 2 0 4.53999e-06 0.95987
7658 1 62.6123 13.2499 -121.932 0 3.28684 2 0 4.53999e-06 -0.805911
3281 1 63.2725 13.5918 -122.05 0 3.32334 2 0 4.53999e-06 0.0175443
953 1 63.0813 12.6968 -121.664 0 3.31857 2 0 4.53999e-06 -0.429298
3922 1 63.5564 12.5907 -121.205 0 3.46492 2 0 4.53999e-06 0.608571
3643 1 63.1284 13.3106 -121.272 0 3.29091 2 0 4.53999e-06 0.138201
4121 1 63.7447 13.0971 -121.804 0 3.48328 2 0 4.53999e-06 0.702437
6591 1 61.9828 12.4463 -120.624 0 3.16633 2 0 4.53999e-06 -0.832653
6512 1 62.2834 13.548 -120.649 0 3.16852 2 0 4.53999e-06 -0.466911
3523 1 62.2755 12.8457 -119.733 0 3.12525 2 0 4.53999e-06 -0.21448
1565 1 62.9803 12.8588 -120.503 0 3.22445 2 0 4.53999e-06 0.303289
9170 1 60.4292 14.4257 -120.006 0 3.4439 3 0 4.53999e-06 -0.21374
3874 1 61.294 11.1952 -118.609 0 4.35801 3 0 4.53999e-06 0.327981
6694 1 58.6874 13.7252 -117.906 0 3.92591 2 0 4.53999e-06 -0.154336
2652 1 58.9743 12.8678 -117.858 0 3.98816 2 0 4.53999e-06 0.00908608
8543 1 59.6099 13.0891 -118.564 0 4.04965 2 0 4.53999e-06 0.163712
8838 1 60.4582 13.2941 -117.982 0 4.54026 2 0 4.53999e-06 0.94517
4593 1 59.8884 12.4675 -117.643 0 4.38434 2 0 4.53999e-06 0.667824
2449 1 58.4077 12.2961 -117.238 0 3.89231 2 0 4.53999e-06 -0.11306
1256 1 57.7866 12.3321 -116.296 0 3.80173 2 0 4.53999e-06 -0.342903
1260 1 57.1278 12.9751 -116.213 0 3.74471 2 0 4.53999e-06 -0.952253
7149 1 57.2862 14.0074 -116.44 0 3.73908 2 0 4.53999e-06 -0.63675
2152 1 58.5112 13.1241 -117.264 0 3.91789 2 0 4.53999e-06 -0.122743
2199 1 57.659 12.9145 -117.145 0 3.82096 2 0 4.53999e-06 -0.712055
6974 1 58.0365 13.6372 -117.035 0 3.8504 2 0 4.53999e-06 -0.431085
7656 1 58.8416 13.7568 -117.031 0 3.93165 2 0 4.53999e-06 0.396557
4124 1 59.1611 12.775 -117.093 0 4.12829 2 0 4.53999e-06 0.768991
1261 1 58.1791 12.8513 -116.69 0 3.86885 2 0 4.53999e-06 -0.331361
9226 1 58.5834 13.3366 -116.413 0 4.00192 2 0 4.53999e-06 0.720263
4225 1 58.7485 12.6023 -116.436 0 4.04559 2 0 4.53999e-06 0.507544
6302 1 57.7057 13.2924 -116.444 0 3.81046 2 0 4.53999e-06 -0.967348
4424 1 58.2635 12.9648 -115.898 0 3.84165 2 0 4.53999e-06 0.257888
6906 1 58.2494 13.8685 -116.325 0 3.8464 2 0 4.53999e-06 0.0792109
8946 1 59.5878 13.4746 -117.491 0 4.24224 2 0 4.53999e-06 0.800115
8897 1 59.2503 13.2977 -116.546 0 4.11668 2 0 4.53999e-06 0.906471
6606 1 56.9178 13.6673 -115.474 0 3.6626 2 0 4.53999e-06 -0.786908
8497 1 57.8259 13.5552 -115.779 0 3.78613 2 0 4.53999e-06 -0.266613
8317 1 58.8824 13.6209 -115.534 0 4.09769 2 0 4.53999e-06 0.631609
4418 1 57.5614 12.7981 -115.464 0 3.73753 2 0 4.53999e-06 -0.366842
8270 1 58.0043 13.5146 -114.856 0 3.70278 2 0 4.53999e-06 0.0773241
6508 1 52.3854 12.279 -109.749 0 3.52766 3 0 4.53999e-06 0.0273845
6452 1 55.7965 11.6812 -110.01 0 2.8957 3 0 4.53999e-06 -0
8450 1 54.6609 14.946 -109.385 0 6.31513 3 0 4.53999e-06 0.717658
9128 1 51.542 13.451 -107.52 0 3.76199 2 0 4.53999e-06 -0.70577
8263 1 52.2456 13.8151 -107.036 0 3.81325 2 0 4.53999e-06 0.105685
2456 1 52.4032 12.8289 -107.309 0 3.78892 2 0 4.53999e-06 0.17106
8444 1 52.3393 13.6602 -107.954 0 3.79207 2 0 4.53999e-06 0.177126
2600 1 52.8959 13.588 -107.235 0 3.9898 2 0 4.53999e-06 0.816744
8500 1 51.6216 14.4029 -107.894 0 3.75274 2 0 4.53999e-06 -0.482217
1691 1 52.5161 14.4491 -107.395 0 3.85822 2 0 4.53999e-06 0.393255
3220 1 51.5433 13.538 -106.114 0 3.76733 2 0 4.53999e-06 -0.909942
6241 1 51.9826 13.2905 -106.744 0 3.79436 2 0 4.53999e-06 -0.414331
8314 1 51.6581 13.9404 -106.783 0 3.78317 2 0 4.53999e-06 -0.92192
6185 1 52.1339 12.8938 -106.068 0 3.77691 2 0 4.53999e-06 -0.0505959
8738 1 52.2143 13.6393 -106.147 0 3.80408 1 0 4.53999e-06 0.13317
8316 1 51.8927 14.1507 -106.156 0 3.78834 1 0 4.53999e-06 -0.687424
7660 1 51.6918 13.2919 -105.337 0 3.74329 2 0 4.53999e-06 -0.536815
8990 1 52.0759 13.9643 -105.431 0 3.78044 2 0 4.53999e-06 -0.204288
2458 1 52.6919 13.3877 -106.486 0 3.94036 2 0 4.53999e-06 0.774192
4415 1 52.6946 13.9854 -105.894 0 3.93452 2 0 4.53999e-06 0.888967
4324 1 53.0239 14.1049 -106.582 0 3.98808 2 0 4.53999e-06 0.942904
9427 1 52.5857 13.3476 -105.485 0 3.86931 2 0 4.53999e-06 0.542125
3207 1 51.2957 14.2889 -105.617 0 3.73381 2 0 4.53999e-06 -0.866429
3217 1 51.7856 14.7029 -106.885 0 3.77743 2 0 4.53999e-06 -0.418987
3967 1 52.3027 14.6358 -105.822 0 3.79394 2 0 4.53999e-06 0.167864
3970 1 52.3701 14.2719 -106.569 0 3.81639 2 0 4.53999e-06 0.370698
8442 1 52.2313 13.6498 -104.523 0 3.72604 2 0 4.53999e-06 0.0315274
2212 1 52.9311 14.2636 -105.021 0 4.031 2 0 4.53999e-06 0.733734
4116 1 51.945 14.6419 -104.873 0 3.7336 2 0 4.53999e-06 -0.23011
3692 1 50.3443 14.4041 -103.275 0 3.33379 3 0 4.53999e-06 -0.73557
1973 1 53.0342 15.7442 -102.775 0 5.46075 3 0 4.53999e-06 0.8964
3212 1 49.1802 15.179 -100.95 0 3.89147 2 0 4.53999e-06 -0.253644
908 1 42.801 14.7225 -58.7786 0 2.76071 2 0 4.53999e-06 -0.138357
8213 1 49.9552 15.6068 -100.422 0 4.22178 2 0 4.53999e-06 0.838486
8102 1 48.5382 14.8609 -99.3317 0 3.89179 2 0 4.53999e-06 -0.534039
8684 1 48.7857 15.5063 -99.8341 0 3.94348 2 0 4.53999e-06 -0.641363
3740 1 48.0961 15.6285 -99.1951 0 3.872 2 0 4.53999e-06 -0.908148
8269 1 49.266 14.8801 -100.028 0 3.95108 2 0 4.53999e-06 0.0500712
5816 1 45.1041 14.9133 -59.3761 0 3.00697 2 0 4.53999e-06 0.655671
6182 1 49.8679 14.892 -98.5703 0 4.15805 2 0 4.53999e-06 0.834999
8267 1 49.0185 14.5527 -98.6214 0 3.90345 2 0 4.53999e-06 0.132542
9125 1 49.2744 15.132 -99.1658 0 3.96763 1 0 4.53999e-06 0.484428
3514 1 48.8441 15.7786 -99.0289 0 3.94104 1 0 4.53999e-06 -0.47339
5917 1 49.9135 15.1994 -99.5875 0 4.18107 2 0 4.53999e-06 0.878033
6033 1 49.8289 15.7179 -98.9523 0 4.15686 2 0 4.53999e-06 0.941201
1974 1 47.9117 15.063 -97.6582 0 3.78832 2 0 4.53999e-06 -0.90943
3920 1 48.141 14.9449 -98.5288 0 3.8465 2 0 4.53999e-06 -0.835319
8315 1 48.5416 14.444 -97.801 0 3.81569 2 0 4.53999e-06 -0.134143
8948 1 48.7729 15.244 -98.5635 0 3.91266 1 0 4.53999e-06 -0.576817
8596 1 48.6061 15.4074 -97.8998 0 3.87414 2 0 4.53999e-06 -0.346637
8268 1 48.8513 14.9433 -96.9122 0 3.78478 2 0 4.53999e-06 0.335553
2102 1 48.2091 15.779 -97.1332 0 3.78577 2 0 4.53999e-06 -0.404024
4014 1 47.9431 15.8027 -98.3205 0 3.83665 2 0 4.53999e-06 -0.868799
7661 1 49.2583 14.9634 -97.8725 0 4.05026 2 0 4.53999e-06 0.636572
6515 1 49.4106 15.6624 -98.2985 0 4.08761 2 0 4.53999e-06 0.744979
7106 1 49.1609 15.8387 -97.4435 0 3.9925 2 0 4.53999e-06 0.452752
3423 1 47.9038 14.4403 -96.8326 0 3.67538 2 0 4.53999e-06 -0.514174
8264 1 48.862 14.0833 -94.8524 0 3.81063 3 0 4.53999e-06 0.679326
4673 1 47.0152 15.4086 -94.7749 0 3.59606 3 0 4.53999e-06 -0.370055
2994 1 47.4736 13.9895 -92.449 0 3.68802 2 0 4.53999e-06 0.338328
3738 1 46.0233 14.5736 -91.8864 0 3.634 2 0 4.53999e-06 -0.710702
3642 1 47.0404 14.8688 -93.0129 0 3.72146 2 0 4.53999e-06 -0.246299
4634 1 46.7343 14.8644 -92.2078 0 3.69778 2 0 4.53999e-06 -0.377002
1687 1 46.5991 15.7049 -92.0375 0 3.69774 2 0 4.53999e-06 -0.414342
4230 1 48.1004 15.0499 -93.2247 0 4.13446 2 0 4.53999e-06 0.718017
9425 1 47.5457 15.0244 -92.3385 0 3.91746 2 0 4.53999e-06 0.799868
1925 1 47.2684 15.8472 -92.7808 0 3.74877 2 0 4.53999e-06 0.00395861
5918 1 48.0235 15.679 -92.07 0 4.05236 2 0 4.53999e-06 0.864768
8056 1 46.3997 13.8326 -90.3283 0 3.6216 2 0 4.53999e-06 0.0574123
8101 1 46.8128 14.3261 -91.6719 0 3.67724 2 0 4.53999e-06 0.0816099
909 1 47.0313 15.1931 -91.7004 0 3.72166 1 0 4.53999e-06 0.551766
8740 1 45.5796 14.2905 -90.5008 0 3.60612 2 0 4.53999e-06 -0.806474
3278 1 45.6356 15.1382 -91.0523 0 3.62122 2 0 4.53999e-06 -0.90948
3923 1 46.1809 14.3272 -91.1263 0 3.63962 2 0 4.53999e-06 -0.499032
3737 1 46.3243 15.0196 -91.4496 0 3.66614 1 0 4.53999e-06 -0.776911
3921 1 46.1955 14.7574 -90.5882 0 3.65668 1 0 4.53999e-06 -0.807953
8837 1 46.8988 14.3512 -90.9243 0 3.67186 1 0 4.53999e-06 0.532401
3517 1 46.7094 15.0176 -90.7273 0 3.68763 1 0 4.53999e-06 0.667312
3793 1 46.5374 15.5391 -91.1336 0 3.68709 1 0 4.53999e-06 -0.223785
9426 1 46.7895 14.6214 -90.1346 0 3.80888 2 0 4.53999e-06 0.648434
2555 1 46.1802 15.4119 -90.374 0 3.66978 2 0 4.53999e-06 -0.385041
6188 1 47.5397 14.6197 -91.6322 0 3.87153 2 0 4.53999e-06 0.876165
6689 1 47.3683 15.8177 -91.3966 0 3.91656 2 0 4.53999e-06 0.520214
8899 1 47.1856 15.009 -91.0991 0 3.71241 1 0 4.53999e-06 0.955514
6687 1 47.0793 15.5845 -90.4366 0 3.87354 2 0 4.53999e-06 0.593672
3371 1 45.4588 15.0751 -90.0723 0 3.61948 2 0 4.53999e-06 -0.952474
3218 1 45.5955 14.8143 -88.9149 0 3.62873 2 0 4.53999e-06 -0.740222
9326 1 46.0494 14.532 -89.7149 0 3.65305 2 0 4.53999e-06 -0.331515
8743 1 46.5962 15.2563 -89.6906 0 3.858 2 0 4.53999e-06 0.51462
3969 1 45.8458 15.6114 -89.419 0 3.66966 2 0 4.53999e-06 -0.481248
5809 1 46.6333 14.6619 -88.939 0 3.85628 2 0 4.53999e-06 0.554334
6244 1 46.5888 15.7148 -88.7102 0 3.91351 2 0 4.53999e-06 0.421108
8839 1 47.2428 13.7658 -87.2091 0 3.78171 3 0 4.53999e-06 0.495914
4233 1 46.0999 15.0354 -87.9865 0 3.64827 2 0 4.53999e-06 -0.124982
7375 1 48.0049 12.9493 -85.7051 0 3.71694 3 0 4.53999e-06 0.451299
8597 1 44.9516 13.9887 -86.6697 0 3.57318 3 0 4.53999e-06 -0.648443
8900 1 46.0191 14.2664 -85.278 0 3.62642 3 0 4.53999e-06 -0.184682
4335 1 42.1054 15.0124 -58.6608 0 2.73134 2 0 4.53999e-06 -0.478662
1868 1 48.0089 15.5672 -86.2271 0 4.41604 3 0 4.53999e-06 0.987526
6037 1 46.9468 14.2749 -83.3803 0 3.885 2 0 4.53999e-06 0.734613
1930 1 46.9108 15.0946 -84.6533 0 4.02948 2 0 4.53999e-06 0.719322
8265 1 44.2546 14.8145 -84.845 0 3.54489 3 0 4.53999e-06 -0.988035
8322 1 45.7334 14.2287 -83.454 0 3.5532 2 0 4.53999e-06 -0.539332
3691 1 45.6673 15.1844 -83.5071 0 3.5675 2 0 4.53999e-06 -0.722463
3871 1 46.3134 14.6186 -84.0507 0 3.6496 2 0 4.53999e-06 0.0447717
4017 1 46.1322 15.5979 -84.2585 0 3.65051 2 0 4.53999e-06 -0.222204
4414 1 46.6863 15.2413 -83.4002 0 3.86817 2 0 4.53999e-06 0.651208
6181 1 46.8614 13.2836 -81.5497 0 3.42277 2 0 4.53999e-06 0.424245
5815 1 47.0977 13.893 -82.4006 0 3.82201 2 0 4.53999e-06 0.753017
3209 1 45.2181 14.7118 -82.74 0 3.47629 2 0 4.53999e-06 -0.966138
8645 1 46.2385 14.2566 -82.7147 0 3.5766 2 0 4.53999e-06 -0.0642623
8545 1 46.5547 14.3922 -81.8522 0 3.6665 2 0 4.53999e-06 0.831779
9424 1 45.7354 14.5377 -82.0518 0 3.48728 2 0 4.53999e-06 -0.814247
3690 1 45.4319 15.3594 -81.7852 0 3.43929 2 0 4.53999e-06 -0.653537
1568 1 46.9075 14.886 -82.491 0 3.79606 2 0 4.53999e-06 0.893231
4592 1 46.0516 15.1574 -82.6613 0 3.55384 2 0 4.53999e-06 -0.15203
8445 1 46.2909 15.1766 -81.7952 0 3.51379 2 0 4.53999e-06 0.322609
9173 1 46.0246 14.0258 -81.4554 0 3.45712 1 0 4.53999e-06 -0.268668
8216 1 45.6637 14.0368 -80.7551 0 3.38507 2 0 4.53999e-06 -0.679274
7473 1 46.3187 13.4242 -80.3861 0 3.37027 2 0 4.53999e-06 0.244237
1146 1 46.587 14.1005 -80.921 0 3.58577 2 0 4.53999e-06 0.825409
2550 1 46.0859 14.235 -80.2091 0 3.38334 1 0 4.53999e-06 0.401376
1309 1 46.8668 14.2642 -80.0718 0 3.5858 2 0 4.53999e-06 0.97648
8058 1 45.2339 14.5518 -81.2999 0 3.401 2 0 4.53999e-06 -0.978581
1012 1 46.9001 14.8551 -81.2167 0 3.66855 2 0 4.53999e-06 0.935373
4517 1 45.2765 14.512 -80.2103 0 3.32882 2 0 4.53999e-06 -0.991239
9179 1 46.0252 14.7162 -81.1934 0 3.4537 1 0 4.53999e-06 -0.364669
3924 1 45.5357 15.2072 -80.7798 0 3.39384 2 0 4.53999e-06 -0.617788
1927 1 46.3241 14.818 -80.5653 0 3.42954 1 0 4.53999e-06 0.633023
3335 1 46.3384 15.6916 -80.9844 0 3.47753 2 0 4.53999e-06 0.276427
3971 1 45.8874 15.0529 -79.9571 0 3.35273 2 0 4.53999e-06 -0.097868
8745 1 45.092 13.8609 -79.0138 0 3.18563 2 0 4.53999e-06 -0.87544
8845 1 45.5114 13.6017 -79.863 0 3.29112 2 0 4.53999e-06 -0.542534
9325 1 45.8991 13.6736 -78.607 0 3.20132 1 0 4.53999e-06 0.164518
6587 1 46.4015 13.7223 -79.3578 0 3.46824 2 0 4.53999e-06 0.657245
8996 1 44.4113 14.0617 -78.2766 0 3.08624 2 0 4.53999e-06 -0.957704
3516 1 45.8445 14.247 -79.5278 0 3.30922 1 0 4.53999e-06 -0.642929
1698 1 46.4392 14.351 -78.5586 0 3.2528 1 0 4.53999e-06 0.869114
3639 1 45.2976 14.7873 -79.264 0 3.23984 2 0 4.53999e-06 -0.697581
4677 1 46.4178 14.6822 -79.376 0 3.48875 2 0 4.53999e-06 0.706796
3515 1 45.6338 14.4756 -78.5379 0 3.19364 1 0 4.53999e-06 -0.413384
8746 1 45.1805 13.1312 -78.2046 0 3.09996 2 0 4.53999e-06 -0.423016
8441 1 45.3089 13.8622 -77.9884 0 3.12234 1 0 4.53999e-06 -0.931818
8646 1 45.4174 13.1387 -77.2679 0 3.07293 1 0 4.53999e-06 -0.319357
8991 1 44.7797 13.6915 -77.3212 0 3.0554 2 0 4.53999e-06 -0.978225
8552 1 46.7806 13.7041 -78.0621 0 3.37515 2 0 4.53999e-06 0.756455
8266 1 46.0803 13.1852 -77.8324 0 3.13746 1 0 4.53999e-06 0.181687
905 1 46.0516 14.1584 -77.7649 0 3.1699 1 0 4.53999e-06 0.356394
5813 1 47.0659 13.102 -77.3433 0 3.19786 2 0 4.53999e-06 0.500643
8835 1 46.219 12.9915 -76.8579 0 3.10749 1 0 4.53999e-06 0.142029
6034 1 46.3949 13.7556 -77.1989 0 3.16433 1 0 4.53999e-06 0.831339
6463 1 47.5777 14.0805 -77.6622 0 3.51509 2 0 4.53999e-06 0.868665
8503 1 47.0848 13.9535 -76.8811 0 3.23156 1 0 4.53999e-06 0.942323
6183 1 47.9874 13.4125 -76.9609 0 3.55352 2 0 4.53999e-06 0.894416
3235 1 45.1906 14.6379 -77.7462 0 3.1078 2 0 4.53999e-06 -0.568059