ITEM: TIMESTEP
11500
ITEM: NUMBER OF ATOMS
9495
ITEM: BOX BOUNDS mm mm mm
0.0000000000000000e+00 3.1748021039364001e+01
0.0000000000000000e+00 3.1748021039364001e+01
-7.4072398406925706e-04 3.1748021039364001e+01
ITEM: ATOMS id type x y z c_phase c_temp c_surf c_nbond c_visc f_3[1]
1 1 0.116341 1.10259 0.464337 4 7.13795e-13 2 0 0.0994487 -0.68194
2 1 0.974108 1.6685 0.77798 4 3.38513e-12 2 0 0.0994487 -0.517032
3 1 0.714648 0.793562 1.41295 4 1.29991e-12 2 0 0.0994487 -0.281794
4 1 0.00336375 1.60273 1.37437 4 9.27665e-13 2 0 0.0994487 -0.804051
5 1 0.729896 0.0633724 0.61602 4 6.69553e-13 3 0 0.0994487 -0.190374
6 1 1.71015 0.808983 1.0155 4 5.66475e-12 2 0 0.0994487 -0.332069
7 1 1.80059 1.47468 0.221075 4 7.53825e-12 2 0 0.0994487 -0.125829
8 1 1.82015 1.66049 1.76126 4 9.62327e-12 2 0 0.0994487 -0.139533
9 1 2.52093 0.749102 0.203812 4 1.27926e-11 2 0 0.0994487 -0.142939
10 1 2.59149 0.0538711 1.03726 4 1.06581e-11 2 0 0.0994487 -0.295004
11 1 2.64922 1.541 0.882848 4 3.0112e-11 2 0 0.0994487 0.235755
12 1 2.66829 0.815502 1.7457 4 1.78289e-11 2 0 0.0994487 -0.18704
13 1 3.43386 0.933692 0.956349 4 6.18688e-11 2 0 0.0994487 0.320241
14 1 3.49924 0.0925696 1.70571 4 2.99187e-11 2 0 0.0994487 0.178053
15 1 3.60652 1.70798 1.71994 4 1.12204e-10 2 0 0.0994487 0.0487951
16 1 4.10576 0.858321 0.325305 4 1.36208e-10 2 0 0.0994487 0.153146
17 1 4.96159 0.56786 1.17466 4 4.05882e-10 2 0 0.0994487 -0.0370669
18 1 4.91949 1.59987 0.383508 4 6.93794e-10 2 0 0.0994487 -0.100248
19 1 4.3472 0.941527 1.62884 4 1.96175e-10 2 0 0.0994487 0.110738
20 1 3.47612 0.111428 0.171027 4 2.64406e-11 2 0 0.0994487 0.166215
21 1 5.64741 0.645627 0.325839 4 9.70786e-10 2 0 0.0994487 -0.0806047
22 1 5.88414 1.31048 0.938036 4 2.07393e-09 2 0 0.0994487 -0.199583
23 1 6.57478 1.39104 0.218369 4 4.80153e-09 2 0 0.0994487 -0.0861331
24 1 5.78374 0.460658 1.69897 4 9.40248e-10 2 0 0.0994487 -0.0846523
25 1 5.03122 1.72414 1.43602 4 8.34587e-10 2 0 0.0994487 0.0453723
26 1 6.7138 0.39031 0.865278 4 3.26443e-09 2 0 0.0994487 -0.0793815
27 1 6.69104 1.00962 1.69374 4 4.00232e-09 2 0 0.0994487 -0.107923
28 1 8.2679 0.408875 1.07337 4 1.87166e-08 2 0 0.0994487 -0.100166
29 1 7.36782 1.22285 0.954198 4 1.16774e-08 2 0 0.0994487 -0.302549
30 1 8.24709 1.39092 0.236779 4 3.23858e-08 2 0 0.0994487 -0.0460635
31 1 8.12868 1.27217 1.60653 4 2.59817e-08 2 0 0.0994487 -0.00811625
32 1 7.58247 0.647807 0.140287 4 9.43248e-09 2 0 0.0994487 -0.110935
33 1 8.85849 0.508506 0.273966 4 3.4462e-08 2 0 0.0994487 -0.0616457
34 1 9.55301 0.3386 0.888639 4 6.93356e-08 2 0 0.0994487 0.00506494
35 1 9.02586 1.30716 1.1133 4 7.68872e-08 2 0 0.0994487 -0.0606424
37 1 9.63995 1.37474 0.0900752 4 1.20041e-07 2 0 0.0994487 0.099292
38 1 11.2128 0.215893 0.632658 4 3.49465e-07 2 0 0.0994487 0.203505
39 1 10.3637 1.04743 0.823114 4 2.51646e-07 2 0 0.0994487 0.539889
40 1 10.523 0.196295 1.44539 4 1.67937e-07 2 0 0.0994487 0.0644296
41 1 11.2856 1.01846 1.41785 4 6.80359e-07 2 0 0.0994487 0.16471
42 1 10.5797 1.67706 1.72992 4 4.84536e-07 2 0 0.0994487 0.118165
43 1 10.2431 0.367861 0.0780499 4 1.03891e-07 2 0 0.0994487 0.149802
44 1 12.8757 0.211714 0.636805 4 1.8492e-06 2 0 0.0994487 0.0587898
45 1 12.0457 1.07408 0.506655 4 1.57142e-06 2 0 0.0994487 -0.0235487
46 1 12.1319 0.316439 1.29957 4 1.0134e-06 2 0 0.0994487 0.0188388
47 1 12.7194 1.19864 1.3723 4 3.26659e-06 2 0 0.0994487 -0.0305234
48 1 14.3729 0.318493 0.764646 4 7.42308e-06 2 0 0.0994487 -0.0460356
49 1 13.5924 1.113 0.843618 4 7.0542e-06 2 0 0.0994487 -0.263045
50 1 14.0399 1.55958 0.167469 4 1.30413e-05 2 0 0.0994487 -0.0898225
51 1 13.6075 0.359834 1.6352 4 3.69294e-06 2 0 0.0994487 -0.0562611
52 1 14.3777 1.14948 1.47647 4 1.22293e-05 2 0 0.0994487 -0.0178234
53 1 14.8761 1.55337 0.662943 4 2.50034e-05 2 0 0.0994487 0.389957
54 1 15.7061 0.770636 0.788259 4 2.7351e-05 2 0 0.0994487 0.36649
55 1 16.5532 1.54451 0.681338 4 9.46185e-05 2 0 0.0994487 0.000816834
56 1 15.1422 0.4642 1.64149 4 1.30897e-05 2 0 0.0994487 0.15208
57 1 16.547 0.712289 1.3421 4 5.24667e-05 2 0 0.0994487 0.0956341
58 1 15.6341 1.48544 1.3916 4 4.44074e-05 2 0 0.0994487 0.153639
59 1 15.1049 0.711806 0.0677822 4 1.27713e-05 2 0 0.0994487 0.169205
60 1 17.2544 0.732268 0.547589 4 7.95091e-05 2 0 0.0994487 0.0286365
61 1 17.9231 1.58109 0.757246 4 0.000227989 2 0 0.0994487 0.0415767
62 1 17.916 0.742935 1.42801 4 0.000126184 2 0 0.0994487 -0.224367
63 1 17.2202 1.74884 1.56274 4 0.000178404 2 0 0.0994487 -0.0984748
64 1 19.5372 0.0167772 0.662766 4 0.000138582 2 0 0.0994487 0.0436484
65 1 18.7918 0.725074 0.684829 4 0.000177065 2 0 0.0994487 -0.269937
66 1 19.5395 1.55488 0.841653 4 0.000460474 2 0 0.0994487 -0.341143
67 1 19.0276 0.158607 1.54508 4 0.000131657 2 0 0.0994487 -0.15866
68 1 19.5934 0.967491 1.68957 4 0.00028074 2 0 0.0994487 0.00835901
69 1 18.6564 1.51302 1.50035 4 0.000311659 2 0 0.0994487 -0.250294
70 1 21.0889 0.349843 1.06749 4 0.000283858 2 0 0.0994487 -0.196118
71 1 20.2493 0.776373 0.980057 4 0.000314422 2 0 0.0994487 -0.0497435
72 1 21.1062 1.65725 0.951506 4 0.00074347 2 0 0.0994487 0.692958
73 1 21.1874 0.765598 0.218806 4 0.000345463 2 0 0.0994487 -0.044584
74 1 20.3457 1.51479 0.193617 4 0.000533863 2 0 0.0994487 -0.0805949
75 1 22.0087 0.262534 0.539755 4 0.000287868 2 0 0.0994487 0.0993666
76 1 22.7913 0.430275 1.40734 4 0.000343953 2 0 0.0994487 0.206611
77 1 22.1105 1.14763 1.32981 4 0.000545156 2 0 0.0994487 0.240047
78 1 21.9982 1.59955 0.538558 4 0.000811401 2 0 0.0994487 0.185187
79 1 22.9157 1.07463 0.445168 4 0.00053367 2 0 0.0994487 0.0520967
80 1 24.228 0.380179 1.45209 4 0.000334174 2 0 0.0994487 0.0576244
81 1 23.5672 0.357563 0.57369 4 0.00033611 2 0 0.0994487 0.0385801
82 1 24.4367 1.18687 0.754729 4 0.000606055 2 0 0.0994487 -0.0192753
83 1 23.4757 1.2499 1.4028 4 0.000671696 2 0 0.0994487 0.0298939
84 1 24.955 0.315686 0.551996 4 0.000283436 2 0 0.0994487 -0.0171913
85 1 26.0085 0.383365 1.1715 4 0.000225944 2 0 0.0994487 -0.185853
86 1 25.169 1.12579 1.48087 4 0.000514043 2 0 0.0994487 0.0251141
87 1 25.9301 1.73476 1.35794 4 0.000685116 2 0 0.0994487 0.0345465
88 1 25.8917 0.929212 0.432102 4 0.000332849 2 0 0.0994487 -0.0954128
89 1 27.5736 1.28032 0.38906 4 0.000201738 2 0 0.0994487 0.0454535
90 1 27.6142 0.50928 0.874321 4 0.000123764 2 0 0.0994487 0.175392
91 1 26.7559 1.02809 1.26347 4 0.000255648 2 0 0.0994487 -0.236875
92 1 28.3748 0.337482 1.39813 4 7.10714e-05 2 0 0.0994487 0.00984752
93 1 26.7925 0.240345 0.226621 4 0.000134149 2 0 0.0994487 0.0380776
94 1 28.6489 1.24263 0.742341 4 0.000114678 2 0 0.0994487 0.102411
95 1 29.3912 0.945639 1.56878 4 5.44416e-05 2 0 0.0994487 -0.0191989
96 1 28.5228 1.71921 1.49749 4 0.00016503 2 0 0.0994487 -0.0429766
97 1 29.8133 0.173958 1.46124 4 2.58462e-05 2 0 0.0994487 0.133417
98 1 29.2734 0.3547 0.615275 4 3.93475e-05 2 0 0.0994487 -0.0816799
99 1 31.5874 0.266128 1.25663 4 7.32383e-06 3 0 0.0994487 0.830097
100 1 30.7016 0.49015 0.470738 4 1.72479e-05 2 0 0.0994487 0.354852
101 1 30.1009 1.19877 0.774133 4 4.26467e-05 2 0 0.0994487 0.210922
102 1 30.8649 0.971942 1.39386 4 2.26956e-05 2 0 0.0994487 0.703282
103 1 1.11081 2.43607 0.129285 4 4.88079e-12 2 0 0.0994487 -0.0373222
104 1 0.133403 2.3821 0.812241 4 1.89501e-12 2 0 0.0994487 -0.984517
105 1 1.28845 3.23764 0.949187 4 1.41623e-11 2 0 0.0994487 0.222092
106 1 1.13977 2.36077 1.59162 4 6.43108e-12 2 0 0.0994487 -0.222189
107 1 0.386685 3.02999 1.54944 4 3.76362e-12 2 0 0.0994487 -0.671256
108 1 0.332248 3.09582 0.131296 4 2.97657e-12 2 0 0.0994487 -0.59134
109 1 1.90972 2.41867 0.78376 4 1.87741e-11 2 0 0.0994487 0.0782089
110 1 2.65852 3.28029 0.860875 4 9.95541e-11 2 0 0.0994487 0.0668039
111 1 2.66931 2.22918 1.53373 4 4.68333e-11 2 0 0.0994487 0.0829551
112 1 3.2579 3.42668 1.64938 4 2.31145e-10 2 0 0.0994487 0.00397508
113 1 2.7261 2.38168 0.0557193 4 3.88563e-11 2 0 0.0994487 0.146601
114 1 3.38195 2.55413 0.779289 4 1.60305e-10 2 0 0.0994487 0.211584
115 1 4.00679 1.841 0.711184 4 2.45257e-10 2 0 0.0994487 -0.0361233
116 1 4.91383 2.57277 0.815661 4 1.34066e-09 2 0 0.0994487 -0.259349
117 1 4.20148 3.3175 0.749446 4 8.25544e-10 2 0 0.0994487 0.00621583
118 1 4.13245 2.64107 1.58328 4 4.58461e-10 2 0 0.0994487 0.0270778
119 1 5.65047 2.44269 0.132743 4 2.82068e-09 2 0 0.0994487 -0.189925
120 1 6.55776 2.18062 0.772597 4 8.29561e-09 2 0 0.0994487 -0.28938
121 1 5.64874 3.19593 0.952489 4 5.09198e-09 2 0 0.0994487 -0.754632
122 1 5.861 2.19426 1.49672 4 3.2669e-09 2 0 0.0994487 0.0126361
123 1 6.52037 3.06691 1.5557 4 1.31596e-08 2 0 0.0994487 0.0443581
124 1 6.65033 2.92778 0.134227 4 1.20975e-08 2 0 0.0994487 0.0288873
125 1 7.45405 2.22586 0.139832 4 2.30512e-08 2 0 0.0994487 -0.0535019
126 1 8.08209 2.20208 0.930382 4 5.23524e-08 2 0 0.0994487 -0.302069
127 1 7.40132 3.06835 0.934051 4 4.23759e-08 2 0 0.0994487 -0.0455169
128 1 7.29928 2.06035 1.56856 4 1.75459e-08 2 0 0.0994487 -0.0607322
129 1 8.18545 3.00183 1.65211 4 9.37412e-08 2 0 0.0994487 -0.0454152
130 1 8.26934 2.9712 0.0392146 4 9.77222e-08 2 0 0.0994487 -0.150616
131 1 8.90393 2.08699 0.252387 4 1.06296e-07 2 0 0.0994487 0.00243416
132 1 9.77243 2.0246 1.10996 4 2.87492e-07 2 0 0.0994487 0.173468
133 1 8.92671 2.97262 0.928693 4 2.33847e-07 2 0 0.0994487 -0.156752
134 1 9.03062 2.22066 1.70398 4 1.41192e-07 2 0 0.0994487 -0.0819671
135 1 9.56096 2.90576 0.21312 4 3.78215e-07 2 0 0.0994487 0.173121
136 1 10.2834 2.1137 0.214297 4 4.03381e-07 2 0 0.0994487 0.33774
137 1 11.1583 1.82604 0.771092 4 1.08002e-06 2 0 0.0994487 0.260092
138 1 10.6214 2.80819 0.921535 4 1.2975e-06 2 0 0.0994487 0.541922
139 1 11.4444 2.82964 1.57484 4 3.08109e-06 2 0 0.0994487 0.0952016
140 1 12.6737 1.94118 0.593851 4 5.82749e-06 2 0 0.0994487 -0.28393
141 1 11.928 2.64099 0.742299 4 4.51819e-06 2 0 0.0994487 -0.0386704
142 1 11.9239 1.9206 1.46509 4 2.53086e-06 2 0 0.0994487 0.0946565
143 1 12.8449 3.01766 1.68597 4 1.32802e-05 2 0 0.0994487 0.0363589
144 1 13.1791 3.03035 0.848852 4 2.01853e-05 2 0 0.0994487 -0.440849
145 1 13.3784 1.9912 1.48064 4 1.04087e-05 2 0 0.0994487 -0.0150674
146 1 14.0206 2.44438 0.927124 4 2.69252e-05 2 0 0.0994487 -0.133083
147 1 14.0279 3.38359 1.55716 4 5.16944e-05 2 0 0.0994487 0.0255776
148 1 14.6961 3.43698 0.884932 4 9.7978e-05 2 0 0.0994487 -0.332927
149 1 14.7823 2.29758 1.44821 4 4.30295e-05 2 0 0.0994487 0.0469314
150 1 14.8418 2.51505 0.136557 4 4.94459e-05 2 0 0.0994487 0.173008
151 1 14.1591 3.2262 0.0325348 4 5.00113e-05 2 0 0.0994487 -0.246103
152 1 13.4137 2.29398 0.0590902 4 1.35334e-05 2 0 0.0994487 -0.28096
153 1 15.6993 2.44373 0.692668 4 9.93978e-05 2 0 0.0994487 0.364405
154 1 16.3029 3.20095 0.662084 4 0.000271612 2 0 0.0994487 0.3286
155 1 16.308 2.47951 1.52575 4 0.000169604 2 0 0.0994487 -0.100639
156 1 15.3694 3.25723 1.50191 4 0.000146354 2 0 0.0994487 -0.00766396
157 1 15.5706 3.25854 0.0192499 4 0.000131784 2 0 0.0994487 0.290241
158 1 17.0646 2.35032 0.682778 4 0.00025264 2 0 0.0994487 0.0234919
159 1 17.944 2.92608 0.699539 4 0.000705395 2 0 0.0994487 -0.231177
160 1 18.0193 2.43917 1.58112 4 0.000490054 2 0 0.0994487 -0.149123
161 1 17.0918 3.1162 1.49491 4 0.000478952 2 0 0.0994487 -0.143423
162 1 18.8908 2.35742 1.01358 4 0.000699216 2 0 0.0994487 -0.516796
163 1 19.7027 3.2427 1.27782 4 0.00189283 2 0 0.0994487 0.394906
164 1 18.884 2.99607 0.196019 4 0.00109791 2 0 0.0994487 -0.171801
165 1 19.587 2.34239 0.101452 4 0.000840638 2 0 0.0994487 -0.132363
166 1 20.3251 1.78863 1.72442 4 0.000632237 2 0 0.0994487 0.0449644
167 1 21.1565 2.41663 0.458355 4 0.0014721 2 0 0.0994487 0.196202
168 1 20.1948 2.46882 1.11433 4 0.0011677 2 0 0.0994487 0.286803
169 1 21.31 3.29463 1.39314 4 0.0034927 2 0 0.0994487 0.0777503
170 1 20.4222 2.99313 0.334941 4 0.00189558 2 0 0.0994487 0.186303
171 1 22.8719 2.07007 1.50872 4 0.00141867 2 0 0.0994487 -0.0221082
172 1 22.9717 2.60199 0.735523 4 0.00250922 2 0 0.0994487 0.133353
173 1 22.0961 2.49917 1.23787 4 0.00203309 2 0 0.0994487 0.186472
174 1 21.9898 3.20043 0.598797 4 0.00382737 2 0 0.0994487 -0.0757226
175 1 22.6771 3.40124 0.07601 4 0.00459604 2 0 0.0994487 0.076082
176 1 23.7438 1.80844 0.624025 4 0.00108097 2 0 0.0994487 -0.0873428
177 1 24.4289 1.98763 1.61102 4 0.00121785 2 0 0.0994487 -0.0641659
178 1 24.342 2.68296 0.775192 4 0.00232181 2 0 0.0994487 -0.34107
179 1 23.6887 2.90303 1.53628 4 0.00302171 2 0 0.0994487 -0.11049
180 1 24.4728 3.51078 1.55704 4 0.00472289 2 0 0.0994487 -0.118293
181 1 24.9562 2.84566 0.0146836 4 0.00206504 2 0 0.0994487 -0.0864551
182 1 26.5483 1.79415 0.511367 4 0.000532189 2 0 0.0994487 -0.00559331
183 1 25.1322 1.85613 0.509414 4 0.000955245 2 0 0.0994487 -0.0215193
184 1 25.7918 2.61203 0.707489 4 0.00156827 2 0 0.0994487 0.228215
185 1 25.1579 2.55548 1.52547 4 0.00177609 2 0 0.0994487 0.0576762
186 1 25.7213 3.49812 1.51211 4 0.00344212 2 0 0.0994487 0.123864
187 1 26.5364 2.56002 1.53049 4 0.0010645 2 0 0.0994487 0.0579534
188 1 26.1686 3.50068 0.599043 4 0.00289348 2 0 0.0994487 0.168853
189 1 27.5039 1.98546 1.23792 4 0.000381831 2 0 0.0994487 -0.186408
190 1 28.2489 2.09022 0.343734 4 0.000258358 2 0 0.0994487 -0.0177217
191 1 27.0867 2.6924 0.645359 4 0.000891738 2 0 0.0994487 -0.105593
192 1 27.1998 3.35397 1.41682 4 0.00143359 2 0 0.0994487 -0.0983229
193 1 28.2537 2.75799 1.20639 4 0.000451305 2 0 0.0994487 -0.4183
194 1 27.982 3.21993 0.326384 4 0.000727042 2 0 0.0994487 -0.125255
195 1 29.9568 1.80906 1.70764 4 6.91058e-05 2 0 0.0994487 0.183202
196 1 29.4477 2.04702 0.879698 4 0.000122565 2 0 0.0994487 -0.00707692
197 1 29.1956 2.6589 0.290703 4 0.000209976 2 0 0.0994487 -0.0578267
198 1 29.2495 3.2651 1.17365 4 0.000331318 2 0 0.0994487 0.118638
199 1 30.9114 1.98502 0.924207 4 4.7932e-05 2 0 0.0994487 0.967252
200 1 30.1815 2.71094 1.00186 4 0.000116398 2 0 0.0994487 0.675123
201 1 31.0247 3.35309 0.97101 4 0.000105362 2 0 0.0994487 0.99841
202 1 30.9865 2.69483 1.72648 4 6.68725e-05 2 0 0.0994487 0.578502
203 1 30.1092 3.25953 0.132205 4 0.000149624 2 0 0.0994487 -0.0443652
204 1 30.4116 1.90909 0.0255368 4 5.11196e-05 2 0 0.0994487 0.106045
205 1 31.1434 2.66402 0.0761253 4 5.57578e-05 2 0 0.0994487 0.70882
206 1 0.293831 3.78503 0.918557 4 5.46998e-12 2 0 0.0994487 -0.999347
207 1 0.143046 4.59443 0.482118 4 6.59142e-12 2 0 0.0994487 -0.784494
208 1 1.14036 4.67093 0.986638 4 2.75766e-11 2 0 0.0994487 -0.516753
209 1 0.0884667 5.26681 1.27761 4 8.6189e-12 2 0 0.0994487 -0.887458
210 1 1.04069 3.86421 0.0595682 4 1.20779e-11 2 0 0.0994487 0.0148879
211 1 1.84117 4.04604 0.847105 4 5.30348e-11 2 0 0.0994487 0.00826811
212 1 2.54049 4.85585 1.13748 4 2.18562e-10 2 0 0.0994487 -0.333846
213 1 2.64953 4.14475 0.20674 4 1.61221e-10 2 0 0.0994487 -0.0285722
214 1 1.89758 4.96895 0.278386 4 9.12652e-11 2 0 0.0994487 -0.153434
215 1 3.40771 4.86189 0.161635 4 6.67765e-10 2 0 0.0994487 -0.0163881
216 1 3.494 4.07675 0.885909 4 5.19599e-10 2 0 0.0994487 0.0268933
217 1 4.91235 4.00001 1.18344 4 3.30208e-09 2 0 0.0994487 0.0115111
218 1 4.04658 4.88002 1.14639 4 1.75277e-09 2 0 0.0994487 0.26449
219 1 4.26027 4.18509 0.149001 4 1.36791e-09 2 0 0.0994487 0.0377382
220 1 5.00947 4.74001 0.341082 4 5.31903e-09 2 0 0.0994487 0.07654
221 1 5.77735 3.9378 0.198707 4 7.58617e-09 2 0 0.0994487 0.0260159
222 1 6.48883 3.76611 0.772067 4 2.03622e-08 2 0 0.0994487 0.204554
223 1 5.68025 4.73638 1.02487 4 1.40018e-08 2 0 0.0994487 -0.621684
224 1 6.66321 4.5115 1.6428 4 3.72579e-08 2 0 0.0994487 0.158934
225 1 6.68072 5.1315 0.885352 4 6.19133e-08 2 0 0.0994487 0.206857
226 1 8.1982 3.892 0.700757 4 1.92382e-07 2 0 0.0994487 -0.369899
227 1 7.40842 4.46072 0.5468 4 1.00819e-07 2 0 0.0994487 -0.0252118
228 1 7.39886 3.87029 1.49684 4 6.64408e-08 2 0 0.0994487 0.102578
229 1 8.20004 4.61106 1.48677 4 2.87629e-07 2 0 0.0994487 -0.0118367
230 1 9.8976 3.57792 0.885667 4 1.04525e-06 2 0 0.0994487 0.592793
231 1 9.07913 4.56551 0.821335 4 7.85297e-07 2 0 0.0994487 -0.65854
232 1 9.86266 4.50302 0.126324 4 1.44723e-06 2 0 0.0994487 0.095866
233 1 9.07829 3.76256 1.49819 4 4.7198e-07 2 0 0.0994487 -0.0708849
234 1 9.86881 4.3462 1.65532 4 1.63362e-06 2 0 0.0994487 -0.0856618
235 1 8.98541 3.86821 0.0631775 4 3.98236e-07 2 0 0.0994487 -0.138753
236 1 11.408 3.64493 0.778297 4 5.47694e-06 2 0 0.0994487 0.202068
237 1 10.5891 4.66652 0.906264 4 4.44822e-06 2 0 0.0994487 0.0450825
238 1 11.3867 4.69403 0.230734 4 9.99887e-06 2 0 0.0994487 -0.0498893
239 1 10.7059 3.56689 1.58785 4 2.45803e-06 2 0 0.0994487 -0.0448483
240 1 11.3652 4.3716 1.70545 4 8.03597e-06 2 0 0.0994487 -0.0798269
241 1 11.3894 5.27213 0.983682 4 1.46953e-05 2 0 0.0994487 -0.674475
242 1 10.5826 3.84888 0.176129 4 2.25862e-06 2 0 0.0994487 0.210467
243 1 12.5168 3.57716 0.814749 4 1.59732e-05 2 0 0.0994487 -0.010573
244 1 12.1916 4.55033 1.00021 4 2.18398e-05 2 0 0.0994487 0.105055
245 1 12.7362 4.99738 1.68903 4 4.23271e-05 2 0 0.0994487 0.19133
246 1 13.2258 4.67863 0.80017 4 6.4697e-05 2 0 0.0994487 -0.0046921
247 1 12.6435 4.61885 0.0632315 4 3.39836e-05 2 0 0.0994487 -0.0335794
248 1 13.9891 4.12825 0.69648 4 9.08588e-05 2 0 0.0994487 -0.430171
249 1 13.4832 4.21781 1.59317 4 5.58524e-05 2 0 0.0994487 0.0820198
250 1 14.2046 5.11838 1.52001 4 0.000198558 2 0 0.0994487 -0.0289893
251 1 14.9402 5.01141 0.811699 4 0.000342343 2 0 0.0994487 -0.0526553
252 1 14.9642 4.4167 1.59432 4 0.000234537 2 0 0.0994487 -0.063559
253 1 14.1405 4.90647 0.0597868 4 0.000154735 2 0 0.0994487 -0.0856928
254 1 14.961 4.19423 0.096508 4 0.000183057 2 0 0.0994487 0.0322753
255 1 15.6685 4.06642 0.926277 4 0.000322887 2 0 0.0994487 0.872588
256 1 15.8798 4.77595 0.186426 4 0.000563611 2 0 0.0994487 0.165394
257 1 16.5936 4.58036 0.900182 4 0.000925616 2 0 0.0994487 -0.0789223
258 1 16.3184 3.95875 1.6903 4 0.000490035 2 0 0.0994487 -0.0433908
259 1 15.8111 5.05317 1.64084 4 0.000644428 2 0 0.0994487 0.0995041
260 1 17.2689 3.83372 0.811237 4 0.000910224 2 0 0.0994487 -0.345365
261 1 18.0864 4.48855 1.09806 4 0.00224073 2 0 0.0994487 -0.612054
262 1 17.9525 3.63794 1.65602 4 0.001166 2 0 0.0994487 -0.192795
263 1 17.4569 4.57727 0.0147963 4 0.00139591 2 0 0.0994487 -0.0974037
264 1 18.1348 3.8547 0.0583493 4 0.00134519 2 0 0.0994487 -0.12051
265 1 18.8779 3.70667 0.95022 4 0.00192817 2 0 0.0994487 0.0693294
266 1 18.8235 4.60949 0.361826 4 0.00336082 2 0 0.0994487 0.115621
267 1 19.6906 4.67872 1.0803 4 0.00620178 2 0 0.0994487 0.931542
268 1 18.7859 5.27693 1.20102 4 0.00578138 2 0 0.0994487 0.599219
269 1 19.5987 3.76722 0.227421 4 0.00259309 2 0 0.0994487 0.16428
270 1 20.4384 3.82188 1.23329 4 0.00426766 2 0 0.0994487 0.325987
271 1 20.8846 4.71868 1.39403 4 0.011315 2 0 0.0994487 0.149085
272 1 21.5775 4.95128 0.810455 4 0.0178375 2 0 0.0994487 -0.00366959
273 1 21.0824 3.93136 0.512408 4 0.00582545 2 0 0.0994487 0.0883244
274 1 20.1339 4.78559 0.352846 4 0.00808155 2 0 0.0994487 0.145601
275 1 22.8205 3.63186 1.42135 4 0.00613063 2 0 0.0994487 -0.0183816
276 1 21.9406 4.13318 1.31068 4 0.00898701 2 0 0.0994487 0.027232
277 1 22.4705 5.17735 1.27286 4 0.0251149 2 0 0.0994487 0.0207448
278 1 22.6119 4.34705 0.510028 4 0.0115253 2 0 0.0994487 -0.0220832
279 1 23.5735 3.63903 0.782677 4 0.00634517 2 0 0.0994487 0.185597
280 1 24.336 4.32055 0.625018 4 0.0106255 2 0 0.0994487 -0.150077
281 1 23.4679 4.54946 1.33355 4 0.0145507 2 0 0.0994487 -0.0790313
282 1 24.8518 5.25716 0.566763 4 0.0193164 2 0 0.0994487 0.040918
283 1 23.5518 5.06386 0.533607 4 0.0221305 2 0 0.0994487 -0.0968664
284 1 25.0086 4.50055 1.62342 4 0.0101034 2 0 0.0994487 -0.0421881
285 1 25.0629 3.68037 0.802132 4 0.00500119 2 0 0.0994487 -0.187895
286 1 24.363 5.28843 1.43377 4 0.0235948 2 0 0.0994487 -0.154696
287 1 25.6904 5.1389 1.34266 4 0.013233 2 0 0.0994487 0.21011
288 1 26.3575 4.29031 1.37159 4 0.0050106 2 0 0.0994487 0.149489
289 1 26.5026 4.97257 0.640732 4 0.00755471 2 0 0.0994487 0.0989729
290 1 25.5284 4.40089 0.388179 4 0.00756113 2 0 0.0994487 0.0559532
291 1 27.3302 4.86961 1.40568 4 0.00434986 2 0 0.0994487 0.00661249
292 1 27.9624 3.97641 1.10408 4 0.0014393 2 0 0.0994487 -0.309491
293 1 28.2771 4.73475 0.706344 4 0.00203955 2 0 0.0994487 -0.0812449
294 1 27.0674 4.04323 0.570038 4 0.00272045 2 0 0.0994487 0.0120269
295 1 28.9321 3.77016 0.487204 4 0.000593431 2 0 0.0994487 -0.007032
296 1 29.0873 4.52317 1.33085 4 0.000949587 2 0 0.0994487 0.0574854
297 1 29.9979 4.07209 1.02303 4 0.000328643 2 0 0.0994487 -0.275219
298 1 31.0296 3.97382 0.373364 4 0.000146823 2 0 0.0994487 0.657582
299 1 30.2046 4.67765 0.491317 4 0.000425071 2 0 0.0994487 0.0099572
300 1 30.9783 4.59929 1.41131 4 0.000227457 2 0 0.0994487 0.679912
301 1 0.908283 5.53205 0.461647 4 3.08679e-11 2 0 0.0994487 -0.463785
302 1 1.53161 5.51184 1.37971 4 6.95844e-11 2 0 0.0994487 -0.117387
303 1 0.793684 6.22023 1.2768 4 3.58536e-11 2 0 0.0994487 -0.703381
304 1 0.257003 6.91734 1.50738 4 2.1967e-11 2 0 0.0994487 -0.772633
305 1 0.969942 6.9454 0.573423 4 6.48496e-11 2 0 0.0994487 -0.473533
306 1 1.7053 7.02884 1.23811 4 1.76546e-10 2 0 0.0994487 0.066518
307 1 1.89588 6.19966 0.519025 4 1.72993e-10 2 0 0.0994487 -0.1564
308 1 3.10475 5.61709 1.30057 4 6.95727e-10 2 0 0.0994487 0.0402526
309 1 2.26359 6.15348 1.40977 4 2.55016e-10 2 0 0.0994487 0.040856
310 1 3.25442 6.96226 1.12748 4 1.77826e-09 2 0 0.0994487 -0.0541236
311 1 2.68177 5.61289 0.273587 4 3.81389e-10 2 0 0.0994487 -0.0596857
312 1 3.39503 6.28191 0.500536 4 1.60738e-09 2 0 0.0994487 -0.121444
313 1 4.18979 5.46246 0.325783 4 2.84582e-09 2 0 0.0994487 0.0310176
314 1 4.93434 5.42873 1.31778 4 8.53549e-09 2 0 0.0994487 -0.2351
315 1 4.13622 6.09659 1.22779 4 4.21476e-09 2 0 0.0994487 -0.0893889
316 1 4.82567 6.23357 0.333842 4 1.02444e-08 2 0 0.0994487 -0.0345758
317 1 4.77312 6.79931 1.15967 4 1.4616e-08 2 0 0.0994487 -0.30593
318 1 4.00267 7.02511 0.221759 4 4.83223e-09 2 0 0.0994487 -0.0853439
319 1 5.78575 5.42185 0.301847 4 2.14403e-08 2 0 0.0994487 0.0125023
320 1 5.6935 6.24342 0.9632 4 3.43055e-08 2 0 0.0994487 -0.96778
321 1 6.4578 5.98425 1.59671 4 7.28537e-08 2 0 0.0994487 0.140914
322 1 6.43234 6.86927 1.00965 4 1.24481e-07 2 0 0.0994487 0.851674
323 1 6.37773 6.04115 0.154639 4 5.45809e-08 2 0 0.0994487 0.111113
324 1 5.54993 7.05206 0.147147 4 3.50407e-08 2 0 0.0994487 0.0363866
325 1 8.21355 5.31419 0.694273 4 4.57452e-07 2 0 0.0994487 -0.0895917
326 1 7.32761 6.15925 0.754293 4 2.45891e-07 2 0 0.0994487 0.225733
327 1 7.39163 5.41839 1.49138 4 1.71032e-07 2 0 0.0994487 0.136754
328 1 8.23884 6.11028 1.49159 4 7.38168e-07 2 0 0.0994487 0.0187375
329 1 8.01352 6.85364 0.728993 4 8.41561e-07 2 0 0.0994487 0.0691871
330 1 7.28191 6.86379 1.59601 4 3.60698e-07 2 1 0.0994487 0.126049
331 1 7.33029 5.3575 0.0461812 4 1.22062e-07 2 0 0.0994487 0.081357
332 1 9.76796 5.3194 0.792562 4 2.54943e-06 2 0 0.0994487 0.328448
333 1 8.88016 6.18865 0.736908 4 1.64437e-06 2 0 0.0994487 -0.235541
334 1 9.05434 5.3271 1.5973 4 1.18037e-06 2 0 0.0994487 -0.0628308
335 1 9.73844 6.19052 1.46731 4 4.35953e-06 2 0 0.0994487 -0.106405
336 1 9.09351 6.95013 1.463 4 3.48378e-06 2 2 0.0994487 -0.0756754
337 1 9.76329 6.23201 0.0941385 4 3.77603e-06 2 0 0.0994487 -0.0359518
338 1 8.99733 5.46479 0.012702 4 9.93532e-07 2 0 0.0994487 -0.134754
339 1 10.5831 6.02196 0.964384 4 9.6081e-06 2 0 0.0994487 -0.356503
340 1 11.3128 6.37134 0.0776634 4 1.79555e-05 2 0 0.0994487 0.100341
341 1 10.5187 6.94145 0.15452 4 1.17611e-05 2 0 0.0994487 -0.0735401
342 1 10.4686 6.92564 1.49614 4 1.46955e-05 2 1 0.0994487 -0.0635345
343 1 11.9994 5.6274 0.183157 4 2.8275e-05 2 0 0.0994487 -0.0105307
344 1 12.6757 5.81849 0.861776 4 7.14616e-05 2 0 0.0994487 0.0817448
345 1 11.7774 6.20735 1.05291 4 3.51179e-05 2 0 0.0994487 0.292164
346 1 13.3219 5.86668 1.55471 4 0.000129057 2 0 0.0994487 0.208166
347 1 13.3506 6.58297 0.813679 4 0.000216101 2 0 0.0994487 -0.292122
348 1 13.3212 5.53867 0.0424813 4 0.000105609 2 0 0.0994487 -0.142911
349 1 14.0617 5.71565 0.77266 4 0.000251553 2 0 0.0994487 -0.372688
350 1 14.3278 6.65176 1.40646 4 0.000588555 2 1 0.0994487 -0.103112
351 1 14.1303 6.38483 0.0380077 4 0.000318376 2 0 0.0994487 -0.0826105
352 1 15.0282 5.64393 0.034369 4 0.000473092 2 0 0.0994487 0.0573649
353 1 15.8305 5.73813 0.95832 4 0.00108893 2 0 0.0994487 0.625801
354 1 15.0472 6.45091 0.806774 4 0.000904952 2 0 0.0994487 -0.176057
355 1 16.491 6.45257 1.1401 4 0.00284501 2 0 0.0994487 0.208331
356 1 15.1058 5.87594 1.69804 4 0.000700591 2 0 0.0994487 -0.0976577
357 1 16.62 5.41933 0.276819 4 0.00145302 2 0 0.0994487 0.079928
358 1 15.6753 6.3382 0.0390223 4 0.00117692 2 0 0.0994487 0.0398519
359 1 17.8271 5.30128 0.541411 4 0.00306059 2 0 0.0994487 0.150339
360 1 17.113 5.42499 1.24767 4 0.00229018 2 0 0.0994487 -0.28656
361 1 17.0619 6.27419 0.411469 4 0.00347005 2 0 0.0994487 0.138956
362 1 17.6649 6.24649 1.38542 4 0.00552888 2 0 0.0994487 -0.254239
363 1 18.2745 7.0517 1.13153 4 0.0127049 2 1 0.0994487 0.63115
364 1 18.3714 6.23173 0.609762 4 0.00836867 2 0 0.0994487 0.156194
365 1 19.429 5.75829 0.62055 4 0.0119998 2 0 0.0994487 0.0572051
366 1 19.3279 6.55755 1.35081 4 0.0196703 2 1 0.0994487 0.27475
367 1 19.9942 6.75229 0.610261 4 0.0332307 2 0 0.0994487 -0.0118928
368 1 20.7494 5.77593 0.653722 4 0.0253032 2 0 0.0994487 -0.104024
369 1 20.1931 5.61076 1.39557 4 0.0169813 2 0 0.0994487 0.312053
370 1 20.7787 6.6124 1.30355 4 0.0504624 2 1 0.0994487 -0.34605
371 1 21.6592 6.66248 0.666524 4 0.0606981 2 0 0.0994487 -0.0440271
372 1 21.6631 5.87866 1.38528 4 0.0403746 2 0 0.0994487 0.0416888
373 1 21.6904 5.73259 0.0517844 4 0.0294378 2 0 0.0994487 -0.00148682
374 1 22.6732 5.8279 0.674154 4 0.0410095 2 0 0.0994487 0.00271921
375 1 22.6319 6.69333 1.20734 4 0.0821461 2 0 0.0994487 -0.20121
376 1 23.3484 6.78052 0.267835 4 0.071224 2 0 0.0994487 -0.125303
377 1 23.4822 5.88496 1.30013 4 0.0463487 2 0 0.0994487 -0.176168
378 1 24.3197 6.56281 1.15825 4 0.0593068 2 0 0.0994487 0.175434
379 1 24.1457 6.00685 0.427617 4 0.0402464 2 0 0.0994487 0.00245301
380 1 25.6831 5.86213 0.700952 4 0.0214295 2 0 0.0994487 0.163907
381 1 25.1124 6.04132 1.67733 4 0.0312413 2 0 0.0994487 0.00367588
382 1 25.1593 6.74159 0.495153 4 0.0441854 2 0 0.0994487 0.090402
383 1 25.8251 6.59457 1.40775 4 0.0311197 2 0 0.0994487 0.0881105
384 1 26.6903 5.84511 1.4763 4 0.0126928 2 0 0.0994487 0.0917632
385 1 27.4966 5.54334 0.722172 4 0.00596337 2 0 0.0994487 -0.251572
386 1 26.7485 6.36567 0.651888 4 0.0161867 2 0 0.0994487 0.0387505
387 1 27.7011 6.47315 1.36539 4 0.00923994 2 0 0.0994487 0.131488
388 1 28.3648 5.52203 1.4872 4 0.00316923 2 0 0.0994487 0.0456324
389 1 27.7097 7.0074 0.530173 4 0.0114332 2 0 0.0994487 0.0321171
390 1 29.3889 5.30889 0.818726 4 0.0013022 2 0 0.0994487 0.316738
391 1 29.4379 6.18214 1.32212 4 0.00190002 2 0 0.0994487 -0.00338327
392 1 29.5784 6.89773 0.506505 4 0.00235206 2 0 0.0994487 0.0925824
393 1 28.4685 6.20589 0.638647 4 0.00416207 2 0 0.0994487 -0.270085
394 1 29.3762 6.15398 0.0801838 4 0.00181499 2 0 0.0994487 0.096926
395 1 28.4822 5.38976 0.0592959 4 0.002299 2 0 0.0994487 -0.105003
396 1 30.9636 5.36838 0.595026 4 0.000393684 2 0 0.0994487 0.667852
397 1 30.2159 5.45949 1.46813 4 0.000673751 2 0 0.0994487 0.0540203
398 1 30.3958 6.18258 0.649752 4 0.000906316 2 0 0.0994487 0.328997
399 1 31.2189 6.15516 1.38439 4 0.000464475 2 0 0.0994487 0.587258
400 1 31.1994 6.95407 0.60342 4 0.000688572 2 0 0.0994487 0.812248
401 1 31.7235 5.99622 0.446564 4 0.000309188 2 0 0.0994487 0.87973
402 1 0.261851 7.63199 0.661866 4 3.29596e-11 2 0 0.0994487 -0.876374
403 1 0.831025 8.46344 0.61936 4 8.82511e-11 2 0 0.0994487 -0.577626
404 1 1.11211 7.86396 1.49711 4 9.64642e-11 2 0 0.0994487 -0.154428
405 1 0.356955 8.5626 1.47035 4 4.51172e-11 2 0 0.0994487 -0.764984
406 1 1.59266 7.76478 0.37187 4 2.04123e-10 2 0 0.0994487 -0.0897879
407 1 1.72382 8.61735 1.46471 4 3.08218e-10 2 0 0.0994487 0.0395968
408 1 2.48799 7.14986 0.476331 4 6.43127e-10 2 0 0.0994487 -0.0836962
409 1 2.19177 8.6335 0.399707 4 6.47898e-10 2 0 0.0994487 -0.137268
410 1 2.39416 7.81099 1.27726 4 6.80413e-10 2 0 0.0994487 0.086992
411 1 3.01349 8.51445 0.935533 4 2.15255e-09 2 0 0.0994487 -0.539312
412 1 3.24418 7.77117 0.327041 4 2.29086e-09 2 0 0.0994487 -0.196205
413 1 3.81243 8.45898 0.0822892 4 5.37558e-09 2 0 0.0994487 -0.0457785
414 1 3.97971 7.67009 1.24863 4 6.45272e-09 2 0 0.0994487 -0.0554889
415 1 4.70459 8.25653 0.921772 4 2.15288e-08 2 0 0.0994487 0.295335
416 1 4.67023 7.63706 0.247803 4 1.48233e-08 2 0 0.0994487 0.037692
417 1 3.81127 8.34851 1.76162 4 5.32795e-09 2 0 0.0994487 -0.0574359
418 1 5.86955 8.34822 0.169905 4 8.54595e-08 2 0 0.0994487 0.113106
419 1 5.48363 7.59071 1.03232 4 5.21862e-08 2 0 0.0994487 -0.467663
420 1 6.49365 7.53799 0.169175 4 1.47508e-07 2 0 0.0994487 0.187624
421 1 6.39674 8.23976 1.04384 4 2.27444e-07 2 0 0.0994487 0.338149
422 1 7.28583 7.76918 0.746313 4 5.67755e-07 2 1 0.0994487 0.00993009
423 1 8.2859 8.31376 0.868772 4 2.46495e-06 2 2 0.0994487 0.278823
424 1 7.27857 8.18368 1.7015 4 8.30281e-07 2 2 0.0994487 -0.174667
425 1 8.05208 7.48784 1.5604 4 1.34727e-06 2 1 0.0994487 0.185101
426 1 7.99895 7.60312 0.0282118 4 8.59416e-07 2 0 0.0994487 0.0674132
427 1 9.84313 7.22199 0.72344 4 8.46007e-06 2 1 0.0994487 -0.346915
428 1 8.91207 7.61626 0.661731 4 3.56293e-06 2 1 0.0994487 0.158742
429 1 9.73234 8.61964 0.693151 4 1.37656e-05 2 3 0.0994487 -0.257261
430 1 9.09265 8.69904 1.44495 4 8.68707e-06 2 9 0.0994487 -0.394636
431 1 9.64026 7.88932 1.60055 4 1.18889e-05 2 8 0.0994487 -0.340213
432 1 11.3161 7.14287 0.810636 4 3.55603e-05 2 1 0.0994487 0.44848
433 1 10.5731 7.9454 0.844311 4 2.54135e-05 2 3 0.0994487 -0.198609
434 1 10.5877 8.70196 1.4255 4 3.93729e-05 1 8 0.0994487 -0.147867
435 1 11.4057 7.80503 1.60301 4 6.44424e-05 2 7 0.0994487 0.228067
436 1 11.227 8.11851 0.0422735 4 3.68465e-05 2 0 0.0994487 0.174327
437 1 12.7061 7.28322 0.565784 4 0.000164184 2 0 0.0994487 -0.0531439
438 1 12.178 8.23518 0.590765 4 0.000138607 2 2 0.0994487 0.163925
439 1 12.0637 7.15788 1.37768 4 8.68397e-05 2 3 0.0994487 0.145611