ITEM: TIMESTEP
6000
ITEM: NUMBER OF ATOMS
9495
ITEM: BOX BOUNDS mm mm mm
0.0000000000000000e+00 3.1748021039364001e+01
0.0000000000000000e+00 3.1748021039364001e+01
-7.4072398406925706e-04 3.1748021039364001e+01
ITEM: ATOMS id type x y z c_phase c_temp c_surf c_nbond c_visc f_3[1]
1 1 0.116341 1.10259 0.464337 4 7.26116e-23 2 0 0.0994487 -0.68194
2 1 0.974108 1.6685 0.77798 4 1.01443e-21 2 0 0.0994487 -0.517032
3 1 0.714648 0.793562 1.41295 4 2.20769e-22 2 0 0.0994487 -0.281794
4 1 0.00336375 1.60273 1.37437 4 1.00201e-22 2 0 0.0994487 -0.804051
5 1 0.729896 0.0633724 0.61602 4 8.95944e-23 3 0 0.0994487 -0.190374
6 1 1.71015 0.808983 1.0155 4 2.50106e-21 2 0 0.0994487 -0.33207
7 1 1.80059 1.47468 0.221075 4 4.08298e-21 2 0 0.0994487 -0.125829
8 1 1.82015 1.66049 1.76126 4 5.73494e-21 2 0 0.0994487 -0.139533
9 1 2.52093 0.749102 0.203812 4 1.07663e-20 2 0 0.0994487 -0.14294
10 1 2.59149 0.0538711 1.03726 4 7.34024e-21 2 0 0.0994487 -0.295005
11 1 2.64922 1.541 0.882848 4 4.24667e-20 2 0 0.0994487 0.235752
12 1 2.66829 0.815502 1.7457 4 1.7286e-20 2 0 0.0994487 -0.187041
13 1 3.43386 0.933692 0.956349 4 1.43039e-19 2 0 0.0994487 0.320239
14 1 3.49924 0.0925696 1.70571 4 4.58685e-20 2 0 0.0994487 0.178053
15 1 3.60652 1.70798 1.71994 4 3.4967e-19 2 0 0.0994487 0.0487942
16 1 4.10576 0.858321 0.325305 4 5.07436e-19 2 0 0.0994487 0.153145
17 1 4.96159 0.56786 1.17466 4 2.86181e-18 2 0 0.0994487 -0.0370686
18 1 4.91949 1.59987 0.383508 4 7.14367e-18 2 0 0.0994487 -0.100249
19 1 4.3472 0.941527 1.62884 4 9.02926e-19 2 0 0.0994487 0.110737
20 1 3.47612 0.111428 0.171027 4 3.85232e-20 2 0 0.0994487 0.166215
21 1 5.64741 0.645627 0.325839 4 1.22364e-17 2 0 0.0994487 -0.0806058
22 1 5.88414 1.31048 0.938036 4 4.78398e-17 2 0 0.0994487 -0.199594
23 1 6.57478 1.39104 0.218369 4 1.91846e-16 2 0 0.0994487 -0.0861349
24 1 5.78374 0.460658 1.69897 4 1.17511e-17 2 0 0.0994487 -0.0846536
25 1 5.03122 1.72414 1.43602 4 9.98901e-18 2 0 0.0994487 0.0453704
26 1 6.7138 0.39031 0.865278 4 9.62497e-17 2 0 0.0994487 -0.0793831
27 1 6.69104 1.00962 1.69374 4 1.45485e-16 2 0 0.0994487 -0.107925
28 1 8.2679 0.408875 1.07337 4 2.09058e-15 2 0 0.0994487 -0.100168
29 1 7.36782 1.22285 0.954198 4 9.38084e-16 2 0 0.0994487 -0.30256
30 1 8.24709 1.39092 0.236779 4 5.36834e-15 2 0 0.0994487 -0.0460659
31 1 8.12868 1.27217 1.60653 4 3.93647e-15 2 0 0.0994487 -0.0081186
32 1 7.58247 0.647807 0.140287 4 5.84465e-16 2 0 0.0994487 -0.110937
33 1 8.85849 0.508506 0.273966 4 5.89152e-15 2 0 0.0994487 -0.0616476
34 1 9.55301 0.3386 0.888639 4 2.15162e-14 2 0 0.0994487 0.00506207
35 1 9.02586 1.30716 1.1133 4 2.67865e-14 2 0 0.0994487 -0.0606513
37 1 9.63995 1.37474 0.0900752 4 5.69327e-14 2 0 0.0994487 0.09929
38 1 11.2128 0.215893 0.632658 4 3.79171e-13 2 0 0.0994487 0.203501
39 1 10.3637 1.04743 0.823114 4 2.35281e-13 2 0 0.0994487 0.539881
40 1 10.523 0.196295 1.44539 4 1.01262e-13 2 0 0.0994487 0.0644272
41 1 11.2856 1.01846 1.41785 4 1.25395e-12 2 0 0.0994487 0.164704
42 1 10.5797 1.67706 1.72992 4 6.65433e-13 2 0 0.0994487 0.118162
43 1 10.2431 0.367861 0.0780499 4 4.68741e-14 2 0 0.0994487 0.1498
44 1 12.8757 0.211714 0.636805 4 7.02361e-12 2 0 0.0994487 0.0587858
45 1 12.0457 1.07408 0.506655 4 5.57567e-12 2 0 0.0994487 -0.0235538
46 1 12.1319 0.316439 1.29957 4 2.33394e-12 2 0 0.0994487 0.0188341
47 1 12.7194 1.19864 1.3723 4 2.08202e-11 2 0 0.0994487 -0.0305313
48 1 14.3729 0.318493 0.764646 4 8.9299e-11 2 0 0.0994487 -0.0460397
49 1 13.5924 1.113 0.843618 4 8.6521e-11 2 0 0.0994487 -0.263058
50 1 14.0399 1.55958 0.167469 4 2.59018e-10 2 0 0.0994487 -0.0898265
51 1 13.6075 0.359834 1.6352 4 2.41739e-11 2 0 0.0994487 -0.0562649
52 1 14.3777 1.14948 1.47647 4 2.63766e-10 2 0 0.0994487 -0.0178296
53 1 14.8761 1.55337 0.662943 4 1.06843e-09 2 0 0.0994487 0.389944
54 1 15.7061 0.770636 0.788259 4 1.19345e-09 2 0 0.0994487 0.366481
55 1 16.5532 1.54451 0.681338 4 1.25111e-08 2 0 0.0994487 0.000802748
56 1 15.1422 0.4642 1.64149 4 2.78002e-10 2 0 0.0994487 0.152076
57 1 16.547 0.712289 1.3421 4 3.61812e-09 2 0 0.0994487 0.0956245
58 1 15.6341 1.48544 1.3916 4 3.20583e-09 2 0 0.0994487 0.153629
59 1 15.1049 0.711806 0.0677822 4 2.71251e-10 2 0 0.0994487 0.169202
60 1 17.2544 0.732268 0.547589 4 7.53186e-09 2 0 0.0994487 0.0286289
61 1 17.9231 1.58109 0.757246 4 7.25545e-08 2 0 0.0994487 0.0415618
62 1 17.916 0.742935 1.42801 4 1.87521e-08 2 0 0.0994487 -0.224378
63 1 17.2202 1.74884 1.56274 4 4.18596e-08 2 0 0.0994487 -0.0984849
64 1 19.5372 0.0167772 0.662766 4 2.12328e-08 2 0 0.0994487 0.0436438
65 1 18.7918 0.725074 0.684829 4 4.00396e-08 2 0 0.0994487 -0.269945
66 1 19.5395 1.55488 0.841653 4 3.18775e-07 2 0 0.0994487 -0.341161
67 1 19.0276 0.158607 1.54508 4 1.8554e-08 2 0 0.0994487 -0.158664
68 1 19.5934 0.967491 1.68957 4 1.07292e-07 2 0 0.0994487 0.00835091
69 1 18.6564 1.51302 1.50035 4 1.34572e-07 2 0 0.0994487 -0.250308
70 1 21.0889 0.349843 1.06749 4 9.91384e-08 2 0 0.0994487 -0.196126
71 1 20.2493 0.776373 0.980057 4 1.37276e-07 2 0 0.0994487 -0.0497607
72 1 21.1062 1.65725 0.951506 4 9.89795e-07 2 0 0.0994487 0.692917
73 1 21.1874 0.765598 0.218806 4 1.65385e-07 2 0 0.0994487 -0.0445904
74 1 20.3457 1.51479 0.193617 4 4.19493e-07 2 0 0.0994487 -0.080602
75 1 22.0087 0.262534 0.539755 4 1.01465e-07 2 0 0.0994487 0.0993597
76 1 22.7913 0.430275 1.40734 4 1.59503e-07 2 0 0.0994487 0.2066
77 1 22.1105 1.14763 1.32981 4 5.28082e-07 2 0 0.0994487 0.240025
78 1 21.9982 1.59955 0.538558 4 1.18624e-06 2 0 0.0994487 0.185173
79 1 22.9157 1.07463 0.445168 4 4.68773e-07 2 0 0.0994487 0.0520851
80 1 24.228 0.380179 1.45209 4 1.39945e-07 2 0 0.0994487 0.057617
81 1 23.5672 0.357563 0.57369 4 1.41021e-07 2 0 0.0994487 0.0385713
82 1 24.4367 1.18687 0.754729 4 5.93357e-07 2 0 0.0994487 -0.0192954
83 1 23.4757 1.2499 1.4028 4 7.5132e-07 2 0 0.0994487 0.0298781
84 1 24.955 0.315686 0.551996 4 1.00609e-07 2 0 0.0994487 -0.0171986
85 1 26.0085 0.383365 1.1715 4 7.39213e-08 2 0 0.0994487 -0.18586
86 1 25.169 1.12579 1.48087 4 4.15618e-07 2 0 0.0994487 0.0251052
87 1 25.9301 1.73476 1.35794 4 8.26627e-07 2 0 0.0994487 0.0345361
88 1 25.8917 0.929212 0.432102 4 1.82094e-07 2 0 0.0994487 -0.0954197
89 1 27.5736 1.28032 0.38906 4 7.77976e-08 2 0 0.0994487 0.0454492
90 1 27.6142 0.50928 0.874321 4 2.51551e-08 2 0 0.0994487 0.175388
91 1 26.7559 1.02809 1.26347 4 1.24869e-07 2 0 0.0994487 -0.236886
92 1 28.3748 0.337482 1.39813 4 8.4224e-09 2 0 0.0994487 0.00984422
93 1 26.7925 0.240345 0.226621 4 2.53535e-08 2 0 0.0994487 0.0380748
94 1 28.6489 1.24263 0.742341 4 2.63038e-08 2 0 0.0994487 0.102406
95 1 29.3912 0.945639 1.56878 4 6.13062e-09 2 0 0.0994487 -0.0192009
96 1 28.5228 1.71921 1.49749 4 5.72097e-08 2 0 0.0994487 -0.0429811
97 1 29.8133 0.173958 1.46124 4 1.15315e-09 2 0 0.0994487 0.133416
98 1 29.2734 0.3547 0.615275 4 2.91351e-09 2 0 0.0994487 -0.0816813
99 1 31.5874 0.266128 1.25663 4 1.07028e-10 3 0 0.0994487 0.830097
100 1 30.7016 0.49015 0.470738 4 5.36327e-10 2 0 0.0994487 0.354852
101 1 30.1009 1.19877 0.774133 4 3.85538e-09 2 0 0.0994487 0.21092
102 1 30.8649 0.971942 1.39386 4 9.71905e-10 2 0 0.0994487 0.703281
103 1 1.11081 2.43607 0.129285 4 1.83746e-21 2 0 0.0994487 -0.0373225
104 1 0.133403 2.3821 0.812241 4 2.95051e-22 2 0 0.0994487 -0.984517
105 1 1.28845 3.23764 0.949187 4 9.3059e-21 2 0 0.0994487 0.222089
106 1 1.13977 2.36077 1.59162 4 2.67255e-21 2 0 0.0994487 -0.22219
107 1 0.386685 3.02999 1.54944 4 8.85946e-22 2 0 0.0994487 -0.671256
108 1 0.332248 3.09582 0.131296 4 5.93463e-22 2 0 0.0994487 -0.59134
109 1 1.90972 2.41867 0.78376 4 1.71741e-20 2 0 0.0994487 0.0782075
110 1 2.65852 3.28029 0.860875 4 2.31572e-19 2 0 0.0994487 0.0668023
111 1 2.66931 2.22918 1.53373 4 7.89327e-20 2 0 0.0994487 0.0829542
112 1 3.2579 3.42668 1.64938 4 8.8911e-19 2 0 0.0994487 0.00397408
113 1 2.7261 2.38168 0.0557193 4 6.1547e-20 2 0 0.0994487 0.1466
114 1 3.38195 2.55413 0.779289 4 5.88592e-19 2 0 0.0994487 0.211582
115 1 4.00679 1.841 0.711184 4 1.27536e-18 2 0 0.0994487 -0.0361254
116 1 4.91383 2.57277 0.815661 4 2.02373e-17 2 0 0.0994487 -0.259353
117 1 4.20148 3.3175 0.749446 4 7.8607e-18 2 0 0.0994487 0.00621401
118 1 4.13245 2.64107 1.58328 4 3.18375e-18 2 0 0.0994487 0.0270764
119 1 5.65047 2.44269 0.132743 4 6.88905e-17 2 0 0.0994487 -0.189926
120 1 6.55776 2.18062 0.772597 4 4.88402e-16 2 0 0.0994487 -0.289395
121 1 5.64874 3.19593 0.952489 4 1.7995e-16 2 0 0.0994487 -0.75464
122 1 5.861 2.19426 1.49672 4 9.75781e-17 2 0 0.0994487 0.0126343
123 1 6.52037 3.06691 1.5557 4 9.3515e-16 2 0 0.0994487 0.0443562
124 1 6.65033 2.92778 0.134227 4 8.89661e-16 2 0 0.0994487 0.0288857
125 1 7.45405 2.22586 0.139832 4 2.75982e-15 2 0 0.0994487 -0.0535039
126 1 8.08209 2.20208 0.930382 4 1.19871e-14 2 0 0.0994487 -0.302087
127 1 7.40132 3.06835 0.934051 4 7.33999e-15 2 0 0.0994487 -0.0455412
128 1 7.29928 2.06035 1.56856 4 1.78916e-15 2 0 0.0994487 -0.0607342
129 1 8.18545 3.00183 1.65211 4 2.88447e-14 2 0 0.0994487 -0.0454173
130 1 8.26934 2.9712 0.0392146 4 2.96026e-14 2 0 0.0994487 -0.150618
131 1 8.90393 2.08699 0.252387 4 4.17986e-14 2 0 0.0994487 0.00243127
132 1 9.77243 2.0246 1.10996 4 2.6673e-13 2 0 0.0994487 0.173456
133 1 8.92671 2.97262 0.928693 4 1.52548e-13 2 0 0.0994487 -0.156774
134 1 9.03062 2.22066 1.70398 4 6.82578e-14 2 0 0.0994487 -0.0819694
135 1 9.56096 2.90576 0.21312 4 3.68091e-13 2 0 0.0994487 0.173119
136 1 10.2834 2.1137 0.214297 4 5.02757e-13 2 0 0.0994487 0.337737
137 1 11.1583 1.82604 0.771092 4 2.82991e-12 2 0 0.0994487 0.260084
138 1 10.6214 2.80819 0.921535 4 3.40141e-12 2 0 0.0994487 0.541911
139 1 11.4444 2.82964 1.57484 4 1.53005e-11 2 0 0.0994487 0.0951961
140 1 12.6737 1.94118 0.593851 4 5.55326e-11 2 0 0.0994487 -0.283938
141 1 11.928 2.64099 0.742299 4 3.23744e-11 2 0 0.0994487 -0.0386786
142 1 11.9239 1.9206 1.46509 4 1.2774e-11 2 0 0.0994487 0.0946498
143 1 12.8449 3.01766 1.68597 4 2.26977e-10 2 0 0.0994487 0.0363538
144 1 13.1791 3.03035 0.848852 4 5.18845e-10 2 0 0.0994487 -0.440865
145 1 13.3784 1.9912 1.48064 4 1.75125e-10 2 0 0.0994487 -0.015073
146 1 14.0206 2.44438 0.927124 4 1.03131e-09 2 0 0.0994487 -0.133115
147 1 14.0279 3.38359 1.55716 4 2.95316e-09 2 0 0.0994487 0.0255715
148 1 14.6961 3.43698 0.884932 4 1.06682e-08 2 0 0.0994487 -0.332984
149 1 14.7823 2.29758 1.44821 4 2.67063e-09 2 0 0.0994487 0.0469248
150 1 14.8418 2.51505 0.136557 4 3.14613e-09 2 0 0.0994487 0.173003
151 1 14.1591 3.2262 0.0325348 4 2.64058e-09 2 0 0.0994487 -0.246107
152 1 13.4137 2.29398 0.0590902 4 2.49508e-10 2 0 0.0994487 -0.280963
153 1 15.6993 2.44373 0.692668 4 1.33279e-08 2 0 0.0994487 0.364388
154 1 16.3029 3.20095 0.662084 4 9.17058e-08 2 0 0.0994487 0.328584
155 1 16.308 2.47951 1.52575 4 3.659e-08 2 0 0.0994487 -0.100649
156 1 15.3694 3.25723 1.50191 4 2.42525e-08 2 0 0.0994487 -0.00767174
157 1 15.5706 3.25854 0.0192499 4 2.02458e-08 2 0 0.0994487 0.290236
158 1 17.0646 2.35032 0.682778 4 8.45575e-08 2 0 0.0994487 0.023479
159 1 17.944 2.92608 0.699539 4 6.12591e-07 2 0 0.0994487 -0.231192
160 1 18.0193 2.43917 1.58112 4 3.11748e-07 2 0 0.0994487 -0.149136
161 1 17.0918 3.1162 1.49491 4 2.71151e-07 2 0 0.0994487 -0.143437
162 1 18.8908 2.35742 1.01358 4 7.05828e-07 2 0 0.0994487 -0.516828
163 1 19.7027 3.2427 1.27782 4 5.75292e-06 2 0 0.0994487 0.394882
164 1 18.884 2.99607 0.196019 4 1.53133e-06 2 0 0.0994487 -0.171809
165 1 19.587 2.34239 0.101452 4 9.52239e-07 2 0 0.0994487 -0.13237
166 1 20.3251 1.78863 1.72442 4 6.54633e-07 2 0 0.0994487 0.0449536
167 1 21.1565 2.41663 0.458355 4 3.6238e-06 2 0 0.0994487 0.196189
168 1 20.1948 2.46882 1.11433 4 2.37509e-06 2 0 0.0994487 0.286747
169 1 21.31 3.29463 1.39314 4 1.97972e-05 2 0 0.0994487 0.0777313
170 1 20.4222 2.99313 0.334941 4 5.73962e-06 2 0 0.0994487 0.186291
171 1 22.8719 2.07007 1.50872 4 3.33895e-06 2 0 0.0994487 -0.0221224
172 1 22.9717 2.60199 0.735523 4 9.98968e-06 2 0 0.0994487 0.133328
173 1 22.0961 2.49917 1.23787 4 6.86791e-06 2 0 0.0994487 0.186441
174 1 21.9898 3.20043 0.598797 4 2.23638e-05 2 0 0.0994487 -0.0757472
175 1 22.6771 3.40124 0.07601 4 2.82514e-05 2 0 0.0994487 0.0760744
176 1 23.7438 1.80844 0.624025 4 2.01508e-06 2 0 0.0994487 -0.0873582
177 1 24.4289 1.98763 1.61102 4 2.45207e-06 2 0 0.0994487 -0.0641751
178 1 24.342 2.68296 0.775192 4 9.3357e-06 2 0 0.0994487 -0.341091
179 1 23.6887 2.90303 1.53628 4 1.48639e-05 2 0 0.0994487 -0.110503
180 1 24.4728 3.51078 1.55704 4 3.6514e-05 2 0 0.0994487 -0.118304
181 1 24.9562 2.84566 0.0146836 4 6.63283e-06 2 0 0.0994487 -0.0864592
182 1 26.5483 1.79415 0.511367 4 5.25809e-07 2 0 0.0994487 -0.0056002
183 1 25.1322 1.85613 0.509414 4 1.49656e-06 2 0 0.0994487 -0.0215287
184 1 25.7918 2.61203 0.707489 4 4.17433e-06 2 0 0.0994487 0.228202
185 1 25.1579 2.55548 1.52547 4 5.28198e-06 2 0 0.0994487 0.0576673
186 1 25.7213 3.49812 1.51211 4 1.8665e-05 2 0 0.0994487 0.123857
187 1 26.5364 2.56002 1.53049 4 1.96477e-06 2 0 0.0994487 0.0579475
188 1 26.1686 3.50068 0.599043 4 1.28594e-05 2 0 0.0994487 0.168845
189 1 27.5039 1.98546 1.23792 4 3.01363e-07 2 0 0.0994487 -0.186419
190 1 28.2489 2.09022 0.343734 4 1.3247e-07 2 0 0.0994487 -0.0177249
191 1 27.0867 2.6924 0.645359 4 1.45589e-06 2 0 0.0994487 -0.105601
192 1 27.1998 3.35397 1.41682 4 3.54444e-06 2 0 0.0994487 -0.0983289
193 1 28.2537 2.75799 1.20639 4 4.15485e-07 2 0 0.0994487 -0.418307
194 1 27.982 3.21993 0.326384 4 9.56286e-07 2 0 0.0994487 -0.125257
195 1 29.9568 1.80906 1.70764 4 9.97163e-09 2 0 0.0994487 0.183201
196 1 29.4477 2.04702 0.879698 4 3.26336e-08 2 0 0.0994487 -0.00708418
197 1 29.1956 2.6589 0.290703 4 8.8844e-08 2 0 0.0994487 -0.0578286
198 1 29.2495 3.2651 1.17365 4 2.23507e-07 2 0 0.0994487 0.118633
199 1 30.9114 1.98502 0.924207 4 3.97286e-09 2 0 0.0994487 0.967251
200 1 30.1815 2.71094 1.00186 4 2.8194e-08 2 0 0.0994487 0.675111
201 1 31.0247 3.35309 0.97101 4 1.77154e-08 2 0 0.0994487 0.998409
202 1 30.9865 2.69483 1.72648 4 6.97965e-09 2 0 0.0994487 0.578502
203 1 30.1092 3.25953 0.132205 4 4.3131e-08 2 0 0.0994487 -0.044366
204 1 30.4116 1.90909 0.0255368 4 4.99768e-09 2 0 0.0994487 0.106045
205 1 31.1434 2.66402 0.0761253 4 4.73769e-09 2 0 0.0994487 0.70882
206 1 0.293831 3.78503 0.918557 4 1.49557e-21 2 0 0.0994487 -0.999347
207 1 0.143046 4.59443 0.482118 4 1.7833e-21 2 0 0.0994487 -0.784494
208 1 1.14036 4.67093 0.986638 4 2.19222e-20 2 0 0.0994487 -0.516753
209 1 0.0884667 5.26681 1.27761 4 2.48062e-21 2 0 0.0994487 -0.887458
210 1 1.04069 3.86421 0.0595682 4 6.47924e-21 2 0 0.0994487 0.0148878
211 1 1.84117 4.04604 0.847105 4 6.96714e-20 2 0 0.0994487 0.00826621
212 1 2.54049 4.85585 1.13748 4 6.64445e-19 2 0 0.0994487 -0.333848
213 1 2.64953 4.14475 0.20674 4 4.14476e-19 2 0 0.0994487 -0.0285727
214 1 1.89758 4.96895 0.278386 4 1.43862e-19 2 0 0.0994487 -0.153434
215 1 3.40771 4.86189 0.161635 4 4.00123e-18 2 0 0.0994487 -0.0163888
216 1 3.494 4.07675 0.885909 4 3.15798e-18 2 0 0.0994487 0.0268901
217 1 4.91235 4.00001 1.18344 4 7.33537e-17 2 0 0.0994487 0.0115046
218 1 4.04658 4.88002 1.14639 4 2.19946e-17 2 0 0.0994487 0.264487
219 1 4.26027 4.18509 0.149001 4 1.49677e-17 2 0 0.0994487 0.0377374
220 1 5.00947 4.74001 0.341082 4 1.40279e-16 2 0 0.0994487 0.0765385
221 1 5.77735 3.9378 0.198707 4 3.26097e-16 2 0 0.0994487 0.0260147
222 1 6.48883 3.76611 0.772067 4 1.86215e-15 2 0 0.0994487 0.20455
223 1 5.68025 4.73638 1.02487 4 7.72416e-16 2 0 0.0994487 -0.621703
224 1 6.66321 4.5115 1.6428 4 4.44931e-15 2 0 0.0994487 0.158932
225 1 6.68072 5.1315 0.885352 4 9.51457e-15 2 0 0.0994487 0.206849
226 1 8.1982 3.892 0.700757 4 8.56363e-14 2 0 0.0994487 -0.369905
227 1 7.40842 4.46072 0.5468 4 2.45252e-14 2 0 0.0994487 -0.0252149
228 1 7.39886 3.87029 1.49684 4 1.36809e-14 2 0 0.0994487 0.102575
229 1 8.20004 4.61106 1.48677 4 1.51039e-13 2 0 0.0994487 -0.0118399
230 1 9.8976 3.57792 0.885667 4 1.99356e-12 2 0 0.0994487 0.592759
231 1 9.07913 4.56551 0.821335 4 9.53394e-13 2 0 0.0994487 -0.65855
232 1 9.86266 4.50302 0.126324 4 3.14199e-12 2 0 0.0994487 0.0958634
233 1 9.07829 3.76256 1.49819 4 4.36325e-13 2 0 0.0994487 -0.070888
234 1 9.86881 4.3462 1.65532 4 3.60761e-12 2 0 0.0994487 -0.0856649
235 1 8.98541 3.86821 0.0631775 4 3.10241e-13 2 0 0.0994487 -0.138755
236 1 11.408 3.64493 0.778297 4 3.9634e-11 2 0 0.0994487 0.20206
237 1 10.5891 4.66652 0.906264 4 2.28691e-11 2 0 0.0994487 0.0450573
238 1 11.3867 4.69403 0.230734 4 9.46953e-11 2 0 0.0994487 -0.0498932
239 1 10.7059 3.56689 1.58785 4 8.86537e-12 2 0 0.0994487 -0.0448528
240 1 11.3652 4.3716 1.70545 4 6.72995e-11 2 0 0.0994487 -0.0798314
241 1 11.3894 5.27213 0.983682 4 1.87239e-10 2 0 0.0994487 -0.674492
242 1 10.5826 3.84888 0.176129 4 7.65391e-12 2 0 0.0994487 0.210464
243 1 12.5168 3.57716 0.814749 4 2.94324e-10 2 0 0.0994487 -0.0105837
244 1 12.1916 4.55033 1.00021 4 4.48414e-10 2 0 0.0994487 0.105023
245 1 12.7362 4.99738 1.68903 4 1.482e-09 2 0 0.0994487 0.191325
246 1 13.2258 4.67863 0.80017 4 3.41886e-09 2 0 0.0994487 -0.00471738
247 1 12.6435 4.61885 0.0632315 4 9.09227e-10 2 0 0.0994487 -0.0335835
248 1 13.9891 4.12825 0.69648 4 7.27802e-09 2 0 0.0994487 -0.430187
249 1 13.4832 4.21781 1.59317 4 2.87019e-09 2 0 0.0994487 0.0820132
250 1 14.2046 5.11838 1.52001 4 2.8087e-08 2 0 0.0994487 -0.0289969
251 1 14.9402 5.01141 0.811699 4 8.86016e-08 2 0 0.0994487 -0.052831
252 1 14.9642 4.4167 1.59432 4 4.47209e-08 2 0 0.0994487 -0.0635657
253 1 14.1405 4.90647 0.0597868 4 1.66211e-08 2 0 0.0994487 -0.0856983
254 1 14.961 4.19423 0.096508 4 2.96932e-08 2 0 0.0994487 0.0322699
255 1 15.6685 4.06642 0.926277 4 1.05357e-07 2 0 0.0994487 0.872571
256 1 15.8798 4.77595 0.186426 4 2.60632e-07 2 0 0.0994487 0.165386
257 1 16.5936 4.58036 0.900182 4 8.10286e-07 2 0 0.0994487 -0.0789999
258 1 16.3184 3.95875 1.6903 4 2.40959e-07 2 0 0.0994487 -0.0433996
259 1 15.8111 5.05317 1.64084 4 3.2787e-07 2 0 0.0994487 0.0994965
260 1 17.2689 3.83372 0.811237 4 8.98858e-07 2 0 0.0994487 -0.345388
261 1 18.0864 4.48855 1.09806 4 5.991e-06 2 0 0.0994487 -0.612169
262 1 17.9525 3.63794 1.65602 4 1.60284e-06 2 0 0.0994487 -0.192807
263 1 17.4569 4.57727 0.0147963 4 1.7828e-06 2 0 0.0994487 -0.0974104
264 1 18.1348 3.8547 0.0583493 4 1.97131e-06 2 0 0.0994487 -0.120517
265 1 18.8779 3.70667 0.95022 4 5.32525e-06 2 0 0.0994487 0.0692319
266 1 18.8235 4.60949 0.361826 4 1.44953e-05 2 0 0.0994487 0.11561
267 1 19.6906 4.67872 1.0803 4 5.37764e-05 2 0 0.0994487 0.931533
268 1 18.7859 5.27693 1.20102 4 3.94865e-05 2 0 0.0994487 0.599142
269 1 19.5987 3.76722 0.227421 4 9.58307e-06 2 0 0.0994487 0.16427
270 1 20.4384 3.82188 1.23329 4 2.83116e-05 2 0 0.0994487 0.325958
271 1 20.8846 4.71868 1.39403 4 0.000178481 2 0 0.0994487 0.149062
272 1 21.5775 4.95128 0.810455 4 0.000401173 2 0 0.0994487 -0.00373875
273 1 21.0824 3.93136 0.512408 4 4.95415e-05 2 0 0.0994487 0.0883057
274 1 20.1339 4.78559 0.352846 4 8.21911e-05 2 0 0.0994487 0.145588
275 1 22.8205 3.63186 1.42135 4 5.84007e-05 2 0 0.0994487 -0.0183979
276 1 21.9406 4.13318 1.31068 4 0.000119772 2 0 0.0994487 0.0272077
277 1 22.4705 5.17735 1.27286 4 0.000873208 2 0 0.0994487 0.0207121
278 1 22.6119 4.34705 0.510028 4 0.000189131 2 0 0.0994487 -0.0221033
279 1 23.5735 3.63903 0.782677 4 6.34609e-05 2 0 0.0994487 0.185562
280 1 24.336 4.32055 0.625018 4 0.000164757 2 0 0.0994487 -0.150093
281 1 23.4679 4.54946 1.33355 4 0.000321831 2 0 0.0994487 -0.0790533
282 1 24.8518 5.25716 0.566763 4 0.000499315 2 0 0.0994487 0.0409064
283 1 23.5518 5.06386 0.533607 4 0.000649723 2 0 0.0994487 -0.0968867
284 1 25.0086 4.50055 1.62342 4 0.000152406 2 0 0.0994487 -0.0421952
285 1 25.0629 3.68037 0.802132 4 4.02821e-05 2 0 0.0994487 -0.187917
286 1 24.363 5.28843 1.43377 4 0.000849628 2 0 0.0994487 -0.15471
287 1 25.6904 5.1389 1.34266 4 0.000246879 2 0 0.0994487 0.210099
288 1 26.3575 4.29031 1.37159 4 3.73632e-05 2 0 0.0994487 0.149481
289 1 26.5026 4.97257 0.640732 4 7.77958e-05 2 0 0.0994487 0.0989659
290 1 25.5284 4.40089 0.388179 4 7.97692e-05 2 0 0.0994487 0.0559474
291 1 27.3302 4.86961 1.40568 4 2.617e-05 2 0 0.0994487 0.00660875
292 1 27.9624 3.97641 1.10408 4 3.54197e-06 2 0 0.0994487 -0.309506
293 1 28.2771 4.73475 0.706344 4 5.96849e-06 2 0 0.0994487 -0.0812485
294 1 27.0674 4.04323 0.570038 4 1.10947e-05 2 0 0.0994487 0.0120216
295 1 28.9321 3.77016 0.487204 4 6.32401e-07 2 0 0.0994487 -0.00703328
296 1 29.0873 4.52317 1.33085 4 1.40696e-06 2 0 0.0994487 0.0574847
297 1 29.9979 4.07209 1.02303 4 1.97474e-07 2 0 0.0994487 -0.275232
298 1 31.0296 3.97382 0.373364 4 3.06406e-08 2 0 0.0994487 0.657583
299 1 30.2046 4.67765 0.491317 4 2.71818e-07 2 0 0.0994487 0.00995782
300 1 30.9783 4.59929 1.41131 4 6.83744e-08 2 0 0.0994487 0.679914
301 1 0.908283 5.53205 0.461647 4 2.17567e-20 2 0 0.0994487 -0.463785
302 1 1.53161 5.51184 1.37971 4 8.91592e-20 2 0 0.0994487 -0.117387
303 1 0.793684 6.22023 1.2768 4 2.48498e-20 2 0 0.0994487 -0.703381
304 1 0.257003 6.91734 1.50738 4 9.25225e-21 2 0 0.0994487 -0.772633
305 1 0.969942 6.9454 0.573423 4 6.24813e-20 2 0 0.0994487 -0.473533
306 1 1.7053 7.02884 1.23811 4 3.60435e-19 2 0 0.0994487 0.0665173
307 1 1.89588 6.19966 0.519025 4 3.76512e-19 2 0 0.0994487 -0.156401
308 1 3.10475 5.61709 1.30057 4 4.25493e-18 2 0 0.0994487 0.0402516
309 1 2.26359 6.15348 1.40977 4 7.4606e-19 2 0 0.0994487 0.0408554
310 1 3.25442 6.96226 1.12748 4 1.62021e-17 2 0 0.0994487 -0.0541248
311 1 2.68177 5.61289 0.273587 4 1.47283e-18 2 0 0.0994487 -0.0596863
312 1 3.39503 6.28191 0.500536 4 1.42897e-17 2 0 0.0994487 -0.121446
313 1 4.18979 5.46246 0.325783 4 4.24651e-17 2 0 0.0994487 0.0310164
314 1 4.93434 5.42873 1.31778 4 2.67569e-16 2 0 0.0994487 -0.235102
315 1 4.13622 6.09659 1.22779 4 7.5178e-17 2 0 0.0994487 -0.0893903
316 1 4.82567 6.23357 0.333842 4 3.2015e-16 2 0 0.0994487 -0.0345772
317 1 4.77312 6.79931 1.15967 4 5.61875e-16 2 0 0.0994487 -0.305932
318 1 4.00267 7.02511 0.221759 4 8.07187e-17 2 0 0.0994487 -0.0853449
319 1 5.78575 5.42185 0.301847 4 1.36383e-15 2 0 0.0994487 0.0125008
320 1 5.6935 6.24342 0.9632 4 2.69332e-15 2 0 0.0994487 -0.967784
321 1 6.4578 5.98425 1.59671 4 1.06238e-14 2 0 0.0994487 0.140913
322 1 6.43234 6.86927 1.00965 4 2.32236e-14 2 0 0.0994487 0.851671
323 1 6.37773 6.04115 0.154639 4 6.48215e-15 2 0 0.0994487 0.111111
324 1 5.54993 7.05206 0.147147 4 2.34739e-15 2 0 0.0994487 0.0363854
325 1 8.21355 5.31419 0.694273 4 2.98127e-13 2 0 0.0994487 -0.089599
326 1 7.32761 6.15925 0.754293 4 8.69723e-14 2 0 0.0994487 0.225728
327 1 7.39163 5.41839 1.49138 4 5.30505e-14 2 0 0.0994487 0.136751
328 1 8.23884 6.11028 1.49159 4 5.99075e-13 2 0 0.0994487 0.0187342
329 1 8.01352 6.85364 0.728993 4 6.50027e-13 2 0 0.0994487 0.0691819
330 1 7.28191 6.86379 1.59601 4 1.36611e-13 2 1 0.0994487 0.126046
331 1 7.33029 5.3575 0.0461812 4 3.01472e-14 2 0 0.0994487 0.0813555
332 1 9.76796 5.3194 0.792562 4 7.30898e-12 2 0 0.0994487 0.328436
333 1 8.88016 6.18865 0.736908 4 2.49288e-12 2 0 0.0994487 -0.235549
334 1 9.05434 5.3271 1.5973 4 1.66531e-12 2 0 0.0994487 -0.0628336
335 1 9.73844 6.19052 1.46731 4 1.46363e-11 2 0 0.0994487 -0.106467
336 1 9.09351 6.95013 1.463 4 7.98091e-12 2 2 0.0994487 -0.0759375
337 1 9.76329 6.23201 0.0941385 4 1.10073e-11 2 0 0.0994487 -0.0359542
338 1 8.99733 5.46479 0.012702 4 1.07473e-12 2 0 0.0994487 -0.134755
339 1 10.5831 6.02196 0.964384 4 7.16931e-11 2 0 0.0994487 -0.356411
340 1 11.3128 6.37134 0.0776634 4 2.2024e-10 2 0 0.0994487 0.100339
341 1 10.5187 6.94145 0.15452 4 7.85412e-11 2 0 0.0994487 -0.0735373
342 1 10.4686 6.92564 1.49614 4 1.22768e-10 2 1 0.0994487 -0.0636919
343 1 11.9994 5.6274 0.183157 4 6.13406e-10 2 0 0.0994487 -0.010535
344 1 12.6757 5.81849 0.861776 4 3.50787e-09 2 0 0.0994487 0.0817248
345 1 11.7774 6.20735 1.05291 4 8.50193e-10 2 0 0.0994487 0.29221
346 1 13.3219 5.86668 1.55471 4 1.09429e-08 2 0 0.0994487 0.208161
347 1 13.3506 6.58297 0.813679 4 2.31603e-08 2 0 0.0994487 -0.292136
348 1 13.3212 5.53867 0.0424813 4 6.87727e-09 2 0 0.0994487 -0.142915
349 1 14.0617 5.71565 0.77266 4 4.0171e-08 2 0 0.0994487 -0.372754
350 1 14.3278 6.65176 1.40646 4 1.66575e-07 2 1 0.0994487 -0.103193
351 1 14.1303 6.38483 0.0380077 4 5.15422e-08 2 0 0.0994487 -0.0826149
352 1 15.0282 5.64393 0.034369 4 1.3852e-07 2 0 0.0994487 0.0573589
353 1 15.8305 5.73813 0.95832 4 8.03455e-07 2 0 0.0994487 0.625766
354 1 15.0472 6.45091 0.806774 4 4.34959e-07 2 0 0.0994487 -0.176098
355 1 16.491 6.45257 1.1401 4 4.76858e-06 2 0 0.0994487 0.208273
356 1 15.1058 5.87594 1.69804 4 2.73439e-07 2 0 0.0994487 -0.0976637
357 1 16.62 5.41933 0.276819 4 1.60564e-06 2 0 0.0994487 0.0799179
358 1 15.6753 6.3382 0.0390223 4 7.52801e-07 2 0 0.0994487 0.0398461
359 1 17.8271 5.30128 0.541411 4 9.43456e-06 2 0 0.0994487 0.150325
360 1 17.113 5.42499 1.24767 4 4.49412e-06 2 0 0.0994487 -0.286581
361 1 17.0619 6.27419 0.411469 4 8.09199e-06 2 0 0.0994487 0.138945
362 1 17.6649 6.24649 1.38542 4 2.28448e-05 2 0 0.0994487 -0.254251
363 1 18.2745 7.0517 1.13153 4 0.0001197 2 1 0.0994487 0.630657
364 1 18.3714 6.23173 0.609762 4 5.9805e-05 2 0 0.0994487 0.156181
365 1 19.429 5.75829 0.62055 4 0.000153493 2 0 0.0994487 0.0571889
366 1 19.3279 6.55755 1.35081 4 0.000391017 2 1 0.0994487 0.274726
367 1 19.9942 6.75229 0.610261 4 0.000928369 2 0 0.0994487 -0.0119059
368 1 20.7494 5.77593 0.653722 4 0.000699837 2 0 0.0994487 -0.104059
369 1 20.1931 5.61076 1.39557 4 0.000373043 2 0 0.0994487 0.312025
370 1 20.7787 6.6124 1.30355 4 0.00264699 2 1 0.0994487 -0.344549
371 1 21.6592 6.66248 0.666524 4 0.00404139 2 0 0.0994487 -0.0434978
372 1 21.6631 5.87866 1.38528 4 0.00205287 2 0 0.0994487 0.0420991
373 1 21.6904 5.73259 0.0517844 4 0.000824142 2 0 0.0994487 -0.00149894
374 1 22.6732 5.8279 0.674154 4 0.00212248 2 0 0.0994487 0.00266579
375 1 22.6319 6.69333 1.20734 4 0.00909037 2 1 0.0994487 -0.202349
376 1 23.3484 6.78052 0.267835 4 0.00544729 2 0 0.0994487 -0.125379
377 1 23.4822 5.88496 1.30013 4 0.00309714 2 0 0.0994487 -0.176404
378 1 24.3197 6.56281 1.15825 4 0.00491579 2 0 0.0994487 0.173572
379 1 24.1457 6.00685 0.427617 4 0.00195564 2 0 0.0994487 0.00243842
380 1 25.6831 5.86213 0.700952 4 0.000581279 2 0 0.0994487 0.163895
381 1 25.1124 6.04132 1.67733 4 0.00143121 2 0 0.0994487 0.00366771
382 1 25.1593 6.74159 0.495153 4 0.00227971 2 0 0.0994487 0.0903896
383 1 25.8251 6.59457 1.40775 4 0.00127339 2 0 0.0994487 0.088099
384 1 26.6903 5.84511 1.4763 4 0.000203133 2 0 0.0994487 0.0917599
385 1 27.4966 5.54334 0.722172 4 4.61442e-05 2 0 0.0994487 -0.251575
386 1 26.7485 6.36567 0.651888 4 0.000297191 2 0 0.0994487 0.0387481
387 1 27.7011 6.47315 1.36539 4 9.68897e-05 2 0 0.0994487 0.131491
388 1 28.3648 5.52203 1.4872 4 1.28309e-05 2 0 0.0994487 0.0456324
389 1 27.7097 7.0074 0.530173 4 0.000131068 2 0 0.0994487 0.0321209
390 1 29.3889 5.30889 0.818726 4 2.21202e-06 2 0 0.0994487 0.316725
391 1 29.4379 6.18214 1.32212 4 4.28944e-06 2 0 0.0994487 -0.00338189
392 1 29.5784 6.89773 0.506505 4 5.70398e-06 2 0 0.0994487 0.0925854
393 1 28.4685 6.20589 0.638647 4 2.1078e-05 2 0 0.0994487 -0.270084
394 1 29.3762 6.15398 0.0801838 4 3.47479e-06 2 0 0.0994487 0.0969259
395 1 28.4822 5.38976 0.0592959 4 6.29254e-06 2 0 0.0994487 -0.105004
396 1 30.9636 5.36838 0.595026 4 1.65782e-07 2 0 0.0994487 0.667849
397 1 30.2159 5.45949 1.46813 4 5.58243e-07 2 0 0.0994487 0.054021
398 1 30.3958 6.18258 0.649752 4 8.77668e-07 2 0 0.0994487 0.329
399 1 31.2189 6.15516 1.38439 4 1.87063e-07 2 0 0.0994487 0.587258
400 1 31.1994 6.95407 0.60342 4 3.60047e-07 2 0 0.0994487 0.812251
401 1 31.7235 5.99622 0.446564 4 7.04467e-08 2 0 0.0994487 0.879729
402 1 0.261851 7.63199 0.661866 4 1.62061e-20 2 0 0.0994487 -0.876374
403 1 0.831025 8.46344 0.61936 4 8.82856e-20 2 0 0.0994487 -0.577626
404 1 1.11211 7.86396 1.49711 4 1.13597e-19 2 0 0.0994487 -0.154429
405 1 0.356955 8.5626 1.47035 4 2.53539e-20 2 0 0.0994487 -0.764984
406 1 1.59266 7.76478 0.37187 4 4.0407e-19 2 0 0.0994487 -0.0897883
407 1 1.72382 8.61735 1.46471 4 7.54876e-19 2 0 0.0994487 0.0395964
408 1 2.48799 7.14986 0.476331 4 2.82214e-18 2 0 0.0994487 -0.0836971
409 1 2.19177 8.6335 0.399707 4 2.4419e-18 2 0 0.0994487 -0.137268
410 1 2.39416 7.81099 1.27726 4 3.07447e-18 2 0 0.0994487 0.0869912
411 1 3.01349 8.51445 0.935533 4 1.91705e-17 2 0 0.0994487 -0.539316
412 1 3.24418 7.77117 0.327041 4 2.17462e-17 2 0 0.0994487 -0.196206
413 1 3.81243 8.45898 0.0822892 4 8.70584e-17 2 0 0.0994487 -0.0457792
414 1 3.97971 7.67009 1.24863 4 1.35253e-16 2 0 0.0994487 -0.0554902
415 1 4.70459 8.25653 0.921772 4 9.97936e-16 2 0 0.0994487 0.295326
416 1 4.67023 7.63706 0.247803 4 5.32421e-16 2 0 0.0994487 0.0376906
417 1 3.81127 8.34851 1.76162 4 8.96331e-17 2 0 0.0994487 -0.0574365
418 1 5.86955 8.34822 0.169905 4 9.64382e-15 2 0 0.0994487 0.113104
419 1 5.48363 7.59071 1.03232 4 4.62195e-15 2 0 0.0994487 -0.467669
420 1 6.49365 7.53799 0.169175 4 2.71488e-14 2 0 0.0994487 0.187623
421 1 6.39674 8.23976 1.04384 4 5.32928e-14 2 0 0.0994487 0.338151
422 1 7.28583 7.76918 0.746313 4 2.59238e-13 2 1 0.0994487 0.00993163
423 1 8.2859 8.31376 0.868772 4 3.326e-12 2 2 0.0994487 0.278471
424 1 7.27857 8.18368 1.7015 4 4.43453e-13 2 2 0.0994487 -0.174718
425 1 8.05208 7.48784 1.5604 4 1.30288e-12 2 1 0.0994487 0.185
426 1 7.99895 7.60312 0.0282118 4 5.5356e-13 2 0 0.0994487 0.0674119
427 1 9.84313 7.22199 0.72344 4 3.93679e-11 2 1 0.0994487 -0.346984
428 1 8.91207 7.61626 0.661731 4 7.46951e-12 2 1 0.0994487 0.158584
429 1 9.73234 8.61964 0.693151 4 7.09206e-11 2 3 0.0994487 -0.257312
430 1 9.09265 8.69904 1.44495 4 2.88303e-11 2 9 0.0994487 -0.398551
431 1 9.64026 7.88932 1.60055 4 5.84147e-11 2 8 0.0994487 -0.341569
432 1 11.3161 7.14287 0.810636 4 6.9191e-10 2 1 0.0994487 0.448427
433 1 10.5731 7.9454 0.844311 4 2.82099e-10 2 3 0.0994487 -0.198428
434 1 10.5877 8.70196 1.4255 4 5.61336e-10 1 8 0.0994487 -0.144898
435 1 11.4057 7.80503 1.60301 4 1.71488e-09 2 7 0.0994487 0.229357
436 1 11.227 8.11851 0.0422735 4 5.60546e-10 2 0 0.0994487 0.1743
437 1 12.7061 7.28322 0.565784 4 1.0755e-08 2 0 0.0994487 -0.0531062