ITEM: TIMESTEP
33000
ITEM: NUMBER OF ATOMS
9495
ITEM: BOX BOUNDS mm mm mm
0.0000000000000000e+00 5.2776763948381493e+01
-2.6186659428745744e+00 3.3414154624117550e+01
-3.5892520066759978e+01 3.1748021039364001e+01
ITEM: ATOMS id type x y z c_phase c_temp c_surf c_nbond c_visc f_3[1]
2149 1 47.6075 13.4377 -35.188 0 3.11222 2 0 4.53999e-06 -0.482225
1924 1 48.2682 12.733 -34.64 0 3.19033 2 0 4.53999e-06 -0.252611
1560 1 48.6753 13.584 -35.3361 0 3.23476 2 0 4.53999e-06 0.291781
1561 1 49.2695 13.0498 -34.6198 0 3.35298 2 0 4.53999e-06 0.448185
2454 1 46.9458 14.3731 -34.9015 0 3.0426 2 0 4.53999e-06 -0.940304
2453 1 47.0984 14.1871 -35.8893 0 3.03517 2 0 4.53999e-06 -0.461185
1865 1 47.5641 14.9586 -34.5535 0 3.0742 2 0 4.53999e-06 -0.852234
2100 1 47.1161 15.3228 -35.5861 0 3.01318 2 0 4.53999e-06 -0.332336
1920 1 47.9179 14.4235 -35.3949 0 3.10936 2 0 4.53999e-06 0.153827
2101 1 47.7672 13.9775 -34.3637 0 3.12721 2 0 4.53999e-06 -0.827563
1143 1 48.6446 14.4682 -34.7826 0 3.23186 2 0 4.53999e-06 0.363769
1142 1 48.4696 15.2605 -34.2312 0 3.16806 2 0 4.53999e-06 0.121978
1464 1 48.1988 15.3714 -35.1459 0 3.11948 2 0 4.53999e-06 0.210833
4521 1 49.5224 15.1707 -34.8962 0 3.41907 2 0 4.53999e-06 0.465269
1196 1 49.4903 14.0591 -34.631 0 3.6074 2 0 4.53999e-06 0.568463
4544 1 50.2859 14.4589 -34.2548 0 3.81805 2 0 4.53999e-06 0.763006
2150 1 48.2303 12.3294 -33.2208 0 3.08709 2 0 4.53999e-06 -0.550036
2503 1 47.9218 13.2112 -33.7523 0 3.13894 2 0 4.53999e-06 -0.852718
2105 1 48.4419 13.3133 -32.8583 0 3.12251 2 0 4.53999e-06 -0.835633
1921 1 49.0548 12.9323 -33.6041 0 3.23031 2 0 4.53999e-06 0.181046
1562 1 49.1934 12.4356 -32.7998 0 3.12458 2 0 4.53999e-06 0.0682179
1201 1 49.9577 13.3707 -32.8458 0 3.29864 1 0 4.53999e-06 0.525497
3628 1 49.8872 13.4629 -33.8686 0 3.6262 2 0 4.53999e-06 0.635386
4113 1 50.8471 13.498 -32.5342 0 3.60164 2 0 4.53999e-06 0.877616
1870 1 47.426 14.8024 -33.5855 0 3.04513 2 0 4.53999e-06 -0.936366
2460 1 48.0349 14.1996 -32.6424 0 3.06787 2 0 4.53999e-06 -0.867177
1469 1 48.2387 14.3205 -33.5405 0 3.14601 1 0 4.53999e-06 -0.923236
906 1 48.4852 15.2178 -33.1817 0 3.12985 1 0 4.53999e-06 -0.245317
900 1 48.8065 13.7541 -33.9696 0 3.25999 1 0 4.53999e-06 -0.200552
8451 1 49.0571 14.6296 -33.8239 0 3.28299 1 0 4.53999e-06 0.333141
1149 1 49.2507 13.8029 -32.5938 0 3.18944 1 0 4.53999e-06 -0.618691
3632 1 48.9424 14.6104 -32.6864 0 3.16726 1 0 4.53999e-06 -0.587549
4545 1 49.6123 14.1226 -33.3305 0 3.35137 1 0 4.53999e-06 0.73475
9330 1 49.5568 14.9929 -33.1612 0 3.30959 1 0 4.53999e-06 0.469188
4130 1 50.3626 14.5515 -32.8017 0 3.57231 2 0 4.53999e-06 0.882284
4109 1 50.3652 15.2331 -33.6589 0 3.74953 2 0 4.53999e-06 0.787814
4522 1 50.7783 13.9567 -33.4756 0 3.82809 2 0 4.53999e-06 0.908598
2551 1 48.6666 13.1483 -31.8394 0 3.04618 2 0 4.53999e-06 -0.870527
2151 1 49.0185 12.1811 -31.7287 0 2.99354 2 0 4.53999e-06 -0.630856
952 1 49.9159 11.9051 -31.2821 0 2.96976 2 0 4.53999e-06 0.150675
2153 1 49.6199 12.8854 -32.1365 0 3.13139 1 0 4.53999e-06 -0.00408166
1928 1 49.5952 13.3095 -31.4077 0 3.06999 1 0 4.53999e-06 -0.718406
3522 1 50.404 12.6991 -31.0524 0 3.05546 1 0 4.53999e-06 0.445304
3630 1 50.5124 12.627 -31.9999 0 3.39527 2 0 4.53999e-06 0.591559
903 1 50.4287 13.5252 -31.6392 0 3.18749 1 0 4.53999e-06 0.83069
6588 1 47.2085 14.8449 -32.4648 0 2.94984 2 0 4.53999e-06 -0.893253
6967 1 47.6528 14.9914 -31.3368 0 2.85408 2 0 4.53999e-06 -0.690005
6032 1 48.3342 15.0045 -32.1568 0 3.03993 2 0 4.53999e-06 -0.513245
2457 1 48.8193 14.1195 -31.9208 0 3.08282 1 0 4.53999e-06 -0.916373
2104 1 48.8736 13.9411 -31.0087 0 2.98646 2 0 4.53999e-06 -0.938975
7563 1 49.19 14.937 -31.4612 0 3.06368 2 0 4.53999e-06 -0.257983
3629 1 49.651 14.163 -31.4029 0 3.09211 1 0 4.53999e-06 -0.528473
9333 1 49.8925 14.0741 -32.1659 0 3.22481 1 0 4.53999e-06 0.753738
9329 1 50.4371 14.456 -31.1488 0 3.15403 1 0 4.53999e-06 0.434114
9222 1 50.1775 15.0127 -31.9324 0 3.29745 2 0 4.53999e-06 0.445211
4114 1 50.9799 14.2596 -31.8913 0 3.51231 2 0 4.53999e-06 0.892585
8992 1 51.4445 14.0685 -30.9183 0 3.4046 2 0 4.53999e-06 0.943005
2547 1 48.8649 11.5873 -30.7817 0 2.81247 2 0 4.53999e-06 -0.866033
1008 1 49.8138 11.1672 -30.3118 0 2.76681 2 0 4.53999e-06 -0.00191546
1195 1 49.3787 10.9409 -29.3026 0 2.65379 2 0 4.54e-06 -0.675659
4325 1 50.5071 11.1505 -29.2323 0 2.74106 2 0 4.53999e-06 0.240878
1922 1 49.5871 12.5797 -30.6438 0 2.94661 1 0 4.53999e-06 -0.808156
4125 1 51.0107 13.2971 -30.7552 0 3.09816 1 0 4.53999e-06 0.865844
1866 1 49.6037 13.4821 -30.522 0 2.96773 1 0 4.53999e-06 -0.866706
1199 1 49.457 12.0798 -29.6105 0 2.773 2 0 4.53999e-06 -0.976035
3519 1 50.4562 11.9518 -30.1493 0 2.90168 2 0 4.53999e-06 0.211914
1148 1 50.4394 12.9571 -30.1166 0 2.96401 1 0 4.53999e-06 -0.202234
1869 1 50.3077 13.0238 -29.2734 0 2.8531 1 0 4.53999e-06 -0.841031
4587 1 51.3514 12.3955 -30.5545 0 3.30112 2 0 4.53999e-06 0.677246
4520 1 51.2403 12.4791 -29.5996 0 2.98094 1 0 4.53999e-06 0.577362
3870 1 52.2616 12.5517 -29.5198 0 3.41062 2 0 4.53999e-06 0.794254
4548 1 51.4337 13.3148 -29.8974 0 3.05732 1 0 4.53999e-06 0.920819
8739 1 52.3107 13.5723 -29.1487 0 3.40817 2 0 4.53999e-06 0.869706
6973 1 48.7288 14.7138 -30.398 0 2.85867 2 0 4.53999e-06 -0.774431
6604 1 48.6855 14.309 -29.1946 0 2.66547 2 0 4.54e-06 -0.937479
7205 1 49.2583 13.758 -29.7353 0 2.82721 2 0 4.53999e-06 -0.953428
3631 1 50.2771 13.7163 -30.7765 0 3.05679 1 0 4.53999e-06 0.93404
1466 1 50.1451 13.8311 -29.8089 0 2.91775 1 0 4.53999e-06 -0.823126
7556 1 49.7049 14.4364 -30.5366 0 2.9807 1 0 4.53999e-06 -0.434184
6298 1 49.5816 14.7014 -29.6357 0 2.83005 2 0 4.53999e-06 -0.365647
9220 1 50.9302 13.711 -29.3002 0 2.93877 1 0 4.53999e-06 0.674566
8449 1 50.4236 14.9562 -30.094 0 2.99679 2 0 4.53999e-06 0.10203
9334 1 50.8484 14.1105 -30.1963 0 3.05188 1 0 4.53999e-06 0.750702
7557 1 50.573 14.5456 -29.1824 0 2.87597 2 0 4.53999e-06 0.143573
9428 1 51.1158 14.9828 -30.7987 0 3.45374 2 0 4.53999e-06 0.551439
9218 1 51.5952 14.273 -29.5798 0 3.26719 2 0 4.53999e-06 0.759768
1253 1 49.8065 10.5336 -27.5902 0 2.54249 2 0 4.54e-06 -0.372032
1976 1 49.7678 11.4529 -28.4084 0 2.65841 2 0 4.54e-06 -0.803265
955 1 50.7147 11.6312 -28.1462 0 2.75461 1 0 4.53999e-06 -0.0128676
4417 1 51.4416 11.6932 -28.8166 0 2.90283 2 0 4.53999e-06 0.440485
4588 1 51.3672 11.0592 -27.5483 0 2.77665 2 0 4.53999e-06 0.400887
4227 1 52.3025 11.7029 -28.0218 0 3.28586 2 0 4.53999e-06 0.72298
7202 1 48.6279 13.5406 -28.4252 0 2.54372 2 0 4.54e-06 -0.895809
954 1 50.6197 12.2076 -29.0863 0 2.83845 1 0 4.53999e-06 -0.194436
2553 1 50.1143 12.4354 -28.4698 0 2.74312 1 0 4.53999e-06 -0.869522
7203 1 49.5008 13.2214 -28.7754 0 2.7125 1 0 4.53999e-06 -0.926024
4518 1 50.9638 12.5958 -28.1993 0 2.83047 1 0 4.53999e-06 0.232837
7204 1 50.4317 13.2091 -28.2787 0 2.7688 1 0 4.53999e-06 -0.949857
2656 1 49.8576 12.4957 -27.6368 0 2.64213 1 0 4.54e-06 -0.922164
6304 1 50.8351 13.3922 -27.5341 0 2.75755 1 0 4.53999e-06 -0.0506423
8448 1 51.2003 13.0067 -28.9105 0 2.92952 1 0 4.53999e-06 0.910831
4519 1 51.9222 12.4731 -28.5612 0 3.03886 1 0 4.53999e-06 0.833667
3520 1 51.5326 11.9545 -27.4859 0 2.86293 1 0 4.53999e-06 0.601431
902 1 51.6064 12.9358 -27.7765 0 2.921 1 0 4.53999e-06 0.993886
4546 1 52.5639 12.6469 -27.4841 0 3.30596 2 0 4.53999e-06 0.972067
3213 1 52.7736 12.8476 -28.4663 0 3.47726 2 0 4.53999e-06 0.987998
7474 1 48.0692 14.3491 -27.9712 0 2.41252 2 0 4.54003e-06 -0.794382
6908 1 49.3777 13.9624 -27.8324 0 2.57504 2 0 4.54e-06 -0.587205
6608 1 50.1938 13.801 -28.8405 0 2.79821 1 0 4.53999e-06 -0.59053
6027 1 49.5596 14.4959 -28.6662 0 2.69545 2 0 4.53999e-06 -0.305955
6030 1 50.3728 14.1609 -27.9085 0 2.71055 1 0 4.53999e-06 -0.142922
7555 1 51.1837 13.6005 -28.3268 0 2.87601 1 0 4.53999e-06 0.543967
9221 1 52.2017 13.6526 -28.0644 0 3.26733 2 0 4.53999e-06 0.822836
9171 1 51.4944 14.4102 -28.5357 0 2.93709 2 0 4.53999e-06 0.43163
2598 1 49.6603 11.6294 -27.3375 0 2.58853 2 0 4.54e-06 -0.931068
1010 1 50.573 11.4609 -27.18 0 2.66775 2 0 4.54e-06 -0.118534
3425 1 49.9481 11.0616 -26.4979 0 2.55484 2 0 4.54e-06 -0.624118
4630 1 50.9438 10.884 -26.4887 0 2.65406 2 0 4.54e-06 0.311409
4420 1 51.5686 11.6093 -26.3182 0 2.96993 2 0 4.53999e-06 0.7268
7152 1 48.9944 13.1309 -27.3666 0 2.49759 2 0 4.54001e-06 -0.870859
2552 1 50.807 12.6423 -27.2772 0 2.74093 1 0 4.53999e-06 -0.237346
6970 1 49.9806 13.2983 -27.264 0 2.61558 1 0 4.54e-06 -0.972667
1255 1 50.0594 11.8056 -25.8599 0 2.56106 1 0 4.54e-06 -0.807109
7376 1 49.4682 13.2302 -26.3351 0 2.49112 1 0 4.54001e-06 -0.917292
2599 1 49.8876 12.3796 -26.6464 0 2.57767 1 0 4.54e-06 -0.906748
1926 1 50.842 12.2037 -26.3807 0 2.68896 1 0 4.54e-06 0.0669556
6590 1 50.32 12.9109 -25.9023 0 2.58373 1 0 4.54e-06 -0.722214
6972 1 51.1275 13.0726 -26.1125 0 2.71435 1 0 4.53999e-06 0.933654
901 1 51.9433 12.3963 -26.7611 0 3.0018 2 0 4.53999e-06 0.84374
4516 1 51.5033 13.214 -26.9229 0 2.83789 1 0 4.53999e-06 0.96562
4547 1 51.7846 12.5568 -25.8363 0 2.92445 2 0 4.53999e-06 0.844348
3873 1 52.5737 13.2069 -26.5217 0 3.25083 2 0 4.53999e-06 0.993344
7373 1 47.9219 13.7813 -26.9318 0 2.34112 2 0 4.54006e-06 -0.993384
6450 1 48.2926 13.9764 -25.8265 0 2.33302 2 0 4.54007e-06 -0.921911
6297 1 48.9219 14.0514 -26.8078 0 2.4268 2 0 4.54002e-06 -0.592122
6240 1 49.2444 14.1671 -25.7567 0 2.41565 2 0 4.54003e-06 -0.487988
6245 1 49.9068 14.0513 -26.7362 0 2.5435 2 0 4.54e-06 -0.248651
6301 1 50.6554 13.6315 -26.5978 0 2.65489 1 0 4.54e-06 -0.222096
7662 1 50.6837 14.3742 -25.8806 0 2.60291 2 0 4.54e-06 -0.0762018
8547 1 51.3012 14.2068 -27.373 0 2.81534 2 0 4.53999e-06 0.159926
8944 1 52.2761 14.0419 -27.0866 0 3.22379 2 0 4.53999e-06 0.779085
8546 1 51.5394 13.8805 -26.2726 0 2.80594 1 0 4.53999e-06 0.525935
9168 1 52.3135 14.2545 -25.9993 0 3.19464 2 0 4.53999e-06 0.751674
9122 1 51.4821 14.8417 -26.5202 0 2.77636 2 0 4.53999e-06 0.071004
2452 1 48.5182 11.5757 -24.3035 0 2.31012 2 0 4.54009e-06 -0.742358
1259 1 49.2475 10.9275 -24.0895 0 2.34018 2 0 4.54006e-06 -0.188508
1685 1 49.5331 11.1294 -25.384 0 2.44018 2 0 4.54002e-06 -0.638679
4229 1 50.7395 11.1415 -25.503 0 2.61429 2 0 4.54e-06 0.351989
4326 1 50.1735 11.1777 -24.6007 0 2.4889 2 0 4.54001e-06 0.25653
6905 1 48.8082 13.0369 -25.5169 0 2.3831 2 0 4.54004e-06 -0.842058
2548 1 49.2966 12.9912 -24.3383 0 2.41696 1 0 4.54002e-06 -0.82721
6513 1 48.3621 13.1615 -24.2807 0 2.33093 2 0 4.54007e-06 -0.902862
6907 1 49.3187 13.5663 -24.9311 0 2.4228 1 0 4.54002e-06 -0.846625
8447 1 50.6924 13.5353 -25.2681 0 2.60007 1 0 4.54e-06 0.439367
1569 1 49.4341 11.882 -24.7358 0 2.43252 1 0 4.54002e-06 -0.634417
4331 1 50.7656 11.8027 -24.1678 0 2.78657 2 0 4.53999e-06 0.678642
3521 1 50.2552 12.1822 -24.9702 0 2.55478 1 0 4.54e-06 -0.0575518
1566 1 49.7151 12.3263 -24.1831 0 2.46232 1 0 4.54001e-06 -0.203366
7374 1 49.9747 13.0369 -25.0713 0 2.50585 1 0 4.54001e-06 -0.662365
1923 1 50.8973 12.6226 -25.2763 0 2.65242 1 0 4.54e-06 0.728464
1563 1 50.3459 12.8925 -24.478 0 2.55081 1 0 4.54e-06 0.932304
8989 1 52.3541 13.3793 -25.4958 0 3.14663 2 0 4.53999e-06 0.91122
4591 1 51.2387 11.8906 -25.262 0 2.86917 2 0 4.53999e-06 0.72066
4515 1 51.2692 12.6297 -24.2908 0 2.85779 2 0 4.53999e-06 0.850778
9331 1 51.4608 13.2161 -25.2162 0 2.73348 1 0 4.53999e-06 0.914817
3872 1 51.6518 13.5916 -24.3556 0 2.96342 2 0 4.53999e-06 0.781775
7559 1 48.9353 14.0438 -24.1774 0 2.36889 2 0 4.54004e-06 -0.594705
6605 1 49.9992 13.7484 -25.7266 0 2.51247 1 0 4.54001e-06 -0.430646
9429 1 49.6842 14.4005 -24.8298 0 2.42933 2 0 4.54002e-06 -0.196368
7554 1 50.0966 13.7325 -24.579 0 2.49699 1 0 4.54001e-06 0.101777
9123 1 50.7697 14.298 -24.6369 0 2.55428 2 0 4.54e-06 0.318063
9169 1 51.4727 14.1183 -25.328 0 2.7219 2 0 4.53999e-06 0.480955
1011 1 48.7633 11.6004 -23.2244 0 2.30793 2 0 4.54009e-06 -0.228796
4330 1 49.7621 11.6367 -23.6428 0 2.44236 1 0 4.54002e-06 0.267659
2202 1 47.5647 12.4767 -22.5639 0 2.21821 2 0 4.54023e-06 -0.754034
1688 1 47.8499 11.8839 -23.307 0 2.23601 2 0 4.54019e-06 -0.740076
2201 1 48.8221 12.3159 -23.9029 0 2.35274 1 0 4.54005e-06 -0.7868
6031 1 48.8834 13.3898 -23.572 0 2.36393 1 0 4.54005e-06 -0.711496
2154 1 48.6354 12.6424 -23.1096 0 2.32124 1 0 4.54008e-06 -0.88138
7377 1 47.9994 13.2841 -23.0743 0 2.27012 1 0 4.54013e-06 -0.732812
4419 1 49.3239 12.189 -22.9479 0 2.38314 1 0 4.54004e-06 0.277395
1467 1 48.9243 13.0444 -22.5389 0 2.33652 1 0 4.54006e-06 0.361647
1567 1 49.4656 12.7716 -23.4247 0 2.42452 1 0 4.54002e-06 0.114134
1198 1 50.2597 12.5507 -23.7244 0 2.53774 1 0 4.54e-06 0.779193
6303 1 49.8684 13.2928 -23.8342 0 2.47896 1 0 4.54001e-06 0.38275
9224 1 50.7255 13.4709 -24.0427 0 2.59107 1 0 4.54e-06 0.749909
4551 1 49.7876 12.8274 -22.5943 0 2.47104 1 0 4.54001e-06 0.620489
4228 1 50.3028 12.0558 -22.9125 0 2.7405 2 0 4.53999e-06 0.607489
4549 1 50.6635 13.0028 -23.1412 0 2.78376 2 0 4.53999e-06 0.848847
9223 1 49.5439 13.5572 -22.9377 0 2.43492 1 0 4.54002e-06 0.278822
6242 1 47.5922 14.0817 -22.3957 0 2.21703 2 0 4.54023e-06 -0.257463
6243 1 48.7229 13.9017 -22.8791 0 2.3169 2 0 4.54008e-06 -0.145178
8945 1 49.7484 14.0799 -23.7323 0 2.4498 2 0 4.54002e-06 0.0559417
8600 1 50.3889 13.8547 -22.9928 0 2.78863 2 0 4.53999e-06 0.561512
1681 1 46.6552 11.7127 -22.1585 0 2.13308 2 0 4.54054e-06 -0.680597
1313 1 47.9088 11.5342 -22.2723 0 2.2041 2 0 4.54026e-06 -0.188837
1684 1 45.8719 12.5325 -21.1403 0 2.15755 2 0 4.54042e-06 -0.544833
2208 1 46.6804 12.8397 -21.5325 0 2.18858 2 0 4.54031e-06 -0.590428
3422 1 47.3237 12.1172 -21.7062 0 2.1849 2 0 4.54032e-06 -0.361467
4416 1 47.5278 12.8633 -21.4128 0 2.21564 1 0 4.54023e-06 0.174686
7151 1 46.8209 13.5175 -22.0466 0 2.19466 2 0 4.54029e-06 -0.502719
7475 1 46.0796 13.5367 -21.3984 0 2.18786 2 0 4.54031e-06 -0.593515
956 1 46.93 13.2397 -20.7807 0 2.35287 2 0 4.54005e-06 0.553592
4328 1 48.9883 11.8101 -22.1885 0 2.29006 2 0 4.54011e-06 0.377419
7472 1 47.6759 13.165 -22.1805 0 2.22891 1 0 4.5402e-06 -0.72301
1257 1 48.3135 12.3412 -22.2929 0 2.26135 1 0 4.54014e-06 -0.0998702
3966 1 48.2173 12.1318 -21.3621 0 2.21964 2 0 4.54022e-06 0.251896
4232 1 48.9073 12.7194 -21.7556 0 2.44012 2 0 4.54002e-06 0.514425
7558 1 48.3853 13.5729 -22.1677 0 2.27005 1 0 4.54013e-06 0.180815
904 1 48.2159 13.2912 -21.4096 0 2.24657 2 0 4.54017e-06 0.442485
3876 1 50.317 13.3293 -21.8725 0 2.95605 2 0 4.53999e-06 0.641126
7150 1 45.5779 14.4027 -21.1179 0 2.18014 2 0 4.54033e-06 -0.414986
6237 1 46.0261 14.2186 -22.053 0 2.15818 2 0 4.54042e-06 -0.420367
7657 1 47.363 13.7841 -21.4507 0 2.22791 2 0 4.5402e-06 0.3126
9126 1 46.5956 14.332 -21.2706 0 2.20953 2 0 4.54025e-06 0.16741
3641 1 49.268 13.6361 -21.7963 0 2.36269 2 0 4.54005e-06 0.477194
9120 1 48.1568 14.3235 -21.5208 0 2.23544 2 0 4.54019e-06 0.34116
2205 1 44.0222 13.4953 -19.7909 0 2.14334 2 0 4.54048e-06 -0.592328
2597 1 43.2647 13.23 -19.2662 0 2.12869 2 0 4.54056e-06 -0.699929
1683 1 43.9948 12.5657 -19.3795 0 2.1171 2 0 4.54063e-06 -0.229171
953 1 44.1565 13.5632 -19.0812 0 2.15353 1 0 4.54044e-06 -0.401609
1056 1 45.516 12.5646 -20.1652 0 2.16323 2 0 4.5404e-06 -0.0685107
1929 1 44.9837 13.2995 -20.2331 0 2.17216 1 0 4.54036e-06 -0.412933
4590 1 45.8021 13.3093 -19.8051 0 2.32007 2 0 4.54008e-06 0.606872
2655 1 45.9505 13.268 -20.6054 0 2.19888 1 0 4.54028e-06 0.0212252
4633 1 44.7439 13.0725 -19.4951 0 2.16024 2 0 4.54041e-06 0.0470401
4121 1 45.1561 13.5956 -19.055 0 2.24429 2 0 4.54017e-06 0.592647
4631 1 46.7046 12.3741 -20.6072 0 2.17509 2 0 4.54035e-06 0.209083
6455 1 41.8769 14.9437 -19.0212 0 2.12097 2 0 4.54061e-06 -0.419
6509 1 43.844 14.5341 -19.7197 0 2.1448 2 0 4.54048e-06 -0.447423
1197 1 43.4963 14.0131 -19.1079 0 2.15194 2 0 4.54044e-06 -0.772531
7553 1 45.4189 13.8575 -20.5204 0 2.19156 1 0 4.5403e-06 -0.408783
6968 1 44.4435 13.9869 -20.2162 0 2.15932 2 0 4.54041e-06 -0.55741
9227 1 45.1742 13.7684 -19.725 0 2.19049 1 0 4.5403e-06 0.851947
8544 1 45.0204 14.4161 -19.9936 0 2.18485 2 0 4.54032e-06 -0.223559
8898 1 45.8451 14.5254 -20.2297 0 2.21356 2 0 4.54024e-06 0.409526
8686 1 45.3841 15.2097 -19.6718 0 2.20466 2 0 4.54026e-06 0.133532
6305 1 44.4904 14.2698 -19.2492 0 2.16827 1 0 4.54038e-06 -0.0952756
8595 1 45.3314 14.3765 -19.2738 0 2.2012 2 0 4.54027e-06 0.484659
9172 1 46.2843 13.8841 -20.5725 0 2.22403 1 0 4.54021e-06 0.785987
8943 1 47.2201 14.0514 -20.5746 0 2.47998 2 0 4.54001e-06 0.60384
3640 1 46.0861 14.0338 -19.6052 0 2.39602 2 0 4.54003e-06 0.798911
2449 1 41.3178 13.3949 -17.4427 0 2.24351 2 0 4.54017e-06 0.03294
1258 1 43.6848 13.1297 -18.5031 0 2.14286 2 0 4.54049e-06 -0.18522
3922 1 44.6006 13.2635 -18.5686 0 2.15882 2 0 4.54041e-06 0.330327
3523 1 42.5225 13.6158 -17.8696 0 2.23668 2 0 4.54019e-06 0.0853726
6694 1 41.405 14.919 -18.0473 0 2.21256 2 0 4.54024e-06 -0.43952
8543 1 42.115 14.3113 -18.1254 0 2.23888 2 0 4.54018e-06 -0.374193
2652 1 41.302 14.1346 -17.666 0 2.26018 2 0 4.54015e-06 -0.349813
8838 1 42.2543 15.0796 -17.6448 0 2.26129 2 0 4.54014e-06 0.278337
6591 1 42.6747 13.814 -18.7478 0 2.16965 2 0 4.54037e-06 -0.719856
6512 1 42.8522 14.6528 -18.8252 0 2.17128 2 0 4.54036e-06 -0.264867
1565 1 43.356 13.8595 -18.2181 0 2.18788 2 0 4.54031e-06 0.0805725
9170 1 42.962 14.5429 -17.9803 0 2.3973 2 0 4.54003e-06 0.502484
7658 1 43.7965 14.6708 -18.7097 0 2.16642 2 0 4.54038e-06 0.0605396
3643 1 44.1639 14.0102 -18.3556 0 2.16943 2 0 4.54037e-06 0.247867
3281 1 44.9906 14.2192 -18.4725 0 2.2218 2 0 4.54022e-06 0.452617
2199 1 40.4113 13.2881 -17.2052 0 2.19298 2 0 4.54029e-06 -0.485585
1260 1 39.5722 13.5868 -15.8667 0 2.21506 2 0 4.54023e-06 -0.662073
1256 1 40.3387 13.0471 -16.0805 0 2.19744 2 0 4.54028e-06 -0.157146
4225 1 41.1245 13.2652 -16.598 0 2.24464 2 0 4.54017e-06 0.353423
1261 1 40.3671 13.7377 -16.5114 0 2.24018 2 0 4.54018e-06 -0.606962
6974 1 40.0664 14.5864 -17.0767 0 2.21949 2 0 4.54022e-06 -0.654102
6302 1 40.0191 14.2948 -16.304 0 2.24758 2 0 4.54017e-06 -0.972622
7149 1 39.4536 15.1848 -16.4411 0 2.20103 2 0 4.54027e-06 -0.58957
2152 1 40.7174 14.0695 -17.1036 0 2.25458 2 0 4.54015e-06 -0.559351
6906 1 40.4873 15.1094 -16.4648 0 2.27741 2 0 4.54012e-06 -0.0270872
6606 1 39.1928 14.4579 -15.7913 0 2.23402 2 0 4.54019e-06 -0.93323
8497 1 40.0339 14.7701 -15.741 0 2.28668 2 0 4.54011e-06 -0.0147862
9226 1 40.8104 14.4592 -16.1853 0 2.32916 2 0 4.54007e-06 0.483857
4593 1 42.0298 13.7287 -17.1379 0 2.45582 2 0 4.54001e-06 0.618344
7656 1 40.9721 14.7926 -17.1806 0 2.27062 2 0 4.54013e-06 -0.196043
4124 1 41.3578 13.9992 -16.6556 0 2.42144 2 0 4.54002e-06 0.761185
8946 1 41.814 14.4469 -17.2792 0 2.43065 2 0 4.54002e-06 0.686945
8897 1 41.4835 14.7572 -16.5701 0 2.49264 2 0 4.54001e-06 0.569968
4424 1 40.8742 13.777 -15.8532 0 2.30973 2 0 4.54009e-06 0.472196
3874 1 42.7696 14.3119 -17.1173 0 2.52827 2 0 4.54e-06 0.689776
6508 1 38.414 14.4917 -14.8443 0 2.23544 2 0 4.54019e-06 -0.783367
9128 1 38.947 14.9293 -14.2232 0 2.32167 2 0 4.54008e-06 -0.107572
6452 1 38.9972 15.2752 -15.3208 0 2.25485 2 0 4.54015e-06 -0.464321
8444 1 38.6615 14.2381 -14.0399 0 2.2719 2 0 4.54013e-06 -0.457185
8450 1 39.227 14.0482 -14.9733 0 2.25822 2 0 4.54015e-06 -0.230473
4418 1 40.1306 14.0718 -15.3904 0 2.2971 2 0 4.5401e-06 0.275795
8270 1 39.8048 14.9641 -14.8158 0 2.55132 2 0 4.54e-06 0.635433
1691 1 39.2268 13.7099 -14.123 0 2.26459 2 0 4.54014e-06 0.458348
8500 1 39.5623 14.4602 -13.9749 0 2.48027 2 0 4.54001e-06 0.984134
8317 1 41.2547 15.1036 -15.3519 0 2.96252 2 0 4.53999e-06 0.570128
2600 1 38.3477 13.5238 -13.7628 0 2.22225 2 0 4.54022e-06 -0.483502
4324 1 39.0274 13.1971 -13.3562 0 2.22795 2 0 4.5402e-06 0.291513
2212 1 38.1899 13.2974 -12.3023 0 2.20601 2 0 4.54026e-06 -0.538287
4415 1 38.7059 13.7111 -12.7845 0 2.26979 1 0 4.54013e-06 0.0545416
2456 1 37.8693 14.2814 -13.8641 0 2.22304 2 0 4.54021e-06 -0.908576
9427 1 37.9114 14.3677 -12.4616 0 2.2509 2 0 4.54016e-06 -0.993995
2458 1 38.1736 14.0236 -13.0891 0 2.25089 1 0 4.54016e-06 -0.905774
8263 1 38.8389 14.3761 -13.3326 0 2.30918 1 0 4.54009e-06 0.584286
8990 1 38.8561 14.3184 -12.2619 0 2.3207 1 0 4.54008e-06 0.771518
8738 1 38.6194 14.6979 -12.6804 0 2.31574 1 0 4.54008e-06 -0.12581
6241 1 38.2165 14.8223 -13.3612 0 2.2746 2 0 4.54013e-06 -0.68711
8314 1 38.9325 15.2304 -13.3134 0 2.37495 2 0 4.54004e-06 0.0963019
6185 1 37.8356 15.2028 -12.4855 0 2.24604 2 0 4.54017e-06 -0.70015
3967 1 39.2559 13.651 -12.251 0 2.45808 2 0 4.54001e-06 0.75629
3970 1 39.3667 13.9926 -13.2069 0 2.32172 1 0 4.54008e-06 0.914924
8316 1 39.5136 14.717 -12.7431 0 2.60547 2 0 4.54e-06 0.908456
3217 1 39.7681 15.2696 -13.6296 0 2.80478 2 0 4.53999e-06 0.716409
1973 1 38.2012 12.554 -11.6214 0 2.08005 2 0 4.54092e-06 -0.313075
4333 1 38.757 13.3602 -11.0903 0 2.24291 2 0 4.54017e-06 0.166255
5920 1 37.5333 14.5195 -11.123 0 2.21783 2 0 4.54023e-06 -0.970422
8442 1 38.1398 14.0416 -11.8306 0 2.25142 1 0 4.54016e-06 -0.907193
4116 1 38.7736 13.9092 -11.6427 0 2.28631 1 0 4.54011e-06 0.452014
7653 1 38.4776 14.2822 -10.9321 0 2.28437 1 0 4.54011e-06 -0.898874
7660 1 38.3926 14.8552 -11.6613 0 2.29228 1 0 4.5401e-06 -0.318667
3692 1 39.2699 14.3536 -11.2543 0 2.37225 1 0 4.54004e-06 0.977536
3207 1 39.882 14.8949 -11.7625 0 2.99029 2 0 4.53999e-06 0.897728
1789 1 39.0376 12.4748 -9.79894 0 2.19549 2 0 4.54029e-06 -0.0410353
2022 1 38.3136 13.0149 -10.3784 0 2.1768 2 0 4.54035e-06 -0.603394
1057 1 39.0181 12.1338 -8.88839 0 2.15653 2 0 4.54042e-06 -0.276115
3514 1 38.9045 13.487 -9.38865 0 2.25765 1 0 4.54015e-06 -0.201377
1013 1 39.4272 13.1886 -10.0831 0 2.46719 2 0 4.54001e-06 0.680591
4014 1 39.8125 12.7565 -8.9134 0 2.47638 2 0 4.54001e-06 0.774088
3740 1 40.0271 13.5749 -9.35997 0 2.55679 2 0 4.54e-06 0.986245
6515 1 37.443 14.6243 -8.94162 0 2.21383 2 0 4.54024e-06 -0.881896
6458 1 36.812 14.6612 -10.2802 0 2.16747 2 0 4.54038e-06 -0.921802
4231 1 39.1359 13.8362 -10.3312 0 2.31341 1 0 4.54008e-06 0.819727
6033 1 37.5805 14.0772 -9.7134 0 2.20978 2 0 4.54025e-06 -0.764304
9225 1 38.4498 13.9344 -10.0716 0 2.26184 1 0 4.54014e-06 -0.634104
8684 1 39.0422 14.5087 -10.2541 0 2.34743 1 0 4.54006e-06 0.76729
8269 1 38.594 15.0524 -10.3202 0 2.32323 2 0 4.54007e-06 0.132241
8213 1 38.0655 14.5515 -10.151 0 2.25733 1 0 4.54015e-06 -0.857258
8596 1 38.1837 14.4866 -8.93847 0 2.25225 1 0 4.54016e-06 -0.844665
8948 1 38.8275 14.4188 -9.43478 0 2.30575 1 0 4.54009e-06 0.926982
9125 1 38.242 15.1727 -9.39095 0 2.29261 1 0 4.5401e-06 0.00578864
5917 1 37.6032 15.1592 -9.96986 0 2.22773 2 0 4.5402e-06 -0.506949
3212 1 39.9201 14.6046 -10.3921 0 2.81117 2 0 4.53999e-06 0.938841
3920 1 39.4738 14.1239 -8.90267 0 2.31372 1 0 4.54008e-06 0.97326
8102 1 39.5364 15.0161 -9.33626 0 2.67202 2 0 4.54e-06 0.827913
3793 1 39.9588 11.5933 -7.30735 0 2.2542 2 0 4.54016e-06 0.300792
1687 1 38.7924 11.9381 -7.56421 0 2.11249 2 0 4.54066e-06 -0.622119
4321 1 38.8501 12.6417 -8.08752 0 2.16585 2 0 4.54039e-06 -0.709103
1974 1 38.6074 13.2478 -8.59224 0 2.18871 1 0 4.54031e-06 -0.769293
1925 1 38.5515 13.2957 -7.61333 0 2.15574 1 0 4.54043e-06 -0.931436
4673 1 39.6741 12.2033 -8.07081 0 2.23475 2 0 4.54019e-06 0.323805
3737 1 40.5351 12.3251 -7.60592 0 2.59967 2 0 4.54e-06 0.806545
4634 1 39.5884 12.9045 -7.61259 0 2.23314 1 0 4.54019e-06 0.692934
3423 1 39.4189 13.4094 -8.33773 0 2.2482 1 0 4.54017e-06 0.901981
3738 1 40.4549 13.2217 -7.71341 0 2.55582 2 0 4.54e-06 0.894763
6689 1 37.1702 14.7194 -7.58867 0 2.18822 2 0 4.54031e-06 -0.713442
7106 1 36.9532 15.1856 -8.63323 0 2.19395 2 0 4.54029e-06 -0.992154
2102 1 37.8227 14.0361 -8.15311 0 2.19011 1 0 4.5403e-06 -0.796906
909 1 38.5759 13.9935 -7.27155 0 2.19562 1 0 4.54028e-06 -0.985132
4230 1 38.588 13.9628 -8.51932 0 2.23098 1 0 4.5402e-06 -0.718071
8315 1 38.9485 14.7857 -8.43299 0 2.31965 1 0 4.54008e-06 0.809482
9425 1 38.3473 14.7166 -7.66289 0 2.25699 1 0 4.54015e-06 -0.850243
8101 1 39.0099 15.2972 -7.30699 0 2.36303 1 0 4.54005e-06 0.646545
8268 1 38.0469 15.2178 -8.23182 0 2.27207 1 0 4.54013e-06 -0.178851
3923 1 39.7794 13.7294 -7.42631 0 2.26464 1 0 4.54014e-06 0.906617
3642 1 39.2942 14.2217 -7.87019 0 2.27188 1 0 4.54013e-06 0.862548
2994 1 40.2218 15.0883 -7.60935 0 2.88711 2 0 4.53999e-06 0.81878
3335 1 38.1511 10.9813 -6.0131 0 1.96902 2 0 4.5428e-06 -0.502435
1012 1 38.472 11.7749 -5.80156 0 2.02982 1 0 4.54152e-06 -0.850654
4017 1 39.0973 11.0524 -6.16712 0 2.07645 2 0 4.54095e-06 0.0891947
3789 1 39.9885 11.4058 -6.15518 0 2.40413 2 0 4.54003e-06 0.616663
1930 1 38.6029 12.3186 -6.56366 0 2.08382 1 0 4.54089e-06 -0.913506
2555 1 38.3701 13.159 -6.67107 0 2.0995 1 0 4.54076e-06 -0.981313
3517 1 39.1335 12.9661 -6.82336 0 2.15259 1 0 4.54044e-06 -0.922238
4332 1 39.275 11.8124 -6.67644 0 2.14469 1 0 4.54048e-06 -0.198493
4414 1 39.1757 12.0255 -5.76993 0 2.10166 1 0 4.54074e-06 0.169247
3969 1 39.6977 12.4664 -6.85341 0 2.21469 1 0 4.54023e-06 0.761618
3924 1 39.8937 12.0904 -5.4729 0 2.18494 1 0 4.54032e-06 0.943806
3371 1 40.6185 11.9983 -6.628 0 2.57609 2 0 4.54e-06 0.891185
4589 1 39.2983 12.7804 -5.95521 0 2.13333 1 0 4.54054e-06 0.264803
3921 1 40.0197 13.2342 -6.64566 0 2.24619 1 0 4.54017e-06 0.932379
3691 1 40.2331 12.6333 -6.09165 0 2.26142 1 0 4.54014e-06 0.949452
3278 1 41.3752 12.6985 -7.10169 0 3.00397 2 0 4.53999e-06 0.990878
9326 1 39.0326 14.5424 -7.01264 0 2.27049 1 0 4.54013e-06 0.321397
4233 1 38.9423 13.64 -6.4582 0 2.16321 1 0 4.5404e-06 -0.792451
6037 1 37.632 14.9792 -6.1358 0 2.17844 1 0 4.54034e-06 -0.725669
1868 1 38.1737 14.0624 -6.18095 0 2.11486 1 0 4.54065e-06 -0.945578
3871 1 39.0466 14.3278 -6.08505 0 2.229 1 0 4.5402e-06 0.28802
9424 1 38.9039 15.0276 -5.85425 0 2.28319 1 0 4.54011e-06 0.859415
8743 1 38.4494 15.234 -6.57274 0 2.28958 1 0 4.54011e-06 -0.451831
4131 1 39.6262 13.888 -6.47548 0 2.24854 1 0 4.54016e-06 0.923555
3218 1 39.4725 14.9865 -6.49134 0 2.36559 1 0 4.54005e-06 0.822757
8740 1 40.0169 14.4566 -6.83477 0 2.52648 2 0 4.54e-06 0.964568
3209 1 40.5809 15.0124 -5.84044 0 2.83107 2 0 4.53999e-06 0.973489
4068 1 37.3636 9.54771 -4.51788 0 1.87296 2 0 4.54734e-06 -0.240403
2281 1 36.7469 10.1389 -4.08742 0 1.83235 2 0 4.55103e-06 -0.742457
1449 1 36.9756 11.0706 -4.32909 0 1.85698 2 0 4.54862e-06 -0.766389
1309 1 37.6483 10.2956 -5.40864 0 1.9037 2 0 4.5454e-06 -0.417592
4016 1 38.2694 10.0636 -4.7442 0 1.95891 2 0 4.5431e-06 0.344845
4632 1 37.597 10.432 -4.33797 0 1.90833 1 0 4.54515e-06 -0.561615
4677 1 38.6305 10.862 -5.10298 0 2.00895 1 0 4.54188e-06 0.352133
3456 1 38.7507 10.0636 -3.95835 0 2.24413 2 0 4.54017e-06 0.661946
1698 1 37.6975 11.0755 -4.97438 0 1.92945 2 0 4.54417e-06 -0.795506
1927 1 38.2293 11.6884 -4.98749 0 1.98828 1 0 4.54231e-06 -0.915858
4594 1 37.9246 11.2606 -3.84631 0 1.93699 1 0 4.54387e-06 -0.534506
3515 1 38.7506 11.6123 -4.30195 0 2.05258 1 0 4.54121e-06 0.401041
4334 1 38.489 10.8361 -4.19489 0 2.02148 1 0 4.54166e-06 0.808778
3971 1 39.3453 11.3613 -5.16664 0 2.10661 1 0 4.5407e-06 0.67307
3282 1 39.7431 11.6901 -4.32473 0 2.38183 2 0 4.54004e-06 0.937487
3698 1 39.3153 10.9253 -4.15709 0 2.31429 2 0 4.54008e-06 0.807372
3277 1 40.7957 11.4151 -4.42261 0 2.96595 2 0 4.53999e-06 0.933665
1568 1 38.3274 12.6131 -5.40721 0 2.01624 1 0 4.54175e-06 -0.967719
2550 1 38.0104 13.4476 -5.4237 0 2.0168 2 0 4.54174e-06 -0.968552
1203 1 38.0521 12.264 -4.32061 0 1.95335 1 0 4.54328e-06 -0.923728
3516 1 38.9251 12.2241 -4.85382 0 2.05921 1 0 4.54113e-06 -0.226261
3925 1 39.0274 12.3361 -3.82367 0 2.06767 1 0 4.54104e-06 0.544211
4592 1 39.1272 13.0376 -5.08858 0 2.09176 1 0 4.54082e-06 0.156198
3624 1 38.6003 13.4011 -4.33901 0 2.00953 1 0 4.54187e-06 -0.928351
3690 1 40.3814 13.1251 -5.20678 0 2.50773 2 0 4.54001e-06 0.979265
3693 1 39.7007 12.5039 -4.68002 0 2.15435 1 0 4.54043e-06 0.91491
4126 1 39.5853 13.1466 -3.94656 0 2.13423 1 0 4.54053e-06 0.961003
1146 1 37.3771 14.5949 -5.16723 0 2.03608 2 0 4.54143e-06 -0.857165
4517 1 39.1323 13.8875 -5.17677 0 2.15332 1 0 4.54044e-06 0.63878
8445 1 38.3536 14.4907 -5.30047 0 2.12481 1 0 4.54059e-06 -0.641517
905 1 37.869 14.0306 -4.50649 0 1.97778 1 0 4.54257e-06 -0.863994
9325 1 37.9161 15.1737 -4.70434 0 2.09486 1 0 4.54079e-06 -0.816447
8538 1 38.5047 14.8092 -4.03422 0 2.06787 1 0 4.54104e-06 0.0391936
3639 1 40.176 14.0045 -5.07742 0 2.55392 2 0 4.54e-06 0.991365
8996 1 39.9532 14.8283 -5.22083 0 2.48234 2 0 4.54001e-06 0.999416
3279 1 40.2065 13.8 -4.039 0 2.51803 2 0 4.54e-06 0.927814
8441 1 39.1815 14.6227 -4.59395 0 2.21211 1 0 4.54024e-06 0.661279
8991 1 39.5449 15.3002 -3.88758 0 2.31853 1 0 4.54008e-06 0.825424
3235 1 40.2626 15.3107 -4.47032 0 2.70822 2 0 4.53999e-06 0.865079
1790 1 36.1164 9.67831 -3.44096 0 1.77061 2 0 4.56047e-06 -0.690637
1791 1 35.8099 9.42006 -2.12194 0 1.74137 2 0 4.56744e-06 -0.522434
4015 1 36.6422 9.4904 -2.58 0 1.81013 2 0 4.55378e-06 -0.04411
4323 1 37.0085 9.9713 -3.188 0 1.84468 1 0 4.54975e-06 -0.223568
3460 1 37.7332 9.65246 -3.61169 0 1.91656 2 0 4.54474e-06 0.24268
3370 1 37.5494 9.66786 -2.56022 0 2.06062 2 0 4.54112e-06 0.569675
2450 1 36.4998 10.657 -3.31159 0 1.80371 2 0 4.55469e-06 -0.776433
4322 1 37.3066 10.6964 -3.40231 0 1.8685 1 0 4.54768e-06 -0.529241
958 1 37.1407 11.4956 -2.90239 0 1.81242 1 0 4.55347e-06 -0.614024
1538 1 36.0128 10.1075 -2.6154 0 1.76158 2 0 4.56241e-06 -0.867485
4412 1 36.688 10.5211 -2.50867 0 1.80504 1 0 4.5545e-06 -0.482219
4511 1 37.2491 10.8646 -2.13043 0 1.83258 1 0 4.551e-06 0.330017
3968 1 37.9717 10.4846 -3.60047 0 1.95067 1 0 4.54337e-06 0.763239
4237 1 38.7669 11.6082 -3.22086 0 2.07251 1 0 4.54099e-06 0.441358
3927 1 37.6902 10.472 -2.73605 0 1.90575 1 0 4.54529e-06 0.78665
3697 1 38.3316 11.1099 -2.36894 0 1.96358 2 0 4.54296e-06 0.493536
3369 1 38.6164 10.1183 -2.9566 0 2.27236 2 0 4.54013e-06 0.666207
3086 1 39.3203 10.8385 -3.08944 0 2.42056 2 0 4.54002e-06 0.718129
3085 1 39.775 11.3294 -2.2796 0 2.60596 2 0 4.54e-06 0.542783
2546 1 37.0989 12.9494 -2.75666 0 1.70892 2 0 4.57801e-06 -0.867047
1204 1 37.9106 12.0144 -3.14207 0 1.88246 1 0 4.54668e-06 -0.90136
1570 1 37.8979 12.7917 -3.61425 0 1.88197 2 0 4.54671e-06 -0.944488