ITEM: TIMESTEP
42000
ITEM: NUMBER OF ATOMS
9495
ITEM: BOX BOUNDS mm mm mm
0.0000000000000000e+00 6.9849374069215614e+01
-2.9281660134748146e+00 3.4833739873386236e+01
-1.0870187039164011e+02 3.1748021039364001e+01
ITEM: ATOMS id type x y z c_phase c_temp c_surf c_nbond c_visc f_3[1]
2149 1 59.7125 12.3908 -108.353 0 3.46032 2 0 4.53999e-06 -0.555291
1924 1 60.4665 11.7547 -107.852 0 3.50924 2 0 4.53999e-06 -0.421826
1561 1 61.4976 11.8998 -108.023 0 3.57439 2 0 4.53999e-06 0.204139
1560 1 60.7617 12.4175 -108.656 0 3.51476 2 0 4.53999e-06 0.0196606
1921 1 62.1273 12.0536 -107.163 0 3.64854 2 0 4.53999e-06 0.263142
2454 1 59.1961 13.128 -107.661 0 3.44229 2 0 4.53999e-06 -0.865379
2453 1 58.8189 13.1741 -108.699 0 3.40464 2 0 4.53999e-06 -0.827069
1920 1 59.8461 13.3479 -108.573 0 3.46198 2 0 4.53999e-06 -0.308838
1865 1 59.7967 13.9248 -107.751 0 3.4725 2 0 4.53999e-06 -0.87193
2101 1 60.1754 12.8001 -107.604 0 3.5018 2 0 4.53999e-06 -0.762339
1143 1 60.7636 13.3433 -108.244 0 3.53223 2 0 4.53999e-06 -0.056722
1469 1 60.7127 13.469 -107.274 0 3.54227 1 0 4.53999e-06 -0.945425
900 1 61.3361 12.7085 -107.44 0 3.5913 1 0 4.53999e-06 -0.266324
1142 1 60.8483 14.2097 -107.72 0 3.5442 2 0 4.53999e-06 -0.155928
4521 1 61.4598 14.1 -108.674 0 3.59428 2 0 4.53999e-06 0.143711
1196 1 61.6397 13.0285 -108.355 0 3.61658 2 0 4.53999e-06 0.206215
3628 1 62.3421 12.5606 -107.914 0 3.71357 2 0 4.53999e-06 0.384636
4544 1 62.4334 13.6869 -108.358 0 3.76218 2 0 4.53999e-06 0.396453
8451 1 61.565 13.6244 -107.525 0 3.6244 1 0 4.53999e-06 0.11612
4545 1 62.291 13.245 -107.368 0 3.72592 1 0 4.53999e-06 0.577026
1201 1 63.083 12.5642 -107.102 0 3.81528 2 0 4.53999e-06 0.473745
4522 1 63.239 13.0381 -108.042 0 4.16508 2 0 4.53999e-06 0.585357
4130 1 63.318 13.5911 -107.234 0 4.07276 2 0 4.53999e-06 0.735108
4113 1 64.047 12.8009 -107.201 0 4.20367 2 0 4.53999e-06 0.646825
2099 1 56.4482 15.1323 -108.58 0 2.96278 3 0 4.53999e-06 -0.955516
2100 1 59.1004 14.3149 -108.535 0 3.41082 2 0 4.53999e-06 -0.638512
1464 1 60.3409 14.2389 -108.525 0 3.49055 2 0 4.53999e-06 -0.109434
6299 1 59.9562 14.8241 -107.255 0 3.47159 2 0 4.53999e-06 -0.497769
6028 1 61.0437 14.9379 -107.177 0 3.54772 2 0 4.53999e-06 -0.0451297
9332 1 61.8756 14.5984 -107.791 0 3.66673 2 0 4.53999e-06 0.170113
4109 1 62.9005 14.3508 -107.72 0 4.08249 2 0 4.53999e-06 0.56109
2503 1 60.6327 12.2084 -106.953 0 3.53947 2 0 4.53999e-06 -0.614592
2150 1 61.2989 11.3413 -107.008 0 3.55718 2 0 4.53999e-06 -0.15256
2105 1 61.5119 12.3555 -106.5 0 3.60559 2 0 4.53999e-06 -0.391897
1562 1 62.4581 11.6316 -106.342 0 3.65004 2 0 4.53999e-06 -0.0325277
2551 1 62.1881 12.4091 -105.789 0 3.65092 2 0 4.53999e-06 -0.434519
3630 1 64.4109 11.6792 -106.202 0 3.77436 2 0 4.53999e-06 0.125491
2153 1 63.3612 12.0721 -106.25 0 3.74564 2 0 4.53999e-06 0.0265453
1928 1 64.1531 12.2724 -105.394 0 3.73381 1 0 4.53999e-06 -0.643706
8992 1 65.2015 12.5107 -106.315 0 4.12457 2 0 4.53999e-06 0.519937
3522 1 65.1089 11.811 -105.42 0 3.74248 2 0 4.53999e-06 0.116091
2460 1 60.7534 13.1032 -106.491 0 3.55047 2 0 4.53999e-06 -0.579229
6588 1 60.2339 13.712 -105.828 0 3.49639 2 0 4.53999e-06 -0.518325
6032 1 61.2851 13.775 -105.901 0 3.57764 2 0 4.53999e-06 -0.283937
1870 1 60.0063 13.8554 -106.804 0 3.4921 2 0 4.53999e-06 -0.873791
906 1 61.389 14.1795 -106.789 0 3.59752 1 0 4.53999e-06 -0.0987634
3632 1 61.6311 13.286 -106.583 0 3.62399 1 0 4.53999e-06 -0.385191
1149 1 62.436 12.9079 -106.631 0 3.70976 1 0 4.53999e-06 0.236515
2457 1 62.3439 13.3545 -105.9 0 3.67555 1 0 4.53999e-06 -0.225411
9330 1 62.3868 13.9892 -106.951 0 3.73496 1 0 4.53999e-06 0.408533
7563 1 63.0839 13.764 -105.506 0 3.7154 2 0 4.53999e-06 0.0732277
9333 1 63.3058 13.2135 -106.325 0 3.80991 1 0 4.53999e-06 0.755989
4114 1 64.1441 13.6783 -106.578 0 4.15261 2 0 4.53999e-06 0.635608
903 1 64.1539 12.6631 -106.243 0 3.85307 2 0 4.53999e-06 0.466967
9329 1 64.667 13.3699 -105.774 0 3.83317 2 0 4.53999e-06 0.323538
9222 1 63.2027 14.2359 -106.432 0 3.80799 2 0 4.53999e-06 0.481605
3629 1 63.7895 13.0986 -105.53 0 3.76095 2 0 4.53999e-06 -0.104683
9428 1 66.1118 13.227 -105.821 0 4.24564 2 0 4.53999e-06 0.605982
3631 1 65.0333 12.6767 -105.388 0 3.7865 1 0 4.53999e-06 0.349519
7200 1 59.0908 14.5308 -106.287 0 3.39655 2 0 4.53999e-06 -0.856886
1465 1 60.5637 14.5848 -106.31 0 3.50967 2 0 4.53999e-06 -0.21032
8452 1 62.1557 14.2405 -106.106 0 3.66458 2 0 4.53999e-06 0.0131101
9219 1 62.3899 14.9814 -106.894 0 3.7234 2 0 4.53999e-06 0.229278
1008 1 65.5966 10.5582 -104.229 0 3.57084 2 0 4.53999e-06 -0.382714
2151 1 63.2615 11.547 -105.346 0 3.65332 2 0 4.53999e-06 -0.47604
952 1 64.3057 11.231 -105.145 0 3.65717 2 0 4.53999e-06 -0.261612
2547 1 63.7997 11.8061 -104.302 0 3.60663 2 0 4.53999e-06 -0.487704
1866 1 64.7765 12.243 -104.691 0 3.69592 1 0 4.53999e-06 -0.686773
4587 1 65.9956 11.205 -105.135 0 3.68717 2 0 4.53999e-06 0.204139
1922 1 65.2488 11.4743 -104.544 0 3.65969 2 0 4.53999e-06 -0.532139
1148 1 66.0326 11.8487 -104.468 0 3.69275 1 0 4.53999e-06 -0.0861241
4125 1 65.9554 12.2226 -105.343 0 3.95558 2 0 4.53999e-06 0.524793
3519 1 66.4852 11.1209 -104.123 0 3.64684 2 0 4.53999e-06 0.0145529
7205 1 65.3584 12.1905 -103.956 0 3.64887 2 0 4.53999e-06 -0.716549
4548 1 66.865 11.7924 -104.774 0 3.80253 2 0 4.53999e-06 0.482573
4520 1 67.436 11.4426 -104.023 0 3.72858 1 0 4.53999e-06 0.393571
9218 1 67.5931 12.5067 -104.568 0 4.01892 2 0 4.53999e-06 0.546825
1869 1 66.7949 12.0596 -103.936 0 3.68785 1 0 4.53999e-06 0.197249
3870 1 68.3793 11.1794 -104.087 0 4.13895 2 0 4.53999e-06 0.526735
8739 1 68.6671 12.1995 -103.816 0 4.12443 2 0 4.53999e-06 0.727213
6967 1 61.8731 13.6608 -104.827 0 3.56734 2 0 4.53999e-06 -0.339578
2104 1 63.029 12.5744 -105.333 0 3.68782 2 0 4.53999e-06 -0.511393
6973 1 63.3818 13.216 -104.552 0 3.65407 2 0 4.53999e-06 -0.285283
7556 1 64.4656 13.1405 -104.758 0 3.70958 2 0 4.53999e-06 -0.313551
1466 1 65.5932 12.6855 -104.69 0 3.72897 1 0 4.53999e-06 0.114665
8449 1 65.467 13.6446 -105.002 0 3.76302 2 0 4.53999e-06 0.216215
6298 1 65.2384 13.2151 -103.953 0 3.64257 2 0 4.53999e-06 -0.313281
6608 1 66.1291 12.5853 -103.907 0 3.66433 1 0 4.53999e-06 -0.263981
9334 1 66.5572 12.719 -104.705 0 3.76524 2 0 4.53999e-06 0.455118
7557 1 67.0168 13.0093 -103.772 0 3.67779 2 0 4.53999e-06 0.108088
1195 1 66.1998 10.556 -103.212 0 3.55094 2 0 4.53999e-06 -0.439872
4325 1 67.2997 10.6667 -103.442 0 3.64575 2 0 4.53999e-06 0.0709328
4417 1 67.9322 10.713 -102.597 0 3.69498 2 0 4.53999e-06 0.00595296
1199 1 65.8756 11.5356 -103.502 0 3.61217 2 0 4.53999e-06 -0.720923
7203 1 66.5028 12.2174 -103.197 0 3.62681 1 0 4.53999e-06 -0.72506
954 1 66.8568 11.4846 -103.356 0 3.64661 1 0 4.53999e-06 -0.516555
8448 1 67.748 11.4849 -103.125 0 3.71817 1 0 4.53999e-06 0.438371
7204 1 67.3159 12.0627 -102.991 0 3.66436 1 0 4.53999e-06 -0.352003
9220 1 67.6478 12.1945 -103.681 0 3.73665 1 0 4.53999e-06 0.59988
1976 1 66.9867 11.1351 -102.561 0 3.61571 2 0 4.53999e-06 -0.543083
7202 1 66.652 12.0467 -102.254 0 3.58074 2 0 4.53999e-06 -0.764464
2553 1 67.599 11.6961 -102.313 0 3.66355 1 0 4.53999e-06 -0.543202
7555 1 68.2776 12.149 -102.895 0 3.77203 1 0 4.53999e-06 0.741461
4519 1 68.622 11.3275 -103.128 0 4.01896 2 0 4.53999e-06 0.718828
3213 1 69.4754 11.9062 -102.824 0 4.24351 2 0 4.53999e-06 0.931015
4227 1 69.2529 10.8795 -102.498 0 4.15388 2 0 4.53999e-06 0.752003
4518 1 68.3804 11.5167 -102.275 0 3.7625 1 0 4.53999e-06 0.881912
9221 1 68.8798 12.3888 -102.161 0 4.00724 2 0 4.53999e-06 0.630676
6604 1 65.6605 12.7432 -102.95 0 3.56077 2 0 4.53999e-06 -0.609143
9171 1 67.8663 12.9444 -103.19 0 3.69233 2 0 4.53999e-06 0.386428
6027 1 66.9596 12.8742 -102.748 0 3.60283 2 0 4.53999e-06 -0.280386
6030 1 67.7664 12.5596 -102.263 0 3.65448 2 0 4.53999e-06 0.135221
1253 1 67.8115 10.5382 -100.736 0 3.55237 2 0 4.53999e-06 -0.525882
4588 1 68.5398 10.585 -101.79 0 3.70834 2 0 4.53999e-06 0.202255
955 1 67.8263 11.1473 -101.606 0 3.64741 2 0 4.53999e-06 -0.607583
2656 1 68.0296 11.6294 -100.805 0 3.62894 2 0 4.53999e-06 -0.980192
6908 1 67.389 12.0153 -101.547 0 3.60156 2 0 4.53999e-06 -0.679193
6304 1 68.2666 12.0514 -101.569 0 3.70137 1 0 4.53999e-06 0.0875823
902 1 68.9899 12.0342 -101.049 0 3.90689 2 0 4.53999e-06 0.617666
4546 1 69.6368 11.3266 -100.742 0 3.98716 2 0 4.53999e-06 0.901178
3520 1 69.0551 11.418 -101.7 0 3.95943 2 0 4.53999e-06 0.973938
1010 1 68.6964 11.0295 -100.9 0 3.68319 2 0 4.53999e-06 0.270361
7474 1 67.0117 13.0201 -101.633 0 3.49891 2 0 4.53999e-06 -0.341285
2598 1 68.171 11.1761 -99.9222 0 3.58765 2 0 4.53999e-06 -0.706298
7373 1 67.5857 12.0732 -99.9112 0 3.52659 2 0 4.53999e-06 -0.928659
6297 1 68.3416 12.23 -98.6891 0 3.56076 2 0 4.53999e-06 -0.650544
6970 1 68.3926 11.8528 -99.4017 0 3.5924 1 0 4.53999e-06 -0.915949
2599 1 68.7845 11.2611 -99.2234 0 3.60502 1 0 4.53999e-06 -0.170423
2552 1 68.7501 11.622 -100.22 0 3.66541 1 0 4.53999e-06 0.0572745
901 1 69.2805 11.1555 -99.8366 0 3.81265 2 0 4.53999e-06 0.582802
3873 1 69.7171 11.8058 -99.314 0 3.8155 2 0 4.53999e-06 0.9786
4547 1 69.4471 11.3328 -98.7332 0 3.62273 1 0 4.53999e-06 0.8509
4516 1 69.0243 11.929 -99.5939 0 3.64212 1 0 4.53999e-06 0.505632
8944 1 69.4721 12.1992 -100.251 0 3.89945 2 0 4.53999e-06 0.71247
8547 1 68.4408 12.3426 -100.308 0 3.63654 2 0 4.53999e-06 -0.287076
9122 1 69.1339 12.506 -99.0609 0 3.59976 2 0 4.53999e-06 0.289977
6301 1 69.0004 11.9104 -98.7259 0 3.59914 1 0 4.53999e-06 0.421795
4630 1 69.1595 10.7957 -97.6662 0 3.61558 2 0 4.53999e-06 0.222084
6450 1 67.9509 11.9413 -97.9307 0 3.54434 2 0 4.53999e-06 -0.961232
7152 1 68.2507 11.4429 -98.633 0 3.56429 1 0 4.53999e-06 -0.926923
4420 1 68.8384 10.8035 -98.6005 0 3.58688 2 0 4.53999e-06 -0.0870415
3425 1 68.3477 11.1948 -97.8132 0 3.57349 1 0 4.53999e-06 -0.766239
7376 1 68.5139 11.7889 -97.3688 0 3.5982 1 0 4.53999e-06 -0.938502
1926 1 68.9282 11.336 -98.149 0 3.60099 1 0 4.53999e-06 0.0464077
8546 1 69.3647 11.9745 -98.1039 0 3.61785 1 0 4.53999e-06 0.774038
1255 1 68.6909 11.1532 -97.0324 0 3.61983 1 0 4.53999e-06 -0.398129
6972 1 69.225 11.6171 -97.4662 0 3.64225 1 0 4.53999e-06 0.9749
8989 1 69.8098 11.3191 -97.9194 0 3.80631 2 0 4.53999e-06 0.951404
6245 1 68.7129 12.2541 -97.9594 0 3.58506 1 0 4.53999e-06 -0.219876
9168 1 69.8462 11.963 -97.0544 0 3.87167 2 0 4.53999e-06 0.939913
7662 1 69.0722 12.3316 -97.1866 0 3.64245 1 0 4.53999e-06 0.219209
6905 1 68.1361 11.5426 -96.4401 0 3.60009 2 0 4.53999e-06 -0.959998
4229 1 68.1269 10.8939 -95.3492 0 3.56776 2 0 4.53999e-06 -0.286679
4591 1 69.4962 11.1654 -96.8792 0 3.8257 2 0 4.53999e-06 0.669522
6240 1 68.2649 12.3537 -96.8092 0 3.59016 2 0 4.53999e-06 -0.681852
7374 1 68.2188 11.7497 -95.4439 0 3.63669 2 0 4.53999e-06 -0.920243
6590 1 68.9473 11.759 -96.6475 0 3.66572 1 0 4.53999e-06 0.196018
1923 1 68.7825 11.125 -96.0343 0 3.65502 2 0 4.53999e-06 0.0141357
9331 1 69.5365 11.5783 -96.0656 0 3.89344 2 0 4.53999e-06 0.871856
6605 1 68.6536 12.1504 -95.9856 0 3.67636 2 0 4.53999e-06 -0.374325
9169 1 69.3819 12.3897 -96.3084 0 3.89463 2 0 4.53999e-06 0.583085
2452 1 66.4086 11.2684 -93.7827 0 3.40393 2 0 4.53999e-06 -0.685149
1685 1 67.4709 11.2823 -94.7139 0 3.53149 2 0 4.53999e-06 -0.59359
6907 1 67.7533 12.0677 -94.7416 0 3.58631 2 0 4.53999e-06 -0.646608
4326 1 68.0202 11.0614 -94.0411 0 3.57877 2 0 4.53999e-06 0.211078
1569 1 67.308 11.5339 -93.8313 0 3.50951 2 0 4.53999e-06 -0.517922
1563 1 68.0506 11.9272 -93.9869 0 3.73557 2 0 4.53999e-06 0.690986
6513 1 66.862 12.0147 -94.3974 0 3.46926 2 0 4.53999e-06 -0.731027
2548 1 67.2717 12.3279 -93.7019 0 3.50196 2 0 4.53999e-06 -0.273768
8447 1 69.0558 11.6376 -95.2992 0 3.87899 2 0 4.53999e-06 0.813605
9123 1 69.2505 12.4952 -95.305 0 3.95139 2 0 4.53999e-06 0.62659
3521 1 68.4725 11.483 -94.6727 0 3.66354 2 0 4.53999e-06 0.4952
3872 1 69.6679 11.8362 -94.5006 0 4.12035 2 0 4.53999e-06 0.927248
7554 1 68.7399 12.2844 -94.4888 0 3.87199 2 0 4.53999e-06 0.632915
4515 1 68.8582 11.5937 -93.8048 0 3.91991 2 0 4.53999e-06 0.769607
7559 1 67.9256 12.7612 -94.2099 0 3.5771 2 0 4.53999e-06 0.00835968
9429 1 68.3045 12.5959 -95.2276 0 3.64795 2 0 4.53999e-06 -0.261514
1566 1 66.3933 12.0938 -93.4067 0 3.41747 2 0 4.53999e-06 -0.786728
2201 1 65.475 11.7715 -92.7767 0 3.36373 2 0 4.53999e-06 -0.732917
4330 1 66.3578 11.375 -92.7109 0 3.39485 2 0 4.53999e-06 -0.163046
6303 1 66.2878 12.2929 -92.4556 0 3.58426 2 0 4.53999e-06 0.624184
1567 1 65.3939 12.463 -92.1161 0 3.38946 2 0 4.53999e-06 -0.554802
1259 1 67.1414 10.9893 -93.183 0 3.44985 2 0 4.53999e-06 -0.0144691
4331 1 67.9875 11.4821 -93.1833 0 3.60122 2 0 4.53999e-06 0.487704
1198 1 67.1395 11.9097 -92.9405 0 3.46558 2 0 4.53999e-06 0.273898
9224 1 68.0121 12.419 -93.2244 0 3.57996 2 0 4.53999e-06 0.478523
6031 1 65.7046 12.6931 -93.0241 0 3.37348 2 0 4.53999e-06 -0.479465
8600 1 65.7449 13.2633 -92.1929 0 3.37831 2 0 4.53999e-06 0.330282
8945 1 66.8251 12.89 -93.0011 0 3.42023 2 0 4.53999e-06 0.195592
1688 1 63.0758 12.2986 -91.0397 0 3.15973 2 0 4.53999e-06 -0.596896
2154 1 64.0471 12.3574 -91.3894 0 3.29746 2 0 4.53999e-06 -0.379744
1011 1 63.7241 11.7993 -90.5932 0 3.23295 2 0 4.53999e-06 0.0174428
4328 1 64.564 12.1757 -90.5818 0 3.53101 2 0 4.53999e-06 0.591716
4228 1 65.8337 11.7625 -91.8104 0 3.3864 2 0 4.53999e-06 0.293052
4419 1 64.9052 12.0236 -91.4752 0 3.36706 2 0 4.53999e-06 -0.0138228
7377 1 62.8395 13.0643 -90.4992 0 3.12578 2 0 4.53999e-06 -0.548908
9223 1 64.6595 12.9033 -91.8771 0 3.35387 2 0 4.53999e-06 -0.470317
6243 1 64.1062 13.4194 -91.2106 0 3.30626 2 0 4.53999e-06 -0.279913
1467 1 63.7549 12.7955 -90.7491 0 3.26488 2 0 4.53999e-06 -0.282616
4551 1 64.8135 12.8519 -91.0111 0 3.54112 2 0 4.53999e-06 0.773889
3876 1 65.1292 13.6228 -91.4207 0 3.36593 2 0 4.53999e-06 0.276076
4549 1 65.6321 12.7086 -91.3397 0 3.61738 2 0 4.53999e-06 0.789257
1681 1 61.3599 12.0581 -89.2303 0 2.84051 2 0 4.53999e-06 -0.524362
1257 1 63.1695 12.4133 -90.1765 0 3.16055 2 0 4.53999e-06 -0.380621
1313 1 62.9843 11.8418 -89.6944 0 3.0846 2 0 4.53999e-06 0.00524884
2202 1 62.399 12.4824 -89.7935 0 3.03018 2 0 4.53999e-06 -0.572781
3422 1 62.2337 12.1374 -89.0572 0 2.95399 2 0 4.53999e-06 -0.0696661
3966 1 63.0662 12.2087 -88.9351 0 3.21588 2 0 4.53999e-06 0.556455
4232 1 63.9498 12.4448 -89.9842 0 3.4088 2 0 4.53999e-06 0.716163
6237 1 61.0874 12.9222 -89.3723 0 2.82695 2 0 4.53999e-06 -0.720635
9126 1 61.3608 13.5632 -88.785 0 2.83274 2 0 4.53999e-06 -0.4652
7151 1 61.9036 12.9379 -89.3043 0 2.92616 2 0 4.53999e-06 -0.563861
6242 1 62.2115 13.7576 -89.2873 0 2.94445 2 0 4.53999e-06 -0.087695
7472 1 62.7699 13.1277 -89.6371 0 3.07285 2 0 4.53999e-06 -0.0519425
4416 1 62.6315 12.8653 -88.9224 0 3.13008 2 0 4.53999e-06 0.677326
9120 1 63.1313 13.6097 -88.9071 0 3.26927 2 0 4.53999e-06 0.54157
7558 1 63.5521 13.2819 -90.0521 0 3.20184 2 0 4.53999e-06 0.271376
3641 1 64.4426 13.1744 -90.2885 0 3.52933 2 0 4.53999e-06 0.587982
904 1 63.4442 12.7682 -89.3808 0 3.29419 2 0 4.53999e-06 0.797757
1684 1 61.3059 11.9435 -88.1801 0 2.80184 2 0 4.53999e-06 -0.243576
4631 1 62.4924 12.4188 -88.1299 0 2.90791 2 0 4.53999e-06 0.483339
8898 1 59.505 13.6262 -87.1993 0 2.96029 2 0 4.53999e-06 0.0807159
7475 1 60.969 12.8014 -88.5016 0 2.81463 2 0 4.53999e-06 -0.98232
7150 1 59.8763 13.0013 -88.0103 0 2.83577 2 0 4.53999e-06 -0.822565
2655 1 60.7042 12.5323 -87.6525 0 2.8302 2 0 4.53999e-06 -0.405969
9172 1 60.7999 13.437 -87.8811 0 2.81913 2 0 4.53999e-06 -0.437839
2208 1 61.7325 12.5261 -88.5652 0 2.86829 2 0 4.53999e-06 -0.261095
7657 1 62.1227 13.2373 -88.4985 0 2.90274 2 0 4.53999e-06 0.337904
956 1 61.6142 12.8332 -87.7728 0 2.82144 2 0 4.53999e-06 0.199282
8943 1 61.7007 13.7377 -87.9408 0 2.81061 2 0 4.53999e-06 0.155045
1056 1 59.0312 12.4999 -85.6387 0 3.30129 2 0 4.53999e-06 0.67274
6968 1 57.837 13.342 -86.4416 0 2.96971 2 0 4.53999e-06 -0.229741
8686 1 57.4402 14.2153 -86.2647 0 2.9205 2 0 4.53999e-06 -0.31604
6509 1 57.1112 13.3979 -85.9594 0 2.91559 2 0 4.53999e-06 -0.740537
2597 1 56.7954 12.9376 -85.3823 0 2.87922 2 0 4.53999e-06 -0.844892
2205 1 57.6061 12.8794 -85.8102 0 2.95144 2 0 4.53999e-06 -0.273454
6305 1 57.7539 13.5798 -85.7557 0 2.95927 2 0 4.53999e-06 0.0287149
7658 1 56.9973 13.8457 -85.3598 0 2.89189 2 0 4.53999e-06 -0.685083
3281 1 57.7251 14.1045 -85.346 0 2.93318 2 0 4.53999e-06 0.148466
4633 1 58.1102 12.8019 -85.35 0 3.10275 2 0 4.53999e-06 0.57425
8544 1 58.6039 13.4332 -86.7434 0 3.00905 2 0 4.53999e-06 0.144163
7553 1 59.213 12.6909 -86.782 0 3.01732 2 0 4.53999e-06 0.286431
1929 1 58.32 12.6688 -86.2396 0 3.01229 2 0 4.53999e-06 0.12381
9227 1 58.471 13.2706 -85.7834 0 3.14347 2 0 4.53999e-06 0.992961
4590 1 59.208 13.3522 -86.1292 0 3.25632 2 0 4.53999e-06 0.93164
8595 1 58.349 13.9719 -86.0346 0 3.03836 2 0 4.53999e-06 0.479258
3640 1 60.2513 13.0322 -86.8756 0 3.25476 2 0 4.53999e-06 0.563536
1683 1 57.4377 12.3492 -85.2297 0 2.90668 2 0 4.53999e-06 -0.100233
6455 1 53.892 13.4419 -84.6154 0 2.91747 3 0 4.53999e-06 -0.549179
6591 1 56.1391 13.0008 -84.3113 0 2.80784 2 0 4.53999e-06 -0.939787
6512 1 56.43 13.8879 -83.9607 0 2.80561 2 0 4.53999e-06 -0.393589
1258 1 56.94 12.6303 -84.5534 0 2.84932 2 0 4.53999e-06 -0.33062
953 1 57.352 13.169 -85.1172 0 2.91124 2 0 4.53999e-06 -0.599504
3922 1 57.7369 12.9453 -84.6118 0 2.90559 2 0 4.53999e-06 0.485837
1197 1 56.7487 13.4463 -84.7185 0 2.85372 2 0 4.53999e-06 -0.874108
3643 1 57.4703 13.7403 -84.6381 0 2.88866 2 0 4.53999e-06 0.193146
4121 1 58.0935 13.4801 -85.1239 0 3.08213 2 0 4.53999e-06 0.719405
1565 1 57.144 13.2382 -83.9449 0 2.82907 2 0 4.53999e-06 0.245911
8543 1 54.0884 13.3721 -82.4857 0 3.44506 2 0 4.53999e-06 -0.109534
8838 1 54.7256 14.0444 -82.1532 0 3.73987 2 0 4.53999e-06 0.624133
6694 1 53.5217 14.1894 -82.004 0 3.42977 2 0 4.53999e-06 -0.153875
3523 1 56.3347 12.9862 -83.3304 0 2.83369 2 0 4.53999e-06 -0.0833491
9170 1 55.4364 13.5508 -83.0649 0 3.08812 2 0 4.53999e-06 -0.275192
3874 1 55.1172 13.0549 -82.1542 0 3.79136 2 0 4.53999e-06 0.752333
2152 1 52.9485 13.5974 -81.1626 0 3.40915 2 0 4.53999e-06 -0.247268
2199 1 52.1455 13.2757 -80.9343 0 3.32688 2 0 4.53999e-06 -0.69776
1261 1 52.7092 13.3205 -80.5564 0 3.37573 2 0 4.53999e-06 -0.214875
6974 1 52.4235 14.0461 -80.9208 0 3.35071 2 0 4.53999e-06 -0.514307
2449 1 52.9722 12.7584 -81.0653 0 3.39225 2 0 4.53999e-06 -0.0343168
9226 1 53.0626 13.8478 -80.2834 0 3.51171 2 0 4.53999e-06 0.671488
2652 1 53.3971 13.3489 -81.7615 0 3.44832 2 0 4.53999e-06 -0.171324
4593 1 54.2547 13.022 -81.5688 0 3.73971 2 0 4.53999e-06 0.613281
8946 1 54.0989 13.9157 -81.3785 0 3.6814 2 0 4.53999e-06 0.850522
4124 1 53.6219 13.3293 -80.9847 0 3.59927 2 0 4.53999e-06 0.824408
4225 1 53.3133 13.1638 -80.307 0 3.55105 2 0 4.53999e-06 0.629324
8897 1 53.7005 13.9387 -80.5174 0 3.61046 2 0 4.53999e-06 0.861416
7149 1 51.7439 14.3812 -80.312 0 3.26077 2 0 4.53999e-06 -0.685955
6906 1 52.7202 14.374 -80.3035 0 3.36464 2 0 4.53999e-06 0.0247371
7656 1 53.2481 14.252 -81.0846 0 3.42531 2 0 4.53999e-06 0.174173
6606 1 51.3437 14.0003 -79.4703 0 3.18757 2 0 4.53999e-06 -0.882699
1260 1 51.7036 13.3182 -80.1207 0 3.26799 2 0 4.53999e-06 -0.903493
1256 1 52.4112 12.7549 -80.1451 0 3.31714 2 0 4.53999e-06 -0.201753
6302 1 52.2204 13.736 -80.2558 0 3.32304 2 0 4.53999e-06 -0.969876
4424 1 52.7735 13.4217 -79.7525 0 3.35244 2 0 4.53999e-06 0.30818
8497 1 52.3646 14.0485 -79.644 0 3.30759 2 0 4.53999e-06 -0.141748
4418 1 52.0472 13.25 -79.3205 0 3.24633 2 0 4.53999e-06 -0.316137
8270 1 52.1157 14.0497 -78.7084 0 3.171 2 0 4.53999e-06 -0.0826992
8317 1 53.3987 14.1642 -79.4191 0 3.66361 2 0 4.53999e-06 0.597215
6452 1 49.9651 12.5868 -77.3553 0 2.89334 3 0 4.53999e-06 0.0609303
6508 1 48.5786 13.6627 -75.6847 0 3.38673 2 0 4.53999e-06 0.028132
8450 1 51.0337 14.0911 -75.7958 0 4.57054 3 0 4.53999e-06 0.969231
2456 1 48.2275 13.164 -74.618 0 3.38095 2 0 4.53999e-06 -0.175912
6241 1 47.8139 13.6409 -74.0173 0 3.3531 2 0 4.53999e-06 -0.692551
9128 1 48.0389 14.1475 -74.8006 0 3.39191 2 0 4.53999e-06 -0.53282
2458 1 48.3124 13.2389 -73.6471 0 3.37437 2 0 4.53999e-06 0.191186
8263 1 48.453 13.896 -74.0546 0 3.40638 2 0 4.53999e-06 0.427421
8444 1 48.9248 13.7488 -74.7784 0 3.62313 2 0 4.53999e-06 0.644457
2600 1 48.974 13.3684 -74.0021 0 3.58039 2 0 4.53999e-06 0.757101
8314 1 47.9065 14.3213 -73.8628 0 3.35767 2 0 4.53999e-06 -0.525103
1691 1 49.2142 14.2683 -74.0425 0 3.62608 2 0 4.53999e-06 0.915711
8500 1 48.8688 14.6317 -74.9578 0 3.51714 2 0 4.53999e-06 0.357711
3217 1 48.5007 14.8632 -74.1044 0 3.40121 2 0 4.53999e-06 0.0955119
6185 1 47.3653 13.1047 -73.4742 0 3.2915 2 0 4.53999e-06 -0.675499
9427 1 47.7784 13.0709 -72.7158 0 3.3077 2 0 4.53999e-06 -0.20341
7660 1 47.0308 13.6961 -72.5331 0 3.25839 2 0 4.53999e-06 -0.947613
3220 1 47.2729 13.9906 -73.3356 0 3.29894 2 0 4.53999e-06 -0.947051
8738 1 47.9015 13.6525 -73.3353 0 3.34599 1 0 4.53999e-06 -0.762722
8990 1 47.7696 13.8102 -72.6012 0 3.32046 2 0 4.53999e-06 -0.46451
8316 1 47.9863 14.2256 -73.1817 0 3.34605 1 0 4.53999e-06 -0.205029
4415 1 48.3719 13.4949 -72.9774 0 3.46462 2 0 4.53999e-06 0.585504
2212 1 48.474 13.452 -72.0959 0 3.51178 2 0 4.53999e-06 0.591546
3967 1 48.4415 14.1589 -72.6698 0 3.48527 2 0 4.53999e-06 0.592828
4324 1 49.0047 13.6979 -73.246 0 3.55243 2 0 4.53999e-06 0.934721
3970 1 48.5643 14.1864 -73.4897 0 3.3949 1 0 4.53999e-06 0.674354
3207 1 47.4831 14.6371 -72.662 0 3.28067 2 0 4.53999e-06 -0.441267
8442 1 47.5501 13.3735 -71.7492 0 3.27115 2 0 4.53999e-06 -0.317174
4116 1 47.8791 14.2242 -71.9061 0 3.30965 2 0 4.53999e-06 0.07839
1973 1 48.1773 14.2412 -70.745 0 3.82123 2 0 4.53999e-06 0.736238
3692 1 47.0603 14.3704 -71.1094 0 3.23306 2 0 4.53999e-06 -0.851188
3212 1 45.6107 15.3541 -68.6322 0 3.34215 2 0 4.53999e-06 -0.685344
7653 1 46.4704 14.9632 -69.1366 0 3.39793 2 0 4.53999e-06 -0.322731
5920 1 47.3743 14.7674 -69.934 0 3.35532 2 0 4.53999e-06 0.390333
6458 1 47.5108 14.5922 -68.7409 0 3.734 2 0 4.53999e-06 0.786534
4333 1 47.2418 15.603 -68.9343 0 3.79865 2 0 4.53999e-06 0.507874
5917 1 46.2459 14.2569 -67.5122 0 3.43417 2 0 4.53999e-06 0.129929
8269 1 45.655 14.6864 -67.9517 0 3.39132 2 0 4.53999e-06 -0.65589
9125 1 45.7739 14.6013 -67.0003 0 3.42941 1 0 4.53999e-06 -0.515141
8102 1 45.1527 15.0635 -66.9674 0 3.38644 2 0 4.53999e-06 -0.927011
4231 1 46.4345 15.5885 -68.1757 0 3.46056 2 0 4.53999e-06 0.0703961
9225 1 46.4944 14.9887 -67.4493 0 3.60242 2 0 4.53999e-06 0.865742
8684 1 45.7783 15.3655 -67.5072 0 3.42623 2 0 4.53999e-06 -0.572266
1013 1 46.4638 15.7581 -67.1833 0 3.52029 2 0 4.53999e-06 0.383392
8213 1 46.5893 14.7108 -68.2517 0 3.45903 2 0 4.53999e-06 0.294923
2022 1 47.284 15.2514 -67.8182 0 3.74819 2 0 4.53999e-06 0.973624
6182 1 45.8899 13.8006 -66.4944 0 3.39729 2 0 4.53999e-06 -0.0220501
7661 1 45.7158 14.1786 -65.6034 0 3.41856 2 0 4.53999e-06 -0.0495312
6033 1 46.5492 14.3776 -66.7743 0 3.60512 2 0 4.53999e-06 0.709484
3740 1 45.5865 15.7983 -66.7443 0 3.4124 2 0 4.53999e-06 -0.403818
6515 1 46.3721 14.5267 -66.0476 0 3.60206 2 0 4.53999e-06 0.764488
8267 1 45.1554 14.3609 -66.3442 0 3.38029 2 0 4.53999e-06 -0.801703
3920 1 45.1606 15.2825 -66.1021 0 3.39258 2 0 4.53999e-06 -0.87357
8315 1 44.9497 14.5687 -65.4431 0 3.37534 2 0 4.53999e-06 -0.900957
3514 1 46.1081 15.2492 -66.649 0 3.46309 1 0 4.53999e-06 0.410407
8948 1 45.7086 14.7845 -66.2545 0 3.43315 1 0 4.53999e-06 -0.780725
8596 1 45.848 14.9937 -65.5577 0 3.44723 2 0 4.53999e-06 0.26081
4014 1 45.8204 15.8444 -65.8744 0 3.42419 2 0 4.53999e-06 0.0216553
1057 1 46.5094 15.3341 -65.952 0 3.63468 2 0 4.53999e-06 0.756297
1789 1 46.8906 15.11 -66.7341 0 3.666 2 0 4.53999e-06 0.97344
3423 1 44.7312 14.9331 -64.4373 0 3.38077 2 0 4.53999e-06 -0.901738
7106 1 46.457 14.5631 -65.0929 0 3.68484 2 0 4.53999e-06 0.757584
1974 1 45.2539 15.3445 -65.2129 0 3.40537 2 0 4.53999e-06 -0.536584
8268 1 45.4994 14.2503 -64.6154 0 3.41309 2 0 4.53999e-06 -0.0525052
4321 1 45.3622 14.9166 -63.6072 0 3.74802 2 0 4.53999e-06 0.555265
2102 1 45.8675 15.1571 -64.5713 0 3.55706 2 0 4.53999e-06 0.417703
8264 1 44.571 14.6382 -62.9181 0 3.2911 2 0 4.53999e-06 -0.655341
4230 1 45.102 14.3836 -62.0722 0 3.29367 2 0 4.53999e-06 0.399664
4673 1 44.9449 15.4089 -62.3872 0 3.29748 2 0 4.53999e-06 0.109956
2994 1 44.0243 14.0213 -61.2593 0 3.20973 2 0 4.53999e-06 -0.52769
3642 1 44.3671 14.8953 -61.6974 0 3.27067 2 0 4.53999e-06 -0.589614
6188 1 44.8839 14.2858 -60.3297 0 3.29898 2 0 4.53999e-06 0.333471
3738 1 43.6321 15.1279 -60.7567 0 3.22732 2 0 4.53999e-06 -0.866056
9425 1 44.7694 14.5764 -61.0624 0 3.30587 2 0 4.53999e-06 0.161409
4634 1 44.425 15.2218 -60.924 0 3.29336 2 0 4.53999e-06 -0.34522
8101 1 44.1657 14.5874 -60.4883 0 3.26469 2 0 4.53999e-06 -0.621733
909 1 44.7967 15.0156 -60.3237 0 3.3169 1 0 4.53999e-06 0.948516
1925 1 45.2715 15.2221 -61.4749 0 3.51722 2 0 4.53999e-06 0.663725
5918 1 45.5187 14.3611 -61.1653 0 3.52691 2 0 4.53999e-06 0.785687
1687 1 45.0689 15.5918 -60.6777 0 3.4727 2 0 4.53999e-06 0.49097
6689 1 45.5501 14.9114 -60.4497 0 3.51795 2 0 4.53999e-06 0.998903
3923 1 43.8278 14.9871 -59.9124 0 3.25135 2 0 4.53999e-06 -0.966233
3737 1 44.2861 15.5265 -60.2122 0 3.28346 1 0 4.53999e-06 -0.257577
8056 1 43.634 14.6558 -59.1628 0 3.23337 2 0 4.53999e-06 -0.736909
8740 1 43.4837 15.5002 -59.0617 0 3.22954 2 0 4.53999e-06 -0.917111
8837 1 44.3338 14.5543 -59.7148 0 3.27481 1 0 4.53999e-06 -0.187019
3517 1 44.5878 15.1821 -59.2294 0 3.30919 1 0 4.53999e-06 0.673495
3921 1 44.144 15.4784 -59.4691 0 3.27751 1 0 4.53999e-06 -0.440985
9426 1 44.4437 14.6548 -58.9046 0 3.29055 2 0 4.53999e-06 0.0869616
2555 1 44.6804 15.7203 -58.7465 0 3.44218 2 0 4.53999e-06 0.481391
3278 1 43.4564 15.7383 -59.9838 0 3.20919 2 0 4.53999e-06 -0.754821
3793 1 44.9419 15.5992 -59.7683 0 3.45886 2 0 4.53999e-06 0.601792
8899 1 44.9939 14.8308 -59.7014 0 3.32789 1 0 4.53999e-06 0.835888
6687 1 45.3993 15.0706 -58.9406 0 3.54811 2 0 4.53999e-06 0.93996
9326 1 43.9697 15.1366 -58.4307 0 3.27269 2 0 4.53999e-06 -0.703517
8743 1 44.78 15.0574 -58.1842 0 3.4846 2 0 4.53999e-06 0.713387
3218 1 43.7564 15.4189 -57.582 0 3.2497 2 0 4.53999e-06 -0.854521
3969 1 44.5827 15.8229 -57.7183 0 3.33724 2 0 4.53999e-06 0.322006
5809 1 44.3387 14.6641 -57.439 0 3.27955 2 0 4.53999e-06 -0.146354
6244 1 45.1067 15.2264 -57.1303 0 3.61439 2 0 4.53999e-06 0.983941
4233 1 44.2991 15.3387 -56.6635 0 3.31139 2 0 4.53999e-06 -0.898221
8839 1 44.4945 14.5848 -55.9954 0 3.29178 2 0 4.53999e-06 -0.100651
4131 1 44.174 15.8841 -55.783 0 3.31498 2 0 4.53999e-06 -0.536166
8597 1 44.0231 15.0924 -55.2856 0 3.29423 2 0 4.53999e-06 -0.966892
4332 1 45.0076 15.3789 -55.9583 0 3.61212 2 0 4.53999e-06 0.910819
7375 1 44.6415 13.9782 -55.0827 0 3.22769 2 0 4.53999e-06 0.104629
1868 1 44.8699 14.9331 -55.0662 0 3.52949 2 0 4.53999e-06 0.903292
8900 1 44.1529 14.6134 -54.4543 0 3.26611 2 0 4.53999e-06 -0.757694
8265 1 43.8135 15.336 -53.8995 0 3.2176 2 0 4.53999e-06 -0.864924
4589 1 44.4792 15.4367 -54.4628 0 3.32627 2 0 4.53999e-06 -0.144097
3871 1 44.3802 14.758 -53.5726 0 3.24428 2 0 4.53999e-06 -0.720474
3789 1 44.9498 15.9205 -55.1107 0 3.65376 2 0 4.53999e-06 0.500819
1930 1 44.9707 14.5353 -54.1746 0 3.49036 2 0 4.53999e-06 0.781159
4017 1 45.1178 15.3706 -53.8528 0 3.53329 2 0 4.53999e-06 0.813009
6037 1 44.6005 13.9818 -53.29 0 3.18922 2 0 4.53999e-06 0.0807362
5815 1 44.5392 13.3472 -52.4401 0 3.02515 2 0 4.53999e-06 0.0277398
1568 1 45.0522 14.1994 -52.2591 0 3.32539 2 0 4.53999e-06 0.889864
8322 1 43.7242 14.8956 -52.9963 0 3.14592 2 0 4.53999e-06 -0.995849
3691 1 44.471 15.4829 -53.1262 0 3.21979 2 0 4.53999e-06 0.0620221
8645 1 44.1725 14.2609 -52.5182 0 3.12951 2 0 4.53999e-06 -0.743066
3209 1 43.7289 15.2318 -52.104 0 3.07611 2 0 4.53999e-06 -0.817237
4592 1 44.6088 14.9813 -52.3642 0 3.21881 2 0 4.53999e-06 0.466907
4414 1 45.1069 14.7243 -53.0813 0 3.43215 2 0 4.53999e-06 0.999795
6181 1 44.1525 12.7088 -51.6769 0 2.81711 2 0 4.53999e-06 -0.290364
9173 1 43.914 13.9214 -51.0158 0 2.98773 2 0 4.53999e-06 -0.884317
8545 1 44.619 13.8868 -51.5302 0 3.06912 2 0 4.53999e-06 0.128814
1146 1 44.6111 13.4619 -50.6973 0 3.0021 2 0 4.53999e-06 0.0853727
1012 1 45.3658 13.9316 -51.0157 0 3.26602 2 0 4.53999e-06 0.862006
9424 1 44.1534 14.5448 -51.6753 0 3.07868 2 0 4.53999e-06 -0.963181
3690 1 44.5119 15.4345 -51.5378 0 3.08633 2 0 4.53999e-06 0.0502251
8058 1 43.9438 14.9319 -50.8904 0 3.01438 2 0 4.53999e-06 -0.808024
3924 1 44.8267 15.1698 -50.644 0 3.06705 2 0 4.53999e-06 0.286594
9179 1 44.5519 14.3618 -50.7888 0 3.04242 1 0 4.53999e-06 -0.434259
8445 1 44.9602 14.6746 -51.452 0 3.25092 2 0 4.53999e-06 0.819615
1927 1 45.051 14.4014 -50.251 0 3.04401 1 0 4.53999e-06 0.977163
3335 1 45.6881 14.8235 -50.8736 0 3.36095 2 0 4.53999e-06 0.921007
7473 1 43.8616 13.1491 -50.1662 0 2.88578 2 0 4.53999e-06 -0.573884
8216 1 43.9139 14.2291 -50.1654 0 2.95756 1 0 4.53999e-06 -0.993477
2550 1 44.5417 13.9353 -49.9646 0 2.98063 1 0 4.53999e-06 -0.0464806
8845 1 43.8541 13.6594 -49.2758 0 2.87959 2 0 4.53999e-06 -0.755873
6587 1 44.6906 13.4011 -49.2927 0 2.9228 2 0 4.53999e-06 0.238771
9325 1 44.097 14.1354 -48.538 0 2.86607 1 0 4.53999e-06 -0.788125
1309 1 45.3202 13.5299 -50.1053 0 3.218 2 0 4.53999e-06 0.735063
4677 1 45.3237 14.1273 -49.382 0 3.15175 2 0 4.53999e-06 0.96943
1698 1 44.9414 13.8885 -48.5741 0 2.90357 1 0 4.53999e-06 0.82263
4517 1 44.2781 14.9215 -49.9716 0 2.97588 1 0 4.53999e-06 -0.442463
8745 1 43.8463 14.5347 -49.2253 0 2.90919 1 0 4.53999e-06 -0.982152
3516 1 44.5093 14.3408 -49.3378 0 2.94714 1 0 4.53999e-06 0.572517
3639 1 44.535 15.3348 -49.0071 0 2.96476 2 0 4.53999e-06 0.212939
8996 1 43.7002 15.317 -49.1372 0 2.90635 2 0 4.53999e-06 -0.690425
3971 1 45.0211 14.9227 -49.6 0 3.00361 1 0 4.53999e-06 0.710344
3515 1 44.9119 14.6912 -48.5875 0 2.95122 1 0 4.53999e-06 0.931263
5813 1 43.8631 12.9558 -47.4252 0 2.67053 2 0 4.54e-06 -0.583338
8552 1 44.3774 13.3801 -48.1723 0 2.7981 2 0 4.53999e-06 0.00464527
8266 1 43.7149 13.8293 -47.8054 0 2.77186 2 0 4.53999e-06 -0.869296