ITEM: TIMESTEP
5500
ITEM: NUMBER OF ATOMS
9495
ITEM: BOX BOUNDS mm mm mm
0.0000000000000000e+00 3.1748021039364001e+01
0.0000000000000000e+00 3.1748021039364001e+01
-7.4072398406925706e-04 3.1748021039364001e+01
ITEM: ATOMS id type x y z c_phase c_temp c_surf c_nbond c_visc f_3[1]
1 1 0.116341 1.10259 0.464337 4 4.21947e-25 2 0 0.0994487 -0.681941
2 1 0.974108 1.6685 0.77798 4 7.23607e-24 2 0 0.0994487 -0.517032
3 1 0.714648 0.793562 1.41295 4 1.42405e-24 2 0 0.0994487 -0.281794
4 1 0.00336375 1.60273 1.37437 4 5.83687e-25 2 0 0.0994487 -0.804051
5 1 0.729896 0.0633724 0.61602 4 5.58862e-25 3 0 0.0994487 -0.190374
6 1 1.71015 0.808983 1.0155 4 1.94641e-23 2 0 0.0994487 -0.33207
7 1 1.80059 1.47468 0.221075 4 3.32577e-23 2 0 0.0994487 -0.125829
8 1 1.82015 1.66049 1.76126 4 4.72723e-23 2 0 0.0994487 -0.139533
9 1 2.52093 0.749102 0.203812 4 9.65782e-23 2 0 0.0994487 -0.14294
10 1 2.59149 0.0538711 1.03726 4 6.34692e-23 2 0 0.0994487 -0.295005
11 1 2.64922 1.541 0.882848 4 4.15779e-22 2 0 0.0994487 0.235752
12 1 2.66829 0.815502 1.7457 4 1.58621e-22 2 0 0.0994487 -0.187041
13 1 3.43386 0.933692 0.956349 4 1.56051e-21 2 0 0.0994487 0.320239
14 1 3.49924 0.0925696 1.70571 4 4.68546e-22 2 0 0.0994487 0.178053
15 1 3.60652 1.70798 1.71994 4 4.06027e-21 2 0 0.0994487 0.0487942
16 1 4.10576 0.858321 0.325305 4 6.13242e-21 2 0 0.0994487 0.153145
17 1 4.96159 0.56786 1.17466 4 3.96128e-20 2 0 0.0994487 -0.0370686
18 1 4.91949 1.59987 0.383508 4 1.0613e-19 2 0 0.0994487 -0.100249
19 1 4.3472 0.941527 1.62884 4 1.14387e-20 2 0 0.0994487 0.110737
20 1 3.47612 0.111428 0.171027 4 3.92034e-22 2 0 0.0994487 0.166215
21 1 5.64741 0.645627 0.325839 4 1.91213e-19 2 0 0.0994487 -0.0806059
22 1 5.88414 1.31048 0.938036 4 8.40335e-19 2 0 0.0994487 -0.199594
23 1 6.57478 1.39104 0.218369 4 3.78515e-18 2 0 0.0994487 -0.0861349
24 1 5.78374 0.460658 1.69897 4 1.84794e-19 2 0 0.0994487 -0.0846536
25 1 5.03122 1.72414 1.43602 4 1.52838e-19 2 0 0.0994487 0.0453703
26 1 6.7138 0.39031 0.865278 4 1.79831e-18 2 0 0.0994487 -0.0793832
27 1 6.69104 1.00962 1.69374 4 2.82714e-18 2 0 0.0994487 -0.107925
28 1 8.2679 0.408875 1.07337 4 5.16977e-17 2 0 0.0994487 -0.100168
29 1 7.36782 1.22285 0.954198 4 2.13781e-17 2 0 0.0994487 -0.302561
30 1 8.24709 1.39092 0.236779 4 1.42993e-16 2 0 0.0994487 -0.046066
31 1 8.12868 1.27217 1.60653 4 1.02941e-16 2 0 0.0994487 -0.00811874
32 1 7.58247 0.647807 0.140287 4 1.27625e-17 2 0 0.0994487 -0.110937
33 1 8.85849 0.508506 0.273966 4 1.60096e-16 2 0 0.0994487 -0.0616477
34 1 9.55301 0.3386 0.888639 4 6.63758e-16 2 0 0.0994487 0.00506185
35 1 9.02586 1.30716 1.1133 4 8.32839e-16 2 0 0.0994487 -0.0606519
37 1 9.63995 1.37474 0.0900752 4 1.90308e-15 2 0 0.0994487 0.0992899
38 1 11.2128 0.215893 0.632658 4 1.53284e-14 2 0 0.0994487 0.203501
39 1 10.3637 1.04743 0.823114 4 9.10834e-15 2 0 0.0994487 0.539881
40 1 10.523 0.196295 1.44539 4 3.61563e-15 2 0 0.0994487 0.064427
41 1 11.2856 1.01846 1.41785 4 5.59459e-14 2 0 0.0994487 0.164703
42 1 10.5797 1.67706 1.72992 4 2.76232e-14 2 0 0.0994487 0.118162
43 1 10.2431 0.367861 0.0780499 4 1.5984e-15 2 0 0.0994487 0.1498
44 1 12.8757 0.211714 0.636805 4 3.72127e-13 2 0 0.0994487 0.0587854
45 1 12.0457 1.07408 0.506655 4 2.87696e-13 2 0 0.0994487 -0.0235543
46 1 12.1319 0.316439 1.29957 4 1.109e-13 2 0 0.0994487 0.0188337
47 1 12.7194 1.19864 1.3723 4 1.21668e-12 2 0 0.0994487 -0.030532
48 1 14.3729 0.318493 0.764646 4 6.03637e-12 2 0 0.0994487 -0.0460401
49 1 13.5924 1.113 0.843618 4 5.81171e-12 2 0 0.0994487 -0.263059
50 1 14.0399 1.55958 0.167469 4 1.92973e-11 2 0 0.0994487 -0.0898269
51 1 13.6075 0.359834 1.6352 4 1.44503e-12 2 0 0.0994487 -0.0562653
52 1 14.3777 1.14948 1.47647 4 2.01031e-11 2 0 0.0994487 -0.0178302
53 1 14.8761 1.55337 0.662943 4 9.41901e-11 2 0 0.0994487 0.389943
54 1 15.7061 0.770636 0.788259 4 1.05908e-10 2 0 0.0994487 0.36648
55 1 16.5532 1.54451 0.681338 4 1.39918e-09 2 0 0.0994487 0.00080144
56 1 15.1422 0.4642 1.64149 4 2.12494e-11 2 0 0.0994487 0.152076
57 1 16.547 0.712289 1.3421 4 3.53759e-10 2 0 0.0994487 0.0956236
58 1 15.6341 1.48544 1.3916 4 3.15153e-10 2 0 0.0994487 0.153628
59 1 15.1049 0.711806 0.0677822 4 2.09463e-11 2 0 0.0994487 0.169202
60 1 17.2544 0.732268 0.547589 4 7.91056e-10 2 0 0.0994487 0.0286281
61 1 17.9231 1.58109 0.757246 4 9.84e-09 2 0 0.0994487 0.0415605
62 1 17.916 0.742935 1.42801 4 2.16943e-09 2 0 0.0994487 -0.224379
63 1 17.2202 1.74884 1.56274 4 5.2989e-09 2 0 0.0994487 -0.0984859
64 1 19.5372 0.0167772 0.662766 4 2.49309e-09 2 0 0.0994487 0.0436434
65 1 18.7918 0.725074 0.684829 4 5.09013e-09 2 0 0.0994487 -0.269946
66 1 19.5395 1.55488 0.841653 4 5.14524e-08 2 0 0.0994487 -0.341162
67 1 19.0276 0.158607 1.54508 4 2.13466e-09 2 0 0.0994487 -0.158665
68 1 19.5934 0.967491 1.68957 4 1.52849e-08 2 0 0.0994487 0.00835024
69 1 18.6564 1.51302 1.50035 4 1.95794e-08 2 0 0.0994487 -0.250309
70 1 21.0889 0.349843 1.06749 4 1.38964e-08 2 0 0.0994487 -0.196127
71 1 20.2493 0.776373 0.980057 4 2.0122e-08 2 0 0.0994487 -0.0497621
72 1 21.1062 1.65725 0.951506 4 1.8565e-07 2 0 0.0994487 0.692914
73 1 21.1874 0.765598 0.218806 4 2.48941e-08 2 0 0.0994487 -0.044591
74 1 20.3457 1.51479 0.193617 4 6.95886e-08 2 0 0.0994487 -0.0806026
75 1 22.0087 0.262534 0.539755 4 1.43229e-08 2 0 0.0994487 0.0993591
76 1 22.7913 0.430275 1.40734 4 2.41109e-08 2 0 0.0994487 0.206599
77 1 22.1105 1.14763 1.32981 4 9.31628e-08 2 0 0.0994487 0.240023
78 1 21.9982 1.59955 0.538558 4 2.27454e-07 2 0 0.0994487 0.185172
79 1 22.9157 1.07463 0.445168 4 8.14705e-08 2 0 0.0994487 0.0520842
80 1 24.228 0.380179 1.45209 4 2.06459e-08 2 0 0.0994487 0.0576164
81 1 23.5672 0.357563 0.57369 4 2.07887e-08 2 0 0.0994487 0.0385706
82 1 24.4367 1.18687 0.754729 4 1.05075e-07 2 0 0.0994487 -0.0192969
83 1 23.4757 1.2499 1.4028 4 1.37236e-07 2 0 0.0994487 0.0298769
84 1 24.955 0.315686 0.551996 4 1.42953e-08 2 0 0.0994487 -0.0171992
85 1 26.0085 0.383365 1.1715 4 1.02732e-08 2 0 0.0994487 -0.18586
86 1 25.169 1.12579 1.48087 4 7.04341e-08 2 0 0.0994487 0.0251045
87 1 25.9301 1.73476 1.35794 4 1.52758e-07 2 0 0.0994487 0.0345351
88 1 25.8917 0.929212 0.432102 4 2.83832e-08 2 0 0.0994487 -0.0954203
89 1 27.5736 1.28032 0.38906 4 1.11903e-08 2 0 0.0994487 0.0454488
90 1 27.6142 0.50928 0.874321 4 3.14712e-09 2 0 0.0994487 0.175387
91 1 26.7559 1.02809 1.26347 4 1.89448e-08 2 0 0.0994487 -0.236887
92 1 28.3748 0.337482 1.39813 4 9.38198e-10 2 0 0.0994487 0.0098439
93 1 26.7925 0.240345 0.226621 4 3.1469e-09 2 0 0.0994487 0.0380745
94 1 28.6489 1.24263 0.742341 4 3.3602e-09 2 0 0.0994487 0.102405
95 1 29.3912 0.945639 1.56878 4 6.76996e-10 2 0 0.0994487 -0.0192011
96 1 28.5228 1.71921 1.49749 4 8.05091e-09 2 0 0.0994487 -0.0429815
97 1 29.8133 0.173958 1.46124 4 1.04616e-10 2 0 0.0994487 0.133416
98 1 29.2734 0.3547 0.615275 4 2.94698e-10 2 0 0.0994487 -0.0816815
99 1 31.5874 0.266128 1.25663 4 7.77852e-12 3 0 0.0994487 0.830097
100 1 30.7016 0.49015 0.470738 4 4.51642e-11 2 0 0.0994487 0.354852
101 1 30.1009 1.19877 0.774133 4 4.05537e-10 2 0 0.0994487 0.210919
102 1 30.8649 0.971942 1.39386 4 8.71656e-11 2 0 0.0994487 0.703281
103 1 1.11081 2.43607 0.129285 4 1.38099e-23 2 0 0.0994487 -0.0373225
104 1 0.133403 2.3821 0.812241 4 1.82719e-24 2 0 0.0994487 -0.984517
105 1 1.28845 3.23764 0.949187 4 7.6266e-23 2 0 0.0994487 0.222089
106 1 1.13977 2.36077 1.59162 4 2.0233e-23 2 0 0.0994487 -0.22219
107 1 0.386685 3.02999 1.54944 4 5.94086e-24 2 0 0.0994487 -0.671256
108 1 0.332248 3.09582 0.131296 4 3.86611e-24 2 0 0.0994487 -0.59134
109 1 1.90972 2.41867 0.78376 4 1.52356e-22 2 0 0.0994487 0.0782075
110 1 2.65852 3.28029 0.860875 4 2.47478e-21 2 0 0.0994487 0.0668024
111 1 2.66931 2.22918 1.53373 4 7.99295e-22 2 0 0.0994487 0.0829542
112 1 3.2579 3.42668 1.64938 4 1.05582e-20 2 0 0.0994487 0.0039741
113 1 2.7261 2.38168 0.0557193 4 6.24428e-22 2 0 0.0994487 0.1466
114 1 3.38195 2.55413 0.779289 4 6.97667e-21 2 0 0.0994487 0.211582
115 1 4.00679 1.841 0.711184 4 1.63286e-20 2 0 0.0994487 -0.0361254
116 1 4.91383 2.57277 0.815661 4 3.22302e-19 2 0 0.0994487 -0.259353
117 1 4.20148 3.3175 0.749446 4 1.13283e-19 2 0 0.0994487 0.00621401
118 1 4.13245 2.64107 1.58328 4 4.31822e-20 2 0 0.0994487 0.0270764
119 1 5.65047 2.44269 0.132743 4 1.21694e-18 2 0 0.0994487 -0.189926
120 1 6.55776 2.18062 0.772597 4 1.03345e-17 2 0 0.0994487 -0.289396
121 1 5.64874 3.19593 0.952489 4 3.40535e-18 2 0 0.0994487 -0.75464
122 1 5.861 2.19426 1.49672 4 1.80298e-18 2 0 0.0994487 0.0126342
123 1 6.52037 3.06691 1.5557 4 2.05201e-17 2 0 0.0994487 0.0443561
124 1 6.65033 2.92778 0.134227 4 1.98746e-17 2 0 0.0994487 0.0288856
125 1 7.45405 2.22586 0.139832 4 6.81262e-17 2 0 0.0994487 -0.053504
126 1 8.08209 2.20208 0.930382 4 3.37246e-16 2 0 0.0994487 -0.302088
127 1 7.40132 3.06835 0.934051 4 1.93663e-16 2 0 0.0994487 -0.0455422
128 1 7.29928 2.06035 1.56856 4 4.27101e-17 2 0 0.0994487 -0.0607343
129 1 8.18545 3.00183 1.65211 4 8.64631e-16 2 0 0.0994487 -0.0454174
130 1 8.26934 2.9712 0.0392146 4 8.85343e-16 2 0 0.0994487 -0.150618
131 1 8.90393 2.08699 0.252387 4 1.32729e-15 2 0 0.0994487 0.00243109
132 1 9.77243 2.0246 1.10996 4 1.01541e-14 2 0 0.0994487 0.173455
133 1 8.92671 2.97262 0.928693 4 5.33167e-15 2 0 0.0994487 -0.156775
134 1 9.03062 2.22066 1.70398 4 2.26319e-15 2 0 0.0994487 -0.0819696
135 1 9.56096 2.90576 0.21312 4 1.4118e-14 2 0 0.0994487 0.173118
136 1 10.2834 2.1137 0.214297 4 2.05952e-14 2 0 0.0994487 0.337737
137 1 11.1583 1.82604 0.771092 4 1.3486e-13 2 0 0.0994487 0.260083
138 1 10.6214 2.80819 0.921535 4 1.60464e-13 2 0 0.0994487 0.54191
139 1 11.4444 2.82964 1.57484 4 8.28185e-13 2 0 0.0994487 0.0951957
140 1 12.6737 1.94118 0.593851 4 3.49147e-12 2 0 0.0994487 -0.283938
141 1 11.928 2.64099 0.742299 4 1.896e-12 2 0 0.0994487 -0.0386793
142 1 11.9239 1.9206 1.46509 4 7.03753e-13 2 0 0.0994487 0.0946492
143 1 12.8449 3.01766 1.68597 4 1.61327e-11 2 0 0.0994487 0.0363533
144 1 13.1791 3.03035 0.848852 4 4.00512e-11 2 0 0.0994487 -0.440867
145 1 13.3784 1.9912 1.48064 4 1.25506e-11 2 0 0.0994487 -0.0150735
146 1 14.0206 2.44438 0.927124 4 8.76755e-11 2 0 0.0994487 -0.133118
147 1 14.0279 3.38359 1.55716 4 2.72929e-10 2 0 0.0994487 0.0255709
148 1 14.6961 3.43698 0.884932 4 1.13367e-09 2 0 0.0994487 -0.332989
149 1 14.7823 2.29758 1.44821 4 2.53243e-10 2 0 0.0994487 0.0469242
150 1 14.8418 2.51505 0.136557 4 2.99532e-10 2 0 0.0994487 0.173003
151 1 14.1591 3.2262 0.0325348 4 2.40152e-10 2 0 0.0994487 -0.246107
152 1 13.4137 2.29398 0.0590902 4 1.81624e-11 2 0 0.0994487 -0.280964
153 1 15.6993 2.44373 0.692668 4 1.49075e-09 2 0 0.0994487 0.364386
154 1 16.3029 3.20095 0.662084 4 1.25313e-08 2 0 0.0994487 0.328583
155 1 16.308 2.47951 1.52575 4 4.53662e-09 2 0 0.0994487 -0.10065
156 1 15.3694 3.25723 1.50191 4 2.83502e-09 2 0 0.0994487 -0.00767243
157 1 15.5706 3.25854 0.0192499 4 2.36404e-09 2 0 0.0994487 0.290236
158 1 17.0646 2.35032 0.682778 4 1.15297e-08 2 0 0.0994487 0.0234778
159 1 17.944 2.92608 0.699539 4 1.03045e-07 2 0 0.0994487 -0.231193
160 1 18.0193 2.43917 1.58112 4 4.91601e-08 2 0 0.0994487 -0.149137
161 1 17.0918 3.1162 1.49491 4 4.1513e-08 2 0 0.0994487 -0.143438
162 1 18.8908 2.35742 1.01358 4 1.23552e-07 2 0 0.0994487 -0.516831
163 1 19.7027 3.2427 1.27782 4 1.29598e-06 2 0 0.0994487 0.39488
164 1 18.884 2.99607 0.196019 4 2.87226e-07 2 0 0.0994487 -0.17181
165 1 19.587 2.34239 0.101452 4 1.70615e-07 2 0 0.0994487 -0.13237
166 1 20.3251 1.78863 1.72442 4 1.16679e-07 2 0 0.0994487 0.0449527
167 1 21.1565 2.41663 0.458355 4 7.74399e-07 2 0 0.0994487 0.196188
168 1 20.1948 2.46882 1.11433 4 4.89153e-07 2 0 0.0994487 0.286742
169 1 21.31 3.29463 1.39314 4 5.14026e-06 2 0 0.0994487 0.0777299
170 1 20.4222 2.99313 0.334941 4 1.28463e-06 2 0 0.0994487 0.18629
171 1 22.8719 2.07007 1.50872 4 7.15993e-07 2 0 0.0994487 -0.0221235
172 1 22.9717 2.60199 0.735523 4 2.40006e-06 2 0 0.0994487 0.133327
173 1 22.0961 2.49917 1.23787 4 1.58721e-06 2 0 0.0994487 0.186439
174 1 21.9898 3.20043 0.598797 4 5.84944e-06 2 0 0.0994487 -0.0757489
175 1 22.6771 3.40124 0.07601 4 7.51193e-06 2 0 0.0994487 0.0760739
176 1 23.7438 1.80844 0.624025 4 4.11772e-07 2 0 0.0994487 -0.0873594
177 1 24.4289 1.98763 1.61102 4 5.10181e-07 2 0 0.0994487 -0.0641758
178 1 24.342 2.68296 0.775192 4 2.27092e-06 2 0 0.0994487 -0.341092
179 1 23.6887 2.90303 1.53628 4 3.79853e-06 2 0 0.0994487 -0.110504
180 1 24.4728 3.51078 1.55704 4 1.04398e-05 2 0 0.0994487 -0.118305
181 1 24.9562 2.84566 0.0146836 4 1.54093e-06 2 0 0.0994487 -0.0864596
182 1 26.5483 1.79415 0.511367 4 9.26989e-08 2 0 0.0994487 -0.00560089
183 1 25.1322 1.85613 0.509414 4 2.92868e-07 2 0 0.0994487 -0.0215295
184 1 25.7918 2.61203 0.707489 4 9.19594e-07 2 0 0.0994487 0.228201
185 1 25.1579 2.55548 1.52547 4 1.19971e-06 2 0 0.0994487 0.0576665
186 1 25.7213 3.49812 1.51211 4 4.88176e-06 2 0 0.0994487 0.123857
187 1 26.5364 2.56002 1.53049 4 3.9949e-07 2 0 0.0994487 0.0579468
188 1 26.1686 3.50068 0.599043 4 3.17752e-06 2 0 0.0994487 0.168844
189 1 27.5039 1.98546 1.23792 4 5.04495e-08 2 0 0.0994487 -0.18642
190 1 28.2489 2.09022 0.343734 4 2.02061e-08 2 0 0.0994487 -0.0177253
191 1 27.0867 2.6924 0.645359 4 2.86842e-07 2 0 0.0994487 -0.105602
192 1 27.1998 3.35397 1.41682 4 7.71323e-07 2 0 0.0994487 -0.0983297
193 1 28.2537 2.75799 1.20639 4 7.2129e-08 2 0 0.0994487 -0.418308
194 1 27.982 3.21993 0.326384 4 1.80154e-07 2 0 0.0994487 -0.125258
195 1 29.9568 1.80906 1.70764 4 1.16273e-09 2 0 0.0994487 0.183201
196 1 29.4477 2.04702 0.879698 4 4.30845e-09 2 0 0.0994487 -0.00708514
197 1 29.1956 2.6589 0.290703 4 1.2998e-08 2 0 0.0994487 -0.0578289
198 1 29.2495 3.2651 1.17365 4 3.63178e-08 2 0 0.0994487 0.118632
199 1 30.9114 1.98502 0.924207 4 4.10023e-10 2 0 0.0994487 0.967251
200 1 30.1815 2.71094 1.00186 4 3.66903e-09 2 0 0.0994487 0.67511
201 1 31.0247 3.35309 0.97101 4 2.13968e-09 2 0 0.0994487 0.998409
202 1 30.9865 2.69483 1.72648 4 7.62736e-10 2 0 0.0994487 0.578501
203 1 30.1092 3.25953 0.132205 4 5.85961e-09 2 0 0.0994487 -0.0443661
204 1 30.4116 1.90909 0.0255368 4 5.38057e-10 2 0 0.0994487 0.106045
205 1 31.1434 2.66402 0.0761253 4 4.94721e-10 2 0 0.0994487 0.70882
206 1 0.293831 3.78503 0.918557 4 1.02407e-23 2 0 0.0994487 -0.999347
207 1 0.143046 4.59443 0.482118 4 1.21282e-23 2 0 0.0994487 -0.784494
208 1 1.14036 4.67093 0.986638 4 1.84414e-22 2 0 0.0994487 -0.516753
209 1 0.0884667 5.26681 1.27761 4 1.70288e-23 2 0 0.0994487 -0.887458
210 1 1.04069 3.86421 0.0595682 4 5.09523e-23 2 0 0.0994487 0.0148878
211 1 1.84117 4.04604 0.847105 4 6.53904e-22 2 0 0.0994487 0.00826637
212 1 2.54049 4.85585 1.13748 4 7.36342e-21 2 0 0.0994487 -0.333848
213 1 2.64953 4.14475 0.20674 4 4.49101e-21 2 0 0.0994487 -0.0285726
214 1 1.89758 4.96895 0.278386 4 1.39163e-21 2 0 0.0994487 -0.153434
215 1 3.40771 4.86189 0.161635 4 5.12239e-20 2 0 0.0994487 -0.0163888
216 1 3.494 4.07675 0.885909 4 4.0912e-20 2 0 0.0994487 0.0268902
217 1 4.91235 4.00001 1.18344 4 1.24649e-18 2 0 0.0994487 0.0115047
218 1 4.04658 4.88002 1.14639 4 3.27127e-19 2 0 0.0994487 0.264487
219 1 4.26027 4.18509 0.149001 4 2.20301e-19 2 0 0.0994487 0.0377374
220 1 5.00947 4.74001 0.341082 4 2.46467e-18 2 0 0.0994487 0.0765385
221 1 5.77735 3.9378 0.198707 4 6.47673e-18 2 0 0.0994487 0.0260147
222 1 6.48883 3.76611 0.772067 4 4.27364e-17 2 0 0.0994487 0.20455
223 1 5.68025 4.73638 1.02487 4 1.57828e-17 2 0 0.0994487 -0.621704
224 1 6.66321 4.5115 1.6428 4 1.07792e-16 2 0 0.0994487 0.158932
225 1 6.68072 5.1315 0.885352 4 2.40084e-16 2 0 0.0994487 0.206849
226 1 8.1982 3.892 0.700757 4 2.7445e-15 2 0 0.0994487 -0.369905
227 1 7.40842 4.46072 0.5468 4 6.90008e-16 2 0 0.0994487 -0.025215
228 1 7.39886 3.87029 1.49684 4 3.73869e-16 2 0 0.0994487 0.102575
229 1 8.20004 4.61106 1.48677 4 4.98953e-15 2 0 0.0994487 -0.01184
230 1 9.8976 3.57792 0.885667 4 8.71158e-14 2 0 0.0994487 0.592758
231 1 9.07913 4.56551 0.821335 4 3.76539e-14 2 0 0.0994487 -0.65855
232 1 9.86266 4.50302 0.126324 4 1.4238e-13 2 0 0.0994487 0.0958633
233 1 9.07829 3.76256 1.49819 4 1.6346e-14 2 0 0.0994487 -0.0708881
234 1 9.86881 4.3462 1.65532 4 1.61919e-13 2 0 0.0994487 -0.0856651
235 1 8.98541 3.86821 0.0631775 4 1.12815e-14 2 0 0.0994487 -0.138755
236 1 11.408 3.64493 0.778297 4 2.30984e-12 2 0 0.0994487 0.20206
237 1 10.5891 4.66652 0.906264 4 1.22376e-12 2 0 0.0994487 0.0450558
238 1 11.3867 4.69403 0.230734 4 5.80715e-12 2 0 0.0994487 -0.0498935
239 1 10.7059 3.56689 1.58785 4 4.44681e-13 2 0 0.0994487 -0.0448531
240 1 11.3652 4.3716 1.70545 4 4.03395e-12 2 0 0.0994487 -0.0798317
241 1 11.3894 5.27213 0.983682 4 1.21423e-11 2 0 0.0994487 -0.674494
242 1 10.5826 3.84888 0.176129 4 3.81366e-13 2 0 0.0994487 0.210464
243 1 12.5168 3.57716 0.814749 4 2.10269e-11 2 0 0.0994487 -0.0105846
244 1 12.1916 4.55033 1.00021 4 3.24796e-11 2 0 0.0994487 0.105021
245 1 12.7362 4.99738 1.68903 4 1.20862e-10 2 0 0.0994487 0.191325
246 1 13.2258 4.67863 0.80017 4 3.03835e-10 2 0 0.0994487 -0.00471951
247 1 12.6435 4.61885 0.0632315 4 7.01081e-11 2 0 0.0994487 -0.0335838
248 1 13.9891 4.12825 0.69648 4 7.14879e-10 2 0 0.0994487 -0.430189
249 1 13.4832 4.21781 1.59317 4 2.56451e-10 2 0 0.0994487 0.0820126
250 1 14.2046 5.11838 1.52001 4 3.09823e-09 2 0 0.0994487 -0.0289975
251 1 14.9402 5.01141 0.811699 4 1.12445e-08 2 0 0.0994487 -0.0528455
252 1 14.9642 4.4167 1.59432 4 5.33413e-09 2 0 0.0994487 -0.0635663
253 1 14.1405 4.90647 0.0597868 4 1.73911e-09 2 0 0.0994487 -0.0856988
254 1 14.961 4.19423 0.096508 4 3.44448e-09 2 0 0.0994487 0.0322694
255 1 15.6685 4.06642 0.926277 4 1.42421e-08 2 0 0.0994487 0.872571
256 1 15.8798 4.77595 0.186426 4 3.79595e-08 2 0 0.0994487 0.165386
257 1 16.5936 4.58036 0.900182 4 1.36063e-07 2 0 0.0994487 -0.0790068
258 1 16.3184 3.95875 1.6903 4 3.5795e-08 2 0 0.0994487 -0.0434004
259 1 15.8111 5.05317 1.64084 4 4.90898e-08 2 0 0.0994487 0.0994959
260 1 17.2689 3.83372 0.811237 4 1.55572e-07 2 0 0.0994487 -0.34539
261 1 18.0864 4.48855 1.09806 4 1.3051e-06 2 0 0.0994487 -0.612178
262 1 17.9525 3.63794 1.65602 4 3.00031e-07 2 0 0.0994487 -0.192808
263 1 17.4569 4.57727 0.0147963 4 3.28593e-07 2 0 0.0994487 -0.0974111
264 1 18.1348 3.8547 0.0583493 4 3.74521e-07 2 0 0.0994487 -0.120518
265 1 18.8779 3.70667 0.95022 4 1.17085e-06 2 0 0.0994487 0.0692235
266 1 18.8235 4.60949 0.361826 4 3.49859e-06 2 0 0.0994487 0.115609
267 1 19.6906 4.67872 1.0803 4 1.53261e-05 2 0 0.0994487 0.931531
268 1 18.7859 5.27693 1.20102 4 1.06362e-05 2 0 0.0994487 0.599132
269 1 19.5987 3.76722 0.227421 4 2.23277e-06 2 0 0.0994487 0.164269
270 1 20.4384 3.82188 1.23329 4 7.5954e-06 2 0 0.0994487 0.325955
271 1 20.8846 4.71868 1.39403 4 5.91044e-05 2 0 0.0994487 0.14906
272 1 21.5775 4.95128 0.810455 4 0.000143121 2 0 0.0994487 -0.00374313
273 1 21.0824 3.93136 0.512408 4 1.40376e-05 2 0 0.0994487 0.0883044
274 1 20.1339 4.78559 0.352846 4 2.40846e-05 2 0 0.0994487 0.145587
275 1 22.8205 3.63186 1.42135 4 1.73169e-05 2 0 0.0994487 -0.018399
276 1 21.9406 4.13318 1.31068 4 3.81002e-05 2 0 0.0994487 0.0272061
277 1 22.4705 5.17735 1.27286 4 0.000353294 2 0 0.0994487 0.0207102
278 1 22.6119 4.34705 0.510028 4 6.30724e-05 2 0 0.0994487 -0.0221046
279 1 23.5735 3.63903 0.782677 4 1.89679e-05 2 0 0.0994487 0.185559
280 1 24.336 4.32055 0.625018 4 5.45496e-05 2 0 0.0994487 -0.150094
281 1 23.4679 4.54946 1.33355 4 0.000117536 2 0 0.0994487 -0.0790547
282 1 24.8518 5.25716 0.566763 4 0.000187417 2 0 0.0994487 0.0409055
283 1 23.5518 5.06386 0.533607 4 0.000249598 2 0 0.0994487 -0.0968879
284 1 25.0086 4.50055 1.62342 4 5.10757e-05 2 0 0.0994487 -0.0421957
285 1 25.0629 3.68037 0.802132 4 1.14981e-05 2 0 0.0994487 -0.187919
286 1 24.363 5.28843 1.43377 4 0.000354823 2 0 0.0994487 -0.154711
287 1 25.6904 5.1389 1.34266 4 8.69728e-05 2 0 0.0994487 0.210098
288 1 26.3575 4.29031 1.37159 4 1.05629e-05 2 0 0.0994487 0.14948
289 1 26.5026 4.97257 0.640732 4 2.3584e-05 2 0 0.0994487 0.0989649
290 1 25.5284 4.40089 0.388179 4 2.41156e-05 2 0 0.0994487 0.0559468
291 1 27.3302 4.86961 1.40568 4 7.02568e-06 2 0 0.0994487 0.00660796
292 1 27.9624 3.97641 1.10408 4 7.70113e-07 2 0 0.0994487 -0.309508
293 1 28.2771 4.73475 0.706344 4 1.35189e-06 2 0 0.0994487 -0.0812496
294 1 27.0674 4.04323 0.570038 4 2.69528e-06 2 0 0.0994487 0.0120208
295 1 28.9321 3.77016 0.487204 4 1.13486e-07 2 0 0.0994487 -0.00703368
296 1 29.0873 4.52317 1.33085 4 2.72887e-07 2 0 0.0994487 0.0574842
297 1 29.9979 4.07209 1.02303 4 3.14403e-08 2 0 0.0994487 -0.275234
298 1 31.0296 3.97382 0.373364 4 3.87331e-09 2 0 0.0994487 0.657583
299 1 30.2046 4.67765 0.491317 4 4.39483e-08 2 0 0.0994487 0.00995757
300 1 30.9783 4.59929 1.41131 4 9.39713e-09 2 0 0.0994487 0.679914
301 1 0.908283 5.53205 0.461647 4 1.77791e-22 2 0 0.0994487 -0.463785
302 1 1.53161 5.51184 1.37971 4 8.22952e-22 2 0 0.0994487 -0.117387
303 1 0.793684 6.22023 1.2768 4 2.0154e-22 2 0 0.0994487 -0.703381
304 1 0.257003 6.91734 1.50738 4 6.84213e-23 2 0 0.0994487 -0.772633
305 1 0.969942 6.9454 0.573423 4 5.39955e-22 2 0 0.0994487 -0.473533
306 1 1.7053 7.02884 1.23811 4 3.62761e-21 2 0 0.0994487 0.0665174
307 1 1.89588 6.19966 0.519025 4 3.84363e-21 2 0 0.0994487 -0.156401
308 1 3.10475 5.61709 1.30057 4 5.40028e-20 2 0 0.0994487 0.0402516
309 1 2.26359 6.15348 1.40977 4 8.13211e-21 2 0 0.0994487 0.0408555
310 1 3.25442 6.96226 1.12748 4 2.21153e-19 2 0 0.0994487 -0.0541247
311 1 2.68177 5.61289 0.273587 4 1.70257e-20 2 0 0.0994487 -0.0596863
312 1 3.39503 6.28191 0.500536 4 1.94355e-19 2 0 0.0994487 -0.121446
313 1 4.18979 5.46246 0.325783 4 6.5337e-19 2 0 0.0994487 0.0310165
314 1 4.93434 5.42873 1.31778 4 4.7945e-18 2 0 0.0994487 -0.235102
315 1 4.13622 6.09659 1.22779 4 1.18553e-18 2 0 0.0994487 -0.0893902
316 1 4.82567 6.23357 0.333842 4 5.68329e-18 2 0 0.0994487 -0.0345771
317 1 4.77312 6.79931 1.15967 4 1.03104e-17 2 0 0.0994487 -0.305932
318 1 4.00267 7.02511 0.221759 4 1.2448e-18 2 0 0.0994487 -0.0853448
319 1 5.78575 5.42185 0.301847 4 2.85966e-17 2 0 0.0994487 0.0125009
320 1 5.6935 6.24342 0.9632 4 5.7871e-17 2 0 0.0994487 -0.967785
321 1 6.4578 5.98425 1.59671 4 2.62236e-16 2 0 0.0994487 0.140913
322 1 6.43234 6.86927 1.00965 4 5.93212e-16 2 0 0.0994487 0.851675
323 1 6.37773 6.04115 0.154639 4 1.54873e-16 2 0 0.0994487 0.111111
324 1 5.54993 7.05206 0.147147 4 4.85855e-17 2 0 0.0994487 0.0363855
325 1 8.21355 5.31419 0.694273 4 1.01949e-14 2 0 0.0994487 -0.0895992
326 1 7.32761 6.15925 0.754293 4 2.57843e-15 2 0 0.0994487 0.225728
327 1 7.39163 5.41839 1.49138 4 1.55045e-15 2 0 0.0994487 0.136751
328 1 8.23884 6.11028 1.49159 4 2.12524e-14 2 0 0.0994487 0.0187339
329 1 8.01352 6.85364 0.728993 4 2.26014e-14 2 0 0.0994487 0.0691829
330 1 7.28191 6.86379 1.59601 4 4.06377e-15 2 1 0.0994487 0.126055
331 1 7.33029 5.3575 0.0461812 4 8.51231e-16 2 0 0.0994487 0.0813555
332 1 9.76796 5.3194 0.792562 4 3.44948e-13 2 0 0.0994487 0.328435
333 1 8.88016 6.18865 0.736908 4 1.00787e-13 2 0 0.0994487 -0.235549
334 1 9.05434 5.3271 1.5973 4 6.74808e-14 2 0 0.0994487 -0.0628337
335 1 9.73844 6.19052 1.46731 4 7.02639e-13 2 0 0.0994487 -0.106455
336 1 9.09351 6.95013 1.463 4 3.46753e-13 2 2 0.0994487 -0.0758961
337 1 9.76329 6.23201 0.0941385 4 5.19011e-13 2 0 0.0994487 -0.0359541
338 1 8.99733 5.46479 0.012702 4 4.13592e-14 2 0 0.0994487 -0.134755
339 1 10.5831 6.02196 0.964384 4 4.10327e-12 2 0 0.0994487 -0.356439
340 1 11.3128 6.37134 0.0776634 4 1.42506e-11 2 0 0.0994487 0.100338
341 1 10.5187 6.94145 0.15452 4 4.38023e-12 2 0 0.0994487 -0.0735384
342 1 10.4686 6.92564 1.49614 4 7.076e-12 2 1 0.0994487 -0.0636307
343 1 11.9994 5.6274 0.183157 4 4.49136e-11 2 0 0.0994487 -0.0105354
344 1 12.6757 5.81849 0.861776 4 3.02867e-10 2 0 0.0994487 0.0817235
345 1 11.7774 6.20735 1.05291 4 6.27099e-11 2 0 0.0994487 0.292186
346 1 13.3219 5.86668 1.55471 4 1.06969e-09 2 0 0.0994487 0.20816
347 1 13.3506 6.58297 0.813679 4 2.35383e-09 2 0 0.0994487 -0.292136
348 1 13.3212 5.53867 0.0424813 4 6.38274e-10 2 0 0.0994487 -0.142916
349 1 14.0617 5.71565 0.77266 4 4.51681e-09 2 0 0.0994487 -0.372757
350 1 14.3278 6.65176 1.40646 4 2.09384e-08 2 1 0.0994487 -0.103208
351 1 14.1303 6.38483 0.0380077 4 5.83246e-09 2 0 0.0994487 -0.0826152
352 1 15.0282 5.64393 0.034369 4 1.80515e-08 2 0 0.0994487 0.0573584
353 1 15.8305 5.73813 0.95832 4 1.28247e-07 2 0 0.0994487 0.625763
354 1 15.0472 6.45091 0.806774 4 6.21327e-08 2 0 0.0994487 -0.176103
355 1 16.491 6.45257 1.1401 4 9.14672e-07 2 0 0.0994487 0.208267
356 1 15.1058 5.87594 1.69804 4 3.75426e-08 2 0 0.0994487 -0.0976645
357 1 16.62 5.41933 0.276819 4 2.83577e-07 2 0 0.0994487 0.079917
358 1 15.6753 6.3382 0.0390223 4 1.15734e-07 2 0 0.0994487 0.0398457
359 1 17.8271 5.30128 0.541411 4 2.11266e-06 2 0 0.0994487 0.150324
360 1 17.113 5.42499 1.24767 4 9.04397e-07 2 0 0.0994487 -0.286582
361 1 17.0619 6.27419 0.411469 4 1.6816e-06 2 0 0.0994487 0.138944
362 1 17.6649 6.24649 1.38542 4 5.42956e-06 2 0 0.0994487 -0.25424
363 1 18.2745 7.0517 1.13153 4 3.44662e-05 2 1 0.0994487 0.630487
364 1 18.3714 6.23173 0.609762 4 1.60888e-05 2 0 0.0994487 0.156179
365 1 19.429 5.75829 0.62055 4 4.72221e-05 2 0 0.0994487 0.0571875
366 1 19.3279 6.55755 1.35081 4 0.000135222 2 1 0.0994487 0.274718
367 1 19.9942 6.75229 0.610261 4 0.000342746 2 0 0.0994487 -0.0119047
368 1 20.7494 5.77593 0.653722 4 0.0002603 2 0 0.0994487 -0.104061
369 1 20.1931 5.61076 1.39557 4 0.000133478 2 0 0.0994487 0.312023
370 1 20.7787 6.6124 1.30355 4 0.00115622 2 1 0.0994487 -0.344592
371 1 21.6592 6.66248 0.666524 4 0.00188712 2 0 0.0994487 -0.0435012
372 1 21.6631 5.87866 1.38528 4 0.000903876 2 0 0.0994487 0.0420977
373 1 21.6904 5.73259 0.0517844 4 0.000308772 2 0 0.0994487 -0.00149966
374 1 22.6732 5.8279 0.674154 4 0.0009388 2 0 0.0994487 0.00266323
375 1 22.6319 6.69333 1.20734 4 0.00491237 2 1 0.0994487 -0.202171
376 1 23.3484 6.78052 0.267835 4 0.00264541 2 0 0.0994487 -0.12538
377 1 23.4822 5.88496 1.30013 4 0.0014842 2 0 0.0994487 -0.176406
378 1 24.3197 6.56281 1.15825 4 0.00252083 2 0 0.0994487 0.173526
379 1 24.1457 6.00685 0.427617 4 0.000853449 2 0 0.0994487 0.00243767
380 1 25.6831 5.86213 0.700952 4 0.000222445 2 0 0.0994487 0.163894
381 1 25.1124 6.04132 1.67733 4 0.000643842 2 0 0.0994487 0.00366719
382 1 25.1593 6.74159 0.495153 4 0.00102246 2 0 0.0994487 0.090389
383 1 25.8251 6.59457 1.40775 4 0.000554572 2 0 0.0994487 0.0880981
384 1 26.6903 5.84511 1.4763 4 6.92712e-05 2 0 0.0994487 0.0917592
385 1 27.4966 5.54334 0.722172 4 1.30852e-05 2 0 0.0994487 -0.251576
386 1 26.7485 6.36567 0.651888 4 0.000103489 2 0 0.0994487 0.0387473
387 1 27.7011 6.47315 1.36539 4 2.97605e-05 2 0 0.0994487 0.13149
388 1 28.3648 5.52203 1.4872 4 3.1459e-06 2 0 0.0994487 0.0456319
389 1 27.7097 7.0074 0.530173 4 4.05435e-05 2 0 0.0994487 0.0321202
390 1 29.3889 5.30889 0.818726 4 4.42655e-07 2 0 0.0994487 0.316722
391 1 29.4379 6.18214 1.32212 4 9.1983e-07 2 0 0.0994487 -0.00338237
392 1 29.5784 6.89773 0.506505 4 1.23256e-06 2 0 0.0994487 0.0925847
393 1 28.4685 6.20589 0.638647 4 5.40894e-06 2 0 0.0994487 -0.270085
394 1 29.3762 6.15398 0.0801838 4 7.17418e-07 2 0 0.0994487 0.0969256
395 1 28.4822 5.38976 0.0592959 4 1.41516e-06 2 0 0.0994487 -0.105004
396 1 30.9636 5.36838 0.595026 4 2.45087e-08 2 0 0.0994487 0.667849
397 1 30.2159 5.45949 1.46813 4 9.56109e-08 2 0 0.0994487 0.0540207
398 1 30.3958 6.18258 0.649752 4 1.54619e-07 2 0 0.0994487 0.328999
399 1 31.2189 6.15516 1.38439 4 2.74514e-08 2 0 0.0994487 0.587257
400 1 31.1994 6.95407 0.60342 4 5.55549e-08 2 0 0.0994487 0.812251
401 1 31.7235 5.99622 0.446564 4 9.13957e-09 2 0 0.0994487 0.879729
402 1 0.261851 7.63199 0.661866 4 1.225e-22 2 0 0.0994487 -0.876374
403 1 0.831025 8.46344 0.61936 4 7.61229e-22 2 0 0.0994487 -0.577626
404 1 1.11211 7.86396 1.49711 4 1.01821e-21 2 0 0.0994487 -0.154429
405 1 0.356955 8.5626 1.47035 4 1.96092e-22 2 0 0.0994487 -0.764984
406 1 1.59266 7.76478 0.37187 4 4.01171e-21 2 0 0.0994487 -0.0897882
407 1 1.72382 8.61735 1.46471 4 7.81158e-21 2 0 0.0994487 0.0395964
408 1 2.48799 7.14986 0.476331 4 3.29888e-20 2 0 0.0994487 -0.083697
409 1 2.19177 8.6335 0.399707 4 2.74465e-20 2 0 0.0994487 -0.137268
410 1 2.39416 7.81099 1.27726 4 3.6134e-20 2 0 0.0994487 0.0869914
411 1 3.01349 8.51445 0.935533 4 2.57417e-19 2 0 0.0994487 -0.539315
412 1 3.24418 7.77117 0.327041 4 2.97228e-19 2 0 0.0994487 -0.196206
413 1 3.81243 8.45898 0.0822892 4 1.32625e-18 2 0 0.0994487 -0.0457791
414 1 3.97971 7.67009 1.24863 4 2.17812e-18 2 0 0.0994487 -0.0554901
415 1 4.70459 8.25653 0.921772 4 1.87864e-17 2 0 0.0994487 0.295327
416 1 4.67023 7.63706 0.247803 4 9.5919e-18 2 0 0.0994487 0.0376907
417 1 3.81127 8.34851 1.76162 4 1.38702e-18 2 0 0.0994487 -0.0574364
418 1 5.86955 8.34822 0.169905 4 2.19924e-16 2 0 0.0994487 0.113104
419 1 5.48363 7.59071 1.03232 4 9.98936e-17 2 0 0.0994487 -0.467668
420 1 6.49365 7.53799 0.169175 4 6.93945e-16 2 0 0.0994487 0.187623
421 1 6.39674 8.23976 1.04384 4 1.40389e-15 2 0 0.0994487 0.338189
422 1 7.28583 7.76918 0.746313 4 7.91929e-15 2 1 0.0994487 0.00996139
423 1 8.2859 8.31376 0.868772 4 1.26985e-13 2 2 0.0994487 0.278608
424 1 7.27857 8.18368 1.7015 4 1.38636e-14 2 2 0.0994487 -0.174624
425 1 8.05208 7.48784 1.5604 4 4.70145e-14 2 1 0.0994487 0.185024
426 1 7.99895 7.60312 0.0282118 4 1.8664e-14 2 0 0.0994487 0.0674124
427 1 9.84313 7.22199 0.72344 4 1.99715e-12 2 1 0.0994487 -0.346967
428 1 8.91207 7.61626 0.661731 4 3.1688e-13 2 1 0.0994487 0.15861
429 1 9.73234 8.61964 0.693151 4 3.60596e-12 2 3 0.0994487 -0.257333
430 1 9.09265 8.69904 1.44495 4 1.31981e-12 2 9 0.0994487 -0.397937
431 1 9.64026 7.88932 1.60055 4 2.93804e-12 2 8 0.0994487 -0.34128
432 1 11.3161 7.14287 0.810636 4 4.79518e-11 2 1 0.0994487 0.44844
433 1 10.5731 7.9454 0.844311 4 1.70771e-11 2 3 0.0994487 -0.198496
434 1 10.5877 8.70196 1.4255 4 3.52377e-11 1 8 0.0994487 -0.144698
435 1 11.4057 7.80503 1.60301 4 1.25368e-10 2 7 0.0994487 0.229114
436 1 11.227 8.11851 0.0422735 4 3.68844e-11 2 0 0.0994487 0.174305
437 1 12.7061 7.28322 0.565784 4 9.69987e-10 2 0 0.0994487 -0.0530969