ITEM: TIMESTEP
13000
ITEM: NUMBER OF ATOMS
9495
ITEM: BOX BOUNDS mm mm mm
0.0000000000000000e+00 3.1748021039364001e+01
0.0000000000000000e+00 3.1748021039364001e+01
-7.4072398406925706e-04 3.1748021039364001e+01
ITEM: ATOMS id type x y z c_phase c_temp c_surf c_nbond c_visc f_3[1]
1 1 0.116341 1.10259 0.464337 4 1.27407e-11 2 0 0.0994487 -0.68194
2 1 0.974108 1.6685 0.77798 4 5.12351e-11 2 0 0.0994487 -0.517031
3 1 0.714648 0.793562 1.41295 4 2.1584e-11 2 0 0.0994487 -0.281794
4 1 0.00336375 1.60273 1.37437 4 1.62745e-11 2 0 0.0994487 -0.804051
5 1 0.729896 0.0633724 0.61602 4 1.16916e-11 3 0 0.0994487 -0.190374
6 1 1.71015 0.808983 1.0155 4 8.1653e-11 2 0 0.0994487 -0.332068
7 1 1.80059 1.47468 0.221075 4 1.05602e-10 2 0 0.0994487 -0.125829
8 1 1.82015 1.66049 1.76126 4 1.32123e-10 2 0 0.0994487 -0.139533
9 1 2.52093 0.749102 0.203812 4 1.69999e-10 2 0 0.0994487 -0.142939
10 1 2.59149 0.0538711 1.03726 4 1.45859e-10 2 0 0.0994487 -0.295004
11 1 2.64922 1.541 0.882848 4 3.66442e-10 2 0 0.0994487 0.235759
12 1 2.66829 0.815502 1.7457 4 2.30673e-10 2 0 0.0994487 -0.18704
13 1 3.43386 0.933692 0.956349 4 7.06058e-10 2 0 0.0994487 0.320245
14 1 3.49924 0.0925696 1.70571 4 3.67164e-10 2 0 0.0994487 0.178054
15 1 3.60652 1.70798 1.71994 4 1.2239e-09 2 0 0.0994487 0.048796
16 1 4.10576 0.858321 0.325305 4 1.45705e-09 2 0 0.0994487 0.153147
17 1 4.96159 0.56786 1.17466 4 3.98333e-09 2 0 0.0994487 -0.0370652
18 1 4.91949 1.59987 0.383508 4 6.41813e-09 2 0 0.0994487 -0.100246
19 1 4.3472 0.941527 1.62884 4 2.04108e-09 2 0 0.0994487 0.110739
20 1 3.47612 0.111428 0.171027 4 3.27821e-10 2 0 0.0994487 0.166216
21 1 5.64741 0.645627 0.325839 4 8.79985e-09 2 0 0.0994487 -0.0806035
22 1 5.88414 1.31048 0.938036 4 1.72145e-08 2 0 0.0994487 -0.199573
23 1 6.57478 1.39104 0.218369 4 3.69406e-08 2 0 0.0994487 -0.0861315
24 1 5.78374 0.460658 1.69897 4 8.57544e-09 2 0 0.0994487 -0.0846511
25 1 5.03122 1.72414 1.43602 4 7.5583e-09 2 0 0.0994487 0.0453742
26 1 6.7138 0.39031 0.865278 4 2.63595e-08 2 0 0.0994487 -0.07938
27 1 6.69104 1.00962 1.69374 4 3.13695e-08 2 0 0.0994487 -0.107921
28 1 8.2679 0.408875 1.07337 4 1.26374e-07 2 0 0.0994487 -0.100164
29 1 7.36782 1.22285 0.954198 4 8.17835e-08 2 0 0.0994487 -0.302539
30 1 8.24709 1.39092 0.236779 4 2.05653e-07 2 0 0.0994487 -0.0460613
31 1 8.12868 1.27217 1.60653 4 1.67509e-07 2 0 0.0994487 -0.00811411
32 1 7.58247 0.647807 0.140287 4 6.87621e-08 2 0 0.0994487 -0.110934
33 1 8.85849 0.508506 0.273966 4 2.19913e-07 2 0 0.0994487 -0.061644
34 1 9.55301 0.3386 0.888639 4 4.09516e-07 2 0 0.0994487 0.00506749
35 1 9.02586 1.30716 1.1133 4 4.42931e-07 2 0 0.0994487 -0.0606345
37 1 9.63995 1.37474 0.0900752 4 6.65364e-07 2 0 0.0994487 0.0992938
38 1 11.2128 0.215893 0.632658 4 1.75212e-06 2 0 0.0994487 0.203508
39 1 10.3637 1.04743 0.823114 4 1.27965e-06 2 0 0.0994487 0.539896
40 1 10.523 0.196295 1.44539 4 9.09649e-07 2 0 0.0994487 0.0644316
41 1 11.2856 1.01846 1.41785 4 3.1524e-06 2 0 0.0994487 0.164715
42 1 10.5797 1.67706 1.72992 4 2.3185e-06 2 0 0.0994487 0.118168
43 1 10.2431 0.367861 0.0780499 4 5.90701e-07 2 0 0.0994487 0.149803
44 1 12.8757 0.211714 0.636805 4 7.88388e-06 2 0 0.0994487 0.0587933
45 1 12.0457 1.07408 0.506655 4 6.699e-06 2 0 0.0994487 -0.0235442
46 1 12.1319 0.316439 1.29957 4 4.5962e-06 2 0 0.0994487 0.0188429
47 1 12.7194 1.19864 1.3723 4 1.28954e-05 2 0 0.0994487 -0.0305165
48 1 14.3729 0.318493 0.764646 4 2.71696e-05 2 0 0.0994487 -0.0460321
49 1 13.5924 1.113 0.843618 4 2.56156e-05 2 0 0.0994487 -0.263034
50 1 14.0399 1.55958 0.167469 4 4.43663e-05 2 0 0.0994487 -0.089819
51 1 13.6075 0.359834 1.6352 4 1.4662e-05 2 0 0.0994487 -0.0562578
52 1 14.3777 1.14948 1.47647 4 4.15084e-05 2 0 0.0994487 -0.0178181
53 1 14.8761 1.55337 0.662943 4 7.76743e-05 2 0 0.0994487 0.389968
54 1 15.7061 0.770636 0.788259 4 8.47178e-05 2 0 0.0994487 0.366498
55 1 16.5532 1.54451 0.681338 4 0.000253252 2 0 0.0994487 0.000828254
56 1 15.1422 0.4642 1.64149 4 4.45826e-05 2 0 0.0994487 0.152084
57 1 16.547 0.712289 1.3421 4 0.00015258 2 0 0.0994487 0.0956418
58 1 15.6341 1.48544 1.3916 4 0.000128792 2 0 0.0994487 0.153648
59 1 15.1049 0.711806 0.0677822 4 4.37131e-05 2 0 0.0994487 0.169207
60 1 17.2544 0.732268 0.547589 4 0.000222164 2 0 0.0994487 0.0286424
61 1 17.9231 1.58109 0.757246 4 0.00054903 2 0 0.0994487 0.0415879
62 1 17.916 0.742935 1.42801 4 0.000333329 2 0 0.0994487 -0.224359
63 1 17.2202 1.74884 1.56274 4 0.000443929 2 0 0.0994487 -0.0984668
64 1 19.5372 0.0167772 0.662766 4 0.000366595 2 0 0.0994487 0.0436513
65 1 18.7918 0.725074 0.684829 4 0.000446641 2 0 0.0994487 -0.269931
66 1 19.5395 1.55488 0.841653 4 0.00101195 2 0 0.0994487 -0.341131
67 1 19.0276 0.158607 1.54508 4 0.000350783 2 0 0.0994487 -0.158657
68 1 19.5934 0.967491 1.68957 4 0.000663189 2 0 0.0994487 0.00836422
69 1 18.6564 1.51302 1.50035 4 0.00072318 2 0 0.0994487 -0.250284
70 1 21.0889 0.349843 1.06749 4 0.000677663 2 0 0.0994487 -0.196113
71 1 20.2493 0.776373 0.980057 4 0.000731745 2 0 0.0994487 -0.0497333
72 1 21.1062 1.65725 0.951506 4 0.00152082 2 0 0.0994487 0.692981
73 1 21.1874 0.765598 0.218806 4 0.000797081 2 0 0.0994487 -0.0445806
74 1 20.3457 1.51479 0.193617 4 0.00115357 2 0 0.0994487 -0.0805908
75 1 22.0087 0.262534 0.539755 4 0.000688061 2 0 0.0994487 0.09937
76 1 22.7913 0.430275 1.40734 4 0.000798722 2 0 0.0994487 0.206616
77 1 22.1105 1.14763 1.32981 4 0.00116541 2 0 0.0994487 0.240058
78 1 21.9982 1.59955 0.538558 4 0.00164172 2 0 0.0994487 0.185194
79 1 22.9157 1.07463 0.445168 4 0.00115241 2 0 0.0994487 0.052102
80 1 24.228 0.380179 1.45209 4 0.000782792 2 0 0.0994487 0.0576272
81 1 23.5672 0.357563 0.57369 4 0.000787083 2 0 0.0994487 0.0385837
82 1 24.4367 1.18687 0.754729 4 0.00128787 2 0 0.0994487 -0.0192682
83 1 23.4757 1.2499 1.4028 4 0.00140571 2 0 0.0994487 0.0299006
84 1 24.955 0.315686 0.551996 4 0.000677045 2 0 0.0994487 -0.017189
85 1 26.0085 0.383365 1.1715 4 0.000546265 2 0 0.0994487 -0.185852
86 1 25.169 1.12579 1.48087 4 0.00111493 2 0 0.0994487 0.0251166
87 1 25.9301 1.73476 1.35794 4 0.00141746 2 0 0.0994487 0.0345483
88 1 25.8917 0.929212 0.432102 4 0.000759123 2 0 0.0994487 -0.0954113
89 1 27.5736 1.28032 0.38906 4 0.000481291 2 0 0.0994487 0.045454
90 1 27.6142 0.50928 0.874321 4 0.000318538 2 0 0.0994487 0.175393
91 1 26.7559 1.02809 1.26347 4 0.000593761 2 0 0.0994487 -0.236874
92 1 28.3748 0.337482 1.39813 4 0.000195767 2 0 0.0994487 0.00984774
93 1 26.7925 0.240345 0.226621 4 0.000348074 2 0 0.0994487 0.0380781
94 1 28.6489 1.24263 0.742341 4 0.000291437 2 0 0.0994487 0.102411
95 1 29.3912 0.945639 1.56878 4 0.000152245 2 0 0.0994487 -0.0191991
96 1 28.5228 1.71921 1.49749 4 0.000399497 2 0 0.0994487 -0.0429764
97 1 29.8133 0.173958 1.46124 4 8.10111e-05 2 0 0.0994487 0.133417
98 1 29.2734 0.3547 0.615275 4 0.000115883 2 0 0.0994487 -0.08168
99 1 31.5874 0.266128 1.25663 4 2.69516e-05 3 0 0.0994487 0.830097
100 1 30.7016 0.49015 0.470738 4 5.69064e-05 2 0 0.0994487 0.354852
101 1 30.1009 1.19877 0.774133 4 0.000123069 2 0 0.0994487 0.210922
102 1 30.8649 0.971942 1.39386 4 7.18047e-05 2 0 0.0994487 0.703282
103 1 1.11081 2.43607 0.129285 4 7.16431e-11 2 0 0.0994487 -0.037322
104 1 0.133403 2.3821 0.812241 4 3.12128e-11 2 0 0.0994487 -0.984517
105 1 1.28845 3.23764 0.949187 4 1.88351e-10 2 0 0.0994487 0.222095
106 1 1.13977 2.36077 1.59162 4 9.21553e-11 2 0 0.0994487 -0.222189
107 1 0.386685 3.02999 1.54944 4 5.81514e-11 2 0 0.0994487 -0.671256
108 1 0.332248 3.09582 0.131296 4 4.72234e-11 2 0 0.0994487 -0.59134
109 1 1.90972 2.41867 0.78376 4 2.40385e-10 2 0 0.0994487 0.0782105
110 1 2.65852 3.28029 0.860875 4 1.1099e-09 2 0 0.0994487 0.0668057
111 1 2.66931 2.22918 1.53373 4 5.52286e-10 2 0 0.0994487 0.082956
112 1 3.2579 3.42668 1.64938 4 2.40354e-09 2 0 0.0994487 0.00397615
113 1 2.7261 2.38168 0.0557193 4 4.66431e-10 2 0 0.0994487 0.146601
114 1 3.38195 2.55413 0.779289 4 1.69155e-09 2 0 0.0994487 0.211586
115 1 4.00679 1.841 0.711184 4 2.48233e-09 2 0 0.0994487 -0.0361211
116 1 4.91383 2.57277 0.815661 4 1.16656e-08 2 0 0.0994487 -0.259346
117 1 4.20148 3.3175 0.749446 4 7.60252e-09 2 0 0.0994487 0.00621764
118 1 4.13245 2.64107 1.58328 4 4.43101e-09 2 0 0.0994487 0.0270792
119 1 5.65047 2.44269 0.132743 4 2.30193e-08 2 0 0.0994487 -0.189924
120 1 6.55776 2.18062 0.772597 4 6.00906e-08 2 0 0.0994487 -0.289367
121 1 5.64874 3.19593 0.952489 4 3.92391e-08 2 0 0.0994487 -0.754625
122 1 5.861 2.19426 1.49672 4 2.60091e-08 2 0 0.0994487 0.0126378
123 1 6.52037 3.06691 1.5557 4 9.22983e-08 2 0 0.0994487 0.0443598
124 1 6.65033 2.92778 0.134227 4 8.51372e-08 2 0 0.0994487 0.0288887
125 1 7.45405 2.22586 0.139832 4 1.51723e-07 2 0 0.0994487 -0.0534999
126 1 8.08209 2.20208 0.930382 4 3.15486e-07 2 0 0.0994487 -0.302052
127 1 7.40132 3.06835 0.934051 4 2.63302e-07 2 0 0.0994487 -0.0454947
128 1 7.29928 2.06035 1.56856 4 1.18237e-07 2 0 0.0994487 -0.0607304
129 1 8.18545 3.00183 1.65211 4 5.40728e-07 2 0 0.0994487 -0.0454133
130 1 8.26934 2.9712 0.0392146 4 5.64108e-07 2 0 0.0994487 -0.150615
131 1 8.90393 2.08699 0.252387 4 5.97814e-07 2 0 0.0994487 0.00243675
132 1 9.77243 2.0246 1.10996 4 1.44487e-06 2 0 0.0994487 0.173479
133 1 8.92671 2.97262 0.928693 4 1.21967e-06 2 0 0.0994487 -0.156733
134 1 9.03062 2.22066 1.70398 4 7.71591e-07 2 0 0.0994487 -0.0819651
135 1 9.56096 2.90576 0.21312 4 1.87748e-06 2 0 0.0994487 0.173123
136 1 10.2834 2.1137 0.214297 4 1.96042e-06 2 0 0.0994487 0.337742
137 1 11.1583 1.82604 0.771092 4 4.73976e-06 2 0 0.0994487 0.260099
138 1 10.6214 2.80819 0.921535 4 5.6383e-06 2 0 0.0994487 0.541932
139 1 11.4444 2.82964 1.57484 4 1.23211e-05 2 0 0.0994487 0.0952065
140 1 12.6737 1.94118 0.593851 4 2.16087e-05 2 0 0.0994487 -0.283922
141 1 11.928 2.64099 0.742299 4 1.72623e-05 2 0 0.0994487 -0.0386631
142 1 11.9239 1.9206 1.46509 4 1.02244e-05 2 0 0.0994487 0.0946624
143 1 12.8449 3.01766 1.68597 4 4.54474e-05 2 0 0.0994487 0.0363634
144 1 13.1791 3.03035 0.848852 4 6.55172e-05 2 0 0.0994487 -0.440834
145 1 13.3784 1.9912 1.48064 4 3.60966e-05 2 0 0.0994487 -0.0150625
146 1 14.0206 2.44438 0.927124 4 8.37549e-05 2 0 0.0994487 -0.133056
147 1 14.0279 3.38359 1.55716 4 0.000151769 2 0 0.0994487 0.0255831
148 1 14.6961 3.43698 0.884932 4 0.000266089 2 0 0.0994487 -0.332877
149 1 14.7823 2.29758 1.44821 4 0.000126349 2 0 0.0994487 0.046937
150 1 14.8418 2.51505 0.136557 4 0.000144296 2 0 0.0994487 0.173013
151 1 14.1591 3.2262 0.0325348 4 0.000148077 2 0 0.0994487 -0.2461
152 1 13.4137 2.29398 0.0590902 4 4.61032e-05 2 0 0.0994487 -0.280957
153 1 15.6993 2.44373 0.692668 4 0.000264838 2 0 0.0994487 0.364419
154 1 16.3029 3.20095 0.662084 4 0.000645849 2 0 0.0994487 0.328613
155 1 16.308 2.47951 1.52575 4 0.000425139 2 0 0.0994487 -0.100631
156 1 15.3694 3.25723 1.50191 4 0.000377972 2 0 0.0994487 -0.00765721
157 1 15.5706 3.25854 0.0192499 4 0.000345771 2 0 0.0994487 0.290244
158 1 17.0646 2.35032 0.682778 4 0.000601294 2 0 0.0994487 0.0235024
159 1 17.944 2.92608 0.699539 4 0.00149452 2 0 0.0994487 -0.231165
160 1 18.0193 2.43917 1.58112 4 0.00107914 2 0 0.0994487 -0.149113
161 1 17.0918 3.1162 1.49491 4 0.00106639 2 0 0.0994487 -0.143411
162 1 18.8908 2.35742 1.01358 4 0.00146458 2 0 0.0994487 -0.516775
163 1 19.7027 3.2427 1.27782 4 0.00350459 2 0 0.0994487 0.394923
164 1 18.884 2.99607 0.196019 4 0.00220293 2 0 0.0994487 -0.171795
165 1 19.587 2.34239 0.101452 4 0.00172851 2 0 0.0994487 -0.132359
166 1 20.3251 1.78863 1.72442 4 0.00132949 2 0 0.0994487 0.0449709
167 1 21.1565 2.41663 0.458355 4 0.00278056 2 0 0.0994487 0.19621
168 1 20.1948 2.46882 1.11433 4 0.00226774 2 0 0.0994487 0.286838
169 1 21.31 3.29463 1.39314 4 0.00601526 2 0 0.0994487 0.0777617
170 1 20.4222 2.99313 0.334941 4 0.00349554 2 0 0.0994487 0.186311
171 1 22.8719 2.07007 1.50872 4 0.00270267 2 0 0.0994487 -0.0221018
172 1 22.9717 2.60199 0.735523 4 0.0044946 2 0 0.0994487 0.133364
173 1 22.0961 2.49917 1.23787 4 0.0037088 2 0 0.0994487 0.186488
174 1 21.9898 3.20043 0.598797 4 0.0065607 2 0 0.0994487 -0.0757089
175 1 22.6771 3.40124 0.07601 4 0.00782047 2 0 0.0994487 0.0760857
176 1 23.7438 1.80844 0.624025 4 0.00212743 2 0 0.0994487 -0.0873367
177 1 24.4289 1.98763 1.61102 4 0.00237186 2 0 0.0994487 -0.0641628
178 1 24.342 2.68296 0.775192 4 0.00419337 2 0 0.0994487 -0.341064
179 1 23.6887 2.90303 1.53628 4 0.00531889 2 0 0.0994487 -0.110485
180 1 24.4728 3.51078 1.55704 4 0.0079587 2 0 0.0994487 -0.11829
181 1 24.9562 2.84566 0.0146836 4 0.00381874 2 0 0.0994487 -0.0864541
182 1 26.5483 1.79415 0.511367 4 0.00112844 2 0 0.0994487 -0.00559257
183 1 25.1322 1.85613 0.509414 4 0.00191322 2 0 0.0994487 -0.0215169
184 1 25.7918 2.61203 0.707489 4 0.00295909 2 0 0.0994487 0.228217
185 1 25.1579 2.55548 1.52547 4 0.00331154 2 0 0.0994487 0.0576782
186 1 25.7213 3.49812 1.51211 4 0.00601141 2 0 0.0994487 0.123865
187 1 26.5364 2.56002 1.53049 4 0.00209281 2 0 0.0994487 0.0579536
188 1 26.1686 3.50068 0.599043 4 0.00514703 2 0 0.0994487 0.168853
189 1 27.5039 1.98546 1.23792 4 0.000833766 2 0 0.0994487 -0.186407
190 1 28.2489 2.09022 0.343734 4 0.000593587 2 0 0.0994487 -0.0177216
191 1 27.0867 2.6924 0.645359 4 0.00177982 2 0 0.0994487 -0.105593
192 1 27.1998 3.35397 1.41682 4 0.00273158 2 0 0.0994487 -0.0983241
193 1 28.2537 2.75799 1.20639 4 0.000967879 2 0 0.0994487 -0.418301
194 1 27.982 3.21993 0.326384 4 0.00148989 2 0 0.0994487 -0.125256
195 1 29.9568 1.80906 1.70764 4 0.000187491 2 0 0.0994487 0.183202
196 1 29.4477 2.04702 0.879698 4 0.000307024 2 0 0.0994487 -0.00707781
197 1 29.1956 2.6589 0.290703 4 0.000494963 2 0 0.0994487 -0.0578271
198 1 29.2495 3.2651 1.17365 4 0.000740141 2 0 0.0994487 0.118635
199 1 30.9114 1.98502 0.924207 4 0.000139026 2 0 0.0994487 0.967253
200 1 30.1815 2.71094 1.00186 4 0.00029676 2 0 0.0994487 0.675126
201 1 31.0247 3.35309 0.97101 4 0.00028011 2 0 0.0994487 0.99841
202 1 30.9865 2.69483 1.72648 4 0.000188528 2 0 0.0994487 0.578503
203 1 30.1092 3.25953 0.132205 4 0.000372708 2 0 0.0994487 -0.0443654
204 1 30.4116 1.90909 0.0255368 4 0.000146042 2 0 0.0994487 0.106045
205 1 31.1434 2.66402 0.0761253 4 0.000161114 2 0 0.0994487 0.70882
206 1 0.293831 3.78503 0.918557 4 8.22406e-11 2 0 0.0994487 -0.999347
207 1 0.143046 4.59443 0.482118 4 9.8897e-11 2 0 0.0994487 -0.784494
208 1 1.14036 4.67093 0.986638 4 3.53325e-10 2 0 0.0994487 -0.516751
209 1 0.0884667 5.26681 1.27761 4 1.27812e-10 2 0 0.0994487 -0.887458
210 1 1.04069 3.86421 0.0595682 4 1.65166e-10 2 0 0.0994487 0.0148881
211 1 1.84117 4.04604 0.847105 4 6.3415e-10 2 0 0.0994487 0.00827051
212 1 2.54049 4.85585 1.13748 4 2.31567e-09 2 0 0.0994487 -0.333845
213 1 2.64953 4.14475 0.20674 4 1.75838e-09 2 0 0.0994487 -0.0285716
214 1 1.89758 4.96895 0.278386 4 1.05734e-09 2 0 0.0994487 -0.153433
215 1 3.40771 4.86189 0.161635 4 6.43431e-09 2 0 0.0994487 -0.0163873
216 1 3.494 4.07675 0.885909 4 5.03838e-09 2 0 0.0994487 0.0268967
217 1 4.91235 4.00001 1.18344 4 2.68464e-08 2 0 0.0994487 0.0115174
218 1 4.04658 4.88002 1.14639 4 1.52601e-08 2 0 0.0994487 0.264492
219 1 4.26027 4.18509 0.149001 4 1.22629e-08 2 0 0.0994487 0.0377391
220 1 5.00947 4.74001 0.341082 4 4.20474e-08 2 0 0.0994487 0.0765415
221 1 5.77735 3.9378 0.198707 4 5.70587e-08 2 0 0.0994487 0.026017
222 1 6.48883 3.76611 0.772067 4 1.37301e-07 2 0 0.0994487 0.204558
223 1 5.68025 4.73638 1.02487 4 1.00204e-07 2 0 0.0994487 -0.621669
224 1 6.66321 4.5115 1.6428 4 2.41158e-07 2 0 0.0994487 0.158935
225 1 6.68072 5.1315 0.885352 4 3.84446e-07 2 0 0.0994487 0.206865
226 1 8.1982 3.892 0.700757 4 1.0467e-06 2 0 0.0994487 -0.369894
227 1 7.40842 4.46072 0.5468 4 5.9254e-07 2 0 0.0994487 -0.0252092
228 1 7.39886 3.87029 1.49684 4 4.01494e-07 2 0 0.0994487 0.10258
229 1 8.20004 4.61106 1.48677 4 1.52323e-06 2 0 0.0994487 -0.0118339
230 1 9.8976 3.57792 0.885667 4 4.70917e-06 2 0 0.0994487 0.592825
231 1 9.07913 4.56551 0.821335 4 3.73326e-06 2 0 0.0994487 -0.65853
232 1 9.86266 4.50302 0.126324 4 6.42675e-06 2 0 0.0994487 0.0958683
233 1 9.07829 3.76256 1.49819 4 2.33374e-06 2 0 0.0994487 -0.0708822
234 1 9.86881 4.3462 1.65532 4 7.17288e-06 2 0 0.0994487 -0.0856592
235 1 8.98541 3.86821 0.0631775 4 2.01987e-06 2 0 0.0994487 -0.138751
236 1 11.408 3.64493 0.778297 4 2.07483e-05 2 0 0.0994487 0.202075
237 1 10.5891 4.66652 0.906264 4 1.74845e-05 2 0 0.0994487 0.0451046
238 1 11.3867 4.69403 0.230734 4 3.62896e-05 2 0 0.0994487 -0.0498858
239 1 10.7059 3.56689 1.58785 4 1.01751e-05 2 0 0.0994487 -0.0448444
240 1 11.3652 4.3716 1.70545 4 2.9724e-05 2 0 0.0994487 -0.079823
241 1 11.3894 5.27213 0.983682 4 5.12778e-05 2 0 0.0994487 -0.674461
242 1 10.5826 3.84888 0.176129 4 9.4559e-06 2 0 0.0994487 0.210469
243 1 12.5168 3.57716 0.814749 4 5.37848e-05 2 0 0.0994487 -0.0105636
244 1 12.1916 4.55033 1.00021 4 7.20311e-05 2 0 0.0994487 0.105083
245 1 12.7362 4.99738 1.68903 4 0.000130561 2 0 0.0994487 0.191335
246 1 13.2258 4.67863 0.80017 4 0.000189277 2 0 0.0994487 -0.0046699
247 1 12.6435 4.61885 0.0632315 4 0.000108125 2 0 0.0994487 -0.0335758
248 1 13.9891 4.12825 0.69648 4 0.000253644 2 0 0.0994487 -0.430157
249 1 13.4832 4.21781 1.59317 4 0.000164907 2 0 0.0994487 0.0820257
250 1 14.2046 5.11838 1.52001 4 0.000514201 2 0 0.0994487 -0.0289827
251 1 14.9402 5.01141 0.811699 4 0.000828443 2 0 0.0994487 -0.0525035
252 1 14.9642 4.4167 1.59432 4 0.00058912 2 0 0.0994487 -0.0635531
253 1 14.1405 4.90647 0.0597868 4 0.000414682 2 0 0.0994487 -0.0856879
254 1 14.961 4.19423 0.096508 4 0.00047134 2 0 0.0994487 0.03228
255 1 15.6685 4.06642 0.926277 4 0.000767313 2 0 0.0994487 0.872603
256 1 15.8798 4.77595 0.186426 4 0.0012782 2 0 0.0994487 0.165401
257 1 16.5936 4.58036 0.900182 4 0.00195545 2 0 0.0994487 -0.0788542
258 1 16.3184 3.95875 1.6903 4 0.0011079 2 0 0.0994487 -0.0433832
259 1 15.8111 5.05317 1.64084 4 0.00144819 2 0 0.0994487 0.0995108
260 1 17.2689 3.83372 0.811237 4 0.00189846 2 0 0.0994487 -0.345347
261 1 18.0864 4.48855 1.09806 4 0.0042011 2 0 0.0994487 -0.611955
262 1 17.9525 3.63794 1.65602 4 0.00234427 2 0 0.0994487 -0.192786
263 1 17.4569 4.57727 0.0147963 4 0.00282311 2 0 0.0994487 -0.0973979
264 1 18.1348 3.8547 0.0583493 4 0.00268283 2 0 0.0994487 -0.120505
265 1 18.8779 3.70667 0.95022 4 0.0036072 2 0 0.0994487 0.0694053
266 1 18.8235 4.60949 0.361826 4 0.00596638 2 0 0.0994487 0.11563
267 1 19.6906 4.67872 1.0803 4 0.0102392 2 0 0.0994487 0.931546
268 1 18.7859 5.27693 1.20102 4 0.00980621 2 0 0.0994487 0.599291
269 1 19.5987 3.76722 0.227421 4 0.00466922 2 0 0.0994487 0.164287
270 1 20.4384 3.82188 1.23329 4 0.00722899 2 0 0.0994487 0.326008
271 1 20.8846 4.71868 1.39403 4 0.0175634 2 0 0.0994487 0.149102
272 1 21.5775 4.95128 0.810455 4 0.0266384 2 0 0.0994487 -0.00362278
273 1 21.0824 3.93136 0.512408 4 0.00957649 2 0 0.0994487 0.0883367
274 1 20.1339 4.78559 0.352846 4 0.0130153 2 0 0.0994487 0.145612
275 1 22.8205 3.63186 1.42135 4 0.0100391 2 0 0.0994487 -0.0183742
276 1 21.9406 4.13318 1.31068 4 0.0141793 2 0 0.0994487 0.0272459
277 1 22.4705 5.17735 1.27286 4 0.0364015 2 0 0.0994487 0.0207623
278 1 22.6119 4.34705 0.510028 4 0.017813 2 0 0.0994487 -0.0220733
279 1 23.5735 3.63903 0.782677 4 0.0103569 2 0 0.0994487 0.18561
280 1 24.336 4.32055 0.625018 4 0.0166075 2 0 0.0994487 -0.150074
281 1 23.4679 4.54946 1.33355 4 0.022062 2 0 0.0994487 -0.0790233
282 1 24.8518 5.25716 0.566763 4 0.0288135 2 0 0.0994487 0.0409155
283 1 23.5518 5.06386 0.533607 4 0.0324538 2 0 0.0994487 -0.0968598
284 1 25.0086 4.50055 1.62342 4 0.0159464 2 0 0.0994487 -0.0421884
285 1 25.0629 3.68037 0.802132 4 0.00838237 2 0 0.0994487 -0.187892
286 1 24.363 5.28843 1.43377 4 0.0345663 2 0 0.0994487 -0.154696
287 1 25.6904 5.1389 1.34266 4 0.020505 2 0 0.0994487 0.210105
288 1 26.3575 4.29031 1.37159 4 0.00848263 2 0 0.0994487 0.149487
289 1 26.5026 4.97257 0.640732 4 0.0123703 2 0 0.0994487 0.0989688
290 1 25.5284 4.40089 0.388179 4 0.0122876 2 0 0.0994487 0.055952
291 1 27.3302 4.86961 1.40568 4 0.00753788 2 0 0.0994487 0.00660899
292 1 27.9624 3.97641 1.10408 4 0.00275205 2 0 0.0994487 -0.309493
293 1 28.2771 4.73475 0.706344 4 0.00382442 2 0 0.0994487 -0.0812494
294 1 27.0674 4.04323 0.570038 4 0.00489252 2 0 0.0994487 0.0120247
295 1 28.9321 3.77016 0.487204 4 0.00124966 2 0 0.0994487 -0.00703328
296 1 29.0873 4.52317 1.33085 4 0.00192547 2 0 0.0994487 0.0574831
297 1 29.9979 4.07209 1.02303 4 0.000748132 2 0 0.0994487 -0.275218
298 1 31.0296 3.97382 0.373364 4 0.00037867 2 0 0.0994487 0.657582
299 1 30.2046 4.67765 0.491317 4 0.00095843 2 0 0.0994487 0.00995594
300 1 30.9783 4.59929 1.41131 4 0.000561612 2 0 0.0994487 0.679911
301 1 0.908283 5.53205 0.461647 4 4.00822e-10 2 0 0.0994487 -0.463785
302 1 1.53161 5.51184 1.37971 4 8.30026e-10 2 0 0.0994487 -0.117386
303 1 0.793684 6.22023 1.2768 4 4.66018e-10 2 0 0.0994487 -0.703381
304 1 0.257003 6.91734 1.50738 4 3.08001e-10 2 0 0.0994487 -0.772633
305 1 0.969942 6.9454 0.573423 4 8.02155e-10 2 0 0.0994487 -0.473532
306 1 1.7053 7.02884 1.23811 4 1.96124e-09 2 0 0.0994487 0.0665185
307 1 1.89588 6.19966 0.519025 4 1.90607e-09 2 0 0.0994487 -0.156399
308 1 3.10475 5.61709 1.30057 4 6.65378e-09 2 0 0.0994487 0.0402536
309 1 2.26359 6.15348 1.40977 4 2.70217e-09 2 0 0.0994487 0.0408565
310 1 3.25442 6.96226 1.12748 4 1.59682e-08 2 0 0.0994487 -0.0541225
311 1 2.68177 5.61289 0.273587 4 3.88407e-09 2 0 0.0994487 -0.0596851
312 1 3.39503 6.28191 0.500536 4 1.44818e-08 2 0 0.0994487 -0.121443
313 1 4.18979 5.46246 0.325783 4 2.40898e-08 2 0 0.0994487 0.0310189
314 1 4.93434 5.42873 1.31778 4 6.52153e-08 2 0 0.0994487 -0.235098
315 1 4.13622 6.09659 1.22779 4 3.458e-08 2 0 0.0994487 -0.0893876
316 1 4.82567 6.23357 0.333842 4 7.78275e-08 2 0 0.0994487 -0.0345745
317 1 4.77312 6.79931 1.15967 4 1.0748e-07 2 0 0.0994487 -0.305928
318 1 4.00267 7.02511 0.221759 4 3.97823e-08 2 0 0.0994487 -0.0853431
319 1 5.78575 5.42185 0.301847 4 1.49708e-07 2 0 0.0994487 0.0125037
320 1 5.6935 6.24342 0.9632 4 2.30274e-07 2 0 0.0994487 -0.967778
321 1 6.4578 5.98425 1.59671 4 4.51847e-07 2 0 0.0994487 0.140916
322 1 6.43234 6.86927 1.00965 4 7.39531e-07 2 0 0.0994487 0.851678
323 1 6.37773 6.04115 0.154639 4 3.50119e-07 2 0 0.0994487 0.111114
324 1 5.54993 7.05206 0.147147 4 2.38892e-07 2 0 0.0994487 0.0363875
325 1 8.21355 5.31419 0.694273 4 2.33727e-06 2 0 0.0994487 -0.0895856
326 1 7.32761 6.15925 0.754293 4 1.35229e-06 2 0 0.0994487 0.225737
327 1 7.39163 5.41839 1.49138 4 9.64663e-07 2 0 0.0994487 0.136756
328 1 8.23884 6.11028 1.49159 4 3.64176e-06 2 0 0.0994487 0.0187401
329 1 8.01352 6.85364 0.728993 4 4.15655e-06 2 0 0.0994487 0.0691907
330 1 7.28191 6.86379 1.59601 4 1.94752e-06 2 1 0.0994487 0.126051
331 1 7.33029 5.3575 0.0461812 4 7.15743e-07 2 0 0.0994487 0.0813583
332 1 9.76796 5.3194 0.792562 4 1.07974e-05 2 0 0.0994487 0.328458
333 1 8.88016 6.18865 0.736908 4 7.46659e-06 2 0 0.0994487 -0.235536
334 1 9.05434 5.3271 1.5973 4 5.46795e-06 2 0 0.0994487 -0.0628284
335 1 9.73844 6.19052 1.46731 4 1.78532e-05 2 0 0.0994487 -0.106402
336 1 9.09351 6.95013 1.463 4 1.48438e-05 2 2 0.0994487 -0.0756727
337 1 9.76329 6.23201 0.0941385 4 1.58199e-05 2 0 0.0994487 -0.03595
338 1 8.99733 5.46479 0.012702 4 4.76086e-06 2 0 0.0994487 -0.134752
339 1 10.5831 6.02196 0.964384 4 3.5723e-05 2 0 0.0994487 -0.356479
340 1 11.3128 6.37134 0.0776634 4 6.29638e-05 2 0 0.0994487 0.100344
341 1 10.5187 6.94145 0.15452 4 4.4035e-05 2 0 0.0994487 -0.0735381
342 1 10.4686 6.92564 1.49614 4 5.32817e-05 2 1 0.0994487 -0.0635285
343 1 11.9994 5.6274 0.183157 4 9.23431e-05 2 0 0.0994487 -0.010527
344 1 12.6757 5.81849 0.861776 4 0.000209584 2 0 0.0994487 0.0817624
345 1 11.7774 6.20735 1.05291 4 0.00011238 2 0 0.0994487 0.292194
346 1 13.3219 5.86668 1.55471 4 0.000354672 2 0 0.0994487 0.208172
347 1 13.3506 6.58297 0.813679 4 0.00057208 2 0 0.0994487 -0.292108
348 1 13.3212 5.53867 0.0424813 4 0.000298872 2 0 0.0994487 -0.142906
349 1 14.0617 5.71565 0.77266 4 0.000640383 2 0 0.0994487 -0.372635
350 1 14.3278 6.65176 1.40646 4 0.00139088 2 1 0.0994487 -0.103112
351 1 14.1303 6.38483 0.0380077 4 0.000806036 2 0 0.0994487 -0.0826069
352 1 15.0282 5.64393 0.034369 4 0.00112248 2 0 0.0994487 0.05737
353 1 15.8305 5.73813 0.95832 4 0.00233136 2 0 0.0994487 0.625831
354 1 15.0472 6.45091 0.806774 4 0.00201833 2 0 0.0994487 -0.176037
355 1 16.491 6.45257 1.1401 4 0.00555866 2 0 0.0994487 0.208353
356 1 15.1058 5.87594 1.69804 4 0.00160161 2 0 0.0994487 -0.0976534
357 1 16.62 5.41933 0.276819 4 0.00297677 2 0 0.0994487 0.079937
358 1 15.6753 6.3382 0.0390223 4 0.00254204 2 0 0.0994487 0.0398564
359 1 17.8271 5.30128 0.541411 4 0.00563863 2 0 0.0994487 0.150351
360 1 17.113 5.42499 1.24767 4 0.00441537 2 0 0.0994487 -0.286542
361 1 17.0619 6.27419 0.411469 4 0.00654001 2 0 0.0994487 0.138966
362 1 17.6649 6.24649 1.38542 4 0.00984572 2 0 0.0994487 -0.25422
363 1 18.2745 7.0517 1.13153 4 0.0209336 2 1 0.0994487 0.631143
364 1 18.3714 6.23173 0.609762 4 0.0140656 2 0 0.0994487 0.156207
365 1 19.429 5.75829 0.62055 4 0.0189542 2 0 0.0994487 0.057221
366 1 19.3279 6.55755 1.35081 4 0.0302062 2 1 0.0994487 0.274768
367 1 19.9942 6.75229 0.610261 4 0.0486512 2 0 0.0994487 -0.0118695
368 1 20.7494 5.77593 0.653722 4 0.0370552 2 0 0.0994487 -0.103993
369 1 20.1931 5.61076 1.39557 4 0.0256958 2 0 0.0994487 0.312077
370 1 20.7787 6.6124 1.30355 4 0.0706428 2 1 0.0994487 -0.348756
371 1 21.6592 6.66248 0.666524 4 0.0822128 2 0 0.0994487 -0.0448122
372 1 21.6631 5.87866 1.38528 4 0.0566941 2 0 0.0994487 0.0407635
373 1 21.6904 5.73259 0.0517844 4 0.0426437 2 0 0.0994487 -0.00147826
374 1 22.6732 5.8279 0.674154 4 0.0571111 2 0 0.0994487 0.00276599
375 1 22.6319 6.69333 1.20734 4 0.108537 2 0 0.0994487 -0.199921
376 1 23.3484 6.78052 0.267835 4 0.0945361 2 0 0.0994487 -0.12522
377 1 23.4822 5.88496 1.30013 4 0.0644366 2 0 0.0994487 -0.175722
378 1 24.3197 6.56281 1.15825 4 0.0812348 2 0 0.0994487 0.178879
379 1 24.1457 6.00685 0.427617 4 0.0563887 2 0 0.0994487 0.00245272
380 1 25.6831 5.86213 0.700952 4 0.0319932 2 0 0.0994487 0.163899
381 1 25.1124 6.04132 1.67733 4 0.0452255 2 0 0.0994487 0.00373217
382 1 25.1593 6.74159 0.495153 4 0.0621546 2 0 0.0994487 0.0903933
383 1 25.8251 6.59457 1.40775 4 0.0455195 2 0 0.0994487 0.0880967
384 1 26.6903 5.84511 1.4763 4 0.0200233 2 0 0.0994487 0.0917567
385 1 27.4966 5.54334 0.722172 4 0.0100824 2 0 0.0994487 -0.25158
386 1 26.7485 6.36567 0.651888 4 0.0251145 2 0 0.0994487 0.0387411
387 1 27.7011 6.47315 1.36539 4 0.015181 2 0 0.0994487 0.131481
388 1 28.3648 5.52203 1.4872 4 0.00574096 2 0 0.0994487 0.0456297
389 1 27.7097 7.0074 0.530173 4 0.0185363 2 0 0.0994487 0.0321093
390 1 29.3889 5.30889 0.818726 4 0.00260089 2 0 0.0994487 0.316734
391 1 29.4379 6.18214 1.32212 4 0.00368442 2 0 0.0994487 -0.00338564
392 1 29.5784 6.89773 0.506505 4 0.00451019 2 0 0.0994487 0.0925793
393 1 28.4685 6.20589 0.638647 4 0.00737146 2 0 0.0994487 -0.270093
394 1 29.3762 6.15398 0.0801838 4 0.00356967 2 0 0.0994487 0.096925
395 1 28.4822 5.38976 0.0592959 4 0.00434571 2 0 0.0994487 -0.105004
396 1 30.9636 5.36838 0.595026 4 0.000931933 2 0 0.0994487 0.667853
397 1 30.2159 5.45949 1.46813 4 0.00146909 2 0 0.0994487 0.0540191
398 1 30.3958 6.18258 0.649752 4 0.00193776 2 0 0.0994487 0.328995
399 1 31.2189 6.15516 1.38439 4 0.00110376 2 0 0.0994487 0.587258
400 1 31.1994 6.95407 0.60342 4 0.00158032 2 0 0.0994487 0.812247
401 1 31.7235 5.99622 0.446564 4 0.000785529 2 0 0.0994487 0.87973
402 1 0.261851 7.63199 0.661866 4 4.48827e-10 2 0 0.0994487 -0.876373
403 1 0.831025 8.46344 0.61936 4 1.07976e-09 2 0 0.0994487 -0.577626
404 1 1.11211 7.86396 1.49711 4 1.15724e-09 2 0 0.0994487 -0.154428
405 1 0.356955 8.5626 1.47035 4 6.01075e-10 2 0 0.0994487 -0.764984
406 1 1.59266 7.76478 0.37187 4 2.26723e-09 2 0 0.0994487 -0.0897876
407 1 1.72382 8.61735 1.46471 4 3.31458e-09 2 0 0.0994487 0.0395972
408 1 2.48799 7.14986 0.476331 4 6.37155e-09 2 0 0.0994487 -0.0836953
409 1 2.19177 8.6335 0.399707 4 6.53235e-09 2 0 0.0994487 -0.137267
410 1 2.39416 7.81099 1.27726 4 6.72488e-09 2 0 0.0994487 0.0869927
411 1 3.01349 8.51445 0.935533 4 1.92786e-08 2 0 0.0994487 -0.53931
412 1 3.24418 7.77117 0.327041 4 2.03674e-08 2 0 0.0994487 -0.196204
413 1 3.81243 8.45898 0.0822892 4 4.43404e-08 2 0 0.0994487 -0.0457779
414 1 3.97971 7.67009 1.24863 4 5.15291e-08 2 0 0.0994487 -0.0554879
415 1 4.70459 8.25653 0.921772 4 1.53387e-07 2 0 0.0994487 0.295341
416 1 4.67023 7.63706 0.247803 4 1.09679e-07 2 0 0.0994487 0.037693
417 1 3.81127 8.34851 1.76162 4 4.39437e-08 2 0 0.0994487 -0.0574355
418 1 5.86955 8.34822 0.169905 4 5.39474e-07 2 0 0.0994487 0.113106
419 1 5.48363 7.59071 1.03232 4 3.40768e-07 2 0 0.0994487 -0.467659
420 1 6.49365 7.53799 0.169175 4 8.76643e-07 2 0 0.0994487 0.187625
421 1 6.39674 8.23976 1.04384 4 1.29625e-06 2 0 0.0994487 0.338159
422 1 7.28583 7.76918 0.746313 4 2.9696e-06 2 1 0.0994487 0.00993569
423 1 8.2859 8.31376 0.868772 4 1.1158e-05 2 2 0.0994487 0.278842
424 1 7.27857 8.18368 1.7015 4 4.22412e-06 2 2 0.0994487 -0.174654
425 1 8.05208 7.48784 1.5604 4 6.42406e-06 2 1 0.0994487 0.185104
426 1 7.99895 7.60312 0.0282118 4 4.35195e-06 2 0 0.0994487 0.0674141
427 1 9.84313 7.22199 0.72344 4 3.29293e-05 2 1 0.0994487 -0.346911
428 1 8.91207 7.61626 0.661731 4 1.53048e-05 2 1 0.0994487 0.158747
429 1 9.73234 8.61964 0.693151 4 5.22655e-05 2 3 0.0994487 -0.257263
430 1 9.09265 8.69904 1.44495 4 3.47817e-05 2 9 0.0994487 -0.394624
431 1 9.64026 7.88932 1.60055 4 4.54507e-05 2 8 0.0994487 -0.340205
432 1 11.3161 7.14287 0.810636 4 0.000115993 2 1 0.0994487 0.44849
433 1 10.5731 7.9454 0.844311 4 8.82544e-05 2 3 0.0994487 -0.198605
434 1 10.5877 8.70196 1.4255 4 0.000131506 1 8 0.0994487 -0.147663
435 1 11.4057 7.80503 1.60301 4 0.000200608 2 7 0.0994487 0.22808
436 1 11.227 8.11851 0.0422735 4 0.000123468 2 0 0.0994487 0.174329
437 1 12.7061 7.28322 0.565784 4 0.00045761 2 0 0.0994487 -0.0531379
438 1 12.178 8.23518 0.590765 4 0.000398644 2 2 0.0994487 0.163934
439 1 12.0637 7.15788 1.37768 4 0.000256829 2 3 0.0994487 0.145623
440 1 12.0887 8.68064 1.49044 4 0.000522952 1 8 0.0994487 0.0832642