ITEM: TIMESTEP
18000
ITEM: NUMBER OF ATOMS
9495
ITEM: BOX BOUNDS mm mm mm
0.0000000000000000e+00 3.1748021039364001e+01
0.0000000000000000e+00 3.1748021039364001e+01
-7.4072398406925706e-04 3.1748021039364001e+01
ITEM: ATOMS id type x y z c_phase c_temp c_surf c_nbond c_visc f_3[1]
1 1 0.116341 1.10259 0.464337 4 7.63526e-09 2 0 0.0994487 -0.68194
2 1 0.974108 1.6685 0.77798 4 2.06503e-08 2 0 0.0994487 -0.517029
3 1 0.714648 0.793562 1.41295 4 1.09388e-08 2 0 0.0994487 -0.281793
4 1 0.00336375 1.60273 1.37437 4 9.27017e-09 2 0 0.0994487 -0.804051
5 1 0.729896 0.0633724 0.61602 4 6.81387e-09 3 0 0.0994487 -0.190373
6 1 1.71015 0.808983 1.0155 4 2.93857e-08 2 0 0.0994487 -0.332066
7 1 1.80059 1.47468 0.221075 4 3.5509e-08 2 0 0.0994487 -0.125827
8 1 1.82015 1.66049 1.76126 4 4.20774e-08 2 0 0.0994487 -0.139531
9 1 2.52093 0.749102 0.203812 4 5.10062e-08 2 0 0.0994487 -0.142937
10 1 2.59149 0.0538711 1.03726 4 4.67482e-08 2 0 0.0994487 -0.295003
11 1 2.64922 1.541 0.882848 4 8.84295e-08 2 0 0.0994487 0.235772
12 1 2.66829 0.815502 1.7457 4 6.44953e-08 2 0 0.0994487 -0.187038
13 1 3.43386 0.933692 0.956349 4 1.46978e-07 2 0 0.0994487 0.320256
14 1 3.49924 0.0925696 1.70571 4 9.16877e-08 2 0 0.0994487 0.178055
15 1 3.60652 1.70798 1.71994 4 2.2729e-07 2 0 0.0994487 0.0487992
16 1 4.10576 0.858321 0.325305 4 2.60295e-07 2 0 0.0994487 0.153151
17 1 4.96159 0.56786 1.17466 4 5.81994e-07 2 0 0.0994487 -0.0370592
18 1 4.91949 1.59987 0.383508 4 8.1519e-07 2 0 0.0994487 -0.100241
19 1 4.3472 0.941527 1.62884 4 3.41627e-07 2 0 0.0994487 0.110744
20 1 3.47612 0.111428 0.171027 4 8.40388e-08 2 0 0.0994487 0.166217
21 1 5.64741 0.645627 0.325839 4 1.07174e-06 2 0 0.0994487 -0.0805994
22 1 5.88414 1.31048 0.938036 4 1.71557e-06 2 0 0.0994487 -0.199534
23 1 6.57478 1.39104 0.218369 4 3.08338e-06 2 0 0.0994487 -0.0861256
24 1 5.78374 0.460658 1.69897 4 1.06247e-06 2 0 0.0994487 -0.0846466
25 1 5.03122 1.72414 1.43602 4 9.15716e-07 2 0 0.0994487 0.0453811
26 1 6.7138 0.39031 0.865278 4 2.46345e-06 2 0 0.0994487 -0.0793743
27 1 6.69104 1.00962 1.69374 4 2.74911e-06 2 0 0.0994487 -0.107915
28 1 8.2679 0.408875 1.07337 4 7.8917e-06 2 0 0.0994487 -0.100155
29 1 7.36782 1.22285 0.954198 4 5.53882e-06 2 0 0.0994487 -0.302501
30 1 8.24709 1.39092 0.236779 4 1.11249e-05 2 0 0.0994487 -0.0460533
31 1 8.12868 1.27217 1.60653 4 9.43547e-06 2 0 0.0994487 -0.0081063
32 1 7.58247 0.647807 0.140287 4 5.07583e-06 2 0 0.0994487 -0.110929
33 1 8.85849 0.508506 0.273966 4 1.20508e-05 2 0 0.0994487 -0.0616378
34 1 9.55301 0.3386 0.888639 4 1.89407e-05 2 0 0.0994487 0.00507697
35 1 9.02586 1.30716 1.1133 4 1.93824e-05 2 0 0.0994487 -0.0606054
37 1 9.63995 1.37474 0.0900752 4 2.66647e-05 2 0 0.0994487 0.0993004
38 1 11.2128 0.215893 0.632658 4 5.62133e-05 2 0 0.0994487 0.203521
39 1 10.3637 1.04743 0.823114 4 4.26179e-05 2 0 0.0994487 0.539922
40 1 10.523 0.196295 1.44539 4 3.46241e-05 2 0 0.0994487 0.0644393
41 1 11.2856 1.01846 1.41785 4 8.48604e-05 2 0 0.0994487 0.164734
42 1 10.5797 1.67706 1.72992 4 6.67925e-05 2 0 0.0994487 0.118178
43 1 10.2431 0.367861 0.0780499 4 2.52204e-05 2 0 0.0994487 0.149809
44 1 12.8757 0.211714 0.636805 4 0.000176939 2 0 0.0994487 0.0588067
45 1 12.0457 1.07408 0.506655 4 0.000150328 2 0 0.0994487 -0.0235274
46 1 12.1319 0.316439 1.29957 4 0.000117651 2 0 0.0994487 0.0188585
47 1 12.7194 1.19864 1.3723 4 0.000245047 2 0 0.0994487 -0.0304904
48 1 14.3729 0.318493 0.764646 4 0.000437948 2 0 0.0994487 -0.0460177
49 1 13.5924 1.113 0.843618 4 0.000407474 2 0 0.0994487 -0.26299
50 1 14.0399 1.55958 0.167469 4 0.000612088 2 0 0.0994487 -0.089805
51 1 13.6075 0.359834 1.6352 4 0.000281374 2 0 0.0994487 -0.0562449
52 1 14.3777 1.14948 1.47647 4 0.000575553 2 0 0.0994487 -0.0177965
53 1 14.8761 1.55337 0.662943 4 0.000895738 2 0 0.0994487 0.390014
54 1 15.7061 0.770636 0.788259 4 0.000964404 2 0 0.0994487 0.366531
55 1 16.5532 1.54451 0.681338 4 0.00212439 2 0 0.0994487 0.00088056
56 1 15.1422 0.4642 1.64149 4 0.000618785 2 0 0.0994487 0.152098
57 1 16.547 0.712289 1.3421 4 0.00150547 2 0 0.0994487 0.0956771
58 1 15.6341 1.48544 1.3916 4 0.00128452 2 0 0.0994487 0.153686
59 1 15.1049 0.711806 0.0677822 4 0.00061382 2 0 0.0994487 0.169218
60 1 17.2544 0.732268 0.547589 4 0.0020096 2 0 0.0994487 0.0286713
61 1 17.9231 1.58109 0.757246 4 0.00372566 2 0 0.0994487 0.0416454
62 1 17.916 0.742935 1.42801 4 0.00269171 2 0 0.0994487 -0.224319
63 1 17.2202 1.74884 1.56274 4 0.00320441 2 0 0.0994487 -0.0984281
64 1 19.5372 0.0167772 0.662766 4 0.00295966 2 0 0.0994487 0.0436696
65 1 18.7918 0.725074 0.684829 4 0.00330686 2 0 0.0994487 -0.269897
66 1 19.5395 1.55488 0.841653 4 0.00575083 2 0 0.0994487 -0.341058
67 1 19.0276 0.158607 1.54508 4 0.00286695 2 0 0.0994487 -0.158641
68 1 19.5934 0.967491 1.68957 4 0.00432165 2 0 0.0994487 0.00839638
69 1 18.6564 1.51302 1.50035 4 0.00455353 2 0 0.0994487 -0.250227
70 1 21.0889 0.349843 1.06749 4 0.00448122 2 0 0.0994487 -0.196079
71 1 20.2493 0.776373 0.980057 4 0.00463708 2 0 0.0994487 -0.049664
72 1 21.1062 1.65725 0.951506 4 0.00763287 2 0 0.0994487 0.693146
73 1 21.1874 0.765598 0.218806 4 0.00496576 2 0 0.0994487 -0.0445543
74 1 20.3457 1.51479 0.193617 4 0.00633594 2 0 0.0994487 -0.0805623
75 1 22.0087 0.262534 0.539755 4 0.00456498 2 0 0.0994487 0.0993989
76 1 22.7913 0.430275 1.40734 4 0.00505517 2 0 0.0994487 0.206661
77 1 22.1105 1.14763 1.32981 4 0.00640255 2 0 0.0994487 0.240149
78 1 21.9982 1.59955 0.538558 4 0.00813332 2 0 0.0994487 0.185251
79 1 22.9157 1.07463 0.445168 4 0.00645232 2 0 0.0994487 0.0521513
80 1 24.228 0.380179 1.45209 4 0.00504786 2 0 0.0994487 0.0576605
81 1 23.5672 0.357563 0.57369 4 0.00505393 2 0 0.0994487 0.0386223
82 1 24.4367 1.18687 0.754729 4 0.00713912 2 0 0.0994487 -0.0191761
83 1 23.4757 1.2499 1.4028 4 0.00751235 2 0 0.0994487 0.0299696
84 1 24.955 0.315686 0.551996 4 0.00453767 2 0 0.0994487 -0.0171546
85 1 26.0085 0.383365 1.1715 4 0.00379477 2 0 0.0994487 -0.185821
86 1 25.169 1.12579 1.48087 4 0.00642986 2 0 0.0994487 0.0251591
87 1 25.9301 1.73476 1.35794 4 0.0077206 2 0 0.0994487 0.0346022
88 1 25.8917 0.929212 0.432102 4 0.00478695 2 0 0.0994487 -0.0953765
89 1 27.5736 1.28032 0.38906 4 0.00333369 2 0 0.0994487 0.0454755
90 1 27.6142 0.50928 0.874321 4 0.00251715 2 0 0.0994487 0.175417
91 1 26.7559 1.02809 1.26347 4 0.0039187 2 0 0.0994487 -0.236816
92 1 28.3748 0.337482 1.39813 4 0.00176974 2 0 0.0994487 0.00986444
93 1 26.7925 0.240345 0.226621 4 0.00275967 2 0 0.0994487 0.0380924
94 1 28.6489 1.24263 0.742341 4 0.00228435 2 0 0.0994487 0.102436
95 1 29.3912 0.945639 1.56878 4 0.00144648 2 0 0.0994487 -0.0191891
96 1 28.5228 1.71921 1.49749 4 0.00286433 2 0 0.0994487 -0.0429537
97 1 29.8133 0.173958 1.46124 4 0.000958798 2 0 0.0994487 0.133421
98 1 29.2734 0.3547 0.615275 4 0.00121276 2 0 0.0994487 -0.0816727
99 1 31.5874 0.266128 1.25663 4 0.000453701 3 0 0.0994487 0.830097
100 1 30.7016 0.49015 0.470738 4 0.000753769 2 0 0.0994487 0.354853
101 1 30.1009 1.19877 0.774133 4 0.00125219 2 0 0.0994487 0.210934
102 1 30.8649 0.971942 1.39386 4 0.00087524 2 0 0.0994487 0.703284
103 1 1.11081 2.43607 0.129285 4 2.68192e-08 2 0 0.0994487 -0.0373211
104 1 0.133403 2.3821 0.812241 4 1.51442e-08 2 0 0.0994487 -0.984517
105 1 1.28845 3.23764 0.949187 4 5.50252e-08 2 0 0.0994487 0.222106
106 1 1.13977 2.36077 1.59162 4 3.22956e-08 2 0 0.0994487 -0.222188
107 1 0.386685 3.02999 1.54944 4 2.41282e-08 2 0 0.0994487 -0.671256
108 1 0.332248 3.09582 0.131296 4 2.08911e-08 2 0 0.0994487 -0.591339
109 1 1.90972 2.41867 0.78376 4 6.4681e-08 2 0 0.0994487 0.0782159
110 1 2.65852 3.28029 0.860875 4 2.13003e-07 2 0 0.0994487 0.0668119
111 1 2.66931 2.22918 1.53373 4 1.22402e-07 2 0 0.0994487 0.0829593
112 1 3.2579 3.42668 1.64938 4 3.91464e-07 2 0 0.0994487 0.00397988
113 1 2.7261 2.38168 0.0557193 4 1.08329e-07 2 0 0.0994487 0.146602
114 1 3.38195 2.55413 0.779289 4 2.88423e-07 2 0 0.0994487 0.211592
115 1 4.00679 1.841 0.711184 4 3.87245e-07 2 0 0.0994487 -0.0361134
116 1 4.91383 2.57277 0.815661 4 1.27754e-06 2 0 0.0994487 -0.259332
117 1 4.20148 3.3175 0.749446 4 9.39091e-07 2 0 0.0994487 0.0062241
118 1 4.13245 2.64107 1.58328 4 6.15093e-07 2 0 0.0994487 0.0270841
119 1 5.65047 2.44269 0.132743 4 2.17546e-06 2 0 0.0994487 -0.18992
120 1 6.55776 2.18062 0.772597 4 4.35829e-06 2 0 0.0994487 -0.289316
121 1 5.64874 3.19593 0.952489 4 3.2396e-06 2 0 0.0994487 -0.754598
122 1 5.861 2.19426 1.49672 4 2.33656e-06 2 0 0.0994487 0.012644
123 1 6.52037 3.06691 1.5557 4 6.15701e-06 2 0 0.0994487 0.0443662
124 1 6.65033 2.92778 0.134227 4 5.76146e-06 2 0 0.0994487 0.0288939
125 1 7.45405 2.22586 0.139832 4 8.82626e-06 2 0 0.0994487 -0.053493
126 1 8.08209 2.20208 0.930382 4 1.50965e-05 2 0 0.0994487 -0.301993
127 1 7.40132 3.06835 0.934051 4 1.33812e-05 2 0 0.0994487 -0.0454163
128 1 7.29928 2.06035 1.56856 4 7.27951e-06 2 0 0.0994487 -0.0607238
129 1 8.18545 3.00183 1.65211 4 2.32532e-05 2 0 0.0994487 -0.0454065
130 1 8.26934 2.9712 0.0392146 4 2.42069e-05 2 0 0.0994487 -0.150609
131 1 8.90393 2.08699 0.252387 4 2.45368e-05 2 0 0.0994487 0.00244609
132 1 9.77243 2.0246 1.10996 4 4.64559e-05 2 0 0.0994487 0.173519
133 1 8.92671 2.97262 0.928693 4 4.21254e-05 2 0 0.0994487 -0.156665
134 1 9.03062 2.22066 1.70398 4 2.96634e-05 2 0 0.0994487 -0.0819576
135 1 9.56096 2.90576 0.21312 4 5.82311e-05 2 0 0.0994487 0.173132
136 1 10.2834 2.1137 0.214297 4 5.86235e-05 2 0 0.0994487 0.337749
137 1 11.1583 1.82604 0.771092 4 0.000112985 2 0 0.0994487 0.260126
138 1 10.6214 2.80819 0.921535 4 0.000130618 2 0 0.0994487 0.541966
139 1 11.4444 2.82964 1.57484 4 0.000237747 2 0 0.0994487 0.0952236
140 1 12.6737 1.94118 0.593851 4 0.000356773 2 0 0.0994487 -0.283896
141 1 11.928 2.64099 0.742299 4 0.000302931 2 0 0.0994487 -0.0386366
142 1 11.9239 1.9206 1.46509 4 0.000203431 2 0 0.0994487 0.0946842
143 1 12.8449 3.01766 1.68597 4 0.000631331 2 0 0.0994487 0.0363797
144 1 13.1791 3.03035 0.848852 4 0.000816986 2 0 0.0994487 -0.440781
145 1 13.3784 1.9912 1.48064 4 0.000519813 2 0 0.0994487 -0.0150438
146 1 14.0206 2.44438 0.927124 4 0.000960347 2 0 0.0994487 -0.132951
147 1 14.0279 3.38359 1.55716 4 0.00153558 2 0 0.0994487 0.0256032
148 1 14.6961 3.43698 0.884932 4 0.0023047 2 0 0.0994487 -0.332683
149 1 14.7823 2.29758 1.44821 4 0.0012873 2 0 0.0994487 0.0469597
150 1 14.8418 2.51505 0.136557 4 0.00144347 2 0 0.0994487 0.17303
151 1 14.1591 3.2262 0.0325348 4 0.00151583 2 0 0.0994487 -0.246088
152 1 13.4137 2.29398 0.0590902 4 0.000633658 2 0 0.0994487 -0.280945
153 1 15.6993 2.44373 0.692668 4 0.00220811 2 0 0.0994487 0.36448
154 1 16.3029 3.20095 0.662084 4 0.00429123 2 0 0.0994487 0.328669
155 1 16.308 2.47951 1.52575 4 0.00311964 2 0 0.0994487 -0.100593
156 1 15.3694 3.25723 1.50191 4 0.0029523 2 0 0.0994487 -0.00762989
157 1 15.5706 3.25854 0.0192499 4 0.00278792 2 0 0.0994487 0.29026
158 1 17.0646 2.35032 0.682778 4 0.00398259 2 0 0.0994487 0.0235513
159 1 17.944 2.92608 0.699539 4 0.00784576 2 0 0.0994487 -0.231106
160 1 18.0193 2.43917 1.58112 4 0.00611146 2 0 0.0994487 -0.149064
161 1 17.0918 3.1162 1.49491 4 0.00617825 2 0 0.0994487 -0.143357
162 1 18.8908 2.35742 1.01358 4 0.00755856 2 0 0.0994487 -0.516647
163 1 19.7027 3.2427 1.27782 4 0.0143807 2 0 0.0994487 0.395021
164 1 18.884 2.99607 0.196019 4 0.0104031 2 0 0.0994487 -0.171763
165 1 19.587 2.34239 0.101452 4 0.00856413 2 0 0.0994487 -0.132333
166 1 20.3251 1.78863 1.72442 4 0.00696471 2 0 0.0994487 0.0450138
167 1 21.1565 2.41663 0.458355 4 0.0119638 2 0 0.0994487 0.196263
168 1 20.1948 2.46882 1.11433 4 0.0102362 2 0 0.0994487 0.287064
169 1 21.31 3.29463 1.39314 4 0.021956 2 0 0.0994487 0.0778336
170 1 20.4222 2.99313 0.334941 4 0.0142592 2 0 0.0994487 0.186358
171 1 22.8719 2.07007 1.50872 4 0.0122083 2 0 0.0994487 -0.022043
172 1 22.9717 2.60199 0.735523 4 0.0184685 2 0 0.0994487 0.133464
173 1 22.0961 2.49917 1.23787 4 0.0152548 2 0 0.0994487 0.186611
174 1 21.9898 3.20043 0.598797 4 0.0241909 2 0 0.0994487 -0.0756165
175 1 22.6771 3.40124 0.07601 4 0.0289934 2 0 0.0994487 0.0761143
176 1 23.7438 1.80844 0.624025 4 0.0103621 2 0 0.0994487 -0.0872687
177 1 24.4289 1.98763 1.61102 4 0.0117234 2 0 0.0994487 -0.0641201
178 1 24.342 2.68296 0.775192 4 0.0191232 2 0 0.0994487 -0.340967
179 1 23.6887 2.90303 1.53628 4 0.0232167 2 0 0.0994487 -0.111652
180 1 24.4728 3.51078 1.55704 4 0.0436092 2 0 0.0994487 -0.119725
181 1 24.9562 2.84566 0.0146836 4 0.0177649 2 0 0.0994487 -0.0864325
182 1 26.5483 1.79415 0.511367 4 0.00638693 2 0 0.0994487 -0.00555593
183 1 25.1322 1.85613 0.509414 4 0.00982104 2 0 0.0994487 -0.0214706
184 1 25.7918 2.61203 0.707489 4 0.0144854 2 0 0.0994487 0.22829
185 1 25.1579 2.55548 1.52547 4 0.0162708 2 0 0.0994487 0.0577502
186 1 25.7213 3.49812 1.51211 4 0.0306274 2 0 0.0994487 0.12835
187 1 26.5364 2.56002 1.53049 4 0.0107571 2 0 0.0994487 0.0579877
188 1 26.1686 3.50068 0.599043 4 0.0241832 2 0 0.0994487 0.168907
189 1 27.5039 1.98546 1.23792 4 0.00498779 2 0 0.0994487 -0.186349
190 1 28.2489 2.09022 0.343734 4 0.00385667 2 0 0.0994487 -0.0177053
191 1 27.0867 2.6924 0.645359 4 0.00927469 2 0 0.0994487 -0.105547
192 1 27.1998 3.35397 1.41682 4 0.0135372 2 0 0.0994487 -0.0982888
193 1 28.2537 2.75799 1.20639 4 0.00562265 2 0 0.0994487 -0.41826
194 1 27.982 3.21993 0.326384 4 0.00802039 2 0 0.0994487 -0.125242
195 1 29.9568 1.80906 1.70764 4 0.00168249 2 0 0.0994487 0.183208
196 1 29.4477 2.04702 0.879698 4 0.00236416 2 0 0.0994487 -0.00704095
197 1 29.1956 2.6589 0.290703 4 0.00338414 2 0 0.0994487 -0.0578176
198 1 29.2495 3.2651 1.17365 4 0.00461569 2 0 0.0994487 0.11866
199 1 30.9114 1.98502 0.924207 4 0.00141181 2 0 0.0994487 0.967257
200 1 30.1815 2.71094 1.00186 4 0.00236845 2 0 0.0994487 0.675179
201 1 31.0247 3.35309 0.97101 4 0.00239057 2 0 0.0994487 0.99841
202 1 30.9865 2.69483 1.72648 4 0.00179822 2 0 0.0994487 0.578506
203 1 30.1092 3.25953 0.132205 4 0.00283317 2 0 0.0994487 -0.0443616
204 1 30.4116 1.90909 0.0255368 4 0.00144733 2 0 0.0994487 0.106048
205 1 31.1434 2.66402 0.0761253 4 0.00161205 2 0 0.0994487 0.708822
206 1 0.293831 3.78503 0.918557 4 3.18496e-08 2 0 0.0994487 -0.999347
207 1 0.143046 4.59443 0.482118 4 3.79037e-08 2 0 0.0994487 -0.784494
208 1 1.14036 4.67093 0.986638 4 9.33665e-08 2 0 0.0994487 -0.516748
209 1 0.0884667 5.26681 1.27761 4 4.74413e-08 2 0 0.0994487 -0.887458
210 1 1.04069 3.86421 0.0595682 4 5.13788e-08 2 0 0.0994487 0.0148888
211 1 1.84117 4.04604 0.847105 4 1.42131e-07 2 0 0.0994487 0.00827825
212 1 2.54049 4.85585 1.13748 4 3.90259e-07 2 0 0.0994487 -0.333839
213 1 2.64953 4.14475 0.20674 4 3.16896e-07 2 0 0.0994487 -0.0285697
214 1 1.89758 4.96895 0.278386 4 2.18485e-07 2 0 0.0994487 -0.153431
215 1 3.40771 4.86189 0.161635 4 8.66215e-07 2 0 0.0994487 -0.0163847
216 1 3.494 4.07675 0.885909 4 6.95078e-07 2 0 0.0994487 0.0269084
217 1 4.91235 4.00001 1.18344 4 2.47911e-06 2 0 0.0994487 0.0115397
218 1 4.04658 4.88002 1.14639 4 1.63592e-06 2 0 0.0994487 0.2645
219 1 4.26027 4.18509 0.149001 4 1.40879e-06 2 0 0.0994487 0.037742
220 1 5.00947 4.74001 0.341082 4 3.61602e-06 2 0 0.0994487 0.0765466
221 1 5.77735 3.9378 0.198707 4 4.44724e-06 2 0 0.0994487 0.0260209
222 1 6.48883 3.76611 0.772067 4 8.3623e-06 2 0 0.0994487 0.204572
223 1 5.68025 4.73638 1.02487 4 6.91174e-06 2 0 0.0994487 -0.621609
224 1 6.66321 4.5115 1.6428 4 1.32983e-05 2 0 0.0994487 0.158942
225 1 6.68072 5.1315 0.885352 4 1.92512e-05 2 0 0.0994487 0.206891
226 1 8.1982 3.892 0.700757 4 3.92418e-05 2 0 0.0994487 -0.369877
227 1 7.40842 4.46072 0.5468 4 2.62727e-05 2 0 0.0994487 -0.0251999
228 1 7.39886 3.87029 1.49684 4 1.9034e-05 2 0 0.0994487 0.10259
229 1 8.20004 4.61106 1.48677 4 5.36097e-05 2 0 0.0994487 -0.0118245
230 1 9.8976 3.57792 0.885667 4 0.000117632 2 0 0.0994487 0.592923
231 1 9.07913 4.56551 0.821335 4 0.000104216 2 0 0.0994487 -0.658501
232 1 9.86266 4.50302 0.126324 4 0.000155464 2 0 0.0994487 0.0958758
233 1 9.07829 3.76256 1.49819 4 7.10444e-05 2 0 0.0994487 -0.070873
234 1 9.86881 4.3462 1.65532 4 0.000168284 2 0 0.0994487 -0.0856504
235 1 8.98541 3.86821 0.0631775 4 6.49049e-05 2 0 0.0994487 -0.138746
236 1 11.408 3.64493 0.778297 4 0.000356783 2 0 0.0994487 0.2021
237 1 10.5891 4.66652 0.906264 4 0.000325189 2 0 0.0994487 0.0451763
238 1 11.3867 4.69403 0.230734 4 0.000567007 2 0 0.0994487 -0.0498748
239 1 10.7059 3.56689 1.58785 4 0.000210707 2 0 0.0994487 -0.044831
240 1 11.3652 4.3716 1.70545 4 0.000484035 2 0 0.0994487 -0.0798101
241 1 11.3894 5.27213 0.983682 4 0.00074319 2 0 0.0994487 -0.674413
242 1 10.5826 3.84888 0.176129 4 0.000201262 2 0 0.0994487 0.210478
243 1 12.5168 3.57716 0.814749 4 0.000722237 2 0 0.0994487 -0.0105301
244 1 12.1916 4.55033 1.00021 4 0.000927322 2 0 0.0994487 0.105174
245 1 12.7362 4.99738 1.68903 4 0.00146729 2 0 0.0994487 0.191351
246 1 13.2258 4.67863 0.80017 4 0.00190396 2 0 0.0994487 -0.00459411
247 1 12.6435 4.61885 0.0632315 4 0.00128118 2 0 0.0994487 -0.033564
248 1 13.9891 4.12825 0.69648 4 0.00231424 2 0 0.0994487 -0.430105
249 1 13.4832 4.21781 1.59317 4 0.00168868 2 0 0.0994487 0.0820464
250 1 14.2046 5.11838 1.52001 4 0.00406092 2 0 0.0994487 -0.0289602
251 1 14.9402 5.01141 0.811699 4 0.00572847 2 0 0.0994487 -0.0519483
252 1 14.9642 4.4167 1.59432 4 0.00435232 2 0 0.0994487 -0.063531
253 1 14.1405 4.90647 0.0597868 4 0.00347828 2 0 0.0994487 -0.0856708
254 1 14.961 4.19423 0.096508 4 0.00365774 2 0 0.0994487 0.032298
255 1 15.6685 4.06642 0.926277 4 0.00510335 2 0 0.0994487 0.872637
256 1 15.8798 4.77595 0.186426 4 0.00774488 2 0 0.0994487 0.165428
257 1 16.5936 4.58036 0.900182 4 0.0103162 2 0 0.0994487 -0.0785669
258 1 16.3184 3.95875 1.6903 4 0.00663588 2 0 0.0994487 -0.0433508
259 1 15.8111 5.05317 1.64084 4 0.00865756 2 0 0.0994487 0.0995373
260 1 17.2689 3.83372 0.811237 4 0.00969845 2 0 0.0994487 -0.34526
261 1 18.0864 4.48855 1.09806 4 0.017576 2 0 0.0994487 -0.611496
262 1 17.9525 3.63794 1.65602 4 0.0111412 2 0 0.0994487 -0.192742
263 1 17.4569 4.57727 0.0147963 4 0.0135458 2 0 0.0994487 -0.0973709
264 1 18.1348 3.8547 0.0583493 4 0.0125107 2 0 0.0994487 -0.120477
265 1 18.8779 3.70667 0.95022 4 0.0150393 2 0 0.0994487 0.0698017
266 1 18.8235 4.60949 0.361826 4 0.0224926 2 0 0.0994487 0.115677
267 1 19.6906 4.67872 1.0803 4 0.0336966 2 0 0.0994487 0.931591
268 1 18.7859 5.27693 1.20102 4 0.0337934 2 0 0.0994487 0.599677
269 1 19.5987 3.76722 0.227421 4 0.018093 2 0 0.0994487 0.164326
270 1 20.4384 3.82188 1.23329 4 0.0252097 2 0 0.0994487 0.326124
271 1 20.8846 4.71868 1.39403 4 0.0523302 2 0 0.0994487 0.149188
272 1 21.5775 4.95128 0.810455 4 0.075818 2 0 0.0994487 -0.00340425
273 1 21.0824 3.93136 0.512408 4 0.0318811 2 0 0.0994487 0.0884065
274 1 20.1339 4.78559 0.352846 4 0.0408163 2 0 0.0994487 0.145665
275 1 22.8205 3.63186 1.42135 4 0.0373888 2 0 0.0994487 -0.0217042
276 1 21.9406 4.13318 1.31068 4 0.0457898 2 0 0.0994487 0.0272937
277 1 22.4705 5.17735 1.27286 4 0.108391 2 0 0.0994487 0.00989761
278 1 22.6119 4.34705 0.510028 4 0.0583506 2 0 0.0994487 -0.0220051
279 1 23.5735 3.63903 0.782677 4 0.0407397 2 0 0.0994487 0.184754
280 1 24.336 4.32055 0.625018 4 0.0692137 2 0 0.0994487 -0.149102
281 1 23.4679 4.54946 1.33355 4 0.0928864 2 0 0.0994487 -0.117171
282 1 24.8518 5.25716 0.566763 4 0.117654 2 0 0.0994487 0.0408254
283 1 23.5518 5.06386 0.533607 4 0.109841 2 0 0.0994487 -0.0968789
284 1 25.0086 4.50055 1.62342 4 0.11863 2 0 0.0994487 -0.00338482
285 1 25.0629 3.68037 0.802132 4 0.0392827 2 0 0.0994487 -0.186914
286 1 24.363 5.28843 1.43377 4 0.180486 2 0 0.0994487 -0.208425
287 1 25.6904 5.1389 1.34266 4 0.112078 2 0 0.0994487 0.276003
288 1 26.3575 4.29031 1.37159 4 0.0411499 2 0 0.0994487 0.154792
289 1 26.5026 4.97257 0.640732 4 0.0554922 2 0 0.0994487 0.0990374
290 1 25.5284 4.40089 0.388179 4 0.0548508 2 0 0.0994487 0.0559958
291 1 27.3302 4.86961 1.40568 4 0.0344466 2 0 0.0994487 0.00697328
292 1 27.9624 3.97641 1.10408 4 0.0135788 2 0 0.0994487 -0.309414
293 1 28.2771 4.73475 0.706344 4 0.0182903 2 0 0.0994487 -0.0812376
294 1 27.0674 4.04323 0.570038 4 0.0227977 2 0 0.0994487 0.0120575
295 1 28.9321 3.77016 0.487204 4 0.00702456 2 0 0.0994487 -0.00702702
296 1 29.0873 4.52317 1.33085 4 0.0101962 2 0 0.0994487 0.0574832
297 1 29.9979 4.07209 1.02303 4 0.00482812 2 0 0.0994487 -0.275168
298 1 31.0296 3.97382 0.373364 4 0.00303316 2 0 0.0994487 0.657579
299 1 30.2046 4.67765 0.491317 4 0.00603886 2 0 0.0994487 0.00995179
300 1 30.9783 4.59929 1.41131 4 0.00413969 2 0 0.0994487 0.679903
301 1 0.908283 5.53205 0.461647 4 1.08578e-07 2 0 0.0994487 -0.463784
302 1 1.53161 5.51184 1.37971 4 1.84329e-07 2 0 0.0994487 -0.117385
303 1 0.793684 6.22023 1.2768 4 1.26537e-07 2 0 0.0994487 -0.70338
304 1 0.257003 6.91734 1.50738 4 9.9767e-08 2 0 0.0994487 -0.772633
305 1 0.969942 6.9454 0.573423 4 1.9349e-07 2 0 0.0994487 -0.473532
306 1 1.7053 7.02884 1.23811 4 3.67645e-07 2 0 0.0994487 0.0665206
307 1 1.89588 6.19966 0.519025 4 3.50447e-07 2 0 0.0994487 -0.156397
308 1 3.10475 5.61709 1.30057 4 8.82395e-07 2 0 0.0994487 0.0402569
309 1 2.26359 6.15348 1.40977 4 4.54181e-07 2 0 0.0994487 0.0408584
310 1 3.25442 6.96226 1.12748 4 1.81568e-06 2 0 0.0994487 -0.0541187
311 1 2.68177 5.61289 0.273587 4 5.93383e-07 2 0 0.0994487 -0.0596829
312 1 3.39503 6.28191 0.500536 4 1.65756e-06 2 0 0.0994487 -0.121438
313 1 4.18979 5.46246 0.325783 4 2.40294e-06 2 0 0.0994487 0.0310229
314 1 4.93434 5.42873 1.31778 4 5.15374e-06 2 0 0.0994487 -0.235092
315 1 4.13622 6.09659 1.22779 4 3.20267e-06 2 0 0.0994487 -0.0893831
316 1 4.82567 6.23357 0.333842 4 6.04387e-06 2 0 0.0994487 -0.0345702
317 1 4.77312 6.79931 1.15967 4 7.755e-06 2 0 0.0994487 -0.305922
318 1 4.00267 7.02511 0.221759 4 3.69632e-06 2 0 0.0994487 -0.0853401
319 1 5.78575 5.42185 0.301847 4 9.69902e-06 2 0 0.0994487 0.0125082
320 1 5.6935 6.24342 0.9632 4 1.36133e-05 2 0 0.0994487 -0.967768
321 1 6.4578 5.98425 1.59671 4 2.2455e-05 2 0 0.0994487 0.140921
322 1 6.43234 6.86927 1.00965 4 3.32545e-05 2 0 0.0994487 0.851685
323 1 6.37773 6.04115 0.154639 4 1.87669e-05 2 0 0.0994487 0.111118
324 1 5.54993 7.05206 0.147147 4 1.44986e-05 2 0 0.0994487 0.0363906
325 1 8.21355 5.31419 0.694273 4 7.58483e-05 2 0 0.0994487 -0.0895651
326 1 7.32761 6.15925 0.754293 4 5.14885e-05 2 0 0.0994487 0.22575
327 1 7.39163 5.41839 1.49138 4 3.89446e-05 2 0 0.0994487 0.136764
328 1 8.23884 6.11028 1.49159 4 0.000109427 2 0 0.0994487 0.0187489
329 1 8.01352 6.85364 0.728993 4 0.000124973 2 0 0.0994487 0.0692023
330 1 7.28191 6.86379 1.59601 4 7.06762e-05 2 1 0.0994487 0.126052
331 1 7.33029 5.3575 0.0461812 4 3.15636e-05 2 0 0.0994487 0.0813627
332 1 9.76796 5.3194 0.792562 4 0.000235582 2 0 0.0994487 0.328492
333 1 8.88016 6.18865 0.736908 4 0.000187591 2 0 0.0994487 -0.235519
334 1 9.05434 5.3271 1.5973 4 0.000143818 2 0 0.0994487 -0.0628206
335 1 9.73844 6.19052 1.46731 4 0.00036021 2 0 0.0994487 -0.106422
336 1 9.09351 6.95013 1.463 4 0.000325017 2 2 0.0994487 -0.0757812
337 1 9.76329 6.23201 0.0941385 4 0.000334032 2 0 0.0994487 -0.0359448
338 1 8.99733 5.46479 0.012702 4 0.00013375 2 0 0.0994487 -0.134748
339 1 10.5831 6.02196 0.964384 4 0.000591791 2 0 0.0994487 -0.35634
340 1 11.3128 6.37134 0.0776634 4 0.000922567 2 0 0.0994487 0.100352
341 1 10.5187 6.94145 0.15452 4 0.000734647 2 0 0.0994487 -0.0735294
342 1 10.4686 6.92564 1.49614 4 0.000837348 2 1 0.0994487 -0.0634716
343 1 11.9994 5.6274 0.183157 4 0.00116625 2 0 0.0994487 -0.010515
344 1 12.6757 5.81849 0.861776 4 0.00213366 2 0 0.0994487 0.0818187
345 1 11.7774 6.20735 1.05291 4 0.00137108 2 0 0.0994487 0.292323
346 1 13.3219 5.86668 1.55471 4 0.00317492 2 0 0.0994487 0.208191
347 1 13.3506 6.58297 0.813679 4 0.00474997 2 0 0.0994487 -0.292063
348 1 13.3212 5.53867 0.0424813 4 0.00279615 2 0 0.0994487 -0.142893
349 1 14.0617 5.71565 0.77266 4 0.00491111 2 0 0.0994487 -0.372474
350 1 14.3278 6.65176 1.40646 4 0.00933014 2 1 0.0994487 -0.103111
351 1 14.1303 6.38483 0.0380077 4 0.00608344 2 0 0.0994487 -0.0825951
352 1 15.0282 5.64393 0.034369 4 0.00744933 2 0 0.0994487 0.0573877
353 1 15.8305 5.73813 0.95832 4 0.0127886 2 0 0.0994487 0.625945
354 1 15.0472 6.45091 0.806774 4 0.0120513 2 0 0.0994487 -0.175966
355 1 16.491 6.45257 1.1401 4 0.025691 2 0 0.0994487 0.208439
356 1 15.1058 5.87594 1.69804 4 0.0099729 2 0 0.0994487 -0.097638
357 1 16.62 5.41933 0.276819 4 0.0148292 2 0 0.0994487 0.0799734
358 1 15.6753 6.3382 0.0390223 4 0.0141105 2 0 0.0994487 0.0398723
359 1 17.8271 5.30128 0.541411 4 0.0228514 2 0 0.0994487 0.150405
360 1 17.113 5.42499 1.24767 4 0.01958 2 0 0.0994487 -0.286466
361 1 17.0619 6.27419 0.411469 4 0.0278441 2 0 0.0994487 0.139004
362 1 17.6649 6.24649 1.38542 4 0.0374533 2 0 0.0994487 -0.254153
363 1 18.2745 7.0517 1.13153 4 0.0674161 2 1 0.0994487 0.630652
364 1 18.3714 6.23173 0.609762 4 0.0473248 2 0 0.0994487 0.156266
365 1 19.429 5.75829 0.62055 4 0.0564972 2 0 0.0994487 0.0572952
366 1 19.3279 6.55755 1.35081 4 0.0836345 2 0 0.0994487 0.273183
367 1 19.9942 6.75229 0.610261 4 0.122305 2 0 0.0994487 -0.0114267
368 1 20.7494 5.77593 0.653722 4 0.0971865 2 0 0.0994487 -0.103852
369 1 20.1931 5.61076 1.39557 4 0.0712624 2 0 0.0994487 0.312627
370 1 20.7787 6.6124 1.30355 4 0.16576 2 0 0.0994487 -0.355504
371 1 21.6592 6.66248 0.666524 4 0.188762 2 0 0.0994487 -0.0441156
372 1 21.6631 5.87866 1.38528 4 0.143486 2 0 0.0994487 0.0325192
373 1 21.6904 5.73259 0.0517844 4 0.112611 2 0 0.0994487 -0.00144887
374 1 22.6732 5.8279 0.674154 4 0.15522 2 0 0.0994487 0.00271197
375 1 22.6319 6.69333 1.20734 0 0.257277 2 0 0.0994074 -0.255434
376 1 23.3484 6.78052 0.267835 4 0.236687 2 0 0.0994487 -0.125251
377 1 23.4822 5.88496 1.30013 4 0.210215 2 0 0.0994487 -0.213658
378 1 24.3197 6.56281 1.15825 0 0.269893 2 0 0.0993281 0.102922
379 1 24.1457 6.00685 0.427617 4 0.18023 2 0 0.0994487 0.00203103
380 1 25.6831 5.86213 0.700952 4 0.137061 2 0 0.0994487 0.165731
381 1 25.1124 6.04132 1.67733 0 0.302044 2 0 0.0990749 0.0328383
382 1 25.1593 6.74159 0.495153 4 0.213258 2 0 0.0994487 0.0903636
383 1 25.8251 6.59457 1.40775 4 0.230098 2 0 0.0994487 0.26506
384 1 26.6903 5.84511 1.4763 4 0.0966821 2 0 0.0994487 0.120856
385 1 27.4966 5.54334 0.722172 4 0.0445298 2 0 0.0994487 -0.251578
386 1 26.7485 6.36567 0.651888 4 0.106225 2 0 0.0994487 0.0389386
387 1 27.7011 6.47315 1.36539 4 0.0672098 2 0 0.0994487 0.132565
388 1 28.3648 5.52203 1.4872 4 0.0264967 2 0 0.0994487 0.0456209
389 1 27.7097 7.0074 0.530173 4 0.0772753 2 0 0.0994487 0.0320697
390 1 29.3889 5.30889 0.818726 4 0.0134132 2 0 0.0994487 0.316757
391 1 29.4379 6.18214 1.32212 4 0.0182075 2 0 0.0994487 -0.00340505
392 1 29.5784 6.89773 0.506505 4 0.0217217 2 0 0.0994487 0.0925449
393 1 28.4685 6.20589 0.638647 4 0.0330122 2 0 0.0994487 -0.270143
394 1 29.3762 6.15398 0.0801838 4 0.0178101 2 0 0.0994487 0.0969183
395 1 28.4822 5.38976 0.0592959 4 0.0207282 2 0 0.0994487 -0.105004
396 1 30.9636 5.36838 0.595026 4 0.00632345 2 0 0.0994487 0.667862
397 1 30.2159 5.45949 1.46813 4 0.00868655 2 0 0.0994487 0.054013
398 1 30.3958 6.18258 0.649752 4 0.0110479 2 0 0.0994487 0.328975
399 1 31.2189 6.15516 1.38439 4 0.0074785 2 0 0.0994487 0.587257
400 1 31.1994 6.95407 0.60342 4 0.00999872 2 0 0.0994487 0.812238
401 1 31.7235 5.99622 0.446564 4 0.00597461 2 0 0.0994487 0.879732
402 1 0.261851 7.63199 0.661866 4 1.34821e-07 2 0 0.0994487 -0.876373
403 1 0.831025 8.46344 0.61936 4 2.52744e-07 2 0 0.0994487 -0.577625
404 1 1.11211 7.86396 1.49711 4 2.5944e-07 2 0 0.0994487 -0.154427
405 1 0.356955 8.5626 1.47035 4 1.71003e-07 2 0 0.0994487 -0.764984
406 1 1.59266 7.76478 0.37187 4 4.22627e-07 2 0 0.0994487 -0.0897864
407 1 1.72382 8.61735 1.46471 4 5.71331e-07 2 0 0.0994487 0.0395985
408 1 2.48799 7.14986 0.476331 4 9.06229e-07 2 0 0.0994487 -0.0836924
409 1 2.19177 8.6335 0.399707 4 9.63794e-07 2 0 0.0994487 -0.137265
410 1 2.39416 7.81099 1.27726 4 9.53932e-07 2 0 0.0994487 0.0869951
411 1 3.01349 8.51445 0.935533 4 2.17113e-06 2 0 0.0994487 -0.5393
412 1 3.24418 7.77117 0.327041 4 2.25392e-06 2 0 0.0994487 -0.196201
413 1 3.81243 8.45898 0.0822892 4 4.13238e-06 2 0 0.0994487 -0.045776
414 1 3.97971 7.67009 1.24863 4 4.49095e-06 2 0 0.0994487 -0.0554843
415 1 4.70459 8.25653 0.921772 4 1.03029e-05 2 0 0.0994487 0.295365
416 1 4.67023 7.63706 0.247803 4 8.00928e-06 2 0 0.0994487 0.0376967
417 1 3.81127 8.34851 1.76162 4 4.11079e-06 2 0 0.0994487 -0.0574339
418 1 5.86955 8.34822 0.169905 4 2.74915e-05 2 0 0.0994487 0.113109
419 1 5.48363 7.59071 1.03232 4 1.88203e-05 2 0 0.0994487 -0.467645
420 1 6.49365 7.53799 0.169175 4 3.92072e-05 2 0 0.0994487 0.187628
421 1 6.39674 8.23976 1.04384 4 5.27766e-05 2 0 0.0994487 0.33817
422 1 7.28583 7.76918 0.746313 4 0.000100171 2 1 0.0994487 0.00994216
423 1 8.2859 8.31376 0.868772 4 0.000276899 2 2 0.0994487 0.278767
424 1 7.27857 8.18368 1.7015 4 0.00013362 2 2 0.0994487 -0.174701
425 1 8.05208 7.48784 1.5604 4 0.000178756 2 1 0.0994487 0.185103
426 1 7.99895 7.60312 0.0282118 4 0.000137323 2 0 0.0994487 0.0674169
427 1 9.84313 7.22199 0.72344 4 0.000595824 2 1 0.0994487 -0.346909
428 1 8.91207 7.61626 0.661731 4 0.000340468 2 1 0.0994487 0.158707
429 1 9.73234 8.61964 0.693151 4 0.000892549 2 3 0.0994487 -0.257218
430 1 9.09265 8.69904 1.44495 4 0.000665547 2 9 0.0994487 -0.394544
431 1 9.64026 7.88932 1.60055 4 0.00079152 2 8 0.0994487 -0.340318
432 1 11.3161 7.14287 0.810636 4 0.00147354 2 1 0.0994487 0.448575
433 1 10.5731 7.9454 0.844311 4 0.00126732 2 3 0.0994487 -0.198363
434 1 10.5877 8.70196 1.4255 4 0.00174817 1 8 0.0994487 -0.146223
435 1 11.4057 7.80503 1.60301 4 0.00232222 2 7 0.0994487 0.228369
436 1 11.227 8.11851 0.0422735 4 0.00164164 2 0 0.0994487 0.174337
437 1 12.7061 7.28322 0.565784 4 0.00419615 2 0 0.0994487 -0.0531214
438 1 12.178 8.23518 0.590765 4 0.00390247 2 2 0.0994487 0.163963
439 1 12.0637 7.15788 1.37768 4 0.00267533 2 3 0.0994487 0.145703
440 1 12.0887 8.68064 1.49044 4 0.00489646 1 8 0.0994487 0.0821627
441 1 12.8601 7.99585 1.47598 4 0.00690375 2 6 0.0994487 -0.216878
442 1 14.3373 7.3542 0.580954 4 0.0113852 2 0 0.0994487 0.0649203