ITEM: TIMESTEP
22500
ITEM: NUMBER OF ATOMS
9495
ITEM: BOX BOUNDS mm mm mm
0.0000000000000000e+00 3.4915331094752581e+01
0.0000000000000000e+00 3.1748021039364001e+01
-7.4072398406925706e-04 3.1748021039364001e+01
ITEM: ATOMS id type x y z c_phase c_temp c_surf c_nbond c_visc f_3[1]
1 1 0.116341 1.10259 0.464337 4 2.60458e-07 2 0 0.0994487 -0.68194
2 1 0.974108 1.6685 0.77798 4 5.60458e-07 2 0 0.0994487 -0.517028
3 1 0.714648 0.793562 1.41295 4 3.40114e-07 2 0 0.0994487 -0.281793
4 1 0.00336375 1.60273 1.37437 4 3.05309e-07 2 0 0.0994487 -0.804051
5 1 0.729896 0.0633724 0.61602 4 2.32506e-07 3 0 0.0994487 -0.190373
6 1 1.71015 0.808983 1.0155 4 7.45138e-07 2 0 0.0994487 -0.332065
7 1 1.80059 1.47468 0.221075 4 8.66297e-07 2 0 0.0994487 -0.125827
8 1 1.82015 1.66049 1.76126 4 9.91692e-07 2 0 0.0994487 -0.139531
9 1 2.52093 0.749102 0.203812 4 1.16896e-06 2 0 0.0994487 -0.142937
10 1 2.59149 0.0538711 1.03726 4 1.10723e-06 2 0 0.0994487 -0.295002
11 1 2.64922 1.541 0.882848 4 1.78706e-06 2 0 0.0994487 0.235776
12 1 2.66829 0.815502 1.7457 4 1.41386e-06 2 0 0.0994487 -0.187038
13 1 3.43386 0.933692 0.956349 4 2.72767e-06 2 0 0.0994487 0.32026
14 1 3.49924 0.0925696 1.70571 4 1.89231e-06 2 0 0.0994487 0.178056
15 1 3.60652 1.70798 1.71994 4 3.93014e-06 2 0 0.0994487 0.0488003
16 1 4.10576 0.858321 0.325305 4 4.41308e-06 2 0 0.0994487 0.153153
17 1 4.96159 0.56786 1.17466 4 8.7792e-06 2 0 0.0994487 -0.0370568
18 1 4.91949 1.59987 0.383508 4 1.14059e-05 2 0 0.0994487 -0.100239
19 1 4.3472 0.941527 1.62884 4 5.57256e-06 2 0 0.0994487 0.110746
20 1 3.47612 0.111428 0.171027 4 1.763e-06 2 0 0.0994487 0.166218
25 1 5.03122 1.72414 1.43602 4 1.25093e-05 2 0 0.0994487 0.0453836
21 1 5.64741 0.645627 0.325839 4 1.46283e-05 2 0 0.0994487 -0.0805979
22 1 5.88414 1.31048 0.938036 4 2.11003e-05 2 0 0.0994487 -0.19952
23 1 6.57478 1.39104 0.218369 4 3.43461e-05 2 0 0.0994487 -0.0861234
24 1 5.78374 0.460658 1.69897 4 1.46385e-05 2 0 0.0994487 -0.0846448
26 1 6.7138 0.39031 0.865278 4 2.90786e-05 2 0 0.0994487 -0.0793722
27 1 6.69104 1.00962 1.69374 4 3.14898e-05 2 0 0.0994487 -0.107913
28 1 8.2679 0.408875 1.07337 4 7.50887e-05 2 0 0.0994487 -0.100152
29 1 7.36782 1.22285 0.954198 4 5.52952e-05 2 0 0.0994487 -0.302486
30 1 8.24709 1.39092 0.236779 4 9.82422e-05 2 0 0.0994487 -0.0460504
31 1 8.12868 1.27217 1.60653 4 8.54693e-05 2 0 0.0994487 -0.00810354
32 1 7.58247 0.647807 0.140287 4 5.26328e-05 2 0 0.0994487 -0.110928
33 1 8.85849 0.508506 0.273966 4 0.000106574 2 0 0.0994487 -0.0616356
34 1 9.55301 0.3386 0.888639 4 0.000153384 2 0 0.0994487 0.00508021
35 1 9.02586 1.30716 1.1133 4 0.000153619 2 0 0.0994487 -0.0605954
37 1 9.63995 1.37474 0.0900752 4 0.000201167 2 0 0.0994487 0.0993026
43 1 10.2431 0.367861 0.0780499 4 0.000195573 2 0 0.0994487 0.149811
38 1 11.2128 0.215893 0.632658 4 0.000374074 2 0 0.0994487 0.203525
39 1 10.3637 1.04743 0.823114 4 0.000292574 2 0 0.0994487 0.539929
40 1 10.523 0.196295 1.44539 4 0.000252114 2 0 0.0994487 0.0644418
41 1 11.2856 1.01846 1.41785 4 0.000518021 2 0 0.0994487 0.16474
42 1 10.5797 1.67706 1.72992 4 0.000423886 2 0 0.0994487 0.118181
44 1 12.8757 0.211714 0.636805 4 0.000974297 2 0 0.0994487 0.0588099
45 1 12.0457 1.07408 0.506655 4 0.000834056 2 0 0.0994487 -0.0235227
46 1 12.1319 0.316439 1.29957 4 0.000692855 2 0 0.0994487 0.0188628
47 1 12.7194 1.19864 1.3723 4 0.00124947 2 0 0.0994487 -0.0304838
49 1 13.5924 1.113 0.843618 4 0.00190091 2 0 0.0994487 -0.262981
51 1 13.6075 0.359834 1.6352 4 0.00142928 2 0 0.0994487 -0.0562423
48 1 14.3729 0.318493 0.764646 4 0.00204294 2 0 0.0994487 -0.0460156
50 1 14.0399 1.55958 0.167469 4 0.00265983 2 0 0.0994487 -0.0898025
52 1 14.3777 1.14948 1.47647 4 0.00251791 2 0 0.0994487 -0.0177934
53 1 14.8761 1.55337 0.662943 4 0.00359995 2 0 0.0994487 0.390019
56 1 15.1422 0.4642 1.64149 4 0.00269289 2 0 0.0994487 0.152099
59 1 15.1049 0.711806 0.0677822 4 0.00268488 2 0 0.0994487 0.169219
54 1 15.7061 0.770636 0.788259 4 0.00383953 2 0 0.0994487 0.366532
55 1 16.5532 1.54451 0.681338 4 0.00742166 2 0 0.0994487 0.000879062
57 1 16.547 0.712289 1.3421 4 0.00559545 2 0 0.0994487 0.0956756
58 1 15.6341 1.48544 1.3916 4 0.00483646 2 0 0.0994487 0.153687
60 1 17.2544 0.732268 0.547589 4 0.00719633 2 0 0.0994487 0.0286681
61 1 17.9231 1.58109 0.757246 4 0.0122493 2 0 0.0994487 0.0416353
62 1 17.916 0.742935 1.42801 4 0.00931096 2 0 0.0994487 -0.224326
63 1 17.2202 1.74884 1.56274 4 0.0106645 2 0 0.0994487 -0.0984317
65 1 18.7918 0.725074 0.684829 4 0.0112859 2 0 0.0994487 -0.269908
69 1 18.6564 1.51302 1.50035 4 0.0149922 2 0 0.0994487 -0.250242
64 1 19.5372 0.0167772 0.662766 4 0.0104969 2 0 0.0994487 0.0436611
66 1 19.5395 1.55488 0.841653 4 0.0188971 2 0 0.0994487 -0.341089
67 1 19.0276 0.158607 1.54508 4 0.0100766 2 0 0.0994487 -0.158646
68 1 19.5934 0.967491 1.68957 4 0.0146581 2 0 0.0994487 0.00838212
71 1 20.2493 0.776373 0.980057 4 0.0161779 2 0 0.0994487 -0.049702
74 1 20.3457 1.51479 0.193617 4 0.0213197 2 0 0.0994487 -0.0805781
70 1 21.0889 0.349843 1.06749 4 0.016911 2 0 0.0994487 -0.196102
72 1 21.1062 1.65725 0.951506 4 0.0284541 2 0 0.0994487 0.692781
73 1 21.1874 0.765598 0.218806 4 0.0185684 2 0 0.0994487 -0.0445722
75 1 22.0087 0.262534 0.539755 4 0.019181 2 0 0.0994487 0.0993756
77 1 22.1105 1.14763 1.32981 4 0.0290947 2 0 0.0994487 0.239612
78 1 21.9982 1.59955 0.538558 4 0.0349765 2 0 0.0994487 0.185202
76 1 22.7913 0.430275 1.40734 4 0.0252976 2 0 0.0994487 0.206585
79 1 22.9157 1.07463 0.445168 4 0.0341161 2 0 0.0994487 0.0521074
81 1 23.5672 0.357563 0.57369 4 0.0293678 2 0 0.0994487 0.0385858
83 1 23.4757 1.2499 1.4028 4 0.0518238 2 0 0.0994487 0.0275575
80 1 24.228 0.380179 1.45209 4 0.0354058 2 0 0.0994487 0.0573045
82 1 24.4367 1.18687 0.754729 4 0.0576532 2 0 0.0994487 -0.0192932
84 1 24.955 0.315686 0.551996 4 0.0345396 2 0 0.0994487 -0.0171896
86 1 25.169 1.12579 1.48087 4 0.0720488 2 0 0.0994487 0.0196967
85 1 26.0085 0.383365 1.1715 4 0.0359516 2 0 0.0994487 -0.185737
87 1 25.9301 1.73476 1.35794 4 0.111791 2 0 0.0994487 0.0332471
88 1 25.8917 0.929212 0.432102 4 0.0465724 2 0 0.0994487 -0.0954129
91 1 26.7559 1.02809 1.26347 4 0.0501033 2 0 0.0994487 -0.238095
93 1 26.7925 0.240345 0.226621 4 0.0242335 2 0 0.0994487 0.038078
89 1 27.5736 1.28032 0.38906 4 0.040427 2 0 0.0994487 0.0454557
90 1 27.6142 0.50928 0.874321 4 0.0268488 2 0 0.0994487 0.175397
92 1 28.3748 0.337482 1.39813 4 0.0180628 2 0 0.0994487 0.00985699
94 1 28.6489 1.24263 0.742341 4 0.0287724 2 0 0.0994487 0.10242
96 1 28.5228 1.71921 1.49749 4 0.0506321 2 0 0.0994487 -0.0329701
95 1 29.3912 0.945639 1.56878 4 0.0161604 2 0 0.0994487 -0.0191917
97 1 29.8133 0.173958 1.46124 4 0.00781149 2 0 0.0994487 0.13342
98 1 29.2734 0.3547 0.615275 4 0.0107317 2 0 0.0994487 -0.0816753
101 1 30.1009 1.19877 0.774133 4 0.0123378 2 0 0.0994487 0.210928
100 1 30.7016 0.49015 0.470738 4 0.00559344 2 0 0.0994487 0.354854
99 1 31.5874 0.266128 1.25663 4 0.00304674 3 0 0.0994487 0.830096
102 1 30.8649 0.971942 1.39386 4 0.0071696 2 0 0.0994487 0.703283
103 1 1.11081 2.43607 0.129285 4 6.96307e-07 2 0 0.0994487 -0.0373208
104 1 0.133403 2.3821 0.812241 4 4.52038e-07 2 0 0.0994487 -0.984517
105 1 1.28845 3.23764 0.949187 4 1.23256e-06 2 0 0.0994487 0.222109
106 1 1.13977 2.36077 1.59162 4 8.03951e-07 2 0 0.0994487 -0.222187
107 1 0.386685 3.02999 1.54944 4 6.56545e-07 2 0 0.0994487 -0.671256
108 1 0.332248 3.09582 0.131296 4 5.89708e-07 2 0 0.0994487 -0.591339
109 1 1.90972 2.41867 0.78376 4 1.38588e-06 2 0 0.0994487 0.0782179
110 1 2.65852 3.28029 0.860875 4 3.72598e-06 2 0 0.0994487 0.0668138
111 1 2.66931 2.22918 1.53373 4 2.33977e-06 2 0 0.0994487 0.0829604
112 1 3.2579 3.42668 1.64938 4 6.22701e-06 2 0 0.0994487 0.00398101
113 1 2.7261 2.38168 0.0557193 4 2.12916e-06 2 0 0.0994487 0.146603
114 1 3.38195 2.55413 0.779289 4 4.74452e-06 2 0 0.0994487 0.211594
115 1 4.00679 1.841 0.711184 4 6.07759e-06 2 0 0.0994487 -0.0361105
116 1 4.91383 2.57277 0.815661 4 1.64548e-05 2 0 0.0994487 -0.259328
117 1 4.20148 3.3175 0.749446 4 1.28494e-05 2 0 0.0994487 0.0062262
118 1 4.13245 2.64107 1.58328 4 8.99677e-06 2 0 0.0994487 0.0270857
119 1 5.65047 2.44269 0.132743 4 2.58101e-05 2 0 0.0994487 -0.189919
120 1 6.55776 2.18062 0.772597 4 4.51039e-05 2 0 0.0994487 -0.289298
121 1 5.64874 3.19593 0.952489 4 3.57489e-05 2 0 0.0994487 -0.754587
122 1 5.861 2.19426 1.49672 4 2.70989e-05 2 0 0.0994487 0.0126462
123 1 6.52037 3.06691 1.5557 4 6.06373e-05 2 0 0.0994487 0.0443684
124 1 6.65033 2.92778 0.134227 4 5.73043e-05 2 0 0.0994487 0.0288958
125 1 7.45405 2.22586 0.139832 4 8.09239e-05 2 0 0.0994487 -0.0534906
126 1 8.08209 2.20208 0.930382 4 0.000125154 2 0 0.0994487 -0.301974
127 1 7.40132 3.06835 0.934051 4 0.000114247 2 0 0.0994487 -0.0453907
128 1 7.29928 2.06035 1.56856 4 6.89373e-05 2 0 0.0994487 -0.0607214
129 1 8.18545 3.00183 1.65211 4 0.000181456 2 0 0.0994487 -0.0454043
130 1 8.26934 2.9712 0.0392146 4 0.000188143 2 0 0.0994487 -0.150607
131 1 8.90393 2.08699 0.252387 4 0.000187428 2 0 0.0994487 0.00244925
132 1 9.77243 2.0246 1.10996 4 0.00031359 2 0 0.0994487 0.173531
133 1 8.92671 2.97262 0.928693 4 0.000294403 2 0 0.0994487 -0.156645
134 1 9.03062 2.22066 1.70398 4 0.000218875 2 0 0.0994487 -0.0819551
135 1 9.56096 2.90576 0.21312 4 0.00038489 2 0 0.0994487 0.173134
136 1 10.2834 2.1137 0.214297 4 0.000380905 2 0 0.0994487 0.337752
137 1 11.1583 1.82604 0.771092 4 0.000650761 2 0 0.0994487 0.260134
138 1 10.6214 2.80819 0.921535 4 0.000743131 2 0 0.0994487 0.541976
139 1 11.4444 2.82964 1.57484 4 0.00122762 2 0 0.0994487 0.0952287
141 1 11.928 2.64099 0.742299 4 0.00149059 2 0 0.0994487 -0.0386289
142 1 11.9239 1.9206 1.46509 4 0.00106543 2 0 0.0994487 0.0946905
140 1 12.6737 1.94118 0.593851 4 0.00169707 2 0 0.0994487 -0.283889
143 1 12.8449 3.01766 1.68597 4 0.0027627 2 0 0.0994487 0.0363843
144 1 13.1791 3.03035 0.848852 4 0.00339567 2 0 0.0994487 -0.440767
145 1 13.3784 1.9912 1.48064 4 0.00231558 2 0 0.0994487 -0.0150395
152 1 13.4137 2.29398 0.0590902 4 0.00274463 2 0 0.0994487 -0.280942
146 1 14.0206 2.44438 0.927124 4 0.00383587 2 0 0.0994487 -0.132931
147 1 14.0279 3.38359 1.55716 4 0.00576241 2 0 0.0994487 0.0256078
148 1 14.6961 3.43698 0.884932 4 0.00805597 2 0 0.0994487 -0.332648
149 1 14.7823 2.29758 1.44821 4 0.00487129 2 0 0.0994487 0.0469627
150 1 14.8418 2.51505 0.136557 4 0.00539195 2 0 0.0994487 0.173033
151 1 14.1591 3.2262 0.0325348 4 0.00569485 2 0 0.0994487 -0.246085
156 1 15.3694 3.25723 1.50191 4 0.00989699 2 0 0.0994487 -0.00762661
153 1 15.6993 2.44373 0.692668 4 0.00765796 2 0 0.0994487 0.364483
154 1 16.3029 3.20095 0.662084 4 0.013634 2 0 0.0994487 0.328672
155 1 16.308 2.47951 1.52575 4 0.0103299 2 0 0.0994487 -0.100593
157 1 15.5706 3.25854 0.0192499 4 0.00944008 2 0 0.0994487 0.290262
158 1 17.0646 2.35032 0.682778 4 0.0128256 2 0 0.0994487 0.0235486
161 1 17.0918 3.1162 1.49491 4 0.0192942 2 0 0.0994487 -0.143358
159 1 17.944 2.92608 0.699539 4 0.0241714 2 0 0.0994487 -0.231115
160 1 18.0193 2.43917 1.58112 4 0.0196628 2 0 0.0994487 -0.149071
162 1 18.8908 2.35742 1.01358 4 0.0242586 2 0 0.0994487 -0.516687
163 1 19.7027 3.2427 1.27782 4 0.0514364 2 0 0.0994487 0.403549
164 1 18.884 2.99607 0.196019 4 0.031464 2 0 0.0994487 -0.171773
165 1 19.587 2.34239 0.101452 4 0.0267002 2 0 0.0994487 -0.132344
168 1 20.1948 2.46882 1.11433 4 0.0347289 2 0 0.0994487 0.292882
166 1 20.3251 1.78863 1.72442 4 0.0241847 2 0 0.0994487 0.0450209
170 1 20.4222 2.99313 0.334941 4 0.0455669 2 0 0.0994487 0.186324
167 1 21.1565 2.41663 0.458355 4 0.0428453 2 0 0.0994487 0.196162
169 1 21.31 3.29463 1.39314 4 0.0924313 2 0 0.0994487 0.0323983
173 1 22.0961 2.49917 1.23787 4 0.0740514 2 0 0.0994487 0.182252
174 1 21.9898 3.20043 0.598797 4 0.0942358 2 0 0.0994487 -0.0769747
171 1 22.8719 2.07007 1.50872 4 0.0836078 2 0 0.0994487 -0.040747
172 1 22.9717 2.60199 0.735523 4 0.0965065 2 0 0.0994487 0.133688
175 1 22.6771 3.40124 0.07601 4 0.113691 2 0 0.0994487 0.0761081
176 1 23.7438 1.80844 0.624025 4 0.0715624 2 0 0.0994487 -0.0871085
179 1 23.6887 2.90303 1.53628 4 0.186747 2 0 0.0994487 -0.111874
177 1 24.4289 1.98763 1.61102 4 0.138004 2 0 0.0994487 -0.0813985
178 1 24.342 2.68296 0.775192 4 0.141278 2 0 0.0994487 -0.337901
180 1 24.4728 3.51078 1.55704 0 0.287231 2 0 0.0992015 -0.236578
181 1 24.9562 2.84566 0.0146836 4 0.134307 2 0 0.0994487 -0.0864564
183 1 25.1322 1.85613 0.509414 4 0.0917803 2 0 0.0994487 -0.0215331
185 1 25.1579 2.55548 1.52547 4 0.201204 2 0 0.0994487 0.0580411
182 1 26.5483 1.79415 0.511367 4 0.0796627 2 0 0.0994487 -0.00569677
184 1 25.7918 2.61203 0.707489 4 0.151893 2 0 0.0994487 0.225596
186 1 25.7213 3.49812 1.51211 0 0.340731 2 0 0.0986413 0.171591
187 1 26.5364 2.56002 1.53049 4 0.23659 2 0 0.0994487 0.054354
188 1 26.1686 3.50068 0.599043 4 0.223948 2 0 0.0994487 0.168458
191 1 27.0867 2.6924 0.645359 4 0.133351 2 0 0.0994487 -0.104549
192 1 27.1998 3.35397 1.41682 0 0.273497 2 0 0.0993036 -0.0925396
189 1 27.5039 1.98546 1.23792 4 0.0923111 2 0 0.0994487 -0.184751
190 1 28.2489 2.09022 0.343734 4 0.0555556 2 0 0.0994487 -0.0177189
193 1 28.2537 2.75799 1.20639 4 0.124324 2 0 0.0994487 -0.435089
194 1 27.982 3.21993 0.326384 4 0.120311 2 0 0.0994487 -0.125241
196 1 29.4477 2.04702 0.879698 4 0.0356095 2 0 0.0994487 -0.00706526
197 1 29.1956 2.6589 0.290703 4 0.050617 2 0 0.0994487 -0.0578282
198 1 29.2495 3.2651 1.17365 4 0.105701 2 0 0.0994487 0.13912
195 1 29.9568 1.80906 1.70764 4 0.0232678 2 0 0.0994487 0.18334
200 1 30.1815 2.71094 1.00186 4 0.0352066 2 0 0.0994487 0.67662
203 1 30.1092 3.25953 0.132205 4 0.0361006 2 0 0.0994487 -0.0443659
204 1 30.4116 1.90909 0.0255368 4 0.0136606 2 0 0.0994487 0.106046
199 1 30.9114 1.98502 0.924207 4 0.0137762 2 0 0.0994487 0.96725
201 1 31.0247 3.35309 0.97101 4 0.0286262 2 0 0.0994487 0.99839
202 1 30.9865 2.69483 1.72648 4 0.0213428 2 0 0.0994487 0.579194
205 1 31.1434 2.66402 0.0761253 4 0.0142734 2 0 0.0994487 0.708819
206 1 0.293831 3.78503 0.918557 4 8.30776e-07 2 0 0.0994487 -0.999347
207 1 0.143046 4.59443 0.482118 4 9.7785e-07 2 0 0.0994487 -0.784494
208 1 1.14036 4.67093 0.986638 4 1.95715e-06 2 0 0.0994487 -0.516749
209 1 0.0884667 5.26681 1.27761 4 1.19693e-06 2 0 0.0994487 -0.887459
210 1 1.04069 3.86421 0.0595682 4 1.18947e-06 2 0 0.0994487 0.0148889
211 1 1.84117 4.04604 0.847105 4 2.70584e-06 2 0 0.0994487 0.00827995
212 1 2.54049 4.85585 1.13748 4 6.30973e-06 2 0 0.0994487 -0.333838
213 1 2.64953 4.14475 0.20674 4 5.30673e-06 2 0 0.0994487 -0.0285693
214 1 1.89758 4.96895 0.278386 4 3.95035e-06 2 0 0.0994487 -0.153431
215 1 3.40771 4.86189 0.161635 4 1.23125e-05 2 0 0.0994487 -0.0163841
216 1 3.494 4.07675 0.885909 4 1.00735e-05 2 0 0.0994487 0.0269115
217 1 4.91235 4.00001 1.18344 4 2.89218e-05 2 0 0.0994487 0.0115458
218 1 4.04658 4.88002 1.14639 4 2.06346e-05 2 0 0.0994487 0.264501
219 1 4.26027 4.18509 0.149001 4 1.84009e-05 2 0 0.0994487 0.0377427
220 1 5.00947 4.74001 0.341082 4 4.04141e-05 2 0 0.0994487 0.0765478
221 1 5.77735 3.9378 0.198707 4 4.74492e-05 2 0 0.0994487 0.0260223
222 1 6.48883 3.76611 0.772067 4 7.85502e-05 2 0 0.0994487 0.204576
223 1 5.68025 4.73638 1.02487 4 6.89661e-05 2 0 0.0994487 -0.621584
224 1 6.66321 4.5115 1.6428 4 0.000118099 2 0 0.0994487 0.158943
225 1 6.68072 5.1315 0.885352 4 0.000162615 2 0 0.0994487 0.206895
226 1 8.1982 3.892 0.700757 4 0.000284928 2 0 0.0994487 -0.369872
227 1 7.40842 4.46072 0.5468 4 0.000207941 2 0 0.0994487 -0.0251972
228 1 7.39886 3.87029 1.49684 4 0.000156218 2 0 0.0994487 0.102592
229 1 8.20004 4.61106 1.48677 4 0.000377051 2 0 0.0994487 -0.0118219
230 1 9.8976 3.57792 0.885667 4 0.000696687 2 0 0.0994487 0.592937
231 1 9.07913 4.56551 0.821335 4 0.000653146 2 0 0.0994487 -0.658496
232 1 9.86266 4.50302 0.126324 4 0.000906781 2 0 0.0994487 0.0958782
233 1 9.07829 3.76256 1.49819 4 0.00046407 2 0 0.0994487 -0.0708702
234 1 9.86881 4.3462 1.65532 4 0.000964643 2 0 0.0994487 -0.0856478
235 1 8.98541 3.86821 0.0631775 4 0.000434684 2 0 0.0994487 -0.138744
236 1 11.408 3.64493 0.778297 4 0.00174722 2 0 0.0994487 0.202107
237 1 10.5891 4.66652 0.906264 4 0.00166761 2 0 0.0994487 0.0451978
238 1 11.3867 4.69403 0.230734 4 0.00265359 2 0 0.0994487 -0.0498718
239 1 10.7059 3.56689 1.58785 4 0.00113077 2 0 0.0994487 -0.0448269
240 1 11.3652 4.3716 1.70545 4 0.00230986 2 0 0.0994487 -0.0798061
241 1 11.3894 5.27213 0.983682 4 0.00338009 2 0 0.0994487 -0.674397
242 1 10.5826 3.84888 0.176129 4 0.00109814 2 0 0.0994487 0.21048
243 1 12.5168 3.57716 0.814749 4 0.00311993 2 0 0.0994487 -0.0105201
244 1 12.1916 4.55033 1.00021 4 0.0039484 2 0 0.0994487 0.105201
245 1 12.7362 4.99738 1.68903 4 0.00585296 2 0 0.0994487 0.191356
246 1 13.2258 4.67863 0.80017 4 0.0071549 2 0 0.0994487 -0.00457044
247 1 12.6435 4.61885 0.0632315 4 0.00520118 2 0 0.0994487 -0.0335602
249 1 13.4832 4.21781 1.59317 4 0.00638503 2 0 0.0994487 0.0820524
248 1 13.9891 4.12825 0.69648 4 0.00825746 2 0 0.0994487 -0.43009
250 1 14.2046 5.11838 1.52001 4 0.0135291 2 0 0.0994487 -0.0289534
251 1 14.9402 5.01141 0.811699 4 0.0179004 2 0 0.0994487 -0.0518018
252 1 14.9642 4.4167 1.59432 4 0.0140679 2 0 0.0994487 -0.0635262
253 1 14.1405 4.90647 0.0597868 4 0.0118828 2 0 0.0994487 -0.0856657
254 1 14.961 4.19423 0.096508 4 0.01208 2 0 0.0994487 0.0323018
255 1 15.6685 4.06642 0.926277 4 0.0159379 2 0 0.0994487 0.872641
256 1 15.8798 4.77595 0.186426 4 0.0229277 2 0 0.0994487 0.165433
257 1 16.5936 4.58036 0.900182 4 0.0298326 2 0 0.0994487 -0.0785334
258 1 16.3184 3.95875 1.6903 4 0.0202838 2 0 0.0994487 -0.0433474
259 1 15.8111 5.05317 1.64084 4 0.0255421 2 0 0.0994487 0.0995433
260 1 17.2689 3.83372 0.811237 4 0.0289039 2 0 0.0994487 -0.345263
261 1 18.0864 4.48855 1.09806 4 0.0536474 2 0 0.0994487 -0.642422
262 1 17.9525 3.63794 1.65602 4 0.0362506 2 0 0.0994487 -0.194678
263 1 17.4569 4.57727 0.0147963 4 0.0380284 2 0 0.0994487 -0.0973718
264 1 18.1348 3.8547 0.0583493 4 0.0362672 2 0 0.0994487 -0.120483
268 1 18.7859 5.27693 1.20102 4 0.101261 2 0 0.0994487 0.512217
265 1 18.8779 3.70667 0.95022 4 0.0484074 2 0 0.0994487 0.0534267
266 1 18.8235 4.60949 0.361826 4 0.0635831 2 0 0.0994487 0.115658
267 1 19.6906 4.67872 1.0803 4 0.103025 2 0 0.0994487 0.936183
269 1 19.5987 3.76722 0.227421 4 0.053296 2 0 0.0994487 0.164281
274 1 20.1339 4.78559 0.352846 4 0.107032 2 0 0.0994487 0.145538
270 1 20.4384 3.82188 1.23329 4 0.0894429 2 0 0.0994487 0.397363
271 1 20.8846 4.71868 1.39403 4 0.171949 2 0 0.0994487 0.159904
272 1 21.5775 4.95128 0.810455 4 0.197257 2 0 0.0994487 -0.0242585
273 1 21.0824 3.93136 0.512408 4 0.0980044 2 0 0.0994487 0.0874043
276 1 21.9406 4.13318 1.31068 4 0.180947 2 0 0.0994487 0.0041551
275 1 22.8205 3.63186 1.42135 4 0.200238 2 0 0.0994487 0.0498485
277 1 22.4705 5.17735 1.27286 0 0.296964 2 0 0.0991203 0.0370739
278 1 22.6119 4.34705 0.510028 4 0.185829 2 0 0.0994487 -0.0205554
279 1 23.5735 3.63903 0.782677 4 0.186195 2 0 0.0994487 0.182774
281 1 23.4679 4.54946 1.33355 0 0.299347 2 0 0.0990992 -0.128682
283 1 23.5518 5.06386 0.533607 0 0.303136 2 0 0.0990646 -0.0938356
280 1 24.336 4.32055 0.625018 0 0.278351 2 0 0.0992691 -0.14717
282 1 24.8518 5.25716 0.566763 0 0.378894 2 0 0.0980174 0.0337774
286 1 24.363 5.28843 1.43377 0 0.455714 2 0 0.0957843 -0.342597
284 1 25.0086 4.50055 1.62342 0 0.471198 2 0 0.0950994 -0.30237
285 1 25.0629 3.68037 0.802132 4 0.249932 2 0 0.0994487 -0.193366
290 1 25.5284 4.40089 0.388179 0 0.296952 2 0 0.0991205 0.0546847
287 1 25.6904 5.1389 1.34266 0 0.479607 2 0 0.0946834 0.575787
288 1 26.3575 4.29031 1.37159 0 0.398637 2 0 0.0975912 0.396371
289 1 26.5026 4.97257 0.640732 0 0.350993 2 0 0.0984959 0.0962376
291 1 27.3302 4.86961 1.40568 0 0.437146 2 0 0.0964839 0.0597611
294 1 27.0674 4.04323 0.570038 4 0.239684 2 0 0.0994487 0.0131647
292 1 27.9624 3.97641 1.10408 4 0.231474 2 0 0.0994487 -0.36073
293 1 28.2771 4.73475 0.706344 4 0.246757 2 0 0.0994487 -0.0772074
295 1 28.9321 3.77016 0.487204 4 0.117027 2 0 0.0994487 -0.00738748
296 1 29.0873 4.52317 1.33085 0 0.270318 2 0 0.0993254 0.105431
297 1 29.9979 4.07209 1.02303 4 0.0908902 2 0 0.0994487 -0.251264
299 1 30.2046 4.67765 0.491317 4 0.086172 2 0 0.0994487 0.0108074
298 1 31.0296 3.97382 0.373364 4 0.0333673 2 0 0.0994487 0.657581
300 1 30.9783 4.59929 1.41131 4 0.0656339 2 0 0.0994487 0.71089
301 1 0.908283 5.53205 0.461647 4 2.29312e-06 2 0 0.0994487 -0.463784
302 1 1.53161 5.51184 1.37971 4 3.48269e-06 2 0 0.0994487 -0.117385
303 1 0.793684 6.22023 1.2768 4 2.6741e-06 2 0 0.0994487 -0.70338
304 1 0.257003 6.91734 1.50738 4 2.31677e-06 2 0 0.0994487 -0.772633
305 1 0.969942 6.9454 0.573423 4 3.82131e-06 2 0 0.0994487 -0.473531
306 1 1.7053 7.02884 1.23811 4 6.30696e-06 2 0 0.0994487 0.0665208
307 1 1.89588 6.19966 0.519025 4 5.94391e-06 2 0 0.0994487 -0.156397
308 1 3.10475 5.61709 1.30057 4 1.24868e-05 2 0 0.0994487 0.0402575
309 1 2.26359 6.15348 1.40977 4 7.3275e-06 2 0 0.0994487 0.0408588
310 1 3.25442 6.96226 1.12748 4 2.34756e-05 2 0 0.0994487 -0.0541186
311 1 2.68177 5.61289 0.273587 4 9.05263e-06 2 0 0.0994487 -0.0596826
312 1 3.39503 6.28191 0.500536 4 2.15024e-05 2 0 0.0994487 -0.121438
313 1 4.18979 5.46246 0.325783 4 2.89881e-05 2 0 0.0994487 0.0310235
314 1 4.93434 5.42873 1.31778 4 5.49074e-05 2 0 0.0994487 -0.235091
315 1 4.13622 6.09659 1.22779 4 3.71064e-05 2 0 0.0994487 -0.0893828
316 1 4.82567 6.23357 0.333842 4 6.3678e-05 2 0 0.0994487 -0.0345698
317 1 4.77312 6.79931 1.15967 4 7.87077e-05 2 0 0.0994487 -0.305922
318 1 4.00267 7.02511 0.221759 4 4.27723e-05 2 0 0.0994487 -0.0853401
319 1 5.78575 5.42185 0.301847 4 9.32685e-05 2 0 0.0994487 0.0125089
320 1 5.6935 6.24342 0.9632 4 0.000124936 2 0 0.0994487 -0.967757
321 1 6.4578 5.98425 1.59671 4 0.000188787 2 0 0.0994487 0.140921
322 1 6.43234 6.86927 1.00965 4 0.000265586 2 0 0.0994487 0.85168
323 1 6.37773 6.04115 0.154639 4 0.000163687 2 0 0.0994487 0.111118
324 1 5.54993 7.05206 0.147147 4 0.000134192 2 0 0.0994487 0.0363904
325 1 8.21355 5.31419 0.694273 4 0.000512965 2 0 0.0994487 -0.0895602
326 1 7.32761 6.15925 0.754293 4 0.000378282 2 0 0.0994487 0.225752
327 1 7.39163 5.41839 1.49138 4 0.000294491 2 0 0.0994487 0.136765
328 1 8.23884 6.11028 1.49159 4 0.000714472 2 0 0.0994487 0.0187503
329 1 8.01352 6.85364 0.728993 4 0.00081702 2 0 0.0994487 0.0692025
330 1 7.28191 6.86379 1.59601 4 0.000505722 2 1 0.0994487 0.126051
331 1 7.33029 5.3575 0.0461812 4 0.000249211 2 0 0.0994487 0.0813638
332 1 9.76796 5.3194 0.792562 4 0.00131345 2 0 0.0994487 0.328503
333 1 8.88016 6.18865 0.736908 4 0.00112225 2 0 0.0994487 -0.235516
334 1 9.05434 5.3271 1.5973 4 0.00087674 2 0 0.0994487 -0.0628186
335 1 9.73844 6.19052 1.46731 4 0.00193934 2 0 0.0994487 -0.106444
336 1 9.09351 6.95013 1.463 4 0.00182848 2 2 0.0994487 -0.0758883
337 1 9.76329 6.23201 0.0941385 4 0.00183101 2 0 0.0994487 -0.0359446
338 1 8.99733 5.46479 0.012702 4 0.000837762 2 0 0.0994487 -0.134746
339 1 10.5831 6.02196 0.964384 4 0.00289718 2 0 0.0994487 -0.356262
340 1 11.3128 6.37134 0.0776634 4 0.00424603 2 0 0.0994487 0.100355
341 1 10.5187 6.94145 0.15452 4 0.00361052 2 0 0.0994487 -0.0735259
342 1 10.4686 6.92564 1.49614 4 0.00403874 2 1 0.0994487 -0.0634623
345 1 11.7774 6.20735 1.05291 4 0.00579508 2 0 0.0994487 0.292398
343 1 11.9994 5.6274 0.183157 4 0.00494975 2 0 0.0994487 -0.0105105
344 1 12.6757 5.81849 0.861776 4 0.00816707 2 0 0.0994487 0.081839
346 1 13.3219 5.86668 1.55471 4 0.0113772 2 0 0.0994487 0.208197
347 1 13.3506 6.58297 0.813679 4 0.0164508 2 0 0.0994487 -0.292047
348 1 13.3212 5.53867 0.0424813 4 0.0101245 2 0 0.0994487 -0.142888
349 1 14.0617 5.71565 0.77266 4 0.0161593 2 0 0.0994487 -0.372429
350 1 14.3278 6.65176 1.40646 4 0.0287912 2 1 0.0994487 -0.103088
351 1 14.1303 6.38483 0.0380077 4 0.0197994 2 0 0.0994487 -0.0825905
352 1 15.0282 5.64393 0.034369 4 0.0226533 2 0 0.0994487 0.0573931
354 1 15.0472 6.45091 0.806774 4 0.0346848 2 0 0.0994487 -0.175939
356 1 15.1058 5.87594 1.69804 4 0.0293547 2 0 0.0994487 -0.0976329
353 1 15.8305 5.73813 0.95832 4 0.035638 2 0 0.0994487 0.62598
355 1 16.491 6.45257 1.1401 4 0.0648731 2 0 0.0994487 0.207022
357 1 16.62 5.41933 0.276819 4 0.0402584 2 0 0.0994487 0.0799798
358 1 15.6753 6.3382 0.0390223 4 0.0389139 2 0 0.0994487 0.0398778
361 1 17.0619 6.27419 0.411469 4 0.0684352 2 0 0.0994487 0.139012
359 1 17.8271 5.30128 0.541411 4 0.0614582 2 0 0.0994487 0.1504
360 1 17.113 5.42499 1.24767 4 0.0536542 2 0 0.0994487 -0.286638
362 1 17.6649 6.24649 1.38542 4 0.0948065 2 0 0.0994487 -0.285664
363 1 18.2745 7.0517 1.13153 4 0.143821 2 0 0.0994487 0.703779
364 1 18.3714 6.23173 0.609762 4 0.110862 2 0 0.0994487 0.154807
365 1 19.429 5.75829 0.62055 4 0.13567 2 0 0.0994487 0.0557128
366 1 19.3279 6.55755 1.35081 4 0.194051 2 0 0.0994487 0.338269
367 1 19.9942 6.75229 0.610261 4 0.230605 2 0 0.0994487 -0.00890857
369 1 20.1931 5.61076 1.39557 4 0.192831 2 0 0.0994487 0.35878
368 1 20.7494 5.77593 0.653722 4 0.211384 2 0 0.0994487 -0.102898
370 1 20.7787 6.6124 1.30355 0 0.317119 2 0 0.0989251 -0.531361
371 1 21.6592 6.66248 0.666524 0 0.338982 2 0 0.0986645 -0.0462664
372 1 21.6631 5.87866 1.38528 0 0.326491 2 0 0.0988202 -0.038157
373 1 21.6904 5.73259 0.0517844 4 0.240288 2 0 0.0994487 -0.00177593
374 1 22.6732 5.8279 0.674154 0 0.331664 2 0 0.0987581 0.00501409
375 1 22.6319 6.69333 1.20734 0 0.442777 2 0 0.096284 -0.407689
376 1 23.3484 6.78052 0.267835 0 0.427745 2 0 0.0967926 -0.124948
377 1 23.4822 5.88496 1.30013 0 0.437635 2 0 0.0964665 -0.172524
378 1 24.3197 6.56281 1.15825 0 0.506095 2 0 0.0931381 0.347394
379 1 24.1457 6.00685 0.427617 0 0.408252 2 0 0.0973517 0.00335202
381 1 25.1124 6.04132 1.67733 0 0.612769 2 0 0.0815616 -0.180292
382 1 25.1593 6.74159 0.495153 0 0.485045 2 0 0.0943963 0.0890128
380 1 25.6831 5.86213 0.700952 0 0.448387 2 0 0.0960751 0.159152
383 1 25.8251 6.59457 1.40775 0 0.577632 2 0 0.0865636 0.248464
384 1 26.6903 5.84511 1.4763 0 0.545287 2 0 0.0900481 0.22534
386 1 26.7485 6.36567 0.651888 0 0.448631 2 0 0.096066 0.0375755
385 1 27.4966 5.54334 0.722172 0 0.35976 2 0 0.0983595 -0.239556
387 1 27.7011 6.47315 1.36539 0 0.51958 2 0 0.0921955 0.0915728
389 1 27.7097 7.0074 0.530173 0 0.41279 2 0 0.0972312 0.0281726
388 1 28.3648 5.52203 1.4872 0 0.53034 2 0 0.0913563 -0.0532778
393 1 28.4685 6.20589 0.638647 0 0.321643 2 0 0.098876 -0.256914
395 1 28.4822 5.38976 0.0592959 4 0.218736 2 0 0.0994487 -0.105034
390 1 29.3889 5.30889 0.818726 4 0.216272 2 0 0.0994487 0.309751
391 1 29.4379 6.18214 1.32212 0 0.377812 2 0 0.0980391 0.184768
392 1 29.5784 6.89773 0.506505 4 0.228503 2 0 0.0994487 0.0972745
394 1 29.3762 6.15398 0.0801838 4 0.189075 2 0 0.0994487 0.097361
397 1 30.2159 5.45949 1.46813 0 0.25365 2 0 0.0994288 0.184758
398 1 30.3958 6.18258 0.649752 4 0.145382 2 0 0.0994487 0.319248
396 1 30.9636 5.36838 0.595026 4 0.0789017 2 0 0.0994487 0.665268
399 1 31.2189 6.15516 1.38439 4 0.163209 2 0 0.0994487 0.721624
400 1 31.1994 6.95407 0.60342 4 0.105459 2 0 0.0994487 0.807823
401 1 31.7235 5.99622 0.446564 4 0.055571 2 0 0.0994487 0.879491
402 1 0.261851 7.63199 0.661866 4 2.9891e-06 2 0 0.0994487 -0.876373
403 1 0.831025 8.46344 0.61936 4 4.89181e-06 2 0 0.0994487 -0.577625
404 1 1.11211 7.86396 1.49711 4 4.91281e-06 2 0 0.0994487 -0.154427
405 1 0.356955 8.5626 1.47035 4 3.66918e-06 2 0 0.0994487 -0.764984
406 1 1.59266 7.76478 0.37187 4 7.19897e-06 2 0 0.0994487 -0.0897864
407 1 1.72382 8.61735 1.46471 4 9.29446e-06 2 0 0.0994487 0.0395983
408 1 2.48799 7.14986 0.476331 4 1.32356e-05 2 0 0.0994487 -0.0836923
409 1 2.19177 8.6335 0.399707 4 1.43086e-05 2 0 0.0994487 -0.137265
410 1 2.39416 7.81099 1.27726 4 1.39303e-05 2 0 0.0994487 0.086995
411 1 3.01349 8.51445 0.935533 4 2.78428e-05 2 0 0.0994487 -0.539299
412 1 3.24418 7.77117 0.327041 4 2.86183e-05 2 0 0.0994487 -0.196201
413 1 3.81243 8.45898 0.0822892 4 4.78021e-05 2 0 0.0994487 -0.0457762
414 1 3.97971 7.67009 1.24863 4 5.04105e-05 2 0 0.0994487 -0.0554843
415 1 4.70459 8.25653 0.921772 4 0.000100783 2 0 0.0994487 0.29536
416 1 4.67023 7.63706 0.247803 4 8.17228e-05 2 0 0.0994487 0.0376965
417 1 3.81127 8.34851 1.76162 4 4.77187e-05 2 0 0.0994487 -0.057434
418 1 5.86955 8.34822 0.169905 4 0.000232247 2 0 0.0994487 0.113108
419 1 5.48363 7.59071 1.03232 4 0.000166421 2 0 0.0994487 -0.467648
420 1 6.49365 7.53799 0.169175 4 0.000310774 2 0 0.0994487 0.187627
421 1 6.39674 8.23976 1.04384 4 0.000399419 2 0 0.0994487 0.338163
422 1 7.28583 7.76918 0.746313 4 0.000690206 2 1 0.0994487 0.00993619
423 1 8.2859 8.31376 0.868772 4 0.00165155 2 2 0.0994487 0.278524
424 1 7.27857 8.18368 1.7015 4 0.000892113 2 2 0.0994487 -0.174786
425 1 8.05208 7.48784 1.5604 4 0.00112767 2 1 0.0994487 0.185054
426 1 7.99895 7.60312 0.0282118 4 0.000914361 2 0 0.0994487 0.0674164
427 1 9.84313 7.22199 0.72344 4 0.00305878 2 1 0.0994487 -0.346912
428 1 8.91207 7.61626 0.661731 4 0.00193017 2 1 0.0994487 0.158633
429 1 9.73234 8.61964 0.693151 4 0.00445743 2 3 0.0994487 -0.257124
430 1 9.09265 8.69904 1.44495 4 0.00352612 2 9 0.0994487 -0.395022
431 1 9.64026 7.88932 1.60055 4 0.00402626 2 8 0.0994487 -0.340512
432 1 11.3161 7.14287 0.810636 4 0.00642167 2 1 0.0994487 0.448606
433 1 10.5731 7.9454 0.844311 4 0.0058707 2 3 0.0994487 -0.198088
434 1 10.5877 8.70196 1.4255 4 0.00787552 1 8 0.0994487 -0.145783
435 1 11.4057 7.80503 1.60301 4 0.0098114 2 7 0.0994487 0.228623
436 1 11.227 8.11851 0.0422735 4 0.00728018 2 0 0.0994487 0.174338
437 1 12.7061 7.28322 0.565784 4 0.015431 2 0 0.0994487 -0.0531081
438 1 12.178 8.23518 0.590765 4 0.0149692 2 2 0.0994487 0.163983
439 1 12.0637 7.15788 1.37768 4 0.0106013 2 3 0.0994487 0.145862
440 1 12.0887 8.68064 1.49044 4 0.0186627 1 8 0.0994487 0.082566
441 1 12.8601 7.99585 1.47598 4 0.0246287 2 6 0.0994487 -0.216785
444 1 13.458 7.34024 1.34133 4 0.0253868 2 2 0.0994487 0.0546197
443 1 13.6169 8.09282 0.464536 4 0.0307144 2 2 0.0994487 0.023794
442 1 14.3373 7.3542 0.580954 4 0.0346815 2 0 0.0994487 0.0649409
445 1 14.2471 8.18371 1.35246 4 0.049931 2 5 0.0994487 0.024371