ITEM: TIMESTEP
14500
ITEM: NUMBER OF ATOMS
9495
ITEM: BOX BOUNDS mm mm mm
0.0000000000000000e+00 3.1748021039364001e+01
0.0000000000000000e+00 3.1748021039364001e+01
-7.4072398406925706e-04 3.1748021039364001e+01
ITEM: ATOMS id type x y z c_phase c_temp c_surf c_nbond c_visc f_3[1]
1 1 0.116341 1.10259 0.464337 4 1.31504e-10 2 0 0.0994487 -0.68194
2 1 0.974108 1.6685 0.77798 4 4.59698e-10 2 0 0.0994487 -0.517031
3 1 0.714648 0.793562 1.41295 4 2.09767e-10 2 0 0.0994487 -0.281793
4 1 0.00336375 1.60273 1.37437 4 1.65238e-10 2 0 0.0994487 -0.804051
5 1 0.729896 0.0633724 0.61602 4 1.1901e-10 3 0 0.0994487 -0.190374
6 1 1.71015 0.808983 1.0155 4 7.03714e-10 2 0 0.0994487 -0.332068
7 1 1.80059 1.47468 0.221075 4 8.8845e-10 2 0 0.0994487 -0.125828
8 1 1.82015 1.66049 1.76126 4 1.09145e-09 2 0 0.0994487 -0.139532
9 1 2.52093 0.749102 0.203812 4 1.37143e-09 2 0 0.0994487 -0.142939
10 1 2.59149 0.0538711 1.03726 4 1.20554e-09 2 0 0.0994487 -0.295004
11 1 2.64922 1.541 0.882848 4 2.73926e-09 2 0 0.0994487 0.235762
12 1 2.66829 0.815502 1.7457 4 1.81689e-09 2 0 0.0994487 -0.18704
13 1 3.43386 0.933692 0.956349 4 5.00575e-09 2 0 0.0994487 0.320248
14 1 3.49924 0.0925696 1.70571 4 2.77334e-09 2 0 0.0994487 0.178054
15 1 3.60652 1.70798 1.71994 4 8.34272e-09 2 0 0.0994487 0.0487968
16 1 4.10576 0.858321 0.325305 4 9.78571e-09 2 0 0.0994487 0.153148
17 1 4.96159 0.56786 1.17466 4 2.49022e-08 2 0 0.0994487 -0.0370638
18 1 4.91949 1.59987 0.383508 4 3.8162e-08 2 0 0.0994487 -0.100245
19 1 4.3472 0.941527 1.62884 4 1.33949e-08 2 0 0.0994487 0.110741
20 1 3.47612 0.111428 0.171027 4 2.49855e-09 2 0 0.0994487 0.166216
21 1 5.64741 0.645627 0.325839 4 5.15143e-08 2 0 0.0994487 -0.0806026
22 1 5.88414 1.31048 0.938036 4 9.36747e-08 2 0 0.0994487 -0.199564
23 1 6.57478 1.39104 0.218369 4 1.88658e-07 2 0 0.0994487 -0.0861302
24 1 5.78374 0.460658 1.69897 4 5.04937e-08 2 0 0.0994487 -0.08465
25 1 5.03122 1.72414 1.43602 4 4.41665e-08 2 0 0.0994487 0.0453758
26 1 6.7138 0.39031 0.865278 4 1.40235e-07 2 0 0.0994487 -0.0793787
27 1 6.69104 1.00962 1.69374 4 1.62911e-07 2 0 0.0994487 -0.10792
28 1 8.2679 0.408875 1.07337 4 5.8048e-07 2 0 0.0994487 -0.100162
29 1 7.36782 1.22285 0.954198 4 3.86843e-07 2 0 0.0994487 -0.302531
30 1 8.24709 1.39092 0.236779 4 8.96904e-07 2 0 0.0994487 -0.0460596
31 1 8.12868 1.27217 1.60653 4 7.40596e-07 2 0 0.0994487 -0.00811246
32 1 7.58247 0.647807 0.140287 4 3.3602e-07 2 0 0.0994487 -0.110933
33 1 8.85849 0.508506 0.273966 4 9.63843e-07 2 0 0.0994487 -0.0616428
34 1 9.55301 0.3386 0.888639 4 1.68591e-06 2 0 0.0994487 0.00506935
35 1 9.02586 1.30716 1.1133 4 1.78559e-06 2 0 0.0994487 -0.0606286
37 1 9.63995 1.37474 0.0900752 4 2.59848e-06 2 0 0.0994487 0.0992951
38 1 11.2128 0.215893 0.632658 4 6.31005e-06 2 0 0.0994487 0.203511
39 1 10.3637 1.04743 0.823114 4 4.66413e-06 2 0 0.0994487 0.539901
40 1 10.523 0.196295 1.44539 4 3.48855e-06 2 0 0.0994487 0.0644331
41 1 11.2856 1.01846 1.41785 4 1.06384e-05 2 0 0.0994487 0.164718
42 1 10.5797 1.67706 1.72992 4 8.02332e-06 2 0 0.0994487 0.11817
43 1 10.2431 0.367861 0.0780499 4 2.36053e-06 2 0 0.0994487 0.149804
44 1 12.8757 0.211714 0.636805 4 2.48943e-05 2 0 0.0994487 0.0587956
45 1 12.0457 1.07408 0.506655 4 2.11356e-05 2 0 0.0994487 -0.0235413
46 1 12.1319 0.316439 1.29957 4 1.52448e-05 2 0 0.0994487 0.0188457
47 1 12.7194 1.19864 1.3723 4 3.82417e-05 2 0 0.0994487 -0.0305121
48 1 14.3729 0.318493 0.764646 4 7.58489e-05 2 0 0.0994487 -0.0460298
49 1 13.5924 1.113 0.843618 4 7.10653e-05 2 0 0.0994487 -0.263027
50 1 14.0399 1.55958 0.167469 4 0.000116729 2 0 0.0994487 -0.0898167
51 1 13.6075 0.359834 1.6352 4 4.36954e-05 2 0 0.0994487 -0.0562557
52 1 14.3777 1.14948 1.47647 4 0.000109264 2 0 0.0994487 -0.0178146
53 1 14.8761 1.55337 0.662943 4 0.000190609 2 0 0.0994487 0.389975
54 1 15.7061 0.770636 0.788259 4 0.000207226 2 0 0.0994487 0.366503
55 1 16.5532 1.54451 0.681338 4 0.000551741 2 0 0.0994487 0.000836353
56 1 15.1422 0.4642 1.64149 4 0.000117587 2 0 0.0994487 0.152086
57 1 16.547 0.712289 1.3421 4 0.000354321 2 0 0.0994487 0.0956473
58 1 15.6341 1.48544 1.3916 4 0.000299262 2 0 0.0994487 0.153654
59 1 15.1049 0.711806 0.0677822 4 0.000115785 2 0 0.0994487 0.169209
60 1 17.2544 0.732268 0.547589 4 0.000499609 2 0 0.0994487 0.028647
61 1 17.9231 1.58109 0.757246 4 0.0011024 2 0 0.0994487 0.041597
62 1 17.916 0.742935 1.42801 4 0.000717569 2 0 0.0994487 -0.224353
63 1 17.2202 1.74884 1.56274 4 0.000913364 2 0 0.0994487 -0.0984608
64 1 19.5372 0.0167772 0.662766 4 0.000789884 2 0 0.0994487 0.0436544
65 1 18.7918 0.725074 0.684829 4 0.000928905 2 0 0.0994487 -0.269925
66 1 19.5395 1.55488 0.841653 4 0.00189451 2 0 0.0994487 -0.341118
67 1 19.0276 0.158607 1.54508 4 0.000759645 2 0 0.0994487 -0.158654
68 1 19.5934 0.967491 1.68957 4 0.00131134 2 0 0.0994487 0.00836969
69 1 18.6564 1.51302 1.50035 4 0.00141072 2 0 0.0994487 -0.250274
70 1 21.0889 0.349843 1.06749 4 0.00134875 2 0 0.0994487 -0.196107
71 1 20.2493 0.776373 0.980057 4 0.00143053 2 0 0.0994487 -0.049721
72 1 21.1062 1.65725 0.951506 4 0.00269928 2 0 0.0994487 0.693011
73 1 21.1874 0.765598 0.218806 4 0.00154741 2 0 0.0994487 -0.0445757
74 1 20.3457 1.51479 0.193617 4 0.00213029 2 0 0.0994487 -0.0805857
75 1 22.0087 0.262534 0.539755 4 0.00137049 2 0 0.0994487 0.0993755
76 1 22.7913 0.430275 1.40734 4 0.00155732 2 0 0.0994487 0.206624
77 1 22.1105 1.14763 1.32981 4 0.00213988 2 0 0.0994487 0.240075
78 1 21.9982 1.59955 0.538558 4 0.00288912 2 0 0.0994487 0.185205
79 1 22.9157 1.07463 0.445168 4 0.00212946 2 0 0.0994487 0.0521115
80 1 24.228 0.380179 1.45209 4 0.00153442 2 0 0.0994487 0.057634
81 1 23.5672 0.357563 0.57369 4 0.00154271 2 0 0.0994487 0.0385914
82 1 24.4367 1.18687 0.754729 4 0.00234911 2 0 0.0994487 -0.0192493
83 1 23.4757 1.2499 1.4028 4 0.00253556 2 0 0.0994487 0.0299143
84 1 24.955 0.315686 0.551996 4 0.00134709 2 0 0.0994487 -0.0171817
85 1 26.0085 0.383365 1.1715 4 0.00109903 2 0 0.0994487 -0.185845
86 1 25.169 1.12579 1.48087 4 0.00206461 2 0 0.0994487 0.0251257
87 1 25.9301 1.73476 1.35794 4 0.00253429 2 0 0.0994487 0.0345605
88 1 25.8917 0.929212 0.432102 4 0.00146201 2 0 0.0994487 -0.0954034
89 1 27.5736 1.28032 0.38906 4 0.000961515 2 0 0.0994487 0.0454593
90 1 27.6142 0.50928 0.874321 4 0.000673962 2 0 0.0994487 0.175399
91 1 26.7559 1.02809 1.26347 4 0.00116213 2 0 0.0994487 -0.23686
92 1 28.3748 0.337482 1.39813 4 0.000436943 2 0 0.0994487 0.00985221
93 1 26.7925 0.240345 0.226621 4 0.000739695 2 0 0.0994487 0.0380815
94 1 28.6489 1.24263 0.742341 4 0.000612134 2 0 0.0994487 0.102418
95 1 29.3912 0.945639 1.56878 4 0.000345133 2 0 0.0994487 -0.019196
96 1 28.5228 1.71921 1.49749 4 0.000808135 2 0 0.0994487 -0.0429702
97 1 29.8133 0.173958 1.46124 4 0.00020055 2 0 0.0994487 0.133418
98 1 29.2734 0.3547 0.615275 4 0.000273305 2 0 0.0994487 -0.0816778
99 1 31.5874 0.266128 1.25663 4 7.61066e-05 3 0 0.0994487 0.830097
100 1 30.7016 0.49015 0.470738 4 0.000146933 2 0 0.0994487 0.354852
101 1 30.1009 1.19877 0.774133 4 0.000286324 2 0 0.0994487 0.210926
102 1 30.8649 0.971942 1.39386 4 0.000179425 2 0 0.0994487 0.703282
103 1 1.11081 2.43607 0.129285 4 6.2636e-10 2 0 0.0994487 -0.0373218
104 1 0.133403 2.3821 0.812241 4 2.99883e-10 2 0 0.0994487 -0.984517
105 1 1.28845 3.23764 0.949187 4 1.51095e-09 2 0 0.0994487 0.222098
106 1 1.13977 2.36077 1.59162 4 7.881e-10 2 0 0.0994487 -0.222189
107 1 0.386685 3.02999 1.54944 4 5.28921e-10 2 0 0.0994487 -0.671256
108 1 0.332248 3.09582 0.131296 4 4.3934e-10 2 0 0.0994487 -0.59134
109 1 1.90972 2.41867 0.78376 4 1.87087e-09 2 0 0.0994487 0.0782119
110 1 2.65852 3.28029 0.860875 4 7.67531e-09 2 0 0.0994487 0.0668074
111 1 2.66931 2.22918 1.53373 4 4.01271e-09 2 0 0.0994487 0.0829568
112 1 3.2579 3.42668 1.64938 4 1.56796e-08 2 0 0.0994487 0.00397712
113 1 2.7261 2.38168 0.0557193 4 3.44375e-09 2 0 0.0994487 0.146601
114 1 3.38195 2.55413 0.779289 4 1.11955e-08 2 0 0.0994487 0.211587
115 1 4.00679 1.841 0.711184 4 1.58953e-08 2 0 0.0994487 -0.0361193
116 1 4.91383 2.57277 0.815661 4 6.58191e-08 2 0 0.0994487 -0.259342
117 1 4.20148 3.3175 0.749446 4 4.48708e-08 2 0 0.0994487 0.00621925
118 1 4.13245 2.64107 1.58328 4 2.72526e-08 2 0 0.0994487 0.0270804
119 1 5.65047 2.44269 0.132743 4 1.23168e-07 2 0 0.0994487 -0.189923
120 1 6.55776 2.18062 0.772597 4 2.91709e-07 2 0 0.0994487 -0.289355
121 1 5.64874 3.19593 0.952489 4 2.00016e-07 2 0 0.0994487 -0.754619
122 1 5.861 2.19426 1.49672 4 1.36487e-07 2 0 0.0994487 0.0126392
123 1 6.52037 3.06691 1.5557 4 4.35378e-07 2 0 0.0994487 0.0443613
124 1 6.65033 2.92778 0.134227 4 4.03315e-07 2 0 0.0994487 0.0288899
125 1 7.45405 2.22586 0.139832 4 6.80243e-07 2 0 0.0994487 -0.0534984
126 1 8.08209 2.20208 0.930382 4 1.31627e-06 2 0 0.0994487 -0.302039
127 1 7.40132 3.06835 0.934051 4 1.12443e-06 2 0 0.0994487 -0.0454772
128 1 7.29928 2.06035 1.56856 4 5.40839e-07 2 0 0.0994487 -0.0607289
129 1 8.18545 3.00183 1.65211 4 2.17277e-06 2 0 0.0994487 -0.0454118
130 1 8.26934 2.9712 0.0392146 4 2.26652e-06 2 0 0.0994487 -0.150614
131 1 8.90393 2.08699 0.252387 4 2.35779e-06 2 0 0.0994487 0.00243867
132 1 9.77243 2.0246 1.10996 4 5.20384e-06 2 0 0.0994487 0.173487
133 1 8.92671 2.97262 0.928693 4 4.51729e-06 2 0 0.0994487 -0.156719
134 1 9.03062 2.22066 1.70398 4 2.97157e-06 2 0 0.0994487 -0.0819636
135 1 9.56096 2.90576 0.21312 4 6.68179e-06 2 0 0.0994487 0.173125
136 1 10.2834 2.1137 0.214297 4 6.87361e-06 2 0 0.0994487 0.337743
137 1 11.1583 1.82604 0.771092 4 1.52899e-05 2 0 0.0994487 0.260104
138 1 10.6214 2.80819 0.921535 4 1.80097e-05 2 0 0.0994487 0.541938
139 1 11.4444 2.82964 1.57484 4 3.67884e-05 2 0 0.0994487 0.0952096
140 1 12.6737 1.94118 0.593851 4 6.08324e-05 2 0 0.0994487 -0.283918
141 1 11.928 2.64099 0.742299 4 4.97238e-05 2 0 0.0994487 -0.0386585
142 1 11.9239 1.9206 1.46509 4 3.08498e-05 2 0 0.0994487 0.0946662
143 1 12.8449 3.01766 1.68597 4 0.000119895 2 0 0.0994487 0.0363661
144 1 13.1791 3.03035 0.848852 4 0.00016583 2 0 0.0994487 -0.440825
145 1 13.3784 1.9912 1.48064 4 9.64461e-05 2 0 0.0994487 -0.0150594
146 1 14.0206 2.44438 0.927124 4 0.000205259 2 0 0.0994487 -0.133039
147 1 14.0279 3.38359 1.55716 4 0.000354878 2 0 0.0994487 0.0255862
148 1 14.6961 3.43698 0.884932 4 0.000586019 2 0 0.0994487 -0.332848
149 1 14.7823 2.29758 1.44821 4 0.000296039 2 0 0.0994487 0.0469405
150 1 14.8418 2.51505 0.136557 4 0.000336052 2 0 0.0994487 0.173015
151 1 14.1591 3.2262 0.0325348 4 0.000348188 2 0 0.0994487 -0.246098
152 1 13.4137 2.29398 0.0590902 4 0.000121219 2 0 0.0994487 -0.280955
153 1 15.6993 2.44373 0.692668 4 0.000575018 2 0 0.0994487 0.364428
154 1 16.3029 3.20095 0.662084 4 0.00128481 2 0 0.0994487 0.328621
155 1 16.308 2.47951 1.52575 4 0.00087969 2 0 0.0994487 -0.100625
156 1 15.3694 3.25723 1.50191 4 0.000800474 2 0 0.0994487 -0.0076532
157 1 15.5706 3.25854 0.0192499 4 0.000741436 2 0 0.0994487 0.290247
158 1 17.0646 2.35032 0.682778 4 0.00119592 2 0 0.0994487 0.0235097
159 1 17.944 2.92608 0.699539 4 0.00271793 2 0 0.0994487 -0.231156
160 1 18.0193 2.43917 1.58112 4 0.002021 2 0 0.0994487 -0.149106
161 1 17.0918 3.1162 1.49491 4 0.00201464 2 0 0.0994487 -0.143403
162 1 18.8908 2.35742 1.01358 4 0.00264249 2 0 0.0994487 -0.516754
163 1 19.7027 3.2427 1.27782 4 0.00576785 2 0 0.0994487 0.394939
164 1 18.884 2.99607 0.196019 4 0.0038431 2 0 0.0994487 -0.17179
165 1 19.587 2.34239 0.101452 4 0.0030703 2 0 0.0994487 -0.132355
166 1 20.3251 1.78863 1.72442 4 0.00240731 2 0 0.0994487 0.0449783
167 1 21.1565 2.41663 0.458355 4 0.00463845 2 0 0.0994487 0.196219
168 1 20.1948 2.46882 1.11433 4 0.00386839 2 0 0.0994487 0.286877
169 1 21.31 3.29463 1.39314 4 0.00936548 2 0 0.0994487 0.0777744
170 1 20.4222 2.99313 0.334941 4 0.00572828 2 0 0.0994487 0.186319
171 1 22.8719 2.07007 1.50872 4 0.00453527 2 0 0.0994487 -0.0220902
172 1 22.9717 2.60199 0.735523 4 0.00720084 2 0 0.0994487 0.133384
173 1 22.0961 2.49917 1.23787 4 0.00602437 2 0 0.0994487 0.186511
174 1 21.9898 3.20043 0.598797 4 0.0101723 2 0 0.0994487 -0.0756917
175 1 22.6771 3.40124 0.07601 4 0.0120475 2 0 0.0994487 0.0760915
176 1 23.7438 1.80844 0.624025 4 0.00366191 2 0 0.0994487 -0.087323
177 1 24.4289 1.98763 1.61102 4 0.00404812 2 0 0.0994487 -0.064154
178 1 24.342 2.68296 0.775192 4 0.00677269 2 0 0.0994487 -0.341044
179 1 23.6887 2.90303 1.53628 4 0.0084216 2 0 0.0994487 -0.110472
180 1 24.4728 3.51078 1.55704 4 0.0122377 2 0 0.0994487 -0.118278
181 1 24.9562 2.84566 0.0146836 4 0.00626792 2 0 0.0994487 -0.0864496
182 1 26.5483 1.79415 0.511367 4 0.00205697 2 0 0.0994487 -0.0055838
183 1 25.1322 1.85613 0.509414 4 0.00333486 2 0 0.0994487 -0.021507
184 1 25.7918 2.61203 0.707489 4 0.00493547 2 0 0.0994487 0.228233
185 1 25.1579 2.55548 1.52547 4 0.00547346 2 0 0.0994487 0.0576879
186 1 25.7213 3.49812 1.51211 4 0.00948111 2 0 0.0994487 0.123874
187 1 26.5364 2.56002 1.53049 4 0.00359905 2 0 0.0994487 0.0579617
188 1 26.1686 3.50068 0.599043 4 0.00822348 2 0 0.0994487 0.168865
189 1 27.5039 1.98546 1.23792 4 0.00155667 2 0 0.0994487 -0.186393
190 1 28.2489 2.09022 0.343734 4 0.00115192 2 0 0.0994487 -0.0177172
191 1 27.0867 2.6924 0.645359 4 0.00309828 2 0 0.0994487 -0.105581
192 1 27.1998 3.35397 1.41682 4 0.00459324 2 0 0.0994487 -0.0983147
193 1 28.2537 2.75799 1.20639 4 0.00178237 2 0 0.0994487 -0.418288
194 1 27.982 3.21993 0.326384 4 0.00264668 2 0 0.0994487 -0.125251
195 1 29.9568 1.80906 1.70764 4 0.000415208 2 0 0.0994487 0.183204
196 1 29.4477 2.04702 0.879698 4 0.000638771 2 0 0.0994487 -0.00706586
197 1 29.1956 2.6589 0.290703 4 0.000980865 2 0 0.0994487 -0.0578238
198 1 29.2495 3.2651 1.17365 4 0.00140803 2 0 0.0994487 0.118646
199 1 30.9114 1.98502 0.924207 4 0.000323945 2 0 0.0994487 0.967254
200 1 30.1815 2.71094 1.00186 4 0.000626451 2 0 0.0994487 0.675139
201 1 31.0247 3.35309 0.97101 4 0.000609448 2 0 0.0994487 0.99841
202 1 30.9865 2.69483 1.72648 4 0.000429124 2 0 0.0994487 0.578503
203 1 30.1092 3.25953 0.132205 4 0.000771922 2 0 0.0994487 -0.0443638
204 1 30.4116 1.90909 0.0255368 4 0.000336689 2 0 0.0994487 0.106046
205 1 31.1434 2.66402 0.0761253 4 0.000373803 2 0 0.0994487 0.708821
206 1 0.293831 3.78503 0.918557 4 7.30412e-10 2 0 0.0994487 -0.999347
207 1 0.143046 4.59443 0.482118 4 8.75976e-10 2 0 0.0994487 -0.784494
208 1 1.14036 4.67093 0.986638 4 2.7406e-09 2 0 0.0994487 -0.51675
209 1 0.0884667 5.26681 1.27761 4 1.12014e-09 2 0 0.0994487 -0.887458
210 1 1.04069 3.86421 0.0595682 4 1.35562e-09 2 0 0.0994487 0.0148883
211 1 1.84117 4.04604 0.847105 4 4.64093e-09 2 0 0.0994487 0.00827271
212 1 2.54049 4.85585 1.13748 4 1.53112e-08 2 0 0.0994487 -0.333843
213 1 2.64953 4.14475 0.20674 4 1.19128e-08 2 0 0.0994487 -0.0285711
214 1 1.89758 4.96895 0.278386 4 7.52589e-09 2 0 0.0994487 -0.153433
215 1 3.40771 4.86189 0.161635 4 3.92811e-08 2 0 0.0994487 -0.0163866
216 1 3.494 4.07675 0.885909 4 3.09815e-08 2 0 0.0994487 0.0268998
217 1 4.91235 4.00001 1.18344 4 1.42736e-07 2 0 0.0994487 0.0115231
218 1 4.04658 4.88002 1.14639 4 8.57222e-08 2 0 0.0994487 0.264494
219 1 4.26027 4.18509 0.149001 4 7.06335e-08 2 0 0.0994487 0.0377398
220 1 5.00947 4.74001 0.341082 4 2.18125e-07 2 0 0.0994487 0.0765429
221 1 5.77735 3.9378 0.198707 4 2.84992e-07 2 0 0.0994487 0.0260179
222 1 6.48883 3.76611 0.772067 4 6.26629e-07 2 0 0.0994487 0.204561
223 1 5.68025 4.73638 1.02487 4 4.79314e-07 2 0 0.0994487 -0.621655
224 1 6.66321 4.5115 1.6428 4 1.06269e-06 2 0 0.0994487 0.158937
225 1 6.68072 5.1315 0.885352 4 1.63593e-06 2 0 0.0994487 0.206871
226 1 8.1982 3.892 0.700757 4 4.00294e-06 2 0 0.0994487 -0.369891
227 1 7.40842 4.46072 0.5468 4 2.41158e-06 2 0 0.0994487 -0.025207
228 1 7.39886 3.87029 1.49684 4 1.67343e-06 2 0 0.0994487 0.102582
229 1 8.20004 4.61106 1.48677 4 5.69362e-06 2 0 0.0994487 -0.0118318
230 1 9.8976 3.57792 0.885667 4 1.54744e-05 2 0 0.0994487 0.592847
231 1 9.07913 4.56551 0.821335 4 1.2796e-05 2 0 0.0994487 -0.658523
232 1 9.86266 4.50302 0.126324 4 2.08711e-05 2 0 0.0994487 0.0958698
233 1 9.07829 3.76256 1.49819 4 8.26073e-06 2 0 0.0994487 -0.0708802
234 1 9.86881 4.3462 1.65532 4 2.30499e-05 2 0 0.0994487 -0.0856574
235 1 8.98541 3.86821 0.0631775 4 7.29782e-06 2 0 0.0994487 -0.13875
236 1 11.408 3.64493 0.778297 4 5.93033e-05 2 0 0.0994487 0.20208
237 1 10.5891 4.66652 0.906264 4 5.14488e-05 2 0 0.0994487 0.0451187
238 1 11.3867 4.69403 0.230734 4 0.000100097 2 0 0.0994487 -0.0498837
239 1 10.7059 3.56689 1.58785 4 3.12028e-05 2 0 0.0994487 -0.0448418
240 1 11.3652 4.3716 1.70545 4 8.32714e-05 2 0 0.0994487 -0.0798206
241 1 11.3894 5.27213 0.983682 4 0.00013726 2 0 0.0994487 -0.674452
242 1 10.5826 3.84888 0.176129 4 2.92798e-05 2 0 0.0994487 0.210471
243 1 12.5168 3.57716 0.814749 4 0.000140023 2 0 0.0994487 -0.010558
244 1 12.1916 4.55033 1.00021 4 0.000184429 2 0 0.0994487 0.105099
245 1 12.7362 4.99738 1.68903 4 0.000317276 2 0 0.0994487 0.191338
246 1 13.2258 4.67863 0.80017 4 0.000441151 2 0 0.0994487 -0.00465753
247 1 12.6435 4.61885 0.0632315 4 0.000268662 2 0 0.0994487 -0.0335738
248 1 13.9891 4.12825 0.69648 4 0.000569958 2 0 0.0994487 -0.430149
249 1 13.4832 4.21781 1.59317 4 0.000387164 2 0 0.0994487 0.082029
250 1 14.2046 5.11838 1.52001 4 0.00109144 2 0 0.0994487 -0.0289792
251 1 14.9402 5.01141 0.811699 4 0.00167082 2 0 0.0994487 -0.0524224
252 1 14.9642 4.4167 1.59432 4 0.00122063 2 0 0.0994487 -0.0635499
253 1 14.1405 4.90647 0.0597868 4 0.000902284 2 0 0.0994487 -0.0856853
254 1 14.961 4.19423 0.096508 4 0.000995485 2 0 0.0994487 0.0322826
255 1 15.6685 4.06642 0.926277 4 0.0015261 2 0 0.0994487 0.872609
256 1 15.8798 4.77595 0.186426 4 0.00245282 2 0 0.0994487 0.165405
257 1 16.5936 4.58036 0.900182 4 0.00355836 2 0 0.0994487 -0.0788174
258 1 16.3184 3.95875 1.6903 4 0.00211894 2 0 0.0994487 -0.0433788
259 1 15.8111 5.05317 1.64084 4 0.00276231 2 0 0.0994487 0.0995142
260 1 17.2689 3.83372 0.811237 4 0.00341561 2 0 0.0994487 -0.345335
261 1 18.0864 4.48855 1.09806 4 0.00699111 2 0 0.0994487 -0.6119
262 1 17.9525 3.63794 1.65602 4 0.00410129 2 0 0.0994487 -0.19278
263 1 17.4569 4.57727 0.0147963 4 0.00496131 2 0 0.0994487 -0.0973945
264 1 18.1348 3.8547 0.0583493 4 0.00466172 2 0 0.0994487 -0.120501
265 1 18.8779 3.70667 0.95022 4 0.0059862 2 0 0.0994487 0.0694604
266 1 18.8235 4.60949 0.361826 4 0.0095288 2 0 0.0994487 0.115636
267 1 19.6906 4.67872 1.0803 4 0.0154864 2 0 0.0994487 0.931556
268 1 18.7859 5.27693 1.20102 4 0.0151563 2 0 0.0994487 0.599336
269 1 19.5987 3.76722 0.227421 4 0.00752202 2 0 0.0994487 0.164292
270 1 20.4384 3.82188 1.23329 4 0.0111273 2 0 0.0994487 0.326026
271 1 20.8846 4.71868 1.39403 4 0.0253629 2 0 0.0994487 0.149115
272 1 21.5775 4.95128 0.810455 4 0.0374487 2 0 0.0994487 -0.00358188
273 1 21.0824 3.93136 0.512408 4 0.0144054 2 0 0.0994487 0.0883483
274 1 20.1339 4.78559 0.352846 4 0.0192954 2 0 0.0994487 0.145619
275 1 22.8205 3.63186 1.42135 4 0.0150891 2 0 0.0994487 -0.018361
276 1 21.9406 4.13318 1.31068 4 0.0207375 2 0 0.0994487 0.0272625
277 1 22.4705 5.17735 1.27286 4 0.050552 2 0 0.0994487 0.0207847
278 1 22.6119 4.34705 0.510028 4 0.0257244 2 0 0.0994487 -0.0220577
279 1 23.5735 3.63903 0.782677 4 0.0155562 2 0 0.0994487 0.185642
280 1 24.336 4.32055 0.625018 4 0.0242906 2 0 0.0994487 -0.150054
281 1 23.4679 4.54946 1.33355 4 0.0316584 2 0 0.0994487 -0.0790019
282 1 24.8518 5.25716 0.566763 4 0.0411254 2 0 0.0994487 0.0409363
283 1 23.5518 5.06386 0.533607 4 0.0456014 2 0 0.0994487 -0.0968382
284 1 25.0086 4.50055 1.62342 4 0.0235442 2 0 0.0994487 -0.0421782
285 1 25.0629 3.68037 0.802132 4 0.0128503 2 0 0.0994487 -0.187865
286 1 24.363 5.28843 1.43377 4 0.0491481 2 0 0.0994487 -0.154611
287 1 25.6904 5.1389 1.34266 4 0.0300443 2 0 0.0994487 0.210124
288 1 26.3575 4.29031 1.37159 4 0.0131127 2 0 0.0994487 0.149499
289 1 26.5026 4.97257 0.640732 4 0.0187247 2 0 0.0994487 0.0989803
290 1 25.5284 4.40089 0.388179 4 0.0184524 2 0 0.0994487 0.055961
291 1 27.3302 4.86961 1.40568 4 0.0118589 2 0 0.0994487 0.00661561
292 1 27.9624 3.97641 1.10408 4 0.00464594 2 0 0.0994487 -0.30947
293 1 28.2771 4.73475 0.706344 4 0.00636582 2 0 0.0994487 -0.0812412
294 1 27.0674 4.04323 0.570038 4 0.00788628 2 0 0.0994487 0.0120339
295 1 28.9321 3.77016 0.487204 4 0.00226933 2 0 0.0994487 -0.00702977
296 1 29.0873 4.52317 1.33085 4 0.00339823 2 0 0.0994487 0.0574866
297 1 29.9979 4.07209 1.02303 4 0.0014455 2 0 0.0994487 -0.275202
298 1 31.0296 3.97382 0.373364 4 0.000803849 2 0 0.0994487 0.657581
299 1 30.2046 4.67765 0.491317 4 0.00183633 2 0 0.0994487 0.0099569
300 1 30.9783 4.59929 1.41131 4 0.00115261 2 0 0.0994487 0.67991
301 1 0.908283 5.53205 0.461647 4 3.14051e-09 2 0 0.0994487 -0.463784
302 1 1.53161 5.51184 1.37971 4 6.05752e-09 2 0 0.0994487 -0.117386
303 1 0.793684 6.22023 1.2768 4 3.65437e-09 2 0 0.0994487 -0.703381
304 1 0.257003 6.91734 1.50738 4 2.57367e-09 2 0 0.0994487 -0.772633
305 1 0.969942 6.9454 0.573423 4 6.03168e-09 2 0 0.0994487 -0.473532
306 1 1.7053 7.02884 1.23811 4 1.34766e-08 2 0 0.0994487 0.0665192
307 1 1.89588 6.19966 0.519025 4 1.30084e-08 2 0 0.0994487 -0.156399
308 1 3.10475 5.61709 1.30057 4 4.03761e-08 2 0 0.0994487 0.0402545
309 1 2.26359 6.15348 1.40977 4 1.78556e-08 2 0 0.0994487 0.0408571
310 1 3.25442 6.96226 1.12748 4 9.18009e-08 2 0 0.0994487 -0.0541213
311 1 2.68177 5.61289 0.273587 4 2.48168e-08 2 0 0.0994487 -0.0596844
312 1 3.39503 6.28191 0.500536 4 8.34693e-08 2 0 0.0994487 -0.121441
313 1 4.18979 5.46246 0.325783 4 1.32019e-07 2 0 0.0994487 0.03102
314 1 4.93434 5.42873 1.31778 4 3.28413e-07 2 0 0.0994487 -0.235096
315 1 4.13622 6.09659 1.22779 4 1.8454e-07 2 0 0.0994487 -0.0893862
316 1 4.82567 6.23357 0.333842 4 3.89692e-07 2 0 0.0994487 -0.0345732
317 1 4.77312 6.79931 1.15967 4 5.23843e-07 2 0 0.0994487 -0.305927
318 1 4.00267 7.02511 0.221759 4 2.127e-07 2 0 0.0994487 -0.0853421
319 1 5.78575 5.42185 0.301847 4 7.00744e-07 2 0 0.0994487 0.0125049
320 1 5.6935 6.24342 0.9632 4 1.04255e-06 2 0 0.0994487 -0.967778
321 1 6.4578 5.98425 1.59671 4 1.9186e-06 2 0 0.0994487 0.140917
322 1 6.43234 6.86927 1.00965 4 3.02828e-06 2 0 0.0994487 0.851681
323 1 6.37773 6.04115 0.154639 4 1.52877e-06 2 0 0.0994487 0.111115
324 1 5.54993 7.05206 0.147147 4 1.09357e-06 2 0 0.0994487 0.0363885
325 1 8.21355 5.31419 0.694273 4 8.47922e-06 2 0 0.0994487 -0.0895807
326 1 7.32761 6.15925 0.754293 4 5.20507e-06 2 0 0.0994487 0.22574
327 1 7.39163 5.41839 1.49138 4 3.79321e-06 2 0 0.0994487 0.136758
328 1 8.23884 6.11028 1.49159 4 1.28378e-05 2 0 0.0994487 0.0187423
329 1 8.01352 6.85364 0.728993 4 1.46585e-05 2 0 0.0994487 0.069194
330 1 7.28191 6.86379 1.59601 4 7.37277e-06 2 1 0.0994487 0.126052
331 1 7.33029 5.3575 0.0461812 4 2.90733e-06 2 0 0.0994487 0.0813594
332 1 9.76796 5.3194 0.792562 4 3.37288e-05 2 0 0.0994487 0.328465
333 1 8.88016 6.18865 0.736908 4 2.4617e-05 2 0 0.0994487 -0.235531
334 1 9.05434 5.3271 1.5973 4 1.8337e-05 2 0 0.0994487 -0.0628266
335 1 9.73844 6.19052 1.46731 4 5.41935e-05 2 0 0.0994487 -0.106401
336 1 9.09351 6.95013 1.463 4 4.64743e-05 2 2 0.0994487 -0.0756775
337 1 9.76329 6.23201 0.0941385 4 4.88853e-05 2 0 0.0994487 -0.0359486
338 1 8.99733 5.46479 0.012702 4 1.63865e-05 2 0 0.0994487 -0.134751
339 1 10.5831 6.02196 0.964384 4 0.000100548 2 0 0.0994487 -0.356459
340 1 11.3128 6.37134 0.0776634 4 0.000169192 2 0 0.0994487 0.100345
341 1 10.5187 6.94145 0.15452 4 0.000124418 2 0 0.0994487 -0.0735365
342 1 10.4686 6.92564 1.49614 4 0.000146938 2 1 0.0994487 -0.0635208
343 1 11.9994 5.6274 0.183157 4 0.000234593 2 0 0.0994487 -0.010525
344 1 12.6757 5.81849 0.861776 4 0.000489775 2 0 0.0994487 0.0817723
345 1 11.7774 6.20735 1.05291 4 0.000281237 2 0 0.0994487 0.292212
346 1 13.3219 5.86668 1.55471 4 0.000788588 2 0 0.0994487 0.208175
347 1 13.3506 6.58297 0.813679 4 0.00123499 2 0 0.0994487 -0.292099
348 1 13.3212 5.53867 0.0424813 4 0.000677871 2 0 0.0994487 -0.142904
349 1 14.0617 5.71565 0.77266 4 0.00134246 2 0 0.0994487 -0.372605
350 1 14.3278 6.65176 1.40646 4 0.00275973 2 1 0.0994487 -0.103116
351 1 14.1303 6.38483 0.0380077 4 0.0016804 2 0 0.0994487 -0.082605
352 1 15.0282 5.64393 0.034369 4 0.00222868 2 0 0.0994487 0.0573726
353 1 15.8305 5.73813 0.95832 4 0.00429518 2 0 0.0994487 0.625845
354 1 15.0472 6.45091 0.806774 4 0.00383455 2 0 0.0994487 -0.176024
355 1 16.491 6.45257 1.1401 4 0.00958297 2 0 0.0994487 0.208363
356 1 15.1058 5.87594 1.69804 4 0.00309645 2 0 0.0994487 -0.0976507
357 1 16.62 5.41933 0.276819 4 0.00529743 2 0 0.0994487 0.0799414
358 1 15.6753 6.3382 0.0390223 4 0.00470806 2 0 0.0994487 0.0398587
359 1 17.8271 5.30128 0.541411 4 0.00927535 2 0 0.0994487 0.150357
360 1 17.113 5.42499 1.24767 4 0.0075152 2 0 0.0994487 -0.286533
361 1 17.0619 6.27419 0.411469 4 0.0109596 2 0 0.0994487 0.13897
362 1 17.6649 6.24649 1.38542 4 0.0158222 2 0 0.0994487 -0.254215
363 1 18.2745 7.0517 1.13153 4 0.0317685 2 1 0.0994487 0.631145
364 1 18.3714 6.23173 0.609762 4 0.0216237 2 0 0.0994487 0.156212
365 1 19.429 5.75829 0.62055 4 0.0277539 2 0 0.0994487 0.0572286
366 1 19.3279 6.55755 1.35081 4 0.0433573 2 1 0.0994487 0.274632
367 1 19.9942 6.75229 0.610261 4 0.0673073 2 0 0.0994487 -0.0118858
368 1 20.7494 5.77593 0.653722 4 0.0512898 2 0 0.0994487 -0.103976
369 1 20.1931 5.61076 1.39557 4 0.0364623 2 0 0.0994487 0.312091
370 1 20.7787 6.6124 1.30355 4 0.0950029 2 1 0.0994487 -0.35204
371 1 21.6592 6.66248 0.666524 4 0.108134 2 0 0.0994487 -0.0446092
372 1 21.6631 5.87866 1.38528 4 0.0766185 2 0 0.0994487 0.0401618
373 1 21.6904 5.73259 0.0517844 4 0.0585313 2 0 0.0994487 -0.00147156
374 1 22.6732 5.8279 0.674154 4 0.077448 2 0 0.0994487 0.00281318
375 1 22.6319 6.69333 1.20734 4 0.143338 2 0 0.0994487 -0.210359
376 1 23.3484 6.78052 0.267835 4 0.124725 2 0 0.0994487 -0.125218
377 1 23.4822 5.88496 1.30013 4 0.0897684 2 0 0.0994487 -0.176314
378 1 24.3197 6.56281 1.15825 4 0.113604 2 0 0.0994487 0.186183
379 1 24.1457 6.00685 0.427617 4 0.0776513 2 0 0.0994487 0.00247985
380 1 25.6831 5.86213 0.700952 4 0.0459626 2 0 0.0994487 0.163921
381 1 25.1124 6.04132 1.67733 4 0.0652895 2 0 0.0994487 0.00676303
382 1 25.1593 6.74159 0.495153 4 0.0867525 2 0 0.0994487 0.0904278
383 1 25.8251 6.59457 1.40775 4 0.0658955 2 0 0.0994487 0.0885823
384 1 26.6903 5.84511 1.4763 4 0.0297766 2 0 0.0994487 0.0917597
385 1 27.4966 5.54334 0.722172 4 0.0156239 2 0 0.0994487 -0.251576
386 1 26.7485 6.36567 0.651888 4 0.0369534 2 0 0.0994487 0.0387407
387 1 27.7011 6.47315 1.36539 4 0.0231438 2 0 0.0994487 0.131474
388 1 28.3648 5.52203 1.4872 4 0.00932835 2 0 0.0994487 0.0456307
389 1 27.7097 7.0074 0.530173 4 0.0279719 2 0 0.0994487 0.0321
390 1 29.3889 5.30889 0.818726 4 0.00453981 2 0 0.0994487 0.316755
391 1 29.4379 6.18214 1.32212 4 0.00629617 2 0 0.0994487 -0.00338571
392 1 29.5784 6.89773 0.506505 4 0.00764046 2 0 0.0994487 0.0925776
393 1 28.4685 6.20589 0.638647 4 0.0118028 2 0 0.0994487 -0.270094
394 1 29.3762 6.15398 0.0801838 4 0.00615313 2 0 0.0994487 0.0969258
395 1 28.4822 5.38976 0.0592959 4 0.00727235 2 0 0.0994487 -0.105002
396 1 30.9636 5.36838 0.595026 4 0.00185032 2 0 0.0994487 0.667856
397 1 30.2159 5.45949 1.46813 4 0.00274128 2 0 0.0994487 0.0540197
398 1 30.3958 6.18258 0.649752 4 0.00356254 2 0 0.0994487 0.328995
399 1 31.2189 6.15516 1.38439 4 0.00219539 2 0 0.0994487 0.587258
400 1 31.1994 6.95407 0.60342 4 0.00305894 2 0 0.0994487 0.812245
401 1 31.7235 5.99622 0.446564 4 0.00164237 2 0 0.0994487 0.87973
402 1 0.261851 7.63199 0.661866 4 3.65465e-09 2 0 0.0994487 -0.876373
403 1 0.831025 8.46344 0.61936 4 8.03786e-09 2 0 0.0994487 -0.577626
404 1 1.11211 7.86396 1.49711 4 8.47875e-09 2 0 0.0994487 -0.154428
405 1 0.356955 8.5626 1.47035 4 4.80253e-09 2 0 0.0994487 -0.764984
406 1 1.59266 7.76478 0.37187 4 1.55616e-08 2 0 0.0994487 -0.0897872
407 1 1.72382 8.61735 1.46471 4 2.21315e-08 2 0 0.0994487 0.0395977
408 1 2.48799 7.14986 0.476331 4 3.97218e-08 2 0 0.0994487 -0.0836944
409 1 2.19177 8.6335 0.399707 4 4.12924e-08 2 0 0.0994487 -0.137266
410 1 2.39416 7.81099 1.27726 4 4.18644e-08 2 0 0.0994487 0.0869936
411 1 3.01349 8.51445 0.935533 4 1.10506e-07 2 0 0.0994487 -0.539307
412 1 3.24418 7.77117 0.327041 4 1.16032e-07 2 0 0.0994487 -0.196203
413 1 3.81243 8.45898 0.0822892 4 2.37379e-07 2 0 0.0994487 -0.0457772
414 1 3.97971 7.67009 1.24863 4 2.68908e-07 2 0 0.0994487 -0.0554867
415 1 4.70459 8.25653 0.921772 4 7.28194e-07 2 0 0.0994487 0.29535
416 1 4.67023 7.63706 0.247803 4 5.37039e-07 2 0 0.0994487 0.0376942
417 1 3.81127 8.34851 1.76162 4 2.35442e-07 2 0 0.0994487 -0.0574349
418 1 5.86955 8.34822 0.169905 4 2.31705e-06 2 0 0.0994487 0.113107
419 1 5.48363 7.59071 1.03232 4 1.50605e-06 2 0 0.0994487 -0.467654
420 1 6.49365 7.53799 0.169175 4 3.58673e-06 2 0 0.0994487 0.187626
421 1 6.39674 8.23976 1.04384 4 5.12277e-06 2 0 0.0994487 0.338164
422 1 7.28583 7.76918 0.746313 4 1.0947e-05 2 1 0.0994487 0.00993916
423 1 8.2859 8.31376 0.868772 4 3.664e-05 2 2 0.0994487 0.278863
424 1 7.27857 8.18368 1.7015 4 1.52129e-05 2 2 0.0994487 -0.174651
425 1 8.05208 7.48784 1.5604 4 2.20125e-05 2 1 0.0994487 0.185111
426 1 7.99895 7.60312 0.0282118 4 1.56455e-05 2 0 0.0994487 0.067415
427 1 9.84313 7.22199 0.72344 4 9.59273e-05 2 1 0.0994487 -0.346909
428 1 8.91207 7.61626 0.661731 4 4.82114e-05 2 1 0.0994487 0.15875
429 1 9.73234 8.61964 0.693151 4 0.000149077 2 3 0.0994487 -0.257269
430 1 9.09265 8.69904 1.44495 4 0.000103531 2 9 0.0994487 -0.394617
431 1 9.64026 7.88932 1.60055 4 0.00013047 2 8 0.0994487 -0.340223
432 1 11.3161 7.14287 0.810636 4 0.000294594 2 1 0.0994487 0.448504
433 1 10.5731 7.9454 0.844311 4 0.000235139 2 3 0.0994487 -0.198586
434 1 10.5877 8.70196 1.4255 4 0.000339911 1 8 0.0994487 -0.147364
435 1 11.4057 7.80503 1.60301 4 0.000491168 2 7 0.0994487 0.228126
436 1 11.227 8.11851 0.0422735 4 0.000319659 2 0 0.0994487 0.174331
437 1 12.7061 7.28322 0.565784 4 0.00102641 2 0 0.0994487 -0.0531352
438 1 12.178 8.23518 0.590765 4 0.000916228 2 2 0.0994487 0.163942
439 1 12.0637 7.15788 1.37768 4 0.000604131 2 3 0.0994487 0.145626
440 1 12.0887 8.68064 1.49044 4 0.00117864 1 8 0.0994487 0.0830533