ITEM: TIMESTEP
44500
ITEM: NUMBER OF ATOMS
9495
ITEM: BOX BOUNDS mm mm mm
0.0000000000000000e+00 7.4235035448234811e+01
-2.6538433567914512e+00 3.4445108313373552e+01
-1.3615726913528675e+02 3.1748021039364001e+01
ITEM: ATOMS id type x y z c_phase c_temp c_surf c_nbond c_visc f_3[1]
2149 1 63.4809 11.9912 -135.573 0 3.55368 2 0 4.53999e-06 -0.565672
2101 1 63.9877 12.3883 -134.855 0 3.5961 2 0 4.53999e-06 -0.72757
1924 1 64.2994 11.3678 -135.125 0 3.60156 2 0 4.53999e-06 -0.406497
1561 1 65.3286 11.5308 -135.324 0 3.6665 2 0 4.53999e-06 0.178837
1560 1 64.5382 12.0351 -135.922 0 3.60865 2 0 4.53999e-06 -0.0449933
900 1 65.1816 12.3505 -134.8 0 3.68429 1 0 4.53999e-06 -0.216331
1921 1 66.1266 11.739 -134.531 0 3.75273 2 0 4.53999e-06 0.300008
3628 1 66.125 12.2115 -135.351 0 3.79771 2 0 4.53999e-06 0.325781
1201 1 67.0133 12.2766 -134.668 0 3.91831 2 0 4.53999e-06 0.462112
2454 1 63.0074 12.7173 -134.789 0 3.53812 2 0 4.53999e-06 -0.812955
2453 1 62.5006 12.7655 -135.779 0 3.49822 2 0 4.53999e-06 -0.886911
1920 1 63.5484 12.9664 -135.774 0 3.55526 2 0 4.53999e-06 -0.408951
1865 1 63.582 13.5387 -134.947 0 3.56985 2 0 4.53999e-06 -0.882818
2100 1 62.8395 13.9174 -135.717 0 3.50811 2 0 4.53999e-06 -0.668953
1464 1 64.0652 13.8669 -135.76 0 3.58633 2 0 4.53999e-06 -0.190068
1143 1 64.5017 12.9675 -135.525 0 3.62449 2 0 4.53999e-06 -0.175622
1469 1 64.5402 13.0482 -134.599 0 3.63852 1 0 4.53999e-06 -0.928895
1142 1 64.6302 13.8491 -134.971 0 3.64104 2 0 4.53999e-06 -0.242902
4521 1 65.1171 13.6863 -136.033 0 3.67751 2 0 4.53999e-06 0.0345738
1196 1 65.3925 12.7023 -135.715 0 3.70695 2 0 4.53999e-06 0.123611
8451 1 65.3836 13.2924 -134.868 0 3.71806 1 0 4.53999e-06 0.0364619
4544 1 66.1734 13.3647 -135.784 0 3.84781 2 0 4.53999e-06 0.315202
4545 1 66.1423 12.896 -134.812 0 3.81813 1 0 4.53999e-06 0.525042
4522 1 67.011 12.7491 -135.586 0 4.25356 2 0 4.53999e-06 0.512752
4130 1 67.1814 13.3069 -134.755 0 4.17324 2 0 4.53999e-06 0.682199
4109 1 66.6802 14.0416 -135.176 0 4.16485 2 0 4.53999e-06 0.521726
4113 1 67.9877 12.5806 -134.812 0 4.31339 2 0 4.53999e-06 0.617153
2099 1 59.7537 14.9062 -136.154 0 2.96278 3 0 4.53999e-06 -0
6299 1 63.8648 14.4867 -134.58 0 3.57853 2 0 4.53999e-06 -0.458906
6028 1 65.0863 14.5641 -134.482 0 3.67263 2 0 4.53999e-06 -0.0693554
9332 1 65.647 14.168 -135.262 0 3.75998 2 0 4.53999e-06 0.100753
2150 1 65.2616 10.9875 -134.365 0 3.65363 2 0 4.53999e-06 -0.0587749
2503 1 64.5218 11.8178 -134.239 0 3.63394 2 0 4.53999e-06 -0.547799
2105 1 65.4536 11.9628 -133.923 0 3.70151 2 0 4.53999e-06 -0.26373
1562 1 66.4186 11.382 -133.596 0 3.7554 2 0 4.53999e-06 -0.0767484
2551 1 66.0314 12.3181 -133.195 0 3.7479 2 0 4.53999e-06 -0.263877
2104 1 67.0218 12.2586 -132.961 0 3.80585 2 0 4.53999e-06 -0.387565
2153 1 67.3518 11.7889 -133.829 0 3.85094 2 0 4.53999e-06 0.0440507
2151 1 67.4902 11.2742 -132.865 0 3.78963 2 0 4.53999e-06 -0.442936
3630 1 68.377 11.3162 -133.701 0 3.84728 2 0 4.53999e-06 0.0439843
1928 1 68.3519 12.0176 -132.945 0 3.83847 2 0 4.53999e-06 -0.640007
903 1 68.1953 12.3258 -133.852 0 3.92457 2 0 4.53999e-06 0.385693
8992 1 69.2438 12.1688 -134.003 0 3.92782 2 0 4.53999e-06 0.426108
3522 1 69.2087 11.5664 -133.098 0 3.83766 2 0 4.53999e-06 0.133686
4125 1 70.1645 11.8346 -133.017 0 3.86547 2 0 4.53999e-06 0.435032
3631 1 69.2772 12.4254 -133.018 0 3.87194 2 0 4.53999e-06 0.364517
1870 1 63.8828 13.445 -134.03 0 3.59357 2 0 4.53999e-06 -0.817189
2460 1 64.6878 12.7188 -133.8 0 3.65185 2 0 4.53999e-06 -0.539331
6588 1 64.295 13.3752 -133.065 0 3.60559 2 0 4.53999e-06 -0.424143
6032 1 65.3647 13.2368 -133.237 0 3.69195 2 0 4.53999e-06 -0.247759
906 1 65.0589 13.6938 -134.062 0 3.68102 1 0 4.53999e-06 -0.218042
3632 1 65.5673 12.8615 -133.993 0 3.72412 1 0 4.53999e-06 -0.273066
1149 1 66.4213 12.5994 -134.065 0 3.81335 1 0 4.53999e-06 0.451788
2457 1 66.3779 13.2038 -133.445 0 3.78818 1 0 4.53999e-06 0.084851
9330 1 66.2137 13.6538 -134.416 0 3.82443 1 0 4.53999e-06 0.443965
7563 1 67.1592 13.3617 -132.992 0 3.83266 2 0 4.53999e-06 0.107177
9333 1 67.3252 12.8746 -133.88 0 3.91799 1 0 4.53999e-06 0.839715
9222 1 67.0439 13.93 -133.915 0 3.90287 2 0 4.53999e-06 0.445769
8452 1 65.8663 13.9664 -133.652 0 3.75155 2 0 4.53999e-06 0.068135
4114 1 68.0631 13.438 -134.114 0 4.25481 2 0 4.53999e-06 0.568237
9329 1 68.7696 13.0552 -133.47 0 3.92327 2 0 4.53999e-06 0.314203
3629 1 67.8746 12.7724 -133.108 0 3.86873 2 0 4.53999e-06 -0.0502254
9428 1 70.2766 12.8557 -133.596 0 4.36624 2 0 4.53999e-06 0.590863
7200 1 62.9929 14.191 -133.49 0 3.49841 2 0 4.53999e-06 -0.820037
1465 1 64.4034 14.2445 -133.69 0 3.61401 2 0 4.53999e-06 -0.224922
9219 1 66.1392 14.6359 -134.404 0 3.79223 2 0 4.53999e-06 0.252395
1008 1 69.9141 10.4262 -131.664 0 3.76854 2 0 4.53999e-06 -0.471787
952 1 68.5273 11.0455 -132.544 0 3.79463 2 0 4.53999e-06 -0.258896
2547 1 68.0483 11.7793 -131.869 0 3.77696 2 0 4.53999e-06 -0.391529
1866 1 69.1046 12.0259 -132.306 0 3.82188 2 0 4.53999e-06 -0.580096
4587 1 70.3658 10.8822 -132.632 0 3.80999 2 0 4.53999e-06 0.122346
1922 1 69.559 11.2507 -132.258 0 3.80594 2 0 4.53999e-06 -0.45338
1148 1 70.3828 11.5748 -132.092 0 3.83081 1 0 4.53999e-06 -0.194415
7205 1 69.7395 11.9038 -131.623 0 3.80938 2 0 4.53999e-06 -0.706917
6608 1 70.507 12.3206 -131.559 0 3.83522 1 0 4.53999e-06 -0.272637
3519 1 70.8706 10.9001 -131.659 0 3.84014 2 0 4.53999e-06 -0.0673128
1466 1 69.9548 12.4081 -132.368 0 3.84715 2 0 4.53999e-06 0.251403
4548 1 71.2108 11.4643 -132.368 0 3.87432 2 0 4.53999e-06 0.420448
4520 1 71.8146 11.2288 -131.62 0 3.94857 1 0 4.53999e-06 0.379783
9218 1 71.9551 12.1488 -132.205 0 4.18271 2 0 4.53999e-06 0.525564
1869 1 71.1554 11.8 -131.589 0 3.87881 1 0 4.53999e-06 0.0770842
9220 1 71.9884 11.9695 -131.291 0 3.96183 1 0 4.53999e-06 0.543989
9334 1 70.9195 12.3861 -132.403 0 3.87856 2 0 4.53999e-06 0.390495
3870 1 72.7009 10.8623 -131.596 0 4.33921 2 0 4.53999e-06 0.510414
8739 1 72.9819 11.8773 -131.455 0 4.34457 2 0 4.53999e-06 0.715075
6967 1 66.0578 13.3007 -132.277 0 3.70144 2 0 4.53999e-06 -0.205087
6973 1 67.5529 12.7454 -132.111 0 3.79102 2 0 4.53999e-06 -0.29765
7556 1 68.6191 12.8334 -132.435 0 3.83529 2 0 4.53999e-06 -0.230015
8449 1 69.6339 13.35 -132.733 0 3.88802 2 0 4.53999e-06 0.235534
6298 1 69.4486 12.8967 -131.678 0 3.80662 2 0 4.53999e-06 -0.266308
7557 1 71.4175 12.7056 -131.411 0 3.88436 2 0 4.53999e-06 0.0772501
1195 1 70.6699 10.4244 -130.747 0 3.80553 2 0 4.53999e-06 -0.448388
4325 1 71.7721 10.5009 -131.006 0 3.92629 2 0 4.53999e-06 0.0514797
4417 1 72.3554 10.5356 -130.101 0 4.00189 2 0 4.53999e-06 -0.025243
4227 1 73.6914 10.7199 -130.04 0 4.45087 2 0 4.53999e-06 0.792325
1199 1 70.3282 11.3974 -131.075 0 3.81829 2 0 4.53999e-06 -0.743329
6604 1 70.0861 12.4354 -130.648 0 3.7874 2 0 4.53999e-06 -0.592596
7203 1 71.0008 12.0342 -130.827 0 3.86022 1 0 4.53999e-06 -0.663537
954 1 71.2721 11.2857 -130.949 0 3.88601 1 0 4.53999e-06 -0.564251
8448 1 72.1547 11.2797 -130.752 0 3.98872 1 0 4.53999e-06 0.483201
7204 1 71.7852 11.8031 -130.548 0 3.92956 1 0 4.53999e-06 -0.31766
1976 1 71.4305 10.9393 -130.184 0 3.89686 2 0 4.53999e-06 -0.508056
7202 1 71.1444 11.8105 -129.899 0 3.86463 2 0 4.53999e-06 -0.745719
2553 1 72.0794 11.4085 -129.865 0 3.96383 1 0 4.53999e-06 -0.426067
6030 1 72.2698 12.3006 -129.838 0 3.95308 2 0 4.53999e-06 0.175694
7555 1 72.7089 11.8712 -130.494 0 4.05395 1 0 4.53999e-06 0.776071
4519 1 72.9646 11.0443 -130.666 0 4.27909 2 0 4.53999e-06 0.693468
3213 1 73.7984 11.6509 -130.566 0 4.52134 2 0 4.53999e-06 0.922131
4518 1 72.8712 11.3046 -129.811 0 4.07651 1 0 4.53999e-06 0.890677
9221 1 73.3229 12.1399 -129.797 0 4.32105 2 0 4.53999e-06 0.671441
9171 1 72.3267 12.6251 -130.805 0 3.95453 2 0 4.53999e-06 0.400165
6027 1 71.4955 12.5957 -130.354 0 3.8727 2 0 4.53999e-06 -0.25459
1253 1 72.2801 10.552 -127.835 0 3.89792 2 0 4.53999e-06 -0.650087
4588 1 73.0558 10.4121 -129.313 0 4.05668 2 0 4.53999e-06 0.204756
955 1 72.3511 10.9666 -129.037 0 3.97883 2 0 4.53999e-06 -0.590949
6908 1 71.8396 11.7969 -129.153 0 3.91424 2 0 4.53999e-06 -0.589035
2656 1 72.6173 11.4671 -128.209 0 3.97776 2 0 4.53999e-06 -0.888029
6304 1 72.7608 11.8492 -129.081 0 4.0193 2 0 4.53999e-06 0.130017
902 1 73.4467 11.812 -128.329 0 4.06483 2 0 4.53999e-06 0.465916
4546 1 74.0802 11.0241 -128.137 0 4.36336 2 0 4.53999e-06 0.883187
3520 1 73.5352 11.278 -129.153 0 4.29617 2 0 4.53999e-06 0.999559
1010 1 73.1677 10.8258 -128.352 0 4.0355 2 0 4.53999e-06 0.209043
7474 1 71.4712 12.7686 -129.301 0 3.81228 2 0 4.53999e-06 -0.346141
7373 1 72.2146 11.4978 -127.221 0 3.90732 2 0 4.53999e-06 -0.980302
2598 1 72.9164 10.8788 -126.901 0 3.97109 2 0 4.53999e-06 -0.525241
6970 1 72.9922 11.4881 -126.43 0 3.96386 2 0 4.53999e-06 -0.945574
2599 1 73.5287 10.9813 -126.199 0 3.98171 2 0 4.53999e-06 0.28963
2552 1 73.2078 11.3606 -127.493 0 4.02766 2 0 4.53999e-06 -0.286321
901 1 73.7907 10.895 -127.12 0 4.22737 2 0 4.53999e-06 0.594047
3873 1 74.2319 11.4293 -126.243 0 4.18653 2 0 4.53999e-06 0.992032
4516 1 73.6356 11.5822 -126.79 0 4.15407 2 0 4.53999e-06 0.760327
8944 1 74.0144 11.8376 -127.527 0 4.29254 2 0 4.53999e-06 0.771364
8547 1 73.0169 12.0734 -127.112 0 3.98185 2 0 4.53999e-06 -0.359014
9122 1 73.5831 12.1387 -126.247 0 3.97042 2 0 4.53999e-06 0.277527
4420 1 73.4452 10.634 -125.449 0 3.9334 2 0 4.53999e-06 0.0919824
6450 1 72.5725 11.6327 -125.125 0 3.89591 2 0 4.53999e-06 -0.945526
6297 1 72.9515 11.8475 -125.793 0 3.92554 2 0 4.53999e-06 -0.648187
4547 1 74.0031 11.2211 -125.368 0 4.08916 2 0 4.53999e-06 0.976732
6301 1 73.5924 11.589 -125.708 0 3.95677 1 0 4.53999e-06 0.718598
7152 1 72.9228 11.1191 -125.665 0 3.92622 2 0 4.53999e-06 -0.805985
3425 1 72.8425 11.0275 -124.813 0 3.91155 2 0 4.53999e-06 -0.800744
1926 1 73.44 11.1227 -125.001 0 3.93644 1 0 4.53999e-06 0.387183
8546 1 73.7648 11.6802 -124.689 0 3.94043 1 0 4.53999e-06 0.796494
8989 1 74.0279 10.9938 -124.492 0 4.09459 2 0 4.53999e-06 0.881139
6245 1 73.2972 11.9165 -125.107 0 3.92038 1 0 4.53999e-06 -0.011192
4630 1 73.3072 10.6683 -124.375 0 3.92733 2 0 4.53999e-06 -0.0307542
6905 1 72.4175 11.3782 -123.06 0 3.9385 2 0 4.53999e-06 -0.975036
7376 1 72.9632 11.6511 -124.484 0 3.91733 1 0 4.53999e-06 -0.767768
6972 1 73.4478 11.3125 -124.139 0 3.96155 2 0 4.53999e-06 0.717399
7662 1 73.3817 11.9866 -124.023 0 3.93475 2 0 4.53999e-06 0.222449
1255 1 72.7535 11.1653 -123.938 0 3.92188 2 0 4.53999e-06 -0.853362
9168 1 73.9923 11.569 -123.64 0 4.12611 2 0 4.53999e-06 0.940875
4591 1 73.4571 10.8878 -123.503 0 3.96095 2 0 4.53999e-06 0.319137
6240 1 72.5875 11.9965 -123.745 0 3.91423 2 0 4.53999e-06 -0.753881
6590 1 73.1411 11.5077 -123.358 0 3.95992 2 0 4.53999e-06 -0.258194
9169 1 73.3664 12.1702 -123.157 0 3.97471 2 0 4.53999e-06 0.294546
4229 1 72.4793 10.7385 -121.695 0 3.94454 2 0 4.53999e-06 -0.178317
1685 1 71.7232 11.1501 -121.051 0 3.85965 2 0 4.53999e-06 -0.579653
6907 1 71.9741 11.9424 -121.16 0 3.90952 2 0 4.53999e-06 -0.633781
7374 1 72.3556 11.5724 -121.85 0 3.97532 2 0 4.53999e-06 -0.821583
1923 1 72.9864 10.9716 -122.576 0 3.98281 2 0 4.53999e-06 -0.0308997
9331 1 73.6649 11.4864 -122.668 0 4.18737 2 0 4.53999e-06 0.914816
6605 1 72.8398 11.873 -122.525 0 3.99919 2 0 4.53999e-06 -0.497529
8447 1 73.1373 11.4014 -121.772 0 4.19639 2 0 4.53999e-06 0.792515
9123 1 73.4486 12.1484 -121.94 0 4.26659 2 0 4.53999e-06 0.724735
9429 1 72.5579 12.3687 -121.737 0 3.99045 2 0 4.53999e-06 -0.193107
2452 1 70.7335 11.2145 -120.077 0 3.67532 2 0 4.53999e-06 -0.675414
1566 1 70.7189 12.0454 -119.793 0 3.65739 2 0 4.53999e-06 -0.797881
6513 1 71.154 11.8968 -120.78 0 3.77211 2 0 4.53999e-06 -0.757436
4326 1 72.2425 11.0262 -120.353 0 3.88881 2 0 4.53999e-06 0.228236
1569 1 71.5569 11.4858 -120.168 0 3.79734 2 0 4.53999e-06 -0.55108
1563 1 72.2559 11.8514 -120.403 0 4.03076 2 0 4.53999e-06 0.712392
2548 1 71.5376 12.2672 -120.105 0 3.78001 2 0 4.53999e-06 -0.276014
1259 1 71.5028 10.9784 -119.516 0 3.72844 2 0 4.53999e-06 0.0444361
4331 1 72.2787 11.5063 -119.57 0 4.02652 2 0 4.53999e-06 0.55839
9224 1 72.2762 12.3963 -119.695 0 3.97369 2 0 4.53999e-06 0.510928
3521 1 72.6262 11.3574 -121.045 0 3.98793 2 0 4.53999e-06 0.453
3872 1 73.7467 11.4703 -121.04 0 4.40878 2 0 4.53999e-06 0.930516
7554 1 72.9451 12.08 -121.037 0 4.18203 2 0 4.53999e-06 0.704144
4515 1 73.0446 11.6031 -120.242 0 4.20181 2 0 4.53999e-06 0.828805
6031 1 70.1237 12.672 -119.383 0 3.5815 2 0 4.53999e-06 -0.492959
7559 1 72.2254 12.6086 -120.686 0 3.89325 2 0 4.53999e-06 0.0699404
8945 1 71.1889 12.816 -119.405 0 3.65018 2 0 4.53999e-06 0.158815
4419 1 68.9744 12.0042 -117.745 0 3.64014 2 0 4.53999e-06 0.0531897
2201 1 69.8785 11.7027 -119.314 0 3.57692 2 0 4.53999e-06 -0.827624
4330 1 70.7203 11.3072 -119.069 0 3.62122 2 0 4.53999e-06 -0.171524
6303 1 70.6881 12.2149 -118.82 0 3.60805 2 0 4.53999e-06 0.410813
1567 1 69.6836 12.337 -118.549 0 3.60222 2 0 4.53999e-06 -0.876084
4228 1 70.1604 11.674 -118.24 0 3.58715 2 0 4.53999e-06 0.107501
1198 1 71.4753 11.8906 -119.273 0 3.71531 2 0 4.53999e-06 0.331534
9223 1 68.8299 12.7673 -118.24 0 3.62032 2 0 4.53999e-06 -0.387407
8600 1 70.173 13.0366 -118.428 0 3.59551 2 0 4.53999e-06 0.413776
3876 1 69.2522 13.5017 -117.803 0 3.62594 2 0 4.53999e-06 0.270867
1688 1 67.0068 12.4123 -117.32 0 3.47787 2 0 4.53999e-06 -0.604862
1257 1 66.9997 12.4705 -116.381 0 3.47218 2 0 4.53999e-06 -0.435857
2154 1 68.0193 12.3331 -117.653 0 3.59555 2 0 4.53999e-06 -0.305202
1011 1 67.5406 11.8477 -116.815 0 3.53186 2 0 4.53999e-06 -0.0544459
4328 1 68.4296 12.1593 -116.822 0 3.83712 2 0 4.53999e-06 0.578875
4232 1 67.8012 12.4746 -116.218 0 3.71683 2 0 4.53999e-06 0.746012
7377 1 66.7451 13.1302 -116.72 0 3.43831 2 0 4.53999e-06 -0.531236
7558 1 67.4442 13.3093 -116.247 0 3.51276 2 0 4.53999e-06 0.347661
6243 1 68.1252 13.3229 -117.63 0 3.59771 2 0 4.53999e-06 -0.258496
1467 1 67.6659 12.8479 -117 0 3.56764 2 0 4.53999e-06 -0.157556
4551 1 68.7821 12.8078 -117.299 0 3.83969 2 0 4.53999e-06 0.798214
3641 1 68.3512 13.1534 -116.571 0 3.83578 2 0 4.53999e-06 0.624598
4549 1 69.6814 12.6118 -117.654 0 3.87332 2 0 4.53999e-06 0.704601
1681 1 65.4129 12.0973 -115.483 0 3.19228 2 0 4.53999e-06 -0.506766
1313 1 66.9798 11.9572 -115.749 0 3.42989 2 0 4.53999e-06 0.190473
2202 1 66.2648 12.4569 -115.924 0 3.35402 2 0 4.53999e-06 -0.486232
3422 1 66.1638 12.2205 -115.129 0 3.30004 2 0 4.53999e-06 0.0663737
3966 1 66.9231 12.4386 -115.022 0 3.55737 2 0 4.53999e-06 0.673587
6237 1 64.9396 12.8758 -115.429 0 3.14961 2 0 4.53999e-06 -0.797336
7151 1 65.7858 12.9914 -115.47 0 3.26448 2 0 4.53999e-06 -0.558623
9126 1 65.254 13.5632 -114.93 0 3.1599 2 0 4.53999e-06 -0.529734
7475 1 64.8892 12.8436 -114.536 0 3.13398 2 0 4.53999e-06 -0.996614
2208 1 65.5547 12.5924 -114.781 0 3.2089 2 0 4.53999e-06 -0.608657
6242 1 66.1034 13.8264 -115.335 0 3.27617 2 0 4.53999e-06 -0.0478923
7472 1 66.5918 13.1809 -115.869 0 3.39905 2 0 4.53999e-06 -0.167333
904 1 67.2924 12.8096 -115.61 0 3.61836 2 0 4.53999e-06 0.852317
4416 1 66.4589 12.9939 -115.127 0 3.46666 2 0 4.53999e-06 0.672382
9120 1 67.0724 13.603 -115.185 0 3.6239 2 0 4.53999e-06 0.562098
7657 1 65.9913 13.2303 -114.609 0 3.24289 2 0 4.53999e-06 0.344561
1684 1 65.4647 11.9391 -114.324 0 3.15361 2 0 4.53999e-06 -0.134849
2655 1 64.755 12.4198 -113.753 0 3.12145 2 0 4.53999e-06 -0.376695
4631 1 66.3448 12.4872 -114.29 0 3.44927 2 0 4.53999e-06 0.5346
7150 1 63.8262 12.9082 -113.915 0 3.11041 2 0 4.53999e-06 -0.918741
8898 1 63.2967 13.3163 -112.933 0 3.23055 2 0 4.53999e-06 0.00996899
9172 1 64.7499 13.3721 -113.867 0 3.10827 2 0 4.53999e-06 -0.46437
956 1 65.5796 12.8413 -113.903 0 3.1586 2 0 4.53999e-06 0.217921
8943 1 65.5768 13.7633 -114.099 0 3.12939 2 0 4.53999e-06 0.0991023
3640 1 64.1865 12.7801 -112.895 0 3.45837 2 0 4.53999e-06 0.475904
1929 1 62.3331 12.3478 -111.728 0 3.28424 2 0 4.53999e-06 0.207053
7553 1 63.1743 12.3873 -112.299 0 3.29604 2 0 4.53999e-06 0.496524
1056 1 63.0701 12.3783 -111.112 0 3.58228 2 0 4.53999e-06 0.814364
6968 1 61.7513 12.9243 -111.966 0 3.23203 2 0 4.53999e-06 -0.310319
8686 1 61.2791 13.7753 -111.77 0 3.17641 2 0 4.53999e-06 -0.448772
8595 1 62.2097 13.635 -111.675 0 3.24896 2 0 4.53999e-06 0.332736
8544 1 62.4723 13.0651 -112.376 0 3.26284 2 0 4.53999e-06 0.0402516
6509 1 61.084 12.977 -111.405 0 3.19135 2 0 4.53999e-06 -0.797685
2205 1 61.6345 12.5235 -111.265 0 3.23322 2 0 4.53999e-06 -0.236627
6305 1 61.7221 13.2136 -111.285 0 3.23281 2 0 4.53999e-06 -0.0838759
9227 1 62.4465 13.0077 -111.345 0 3.41205 2 0 4.53999e-06 0.978458
4590 1 63.1127 13.1591 -111.775 0 3.52062 2 0 4.53999e-06 0.905775
1683 1 61.5886 12.0385 -110.643 0 3.20806 2 0 4.53999e-06 0.015187
1258 1 61.0916 12.2892 -109.953 0 3.14457 2 0 4.53999e-06 -0.236077
6455 1 57.6582 12.9719 -109.973 0 2.92547 3 0 4.53999e-06 -0.604471
1197 1 60.781 13.0458 -110.148 0 3.13651 2 0 4.53999e-06 -0.922017
6591 1 60.2652 12.6063 -109.588 0 3.06718 2 0 4.53999e-06 -0.871599
6512 1 60.5794 13.6371 -109.477 0 3.06367 2 0 4.53999e-06 -0.433062
2597 1 60.8867 12.5184 -110.8 0 3.1696 2 0 4.53999e-06 -0.80793
7658 1 60.9755 13.4306 -110.818 0 3.17108 2 0 4.53999e-06 -0.763308
3281 1 61.6622 13.7417 -110.897 0 3.20608 2 0 4.53999e-06 0.0729947
4633 1 62.1723 12.5352 -110.855 0 3.3901 2 0 4.53999e-06 0.679046
953 1 61.4041 12.8353 -110.557 0 3.20245 2 0 4.53999e-06 -0.482655
3922 1 61.8591 12.6805 -110.093 0 3.34897 2 0 4.53999e-06 0.574
3643 1 61.4821 13.4319 -110.136 0 3.17698 2 0 4.53999e-06 0.167184
4121 1 62.098 13.2001 -110.664 0 3.36599 2 0 4.53999e-06 0.718919
1565 1 61.2828 12.9546 -109.392 0 3.11519 2 0 4.53999e-06 0.291239
8543 1 58.0381 13.1107 -107.609 0 3.90829 2 0 4.53999e-06 0.0987238
3523 1 60.5298 12.881 -108.652 0 3.06015 2 0 4.53999e-06 -0.196447
9170 1 58.9589 14.0994 -108.872 0 3.43982 3 0 4.53999e-06 -0.377209
2449 1 56.8244 12.4358 -106.27 0 3.74753 2 0 4.53999e-06 -0.104075
2152 1 56.9153 13.2758 -106.311 0 3.77328 2 0 4.53999e-06 -0.151002
6694 1 57.2058 13.8693 -106.993 0 3.79633 2 0 4.53999e-06 -0.132113
2652 1 57.389 12.9943 -106.9 0 3.84361 2 0 4.53999e-06 -0.0223286
2199 1 56.0556 13.0262 -106.151 0 3.67531 2 0 4.53999e-06 -0.707721
6974 1 56.4216 13.7656 -106.073 0 3.70494 2 0 4.53999e-06 -0.442834
7656 1 57.2327 13.9114 -106.088 0 3.78694 2 0 4.53999e-06 0.349287
8838 1 58.8181 13.5079 -107.117 0 4.30721 2 0 4.53999e-06 0.891811
4593 1 58.301 12.6572 -106.674 0 4.20797 2 0 4.53999e-06 0.69617
8946 1 58.0126 13.6057 -106.511 0 4.09009 2 0 4.53999e-06 0.820727
3874 1 59.4442 12.0263 -107.604 0 4.38036 3 0 4.53999e-06 0.491689
4124 1 57.556 12.9237 -106.128 0 3.97761 2 0 4.53999e-06 0.767335
1256 1 56.2348 12.4556 -105.323 0 3.66039 2 0 4.53999e-06 -0.29979
6606 1 55.3065 13.7637 -104.54 0 3.52335 2 0 4.53999e-06 -0.816674
1260 1 55.5603 13.073 -105.254 0 3.6047 2 0 4.53999e-06 -0.938166
7149 1 55.6735 14.105 -105.481 0 3.59797 2 0 4.53999e-06 -0.659174
1261 1 56.6019 12.9892 -105.733 0 3.72616 2 0 4.53999e-06 -0.295725
9226 1 56.9892 13.4883 -105.452 0 3.85952 2 0 4.53999e-06 0.710388
4225 1 57.1666 12.7594 -105.464 0 3.90119 2 0 4.53999e-06 0.533737
6302 1 56.1204 13.4164 -105.467 0 3.66775 2 0 4.53999e-06 -0.97107
4424 1 56.6791 13.1058 -104.929 0 3.69919 2 0 4.53999e-06 0.283092
8497 1 56.2298 13.6889 -104.815 0 3.64397 2 0 4.53999e-06 -0.25793
8317 1 57.2741 13.7811 -104.556 0 3.96533 2 0 4.53999e-06 0.62014
6906 1 56.6419 14.0117 -105.368 0 3.70356 2 0 4.53999e-06 0.0650068
4418 1 55.9785 12.9269 -104.497 0 3.59458 2 0 4.53999e-06 -0.344562
8897 1 57.6551 13.4608 -105.6 0 3.9724 2 0 4.53999e-06 0.901243
8270 1 56.3126 13.6949 -103.889 0 3.5471 2 0 4.53999e-06 0.0315327
6452 1 54.1278 11.9247 -100.067 0 2.8957 3 0 4.53999e-06 0.157872
6508 1 51.1915 12.6135 -99.6686 0 3.52641 3 0 4.53999e-06 -0.0347212
8450 1 53.6502 14.718 -99.1635 0 5.81514 3 0 4.53999e-06 0.779693
9128 1 50.4958 13.6821 -97.5929 0 3.66047 2 0 4.53999e-06 -0.685976
2456 1 51.2179 12.8846 -97.33 0 3.68093 2 0 4.53999e-06 0.0905971
8444 1 51.3882 13.7038 -97.8895 0 3.71758 2 0 4.53999e-06 0.298569
8500 1 50.8705 14.5376 -97.9519 0 3.6655 2 0 4.53999e-06 -0.224829
1691 1 51.6282 14.4391 -97.2723 0 3.89442 2 0 4.53999e-06 0.602692
3220 1 50.3047 13.6212 -96.1508 0 3.6457 2 0 4.53999e-06 -0.97358
6241 1 50.7866 13.3626 -96.7892 0 3.68092 2 0 4.53999e-06 -0.520458
2458 1 51.4653 13.3236 -96.4549 0 3.82258 2 0 4.53999e-06 0.657904
8263 1 51.1681 13.8535 -97.0034 0 3.70931 2 0 4.53999e-06 0.191081
2600 1 51.8179 13.548 -97.1134 0 3.88649 2 0 4.53999e-06 0.849663
8314 1 50.5617 14.0431 -96.7649 0 3.67225 2 0 4.53999e-06 -0.855151
6185 1 50.7829 12.8814 -96.1434 0 3.65203 2 0 4.53999e-06 -0.240165
8738 1 50.9842 13.6114 -96.1497 0 3.68542 1 0 4.53999e-06 -0.185609
4415 1 51.4926 13.8108 -95.832 0 3.81408 2 0 4.53999e-06 0.867242
4324 1 51.9161 14.0098 -96.4171 0 3.87802 2 0 4.53999e-06 0.976424
8316 1 50.7803 14.1813 -96.1168 0 3.67273 1 0 4.53999e-06 -0.546224
3207 1 50.1506 14.3784 -95.6197 0 3.61189 2 0 4.53999e-06 -0.80677
3217 1 50.8168 14.7584 -96.9841 0 3.67399 2 0 4.53999e-06 -0.294792
3967 1 51.2732 14.513 -95.7078 0 3.68221 2 0 4.53999e-06 0.339779
3970 1 51.285 14.2659 -96.5034 0 3.70835 2 0 4.53999e-06 0.438274
7660 1 50.3324 13.3006 -95.392 0 3.61552 2 0 4.53999e-06 -0.691032
9427 1 51.2203 13.204 -95.4789 0 3.66554 2 0 4.53999e-06 0.338118
8990 1 50.8403 13.8952 -95.4174 0 3.65789 2 0 4.53999e-06 -0.290181
2212 1 51.6902 13.9754 -94.938 0 3.89806 2 0 4.53999e-06 0.715126
8442 1 50.8493 13.521 -94.5254 0 3.59977 2 0 4.53999e-06 -0.109154
4116 1 50.8028 14.5493 -94.8303 0 3.61424 2 0 4.53999e-06 -0.156831
3692 1 49.1894 14.4168 -93.3695 0 3.33041 3 0 4.53999e-06 -0.859013
1973 1 51.9575 15.2691 -92.7702 0 4.96349 3 0 4.53999e-06 0.69943
3212 1 48.0728 15.1694 -91.1606 0 3.72218 2 0 4.53999e-06 -0.47221
7653 1 48.9564 15.7187 -91.5631 0 3.79088 2 0 4.53999e-06 0.182398
8213 1 49.0075 15.3685 -90.6441 0 4.06782 2 0 4.53999e-06 0.711083
907 1 43.027 14.7246 -53.0785 0 2.61997 2 0 4.54e-06 -0.426955
8102 1 47.5256 14.8734 -89.5244 0 3.73521 2 0 4.53999e-06 -0.710114
8269 1 48.203 14.7757 -90.2767 0 3.78524 2 0 4.53999e-06 -0.166193
9225 1 48.6731 15.6784 -89.8817 0 3.99678 2 0 4.53999e-06 0.739921
8684 1 47.8931 15.4789 -90.0164 0 3.78931 2 0 4.53999e-06 -0.68558
6182 1 48.825 14.4982 -88.8331 0 3.95249 2 0 4.53999e-06 0.674505
3740 1 47.3061 15.7077 -89.3405 0 3.7289 2 0 4.53999e-06 -0.854632
8267 1 47.9164 14.405 -88.849 0 3.73275 2 0 4.53999e-06 -0.144625
9125 1 48.2978 14.9426 -89.3932 0 3.80503 1 0 4.53999e-06 0.234437
3514 1 48.0518 15.662 -89.1675 0 3.79499 1 0 4.53999e-06 -0.260105
5917 1 48.918 14.9104 -89.8477 0 4.00944 2 0 4.53999e-06 0.733866
6033 1 48.9853 15.3404 -89.1566 0 3.99874 2 0 4.53999e-06 0.989928
1974 1 47.0435 15.1564 -87.8362 0 3.65932 2 0 4.53999e-06 -0.927366
3920 1 47.2072 15.0366 -88.7105 0 3.70062 2 0 4.53999e-06 -0.960068
8315 1 47.45 14.3893 -88.0145 0 3.66609 2 0 4.53999e-06 -0.409903
7661 1 48.2882 14.6764 -88.0673 0 3.75226 2 0 4.53999e-06 0.504447
6515 1 48.6134 15.3381 -88.4792 0 3.93295 2 0 4.53999e-06 0.849695
8948 1 47.9162 15.1073 -88.7253 0 3.75902 1 0 4.53999e-06 -0.559892
8596 1 47.793 15.3101 -88.0583 0 3.7287 2 0 4.53999e-06 -0.227622
9231 1 42.42 14.1055 -52.757 0 2.61195 2 0 4.54e-06 -0.333437
7106 1 48.4558 15.5097 -87.5764 0 3.96021 2 0 4.53999e-06 0.602658
3423 1 46.8631 14.5169 -87.0192 0 3.57807 2 0 4.53999e-06 -0.676868
3288 1 44.5022 15.8909 -53.8907 0 2.56453 2 0 4.54e-06 -0.482398
8268 1 47.9297 14.6477 -87.115 0 3.65152 2 0 4.53999e-06 0.29331
2102 1 47.5282 15.5904 -87.171 0 3.66296 2 0 4.53999e-06 -0.197852
4673 1 46.6546 15.4082 -84.3094 0 3.54045 2 0 4.53999e-06 -0.13437
8264 1 47.5365 14.0241 -85.3038 0 3.48469 3 0 4.53999e-06 0.401679
4230 1 47.3441 14.7448 -83.7154 0 3.91426 2 0 4.53999e-06 0.725245
2994 1 46.5546 13.8877 -82.957 0 3.55088 2 0 4.53999e-06 0.100994
3738 1 45.3296 14.6981 -82.3959 0 3.5085 2 0 4.53999e-06 -0.779732
3642 1 46.3214 14.836 -83.4839 0 3.58493 2 0 4.53999e-06 -0.398608
9425 1 46.8104 14.8154 -82.8235 0 3.76211 2 0 4.53999e-06 0.693143
4634 1 46.0434 14.9835 -82.6896 0 3.56939 2 0 4.53999e-06 -0.517188
1925 1 46.7847 15.6819 -83.2423 0 3.62168 2 0 4.53999e-06 0.199727
1687 1 46.2016 15.7598 -82.4655 0 3.57576 2 0 4.53999e-06 -0.174942
6188 1 46.8405 14.5493 -82.0805 0 3.73999 2 0 4.53999e-06 0.784499
8101 1 46.0793 14.374 -82.2037 0 3.55229 2 0 4.53999e-06 -0.118381
909 1 46.4018 15.1304 -82.1591 0 3.58829 1 0 4.53999e-06 0.643528
5918 1 47.4929 15.2501 -82.6913 0 3.89627 2 0 4.53999e-06 0.977444
6689 1 46.977 15.5978 -81.9916 0 3.78738 2 0 4.53999e-06 0.755314
8056 1 45.5957 14.0038 -80.8518 0 3.49151 2 0 4.53999e-06 -0.128912
8740 1 44.8856 14.5784 -80.9174 0 3.48167 2 0 4.53999e-06 -0.895027
3278 1 45.0047 15.3731 -81.5149 0 3.48835 2 0 4.53999e-06 -0.84773
3371 1 44.8968 15.3872 -80.4872 0 3.4955 2 0 4.53999e-06 -0.875635
3923 1 45.4623 14.4957 -81.6119 0 3.51147 2 0 4.53999e-06 -0.659193
3737 1 45.6842 15.1527 -81.9172 0 3.53577 1 0 4.53999e-06 -0.745397
3921 1 45.5322 14.9434 -81.072 0 3.52258 1 0 4.53999e-06 -0.926035
8837 1 46.1707 14.3997 -81.4474 0 3.54149 1 0 4.53999e-06 0.357932
3517 1 46.0903 15.0754 -81.1502 0 3.55278 1 0 4.53999e-06 0.678945
3793 1 46.0342 15.614 -81.588 0 3.55575 1 0 4.53999e-06 -0.0259731
8899 1 46.5571 15.0006 -81.5435 0 3.58056 1 0 4.53999e-06 0.941834
6687 1 46.609 15.57 -80.8957 0 3.75377 2 0 4.53999e-06 0.718515
9426 1 46.1093 14.645 -80.6089 0 3.62455 2 0 4.53999e-06 0.544793
2555 1 45.6703 15.5875 -80.7724 0 3.5404 2 0 4.53999e-06 -0.175575
3218 1 45.0223 15.0496 -79.3544 0 3.51696 2 0 4.53999e-06 -0.797214
9326 1 45.3997 14.7389 -80.1663 0 3.52129 2 0 4.53999e-06 -0.439133
8743 1 46.1085 15.296 -80.1149 0 3.73486 2 0 4.53999e-06 0.668112
3969 1 45.4416 15.8008 -79.7894 0 3.55898 2 0 4.53999e-06 -0.268754
5809 1 45.9764 14.6759 -79.3693 0 3.56145 2 0 4.53999e-06 0.439928
6244 1 46.1993 15.6708 -79.0806 0 3.95707 2 0 4.53999e-06 0.623374
4131 1 44.9116 15.8545 -77.5246 0 3.54584 3 0 4.53999e-06 -0.699383
4233 1 45.5357 15.1347 -78.4218 0 3.56745 2 0 4.53999e-06 -0.284684
8839 1 46.0864 14.422 -77.6173 0 3.56018 2 0 4.53999e-06 0.48283
7375 1 46.927 13.2074 -76.6563 0 3.63337 3 0 4.53999e-06 0.517093
8597 1 45.2922 14.8951 -76.7289 0 3.56899 2 0 4.53999e-06 -0.681808
8900 1 45.5856 14.4753 -75.7551 0 3.56875 2 0 4.53999e-06 -0.132246
4589 1 45.5651 15.3959 -75.8006 0 3.58657 2 0 4.53999e-06 -0.193951
1868 1 47.0089 15.3988 -76.8335 0 3.92876 3 0 4.53999e-06 0.961577
1930 1 46.3839 14.9528 -75.4856 0 3.85561 2 0 4.53999e-06 0.91339
6037 1 46.3099 14.0906 -74.2556 0 3.61717 2 0 4.53999e-06 0.585852
8265 1 44.9498 14.9751 -75.1245 0 3.49521 2 0 4.53999e-06 -0.960244
8322 1 45.1729 14.3294 -74.2771 0 3.42671 2 0 4.53999e-06 -0.701297
3691 1 45.3145 15.2733 -74.2381 0 3.46426 2 0 4.53999e-06 -0.561062
3871 1 45.8031 14.6394 -74.8306 0 3.53221 2 0 4.53999e-06 0.2902
4017 1 45.902 15.6001 -74.9139 0 3.59788 2 0 4.53999e-06 0.261555
4414 1 46.3133 15.0641 -74.159 0 3.72311 2 0 4.53999e-06 0.848678
8645 1 45.6811 14.192 -73.5305 0 3.4124 2 0 4.53999e-06 -0.286117
9173 1 45.4523 13.9297 -72.1757 0 3.30245 2 0 4.53999e-06 -0.488716
5815 1 46.4747 13.6515 -73.3102 0 3.5346 2 0 4.53999e-06 0.599234
6181 1 46.1881 13.0479 -72.462 0 3.22289 2 0 4.53999e-06 0.23044
8545 1 46.0583 14.1852 -72.6313 0 3.48789 2 0 4.53999e-06 0.63464
3209 1 44.7979 14.8222 -73.4898 0 3.35381 2 0 4.53999e-06 -0.986459
8058 1 44.8538 14.6608 -72.0083 0 3.278 2 0 4.53999e-06 -0.984731
1012 1 46.5499 14.5772 -72.015 0 3.55062 2 0 4.53999e-06 0.993056
9424 1 45.3103 14.5156 -72.7962 0 3.35468 2 0 4.53999e-06 -0.875809
3690 1 45.17 15.3762 -72.5734 0 3.33543 2 0 4.53999e-06 -0.516138
1568 1 46.4743 14.6409 -73.2768 0 3.6316 2 0 4.53999e-06 0.962114
4592 1 45.6987 15.0949 -73.4244 0 3.42802 2 0 4.53999e-06 0.0386856
8445 1 45.9841 15.034 -72.5593 0 3.53706 2 0 4.53999e-06 0.501321
8216 1 45.1413 14.0648 -71.4556 0 3.24514 2 0 4.53999e-06 -0.835055
8845 1 44.986 13.6566 -70.5728 0 3.15716 2 0 4.53999e-06 -0.638399
7473 1 45.6708 13.2924 -71.1989 0 3.21656 2 0 4.53999e-06 0.0141068
1146 1 46.0928 13.8989 -71.722 0 3.43684 2 0 4.53999e-06 0.654886
2550 1 45.663 14.1681 -70.9961 0 3.25419 1 0 4.53999e-06 0.317319
1309 1 46.4643 14.1082 -70.9615 0 3.46656 2 0 4.53999e-06 0.953569
4517 1 44.9162 14.6424 -70.9412 0 3.20929 2 0 4.53999e-06 -0.93075
9179 1 45.6627 14.6171 -71.9591 0 3.33646 1 0 4.53999e-06 -0.200197
3516 1 45.4114 14.3051 -70.3159 0 3.18228 1 0 4.53999e-06 -0.58773
3924 1 45.3402 15.2504 -71.5761 0 3.29916 2 0 4.53999e-06 -0.388381
1927 1 45.9792 14.7137 -71.3413 0 3.31641 1 0 4.53999e-06 0.746076
3335 1 46.2531 15.5037 -71.774 0 3.60276 2 0 4.53999e-06 0.520169
3971 1 45.6051 15.0462 -70.7188 0 3.23593 2 0 4.53999e-06 0.0969211
9325 1 45.2654 13.8137 -69.4724 0 3.09274 1 0 4.53999e-06 -0.127278
8746 1 44.4511 13.543 -68.9582 0 3.02113 2 0 4.53999e-06 -0.668088
6587 1 45.8761 13.6502 -70.2331 0 3.20022 2 0 4.53999e-06 0.504788
1698 1 45.9875 14.2025 -69.4425 0 3.13647 1 0 4.53999e-06 0.996077
8552 1 46.0323 13.5149 -68.8864 0 3.16839 2 0 4.53999e-06 0.574968
8745 1 44.6007 14.1725 -69.8856 0 3.09844 2 0 4.53999e-06 -0.942687
3639 1 44.9682 14.9801 -69.9971 0 3.12615 2 0 4.53999e-06 -0.467087
8996 1 43.9862 14.5443 -69.2525 0 3.03236 2 0 4.53999e-06 -0.929459
8441 1 44.8121 14.2178 -68.8772 0 3.04974 1 0 4.53999e-06 -0.979235
3235 1 44.6635 14.9589 -68.6306 0 3.0379 2 0 4.53999e-06 -0.416555
4677 1 46.1166 14.5614 -70.2498 0 3.37226 2 0 4.53999e-06 0.861276
3515 1 45.341 14.653 -69.3523 0 3.10689 1 0 4.53999e-06 0.16691
3277 1 45.5021 15.3892 -68.8634 0 3.1278 2 0 4.53999e-06 0.205545
8266 1 45.2566 13.2901 -68.5395 0 3.02658 2 0 4.53999e-06 -0.199611
8646 1 44.7257 13.5393 -67.9167 0 2.99162 1 0 4.53999e-06 -0.625117
8951 1 44.9982 13.6224 -67.1309 0 2.98058 1 0 4.53999e-06 -0.553529
8054 1 44.0467 13.5548 -67.1719 0 2.94194 2 0 4.53999e-06 -0.757829
905 1 45.5876 14.1904 -68.6351 0 3.07943 1 0 4.53999e-06 0.850213
6463 1 46.8821 13.8055 -68.4807 0 3.36178 2 0 4.53999e-06 0.910023