ITEM: TIMESTEP
22000
ITEM: NUMBER OF ATOMS
9495
ITEM: BOX BOUNDS mm mm mm
0.0000000000000000e+00 3.4198888190303663e+01
0.0000000000000000e+00 3.1748021039364001e+01
-7.4072398406925706e-04 3.1748021039364001e+01
ITEM: ATOMS id type x y z c_phase c_temp c_surf c_nbond c_visc f_3[1]
1 1 0.116341 1.10259 0.464337 4 1.87436e-07 2 0 0.0994487 -0.68194
2 1 0.974108 1.6685 0.77798 4 4.11922e-07 2 0 0.0994487 -0.517028
3 1 0.714648 0.793562 1.41295 4 2.46831e-07 2 0 0.0994487 -0.281793
4 1 0.00336375 1.60273 1.37437 4 2.20466e-07 2 0 0.0994487 -0.804051
5 1 0.729896 0.0633724 0.61602 4 1.6723e-07 3 0 0.0994487 -0.190373
6 1 1.71015 0.808983 1.0155 4 5.51238e-07 2 0 0.0994487 -0.332065
7 1 1.80059 1.47468 0.221075 4 6.4314e-07 2 0 0.0994487 -0.125827
8 1 1.82015 1.66049 1.76126 4 7.38639e-07 2 0 0.0994487 -0.139531
9 1 2.52093 0.749102 0.203812 4 8.72939e-07 2 0 0.0994487 -0.142937
10 1 2.59149 0.0538711 1.03726 4 8.24525e-07 2 0 0.0994487 -0.295002
11 1 2.64922 1.541 0.882848 4 1.34995e-06 2 0 0.0994487 0.235778
12 1 2.66829 0.815502 1.7457 4 1.06028e-06 2 0 0.0994487 -0.187038
13 1 3.43386 0.933692 0.956349 4 2.07709e-06 2 0 0.0994487 0.320261
14 1 3.49924 0.0925696 1.70571 4 1.42701e-06 2 0 0.0994487 0.178056
15 1 3.60652 1.70798 1.71994 4 3.01289e-06 2 0 0.0994487 0.0488007
16 1 4.10576 0.858321 0.325305 4 3.38936e-06 2 0 0.0994487 0.153153
17 1 4.96159 0.56786 1.17466 4 6.81731e-06 2 0 0.0994487 -0.0370563
18 1 4.91949 1.59987 0.383508 4 8.91603e-06 2 0 0.0994487 -0.100238
19 1 4.3472 0.941527 1.62884 4 4.29562e-06 2 0 0.0994487 0.110746
20 1 3.47612 0.111428 0.171027 4 1.32744e-06 2 0 0.0994487 0.166218
25 1 5.03122 1.72414 1.43602 4 9.79905e-06 2 0 0.0994487 0.0453843
21 1 5.64741 0.645627 0.325839 4 1.14637e-05 2 0 0.0994487 -0.0805975
22 1 5.88414 1.31048 0.938036 4 1.66878e-05 2 0 0.0994487 -0.199517
23 1 6.57478 1.39104 0.218369 4 2.74118e-05 2 0 0.0994487 -0.0861229
24 1 5.78374 0.460658 1.69897 4 1.14627e-05 2 0 0.0994487 -0.0846445
26 1 6.7138 0.39031 0.865278 4 2.30924e-05 2 0 0.0994487 -0.0793718
27 1 6.69104 1.00962 1.69374 4 2.50702e-05 2 0 0.0994487 -0.107912
28 1 8.2679 0.408875 1.07337 4 6.08079e-05 2 0 0.0994487 -0.100152
29 1 7.36782 1.22285 0.954198 4 4.45693e-05 2 0 0.0994487 -0.302484
30 1 8.24709 1.39092 0.236779 4 8.00773e-05 2 0 0.0994487 -0.0460498
31 1 8.12868 1.27217 1.60653 4 6.94992e-05 2 0 0.0994487 -0.00810292
32 1 7.58247 0.647807 0.140287 4 4.22949e-05 2 0 0.0994487 -0.110927
33 1 8.85849 0.508506 0.273966 4 8.68904e-05 2 0 0.0994487 -0.0616352
34 1 9.55301 0.3386 0.888639 4 0.000126054 2 0 0.0994487 0.00508072
35 1 9.02586 1.30716 1.1133 4 0.000126435 2 0 0.0994487 -0.0605934
37 1 9.63995 1.37474 0.0900752 4 0.000166334 2 0 0.0994487 0.099303
43 1 10.2431 0.367861 0.0780499 4 0.000161382 2 0 0.0994487 0.149811
38 1 11.2128 0.215893 0.632658 4 0.000312996 2 0 0.0994487 0.203525
39 1 10.3637 1.04743 0.823114 4 0.000243983 2 0 0.0994487 0.539931
40 1 10.523 0.196295 1.44539 4 0.000209234 2 0 0.0994487 0.0644421
41 1 11.2856 1.01846 1.41785 4 0.000436697 2 0 0.0994487 0.164741
42 1 10.5797 1.67706 1.72992 4 0.000355999 2 0 0.0994487 0.118182
44 1 12.8757 0.211714 0.636805 4 0.000829296 2 0 0.0994487 0.0588103
45 1 12.0457 1.07408 0.506655 4 0.000709226 2 0 0.0994487 -0.0235222
46 1 12.1319 0.316439 1.29957 4 0.00058623 2 0 0.0994487 0.0188633
47 1 12.7194 1.19864 1.3723 4 0.00107039 2 0 0.0994487 -0.0304831
49 1 13.5924 1.113 0.843618 4 0.00164075 2 0 0.0994487 -0.26298
51 1 13.6075 0.359834 1.6352 4 0.00122511 2 0 0.0994487 -0.0562421
48 1 14.3729 0.318493 0.764646 4 0.00176335 2 0 0.0994487 -0.0460154
50 1 14.0399 1.55958 0.167469 4 0.00230945 2 0 0.0994487 -0.0898023
52 1 14.3777 1.14948 1.47647 4 0.00218396 2 0 0.0994487 -0.017793
53 1 14.8761 1.55337 0.662943 4 0.00314181 2 0 0.0994487 0.39002
56 1 15.1422 0.4642 1.64149 4 0.00233628 2 0 0.0994487 0.152099
59 1 15.1049 0.711806 0.0677822 4 0.00232883 2 0 0.0994487 0.169219
54 1 15.7061 0.770636 0.788259 4 0.00335041 2 0 0.0994487 0.366533
55 1 16.5532 1.54451 0.681338 4 0.00650907 2 0 0.0994487 0.000880513
57 1 16.547 0.712289 1.3421 4 0.00489903 2 0 0.0994487 0.0956766
58 1 15.6341 1.48544 1.3916 4 0.00423401 2 0 0.0994487 0.153688
60 1 17.2544 0.732268 0.547589 4 0.00630624 2 0 0.0994487 0.028669
61 1 17.9231 1.58109 0.757246 4 0.0106685 2 0 0.0994487 0.0416379
62 1 17.916 0.742935 1.42801 4 0.00814152 2 0 0.0994487 -0.224325
63 1 17.2202 1.74884 1.56274 4 0.00931582 2 0 0.0994487 -0.0984304
65 1 18.7918 0.725074 0.684829 4 0.00983203 2 0 0.0994487 -0.269906
69 1 18.6564 1.51302 1.50035 4 0.0129127 2 0 0.0994487 -0.250239
64 1 19.5372 0.0167772 0.662766 4 0.00913206 2 0 0.0994487 0.0436629
66 1 19.5395 1.55488 0.841653 4 0.0161748 2 0 0.0994487 -0.341083
67 1 19.0276 0.158607 1.54508 4 0.00878813 2 0 0.0994487 -0.158645
68 1 19.5934 0.967491 1.68957 4 0.0126159 2 0 0.0994487 0.00838521
71 1 20.2493 0.776373 0.980057 4 0.0138431 2 0 0.0994487 -0.0496942
74 1 20.3457 1.51479 0.193617 4 0.0181933 2 0 0.0994487 -0.0805749
70 1 21.0889 0.349843 1.06749 4 0.014286 2 0 0.0994487 -0.196098
72 1 21.1062 1.65725 0.951506 4 0.0234863 2 0 0.0994487 0.693063
73 1 21.1874 0.765598 0.218806 4 0.0156778 2 0 0.0994487 -0.0445686
75 1 22.0087 0.262534 0.539755 4 0.0158832 2 0 0.0994487 0.0993808
77 1 22.1105 1.14763 1.32981 4 0.0234682 2 0 0.0994487 0.240068
78 1 21.9982 1.59955 0.538558 4 0.0285159 2 0 0.0994487 0.185216
76 1 22.7913 0.430275 1.40734 4 0.0202838 2 0 0.0994487 0.20663
79 1 22.9157 1.07463 0.445168 4 0.0273103 2 0 0.0994487 0.0521172
81 1 23.5672 0.357563 0.57369 4 0.0231546 2 0 0.0994487 0.0385946
83 1 23.4757 1.2499 1.4028 4 0.0399166 2 0 0.0994487 0.028448
80 1 24.228 0.380179 1.45209 4 0.0272186 2 0 0.0994487 0.0575926
82 1 24.4367 1.18687 0.754729 4 0.0452454 2 0 0.0994487 -0.0192549
84 1 24.955 0.315686 0.551996 4 0.0262607 2 0 0.0994487 -0.0171784
86 1 25.169 1.12579 1.48087 4 0.0538348 2 0 0.0994487 0.0217209
85 1 26.0085 0.383365 1.1715 4 0.0263363 2 0 0.0994487 -0.185814
87 1 25.9301 1.73476 1.35794 4 0.0879594 2 0 0.0994487 0.0343412
88 1 25.8917 0.929212 0.432102 4 0.0351213 2 0 0.0994487 -0.0953981
91 1 26.7559 1.02809 1.26347 4 0.035721 2 0 0.0994487 -0.23684
93 1 26.7925 0.240345 0.226621 4 0.0175062 2 0 0.0994487 0.0380857
89 1 27.5736 1.28032 0.38906 4 0.0286998 2 0 0.0994487 0.0454703
90 1 27.6142 0.50928 0.874321 4 0.0185141 2 0 0.0994487 0.175411
92 1 28.3748 0.337482 1.39813 4 0.0121031 2 0 0.0994487 0.00986509
94 1 28.6489 1.24263 0.742341 4 0.0192796 2 0 0.0994487 0.102436
96 1 28.5228 1.71921 1.49749 4 0.0330286 2 0 0.0994487 -0.0386172
95 1 29.3912 0.945639 1.56878 4 0.0105299 2 0 0.0994487 -0.0191882
97 1 29.8133 0.173958 1.46124 4 0.00538126 2 0 0.0994487 0.133422
98 1 29.2734 0.3547 0.615275 4 0.00731821 2 0 0.0994487 -0.081672
101 1 30.1009 1.19877 0.774133 4 0.00813071 2 0 0.0994487 0.210932
100 1 30.7016 0.49015 0.470738 4 0.00395662 2 0 0.0994487 0.354854
99 1 31.5874 0.266128 1.25663 4 0.00228337 3 0 0.0994487 0.830097
102 1 30.8649 0.971942 1.39386 4 0.00488189 2 0 0.0994487 0.703283
103 1 1.11081 2.43607 0.129285 4 5.13917e-07 2 0 0.0994487 -0.0373207
104 1 0.133403 2.3821 0.812241 4 3.29458e-07 2 0 0.0994487 -0.984517
105 1 1.28845 3.23764 0.949187 4 9.22259e-07 2 0 0.0994487 0.22211
106 1 1.13977 2.36077 1.59162 4 5.95722e-07 2 0 0.0994487 -0.222187
107 1 0.386685 3.02999 1.54944 4 4.82655e-07 2 0 0.0994487 -0.671256
108 1 0.332248 3.09582 0.131296 4 4.32069e-07 2 0 0.0994487 -0.591339
109 1 1.90972 2.41867 0.78376 4 1.04122e-06 2 0 0.0994487 0.0782185
110 1 2.65852 3.28029 0.860875 4 2.85337e-06 2 0 0.0994487 0.0668147
111 1 2.66931 2.22918 1.53373 4 1.7769e-06 2 0 0.0994487 0.0829608
112 1 3.2579 3.42668 1.64938 4 4.81118e-06 2 0 0.0994487 0.00398158
113 1 2.7261 2.38168 0.0557193 4 1.61284e-06 2 0 0.0994487 0.146603
114 1 3.38195 2.55413 0.779289 4 3.65366e-06 2 0 0.0994487 0.211595
115 1 4.00679 1.841 0.711184 4 4.70062e-06 2 0 0.0994487 -0.0361098
116 1 4.91383 2.57277 0.815661 4 1.29588e-05 2 0 0.0994487 -0.259326
117 1 4.20148 3.3175 0.749446 4 1.00648e-05 2 0 0.0994487 0.00622711
118 1 4.13245 2.64107 1.58328 4 7.0042e-06 2 0 0.0994487 0.0270864
119 1 5.65047 2.44269 0.132743 4 2.04811e-05 2 0 0.0994487 -0.189918
120 1 6.55776 2.18062 0.772597 4 3.623e-05 2 0 0.0994487 -0.289293
121 1 5.64874 3.19593 0.952489 4 2.85499e-05 2 0 0.0994487 -0.754585
122 1 5.861 2.19426 1.49672 4 2.15449e-05 2 0 0.0994487 0.0126469
123 1 6.52037 3.06691 1.5557 4 4.89262e-05 2 0 0.0994487 0.0443692
124 1 6.65033 2.92778 0.134227 4 4.61966e-05 2 0 0.0994487 0.0288964
125 1 7.45405 2.22586 0.139832 4 6.57269e-05 2 0 0.0994487 -0.0534899
126 1 8.08209 2.20208 0.930382 4 0.000102572 2 0 0.0994487 -0.301968
127 1 7.40132 3.06835 0.934051 4 9.33735e-05 2 0 0.0994487 -0.0453807
128 1 7.29928 2.06035 1.56856 4 5.58251e-05 2 0 0.0994487 -0.0607208
129 1 8.18545 3.00183 1.65211 4 0.000149532 2 0 0.0994487 -0.0454035
130 1 8.26934 2.9712 0.0392146 4 0.000155115 2 0 0.0994487 -0.150607
131 1 8.90393 2.08699 0.252387 4 0.000154768 2 0 0.0994487 0.00245004
132 1 9.77243 2.0246 1.10996 4 0.000261835 2 0 0.0994487 0.173534
133 1 8.92671 2.97262 0.928693 4 0.00024501 2 0 0.0994487 -0.156636
134 1 9.03062 2.22066 1.70398 4 0.0001813 2 0 0.0994487 -0.0819545
135 1 9.56096 2.90576 0.21312 4 0.000321954 2 0 0.0994487 0.173135
136 1 10.2834 2.1137 0.214297 4 0.000319155 2 0 0.0994487 0.337752
137 1 11.1583 1.82604 0.771092 4 0.000551322 2 0 0.0994487 0.260135
138 1 10.6214 2.80819 0.921535 4 0.000630133 2 0 0.0994487 0.541979
139 1 11.4444 2.82964 1.57484 4 0.0010503 2 0 0.0994487 0.0952296
141 1 11.928 2.64099 0.742299 4 0.00128083 2 0 0.0994487 -0.0386279
142 1 11.9239 1.9206 1.46509 4 0.000910465 2 0 0.0994487 0.0946912
140 1 12.6737 1.94118 0.593851 4 0.00146264 2 0 0.0994487 -0.283888
143 1 12.8449 3.01766 1.68597 4 0.00239874 2 0 0.0994487 0.0363846
144 1 13.1791 3.03035 0.848852 4 0.00296097 2 0 0.0994487 -0.440766
145 1 13.3784 1.9912 1.48064 4 0.00200665 2 0 0.0994487 -0.0150391
152 1 13.4137 2.29398 0.0590902 4 0.00238469 2 0 0.0994487 -0.280942
146 1 14.0206 2.44438 0.927124 4 0.00335331 2 0 0.0994487 -0.132928
147 1 14.0279 3.38359 1.55716 4 0.00506636 2 0 0.0994487 0.0256081
148 1 14.6961 3.43698 0.884932 4 0.00711445 2 0 0.0994487 -0.332646
149 1 14.7823 2.29758 1.44821 4 0.00427148 2 0 0.0994487 0.0469631
150 1 14.8418 2.51505 0.136557 4 0.00473532 2 0 0.0994487 0.173033
151 1 14.1591 3.2262 0.0325348 4 0.00500672 2 0 0.0994487 -0.246085
156 1 15.3694 3.25723 1.50191 4 0.00874081 2 0 0.0994487 -0.00762606
153 1 15.6993 2.44373 0.692668 4 0.00673819 2 0 0.0994487 0.364485
154 1 16.3029 3.20095 0.662084 4 0.0120066 2 0 0.0994487 0.328674
155 1 16.308 2.47951 1.52575 4 0.0090713 2 0 0.0994487 -0.100592
157 1 15.5706 3.25854 0.0192499 4 0.00834057 2 0 0.0994487 0.290262
158 1 17.0646 2.35032 0.682778 4 0.011216 2 0 0.0994487 0.0235505
161 1 17.0918 3.1162 1.49491 4 0.0167572 2 0 0.0994487 -0.143356
159 1 17.944 2.92608 0.699539 4 0.020821 2 0 0.0994487 -0.231112
160 1 18.0193 2.43917 1.58112 4 0.0167886 2 0 0.0994487 -0.149069
162 1 18.8908 2.35742 1.01358 4 0.0205434 2 0 0.0994487 -0.516684
163 1 19.7027 3.2427 1.27782 4 0.0409115 2 0 0.0994487 0.397593
164 1 18.884 2.99607 0.196019 4 0.026985 2 0 0.0994487 -0.17177
165 1 19.587 2.34239 0.101452 4 0.0228811 2 0 0.0994487 -0.132342
168 1 20.1948 2.46882 1.11433 4 0.028586 2 0 0.0994487 0.287844
166 1 20.3251 1.78863 1.72442 4 0.0200772 2 0 0.0994487 0.0449983
170 1 20.4222 2.99313 0.334941 4 0.0382721 2 0 0.0994487 0.18634
167 1 21.1565 2.41663 0.458355 4 0.0354747 2 0 0.0994487 0.196239
169 1 21.31 3.29463 1.39314 4 0.0708417 2 0 0.0994487 0.0493068
173 1 22.0961 2.49917 1.23787 4 0.0573425 2 0 0.0994487 0.177943
174 1 21.9898 3.20043 0.598797 4 0.0784402 2 0 0.0994487 -0.0771045
171 1 22.8719 2.07007 1.50872 4 0.06289 2 0 0.0994487 -0.0415946
172 1 22.9717 2.60199 0.735523 4 0.0797595 2 0 0.0994487 0.13151
175 1 22.6771 3.40124 0.07601 4 0.096945 2 0 0.0994487 0.076101
176 1 23.7438 1.80844 0.624025 4 0.0576819 2 0 0.0994487 -0.0872421
179 1 23.6887 2.90303 1.53628 4 0.162225 2 0 0.0994487 -0.118905
177 1 24.4289 1.98763 1.61102 4 0.111099 2 0 0.0994487 -0.0825842
178 1 24.342 2.68296 0.775192 4 0.119216 2 0 0.0994487 -0.33696
180 1 24.4728 3.51078 1.55704 0 0.257559 2 0 0.0994058 -0.215501
181 1 24.9562 2.84566 0.0146836 4 0.112206 2 0 0.0994487 -0.0864486
183 1 25.1322 1.85613 0.509414 4 0.0737636 2 0 0.0994487 -0.0215166
185 1 25.1579 2.55548 1.52547 4 0.172967 2 0 0.0994487 0.0581225
182 1 26.5483 1.79415 0.511367 4 0.0615184 2 0 0.0994487 -0.00562851
184 1 25.7918 2.61203 0.707489 4 0.126368 2 0 0.0994487 0.225874
186 1 25.7213 3.49812 1.51211 0 0.30533 2 0 0.0990441 0.164391
187 1 26.5364 2.56002 1.53049 4 0.203487 2 0 0.0994487 0.0558842
188 1 26.1686 3.50068 0.599043 4 0.191709 2 0 0.0994487 0.168499
191 1 27.0867 2.6924 0.645359 4 0.106343 2 0 0.0994487 -0.104188
192 1 27.1998 3.35397 1.41682 4 0.240509 2 0 0.0994487 -0.0965071
189 1 27.5039 1.98546 1.23792 4 0.0675392 2 0 0.0994487 -0.180611
190 1 28.2489 2.09022 0.343734 4 0.0391419 2 0 0.0994487 -0.0177062
193 1 28.2537 2.75799 1.20639 4 0.0920481 2 0 0.0994487 -0.426417
194 1 27.982 3.21993 0.326384 4 0.091234 2 0 0.0994487 -0.12522
196 1 29.4477 2.04702 0.879698 4 0.0231326 2 0 0.0994487 -0.00705417
197 1 29.1956 2.6589 0.290703 4 0.0340966 2 0 0.0994487 -0.0578227
198 1 29.2495 3.2651 1.17365 4 0.0719405 2 0 0.0994487 0.139432
195 1 29.9568 1.80906 1.70764 4 0.014485 2 0 0.0994487 0.183208
200 1 30.1815 2.71094 1.00186 4 0.0218032 2 0 0.0994487 0.675304
203 1 30.1092 3.25953 0.132205 4 0.0232483 2 0 0.0994487 -0.0443632
204 1 30.4116 1.90909 0.0255368 4 0.00900914 2 0 0.0994487 0.106047
199 1 30.9114 1.98502 0.924207 4 0.00883699 2 0 0.0994487 0.967253
201 1 31.0247 3.35309 0.97101 4 0.0172909 2 0 0.0994487 0.998409
202 1 30.9865 2.69483 1.72648 4 0.0126001 2 0 0.0994487 0.57854
205 1 31.1434 2.66402 0.0761253 4 0.00934011 2 0 0.0994487 0.70882
206 1 0.293831 3.78503 0.918557 4 6.13195e-07 2 0 0.0994487 -0.999347
207 1 0.143046 4.59443 0.482118 4 7.22643e-07 2 0 0.0994487 -0.784494
208 1 1.14036 4.67093 0.986638 4 1.47392e-06 2 0 0.0994487 -0.516747
209 1 0.0884667 5.26681 1.27761 4 8.86526e-07 2 0 0.0994487 -0.887458
210 1 1.04069 3.86421 0.0595682 4 8.87423e-07 2 0 0.0994487 0.014889
211 1 1.84117 4.04604 0.847105 4 2.05609e-06 2 0 0.0994487 0.0082815
212 1 2.54049 4.85585 1.13748 4 4.86781e-06 2 0 0.0994487 -0.333837
213 1 2.64953 4.14475 0.20674 4 4.08134e-06 2 0 0.0994487 -0.0285689
214 1 1.89758 4.96895 0.278386 4 3.0167e-06 2 0 0.0994487 -0.153431
215 1 3.40771 4.86189 0.161635 4 9.61257e-06 2 0 0.0994487 -0.0163835
216 1 3.494 4.07675 0.885909 4 7.84945e-06 2 0 0.0994487 0.0269136
217 1 4.91235 4.00001 1.18344 4 2.29828e-05 2 0 0.0994487 0.0115499
218 1 4.04658 4.88002 1.14639 4 1.62821e-05 2 0 0.0994487 0.264503
219 1 4.26027 4.18509 0.149001 4 1.44766e-05 2 0 0.0994487 0.0377433
220 1 5.00947 4.74001 0.341082 4 3.2243e-05 2 0 0.0994487 0.076549
221 1 5.77735 3.9378 0.198707 4 3.80121e-05 2 0 0.0994487 0.0260228
222 1 6.48883 3.76611 0.772067 4 6.36416e-05 2 0 0.0994487 0.204579
223 1 5.68025 4.73638 1.02487 4 5.55778e-05 2 0 0.0994487 -0.621578
224 1 6.66321 4.5115 1.6428 4 9.61702e-05 2 0 0.0994487 0.158944
225 1 6.68072 5.1315 0.885352 4 0.000132999 2 0 0.0994487 0.206902
226 1 8.1982 3.892 0.700757 4 0.000236293 2 0 0.0994487 -0.369869
227 1 7.40842 4.46072 0.5468 4 0.000171096 2 0 0.0994487 -0.0251956
228 1 7.39886 3.87029 1.49684 4 0.000128127 2 0 0.0994487 0.102594
229 1 8.20004 4.61106 1.48677 4 0.000313533 2 0 0.0994487 -0.0118202
230 1 9.8976 3.57792 0.885667 4 0.000588495 2 0 0.0994487 0.592961
231 1 9.07913 4.56551 0.821335 4 0.000548773 2 0 0.0994487 -0.658488
232 1 9.86266 4.50302 0.126324 4 0.000766918 2 0 0.0994487 0.0958791
233 1 9.07829 3.76256 1.49819 4 0.000388551 2 0 0.0994487 -0.0708689
234 1 9.86881 4.3462 1.65532 4 0.000817167 2 0 0.0994487 -0.0856465
235 1 8.98541 3.86821 0.0631775 4 0.000363165 2 0 0.0994487 -0.138743
236 1 11.408 3.64493 0.778297 4 0.00150176 2 0 0.0994487 0.202109
237 1 10.5891 4.66652 0.906264 4 0.00142684 2 0 0.0994487 0.0452068
238 1 11.3867 4.69403 0.230734 4 0.00229003 2 0 0.0994487 -0.0498704
239 1 10.7059 3.56689 1.58785 4 0.000963895 2 0 0.0994487 -0.0448257
240 1 11.3652 4.3716 1.70545 4 0.00198994 2 0 0.0994487 -0.079805
241 1 11.3894 5.27213 0.983682 4 0.00292389 2 0 0.0994487 -0.674393
242 1 10.5826 3.84888 0.176129 4 0.000934572 2 0 0.0994487 0.210481
243 1 12.5168 3.57716 0.814749 4 0.00271223 2 0 0.0994487 -0.0105193
244 1 12.1916 4.55033 1.00021 4 0.00343711 2 0 0.0994487 0.105208
245 1 12.7362 4.99738 1.68903 4 0.00512596 2 0 0.0994487 0.191357
246 1 13.2258 4.67863 0.80017 4 0.00629958 2 0 0.0994487 -0.00456944
247 1 12.6435 4.61885 0.0632315 4 0.00454839 2 0 0.0994487 -0.0335597
249 1 13.4832 4.21781 1.59317 4 0.00561652 2 0 0.0994487 0.0820525
248 1 13.9891 4.12825 0.69648 4 0.00729677 2 0 0.0994487 -0.430091
250 1 14.2046 5.11838 1.52001 4 0.0120401 2 0 0.0994487 -0.0289536
251 1 14.9402 5.01141 0.811699 4 0.0159921 2 0 0.0994487 -0.0518126
252 1 14.9642 4.4167 1.59432 4 0.012511 2 0 0.0994487 -0.0635261
253 1 14.1405 4.90647 0.0597868 4 0.0105505 2 0 0.0994487 -0.0856659
254 1 14.961 4.19423 0.096508 4 0.0107277 2 0 0.0994487 0.0323018
255 1 15.6685 4.06642 0.926277 4 0.0141423 2 0 0.0994487 0.87265
256 1 15.8798 4.77595 0.186426 4 0.0204769 2 0 0.0994487 0.165433
257 1 16.5936 4.58036 0.900182 4 0.0263953 2 0 0.0994487 -0.0785278
258 1 16.3184 3.95875 1.6903 4 0.0178652 2 0 0.0994487 -0.0433466
259 1 15.8111 5.05317 1.64084 4 0.0228195 2 0 0.0994487 0.0995427
260 1 17.2689 3.83372 0.811237 4 0.0251812 2 0 0.0994487 -0.345258
261 1 18.0864 4.48855 1.09806 4 0.0459308 2 0 0.0994487 -0.62377
262 1 17.9525 3.63794 1.65602 4 0.0304114 2 0 0.0994487 -0.192994
263 1 17.4569 4.57727 0.0147963 4 0.033561 2 0 0.0994487 -0.0973705
264 1 18.1348 3.8547 0.0583493 4 0.0315532 2 0 0.0994487 -0.120481
268 1 18.7859 5.27693 1.20102 4 0.0882157 2 0 0.0994487 0.521308
265 1 18.8779 3.70667 0.95022 4 0.0404146 2 0 0.0994487 0.0632857
266 1 18.8235 4.60949 0.361826 4 0.0551833 2 0 0.0994487 0.115666
267 1 19.6906 4.67872 1.0803 4 0.0884188 2 0 0.0994487 0.939866
269 1 19.5987 3.76722 0.227421 4 0.0454951 2 0 0.0994487 0.16431
274 1 20.1339 4.78559 0.352846 4 0.093896 2 0 0.0994487 0.145566
270 1 20.4384 3.82188 1.23329 4 0.0721925 2 0 0.0994487 0.373096
271 1 20.8846 4.71868 1.39403 4 0.146596 2 0 0.0994487 0.17422
272 1 21.5775 4.95128 0.810455 4 0.175339 2 0 0.0994487 -0.0204234
273 1 21.0824 3.93136 0.512408 4 0.0833263 2 0 0.0994487 0.0880932
276 1 21.9406 4.13318 1.31068 4 0.152573 2 0 0.0994487 -0.0238766
275 1 22.8205 3.63186 1.42135 4 0.172823 2 0 0.0994487 0.0177714
277 1 22.4705 5.17735 1.27286 0 0.268941 2 0 0.0993344 0.0329702
278 1 22.6119 4.34705 0.510028 4 0.163801 2 0 0.0994487 -0.0210569
279 1 23.5735 3.63903 0.782677 4 0.162629 2 0 0.0994487 0.186357
281 1 23.4679 4.54946 1.33355 0 0.269119 2 0 0.0993333 -0.102251
283 1 23.5518 5.06386 0.533607 0 0.27641 2 0 0.099283 -0.0953524
280 1 24.336 4.32055 0.625018 4 0.249816 2 0 0.0994487 -0.149166
282 1 24.8518 5.25716 0.566763 0 0.347974 2 0 0.0985401 0.0344832
286 1 24.363 5.28843 1.43377 0 0.424163 2 0 0.0969036 -0.339957
284 1 25.0086 4.50055 1.62342 0 0.439582 2 0 0.0963987 -0.30967
285 1 25.0629 3.68037 0.802132 4 0.220384 2 0 0.0994487 -0.194111
290 1 25.5284 4.40089 0.388179 0 0.264271 2 0 0.0993647 0.0546294
287 1 25.6904 5.1389 1.34266 0 0.446385 2 0 0.0961512 0.544279
288 1 26.3575 4.29031 1.37159 0 0.361209 2 0 0.0983357 0.38067
289 1 26.5026 4.97257 0.640732 0 0.311285 2 0 0.0989858 0.096369
291 1 27.3302 4.86961 1.40568 0 0.391485 2 0 0.0977554 0.0563312
294 1 27.0674 4.04323 0.570038 4 0.201462 2 0 0.0994487 0.0135962
292 1 27.9624 3.97641 1.10408 4 0.188509 2 0 0.0994487 -0.361872
293 1 28.2771 4.73475 0.706344 4 0.199624 2 0 0.0994487 -0.0792285
295 1 28.9321 3.77016 0.487204 4 0.0845988 2 0 0.0994487 -0.0072172
296 1 29.0873 4.52317 1.33085 4 0.212755 2 0 0.0994487 0.12462
297 1 29.9979 4.07209 1.02303 4 0.0584196 2 0 0.0994487 -0.252782
299 1 30.2046 4.67765 0.491317 4 0.0567932 2 0 0.0994487 0.0104851
298 1 31.0296 3.97382 0.373364 4 0.020862 2 0 0.0994487 0.657583
300 1 30.9783 4.59929 1.41131 4 0.0365005 2 0 0.0994487 0.692121
301 1 0.908283 5.53205 0.461647 4 1.72625e-06 2 0 0.0994487 -0.463784
302 1 1.53161 5.51184 1.37971 4 2.64857e-06 2 0 0.0994487 -0.117384
303 1 0.793684 6.22023 1.2768 4 2.01312e-06 2 0 0.0994487 -0.70338
304 1 0.257003 6.91734 1.50738 4 1.72965e-06 2 0 0.0994487 -0.772633
305 1 0.969942 6.9454 0.573423 4 2.89481e-06 2 0 0.0994487 -0.473531
306 1 1.7053 7.02884 1.23811 4 4.83942e-06 2 0 0.0994487 0.0665215
307 1 1.89588 6.19966 0.519025 4 4.56555e-06 2 0 0.0994487 -0.156396
308 1 3.10475 5.61709 1.30057 4 9.75094e-06 2 0 0.0994487 0.0402584
309 1 2.26359 6.15348 1.40977 4 5.65416e-06 2 0 0.0994487 0.0408593
310 1 3.25442 6.96226 1.12748 4 1.8487e-05 2 0 0.0994487 -0.0541171
311 1 2.68177 5.61289 0.273587 4 7.0217e-06 2 0 0.0994487 -0.059682
312 1 3.39503 6.28191 0.500536 4 1.69276e-05 2 0 0.0994487 -0.121436
313 1 4.18979 5.46246 0.325783 4 2.29698e-05 2 0 0.0994487 0.0310247
314 1 4.93434 5.42873 1.31778 4 4.39953e-05 2 0 0.0994487 -0.235089
315 1 4.13622 6.09659 1.22779 4 2.9509e-05 2 0 0.0994487 -0.0893812
316 1 4.82567 6.23357 0.333842 4 5.10747e-05 2 0 0.0994487 -0.0345683
317 1 4.77312 6.79931 1.15967 4 6.33357e-05 2 0 0.0994487 -0.30592
318 1 4.00267 7.02511 0.221759 4 3.40228e-05 2 0 0.0994487 -0.0853389
319 1 5.78575 5.42185 0.301847 4 7.54158e-05 2 0 0.0994487 0.0125103
320 1 5.6935 6.24342 0.9632 4 0.000101428 2 0 0.0994487 -0.96776
321 1 6.4578 5.98425 1.59671 4 0.000154451 2 0 0.0994487 0.140923
322 1 6.43234 6.86927 1.00965 4 0.000218244 2 0 0.0994487 0.851687
323 1 6.37773 6.04115 0.154639 4 0.000133499 2 0 0.0994487 0.111119
324 1 5.54993 7.05206 0.147147 4 0.000108875 2 0 0.0994487 0.0363919
325 1 8.21355 5.31419 0.694273 4 0.000427953 2 0 0.0994487 -0.0895554
326 1 7.32761 6.15925 0.754293 4 0.000313183 2 0 0.0994487 0.225757
327 1 7.39163 5.41839 1.49138 4 0.000243231 2 0 0.0994487 0.136767
328 1 8.23884 6.11028 1.49159 4 0.000597739 2 0 0.0994487 0.0187531
329 1 8.01352 6.85364 0.728993 4 0.000683319 2 0 0.0994487 0.0692076
330 1 7.28191 6.86379 1.59601 4 0.000419609 2 1 0.0994487 0.126052
331 1 7.33029 5.3575 0.0461812 4 0.000205077 2 0 0.0994487 0.0813649
332 1 9.76796 5.3194 0.792562 4 0.00111491 2 0 0.0994487 0.328508
333 1 8.88016 6.18865 0.736908 4 0.000946233 2 0 0.0994487 -0.23551
334 1 9.05434 5.3271 1.5973 4 0.000738269 2 0 0.0994487 -0.062817
335 1 9.73844 6.19052 1.46731 4 0.00165064 2 0 0.0994487 -0.106437
336 1 9.09351 6.95013 1.463 4 0.00154934 2 2 0.0994487 -0.0758613
337 1 9.76329 6.23201 0.0941385 4 0.00155626 2 0 0.0994487 -0.0359424
338 1 8.99733 5.46479 0.012702 4 0.000703862 2 0 0.0994487 -0.134745
339 1 10.5831 6.02196 0.964384 4 0.00248789 2 0 0.0994487 -0.356264
340 1 11.3128 6.37134 0.0776634 4 0.00366768 2 0 0.0994487 0.100355
341 1 10.5187 6.94145 0.15452 4 0.0030986 2 0 0.0994487 -0.0735245
342 1 10.4686 6.92564 1.49614 4 0.00347009 2 1 0.0994487 -0.0634476
345 1 11.7774 6.20735 1.05291 4 0.00504597 2 0 0.0994487 0.29239
343 1 11.9994 5.6274 0.183157 4 0.00430978 2 0 0.0994487 -0.0105101
344 1 12.6757 5.81849 0.861776 4 0.00718118 2 0 0.0994487 0.0818413
346 1 13.3219 5.86668 1.55471 4 0.0100685 2 0 0.0994487 0.208198
347 1 13.3506 6.58297 0.813679 4 0.0146141 2 0 0.0994487 -0.292044
348 1 13.3212 5.53867 0.0424813 4 0.00895001 2 0 0.0994487 -0.142888
349 1 14.0617 5.71565 0.77266 4 0.0144115 2 0 0.0994487 -0.372418
350 1 14.3278 6.65176 1.40646 4 0.0258921 2 1 0.0994487 -0.103091
351 1 14.1303 6.38483 0.0380077 4 0.0176897 2 0 0.0994487 -0.0825911
352 1 15.0282 5.64393 0.034369 4 0.0203224 2 0 0.0994487 0.0573925
354 1 15.0472 6.45091 0.806774 4 0.0313537 2 0 0.0994487 -0.175946
356 1 15.1058 5.87594 1.69804 4 0.0264485 2 0 0.0994487 -0.097634
353 1 15.8305 5.73813 0.95832 4 0.0321293 2 0 0.0994487 0.625972
355 1 16.491 6.45257 1.1401 4 0.0590285 2 0 0.0994487 0.207779
357 1 16.62 5.41933 0.276819 4 0.0361081 2 0 0.0994487 0.0799793
358 1 15.6753 6.3382 0.0390223 4 0.0352422 2 0 0.0994487 0.0398765
361 1 17.0619 6.27419 0.411469 4 0.0621294 2 0 0.0994487 0.13901
359 1 17.8271 5.30128 0.541411 4 0.0543417 2 0 0.0994487 0.150407
360 1 17.113 5.42499 1.24767 4 0.0475143 2 0 0.0994487 -0.286489
362 1 17.6649 6.24649 1.38542 4 0.084712 2 0 0.0994487 -0.273102
363 1 18.2745 7.0517 1.13153 4 0.131949 2 0 0.0994487 0.679662
364 1 18.3714 6.23173 0.609762 4 0.100197 2 0 0.0994487 0.155493
365 1 19.429 5.75829 0.62055 4 0.1218 2 0 0.0994487 0.0564259
366 1 19.3279 6.55755 1.35081 4 0.176588 2 0 0.0994487 0.32287
367 1 19.9942 6.75229 0.610261 4 0.214942 2 0 0.0994487 -0.00969161
369 1 20.1931 5.61076 1.39557 4 0.172397 2 0 0.0994487 0.362159
368 1 20.7494 5.77593 0.653722 4 0.192994 2 0 0.0994487 -0.103533
370 1 20.7787 6.6124 1.30355 0 0.297815 2 0 0.0991128 -0.521429
371 1 21.6592 6.66248 0.666524 0 0.319618 2 0 0.098898 -0.0468221
372 1 21.6631 5.87866 1.38528 0 0.30221 2 0 0.0990732 -0.0360311
373 1 21.6904 5.73259 0.0517844 4 0.221 2 0 0.0994487 -0.00167165
374 1 22.6732 5.8279 0.674154 0 0.307493 2 0 0.0990232 0.00526604
375 1 22.6319 6.69333 1.20734 0 0.42152 2 0 0.0969826 -0.407121
376 1 23.3484 6.78052 0.267835 0 0.404786 2 0 0.0974404 -0.12485
377 1 23.4822 5.88496 1.30013 0 0.409844 2 0 0.0973099 -0.184857
378 1 24.3197 6.56281 1.15825 0 0.480824 2 0 0.0946201 0.331546
379 1 24.1457 6.00685 0.427617 0 0.380951 2 0 0.0979767 0.00259911
381 1 25.1124 6.04132 1.67733 0 0.587218 2 0 0.0853354 -0.162537
382 1 25.1593 6.74159 0.495153 0 0.455219 2 0 0.0958046 0.0890848
380 1 25.6831 5.86213 0.700952 0 0.414278 2 0 0.0971902 0.160219
383 1 25.8251 6.59457 1.40775 0 0.5474 2 0 0.0898483 0.245854
384 1 26.6903 5.84511 1.4763 0 0.506954 2 0 0.0930824 0.236844
386 1 26.7485 6.36567 0.651888 0 0.407949 2 0 0.09736 0.0387058
385 1 27.4966 5.54334 0.722172 0 0.313335 2 0 0.098965 -0.242175
387 1 27.7011 6.47315 1.36539 0 0.483248 2 0 0.0944932 0.0528492
389 1 27.7097 7.0074 0.530173 0 0.368138 2 0 0.0982177 0.0263933
388 1 28.3648 5.52203 1.4872 0 0.485618 2 0 0.0943665 -0.0201152
393 1 28.4685 6.20589 0.638647 0 0.270742 2 0 0.0993226 -0.249959
395 1 28.4822 5.38976 0.0592959 4 0.172713 2 0 0.0994487 -0.104896
390 1 29.3889 5.30889 0.818726 4 0.163055 2 0 0.0994487 0.318638
391 1 29.4379 6.18214 1.32212 0 0.309914 2 0 0.0989999 0.159441
392 1 29.5784 6.89773 0.506505 4 0.175105 2 0 0.0994487 0.096584
394 1 29.3762 6.15398 0.0801838 4 0.142594 2 0 0.0994487 0.0973192
397 1 30.2159 5.45949 1.46813 4 0.164758 2 0 0.0994487 0.175469
398 1 30.3958 6.18258 0.649752 4 0.0985358 2 0 0.0994487 0.323391
396 1 30.9636 5.36838 0.595026 4 0.0488255 2 0 0.0994487 0.667107
399 1 31.2189 6.15516 1.38439 4 0.0826952 2 0 0.0994487 0.668233
400 1 31.1994 6.95407 0.60342 4 0.0669321 2 0 0.0994487 0.810541
401 1 31.7235 5.99622 0.446564 4 0.0344535 2 0 0.0994487 0.879718
402 1 0.261851 7.63199 0.661866 4 2.24138e-06 2 0 0.0994487 -0.876373
403 1 0.831025 8.46344 0.61936 4 3.71333e-06 2 0 0.0994487 -0.577625
404 1 1.11211 7.86396 1.49711 4 3.73626e-06 2 0 0.0994487 -0.154427
405 1 0.356955 8.5626 1.47035 4 2.75991e-06 2 0 0.0994487 -0.764984
406 1 1.59266 7.76478 0.37187 4 5.52838e-06 2 0 0.0994487 -0.0897859
407 1 1.72382 8.61735 1.46471 4 7.16855e-06 2 0 0.0994487 0.039599
408 1 2.48799 7.14986 0.476331 4 1.03085e-05 2 0 0.0994487 -0.0836912
409 1 2.19177 8.6335 0.399707 4 1.11304e-05 2 0 0.0994487 -0.137264
410 1 2.39416 7.81099 1.27726 4 1.08499e-05 2 0 0.0994487 0.086996
411 1 3.01349 8.51445 0.935533 4 2.19468e-05 2 0 0.0994487 -0.539295
412 1 3.24418 7.77117 0.327041 4 2.25774e-05 2 0 0.0994487 -0.1962
413 1 3.81243 8.45898 0.0822892 4 3.80315e-05 2 0 0.0994487 -0.0457751
414 1 3.97971 7.67009 1.24863 4 4.02044e-05 2 0 0.0994487 -0.0554827
415 1 4.70459 8.25653 0.921772 4 8.13677e-05 2 0 0.0994487 0.295374
416 1 4.67023 7.63706 0.247803 4 6.57343e-05 2 0 0.0994487 0.0376983
417 1 3.81127 8.34851 1.76162 4 3.79525e-05 2 0 0.0994487 -0.0574332
418 1 5.86955 8.34822 0.169905 4 0.000189963 2 0 0.0994487 0.11311
419 1 5.48363 7.59071 1.03232 4 0.000135551 2 0 0.0994487 -0.467639
420 1 6.49365 7.53799 0.169175 4 0.000255586 2 0 0.0994487 0.18763
421 1 6.39674 8.23976 1.04384 4 0.000329793 2 0 0.0994487 0.338168
422 1 7.28583 7.76918 0.746313 4 0.000574575 2 1 0.0994487 0.0099388
423 1 8.2859 8.31376 0.868772 4 0.00139199 2 2 0.0994487 0.278582
424 1 7.27857 8.18368 1.7015 4 0.000744516 2 2 0.0994487 -0.174786
425 1 8.05208 7.48784 1.5604 4 0.000945755 2 1 0.0994487 0.185072
426 1 7.99895 7.60312 0.0282118 4 0.000763605 2 0 0.0994487 0.0674181
427 1 9.84313 7.22199 0.72344 4 0.00261349 2 1 0.0994487 -0.346904
428 1 8.91207 7.61626 0.661731 4 0.00163428 2 1 0.0994487 0.158656
429 1 9.73234 8.61964 0.693151 4 0.00381693 2 3 0.0994487 -0.257129
430 1 9.09265 8.69904 1.44495 4 0.00300173 2 9 0.0994487 -0.394712
431 1 9.64026 7.88932 1.60055 4 0.00343976 2 8 0.0994487 -0.340416
432 1 11.3161 7.14287 0.810636 4 0.00557214 2 1 0.0994487 0.448617
433 1 10.5731 7.9454 0.844311 4 0.00506206 2 3 0.0994487 -0.198113
434 1 10.5877 8.70196 1.4255 4 0.00680409 1 8 0.0994487 -0.145785
435 1 11.4057 7.80503 1.60301 4 0.00853267 2 7 0.0994487 0.228563
436 1 11.227 8.11851 0.0422735 4 0.00630656 2 0 0.0994487 0.174341
437 1 12.7061 7.28322 0.565784 4 0.0136252 2 0 0.0994487 -0.0531075
438 1 12.178 8.23518 0.590765 4 0.0131563 2 2 0.0994487 0.163976
439 1 12.0637 7.15788 1.37768 4 0.00928711 2 3 0.0994487 0.145811
440 1 12.0887 8.68064 1.49044 4 0.0164094 1 8 0.0994487 0.0823711
441 1 12.8601 7.99585 1.47598 4 0.02183 2 6 0.0994487 -0.216805
444 1 13.458 7.34024 1.34133 4 0.0226296 2 2 0.0994487 0.0545971
443 1 13.6169 8.09282 0.464536 4 0.0274691 2 2 0.0994487 0.0237906
442 1 14.3373 7.3542 0.580954 4 0.0312498 2 0 0.0994487 0.0649371
445 1 14.2471 8.18371 1.35246 4 0.0451807 2 5 0.0994487 0.0241812