ITEM: TIMESTEP
28000
ITEM: NUMBER OF ATOMS
9495
ITEM: BOX BOUNDS mm mm mm
0.0000000000000000e+00 4.4027364261313707e+01
-1.0309041047018788e+00 3.1766122053618421e+01
-1.1913864061504249e+01 3.1748021039364001e+01
ITEM: ATOMS id type x y z c_phase c_temp c_surf c_nbond c_visc f_3[1]
1924 1 41.8186 12.8757 -10.4877 0 2.84687 2 0 4.53999e-06 -0.109769
2149 1 41.2981 13.6734 -10.8805 0 2.8246 2 0 4.53999e-06 -0.488591
2453 1 41.069 14.4116 -11.5691 0 2.79238 2 0 4.53999e-06 -0.300779
2454 1 40.7371 14.6882 -10.6831 0 2.77573 2 0 4.53999e-06 -0.956857
1920 1 41.7669 14.6392 -10.9377 0 2.89189 2 0 4.53999e-06 0.382596
1560 1 42.3591 13.7497 -10.8901 0 3.03441 2 0 4.53999e-06 0.45578
4521 1 43.198 15.1967 -10.2672 0 3.52016 2 0 4.53999e-06 0.606534
2150 1 41.244 12.2893 -9.44613 0 2.63515 2 0 4.54e-06 -0.561399
2503 1 41.2413 13.3147 -9.7906 0 2.74351 2 0 4.53999e-06 -0.90515
1921 1 42.0599 12.8989 -9.40193 0 2.79438 2 0 4.53999e-06 0.107248
1562 1 42.1815 12.2621 -8.67764 0 2.6866 2 0 4.54e-06 0.303189
1561 1 42.7508 13.0115 -10.1301 0 3.25382 2 0 4.53999e-06 0.556647
3628 1 43.2275 13.4183 -9.32115 0 3.28292 2 0 4.53999e-06 0.757134
1201 1 42.6546 13.1921 -8.6157 0 2.82878 1 0 4.53999e-06 0.669622
2101 1 41.3167 14.1927 -10.0622 0 2.80748 2 0 4.53999e-06 -0.914687
1870 1 40.7992 15.1405 -9.29836 0 2.65615 2 0 4.54e-06 -0.970862
1865 1 41.2521 15.1658 -10.1388 0 2.79848 2 0 4.53999e-06 -0.822083
1469 1 41.5388 14.5055 -9.20829 0 2.74409 1 0 4.53999e-06 -0.916618
900 1 42.2177 13.8206 -9.49605 0 2.90225 1 0 4.53999e-06 0.334495
1143 1 42.3238 14.6415 -10.2018 0 3.15142 2 0 4.53999e-06 0.642136
2105 1 41.3765 13.5528 -8.83201 0 2.64804 1 0 4.54e-06 -0.941972
1196 1 42.9891 14.0032 -10.0959 0 3.33692 2 0 4.53999e-06 0.729097
4544 1 43.7525 14.4102 -9.64818 0 3.56907 2 0 4.53999e-06 0.90614
8451 1 42.5758 14.6846 -9.1848 0 2.98138 1 0 4.53999e-06 0.891963
4109 1 43.7737 15.3072 -9.18301 0 3.59943 2 0 4.53999e-06 0.900638
4522 1 44.0242 13.8073 -8.83369 0 3.51212 2 0 4.53999e-06 0.972151
2547 1 40.8327 11.3787 -8.02515 0 2.52504 2 0 4.54e-06 -0.485357
1199 1 40.7256 11.8541 -6.98234 0 2.47516 2 0 4.54001e-06 -0.911569
952 1 42.1899 11.7993 -7.62926 0 2.66563 2 0 4.54e-06 0.414792
2151 1 41.1924 12.3063 -8.32275 0 2.56084 2 0 4.54e-06 -0.771036
1922 1 41.382 12.5582 -7.24555 0 2.51236 1 0 4.54001e-06 -0.858502
2551 1 41.0722 13.222 -7.89134 0 2.51382 2 0 4.54001e-06 -0.97098
2153 1 41.904 12.9152 -8.17978 0 2.63428 1 0 4.54e-06 -0.242028
1928 1 41.8441 13.4243 -7.39927 0 2.54928 1 0 4.54e-06 -0.610116
3522 1 42.2705 12.7448 -7.09128 0 2.59401 1 0 4.54e-06 0.430454
3630 1 43.0336 12.5096 -7.88498 0 3.02458 2 0 4.53999e-06 0.695699
903 1 42.7601 13.4838 -7.62457 0 2.7264 1 0 4.53999e-06 0.924367
4113 1 43.6477 13.4199 -7.94718 0 3.19307 2 0 4.53999e-06 0.935429
6588 1 40.0634 15.2191 -8.50976 0 2.48058 2 0 4.54001e-06 -0.972002
6973 1 40.1583 15.1425 -7.21369 0 2.37353 2 0 4.54004e-06 -0.947099
2457 1 41.3225 14.0566 -7.72431 0 2.50795 1 0 4.54001e-06 -0.914725
2104 1 40.8535 14.7214 -7.48341 0 2.44198 1 0 4.54002e-06 -0.960154
2460 1 40.9432 14.4773 -8.48927 0 2.55917 2 0 4.54e-06 -0.897834
1149 1 42.0683 13.9841 -8.21233 0 2.67021 1 0 4.54e-06 0.051485
3632 1 41.7628 14.9297 -8.01883 0 2.61664 1 0 4.54e-06 -0.00882352
3629 1 41.6492 14.642 -6.97159 0 2.48118 1 0 4.54001e-06 -0.408411
9333 1 42.5207 14.5045 -7.53728 0 2.68693 1 0 4.54e-06 0.796815
4545 1 42.956 14.0793 -8.50364 0 2.93577 1 0 4.53999e-06 0.969269
9330 1 42.5387 15.3084 -8.45126 0 2.88045 1 0 4.53999e-06 0.495507
4130 1 43.3803 14.8828 -8.32149 0 3.23808 2 0 4.53999e-06 0.933649
4114 1 43.6296 14.3397 -7.43441 0 3.09941 2 0 4.53999e-06 0.990088
9222 1 43.0851 15.3083 -7.42779 0 3.02549 2 0 4.53999e-06 0.773174
1195 1 40.1582 11.0435 -6.60076 0 2.43426 2 0 4.54002e-06 -0.595793
1253 1 39.4723 11.0875 -5.42875 0 2.28388 2 0 4.54011e-06 -0.587826
1008 1 41.4412 11.0475 -6.87019 0 2.57039 2 0 4.54e-06 0.323554
4325 1 41.0547 11.3571 -5.70122 0 2.43054 2 0 4.54002e-06 0.168694
1976 1 40.1541 11.824 -5.91028 0 2.33184 2 0 4.54007e-06 -0.789712
2598 1 39.5791 12.4691 -5.30051 0 2.17662 2 0 4.54035e-06 -0.813721
2553 1 40.6256 12.9161 -5.67592 0 2.28594 1 0 4.54011e-06 -0.837834
3519 1 41.6682 11.9593 -6.50859 0 2.50596 2 0 4.54001e-06 0.29564
955 1 41.2013 12.2416 -5.48836 0 2.39588 1 0 4.54003e-06 -0.244636
4417 1 42.2658 12.3026 -5.78831 0 2.69581 2 0 4.53999e-06 0.580082
4518 1 41.7157 13.3125 -5.43743 0 2.39944 1 0 4.54003e-06 0.0204615
954 1 41.5893 12.7914 -6.15427 0 2.4462 1 0 4.54002e-06 -0.486941
1148 1 41.7746 13.4627 -6.4199 0 2.45274 1 0 4.54002e-06 -0.604574
4519 1 42.4806 13.113 -5.39932 0 2.51696 1 0 4.54e-06 0.763018
4520 1 42.5973 13.1773 -6.34611 0 2.57028 1 0 4.54e-06 0.793413
4587 1 43.2099 12.6976 -6.78707 0 2.91624 2 0 4.53999e-06 0.794133
3870 1 43.4968 13.313 -5.80119 0 2.87154 2 0 4.53999e-06 0.942217
7373 1 37.3475 15.3508 -5.27189 0 2.34234 2 0 4.54006e-06 -0.872478
7202 1 38.8279 14.9693 -6.02224 0 2.31249 2 0 4.54008e-06 -0.468814
7205 1 40.4598 14.5045 -6.52226 0 2.32059 1 0 4.54008e-06 -0.886203
7203 1 39.7791 14.8239 -5.97803 0 2.27458 2 0 4.54013e-06 -0.683609
7204 1 40.6437 14.0723 -5.342 0 2.23284 1 0 4.54019e-06 -0.94838
6608 1 40.6441 14.9009 -5.34895 0 2.25061 1 0 4.54016e-06 -0.433639
1869 1 41.1583 13.6533 -5.82172 0 2.32872 1 0 4.54007e-06 -0.932526
1866 1 41.1814 13.9402 -6.77787 0 2.40537 1 0 4.54003e-06 -0.913907
1466 1 41.2487 14.4461 -6.02002 0 2.35383 1 0 4.54005e-06 -0.871162
8448 1 41.9385 14.0852 -5.63139 0 2.4257 1 0 4.54002e-06 0.357895
9220 1 41.9315 14.8637 -5.95886 0 2.45299 1 0 4.54002e-06 0.212452
3631 1 42.1214 14.0299 -6.79232 0 2.5211 1 0 4.54e-06 0.748452
9329 1 42.2591 15.2253 -6.83781 0 2.58883 1 0 4.54e-06 0.310356
7556 1 41.1956 15.2747 -6.34153 0 2.38312 1 0 4.54004e-06 -0.211084
4548 1 42.714 13.8677 -5.74693 0 2.5534 1 0 4.54e-06 0.913612
9334 1 42.5988 14.5395 -6.31566 0 2.57995 1 0 4.54e-06 0.834264
9218 1 42.7687 15.1942 -5.5284 0 2.78544 2 0 4.53999e-06 0.595632
4125 1 42.9584 13.8943 -6.80893 0 2.65711 1 0 4.54e-06 0.995939
8739 1 43.3521 14.3815 -5.3989 0 2.85784 2 0 4.53999e-06 0.879344
8992 1 43.4388 14.8558 -6.46866 0 2.95533 2 0 4.53999e-06 0.936764
1685 1 38.8352 11.4118 -4.31624 0 2.12355 2 0 4.54059e-06 -0.314613
1259 1 38.1498 11.0771 -3.53956 0 2.05342 2 0 4.5412e-06 -0.220013
3425 1 39.8571 11.3153 -4.51543 0 2.24365 2 0 4.54017e-06 -0.0308305
4630 1 40.8285 11.3959 -4.31231 0 2.36359 2 0 4.54005e-06 0.308626
2452 1 37.9256 11.8665 -4.06721 0 2.03168 2 0 4.54149e-06 -0.54866
1569 1 38.6106 12.1559 -3.62157 0 2.04274 2 0 4.54134e-06 -0.418706
1010 1 40.3587 12.1077 -4.84904 0 2.27472 1 0 4.54013e-06 -0.616352
1255 1 39.4971 11.9025 -3.82104 0 2.14952 2 0 4.54046e-06 0.0962846
2599 1 39.3629 12.9092 -4.31355 0 2.0742 2 0 4.54098e-06 -0.811069
3521 1 39.8599 12.6181 -3.62677 0 2.15282 1 0 4.54044e-06 -0.36503
1926 1 40.5231 12.8845 -4.05797 0 2.19573 1 0 4.54028e-06 -0.360546
4588 1 41.6856 11.7466 -4.81662 0 2.58113 2 0 4.54e-06 0.49192
2552 1 40.7417 13.362 -4.77478 0 2.21712 1 0 4.54023e-06 -0.91308
4420 1 41.213 12.256 -3.95744 0 2.52772 2 0 4.54e-06 0.539007
901 1 41.4079 13.229 -3.86501 0 2.26653 1 0 4.54014e-06 0.5523
3520 1 41.5424 12.7242 -4.71729 0 2.38394 1 0 4.54004e-06 0.335402
4227 1 42.4914 12.4058 -4.71225 0 2.73425 2 0 4.53999e-06 0.680193
4546 1 42.3679 13.2577 -4.21622 0 2.62419 2 0 4.54e-06 0.674946
3213 1 43.2058 13.5243 -4.72053 0 2.8076 2 0 4.53999e-06 0.832724
7376 1 38.5442 14.5209 -4.12189 0 2.13099 2 0 4.54055e-06 -0.5071
6905 1 37.6315 14.7543 -4.1397 0 2.20361 2 0 4.54026e-06 -0.75116
7152 1 38.1808 14.803 -5.12764 0 2.27695 2 0 4.54012e-06 -0.520958
2656 1 39.7604 13.5989 -5.08623 0 2.1174 2 0 4.54063e-06 -0.860433
6590 1 39.3098 14.2146 -3.61193 0 2.03695 1 0 4.54142e-06 -0.6548
6972 1 40.2109 14.036 -3.67184 0 2.08512 1 0 4.54087e-06 -0.517226
6304 1 40.4943 14.358 -4.50599 0 2.16074 1 0 4.54041e-06 -0.794896
6301 1 40.0822 14.8135 -3.7354 0 2.1045 1 0 4.54072e-06 -0.231672
6970 1 39.6532 14.5328 -4.73907 0 2.15688 1 0 4.54042e-06 -0.733856
6908 1 39.087 15.0746 -5.15927 0 2.23742 2 0 4.54018e-06 -0.714706
4516 1 41.0769 14.1294 -3.88814 0 2.19529 1 0 4.54029e-06 0.995307
902 1 41.6548 13.7873 -4.66142 0 2.33263 1 0 4.54007e-06 0.594343
7555 1 41.4272 14.6235 -4.84691 0 2.2918 1 0 4.5401e-06 0.462844
8944 1 42.1333 14.9601 -3.86434 0 2.61107 2 0 4.54e-06 0.831166
9221 1 42.6021 14.3767 -4.56244 0 2.68546 2 0 4.54e-06 0.721878
1681 1 36.5516 11.2464 -2.84889 0 2.01318 2 0 4.5418e-06 -0.763959
1688 1 37.3735 11.6373 -3.32929 0 1.99389 2 0 4.54218e-06 -0.722119
1011 1 38.3132 11.6081 -2.87443 0 2.02281 2 0 4.54163e-06 0.0710344
1313 1 37.3252 11.375 -2.4238 0 1.94907 2 0 4.54342e-06 -0.310566
4328 1 38.0705 11.4222 -2.00774 0 1.97784 2 0 4.54257e-06 0.35117
4326 1 39.1103 11.2609 -3.29398 0 2.12156 2 0 4.5406e-06 0.277436
2202 1 37.3085 12.3108 -2.64461 0 1.92773 2 0 4.54424e-06 -0.64003
4330 1 38.8216 11.8427 -2.13995 0 2.13462 2 0 4.54053e-06 0.488911
2201 1 38.0843 12.7269 -2.99313 0 1.93611 2 0 4.5439e-06 -0.440469
4419 1 38.8847 12.6141 -1.90287 0 1.98459 1 0 4.5424e-06 0.545621
2154 1 37.9282 13.0984 -2.13872 0 1.87058 1 0 4.54752e-06 -0.582678
1567 1 38.8463 13.4288 -2.13199 0 1.93329 1 0 4.54401e-06 -0.476316
4229 1 40.4892 11.7778 -3.39632 0 2.48893 2 0 4.54001e-06 0.561991
1566 1 39.0121 12.5703 -3.01119 0 2.03882 1 0 4.54139e-06 -0.453365
1923 1 40.258 13.4799 -3.14076 0 2.09089 1 0 4.54082e-06 0.243912
4331 1 39.6355 11.7729 -2.68037 0 2.21776 2 0 4.54023e-06 0.477538
4591 1 40.274 12.4865 -2.72582 0 2.33557 2 0 4.54006e-06 0.704345
1198 1 39.5729 13.0224 -2.61452 0 2.04944 1 0 4.54125e-06 0.0173124
4515 1 40.4467 13.2754 -2.21402 0 2.25095 2 0 4.54016e-06 0.7126
7374 1 38.6645 14.4237 -2.98433 0 1.98419 1 0 4.54241e-06 -0.590236
7377 1 37.5676 14.8123 -2.16344 0 1.90991 1 0 4.54507e-06 -0.667782
2548 1 37.8977 13.9188 -2.33733 0 1.85282 1 0 4.54899e-06 -0.681011
6031 1 38.3478 14.6933 -2.13514 0 1.91936 1 0 4.54461e-06 -0.60374
6513 1 37.4576 15.2622 -2.96705 0 2.03173 2 0 4.54149e-06 -0.853186
6907 1 38.5146 15.2631 -2.92702 0 2.02943 1 0 4.54153e-06 -0.328796
7554 1 39.1886 14.9856 -2.30915 0 1.99031 1 0 4.54227e-06 0.235478
6303 1 39.0244 14.1984 -2.20653 0 1.94794 1 0 4.54347e-06 -0.429294
1563 1 39.7091 13.8191 -2.57195 0 2.02085 1 0 4.54167e-06 -0.152616
9224 1 39.8661 14.3333 -1.90262 0 2.02769 1 0 4.54156e-06 0.701027
8447 1 39.8567 14.5531 -2.83499 0 2.03988 1 0 4.54138e-06 0.245006
9169 1 40.6109 14.8998 -2.25168 0 2.2286 2 0 4.5402e-06 0.563929
6605 1 39.3798 15.1741 -3.21064 0 2.05783 1 0 4.54115e-06 -0.142627
8546 1 40.9231 14.979 -3.46135 0 2.18563 1 0 4.54032e-06 0.575796
3873 1 42.1035 13.9474 -3.51208 0 2.53646 2 0 4.54e-06 0.822523
4547 1 41.121 13.6289 -3.04784 0 2.1583 1 0 4.54042e-06 0.723791
9331 1 40.7234 14.3457 -2.88304 0 2.12881 1 0 4.54056e-06 0.829442
3872 1 40.8605 14.0416 -1.91636 0 2.30055 2 0 4.5401e-06 0.773299
8989 1 41.67 14.4379 -2.72059 0 2.46212 2 0 4.54001e-06 0.788601
9168 1 41.7329 15.3519 -3.01933 0 2.57401 2 0 4.54e-06 0.684491
2597 1 35.4541 11.4969 -0.518374 0 1.78511 2 0 4.5577e-06 -0.712776
1683 1 35.7968 11.0482 -1.29551 0 1.85217 2 0 4.54904e-06 -0.497958
1684 1 36.5475 11.7019 -1.70203 0 1.86747 2 0 4.54776e-06 -0.711698
1056 1 36.6974 11.2759 -0.936913 0 1.85271 2 0 4.54899e-06 0.128576
4631 1 37.4355 11.6964 -0.980511 0 1.93554 2 0 4.54392e-06 0.472419
2205 1 36.1274 11.9603 -0.948091 0 1.80365 2 0 4.5547e-06 -0.788222
2208 1 36.8794 12.5116 -1.57075 0 1.84531 1 0 4.54969e-06 -0.627138
1929 1 36.3788 12.7048 -0.83254 0 1.77377 1 0 4.55983e-06 -0.681252
4633 1 36.712 11.8584 -0.282909 0 1.81624 1 0 4.55296e-06 0.529232
4590 1 37.1133 12.4307 -0.730944 0 1.83373 1 0 4.55088e-06 0.732788
1197 1 36.2264 13.3248 -0.300802 0 1.71375 1 0 4.57622e-06 -0.736674
3422 1 37.3071 11.859 -1.73517 0 1.89879 1 0 4.54567e-06 -0.215977
1257 1 37.823 12.3213 -1.75708 0 1.9084 1 0 4.54515e-06 0.798989
4416 1 37.5986 12.8305 -1.27108 0 1.85078 1 0 4.54917e-06 -0.0137205
956 1 37.5694 13.3147 -0.635609 0 1.80871 1 0 4.55398e-06 0.820705
3966 1 38.1265 12.1343 -0.941465 0 2.06922 2 0 4.54103e-06 0.666862
4232 1 38.4526 12.8885 -0.934547 0 1.88992 1 0 4.5462e-06 0.594153
4551 1 39.0515 13.3614 -1.19183 0 1.93442 1 0 4.54397e-06 0.376377
4228 1 39.7138 12.5147 -1.5168 0 2.27671 2 0 4.54012e-06 0.501874
4549 1 39.954 13.4955 -1.42013 0 2.21348 2 0 4.54024e-06 0.615416
7151 1 36.8997 15.0836 -1.67574 0 1.89267 1 0 4.54603e-06 -0.604894
7475 1 36.4837 14.5311 -1.13314 0 1.79941 1 0 4.55534e-06 -0.603735
6591 1 35.7036 14.5253 -0.297101 0 1.72991 1 0 4.57079e-06 -0.787118
2655 1 36.8333 13.8133 -0.750981 0 1.7487 1 0 4.56551e-06 -0.524506
7553 1 36.8939 15.0591 -0.476337 0 1.83567 1 0 4.55067e-06 0.285761
6968 1 36.0645 15.0888 -0.636829 0 1.81569 1 0 4.55303e-06 -0.749101
7472 1 37.3197 14.3277 -1.37485 0 1.82371 1 0 4.55203e-06 -0.553546
1467 1 38.1106 14.12 -1.31063 0 1.85182 1 0 4.54908e-06 -0.282786
7558 1 38.3745 14.7301 -1.27542 0 1.89994 1 0 4.54561e-06 0.597004
904 1 38.0642 13.9537 -0.485785 0 1.84042 1 0 4.55018e-06 0.702362
9172 1 37.5751 14.6139 -0.253332 0 1.83377 1 0 4.55088e-06 0.802661
6243 1 37.9075 15.3633 -1.54847 0 1.94443 1 0 4.54359e-06 0.240434
7657 1 37.6613 15.0628 -0.896938 0 1.88626 1 0 4.54643e-06 0.66618
9223 1 39.0647 14.1565 -1.35942 0 1.94166 1 0 4.54369e-06 0.465912
8945 1 39.1892 15.1044 -1.41972 0 1.98103 1 0 4.54249e-06 0.45455
3641 1 39.0444 13.9939 -0.418833 0 2.0941 2 0 4.5408e-06 0.543736
3876 1 40.313 13.9131 -0.653366 0 2.34294 2 0 4.54006e-06 0.648914
8600 1 39.792 14.5912 -0.964983 0 2.20439 2 0 4.54026e-06 0.540958
5 1 0.729896 0.0633724 0.61602 4 4.45165e-06 3 0 0.0994487 -0.190374
9 1 2.52093 0.749102 0.203812 4 1.60594e-05 2 0 0.0994487 -0.142938
10 1 2.59149 0.0538711 1.03726 4 1.55429e-05 2 0 0.0994487 -0.295003
20 1 3.47612 0.111428 0.171027 4 2.25146e-05 2 0 0.0994487 0.166217
17 1 4.96159 0.56786 1.17466 4 8.54109e-05 2 0 0.0994487 -0.0370603
21 1 5.64741 0.645627 0.325839 4 0.000131476 2 0 0.0994487 -0.0806
26 1 6.7138 0.39031 0.865278 4 0.00023307 2 0 0.0994487 -0.0793747
32 1 7.58247 0.647807 0.140287 4 0.000381267 2 0 0.0994487 -0.110929
28 1 8.2679 0.408875 1.07337 4 0.000510186 2 0 0.0994487 -0.100155
33 1 8.85849 0.508506 0.273966 4 0.000683854 2 0 0.0994487 -0.0616374
34 1 9.55301 0.3386 0.888639 4 0.000923796 2 0 0.0994487 0.00507781
43 1 10.2431 0.367861 0.0780499 4 0.00114038 2 0 0.0994487 0.149809
38 1 11.2128 0.215893 0.632658 4 0.00197298 2 0 0.0994487 0.203522
40 1 10.523 0.196295 1.44539 4 0.00140789 2 0 0.0994487 0.0644402
44 1 12.8757 0.211714 0.636805 4 0.00467386 2 0 0.0994487 0.0588079
46 1 12.1319 0.316439 1.29957 4 0.00340529 2 0 0.0994487 0.0188604
59 1 15.1049 0.711806 0.0677822 4 0.0128428 2 0 0.0994487 0.169216
48 1 14.3729 0.318493 0.764646 4 0.00964471 2 0 0.0994487 -0.0460183
54 1 15.7061 0.770636 0.788259 4 0.0195256 2 0 0.0994487 0.366524
57 1 16.547 0.712289 1.3421 4 0.03166 2 0 0.0994487 0.095665
60 1 17.2544 0.732268 0.547589 4 0.0443388 2 0 0.0994487 0.0286595
62 1 17.916 0.742935 1.42801 4 0.0668788 2 0 0.0994487 -0.228143
65 1 18.7918 0.725074 0.684829 4 0.0888385 2 0 0.0994487 -0.269943
64 1 19.5372 0.0167772 0.662766 4 0.0878401 2 0 0.0994487 0.043668
71 1 20.2493 0.776373 0.980057 4 0.148708 2 0 0.0994487 -0.0484125
73 1 21.1874 0.765598 0.218806 4 0.161713 2 0 0.0994487 -0.0446012
75 1 22.0087 0.262534 0.539755 4 0.182595 2 0 0.0994487 0.0992454
70 1 21.0889 0.349843 1.06749 4 0.174436 2 0 0.0994487 -0.204202
81 1 23.5672 0.357563 0.57369 4 0.242082 2 0 0.0994487 0.0379207
76 1 22.7913 0.430275 1.40734 0 0.257487 2 0 0.0994062 0.230679
84 1 24.955 0.315686 0.551996 0 0.280982 2 0 0.0992497 -0.0167622
80 1 24.228 0.380179 1.45209 0 0.346621 2 0 0.0985597 0.0168452
93 1 26.7925 0.240345 0.226621 0 0.273745 2 0 0.0993019 0.0380918
85 1 26.0085 0.383365 1.1715 0 0.352487 2 0 0.0984735 -0.181612
90 1 27.6142 0.50928 0.874321 0 0.320607 2 0 0.0988874 0.176225
92 1 28.3748 0.337482 1.39813 0 0.289855 2 0 0.0991805 0.020653
98 1 29.2734 0.3547 0.615275 4 0.199103 2 0 0.0994487 -0.0816865
97 1 29.8133 0.173958 1.46124 4 0.176067 2 0 0.0994487 0.136189
100 1 30.7016 0.49015 0.470738 4 0.141544 2 0 0.0994487 0.35485
99 1 31.5874 0.266128 1.25663 4 0.0886729 3 0 0.0994487 0.830096
1 1 0.116341 1.10259 0.464337 4 4.9428e-06 2 0 0.0994487 -0.68194
103 1 1.11081 2.43607 0.129285 4 1.06333e-05 2 0 0.0994487 -0.0373214
2 1 0.974108 1.6685 0.77798 4 8.88058e-06 2 0 0.0994487 -0.517029
104 1 0.133403 2.3821 0.812241 4 7.67345e-06 2 0 0.0994487 -0.984517
3 1 0.714648 0.793562 1.41295 4 6.01162e-06 2 0 0.0994487 -0.281793
4 1 0.00336375 1.60273 1.37437 4 5.61883e-06 2 0 0.0994487 -0.804051
6 1 1.71015 0.808983 1.0155 4 1.11254e-05 2 0 0.0994487 -0.332066
7 1 1.80059 1.47468 0.221075 4 1.25526e-05 2 0 0.0994487 -0.125828
113 1 2.7261 2.38168 0.0557193 4 2.58907e-05 2 0 0.0994487 0.146602
11 1 2.64922 1.541 0.882848 4 2.22842e-05 2 0 0.0994487 0.235768
109 1 1.90972 2.41867 0.78376 4 1.8151e-05 2 0 0.0994487 0.0782139
114 1 3.38195 2.55413 0.779289 4 4.99858e-05 2 0 0.0994487 0.21159
16 1 4.10576 0.858321 0.325305 4 4.7402e-05 2 0 0.0994487 0.15315
13 1 3.43386 0.933692 0.956349 4 3.16391e-05 2 0 0.0994487 0.320252
18 1 4.91949 1.59987 0.383508 4 0.000105123 2 0 0.0994487 -0.100242
115 1 4.00679 1.841 0.711184 4 6.15433e-05 2 0 0.0994487 -0.0361154
116 1 4.91383 2.57277 0.815661 4 0.000142571 2 0 0.0994487 -0.259336
25 1 5.03122 1.72414 1.43602 4 0.000113326 2 0 0.0994487 0.0453797
23 1 6.57478 1.39104 0.218369 4 0.00026456 2 0 0.0994487 -0.0861261
119 1 5.65047 2.44269 0.132743 4 0.000209145 2 0 0.0994487 -0.189921
22 1 5.88414 1.31048 0.938036 4 0.000175862 2 0 0.0994487 -0.199538
120 1 6.55776 2.18062 0.772597 4 0.000329593 2 0 0.0994487 -0.289321
122 1 5.861 2.19426 1.49672 4 0.000216259 2 0 0.0994487 0.012643
30 1 8.24709 1.39092 0.236779 4 0.000632362 2 0 0.0994487 -0.0460532
125 1 7.45405 2.22586 0.139832 4 0.000537046 2 0 0.0994487 -0.0534934
29 1 7.36782 1.22285 0.954198 4 0.000391664 2 0 0.0994487 -0.302501
126 1 8.08209 2.20208 0.930382 4 0.000769607 2 0 0.0994487 -0.301996
37 1 9.63995 1.37474 0.0900752 4 0.00115096 2 0 0.0994487 0.099301
131 1 8.90393 2.08699 0.252387 4 0.00108131 2 0 0.0994487 0.00244645
35 1 9.02586 1.30716 1.1133 4 0.000913493 2 0 0.0994487 -0.0606038
132 1 9.77243 2.0246 1.10996 4 0.00165523 2 0 0.0994487 0.173522
39 1 10.3637 1.04743 0.823114 4 0.00157261 2 0 0.0994487 0.539923
136 1 10.2834 2.1137 0.214297 4 0.00195539 2 0 0.0994487 0.33775
137 1 11.1583 1.82604 0.771092 4 0.00309614 2 0 0.0994487 0.26013
41 1 11.2856 1.01846 1.41785 4 0.00257858 2 0 0.0994487 0.164737
45 1 12.0457 1.07408 0.506655 4 0.00394298 2 0 0.0994487 -0.0235253
140 1 12.6737 1.94118 0.593851 4 0.00734729 2 0 0.0994487 -0.283892
152 1 13.4137 2.29398 0.0590902 4 0.0114511 2 0 0.0994487 -0.280944
47 1 12.7194 1.19864 1.3723 4 0.00570076 2 0 0.0994487 -0.0304875
142 1 11.9239 1.9206 1.46509 4 0.00479242 2 0 0.0994487 0.0946875
145 1 13.3784 1.9912 1.48064 4 0.00987119 2 0 0.0994487 -0.0150419
49 1 13.5924 1.113 0.843618 4 0.00856474 2 0 0.0994487 -0.262988
50 1 14.0399 1.55958 0.167469 4 0.0116494 2 0 0.0994487 -0.0898047
150 1 14.8418 2.51505 0.136557 4 0.0224066 2 0 0.0994487 0.17303
53 1 14.8761 1.55337 0.662943 4 0.0163806 2 0 0.0994487 0.390009
146 1 14.0206 2.44438 0.927124 4 0.0157708 2 0 0.0994487 -0.132944
52 1 14.3777 1.14948 1.47647 4 0.0115683 2 0 0.0994487 -0.0177974
149 1 14.7823 2.29758 1.44821 4 0.0209401 2 0 0.0994487 0.0469585
55 1 16.5532 1.54451 0.681338 4 0.0406057 2 0 0.0994487 0.000863048
153 1 15.6993 2.44373 0.692668 4 0.034735 2 0 0.0994487 0.364469
58 1 15.6341 1.48544 1.3916 4 0.0238743 2 0 0.0994487 0.153677
61 1 17.9231 1.58109 0.757246 4 0.0807807 2 0 0.0994487 0.0415737
158 1 17.0646 2.35032 0.682778 4 0.0692555 2 0 0.0994487 0.0234382
165 1 19.587 2.34239 0.101452 4 0.161578 2 0 0.0994487 -0.132356
66 1 19.5395 1.55488 0.841653 4 0.148978 2 0 0.0994487 -0.334862
162 1 18.8908 2.35742 1.01358 4 0.156706 2 0 0.0994487 -0.515656
168 1 20.1948 2.46882 1.11433 4 0.222664 2 0 0.0994487 0.41874
69 1 18.6564 1.51302 1.50035 4 0.124635 2 0 0.0994487 -0.324503
74 1 20.3457 1.51479 0.193617 4 0.159622 2 0 0.0994487 -0.0805624
78 1 21.9982 1.59955 0.538558 4 0.233324 2 0 0.0994487 0.182574
167 1 21.1565 2.41663 0.458355 4 0.238304 2 0 0.0994487 0.191973
72 1 21.1062 1.65725 0.951506 4 0.216748 2 0 0.0994487 0.584103
79 1 22.9157 1.07463 0.445168 4 0.242328 2 0 0.0994487 0.0522622
173 1 22.0961 2.49917 1.23787 0 0.336759 2 0 0.0986937 0.391102
172 1 22.9717 2.60199 0.735523 0 0.361952 2 0 0.0983232 0.13073
77 1 22.1105 1.14763 1.32981 0 0.257966 2 0 0.0994034 0.33839
83 1 23.4757 1.2499 1.4028 0 0.328053 2 0 0.0988019 0.0658404
171 1 22.8719 2.07007 1.50872 0 0.381291 2 0 0.0979699 -0.0134039
82 1 24.4367 1.18687 0.754729 0 0.326586 2 0 0.0988192 -0.0196602
176 1 23.7438 1.80844 0.624025 0 0.335538 2 0 0.0987095 -0.0860449
183 1 25.1322 1.85613 0.509414 0 0.386077 2 0 0.0978717 -0.0227519
86 1 25.169 1.12579 1.48087 0 0.406018 2 0 0.0974095 0.0447506
88 1 25.8917 0.929212 0.432102 0 0.322383 2 0 0.0988675 -0.0952575
91 1 26.7559 1.02809 1.26347 0 0.39514 2 0 0.0976729 -0.27721
182 1 26.5483 1.79415 0.511367 0 0.38573 2 0 0.097879 -0.00370695
184 1 25.7918 2.61203 0.707489 0 0.470262 2 0 0.0951435 0.213538
87 1 25.9301 1.73476 1.35794 0 0.448515 2 0 0.0960703 0.0596889
89 1 27.5736 1.28032 0.38906 0 0.331511 2 0 0.0987601 0.0455137
190 1 28.2489 2.09022 0.343734 0 0.371895 2 0 0.0981501 -0.0176596
94 1 28.6489 1.24263 0.742341 0 0.304704 2 0 0.09905 0.102349
189 1 27.5039 1.98546 1.23792 0 0.438442 2 0 0.0964388 -0.20179
96 1 28.5228 1.71921 1.49749 0 0.413823 2 0 0.0972029 -0.0239424
204 1 30.4116 1.90909 0.0255368 4 0.248587 2 0 0.0994487 0.106051
101 1 30.1009 1.19877 0.774133 4 0.224304 2 0 0.0994487 0.210846
196 1 29.4477 2.04702 0.879698 0 0.348036 2 0 0.0985393 -0.00460466
199 1 30.9114 1.98502 0.924207 0 0.280558 2 0 0.0992529 0.967258
102 1 30.8649 0.971942 1.39386 4 0.174979 2 0 0.0994487 0.70542
108 1 0.332248 3.09582 0.131296 4 9.55601e-06 2 0 0.0994487 -0.59134
210 1 1.04069 3.86421 0.0595682 4 1.65379e-05 2 0 0.0994487 0.0148881
105 1 1.28845 3.23764 0.949187 4 1.67326e-05 2 0 0.0994487 0.222099
206 1 0.293831 3.78503 0.918557 4 1.263e-05 2 0 0.0994487 -0.999347
213 1 2.64953 4.14475 0.20674 4 5.64663e-05 2 0 0.0994487 -0.0285709
110 1 2.65852 3.28029 0.860875 4 4.12202e-05 2 0 0.0994487 0.0668088
211 1 1.84117 4.04604 0.847105 4 3.20438e-05 2 0 0.0994487 0.00827262
219 1 4.26027 4.18509 0.149001 4 0.000160888 2 0 0.0994487 0.0377406
117 1 4.20148 3.3175 0.749446 4 0.00011674 2 0 0.0994487 0.00622188
216 1 3.494 4.07675 0.885909 4 9.58177e-05 2 0 0.0994487 0.0269023
217 1 4.91235 4.00001 1.18344 4 0.000232322 2 0 0.0994487 0.0115307
124 1 6.65033 2.92778 0.134227 4 0.000405894 2 0 0.0994487 0.0288935
221 1 5.77735 3.9378 0.198707 4 0.00035506 2 0 0.0994487 0.0260202
121 1 5.64874 3.19593 0.952489 4 0.000274817 2 0 0.0994487 -0.754599
222 1 6.48883 3.76611 0.772067 4 0.000533903 2 0 0.0994487 0.204569
130 1 8.26934 2.9712 0.0392146 4 0.00109649 2 0 0.0994487 -0.150609
127 1 7.40132 3.06835 0.934051 4 0.000719298 2 0 0.0994487 -0.0454239
226 1 8.1982 3.892 0.700757 4 0.00157855 2 0 0.0994487 -0.369878
228 1 7.39886 3.87029 1.49684 4 0.000953717 2 0 0.0994487 0.102589
135 1 9.56096 2.90576 0.21312 4 0.0019872 2 0 0.0994487 0.173132
133 1 8.92671 2.97262 0.928693 4 0.00158652 2 0 0.0994487 -0.156665
235 1 8.98541 3.86821 0.0631775 4 0.00225609 2 0 0.0994487 -0.138746
230 1 9.8976 3.57792 0.885667 4 0.00330308 2 0 0.0994487 0.592907
233 1 9.07829 3.76256 1.49819 4 0.00236741 2 0 0.0994487 -0.0708728
138 1 10.6214 2.80819 0.921535 4 0.00344735 2 0 0.0994487 0.54197
242 1 10.5826 3.84888 0.176129 4 0.0048791 2 0 0.0994487 0.210479
236 1 11.408 3.64493 0.778297 4 0.0072153 2 0 0.0994487 0.202104
141 1 11.928 2.64099 0.742299 4 0.00635886 2 0 0.0994487 -0.0386319
144 1 13.1791 3.03035 0.848852 4 0.0133626 2 0 0.0994487 -0.440771
243 1 12.5168 3.57716 0.814749 4 0.0120231 2 0 0.0994487 -0.010522
151 1 14.1591 3.2262 0.0325348 4 0.0218856 2 0 0.0994487 -0.246086
254 1 14.961 4.19423 0.096508 4 0.0421505 2 0 0.0994487 0.032302
148 1 14.6961 3.43698 0.884932 4 0.0307096 2 0 0.0994487 -0.332668
248 1 13.9891 4.12825 0.69648 4 0.0289001 2 0 0.0994487 -0.430091
157 1 15.5706 3.25854 0.0192499 4 0.0378983 2 0 0.0994487 0.290259
154 1 16.3029 3.20095 0.662084 4 0.0602355 2 0 0.0994487 0.32863
255 1 15.6685 4.06642 0.926277 4 0.0592731 2 0 0.0994487 0.87248
156 1 15.3694 3.25723 1.50191 4 0.0407021 2 0 0.0994487 -0.00942395
159 1 17.944 2.92608 0.699539 4 0.125675 2 0 0.0994487 -0.230415
264 1 18.1348 3.8547 0.0583493 4 0.150143 2 0 0.0994487 -0.120498
260 1 17.2689 3.83372 0.811237 4 0.122128 2 0 0.0994487 -0.344173
161 1 17.0918 3.1162 1.49491 4 0.101541 2 0 0.0994487 -0.185603
164 1 18.884 2.99607 0.196019 4 0.159465 2 0 0.0994487 -0.171792
269 1 19.5987 3.76722 0.227421 4 0.212644 2 0 0.0994487 0.164098
163 1 19.7027 3.2427 1.27782 4 0.238924 2 0 0.0994487 0.417984
265 1 18.8779 3.70667 0.95022 4 0.201197 2 0 0.0994487 0.0353409
170 1 20.4222 2.99313 0.334941 4 0.223317 2 0 0.0994487 0.185068
174 1 21.9898 3.20043 0.598797 0 0.340589 2 0 0.0986431 -0.0677074
273 1 21.0824 3.93136 0.512408 0 0.320183 2 0 0.0988918 0.0839859
270 1 20.4384 3.82188 1.23329 0 0.306202 2 0 0.0990356 0.447562
169 1 21.31 3.29463 1.39314 0 0.358263 2 0 0.0983832 0.017996
276 1 21.9406 4.13318 1.31068 0 0.439673 2 0 0.096395 -0.0765284
175 1 22.6771 3.40124 0.07601 0 0.368397 2 0 0.0982127 0.0761198
278 1 22.6119 4.34705 0.510028 0 0.449066 2 0 0.0960485 -0.0216476
279 1 23.5735 3.63903 0.782677 0 0.473804 2 0 0.0949735 0.168915
275 1 22.8205 3.63186 1.42135 0 0.475211 2 0 0.0949044 0.0641274
181 1 24.9562 2.84566 0.0146836 0 0.433041 2 0 0.0966219 -0.0864525
178 1 24.342 2.68296 0.775192 0 0.44551 2 0 0.0961836 -0.310957
280 1 24.336 4.32055 0.625018 0 0.563844 2 0 0.0881656 -0.133999
285 1 25.0629 3.68037 0.802132 0 0.554262 2 0 0.0891747 -0.188815
191 1 27.0867 2.6924 0.645359 0 0.46749 2 0 0.0952726 -0.103583
290 1 25.5284 4.40089 0.388179 0 0.597837 2 0 0.0838581 0.0531331
188 1 26.1686 3.50068 0.599043 0 0.546863 2 0 0.0898988 0.16753
294 1 27.0674 4.04323 0.570038 0 0.589516 2 0 0.0850263 0.0122965
186 1 25.7213 3.49812 1.51211 0 0.642378 2 0 0.0761745 0.320212
288 1 26.3575 4.29031 1.37159 0 0.679736 2 0 0.0676657 0.521239
193 1 28.2537 2.75799 1.20639 0 0.513367 2 0 0.0926448 -0.596657
194 1 27.982 3.21993 0.326384 0 0.483388 2 0 0.0944855 -0.124388
292 1 27.9624 3.97641 1.10408 0 0.630837 2 0 0.0784132 -0.527982
192 1 27.1998 3.35397 1.41682 0 0.618652 2 0 0.0805822 -0.27103
197 1 29.1956 2.6589 0.290703 0 0.385739 2 0 0.0978789 -0.0577619
200 1 30.1815 2.71094 1.00186 0 0.399604 2 0 0.0975683 0.712302
203 1 30.1092 3.25953 0.132205 0 0.388216 2 0 0.0978265 -0.0443301
295 1 28.9321 3.77016 0.487204 0 0.52051 2 0 0.0921264 -0.00491458
198 1 29.2495 3.2651 1.17365 0 0.526468 2 0 0.0916681 0.277178
297 1 29.9979 4.07209 1.02303 0 0.573332 2 0 0.0870857 -0.314668
205 1 31.1434 2.66402 0.0761253 0 0.29061 2 0 0.0991743 0.708825
298 1 31.0296 3.97382 0.373364 0 0.461154 2 0 0.0955559 0.657349
201 1 31.0247 3.35309 0.97101 0 0.461852 2 0 0.0955257 0.99633
207 1 0.143046 4.59443 0.482118 4 1.46748e-05 2 0 0.0994487 -0.784494
208 1 1.14036 4.67093 0.986638 4 2.50531e-05 2 0 0.0994487 -0.516756
301 1 0.908283 5.53205 0.461647 4 2.93567e-05 2 0 0.0994487 -0.463785
209 1 0.0884667 5.26681 1.27761 4 1.75849e-05 2 0 0.0994487 -0.887459
303 1 0.793684 6.22023 1.2768 4 3.41672e-05 2 0 0.0994487 -0.70338
302 1 1.53161 5.51184 1.37971 4 4.08881e-05 2 0 0.0994487 -0.117386
214 1 1.89758 4.96895 0.278386 4 4.47269e-05 2 0 0.0994487 -0.153433
307 1 1.89588 6.19966 0.519025 4 6.40268e-05 2 0 0.0994487 -0.156399
311 1 2.68177 5.61289 0.273587 4 8.95959e-05 2 0 0.0994487 -0.0596846
212 1 2.54049 4.85585 1.13748 4 6.54532e-05 2 0 0.0994487 -0.333843
308 1 3.10475 5.61709 1.30057 4 0.000116724 2 0 0.0994487 0.0402544
309 1 2.26359 6.15348 1.40977 4 7.58797e-05 2 0 0.0994487 0.0408571
220 1 5.00947 4.74001 0.341082 4 0.000313691 2 0 0.0994487 0.0765441
215 1 3.40771 4.86189 0.161635 4 0.000115108 2 0 0.0994487 -0.0163864
313 1 4.18979 5.46246 0.325783 4 0.000238732 2 0 0.0994487 0.0310199
316 1 4.82567 6.23357 0.333842 4 0.000472787 2 0 0.0994487 -0.0345737
218 1 4.04658 4.88002 1.14639 4 0.000176339 2 0 0.0994487 0.264495
315 1 4.13622 6.09659 1.22779 4 0.000296477 2 0 0.0994487 -0.0893871
314 1 4.93434 5.42873 1.31778 4 0.000411 2 0 0.0994487 -0.235096
223 1 5.68025 4.73638 1.02487 4 0.000491334 2 0 0.0994487 -0.62161
319 1 5.78575 5.42185 0.301847 4 0.00064561 2 0 0.0994487 0.0125056
323 1 6.37773 6.04115 0.154639 4 0.00105282 2 0 0.0994487 0.111116
225 1 6.68072 5.1315 0.885352 4 0.0010199 2 0 0.0994487 0.20688
320 1 5.6935 6.24342 0.9632 4 0.000837213 2 0 0.0994487 -0.967754
227 1 7.40842 4.46072 0.5468 4 0.00123472 2 0 0.0994487 -0.0252012
331 1 7.33029 5.3575 0.0461812 4 0.00147938 2 0 0.0994487 0.0813617
325 1 8.21355 5.31419 0.694273 4 0.00269778 2 0 0.0994487 -0.0895682
326 1 7.32761 6.15925 0.754293 4 0.00213644 2 0 0.0994487 0.225744
229 1 8.20004 4.61106 1.48677 4 0.0020402 2 0 0.0994487 -0.0118254
327 1 7.39163 5.41839 1.49138 4 0.00169525 2 0 0.0994487 0.136761
328 1 8.23884 6.11028 1.49159 4 0.00367131 2 0 0.0994487 0.0187466
232 1 9.86266 4.50302 0.126324 4 0.00423077 2 0 0.0994487 0.0958769
231 1 9.07913 4.56551 0.821335 4 0.00322599 2 0 0.0994487 -0.658506
337 1 9.76329 6.23201 0.0941385 4 0.00811876 2 0 0.0994487 -0.0359463
338 1 8.99733 5.46479 0.012702 4 0.0041269 2 0 0.0994487 -0.134748
332 1 9.76796 5.3194 0.792562 4 0.00591617 2 0 0.0994487 0.328497
333 1 8.88016 6.18865 0.736908 4 0.00536831 2 0 0.0994487 -0.235524
335 1 9.73844 6.19052 1.46731 4 0.00850325 2 0 0.0994487 -0.1065
238 1 11.3867 4.69403 0.230734 4 0.0104196 2 0 0.0994487 -0.0498725
237 1 10.5891 4.66652 0.906264 4 0.0070369 2 0 0.0994487 0.0451893