ITEM: TIMESTEP
15000
ITEM: NUMBER OF ATOMS
9495
ITEM: BOX BOUNDS mm mm mm
0.0000000000000000e+00 3.1748021039364001e+01
0.0000000000000000e+00 3.1748021039364001e+01
-7.4072398406925706e-04 3.1748021039364001e+01
ITEM: ATOMS id type x y z c_phase c_temp c_surf c_nbond c_visc f_3[1]
1 1 0.116341 1.10259 0.464337 4 2.6059e-10 2 0 0.0994487 -0.68194
2 1 0.974108 1.6685 0.77798 4 8.73347e-10 2 0 0.0994487 -0.517031
3 1 0.714648 0.793562 1.41295 4 4.08304e-10 2 0 0.0994487 -0.281793
4 1 0.00336375 1.60273 1.37437 4 3.25717e-10 2 0 0.0994487 -0.804051
5 1 0.729896 0.0633724 0.61602 4 2.35049e-10 3 0 0.0994487 -0.190374
6 1 1.71015 0.808983 1.0155 4 1.32101e-09 2 0 0.0994487 -0.332067
7 1 1.80059 1.47468 0.221075 4 1.65578e-09 2 0 0.0994487 -0.125828
8 1 1.82015 1.66049 1.76126 4 2.02255e-09 2 0 0.0994487 -0.139532
9 1 2.52093 0.749102 0.203812 4 2.52493e-09 2 0 0.0994487 -0.142939
10 1 2.59149 0.0538711 1.03726 4 2.23536e-09 2 0 0.0994487 -0.295004
11 1 2.64922 1.541 0.882848 4 4.92792e-09 2 0 0.0994487 0.235763
12 1 2.66829 0.815502 1.7457 4 3.32035e-09 2 0 0.0994487 -0.187039
13 1 3.43386 0.933692 0.956349 4 8.86492e-09 2 0 0.0994487 0.320249
14 1 3.49924 0.0925696 1.70571 4 5.00718e-09 2 0 0.0994487 0.178054
15 1 3.60652 1.70798 1.71994 4 1.4598e-08 2 0 0.0994487 0.0487971
16 1 4.10576 0.858321 0.325305 4 1.70513e-08 2 0 0.0994487 0.153149
17 1 4.96159 0.56786 1.17466 4 4.24744e-08 2 0 0.0994487 -0.0370632
18 1 4.91949 1.59987 0.383508 4 6.41219e-08 2 0 0.0994487 -0.100244
19 1 4.3472 0.941527 1.62884 4 2.31796e-08 2 0 0.0994487 0.110741
20 1 3.47612 0.111428 0.171027 4 4.52353e-09 2 0 0.0994487 0.166216
21 1 5.64741 0.645627 0.325839 4 8.61718e-08 2 0 0.0994487 -0.0806022
22 1 5.88414 1.31048 0.938036 4 1.53353e-07 2 0 0.0994487 -0.19956
23 1 6.57478 1.39104 0.218369 4 3.03062e-07 2 0 0.0994487 -0.0861295
24 1 5.78374 0.460658 1.69897 4 8.46193e-08 2 0 0.0994487 -0.0846496
25 1 5.03122 1.72414 1.43602 4 7.38339e-08 2 0 0.0994487 0.0453766
26 1 6.7138 0.39031 0.865278 4 2.28032e-07 2 0 0.0994487 -0.0793781
27 1 6.69104 1.00962 1.69374 4 2.63059e-07 2 0 0.0994487 -0.107919
28 1 8.2679 0.408875 1.07337 4 9.03954e-07 2 0 0.0994487 -0.100161
29 1 7.36782 1.22285 0.954198 4 6.07618e-07 2 0 0.0994487 -0.302527
30 1 8.24709 1.39092 0.236779 4 1.3753e-06 2 0 0.0994487 -0.0460586
31 1 8.12868 1.27217 1.60653 4 1.14046e-06 2 0 0.0994487 -0.00811153
32 1 7.58247 0.647807 0.140287 4 5.32786e-07 2 0 0.0994487 -0.110933
33 1 8.85849 0.508506 0.273966 4 1.48016e-06 2 0 0.0994487 -0.061642
34 1 9.55301 0.3386 0.888639 4 2.5422e-06 2 0 0.0994487 0.0050705
35 1 9.02586 1.30716 1.1133 4 2.67608e-06 2 0 0.0994487 -0.060625
37 1 9.63995 1.37474 0.0900752 4 3.85797e-06 2 0 0.0994487 0.0992959
38 1 11.2128 0.215893 0.632658 4 9.14872e-06 2 0 0.0994487 0.203512
39 1 10.3637 1.04743 0.823114 4 6.78785e-06 2 0 0.0994487 0.539904
40 1 10.523 0.196295 1.44539 4 5.15177e-06 2 0 0.0994487 0.064434
41 1 11.2856 1.01846 1.41785 4 1.51337e-05 2 0 0.0994487 0.164721
42 1 10.5797 1.67706 1.72992 4 1.14965e-05 2 0 0.0994487 0.118171
43 1 10.2431 0.367861 0.0780499 4 3.52908e-06 2 0 0.0994487 0.149805
44 1 12.8757 0.211714 0.636805 4 3.47335e-05 2 0 0.0994487 0.0587974
45 1 12.0457 1.07408 0.506655 4 2.94833e-05 2 0 0.0994487 -0.023539
46 1 12.1319 0.316439 1.29957 4 2.15741e-05 2 0 0.0994487 0.0188477
47 1 12.7194 1.19864 1.3723 4 5.23962e-05 2 0 0.0994487 -0.0305086
48 1 14.3729 0.318493 0.764646 4 0.000102111 2 0 0.0994487 -0.0460279
49 1 13.5924 1.113 0.843618 4 9.55154e-05 2 0 0.0994487 -0.263021
50 1 14.0399 1.55958 0.167469 4 0.000154492 2 0 0.0994487 -0.0898148
51 1 13.6075 0.359834 1.6352 4 5.9946e-05 2 0 0.0994487 -0.056254
52 1 14.3777 1.14948 1.47647 4 0.000144683 2 0 0.0994487 -0.0178118
53 1 14.8761 1.55337 0.662943 4 0.000247387 2 0 0.0994487 0.389982
54 1 15.7061 0.770636 0.788259 4 0.000268626 2 0 0.0994487 0.366508
55 1 16.5532 1.54451 0.681338 4 0.000691898 2 0 0.0994487 0.000843347
56 1 15.1422 0.4642 1.64149 4 0.000155751 2 0 0.0994487 0.152088
57 1 16.547 0.712289 1.3421 4 0.000452319 2 0 0.0994487 0.095652
58 1 15.6341 1.48544 1.3916 4 0.000382355 2 0 0.0994487 0.153659
59 1 15.1049 0.711806 0.0677822 4 0.000153557 2 0 0.0994487 0.16921
60 1 17.2544 0.732268 0.547589 4 0.000631858 2 0 0.0994487 0.0286507
61 1 17.9231 1.58109 0.757246 4 0.00135087 2 0 0.0994487 0.0416046
62 1 17.916 0.742935 1.42801 4 0.000896344 2 0 0.0994487 -0.224348
63 1 17.2202 1.74884 1.56274 4 0.00112684 2 0 0.0994487 -0.0984556
64 1 19.5372 0.0167772 0.662766 4 0.000986724 2 0 0.0994487 0.0436568
65 1 18.7918 0.725074 0.684829 4 0.00114928 2 0 0.0994487 -0.269921
66 1 19.5395 1.55488 0.841653 4 0.00227628 2 0 0.0994487 -0.341109
67 1 19.0276 0.158607 1.54508 4 0.000950255 2 0 0.0994487 -0.158652
68 1 19.5934 0.967491 1.68957 4 0.00159963 2 0 0.0994487 0.00837391
69 1 18.6564 1.51302 1.50035 4 0.00171452 2 0 0.0994487 -0.250267
70 1 21.0889 0.349843 1.06749 4 0.00164769 2 0 0.0994487 -0.196103
71 1 20.2493 0.776373 0.980057 4 0.00173944 2 0 0.0994487 -0.0497124
72 1 21.1062 1.65725 0.951506 4 0.0031963 2 0 0.0994487 0.693032
73 1 21.1874 0.765598 0.218806 4 0.00187769 2 0 0.0994487 -0.0445727
74 1 20.3457 1.51479 0.193617 4 0.00254948 2 0 0.0994487 -0.0805822
75 1 22.0087 0.262534 0.539755 4 0.00167449 2 0 0.0994487 0.0993788
76 1 22.7913 0.430275 1.40734 4 0.00189176 2 0 0.0994487 0.206629
77 1 22.1105 1.14763 1.32981 4 0.00255801 2 0 0.0994487 0.240086
78 1 21.9982 1.59955 0.538558 4 0.00341317 2 0 0.0994487 0.185212
79 1 22.9157 1.07463 0.445168 4 0.00254947 2 0 0.0994487 0.0521169
80 1 24.228 0.380179 1.45209 4 0.00186631 2 0 0.0994487 0.0576366
81 1 23.5672 0.357563 0.57369 4 0.00187637 2 0 0.0994487 0.038595
82 1 24.4367 1.18687 0.754729 4 0.00280238 2 0 0.0994487 -0.0192427
83 1 23.4757 1.2499 1.4028 4 0.00301559 2 0 0.0994487 0.0299212
84 1 24.955 0.315686 0.551996 4 0.0016453 2 0 0.0994487 -0.01718
85 1 26.0085 0.383365 1.1715 4 0.00134706 2 0 0.0994487 -0.185845
86 1 25.169 1.12579 1.48087 4 0.00247315 2 0 0.0994487 0.0251273
87 1 25.9301 1.73476 1.35794 4 0.00300757 2 0 0.0994487 0.0345599
88 1 25.8917 0.929212 0.432102 4 0.00177073 2 0 0.0994487 -0.0954035
89 1 27.5736 1.28032 0.38906 4 0.00117707 2 0 0.0994487 0.0454585
90 1 27.6142 0.50928 0.874321 4 0.000838186 2 0 0.0994487 0.175399
91 1 26.7559 1.02809 1.26347 4 0.00141449 2 0 0.0994487 -0.236863
92 1 28.3748 0.337482 1.39813 4 0.000551758 2 0 0.0994487 0.00985102
93 1 26.7925 0.240345 0.226621 4 0.000920657 2 0 0.0994487 0.0380813
94 1 28.6489 1.24263 0.742341 4 0.000760203 2 0 0.0994487 0.102416
95 1 29.3912 0.945639 1.56878 4 0.000438088 2 0 0.0994487 -0.0191974
96 1 28.5228 1.71921 1.49749 4 0.000993107 2 0 0.0994487 -0.0429722
97 1 29.8133 0.173958 1.46124 4 0.000260933 2 0 0.0994487 0.133418
98 1 29.2734 0.3547 0.615275 4 0.000350751 2 0 0.0994487 -0.0816788
99 1 31.5874 0.266128 1.25663 4 0.000102906 3 0 0.0994487 0.830097
100 1 30.7016 0.49015 0.470738 4 0.000193542 2 0 0.0994487 0.354852
101 1 30.1009 1.19877 0.774133 4 0.000366212 2 0 0.0994487 0.210924
102 1 30.8649 0.971942 1.39386 4 0.000234163 2 0 0.0994487 0.703282
103 1 1.11081 2.43607 0.129285 4 1.18071e-09 2 0 0.0994487 -0.0373217
104 1 0.133403 2.3821 0.812241 4 5.81213e-10 2 0 0.0994487 -0.984517
105 1 1.28845 3.23764 0.949187 4 2.77442e-09 2 0 0.0994487 0.222099
106 1 1.13977 2.36077 1.59162 4 1.47536e-09 2 0 0.0994487 -0.222188
107 1 0.386685 3.02999 1.54944 4 1.00827e-09 2 0 0.0994487 -0.671256
108 1 0.332248 3.09582 0.131296 4 8.43229e-10 2 0 0.0994487 -0.59134
109 1 1.90972 2.41867 0.78376 4 3.40521e-09 2 0 0.0994487 0.0782124
110 1 2.65852 3.28029 0.860875 4 1.34794e-08 2 0 0.0994487 0.066808
111 1 2.66931 2.22918 1.53373 4 7.15491e-09 2 0 0.0994487 0.0829572
112 1 3.2579 3.42668 1.64938 4 2.70607e-08 2 0 0.0994487 0.00397753
113 1 2.7261 2.38168 0.0557193 4 6.17093e-09 2 0 0.0994487 0.146602
114 1 3.38195 2.55413 0.779289 4 1.94132e-08 2 0 0.0994487 0.211588
115 1 4.00679 1.841 0.711184 4 2.73006e-08 2 0 0.0994487 -0.0361184
116 1 4.91383 2.57277 0.815661 4 1.08858e-07 2 0 0.0994487 -0.259341
117 1 4.20148 3.3175 0.749446 4 7.51829e-08 2 0 0.0994487 0.00621997
118 1 4.13245 2.64107 1.58328 4 4.62334e-08 2 0 0.0994487 0.0270809
119 1 5.65047 2.44269 0.132743 4 2.00529e-07 2 0 0.0994487 -0.189923
120 1 6.55776 2.18062 0.772597 4 4.61585e-07 2 0 0.0994487 -0.28935
121 1 5.64874 3.19593 0.952489 4 3.20964e-07 2 0 0.0994487 -0.754616
122 1 5.861 2.19426 1.49672 4 2.20986e-07 2 0 0.0994487 0.0126399
123 1 6.52037 3.06691 1.5557 4 6.82851e-07 2 0 0.0994487 0.0443621
124 1 6.65033 2.92778 0.134227 4 6.33505e-07 2 0 0.0994487 0.0288905
125 1 7.45405 2.22586 0.139832 4 1.05129e-06 2 0 0.0994487 -0.0534976
126 1 8.08209 2.20208 0.930382 4 1.99189e-06 2 0 0.0994487 -0.302032
127 1 7.40132 3.06835 0.934051 4 1.71275e-06 2 0 0.0994487 -0.0454672
128 1 7.29928 2.06035 1.56856 4 8.40908e-07 2 0 0.0994487 -0.0607282
129 1 8.18545 3.00183 1.65211 4 3.25087e-06 2 0 0.0994487 -0.0454109
130 1 8.26934 2.9712 0.0392146 4 3.39058e-06 2 0 0.0994487 -0.150613
131 1 8.90393 2.08699 0.252387 4 3.5097e-06 2 0 0.0994487 0.00243986
132 1 9.77243 2.0246 1.10996 4 7.54454e-06 2 0 0.0994487 0.173492
133 1 8.92671 2.97262 0.928693 4 6.60045e-06 2 0 0.0994487 -0.156709
134 1 9.03062 2.22066 1.70398 4 4.39236e-06 2 0 0.0994487 -0.0819626
135 1 9.56096 2.90576 0.21312 4 9.65058e-06 2 0 0.0994487 0.173126
136 1 10.2834 2.1137 0.214297 4 9.88799e-06 2 0 0.0994487 0.337744
137 1 11.1583 1.82604 0.771092 4 2.14653e-05 2 0 0.0994487 0.260108
138 1 10.6214 2.80819 0.921535 4 2.52051e-05 2 0 0.0994487 0.541943
139 1 11.4444 2.82964 1.57484 4 5.04837e-05 2 0 0.0994487 0.0952121
140 1 12.6737 1.94118 0.593851 4 8.20878e-05 2 0 0.0994487 -0.283914
141 1 11.928 2.64099 0.742299 4 6.75374e-05 2 0 0.0994487 -0.0386547
142 1 11.9239 1.9206 1.46509 4 4.24754e-05 2 0 0.0994487 0.0946692
143 1 12.8449 3.01766 1.68597 4 0.000158781 2 0 0.0994487 0.0363685
144 1 13.1791 3.03035 0.848852 4 0.000217049 2 0 0.0994487 -0.440817
145 1 13.3784 1.9912 1.48064 4 0.000128228 2 0 0.0994487 -0.0150568
146 1 14.0206 2.44438 0.927124 4 0.00026623 2 0 0.0994487 -0.133024
147 1 14.0279 3.38359 1.55716 4 0.000454089 2 0 0.0994487 0.0255893
148 1 14.6961 3.43698 0.884932 4 0.000737309 2 0 0.0994487 -0.332819
149 1 14.7823 2.29758 1.44821 4 0.000379094 2 0 0.0994487 0.0469438
150 1 14.8418 2.51505 0.136557 4 0.000429506 2 0 0.0994487 0.173018
151 1 14.1591 3.2262 0.0325348 4 0.000446138 2 0 0.0994487 -0.246096
152 1 13.4137 2.29398 0.0590902 4 0.000160367 2 0 0.0994487 -0.280953
153 1 15.6993 2.44373 0.692668 4 0.000720525 2 0 0.0994487 0.364437
154 1 16.3029 3.20095 0.662084 4 0.00157076 2 0 0.0994487 0.328629
155 1 16.308 2.47951 1.52575 4 0.00108718 2 0 0.0994487 -0.10062
156 1 15.3694 3.25723 1.50191 4 0.000995953 2 0 0.0994487 -0.00764919
157 1 15.5706 3.25854 0.0192499 4 0.000925723 2 0 0.0994487 0.290249
158 1 17.0646 2.35032 0.682778 4 0.00146162 2 0 0.0994487 0.0235164
159 1 17.944 2.92608 0.699539 4 0.00323884 2 0 0.0994487 -0.231148
160 1 18.0193 2.43917 1.58112 4 0.0024282 2 0 0.0994487 -0.149099
161 1 17.0918 3.1162 1.49491 4 0.0024268 2 0 0.0994487 -0.143396
162 1 18.8908 2.35742 1.01358 4 0.00314227 2 0 0.0994487 -0.516739
163 1 19.7027 3.2427 1.27782 4 0.00668751 2 0 0.0994487 0.394953
164 1 18.884 2.99607 0.196019 4 0.00452642 2 0 0.0994487 -0.171786
165 1 19.587 2.34239 0.101452 4 0.00363417 2 0 0.0994487 -0.132351
166 1 20.3251 1.78863 1.72442 4 0.00286577 2 0 0.0994487 0.044984
167 1 21.1565 2.41663 0.458355 4 0.00539802 2 0 0.0994487 0.196227
168 1 20.1948 2.46882 1.11433 4 0.00453003 2 0 0.0994487 0.286908
169 1 21.31 3.29463 1.39314 4 0.0106971 2 0 0.0994487 0.0777866
170 1 20.4222 2.99313 0.334941 4 0.00663313 2 0 0.0994487 0.186326
171 1 22.8719 2.07007 1.50872 4 0.00528755 2 0 0.0994487 -0.022083
172 1 22.9717 2.60199 0.735523 4 0.00829157 2 0 0.0994487 0.133397
173 1 22.0961 2.49917 1.23787 4 0.00696104 2 0 0.0994487 0.186529
174 1 21.9898 3.20043 0.598797 4 0.0116077 2 0 0.0994487 -0.0756758
175 1 22.6771 3.40124 0.07601 4 0.0137253 2 0 0.0994487 0.0760962
176 1 23.7438 1.80844 0.624025 4 0.00429997 2 0 0.0994487 -0.0873165
177 1 24.4289 1.98763 1.61102 4 0.00474261 2 0 0.0994487 -0.064151
178 1 24.342 2.68296 0.775192 4 0.00782162 2 0 0.0994487 -0.341037
179 1 23.6887 2.90303 1.53628 4 0.00967232 2 0 0.0994487 -0.110466
180 1 24.4728 3.51078 1.55704 4 0.0139669 2 0 0.0994487 -0.118274
181 1 24.9562 2.84566 0.0146836 4 0.00726817 2 0 0.0994487 -0.0864487
182 1 26.5483 1.79415 0.511367 4 0.00245448 2 0 0.0994487 -0.00558529
183 1 25.1322 1.85613 0.509414 4 0.00392953 2 0 0.0994487 -0.0215054
184 1 25.7918 2.61203 0.707489 4 0.00574938 2 0 0.0994487 0.228232
185 1 25.1579 2.55548 1.52547 4 0.00636001 2 0 0.0994487 0.0576893
186 1 25.7213 3.49812 1.51211 4 0.0108929 2 0 0.0994487 0.123873
187 1 26.5364 2.56002 1.53049 4 0.00422695 2 0 0.0994487 0.0579596
188 1 26.1686 3.50068 0.599043 4 0.00947787 2 0 0.0994487 0.168862
189 1 27.5039 1.98546 1.23792 4 0.00187049 2 0 0.0994487 -0.186397
190 1 28.2489 2.09022 0.343734 4 0.00139898 2 0 0.0994487 -0.0177187
191 1 27.0867 2.6924 0.645359 4 0.00365154 2 0 0.0994487 -0.105586
192 1 27.1998 3.35397 1.41682 4 0.0053648 2 0 0.0994487 -0.0983199
193 1 28.2537 2.75799 1.20639 4 0.00213383 2 0 0.0994487 -0.418296
194 1 27.982 3.21993 0.326384 4 0.00313691 2 0 0.0994487 -0.125254
195 1 29.9568 1.80906 1.70764 4 0.000523604 2 0 0.0994487 0.183203
196 1 29.4477 2.04702 0.879698 4 0.000791468 2 0 0.0994487 -0.00707272
197 1 29.1956 2.6589 0.290703 4 0.00119856 2 0 0.0994487 -0.057826
198 1 29.2495 3.2651 1.17365 4 0.00170132 2 0 0.0994487 0.118635
199 1 30.9114 1.98502 0.924207 4 0.000414321 2 0 0.0994487 0.967254
200 1 30.1815 2.71094 1.00186 4 0.000779465 2 0 0.0994487 0.675139
201 1 31.0247 3.35309 0.97101 4 0.000764414 2 0 0.0994487 0.99841
202 1 30.9865 2.69483 1.72648 4 0.000545072 2 0 0.0994487 0.578504
203 1 30.1092 3.25953 0.132205 4 0.000955168 2 0 0.0994487 -0.0443652
204 1 30.4116 1.90909 0.0255368 4 0.000429411 2 0 0.0994487 0.106046
205 1 31.1434 2.66402 0.0761253 4 0.00047737 2 0 0.0994487 0.708821
206 1 0.293831 3.78503 0.918557 4 1.38227e-09 2 0 0.0994487 -0.999347
207 1 0.143046 4.59443 0.482118 4 1.65608e-09 2 0 0.0994487 -0.784494
208 1 1.14036 4.67093 0.986638 4 4.97982e-09 2 0 0.0994487 -0.516749
209 1 0.0884667 5.26681 1.27761 4 2.11064e-09 2 0 0.0994487 -0.887458
210 1 1.04069 3.86421 0.0595682 4 2.50603e-09 2 0 0.0994487 0.0148884
211 1 1.84117 4.04604 0.847105 4 8.28685e-09 2 0 0.0994487 0.0082736
212 1 2.54049 4.85585 1.13748 4 2.65228e-08 2 0 0.0994487 -0.333842
213 1 2.64953 4.14475 0.20674 4 2.07852e-08 2 0 0.0994487 -0.0285708
214 1 1.89758 4.96895 0.278386 4 1.33239e-08 2 0 0.0994487 -0.153432
215 1 3.40771 4.86189 0.161635 4 6.64385e-08 2 0 0.0994487 -0.0163863
216 1 3.494 4.07675 0.885909 4 5.25311e-08 2 0 0.0994487 0.0269011
217 1 4.91235 4.00001 1.18344 4 2.31837e-07 2 0 0.0994487 0.0115258
218 1 4.04658 4.88002 1.14639 4 1.41482e-07 2 0 0.0994487 0.264495
219 1 4.26027 4.18509 0.149001 4 1.17453e-07 2 0 0.0994487 0.0377402
220 1 5.00947 4.74001 0.341082 4 3.51631e-07 2 0 0.0994487 0.0765435
221 1 5.77735 3.9378 0.198707 4 4.54543e-07 2 0 0.0994487 0.0260184
222 1 6.48883 3.76611 0.772067 4 9.73243e-07 2 0 0.0994487 0.204563
223 1 5.68025 4.73638 1.02487 4 7.54551e-07 2 0 0.0994487 -0.621649
224 1 6.66321 4.5115 1.6428 4 1.63314e-06 2 0 0.0994487 0.158938
225 1 6.68072 5.1315 0.885352 4 2.48818e-06 2 0 0.0994487 0.206875
226 1 8.1982 3.892 0.700757 4 5.90159e-06 2 0 0.0994487 -0.369888
227 1 7.40842 4.46072 0.5468 4 3.62034e-06 2 0 0.0994487 -0.0252058
228 1 7.39886 3.87029 1.49684 4 2.53025e-06 2 0 0.0994487 0.102584
229 1 8.20004 4.61106 1.48677 4 8.3373e-06 2 0 0.0994487 -0.0118304
230 1 9.8976 3.57792 0.885667 4 2.18337e-05 2 0 0.0994487 0.592866
231 1 9.07913 4.56551 0.821335 4 1.82736e-05 2 0 0.0994487 -0.658518
232 1 9.86266 4.50302 0.126324 4 2.93468e-05 2 0 0.0994487 0.095871
233 1 9.07829 3.76256 1.49819 4 1.1908e-05 2 0 0.0994487 -0.0708789
234 1 9.86881 4.3462 1.65532 4 3.23046e-05 2 0 0.0994487 -0.0856559
235 1 8.98541 3.86821 0.0631775 4 1.05822e-05 2 0 0.0994487 -0.138749
236 1 11.408 3.64493 0.778297 4 8.03645e-05 2 0 0.0994487 0.202084
237 1 10.5891 4.66652 0.906264 4 7.03081e-05 2 0 0.0994487 0.0451312
238 1 11.3867 4.69403 0.230734 4 0.000134241 2 0 0.0994487 -0.0498817
239 1 10.7059 3.56689 1.58785 4 4.31456e-05 2 0 0.0994487 -0.0448397
240 1 11.3652 4.3716 1.70545 4 0.000112181 2 0 0.0994487 -0.0798184
241 1 11.3894 5.27213 0.983682 4 0.000182557 2 0 0.0994487 -0.674443
242 1 10.5826 3.84888 0.176129 4 4.0605e-05 2 0 0.0994487 0.210472
243 1 12.5168 3.57716 0.814749 4 0.00018474 2 0 0.0994487 -0.0105529
244 1 12.1916 4.55033 1.00021 4 0.000242185 2 0 0.0994487 0.105116
245 1 12.7362 4.99738 1.68903 4 0.000410512 2 0 0.0994487 0.191341
246 1 13.2258 4.67863 0.80017 4 0.000564013 2 0 0.0994487 -0.00464493
247 1 12.6435 4.61885 0.0632315 4 0.000349679 2 0 0.0994487 -0.0335718
248 1 13.9891 4.12825 0.69648 4 0.00072112 2 0 0.0994487 -0.430142
249 1 13.4832 4.21781 1.59317 4 0.000495994 2 0 0.0994487 0.0820323
250 1 14.2046 5.11838 1.52001 4 0.0013592 2 0 0.0994487 -0.0289754
251 1 14.9402 5.01141 0.811699 4 0.00205115 2 0 0.0994487 -0.0523351
252 1 14.9642 4.4167 1.59432 4 0.00150945 2 0 0.0994487 -0.0635464
253 1 14.1405 4.90647 0.0597868 4 0.00113118 2 0 0.0994487 -0.0856826
254 1 14.961 4.19423 0.096508 4 0.00123768 2 0 0.0994487 0.0322854
255 1 15.6685 4.06642 0.926277 4 0.00186591 2 0 0.0994487 0.872621
256 1 15.8798 4.77595 0.186426 4 0.002969 2 0 0.0994487 0.165409
257 1 16.5936 4.58036 0.900182 4 0.00424354 2 0 0.0994487 -0.0787754
258 1 16.3184 3.95875 1.6903 4 0.00256177 2 0 0.0994487 -0.0433741
259 1 15.8111 5.05317 1.64084 4 0.00333836 2 0 0.0994487 0.0995181
260 1 17.2689 3.83372 0.811237 4 0.00405896 2 0 0.0994487 -0.345323
261 1 18.0864 4.48855 1.09806 4 0.00813171 2 0 0.0994487 -0.611832
262 1 17.9525 3.63794 1.65602 4 0.00483543 2 0 0.0994487 -0.192774
263 1 17.4569 4.57727 0.0147963 4 0.005857 2 0 0.0994487 -0.0973908
264 1 18.1348 3.8547 0.0583493 4 0.00548502 2 0 0.0994487 -0.120497
265 1 18.8779 3.70667 0.95022 4 0.0069566 2 0 0.0994487 0.0695183
266 1 18.8235 4.60949 0.361826 4 0.0109585 2 0 0.0994487 0.115643
267 1 19.6906 4.67872 1.0803 4 0.0175489 2 0 0.0994487 0.93156
268 1 18.7859 5.27693 1.20102 4 0.0172769 2 0 0.0994487 0.599389
269 1 19.5987 3.76722 0.227421 4 0.00866925 2 0 0.0994487 0.164299
270 1 20.4384 3.82188 1.23329 4 0.0126686 2 0 0.0994487 0.326045
271 1 20.8846 4.71868 1.39403 4 0.0283966 2 0 0.0994487 0.149132
272 1 21.5775 4.95128 0.810455 4 0.0416666 2 0 0.0994487 -0.0035303
273 1 21.0824 3.93136 0.512408 4 0.0163011 2 0 0.0994487 0.0883611
274 1 20.1339 4.78559 0.352846 4 0.0217442 2 0 0.0994487 0.145628
275 1 22.8205 3.63186 1.42135 4 0.0170964 2 0 0.0994487 -0.0183512
276 1 21.9406 4.13318 1.31068 4 0.0233151 2 0 0.0994487 0.0272793
277 1 22.4705 5.17735 1.27286 4 0.0562264 2 0 0.0994487 0.0207967
278 1 22.6119 4.34705 0.510028 4 0.0288608 2 0 0.0994487 -0.0220439
279 1 23.5735 3.63903 0.782677 4 0.0176386 2 0 0.0994487 0.18566
280 1 24.336 4.32055 0.625018 4 0.0274195 2 0 0.0994487 -0.150049
281 1 23.4679 4.54946 1.33355 4 0.0355625 2 0 0.0994487 -0.0789886
282 1 24.8518 5.25716 0.566763 4 0.0463169 2 0 0.0994487 0.0409351
283 1 23.5518 5.06386 0.533607 4 0.0509993 2 0 0.0994487 -0.0968256
284 1 25.0086 4.50055 1.62342 4 0.0266942 2 0 0.0994487 -0.0421784
285 1 25.0629 3.68037 0.802132 4 0.0146628 2 0 0.0994487 -0.187862
286 1 24.363 5.28843 1.43377 4 0.0554752 2 0 0.0994487 -0.154732
287 1 25.6904 5.1389 1.34266 4 0.0341106 2 0 0.0994487 0.210115
288 1 26.3575 4.29031 1.37159 4 0.0150096 2 0 0.0994487 0.149493
289 1 26.5026 4.97257 0.640732 4 0.0213507 2 0 0.0994487 0.0989723
290 1 25.5284 4.40089 0.388179 4 0.0209704 2 0 0.0994487 0.055959
291 1 27.3302 4.86961 1.40568 4 0.0136379 2 0 0.0994487 0.00660761
292 1 27.9624 3.97641 1.10408 4 0.00543431 2 0 0.0994487 -0.309482
293 1 28.2771 4.73475 0.706344 4 0.00742038 2 0 0.0994487 -0.0812538
294 1 27.0674 4.04323 0.570038 4 0.00911381 2 0 0.0994487 0.0120272
295 1 28.9321 3.77016 0.487204 4 0.0027067 2 0 0.0994487 -0.00703423
296 1 29.0873 4.52317 1.33085 4 0.00402235 2 0 0.0994487 0.0574796
297 1 29.9979 4.07209 1.02303 4 0.00175442 2 0 0.0994487 -0.275208
298 1 31.0296 3.97382 0.373364 4 0.0010011 2 0 0.0994487 0.65758
299 1 30.2046 4.67765 0.491317 4 0.00222311 2 0 0.0994487 0.00995317
300 1 30.9783 4.59929 1.41131 4 0.00142188 2 0 0.0994487 0.679908
301 1 0.908283 5.53205 0.461647 4 5.72232e-09 2 0 0.0994487 -0.463784
302 1 1.53161 5.51184 1.37971 4 1.08061e-08 2 0 0.0994487 -0.117386
303 1 0.793684 6.22023 1.2768 4 6.66031e-09 2 0 0.0994487 -0.70338
304 1 0.257003 6.91734 1.50738 4 4.78017e-09 2 0 0.0994487 -0.772633
305 1 0.969942 6.9454 0.573423 4 1.08555e-08 2 0 0.0994487 -0.473532
306 1 1.7053 7.02884 1.23811 4 2.36109e-08 2 0 0.0994487 0.0665194
307 1 1.89588 6.19966 0.519025 4 2.2744e-08 2 0 0.0994487 -0.156399
308 1 3.10475 5.61709 1.30057 4 6.81745e-08 2 0 0.0994487 0.0402549
309 1 2.26359 6.15348 1.40977 4 3.09215e-08 2 0 0.0994487 0.0408573
310 1 3.25442 6.96226 1.12748 4 1.52495e-07 2 0 0.0994487 -0.0541208
311 1 2.68177 5.61289 0.273587 4 4.25438e-08 2 0 0.0994487 -0.0596842
312 1 3.39503 6.28191 0.500536 4 1.38755e-07 2 0 0.0994487 -0.121441
313 1 4.18979 5.46246 0.325783 4 2.16246e-07 2 0 0.0994487 0.0310205
314 1 4.93434 5.42873 1.31778 4 5.24676e-07 2 0 0.0994487 -0.235096
315 1 4.13622 6.09659 1.22779 4 2.99884e-07 2 0 0.0994487 -0.0893856
316 1 4.82567 6.23357 0.333842 4 6.21432e-07 2 0 0.0994487 -0.0345727
317 1 4.77312 6.79931 1.15967 4 8.28765e-07 2 0 0.0994487 -0.305926
318 1 4.00267 7.02511 0.221759 4 3.45784e-07 2 0 0.0994487 -0.0853418
319 1 5.78575 5.42185 0.301847 4 1.09584e-06 2 0 0.0994487 0.0125056
320 1 5.6935 6.24342 0.9632 4 1.61435e-06 2 0 0.0994487 -0.967777
321 1 6.4578 5.98425 1.59671 4 2.9158e-06 2 0 0.0994487 0.140918
322 1 6.43234 6.86927 1.00965 4 4.55302e-06 2 0 0.0994487 0.851682
323 1 6.37773 6.04115 0.154639 4 2.34247e-06 2 0 0.0994487 0.111115
324 1 5.54993 7.05206 0.147147 4 1.69834e-06 2 0 0.0994487 0.0363889
325 1 8.21355 5.31419 0.694273 4 1.23078e-05 2 0 0.0994487 -0.0895775
326 1 7.32761 6.15925 0.754293 4 7.68654e-06 2 0 0.0994487 0.225743
327 1 7.39163 5.41839 1.49138 4 5.63709e-06 2 0 0.0994487 0.136759
328 1 8.23884 6.11028 1.49159 4 1.84794e-05 2 0 0.0994487 0.0187439
329 1 8.01352 6.85364 0.728993 4 2.11017e-05 2 0 0.0994487 0.069196
330 1 7.28191 6.86379 1.59601 4 1.08323e-05 2 1 0.0994487 0.126051
331 1 7.33029 5.3575 0.0461812 4 4.36207e-06 2 0 0.0994487 0.0813601
332 1 9.76796 5.3194 0.792562 4 4.6895e-05 2 0 0.0994487 0.328471
333 1 8.88016 6.18865 0.736908 4 3.47548e-05 2 0 0.0994487 -0.235528
334 1 9.05434 5.3271 1.5973 4 2.60183e-05 2 0 0.0994487 -0.0628253
335 1 9.73844 6.19052 1.46731 4 7.47113e-05 2 0 0.0994487 -0.106403
336 1 9.09351 6.95013 1.463 4 6.46389e-05 2 2 0.0994487 -0.0756861
337 1 9.76329 6.23201 0.0941385 4 6.77322e-05 2 0 0.0994487 -0.0359474
338 1 8.99733 5.46479 0.012702 4 2.34202e-05 2 0 0.0994487 -0.13475
339 1 10.5831 6.02196 0.964384 4 0.000135671 2 0 0.0994487 -0.356439
340 1 11.3128 6.37134 0.0776634 4 0.000225275 2 0 0.0994487 0.100346
341 1 10.5187 6.94145 0.15452 4 0.000168015 2 0 0.0994487 -0.073535
342 1 10.4686 6.92564 1.49614 4 0.000197106 2 1 0.0994487 -0.0635176
343 1 11.9994 5.6274 0.183157 4 0.000307383 2 0 0.0994487 -0.0105228
344 1 12.6757 5.81849 0.861776 4 0.000626799 2 0 0.0994487 0.0817826
345 1 11.7774 6.20735 1.05291 4 0.000367018 2 0 0.0994487 0.292232
346 1 13.3219 5.86668 1.55471 4 0.000995183 2 0 0.0994487 0.208178
347 1 13.3506 6.58297 0.813679 4 0.00154555 2 0 0.0994487 -0.292091
348 1 13.3212 5.53867 0.0424813 4 0.000859842 2 0 0.0994487 -0.142901
349 1 14.0617 5.71565 0.77266 4 0.00166622 2 0 0.0994487 -0.372573
350 1 14.3278 6.65176 1.40646 4 0.00337393 2 1 0.0994487 -0.103118
351 1 14.1303 6.38483 0.0380077 4 0.00208204 2 0 0.0994487 -0.082603
352 1 15.0282 5.64393 0.034369 4 0.00272387 2 0 0.0994487 0.0573755
353 1 15.8305 5.73813 0.95832 4 0.0051423 2 0 0.0994487 0.625863
354 1 15.0472 6.45091 0.806774 4 0.00463113 2 0 0.0994487 -0.176013
355 1 16.491 6.45257 1.1401 4 0.0112626 2 0 0.0994487 0.208374
356 1 15.1058 5.87594 1.69804 4 0.00375705 2 0 0.0994487 -0.0976484
357 1 16.62 5.41933 0.276819 4 0.00627927 2 0 0.0994487 0.0799467
358 1 15.6753 6.3382 0.0390223 4 0.00564443 2 0 0.0994487 0.0398612
359 1 17.8271 5.30128 0.541411 4 0.0107565 2 0 0.0994487 0.150364
360 1 17.113 5.42499 1.24767 4 0.00879808 2 0 0.0994487 -0.286522
361 1 17.0619 6.27419 0.411469 4 0.0127784 2 0 0.0994487 0.138975
362 1 17.6649 6.24649 1.38542 4 0.0182287 2 0 0.0994487 -0.254204
363 1 18.2745 7.0517 1.13153 4 0.0360166 2 1 0.0994487 0.631153
364 1 18.3714 6.23173 0.609762 4 0.0246158 2 0 0.0994487 0.15622
365 1 19.429 5.75829 0.62055 4 0.031178 2 0 0.0994487 0.0572402
366 1 19.3279 6.55755 1.35081 4 0.0484187 2 1 0.0994487 0.274669
367 1 19.9942 6.75229 0.610261 4 0.0744821 2 0 0.0994487 -0.0118509
368 1 20.7494 5.77593 0.653722 4 0.0567939 2 0 0.0994487 -0.10395
369 1 20.1931 5.61076 1.39557 4 0.0406333 2 0 0.0994487 0.312111
370 1 20.7787 6.6124 1.30355 4 0.104346 2 1 0.0994487 -0.352209
371 1 21.6592 6.66248 0.666524 4 0.118245 2 0 0.0994487 -0.0442863
372 1 21.6631 5.87866 1.38528 4 0.0844223 2 0 0.0994487 0.0401849
373 1 21.6904 5.73259 0.0517844 4 0.0646927 2 0 0.0994487 -0.00146267
374 1 22.6732 5.8279 0.674154 4 0.0856857 2 0 0.0994487 0.00284431
375 1 22.6319 6.69333 1.20734 4 0.15712 2 0 0.0994487 -0.211454
376 1 23.3484 6.78052 0.267835 4 0.137141 2 0 0.0994487 -0.125248
377 1 23.4822 5.88496 1.30013 4 0.100697 2 0 0.0994487 -0.177269
378 1 24.3197 6.56281 1.15825 4 0.128173 2 0 0.0994487 0.184911
379 1 24.1457 6.00685 0.427617 4 0.0866905 2 0 0.0994487 0.00248628
380 1 25.6831 5.86213 0.700952 4 0.0520179 2 0 0.0994487 0.163912
381 1 25.1124 6.04132 1.67733 4 0.0758717 2 0 0.0994487 0.0117955
382 1 25.1593 6.74159 0.495153 4 0.0975864 2 0 0.0994487 0.090418
383 1 25.8251 6.59457 1.40775 4 0.0754848 2 0 0.0994487 0.0910264
384 1 26.6903 5.84511 1.4763 4 0.0339599 2 0 0.0994487 0.0917503
385 1 27.4966 5.54334 0.722172 4 0.017918 2 0 0.0994487 -0.251591
386 1 26.7485 6.36567 0.651888 4 0.0420207 2 0 0.0994487 0.0387303
387 1 27.7011 6.47315 1.36539 4 0.0264899 2 0 0.0994487 0.131465
388 1 28.3648 5.52203 1.4872 4 0.0108127 2 0 0.0994487 0.0456247
389 1 27.7097 7.0074 0.530173 4 0.0319092 2 0 0.0994487 0.0320921
390 1 29.3889 5.30889 0.818726 4 0.00535805 2 0 0.0994487 0.316733
391 1 29.4379 6.18214 1.32212 4 0.00739074 2 0 0.0994487 -0.00339174
392 1 29.5784 6.89773 0.506505 4 0.00894648 2 0 0.0994487 0.0925702
393 1 28.4685 6.20589 0.638647 4 0.0136358 2 0 0.0994487 -0.27011
394 1 29.3762 6.15398 0.0801838 4 0.00723621 2 0 0.0994487 0.0969225
395 1 28.4822 5.38976 0.0592959 4 0.00848753 2 0 0.0994487 -0.105005
396 1 30.9636 5.36838 0.595026 4 0.00226122 2 0 0.0994487 0.667856
397 1 30.2159 5.45949 1.46813 4 0.00329403 2 0 0.0994487 0.0540163
398 1 30.3958 6.18258 0.649752 4 0.00426342 2 0 0.0994487 0.328987
399 1 31.2189 6.15516 1.38439 4 0.00268346 2 0 0.0994487 0.587257
400 1 31.1994 6.95407 0.60342 4 0.00371036 2 0 0.0994487 0.812244
401 1 31.7235 5.99622 0.446564 4 0.00203493 2 0 0.0994487 0.879731
402 1 0.261851 7.63199 0.661866 4 6.73409e-09 2 0 0.0994487 -0.876373
403 1 0.831025 8.46344 0.61936 4 1.44206e-08 2 0 0.0994487 -0.577626
404 1 1.11211 7.86396 1.49711 4 1.51412e-08 2 0 0.0994487 -0.154428
405 1 0.356955 8.5626 1.47035 4 8.79843e-09 2 0 0.0994487 -0.764984
406 1 1.59266 7.76478 0.37187 4 2.72496e-08 2 0 0.0994487 -0.089787
407 1 1.72382 8.61735 1.46471 4 3.84334e-08 2 0 0.0994487 0.0395978
408 1 2.48799 7.14986 0.476331 4 6.75827e-08 2 0 0.0994487 -0.083694
409 1 2.19177 8.6335 0.399707 4 7.0535e-08 2 0 0.0994487 -0.137266
410 1 2.39416 7.81099 1.27726 4 7.12051e-08 2 0 0.0994487 0.0869938
411 1 3.01349 8.51445 0.935533 4 1.83385e-07 2 0 0.0994487 -0.539306
412 1 3.24418 7.77117 0.327041 4 1.92199e-07 2 0 0.0994487 -0.196203
413 1 3.81243 8.45898 0.0822892 4 3.86037e-07 2 0 0.0994487 -0.045777
414 1 3.97971 7.67009 1.24863 4 4.34129e-07 2 0 0.0994487 -0.0554863
415 1 4.70459 8.25653 0.921772 4 1.1432e-06 2 0 0.0994487 0.295353
416 1 4.67023 7.63706 0.247803 4 8.50747e-07 2 0 0.0994487 0.0376947
417 1 3.81127 8.34851 1.76162 4 3.83028e-07 2 0 0.0994487 -0.0574347
418 1 5.86955 8.34822 0.169905 4 3.53148e-06 2 0 0.0994487 0.113108
419 1 5.48363 7.59071 1.03232 4 2.31516e-06 2 0 0.0994487 -0.467652
420 1 6.49365 7.53799 0.169175 4 5.39009e-06 2 0 0.0994487 0.187627
421 1 6.39674 8.23976 1.04384 4 7.62067e-06 2 0 0.0994487 0.338162
422 1 7.28583 7.76918 0.746313 4 1.59578e-05 2 1 0.0994487 0.00993688
423 1 8.2859 8.31376 0.868772 4 5.16609e-05 2 2 0.0994487 0.278855
424 1 7.27857 8.18368 1.7015 4 2.2024e-05 2 2 0.0994487 -0.174665
425 1 8.05208 7.48784 1.5604 4 3.14241e-05 2 1 0.0994487 0.185112
426 1 7.99895 7.60312 0.0282118 4 2.26436e-05 2 0 0.0994487 0.0674156
427 1 9.84313 7.22199 0.72344 4 0.000130683 2 1 0.0994487 -0.346908
428 1 8.91207 7.61626 0.661731 4 6.71704e-05 2 1 0.0994487 0.158748
429 1 9.73234 8.61964 0.693151 4 0.000201821 2 3 0.0994487 -0.257264
430 1 9.09265 8.69904 1.44495 4 0.000141903 2 9 0.0994487 -0.394627
431 1 9.64026 7.88932 1.60055 4 0.00017699 2 8 0.0994487 -0.34025
432 1 11.3161 7.14287 0.810636 4 0.000386076 2 1 0.0994487 0.448516
433 1 10.5731 7.9454 0.844311 4 0.000312318 2 3 0.0994487 -0.198552
434 1 10.5877 8.70196 1.4255 4 0.000447631 1 8 0.0994487 -0.147073
435 1 11.4057 7.80503 1.60301 4 0.000637032 2 7 0.0994487 0.228188
436 1 11.227 8.11851 0.0422735 4 0.000421066 2 0 0.0994487 0.174332
437 1 12.7061 7.28322 0.565784 4 0.00129822 2 0 0.0994487 -0.053132
438 1 12.178 8.23518 0.590765 4 0.00116693 2 2 0.0994487 0.163949
439 1 12.0637 7.15788 1.37768 4 0.000774671 2 3 0.0994487 0.145645
440 1 12.0887 8.68064 1.49044 4 0.00149327 1 8 0.0994487 0.0829627
441 1 12.8601 7.99585 1.47598 4 0.00223663 2 6 0.0994487 -0.216665