ITEM: TIMESTEP
37000
ITEM: NUMBER OF ATOMS
9495
ITEM: BOX BOUNDS mm mm mm
0.0000000000000000e+00 6.0736291873993792e+01
-3.2311944808458755e+00 3.4505015519103189e+01
-6.3586631240992773e+01 3.1748021039364001e+01
ITEM: ATOMS id type x y z c_phase c_temp c_surf c_nbond c_visc f_3[1]
2454 1 52.1222 13.8431 -62.5362 0 3.23363 2 0 4.53999e-06 -0.950288
2453 1 52.0694 13.8249 -63.5835 0 3.20555 2 0 4.53999e-06 -0.62675
2149 1 52.7561 13.0291 -62.9573 0 3.26587 2 0 4.53999e-06 -0.494569
2101 1 53.0357 13.5388 -62.1823 0 3.29856 2 0 4.53999e-06 -0.811207
1924 1 53.3898 12.3699 -62.3298 0 3.3209 2 0 4.53999e-06 -0.393654
1560 1 53.7886 13.1238 -63.1867 0 3.33535 2 0 4.53999e-06 0.173599
1561 1 54.4268 12.5946 -62.5025 0 3.42018 2 0 4.53999e-06 0.288192
1196 1 54.643 13.6567 -62.6704 0 3.48732 2 0 4.53999e-06 0.369025
3628 1 55.2333 13.1845 -62.0709 0 3.75582 2 0 4.53999e-06 0.524744
2099 1 49.9641 15.5487 -62.8186 0 2.96161 3 0 4.53999e-06 -0.965565
2100 1 52.1612 14.9565 -63.266 0 3.20141 2 0 4.53999e-06 -0.577879
1865 1 52.7482 14.5665 -62.3612 0 3.2635 2 0 4.53999e-06 -0.869622
1920 1 52.9862 13.9856 -63.2077 0 3.26503 2 0 4.53999e-06 -0.0552457
1464 1 53.371 14.9093 -63.0616 0 3.2852 2 0 4.53999e-06 0.0716567
1143 1 53.8018 14.0414 -62.7081 0 3.3518 2 0 4.53999e-06 0.192189
1142 1 53.7139 14.863 -62.1686 0 3.33571 2 0 4.53999e-06 -0.0184444
4521 1 54.638 14.7983 -62.9401 0 3.4592 2 0 4.53999e-06 0.327472
4544 1 55.4823 14.1578 -62.4715 0 3.89065 2 0 4.53999e-06 0.589879
9332 1 54.7236 15.3087 -61.9403 0 3.46398 2 0 4.53999e-06 0.239566
2150 1 53.8096 11.9811 -61.3315 0 3.33032 2 0 4.53999e-06 -0.350138
1562 1 54.7861 12.1508 -60.6382 0 3.35894 2 0 4.53999e-06 -0.0687809
2503 1 53.2834 12.9829 -61.417 0 3.32756 2 0 4.53999e-06 -0.785774
2460 1 53.5869 13.7256 -60.7155 0 3.33414 2 0 4.53999e-06 -0.694756
2105 1 54.0891 12.9288 -60.8239 0 3.36904 2 0 4.53999e-06 -0.607986
900 1 54.1435 13.3297 -61.8158 0 3.40826 1 0 4.53999e-06 -0.312191
1921 1 54.7379 12.6295 -61.4829 0 3.43808 2 0 4.53999e-06 0.246732
1149 1 54.8862 13.4519 -60.8138 0 3.44598 1 0 4.53999e-06 -0.0476513
1201 1 55.6301 13.1206 -61.1243 0 3.55227 1 0 4.53999e-06 0.556293
4545 1 55.0361 13.8294 -61.5115 0 3.5343 1 0 4.53999e-06 0.738514
2153 1 55.6111 12.5963 -60.266 0 3.39818 2 0 4.53999e-06 0.0549756
4113 1 56.6028 13.1682 -60.8943 0 3.82988 2 0 4.53999e-06 0.740341
4522 1 56.1801 13.6026 -61.8534 0 3.97966 2 0 4.53999e-06 0.79672
9333 1 55.7619 13.6732 -60.3631 0 3.49586 1 0 4.53999e-06 0.909864
7200 1 51.7816 15.1852 -61.0891 0 3.14855 2 0 4.53999e-06 -0.928254
1870 1 52.792 14.4484 -61.3657 0 3.2712 2 0 4.53999e-06 -0.943798
1465 1 53.1415 15.2025 -60.7865 0 3.26758 2 0 4.53999e-06 -0.352333
6588 1 52.8451 14.3129 -60.2959 0 3.25352 2 0 4.53999e-06 -0.729982
6299 1 52.7023 15.4056 -61.811 0 3.24264 2 0 4.53999e-06 -0.547475
1469 1 53.5729 14.0533 -61.5834 0 3.34168 1 0 4.53999e-06 -0.957695
6032 1 53.8699 14.5628 -60.2352 0 3.32343 2 0 4.53999e-06 -0.368003
6028 1 53.6959 15.5947 -61.5924 0 3.31148 2 0 4.53999e-06 0.0141514
906 1 54.0276 14.847 -61.1762 0 3.36221 1 0 4.53999e-06 -0.0875351
8451 1 54.395 14.2499 -61.8382 0 3.43937 1 0 4.53999e-06 0.198673
3632 1 54.3816 14.1209 -60.7844 0 3.39947 1 0 4.53999e-06 -0.410685
9330 1 55.0495 14.6134 -61.1739 0 3.50686 1 0 4.53999e-06 0.393094
8452 1 54.8174 14.937 -60.3335 0 3.41069 2 0 4.53999e-06 -0.025725
9219 1 55.5619 15.4736 -60.9682 0 3.52396 2 0 4.53999e-06 0.370374
4130 1 55.9493 14.2107 -61.1246 0 3.79625 2 0 4.53999e-06 0.852754
4109 1 55.7201 14.8864 -61.8603 0 3.89521 2 0 4.53999e-06 0.661262
9222 1 55.8657 14.6752 -60.2293 0 3.49448 2 0 4.53999e-06 0.462558
4114 1 56.7105 14.0651 -60.3596 0 3.78232 2 0 4.53999e-06 0.736656
2151 1 55.1786 12.0253 -59.5005 0 3.2713 2 0 4.53999e-06 -0.605753
952 1 56.1939 11.6992 -59.3291 0 3.24192 2 0 4.53999e-06 -0.116711
4587 1 57.713 11.7681 -58.7767 0 3.25849 2 0 4.53999e-06 0.441378
2551 1 54.5916 12.8277 -59.9433 0 3.34259 2 0 4.53999e-06 -0.669333
2104 1 55.1914 13.1774 -59.2154 0 3.31497 2 0 4.53999e-06 -0.671367
2457 1 54.7368 13.7767 -59.9779 0 3.37248 1 0 4.53999e-06 -0.537288
1928 1 56.0816 12.7844 -59.304 0 3.32602 1 0 4.53999e-06 -0.776216
3522 1 56.9447 12.3969 -59.2257 0 3.3017 1 0 4.53999e-06 0.305764
3630 1 56.5519 12.2926 -60.1709 0 3.39533 2 0 4.53999e-06 0.366372
903 1 56.5749 13.2045 -59.8972 0 3.44845 1 0 4.53999e-06 0.663616
3631 1 57.0209 13.2708 -58.8863 0 3.32864 1 0 4.53999e-06 0.240313
3629 1 55.8952 13.7317 -59.4815 0 3.38682 1 0 4.53999e-06 -0.288501
7556 1 56.272 13.7889 -58.5301 0 3.2844 2 0 4.53999e-06 -0.573053
8992 1 57.5594 13.2773 -59.7253 0 3.67891 2 0 4.53999e-06 0.75886
4125 1 57.7117 12.7371 -58.8382 0 3.30157 1 0 4.53999e-06 0.68563
6967 1 53.8553 14.3344 -59.1318 0 3.22793 2 0 4.53999e-06 -0.525049
7563 1 55.1963 14.4198 -59.5501 0 3.36332 2 0 4.53999e-06 -0.120064
6973 1 55.2362 14.1032 -58.5532 0 3.25788 2 0 4.53999e-06 -0.437614
9329 1 56.7974 13.9517 -59.3521 0 3.41715 2 0 4.53999e-06 0.258371
9428 1 57.9134 14.1032 -59.102 0 3.72594 2 0 4.53999e-06 0.642464
2547 1 55.4682 11.7194 -58.4532 0 3.14866 2 0 4.53999e-06 -0.795733
1195 1 56.8301 10.8671 -57.2006 0 3.04758 2 0 4.53999e-06 -0.515862
1008 1 56.5146 11.1295 -58.2969 0 3.12363 2 0 4.53999e-06 -0.344429
1199 1 56.8442 11.8896 -57.2385 0 3.12223 2 0 4.53999e-06 -0.832896
1922 1 56.5888 12.048 -58.392 0 3.20141 1 0 4.53999e-06 -0.734277
4325 1 57.9282 11.024 -57.2985 0 3.12163 2 0 4.53999e-06 0.187608
3519 1 57.3662 11.6001 -57.9007 0 3.16242 2 0 4.53999e-06 -0.0422581
4520 1 58.2496 11.93 -57.6955 0 3.22535 1 0 4.53999e-06 0.568163
954 1 57.7881 11.8616 -56.9665 0 3.15217 1 0 4.53999e-06 -0.242377
8448 1 58.5992 12.1448 -56.8297 0 3.23861 1 0 4.53999e-06 0.748906
3870 1 59.3165 11.9231 -57.7436 0 3.6901 2 0 4.53999e-06 0.671662
1866 1 56.4054 12.8892 -58.4242 0 3.2479 1 0 4.53999e-06 -0.938662
7205 1 56.6663 12.7516 -57.4384 0 3.15532 1 0 4.53999e-06 -0.939505
1148 1 57.3074 12.4822 -58.1399 0 3.21954 1 0 4.53999e-06 -0.211231
1466 1 57.1456 13.2323 -57.9661 0 3.22847 1 0 4.53999e-06 -0.554767
6298 1 56.686 13.8957 -57.4602 0 3.16975 2 0 4.53999e-06 -0.529827
1869 1 57.7024 12.5191 -57.4892 0 3.19317 1 0 4.53999e-06 0.208483
9220 1 58.4511 12.8945 -57.2774 0 3.25389 1 0 4.53999e-06 0.811892
4548 1 58.3744 12.6614 -58.1665 0 3.28512 1 0 4.53999e-06 0.764374
9334 1 57.8244 13.413 -58.3022 0 3.29976 1 0 4.53999e-06 0.656684
9218 1 58.6529 13.5375 -57.8399 0 3.52103 2 0 4.53999e-06 0.686135
6608 1 57.4757 13.1461 -57.1224 0 3.16781 1 0 4.53999e-06 -0.362242
7557 1 57.817 13.8141 -57.4561 0 3.22724 2 0 4.53999e-06 0.188682
9171 1 58.9075 13.6335 -56.7979 0 3.27716 2 0 4.53999e-06 0.442235
8739 1 59.5889 12.8957 -57.3119 0 3.6834 2 0 4.53999e-06 0.814953
8449 1 57.1889 14.272 -58.3361 0 3.30101 2 0 4.53999e-06 0.0284592
1976 1 57.5885 11.3496 -56.2889 0 3.08572 2 0 4.53999e-06 -0.546564
955 1 58.4303 11.3466 -55.6327 0 3.11609 1 0 4.53999e-06 -0.375755
4417 1 58.769 11.1968 -56.6398 0 3.21262 2 0 4.53999e-06 0.329968
2553 1 58.0328 12.1555 -56.0648 0 3.12865 1 0 4.53999e-06 -0.7356
4518 1 58.8502 12.0721 -55.8171 0 3.20374 1 0 4.53999e-06 0.312707
2656 1 58.1167 12.1974 -55.1705 0 3.06718 1 0 4.53999e-06 -0.971708
4588 1 59.1085 10.7562 -55.4098 0 3.13507 2 0 4.53999e-06 0.226253
4227 1 60.1521 11.3319 -55.9741 0 3.70953 2 0 4.53999e-06 0.664914
4519 1 59.5153 11.9213 -56.5502 0 3.55894 2 0 4.53999e-06 0.701716
3520 1 59.5669 11.4918 -55.1445 0 3.24103 1 0 4.53999e-06 0.554125
7202 1 56.9498 12.7685 -55.7484 0 2.98894 2 0 4.53999e-06 -0.897049
7203 1 57.3117 12.4867 -56.6362 0 3.11653 1 0 4.53999e-06 -0.79347
6604 1 56.3285 13.3486 -56.6058 0 3.04946 2 0 4.53999e-06 -0.90218
7474 1 56.8993 13.7694 -55.2002 0 2.85045 2 0 4.53999e-06 -0.538571
6027 1 57.3988 13.6112 -56.2655 0 3.06503 2 0 4.53999e-06 -0.241331
7204 1 58.1102 12.7977 -56.5473 0 3.16777 1 0 4.53999e-06 -0.0585779
6304 1 58.7978 12.7381 -55.3375 0 3.16223 1 0 4.53999e-06 -0.149191
6908 1 57.7753 13.1413 -55.2013 0 3.00457 2 0 4.53999e-06 -0.509552
6030 1 58.42 13.3784 -55.9206 0 3.14655 1 0 4.53999e-06 0.0243645
902 1 59.585 12.3014 -55.489 0 3.30972 1 0 4.53999e-06 0.847849
4546 1 60.5038 12.2301 -55.2968 0 3.65313 2 0 4.53999e-06 0.962016
3213 1 60.3658 12.4806 -56.4173 0 3.82469 2 0 4.53999e-06 0.876406
7555 1 59.0707 12.7668 -56.3538 0 3.28924 1 0 4.53999e-06 0.723585
9221 1 59.7553 13.1445 -55.7781 0 3.56473 2 0 4.53999e-06 0.544028
1253 1 58.2888 10.3377 -54.7738 0 2.97265 2 0 4.53999e-06 -0.377906
2598 1 58.0288 11.3977 -54.7446 0 3.026 2 0 4.53999e-06 -0.823415
1010 1 58.9023 11.1985 -54.5065 0 3.09536 1 0 4.53999e-06 -0.0299178
3425 1 58.2493 11.1905 -53.6948 0 2.99835 2 0 4.53999e-06 -0.681102
4630 1 59.0301 10.7303 -53.3735 0 3.05928 2 0 4.53999e-06 7.0096e-05
2599 1 58.4684 11.9152 -54.0422 0 3.03506 1 0 4.53999e-06 -0.835325
2552 1 59.0334 12.109 -54.5863 0 3.13438 1 0 4.53999e-06 -0.0311409
4420 1 59.7046 11.0983 -54.0458 0 3.35546 2 0 4.53999e-06 0.534928
1926 1 59.2791 11.7645 -53.7526 0 3.11764 1 0 4.53999e-06 0.364845
901 1 60.1122 11.813 -54.4542 0 3.27937 1 0 4.53999e-06 0.821072
4547 1 60.1702 11.8791 -53.4928 0 3.23016 1 0 4.53999e-06 0.842584
7373 1 56.8881 12.9428 -54.3877 0 2.81487 2 0 4.53999e-06 -0.980209
7152 1 57.7418 12.3432 -54.3167 0 2.96132 1 0 4.53999e-06 -0.981797
6297 1 57.8195 13.2744 -54.0523 0 2.91701 2 0 4.53999e-06 -0.485802
6970 1 58.517 12.7459 -54.4829 0 3.05639 1 0 4.53999e-06 -0.558543
7376 1 58.2635 12.4525 -53.4735 0 2.97576 1 0 4.53999e-06 -0.985749
6245 1 58.604 13.2264 -53.4833 0 3.00659 1 0 4.53999e-06 -0.339723
6301 1 59.1506 12.8624 -53.9911 0 3.11839 1 0 4.53999e-06 -0.0889994
4516 1 59.6575 12.5371 -54.632 0 3.24248 1 0 4.53999e-06 0.813973
3873 1 60.709 12.4565 -54.0943 0 3.56382 2 0 4.53999e-06 0.994129
8546 1 59.9912 12.8832 -53.9119 0 3.25305 1 0 4.53999e-06 0.800744
8944 1 60.291 13.1579 -54.8243 0 3.56292 2 0 4.53999e-06 0.725079
8547 1 59.2459 13.3608 -54.8872 0 3.20294 1 0 4.53999e-06 0.00581831
9122 1 59.6801 13.8264 -54.1208 0 3.19599 2 0 4.53999e-06 0.11145
1255 1 58.6801 11.6093 -52.9997 0 3.00348 1 0 4.53999e-06 -0.493195
1685 1 57.8519 11.4358 -51.7677 0 2.85774 2 0 4.53999e-06 -0.711792
4229 1 58.7872 11.0132 -52.2004 0 2.95895 2 0 4.53999e-06 -0.00123235
3521 1 58.6976 11.8268 -51.7401 0 2.94028 1 0 4.53999e-06 0.15447
6905 1 57.979 12.0443 -52.6184 0 2.907 1 0 4.53999e-06 -0.940762
4591 1 59.7022 11.2646 -52.9257 0 3.29246 2 0 4.53999e-06 0.572761
1923 1 59.2496 11.8266 -52.3956 0 3.03682 1 0 4.53999e-06 0.52854
9331 1 60.0012 12.2015 -52.5212 0 3.16052 1 0 4.53999e-06 0.847181
6450 1 57.2177 12.5371 -53.2683 0 2.82712 2 0 4.53999e-06 -0.974647
6590 1 58.9428 12.3168 -53.134 0 3.04223 1 0 4.53999e-06 -0.7462
7374 1 58.5085 12.4963 -52.1576 0 2.93863 1 0 4.53999e-06 -0.857071
6605 1 58.9818 12.961 -52.6488 0 3.01094 1 0 4.53999e-06 -0.0590244
6240 1 57.9277 13.0711 -52.7252 0 2.89131 2 0 4.53999e-06 -0.731139
9429 1 58.386 13.354 -51.892 0 2.88988 2 0 4.53999e-06 -0.289299
6972 1 59.585 12.4849 -53.3203 0 3.14619 1 0 4.53999e-06 0.913086
9168 1 60.4458 13.4272 -53.3505 0 3.54224 2 0 4.53999e-06 0.691961
8447 1 59.3078 12.5307 -51.9253 0 3.03902 1 0 4.53999e-06 0.780974
8989 1 60.7331 12.5618 -52.9983 0 3.53998 2 0 4.53999e-06 0.952115
9169 1 59.9657 13.1369 -52.4261 0 3.35803 2 0 4.53999e-06 0.623473
7662 1 59.4862 13.4077 -53.2285 0 3.12926 2 0 4.53999e-06 0.0915849
2452 1 56.96 11.5674 -50.1629 0 2.76116 2 0 4.53999e-06 -0.738622
4326 1 58.4523 11.2169 -51.02 0 2.88314 2 0 4.53999e-06 0.14236
1569 1 57.7736 11.8459 -50.7163 0 2.83371 1 0 4.53999e-06 -0.606051
1259 1 57.8788 11.075 -50.1005 0 2.80312 2 0 4.53999e-06 0.0229238
4331 1 58.8365 11.7212 -50.2885 0 3.10339 2 0 4.53999e-06 0.758999
1563 1 58.5711 12.1288 -50.9819 0 2.90988 1 0 4.53999e-06 0.858461
4515 1 59.507 11.8401 -51.1832 0 3.23593 2 0 4.53999e-06 0.789221
6513 1 57.0634 12.5383 -50.5786 0 2.77803 2 0 4.53999e-06 -0.851996
6907 1 57.9079 12.3302 -51.522 0 2.86006 1 0 4.53999e-06 -0.938699
7559 1 57.7267 13.1059 -51.1418 0 2.81776 2 0 4.53999e-06 -0.538154
2548 1 57.9841 12.5865 -50.5201 0 2.84529 1 0 4.53999e-06 0.0649789
7554 1 58.6923 12.8904 -51.139 0 2.90811 1 0 4.53999e-06 0.370614
9224 1 58.6764 12.6908 -50.0682 0 3.07414 2 0 4.53999e-06 0.789882
8945 1 57.6178 13.2186 -50.0704 0 2.80502 2 0 4.53999e-06 -0.0722755
9123 1 59.3546 13.3535 -51.5866 0 2.99679 2 0 4.53999e-06 0.359863
3872 1 60.136 12.6589 -51.3642 0 3.41766 2 0 4.53999e-06 0.819317
4419 1 56.8496 11.9865 -48.3442 0 2.77824 2 0 4.53999e-06 0.055325
2201 1 56.665 12.1476 -49.1755 0 2.76371 2 0 4.53999e-06 -0.861914
1198 1 58.088 11.9382 -49.9219 0 2.90026 2 0 4.53999e-06 0.658146
4330 1 57.4173 11.5792 -49.2918 0 2.80242 2 0 4.53999e-06 -0.0299075
4228 1 57.7487 11.8545 -48.5134 0 3.04234 2 0 4.53999e-06 0.607429
6031 1 56.9544 12.9105 -49.5142 0 2.78107 2 0 4.53999e-06 -0.68741
2154 1 56.1588 12.4567 -48.3209 0 2.70639 2 0 4.53999e-06 -0.638249
9223 1 56.7531 13.0759 -48.5471 0 2.77685 2 0 4.53999e-06 -0.28309
1567 1 57.2859 12.4747 -48.9157 0 2.82075 2 0 4.53999e-06 0.426091
1566 1 57.3731 12.2352 -49.8562 0 2.80682 2 0 4.53999e-06 -0.896812
6303 1 57.8395 12.6011 -49.5328 0 2.9155 2 0 4.53999e-06 0.780354
4549 1 58.0133 12.6873 -48.7151 0 3.04754 2 0 4.53999e-06 0.870047
8600 1 57.5428 13.4367 -48.9512 0 2.82031 2 0 4.53999e-06 0.264609
1681 1 53.5192 11.8981 -46.8509 0 2.41232 2 0 4.54003e-06 -0.511297
1688 1 55.2454 11.9608 -48.0477 0 2.57157 2 0 4.54e-06 -0.558233
1313 1 55.1911 11.4998 -47.0769 0 2.52023 2 0 4.54e-06 -0.109266
1011 1 56.0831 11.6403 -47.9716 0 2.66139 2 0 4.54e-06 -0.0811672
4328 1 56.6876 11.9442 -47.3561 0 2.87576 2 0 4.53999e-06 0.549791
1257 1 55.6967 12.1322 -47.2654 0 2.60742 2 0 4.54e-06 0.140186
6237 1 53.1323 13.1312 -46.9114 0 2.42466 2 0 4.54002e-06 -0.537614
7377 1 55.252 12.8098 -47.8215 0 2.57805 2 0 4.54e-06 -0.585893
2202 1 54.7849 12.2668 -47.2212 0 2.50769 2 0 4.54001e-06 -0.606408
7151 1 54.0344 12.7748 -46.7615 0 2.44638 2 0 4.54002e-06 -0.442166
7472 1 54.8733 12.9195 -46.8463 0 2.5029 2 0 4.54001e-06 -0.140632
6242 1 54.3205 13.6166 -46.8537 0 2.45291 2 0 4.54002e-06 -0.0791638
7558 1 55.6227 13.1706 -47.1449 0 2.59186 2 0 4.54e-06 0.0821432
6243 1 55.9965 13.306 -48.0441 0 2.66885 2 0 4.54e-06 -0.299909
4551 1 57.1919 12.6226 -48.0018 0 2.97434 2 0 4.53999e-06 0.746208
1467 1 56.3469 12.644 -47.6094 0 2.83524 2 0 4.53999e-06 0.69822
4232 1 56.1405 12.5816 -46.7671 0 2.80558 2 0 4.53999e-06 0.624421
3641 1 56.5417 13.3836 -47.2731 0 2.71989 2 0 4.53999e-06 0.372392
3876 1 57.4768 13.3409 -47.5581 0 3.16384 2 0 4.53999e-06 0.661189
4631 1 53.9782 11.9866 -45.475 0 2.42333 2 0 4.54002e-06 0.161057
1684 1 52.9017 12.1745 -45.5895 0 2.44132 2 0 4.54002e-06 -0.433253
3422 1 54.4392 11.8755 -46.5157 0 2.45718 2 0 4.54001e-06 -0.174933
3966 1 55.4663 11.8877 -46.2473 0 2.51925 2 0 4.54e-06 0.377654
7553 1 51.6811 13.3825 -45.1109 0 2.54048 2 0 4.54e-06 -0.268604
7150 1 52.1235 13.4516 -45.9785 0 2.47606 2 0 4.54001e-06 -0.582433
7475 1 53.0246 12.9315 -46.0638 0 2.44667 2 0 4.54002e-06 -0.827268
2208 1 53.6854 12.4687 -46.1239 0 2.43549 2 0 4.54002e-06 -0.399451
9126 1 53.5393 13.6467 -46.2598 0 2.44191 2 0 4.54002e-06 -0.145936
9172 1 52.9196 13.5579 -45.5337 0 2.4852 2 0 4.54001e-06 -0.0449716
956 1 53.5299 12.8658 -45.3273 0 2.45447 2 0 4.54001e-06 0.274291
2655 1 52.4628 12.9369 -45.2642 0 2.506 2 0 4.54001e-06 -0.339565
8943 1 53.7738 13.7278 -45.3347 0 2.46727 2 0 4.54001e-06 0.400089
4416 1 54.6093 12.5371 -46.1018 0 2.46346 2 0 4.54001e-06 0.389161
904 1 55.4228 12.7976 -46.2903 0 2.64965 2 0 4.54e-06 0.518913
9120 1 55.1434 13.7523 -46.3055 0 2.47873 2 0 4.54001e-06 0.36937
7657 1 54.242 13.2338 -45.9686 0 2.4492 2 0 4.54002e-06 0.450375
8898 1 52.0571 14.1154 -44.9785 0 2.54913 2 0 4.54e-06 0.372311
6591 1 48.4036 13.705 -43.1969 0 2.42803 2 0 4.54002e-06 -0.847735
2597 1 49.0953 13.5364 -43.9475 0 2.42171 2 0 4.54002e-06 -0.762888
2205 1 49.992 13.4988 -44.3135 0 2.47015 2 0 4.54001e-06 -0.340709
1683 1 49.6346 12.8676 -43.7656 0 2.42966 2 0 4.54002e-06 -0.237007
953 1 49.7697 13.7656 -43.6898 0 2.45534 2 0 4.54001e-06 -0.737897
4633 1 50.4481 13.194 -43.8338 0 2.49367 2 0 4.54001e-06 0.291168
4121 1 50.5921 13.8887 -43.457 0 2.62957 2 0 4.54e-06 0.613233
1929 1 50.8199 13.2248 -44.658 0 2.52291 2 0 4.54e-06 -0.0913532
1056 1 51.6288 12.5926 -44.7998 0 2.52105 2 0 4.54e-06 -0.132734
9227 1 50.9757 13.6609 -44.0678 0 2.66164 2 0 4.54e-06 0.822266
4590 1 51.7613 13.3845 -44.2182 0 2.75745 2 0 4.53999e-06 0.61355
3640 1 52.6349 13.5051 -44.6328 0 2.76935 2 0 4.53999e-06 0.538075
6512 1 48.5246 14.5574 -43.2725 0 2.42405 2 0 4.54002e-06 -0.517952
6509 1 49.532 14.1797 -44.401 0 2.442 2 0 4.54002e-06 -0.58426
6968 1 50.4026 13.9894 -44.7476 0 2.49541 2 0 4.54001e-06 -0.201252
1197 1 49.2024 14.1911 -43.5429 0 2.42864 2 0 4.54002e-06 -0.771655
7658 1 49.7621 14.7079 -43.8112 0 2.44661 2 0 4.54002e-06 -0.256292
6305 1 50.3021 14.2115 -44.1158 0 2.49184 2 0 4.54001e-06 0.0776161
3281 1 50.5845 14.6487 -43.6411 0 2.49475 2 0 4.54001e-06 0.397056
8544 1 51.1778 13.9851 -44.8398 0 2.53879 2 0 4.54e-06 0.240095
8686 1 50.6352 14.9312 -44.661 0 2.48577 2 0 4.54001e-06 0.080993
8595 1 51.203 14.3475 -44.148 0 2.6997 2 0 4.53999e-06 0.725351
3523 1 48.1123 13.7061 -42.2358 0 2.55532 2 0 4.54e-06 0.114988
1258 1 49.2038 13.357 -43.0796 0 2.42136 2 0 4.54002e-06 -0.338448
3922 1 50.0203 13.4265 -43.1358 0 2.4539 2 0 4.54002e-06 0.243352
6694 1 46.3906 14.7317 -41.8981 0 2.70249 2 0 4.53999e-06 -0.389671
2652 1 46.1801 13.9877 -41.465 0 2.75479 2 0 4.53999e-06 -0.231261
8543 1 47.1149 14.0439 -42.0991 0 2.67681 2 0 4.54e-06 -0.171317
6455 1 47.2432 14.6286 -43.1286 0 2.48017 2 0 4.54001e-06 -0.540412
8838 1 47.3298 14.8813 -41.8396 0 2.68026 2 0 4.54e-06 0.287579
9170 1 48.0312 14.5561 -42.4539 0 2.53354 2 0 4.54e-06 0.250515
1565 1 49.0986 14.1203 -42.7087 0 2.42954 2 0 4.54002e-06 -0.00921066
3643 1 49.9131 14.2652 -43.1118 0 2.44988 2 0 4.54002e-06 0.16922
2199 1 45.2384 13.4566 -40.647 0 2.69007 2 0 4.54e-06 -0.482086
1260 1 44.5487 13.7731 -39.9144 0 2.63349 2 0 4.54e-06 -0.891772
1261 1 45.4256 13.8212 -40.1336 0 2.7099 2 0 4.53999e-06 -0.337603
2449 1 46.1092 13.3283 -40.8767 0 2.74971 2 0 4.53999e-06 0.182158
4593 1 46.982 13.6743 -41.2132 0 2.97569 2 0 4.53999e-06 0.606528
4225 1 46.0909 13.5661 -40.0395 0 2.88756 2 0 4.53999e-06 0.611016
6974 1 45.0288 14.3886 -40.6051 0 2.68614 2 0 4.54e-06 -0.711028
7149 1 44.4525 14.889 -39.8198 0 2.61406 2 0 4.54e-06 -0.717904
6302 1 45.056 14.2936 -39.8525 0 2.68048 2 0 4.54e-06 -0.890222
6906 1 45.4482 14.9565 -40.1449 0 2.71825 2 0 4.53999e-06 -0.133908
2152 1 45.6861 14.0505 -40.8112 0 2.74162 2 0 4.53999e-06 -0.368602
7656 1 45.8519 14.7027 -40.9762 0 2.75073 2 0 4.53999e-06 -0.197879
8946 1 46.7703 14.5089 -41.1247 0 2.94172 2 0 4.53999e-06 0.730788
9226 1 45.8933 14.3689 -39.9552 0 2.8683 2 0 4.53999e-06 0.70218
4124 1 46.3935 14.0381 -40.5684 0 2.91553 2 0 4.53999e-06 0.955587
8897 1 46.3143 14.7695 -40.3601 0 2.94214 2 0 4.53999e-06 0.620318
3874 1 47.7993 14.2116 -41.347 0 2.98795 2 0 4.53999e-06 0.80378
1256 1 45.2551 13.2312 -39.6839 0 2.66041 2 0 4.54e-06 -0.123201
4418 1 44.8801 13.7606 -39.01 0 2.63085 2 0 4.54e-06 -0.233751
6606 1 44.1774 14.3289 -39.0574 0 2.60137 2 0 4.54e-06 -0.975552
8497 1 45.2286 14.6128 -39.2784 0 2.68021 2 0 4.54e-06 -0.0099667
8270 1 44.8084 14.4536 -38.3024 0 2.63956 2 0 4.54e-06 0.334353
4424 1 45.6541 13.9567 -39.3889 0 2.70507 2 0 4.53999e-06 0.450954
8317 1 46.1901 15.0321 -39.2099 0 3.05251 2 0 4.53999e-06 0.547458
2456 1 42.0316 13.8161 -36.7789 0 2.72116 2 0 4.53999e-06 -0.586292
8444 1 42.9114 13.6955 -36.7978 0 2.77445 2 0 4.53999e-06 0.240509
8450 1 44.0038 13.8044 -37.8165 0 2.66013 2 0 4.54e-06 0.410136
6508 1 42.9419 14.0821 -37.6901 0 2.68604 2 0 4.54e-06 -0.376298
6452 1 43.7615 14.7048 -38.0107 0 2.63709 2 0 4.54e-06 -0.157093
9128 1 42.6909 14.5955 -36.8356 0 2.75786 2 0 4.53999e-06 -0.103237
8500 1 43.5602 14.2832 -36.968 0 2.98063 2 0 4.53999e-06 0.892367
2458 1 41.8417 13.7549 -35.8646 0 2.74393 2 0 4.53999e-06 -0.743261
9427 1 41.3425 13.6299 -35.0222 0 2.71728 2 0 4.53999e-06 -0.845641
2600 1 42.3968 13.1995 -36.1663 0 2.76217 2 0 4.53999e-06 -0.0959841
4324 1 42.9142 13.3253 -35.5162 0 2.96322 2 0 4.53999e-06 0.588448
4415 1 42.1839 13.5669 -35.3531 0 2.76769 2 0 4.53999e-06 -0.0853043
1691 1 43.5282 13.6537 -36.1792 0 3.02338 2 0 4.53999e-06 0.891694
3967 1 42.5525 13.8801 -34.8839 0 2.90399 2 0 4.53999e-06 0.70431
6185 1 41.0768 14.4149 -35.5382 0 2.69417 2 0 4.53999e-06 -0.927907
6241 1 42.0278 14.4261 -36.1908 0 2.74391 2 0 4.53999e-06 -0.537874
8738 1 41.978 14.275 -35.5405 0 2.75402 1 0 4.53999e-06 -0.731037
8990 1 41.8144 14.1827 -34.9261 0 2.74747 2 0 4.53999e-06 -0.725171
3220 1 41.7879 15.0363 -35.2326 0 2.72878 2 0 4.53999e-06 -0.288196
8263 1 42.5895 13.9515 -36.128 0 2.78678 2 0 4.53999e-06 0.373446
8314 1 42.6583 14.7106 -35.9371 0 2.78156 2 0 4.53999e-06 0.296621
3970 1 42.9106 14.0688 -35.6088 0 2.92528 2 0 4.53999e-06 0.945727
3217 1 43.5255 14.6268 -36.0952 0 3.04397 2 0 4.53999e-06 0.803936
8316 1 42.4534 14.47 -35.2253 0 2.77683 1 0 4.53999e-06 0.525393
2212 1 42.0051 13.1967 -34.5859 0 2.73055 2 0 4.53999e-06 0.0543058
1973 1 41.745 12.7686 -33.5983 0 2.66095 2 0 4.54e-06 0.156173
8442 1 41.3464 13.67 -33.959 0 2.71959 2 0 4.53999e-06 -0.850126
5920 1 40.8561 13.3176 -32.9768 0 2.67081 2 0 4.54e-06 -0.827523
4333 1 41.8239 13.602 -32.969 0 2.95757 2 0 4.53999e-06 0.877667
7660 1 41.3022 14.5623 -34.4275 0 2.72438 2 0 4.53999e-06 -0.748373
4116 1 42.0506 13.9934 -34.2644 0 2.75373 2 0 4.53999e-06 0.374826
3692 1 41.711 14.4296 -33.4696 0 2.76524 2 0 4.53999e-06 0.100873
3207 1 42.3058 14.8402 -34.3909 0 2.82045 2 0 4.53999e-06 0.4057
6458 1 40.5438 13.0827 -31.9158 0 2.60078 2 0 4.54e-06 -0.718214
2022 1 41.8109 13.212 -31.8685 0 2.72284 2 0 4.53999e-06 0.459332
8213 1 41.1501 13.7457 -31.7423 0 2.70425 2 0 4.53999e-06 -0.706484
7653 1 41.2008 14.1304 -32.5433 0 2.7406 2 0 4.53999e-06 -0.652885
3212 1 41.6888 14.9358 -32.3158 0 2.80029 2 0 4.53999e-06 0.206563
4231 1 41.9311 14.1255 -31.9057 0 2.93871 2 0 4.53999e-06 0.8209
8269 1 41.0378 14.591 -31.5827 0 2.71472 2 0 4.53999e-06 -0.634692
6182 1 40.3983 13.5233 -29.9794 0 2.57636 2 0 4.54e-06 -0.917538
6033 1 41.1787 13.315 -30.551 0 2.65924 2 0 4.54e-06 -0.378422
9225 1 41.6019 13.7983 -31.0359 0 2.72565 2 0 4.53999e-06 0.23814
1789 1 42.1053 13.2446 -30.5043 0 2.76604 2 0 4.53999e-06 0.514912
5917 1 40.649 13.788 -31.0399 0 2.64551 2 0 4.54e-06 -0.981789
6515 1 41.4471 13.4056 -29.7489 0 2.66875 2 0 4.54e-06 -0.132766
1057 1 42.4185 13.5384 -29.5599 0 2.95255 2 0 4.53999e-06 0.726177
9125 1 41.0987 14.3504 -30.6427 0 2.69292 2 0 4.53999e-06 -0.844238
8684 1 41.7972 14.6036 -31.1267 0 2.76219 2 0 4.53999e-06 0.350484
8102 1 41.5455 15.0596 -30.4176 0 2.72968 2 0 4.53999e-06 -0.130737
8948 1 41.3905 14.1849 -29.9875 0 2.70365 1 0 4.53999e-06 -0.958376
3514 1 42.0099 14.0567 -30.2431 0 2.75719 1 0 4.53999e-06 0.969499
8267 1 41.0487 14.921 -29.6531 0 2.67482 2 0 4.54e-06 -0.647978
3920 1 41.9945 14.8153 -29.6956 0 2.82825 2 0 4.53999e-06 0.450862
1013 1 42.4085 13.9587 -31.0699 0 2.96443 2 0 4.53999e-06 0.937149
3740 1 42.4504 14.7214 -30.4709 0 2.99307 2 0 4.53999e-06 0.802095
7106 1 41.0307 13.4001 -28.774 0 2.59381 2 0 4.54e-06 -0.499045
2102 1 41.6799 13.7758 -28.1692 0 2.67147 2 0 4.54e-06 0.0260488
7661 1 40.8909 14.1288 -29.3108 0 2.64175 2 0 4.54e-06 -0.952406
1974 1 42.1632 14.2694 -28.6999 0 2.90476 2 0 4.53999e-06 0.912661
8596 1 41.7184 14.0017 -29.2566 0 2.71732 2 0 4.53999e-06 0.26494
8315 1 41.6058 14.8349 -28.9702 0 2.72001 2 0 4.53999e-06 -0.13926
8268 1 41.227 14.4213 -28.3748 0 2.66839 2 0 4.54e-06 -0.91214
3423 1 42.0636 14.9749 -28.1407 0 2.91916 2 0 4.53999e-06 0.534092
4014 1 42.7128 14.4334 -29.446 0 3.01921 2 0 4.53999e-06 0.969915
5918 1 41.0958 14.0688 -26.7461 0 2.57692 2 0 4.54e-06 -0.722777
9425 1 41.3759 14.7604 -26.2469 0 2.62513 2 0 4.54e-06 -0.87849
4230 1 41.5928 14.5066 -27.2495 0 2.67096 2 0 4.54e-06 -0.703042
1925 1 42.0167 14.3885 -26.5271 0 2.73071 2 0 4.53999e-06 0.567708
8264 1 41.3333 15.1198 -27.6839 0 2.66394 2 0 4.54e-06 -0.661717
3642 1 41.7426 15.2775 -26.7879 0 2.68887 2 0 4.54e-06 -0.168488
4321 1 42.2255 14.2905 -27.6654 0 2.90039 2 0 4.53999e-06 0.839453
4673 1 42.604 15.0143 -27.0952 0 2.96246 2 0 4.53999e-06 0.925011
6689 1 41.5382 13.8219 -25.9533 0 2.57183 2 0 4.54e-06 -0.114474
6188 1 40.7935 14.2485 -25.705 0 2.53004 2 0 4.54e-06 -0.931117
8899 1 41.585 14.1141 -24.9869 0 2.57928 2 0 4.54e-06 -0.0874682
8837 1 41.1165 14.7439 -25.0528 0 2.57787 1 0 4.54e-06 -0.99876
3517 1 41.923 14.6961 -24.7079 0 2.647 1 0 4.54e-06 0.635503
909 1 41.7414 14.5998 -25.565 0 2.63789 1 0 4.54e-06 -0.0571166
8101 1 41.3966 15.2737 -25.6885 0 2.6421 1 0 4.54e-06 -0.750941
3923 1 41.9184 15.5369 -25.2897 0 2.71778 1 0 4.53999e-06 0.0375993
8056 1 41.2235 15.4541 -24.7299 0 2.61066 2 0 4.54e-06 -0.754395
1687 1 42.2871 14.1578 -25.6667 0 2.76773 2 0 4.53999e-06 0.666456
4634 1 42.2614 15.0024 -26.0849 0 2.70878 1 0 4.53999e-06 0.893339
3737 1 42.6453 15.4164 -25.5281 0 2.95188 2 0 4.53999e-06 0.923976
3793 1 42.6323 14.644 -25.1158 0 2.87744 2 0 4.53999e-06 0.9332
3921 1 42.3476 15.2662 -24.6387 0 2.86284 2 0 4.53999e-06 0.897447
6687 1 40.982 13.7396 -24.3509 0 2.47426 2 0 4.54001e-06 -0.515594
6244 1 41.3366 13.7818 -22.8975 0 2.47203 2 0 4.54001e-06 -0.181176
5809 1 40.6164 14.262 -23.3916 0 2.4412 2 0 4.54002e-06 -0.979118
8743 1 41.5449 14.6443 -23.3972 0 2.55965 2 0 4.54e-06 -0.873333
9426 1 41.096 14.6619 -24.1864 0 2.54203 2 0 4.54e-06 -0.974444
9326 1 41.7423 15.1254 -24.0584 0 2.63022 1 0 4.54e-06 -0.196064
2555 1 41.8161 14.1747 -24.0548 0 2.57033 2 0 4.54e-06 0.359113
3218 1 41.6949 15.4217 -23.1603 0 2.59622 2 0 4.54e-06 -0.277485
3969 1 42.3095 14.735 -23.513 0 2.77252 2 0 4.53999e-06 0.96006
3371 1 42.5174 15.5923 -23.6764 0 2.93585 2 0 4.53999e-06 0.740462
7375 1 40.4798 13.7191 -21.6328 0 2.37598 2 0 4.54004e-06 -0.701525
1930 1 42.0327 13.826 -21.3208 0 2.54246 1 0 4.54e-06 0.168144
8839 1 40.6681 14.4286 -22.2535 0 2.43031 2 0 4.54002e-06 -0.980691
8597 1 41.3826 14.8532 -22.3577 0 2.52218 2 0 4.54e-06 -0.77065
4233 1 41.9007 14.5134 -22.6768 0 2.57865 2 0 4.54e-06 0.492523
8900 1 41.0879 14.6843 -21.2683 0 2.45576 1 0 4.54001e-06 -0.879571
1868 1 41.5061 14.1517 -21.8867 0 2.50767 1 0 4.54001e-06 -0.378282
8265 1 41.6066 15.2863 -21.6908 0 2.53962 2 0 4.54e-06 -0.37459
4332 1 42.4384 14.1347 -22.3132 0 2.78541 2 0 4.53999e-06 0.618829
4131 1 42.2216 15.2364 -22.4195 0 2.68605 2 0 4.54e-06 0.451185
3789 1 42.9356 14.8832 -22.0509 0 2.89194 2 0 4.53999e-06 0.922337
4017 1 42.8845 14.067 -21.5163 0 2.82367 2 0 4.53999e-06 0.822737
4589 1 42.2591 14.7078 -21.646 0 2.61183 1 0 4.54e-06 0.872733
3691 1 42.8331 15.1426 -21.0541 0 2.85791 2 0 4.53999e-06 0.835709
9173 1 40.4225 13.9167 -19.9118 0 2.34718 2 0 4.54006e-06 -0.720732
7473 1 39.4812 13.6221 -19.5539 0 2.27733 2 0 4.54012e-06 -0.601619
1012 1 42.1718 13.5559 -20.0809 0 2.50397 1 0 4.54001e-06 0.143734
1146 1 41.1761 13.3591 -19.7097 0 2.38417 2 0 4.54004e-06 -0.367748
3335 1 42.9306 13.1218 -20.0037 0 2.58456 2 0 4.54e-06 0.559177
1309 1 42.3097 12.5278 -19.3533 0 2.41632 2 0 4.54003e-06 -0.168406
6181 1 39.1029 14.2387 -20.4395 0 2.26366 2 0 4.54014e-06 -0.844909
5815 1 40.2311 14.4007 -20.6984 0 2.34379 2 0 4.54006e-06 -0.921894
6037 1 41.112 13.9371 -20.971 0 2.44033 1 0 4.54002e-06 -0.570726
1568 1 41.696 13.9852 -20.504 0 2.4826 1 0 4.54001e-06 -0.211696
3871 1 41.8328 14.7152 -21.0102 0 2.53444 1 0 4.54e-06 -0.337922
9424 1 41.8293 14.9628 -20.2518 0 2.53638 1 0 4.54e-06 -0.303589
8545 1 41.2897 14.2207 -19.8226 0 2.43366 1 0 4.54002e-06 -0.928827
8645 1 41.0664 14.8545 -20.3228 0 2.44544 1 0 4.54002e-06 -0.720287
8216 1 40.6784 14.8478 -19.4199 0 2.36526 1 0 4.54005e-06 -0.608061
8058 1 41.7043 15.4834 -19.5962 0 2.52584 1 0 4.54e-06 -0.36145
4414 1 42.6344 14.1418 -20.6794 0 2.5934 1 0 4.54e-06 0.842812
4592 1 42.4869 14.7443 -20.2297 0 2.60915 1 0 4.54e-06 0.910122
3690 1 43.1901 15.2033 -20.0534 0 2.95304 2 0 4.53999e-06 0.896534
8445 1 42.2433 14.2 -19.7119 0 2.52939 1 0 4.54e-06 0.769015
4517 1 42.4596 14.9275 -19.3668 0 2.6101 1 0 4.54e-06 0.558423
3924 1 43.3067 14.5317 -19.4124 0 2.89049 2 0 4.53999e-06 0.968271
4068 1 42.4186 11.6433 -17.8631 0 2.3449 2 0 4.54006e-06 -0.0105137
6463 1 39.0696 13.8815 -18.5381 0 2.25479 2 0 4.54015e-06 -0.456469
6587 1 40.2778 13.5981 -18.9454 0 2.30711 2 0 4.54009e-06 -0.276922
1698 1 42.0693 12.9402 -18.4668 0 2.43189 1 0 4.54002e-06 -0.572525
2550 1 41.5489 13.6724 -18.9256 0 2.42366 1 0 4.54002e-06 -0.55867
1203 1 42.1103 13.7362 -18.0697 0 2.46206 1 0 4.54001e-06 -0.961532
905 1 41.2662 13.9159 -18.0075 0 2.36872 1 0 4.54004e-06 -0.683992
4632 1 42.1047 12.4616 -17.6747 0 2.38847 1 0 4.54004e-06 -0.536393
4016 1 42.9056 12.2541 -18.3435 0 2.44733 2 0 4.54002e-06 0.438336
4334 1 43.0545 12.961 -17.8233 0 2.54319 1 0 4.54e-06 0.813513
4677 1 43.029 12.999 -18.8228 0 2.69342 2 0 4.53999e-06 0.694149
1927 1 42.3706 13.543 -19.1503 0 2.51416 1 0 4.54001e-06 0.175417
3515 1 42.899 13.729 -18.259 0 2.58277 1 0 4.54e-06 0.986417
3971 1 43.2866 13.7211 -19.2416 0 2.81597 2 0 4.53999e-06 0.904738
3282 1 43.7454 13.8005 -17.9322 0 2.92063 2 0 4.53999e-06 0.99779
6183 1 38.0368 14.1738 -18.4779 0 2.24612 2 0 4.54017e-06 -0.711607
5813 1 38.9603 14.7816 -18.5478 0 2.25335 2 0 4.54016e-06 -0.470927
8845 1 39.835 14.4668 -19.132 0 2.29141 2 0 4.5401e-06 -0.615047
8552 1 39.8836 14.0878 -18.1861 0 2.27219 1 0 4.54013e-06 -0.0758979
8503 1 39.2098 14.5196 -17.63 0 2.2432 1 0 4.54017e-06 -0.648593
6034 1 40.4498 14.3861 -17.6318 0 2.2895 1 0 4.54011e-06 -0.0851063
8266 1 39.8215 15.0561 -18.2139 0 2.27067 2 0 4.54013e-06 -0.11179
8835 1 39.0958 15.3554 -17.6799 0 2.24303 2 0 4.54017e-06 -0.264089
9325 1 40.8293 14.1862 -18.7393 0 2.35264 1 0 4.54005e-06 -0.69458
8646 1 40.6738 14.9621 -18.3107 0 2.32774 1 0 4.54007e-06 -0.253962