ITEM: TIMESTEP
38500
ITEM: NUMBER OF ATOMS
9495
ITEM: BOX BOUNDS mm mm mm
0.0000000000000000e+00 6.3609964333751151e+01
-3.3586294643653005e+00 3.4743277734548109e+01
-7.5810412600183824e+01 3.1748021039364001e+01
ITEM: ATOMS id type x y z c_phase c_temp c_surf c_nbond c_visc f_3[1]
2454 1 54.1671 13.64 -74.8088 0 3.29766 2 0 4.53999e-06 -0.929905
2453 1 54.0169 13.6563 -75.867 0 3.26572 2 0 4.53999e-06 -0.693409
2149 1 54.772 12.8664 -75.3337 0 3.32498 2 0 4.53999e-06 -0.512296
2101 1 55.1171 13.319 -74.5701 0 3.36275 2 0 4.53999e-06 -0.796627
1924 1 55.4322 12.2122 -74.7285 0 3.37824 2 0 4.53999e-06 -0.410319
1560 1 55.8049 12.9155 -75.5644 0 3.39118 2 0 4.53999e-06 0.128115
1561 1 56.4669 12.3834 -74.8883 0 3.46746 2 0 4.53999e-06 0.263435
1920 1 54.9752 13.8172 -75.5592 0 3.3259 2 0 4.53999e-06 -0.136311
1143 1 55.8279 13.8446 -75.1127 0 3.41111 2 0 4.53999e-06 0.136041
1196 1 56.6676 13.4544 -75.121 0 3.5351 2 0 4.53999e-06 0.328297
3628 1 57.3114 13.0058 -74.5692 0 3.66593 2 0 4.53999e-06 0.480936
4522 1 58.2529 13.4335 -74.4719 0 4.06439 2 0 4.53999e-06 0.734592
2099 1 51.8676 15.4352 -75.2299 0 2.96229 3 0 4.53999e-06 -0.953403
2100 1 54.1612 14.7847 -75.5686 0 3.26516 2 0 4.53999e-06 -0.603326
1865 1 54.7937 14.3877 -74.7179 0 3.32916 2 0 4.53999e-06 -0.868233
1464 1 55.3918 14.7273 -75.4366 0 3.34945 2 0 4.53999e-06 0.0156261
1142 1 55.8113 14.6782 -74.5798 0 3.40457 2 0 4.53999e-06 -0.0119569
8451 1 56.4969 14.0698 -74.2892 0 3.50562 1 0 4.53999e-06 0.27799
4521 1 56.6247 14.6161 -75.4039 0 3.51448 2 0 4.53999e-06 0.282
4544 1 57.4969 14.0188 -75.0035 0 3.94534 2 0 4.53999e-06 0.521525
9332 1 56.8237 15.1236 -74.3963 0 3.53629 2 0 4.53999e-06 0.222963
4109 1 57.8224 14.7267 -74.3763 0 3.97226 2 0 4.53999e-06 0.619642
2150 1 56.0076 11.8025 -73.7709 0 3.404 2 0 4.53999e-06 -0.280955
1562 1 57.0566 12.0061 -73.089 0 3.45372 2 0 4.53999e-06 -0.06047
3630 1 58.8669 12.1084 -72.6962 0 3.50058 2 0 4.53999e-06 0.277676
2503 1 55.4299 12.7531 -73.8347 0 3.39482 2 0 4.53999e-06 -0.715562
2460 1 55.5855 13.5847 -73.2903 0 3.40092 2 0 4.53999e-06 -0.657644
2105 1 56.2537 12.8091 -73.2412 0 3.44768 2 0 4.53999e-06 -0.535288
900 1 56.2408 13.1531 -74.2309 0 3.46857 1 0 4.53999e-06 -0.247334
3632 1 56.4345 13.8134 -73.2889 0 3.46965 1 0 4.53999e-06 -0.449505
1921 1 56.8905 12.4647 -73.9183 0 3.51324 2 0 4.53999e-06 0.242017
1149 1 57.1405 13.3171 -73.272 0 3.54395 1 0 4.53999e-06 0.0149815
1201 1 57.8233 12.9602 -73.6518 0 3.80234 2 0 4.53999e-06 0.519511
4545 1 57.1693 13.6717 -74.009 0 3.61109 1 0 4.53999e-06 0.695257
2153 1 57.9168 12.4451 -72.7784 0 3.51297 2 0 4.53999e-06 0.0180463
9333 1 58.0005 13.5411 -72.87 0 3.60553 1 0 4.53999e-06 0.842419
4113 1 58.8019 13.0248 -73.5153 0 3.95492 2 0 4.53999e-06 0.690345
7200 1 53.9118 14.9853 -73.3603 0 3.22988 2 0 4.53999e-06 -0.90926
1870 1 54.8957 14.2791 -73.7371 0 3.34263 2 0 4.53999e-06 -0.929309
6299 1 54.7816 15.2252 -74.1625 0 3.3139 2 0 4.53999e-06 -0.548683
1465 1 55.3087 15.0312 -73.1783 0 3.34457 2 0 4.53999e-06 -0.268471
6588 1 54.9883 14.1598 -72.7123 0 3.33449 2 0 4.53999e-06 -0.641715
1469 1 55.6419 13.9138 -74.1132 0 3.40473 1 0 4.53999e-06 -0.973855
6032 1 56.014 14.3262 -72.6782 0 3.40233 2 0 4.53999e-06 -0.333109
6028 1 55.7927 15.4102 -74.0104 0 3.38071 2 0 4.53999e-06 0.0208067
906 1 56.1947 14.66 -73.5956 0 3.43795 1 0 4.53999e-06 -0.0120824
9330 1 57.2056 14.4331 -73.5837 0 3.58221 1 0 4.53999e-06 0.32518
8452 1 56.9553 14.6885 -72.7347 0 3.48531 2 0 4.53999e-06 -0.0609528
9219 1 57.6492 15.3179 -73.4837 0 3.60238 2 0 4.53999e-06 0.316663
4130 1 58.1299 14.0181 -73.7058 0 3.89868 2 0 4.53999e-06 0.819779
9222 1 58.0533 14.5511 -72.8558 0 3.59915 2 0 4.53999e-06 0.485272
4114 1 58.9257 13.9382 -72.9768 0 3.90262 2 0 4.53999e-06 0.710639
2151 1 57.5457 11.9214 -71.9577 0 3.37627 2 0 4.53999e-06 -0.571628
952 1 58.5776 11.5673 -71.7984 0 3.34505 2 0 4.53999e-06 -0.208621
4587 1 60.1116 11.6176 -71.4314 0 3.33509 2 0 4.53999e-06 0.3816
2551 1 56.8408 12.7154 -72.4386 0 3.44162 2 0 4.53999e-06 -0.618746
2104 1 57.5206 12.9926 -71.7963 0 3.42675 2 0 4.53999e-06 -0.623042
2457 1 56.99 13.6964 -72.4924 0 3.47147 1 0 4.53999e-06 -0.462806
3629 1 58.2642 13.5305 -71.9999 0 3.49922 1 0 4.53999e-06 -0.216832
6973 1 57.6501 13.8043 -71.0733 0 3.37247 2 0 4.53999e-06 -0.371807
1928 1 58.492 12.6408 -71.825 0 3.44013 1 0 4.53999e-06 -0.762669
3522 1 59.3646 12.2428 -71.8155 0 3.41987 2 0 4.53999e-06 0.259721
903 1 58.8374 13.0394 -72.5385 0 3.72012 2 0 4.53999e-06 0.596527
3631 1 59.4232 13.0844 -71.5574 0 3.45198 1 0 4.53999e-06 0.311603
7556 1 58.7405 13.578 -71.0952 0 3.39557 2 0 4.53999e-06 -0.47271
8992 1 59.8417 13.0274 -72.4387 0 3.79762 2 0 4.53999e-06 0.69863
9329 1 59.1722 13.7625 -72.0007 0 3.53556 2 0 4.53999e-06 0.300669
1866 1 58.9137 12.6562 -71.0054 0 3.35951 1 0 4.53999e-06 -0.871772
4125 1 60.1868 12.6486 -71.4914 0 3.57393 2 0 4.53999e-06 0.682382
9428 1 60.4119 13.8006 -71.801 0 3.8462 2 0 4.53999e-06 0.65948
6967 1 56.2409 14.1219 -71.5552 0 3.33385 2 0 4.53999e-06 -0.488477
7563 1 57.6031 14.2131 -72.0456 0 3.47055 2 0 4.53999e-06 -0.0408489
2547 1 57.9911 11.7435 -70.8731 0 3.26813 2 0 4.53999e-06 -0.706501
1195 1 59.672 10.7637 -69.7133 0 3.18714 2 0 4.53999e-06 -0.444954
1008 1 59.2366 10.9762 -70.6934 0 3.23259 2 0 4.53999e-06 -0.39646
1199 1 59.6033 11.7666 -69.7606 0 3.2494 2 0 4.53999e-06 -0.765512
1922 1 59.2012 11.8554 -70.9478 0 3.31195 2 0 4.53999e-06 -0.610638
3519 1 60.1624 11.4747 -70.4306 0 3.28442 2 0 4.53999e-06 0.0701692
4325 1 60.7246 10.9314 -69.7043 0 3.25824 2 0 4.53999e-06 0.132699
4520 1 61.0437 11.7403 -70.1278 0 3.35464 1 0 4.53999e-06 0.515601
954 1 60.5328 11.7913 -69.4385 0 3.28129 1 0 4.53999e-06 -0.381084
3870 1 62.0563 11.7022 -70.2523 0 3.80847 2 0 4.53999e-06 0.647832
7205 1 59.3086 12.5503 -70.0908 0 3.2823 1 0 4.53999e-06 -0.882774
1148 1 59.9143 12.2875 -70.7207 0 3.33982 1 0 4.53999e-06 -0.116188
1466 1 59.6769 13.0574 -70.7399 0 3.35867 1 0 4.53999e-06 -0.342437
6298 1 59.3385 13.6457 -70.017 0 3.28164 2 0 4.53999e-06 -0.488277
6608 1 60.07 12.9822 -69.9222 0 3.29912 1 0 4.53999e-06 -0.384134
1869 1 60.4204 12.3497 -70.0878 0 3.32316 1 0 4.53999e-06 0.320839
9220 1 61.2426 12.5357 -69.8921 0 3.38727 1 0 4.53999e-06 0.837378
4548 1 60.8681 12.301 -70.8679 0 3.54345 2 0 4.53999e-06 0.662842
9334 1 60.5068 13.1937 -70.7816 0 3.40568 1 0 4.53999e-06 0.571681
9218 1 61.4146 13.1273 -70.5046 0 3.64314 2 0 4.53999e-06 0.66074
7557 1 60.7358 13.5028 -69.8684 0 3.33591 2 0 4.53999e-06 0.180457
9171 1 61.5873 13.401 -69.3935 0 3.37254 2 0 4.53999e-06 0.46111
8739 1 62.3325 12.6787 -69.8499 0 3.80464 2 0 4.53999e-06 0.828491
8449 1 59.7455 14.0436 -70.9732 0 3.40425 2 0 4.53999e-06 0.103866
8448 1 61.3779 11.8934 -69.2196 0 3.35546 1 0 4.53999e-06 0.610842
1976 1 60.5217 11.3395 -68.6388 0 3.23321 2 0 4.53999e-06 -0.609747
955 1 61.2479 11.2974 -67.9163 0 3.25045 1 0 4.53999e-06 -0.585
4417 1 61.529 11.02 -68.9312 0 3.32745 2 0 4.53999e-06 0.180054
4518 1 61.7817 11.8774 -68.2615 0 3.33966 1 0 4.53999e-06 0.378383
4588 1 61.9456 10.7271 -67.9585 0 3.28897 2 0 4.53999e-06 0.146557
4227 1 62.9558 11.2018 -68.4263 0 3.82324 2 0 4.53999e-06 0.69193
4519 1 62.3195 11.7466 -69.0638 0 3.68429 2 0 4.53999e-06 0.728991
902 1 62.4989 12.1456 -67.8279 0 3.41561 1 0 4.53999e-06 0.811834
4546 1 63.3064 11.9595 -67.5518 0 3.71298 2 0 4.53999e-06 0.944913
7202 1 60.055 12.4861 -68.1577 0 3.155 2 0 4.53999e-06 -0.88398
7203 1 60.1102 12.4629 -69.2482 0 3.25347 1 0 4.53999e-06 -0.759562
6604 1 59.24 13.0767 -69.0184 0 3.17861 2 0 4.53999e-06 -0.833924
7474 1 60.0462 13.5132 -67.7313 0 3.04237 2 0 4.53999e-06 -0.514944
2553 1 60.9655 12.2043 -68.4413 0 3.26176 1 0 4.53999e-06 -0.851713
6027 1 60.3218 13.3675 -68.8578 0 3.2109 2 0 4.53999e-06 -0.275698
7204 1 60.8968 12.632 -69.2205 0 3.30479 1 0 4.53999e-06 0.058014
6304 1 61.7515 12.5248 -67.7078 0 3.2942 1 0 4.53999e-06 -0.0596692
6030 1 61.2415 13.0991 -68.3931 0 3.26676 1 0 4.53999e-06 0.0437901
7555 1 61.861 12.5814 -68.8905 0 3.39938 1 0 4.53999e-06 0.743342
3213 1 63.1455 12.3637 -68.8129 0 3.92951 2 0 4.53999e-06 0.873468
9221 1 62.4232 12.9733 -68.1805 0 3.4427 2 0 4.53999e-06 0.475761
1253 1 61.328 10.3406 -67.0124 0 3.14495 2 0 4.53999e-06 -0.364446
2656 1 61.1412 12.0238 -67.4657 0 3.21866 1 0 4.53999e-06 -0.97549
2598 1 61.0878 11.3551 -66.9217 0 3.18493 1 0 4.53999e-06 -0.811217
1010 1 61.9139 11.1375 -66.8457 0 3.24037 1 0 4.53999e-06 -0.026045
3425 1 61.2853 11.2387 -65.747 0 3.16378 1 0 4.53999e-06 -0.693511
2599 1 61.5981 11.7151 -66.262 0 3.20255 1 0 4.53999e-06 -0.773115
3520 1 62.4254 11.3523 -67.541 0 3.35795 1 0 4.53999e-06 0.528532
2552 1 62.0085 11.9284 -66.8709 0 3.27089 1 0 4.53999e-06 0.0150348
4420 1 62.5534 10.9776 -66.2802 0 3.29939 2 0 4.53999e-06 0.455356
1926 1 62.2884 11.6158 -65.9006 0 3.25924 1 0 4.53999e-06 0.427173
901 1 62.9066 11.5684 -66.7635 0 3.36549 1 0 4.53999e-06 0.789441
7373 1 60.1634 12.7399 -66.8003 0 3.04107 2 0 4.53999e-06 -0.948857
6908 1 60.9094 12.8833 -67.4842 0 3.17039 2 0 4.53999e-06 -0.5393
7152 1 60.9395 12.1669 -66.481 0 3.15024 1 0 4.53999e-06 -0.999692
6297 1 61.1371 13.0416 -66.1556 0 3.13081 2 0 4.53999e-06 -0.502033
6970 1 61.5918 12.5072 -66.791 0 3.224 1 0 4.53999e-06 -0.534188
6301 1 62.0246 12.5705 -66.0668 0 3.24658 1 0 4.53999e-06 -0.134371
4516 1 62.5736 12.3261 -66.8095 0 3.34834 1 0 4.53999e-06 0.803308
3873 1 63.4856 12.2095 -66.4504 0 3.62681 2 0 4.53999e-06 0.992091
8546 1 62.8459 12.6058 -66.0772 0 3.35639 1 0 4.53999e-06 0.763638
8944 1 63.0452 12.8578 -67.1863 0 3.62338 2 0 4.53999e-06 0.694023
8547 1 62.1317 13.0566 -67.0875 0 3.30485 1 0 4.53999e-06 0.054724
9122 1 62.4959 13.45 -66.2394 0 3.31211 2 0 4.53999e-06 0.140564
1255 1 61.9045 11.3828 -65.1268 0 3.19263 1 0 4.53999e-06 -0.183527
4229 1 61.5575 10.9631 -64.2239 0 3.1082 2 0 4.53999e-06 -0.198839
6905 1 61.173 11.7415 -64.781 0 3.11216 1 0 4.53999e-06 -0.898598
6590 1 61.9625 12.1254 -65.0696 0 3.2049 1 0 4.53999e-06 -0.471981
4630 1 62.0394 10.679 -65.611 0 3.20637 2 0 4.53999e-06 -0.0180236
4547 1 63.0934 11.6944 -65.7777 0 3.35016 1 0 4.53999e-06 0.878928
4591 1 62.7793 11.1642 -65.0323 0 3.44916 2 0 4.53999e-06 0.5726
1923 1 62.2119 11.583 -64.3089 0 3.19724 1 0 4.53999e-06 0.432459
9331 1 62.9744 11.9336 -64.4599 0 3.45593 2 0 4.53999e-06 0.835918
7376 1 61.376 12.155 -65.6265 0 3.16166 1 0 4.53999e-06 -0.9797
6245 1 61.6566 12.8882 -65.3259 0 3.17565 1 0 4.53999e-06 -0.374303
6450 1 60.4665 12.2792 -65.5228 0 3.05536 2 0 4.53999e-06 -0.986659
7374 1 61.5028 12.2055 -64.146 0 3.11862 1 0 4.53999e-06 -0.975375
6240 1 61.0022 12.7021 -64.715 0 3.08713 2 0 4.53999e-06 -0.817411
6605 1 62.1051 12.6925 -64.4882 0 3.19924 1 0 4.53999e-06 0.0996838
6972 1 62.5795 12.2061 -65.3701 0 3.29385 1 0 4.53999e-06 0.923151
9168 1 63.3713 13.0109 -65.4734 0 3.6287 2 0 4.53999e-06 0.753158
8989 1 63.6198 12.1718 -65.1157 0 3.65042 2 0 4.53999e-06 0.971807
9169 1 62.9949 12.8185 -64.4528 0 3.50118 2 0 4.53999e-06 0.726869
7662 1 62.4867 13.0606 -65.2654 0 3.28443 1 0 4.53999e-06 0.186736
1685 1 60.856 11.4687 -63.6583 0 3.04104 2 0 4.53999e-06 -0.776818
3521 1 61.7252 11.6917 -63.5363 0 3.11757 1 0 4.53999e-06 0.243645
4326 1 61.3796 11.1625 -62.8593 0 3.07207 2 0 4.53999e-06 0.0997524
1569 1 60.7741 11.7609 -62.5703 0 3.04611 2 0 4.53999e-06 -0.604774
1563 1 61.5498 12.0505 -62.7641 0 3.10268 1 0 4.53999e-06 0.84867
4515 1 62.4159 11.6767 -62.8859 0 3.39912 2 0 4.53999e-06 0.776058
6513 1 60.1501 12.4233 -62.6323 0 2.99102 2 0 4.53999e-06 -0.80731
9429 1 61.4184 13.0802 -63.8485 0 3.07796 2 0 4.53999e-06 -0.357239
6907 1 60.9912 12.2931 -63.3918 0 3.05263 1 0 4.53999e-06 -0.886428
7559 1 60.9414 13.0241 -62.9082 0 3.01898 2 0 4.53999e-06 -0.278712
7554 1 61.8526 12.7182 -63.0663 0 3.10736 2 0 4.53999e-06 0.426026
8447 1 62.3396 12.2609 -63.7296 0 3.19757 1 0 4.53999e-06 0.85635
9123 1 62.4109 13.1671 -63.6809 0 3.17907 2 0 4.53999e-06 0.369763
3872 1 63.1324 12.4268 -63.2111 0 3.58897 2 0 4.53999e-06 0.854203
2452 1 59.8904 11.4551 -62.0467 0 2.97421 2 0 4.53999e-06 -0.716561
2201 1 59.4783 11.9214 -61.1361 0 2.98858 2 0 4.53999e-06 -0.818579
1259 1 60.771 11.0283 -61.9687 0 3.01875 2 0 4.53999e-06 -0.0178508
4331 1 61.6866 11.5994 -62.0318 0 3.3095 2 0 4.53999e-06 0.705478
1198 1 60.9003 11.8599 -61.6681 0 3.21262 2 0 4.53999e-06 0.540132
4330 1 60.2907 11.5406 -61.0698 0 3.02974 2 0 4.53999e-06 0.102721
6031 1 59.6645 12.7886 -61.3977 0 2.99615 2 0 4.53999e-06 -0.702258
1566 1 60.1911 12.2104 -61.8059 0 3.02603 2 0 4.53999e-06 -0.940956
8600 1 60.0241 13.3631 -60.7487 0 3.02681 2 0 4.53999e-06 0.181935
2548 1 60.9482 12.457 -62.3109 0 3.05947 2 0 4.53999e-06 0.147656
9224 1 61.4617 12.5477 -61.7211 0 3.29403 2 0 4.53999e-06 0.714282
8945 1 60.5345 13.0888 -61.7742 0 3.0193 2 0 4.53999e-06 0.0655762
6303 1 60.4663 12.438 -61.0796 0 3.20219 2 0 4.53999e-06 0.780048
1688 1 57.6637 12.0059 -59.5601 0 2.74741 2 0 4.53999e-06 -0.558067
4419 1 59.2072 12.0163 -60.08 0 2.98722 2 0 4.53999e-06 -0.208643
1011 1 58.5141 11.6679 -59.3941 0 2.85117 2 0 4.53999e-06 0.0431328
4328 1 59.2257 12.0603 -59.0627 0 3.13128 2 0 4.53999e-06 0.601169
4228 1 60.1423 11.8227 -60.1094 0 3.27094 2 0 4.53999e-06 0.510494
7377 1 57.7088 12.8702 -59.3613 0 2.7584 2 0 4.53999e-06 -0.587257
2154 1 58.4825 12.4484 -59.8647 0 2.89118 2 0 4.53999e-06 -0.479514
9223 1 59.1768 12.9865 -60.2686 0 2.9895 2 0 4.53999e-06 -0.458454
1567 1 59.7806 12.4728 -60.5768 0 3.04242 2 0 4.53999e-06 -0.798281
6243 1 58.5462 13.3323 -59.6542 0 2.87909 2 0 4.53999e-06 -0.287589
4551 1 59.5439 12.6632 -59.5945 0 3.17374 2 0 4.53999e-06 0.814813
1467 1 58.7166 12.6737 -59.1841 0 3.02854 2 0 4.53999e-06 0.727233
3876 1 59.8345 13.5763 -59.6649 0 3.19624 2 0 4.53999e-06 0.44691
4549 1 60.3115 12.7792 -60.0818 0 3.27298 2 0 4.53999e-06 0.867515
1681 1 55.8772 11.9673 -58.1632 0 2.50893 2 0 4.54001e-06 -0.513057
1313 1 57.5676 11.6005 -58.5957 0 2.67655 2 0 4.54e-06 -0.150478
1257 1 58.0657 12.1866 -58.8208 0 2.78283 2 0 4.53999e-06 0.0754297
3422 1 56.8646 11.9358 -58.0017 0 2.5786 2 0 4.54e-06 -0.191485
3966 1 57.856 11.9107 -57.7996 0 2.66893 2 0 4.54e-06 0.420359
7150 1 54.55 13.3881 -57.2668 0 2.56654 2 0 4.54e-06 -0.626116
6237 1 55.6908 12.9415 -58.3486 0 2.50737 2 0 4.54001e-06 -0.597063
7151 1 56.5257 12.7436 -58.1783 0 2.5568 2 0 4.54e-06 -0.485285
7475 1 55.4987 12.8452 -57.47 0 2.52444 2 0 4.54e-06 -0.908445
2208 1 56.2261 12.4304 -57.4806 0 2.52753 2 0 4.54e-06 -0.280835
9126 1 55.9476 13.562 -57.6833 0 2.52013 2 0 4.54e-06 -0.28714
7657 1 56.7027 13.1929 -57.3642 0 2.54288 2 0 4.54e-06 0.421686
2202 1 57.2207 12.3554 -58.7198 0 2.66012 2 0 4.54e-06 -0.65388
7472 1 57.3489 12.9501 -58.3302 0 2.64851 2 0 4.54e-06 -0.0727128
6242 1 56.7203 13.5932 -58.2485 0 2.55497 2 0 4.54e-06 -0.101271
7558 1 58.1176 13.1774 -58.7056 0 2.77622 2 0 4.53999e-06 0.102825
4416 1 57.1727 12.583 -57.6067 0 2.59151 2 0 4.54e-06 0.493595
904 1 57.9664 12.7698 -57.9042 0 2.85826 2 0 4.53999e-06 0.613431
9120 1 57.5632 13.693 -57.7063 0 2.601 2 0 4.54e-06 0.427698
4232 1 58.5948 12.5109 -58.4204 0 2.98994 2 0 4.53999e-06 0.662296
3641 1 59.1651 13.2622 -58.9537 0 2.93202 2 0 4.53999e-06 0.465355
4631 1 56.7603 12.0929 -56.901 0 2.52021 2 0 4.54e-06 0.304852
1684 1 55.557 12.0263 -57.0117 0 2.51399 2 0 4.54001e-06 -0.388395
2205 1 52.2677 13.3407 -55.5006 0 2.59935 2 0 4.54e-06 -0.217452
1929 1 53.0992 13.0587 -55.7893 0 2.64743 2 0 4.54e-06 0.0590075
6968 1 52.6762 13.8107 -55.9893 0 2.62883 2 0 4.54e-06 -0.069363
7553 1 54.0818 13.1844 -56.3623 0 2.65479 2 0 4.54e-06 -0.301272
2655 1 54.9808 12.7662 -56.694 0 2.58371 2 0 4.54e-06 -0.486632
1056 1 53.9841 12.6071 -55.7098 0 2.65557 2 0 4.54e-06 0.142602
3640 1 54.9425 13.245 -55.9338 0 2.88158 2 0 4.53999e-06 0.544402
8544 1 53.4964 13.8058 -56.0965 0 2.67054 2 0 4.54e-06 0.280682
9172 1 55.3851 13.4975 -56.8562 0 2.56204 2 0 4.54e-06 -0.0974295
956 1 56.0286 12.8151 -56.6877 0 2.53081 2 0 4.54e-06 0.220243
8943 1 56.2655 13.7067 -56.7946 0 2.52481 2 0 4.54e-06 0.306611
6509 1 51.7868 13.9476 -55.6497 0 2.57405 2 0 4.54e-06 -0.607184
8686 1 52.4667 14.7506 -55.9026 0 2.60449 2 0 4.54e-06 -0.0625345
8898 1 54.4781 13.9294 -56.3424 0 2.65647 2 0 4.54e-06 0.223885
6591 1 50.6164 13.5712 -54.3575 0 2.5331 2 0 4.54e-06 -0.923646
2597 1 51.3643 13.4031 -55.1708 0 2.54694 2 0 4.54e-06 -0.767526
1258 1 51.377 13.1659 -54.3193 0 2.53812 2 0 4.54e-06 -0.408764
1683 1 51.9086 12.7656 -54.9314 0 2.5555 2 0 4.54e-06 -0.166045
953 1 51.9568 13.6212 -54.8797 0 2.57852 2 0 4.54e-06 -0.699502
4633 1 52.6657 13.1358 -54.9424 0 2.61406 2 0 4.54e-06 0.417786
4121 1 52.7165 13.8294 -54.6522 0 2.74566 2 0 4.53999e-06 0.644917
9227 1 53.1736 13.6155 -55.246 0 2.78949 2 0 4.53999e-06 0.899579
3922 1 52.1559 13.3858 -54.2598 0 2.57062 2 0 4.54e-06 0.283834
4590 1 54.0024 13.5196 -55.4707 0 2.88917 2 0 4.53999e-06 0.748215
6455 1 49.3028 14.232 -53.9531 0 2.62073 2 0 4.54e-06 -0.568065
6512 1 50.7854 14.417 -54.1252 0 2.53527 2 0 4.54e-06 -0.443868
1197 1 51.3448 13.9968 -54.6645 0 2.54761 2 0 4.54e-06 -0.851464
1565 1 51.4093 13.8448 -53.7821 0 2.5392 2 0 4.54e-06 0.0257226
7658 1 51.8213 14.4814 -55.0854 0 2.57244 2 0 4.54e-06 -0.428521
6305 1 52.4642 14.0497 -55.3532 0 2.61831 2 0 4.54e-06 0.146009
3281 1 52.6083 14.5406 -54.8938 0 2.61608 2 0 4.54e-06 0.33574
3643 1 52.0357 14.1944 -54.3391 0 2.5708 2 0 4.54e-06 0.127651
8595 1 53.2312 14.3393 -55.4722 0 2.82204 2 0 4.53999e-06 0.641617
2652 1 48.193 13.7875 -52.1784 0 2.95722 2 0 4.53999e-06 -0.242566
8543 1 49.0867 13.791 -52.8767 0 2.87123 2 0 4.53999e-06 -0.112974
3523 1 50.4585 13.4605 -53.3697 0 2.6352 2 0 4.54e-06 -0.0807086
6694 1 48.4124 14.5225 -52.6337 0 2.9013 2 0 4.53999e-06 -0.366101
8838 1 49.3941 14.6386 -52.6762 0 2.85779 2 0 4.53999e-06 0.36102
9170 1 50.0882 14.3163 -53.3426 0 2.66996 2 0 4.54e-06 0.29769
3874 1 49.8988 13.87 -52.311 0 3.18926 2 0 4.53999e-06 0.841861
2199 1 47.1228 13.5209 -51.2996 0 2.88116 2 0 4.53999e-06 -0.627438
1260 1 46.632 13.692 -50.5864 0 2.82674 2 0 4.53999e-06 -0.897354
1261 1 47.5887 13.7124 -50.8736 0 2.91639 2 0 4.53999e-06 -0.102588
2449 1 47.9984 13.1604 -51.4568 0 2.9427 2 0 4.53999e-06 0.100191
1256 1 47.3444 13.1344 -50.4567 0 2.85919 2 0 4.53999e-06 -0.117624
4593 1 48.9945 13.4763 -51.9398 0 3.19825 2 0 4.53999e-06 0.606921
4225 1 48.2335 13.5956 -50.7109 0 3.09336 2 0 4.53999e-06 0.702205
6974 1 47.1564 14.3454 -51.283 0 2.88911 2 0 4.53999e-06 -0.65732
7149 1 46.5895 14.7738 -50.6048 0 2.81036 2 0 4.53999e-06 -0.703002
6302 1 47.1205 14.1519 -50.5578 0 2.87396 2 0 4.53999e-06 -0.909409
6906 1 47.5573 14.8196 -50.8235 0 2.91938 2 0 4.53999e-06 -0.0695631
2152 1 47.7514 13.9466 -51.5315 0 2.94333 2 0 4.53999e-06 -0.330567
7656 1 47.9614 14.5972 -51.6644 0 2.95381 2 0 4.53999e-06 -0.0866456
9226 1 47.9277 14.2782 -50.6486 0 3.0631 2 0 4.53999e-06 0.665235
8946 1 48.8555 14.3563 -51.8899 0 3.15306 2 0 4.53999e-06 0.76971
4124 1 48.4708 13.8716 -51.3571 0 3.12165 2 0 4.53999e-06 0.948318
8897 1 48.4381 14.5661 -51.037 0 3.14381 2 0 4.53999e-06 0.726149
4418 1 46.912 13.6124 -49.7178 0 2.80269 2 0 4.53999e-06 -0.281957
4424 1 47.6875 13.8361 -50.0875 0 2.89799 2 0 4.53999e-06 0.386287
6606 1 46.221 14.2748 -49.8347 0 2.76015 2 0 4.53999e-06 -0.939359
8497 1 47.2817 14.5044 -49.9873 0 2.86741 2 0 4.53999e-06 -0.0509924
8270 1 46.7819 14.2656 -48.9863 0 2.75485 2 0 4.53999e-06 0.139684
8317 1 48.2836 14.8468 -49.9265 0 3.25967 2 0 4.53999e-06 0.553079
2456 1 43.9015 13.7126 -47.1145 0 2.91966 2 0 4.53999e-06 -0.499783
8444 1 44.8 13.6524 -47.0359 0 2.98487 2 0 4.53999e-06 0.422153
8450 1 45.8417 13.6885 -47.8268 0 3.16412 2 0 4.53999e-06 0.799563
9128 1 44.4007 14.5119 -47.1062 0 2.96154 2 0 4.53999e-06 -0.123223
6508 1 44.7612 13.9514 -47.944 0 2.90158 2 0 4.53999e-06 -0.247274
6452 1 45.6773 14.2947 -48.6368 0 2.79693 2 0 4.53999e-06 -0.447049
8500 1 45.3304 14.321 -47.1936 0 3.21745 2 0 4.53999e-06 0.795664
2458 1 43.744 13.5505 -46.2385 0 2.92894 2 0 4.53999e-06 -0.506012
9427 1 43.148 13.3842 -45.3303 0 2.87043 2 0 4.53999e-06 -0.684023
2600 1 44.4005 13.1721 -46.4231 0 2.96111 2 0 4.53999e-06 0.162873
4324 1 44.6389 13.363 -45.666 0 3.13032 2 0 4.53999e-06 0.654213
4415 1 43.9275 13.4994 -45.5889 0 2.93381 2 0 4.53999e-06 0.0267893
1691 1 45.2738 13.7426 -46.2912 0 3.22032 2 0 4.53999e-06 0.951725
6185 1 42.762 13.9784 -45.9361 0 2.85368 2 0 4.53999e-06 -0.935699
6241 1 43.678 14.2668 -46.4336 0 2.92461 2 0 4.53999e-06 -0.590493
8738 1 43.5976 14.0193 -45.8105 0 2.91632 1 0 4.53999e-06 -0.936622
8990 1 43.4485 14.0459 -45.1787 0 2.88927 2 0 4.53999e-06 -0.743079
3220 1 43.2533 14.7529 -45.6734 0 2.87343 2 0 4.53999e-06 -0.539745
8263 1 44.3677 13.9313 -46.3992 0 3.0735 2 0 4.53999e-06 0.517619
8314 1 44.2661 14.618 -46.2196 0 2.96515 2 0 4.53999e-06 0.159567
3970 1 44.5561 14.061 -45.812 0 3.09792 2 0 4.53999e-06 0.890729
8316 1 43.9997 14.4166 -45.5674 0 2.93175 1 0 4.53999e-06 0.265038
3217 1 45.1258 14.6688 -46.3413 0 3.23669 2 0 4.53999e-06 0.694356
3967 1 44.2134 13.9334 -45.1132 0 3.05234 2 0 4.53999e-06 0.678747
2212 1 43.8517 13.2031 -44.777 0 2.88171 2 0 4.53999e-06 0.212221
1973 1 43.7802 13.0466 -43.5844 0 2.89294 2 0 4.53999e-06 0.545277
8442 1 43.0663 13.5296 -44.2536 0 2.83847 2 0 4.53999e-06 -0.689189
7660 1 42.8151 14.3294 -44.8021 0 2.84016 2 0 4.53999e-06 -0.875269
4116 1 43.704 14.0267 -44.4827 0 2.87283 2 0 4.53999e-06 0.293501
3692 1 43.1437 14.4255 -43.6944 0 2.84894 2 0 4.53999e-06 -0.262925
3207 1 43.7257 14.8517 -44.8262 0 2.86868 2 0 4.53999e-06 0.138631
5920 1 42.7727 13.2789 -42.9782 0 2.8338 2 0 4.53999e-06 -0.594631
6458 1 42.6269 12.9516 -41.891 0 2.81083 2 0 4.53999e-06 -0.318664
4333 1 43.48 13.8811 -42.824 0 3.14474 2 0 4.53999e-06 0.965583
7653 1 42.6855 14.1626 -42.4427 0 2.88709 2 0 4.53999e-06 -0.613748
3212 1 42.8005 15.071 -42.0892 0 2.88265 2 0 4.53999e-06 -0.121059
4231 1 43.3806 14.4068 -41.7158 0 3.12413 2 0 4.53999e-06 0.72211
8213 1 42.7469 13.8251 -41.6605 0 2.90187 2 0 4.53999e-06 -0.495636
6033 1 42.7374 13.4679 -40.2784 0 2.89052 2 0 4.53999e-06 -0.190374
5917 1 42.2846 13.7094 -40.9438 0 2.85938 2 0 4.53999e-06 -0.812917
2022 1 43.5697 13.4789 -41.5416 0 3.15313 2 0 4.53999e-06 0.722026
9225 1 43.0634 13.9802 -40.8847 0 2.93926 2 0 4.53999e-06 0.388223
1789 1 43.6006 13.6253 -40.3091 0 3.13529 2 0 4.53999e-06 0.711054
8269 1 42.3248 14.5528 -41.3652 0 2.87685 2 0 4.53999e-06 -0.81867
9125 1 42.4215 14.3339 -40.431 0 2.89059 1 0 4.53999e-06 -0.953625
8102 1 42.5691 15.1545 -40.2749 0 2.90276 2 0 4.53999e-06 -0.420314
8684 1 43.0161 14.8102 -40.951 0 2.93656 2 0 4.53999e-06 0.104518
3514 1 43.2871 14.3792 -40.1092 0 2.96781 1 0 4.53999e-06 0.983357
1013 1 43.7684 14.377 -40.8255 0 3.15842 2 0 4.53999e-06 0.950385
3740 1 43.5004 15.1253 -40.2443 0 3.1557 2 0 4.53999e-06 0.560478
6182 1 41.9442 13.5665 -39.7598 0 2.81036 2 0 4.53999e-06 -0.807184
7106 1 42.7755 13.4528 -38.6283 0 2.84368 2 0 4.53999e-06 -0.0468549
6515 1 42.9712 13.6508 -39.5333 0 2.9113 2 0 4.53999e-06 0.152533
1057 1 43.7806 14.0388 -39.4748 0 3.16402 2 0 4.53999e-06 0.898504
8948 1 42.6977 14.3385 -39.7343 0 2.91625 1 0 4.53999e-06 -0.963614
8267 1 42.0327 14.7261 -39.6394 0 2.86202 2 0 4.53999e-06 -0.915366
7661 1 42.2696 14.101 -39.0119 0 2.86766 2 0 4.53999e-06 -0.840648
8315 1 42.4189 14.9538 -38.8196 0 2.89907 2 0 4.53999e-06 -0.632545
3920 1 42.9598 15.12 -39.4785 0 2.94615 2 0 4.53999e-06 0.0434526
1974 1 43.2451 14.8333 -38.5494 0 3.11758 2 0 4.53999e-06 0.665148
8596 1 43.0788 14.3007 -39.0568 0 3.05598 2 0 4.53999e-06 0.584561
4014 1 43.8024 14.926 -39.3504 0 3.206 2 0 4.53999e-06 0.84366
8268 1 42.3466 14.4145 -38.0601 0 2.87858 2 0 4.53999e-06 -0.796397
4230 1 42.4863 14.6052 -36.5698 0 2.89207 2 0 4.53999e-06 -0.274323
8264 1 42.1712 15.1826 -37.1582 0 2.87274 2 0 4.53999e-06 -0.837923
2102 1 43.1916 14.0814 -38.0565 0 2.94742 2 0 4.53999e-06 0.530687
3423 1 42.7581 15.246 -37.9139 0 2.92452 2 0 4.53999e-06 0.00479318
4321 1 43.1394 14.7005 -37.2479 0 3.15856 2 0 4.53999e-06 0.944804
5918 1 42.3196 14.0542 -35.8592 0 2.81996 2 0 4.53999e-06 -0.274126
9425 1 42.221 14.7784 -35.48 0 2.85967 2 0 4.53999e-06 -0.714803
3642 1 42.2381 15.3641 -36.0854 0 2.88153 2 0 4.53999e-06 -0.465026
6188 1 41.9966 14.2377 -34.8881 0 2.8003 2 0 4.53999e-06 -0.656449
8101 1 42.0248 15.2976 -34.9742 0 2.85513 1 0 4.53999e-06 -0.931485
1925 1 42.9725 14.7536 -35.8787 0 3.05892 2 0 4.53999e-06 0.780253
4673 1 43.0827 15.4958 -36.5293 0 3.18426 2 0 4.53999e-06 0.652778
6689 1 42.8938 14.1086 -35.1295 0 2.84111 2 0 4.53999e-06 0.43266
1687 1 43.3022 14.912 -35.1247 0 3.06248 2 0 4.53999e-06 0.975057
4634 1 42.7227 15.4181 -35.3837 0 3.00197 2 0 4.53999e-06 0.481212
6687 1 42.535 13.8798 -33.3248 0 2.74291 2 0 4.53999e-06 0.00930969
8899 1 42.6285 14.3275 -34.2374 0 2.83383 2 0 4.53999e-06 0.144459
8837 1 42.0161 14.8523 -34.3186 0 2.83016 1 0 4.53999e-06 -0.937254
3923 1 42.2937 15.6511 -34.4005 0 2.87172 1 0 4.53999e-06 -0.460254
8056 1 41.8318 15.3692 -33.7712 0 2.82413 2 0 4.53999e-06 -0.940622
9426 1 42.11 14.6426 -33.4524 0 2.80306 2 0 4.53999e-06 -0.7806
9326 1 42.4077 15.3069 -33.0977 0 2.84468 2 0 4.53999e-06 -0.425991
3517 1 42.7009 14.8783 -33.7933 0 2.86074 1 0 4.53999e-06 0.651341
909 1 42.6808 14.8389 -34.7702 0 2.87963 1 0 4.53999e-06 0.644871
3737 1 43.0255 15.6855 -34.671 0 3.05846 2 0 4.53999e-06 0.730198
3793 1 43.3124 14.9217 -34.2528 0 3.04811 2 0 4.53999e-06 0.986416
3921 1 42.8645 15.5299 -33.8434 0 2.99766 1 0 4.53999e-06 0.708263
2555 1 43.078 14.674 -33.1963 0 2.98897 2 0 4.53999e-06 0.855664
6244 1 42.7131 14.0693 -31.6403 0 2.7273 2 0 4.53999e-06 0.325726
5809 1 41.9193 14.2965 -32.1321 0 2.69752 2 0 4.53999e-06 -0.837354
8743 1 42.4619 14.6516 -32.608 0 2.79924 2 0 4.53999e-06 -0.276709
3218 1 42.2271 15.4345 -32.0745 0 2.79706 2 0 4.53999e-06 -0.621613
3969 1 43.0619 15.158 -32.4066 0 3.02518 2 0 4.53999e-06 0.91497
4233 1 42.7248 14.8755 -31.584 0 2.95216 2 0 4.53999e-06 0.852239
7375 1 41.8127 13.793 -30.1402 0 2.57889 2 0 4.54e-06 -0.645761
8839 1 41.9632 14.2827 -31.1123 0 2.67273 2 0 4.54e-06 -0.856373
8597 1 42.2428 15.0199 -30.7115 0 2.74211 2 0 4.53999e-06 -0.831107
8900 1 42.0831 14.706 -29.7539 0 2.6738 2 0 4.54e-06 -0.989495
1868 1 42.578 14.3334 -30.3458 0 2.72895 2 0 4.53999e-06 -0.0744603
8265 1 42.4511 15.4891 -29.9018 0 2.74082 2 0 4.53999e-06 -0.425086
1930 1 42.9919 14.1797 -29.5833 0 2.72263 2 0 4.53999e-06 0.485891
4332 1 43.2417 14.5103 -30.8769 0 2.99922 2 0 4.53999e-06 0.815616
4131 1 42.8348 15.5225 -31.048 0 2.80949 2 0 4.53999e-06 0.14421
3789 1 43.5152 15.3362 -30.51 0 3.07373 2 0 4.53999e-06 0.819571
4017 1 43.6225 14.7294 -29.598 0 3.00271 2 0 4.53999e-06 0.989456
4589 1 43.0154 14.9875 -30.0814 0 2.93068 2 0 4.53999e-06 0.797775
6181 1 40.8314 13.4991 -28.117 0 2.35365 2 0 4.54005e-06 -0.874002
5815 1 41.6211 13.9213 -28.6015 0 2.51659 2 0 4.54e-06 -0.842323
6037 1 42.2681 14.0263 -29.2431 0 2.62509 2 0 4.54e-06 -0.390824
9424 1 42.4619 14.8787 -27.8516 0 2.64081 1 0 4.54e-06 -0.775338
8645 1 42.08 14.7363 -28.6183 0 2.62082 2 0 4.54e-06 -0.974175
8322 1 42.3378 15.5872 -28.8891 0 2.69927 2 0 4.53999e-06 -0.531795
3691 1 43.2557 15.4379 -29.1956 0 2.95835 2 0 4.53999e-06 0.650877
1568 1 42.6324 14.1024 -28.4085 0 2.63139 1 0 4.54e-06 0.0198983
3871 1 42.651 14.9115 -29.2147 0 2.71557 2 0 4.53999e-06 -0.437602
4414 1 43.342 14.4259 -28.6832 0 2.79899 2 0 4.53999e-06 0.889581
4592 1 42.9832 15.0579 -28.3838 0 2.7107 1 0 4.53999e-06 0.635557
3690 1 43.5134 15.4977 -27.723 0 2.9597 2 0 4.53999e-06 0.656182
7473 1 41.0945 13.3133 -26.972 0 2.36485 2 0 4.54005e-06 -0.734906
9173 1 41.7211 13.8391 -27.5159 0 2.48387 2 0 4.54001e-06 -0.841692
1146 1 42.5504 13.4213 -27.0761 0 2.5428 2 0 4.54e-06 -0.106926
6587 1 41.9613 13.3491 -26.399 0 2.43882 2 0 4.54002e-06 -0.201748
1012 1 43.1533 13.8087 -27.6338 0 2.64507 1 0 4.54e-06 0.357039
3335 1 44.0204 13.9263 -27.5802 0 2.9584 2 0 4.53999e-06 0.808888
1309 1 43.4434 13.1167 -26.7503 0 2.62618 2 0 4.54e-06 0.264219
2550 1 42.8146 13.8709 -26.2269 0 2.57192 1 0 4.54e-06 -0.0326341
4677 1 44.0435 13.6385 -26.1543 0 2.89752 2 0 4.53999e-06 0.738846
1927 1 43.501 14.066 -26.7651 0 2.69245 1 0 4.54e-06 0.792365
8545 1 42.423 14.1655 -27.5743 0 2.58682 1 0 4.54e-06 -0.678938
8216 1 41.9519 14.6289 -26.9766 0 2.5344 1 0 4.54e-06 -0.884502
8058 1 42.5521 15.3882 -27.1654 0 2.64064 2 0 4.54e-06 -0.482342
8845 1 41.3308 14.0618 -26.343 0 2.39923 2 0 4.54003e-06 -0.908282
9325 1 42.1022 14.2768 -26.0941 0 2.48695 1 0 4.54001e-06 -0.984968
8745 1 42.4831 15.0325 -26.2017 0 2.58302 1 0 4.54e-06 -0.641309
8445 1 43.13 14.6224 -27.545 0 2.68159 1 0 4.54e-06 0.801681
4517 1 43.2628 15.0245 -26.78 0 2.70397 1 0 4.53999e-06 0.462194
3924 1 43.9092 14.7599 -27.2056 0 2.95003 2 0 4.53999e-06 0.913794
3971 1 44.2344 14.5417 -26.2969 0 3.0003 2 0 4.53999e-06 0.973777
9179 1 42.7513 14.3922 -26.8547 0 2.61173 1 0 4.54e-06 -0.980884
3516 1 43.1514 14.5531 -26.0864 0 2.65426 1 0 4.54e-06 0.585585
3639 1 43.943 15.4197 -26.1855 0 2.98641 2 0 4.53999e-06 0.694711
3277 1 45.3088 14.8091 -25.9851 0 3.62151 2 0 4.53999e-06 0.951321
4068 1 44.2496 12.4684 -24.5013 0 2.56741 2 0 4.54e-06 0.264716
7104 1 38.7429 13.2257 -24.1704 0 2.24134 2 0 4.54018e-06 -0.895287
6463 1 40.8915 13.1316 -25.6089 0 2.30562 2 0 4.54009e-06 -0.201005
6183 1 39.8801 13.1089 -25.3498 0 2.26178 2 0 4.54014e-06 -0.660079
6514 1 40.6822 12.9732 -24.4377 0 2.26947 2 0 4.54013e-06 0.172403
6817 1 39.7305 13.0014 -24.2686 0 2.24817 2 0 4.54017e-06 -0.557222
8552 1 41.6622 13.6039 -25.4993 0 2.37618 1 0 4.54004e-06 -0.0794112
1449 1 42.7928 13.3822 -24.4317 0 2.48785 1 0 4.54001e-06 -0.435746
1698 1 43.3003 13.4779 -25.5038 0 2.60019 1 0 4.54e-06 -0.0679292
4632 1 43.6627 13.1599 -24.4996 0 2.57729 1 0 4.54e-06 -0.239387
4016 1 44.2634 13.0988 -25.3322 0 2.67596 2 0 4.54e-06 0.50924
4334 1 44.4274 13.7457 -24.6415 0 2.71418 1 0 4.53999e-06 0.849505
4594 1 43.6987 13.9225 -24.1043 0 2.61408 1 0 4.54e-06 0.0859623