ITEM: TIMESTEP
48500
ITEM: NUMBER OF ATOMS
9495
ITEM: BOX BOUNDS mm mm mm
0.0000000000000000e+00 8.0927958146537605e+01
-3.3865531115021517e+00 3.4761421541884559e+01
-1.8663986883846763e+02 3.1748021039364001e+01
ITEM: ATOMS id type x y z c_phase c_temp c_surf c_nbond c_visc f_3[1]
2453 1 67.6012 11.6721 -185.967 0 3.61296 3 0 4.53999e-06 -0.888661
2149 1 69.9759 11.2341 -185.542 0 3.69766 2 0 4.53999e-06 -0.672048
1924 1 70.8291 10.6619 -185.103 0 3.73406 2 0 4.53999e-06 -0.367051
1561 1 71.8206 10.8567 -185.351 0 3.7818 2 0 4.53999e-06 0.146343
1560 1 70.9774 11.331 -185.909 0 3.73885 2 0 4.53999e-06 -0.126553
3628 1 72.5432 11.5536 -185.543 0 3.85333 2 0 4.53999e-06 0.263049
1196 1 71.7374 12.0194 -185.815 0 3.79553 2 0 4.53999e-06 0.000281535
4522 1 73.3652 12.1957 -185.949 0 3.96807 2 0 4.53999e-06 0.420586
4113 1 74.5643 12.0677 -185.235 0 4.42707 2 0 4.53999e-06 0.560803
2100 1 69.2005 13.2169 -185.493 0 3.65826 2 0 4.53999e-06 -0.871032
1920 1 69.8735 12.2488 -185.646 0 3.69747 2 0 4.53999e-06 -0.697336
1464 1 70.3613 13.1759 -185.696 0 3.71721 2 0 4.53999e-06 -0.339664
1143 1 70.8658 12.2848 -185.526 0 3.74602 2 0 4.53999e-06 -0.352192
4521 1 71.3777 13.0087 -186.104 0 3.77436 2 0 4.53999e-06 -0.110663
9332 1 72.0409 13.4844 -185.441 0 3.8236 2 0 4.53999e-06 -0.00804413
4544 1 72.4357 12.6768 -186.022 0 3.85723 2 0 4.53999e-06 0.144635
4130 1 73.6946 12.7277 -185.108 0 4.20782 2 0 4.53999e-06 0.624935
4109 1 73.0767 13.3222 -185.588 0 3.92259 2 0 4.53999e-06 0.421861
2099 1 65.0428 14.5442 -186.773 0 2.96278 3 0 4.53999e-06 -0
2150 1 72.0042 10.3747 -184.413 0 3.78628 2 0 4.53999e-06 0.0398856
2101 1 70.515 11.6218 -184.82 0 3.73078 2 0 4.53999e-06 -0.694519
2454 1 69.5067 11.8833 -184.663 0 3.68498 2 0 4.53999e-06 -0.843856
900 1 71.7186 11.6828 -184.877 0 3.79566 1 0 4.53999e-06 -0.196608
2503 1 71.1751 11.0955 -184.24 0 3.76381 2 0 4.53999e-06 -0.435521
2105 1 72.1484 11.3529 -184.042 0 3.82259 2 0 4.53999e-06 -0.150451
2460 1 71.3607 12.0196 -183.857 0 3.78142 2 0 4.53999e-06 -0.422105
3632 1 72.1758 12.238 -184.171 0 3.8327 1 0 4.53999e-06 -0.150866
1201 1 73.5728 11.7217 -185.046 0 3.9876 2 0 4.53999e-06 0.451127
1921 1 72.7942 11.1587 -184.692 0 3.8633 2 0 4.53999e-06 0.329747
1562 1 73.0769 10.9075 -183.688 0 3.87818 2 0 4.53999e-06 -0.0181276
2153 1 73.9583 11.2567 -184.197 0 3.9694 2 0 4.53999e-06 0.145921
1149 1 73.063 12.0327 -184.303 0 3.91123 1 0 4.53999e-06 0.61973
3630 1 74.9276 10.7384 -183.929 0 3.97934 2 0 4.53999e-06 -0.0156514
903 1 74.8783 11.7564 -184.271 0 4.05589 2 0 4.53999e-06 0.337825
8992 1 75.9488 11.7266 -184.492 0 4.07478 2 0 4.53999e-06 0.371109
3522 1 75.8961 11.1299 -183.578 0 4.01508 2 0 4.53999e-06 0.174792
3629 1 74.5566 12.2528 -183.52 0 4.00851 2 0 4.53999e-06 0.0505117
4125 1 76.9679 11.3873 -183.465 0 4.08004 2 0 4.53999e-06 0.494307
3631 1 76.114 11.9892 -183.468 0 4.05402 2 0 4.53999e-06 0.392062
1865 1 70.028 12.7817 -184.795 0 3.71105 2 0 4.53999e-06 -0.906094
1870 1 70.4999 12.6275 -183.952 0 3.73803 2 0 4.53999e-06 -0.720326
1465 1 70.8389 13.6286 -183.868 0 3.74449 2 0 4.53999e-06 -0.368471
6299 1 70.3048 13.7805 -184.767 0 3.71672 2 0 4.53999e-06 -0.491391
1142 1 71.0687 13.1618 -185.025 0 3.75971 2 0 4.53999e-06 -0.325796
8451 1 71.8553 12.6443 -184.997 0 3.81121 1 0 4.53999e-06 -0.108859
1469 1 71.0451 12.3121 -184.654 0 3.76152 1 0 4.53999e-06 -0.877698
6032 1 72.0697 12.6678 -183.433 0 3.82043 2 0 4.53999e-06 -0.129842
906 1 71.4876 12.9686 -184.16 0 3.78579 1 0 4.53999e-06 -0.297232
8452 1 72.2828 13.4326 -184.004 0 3.83432 2 0 4.53999e-06 0.103638
6028 1 71.6005 13.888 -184.61 0 3.78805 2 0 4.53999e-06 -0.0864314
4545 1 72.6436 12.247 -185.042 0 3.87979 1 0 4.53999e-06 0.428128
2457 1 72.972 12.7526 -183.83 0 3.89574 1 0 4.53999e-06 0.232397
9330 1 72.7343 13.0199 -184.71 0 3.88774 1 0 4.53999e-06 0.423064
9333 1 73.9823 12.3138 -184.266 0 4.02841 1 0 4.53999e-06 0.853243
9222 1 73.6355 13.3336 -184.289 0 3.98574 2 0 4.53999e-06 0.439794
9219 1 72.7224 13.9589 -184.773 0 3.86729 2 0 4.53999e-06 0.26576
4114 1 74.6803 12.9035 -184.508 0 4.37871 2 0 4.53999e-06 0.510243
9329 1 75.4777 12.5692 -183.926 0 4.07207 2 0 4.53999e-06 0.256039
9428 1 77.0586 12.3811 -184.102 0 4.61705 2 0 4.53999e-06 0.604116
1008 1 76.6221 10.3097 -181.793 0 4.0517 2 0 4.53999e-06 -0.592681
4587 1 77.3076 10.3098 -182.649 0 4.07136 2 0 4.53999e-06 0.0580661
3519 1 77.78 10.5523 -181.838 0 4.16359 2 0 4.53999e-06 -0.0861245
2551 1 72.7226 11.8912 -183.384 0 3.86696 2 0 4.53999e-06 -0.163769
2104 1 73.6954 11.7356 -183.35 0 3.9354 2 0 4.53999e-06 -0.187272
2151 1 74.3019 10.9369 -183.012 0 3.94445 2 0 4.53999e-06 -0.401322
6973 1 74.2918 12.0951 -182.515 0 3.94528 2 0 4.53999e-06 -0.289017
1928 1 75.1508 11.591 -183.322 0 3.99809 2 0 4.53999e-06 -0.691187
952 1 75.3969 10.6924 -182.788 0 3.97493 2 0 4.53999e-06 -0.252132
2547 1 75.1578 11.5326 -182.181 0 3.96741 2 0 4.53999e-06 -0.377786
1866 1 76.0139 11.5935 -182.742 0 4.02033 2 0 4.53999e-06 -0.550319
1922 1 76.4949 10.8604 -182.785 0 4.03495 2 0 4.53999e-06 -0.192784
1148 1 77.3446 11.2078 -182.484 0 4.10518 1 0 4.53999e-06 0.0532877
7205 1 76.6452 11.3787 -182.055 0 4.06411 2 0 4.53999e-06 -0.779477
6608 1 77.342 11.9081 -181.893 0 4.12625 1 0 4.53999e-06 -0.37073
1466 1 76.8528 11.9962 -182.762 0 4.07291 2 0 4.53999e-06 0.324008
4548 1 78.2013 10.9953 -182.563 0 4.18181 2 0 4.53999e-06 0.407289
4520 1 78.7262 10.9086 -181.783 0 4.30207 1 0 4.53999e-06 0.451506
9218 1 78.8793 11.7423 -182.386 0 4.50047 2 0 4.53999e-06 0.5625
1869 1 78.0175 11.4273 -181.885 0 4.20102 1 0 4.53999e-06 0.069484
9334 1 77.875 11.9718 -182.723 0 4.15258 2 0 4.53999e-06 0.343407
7200 1 68.776 13.8488 -182.905 0 3.62017 3 0 4.53999e-06 -0.804847
6588 1 71.0914 12.8392 -183.086 0 3.75584 2 0 4.53999e-06 -0.332159
7563 1 73.7511 12.7614 -183.296 0 3.94615 2 0 4.53999e-06 0.180232
6967 1 72.8706 12.7087 -182.564 0 3.85816 2 0 4.53999e-06 -0.120659
7556 1 75.4236 12.3353 -182.876 0 4.00487 2 0 4.53999e-06 -0.247372
8449 1 76.3892 12.8954 -183.111 0 4.06253 2 0 4.53999e-06 0.206271
6298 1 76.218 12.3291 -182.05 0 4.02394 2 0 4.53999e-06 -0.286479
1195 1 77.4826 10.2437 -180.924 0 4.16138 2 0 4.53999e-06 -0.507643
4325 1 78.5925 10.2232 -181.141 0 4.30185 2 0 4.53999e-06 0.0294851
4417 1 79.0936 10.2609 -180.235 0 4.41057 2 0 4.53999e-06 -0.0392591
3870 1 79.5349 10.4417 -181.546 0 4.67362 2 0 4.53999e-06 0.537391
1199 1 77.2429 11.1039 -181.395 0 4.13793 1 0 4.53999e-06 -0.812354
6604 1 77.0136 11.9863 -180.964 0 4.11625 2 0 4.53999e-06 -0.679253
9220 1 78.7725 11.6652 -181.464 0 4.31179 1 0 4.53999e-06 0.505846
7203 1 77.9081 11.6995 -181.108 0 4.21635 1 0 4.53999e-06 -0.64555
954 1 78.138 10.9792 -181.161 0 4.24526 1 0 4.53999e-06 -0.569918
8448 1 78.9969 11.0072 -180.948 0 4.3765 1 0 4.53999e-06 0.606754
7204 1 78.6551 11.4604 -180.672 0 4.32335 1 0 4.53999e-06 -0.282239
1976 1 78.2281 10.6828 -180.373 0 4.28599 2 0 4.53999e-06 -0.536501
7202 1 77.9581 11.5525 -180.197 0 4.25467 2 0 4.53999e-06 -0.76184
9171 1 79.297 12.1669 -181.009 0 4.37093 2 0 4.53999e-06 0.457105
6027 1 78.4253 12.2619 -180.677 0 4.26636 2 0 4.53999e-06 -0.154295
8739 1 79.7258 11.4427 -181.633 0 4.67067 2 0 4.53999e-06 0.745716
4227 1 80.5947 10.7168 -180.084 0 4.89835 2 0 4.53999e-06 0.919793
7555 1 79.5421 11.5218 -180.521 0 4.4714 1 0 4.53999e-06 0.797794
4519 1 79.7461 10.7206 -180.647 0 4.6667 2 0 4.53999e-06 0.698972
3213 1 80.4313 11.4518 -180.831 0 4.86735 2 0 4.53999e-06 0.899379
7557 1 78.2207 12.2926 -181.73 0 4.21795 2 0 4.53999e-06 0.0598826
4588 1 79.8737 10.1438 -179.494 0 4.52657 2 0 4.53999e-06 0.26137
1010 1 79.9045 10.5659 -178.476 0 4.58198 2 0 4.53999e-06 0.15014
2553 1 78.8829 11.0746 -179.946 0 4.3907 1 0 4.53999e-06 -0.433526
6030 1 79.0758 12.0059 -179.962 0 4.37973 2 0 4.53999e-06 0.139362
955 1 79.1107 10.6938 -179.081 0 4.45657 2 0 4.53999e-06 -0.598752
6908 1 78.5313 11.5591 -179.343 0 4.3408 2 0 4.53999e-06 -0.567468
4518 1 79.6909 11.0126 -179.793 0 4.64225 2 0 4.53999e-06 0.775059
9221 1 80.122 11.8293 -179.85 0 4.77755 2 0 4.53999e-06 0.650887
6304 1 79.4946 11.5815 -179.042 0 4.50524 2 0 4.53999e-06 -0.039337
3520 1 80.3206 11.0718 -179.143 0 4.81579 2 0 4.53999e-06 0.976119
7474 1 78.1643 12.4988 -179.678 0 4.22907 2 0 4.53999e-06 -0.397411
1253 1 79.3573 10.15 -177.581 0 4.48748 2 0 4.53999e-06 -0.530537
901 1 80.5504 10.5186 -176.767 0 4.83902 2 0 4.53999e-06 0.583016
4546 1 80.7409 10.4905 -177.853 0 4.96338 2 0 4.53999e-06 0.750347
7373 1 79.0811 11.2174 -176.991 0 4.51276 2 0 4.53999e-06 -0.968927
2656 1 79.4392 11.1596 -177.978 0 4.54719 2 0 4.53999e-06 -0.899389
902 1 80.3228 11.4503 -178.177 0 4.87147 2 0 4.53999e-06 0.545324
2552 1 80.0345 10.9911 -177.292 0 4.63755 2 0 4.53999e-06 -0.0566211
8944 1 80.8597 11.4213 -177.292 0 4.93058 2 0 4.53999e-06 0.829463
8547 1 79.8917 11.7334 -176.858 0 4.59785 2 0 4.53999e-06 -0.227452
4420 1 80.385 10.462 -175.149 0 4.58572 2 0 4.53999e-06 0.483419
2598 1 79.6882 10.6157 -176.642 0 4.58697 2 0 4.53999e-06 -0.613129
4516 1 80.4653 11.2442 -176.472 0 4.77983 2 0 4.53999e-06 0.789952
6970 1 79.7915 11.2034 -176.165 0 4.59417 2 0 4.53999e-06 -0.815532
2599 1 80.1687 10.6461 -175.938 0 4.61057 2 0 4.53999e-06 0.110197
3873 1 80.941 10.914 -175.829 0 4.80279 2 0 4.53999e-06 0.980842
9122 1 80.3599 11.7612 -175.838 0 4.60109 2 0 4.53999e-06 0.363524
6297 1 79.664 11.4716 -175.533 0 4.56701 2 0 4.53999e-06 -0.647648
6301 1 80.3095 11.1584 -175.5 0 4.70572 2 0 4.53999e-06 0.89441
7152 1 79.6671 10.7695 -175.393 0 4.56537 1 0 4.53999e-06 -0.697654
4630 1 79.8859 10.4044 -174.357 0 4.54041 2 0 4.53999e-06 0.00967084
4591 1 79.5619 10.4852 -173.489 0 4.50186 2 0 4.53999e-06 -0.135263
6450 1 79.2237 11.2879 -174.943 0 4.52735 2 0 4.53999e-06 -0.931317
6240 1 79.0454 11.8099 -173.705 0 4.47144 2 0 4.53999e-06 -0.640054
1255 1 79.0635 11.0528 -173.702 0 4.48918 2 0 4.53999e-06 -0.958733
4547 1 80.5629 11.2037 -174.923 0 4.71112 2 0 4.53999e-06 0.954563
6245 1 79.9555 11.5701 -174.911 0 4.56536 1 0 4.53999e-06 0.0489261
1926 1 79.8825 10.8525 -174.82 0 4.56412 1 0 4.53999e-06 -0.254006
3425 1 79.3325 10.8208 -174.395 0 4.52226 2 0 4.53999e-06 -0.857353
8546 1 80.1927 11.4022 -174.276 0 4.66993 2 0 4.53999e-06 0.682479
8989 1 80.4955 10.7675 -174.307 0 4.7002 2 0 4.53999e-06 0.859232
7376 1 79.5421 11.4597 -174.291 0 4.52852 2 0 4.53999e-06 -0.530351
6972 1 79.8378 10.9561 -173.864 0 4.53616 2 0 4.53999e-06 0.307603
7662 1 79.8076 11.6583 -173.564 0 4.51632 2 0 4.53999e-06 0.331178
6905 1 78.6557 11.2539 -172.888 0 4.46147 2 0 4.53999e-06 -0.985646
6605 1 78.8883 11.6518 -171.836 0 4.56375 2 0 4.53999e-06 -0.672066
1923 1 79.1167 10.8162 -172.166 0 4.52055 2 0 4.53999e-06 -0.171962
9168 1 80.3552 11.0516 -173.426 0 4.70438 2 0 4.53999e-06 0.80037
6590 1 79.5467 11.1513 -172.987 0 4.50928 2 0 4.53999e-06 0.203637
9169 1 79.2721 11.9409 -172.755 0 4.49572 2 0 4.53999e-06 -0.100841
9331 1 79.7641 11.4695 -172.098 0 4.78471 2 0 4.53999e-06 0.959245
4229 1 78.5768 10.5693 -170.556 0 4.51627 2 0 4.53999e-06 -0.0681863
7374 1 78.4027 11.3304 -171.057 0 4.54446 2 0 4.53999e-06 -0.652589
9429 1 78.6175 12.2061 -171.093 0 4.56059 2 0 4.53999e-06 -0.278566
1685 1 77.8871 11.0833 -170.103 0 4.4243 2 0 4.53999e-06 -0.650884
6907 1 78.1487 11.7986 -170.42 0 4.49002 2 0 4.53999e-06 -0.685762
3521 1 78.8919 11.2957 -170.334 0 4.70731 2 0 4.53999e-06 0.624331
7554 1 79.0584 12.0424 -170.371 0 4.74968 2 0 4.53999e-06 0.619978
8447 1 79.2437 11.1945 -171.126 0 4.79453 2 0 4.53999e-06 0.608261
9123 1 79.5635 12.0196 -171.202 0 4.86506 2 0 4.53999e-06 0.736674
3872 1 79.874 11.3587 -170.404 0 4.93588 2 0 4.53999e-06 0.964282
6513 1 77.4861 11.9045 -169.84 0 4.3414 2 0 4.53999e-06 -0.83018
2452 1 77.193 11.1986 -169.164 0 4.21741 2 0 4.53999e-06 -0.770994
1566 1 77.2294 11.9713 -168.804 0 4.17756 2 0 4.53999e-06 -0.871248
4326 1 78.5794 10.9953 -169.632 0 4.47321 2 0 4.53999e-06 0.300946
1569 1 77.948 11.4459 -169.331 0 4.36199 2 0 4.53999e-06 -0.602902
1563 1 78.5389 11.8008 -169.71 0 4.60269 2 0 4.53999e-06 0.687542
2548 1 77.9443 12.1797 -169.193 0 4.33889 2 0 4.53999e-06 -0.219659
9224 1 78.7473 12.3103 -169.072 0 4.61118 2 0 4.53999e-06 0.601007
1259 1 78.0159 10.8945 -168.789 0 4.28437 2 0 4.53999e-06 0.0954169
4331 1 78.7282 11.4571 -168.891 0 4.58261 2 0 4.53999e-06 0.687198
1198 1 78.0427 11.7562 -168.431 0 4.2526 2 0 4.53999e-06 0.487584
4515 1 79.3004 11.6049 -169.617 0 4.74965 2 0 4.53999e-06 0.918879
7559 1 78.3247 12.4928 -169.962 0 4.46598 2 0 4.53999e-06 -0.0816098
8945 1 77.8089 12.6665 -168.453 0 4.1775 2 0 4.53999e-06 0.218252
2201 1 76.5121 11.5798 -168.34 0 4.04652 2 0 4.53999e-06 -0.905989
4330 1 77.3479 11.173 -168.187 0 4.12038 2 0 4.53999e-06 -0.118207
6303 1 77.3896 12.0328 -167.84 0 4.07977 2 0 4.53999e-06 0.452025
1567 1 76.3284 12.1232 -167.55 0 4.02867 2 0 4.53999e-06 -0.992177
4228 1 76.9133 11.4546 -167.264 0 4.01961 2 0 4.53999e-06 0.0785674
9223 1 75.3906 12.4582 -166.889 0 4.08223 2 0 4.53999e-06 -0.365014
6031 1 76.7936 12.5911 -168.269 0 4.04277 2 0 4.53999e-06 -0.509499
8600 1 76.9702 12.6399 -167.192 0 4.01846 2 0 4.53999e-06 0.468843
1688 1 73.4344 12.2713 -165.791 0 3.96981 2 0 4.53999e-06 -0.607206
1011 1 74.0379 11.7516 -165.32 0 4.03108 2 0 4.53999e-06 -0.0408358
4419 1 75.3549 11.7708 -166.209 0 4.11816 2 0 4.53999e-06 0.244184
2154 1 74.4424 12.1233 -166.17 0 4.07679 2 0 4.53999e-06 -0.278403
4328 1 74.9353 12.0593 -165.338 0 4.33809 2 0 4.53999e-06 0.652729
4549 1 76.2849 12.1085 -166.547 0 4.34359 2 0 4.53999e-06 0.527277
7377 1 73.1294 13.0007 -165.229 0 3.9305 2 0 4.53999e-06 -0.533925
1467 1 74.1058 12.7401 -165.573 0 4.05772 2 0 4.53999e-06 -0.119871
6243 1 74.6079 13.0656 -166.281 0 4.08222 2 0 4.53999e-06 -0.174335
4551 1 75.3271 12.6427 -165.942 0 4.34372 2 0 4.53999e-06 0.84494
3641 1 74.8408 13.0434 -165.212 0 4.34361 2 0 4.53999e-06 0.648302
3876 1 76.0814 13.1164 -166.579 0 4.06711 2 0 4.53999e-06 0.332945
1681 1 71.9509 12.084 -164.015 0 3.72601 2 0 4.53999e-06 -0.511533
1313 1 73.3699 11.9281 -164.218 0 3.91627 2 0 4.53999e-06 0.210961
3422 1 72.6824 12.2243 -163.683 0 3.8163 2 0 4.53999e-06 0.102949
6237 1 71.3141 12.6652 -163.691 0 3.64693 2 0 4.53999e-06 -0.858264
7151 1 72.2492 12.9251 -164.004 0 3.7805 2 0 4.53999e-06 -0.604266
9126 1 71.7814 13.5095 -163.578 0 3.68708 2 0 4.53999e-06 -0.539858
1257 1 73.4835 12.3646 -164.902 0 3.97138 2 0 4.53999e-06 -0.325665
7558 1 73.894 13.2319 -164.852 0 4.00889 2 0 4.53999e-06 0.338134
2202 1 72.7372 12.4512 -164.491 0 3.86465 2 0 4.53999e-06 -0.530916
7472 1 73.0737 13.1675 -164.393 0 3.90559 2 0 4.53999e-06 -0.0937286
904 1 73.7723 12.7454 -164.202 0 4.11868 2 0 4.53999e-06 0.89303
3966 1 73.4119 12.4985 -163.575 0 4.05423 2 0 4.53999e-06 0.740744
6242 1 72.639 13.7916 -163.845 0 3.8021 2 0 4.53999e-06 -0.0235633
4416 1 72.8878 12.9911 -163.652 0 3.96586 2 0 4.53999e-06 0.582402
9120 1 73.5836 13.4747 -163.698 0 4.12764 2 0 4.53999e-06 0.619286
4232 1 74.2919 12.4126 -164.78 0 4.21972 2 0 4.53999e-06 0.774089
1684 1 72.1882 11.8624 -163.032 0 3.69752 2 0 4.53999e-06 -0.0150336
2655 1 71.2958 12.1658 -162.756 0 3.58087 2 0 4.53999e-06 -0.589598
7150 1 70.469 12.8131 -162.543 0 3.47381 2 0 4.53999e-06 -0.990579
2208 1 72.0453 12.6027 -163.296 0 3.71682 2 0 4.53999e-06 -0.746393
7475 1 71.4561 13.051 -162.905 0 3.61828 2 0 4.53999e-06 -0.832889
7657 1 72.4324 13.2056 -163.107 0 3.74791 2 0 4.53999e-06 0.256352
956 1 72.1036 12.6442 -162.423 0 3.65294 2 0 4.53999e-06 0.220175
8943 1 71.9876 13.6966 -162.511 0 3.61544 2 0 4.53999e-06 0.0390541
9172 1 71.3355 12.9942 -162.004 0 3.53123 2 0 4.53999e-06 -0.206028
4631 1 72.8827 12.5181 -162.866 0 3.95559 2 0 4.53999e-06 0.56846
8544 1 69.0996 12.3747 -160.149 0 3.7888 2 0 4.53999e-06 -0.0100908
3640 1 70.7222 12.3521 -161.493 0 3.47843 2 0 4.53999e-06 -0.157443
8898 1 69.8869 12.7616 -160.825 0 3.65376 2 0 4.53999e-06 0.146027
1929 1 69.1277 11.8341 -159.308 0 3.80605 2 0 4.53999e-06 0.373563
6968 1 68.4293 12.1778 -159.625 0 3.73447 2 0 4.53999e-06 -0.337718
2205 1 68.467 11.926 -158.827 0 3.72694 2 0 4.53999e-06 -0.0984717
4633 1 69.0261 12.1329 -158.503 0 3.8846 2 0 4.53999e-06 0.841385
2597 1 67.822 11.8205 -158.311 0 3.65564 2 0 4.53999e-06 -0.659673
6509 1 67.8161 12.2128 -158.991 0 3.67953 2 0 4.53999e-06 -0.817781
7553 1 69.9204 11.91 -159.843 0 4.14014 2 0 4.53999e-06 0.724893
1056 1 69.8866 12.181 -158.791 0 4.09671 2 0 4.53999e-06 0.939118
8686 1 67.7929 12.9479 -159.463 0 3.66623 2 0 4.53999e-06 -0.644426
8595 1 68.7213 13.0017 -159.515 0 3.75282 2 0 4.53999e-06 0.0547772
7658 1 67.6737 12.699 -158.436 0 3.65268 2 0 4.53999e-06 -0.917947
6305 1 68.4104 12.5699 -158.992 0 3.72905 2 0 4.53999e-06 -0.321304
9227 1 69.1392 12.5581 -159.09 0 3.92184 2 0 4.53999e-06 0.871997
3281 1 68.2437 13.1077 -158.677 0 3.69501 2 0 4.53999e-06 -0.171416
4121 1 68.8197 12.7753 -158.416 0 3.85669 2 0 4.53999e-06 0.618155
4590 1 69.6879 12.8026 -159.616 0 4.0562 2 0 4.53999e-06 0.747418
6455 1 63.929 12.1319 -156.748 0 2.93149 3 0 4.53999e-06 -0.372334
6591 1 67.3202 12.1263 -156.823 0 3.49182 2 0 4.53999e-06 -0.614396
1683 1 68.6306 11.5787 -158.145 0 3.6984 2 0 4.53999e-06 0.266467
1258 1 68.1498 11.8018 -157.427 0 3.62054 2 0 4.53999e-06 -0.0257606
1197 1 67.6213 12.3928 -157.696 0 3.60873 2 0 4.53999e-06 -0.882416
6512 1 67.4082 13.247 -157.395 0 3.52497 2 0 4.53999e-06 -0.573419
953 1 68.2525 12.2891 -158.14 0 3.68665 2 0 4.53999e-06 -0.284325
3922 1 68.7947 12.3463 -157.734 0 3.83673 2 0 4.53999e-06 0.674014
3643 1 68.2227 12.9529 -157.873 0 3.65643 2 0 4.53999e-06 0.031075
1565 1 68.2151 12.6491 -157.028 0 3.58317 2 0 4.53999e-06 0.223372
3523 1 67.3454 13.1526 -154.928 0 3.30366 3 0 4.53999e-06 0.0914221
9170 1 65.363 14.1946 -156.01 0 3.45102 3 0 4.53999e-06 0.0823713
4593 1 64.6047 11.9033 -153.6 0 4.85011 2 0 4.53999e-06 0.531824
3874 1 66.2969 10.6051 -154.705 0 5.40022 3 0 4.53999e-06 0.613425
6694 1 63.3866 13.28 -153.721 0 4.30465 2 0 4.53999e-06 -0.147363
2652 1 63.7684 12.4679 -153.72 0 4.39171 2 0 4.53999e-06 0.0589583
8543 1 64.4644 12.831 -154.339 0 4.48408 2 0 4.53999e-06 0.269675
8838 1 65.3259 12.6843 -153.65 0 5.07298 2 0 4.53999e-06 0.99321
8946 1 64.3932 12.9994 -153.321 0 4.6517 2 0 4.53999e-06 0.833908
1256 1 62.4354 11.9742 -152.212 0 4.17711 2 0 4.53999e-06 -0.483942
2449 1 63.1763 11.8707 -153.13 0 4.27814 2 0 4.53999e-06 -0.149365
4225 1 63.4914 12.1459 -152.325 0 4.28662 2 0 4.53999e-06 0.42213
2199 1 62.5088 12.5618 -153.145 0 4.2179 2 0 4.53999e-06 -0.704081
7149 1 62.1364 13.7058 -152.3 0 4.13229 2 0 4.53999e-06 -0.562991
6302 1 62.4609 12.8937 -152.37 0 4.19655 2 0 4.53999e-06 -0.964365
1260 1 61.8346 12.7233 -152.021 0 4.1272 2 0 4.53999e-06 -0.985998
2152 1 63.3202 12.6774 -153.126 0 4.30604 2 0 4.53999e-06 -0.0634382
6974 1 62.8625 13.2503 -152.905 0 4.24125 2 0 4.53999e-06 -0.390978
7656 1 63.6675 13.287 -152.892 0 4.3238 2 0 4.53999e-06 0.471546
4124 1 63.9563 12.3067 -152.962 0 4.52323 2 0 4.53999e-06 0.740443
1261 1 62.9233 12.438 -152.572 0 4.24677 2 0 4.53999e-06 -0.44909
9226 1 63.3683 12.8919 -152.309 0 4.38241 2 0 4.53999e-06 0.728197
8897 1 64.0325 12.8126 -152.387 0 4.49731 2 0 4.53999e-06 0.905819
4424 1 63.0251 12.5467 -151.801 0 4.2226 2 0 4.53999e-06 0.189566
6906 1 63.067 13.4346 -152.193 0 4.23506 2 0 4.53999e-06 0.122546
8497 1 62.6182 13.1524 -151.672 0 4.17611 2 0 4.53999e-06 -0.270864
6606 1 61.8036 13.3814 -151.255 0 4.0597 2 0 4.53999e-06 -0.682828
4418 1 62.334 12.401 -151.357 0 4.13023 2 0 4.53999e-06 -0.398048
8317 1 63.693 13.1436 -151.461 0 4.47446 2 0 4.53999e-06 0.648974
8270 1 62.9128 13.0057 -150.769 0 4.12282 2 0 4.53999e-06 0.154266
6452 1 60.8025 10.9504 -142.841 0 2.8957 3 0 4.53999e-06 -0
8450 1 57.6925 15.6297 -143.048 0 6.35888 3 0 4.53999e-06 -0
6508 1 55.9808 11.4795 -142.619 0 3.52898 3 0 4.53999e-06 0.0963324
8444 1 55.1223 13.3678 -140.908 0 4.08012 2 0 4.53999e-06 -0.253057
8500 1 54.2714 13.6468 -140.305 0 4.03908 2 0 4.53999e-06 -0.944452
9128 1 54.9222 12.8542 -140.117 0 4.07165 2 0 4.53999e-06 -0.522165
8314 1 54.9933 13.646 -139.676 0 4.11094 2 0 4.53999e-06 -0.951007
8263 1 55.4866 13.6635 -140.06 0 4.1375 2 0 4.53999e-06 -0.0774645
6241 1 55.6197 13.1827 -139.662 0 4.13013 2 0 4.53999e-06 0.0861067
2456 1 55.9431 12.7574 -140.358 0 4.10616 2 0 4.53999e-06 0.405438
2600 1 55.9648 13.6613 -140.561 0 4.31475 2 0 4.53999e-06 0.519814
2458 1 56.2489 13.6314 -139.74 0 4.29312 2 0 4.53999e-06 0.924564
3217 1 54.7763 14.337 -139.485 0 4.10142 2 0 4.53999e-06 -0.846858
1691 1 55.0809 14.2281 -140.395 0 4.11004 2 0 4.53999e-06 -0.392174
3970 1 55.5106 14.2412 -139.695 0 4.14939 1 0 4.53999e-06 -0.11183
4324 1 56.07 14.364 -140.067 0 4.32577 2 0 4.53999e-06 0.548207
3220 1 55.2676 13.4196 -139.052 0 4.11866 2 0 4.53999e-06 -0.523989
7660 1 55.6555 13.515 -138.3 0 4.11862 2 0 4.53999e-06 -0.07063
6185 1 56.0757 13.1241 -138.999 0 4.13802 2 0 4.53999e-06 0.464347
8738 1 55.8515 13.7752 -139.254 0 4.15782 1 0 4.53999e-06 0.857608
9427 1 56.473 13.8481 -138.72 0 4.32621 2 0 4.53999e-06 0.913307
8316 1 55.3595 14.0461 -139.095 0 4.13585 1 0 4.53999e-06 -0.752601
3207 1 54.9033 14.1081 -138.506 0 4.09613 2 0 4.53999e-06 -0.784909
3967 1 55.4755 14.7647 -139.055 0 4.14444 2 0 4.53999e-06 -0.206056
4116 1 55.417 14.8385 -138.017 0 4.10467 2 0 4.53999e-06 -0.328028
8990 1 55.7953 14.2261 -138.574 0 4.1526 2 0 4.53999e-06 0.209585
4415 1 56.1517 14.3883 -139.247 0 4.3025 2 0 4.53999e-06 0.75607
2212 1 56.3989 15.0398 -138.482 0 4.44806 2 0 4.53999e-06 0.577243
8442 1 56.2882 14.2129 -137.739 0 4.12065 2 0 4.53999e-06 0.444093
3692 1 54.0744 14.509 -136.044 0 3.33816 3 0 4.53999e-06 -0.532467
3212 1 52.5934 15.5376 -133.029 0 4.28616 2 0 4.53999e-06 0.470256
8102 1 51.664 15.0954 -131.626 0 4.25998 2 0 4.53999e-06 0.0835371
3740 1 50.8385 15.4506 -131.792 0 4.21138 2 0 4.53999e-06 -0.7092
9457 1 44.7159 15.2777 -77.763 0 3.3218 2 0 4.53999e-06 -0.246971
2919 1 35.439 14.8476 -78.7076 0 2.72503 2 0 4.53999e-06 -0.388873
8269 1 52.4352 15.4266 -132.036 0 4.48632 2 0 4.53999e-06 0.679248
4014 1 50.4442 15.3632 -130.971 0 4.16651 2 0 4.53999e-06 -0.897554
3920 1 51.2323 14.9335 -130.824 0 4.20482 2 0 4.53999e-06 -0.140037
8948 1 51.3869 15.6275 -131.088 0 4.25035 1 0 4.53999e-06 -0.364922
8267 1 52.092 15.2912 -130.841 0 4.42946 2 0 4.53999e-06 0.693616
4425 1 37.9106 14.9201 -78.3949 0 2.89822 2 0 4.53999e-06 0.297172
1974 1 50.6983 15.1053 -130.024 0 4.13737 2 0 4.53999e-06 -0.520654
8315 1 51.6641 15.0849 -129.989 0 4.19267 2 0 4.53999e-06 0.38554
3423 1 51.1622 13.9097 -128.226 0 3.93697 3 0 4.53999e-06 -0.0630675
8841 1 44.029 15.2778 -78.5166 0 3.18105 2 0 4.53999e-06 -0.820457
4673 1 48.7756 14.6957 -126.767 0 3.60694 3 0 4.53999e-06 0.209002
8264 1 52.1046 15.5144 -126.683 0 4.86797 3 0 4.53999e-06 0.779237
3642 1 48.7299 14.9786 -124.554 0 4.04357 2 0 4.53999e-06 -0.0781433
3923 1 48.5489 13.9663 -122.789 0 3.99753 2 0 4.53999e-06 0.103571
1687 1 48.1018 15.1387 -123.743 0 4.0067 2 0 4.53999e-06 -0.773218
3278 1 47.7399 14.3373 -122.833 0 3.96228 2 0 4.53999e-06 -0.870005
3738 1 48.4406 14.2491 -123.582 0 4.00859 2 0 4.53999e-06 -0.25464
3737 1 48.3668 14.6516 -123.087 0 4.00861 1 0 4.53999e-06 -0.633049
3793 1 48.1524 15.1879 -122.782 0 3.99161 1 0 4.53999e-06 -0.70131
4634 1 48.9689 14.8002 -123.731 0 4.06766 2 0 4.53999e-06 0.376659
2994 1 49.9024 14.4738 -124.026 0 4.44009 2 0 4.53999e-06 0.785371
9425 1 49.2341 15.5936 -123.977 0 4.27733 2 0 4.53999e-06 0.564248
8101 1 49.1761 14.3663 -123.136 0 4.17925 2 0 4.53999e-06 0.760217
909 1 48.7189 15.3038 -123.297 0 4.04158 2 0 4.53999e-06 0.0225571
8899 1 49.0613 15.0614 -122.738 0 4.03786 1 0 4.53999e-06 0.846196
6188 1 49.5949 15.1406 -123.284 0 4.25866 2 0 4.53999e-06 0.970966
8740 1 48.0302 13.5271 -122.263 0 3.94553 2 0 4.53999e-06 -0.313787
8056 1 48.914 13.534 -121.842 0 4.05578 2 0 4.53999e-06 0.528899
3921 1 48.2757 14.303 -122.244 0 3.98368 1 0 4.53999e-06 -0.36672
2555 1 47.9001 14.8288 -122.176 0 3.96622 1 0 4.53999e-06 -0.849587
3517 1 48.6321 14.8017 -122.422 0 4.0068 1 0 4.53999e-06 0.59079
6687 1 48.5474 15.3456 -121.975 0 3.9816 2 0 4.53999e-06 0.187635
3371 1 47.4271 14.1431 -121.969 0 3.93103 2 0 4.53999e-06 -0.92495
3969 1 47.2711 14.8216 -121.406 0 3.91534 2 0 4.53999e-06 -0.90237
9326 1 48.0943 13.9606 -121.444 0 3.95518 2 0 4.53999e-06 -0.116076
9426 1 48.7084 14.4829 -121.712 0 4.11503 2 0 4.53999e-06 0.657128
8743 1 48.089 14.8423 -121.429 0 3.9594 2 0 4.53999e-06 -0.1201
8837 1 49.1082 14.2938 -122.365 0 4.14569 2 0 4.53999e-06 0.877279
3218 1 47.4209 14.1048 -120.7 0 3.90577 2 0 4.53999e-06 -0.538031
5809 1 48.4165 14.4807 -120.682 0 4.02386 2 0 4.53999e-06 0.441626
6244 1 47.7146 15.3802 -120.598 0 3.90648 2 0 4.53999e-06 -0.192886
8597 1 46.6748 13.0532 -118.043 0 3.57918 3 0 4.53999e-06 -0.470815
8839 1 49.4784 13.8973 -118.747 0 5.25916 3 0 4.53999e-06 0.742244
4131 1 45.292 15.5605 -118.912 0 3.55407 3 0 4.53999e-06 -0.91521
4233 1 47.4504 14.8221 -118.767 0 3.83687 3 0 4.53999e-06 0.38039
8900 1 48.0942 13.5172 -116.267 0 3.80001 3 0 4.53999e-06 0.560363
7375 1 50.4586 13.3795 -116.797 0 5.12765 3 0 4.53999e-06 0.671624
4589 1 46.86 15.4606 -117.099 0 4.07682 3 0 4.53999e-06 -0.344
8265 1 45.4232 13.7651 -115.965 0 3.54681 3 0 4.53999e-06 -0.72945
3871 1 47.7601 14.9169 -114.422 0 3.89687 2 0 4.53999e-06 0.330576
5810 1 44.5958 14.5421 -78.3287 0 3.2216 2 0 4.53999e-06 -0.0530526
3691 1 46.7786 15.0534 -114.058 0 3.83108 2 0 4.53999e-06 -0.666802
3209 1 46.4231 14.3948 -113.238 0 3.79869 2 0 4.53999e-06 -0.846547
8322 1 47.2576 14.2045 -113.835 0 3.85256 2 0 4.53999e-06 -0.0401069
4592 1 46.9686 15.1647 -113.114 0 3.87854 2 0 4.53999e-06 -0.658945
6037 1 48.3463 15.027 -113.572 0 4.28512 2 0 4.53999e-06 0.896875
4414 1 47.5568 15.684 -113.73 0 3.92825 2 0 4.53999e-06 0.0668052
8645 1 47.6668 14.555 -113.097 0 3.94862 2 0 4.53999e-06 0.473539
5815 1 48.5753 14.5914 -112.604 0 4.30558 2 0 4.53999e-06 0.980798
1568 1 47.8481 15.4316 -112.767 0 4.07723 2 0 4.53999e-06 0.445225
8058 1 46.6631 13.8765 -111.751 0 3.76902 2 0 4.53999e-06 -0.654937
6181 1 48.596 13.7373 -111.923 0 4.27731 2 0 4.53999e-06 0.746497
8216 1 47.3842 13.7088 -111.071 0 3.77574 2 0 4.53999e-06 -0.216236
3690 1 46.2252 14.7648 -112.087 0 3.77224 2 0 4.53999e-06 -0.984127
3924 1 46.6004 14.433 -110.97 0 3.73575 2 0 4.53999e-06 -0.972123
3335 1 46.7711 15.4281 -111.277 0 3.77736 2 0 4.53999e-06 -0.470808
9173 1 47.6216 14.0399 -111.841 0 3.88598 2 0 4.53999e-06 0.249584
9424 1 47.021 14.3182 -112.519 0 3.85459 2 0 4.53999e-06 -0.469438
8445 1 47.0792 15.1915 -112.215 0 3.87272 2 0 4.53999e-06 -0.391007
9179 1 47.1675 14.5998 -111.607 0 3.83753 2 0 4.53999e-06 -0.921653
8545 1 47.8002 14.7196 -112.213 0 4.08632 2 0 4.53999e-06 0.928254
1012 1 47.7855 15.2021 -111.475 0 3.99498 2 0 4.53999e-06 0.465674
1146 1 48.078 14.3633 -111.23 0 4.0164 2 0 4.53999e-06 0.987737
4517 1 46.939 13.8314 -110.295 0 3.66117 2 0 4.53999e-06 -0.878466
8845 1 47.6996 13.2095 -110.154 0 3.63961 2 0 4.53999e-06 0.046349
3516 1 47.7819 13.8465 -109.555 0 3.6002 1 0 4.53999e-06 0.380442
7473 1 48.3776 13.6362 -110.763 0 3.99624 2 0 4.53999e-06 0.78337
8745 1 47.1981 13.3447 -109.331 0 3.52089 1 0 4.53999e-06 -0.603778
3639 1 46.969 14.123 -109.437 0 3.56391 1 0 4.53999e-06 -0.992969
6587 1 48.4779 14.1466 -109.797 0 3.81644 2 0 4.53999e-06 0.969962
3971 1 47.2636 14.651 -110.017 0 3.65953 1 0 4.53999e-06 -0.63622
2550 1 47.7535 14.0742 -110.334 0 3.71862 1 0 4.53999e-06 0.649303
1927 1 47.3957 14.6579 -110.837 0 3.78472 1 0 4.53999e-06 -0.261969
1309 1 48.1668 14.8212 -110.407 0 3.92594 2 0 4.53999e-06 0.683442
4677 1 47.8934 14.7534 -109.524 0 3.6176 1 0 4.53999e-06 0.305826
8996 1 46.6203 13.1458 -108.533 0 3.41776 2 0 4.53999e-06 -0.860001
8746 1 48.116 12.9193 -109.196 0 3.48418 2 0 4.53999e-06 0.440494
8441 1 47.6011 13.4422 -108.692 0 3.49672 1 0 4.53999e-06 -0.135743
9325 1 48.3309 13.8394 -108.942 0 3.55845 1 0 4.53999e-06 0.903923
8266 1 48.3566 13.3435 -108.243 0 3.51115 1 0 4.53999e-06 0.785016
8646 1 47.6144 12.6832 -108.156 0 3.43205 2 0 4.53999e-06 0.14363
3693 1 47.4211 13.4184 -107.963 0 3.47431 1 0 4.53999e-06 -0.431872
3515 1 47.5171 14.2998 -108.979 0 3.54812 1 0 4.53999e-06 -0.793456
3277 1 47.0926 15.0277 -109.114 0 3.53626 2 0 4.53999e-06 -0.691089
3235 1 46.9752 14.047 -108.367 0 3.49032 1 0 4.53999e-06 -0.988071
1698 1 48.3653 14.7028 -108.887 0 3.60812 1 0 4.53999e-06 0.803812
905 1 47.7724 14.3157 -108.381 0 3.54789 1 0 4.53999e-06 -0.0671431
4016 1 48.0114 15.5313 -108.905 0 3.59148 2 0 4.53999e-06 0.081297
6034 1 48.0237 14.0134 -107.946 0 3.55512 1 0 4.53999e-06 0.888707
4334 1 47.4247 15.1178 -108.3 0 3.54728 1 0 4.53999e-06 -0.512308
8503 1 48.3021 15.123 -108.033 0 3.67825 1 0 4.53999e-06 0.440019
8552 1 48.7534 14.3039 -108.267 0 3.6296 1 0 4.53999e-06 0.996397
6463 1 49.0952 15.3068 -108.66 0 3.98465 2 0 4.53999e-06 0.796211
2996 1 46.4468 11.3856 -107.082 0 3.26431 2 0 4.53999e-06 0.0130096
2998 1 46.2883 10.9767 -106.185 0 3.27224 2 0 4.53999e-06 0.220906
2993 1 45.7926 11.7112 -106.413 0 3.27693 2 0 4.53999e-06 -0.521611
8054 1 47.2533 11.4964 -106.277 0 3.51886 2 0 4.53999e-06 0.902433
8991 1 46.7258 12.8392 -107.601 0 3.39 2 0 4.53999e-06 -0.707821
3279 1 46.6435 12.1404 -106.751 0 3.33259 2 0 4.53999e-06 0.304555
911 1 46.5461 13.2318 -106.85 0 3.39666 2 0 4.53999e-06 -0.926786
3282 1 45.9693 12.5779 -106.637 0 3.31639 2 0 4.53999e-06 -0.725087
8951 1 47.4168 12.6008 -107.185 0 3.54032 2 0 4.53999e-06 0.533911
1203 1 46.9917 13.6885 -107.46 0 3.46059 1 0 4.53999e-06 -0.987869
8835 1 48.0715 13.2398 -107.397 0 3.49169 1 0 4.53999e-06 0.713024
8950 1 47.6408 14.0079 -107.352 0 3.52735 1 0 4.53999e-06 0.174412
9178 1 47.0246 12.6771 -106.341 0 3.4687 2 0 4.53999e-06 0.835616
8843 1 47.4311 13.3851 -106.788 0 3.46763 1 0 4.53999e-06 0.509777
5813 1 48.5511 14.1205 -107.383 0 3.77629 2 0 4.53999e-06 0.821865
4068 1 46.4026 15.2669 -107.073 0 3.45918 2 0 4.53999e-06 -0.781473
4632 1 47.4169 15.4253 -107.42 0 3.56699 2 0 4.53999e-06 -0.309233