ITEM: TIMESTEP
27000
ITEM: NUMBER OF ATOMS
9495
ITEM: BOX BOUNDS mm mm mm
0.0000000000000000e+00 4.2539242574351533e+01
-6.0808317624171082e-01 3.1748021039364001e+01
-8.8779271655087761e+00 3.1748021039364001e+01
ITEM: ATOMS id type x y z c_phase c_temp c_surf c_nbond c_visc f_3[1]
2149 1 39.9961 13.6718 -7.42575 0 2.74687 2 0 4.53999e-06 -0.469856
1560 1 41.0474 13.6972 -7.36367 0 3.14837 2 0 4.53999e-06 0.515115
2453 1 39.8409 14.3794 -8.1179 0 2.73638 2 0 4.53999e-06 -0.26667
2100 1 39.8555 15.4336 -7.96134 0 2.7444 2 0 4.53999e-06 -0.0890389
2454 1 39.4889 14.7097 -7.2652 0 2.71278 2 0 4.53999e-06 -0.952034
1920 1 40.5224 14.608 -7.45547 0 2.9241 2 0 4.53999e-06 0.469035
2150 1 39.7397 12.2539 -6.13862 0 2.53572 2 0 4.54e-06 -0.560912
2503 1 39.8087 13.3417 -6.37823 0 2.62603 2 0 4.54e-06 -0.925257
1921 1 40.5444 12.8809 -6.01987 0 2.67905 2 0 4.54e-06 0.0204001
1924 1 40.432 12.8615 -7.04163 0 2.74195 2 0 4.53999e-06 -0.0875706
1561 1 41.3361 12.925 -6.59048 0 3.12927 2 0 4.53999e-06 0.564637
3628 1 41.7499 13.3022 -5.75943 0 3.14205 2 0 4.53999e-06 0.770678
2101 1 39.9768 14.1978 -6.61917 0 2.7145 2 0 4.53999e-06 -0.93209
1870 1 39.4439 15.2406 -5.96415 0 2.56586 2 0 4.54e-06 -0.950451
1865 1 39.9871 15.1962 -6.73419 0 2.74317 2 0 4.53999e-06 -0.732651
1469 1 40.123 14.5536 -5.77918 0 2.62767 1 0 4.54e-06 -0.907761
1142 1 40.7771 15.442 -6.23446 0 3.00262 2 0 4.53999e-06 0.537757
1196 1 41.6177 13.9078 -6.53854 0 3.21848 2 0 4.53999e-06 0.770411
900 1 40.849 13.8178 -5.97385 0 2.78624 1 0 4.53999e-06 0.596351
1143 1 41.0183 14.6188 -6.67191 0 2.9274 1 0 4.53999e-06 0.72546
4521 1 41.9051 15.1068 -6.72202 0 3.41877 2 0 4.53999e-06 0.673409
4544 1 42.3659 14.3245 -6.07779 0 3.44683 2 0 4.53999e-06 0.942976
8451 1 41.1505 14.7412 -5.65141 0 2.84734 1 0 4.53999e-06 0.953836
4109 1 42.421 15.2275 -5.62567 0 3.49615 2 0 4.53999e-06 0.941529
1199 1 39.0811 11.6487 -4.01456 0 2.47225 2 0 4.54001e-06 -0.850101
2547 1 39.2652 11.2773 -5.06711 0 2.5084 2 0 4.54001e-06 -0.393613
1008 1 39.8289 10.8622 -3.82552 0 2.69611 2 0 4.53999e-06 0.342059
952 1 40.6331 11.6955 -4.42487 0 2.83974 2 0 4.53999e-06 0.490118
2151 1 39.5752 12.2359 -5.04631 0 2.4791 2 0 4.54001e-06 -0.794694
1562 1 40.5942 12.184 -5.36944 0 2.60901 2 0 4.54e-06 0.320047
1922 1 39.7186 12.4323 -4.03527 0 2.41724 1 0 4.54002e-06 -0.863254
2551 1 39.4451 13.1391 -4.5219 0 2.36124 2 0 4.54005e-06 -0.972233
2105 1 39.8618 13.6038 -5.4268 0 2.50658 1 0 4.54001e-06 -0.932459
2153 1 40.2951 12.9031 -4.86469 0 2.5118 1 0 4.54001e-06 -0.320986
1928 1 40.2613 13.3763 -4.11185 0 2.41027 1 0 4.54003e-06 -0.549731
3522 1 40.5864 12.6729 -3.84301 0 2.47736 1 0 4.54001e-06 0.474033
3630 1 41.4942 12.4668 -4.50609 0 2.94684 2 0 4.53999e-06 0.714884
903 1 41.1482 13.4936 -4.25809 0 2.58189 1 0 4.54e-06 0.939366
1201 1 41.089 13.115 -5.19503 0 2.69919 1 0 4.53999e-06 0.68285
4522 1 42.5361 13.6326 -5.3347 0 3.39138 2 0 4.53999e-06 0.963242
4113 1 42.0931 13.3984 -4.42228 0 3.0623 2 0 4.53999e-06 0.927383
6588 1 38.6201 15.3945 -5.35963 0 2.39497 2 0 4.54003e-06 -0.925792
6973 1 38.5575 15.5099 -4.16467 0 2.3168 2 0 4.54008e-06 -0.879218
2457 1 39.6763 13.979 -4.25389 0 2.32283 1 0 4.54007e-06 -0.912082
2104 1 39.2442 14.9043 -4.24994 0 2.31425 1 0 4.54008e-06 -0.917727
2460 1 39.4584 14.5054 -5.10179 0 2.42129 1 0 4.54002e-06 -0.887547
1149 1 40.4781 14.0506 -4.78049 0 2.50704 1 0 4.54001e-06 -0.00526923
3632 1 40.2102 14.9958 -4.70939 0 2.49355 1 0 4.54001e-06 -0.057691
9333 1 40.9131 14.5904 -4.11673 0 2.52986 1 0 4.54e-06 0.79996
4545 1 41.4494 14.0848 -5.00047 0 2.78051 1 0 4.53999e-06 0.987725
9330 1 41.0534 15.3897 -4.94642 0 2.74597 1 0 4.53999e-06 0.546333
4130 1 41.8889 14.9351 -4.77832 0 3.09725 2 0 4.53999e-06 0.955176
4114 1 42.0303 14.3228 -3.92472 0 2.92917 2 0 4.53999e-06 0.984704
9222 1 41.5145 15.4198 -3.9617 0 2.89867 2 0 4.53999e-06 0.810279
1195 1 38.4375 10.8776 -3.75131 0 2.45922 2 0 4.54001e-06 -0.510602
1253 1 37.752 10.9083 -2.74632 0 2.31325 2 0 4.54008e-06 -0.53973
1976 1 38.4122 11.6565 -3.05419 0 2.30995 2 0 4.54009e-06 -0.705965
3519 1 40.0099 11.8326 -3.42027 0 2.47851 2 0 4.54001e-06 0.330215
4325 1 39.3716 11.2104 -2.71616 0 2.45491 2 0 4.54001e-06 0.247422
2598 1 37.9017 12.4223 -2.53851 0 2.08431 2 0 4.54088e-06 -0.72069
2553 1 38.8896 12.9703 -2.75859 0 2.12791 1 0 4.54057e-06 -0.834429
955 1 39.3936 12.1777 -2.53749 0 2.30076 1 0 4.54009e-06 -0.476397
4417 1 40.5139 12.2411 -2.71065 0 2.58423 2 0 4.54e-06 0.584608
4518 1 39.9686 13.5109 -2.26789 0 2.20492 1 0 4.54026e-06 -0.0632138
954 1 39.8601 12.7441 -3.09911 0 2.31896 1 0 4.54008e-06 -0.665026
1148 1 39.9665 13.5196 -3.18029 0 2.27459 1 0 4.54013e-06 -0.782772
4519 1 40.6138 13.0431 -2.36511 0 2.33073 1 0 4.54007e-06 0.657696
4520 1 40.9032 13.2369 -3.22794 0 2.4259 1 0 4.54002e-06 0.83155
4587 1 41.4919 12.6229 -3.33532 0 2.77488 2 0 4.53999e-06 0.786238
3870 1 41.6979 13.3775 -2.48934 0 2.67867 2 0 4.54e-06 0.916425
7205 1 38.6854 14.8686 -3.37507 0 2.19416 1 0 4.54029e-06 -0.850262
2656 1 37.9441 13.9337 -2.17163 0 1.92001 2 0 4.54459e-06 -0.842324
7204 1 38.7588 14.4055 -2.37428 0 2.06691 1 0 4.54105e-06 -0.888022
6608 1 38.8392 15.2832 -2.31745 0 2.16444 1 0 4.54039e-06 -0.268952
7203 1 38.0296 15.4005 -3.09014 0 2.26212 2 0 4.54014e-06 -0.624428
1869 1 39.2774 13.7981 -2.6566 0 2.12865 1 0 4.54056e-06 -0.874657
1866 1 39.3679 14.2232 -3.50266 0 2.2266 1 0 4.54021e-06 -0.886474
3629 1 40.0352 14.8204 -3.71498 0 2.34327 1 0 4.54006e-06 -0.270944
1466 1 39.4592 14.7057 -2.82882 0 2.19528 1 0 4.54029e-06 -0.827591
8448 1 40.1263 14.2353 -2.52029 0 2.2434 1 0 4.54017e-06 0.250457
9220 1 40.1559 14.9874 -2.63654 0 2.28619 1 0 4.54011e-06 0.238162
3631 1 40.3862 14.08 -3.51626 0 2.34905 1 0 4.54006e-06 0.413733
9329 1 40.6032 15.4087 -3.42705 0 2.45554 1 0 4.54001e-06 0.352927
4548 1 40.8606 13.8728 -2.51067 0 2.35009 1 0 4.54006e-06 0.836593
9334 1 40.8512 14.6472 -3.01695 0 2.4118 1 0 4.54003e-06 0.804996
9218 1 40.98 15.3423 -2.26508 0 2.63337 2 0 4.54e-06 0.577715
4125 1 41.2637 13.9985 -3.43324 0 2.48978 1 0 4.54001e-06 0.996775
8739 1 41.517 14.4371 -2.13888 0 2.64591 2 0 4.54e-06 0.829206
8992 1 41.7476 14.9366 -3.06652 0 2.80326 2 0 4.53999e-06 0.917314
1681 1 35.1296 10.3468 -0.947857 0 2.13245 2 0 4.54054e-06 -0.585065
1688 1 35.6381 11.0666 -1.00151 0 2.01047 2 0 4.54185e-06 -0.673963
1685 1 37.1329 11.1343 -1.80615 0 2.14155 2 0 4.54049e-06 -0.220967
2452 1 36.239 11.5766 -1.65218 0 2.0195 2 0 4.54169e-06 -0.440947
1259 1 36.4592 10.5692 -1.16334 0 2.11619 2 0 4.54064e-06 0.00529075
1011 1 36.6127 11.1588 -0.658847 0 2.02145 1 0 4.54166e-06 0.246083
4326 1 37.4278 10.8921 -0.801491 0 2.19189 2 0 4.5403e-06 0.420607
2202 1 35.7777 11.7117 -0.52361 0 1.90157 2 0 4.54551e-06 -0.637653
1569 1 36.804 11.9153 -1.0259 0 1.97376 2 0 4.54267e-06 -0.313671
3425 1 38.1512 11.1171 -1.88015 0 2.25873 2 0 4.54015e-06 0.0903526
1010 1 38.5773 11.9745 -2.00594 0 2.21357 2 0 4.54024e-06 -0.562712
1255 1 37.6503 11.6279 -1.16325 0 2.10474 2 0 4.54072e-06 0.229361
4630 1 38.9929 11.2266 -1.42642 0 2.38695 2 0 4.54004e-06 0.402015
4229 1 38.7333 11.7022 -0.625177 0 2.38843 2 0 4.54004e-06 0.647936
4588 1 39.8907 11.6667 -1.82754 0 2.59547 2 0 4.54e-06 0.541585
1566 1 37.2106 12.3412 -0.449122 0 1.90799 1 0 4.54517e-06 -0.259086
2599 1 37.5233 12.8682 -1.53972 0 1.90565 2 0 4.5453e-06 -0.713682
3521 1 38.0771 12.2697 -0.98829 0 2.06052 1 0 4.54112e-06 0.161217
1923 1 38.2576 13.5907 -0.476737 0 1.85825 1 0 4.54852e-06 -0.27594
1926 1 38.6021 12.8702 -1.15359 0 2.01422 1 0 4.54178e-06 -0.657482
2552 1 38.7582 13.5229 -1.78378 0 1.98775 1 0 4.54233e-06 -0.840405
4420 1 39.3546 12.2403 -1.10054 0 2.37891 2 0 4.54004e-06 0.559116
901 1 39.4097 13.3127 -1.01369 0 2.03936 1 0 4.54139e-06 0.43037
4227 1 40.5987 12.4182 -1.61986 0 2.53818 2 0 4.54e-06 0.647991
3520 1 39.6796 12.7142 -1.79135 0 2.21341 1 0 4.54024e-06 0.144108
4546 1 40.3646 13.3062 -1.21177 0 2.28722 2 0 4.54011e-06 0.550206
3213 1 41.2237 13.6531 -1.49513 0 2.52264 2 0 4.54e-06 0.730802
6590 1 37.2146 14.7013 -0.873384 0 1.90024 1 0 4.54559e-06 -0.591989
7376 1 36.506 15.3596 -1.4565 0 2.13677 2 0 4.54052e-06 -0.56631
7374 1 36.6408 15.2304 -0.501389 0 1.94763 1 0 4.54347e-06 -0.622881
6972 1 38.013 14.3044 -0.787449 0 1.87944 1 0 4.54689e-06 -0.640231
4516 1 38.9941 14.1449 -1.03285 0 1.97939 1 0 4.54253e-06 0.828097
6304 1 38.4676 14.6418 -1.55661 0 2.00558 1 0 4.54194e-06 -0.809529
6301 1 38.0886 15.1755 -0.977665 0 2.00666 1 0 4.54192e-06 -0.192295
8546 1 38.7922 15.3386 -0.490961 0 2.05832 1 0 4.54114e-06 0.624069
6970 1 37.7883 15.0454 -1.98929 0 2.1047 1 0 4.54072e-06 -0.713901
3873 1 39.9876 13.9945 -0.556401 0 2.25695 2 0 4.54015e-06 0.723761
902 1 39.647 14.0437 -1.68319 0 2.10663 1 0 4.5407e-06 0.414685
7555 1 39.3776 14.8446 -1.67005 0 2.11652 1 0 4.54064e-06 0.496037
9221 1 40.6112 14.4581 -1.41684 0 2.41006 2 0 4.54003e-06 0.642106
8944 1 40.1373 15.1151 -0.849595 0 2.43088 2 0 4.54002e-06 0.816733
1 1 0.116341 1.10259 0.464337 4 3.12043e-06 2 0 0.0994487 -0.68194
5 1 0.729896 0.0633724 0.61602 4 2.80535e-06 3 0 0.0994487 -0.190374
9 1 2.52093 0.749102 0.203812 4 1.06493e-05 2 0 0.0994487 -0.142938
6 1 1.71015 0.808983 1.0155 4 7.28309e-06 2 0 0.0994487 -0.332067
10 1 2.59149 0.0538711 1.03726 4 1.02769e-05 2 0 0.0994487 -0.295003
16 1 4.10576 0.858321 0.325305 4 3.26391e-05 2 0 0.0994487 0.153149
20 1 3.47612 0.111428 0.171027 4 1.50998e-05 2 0 0.0994487 0.166216
13 1 3.43386 0.933692 0.956349 4 2.15253e-05 2 0 0.0994487 0.32025
17 1 4.96159 0.56786 1.17466 4 5.9727e-05 2 0 0.0994487 -0.0370616
21 1 5.64741 0.645627 0.325839 4 9.30498e-05 2 0 0.0994487 -0.0806009
26 1 6.7138 0.39031 0.865278 4 0.000167796 2 0 0.0994487 -0.079376
32 1 7.58247 0.647807 0.140287 4 0.000278609 2 0 0.0994487 -0.110931
28 1 8.2679 0.408875 1.07337 4 0.000376142 2 0 0.0994487 -0.100157
33 1 8.85849 0.508506 0.273966 4 0.000508245 2 0 0.0994487 -0.061639
34 1 9.55301 0.3386 0.888639 4 0.000692047 2 0 0.0994487 0.00507541
43 1 10.2431 0.367861 0.0780499 4 0.000857487 2 0 0.0994487 0.149808
38 1 11.2128 0.215893 0.632658 4 0.00149829 2 0 0.0994487 0.203519
39 1 10.3637 1.04743 0.823114 4 0.00119521 2 0 0.0994487 0.539916
44 1 12.8757 0.211714 0.636805 4 0.00355867 2 0 0.0994487 0.0588048
45 1 12.0457 1.07408 0.506655 4 0.00302682 2 0 0.0994487 -0.0235293
49 1 13.5924 1.113 0.843618 4 0.00653947 2 0 0.0994487 -0.262996
59 1 15.1049 0.711806 0.0677822 4 0.00958589 2 0 0.0994487 0.169215
48 1 14.3729 0.318493 0.764646 4 0.0072478 2 0 0.0994487 -0.0460208
54 1 15.7061 0.770636 0.788259 4 0.0143751 2 0 0.0994487 0.36652
60 1 17.2544 0.732268 0.547589 4 0.0317494 2 0 0.0994487 0.0286566
65 1 18.7918 0.725074 0.684829 4 0.0631852 2 0 0.0994487 -0.26992
64 1 19.5372 0.0167772 0.662766 4 0.0608357 2 0 0.0994487 0.0436587
71 1 20.2493 0.776373 0.980057 4 0.108926 2 0 0.0994487 -0.0497244
73 1 21.1874 0.765598 0.218806 4 0.118503 2 0 0.0994487 -0.0446028
75 1 22.0087 0.262534 0.539755 4 0.132964 2 0 0.0994487 0.0992384
70 1 21.0889 0.349843 1.06749 4 0.12613 2 0 0.0994487 -0.200909
79 1 22.9157 1.07463 0.445168 4 0.188047 2 0 0.0994487 0.0524987
81 1 23.5672 0.357563 0.57369 4 0.184133 2 0 0.0994487 0.0383725
84 1 24.955 0.315686 0.551996 4 0.216935 2 0 0.0994487 -0.0169335
82 1 24.4367 1.18687 0.754729 0 0.264244 2 0 0.0993649 -0.0203378
88 1 25.8917 0.929212 0.432102 0 0.255219 2 0 0.0994195 -0.0953458
93 1 26.7925 0.240345 0.226621 4 0.206153 2 0 0.0994487 0.0380782
85 1 26.0085 0.383365 1.1715 0 0.273162 2 0 0.0993059 -0.180859
91 1 26.7559 1.02809 1.26347 0 0.314115 2 0 0.0989569 -0.26692
90 1 27.6142 0.50928 0.874321 4 0.245026 2 0 0.0994487 0.175549
98 1 29.2734 0.3547 0.615275 4 0.141549 2 0 0.0994487 -0.081677
100 1 30.7016 0.49015 0.470738 4 0.0955788 2 0 0.0994487 0.354855
99 1 31.5874 0.266128 1.25663 4 0.0566234 3 0 0.0994487 0.830097
103 1 1.11081 2.43607 0.129285 4 6.93483e-06 2 0 0.0994487 -0.0373215
2 1 0.974108 1.6685 0.77798 4 5.75922e-06 2 0 0.0994487 -0.51703
104 1 0.133403 2.3821 0.812241 4 4.92704e-06 2 0 0.0994487 -0.984517
7 1 1.80059 1.47468 0.221075 4 8.25388e-06 2 0 0.0994487 -0.125828
113 1 2.7261 2.38168 0.0557193 4 1.74838e-05 2 0 0.0994487 0.146602
11 1 2.64922 1.541 0.882848 4 1.49896e-05 2 0 0.0994487 0.235765
109 1 1.90972 2.41867 0.78376 4 1.21149e-05 2 0 0.0994487 0.0782127
114 1 3.38195 2.55413 0.779289 4 3.4502e-05 2 0 0.0994487 0.211588
18 1 4.91949 1.59987 0.383508 4 7.40897e-05 2 0 0.0994487 -0.100243
115 1 4.00679 1.841 0.711184 4 4.27478e-05 2 0 0.0994487 -0.0361171
116 1 4.91383 2.57277 0.815661 4 0.000101405 2 0 0.0994487 -0.259339
23 1 6.57478 1.39104 0.218369 4 0.000191566 2 0 0.0994487 -0.0861275
119 1 5.65047 2.44269 0.132743 4 0.0001503 2 0 0.0994487 -0.189922
124 1 6.65033 2.92778 0.134227 4 0.00029765 2 0 0.0994487 0.0288921
22 1 5.88414 1.31048 0.938036 4 0.000125837 2 0 0.0994487 -0.199547
120 1 6.55776 2.18062 0.772597 4 0.00024052 2 0 0.0994487 -0.289333
30 1 8.24709 1.39092 0.236779 4 0.000470046 2 0 0.0994487 -0.0460553
125 1 7.45405 2.22586 0.139832 4 0.00039762 2 0 0.0994487 -0.0534952
130 1 8.26934 2.9712 0.0392146 4 0.000828058 2 0 0.0994487 -0.150611
29 1 7.36782 1.22285 0.954198 4 0.000287093 2 0 0.0994487 -0.30251
126 1 8.08209 2.20208 0.930382 4 0.000576148 2 0 0.0994487 -0.302012
37 1 9.63995 1.37474 0.0900752 4 0.000869207 2 0 0.0994487 0.0992993
131 1 8.90393 2.08699 0.252387 4 0.0008168 2 0 0.0994487 0.00244393
135 1 9.56096 2.90576 0.21312 4 0.0015265 2 0 0.0994487 0.17313
35 1 9.02586 1.30716 1.1133 4 0.000686287 2 0 0.0994487 -0.0606113
132 1 9.77243 2.0246 1.10996 4 0.00126478 2 0 0.0994487 0.173512
133 1 8.92671 2.97262 0.928693 4 0.00121154 2 0 0.0994487 -0.156686
136 1 10.2834 2.1137 0.214297 4 0.00149936 2 0 0.0994487 0.337748
137 1 11.1583 1.82604 0.771092 4 0.0023898 2 0 0.0994487 0.260123
138 1 10.6214 2.80819 0.921535 4 0.00268357 2 0 0.0994487 0.54196
140 1 12.6737 1.94118 0.593851 4 0.00569746 2 0 0.0994487 -0.283898
152 1 13.4137 2.29398 0.0590902 4 0.00889847 2 0 0.0994487 -0.280946
141 1 11.928 2.64099 0.742299 4 0.00498085 2 0 0.0994487 -0.0386381
50 1 14.0399 1.55958 0.167469 4 0.00892403 2 0 0.0994487 -0.089807
150 1 14.8418 2.51505 0.136557 4 0.0173616 2 0 0.0994487 0.173029
53 1 14.8761 1.55337 0.662943 4 0.0124052 2 0 0.0994487 0.390004
146 1 14.0206 2.44438 0.927124 4 0.0122602 2 0 0.0994487 -0.132958
55 1 16.5532 1.54451 0.681338 4 0.0299529 2 0 0.0994487 0.000860342
153 1 15.6993 2.44373 0.692668 4 0.0265492 2 0 0.0994487 0.36447
61 1 17.9231 1.58109 0.757246 4 0.0598872 2 0 0.0994487 0.0416101
158 1 17.0646 2.35032 0.682778 4 0.0526276 2 0 0.0994487 0.0235333
159 1 17.944 2.92608 0.699539 4 0.0999077 2 0 0.0994487 -0.230921
74 1 20.3457 1.51479 0.193617 4 0.121213 2 0 0.0994487 -0.0805731
165 1 19.587 2.34239 0.101452 4 0.127384 2 0 0.0994487 -0.132352
66 1 19.5395 1.55488 0.841653 4 0.113393 2 0 0.0994487 -0.336813
162 1 18.8908 2.35742 1.01358 4 0.124779 2 0 0.0994487 -0.517727
168 1 20.1948 2.46882 1.11433 4 0.182646 2 0 0.0994487 0.439389
78 1 21.9982 1.59955 0.538558 4 0.184327 2 0 0.0994487 0.182621
167 1 21.1565 2.41663 0.458355 4 0.195185 2 0 0.0994487 0.193011
72 1 21.1062 1.65725 0.951506 4 0.170902 2 0 0.0994487 0.580108
173 1 22.0961 2.49917 1.23787 0 0.288262 2 0 0.0991932 0.343151
176 1 23.7438 1.80844 0.624025 0 0.277706 2 0 0.0992737 -0.0862261
172 1 22.9717 2.60199 0.735523 0 0.311168 2 0 0.0989868 0.129181
181 1 24.9562 2.84566 0.0146836 0 0.377342 2 0 0.0980476 -0.0864591
183 1 25.1322 1.85613 0.509414 0 0.324423 2 0 0.0988443 -0.0227474
178 1 24.342 2.68296 0.775192 0 0.390781 2 0 0.0977705 -0.312719
182 1 26.5483 1.79415 0.511367 0 0.318992 2 0 0.098905 -0.00443824
184 1 25.7918 2.61203 0.707489 0 0.412311 2 0 0.0972439 0.213474
191 1 27.0867 2.6924 0.645359 0 0.403746 2 0 0.0974667 -0.102191
89 1 27.5736 1.28032 0.38906 0 0.261578 2 0 0.0993815 0.0454969
190 1 28.2489 2.09022 0.343734 0 0.301444 2 0 0.0990803 -0.0176906
94 1 28.6489 1.24263 0.742341 4 0.235213 2 0 0.0994487 0.1024
189 1 27.5039 1.98546 1.23792 0 0.366335 2 0 0.098249 -0.18581
193 1 28.2537 2.75799 1.20639 0 0.435639 2 0 0.0965352 -0.526728
197 1 29.1956 2.6589 0.290703 0 0.310496 2 0 0.0989937 -0.0577769
204 1 30.4116 1.90909 0.0255368 4 0.181369 2 0 0.0994487 0.106056
101 1 30.1009 1.19877 0.774133 4 0.161449 2 0 0.0994487 0.210938
196 1 29.4477 2.04702 0.879698 0 0.27227 2 0 0.0993121 -0.00588471
200 1 30.1815 2.71094 1.00186 0 0.312571 2 0 0.0989728 0.705423
205 1 31.1434 2.66402 0.0761253 4 0.213035 2 0 0.0994487 0.708829
199 1 30.9114 1.98502 0.924207 4 0.204219 2 0 0.0994487 0.96723
108 1 0.332248 3.09582 0.131296 4 6.17945e-06 2 0 0.0994487 -0.59134
207 1 0.143046 4.59443 0.482118 4 9.60267e-06 2 0 0.0994487 -0.784494
210 1 1.04069 3.86421 0.0595682 4 1.09396e-05 2 0 0.0994487 0.014888
105 1 1.28845 3.23764 0.949187 4 1.11067e-05 2 0 0.0994487 0.222097
206 1 0.293831 3.78503 0.918557 4 8.2463e-06 2 0 0.0994487 -0.999347
208 1 1.14036 4.67093 0.986638 4 1.67837e-05 2 0 0.0994487 -0.516756
213 1 2.64953 4.14475 0.20674 4 3.8919e-05 2 0 0.0994487 -0.0285714
110 1 2.65852 3.28029 0.860875 4 2.82372e-05 2 0 0.0994487 0.0668073
211 1 1.84117 4.04604 0.847105 4 2.1722e-05 2 0 0.0994487 0.00827076
219 1 4.26027 4.18509 0.149001 4 0.000114275 2 0 0.0994487 0.0377398
220 1 5.00947 4.74001 0.341082 4 0.000226875 2 0 0.0994487 0.0765424
117 1 4.20148 3.3175 0.749446 4 8.24291e-05 2 0 0.0994487 0.00622024
216 1 3.494 4.07675 0.885909 4 6.71756e-05 2 0 0.0994487 0.0268991
217 1 4.91235 4.00001 1.18344 4 0.000167138 2 0 0.0994487 0.0115242
221 1 5.77735 3.9378 0.198707 4 0.000258255 2 0 0.0994487 0.0260191
121 1 5.64874 3.19593 0.952489 4 0.000199045 2 0 0.0994487 -0.754605
222 1 6.48883 3.76611 0.772067 4 0.000394003 2 0 0.0994487 0.204565
223 1 5.68025 4.73638 1.02487 4 0.000360028 2 0 0.0994487 -0.621627
227 1 7.40842 4.46072 0.5468 4 0.000930497 2 0 0.0994487 -0.0252043
127 1 7.40132 3.06835 0.934051 4 0.000536918 2 0 0.0994487 -0.0454466
226 1 8.1982 3.892 0.700757 4 0.00120188 2 0 0.0994487 -0.369884
232 1 9.86266 4.50302 0.126324 4 0.00330555 2 0 0.0994487 0.0958745
235 1 8.98541 3.86821 0.0631775 4 0.00173459 2 0 0.0994487 -0.138748
230 1 9.8976 3.57792 0.885667 4 0.00257071 2 0 0.0994487 0.592867
231 1 9.07913 4.56551 0.821335 4 0.0025001 2 0 0.0994487 -0.658518
238 1 11.3867 4.69403 0.230734 4 0.0083446 2 0 0.0994487 -0.0498758
242 1 10.5826 3.84888 0.176129 4 0.00383386 2 0 0.0994487 0.210476
236 1 11.408 3.64493 0.778297 4 0.00571629 2 0 0.0994487 0.202098
237 1 10.5891 4.66652 0.906264 4 0.00557939 2 0 0.0994487 0.0451667
247 1 12.6435 4.61885 0.0632315 4 0.0150211 2 0 0.0994487 -0.0335619
144 1 13.1791 3.03035 0.848852 4 0.0105395 2 0 0.0994487 -0.44078
243 1 12.5168 3.57716 0.814749 4 0.00958031 2 0 0.0994487 -0.0105286
244 1 12.1916 4.55033 1.00021 4 0.0117536 2 0 0.0994487 0.105179
246 1 13.2258 4.67863 0.80017 4 0.0199201 2 0 0.0994487 -0.0045764
151 1 14.1591 3.2262 0.0325348 4 0.0172695 2 0 0.0994487 -0.246087
254 1 14.961 4.19423 0.096508 4 0.0340305 2 0 0.0994487 0.0323029
148 1 14.6961 3.43698 0.884932 4 0.0242831 2 0 0.0994487 -0.33267
248 1 13.9891 4.12825 0.69648 4 0.023318 2 0 0.0994487 -0.430094
157 1 15.5706 3.25854 0.0192499 4 0.0297172 2 0 0.0994487 0.29026
256 1 15.8798 4.77595 0.186426 4 0.0622003 2 0 0.0994487 0.165441
154 1 16.3029 3.20095 0.662084 4 0.0469521 2 0 0.0994487 0.328666
255 1 15.6685 4.06642 0.926277 4 0.0474405 2 0 0.0994487 0.872685
257 1 16.5936 4.58036 0.900182 4 0.0881445 2 0 0.0994487 -0.078887
263 1 17.4569 4.57727 0.0147963 4 0.1137 2 0 0.0994487 -0.0973754
264 1 18.1348 3.8547 0.0583493 4 0.123297 2 0 0.0994487 -0.120496
260 1 17.2689 3.83372 0.811237 4 0.0990081 2 0 0.0994487 -0.345175
261 1 18.0864 4.48855 1.09806 4 0.163282 2 0 0.0994487 -0.781271
164 1 18.884 2.99607 0.196019 4 0.128793 2 0 0.0994487 -0.171789
266 1 18.8235 4.60949 0.361826 4 0.180977 2 0 0.0994487 0.115611
269 1 19.5987 3.76722 0.227421 4 0.179163 2 0 0.0994487 0.164154
163 1 19.7027 3.2427 1.27782 4 0.202866 2 0 0.0994487 0.422744
265 1 18.8779 3.70667 0.95022 4 0.16942 2 0 0.0994487 0.0460254
267 1 19.6906 4.67872 1.0803 0 0.258767 2 0 0.0993985 0.925635
170 1 20.4222 2.99313 0.334941 4 0.185106 2 0 0.0994487 0.185261
174 1 21.9898 3.20043 0.598797 0 0.295758 2 0 0.0991308 -0.0661785
273 1 21.0824 3.93136 0.512408 0 0.280987 2 0 0.0992496 0.0834689
270 1 20.4384 3.82188 1.23329 0 0.269019 2 0 0.0993339 0.419389
175 1 22.6771 3.40124 0.07601 0 0.321526 2 0 0.098877 0.0761603
278 1 22.6119 4.34705 0.510028 0 0.406998 2 0 0.097384 -0.0206614
279 1 23.5735 3.63903 0.782677 0 0.427742 2 0 0.0967927 0.163601
280 1 24.336 4.32055 0.625018 0 0.522027 2 0 0.0920107 -0.138776
285 1 25.0629 3.68037 0.802132 0 0.508376 2 0 0.0929865 -0.184693
290 1 25.5284 4.40089 0.388179 0 0.554567 2 0 0.0891439 0.0529527
188 1 26.1686 3.50068 0.599043 0 0.49482 2 0 0.0938423 0.168346
294 1 27.0674 4.04323 0.570038 0 0.535619 2 0 0.090913 0.0104341
194 1 27.982 3.21993 0.326384 0 0.414665 2 0 0.0971795 -0.124398
292 1 27.9624 3.97641 1.10408 0 0.568266 2 0 0.087673 -0.482121
293 1 28.2771 4.73475 0.706344 0 0.588303 2 0 0.085191 -0.0709736
203 1 30.1092 3.25953 0.132205 0 0.304791 2 0 0.0990492 -0.0443242
295 1 28.9321 3.77016 0.487204 0 0.443716 2 0 0.0962504 -0.00557971
299 1 30.2046 4.67765 0.491317 0 0.487347 2 0 0.0942714 0.0152825
198 1 29.2495 3.2651 1.17365 0 0.442752 2 0 0.0962856 0.224156
297 1 29.9979 4.07209 1.02303 0 0.4766 2 0 0.0948368 -0.299762
298 1 31.0296 3.97382 0.373364 0 0.360228 2 0 0.098352 0.657539
201 1 31.0247 3.35309 0.97101 0 0.355868 2 0 0.0984216 0.997032
301 1 0.908283 5.53205 0.461647 4 1.96744e-05 2 0 0.0994487 -0.463785
209 1 0.0884667 5.26681 1.27761 4 1.15467e-05 2 0 0.0994487 -0.887459
303 1 0.793684 6.22023 1.2768 4 2.29106e-05 2 0 0.0994487 -0.703381
214 1 1.89758 4.96895 0.278386 4 3.05343e-05 2 0 0.0994487 -0.153433
307 1 1.89588 6.19966 0.519025 4 4.40409e-05 2 0 0.0994487 -0.1564
311 1 2.68177 5.61289 0.273587 4 6.24301e-05 2 0 0.0994487 -0.0596853
312 1 3.39503 6.28191 0.500536 4 0.000133071 2 0 0.0994487 -0.121444
212 1 2.54049 4.85585 1.13748 4 4.52809e-05 2 0 0.0994487 -0.333845
215 1 3.40771 4.86189 0.161635 4 8.09173e-05 2 0 0.0994487 -0.0163872
313 1 4.18979 5.46246 0.325783 4 0.000171091 2 0 0.0994487 0.0310185
316 1 4.82567 6.23357 0.333842 4 0.000344236 2 0 0.0994487 -0.0345755
218 1 4.04658 4.88002 1.14639 4 0.00012565 2 0 0.0994487 0.264492
315 1 4.13622 6.09659 1.22779 4 0.000213444 2 0 0.0994487 -0.0893889
319 1 5.78575 5.42185 0.301847 4 0.000475191 2 0 0.0994487 0.0125038
323 1 6.37773 6.04115 0.154639 4 0.000783703 2 0 0.0994487 0.111114
225 1 6.68072 5.1315 0.885352 4 0.000762128 2 0 0.0994487 0.20687
320 1 5.6935 6.24342 0.9632 4 0.00061919 2 0 0.0994487 -0.967756
331 1 7.33029 5.3575 0.0461812 4 0.00111515 2 0 0.0994487 0.08136
325 1 8.21355 5.31419 0.694273 4 0.00207193 2 0 0.0994487 -0.0895765
326 1 7.32761 6.15925 0.754293 4 0.0016226 2 0 0.0994487 0.225737
337 1 9.76329 6.23201 0.0941385 4 0.00640717 2 0 0.0994487 -0.0359492
338 1 8.99733 5.46479 0.012702 4 0.00320282 2 0 0.0994487 -0.13475
332 1 9.76796 5.3194 0.792562 4 0.00465222 2 0 0.0994487 0.328485
333 1 8.88016 6.18865 0.736908 4 0.00418522 2 0 0.0994487 -0.235532
340 1 11.3128 6.37134 0.0776634 4 0.0130968 2 0 0.0994487 0.100354
241 1 11.3894 5.27213 0.983682 4 0.0103963 2 0 0.0994487 -0.67441
339 1 10.5831 6.02196 0.964384 4 0.00936921 2 0 0.0994487 -0.356181
345 1 11.7774 6.20735 1.05291 4 0.0168222 2 0 0.0994487 0.292457
343 1 11.9994 5.6274 0.183157 4 0.0144995 2 0 0.0994487 -0.010512
348 1 13.3212 5.53867 0.0424813 4 0.0268722 2 0 0.0994487 -0.142888
344 1 12.6757 5.81849 0.861776 4 0.0222385 2 0 0.0994487 0.0818364
253 1 14.1405 4.90647 0.0597868 4 0.0316137 2 0 0.0994487 -0.0856646
351 1 14.1303 6.38483 0.0380077 4 0.0481328 2 0 0.0994487 -0.0825874
352 1 15.0282 5.64393 0.034369 4 0.0557141 2 0 0.0994487 0.057399
251 1 14.9402 5.01141 0.811699 4 0.0466549 2 0 0.0994487 -0.0516875
349 1 14.0617 5.71565 0.77266 4 0.040517 2 0 0.0994487 -0.372397
354 1 15.0472 6.45091 0.806774 4 0.0782967 2 0 0.0994487 -0.176105
357 1 16.62 5.41933 0.276819 4 0.102443 2 0 0.0994487 0.0799937
358 1 15.6753 6.3382 0.0390223 4 0.0879102 2 0 0.0994487 0.0398861
353 1 15.8305 5.73813 0.95832 4 0.0854258 2 0 0.0994487 0.626056
355 1 16.491 6.45257 1.1401 4 0.140537 2 0 0.0994487 0.183974
361 1 17.0619 6.27419 0.411469 4 0.150412 2 0 0.0994487 0.138447
359 1 17.8271 5.30128 0.541411 4 0.159883 2 0 0.0994487 0.149682
364 1 18.3714 6.23173 0.609762 4 0.23101 2 0 0.0994487 0.151476
360 1 17.113 5.42499 1.24767 4 0.142552 2 0 0.0994487 -0.332401
274 1 20.1339 4.78559 0.352846 0 0.263148 2 0 0.0993717 0.143375
365 1 19.429 5.75829 0.62055 0 0.282779 2 0 0.099236 0.046812
268 1 18.7859 5.27693 1.20102 4 0.241613 2 0 0.0994487 0.423496
373 1 21.6904 5.73259 0.0517844 0 0.426581 2 0 0.0968289 -0.00166767
272 1 21.5775 4.95128 0.810455 0 0.398307 2 0 0.0975986 -0.0326272
368 1 20.7494 5.77593 0.653722 0 0.384495 2 0 0.0979044 -0.0911007
283 1 23.5518 5.06386 0.533607 0 0.528481 2 0 0.0915057 -0.0832577
277 1 22.4705 5.17735 1.27286 0 0.510497 2 0 0.0928422 -0.0850187
374 1 22.6732 5.8279 0.674154 0 0.527759 2 0 0.0915635 0.0051189
282 1 24.8518 5.25716 0.566763 0 0.606626 2 0 0.082538 0.040359
379 1 24.1457 6.00685 0.427617 0 0.617548 2 0 0.0807682 0.00349597
378 1 24.3197 6.56281 1.15825 0 0.694227 2 0 0.063841 0.337628
289 1 26.5026 4.97257 0.640732 0 0.621689 2 0 0.0800588 0.101548
380 1 25.6831 5.86213 0.700952 0 0.677805 2 0 0.0681532 0.149336
386 1 26.7485 6.36567 0.651888 0 0.714636 2 0 0.0579946 0.0377593
393 1 28.4685 6.20589 0.638647 0 0.66736 2 0 0.0707047 -0.258646
395 1 28.4822 5.38976 0.0592959 0 0.585757 2 0 0.0855299 -0.105113
385 1 27.4966 5.54334 0.722172 0 0.660941 2 0 0.0721929 -0.236612
394 1 29.3762 6.15398 0.0801838 0 0.608585 2 0 0.0822348 0.0964463
390 1 29.3889 5.30889 0.818726 0 0.628064 2 0 0.0789256 0.165389
398 1 30.3958 6.18258 0.649752 0 0.643972 2 0 0.0758571 0.290475
396 1 30.9636 5.36838 0.595026 0 0.551574 2 0 0.0894462 0.648326
401 1 31.7235 5.99622 0.446564 0 0.536293 2 0 0.0908574 0.873862
305 1 0.969942 6.9454 0.573423 4 3.12687e-05 2 0 0.0994487 -0.473532
406 1 1.59266 7.76478 0.37187 4 5.33257e-05 2 0 0.0994487 -0.0897882
402 1 0.261851 7.63199 0.661866 4 2.62493e-05 2 0 0.0994487 -0.876373
408 1 2.48799 7.14986 0.476331 4 8.84985e-05 2 0 0.0994487 -0.0836966
412 1 3.24418 7.77117 0.327041 4 0.000174133 2 0 0.0994487 -0.196206
310 1 3.25442 6.96226 1.12748 4 0.000144898 2 0 0.0994487 -0.0541242
306 1 1.7053 7.02884 1.23811 4 4.70633e-05 2 0 0.0994487 0.0665179
410 1 2.39416 7.81099 1.27726 4 9.30896e-05 2 0 0.0994487 0.0869911
318 1 4.00267 7.02511 0.221759 4 0.00024546 2 0 0.0994487 -0.0853442
416 1 4.67023 7.63706 0.247803 4 0.00043301 2 0 0.0994487 0.0376909
317 1 4.77312 6.79931 1.15967 4 0.000415871 2 0 0.0994487 -0.305931
414 1 3.97971 7.67009 1.24863 4 0.000283932 2 0 0.0994487 -0.0554899
415 1 4.70459 8.25653 0.921772 4 0.00051991 2 0 0.0994487 0.295321
324 1 5.54993 7.05206 0.147147 4 0.000667984 2 0 0.0994487 0.0363858
418 1 5.86955 8.34822 0.169905 4 0.00109024 2 0 0.0994487 0.113103
420 1 6.49365 7.53799 0.169175 4 0.00140261 2 0 0.0994487 0.187622
322 1 6.43234 6.86927 1.00965 4 0.00120625 2 0 0.0994487 0.851663
419 1 5.48363 7.59071 1.03232 4 0.000806128 2 0 0.0994487 -0.467671
421 1 6.39674 8.23976 1.04384 4 0.00175274 2 0 0.0994487 0.338132
426 1 7.99895 7.60312 0.0282118 4 0.00367821 2 0 0.0994487 0.0674123
329 1 8.01352 6.85364 0.728993 4 0.00324986 2 0 0.0994487 0.0691892
422 1 7.28583 7.76918 0.746313 4 0.00284917 2 1 0.0994487 0.00991501
423 1 8.2859 8.31376 0.868772 4 0.00621116 2 2 0.0994487 0.278106
427 1 9.84313 7.22199 0.72344 4 0.0102818 2 1 0.0994487 -0.34694
428 1 8.91207 7.61626 0.661731 4 0.00698876 2 1 0.0994487 0.158505
341 1 10.5187 6.94145 0.15452 4 0.0116958 2 0 0.0994487 -0.0735246
436 1 11.227 8.11851 0.0422735 4 0.0218195 2 0 0.0994487 0.174343
432 1 11.3161 7.14287 0.810636 4 0.0190376 2 1 0.0994487 0.448675
433 1 10.5731 7.9454 0.844311 4 0.0183219 2 3 0.0994487 -0.197673
437 1 12.7061 7.28322 0.565784 4 0.0396757 2 0 0.0994487 -0.0531029
438 1 12.178 8.23518 0.590765 4 0.0397555 2 2 0.0994487 0.163919
347 1 13.3506 6.58297 0.813679 4 0.0410038 2 0 0.0994487 -0.292039
443 1 13.6169 8.09282 0.464536 4 0.0710087 2 2 0.0994487 0.0238407
442 1 14.3373 7.3542 0.580954 4 0.0771113 2 0 0.0994487 0.0649545
448 1 15.0689 8.29247 0.865596 4 0.134581 2 3 0.0994487 -0.312081
446 1 16.4328 7.18497 0.276798 4 0.151299 2 0 0.0994487 -0.0624158
451 1 15.8668 8.31534 0.152632 4 0.159395 2 0 0.0994487 -0.185303
447 1 15.6276 7.3114 0.923132 4 0.130693 2 1 0.0994487 -0.438289
449 1 16.26 8.16052 1.11176 4 0.185813 1 2 0.0994487 -0.153901
452 1 16.977 7.36262 1.11681 4 0.199 2 0 0.0994487 0.434173
453 1 17.0683 8.10487 0.342208 4 0.20939 2 0 0.0994487 0.0342871
455 1 17.816 7.16593 0.212954 4 0.22031 2 0 0.0994487 0.0860798
460 1 18.4485 8.18989 0.168602 0 0.292993 2 0 0.0991542 0.0405245
363 1 18.2745 7.0517 1.13153 0 0.264287 2 0 0.0993645 0.801335
454 1 17.7029 8.02374 1.02683 0 0.256032 2 0 0.0994147 0.861776
367 1 19.9942 6.75229 0.610261 0 0.377867 2 0 0.0980372 -0.00621423
459 1 19.8034 8.14191 0.360639 0 0.399188 2 0 0.0975775 0.109928
456 1 19.0043 7.33822 0.644529 0 0.31608 2 0 0.098936 0.176835
457 1 18.9276 8.15323 1.18624 0 0.354921 2 0 0.0984358 -0.00204962
464 1 21.6115 8.34459 0.258573 0 0.549541 2 0 0.0896411 -0.0505446
371 1 21.6592 6.66248 0.666524 0 0.506879 2 0 0.0930858 -0.0452144
461 1 20.6988 7.46059 0.673449 0 0.470106 2 0 0.0951502 -0.0279125
463 1 21.5411 7.67297 1.15048 0 0.566117 1 0 0.0879134 -0.126154
376 1 23.3484 6.78052 0.267835 0 0.614441 2 0 0.0812865 -0.125387
467 1 22.3364 7.48462 0.386381 0 0.583521 2 0 0.085819 -0.097754
469 1 23.4881 8.07549 0.386864 0 0.668381 2 0 0.0704586 -0.0352406
375 1 22.6319 6.69333 1.20734 0 0.607837 2 0 0.0823485 -0.290103
465 1 22.5864 8.17833 1.02102 0 0.642423 1 0 0.0761644 -0.0379985