ITEM: TIMESTEP
53000
ITEM: NUMBER OF ATOMS
9495
ITEM: BOX BOUNDS mm mm mm
-4.0904532421800860e-01 8.8175035060345678e+01
-3.7156420221002691e+00 3.5044376471961748e+01
-2.5328540446783842e+02 3.1748021039364001e+01
ITEM: ATOMS id type x y z c_phase c_temp c_surf c_nbond c_visc f_3[1]
1560 1 78.5789 10.4306 -251.635 0 3.85459 2 0 4.53999e-06 -0.180091
1196 1 79.1433 11.2613 -251.657 0 3.8902 2 0 4.53999e-06 -0.122437
4544 1 79.8572 11.8555 -251.951 0 3.93785 2 0 4.53999e-06 0.0479815
4522 1 80.8082 11.4125 -251.952 0 4.03029 2 0 4.53999e-06 0.365198
4521 1 78.7626 12.1827 -251.933 0 3.87212 2 0 4.53999e-06 -0.214052
4109 1 80.5536 12.5136 -251.638 0 3.9951 2 0 4.53999e-06 0.355217
2099 1 70.9931 14.137 -253.282 0 2.96278 3 0 4.53999e-06 -0
2149 1 77.5706 10.3325 -251.249 0 3.82352 2 0 4.53999e-06 -0.681395
2150 1 79.774 9.67264 -250.158 0 3.89818 2 0 4.53999e-06 0.107753
1924 1 78.4804 9.82682 -250.786 0 3.85041 2 0 4.53999e-06 -0.339742
1561 1 79.442 10.0442 -251.07 0 3.88792 2 0 4.53999e-06 0.138455
2503 1 78.8956 10.3063 -249.976 0 3.8747 2 0 4.53999e-06 -0.340769
2453 1 74.7129 10.7058 -251.563 0 3.61364 3 0 4.53999e-06 -0.871906
1920 1 77.2679 11.3424 -251.2 0 3.81911 2 0 4.53999e-06 -0.847023
2454 1 77.22 11.0411 -250.137 0 3.81571 2 0 4.53999e-06 -0.747631
1865 1 77.6129 11.9925 -250.477 0 3.83221 2 0 4.53999e-06 -0.875144
2101 1 78.1541 10.7544 -250.523 0 3.84799 2 0 4.53999e-06 -0.642475
1143 1 78.2966 11.4028 -251.26 0 3.85393 2 0 4.53999e-06 -0.506708
900 1 79.2886 10.9104 -250.704 0 3.89649 1 0 4.53999e-06 -0.215836
3632 1 79.8027 11.5233 -250.077 0 3.93019 1 0 4.53999e-06 -0.0508615
1469 1 78.6191 11.5205 -250.447 0 3.86928 1 0 4.53999e-06 -0.82814
8451 1 79.3951 11.8674 -250.883 0 3.90777 1 0 4.53999e-06 -0.193926
3628 1 79.9681 10.8022 -251.479 0 3.9354 2 0 4.53999e-06 0.202752
1201 1 81.1253 11.0022 -251.053 0 4.06853 2 0 4.53999e-06 0.439633
1921 1 80.3854 10.4511 -250.648 0 3.95686 2 0 4.53999e-06 0.3807
1149 1 80.6834 11.3314 -250.278 0 4.00189 1 0 4.53999e-06 0.715722
4545 1 80.1802 11.4715 -250.981 0 3.96485 1 0 4.53999e-06 0.392498
4130 1 81.2494 11.9854 -251.158 0 4.27449 2 0 4.53999e-06 0.580964
2153 1 81.6585 10.6308 -250.237 0 4.09301 2 0 4.53999e-06 0.202669
9333 1 81.6163 11.6444 -250.307 0 4.10823 1 0 4.53999e-06 0.810136
4113 1 82.1508 11.2891 -251.268 0 4.51252 2 0 4.53999e-06 0.507039
903 1 82.6092 11.1048 -250.291 0 4.19727 2 0 4.53999e-06 0.312858
9329 1 83.1405 11.9909 -249.99 0 4.2459 2 0 4.53999e-06 0.173028
8992 1 83.6908 11.1814 -250.554 0 4.31715 2 0 4.53999e-06 0.347594
9428 1 84.6859 11.9498 -250.172 0 4.97258 2 0 4.53999e-06 0.602656
1464 1 77.7574 12.2439 -251.489 0 3.83185 2 0 4.53999e-06 -0.469132
2100 1 76.6848 12.4025 -251.06 0 3.79155 2 0 4.53999e-06 -0.918686
6299 1 77.8549 12.979 -250.704 0 3.8344 2 0 4.53999e-06 -0.459319
9332 1 79.5239 12.673 -251.383 0 3.91396 2 0 4.53999e-06 -0.0714939
1142 1 78.5757 12.328 -250.909 0 3.86582 2 0 4.53999e-06 -0.385295
906 1 79.0734 12.2188 -250.05 0 3.8884 1 0 4.53999e-06 -0.247332
6028 1 79.0948 13.1033 -250.56 0 3.88531 2 0 4.53999e-06 -0.103248
8452 1 79.8713 12.7224 -250.008 0 3.92749 2 0 4.53999e-06 0.112274
9330 1 80.3106 12.2672 -250.716 0 3.9737 1 0 4.53999e-06 0.399482
9222 1 81.2396 12.6356 -250.368 0 4.04821 2 0 4.53999e-06 0.427214
9219 1 80.2449 13.2011 -250.833 0 3.94912 2 0 4.53999e-06 0.229475
4114 1 82.324 12.2047 -250.631 0 4.17827 2 0 4.53999e-06 0.458079
1562 1 80.8202 10.2298 -249.672 0 3.98666 2 0 4.53999e-06 0.123795
3630 1 82.6024 10.1039 -249.836 0 4.16291 2 0 4.53999e-06 -0.0164302
952 1 83.2154 10.1853 -248.747 0 4.24718 2 0 4.53999e-06 -0.221549
1922 1 84.2818 10.3687 -248.786 0 4.39947 2 0 4.53999e-06 -0.050304
4587 1 85.0311 9.79372 -248.426 0 4.47301 2 0 4.53999e-06 0.0644922
1870 1 78.1692 11.8042 -249.687 0 3.8537 2 0 4.53999e-06 -0.606928
2460 1 79.0432 11.2661 -249.675 0 3.8881 2 0 4.53999e-06 -0.311508
6032 1 79.7543 11.9861 -249.367 0 3.92247 2 0 4.53999e-06 -0.0613704
2105 1 79.8539 10.649 -249.891 0 3.9254 2 0 4.53999e-06 -0.0408457
2457 1 80.6119 12.076 -249.845 0 3.98681 1 0 4.53999e-06 0.278956
2551 1 80.4563 11.2376 -249.329 0 3.97102 2 0 4.53999e-06 -0.0626256
2104 1 81.4288 11.0819 -249.376 0 4.05956 2 0 4.53999e-06 -0.134919
7563 1 81.4136 12.1156 -249.327 0 4.04613 2 0 4.53999e-06 0.190565
6967 1 80.5863 12.0722 -248.561 0 3.96688 2 0 4.53999e-06 -0.0642458
2151 1 82.105 10.428 -248.895 0 4.12958 2 0 4.53999e-06 -0.409269
6973 1 82.0405 11.5171 -248.56 0 4.11871 2 0 4.53999e-06 -0.301585
1928 1 82.8814 11.0209 -249.321 0 4.21515 2 0 4.53999e-06 -0.673662
3629 1 82.2469 11.6449 -249.58 0 4.14458 2 0 4.53999e-06 0.0247865
7556 1 83.1453 11.7778 -248.931 0 4.25025 2 0 4.53999e-06 -0.281602
3522 1 83.6276 10.5777 -249.612 0 4.29705 2 0 4.53999e-06 0.209507
4125 1 84.6855 10.9169 -249.519 0 4.67626 2 0 4.53999e-06 0.591677
3631 1 83.8255 11.4671 -249.531 0 4.34959 2 0 4.53999e-06 0.392072
1866 1 83.779 11.0854 -248.776 0 4.33706 2 0 4.53999e-06 -0.570937
1466 1 84.6033 11.5057 -248.772 0 4.4429 2 0 4.53999e-06 0.380489
1148 1 85.1051 10.7295 -248.44 0 4.51584 2 0 4.53999e-06 0.185387
4548 1 85.961 10.4412 -248.328 0 4.61641 2 0 4.53999e-06 0.467245
9334 1 85.6699 11.465 -248.67 0 4.56782 2 0 4.53999e-06 0.395461
7200 1 76.1105 13.1876 -248.514 0 3.62116 3 0 4.53999e-06 -0.772474
1465 1 78.3408 12.8564 -249.775 0 3.85447 2 0 4.53999e-06 -0.385771
6588 1 78.8277 12.2352 -248.948 0 3.8698 2 0 4.53999e-06 -0.223544
8449 1 84.0686 12.364 -249.103 0 4.35942 2 0 4.53999e-06 0.164818
1008 1 84.3056 9.96073 -247.671 0 4.44849 2 0 4.53999e-06 -0.624871
1195 1 84.9885 10.0571 -246.673 0 4.6194 2 0 4.53999e-06 -0.615483
4325 1 86.0736 9.90278 -246.814 0 4.77178 2 0 4.53999e-06 -0.00290856
3519 1 85.4155 10.149 -247.614 0 4.60261 1 0 4.53999e-06 -0.096231
3870 1 87.0433 9.9707 -246.975 0 5.13736 2 0 4.53999e-06 0.5611
2547 1 82.9668 11.0416 -248.209 0 4.23095 2 0 4.53999e-06 -0.401906
7205 1 84.3795 10.8978 -248.044 0 4.44974 1 0 4.53999e-06 -0.878371
6298 1 83.9215 11.7949 -248.066 0 4.36105 2 0 4.53999e-06 -0.356819
6604 1 84.6725 11.6471 -247 0 4.56713 2 0 4.53999e-06 -0.746675
1199 1 84.9036 10.7684 -247.321 0 4.57725 1 0 4.53999e-06 -0.917167
6608 1 85.0315 11.4711 -247.891 0 4.544 1 0 4.53999e-06 -0.338725
1869 1 85.6972 10.9752 -247.785 0 4.64354 1 0 4.53999e-06 0.265847
4520 1 86.3681 10.4829 -247.474 0 4.77066 1 0 4.53999e-06 0.548218
9220 1 86.3833 11.2614 -247.241 0 4.79895 1 0 4.53999e-06 0.621977
7203 1 85.5355 11.3565 -247.099 0 4.68071 1 0 4.53999e-06 -0.499445
954 1 85.7179 10.6424 -246.972 0 4.7148 1 0 4.53999e-06 -0.504849
7557 1 85.9106 11.8344 -247.709 0 4.67183 2 0 4.53999e-06 0.169428
9218 1 86.6222 11.22 -248.158 0 4.95116 2 0 4.53999e-06 0.676912
9171 1 86.8888 11.745 -246.783 0 5.09364 2 0 4.53999e-06 0.508155
8739 1 87.3004 10.9244 -247.26 0 5.15494 2 0 4.53999e-06 0.840869
4417 1 86.5864 9.97413 -245.92 0 4.93832 2 0 4.53999e-06 0.0068064
4588 1 87.3428 9.89859 -245.194 0 5.10494 2 0 4.53999e-06 0.38507
6027 1 85.9475 11.9045 -246.598 0 4.76909 2 0 4.53999e-06 -0.0554666
7204 1 86.0934 11.1204 -246.431 0 4.82153 1 0 4.53999e-06 -0.260726
1976 1 85.7457 10.3961 -246.105 0 4.78745 1 0 4.53999e-06 -0.521822
7202 1 85.2539 11.1285 -246.342 0 4.70916 1 0 4.53999e-06 -0.836155
2553 1 86.3087 10.8098 -245.591 0 4.93687 1 0 4.53999e-06 -0.456939
6030 1 86.269 11.7404 -245.697 0 4.89799 2 0 4.53999e-06 -0.0744062
6908 1 85.5199 11.194 -245.401 0 4.81278 2 0 4.53999e-06 -0.679756
7474 1 85.2454 12.135 -245.859 0 4.69953 2 0 4.53999e-06 -0.513964
8448 1 86.5355 10.695 -246.618 0 4.88356 1 0 4.53999e-06 0.749873
3213 1 87.8067 11.3184 -246.419 0 5.3703 2 0 4.53999e-06 0.89187
7555 1 86.9197 11.2937 -246.074 0 5.01376 1 0 4.53999e-06 0.630834
4519 1 87.2718 10.5187 -246.212 0 5.20257 2 0 4.53999e-06 0.829918
4227 1 88.0576 10.7043 -245.565 0 5.47788 2 0 4.53999e-06 0.985157
4518 1 87.1092 10.7535 -245.346 0 5.24977 2 0 4.53999e-06 0.671709
9221 1 87.383 11.6407 -245.414 0 5.32363 2 0 4.53999e-06 0.495627
955 1 86.4403 10.3607 -244.777 0 5.03935 2 0 4.53999e-06 -0.59637
1010 1 87.2469 10.3027 -244.187 0 5.23066 2 0 4.53999e-06 0.241637
6304 1 86.5883 11.3631 -244.733 0 5.07218 2 0 4.53999e-06 -0.329483
3520 1 87.5848 11.0469 -244.627 0 5.45889 2 0 4.53999e-06 0.804817
2656 1 86.7417 10.8236 -243.588 0 5.23426 2 0 4.53999e-06 -0.914332
902 1 87.6809 11.1478 -243.592 0 5.61179 2 0 4.53999e-06 0.581557
4546 1 87.8812 10.0974 -243.309 0 5.65713 2 0 4.53999e-06 0.684295
1253 1 86.8098 9.8143 -243.057 0 5.23188 2 0 4.53999e-06 -0.432525
901 1 87.7288 10.2195 -242.162 0 5.53614 2 0 4.53999e-06 0.593204
7373 1 86.3644 10.8765 -242.642 0 5.20714 2 0 4.53999e-06 -0.95738
2552 1 87.2864 10.7194 -242.736 0 5.33603 2 0 4.53999e-06 0.0516256
8944 1 88.1719 11.0233 -242.672 0 5.67184 2 0 4.53999e-06 0.904884
8547 1 87.0212 11.4498 -242.219 0 5.26422 2 0 4.53999e-06 -0.262978
2598 1 86.8516 10.4033 -242.045 0 5.26207 2 0 4.53999e-06 -0.67582
4516 1 87.6609 11.0136 -241.846 0 5.46015 2 0 4.53999e-06 0.800216
4420 1 87.2989 10.1944 -240.523 0 5.20472 2 0 4.53999e-06 0.367739
6450 1 86.2411 10.8441 -240.384 0 5.14432 2 0 4.53999e-06 -0.912527
6970 1 86.8837 10.9766 -241.459 0 5.23361 2 0 4.53999e-06 -0.695087
2599 1 87.31 10.3893 -241.356 0 5.26136 2 0 4.53999e-06 0.208937
3873 1 88.0677 10.6455 -241.12 0 5.46131 2 0 4.53999e-06 0.983575
9122 1 87.3711 11.5349 -241.195 0 5.2306 2 0 4.53999e-06 0.315312
6297 1 86.672 11.2484 -240.769 0 5.17836 1 0 4.53999e-06 -0.549889
6301 1 87.4189 10.905 -240.865 0 5.33632 2 0 4.53999e-06 0.949195
7152 1 86.7526 10.5549 -240.83 0 5.19348 1 0 4.53999e-06 -0.581754
4547 1 87.5535 10.7976 -240.166 0 5.31735 2 0 4.53999e-06 0.964855
6245 1 87.1462 11.2952 -240.37 0 5.18464 1 0 4.53999e-06 0.472725
1926 1 86.9025 10.6555 -240.172 0 5.17558 1 0 4.53999e-06 0.106075
4591 1 86.3402 10.3362 -239.034 0 5.11498 2 0 4.53999e-06 -0.307607
4630 1 86.5596 10.301 -239.896 0 5.14795 2 0 4.53999e-06 -0.356684
6240 1 85.9734 11.5578 -239.846 0 5.09972 2 0 4.53999e-06 -0.752286
3425 1 86.1887 10.8426 -239.673 0 5.12627 2 0 4.53999e-06 -0.957844
1255 1 85.926 11.1811 -239.022 0 5.10134 2 0 4.53999e-06 -0.948616
9169 1 86.1992 11.8915 -238.49 0 5.10956 2 0 4.53999e-06 -0.167556
6590 1 86.4427 11.0232 -238.409 0 5.13148 2 0 4.53999e-06 0.151198
7376 1 86.6224 11.3186 -239.985 0 5.14659 1 0 4.53999e-06 -0.307673
8546 1 87.1424 11.1774 -239.668 0 5.1634 1 0 4.53999e-06 0.760664
8989 1 87.1872 10.4583 -239.516 0 5.29045 2 0 4.53999e-06 0.588986
6972 1 86.6647 10.8968 -239.23 0 5.14022 2 0 4.53999e-06 0.114385
7662 1 86.5901 11.6249 -239.277 0 5.12281 2 0 4.53999e-06 0.0457159
9168 1 87.1724 11.1807 -238.858 0 5.30635 2 0 4.53999e-06 0.742613
6905 1 85.514 11.2295 -238.097 0 5.10645 2 0 4.53999e-06 -0.996079
1923 1 86.088 10.7331 -237.425 0 5.18351 2 0 4.53999e-06 0.103076
6605 1 85.6515 11.5795 -237.112 0 5.25816 2 0 4.53999e-06 -0.623777
9331 1 86.4943 11.6009 -237.58 0 5.45861 2 0 4.53999e-06 0.822408
1685 1 84.7112 10.9772 -235.092 0 5.12288 2 0 4.53999e-06 -0.689542
8447 1 86.1196 11.127 -236.431 0 5.51737 2 0 4.53999e-06 0.636394
9123 1 86.2514 12.0229 -236.519 0 5.57967 2 0 4.53999e-06 0.589332
7374 1 85.2452 11.203 -236.361 0 5.25347 2 0 4.53999e-06 -0.621421
4229 1 85.2133 10.4834 -235.713 0 5.18412 2 0 4.53999e-06 -0.188451
6907 1 84.949 11.5442 -235.624 0 5.20616 2 0 4.53999e-06 -0.803065
3521 1 85.7306 11.1859 -235.653 0 5.4242 2 0 4.53999e-06 0.512242
7554 1 85.8782 11.9611 -235.661 0 5.46577 2 0 4.53999e-06 0.559502
9429 1 85.2931 12.1049 -236.282 0 5.26504 2 0 4.53999e-06 -0.421715
3872 1 86.7343 11.4873 -235.787 0 5.65224 2 0 4.53999e-06 0.997997
7559 1 85.1093 12.3264 -235.273 0 5.19285 2 0 4.53999e-06 -0.284781
6513 1 84.4342 11.8356 -234.893 0 5.08245 2 0 4.53999e-06 -0.860561
2452 1 84.2027 11.1247 -234.247 0 4.98284 2 0 4.53999e-06 -0.848583
1566 1 84.3587 11.8717 -233.873 0 4.96708 2 0 4.53999e-06 -0.780593
4326 1 85.5139 10.9054 -234.883 0 5.19737 2 0 4.53999e-06 0.376985
1563 1 85.4467 11.7061 -235.009 0 5.33781 2 0 4.53999e-06 0.560545
4515 1 86.2093 11.4274 -234.993 0 5.46863 2 0 4.53999e-06 0.948129
1569 1 84.9362 11.3593 -234.443 0 5.10699 2 0 4.53999e-06 -0.579366
1259 1 85.0815 10.7349 -234.082 0 5.05701 2 0 4.53999e-06 0.154932
4331 1 85.7749 11.4193 -234.173 0 5.33051 2 0 4.53999e-06 0.793651
1198 1 85.13 11.514 -233.592 0 5.18321 2 0 4.53999e-06 0.605063
2548 1 85.0723 12.0491 -234.336 0 5.11021 2 0 4.53999e-06 0.00455663
9224 1 85.8503 12.2065 -234.63 0 5.39811 2 0 4.53999e-06 0.613562
8945 1 85.0338 12.4189 -233.506 0 4.9718 2 0 4.53999e-06 0.37381
2201 1 83.661 11.4638 -233.396 0 4.82033 2 0 4.53999e-06 -0.965842
4330 1 84.4581 10.9606 -233.374 0 4.91604 2 0 4.53999e-06 -0.125822
6303 1 84.595 11.7514 -232.899 0 5.069 2 0 4.53999e-06 0.547452
1567 1 83.57 11.8939 -232.528 0 4.73335 2 0 4.53999e-06 -0.981129
4228 1 84.089 11.1081 -232.414 0 4.75355 2 0 4.53999e-06 -0.0158047
6031 1 84.0483 12.4277 -233.19 0 4.83166 2 0 4.53999e-06 -0.413548
8600 1 84.3057 12.2079 -232.092 0 5.03085 2 0 4.53999e-06 0.581485
4419 1 82.7927 11.4988 -230.726 0 4.61494 2 0 4.53999e-06 0.393216
2154 1 81.8534 11.7807 -230.566 0 4.60542 2 0 4.53999e-06 -0.298925
4549 1 83.5623 11.6521 -231.514 0 4.6222 2 0 4.53999e-06 0.299873
9223 1 82.6255 12.1558 -231.448 0 4.59118 2 0 4.53999e-06 -0.391651
6243 1 81.9158 12.7057 -230.8 0 4.61326 2 0 4.53999e-06 -0.272446
4551 1 82.7353 12.4111 -230.517 0 4.88155 2 0 4.53999e-06 0.859013
3876 1 83.5249 12.7161 -231.406 0 4.59825 2 0 4.53999e-06 0.36546
1688 1 80.8791 11.9422 -230.071 0 4.50905 2 0 4.53999e-06 -0.653376
1313 1 80.9715 11.8006 -228.495 0 4.46038 2 0 4.53999e-06 0.278539
1257 1 81.0324 12.1364 -229.235 0 4.51467 2 0 4.53999e-06 -0.244009
1011 1 81.5826 11.5171 -229.639 0 4.57213 2 0 4.53999e-06 0.0400698
4328 1 82.457 11.8625 -229.809 0 4.8805 2 0 4.53999e-06 0.761865
7377 1 80.5786 12.7131 -229.566 0 4.46889 2 0 4.53999e-06 -0.608287
7558 1 81.3691 13.0224 -229.334 0 4.54912 2 0 4.53999e-06 0.280313
2202 1 80.3148 12.2667 -228.793 0 4.41443 2 0 4.53999e-06 -0.547402
7472 1 80.6342 13.0019 -228.774 0 4.45222 2 0 4.53999e-06 -0.090574
904 1 81.3474 12.6128 -228.621 0 4.66155 2 0 4.53999e-06 0.931993
1467 1 81.5343 12.4646 -230.013 0 4.59546 2 0 4.53999e-06 -0.234471
3641 1 82.2817 12.8545 -229.782 0 4.88776 2 0 4.53999e-06 0.63862
4232 1 81.8459 12.2538 -229.215 0 4.76505 2 0 4.53999e-06 0.848963
1681 1 79.5884 11.9548 -228.216 0 4.28684 2 0 4.53999e-06 -0.522051
2655 1 78.9954 12.0567 -227.207 0 4.17564 2 0 4.53999e-06 -0.717346
1684 1 79.9466 11.8517 -227.292 0 4.27382 2 0 4.53999e-06 0.0609493
7150 1 76.4961 13.2985 -227.217 0 3.57948 3 0 4.53999e-06 -0.934452
6237 1 78.9991 12.6236 -228.055 0 4.22555 2 0 4.53999e-06 -0.903164
9126 1 79.4216 13.4362 -227.955 0 4.25713 2 0 4.53999e-06 -0.571378
2208 1 79.6983 12.5509 -227.597 0 4.28449 2 0 4.53999e-06 -0.779011
7475 1 79.1005 13.0274 -227.202 0 4.19327 2 0 4.53999e-06 -0.836759
7151 1 79.8726 12.7897 -228.346 0 4.34256 2 0 4.53999e-06 -0.658573
6242 1 80.2438 13.6678 -228.297 0 4.36195 2 0 4.53999e-06 -0.0490523
3422 1 80.3329 12.1472 -227.983 0 4.37451 2 0 4.53999e-06 0.154267
3966 1 81.0394 12.4513 -227.938 0 4.60037 2 0 4.53999e-06 0.80076
4416 1 80.4798 12.9104 -227.997 0 4.51396 2 0 4.53999e-06 0.564987
9120 1 81.1732 13.3736 -228.148 0 4.66941 2 0 4.53999e-06 0.642154
7657 1 80.0494 13.1849 -227.454 0 4.30749 2 0 4.53999e-06 0.182352
4631 1 80.5552 12.5534 -227.197 0 4.51256 2 0 4.53999e-06 0.61088
3640 1 77.1664 10.6669 -226.436 0 3.67937 3 0 4.53999e-06 -0.389029
956 1 79.7615 12.5989 -226.721 0 4.22053 2 0 4.53999e-06 0.114775
8943 1 79.6896 13.6069 -226.702 0 4.17056 2 0 4.53999e-06 0.0370244
9172 1 78.862 12.7088 -226.285 0 4.07805 2 0 4.53999e-06 -0.575158
8544 1 76.9466 11.5421 -223.565 0 4.34686 2 0 4.53999e-06 0.183287
8898 1 77.7071 12.2559 -225.057 0 4.10121 3 0 4.53999e-06 -0.654164
6968 1 76.2078 11.3361 -222.998 0 4.27976 2 0 4.53999e-06 -0.270807
8686 1 75.4484 11.9722 -222.873 0 4.21255 2 0 4.53999e-06 -0.741904
6509 1 75.6177 11.3543 -222.258 0 4.22615 2 0 4.53999e-06 -0.752661
6305 1 76.1585 11.7521 -222.413 0 4.27343 2 0 4.53999e-06 -0.505967
2205 1 76.2845 11.2545 -221.998 0 4.26724 2 0 4.53999e-06 -0.0454319
7658 1 75.4438 11.9385 -221.802 0 4.20307 2 0 4.53999e-06 -0.994745
7553 1 77.795 11.3138 -222.937 0 4.72807 2 0 4.53999e-06 0.853712
1929 1 76.8608 11.1105 -222.487 0 4.33477 2 0 4.53999e-06 0.412251
9227 1 76.8767 11.7906 -222.644 0 4.46828 2 0 4.53999e-06 0.735923
4633 1 76.8806 11.6382 -221.92 0 4.42918 2 0 4.53999e-06 0.904672
1056 1 77.5962 12.0397 -222.11 0 4.6189 2 0 4.53999e-06 0.933226
8595 1 76.3536 12.2602 -222.945 0 4.29688 2 0 4.53999e-06 -0.0945281
3281 1 75.8917 12.3198 -222.214 0 4.23732 2 0 4.53999e-06 -0.466471
4590 1 77.3128 12.3244 -222.998 0 4.62048 2 0 4.53999e-06 0.579116
4121 1 76.5915 12.2193 -222.088 0 4.29827 1 0 4.53999e-06 0.462334
2597 1 75.7459 11.2354 -221.405 0 4.20877 2 0 4.53999e-06 -0.53186
953 1 76.1466 11.7878 -221.474 0 4.23963 2 0 4.53999e-06 -0.188376
1258 1 76.2769 11.5924 -220.623 0 4.19184 2 0 4.53999e-06 0.100581
1197 1 75.5411 12.0497 -220.974 0 4.17494 2 0 4.53999e-06 -0.676633
1683 1 76.674 11.203 -221.327 0 4.25492 2 0 4.53999e-06 0.446033
3922 1 76.7777 12.0887 -221.326 0 4.40421 2 0 4.53999e-06 0.695141
3643 1 76.0775 12.4615 -221.533 0 4.2214 2 0 4.53999e-06 -0.082183
6512 1 75.156 12.8525 -221.548 0 4.12043 2 0 4.53999e-06 -0.683012
1565 1 76.2798 12.5587 -220.666 0 4.17089 2 0 4.53999e-06 0.163923
6455 1 71.1012 11.3242 -218.813 0 2.93392 3 0 4.53999e-06 -0.333723
6591 1 74.4243 11.0753 -219.058 0 3.68845 3 0 4.53999e-06 -0.683163
3874 1 73.5835 9.99886 -217.169 0 6.06232 3 0 4.53999e-06 -0.206511
9170 1 72.7529 13.4446 -218.35 0 3.45642 3 0 4.53999e-06 0.170109
3523 1 75.3124 13.025 -217.86 0 4.31757 3 0 4.53999e-06 0.508373
2199 1 69.7853 12.0448 -215.531 0 4.82865 2 0 4.53999e-06 -0.66204
2652 1 70.9822 11.8288 -215.926 0 4.9929 2 0 4.53999e-06 0.191278
2449 1 70.2942 11.2523 -215.413 0 4.87093 2 0 4.53999e-06 -0.20873
2152 1 70.5517 12.0307 -215.356 0 4.91586 2 0 4.53999e-06 0.098819
4593 1 71.8569 11.1923 -215.787 0 5.4353 2 0 4.53999e-06 0.666176
8543 1 71.7834 12.1226 -216.46 0 5.44693 2 0 4.53999e-06 0.540392
8838 1 74.0982 11.8241 -215.365 0 6.40677 3 0 4.53999e-06 0.954192
6694 1 70.5657 12.6404 -215.911 0 4.90328 2 0 4.53999e-06 -0.0571942
8946 1 71.6202 12.2924 -215.455 0 5.2435 2 0 4.53999e-06 0.917471
1256 1 69.4428 11.4465 -214.539 0 4.7621 2 0 4.53999e-06 -0.648529
4418 1 69.3865 11.8365 -213.67 0 4.71536 2 0 4.53999e-06 -0.545353
4124 1 71.1153 11.5774 -215.161 0 5.12058 2 0 4.53999e-06 0.684486
4225 1 70.5661 11.4639 -214.576 0 4.88169 2 0 4.53999e-06 0.277392
1261 1 70.0405 11.841 -214.875 0 4.846 2 0 4.53999e-06 -0.600531
8897 1 71.1946 12.098 -214.579 0 5.09808 2 0 4.53999e-06 0.898255
4424 1 70.111 11.9006 -214.094 0 4.81648 2 0 4.53999e-06 0.0165685
7149 1 69.4762 13.2428 -214.523 0 4.72317 2 0 4.53999e-06 -0.41103
6302 1 69.5985 12.3152 -214.651 0 4.78997 2 0 4.53999e-06 -0.95279
1260 1 68.9415 12.4226 -214.207 0 4.69987 2 0 4.53999e-06 -0.99314
6974 1 70.0729 12.6657 -215.125 0 4.84419 2 0 4.53999e-06 -0.327305
7656 1 70.8728 12.6153 -215.09 0 5.06179 2 0 4.53999e-06 0.562533
9226 1 70.5328 12.1974 -214.559 0 4.98555 2 0 4.53999e-06 0.750215
6906 1 70.3109 12.7716 -214.429 0 4.84019 2 0 4.53999e-06 0.233095
8497 1 69.8265 12.5464 -213.951 0 4.77124 2 0 4.53999e-06 -0.244477
8317 1 70.8344 12.3909 -213.713 0 5.05341 2 0 4.53999e-06 0.650183
6606 1 69.232 12.9116 -213.37 0 4.64938 2 0 4.53999e-06 -0.477577
8270 1 70.0781 12.2493 -213.08 0 4.71834 2 0 4.53999e-06 0.16574
6452 1 68.3114 9.85436 -200.524 0 2.8957 3 0 4.53999e-06 -0
6508 1 61.3547 10.4003 -200.193 0 3.52924 3 0 4.53999e-06 0.0598935
8444 1 60.039 12.4812 -198.053 0 4.52122 2 0 4.53999e-06 -0.509074
2600 1 60.4582 13.2463 -198.459 0 4.57922 2 0 4.53999e-06 -0.211819
2456 1 61.1779 12.6593 -198.307 0 4.82234 2 0 4.53999e-06 0.515324
8500 1 59.7944 12.6304 -197.046 0 4.49347 2 0 4.53999e-06 -0.634648
9128 1 60.7769 12.3814 -197.401 0 4.55344 2 0 4.53999e-06 0.235524
8263 1 60.5451 13.327 -197.79 0 4.59486 2 0 4.53999e-06 -0.330421
1691 1 59.8223 13.3965 -197.676 0 4.54733 2 0 4.53999e-06 -0.978723
8314 1 60.477 13.2193 -197.176 0 4.58025 2 0 4.53999e-06 -0.297967
6241 1 61.126 13.239 -197.599 0 4.73787 2 0 4.53999e-06 0.711673
2458 1 61.0709 13.8012 -198.146 0 4.66883 2 0 4.53999e-06 0.452844
6185 1 61.6945 13.76 -197.438 0 4.80986 2 0 4.53999e-06 0.973218
4324 1 60.2874 14.0793 -198.218 0 4.57977 2 0 4.53999e-06 -0.492703
3970 1 60.358 13.9466 -197.546 0 4.59282 2 0 4.53999e-06 -0.915144
3967 1 60.2758 14.6406 -197.137 0 4.58548 2 0 4.53999e-06 -0.742024
8738 1 61.0342 14.0085 -197.555 0 4.63475 1 0 4.53999e-06 0.795225
8316 1 60.7667 14.0823 -197.078 0 4.6168 2 0 4.53999e-06 -0.174788
4415 1 60.7701 14.6332 -197.805 0 4.61535 2 0 4.53999e-06 -0.118436
8990 1 61.0647 14.6899 -197.077 0 4.64209 2 0 4.53999e-06 0.283241
2212 1 60.9336 15.6468 -197.396 0 4.59706 2 0 4.53999e-06 -0.0860445
9427 1 61.6092 14.5947 -197.638 0 4.82914 2 0 4.53999e-06 0.775982
3220 1 61.042 13.5554 -196.937 0 4.61992 2 0 4.53999e-06 0.418072
3217 1 60.1067 13.7844 -196.864 0 4.56564 2 0 4.53999e-06 -0.750323
3207 1 60.7272 14.2507 -196.349 0 4.59634 2 0 4.53999e-06 -0.147407
4116 1 60.8185 15.2403 -196.376 0 4.59555 2 0 4.53999e-06 -0.183279
7660 1 61.5705 14.2172 -196.72 0 4.8179 2 0 4.53999e-06 0.758393
8442 1 61.8392 15.2334 -196.799 0 4.97422 2 0 4.53999e-06 0.744273
3692 1 59.8286 14.7398 -193.788 0 3.34016 3 0 4.53999e-06 -0.336305
3740 1 55.6968 15.5961 -188.798 0 4.72183 2 0 4.53999e-06 0.315007
2102 1 54.2452 15.4862 -187.943 0 4.59836 2 0 4.53999e-06 -0.788699
4014 1 55.1489 15.2206 -188.157 0 4.65553 2 0 4.53999e-06 -0.0218257
1974 1 54.9021 15.4039 -187.19 0 4.6153 2 0 4.53999e-06 -0.121427
4321 1 50.7079 14.9605 -184.975 0 3.5651 3 0 4.53999e-06 -0.373876
3423 1 56.3738 14.8887 -184.912 0 3.94088 3 0 4.53999e-06 0.432842
4673 1 51.6743 14.2057 -182.699 0 3.61131 3 0 4.53999e-06 0.239039
3278 1 51.1606 13.876 -178.922 0 4.47798 1 0 4.53999e-06 -0.289871
1925 1 50.5066 15.0648 -180.041 0 4.40848 2 0 4.53999e-06 -0.728086
1687 1 50.9055 14.4761 -179.431 0 4.46218 2 0 4.53999e-06 -0.636321
9425 1 51.3973 15.5591 -179.967 0 4.46004 2 0 4.53999e-06 0.176766
909 1 51.2107 15.0432 -179.175 0 4.4855 2 0 4.53999e-06 -0.369888
3642 1 51.4944 14.6454 -180.305 0 4.44164 2 0 4.53999e-06 0.210109
3738 1 51.7032 14.3133 -179.45 0 4.49998 2 0 4.53999e-06 0.453341
4634 1 51.914 15.0865 -179.279 0 4.67046 2 0 4.53999e-06 0.778188
3737 1 51.5805 14.4899 -178.846 0 4.51156 1 0 4.53999e-06 0.735589
3969 1 50.2847 13.3068 -178.012 0 4.37145 2 0 4.53999e-06 -0.79979
3371 1 51.1576 13.19 -178.367 0 4.45502 2 0 4.53999e-06 -0.11284
9326 1 51.2012 13.2926 -177.456 0 4.45063 2 0 4.53999e-06 0.0395276
6244 1 49.7771 13.8987 -177.096 0 4.2753 2 0 4.53999e-06 -0.903554
8740 1 51.9946 13.3255 -177.902 0 4.69342 2 0 4.53999e-06 0.67126
3923 1 51.8688 13.8959 -178.6 0 4.64122 2 0 4.53999e-06 0.730555
2555 1 50.8551 14.073 -178.324 0 4.46231 1 0 4.53999e-06 -0.955518
3793 1 50.8575 14.6352 -178.675 0 4.47062 1 0 4.53999e-06 -0.977738
6687 1 50.8921 14.7731 -177.891 0 4.45792 2 0 4.53999e-06 -0.51696
3921 1 51.4005 13.9093 -178.087 0 4.49672 1 0 4.53999e-06 0.270155
6689 1 50.7283 15.4105 -178.633 0 4.45358 2 0 4.53999e-06 -0.670205
8743 1 50.7161 13.9442 -177.613 0 4.42679 2 0 4.53999e-06 -0.821662
8899 1 51.5252 15.1656 -178.468 0 4.50974 1 0 4.53999e-06 0.242765
3517 1 51.5103 14.5454 -178.188 0 4.50697 1 0 4.53999e-06 0.399272
8101 1 52.2203 14.7197 -178.583 0 4.69937 2 0 4.53999e-06 0.974708
8837 1 52.152 14.2252 -177.857 0 4.69014 2 0 4.53999e-06 0.895892
9426 1 51.4256 14.2314 -177.453 0 4.48831 2 0 4.53999e-06 0.18851
3218 1 50.369 12.952 -176.96 0 4.30563 2 0 4.53999e-06 -0.395378
5809 1 50.912 13.8695 -176.705 0 4.39265 2 0 4.53999e-06 -0.129354
8056 1 51.9735 13.6852 -176.978 0 4.75631 2 0 4.53999e-06 0.601624
4131 1 47.0573 14.3385 -174.183 0 3.55978 3 0 4.53999e-06 -0.995201
4233 1 49.5481 14.4942 -174.663 0 4.922 3 0 4.53999e-06 -0.130291
8839 1 51.8695 15.0546 -174.338 0 7.47592 3 0 4.53999e-06 0.496645
8597 1 50.7142 12.7454 -172.723 0 3.59103 3 0 4.53999e-06 -0.0160854
4589 1 49.0783 14.8556 -172.502 0 4.08468 3 0 4.53999e-06 -0.0356509
7375 1 53.3356 14.4369 -172.51 0 7.3763 3 0 4.53999e-06 0.605622
8265 1 47.9564 12.3136 -171.085 0 3.54762 3 0 4.53999e-06 -0
8900 1 51.0772 14.1997 -170.695 0 5.42148 3 0 4.53999e-06 0.794742
8322 1 49.8204 13.4188 -168.894 0 4.0809 3 0 4.53999e-06 -0.132622
3871 1 49.3593 15.5375 -169.733 0 4.05446 3 0 4.53999e-06 -0.787156
3691 1 47.4515 14.1928 -168.455 0 3.95355 3 0 4.53999e-06 -0.673439
3209 1 49.4055 13.0988 -166.532 0 4.15568 2 0 4.53999e-06 -0.361525
9424 1 50.1304 13.4921 -165.977 0 4.24022 2 0 4.53999e-06 0.166166
4592 1 49.184 14.0807 -166.483 0 4.19411 2 0 4.53999e-06 -0.822019
1568 1 49.6997 14.9419 -166.502 0 4.27002 2 0 4.53999e-06 -0.38892
8445 1 49.5189 14.2039 -165.579 0 4.2039 2 0 4.53999e-06 -0.912521
8645 1 50.2636 14.0373 -166.768 0 4.30735 2 0 4.53999e-06 0.194561
8545 1 50.3381 14.5995 -165.984 0 4.32781 2 0 4.53999e-06 0.10608
5815 1 51.1084 14.8148 -166.712 0 4.7786 2 0 4.53999e-06 0.470292
9173 1 50.9316 14.0175 -165.784 0 4.55082 2 0 4.53999e-06 0.730536
6181 1 51.9026 14.4315 -165.966 0 4.94673 2 0 4.53999e-06 0.929001
3690 1 49.3439 13.294 -165.42 0 4.15641 2 0 4.53999e-06 -0.710873
3924 1 49.5732 13.806 -164.672 0 4.14722 1 0 4.53999e-06 -0.788569
8058 1 50.2418 13.1063 -165.005 0 4.20534 2 0 4.53999e-06 0.12065
4517 1 50.2278 13.6629 -164.244 0 4.18147 1 0 4.53999e-06 0.156125
8216 1 50.9644 13.7432 -164.913 0 4.47022 2 0 4.53999e-06 0.752585
3335 1 49.303 14.6155 -164.578 0 4.10209 2 0 4.53999e-06 -0.836636
3971 1 49.3585 14.1305 -163.829 0 4.05739 1 0 4.53999e-06 -0.848121
9179 1 50.255 13.999 -165.246 0 4.255 1 0 4.53999e-06 0.161131
1012 1 50.0207 14.8076 -165.193 0 4.22449 2 0 4.53999e-06 -0.295867
1927 1 50.1019 14.3101 -164.589 0 4.19753 1 0 4.53999e-06 -0.553008
1309 1 50.3505 15.1526 -164.466 0 4.209 2 0 4.53999e-06 0.140792
1146 1 50.9822 14.8151 -165.31 0 4.54405 2 0 4.53999e-06 0.593083
2550 1 50.779 14.4473 -164.541 0 4.27441 1 0 4.53999e-06 0.906798
8845 1 51.054 13.9152 -163.969 0 4.43753 2 0 4.53999e-06 0.820753
4677 1 49.8775 14.6603 -163.988 0 4.12489 1 0 4.53999e-06 -0.188854
7473 1 51.7809 14.433 -164.772 0 4.68935 2 0 4.53999e-06 0.977242
8996 1 48.0441 12.9797 -162.461 0 3.90401 2 0 4.53999e-06 -0.0628828
3235 1 47.5442 13.5633 -162.197 0 3.88244 1 0 4.53999e-06 -0.735503
3639 1 48.2693 13.6815 -162.827 0 3.92036 1 0 4.53999e-06 -0.287052
8745 1 49.597 13.604 -163.369 0 4.04862 2 0 4.53999e-06 0.066548
8441 1 48.9046 13.5453 -162.547 0 3.94468 1 0 4.53999e-06 0.572684
8746 1 50.4437 13.8726 -163.005 0 4.33631 2 0 4.53999e-06 0.652822
4334 1 47.7086 14.1945 -162.594 0 3.88103 2 0 4.53999e-06 -0.691397
6514 1 47.565 14.9093 -162.167 0 3.85021 2 0 4.53999e-06 -0.524866
3277 1 48.5352 14.1961 -163.374 0 3.94545 2 0 4.53999e-06 -0.603907
905 1 48.2635 13.9516 -162.176 0 3.90937 1 0 4.53999e-06 0.161323
4016 1 49.0563 14.9311 -163.535 0 3.99697 2 0 4.53999e-06 -0.423854
3515 1 49.0623 14.2433 -162.963 0 3.97415 1 0 4.53999e-06 0.404024
9325 1 49.6175 14.0508 -162.647 0 4.06503 2 0 4.53999e-06 0.768597
8503 1 48.4261 14.5493 -162.614 0 3.91686 1 0 4.53999e-06 -0.268858
8552 1 48.9553 14.309 -162.172 0 3.93477 1 0 4.53999e-06 0.682668
6463 1 49.1863 15.2055 -162.552 0 3.96821 2 0 4.53999e-06 0.243403
3516 1 50.2817 14.1574 -163.686 0 4.15582 1 0 4.53999e-06 0.676613
1698 1 49.8001 14.6571 -163.177 0 4.05078 2 0 4.53999e-06 0.422835
6587 1 50.7617 14.874 -163.65 0 4.38069 2 0 4.53999e-06 0.612675
7104 1 45.527 11.9321 -160.652 0 3.71648 2 0 4.53999e-06 -0.931764
911 1 46.9526 11.9203 -160.9 0 3.86757 2 0 4.53999e-06 -0.368033
1449 1 46.1131 13.071 -160.984 0 3.78792 2 0 4.53999e-06 -0.981295
4068 1 45.7467 13.3531 -161.899 0 3.73457 2 0 4.53999e-06 -0.833012
3693 1 47.6074 13.0549 -161.658 0 3.89658 1 0 4.53999e-06 -0.379218
8991 1 47.5375 12.3346 -161.562 0 3.89838 2 0 4.53999e-06 -0.0495375
3624 1 46.8574 13.4282 -161.748 0 3.83879 2 0 4.53999e-06 -0.878717
1203 1 46.8784 12.7763 -161.232 0 3.85143 2 0 4.53999e-06 -0.807977
8843 1 47.4336 12.8696 -160.624 0 3.89335 2 0 4.53999e-06 0.186569
8950 1 47.4708 13.576 -161.281 0 3.87625 1 0 4.53999e-06 -0.329429
6817 1 46.8606 13.5545 -160.601 0 3.82459 2 0 4.53999e-06 -0.298175
8646 1 48.4031 12.8066 -161.702 0 4.07421 2 0 4.53999e-06 0.628222
8266 1 48.9367 13.6341 -161.741 0 4.02347 2 0 4.53999e-06 0.812864
6034 1 48.2213 13.4293 -161.876 0 3.91565 1 0 4.53999e-06 0.643552
8951 1 48.0706 12.3875 -160.904 0 4.13564 2 0 4.53999e-06 0.70794
8835 1 48.1288 13.299 -161.092 0 4.04533 2 0 4.53999e-06 0.526292
4632 1 46.5512 14.1407 -161.306 0 3.80003 2 0 4.53999e-06 -0.646589
7748 1 47.4835 14.179 -161.736 0 3.86573 1 0 4.53999e-06 -0.603281
5813 1 48.1961 14.0565 -161.49 0 3.89849 1 0 4.53999e-06 0.247561
6183 1 48.3853 14.8489 -161.789 0 3.88781 2 0 4.53999e-06 0.103714
3698 1 46.3767 9.2966 -158.971 0 3.71218 2 0 4.53999e-06 -0.650768
8995 1 46.9854 8.69757 -158.921 0 3.72024 2 0 4.53999e-06 0.0850043
3222 1 47.2163 9.56181 -159.187 0 3.80137 1 0 4.53999e-06 0.064695
3925 1 46.6874 10.0759 -159.005 0 3.78008 1 0 4.53999e-06 -0.741131
2993 1 47.9192 10.0982 -159.416 0 4.08259 2 0 4.53999e-06 0.615272
8057 1 47.9742 9.1095 -158.847 0 3.9952 2 0 4.53999e-06 0.781145
4594 1 46.535 11.4653 -159.998 0 3.83964 2 0 4.53999e-06 -0.97814
3282 1 47.3947 11.0067 -160.379 0 3.90732 2 0 4.53999e-06 0.10042
4126 1 47.1435 10.4278 -159.598 0 3.86663 2 0 4.53999e-06 -0.384506
8538 1 47.7142 10.6388 -158.829 0 4.06161 2 0 4.53999e-06 0.534776
8006 1 47.3602 11.2528 -159.411 0 3.93733 2 0 4.53999e-06 -0.192931
9178 1 47.4837 11.9706 -160.145 0 4.13535 2 0 4.53999e-06 0.640038
3279 1 48.1796 10.9838 -159.674 0 4.23195 2 0 4.53999e-06 0.796517
2996 1 48.7412 10.4682 -158.903 0 4.31597 2 0 4.53999e-06 0.998698