ITEM: TIMESTEP
46000
ITEM: NUMBER OF ATOMS
9495
ITEM: BOX BOUNDS mm mm mm
0.0000000000000000e+00 7.6811815124437572e+01
-2.6683119798895683e+00 3.4265826398300653e+01
-1.5420194007633387e+02 3.1748021039364001e+01
ITEM: ATOMS id type x y z c_phase c_temp c_surf c_nbond c_visc f_3[1]
2149 1 65.8492 11.7443 -153.396 0 3.60966 2 0 4.53999e-06 -0.561456
2101 1 66.3879 12.1005 -152.683 0 3.65206 2 0 4.53999e-06 -0.69712
1924 1 66.6997 11.1139 -152.954 0 3.65685 2 0 4.53999e-06 -0.392491
2454 1 65.4041 12.4167 -152.545 0 3.5955 2 0 4.53999e-06 -0.778202
1561 1 67.7232 11.2856 -153.16 0 3.71895 2 0 4.53999e-06 0.168013
1560 1 66.9055 11.7923 -153.747 0 3.66502 2 0 4.53999e-06 -0.0739586
900 1 67.6009 12.1058 -152.658 0 3.73654 1 0 4.53999e-06 -0.181021
3628 1 68.4994 11.9661 -153.247 0 3.82722 2 0 4.53999e-06 0.297362
1201 1 69.4522 12.0863 -152.652 0 3.95524 2 0 4.53999e-06 0.451368
4113 1 70.4283 12.4223 -152.814 0 4.36465 2 0 4.53999e-06 0.595428
2453 1 64.83 12.5005 -153.505 0 3.55397 2 0 4.53999e-06 -0.910061
1920 1 65.886 12.7295 -153.56 0 3.61158 2 0 4.53999e-06 -0.449863
1865 1 65.947 13.2578 -152.713 0 3.62743 2 0 4.53999e-06 -0.905589
2100 1 65.1829 13.6637 -153.465 0 3.56648 2 0 4.53999e-06 -0.706358
1464 1 66.3884 13.6477 -153.535 0 3.64263 2 0 4.53999e-06 -0.229151
1143 1 66.8541 12.7413 -153.355 0 3.67913 2 0 4.53999e-06 -0.221477
1142 1 67.0058 13.6121 -152.786 0 3.69602 1 0 4.53999e-06 -0.257944
4521 1 67.4234 13.4563 -153.881 0 3.72738 2 0 4.53999e-06 -0.0247821
1196 1 67.7362 12.4574 -153.582 0 3.75261 2 0 4.53999e-06 0.0760656
8451 1 67.7734 13.0711 -152.734 0 3.7654 1 0 4.53999e-06 -0.0139202
9332 1 68.0012 13.9297 -153.141 0 3.79873 2 0 4.53999e-06 0.0453774
4544 1 68.473 13.1242 -153.708 0 3.86401 2 0 4.53999e-06 0.238954
4545 1 68.5485 12.6618 -152.728 0 3.85197 1 0 4.53999e-06 0.46543
4522 1 69.3556 12.5692 -153.563 0 4.03054 2 0 4.53999e-06 0.470586
4130 1 69.592 13.1035 -152.716 0 4.19408 2 0 4.53999e-06 0.658834
4109 1 69.0449 13.7715 -153.173 0 3.99127 2 0 4.53999e-06 0.479504
2099 1 61.7371 14.7704 -154.199 0 2.96278 3 0 4.53999e-06 -0
2150 1 67.743 10.7628 -152.211 0 3.70922 2 0 4.53999e-06 -0.0135651
2503 1 66.9733 11.5494 -152.068 0 3.68954 2 0 4.53999e-06 -0.500954
2105 1 67.9373 11.7401 -151.792 0 3.757 2 0 4.53999e-06 -0.213255
1921 1 68.6208 11.5313 -152.396 0 3.80797 2 0 4.53999e-06 0.301441
1562 1 68.8626 11.2396 -151.397 0 3.80987 2 0 4.53999e-06 -0.0967589
2551 1 68.5052 12.2182 -151.072 0 3.80096 2 0 4.53999e-06 -0.232562
2104 1 69.489 12.0687 -150.956 0 3.86241 2 0 4.53999e-06 -0.287906
2153 1 69.7784 11.5969 -151.811 0 3.90258 2 0 4.53999e-06 0.080661
1149 1 68.8904 12.4044 -151.971 0 3.86234 1 0 4.53999e-06 0.502533
3630 1 70.7724 11.1019 -151.636 0 3.89366 2 0 4.53999e-06 0.0118274
1928 1 70.8781 11.8753 -150.938 0 3.89718 2 0 4.53999e-06 -0.662173
903 1 70.6616 12.1166 -151.862 0 3.97564 2 0 4.53999e-06 0.364429
8992 1 71.7225 12.0073 -152.043 0 3.97075 2 0 4.53999e-06 0.402887
3522 1 71.6585 11.4182 -151.151 0 3.8998 2 0 4.53999e-06 0.163635
4125 1 72.6827 11.623 -151.038 0 3.93502 2 0 4.53999e-06 0.428088
3631 1 71.8347 12.2653 -151.035 0 3.93345 2 0 4.53999e-06 0.390593
1870 1 66.3165 13.1167 -151.828 0 3.6544 2 0 4.53999e-06 -0.76724
7200 1 65.4223 13.964 -151.291 0 3.55736 2 0 4.53999e-06 -0.797009
1465 1 66.7348 14.0218 -151.604 0 3.668 2 0 4.53999e-06 -0.261438
1469 1 66.9362 12.7611 -152.462 0 3.69312 1 0 4.53999e-06 -0.908406
2460 1 67.1529 12.45 -151.651 0 3.70993 2 0 4.53999e-06 -0.487573
6588 1 66.8287 13.1855 -150.883 0 3.67163 2 0 4.53999e-06 -0.357424
6032 1 67.8614 13.0241 -151.135 0 3.75413 2 0 4.53999e-06 -0.192495
906 1 67.3672 13.3849 -151.906 0 3.72399 1 0 4.53999e-06 -0.290527
3632 1 68.0104 12.6264 -151.892 0 3.7762 1 0 4.53999e-06 -0.213984
8452 1 68.1524 13.8089 -151.652 0 3.78645 2 0 4.53999e-06 0.0818776
2457 1 68.8013 13.1027 -151.458 0 3.84314 1 0 4.53999e-06 0.167564
9330 1 68.6215 13.4235 -152.352 0 3.86022 1 0 4.53999e-06 0.434775
7563 1 69.5641 13.1158 -150.914 0 3.88219 2 0 4.53999e-06 0.135041
9333 1 69.7908 12.682 -151.856 0 3.96947 1 0 4.53999e-06 0.839963
9222 1 69.4883 13.7081 -151.886 0 3.94787 2 0 4.53999e-06 0.443634
4114 1 70.5119 13.2529 -152.088 0 4.30813 2 0 4.53999e-06 0.543699
9329 1 71.2674 12.8734 -151.496 0 3.97701 2 0 4.53999e-06 0.299836
3629 1 70.3476 12.5856 -151.114 0 3.92636 2 0 4.53999e-06 0.0232865
9428 1 72.8242 12.6468 -151.646 0 4.4505 2 0 4.53999e-06 0.599538
6299 1 66.2284 14.2201 -152.489 0 3.63703 2 0 4.53999e-06 -0.452698
6028 1 67.5236 14.316 -152.306 0 3.73387 2 0 4.53999e-06 -0.0706101
9219 1 68.6216 14.3741 -152.381 0 3.84441 2 0 4.53999e-06 0.276613
1008 1 72.4126 10.4046 -149.525 0 3.87286 2 0 4.53999e-06 -0.545753
4587 1 73.0183 10.6468 -150.464 0 3.89943 2 0 4.53999e-06 0.0900603
3870 1 75.2769 10.6956 -149.439 0 4.46164 2 0 4.53999e-06 0.516104
2151 1 70.0185 11.1488 -150.774 0 3.85184 2 0 4.53999e-06 -0.416779
952 1 71.083 10.9256 -150.473 0 3.85911 2 0 4.53999e-06 -0.24858
2547 1 70.7126 11.6978 -149.827 0 3.84832 2 0 4.53999e-06 -0.365619
1866 1 71.6895 11.8632 -150.325 0 3.89111 2 0 4.53999e-06 -0.539416
3519 1 73.4623 10.7702 -149.571 0 3.95809 2 0 4.53999e-06 -0.0977082
1922 1 72.1634 11.1062 -150.346 0 3.88721 2 0 4.53999e-06 -0.33646
1148 1 73.003 11.4501 -150.103 0 3.9283 1 0 4.53999e-06 -0.0932022
7205 1 72.3303 11.6891 -149.647 0 3.89967 2 0 4.53999e-06 -0.735811
6608 1 73.0802 12.1631 -149.539 0 3.94037 1 0 4.53999e-06 -0.313585
1466 1 72.5453 12.2505 -150.38 0 3.92561 2 0 4.53999e-06 0.291479
4548 1 73.8483 11.2772 -150.289 0 3.98381 2 0 4.53999e-06 0.404404
4520 1 74.4141 11.1007 -149.537 0 4.07965 1 0 4.53999e-06 0.39869
9218 1 74.56 11.9846 -150.132 0 4.29676 2 0 4.53999e-06 0.5318
1869 1 73.7366 11.6573 -149.555 0 3.99749 1 0 4.53999e-06 0.040609
9334 1 73.5337 12.2151 -150.389 0 3.97366 2 0 4.53999e-06 0.361377
8739 1 75.5216 11.7089 -149.385 0 4.46679 2 0 4.53999e-06 0.719041
6967 1 68.6296 13.0743 -150.21 0 3.77381 2 0 4.53999e-06 -0.184516
6973 1 70.0515 12.5048 -150.113 0 3.85374 2 0 4.53999e-06 -0.269887
7556 1 71.1461 12.6431 -150.452 0 3.8962 2 0 4.53999e-06 -0.219624
8449 1 72.1611 13.1786 -150.744 0 3.94728 2 0 4.53999e-06 0.232256
6298 1 71.9832 12.6872 -149.68 0 3.88428 2 0 4.53999e-06 -0.266475
7557 1 73.9947 12.5424 -149.381 0 4.01063 2 0 4.53999e-06 0.0647874
1195 1 73.2457 10.3647 -148.658 0 3.94207 2 0 4.53999e-06 -0.469864
4325 1 74.3483 10.3968 -148.91 0 4.07088 2 0 4.53999e-06 0.0388914
4417 1 74.9101 10.4322 -147.995 0 4.15726 2 0 4.53999e-06 -0.0333747
4227 1 76.3251 10.7185 -147.913 0 4.61889 2 0 4.53999e-06 0.850759
1199 1 72.9407 11.3005 -149.041 0 3.93627 1 0 4.53999e-06 -0.770925
6604 1 72.6883 12.2436 -148.632 0 3.90669 2 0 4.53999e-06 -0.621862
9220 1 74.5482 11.8466 -149.217 0 4.0935 1 0 4.53999e-06 0.527761
7203 1 73.6252 11.9149 -148.787 0 3.99475 1 0 4.53999e-06 -0.641319
954 1 73.8638 11.173 -148.881 0 4.02131 1 0 4.53999e-06 -0.578551
8448 1 74.7384 11.1707 -148.689 0 4.13534 1 0 4.53999e-06 0.523079
7204 1 74.3941 11.668 -148.449 0 4.07864 1 0 4.53999e-06 -0.287572
1976 1 74.0102 10.8379 -148.113 0 4.04607 2 0 4.53999e-06 -0.509384
7202 1 73.7349 11.7022 -147.864 0 4.01514 2 0 4.53999e-06 -0.746659
2553 1 74.6684 11.2715 -147.751 0 4.12357 1 0 4.53999e-06 -0.410905
6030 1 74.879 12.175 -147.739 0 4.11609 2 0 4.53999e-06 0.181275
7555 1 75.3027 11.7239 -148.379 0 4.21041 1 0 4.53999e-06 0.793838
4519 1 75.5234 10.9025 -148.516 0 4.42147 2 0 4.53999e-06 0.682667
3213 1 76.2971 11.5732 -148.562 0 4.65447 2 0 4.53999e-06 0.907847
4518 1 75.4694 11.1887 -147.665 0 4.24207 1 0 4.53999e-06 0.857295
9221 1 75.9202 12.0022 -147.682 0 4.48954 2 0 4.53999e-06 0.677022
9171 1 74.9603 12.4459 -148.744 0 4.11063 2 0 4.53999e-06 0.418237
6027 1 74.1329 12.4605 -148.313 0 4.02412 2 0 4.53999e-06 -0.222672
4588 1 75.6487 10.3082 -147.231 0 4.23079 2 0 4.53999e-06 0.216593
1010 1 75.7679 10.7311 -146.229 0 4.22385 2 0 4.53999e-06 0.225508
955 1 74.9459 10.8696 -146.878 0 4.15386 2 0 4.53999e-06 -0.605501
6908 1 74.3937 11.701 -147.077 0 4.07637 2 0 4.53999e-06 -0.569311
2656 1 75.2341 11.3479 -145.972 0 4.16793 2 0 4.53999e-06 -0.897842
6304 1 75.3377 11.7409 -146.915 0 4.19021 2 0 4.53999e-06 0.0681971
902 1 76.0704 11.6697 -146.122 0 4.25247 2 0 4.53999e-06 0.486427
3520 1 76.1208 11.1869 -146.998 0 4.47399 2 0 4.53999e-06 0.997961
7474 1 74.0295 12.6563 -147.283 0 3.97683 2 0 4.53999e-06 -0.363352
1253 1 74.9822 10.4126 -145.561 0 4.10012 2 0 4.53999e-06 -0.613349
901 1 76.3847 10.7434 -144.835 0 4.44335 2 0 4.53999e-06 0.57859
7373 1 74.8669 11.4012 -145.001 0 4.12153 2 0 4.53999e-06 -0.97316
4546 1 76.6726 10.8636 -145.853 0 4.56801 2 0 4.53999e-06 0.856227
2598 1 75.5094 10.791 -144.673 0 4.19061 2 0 4.53999e-06 -0.581936
2552 1 75.832 11.2312 -145.26 0 4.23532 2 0 4.53999e-06 -0.150916
4516 1 76.2752 11.4357 -144.495 0 4.37864 2 0 4.53999e-06 0.788611
8944 1 76.608 11.7189 -145.271 0 4.50512 2 0 4.53999e-06 0.76048
8547 1 75.6683 11.941 -144.816 0 4.19697 2 0 4.53999e-06 -0.308358
4420 1 76.2781 10.6079 -143.208 0 4.18962 2 0 4.53999e-06 0.422806
6970 1 75.6218 11.374 -144.174 0 4.19668 2 0 4.53999e-06 -0.911025
2599 1 76.0256 10.8397 -143.958 0 4.21391 2 0 4.53999e-06 0.0716078
3873 1 76.8086 11.1231 -143.907 0 4.40988 2 0 4.53999e-06 0.978309
9122 1 76.2298 11.9668 -143.9 0 4.20532 2 0 4.53999e-06 0.353948
6450 1 75.1792 11.5732 -142.889 0 4.13872 2 0 4.53999e-06 -0.898021
6297 1 75.5454 11.6775 -143.55 0 4.17049 2 0 4.53999e-06 -0.675462
4547 1 76.5357 11.3314 -142.942 0 4.32921 2 0 4.53999e-06 0.982507
6301 1 76.1943 11.3626 -143.511 0 4.31284 2 0 4.53999e-06 0.874469
7152 1 75.5293 10.9554 -143.349 0 4.16847 1 0 4.53999e-06 -0.744409
1926 1 75.9227 11.0004 -142.764 0 4.18323 1 0 4.53999e-06 0.145231
6245 1 75.9186 11.7579 -142.914 0 4.17802 1 0 4.53999e-06 0.0968561
4630 1 75.7914 10.5587 -142.183 0 4.16161 2 0 4.53999e-06 -0.0450246
4591 1 75.7135 10.7169 -141.266 0 4.16088 2 0 4.53999e-06 0.0721977
6240 1 75.0265 11.871 -141.56 0 4.11985 2 0 4.53999e-06 -0.740233
3425 1 75.3228 10.9785 -142.51 0 4.14965 2 0 4.53999e-06 -0.852282
8546 1 76.2051 11.5762 -142.277 0 4.29904 2 0 4.53999e-06 0.732041
8989 1 76.4943 10.8867 -142.235 0 4.33282 2 0 4.53999e-06 0.859963
7376 1 75.5269 11.5921 -142.243 0 4.15907 2 0 4.53999e-06 -0.576428
6972 1 75.8797 11.1497 -141.835 0 4.27984 2 0 4.53999e-06 0.532199
7662 1 75.8215 11.8295 -141.58 0 4.16425 2 0 4.53999e-06 0.281279
1255 1 75.1581 11.1015 -141.726 0 4.13961 2 0 4.53999e-06 -0.911343
9168 1 76.3739 11.3172 -141.276 0 4.34843 2 0 4.53999e-06 0.899671
6590 1 75.5512 11.3623 -140.999 0 4.16726 2 0 4.53999e-06 -0.0788274
6905 1 74.7989 11.3051 -140.832 0 4.12663 2 0 4.53999e-06 -0.979813
7374 1 74.6287 11.4711 -139.293 0 4.16514 2 0 4.53999e-06 -0.75921
9429 1 74.8835 12.2831 -139.288 0 4.18598 2 0 4.53999e-06 -0.212525
6605 1 75.0953 11.7134 -140.032 0 4.19083 2 0 4.53999e-06 -0.733973
9169 1 75.5421 12.0604 -140.707 0 4.16835 2 0 4.53999e-06 0.0849555
1923 1 75.273 10.9143 -140.134 0 4.17551 2 0 4.53999e-06 -0.132697
9331 1 75.99 11.3917 -140.279 0 4.38862 2 0 4.53999e-06 0.910639
8447 1 75.4674 11.3281 -139.277 0 4.39438 2 0 4.53999e-06 0.802508
9123 1 75.7669 12.0595 -139.566 0 4.45627 2 0 4.53999e-06 0.730853
4229 1 74.8637 10.67 -139.07 0 4.14572 2 0 4.53999e-06 -0.103133
1685 1 74.078 11.1116 -138.462 0 4.05852 2 0 4.53999e-06 -0.598402
6907 1 74.3256 11.9023 -138.634 0 4.11116 2 0 4.53999e-06 -0.638851
6513 1 73.5591 11.8762 -138.187 0 3.9754 2 0 4.53999e-06 -0.790461
4326 1 74.6456 11.0179 -137.816 0 4.09303 2 0 4.53999e-06 0.245648
1569 1 73.9879 11.4761 -137.603 0 4.00057 2 0 4.53999e-06 -0.578704
1563 1 74.6473 11.8273 -137.902 0 4.2351 2 0 4.53999e-06 0.724883
3521 1 74.9881 11.3135 -138.507 0 4.18497 2 0 4.53999e-06 0.494714
3872 1 76.0457 11.3655 -138.54 0 4.57239 2 0 4.53999e-06 0.941651
7554 1 75.2953 12.0233 -138.6 0 4.3746 2 0 4.53999e-06 0.714311
4515 1 75.4211 11.6374 -137.767 0 4.39114 2 0 4.53999e-06 0.875726
7559 1 74.6276 12.5535 -138.191 0 4.10975 2 0 4.53999e-06 0.0788102
2452 1 73.1992 11.2075 -137.47 0 3.86437 2 0 4.53999e-06 -0.703381
1566 1 73.2054 12.0261 -137.19 0 3.84077 2 0 4.53999e-06 -0.829186
2201 1 72.4215 11.653 -136.726 0 3.73101 2 0 4.53999e-06 -0.865987
4330 1 73.2584 11.2704 -136.481 0 3.79174 2 0 4.53999e-06 -0.146546
6303 1 73.2583 12.1581 -136.211 0 3.76659 2 0 4.53999e-06 0.397134
1567 1 72.2091 12.2583 -135.96 0 3.74339 2 0 4.53999e-06 -0.959256
2548 1 73.9816 12.2375 -137.545 0 3.98944 2 0 4.53999e-06 -0.270787
9224 1 74.7387 12.3667 -137.218 0 4.2538 2 0 4.53999e-06 0.545336
1259 1 73.9973 10.9633 -136.979 0 3.92896 2 0 4.53999e-06 0.0756599
4331 1 74.74 11.5025 -137.072 0 4.23492 2 0 4.53999e-06 0.614081
1198 1 73.9868 11.8616 -136.714 0 3.91328 2 0 4.53999e-06 0.394763
6031 1 72.6693 12.6448 -136.744 0 3.7341 2 0 4.53999e-06 -0.524058
8945 1 73.7129 12.7706 -136.823 0 3.83944 2 0 4.53999e-06 0.16552
1688 1 69.3916 12.3803 -134.548 0 3.66356 2 0 4.53999e-06 -0.598323
4419 1 71.3624 11.9363 -134.948 0 3.81156 2 0 4.53999e-06 0.159879
2154 1 70.4136 12.2742 -134.897 0 3.77445 2 0 4.53999e-06 -0.284752
4228 1 72.7461 11.613 -135.625 0 3.72639 2 0 4.53999e-06 0.0721746
9223 1 71.3111 12.6584 -135.528 0 3.78519 2 0 4.53999e-06 -0.347588
3876 1 71.7785 13.3844 -135.103 0 3.78811 2 0 4.53999e-06 0.318056
6243 1 70.5657 13.2454 -134.922 0 3.77749 2 0 4.53999e-06 -0.219669
4551 1 71.2202 12.7524 -134.574 0 4.02435 2 0 4.53999e-06 0.833132
8600 1 72.7991 12.8874 -135.742 0 3.73558 2 0 4.53999e-06 0.39829
4549 1 72.1851 12.4637 -135.01 0 4.04018 2 0 4.53999e-06 0.667735
1681 1 67.8641 12.1038 -132.763 0 3.41003 2 0 4.53999e-06 -0.517631
1011 1 69.9388 11.8325 -134.053 0 3.71934 2 0 4.53999e-06 -0.0573916
1313 1 69.308 11.9644 -132.949 0 3.61057 2 0 4.53999e-06 0.202899
4328 1 70.8324 12.13 -134.058 0 4.02395 2 0 4.53999e-06 0.592192
6237 1 67.3153 12.8222 -132.619 0 3.35271 2 0 4.53999e-06 -0.836069
7151 1 68.1837 12.9838 -132.725 0 3.46728 2 0 4.53999e-06 -0.588612
1257 1 69.392 12.4461 -133.619 0 3.66029 2 0 4.53999e-06 -0.376964
7377 1 69.1267 13.1058 -133.971 0 3.62808 2 0 4.53999e-06 -0.515536
1467 1 70.0585 12.8278 -134.263 0 3.75199 2 0 4.53999e-06 -0.127085
2202 1 68.6535 12.4786 -133.189 0 3.54894 2 0 4.53999e-06 -0.498176
7558 1 69.8414 13.2937 -133.509 0 3.70173 2 0 4.53999e-06 0.367393
7472 1 68.9955 13.1901 -133.124 0 3.59423 2 0 4.53999e-06 -0.136801
904 1 69.6839 12.7832 -132.883 0 3.80758 2 0 4.53999e-06 0.874206
3641 1 70.762 13.1162 -133.849 0 4.02582 2 0 4.53999e-06 0.637827
4232 1 70.1968 12.4634 -133.477 0 3.9063 2 0 4.53999e-06 0.750538
1684 1 67.9734 11.9014 -131.662 0 3.36767 2 0 4.53999e-06 -0.105745
2655 1 67.2069 12.2768 -131.139 0 3.28077 2 0 4.53999e-06 -0.453994
3422 1 68.5718 12.2388 -132.375 0 3.50053 2 0 4.53999e-06 0.07462
7150 1 66.2833 12.8679 -131.106 0 3.23712 2 0 4.53999e-06 -0.961436
9126 1 67.7138 13.5731 -132.246 0 3.36912 2 0 4.53999e-06 -0.523317
2208 1 67.9344 12.6174 -132.027 0 3.40738 2 0 4.53999e-06 -0.72922
7475 1 67.3065 12.982 -131.723 0 3.32245 2 0 4.53999e-06 -0.977206
956 1 68.0142 12.7875 -131.141 0 3.35217 2 0 4.53999e-06 0.244972
8943 1 67.8985 13.7615 -131.327 0 3.32122 2 0 4.53999e-06 0.0280928
7657 1 68.3799 13.2234 -131.841 0 3.44205 2 0 4.53999e-06 0.30649
3966 1 69.3158 12.5018 -132.264 0 3.74525 2 0 4.53999e-06 0.708792
6242 1 68.5535 13.825 -132.576 0 3.48203 2 0 4.53999e-06 -0.021373
4416 1 68.8326 13.0126 -132.384 0 3.65918 2 0 4.53999e-06 0.621592
9120 1 69.5015 13.5516 -132.439 0 3.81809 2 0 4.53999e-06 0.590064
4631 1 68.7583 12.4978 -131.56 0 3.64455 2 0 4.53999e-06 0.541636
8544 1 64.9103 12.8194 -129.319 0 3.46219 2 0 4.53999e-06 0.0145592
8898 1 65.7284 13.0962 -129.947 0 3.38105 2 0 4.53999e-06 -0.0286925
3640 1 66.7079 12.6446 -130.116 0 3.33428 2 0 4.53999e-06 0.233242
9172 1 67.2152 13.2129 -130.886 0 3.27118 2 0 4.53999e-06 -0.314703
1929 1 64.8449 12.1611 -128.59 0 3.48312 2 0 4.53999e-06 0.274401
2205 1 64.1564 12.3025 -128.12 0 3.41368 2 0 4.53999e-06 -0.183772
4633 1 64.7066 12.3866 -127.736 0 3.57087 2 0 4.53999e-06 0.750313
7553 1 65.6683 12.2144 -129.15 0 3.76624 2 0 4.53999e-06 0.61705
1056 1 65.5996 12.3145 -128.009 0 3.77589 2 0 4.53999e-06 0.876117
7658 1 63.4416 13.1566 -127.688 0 3.34577 2 0 4.53999e-06 -0.827625
6968 1 64.209 12.655 -128.86 0 3.41715 2 0 4.53999e-06 -0.329221
8686 1 63.6714 13.4803 -128.669 0 3.35417 2 0 4.53999e-06 -0.529631
8595 1 64.6071 13.4159 -128.64 0 3.43371 2 0 4.53999e-06 0.225006
6509 1 63.5648 12.6982 -128.268 0 3.36901 2 0 4.53999e-06 -0.813096
6305 1 64.1914 12.9831 -128.192 0 3.4141 2 0 4.53999e-06 -0.162338
9227 1 64.9212 12.8531 -128.26 0 3.60186 2 0 4.53999e-06 0.947574
3281 1 64.0868 13.5141 -127.826 0 3.38365 2 0 4.53999e-06 -0.0141628
4590 1 65.5397 13.0522 -128.734 0 3.72375 2 0 4.53999e-06 0.850734
2597 1 63.4435 12.2526 -127.636 0 3.34593 2 0 4.53999e-06 -0.759578
6591 1 62.8548 12.3723 -126.337 0 3.21631 2 0 4.53999e-06 -0.808031
1683 1 64.19 11.8582 -127.471 0 3.3861 2 0 4.53999e-06 0.114026
1258 1 63.6917 12.0897 -126.775 0 3.31563 2 0 4.53999e-06 -0.153326
6455 1 59.9608 12.6052 -126.623 0 2.92948 3 0 4.53999e-06 -0.444697
1197 1 63.3005 12.7906 -126.993 0 3.30548 2 0 4.53999e-06 -0.934887
6512 1 63.1372 13.4955 -126.432 0 3.22242 2 0 4.53999e-06 -0.481254
953 1 63.9315 12.6265 -127.417 0 3.37789 2 0 4.53999e-06 -0.402253
3922 1 64.4168 12.5464 -126.962 0 3.52393 2 0 4.53999e-06 0.624482
3643 1 63.9638 13.2486 -127.04 0 3.3488 2 0 4.53999e-06 0.12279
4121 1 64.5786 13.045 -127.576 0 3.54399 2 0 4.53999e-06 0.691404
1565 1 63.8408 12.8136 -126.259 0 3.27889 2 0 4.53999e-06 0.31079
3523 1 63.1507 12.8468 -125.48 0 3.16144 2 0 4.53999e-06 -0.204314
9170 1 61.234 14.4382 -125.705 0 3.44533 3 0 4.53999e-06 -0.145723
2449 1 59.2013 12.225 -122.907 0 3.96353 2 0 4.53999e-06 -0.117673
4593 1 60.6752 12.3701 -123.325 0 4.47062 2 0 4.53999e-06 0.64231
3874 1 62.1388 11.0439 -124.308 0 4.35655 3 0 4.53999e-06 0.424043
6694 1 59.4497 13.6497 -123.558 0 3.99203 2 0 4.53999e-06 -0.162338
2652 1 59.7702 12.8042 -123.525 0 4.06145 2 0 4.53999e-06 0.0185897
2152 1 59.3096 13.0468 -122.928 0 3.98887 2 0 4.53999e-06 -0.113051
2199 1 58.4623 12.8561 -122.829 0 3.89327 2 0 4.53999e-06 -0.713064
6974 1 58.8423 13.5721 -122.703 0 3.92228 2 0 4.53999e-06 -0.424884
7656 1 59.6467 13.6776 -122.697 0 4.00363 2 0 4.53999e-06 0.413195
4124 1 59.9625 12.6995 -122.761 0 4.20163 2 0 4.53999e-06 0.767632
8543 1 60.4125 13.0708 -124.219 0 4.12497 2 0 4.53999e-06 0.179918
8838 1 61.2734 13.1906 -123.609 0 4.64376 2 0 4.53999e-06 0.959128
8946 1 60.3822 13.4008 -123.161 0 4.31719 2 0 4.53999e-06 0.798717
1256 1 58.5636 12.2705 -121.968 0 3.87096 2 0 4.53999e-06 -0.363581
1260 1 57.9121 12.9269 -121.877 0 3.81444 2 0 4.53999e-06 -0.95854
7149 1 58.0949 13.9591 -122.105 0 3.80984 2 0 4.53999e-06 -0.623644
6606 1 57.7239 13.6188 -121.13 0 3.73245 2 0 4.53999e-06 -0.772789
4418 1 58.3539 12.7334 -121.135 0 3.80846 2 0 4.53999e-06 -0.376043
1261 1 58.9677 12.7823 -122.355 0 3.93796 2 0 4.53999e-06 -0.351186
9226 1 59.3818 13.2617 -122.084 0 4.07166 2 0 4.53999e-06 0.723686
4225 1 59.5404 12.5252 -122.108 0 4.04486 2 0 4.53999e-06 0.494952
6302 1 58.4986 13.2299 -122.119 0 3.88099 2 0 4.53999e-06 -0.965471
4424 1 59.0576 12.8952 -121.57 0 3.91135 2 0 4.53999e-06 0.246598
6906 1 59.0547 13.7967 -121.993 0 3.91763 2 0 4.53999e-06 0.0873184
8897 1 60.048 13.2175 -122.208 0 4.18704 2 0 4.53999e-06 0.908018
8497 1 58.6255 13.4887 -121.448 0 3.857 2 0 4.53999e-06 -0.266846
8317 1 59.6892 13.5404 -121.214 0 4.16595 2 0 4.53999e-06 0.636238
8270 1 58.838 13.4228 -120.528 0 3.77907 2 0 4.53999e-06 0.0954239
6508 1 52.9853 12.1307 -114.938 0 3.52807 3 0 4.53999e-06 0.0677263
6452 1 56.6308 11.5594 -115.169 0 2.8957 3 0 4.53999e-06 -0
8450 1 55.1662 15.0599 -114.683 0 6.35888 3 0 4.53999e-06 -0
8444 1 52.8063 13.6396 -113.163 0 3.83077 2 0 4.53999e-06 0.111138
8500 1 51.9992 14.3098 -113.01 0 3.79051 2 0 4.53999e-06 -0.605934
9128 1 52.0841 13.3354 -112.657 0 3.80921 2 0 4.53999e-06 -0.695785
8263 1 52.7883 13.7898 -112.234 0 3.86159 2 0 4.53999e-06 0.0837545
2456 1 52.9954 12.8084 -112.494 0 3.83956 2 0 4.53999e-06 0.212779
2600 1 53.4268 13.6094 -112.483 0 4.03702 2 0 4.53999e-06 0.789017
3220 1 52.162 13.5104 -111.29 0 3.82892 2 0 4.53999e-06 -0.865339
6241 1 52.5805 13.2632 -111.908 0 3.84943 2 0 4.53999e-06 -0.3514
8314 1 52.212 13.9 -111.978 0 3.83489 2 0 4.53999e-06 -0.938594
6185 1 52.8 12.9174 -111.22 0 3.84315 2 0 4.53999e-06 0.0403102
8738 1 52.8273 13.6603 -111.337 0 3.86626 1 0 4.53999e-06 0.292958
2458 1 53.2978 13.421 -111.697 0 3.99994 2 0 4.53999e-06 0.817499
4415 1 53.2822 14.072 -111.123 0 3.99937 2 0 4.53999e-06 0.882127
1691 1 52.9346 14.4483 -112.62 0 3.86181 2 0 4.53999e-06 0.261889
8316 1 52.4517 14.1296 -111.35 0 3.84627 1 0 4.53999e-06 -0.749141
3217 1 52.2747 14.6734 -111.994 0 3.82381 2 0 4.53999e-06 -0.483183
3967 1 52.8102 14.6777 -111.065 0 3.85157 2 0 4.53999e-06 0.0839922
3970 1 52.9077 14.2717 -111.788 0 3.86828 2 0 4.53999e-06 0.333281
4324 1 53.5654 14.1502 -111.848 0 4.04056 2 0 4.53999e-06 0.91353
7660 1 52.3604 13.314 -110.503 0 3.81312 2 0 4.53999e-06 -0.462324
8990 1 52.6938 14.0049 -110.631 0 3.84794 2 0 4.53999e-06 -0.149055
9427 1 53.2562 13.4315 -110.687 0 4.00017 2 0 4.53999e-06 0.62946
8442 1 52.9244 13.7298 -109.722 0 3.79672 2 0 4.53999e-06 0.108091
3207 1 51.8792 14.2518 -110.798 0 3.79598 2 0 4.53999e-06 -0.87902
4116 1 52.5165 14.6834 -110.085 0 3.79677 2 0 4.53999e-06 -0.259609
2212 1 53.5327 14.4124 -110.268 0 4.10465 2 0 4.53999e-06 0.726183
3692 1 50.951 14.4108 -108.418 0 3.33482 3 0 4.53999e-06 -0.684022
3212 1 49.7392 15.2088 -106.017 0 3.96701 2 0 4.53999e-06 -0.141325
8102 1 49.0522 14.8726 -104.412 0 3.96207 2 0 4.53999e-06 -0.438528
8684 1 49.247 15.523 -104.926 0 4.00929 2 0 4.53999e-06 -0.601398
8269 1 49.802 14.9505 -105.082 0 4.02257 2 0 4.53999e-06 0.158399
8213 1 50.4298 15.7533 -105.494 0 4.28514 2 0 4.53999e-06 0.864936
5917 1 50.4013 15.3577 -104.648 0 4.25082 2 0 4.53999e-06 0.925987
4014 1 48.3088 15.7368 -103.425 0 3.89787 2 0 4.53999e-06 -0.935666
3740 1 48.5131 15.5946 -104.301 0 3.93785 2 0 4.53999e-06 -0.912594
8267 1 49.5549 14.6494 -103.681 0 3.97594 2 0 4.53999e-06 0.256782
9125 1 49.7573 15.2356 -104.232 0 4.03605 1 0 4.53999e-06 0.591704
3920 1 48.6336 14.9069 -103.601 0 3.91328 2 0 4.53999e-06 -0.741498
8315 1 49.0926 14.5061 -102.861 0 3.88439 2 0 4.53999e-06 0.00830432
8948 1 49.1922 15.3184 -103.678 0 3.97631 1 0 4.53999e-06 -0.627104
8596 1 49.0247 15.4552 -103.007 0 3.93346 2 0 4.53999e-06 -0.375953
7661 1 49.7275 15.1192 -102.962 0 4.11918 2 0 4.53999e-06 0.68097
6182 1 50.3594 15.1002 -103.626 0 4.23387 2 0 4.53999e-06 0.884157
1974 1 48.3757 15.0351 -102.732 0 3.85065 2 0 4.53999e-06 -0.86794
8268 1 49.2794 15.1086 -101.999 0 3.84514 2 0 4.53999e-06 0.323497
3423 1 48.4552 14.4234 -101.919 0 3.73226 2 0 4.53999e-06 -0.422287
4673 1 47.2326 15.2284 -99.9091 0 3.60053 3 0 4.53999e-06 -0.337206
8264 1 49.442 14.2963 -99.8041 0 4.06088 3 0 4.53999e-06 0.782609
3642 1 47.4007 14.8913 -97.9586 0 3.79041 2 0 4.53999e-06 -0.193323
4230 1 48.4481 15.2043 -98.16 0 4.2458 2 0 4.53999e-06 0.727513
2994 1 47.91 14.0635 -97.4032 0 3.75509 2 0 4.53999e-06 0.436689
3738 1 46.3907 14.5117 -96.8415 0 3.69875 2 0 4.53999e-06 -0.666653
3737 1 46.6565 14.9545 -96.4114 0 3.72912 1 0 4.53999e-06 -0.772008
4634 1 47.109 14.8133 -97.1511 0 3.76157 2 0 4.53999e-06 -0.270532
1687 1 46.802 15.6356 -97.0146 0 3.75491 2 0 4.53999e-06 -0.518023
9425 1 47.8839 15.1432 -97.2804 0 3.99121 2 0 4.53999e-06 0.824265
8101 1 47.1857 14.3032 -96.5947 0 3.73856 2 0 4.53999e-06 0.185173
909 1 47.3298 15.2267 -96.6562 0 3.78194 1 0 4.53999e-06 0.482576
6188 1 47.8921 14.6573 -96.6063 0 3.93443 2 0 4.53999e-06 0.914215
8056 1 46.809 13.7535 -95.2698 0 3.68615 2 0 4.53999e-06 0.145821
8740 1 45.9521 14.1431 -95.4694 0 3.67065 2 0 4.53999e-06 -0.744936
3278 1 45.9566 14.9923 -96.0271 0 3.68726 2 0 4.53999e-06 -0.935995
3923 1 46.5508 14.2474 -96.0802 0 3.70339 2 0 4.53999e-06 -0.414345
3921 1 46.5311 14.6736 -95.5455 0 3.71909 1 0 4.53999e-06 -0.745856
2555 1 46.4517 15.3163 -95.3553 0 3.72848 1 0 4.53999e-06 -0.472294
3371 1 45.7577 14.923 -95.0666 0 3.68218 2 0 4.53999e-06 -0.973985
9326 1 46.3757 14.4339 -94.6824 0 3.7166 2 0 4.53999e-06 -0.290784
8837 1 47.2693 14.3306 -95.8526 0 3.73367 1 0 4.53999e-06 0.616355
3517 1 47.0296 14.9739 -95.7026 0 3.74706 1 0 4.53999e-06 0.684596
3793 1 46.7837 15.4876 -96.0834 0 3.74539 1 0 4.53999e-06 -0.323006
9426 1 47.1115 14.5976 -95.0813 0 3.87069 2 0 4.53999e-06 0.674731
8899 1 47.5036 15.0199 -96.0719 0 3.77118 1 0 4.53999e-06 0.954012
6687 1 47.3198 15.5622 -95.3797 0 3.92525 2 0 4.53999e-06 0.539476
8743 1 46.8382 15.2084 -94.6624 0 3.79706 2 0 4.53999e-06 0.431498
3218 1 45.8903 14.694 -93.8903 0 3.68795 2 0 4.53999e-06 -0.716631
3969 1 46.0635 15.4962 -94.4171 0 3.71807 2 0 4.53999e-06 -0.573787
4233 1 46.37 14.9928 -92.9682 0 3.69105 2 0 4.53999e-06 -0.116907
5809 1 46.9359 14.6474 -93.9085 0 3.97217 2 0 4.53999e-06 0.582726
6244 1 46.7809 15.7005 -93.711 0 3.85294 2 0 4.53999e-06 0.330625
8597 1 45.0591 13.7995 -91.7581 0 3.57458 3 0 4.53999e-06 -0.780508
8839 1 47.6791 13.7101 -92.1854 0 4.02579 3 0 4.53999e-06 0.630128
1868 1 48.3606 15.6753 -91.2143 0 4.65708 3 0 4.53999e-06 0.554694
8900 1 46.3263 13.7396 -90.4354 0 3.63394 3 0 4.53999e-06 0.19744
7375 1 48.4636 12.9678 -90.5033 0 3.87903 3 0 4.53999e-06 0.570118
8265 1 44.2657 14.6473 -89.7527 0 3.54571 3 0 4.53999e-06 -0.982199
1930 1 47.7141 15.2347 -89.8895 0 4.19149 3 0 4.53999e-06 0.943924
8322 1 46.002 14.1952 -88.197 0 3.61191 2 0 4.53999e-06 -0.434582
3691 1 45.8474 15.1542 -88.3054 0 3.62216 2 0 4.53999e-06 -0.727583
3871 1 46.5817 14.6472 -88.8321 0 3.7076 2 0 4.53999e-06 0.157584
4017 1 46.3339 15.6039 -89.0787 0 3.69464 2 0 4.53999e-06 -0.149111
6037 1 47.2314 14.3846 -88.1122 0 3.98144 2 0 4.53999e-06 0.77567
4414 1 46.8576 15.3291 -88.17 0 3.9442 2 0 4.53999e-06 0.565752
9173 1 46.2904 14.0678 -86.2476 0 3.52457 1 0 4.53999e-06 -0.163826
6181 1 47.1716 13.3952 -86.2794 0 3.53323 2 0 4.53999e-06 0.508314
5815 1 47.3872 14.0292 -87.1159 0 3.91499 2 0 4.53999e-06 0.821562
3209 1 45.4189 14.6816 -87.5223 0 3.53472 2 0 4.53999e-06 -0.949976
8645 1 46.5056 14.3006 -87.4676 0 3.64786 2 0 4.53999e-06 0.0496823
9424 1 45.9408 14.5393 -86.8421 0 3.54864 2 0 4.53999e-06 -0.773207
3690 1 45.552 15.3332 -86.5599 0 3.49108 2 0 4.53999e-06 -0.718992
4592 1 46.2172 15.1849 -87.4498 0 3.61663 2 0 4.53999e-06 -0.232532
8445 1 46.4275 15.2318 -86.5838 0 3.56741 2 0 4.53999e-06 0.217031
8545 1 46.7791 14.4877 -86.6239 0 3.73427 2 0 4.53999e-06 0.890326
1568 1 47.0996 15.0067 -87.2557 0 3.87094 2 0 4.53999e-06 0.842011
8216 1 45.9158 14.0206 -85.5585 0 3.44844 2 0 4.53999e-06 -0.604389
7473 1 46.6331 13.477 -85.1651 0 3.43761 2 0 4.53999e-06 0.353211
8845 1 45.7971 13.5539 -84.6765 0 3.35468 2 0 4.53999e-06 -0.478154
2550 1 46.3108 14.2492 -84.996 0 3.44384 1 0 4.53999e-06 0.480669
8058 1 45.4264 14.4915 -86.1008 0 3.45961 2 0 4.53999e-06 -0.959438
4517 1 45.4782 14.4382 -84.998 0 3.3894 2 0 4.53999e-06 -0.997657
9179 1 46.1982 14.7437 -85.9857 0 3.51147 1 0 4.53999e-06 -0.487182
3924 1 45.6543 15.1622 -85.5448 0 3.445 2 0 4.53999e-06 -0.701168
1927 1 46.4793 14.8599 -85.352 0 3.48583 1 0 4.53999e-06 0.535098
3335 1 46.3923 15.7381 -85.7654 0 3.49869 2 0 4.53999e-06 0.157724
3971 1 46.0528 15.017 -84.712 0 3.41042 2 0 4.53999e-06 -0.174704
1146 1 46.8225 14.1873 -85.691 0 3.6482 2 0 4.53999e-06 0.889529
1309 1 47.0759 14.373 -84.8064 0 3.64374 2 0 4.53999e-06 0.97692
1012 1 47.0546 14.9739 -85.9871 0 3.72567 2 0 4.53999e-06 0.885572
8996 1 44.7311 13.8315 -82.9854 0 3.12221 2 0 4.53999e-06 -0.971746
8745 1 45.4119 13.6973 -83.7759 0 3.23656 2 0 4.53999e-06 -0.824988
9325 1 46.2618 13.6149 -83.3722 0 3.25588 1 0 4.53999e-06 0.277462
6587 1 46.7006 13.7467 -84.1238 0 3.53267 2 0 4.53999e-06 0.735945
8746 1 45.6034 12.975 -83.0295 0 3.14649 2 0 4.53999e-06 -0.317358
8552 1 47.1552 13.76 -82.8314 0 3.44988 2 0 4.53999e-06 0.780922
3516 1 46.0949 14.1996 -84.3105 0 3.37076 1 0 4.53999e-06 -0.616765
1698 1 46.7332 14.3663 -83.2865 0 3.30967 1 0 4.53999e-06 0.808524
3639 1 45.4885 14.6523 -84.0378 0 3.30036 2 0 4.53999e-06 -0.804814
4677 1 46.5697 14.7027 -84.0621 0 3.53979 2 0 4.53999e-06 0.601668
3515 1 45.8973 14.3813 -83.3283 0 3.2489 1 0 4.53999e-06 -0.584367
3277 1 46.2374 15.1843 -82.8214 0 3.22263 2 0 4.53999e-06 -0.0961364
2996 1 44.2091 13.4144 -81.6539 0 3.02076 2 0 4.53999e-06 -0.951507
8054 1 44.9233 12.5441 -81.3783 0 3.03022 2 0 4.53999e-06 -0.390603
8441 1 45.6429 13.7284 -82.763 0 3.16877 1 0 4.53999e-06 -0.91845
8646 1 45.8321 12.9666 -82.1196 0 3.12235 1 0 4.53999e-06 -0.170685
8991 1 45.1243 13.4178 -82.0728 0 3.09359 2 0 4.53999e-06 -0.945186
8266 1 46.5034 13.1582 -82.6328 0 3.19937 1 0 4.53999e-06 0.321717
8835 1 46.5712 12.9622 -81.6459 0 3.16941 1 0 4.53999e-06 0.295698
6034 1 46.7144 13.7207 -81.9829 0 3.22871 1 0 4.53999e-06 0.834404
3693 1 45.7604 13.9291 -81.946 0 3.14331 1 0 4.53999e-06 -0.789274
8951 1 45.7489 13.087 -81.2916 0 3.09881 1 0 4.53999e-06 -0.206431
1203 1 46.109 13.9766 -81.3352 0 3.15497 1 0 4.53999e-06 -0.451508
8950 1 46.7025 13.5728 -81.155 0 3.20481 1 0 4.53999e-06 0.677382
3279 1 45.1928 13.6633 -81.2156 0 3.07109 1 0 4.53999e-06 -0.893972
5813 1 47.4623 13.2202 -82.0852 0 3.42687 2 0 4.53999e-06 0.61613
6183 1 48.3237 13.6835 -81.7479 0 3.66551 2 0 4.53999e-06 0.955286
905 1 46.3735 14.1253 -82.5311 0 3.22536 1 0 4.53999e-06 0.21552
3235 1 45.5604 14.5372 -82.4961 0 3.15953 2 0 4.53999e-06 -0.644154
4334 1 46.4418 14.7599 -81.8055 0 3.21786 1 0 4.53999e-06 -0.138735
6463 1 47.9271 14.2166 -82.5183 0 3.60674 2 0 4.53999e-06 0.851938
8503 1 47.331 14.1975 -81.7974 0 3.31499 1 0 4.53999e-06 0.814811
4016 1 47.1435 14.823 -82.5366 0 3.49084 2 0 4.53999e-06 0.519715
4632 1 47.1766 14.7678 -81.1605 0 3.31624 2 0 4.53999e-06 0.29826
8099 1 44.9764 12.2845 -80.3402 0 3.00726 2 0 4.53999e-06 -0.171553