ITEM: TIMESTEP
35000
ITEM: NUMBER OF ATOMS
9495
ITEM: BOX BOUNDS mm mm mm
0.0000000000000000e+00 5.6744209019834130e+01
-3.1200654358091997e+00 3.4007890136488129e+01
-4.8830604083341676e+01 3.1748021039364001e+01
ITEM: ATOMS id type x y z c_phase c_temp c_surf c_nbond c_visc f_3[1]
2149 1 50.1486 13.2426 -48.1314 0 3.19151 2 0 4.53999e-06 -0.483552
1924 1 50.7962 12.5596 -47.5273 0 3.25479 2 0 4.53999e-06 -0.316058
1560 1 51.1912 13.3815 -48.3345 0 3.28375 2 0 4.53999e-06 0.235242
1561 1 51.8076 12.8625 -47.6477 0 3.37717 2 0 4.53999e-06 0.360419
2454 1 49.5011 14.0949 -47.8 0 3.14637 2 0 4.53999e-06 -0.968855
2453 1 49.5615 14.018 -48.8274 0 3.12338 2 0 4.53999e-06 -0.547319
2100 1 49.5976 15.157 -48.5059 0 3.1126 2 0 4.53999e-06 -0.53737
1865 1 50.12 14.782 -47.5363 0 3.1763 2 0 4.53999e-06 -0.866194
1920 1 50.424 14.212 -48.379 0 3.19037 2 0 4.53999e-06 0.0432937
2101 1 50.3612 13.7888 -47.3258 0 3.21865 2 0 4.53999e-06 -0.834504
1464 1 50.7694 15.1455 -48.1886 0 3.20507 2 0 4.53999e-06 0.135254
1143 1 51.1942 14.2729 -47.8147 0 3.2924 2 0 4.53999e-06 0.273185
1142 1 51.043 15.0836 -47.2706 0 3.25215 2 0 4.53999e-06 0.015531
4521 1 52.0598 15.0107 -47.9741 0 3.41169 2 0 4.53999e-06 0.405491
1196 1 52.0469 13.9035 -47.7094 0 3.49097 2 0 4.53999e-06 0.465671
4544 1 52.8778 14.3155 -47.3979 0 3.85249 2 0 4.53999e-06 0.688513
2150 1 50.9635 12.1999 -46.3306 0 3.22385 2 0 4.53999e-06 -0.458863
2503 1 50.5557 13.1327 -46.6282 0 3.24017 2 0 4.53999e-06 -0.844919
2105 1 51.2355 13.1416 -45.8912 0 3.26153 2 0 4.53999e-06 -0.721703
900 1 51.436 13.567 -46.9593 0 3.33853 1 0 4.53999e-06 -0.286489
1921 1 51.8568 12.8 -46.5729 0 3.34059 2 0 4.53999e-06 0.225989
1562 1 51.8558 12.3141 -45.7098 0 3.25007 2 0 4.53999e-06 -0.0753556
1201 1 52.7709 13.2985 -46.0667 0 3.45049 1 0 4.53999e-06 0.551164
3628 1 52.5178 13.3477 -47.0355 0 3.69284 2 0 4.53999e-06 0.57836
1149 1 52.0131 13.6524 -45.8041 0 3.33557 1 0 4.53999e-06 -0.258778
4113 1 53.7191 13.3604 -45.7253 0 3.72413 2 0 4.53999e-06 0.811721
7200 1 49.0487 15.4405 -46.3834 0 3.03244 2 0 4.53999e-06 -0.945698
1870 1 50.075 14.6376 -46.5432 0 3.16947 2 0 4.53999e-06 -0.953004
2460 1 50.8515 13.9655 -45.6619 0 3.22083 2 0 4.53999e-06 -0.781701
1469 1 50.8882 14.1913 -46.5681 0 3.2555 1 0 4.53999e-06 -0.947258
906 1 51.2211 15.0537 -46.2422 0 3.25543 1 0 4.53999e-06 -0.197579
8451 1 51.6761 14.4734 -46.888 0 3.36055 1 0 4.53999e-06 0.193947
3632 1 51.652 14.3961 -45.7948 0 3.29701 1 0 4.53999e-06 -0.449597
1465 1 50.3294 15.4281 -45.9615 0 3.14925 2 0 4.53999e-06 -0.424494
4545 1 52.273 14.0073 -46.4998 0 3.44913 1 0 4.53999e-06 0.765027
9330 1 52.265 14.8226 -46.2332 0 3.41267 1 0 4.53999e-06 0.450941
4130 1 53.122 14.4071 -46.0034 0 3.68793 2 0 4.53999e-06 0.864933
4109 1 53.0275 15.063 -46.792 0 3.82036 2 0 4.53999e-06 0.739191
4522 1 53.4515 13.7655 -46.6937 0 3.89975 2 0 4.53999e-06 0.85451
952 1 53.0518 11.8256 -44.3316 0 3.12068 2 0 4.53999e-06 0.012501
2551 1 51.6311 13.0028 -44.9132 0 3.21352 2 0 4.53999e-06 -0.756279
2151 1 52.0857 12.1152 -44.599 0 3.1432 2 0 4.53999e-06 -0.645283
2153 1 52.5768 12.7799 -45.2819 0 3.29022 2 0 4.53999e-06 0.0538704
1928 1 52.8435 13.0205 -44.3788 0 3.21702 1 0 4.53999e-06 -0.717794
2104 1 52.1072 13.5214 -44.0441 0 3.16373 2 0 4.53999e-06 -0.825727
3522 1 53.6792 12.5701 -44.1505 0 3.19815 1 0 4.53999e-06 0.369394
3630 1 53.4944 12.4938 -45.1336 0 3.37089 2 0 4.53999e-06 0.465533
903 1 53.5299 13.4082 -44.7482 0 3.32778 1 0 4.53999e-06 0.720766
8992 1 54.4824 13.7068 -44.4552 0 3.55469 2 0 4.53999e-06 0.863114
3631 1 53.648 13.4649 -43.826 0 3.20311 1 0 4.53999e-06 0.435834
6588 1 50.0286 14.5923 -45.4008 0 3.11916 2 0 4.53999e-06 -0.830713
6967 1 50.7239 14.6561 -44.2701 0 3.06139 2 0 4.53999e-06 -0.571145
6032 1 51.0949 14.822 -45.2744 0 3.20185 2 0 4.53999e-06 -0.421773
2457 1 51.7828 13.9414 -44.9596 0 3.24132 1 0 4.53999e-06 -0.69322
7563 1 52.1276 14.6659 -44.5353 0 3.22 2 0 4.53999e-06 -0.242171
3629 1 52.7756 13.9754 -44.4607 0 3.25297 1 0 4.53999e-06 -0.484009
9333 1 52.8157 13.851 -45.3238 0 3.37673 1 0 4.53999e-06 0.899287
8452 1 52.0485 15.1955 -45.3856 0 3.30111 2 0 4.53999e-06 0.0101138
9222 1 52.9872 14.8391 -45.0664 0 3.36212 2 0 4.53999e-06 0.40041
9329 1 53.6137 14.2127 -44.216 0 3.28835 1 0 4.53999e-06 0.285274
4114 1 53.7975 14.2259 -45.1859 0 3.6472 2 0 4.53999e-06 0.768548
9428 1 54.5257 14.5612 -43.8858 0 3.58501 2 0 4.53999e-06 0.616082
2547 1 52.1588 11.6392 -43.5928 0 2.97796 2 0 4.53999e-06 -0.871505
1195 1 53.0707 10.9445 -42.207 0 2.83333 2 0 4.53999e-06 -0.61408
1008 1 53.1054 11.1654 -43.3308 0 2.94402 2 0 4.53999e-06 -0.196854
1199 1 53.1179 12.0622 -42.3453 0 2.94784 2 0 4.53999e-06 -0.894477
4325 1 54.1947 11.0702 -42.3 0 2.91788 2 0 4.53999e-06 0.181783
3519 1 53.8416 11.7634 -43.0238 0 3.03673 2 0 4.53999e-06 0.0528328
1922 1 53.0839 12.3283 -43.4412 0 3.07981 1 0 4.53999e-06 -0.803236
1866 1 53.0152 13.2247 -43.4366 0 3.12036 1 0 4.53999e-06 -0.944831
7205 1 53.0196 13.0959 -42.4607 0 2.98931 1 0 4.53999e-06 -0.969875
4125 1 54.385 13.037 -43.7496 0 3.21094 1 0 4.53999e-06 0.794884
1148 1 53.858 12.7403 -43.1324 0 3.10317 1 0 4.53999e-06 -0.148421
1869 1 54.0407 12.7196 -42.317 0 3.02397 1 0 4.53999e-06 -0.659186
4587 1 54.5117 12.0924 -43.7472 0 3.4056 2 0 4.53999e-06 0.563359
4520 1 54.6723 12.1956 -42.7679 0 3.10294 1 0 4.53999e-06 0.535395
1466 1 53.6995 13.5149 -42.8143 0 3.07829 1 0 4.53999e-06 -0.657088
9220 1 54.6991 13.324 -42.219 0 3.08709 1 0 4.53999e-06 0.703219
4548 1 54.9499 13.0048 -43.004 0 3.17473 1 0 4.53999e-06 0.828322
3870 1 55.7961 12.2581 -42.7166 0 3.54264 2 0 4.53999e-06 0.700083
8739 1 55.9466 13.2992 -42.2704 0 3.52592 2 0 4.53999e-06 0.809846
6973 1 52.0509 14.4173 -43.462 0 3.07559 2 0 4.53999e-06 -0.657218
7556 1 52.9918 14.1137 -43.5174 0 3.14429 1 0 4.53999e-06 -0.567732
6298 1 53.1247 14.2857 -42.5378 0 3.01256 2 0 4.53999e-06 -0.494459
8449 1 53.7825 14.6098 -43.2216 0 3.16286 2 0 4.53999e-06 0.0375327
9334 1 54.3079 13.7678 -43.2751 0 3.18595 1 0 4.53999e-06 0.730122
7557 1 54.2132 14.1821 -42.3676 0 3.06925 2 0 4.53999e-06 0.177573
9218 1 55.1013 13.935 -42.7535 0 3.39248 2 0 4.53999e-06 0.721314
1976 1 53.6768 11.4125 -41.3641 0 2.85816 2 0 4.53999e-06 -0.704617
955 1 54.5984 11.4534 -40.9101 0 2.91505 1 0 4.53999e-06 -0.11676
954 1 54.3603 11.9651 -41.9553 0 2.98828 1 0 4.53999e-06 -0.0435693
4417 1 55.2046 11.4345 -41.7423 0 3.0464 2 0 4.53999e-06 0.388649
4588 1 55.2833 10.8705 -40.524 0 2.94256 2 0 4.53999e-06 0.336245
4227 1 56.2867 11.4997 -41.0789 0 3.4943 2 0 4.53999e-06 0.70107
7202 1 52.739 13.2545 -41.0475 0 2.76465 2 0 4.53999e-06 -0.945806
2553 1 54.0098 12.3269 -41.3528 0 2.92847 1 0 4.53999e-06 -0.819868
7203 1 53.4401 12.9287 -41.5852 0 2.91088 1 0 4.53999e-06 -0.918524
4518 1 54.8624 12.3108 -41.0264 0 2.99242 1 0 4.53999e-06 0.257865
7204 1 54.3999 12.9968 -41.3724 0 2.97212 1 0 4.53999e-06 -0.445073
2656 1 54.0336 12.2701 -40.4898 0 2.85654 1 0 4.53999e-06 -0.908009
6304 1 54.9021 13.0768 -40.5851 0 2.97603 1 0 4.53999e-06 -0.0105343
6608 1 53.9415 13.4674 -41.9528 0 2.99022 1 0 4.53999e-06 -0.405069
8448 1 54.9272 12.5665 -41.9481 0 3.07623 1 0 4.53999e-06 0.760321
6908 1 53.6079 13.5827 -40.5954 0 2.79367 2 0 4.53999e-06 -0.411258
4519 1 55.7702 12.2195 -41.6334 0 3.31899 2 0 4.53999e-06 0.753279
902 1 55.6396 12.562 -40.7048 0 3.11813 1 0 4.53999e-06 0.965148
4546 1 56.6273 12.4829 -40.4791 0 3.51406 2 0 4.53999e-06 0.981417
3213 1 56.6123 12.6712 -41.551 0 3.63912 2 0 4.53999e-06 0.93108
7555 1 55.2562 13.0894 -41.4017 0 3.0914 1 0 4.53999e-06 0.764405
9221 1 56.0699 13.3765 -41.0054 0 3.41269 2 0 4.53999e-06 0.717198
6604 1 52.475 13.8258 -41.9437 0 2.86718 2 0 4.53999e-06 -0.957793
7474 1 52.5175 14.1094 -40.4673 0 2.61231 2 0 4.54e-06 -0.645257
6027 1 53.4108 14.0462 -41.5185 0 2.88963 2 0 4.53999e-06 -0.284813
6030 1 54.4584 13.7965 -41.0486 0 2.94217 1 0 4.53999e-06 -0.0221523
9171 1 55.2073 14.0295 -41.6722 0 3.09368 2 0 4.53999e-06 0.418181
1253 1 54.1241 10.4105 -40.2478 0 2.73635 2 0 4.53999e-06 -0.369017
2598 1 53.9133 11.4334 -40.1531 0 2.80058 2 0 4.53999e-06 -0.845751
1010 1 54.8098 11.3219 -39.8191 0 2.87872 1 0 4.53999e-06 -0.0560275
3425 1 54.0998 11.1983 -39.0398 0 2.76207 2 0 4.53999e-06 -0.719085
4630 1 55.0238 10.8083 -38.9692 0 2.85946 2 0 4.53999e-06 0.148854
3520 1 55.6129 11.7088 -40.3452 0 3.06285 1 0 4.53999e-06 0.607635
4420 1 55.7627 11.3682 -39.2703 0 3.21542 2 0 4.53999e-06 0.654556
1926 1 55.0987 11.9894 -39.1243 0 2.91972 1 0 4.53999e-06 0.210199
7152 1 53.377 12.7812 -40.0032 0 2.72815 2 0 4.53999e-06 -0.935893
7373 1 52.4575 13.3302 -39.5418 0 2.53852 2 0 4.54e-06 -0.981226
6297 1 53.3867 13.6415 -39.4581 0 2.64753 2 0 4.54e-06 -0.542487
2552 1 54.968 12.4231 -40.019 0 2.94517 1 0 4.53999e-06 -0.148807
6970 1 54.2736 13.0129 -40.0075 0 2.83866 1 0 4.53999e-06 -0.757811
7376 1 53.9429 12.81 -38.9575 0 2.72429 1 0 4.53999e-06 -0.980304
2599 1 54.2343 12.1293 -39.474 0 2.8069 1 0 4.53999e-06 -0.884324
6301 1 54.9652 13.2299 -39.4818 0 2.89967 1 0 4.53999e-06 -0.212765
6245 1 54.284 13.641 -39.199 0 2.75979 1 0 4.53999e-06 -0.30961
6972 1 55.4352 12.8273 -38.7961 0 2.95199 1 0 4.53999e-06 0.972328
901 1 56.1357 12.1197 -39.6677 0 3.3087 2 0 4.53999e-06 0.846551
4516 1 55.6906 12.8541 -39.8448 0 3.07567 1 0 4.53999e-06 0.948217
3873 1 56.741 12.837 -39.3374 0 3.46384 2 0 4.53999e-06 0.994796
8546 1 55.8255 13.4249 -39.1887 0 3.04989 1 0 4.53999e-06 0.572752
8944 1 56.4245 13.5566 -40.0278 0 3.42385 2 0 4.53999e-06 0.765368
8547 1 55.4176 13.7681 -40.2747 0 3.0315 2 0 4.53999e-06 0.109991
9168 1 56.5288 13.7967 -38.867 0 3.40307 2 0 4.53999e-06 0.734813
9122 1 55.6409 14.3379 -39.4211 0 2.98499 2 0 4.53999e-06 0.0621793
1255 1 54.3183 11.8813 -38.3988 0 2.7553 1 0 4.53999e-06 -0.66554
1685 1 53.7539 11.3661 -37.6205 0 2.65006 2 0 4.54e-06 -0.648018
4229 1 54.6962 11.0773 -37.9553 0 2.77137 2 0 4.53999e-06 0.102434
3521 1 54.4193 12.0107 -37.4095 0 2.72087 1 0 4.53999e-06 0.0818402
4591 1 55.5209 11.5235 -38.2735 0 3.10511 2 0 4.53999e-06 0.611171
6450 1 52.8174 13.1352 -38.3303 0 2.54553 2 0 4.54e-06 -0.990573
6905 1 53.5723 12.3801 -38.0892 0 2.64871 1 0 4.54e-06 -0.919803
6590 1 54.7368 12.6342 -38.5645 0 2.81174 1 0 4.53999e-06 -0.765378
6907 1 53.7368 12.9072 -37.3708 0 2.64396 1 0 4.54e-06 -0.8997
8447 1 55.0708 13.1039 -37.7563 0 2.80555 1 0 4.53999e-06 0.56862
7374 1 54.4551 12.728 -37.5507 0 2.72146 1 0 4.53999e-06 -0.211937
1923 1 55.0724 12.189 -37.9309 0 2.83715 1 0 4.53999e-06 0.628952
6605 1 54.4447 13.3034 -38.2632 0 2.74148 1 0 4.53999e-06 -0.330154
6240 1 53.6449 13.5559 -38.3266 0 2.64217 2 0 4.54e-06 -0.642799
4547 1 56.0608 12.2202 -38.7164 0 3.23052 2 0 4.53999e-06 0.828454
8989 1 56.5975 12.9888 -38.2891 0 3.36999 2 0 4.53999e-06 0.902161
9331 1 55.7701 12.6905 -37.9221 0 2.94854 1 0 4.53999e-06 0.845768
9169 1 55.7784 13.6504 -38.078 0 2.94226 2 0 4.53999e-06 0.469173
7662 1 55.0665 13.8689 -38.6622 0 2.84348 2 0 4.53999e-06 -0.0438104
9429 1 54.1619 13.7966 -37.4715 0 2.66157 2 0 4.54e-06 -0.201866
2452 1 52.92 11.591 -36.1809 0 2.53362 2 0 4.54e-06 -0.695071
4326 1 54.4481 11.26 -36.837 0 2.67575 2 0 4.54e-06 0.305913
1569 1 53.6899 12.0319 -36.874 0 2.63054 1 0 4.54e-06 -0.655495
1259 1 53.7348 11.0343 -36.1704 0 2.56854 2 0 4.54e-06 -0.0669218
4331 1 54.8182 11.7764 -36.1143 0 2.9198 2 0 4.53999e-06 0.754768
6513 1 52.8284 12.5649 -36.3611 0 2.5542 2 0 4.54e-06 -0.909578
7559 1 53.296 13.3849 -36.6781 0 2.5878 2 0 4.54e-06 -0.658808
2201 1 52.9334 12.1861 -35.44 0 2.55264 1 0 4.54e-06 -0.859338
6031 1 53.0339 13.0109 -35.551 0 2.57049 1 0 4.54e-06 -0.731711
9123 1 55.055 13.6908 -37.0163 0 2.75574 2 0 4.53999e-06 0.381783
2548 1 53.7246 12.7701 -36.4918 0 2.62558 1 0 4.54e-06 -0.650037
1566 1 53.5792 12.2475 -35.9883 0 2.61291 1 0 4.54e-06 -0.479644
1563 1 54.46 12.3871 -36.6347 0 2.69892 1 0 4.53999e-06 0.902674
7554 1 54.3382 13.2337 -36.7346 0 2.67368 1 0 4.54e-06 0.31138
1198 1 54.2092 12.2004 -35.6541 0 2.66764 1 0 4.54e-06 0.809028
6303 1 53.947 12.8926 -35.6696 0 2.64656 1 0 4.54e-06 0.59653
9224 1 54.7625 12.938 -35.9946 0 2.766 2 0 4.53999e-06 0.868168
8945 1 53.6896 13.5311 -35.8957 0 2.62346 2 0 4.54e-06 -0.0936473
4515 1 55.4676 12.2365 -36.8746 0 3.04194 2 0 4.53999e-06 0.830404
3872 1 55.8708 13.1755 -36.9193 0 3.15028 2 0 4.53999e-06 0.77655
1011 1 52.6404 11.6319 -34.7618 0 2.49282 2 0 4.54001e-06 -0.341252
1688 1 51.7799 11.9493 -34.6721 0 2.4112 2 0 4.54003e-06 -0.646311
4419 1 53.2524 12.0667 -34.4936 0 2.56142 1 0 4.54e-06 0.2322
4330 1 53.5866 11.6056 -35.3477 0 2.59784 2 0 4.54e-06 0.0973361
4228 1 54.1265 11.8963 -34.6555 0 2.8482 2 0 4.53999e-06 0.632765
2202 1 51.3221 12.2643 -33.8095 0 2.36475 2 0 4.54005e-06 -0.646816
2154 1 52.6209 12.5669 -34.7347 0 2.508 1 0 4.54001e-06 -0.886736
7377 1 51.7517 12.8623 -34.3867 0 2.41406 2 0 4.54003e-06 -0.616129
1467 1 52.8082 12.7415 -33.9826 0 2.51196 1 0 4.54001e-06 0.444064
6243 1 52.4944 13.4399 -34.5357 0 2.48788 2 0 4.54001e-06 -0.324529
9223 1 53.3343 13.2557 -34.7501 0 2.60219 1 0 4.54e-06 0.00262885
1567 1 53.5539 12.5235 -35.1207 0 2.61316 1 0 4.54e-06 0.46996
4549 1 54.4279 12.7234 -34.8653 0 2.87547 2 0 4.53999e-06 0.886373
8600 1 54.1502 13.5535 -35.0339 0 2.81667 2 0 4.53999e-06 0.483707
4551 1 53.6472 12.7036 -34.2448 0 2.67837 2 0 4.54e-06 0.658914
1681 1 50.2234 11.776 -33.5089 0 2.27965 2 0 4.54012e-06 -0.569939
3422 1 51.0847 11.9173 -33.0332 0 2.33297 2 0 4.54007e-06 -0.204951
1313 1 51.7751 11.4533 -33.7032 0 2.36601 2 0 4.54005e-06 -0.14276
4328 1 52.9672 11.7937 -33.6751 0 2.47838 2 0 4.54001e-06 0.419667
3966 1 51.9969 12.0289 -32.6824 0 2.37421 2 0 4.54004e-06 0.299851
6237 1 49.5649 13.6847 -33.4631 0 2.32272 2 0 4.54007e-06 -0.425193
1684 1 49.3173 12.41 -32.4035 0 2.33468 2 0 4.54007e-06 -0.50272
7475 1 49.6097 13.1638 -32.7428 0 2.36052 2 0 4.54005e-06 -0.648395
9172 1 49.5868 13.729 -32.1094 0 2.42756 2 0 4.54002e-06 0.312108
7151 1 50.4343 13.1628 -33.3596 0 2.343 2 0 4.54006e-06 -0.405584
7472 1 51.3195 12.9444 -33.4663 0 2.36725 1 0 4.54005e-06 -0.532809
6242 1 51.1605 13.7333 -33.6687 0 2.35232 2 0 4.54005e-06 -0.163548
2208 1 50.2748 12.5974 -32.8159 0 2.34076 2 0 4.54006e-06 -0.402117
4416 1 51.0991 12.678 -32.6882 0 2.35432 2 0 4.54005e-06 0.257385
956 1 50.256 13.056 -32.0452 0 2.39611 2 0 4.54003e-06 0.432355
7657 1 50.8923 13.4586 -32.7187 0 2.37124 2 0 4.54004e-06 0.430874
1257 1 52.1685 12.168 -33.6797 0 2.42405 1 0 4.54002e-06 0.0919843
4232 1 52.652 12.6704 -33.1664 0 2.63527 2 0 4.54e-06 0.570063
7558 1 52.1021 13.288 -33.6641 0 2.42449 2 0 4.54002e-06 0.102624
3641 1 53.019 13.5407 -33.6095 0 2.53197 2 0 4.54e-06 0.358595
904 1 51.9058 13.021 -32.7954 0 2.39043 2 0 4.54003e-06 0.449591
3876 1 54.0032 13.2752 -33.6243 0 3.02764 2 0 4.53999e-06 0.664563
7150 1 48.9598 13.9569 -32.6452 0 2.36206 2 0 4.54005e-06 -0.490594
9126 1 50.1406 13.9301 -32.8032 0 2.37887 2 0 4.54004e-06 0.0706815
9120 1 51.7541 13.9656 -32.9306 0 2.36484 2 0 4.54005e-06 0.337902
2597 1 46.2373 13.4505 -30.6538 0 2.26681 2 0 4.54014e-06 -0.742629
1929 1 47.9487 13.3319 -31.4986 0 2.35516 2 0 4.54005e-06 -0.275922
2205 1 47.025 13.5135 -31.022 0 2.2978 2 0 4.5401e-06 -0.485503
1683 1 46.8525 12.7841 -30.5285 0 2.26912 2 0 4.54013e-06 -0.237304
4633 1 47.6516 13.1763 -30.733 0 2.32934 2 0 4.54007e-06 0.171504
9227 1 48.1107 13.6957 -30.9008 0 2.37145 1 0 4.54004e-06 0.789805
1056 1 48.5533 12.6084 -31.6548 0 2.35743 2 0 4.54005e-06 -0.24153
2655 1 49.2653 13.1408 -31.8547 0 2.39439 2 0 4.54003e-06 0.0770746
7553 1 48.5968 13.6149 -31.8682 0 2.38552 2 0 4.54004e-06 -0.331542
4590 1 48.753 13.255 -31.0312 0 2.55876 2 0 4.54e-06 0.51206
4631 1 50.1733 12.1619 -32.0025 0 2.332 2 0 4.54007e-06 0.0867242
6509 1 46.6779 14.3737 -31.0848 0 2.28061 2 0 4.54012e-06 -0.511732
6968 1 47.3978 13.9508 -31.4731 0 2.32064 2 0 4.54008e-06 -0.395664
8544 1 48.0856 14.2438 -31.4661 0 2.36088 2 0 4.54005e-06 -0.0265565
953 1 46.974 13.7811 -30.3715 0 2.29599 1 0 4.5401e-06 -0.615292
6305 1 47.4678 14.2957 -30.7808 0 2.32352 1 0 4.54007e-06 -0.0361237
8686 1 48.1143 15.1256 -31.0718 0 2.33545 2 0 4.54006e-06 0.170196
8898 1 48.8887 14.3586 -31.675 0 2.39802 2 0 4.54003e-06 0.341169
8595 1 48.4465 14.2739 -30.7806 0 2.52511 2 0 4.54e-06 0.707431
3640 1 49.3444 13.8444 -31.1889 0 2.61497 2 0 4.54e-06 0.714677
8943 1 50.4599 13.8935 -31.9458 0 2.65399 2 0 4.54e-06 0.515845
1258 1 46.442 13.3738 -29.7808 0 2.27424 2 0 4.54013e-06 -0.283182
3922 1 47.3251 13.2816 -29.9736 0 2.29887 2 0 4.5401e-06 0.259157
6455 1 44.5759 14.8782 -30.1895 0 2.30826 2 0 4.54009e-06 -0.412643
6694 1 43.886 14.9359 -29.1252 0 2.45759 2 0 4.54001e-06 -0.373325
2652 1 43.6794 14.1723 -28.7433 0 2.49902 2 0 4.54001e-06 -0.22402
8543 1 44.5786 14.2675 -29.2456 0 2.45099 2 0 4.54002e-06 -0.215717
8838 1 44.7622 15.0793 -28.8811 0 2.46566 2 0 4.54001e-06 0.272747
6591 1 45.55 13.8059 -29.9554 0 2.30118 2 0 4.54009e-06 -0.786006
6512 1 45.7413 14.6712 -30.1182 0 2.29245 2 0 4.5401e-06 -0.414688
1197 1 46.3563 14.1475 -30.3308 0 2.2793 2 0 4.54012e-06 -0.84212
3523 1 45.3539 13.8055 -29.036 0 2.41303 2 0 4.54003e-06 0.212058
9170 1 45.4844 14.6559 -29.2568 0 2.38365 2 0 4.54004e-06 0.442917
1565 1 46.275 14.1879 -29.5121 0 2.29703 2 0 4.5401e-06 0.0434303
4121 1 47.862 13.8334 -30.2099 0 2.47199 2 0 4.54001e-06 0.603223
7658 1 46.8798 14.7631 -30.2535 0 2.28335 2 0 4.54011e-06 -0.110635
3643 1 47.1406 14.1235 -29.742 0 2.29302 2 0 4.5401e-06 0.239991
3281 1 47.7963 14.6594 -30.1724 0 2.32429 2 0 4.54007e-06 0.382932
2199 1 42.7477 13.4835 -28.1723 0 2.43153 2 0 4.54002e-06 -0.435975
1260 1 41.898 13.7312 -27.2097 0 2.39735 2 0 4.54003e-06 -0.819481
2449 1 43.6457 13.4568 -28.3441 0 2.48623 2 0 4.54001e-06 0.167919
4225 1 43.4326 13.4884 -27.4787 0 2.46191 2 0 4.54001e-06 0.454663
6974 1 42.397 14.458 -28.0447 0 2.43199 2 0 4.54002e-06 -0.706734
2152 1 43.1125 14.1649 -28.1517 0 2.47765 2 0 4.54001e-06 -0.413646
7656 1 43.3177 14.8276 -28.2679 0 2.49434 2 0 4.54001e-06 -0.192562
6302 1 42.396 14.3527 -27.2584 0 2.43354 2 0 4.54002e-06 -0.951806
7149 1 41.7531 15.0327 -27.2611 0 2.39115 2 0 4.54003e-06 -0.693393
1261 1 42.7675 13.864 -27.5307 0 2.44412 2 0 4.54002e-06 -0.47949
6906 1 42.779 15.0751 -27.567 0 2.45877 2 0 4.54001e-06 -0.200594
9226 1 43.2364 14.5236 -27.3037 0 2.57363 2 0 4.54e-06 0.541331
4124 1 43.7675 14.0925 -27.8007 0 2.63885 2 0 4.54e-06 0.859733
8946 1 44.2047 14.5853 -28.3445 0 2.67374 2 0 4.54e-06 0.692673
4593 1 44.476 13.8225 -28.4242 0 2.70146 2 0 4.53999e-06 0.558004
8897 1 43.7965 14.8323 -27.6522 0 2.68431 2 0 4.54e-06 0.592025
3874 1 45.1666 14.4459 -28.2928 0 2.74555 2 0 4.53999e-06 0.70134
1256 1 42.6639 13.2692 -26.9783 0 2.40532 2 0 4.54003e-06 -0.0850719
6606 1 41.5052 14.3516 -26.5391 0 2.41845 2 0 4.54002e-06 -0.994721
6452 1 41.1932 15.0001 -25.8578 0 2.44517 2 0 4.54002e-06 -0.304338
6508 1 40.5748 14.2868 -25.5944 0 2.44448 2 0 4.54002e-06 -0.632168
8450 1 41.4245 13.8487 -25.5183 0 2.47841 2 0 4.54001e-06 0.270436
8497 1 42.5886 14.7214 -26.6926 0 2.45376 2 0 4.54002e-06 -0.0166147
4418 1 42.3223 13.9565 -26.3914 0 2.43434 2 0 4.54002e-06 -0.0607582
4424 1 43.1309 14.0141 -26.8135 0 2.45569 2 0 4.54001e-06 0.48856
8270 1 42.0312 14.5817 -25.6459 0 2.73944 2 0 4.53999e-06 0.614812
8317 1 43.4953 15.1383 -26.4381 0 2.62644 2 0 4.54e-06 0.491222
2600 1 40.1953 13.3245 -24.1137 0 2.46683 2 0 4.54001e-06 -0.330448
1691 1 41.139 13.4879 -24.3436 0 2.65839 2 0 4.54e-06 0.606837
2456 1 39.7733 14.034 -24.5592 0 2.45029 2 0 4.54002e-06 -0.783343
6241 1 40.0055 14.6154 -24.0319 0 2.48206 2 0 4.54001e-06 -0.635981
9128 1 40.6522 14.7946 -24.6501 0 2.50686 2 0 4.54001e-06 -0.0669992
8444 1 40.5825 13.9721 -24.7141 0 2.49385 2 0 4.54001e-06 -0.14728
8500 1 41.3498 14.2912 -24.6354 0 2.70339 2 0 4.53999e-06 0.955757
3217 1 41.4518 14.8478 -23.9603 0 2.78353 2 0 4.53999e-06 0.823171
8263 1 40.4683 14.0591 -23.9315 0 2.50489 1 0 4.54001e-06 -0.00516343
8314 1 40.6333 14.9164 -23.7586 0 2.52068 2 0 4.54e-06 0.226314
3970 1 40.9785 14.1548 -23.6579 0 2.5316 1 0 4.54e-06 0.993052
2212 1 39.913 13.2573 -22.4756 0 2.47431 2 0 4.54001e-06 -0.242493
4324 1 40.8754 13.3015 -23.5137 0 2.49402 2 0 4.54001e-06 0.494638
4415 1 40.2351 13.6672 -23.1604 0 2.50317 1 0 4.54001e-06 -0.137505
9427 1 39.426 13.9958 -22.7705 0 2.48148 2 0 4.54001e-06 -0.9678
2458 1 39.7873 13.944 -23.6051 0 2.47823 2 0 4.54001e-06 -0.895256
6185 1 39.319 14.9065 -23.0563 0 2.46344 2 0 4.54001e-06 -0.829266
7660 1 39.7801 14.7648 -22.0818 0 2.53561 2 0 4.54e-06 -0.484933
8990 1 40.1064 14.333 -22.6955 0 2.52915 1 0 4.54e-06 -0.404525
8738 1 40.1045 14.4828 -23.3186 0 2.50531 1 0 4.54001e-06 -0.649869
3967 1 40.8267 13.9175 -22.8418 0 2.67522 2 0 4.54e-06 0.807659
8316 1 40.718 14.6028 -23.0521 0 2.54412 1 0 4.54e-06 0.72859
4116 1 40.3381 13.9626 -22.1504 0 2.68469 2 0 4.54e-06 0.563769
3207 1 40.8718 14.8022 -22.1106 0 2.84307 2 0 4.53999e-06 0.737156
3220 1 40.1969 15.303 -22.7847 0 2.52103 2 0 4.54e-06 -0.0270997
1973 1 39.7582 12.7298 -21.6255 0 2.37065 2 0 4.54004e-06 -0.153682
4333 1 40.1156 13.5336 -21.1759 0 2.51435 2 0 4.54001e-06 0.497679
5920 1 38.9215 14.0043 -21.027 0 2.43195 2 0 4.54002e-06 -0.964932
8442 1 39.5749 13.928 -21.8241 0 2.50475 2 0 4.54001e-06 -0.919853
7653 1 39.7039 14.2364 -20.7377 0 2.53288 2 0 4.54e-06 -0.583492
3692 1 40.3037 14.4369 -21.3665 0 2.77451 2 0 4.53999e-06 0.640329
3212 1 40.635 14.8119 -20.411 0 2.92184 2 0 4.53999e-06 0.655378
2022 1 39.8476 13.1484 -20.1618 0 2.47359 2 0 4.54001e-06 -0.0262585
6458 1 38.4772 13.7068 -20.0089 0 2.34572 2 0 4.54006e-06 -0.929755
6033 1 39.2608 13.4965 -19.0073 0 2.41054 2 0 4.54003e-06 -0.576842
9225 1 39.9914 13.7477 -19.2527 0 2.50998 1 0 4.54001e-06 0.0472081
1789 1 40.4296 13.0004 -18.9704 0 2.4815 2 0 4.54001e-06 0.232772
1013 1 40.8111 13.6976 -19.5362 0 2.77944 2 0 4.53999e-06 0.852402
8269 1 39.6574 14.7462 -19.9237 0 2.52472 2 0 4.54e-06 -0.304431
8213 1 39.4457 13.8999 -19.9118 0 2.47696 2 0 4.54001e-06 -0.832279
9125 1 39.557 14.5215 -18.935 0 2.45431 1 0 4.54001e-06 -0.556162
5917 1 38.9008 14.2654 -19.3182 0 2.3993 2 0 4.54003e-06 -0.923228
4231 1 40.3058 13.9527 -20.2197 0 2.73697 2 0 4.53999e-06 0.834274
8684 1 40.3584 14.5025 -19.4345 0 2.72608 2 0 4.53999e-06 0.550038
3740 1 41.1466 14.2482 -18.8492 0 2.79937 2 0 4.53999e-06 0.960749
8102 1 40.5266 14.9464 -18.7008 0 2.61021 2 0 4.54e-06 0.417174
6515 1 39.2241 13.6587 -18.1396 0 2.37459 2 0 4.54004e-06 -0.651708
1974 1 40.3361 13.6165 -17.4405 0 2.42983 1 0 4.54002e-06 0.123227
1057 1 40.8351 13.1038 -17.8045 0 2.44612 2 0 4.54002e-06 0.387696
7106 1 38.832 14.0221 -17.1536 0 2.32712 2 0 4.54007e-06 -0.960059
6182 1 38.4577 14.2213 -18.3862 0 2.32797 2 0 4.54007e-06 -0.991494
8596 1 39.7737 14.0455 -17.6383 0 2.40486 1 0 4.54003e-06 -0.812326
8948 1 39.9699 14.3541 -18.3663 0 2.47122 1 0 4.54001e-06 -0.311869
8267 1 39.9483 15.1195 -17.9744 0 2.43608 2 0 4.54002e-06 -0.101673
7661 1 39.2313 14.5993 -17.871 0 2.37739 2 0 4.54004e-06 -0.769796
3514 1 40.4079 13.7595 -18.4561 0 2.50543 1 0 4.54001e-06 0.49015
4014 1 41.2821 13.8593 -17.847 0 2.71671 2 0 4.53999e-06 0.981405
8315 1 40.2627 14.621 -17.3095 0 2.42151 1 0 4.54002e-06 0.23004
3920 1 40.7201 14.4429 -17.9439 0 2.57948 2 0 4.54e-06 0.834149
3423 1 40.9109 14.3101 -16.9638 0 2.45863 1 0 4.54001e-06 0.915247
2102 1 39.6334 13.6274 -16.7606 0 2.35891 2 0 4.54005e-06 -0.538107
6689 1 39.4957 13.6278 -15.2677 0 2.3257 2 0 4.54007e-06 -0.545967
4321 1 40.6535 13.5745 -16.5251 0 2.42192 2 0 4.54002e-06 0.298776
8268 1 39.6581 14.4558 -16.871 0 2.37131 2 0 4.54004e-06 -0.780362
5918 1 39.1746 14.2269 -16.02 0 2.32598 2 0 4.54007e-06 -0.999164
9425 1 40.0126 14.4181 -15.7727 0 2.37678 1 0 4.54004e-06 -0.879648
4230 1 40.1993 14.0881 -16.5136 0 2.39921 1 0 4.54003e-06 -0.476094
1925 1 40.3864 13.8147 -15.6529 0 2.3964 1 0 4.54003e-06 -0.178697
4673 1 41.4622 13.8568 -16.4002 0 2.68403 2 0 4.54e-06 0.848927
4634 1 41.1844 14.0121 -15.5147 0 2.48969 1 0 4.54001e-06 0.714982
8264 1 40.1744 15.0495 -16.3576 0 2.39611 2 0 4.54003e-06 -0.155112
3738 1 41.6811 14.7786 -15.9422 0 2.79052 2 0 4.53999e-06 0.738611
3642 1 40.8231 14.5987 -16.0285 0 2.45335 1 0 4.54002e-06 0.497961
3737 1 42.0786 14.1265 -15.3043 0 2.84419 2 0 4.53999e-06 0.917945
3793 1 41.6377 13.4365 -14.7473 0 2.4986 2 0 4.54001e-06 0.497913
1687 1 40.7811 13.2792 -15.1566 0 2.40112 2 0 4.54003e-06 0.00503613
6687 1 38.6958 14.0266 -14.4272 0 2.28173 2 0 4.54012e-06 -0.782677
8899 1 39.5275 14.1886 -14.3702 0 2.32747 1 0 4.54007e-06 -0.738408
8837 1 39.6492 14.8711 -15.096 0 2.34858 1 0 4.54006e-06 -0.584469
8743 1 40.0534 14.603 -13.6392 0 2.36191 1 0 4.54005e-06 -0.818017
6188 1 38.8011 14.6924 -15.1465 0 2.29324 2 0 4.5401e-06 -0.85816
9426 1 39.3424 14.9231 -14.0451 0 2.31459 1 0 4.54008e-06 -0.608898
5809 1 38.4089 14.9184 -14.0078 0 2.26881 2 0 4.54013e-06 -0.867065
3517 1 40.8899 14.0729 -14.6272 0 2.43612 1 0 4.54002e-06 0.269599
909 1 40.1963 14.2607 -14.8816 0 2.38077 1 0 4.54004e-06 -0.800161
8101 1 40.476 14.9846 -15.1828 0 2.42594 1 0 4.54002e-06 -0.133259
3923 1 41.207 14.7533 -15.1214 0 2.50884 1 0 4.54001e-06 0.617639
9326 1 40.6626 14.7506 -14.2345 0 2.42758 1 0 4.54002e-06 0.181523
2555 1 40.1913 13.7738 -14.0559 0 2.35634 1 0 4.54005e-06 -0.380173
3969 1 41.3967 13.9165 -13.919 0 2.48065 1 0 4.54001e-06 0.779271
3921 1 41.6707 14.5117 -14.4943 0 2.55795 1 0 4.54e-06 0.921055
8740 1 41.3074 15.2336 -14.1755 0 2.6715 2 0 4.54e-06 0.491811
8056 1 40.1309 15.3962 -14.2228 0 2.38686 2 0 4.54004e-06 -0.157919
3278 1 42.7111 14.8269 -14.815 0 3.21158 2 0 4.53999e-06 0.904718
3371 1 42.2408 14.05 -13.9804 0 2.8366 2 0 4.53999e-06 0.985832
3335 1 40.5448 12.1389 -12.2596 0 2.18769 2 0 4.54031e-06 -0.221671
4017 1 41.366 12.6535 -12.6503 0 2.31955 2 0 4.54008e-06 0.431697
1012 1 40.6086 12.9535 -12.2054 0 2.28466 1 0 4.54011e-06 -0.436708
1930 1 40.422 13.3877 -13.0691 0 2.33831 1 0 4.54006e-06 -0.460067
4332 1 41.1672 13.3052 -13.4245 0 2.40537 1 0 4.54003e-06 0.194967
4414 1 41.2954 13.3827 -12.2122 0 2.3861 1 0 4.54004e-06 0.814857
1568 1 40.1893 13.5928 -12.0858 0 2.30068 1 0 4.54009e-06 -0.743164
3789 1 41.998 13.3838 -13.0336 0 2.68832 2 0 4.54e-06 0.882682
7375 1 38.074 14.7087 -12.9159 0 2.25892 2 0 4.54015e-06 -0.904964
5815 1 37.8142 15.3923 -12.1347 0 2.25091 2 0 4.54016e-06 -0.582881
6244 1 38.8593 14.2363 -13.358 0 2.28569 2 0 4.54011e-06 -0.708566
6037 1 39.3105 14.1295 -12.43 0 2.29688 1 0 4.5401e-06 -0.668781
1868 1 39.922 14.0227 -12.9594 0 2.33133 1 0 4.54007e-06 -0.656892
8597 1 39.4918 14.8669 -13.0993 0 2.3262 1 0 4.54007e-06 -0.664376
8900 1 38.9877 14.9443 -12.4215 0 2.29243 1 0 4.5401e-06 -0.862257
4589 1 41.051 13.9229 -12.6952 0 2.40891 1 0 4.54003e-06 0.974907
3871 1 40.5474 14.3622 -12.4574 0 2.38195 1 0 4.54004e-06 0.584138
9424 1 40.2831 14.9608 -12.2567 0 2.3909 1 0 4.54003e-06 0.177448
4233 1 40.685 14.1705 -13.5052 0 2.39928 1 0 4.54003e-06 0.163103
4131 1 41.3144 14.5504 -13.2439 0 2.4699 1 0 4.54001e-06 0.814679
3218 1 40.7948 15.1559 -13.3203 0 2.43923 1 0 4.54002e-06 0.381362
8265 1 40.1084 15.3762 -12.9377 0 2.38362 1 0 4.54004e-06 0.0206732
3691 1 41.9233 14.2307 -12.6694 0 2.70749 2 0 4.53999e-06 0.958903
3209 1 42.0763 15.3585 -12.071 0 3.02359 2 0 4.53999e-06 0.767419
4068 1 39.7784 10.8774 -10.5541 0 2.07326 2 0 4.54098e-06 -0.271835
1309 1 40.0283 11.6113 -11.5548 0 2.10827 2 0 4.54069e-06 -0.471418
4632 1 39.7902 11.7015 -10.284 0 2.12273 1 0 4.5406e-06 -0.722014
4016 1 40.5566 11.3409 -10.791 0 2.16401 2 0 4.54039e-06 0.350332
4334 1 40.7169 12.034 -10.4327 0 2.23713 1 0 4.54019e-06 0.627719
1698 1 39.8687 12.3513 -10.8968 0 2.15298 1 0 4.54044e-06 -0.881308
2550 1 39.6151 13.6257 -11.4376 0 2.25735 1 0 4.54015e-06 -0.779321
4677 1 40.84 12.1302 -11.3435 0 2.22061 2 0 4.54022e-06 0.417867
1927 1 40.4406 12.9097 -11.2974 0 2.24426 1 0 4.54017e-06 -0.832145
1203 1 40.1525 13.1882 -10.422 0 2.21644 1 0 4.54023e-06 -0.950857
3515 1 40.9252 12.8395 -10.4888 0 2.29839 1 0 4.5401e-06 0.993698
3971 1 41.4963 12.6785 -11.3629 0 2.35231 1 0 4.54005e-06 0.780809
3516 1 40.9363 13.4535 -11.1353 0 2.33548 1 0 4.54006e-06 0.604561
3277 1 42.8017 12.6461 -10.751 0 3.22859 2 0 4.53999e-06 0.949544
3924 1 41.8542 13.4183 -11.5891 0 2.6201 2 0 4.54e-06 0.970977
3282 1 41.8546 12.9152 -10.3679 0 2.66004 2 0 4.54e-06 0.980853
6587 1 38.2897 14.5168 -11.0148 0 2.23709 2 0 4.54019e-06 -0.462964
7473 1 37.416 14.7528 -11.4124 0 2.2349 2 0 4.54019e-06 -0.667827
8552 1 38.2029 15.2171 -10.5727 0 2.23664 1 0 4.54019e-06 -0.251202
8545 1 39.4629 14.6603 -11.7717 0 2.30349 1 0 4.54009e-06 -0.913668
1146 1 38.8332 13.9808 -11.4177 0 2.24118 2 0 4.54018e-06 -0.607348
905 1 39.5636 13.9034 -10.3955 0 2.21048 1 0 4.54024e-06 -0.869818
9325 1 39.2962 14.6757 -10.7545 0 2.25362 1 0 4.54016e-06 -0.401268
9173 1 38.4174 14.9119 -11.7902 0 2.26092 2 0 4.54014e-06 -0.833931
4592 1 41.1665 14.0062 -11.6705 0 2.41702 1 0 4.54002e-06 0.903898
3693 1 41.5858 13.8162 -10.5835 0 2.46249 1 0 4.54001e-06 0.935635
8445 1 40.3225 14.1378 -11.4676 0 2.33301 1 0 4.54007e-06 -0.445954
9179 1 40.1485 14.8704 -11.4476 0 2.36158 1 0 4.54005e-06 -0.0705297
4517 1 41.024 14.75 -11.5491 0 2.47777 1 0 4.54001e-06 0.736026
8996 1 41.3644 15.4036 -11.1402 0 2.78518 2 0 4.53999e-06 0.556717
8441 1 40.8956 14.735 -10.4828 0 2.43888 1 0 4.54002e-06 0.478734
3690 1 42.2419 14.2024 -11.6215 0 2.81161 2 0 4.53999e-06 0.99547
3639 1 41.9589 14.7206 -10.9134 0 2.83637 2 0 4.53999e-06 0.976764
1790 1 38.3963 10.8156 -9.16779 0 1.95646 2 0 4.54318e-06 -0.65145
3460 1 40.022 10.918 -9.57573 0 2.13903 2 0 4.54051e-06 0.136175
2281 1 39.0243 11.2523 -9.92751 0 2.02896 2 0 4.54154e-06 -0.71731
2450 1 38.7362 11.7851 -9.13501 0 2.01045 2 0 4.54185e-06 -0.867038
4323 1 39.3221 11.0887 -8.96207 0 2.06054 2 0 4.54112e-06 -0.103506
4322 1 39.6024 11.9217 -9.34936 0 2.10482 1 0 4.54072e-06 -0.895833
3927 1 39.9214 11.7337 -8.6212 0 2.14308 1 0 4.54049e-06 0.547429
3968 1 40.3564 11.8738 -9.47268 0 2.21554 1 0 4.54023e-06 0.619745