ITEM: TIMESTEP
31500
ITEM: NUMBER OF ATOMS
9495
ITEM: BOX BOUNDS mm mm mm
0.0000000000000000e+00 4.9879319291686684e+01
-1.9848064360382465e+00 3.2929093092869294e+01
-2.7372332500998869e+01 3.1748021039364001e+01
ITEM: ATOMS id type x y z c_phase c_temp c_surf c_nbond c_visc f_3[1]
2149 1 45.7371 13.5443 -26.6749 0 3.04314 2 0 4.53999e-06 -0.480556
1924 1 46.3924 12.8234 -26.179 0 3.13255 2 0 4.53999e-06 -0.20032
1561 1 47.3757 13.1162 -26.0404 0 3.55873 2 0 4.53999e-06 0.505233
1560 1 46.8068 13.6946 -26.7896 0 3.19542 2 0 4.53999e-06 0.336882
2454 1 45.0729 14.504 -26.4196 0 2.96676 2 0 4.53999e-06 -0.944695
2453 1 45.2962 14.2875 -27.3798 0 2.96613 2 0 4.53999e-06 -0.408146
1920 1 46.0684 14.5541 -26.8454 0 3.04951 2 0 4.53999e-06 0.216251
2101 1 45.8447 14.0856 -25.8499 0 3.04904 2 0 4.53999e-06 -0.843827
1865 1 45.671 15.055 -25.9999 0 2.99684 2 0 4.53999e-06 -0.861719
2100 1 45.2735 15.4191 -27.0712 0 2.9405 2 0 4.53999e-06 -0.297659
1143 1 46.7538 14.5661 -26.205 0 3.1961 2 0 4.53999e-06 0.427468
4521 1 47.6366 15.2518 -26.2896 0 3.696 2 0 4.53999e-06 0.502307
1196 1 47.5718 14.1121 -26.0474 0 3.58598 2 0 4.53999e-06 0.631095
2150 1 46.1803 12.3554 -24.7539 0 2.96516 2 0 4.53999e-06 -0.590836
2503 1 45.9556 13.2592 -25.3366 0 3.04849 2 0 4.53999e-06 -0.860009
1921 1 47.0115 12.9809 -25.0962 0 3.13788 2 0 4.53999e-06 0.162599
1562 1 47.1583 12.4652 -24.3201 0 3.00776 2 0 4.53999e-06 0.142224
2105 1 46.3655 13.3649 -24.3787 0 2.99794 2 0 4.53999e-06 -0.903797
1201 1 47.7408 13.3183 -24.2734 0 3.15359 1 0 4.53999e-06 0.55247
3628 1 47.9478 13.5312 -25.2465 0 3.57323 2 0 4.53999e-06 0.6972
1870 1 45.4563 14.9023 -25.0571 0 2.93678 2 0 4.53999e-06 -0.94979
2460 1 45.9298 14.2978 -24.1419 0 2.92577 2 0 4.53999e-06 -0.921909
1469 1 46.2591 14.3946 -24.9974 0 3.04328 1 0 4.53999e-06 -0.927435
900 1 46.8518 13.8267 -25.4062 0 3.18931 1 0 4.53999e-06 -0.155851
8451 1 47.1536 14.6641 -25.2328 0 3.23029 1 0 4.53999e-06 0.48374
4545 1 47.6751 14.201 -24.6474 0 3.25995 1 0 4.53999e-06 0.78082
9330 1 47.4528 15.1308 -24.5326 0 3.1889 1 0 4.53999e-06 0.322172
906 1 46.4543 15.3127 -24.6094 0 3.01154 1 0 4.53999e-06 -0.212316
1142 1 46.6045 15.3406 -25.6508 0 3.11543 2 0 4.53999e-06 0.208619
4544 1 48.3566 14.521 -25.6303 0 3.79488 2 0 4.53999e-06 0.809979
4522 1 48.8173 14.123 -24.7641 0 3.77106 2 0 4.53999e-06 0.959241
4130 1 48.2644 14.7246 -24.1822 0 3.47397 2 0 4.53999e-06 0.899184
4109 1 48.3675 15.3563 -25.0678 0 3.70796 2 0 4.53999e-06 0.79911
2547 1 46.404 11.5703 -22.5804 0 2.70009 2 0 4.53999e-06 -0.810265
952 1 47.5275 11.9229 -22.8535 0 2.85025 2 0 4.53999e-06 0.233343
2151 1 46.6978 12.232 -23.4336 0 2.8751 2 0 4.53999e-06 -0.610404
2551 1 46.4618 13.1463 -23.2726 0 2.89673 2 0 4.53999e-06 -0.921944
2153 1 47.378 12.9039 -23.5533 0 2.98681 1 0 4.53999e-06 0.0356094
1928 1 47.2783 13.3832 -22.9308 0 2.93155 1 0 4.53999e-06 -0.697631
3522 1 47.9824 12.7633 -22.5124 0 2.93095 1 0 4.53999e-06 0.526849
3630 1 48.2548 12.6228 -23.4137 0 3.26746 2 0 4.53999e-06 0.672361
903 1 48.1019 13.5615 -23.174 0 3.06392 1 0 4.53999e-06 0.907932
4113 1 48.6434 13.4473 -24.0085 0 3.50309 2 0 4.53999e-06 0.879258
6588 1 45.0867 14.9508 -24.0142 0 2.80698 2 0 4.53999e-06 -0.944592
6032 1 46.1387 15.1198 -23.6493 0 2.88001 2 0 4.53999e-06 -0.546758
6967 1 45.3323 15.2418 -22.9154 0 2.68052 2 0 4.54e-06 -0.776091
1149 1 47.1866 13.823 -24.009 0 3.05495 1 0 4.53999e-06 -0.407198
2457 1 46.6149 13.9792 -23.5345 0 2.93857 1 0 4.53999e-06 -0.976461
2104 1 46.3761 14.3723 -22.853 0 2.83687 2 0 4.53999e-06 -0.965129
3632 1 46.9154 14.7231 -23.9512 0 3.01773 1 0 4.53999e-06 -0.485089
3629 1 47.2439 14.2168 -22.8635 0 2.9269 1 0 4.53999e-06 -0.737233
7563 1 46.9546 15.117 -22.8813 0 2.88725 2 0 4.53999e-06 -0.228521
9333 1 47.6893 14.2605 -23.5312 0 3.0796 1 0 4.53999e-06 0.7603
9329 1 47.9823 14.6869 -22.5669 0 2.99639 1 0 4.53999e-06 0.402144
4114 1 48.8101 14.2009 -23.2889 0 3.41766 2 0 4.53999e-06 0.976268
9222 1 48.1876 15.0444 -23.3251 0 3.32914 2 0 4.53999e-06 0.616834
1008 1 47.3004 11.1709 -21.8934 0 2.65058 2 0 4.54e-06 0.146209
1195 1 46.5907 10.9641 -21.0491 0 2.54638 2 0 4.54e-06 -0.675521
4325 1 47.6585 11.209 -20.7601 0 2.62652 2 0 4.54e-06 0.282784
1922 1 47.0823 12.6293 -22.3141 0 2.82457 1 0 4.53999e-06 -0.82263
1866 1 47.0966 13.5671 -22.1201 0 2.82838 1 0 4.53999e-06 -0.870048
1199 1 46.7583 12.0538 -21.3832 0 2.65479 2 0 4.54e-06 -0.999463
3519 1 47.8803 12.0383 -21.7158 0 2.78922 2 0 4.53999e-06 0.3005
954 1 47.7862 12.4306 -20.8005 0 2.7411 1 0 4.53999e-06 -0.359401
1148 1 47.8865 13.1014 -21.643 0 2.84425 1 0 4.53999e-06 -0.179512
1869 1 47.5049 13.2829 -20.8638 0 2.7236 1 0 4.53999e-06 -0.866491
4587 1 48.8932 12.5441 -22.0021 0 3.21878 2 0 4.53999e-06 0.750845
4125 1 48.5554 13.465 -22.2605 0 2.98966 1 0 4.53999e-06 0.933583
4520 1 48.5792 12.663 -21.0792 0 2.88748 1 0 4.53999e-06 0.630964
3870 1 49.5632 12.7392 -20.9785 0 3.30912 2 0 4.53999e-06 0.861391
4548 1 48.8224 13.5451 -21.3395 0 2.95112 1 0 4.53999e-06 0.97101
6973 1 46.0669 14.8002 -22.1067 0 2.68382 2 0 4.54e-06 -0.891816
6604 1 45.8347 14.5623 -21.0282 0 2.50948 2 0 4.54001e-06 -0.925183
3631 1 47.8289 13.8569 -22.3153 0 2.92202 1 0 4.53999e-06 0.987834
7205 1 46.5474 14.0416 -21.5685 0 2.68789 2 0 4.54e-06 -0.94486
1466 1 47.4474 14.0372 -21.4296 0 2.77414 1 0 4.53999e-06 -0.935667
7556 1 47.2434 14.661 -22.0473 0 2.81863 1 0 4.53999e-06 -0.350396
6298 1 46.7979 14.9728 -21.3201 0 2.65341 2 0 4.54e-06 -0.359967
9220 1 48.1151 14.0313 -20.9004 0 2.80324 1 0 4.53999e-06 0.57951
8449 1 48.007 15.1962 -21.476 0 2.85481 2 0 4.53999e-06 0.143188
8992 1 49.0472 14.2958 -22.2848 0 3.29965 2 0 4.53999e-06 0.97444
9334 1 48.3054 14.3294 -21.7239 0 2.9291 1 0 4.53999e-06 0.761055
9218 1 48.9607 14.5155 -20.9951 0 3.15138 2 0 4.53999e-06 0.778826
9428 1 48.6659 15.2374 -22.2536 0 3.30744 2 0 4.53999e-06 0.554359
1253 1 46.5963 10.6624 -19.4843 0 2.42764 2 0 4.54002e-06 -0.4255
2598 1 46.4768 11.8306 -19.1797 0 2.45956 2 0 4.54001e-06 -0.972855
1976 1 46.7915 11.5702 -20.1718 0 2.54198 2 0 4.54e-06 -0.868836
1010 1 47.4017 11.6138 -19.0462 0 2.54861 2 0 4.54e-06 -0.257737
955 1 47.7857 11.8074 -19.907 0 2.66474 1 0 4.54e-06 -0.0414696
4417 1 48.5952 11.8759 -20.4232 0 2.87082 2 0 4.53999e-06 0.480784
4588 1 48.3628 11.2397 -19.2914 0 2.68919 2 0 4.54e-06 0.415523
4227 1 49.2947 11.8918 -19.5749 0 3.15807 2 0 4.53999e-06 0.731847
7152 1 45.6854 13.4997 -19.2449 0 2.34055 2 0 4.54006e-06 -0.759249
2553 1 47.2008 12.5303 -20.1411 0 2.62174 1 0 4.54e-06 -0.893888
7203 1 46.5604 13.5493 -20.5455 0 2.55946 1 0 4.54e-06 -0.853755
4518 1 48.0546 12.8337 -19.9692 0 2.73126 1 0 4.53999e-06 0.106044
7204 1 47.4342 13.4165 -19.9163 0 2.62859 1 0 4.54e-06 -0.996951
2656 1 46.7106 12.7763 -19.4239 0 2.50329 1 0 4.54001e-06 -0.923669
2552 1 47.7516 12.8223 -19.0677 0 2.62068 1 0 4.54e-06 -0.484977
6970 1 46.7864 13.576 -19.0347 0 2.46044 1 0 4.54001e-06 -0.972354
8448 1 48.3601 13.3326 -20.5305 0 2.81708 1 0 4.53999e-06 0.990863
4519 1 49.0289 12.7037 -20.1142 0 2.93759 1 0 4.53999e-06 0.893596
3520 1 48.458 12.1632 -19.2102 0 2.75315 1 0 4.53999e-06 0.541418
902 1 48.5704 13.2133 -19.4132 0 2.78976 1 0 4.53999e-06 0.951941
4546 1 49.4727 12.7872 -19.0325 0 3.15748 2 0 4.53999e-06 0.921451
3213 1 49.88 13.0022 -19.9053 0 3.3499 2 0 4.53999e-06 0.998441
7474 1 44.8549 14.5412 -20.0372 0 2.32192 2 0 4.54008e-06 -0.79674
7373 1 44.5586 14.1211 -18.9875 0 2.26436 2 0 4.54014e-06 -0.98993
7202 1 45.602 13.809 -20.3203 0 2.40243 2 0 4.54003e-06 -0.786365
6908 1 46.2484 14.2763 -19.6699 0 2.42254 2 0 4.54002e-06 -0.640196
6608 1 47.2963 14.0782 -20.4829 0 2.64808 1 0 4.54e-06 -0.735844
7557 1 47.6911 14.8479 -20.6389 0 2.69603 2 0 4.53999e-06 0.0461263
6027 1 46.6484 14.8491 -20.3628 0 2.52985 2 0 4.54e-06 -0.345519
6304 1 47.7177 13.6678 -19.1435 0 2.6 1 0 4.54e-06 -0.263881
7555 1 48.1689 13.9391 -19.9145 0 2.7271 1 0 4.53999e-06 0.468314
8547 1 48.2053 14.5609 -19.0483 0 2.65973 2 0 4.54e-06 0.167171
6030 1 47.2832 14.4958 -19.5403 0 2.54005 1 0 4.54e-06 -0.170577
8739 1 49.5999 13.7581 -20.5992 0 3.30981 2 0 4.53999e-06 0.910086
9221 1 49.3091 13.8489 -19.5927 0 3.16461 2 0 4.53999e-06 0.843904
9171 1 48.6245 14.744 -20.0522 0 2.79221 2 0 4.53999e-06 0.459301
1685 1 46.1378 11.1212 -17.5488 0 2.29251 2 0 4.5401e-06 -0.564614
3425 1 46.7791 11.0709 -18.4778 0 2.42843 2 0 4.54002e-06 -0.506479
4630 1 47.8011 10.9792 -18.4178 0 2.54788 2 0 4.54e-06 0.312005
1255 1 46.9179 11.6646 -17.7697 0 2.42748 2 0 4.54002e-06 -0.542763
4229 1 47.7169 11.3072 -17.4508 0 2.52997 2 0 4.54e-06 0.465966
4420 1 48.3847 11.7627 -18.1877 0 2.84254 2 0 4.53999e-06 0.722959
7376 1 46.1456 13.5116 -18.2623 0 2.34384 1 0 4.54006e-06 -0.835718
6905 1 45.3134 13.5704 -17.7484 0 2.2489 2 0 4.54016e-06 -0.825415
2599 1 46.6393 12.5086 -18.3896 0 2.4314 1 0 4.54002e-06 -0.922818
1926 1 47.6091 12.3692 -18.1533 0 2.54763 1 0 4.54e-06 -0.0702551
6972 1 47.8171 13.2474 -17.999 0 2.55155 1 0 4.54e-06 0.687937
3521 1 46.9114 12.4296 -17.2458 0 2.42067 1 0 4.54002e-06 -0.535123
6590 1 46.9906 13.248 -17.8339 0 2.43123 1 0 4.54002e-06 -0.734969
901 1 48.7596 12.6191 -18.4381 0 2.74842 1 0 4.53999e-06 0.812872
4516 1 48.3496 13.4703 -18.5817 0 2.6809 1 0 4.54e-06 0.962398
4547 1 48.5441 12.7962 -17.5783 0 2.64812 1 0 4.54e-06 0.845261
3873 1 49.4297 13.4647 -18.2216 0 3.10748 2 0 4.53999e-06 0.975007
6450 1 44.9119 14.5208 -17.9398 0 2.22958 2 0 4.5402e-06 -0.832769
6297 1 45.6263 14.4247 -18.7854 0 2.29919 2 0 4.5401e-06 -0.524002
6240 1 45.9284 14.6531 -17.7899 0 2.27494 2 0 4.54012e-06 -0.330425
6245 1 46.6588 14.4102 -18.639 0 2.3903 2 0 4.54003e-06 -0.208659
6605 1 46.6976 14.1459 -17.6771 0 2.36472 1 0 4.54005e-06 -0.363739
6301 1 47.4514 13.9828 -18.3193 0 2.49729 1 0 4.54001e-06 -0.169537
8447 1 47.4632 13.8462 -17.2917 0 2.46331 1 0 4.54001e-06 0.368601
7662 1 47.4741 14.7968 -17.7038 0 2.4553 2 0 4.54001e-06 -0.0588652
8944 1 49.1821 14.3775 -18.7324 0 3.0831 2 0 4.53999e-06 0.803849
8546 1 48.353 14.219 -18.0233 0 2.65146 1 0 4.54e-06 0.547194
9168 1 49.1315 14.6228 -17.6875 0 3.04795 2 0 4.53999e-06 0.740155
9122 1 48.3752 15.2344 -18.2309 0 2.61828 2 0 4.54e-06 0.103078
1688 1 44.6475 11.7959 -15.8695 0 2.12338 2 0 4.54059e-06 -0.770656
2452 1 45.1964 11.7182 -16.8642 0 2.1837 2 0 4.54032e-06 -0.769049
1259 1 45.7299 10.9274 -16.4788 0 2.19778 2 0 4.54028e-06 -0.29612
1569 1 46.1467 11.8898 -17.0226 0 2.29563 2 0 4.5401e-06 -0.663342
1011 1 45.6211 11.6045 -15.7288 0 2.18931 2 0 4.5403e-06 -0.153391
4330 1 46.5776 11.7001 -15.9201 0 2.31829 2 0 4.54008e-06 0.323773
4326 1 46.7571 11.137 -16.7316 0 2.32957 2 0 4.54007e-06 0.23162
4331 1 47.4629 11.7692 -16.3737 0 2.66144 2 0 4.54e-06 0.589187
2201 1 45.4391 12.3942 -16.2009 0 2.20308 1 0 4.54026e-06 -0.734532
1566 1 46.3364 12.5112 -16.4871 0 2.31359 1 0 4.54008e-06 -0.408571
2548 1 45.8818 13.2761 -16.4779 0 2.26091 1 0 4.54014e-06 -0.726345
7374 1 46.5351 13.3606 -17.0527 0 2.34633 1 0 4.54006e-06 -0.691407
2154 1 45.4394 13.0314 -15.6448 0 2.20038 1 0 4.54027e-06 -0.81437
1567 1 46.2546 13.0347 -15.7558 0 2.28799 1 0 4.54011e-06 0.390271
1923 1 47.66 12.8628 -17.2163 0 2.51774 1 0 4.54e-06 0.666354
4591 1 48.0082 12.1062 -17.1042 0 2.73701 2 0 4.53999e-06 0.715642
1563 1 47.166 13.2522 -16.6732 0 2.42827 1 0 4.54002e-06 0.844147
9331 1 48.2571 13.5449 -17.152 0 2.60204 1 0 4.54e-06 0.908607
1198 1 47.0757 12.6509 -16.0752 0 2.42112 1 0 4.54002e-06 0.680783
4515 1 48.0657 12.8192 -16.3114 0 2.74478 2 0 4.53999e-06 0.793842
6303 1 46.6853 13.5706 -16.0543 0 2.3462 1 0 4.54006e-06 0.670998
6513 1 45.0789 13.7974 -16.6944 0 2.20517 2 0 4.54026e-06 -0.930395
6907 1 45.9709 14.0504 -17.0053 0 2.27462 1 0 4.54013e-06 -0.740196
7377 1 44.9492 13.7452 -15.6175 0 2.17141 1 0 4.54036e-06 -0.792988
7559 1 45.6025 14.5118 -16.2388 0 2.21956 2 0 4.54022e-06 -0.512186
6031 1 45.834 13.868 -15.9015 0 2.24408 1 0 4.54017e-06 -0.532617
8945 1 46.5797 14.4591 -15.7681 0 2.30823 1 0 4.54009e-06 0.192029
9429 1 46.3879 14.9143 -16.6337 0 2.27599 2 0 4.54012e-06 -0.112523
7554 1 46.8095 14.1402 -16.7054 0 2.35158 1 0 4.54005e-06 0.078282
9123 1 47.4485 14.7465 -16.5159 0 2.40299 2 0 4.54003e-06 0.319414
9169 1 48.2274 14.4647 -17.0619 0 2.57564 2 0 4.54e-06 0.476746
9224 1 47.5557 13.8476 -16.2 0 2.47328 1 0 4.54001e-06 0.691522
8989 1 49.1591 13.702 -17.2518 0 3.00459 2 0 4.53999e-06 0.900496
3872 1 48.4843 13.7635 -16.2504 0 2.84483 2 0 4.53999e-06 0.775439
1681 1 43.6217 11.7309 -14.8142 0 2.04166 2 0 4.54135e-06 -0.717352
1313 1 44.7907 11.5953 -14.8792 0 2.10369 2 0 4.54072e-06 -0.250526
4328 1 45.7952 11.8214 -14.7776 0 2.17041 2 0 4.54037e-06 0.324498
2202 1 44.4952 12.6882 -15.275 0 2.12204 1 0 4.5406e-06 -0.779266
2208 1 43.7803 13.0765 -14.2771 0 2.09813 1 0 4.54077e-06 -0.719826
3422 1 44.253 12.293 -14.4041 0 2.09137 2 0 4.54082e-06 -0.515458
4416 1 44.722 12.8736 -14.2377 0 2.12658 1 0 4.54057e-06 -0.00732165
7472 1 44.7206 13.4035 -14.8305 0 2.14181 1 0 4.54049e-06 -0.796262
1684 1 43.1641 12.5121 -13.8646 0 2.05889 2 0 4.54114e-06 -0.62078
1257 1 45.2505 12.4574 -15.004 0 2.15877 1 0 4.54041e-06 -0.310716
4419 1 46.1736 12.3367 -15.3715 0 2.25949 1 0 4.54015e-06 0.368875
1467 1 45.7365 13.2563 -15.0279 0 2.21444 1 0 4.54023e-06 0.338921
3966 1 45.2228 12.224 -14.0572 0 2.12388 2 0 4.54059e-06 0.246518
4232 1 45.9433 12.7715 -14.4004 0 2.20531 1 0 4.54026e-06 0.489362
904 1 45.1942 13.4128 -13.9585 0 2.16174 1 0 4.5404e-06 0.469229
4551 1 46.74 13.0224 -15.0353 0 2.3614 1 0 4.54005e-06 0.627572
4228 1 47.2236 12.2044 -15.2533 0 2.64268 2 0 4.54e-06 0.587757
4549 1 47.6206 13.2063 -15.4506 0 2.69214 2 0 4.54e-06 0.811241
3876 1 47.3924 13.4515 -14.2822 0 2.86808 2 0 4.53999e-06 0.614913
7151 1 43.9069 13.8191 -14.6989 0 2.10878 2 0 4.54069e-06 -0.568114
6242 1 44.5639 14.4791 -14.9299 0 2.12811 2 0 4.54057e-06 -0.272948
6237 1 43.1935 14.5787 -14.6819 0 2.07586 2 0 4.54096e-06 -0.477252
7475 1 43.2493 13.8701 -14.0353 0 2.1091 2 0 4.54069e-06 -0.62892
7657 1 44.4542 14.0742 -14.061 0 2.14906 1 0 4.54046e-06 0.2624
9126 1 43.7178 14.6808 -13.8301 0 2.13791 2 0 4.54051e-06 0.14675
7558 1 45.3559 13.8236 -14.6086 0 2.1786 1 0 4.54034e-06 0.251809
6243 1 45.5901 14.2882 -15.2174 0 2.19801 1 0 4.54028e-06 -0.0533859
9223 1 46.3799 13.7887 -15.1591 0 2.29917 1 0 4.5401e-06 0.438669
3641 1 46.2574 13.6973 -14.1494 0 2.26903 2 0 4.54013e-06 0.471477
9120 1 45.3405 14.6708 -14.0913 0 2.17026 2 0 4.54037e-06 0.345862
8600 1 47.3298 14.1334 -15.1738 0 2.67887 2 0 4.54e-06 0.553795
1683 1 41.662 12.431 -12.4266 0 2.01385 2 0 4.54179e-06 -0.314578
1056 1 42.9116 12.5196 -12.9087 0 2.06193 2 0 4.5411e-06 -0.026204
2205 1 41.5146 13.3821 -12.5309 0 2.05068 2 0 4.54124e-06 -0.633187
1929 1 42.441 13.3166 -13.0133 0 2.08879 1 0 4.54084e-06 -0.47364
4633 1 42.3241 12.9898 -12.2663 0 2.07764 2 0 4.54094e-06 0.0438755
4590 1 43.2978 13.2895 -12.6097 0 2.12788 1 0 4.54057e-06 0.630162
2655 1 43.3612 13.3853 -13.3817 0 2.11723 1 0 4.54063e-06 -0.0724703
4631 1 44.0098 12.4847 -13.3132 0 2.08489 2 0 4.54088e-06 0.247288
956 1 44.2793 13.3071 -13.573 0 2.13596 1 0 4.54052e-06 0.507942
7150 1 42.7097 14.6577 -13.5757 0 2.11582 2 0 4.54064e-06 -0.46565
7553 1 42.8374 13.9763 -13.2151 0 2.12726 1 0 4.54057e-06 -0.480426
6968 1 41.8888 14.0172 -12.9278 0 2.08139 2 0 4.54091e-06 -0.624694
6509 1 41.5201 14.6754 -12.4005 0 2.07385 2 0 4.54098e-06 -0.405095
9227 1 42.714 13.8256 -12.4259 0 2.13269 1 0 4.54054e-06 0.940841
8544 1 42.5265 14.5085 -12.6204 0 2.14039 1 0 4.5405e-06 -0.180377
9172 1 43.7117 13.9854 -13.2684 0 2.16166 1 0 4.5404e-06 0.797948
8943 1 44.6685 14.0376 -13.1704 0 2.41617 2 0 4.54003e-06 0.624747
8898 1 43.3998 14.6545 -12.8331 0 2.28731 2 0 4.54011e-06 0.489594
3640 1 43.5998 14.0087 -12.214 0 2.36963 2 0 4.54004e-06 0.824551
8686 1 43.0848 15.2623 -12.1332 0 2.25332 2 0 4.54016e-06 0.259968
2597 1 40.7876 13.0954 -11.8854 0 2.01818 2 0 4.54171e-06 -0.632134
3523 1 40.3518 13.479 -10.8408 0 2.04146 2 0 4.54136e-06 -0.20343
2449 1 39.4673 13.2781 -10.2901 0 2.02376 2 0 4.54162e-06 -0.265661
1258 1 41.2649 13.0532 -11.1858 0 2.04167 2 0 4.54135e-06 -0.073054
953 1 41.8056 13.4751 -11.8209 0 2.07466 1 0 4.54097e-06 -0.236169
3922 1 42.1469 13.2214 -11.1862 0 2.09152 2 0 4.54082e-06 0.307947
4121 1 42.751 13.4541 -11.8211 0 2.13098 1 0 4.54055e-06 0.603745
6694 1 39.362 14.7619 -10.844 0 2.02547 2 0 4.54159e-06 -0.652681
1197 1 41.1461 13.9283 -11.8871 0 2.04956 1 0 4.54125e-06 -0.7374
6591 1 40.3402 13.8692 -11.5273 0 2.02921 2 0 4.54153e-06 -0.703752
6512 1 40.6539 14.6213 -11.684 0 2.03482 2 0 4.54145e-06 -0.33326
2652 1 39.5711 14.0149 -10.4973 0 2.0456 2 0 4.5413e-06 -0.66343
8543 1 40.185 14.3723 -10.9001 0 2.04974 2 0 4.54125e-06 -0.384544
8838 1 40.2304 15.0634 -10.3257 0 2.06863 2 0 4.54103e-06 0.247376
1565 1 41.1562 13.7867 -10.9837 0 2.06222 1 0 4.5411e-06 0.310368
9170 1 40.9059 14.4323 -10.6943 0 2.18509 2 0 4.54032e-06 0.567653
6455 1 39.7354 15.0375 -11.7591 0 2.00048 2 0 4.54205e-06 -0.472375
6305 1 42.0067 14.2386 -11.9713 0 2.09833 1 0 4.54076e-06 -0.131119
3643 1 41.9277 14.0654 -11.147 0 2.09865 2 0 4.54076e-06 0.362747
7658 1 41.4442 14.663 -11.4167 0 2.06623 2 0 4.54106e-06 0.131102
8595 1 42.772 14.4202 -11.8274 0 2.16885 2 0 4.54037e-06 0.449032
3281 1 42.7895 13.9154 -11.1632 0 2.36638 2 0 4.54005e-06 0.572452
2199 1 38.6566 13.0065 -9.79957 0 1.98667 2 0 4.54235e-06 -0.606945
1256 1 38.7556 12.7441 -8.7372 0 1.99647 2 0 4.54213e-06 -0.159182
1261 1 38.6928 13.5542 -9.05876 0 2.05103 2 0 4.54123e-06 -0.696597
4225 1 39.5707 13.0397 -9.43828 0 2.03372 2 0 4.54147e-06 0.376904
4593 1 40.262 13.5711 -10.0582 0 2.17647 2 0 4.54035e-06 0.54961
2152 1 38.9917 13.8962 -9.79883 0 2.05023 1 0 4.54124e-06 -0.801163
6974 1 38.468 14.5718 -9.80105 0 2.0498 2 0 4.54125e-06 -0.74815
6302 1 38.4595 14.2764 -8.92001 0 2.08272 1 0 4.54089e-06 -0.920134
9226 1 39.198 14.2912 -8.74427 0 2.14013 1 0 4.5405e-06 0.685663
7656 1 39.3137 14.7164 -9.91889 0 2.07518 2 0 4.54097e-06 -0.306587
7149 1 37.8654 15.1327 -9.16195 0 2.06706 2 0 4.54105e-06 -0.616576
6906 1 38.8896 15.0697 -9.07471 0 2.12362 2 0 4.54059e-06 0.0506197
4124 1 39.6835 13.859 -9.3674 0 2.09555 1 0 4.54079e-06 0.717358
8946 1 39.9951 14.2799 -10.0331 0 2.1002 2 0 4.54075e-06 0.6589
8897 1 39.7843 14.667 -9.24567 0 2.32042 2 0 4.54008e-06 0.588216
3874 1 40.8501 14.1808 -9.83418 0 2.31629 2 0 4.54008e-06 0.759568
2600 1 37.2941 13.4148 -6.94454 0 2.01402 2 0 4.54179e-06 -0.678954
1260 1 38.16 13.3388 -8.1483 0 2.03162 2 0 4.5415e-06 -0.449176
4324 1 38.0053 12.848 -6.88063 0 2.01631 2 0 4.54175e-06 0.141878
1691 1 38.1911 13.6296 -7.13513 0 2.06736 1 0 4.54104e-06 0.397845
4424 1 39.3901 13.4781 -8.55281 0 2.26443 2 0 4.54014e-06 0.603133
2456 1 36.6444 14.3664 -6.76996 0 2.05219 2 0 4.54122e-06 -0.955121
6508 1 37.0897 14.6533 -7.55763 0 2.0938 2 0 4.5408e-06 -0.866465
4418 1 38.7343 13.9767 -7.97105 0 2.10689 1 0 4.5407e-06 0.767185
6606 1 37.7064 14.6277 -8.35536 0 2.09449 2 0 4.54079e-06 -0.816916
8450 1 37.8883 14.1304 -7.78466 0 2.09219 1 0 4.54081e-06 -0.613735
8497 1 38.4895 14.7211 -8.22393 0 2.15048 1 0 4.54045e-06 0.360742
8444 1 37.7643 14.2148 -6.98459 0 2.10553 1 0 4.54071e-06 -0.529544
8500 1 38.5821 14.479 -7.16235 0 2.20352 1 0 4.54026e-06 0.997582
8270 1 38.7183 15.1472 -7.56935 0 2.48898 2 0 4.54001e-06 0.692168
9128 1 37.8875 15.0926 -7.3214 0 2.20098 1 0 4.54027e-06 -0.10834
8317 1 40.0372 14.9811 -8.14127 0 3.02773 2 0 4.53999e-06 0.790967
1973 1 37.066 11.9093 -6.15907 0 1.90152 2 0 4.54552e-06 -0.47004
2022 1 37.1157 12.2248 -5.04865 0 1.95582 2 0 4.5432e-06 -0.938887
1789 1 37.7134 11.3714 -4.92111 0 1.99094 2 0 4.54225e-06 -0.0177286
1013 1 38.1762 12.1563 -4.95383 0 2.13539 2 0 4.54053e-06 0.520532
2212 1 37.2157 12.8164 -6.01157 0 1.97722 2 0 4.54258e-06 -0.826154
4333 1 38.0423 12.7826 -5.55932 0 2.08446 2 0 4.54088e-06 0.404088
4415 1 37.8121 13.4706 -6.04731 0 2.05667 1 0 4.54116e-06 -0.160527
4231 1 38.2375 13.3324 -4.9085 0 2.05776 1 0 4.54115e-06 0.773614
3967 1 38.5751 13.2115 -6.22878 0 2.2472 2 0 4.54017e-06 0.802871
2458 1 37.2087 13.9363 -6.24247 0 2.0582 1 0 4.54115e-06 -0.893087
8442 1 37.2385 14.2528 -5.46495 0 2.08795 1 0 4.54085e-06 -0.896522
9427 1 36.8848 14.8743 -5.85014 0 2.11275 1 0 4.54066e-06 -0.994238
6033 1 36.455 14.9257 -4.7697 0 2.09605 2 0 4.54078e-06 -0.924685
3970 1 38.6522 13.9846 -6.49847 0 2.13539 1 0 4.54053e-06 0.964279
9225 1 37.4582 14.1963 -4.64274 0 2.07071 1 0 4.54101e-06 -0.886608
8263 1 37.5718 14.6068 -6.44326 0 2.13343 1 0 4.54054e-06 -0.781054
4116 1 37.9084 13.9849 -5.35326 0 2.09471 1 0 4.54079e-06 0.218223
3692 1 38.6949 14.0226 -5.15742 0 2.1681 1 0 4.54038e-06 0.977139
8990 1 38.1847 14.3481 -5.99404 0 2.16874 1 0 4.54037e-06 0.997947
8684 1 38.3421 14.8104 -5.10207 0 2.2754 1 0 4.54012e-06 0.910615
8738 1 38.025 15.087 -6.11754 0 2.25631 1 0 4.54015e-06 0.536848
7653 1 37.6416 14.7964 -5.35661 0 2.15693 1 0 4.54042e-06 -0.204118
3212 1 39.4221 14.6404 -4.79653 0 2.96693 2 0 4.53999e-06 0.985444
8316 1 39.0353 14.9023 -6.36798 0 2.73813 2 0 4.53999e-06 0.989226
3793 1 38.2726 10.1732 -3.01064 0 2.11726 2 0 4.54063e-06 0.320653
1687 1 36.9543 10.7528 -3.28524 0 1.9332 2 0 4.54402e-06 -0.761659
1057 1 37.296 10.8881 -4.19501 0 1.96959 2 0 4.54279e-06 -0.486855
2555 1 36.8963 12.318 -2.94773 0 1.8968 1 0 4.54578e-06 -0.98366
1930 1 36.9234 11.4779 -2.71769 0 1.91356 1 0 4.54489e-06 -0.956211
4321 1 37.3805 11.6491 -3.85414 0 1.98895 1 0 4.5423e-06 -0.810345
4673 1 38.0496 10.9126 -3.66388 0 2.07846 2 0 4.54093e-06 0.225246
3737 1 38.9051 10.916 -3.23277 0 2.46859 2 0 4.54001e-06 0.768511
4014 1 38.4857 11.6356 -4.17354 0 2.29561 2 0 4.5401e-06 0.692799
4634 1 38.0529 11.8002 -3.26587 0 2.05906 1 0 4.54114e-06 0.762507
3738 1 39.0026 11.8836 -3.3098 0 2.40898 2 0 4.54003e-06 0.989318
1974 1 37.2519 12.4348 -3.91362 0 1.96742 1 0 4.54285e-06 -0.926464
3517 1 37.6126 12.3965 -2.69265 0 1.95377 1 0 4.54327e-06 -0.663373
1868 1 36.8595 13.6608 -2.50441 0 1.88483 1 0 4.54652e-06 -0.979003
1925 1 37.1069 13.0819 -3.34587 0 1.93458 1 0 4.54396e-06 -0.982975
909 1 37.3554 13.7939 -3.4321 0 1.98828 1 0 4.54231e-06 -0.999256
3423 1 38.0702 12.4434 -3.77928 0 2.03752 1 0 4.54141e-06 0.713134
3921 1 38.4806 12.4601 -2.69775 0 2.0649 1 0 4.54107e-06 0.92775
3740 1 38.9443 12.5759 -4.33821 0 2.33084 2 0 4.54007e-06 0.953668
3514 1 37.6813 12.9431 -4.35472 0 2.00238 1 0 4.54201e-06 -0.752275
4230 1 37.6859 13.6343 -4.2607 0 2.02958 1 0 4.54153e-06 -0.770817
4233 1 37.704 13.1505 -2.69802 0 1.96648 1 0 4.54288e-06 -0.164067
4131 1 38.2919 13.5662 -2.88558 0 2.03674 1 0 4.54142e-06 0.940858
3923 1 38.4571 13.0245 -3.46496 0 2.04056 1 0 4.54137e-06 0.998351
3920 1 38.5673 13.5867 -4.05144 0 2.06633 1 0 4.54106e-06 0.994643
2102 1 36.7908 14.2709 -3.98228 0 2.01702 2 0 4.54173e-06 -0.972122
8596 1 37.231 14.9508 -4.30542 0 2.12473 1 0 4.54059e-06 -0.878065
9326 1 37.6868 14.4997 -3.42379 0 2.0686 1 0 4.54103e-06 -0.675691
3871 1 37.8665 14.1148 -2.64846 0 2.02955 1 0 4.54153e-06 -0.051536
8948 1 37.9523 14.6158 -4.44087 0 2.14905 1 0 4.54046e-06 0.802184
3642 1 38.1953 14.1652 -3.79057 0 2.09218 1 0 4.54081e-06 0.985676
8740 1 38.8857 14.1813 -3.04941 0 2.20518 1 0 4.54026e-06 0.988101
3218 1 38.4966 14.9335 -2.90814 0 2.26709 1 0 4.54014e-06 0.881219
8315 1 38.0936 15.154 -3.82377 0 2.24701 1 0 4.54017e-06 0.731026
3209 1 39.5465 14.8664 -2.50533 0 2.78062 2 0 4.53999e-06 0.995153
32 1 7.58247 0.647807 0.140287 4 0.00102582 2 0 0.0994487 -0.11093
37 1 9.63995 1.37474 0.0900752 4 0.00284094 2 0 0.0994487 0.0992999
43 1 10.2431 0.367861 0.0780499 4 0.00288019 2 0 0.0994487 0.149808
59 1 15.1049 0.711806 0.0677822 4 0.0342625 2 0 0.0994487 0.169215
103 1 1.11081 2.43607 0.129285 4 3.99873e-05 2 0 0.0994487 -0.0373214
108 1 0.332248 3.09582 0.131296 4 3.68236e-05 2 0 0.0994487 -0.59134
113 1 2.7261 2.38168 0.0557193 4 8.76432e-05 2 0 0.0994487 0.146602
119 1 5.65047 2.44269 0.132743 4 0.000587024 2 0 0.0994487 -0.189921
124 1 6.65033 2.92778 0.134227 4 0.00107316 2 0 0.0994487 0.0288929
125 1 7.45405 2.22586 0.139832 4 0.00138511 2 0 0.0994487 -0.0534943
130 1 8.26934 2.9712 0.0392146 4 0.00266239 2 0 0.0994487 -0.15061
152 1 13.4137 2.29398 0.0590902 4 0.0266824 2 0 0.0994487 -0.280945
150 1 14.8418 2.51505 0.136557 4 0.0520752 2 0 0.0994487 0.173028
151 1 14.1591 3.2262 0.0325348 4 0.0477672 2 0 0.0994487 -0.246087
157 1 15.5706 3.25854 0.0192499 4 0.0821344 2 0 0.0994487 0.290259
165 1 19.587 2.34239 0.101452 0 0.290661 2 0 0.0991737 -0.132408
181 1 24.9562 2.84566 0.0146836 0 0.610063 2 0 0.0819976 -0.0864956
203 1 30.1092 3.25953 0.132205 0 0.691745 2 0 0.0645225 -0.0443725
204 1 30.4116 1.90909 0.0255368 0 0.534116 2 0 0.0910424 0.106032
205 1 31.1434 2.66402 0.0761253 0 0.598573 2 0 0.0837543 0.708812
210 1 1.04069 3.86421 0.0595682 4 5.95946e-05 2 0 0.0994487 0.014888
219 1 4.26027 4.18509 0.149001 4 0.000466416 2 0 0.0994487 0.0377402
215 1 3.40771 4.86189 0.161635 4 0.00034437 2 0 0.0994487 -0.0163869
235 1 8.98541 3.86821 0.0631775 4 0.00517209 2 0 0.0994487 -0.138747
232 1 9.86266 4.50302 0.126324 4 0.00921987 2 0 0.0994487 0.0958759
247 1 12.6435 4.61885 0.0632315 4 0.0363148 2 0 0.0994487 -0.0335604
254 1 14.961 4.19423 0.096508 4 0.0834296 2 0 0.0994487 0.0323008
253 1 14.1405 4.90647 0.0597868 4 0.0723896 2 0 0.0994487 -0.0856649
264 1 18.1348 3.8547 0.0583493 0 0.253402 2 0 0.0994298 -0.120539
263 1 17.4569 4.57727 0.0147963 4 0.228953 2 0 0.0994487 -0.0974156
175 1 22.6771 3.40124 0.07601 0 0.513999 2 0 0.0925989 0.0758461
323 1 6.37773 6.04115 0.154639 4 0.0026407 2 0 0.0994487 0.111115
331 1 7.33029 5.3575 0.0461812 4 0.0035735 2 0 0.0994487 0.0813607
337 1 9.76329 6.23201 0.0941385 4 0.0169351 2 0 0.0994487 -0.0359483
338 1 8.99733 5.46479 0.012702 4 0.00910591 2 0 0.0994487 -0.134749
340 1 11.3128 6.37134 0.0776634 4 0.0315163 2 0 0.0994487 0.100356
348 1 13.3212 5.53867 0.0424813 4 0.0598701 2 0 0.0994487 -0.142886
352 1 15.0282 5.64393 0.034369 4 0.115345 2 0 0.0994487 0.057396
351 1 14.1303 6.38483 0.0380077 4 0.0975812 2 0 0.0994487 -0.0825852
358 1 15.6753 6.3382 0.0390223 4 0.163829 2 0 0.0994487 0.0398726
373 1 21.6904 5.73259 0.0517844 0 0.57091 2 0 0.0873666 -0.0016197
395 1 28.4822 5.38976 0.0592959 0 0.853126 2 0 0.0153977 -0.105079
394 1 29.3762 6.15398 0.0801838 0 0.911509 2 0 0.00538772 0.0958671
413 1 3.81243 8.45898 0.0822892 4 0.00104968 2 0 0.0994487 -0.0457793
324 1 5.54993 7.05206 0.147147 4 0.00231674 2 0 0.0994487 0.036386
426 1 7.99895 7.60312 0.0282118 4 0.0108133 2 0 0.0994487 0.0674123
341 1 10.5187 6.94145 0.15452 4 0.028932 2 0 0.0994487 -0.0735209
436 1 11.227 8.11851 0.0422735 4 0.0500561 2 0 0.0994487 0.174346
451 1 15.8668 8.31534 0.152632 4 0.245997 2 0 0.0994487 -0.185851
2281 1 34.8969 8.93595 -0.673338 0 1.7342 2 0 4.56948e-06 -0.592548
4016 1 36.44 8.87286 -0.97957 0 1.94756 2 0 4.54347e-06 0.439997
497 1 0.36755 9.33519 0.122595 4 0.000174232 2 0 0.0994487 -0.58224
505 1 3.07153 9.37068 0.0798637 4 0.000735527 2 0 0.0994487 -0.0110588
501 1 2.59083 10.2762 0.0854603 4 0.000581428 2 0 0.0994487 0.111275
508 1 4.57569 9.17985 0.00735123 4 0.00176129 2 0 0.0994487 0.117407
518 1 8.09535 9.0463 0.0802495 4 0.0161215 2 0 0.0994487 0.0302655
527 1 10.4031 8.88547 0.040013 4 0.0443327 2 0 0.0994487 -0.138186
546 1 15.3043 9.20714 0.0898472 4 0.229091 2 0 0.0994487 -0.197604
551 1 17.7685 9.11154 0.116022 0 0.367354 2 0 0.0982309 -0.0454551
558 1 19.9932 9.79255 0.07389 0 0.527369 2 0 0.0915941 0.145622
478 1 26.2729 8.58549 0.0891813 0 0.905216 2 0 0.00612416 0.0504773
596 1 31.2178 9.9685 0.0414754 0 0.950296 2 0 0.00227806 0.595785
1449 1 35.1644 9.71354 -1.10496 0 1.74471 2 0 4.56654e-06 -0.688341
1309 1 35.8852 9.0733 -1.70375 0 1.83338 2 0 4.55091e-06 -0.239206
1698 1 35.9384 9.90495 -1.37039 0 1.80865 2 0 4.55398e-06 -0.68179
3335 1 36.4204 9.81914 -2.24076 0 1.85665 2 0 4.54865e-06 -0.456252
4332 1 37.563 10.5752 -2.6134 0 1.99815 1 0 4.54209e-06 -0.2025
4677 1 36.7741 9.7078 -1.22865 0 1.8816 1 0 4.54673e-06 0.399025
1927 1 36.3442 10.5834 -1.24545 0 1.81817 1 0 4.55271e-06 -0.881175
1012 1 36.7539 10.6281 -2.07307 0 1.8856 1 0 4.54647e-06 -0.836988
4017 1 37.3325 9.78073 -2.24262 0 1.95014 2 0 4.54339e-06 0.0739473
3971 1 37.4652 10.1993 -1.35553 0 1.94361 1 0 4.54362e-06 0.58584
3789 1 38.1785 10.0197 -1.97769 0 2.26249 2 0 4.54014e-06 0.562041
3371 1 38.9139 10.627 -2.22817 0 2.46376 2 0 4.54001e-06 0.867232
599 1 1.66792 11.1804 0.0305073 4 0.000378258 2 0 0.0994487 -0.0941753
637 1 11.7607 10.7147 0.0383943 4 0.0849365 2 0 0.0994487 -0.0191217
646 1 13.4118 10.6812 0.00468363 4 0.144304 2 0 0.0994487 -0.131035
645 1 14.1738 11.6169 0.089015 4 0.171797 2 0 0.0994487 0.0451478
650 1 16.4403 10.8138 0.15589 0 0.297187 2 0 0.0991182 -0.0825348
662 1 19.517 10.7559 0.104809 0 0.499067 2 0 0.0935846 0.109788
659 1 19.9822 11.9648 0.106136 0 0.543301 2 0 0.0902296 0.0714448
577 1 24.4428 10.3356 0.111736 0 0.865669 2 0 0.0126251 -0.207751
680 1 25.4203 11.1028 0.0258328 0 0.903157 2 0 0.00638207 -0.0685701
675 1 26.2388 11.8285 0.0889694 0 0.932526 2 0 0.00342518 -0.12657
690 1 29.0843 10.8079 0.126121 0 0.942572 2 0 0.00272685 -0.098778
694 1 30.712 10.6944 0.164178 0 0.954264 2 0 0.00207411 0.323765
4414 1 37.4042 10.9686 -1.89359 0 1.93648 1 0 4.54389e-06 -0.785126
1203 1 36.3094 11.4068 -1.14414 0 1.77826 2 0 4.55896e-06 -0.951526
1568 1 36.6488 12.0527 -1.64684 0 1.8051 1 0 4.55449e-06 -0.957784
3516 1 37.2282 11.4736 -1.35298 0 1.87613 1 0 4.54711e-06 -0.467287
3969 1 37.9738 11.229 -2.6964 0 2.05348 1 0 4.5412e-06 0.732544
4589 1 37.7383 11.8157 -2.13547 0 1.9632 1 0 4.54297e-06 0.553242
3924 1 38.1539 10.8431 -1.62241 0 2.04133 1 0 4.54136e-06 0.905845
3691 1 38.6581 11.5826 -2.25799 0 2.19929 1 0 4.54027e-06 0.887027
3693 1 38.0808 11.584 -1.13082 0 1.97635 1 0 4.54261e-06 0.894417
3278 1 39.7928 11.127 -2.75197 0 2.88179 2 0 4.53999e-06 0.995892
703 1 2.02605 13.5951 0.0514267 4 0.000596996 2 0 0.0994487 -0.00684575
710 1 4.71541 13.3639 0.114075 4 0.00327099 2 0 0.0994487 -0.0602843