ITEM: TIMESTEP
40000
ITEM: NUMBER OF ATOMS
9495
ITEM: BOX BOUNDS mm mm mm
0.0000000000000000e+00 6.6337665952762592e+01
-3.2033918611836745e+00 3.4834764132509356e+01
-8.9217310951482958e+01 3.1748021039364001e+01
ITEM: ATOMS id type x y z c_phase c_temp c_surf c_nbond c_visc f_3[1]
1924 1 57.5512 12.0294 -88.2077 0 3.43642 2 0 4.53999e-06 -0.420505
1561 1 58.5851 12.1721 -88.354 0 3.5115 2 0 4.53999e-06 0.236395
2454 1 56.2873 13.4244 -88.1527 0 3.36188 2 0 4.53999e-06 -0.903119
2453 1 56.0341 13.4632 -89.2141 0 3.32641 2 0 4.53999e-06 -0.757497
2149 1 56.851 12.6803 -88.7699 0 3.3847 2 0 4.53999e-06 -0.532238
2101 1 57.2576 13.095 -88.0055 0 3.42578 2 0 4.53999e-06 -0.783034
1920 1 57.0303 13.6309 -88.9833 0 3.38672 2 0 4.53999e-06 -0.21166
1560 1 57.8931 12.7046 -89.0197 0 3.44559 2 0 4.53999e-06 0.0806124
1143 1 57.9144 13.6363 -88.5882 0 3.46531 2 0 4.53999e-06 0.0571486
1469 1 57.7823 13.735 -87.6154 0 3.46682 1 0 4.53999e-06 -0.967848
1196 1 58.7638 13.2636 -88.6395 0 3.56508 2 0 4.53999e-06 0.275551
900 1 58.3966 12.9676 -87.7348 0 3.52396 1 0 4.53999e-06 -0.253611
3628 1 59.4383 12.8139 -88.1342 0 3.66943 2 0 4.53999e-06 0.436721
4544 1 59.5767 13.8733 -88.5853 0 3.75812 2 0 4.53999e-06 0.459348
8451 1 58.6462 13.8811 -87.8103 0 3.55945 1 0 4.53999e-06 0.226224
4545 1 59.3441 13.4922 -87.5782 0 3.66602 1 0 4.53999e-06 0.635543
4522 1 60.3623 13.2619 -88.1473 0 4.12215 2 0 4.53999e-06 0.666971
2099 1 53.8146 15.31 -88.7706 0 2.96265 3 0 4.53999e-06 -0.956346
2100 1 56.2401 14.5948 -88.9616 0 3.32903 2 0 4.53999e-06 -0.62089
1865 1 56.9059 14.198 -88.1557 0 3.39338 2 0 4.53999e-06 -0.867408
1464 1 57.4911 14.5298 -88.8876 0 3.41413 2 0 4.53999e-06 -0.0369961
6299 1 56.9565 15.0537 -87.6111 0 3.38371 2 0 4.53999e-06 -0.530589
1142 1 57.9548 14.4843 -88.0583 0 3.46944 2 0 4.53999e-06 -0.0533367
4521 1 58.6738 14.4134 -88.9354 0 3.55153 2 0 4.53999e-06 0.228786
9332 1 58.9726 14.9157 -87.9585 0 3.59992 2 0 4.53999e-06 0.197283
4109 1 59.9848 14.5525 -87.9521 0 4.02969 2 0 4.53999e-06 0.595261
2150 1 58.2511 11.6084 -87.2925 0 3.476 2 0 4.53999e-06 -0.222774
1562 1 59.3544 11.8488 -86.6075 0 3.55209 2 0 4.53999e-06 -0.0497705
1921 1 59.103 12.2903 -87.4313 0 3.57767 2 0 4.53999e-06 0.246517
3630 1 61.2605 11.9271 -86.3081 0 3.6339 2 0 4.53999e-06 0.207876
2153 1 60.2437 12.289 -86.392 0 3.63721 2 0 4.53999e-06 0.0176423
2503 1 57.6368 12.5167 -87.3033 0 3.46171 2 0 4.53999e-06 -0.669774
2460 1 57.7503 13.3919 -86.8127 0 3.46821 2 0 4.53999e-06 -0.62775
6588 1 57.1916 13.9835 -86.1877 0 3.40681 2 0 4.53999e-06 -0.581454
2105 1 58.482 12.6277 -86.7622 0 3.52469 2 0 4.53999e-06 -0.475437
3632 1 58.622 13.5786 -86.839 0 3.54265 1 0 4.53999e-06 -0.441815
1149 1 59.3913 13.1511 -86.8351 0 3.62883 1 0 4.53999e-06 0.0871951
2551 1 59.1194 12.5871 -86.002 0 3.54686 2 0 4.53999e-06 -0.54697
2457 1 59.2656 13.5577 -86.0822 0 3.57313 1 0 4.53999e-06 -0.3727
6032 1 58.2404 14.078 -86.184 0 3.48326 2 0 4.53999e-06 -0.322978
1201 1 60.0515 12.7889 -87.2548 0 3.76815 2 0 4.53999e-06 0.490183
9333 1 60.243 13.42 -86.4637 0 3.71243 1 0 4.53999e-06 0.745231
4113 1 61.0231 12.9261 -87.2357 0 4.09175 2 0 4.53999e-06 0.66641
4130 1 60.3425 13.8234 -87.3507 0 3.99177 2 0 4.53999e-06 0.783985
4114 1 61.1463 13.8264 -86.6641 0 4.03502 2 0 4.53999e-06 0.682397
903 1 61.0717 12.889 -86.279 0 3.87152 2 0 4.53999e-06 0.533919
8992 1 62.1066 12.7834 -86.2521 0 3.9561 2 0 4.53999e-06 0.629732
7200 1 56.102 14.7877 -86.7293 0 3.30569 2 0 4.53999e-06 -0.887609
1870 1 57.0513 14.1058 -87.1914 0 3.40973 2 0 4.53999e-06 -0.908463
1465 1 57.5348 14.8442 -86.6439 0 3.41819 2 0 4.53999e-06 -0.223697
6028 1 57.9913 15.2129 -87.4905 0 3.45302 2 0 4.53999e-06 0.00522747
906 1 58.4051 14.459 -87.0898 0 3.51257 1 0 4.53999e-06 -0.0394059
8452 1 59.1617 14.4908 -86.2984 0 3.57125 2 0 4.53999e-06 -0.0492953
9330 1 59.4128 14.2433 -87.1468 0 3.65735 1 0 4.53999e-06 0.339996
9219 1 59.685 15.1792 -87.0913 0 3.67146 2 0 4.53999e-06 0.268573
9222 1 60.2438 14.4257 -86.5367 0 3.70683 2 0 4.53999e-06 0.490229
2151 1 59.963 11.7706 -85.5268 0 3.50321 2 0 4.53999e-06 -0.527273
952 1 61.0052 11.4174 -85.3444 0 3.48174 2 0 4.53999e-06 -0.256199
2547 1 60.4939 11.7721 -84.4288 0 3.41053 2 0 4.53999e-06 -0.61844
4587 1 62.6207 11.4371 -85.138 0 3.49331 2 0 4.53999e-06 0.319301
3522 1 61.8259 12.0261 -85.439 0 3.56448 2 0 4.53999e-06 0.188046
1922 1 61.801 11.6802 -84.5573 0 3.46144 2 0 4.53999e-06 -0.56247
1148 1 62.5566 12.0938 -84.4415 0 3.50615 1 0 4.53999e-06 0.0851595
1008 1 62.0038 10.7727 -84.3143 0 3.36847 2 0 4.53999e-06 -0.375349
4548 1 63.4428 12.0619 -84.6651 0 3.7307 2 0 4.53999e-06 0.597219
6967 1 58.6437 13.9213 -85.0728 0 3.4386 2 0 4.53999e-06 -0.432803
2104 1 59.8681 12.8162 -85.4377 0 3.55402 2 0 4.53999e-06 -0.577926
3629 1 60.6208 13.3341 -85.6192 0 3.628 2 0 4.53999e-06 -0.19207
6973 1 60.0941 13.5497 -84.6837 0 3.49817 2 0 4.53999e-06 -0.332734
1928 1 60.9007 12.4745 -85.5008 0 3.58436 1 0 4.53999e-06 -0.699248
7556 1 61.1956 13.3804 -84.7683 0 3.53662 2 0 4.53999e-06 -0.407908
7563 1 59.9517 14.0233 -85.6548 0 3.58928 2 0 4.53999e-06 0.0134656
3631 1 61.7554 12.884 -85.3887 0 3.61787 1 0 4.53999e-06 0.390338
9329 1 61.5009 13.6 -85.7451 0 3.68024 2 0 4.53999e-06 0.32167
1866 1 61.3954 12.4478 -84.7333 0 3.51305 1 0 4.53999e-06 -0.791004
4125 1 62.6401 12.5006 -85.2796 0 3.77265 2 0 4.53999e-06 0.641558
1466 1 62.1697 12.9024 -84.6244 0 3.54288 1 0 4.53999e-06 -0.0434135
8449 1 62.2226 13.8646 -84.8279 0 3.56804 2 0 4.53999e-06 0.177866
9428 1 62.8684 13.5386 -85.6485 0 4.03171 2 0 4.53999e-06 0.644344
9334 1 63.1049 12.9907 -84.5709 0 3.74179 2 0 4.53999e-06 0.549612
9218 1 64.0944 12.843 -84.3646 0 3.82835 2 0 4.53999e-06 0.602888
1195 1 62.4957 10.6609 -83.3242 0 3.33303 2 0 4.53999e-06 -0.427396
1199 1 62.2906 11.675 -83.4831 0 3.40167 2 0 4.53999e-06 -0.726897
3519 1 62.9195 11.3177 -84.1069 0 3.44167 2 0 4.53999e-06 0.0991175
4325 1 63.5659 10.8101 -83.3341 0 3.40931 2 0 4.53999e-06 0.0722378
4520 1 63.8457 11.5927 -83.8643 0 3.51426 1 0 4.53999e-06 0.450392
954 1 63.2494 11.6753 -83.2187 0 3.43016 1 0 4.53999e-06 -0.508263
8448 1 64.1271 11.6806 -82.9293 0 3.48885 1 0 4.53999e-06 0.422737
1869 1 63.2151 12.2507 -83.8274 0 3.49083 1 0 4.53999e-06 0.451934
7204 1 63.6856 12.3197 -82.8699 0 3.44486 1 0 4.53999e-06 -0.360432
4417 1 64.29 10.8754 -82.5773 0 3.46015 2 0 4.53999e-06 0.0776953
7555 1 64.6549 12.3523 -82.7216 0 3.53867 1 0 4.53999e-06 0.785936
3870 1 64.8335 11.4703 -83.9715 0 3.95045 2 0 4.53999e-06 0.593626
4519 1 65.058 11.534 -82.8659 0 3.79506 2 0 4.53999e-06 0.733772
3213 1 65.886 12.2001 -82.5041 0 4.01028 2 0 4.53999e-06 0.906502
7205 1 61.8785 12.394 -83.9092 0 3.44635 2 0 4.53999e-06 -0.785747
6298 1 61.8441 13.444 -83.8492 0 3.43832 2 0 4.53999e-06 -0.403292
6608 1 62.6314 12.8184 -83.8274 0 3.47469 1 0 4.53999e-06 -0.264799
7203 1 62.8568 12.4096 -83.0849 0 3.41157 1 0 4.53999e-06 -0.751077
6604 1 62.0274 12.9344 -82.8154 0 3.33418 2 0 4.53999e-06 -0.71847
9220 1 64.0589 12.3746 -83.5643 0 3.53615 1 0 4.53999e-06 0.69402
7557 1 63.4581 13.2768 -83.5932 0 3.48197 2 0 4.53999e-06 0.127641
9171 1 64.3312 13.1702 -83.1021 0 3.50185 2 0 4.53999e-06 0.410384
6027 1 63.221 13.1299 -82.5941 0 3.36887 2 0 4.53999e-06 -0.312734
8739 1 65.087 12.4588 -83.6347 0 3.92186 2 0 4.53999e-06 0.787764
7202 1 62.9564 12.2632 -82.0144 0 3.33018 2 0 4.53999e-06 -0.827747
1976 1 63.3443 11.2888 -82.3633 0 3.38353 2 0 4.53999e-06 -0.61007
955 1 64.0908 11.257 -81.5241 0 3.39391 1 0 4.53999e-06 -0.672984
2553 1 63.9172 11.98 -82.1018 0 3.41577 1 0 4.53999e-06 -0.771146
2656 1 64.1396 11.8224 -80.8238 0 3.36543 1 0 4.53999e-06 -0.99375
6304 1 64.5481 12.2909 -81.3946 0 3.43109 1 0 4.53999e-06 -0.0975315
4518 1 64.7063 11.7488 -82.0029 0 3.49139 1 0 4.53999e-06 0.767348
4588 1 64.7926 10.7005 -81.7912 0 3.44747 2 0 4.53999e-06 0.153129
4227 1 65.7525 11.1649 -82.178 0 3.90998 2 0 4.53999e-06 0.78378
902 1 65.326 12.1312 -81.3015 0 3.51589 1 0 4.53999e-06 0.784075
4546 1 66.0156 11.679 -80.9861 0 3.75782 2 0 4.53999e-06 0.947809
3520 1 65.242 11.3082 -81.3531 0 3.49009 1 0 4.53999e-06 0.640143
7474 1 63.1167 13.2627 -81.4708 0 3.23328 2 0 4.53999e-06 -0.475585
6030 1 64.0735 12.8404 -82.1553 0 3.41359 2 0 4.53999e-06 0.0620544
6908 1 63.7477 12.4971 -81.2958 0 3.34205 2 0 4.53999e-06 -0.711224
9221 1 65.1069 12.7444 -82.0122 0 3.68885 2 0 4.53999e-06 0.540617
1253 1 64.2494 10.4106 -80.6978 0 3.30763 2 0 4.53999e-06 -0.38404
2598 1 64.135 11.3371 -80.1177 0 3.33417 1 0 4.53999e-06 -0.83536
7152 1 64.1179 11.9063 -79.3793 0 3.31973 1 0 4.53999e-06 -0.999144
6970 1 64.5022 12.221 -80.0167 0 3.36238 1 0 4.53999e-06 -0.710156
2599 1 64.7828 11.4798 -79.6886 0 3.36564 1 0 4.53999e-06 -0.405625
1010 1 64.7991 11.1271 -80.6837 0 3.39108 1 0 4.53999e-06 -0.0241785
2552 1 64.9736 11.8465 -80.393 0 3.41233 1 0 4.53999e-06 0.260351
4420 1 65.2077 10.908 -79.7115 0 3.3785 1 0 4.53999e-06 0.260719
901 1 65.6278 11.4135 -80.236 0 3.45343 1 0 4.53999e-06 0.767238
3873 1 66.1242 12.0517 -79.8471 0 3.67453 2 0 4.53999e-06 0.981592
4547 1 65.811 11.4971 -79.243 0 3.44657 1 0 4.53999e-06 0.877461
6301 1 64.9161 12.2927 -79.1654 0 3.37304 1 0 4.53999e-06 -0.14698
4516 1 65.3525 12.2561 -79.8689 0 3.43118 1 0 4.53999e-06 0.633102
7373 1 63.4559 12.5032 -80.1885 0 3.25031 2 0 4.53999e-06 -0.919237
6297 1 64.3245 12.7237 -79.3497 0 3.31993 2 0 4.53999e-06 -0.537908
8944 1 65.7744 12.562 -80.6212 0 3.69877 2 0 4.53999e-06 0.684846
8547 1 64.8354 12.7305 -80.6394 0 3.41755 1 0 4.53999e-06 -0.0317179
9122 1 65.2394 13.0521 -79.5529 0 3.39534 2 0 4.53999e-06 0.186657
3425 1 64.3896 11.207 -79.0121 0 3.32686 1 0 4.53999e-06 -0.675033
6905 1 64.232 11.6807 -77.7396 0 3.30237 1 0 4.53999e-06 -0.914903
7376 1 64.5033 11.8399 -78.5798 0 3.33646 1 0 4.53999e-06 -0.960603
6450 1 63.7846 12.2472 -78.543 0 3.27157 2 0 4.53999e-06 -0.966584
1926 1 65.1521 11.482 -78.9644 0 3.38811 1 0 4.53999e-06 0.2929
8546 1 65.6528 12.316 -79.0629 0 3.44289 1 0 4.53999e-06 0.781472
1255 1 64.8742 11.2682 -78.1235 0 3.36434 1 0 4.53999e-06 -0.255195
6590 1 65.0244 11.9797 -77.9014 0 3.37815 1 0 4.53999e-06 -0.0836117
4630 1 65.1058 10.7085 -78.7908 0 3.35736 2 0 4.53999e-06 0.0318479
4591 1 65.6976 11.0725 -78.1471 0 3.61246 2 0 4.53999e-06 0.534982
6972 1 65.49 11.8962 -78.4143 0 3.43334 1 0 4.53999e-06 0.969615
8989 1 66.3345 11.6852 -78.3234 0 3.73295 2 0 4.53999e-06 0.968992
6245 1 64.6399 12.5716 -78.4327 0 3.33962 1 0 4.53999e-06 -0.405087
6240 1 64.2004 12.559 -77.6046 0 3.28513 2 0 4.53999e-06 -0.75077
9168 1 66.1884 12.5595 -78.3896 0 3.71386 2 0 4.53999e-06 0.818014
7662 1 65.362 12.7216 -78.2057 0 3.41541 1 0 4.53999e-06 0.249846
4229 1 64.3145 10.9979 -77.0154 0 3.26904 2 0 4.53999e-06 -0.386835
7374 1 64.4708 11.96 -76.9158 0 3.3067 1 0 4.53999e-06 -0.993627
1685 1 63.7808 11.4108 -76.2785 0 3.23632 2 0 4.53999e-06 -0.706826
6907 1 63.9933 12.2233 -76.1466 0 3.26248 2 0 4.53999e-06 -0.772307
1923 1 65.1213 11.3493 -77.2127 0 3.36823 1 0 4.53999e-06 0.274117
9331 1 65.9072 11.6795 -77.4175 0 3.63882 2 0 4.53999e-06 0.818724
3521 1 64.7301 11.5943 -76.1993 0 3.32353 2 0 4.53999e-06 0.398628
8447 1 65.3741 11.9991 -76.6158 0 3.50066 2 0 4.53999e-06 0.878118
3872 1 66.006 12.257 -75.8732 0 3.77078 2 0 4.53999e-06 0.89706
9429 1 64.4484 12.8536 -76.6191 0 3.2795 2 0 4.53999e-06 -0.354496
6605 1 65.0337 12.4662 -77.3063 0 3.36822 1 0 4.53999e-06 0.0820358
9169 1 65.8939 12.5502 -77.4324 0 3.64938 2 0 4.53999e-06 0.772056
7554 1 64.98 12.5111 -75.8603 0 3.4482 2 0 4.53999e-06 0.529235
9123 1 65.4201 12.9066 -76.5895 0 3.3716 2 0 4.53999e-06 0.459725
2452 1 62.7106 11.3634 -74.9568 0 3.16319 2 0 4.53999e-06 -0.706705
1566 1 62.8706 12.1667 -74.6342 0 3.20184 2 0 4.53999e-06 -0.864125
4326 1 64.3264 11.117 -75.5484 0 3.2799 2 0 4.53999e-06 0.191188
1569 1 63.6711 11.6446 -75.3094 0 3.24852 2 0 4.53999e-06 -0.554664
1563 1 64.3993 12.0342 -75.4278 0 3.44201 2 0 4.53999e-06 0.774673
6513 1 63.1077 12.2169 -75.6164 0 3.19383 2 0 4.53999e-06 -0.770102
1259 1 63.5848 10.9768 -74.7293 0 3.2128 2 0 4.53999e-06 -0.0321133
4331 1 64.4456 11.5242 -74.6816 0 3.50923 2 0 4.53999e-06 0.612913
1198 1 63.5893 11.8197 -74.3582 0 3.25054 2 0 4.53999e-06 0.372967
4515 1 65.2656 11.6329 -75.4112 0 3.61111 2 0 4.53999e-06 0.779434
6031 1 62.2292 12.7102 -74.2336 0 3.17405 2 0 4.53999e-06 -0.615815
7559 1 64.1093 12.9186 -75.566 0 3.24498 2 0 4.53999e-06 -0.044604
2548 1 63.6642 12.377 -75.0191 0 3.25351 2 0 4.53999e-06 -0.139305
9224 1 64.2507 12.4457 -74.4553 0 3.49879 2 0 4.53999e-06 0.588753
8945 1 63.2496 12.9956 -74.4082 0 3.20789 2 0 4.53999e-06 0.149461
2201 1 62.0498 11.8305 -73.9426 0 3.16419 2 0 4.53999e-06 -0.749658
4330 1 62.8919 11.4583 -73.9271 0 3.19097 2 0 4.53999e-06 -0.012002
4419 1 61.5143 12.0234 -72.7867 0 3.14807 2 0 4.53999e-06 -0.16023
4228 1 62.5028 11.7711 -72.9415 0 3.20863 2 0 4.53999e-06 0.400991
2154 1 60.7496 12.4398 -72.576 0 3.06466 2 0 4.53999e-06 -0.47124
6243 1 60.9333 13.3662 -72.427 0 3.08054 2 0 4.53999e-06 -0.298327
6303 1 62.9275 12.3635 -73.7334 0 3.37919 2 0 4.53999e-06 0.765135
8600 1 62.427 13.3188 -73.5339 0 3.18821 2 0 4.53999e-06 0.195899
9223 1 61.4442 12.9391 -73.0276 0 3.152 2 0 4.53999e-06 -0.451753
1567 1 62.0985 12.4801 -73.305 0 3.19753 2 0 4.53999e-06 -0.46533
3876 1 62.0075 13.647 -72.6071 0 3.17769 2 0 4.53999e-06 0.311747
4549 1 62.6322 12.7776 -72.7877 0 3.42338 2 0 4.53999e-06 0.855214
1688 1 59.9392 12.0883 -72.2122 0 2.92458 2 0 4.53999e-06 -0.594762
1011 1 60.7937 11.7211 -71.9994 0 3.02561 2 0 4.53999e-06 0.0629702
1313 1 59.8603 11.718 -71.2156 0 2.84547 2 0 4.53999e-06 -0.163487
1257 1 60.3032 12.2715 -71.5121 0 2.95066 2 0 4.53999e-06 -0.0974642
4328 1 61.5694 12.1289 -71.8593 0 3.3131 2 0 4.53999e-06 0.616995
6237 1 58.0607 12.9452 -70.8834 0 2.6265 2 0 4.54e-06 -0.63857
7151 1 58.8829 12.8139 -70.7606 0 2.7026 2 0 4.53999e-06 -0.533872
6242 1 59.1034 13.6578 -70.7836 0 2.69316 2 0 4.53999e-06 -0.0973481
2202 1 59.4962 12.443 -71.3116 0 2.82175 2 0 4.53999e-06 -0.676493
7377 1 60.0248 12.958 -72.0302 0 2.94142 2 0 4.53999e-06 -0.592116
1467 1 60.9806 12.7621 -71.9468 0 3.16967 2 0 4.53999e-06 0.467469
7472 1 59.7413 13.0208 -70.9977 0 2.8199 2 0 4.53999e-06 -0.0558357
7558 1 60.5172 13.2154 -71.4046 0 2.96781 2 0 4.53999e-06 0.161895
4232 1 60.9577 12.4375 -71.2485 0 3.1771 2 0 4.53999e-06 0.681148
4551 1 61.8611 12.71 -72.3776 0 3.3343 2 0 4.53999e-06 0.868249
3641 1 61.5626 13.2034 -71.7404 0 3.30525 2 0 4.53999e-06 0.540119
1681 1 58.2385 12.0093 -70.6781 0 2.6327 2 0 4.54e-06 -0.521699
3422 1 59.2081 12.026 -70.5724 0 2.73277 2 0 4.53999e-06 -0.170069
4631 1 59.338 12.2555 -69.5214 0 2.66941 2 0 4.54e-06 0.406912
1684 1 58.0733 11.9663 -69.5958 0 2.61571 2 0 4.54e-06 -0.30394
3966 1 60.1417 12.0078 -70.4543 0 2.83083 2 0 4.53999e-06 0.460458
7150 1 56.8665 13.2194 -69.7149 0 2.66505 2 0 4.54e-06 -0.732111
2655 1 57.4536 12.6358 -69.2106 0 2.67187 2 0 4.54e-06 -0.486586
9172 1 57.7393 13.4736 -69.3741 0 2.65554 2 0 4.54e-06 -0.23776
7475 1 57.8755 12.8083 -70.0141 0 2.63015 2 0 4.54e-06 -0.943825
9126 1 58.2997 13.5576 -70.2334 0 2.63236 2 0 4.54e-06 -0.36891
4416 1 59.594 12.7009 -70.2819 0 2.88742 2 0 4.53999e-06 0.590375
2208 1 58.6547 12.4551 -70.0243 0 2.65893 2 0 4.54e-06 -0.205602
7657 1 59.0715 13.2025 -69.9338 0 2.67672 2 0 4.54e-06 0.389017
956 1 58.4532 12.8097 -69.2282 0 2.6359 2 0 4.54e-06 0.20074
8943 1 58.6439 13.7139 -69.3743 0 2.62357 2 0 4.54e-06 0.232336
904 1 60.3965 12.7649 -70.6804 0 3.03909 2 0 4.53999e-06 0.695373
9120 1 59.963 13.6424 -70.2565 0 2.74676 2 0 4.53999e-06 0.493493
6509 1 54.0666 13.7077 -67.9319 0 2.70562 2 0 4.53999e-06 -0.649186
2597 1 53.6553 13.2515 -67.4032 0 2.67383 2 0 4.54e-06 -0.818867
2205 1 54.5191 13.1444 -67.7428 0 2.7267 2 0 4.53999e-06 -0.219437
6305 1 54.7061 13.8537 -67.6431 0 2.74572 2 0 4.53999e-06 0.197077
6968 1 54.8521 13.6104 -68.3074 0 2.75542 2 0 4.53999e-06 -0.109275
8544 1 55.6481 13.6286 -68.5112 0 2.79567 2 0 4.53999e-06 0.221308
7553 1 56.2899 12.9928 -68.6853 0 2.78058 2 0 4.53999e-06 -0.0266947
1929 1 55.2733 12.8894 -68.0867 0 2.76959 2 0 4.53999e-06 0.110614
9227 1 55.4096 13.4731 -67.5914 0 2.9145 2 0 4.53999e-06 0.950881
1056 1 56.1143 12.5881 -67.8076 0 2.78948 2 0 4.53999e-06 0.434316
4590 1 56.2031 13.5185 -67.8942 0 3.02074 2 0 4.53999e-06 0.858731
3640 1 57.2222 13.1305 -68.4305 0 3.02022 2 0 4.53999e-06 0.536453
8898 1 56.706 13.7978 -68.8643 0 2.76225 2 0 4.53999e-06 0.105144
8686 1 54.5022 14.5122 -68.1968 0 2.72311 2 0 4.53999e-06 -0.190881
8595 1 55.3711 14.2014 -67.8553 0 2.94739 2 0 4.53999e-06 0.572238
6591 1 52.9318 13.37 -66.4359 0 2.64196 2 0 4.54e-06 -0.956942
6455 1 51.5077 13.8394 -65.8052 0 2.78367 2 0 4.53999e-06 -0.504916
1258 1 53.6963 12.9404 -66.5611 0 2.65597 2 0 4.54e-06 -0.412272
1683 1 54.225 12.6043 -67.1797 0 2.68262 2 0 4.54e-06 -0.144143
953 1 54.2263 13.4349 -67.0967 0 2.70185 2 0 4.53999e-06 -0.619452
3922 1 54.484 13.2141 -66.5044 0 2.69049 2 0 4.54e-06 0.384422
1197 1 53.6066 13.7583 -66.7765 0 2.66515 2 0 4.54e-06 -0.875216
3643 1 54.3003 14.0224 -66.5877 0 2.68986 2 0 4.54e-06 0.153315
1565 1 53.8387 13.5529 -65.9379 0 2.65066 2 0 4.54e-06 0.138759
4633 1 54.957 13.014 -67.2029 0 2.81046 2 0 4.53999e-06 0.508545
4121 1 54.9673 13.7181 -66.967 0 2.8658 2 0 4.53999e-06 0.688137
7658 1 53.9424 14.1809 -67.3509 0 2.69262 2 0 4.54e-06 -0.595774
3281 1 54.6951 14.3887 -67.2383 0 2.73275 2 0 4.53999e-06 0.216178
6512 1 53.1819 14.1934 -66.0819 0 2.64515 2 0 4.54e-06 -0.381998
8543 1 51.107 13.6018 -64.7614 0 3.08122 2 0 4.53999e-06 -0.16949
2652 1 50.3358 13.6171 -64.0371 0 3.15561 2 0 4.53999e-06 -0.233722
3523 1 52.9741 13.2195 -65.4601 0 2.70117 2 0 4.53999e-06 -0.112851
9170 1 52.3588 13.9982 -65.2641 0 2.82309 2 0 4.53999e-06 0.393412
3874 1 52.0765 13.4972 -64.3416 0 3.40162 2 0 4.53999e-06 0.800593
6694 1 50.54 14.3963 -64.4058 0 3.10916 2 0 4.53999e-06 -0.261517
8838 1 51.6006 14.3836 -64.5501 0 3.05598 2 0 4.53999e-06 0.47801
2199 1 49.1913 13.4562 -63.1686 0 3.0694 2 0 4.53999e-06 -0.676522
1260 1 48.7518 13.5248 -62.4112 0 3.01507 2 0 4.53999e-06 -0.888828
1261 1 49.7345 13.5669 -62.7852 0 3.11428 2 0 4.53999e-06 -0.118743
1256 1 49.4746 12.9819 -62.3945 0 3.05701 2 0 4.53999e-06 -0.137786
6302 1 49.2379 13.9863 -62.4749 0 3.0664 2 0 4.53999e-06 -0.944716
2449 1 50.0505 13.0047 -63.2972 0 3.12967 2 0 4.53999e-06 0.0472254
2152 1 49.9087 13.8209 -63.4137 0 3.13879 2 0 4.53999e-06 -0.298134
4124 1 50.6136 13.654 -63.2496 0 3.31975 2 0 4.53999e-06 0.899601
4593 1 51.1608 13.2935 -63.8421 0 3.41116 2 0 4.53999e-06 0.601747
4225 1 50.3655 13.4696 -62.5699 0 3.29079 2 0 4.53999e-06 0.702313
6974 1 49.3636 14.2457 -63.1716 0 3.08769 2 0 4.53999e-06 -0.588211
7149 1 48.7453 14.6143 -62.5333 0 3.00668 2 0 4.53999e-06 -0.694797
6906 1 49.7231 14.6472 -62.6502 0 3.11296 2 0 4.53999e-06 -0.0202134
7656 1 50.1802 14.4776 -63.4643 0 3.15204 2 0 4.53999e-06 0.0466804
8946 1 51.0445 14.1815 -63.7183 0 3.36081 2 0 4.53999e-06 0.823614
8897 1 50.6369 14.3151 -62.8357 0 3.3408 2 0 4.53999e-06 0.803125
9226 1 50.0435 14.1139 -62.5064 0 3.2524 2 0 4.53999e-06 0.638018
6452 1 46.7233 13.5196 -60.9545 0 2.88336 3 0 4.53999e-06 -0.62731
4418 1 49.044 13.4489 -61.5891 0 2.98793 2 0 4.53999e-06 -0.297836
4424 1 49.7853 13.6562 -61.9828 0 3.09119 2 0 4.53999e-06 0.332228
6606 1 48.3249 14.1435 -61.7602 0 2.9373 2 0 4.53999e-06 -0.912863
8497 1 49.3863 14.3194 -61.8745 0 3.05571 2 0 4.53999e-06 -0.101519
8270 1 48.9463 14.164 -60.9057 0 2.90814 2 0 4.53999e-06 -0.138913
8317 1 50.4137 14.5574 -61.7336 0 3.43894 2 0 4.53999e-06 0.562603
6508 1 46.5495 13.8972 -59.2073 0 3.15946 2 0 4.53999e-06 -0.0598978
2456 1 45.7748 13.4905 -58.3316 0 3.13106 2 0 4.53999e-06 -0.39324
2458 1 45.7089 13.3609 -57.4046 0 3.11824 2 0 4.53999e-06 -0.234959
8263 1 46.166 13.9179 -57.6359 0 3.23439 2 0 4.53999e-06 0.496659
6241 1 45.428 13.9939 -57.6772 0 3.11228 2 0 4.53999e-06 -0.682298
8450 1 47.6998 13.8165 -58.9498 0 3.6455 2 0 4.53999e-06 0.87486
8444 1 46.6595 13.6946 -58.2821 0 3.35042 2 0 4.53999e-06 0.540508
2600 1 46.4392 13.219 -57.5972 0 3.16881 2 0 4.53999e-06 0.447989
1691 1 47.0458 13.9485 -57.5034 0 3.41396 2 0 4.53999e-06 0.991091
9128 1 46.0457 14.4286 -58.3658 0 3.18014 2 0 4.53999e-06 -0.269066
8314 1 45.8433 14.5287 -57.4624 0 3.14604 2 0 4.53999e-06 -0.12706
8500 1 47.0169 14.4839 -58.3921 0 3.49424 2 0 4.53999e-06 0.645262
3217 1 46.6609 14.7943 -57.5644 0 3.3947 2 0 4.53999e-06 0.488812
6185 1 44.682 13.5328 -57.1836 0 3.03359 2 0 4.53999e-06 -0.871887
9427 1 45.123 13.1985 -56.4667 0 3.04456 2 0 4.53999e-06 -0.493959
4415 1 45.8258 13.4567 -56.7255 0 3.10682 2 0 4.53999e-06 0.240568
8738 1 45.4205 13.8285 -57.0214 0 3.09356 1 0 4.53999e-06 -0.926751
2212 1 45.8543 13.2799 -55.8736 0 3.06431 2 0 4.53999e-06 0.392819
3967 1 46.0283 14.0107 -56.3073 0 3.22206 2 0 4.53999e-06 0.65184
8990 1 45.2681 13.909 -56.345 0 3.05998 2 0 4.53999e-06 -0.699689
4324 1 46.5217 13.4747 -56.826 0 3.29779 2 0 4.53999e-06 0.781149
7660 1 44.5803 14.1075 -56.0794 0 3.00343 2 0 4.53999e-06 -0.929572
3220 1 44.9243 14.4188 -56.9751 0 3.05013 2 0 4.53999e-06 -0.764098
8316 1 45.7011 14.324 -56.8127 0 3.10466 1 0 4.53999e-06 0.0344788
4116 1 45.5123 14.1139 -55.6342 0 3.04488 2 0 4.53999e-06 0.202282
3207 1 45.3497 14.8042 -56.2067 0 3.03466 2 0 4.53999e-06 -0.108093
3970 1 46.3007 14.1028 -57.0467 0 3.16501 1 0 4.53999e-06 0.834511
1973 1 45.8195 13.6348 -54.5154 0 3.40895 2 0 4.53999e-06 0.799547
8442 1 44.9827 13.4447 -55.4503 0 3.01268 2 0 4.53999e-06 -0.51076
3692 1 44.8418 14.4396 -54.7717 0 2.99884 2 0 4.53999e-06 -0.49052
5920 1 44.8019 13.6554 -53.9174 0 3.04596 2 0 4.53999e-06 -0.409684
6458 1 44.9379 13.3619 -52.8225 0 3.06306 2 0 4.53999e-06 0.22509
8213 1 44.4635 14.0879 -52.4257 0 3.14518 2 0 4.53999e-06 -0.162482
7653 1 44.2885 14.4043 -53.2288 0 3.09575 2 0 4.53999e-06 -0.543086
3212 1 43.9698 15.2686 -52.7458 0 3.07498 2 0 4.53999e-06 -0.413469
4333 1 45.2774 14.4046 -53.3392 0 3.42502 2 0 4.53999e-06 0.807301
4231 1 44.8059 14.8928 -52.4132 0 3.36094 2 0 4.53999e-06 0.522318
5917 1 43.9951 13.8617 -51.7098 0 3.11241 2 0 4.53999e-06 -0.470824
6182 1 43.5369 13.6433 -50.6054 0 3.06094 2 0 4.53999e-06 -0.579792
6033 1 44.3688 13.7779 -50.992 0 3.13789 2 0 4.53999e-06 0.153986
8269 1 43.727 14.5872 -52.1201 0 3.10228 2 0 4.53999e-06 -0.862594
9125 1 43.8351 14.4324 -51.177 0 3.12501 1 0 4.53999e-06 -0.889638
8102 1 43.6031 15.1936 -51.0602 0 3.1089 2 0 4.53999e-06 -0.726515
9225 1 44.5938 14.3631 -51.6408 0 3.29959 2 0 4.53999e-06 0.655342
8684 1 44.2253 15.0916 -51.6814 0 3.15356 2 0 4.53999e-06 -0.19085
3514 1 44.5423 14.7791 -50.8436 0 3.18586 1 0 4.53999e-06 0.843879
3740 1 44.4253 15.5448 -50.9296 0 3.1715 2 0 4.53999e-06 0.177132
2022 1 45.3496 14.1236 -52.1142 0 3.42211 2 0 4.53999e-06 0.939828
1789 1 45.1003 14.185 -51.0131 0 3.36636 2 0 4.53999e-06 0.896842
1013 1 45.0604 14.9924 -51.4559 0 3.37754 2 0 4.53999e-06 0.829107
6515 1 44.4389 13.998 -50.2556 0 3.14982 2 0 4.53999e-06 0.421045
7106 1 44.4619 13.829 -49.3174 0 3.11753 2 0 4.53999e-06 0.411189
7661 1 43.679 14.0837 -49.7565 0 3.10617 2 0 4.53999e-06 -0.572222
8267 1 43.25 14.5657 -50.4451 0 3.0846 2 0 4.53999e-06 -0.99921
8948 1 43.9806 14.5678 -50.4418 0 3.14254 1 0 4.53999e-06 -0.940194
3920 1 43.8528 15.3199 -50.2118 0 3.14287 2 0 4.53999e-06 -0.409813
8315 1 43.3479 14.8631 -49.5531 0 3.10722 2 0 4.53999e-06 -0.909358
1974 1 44.0885 15.2343 -49.3189 0 3.17312 2 0 4.53999e-06 0.109654
8596 1 44.3084 14.6449 -49.7648 0 3.29193 2 0 4.53999e-06 0.557002
4014 1 44.7321 15.4347 -50.063 0 3.39057 2 0 4.53999e-06 0.575195
1057 1 45.0369 14.6167 -50.2092 0 3.37145 2 0 4.53999e-06 0.942569
8264 1 43.0571 14.9962 -47.5609 0 3.08353 2 0 4.53999e-06 -0.905465
8268 1 43.5811 14.2637 -48.7667 0 3.11485 2 0 4.53999e-06 -0.524959
3423 1 43.4873 15.2183 -48.5422 0 3.12067 2 0 4.53999e-06 -0.540193
2102 1 44.4751 14.6236 -48.7741 0 3.38666 2 0 4.53999e-06 0.7159
4321 1 43.9975 14.7686 -47.7957 0 3.42414 2 0 4.53999e-06 0.907811
5918 1 43.6581 14.0686 -46.0059 0 3.05013 2 0 4.53999e-06 0.239836
3642 1 42.99 15.1925 -46.3568 0 3.0525 2 0 4.53999e-06 -0.547213
2994 1 42.2117 14.7326 -45.917 0 2.97005 2 0 4.53999e-06 -0.898358
4230 1 43.4694 14.5084 -46.8351 0 3.08818 2 0 4.53999e-06 0.0171387
4673 1 43.7182 15.4952 -46.9519 0 3.18928 2 0 4.53999e-06 0.387843
9425 1 43.2078 14.6816 -45.7608 0 3.05203 2 0 4.53999e-06 -0.353461
4634 1 43.3069 15.4252 -45.5982 0 3.05778 2 0 4.53999e-06 0.0464556
1925 1 43.9197 14.9704 -46.1546 0 3.26419 2 0 4.53999e-06 0.827188
8101 1 42.7737 14.972 -45.1783 0 3.01882 1 0 4.53999e-06 -0.947149
8837 1 42.9444 14.744 -44.4503 0 3.01186 1 0 4.53999e-06 -0.67785
3923 1 42.8044 15.4532 -44.6064 0 3.00879 1 0 4.53999e-06 -0.88744
8056 1 42.512 15.1695 -43.8966 0 2.98229 2 0 4.53999e-06 -0.950437
3738 1 42.5381 15.7104 -45.4799 0 2.99978 2 0 4.53999e-06 -0.689907
6188 1 43.1755 14.2198 -45.1002 0 3.0249 2 0 4.53999e-06 -0.265415
909 1 43.5422 14.9426 -45.0177 0 3.05895 1 0 4.53999e-06 0.877761
6689 1 44.0851 14.4256 -45.2944 0 3.24015 2 0 4.53999e-06 0.801046
1687 1 44.0557 15.3001 -45.375 0 3.24253 2 0 4.53999e-06 0.872897
8899 1 43.673 14.5436 -44.4555 0 3.04043 2 0 4.53999e-06 0.483768
3517 1 43.548 15.0543 -43.9611 0 3.0301 1 0 4.53999e-06 0.761348
3793 1 44.0596 15.2758 -44.4884 0 3.20347 2 0 4.53999e-06 0.955812
3921 1 43.3824 15.6459 -44.1141 0 3.0228 1 0 4.53999e-06 0.310582
3737 1 43.4389 15.7449 -44.8876 0 3.05403 1 0 4.53999e-06 0.320132
9326 1 43.0365 15.3622 -43.2111 0 2.99927 2 0 4.53999e-06 -0.682843
3218 1 42.8506 15.4693 -42.3264 0 2.9733 2 0 4.53999e-06 -0.794569
9426 1 43.1254 14.6533 -43.6303 0 2.99885 2 0 4.53999e-06 -0.395169
6687 1 44.0529 14.3522 -43.5567 0 3.13408 2 0 4.53999e-06 0.643821
2555 1 43.9331 15.3378 -43.3607 0 3.19014 2 0 4.53999e-06 0.906744
8743 1 43.4902 14.7683 -42.8276 0 3.00622 2 0 4.53999e-06 0.206256
3969 1 43.776 15.4527 -42.3431 0 3.22575 2 0 4.53999e-06 0.719457
5809 1 42.9911 14.5451 -42.053 0 2.94561 2 0 4.53999e-06 -0.677908
4233 1 43.3367 15.1953 -41.4485 0 3.01002 2 0 4.53999e-06 -0.556311
6244 1 43.9322 14.598 -41.8086 0 3.20535 2 0 4.53999e-06 0.794102
8839 1 43.2079 14.3477 -40.9947 0 2.93392 2 0 4.53999e-06 -0.413534
4332 1 44.0582 14.9705 -40.8414 0 3.24275 2 0 4.53999e-06 0.957744
4131 1 43.4125 15.7598 -40.7441 0 3.00845 2 0 4.53999e-06 -0.195872
7375 1 43.057 13.8007 -39.9136 0 2.84872 2 0 4.53999e-06 -0.365056
8597 1 43.0121 15.0915 -40.3529 0 2.96714 2 0 4.53999e-06 -0.929407
8900 1 42.9622 14.6659 -39.5034 0 2.93356 2 0 4.53999e-06 -0.956366
8265 1 43.0693 15.5467 -39.4133 0 2.96248 2 0 4.53999e-06 -0.601641
1868 1 43.6246 14.5782 -40.1545 0 2.98798 2 0 4.53999e-06 0.441533
3789 1 44.1046 15.6858 -40.1843 0 3.29683 2 0 4.53999e-06 0.683149
4589 1 43.7556 15.2071 -39.6527 0 3.1751 2 0 4.53999e-06 0.698995
1930 1 43.7624 14.3317 -39.3232 0 3.13631 2 0 4.53999e-06 0.558167
4017 1 44.262 15.0107 -39.0513 0 3.22142 2 0 4.53999e-06 0.987928
5815 1 42.8401 13.5796 -37.8365 0 2.70625 2 0 4.53999e-06 -0.511497
6181 1 42.3451 12.9795 -37.2068 0 2.51916 2 0 4.54e-06 -0.612714
6037 1 43.2115 14.0345 -38.6589 0 2.87399 2 0 4.53999e-06 -0.334577
8645 1 42.9475 14.5418 -37.9202 0 2.83631 2 0 4.53999e-06 -0.989462
8322 1 42.8541 15.3683 -38.3347 0 2.88187 2 0 4.53999e-06 -0.796034
3209 1 43.0327 15.6688 -37.4161 0 2.8388 2 0 4.53999e-06 -0.486705
1568 1 43.7088 14.0981 -37.6493 0 2.8928 2 0 4.53999e-06 0.546108
3871 1 43.3147 14.845 -38.7725 0 2.94512 2 0 4.53999e-06 -0.982975
3691 1 43.7035 15.5431 -38.6369 0 2.9859 2 0 4.53999e-06 0.361312
4414 1 44.0129 14.4726 -38.3867 0 3.11378 2 0 4.53999e-06 0.913374
4592 1 43.6556 15.0079 -37.7952 0 3.03602 2 0 4.53999e-06 0.664492
7473 1 42.5381 13.142 -35.903 0 2.55808 2 0 4.54e-06 -0.676832
9173 1 42.7724 13.8235 -36.5693 0 2.66884 2 0 4.54e-06 -0.909239
1146 1 43.436 13.4431 -36.0973 0 2.70581 2 0 4.53999e-06 -0.0571409
1012 1 44.1234 13.7689 -36.5853 0 2.9304 2 0 4.53999e-06 0.578448
1309 1 44.3087 13.3721 -35.7349 0 2.91717 2 0 4.53999e-06 0.567022
8545 1 43.4136 14.0248 -36.8813 0 2.76594 1 0 4.53999e-06 -0.237439
8216 1 42.8836 14.3511 -35.92 0 2.70018 1 0 4.53999e-06 -0.975751
9424 1 43.1816 14.7637 -37.0475 0 2.8075 1 0 4.53999e-06 -0.87347
8058 1 43.2147 15.246 -36.2642 0 2.78673 2 0 4.53999e-06 -0.570146
3690 1 43.9205 15.4926 -36.9721 0 2.94343 2 0 4.53999e-06 0.429278
1927 1 44.2228 14.2797 -35.7502 0 2.83268 1 0 4.53999e-06 0.974911
8445 1 43.9375 14.6423 -36.7856 0 2.84324 1 0 4.53999e-06 0.74833
4517 1 43.8077 15.0794 -35.5814 0 2.82359 1 0 4.53999e-06 0.0597258
3924 1 44.379 15.0311 -36.1475 0 3.0445 2 0 4.53999e-06 0.741256
9179 1 43.5997 14.3909 -36.0886 0 2.77812 1 0 4.53999e-06 -0.525798
3335 1 44.7935 14.3493 -36.6523 0 3.11162 2 0 4.53999e-06 0.933239
5813 1 42.1795 13.4994 -33.9469 0 2.43221 2 0 4.54002e-06 -0.897162
8845 1 42.6011 13.9355 -35.1444 0 2.59763 2 0 4.54e-06 -0.996016
6463 1 42.6898 12.7276 -33.9036 0 2.41285 2 0 4.54003e-06 0.0624016
6587 1 43.2419 13.3382 -35.0864 0 2.62767 2 0 4.54e-06 -0.209407
8552 1 43.1546 13.4503 -34.1342 0 2.54545 1 0 4.54e-06 0.00550214
2550 1 43.5785 13.9268 -35.399 0 2.73078 1 0 4.53999e-06 -0.130599
4677 1 44.6131 13.951 -35.0257 0 3.01007 2 0 4.53999e-06 0.879322
1698 1 43.9797 13.6646 -34.5408 0 2.72748 1 0 4.53999e-06 0.44788
8266 1 42.6107 14.2094 -33.8039 0 2.52392 1 0 4.54e-06 -0.925453
8646 1 43.1025 14.846 -33.7985 0 2.63624 1 0 4.54e-06 -0.867889
905 1 43.7501 14.1079 -33.8489 0 2.65371 1 0 4.54e-06 0.425177
9325 1 43.2065 14.25 -34.5236 0 2.65103 1 0 4.54e-06 -0.983936
8745 1 43.1243 14.7671 -35.2061 0 2.72264 1 0 4.53999e-06 -0.847187
8746 1 43.3108 15.5661 -34.0713 0 2.7367 2 0 4.53999e-06 -0.741325
3971 1 44.6598 14.8178 -35.1245 0 3.0809 2 0 4.53999e-06 0.960494
3516 1 43.8333 14.4959 -34.9536 0 2.77607 1 0 4.53999e-06 0.586563
3639 1 44.2941 15.5531 -34.9059 0 3.06178 2 0 4.53999e-06 0.495796
3515 1 44.5135 14.4827 -34.1952 0 2.82991 1 0 4.53999e-06 0.981019
8441 1 44.0178 15.1852 -34.1806 0 2.80535 1 0 4.53999e-06 0.47115