ITEM: TIMESTEP
16500
ITEM: NUMBER OF ATOMS
9495
ITEM: BOX BOUNDS mm mm mm
0.0000000000000000e+00 3.1748021039364001e+01
0.0000000000000000e+00 3.1748021039364001e+01
-7.4072398406925706e-04 3.1748021039364001e+01
ITEM: ATOMS id type x y z c_phase c_temp c_surf c_nbond c_visc f_3[1]
1 1 0.116341 1.10259 0.464337 4 1.61878e-09 2 0 0.0994487 -0.68194
2 1 0.974108 1.6685 0.77798 4 4.83677e-09 2 0 0.0994487 -0.51703
3 1 0.714648 0.793562 1.41295 4 2.41691e-09 2 0 0.0994487 -0.281793
4 1 0.00336375 1.60273 1.37437 4 1.99305e-09 2 0 0.0994487 -0.804051
5 1 0.729896 0.0633724 0.61602 4 1.44992e-09 3 0 0.0994487 -0.190374
6 1 1.71015 0.808983 1.0155 4 7.08153e-09 2 0 0.0994487 -0.332066
7 1 1.80059 1.47468 0.221075 4 8.70356e-09 2 0 0.0994487 -0.125828
8 1 1.82015 1.66049 1.76126 4 1.04629e-08 2 0 0.0994487 -0.139532
9 1 2.52093 0.749102 0.203812 4 1.28492e-08 2 0 0.0994487 -0.142938
10 1 2.59149 0.0538711 1.03726 4 1.15928e-08 2 0 0.0994487 -0.295003
11 1 2.64922 1.541 0.882848 4 2.35391e-08 2 0 0.0994487 0.235768
12 1 2.66829 0.815502 1.7457 4 1.65511e-08 2 0 0.0994487 -0.187039
13 1 3.43386 0.933692 0.956349 4 4.05847e-08 2 0 0.0994487 0.320253
14 1 3.49924 0.0925696 1.70571 4 2.41715e-08 2 0 0.0994487 0.178055
15 1 3.60652 1.70798 1.71994 4 6.4644e-08 2 0 0.0994487 0.0487983
16 1 4.10576 0.858321 0.325305 4 7.46928e-08 2 0 0.0994487 0.15315
17 1 4.96159 0.56786 1.17466 4 1.75592e-07 2 0 0.0994487 -0.0370608
18 1 4.91949 1.59987 0.383508 4 2.54568e-07 2 0 0.0994487 -0.100242
19 1 4.3472 0.941527 1.62884 4 9.96484e-08 2 0 0.0994487 0.110743
20 1 3.47612 0.111428 0.171027 4 2.20046e-08 2 0 0.0994487 0.166217
21 1 5.64741 0.645627 0.325839 4 3.38087e-07 2 0 0.0994487 -0.0806005
22 1 5.88414 1.31048 0.938036 4 5.67998e-07 2 0 0.0994487 -0.199545
23 1 6.57478 1.39104 0.218369 4 1.06659e-06 2 0 0.0994487 -0.0861272
24 1 5.78374 0.460658 1.69897 4 3.33686e-07 2 0 0.0994487 -0.0846478
25 1 5.03122 1.72414 1.43602 4 2.89193e-07 2 0 0.0994487 0.0453792
26 1 6.7138 0.39031 0.865278 4 8.29126e-07 2 0 0.0994487 -0.0793759
27 1 6.69104 1.00962 1.69374 4 9.3914e-07 2 0 0.0994487 -0.107917
28 1 8.2679 0.408875 1.07337 4 2.9282e-06 2 0 0.0994487 -0.100158
29 1 7.36782 1.22285 0.954198 4 2.0144e-06 2 0 0.0994487 -0.302512
30 1 8.24709 1.39092 0.236779 4 4.27436e-06 2 0 0.0994487 -0.0460555
31 1 8.12868 1.27217 1.60653 4 3.58685e-06 2 0 0.0994487 -0.00810851
32 1 7.58247 0.647807 0.140287 4 1.81013e-06 2 0 0.0994487 -0.110931
33 1 8.85849 0.508506 0.273966 4 4.6178e-06 2 0 0.0994487 -0.0616396
34 1 9.55301 0.3386 0.888639 4 7.55681e-06 2 0 0.0994487 0.00507418
35 1 9.02586 1.30716 1.1133 4 7.82968e-06 2 0 0.0994487 -0.0606138
37 1 9.63995 1.37474 0.0900752 4 1.10064e-05 2 0 0.0994487 0.0992985
38 1 11.2128 0.215893 0.632658 4 2.44943e-05 2 0 0.0994487 0.203517
39 1 10.3637 1.04743 0.823114 4 1.83734e-05 2 0 0.0994487 0.539914
40 1 10.523 0.196295 1.44539 4 1.44828e-05 2 0 0.0994487 0.064437
41 1 11.2856 1.01846 1.41785 4 3.8536e-05 2 0 0.0994487 0.164728
42 1 10.5797 1.67706 1.72992 4 2.98413e-05 2 0 0.0994487 0.118175
43 1 10.2431 0.367861 0.0780499 4 1.02556e-05 2 0 0.0994487 0.149807
44 1 12.8757 0.211714 0.636805 4 8.39815e-05 2 0 0.0994487 0.0588023
45 1 12.0457 1.07408 0.506655 4 7.12844e-05 2 0 0.0994487 -0.0235328
46 1 12.1319 0.316439 1.29957 4 5.41445e-05 2 0 0.0994487 0.0188535
47 1 12.7194 1.19864 1.3723 4 0.000120834 2 0 0.0994487 -0.0304991
48 1 14.3729 0.318493 0.764646 4 0.000224707 2 0 0.0994487 -0.0460229
49 1 13.5924 1.113 0.843618 4 0.00020945 2 0 0.0994487 -0.263005
50 1 14.0399 1.55958 0.167469 4 0.000325325 2 0 0.0994487 -0.08981
51 1 13.6075 0.359834 1.6352 4 0.000138615 2 0 0.0994487 -0.0562494
52 1 14.3777 1.14948 1.47647 4 0.000305254 2 0 0.0994487 -0.0178043
53 1 14.8761 1.55337 0.662943 4 0.000495492 2 0 0.0994487 0.389997
54 1 15.7061 0.770636 0.788259 4 0.000535842 2 0 0.0994487 0.366518
55 1 16.5532 1.54451 0.681338 4 0.00126615 2 0 0.0994487 0.000859718
56 1 15.1422 0.4642 1.64149 4 0.000328575 2 0 0.0994487 0.152093
57 1 16.547 0.712289 1.3421 4 0.000866 2 0 0.0994487 0.0956631
58 1 15.6341 1.48544 1.3916 4 0.00073498 2 0 0.0994487 0.153671
59 1 15.1049 0.711806 0.0677822 4 0.000325037 2 0 0.0994487 0.169214
60 1 17.2544 0.732268 0.547589 4 0.00118014 2 0 0.0994487 0.0286598
61 1 17.9231 1.58109 0.757246 4 0.00232912 2 0 0.0994487 0.0416217
62 1 17.916 0.742935 1.42801 4 0.00162151 2 0 0.0994487 -0.224335
63 1 17.2202 1.74884 1.56274 4 0.00197659 2 0 0.0994487 -0.0984439
64 1 19.5372 0.0167772 0.662766 4 0.0017841 2 0 0.0994487 0.0436619
65 1 18.7918 0.725074 0.684829 4 0.00202937 2 0 0.0994487 -0.269911
66 1 19.5395 1.55488 0.841653 4 0.00373364 2 0 0.0994487 -0.341088
67 1 19.0276 0.158607 1.54508 4 0.00172406 2 0 0.0994487 -0.158647
68 1 19.5934 0.967491 1.68957 4 0.00272524 2 0 0.0994487 0.00838294
69 1 18.6564 1.51302 1.50035 4 0.00289419 2 0 0.0994487 -0.25025
70 1 21.0889 0.349843 1.06749 4 0.00281576 2 0 0.0994487 -0.196093
71 1 20.2493 0.776373 0.980057 4 0.00293971 2 0 0.0994487 -0.0496929
72 1 21.1062 1.65725 0.951506 4 0.00506098 2 0 0.0994487 0.693078
73 1 21.1874 0.765598 0.218806 4 0.00315659 2 0 0.0994487 -0.0445653
74 1 20.3457 1.51479 0.193617 4 0.00414007 2 0 0.0994487 -0.080574
75 1 22.0087 0.262534 0.539755 4 0.00286272 2 0 0.0994487 0.0993864
76 1 22.7913 0.430275 1.40734 4 0.00318968 2 0 0.0994487 0.206641
77 1 22.1105 1.14763 1.32981 4 0.00414941 2 0 0.0994487 0.24011
78 1 21.9982 1.59955 0.538558 4 0.00537771 2 0 0.0994487 0.185227
79 1 22.9157 1.07463 0.445168 4 0.00415143 2 0 0.0994487 0.0521296
80 1 24.228 0.380179 1.45209 4 0.00315729 2 0 0.0994487 0.0576449
81 1 23.5672 0.357563 0.57369 4 0.00317333 2 0 0.0994487 0.0386047
82 1 24.4367 1.18687 0.754729 4 0.00453047 2 0 0.0994487 -0.0192197
83 1 23.4757 1.2499 1.4028 4 0.004835 2 0 0.0994487 0.0299386
84 1 24.955 0.315686 0.551996 4 0.00281315 2 0 0.0994487 -0.0171713
85 1 26.0085 0.383365 1.1715 4 0.00232682 2 0 0.0994487 -0.185837
86 1 25.169 1.12579 1.48087 4 0.00403994 2 0 0.0994487 0.0251381
87 1 25.9301 1.73476 1.35794 4 0.00481553 2 0 0.0994487 0.0345744
88 1 25.8917 0.929212 0.432102 4 0.00297248 2 0 0.0994487 -0.0953941
89 1 27.5736 1.28032 0.38906 4 0.00203237 2 0 0.0994487 0.0454643
90 1 27.6142 0.50928 0.874321 4 0.00150357 2 0 0.0994487 0.175405
91 1 26.7559 1.02809 1.26347 4 0.00240702 2 0 0.0994487 -0.236846
92 1 28.3748 0.337482 1.39813 4 0.00102905 2 0 0.0994487 0.00985587
93 1 26.7925 0.240345 0.226621 4 0.00165241 2 0 0.0994487 0.0380851
94 1 28.6489 1.24263 0.742341 4 0.00136154 2 0 0.0994487 0.102423
95 1 29.3912 0.945639 1.56878 4 0.000829613 2 0 0.0994487 -0.0191941
96 1 28.5228 1.71921 1.49749 4 0.00173321 2 0 0.0994487 -0.0429654
97 1 29.8133 0.173958 1.46124 4 0.000525883 2 0 0.0994487 0.133419
98 1 29.2734 0.3547 0.615275 4 0.000682621 2 0 0.0994487 -0.0816764
99 1 31.5874 0.266128 1.25663 4 0.000229503 3 0 0.0994487 0.830097
100 1 30.7016 0.49015 0.470738 4 0.000402923 2 0 0.0994487 0.354853
101 1 30.1009 1.19877 0.774133 4 0.000707457 2 0 0.0994487 0.210928
102 1 30.8649 0.971942 1.39386 4 0.000476159 2 0 0.0994487 0.703283
103 1 1.11081 2.43607 0.129285 4 6.40063e-09 2 0 0.0994487 -0.0373214
104 1 0.133403 2.3821 0.812241 4 3.39381e-09 2 0 0.0994487 -0.984517
105 1 1.28845 3.23764 0.949187 4 1.39922e-08 2 0 0.0994487 0.222103
106 1 1.13977 2.36077 1.59162 4 7.84389e-09 2 0 0.0994487 -0.222188
107 1 0.386685 3.02999 1.54944 4 5.62617e-09 2 0 0.0994487 -0.671256
108 1 0.332248 3.09582 0.131296 4 4.79348e-09 2 0 0.0994487 -0.59134
109 1 1.90972 2.41867 0.78376 4 1.6776e-08 2 0 0.0994487 0.0782145
110 1 2.65852 3.28029 0.860875 4 6.02083e-08 2 0 0.0994487 0.0668104
111 1 2.66931 2.22918 1.53373 4 3.33312e-08 2 0 0.0994487 0.0829584
112 1 3.2579 3.42668 1.64938 4 1.15285e-07 2 0 0.0994487 0.00397893
113 1 2.7261 2.38168 0.0557193 4 2.91447e-08 2 0 0.0994487 0.146602
114 1 3.38195 2.55413 0.779289 4 8.38462e-08 2 0 0.0994487 0.21159
115 1 4.00679 1.841 0.711184 4 1.14975e-07 2 0 0.0994487 -0.0361154
116 1 4.91383 2.57277 0.815661 4 4.13997e-07 2 0 0.0994487 -0.259336
117 1 4.20148 3.3175 0.749446 4 2.9586e-07 2 0 0.0994487 0.0062224
118 1 4.13245 2.64107 1.58328 4 1.88193e-07 2 0 0.0994487 0.0270828
119 1 5.65047 2.44269 0.132743 4 7.30997e-07 2 0 0.0994487 -0.189921
120 1 6.55776 2.18062 0.772597 4 1.56003e-06 2 0 0.0994487 -0.28933
121 1 5.64874 3.19593 0.952489 4 1.12527e-06 2 0 0.0994487 -0.754606
122 1 5.861 2.19426 1.49672 4 7.94143e-07 2 0 0.0994487 0.0126423
123 1 6.52037 3.06691 1.5557 4 2.25201e-06 2 0 0.0994487 0.0443645
124 1 6.65033 2.92778 0.134227 4 2.09854e-06 2 0 0.0994487 0.0288925
125 1 7.45405 2.22586 0.139832 4 3.33475e-06 2 0 0.0994487 -0.053495
126 1 8.08209 2.20208 0.930382 4 5.97552e-06 2 0 0.0994487 -0.30201
127 1 7.40132 3.06835 0.934051 4 5.22529e-06 2 0 0.0994487 -0.0454381
128 1 7.29928 2.06035 1.56856 4 2.71156e-06 2 0 0.0994487 -0.0607256
129 1 8.18545 3.00183 1.65211 4 9.45469e-06 2 0 0.0994487 -0.0454084
130 1 8.26934 2.9712 0.0392146 4 9.85322e-06 2 0 0.0994487 -0.150611
131 1 8.90393 2.08699 0.252387 4 1.00771e-05 2 0 0.0994487 0.0024434
132 1 9.77243 2.0246 1.10996 4 2.02079e-05 2 0 0.0994487 0.173507
133 1 8.92671 2.97262 0.928693 4 1.80349e-05 2 0 0.0994487 -0.156685
134 1 9.03062 2.22066 1.70398 4 1.23768e-05 2 0 0.0994487 -0.0819598
135 1 9.56096 2.90576 0.21312 4 2.55737e-05 2 0 0.0994487 0.173129
136 1 10.2834 2.1137 0.214297 4 2.59442e-05 2 0 0.0994487 0.337747
137 1 11.1583 1.82604 0.771092 4 5.27902e-05 2 0 0.0994487 0.260118
138 1 10.6214 2.80819 0.921535 4 6.14631e-05 2 0 0.0994487 0.541956
139 1 11.4444 2.82964 1.57484 4 0.000116856 2 0 0.0994487 0.0952182
140 1 12.6737 1.94118 0.593851 4 0.000181849 2 0 0.0994487 -0.283905
141 1 11.928 2.64099 0.742299 4 0.000152201 2 0 0.0994487 -0.0386451
142 1 11.9239 1.9206 1.46509 4 9.92225e-05 2 0 0.0994487 0.0946772
143 1 12.8449 3.01766 1.68597 4 0.000334916 2 0 0.0994487 0.0363742
144 1 13.1791 3.03035 0.848852 4 0.000444149 2 0 0.0994487 -0.440799
145 1 13.3784 1.9912 1.48064 4 0.000273349 2 0 0.0994487 -0.0150502
146 1 14.0206 2.44438 0.927124 4 0.00053217 2 0 0.0994487 -0.132988
147 1 14.0279 3.38359 1.55716 4 0.000876019 2 0 0.0994487 0.025596
148 1 14.6961 3.43698 0.884932 4 0.00136193 2 0 0.0994487 -0.332756
149 1 14.7823 2.29758 1.44821 4 0.000732999 2 0 0.0994487 0.0469512
150 1 14.8418 2.51505 0.136557 4 0.000825975 2 0 0.0994487 0.173024
151 1 14.1591 3.2262 0.0325348 4 0.000863267 2 0 0.0994487 -0.246092
152 1 13.4137 2.29398 0.0590902 4 0.000337229 2 0 0.0994487 -0.280949
153 1 15.6993 2.44373 0.692668 4 0.00131671 2 0 0.0994487 0.364456
154 1 16.3029 3.20095 0.662084 4 0.00269414 2 0 0.0994487 0.328646
155 1 16.308 2.47951 1.52575 4 0.00191636 2 0 0.0994487 -0.100609
156 1 15.3694 3.25723 1.50191 4 0.00178698 2 0 0.0994487 -0.00764069
157 1 15.5706 3.25854 0.0192499 4 0.00167579 2 0 0.0994487 0.290254
158 1 17.0646 2.35032 0.682778 4 0.00250353 2 0 0.0994487 0.023531
159 1 17.944 2.92608 0.699539 4 0.00519873 2 0 0.0994487 -0.231132
160 1 18.0193 2.43917 1.58112 4 0.00398016 2 0 0.0994487 -0.149085
161 1 17.0918 3.1162 1.49491 4 0.00400461 2 0 0.0994487 -0.14338
162 1 18.8908 2.35742 1.01358 4 0.00501909 2 0 0.0994487 -0.516698
163 1 19.7027 3.2427 1.27782 4 0.0100282 2 0 0.0994487 0.394979
164 1 18.884 2.99607 0.196019 4 0.00705313 2 0 0.0994487 -0.171777
165 1 19.587 2.34239 0.101452 4 0.00573572 2 0 0.0994487 -0.132343
166 1 20.3251 1.78863 1.72442 4 0.00459393 2 0 0.0994487 0.044996
167 1 21.1565 2.41663 0.458355 4 0.00818437 2 0 0.0994487 0.196241
168 1 20.1948 2.46882 1.11433 4 0.00696997 2 0 0.0994487 0.286971
169 1 21.31 3.29463 1.39314 4 0.0154929 2 0 0.0994487 0.0778054
170 1 20.4222 2.99313 0.334941 4 0.00992152 2 0 0.0994487 0.186338
171 1 22.8719 2.07007 1.50872 4 0.00807611 2 0 0.0994487 -0.0220678
172 1 22.9717 2.60199 0.735523 4 0.0123059 2 0 0.0994487 0.133423
173 1 22.0961 2.49917 1.23787 4 0.0103896 2 0 0.0994487 0.186561
174 1 21.9898 3.20043 0.598797 4 0.0168093 2 0 0.0994487 -0.0756516
175 1 22.6771 3.40124 0.07601 4 0.0198417 2 0 0.0994487 0.0761037
176 1 23.7438 1.80844 0.624025 4 0.00669264 2 0 0.0994487 -0.0872995
177 1 24.4289 1.98763 1.61102 4 0.00735604 2 0 0.0994487 -0.0641404
178 1 24.342 2.68296 0.775192 4 0.0117793 2 0 0.0994487 -0.341013
179 1 23.6887 2.90303 1.53628 4 0.0143484 2 0 0.0994487 -0.11045
180 1 24.4728 3.51078 1.55704 4 0.0208252 2 0 0.0994487 -0.118284
181 1 24.9562 2.84566 0.0146836 4 0.0110499 2 0 0.0994487 -0.0864436
182 1 26.5483 1.79415 0.511367 4 0.00398319 2 0 0.0994487 -0.00557509
183 1 25.1322 1.85613 0.509414 4 0.00618113 2 0 0.0994487 -0.0214937
184 1 25.7918 2.61203 0.707489 4 0.00885195 2 0 0.0994487 0.228251
185 1 25.1579 2.55548 1.52547 4 0.00973396 2 0 0.0994487 0.0577007
186 1 25.7213 3.49812 1.51211 4 0.0165159 2 0 0.0994487 0.123884
187 1 26.5364 2.56002 1.53049 4 0.0066257 2 0 0.0994487 0.0579692
188 1 26.1686 3.50068 0.599043 4 0.0143683 2 0 0.0994487 0.168877
189 1 27.5039 1.98546 1.23792 4 0.00309044 2 0 0.0994487 -0.18638
190 1 28.2489 2.09022 0.343734 4 0.0023713 2 0 0.0994487 -0.0177138
191 1 27.0867 2.6924 0.645359 4 0.00577159 2 0 0.0994487 -0.105572
192 1 27.1998 3.35397 1.41682 4 0.00833663 2 0 0.0994487 -0.098308
193 1 28.2537 2.75799 1.20639 4 0.00349863 2 0 0.0994487 -0.418282
194 1 27.982 3.21993 0.326384 4 0.00502471 2 0 0.0994487 -0.125249
195 1 29.9568 1.80906 1.70764 4 0.000975634 2 0 0.0994487 0.183205
196 1 29.4477 2.04702 0.879698 4 0.0014112 2 0 0.0994487 -0.00705969
197 1 29.1956 2.6589 0.290703 4 0.00206404 2 0 0.0994487 -0.0578224
198 1 29.2495 3.2651 1.17365 4 0.00285315 2 0 0.0994487 0.118648
199 1 30.9114 1.98502 0.924207 4 0.000799503 2 0 0.0994487 0.967255
200 1 30.1815 2.71094 1.00186 4 0.00140471 2 0 0.0994487 0.675152
201 1 31.0247 3.35309 0.97101 4 0.00140364 2 0 0.0994487 0.99841
202 1 30.9865 2.69483 1.72648 4 0.00103288 2 0 0.0994487 0.578504
203 1 30.1092 3.25953 0.132205 4 0.00169718 2 0 0.0994487 -0.0443635
204 1 30.4116 1.90909 0.0255368 4 0.000823092 2 0 0.0994487 0.106047
205 1 31.1434 2.66402 0.0761253 4 0.000916975 2 0 0.0994487 0.708821
206 1 0.293831 3.78503 0.918557 4 7.55968e-09 2 0 0.0994487 -0.999347
207 1 0.143046 4.59443 0.482118 4 9.02793e-09 2 0 0.0994487 -0.784494
208 1 1.14036 4.67093 0.986638 4 2.4385e-08 2 0 0.0994487 -0.516748
209 1 0.0884667 5.26681 1.27761 4 1.1398e-08 2 0 0.0994487 -0.887458
210 1 1.04069 3.86421 0.0595682 4 1.28681e-08 2 0 0.0994487 0.0148886
211 1 1.84117 4.04604 0.847105 4 3.86926e-08 2 0 0.0994487 0.00827643
212 1 2.54049 4.85585 1.13748 4 1.14062e-07 2 0 0.0994487 -0.333841
213 1 2.64953 4.14475 0.20674 4 9.11291e-08 2 0 0.0994487 -0.0285702
214 1 1.89758 4.96895 0.278386 4 6.07527e-08 2 0 0.0994487 -0.153432
215 1 3.40771 4.86189 0.161635 4 2.67781e-07 2 0 0.0994487 -0.0163854
216 1 3.494 4.07675 0.885909 4 2.13315e-07 2 0 0.0994487 0.0269054
217 1 4.91235 4.00001 1.18344 4 8.38972e-07 2 0 0.0994487 0.0115338
218 1 4.04658 4.88002 1.14639 4 5.34239e-07 2 0 0.0994487 0.264498
219 1 4.26027 4.18509 0.149001 4 4.5245e-07 2 0 0.0994487 0.0377412
220 1 5.00947 4.74001 0.341082 4 1.24635e-06 2 0 0.0994487 0.0765453
221 1 5.77735 3.9378 0.198707 4 1.56732e-06 2 0 0.0994487 0.0260198
222 1 6.48883 3.76611 0.772067 4 3.12679e-06 2 0 0.0994487 0.204568
223 1 5.68025 4.73638 1.02487 4 2.51112e-06 2 0 0.0994487 -0.621626
224 1 6.66321 4.5115 1.6428 4 5.09795e-06 2 0 0.0994487 0.15894
225 1 6.68072 5.1315 0.885352 4 7.55454e-06 2 0 0.0994487 0.206884
226 1 8.1982 3.892 0.700757 4 1.64985e-05 2 0 0.0994487 -0.369882
227 1 7.40842 4.46072 0.5468 4 1.06163e-05 2 0 0.0994487 -0.0252025
228 1 7.39886 3.87029 1.49684 4 7.56478e-06 2 0 0.0994487 0.102587
229 1 8.20004 4.61106 1.48677 4 2.28871e-05 2 0 0.0994487 -0.0118272
230 1 9.8976 3.57792 0.885667 4 5.4387e-05 2 0 0.0994487 0.592895
231 1 9.07913 4.56551 0.821335 4 4.6968e-05 2 0 0.0994487 -0.658509
232 1 9.86266 4.50302 0.126324 4 7.24332e-05 2 0 0.0994487 0.0958736
233 1 9.07829 3.76256 1.49819 4 3.1373e-05 2 0 0.0994487 -0.0708756
234 1 9.86881 4.3462 1.65532 4 7.90191e-05 2 0 0.0994487 -0.085653
235 1 8.98541 3.86821 0.0631775 4 2.83105e-05 2 0 0.0994487 -0.138747
236 1 11.408 3.64493 0.778297 4 0.000180044 2 0 0.0994487 0.202092
237 1 10.5891 4.66652 0.906264 4 0.000161046 2 0 0.0994487 0.0451549
238 1 11.3867 4.69403 0.230734 4 0.000292608 2 0 0.0994487 -0.0498782
239 1 10.7059 3.56689 1.58785 4 0.000101873 2 0 0.0994487 -0.044835
240 1 11.3652 4.3716 1.70545 4 0.000247418 2 0 0.0994487 -0.0798141
241 1 11.3894 5.27213 0.983682 4 0.000389674 2 0 0.0994487 -0.674427
242 1 10.5826 3.84888 0.176129 4 9.66386e-05 2 0 0.0994487 0.210475
243 1 12.5168 3.57716 0.814749 4 0.000385957 2 0 0.0994487 -0.0105411
244 1 12.1916 4.55033 1.00021 4 0.000499976 2 0 0.0994487 0.105145
245 1 12.7362 4.99738 1.68903 4 0.000815688 2 0 0.0994487 0.191346
246 1 13.2258 4.67863 0.80017 4 0.00108627 2 0 0.0994487 -0.00461941
247 1 12.6435 4.61885 0.0632315 4 0.000704923 2 0 0.0994487 -0.0335678
248 1 13.9891 4.12825 0.69648 4 0.00135129 2 0 0.0994487 -0.430124
249 1 13.4832 4.21781 1.59317 4 0.000960067 2 0 0.0994487 0.0820393
250 1 14.2046 5.11838 1.52001 4 0.00244635 2 0 0.0994487 -0.028968
251 1 14.9402 5.01141 0.811699 4 0.00355798 2 0 0.0994487 -0.0521557
252 1 14.9642 4.4167 1.59432 4 0.00266631 2 0 0.0994487 -0.0635395
253 1 14.1405 4.90647 0.0597868 4 0.00207002 2 0 0.0994487 -0.0856768
254 1 14.961 4.19423 0.096508 4 0.00221669 2 0 0.0994487 0.0322911
255 1 15.6685 4.06642 0.926277 4 0.00320186 2 0 0.0994487 0.872623
256 1 15.8798 4.77595 0.186426 4 0.00496419 2 0 0.0994487 0.165417
257 1 16.5936 4.58036 0.900182 4 0.00682771 2 0 0.0994487 -0.0786926
258 1 16.3184 3.95875 1.6903 4 0.00426814 2 0 0.0994487 -0.0433646
259 1 15.8111 5.05317 1.64084 4 0.00556063 2 0 0.0994487 0.0995263
260 1 17.2689 3.83372 0.811237 4 0.00646961 2 0 0.0994487 -0.345298
261 1 18.0864 4.48855 1.09806 4 0.0122707 2 0 0.0994487 -0.611722
262 1 17.9525 3.63794 1.65602 4 0.007553 2 0 0.0994487 -0.192762
263 1 17.4569 4.57727 0.0147963 4 0.00917501 2 0 0.0994487 -0.0973833
264 1 18.1348 3.8547 0.0583493 4 0.00852141 2 0 0.0994487 -0.12049
265 1 18.8779 3.70667 0.95022 4 0.0104829 2 0 0.0994487 0.0696183
266 1 18.8235 4.60949 0.361826 4 0.0160703 2 0 0.0994487 0.115653
267 1 19.6906 4.67872 1.0803 4 0.0247919 2 0 0.0994487 0.93158
268 1 18.7859 5.27693 1.20102 4 0.0247155 2 0 0.0994487 0.599479
269 1 19.5987 3.76722 0.227421 4 0.0127986 2 0 0.0994487 0.164308
270 1 20.4384 3.82188 1.23329 4 0.0181616 2 0 0.0994487 0.326074
271 1 20.8846 4.71868 1.39403 4 0.0390148 2 0 0.0994487 0.14915
272 1 21.5775 4.95128 0.810455 4 0.0565233 2 0 0.0994487 -0.00346869
273 1 21.0824 3.93136 0.512408 4 0.0230513 2 0 0.0994487 0.0883787
274 1 20.1339 4.78559 0.352846 4 0.0303105 2 0 0.0994487 0.145638
275 1 22.8205 3.63186 1.42135 4 0.0245038 2 0 0.0994487 -0.0183343
276 1 21.9406 4.13318 1.31068 4 0.0325883 2 0 0.0994487 0.0273032
277 1 22.4705 5.17735 1.27286 4 0.0770202 2 0 0.0994487 0.0191002
278 1 22.6119 4.34705 0.510028 4 0.0403777 2 0 0.0994487 -0.0220233
279 1 23.5735 3.63903 0.782677 4 0.0255396 2 0 0.0994487 0.185697
280 1 24.336 4.32055 0.625018 4 0.0402313 2 0 0.0994487 -0.150028
281 1 23.4679 4.54946 1.33355 4 0.051331 2 0 0.0994487 -0.0820663
282 1 24.8518 5.25716 0.566763 4 0.0692811 2 0 0.0994487 0.0410335
283 1 23.5518 5.06386 0.533607 4 0.0721993 2 0 0.0994487 -0.0968153
284 1 25.0086 4.50055 1.62342 4 0.0438101 2 0 0.0994487 -0.0356557
285 1 25.0629 3.68037 0.802132 4 0.0219349 2 0 0.0994487 -0.187831
286 1 24.363 5.28843 1.43377 4 0.0936505 2 0 0.0994487 -0.174546
287 1 25.6904 5.1389 1.34266 4 0.0547302 2 0 0.0994487 0.223375
288 1 26.3575 4.29031 1.37159 4 0.0228367 2 0 0.0994487 0.149513
289 1 26.5026 4.97257 0.640732 4 0.0323836 2 0 0.0994487 0.0989924
290 1 25.5284 4.40089 0.388179 4 0.0313792 2 0 0.0994487 0.0559701
291 1 27.3302 4.86961 1.40568 4 0.0207932 2 0 0.0994487 0.00662024
292 1 27.9624 3.97641 1.10408 4 0.00848212 2 0 0.0994487 -0.309453
293 1 28.2771 4.73475 0.706344 4 0.0115109 2 0 0.0994487 -0.0812404
294 1 27.0674 4.04323 0.570038 4 0.0139127 2 0 0.0994487 0.0120402
295 1 28.9321 3.77016 0.487204 4 0.00440241 2 0 0.0994487 -0.0070299
296 1 29.0873 4.52317 1.33085 4 0.00643426 2 0 0.0994487 0.0574844
297 1 29.9979 4.07209 1.02303 4 0.00297464 2 0 0.0994487 -0.275191
298 1 31.0296 3.97382 0.373364 4 0.001805 2 0 0.0994487 0.65758
299 1 30.2046 4.67765 0.491317 4 0.00374372 2 0 0.0994487 0.00995426
300 1 30.9783 4.59929 1.41131 4 0.00250377 2 0 0.0994487 0.679907
301 1 0.908283 5.53205 0.461647 4 2.82144e-08 2 0 0.0994487 -0.463784
302 1 1.53161 5.51184 1.37971 4 5.03146e-08 2 0 0.0994487 -0.117385
303 1 0.793684 6.22023 1.2768 4 3.28622e-08 2 0 0.0994487 -0.70338
304 1 0.257003 6.91734 1.50738 4 2.48154e-08 2 0 0.0994487 -0.772633
305 1 0.969942 6.9454 0.573423 4 5.17589e-08 2 0 0.0994487 -0.473532
306 1 1.7053 7.02884 1.23811 4 1.04682e-07 2 0 0.0994487 0.0665201
307 1 1.89588 6.19966 0.519025 4 1.00276e-07 2 0 0.0994487 -0.156398
308 1 3.10475 5.61709 1.30057 4 2.73622e-07 2 0 0.0994487 0.0402561
309 1 2.26359 6.15348 1.40977 4 1.3286e-07 2 0 0.0994487 0.0408579
310 1 3.25442 6.96226 1.12748 4 5.85346e-07 2 0 0.0994487 -0.0541197
311 1 2.68177 5.61289 0.273587 4 1.77815e-07 2 0 0.0994487 -0.0596834
312 1 3.39503 6.28191 0.500536 4 5.33585e-07 2 0 0.0994487 -0.121439
313 1 4.18979 5.46246 0.325783 4 7.99546e-07 2 0 0.0994487 0.0310219
314 1 4.93434 5.42873 1.31778 4 1.81456e-06 2 0 0.0994487 -0.235094
315 1 4.13622 6.09659 1.22779 4 1.08529e-06 2 0 0.0994487 -0.0893842
316 1 4.82567 6.23357 0.333842 4 2.13802e-06 2 0 0.0994487 -0.0345713
317 1 4.77312 6.79931 1.15967 4 2.79194e-06 2 0 0.0994487 -0.305924
318 1 4.00267 7.02511 0.221759 4 1.25231e-06 2 0 0.0994487 -0.0853409
319 1 5.78575 5.42185 0.301847 4 3.58085e-06 2 0 0.0994487 0.012507
320 1 5.6935 6.24342 0.9632 4 5.13811e-06 2 0 0.0994487 -0.967772
321 1 6.4578 5.98425 1.59671 4 8.83182e-06 2 0 0.0994487 0.14092
322 1 6.43234 6.86927 1.00965 4 1.33998e-05 2 0 0.0994487 0.851683
323 1 6.37773 6.04115 0.154639 4 7.25052e-06 2 0 0.0994487 0.111116
324 1 5.54993 7.05206 0.147147 4 5.44408e-06 2 0 0.0994487 0.0363897
325 1 8.21355 5.31419 0.694273 4 3.30102e-05 2 0 0.0994487 -0.0895709
326 1 7.32761 6.15925 0.754293 4 2.15759e-05 2 0 0.0994487 0.225747
327 1 7.39163 5.41839 1.49138 4 1.60918e-05 2 0 0.0994487 0.136762
328 1 8.23884 6.11028 1.49159 4 4.84867e-05 2 0 0.0994487 0.0187464
329 1 8.01352 6.85364 0.728993 4 5.53728e-05 2 0 0.0994487 0.0691988
330 1 7.28191 6.86379 1.59601 4 2.9982e-05 2 1 0.0994487 0.126051
331 1 7.33029 5.3575 0.0461812 4 1.27716e-05 2 0 0.0994487 0.0813615
332 1 9.76796 5.3194 0.792562 4 0.000112391 2 0 0.0994487 0.328482
333 1 8.88016 6.18865 0.736908 4 8.66639e-05 2 0 0.0994487 -0.235523
334 1 9.05434 5.3271 1.5973 4 6.57389e-05 2 0 0.0994487 -0.0628228
335 1 9.73844 6.19052 1.46731 4 0.000175057 2 0 0.0994487 -0.106418
336 1 9.09351 6.95013 1.463 4 0.000154988 2 2 0.0994487 -0.0757582
337 1 9.76329 6.23201 0.0941385 4 0.000160742 2 0 0.0994487 -0.0359463
338 1 8.99733 5.46479 0.012702 4 6.02724e-05 2 0 0.0994487 -0.134749
339 1 10.5831 6.02196 0.964384 4 0.000300727 2 0 0.0994487 -0.356377
340 1 11.3128 6.37134 0.0776634 4 0.000482285 2 0 0.0994487 0.100349
341 1 10.5187 6.94145 0.15452 4 0.000372992 2 0 0.0994487 -0.0735318
342 1 10.4686 6.92564 1.49614 4 0.000430352 2 1 0.0994487 -0.0635073
343 1 11.9994 5.6274 0.183157 4 0.000631112 2 0 0.0994487 -0.0105187
344 1 12.6757 5.81849 0.861776 4 0.00121134 2 0 0.0994487 0.0818014
345 1 11.7774 6.20735 1.05291 4 0.000746357 2 0 0.0994487 0.292288
346 1 13.3219 5.86668 1.55471 4 0.00185521 2 0 0.0994487 0.208185
347 1 13.3506 6.58297 0.813679 4 0.00282031 2 0 0.0994487 -0.292076
348 1 13.3212 5.53867 0.0424813 4 0.00162208 2 0 0.0994487 -0.142897
349 1 14.0617 5.71565 0.77266 4 0.00297473 2 0 0.0994487 -0.372524
350 1 14.3278 6.65176 1.40646 4 0.00580279 2 1 0.0994487 -0.103121
351 1 14.1303 6.38483 0.0380077 4 0.00369933 2 0 0.0994487 -0.0825988
352 1 15.0282 5.64393 0.034369 4 0.0046706 2 0 0.0994487 0.0573814
353 1 15.8305 5.73813 0.95832 4 0.00836514 2 0 0.0994487 0.625899
354 1 15.0472 6.45091 0.806774 4 0.00771231 2 0 0.0994487 -0.175988
355 1 16.491 6.45257 1.1401 4 0.0174688 2 0 0.0994487 0.208404
356 1 15.1058 5.87594 1.69804 4 0.00632819 2 0 0.0994487 -0.0976431
357 1 16.62 5.41933 0.276819 4 0.00994518 2 0 0.0994487 0.0799574
358 1 15.6753 6.3382 0.0390223 4 0.00921115 2 0 0.0994487 0.0398668
359 1 17.8271 5.30128 0.541411 4 0.0160943 2 0 0.0994487 0.150378
360 1 17.113 5.42499 1.24767 4 0.0134924 2 0 0.0994487 -0.286501
361 1 17.0619 6.27419 0.411469 4 0.0193787 2 0 0.0994487 0.138987
362 1 17.6649 6.24649 1.38542 4 0.0267806 2 0 0.0994487 -0.254191
363 1 18.2745 7.0517 1.13153 4 0.0503943 2 1 0.0994487 0.631221
364 1 18.3714 6.23173 0.609762 4 0.0349667 2 0 0.0994487 0.156232
365 1 19.429 5.75829 0.62055 4 0.0428602 2 0 0.0994487 0.0572509
366 1 19.3279 6.55755 1.35081 4 0.0648165 2 1 0.0994487 0.274776
367 1 19.9942 6.75229 0.610261 4 0.0974803 2 0 0.0994487 -0.0117468
368 1 20.7494 5.77593 0.653722 4 0.0754262 2 0 0.0994487 -0.103931
369 1 20.1931 5.61076 1.39557 4 0.0547519 2 0 0.0994487 0.312125
370 1 20.7787 6.6124 1.30355 4 0.1336 2 1 0.0994487 -0.353541
371 1 21.6592 6.66248 0.666524 4 0.151587 2 0 0.0994487 -0.0441133
372 1 21.6631 5.87866 1.38528 4 0.11102 2 0 0.0994487 0.0385263
373 1 21.6904 5.73259 0.0517844 4 0.0861348 2 0 0.0994487 -0.0014531
374 1 22.6732 5.8279 0.674154 4 0.115369 2 0 0.0994487 0.0028064
375 1 22.6319 6.69333 1.20734 4 0.204091 2 0 0.0994487 -0.230746
376 1 23.3484 6.78052 0.267835 4 0.181647 2 0 0.0994487 -0.125261
377 1 23.4822 5.88496 1.30013 4 0.1458 2 0 0.0994487 -0.205815
378 1 24.3197 6.56281 1.15825 4 0.189655 2 0 0.0994487 0.177422
379 1 24.1457 6.00685 0.427617 4 0.122927 2 0 0.0994487 0.0024677
380 1 25.6831 5.86213 0.700952 4 0.0799934 2 0 0.0994487 0.164128
381 1 25.1124 6.04132 1.67733 4 0.155478 2 0 0.0994487 0.076614
382 1 25.1593 6.74159 0.495153 4 0.142939 2 0 0.0994487 0.0905207
383 1 25.8251 6.59457 1.40775 4 0.12689 2 0 0.0994487 0.140366
384 1 26.6903 5.84511 1.4763 4 0.0529718 2 0 0.0994487 0.0923168
385 1 27.4966 5.54334 0.722172 4 0.0272454 2 0 0.0994487 -0.251574
386 1 26.7485 6.36567 0.651888 4 0.0641184 2 0 0.0994487 0.0387544
387 1 27.7011 6.47315 1.36539 4 0.0404906 2 0 0.0994487 0.13147
388 1 28.3648 5.52203 1.4872 4 0.0166336 2 0 0.0994487 0.0456287
389 1 27.7097 7.0074 0.530173 4 0.0480384 2 0 0.0994487 0.0320955
390 1 29.3889 5.30889 0.818726 4 0.00851533 2 0 0.0994487 0.316758
391 1 29.4379 6.18214 1.32212 4 0.0116115 2 0 0.0994487 -0.00339118
392 1 29.5784 6.89773 0.506505 4 0.0139576 2 0 0.0994487 0.0925683
393 1 28.4685 6.20589 0.638647 4 0.0208475 2 0 0.0994487 -0.270103
394 1 29.3762 6.15398 0.0801838 4 0.0113962 2 0 0.0994487 0.0969239
395 1 28.4822 5.38976 0.0592959 4 0.0131807 2 0 0.0994487 -0.105002
396 1 30.9636 5.36838 0.595026 4 0.00388874 2 0 0.0994487 0.667858
397 1 30.2159 5.45949 1.46813 4 0.00544724 2 0 0.0994487 0.0540168
398 1 30.3958 6.18258 0.649752 4 0.00697954 2 0 0.0994487 0.328987
399 1 31.2189 6.15516 1.38439 4 0.00461222 2 0 0.0994487 0.587257
400 1 31.1994 6.95407 0.60342 4 0.00625453 2 0 0.0994487 0.812241
401 1 31.7235 5.99622 0.446564 4 0.00361284 2 0 0.0994487 0.879731
402 1 0.261851 7.63199 0.661866 4 3.41963e-08 2 0 0.0994487 -0.876373
403 1 0.831025 8.46344 0.61936 4 6.81521e-08 2 0 0.0994487 -0.577625
404 1 1.11211 7.86396 1.49711 4 7.06815e-08 2 0 0.0994487 -0.154428
405 1 0.356955 8.5626 1.47035 4 4.39789e-08 2 0 0.0994487 -0.764984
406 1 1.59266 7.76478 0.37187 4 1.20593e-07 2 0 0.0994487 -0.0897867
407 1 1.72382 8.61735 1.46471 4 1.66273e-07 2 0 0.0994487 0.0395982
408 1 2.48799 7.14986 0.476331 4 2.76622e-07 2 0 0.0994487 -0.0836932
409 1 2.19177 8.6335 0.399707 4 2.91721e-07 2 0 0.0994487 -0.137266
410 1 2.39416 7.81099 1.27726 4 2.91264e-07 2 0 0.0994487 0.0869945
411 1 3.01349 8.51445 0.935533 4 7.01879e-07 2 0 0.0994487 -0.539303
412 1 3.24418 7.77117 0.327041 4 7.31891e-07 2 0 0.0994487 -0.196202
413 1 3.81243 8.45898 0.0822892 4 1.39926e-06 2 0 0.0994487 -0.0457765
414 1 3.97971 7.67009 1.24863 4 1.54406e-06 2 0 0.0994487 -0.0554853
415 1 4.70459 8.25653 0.921772 4 3.77308e-06 2 0 0.0994487 0.295358
416 1 4.67023 7.63706 0.247803 4 2.87564e-06 2 0 0.0994487 0.0376957
417 1 3.81127 8.34851 1.76162 4 1.39011e-06 2 0 0.0994487 -0.0574343
418 1 5.86955 8.34822 0.169905 4 1.07671e-05 2 0 0.0994487 0.113108
419 1 5.48363 7.59071 1.03232 4 7.22459e-06 2 0 0.0994487 -0.467649
420 1 6.49365 7.53799 0.169175 4 1.58342e-05 2 0 0.0994487 0.187627
421 1 6.39674 8.23976 1.04384 4 2.17935e-05 2 0 0.0994487 0.338166
422 1 7.28583 7.76918 0.746313 4 4.32505e-05 2 1 0.0994487 0.00993952
423 1 8.2859 8.31376 0.868772 4 0.000128337 2 2 0.0994487 0.278774
424 1 7.27857 8.18368 1.7015 4 5.8598e-05 2 2 0.0994487 -0.174689
425 1 8.05208 7.48784 1.5604 4 8.06569e-05 2 1 0.0994487 0.185098
426 1 7.99895 7.60312 0.0282118 4 6.02249e-05 2 0 0.0994487 0.0674161
427 1 9.84313 7.22199 0.72344 4 0.000296849 2 1 0.0994487 -0.346912
428 1 8.91207 7.61626 0.661731 4 0.000161777 2 1 0.0994487 0.158714
429 1 9.73234 8.61964 0.693151 4 0.000450855 2 3 0.0994487 -0.257237
430 1 9.09265 8.69904 1.44495 4 0.000327424 2 9 0.0994487 -0.39485
431 1 9.64026 7.88932 1.60055 4 0.000397641 2 8 0.0994487 -0.340385
432 1 11.3161 7.14287 0.810636 4 0.000793992 2 1 0.0994487 0.448541
433 1 10.5731 7.9454 0.844311 4 0.00066466 2 3 0.0994487 -0.198442
434 1 10.5877 8.70196 1.4255 4 0.000932074 1 8 0.0994487 -0.146395
435 1 11.4057 7.80503 1.60301 4 0.00127582 2 7 0.0994487 0.228378
436 1 11.227 8.11851 0.0422735 4 0.000876732 2 0 0.0994487 0.174333
437 1 12.7061 7.28322 0.565784 4 0.00243477 2 0 0.0994487 -0.0531244
438 1 12.178 8.23518 0.590765 4 0.00222905 2 2 0.0994487 0.163976
439 1 12.0637 7.15788 1.37768 4 0.00150625 2 3 0.0994487 0.145748
440 1 12.0887 8.68064 1.49044 4 0.00281707 1 8 0.0994487 0.0826452
441 1 12.8601 7.99585 1.47598 4 0.00407773 2 6 0.0994487 -0.21674