ITEM: TIMESTEP
7000
ITEM: NUMBER OF ATOMS
9495
ITEM: BOX BOUNDS mm mm mm
0.0000000000000000e+00 3.1748021039364001e+01
0.0000000000000000e+00 3.1748021039364001e+01
-7.4072398406925706e-04 3.1748021039364001e+01
ITEM: ATOMS id type x y z c_phase c_temp c_surf c_nbond c_visc f_3[1]
1 1 0.116341 1.10259 0.464337 4 1.0317e-19 2 0 0.0994487 -0.68194
2 1 0.974108 1.6685 0.77798 4 1.06126e-18 2 0 0.0994487 -0.517032
3 1 0.714648 0.793562 1.41295 4 2.69457e-19 2 0 0.0994487 -0.281794
4 1 0.00336375 1.60273 1.37437 4 1.41199e-19 2 0 0.0994487 -0.804051
5 1 0.729896 0.0633724 0.61602 4 1.15494e-19 3 0 0.0994487 -0.190374
6 1 1.71015 0.808983 1.0155 4 2.31409e-18 2 0 0.0994487 -0.33207
7 1 1.80059 1.47468 0.221075 4 3.5471e-18 2 0 0.0994487 -0.125829
8 1 1.82015 1.66049 1.76126 4 4.87862e-18 2 0 0.0994487 -0.139533
9 1 2.52093 0.749102 0.203812 4 8.13683e-18 2 0 0.0994487 -0.14294
10 1 2.59149 0.0538711 1.03726 4 5.87025e-18 2 0 0.0994487 -0.295005
11 1 2.64922 1.541 0.882848 4 2.80231e-17 2 0 0.0994487 0.235751
12 1 2.66829 0.815502 1.7457 4 1.26108e-17 2 0 0.0994487 -0.187041
13 1 3.43386 0.933692 0.956349 4 8.0925e-17 2 0 0.0994487 0.320238
14 1 3.49924 0.0925696 1.70571 4 2.88168e-17 2 0 0.0994487 0.178053
15 1 3.60652 1.70798 1.71994 4 1.81105e-16 2 0 0.0994487 0.048794
16 1 4.10576 0.858321 0.325305 4 2.48063e-16 2 0 0.0994487 0.153145
17 1 4.96159 0.56786 1.17466 4 1.15157e-15 2 0 0.0994487 -0.0370689
18 1 4.91949 1.59987 0.383508 4 2.58584e-15 2 0 0.0994487 -0.10025
19 1 4.3472 0.941527 1.62884 4 4.13156e-16 2 0 0.0994487 0.110737
20 1 3.47612 0.111428 0.171027 4 2.44486e-17 2 0 0.0994487 0.166215
21 1 5.64741 0.645627 0.325839 4 4.13241e-15 2 0 0.0994487 -0.0806061
22 1 5.88414 1.31048 0.938036 4 1.35776e-14 2 0 0.0994487 -0.199596
23 1 6.57478 1.39104 0.218369 4 4.60951e-14 2 0 0.0994487 -0.0861352
24 1 5.78374 0.460658 1.69897 4 3.95169e-15 2 0 0.0994487 -0.0846538
25 1 5.03122 1.72414 1.43602 4 3.46098e-15 2 0 0.0994487 0.0453699
26 1 6.7138 0.39031 0.865278 4 2.51291e-14 2 0 0.0994487 -0.0793834
27 1 6.69104 1.00962 1.69374 4 3.57824e-14 2 0 0.0994487 -0.107925
28 1 8.2679 0.408875 1.07337 4 3.64259e-13 2 0 0.0994487 -0.100169
29 1 7.36782 1.22285 0.954198 4 1.82677e-13 2 0 0.0994487 -0.302562
30 1 8.24709 1.39092 0.236779 4 8.37312e-13 2 0 0.0994487 -0.0460664
31 1 8.12868 1.27217 1.60653 4 6.30017e-13 2 0 0.0994487 -0.00811906
32 1 7.58247 0.647807 0.140287 4 1.21923e-13 2 0 0.0994487 -0.110937
33 1 8.85849 0.508506 0.273966 4 8.98979e-13 2 0 0.0994487 -0.0616479
34 1 9.55301 0.3386 0.888639 4 2.73392e-12 2 0 0.0994487 0.00506166
35 1 9.02586 1.30716 1.1133 4 3.33406e-12 2 0 0.0994487 -0.0606529
37 1 9.63995 1.37474 0.0900752 4 6.41445e-12 2 0 0.0994487 0.0992897
38 1 11.2128 0.215893 0.632658 4 3.27375e-11 2 0 0.0994487 0.203501
39 1 10.3637 1.04743 0.823114 4 2.14802e-11 2 0 0.0994487 0.539879
40 1 10.523 0.196295 1.44539 4 1.04637e-11 2 0 0.0994487 0.0644269
41 1 11.2856 1.01846 1.41785 4 9.32376e-11 2 0 0.0994487 0.164703
42 1 10.5797 1.67706 1.72992 4 5.45908e-11 2 0 0.0994487 0.118162
43 1 10.2431 0.367861 0.0780499 4 5.2199e-12 2 0 0.0994487 0.1498
44 1 12.8757 0.211714 0.636805 4 4.11553e-10 2 0 0.0994487 0.0587854
45 1 12.0457 1.07408 0.506655 4 3.3759e-10 2 0 0.0994487 -0.0235544
46 1 12.1319 0.316439 1.29957 4 1.59932e-10 2 0 0.0994487 0.0188336
47 1 12.7194 1.19864 1.3723 4 1.0538e-09 2 0 0.0994487 -0.0305321
48 1 14.3729 0.318493 0.764646 4 3.6825e-09 2 0 0.0994487 -0.0460399
49 1 13.5924 1.113 0.843618 4 3.57889e-09 2 0 0.0994487 -0.263058
50 1 14.0399 1.55958 0.167469 4 9.24768e-09 2 0 0.0994487 -0.0898268
51 1 13.6075 0.359834 1.6352 4 1.19607e-09 2 0 0.0994487 -0.0562652
52 1 14.3777 1.14948 1.47647 4 9.12378e-09 2 0 0.0994487 -0.0178299
53 1 14.8761 1.55337 0.662943 4 2.99657e-08 2 0 0.0994487 0.389943
54 1 15.7061 0.770636 0.788259 4 3.32209e-08 2 0 0.0994487 0.366481
55 1 16.5532 1.54451 0.681338 4 2.48964e-07 2 0 0.0994487 0.00080283
56 1 15.1422 0.4642 1.64149 4 9.6177e-09 2 0 0.0994487 0.152076
57 1 16.547 0.712289 1.3421 4 8.76521e-08 2 0 0.0994487 0.0956245
58 1 15.6341 1.48544 1.3916 4 7.67224e-08 2 0 0.0994487 0.153628
59 1 15.1049 0.711806 0.0677822 4 9.30291e-09 2 0 0.0994487 0.169202
60 1 17.2544 0.732268 0.547589 4 1.65067e-07 2 0 0.0994487 0.0286292
61 1 17.9231 1.58109 0.757246 4 1.09573e-06 2 0 0.0994487 0.0415626
62 1 17.916 0.742935 1.42801 4 3.57609e-07 2 0 0.0994487 -0.224377
63 1 17.2202 1.74884 1.56274 4 6.97758e-07 2 0 0.0994487 -0.0984846
64 1 19.5372 0.0167772 0.662766 4 3.9787e-07 2 0 0.0994487 0.0436443
65 1 18.7918 0.725074 0.684829 4 6.67007e-07 2 0 0.0994487 -0.269944
66 1 19.5395 1.55488 0.841653 4 3.76385e-06 2 0 0.0994487 -0.341158
67 1 19.0276 0.158607 1.54508 4 3.57964e-07 2 0 0.0994487 -0.158664
68 1 19.5934 0.967491 1.68957 4 1.52031e-06 2 0 0.0994487 0.00835177
69 1 18.6564 1.51302 1.50035 4 1.84467e-06 2 0 0.0994487 -0.250307
70 1 21.0889 0.349843 1.06749 4 1.44093e-06 2 0 0.0994487 -0.196124
71 1 20.2493 0.776373 0.980057 4 1.86507e-06 2 0 0.0994487 -0.0497584
72 1 21.1062 1.65725 0.951506 4 9.46368e-06 2 0 0.0994487 0.692924
73 1 21.1874 0.765598 0.218806 4 2.17158e-06 2 0 0.0994487 -0.0445893
74 1 20.3457 1.51479 0.193617 4 4.76616e-06 2 0 0.0994487 -0.0806008
75 1 22.0087 0.262534 0.539755 4 1.46417e-06 2 0 0.0994487 0.0993608
76 1 22.7913 0.430275 1.40734 4 2.0996e-06 2 0 0.0994487 0.206602
77 1 22.1105 1.14763 1.32981 4 5.5307e-06 2 0 0.0994487 0.240028
78 1 21.9982 1.59955 0.538558 4 1.10044e-05 2 0 0.0994487 0.185175
79 1 22.9157 1.07463 0.445168 4 5.04669e-06 2 0 0.0994487 0.0520871
80 1 24.228 0.380179 1.45209 4 1.90646e-06 2 0 0.0994487 0.0576185
81 1 23.5672 0.357563 0.57369 4 1.92148e-06 2 0 0.0994487 0.038573
82 1 24.4367 1.18687 0.754729 4 6.20023e-06 2 0 0.0994487 -0.0192909
83 1 23.4757 1.2499 1.4028 4 7.52632e-06 2 0 0.0994487 0.029881
84 1 24.955 0.315686 0.551996 4 1.44441e-06 2 0 0.0994487 -0.0171967
85 1 26.0085 0.383365 1.1715 4 1.09103e-06 2 0 0.0994487 -0.185857
86 1 25.169 1.12579 1.48087 4 4.62195e-06 2 0 0.0994487 0.0251077
87 1 25.9301 1.73476 1.35794 4 8.11545e-06 2 0 0.0994487 0.0345399
88 1 25.8917 0.929212 0.432102 4 2.28117e-06 2 0 0.0994487 -0.0954173
89 1 27.5736 1.28032 0.38906 4 1.0885e-06 2 0 0.0994487 0.0454507
90 1 27.6142 0.50928 0.874321 4 4.30159e-07 2 0 0.0994487 0.175389
91 1 26.7559 1.02809 1.26347 4 1.61984e-06 2 0 0.0994487 -0.236882
92 1 28.3748 0.337482 1.39813 4 1.70157e-07 2 0 0.0994487 0.00984562
93 1 26.7925 0.240345 0.226621 4 4.4128e-07 2 0 0.0994487 0.0380757
94 1 28.6489 1.24263 0.742341 4 4.34509e-07 2 0 0.0994487 0.102408
95 1 29.3912 0.945639 1.56878 4 1.25292e-07 2 0 0.0994487 -0.0191998
96 1 28.5228 1.71921 1.49749 4 8.268e-07 2 0 0.0994487 -0.0429791
97 1 29.8133 0.173958 1.46124 4 3.13565e-08 2 0 0.0994487 0.133416
98 1 29.2734 0.3547 0.615275 4 6.76822e-08 2 0 0.0994487 -0.0816805
99 1 31.5874 0.266128 1.25663 4 4.03003e-09 3 0 0.0994487 0.830097
100 1 30.7016 0.49015 0.470738 4 1.62337e-08 2 0 0.0994487 0.354852
101 1 30.1009 1.19877 0.774133 4 8.42261e-08 2 0 0.0994487 0.210921
102 1 30.8649 0.971942 1.39386 4 2.67571e-08 2 0 0.0994487 0.703282
103 1 1.11081 2.43607 0.129285 4 1.78885e-18 2 0 0.0994487 -0.0373225
104 1 0.133403 2.3821 0.812241 4 3.778e-19 2 0 0.0994487 -0.984517
105 1 1.28845 3.23764 0.949187 4 7.87191e-18 2 0 0.0994487 0.222088
106 1 1.13977 2.36077 1.59162 4 2.55716e-18 2 0 0.0994487 -0.22219
107 1 0.386685 3.02999 1.54944 4 1.00882e-18 2 0 0.0994487 -0.671256
108 1 0.332248 3.09582 0.131296 4 7.07098e-19 2 0 0.0994487 -0.59134
109 1 1.90972 2.41867 0.78376 4 1.30257e-17 2 0 0.0994487 0.078207
110 1 2.65852 3.28029 0.860875 4 1.3377e-16 2 0 0.0994487 0.0668016
111 1 2.66931 2.22918 1.53373 4 4.96025e-17 2 0 0.0994487 0.082954
112 1 3.2579 3.42668 1.64938 4 4.41269e-16 2 0 0.0994487 0.00397365
113 1 2.7261 2.38168 0.0557193 4 3.88991e-17 2 0 0.0994487 0.1466
114 1 3.38195 2.55413 0.779289 4 2.93876e-16 2 0 0.0994487 0.211581
115 1 4.00679 1.841 0.711184 4 5.70274e-16 2 0 0.0994487 -0.0361259
116 1 4.91383 2.57277 0.815661 4 6.59286e-15 2 0 0.0994487 -0.259354
117 1 4.20148 3.3175 0.749446 4 2.95736e-15 2 0 0.0994487 0.00621336
118 1 4.13245 2.64107 1.58328 4 1.31053e-15 2 0 0.0994487 0.027076
119 1 5.65047 2.44269 0.132743 4 1.93568e-14 2 0 0.0994487 -0.189927
120 1 6.55776 2.18062 0.772597 4 1.05433e-13 2 0 0.0994487 -0.289398
121 1 5.64874 3.19593 0.952489 4 4.56022e-14 2 0 0.0994487 -0.754641
122 1 5.861 2.19426 1.49672 4 2.57372e-14 2 0 0.0994487 0.0126338
123 1 6.52037 3.06691 1.5557 4 1.91579e-13 2 0 0.0994487 0.0443556
124 1 6.65033 2.92778 0.134227 4 1.786e-13 2 0 0.0994487 0.0288853
125 1 7.45405 2.22586 0.139832 4 4.78939e-13 2 0 0.0994487 -0.0535044
126 1 8.08209 2.20208 0.930382 4 1.71509e-12 2 0 0.0994487 -0.302092
127 1 7.40132 3.06835 0.934051 4 1.15008e-12 2 0 0.0994487 -0.0455486
128 1 7.29928 2.06035 1.56856 4 3.25663e-13 2 0 0.0994487 -0.0607346
129 1 8.18545 3.00183 1.65211 4 3.77592e-12 2 0 0.0994487 -0.0454179
130 1 8.26934 2.9712 0.0392146 4 3.8937e-12 2 0 0.0994487 -0.150619
131 1 8.90393 2.08699 0.252387 4 5.04484e-12 2 0 0.0994487 0.00243065
132 1 9.77243 2.0246 1.10996 4 2.47684e-11 2 0 0.0994487 0.173454
133 1 8.92671 2.97262 0.928693 4 1.59391e-11 2 0 0.0994487 -0.156781
134 1 9.03062 2.22066 1.70398 4 7.74177e-12 2 0 0.0994487 -0.0819699
135 1 9.56096 2.90576 0.21312 4 3.38252e-11 2 0 0.0994487 0.173118
136 1 10.2834 2.1137 0.214297 4 4.22701e-11 2 0 0.0994487 0.337737
137 1 11.1583 1.82604 0.771092 4 1.90716e-10 2 0 0.0994487 0.260083
138 1 10.6214 2.80819 0.921535 4 2.31585e-10 2 0 0.0994487 0.541908
139 1 11.4444 2.82964 1.57484 4 8.5493e-10 2 0 0.0994487 0.0951951
140 1 12.6737 1.94118 0.593851 4 2.51447e-09 2 0 0.0994487 -0.283939
141 1 11.928 2.64099 0.742299 4 1.61466e-09 2 0 0.0994487 -0.0386798
142 1 11.9239 1.9206 1.46509 4 7.00358e-10 2 0 0.0994487 0.0946489
143 1 12.8449 3.01766 1.68597 4 8.61534e-09 2 0 0.0994487 0.0363531
144 1 13.1791 3.03035 0.848852 4 1.7423e-08 2 0 0.0994487 -0.440868
145 1 13.3784 1.9912 1.48064 4 6.60133e-09 2 0 0.0994487 -0.0150735
146 1 14.0206 2.44438 0.927124 4 3.03124e-08 2 0 0.0994487 -0.133118
147 1 14.0279 3.38359 1.55716 4 7.70793e-08 2 0 0.0994487 0.0255707
148 1 14.6961 3.43698 0.884932 4 2.27573e-07 2 0 0.0994487 -0.33299
149 1 14.7823 2.29758 1.44821 4 6.73015e-08 2 0 0.0994487 0.0469244
150 1 14.8418 2.51505 0.136557 4 7.87886e-08 2 0 0.0994487 0.173002
151 1 14.1591 3.2262 0.0325348 4 7.06089e-08 2 0 0.0994487 -0.246108
152 1 13.4137 2.29398 0.0590902 4 9.18673e-09 2 0 0.0994487 -0.280964
153 1 15.6993 2.44373 0.692668 4 2.64803e-07 2 0 0.0994487 0.364386
154 1 16.3029 3.20095 0.662084 4 1.36696e-06 2 0 0.0994487 0.328584
155 1 16.308 2.47951 1.52575 4 6.27834e-07 2 0 0.0994487 -0.100649
156 1 15.3694 3.25723 1.50191 4 4.52616e-07 2 0 0.0994487 -0.00767235
157 1 15.5706 3.25854 0.0192499 4 3.82126e-07 2 0 0.0994487 0.290236
158 1 17.0646 2.35032 0.682778 4 1.26451e-06 2 0 0.0994487 0.023479
159 1 17.944 2.92608 0.699539 4 6.7975e-06 2 0 0.0994487 -0.231191
160 1 18.0193 2.43917 1.58112 4 3.80464e-06 2 0 0.0994487 -0.149135
161 1 17.0918 3.1162 1.49491 4 3.44459e-06 2 0 0.0994487 -0.143437
162 1 18.8908 2.35742 1.01358 4 7.42111e-06 2 0 0.0994487 -0.516822
163 1 19.7027 3.2427 1.27782 4 4.24916e-05 2 0 0.0994487 0.394885
164 1 18.884 2.99607 0.196019 4 1.46035e-05 2 0 0.0994487 -0.171808
165 1 19.587 2.34239 0.101452 4 9.69552e-06 2 0 0.0994487 -0.132369
166 1 20.3251 1.78863 1.72442 4 6.76187e-06 2 0 0.0994487 0.0449551
167 1 21.1565 2.41663 0.458355 4 2.87594e-05 2 0 0.0994487 0.19619
168 1 20.1948 2.46882 1.11433 4 1.9894e-05 2 0 0.0994487 0.286756
169 1 21.31 3.29463 1.39314 4 0.000119986 2 0 0.0994487 0.0777333
170 1 20.4222 2.99313 0.334941 4 4.26762e-05 2 0 0.0994487 0.186293
171 1 22.8719 2.07007 1.50872 4 2.66311e-05 2 0 0.0994487 -0.02212
172 1 22.9717 2.60199 0.735523 4 6.76292e-05 2 0 0.0994487 0.133333
173 1 22.0961 2.49917 1.23787 4 4.90536e-05 2 0 0.0994487 0.186445
174 1 21.9898 3.20043 0.598797 4 0.000134206 2 0 0.0994487 -0.0757446
175 1 22.6771 3.40124 0.07601 4 0.000166429 2 0 0.0994487 0.0760754
176 1 23.7438 1.80844 0.624025 4 1.72061e-05 2 0 0.0994487 -0.0873552
177 1 24.4289 1.98763 1.61102 4 2.04366e-05 2 0 0.0994487 -0.064173
178 1 24.342 2.68296 0.775192 4 6.22975e-05 2 0 0.0994487 -0.341086
179 1 23.6887 2.90303 1.53628 4 9.3076e-05 2 0 0.0994487 -0.110501
180 1 24.4728 3.51078 1.55704 4 0.000196205 2 0 0.0994487 -0.118301
181 1 24.9562 2.84566 0.0146836 4 4.74138e-05 2 0 0.0994487 -0.0864581
182 1 26.5483 1.79415 0.511367 4 5.50196e-06 2 0 0.0994487 -0.0055974
183 1 25.1322 1.85613 0.509414 4 1.35457e-05 2 0 0.0994487 -0.021526
184 1 25.7918 2.61203 0.707489 4 3.19028e-05 2 0 0.0994487 0.228207
185 1 25.1579 2.55548 1.52547 4 3.88578e-05 2 0 0.0994487 0.0576699
186 1 25.7213 3.49812 1.51211 4 0.000112932 2 0 0.0994487 0.12386
187 1 26.5364 2.56002 1.53049 4 1.68591e-05 2 0 0.0994487 0.0579502
188 1 26.1686 3.50068 0.599043 4 8.35648e-05 2 0 0.0994487 0.168849
189 1 27.5039 1.98546 1.23792 4 3.38454e-06 2 0 0.0994487 -0.186414
190 1 28.2489 2.09022 0.343734 4 1.702e-06 2 0 0.0994487 -0.0177235
191 1 27.0867 2.6924 0.645359 4 1.30088e-05 2 0 0.0994487 -0.105597
192 1 27.1998 3.35397 1.41682 4 2.7637e-05 2 0 0.0994487 -0.098325
193 1 28.2537 2.75799 1.20639 4 4.43574e-06 2 0 0.0994487 -0.418302
194 1 27.982 3.21993 0.326384 4 9.1238e-06 2 0 0.0994487 -0.125255
195 1 29.9568 1.80906 1.70764 4 1.88543e-07 2 0 0.0994487 0.183201
196 1 29.4477 2.04702 0.879698 4 5.13494e-07 2 0 0.0994487 -0.00707963
197 1 29.1956 2.6589 0.290703 4 1.21075e-06 2 0 0.0994487 -0.0578273
198 1 29.2495 3.2651 1.17365 4 2.62268e-06 2 0 0.0994487 0.118639
199 1 30.9114 1.98502 0.924207 4 8.93636e-08 2 0 0.0994487 0.967251
200 1 30.1815 2.71094 1.00186 4 4.53683e-07 2 0 0.0994487 0.675112
201 1 31.0247 3.35309 0.97101 4 3.18742e-07 2 0 0.0994487 0.998409
202 1 30.9865 2.69483 1.72648 4 1.45401e-07 2 0 0.0994487 0.578502
203 1 30.1092 3.25953 0.132205 4 6.56148e-07 2 0 0.0994487 -0.0443653
204 1 30.4116 1.90909 0.0255368 4 1.06129e-07 2 0 0.0994487 0.106045
205 1 31.1434 2.66402 0.0761253 4 1.05353e-07 2 0 0.0994487 0.70882
206 1 0.293831 3.78503 0.918557 4 1.64272e-18 2 0 0.0994487 -0.999347
207 1 0.143046 4.59443 0.482118 4 1.97286e-18 2 0 0.0994487 -0.784494
208 1 1.14036 4.67093 0.986638 4 1.77322e-17 2 0 0.0994487 -0.516755
209 1 0.0884667 5.26681 1.27761 4 2.70278e-18 2 0 0.0994487 -0.887458
210 1 1.04069 3.86421 0.0595682 4 5.82255e-18 2 0 0.0994487 0.0148876
211 1 1.84117 4.04604 0.847105 4 4.83033e-17 2 0 0.0994487 0.00826493
212 1 2.54049 4.85585 1.13748 4 3.60463e-16 2 0 0.0994487 -0.333849
213 1 2.64953 4.14475 0.20674 4 2.34091e-16 2 0 0.0994487 -0.028573
214 1 1.89758 4.96895 0.278386 4 9.51106e-17 2 0 0.0994487 -0.153434
215 1 3.40771 4.86189 0.161635 4 1.76777e-15 2 0 0.0994487 -0.0163893
216 1 3.494 4.07675 0.885909 4 1.37712e-15 2 0 0.0994487 0.0268884
217 1 4.91235 4.00001 1.18344 4 2.16153e-14 2 0 0.0994487 0.0115016
218 1 4.04658 4.88002 1.14639 4 7.79674e-15 2 0 0.0994487 0.264486
219 1 4.26027 4.18509 0.149001 4 5.44195e-15 2 0 0.0994487 0.037737
220 1 5.00947 4.74001 0.341082 4 3.93877e-14 2 0 0.0994487 0.0765376
221 1 5.77735 3.9378 0.198707 4 7.74433e-14 2 0 0.0994487 0.0260144
222 1 6.48883 3.76611 0.772067 4 3.56001e-13 2 0 0.0994487 0.204548
223 1 5.68025 4.73638 1.02487 4 1.73798e-13 2 0 0.0994487 -0.621706
224 1 6.66321 4.5115 1.6428 4 7.87128e-13 2 0 0.0994487 0.158931
225 1 6.68072 5.1315 0.885352 4 1.57617e-12 2 0 0.0994487 0.206843
226 1 8.1982 3.892 0.700757 4 1.0126e-11 2 0 0.0994487 -0.369907
227 1 7.40842 4.46072 0.5468 4 3.49676e-12 2 0 0.0994487 -0.0252161
228 1 7.39886 3.87029 1.49684 4 2.0396e-12 2 0 0.0994487 0.102574
229 1 8.20004 4.61106 1.48677 4 1.70698e-11 2 0 0.0994487 -0.0118412
230 1 9.8976 3.57792 0.885667 4 1.50778e-10 2 0 0.0994487 0.592738
231 1 9.07913 4.56551 0.821335 4 8.32572e-11 2 0 0.0994487 -0.658556
232 1 9.86266 4.50302 0.126324 4 2.2691e-10 2 0 0.0994487 0.0958626
233 1 9.07829 3.76256 1.49819 4 4.12266e-11 2 0 0.0994487 -0.070889
234 1 9.86881 4.3462 1.65532 4 2.62335e-10 2 0 0.0994487 -0.085666
235 1 8.98541 3.86821 0.0631775 4 3.07174e-11 2 0 0.0994487 -0.138756
236 1 11.408 3.64493 0.778297 4 1.98603e-09 2 0 0.0994487 0.202058
237 1 10.5891 4.66652 0.906264 4 1.2871e-09 2 0 0.0994487 0.0450485
238 1 11.3867 4.69403 0.230734 4 4.40213e-09 2 0 0.0994487 -0.0498947
239 1 10.7059 3.56689 1.58785 4 5.50982e-10 2 0 0.0994487 -0.044854
240 1 11.3652 4.3716 1.70545 4 3.23788e-09 2 0 0.0994487 -0.0798327
241 1 11.3894 5.27213 0.983682 4 7.9881e-09 2 0 0.0994487 -0.674498
242 1 10.5826 3.84888 0.176129 4 4.82483e-10 2 0 0.0994487 0.210463
243 1 12.5168 3.57716 0.814749 4 1.10213e-08 2 0 0.0994487 -0.0105854
244 1 12.1916 4.55033 1.00021 4 1.63935e-08 2 0 0.0994487 0.105013
245 1 12.7362 4.99738 1.68903 4 4.58311e-08 2 0 0.0994487 0.191324
246 1 13.2258 4.67863 0.80017 4 9.32401e-08 2 0 0.0994487 -0.00472257
247 1 12.6435 4.61885 0.0632315 4 3.0548e-08 2 0 0.0994487 -0.0335845
248 1 13.9891 4.12825 0.69648 4 1.72948e-07 2 0 0.0994487 -0.430188
249 1 13.4832 4.21781 1.59317 4 7.8221e-08 2 0 0.0994487 0.082012
250 1 14.2046 5.11838 1.52001 4 5.63545e-07 2 0 0.0994487 -0.0289987
251 1 14.9402 5.01141 0.811699 4 1.46034e-06 2 0 0.0994487 -0.0528636
252 1 14.9642 4.4167 1.59432 4 8.08311e-07 2 0 0.0994487 -0.0635667
253 1 14.1405 4.90647 0.0597868 4 3.61453e-07 2 0 0.0994487 -0.0856993
254 1 14.961 4.19423 0.096508 4 5.60302e-07 2 0 0.0994487 0.0322692
255 1 15.6685 4.06642 0.926277 4 1.59413e-06 2 0 0.0994487 0.872554
256 1 15.8798 4.77595 0.186426 4 3.54943e-06 2 0 0.0994487 0.165385
257 1 16.5936 4.58036 0.900182 4 9.00005e-06 2 0 0.0994487 -0.0790045
258 1 16.3184 3.95875 1.6903 4 3.20014e-06 2 0 0.0994487 -0.0434001
259 1 15.8111 5.05317 1.64084 4 4.31563e-06 2 0 0.0994487 0.0994958
260 1 17.2689 3.83372 0.811237 4 9.58092e-06 2 0 0.0994487 -0.345387
261 1 18.0864 4.48855 1.09806 4 4.62463e-05 2 0 0.0994487 -0.612176
262 1 17.9525 3.63794 1.65602 4 1.53442e-05 2 0 0.0994487 -0.192806
263 1 17.4569 4.57727 0.0147963 4 1.74733e-05 2 0 0.0994487 -0.09741
264 1 18.1348 3.8547 0.0583493 4 1.8484e-05 2 0 0.0994487 -0.120516
265 1 18.8779 3.70667 0.95022 4 4.05983e-05 2 0 0.0994487 0.0692376
266 1 18.8235 4.60949 0.361826 4 9.65427e-05 2 0 0.0994487 0.11561
267 1 19.6906 4.67872 1.0803 4 0.000284888 2 0 0.0994487 0.931544
268 1 18.7859 5.27693 1.20102 4 0.000226045 2 0 0.0994487 0.599173
269 1 19.5987 3.76722 0.227421 4 6.71303e-05 2 0 0.0994487 0.164271
270 1 20.4384 3.82188 1.23329 4 0.0001635 2 0 0.0994487 0.32596
271 1 20.8846 4.71868 1.39403 4 0.000774287 2 0 0.0994487 0.149063
272 1 21.5775 4.95128 0.810455 4 0.00155902 2 0 0.0994487 -0.00373444
273 1 21.0824 3.93136 0.512408 4 0.000264867 2 0 0.0994487 0.0883072
274 1 20.1339 4.78559 0.352846 4 0.000417464 2 0 0.0994487 0.145588
275 1 22.8205 3.63186 1.42135 4 0.000296381 2 0 0.0994487 -0.0183953
276 1 21.9406 4.13318 1.31068 4 0.000548395 2 0 0.0994487 0.0272103
277 1 22.4705 5.17735 1.27286 4 0.0028851 2 0 0.0994487 0.0207165
278 1 22.6119 4.34705 0.510028 4 0.000809253 2 0 0.0994487 -0.0221005
279 1 23.5735 3.63903 0.782677 4 0.000317156 2 0 0.0994487 0.185569
280 1 24.336 4.32055 0.625018 4 0.000713328 2 0 0.0994487 -0.150088
281 1 23.4679 4.54946 1.33355 4 0.00122863 2 0 0.0994487 -0.0790493
282 1 24.8518 5.25716 0.566763 4 0.00181751 2 0 0.0994487 0.0409119
283 1 23.5518 5.06386 0.533607 4 0.00228627 2 0 0.0994487 -0.0968826
284 1 25.0086 4.50055 1.62342 4 0.000656204 2 0 0.0994487 -0.0421922
285 1 25.0629 3.68037 0.802132 4 0.000214866 2 0 0.0994487 -0.18791
286 1 24.363 5.28843 1.43377 4 0.00271502 2 0 0.0994487 -0.154704
287 1 25.6904 5.1389 1.34266 4 0.000988933 2 0 0.0994487 0.210106
288 1 26.3575 4.29031 1.37159 4 0.00020301 2 0 0.0994487 0.149486
289 1 26.5026 4.97257 0.640732 4 0.000381415 2 0 0.0994487 0.0989714
290 1 25.5284 4.40089 0.388179 4 0.000391258 2 0 0.0994487 0.0559505
291 1 27.3302 4.86961 1.40568 4 0.000152447 2 0 0.0994487 0.00661334
292 1 27.9624 3.97641 1.10408 4 2.75959e-05 2 0 0.0994487 -0.309498
293 1 28.2771 4.73475 0.706344 4 4.39398e-05 2 0 0.0994487 -0.0812422
294 1 27.0674 4.04323 0.570038 4 7.39035e-05 2 0 0.0994487 0.0120259
295 1 28.9321 3.77016 0.487204 4 6.44529e-06 2 0 0.0994487 -0.0070311
296 1 29.0873 4.52317 1.33085 4 1.28801e-05 2 0 0.0994487 0.0574879
297 1 29.9979 4.07209 1.02303 4 2.39005e-06 2 0 0.0994487 -0.275229
298 1 31.0296 3.97382 0.373364 4 5.16762e-07 2 0 0.0994487 0.657583
299 1 30.2046 4.67765 0.491317 4 3.2252e-06 2 0 0.0994487 0.00995939
300 1 30.9783 4.59929 1.41131 4 1.02598e-06 2 0 0.0994487 0.679914
301 1 0.908283 5.53205 0.461647 4 1.83106e-17 2 0 0.0994487 -0.463785
302 1 1.53161 5.51184 1.37971 4 6.28531e-17 2 0 0.0994487 -0.117388
303 1 0.793684 6.22023 1.2768 4 2.10833e-17 2 0 0.0994487 -0.703381
304 1 0.257003 6.91734 1.50738 4 9.02588e-18 2 0 0.0994487 -0.772633
305 1 0.969942 6.9454 0.573423 4 4.82423e-17 2 0 0.0994487 -0.473533
306 1 1.7053 7.02884 1.23811 4 2.22918e-16 2 0 0.0994487 0.0665168
307 1 1.89588 6.19966 0.519025 4 2.28204e-16 2 0 0.0994487 -0.156401
308 1 3.10475 5.61709 1.30057 4 1.88643e-15 2 0 0.0994487 0.0402509
309 1 2.26359 6.15348 1.40977 4 4.12468e-16 2 0 0.0994487 0.0408551
310 1 3.25442 6.96226 1.12748 4 6.43158e-15 2 0 0.0994487 -0.0541259
311 1 2.68177 5.61289 0.273587 4 7.49017e-16 2 0 0.0994487 -0.0596868
312 1 3.39503 6.28191 0.500536 4 5.70977e-15 2 0 0.0994487 -0.121447
313 1 4.18979 5.46246 0.325783 4 1.43313e-14 2 0 0.0994487 0.0310155
314 1 4.93434 5.42873 1.31778 4 7.23347e-14 2 0 0.0994487 -0.235103
315 1 4.13622 6.09659 1.22779 4 2.42969e-14 2 0 0.0994487 -0.0893915
316 1 4.82567 6.23357 0.333842 4 8.73052e-14 2 0 0.0994487 -0.0345784
317 1 4.77312 6.79931 1.15967 4 1.45077e-13 2 0 0.0994487 -0.305934
318 1 4.00267 7.02511 0.221759 4 2.68069e-14 2 0 0.0994487 -0.0853457
319 1 5.78575 5.42185 0.301847 4 2.95256e-13 2 0 0.0994487 0.0124998
320 1 5.6935 6.24342 0.9632 4 5.56481e-13 2 0 0.0994487 -0.96778
321 1 6.4578 5.98425 1.59671 4 1.80665e-12 2 0 0.0994487 0.140911
322 1 6.43234 6.86927 1.00965 4 3.71928e-12 2 0 0.0994487 0.851666
323 1 6.37773 6.04115 0.154639 4 1.16224e-12 2 0 0.0994487 0.11111
324 1 5.54993 7.05206 0.147147 4 5.11349e-13 2 0 0.0994487 0.0363843
325 1 8.21355 5.31419 0.694273 4 3.18643e-11 2 0 0.0994487 -0.0896026
326 1 7.32761 6.15925 0.754293 4 1.13294e-11 2 0 0.0994487 0.225724
327 1 7.39163 5.41839 1.49138 4 7.1104e-12 2 0 0.0994487 0.136749
328 1 8.23884 6.11028 1.49159 4 6.04155e-11 2 0 0.0994487 0.0187321
329 1 8.01352 6.85364 0.728993 4 6.70886e-11 2 0 0.0994487 0.0691784
330 1 7.28191 6.86379 1.59601 4 1.7617e-11 2 1 0.0994487 0.126047
331 1 7.33029 5.3575 0.0461812 4 4.27783e-12 2 0 0.0994487 0.0813548
332 1 9.76796 5.3194 0.792562 4 4.92802e-10 2 0 0.0994487 0.328431
333 1 8.88016 6.18865 0.736908 4 2.07947e-10 2 0 0.0994487 -0.235554
334 1 9.05434 5.3271 1.5973 4 1.39818e-10 2 0 0.0994487 -0.0628349
335 1 9.73844 6.19052 1.46731 4 9.55635e-10 2 0 0.0994487 -0.106465
336 1 9.09351 6.95013 1.463 4 5.95037e-10 2 2 0.0994487 -0.0759254
337 1 9.76329 6.23201 0.0941385 4 7.43245e-10 2 0 0.0994487 -0.0359559
338 1 8.99733 5.46479 0.012702 4 9.76223e-11 2 0 0.0994487 -0.134756
339 1 10.5831 6.02196 0.964384 4 3.63798e-09 2 0 0.0994487 -0.356427
340 1 11.3128 6.37134 0.0776634 4 9.47527e-09 2 0 0.0994487 0.100338
341 1 10.5187 6.94145 0.15452 4 4.14511e-09 2 0 0.0994487 -0.0735392
342 1 10.4686 6.92564 1.49614 4 6.1117e-09 2 1 0.0994487 -0.0636953
343 1 11.9994 5.6274 0.183157 4 2.20958e-08 2 0 0.0994487 -0.010536
344 1 12.6757 5.81849 0.861776 4 9.90466e-08 2 0 0.0994487 0.081719
345 1 11.7774 6.20735 1.05291 4 3.00058e-08 2 0 0.0994487 0.292202
346 1 13.3219 5.86668 1.55471 4 2.59529e-07 2 0 0.0994487 0.208159
347 1 13.3506 6.58297 0.813679 4 5.16535e-07 2 0 0.0994487 -0.292142
348 1 13.3212 5.53867 0.0424813 4 1.76642e-07 2 0 0.0994487 -0.142917
349 1 14.0617 5.71565 0.77266 4 7.80325e-07 2 0 0.0994487 -0.372787
350 1 14.3278 6.65176 1.40646 4 2.73948e-06 2 1 0.0994487 -0.103217
351 1 14.1303 6.38483 0.0380077 4 9.96776e-07 2 0 0.0994487 -0.0826162
352 1 15.0282 5.64393 0.034369 4 2.20355e-06 2 0 0.0994487 0.0573573
353 1 15.8305 5.73813 0.95832 4 9.53699e-06 2 0 0.0994487 0.625761
354 1 15.0472 6.45091 0.806774 4 6.00056e-06 2 0 0.0994487 -0.176112
355 1 16.491 6.45257 1.1401 4 4.36972e-05 2 0 0.0994487 0.208267
356 1 15.1058 5.87594 1.69804 4 4.01234e-06 2 0 0.0994487 -0.0976661
357 1 16.62 5.41933 0.276819 4 1.66293e-05 2 0 0.0994487 0.0799169
358 1 15.6753 6.3382 0.0390223 4 9.41457e-06 2 0 0.0994487 0.0398439
359 1 17.8271 5.30128 0.541411 4 6.9913e-05 2 0 0.0994487 0.150325
360 1 17.113 5.42499 1.24767 4 3.8686e-05 2 0 0.0994487 -0.286583
361 1 17.0619 6.27419 0.411469 4 6.63586e-05 2 0 0.0994487 0.138943
362 1 17.6649 6.24649 1.38542 4 0.000155448 2 0 0.0994487 -0.254256
363 1 18.2745 7.0517 1.13153 4 0.00062201 2 1 0.0994487 0.63067
364 1 18.3714 6.23173 0.609762 4 0.000341018 2 0 0.0994487 0.156179
365 1 19.429 5.75829 0.62055 4 0.000725799 2 0 0.0994487 0.0571875
366 1 19.3279 6.55755 1.35081 4 0.00158183 2 1 0.0994487 0.274718
367 1 19.9942 6.75229 0.610261 4 0.00340819 2 0 0.0994487 -0.0119095
368 1 20.7494 5.77593 0.653722 4 0.00255596 2 0 0.0994487 -0.10406
369 1 20.1931 5.61076 1.39557 4 0.00144992 2 0 0.0994487 0.312023
370 1 20.7787 6.6124 1.30355 4 0.0077555 2 1 0.0994487 -0.344542
371 1 21.6592 6.66248 0.666524 4 0.0108639 2 0 0.0994487 -0.0434941
372 1 21.6631 5.87866 1.38528 4 0.00600639 2 0 0.0994487 0.0421016
373 1 21.6904 5.73259 0.0517844 4 0.00299598 2 0 0.0994487 -0.00149823
374 1 22.6732 5.8279 0.674154 4 0.00616387 2 0 0.0994487 0.00267239
375 1 22.6319 6.69333 1.20734 4 0.0201015 2 1 0.0994487 -0.202742
376 1 23.3484 6.78052 0.267835 4 0.0139026 2 0 0.0994487 -0.125373
377 1 23.4822 5.88496 1.30013 4 0.00810417 2 0 0.0994487 -0.176396
378 1 24.3197 6.56281 1.15825 4 0.0117923 2 0 0.0994487 0.173677
379 1 24.1457 6.00685 0.427617 4 0.00578482 2 0 0.0994487 0.00244359
380 1 25.6831 5.86213 0.700952 4 0.00206508 2 0 0.0994487 0.163902
381 1 25.1124 6.04132 1.67733 4 0.00415527 2 0 0.0994487 0.00367242
382 1 25.1593 6.74159 0.495153 4 0.0065211 2 0 0.0994487 0.0903964
383 1 25.8251 6.59457 1.40775 4 0.00384823 2 0 0.0994487 0.088108
384 1 26.6903 5.84511 1.4763 4 0.000852215 2 0 0.0994487 0.0917657
385 1 27.4966 5.54334 0.722172 4 0.000247921 2 0 0.0994487 -0.251566
386 1 26.7485 6.36567 0.651888 4 0.00120155 2 0 0.0994487 0.0387556
387 1 27.7011 6.47315 1.36539 4 0.000468781 2 0 0.0994487 0.131497
388 1 28.3648 5.52203 1.4872 4 8.48325e-05 2 0 0.0994487 0.0456354
389 1 27.7097 7.0074 0.530173 4 0.000622087 2 0 0.0994487 0.0321279
390 1 29.3889 5.30889 0.818726 4 1.93722e-05 2 0 0.0994487 0.316734
391 1 29.4379 6.18214 1.32212 4 3.41696e-05 2 0 0.0994487 -0.00337898
392 1 29.5784 6.89773 0.506505 4 4.47074e-05 2 0 0.0994487 0.0925894
393 1 28.4685 6.20589 0.638647 4 0.00012995 2 0 0.0994487 -0.270075
394 1 29.3762 6.15398 0.0801838 4 2.9241e-05 2 0 0.0994487 0.0969274
395 1 28.4822 5.38976 0.0592959 4 4.70836e-05 2 0 0.0994487 -0.105002
396 1 30.9636 5.36838 0.595026 4 2.23987e-06 2 0 0.0994487 0.667849
397 1 30.2159 5.45949 1.46813 4 6.11173e-06 2 0 0.0994487 0.0540225
398 1 30.3958 6.18258 0.649752 4 9.18695e-06 2 0 0.0994487 0.329003
399 1 31.2189 6.15516 1.38439 4 2.56082e-06 2 0 0.0994487 0.587258
400 1 31.1994 6.95407 0.60342 4 4.56936e-06 2 0 0.0994487 0.812252
401 1 31.7235 5.99622 0.446564 4 1.15238e-06 2 0 0.0994487 0.879729
402 1 0.261851 7.63199 0.661866 4 1.52324e-17 2 0 0.0994487 -0.876374
403 1 0.831025 8.46344 0.61936 4 6.79533e-17 2 0 0.0994487 -0.577626
404 1 1.11211 7.86396 1.49711 4 8.291e-17 2 0 0.0994487 -0.154429
405 1 0.356955 8.5626 1.47035 4 2.29893e-17 2 0 0.0994487 -0.764984
406 1 1.59266 7.76478 0.37187 4 2.53687e-16 2 0 0.0994487 -0.0897887
407 1 1.72382 8.61735 1.46471 4 4.45854e-16 2 0 0.0994487 0.0395958
408 1 2.48799 7.14986 0.476331 4 1.39963e-15 2 0 0.0994487 -0.0836979
409 1 2.19177 8.6335 0.399707 4 1.27463e-15 2 0 0.0994487 -0.137269
410 1 2.39416 7.81099 1.27726 4 1.51054e-15 2 0 0.0994487 0.0869904
411 1 3.01349 8.51445 0.935533 4 7.73236e-15 2 0 0.0994487 -0.539318
412 1 3.24418 7.77117 0.327041 4 8.57655e-15 2 0 0.0994487 -0.196207
413 1 3.81243 8.45898 0.0822892 4 2.9303e-14 2 0 0.0994487 -0.04578
414 1 3.97971 7.67009 1.24863 4 4.20409e-14 2 0 0.0994487 -0.0554915
415 1 4.70459 8.25653 0.921772 4 2.46134e-13 2 0 0.0994487 0.295315
416 1 4.67023 7.63706 0.247803 4 1.40875e-13 2 0 0.0994487 0.0376893
417 1 3.81127 8.34851 1.76162 4 2.96256e-14 2 0 0.0994487 -0.0574371
418 1 5.86955 8.34822 0.169905 4 1.81197e-12 2 0 0.0994487 0.113103
419 1 5.48363 7.59071 1.03232 4 9.35746e-13 2 0 0.0994487 -0.467675
420 1 6.49365 7.53799 0.169175 4 4.35903e-12 2 0 0.0994487 0.187621
421 1 6.39674 8.23976 1.04384 4 8.08304e-12 2 0 0.0994487 0.338152
422 1 7.28583 7.76918 0.746313 4 3.19171e-11 2 1 0.0994487 0.00993391
423 1 8.2859 8.31376 0.868772 4 2.95657e-10 2 2 0.0994487 0.278493
424 1 7.27857 8.18368 1.7015 4 5.25148e-11 2 2 0.0994487 -0.174695
425 1 8.05208 7.48784 1.5604 4 1.26618e-10 2 1 0.0994487 0.185001
426 1 7.99895 7.60312 0.0282118 4 6.0068e-11 2 0 0.0994487 0.0674107
427 1 9.84313 7.22199 0.72344 4 2.35435e-09 2 1 0.0994487 -0.346987
428 1 8.91207 7.61626 0.661731 4 5.74895e-10 2 1 0.0994487 0.158586
429 1 9.73234 8.61964 0.693151 4 4.18056e-09 2 3 0.0994487 -0.257332
430 1 9.09265 8.69904 1.44495 4 1.96201e-09 2 9 0.0994487 -0.398581
431 1 9.64026 7.88932 1.60055 4 3.496e-09 2 8 0.0994487 -0.341528
432 1 11.3161 7.14287 0.810636 4 2.64842e-08 2 1 0.0994487 0.448411
433 1 10.5731 7.9454 0.844311 4 1.30009e-08 2 3 0.0994487 -0.198502
434 1 10.5877 8.70196 1.4255 4 2.42886e-08 1 8 0.0994487 -0.144993
435 1 11.4057 7.80503 1.60301 4 6.02995e-08 2 7 0.0994487 0.229304
436 1 11.227 8.11851 0.0422735 4 2.3171e-08 2 0 0.0994487 0.174297
437 1 12.7061 7.28322 0.565784 4 2.82853e-07 2 0 0.0994487 -0.0531047
438 1 12.178 8.23518 0.590765 4 1.96298e-07 2 2 0.0994487 0.164234