ITEM: TIMESTEP
27500
ITEM: NUMBER OF ATOMS
9495
ITEM: BOX BOUNDS mm mm mm
0.0000000000000000e+00 4.3263897464951548e+01
-8.2160238106404893e-01 3.1748021039364001e+01
-1.0279393895467727e+01 3.1748021039364001e+01
ITEM: ATOMS id type x y z c_phase c_temp c_surf c_nbond c_visc f_3[1]
2149 1 40.6499 13.6748 -9.09728 0 2.791 2 0 4.53999e-06 -0.482011
1560 1 41.7085 13.7258 -9.07344 0 3.09038 2 0 4.53999e-06 0.482488
2453 1 40.458 14.3993 -9.78739 0 2.76756 2 0 4.53999e-06 -0.283471
2100 1 40.4447 15.4634 -9.58676 0 2.76278 2 0 4.53999e-06 -0.131349
2454 1 40.1152 14.701 -8.91734 0 2.7468 2 0 4.53999e-06 -0.955439
1920 1 41.1479 14.6254 -9.14054 0 2.88708 2 0 4.53999e-06 0.422857
2150 1 40.4977 12.274 -7.73446 0 2.58524 2 0 4.54e-06 -0.561933
2503 1 40.5318 13.3266 -8.02878 0 2.68781 2 0 4.54e-06 -0.915039
1921 1 41.3113 12.8883 -7.65239 0 2.73924 2 0 4.53999e-06 0.0746459
1924 1 41.1302 12.8697 -8.70965 0 2.79978 2 0 4.53999e-06 -0.100974
1561 1 42.0514 12.9712 -8.3092 0 3.19627 2 0 4.53999e-06 0.559444
3628 1 42.4996 13.3638 -7.49208 0 3.2147 2 0 4.53999e-06 0.762495
2101 1 40.6508 14.1976 -8.28241 0 2.76345 2 0 4.53999e-06 -0.924393
1870 1 40.1226 15.1863 -7.56392 0 2.61306 2 0 4.54e-06 -0.96249
1865 1 40.6198 15.181 -8.37495 0 2.77254 2 0 4.53999e-06 -0.784504
1469 1 40.8366 14.5276 -7.43399 0 2.68843 1 0 4.54e-06 -0.913261
1142 1 41.4458 15.4283 -7.90793 0 3.00298 2 0 4.53999e-06 0.489931
1196 1 42.3108 13.9583 -8.26528 0 3.28066 2 0 4.53999e-06 0.748693
900 1 41.5345 13.8145 -7.68449 0 2.84635 1 0 4.53999e-06 0.44947
1143 1 41.6763 14.6308 -8.38199 0 3.05071 2 0 4.53999e-06 0.681347
4521 1 42.5556 15.1544 -8.4419 0 3.47238 2 0 4.53999e-06 0.637708
4544 1 43.0664 14.3691 -7.81333 0 3.50996 2 0 4.53999e-06 0.924272
8451 1 41.8706 14.7083 -7.36337 0 2.91962 1 0 4.53999e-06 0.924507
4109 1 43.1042 15.2686 -7.35411 0 3.55402 2 0 4.53999e-06 0.921639
1199 1 39.8967 11.768 -5.4389 0 2.47031 2 0 4.54001e-06 -0.884809
2547 1 40.0423 11.3323 -6.47858 0 2.51653 2 0 4.54e-06 -0.439403
1008 1 40.6244 10.9685 -5.27503 0 2.61895 2 0 4.54e-06 0.324356
952 1 41.4169 11.7533 -5.96192 0 2.70915 2 0 4.53999e-06 0.446903
2151 1 40.3884 12.2814 -6.62693 0 2.51918 2 0 4.54e-06 -0.787348
1562 1 41.3928 12.2229 -6.95973 0 2.64631 2 0 4.54e-06 0.31161
1922 1 40.5588 12.5005 -5.58668 0 2.46721 1 0 4.54001e-06 -0.863587
2551 1 40.2679 13.1972 -6.14965 0 2.44236 2 0 4.54002e-06 -0.974776
2105 1 40.6277 13.5791 -7.07491 0 2.58085 1 0 4.54e-06 -0.939063
2153 1 41.1059 12.9168 -6.47462 0 2.57626 1 0 4.54e-06 -0.281939
1928 1 41.0519 13.4064 -5.68943 0 2.48335 1 0 4.54001e-06 -0.599971
3522 1 41.4355 12.7141 -5.41241 0 2.53804 1 0 4.54e-06 0.442722
3630 1 42.2746 12.4912 -6.13496 0 2.98731 2 0 4.53999e-06 0.705413
903 1 41.9685 13.4911 -5.8709 0 2.65648 1 0 4.54e-06 0.930417
1201 1 41.8896 13.1595 -6.84225 0 2.7667 1 0 4.53999e-06 0.678528
4522 1 43.2905 13.7221 -7.02965 0 3.45308 2 0 4.53999e-06 0.968603
4113 1 42.8818 13.4074 -6.12856 0 3.12882 2 0 4.53999e-06 0.932256
6588 1 39.3384 15.3037 -6.86334 0 2.43781 2 0 4.54002e-06 -0.951685
6973 1 39.3533 15.3103 -5.62412 0 2.34219 2 0 4.54006e-06 -0.922152
2457 1 40.512 14.0472 -5.94311 0 2.42383 1 0 4.54002e-06 -0.912032
2104 1 40.052 14.7953 -5.79855 0 2.37941 1 0 4.54004e-06 -0.943105
2460 1 40.21 14.4912 -6.74146 0 2.49324 1 0 4.54001e-06 -0.891229
1149 1 41.2902 14.0154 -6.43714 0 2.5933 1 0 4.54e-06 0.0723646
3632 1 40.9853 14.9634 -6.29532 0 2.55531 1 0 4.54e-06 -0.0022105
9333 1 41.7227 14.5518 -5.76622 0 2.6114 1 0 4.54e-06 0.793697
4545 1 42.2129 14.0721 -6.70301 0 2.86293 1 0 4.53999e-06 0.981005
9330 1 41.8043 15.3438 -6.63912 0 2.82118 1 0 4.53999e-06 0.523882
4130 1 42.6451 14.903 -6.49818 0 3.17363 2 0 4.53999e-06 0.945052
4114 1 42.8438 14.3348 -5.62904 0 3.01833 2 0 4.53999e-06 0.988444
9222 1 42.3096 15.3574 -5.63448 0 2.96859 2 0 4.53999e-06 0.792232
1195 1 39.2754 10.9885 -5.10395 0 2.44367 2 0 4.54002e-06 -0.562012
1253 1 38.5711 11.0547 -4.02239 0 2.29368 2 0 4.5401e-06 -0.583669
1976 1 39.2732 11.7701 -4.42232 0 2.31869 2 0 4.54008e-06 -0.752279
3519 1 40.8301 11.9061 -4.89603 0 2.48767 2 0 4.54001e-06 0.299937
4325 1 40.1972 11.3092 -4.14128 0 2.43282 2 0 4.54002e-06 0.188342
2598 1 38.7291 12.4868 -3.86301 0 2.1328 2 0 4.54054e-06 -0.765104
2553 1 39.7604 12.9467 -4.16975 0 2.21482 1 0 4.54023e-06 -0.831664
955 1 40.2927 12.2317 -3.95489 0 2.34972 1 0 4.54006e-06 -0.356291
4417 1 41.3918 12.2832 -4.20133 0 2.64169 2 0 4.54e-06 0.574945
4518 1 40.8471 13.3951 -3.80493 0 2.31209 1 0 4.54008e-06 -0.00820404
954 1 40.7365 12.7791 -4.57793 0 2.38751 1 0 4.54004e-06 -0.559149
1148 1 40.8654 13.5076 -4.7353 0 2.3683 1 0 4.54004e-06 -0.72095
4519 1 41.5593 13.0766 -3.84523 0 2.4293 1 0 4.54002e-06 0.710793
4520 1 41.7622 13.216 -4.73994 0 2.50258 1 0 4.54001e-06 0.819258
4587 1 42.3536 12.6508 -4.99637 0 2.84539 2 0 4.53999e-06 0.787123
3870 1 42.6127 13.3523 -4.08646 0 2.7776 2 0 4.53999e-06 0.934734
7205 1 39.5721 14.6712 -4.88104 0 2.25874 1 0 4.54015e-06 -0.869959
2656 1 38.8375 13.7775 -3.56089 0 2.02677 2 0 4.54157e-06 -0.848016
7204 1 39.6966 14.2427 -3.78263 0 2.15409 1 0 4.54043e-06 -0.915685
6608 1 39.7297 15.0765 -3.75416 0 2.20481 1 0 4.54026e-06 -0.319795
7203 1 38.885 15.0952 -4.46268 0 2.26457 2 0 4.54014e-06 -0.646669
1869 1 40.2184 13.7208 -4.13769 0 2.2332 1 0 4.54019e-06 -0.910131
1866 1 40.2808 14.0567 -5.05277 0 2.31686 1 0 4.54008e-06 -0.903039
3629 1 40.8372 14.7297 -5.27084 0 2.41412 1 0 4.54003e-06 -0.359768
1466 1 40.3549 14.5644 -4.34157 0 2.27617 1 0 4.54012e-06 -0.842747
8448 1 41.0397 14.1583 -4.01104 0 2.34042 1 0 4.54006e-06 0.314231
9220 1 41.0582 14.9324 -4.24608 0 2.37671 1 0 4.54004e-06 0.216447
3631 1 41.2636 14.0573 -5.09332 0 2.44022 1 0 4.54002e-06 0.604514
9329 1 41.4363 15.3112 -5.07145 0 2.52547 1 0 4.54e-06 0.322592
4548 1 41.797 13.8708 -4.05827 0 2.45777 1 0 4.54001e-06 0.872746
9334 1 41.7362 14.5893 -4.60401 0 2.50145 1 0 4.54001e-06 0.819404
9218 1 41.8818 15.2637 -3.8322 0 2.71331 2 0 4.53999e-06 0.581408
4125 1 42.1256 13.9574 -5.06399 0 2.57806 1 0 4.54e-06 0.997595
8739 1 42.4446 14.4169 -3.70653 0 2.7564 2 0 4.53999e-06 0.855193
8992 1 42.6032 14.8962 -4.70573 0 2.88276 2 0 4.53999e-06 0.928482
1681 1 35.7824 10.8693 -1.8183 0 2.06184 2 0 4.5411e-06 -0.70253
1688 1 36.4866 11.4254 -2.111 0 1.9975 2 0 4.54211e-06 -0.692278
1685 1 37.9513 11.3338 -3.00296 0 2.12765 2 0 4.54057e-06 -0.273702
2452 1 37.0493 11.7917 -2.8002 0 2.0248 2 0 4.5416e-06 -0.485943
1259 1 37.2452 10.9078 -2.29131 0 2.0701 2 0 4.54102e-06 -0.123918
1011 1 37.4504 11.4337 -1.70192 0 2.01446 2 0 4.54178e-06 0.183389
4326 1 38.2398 11.131 -1.98907 0 2.13336 2 0 4.54054e-06 0.335695
2202 1 36.5061 12.055 -1.51175 0 1.91473 2 0 4.54483e-06 -0.635319
1569 1 37.676 12.0956 -2.253 0 2.00871 2 0 4.54188e-06 -0.359383
3425 1 38.98 11.2598 -3.13869 0 2.24381 2 0 4.54017e-06 0.0155971
1010 1 39.4521 12.0858 -3.36475 0 2.24116 1 0 4.54018e-06 -0.633477
1255 1 38.5397 11.8214 -2.4337 0 2.12318 2 0 4.54059e-06 0.13456
4630 1 39.9037 11.3485 -2.81197 0 2.35687 2 0 4.54005e-06 0.335561
4229 1 39.5989 11.7676 -1.94589 0 2.44316 2 0 4.54002e-06 0.600271
4588 1 40.7862 11.7293 -3.26484 0 2.64278 2 0 4.54e-06 0.509134
1566 1 38.1115 12.4976 -1.66299 0 1.9787 1 0 4.54255e-06 -0.356862
2599 1 38.4291 12.9263 -2.85519 0 1.99564 2 0 4.54215e-06 -0.760337
3521 1 38.9776 12.462 -2.23791 0 2.10957 1 0 4.54068e-06 0.0292048
1923 1 39.2984 13.5517 -1.7407 0 1.98224 1 0 4.54246e-06 0.0450961
1926 1 39.5591 12.9111 -2.53778 0 2.1078 1 0 4.5407e-06 -0.500261
2552 1 39.7576 13.4581 -3.22211 0 2.11249 1 0 4.54066e-06 -0.881846
4420 1 40.2803 12.2709 -2.46179 0 2.46144 2 0 4.54001e-06 0.546516
901 1 40.4126 13.2775 -2.36692 0 2.16083 1 0 4.54041e-06 0.505978
4227 1 41.5533 12.428 -3.10212 0 2.64214 2 0 4.54e-06 0.66324
3520 1 40.6074 12.7312 -3.19438 0 2.3062 1 0 4.54009e-06 0.252932
4546 1 41.3749 13.2929 -2.64431 0 2.4858 2 0 4.54001e-06 0.620684
3213 1 42.2311 13.59 -3.04573 0 2.67495 2 0 4.54e-06 0.784637
6590 1 38.2445 14.4385 -2.1587 0 1.9708 1 0 4.54276e-06 -0.613311
7376 1 37.5094 14.8621 -2.68838 0 2.12965 2 0 4.54056e-06 -0.524503
7374 1 37.6149 14.7661 -1.62936 0 1.95827 1 0 4.54312e-06 -0.615564
6972 1 39.0921 14.1739 -2.13799 0 1.98466 1 0 4.5424e-06 -0.59932
4516 1 40.0448 14.1396 -2.36689 0 2.0928 1 0 4.54081e-06 0.97584
6304 1 39.4768 14.4661 -2.94544 0 2.0838 1 0 4.54089e-06 -0.804644
6301 1 39.0788 14.9689 -2.27795 0 2.05359 1 0 4.5412e-06 -0.2098
8546 1 39.8361 15.1522 -1.89074 0 2.11454 1 0 4.54065e-06 0.589712
6970 1 38.7198 14.7538 -3.29633 0 2.12797 1 0 4.54057e-06 -0.726482
3873 1 41.0561 13.9804 -1.95901 0 2.40522 2 0 4.54003e-06 0.782429
902 1 40.6646 13.9034 -3.10342 0 2.22602 1 0 4.54021e-06 0.526841
7555 1 40.402 14.7251 -3.17384 0 2.20398 1 0 4.54026e-06 0.496905
9221 1 41.6182 14.4216 -2.92227 0 2.56233 2 0 4.54e-06 0.684508
8944 1 41.1347 15.0313 -2.2762 0 2.52521 2 0 4.54e-06 0.827599
1 1 0.116341 1.10259 0.464337 4 3.94075e-06 2 0 0.0994487 -0.68194
5 1 0.729896 0.0633724 0.61602 4 3.546e-06 3 0 0.0994487 -0.190374
9 1 2.52093 0.749102 0.203812 4 1.31165e-05 2 0 0.0994487 -0.142938
6 1 1.71015 0.808983 1.0155 4 9.02932e-06 2 0 0.0994487 -0.332067
10 1 2.59149 0.0538711 1.03726 4 1.26768e-05 2 0 0.0994487 -0.295003
16 1 4.10576 0.858321 0.325305 4 3.94384e-05 2 0 0.0994487 0.15315
20 1 3.47612 0.111428 0.171027 4 1.84915e-05 2 0 0.0994487 0.166216
13 1 3.43386 0.933692 0.956349 4 2.61685e-05 2 0 0.0994487 0.320251
17 1 4.96159 0.56786 1.17466 4 7.16044e-05 2 0 0.0994487 -0.0370611
21 1 5.64741 0.645627 0.325839 4 0.000110874 2 0 0.0994487 -0.0806005
26 1 6.7138 0.39031 0.865278 4 0.000198197 2 0 0.0994487 -0.0793754
32 1 7.58247 0.647807 0.140287 4 0.000326584 2 0 0.0994487 -0.11093
28 1 8.2679 0.408875 1.07337 4 0.000438889 2 0 0.0994487 -0.100156
33 1 8.85849 0.508506 0.273966 4 0.000590571 2 0 0.0994487 -0.0616382
34 1 9.55301 0.3386 0.888639 4 0.000800788 2 0 0.0994487 0.00507659
43 1 10.2431 0.367861 0.0780499 4 0.000990239 2 0 0.0994487 0.149809
38 1 11.2128 0.215893 0.632658 4 0.00172092 2 0 0.0994487 0.203521
39 1 10.3637 1.04743 0.823114 4 0.00137264 2 0 0.0994487 0.53992
44 1 12.8757 0.211714 0.636805 4 0.0040795 2 0 0.0994487 0.0588061
45 1 12.0457 1.07408 0.506655 4 0.00345664 2 0 0.0994487 -0.0235274
49 1 13.5924 1.113 0.843618 4 0.00748602 2 0 0.0994487 -0.262994
59 1 15.1049 0.711806 0.0677822 4 0.0110995 2 0 0.0994487 0.169215
48 1 14.3729 0.318493 0.764646 4 0.00836196 2 0 0.0994487 -0.0460204
54 1 15.7061 0.770636 0.788259 4 0.016772 2 0 0.0994487 0.366518
60 1 17.2544 0.732268 0.547589 4 0.0376392 2 0 0.0994487 0.0286517
65 1 18.7918 0.725074 0.684829 4 0.0753683 2 0 0.0994487 -0.269936
64 1 19.5372 0.0167772 0.662766 4 0.0735871 2 0 0.0994487 0.0436598
71 1 20.2493 0.776373 0.980057 4 0.128308 2 0 0.0994487 -0.0492311
73 1 21.1874 0.765598 0.218806 4 0.139526 2 0 0.0994487 -0.0446109
75 1 22.0087 0.262534 0.539755 4 0.157189 2 0 0.0994487 0.0991984
70 1 21.0889 0.349843 1.06749 4 0.149849 2 0 0.0994487 -0.202868
79 1 22.9157 1.07463 0.445168 4 0.214719 2 0 0.0994487 0.0524701
81 1 23.5672 0.357563 0.57369 4 0.212455 2 0 0.0994487 0.0381728
84 1 24.955 0.315686 0.551996 4 0.248235 2 0 0.0994487 -0.0168193
82 1 24.4367 1.18687 0.754729 0 0.295073 2 0 0.0991367 -0.0199897
88 1 25.8917 0.929212 0.432102 0 0.288174 2 0 0.099194 -0.0953141
93 1 26.7925 0.240345 0.226621 4 0.239029 2 0 0.0994487 0.0380821
85 1 26.0085 0.383365 1.1715 0 0.312 2 0 0.0989786 -0.181196
91 1 26.7559 1.02809 1.26347 0 0.354105 2 0 0.0984488 -0.272139
90 1 27.6142 0.50928 0.874321 0 0.282002 2 0 0.0992421 0.175875
98 1 29.2734 0.3547 0.615275 4 0.169 2 0 0.0994487 -0.0816785
100 1 30.7016 0.49015 0.470738 4 0.117222 2 0 0.0994487 0.354855
99 1 31.5874 0.266128 1.25663 4 0.0714691 3 0 0.0994487 0.830097
103 1 1.11081 2.43607 0.129285 4 8.61386e-06 2 0 0.0994487 -0.0373215
2 1 0.974108 1.6685 0.77798 4 7.17415e-06 2 0 0.0994487 -0.51703
104 1 0.133403 2.3821 0.812241 4 6.16887e-06 2 0 0.0994487 -0.984517
7 1 1.80059 1.47468 0.221075 4 1.02098e-05 2 0 0.0994487 -0.125828
113 1 2.7261 2.38168 0.0557193 4 2.13356e-05 2 0 0.0994487 0.146602
11 1 2.64922 1.541 0.882848 4 1.83283e-05 2 0 0.0994487 0.235766
109 1 1.90972 2.41867 0.78376 4 1.48718e-05 2 0 0.0994487 0.0782131
114 1 3.38195 2.55413 0.779289 4 4.16372e-05 2 0 0.0994487 0.211589
18 1 4.91949 1.59987 0.383508 4 8.8469e-05 2 0 0.0994487 -0.100243
115 1 4.00679 1.841 0.711184 4 5.14236e-05 2 0 0.0994487 -0.0361165
116 1 4.91383 2.57277 0.815661 4 0.000120524 2 0 0.0994487 -0.259338
23 1 6.57478 1.39104 0.218369 4 0.000225612 2 0 0.0994487 -0.0861269
119 1 5.65047 2.44269 0.132743 4 0.000177701 2 0 0.0994487 -0.189921
124 1 6.65033 2.92778 0.134227 4 0.000348305 2 0 0.0994487 0.0288927
22 1 5.88414 1.31048 0.938036 4 0.000149102 2 0 0.0994487 -0.199543
120 1 6.55776 2.18062 0.772597 4 0.000282147 2 0 0.0994487 -0.289328
30 1 8.24709 1.39092 0.236779 4 0.000546188 2 0 0.0994487 -0.0460543
125 1 7.45405 2.22586 0.139832 4 0.000463 2 0 0.0994487 -0.0534944
130 1 8.26934 2.9712 0.0392146 4 0.000954541 2 0 0.0994487 -0.15061
29 1 7.36782 1.22285 0.954198 4 0.000336 2 0 0.0994487 -0.302506
126 1 8.08209 2.20208 0.930382 4 0.00066708 2 0 0.0994487 -0.302004
37 1 9.63995 1.37474 0.0900752 4 0.00100171 2 0 0.0994487 0.0993001
131 1 8.90393 2.08699 0.252387 4 0.000941332 2 0 0.0994487 0.00244518
135 1 9.56096 2.90576 0.21312 4 0.00174428 2 0 0.0994487 0.173131
35 1 9.02586 1.30716 1.1133 4 0.000793053 2 0 0.0994487 -0.0606076
132 1 9.77243 2.0246 1.10996 4 0.00144889 2 0 0.0994487 0.173517
133 1 8.92671 2.97262 0.928693 4 0.00138862 2 0 0.0994487 -0.156676
136 1 10.2834 2.1137 0.214297 4 0.00171448 2 0 0.0994487 0.337749
137 1 11.1583 1.82604 0.771092 4 0.00272266 2 0 0.0994487 0.260126
138 1 10.6214 2.80819 0.921535 4 0.00304517 2 0 0.0994487 0.541966
140 1 12.6737 1.94118 0.593851 4 0.00647331 2 0 0.0994487 -0.283895
152 1 13.4137 2.29398 0.0590902 4 0.0100995 2 0 0.0994487 -0.280945
141 1 11.928 2.64099 0.742299 4 0.00563235 2 0 0.0994487 -0.0386348
50 1 14.0399 1.55958 0.167469 4 0.0102001 2 0 0.0994487 -0.0898064
150 1 14.8418 2.51505 0.136557 4 0.0197409 2 0 0.0994487 0.173029
53 1 14.8761 1.55337 0.662943 4 0.0142646 2 0 0.0994487 0.390004
146 1 14.0206 2.44438 0.927124 4 0.0139139 2 0 0.0994487 -0.132953
55 1 16.5532 1.54451 0.681338 4 0.0349536 2 0 0.0994487 0.000853888
153 1 15.6993 2.44373 0.692668 4 0.0304072 2 0 0.0994487 0.364465
61 1 17.9231 1.58109 0.757246 4 0.0698651 2 0 0.0994487 0.0415875
158 1 17.0646 2.35032 0.682778 4 0.0605475 2 0 0.0994487 0.0235091
159 1 17.944 2.92608 0.699539 4 0.112481 2 0 0.0994487 -0.230684
74 1 20.3457 1.51479 0.193617 4 0.140005 2 0 0.0994487 -0.0805675
165 1 19.587 2.34239 0.101452 4 0.144217 2 0 0.0994487 -0.132357
66 1 19.5395 1.55488 0.841653 4 0.130833 2 0 0.0994487 -0.335813
162 1 18.8908 2.35742 1.01358 4 0.140533 2 0 0.0994487 -0.516867
168 1 20.1948 2.46882 1.11433 4 0.202708 2 0 0.0994487 0.433377
78 1 21.9982 1.59955 0.538558 4 0.208591 2 0 0.0994487 0.182477
167 1 21.1565 2.41663 0.458355 4 0.216659 2 0 0.0994487 0.192472
72 1 21.1062 1.65725 0.951506 4 0.193735 2 0 0.0994487 0.578424
173 1 22.0961 2.49917 1.23787 0 0.31269 2 0 0.0989714 0.368613
176 1 23.7438 1.80844 0.624025 0 0.306519 2 0 0.0990326 -0.0860737
172 1 22.9717 2.60199 0.735523 0 0.336797 2 0 0.0986932 0.129631
181 1 24.9562 2.84566 0.0146836 0 0.405468 2 0 0.0974233 -0.0864528
183 1 25.1322 1.85613 0.509414 0 0.355189 2 0 0.0984319 -0.0228153
178 1 24.342 2.68296 0.775192 0 0.418647 2 0 0.0970667 -0.311237
182 1 26.5483 1.79415 0.511367 0 0.35209 2 0 0.0984794 -0.00405592
184 1 25.7918 2.61203 0.707489 0 0.441574 2 0 0.0963277 0.213607
191 1 27.0867 2.6924 0.645359 0 0.435729 2 0 0.096532 -0.102954
89 1 27.5736 1.28032 0.38906 0 0.295892 2 0 0.0991297 0.0455074
190 1 28.2489 2.09022 0.343734 0 0.33617 2 0 0.0987014 -0.0176783
94 1 28.6489 1.24263 0.742341 0 0.2691 2 0 0.0993334 0.102365
189 1 27.5039 1.98546 1.23792 0 0.402236 2 0 0.0975042 -0.191481
193 1 28.2537 2.75799 1.20639 0 0.474543 2 0 0.0949382 -0.557608
197 1 29.1956 2.6589 0.290703 0 0.347518 2 0 0.0985468 -0.0577716
204 1 30.4116 1.90909 0.0255368 4 0.21375 2 0 0.0994487 0.106055
101 1 30.1009 1.19877 0.774133 4 0.191596 2 0 0.0994487 0.210916
196 1 29.4477 2.04702 0.879698 0 0.309363 2 0 0.099005 -0.00544775
200 1 30.1815 2.71094 1.00186 0 0.355297 2 0 0.0984304 0.708844
205 1 31.1434 2.66402 0.0761253 0 0.250613 2 0 0.0994456 0.708828
199 1 30.9114 1.98502 0.924207 4 0.241126 2 0 0.0994487 0.967238
108 1 0.332248 3.09582 0.131296 4 7.70909e-06 2 0 0.0994487 -0.59134
207 1 0.143046 4.59443 0.482118 4 1.19077e-05 2 0 0.0994487 -0.784494
210 1 1.04069 3.86421 0.0595682 4 1.34906e-05 2 0 0.0994487 0.014888
105 1 1.28845 3.23764 0.949187 4 1.36725e-05 2 0 0.0994487 0.222098
206 1 0.293831 3.78503 0.918557 4 1.02372e-05 2 0 0.0994487 -0.999347
208 1 1.14036 4.67093 0.986638 4 2.05645e-05 2 0 0.0994487 -0.516756
213 1 2.64953 4.14475 0.20674 4 4.70024e-05 2 0 0.0994487 -0.0285712
110 1 2.65852 3.28029 0.860875 4 3.4208e-05 2 0 0.0994487 0.0668079
211 1 1.84117 4.04604 0.847105 4 2.64558e-05 2 0 0.0994487 0.00827149
219 1 4.26027 4.18509 0.149001 4 0.000135918 2 0 0.0994487 0.0377401
220 1 5.00947 4.74001 0.341082 4 0.000267373 2 0 0.0994487 0.0765431
117 1 4.20148 3.3175 0.749446 4 9.83346e-05 2 0 0.0994487 0.00622091
216 1 3.494 4.07675 0.885909 4 8.04286e-05 2 0 0.0994487 0.0269004
217 1 4.91235 4.00001 1.18344 4 0.000197502 2 0 0.0994487 0.011527
221 1 5.77735 3.9378 0.198707 4 0.000303476 2 0 0.0994487 0.0260196
121 1 5.64874 3.19593 0.952489 4 0.000234399 2 0 0.0994487 -0.754603
222 1 6.48883 3.76611 0.772067 4 0.000459586 2 0 0.0994487 0.204567
223 1 5.68025 4.73638 1.02487 4 0.000421484 2 0 0.0994487 -0.62162
227 1 7.40842 4.46072 0.5468 4 0.00107388 2 0 0.0994487 -0.0252029
127 1 7.40132 3.06835 0.934051 4 0.00062263 2 0 0.0994487 -0.0454359
226 1 8.1982 3.892 0.700757 4 0.00137979 2 0 0.0994487 -0.369881
232 1 9.86266 4.50302 0.126324 4 0.00374522 2 0 0.0994487 0.0958758
235 1 8.98541 3.86821 0.0631775 4 0.00198143 2 0 0.0994487 -0.138747
230 1 9.8976 3.57792 0.885667 4 0.00291806 2 0 0.0994487 0.592887
231 1 9.07913 4.56551 0.821335 4 0.00284449 2 0 0.0994487 -0.658513
238 1 11.3867 4.69403 0.230734 4 0.0093364 2 0 0.0994487 -0.049874
242 1 10.5826 3.84888 0.176129 4 0.00433071 2 0 0.0994487 0.210477
236 1 11.408 3.64493 0.778297 4 0.00642933 2 0 0.0994487 0.202101
237 1 10.5891 4.66652 0.906264 4 0.0062745 2 0 0.0994487 0.0451783
247 1 12.6435 4.61885 0.0632315 4 0.0167044 2 0 0.0994487 -0.0335605
144 1 13.1791 3.03035 0.848852 4 0.0118758 2 0 0.0994487 -0.440775
243 1 12.5168 3.57716 0.814749 4 0.0107422 2 0 0.0994487 -0.0105248
244 1 12.1916 4.55033 1.00021 4 0.0131018 2 0 0.0994487 0.105192
246 1 13.2258 4.67863 0.80017 4 0.0220987 2 0 0.0994487 -0.00456964
151 1 14.1591 3.2262 0.0325348 4 0.0194571 2 0 0.0994487 -0.246086
254 1 14.961 4.19423 0.096508 4 0.0379208 2 0 0.0994487 0.0323025
148 1 14.6961 3.43698 0.884932 4 0.0273338 2 0 0.0994487 -0.332671
248 1 13.9891 4.12825 0.69648 4 0.0259861 2 0 0.0994487 -0.430092
157 1 15.5706 3.25854 0.0192499 4 0.0336037 2 0 0.0994487 0.290259
256 1 15.8798 4.77595 0.186426 4 0.0686755 2 0 0.0994487 0.165438
154 1 16.3029 3.20095 0.662084 4 0.0532795 2 0 0.0994487 0.32866
255 1 15.6685 4.06642 0.926277 4 0.0531 2 0 0.0994487 0.872623
257 1 16.5936 4.58036 0.900182 4 0.0975045 2 0 0.0994487 -0.079218
263 1 17.4569 4.57727 0.0147963 4 0.125205 2 0 0.0994487 -0.0973775
264 1 18.1348 3.8547 0.0583493 4 0.136514 2 0 0.0994487 -0.120499
260 1 17.2689 3.83372 0.811237 4 0.11028 2 0 0.0994487 -0.344789
261 1 18.0864 4.48855 1.09806 4 0.177741 2 0 0.0994487 -0.822972
164 1 18.884 2.99607 0.196019 4 0.143917 2 0 0.0994487 -0.171795
266 1 18.8235 4.60949 0.361826 4 0.196079 2 0 0.0994487 0.115603
269 1 19.5987 3.76722 0.227421 4 0.195822 2 0 0.0994487 0.164122
163 1 19.7027 3.2427 1.27782 4 0.220863 2 0 0.0994487 0.419515
265 1 18.8779 3.70667 0.95022 4 0.185178 2 0 0.0994487 0.0406433
267 1 19.6906 4.67872 1.0803 0 0.275846 2 0 0.099287 0.920316
170 1 20.4222 2.99313 0.334941 4 0.204139 2 0 0.0994487 0.185138
174 1 21.9898 3.20043 0.598797 0 0.318396 2 0 0.0989114 -0.0667511
273 1 21.0824 3.93136 0.512408 0 0.300725 2 0 0.0990867 0.0838173
270 1 20.4384 3.82188 1.23329 0 0.287662 2 0 0.099198 0.43443
175 1 22.6771 3.40124 0.07601 0 0.345248 2 0 0.0985789 0.0761434
278 1 22.6119 4.34705 0.510028 0 0.428424 2 0 0.0967711 -0.0212222
279 1 23.5735 3.63903 0.782677 0 0.451246 2 0 0.0959637 0.166712
280 1 24.336 4.32055 0.625018 0 0.543416 2 0 0.09022 -0.13638
285 1 25.0629 3.68037 0.802132 0 0.531866 2 0 0.0912293 -0.187403
290 1 25.5284 4.40089 0.388179 0 0.576675 2 0 0.0866799 0.0529925
188 1 26.1686 3.50068 0.599043 0 0.521239 2 0 0.0920707 0.168068
294 1 27.0674 4.04323 0.570038 0 0.562964 2 0 0.0882626 0.0113749
194 1 27.982 3.21993 0.326384 0 0.44909 2 0 0.0960482 -0.124372
292 1 27.9624 3.97641 1.10408 0 0.600259 2 0 0.0835049 -0.506554
293 1 28.2771 4.73475 0.706344 0 0.620268 2 0 0.0803065 -0.074367
203 1 30.1092 3.25953 0.132205 0 0.345744 2 0 0.0985722 -0.0443254
295 1 28.9321 3.77016 0.487204 0 0.482158 2 0 0.0945509 -0.00525304
299 1 30.2046 4.67765 0.491317 0 0.535723 2 0 0.0909059 0.0155712
198 1 29.2495 3.2651 1.17365 0 0.484482 2 0 0.0944274 0.249263
297 1 29.9979 4.07209 1.02303 0 0.525018 2 0 0.0917824 -0.30586
298 1 31.0296 3.97382 0.373364 0 0.410142 2 0 0.0973026 0.657465
201 1 31.0247 3.35309 0.97101 0 0.408127 2 0 0.0973556 0.996719
301 1 0.908283 5.53205 0.461647 4 2.41021e-05 2 0 0.0994487 -0.463785
209 1 0.0884667 5.26681 1.27761 4 1.42935e-05 2 0 0.0994487 -0.887459
303 1 0.793684 6.22023 1.2768 4 2.80593e-05 2 0 0.0994487 -0.703381
214 1 1.89758 4.96895 0.278386 4 3.70558e-05 2 0 0.0994487 -0.153433
307 1 1.89588 6.19966 0.519025 4 5.32425e-05 2 0 0.0994487 -0.156399
311 1 2.68177 5.61289 0.273587 4 7.49798e-05 2 0 0.0994487 -0.059685
312 1 3.39503 6.28191 0.500536 4 0.000158244 2 0 0.0994487 -0.121444
212 1 2.54049 4.85585 1.13748 4 5.45822e-05 2 0 0.0994487 -0.333844
215 1 3.40771 4.86189 0.161635 4 9.67492e-05 2 0 0.0994487 -0.0163868
313 1 4.18979 5.46246 0.325783 4 0.00020257 2 0 0.0994487 0.0310191
316 1 4.82567 6.23357 0.333842 4 0.000404308 2 0 0.0994487 -0.0345747
218 1 4.04658 4.88002 1.14639 4 0.000149203 2 0 0.0994487 0.264494
315 1 4.13622 6.09659 1.22779 4 0.000252131 2 0 0.0994487 -0.0893881
319 1 5.78575 5.42185 0.301847 4 0.000555049 2 0 0.0994487 0.0125046
323 1 6.37773 6.04115 0.154639 4 0.000910175 2 0 0.0994487 0.111115
225 1 6.68072 5.1315 0.885352 4 0.000883375 2 0 0.0994487 0.206874
320 1 5.6935 6.24342 0.9632 4 0.000721479 2 0 0.0994487 -0.967755
331 1 7.33029 5.3575 0.0461812 4 0.00128686 2 0 0.0994487 0.0813608
325 1 8.21355 5.31419 0.694273 4 0.00236835 2 0 0.0994487 -0.0895728
326 1 7.32761 6.15925 0.754293 4 0.00186531 2 0 0.0994487 0.22574
337 1 9.76329 6.23201 0.0941385 4 0.00722421 2 0 0.0994487 -0.035948
338 1 8.99733 5.46479 0.012702 4 0.00364171 2 0 0.0994487 -0.134749
332 1 9.76796 5.3194 0.792562 4 0.00525443 2 0 0.0994487 0.328491
333 1 8.88016 6.18865 0.736908 4 0.00474796 2 0 0.0994487 -0.235529
340 1 11.3128 6.37134 0.0776634 4 0.0145945 2 0 0.0994487 0.100355
241 1 11.3894 5.27213 0.983682 4 0.0115991 2 0 0.0994487 -0.674403
339 1 10.5831 6.02196 0.964384 4 0.0104895 2 0 0.0994487 -0.35617
345 1 11.7774 6.20735 1.05291 4 0.0186397 2 0 0.0994487 0.292468
343 1 11.9994 5.6274 0.183157 4 0.0161054 2 0 0.0994487 -0.0105105
348 1 13.3212 5.53867 0.0424813 4 0.0296152 2 0 0.0994487 -0.142887
344 1 12.6757 5.81849 0.861776 4 0.0245249 2 0 0.0994487 0.0818427
253 1 14.1405 4.90647 0.0597868 4 0.0349354 2 0 0.0994487 -0.085664
351 1 14.1303 6.38483 0.0380077 4 0.0524795 2 0 0.0994487 -0.0825869
352 1 15.0282 5.64393 0.034369 4 0.060935 2 0 0.0994487 0.0573984
251 1 14.9402 5.01141 0.811699 4 0.0514265 2 0 0.0994487 -0.0517025
349 1 14.0617 5.71565 0.77266 4 0.0443843 2 0 0.0994487 -0.372387
354 1 15.0472 6.45091 0.806774 4 0.0846323 2 0 0.0994487 -0.176111
357 1 16.62 5.41933 0.276819 4 0.111711 2 0 0.0994487 0.079988
358 1 15.6753 6.3382 0.0390223 4 0.0950456 2 0 0.0994487 0.0398841
353 1 15.8305 5.73813 0.95832 4 0.0929239 2 0 0.0994487 0.626022
355 1 16.491 6.45257 1.1401 4 0.150681 2 0 0.0994487 0.179671
361 1 17.0619 6.27419 0.411469 4 0.161231 2 0 0.0994487 0.138281
359 1 17.8271 5.30128 0.541411 4 0.172942 2 0 0.0994487 0.149549
364 1 18.3714 6.23173 0.609762 4 0.244872 2 0 0.0994487 0.151648
360 1 17.113 5.42499 1.24767 4 0.154962 2 0 0.0994487 -0.344015
274 1 20.1339 4.78559 0.352846 0 0.280634 2 0 0.0992522 0.143217
365 1 19.429 5.75829 0.62055 0 0.298863 2 0 0.0991034 0.0457485
268 1 18.7859 5.27693 1.20102 0 0.257393 2 0 0.0994067 0.401959
373 1 21.6904 5.73259 0.0517844 0 0.445086 2 0 0.0961991 -0.0016359
272 1 21.5775 4.95128 0.810455 0 0.416993 2 0 0.0971137 -0.0292502
368 1 20.7494 5.77593 0.653722 0 0.401888 2 0 0.0975123 -0.0890151
283 1 23.5518 5.06386 0.533607 0 0.54804 2 0 0.0897861 -0.0835895
277 1 22.4705 5.17735 1.27286 0 0.527201 2 0 0.0916079 -0.081283
374 1 22.6732 5.8279 0.674154 0 0.545468 2 0 0.0900294 0.00453853
282 1 24.8518 5.25716 0.566763 0 0.625543 2 0 0.0793776 0.0409601
379 1 24.1457 6.00685 0.427617 0 0.635836 2 0 0.0774642 0.00338117
378 1 24.3197 6.56281 1.15825 0 0.711376 2 0 0.0589609 0.329819
289 1 26.5026 4.97257 0.640732 0 0.643841 2 0 0.0758783 0.099512
380 1 25.6831 5.86213 0.700952 0 0.696422 2 0 0.0632375 0.150325
386 1 26.7485 6.36567 0.651888 0 0.736048 2 0 0.0513631 0.0376423
393 1 28.4685 6.20589 0.638647 0 0.698629 2 0 0.0626273 -0.257061
395 1 28.4822 5.38976 0.0592959 0 0.619877 2 0 0.0803741 -0.105095
385 1 27.4966 5.54334 0.722172 0 0.685979 2 0 0.0660545 -0.233264
394 1 29.3762 6.15398 0.0801838 0 0.648197 2 0 0.0749816 0.0964491
390 1 29.3889 5.30889 0.818726 0 0.666059 2 0 0.0710126 0.156232
398 1 30.3958 6.18258 0.649752 0 0.691218 2 0 0.0646661 0.287262
396 1 30.9636 5.36838 0.595026 0 0.605902 2 0 0.0826556 0.643988
401 1 31.7235 5.99622 0.446564 0 0.592447 2 0 0.0846282 0.868443
305 1 0.969942 6.9454 0.573423 4 3.81358e-05 2 0 0.0994487 -0.473532
406 1 1.59266 7.76478 0.37187 4 6.44544e-05 2 0 0.0994487 -0.089788
402 1 0.261851 7.63199 0.661866 4 3.22064e-05 2 0 0.0994487 -0.876373
408 1 2.48799 7.14986 0.476331 4 0.000105983 2 0 0.0994487 -0.0836961
412 1 3.24418 7.77117 0.327041 4 0.00020673 2 0 0.0994487 -0.196205
310 1 3.25442 6.96226 1.12748 4 0.000172264 2 0 0.0994487 -0.0541235
306 1 1.7053 7.02884 1.23811 4 5.69302e-05 2 0 0.0994487 0.0665183
410 1 2.39416 7.81099 1.27726 4 0.000111471 2 0 0.0994487 0.0869916
318 1 4.00267 7.02511 0.221759 4 0.000289876 2 0 0.0994487 -0.0853437
416 1 4.67023 7.63706 0.247803 4 0.000507667 2 0 0.0994487 0.0376917
317 1 4.77312 6.79931 1.15967 4 0.000487448 2 0 0.0994487 -0.30593
414 1 3.97971 7.67009 1.24863 4 0.000334749 2 0 0.0994487 -0.0554891
415 1 4.70459 8.25653 0.921772 4 0.00060807 2 0 0.0994487 0.295326
324 1 5.54993 7.05206 0.147147 4 0.000778644 2 0 0.0994487 0.0363865
418 1 5.86955 8.34822 0.169905 4 0.00126401 2 0 0.0994487 0.113104
420 1 6.49365 7.53799 0.169175 4 0.00162024 2 0 0.0994487 0.187623
322 1 6.43234 6.86927 1.00965 4 0.0013943 2 0 0.0994487 0.851666
419 1 5.48363 7.59071 1.03232 4 0.000937389 2 0 0.0994487 -0.467668
421 1 6.39674 8.23976 1.04384 4 0.00201958 2 0 0.0994487 0.338147
426 1 7.99895 7.60312 0.0282118 4 0.00420269 2 0 0.0994487 0.0674131
329 1 8.01352 6.85364 0.728993 4 0.00370961 2 0 0.0994487 0.0691918
422 1 7.28583 7.76918 0.746313 4 0.00326399 2 1 0.0994487 0.00992341
423 1 8.2859 8.31376 0.868772 4 0.00705344 2 2 0.0994487 0.278116
427 1 9.84313 7.22199 0.72344 4 0.0115473 2 1 0.0994487 -0.346937
428 1 8.91207 7.61626 0.661731 4 0.00790663 2 1 0.0994487 0.158508
341 1 10.5187 6.94145 0.15452 4 0.0130873 2 0 0.0994487 -0.0735236
436 1 11.227 8.11851 0.0422735 4 0.024206 2 0 0.0994487 0.174344
432 1 11.3161 7.14287 0.810636 4 0.021109 2 1 0.0994487 0.448677
433 1 10.5731 7.9454 0.844311 4 0.0204176 2 3 0.0994487 -0.197683
437 1 12.7061 7.28322 0.565784 4 0.0433099 2 0 0.0994487 -0.0531016
438 1 12.178 8.23518 0.590765 4 0.0434828 2 2 0.0994487 0.163914
347 1 13.3506 6.58297 0.813679 4 0.0447189 2 0 0.0994487 -0.292034
443 1 13.6169 8.09282 0.464536 4 0.076485 2 2 0.0994487 0.0238445
442 1 14.3373 7.3542 0.580954 4 0.0829361 2 0 0.0994487 0.0649576
448 1 15.0689 8.29247 0.865596 4 0.142857 2 2 0.0994487 -0.311941
446 1 16.4328 7.18497 0.276798 4 0.16079 2 0 0.0994487 -0.062548
451 1 15.8668 8.31534 0.152632 4 0.168171 2 0 0.0994487 -0.185295
447 1 15.6276 7.3114 0.923132 4 0.139242 2 1 0.0994487 -0.437891
449 1 16.26 8.16052 1.11176 4 0.196002 1 1 0.0994487 -0.147269
452 1 16.977 7.36262 1.11681 4 0.209914 2 0 0.0994487 0.431085
453 1 17.0683 8.10487 0.342208 4 0.219614 2 0 0.0994487 0.0340237
455 1 17.816 7.16593 0.212954 4 0.23222 2 0 0.0994487 0.0860779
460 1 18.4485 8.18989 0.168602 0 0.30482 2 0 0.0990487 0.0404392
363 1 18.2745 7.0517 1.13153 0 0.277401 2 0 0.0992758 0.80831
454 1 17.7028 8.02362 1.02668 0 0.267348 2 0 0.0993448 0.843338
367 1 19.9942 6.75229 0.610261 0 0.393265 2 0 0.0977149 -0.00680983
459 1 19.8034 8.14191 0.360639 0 0.412142 2 0 0.097248 0.110133
456 1 19.0043 7.33822 0.644529 0 0.32949 2 0 0.0987845 0.177479
457 1 18.9276 8.15323 1.18624 0 0.366987 2 0 0.0982373 0.00752335
464 1 21.6115 8.34459 0.258573 0 0.563746 2 0 0.0881757 -0.0505996
371 1 21.6592 6.66248 0.666524 0 0.523686 2 0 0.0918833 -0.0452822
461 1 20.6988 7.46059 0.673449 0 0.48488 2 0 0.0944044 -0.0284285
463 1 21.5411 7.67297 1.15048 0 0.58054 1 0 0.0861994 -0.119939
376 1 23.3484 6.78052 0.267835 0 0.631755 2 0 0.0782395 -0.125378
467 1 22.3364 7.48462 0.386381 0 0.599398 2 0 0.0836294 -0.09795
469 1 23.4881 8.07549 0.386864 0 0.684271 2 0 0.0664986 -0.0350517
375 1 22.6319 6.69333 1.20734 0 0.623884 2 0 0.0796724 -0.284886
465 1 22.5864 8.17833 1.02102 0 0.656584 1 0 0.0731684 -0.0400157
468 1 23.4446 7.32194 1.0516 0 0.69237 1 0 0.0643461 -0.240536