ITEM: TIMESTEP
23000
ITEM: NUMBER OF ATOMS
9495
ITEM: BOX BOUNDS mm mm mm
0.0000000000000000e+00 3.5904540341602235e+01
0.0000000000000000e+00 3.1748021039364001e+01
-3.8523446502528336e-01 3.1748021039364001e+01
ITEM: ATOMS id type x y z c_phase c_temp c_surf c_nbond c_visc f_3[1]
1 1 0.116341 1.10259 0.464337 4 3.57451e-07 2 0 0.0994487 -0.68194
2 1 0.974108 1.6685 0.77798 4 7.53813e-07 2 0 0.0994487 -0.517028
4 1 0.00336375 1.60273 1.37437 4 4.17622e-07 2 0 0.0994487 -0.804051
5 1 0.729896 0.0633724 0.61602 4 3.19288e-07 3 0 0.0994487 -0.190373
6 1 1.71015 0.808983 1.0155 4 9.95912e-07 2 0 0.0994487 -0.332065
7 1 1.80059 1.47468 0.221075 4 1.15394e-06 2 0 0.0994487 -0.125827
9 1 2.52093 0.749102 0.203812 4 1.54831e-06 2 0 0.0994487 -0.142937
10 1 2.59149 0.0538711 1.03726 4 1.47043e-06 2 0 0.0994487 -0.295003
11 1 2.64922 1.541 0.882848 4 2.3412e-06 2 0 0.0994487 0.235774
13 1 3.43386 0.933692 0.956349 4 3.54594e-06 2 0 0.0994487 0.320258
16 1 4.10576 0.858321 0.325305 4 5.68986e-06 2 0 0.0994487 0.153152
17 1 4.96159 0.56786 1.17466 4 1.11998e-05 2 0 0.0994487 -0.0370578
18 1 4.91949 1.59987 0.383508 4 1.44595e-05 2 0 0.0994487 -0.10024
20 1 3.47612 0.111428 0.171027 4 2.31674e-06 2 0 0.0994487 0.166217
21 1 5.64741 0.645627 0.325839 4 1.8499e-05 2 0 0.0994487 -0.0805985
22 1 5.88414 1.31048 0.938036 4 2.64525e-05 2 0 0.0994487 -0.199525
23 1 6.57478 1.39104 0.218369 4 4.26849e-05 2 0 0.0994487 -0.0861242
26 1 6.7138 0.39031 0.865278 4 3.63083e-05 2 0 0.0994487 -0.0793729
28 1 8.2679 0.408875 1.07337 4 9.20228e-05 2 0 0.0994487 -0.100153
29 1 7.36782 1.22285 0.954198 4 6.80753e-05 2 0 0.0994487 -0.302491
30 1 8.24709 1.39092 0.236779 4 0.000119659 2 0 0.0994487 -0.0460513
32 1 7.58247 0.647807 0.140287 4 6.49797e-05 2 0 0.0994487 -0.110928
33 1 8.85849 0.508506 0.273966 4 0.000129764 2 0 0.0994487 -0.0616362
34 1 9.55301 0.3386 0.888639 4 0.000185347 2 0 0.0994487 0.00507938
35 1 9.02586 1.30716 1.1133 4 0.000185384 2 0 0.0994487 -0.0605982
37 1 9.63995 1.37474 0.0900752 4 0.000241692 2 0 0.0994487 0.0993021
43 1 10.2431 0.367861 0.0780499 4 0.000235401 2 0 0.0994487 0.14981
38 1 11.2128 0.215893 0.632658 4 0.000444338 2 0 0.0994487 0.203524
39 1 10.3637 1.04743 0.823114 4 0.00034867 2 0 0.0994487 0.539927
44 1 12.8757 0.211714 0.636805 4 0.00113879 2 0 0.0994487 0.058809
45 1 12.0457 1.07408 0.506655 4 0.000975757 2 0 0.0994487 -0.0235238
46 1 12.1319 0.316439 1.29957 4 0.000814341 2 0 0.0994487 0.0188618
47 1 12.7194 1.19864 1.3723 4 0.00145172 2 0 0.0994487 -0.0304855
49 1 13.5924 1.113 0.843618 4 0.00219385 2 0 0.0994487 -0.262984
48 1 14.3729 0.318493 0.764646 4 0.00235831 2 0 0.0994487 -0.0460168
50 1 14.0399 1.55958 0.167469 4 0.00305359 2 0 0.0994487 -0.0898035
53 1 14.8761 1.55337 0.662943 4 0.00411826 2 0 0.0994487 0.390015
59 1 15.1049 0.711806 0.0677822 4 0.00308705 2 0 0.0994487 0.169218
54 1 15.7061 0.770636 0.788259 4 0.00439767 2 0 0.0994487 0.366529
55 1 16.5532 1.54451 0.681338 4 0.00849837 2 0 0.0994487 0.000873216
57 1 16.547 0.712289 1.3421 4 0.00640389 2 0 0.0994487 0.0956716
58 1 15.6341 1.48544 1.3916 4 0.00552811 2 0 0.0994487 0.153684
60 1 17.2544 0.732268 0.547589 4 0.00824582 2 0 0.0994487 0.0286644
61 1 17.9231 1.58109 0.757246 4 0.014239 2 0 0.0994487 0.0416274
65 1 18.7918 0.725074 0.684829 4 0.013103 2 0 0.0994487 -0.269913
64 1 19.5372 0.0167772 0.662766 4 0.0121719 2 0 0.0994487 0.0436579
66 1 19.5395 1.55488 0.841653 4 0.022604 2 0 0.0994487 -0.341103
71 1 20.2493 0.776373 0.980057 4 0.0192829 2 0 0.0994487 -0.0497149
74 1 20.3457 1.51479 0.193617 4 0.0254935 2 0 0.0994487 -0.0805836
70 1 21.0889 0.349843 1.06749 4 0.0203551 2 0 0.0994487 -0.196108
72 1 21.1062 1.65725 0.951506 4 0.0354375 2 0 0.0994487 0.688644
73 1 21.1874 0.765598 0.218806 4 0.0223441 2 0 0.0994487 -0.0445772
75 1 22.0087 0.262534 0.539755 4 0.0234555 2 0 0.0994487 0.0993705
77 1 22.1105 1.14763 1.32981 4 0.0368041 2 0 0.0994487 0.238691
78 1 21.9982 1.59955 0.538558 4 0.0434275 2 0 0.0994487 0.185089
79 1 22.9157 1.07463 0.445168 4 0.0427031 2 0 0.0994487 0.0521
81 1 23.5672 0.357563 0.57369 4 0.0372444 2 0 0.0994487 0.0385816
82 1 24.4367 1.18687 0.754729 4 0.072203 2 0 0.0994487 -0.0192564
84 1 24.955 0.315686 0.551996 4 0.0448826 2 0 0.0994487 -0.0171919
85 1 26.0085 0.383365 1.1715 4 0.0485293 2 0 0.0994487 -0.185645
87 1 25.9301 1.73476 1.35794 4 0.136339 2 0 0.0994487 0.0343075
88 1 25.8917 0.929212 0.432102 4 0.060319 2 0 0.0994487 -0.0954151
91 1 26.7559 1.02809 1.26347 4 0.0684619 2 0 0.0994487 -0.241118
93 1 26.7925 0.240345 0.226621 4 0.0332254 2 0 0.0994487 0.0380744
89 1 27.5736 1.28032 0.38906 4 0.0551924 2 0 0.0994487 0.0454457
90 1 27.6142 0.50928 0.874321 4 0.0383601 2 0 0.0994487 0.175397
92 1 28.3748 0.337482 1.39813 4 0.0267708 2 0 0.0994487 0.00985711
94 1 28.6489 1.24263 0.742341 4 0.0414625 2 0 0.0994487 0.102411
98 1 29.2734 0.3547 0.615275 4 0.0158236 2 0 0.0994487 -0.081678
101 1 30.1009 1.19877 0.774133 4 0.018617 2 0 0.0994487 0.210925
100 1 30.7016 0.49015 0.470738 4 0.00818709 2 0 0.0994487 0.354854
99 1 31.5874 0.266128 1.25663 4 0.00425288 3 0 0.0994487 0.830096
102 1 30.8649 0.971942 1.39386 4 0.010799 2 0 0.0994487 0.703283
103 1 1.11081 2.43607 0.129285 4 9.3276e-07 2 0 0.0994487 -0.0373209
104 1 0.133403 2.3821 0.812241 4 6.12849e-07 2 0 0.0994487 -0.984517
105 1 1.28845 3.23764 0.949187 4 1.6296e-06 2 0 0.0994487 0.222106
108 1 0.332248 3.09582 0.131296 4 7.95446e-07 2 0 0.0994487 -0.591339
109 1 1.90972 2.41867 0.78376 4 1.82513e-06 2 0 0.0994487 0.0782167
110 1 2.65852 3.28029 0.860875 4 4.81759e-06 2 0 0.0994487 0.0668122
113 1 2.7261 2.38168 0.0557193 4 2.78188e-06 2 0 0.0994487 0.146603
114 1 3.38195 2.55413 0.779289 4 6.10195e-06 2 0 0.0994487 0.211593
115 1 4.00679 1.841 0.711184 4 7.78373e-06 2 0 0.0994487 -0.036112
116 1 4.91383 2.57277 0.815661 4 2.07132e-05 2 0 0.0994487 -0.25933
117 1 4.20148 3.3175 0.749446 4 1.62587e-05 2 0 0.0994487 0.00622483
119 1 5.65047 2.44269 0.132743 4 3.22542e-05 2 0 0.0994487 -0.189919
120 1 6.55776 2.18062 0.772597 4 5.57147e-05 2 0 0.0994487 -0.289305
121 1 5.64874 3.19593 0.952489 4 4.44046e-05 2 0 0.0994487 -0.75459
124 1 6.65033 2.92778 0.134227 4 7.05419e-05 2 0 0.0994487 0.0288951
125 1 7.45405 2.22586 0.139832 4 9.89057e-05 2 0 0.0994487 -0.0534915
126 1 8.08209 2.20208 0.930382 4 0.000151654 2 0 0.0994487 -0.301981
127 1 7.40132 3.06835 0.934051 4 0.00013881 2 0 0.0994487 -0.0454018
130 1 8.26934 2.9712 0.0392146 4 0.000226684 2 0 0.0994487 -0.150608
131 1 8.90393 2.08699 0.252387 4 0.000225482 2 0 0.0994487 0.0024483
132 1 9.77243 2.0246 1.10996 4 0.000373286 2 0 0.0994487 0.173528
133 1 8.92671 2.97262 0.928693 4 0.000351553 2 0 0.0994487 -0.156652
135 1 9.56096 2.90576 0.21312 4 0.000457364 2 0 0.0994487 0.173133
136 1 10.2834 2.1137 0.214297 4 0.000451898 2 0 0.0994487 0.337751
137 1 11.1583 1.82604 0.771092 4 0.000763975 2 0 0.0994487 0.260132
138 1 10.6214 2.80819 0.921535 4 0.000871654 2 0 0.0994487 0.541974
141 1 11.928 2.64099 0.742299 4 0.00172659 2 0 0.0994487 -0.0386302
140 1 12.6737 1.94118 0.593851 4 0.00196065 2 0 0.0994487 -0.283891
144 1 13.1791 3.03035 0.848852 4 0.0038807 2 0 0.0994487 -0.440769
152 1 13.4137 2.29398 0.0590902 4 0.00314779 2 0 0.0994487 -0.280943
146 1 14.0206 2.44438 0.927124 4 0.00437697 2 0 0.0994487 -0.132937
148 1 14.6961 3.43698 0.884932 4 0.00911326 2 0 0.0994487 -0.332658
150 1 14.8418 2.51505 0.136557 4 0.00613228 2 0 0.0994487 0.173031
151 1 14.1591 3.2262 0.0325348 4 0.00646287 2 0 0.0994487 -0.246086
153 1 15.6993 2.44373 0.692668 4 0.0087196 2 0 0.0994487 0.364478
154 1 16.3029 3.20095 0.662084 4 0.0155534 2 0 0.0994487 0.328667
157 1 15.5706 3.25854 0.0192499 4 0.0106905 2 0 0.0994487 0.290261
158 1 17.0646 2.35032 0.682778 4 0.0147968 2 0 0.0994487 0.0235429
159 1 17.944 2.92608 0.699539 4 0.0284372 2 0 0.0994487 -0.231124
162 1 18.8908 2.35742 1.01358 4 0.0292991 2 0 0.0994487 -0.51668
163 1 19.7027 3.2427 1.27782 4 0.0649328 2 0 0.0994487 0.414614
164 1 18.884 2.99607 0.196019 4 0.0372131 2 0 0.0994487 -0.171778
165 1 19.587 2.34239 0.101452 4 0.0317475 2 0 0.0994487 -0.132349
168 1 20.1948 2.46882 1.11433 4 0.043533 2 0 0.0994487 0.305578
170 1 20.4222 2.99313 0.334941 4 0.0550673 2 0 0.0994487 0.186292
167 1 21.1565 2.41663 0.458355 4 0.0527081 2 0 0.0994487 0.19586
169 1 21.31 3.29463 1.39314 4 0.118387 2 0 0.0994487 0.0273331
173 1 22.0961 2.49917 1.23787 4 0.0953919 2 0 0.0994487 0.200429
174 1 21.9898 3.20043 0.598797 4 0.112567 2 0 0.0994487 -0.0756867
172 1 22.9717 2.60199 0.735523 4 0.11525 2 0 0.0994487 0.136292
175 1 22.6771 3.40124 0.07601 4 0.132414 2 0 0.0994487 0.0761015
176 1 23.7438 1.80844 0.624025 4 0.0874839 2 0 0.0994487 -0.0869875
178 1 24.342 2.68296 0.775192 4 0.164708 2 0 0.0994487 -0.338645
181 1 24.9562 2.84566 0.0146836 4 0.157821 2 0 0.0994487 -0.0864579
183 1 25.1322 1.85613 0.509414 4 0.111584 2 0 0.0994487 -0.0215199
182 1 26.5483 1.79415 0.511367 4 0.0996741 2 0 0.0994487 -0.00575808
184 1 25.7918 2.61203 0.707489 4 0.178284 2 0 0.0994487 0.224697
188 1 26.1686 3.50068 0.599043 0 0.256045 2 0 0.0994147 0.168223
191 1 27.0867 2.6924 0.645359 4 0.160972 2 0 0.0994487 -0.104633
189 1 27.5039 1.98546 1.23792 4 0.119791 2 0 0.0994487 -0.19391
190 1 28.2489 2.09022 0.343734 4 0.0752416 2 0 0.0994487 -0.0177182
193 1 28.2537 2.75799 1.20639 4 0.157747 2 0 0.0994487 -0.444045
194 1 27.982 3.21993 0.326384 4 0.151107 2 0 0.0994487 -0.125251
196 1 29.4477 2.04702 0.879698 4 0.0519113 2 0 0.0994487 -0.00706265
197 1 29.1956 2.6589 0.290703 4 0.0710749 2 0 0.0994487 -0.0578301
198 1 29.2495 3.2651 1.17365 4 0.142231 2 0 0.0994487 0.134064
200 1 30.1815 2.71094 1.00186 4 0.0538644 2 0 0.0994487 0.679242
203 1 30.1092 3.25953 0.132205 4 0.0536611 2 0 0.0994487 -0.0443606
204 1 30.4116 1.90909 0.0255368 4 0.0207186 2 0 0.0994487 0.106046
199 1 30.9114 1.98502 0.924207 4 0.0215415 2 0 0.0994487 0.96725
201 1 31.0247 3.35309 0.97101 4 0.046248 2 0 0.0994487 0.998316
205 1 31.1434 2.66402 0.0761253 4 0.022129 2 0 0.0994487 0.708819
206 1 0.293831 3.78503 0.918557 4 1.11273e-06 2 0 0.0994487 -0.999347
207 1 0.143046 4.59443 0.482118 4 1.30811e-06 2 0 0.0994487 -0.784494
208 1 1.14036 4.67093 0.986638 4 2.57147e-06 2 0 0.0994487 -0.516751
209 1 0.0884667 5.26681 1.27761 4 1.5977e-06 2 0 0.0994487 -0.887459
210 1 1.04069 3.86421 0.0595682 4 1.57698e-06 2 0 0.0994487 0.0148886
211 1 1.84117 4.04604 0.847105 4 3.52475e-06 2 0 0.0994487 0.00827749
212 1 2.54049 4.85585 1.13748 4 8.10076e-06 2 0 0.0994487 -0.33384
213 1 2.64953 4.14475 0.20674 4 6.83309e-06 2 0 0.0994487 -0.0285698
214 1 1.89758 4.96895 0.278386 4 5.12127e-06 2 0 0.0994487 -0.153432
215 1 3.40771 4.86189 0.161635 4 1.5628e-05 2 0 0.0994487 -0.0163849
216 1 3.494 4.07675 0.885909 4 1.281e-05 2 0 0.0994487 0.0269084
217 1 4.91235 4.00001 1.18344 4 3.60963e-05 2 0 0.0994487 0.0115408
218 1 4.04658 4.88002 1.14639 4 2.59276e-05 2 0 0.0994487 0.264499
219 1 4.26027 4.18509 0.149001 4 2.31852e-05 2 0 0.0994487 0.037742
220 1 5.00947 4.74001 0.341082 4 5.02483e-05 2 0 0.0994487 0.0765465
221 1 5.77735 3.9378 0.198707 4 5.8763e-05 2 0 0.0994487 0.0260216
222 1 6.48883 3.76611 0.772067 4 9.62407e-05 2 0 0.0994487 0.204574
223 1 5.68025 4.73638 1.02487 4 8.49327e-05 2 0 0.0994487 -0.621592
225 1 6.68072 5.1315 0.885352 4 0.000197464 2 0 0.0994487 0.20689
226 1 8.1982 3.892 0.700757 4 0.000341396 2 0 0.0994487 -0.369874
227 1 7.40842 4.46072 0.5468 4 0.000251043 2 0 0.0994487 -0.0251986
230 1 9.8976 3.57792 0.885667 4 0.000820175 2 0 0.0994487 0.592923
231 1 9.07913 4.56551 0.821335 4 0.000772901 2 0 0.0994487 -0.6585
232 1 9.86266 4.50302 0.126324 4 0.00106625 2 0 0.0994487 0.0958777
235 1 8.98541 3.86821 0.0631775 4 0.000517139 2 0 0.0994487 -0.138745
236 1 11.408 3.64493 0.778297 4 0.002023 2 0 0.0994487 0.202106
237 1 10.5891 4.66652 0.906264 4 0.00193917 2 0 0.0994487 0.0451944
238 1 11.3867 4.69403 0.230734 4 0.00306028 2 0 0.0994487 -0.0498721
241 1 11.3894 5.27213 0.983682 4 0.00388909 2 0 0.0994487 -0.674397
242 1 10.5826 3.84888 0.176129 4 0.00128352 2 0 0.0994487 0.210479
243 1 12.5168 3.57716 0.814749 4 0.00357422 2 0 0.0994487 -0.010521
244 1 12.1916 4.55033 1.00021 4 0.00451619 2 0 0.0994487 0.105201
246 1 13.2258 4.67863 0.80017 4 0.00809719 2 0 0.0994487 -0.00456925
247 1 12.6435 4.61885 0.0632315 4 0.0059233 2 0 0.0994487 -0.03356
248 1 13.9891 4.12825 0.69648 4 0.00932116 2 0 0.0994487 -0.430091
251 1 14.9402 5.01141 0.811699 4 0.0200044 2 0 0.0994487 -0.0517957
253 1 14.1405 4.90647 0.0597868 4 0.0133457 2 0 0.0994487 -0.0856653
254 1 14.961 4.19423 0.096508 4 0.0135881 2 0 0.0994487 0.0323013
255 1 15.6685 4.06642 0.926277 4 0.0179868 2 0 0.0994487 0.872647
256 1 15.8798 4.77595 0.186426 4 0.0256879 2 0 0.0994487 0.165432
257 1 16.5936 4.58036 0.900182 4 0.0338283 2 0 0.0994487 -0.0785522
260 1 17.2689 3.83372 0.811237 4 0.0334092 2 0 0.0994487 -0.345273
261 1 18.0864 4.48855 1.09806 4 0.0627056 2 0 0.0994487 -0.669566
263 1 17.4569 4.57727 0.0147963 4 0.0432891 2 0 0.0994487 -0.0973749
264 1 18.1348 3.8547 0.0583493 4 0.0420194 2 0 0.0994487 -0.120487
268 1 18.7859 5.27693 1.20102 4 0.115403 2 0 0.0994487 0.507518
265 1 18.8779 3.70667 0.95022 4 0.0581392 2 0 0.0994487 0.044857
266 1 18.8235 4.60949 0.361826 4 0.073357 2 0 0.0994487 0.115649
267 1 19.6906 4.67872 1.0803 4 0.118951 2 0 0.0994487 0.93681
269 1 19.5987 3.76722 0.227421 4 0.0628764 2 0 0.0994487 0.164251
274 1 20.1339 4.78559 0.352846 4 0.121941 2 0 0.0994487 0.145419
270 1 20.4384 3.82188 1.23329 4 0.109074 2 0 0.0994487 0.407843
271 1 20.8846 4.71868 1.39403 4 0.198016 2 0 0.0994487 0.143037
272 1 21.5775 4.95128 0.810455 4 0.22078 2 0 0.0994487 -0.0286199
273 1 21.0824 3.93136 0.512408 4 0.115333 2 0 0.0994487 0.0861328
276 1 21.9406 4.13318 1.31068 4 0.208896 2 0 0.0994487 0.0360141
277 1 22.4705 5.17735 1.27286 0 0.326172 2 0 0.098824 0.0348374
278 1 22.6119 4.34705 0.510028 4 0.209426 2 0 0.0994487 -0.0198975
279 1 23.5735 3.63903 0.782677 4 0.211329 2 0 0.0994487 0.175835
281 1 23.4679 4.54946 1.33355 0 0.33143 2 0 0.0987611 -0.145793
283 1 23.5518 5.06386 0.533607 0 0.330616 2 0 0.098771 -0.0918298
280 1 24.336 4.32055 0.625018 0 0.307606 2 0 0.0990221 -0.145476
282 1 24.8518 5.25716 0.566763 0 0.409248 2 0 0.0973257 0.0333015
285 1 25.0629 3.68037 0.802132 0 0.279968 2 0 0.0992572 -0.191043
290 1 25.5284 4.40089 0.388179 0 0.329375 2 0 0.0987861 0.0547448
287 1 25.6904 5.1389 1.34266 0 0.511235 2 0 0.0927925 0.604342
288 1 26.3575 4.29031 1.37159 0 0.434171 2 0 0.0965845 0.407383
289 1 26.5026 4.97257 0.640732 0 0.388796 2 0 0.0978139 0.0967664
294 1 27.0674 4.04323 0.570038 0 0.277065 2 0 0.0992784 0.0124135
292 1 27.9624 3.97641 1.10408 0 0.272729 2 0 0.0993089 -0.361636
293 1 28.2771 4.73475 0.706344 0 0.29131 2 0 0.0991686 -0.0752947
295 1 28.9321 3.77016 0.487204 4 0.151693 2 0 0.0994487 -0.00740526
296 1 29.0873 4.52317 1.33085 0 0.317909 2 0 0.0989168 0.0944529
297 1 29.9979 4.07209 1.02303 4 0.129505 2 0 0.0994487 -0.260216
299 1 30.2046 4.67765 0.491317 4 0.122168 2 0 0.0994487 0.0111173
298 1 31.0296 3.97382 0.373364 4 0.0520755 2 0 0.0994487 0.65758
301 1 0.908283 5.53205 0.461647 4 3.01381e-06 2 0 0.0994487 -0.463784
302 1 1.53161 5.51184 1.37971 4 4.53299e-06 2 0 0.0994487 -0.117385
303 1 0.793684 6.22023 1.2768 4 3.51433e-06 2 0 0.0994487 -0.70338
305 1 0.969942 6.9454 0.573423 4 4.99202e-06 2 0 0.0994487 -0.473532
306 1 1.7053 7.02884 1.23811 4 8.13909e-06 2 0 0.0994487 0.0665201
307 1 1.89588 6.19966 0.519025 4 7.66308e-06 2 0 0.0994487 -0.156398
308 1 3.10475 5.61709 1.30057 4 1.58463e-05 2 0 0.0994487 0.0402565
310 1 3.25442 6.96226 1.12748 4 2.95524e-05 2 0 0.0994487 -0.05412
311 1 2.68177 5.61289 0.273587 4 1.15622e-05 2 0 0.0994487 -0.0596833
312 1 3.39503 6.28191 0.500536 4 2.7077e-05 2 0 0.0994487 -0.121439
313 1 4.18979 5.46246 0.325783 4 3.62775e-05 2 0 0.0994487 0.0310222
314 1 4.93434 5.42873 1.31778 4 6.79892e-05 2 0 0.0994487 -0.235093
315 1 4.13622 6.09659 1.22779 4 4.62781e-05 2 0 0.0994487 -0.0893843
316 1 4.82567 6.23357 0.333842 4 7.87738e-05 2 0 0.0994487 -0.0345712
317 1 4.77312 6.79931 1.15967 4 9.70672e-05 2 0 0.0994487 -0.305924
318 1 4.00267 7.02511 0.221759 4 5.33314e-05 2 0 0.0994487 -0.0853411
319 1 5.78575 5.42185 0.301847 4 0.000114494 2 0 0.0994487 0.0125077
320 1 5.6935 6.24342 0.9632 4 0.000152791 2 0 0.0994487 -0.967755
322 1 6.43234 6.86927 1.00965 4 0.000321091 2 0 0.0994487 0.851676
323 1 6.37773 6.04115 0.154639 4 0.000199304 2 0 0.0994487 0.111117
324 1 5.54993 7.05206 0.147147 4 0.000164205 2 0 0.0994487 0.0363893
325 1 8.21355 5.31419 0.694273 4 0.000611196 2 0 0.0994487 -0.0895633
326 1 7.32761 6.15925 0.754293 4 0.000454076 2 0 0.0994487 0.225749
329 1 8.01352 6.85364 0.728993 4 0.000971315 2 0 0.0994487 0.0692
331 1 7.33029 5.3575 0.0461812 4 0.000300848 2 0 0.0994487 0.0813631
332 1 9.76796 5.3194 0.792562 4 0.00153917 2 0 0.0994487 0.328501
333 1 8.88016 6.18865 0.736908 4 0.00132375 2 0 0.0994487 -0.235519
337 1 9.76329 6.23201 0.0941385 4 0.00214306 2 0 0.0994487 -0.0359454
338 1 8.99733 5.46479 0.012702 4 0.000991435 2 0 0.0994487 -0.134747
339 1 10.5831 6.02196 0.964384 4 0.0033572 2 0 0.0994487 -0.356251
340 1 11.3128 6.37134 0.0776634 4 0.00489189 2 0 0.0994487 0.100355
341 1 10.5187 6.94145 0.15452 4 0.0041863 2 0 0.0994487 -0.0735257
345 1 11.7774 6.20735 1.05291 4 0.00662393 2 0 0.0994487 0.292411
343 1 11.9994 5.6274 0.183157 4 0.00565907 2 0 0.0994487 -0.0105099
344 1 12.6757 5.81849 0.861776 4 0.00924788 2 0 0.0994487 0.0818427
347 1 13.3506 6.58297 0.813679 4 0.018432 2 0 0.0994487 -0.29204
348 1 13.3212 5.53867 0.0424813 4 0.011409 2 0 0.0994487 -0.142887
349 1 14.0617 5.71565 0.77266 4 0.0180565 2 0 0.0994487 -0.372413
351 1 14.1303 6.38483 0.0380077 4 0.022075 2 0 0.0994487 -0.0825893
352 1 15.0282 5.64393 0.034369 4 0.0251951 2 0 0.0994487 0.0573941
354 1 15.0472 6.45091 0.806774 4 0.0382406 2 0 0.0994487 -0.175929
353 1 15.8305 5.73813 0.95832 4 0.0394858 2 0 0.0994487 0.625982
355 1 16.491 6.45257 1.1401 4 0.0711945 2 0 0.0994487 0.205952
357 1 16.62 5.41933 0.276819 4 0.0449364 2 0 0.0994487 0.0799788
358 1 15.6753 6.3382 0.0390223 4 0.0428764 2 0 0.0994487 0.0398795
361 1 17.0619 6.27419 0.411469 4 0.0753634 2 0 0.0994487 0.139011
359 1 17.8271 5.30128 0.541411 4 0.0695685 2 0 0.0994487 0.150392
360 1 17.113 5.42499 1.24767 4 0.060653 2 0 0.0994487 -0.286975
362 1 17.6649 6.24649 1.38542 4 0.106016 2 0 0.0994487 -0.30218
363 1 18.2745 7.0517 1.13153 4 0.15638 2 0 0.0994487 0.727482
364 1 18.3714 6.23173 0.609762 4 0.122495 2 0 0.0994487 0.153895
365 1 19.429 5.75829 0.62055 4 0.150714 2 0 0.0994487 0.0547704
366 1 19.3279 6.55755 1.35081 4 0.211965 2 0 0.0994487 0.352306
367 1 19.9942 6.75229 0.610261 4 0.246918 2 0 0.0994487 -0.00800212
369 1 20.1931 5.61076 1.39557 4 0.214367 2 0 0.0994487 0.363005
368 1 20.7494 5.77593 0.653722 4 0.230874 2 0 0.0994487 -0.102046
370 1 20.7787 6.6124 1.30355 0 0.336287 2 0 0.0986997 -0.538138
371 1 21.6592 6.66248 0.666524 0 0.35867 2 0 0.0983767 -0.0458266
372 1 21.6631 5.87866 1.38528 0 0.350124 2 0 0.0985085 -0.0373889
373 1 21.6904 5.73259 0.0517844 0 0.260702 2 0 0.0993868 -0.0018764
374 1 22.6732 5.8279 0.674154 0 0.35631 2 0 0.0984143 0.00458543
375 1 22.6319 6.69333 1.20734 0 0.46383 2 0 0.0954374 -0.400136
376 1 23.3484 6.78052 0.267835 0 0.450722 2 0 0.0959843 -0.125052
377 1 23.4822 5.88496 1.30013 0 0.464808 2 0 0.095394 -0.160855
378 1 24.3197 6.56281 1.15825 0 0.530555 2 0 0.0913376 0.355246
379 1 24.1457 6.00685 0.427617 0 0.435312 2 0 0.0965459 0.00396982
382 1 25.1593 6.74159 0.495153 0 0.513914 2 0 0.0926055 0.0888953
380 1 25.6831 5.86213 0.700952 0 0.480857 2 0 0.0946187 0.157835
386 1 26.7485 6.36567 0.651888 0 0.486421 2 0 0.0943217 0.0368535
385 1 27.4966 5.54334 0.722172 0 0.402402 2 0 0.0975002 -0.236653
387 1 27.7011 6.47315 1.36539 0 0.55243 2 0 0.0893592 0.138586
389 1 27.7097 7.0074 0.530173 0 0.45403 2 0 0.0958533 0.0300814
393 1 28.4685 6.20589 0.638647 0 0.368126 2 0 0.0982179 -0.262317
395 1 28.4822 5.38976 0.0592959 0 0.264931 2 0 0.0993606 -0.105152
390 1 29.3889 5.30889 0.818726 0 0.268172 2 0 0.0993397 0.297607
391 1 29.4379 6.18214 1.32212 0 0.434368 2 0 0.0965785 0.193603
392 1 29.5784 6.89773 0.506505 0 0.282632 2 0 0.0992374 0.0963645
394 1 29.3762 6.15398 0.0801838 4 0.238265 2 0 0.0994487 0.097335
398 1 30.3958 6.18258 0.649752 4 0.198309 2 0 0.0994487 0.32077
396 1 30.9636 5.36838 0.595026 4 0.119433 2 0 0.0994487 0.663692
399 1 31.2189 6.15516 1.38439 0 0.257626 2 0 0.0994058 0.742889
400 1 31.1994 6.95407 0.60342 4 0.156169 2 0 0.0994487 0.8054
401 1 31.7235 5.99622 0.446564 4 0.0881962 2 0 0.0994487 0.879003
402 1 0.261851 7.63199 0.661866 4 3.94276e-06 2 0 0.0994487 -0.876373
403 1 0.831025 8.46344 0.61936 4 6.37767e-06 2 0 0.0994487 -0.577626
406 1 1.59266 7.76478 0.37187 4 9.28261e-06 2 0 0.0994487 -0.0897868
408 1 2.48799 7.14986 0.476331 4 1.6838e-05 2 0 0.0994487 -0.0836934
409 1 2.19177 8.6335 0.399707 4 1.82235e-05 2 0 0.0994487 -0.137266
410 1 2.39416 7.81099 1.27726 4 1.77213e-05 2 0 0.0994487 0.0869939
411 1 3.01349 8.51445 0.935533 4 3.50165e-05 2 0 0.0994487 -0.539302
412 1 3.24418 7.77117 0.327041 4 3.59631e-05 2 0 0.0994487 -0.196202
413 1 3.81243 8.45898 0.0822892 4 5.95883e-05 2 0 0.0994487 -0.045777
414 1 3.97971 7.67009 1.24863 4 6.26983e-05 2 0 0.0994487 -0.0554857
415 1 4.70459 8.25653 0.921772 4 0.000123902 2 0 0.0994487 0.295351
416 1 4.67023 7.63706 0.247803 4 0.000100825 2 0 0.0994487 0.0376951
418 1 5.86955 8.34822 0.169905 4 0.000282011 2 0 0.0994487 0.113107
419 1 5.48363 7.59071 1.03232 4 0.000202896 2 0 0.0994487 -0.467653
420 1 6.49365 7.53799 0.169175 4 0.000375426 2 0 0.0994487 0.187626
421 1 6.39674 8.23976 1.04384 4 0.000480715 2 0 0.0994487 0.338162
422 1 7.28583 7.76918 0.746313 4 0.000824249 2 1 0.0994487 0.00993702
423 1 8.2859 8.31376 0.868772 4 0.00194921 2 2 0.0994487 0.278464
426 1 7.99895 7.60312 0.0282118 4 0.00108857 2 0 0.0994487 0.0674156
427 1 9.84313 7.22199 0.72344 4 0.00356221 2 1 0.0994487 -0.346914
428 1 8.91207 7.61626 0.661731 4 0.00226792 2 1 0.0994487 0.158612
429 1 9.73234 8.61964 0.693151 4 0.00518032 2 3 0.0994487 -0.257107
432 1 11.3161 7.14287 0.810636 4 0.00736457 2 1 0.0994487 0.448603
433 1 10.5731 7.9454 0.844311 4 0.00677555 2 3 0.0994487 -0.19805
436 1 11.227 8.11851 0.0422735 4 0.00836341 2 0 0.0994487 0.174337
437 1 12.7061 7.28322 0.565784 4 0.0173868 2 0 0.0994487 -0.0531035
438 1 12.178 8.23518 0.590765 4 0.0169432 2 2 0.0994487 0.163993
439 1 12.0637 7.15788 1.37768 4 0.0120391 2 3 0.0994487 0.145923
444 1 13.458 7.34024 1.34133 4 0.0283193 2 2 0.0994487 0.0546682
443 1 13.6169 8.09282 0.464536 4 0.0341548 2 2 0.0994487 0.0238021
442 1 14.3373 7.3542 0.580954 4 0.0382983 2 0 0.0994487 0.0649454
445 1 14.2471 8.18371 1.35246 4 0.0548564 2 5 0.0994487 0.0245835
448 1 15.0689 8.29247 0.865596 4 0.0748828 2 3 0.0994487 -0.312317
446 1 16.4328 7.18497 0.276798 4 0.0831575 2 0 0.0994487 -0.0624094
447 1 15.6276 7.3114 0.923132 4 0.0706109 2 1 0.0994487 -0.441666
449 1 16.26 8.16052 1.11176 4 0.11171 1 4 0.0994487 -0.22529
451 1 15.8668 8.31534 0.152632 4 0.0926985 2 0 0.0994487 -0.185449
452 1 16.977 7.36262 1.11681 4 0.114595 2 1 0.0994487 0.362139
453 1 17.0683 8.10487 0.342208 4 0.129006 2 0 0.0994487 0.0341631
454 1 17.703 8.02386 1.02699 4 0.164269 1 1 0.0994487 0.845108
455 1 17.816 7.16593 0.212954 4 0.128813 2 0 0.0994487 0.086256
460 1 18.4485 8.18989 0.168602 4 0.19723 2 0 0.0994487 0.0417813
456 1 19.0043 7.33822 0.644529 4 0.205394 2 0 0.0994487 0.181443
457 1 18.9276 8.15325 1.18625 0 0.250677 2 0 0.0994451 0.0204941
458 1 19.871 7.65743 1.3273 0 0.321246 2 0 0.09888 -0.556703
459 1 19.8034 8.14191 0.360639 0 0.289881 2 0 0.0991801 0.108824
461 1 20.6988 7.46059 0.673449 0 0.34302 2 0 0.0986099 -0.0282418
462 1 20.6463 8.44048 1.03669 0 0.391954 1 0 0.0977443 -0.25985
463 1 21.5411 7.67297 1.15048 0 0.436913 1 0 0.096491 -0.1669
464 1 21.6115 8.34459 0.258573 0 0.425292 2 0 0.0968687 -0.0502104
465 1 22.5864 8.17833 1.02102 0 0.510233 1 0 0.0928604 -0.00383352
467 1 22.3364 7.48462 0.386381 0 0.441718 2 0 0.0963222 -0.097042
468 1 23.4446 7.32194 1.0516 0 0.530778 1 0 0.091319 -0.254982
469 1 23.4881 8.07549 0.386864 0 0.519696 2 0 0.0921858 -0.0389278
470 1 24.3435 8.10177 1.00287 0 0.592706 1 0 0.0845873 0.0667228
472 1 24.3392 7.32545 0.26928 0 0.511216 2 0 0.0927934 0.0433874
473 1 25.1162 7.39484 1.25566 0 0.610337 1 0 0.0819541 0.13577
477 1 25.2288 8.1324 0.307821 0 0.557614 2 0 0.0888317 -0.0341559
474 1 26.02 8.00574 0.988901 0 0.609912 2 0 0.0820227 0.0499136
476 1 26.0919 7.27875 0.36814 0 0.530326 2 0 0.091357 0.0424484
478 1 26.2729 8.58549 0.0891813 0 0.541228 2 0 0.0904202 0.0506396
479 1 26.7829 7.11176 1.34398 0 0.6078 2 0 0.082357 0.450006
482 1 26.9761 8.65498 1.02594 0 0.60675 2 0 0.0825214 0.365767
483 1 26.996 7.78335 0.434662 0 0.523692 2 0 0.0918843 0.130848
480 1 27.9642 8.50472 0.429665 0 0.467666 2 0 0.0952649 0.0562829
481 1 27.7958 7.83833 1.21519 0 0.565049 2 0 0.0880345 0.578492
484 1 28.6515 7.11327 1.23056 0 0.49933 2 0 0.09357 -0.08172
488 1 28.6951 7.71879 0.416043 0 0.383725 2 0 0.0979208 0.0183964
487 1 28.7798 8.55882 1.18636 0 0.465012 2 0 0.0953854 0.260211
485 1 29.5942 8.35338 0.54453 0 0.316783 2 0 0.098929 0.00955034
486 1 29.4977 7.67807 1.27669 0 0.444239 2 0 0.0962316 0.161346
489 1 30.3249 7.09182 1.17973 0 0.312494 2 0 0.0989738 0.375237
491 1 30.4298 8.49193 1.18422 0 0.34222 2 0 0.0986214 0.239219
492 1 30.6367 7.87308 0.379941 4 0.208117 2 0 0.0994487 0.212728
490 1 31.2503 7.82438 1.3018 0 0.315373 2 0 0.0989443 0.877299
493 1 31.4248 8.62324 0.390578 4 0.180363 2 0 0.0994487 0.843657
494 1 1.11992 10.2843 0.274311 4 1.02917e-05 2 0 0.0994487 -0.355606
495 1 1.01298 9.37753 1.20649 4 8.28738e-06 2 0 0.0994487 -0.41443
496 1 0.252597 9.92934 0.898547 4 5.96593e-06 2 0 0.0994487 -0.993185
497 1 0.36755 9.33519 0.122595 4 5.26456e-06 2 0 0.0994487 -0.58224
499 1 1.75605 9.44536 0.452252 4 1.47164e-05 2 0 0.0994487 -0.146775
500 1 1.82419 10.3747 0.969875 4 1.77572e-05 2 0 0.0994487 -0.235618
501 1 2.59083 10.2762 0.0854603 4 2.78386e-05 2 0 0.0994487 0.111277
502 1 2.37359 9.44609 1.22278 4 2.46389e-05 2 0 0.0994487 -0.23523
505 1 3.07153 9.37068 0.0798637 4 3.77267e-05 2 0 0.0994487 -0.0110569
506 1 3.3764 10.0336 0.729636 4 5.75688e-05 2 0 0.0994487 0.208509
507 1 3.93083 9.10878 0.853479 4 7.73966e-05 2 0 0.0994487 0.0780655
508 1 4.57569 9.17985 0.00735123 4 0.00011417 2 0 0.0994487 0.117409
509 1 4.60565 9.97638 0.570406 4 0.00015428 2 0 0.0994487 0.0562714
512 1 5.32886 8.94347 0.658838 4 0.000226015 2 0 0.0994487 0.271334
513 1 6.23892 9.79241 0.51167 4 0.000554277 2 0 0.0994487 0.106571
514 1 5.3095 9.83096 1.15767 4 0.000273554 2 0 0.0994487 0.142014
515 1 6.15157 9.05029 1.25461 4 0.000470544 2 0 0.0994487 0.0799154
516 1 6.23427 10.5093 1.18094 4 0.000642552 2 0 0.0994487 0.0308474
517 1 7.16567 8.87998 0.708464 4 0.00103568 2 1 0.0994487 -0.121523
518 1 8.09535 9.0463 0.0802495 4 0.00173958 2 0 0.0994487 0.0302765
519 1 7.95867 9.92351 0.574229 4 0.00212176 2 2 0.0994487 -0.0611041
520 1 7.17876 9.73611 1.18759 4 0.00125335 2 2 0.0994487 -0.0101869
521 1 8.04515 9.16584 1.39501 4 0.00235969 2 6 0.0994487 -0.590188
522 1 8.93974 9.45316 0.72455 4 0.003749 2 3 0.0994487 0.0630716
523 1 9.64533 10.3362 0.655345 4 0.00623441 2 4 0.0994487 -0.0479934
526 1 11.3751 8.84686 0.729954 4 0.0124517 2 3 0.0994487 0.239735
527 1 10.4031 8.88547 0.040013 4 0.00674583 2 0 0.0994487 -0.138192
528 1 10.4642 9.68094 0.652445 4 0.00882944 2 5 0.0994487 -0.0276438
530 1 11.3015 9.63391 1.31015 4 0.0151458 1 9 0.0994487 0.11198
531 1 13.0078 8.96564 0.784741 4 0.0323341 2 3 0.0994487 -0.021276
532 1 12.1098 9.81377 0.682872 4 0.0220485 2 4 0.0994487 0.0523927
533 1 12.8214 10.4728 0.956288 4 0.0344654 1 4 0.0994487 -0.0848678
537 1 13.5317 9.67756 0.832116 4 0.0459625 2 4 0.0994487 -0.139556
536 1 14.4701 9.19794 0.757688 4 0.0664572 2 2 0.0994487 -0.219776
539 1 14.2759 10.1516 0.212809 4 0.0609541 2 0 0.0994487 -0.0852875
542 1 15.1352 9.85683 1.0083 4 0.0919239 1 4 0.0994487 -0.131518
546 1 15.3043 9.20714 0.0898472 4 0.0859136 2 0 0.0994487 -0.197821
540 1 15.9037 9.16019 1.13615 4 0.116332 1 5 0.0994487 -0.128431
543 1 15.695 10.1814 0.251776 4 0.10541 2 0 0.0994487 -0.0164
544 1 16.5108 9.95951 0.961184 4 0.148323 1 4 0.0994487 -0.00315891
545 1 16.5143 9.03182 0.259112 4 0.124953 2 1 0.0994487 0.0403904
548 1 17.0975 9.07233 1.12972 4 0.167716 1 3 0.0994487 0.19797
549 1 17.1586 10.0288 0.207964 4 0.167873 2 1 0.0994487 0.0240255
550 1 17.7795 9.87441 1.07576 4 0.218962 1 3 0.0994487 0.0599416
551 1 17.7682 9.11154 0.116035 4 0.184429 2 0 0.0994487 -0.0377999
547 1 18.3024 8.89967 0.945652 4 0.226182 1 1 0.0994487 0.11997
553 1 18.6032 9.73724 0.300656 4 0.249312 2 0 0.0994487 -0.0458219
555 1 18.7386 10.4609 1.14986 0 0.292777 1 0 0.0991561 -0.202617
552 1 19.824 8.96561 1.07126 0 0.340776 1 0 0.0986404 0.0575748
554 1 19.5157 9.9016 0.85491 0 0.328152 1 0 0.0988005 0.0444645
557 1 19.2484 8.96684 0.211989 0 0.271712 2 0 0.0993157 0.0418691
558 1 19.9932 9.79255 0.07389 0 0.33217 2 0 0.0987517 0.144354
559 1 20.9349 9.81688 0.757211 0 0.427484 2 0 0.0968005 0.0914442
561 1 20.7963 9.08945 0.209734 0 0.383673 2 0 0.0979213 0.0679377
562 1 21.6363 9.04637 0.987928 0 0.472757 1 0 0.0950239 0.0325695
565 1 22.1026 10.5361 0.885873 0 0.527627 2 0 0.0915737 0.103299
569 1 21.9754 9.81742 0.212099 0 0.477544 2 0 0.0947876 0.046415
564 1 22.8355 9.69743 0.812537 0 0.550634 2 0 0.0895347 0.15833
568 1 22.7607 8.87875 0.203008 0 0.499987 2 0 0.0935281 0.0490537
570 1 23.4324 8.98904 0.982659 0 0.577006 2 0 0.086639 0.0342793
575 1 23.607 10.5555 0.630744 0 0.603305 2 0 0.0830469 -0.17078
571 1 24.5162 9.57705 0.769972 0 0.613972 2 0 0.0813641 -0.185513
576 1 24.3138 8.82642 0.209603 0 0.560431 2 0 0.0885347 -0.0714825
577 1 24.4428 10.3356 0.111736 0 0.591819 2 0 0.08471 -0.208049
578 1 25.2824 8.85953 1.01124 0 0.628552 1 0 0.0788339 0.0866402
580 1 25.3822 10.2667 0.835515 0 0.628611 2 0 0.0788226 0.277475