ITEM: TIMESTEP
25500
ITEM: NUMBER OF ATOMS
9495
ITEM: BOX BOUNDS mm mm mm
0.0000000000000000e+00 4.0223987570122851e+01
0.0000000000000000e+00 3.1748021039364001e+01
-5.0767146372752867e+00 3.1748021039364001e+01
ITEM: ATOMS id type x y z c_phase c_temp c_surf c_nbond c_visc f_3[1]
2455 1 36.4132 15.5237 -5.10695 0 2.75993 3 0 4.53999e-06 -0.615015
2453 1 37.9379 14.3151 -3.76082 0 2.60151 2 0 4.54e-06 -0.213802
2100 1 38.0937 15.3242 -3.72718 0 2.66112 2 0 4.54e-06 0.0806421
2547 1 37.0912 11.059 -1.52133 0 2.47343 2 0 4.54001e-06 -0.205192
2150 1 37.4289 12.1602 -2.08892 0 2.40407 2 0 4.54003e-06 -0.539499
2503 1 37.5563 13.3946 -2.12904 0 2.41707 2 0 4.54002e-06 -0.925194
1921 1 38.1289 12.8737 -1.79631 0 2.47793 2 0 4.54001e-06 -0.240293
2149 1 37.9731 13.6445 -3.06416 0 2.56818 2 0 4.54e-06 -0.395349
1924 1 38.2812 12.8132 -2.69875 0 2.55756 2 0 4.54e-06 0.0108759
1560 1 38.9771 13.6213 -2.89127 0 2.95669 2 0 4.53999e-06 0.633837
1561 1 39.0902 12.8021 -2.12997 0 2.92671 2 0 4.53999e-06 0.622707
1196 1 39.4242 13.7854 -2.00312 0 3.0079 2 0 4.53999e-06 0.848377
6588 1 36.4935 15.7064 -1.59294 0 2.23904 2 0 4.54018e-06 -0.839516
2101 1 37.8782 14.1688 -2.29555 0 2.51012 2 0 4.54001e-06 -0.927225
1870 1 37.3795 15.4312 -1.88602 0 2.40359 2 0 4.54003e-06 -0.860814
2454 1 37.5525 14.7071 -2.95406 0 2.55347 2 0 4.54e-06 -0.914679
1865 1 38.0481 15.2328 -2.47773 0 2.59877 2 0 4.54e-06 -0.450473
1920 1 38.5798 14.5564 -3.04806 0 2.87552 2 0 4.53999e-06 0.613699
1464 1 38.7823 15.5663 -2.89664 0 2.97217 2 0 4.53999e-06 0.63624
1143 1 38.9455 14.5917 -2.18934 0 2.73728 1 0 4.53999e-06 0.867968
1142 1 38.7201 15.4853 -1.87309 0 2.83946 2 0 4.53999e-06 0.702968
4521 1 39.8632 14.9606 -2.15919 0 3.22575 2 0 4.53999e-06 0.797123
1 1 0.116341 1.10259 0.464337 4 1.48101e-06 2 0 0.0994487 -0.68194
2 1 0.974108 1.6685 0.77798 4 2.85846e-06 2 0 0.0994487 -0.517029
5 1 0.729896 0.0633724 0.61602 4 1.32798e-06 3 0 0.0994487 -0.190373
6 1 1.71015 0.808983 1.0155 4 3.67001e-06 2 0 0.0994487 -0.332066
7 1 1.80059 1.47468 0.221075 4 4.19007e-06 2 0 0.0994487 -0.125827
9 1 2.52093 0.749102 0.203812 4 5.48e-06 2 0 0.0994487 -0.142938
10 1 2.59149 0.0538711 1.03726 4 5.26161e-06 2 0 0.0994487 -0.295003
11 1 2.64922 1.541 0.882848 4 7.89975e-06 2 0 0.0994487 0.235768
13 1 3.43386 0.933692 0.956349 4 1.15547e-05 2 0 0.0994487 0.320253
16 1 4.10576 0.858321 0.325305 4 1.78653e-05 2 0 0.0994487 0.15315
17 1 4.96159 0.56786 1.17466 4 3.3524e-05 2 0 0.0994487 -0.0370605
18 1 4.91949 1.59987 0.383508 4 4.21353e-05 2 0 0.0994487 -0.100242
20 1 3.47612 0.111428 0.171027 4 7.91476e-06 2 0 0.0994487 0.166217
21 1 5.64741 0.645627 0.325839 4 5.32722e-05 2 0 0.0994487 -0.0806004
22 1 5.88414 1.31048 0.938036 4 7.3384e-05 2 0 0.0994487 -0.199542
23 1 6.57478 1.39104 0.218369 4 0.000113939 2 0 0.0994487 -0.086127
26 1 6.7138 0.39031 0.865278 4 9.885e-05 2 0 0.0994487 -0.0793755
28 1 8.2679 0.408875 1.07337 4 0.000230819 2 0 0.0994487 -0.100157
29 1 7.36782 1.22285 0.954198 4 0.000174344 2 0 0.0994487 -0.302507
30 1 8.24709 1.39092 0.236779 4 0.000292307 2 0 0.0994487 -0.0460551
32 1 7.58247 0.647807 0.140287 4 0.000168309 2 0 0.0994487 -0.11093
33 1 8.85849 0.508506 0.273966 4 0.000316309 2 0 0.0994487 -0.0616389
34 1 9.55301 0.3386 0.888639 4 0.000437244 2 0 0.0994487 0.0050754
35 1 9.02586 1.30716 1.1133 4 0.000435048 2 0 0.0994487 -0.0606113
37 1 9.63995 1.37474 0.0900752 4 0.000556215 2 0 0.0994487 0.0992992
43 1 10.2431 0.367861 0.0780499 4 0.000545918 2 0 0.0994487 0.149808
38 1 11.2128 0.215893 0.632658 4 0.000975274 2 0 0.0994487 0.203519
39 1 10.3637 1.04743 0.823114 4 0.000775598 2 0 0.0994487 0.539916
44 1 12.8757 0.211714 0.636805 4 0.00235289 2 0 0.0994487 0.0588044
45 1 12.0457 1.07408 0.506655 4 0.0020159 2 0 0.0994487 -0.02353
49 1 13.5924 1.113 0.843618 4 0.004356 2 0 0.0994487 -0.262998
46 1 12.1319 0.316439 1.29957 4 0.00171429 2 0 0.0994487 0.0188562
48 1 14.3729 0.318493 0.764646 4 0.00473616 2 0 0.0994487 -0.0460213
50 1 14.0399 1.55958 0.167469 4 0.00596963 2 0 0.0994487 -0.0898076
53 1 14.8761 1.55337 0.662943 4 0.00813815 2 0 0.0994487 0.390002
59 1 15.1049 0.711806 0.0677822 4 0.00619549 2 0 0.0994487 0.169215
54 1 15.7061 0.770636 0.788259 4 0.00902424 2 0 0.0994487 0.366518
55 1 16.5532 1.54451 0.681338 4 0.0184168 2 0 0.0994487 0.000857175
60 1 17.2544 0.732268 0.547589 4 0.0185578 2 0 0.0994487 0.0286547
61 1 17.9231 1.58109 0.757246 4 0.0355552 2 0 0.0994487 0.041608
65 1 18.7918 0.725074 0.684829 4 0.0347575 2 0 0.0994487 -0.269924
64 1 19.5372 0.0167772 0.662766 4 0.0321917 2 0 0.0994487 0.043652
66 1 19.5395 1.55488 0.841653 4 0.0670813 2 0 0.0994487 -0.339639
71 1 20.2493 0.776373 0.980057 4 0.0597748 2 0 0.0994487 -0.0497938
74 1 20.3457 1.51479 0.193617 4 0.0721271 2 0 0.0994487 -0.0805905
70 1 21.0889 0.349843 1.06749 4 0.065896 2 0 0.0994487 -0.196915
72 1 21.1062 1.65725 0.951506 4 0.106972 2 0 0.0994487 0.600233
73 1 21.1874 0.765598 0.218806 4 0.0660617 2 0 0.0994487 -0.0445819
75 1 22.0087 0.262534 0.539755 4 0.0724277 2 0 0.0994487 0.0993556
78 1 21.9982 1.59955 0.538558 4 0.117994 2 0 0.0994487 0.183301
77 1 22.1105 1.14763 1.32981 4 0.122524 2 0 0.0994487 0.295915
79 1 22.9157 1.07463 0.445168 4 0.117395 2 0 0.0994487 0.0522959
81 1 23.5672 0.357563 0.57369 4 0.110449 2 0 0.0994487 0.0386448
82 1 24.4367 1.18687 0.754729 4 0.178075 2 0 0.0994487 -0.0202291
84 1 24.955 0.315686 0.551996 4 0.133846 2 0 0.0994487 -0.017175
85 1 26.0085 0.383365 1.1715 4 0.167519 2 0 0.0994487 -0.180923
88 1 25.8917 0.929212 0.432102 4 0.165639 2 0 0.0994487 -0.0953053
91 1 26.7559 1.02809 1.26347 4 0.205213 2 0 0.0994487 -0.245444
93 1 26.7925 0.240345 0.226621 4 0.120708 2 0 0.0994487 0.0380971
89 1 27.5736 1.28032 0.38906 4 0.169064 2 0 0.0994487 0.0454475
90 1 27.6142 0.50928 0.874321 4 0.147441 2 0 0.0994487 0.1753
94 1 28.6489 1.24263 0.742341 4 0.146671 2 0 0.0994487 0.10244
98 1 29.2734 0.3547 0.615275 4 0.0756571 2 0 0.0994487 -0.0817025
101 1 30.1009 1.19877 0.774133 4 0.0879537 2 0 0.0994487 0.210897
100 1 30.7016 0.49015 0.470738 4 0.0461408 2 0 0.0994487 0.354847
99 1 31.5874 0.266128 1.25663 4 0.0248905 3 0 0.0994487 0.830096
103 1 1.11081 2.43607 0.129285 4 3.47398e-06 2 0 0.0994487 -0.0373213
104 1 0.133403 2.3821 0.812241 4 2.40471e-06 2 0 0.0994487 -0.984517
105 1 1.28845 3.23764 0.949187 4 5.72883e-06 2 0 0.0994487 0.222101
108 1 0.332248 3.09582 0.131296 4 3.05132e-06 2 0 0.0994487 -0.59134
109 1 1.90972 2.41867 0.78376 4 6.30547e-06 2 0 0.0994487 0.0782142
110 1 2.65852 3.28029 0.860875 4 1.53337e-05 2 0 0.0994487 0.0668091
113 1 2.7261 2.38168 0.0557193 4 9.27308e-06 2 0 0.0994487 0.146602
114 1 3.38195 2.55413 0.779289 4 1.89676e-05 2 0 0.0994487 0.21159
115 1 4.00679 1.841 0.711184 4 2.37403e-05 2 0 0.0994487 -0.0361156
116 1 4.91383 2.57277 0.815661 4 5.85491e-05 2 0 0.0994487 -0.259337
117 1 4.20148 3.3175 0.749446 4 4.70268e-05 2 0 0.0994487 0.0062215
119 1 5.65047 2.44269 0.132743 4 8.82589e-05 2 0 0.0994487 -0.189921
120 1 6.55776 2.18062 0.772597 4 0.000144908 2 0 0.0994487 -0.289329
121 1 5.64874 3.19593 0.952489 4 0.000118398 2 0 0.0994487 -0.754603
124 1 6.65033 2.92778 0.134227 4 0.00018073 2 0 0.0994487 0.0288924
125 1 7.45405 2.22586 0.139832 4 0.000245408 2 0 0.0994487 -0.0534949
126 1 8.08209 2.20208 0.930382 4 0.000362366 2 0 0.0994487 -0.302011
127 1 7.40132 3.06835 0.934051 4 0.000335745 2 0 0.0994487 -0.0454442
130 1 8.26934 2.9712 0.0392146 4 0.000527998 2 0 0.0994487 -0.150611
131 1 8.90393 2.08699 0.252387 4 0.000521877 2 0 0.0994487 0.00244386
132 1 9.77243 2.0246 1.10996 4 0.000825442 2 0 0.0994487 0.17351
133 1 8.92671 2.97262 0.928693 4 0.000787529 2 0 0.0994487 -0.156689
135 1 9.56096 2.90576 0.21312 4 0.00100272 2 0 0.0994487 0.173129
136 1 10.2834 2.1137 0.214297 4 0.000984982 2 0 0.0994487 0.337748
137 1 11.1583 1.82604 0.771092 4 0.00159533 2 0 0.0994487 0.260122
138 1 10.6214 2.80819 0.921535 4 0.00180756 2 0 0.0994487 0.541958
141 1 11.928 2.64099 0.742299 4 0.0034099 2 0 0.0994487 -0.03864
140 1 12.6737 1.94118 0.593851 4 0.00386322 2 0 0.0994487 -0.2839
144 1 13.1791 3.03035 0.848852 4 0.00731614 2 0 0.0994487 -0.440786
152 1 13.4137 2.29398 0.0590902 4 0.00606253 2 0 0.0994487 -0.280947
146 1 14.0206 2.44438 0.927124 4 0.0083487 2 0 0.0994487 -0.132967
148 1 14.6961 3.43698 0.884932 4 0.0168707 2 0 0.0994487 -0.332699
150 1 14.8418 2.51505 0.136557 4 0.0117307 2 0 0.0994487 0.173027
151 1 14.1591 3.2262 0.0325348 4 0.0119926 2 0 0.0994487 -0.246089
153 1 15.6993 2.44373 0.692668 4 0.0174239 2 0 0.0994487 0.364462
154 1 16.3029 3.20095 0.662084 4 0.0313792 2 0 0.0994487 0.328656
157 1 15.5706 3.25854 0.0192499 4 0.0202896 2 0 0.0994487 0.290258
158 1 17.0646 2.35032 0.682778 4 0.0332176 2 0 0.0994487 0.0235289
159 1 17.944 2.92608 0.699539 4 0.0661758 2 0 0.0994487 -0.231136
162 1 18.8908 2.35742 1.01358 4 0.0803957 2 0 0.0994487 -0.517727
164 1 18.884 2.99607 0.196019 4 0.0867777 2 0 0.0994487 -0.171788
165 1 19.587 2.34239 0.101452 4 0.0814564 2 0 0.0994487 -0.132356
168 1 20.1948 2.46882 1.11433 4 0.123339 2 0 0.0994487 0.430481
170 1 20.4222 2.99313 0.334941 4 0.129683 2 0 0.0994487 0.185745
163 1 19.7027 3.2427 1.27782 4 0.148975 2 0 0.0994487 0.437998
167 1 21.1565 2.41663 0.458355 4 0.13355 2 0 0.0994487 0.194451
173 1 22.0961 2.49917 1.23787 4 0.215601 2 0 0.0994487 0.288208
174 1 21.9898 3.20043 0.598797 4 0.225554 2 0 0.0994487 -0.067149
172 1 22.9717 2.60199 0.735523 4 0.232883 2 0 0.0994487 0.131776
175 1 22.6771 3.40124 0.07601 4 0.247766 2 0 0.0994487 0.076186
176 1 23.7438 1.80844 0.624025 4 0.195279 2 0 0.0994487 -0.0869931
178 1 24.342 2.68296 0.775192 0 0.302509 2 0 0.0990704 -0.323502
181 1 24.9562 2.84566 0.0146836 0 0.291303 2 0 0.0991685 -0.0864867
183 1 25.1322 1.85613 0.509414 4 0.235021 2 0 0.0994487 -0.021946
182 1 26.5483 1.79415 0.511367 4 0.225362 2 0 0.0994487 -0.00534099
184 1 25.7918 2.61203 0.707489 0 0.321998 2 0 0.0988718 0.214335
188 1 26.1686 3.50068 0.599043 0 0.410251 2 0 0.0972991 0.167768
191 1 27.0867 2.6924 0.645359 0 0.308016 2 0 0.0990181 -0.100776
189 1 27.5039 1.98546 1.23792 0 0.264961 2 0 0.0993603 -0.188123
190 1 28.2489 2.09022 0.343734 4 0.205575 2 0 0.0994487 -0.0177304
193 1 28.2537 2.75799 1.20639 0 0.323141 2 0 0.098859 -0.473035
194 1 27.982 3.21993 0.326384 0 0.31251 2 0 0.0989733 -0.124721
196 1 29.4477 2.04702 0.879698 4 0.173806 2 0 0.0994487 -0.00679185
197 1 29.1956 2.6589 0.290703 4 0.208713 2 0 0.0994487 -0.0578242
198 1 29.2495 3.2651 1.17365 0 0.323639 2 0 0.0988533 0.167066
200 1 30.1815 2.71094 1.00186 4 0.198213 2 0 0.0994487 0.695593
203 1 30.1092 3.25953 0.132205 4 0.193675 2 0 0.0994487 -0.0443499
204 1 30.4116 1.90909 0.0255368 4 0.100136 2 0 0.0994487 0.106044
199 1 30.9114 1.98502 0.924207 4 0.111626 2 0 0.0994487 0.967243
201 1 31.0247 3.35309 0.97101 4 0.215061 2 0 0.0994487 0.997566
205 1 31.1434 2.66402 0.0761253 4 0.116978 2 0 0.0994487 0.708823
206 1 0.293831 3.78503 0.918557 4 4.1372e-06 2 0 0.0994487 -0.999347
207 1 0.143046 4.59443 0.482118 4 4.83439e-06 2 0 0.0994487 -0.784494
208 1 1.14036 4.67093 0.986638 4 8.78721e-06 2 0 0.0994487 -0.516753
210 1 1.04069 3.86421 0.0595682 4 5.6099e-06 2 0 0.0994487 0.0148883
209 1 0.0884667 5.26681 1.27761 4 5.84517e-06 2 0 0.0994487 -0.887459
211 1 1.84117 4.04604 0.847105 4 1.15958e-05 2 0 0.0994487 0.00827345
212 1 2.54049 4.85585 1.13748 4 2.49874e-05 2 0 0.0994487 -0.333843
213 1 2.64953 4.14475 0.20674 4 2.13441e-05 2 0 0.0994487 -0.0285709
214 1 1.89758 4.96895 0.278386 4 1.64869e-05 2 0 0.0994487 -0.153433
215 1 3.40771 4.86189 0.161635 4 4.58314e-05 2 0 0.0994487 -0.0163865
216 1 3.494 4.07675 0.885909 4 3.7883e-05 2 0 0.0994487 0.026902
217 1 4.91235 4.00001 1.18344 4 9.83185e-05 2 0 0.0994487 0.011528
218 1 4.04658 4.88002 1.14639 4 7.27679e-05 2 0 0.0994487 0.264494
219 1 4.26027 4.18509 0.149001 4 6.58226e-05 2 0 0.0994487 0.0377404
220 1 5.00947 4.74001 0.341082 4 0.000134606 2 0 0.0994487 0.0765433
221 1 5.77735 3.9378 0.198707 4 0.000154656 2 0 0.0994487 0.0260195
222 1 6.48883 3.76611 0.772067 4 0.000241672 2 0 0.0994487 0.204566
223 1 5.68025 4.73638 1.02487 4 0.000218224 2 0 0.0994487 -0.621624
225 1 6.68072 5.1315 0.885352 4 0.000476971 2 0 0.0994487 0.206871
226 1 8.1982 3.892 0.700757 4 0.000776229 2 0 0.0994487 -0.369884
227 1 7.40842 4.46072 0.5468 4 0.000590555 2 0 0.0994487 -0.0252044
230 1 9.8976 3.57792 0.885667 4 0.00172515 2 0 0.0994487 0.592853
231 1 9.07913 4.56551 0.821335 4 0.00166226 2 0 0.0994487 -0.658522
232 1 9.86266 4.50302 0.126324 4 0.00222894 2 0 0.0994487 0.0958734
235 1 8.98541 3.86821 0.0631775 4 0.00113883 2 0 0.0994487 -0.138748
236 1 11.408 3.64493 0.778297 4 0.00396212 2 0 0.0994487 0.202094
237 1 10.5891 4.66652 0.906264 4 0.00385635 2 0 0.0994487 0.0451528
238 1 11.3867 4.69403 0.230734 4 0.00586784 2 0 0.0994487 -0.0498784
241 1 11.3894 5.27213 0.983682 4 0.00736538 2 0 0.0994487 -0.674422
242 1 10.5826 3.84888 0.176129 4 0.00261457 2 0 0.0994487 0.210475
243 1 12.5168 3.57716 0.814749 4 0.006727 2 0 0.0994487 -0.0105327
244 1 12.1916 4.55033 1.00021 4 0.00837463 2 0 0.0994487 0.105158
246 1 13.2258 4.67863 0.80017 4 0.0144169 2 0 0.0994487 -0.00459346
247 1 12.6435 4.61885 0.0632315 4 0.0107883 2 0 0.0994487 -0.0335646
248 1 13.9891 4.12825 0.69648 4 0.0166789 2 0 0.0994487 -0.430102
251 1 14.9402 5.01141 0.811699 4 0.0343044 2 0 0.0994487 -0.0518534
253 1 14.1405 4.90647 0.0597868 4 0.0231338 2 0 0.0994487 -0.0856688
254 1 14.961 4.19423 0.096508 4 0.02429 2 0 0.0994487 0.0322989
255 1 15.6685 4.06642 0.926277 4 0.0332899 2 0 0.0994487 0.872639
256 1 15.8798 4.77595 0.186426 4 0.0452802 2 0 0.0994487 0.165433
257 1 16.5936 4.58036 0.900182 4 0.0632351 2 0 0.0994487 -0.0785479
260 1 17.2689 3.83372 0.811237 4 0.0687894 2 0 0.0994487 -0.345339
261 1 18.0864 4.48855 1.09806 4 0.121696 2 0 0.0994487 -0.738935
263 1 17.4569 4.57727 0.0147963 4 0.0821534 2 0 0.0994487 -0.0973742
264 1 18.1348 3.8547 0.0583493 4 0.0867614 2 0 0.0994487 -0.120492
268 1 18.7859 5.27693 1.20102 4 0.193114 2 0 0.0994487 0.484238
266 1 18.8235 4.60949 0.361826 4 0.136895 2 0 0.0994487 0.115649
265 1 18.8779 3.70667 0.95022 4 0.123498 2 0 0.0994487 0.0519209
267 1 19.6906 4.67872 1.0803 4 0.206371 2 0 0.0994487 0.93708
269 1 19.5987 3.76722 0.227421 4 0.130545 2 0 0.0994487 0.164235
274 1 20.1339 4.78559 0.352846 4 0.209554 2 0 0.0994487 0.143971
270 1 20.4384 3.82188 1.23329 4 0.21151 2 0 0.0994487 0.39267
272 1 21.5775 4.95128 0.810455 0 0.337904 2 0 0.0986787 -0.0399279
273 1 21.0824 3.93136 0.512408 4 0.219285 2 0 0.0994487 0.0825209
276 1 21.9406 4.13318 1.31068 0 0.338656 2 0 0.0986688 0.0452722
277 1 22.4705 5.17735 1.27286 0 0.455473 2 0 0.0957938 -0.0733652
278 1 22.6119 4.34705 0.510028 0 0.336935 2 0 0.0986914 -0.0187237
279 1 23.5735 3.63903 0.782677 0 0.350704 2 0 0.0985 0.155964
283 1 23.5518 5.06386 0.533607 0 0.463455 2 0 0.0954541 -0.0833101
280 1 24.336 4.32055 0.625018 0 0.450463 2 0 0.0959945 -0.143889
282 1 24.8518 5.25716 0.566763 0 0.544044 2 0 0.0901622 0.0368239
285 1 25.0629 3.68037 0.802132 0 0.429958 2 0 0.0967225 -0.177257
290 1 25.5284 4.40089 0.388179 0 0.480394 2 0 0.0946425 0.0536471
289 1 26.5026 4.97257 0.640732 0 0.548364 2 0 0.0897559 0.103689
294 1 27.0674 4.04323 0.570038 0 0.447212 2 0 0.0961198 0.00873357
292 1 27.9624 3.97641 1.10408 0 0.463615 2 0 0.0954476 -0.417386
293 1 28.2771 4.73475 0.706344 0 0.485048 2 0 0.0943965 -0.0658483
295 1 28.9321 3.77016 0.487204 0 0.330538 2 0 0.098772 -0.00626281
297 1 29.9979 4.07209 1.02303 0 0.337493 2 0 0.0986844 -0.294318
299 1 30.2046 4.67765 0.491317 0 0.342495 2 0 0.0986175 0.0135167
298 1 31.0296 3.97382 0.373364 4 0.222253 2 0 0.0994487 0.657596
301 1 0.908283 5.53205 0.461647 4 1.0304e-05 2 0 0.0994487 -0.463785
305 1 0.969942 6.9454 0.573423 4 1.66104e-05 2 0 0.0994487 -0.473532
306 1 1.7053 7.02884 1.23811 4 2.56774e-05 2 0 0.0994487 0.0665187
303 1 0.793684 6.22023 1.2768 4 1.2007e-05 2 0 0.0994487 -0.70338
307 1 1.89588 6.19966 0.519025 4 2.40759e-05 2 0 0.0994487 -0.156399
310 1 3.25442 6.96226 1.12748 4 8.35909e-05 2 0 0.0994487 -0.0541229
311 1 2.68177 5.61289 0.273587 4 3.48578e-05 2 0 0.0994487 -0.0596847
312 1 3.39503 6.28191 0.500536 4 7.67048e-05 2 0 0.0994487 -0.121443
308 1 3.10475 5.61709 1.30057 4 4.6457e-05 2 0 0.0994487 0.0402543
313 1 4.18979 5.46246 0.325783 4 0.00010001 2 0 0.0994487 0.0310195
315 1 4.13622 6.09659 1.22779 4 0.000125702 2 0 0.0994487 -0.0893877
316 1 4.82567 6.23357 0.333842 4 0.00020648 2 0 0.0994487 -0.0345747
317 1 4.77312 6.79931 1.15967 4 0.000251102 2 0 0.0994487 -0.30593
318 1 4.00267 7.02511 0.221759 4 0.00014467 2 0 0.0994487 -0.0853435
314 1 4.93434 5.42873 1.31778 4 0.000178933 2 0 0.0994487 -0.235097
319 1 5.78575 5.42185 0.301847 4 0.000290104 2 0 0.0994487 0.0125043
320 1 5.6935 6.24342 0.9632 4 0.000381026 2 0 0.0994487 -0.967759
322 1 6.43234 6.86927 1.00965 4 0.0007617 2 0 0.0994487 0.851665
323 1 6.37773 6.04115 0.154639 4 0.00048733 2 0 0.0994487 0.111114
324 1 5.54993 7.05206 0.147147 4 0.000410512 2 0 0.0994487 0.0363863
325 1 8.21355 5.31419 0.694273 4 0.00135611 2 0 0.0994487 -0.0895783
326 1 7.32761 6.15925 0.754293 4 0.00104268 2 0 0.0994487 0.225737
329 1 8.01352 6.85364 0.728993 4 0.00213637 2 0 0.0994487 0.0691883
331 1 7.33029 5.3575 0.0461812 4 0.000707781 2 0 0.0994487 0.0813599
332 1 9.76796 5.3194 0.792562 4 0.00316631 2 0 0.0994487 0.328478
333 1 8.88016 6.18865 0.736908 4 0.0028062 2 0 0.0994487 -0.235536
337 1 9.76329 6.23201 0.0941385 4 0.00438052 2 0 0.0994487 -0.0359508
338 1 8.99733 5.46479 0.012702 4 0.002132 2 0 0.0994487 -0.134751
339 1 10.5831 6.02196 0.964384 4 0.00655278 2 0 0.0994487 -0.356227
340 1 11.3128 6.37134 0.0776634 4 0.00929109 2 0 0.0994487 0.100351
341 1 10.5187 6.94145 0.15452 4 0.00818394 2 0 0.0994487 -0.0735281
345 1 11.7774 6.20735 1.05291 4 0.0121366 2 0 0.0994487 0.29241
343 1 11.9994 5.6274 0.183157 4 0.0104159 2 0 0.0994487 -0.0105155
344 1 12.6757 5.81849 0.861776 4 0.0163052 2 0 0.0994487 0.0818165
347 1 13.3506 6.58297 0.813679 4 0.0309263 2 0 0.0994487 -0.292064
348 1 13.3212 5.53867 0.0424813 4 0.0197933 2 0 0.0994487 -0.142893
349 1 14.0617 5.71565 0.77266 4 0.0303166 2 0 0.0994487 -0.372484
351 1 14.1303 6.38483 0.0380077 4 0.0364576 2 0 0.0994487 -0.0825922
352 1 15.0282 5.64393 0.034369 4 0.0418613 2 0 0.0994487 0.0573926
354 1 15.0472 6.45091 0.806774 4 0.0607428 2 0 0.0994487 -0.175962
353 1 15.8305 5.73813 0.95832 4 0.0649861 2 0 0.0994487 0.626005
355 1 16.491 6.45257 1.1401 4 0.111546 2 0 0.0994487 0.196348
357 1 16.62 5.41933 0.276819 4 0.0769752 2 0 0.0994487 0.0799864
358 1 15.6753 6.3382 0.0390223 4 0.0681332 2 0 0.0994487 0.0398804
361 1 17.0619 6.27419 0.411469 4 0.11914 2 0 0.0994487 0.138873
360 1 17.113 5.42499 1.24767 4 0.107373 2 0 0.0994487 -0.302154
359 1 17.8271 5.30128 0.541411 4 0.12223 2 0 0.0994487 0.150226
363 1 18.2745 7.0517 1.13153 4 0.224069 2 0 0.0994487 0.773809
364 1 18.3714 6.23173 0.609762 4 0.189041 2 0 0.0994487 0.151513
365 1 19.429 5.75829 0.62055 4 0.233421 2 0 0.0994487 0.0496623
367 1 19.9942 6.75229 0.610261 0 0.330182 2 0 0.0987761 -0.00533188
368 1 20.7494 5.77593 0.653722 0 0.330051 2 0 0.0987777 -0.0960792
371 1 21.6592 6.66248 0.666524 0 0.454196 2 0 0.0958457 -0.0450558
373 1 21.6904 5.73259 0.0517844 0 0.36778 2 0 0.0982236 -0.0018734
370 1 20.7787 6.6124 1.30355 0 0.425105 2 0 0.0968744 -0.51866
374 1 22.6732 5.8279 0.674154 0 0.471135 2 0 0.0951018 0.00518479
375 1 22.6319 6.69333 1.20734 0 0.557598 2 0 0.0888323 -0.324551
376 1 23.3484 6.78052 0.267835 0 0.558694 2 0 0.0887181 -0.125411
377 1 23.4822 5.88496 1.30013 0 0.574938 2 0 0.0868901 -0.175334
378 1 24.3197 6.56281 1.15825 0 0.639011 2 0 0.0768456 0.354292
379 1 24.1457 6.00685 0.427617 0 0.557957 2 0 0.0887953 0.00395267
382 1 25.1593 6.74159 0.495153 0 0.639901 2 0 0.0766703 0.0899739
380 1 25.6831 5.86213 0.700952 0 0.616848 2 0 0.0808866 0.148832
386 1 26.7485 6.36567 0.651888 0 0.643033 2 0 0.0760433 0.0393373
385 1 27.4966 5.54334 0.722172 0 0.578715 2 0 0.0864298 -0.240321
389 1 27.7097 7.0074 0.530173 0 0.6328 2 0 0.0780457 0.0317613
393 1 28.4685 6.20589 0.638647 0 0.565677 2 0 0.0879648 -0.262853
395 1 28.4822 5.38976 0.0592959 0 0.475128 2 0 0.0949094 -0.105271
390 1 29.3889 5.30889 0.818726 0 0.502581 2 0 0.0933667 0.202569
392 1 29.5784 6.89773 0.506505 0 0.534327 2 0 0.0910249 0.0819439
394 1 29.3762 6.15398 0.0801838 0 0.478587 2 0 0.0947363 0.0965254
398 1 30.3958 6.18258 0.649752 0 0.485609 2 0 0.0943672 0.310314
391 1 29.4379 6.18214 1.32212 0 0.672056 2 0 0.0695798 -0.0773748
396 1 30.9636 5.36838 0.595026 0 0.384311 2 0 0.097909 0.658458
400 1 31.1994 6.95407 0.60342 0 0.483302 2 0 0.094492 0.763579
401 1 31.7235 5.99622 0.446564 0 0.36122 2 0 0.0983359 0.866545
402 1 0.261851 7.63199 0.661866 4 1.36695e-05 2 0 0.0994487 -0.876373
403 1 0.831025 8.46344 0.61936 4 2.10182e-05 2 0 0.0994487 -0.577626
406 1 1.59266 7.76478 0.37187 4 2.91649e-05 2 0 0.0994487 -0.0897877
408 1 2.48799 7.14986 0.476331 4 4.9871e-05 2 0 0.0994487 -0.0836956
409 1 2.19177 8.6335 0.399707 4 5.41924e-05 2 0 0.0994487 -0.137268
411 1 3.01349 8.51445 0.935533 4 9.85613e-05 2 0 0.0994487 -0.53931
412 1 3.24418 7.77117 0.327041 4 0.000100901 2 0 0.0994487 -0.196205
410 1 2.39416 7.81099 1.27726 4 5.24718e-05 2 0 0.0994487 0.0869921
413 1 3.81243 8.45898 0.0822892 4 0.000161375 2 0 0.0994487 -0.0457787
414 1 3.97971 7.67009 1.24863 4 0.000168256 2 0 0.0994487 -0.0554889
415 1 4.70459 8.25653 0.921772 4 0.000316134 2 0 0.0994487 0.295327
416 1 4.67023 7.63706 0.247803 4 0.000261237 2 0 0.0994487 0.0376917
418 1 5.86955 8.34822 0.169905 4 0.000681729 2 0 0.0994487 0.113104
419 1 5.48363 7.59071 1.03232 4 0.000499344 2 0 0.0994487 -0.467668
420 1 6.49365 7.53799 0.169175 4 0.0008874 2 0 0.0994487 0.187622
421 1 6.39674 8.23976 1.04384 4 0.00111809 2 0 0.0994487 0.338138
422 1 7.28583 7.76918 0.746313 4 0.00185154 2 1 0.0994487 0.00992266
423 1 8.2859 8.31376 0.868772 4 0.00415108 2 2 0.0994487 0.278191
426 1 7.99895 7.60312 0.0282118 4 0.00240986 2 0 0.0994487 0.0674121
427 1 9.84313 7.22199 0.72344 4 0.00711277 2 1 0.0994487 -0.346939
428 1 8.91207 7.61626 0.661731 4 0.00472635 2 1 0.0994487 0.158521
429 1 9.73234 8.61964 0.693151 4 0.0102505 2 3 0.0994487 -0.256987
432 1 11.3161 7.14287 0.810636 4 0.0136697 2 1 0.0994487 0.448637
433 1 10.5731 7.9454 0.844311 4 0.0129581 2 3 0.0994487 -0.197777
436 1 11.227 8.11851 0.0422735 4 0.0156355 2 0 0.0994487 0.174336
437 1 12.7061 7.28322 0.565784 4 0.0297423 2 0 0.0994487 -0.0531167
438 1 12.178 8.23518 0.590765 4 0.0295652 2 2 0.0994487 0.163919
443 1 13.6169 8.09282 0.464536 4 0.0551962 2 2 0.0994487 0.0238254
442 1 14.3373 7.3542 0.580954 4 0.0604736 2 0 0.0994487 0.0649473
448 1 15.0689 8.29247 0.865596 4 0.111357 2 3 0.0994487 -0.312315
446 1 16.4328 7.18497 0.276798 4 0.123393 2 0 0.0994487 -0.0623803
447 1 15.6276 7.3114 0.923132 4 0.106265 2 1 0.0994487 -0.440938
449 1 16.26 8.16052 1.11176 4 0.159477 1 3 0.0994487 -0.202926
451 1 15.8668 8.31534 0.152632 4 0.132963 2 0 0.0994487 -0.185417
452 1 16.977 7.36262 1.11681 4 0.16726 2 0 0.0994487 0.393463
453 1 17.0683 8.10487 0.342208 4 0.178546 2 0 0.0994487 0.0341579
454 1 17.703 8.02386 1.02699 4 0.22281 2 1 0.0994487 0.877041
455 1 17.816 7.16593 0.212954 4 0.184373 2 0 0.0994487 0.0862156
460 1 18.4485 8.18989 0.168602 0 0.256558 2 0 0.0994116 0.0413836
456 1 19.0043 7.33822 0.644529 0 0.274738 2 0 0.0992948 0.176137
457 1 18.9276 8.15323 1.18624 0 0.317357 2 0 0.0989224 -0.0202463
459 1 19.8034 8.14191 0.360639 0 0.358912 2 0 0.0983727 0.109121
458 1 19.871 7.65743 1.3273 0 0.39454 2 0 0.097686 -0.615633
461 1 20.6988 7.46059 0.673449 0 0.423852 2 0 0.0969126 -0.0272448
462 1 20.6463 8.44048 1.03669 0 0.463552 1 0 0.0954493 -0.247371
463 1 21.5411 7.67297 1.15048 0 0.519276 1 0 0.0922167 -0.146932
464 1 21.6115 8.34459 0.258573 0 0.504761 2 0 0.0932246 -0.0504106
465 1 22.5864 8.17833 1.02102 0 0.595558 1 0 0.084185 -0.0235514
467 1 22.3364 7.48462 0.386381 0 0.533293 2 0 0.0911096 -0.0971791
468 1 23.4446 7.32194 1.0516 0 0.62658 1 0 0.079191 -0.263187
469 1 23.4881 8.07549 0.386864 0 0.616431 2 0 0.0809559 -0.0362347
470 1 24.3435 8.10177 1.00287 0 0.694235 1 0 0.0638391 0.00497797
472 1 24.3392 7.32545 0.26928 0 0.624638 2 0 0.0795396 0.0430737
473 1 25.1162 7.39484 1.25566 0 0.722399 1 0 0.0556417 0.232898
477 1 25.2288 8.1324 0.307821 0 0.680559 2 0 0.0674568 -0.0335063
474 1 26.02 8.00574 0.988901 0 0.738707 1 0 0.0505115 0.0737399
476 1 26.0919 7.27875 0.36814 0 0.672942 2 0 0.0693602 0.0422042
478 1 26.2729 8.58549 0.0891813 0 0.685977 2 0 0.0660552 0.0505314
482 1 26.9761 8.65498 1.02594 0 0.755389 2 0 0.0450649 0.294762
483 1 26.996 7.78335 0.434662 0 0.684943 2 0 0.0663267 0.128378
480 1 27.9642 8.50472 0.429665 0 0.657546 2 0 0.0729592 0.054988
481 1 27.7958 7.83833 1.21519 0 0.739468 2 0 0.0502693 0.736608
484 1 28.6515 7.11327 1.23056 0 0.665207 2 0 0.0712111 0.0399029
488 1 28.6951 7.71879 0.416043 0 0.593238 2 0 0.0845156 0.0222746
487 1 28.7798 8.55882 1.18636 0 0.672376 2 0 0.0695024 0.464952
485 1 29.5942 8.35338 0.54453 0 0.56119 2 0 0.0884563 0.00511781
489 1 30.3249 7.09182 1.17973 0 0.625133 2 0 0.0794584 0.525246
491 1 30.4298 8.49193 1.18422 0 0.616034 2 0 0.081028 0.211465
492 1 30.6367 7.87308 0.379941 0 0.509168 2 0 0.0929356 0.209241
486 1 29.4977 7.67807 1.27669 0 0.663131 2 0 0.0716942 -0.0174145
493 1 31.4248 8.62324 0.390578 0 0.496424 2 0 0.0937489 0.824176
490 1 31.2503 7.82438 1.3018 0 0.753076 2 0 0.0458448 0.974536
494 1 1.11992 10.2843 0.274311 4 3.2664e-05 2 0 0.0994487 -0.355607
495 1 1.01298 9.37753 1.20649 4 2.6706e-05 2 0 0.0994487 -0.414431
496 1 0.252597 9.92934 0.898547 4 2.01566e-05 2 0 0.0994487 -0.993185
497 1 0.36755 9.33519 0.122595 4 1.7972e-05 2 0 0.0994487 -0.58224
499 1 1.75605 9.44536 0.452252 4 4.47777e-05 2 0 0.0994487 -0.146777
500 1 1.82419 10.3747 0.969875 4 5.3168e-05 2 0 0.0994487 -0.235624
501 1 2.59083 10.2762 0.0854603 4 8.03012e-05 2 0 0.0994487 0.111276
502 1 2.37359 9.44609 1.22278 4 7.15731e-05 2 0 0.0994487 -0.235233
505 1 3.07153 9.37068 0.0798637 4 0.000106055 2 0 0.0994487 -0.0110583
506 1 3.3764 10.0336 0.729636 4 0.000155961 2 0 0.0994487 0.208505
507 1 3.93083 9.10878 0.853479 4 0.000204925 2 0 0.0994487 0.0780415
508 1 4.57569 9.17985 0.00735123 4 0.000294917 2 0 0.0994487 0.117407
509 1 4.60565 9.97638 0.570406 4 0.000389149 2 0 0.0994487 0.0562675
512 1 5.32886 8.94347 0.658838 4 0.000553682 2 0 0.0994487 0.271325
513 1 6.23892 9.79241 0.51167 4 0.00128326 2 0 0.0994487 0.106566
514 1 5.3095 9.83096 1.15767 4 0.000662601 2 0 0.0994487 0.142004
515 1 6.15157 9.05029 1.25461 4 0.00109925 2 0 0.0994487 0.0799043
516 1 6.23427 10.5093 1.18094 4 0.00147201 2 0 0.0994487 0.0308379
517 1 7.16567 8.87998 0.708464 4 0.00230371 2 1 0.0994487 -0.121549
518 1 8.09535 9.0463 0.0802495 4 0.00376274 2 0 0.0994487 0.0302688
519 1 7.95867 9.92351 0.574229 4 0.00451309 2 2 0.0994487 -0.0611635
520 1 7.17876 9.73611 1.18759 4 0.00275329 2 2 0.0994487 -0.0103522
522 1 8.93974 9.45316 0.72455 4 0.00765093 2 3 0.0994487 0.0629907
523 1 9.64533 10.3362 0.655345 4 0.0121643 2 4 0.0994487 -0.0478991
526 1 11.3751 8.84686 0.729954 4 0.0226061 2 3 0.0994487 0.239793
527 1 10.4031 8.88547 0.040013 4 0.0130336 2 0 0.0994487 -0.138186
528 1 10.4642 9.68094 0.652445 4 0.0166625 2 5 0.0994487 -0.0275438
530 1 11.3015 9.63391 1.31015 4 0.0272954 1 9 0.0994487 0.111553
531 1 13.0078 8.96564 0.784741 4 0.0533044 2 3 0.0994487 -0.0214099
532 1 12.1098 9.81377 0.682872 4 0.0378498 2 4 0.0994487 0.0523822
533 1 12.8214 10.4728 0.956288 4 0.0562556 1 4 0.0994487 -0.0849751
537 1 13.5317 9.67756 0.832116 4 0.0727483 2 4 0.0994487 -0.139777
536 1 14.4701 9.19794 0.757688 4 0.100213 2 2 0.0994487 -0.219686
539 1 14.2759 10.1516 0.212809 4 0.0919156 2 0 0.0994487 -0.0852922
542 1 15.1352 9.85683 1.0083 4 0.132284 1 4 0.0994487 -0.129967
546 1 15.3043 9.20714 0.0898472 4 0.123875 2 0 0.0994487 -0.197815
540 1 15.9037 9.16019 1.13615 4 0.16296 1 4 0.0994487 -0.0887174
543 1 15.695 10.1814 0.251776 4 0.146408 2 0 0.0994487 -0.016292
544 1 16.5108 9.95951 0.961184 4 0.196884 1 1 0.0994487 -0.00139652
545 1 16.5143 9.03182 0.259112 4 0.170842 2 1 0.0994487 0.0408154
548 1 17.0975 9.07233 1.12972 4 0.222012 1 1 0.0994487 0.203662
549 1 17.1586 10.0288 0.207964 4 0.217203 2 0 0.0994487 0.0239621
550 1 17.7826 9.87621 1.07575 0 0.273753 1 0 0.0993016 -0.0290091
551 1 17.7682 9.11154 0.116035 4 0.23786 2 0 0.0994487 -0.0387741
547 1 18.3038 8.9001 0.94546 0 0.285223 1 0 0.0992172 0.0878607
553 1 18.6034 9.73723 0.300646 0 0.306086 2 0 0.0990366 -0.0469299
555 1 18.7432 10.4626 1.1487 0 0.348095 1 0 0.0985381 -0.208566
552 1 19.824 8.96561 1.07126 0 0.405106 1 0 0.0974321 0.0686279
554 1 19.5158 9.9016 0.854914 0 0.386974 1 0 0.0978523 0.0626672
557 1 19.2484 8.96684 0.211989 0 0.33342 2 0 0.0987361 0.042457
558 1 19.9932 9.79255 0.07389 0 0.393826 2 0 0.0977022 0.145005
559 1 20.935 9.81688 0.757211 0 0.492274 2 0 0.0939906 0.0930671
561 1 20.7963 9.08945 0.209734 0 0.452734 2 0 0.0959043 0.0681631
562 1 21.6363 9.04637 0.987929 0 0.545934 1 0 0.0899854 0.0192435
565 1 22.1026 10.5361 0.885873 0 0.593354 2 0 0.0844956 0.0979495
569 1 21.9754 9.81742 0.212099 0 0.549203 2 0 0.0896738 0.0468112
564 1 22.8355 9.69743 0.812537 0 0.627686 2 0 0.0789901 0.155126
568 1 22.7607 8.87875 0.203008 0 0.584279 2 0 0.0857208 0.0491963
570 1 23.4324 8.98904 0.982659 0 0.663672 1 0 0.071564 0.0429909
575 1 23.607 10.5555 0.630744 0 0.682205 2 0 0.0670333 -0.167942
571 1 24.5162 9.57705 0.769972 0 0.711579 2 0 0.0589016 -0.185309
576 1 24.3138 8.82642 0.209603 0 0.664178 2 0 0.0714474 -0.0720258
577 1 24.4428 10.3356 0.111736 0 0.687858 2 0 0.0655571 -0.207842
578 1 25.2824 8.85953 1.01124 0 0.739315 1 0 0.0503154 0.100847
580 1 25.3822 10.2667 0.835515 0 0.736496 2 0 0.05122 0.219971
583 1 25.6018 9.52349 0.179476 0 0.698881 2 0 0.0625546 0.0560038
579 1 26.224 9.39608 0.886798 0 0.742677 2 0 0.04923 0.142139
586 1 26.9944 10.1666 0.831438 0 0.72888 2 0 0.0536322 -0.166005