ITEM: TIMESTEP
35500
ITEM: NUMBER OF ATOMS
9495
ITEM: BOX BOUNDS mm mm mm
0.0000000000000000e+00 5.7754955801691402e+01
-3.1425236439365034e+00 3.4149845760046013e+01
-5.2311995392589935e+01 3.1748021039364001e+01
ITEM: ATOMS id type x y z c_phase c_temp c_surf c_nbond c_visc f_3[1]
2149 1 50.7945 13.1888 -51.6581 0 3.21047 2 0 4.53999e-06 -0.484821
1924 1 51.4377 12.5115 -51.0437 0 3.27089 2 0 4.53999e-06 -0.336635
1560 1 51.8329 13.3214 -51.872 0 3.29313 2 0 4.53999e-06 0.220246
1561 1 52.4547 12.7999 -51.1859 0 3.38354 2 0 4.53999e-06 0.339658
2454 1 50.148 14.0325 -51.3111 0 3.16945 2 0 4.53999e-06 -0.964902
2453 1 50.1825 13.9722 -52.3446 0 3.14475 2 0 4.53999e-06 -0.565218
2100 1 50.23 15.1098 -52.0222 0 3.13588 2 0 4.53999e-06 -0.548774
1865 1 50.7689 14.7312 -51.0689 0 3.19881 2 0 4.53999e-06 -0.865945
1920 1 51.0575 14.1557 -51.9118 0 3.20887 2 0 4.53999e-06 0.0204791
2101 1 51.0204 13.7327 -50.8601 0 3.23856 2 0 4.53999e-06 -0.829161
1464 1 51.4147 15.0876 -51.7332 0 3.22521 2 0 4.53999e-06 0.121686
1143 1 51.8382 14.2184 -51.3624 0 3.30314 2 0 4.53999e-06 0.251586
1142 1 51.6987 15.0328 -50.8172 0 3.27215 2 0 4.53999e-06 -0.00117671
4521 1 52.7 14.9622 -51.537 0 3.41827 2 0 4.53999e-06 0.384634
1196 1 52.6892 13.8495 -51.2736 0 3.46277 2 0 4.53999e-06 0.436853
4544 1 53.5256 14.2787 -50.9866 0 3.85623 2 0 4.53999e-06 0.664867
2150 1 51.6647 12.1488 -49.9162 0 3.2531 2 0 4.53999e-06 -0.427722
2503 1 51.2257 13.1072 -50.1395 0 3.26271 2 0 4.53999e-06 -0.836451
2105 1 51.9416 13.0882 -49.4495 0 3.29046 2 0 4.53999e-06 -0.694265
900 1 52.1062 13.5069 -50.4921 0 3.35318 1 0 4.53999e-06 -0.305523
1921 1 52.581 12.7609 -50.1111 0 3.36497 2 0 4.53999e-06 0.23508
1562 1 52.5592 12.2783 -49.2473 0 3.27649 2 0 4.53999e-06 -0.0955258
1201 1 53.4785 13.2604 -49.6583 0 3.47628 1 0 4.53999e-06 0.55698
3628 1 53.1904 13.3145 -50.6196 0 3.70391 2 0 4.53999e-06 0.564711
1149 1 52.7164 13.5995 -49.3894 0 3.36453 1 0 4.53999e-06 -0.189611
4113 1 54.4345 13.3145 -49.3398 0 3.74753 2 0 4.53999e-06 0.793416
7200 1 49.7217 15.378 -49.8849 0 3.06239 2 0 4.53999e-06 -0.94284
1870 1 50.7451 14.594 -50.0744 0 3.19642 2 0 4.53999e-06 -0.951169
2460 1 51.5475 13.9042 -49.2303 0 3.25265 2 0 4.53999e-06 -0.760298
1469 1 51.5553 14.1583 -50.1299 0 3.27788 1 0 4.53999e-06 -0.949909
906 1 51.9181 15.0049 -49.7948 0 3.28374 1 0 4.53999e-06 -0.181382
8451 1 52.3453 14.42 -50.449 0 3.37742 1 0 4.53999e-06 0.166953
3632 1 52.3436 14.335 -49.3575 0 3.32539 1 0 4.53999e-06 -0.429639
1465 1 51.0249 15.373 -49.4876 0 3.18101 2 0 4.53999e-06 -0.412392
4545 1 52.9556 13.9688 -50.0757 0 3.46857 1 0 4.53999e-06 0.758429
9330 1 52.9482 14.7752 -49.8002 0 3.43619 1 0 4.53999e-06 0.436673
4130 1 53.8185 14.3681 -49.6046 0 3.71485 2 0 4.53999e-06 0.863656
4109 1 53.6927 15.0222 -50.3818 0 3.83713 2 0 4.53999e-06 0.720953
4522 1 54.1307 13.7311 -50.3015 0 3.91718 2 0 4.53999e-06 0.842972
952 1 53.8378 11.8014 -47.9097 0 3.15172 2 0 4.53999e-06 -0.0155734
2551 1 52.3748 12.9569 -48.4849 0 3.24792 2 0 4.53999e-06 -0.730579
2151 1 52.8576 12.0927 -48.1398 0 3.17522 2 0 4.53999e-06 -0.636956
2153 1 53.3277 12.7384 -48.8528 0 3.3164 2 0 4.53999e-06 0.0606514
1928 1 53.6569 12.9511 -47.927 0 3.24405 1 0 4.53999e-06 -0.727138
2104 1 52.8936 13.4315 -47.6438 0 3.20381 2 0 4.53999e-06 -0.782489
3522 1 54.5047 12.5315 -47.7316 0 3.22579 1 0 4.53999e-06 0.365397
3630 1 54.2526 12.4472 -48.7125 0 3.34824 2 0 4.53999e-06 0.441128
903 1 54.2865 13.3628 -48.3574 0 3.35781 1 0 4.53999e-06 0.708143
8992 1 55.2471 13.5929 -48.1045 0 3.59044 2 0 4.53999e-06 0.838517
3631 1 54.4936 13.4068 -47.4114 0 3.2366 1 0 4.53999e-06 0.377887
6588 1 50.7317 14.5202 -48.9416 0 3.15611 2 0 4.53999e-06 -0.809448
6967 1 51.4988 14.5717 -47.8037 0 3.10671 2 0 4.53999e-06 -0.558616
6032 1 51.7868 14.7634 -48.8381 0 3.23529 2 0 4.53999e-06 -0.411487
2457 1 52.5211 13.8873 -48.5317 0 3.27655 1 0 4.53999e-06 -0.646515
7563 1 52.873 14.6041 -48.1123 0 3.25732 2 0 4.53999e-06 -0.21367
3629 1 53.558 13.9217 -48.0359 0 3.28879 1 0 4.53999e-06 -0.421625
9333 1 53.546 13.8087 -48.9106 0 3.40832 1 0 4.53999e-06 0.920724
8452 1 52.7397 15.1367 -48.95 0 3.33078 2 0 4.53999e-06 0.00477366
9222 1 53.6996 14.7966 -48.6703 0 3.39532 2 0 4.53999e-06 0.415453
9329 1 54.4156 14.1467 -47.8061 0 3.32088 2 0 4.53999e-06 0.270643
4114 1 54.5187 14.1903 -48.8004 0 3.68177 2 0 4.53999e-06 0.755374
9428 1 55.3898 14.4378 -47.4955 0 3.62001 2 0 4.53999e-06 0.63087
2547 1 52.9794 11.6633 -47.1255 0 3.02127 2 0 4.53999e-06 -0.858515
1195 1 53.9983 10.9387 -45.7646 0 2.8858 2 0 4.53999e-06 -0.594965
1008 1 53.9367 11.1687 -46.9033 0 2.99175 2 0 4.53999e-06 -0.242718
1199 1 54.0668 12.0125 -45.8328 0 2.99053 2 0 4.53999e-06 -0.883724
4325 1 55.1184 11.057 -45.8622 0 2.9687 2 0 4.53999e-06 0.182268
3519 1 54.7007 11.7149 -46.532 0 3.06875 2 0 4.53999e-06 0.00183068
1922 1 53.9704 12.2454 -46.9786 0 3.11084 1 0 4.53999e-06 -0.790407
1866 1 53.8684 13.1315 -46.9907 0 3.15323 1 0 4.53999e-06 -0.948855
7205 1 53.943 12.9802 -46.0048 0 3.03068 1 0 4.53999e-06 -0.969382
4125 1 55.2331 12.9599 -47.3146 0 3.23621 1 0 4.53999e-06 0.7688
1148 1 54.7277 12.6742 -46.6884 0 3.13474 1 0 4.53999e-06 -0.150812
1869 1 54.9605 12.6612 -45.9024 0 3.06668 1 0 4.53999e-06 -0.614171
4587 1 55.2961 11.9977 -47.3234 0 3.42847 2 0 4.53999e-06 0.528849
4520 1 55.5472 12.1328 -46.3407 0 3.13667 1 0 4.53999e-06 0.548662
1466 1 54.565 13.4376 -46.4058 0 3.11612 1 0 4.53999e-06 -0.647408
9220 1 55.6362 13.2338 -45.7742 0 3.12722 1 0 4.53999e-06 0.711606
4548 1 55.8282 12.9287 -46.5861 0 3.20534 1 0 4.53999e-06 0.807781
3870 1 56.6745 12.1793 -46.3016 0 3.58247 2 0 4.53999e-06 0.685625
8739 1 56.8573 13.2077 -45.8502 0 3.56133 2 0 4.53999e-06 0.807697
6973 1 52.8475 14.3497 -47.0676 0 3.12567 2 0 4.53999e-06 -0.590576
7556 1 53.8074 14.0261 -47.0784 0 3.18047 2 0 4.53999e-06 -0.58715
6298 1 54.0182 14.1877 -46.0776 0 3.0528 2 0 4.53999e-06 -0.512984
8449 1 54.6313 14.524 -46.8186 0 3.19882 2 0 4.53999e-06 0.0253588
9334 1 55.1789 13.6837 -46.8484 0 3.21608 1 0 4.53999e-06 0.70378
7557 1 55.1134 14.0914 -45.9657 0 3.11085 2 0 4.53999e-06 0.17702
9218 1 55.9828 13.8424 -46.3426 0 3.42276 2 0 4.53999e-06 0.706124
1976 1 54.6459 11.4046 -44.9191 0 2.91551 2 0 4.53999e-06 -0.660654
955 1 55.5615 11.4254 -44.4275 0 2.96555 1 0 4.53999e-06 -0.165461
954 1 55.2065 11.9336 -45.5336 0 3.03114 1 0 4.53999e-06 -0.0736425
4417 1 56.1076 11.3768 -45.2989 0 3.09206 2 0 4.53999e-06 0.381099
4588 1 56.235 10.8346 -44.0846 0 2.99092 2 0 4.53999e-06 0.311526
4227 1 57.2664 11.4564 -44.6334 0 3.55504 2 0 4.53999e-06 0.6894
7202 1 53.787 13.1587 -44.5256 0 2.81977 2 0 4.53999e-06 -0.936545
2553 1 55.0302 12.2694 -44.8232 0 2.97763 1 0 4.53999e-06 -0.784154
7203 1 54.4259 12.8083 -45.1518 0 2.96335 1 0 4.53999e-06 -0.892093
4518 1 55.8629 12.2525 -44.5495 0 3.04688 1 0 4.53999e-06 0.330508
7204 1 55.3538 12.9443 -44.9736 0 3.02526 1 0 4.53999e-06 -0.297074
2656 1 55.0683 12.2394 -43.9714 0 2.91074 1 0 4.53999e-06 -0.923018
6304 1 55.8426 12.9876 -44.1105 0 3.02367 1 0 4.53999e-06 -0.0702864
6608 1 54.8438 13.3905 -45.5663 0 3.03773 1 0 4.53999e-06 -0.385029
8448 1 55.85 12.4654 -45.5021 0 3.12095 1 0 4.53999e-06 0.757591
6908 1 54.6692 13.4824 -44.0872 0 2.84848 2 0 4.53999e-06 -0.389928
4519 1 56.715 12.149 -45.1899 0 3.40802 2 0 4.53999e-06 0.733938
902 1 56.6392 12.4912 -44.2235 0 3.17329 1 0 4.53999e-06 0.94163
4546 1 57.6187 12.4325 -44.0187 0 3.56014 2 0 4.53999e-06 0.977461
3213 1 57.5608 12.6226 -45.0979 0 3.68917 2 0 4.53999e-06 0.91479
7555 1 56.2317 12.9929 -44.9507 0 3.14687 1 0 4.53999e-06 0.7724
9221 1 57.02 13.3092 -44.5237 0 3.45654 2 0 4.53999e-06 0.675354
6604 1 53.4222 13.6845 -45.4427 0 2.91492 2 0 4.53999e-06 -0.957516
7474 1 53.6367 14.0365 -43.9357 0 2.67031 2 0 4.54e-06 -0.605823
6027 1 54.376 13.9318 -45.0292 0 2.93366 2 0 4.53999e-06 -0.292256
6030 1 55.442 13.7085 -44.6483 0 2.99709 1 0 4.53999e-06 0.0120949
9171 1 56.1739 13.9129 -45.2753 0 3.14104 2 0 4.53999e-06 0.437171
1253 1 55.1939 10.3829 -43.7127 0 2.79401 2 0 4.53999e-06 -0.36946
2598 1 54.963 11.4052 -43.6331 0 2.85866 2 0 4.53999e-06 -0.83438
1010 1 55.8581 11.2895 -43.3048 0 2.93919 1 0 4.53999e-06 -0.0389844
3425 1 55.1464 11.2033 -42.5395 0 2.82169 2 0 4.53999e-06 -0.713622
4630 1 56.0335 10.7921 -42.3695 0 2.91339 2 0 4.53999e-06 0.10319
3520 1 56.6112 11.6488 -43.8764 0 3.11386 1 0 4.53999e-06 0.594151
4420 1 56.7634 11.2878 -42.8443 0 3.26303 2 0 4.53999e-06 0.619265
1926 1 56.1632 11.9347 -42.6101 0 2.97553 1 0 4.53999e-06 0.256566
7152 1 54.4688 12.6997 -43.4509 0 2.78709 2 0 4.53999e-06 -0.956037
7373 1 53.5793 13.2106 -43.0421 0 2.602 2 0 4.54e-06 -0.979595
6297 1 54.507 13.5512 -42.9416 0 2.71238 2 0 4.53999e-06 -0.522148
2552 1 56.0072 12.3436 -43.4489 0 2.99737 1 0 4.53999e-06 -0.0907149
6970 1 55.3386 12.9399 -43.4101 0 2.89118 1 0 4.53999e-06 -0.700522
7376 1 55.0416 12.708 -42.4211 0 2.78838 1 0 4.53999e-06 -0.992046
2599 1 55.3072 12.0714 -42.9613 0 2.86775 1 0 4.53999e-06 -0.871226
6301 1 56.032 13.1395 -42.9448 0 2.95793 1 0 4.53999e-06 -0.169678
6245 1 55.3758 13.5399 -42.6027 0 2.81961 1 0 4.53999e-06 -0.321008
6972 1 56.4951 12.7419 -42.2877 0 3.0052 1 0 4.53999e-06 0.951392
901 1 57.1589 12.0484 -43.204 0 3.26711 1 0 4.53999e-06 0.844103
4516 1 56.7086 12.7709 -43.3711 0 3.12666 1 0 4.53999e-06 0.894635
3873 1 57.7619 12.749 -42.837 0 3.50275 2 0 4.53999e-06 0.995522
8546 1 56.8885 13.298 -42.7089 0 3.10809 1 0 4.53999e-06 0.617952
8944 1 57.4284 13.4442 -43.5531 0 3.4701 2 0 4.53999e-06 0.755852
8547 1 56.3963 13.6628 -43.7785 0 3.08237 2 0 4.53999e-06 0.0721219
9168 1 57.5453 13.6917 -42.3389 0 3.44478 2 0 4.53999e-06 0.728518
9122 1 56.6615 14.212 -42.9286 0 3.03941 2 0 4.53999e-06 0.0635376
1255 1 55.4233 11.8263 -41.8887 0 2.81791 1 0 4.53999e-06 -0.62375
1685 1 54.7746 11.4197 -41.0192 0 2.70168 2 0 4.53999e-06 -0.67847
4229 1 55.7452 11.0753 -41.3188 0 2.81483 2 0 4.53999e-06 0.0927602
3521 1 55.4405 11.9645 -40.8293 0 2.76544 1 0 4.53999e-06 -0.0035803
4591 1 56.5855 11.4498 -41.7925 0 3.1612 2 0 4.53999e-06 0.598151
6450 1 53.9368 12.9393 -41.828 0 2.61042 2 0 4.54e-06 -0.994097
6905 1 54.6956 12.3136 -41.569 0 2.71353 1 0 4.53999e-06 -0.93042
6590 1 55.8329 12.5566 -42.0735 0 2.87456 1 0 4.53999e-06 -0.896133
6907 1 54.7697 12.6748 -40.7246 0 2.69513 1 0 4.53999e-06 -0.94189
8447 1 56.1947 13.0181 -41.26 0 2.86915 1 0 4.53999e-06 0.546655
7374 1 55.5157 12.7056 -41.0299 0 2.77581 1 0 4.53999e-06 -0.160635
1923 1 56.0998 12.0861 -41.3614 0 2.88064 1 0 4.53999e-06 0.590043
6605 1 55.5275 13.2011 -41.733 0 2.79982 1 0 4.53999e-06 -0.322484
6240 1 54.7173 13.4128 -41.7469 0 2.7023 2 0 4.53999e-06 -0.669349
4547 1 57.1157 12.128 -42.2617 0 3.28157 2 0 4.53999e-06 0.826251
8989 1 57.6454 12.8691 -41.7812 0 3.41574 2 0 4.53999e-06 0.90919
9331 1 56.8398 12.5124 -41.4226 0 3.0019 1 0 4.53999e-06 0.813968
9169 1 56.8905 13.5124 -41.5547 0 3.0031 2 0 4.53999e-06 0.497231
7662 1 56.1764 13.7492 -42.1151 0 2.90731 2 0 4.53999e-06 -0.0188314
9429 1 55.1945 13.6611 -40.8988 0 2.71362 2 0 4.53999e-06 -0.219321
2452 1 53.9713 11.5767 -39.4577 0 2.59294 2 0 4.54e-06 -0.696757
4326 1 55.4993 11.2634 -40.2293 0 2.72711 2 0 4.53999e-06 0.285223
1569 1 54.7557 11.9191 -40.0732 0 2.67912 1 0 4.54e-06 -0.562541
1259 1 54.8396 11.0516 -39.4488 0 2.62963 2 0 4.54e-06 -0.0212643
4331 1 55.8107 11.7476 -39.4588 0 2.95832 2 0 4.53999e-06 0.770592
6513 1 53.8968 12.554 -39.677 0 2.61028 2 0 4.54e-06 -0.90506
7559 1 54.4206 13.2821 -40.1547 0 2.64221 2 0 4.54e-06 -0.649351
2201 1 53.897 12.1747 -38.6491 0 2.60402 1 0 4.54e-06 -0.875339
6031 1 54.0583 12.9819 -38.8454 0 2.62273 1 0 4.54e-06 -0.703159
9123 1 56.1447 13.5802 -40.4743 0 2.80848 2 0 4.53999e-06 0.392472
2548 1 54.7938 12.7185 -39.8144 0 2.67705 1 0 4.54e-06 -0.507033
1566 1 54.5228 12.2567 -39.2425 0 2.65712 1 0 4.54e-06 -0.680632
1563 1 55.5011 12.3254 -40.0632 0 2.74844 1 0 4.53999e-06 0.931983
7554 1 55.4228 13.1352 -40.1627 0 2.72689 1 0 4.53999e-06 0.366671
1198 1 55.1692 12.0986 -39.0331 0 2.70837 1 0 4.53999e-06 0.774901
6303 1 54.9342 12.8147 -38.9264 0 2.69065 1 0 4.54e-06 0.631627
9224 1 55.7495 12.847 -39.308 0 2.89512 2 0 4.53999e-06 0.868557
8945 1 54.7266 13.4326 -39.3015 0 2.66364 2 0 4.54e-06 -0.0644917
4515 1 56.4784 12.1107 -40.2922 0 3.09169 2 0 4.53999e-06 0.831521
3872 1 56.9603 13.0275 -40.3817 0 3.21715 2 0 4.53999e-06 0.776079
1011 1 53.525 11.6499 -37.8906 0 2.5334 2 0 4.54e-06 -0.321372
1688 1 52.6823 11.9449 -37.7967 0 2.4496 2 0 4.54002e-06 -0.611329
4419 1 54.2096 12.0401 -37.7388 0 2.61296 1 0 4.54e-06 0.231908
4330 1 54.5272 11.6016 -38.6195 0 2.64338 2 0 4.54e-06 0.0207374
4228 1 55.068 11.867 -37.9451 0 2.88962 2 0 4.53999e-06 0.630071
2202 1 52.217 12.2459 -36.9521 0 2.3998 2 0 4.54003e-06 -0.627909
2154 1 53.5675 12.5548 -37.9495 0 2.55803 1 0 4.54e-06 -0.845507
7377 1 52.6653 12.8258 -37.5395 0 2.45171 2 0 4.54002e-06 -0.600143
1467 1 53.7423 12.6797 -37.1754 0 2.55734 1 0 4.54e-06 0.512462
6243 1 53.392 13.3895 -37.6768 0 2.52878 2 0 4.54e-06 -0.314154
9223 1 54.2051 13.1982 -37.9947 0 2.63953 2 0 4.54e-06 -0.0738027
1567 1 54.5305 12.4896 -38.3695 0 2.66347 1 0 4.54e-06 0.502067
4549 1 55.3738 12.6769 -38.1759 0 2.91153 2 0 4.53999e-06 0.889053
8600 1 55.0056 13.5141 -38.2979 0 2.74921 2 0 4.53999e-06 0.426873
4551 1 54.5908 12.6894 -37.5026 0 2.80107 2 0 4.53999e-06 0.681185
1681 1 51.0728 11.7938 -36.6453 0 2.31623 2 0 4.54008e-06 -0.545387
3422 1 51.9584 11.8896 -36.1966 0 2.36618 2 0 4.54005e-06 -0.187643
1313 1 52.6638 11.454 -36.8355 0 2.4044 2 0 4.54003e-06 -0.126372
4328 1 53.9148 11.8048 -36.8828 0 2.52458 2 0 4.54e-06 0.448469
3966 1 52.8971 11.9815 -35.8631 0 2.40915 2 0 4.54003e-06 0.322189
6237 1 50.4206 13.5612 -36.6 0 2.35584 2 0 4.54005e-06 -0.439054
1684 1 50.1762 12.3629 -35.4914 0 2.36705 2 0 4.54005e-06 -0.483615
7475 1 50.4802 13.0785 -35.8801 0 2.38556 2 0 4.54004e-06 -0.673793
9172 1 50.4257 13.6793 -35.3008 0 2.43412 2 0 4.54002e-06 0.182158
7151 1 51.3339 13.0625 -36.5028 0 2.37134 2 0 4.54004e-06 -0.411036
7472 1 52.2198 12.9186 -36.6126 0 2.39977 2 0 4.54003e-06 -0.448347
6242 1 51.9885 13.6881 -36.7658 0 2.38268 2 0 4.54004e-06 -0.141085
2208 1 51.1435 12.5524 -35.9434 0 2.36779 2 0 4.54005e-06 -0.383215
4416 1 51.9728 12.6242 -35.8323 0 2.38171 2 0 4.54004e-06 0.281246
956 1 51.076 13.0033 -35.1725 0 2.40915 2 0 4.54003e-06 0.387566
7657 1 51.7436 13.3899 -35.8344 0 2.395 2 0 4.54003e-06 0.433513
1257 1 53.0919 12.1428 -36.8726 0 2.46398 2 0 4.54001e-06 0.133734
4232 1 53.5311 12.6665 -36.3386 0 2.6715 2 0 4.54e-06 0.589398
7558 1 52.9961 13.2421 -36.8194 0 2.46162 2 0 4.54001e-06 0.114711
3641 1 53.9201 13.5077 -36.8527 0 2.5759 2 0 4.54e-06 0.339648
904 1 52.772 12.9635 -35.944 0 2.42067 2 0 4.54002e-06 0.466726
3876 1 54.8877 13.2796 -36.8816 0 3.05629 2 0 4.53999e-06 0.672279
7150 1 49.737 13.8107 -35.8022 0 2.39287 2 0 4.54003e-06 -0.521527
9126 1 51.0163 13.841 -35.9833 0 2.4003 2 0 4.54003e-06 0.023068
9120 1 52.6135 13.8979 -36.0735 0 2.39485 2 0 4.54003e-06 0.347176
2597 1 46.9431 13.5045 -33.8045 0 2.30342 2 0 4.54009e-06 -0.74847
1929 1 48.6448 13.3246 -34.6077 0 2.39165 2 0 4.54003e-06 -0.23804
2205 1 47.7494 13.5266 -34.1527 0 2.33584 2 0 4.54006e-06 -0.447386
1683 1 47.5162 12.8313 -33.6404 0 2.30682 2 0 4.54009e-06 -0.247205
4633 1 48.3306 13.19 -33.8262 0 2.36479 2 0 4.54005e-06 0.198578
9227 1 48.8101 13.6842 -33.9908 0 2.43029 2 0 4.54002e-06 0.786542
1056 1 49.299 12.6189 -34.8298 0 2.39723 2 0 4.54003e-06 -0.273366
2655 1 50.0758 13.0999 -34.9962 0 2.42493 2 0 4.54002e-06 0.0238247
7553 1 49.3609 13.5429 -34.9932 0 2.42206 2 0 4.54002e-06 -0.322619
4590 1 49.478 13.2505 -34.1492 0 2.60397 2 0 4.54e-06 0.500177
4631 1 51.0813 12.0969 -35.1794 0 2.35726 2 0 4.54005e-06 0.0710858
6509 1 47.3613 14.3304 -34.2218 0 2.31658 2 0 4.54008e-06 -0.530993
6968 1 48.1215 13.9828 -34.596 0 2.35761 2 0 4.54005e-06 -0.347134
8544 1 48.8514 14.1769 -34.6432 0 2.40036 2 0 4.54003e-06 0.0399645
953 1 47.6629 13.8066 -33.5123 0 2.33179 2 0 4.54007e-06 -0.63342
6305 1 48.1766 14.2871 -33.9392 0 2.36003 1 0 4.54005e-06 0.0150084
8686 1 48.7433 15.0974 -34.2855 0 2.36843 2 0 4.54004e-06 0.162397
8898 1 49.6785 14.2915 -34.8465 0 2.43453 2 0 4.54002e-06 0.34128
8595 1 49.1728 14.2674 -33.9578 0 2.56673 2 0 4.54e-06 0.733475
3640 1 50.1563 13.765 -34.3714 0 2.65717 2 0 4.54e-06 0.66669
8943 1 51.2786 13.8451 -35.0971 0 2.56966 2 0 4.54e-06 0.47962
1258 1 47.1218 13.4001 -32.9167 0 2.3093 2 0 4.54009e-06 -0.293115
3922 1 47.9895 13.3315 -33.0835 0 2.33407 2 0 4.54007e-06 0.254621
6455 1 45.2406 14.8473 -33.2568 0 2.35134 2 0 4.54005e-06 -0.44016
6694 1 44.4899 14.9008 -32.1538 0 2.51527 2 0 4.54e-06 -0.384428
2652 1 44.2839 14.1394 -31.7597 0 2.55684 2 0 4.54e-06 -0.227598
8543 1 45.198 14.2424 -32.3014 0 2.50378 2 0 4.54001e-06 -0.210559
8838 1 45.382 15.0527 -31.9528 0 2.51711 2 0 4.54e-06 0.271076
6591 1 46.254 13.7969 -33.0763 0 2.33183 2 0 4.54007e-06 -0.802672
6512 1 46.4328 14.6582 -33.2435 0 2.32304 2 0 4.54007e-06 -0.455688
1197 1 47.0567 14.1779 -33.4433 0 2.31397 2 0 4.54008e-06 -0.829174
3523 1 46.0294 13.8111 -32.1464 0 2.44981 2 0 4.54002e-06 0.210769
9170 1 46.1069 14.6617 -32.3939 0 2.41983 2 0 4.54002e-06 0.391118
1565 1 46.9681 14.2085 -32.639 0 2.32757 2 0 4.54007e-06 0.025099
4121 1 48.5309 13.8735 -33.3311 0 2.50489 2 0 4.54001e-06 0.60889
7658 1 47.6089 14.7757 -33.4765 0 2.31994 2 0 4.54008e-06 -0.141432
3643 1 47.8302 14.1887 -32.9042 0 2.32924 2 0 4.54007e-06 0.229525
3281 1 48.5144 14.6854 -33.3949 0 2.36216 2 0 4.54005e-06 0.398834
2199 1 43.3566 13.4659 -31.1019 0 2.48676 2 0 4.54001e-06 -0.424599
1260 1 42.5351 13.7633 -30.2512 0 2.4489 2 0 4.54002e-06 -0.849447
2449 1 44.2434 13.4351 -31.3049 0 2.54263 2 0 4.54e-06 0.183524
4225 1 44.0842 13.5343 -30.4265 0 2.57914 2 0 4.54e-06 0.518452
6974 1 43.022 14.4372 -31.009 0 2.48676 2 0 4.54001e-06 -0.711642
2152 1 43.7285 14.1439 -31.1468 0 2.53512 2 0 4.54e-06 -0.402473
7656 1 43.9224 14.8035 -31.287 0 2.55138 2 0 4.54e-06 -0.212148
6302 1 43.0432 14.3522 -30.2347 0 2.48773 2 0 4.54001e-06 -0.92563
7149 1 42.3957 14.9939 -30.2038 0 2.44071 2 0 4.54002e-06 -0.703013
1261 1 43.4092 13.8648 -30.5085 0 2.50103 2 0 4.54001e-06 -0.440913
6906 1 43.4282 15.0551 -30.5456 0 2.51302 2 0 4.54001e-06 -0.188488
9226 1 43.8938 14.4828 -30.3012 0 2.65517 2 0 4.54e-06 0.606072
4124 1 44.4095 14.0956 -30.839 0 2.6992 2 0 4.53999e-06 0.89439
8946 1 44.8257 14.5842 -31.3767 0 2.73456 2 0 4.53999e-06 0.70145
4593 1 45.0899 13.8071 -31.4855 0 2.76206 2 0 4.53999e-06 0.557424
8897 1 44.399 14.8377 -30.6757 0 2.73833 2 0 4.53999e-06 0.591223
3874 1 45.8032 14.4236 -31.3836 0 2.80184 2 0 4.53999e-06 0.724861
1256 1 43.2772 13.2696 -29.9885 0 2.45904 2 0 4.54001e-06 -0.102138
6606 1 42.1523 14.3354 -29.4832 0 2.46854 2 0 4.54001e-06 -0.999818
6452 1 41.8048 14.9301 -28.6987 0 2.49833 2 0 4.54001e-06 -0.247006
6508 1 41.1376 14.244 -28.4547 0 2.50042 2 0 4.54001e-06 -0.568268
8450 1 42.0325 13.8255 -28.424 0 2.53436 2 0 4.54e-06 0.303585
8497 1 43.2351 14.6954 -29.668 0 2.50235 2 0 4.54001e-06 -0.0104166
4418 1 42.9344 13.9027 -29.3805 0 2.48232 2 0 4.54001e-06 -0.122325
4424 1 43.723 14.0157 -29.7804 0 2.50707 2 0 4.54001e-06 0.47742
8270 1 42.718 14.5341 -28.6551 0 2.78968 2 0 4.53999e-06 0.510193
8317 1 44.1541 15.1225 -29.4717 0 2.6814 2 0 4.54e-06 0.506077
2600 1 40.7208 13.2755 -26.9398 0 2.53721 2 0 4.54e-06 -0.264371
1691 1 41.7229 13.4973 -27.1504 0 2.75656 2 0 4.53999e-06 0.692077
2456 1 40.2989 13.9456 -27.4376 0 2.51064 2 0 4.54001e-06 -0.73603
6241 1 40.4905 14.5568 -26.9261 0 2.5395 2 0 4.54e-06 -0.610271
9128 1 41.1299 14.7471 -27.5266 0 2.55879 2 0 4.54e-06 -0.0758386
8444 1 41.1248 13.8907 -27.5883 0 2.55646 2 0 4.54e-06 -0.0576858
8500 1 41.8733 14.2965 -27.5726 0 2.76791 2 0 4.53999e-06 0.942652
3217 1 41.9377 14.7797 -26.8151 0 2.82807 2 0 4.53999e-06 0.828867
8263 1 40.9509 14.0105 -26.8186 0 2.56759 1 0 4.54e-06 0.0428995
8314 1 41.1031 14.8597 -26.6386 0 2.57397 2 0 4.54e-06 0.247822
3970 1 41.4426 14.1287 -26.5172 0 2.60387 2 0 4.54e-06 0.991849
2212 1 40.3977 13.2367 -25.3358 0 2.54452 2 0 4.54e-06 -0.161182
4324 1 41.367 13.3121 -26.3379 0 2.6927 2 0 4.54e-06 0.530366
4415 1 40.677 13.643 -26.0459 0 2.56781 1 0 4.54e-06 -0.151885
9427 1 39.8525 13.9155 -25.6501 0 2.54232 2 0 4.54e-06 -0.950205
2458 1 40.2491 13.9145 -26.4879 0 2.53975 2 0 4.54e-06 -0.878132
6185 1 39.7118 14.7983 -26.03 0 2.51737 2 0 4.54e-06 -0.861262
7660 1 40.1216 14.7363 -25.0087 0 2.59298 2 0 4.54e-06 -0.554291
8990 1 40.4972 14.3105 -25.5908 0 2.58646 1 0 4.54e-06 -0.494408
8738 1 40.5493 14.4404 -26.2175 0 2.56276 1 0 4.54e-06 -0.647348
3967 1 41.2258 13.9032 -25.7007 0 2.73058 2 0 4.53999e-06 0.780431
8316 1 41.1295 14.5528 -25.9378 0 2.59636 1 0 4.54e-06 0.700996
4116 1 40.7317 13.9666 -25.0237 0 2.74866 2 0 4.53999e-06 0.520559
3207 1 41.197 14.8095 -25.0146 0 2.87133 2 0 4.53999e-06 0.667184
3220 1 40.566 15.2462 -25.744 0 2.56804 2 0 4.54e-06 -0.0827668
1973 1 40.1824 12.7368 -24.4499 0 2.44902 2 0 4.54002e-06 -0.102031
4333 1 40.4932 13.5516 -23.9621 0 2.72959 2 0 4.53999e-06 0.592074
5920 1 39.3091 13.7933 -23.841 0 2.49312 2 0 4.54001e-06 -0.953009
8442 1 39.9616 13.8761 -24.6784 0 2.57268 2 0 4.54e-06 -0.919563
7653 1 40.0444 14.2277 -23.529 0 2.60598 2 0 4.54e-06 -0.563659
3692 1 40.6226 14.4433 -24.2422 0 2.8446 2 0 4.53999e-06 0.52594
3212 1 40.8366 14.8733 -23.2408 0 2.97778 2 0 4.53999e-06 0.538291
2022 1 40.3002 13.1498 -22.9504 0 2.54473 2 0 4.54e-06 0.113914
6458 1 38.9233 13.5224 -22.839 0 2.40803 2 0 4.54003e-06 -0.902481
6033 1 39.7103 13.4107 -21.7619 0 2.47084 2 0 4.54001e-06 -0.531023
9225 1 40.3754 13.7483 -22.0246 0 2.56786 1 0 4.54e-06 0.157781
1789 1 40.8249 13.0629 -21.6972 0 2.54014 2 0 4.54e-06 0.321226
1013 1 41.1846 13.7695 -22.2546 0 2.83631 2 0 4.53999e-06 0.888996
8269 1 39.9507 14.696 -22.6855 0 2.5853 2 0 4.54e-06 -0.407792
8213 1 39.8231 13.8325 -22.7035 0 2.54109 2 0 4.54e-06 -0.798515
9125 1 39.9383 14.4698 -21.7497 0 2.52008 2 0 4.54e-06 -0.603838
5917 1 39.2792 14.1135 -22.0694 0 2.46023 2 0 4.54001e-06 -0.967382
4231 1 40.674 13.9826 -22.9805 0 2.80576 2 0 4.53999e-06 0.848223
8684 1 40.6934 14.5088 -22.2047 0 2.78155 2 0 4.53999e-06 0.529966
3740 1 41.4716 14.3374 -21.552 0 2.84749 2 0 4.53999e-06 0.944687
8102 1 40.7389 14.9871 -21.4699 0 2.6018 2 0 4.54e-06 0.272841
6515 1 39.768 13.5054 -20.8892 0 2.43434 2 0 4.54002e-06 -0.526114
1974 1 40.9056 13.7795 -20.0076 0 2.50993 2 0 4.54001e-06 0.530072
1057 1 41.1878 13.2037 -20.6829 0 2.50875 2 0 4.54001e-06 0.478601
7106 1 39.3304 13.8396 -19.875 0 2.37521 2 0 4.54004e-06 -0.900033
6182 1 38.8931 13.9804 -21.122 0 2.38026 2 0 4.54004e-06 -0.995427
8596 1 40.2607 13.9478 -20.374 0 2.46297 1 0 4.54001e-06 -0.530347
8948 1 40.2534 14.2879 -21.1143 0 2.51582 1 0 4.54e-06 -0.644187
8267 1 40.2309 15.0672 -20.6584 0 2.48229 2 0 4.54001e-06 -0.230757
7661 1 39.5998 14.4362 -20.6013 0 2.43066 2 0 4.54002e-06 -0.865335
3514 1 40.7827 13.8123 -21.1987 0 2.55448 1 0 4.54e-06 0.653628
4014 1 41.627 14.0398 -20.4782 0 2.7746 2 0 4.53999e-06 0.99733
8315 1 40.6314 14.6444 -20.0084 0 2.47971 2 0 4.54001e-06 0.163919
3920 1 41.0156 14.5451 -20.7235 0 2.68297 2 0 4.54e-06 0.741791
3423 1 41.2372 14.4846 -19.5244 0 2.62597 2 0 4.54e-06 0.860152
2102 1 40.2017 13.5863 -19.463 0 2.41332 2 0 4.54003e-06 -0.364467
6689 1 40.035 13.6271 -17.6821 0 2.3685 2 0 4.54004e-06 -0.491556
4321 1 41.0727 13.7522 -19.0976 0 2.47627 2 0 4.54001e-06 0.448794
8268 1 40.0399 14.395 -19.6213 0 2.42503 2 0 4.54002e-06 -0.857739
5918 1 39.7078 14.1295 -18.5853 0 2.37254 2 0 4.54004e-06 -0.987558
9425 1 40.4336 14.5529 -18.0882 0 2.42939 1 0 4.54002e-06 -0.855763
4230 1 40.5423 14.257 -18.9634 0 2.44686 1 0 4.54002e-06 -0.96968
1925 1 40.8307 13.9511 -18.2058 0 2.45175 1 0 4.54002e-06 -0.0317607
4673 1 41.8235 14.1977 -18.8363 0 2.75065 2 0 4.53999e-06 0.90239
4634 1 41.4904 14.2364 -17.9 0 2.53774 1 0 4.54e-06 0.737873
8264 1 40.4756 15.0454 -18.9936 0 2.44283 2 0 4.54002e-06 -0.340079
3738 1 41.8779 15.1072 -18.3668 0 2.82215 2 0 4.53999e-06 0.663454
3642 1 41.1446 14.7683 -18.5343 0 2.50988 1 0 4.54001e-06 0.337055
3737 1 42.2723 14.5431 -17.6801 0 2.86986 2 0 4.53999e-06 0.960335
3793 1 41.9596 13.8585 -17.0467 0 2.69412 2 0 4.53999e-06 0.667318
1687 1 41.1181 13.5186 -17.4304 0 2.45526 2 0 4.54001e-06 0.134602
6687 1 39.3193 13.8285 -16.6409 0 2.31218 2 0 4.54008e-06 -0.731477
8899 1 40.1163 14.0536 -16.6825 0 2.36833 1 0 4.54004e-06 -0.593826
8837 1 40.0593 14.8121 -17.2269 0 2.38809 1 0 4.54004e-06 -0.750786
8743 1 40.4815 14.5753 -15.8189 0 2.39485 1 0 4.54003e-06 -0.857886
6188 1 39.3429 14.3839 -17.4941 0 2.32923 2 0 4.54007e-06 -0.951152
9426 1 39.842 14.7277 -16.2078 0 2.35118 1 0 4.54005e-06 -0.810298
5809 1 38.9993 14.569 -16.0605 0 2.29628 2 0 4.5401e-06 -0.950835
3517 1 41.2473 14.3053 -16.9462 0 2.49172 1 0 4.54001e-06 0.531832
909 1 40.6601 14.2831 -17.3127 0 2.43178 1 0 4.54002e-06 -0.688546
8101 1 40.7868 15.0751 -17.5569 0 2.46856 1 0 4.54001e-06 -0.332233
3923 1 41.4958 14.9569 -17.506 0 2.55568 1 0 4.54e-06 0.512355
9326 1 40.9938 14.8501 -16.4399 0 2.46032 1 0 4.54001e-06 0.0117439
2555 1 40.7984 13.8399 -16.2757 0 2.4115 1 0 4.54003e-06 -0.1403
3969 1 41.6338 14.1644 -16.1723 0 2.51836 1 0 4.54e-06 0.779984
3921 1 41.8963 14.7731 -16.8255 0 2.62615 2 0 4.54e-06 0.903761
8740 1 41.5219 15.4168 -16.4307 0 2.57085 2 0 4.54e-06 0.317667
8056 1 40.4286 15.3213 -16.5385 0 2.41346 2 0 4.54003e-06 -0.355772
3278 1 42.7699 15.3291 -17.1376 0 3.23466 2 0 4.53999e-06 0.840643
3371 1 42.4006 14.5159 -16.1178 0 2.8594 2 0 4.53999e-06 0.988299
3335 1 41.1755 12.3653 -14.0436 0 2.25443 2 0 4.54015e-06 -0.0044901
4017 1 41.7962 13.0505 -14.6772 0 2.445 2 0 4.54002e-06 0.522517
1012 1 41.0501 13.1705 -14.0332 0 2.34571 1 0 4.54006e-06 -0.215547
1930 1 40.8868 13.5001 -14.9101 0 2.38545 1 0 4.54004e-06 -0.28046
4332 1 41.5304 13.6307 -15.499 0 2.458 2 0 4.54001e-06 0.356886
4414 1 41.716 13.6454 -14.053 0 2.44694 1 0 4.54002e-06 0.853515
1568 1 40.5346 13.7654 -14.0092 0 2.35238 1 0 4.54005e-06 -0.579092
3789 1 42.323 13.8612 -15.1042 0 2.74324 2 0 4.53999e-06 0.945987
7375 1 38.6566 14.3116 -14.8361 0 2.27647 2 0 4.54012e-06 -0.872923
5815 1 38.3452 15.0139 -14.0144 0 2.25952 2 0 4.54015e-06 -0.610671
6244 1 39.493 13.958 -15.4785 0 2.31465 2 0 4.54008e-06 -0.607627
6037 1 39.7973 13.9731 -14.3047 0 2.32332 1 0 4.54007e-06 -0.62648
1868 1 40.3442 14.0426 -15.0136 0 2.36681 1 0 4.54005e-06 -0.569618
8597 1 39.9504 14.6736 -15.1073 0 2.34835 1 0 4.54006e-06 -0.785596
8900 1 39.4787 14.7347 -14.2987 0 2.31257 1 0 4.54008e-06 -0.851467
4589 1 41.4131 14.0997 -14.6959 0 2.45431 1 0 4.54001e-06 0.956235
3871 1 40.9176 14.4353 -14.4024 0 2.41639 1 0 4.54003e-06 0.342208
9424 1 40.6065 14.9137 -14.056 0 2.40328 1 0 4.54003e-06 -0.0363289
4233 1 41.0315 14.267 -15.4939 0 2.43506 1 0 4.54002e-06 0.291368
4131 1 41.6914 14.6604 -15.3394 0 2.50784 1 0 4.54001e-06 0.795511
3218 1 41.0812 15.222 -15.5125 0 2.45336 1 0 4.54002e-06 0.191483
8265 1 40.4754 15.2629 -14.8848 0 2.39474 1 0 4.54003e-06 -0.0996388
3691 1 42.1945 14.6104 -14.4821 0 2.76469 2 0 4.53999e-06 0.912814
8845 1 38.3996 15.3016 -13.0698 0 2.25589 2 0 4.54015e-06 -0.246654
4068 1 40.4161 11.0782 -12.2527 0 2.13487 2 0 4.54053e-06 -0.231364
1309 1 40.6227 11.838 -13.3127 0 2.17149 2 0 4.54036e-06 -0.434166
4632 1 40.354 11.9213 -11.9961 0 2.1846 1 0 4.54032e-06 -0.711975
4016 1 41.1525 11.567 -12.519 0 2.22345 2 0 4.54021e-06 0.379096
4334 1 41.3144 12.2825 -12.1639 0 2.30546 1 0 4.54009e-06 0.666884
1698 1 40.4139 12.547 -12.6551 0 2.21964 1 0 4.54022e-06 -0.85101
2550 1 40.1221 13.5568 -13.1203 0 2.2937 1 0 4.5401e-06 -0.760992
4677 1 41.3818 12.347 -13.0874 0 2.28049 2 0 4.54012e-06 0.483624
1927 1 40.9378 13.1262 -13.1474 0 2.31203 1 0 4.54008e-06 -0.530784
1203 1 40.6447 13.31 -12.2061 0 2.27797 1 0 4.54012e-06 -0.974582
3515 1 41.4554 13.1227 -12.2834 0 2.36798 1 0 4.54005e-06 0.991221
3971 1 41.9879 12.9462 -13.137 0 2.47669 2 0 4.54001e-06 0.807732
3516 1 41.3759 13.7465 -12.9088 0 2.40403 1 0 4.54003e-06 0.751065
3277 1 43.2841 12.9799 -12.5903 0 3.29579 2 0 4.53999e-06 0.958193
3924 1 42.2908 13.7323 -13.2805 0 2.69912 2 0 4.53999e-06 0.974874
3282 1 42.3612 13.1847 -12.1069 0 2.73089 2 0 4.53999e-06 0.986803
6587 1 38.7147 14.2485 -12.7281 0 2.2492 2 0 4.54016e-06 -0.408156
7473 1 37.8517 14.4065 -13.2518 0 2.24374 2 0 4.54017e-06 -0.65627
8552 1 38.5207 14.908 -12.2565 0 2.24075 1 0 4.54018e-06 -0.217006
8545 1 39.9163 14.4604 -13.5489 0 2.32556 1 0 4.54007e-06 -0.941421
1146 1 39.2839 13.7789 -13.3046 0 2.26907 2 0 4.54013e-06 -0.551686
905 1 39.9829 13.8493 -12.1438 0 2.25039 1 0 4.54016e-06 -0.899511
9325 1 39.6237 14.5342 -12.5508 0 2.27464 1 0 4.54013e-06 -0.383853
9173 1 38.8885 14.5161 -13.6097 0 2.27329 2 0 4.54013e-06 -0.79928
4592 1 41.5865 14.2284 -13.6335 0 2.48252 1 0 4.54001e-06 0.972803
3693 1 42.0324 14.0456 -12.3116 0 2.53593 1 0 4.54e-06 0.956767
8445 1 40.7857 14.0683 -13.26 0 2.37372 1 0 4.54004e-06 -0.417282
9179 1 40.562 14.7534 -13.1897 0 2.38525 1 0 4.54004e-06 -0.13889
4517 1 41.3623 14.8746 -13.4391 0 2.51128 1 0 4.54001e-06 0.536121
8996 1 41.6821 15.4988 -12.8876 0 2.69586 2 0 4.53999e-06 0.397008
8441 1 41.3563 14.7909 -12.2387 0 2.49202 1 0 4.54001e-06 0.36552
3690 1 42.5753 14.5496 -13.5685 0 2.8806 2 0 4.53999e-06 0.98818
3639 1 42.3439 14.8823 -12.7022 0 2.88466 2 0 4.53999e-06 0.9532
1790 1 38.9976 10.9486 -10.8329 0 2.01024 2 0 4.54185e-06 -0.61926
3460 1 40.6261 11.1322 -11.2758 0 2.20148 2 0 4.54027e-06 0.15421
2281 1 39.624 11.3919 -11.6146 0 2.08628 2 0 4.54086e-06 -0.683789
2450 1 39.2919 11.9385 -10.8311 0 2.07001 2 0 4.54102e-06 -0.887667
4323 1 39.9301 11.2651 -10.6358 0 2.12296 2 0 4.5406e-06 -0.049655
4322 1 40.168 12.1604 -11.0547 0 2.17035 1 0 4.54037e-06 -0.917217
3927 1 40.4947 11.9387 -10.3155 0 2.21144 1 0 4.54024e-06 0.464694
3968 1 40.94 12.1046 -11.1369 0 2.28507 1 0 4.54011e-06 0.592068