ITEM: TIMESTEP
48000
ITEM: NUMBER OF ATOMS
9495
ITEM: BOX BOUNDS mm mm mm
0.0000000000000000e+00 8.0128823563719777e+01
-3.1410324178647899e+00 3.4671858622828282e+01
-1.8001150133106088e+02 3.1748021039364001e+01
ITEM: ATOMS id type x y z c_phase c_temp c_surf c_nbond c_visc f_3[1]
2453 1 66.9668 11.8333 -179.247 0 3.61262 3 0 4.53999e-06 -0.897522
2149 1 69.1313 11.3467 -178.861 0 3.67995 2 0 4.53999e-06 -0.67363
1924 1 69.9858 10.7571 -178.43 0 3.71983 2 0 4.53999e-06 -0.371581
1561 1 70.9856 10.9443 -178.668 0 3.77004 2 0 4.53999e-06 0.147556
1560 1 70.1415 11.4311 -179.23 0 3.72496 2 0 4.53999e-06 -0.119421
3628 1 71.7274 11.6347 -178.836 0 3.84579 2 0 4.53999e-06 0.268578
1196 1 70.926 12.1042 -179.121 0 3.78609 2 0 4.53999e-06 0.0159303
4522 1 72.5529 12.2759 -179.229 0 3.9658 2 0 4.53999e-06 0.427838
4113 1 73.7298 12.1466 -178.51 0 4.41198 2 0 4.53999e-06 0.567184
2100 1 68.3863 13.3067 -178.836 0 3.64063 2 0 4.53999e-06 -0.857622
1920 1 69.0659 12.3547 -178.983 0 3.6805 2 0 4.53999e-06 -0.673244
1464 1 69.5574 13.2799 -179.01 0 3.70304 2 0 4.53999e-06 -0.318326
1143 1 70.0537 12.3833 -178.845 0 3.73324 2 0 4.53999e-06 -0.324927
4521 1 70.5753 13.1027 -179.411 0 3.76473 2 0 4.53999e-06 -0.0941016
9332 1 71.2218 13.5762 -178.731 0 3.81561 2 0 4.53999e-06 0.000996521
4544 1 71.6287 12.7678 -179.315 0 3.8521 2 0 4.53999e-06 0.159662
4130 1 72.8655 12.8064 -178.385 0 4.19925 2 0 4.53999e-06 0.629693
4109 1 72.2596 13.4128 -178.863 0 3.91862 2 0 4.53999e-06 0.430954
2099 1 64.3817 14.5895 -180.008 0 2.96278 3 0 4.53999e-06 -0
2150 1 71.1477 10.4532 -177.725 0 3.77261 2 0 4.53999e-06 0.0294715
2101 1 69.6797 11.7188 -178.145 0 3.71588 2 0 4.53999e-06 -0.697612
2454 1 68.6751 11.9914 -177.992 0 3.66717 2 0 4.53999e-06 -0.846755
900 1 70.8892 11.7676 -178.185 0 3.78443 1 0 4.53999e-06 -0.188786
2503 1 70.3268 11.1845 -177.56 0 3.75042 2 0 4.53999e-06 -0.446247
2105 1 71.3003 11.4324 -177.344 0 3.81078 2 0 4.53999e-06 -0.16438
2460 1 70.5112 12.1052 -177.169 0 3.7683 2 0 4.53999e-06 -0.433628
3632 1 71.3361 12.3169 -177.468 0 3.82174 1 0 4.53999e-06 -0.163253
1201 1 72.7438 11.798 -178.324 0 3.97867 2 0 4.53999e-06 0.450173
1921 1 71.9571 11.2347 -177.982 0 3.85283 2 0 4.53999e-06 0.321592
1562 1 72.2254 10.9796 -176.977 0 3.86581 2 0 4.53999e-06 -0.036935
2153 1 73.1118 11.3255 -177.475 0 3.95554 2 0 4.53999e-06 0.135023
1149 1 72.2236 12.1092 -177.59 0 3.9009 1 0 4.53999e-06 0.599062
3630 1 74.0859 10.8119 -177.229 0 3.96177 2 0 4.53999e-06 -0.0111689
903 1 74.0243 11.83 -177.549 0 4.03926 2 0 4.53999e-06 0.344502
8992 1 75.0937 11.7849 -177.763 0 4.05278 2 0 4.53999e-06 0.377659
3522 1 75.0414 11.1896 -176.852 0 3.99134 2 0 4.53999e-06 0.173183
3629 1 73.7078 12.3208 -176.796 0 3.99207 2 0 4.53999e-06 0.0520286
4125 1 76.1082 11.4334 -176.738 0 4.05026 2 0 4.53999e-06 0.47991
3631 1 75.2565 12.0453 -176.74 0 4.0289 2 0 4.53999e-06 0.393387
1865 1 69.1988 12.8723 -178.13 0 3.69462 2 0 4.53999e-06 -0.914115
1870 1 69.652 12.7223 -177.281 0 3.72156 2 0 4.53999e-06 -0.729148
1465 1 70.0051 13.7075 -177.168 0 3.72859 2 0 4.53999e-06 -0.361222
6299 1 69.4663 13.8606 -178.058 0 3.70093 2 0 4.53999e-06 -0.495233
1142 1 70.2438 13.2539 -178.324 0 3.74714 1 0 4.53999e-06 -0.311066
8451 1 71.0292 12.7308 -178.298 0 3.8011 1 0 4.53999e-06 -0.0884575
1469 1 70.2152 12.3998 -177.969 0 3.7485 1 0 4.53999e-06 -0.880913
6032 1 71.2194 12.7411 -176.727 0 3.8084 2 0 4.53999e-06 -0.142256
906 1 70.6532 13.051 -177.461 0 3.77367 1 0 4.53999e-06 -0.297042
8452 1 71.4469 13.51 -177.289 0 3.82437 2 0 4.53999e-06 0.0992617
6028 1 70.7743 13.974 -177.9 0 3.77745 2 0 4.53999e-06 -0.0847754
4545 1 71.8171 12.3313 -178.334 0 3.87158 1 0 4.53999e-06 0.431052
2457 1 72.1294 12.8267 -177.112 0 3.88511 1 0 4.53999e-06 0.220914
9330 1 71.9027 13.1024 -177.994 0 3.87921 1 0 4.53999e-06 0.424319
9333 1 73.1377 12.3919 -177.541 0 4.01548 1 0 4.53999e-06 0.849863
9222 1 72.7983 13.4103 -177.564 0 3.97608 2 0 4.53999e-06 0.44081
9219 1 71.8958 14.0426 -178.049 0 3.86029 2 0 4.53999e-06 0.268156
4114 1 73.8402 12.9755 -177.78 0 4.36319 2 0 4.53999e-06 0.516675
9329 1 74.6307 12.6312 -177.198 0 4.05227 2 0 4.53999e-06 0.267119
9428 1 76.2135 12.4286 -177.37 0 4.58391 2 0 4.53999e-06 0.603751
1008 1 75.7724 10.3391 -175.089 0 4.01531 2 0 4.53999e-06 -0.587507
4587 1 76.4507 10.3728 -175.964 0 4.03573 2 0 4.53999e-06 0.0612204
3519 1 76.9175 10.5962 -175.141 0 4.12157 2 0 4.53999e-06 -0.0914097
2551 1 71.8735 11.9628 -176.674 0 3.85517 2 0 4.53999e-06 -0.178622
2104 1 72.8474 11.8047 -176.628 0 3.92154 2 0 4.53999e-06 -0.200995
2151 1 73.4392 10.9825 -176.318 0 3.92626 2 0 4.53999e-06 -0.401154
6973 1 73.437 12.1754 -175.793 0 3.92746 2 0 4.53999e-06 -0.28332
1928 1 74.2924 11.6515 -176.605 0 3.97753 2 0 4.53999e-06 -0.685217
952 1 74.5296 10.7423 -176.081 0 3.95098 2 0 4.53999e-06 -0.252483
2547 1 74.2756 11.5733 -175.464 0 3.94293 2 0 4.53999e-06 -0.373793
1866 1 75.1493 11.6483 -176.017 0 3.99351 2 0 4.53999e-06 -0.546634
1922 1 75.6278 10.9115 -176.059 0 4.00458 2 0 4.53999e-06 -0.21836
1148 1 76.4788 11.2588 -175.767 0 4.069 1 0 4.53999e-06 0.03056
7205 1 75.7846 11.4356 -175.332 0 4.03029 2 0 4.53999e-06 -0.772359
6608 1 76.491 11.9583 -175.179 0 4.08825 1 0 4.53999e-06 -0.362226
1466 1 75.9918 12.0475 -176.043 0 4.04241 2 0 4.53999e-06 0.317113
4548 1 77.3325 11.0491 -175.865 0 4.1413 2 0 4.53999e-06 0.403176
4520 1 77.8674 10.9477 -175.092 0 4.25673 1 0 4.53999e-06 0.439941
9218 1 78.0189 11.7873 -175.693 0 4.45882 2 0 4.53999e-06 0.555329
1869 1 77.1628 11.4732 -175.177 0 4.1596 1 0 4.53999e-06 0.0592686
9334 1 77.0104 12.0207 -176.013 0 4.11579 2 0 4.53999e-06 0.34321
7200 1 68.0902 13.8785 -176.326 0 3.6196 3 0 4.53999e-06 -0.798851
6588 1 70.2276 12.9086 -176.398 0 3.74007 2 0 4.53999e-06 -0.344399
7563 1 72.9044 12.8323 -176.574 0 3.93324 2 0 4.53999e-06 0.173909
6967 1 72.0175 12.7804 -175.848 0 3.84428 2 0 4.53999e-06 -0.133611
7556 1 74.5644 12.3963 -176.149 0 3.98228 2 0 4.53999e-06 -0.240389
8449 1 75.5406 12.9528 -176.397 0 4.0381 2 0 4.53999e-06 0.212239
6298 1 75.3681 12.397 -175.332 0 3.99487 2 0 4.53999e-06 -0.282107
1195 1 76.638 10.2715 -174.226 0 4.11739 2 0 4.53999e-06 -0.500386
4325 1 77.7478 10.2581 -174.453 0 4.25467 2 0 4.53999e-06 0.0304069
4417 1 78.2608 10.2948 -173.545 0 4.35405 2 0 4.53999e-06 -0.0394534
3870 1 78.6882 10.4923 -174.884 0 4.62931 2 0 4.53999e-06 0.532803
1199 1 76.3869 11.1452 -174.68 0 4.09704 1 0 4.53999e-06 -0.80384
6604 1 76.1538 12.035 -174.255 0 4.07307 2 0 4.53999e-06 -0.667224
9220 1 77.9292 11.7026 -174.772 0 4.26689 1 0 4.53999e-06 0.507793
7203 1 77.0573 11.7418 -174.4 0 4.17153 1 0 4.53999e-06 -0.643594
954 1 77.2874 11.0178 -174.463 0 4.19955 1 0 4.53999e-06 -0.570673
8448 1 78.1495 11.0394 -174.257 0 4.32521 1 0 4.53999e-06 0.588848
7204 1 77.8101 11.5003 -173.984 0 4.27193 1 0 4.53999e-06 -0.281079
1976 1 77.3899 10.7138 -173.678 0 4.23602 2 0 4.53999e-06 -0.529981
7202 1 77.1223 11.5826 -173.485 0 4.20601 2 0 4.53999e-06 -0.757059
9171 1 78.4342 12.2216 -174.314 0 4.31705 2 0 4.53999e-06 0.448137
6027 1 77.5728 12.3006 -173.962 0 4.21739 2 0 4.53999e-06 -0.168309
8739 1 78.8866 11.4977 -174.942 0 4.62793 2 0 4.53999e-06 0.738797
4227 1 79.7506 10.719 -173.41 0 4.83522 2 0 4.53999e-06 0.908494
7555 1 78.7018 11.5586 -173.855 0 4.41291 1 0 4.53999e-06 0.800095
4519 1 78.9054 10.7533 -173.978 0 4.6102 2 0 4.53999e-06 0.692225
3213 1 79.6075 11.4745 -174.14 0 4.82043 2 0 4.53999e-06 0.899699
7557 1 77.3772 12.3412 -175.017 0 4.17629 2 0 4.53999e-06 0.0599865
4588 1 79.0362 10.1754 -172.803 0 4.45947 2 0 4.53999e-06 0.251024
1010 1 79.0899 10.5992 -171.789 0 4.50601 2 0 4.53999e-06 0.175471
2553 1 78.0482 11.1117 -173.264 0 4.33035 1 0 4.53999e-06 -0.42666
6030 1 78.2479 12.0371 -173.274 0 4.32319 2 0 4.53999e-06 0.150404
955 1 78.2896 10.7298 -172.393 0 4.38936 2 0 4.53999e-06 -0.600798
6908 1 77.7151 11.5869 -172.645 0 4.28478 2 0 4.53999e-06 -0.563766
4518 1 78.8556 11.0461 -173.126 0 4.46419 2 0 4.53999e-06 0.791942
9221 1 79.291 11.861 -173.178 0 4.713 2 0 4.53999e-06 0.657703
6304 1 78.6759 11.6116 -172.372 0 4.43588 2 0 4.53999e-06 -0.0172664
3520 1 79.49 11.0946 -172.476 0 4.73951 2 0 4.53999e-06 0.981756
7474 1 77.3468 12.5293 -172.954 0 4.1791 2 0 4.53999e-06 -0.389932
1253 1 78.4912 10.2037 -170.927 0 4.40314 2 0 4.53999e-06 -0.548069
901 1 79.7285 10.5555 -170.123 0 4.75868 2 0 4.53999e-06 0.574392
4546 1 79.9459 10.5624 -171.198 0 4.8822 2 0 4.53999e-06 0.770989
7373 1 78.2547 11.2575 -170.345 0 4.43197 2 0 4.53999e-06 -0.968912
2656 1 78.6112 11.1976 -171.327 0 4.467 2 0 4.53999e-06 -0.899561
902 1 79.4856 11.4913 -171.521 0 4.77948 2 0 4.53999e-06 0.536722
2552 1 79.2097 11.0352 -170.64 0 4.55568 2 0 4.53999e-06 -0.0590163
8944 1 80.0219 11.4823 -170.639 0 4.84279 2 0 4.53999e-06 0.815161
8547 1 79.0673 11.7735 -170.203 0 4.51744 2 0 4.53999e-06 -0.236251
4420 1 79.5772 10.4874 -168.513 0 4.51076 2 0 4.53999e-06 0.472502
2598 1 78.8651 10.6508 -170.001 0 4.50692 2 0 4.53999e-06 -0.611254
4516 1 79.6454 11.277 -169.825 0 4.70026 2 0 4.53999e-06 0.793267
6970 1 78.9747 11.2354 -169.523 0 4.51655 2 0 4.53999e-06 -0.830329
2599 1 79.3407 10.6779 -169.286 0 4.53274 2 0 4.53999e-06 0.0746425
3873 1 80.1256 10.936 -169.197 0 4.7261 2 0 4.53999e-06 0.977177
9122 1 79.5514 11.7973 -169.198 0 4.52426 2 0 4.53999e-06 0.366519
6297 1 78.8559 11.5063 -168.894 0 4.49135 2 0 4.53999e-06 -0.653557
6301 1 79.4998 11.1919 -168.86 0 4.63024 2 0 4.53999e-06 0.890684
7152 1 78.8443 10.8081 -168.726 0 4.48895 1 0 4.53999e-06 -0.718552
4630 1 79.08 10.4304 -167.68 0 4.46646 2 0 4.53999e-06 0.0013389
4591 1 78.7907 10.5256 -166.799 0 4.43356 2 0 4.53999e-06 -0.104459
6450 1 78.4327 11.3583 -168.283 0 4.45383 2 0 4.53999e-06 -0.918172
6240 1 78.2405 11.8111 -167.022 0 4.40273 2 0 4.53999e-06 -0.666073
1255 1 78.2891 11.0537 -167.077 0 4.42131 2 0 4.53999e-06 -0.952297
4547 1 79.7703 11.2266 -168.283 0 4.6381 2 0 4.53999e-06 0.959847
6245 1 79.1637 11.6023 -168.267 0 4.49177 1 0 4.53999e-06 0.0631881
1926 1 79.1104 10.8746 -168.166 0 4.49149 1 0 4.53999e-06 -0.144856
3425 1 78.5435 10.8502 -167.784 0 4.45144 2 0 4.53999e-06 -0.859638
8546 1 79.4067 11.4315 -167.629 0 4.59882 2 0 4.53999e-06 0.690303
8989 1 79.7076 10.789 -167.652 0 4.62907 2 0 4.53999e-06 0.860558
7376 1 78.7541 11.4842 -167.629 0 4.45705 2 0 4.53999e-06 -0.523275
6972 1 79.0556 10.9824 -167.215 0 4.46597 2 0 4.53999e-06 0.337486
7662 1 79.0155 11.6878 -166.914 0 4.44733 2 0 4.53999e-06 0.321615
6905 1 77.8897 11.2514 -166.239 0 4.3956 2 0 4.53999e-06 -0.982472
6605 1 78.129 11.6601 -165.21 0 4.48852 2 0 4.53999e-06 -0.683418
1923 1 78.3565 10.833 -165.511 0 4.45252 2 0 4.53999e-06 -0.158325
9168 1 79.5668 11.0953 -166.752 0 4.63524 2 0 4.53999e-06 0.81499
6590 1 78.7595 11.1869 -166.337 0 4.44198 2 0 4.53999e-06 0.195549
9169 1 78.4948 11.9575 -166.091 0 4.43027 2 0 4.53999e-06 -0.107773
9331 1 79.012 11.4715 -165.476 0 4.70552 2 0 4.53999e-06 0.955429
4229 1 77.8452 10.5866 -163.992 0 4.44719 2 0 4.53999e-06 -0.0680009
7374 1 77.6439 11.3567 -164.441 0 4.46821 2 0 4.53999e-06 -0.668461
9429 1 77.8668 12.2203 -164.469 0 4.48327 2 0 4.53999e-06 -0.268876
1685 1 77.1357 11.0841 -163.519 0 4.3535 2 0 4.53999e-06 -0.640498
6907 1 77.3869 11.8232 -163.801 0 4.41361 2 0 4.53999e-06 -0.680608
3521 1 78.1158 11.2965 -163.7 0 4.62833 2 0 4.53999e-06 0.605091
7554 1 78.3227 12.025 -163.775 0 4.67607 2 0 4.53999e-06 0.65578
8447 1 78.4843 11.2097 -164.497 0 4.71328 2 0 4.53999e-06 0.631544
9123 1 78.8064 12.0218 -164.609 0 4.77997 2 0 4.53999e-06 0.743005
3872 1 79.1023 11.3288 -163.768 0 4.85684 2 0 4.53999e-06 0.955352
6513 1 76.7042 11.891 -163.251 0 4.26557 2 0 4.53999e-06 -0.827505
2452 1 76.4042 11.198 -162.558 0 4.14304 2 0 4.53999e-06 -0.754019
1566 1 76.4344 11.9862 -162.225 0 4.10782 2 0 4.53999e-06 -0.864614
4326 1 77.8014 11.0021 -163.009 0 4.39805 2 0 4.53999e-06 0.285665
1569 1 77.1653 11.452 -162.725 0 4.28848 2 0 4.53999e-06 -0.598654
1563 1 77.767 11.8063 -163.091 0 4.52861 2 0 4.53999e-06 0.68791
2548 1 77.1581 12.1936 -162.619 0 4.26908 2 0 4.53999e-06 -0.248389
9224 1 77.9483 12.3212 -162.433 0 4.53526 2 0 4.53999e-06 0.589784
1259 1 77.2229 10.9152 -162.156 0 4.21008 2 0 4.53999e-06 0.0960597
4331 1 77.94 11.4674 -162.271 0 4.51118 2 0 4.53999e-06 0.672909
1198 1 77.2437 11.7871 -161.829 0 4.18281 2 0 4.53999e-06 0.469136
4515 1 78.5287 11.6286 -162.989 0 4.6756 2 0 4.53999e-06 0.911893
7559 1 77.6247 12.506 -163.361 0 4.39959 2 0 4.53999e-06 -0.0263781
8945 1 77.0003 12.6928 -161.879 0 4.10877 2 0 4.53999e-06 0.196203
2201 1 75.7049 11.5961 -161.763 0 3.97987 2 0 4.53999e-06 -0.899497
4330 1 76.5411 11.1993 -161.576 0 4.05068 2 0 4.53999e-06 -0.118253
6303 1 76.5752 12.0667 -161.255 0 4.01391 2 0 4.53999e-06 0.438806
1567 1 75.5126 12.148 -160.976 0 3.96761 2 0 4.53999e-06 -0.988508
4228 1 76.0969 11.4957 -160.667 0 3.95702 2 0 4.53999e-06 0.0851356
9223 1 74.5807 12.4932 -160.36 0 4.02096 2 0 4.53999e-06 -0.360636
6031 1 75.9791 12.6054 -161.704 0 3.97749 2 0 4.53999e-06 -0.514381
8600 1 76.1379 12.693 -160.633 0 3.95824 2 0 4.53999e-06 0.453052
1688 1 72.6193 12.3002 -159.288 0 3.90864 2 0 4.53999e-06 -0.60379
1011 1 73.2112 11.7725 -158.814 0 3.96894 2 0 4.53999e-06 -0.0473908
4419 1 74.5448 11.804 -159.691 0 4.05617 2 0 4.53999e-06 0.23251
2154 1 73.6303 12.1577 -159.658 0 4.01564 2 0 4.53999e-06 -0.277387
4328 1 74.1081 12.0764 -158.823 0 4.27441 2 0 4.53999e-06 0.639628
4549 1 75.4686 12.1744 -159.974 0 4.28129 2 0 4.53999e-06 0.559143
7377 1 72.3213 13.0272 -158.722 0 3.87047 2 0 4.53999e-06 -0.527729
1467 1 73.2906 12.763 -159.054 0 3.99636 2 0 4.53999e-06 -0.114628
6243 1 73.7994 13.1038 -159.753 0 4.02065 2 0 4.53999e-06 -0.176276
4551 1 74.5038 12.6673 -159.41 0 4.27881 2 0 4.53999e-06 0.842178
3641 1 74.0203 13.0595 -158.68 0 4.27948 2 0 4.53999e-06 0.647659
3876 1 75.2254 13.1703 -160.02 0 4.01073 2 0 4.53999e-06 0.332282
1681 1 71.1284 12.0898 -157.515 0 3.66564 2 0 4.53999e-06 -0.511318
1313 1 72.5433 11.9383 -157.712 0 3.85504 2 0 4.53999e-06 0.205335
3422 1 71.8533 12.2302 -157.171 0 3.75472 2 0 4.53999e-06 0.0977179
6237 1 70.4958 12.6869 -157.21 0 3.59037 2 0 4.53999e-06 -0.857532
7151 1 71.425 12.9364 -157.495 0 3.71956 2 0 4.53999e-06 -0.603916
9126 1 70.9659 13.5256 -157.066 0 3.62709 2 0 4.53999e-06 -0.534563
1257 1 72.6586 12.3852 -158.392 0 3.90977 2 0 4.53999e-06 -0.335185
7558 1 73.0779 13.2478 -158.326 0 3.94779 2 0 4.53999e-06 0.346738
2202 1 71.9131 12.4644 -157.981 0 3.80308 2 0 4.53999e-06 -0.528512
7472 1 72.2525 13.177 -157.884 0 3.84462 2 0 4.53999e-06 -0.100409
904 1 72.9469 12.7518 -157.687 0 4.0568 2 0 4.53999e-06 0.889421
3966 1 72.5846 12.5027 -157.062 0 3.99309 2 0 4.53999e-06 0.734448
6242 1 71.8226 13.8005 -157.335 0 3.74143 2 0 4.53999e-06 -0.0190632
4416 1 72.0661 12.9979 -157.145 0 3.9055 2 0 4.53999e-06 0.581893
9120 1 72.765 13.4839 -157.189 0 4.06693 2 0 4.53999e-06 0.616619
4232 1 73.4655 12.4248 -158.265 0 4.15695 2 0 4.53999e-06 0.767735
1684 1 71.3501 11.8656 -156.517 0 3.63463 2 0 4.53999e-06 -0.0255892
2655 1 70.4581 12.1747 -156.226 0 3.51896 2 0 4.53999e-06 -0.592136
7150 1 69.6278 12.8197 -155.982 0 3.41994 2 0 4.53999e-06 -0.990368
2208 1 71.2133 12.6065 -156.788 0 3.65598 2 0 4.53999e-06 -0.746924
7475 1 70.6215 13.0532 -156.409 0 3.55964 2 0 4.53999e-06 -0.854827
7657 1 71.611 13.209 -156.598 0 3.68798 2 0 4.53999e-06 0.26231
956 1 71.2763 12.6602 -155.914 0 3.59344 2 0 4.53999e-06 0.221868
8943 1 71.1521 13.7126 -156.024 0 3.55658 2 0 4.53999e-06 0.028859
9172 1 70.5142 13.0235 -155.509 0 3.47776 2 0 4.53999e-06 -0.204216
4631 1 72.0531 12.5171 -156.355 0 3.89513 2 0 4.53999e-06 0.563144
8544 1 68.2527 12.4669 -153.728 0 3.72511 2 0 4.53999e-06 -0.00733458
3640 1 69.9335 12.395 -154.947 0 3.43975 2 0 4.53999e-06 -0.0466743
8898 1 69.0442 12.8252 -154.401 0 3.59642 2 0 4.53999e-06 0.0947427
1929 1 68.265 11.9015 -152.907 0 3.74258 2 0 4.53999e-06 0.356157
6968 1 67.5772 12.2756 -153.216 0 3.671 2 0 4.53999e-06 -0.337736
2205 1 67.6002 12.0016 -152.43 0 3.66339 2 0 4.53999e-06 -0.113279
4633 1 68.1575 12.1847 -152.091 0 3.821 2 0 4.53999e-06 0.826986
2597 1 66.9429 11.901 -151.926 0 3.59164 2 0 4.53999e-06 -0.679281
6509 1 66.96 12.3095 -152.592 0 3.61623 2 0 4.53999e-06 -0.818664
7553 1 69.0613 11.9711 -153.448 0 4.07297 2 0 4.53999e-06 0.708187
1056 1 69.0249 12.2076 -152.378 0 4.03451 2 0 4.53999e-06 0.930067
8686 1 66.9581 13.057 -153.046 0 3.60289 2 0 4.53999e-06 -0.62456
8595 1 67.8894 13.0882 -153.085 0 3.68906 2 0 4.53999e-06 0.086736
7658 1 66.8192 12.7888 -152.032 0 3.58941 2 0 4.53999e-06 -0.90223
6305 1 67.56 12.6549 -152.575 0 3.6653 2 0 4.53999e-06 -0.288994
9227 1 68.2896 12.6213 -152.665 0 3.85835 2 0 4.53999e-06 0.887855
3281 1 67.406 13.1911 -152.248 0 3.63137 2 0 4.53999e-06 -0.139436
4121 1 67.9652 12.8299 -151.986 0 3.79285 2 0 4.53999e-06 0.633098
4590 1 68.8521 12.8585 -153.183 0 3.99275 2 0 4.53999e-06 0.768717
6455 1 63.133 12.2231 -150.476 0 2.93119 3 0 4.53999e-06 -0.379327
6591 1 66.419 12.1633 -150.459 0 3.43162 2 0 4.53999e-06 -0.643975
1683 1 67.7396 11.6315 -151.754 0 3.63411 2 0 4.53999e-06 0.239261
1258 1 67.2487 11.8478 -151.044 0 3.55629 2 0 4.53999e-06 -0.0591653
1197 1 66.7463 12.463 -151.304 0 3.54481 2 0 4.53999e-06 -0.896991
6512 1 66.5532 13.2862 -150.919 0 3.45775 2 0 4.53999e-06 -0.552104
953 1 67.3812 12.3551 -151.737 0 3.62285 2 0 4.53999e-06 -0.3097
3922 1 67.9135 12.3814 -151.318 0 3.77136 2 0 4.53999e-06 0.663294
3643 1 67.3614 13.0107 -151.445 0 3.59183 2 0 4.53999e-06 0.0417811
1565 1 67.3351 12.6677 -150.61 0 3.51608 2 0 4.53999e-06 0.225152
3523 1 66.474 13.1282 -148.698 0 3.3014 3 0 4.53999e-06 -0.00296364
9170 1 64.5352 14.2633 -149.699 0 3.45009 3 0 4.53999e-06 0.0147996
4593 1 63.8162 11.9936 -147.302 0 4.77869 2 0 4.53999e-06 0.549273
3874 1 65.4724 10.678 -148.377 0 5.15065 3 0 4.53999e-06 0.584695
6694 1 62.5928 13.3531 -147.437 0 4.24252 2 0 4.53999e-06 -0.154489
2652 1 62.9661 12.5369 -147.432 0 4.32653 2 0 4.53999e-06 0.0491215
8543 1 63.6501 12.8957 -148.066 0 4.41523 2 0 4.53999e-06 0.251777
8838 1 64.5176 12.785 -147.389 0 4.9958 2 0 4.53999e-06 0.989644
8946 1 63.5893 13.0809 -147.043 0 4.58659 2 0 4.53999e-06 0.826416
1256 1 61.6639 12.0311 -145.911 0 4.11475 2 0 4.53999e-06 -0.456533
2449 1 62.379 11.941 -146.834 0 4.2132 2 0 4.53999e-06 -0.14246
4225 1 62.7018 12.2213 -146.032 0 4.22271 2 0 4.53999e-06 0.43869
2199 1 61.6936 12.6193 -146.827 0 4.15211 2 0 4.53999e-06 -0.707698
7149 1 61.328 13.7577 -146.011 0 4.06944 2 0 4.53999e-06 -0.573771
6302 1 61.6687 12.964 -146.07 0 4.13319 2 0 4.53999e-06 -0.963301
1260 1 61.05 12.756 -145.75 0 4.066 2 0 4.53999e-06 -0.98087
2152 1 62.5145 12.7493 -146.836 0 4.24131 2 0 4.53999e-06 -0.0772511
6974 1 62.0594 13.3144 -146.616 0 4.17756 2 0 4.53999e-06 -0.396732
7656 1 62.8643 13.3641 -146.605 0 4.25979 2 0 4.53999e-06 0.461364
4124 1 63.1578 12.3854 -146.674 0 4.4579 2 0 4.53999e-06 0.746251
1261 1 62.1304 12.5066 -146.275 0 4.18288 2 0 4.53999e-06 -0.429112
9226 1 62.5721 12.9659 -146.015 0 4.31877 2 0 4.53999e-06 0.729129
8897 1 63.2365 12.8932 -146.102 0 4.43375 2 0 4.53999e-06 0.907706
4424 1 62.233 12.6175 -145.504 0 4.15892 2 0 4.53999e-06 0.20305
6906 1 62.2659 13.507 -145.903 0 4.17171 2 0 4.53999e-06 0.116308
8497 1 61.8186 13.2192 -145.377 0 4.11277 2 0 4.53999e-06 -0.270621
6606 1 60.9759 13.4266 -144.988 0 3.99602 2 0 4.53999e-06 -0.706457
4418 1 61.5373 12.4679 -145.063 0 4.06661 2 0 4.53999e-06 -0.39468
8317 1 62.8965 13.2224 -145.165 0 4.41292 2 0 4.53999e-06 0.647332
8270 1 62.1092 13.0813 -144.471 0 4.05713 2 0 4.53999e-06 0.14521
6452 1 59.9681 11.0722 -137.056 0 2.8957 3 0 4.53999e-06 -0
8450 1 57.1873 15.5157 -137.125 0 6.35888 3 0 4.53999e-06 -0
6508 1 55.383 11.6029 -136.841 0 3.52888 3 0 4.53999e-06 0.126911
8444 1 54.6493 13.4464 -135.135 0 4.02562 2 0 4.53999e-06 -0.182606
8500 1 53.7639 13.7882 -134.609 0 3.98358 2 0 4.53999e-06 -0.911482
9128 1 54.3327 12.9422 -134.384 0 4.01654 2 0 4.53999e-06 -0.572762
8314 1 54.4269 13.7035 -133.898 0 4.05447 2 0 4.53999e-06 -0.96404
8263 1 54.9456 13.6912 -134.252 0 4.0806 2 0 4.53999e-06 -0.0377019
6241 1 55.0081 13.1922 -133.855 0 4.07344 2 0 4.53999e-06 -0.00600033
2456 1 55.3648 12.7673 -134.53 0 4.05136 2 0 4.53999e-06 0.377663
2600 1 55.4707 13.6705 -134.706 0 4.25752 2 0 4.53999e-06 0.588605
2458 1 55.6739 13.587 -133.871 0 4.23475 2 0 4.53999e-06 0.922619
3217 1 54.2508 14.4176 -133.733 0 4.04401 2 0 4.53999e-06 -0.789455
1691 1 54.6269 14.2994 -134.614 0 4.05359 2 0 4.53999e-06 -0.275049
3970 1 54.9913 14.2551 -133.874 0 4.09243 1 0 4.53999e-06 -0.00679959
4324 1 55.5944 14.3386 -134.177 0 4.26837 2 0 4.53999e-06 0.647388
3220 1 54.6412 13.4331 -133.251 0 4.06181 2 0 4.53999e-06 -0.607806
7660 1 54.9884 13.4693 -132.479 0 4.06077 2 0 4.53999e-06 -0.162838
6185 1 55.4245 13.0738 -133.172 0 4.08107 2 0 4.53999e-06 0.382042
8738 1 55.252 13.7501 -133.411 0 4.1004 1 0 4.53999e-06 0.77899
9427 1 55.8417 13.7627 -132.84 0 4.26704 2 0 4.53999e-06 0.870065
8316 1 54.7664 14.059 -133.296 0 4.07816 1 0 4.53999e-06 -0.783614
3207 1 54.2811 14.1322 -132.724 0 4.03782 2 0 4.53999e-06 -0.823405
3967 1 54.9447 14.756 -133.211 0 4.08649 2 0 4.53999e-06 -0.140982
4116 1 54.8253 14.8089 -132.181 0 4.0456 2 0 4.53999e-06 -0.326732
8990 1 55.1768 14.177 -132.724 0 4.09388 2 0 4.53999e-06 0.140963
4415 1 55.5928 14.3309 -133.361 0 4.24294 2 0 4.53999e-06 0.802737
2212 1 55.8425 14.9293 -132.577 0 4.38209 2 0 4.53999e-06 0.619738
8442 1 55.6271 14.1113 -131.865 0 4.06057 2 0 4.53999e-06 0.383211
3692 1 53.4438 14.4849 -130.265 0 3.33764 3 0 4.53999e-06 -0.559803
3212 1 52.0153 15.4366 -127.402 0 4.21836 2 0 4.53999e-06 0.358019
8102 1 51.1386 15.0271 -125.935 0 4.19542 2 0 4.53999e-06 -0.0232392
3740 1 50.3405 15.4786 -126.04 0 4.1559 2 0 4.53999e-06 -0.781339
8684 1 51.1896 15.6443 -126.52 0 4.22293 2 0 4.53999e-06 -0.244109
9125 1 51.6335 15.7152 -125.732 0 4.25684 1 0 4.53999e-06 0.922289
8269 1 51.9167 15.3101 -126.421 0 4.37647 2 0 4.53999e-06 0.583692
4014 1 49.9779 15.4246 -125.201 0 4.112 2 0 4.53999e-06 -0.949813
3920 1 50.7114 14.8966 -125.12 0 4.14406 2 0 4.53999e-06 -0.256355
8948 1 50.9346 15.5722 -125.363 0 4.19161 1 0 4.53999e-06 -0.469046
8267 1 51.6032 15.1452 -125.151 0 4.3561 2 0 4.53999e-06 0.629563
8596 1 50.691 15.6705 -124.713 0 4.14994 2 0 4.53999e-06 -0.486848
1974 1 50.2512 15.0874 -124.286 0 4.07713 2 0 4.53999e-06 -0.572034
8315 1 51.1895 14.9548 -124.299 0 4.12565 2 0 4.53999e-06 0.347452
3423 1 50.6194 14.0098 -122.74 0 3.93421 3 0 4.53999e-06 -0.107671
8268 1 50.8088 15.7281 -123.678 0 4.07179 2 0 4.53999e-06 0.054144
4673 1 48.4505 14.7744 -121.172 0 3.60619 3 0 4.53999e-06 0.141299
8264 1 51.6107 15.2093 -121.108 0 4.61873 3 0 4.53999e-06 0.911829
3642 1 48.4945 15.0082 -118.99 0 3.99391 2 0 4.53999e-06 -0.0566302
3923 1 48.1365 13.9988 -117.194 0 3.93456 2 0 4.53999e-06 -0.0115092
1687 1 47.8147 15.2311 -118.168 0 3.95225 2 0 4.53999e-06 -0.746151
3278 1 47.3609 14.4474 -117.215 0 3.90383 2 0 4.53999e-06 -0.908463
3738 1 48.0224 14.281 -117.989 0 3.94302 2 0 4.53999e-06 -0.359462
3737 1 48.0188 14.7002 -117.504 0 3.94917 1 0 4.53999e-06 -0.67706
3793 1 47.8549 15.2394 -117.19 0 3.93592 1 0 4.53999e-06 -0.654481
4634 1 48.614 14.7759 -118.163 0 4.00499 2 0 4.53999e-06 0.276096
2994 1 49.5146 14.3854 -118.472 0 4.34274 2 0 4.53999e-06 0.73471
9425 1 49.0148 15.5288 -118.36 0 4.2268 2 0 4.53999e-06 0.653223
8101 1 48.7776 14.3218 -117.572 0 4.10456 2 0 4.53999e-06 0.657972
909 1 48.4444 15.3047 -117.719 0 3.9881 2 0 4.53999e-06 0.11176
8899 1 48.7518 15.0608 -117.162 0 3.97991 1 0 4.53999e-06 0.872272
6188 1 49.2884 14.9952 -117.694 0 4.19283 2 0 4.53999e-06 0.9961
8740 1 47.5876 13.6258 -116.647 0 3.88752 2 0 4.53999e-06 -0.416968
8056 1 48.497 13.5504 -116.292 0 3.9074 2 0 4.53999e-06 0.463893
3921 1 47.922 14.3672 -116.653 0 3.92719 1 0 4.53999e-06 -0.443899
2555 1 47.5983 14.9233 -116.554 0 3.91346 1 0 4.53999e-06 -0.791176
3517 1 48.3116 14.834 -116.835 0 3.94948 1 0 4.53999e-06 0.623853
6687 1 48.296 15.401 -116.404 0 3.93084 2 0 4.53999e-06 0.269942
3371 1 47.0685 14.2973 -116.326 0 3.88052 2 0 4.53999e-06 -0.959332
3969 1 47.0154 14.9679 -115.731 0 3.87531 2 0 4.53999e-06 -0.850783
9326 1 47.7474 14.0496 -115.84 0 3.91017 2 0 4.53999e-06 -0.134598
9426 1 48.3947 14.5068 -116.138 0 4.06423 2 0 4.53999e-06 0.680007
8743 1 47.8362 14.9315 -115.823 0 3.91888 2 0 4.53999e-06 0.00477214
8837 1 48.7486 14.2961 -116.814 0 4.08196 2 0 4.53999e-06 0.846602
3218 1 47.1139 14.216 -115.086 0 3.87198 2 0 4.53999e-06 -0.558828
5809 1 48.0956 14.533 -115.061 0 4.10469 2 0 4.53999e-06 0.467814
6244 1 47.5438 15.492 -114.985 0 3.88145 2 0 4.53999e-06 -0.0829118
8597 1 46.3186 13.2399 -112.602 0 3.57763 3 0 4.53999e-06 -0.550314
8839 1 49.1431 13.8261 -113.18 0 5.01303 3 0 4.53999e-06 0.696243
4131 1 45.1089 15.6898 -113.383 0 3.55327 3 0 4.53999e-06 -0.894126
4233 1 47.2145 14.8301 -113.39 0 3.83139 3 0 4.53999e-06 -0.0473572
8900 1 47.7525 13.4887 -110.866 0 3.64116 3 0 4.53999e-06 0.461502
7375 1 50.0942 13.2741 -111.264 0 4.87817 3 0 4.53999e-06 0.679055
4589 1 46.7075 15.4941 -111.742 0 4.08145 3 0 4.53999e-06 -0.212627
8265 1 45.1618 13.9395 -110.478 0 3.54663 3 0 4.53999e-06 -0.864731
3871 1 47.5629 14.8559 -109.075 0 3.85575 2 0 4.53999e-06 0.309983
1930 1 49.1296 15.7094 -110.257 0 5.17281 3 0 4.53999e-06 0.867417
3691 1 46.6115 15.0828 -108.694 0 3.78789 2 0 4.53999e-06 -0.643413
3209 1 46.2131 14.4819 -107.885 0 3.74769 2 0 4.53999e-06 -0.868688
8322 1 47.0218 14.2026 -108.475 0 3.80621 2 0 4.53999e-06 -0.110161
4592 1 46.8183 15.1982 -107.764 0 3.82756 2 0 4.53999e-06 -0.571823
6037 1 48.1677 14.8986 -108.234 0 4.23212 2 0 4.53999e-06 0.899473
4414 1 47.4482 15.6296 -108.392 0 3.89096 2 0 4.53999e-06 0.16359
8645 1 47.4465 14.5207 -107.738 0 3.89235 2 0 4.53999e-06 0.404719
5815 1 48.3618 14.5207 -107.235 0 4.23536 2 0 4.53999e-06 0.976049
1568 1 47.7123 15.3841 -107.441 0 4.11861 2 0 4.53999e-06 0.542613
8058 1 46.3456 14.0336 -106.407 0 3.7057 2 0 4.53999e-06 -0.747422
6181 1 48.2867 13.6768 -106.553 0 4.1861 2 0 4.53999e-06 0.69684
8216 1 47.0478 13.7896 -105.776 0 3.71475 2 0 4.53999e-06 -0.295589
3690 1 46.0432 14.9489 -106.773 0 3.71526 2 0 4.53999e-06 -0.952889
3924 1 46.3311 14.6482 -105.678 0 3.6763 2 0 4.53999e-06 -0.945643
3335 1 46.6489 15.5714 -105.988 0 3.71716 2 0 4.53999e-06 -0.349463
9173 1 47.3331 14.0806 -106.516 0 3.81877 2 0 4.53999e-06 0.176893
9424 1 46.7737 14.4006 -107.165 0 3.79475 2 0 4.53999e-06 -0.555817
8445 1 46.9308 15.2486 -106.882 0 3.8138 2 0 4.53999e-06 -0.274063
9179 1 46.9382 14.6695 -106.285 0 3.77383 2 0 4.53999e-06 -0.888149
8545 1 47.5799 14.7116 -106.881 0 4.01837 2 0 4.53999e-06 0.949827
1012 1 47.6205 15.213 -106.181 0 3.99472 2 0 4.53999e-06 0.56774
1146 1 47.7965 14.3571 -105.901 0 3.94541 2 0 4.53999e-06 0.994837
4517 1 46.5813 13.9857 -105.054 0 3.61302 2 0 4.53999e-06 -0.93276
8845 1 47.265 13.2691 -104.879 0 3.58877 2 0 4.53999e-06 -0.083957
3516 1 47.4165 13.9156 -104.275 0 3.55542 1 0 4.53999e-06 0.160418
7473 1 48.0176 13.6172 -105.417 0 3.92074 2 0 4.53999e-06 0.724062
8745 1 46.8849 13.3614 -103.988 0 3.45861 2 0 4.53999e-06 -0.632103
3639 1 46.6711 14.2182 -104.161 0 3.51155 1 0 4.53999e-06 -0.9897
6587 1 48.1416 14.0799 -104.479 0 3.75875 2 0 4.53999e-06 0.962085
3971 1 47.026 14.7278 -104.726 0 3.6129 1 0 4.53999e-06 -0.51206
2550 1 47.3917 14.1384 -105.045 0 3.66984 1 0 4.53999e-06 0.576803
1927 1 47.1598 14.7471 -105.551 0 3.72913 1 0 4.53999e-06 -0.0924273
1309 1 47.938 14.7732 -105.056 0 3.86516 2 0 4.53999e-06 0.761737
4677 1 47.5892 14.7463 -104.137 0 3.5547 1 0 4.53999e-06 0.243306
8996 1 46.2956 13.2665 -103.168 0 3.34817 2 0 4.53999e-06 -0.926377
8746 1 47.6544 12.8457 -103.705 0 3.40388 2 0 4.53999e-06 0.279575
8441 1 47.2522 13.4464 -103.25 0 3.42351 1 0 4.53999e-06 -0.366152
9325 1 47.9546 13.723 -103.663 0 3.49646 1 0 4.53999e-06 0.789629
8266 1 48.1112 13.3175 -102.895 0 3.45628 1 0 4.53999e-06 0.739949
8646 1 47.3355 12.6986 -102.707 0 3.36047 2 0 4.53999e-06 0.104321
3693 1 47.0932 13.526 -102.55 0 3.40937 1 0 4.53999e-06 -0.836796
3515 1 47.1911 14.2114 -103.594 0 3.48017 1 0 4.53999e-06 -0.919673
3277 1 46.9187 15.0737 -103.612 0 3.4668 2 0 4.53999e-06 -0.623425
3235 1 46.7819 14.227 -102.894 0 3.42952 1 0 4.53999e-06 -0.951941
1698 1 48.1114 14.5858 -103.577 0 3.54715 1 0 4.53999e-06 0.81096
905 1 47.6037 14.2648 -103.045 0 3.49111 1 0 4.53999e-06 0.204169
4016 1 47.9027 15.4416 -103.408 0 3.53284 2 0 4.53999e-06 0.153106
6034 1 47.8544 14.1168 -102.489 0 3.51394 1 0 4.53999e-06 0.904459
4334 1 47.3156 15.0689 -102.779 0 3.48757 1 0 4.53999e-06 -0.439695
8503 1 48.2165 14.9774 -102.598 0 3.71722 2 0 4.53999e-06 0.550681
8552 1 48.5514 14.1591 -103.015 0 3.62184 1 0 4.53999e-06 0.968902
6463 1 48.9397 15.1302 -103.291 0 3.92545 2 0 4.53999e-06 0.809711
2996 1 46.0458 11.7302 -101.884 0 3.19983 2 0 4.53999e-06 -0.228314
2998 1 45.8943 11.2205 -100.936 0 3.20374 2 0 4.53999e-06 -0.0158335
2993 1 45.5287 12.0087 -101.063 0 3.22786 2 0 4.53999e-06 -0.647229
8054 1 46.8827 11.5275 -101.132 0 3.37561 2 0 4.53999e-06 0.744679
8991 1 46.4821 12.918 -102.188 0 3.32031 2 0 4.53999e-06 -0.770984
3279 1 46.3675 12.3509 -101.42 0 3.27294 2 0 4.53999e-06 0.0205507
911 1 46.4179 13.3608 -101.237 0 3.35327 1 0 4.53999e-06 -0.72742
3282 1 45.7846 12.8555 -101.181 0 3.27821 2 0 4.53999e-06 -0.725468
8951 1 47.1843 12.6498 -101.779 0 3.37772 2 0 4.53999e-06 0.511465
1203 1 46.8454 13.6308 -101.88 0 3.38815 1 0 4.53999e-06 -0.966045
8835 1 47.8904 13.1706 -102.057 0 3.43081 1 0 4.53999e-06 0.700654
8950 1 47.5431 13.902 -101.889 0 3.47728 1 0 4.53999e-06 0.43116
9178 1 46.8601 12.6566 -100.93 0 3.31595 1 0 4.53999e-06 0.871041
8843 1 47.2995 13.3637 -101.31 0 3.41972 1 0 4.53999e-06 0.635114
5813 1 48.5104 13.9674 -102.091 0 3.7513 2 0 4.53999e-06 0.876066
4068 1 46.4966 15.3331 -101.46 0 3.42041 2 0 4.53999e-06 -0.690381
4632 1 47.4455 15.352 -101.903 0 3.53251 2 0 4.53999e-06 -0.180548