ITEM: TIMESTEP
25000
ITEM: NUMBER OF ATOMS
9495
ITEM: BOX BOUNDS mm mm mm
0.0000000000000000e+00 3.9461590026518152e+01
0.0000000000000000e+00 3.1748021039364001e+01
-4.0371483414870557e+00 3.1748021039364001e+01
ITEM: ATOMS id type x y z c_phase c_temp c_surf c_nbond c_visc f_3[1]
2455 1 36.085 15.4965 -4.03397 0 2.76134 3 0 4.53999e-06 -0.535142
2453 1 37.2899 14.302 -2.53171 0 2.56284 2 0 4.54e-06 -0.186399
2100 1 37.5071 15.2874 -2.52019 0 2.65212 2 0 4.54e-06 0.156068
2547 1 36.4107 10.9781 -0.555047 0 2.46514 2 0 4.54001e-06 -0.117987
2150 1 36.663 12.1149 -1.00074 0 2.36912 2 0 4.54004e-06 -0.509186
2503 1 36.7793 13.407 -0.966309 0 2.34391 2 0 4.54006e-06 -0.898465
1921 1 37.3015 12.8752 -0.629149 0 2.41323 2 0 4.54003e-06 -0.312564
2149 1 37.2763 13.632 -1.83895 0 2.50949 2 0 4.54001e-06 -0.350594
1924 1 37.5514 12.7856 -1.48293 0 2.50326 2 0 4.54001e-06 0.0672641
1560 1 38.2611 13.6061 -1.62826 0 2.8968 2 0 4.53999e-06 0.673591
1561 1 38.3262 12.7813 -0.890168 0 2.867 2 0 4.53999e-06 0.659363
1196 1 38.6535 13.7642 -0.714906 0 2.93501 2 0 4.53999e-06 0.879608
6588 1 35.7787 15.8303 -0.57625 0 2.17136 2 0 4.54036e-06 -0.799603
2101 1 37.1343 14.1586 -1.0679 0 2.43144 1 0 4.54002e-06 -0.908676
1870 1 36.6661 15.4923 -0.753747 0 2.34137 2 0 4.54006e-06 -0.798052
2454 1 36.881 14.6938 -1.74241 0 2.49674 2 0 4.54001e-06 -0.884141
1865 1 37.3708 15.2389 -1.27391 0 2.54859 2 0 4.54e-06 -0.35126
1920 1 37.9072 14.5441 -1.79582 0 2.82684 2 0 4.53999e-06 0.660535
1464 1 38.1296 15.561 -1.6652 0 2.93783 2 0 4.53999e-06 0.693645
1143 1 38.2136 14.5861 -0.915481 0 2.67206 1 0 4.54e-06 0.909506
1142 1 38.008 15.4894 -0.640934 0 2.78978 2 0 4.53999e-06 0.75922
4521 1 39.1379 14.919 -0.836348 0 3.15654 2 0 4.53999e-06 0.84262
1 1 0.116341 1.10259 0.464337 4 1.13633e-06 2 0 0.0994487 -0.68194
2 1 0.974108 1.6685 0.77798 4 2.22905e-06 2 0 0.0994487 -0.517028
5 1 0.729896 0.0633724 0.61602 4 1.01806e-06 3 0 0.0994487 -0.190373
6 1 1.71015 0.808983 1.0155 4 2.8773e-06 2 0 0.0994487 -0.332065
7 1 1.80059 1.47468 0.221075 4 3.29387e-06 2 0 0.0994487 -0.125827
9 1 2.52093 0.749102 0.203812 4 4.32863e-06 2 0 0.0994487 -0.142937
10 1 2.59149 0.0538711 1.03726 4 4.14816e-06 2 0 0.0994487 -0.295002
11 1 2.64922 1.541 0.882848 4 6.29446e-06 2 0 0.0994487 0.235775
13 1 3.43386 0.933692 0.956349 4 9.26692e-06 2 0 0.0994487 0.320259
16 1 4.10576 0.858321 0.325305 4 1.44277e-05 2 0 0.0994487 0.153152
17 1 4.96159 0.56786 1.17466 4 2.73161e-05 2 0 0.0994487 -0.0370577
18 1 4.91949 1.59987 0.383508 4 3.44986e-05 2 0 0.0994487 -0.10024
20 1 3.47612 0.111428 0.171027 4 6.29306e-06 2 0 0.0994487 0.166217
21 1 5.64741 0.645627 0.325839 4 4.37177e-05 2 0 0.0994487 -0.0805985
22 1 5.88414 1.31048 0.938036 4 6.063e-05 2 0 0.0994487 -0.199526
23 1 6.57478 1.39104 0.218369 4 9.48079e-05 2 0 0.0994487 -0.0861244
26 1 6.7138 0.39031 0.865278 4 8.19634e-05 2 0 0.0994487 -0.0793731
28 1 8.2679 0.408875 1.07337 4 0.000194274 2 0 0.0994487 -0.100154
29 1 7.36782 1.22285 0.954198 4 0.000146174 2 0 0.0994487 -0.302493
30 1 8.24709 1.39092 0.236779 4 0.000247209 2 0 0.0994487 -0.0460521
32 1 7.58247 0.647807 0.140287 4 0.000140838 2 0 0.0994487 -0.110928
33 1 8.85849 0.508506 0.273966 4 0.000267622 2 0 0.0994487 -0.0616368
34 1 9.55301 0.3386 0.888639 4 0.000372104 2 0 0.0994487 0.00507817
35 1 9.02586 1.30716 1.1133 4 0.000370597 2 0 0.0994487 -0.0606017
37 1 9.63995 1.37474 0.0900752 4 0.000475495 2 0 0.0994487 0.0993011
43 1 10.2431 0.367861 0.0780499 4 0.000465999 2 0 0.0994487 0.149809
38 1 11.2128 0.215893 0.632658 4 0.000840315 2 0 0.0994487 0.203522
39 1 10.3637 1.04743 0.823114 4 0.000666908 2 0 0.0994487 0.539923
44 1 12.8757 0.211714 0.636805 4 0.0020453 2 0 0.0994487 0.0588061
45 1 12.0457 1.07408 0.506655 4 0.00175414 2 0 0.0994487 -0.0235273
49 1 13.5924 1.113 0.843618 4 0.00380437 2 0 0.0994487 -0.262994
46 1 12.1319 0.316439 1.29957 4 0.00148683 2 0 0.0994487 0.0188587
48 1 14.3729 0.318493 0.764646 4 0.0041187 2 0 0.0994487 -0.0460203
50 1 14.0399 1.55958 0.167469 4 0.00522325 2 0 0.0994487 -0.089807
53 1 14.8761 1.55337 0.662943 4 0.00708132 2 0 0.0994487 0.390003
59 1 15.1049 0.711806 0.0677822 4 0.00537441 2 0 0.0994487 0.169215
54 1 15.7061 0.770636 0.788259 4 0.00775561 2 0 0.0994487 0.366519
55 1 16.5532 1.54451 0.681338 4 0.0156228 2 0 0.0994487 0.000858858
60 1 17.2544 0.732268 0.547589 4 0.0155197 2 0 0.0994487 0.0286566
61 1 17.9231 1.58109 0.757246 4 0.0294125 2 0 0.0994487 0.0416124
65 1 18.7918 0.725074 0.684829 4 0.028084 2 0 0.0994487 -0.26992
64 1 19.5372 0.0167772 0.662766 4 0.0258384 2 0 0.0994487 0.0436541
66 1 19.5395 1.55488 0.841653 4 0.0544182 2 0 0.0994487 -0.340335
71 1 20.2493 0.776373 0.980057 4 0.0473776 2 0 0.0994487 -0.0497358
74 1 20.3457 1.51479 0.193617 4 0.0589913 2 0 0.0994487 -0.0805866
70 1 21.0889 0.349843 1.06749 4 0.0513555 2 0 0.0994487 -0.196361
72 1 21.1062 1.65725 0.951506 4 0.088329 2 0 0.0994487 0.616102
73 1 21.1874 0.765598 0.218806 4 0.0530624 2 0 0.0994487 -0.0445781
75 1 22.0087 0.262534 0.539755 4 0.0576555 2 0 0.0994487 0.0993716
78 1 21.9982 1.59955 0.538558 4 0.0991041 2 0 0.0994487 0.183583
77 1 22.1105 1.14763 1.32981 4 0.0991789 2 0 0.0994487 0.273424
79 1 22.9157 1.07463 0.445168 4 0.0980207 2 0 0.0994487 0.0521998
81 1 23.5672 0.357563 0.57369 4 0.090689 2 0 0.0994487 0.0386214
82 1 24.4367 1.18687 0.754729 4 0.152491 2 0 0.0994487 -0.0199346
84 1 24.955 0.315686 0.551996 4 0.11069 2 0 0.0994487 -0.0172144
85 1 26.0085 0.383365 1.1715 4 0.136286 2 0 0.0994487 -0.18219
88 1 25.8917 0.929212 0.432102 4 0.139608 2 0 0.0994487 -0.0953664
91 1 26.7559 1.02809 1.26347 4 0.172507 2 0 0.0994487 -0.243965
93 1 26.7925 0.240345 0.226621 4 0.0973142 2 0 0.0994487 0.038091
89 1 27.5736 1.28032 0.38906 4 0.141903 2 0 0.0994487 0.0454612
90 1 27.6142 0.50928 0.874321 4 0.119595 2 0 0.0994487 0.175373
94 1 28.6489 1.24263 0.742341 4 0.12122 2 0 0.0994487 0.102536
98 1 29.2734 0.3547 0.615275 4 0.0587825 2 0 0.0994487 -0.0816851
101 1 30.1009 1.19877 0.774133 4 0.0688918 2 0 0.0994487 0.210917
100 1 30.7016 0.49015 0.470738 4 0.0344608 2 0 0.0994487 0.35485
99 1 31.5874 0.266128 1.25663 4 0.0180494 3 0 0.0994487 0.830097
103 1 1.11081 2.43607 0.129285 4 2.71806e-06 2 0 0.0994487 -0.0373209
104 1 0.133403 2.3821 0.812241 4 1.86369e-06 2 0 0.0994487 -0.984517
105 1 1.28845 3.23764 0.949187 4 4.52994e-06 2 0 0.0994487 0.222107
108 1 0.332248 3.09582 0.131296 4 2.37476e-06 2 0 0.0994487 -0.591339
109 1 1.90972 2.41867 0.78376 4 5.00201e-06 2 0 0.0994487 0.0782171
110 1 2.65852 3.28029 0.860875 4 1.235e-05 2 0 0.0994487 0.0668129
113 1 2.7261 2.38168 0.0557193 4 7.40553e-06 2 0 0.0994487 0.146603
114 1 3.38195 2.55413 0.779289 4 1.5344e-05 2 0 0.0994487 0.211593
115 1 4.00679 1.841 0.711184 4 1.92736e-05 2 0 0.0994487 -0.0361117
116 1 4.91383 2.57277 0.815661 4 4.82023e-05 2 0 0.0994487 -0.25933
117 1 4.20148 3.3175 0.749446 4 3.85512e-05 2 0 0.0994487 0.00622517
119 1 5.65047 2.44269 0.132743 4 7.31012e-05 2 0 0.0994487 -0.189919
120 1 6.55776 2.18062 0.772597 4 0.000121142 2 0 0.0994487 -0.289307
121 1 5.64874 3.19593 0.952489 4 9.85235e-05 2 0 0.0994487 -0.754592
124 1 6.65033 2.92778 0.134227 4 0.000151508 2 0 0.0994487 0.0288948
125 1 7.45405 2.22586 0.139832 4 0.000206951 2 0 0.0994487 -0.053492
126 1 8.08209 2.20208 0.930382 4 0.000307695 2 0 0.0994487 -0.301987
127 1 7.40132 3.06835 0.934051 4 0.000284454 2 0 0.0994487 -0.0454078
130 1 8.26934 2.9712 0.0392146 4 0.000450488 2 0 0.0994487 -0.150609
131 1 8.90393 2.08699 0.252387 4 0.00044573 2 0 0.0994487 0.00244715
132 1 9.77243 2.0246 1.10996 4 0.000710761 2 0 0.0994487 0.173522
133 1 8.92671 2.97262 0.928693 4 0.000676708 2 0 0.0994487 -0.156662
135 1 9.56096 2.90576 0.21312 4 0.000865 2 0 0.0994487 0.173132
136 1 10.2834 2.1137 0.214297 4 0.000850301 2 0 0.0994487 0.33775
137 1 11.1583 1.82604 0.771092 4 0.00138697 2 0 0.0994487 0.260127
138 1 10.6214 2.80819 0.921535 4 0.00157468 2 0 0.0994487 0.541966
141 1 11.928 2.64099 0.742299 4 0.00299334 2 0 0.0994487 -0.0386366
140 1 12.6737 1.94118 0.593851 4 0.0033867 2 0 0.0994487 -0.283897
144 1 13.1791 3.03035 0.848852 4 0.00646456 2 0 0.0994487 -0.440785
152 1 13.4137 2.29398 0.0590902 4 0.00532929 2 0 0.0994487 -0.280946
146 1 14.0206 2.44438 0.927124 4 0.00734078 2 0 0.0994487 -0.132966
148 1 14.6961 3.43698 0.884932 4 0.0149161 2 0 0.0994487 -0.332714
150 1 14.8418 2.51505 0.136557 4 0.0102886 2 0 0.0994487 0.173026
151 1 14.1591 3.2262 0.0325348 4 0.010607 2 0 0.0994487 -0.24609
153 1 15.6993 2.44373 0.692668 4 0.0151106 2 0 0.0994487 0.364461
154 1 16.3029 3.20095 0.662084 4 0.0272599 2 0 0.0994487 0.328652
157 1 15.5706 3.25854 0.0192499 4 0.0178236 2 0 0.0994487 0.290256
158 1 17.0646 2.35032 0.682778 4 0.0281871 2 0 0.0994487 0.0235297
159 1 17.944 2.92608 0.699539 4 0.0565516 2 0 0.0994487 -0.231136
162 1 18.8908 2.35742 1.01358 4 0.0671558 2 0 0.0994487 -0.517344
164 1 18.884 2.99607 0.196019 4 0.0744048 2 0 0.0994487 -0.171783
165 1 19.587 2.34239 0.101452 4 0.0683533 2 0 0.0994487 -0.132352
168 1 20.1948 2.46882 1.11433 4 0.104443 2 0 0.0994487 0.41011
170 1 20.4222 2.99313 0.334941 4 0.112331 2 0 0.0994487 0.185972
163 1 19.7027 3.2427 1.27782 4 0.131266 2 0 0.0994487 0.441586
167 1 21.1565 2.41663 0.458355 4 0.114561 2 0 0.0994487 0.194849
173 1 22.0961 2.49917 1.23787 4 0.191725 2 0 0.0994487 0.276887
174 1 21.9898 3.20043 0.598797 4 0.201804 2 0 0.0994487 -0.0686462
172 1 22.9717 2.60199 0.735523 4 0.207194 2 0 0.0994487 0.133523
175 1 22.6771 3.40124 0.07601 4 0.223034 2 0 0.0994487 0.0761614
176 1 23.7438 1.80844 0.624025 4 0.170304 2 0 0.0994487 -0.0872046
178 1 24.342 2.68296 0.775192 0 0.272785 2 0 0.0993085 -0.328249
181 1 24.9562 2.84566 0.0146836 0 0.262972 2 0 0.0993729 -0.0864854
183 1 25.1322 1.85613 0.509414 4 0.207152 2 0 0.0994487 -0.02173
182 1 26.5483 1.79415 0.511367 4 0.19676 2 0 0.0994487 -0.00546506
184 1 25.7918 2.61203 0.707489 0 0.291764 2 0 0.0991647 0.215879
188 1 26.1686 3.50068 0.599043 0 0.380324 2 0 0.0979892 0.167451
191 1 27.0867 2.6924 0.645359 0 0.276914 2 0 0.0992795 -0.101183
189 1 27.5039 1.98546 1.23792 4 0.234624 2 0 0.0994487 -0.198251
190 1 28.2489 2.09022 0.343734 4 0.17649 2 0 0.0994487 -0.0177208
193 1 28.2537 2.75799 1.20639 0 0.288516 2 0 0.0991913 -0.467169
194 1 27.982 3.21993 0.326384 0 0.279405 2 0 0.0992614 -0.124885
196 1 29.4477 2.04702 0.879698 4 0.145248 2 0 0.0994487 -0.00677554
197 1 29.1956 2.6589 0.290703 4 0.17796 2 0 0.0994487 -0.0578209
198 1 29.2495 3.2651 1.17365 0 0.286787 2 0 0.0992051 0.152803
200 1 30.1815 2.71094 1.00186 4 0.164757 2 0 0.0994487 0.692077
203 1 30.1092 3.25953 0.132205 4 0.160772 2 0 0.0994487 -0.0443482
204 1 30.4116 1.90909 0.0255368 4 0.0784396 2 0 0.0994487 0.106047
199 1 30.9114 1.98502 0.924207 4 0.0869598 2 0 0.0994487 0.967253
201 1 31.0247 3.35309 0.97101 4 0.173977 2 0 0.0994487 0.997671
205 1 31.1434 2.66402 0.0761253 4 0.0908969 2 0 0.0994487 0.708825
206 1 0.293831 3.78503 0.918557 4 3.2384e-06 2 0 0.0994487 -0.999347
207 1 0.143046 4.59443 0.482118 4 3.78861e-06 2 0 0.0994487 -0.784494
208 1 1.14036 4.67093 0.986638 4 6.98524e-06 2 0 0.0994487 -0.516749
210 1 1.04069 3.86421 0.0595682 4 4.42644e-06 2 0 0.0994487 0.0148888
209 1 0.0884667 5.26681 1.27761 4 4.58956e-06 2 0 0.0994487 -0.887458
211 1 1.84117 4.04604 0.847105 4 9.28256e-06 2 0 0.0994487 0.00827906
212 1 2.54049 4.85585 1.13748 4 2.02419e-05 2 0 0.0994487 -0.333839
213 1 2.64953 4.14475 0.20674 4 1.72514e-05 2 0 0.0994487 -0.0285695
214 1 1.89758 4.96895 0.278386 4 1.32514e-05 2 0 0.0994487 -0.153431
215 1 3.40771 4.86189 0.161635 4 3.7475e-05 2 0 0.0994487 -0.0163845
216 1 3.494 4.07675 0.885909 4 3.09277e-05 2 0 0.0994487 0.0269097
217 1 4.91235 4.00001 1.18344 4 8.14906e-05 2 0 0.0994487 0.0115419
218 1 4.04658 4.88002 1.14639 4 5.99789e-05 2 0 0.0994487 0.2645
219 1 4.26027 4.18509 0.149001 4 5.41449e-05 2 0 0.0994487 0.0377423
220 1 5.00947 4.74001 0.341082 4 0.000111908 2 0 0.0994487 0.0765468
221 1 5.77735 3.9378 0.198707 4 0.000129004 2 0 0.0994487 0.0260215
222 1 6.48883 3.76611 0.772067 4 0.000203332 2 0 0.0994487 0.204573
223 1 5.68025 4.73638 1.02487 4 0.000182822 2 0 0.0994487 -0.621597
225 1 6.68072 5.1315 0.885352 4 0.000404177 2 0 0.0994487 0.206888
226 1 8.1982 3.892 0.700757 4 0.00066525 2 0 0.0994487 -0.369876
227 1 7.40842 4.46072 0.5468 4 0.000502927 2 0 0.0994487 -0.0251997
230 1 9.8976 3.57792 0.885667 4 0.0014997 2 0 0.0994487 0.592899
231 1 9.07913 4.56551 0.821335 4 0.00143949 2 0 0.0994487 -0.658506
232 1 9.86266 4.50302 0.126324 4 0.00194033 2 0 0.0994487 0.0958756
235 1 8.98541 3.86821 0.0631775 4 0.000981833 2 0 0.0994487 -0.138746
236 1 11.408 3.64493 0.778297 4 0.00348797 2 0 0.0994487 0.202098
237 1 10.5891 4.66652 0.906264 4 0.00338802 2 0 0.0994487 0.0451694
238 1 11.3867 4.69403 0.230734 4 0.00518914 2 0 0.0994487 -0.0498766
241 1 11.3894 5.27213 0.983682 4 0.00652975 2 0 0.0994487 -0.674418
242 1 10.5826 3.84888 0.176129 4 0.00228635 2 0 0.0994487 0.210477
243 1 12.5168 3.57716 0.814749 4 0.00595783 2 0 0.0994487 -0.0105312
244 1 12.1916 4.55033 1.00021 4 0.00744674 2 0 0.0994487 0.105163
246 1 13.2258 4.67863 0.80017 4 0.0129013 2 0 0.0994487 -0.0045995
247 1 12.6435 4.61885 0.0632315 4 0.00962256 2 0 0.0994487 -0.033565
248 1 13.9891 4.12825 0.69648 4 0.014881 2 0 0.0994487 -0.430106
251 1 14.9402 5.01141 0.811699 4 0.0308512 2 0 0.0994487 -0.0519757
253 1 14.1405 4.90647 0.0597868 4 0.0207855 2 0 0.0994487 -0.0856715
254 1 14.961 4.19423 0.096508 4 0.0216485 2 0 0.0994487 0.0322961
255 1 15.6685 4.06642 0.926277 4 0.0294599 2 0 0.0994487 0.872615
256 1 15.8798 4.77595 0.186426 4 0.0405122 2 0 0.0994487 0.165426
257 1 16.5936 4.58036 0.900182 4 0.0561078 2 0 0.0994487 -0.0785989
260 1 17.2689 3.83372 0.811237 4 0.0601019 2 0 0.0994487 -0.345312
261 1 18.0864 4.48855 1.09806 4 0.108759 2 0 0.0994487 -0.735009
263 1 17.4569 4.57727 0.0147963 4 0.0728489 2 0 0.0994487 -0.0973764
264 1 18.1348 3.8547 0.0583493 4 0.075941 2 0 0.0994487 -0.12049
268 1 18.7859 5.27693 1.20102 4 0.17735 2 0 0.0994487 0.50415
266 1 18.8235 4.60949 0.361826 4 0.122937 2 0 0.0994487 0.115654
265 1 18.8779 3.70667 0.95022 4 0.10899 2 0 0.0994487 0.0502747
267 1 19.6906 4.67872 1.0803 4 0.188683 2 0 0.0994487 0.940644
269 1 19.5987 3.76722 0.227421 4 0.115229 2 0 0.0994487 0.16427
274 1 20.1339 4.78559 0.352846 4 0.191492 2 0 0.0994487 0.144312
270 1 20.4384 3.82188 1.23329 4 0.191249 2 0 0.0994487 0.386893
272 1 21.5775 4.95128 0.810455 0 0.315933 2 0 0.0989377 -0.0404775
273 1 21.0824 3.93136 0.512408 4 0.198025 2 0 0.0994487 0.0826188
276 1 21.9406 4.13318 1.31068 0 0.314388 2 0 0.0989539 0.06273
277 1 22.4705 5.17735 1.27286 0 0.433852 2 0 0.0965948 -0.0522271
278 1 22.6119 4.34705 0.510028 0 0.311762 2 0 0.0989808 -0.0185119
279 1 23.5735 3.63903 0.782677 0 0.322998 2 0 0.0988605 0.155638
283 1 23.5518 5.06386 0.533607 0 0.439107 2 0 0.0964151 -0.0841727
280 1 24.336 4.32055 0.625018 0 0.423861 2 0 0.0969126 -0.144262
282 1 24.8518 5.25716 0.566763 0 0.520298 2 0 0.0921413 0.0353433
285 1 25.0629 3.68037 0.802132 0 0.401071 2 0 0.0975325 -0.176909
290 1 25.5284 4.40089 0.388179 0 0.452554 2 0 0.0959121 0.0540239
289 1 26.5026 4.97257 0.640732 0 0.520452 2 0 0.09213 0.102646
294 1 27.0674 4.04323 0.570038 0 0.415288 2 0 0.0971621 0.0089692
292 1 27.9624 3.97641 1.10408 0 0.426504 2 0 0.0968319 -0.402095
293 1 28.2771 4.73475 0.706344 0 0.448471 2 0 0.0960721 -0.0666073
295 1 28.9321 3.77016 0.487204 0 0.294214 2 0 0.0991441 -0.00642676
297 1 29.9979 4.07209 1.02303 0 0.295229 2 0 0.0991355 -0.295415
299 1 30.2046 4.67765 0.491317 0 0.295844 2 0 0.0991302 0.0127603
298 1 31.0296 3.97382 0.373364 4 0.181174 2 0 0.0994487 0.657579
301 1 0.908283 5.53205 0.461647 4 8.1911e-06 2 0 0.0994487 -0.463784
305 1 0.969942 6.9454 0.573423 4 1.32712e-05 2 0 0.0994487 -0.473532
306 1 1.7053 7.02884 1.23811 4 2.07155e-05 2 0 0.0994487 0.0665206
303 1 0.793684 6.22023 1.2768 4 9.54668e-06 2 0 0.0994487 -0.70338
307 1 1.89588 6.19966 0.519025 4 1.94378e-05 2 0 0.0994487 -0.156397
310 1 3.25442 6.96226 1.12748 4 6.88032e-05 2 0 0.0994487 -0.0541191
311 1 2.68177 5.61289 0.273587 4 2.83569e-05 2 0 0.0994487 -0.0596828
312 1 3.39503 6.28191 0.500536 4 6.31171e-05 2 0 0.0994487 -0.121438
308 1 3.10475 5.61709 1.30057 4 3.79862e-05 2 0 0.0994487 0.040257
313 1 4.18979 5.46246 0.325783 4 8.27064e-05 2 0 0.0994487 0.0310228
315 1 4.13622 6.09659 1.22779 4 0.000104234 2 0 0.0994487 -0.0893836
316 1 4.82567 6.23357 0.333842 4 0.000172341 2 0 0.0994487 -0.0345708
317 1 4.77312 6.79931 1.15967 4 0.000210086 2 0 0.0994487 -0.305924
318 1 4.00267 7.02511 0.221759 4 0.000119994 2 0 0.0994487 -0.0853406
314 1 4.93434 5.42873 1.31778 4 0.000149241 2 0 0.0994487 -0.235092
319 1 5.78575 5.42185 0.301847 4 0.000243663 2 0 0.0994487 0.0125079
320 1 5.6935 6.24342 0.9632 4 0.000320949 2 0 0.0994487 -0.967761
322 1 6.43234 6.86927 1.00965 4 0.000647538 2 0 0.0994487 0.851678
323 1 6.37773 6.04115 0.154639 4 0.000412008 2 0 0.0994487 0.111117
324 1 5.54993 7.05206 0.147147 4 0.000345624 2 0 0.0994487 0.0363895
325 1 8.21355 5.31419 0.694273 4 0.00116759 2 0 0.0994487 -0.0895673
326 1 7.32761 6.15925 0.754293 4 0.000891885 2 0 0.0994487 0.225747
329 1 8.01352 6.85364 0.728993 4 0.00184228 2 0 0.0994487 0.069197
331 1 7.33029 5.3575 0.0461812 4 0.000602739 2 0 0.0994487 0.0813625
332 1 9.76796 5.3194 0.792562 4 0.0027651 2 0 0.0994487 0.328489
333 1 8.88016 6.18865 0.736908 4 0.00243705 2 0 0.0994487 -0.235526
337 1 9.76329 6.23201 0.0941385 4 0.00383083 2 0 0.0994487 -0.035948
338 1 8.99733 5.46479 0.012702 4 0.00184661 2 0 0.0994487 -0.134748
339 1 10.5831 6.02196 0.964384 4 0.00577938 2 0 0.0994487 -0.356226
340 1 11.3128 6.37134 0.0776634 4 0.0082365 2 0 0.0994487 0.100351
341 1 10.5187 6.94145 0.15452 4 0.0072175 2 0 0.0994487 -0.0735269
345 1 11.7774 6.20735 1.05291 4 0.0108263 2 0 0.0994487 0.292398
343 1 11.9994 5.6274 0.183157 4 0.00928177 2 0 0.0994487 -0.0105159
344 1 12.6757 5.81849 0.861776 4 0.0146375 2 0 0.0994487 0.0818103
347 1 13.3506 6.58297 0.813679 4 0.028002 2 0 0.0994487 -0.292076
348 1 13.3212 5.53867 0.0424813 4 0.0178107 2 0 0.0994487 -0.142895
349 1 14.0617 5.71565 0.77266 4 0.0274167 2 0 0.0994487 -0.37253
351 1 14.1303 6.38483 0.0380077 4 0.0330922 2 0 0.0994487 -0.0825956
352 1 15.0282 5.64393 0.034369 4 0.0379043 2 0 0.0994487 0.0573875
354 1 15.0472 6.45091 0.806774 4 0.0554506 2 0 0.0994487 -0.175975
353 1 15.8305 5.73813 0.95832 4 0.0589489 2 0 0.0994487 0.62597
355 1 16.491 6.45257 1.1401 4 0.10232 2 0 0.0994487 0.198367
357 1 16.62 5.41933 0.276819 4 0.0694271 2 0 0.0994487 0.0799758
358 1 15.6753 6.3382 0.0390223 4 0.0622241 2 0 0.0994487 0.0398743
361 1 17.0619 6.27419 0.411469 4 0.109281 2 0 0.0994487 0.138912
360 1 17.113 5.42499 1.24767 4 0.0967353 2 0 0.0994487 -0.296234
359 1 17.8271 5.30128 0.541411 4 0.110532 2 0 0.0994487 0.150328
363 1 18.2745 7.0517 1.13153 4 0.210392 2 0 0.0994487 0.771934
364 1 18.3714 6.23173 0.609762 4 0.175255 2 0 0.0994487 0.151833
365 1 19.429 5.75829 0.62055 4 0.216851 2 0 0.0994487 0.0505467
367 1 19.9942 6.75229 0.610261 0 0.313974 2 0 0.0989581 -0.00535541
368 1 20.7494 5.77593 0.653722 0 0.311125 2 0 0.0989872 -0.097597
371 1 21.6592 6.66248 0.666524 0 0.436236 2 0 0.0965142 -0.0449736
373 1 21.6904 5.73259 0.0517844 0 0.346947 2 0 0.0985547 -0.00194041
370 1 20.7787 6.6124 1.30355 0 0.408614 2 0 0.0973419 -0.529089
374 1 22.6732 5.8279 0.674154 0 0.450517 2 0 0.0959922 0.00490835
375 1 22.6319 6.69333 1.20734 0 0.540656 2 0 0.0904702 -0.339072
376 1 23.3484 6.78052 0.267835 0 0.538659 2 0 0.0906481 -0.125383
377 1 23.4822 5.88496 1.30013 0 0.556705 2 0 0.0889249 -0.156309
378 1 24.3197 6.56281 1.15825 0 0.619305 2 0 0.0804699 0.354867
379 1 24.1457 6.00685 0.427617 0 0.535922 2 0 0.0908866 0.00417778
382 1 25.1593 6.74159 0.495153 0 0.617491 2 0 0.0807786 0.0897036
380 1 25.6831 5.86213 0.700952 0 0.593684 2 0 0.0844509 0.149796
386 1 26.7485 6.36567 0.651888 0 0.615819 2 0 0.0810599 0.0394248
385 1 27.4966 5.54334 0.722172 0 0.547652 2 0 0.0898245 -0.238265
389 1 27.7097 7.0074 0.530173 0 0.599992 2 0 0.0835447 0.0322245
393 1 28.4685 6.20589 0.638647 0 0.528951 2 0 0.0914692 -0.263603
395 1 28.4822 5.38976 0.0592959 0 0.435649 2 0 0.0965349 -0.105314
390 1 29.3889 5.30889 0.818726 0 0.457694 2 0 0.0957028 0.221657
392 1 29.5784 6.89773 0.506505 0 0.486381 2 0 0.0943246 0.083673
394 1 29.3762 6.15398 0.0801838 0 0.432232 2 0 0.0966492 0.0966819
398 1 30.3958 6.18258 0.649752 0 0.427755 2 0 0.0967934 0.316027
391 1 29.4379 6.18214 1.32212 0 0.630659 2 0 0.0784488 -0.00602244
396 1 30.9636 5.36838 0.595026 0 0.327979 2 0 0.0988031 0.659652
400 1 31.1994 6.95407 0.60342 0 0.413853 2 0 0.0972029 0.77637
401 1 31.7235 5.99622 0.446564 0 0.298563 2 0 0.0991065 0.869346
402 1 0.261851 7.63199 0.661866 4 1.08415e-05 2 0 0.0994487 -0.876373
403 1 0.831025 8.46344 0.61936 4 1.68244e-05 2 0 0.0994487 -0.577625
406 1 1.59266 7.76478 0.37187 4 2.35484e-05 2 0 0.0994487 -0.0897865
408 1 2.48799 7.14986 0.476331 4 4.07041e-05 2 0 0.0994487 -0.0836926
409 1 2.19177 8.6335 0.399707 4 4.42036e-05 2 0 0.0994487 -0.137265
411 1 3.01349 8.51445 0.935533 4 8.12056e-05 2 0 0.0994487 -0.539301
412 1 3.24418 7.77117 0.327041 4 8.31793e-05 2 0 0.0994487 -0.196202
410 1 2.39416 7.81099 1.27726 4 4.28301e-05 2 0 0.0994487 0.0869948
413 1 3.81243 8.45898 0.0822892 4 0.0001339 2 0 0.0994487 -0.0457765
414 1 3.97971 7.67009 1.24863 4 0.000139831 2 0 0.0994487 -0.055485
415 1 4.70459 8.25653 0.921772 4 0.000265165 2 0 0.0994487 0.295355
416 1 4.67023 7.63706 0.247803 4 0.000218503 2 0 0.0994487 0.0376956
418 1 5.86955 8.34822 0.169905 4 0.000577533 2 0 0.0994487 0.113107
419 1 5.48363 7.59071 1.03232 4 0.000421616 2 0 0.0994487 -0.467652
420 1 6.49365 7.53799 0.169175 4 0.000754904 2 0 0.0994487 0.187626
421 1 6.39674 8.23976 1.04384 4 0.000953979 2 0 0.0994487 0.338165
422 1 7.28583 7.76918 0.746313 4 0.00159018 2 1 0.0994487 0.00993637
423 1 8.2859 8.31376 0.868772 4 0.00360128 2 2 0.0994487 0.278222
426 1 7.99895 7.60312 0.0282118 4 0.00207555 2 0 0.0994487 0.0674148
427 1 9.84313 7.22199 0.72344 4 0.00624755 2 1 0.0994487 -0.346931
428 1 8.91207 7.61626 0.661731 4 0.00411766 2 1 0.0994487 0.158536
429 1 9.73234 8.61964 0.693151 4 0.00901836 2 3 0.0994487 -0.256993
432 1 11.3161 7.14287 0.810636 4 0.0121674 2 1 0.0994487 0.448627
433 1 10.5731 7.9454 0.844311 4 0.0114719 2 3 0.0994487 -0.197804
436 1 11.227 8.11851 0.0422735 4 0.0139037 2 0 0.0994487 0.174335
437 1 12.7061 7.28322 0.565784 4 0.0268545 2 0 0.0994487 -0.053119
438 1 12.178 8.23518 0.590765 4 0.0266041 2 2 0.0994487 0.163927
443 1 13.6169 8.09282 0.464536 4 0.0503296 2 2 0.0994487 0.0238158
442 1 14.3373 7.3542 0.580954 4 0.0553174 2 0 0.0994487 0.0649352
448 1 15.0689 8.29247 0.865596 4 0.103119 2 3 0.0994487 -0.312364
446 1 16.4328 7.18497 0.276798 4 0.114253 2 0 0.0994487 -0.0624003
447 1 15.6276 7.3114 0.923132 4 0.0980565 2 1 0.0994487 -0.441555
449 1 16.26 8.16052 1.11176 4 0.149563 1 3 0.0994487 -0.217485
451 1 15.8668 8.31534 0.152632 4 0.123943 2 0 0.0994487 -0.185435
452 1 16.977 7.36262 1.11681 4 0.156086 2 0 0.0994487 0.367587
453 1 17.0683 8.10487 0.342208 4 0.167704 2 0 0.0994487 0.0341549
454 1 17.703 8.02386 1.02699 4 0.210871 2 1 0.0994487 0.871255
455 1 17.816 7.16593 0.212954 4 0.172376 2 0 0.0994487 0.0862275
460 1 18.4485 8.18989 0.168602 4 0.244059 2 0 0.0994487 0.0415096
456 1 19.0043 7.33822 0.644529 0 0.26068 2 0 0.0993869 0.176368
457 1 18.9276 8.15324 1.18625 0 0.303957 2 0 0.0990568 -0.0164627
459 1 19.8034 8.14191 0.360639 0 0.345152 2 0 0.0985801 0.108985
458 1 19.871 7.65743 1.3273 0 0.380413 2 0 0.0979871 -0.605691
461 1 20.6988 7.46059 0.673449 0 0.408329 2 0 0.0973494 -0.0270492
462 1 20.6463 8.44048 1.03669 0 0.449845 1 0 0.0960181 -0.248548
463 1 21.5411 7.67297 1.15048 0 0.503919 1 0 0.0932791 -0.153177
464 1 21.6115 8.34459 0.258573 0 0.489369 2 0 0.0941567 -0.0503849
465 1 22.5864 8.17833 1.02102 0 0.579322 1 0 0.0863525 -0.0188201
467 1 22.3364 7.48462 0.386381 0 0.515893 2 0 0.0924638 -0.09708
468 1 23.4446 7.32194 1.0516 0 0.608844 1 0 0.0821903 -0.264627
469 1 23.4881 8.07549 0.386864 0 0.598035 2 0 0.083829 -0.036678
470 1 24.3435 8.10177 1.00287 0 0.675289 1 0 0.0687813 0.0142547
472 1 24.3392 7.32545 0.26928 0 0.603692 2 0 0.082989 0.0431942
473 1 25.1162 7.39484 1.25566 0 0.702101 1 0 0.0616469 0.234358
477 1 25.2288 8.1324 0.307821 0 0.658154 2 0 0.072821 -0.0337534
474 1 26.02 8.00574 0.988901 0 0.716321 1 0 0.0574898 0.056425
476 1 26.0919 7.27875 0.36814 0 0.647703 2 0 0.0750824 0.0421053
478 1 26.2729 8.58549 0.0891813 0 0.660111 2 0 0.0723817 0.0505236
482 1 26.9761 8.65498 1.02594 0 0.731462 1 0 0.0528208 0.251057
483 1 26.996 7.78335 0.434662 0 0.656086 2 0 0.073282 0.128825
480 1 27.9642 8.50472 0.429665 0 0.622454 2 0 0.0799276 0.0550667
481 1 27.7958 7.83833 1.21519 0 0.707652 2 0 0.0600562 0.711827
484 1 28.6515 7.11327 1.23056 0 0.632585 2 0 0.0780864 -0.00647407
488 1 28.6951 7.71879 0.416043 0 0.553369 2 0 0.0892663 0.0217556
487 1 28.7798 8.55882 1.18636 0 0.630467 2 0 0.0784842 0.445981
485 1 29.5942 8.35338 0.54453 0 0.513683 2 0 0.0926232 0.00405734
489 1 30.3249 7.09182 1.17973 0 0.562894 2 0 0.0882741 0.528794
491 1 30.4298 8.49193 1.18422 0 0.562476 2 0 0.0883186 0.228654
492 1 30.6367 7.87308 0.379941 0 0.448381 2 0 0.0960764 0.211111
486 1 29.4977 7.67807 1.27669 0 0.623851 2 0 0.0796825 -0.0264905
493 1 31.4248 8.62324 0.390578 0 0.431284 2 0 0.0966807 0.834674
490 1 31.2503 7.82438 1.3018 0 0.674917 2 0 0.0688888 0.961929
494 1 1.11992 10.2843 0.274311 4 2.6333e-05 2 0 0.0994487 -0.355606
495 1 1.01298 9.37753 1.20649 4 2.14665e-05 2 0 0.0994487 -0.41443
496 1 0.252597 9.92934 0.898547 4 1.60657e-05 2 0 0.0994487 -0.993185
497 1 0.36755 9.33519 0.122595 4 1.42964e-05 2 0 0.0994487 -0.58224
499 1 1.75605 9.44536 0.452252 4 3.63739e-05 2 0 0.0994487 -0.146775
500 1 1.82419 10.3747 0.969875 4 4.33204e-05 2 0 0.0994487 -0.235615
501 1 2.59083 10.2762 0.0854603 4 6.58782e-05 2 0 0.0994487 0.111277
502 1 2.37359 9.44609 1.22278 4 5.86365e-05 2 0 0.0994487 -0.235229
505 1 3.07153 9.37068 0.0798637 4 8.7408e-05 2 0 0.0994487 -0.0110564
506 1 3.3764 10.0336 0.729636 4 0.000129418 2 0 0.0994487 0.208511
507 1 3.93083 9.10878 0.853479 4 0.000170741 2 0 0.0994487 0.0780729
508 1 4.57569 9.17985 0.00735123 4 0.00024684 2 0 0.0994487 0.11741
509 1 4.60565 9.97638 0.570406 4 0.000327162 2 0 0.0994487 0.056273
512 1 5.32886 8.94347 0.658838 4 0.000467916 2 0 0.0994487 0.271335
513 1 6.23892 9.79241 0.51167 4 0.00109593 2 0 0.0994487 0.106571
514 1 5.3095 9.83096 1.15767 4 0.000561185 2 0 0.0994487 0.142016
515 1 6.15157 9.05029 1.25461 4 0.000937166 2 0 0.0994487 0.0799165
516 1 6.23427 10.5093 1.18094 4 0.00125965 2 0 0.0994487 0.0308517
517 1 7.16567 8.87998 0.708464 4 0.00198213 2 1 0.0994487 -0.121534
518 1 8.09535 9.0463 0.0802495 4 0.00325477 2 0 0.0994487 0.0302719
519 1 7.95867 9.92351 0.574229 4 0.00391603 2 2 0.0994487 -0.0611512
520 1 7.17876 9.73611 1.18759 4 0.00237448 2 2 0.0994487 -0.0103098
522 1 8.93974 9.45316 0.72455 4 0.00669147 2 3 0.0994487 0.0629965
523 1 9.64533 10.3362 0.655345 4 0.0107308 2 4 0.0994487 -0.047907
526 1 11.3751 8.84686 0.729954 4 0.020202 2 3 0.0994487 0.239783
527 1 10.4031 8.88547 0.040013 4 0.0115204 2 0 0.0994487 -0.138186
528 1 10.4642 9.68094 0.652445 4 0.0147909 2 5 0.0994487 -0.0275503
530 1 11.3015 9.63391 1.31015 4 0.0244231 1 9 0.0994487 0.111623
531 1 13.0078 8.96564 0.784741 4 0.0484555 2 3 0.0994487 -0.0213971
532 1 12.1098 9.81377 0.682872 4 0.0341928 2 4 0.0994487 0.0523785
533 1 12.8214 10.4728 0.956288 4 0.0513385 1 4 0.0994487 -0.0849873
537 1 13.5317 9.67756 0.832116 4 0.0667112 2 4 0.0994487 -0.13977
536 1 14.4701 9.19794 0.757688 4 0.0926853 2 2 0.0994487 -0.21972
539 1 14.2759 10.1516 0.212809 4 0.0851568 2 0 0.0994487 -0.0852994
542 1 15.1352 9.85683 1.0083 4 0.123768 1 4 0.0994487 -0.131409
546 1 15.3043 9.20714 0.0898472 4 0.115523 2 0 0.0994487 -0.197823
540 1 15.9037 9.16019 1.13615 4 0.153503 1 4 0.0994487 -0.113217
543 1 15.695 10.1814 0.251776 4 0.137761 2 0 0.0994487 -0.0163908
544 1 16.5108 9.95951 0.961184 4 0.187182 1 1 0.0994487 -0.00398177
545 1 16.5143 9.03182 0.259112 4 0.160897 2 1 0.0994487 0.040533
548 1 17.0975 9.07233 1.12972 4 0.21177 1 1 0.0994487 0.221191
549 1 17.1586 10.0288 0.207964 4 0.206939 2 0 0.0994487 0.024173
550 1 17.7812 9.87544 1.07579 0 0.262637 1 0 0.0993748 0.0148681
551 1 17.7682 9.11154 0.116035 4 0.226504 2 0 0.0994487 -0.0382572
547 1 18.3032 8.89992 0.945542 0 0.273073 1 0 0.0993064 0.101461
553 1 18.6034 9.73723 0.300646 0 0.294514 2 0 0.0991414 -0.047306
555 1 18.7432 10.4626 1.1487 0 0.337301 1 0 0.0986865 -0.226633
552 1 19.824 8.96561 1.07126 0 0.392527 1 0 0.0977314 0.0629292
554 1 19.5158 9.90161 0.854914 0 0.375375 1 0 0.0980848 0.0562912
557 1 19.2484 8.96684 0.211989 0 0.320916 2 0 0.0988837 0.0421083
558 1 19.9932 9.79255 0.07389 0 0.381619 2 0 0.097963 0.144947
559 1 20.935 9.81688 0.757211 0 0.479668 2 0 0.0946792 0.0930931
561 1 20.7963 9.08945 0.209734 0 0.439196 2 0 0.0964116 0.0681202
562 1 21.6363 9.04637 0.987929 0 0.531933 1 0 0.091223 0.0216114
565 1 22.1026 10.5361 0.885873 0 0.580361 2 0 0.0862217 0.099824
569 1 21.9754 9.81742 0.212099 0 0.535074 2 0 0.0909586 0.0467539
564 1 22.8355 9.69743 0.812537 0 0.612667 2 0 0.0815767 0.155685
568 1 22.7607 8.87875 0.203008 0 0.56787 2 0 0.0877163 0.0491113
570 1 23.4324 8.98904 0.982659 0 0.647075 1 0 0.0752115 0.0442482
575 1 23.607 10.5555 0.630744 0 0.666458 2 0 0.0709136 -0.168703
571 1 24.5162 9.57705 0.769972 0 0.692684 2 0 0.064262 -0.185934
576 1 24.3138 8.82642 0.209603 0 0.644466 2 0 0.0757504 -0.0719171
577 1 24.4428 10.3356 0.111736 0 0.668907 2 0 0.0703338 -0.207919
578 1 25.2824 8.85953 1.01124 0 0.718979 1 0 0.0566864 0.100587
580 1 25.3822 10.2667 0.835515 0 0.715219 2 0 0.0578199 0.236523
583 1 25.6018 9.52349 0.179476 0 0.676405 2 0 0.0685048 0.0559962
579 1 26.224 9.39608 0.886798 0 0.720618 2 0 0.0561879 0.131542
586 1 26.9944 10.1666 0.831438 0 0.704747 2 0 0.0608929 -0.185506