ITEM: TIMESTEP
53500
ITEM: NUMBER OF ATOMS
9495
ITEM: BOX BOUNDS mm mm mm
-5.7977007177310980e-01 8.8978887805843172e+01
-3.5635559600480717e+00 3.5094398719660092e+01
-2.6130029478151278e+02 3.1748021039364001e+01
ITEM: ATOMS id type x y z c_phase c_temp c_surf c_nbond c_visc f_3[1]
1560 1 79.4341 10.3337 -259.565 0 3.86642 2 0 4.53999e-06 -0.183264
1196 1 79.9731 11.179 -259.596 0 3.9006 2 0 4.53999e-06 -0.133746
4544 1 80.6918 11.7642 -259.897 0 3.94788 2 0 4.53999e-06 0.0411536
4522 1 81.6431 11.3204 -259.904 0 4.03954 2 0 4.53999e-06 0.359889
4521 1 79.5946 12.0948 -259.87 0 3.88288 2 0 4.53999e-06 -0.222176
4109 1 81.392 12.4236 -259.596 0 4.00515 2 0 4.53999e-06 0.349245
2099 1 71.6542 14.0918 -261.297 0 2.96278 3 0 4.53999e-06 -0
2149 1 78.4223 10.2365 -259.18 0 3.83567 2 0 4.53999e-06 -0.684123
2150 1 80.6476 9.59548 -258.086 0 3.91024 2 0 4.53999e-06 0.115327
1924 1 79.3338 9.73637 -258.713 0 3.8621 2 0 4.53999e-06 -0.338227
1561 1 80.295 9.95295 -258.994 0 3.89918 2 0 4.53999e-06 0.13846
2503 1 79.7611 10.2159 -257.908 0 3.88626 2 0 4.53999e-06 -0.330234
2453 1 75.5264 10.6083 -259.469 0 3.61367 3 0 4.53999e-06 -0.879247
1920 1 78.0989 11.2421 -259.101 0 3.83096 2 0 4.53999e-06 -0.862084
2454 1 78.0949 10.961 -258.028 0 3.82856 2 0 4.53999e-06 -0.735464
1865 1 78.4658 11.9099 -258.403 0 3.84416 2 0 4.53999e-06 -0.874067
2101 1 79.0108 10.6604 -258.449 0 3.85981 2 0 4.53999e-06 -0.637441
1143 1 79.131 11.3056 -259.187 0 3.86506 2 0 4.53999e-06 -0.521023
900 1 80.1371 10.8242 -258.641 0 3.90749 1 0 4.53999e-06 -0.213622
3632 1 80.655 11.4437 -258.021 0 3.9413 1 0 4.53999e-06 -0.0411162
1469 1 79.468 11.4328 -258.383 0 3.88045 1 0 4.53999e-06 -0.823043
8451 1 80.2408 11.7811 -258.826 0 3.9186 1 0 4.53999e-06 -0.194275
3628 1 80.7969 10.7159 -259.425 0 3.94495 2 0 4.53999e-06 0.197036
1201 1 81.9723 10.9211 -259.004 0 4.08029 2 0 4.53999e-06 0.437681
1921 1 81.2348 10.3716 -258.597 0 3.96793 2 0 4.53999e-06 0.384967
1149 1 81.5351 11.2531 -258.227 0 4.01365 1 0 4.53999e-06 0.722964
4545 1 81.0246 11.3833 -258.928 0 3.97544 1 0 4.53999e-06 0.389972
4130 1 82.0946 11.9014 -259.115 0 4.28635 2 0 4.53999e-06 0.57632
2153 1 82.5185 10.5608 -258.194 0 4.10931 2 0 4.53999e-06 0.207581
9333 1 82.4664 11.574 -258.26 0 4.12186 1 0 4.53999e-06 0.800058
4113 1 82.9986 11.2004 -259.221 0 4.52653 2 0 4.53999e-06 0.501979
903 1 83.4691 11.0336 -258.244 0 4.2177 2 0 4.53999e-06 0.314543
9329 1 83.9941 11.9251 -257.947 0 4.27021 2 0 4.53999e-06 0.166745
8992 1 84.5509 11.1161 -258.51 0 4.34458 2 0 4.53999e-06 0.348347
9428 1 85.539 11.8957 -258.126 0 5.00883 2 0 4.53999e-06 0.602948
1464 1 78.5887 12.1388 -259.424 0 3.84342 2 0 4.53999e-06 -0.483041
2100 1 77.5286 12.3137 -258.975 0 3.80434 2 0 4.53999e-06 -0.921216
6299 1 78.7032 12.8892 -258.657 0 3.84608 2 0 4.53999e-06 -0.455562
9332 1 80.3636 12.5843 -259.33 0 3.92442 2 0 4.53999e-06 -0.0754185
1142 1 79.4178 12.235 -258.853 0 3.8769 2 0 4.53999e-06 -0.389372
906 1 79.9206 12.1341 -257.995 0 3.89926 1 0 4.53999e-06 -0.240418
6028 1 79.9319 13.0154 -258.508 0 3.89577 2 0 4.53999e-06 -0.1041
8452 1 80.7175 12.6429 -257.963 0 3.93821 2 0 4.53999e-06 0.11053
9330 1 81.1579 12.1832 -258.671 0 3.98463 1 0 4.53999e-06 0.39691
9222 1 82.0869 12.5588 -258.331 0 4.05956 2 0 4.53999e-06 0.426949
9219 1 81.0875 13.1165 -258.791 0 3.95943 2 0 4.53999e-06 0.224975
4114 1 83.1789 12.123 -258.598 0 4.19374 2 0 4.53999e-06 0.453168
1562 1 81.6856 10.1537 -257.623 0 3.99961 2 0 4.53999e-06 0.13644
3630 1 83.46 10.0352 -257.782 0 4.18532 2 0 4.53999e-06 -0.0135489
952 1 84.0803 10.1268 -256.695 0 4.27908 2 0 4.53999e-06 -0.21913
1922 1 85.1435 10.3102 -256.729 0 4.43984 2 0 4.53999e-06 -0.0426286
4587 1 85.8838 9.73479 -256.349 0 4.52015 2 0 4.53999e-06 0.0635506
1870 1 79.0263 11.7111 -257.62 0 3.86502 2 0 4.53999e-06 -0.592197
2460 1 79.9002 11.1797 -257.615 0 3.89923 2 0 4.53999e-06 -0.298819
6032 1 80.6089 11.909 -257.315 0 3.93369 2 0 4.53999e-06 -0.057822
2105 1 80.7164 10.5714 -257.83 0 3.937 2 0 4.53999e-06 -0.0306985
2457 1 81.4631 12.0014 -257.8 0 3.9984 1 0 4.53999e-06 0.281289
2551 1 81.3201 11.1661 -257.276 0 3.98355 2 0 4.53999e-06 -0.0545801
2104 1 82.2923 11.0074 -257.33 0 4.07587 2 0 4.53999e-06 -0.132508
7563 1 82.2656 12.0429 -257.28 0 4.06003 2 0 4.53999e-06 0.190511
6967 1 81.4414 12.004 -256.515 0 3.97896 2 0 4.53999e-06 -0.0603355
2151 1 82.9718 10.3664 -256.838 0 4.15257 2 0 4.53999e-06 -0.40927
6973 1 82.9022 11.4544 -256.515 0 4.14037 2 0 4.53999e-06 -0.302961
1928 1 83.7406 10.9563 -257.273 0 4.24138 2 0 4.53999e-06 -0.670316
3629 1 83.103 11.5769 -257.537 0 4.16413 2 0 4.53999e-06 0.0218106
7556 1 84.0034 11.7151 -256.887 0 4.27977 2 0 4.53999e-06 -0.284658
3522 1 84.4886 10.5136 -257.563 0 4.32792 2 0 4.53999e-06 0.213531
4125 1 85.541 10.8541 -257.472 0 4.71486 2 0 4.53999e-06 0.598654
3631 1 84.6828 11.4064 -257.487 0 4.38167 2 0 4.53999e-06 0.3929
1866 1 84.6415 11.028 -256.727 0 4.37311 2 0 4.53999e-06 -0.577589
1466 1 85.4667 11.4466 -256.726 0 4.48437 2 0 4.53999e-06 0.391054
1148 1 85.9666 10.671 -256.383 0 4.56306 2 0 4.53999e-06 0.199239
4548 1 86.8184 10.3671 -256.241 0 4.66747 2 0 4.53999e-06 0.474687
9334 1 86.5428 11.3974 -256.615 0 4.61672 2 0 4.53999e-06 0.407459
7200 1 76.9442 13.1082 -256.441 0 3.6212 3 0 4.53999e-06 -0.759858
1465 1 79.1756 12.7661 -257.721 0 3.86526 2 0 4.53999e-06 -0.388382
6588 1 79.685 12.1649 -256.893 0 3.88096 2 0 4.53999e-06 -0.214887
8449 1 84.9256 12.3034 -257.055 0 4.39435 2 0 4.53999e-06 0.162112
1008 1 85.1557 9.92263 -255.604 0 4.49758 2 0 4.53999e-06 -0.632176
1195 1 85.8165 10.033 -254.604 0 4.67526 2 0 4.53999e-06 -0.624671
4325 1 86.9038 9.86756 -254.72 0 4.82736 2 0 4.53999e-06 -0.00133562
3519 1 86.2537 10.1037 -255.536 0 4.65391 1 0 4.53999e-06 -0.0989871
3870 1 87.8795 9.9275 -254.852 0 5.19517 2 0 4.53999e-06 0.567509
2547 1 83.8321 10.9834 -256.161 0 4.26265 2 0 4.53999e-06 -0.405511
7205 1 85.2371 10.847 -255.991 0 4.49574 1 0 4.53999e-06 -0.89083
6298 1 84.7836 11.7415 -256.019 0 4.40287 2 0 4.53999e-06 -0.366654
6604 1 85.5314 11.6285 -254.969 0 4.62164 2 0 4.53999e-06 -0.74349
1199 1 85.7498 10.7344 -255.266 0 4.63016 1 0 4.53999e-06 -0.92883
6608 1 85.8904 11.4217 -255.847 0 4.59388 1 0 4.53999e-06 -0.320741
1869 1 86.5514 10.9212 -255.722 0 4.69562 1 0 4.53999e-06 0.29918
4520 1 87.2162 10.4337 -255.381 0 4.82571 1 0 4.53999e-06 0.564028
9220 1 87.2285 11.2138 -255.162 0 4.85424 1 0 4.53999e-06 0.646377
7203 1 86.3785 11.3141 -255.052 0 4.73382 1 0 4.53999e-06 -0.474512
954 1 86.5577 10.6018 -254.906 0 4.76888 1 0 4.53999e-06 -0.47093
7557 1 86.7704 11.7806 -255.655 0 4.72561 2 0 4.53999e-06 0.192175
9218 1 87.4836 11.1493 -256.079 0 5.0053 2 0 4.53999e-06 0.694927
9171 1 87.7068 11.7132 -254.696 0 5.14837 2 0 4.53999e-06 0.506995
8739 1 88.145 10.8808 -255.149 0 5.2139 2 0 4.53999e-06 0.854311
4417 1 87.4053 9.94765 -253.818 0 4.99779 2 0 4.53999e-06 0.0013417
4588 1 88.1756 9.87667 -253.125 0 5.16468 2 0 4.53999e-06 0.412207
6027 1 86.7572 11.8638 -254.545 0 4.82123 2 0 4.53999e-06 -0.0515712
7204 1 86.9031 11.0867 -254.363 0 4.87265 1 0 4.53999e-06 -0.256207
1976 1 86.5676 10.3667 -254.028 0 4.84421 1 0 4.53999e-06 -0.520564
7202 1 86.0609 11.0737 -254.316 0 4.75783 1 0 4.53999e-06 -0.848579
2553 1 87.1146 10.7913 -253.505 0 4.99254 1 0 4.53999e-06 -0.470154
6030 1 87.0395 11.7145 -253.635 0 4.94424 2 0 4.53999e-06 -0.105382
6908 1 86.2868 11.15 -253.373 0 4.85809 2 0 4.53999e-06 -0.690893
7474 1 85.999 12.0795 -253.858 0 4.74781 2 0 4.53999e-06 -0.536712
8448 1 87.366 10.6609 -254.518 0 4.9403 1 0 4.53999e-06 0.762239
3213 1 88.6205 11.3104 -254.303 0 5.42508 2 0 4.53999e-06 0.888919
7555 1 87.7222 11.2744 -253.978 0 5.06303 1 0 4.53999e-06 0.604589
4519 1 88.1009 10.5001 -254.1 0 5.26069 2 0 4.53999e-06 0.845054
4227 1 88.8738 10.7172 -253.431 0 5.53612 2 0 4.53999e-06 0.989972
4518 1 87.9179 10.7329 -253.24 0 5.3055 2 0 4.53999e-06 0.662004
9221 1 88.163 11.6293 -253.314 0 5.24586 2 0 4.53999e-06 0.466859
955 1 87.2486 10.3167 -252.701 0 5.10065 2 0 4.53999e-06 -0.591726
1010 1 88.069 10.2745 -252.126 0 5.29587 2 0 4.53999e-06 0.292558
6304 1 87.3502 11.3358 -252.663 0 5.123 2 0 4.53999e-06 -0.372814
3520 1 88.3492 11.0718 -252.506 0 5.51685 2 0 4.53999e-06 0.744086
2656 1 87.5498 10.7988 -251.536 0 5.30433 2 0 4.53999e-06 -0.916437
902 1 88.4945 11.1129 -251.473 0 5.68927 2 0 4.53999e-06 0.602407
4546 1 88.6633 10.0627 -251.204 0 5.73201 2 0 4.53999e-06 0.672689
1253 1 87.5996 9.79543 -250.96 0 5.30677 2 0 4.53999e-06 -0.433479
901 1 88.5098 10.1889 -250.042 0 5.6095 2 0 4.53999e-06 0.582753
7373 1 87.1671 10.8272 -250.6 0 5.28052 2 0 4.53999e-06 -0.956434
2552 1 88.0834 10.6936 -250.628 0 5.41016 2 0 4.53999e-06 0.0844832
8944 1 88.9757 10.972 -250.548 0 5.74969 2 0 4.53999e-06 0.915726
8547 1 87.7776 11.4164 -250.106 0 5.33245 2 0 4.53999e-06 -0.290191
2598 1 87.6263 10.3947 -249.939 0 5.33242 2 0 4.53999e-06 -0.693803
4516 1 88.4396 10.9994 -249.736 0 5.53185 2 0 4.53999e-06 0.786569
4420 1 88.0691 10.1756 -248.41 0 5.27057 2 0 4.53999e-06 0.371112
6450 1 87.0163 10.8052 -248.28 0 5.21036 2 0 4.53999e-06 -0.903817
6970 1 87.6554 10.9565 -249.337 0 5.30038 2 0 4.53999e-06 -0.679502
2599 1 88.0843 10.3663 -249.25 0 5.33001 2 0 4.53999e-06 0.204667
3873 1 88.8458 10.6191 -249.015 0 5.53201 2 0 4.53999e-06 0.982834
9122 1 88.1366 11.5165 -249.078 0 5.29682 2 0 4.53999e-06 0.313871
6297 1 87.4354 11.2241 -248.652 0 5.24341 1 0 4.53999e-06 -0.545798
6301 1 88.1947 10.8819 -248.757 0 5.40354 2 0 4.53999e-06 0.954019
7152 1 87.5281 10.5333 -248.718 0 5.25957 1 0 4.53999e-06 -0.560624
4547 1 88.3208 10.7849 -248.055 0 5.38294 2 0 4.53999e-06 0.961002
6245 1 87.9148 11.2752 -248.267 0 5.25047 1 0 4.53999e-06 0.48928
1926 1 87.6757 10.6396 -248.056 0 5.24093 1 0 4.53999e-06 0.161671
4591 1 87.0656 10.3324 -246.936 0 5.17956 2 0 4.53999e-06 -0.336124
4630 1 87.3225 10.288 -247.786 0 5.21306 2 0 4.53999e-06 -0.34714
6240 1 86.7379 11.5163 -247.823 0 5.16786 2 0 4.53999e-06 -0.767381
3425 1 86.9484 10.8348 -247.567 0 5.19203 2 0 4.53999e-06 -0.95687
1255 1 86.6819 11.2029 -246.936 0 5.16856 2 0 4.53999e-06 -0.944653
9169 1 87.0145 11.888 -246.387 0 5.18115 2 0 4.53999e-06 -0.115247
6590 1 87.1651 10.9945 -246.303 0 5.1994 2 0 4.53999e-06 0.084613
7376 1 87.3927 11.3016 -247.891 0 5.21287 1 0 4.53999e-06 -0.291731
8546 1 87.8978 11.1662 -247.556 0 5.22846 1 0 4.53999e-06 0.76079
8989 1 87.9456 10.4538 -247.395 0 5.3555 2 0 4.53999e-06 0.587796
6972 1 87.4305 10.8887 -247.122 0 5.20635 2 0 4.53999e-06 0.146905
7662 1 87.3212 11.6245 -247.222 0 5.18933 2 0 4.53999e-06 -0.0118773
9168 1 87.8693 11.2643 -246.72 0 5.3716 2 0 4.53999e-06 0.724454
6905 1 86.2674 11.2616 -245.995 0 5.17786 2 0 4.53999e-06 -0.998719
1923 1 86.8145 10.7207 -245.311 0 5.25939 2 0 4.53999e-06 0.067594
6605 1 86.4037 11.5711 -244.995 0 5.33726 2 0 4.53999e-06 -0.61744
9331 1 87.252 11.5772 -245.466 0 5.53344 2 0 4.53999e-06 0.835501
1685 1 85.4726 10.9636 -242.953 0 5.20671 2 0 4.53999e-06 -0.694859
8447 1 86.8811 11.1191 -244.315 0 5.59971 2 0 4.53999e-06 0.641838
9123 1 86.995 12.0173 -244.407 0 5.65939 2 0 4.53999e-06 0.573849
7374 1 86.005 11.1869 -244.245 0 5.33628 2 0 4.53999e-06 -0.620005
4229 1 85.9585 10.4725 -243.588 0 5.26487 2 0 4.53999e-06 -0.199958
6907 1 85.7077 11.5191 -243.499 0 5.29065 2 0 4.53999e-06 -0.811758
3521 1 86.4878 11.171 -243.537 0 5.50744 2 0 4.53999e-06 0.500565
7554 1 86.6357 11.9464 -243.551 0 5.55007 2 0 4.53999e-06 0.552654
9429 1 86.0377 12.0869 -244.16 0 5.34733 2 0 4.53999e-06 -0.438259
3872 1 87.4925 11.4968 -243.679 0 5.73402 2 0 4.53999e-06 0.999044
7559 1 85.8697 12.3063 -243.162 0 5.2802 2 0 4.53999e-06 -0.298419
6513 1 85.2053 11.8227 -242.759 0 5.16961 2 0 4.53999e-06 -0.862658
2452 1 84.9779 11.1114 -242.11 0 5.07093 2 0 4.53999e-06 -0.853163
1566 1 85.1461 11.8579 -241.74 0 5.05736 2 0 4.53999e-06 -0.769373
4326 1 86.2797 10.8907 -242.764 0 5.28204 2 0 4.53999e-06 0.378021
1563 1 86.2107 11.6919 -242.892 0 5.42359 2 0 4.53999e-06 0.54407
4515 1 86.9741 11.4054 -242.887 0 5.55327 2 0 4.53999e-06 0.948433
1569 1 85.7101 11.3454 -242.311 0 5.1931 2 0 4.53999e-06 -0.570394
1259 1 85.8605 10.7169 -241.961 0 5.1444 2 0 4.53999e-06 0.161375
4331 1 86.5548 11.4108 -242.06 0 5.41762 2 0 4.53999e-06 0.802628
1198 1 85.9145 11.4903 -241.467 0 5.27148 2 0 4.53999e-06 0.615548
2548 1 85.8589 12.0324 -242.216 0 5.19966 2 0 4.53999e-06 0.0215214
9224 1 86.6311 12.1909 -242.543 0 5.48946 2 0 4.53999e-06 0.614261
8945 1 85.8281 12.3938 -241.38 0 5.06218 2 0 4.53999e-06 0.383604
2201 1 84.4487 11.449 -241.261 0 4.91277 2 0 4.53999e-06 -0.969735
4330 1 85.2424 10.9387 -241.245 0 5.00614 2 0 4.53999e-06 -0.123639
6303 1 85.3889 11.7254 -240.766 0 5.16076 2 0 4.53999e-06 0.555946
1567 1 84.3667 11.8679 -240.388 0 4.82259 2 0 4.53999e-06 -0.977428
4228 1 84.8818 11.0773 -240.283 0 4.84455 2 0 4.53999e-06 -0.0184903
6031 1 84.8458 12.4061 -241.047 0 4.92382 2 0 4.53999e-06 -0.404544
8600 1 85.1064 12.1667 -239.944 0 5.12068 2 0 4.53999e-06 0.589899
4419 1 83.6214 11.4717 -238.54 0 4.67769 2 0 4.53999e-06 0.407778
2154 1 82.6803 11.7457 -238.362 0 4.66641 2 0 4.53999e-06 -0.303981
4549 1 84.3592 11.611 -239.371 0 4.69756 2 0 4.53999e-06 0.271066
9223 1 83.4262 12.123 -239.261 0 4.65625 2 0 4.53999e-06 -0.39756
6243 1 82.7294 12.669 -238.605 0 4.6744 2 0 4.53999e-06 -0.28906
4551 1 83.558 12.3859 -238.334 0 4.94507 2 0 4.53999e-06 0.857477
3876 1 84.3355 12.6773 -239.244 0 4.66954 2 0 4.53999e-06 0.374562
1688 1 81.7117 11.9072 -237.849 0 4.56943 2 0 4.53999e-06 -0.659796
1313 1 81.8259 11.7863 -236.273 0 4.52117 2 0 4.53999e-06 0.289155
1257 1 81.8786 12.1115 -237.019 0 4.57554 2 0 4.53999e-06 -0.234303
1011 1 82.4271 11.4923 -237.428 0 4.63281 2 0 4.53999e-06 0.0494532
4328 1 83.2965 11.8408 -237.617 0 4.94217 2 0 4.53999e-06 0.772568
7377 1 81.4161 12.6826 -237.351 0 4.52986 2 0 4.53999e-06 -0.618778
7558 1 82.2072 12.9986 -237.133 0 4.60993 2 0 4.53999e-06 0.274054
2202 1 81.1662 12.245 -236.572 0 4.47618 2 0 4.53999e-06 -0.549745
7472 1 81.4811 12.9815 -236.563 0 4.5138 2 0 4.53999e-06 -0.0978453
904 1 82.1977 12.5953 -236.416 0 4.72259 2 0 4.53999e-06 0.936182
1467 1 82.3635 12.4346 -237.81 0 4.65602 2 0 4.53999e-06 -0.252638
3641 1 83.1119 12.8322 -237.598 0 4.94838 2 0 4.53999e-06 0.635598
4232 1 82.6916 12.2357 -237.016 0 4.82612 2 0 4.53999e-06 0.857646
1681 1 80.4508 11.9372 -235.985 0 4.35016 2 0 4.53999e-06 -0.520976
2655 1 79.8651 12.0406 -234.984 0 4.24044 2 0 4.53999e-06 -0.712467
1684 1 80.8158 11.8443 -235.067 0 4.33731 2 0 4.53999e-06 0.0718247
7150 1 77.3356 13.3127 -234.974 0 3.57962 3 0 4.53999e-06 -0.885522
6237 1 79.86 12.6037 -235.828 0 4.28956 2 0 4.53999e-06 -0.906014
9126 1 80.2757 13.4181 -235.738 0 4.32059 2 0 4.53999e-06 -0.577172
2208 1 80.5612 12.5397 -235.374 0 4.34776 2 0 4.53999e-06 -0.773202
7475 1 79.9618 13.014 -234.978 0 4.25679 2 0 4.53999e-06 -0.833628
7151 1 80.7281 12.7701 -236.126 0 4.40545 2 0 4.53999e-06 -0.666338
6242 1 81.0931 13.6504 -236.09 0 4.42463 2 0 4.53999e-06 -0.0563785
3422 1 81.1948 12.136 -235.761 0 4.43699 2 0 4.53999e-06 0.167198
3966 1 81.8982 12.4465 -235.725 0 4.66201 2 0 4.53999e-06 0.809629
4416 1 81.3338 12.8996 -235.781 0 4.57579 2 0 4.53999e-06 0.561693
9120 1 82.0261 13.3632 -235.953 0 4.73149 2 0 4.53999e-06 0.640882
7657 1 80.9063 13.1768 -235.235 0 4.36984 2 0 4.53999e-06 0.180249
4631 1 81.419 12.5499 -234.979 0 4.57499 2 0 4.53999e-06 0.618805
3640 1 77.9797 10.6156 -234.25 0 3.68044 3 0 4.53999e-06 -0.357039
956 1 80.6255 12.5882 -234.497 0 4.28354 2 0 4.53999e-06 0.119567
8943 1 80.5523 13.5939 -234.473 0 4.23267 2 0 4.53999e-06 0.0377982
9172 1 79.7178 12.6751 -234.066 0 4.14131 2 0 4.53999e-06 -0.578524
8544 1 77.8716 11.5183 -231.239 0 4.40534 2 0 4.53999e-06 0.242171
8898 1 78.4615 12.2699 -232.817 0 4.10531 3 0 4.53999e-06 -0.701376
6968 1 77.0885 11.2823 -230.694 0 4.33726 2 0 4.53999e-06 -0.247003
8686 1 76.3125 11.8854 -230.544 0 4.27082 2 0 4.53999e-06 -0.74454
6509 1 76.484 11.2718 -229.921 0 4.2844 2 0 4.53999e-06 -0.740813
6305 1 77.0315 11.6552 -230.085 0 4.33316 2 0 4.53999e-06 -0.483485
2205 1 77.1448 11.1871 -229.626 0 4.32433 2 0 4.53999e-06 -0.0491452
7658 1 76.3117 11.8721 -229.475 0 4.26265 2 0 4.53999e-06 -0.99523
7553 1 78.6951 11.2818 -230.551 0 4.79799 2 0 4.53999e-06 0.873659
1929 1 77.7008 11.026 -230.143 0 4.38739 2 0 4.53999e-06 0.387856
9227 1 77.753 11.7179 -230.31 0 4.52807 2 0 4.53999e-06 0.736624
4633 1 77.7482 11.5708 -229.593 0 4.48926 2 0 4.53999e-06 0.894979
1056 1 78.4384 12.0244 -229.74 0 4.67126 2 0 4.53999e-06 0.927902
8595 1 77.2165 12.1905 -230.613 0 4.35654 2 0 4.53999e-06 -0.101909
3281 1 76.7579 12.2335 -229.905 0 4.29862 2 0 4.53999e-06 -0.499963
4590 1 78.1444 12.3469 -230.595 0 4.67841 2 0 4.53999e-06 0.557504
4121 1 77.4555 12.1518 -229.778 0 4.36131 1 0 4.53999e-06 0.454545
2597 1 76.6086 11.1995 -229.035 0 4.26667 2 0 4.53999e-06 -0.533594
953 1 77.0209 11.7422 -229.144 0 4.30022 2 0 4.53999e-06 -0.194519
1258 1 77.1567 11.5972 -228.28 0 4.25108 2 0 4.53999e-06 0.101649
1197 1 76.42 12.0446 -228.653 0 4.23461 2 0 4.53999e-06 -0.667646
1683 1 77.5581 11.1797 -228.962 0 4.31456 2 0 4.53999e-06 0.456662
3922 1 77.6572 12.0557 -229.029 0 4.4666 2 0 4.53999e-06 0.69399
3643 1 76.9548 12.4036 -229.245 0 4.28489 2 0 4.53999e-06 -0.0997131
6512 1 76.0426 12.8035 -229.291 0 4.18321 2 0 4.53999e-06 -0.677424
1565 1 77.1787 12.5533 -228.397 0 4.23433 2 0 4.53999e-06 0.174564
6455 1 71.898 11.2346 -226.335 0 2.93428 3 0 4.53999e-06 -0.327257
6591 1 75.3274 10.9842 -226.691 0 3.69122 3 0 4.53999e-06 -0.420916
3874 1 74.3968 9.98455 -224.777 0 6.06011 3 0 4.53999e-06 -0.260536
9170 1 73.5744 13.3543 -225.895 0 3.457 3 0 4.53999e-06 0.228334
3523 1 76.1863 12.9839 -225.517 0 4.3985 3 0 4.53999e-06 0.478336
2199 1 70.5911 11.9841 -223.082 0 4.90341 2 0 4.53999e-06 -0.65588
2652 1 71.7862 11.7562 -223.462 0 5.07631 2 0 4.53999e-06 0.198277
2449 1 71.0864 11.1838 -222.958 0 4.94642 2 0 4.53999e-06 -0.213535
2152 1 71.3532 11.9578 -222.895 0 4.99256 2 0 4.53999e-06 0.107027
4593 1 72.6651 11.1168 -223.322 0 5.54117 2 0 4.53999e-06 0.667394
8543 1 72.5855 12.0539 -223.991 0 5.5588 2 0 4.53999e-06 0.543556
8838 1 74.9414 11.7125 -222.873 0 6.65569 3 0 4.53999e-06 0.948628
6694 1 71.3774 12.5699 -223.448 0 4.98203 2 0 4.53999e-06 -0.045431
8946 1 72.4246 12.2124 -222.985 0 5.3279 2 0 4.53999e-06 0.922283
1256 1 70.2278 11.3848 -222.093 0 4.83371 2 0 4.53999e-06 -0.660529
4418 1 70.1637 11.7739 -221.225 0 4.78529 2 0 4.53999e-06 -0.567402
4124 1 71.9118 11.4987 -222.698 0 5.20036 2 0 4.53999e-06 0.676189
4225 1 71.3538 11.3889 -222.119 0 4.95608 2 0 4.53999e-06 0.263412
1261 1 70.8323 11.7749 -222.422 0 4.91959 2 0 4.53999e-06 -0.613114
8897 1 71.9902 12.0187 -222.115 0 5.17401 2 0 4.53999e-06 0.894798
4424 1 70.897 11.828 -221.642 0 4.8886 2 0 4.53999e-06 -0.0048434
7149 1 70.2946 13.1879 -222.063 0 4.79412 2 0 4.53999e-06 -0.390997
6302 1 70.393 12.2534 -222.197 0 4.86182 2 0 4.53999e-06 -0.949268
1260 1 69.736 12.3858 -221.751 0 4.76901 2 0 4.53999e-06 -0.989677
6974 1 70.8769 12.5995 -222.666 0 4.91791 2 0 4.53999e-06 -0.317865
7656 1 71.676 12.5392 -222.626 0 5.1378 2 0 4.53999e-06 0.571156
9226 1 71.3283 12.1202 -222.101 0 5.05949 2 0 4.53999e-06 0.747502
6906 1 71.1152 12.6971 -221.97 0 4.91331 2 0 4.53999e-06 0.244128
8497 1 70.6258 12.4768 -221.496 0 4.84284 2 0 4.53999e-06 -0.241228
8317 1 71.625 12.3052 -221.253 0 5.12433 2 0 4.53999e-06 0.646626
6606 1 70.0471 12.8494 -220.906 0 4.71917 2 0 4.53999e-06 -0.459998
8270 1 70.8664 12.1547 -220.629 0 4.78899 2 0 4.53999e-06 0.157949
6452 1 69.1458 9.73257 -207.558 0 2.8957 3 0 4.53999e-06 -0
6508 1 61.9516 10.2816 -207.214 0 3.52924 3 0 4.53999e-06 -0
8444 1 60.6724 12.398 -205.006 0 4.58478 2 0 4.53999e-06 -0.482462
2600 1 60.9815 13.1834 -205.469 0 4.63663 2 0 4.53999e-06 -0.289412
2456 1 61.7693 12.6683 -205.374 0 4.895 2 0 4.53999e-06 0.51104
8500 1 60.5063 12.567 -203.986 0 4.55504 2 0 4.53999e-06 -0.540131
9128 1 61.4773 12.38 -204.428 0 4.61793 2 0 4.53999e-06 0.336408
8263 1 61.141 13.2915 -204.817 0 4.65238 2 0 4.53999e-06 -0.308129
1691 1 60.4271 13.3116 -204.64 0 4.60766 2 0 4.53999e-06 -0.975687
8314 1 61.13 13.2007 -204.193 0 4.63979 2 0 4.53999e-06 -0.177286
6241 1 61.7385 13.2663 -204.671 0 4.7955 2 0 4.53999e-06 0.757792
2458 1 61.5836 13.7888 -205.237 0 4.68552 2 0 4.53999e-06 0.363209
6185 1 62.2698 13.8382 -204.584 0 4.86616 2 0 4.53999e-06 0.980987
4324 1 60.7782 14.0114 -205.243 0 4.63454 2 0 4.53999e-06 -0.594177
3970 1 60.9234 13.903 -204.581 0 4.64982 2 0 4.53999e-06 -0.958982
3967 1 60.8221 14.6093 -204.203 0 4.64471 2 0 4.53999e-06 -0.773074
8738 1 61.5843 14.0248 -204.658 0 4.68991 1 0 4.53999e-06 0.711752
8316 1 61.3614 14.099 -204.163 0 4.67542 2 0 4.53999e-06 -0.108347
4415 1 61.2552 14.6165 -204.91 0 4.67066 2 0 4.53999e-06 -0.233547
8990 1 61.6068 14.727 -204.214 0 4.70082 2 0 4.53999e-06 0.233866
2212 1 61.3872 15.6557 -204.559 0 4.65459 2 0 4.53999e-06 -0.178758
9427 1 62.1054 14.6481 -204.817 0 4.8857 2 0 4.53999e-06 0.69563
3220 1 61.6816 13.6018 -204.017 0 4.71085 2 0 4.53999e-06 0.514134
3217 1 60.7506 13.7595 -203.874 0 4.62656 2 0 4.53999e-06 -0.680782
3207 1 61.3649 14.3038 -203.44 0 4.65768 2 0 4.53999e-06 -0.0739229
4116 1 61.3942 15.2929 -203.518 0 4.65626 2 0 4.53999e-06 -0.166624
7660 1 62.1735 14.314 -203.879 0 4.87862 2 0 4.53999e-06 0.807322
8442 1 62.3704 15.3352 -204.033 0 5.03622 2 0 4.53999e-06 0.724324
3692 1 60.4724 14.7661 -200.837 0 3.34017 3 0 4.53999e-06 -0.321425
3740 1 56.2625 15.6831 -195.713 0 4.78561 2 0 4.53999e-06 0.442418
2102 1 54.7708 15.4451 -194.953 0 4.66021 2 0 4.53999e-06 -0.712986
4014 1 55.7068 15.2672 -195.102 0 4.71953 2 0 4.53999e-06 0.0906643
1974 1 55.3823 15.4572 -194.16 0 4.67983 2 0 4.53999e-06 -0.0859234
4321 1 50.9875 14.7986 -191.881 0 3.5651 3 0 4.53999e-06 -0.381905
3423 1 56.95 15.0247 -191.871 0 3.94091 3 0 4.53999e-06 0.496363
4673 1 51.9903 14.1634 -189.539 0 3.61166 3 0 4.53999e-06 0.188212
3278 1 51.5693 13.8361 -185.758 0 4.53468 1 0 4.53999e-06 -0.147463
1925 1 50.8357 14.9587 -186.898 0 4.45304 2 0 4.53999e-06 -0.699442
1687 1 51.2296 14.3997 -186.236 0 4.51199 2 0 4.53999e-06 -0.604499
9425 1 51.711 15.5241 -186.791 0 4.50353 2 0 4.53999e-06 0.200138
909 1 51.5126 14.9964 -186.016 0 4.53541 2 0 4.53999e-06 -0.35661
3642 1 51.812 14.611 -187.133 0 4.48328 2 0 4.53999e-06 0.237876
3738 1 52.0514 14.3425 -186.277 0 4.61245 2 0 4.53999e-06 0.522922
4634 1 52.2186 15.1177 -186.035 0 4.72379 2 0 4.53999e-06 0.778448
3737 1 51.9097 14.4868 -185.651 0 4.56632 1 0 4.53999e-06 0.793918
3969 1 50.6851 13.1906 -184.935 0 4.43231 2 0 4.53999e-06 -0.731083
3371 1 51.586 13.1452 -185.216 0 4.51716 2 0 4.53999e-06 0.000828753
9326 1 51.554 13.2327 -184.303 0 4.51306 2 0 4.53999e-06 0.0768034
6244 1 50.0755 13.7257 -184.063 0 4.33301 2 0 4.53999e-06 -0.944256
8740 1 52.371 13.339 -184.696 0 4.76494 2 0 4.53999e-06 0.725589
3923 1 52.2426 13.9229 -185.393 0 4.70015 2 0 4.53999e-06 0.811464
2555 1 51.2079 14.0007 -185.196 0 4.51992 1 0 4.53999e-06 -0.912709
3793 1 51.1701 14.5756 -185.504 0 4.524 1 0 4.53999e-06 -0.984167
6687 1 51.155 14.6804 -184.732 0 4.51368 2 0 4.53999e-06 -0.591835
3921 1 51.7409 13.8775 -184.911 0 4.55577 1 0 4.53999e-06 0.338896
6689 1 50.9551 15.3211 -185.525 0 4.5019 2 0 4.53999e-06 -0.755712
8743 1 51.0368 13.8448 -184.499 0 4.48707 2 0 4.53999e-06 -0.853258
8899 1 51.7548 15.1538 -185.274 0 4.56139 2 0 4.53999e-06 0.114396
3517 1 51.8075 14.5216 -184.994 0 4.56391 1 0 4.53999e-06 0.328454
8101 1 52.5051 14.7725 -185.325 0 4.7556 2 0 4.53999e-06 0.938965
8837 1 52.4544 14.2418 -184.617 0 4.75318 2 0 4.53999e-06 0.858284
9426 1 51.7032 14.1813 -184.266 0 4.5484 2 0 4.53999e-06 0.107767
3218 1 50.7147 12.8162 -183.881 0 4.36289 2 0 4.53999e-06 -0.374719
5809 1 51.1536 13.7729 -183.574 0 4.45203 2 0 4.53999e-06 -0.218069
8056 1 52.2569 13.6665 -183.757 0 4.82379 2 0 4.53999e-06 0.5564
4131 1 47.2827 14.2001 -180.94 0 3.56002 3 0 4.53999e-06 -0.988431
4233 1 49.784 14.4297 -181.525 0 4.92161 3 0 4.53999e-06 -0.13323
8839 1 52.0706 15.1941 -181.128 0 7.47467 3 0 4.53999e-06 0.35049
8597 1 51.1892 12.7836 -179.402 0 3.59137 3 0 4.53999e-06 0.102913
4589 1 49.3802 14.8077 -179.319 0 4.08609 3 0 4.53999e-06 0.0607922
7375 1 53.6285 14.5619 -179.354 0 7.62629 3 0 4.53999e-06 0.637502
8265 1 48.243 12.1617 -177.834 0 3.54762 3 0 4.53999e-06 -0
8900 1 51.3386 14.3603 -177.336 0 5.66905 3 0 4.53999e-06 0.748076
8322 1 50.0987 13.3903 -175.574 0 4.08248 3 0 4.53999e-06 -0.178514
3871 1 49.4793 15.5591 -176.324 0 4.05741 3 0 4.53999e-06 -0.879539
3691 1 47.6991 14.061 -174.998 0 3.95366 3 0 4.53999e-06 -0.577163
3209 1 49.93 12.9079 -173.059 0 4.19183 2 0 4.53999e-06 -0.258022
9424 1 50.5956 13.4461 -172.585 0 4.28784 2 0 4.53999e-06 0.283575
4592 1 49.6025 13.8487 -173.108 0 4.22718 2 0 4.53999e-06 -0.793821
1568 1 49.9619 14.8056 -173.102 0 4.29178 2 0 4.53999e-06 -0.46523
8445 1 49.9361 14.116 -172.279 0 4.25324 2 0 4.53999e-06 -0.899995
8645 1 50.6107 13.9109 -173.394 0 4.33083 2 0 4.53999e-06 0.190373
8545 1 50.7027 14.4802 -172.688 0 4.36709 2 0 4.53999e-06 0.128914
5815 1 51.4499 14.7591 -173.405 0 4.67748 2 0 4.53999e-06 0.413759
9173 1 51.3354 14.0141 -172.39 0 4.60203 2 0 4.53999e-06 0.791525
6181 1 52.266 14.5466 -172.618 0 5.02174 2 0 4.53999e-06 0.926102
3690 1 49.7718 13.2118 -172.103 0 4.20609 2 0 4.53999e-06 -0.671973
3924 1 49.9383 13.7866 -171.437 0 4.21682 1 0 4.53999e-06 -0.785502
8058 1 50.6652 13.1083 -171.709 0 4.26342 2 0 4.53999e-06 0.202083
4517 1 50.6251 13.6864 -171.04 0 4.26589 1 0 4.53999e-06 0.230559
8216 1 51.3316 13.8153 -171.546 0 4.53379 2 0 4.53999e-06 0.811501
3335 1 49.6803 14.623 -171.405 0 4.18332 2 0 4.53999e-06 -0.837454
3971 1 49.6625 14.0948 -170.666 0 4.13875 1 0 4.53999e-06 -0.895159
9179 1 50.6309 14.0174 -171.889 0 4.31571 1 0 4.53999e-06 0.30801
1012 1 50.4021 14.7667 -171.938 0 4.29374 2 0 4.53999e-06 -0.27185
1927 1 50.4292 14.344 -171.248 0 4.27165 1 0 4.53999e-06 -0.482303
1309 1 50.5957 15.1973 -171.197 0 4.27513 2 0 4.53999e-06 0.0522539
1146 1 51.3094 14.8481 -172.054 0 4.61013 2 0 4.53999e-06 0.54237
2550 1 51.1031 14.538 -171.283 0 4.44863 2 0 4.53999e-06 0.823958
8845 1 51.3453 14.088 -170.61 0 4.52013 2 0 4.53999e-06 0.799652
4677 1 50.1579 14.6948 -170.663 0 4.20616 2 0 4.53999e-06 -0.235969
7473 1 52.1136 14.5548 -171.45 0 4.78698 2 0 4.53999e-06 0.953109
8996 1 48.0925 12.9636 -169.058 0 3.95012 2 0 4.53999e-06 0.0160608
3235 1 47.5105 13.3803 -168.731 0 3.92892 1 0 4.53999e-06 -0.662729
3639 1 48.3178 13.6636 -169.451 0 3.95832 2 0 4.53999e-06 -0.216986
8745 1 49.7821 13.6539 -170.014 0 4.11048 2 0 4.53999e-06 0.11774
8441 1 48.9093 13.4617 -169.094 0 4.00332 2 0 4.53999e-06 0.661192
8746 1 50.5373 14.0729 -169.601 0 4.39771 2 0 4.53999e-06 0.626191
4334 1 47.6532 13.9724 -169.151 0 3.92459 2 0 4.53999e-06 -0.643039
6514 1 47.6388 14.754 -168.785 0 3.8976 2 0 4.53999e-06 -0.477788
3277 1 48.923 13.8576 -170.088 0 4.00748 2 0 4.53999e-06 -0.46001
905 1 48.2241 13.8729 -168.74 0 3.95459 1 0 4.53999e-06 0.266481
4016 1 49.1877 14.8045 -170.316 0 4.05734 2 0 4.53999e-06 -0.584354
3515 1 49.0522 14.2969 -169.544 0 4.02112 2 0 4.53999e-06 0.0912266
9325 1 49.6281 14.0018 -169.264 0 4.1914 2 0 4.53999e-06 0.776748
8503 1 48.378 14.4221 -169.236 0 3.95867 2 0 4.53999e-06 -0.262201
8552 1 48.938 14.1678 -168.755 0 4.05047 2 0 4.53999e-06 0.756301
6463 1 49.2 15.0908 -169.184 0 3.99726 2 0 4.53999e-06 0.188807
3516 1 50.49 14.0906 -170.41 0 4.28752 2 0 4.53999e-06 0.468202
1698 1 49.911 14.6552 -169.84 0 4.126 2 0 4.53999e-06 0.273738
6587 1 50.9755 14.9378 -170.3 0 4.47169 2 0 4.53999e-06 0.524252
7104 1 45.5122 11.7096 -167.154 0 3.74971 2 0 4.53999e-06 -0.916133
911 1 46.9337 11.7935 -167.394 0 3.91954 2 0 4.53999e-06 -0.339477
1449 1 46.0406 12.9571 -167.534 0 3.8279 2 0 4.53999e-06 -0.97953
4068 1 45.7536 13.1568 -168.504 0 3.77098 2 0 4.53999e-06 -0.821095
3693 1 47.5553 12.9514 -168.194 0 3.94617 1 0 4.53999e-06 -0.295894
8991 1 47.4275 12.2579 -168.074 0 3.94821 2 0 4.53999e-06 -0.059862
3624 1 46.8136 13.2189 -168.295 0 3.88636 2 0 4.53999e-06 -0.864158
1203 1 46.8035 12.6419 -167.711 0 3.89927 2 0 4.53999e-06 -0.819936
8843 1 47.3689 12.8121 -167.155 0 3.94359 2 0 4.53999e-06 0.1695
8950 1 47.3822 13.4377 -167.856 0 3.92599 1 0 4.53999e-06 -0.398392
6817 1 46.7816 13.467 -167.195 0 3.87124 2 0 4.53999e-06 -0.347854
8646 1 48.2558 12.7022 -168.216 0 4.12129 2 0 4.53999e-06 0.610881
8266 1 48.7995 13.5381 -168.25 0 4.11079 2 0 4.53999e-06 0.820442
6034 1 48.1704 13.3277 -168.474 0 3.96425 1 0 4.53999e-06 0.668002
8951 1 47.9618 12.2913 -167.415 0 4.17734 2 0 4.53999e-06 0.721307
8835 1 48.0322 13.2107 -167.655 0 4.093 1 0 4.53999e-06 0.529565
4632 1 46.5501 14.0008 -167.96 0 3.84488 2 0 4.53999e-06 -0.666818
7748 1 47.4277 13.9935 -168.364 0 3.91384 1 0 4.53999e-06 -0.649895
5813 1 48.049 13.8887 -168.063 0 3.94749 1 0 4.53999e-06 0.197152
6183 1 48.3914 14.6135 -168.358 0 3.93391 2 0 4.53999e-06 0.160932
3698 1 46.6276 9.07845 -165.533 0 3.77406 2 0 4.53999e-06 -0.593522
8995 1 47.2707 8.50177 -165.45 0 3.77852 2 0 4.53999e-06 0.184331
3222 1 47.4082 9.41116 -165.685 0 3.8633 1 0 4.53999e-06 0.111265
3925 1 46.8504 9.90546 -165.535 0 3.84442 1 0 4.53999e-06 -0.753275
2993 1 48.05 9.96283 -165.864 0 4.13935 2 0 4.53999e-06 0.65726
8057 1 48.1703 9.01724 -165.354 0 4.05474 2 0 4.53999e-06 0.827479
4594 1 46.5575 11.3098 -166.478 0 3.89198 2 0 4.53999e-06 -0.959145
3282 1 47.4572 10.9471 -166.881 0 3.96417 2 0 4.53999e-06 0.171061
4126 1 47.2881 10.2988 -166.115 0 3.93051 2 0 4.53999e-06 -0.338896
8538 1 47.7916 10.5248 -165.32 0 4.02942 2 0 4.53999e-06 0.449759
8006 1 47.4009 11.1417 -165.898 0 3.98659 2 0 4.53999e-06 -0.252708
9178 1 47.4294 11.9114 -166.642 0 4.18345 2 0 4.53999e-06 0.542416
3279 1 48.2386 10.8608 -166.153 0 4.28071 2 0 4.53999e-06 0.770982
2996 1 48.8056 10.3914 -165.316 0 4.36172 2 0 4.53999e-06 0.987496
6607 1 46.509 12.404 -166.771 0 3.87858 2 0 4.53999e-06 -0.587286