ITEM: TIMESTEP
28500
ITEM: NUMBER OF ATOMS
9495
ITEM: BOX BOUNDS mm mm mm
0.0000000000000000e+00 4.4707471180680450e+01
-1.1995211647452300e+00 3.1913108465409781e+01
-1.3511760588519895e+01 3.1748021039364001e+01
ITEM: ATOMS id type x y z c_phase c_temp c_surf c_nbond c_visc f_3[1]
1924 1 42.4985 12.8791 -12.3784 0 2.89077 2 0 4.53999e-06 -0.116778
2149 1 41.9425 13.6666 -12.7787 0 2.85617 2 0 4.53999e-06 -0.490673
2453 1 41.6764 14.414 -13.467 0 2.8158 2 0 4.53999e-06 -0.317545
2454 1 41.3568 14.6708 -12.5674 0 2.80291 2 0 4.53999e-06 -0.956593
1920 1 42.3827 14.6473 -12.8506 0 2.9096 2 0 4.53999e-06 0.348921
1560 1 43.0038 13.766 -12.8156 0 3.03264 2 0 4.53999e-06 0.433788
4521 1 43.8357 15.2318 -12.2033 0 3.55311 2 0 4.53999e-06 0.580088
2150 1 41.9778 12.3015 -11.272 0 2.68488 2 0 4.54e-06 -0.562726
2503 1 41.9387 13.3056 -11.6646 0 2.79456 2 0 4.53999e-06 -0.896036
1921 1 42.7929 12.9123 -11.2738 0 2.84687 2 0 4.53999e-06 0.122264
1562 1 42.951 12.3024 -10.5312 0 2.73227 2 0 4.53999e-06 0.291652
1561 1 43.4388 13.0445 -12.054 0 3.30672 2 0 4.53999e-06 0.554432
3628 1 43.9387 13.4655 -11.2519 0 3.34378 2 0 4.53999e-06 0.753128
1201 1 43.3933 13.2165 -10.5104 0 2.88452 1 0 4.53999e-06 0.651564
2101 1 41.9758 14.1854 -11.9588 0 2.84737 2 0 4.53999e-06 -0.903748
1870 1 41.4732 15.099 -11.1659 0 2.69751 2 0 4.53999e-06 -0.974955
1865 1 41.8842 15.151 -12.0294 0 2.82485 2 0 4.53999e-06 -0.84795
1469 1 42.2316 14.4869 -11.1011 0 2.79345 1 0 4.53999e-06 -0.918254
900 1 42.8947 13.8291 -11.4172 0 2.95218 1 0 4.53999e-06 0.231249
1143 1 42.9653 14.648 -12.1343 0 3.19622 2 0 4.53999e-06 0.607057
2105 1 42.1126 13.521 -10.6991 0 2.70787 1 0 4.53999e-06 -0.942484
1196 1 43.6579 14.0401 -12.0323 0 3.38581 2 0 4.53999e-06 0.711154
4544 1 44.4275 14.4468 -11.5883 0 3.6185 2 0 4.53999e-06 0.8891
8451 1 43.2691 14.6679 -11.1173 0 3.02906 1 0 4.53999e-06 0.852537
4109 1 44.4344 15.3413 -11.1167 0 3.62344 2 0 4.53999e-06 0.880283
4522 1 44.7412 13.8871 -10.7494 0 3.5663 2 0 4.53999e-06 0.97501
2547 1 41.6258 11.4178 -9.7073 0 2.53668 2 0 4.54e-06 -0.536009
1199 1 41.5629 11.9148 -8.6463 0 2.48646 2 0 4.54001e-06 -0.932675
952 1 42.9523 11.8323 -9.42509 0 2.66395 2 0 4.54e-06 0.390099
2151 1 41.9882 12.3157 -10.1336 0 2.6052 2 0 4.54e-06 -0.751101
1922 1 42.1938 12.6044 -9.01493 0 2.55606 1 0 4.54e-06 -0.851047
2551 1 41.863 13.2244 -9.74124 0 2.57834 2 0 4.54e-06 -0.965446
2153 1 42.7036 12.9007 -9.98111 0 2.68847 1 0 4.54e-06 -0.193137
1928 1 42.6445 13.4286 -9.25209 0 2.61239 1 0 4.54e-06 -0.603951
3522 1 43.1037 12.7681 -8.88547 0 2.64649 1 0 4.54e-06 0.432905
3630 1 43.7766 12.5219 -9.75252 0 3.0608 2 0 4.53999e-06 0.684542
903 1 43.5331 13.4815 -9.51047 0 2.78956 1 0 4.53999e-06 0.92145
4113 1 44.3937 13.4293 -9.88243 0 3.25156 2 0 4.53999e-06 0.935586
6588 1 40.7923 15.148 -10.304 0 2.5242 2 0 4.54e-06 -0.986021
6973 1 40.9706 14.9948 -8.9256 0 2.40849 2 0 4.54003e-06 -0.961876
2457 1 42.1159 14.0493 -9.62009 0 2.58086 1 0 4.54e-06 -0.923724
2104 1 41.6521 14.662 -9.30632 0 2.50113 1 0 4.54001e-06 -0.975094
2460 1 41.6703 14.4526 -10.3547 0 2.6181 2 0 4.54e-06 -0.908053
1149 1 42.8291 13.9571 -10.1073 0 2.73739 1 0 4.53999e-06 -0.0140046
3632 1 42.5382 14.8963 -9.8852 0 2.67529 1 0 4.54e-06 -0.0439194
3629 1 42.4672 14.5551 -8.8319 0 2.54516 1 0 4.54e-06 -0.449025
9333 1 43.3091 14.4548 -9.4263 0 2.75345 1 0 4.53999e-06 0.801064
4545 1 43.6822 14.0907 -10.4191 0 2.99709 1 0 4.53999e-06 0.952292
9330 1 43.2584 15.2819 -10.3854 0 2.9243 1 0 4.53999e-06 0.463975
4130 1 44.0985 14.8706 -10.2491 0 3.287 2 0 4.53999e-06 0.922245
4114 1 44.3957 14.3308 -9.34359 0 3.16806 2 0 4.53999e-06 0.990803
9222 1 43.8419 15.2694 -9.34143 0 3.07073 2 0 4.53999e-06 0.753518
1195 1 41.0667 11.0616 -8.23844 0 2.43185 2 0 4.54002e-06 -0.616044
1253 1 40.4288 11.0565 -6.97675 0 2.28414 2 0 4.54011e-06 -0.578989
1008 1 42.266 11.0993 -8.60727 0 2.54536 2 0 4.54e-06 0.325046
4325 1 41.9407 11.3641 -7.40432 0 2.43505 2 0 4.54002e-06 0.173847
1976 1 41.056 11.8412 -7.52695 0 2.3492 2 0 4.54006e-06 -0.818702
2598 1 40.4747 12.3923 -6.85416 0 2.21818 2 0 4.54023e-06 -0.865626
2553 1 41.5117 12.8832 -7.31248 0 2.34292 1 0 4.54006e-06 -0.855059
3519 1 42.5355 11.9962 -8.2585 0 2.53062 2 0 4.54e-06 0.312554
955 1 42.1162 12.2188 -7.14865 0 2.43406 1 0 4.54002e-06 -0.162751
4417 1 43.1433 12.2925 -7.47898 0 2.74417 2 0 4.53999e-06 0.585578
4518 1 42.571 13.2697 -7.14353 0 2.4661 1 0 4.54001e-06 0.00672754
954 1 42.4352 12.7812 -7.84759 0 2.49549 1 0 4.54001e-06 -0.452977
1148 1 42.69 13.409 -8.24072 0 2.52941 1 0 4.54e-06 -0.409444
4519 1 43.3902 13.1279 -7.05338 0 2.59331 1 0 4.54e-06 0.811601
4520 1 43.4202 13.1208 -8.05195 0 2.62783 1 0 4.54e-06 0.75874
4587 1 44.0604 12.7557 -8.67948 0 2.98503 2 0 4.53999e-06 0.80865
3870 1 44.3567 13.25 -7.62479 0 2.95667 2 0 4.53999e-06 0.940444
7373 1 38.2692 15.028 -6.75607 0 2.31037 2 0 4.54009e-06 -0.909686
7202 1 39.7336 14.7329 -7.62485 0 2.29832 2 0 4.5401e-06 -0.512622
7205 1 41.3478 14.3653 -8.30109 0 2.38103 1 0 4.54004e-06 -0.897627
7203 1 40.7029 14.5812 -7.63086 0 2.29405 2 0 4.5401e-06 -0.719409
7204 1 41.6004 13.9005 -7.0524 0 2.30653 1 0 4.54009e-06 -0.970958
6608 1 41.5769 14.7482 -7.11315 0 2.3035 1 0 4.54009e-06 -0.56779
1869 1 42.0905 13.5927 -7.67518 0 2.41459 1 0 4.54003e-06 -0.935102
1866 1 42.0653 13.8394 -8.63707 0 2.48583 1 0 4.54001e-06 -0.92034
1466 1 42.1433 14.351 -7.84655 0 2.42682 1 0 4.54002e-06 -0.895005
8448 1 42.8368 14.0155 -7.3888 0 2.49994 1 0 4.54001e-06 0.414134
9220 1 42.7986 14.7814 -7.77988 0 2.51731 1 0 4.54e-06 0.225964
3631 1 42.9603 14.0036 -8.61819 0 2.59071 1 0 4.54e-06 0.839391
9329 1 43.0694 15.1488 -8.70887 0 2.64247 1 0 4.54e-06 0.30775
7556 1 42.0548 15.1481 -8.18213 0 2.43736 1 0 4.54002e-06 -0.263071
4548 1 43.6133 13.8414 -7.57026 0 2.63543 1 0 4.54e-06 0.951112
9334 1 43.4498 14.4844 -8.15772 0 2.64614 1 0 4.54e-06 0.856428
9218 1 43.6499 15.1218 -7.35853 0 2.84696 2 0 4.53999e-06 0.62137
4125 1 43.7685 13.8018 -8.66258 0 2.72356 1 0 4.53999e-06 0.992922
8739 1 44.2412 14.3271 -7.20492 0 2.9462 2 0 4.53999e-06 0.900558
8992 1 44.2592 14.8077 -8.35984 0 3.01701 2 0 4.53999e-06 0.94462
1685 1 39.7777 11.4047 -5.75157 0 2.12972 2 0 4.54056e-06 -0.35588
1259 1 39.1171 11.122 -4.9071 0 2.05384 2 0 4.5412e-06 -0.263366
3425 1 40.7794 11.3087 -6.03751 0 2.25475 2 0 4.54015e-06 -0.0873224
4630 1 41.7685 11.3816 -5.93516 0 2.37861 2 0 4.54004e-06 0.307381
2452 1 38.8529 11.8597 -5.43984 0 2.04208 2 0 4.54135e-06 -0.598486
1569 1 39.6085 12.1542 -5.10271 0 2.07333 2 0 4.54098e-06 -0.471506
1010 1 41.2992 12.0723 -6.46296 0 2.31008 1 0 4.54009e-06 -0.58093
1255 1 40.5128 11.8974 -5.32979 0 2.18281 2 0 4.54032e-06 0.0509798
2599 1 40.3458 12.8519 -5.91852 0 2.1411 2 0 4.5405e-06 -0.865128
3521 1 40.7306 12.7068 -5.12757 0 2.18874 1 0 4.54031e-06 -0.573215
1926 1 41.4617 12.8408 -5.66524 0 2.26573 1 0 4.54014e-06 -0.269897
4588 1 42.5894 11.7185 -6.487 0 2.52372 2 0 4.54e-06 0.480041
2552 1 41.7209 13.2643 -6.41901 0 2.30066 1 0 4.54009e-06 -0.908343
4420 1 42.1671 12.2094 -5.58172 0 2.58024 2 0 4.54e-06 0.547292
901 1 42.4187 13.1496 -5.52807 0 2.35745 1 0 4.54005e-06 0.588966
3520 1 42.4955 12.6802 -6.38182 0 2.44702 1 0 4.54002e-06 0.390305
4227 1 43.4226 12.3529 -6.44463 0 2.80626 2 0 4.53999e-06 0.696883
4546 1 43.3548 13.203 -5.92294 0 2.73062 2 0 4.53999e-06 0.721233
3213 1 44.1601 13.4569 -6.51588 0 2.91932 2 0 4.53999e-06 0.876517
7376 1 39.6069 14.2882 -5.71977 0 2.14257 2 0 4.54049e-06 -0.54726
6905 1 38.6573 14.4617 -5.62425 0 2.1857 2 0 4.54031e-06 -0.724471
7152 1 39.1739 14.5178 -6.6768 0 2.25461 2 0 4.54015e-06 -0.500516
2656 1 40.7106 13.4492 -6.74672 0 2.19258 2 0 4.54029e-06 -0.870532
6590 1 40.4017 13.9991 -5.21466 0 2.10173 1 0 4.54074e-06 -0.705721
6972 1 41.3272 13.8908 -5.32837 0 2.17776 1 0 4.54034e-06 -0.350545
6304 1 41.5285 14.2844 -6.21472 0 2.2347 1 0 4.54019e-06 -0.697288
6301 1 41.0942 14.6713 -5.38302 0 2.16081 1 0 4.54041e-06 -0.230474
6970 1 40.6095 14.3429 -6.32242 0 2.18971 1 0 4.5403e-06 -0.744687
6908 1 40.0549 14.9414 -6.77954 0 2.23711 2 0 4.54019e-06 -0.672359
4516 1 42.1027 14.0484 -5.60526 0 2.28662 1 0 4.54011e-06 0.984917
902 1 42.6274 13.7068 -6.36048 0 2.42268 1 0 4.54002e-06 0.657438
7555 1 42.4273 14.5386 -6.66276 0 2.37703 1 0 4.54004e-06 0.398846
8944 1 43.1298 14.8901 -5.60605 0 2.69344 2 0 4.53999e-06 0.828114
9221 1 43.5702 14.315 -6.33238 0 2.78748 2 0 4.53999e-06 0.752404
1681 1 37.4086 11.4739 -4.01287 0 1.9859 2 0 4.54237e-06 -0.809933
1688 1 38.3031 11.729 -4.65372 0 1.99748 2 0 4.54211e-06 -0.76133
1011 1 39.2007 11.6881 -4.22593 0 2.02977 2 0 4.54152e-06 -0.0501977
1313 1 38.2934 11.5296 -3.73412 0 1.95956 2 0 4.54308e-06 -0.342139
4328 1 39.0333 11.6492 -3.24459 0 1.9829 2 0 4.54244e-06 0.294866
4326 1 40.0553 11.3046 -4.70683 0 2.12225 2 0 4.5406e-06 0.250759
2202 1 38.2017 12.461 -3.94811 0 1.94474 2 0 4.54358e-06 -0.710711
4330 1 39.8392 11.9286 -3.65753 0 2.07543 2 0 4.54096e-06 0.390804
2201 1 39.0182 12.7431 -4.45915 0 1.98283 1 0 4.54244e-06 -0.495132
4419 1 39.7278 12.6625 -3.27193 0 2.02205 1 0 4.54165e-06 0.455553
2154 1 38.8392 13.1754 -3.56747 0 1.93473 1 0 4.54396e-06 -0.710731
1567 1 39.7618 13.418 -3.61975 0 2.00801 1 0 4.5419e-06 -0.29094
4229 1 41.4326 11.7428 -4.98283 0 2.52772 2 0 4.54e-06 0.546627
1566 1 39.9598 12.6102 -4.4791 0 2.08021 1 0 4.54092e-06 -0.526607
1923 1 41.2043 13.3856 -4.70823 0 2.17714 1 0 4.54034e-06 0.353211
4331 1 40.6365 11.843 -4.16155 0 2.18758 2 0 4.54031e-06 0.473563
4591 1 41.3218 12.4931 -4.34971 0 2.40096 2 0 4.54003e-06 0.701783
1198 1 40.529 12.9868 -3.97947 0 2.11779 1 0 4.54063e-06 0.341395
4515 1 41.4719 13.2482 -3.79416 0 2.35738 2 0 4.54005e-06 0.736632
7374 1 39.755 14.1834 -4.54217 0 2.03155 1 0 4.5415e-06 -0.594016
7377 1 38.4856 14.6015 -3.56443 0 1.94241 1 0 4.54366e-06 -0.758347
2548 1 38.9261 13.9106 -3.94503 0 1.93553 1 0 4.54392e-06 -0.703899
6031 1 39.3891 14.6231 -3.65233 0 1.98396 1 0 4.54241e-06 -0.609703
6513 1 38.4907 15.0179 -4.48751 0 2.03115 2 0 4.5415e-06 -0.892888
6907 1 39.529 15.0548 -4.46883 0 2.0432 1 0 4.54133e-06 -0.395079
7554 1 40.261 14.8227 -3.91622 0 2.04897 1 0 4.54126e-06 0.246677
6303 1 40.0349 14.0882 -3.73314 0 2.02819 1 0 4.54155e-06 -0.164243
1563 1 40.6766 13.7561 -4.14925 0 2.10794 1 0 4.54069e-06 0.121335
9224 1 40.8813 14.2866 -3.48448 0 2.11956 1 0 4.54062e-06 0.721889
8447 1 40.9231 14.4282 -4.47813 0 2.11984 1 0 4.54062e-06 0.367107
9169 1 41.6546 14.8516 -3.93788 0 2.35338 2 0 4.54005e-06 0.554787
6605 1 40.3632 14.9898 -4.82975 0 2.09175 1 0 4.54082e-06 -0.202657
8546 1 41.9772 14.8499 -5.14963 0 2.26292 1 0 4.54014e-06 0.568483
3873 1 43.1356 13.8951 -5.20402 0 2.6511 2 0 4.54e-06 0.850136
4547 1 42.1345 13.4868 -4.72309 0 2.26087 1 0 4.54014e-06 0.726405
9331 1 41.7733 14.2225 -4.50881 0 2.22261 1 0 4.54022e-06 0.840791
3872 1 41.877 14.0122 -3.50493 0 2.41905 2 0 4.54002e-06 0.772883
8989 1 42.7053 14.3243 -4.36825 0 2.56677 2 0 4.54e-06 0.796819
9168 1 42.7743 15.2379 -4.70965 0 2.64787 2 0 4.54e-06 0.690421
2597 1 36.163 11.8941 -1.48315 0 1.79548 2 0 4.55595e-06 -0.709049
1683 1 36.5761 11.4569 -2.33913 0 1.84364 2 0 4.54984e-06 -0.556765
1684 1 37.372 11.9744 -2.87621 0 1.87928 2 0 4.54689e-06 -0.67879
1056 1 37.4634 11.6371 -2.04863 0 1.85932 2 0 4.54842e-06 0.0836141
4631 1 38.2268 11.986 -2.16211 0 1.91239 2 0 4.54495e-06 0.438863
2205 1 36.8651 12.2877 -2.04283 0 1.82539 2 0 4.55182e-06 -0.772308
2208 1 37.7189 12.782 -2.79998 0 1.87432 1 0 4.54724e-06 -0.631281
1929 1 37.1541 13.0194 -2.00365 0 1.81792 1 0 4.55274e-06 -0.716736
4633 1 37.4108 12.1678 -1.39343 0 1.84247 1 0 4.54996e-06 0.388032
4590 1 37.8764 12.706 -1.87975 0 1.86489 1 0 4.54796e-06 0.713929
1197 1 36.8266 13.5648 -1.4027 0 1.78204 1 0 4.55826e-06 -0.794552
3422 1 38.1992 12.0523 -3.02534 0 1.9203 2 0 4.54457e-06 -0.349999
1257 1 38.8242 12.5578 -3.13915 0 1.94418 1 0 4.5436e-06 0.100534
4416 1 38.4486 13.0275 -2.50952 0 1.90049 1 0 4.54557e-06 0.247036
956 1 38.3151 13.4164 -1.77276 0 1.87746 1 0 4.54702e-06 0.822496
3966 1 39.01 12.2893 -2.35121 0 2.11032 2 0 4.54068e-06 0.564912
4232 1 39.3295 13.1019 -2.26775 0 1.95242 1 0 4.54331e-06 0.526636
4551 1 40.0494 13.3244 -2.74582 0 2.02914 1 0 4.54153e-06 0.423593
4228 1 40.707 12.5211 -3.07528 0 2.19051 2 0 4.5403e-06 0.489284
4549 1 40.9617 13.4637 -2.99992 0 2.31212 2 0 4.54008e-06 0.659077
7151 1 37.7711 14.7579 -2.99916 0 1.90747 2 0 4.5452e-06 -0.594397
7475 1 37.2731 14.3172 -2.37722 0 1.84577 1 0 4.54964e-06 -0.639526
6591 1 36.2842 14.4419 -1.31168 0 1.79336 1 0 4.5563e-06 -0.789871
2655 1 37.6007 13.7252 -2.01839 0 1.83136 1 0 4.55114e-06 -0.547547
7553 1 37.6523 14.7302 -1.8437 0 1.88011 1 0 4.54684e-06 -0.252905
6968 1 36.807 14.8546 -1.81597 0 1.85034 1 0 4.54921e-06 -0.72666
7472 1 38.2548 14.0541 -2.70631 0 1.88842 1 0 4.54629e-06 -0.574412
1467 1 39.1969 13.8642 -3.0008 0 1.94518 1 0 4.54356e-06 -0.823504
7558 1 39.2999 14.5385 -2.70896 0 1.97729 1 0 4.54258e-06 0.374315
904 1 38.9789 13.929 -1.96751 0 1.9342 1 0 4.54398e-06 0.762879
9172 1 38.327 14.4498 -1.51255 0 1.91668 1 0 4.54474e-06 0.840368
6243 1 38.9028 15.1106 -2.99042 0 1.97418 1 0 4.54266e-06 0.0435738
7657 1 38.4887 14.8667 -2.27846 0 1.93973 1 0 4.54376e-06 0.557943
9223 1 40.0656 14.1294 -2.89255 0 2.0363 1 0 4.54143e-06 0.485964
8945 1 40.0805 15.0412 -3.01453 0 2.04644 1 0 4.54129e-06 0.397444
3641 1 39.9374 13.9736 -1.90787 0 2.21193 2 0 4.54024e-06 0.532854
3876 1 41.2467 13.8424 -2.18523 0 2.46864 2 0 4.54001e-06 0.637265
8600 1 40.7433 14.5556 -2.53195 0 2.31083 2 0 4.54009e-06 0.538418
5 1 0.729896 0.0633724 0.61602 4 5.55246e-06 3 0 0.0994487 -0.190373
9 1 2.52093 0.749102 0.203812 4 1.95519e-05 2 0 0.0994487 -0.142938
10 1 2.59149 0.0538711 1.03726 4 1.89481e-05 2 0 0.0994487 -0.295003
20 1 3.47612 0.111428 0.171027 4 2.72634e-05 2 0 0.0994487 0.166217
17 1 4.96159 0.56786 1.17466 4 0.000101394 2 0 0.0994487 -0.0370598
21 1 5.64741 0.645627 0.325839 4 0.0001552 2 0 0.0994487 -0.0805997
26 1 6.7138 0.39031 0.865278 4 0.00027294 2 0 0.0994487 -0.0793745
32 1 7.58247 0.647807 0.140287 4 0.000443418 2 0 0.0994487 -0.110929
28 1 8.2679 0.408875 1.07337 4 0.000591004 2 0 0.0994487 -0.100155
33 1 8.85849 0.508506 0.273966 4 0.000789338 2 0 0.0994487 -0.0616378
34 1 9.55301 0.3386 0.888639 4 0.00106273 2 0 0.0994487 0.00507693
43 1 10.2431 0.367861 0.0780499 4 0.00130998 2 0 0.0994487 0.149809
38 1 11.2128 0.215893 0.632658 4 0.00225818 2 0 0.0994487 0.20352
40 1 10.523 0.196295 1.44539 4 0.00161423 2 0 0.0994487 0.0644392
44 1 12.8757 0.211714 0.636805 4 0.00535117 2 0 0.0994487 0.0588051
46 1 12.1319 0.316439 1.29957 4 0.00389277 2 0 0.0994487 0.0188574
59 1 15.1049 0.711806 0.0677822 4 0.014841 2 0 0.0994487 0.169214
48 1 14.3729 0.318493 0.764646 4 0.0111158 2 0 0.0994487 -0.0460216
54 1 15.7061 0.770636 0.788259 4 0.0226745 2 0 0.0994487 0.366517
57 1 16.547 0.712289 1.3421 4 0.0370299 2 0 0.0994487 0.0956577
60 1 17.2544 0.732268 0.547589 4 0.0519034 2 0 0.0994487 0.0286556
62 1 17.916 0.742935 1.42801 4 0.0788515 2 0 0.0994487 -0.231663
65 1 18.7918 0.725074 0.684829 4 0.103524 2 0 0.0994487 -0.269968
64 1 19.5372 0.0167772 0.662766 4 0.103483 2 0 0.0994487 0.0436605
71 1 20.2493 0.776373 0.980057 4 0.169772 2 0 0.0994487 -0.0471046
73 1 21.1874 0.765598 0.218806 4 0.184683 2 0 0.0994487 -0.0446075
75 1 22.0087 0.262534 0.539755 4 0.208767 2 0 0.0994487 0.099214
70 1 21.0889 0.349843 1.06749 4 0.199453 2 0 0.0994487 -0.205832
81 1 23.5672 0.357563 0.57369 0 0.272678 2 0 0.0993092 0.0377025
76 1 22.7913 0.430275 1.40734 0 0.289516 2 0 0.0991832 0.233368
84 1 24.955 0.315686 0.551996 0 0.314946 2 0 0.0989482 -0.0167156
80 1 24.228 0.380179 1.45209 0 0.385673 2 0 0.0978803 0.0135598
93 1 26.7925 0.240345 0.226621 0 0.310055 2 0 0.0989981 0.0381067
85 1 26.0085 0.383365 1.1715 0 0.394279 2 0 0.0976926 -0.181882
90 1 27.6142 0.50928 0.874321 0 0.360767 2 0 0.098343 0.176594
92 1 28.3748 0.337482 1.39813 0 0.332812 2 0 0.0987441 0.023743
98 1 29.2734 0.3547 0.615275 4 0.231799 2 0 0.0994487 -0.0816935
97 1 29.8133 0.173958 1.46124 4 0.209063 2 0 0.0994487 0.138377
100 1 30.7016 0.49015 0.470738 4 0.16851 2 0 0.0994487 0.354847
99 1 31.5874 0.266128 1.25663 4 0.108313 3 0 0.0994487 0.830095
1 1 0.116341 1.10259 0.464337 4 6.15955e-06 2 0 0.0994487 -0.68194
103 1 1.11081 2.43607 0.129285 4 1.3049e-05 2 0 0.0994487 -0.0373212
2 1 0.974108 1.6685 0.77798 4 1.09274e-05 2 0 0.0994487 -0.517029
104 1 0.133403 2.3821 0.812241 4 9.48609e-06 2 0 0.0994487 -0.984517
3 1 0.714648 0.793562 1.41295 4 7.45468e-06 2 0 0.0994487 -0.281793
4 1 0.00336375 1.60273 1.37437 4 6.98631e-06 2 0 0.0994487 -0.804051
6 1 1.71015 0.808983 1.0155 4 1.36282e-05 2 0 0.0994487 -0.332066
7 1 1.80059 1.47468 0.221075 4 1.53445e-05 2 0 0.0994487 -0.125827
113 1 2.7261 2.38168 0.0557193 4 3.12516e-05 2 0 0.0994487 0.146602
11 1 2.64922 1.541 0.882848 4 2.69489e-05 2 0 0.0994487 0.235769
109 1 1.90972 2.41867 0.78376 4 2.20322e-05 2 0 0.0994487 0.0782146
114 1 3.38195 2.55413 0.779289 4 5.97113e-05 2 0 0.0994487 0.211591
16 1 4.10576 0.858321 0.325305 4 5.66884e-05 2 0 0.0994487 0.153151
13 1 3.43386 0.933692 0.956349 4 3.80548e-05 2 0 0.0994487 0.320254
18 1 4.91949 1.59987 0.383508 4 0.000124336 2 0 0.0994487 -0.100241
115 1 4.00679 1.841 0.711184 4 7.32967e-05 2 0 0.0994487 -0.0361146
116 1 4.91383 2.57277 0.815661 4 0.000167898 2 0 0.0994487 -0.259334
25 1 5.03122 1.72414 1.43602 4 0.000133881 2 0 0.0994487 0.0453803
23 1 6.57478 1.39104 0.218369 4 0.000308971 2 0 0.0994487 -0.0861259
119 1 5.65047 2.44269 0.132743 4 0.000245097 2 0 0.0994487 -0.18992
22 1 5.88414 1.31048 0.938036 4 0.000206531 2 0 0.0994487 -0.199536
120 1 6.55776 2.18062 0.772597 4 0.000383498 2 0 0.0994487 -0.289319
122 1 5.861 2.19426 1.49672 4 0.000253186 2 0 0.0994487 0.0126434
30 1 8.24709 1.39092 0.236779 4 0.000729657 2 0 0.0994487 -0.0460534
125 1 7.45405 2.22586 0.139832 4 0.000620676 2 0 0.0994487 -0.0534933
29 1 7.36782 1.22285 0.954198 4 0.000454842 2 0 0.0994487 -0.3025
126 1 8.08209 2.20208 0.930382 4 0.000884926 2 0 0.0994487 -0.301997
37 1 9.63995 1.37474 0.0900752 4 0.0013188 2 0 0.0994487 0.0993004
131 1 8.90393 2.08699 0.252387 4 0.00123832 2 0 0.0994487 0.00244599
35 1 9.02586 1.30716 1.1133 4 0.0010491 2 0 0.0994487 -0.0606056
132 1 9.77243 2.0246 1.10996 4 0.0018861 2 0 0.0994487 0.173518
39 1 10.3637 1.04743 0.823114 4 0.00179769 2 0 0.0994487 0.53992
136 1 10.2834 2.1137 0.214297 4 0.00222474 2 0 0.0994487 0.337749
137 1 11.1583 1.82604 0.771092 4 0.00351465 2 0 0.0994487 0.260126
41 1 11.2856 1.01846 1.41785 4 0.00294001 2 0 0.0994487 0.164734
45 1 12.0457 1.07408 0.506655 4 0.00449261 2 0 0.0994487 -0.0235284
140 1 12.6737 1.94118 0.593851 4 0.00832972 2 0 0.0994487 -0.283898
152 1 13.4137 2.29398 0.0590902 4 0.0129678 2 0 0.0994487 -0.280946
47 1 12.7194 1.19864 1.3723 4 0.00649676 2 0 0.0994487 -0.0304929
142 1 11.9239 1.9206 1.46509 4 0.00543047 2 0 0.0994487 0.0946836
145 1 13.3784 1.9912 1.48064 4 0.0112008 2 0 0.0994487 -0.0150458
49 1 13.5924 1.113 0.843618 4 0.00979071 2 0 0.0994487 -0.262998
50 1 14.0399 1.55958 0.167469 4 0.0132904 2 0 0.0994487 -0.0898078
150 1 14.8418 2.51505 0.136557 4 0.0253866 2 0 0.0994487 0.173027
53 1 14.8761 1.55337 0.662943 4 0.0187826 2 0 0.0994487 0.39
146 1 14.0206 2.44438 0.927124 4 0.0178518 2 0 0.0994487 -0.132966
52 1 14.3777 1.14948 1.47647 4 0.0132861 2 0 0.0994487 -0.0178022
149 1 14.7823 2.29758 1.44821 4 0.0238458 2 0 0.0994487 0.0469538
55 1 16.5532 1.54451 0.681338 4 0.0469808 2 0 0.0994487 0.000855285
153 1 15.6993 2.44373 0.692668 4 0.0395929 2 0 0.0994487 0.364458
58 1 15.6341 1.48544 1.3916 4 0.0275856 2 0 0.0994487 0.15367
61 1 17.9231 1.58109 0.757246 4 0.0926345 2 0 0.0994487 0.0415431
158 1 17.0646 2.35032 0.682778 4 0.0787976 2 0 0.0994487 0.023282
165 1 19.587 2.34239 0.101452 4 0.179312 2 0 0.0994487 -0.132364
66 1 19.5395 1.55488 0.841653 4 0.167585 2 0 0.0994487 -0.334272
162 1 18.8908 2.35742 1.01358 4 0.173153 2 0 0.0994487 -0.515291
168 1 20.1948 2.46882 1.11433 4 0.242342 2 0 0.0994487 0.413186
69 1 18.6564 1.51302 1.50035 4 0.142269 2 0 0.0994487 -0.336799
74 1 20.3457 1.51479 0.193617 4 0.179787 2 0 0.0994487 -0.0805674
78 1 21.9982 1.59955 0.538558 0 0.258202 2 0 0.0994019 0.182679
167 1 21.1565 2.41663 0.458355 0 0.25985 2 0 0.099392 0.191576
72 1 21.1062 1.65725 0.951506 4 0.239669 2 0 0.0994487 0.584096
79 1 22.9157 1.07463 0.445168 0 0.27047 2 0 0.0993242 0.0521786
173 1 22.0961 2.49917 1.23787 0 0.360026 2 0 0.0983548 0.418983
172 1 22.9717 2.60199 0.735523 0 0.386388 2 0 0.097865 0.132349
77 1 22.1105 1.14763 1.32981 0 0.285099 2 0 0.0992183 0.328006
83 1 23.4757 1.2499 1.4028 0 0.360039 2 0 0.0983548 0.0700996
171 1 22.8719 2.07007 1.50872 0 0.406988 2 0 0.0973844 -0.0182853
82 1 24.4367 1.18687 0.754729 0 0.358541 2 0 0.098379 -0.0193875
176 1 23.7438 1.80844 0.624025 0 0.364431 2 0 0.0982816 -0.0864793
183 1 25.1322 1.85613 0.509414 0 0.416899 2 0 0.0971168 -0.0225863
86 1 25.169 1.12579 1.48087 0 0.441451 2 0 0.0963324 0.037253
88 1 25.8917 0.929212 0.432102 0 0.357599 2 0 0.0983941 -0.0951662
91 1 26.7559 1.02809 1.26347 0 0.436966 2 0 0.0964901 -0.280969
182 1 26.5483 1.79415 0.511367 0 0.419725 2 0 0.0970357 -0.00343754
184 1 25.7918 2.61203 0.707489 0 0.498379 2 0 0.093628 0.213039
87 1 25.9301 1.73476 1.35794 0 0.483699 2 0 0.094469 0.0701046
89 1 27.5736 1.28032 0.38906 0 0.368288 2 0 0.0982149 0.0455015
190 1 28.2489 2.09022 0.343734 0 0.408499 2 0 0.0973455 -0.0176459
94 1 28.6489 1.24263 0.742341 0 0.342049 2 0 0.0986235 0.102288
189 1 27.5039 1.98546 1.23792 0 0.475097 2 0 0.0949108 -0.215495
96 1 28.5228 1.71921 1.49749 0 0.455307 2 0 0.0958015 -0.0217543
204 1 30.4116 1.90909 0.0255368 0 0.28561 2 0 0.0992144 0.106046
101 1 30.1009 1.19877 0.774133 0 0.259373 2 0 0.099395 0.210761
196 1 29.4477 2.04702 0.879698 0 0.388161 2 0 0.0978277 -0.00329526
199 1 30.9114 1.98502 0.924207 0 0.321973 2 0 0.0988722 0.967301
102 1 30.8649 0.971942 1.39386 4 0.206591 2 0 0.0994487 0.706747
108 1 0.332248 3.09582 0.131296 4 1.17737e-05 2 0 0.0994487 -0.59134
210 1 1.04069 3.86421 0.0595682 4 2.01595e-05 2 0 0.0994487 0.0148882
105 1 1.28845 3.23764 0.949187 4 2.0364e-05 2 0 0.0994487 0.222101
206 1 0.293831 3.78503 0.918557 4 1.54904e-05 2 0 0.0994487 -0.999347
213 1 2.64953 4.14475 0.20674 4 6.74968e-05 2 0 0.0994487 -0.0285706
110 1 2.65852 3.28029 0.860875 4 4.94179e-05 2 0 0.0994487 0.0668097
211 1 1.84117 4.04604 0.847105 4 3.86091e-05 2 0 0.0994487 0.00827394
219 1 4.26027 4.18509 0.149001 4 0.000189581 2 0 0.0994487 0.037741
117 1 4.20148 3.3175 0.749446 4 0.000137951 2 0 0.0994487 0.00622265
216 1 3.494 4.07675 0.885909 4 0.000113612 2 0 0.0994487 0.026904
217 1 4.91235 4.00001 1.18344 4 0.000272102 2 0 0.0994487 0.0115334
124 1 6.65033 2.92778 0.134227 4 0.000471159 2 0 0.0994487 0.0288937
221 1 5.77735 3.9378 0.198707 4 0.000413693 2 0 0.0994487 0.0260206
121 1 5.64874 3.19593 0.952489 4 0.00032086 2 0 0.0994487 -0.754597
222 1 6.48883 3.76611 0.772067 4 0.000617844 2 0 0.0994487 0.20457
130 1 8.26934 2.9712 0.0392146 4 0.00125541 2 0 0.0994487 -0.15061
127 1 7.40132 3.06835 0.934051 4 0.000828016 2 0 0.0994487 -0.0454219
226 1 8.1982 3.892 0.700757 4 0.00180002 2 0 0.0994487 -0.369878
228 1 7.39886 3.87029 1.49684 4 0.00109508 2 0 0.0994487 0.102589
135 1 9.56096 2.90576 0.21312 4 0.00225761 2 0 0.0994487 0.173131
133 1 8.92671 2.97262 0.928693 4 0.0018072 2 0 0.0994487 -0.156668
235 1 8.98541 3.86821 0.0631775 4 0.00256093 2 0 0.0994487 -0.138746
230 1 9.8976 3.57792 0.885667 4 0.00372885 2 0 0.0994487 0.592903
233 1 9.07829 3.76256 1.49819 4 0.00268457 2 0 0.0994487 -0.0708731
138 1 10.6214 2.80819 0.921535 4 0.00389382 2 0 0.0994487 0.541966
242 1 10.5826 3.84888 0.176129 4 0.0054829 2 0 0.0994487 0.210478
236 1 11.408 3.64493 0.778297 4 0.00807958 2 0 0.0994487 0.202101
141 1 11.928 2.64099 0.742299 4 0.00716739 2 0 0.0994487 -0.0386365
144 1 13.1791 3.03035 0.848852 4 0.0150125 2 0 0.0994487 -0.440781
243 1 12.5168 3.57716 0.814749 4 0.0134316 2 0 0.0994487 -0.0105279
151 1 14.1591 3.2262 0.0325348 4 0.024574 2 0 0.0994487 -0.246088
254 1 14.961 4.19423 0.096508 4 0.0467391 2 0 0.0994487 0.0322983
148 1 14.6961 3.43698 0.884932 4 0.034442 2 0 0.0994487 -0.332708
248 1 13.9891 4.12825 0.69648 4 0.0320776 2 0 0.0994487 -0.430102
157 1 15.5706 3.25854 0.0192499 4 0.0426314 2 0 0.0994487 0.290257
154 1 16.3029 3.20095 0.662084 4 0.0678591 2 0 0.0994487 0.328427
255 1 15.6685 4.06642 0.926277 4 0.0659844 2 0 0.0994487 0.872432
156 1 15.3694 3.25723 1.50191 4 0.0462173 2 0 0.0994487 -0.0125385
159 1 17.944 2.92608 0.699539 4 0.139406 2 0 0.0994487 -0.230202
264 1 18.1348 3.8547 0.0583493 4 0.164137 2 0 0.0994487 -0.120503
260 1 17.2689 3.83372 0.811237 4 0.134502 2 0 0.0994487 -0.343584
161 1 17.0918 3.1162 1.49491 4 0.115443 2 0 0.0994487 -0.189632
164 1 18.884 2.99607 0.196019 4 0.175349 2 0 0.0994487 -0.1718
269 1 19.5987 3.76722 0.227421 4 0.229558 2 0 0.0994487 0.164091
163 1 19.7027 3.2427 1.27782 0 0.256762 2 0 0.0994104 0.419319
265 1 18.8779 3.70667 0.95022 4 0.217355 2 0 0.0994487 0.0331835
170 1 20.4222 2.99313 0.334941 4 0.242473 2 0 0.0994487 0.185065
174 1 21.9898 3.20043 0.598797 0 0.362196 2 0 0.0983191 -0.0689726
273 1 21.0824 3.93136 0.512408 0 0.339292 2 0 0.0986604 0.0840462
270 1 20.4384 3.82188 1.23329 0 0.324333 2 0 0.0988452 0.455918
169 1 21.31 3.29463 1.39314 0 0.377013 2 0 0.0980537 0.0337988
276 1 21.9406 4.13318 1.31068 0 0.457339 2 0 0.0957165 -0.0857153
175 1 22.6771 3.40124 0.07601 0 0.390931 2 0 0.0977671 0.0760892
278 1 22.6119 4.34705 0.510028 0 0.469 2 0 0.0952023 -0.0219557
279 1 23.5735 3.63903 0.782677 0 0.495504 2 0 0.0938013 0.16998
275 1 22.8205 3.63186 1.42135 0 0.495215 2 0 0.0938184 0.0443987
181 1 24.9562 2.84566 0.0146836 0 0.459992 2 0 0.0956048 -0.0864607
178 1 24.342 2.68296 0.775192 0 0.471355 2 0 0.0950916 -0.312009
280 1 24.336 4.32055 0.625018 0 0.583481 2 0 0.0858246 -0.131898
285 1 25.0629 3.68037 0.802132 0 0.575761 2 0 0.0867911 -0.188905
191 1 27.0867 2.6924 0.645359 0 0.499 2 0 0.09359 -0.10394
290 1 25.5284 4.40089 0.388179 0 0.618267 2 0 0.0806467 0.0532953
188 1 26.1686 3.50068 0.599043 0 0.571768 2 0 0.0872676 0.166788
294 1 27.0674 4.04323 0.570038 0 0.615427 2 0 0.0811246 0.0131361
186 1 25.7213 3.49812 1.51211 0 0.661948 2 0 0.0719616 0.301893
288 1 26.3575 4.29031 1.37159 0 0.699278 2 0 0.0624427 0.515404
193 1 28.2537 2.75799 1.20639 0 0.552018 2 0 0.0894007 -0.642481
194 1 27.982 3.21993 0.326384 0 0.517458 2 0 0.0923517 -0.12445
292 1 27.9624 3.97641 1.10408 0 0.66017 2 0 0.0723688 -0.54271
192 1 27.1998 3.35397 1.41682 0 0.643335 2 0 0.0759817 -0.263452
197 1 29.1956 2.6589 0.290703 0 0.424913 2 0 0.096881 -0.0577497
200 1 30.1815 2.71094 1.00186 0 0.444908 2 0 0.0962067 0.716195
203 1 30.1092 3.25953 0.132205 0 0.431788 2 0 0.0966636 -0.0443402
295 1 28.9321 3.77016 0.487204 0 0.558579 2 0 0.0887321 -0.00463823
198 1 29.2495 3.2651 1.17365 0 0.568339 2 0 0.0876657 0.305367
297 1 29.9979 4.07209 1.02303 0 0.620979 2 0 0.0801863 -0.32541
205 1 31.1434 2.66402 0.0761253 0 0.332617 2 0 0.0987465 0.708821
298 1 31.0296 3.97382 0.373364 0 0.51263 2 0 0.0926972 0.657154
201 1 31.0247 3.35309 0.97101 0 0.515942 2 0 0.0924629 0.99595
207 1 0.143046 4.59443 0.482118 4 1.79786e-05 2 0 0.0994487 -0.784494
208 1 1.14036 4.67093 0.986638 4 3.03558e-05 2 0 0.0994487 -0.516755
301 1 0.908283 5.53205 0.461647 4 3.55618e-05 2 0 0.0994487 -0.463785
209 1 0.0884667 5.26681 1.27761 4 2.15081e-05 2 0 0.0994487 -0.887459
303 1 0.793684 6.22023 1.2768 4 4.13771e-05 2 0 0.0994487 -0.70338
302 1 1.53161 5.51184 1.37971 4 4.92284e-05 2 0 0.0994487 -0.117386
214 1 1.89758 4.96895 0.278386 4 5.37086e-05 2 0 0.0994487 -0.153432
307 1 1.89588 6.19966 0.519025 4 7.6609e-05 2 0 0.0994487 -0.156399
311 1 2.68177 5.61289 0.273587 4 0.000106545 2 0 0.0994487 -0.0596842
212 1 2.54049 4.85585 1.13748 4 7.81024e-05 2 0 0.0994487 -0.333842
308 1 3.10475 5.61709 1.30057 4 0.000138238 2 0 0.0994487 0.0402551
309 1 2.26359 6.15348 1.40977 4 9.05332e-05 2 0 0.0994487 0.0408575
220 1 5.00947 4.74001 0.341082 4 0.000366465 2 0 0.0994487 0.0765448
215 1 3.40771 4.86189 0.161635 4 0.000136307 2 0 0.0994487 -0.0163859
313 1 4.18979 5.46246 0.325783 4 0.000280111 2 0 0.0994487 0.0310207
316 1 4.82567 6.23357 0.333842 4 0.000550559 2 0 0.0994487 -0.0345728
218 1 4.04658 4.88002 1.14639 4 0.000207477 2 0 0.0994487 0.264496
315 1 4.13622 6.09659 1.22779 4 0.000347112 2 0 0.0994487 -0.0893862
314 1 4.93434 5.42873 1.31778 4 0.000478885 2 0 0.0994487 -0.235095
223 1 5.68025 4.73638 1.02487 4 0.000570446 2 0 0.0994487 -0.621605
319 1 5.78575 5.42185 0.301847 4 0.000747948 2 0 0.0994487 0.0125063
323 1 6.37773 6.04115 0.154639 4 0.00121315 2 0 0.0994487 0.111116
225 1 6.68072 5.1315 0.885352 4 0.00117313 2 0 0.0994487 0.206882
320 1 5.6935 6.24342 0.9632 4 0.000967702 2 0 0.0994487 -0.967754
227 1 7.40842 4.46072 0.5468 4 0.0014146 2 0 0.0994487 -0.0252008
331 1 7.33029 5.3575 0.0461812 4 0.00169455 2 0 0.0994487 0.0813621
325 1 8.21355 5.31419 0.694273 4 0.00306278 2 0 0.0994487 -0.0895673
326 1 7.32761 6.15925 0.754293 4 0.00243833 2 0 0.0994487 0.225745
229 1 8.20004 4.61106 1.48677 4 0.00232164 2 0 0.0994487 -0.0118252
327 1 7.39163 5.41839 1.49138 4 0.00193758 2 0 0.0994487 0.136762
328 1 8.23884 6.11028 1.49159 4 0.00416026 2 0 0.0994487 0.0187471
232 1 9.86266 4.50302 0.126324 4 0.00476555 2 0 0.0994487 0.0958765
231 1 9.07913 4.56551 0.821335 4 0.00364742 2 0 0.0994487 -0.658506
337 1 9.76329 6.23201 0.0941385 4 0.00909515 2 0 0.0994487 -0.0359461
338 1 8.99733 5.46479 0.012702 4 0.00466164 2 0 0.0994487 -0.134748
332 1 9.76796 5.3194 0.792562 4 0.00664122 2 0 0.0994487 0.328496
333 1 8.88016 6.18865 0.736908 4 0.00605 2 0 0.0994487 -0.235523
335 1 9.73844 6.19052 1.46731 4 0.00951983 2 0 0.0994487 -0.106504
238 1 11.3867 4.69403 0.230734 4 0.0115995 2 0 0.0994487 -0.0498736
237 1 10.5891 4.66652 0.906264 4 0.00787089 2 0 0.0994487 0.0451834
241 1 11.3894 5.27213 0.983682 4 0.0143216 2 0 0.0994487 -0.674402