ITEM: TIMESTEP
30000
ITEM: NUMBER OF ATOMS
9495
ITEM: BOX BOUNDS mm mm mm
0.0000000000000000e+00 4.7001446611667333e+01
-1.6245859166381016e+00 3.2344539839919548e+01
-1.9888757986554364e+01 3.1748021039364001e+01
ITEM: ATOMS id type x y z c_phase c_temp c_surf c_nbond c_visc f_3[1]
1924 1 44.4835 12.8714 -18.7503 0 3.01895 2 0 4.53999e-06 -0.149141
2149 1 43.8544 13.6209 -19.1885 0 2.9542 2 0 4.53999e-06 -0.486213
1561 1 45.4457 13.1087 -18.5051 0 3.44733 2 0 4.53999e-06 0.542169
2454 1 43.2132 14.6004 -18.9543 0 2.8859 2 0 4.53999e-06 -0.950976
2453 1 43.4906 14.3718 -19.8856 0 2.89026 2 0 4.53999e-06 -0.362299
1920 1 44.2269 14.6308 -19.311 0 2.98598 2 0 4.53999e-06 0.276032
1560 1 44.9186 13.7632 -19.2759 0 3.11443 2 0 4.53999e-06 0.38184
2101 1 43.9219 14.153 -18.3691 0 2.95856 2 0 4.53999e-06 -0.872154
1865 1 43.7789 15.1122 -18.4641 0 2.91411 2 0 4.53999e-06 -0.87264
1143 1 44.8706 14.6321 -18.6384 0 3.29462 2 0 4.53999e-06 0.513799
4521 1 45.7401 15.282 -18.7135 0 3.6354 2 0 4.53999e-06 0.530658
1196 1 45.6301 14.1031 -18.5144 0 3.50764 2 0 4.53999e-06 0.67081
2150 1 44.1123 12.3334 -17.4519 0 2.82959 2 0 4.53999e-06 -0.582816
2503 1 43.9726 13.289 -17.975 0 2.93164 2 0 4.53999e-06 -0.876106
1921 1 44.9231 12.9644 -17.6463 0 2.99891 2 0 4.53999e-06 0.144101
1562 1 45.1032 12.4105 -16.883 0 2.87557 2 0 4.53999e-06 0.23777
2105 1 44.2646 13.4307 -16.994 0 2.86075 1 0 4.53999e-06 -0.93626
3628 1 45.9869 13.5439 -17.7113 0 3.48305 2 0 4.53999e-06 0.735613
1201 1 45.5422 13.2542 -16.8609 0 3.02093 1 0 4.53999e-06 0.578972
6588 1 42.9627 15.0282 -16.5727 0 2.66193 2 0 4.54e-06 -0.9824
1870 1 43.4782 14.9913 -17.551 0 2.8192 2 0 4.53999e-06 -0.965594
1469 1 44.2669 14.4426 -17.5074 0 2.92658 1 0 4.53999e-06 -0.922827
900 1 44.8874 13.8491 -17.8807 0 3.08417 1 0 4.53999e-06 -0.0169718
2460 1 43.8207 14.3673 -16.6906 0 2.77541 2 0 4.53999e-06 -0.928533
1149 1 45.0412 13.8863 -16.5164 0 2.90546 1 0 4.53999e-06 -0.220107
8451 1 45.286 14.64 -17.624 0 3.15132 1 0 4.53999e-06 0.705694
4544 1 46.409 14.517 -18.0816 0 3.72713 2 0 4.53999e-06 0.849106
4522 1 46.814 14.0732 -17.2022 0 3.69126 2 0 4.53999e-06 0.978061
4545 1 45.7603 14.1398 -16.9268 0 3.14054 1 0 4.53999e-06 0.8855
9330 1 45.3566 15.221 -16.9283 0 3.05145 1 0 4.53999e-06 0.363353
4130 1 46.1811 14.849 -16.6604 0 3.38702 2 0 4.53999e-06 0.896086
2547 1 44.0064 11.5092 -15.5627 0 2.59995 2 0 4.54e-06 -0.693794
952 1 45.2055 11.8854 -15.5644 0 2.74053 2 0 4.53999e-06 0.296103
2151 1 44.3455 12.2968 -16.2712 0 2.74583 2 0 4.53999e-06 -0.677247
1922 1 44.6272 12.6552 -15.0672 0 2.6896 1 0 4.54e-06 -0.842468
2551 1 44.1876 13.1667 -15.9579 0 2.74596 2 0 4.53999e-06 -0.951472
2153 1 45.0974 12.876 -16.1228 0 2.83985 1 0 4.53999e-06 -0.00110421
1928 1 44.9866 13.4123 -15.5505 0 2.78151 1 0 4.53999e-06 -0.659545
1866 1 44.6062 13.6443 -14.8715 0 2.67624 1 0 4.54e-06 -0.909115
3522 1 45.555 12.7846 -15.1151 0 2.7957 1 0 4.53999e-06 0.492165
3630 1 46.0031 12.5659 -16.007 0 3.16119 2 0 4.53999e-06 0.683867
903 1 45.8142 13.518 -15.8205 0 2.93763 1 0 4.53999e-06 0.926104
4113 1 46.5338 13.428 -16.4399 0 3.39331 2 0 4.53999e-06 0.908297
4587 1 46.4634 12.7212 -14.8258 0 3.13011 2 0 4.53999e-06 0.826597
4125 1 46.1505 13.6028 -14.9095 0 2.86764 1 0 4.53999e-06 0.976774
6973 1 43.4605 14.7679 -14.9008 0 2.52738 2 0 4.54e-06 -0.993668
2457 1 44.4143 13.9912 -16.0344 0 2.76719 1 0 4.53999e-06 -0.968241
2104 1 44.0167 14.5296 -15.5477 0 2.66764 1 0 4.54e-06 -0.999651
3632 1 44.7821 14.8033 -16.3416 0 2.8477 1 0 4.53999e-06 -0.268663
3629 1 44.9004 14.3258 -15.3553 0 2.74348 1 0 4.53999e-06 -0.644022
6032 1 43.9348 15.2502 -16.2615 0 2.72688 2 0 4.53999e-06 -0.541102
7563 1 44.5425 15.2713 -15.3957 0 2.69387 2 0 4.53999e-06 -0.234421
9333 1 45.557 14.3529 -15.8783 0 2.91819 1 0 4.53999e-06 0.792115
4114 1 46.6245 14.2362 -15.7648 0 3.30863 2 0 4.53999e-06 0.995632
9222 1 46.0447 15.1544 -15.7549 0 3.19006 2 0 4.53999e-06 0.687685
3631 1 45.4005 13.9495 -14.8801 0 2.75994 1 0 4.53999e-06 0.980522
9329 1 45.5015 14.9224 -15.0151 0 2.79612 1 0 4.53999e-06 0.297829
8992 1 46.6528 14.6079 -14.8079 0 3.16265 2 0 4.53999e-06 0.969837
1008 1 44.7727 11.1506 -14.6303 0 2.56059 2 0 4.54e-06 0.276313
1195 1 43.8288 11.0166 -14.0151 0 2.4648 2 0 4.54001e-06 -0.641956
1976 1 43.8669 11.7574 -13.2293 0 2.43226 2 0 4.54002e-06 -0.888006
4325 1 44.7426 11.2763 -13.4389 0 2.50575 2 0 4.54001e-06 0.237287
1199 1 44.1187 12.0104 -14.3977 0 2.55215 2 0 4.54e-06 -0.978023
2553 1 44.3208 12.6789 -13.1039 0 2.49137 1 0 4.54001e-06 -0.900265
3519 1 45.2338 12.0512 -14.3955 0 2.64968 2 0 4.54e-06 0.338838
954 1 45.0515 12.6363 -13.7142 0 2.62734 1 0 4.54e-06 -0.418503
1148 1 45.3078 13.2599 -14.3957 0 2.70771 1 0 4.53999e-06 -0.124227
1869 1 44.7797 13.4689 -13.7248 0 2.59521 1 0 4.54e-06 -0.914404
4417 1 45.8075 12.0932 -13.3056 0 2.88558 2 0 4.53999e-06 0.54866
4520 1 45.9077 12.8627 -13.9275 0 2.76401 1 0 4.53999e-06 0.685005
3870 1 46.9054 12.9532 -13.7154 0 3.15734 2 0 4.53999e-06 0.910802
7474 1 41.7752 14.8377 -13.2164 0 2.29969 2 0 4.5401e-06 -0.695479
7202 1 42.6061 14.1952 -13.3587 0 2.31171 2 0 4.54008e-06 -0.655749
7203 1 43.5914 14.0049 -13.4639 0 2.40333 2 0 4.54003e-06 -0.788232
6604 1 43.0445 14.9586 -13.8966 0 2.3787 2 0 4.54004e-06 -0.799395
7205 1 43.9562 14.1499 -14.4122 0 2.54645 1 0 4.54e-06 -0.919114
6608 1 44.4261 14.3976 -13.2847 0 2.48251 1 0 4.54001e-06 -0.707246
1466 1 44.7739 14.1255 -14.193 0 2.61832 1 0 4.54e-06 -0.974075
7556 1 44.7289 14.8837 -14.5429 0 2.62595 1 0 4.54e-06 -0.296305
7557 1 44.7828 15.2075 -13.4012 0 2.50949 2 0 4.54001e-06 -0.0471285
6027 1 43.7522 15.2149 -13.1126 0 2.36182 2 0 4.54005e-06 -0.261161
6298 1 43.9694 15.2309 -14.1824 0 2.48868 2 0 4.54001e-06 -0.363181
8448 1 45.5589 13.7164 -13.4088 0 2.67632 1 0 4.54e-06 0.788278
9220 1 45.3442 14.4361 -13.7965 0 2.66605 1 0 4.54e-06 0.29522
4548 1 46.2433 13.6881 -13.8783 0 2.81605 1 0 4.53999e-06 0.998206
9334 1 45.9162 14.3579 -14.3837 0 2.79803 1 0 4.53999e-06 0.891991
9218 1 46.2957 14.8352 -13.6323 0 3.00238 2 0 4.53999e-06 0.735269
8739 1 46.8863 14.052 -13.2664 0 3.14939 2 0 4.53999e-06 0.926656
1253 1 43.4442 10.8628 -12.5727 0 2.33349 2 0 4.54007e-06 -0.52602
3425 1 43.7064 11.1698 -11.5975 0 2.3316 2 0 4.54007e-06 -0.313633
4630 1 44.7123 11.1801 -11.573 0 2.46364 2 0 4.54001e-06 0.303401
1010 1 44.2849 11.8417 -12.1474 0 2.43062 2 0 4.54002e-06 -0.46377
4588 1 45.3987 11.4808 -12.2735 0 2.58261 2 0 4.54e-06 0.441886
2598 1 43.3836 12.0769 -12.3656 0 2.33941 2 0 4.54006e-06 -0.963135
2599 1 43.4302 12.7003 -11.5382 0 2.29594 1 0 4.5401e-06 -0.90556
955 1 44.9229 12.0262 -12.9029 0 2.55508 1 0 4.54e-06 -0.0384822
4518 1 45.2407 13.0819 -12.9798 0 2.61402 1 0 4.54e-06 0.0562078
7204 1 44.4811 13.594 -12.8982 0 2.4868 1 0 4.54001e-06 -0.992129
2656 1 43.6672 13.0933 -12.5343 0 2.36475 2 0 4.54005e-06 -0.908573
2552 1 44.7097 13.0255 -12.1179 0 2.48227 1 0 4.54001e-06 -0.732356
4519 1 46.182 12.9723 -12.9489 0 2.78862 1 0 4.53999e-06 0.914682
901 1 45.5626 12.8772 -11.3629 0 2.57891 1 0 4.54e-06 0.731514
3520 1 45.4422 12.4319 -12.1869 0 2.61711 1 0 4.54e-06 0.495672
902 1 45.5712 13.4775 -12.289 0 2.63168 1 0 4.54e-06 0.824809
4227 1 46.3028 12.1167 -12.3869 0 2.9899 2 0 4.53999e-06 0.729108
4546 1 46.3787 12.9875 -11.849 0 2.96942 2 0 4.53999e-06 0.836073
3213 1 46.9983 13.2221 -12.6133 0 3.16878 2 0 4.53999e-06 0.969119
7373 1 41.3046 14.498 -12.2455 0 2.25423 2 0 4.54016e-06 -0.970225
7152 1 42.3509 13.9726 -12.3345 0 2.24936 2 0 4.54016e-06 -0.600548
6297 1 42.4074 14.8135 -11.8739 0 2.22177 2 0 4.54022e-06 -0.392355
7376 1 42.8505 13.8471 -11.3802 0 2.22087 1 0 4.54022e-06 -0.731782
6970 1 43.6414 13.8869 -12.031 0 2.31339 1 0 4.54008e-06 -0.844197
6908 1 43.1438 14.6056 -12.616 0 2.29347 2 0 4.5401e-06 -0.592601
6245 1 43.3954 14.7667 -11.6112 0 2.25064 2 0 4.54016e-06 -0.173843
6304 1 44.5992 13.9768 -12.1129 0 2.4322 1 0 4.54002e-06 -0.477231
4516 1 45.204 13.7553 -11.4968 0 2.50981 1 0 4.54001e-06 0.956058
7555 1 45.2665 14.2622 -12.7517 0 2.57538 1 0 4.54e-06 0.374974
8547 1 45.1681 14.9037 -11.9514 0 2.48981 2 0 4.54001e-06 0.203388
6030 1 44.1998 14.8425 -12.2415 0 2.35686 2 0 4.54005e-06 -0.12442
8944 1 46.1298 14.6574 -11.6047 0 2.91545 2 0 4.53999e-06 0.822973
9221 1 46.4256 14.0732 -12.3605 0 3.0127 2 0 4.53999e-06 0.825225
9171 1 45.7769 15.0999 -12.805 0 2.63495 2 0 4.54e-06 0.427785
2452 1 41.9154 11.7963 -10.4866 0 2.09066 2 0 4.54083e-06 -0.690322
1688 1 41.3951 11.77 -9.61612 0 2.03816 2 0 4.5414e-06 -0.800558
1685 1 42.837 11.234 -10.9613 0 2.1883 2 0 4.54031e-06 -0.45289
1259 1 42.2973 11.0286 -10.0005 0 2.09729 2 0 4.54077e-06 -0.300422
4326 1 43.2715 11.2321 -9.95648 0 2.18809 2 0 4.54031e-06 0.240237
1255 1 43.6872 11.7456 -10.8381 0 2.30676 2 0 4.54009e-06 -0.205585
4331 1 44.0072 11.817 -9.64057 0 2.43451 2 0 4.54002e-06 0.515488
4229 1 44.5563 11.5381 -10.613 0 2.57764 2 0 4.54e-06 0.494259
2201 1 42.0862 12.6029 -9.69972 0 2.08625 1 0 4.54086e-06 -0.650488
1569 1 42.823 12.0508 -10.4325 0 2.1719 2 0 4.54036e-06 -0.59543
1566 1 43.009 12.7031 -9.86125 0 2.18493 1 0 4.54032e-06 -0.499848
2548 1 42.4175 13.6377 -9.70758 0 2.12042 1 0 4.54061e-06 -0.692725
1926 1 44.4372 12.6043 -11.2518 0 2.41789 1 0 4.54002e-06 -0.165784
4420 1 45.2119 11.9882 -11.2611 0 2.72434 2 0 4.53999e-06 0.652908
6972 1 44.5366 13.5322 -11.0552 0 2.38654 1 0 4.54004e-06 0.272558
3521 1 43.6636 12.6311 -10.5364 0 2.29428 1 0 4.5401e-06 -0.596137
1923 1 44.3787 13.1183 -10.326 0 2.36751 1 0 4.54005e-06 0.587709
4591 1 44.6403 12.3269 -10.0952 0 2.58181 2 0 4.54e-06 0.680523
4547 1 45.2638 13.0539 -10.5412 0 2.48209 1 0 4.54001e-06 0.798639
6590 1 43.6879 13.5701 -10.9223 0 2.27928 1 0 4.54012e-06 -0.727439
1563 1 43.8403 13.5088 -9.84664 0 2.28142 1 0 4.54012e-06 0.642031
6905 1 41.922 13.9876 -11.0739 0 2.17585 2 0 4.54035e-06 -0.774811
6450 1 41.5541 14.9379 -11.236 0 2.18883 2 0 4.5403e-06 -0.815006
6513 1 41.7532 14.4507 -10.0653 0 2.09966 2 0 4.54075e-06 -0.938336
6240 1 42.5606 15.0586 -10.9157 0 2.16924 2 0 4.54037e-06 -0.2429
7374 1 43.1318 13.7416 -10.2135 0 2.19736 1 0 4.54028e-06 -0.669743
6907 1 42.6868 14.5864 -10.1171 0 2.1475 1 0 4.54046e-06 -0.529575
7554 1 43.5142 14.4993 -9.7478 0 2.2123 1 0 4.54024e-06 0.161468
6605 1 43.4619 14.5508 -10.6999 0 2.22851 1 0 4.5402e-06 -0.281828
6301 1 44.2482 14.3103 -11.2824 0 2.33649 1 0 4.54006e-06 -0.159315
8447 1 44.1964 14.1427 -10.3165 0 2.3157 1 0 4.54008e-06 0.326029
9123 1 44.1854 15.1055 -9.58992 0 2.26193 2 0 4.54014e-06 0.321363
9169 1 44.9809 14.7269 -9.98222 0 2.46989 2 0 4.54001e-06 0.482101
8546 1 45.149 14.5421 -10.9896 0 2.47855 1 0 4.54001e-06 0.546373
9331 1 45.0156 13.854 -10.2555 0 2.44803 1 0 4.54002e-06 0.888613
7662 1 44.3035 15.1635 -10.7202 0 2.31365 2 0 4.54008e-06 -0.0673196
8989 1 45.9146 14.0099 -10.1927 0 2.82778 2 0 4.53999e-06 0.860244
3873 1 46.265 13.6938 -11.1003 0 2.92 2 0 4.53999e-06 0.924526
9168 1 45.9487 14.9376 -10.6035 0 2.87447 2 0 4.53999e-06 0.732575
1681 1 40.384 11.7561 -8.63767 0 1.97972 2 0 4.54252e-06 -0.818694
1313 1 41.4765 11.631 -8.64097 0 2.01494 2 0 4.54177e-06 -0.337405
1011 1 42.3165 11.672 -9.32232 0 2.08329 2 0 4.54089e-06 -0.126893
4328 1 42.3888 11.828 -8.37645 0 2.05589 2 0 4.54117e-06 0.245485
4330 1 43.2093 11.8706 -9.14795 0 2.16965 2 0 4.54037e-06 0.338973
2202 1 41.2881 12.5991 -8.98276 0 2.02202 2 0 4.54165e-06 -0.806488
2208 1 40.6954 13.1855 -7.92883 0 1.9884 1 0 4.54231e-06 -0.711588
3422 1 41.1394 12.3241 -8.04036 0 1.99606 2 0 4.54214e-06 -0.565359
4416 1 41.5759 13.0264 -7.84038 0 2.03183 1 0 4.54149e-06 -0.268769
2154 1 42.0241 13.2609 -8.95725 0 2.07633 1 0 4.54095e-06 -0.770537
1257 1 41.9976 12.5876 -8.49483 0 2.05279 1 0 4.54121e-06 -0.34046
4419 1 42.8566 12.5441 -8.68241 0 2.13198 1 0 4.54054e-06 0.382653
1567 1 42.94 13.2584 -9.13333 0 2.1621 1 0 4.5404e-06 -0.0305837
4551 1 43.4213 13.1721 -8.37072 0 2.2201 1 0 4.54022e-06 0.571679
1467 1 42.5041 13.4954 -8.48169 0 2.11102 1 0 4.54067e-06 0.116908
1198 1 43.7542 12.8315 -9.37467 0 2.27683 1 0 4.54012e-06 0.58528
4515 1 44.7696 13.0735 -9.45036 0 2.58129 2 0 4.54e-06 0.760355
4228 1 43.9228 12.362 -8.58905 0 2.47363 2 0 4.54001e-06 0.545387
4549 1 44.2988 13.3675 -8.6457 0 2.5326 2 0 4.54e-06 0.771463
7151 1 40.6614 14.1571 -8.17418 0 2.00568 2 0 4.54194e-06 -0.583689
7377 1 41.6585 14.0933 -9.00693 0 2.06108 1 0 4.54111e-06 -0.818552
7472 1 41.4888 13.7601 -8.19538 0 2.04443 1 0 4.54132e-06 -0.779163
6242 1 41.3033 14.9245 -8.35141 0 2.03434 2 0 4.54146e-06 -0.234847
6237 1 40.2976 15.0315 -8.34867 0 1.98227 2 0 4.54246e-06 -0.490939
7559 1 42.253 14.9748 -9.33431 0 2.09555 2 0 4.54079e-06 -0.425563
6303 1 43.3524 13.8561 -9.25498 0 2.20691 1 0 4.54025e-06 0.769236
7558 1 42.3215 14.0645 -8.03099 0 2.10616 1 0 4.54071e-06 0.268842
6243 1 42.1739 14.6523 -8.47736 0 2.0886 1 0 4.54084e-06 -0.138418
6031 1 42.5677 14.2553 -9.17706 0 2.12466 1 0 4.54059e-06 -0.506706
9223 1 43.1961 13.976 -8.43788 0 2.19802 1 0 4.54028e-06 0.540585
8945 1 43.1709 14.7711 -8.74141 0 2.1697 1 0 4.54037e-06 0.281603
9429 1 43.1717 15.3548 -9.51854 0 2.14653 2 0 4.54047e-06 0.0248677
9224 1 44.242 14.0975 -9.29133 0 2.32733 1 0 4.54007e-06 0.684331
8600 1 44.0569 14.3996 -8.34139 0 2.52855 2 0 4.54e-06 0.556785
3872 1 45.1737 13.9494 -9.26704 0 2.67839 2 0 4.54e-06 0.754609
1684 1 40.1675 12.4388 -7.58723 0 1.94548 2 0 4.54355e-06 -0.651055
1683 1 39.12 12.1785 -6.48713 0 1.89333 2 0 4.54599e-06 -0.409835
1056 1 40.1072 12.3461 -6.64857 0 1.93753 2 0 4.54385e-06 0.039003
2205 1 39.0469 13.072 -6.41655 0 1.92686 2 0 4.54428e-06 -0.627171
1929 1 39.6896 13.4184 -6.84196 0 1.96625 1 0 4.54288e-06 -0.605039
4590 1 40.5013 13.1026 -6.4757 0 1.99936 1 0 4.54207e-06 0.455765
2655 1 40.5235 13.5179 -7.13435 0 2.00967 1 0 4.54187e-06 -0.385364
4631 1 41.1415 12.4847 -7.01922 0 1.98336 2 0 4.54243e-06 0.265348
956 1 41.2853 13.462 -7.13755 0 2.04817 1 0 4.54127e-06 0.615717
3966 1 42.042 12.3751 -7.60754 0 2.03511 2 0 4.54144e-06 0.293326
4232 1 42.6456 13.032 -7.78789 0 2.10224 1 0 4.54073e-06 0.45936
904 1 42.0359 13.6298 -7.43577 0 2.0877 1 0 4.54085e-06 0.507299
3876 1 44.2723 13.6248 -7.64491 0 2.7278 2 0 4.53999e-06 0.608266
7475 1 40.0878 13.9976 -7.4912 0 1.99057 1 0 4.54226e-06 -0.669777
7150 1 39.861 14.8219 -7.40139 0 1.98857 2 0 4.54231e-06 -0.590043
7553 1 40.2007 14.3435 -6.77501 0 2.03939 1 0 4.54138e-06 -0.251688
6968 1 39.2075 14.1302 -6.68473 0 1.96844 1 0 4.54282e-06 -0.683612
6509 1 39.337 14.9317 -6.44582 0 1.9934 2 0 4.5422e-06 -0.358374
7657 1 41.3935 14.3917 -7.50999 0 2.07402 1 0 4.54098e-06 0.321913
9172 1 40.9062 14.0029 -6.62286 0 2.09103 1 0 4.54082e-06 0.879562
8943 1 41.9007 14.1826 -6.6975 0 2.34392 2 0 4.54006e-06 0.714899
8898 1 41.0486 14.7726 -6.57806 0 2.31076 2 0 4.54009e-06 0.523345
9126 1 40.7692 15.0852 -7.40695 0 2.05261 2 0 4.54121e-06 0.0505434
3641 1 43.0956 13.8758 -7.50527 0 2.22547 2 0 4.54021e-06 0.469663
9120 1 42.4076 15.0843 -7.5892 0 2.1389 2 0 4.54051e-06 0.336192
2597 1 38.4158 12.7757 -5.70929 0 1.89142 2 0 4.5461e-06 -0.602328
3523 1 38.2996 13.3987 -5.15756 0 1.91858 1 0 4.54465e-06 -0.659962
2449 1 37.6165 13.1344 -4.66236 0 1.87982 2 0 4.54686e-06 -0.670485
4633 1 39.6911 12.8215 -5.95739 0 1.95641 1 0 4.54318e-06 0.0942554
1258 1 38.957 12.8259 -4.9972 0 1.92661 2 0 4.54429e-06 0.0972402
953 1 39.4536 13.4367 -5.47961 0 1.98412 1 0 4.54241e-06 0.231553
3922 1 39.8673 12.9314 -5.04293 0 2.04673 2 0 4.54128e-06 0.398982
1197 1 38.9168 13.6551 -5.90488 0 1.95042 1 0 4.54338e-06 -0.70202
4121 1 40.3857 13.3191 -5.66373 0 2.05211 1 0 4.54122e-06 0.664513
6591 1 38.1774 13.9541 -5.6239 0 1.93116 1 0 4.5441e-06 -0.762303
6512 1 38.3831 14.6498 -5.80512 0 1.95524 2 0 4.54322e-06 -0.526363
2652 1 37.7573 13.9828 -4.64987 0 1.92502 1 0 4.54436e-06 -0.829831
8543 1 38.3307 14.5145 -4.92794 0 1.96146 1 0 4.54302e-06 -0.240924
8838 1 38.5159 15.3465 -4.57008 0 2.05263 2 0 4.54121e-06 0.346024
6694 1 37.4083 14.876 -4.98582 0 1.95786 2 0 4.54314e-06 -0.722779
9227 1 40.12 13.8907 -6.03022 0 2.04776 1 0 4.54127e-06 0.851501
6305 1 39.3431 14.2505 -5.77605 0 1.99056 1 0 4.54226e-06 -0.192714
8544 1 40.0304 14.6957 -6.09032 0 2.07482 1 0 4.54097e-06 0.094745
1565 1 38.8732 13.7623 -4.78135 0 1.96194 1 0 4.54301e-06 0.586697
3643 1 39.739 13.8492 -4.91283 0 2.03588 1 0 4.54143e-06 0.528054
9170 1 39.2357 14.4394 -4.89399 0 2.01038 1 0 4.54185e-06 0.494828
7658 1 39.0118 14.8758 -5.45784 0 1.98865 2 0 4.5423e-06 0.0944036
3640 1 41.1092 13.7986 -5.90928 0 2.30089 2 0 4.54009e-06 0.835548
8595 1 40.4544 14.4473 -5.48512 0 2.30838 2 0 4.54009e-06 0.529643
3281 1 40.5913 13.8488 -4.89648 0 2.37804 2 0 4.54004e-06 0.639699
2199 1 37.051 12.5222 -4.20361 0 1.8359 2 0 4.55064e-06 -0.677349
1256 1 37.1047 12.0169 -3.32352 0 1.83028 2 0 4.55126e-06 -0.138031
4225 1 38.0132 12.5439 -4.06844 0 1.87917 2 0 4.5469e-06 0.246021
1260 1 36.9467 12.6666 -2.88395 0 1.85241 2 0 4.54902e-06 -0.622294
1261 1 37.4577 13.0427 -3.52831 0 1.88507 1 0 4.54651e-06 -0.524218
4418 1 37.5419 13.5117 -2.86893 0 1.9049 1 0 4.54533e-06 0.629196
2152 1 37.3941 13.6528 -3.95425 0 1.9037 1 0 4.5454e-06 -0.896824
4424 1 38.2132 12.9518 -3.19278 0 2.09252 2 0 4.54081e-06 0.724221
4593 1 38.4572 13.2339 -4.29664 0 1.927 1 0 4.54427e-06 0.493606
4124 1 38.2073 13.6216 -3.63113 0 1.9419 1 0 4.54368e-06 0.763439
6974 1 36.8725 14.7397 -4.01987 0 1.95234 2 0 4.54331e-06 -0.839906
6606 1 36.5518 14.7451 -3.04475 0 1.95966 1 0 4.54308e-06 -0.873908
8450 1 37.1676 14.0871 -2.95193 0 1.91835 1 0 4.54466e-06 -0.836245
6302 1 37.289 14.3256 -3.68372 0 1.94119 1 0 4.54371e-06 -0.912303
9226 1 38.0136 14.2594 -3.23634 0 1.97263 1 0 4.54271e-06 0.829817
8946 1 38.3666 14.2187 -4.16018 0 1.96826 1 0 4.54283e-06 0.776404
8897 1 38.2832 14.9839 -3.51309 0 2.08466 1 0 4.54088e-06 0.780044
7656 1 37.7788 14.8812 -4.211 0 1.98313 1 0 4.54243e-06 -0.0762745
8497 1 37.362 15.0884 -2.97146 0 2.03746 1 0 4.54141e-06 0.449676
3874 1 39.1224 13.8973 -3.71373 0 2.21688 2 0 4.54023e-06 0.806152
8317 1 39.2005 15.2727 -2.82444 0 3.10494 2 0 4.53999e-06 0.993868
1789 1 36.049 10.0253 -1.42159 0 1.88737 2 0 4.54635e-06 0.0626911
1973 1 35.5984 10.961 -2.45741 0 1.81673 2 0 4.55289e-06 -0.513852
2022 1 35.5314 10.8114 -1.45226 0 1.83621 2 0 4.55061e-06 -0.837516
1013 1 36.4681 10.7656 -1.34369 0 1.89336 2 0 4.54599e-06 0.433052
2212 1 36.1111 11.5611 -2.07958 0 1.82586 2 0 4.55177e-06 -0.621439
4333 1 36.7807 11.4804 -1.42394 0 1.91521 2 0 4.54482e-06 0.57844
4324 1 36.96 11.884 -2.24601 0 1.84843 2 0 4.54939e-06 0.329971
2600 1 36.2604 12.4581 -2.23152 0 1.82189 2 0 4.55225e-06 -0.900144
1691 1 36.8782 13.2491 -2.32741 0 1.86128 1 0 4.54826e-06 -0.735096
4415 1 36.7809 12.7487 -1.68339 0 1.84419 1 0 4.5498e-06 -0.689491
4231 1 36.9373 12.1921 -1.17245 0 1.85376 1 0 4.5489e-06 0.853617
3967 1 37.5794 12.3499 -1.99457 0 2.04522 2 0 4.54131e-06 0.875837
3970 1 37.6822 13.1446 -1.90818 0 1.89483 1 0 4.5459e-06 0.962498
2456 1 35.7848 14.4601 -2.15303 0 1.86573 2 0 4.5479e-06 -0.927286
2458 1 36.3401 13.788 -2.08865 0 1.85668 1 0 4.54865e-06 -0.87418
9225 1 36.5794 14.1533 -1.18954 0 1.8755 1 0 4.54716e-06 -0.996241
8442 1 36.365 14.7376 -1.4219 0 1.91745 1 0 4.5447e-06 -0.986232
8263 1 36.8934 14.8563 -2.11669 0 1.97927 1 0 4.54253e-06 0.0193682
9427 1 36.0386 15.316 -1.67734 0 1.96752 1 0 4.54285e-06 -0.999921
8444 1 36.9642 14.1966 -2.24863 0 1.92347 1 0 4.54443e-06 -0.372985
8500 1 37.7756 14.6445 -2.46489 0 2.03529 1 0 4.54144e-06 0.953047
4116 1 36.9639 13.6655 -1.39237 0 1.87565 1 0 4.54715e-06 0.559631
3692 1 37.9641 13.7844 -1.45251 0 2.13395 2 0 4.54053e-06 0.993162
8990 1 37.4134 14.46 -1.49358 0 1.97658 1 0 4.5426e-06 0.991217
8684 1 37.7078 15.2371 -1.31265 0 2.20553 1 0 4.54026e-06 0.984209
3212 1 38.7895 15.2852 -1.0689 0 3.02781 2 0 4.53999e-06 0.864635
5 1 0.729896 0.0633724 0.61602 4 1.03954e-05 3 0 0.0994487 -0.190374
64 1 19.5372 0.0167772 0.662766 4 0.158066 2 0 0.0994487 0.0434115
1 1 0.116341 1.10259 0.464337 4 1.15011e-05 2 0 0.0994487 -0.68194
9 1 2.52093 0.749102 0.203812 4 3.42023e-05 2 0 0.0994487 -0.142938
7 1 1.80059 1.47468 0.221075 4 2.71522e-05 2 0 0.0994487 -0.125828
20 1 3.47612 0.111428 0.171027 4 4.69732e-05 2 0 0.0994487 0.166216
16 1 4.10576 0.858321 0.325305 4 9.43235e-05 2 0 0.0994487 0.153149
18 1 4.91949 1.59987 0.383508 4 0.000200579 2 0 0.0994487 -0.100243
21 1 5.64741 0.645627 0.325839 4 0.00024903 2 0 0.0994487 -0.0806011
23 1 6.57478 1.39104 0.218369 4 0.000481386 2 0 0.0994487 -0.0861279
32 1 7.58247 0.647807 0.140287 4 0.000683449 2 0 0.0994487 -0.110931
30 1 8.24709 1.39092 0.236779 4 0.00110071 2 0 0.0994487 -0.0460559
33 1 8.85849 0.508506 0.273966 4 0.00119333 2 0 0.0994487 -0.0616396
37 1 9.63995 1.37474 0.0900752 4 0.00195471 2 0 0.0994487 0.0992986
38 1 11.2128 0.215893 0.632658 4 0.00335477 2 0 0.0994487 0.203517
43 1 10.2431 0.367861 0.0780499 4 0.00195945 2 0 0.0994487 0.149807
44 1 12.8757 0.211714 0.636805 4 0.00798828 2 0 0.0994487 0.058802
45 1 12.0457 1.07408 0.506655 4 0.00659791 2 0 0.0994487 -0.0235322
59 1 15.1049 0.711806 0.0677822 4 0.0226838 2 0 0.0994487 0.169212
48 1 14.3729 0.318493 0.764646 4 0.0168987 2 0 0.0994487 -0.0460248
50 1 14.0399 1.55958 0.167469 4 0.0195937 2 0 0.0994487 -0.0898107
53 1 14.8761 1.55337 0.662943 4 0.0281008 2 0 0.0994487 0.38999
55 1 16.5532 1.54451 0.681338 4 0.0713949 2 0 0.0994487 0.000530623
60 1 17.2544 0.732268 0.547589 4 0.0804978 2 0 0.0994487 0.0286578
61 1 17.9231 1.58109 0.757246 4 0.134135 2 0 0.0994487 0.0422552
65 1 18.7918 0.725074 0.684829 4 0.154503 2 0 0.0994487 -0.270095
73 1 21.1874 0.765598 0.218806 0 0.256478 2 0 0.0994121 -0.0446198
74 1 20.3457 1.51479 0.193617 4 0.242445 2 0 0.0994487 -0.0805695
75 1 22.0087 0.262534 0.539755 0 0.290607 2 0 0.0991742 0.0987978
78 1 21.9982 1.59955 0.538558 0 0.332928 2 0 0.0987424 0.182951
79 1 22.9157 1.07463 0.445168 0 0.356553 2 0 0.0984105 0.0518714
81 1 23.5672 0.357563 0.57369 0 0.368752 2 0 0.0982066 0.0366106
84 1 24.955 0.315686 0.551996 0 0.422794 2 0 0.0969451 -0.0170313
82 1 24.4367 1.18687 0.754729 0 0.455776 2 0 0.0957818 -0.0188749
93 1 26.7925 0.240345 0.226621 0 0.426406 2 0 0.096835 0.0384259
88 1 25.8917 0.929212 0.432102 0 0.467318 2 0 0.0952808 -0.0947037
89 1 27.5736 1.28032 0.38906 0 0.484278 2 0 0.0944382 0.0454692
98 1 29.2734 0.3547 0.615275 0 0.344702 2 0 0.0985868 -0.0816496
94 1 28.6489 1.24263 0.742341 0 0.463213 2 0 0.0954656 0.102025
100 1 30.7016 0.49015 0.470738 0 0.264345 2 0 0.0993643 0.354842
103 1 1.11081 2.43607 0.129285 4 2.33457e-05 2 0 0.0994487 -0.0373216
108 1 0.332248 3.09582 0.131296 4 2.12948e-05 2 0 0.0994487 -0.59134
113 1 2.7261 2.38168 0.0557193 4 5.33732e-05 2 0 0.0994487 0.146601
115 1 4.00679 1.841 0.711184 4 0.000120552 2 0 0.0994487 -0.0361175
117 1 4.20148 3.3175 0.749446 4 0.000221901 2 0 0.0994487 0.00621987
119 1 5.65047 2.44269 0.132743 4 0.000385294 2 0 0.0994487 -0.189922
124 1 6.65033 2.92778 0.134227 4 0.000721313 2 0 0.0994487 0.0288918
125 1 7.45405 2.22586 0.139832 4 0.000939399 2 0 0.0994487 -0.0534957
130 1 8.26934 2.9712 0.0392146 4 0.00185046 2 0 0.0994487 -0.150612
131 1 8.90393 2.08699 0.252387 4 0.00182933 2 0 0.0994487 0.00244309
135 1 9.56096 2.90576 0.21312 4 0.00325927 2 0 0.0994487 0.173129
136 1 10.2834 2.1137 0.214297 4 0.00323304 2 0 0.0994487 0.337747
140 1 12.6737 1.94118 0.593851 4 0.0120479 2 0 0.0994487 -0.283903
152 1 13.4137 2.29398 0.0590902 4 0.0186882 2 0 0.0994487 -0.280948
141 1 11.928 2.64099 0.742299 4 0.010165 2 0 0.0994487 -0.0386417
150 1 14.8418 2.51505 0.136557 4 0.0365791 2 0 0.0994487 0.173024
151 1 14.1591 3.2262 0.0325348 4 0.0344508 2 0 0.0994487 -0.246089
153 1 15.6993 2.44373 0.692668 4 0.0581103 2 0 0.0994487 0.363295
157 1 15.5706 3.25854 0.0192499 4 0.0598086 2 0 0.0994487 0.290255
154 1 16.3029 3.20095 0.662084 4 0.0949989 2 0 0.0994487 0.326701
158 1 17.0646 2.35032 0.682778 4 0.113027 2 0 0.0994487 0.0227361
159 1 17.944 2.92608 0.699539 4 0.183698 2 0 0.0994487 -0.229693
165 1 19.587 2.34239 0.101452 4 0.234048 2 0 0.0994487 -0.132378
164 1 18.884 2.99607 0.196019 4 0.224549 2 0 0.0994487 -0.17181
167 1 21.1565 2.41663 0.458355 0 0.32332 2 0 0.0988568 0.190907
170 1 20.4222 2.99313 0.334941 0 0.299233 2 0 0.0991001 0.185218
172 1 22.9717 2.60199 0.735523 0 0.455496 2 0 0.0957929 0.135652
174 1 21.9898 3.20043 0.598797 0 0.423295 2 0 0.0969295 -0.0725702
175 1 22.6771 3.40124 0.07601 0 0.454566 2 0 0.0958308 0.0759639
176 1 23.7438 1.80844 0.624025 0 0.449206 2 0 0.0960434 -0.0880664
183 1 25.1322 1.85613 0.509414 0 0.508056 2 0 0.0930083 -0.0218396
181 1 24.9562 2.84566 0.0146836 0 0.537181 2 0 0.0907779 -0.0864984
182 1 26.5483 1.79415 0.511367 0 0.522871 2 0 0.0919473 -0.00309679
184 1 25.7918 2.61203 0.707489 0 0.580035 2 0 0.0862644 0.208642
190 1 28.2489 2.09022 0.343734 0 0.52231 2 0 0.0919905 -0.0175836
191 1 27.0867 2.6924 0.645359 0 0.59246 2 0 0.0846228 -0.103129
194 1 27.982 3.21993 0.326384 0 0.617851 2 0 0.0807194 -0.124688
197 1 29.1956 2.6589 0.290703 0 0.545304 2 0 0.0900468 -0.0576234
203 1 30.1092 3.25953 0.132205 0 0.564216 2 0 0.0881274 -0.044368
204 1 30.4116 1.90909 0.0255368 0 0.406219 2 0 0.0974045 0.106034
205 1 31.1434 2.66402 0.0761253 0 0.465278 2 0 0.0953737 0.708813
210 1 1.04069 3.86421 0.0595682 4 3.5395e-05 2 0 0.0994487 0.0148879
207 1 0.143046 4.59443 0.482118 4 3.20037e-05 2 0 0.0994487 -0.784494
213 1 2.64953 4.14475 0.20674 4 0.000112132 2 0 0.0994487 -0.0285716
214 1 1.89758 4.96895 0.278386 4 9.03819e-05 2 0 0.0994487 -0.153433
219 1 4.26027 4.18509 0.149001 4 0.000302458 2 0 0.0994487 0.0377396
220 1 5.00947 4.74001 0.341082 4 0.00057063 2 0 0.0994487 0.0765419
215 1 3.40771 4.86189 0.161635 4 0.000220508 2 0 0.0994487 -0.0163874
221 1 5.77735 3.9378 0.198707 4 0.000639521 2 0 0.0994487 0.0260189
226 1 8.1982 3.892 0.700757 4 0.00262065 2 0 0.0994487 -0.369885
227 1 7.40842 4.46072 0.5468 4 0.00208556 2 0 0.0994487 -0.025205
235 1 8.98541 3.86821 0.0631775 4 0.003682 2 0 0.0994487 -0.138748
232 1 9.86266 4.50302 0.126324 4 0.00670182 2 0 0.0994487 0.0958741
242 1 10.5826 3.84888 0.176129 4 0.00766958 2 0 0.0994487 0.210475
238 1 11.3867 4.69403 0.230734 4 0.0157864 2 0 0.0994487 -0.049876
247 1 12.6435 4.61885 0.0632315 4 0.0275065 2 0 0.0994487 -0.0335616
254 1 14.961 4.19423 0.096508 4 0.06291 2 0 0.0994487 0.0322991
248 1 13.9891 4.12825 0.69648 4 0.0434467 2 0 0.0994487 -0.430102
253 1 14.1405 4.90647 0.0597868 4 0.0557386 2 0 0.0994487 -0.0856646
256 1 15.8798 4.77595 0.186426 4 0.107383 2 0 0.0994487 0.165433
264 1 18.1348 3.8547 0.0583493 4 0.207829 2 0 0.0994487 -0.120514
263 1 17.4569 4.57727 0.0147963 4 0.188057 2 0 0.0994487 -0.0973932
269 1 19.5987 3.76722 0.227421 0 0.280155 2 0 0.0992557 0.164126
266 1 18.8235 4.60949 0.361826 0 0.272692 2 0 0.099309 0.115616
274 1 20.1339 4.78559 0.352846 0 0.364135 2 0 0.0982864 0.142989
273 1 21.0824 3.93136 0.512408 0 0.393922 2 0 0.0977001 0.0831816
278 1 22.6119 4.34705 0.510028 0 0.524676 2 0 0.0918067 -0.0221482
283 1 23.5518 5.06386 0.533607 0 0.636221 2 0 0.0773895 -0.0850541
280 1 24.336 4.32055 0.625018 0 0.638789 2 0 0.0768891 -0.128735
188 1 26.1686 3.50068 0.599043 0 0.643235 2 0 0.0760019 0.163373
290 1 25.5284 4.40089 0.388179 0 0.676737 2 0 0.068421 0.0535846
289 1 26.5026 4.97257 0.640732 0 0.746004 2 0 0.0481471 0.0903616
294 1 27.0674 4.04323 0.570038 0 0.690431 2 0 0.064872 0.0150068
293 1 28.2771 4.73475 0.706344 0 0.765161 2 0 0.041823 -0.0814292
295 1 28.9321 3.77016 0.487204 0 0.669353 2 0 0.0702313 -0.0043583
299 1 30.2046 4.67765 0.491317 0 0.766459 2 0 0.0413964 0.013129
298 1 31.0296 3.97382 0.373364 0 0.66333 2 0 0.0716505 0.656531
301 1 0.908283 5.53205 0.461647 4 6.13308e-05 2 0 0.0994487 -0.463785
307 1 1.89588 6.19966 0.519025 4 0.00012762 2 0 0.0994487 -0.1564
311 1 2.68177 5.61289 0.273587 4 0.000174429 2 0 0.0994487 -0.0596855
313 1 4.18979 5.46246 0.325783 4 0.000441518 2 0 0.0994487 0.0310181
316 1 4.82567 6.23357 0.333842 4 0.000849407 2 0 0.0994487 -0.034576
312 1 3.39503 6.28191 0.500536 4 0.000351835 2 0 0.0994487 -0.121445
319 1 5.78575 5.42185 0.301847 4 0.00113737 2 0 0.0994487 0.0125033
323 1 6.37773 6.04115 0.154639 4 0.00181669 2 0 0.0994487 0.111114
325 1 8.21355 5.31419 0.694273 4 0.00439823 2 0 0.0994487 -0.0895784
331 1 7.33029 5.3575 0.0461812 4 0.00249551 2 0 0.0994487 0.0813596
326 1 7.32761 6.15925 0.754293 4 0.00355306 2 0 0.0994487 0.225735
329 1 8.01352 6.85364 0.728993 4 0.00683323 2 0 0.0994487 0.0691871
337 1 9.76329 6.23201 0.0941385 4 0.0125639 2 0 0.0994487 -0.0359501
338 1 8.99733 5.46479 0.012702 4 0.00659761 2 0 0.0994487 -0.13475
333 1 8.88016 6.18865 0.736908 4 0.00850168 2 0 0.0994487 -0.235535
340 1 11.3128 6.37134 0.0776634 4 0.024047 2 0 0.0994487 0.100354
343 1 11.9994 5.6274 0.183157 4 0.0262491 2 0 0.0994487 -0.0105109
348 1 13.3212 5.53867 0.0424813 4 0.0466015 2 0 0.0994487 -0.142885
352 1 15.0282 5.64393 0.034369 4 0.0920727 2 0 0.0994487 0.0574014
351 1 14.1303 6.38483 0.0380077 4 0.0784872 2 0 0.0994487 -0.0825818
357 1 16.62 5.41933 0.276819 4 0.163227 2 0 0.0994487 0.0798563
358 1 15.6753 6.3382 0.0390223 4 0.135707 2 0 0.0994487 0.0398848
359 1 17.8271 5.30128 0.541411 4 0.24037 2 0 0.0994487 0.149141
364 1 18.3714 6.23173 0.609762 0 0.312328 2 0 0.098975 0.151994
361 1 17.0619 6.27419 0.411469 4 0.218352 2 0 0.0994487 0.137315
365 1 19.429 5.75829 0.62055 0 0.373962 2 0 0.0981114 0.0411683
367 1 19.9942 6.75229 0.610261 0 0.461278 2 0 0.0955488 -0.00933088
373 1 21.6904 5.73259 0.0517844 0 0.527913 2 0 0.0915509 -0.00162204
368 1 20.7494 5.77593 0.653722 0 0.47891 2 0 0.0947182 -0.0796228
371 1 21.6592 6.66248 0.666524 0 0.593365 2 0 0.0844939 -0.0445846
374 1 22.6732 5.8279 0.674154 0 0.624567 2 0 0.0795509 0.000492423
376 1 23.3484 6.78052 0.267835 0 0.706759 2 0 0.0603095 -0.125284
282 1 24.8518 5.25716 0.566763 0 0.712598 2 0 0.0585994 0.0417891
379 1 24.1457 6.00685 0.427617 0 0.717678 2 0 0.0570785 0.00249594
382 1 25.1593 6.74159 0.495153 0 0.797626 2 0 0.0311242 0.0907658