ITEM: TIMESTEP
0
ITEM: NUMBER OF ATOMS
8000
ITEM: BOX BOUNDS pp pp pp
0.0000000000000000e+00 3.1748021039364001e+01
0.0000000000000000e+00 1.5874010519682001e+01
0.0000000000000000e+00 1.5874010519682001e+01
ITEM: ATOMS id x y z vx vy vz c_rho_peratom
1 0 0 0 0 0 0 1
2 0.793701 0.793701 0 0 0.00156434 0 1
3 0.793701 0 0.793701 0 0.00156434 0 1
4 0 0.793701 0.793701 0 0 0 1
5 1.5874 0 0 0 0.00309017 0 1
8 1.5874 0.793701 0.793701 0 0.00309017 0 1
43 0 1.5874 0 0 0 0 1
45 0.793701 1.5874 0.793701 0 0.00156434 0 1
47 1.5874 1.5874 0 0 0.00309017 0 1
421 0 0 1.5874 0 0 0 1
422 0.793701 0.793701 1.5874 0 0.00156434 0 1
425 1.5874 0 1.5874 0 0.00309017 0 1
463 0 1.5874 1.5874 0 0 0 1
467 1.5874 1.5874 1.5874 0 0.00309017 0 1
6 2.3811 0.793701 0 0 0.0045399 0 1
7 2.3811 0 0.793701 0 0.0045399 0 1
9 3.1748 0 0 0 0.00587785 0 1
12 3.1748 0.793701 0.793701 0 0.00587785 0 1
49 2.3811 1.5874 0.793701 0 0.0045399 0 1
51 3.1748 1.5874 0 0 0.00587785 0 1
426 2.3811 0.793701 1.5874 0 0.0045399 0 1
429 3.1748 0 1.5874 0 0.00587785 0 1
471 3.1748 1.5874 1.5874 0 0.00587785 0 1
10 3.9685 0.793701 0 0 0.00707107 0 1
11 3.9685 0 0.793701 0 0.00707107 0 1
13 4.7622 0 0 0 0.00809017 0 1
16 4.7622 0.793701 0.793701 0 0.00809017 0 1
53 3.9685 1.5874 0.793701 0 0.00707107 0 1
55 4.7622 1.5874 0 0 0.00809017 0 1
430 3.9685 0.793701 1.5874 0 0.00707107 0 1
433 4.7622 0 1.5874 0 0.00809017 0 1
475 4.7622 1.5874 1.5874 0 0.00809017 0 1
14 5.5559 0.793701 0 0 0.00891007 0 1
15 5.5559 0 0.793701 0 0.00891007 0 1
17 6.3496 0 0 0 0.00951057 0 1
20 6.3496 0.793701 0.793701 0 0.00951057 0 1
57 5.5559 1.5874 0.793701 0 0.00891007 0 1
59 6.3496 1.5874 0 0 0.00951057 0 1
434 5.5559 0.793701 1.5874 0 0.00891007 0 1
437 6.3496 0 1.5874 0 0.00951057 0 1
479 6.3496 1.5874 1.5874 0 0.00951057 0 1
18 7.1433 0.793701 0 0 0.00987688 0 1
19 7.1433 0 0.793701 0 0.00987688 0 1
21 7.93701 0 0 0 0.01 0 1
22 8.73071 0.793701 0 0 0.00987688 0 1
23 8.73071 0 0.793701 0 0.00987688 0 1
24 7.93701 0.793701 0.793701 0 0.01 0 1
61 7.1433 1.5874 0.793701 0 0.00987688 0 1
63 7.93701 1.5874 0 0 0.01 0 1
65 8.73071 1.5874 0.793701 0 0.00987688 0 1
438 7.1433 0.793701 1.5874 0 0.00987688 0 1
441 7.93701 0 1.5874 0 0.01 0 1
442 8.73071 0.793701 1.5874 0 0.00987688 0 1
483 7.93701 1.5874 1.5874 0 0.01 0 1
25 9.52441 0 0 0 0.00951057 0 1
26 10.3181 0.793701 0 0 0.00891007 0 1
27 10.3181 0 0.793701 0 0.00891007 0 1
28 9.52441 0.793701 0.793701 0 0.00951057 0 1
67 9.52441 1.5874 0 0 0.00951057 0 1
69 10.3181 1.5874 0.793701 0 0.00891007 0 1
445 9.52441 0 1.5874 0 0.00951057 0 1
446 10.3181 0.793701 1.5874 0 0.00891007 0 1
487 9.52441 1.5874 1.5874 0 0.00951057 0 1
29 11.1118 0 0 0 0.00809017 0 1
30 11.9055 0.793701 0 0 0.00707107 0 1
31 11.9055 0 0.793701 0 0.00707107 0 1
32 11.1118 0.793701 0.793701 0 0.00809017 0 1
71 11.1118 1.5874 0 0 0.00809017 0 1
73 11.9055 1.5874 0.793701 0 0.00707107 0 1
449 11.1118 0 1.5874 0 0.00809017 0 1
450 11.9055 0.793701 1.5874 0 0.00707107 0 1
491 11.1118 1.5874 1.5874 0 0.00809017 0 1
33 12.6992 0 0 0 0.00587785 0 1
34 13.4929 0.793701 0 0 0.0045399 0 1
35 13.4929 0 0.793701 0 0.0045399 0 1
36 12.6992 0.793701 0.793701 0 0.00587785 0 1
75 12.6992 1.5874 0 0 0.00587785 0 1
77 13.4929 1.5874 0.793701 0 0.0045399 0 1
453 12.6992 0 1.5874 0 0.00587785 0 1
454 13.4929 0.793701 1.5874 0 0.0045399 0 1
495 12.6992 1.5874 1.5874 0 0.00587785 0 1
37 14.2866 0 0 0 0.00309017 0 1
38 15.0803 0.793701 0 0 0.00156434 0 1
39 15.0803 0 0.793701 0 0.00156434 0 1
40 14.2866 0.793701 0.793701 0 0.00309017 0 1
41 15.874 0 0 0 1.45473e-17 0 1
42 15.874 0.793701 0.793701 0 1.45473e-17 0 1
79 14.2866 1.5874 0 0 0.00309017 0 1
81 15.0803 1.5874 0.793701 0 0.00156434 0 1
83 15.874 1.5874 0 0 1.45473e-17 0 1
457 14.2866 0 1.5874 0 0.00309017 0 1
458 15.0803 0.793701 1.5874 0 0.00156434 0 1
461 15.874 0 1.5874 0 1.45473e-17 0 1
499 14.2866 1.5874 1.5874 0 0.00309017 0 1
503 15.874 1.5874 1.5874 0 1.45473e-17 0 1
44 0.793701 2.3811 0 0 0.00156434 0 1
46 0 2.3811 0.793701 0 0 0 1
50 1.5874 2.3811 0.793701 0 0.00309017 0 1
85 0 3.1748 0 0 0 0 1
87 0.793701 3.1748 0.793701 0 0.00156434 0 1
89 1.5874 3.1748 0 0 0.00309017 0 1
464 0.793701 2.3811 1.5874 0 0.00156434 0 1
505 0 3.1748 1.5874 0 0 0 1
509 1.5874 3.1748 1.5874 0 0.00309017 0 1
48 2.3811 2.3811 0 0 0.0045399 0 1
54 3.1748 2.3811 0.793701 0 0.00587785 0 1
91 2.3811 3.1748 0.793701 0 0.0045399 0 1
93 3.1748 3.1748 0 0 0.00587785 0 1
468 2.3811 2.3811 1.5874 0 0.0045399 0 1
513 3.1748 3.1748 1.5874 0 0.00587785 0 1
52 3.9685 2.3811 0 0 0.00707107 0 1
58 4.7622 2.3811 0.793701 0 0.00809017 0 1
95 3.9685 3.1748 0.793701 0 0.00707107 0 1
97 4.7622 3.1748 0 0 0.00809017 0 1
472 3.9685 2.3811 1.5874 0 0.00707107 0 1
517 4.7622 3.1748 1.5874 0 0.00809017 0 1
56 5.5559 2.3811 0 0 0.00891007 0 1
62 6.3496 2.3811 0.793701 0 0.00951057 0 1
99 5.5559 3.1748 0.793701 0 0.00891007 0 1
101 6.3496 3.1748 0 0 0.00951057 0 1
476 5.5559 2.3811 1.5874 0 0.00891007 0 1
521 6.3496 3.1748 1.5874 0 0.00951057 0 1
60 7.1433 2.3811 0 0 0.00987688 0 1
64 8.73071 2.3811 0 0 0.00987688 0 1
66 7.93701 2.3811 0.793701 0 0.01 0 1
103 7.1433 3.1748 0.793701 0 0.00987688 0 1
105 7.93701 3.1748 0 0 0.01 0 1
107 8.73071 3.1748 0.793701 0 0.00987688 0 1
480 7.1433 2.3811 1.5874 0 0.00987688 0 1
484 8.73071 2.3811 1.5874 0 0.00987688 0 1
525 7.93701 3.1748 1.5874 0 0.01 0 1
68 10.3181 2.3811 0 0 0.00891007 0 1
70 9.52441 2.3811 0.793701 0 0.00951057 0 1
109 9.52441 3.1748 0 0 0.00951057 0 1
111 10.3181 3.1748 0.793701 0 0.00891007 0 1
488 10.3181 2.3811 1.5874 0 0.00891007 0 1
529 9.52441 3.1748 1.5874 0 0.00951057 0 1
72 11.9055 2.3811 0 0 0.00707107 0 1
74 11.1118 2.3811 0.793701 0 0.00809017 0 1
113 11.1118 3.1748 0 0 0.00809017 0 1
115 11.9055 3.1748 0.793701 0 0.00707107 0 1
492 11.9055 2.3811 1.5874 0 0.00707107 0 1
533 11.1118 3.1748 1.5874 0 0.00809017 0 1
76 13.4929 2.3811 0 0 0.0045399 0 1
78 12.6992 2.3811 0.793701 0 0.00587785 0 1
117 12.6992 3.1748 0 0 0.00587785 0 1
119 13.4929 3.1748 0.793701 0 0.0045399 0 1
496 13.4929 2.3811 1.5874 0 0.0045399 0 1
537 12.6992 3.1748 1.5874 0 0.00587785 0 1
80 15.0803 2.3811 0 0 0.00156434 0 1
82 14.2866 2.3811 0.793701 0 0.00309017 0 1
84 15.874 2.3811 0.793701 0 1.45473e-17 0 1
121 14.2866 3.1748 0 0 0.00309017 0 1
123 15.0803 3.1748 0.793701 0 0.00156434 0 1
125 15.874 3.1748 0 0 1.45473e-17 0 1
500 15.0803 2.3811 1.5874 0 0.00156434 0 1
541 14.2866 3.1748 1.5874 0 0.00309017 0 1
545 15.874 3.1748 1.5874 0 1.45473e-17 0 1
86 0.793701 3.9685 0 0 0.00156434 0 1
88 0 3.9685 0.793701 0 0 0 1
92 1.5874 3.9685 0.793701 0 0.00309017 0 1
127 0 4.7622 0 0 0 0 1
129 0.793701 4.7622 0.793701 0 0.00156434 0 1
131 1.5874 4.7622 0 0 0.00309017 0 1
506 0.793701 3.9685 1.5874 0 0.00156434 0 1
547 0 4.7622 1.5874 0 0 0 1
551 1.5874 4.7622 1.5874 0 0.00309017 0 1
90 2.3811 3.9685 0 0 0.0045399 0 1
96 3.1748 3.9685 0.793701 0 0.00587785 0 1
133 2.3811 4.7622 0.793701 0 0.0045399 0 1
135 3.1748 4.7622 0 0 0.00587785 0 1
510 2.3811 3.9685 1.5874 0 0.0045399 0 1
555 3.1748 4.7622 1.5874 0 0.00587785 0 1
94 3.9685 3.9685 0 0 0.00707107 0 1
100 4.7622 3.9685 0.793701 0 0.00809017 0 1
137 3.9685 4.7622 0.793701 0 0.00707107 0 1
139 4.7622 4.7622 0 0 0.00809017 0 1
514 3.9685 3.9685 1.5874 0 0.00707107 0 1
559 4.7622 4.7622 1.5874 0 0.00809017 0 1
98 5.5559 3.9685 0 0 0.00891007 0 1
104 6.3496 3.9685 0.793701 0 0.00951057 0 1
141 5.5559 4.7622 0.793701 0 0.00891007 0 1
143 6.3496 4.7622 0 0 0.00951057 0 1
518 5.5559 3.9685 1.5874 0 0.00891007 0 1
563 6.3496 4.7622 1.5874 0 0.00951057 0 1
102 7.1433 3.9685 0 0 0.00987688 0 1
106 8.73071 3.9685 0 0 0.00987688 0 1
108 7.93701 3.9685 0.793701 0 0.01 0 1
145 7.1433 4.7622 0.793701 0 0.00987688 0 1
147 7.93701 4.7622 0 0 0.01 0 1
149 8.73071 4.7622 0.793701 0 0.00987688 0 1
522 7.1433 3.9685 1.5874 0 0.00987688 0 1
526 8.73071 3.9685 1.5874 0 0.00987688 0 1
567 7.93701 4.7622 1.5874 0 0.01 0 1
110 10.3181 3.9685 0 0 0.00891007 0 1
112 9.52441 3.9685 0.793701 0 0.00951057 0 1
151 9.52441 4.7622 0 0 0.00951057 0 1
153 10.3181 4.7622 0.793701 0 0.00891007 0 1
530 10.3181 3.9685 1.5874 0 0.00891007 0 1
571 9.52441 4.7622 1.5874 0 0.00951057 0 1
114 11.9055 3.9685 0 0 0.00707107 0 1
116 11.1118 3.9685 0.793701 0 0.00809017 0 1
155 11.1118 4.7622 0 0 0.00809017 0 1
157 11.9055 4.7622 0.793701 0 0.00707107 0 1
534 11.9055 3.9685 1.5874 0 0.00707107 0 1
575 11.1118 4.7622 1.5874 0 0.00809017 0 1
118 13.4929 3.9685 0 0 0.0045399 0 1
120 12.6992 3.9685 0.793701 0 0.00587785 0 1
159 12.6992 4.7622 0 0 0.00587785 0 1
161 13.4929 4.7622 0.793701 0 0.0045399 0 1
538 13.4929 3.9685 1.5874 0 0.0045399 0 1
579 12.6992 4.7622 1.5874 0 0.00587785 0 1
122 15.0803 3.9685 0 0 0.00156434 0 1
124 14.2866 3.9685 0.793701 0 0.00309017 0 1
126 15.874 3.9685 0.793701 0 1.45473e-17 0 1
163 14.2866 4.7622 0 0 0.00309017 0 1
165 15.0803 4.7622 0.793701 0 0.00156434 0 1
167 15.874 4.7622 0 0 1.45473e-17 0 1
542 15.0803 3.9685 1.5874 0 0.00156434 0 1
583 14.2866 4.7622 1.5874 0 0.00309017 0 1
587 15.874 4.7622 1.5874 0 1.45473e-17 0 1
128 0.793701 5.5559 0 0 0.00156434 0 1
130 0 5.5559 0.793701 0 0 0 1
134 1.5874 5.5559 0.793701 0 0.00309017 0 1
169 0 6.3496 0 0 0 0 1
171 0.793701 6.3496 0.793701 0 0.00156434 0 1
173 1.5874 6.3496 0 0 0.00309017 0 1
548 0.793701 5.5559 1.5874 0 0.00156434 0 1
589 0 6.3496 1.5874 0 0 0 1
593 1.5874 6.3496 1.5874 0 0.00309017 0 1
132 2.3811 5.5559 0 0 0.0045399 0 1
138 3.1748 5.5559 0.793701 0 0.00587785 0 1
175 2.3811 6.3496 0.793701 0 0.0045399 0 1
177 3.1748 6.3496 0 0 0.00587785 0 1
552 2.3811 5.5559 1.5874 0 0.0045399 0 1
597 3.1748 6.3496 1.5874 0 0.00587785 0 1
136 3.9685 5.5559 0 0 0.00707107 0 1
142 4.7622 5.5559 0.793701 0 0.00809017 0 1
179 3.9685 6.3496 0.793701 0 0.00707107 0 1
181 4.7622 6.3496 0 0 0.00809017 0 1
556 3.9685 5.5559 1.5874 0 0.00707107 0 1
601 4.7622 6.3496 1.5874 0 0.00809017 0 1
140 5.5559 5.5559 0 0 0.00891007 0 1
146 6.3496 5.5559 0.793701 0 0.00951057 0 1
183 5.5559 6.3496 0.793701 0 0.00891007 0 1
185 6.3496 6.3496 0 0 0.00951057 0 1
560 5.5559 5.5559 1.5874 0 0.00891007 0 1
605 6.3496 6.3496 1.5874 0 0.00951057 0 1
144 7.1433 5.5559 0 0 0.00987688 0 1
148 8.73071 5.5559 0 0 0.00987688 0 1
150 7.93701 5.5559 0.793701 0 0.01 0 1
187 7.1433 6.3496 0.793701 0 0.00987688 0 1
189 7.93701 6.3496 0 0 0.01 0 1
191 8.73071 6.3496 0.793701 0 0.00987688 0 1
564 7.1433 5.5559 1.5874 0 0.00987688 0 1
568 8.73071 5.5559 1.5874 0 0.00987688 0 1
609 7.93701 6.3496 1.5874 0 0.01 0 1
152 10.3181 5.5559 0 0 0.00891007 0 1
154 9.52441 5.5559 0.793701 0 0.00951057 0 1
193 9.52441 6.3496 0 0 0.00951057 0 1
195 10.3181 6.3496 0.793701 0 0.00891007 0 1
572 10.3181 5.5559 1.5874 0 0.00891007 0 1
613 9.52441 6.3496 1.5874 0 0.00951057 0 1
156 11.9055 5.5559 0 0 0.00707107 0 1
158 11.1118 5.5559 0.793701 0 0.00809017 0 1
197 11.1118 6.3496 0 0 0.00809017 0 1
199 11.9055 6.3496 0.793701 0 0.00707107 0 1
576 11.9055 5.5559 1.5874 0 0.00707107 0 1
617 11.1118 6.3496 1.5874 0 0.00809017 0 1
160 13.4929 5.5559 0 0 0.0045399 0 1
162 12.6992 5.5559 0.793701 0 0.00587785 0 1
201 12.6992 6.3496 0 0 0.00587785 0 1
203 13.4929 6.3496 0.793701 0 0.0045399 0 1
580 13.4929 5.5559 1.5874 0 0.0045399 0 1
621 12.6992 6.3496 1.5874 0 0.00587785 0 1
164 15.0803 5.5559 0 0 0.00156434 0 1
166 14.2866 5.5559 0.793701 0 0.00309017 0 1
168 15.874 5.5559 0.793701 0 1.45473e-17 0 1
205 14.2866 6.3496 0 0 0.00309017 0 1
207 15.0803 6.3496 0.793701 0 0.00156434 0 1
209 15.874 6.3496 0 0 1.45473e-17 0 1
584 15.0803 5.5559 1.5874 0 0.00156434 0 1
625 14.2866 6.3496 1.5874 0 0.00309017 0 1
629 15.874 6.3496 1.5874 0 1.45473e-17 0 1
170 0.793701 7.1433 0 0 0.00156434 0 1
172 0 7.1433 0.793701 0 0 0 1
176 1.5874 7.1433 0.793701 0 0.00309017 0 1
211 0 7.93701 0 0 0 0 1
212 0.793701 8.73071 0 0 0.00156434 0 1
213 0.793701 7.93701 0.793701 0 0.00156434 0 1
214 0 8.73071 0.793701 0 0 0 1
215 1.5874 7.93701 0 0 0.00309017 0 1
218 1.5874 8.73071 0.793701 0 0.00309017 0 1
590 0.793701 7.1433 1.5874 0 0.00156434 0 1
631 0 7.93701 1.5874 0 0 0 1
632 0.793701 8.73071 1.5874 0 0.00156434 0 1
635 1.5874 7.93701 1.5874 0 0.00309017 0 1
174 2.3811 7.1433 0 0 0.0045399 0 1
180 3.1748 7.1433 0.793701 0 0.00587785 0 1
216 2.3811 8.73071 0 0 0.0045399 0 1
217 2.3811 7.93701 0.793701 0 0.0045399 0 1
219 3.1748 7.93701 0 0 0.00587785 0 1
222 3.1748 8.73071 0.793701 0 0.00587785 0 1
594 2.3811 7.1433 1.5874 0 0.0045399 0 1
636 2.3811 8.73071 1.5874 0 0.0045399 0 1
639 3.1748 7.93701 1.5874 0 0.00587785 0 1
178 3.9685 7.1433 0 0 0.00707107 0 1
184 4.7622 7.1433 0.793701 0 0.00809017 0 1
220 3.9685 8.73071 0 0 0.00707107 0 1
221 3.9685 7.93701 0.793701 0 0.00707107 0 1
223 4.7622 7.93701 0 0 0.00809017 0 1
226 4.7622 8.73071 0.793701 0 0.00809017 0 1
598 3.9685 7.1433 1.5874 0 0.00707107 0 1
640 3.9685 8.73071 1.5874 0 0.00707107 0 1
643 4.7622 7.93701 1.5874 0 0.00809017 0 1
182 5.5559 7.1433 0 0 0.00891007 0 1
188 6.3496 7.1433 0.793701 0 0.00951057 0 1
224 5.5559 8.73071 0 0 0.00891007 0 1
225 5.5559 7.93701 0.793701 0 0.00891007 0 1
227 6.3496 7.93701 0 0 0.00951057 0 1
230 6.3496 8.73071 0.793701 0 0.00951057 0 1
602 5.5559 7.1433 1.5874 0 0.00891007 0 1
644 5.5559 8.73071 1.5874 0 0.00891007 0 1
647 6.3496 7.93701 1.5874 0 0.00951057 0 1
186 7.1433 7.1433 0 0 0.00987688 0 1
190 8.73071 7.1433 0 0 0.00987688 0 1
192 7.93701 7.1433 0.793701 0 0.01 0 1
228 7.1433 8.73071 0 0 0.00987688 0 1
229 7.1433 7.93701 0.793701 0 0.00987688 0 1
231 7.93701 7.93701 0 0 0.01 0 1
232 8.73071 8.73071 0 0 0.00987688 0 1
233 8.73071 7.93701 0.793701 0 0.00987688 0 1
234 7.93701 8.73071 0.793701 0 0.01 0 1
606 7.1433 7.1433 1.5874 0 0.00987688 0 1
610 8.73071 7.1433 1.5874 0 0.00987688 0 1
648 7.1433 8.73071 1.5874 0 0.00987688 0 1
651 7.93701 7.93701 1.5874 0 0.01 0 1
652 8.73071 8.73071 1.5874 0 0.00987688 0 1
194 10.3181 7.1433 0 0 0.00891007 0 1
196 9.52441 7.1433 0.793701 0 0.00951057 0 1
235 9.52441 7.93701 0 0 0.00951057 0 1
236 10.3181 8.73071 0 0 0.00891007 0 1
237 10.3181 7.93701 0.793701 0 0.00891007 0 1
238 9.52441 8.73071 0.793701 0 0.00951057 0 1
614 10.3181 7.1433 1.5874 0 0.00891007 0 1
655 9.52441 7.93701 1.5874 0 0.00951057 0 1
656 10.3181 8.73071 1.5874 0 0.00891007 0 1
198 11.9055 7.1433 0 0 0.00707107 0 1
200 11.1118 7.1433 0.793701 0 0.00809017 0 1
239 11.1118 7.93701 0 0 0.00809017 0 1
240 11.9055 8.73071 0 0 0.00707107 0 1
241 11.9055 7.93701 0.793701 0 0.00707107 0 1
242 11.1118 8.73071 0.793701 0 0.00809017 0 1
618 11.9055 7.1433 1.5874 0 0.00707107 0 1
659 11.1118 7.93701 1.5874 0 0.00809017 0 1
660 11.9055 8.73071 1.5874 0 0.00707107 0 1
202 13.4929 7.1433 0 0 0.0045399 0 1
204 12.6992 7.1433 0.793701 0 0.00587785 0 1
243 12.6992 7.93701 0 0 0.00587785 0 1
244 13.4929 8.73071 0 0 0.0045399 0 1
245 13.4929 7.93701 0.793701 0 0.0045399 0 1
246 12.6992 8.73071 0.793701 0 0.00587785 0 1
622 13.4929 7.1433 1.5874 0 0.0045399 0 1
663 12.6992 7.93701 1.5874 0 0.00587785 0 1
664 13.4929 8.73071 1.5874 0 0.0045399 0 1
206 15.0803 7.1433 0 0 0.00156434 0 1
208 14.2866 7.1433 0.793701 0 0.00309017 0 1
210 15.874 7.1433 0.793701 0 1.45473e-17 0 1
247 14.2866 7.93701 0 0 0.00309017 0 1
248 15.0803 8.73071 0 0 0.00156434 0 1
249 15.0803 7.93701 0.793701 0 0.00156434 0 1
250 14.2866 8.73071 0.793701 0 0.00309017 0 1
251 15.874 7.93701 0 0 1.45473e-17 0 1
252 15.874 8.73071 0.793701 0 1.45473e-17 0 1
626 15.0803 7.1433 1.5874 0 0.00156434 0 1
667 14.2866 7.93701 1.5874 0 0.00309017 0 1
668 15.0803 8.73071 1.5874 0 0.00156434 0 1
671 15.874 7.93701 1.5874 0 1.45473e-17 0 1
253 0 9.52441 0 0 0 0 1
254 0.793701 10.3181 0 0 0.00156434 0 1
255 0.793701 9.52441 0.793701 0 0.00156434 0 1
256 0 10.3181 0.793701 0 0 0 1
257 1.5874 9.52441 0 0 0.00309017 0 1
260 1.5874 10.3181 0.793701 0 0.00309017 0 1
673 0 9.52441 1.5874 0 0 0 1
674 0.793701 10.3181 1.5874 0 0.00156434 0 1
677 1.5874 9.52441 1.5874 0 0.00309017 0 1
258 2.3811 10.3181 0 0 0.0045399 0 1
259 2.3811 9.52441 0.793701 0 0.0045399 0 1
261 3.1748 9.52441 0 0 0.00587785 0 1
264 3.1748 10.3181 0.793701 0 0.00587785 0 1
678 2.3811 10.3181 1.5874 0 0.0045399 0 1
681 3.1748 9.52441 1.5874 0 0.00587785 0 1
262 3.9685 10.3181 0 0 0.00707107 0 1
263 3.9685 9.52441 0.793701 0 0.00707107 0 1
265 4.7622 9.52441 0 0 0.00809017 0 1
268 4.7622 10.3181 0.793701 0 0.00809017 0 1
682 3.9685 10.3181 1.5874 0 0.00707107 0 1
685 4.7622 9.52441 1.5874 0 0.00809017 0 1
266 5.5559 10.3181 0 0 0.00891007 0 1
267 5.5559 9.52441 0.793701 0 0.00891007 0 1
269 6.3496 9.52441 0 0 0.00951057 0 1
272 6.3496 10.3181 0.793701 0 0.00951057 0 1
686 5.5559 10.3181 1.5874 0 0.00891007 0 1
689 6.3496 9.52441 1.5874 0 0.00951057 0 1
270 7.1433 10.3181 0 0 0.00987688 0 1
271 7.1433 9.52441 0.793701 0 0.00987688 0 1
273 7.93701 9.52441 0 0 0.01 0 1
274 8.73071 10.3181 0 0 0.00987688 0 1
275 8.73071 9.52441 0.793701 0 0.00987688 0 1
276 7.93701 10.3181 0.793701 0 0.01 0 1
690 7.1433 10.3181 1.5874 0 0.00987688 0 1
693 7.93701 9.52441 1.5874 0 0.01 0 1
694 8.73071 10.3181 1.5874 0 0.00987688 0 1
277 9.52441 9.52441 0 0 0.00951057 0 1
278 10.3181 10.3181 0 0 0.00891007 0 1
279 10.3181 9.52441 0.793701 0 0.00891007 0 1
280 9.52441 10.3181 0.793701 0 0.00951057 0 1
697 9.52441 9.52441 1.5874 0 0.00951057 0 1
698 10.3181 10.3181 1.5874 0 0.00891007 0 1
281 11.1118 9.52441 0 0 0.00809017 0 1
282 11.9055 10.3181 0 0 0.00707107 0 1
283 11.9055 9.52441 0.793701 0 0.00707107 0 1
284 11.1118 10.3181 0.793701 0 0.00809017 0 1
701 11.1118 9.52441 1.5874 0 0.00809017 0 1
702 11.9055 10.3181 1.5874 0 0.00707107 0 1
285 12.6992 9.52441 0 0 0.00587785 0 1
286 13.4929 10.3181 0 0 0.0045399 0 1
287 13.4929 9.52441 0.793701 0 0.0045399 0 1
288 12.6992 10.3181 0.793701 0 0.00587785 0 1
705 12.6992 9.52441 1.5874 0 0.00587785 0 1
706 13.4929 10.3181 1.5874 0 0.0045399 0 1
289 14.2866 9.52441 0 0 0.00309017 0 1
290 15.0803 10.3181 0 0 0.00156434 0 1
291 15.0803 9.52441 0.793701 0 0.00156434 0 1
292 14.2866 10.3181 0.793701 0 0.00309017 0 1
293 15.874 9.52441 0 0 1.45473e-17 0 1
294 15.874 10.3181 0.793701 0 1.45473e-17 0 1
709 14.2866 9.52441 1.5874 0 0.00309017 0 1
710 15.0803 10.3181 1.5874 0 0.00156434 0 1
713 15.874 9.52441 1.5874 0 1.45473e-17 0 1
295 0 11.1118 0 0 0 0 1
296 0.793701 11.9055 0 0 0.00156434 0 1
297 0.793701 11.1118 0.793701 0 0.00156434 0 1
298 0 11.9055 0.793701 0 0 0 1
299 1.5874 11.1118 0 0 0.00309017 0 1
302 1.5874 11.9055 0.793701 0 0.00309017 0 1
715 0 11.1118 1.5874 0 0 0 1
716 0.793701 11.9055 1.5874 0 0.00156434 0 1
719 1.5874 11.1118 1.5874 0 0.00309017 0 1
300 2.3811 11.9055 0 0 0.0045399 0 1
301 2.3811 11.1118 0.793701 0 0.0045399 0 1
303 3.1748 11.1118 0 0 0.00587785 0 1
306 3.1748 11.9055 0.793701 0 0.00587785 0 1
720 2.3811 11.9055 1.5874 0 0.0045399 0 1
723 3.1748 11.1118 1.5874 0 0.00587785 0 1
304 3.9685 11.9055 0 0 0.00707107 0 1
305 3.9685 11.1118 0.793701 0 0.00707107 0 1
307 4.7622 11.1118 0 0 0.00809017 0 1
310 4.7622 11.9055 0.793701 0 0.00809017 0 1
724 3.9685 11.9055 1.5874 0 0.00707107 0 1
727 4.7622 11.1118 1.5874 0 0.00809017 0 1
308 5.5559 11.9055 0 0 0.00891007 0 1
309 5.5559 11.1118 0.793701 0 0.00891007 0 1
311 6.3496 11.1118 0 0 0.00951057 0 1
314 6.3496 11.9055 0.793701 0 0.00951057 0 1
728 5.5559 11.9055 1.5874 0 0.00891007 0 1
731 6.3496 11.1118 1.5874 0 0.00951057 0 1
312 7.1433 11.9055 0 0 0.00987688 0 1
313 7.1433 11.1118 0.793701 0 0.00987688 0 1
315 7.93701 11.1118 0 0 0.01 0 1
316 8.73071 11.9055 0 0 0.00987688 0 1
317 8.73071 11.1118 0.793701 0 0.00987688 0 1
318 7.93701 11.9055 0.793701 0 0.01 0 1
732 7.1433 11.9055 1.5874 0 0.00987688 0 1
735 7.93701 11.1118 1.5874 0 0.01 0 1
736 8.73071 11.9055 1.5874 0 0.00987688 0 1
319 9.52441 11.1118 0 0 0.00951057 0 1
320 10.3181 11.9055 0 0 0.00891007 0 1
321 10.3181 11.1118 0.793701 0 0.00891007 0 1
322 9.52441 11.9055 0.793701 0 0.00951057 0 1
739 9.52441 11.1118 1.5874 0 0.00951057 0 1
740 10.3181 11.9055 1.5874 0 0.00891007 0 1
323 11.1118 11.1118 0 0 0.00809017 0 1
324 11.9055 11.9055 0 0 0.00707107 0 1
325 11.9055 11.1118 0.793701 0 0.00707107 0 1
326 11.1118 11.9055 0.793701 0 0.00809017 0 1
743 11.1118 11.1118 1.5874 0 0.00809017 0 1
744 11.9055 11.9055 1.5874 0 0.00707107 0 1
327 12.6992 11.1118 0 0 0.00587785 0 1
328 13.4929 11.9055 0 0 0.0045399 0 1
329 13.4929 11.1118 0.793701 0 0.0045399 0 1
330 12.6992 11.9055 0.793701 0 0.00587785 0 1
747 12.6992 11.1118 1.5874 0 0.00587785 0 1
748 13.4929 11.9055 1.5874 0 0.0045399 0 1
331 14.2866 11.1118 0 0 0.00309017 0 1
332 15.0803 11.9055 0 0 0.00156434 0 1
333 15.0803 11.1118 0.793701 0 0.00156434 0 1
334 14.2866 11.9055 0.793701 0 0.00309017 0 1
335 15.874 11.1118 0 0 1.45473e-17 0 1
336 15.874 11.9055 0.793701 0 1.45473e-17 0 1
751 14.2866 11.1118 1.5874 0 0.00309017 0 1
752 15.0803 11.9055 1.5874 0 0.00156434 0 1
755 15.874 11.1118 1.5874 0 1.45473e-17 0 1
337 0 12.6992 0 0 0 0 1
338 0.793701 13.4929 0 0 0.00156434 0 1
339 0.793701 12.6992 0.793701 0 0.00156434 0 1
340 0 13.4929 0.793701 0 0 0 1
341 1.5874 12.6992 0 0 0.00309017 0 1
344 1.5874 13.4929 0.793701 0 0.00309017 0 1
757 0 12.6992 1.5874 0 0 0 1
758 0.793701 13.4929 1.5874 0 0.00156434 0 1
761 1.5874 12.6992 1.5874 0 0.00309017 0 1
342 2.3811 13.4929 0 0 0.0045399 0 1
343 2.3811 12.6992 0.793701 0 0.0045399 0 1
345 3.1748 12.6992 0 0 0.00587785 0 1
348 3.1748 13.4929 0.793701 0 0.00587785 0 1
762 2.3811 13.4929 1.5874 0 0.0045399 0 1
765 3.1748 12.6992 1.5874 0 0.00587785 0 1
346 3.9685 13.4929 0 0 0.00707107 0 1
347 3.9685 12.6992 0.793701 0 0.00707107 0 1
349 4.7622 12.6992 0 0 0.00809017 0 1
352 4.7622 13.4929 0.793701 0 0.00809017 0 1
766 3.9685 13.4929 1.5874 0 0.00707107 0 1
769 4.7622 12.6992 1.5874 0 0.00809017 0 1
350 5.5559 13.4929 0 0 0.00891007 0 1
351 5.5559 12.6992 0.793701 0 0.00891007 0 1
353 6.3496 12.6992 0 0 0.00951057 0 1
356 6.3496 13.4929 0.793701 0 0.00951057 0 1
770 5.5559 13.4929 1.5874 0 0.00891007 0 1
773 6.3496 12.6992 1.5874 0 0.00951057 0 1
354 7.1433 13.4929 0 0 0.00987688 0 1
355 7.1433 12.6992 0.793701 0 0.00987688 0 1
357 7.93701 12.6992 0 0 0.01 0 1
358 8.73071 13.4929 0 0 0.00987688 0 1
359 8.73071 12.6992 0.793701 0 0.00987688 0 1
360 7.93701 13.4929 0.793701 0 0.01 0 1
774 7.1433 13.4929 1.5874 0 0.00987688 0 1
777 7.93701 12.6992 1.5874 0 0.01 0 1
778 8.73071 13.4929 1.5874 0 0.00987688 0 1
361 9.52441 12.6992 0 0 0.00951057 0 1
362 10.3181 13.4929 0 0 0.00891007 0 1
363 10.3181 12.6992 0.793701 0 0.00891007 0 1
364 9.52441 13.4929 0.793701 0 0.00951057 0 1
781 9.52441 12.6992 1.5874 0 0.00951057 0 1
782 10.3181 13.4929 1.5874 0 0.00891007 0 1
365 11.1118 12.6992 0 0 0.00809017 0 1
366 11.9055 13.4929 0 0 0.00707107 0 1
367 11.9055 12.6992 0.793701 0 0.00707107 0 1
368 11.1118 13.4929 0.793701 0 0.00809017 0 1
785 11.1118 12.6992 1.5874 0 0.00809017 0 1
786 11.9055 13.4929 1.5874 0 0.00707107 0 1
369 12.6992 12.6992 0 0 0.00587785 0 1
370 13.4929 13.4929 0 0 0.0045399 0 1
371 13.4929 12.6992 0.793701 0 0.0045399 0 1
372 12.6992 13.4929 0.793701 0 0.00587785 0 1
789 12.6992 12.6992 1.5874 0 0.00587785 0 1
790 13.4929 13.4929 1.5874 0 0.0045399 0 1
373 14.2866 12.6992 0 0 0.00309017 0 1
374 15.0803 13.4929 0 0 0.00156434 0 1
375 15.0803 12.6992 0.793701 0 0.00156434 0 1
376 14.2866 13.4929 0.793701 0 0.00309017 0 1
377 15.874 12.6992 0 0 1.45473e-17 0 1
378 15.874 13.4929 0.793701 0 1.45473e-17 0 1
793 14.2866 12.6992 1.5874 0 0.00309017 0 1
794 15.0803 13.4929 1.5874 0 0.00156434 0 1
797 15.874 12.6992 1.5874 0 1.45473e-17 0 1
379 0 14.2866 0 0 0 0 1
380 0.793701 15.0803 0 0 0.00156434 0 1
381 0.793701 14.2866 0.793701 0 0.00156434 0 1
382 0 15.0803 0.793701 0 0 0 1
383 1.5874 14.2866 0 0 0.00309017 0 1
386 1.5874 15.0803 0.793701 0 0.00309017 0 1
799 0 14.2866 1.5874 0 0 0 1
800 0.793701 15.0803 1.5874 0 0.00156434 0 1
803 1.5874 14.2866 1.5874 0 0.00309017 0 1
384 2.3811 15.0803 0 0 0.0045399 0 1
385 2.3811 14.2866 0.793701 0 0.0045399 0 1
387 3.1748 14.2866 0 0 0.00587785 0 1
390 3.1748 15.0803 0.793701 0 0.00587785 0 1
804 2.3811 15.0803 1.5874 0 0.0045399 0 1
807 3.1748 14.2866 1.5874 0 0.00587785 0 1
388 3.9685 15.0803 0 0 0.00707107 0 1
389 3.9685 14.2866 0.793701 0 0.00707107 0 1
391 4.7622 14.2866 0 0 0.00809017 0 1
394 4.7622 15.0803 0.793701 0 0.00809017 0 1
808 3.9685 15.0803 1.5874 0 0.00707107 0 1
811 4.7622 14.2866 1.5874 0 0.00809017 0 1
392 5.5559 15.0803 0 0 0.00891007 0 1
393 5.5559 14.2866 0.793701 0 0.00891007 0 1
395 6.3496 14.2866 0 0 0.00951057 0 1
398 6.3496 15.0803 0.793701 0 0.00951057 0 1
812 5.5559 15.0803 1.5874 0 0.00891007 0 1
815 6.3496 14.2866 1.5874 0 0.00951057 0 1
396 7.1433 15.0803 0 0 0.00987688 0 1
397 7.1433 14.2866 0.793701 0 0.00987688 0 1
399 7.93701 14.2866 0 0 0.01 0 1
400 8.73071 15.0803 0 0 0.00987688 0 1
401 8.73071 14.2866 0.793701 0 0.00987688 0 1
402 7.93701 15.0803 0.793701 0 0.01 0 1
816 7.1433 15.0803 1.5874 0 0.00987688 0 1
819 7.93701 14.2866 1.5874 0 0.01 0 1
820 8.73071 15.0803 1.5874 0 0.00987688 0 1
403 9.52441 14.2866 0 0 0.00951057 0 1
404 10.3181 15.0803 0 0 0.00891007 0 1
405 10.3181 14.2866 0.793701 0 0.00891007 0 1
406 9.52441 15.0803 0.793701 0 0.00951057 0 1
823 9.52441 14.2866 1.5874 0 0.00951057 0 1
824 10.3181 15.0803 1.5874 0 0.00891007 0 1
407 11.1118 14.2866 0 0 0.00809017 0 1
408 11.9055 15.0803 0 0 0.00707107 0 1
409 11.9055 14.2866 0.793701 0 0.00707107 0 1
410 11.1118 15.0803 0.793701 0 0.00809017 0 1
827 11.1118 14.2866 1.5874 0 0.00809017 0 1
828 11.9055 15.0803 1.5874 0 0.00707107 0 1
411 12.6992 14.2866 0 0 0.00587785 0 1
412 13.4929 15.0803 0 0 0.0045399 0 1
413 13.4929 14.2866 0.793701 0 0.0045399 0 1
414 12.6992 15.0803 0.793701 0 0.00587785 0 1
831 12.6992 14.2866 1.5874 0 0.00587785 0 1
832 13.4929 15.0803 1.5874 0 0.0045399 0 1
415 14.2866 14.2866 0 0 0.00309017 0 1
416 15.0803 15.0803 0 0 0.00156434 0 1
417 15.0803 14.2866 0.793701 0 0.00156434 0 1
418 14.2866 15.0803 0.793701 0 0.00309017 0 1
419 15.874 14.2866 0 0 1.45473e-17 0 1
420 15.874 15.0803 0.793701 0 1.45473e-17 0 1
835 14.2866 14.2866 1.5874 0 0.00309017 0 1
836 15.0803 15.0803 1.5874 0 0.00156434 0 1
839 15.874 14.2866 1.5874 0 1.45473e-17 0 1
423 0.793701 0 2.3811 0 0.00156434 0 1
424 0 0.793701 2.3811 0 0 0 1
428 1.5874 0.793701 2.3811 0 0.00309017 0 1
465 0.793701 1.5874 2.3811 0 0.00156434 0 1
841 0 0 3.1748 0 0 0 1
842 0.793701 0.793701 3.1748 0 0.00156434 0 1
843 0.793701 0 3.9685 0 0.00156434 0 1
844 0 0.793701 3.9685 0 0 0 1
845 1.5874 0 3.1748 0 0.00309017 0 1
848 1.5874 0.793701 3.9685 0 0.00309017 0 1
883 0 1.5874 3.1748 0 0 0 1
885 0.793701 1.5874 3.9685 0 0.00156434 0 1
887 1.5874 1.5874 3.1748 0 0.00309017 0 1
427 2.3811 0 2.3811 0 0.0045399 0 1
432 3.1748 0.793701 2.3811 0 0.00587785 0 1
469 2.3811 1.5874 2.3811 0 0.0045399 0 1
846 2.3811 0.793701 3.1748 0 0.0045399 0 1
847 2.3811 0 3.9685 0 0.0045399 0 1
849 3.1748 0 3.1748 0 0.00587785 0 1
852 3.1748 0.793701 3.9685 0 0.00587785 0 1
889 2.3811 1.5874 3.9685 0 0.0045399 0 1
891 3.1748 1.5874 3.1748 0 0.00587785 0 1
431 3.9685 0 2.3811 0 0.00707107 0 1
436 4.7622 0.793701 2.3811 0 0.00809017 0 1
473 3.9685 1.5874 2.3811 0 0.00707107 0 1
850 3.9685 0.793701 3.1748 0 0.00707107 0 1
851 3.9685 0 3.9685 0 0.00707107 0 1
853 4.7622 0 3.1748 0 0.00809017 0 1
856 4.7622 0.793701 3.9685 0 0.00809017 0 1
893 3.9685 1.5874 3.9685 0 0.00707107 0 1
895 4.7622 1.5874 3.1748 0 0.00809017 0 1
435 5.5559 0 2.3811 0 0.00891007 0 1
440 6.3496 0.793701 2.3811 0 0.00951057 0 1
477 5.5559 1.5874 2.3811 0 0.00891007 0 1
854 5.5559 0.793701 3.1748 0 0.00891007 0 1
855 5.5559 0 3.9685 0 0.00891007 0 1
857 6.3496 0 3.1748 0 0.00951057 0 1
860 6.3496 0.793701 3.9685 0 0.00951057 0 1
897 5.5559 1.5874 3.9685 0 0.00891007 0 1
899 6.3496 1.5874 3.1748 0 0.00951057 0 1
439 7.1433 0 2.3811 0 0.00987688 0 1
443 8.73071 0 2.3811 0 0.00987688 0 1
444 7.93701 0.793701 2.3811 0 0.01 0 1
481 7.1433 1.5874 2.3811 0 0.00987688 0 1
485 8.73071 1.5874 2.3811 0 0.00987688 0 1
858 7.1433 0.793701 3.1748 0 0.00987688 0 1
859 7.1433 0 3.9685 0 0.00987688 0 1
861 7.93701 0 3.1748 0 0.01 0 1
862 8.73071 0.793701 3.1748 0 0.00987688 0 1
863 8.73071 0 3.9685 0 0.00987688 0 1
864 7.93701 0.793701 3.9685 0 0.01 0 1
901 7.1433 1.5874 3.9685 0 0.00987688 0 1
903 7.93701 1.5874 3.1748 0 0.01 0 1
905 8.73071 1.5874 3.9685 0 0.00987688 0 1
447 10.3181 0 2.3811 0 0.00891007 0 1
448 9.52441 0.793701 2.3811 0 0.00951057 0 1
489 10.3181 1.5874 2.3811 0 0.00891007 0 1
865 9.52441 0 3.1748 0 0.00951057 0 1
866 10.3181 0.793701 3.1748 0 0.00891007 0 1
867 10.3181 0 3.9685 0 0.00891007 0 1
868 9.52441 0.793701 3.9685 0 0.00951057 0 1
907 9.52441 1.5874 3.1748 0 0.00951057 0 1
909 10.3181 1.5874 3.9685 0 0.00891007 0 1
451 11.9055 0 2.3811 0 0.00707107 0 1
452 11.1118 0.793701 2.3811 0 0.00809017 0 1
493 11.9055 1.5874 2.3811 0 0.00707107 0 1
869 11.1118 0 3.1748 0 0.00809017 0 1
870 11.9055 0.793701 3.1748 0 0.00707107 0 1
871 11.9055 0 3.9685 0 0.00707107 0 1
872 11.1118 0.793701 3.9685 0 0.00809017 0 1
911 11.1118 1.5874 3.1748 0 0.00809017 0 1
913 11.9055 1.5874 3.9685 0 0.00707107 0 1
455 13.4929 0 2.3811 0 0.0045399 0 1
456 12.6992 0.793701 2.3811 0 0.00587785 0 1
497 13.4929 1.5874 2.3811 0 0.0045399 0 1
873 12.6992 0 3.1748 0 0.00587785 0 1
874 13.4929 0.793701 3.1748 0 0.0045399 0 1
875 13.4929 0 3.9685 0 0.0045399 0 1
876 12.6992 0.793701 3.9685 0 0.00587785 0 1
915 12.6992 1.5874 3.1748 0 0.00587785 0 1
917 13.4929 1.5874 3.9685 0 0.0045399 0 1
459 15.0803 0 2.3811 0 0.00156434 0 1
460 14.2866 0.793701 2.3811 0 0.00309017 0 1
462 15.874 0.793701 2.3811 0 1.45473e-17 0 1
501 15.0803 1.5874 2.3811 0 0.00156434 0 1
877 14.2866 0 3.1748 0 0.00309017 0 1
878 15.0803 0.793701 3.1748 0 0.00156434 0 1
879 15.0803 0 3.9685 0 0.00156434 0 1
880 14.2866 0.793701 3.9685 0 0.00309017 0 1
881 15.874 0 3.1748 0 1.45473e-17 0 1
882 15.874 0.793701 3.9685 0 1.45473e-17 0 1
919 14.2866 1.5874 3.1748 0 0.00309017 0 1
921 15.0803 1.5874 3.9685 0 0.00156434 0 1
923 15.874 1.5874 3.1748 0 1.45473e-17 0 1
466 0 2.3811 2.3811 0 0 0 1
470 1.5874 2.3811 2.3811 0 0.00309017 0 1
507 0.793701 3.1748 2.3811 0 0.00156434 0 1
884 0.793701 2.3811 3.1748 0 0.00156434 0 1
886 0 2.3811 3.9685 0 0 0 1
890 1.5874 2.3811 3.9685 0 0.00309017 0 1