ITEM: TIMESTEP
302000
ITEM: NUMBER OF ATOMS
32000
ITEM: BOX BOUNDS pp pp pp
0.0000000000000000e+00 3.1748021039364001e+01
0.0000000000000000e+00 3.1748021039364001e+01
0.0000000000000000e+00 3.1748021039364001e+01
ITEM: ATOMS id type x y z c_phase c_nbond c_rho vx vy vz v_force
4 1 0.116341 1.10259 0.464337 4 0 1.00458 0 0 0 5.66975e-06
83 1 0.974108 1.6685 0.77798 4 0 1.00458 0 0 0 7.8424e-06
842 1 0.714648 0.793562 1.41295 4 0 1.0046 0 0 0 7.13152e-06
921 1 0.00336375 1.60273 1.37437 4 0 1.0046 0 0 0 5.4207e-06
3 1 0.729896 0.0633724 0.61602 4 0 1.00457 0 0 0 7.17199e-06
8 1 1.71015 0.808983 1.0155 4 0 1.00457 0 0 0 1.01193e-05
85 1 1.80059 1.47468 0.221075 4 0 1.00457 0 0 0 1.04257e-05
925 1 1.82015 1.66049 1.76126 4 0 1.00459 0 0 0 1.04927e-05
6 1 2.52093 0.749102 0.203812 4 0 1.00456 0 0 0 1.30678e-05
7 1 2.59149 0.0538711 1.03726 4 0 1.00454 0 0 0 1.33452e-05
87 1 2.64922 1.541 0.882848 4 0 1.00455 0 0 0 1.35746e-05
846 1 2.66829 0.815502 1.7457 4 0 1.00456 0 0 0 1.36508e-05
12 1 3.43386 0.933692 0.956349 4 0 1.00453 0 0 0 1.68878e-05
849 1 3.49924 0.0925696 1.70571 4 0 1.00452 0 0 0 1.71789e-05
929 1 3.60652 1.70798 1.71994 4 0 1.00452 0 0 0 1.76608e-05
10 1 4.10576 0.858321 0.325305 4 0 1.00452 0 0 0 1.99661e-05
16 1 4.96159 0.56786 1.17466 4 0 1.00449 0 0 0 2.40749e-05
93 1 4.91949 1.59987 0.383508 4 0 1.00451 0 0 0 2.38706e-05
850 1 4.3472 0.941527 1.62884 4 0 1.0045 0 0 0 2.11111e-05
9 1 3.47612 0.111428 0.171027 4 0 1.00454 0 0 0 1.70757e-05
14 1 5.64741 0.645627 0.325839 4 0 1.00449 0 0 0 2.73846e-05
95 1 5.88414 1.31048 0.938036 4 0 1.00448 0 0 0 2.85048e-05
97 1 6.57478 1.39104 0.218369 4 0 1.00449 0 0 0 3.16341e-05
854 1 5.78374 0.460658 1.69897 4 0 1.00446 0 0 0 2.80319e-05
933 1 5.03122 1.72414 1.43602 4 0 1.00449 0 0 0 2.44127e-05
20 1 6.7138 0.39031 0.865278 4 0 1.00446 0 0 0 3.223e-05
937 1 6.69104 1.00962 1.69374 4 0 1.00445 0 0 0 3.21334e-05
24 1 8.2679 0.408875 1.07337 4 0 1.00445 0 0 0 3.76705e-05
99 1 7.36782 1.22285 0.954198 4 0 1.00446 0 0 0 3.48242e-05
101 1 8.24709 1.39092 0.236779 4 0 1.00447 0 0 0 3.76158e-05
941 1 8.12868 1.27217 1.60653 4 0 1.00445 0 0 0 3.72944e-05
18 1 7.58247 0.647807 0.140287 4 0 1.00447 0 0 0 3.55874e-05
22 1 8.85849 0.508506 0.273966 4 0 1.00446 0 0 0 3.8971e-05
28 1 9.55301 0.3386 0.888639 4 0 1.00445 0 0 0 3.98405e-05
103 1 9.02586 1.30716 1.1133 4 0 1.00445 0 0 0 3.9248e-05
945 1 9.5742 0.973184 1.76333 4 1 1.00445 0 0 0 3.98552e-05
105 1 9.63995 1.37474 0.0900752 4 0 1.00447 0 0 0 3.98964e-05
32 1 11.2128 0.215893 0.632658 4 0 1.00446 0 0 0 3.88405e-05
107 1 10.3637 1.04743 0.823114 4 0 1.00446 0 0 0 3.98943e-05
866 1 10.523 0.196295 1.44539 4 0 1.00445 0 0 0 3.97818e-05
949 1 11.2856 1.01846 1.41785 4 0 1.00446 0 0 0 3.86994e-05
946 1 10.5797 1.67706 1.72992 4 0 1.00446 0 0 0 3.97321e-05
26 1 10.2431 0.367861 0.0780499 4 0 1.00446 0 0 0 3.99527e-05
36 1 12.8757 0.211714 0.636805 4 0 1.00446 0 0 0 3.39023e-05
111 1 12.0457 1.07408 0.506655 4 0 1.00447 0 0 0 3.67883e-05
870 1 12.1319 0.316439 1.29957 4 0 1.00446 0 0 0 3.65245e-05
953 1 12.7194 1.19864 1.3723 4 0 1.00448 0 0 0 3.45004e-05
40 1 14.3729 0.318493 0.764646 4 0 1.00447 0 0 0 2.72878e-05
115 1 13.5924 1.113 0.843618 4 0 1.00448 0 0 0 3.09007e-05
117 1 14.0399 1.55958 0.167469 4 0 1.00448 0 0 0 2.88603e-05
874 1 13.6075 0.359834 1.6352 4 0 1.00447 0 0 0 3.08332e-05
957 1 14.3777 1.14948 1.47647 4 0 1.00448 0 0 0 2.72648e-05
119 1 14.8761 1.55337 0.662943 4 0 1.00448 0 0 0 2.48621e-05
44 1 15.7061 0.770636 0.788259 4 0 1.00447 0 0 0 2.0857e-05
123 1 16.5532 1.54451 0.681338 4 0 1.00448 0 0 0 1.69453e-05
878 1 15.1422 0.4642 1.64149 4 0 1.00447 0 0 0 2.35712e-05
882 1 16.547 0.712289 1.3421 4 0 1.00449 0 0 0 1.69729e-05
961 1 15.6341 1.48544 1.3916 4 0 1.00448 0 0 0 2.12004e-05
38 1 15.1049 0.711806 0.0677822 4 0 1.00447 0 0 0 2.37522e-05
48 1 17.2544 0.732268 0.547589 4 0 1.00448 0 0 0 1.39621e-05
127 1 17.9231 1.58109 0.757246 4 0 1.00448 0 0 0 1.13973e-05
886 1 17.916 0.742935 1.42801 4 0 1.0045 0 0 0 1.14229e-05
965 1 17.2202 1.74884 1.56274 4 0 1.00449 0 0 0 1.41012e-05
51 1 19.5372 0.0167772 0.662766 4 0 1.0045 0 0 0 6.48638e-06
52 1 18.7918 0.725074 0.684829 4 0 1.00449 0 0 0 8.52452e-06
131 1 19.5395 1.55488 0.841653 4 0 1.00449 0 0 0 6.48075e-06
889 1 19.0276 0.158607 1.54508 4 0 1.0045 0 0 0 7.83742e-06
890 1 19.5934 0.967491 1.68957 4 0 1.0045 0 0 0 6.34849e-06
969 1 18.6564 1.51302 1.50035 4 0 1.00449 0 0 0 8.93715e-06
55 1 21.0889 0.349843 1.06749 4 0 1.0045 0 0 0 3.41985e-06
56 1 20.2493 0.776373 0.980057 4 0 1.00449 0 0 0 4.89364e-06
135 1 21.1062 1.65725 0.951506 4 0 1.00449 0 0 0 3.39374e-06
54 1 21.1874 0.765598 0.218806 4 0 1.00451 0 0 0 3.27307e-06
133 1 20.3457 1.51479 0.193617 4 0 1.00449 0 0 0 4.70305e-06
57 1 22.0087 0.262534 0.539755 4 0 1.00451 0 0 0 2.23599e-06
59 1 22.7913 0.430275 1.40734 4 0 1.00451 0 0 0 1.51671e-06
60 1 22.1105 1.14763 1.32981 4 0 1.0045 0 0 0 2.12884e-06
137 1 21.9982 1.59955 0.538558 4 0 1.0045 0 0 0 2.24735e-06
58 1 22.9157 1.07463 0.445168 4 0 1.00451 0 0 0 1.42272e-06
63 1 24.228 0.380179 1.45209 4 0 1.00453 0 0 0 6.97804e-07
61 1 23.5672 0.357563 0.57369 4 0 1.00452 0 0 0 1.00754e-06
62 1 24.4367 1.18687 0.754729 4 0 1.00452 0 0 0 6.19117e-07
64 1 23.4757 1.2499 1.4028 4 0 1.00451 0 0 0 1.05865e-06
65 1 24.955 0.315686 0.551996 4 0 1.00453 0 0 0 4.56495e-07
67 1 26.0085 0.383365 1.1715 4 0 1.00454 0 0 0 2.37747e-07
68 1 25.169 1.12579 1.48087 4 0 1.00453 0 0 0 4.01279e-07
147 1 25.9301 1.73476 1.35794 4 0 1.00453 0 0 0 2.49952e-07
66 1 25.8917 0.929212 0.432102 4 0 1.00453 0 0 0 2.56143e-07
70 1 27.5736 1.28032 0.38906 4 0 1.00454 0 0 0 8.30969e-08
71 1 27.6142 0.50928 0.874321 4 0 1.00454 0 0 0 8.07588e-08
72 1 26.7559 1.02809 1.26347 4 0 1.00454 0 0 0 1.45685e-07
913 1 28.3748 0.337482 1.39813 4 0 1.00455 0 0 0 4.67101e-08
69 1 26.7925 0.240345 0.226621 4 0 1.00454 0 0 0 1.42148e-07
76 1 28.6489 1.24263 0.742341 4 0 1.00455 0 0 0 3.81292e-08
914 1 29.3912 0.945639 1.56878 4 0 1.00457 0 0 0 2.1678e-08
993 1 28.5228 1.71921 1.49749 4 0 1.00455 0 0 0 4.18783e-08
917 1 29.8133 0.173958 1.46124 4 0 1.00457 0 0 0 1.55698e-08
75 1 29.2734 0.3547 0.615275 4 0 1.00456 0 0 0 2.37441e-08
841 1 31.5874 0.266128 1.25663 4 0 1.00459 0 0 0 3.58354e-09
79 1 30.7016 0.49015 0.470738 4 0 1.00457 0 0 0 7.5802e-09
80 1 30.1009 1.19877 0.774133 4 0 1.00457 0 0 0 1.23755e-08
918 1 30.8649 0.971942 1.39386 4 0 1.00459 0 0 0 6.61778e-09
82 1 1.11081 2.43607 0.129285 4 0 1.00458 0 0 0 8.23609e-06
84 1 0.133403 2.3821 0.812241 4 0 1.00459 0 0 0 5.70809e-06
163 1 1.28845 3.23764 0.949187 4 0 1.00458 0 0 0 8.76755e-06
922 1 1.13977 2.36077 1.59162 4 0 1.0046 0 0 0 8.3212e-06
1001 1 0.386685 3.02999 1.54944 4 0 1.0046 0 0 0 6.30008e-06
161 1 0.332248 3.09582 0.131296 4 0 1.00459 0 0 0 6.16921e-06
88 1 1.90972 2.41867 0.78376 4 0 1.00457 0 0 0 1.0803e-05
167 1 2.65852 3.28029 0.860875 4 0 1.00456 0 0 0 1.36118e-05
926 1 2.66931 2.22918 1.53373 4 0 1.00456 0 0 0 1.36549e-05
1009 1 3.2579 3.42668 1.64938 4 0 1.00455 0 0 0 1.61152e-05
86 1 2.7261 2.38168 0.0557193 4 0 1.00456 0 0 0 1.38833e-05
92 1 3.38195 2.55413 0.779289 4 0 1.00454 0 0 0 1.66583e-05
91 1 4.00679 1.841 0.711184 4 0 1.00452 0 0 0 1.95018e-05
96 1 4.91383 2.57277 0.815661 4 0 1.00451 0 0 0 2.38431e-05
171 1 4.20148 3.3175 0.749446 4 0 1.00453 0 0 0 2.04181e-05
930 1 4.13245 2.64107 1.58328 4 0 1.00451 0 0 0 2.00919e-05
94 1 5.65047 2.44269 0.132743 4 0 1.00451 0 0 0 2.73991e-05
100 1 6.55776 2.18062 0.772597 4 0 1.00448 0 0 0 3.15603e-05
175 1 5.64874 3.19593 0.952489 4 0 1.00449 0 0 0 2.73909e-05
934 1 5.861 2.19426 1.49672 4 0 1.00447 0 0 0 2.83961e-05
1017 1 6.52037 3.06691 1.5557 4 0 1.00446 0 0 0 3.13973e-05
177 1 6.65033 2.92778 0.134227 4 0 1.00449 0 0 0 3.19596e-05
98 1 7.45405 2.22586 0.139832 4 0 1.00448 0 0 0 3.51366e-05
104 1 8.08209 2.20208 0.930382 4 0 1.00446 0 0 0 3.71629e-05
179 1 7.40132 3.06835 0.934051 4 0 1.00447 0 0 0 3.49464e-05
938 1 7.29928 2.06035 1.56856 4 0 1.00445 0 0 0 3.45705e-05
1021 1 8.18545 3.00183 1.65211 4 0 1.00445 0 0 0 3.74508e-05
181 1 8.26934 2.9712 0.0392146 4 0 1.00448 0 0 0 3.76742e-05
102 1 8.90393 2.08699 0.252387 4 0 1.00447 0 0 0 3.90504e-05
108 1 9.77243 2.0246 1.10996 4 0 1.00446 0 0 0 3.99586e-05
183 1 8.92671 2.97262 0.928693 4 0 1.00446 0 0 0 3.9089e-05
942 1 9.03062 2.22066 1.70398 4 0 1.00445 0 0 0 3.92553e-05
185 1 9.56096 2.90576 0.21312 4 0 1.00447 0 0 0 3.98461e-05
106 1 10.2834 2.1137 0.214297 4 0 1.00447 0 0 0 3.99358e-05
112 1 11.1583 1.82604 0.771092 4 0 1.00447 0 0 0 3.8941e-05
187 1 10.6214 2.80819 0.921535 4 0 1.00447 0 0 0 3.96922e-05
1029 1 11.4444 2.82964 1.57484 4 0 1.00449 0 0 0 3.83652e-05
116 1 12.6737 1.94118 0.593851 4 0 1.00448 0 0 0 3.46709e-05
191 1 11.928 2.64099 0.742299 4 0 1.00448 0 0 0 3.71341e-05
950 1 11.9239 1.9206 1.46509 4 0 1.00449 0 0 0 3.71459e-05
1033 1 12.8449 3.01766 1.68597 4 0 1.00451 0 0 0 3.4022e-05
195 1 13.1791 3.03035 0.848852 4 0 1.00449 0 0 0 3.26794e-05
954 1 13.3784 1.9912 1.48064 4 0 1.0045 0 0 0 3.18365e-05
120 1 14.0206 2.44438 0.927124 4 0 1.00449 0 0 0 2.89501e-05
1037 1 14.0279 3.38359 1.55716 4 0 1.0045 0 0 0 2.89162e-05
199 1 14.6961 3.43698 0.884932 4 0 1.00448 0 0 0 2.5734e-05
958 1 14.7823 2.29758 1.44821 4 0 1.00449 0 0 0 2.53167e-05
118 1 14.8418 2.51505 0.136557 4 0 1.00448 0 0 0 2.50286e-05
197 1 14.1591 3.2262 0.0325348 4 0 1.00449 0 0 0 2.83017e-05
114 1 13.4137 2.29398 0.0590902 4 0 1.00449 0 0 0 3.16841e-05
124 1 15.6993 2.44373 0.692668 4 0 1.00448 0 0 0 2.08891e-05
203 1 16.3029 3.20095 0.662084 4 0 1.00447 0 0 0 1.80718e-05
962 1 16.308 2.47951 1.52575 4 0 1.00448 0 0 0 1.80487e-05
1041 1 15.3694 3.25723 1.50191 4 0 1.00449 0 0 0 2.24719e-05
201 1 15.5706 3.25854 0.0192499 4 0 1.00448 0 0 0 2.15044e-05
128 1 17.0646 2.35032 0.682778 4 0 1.00447 0 0 0 1.47419e-05
207 1 17.944 2.92608 0.699539 4 0 1.00447 0 0 0 1.13218e-05
966 1 18.0193 2.43917 1.58112 4 0 1.00448 0 0 0 1.10529e-05
1045 1 17.0918 3.1162 1.49491 4 0 1.00447 0 0 0 1.46289e-05
132 1 18.8908 2.35742 1.01358 4 0 1.00448 0 0 0 8.23139e-06
211 1 19.7027 3.2427 1.27782 4 0 1.00447 0 0 0 6.08616e-06
209 1 18.884 2.99607 0.196019 4 0 1.00448 0 0 0 8.25119e-06
130 1 19.587 2.34239 0.101452 4 0 1.00449 0 0 0 6.36404e-06
973 1 20.3251 1.78863 1.72442 4 0 1.00449 0 0 0 4.74332e-06
134 1 21.1565 2.41663 0.458355 4 0 1.00449 0 0 0 3.31853e-06
136 1 20.1948 2.46882 1.11433 4 0 1.00448 0 0 0 5.00384e-06
215 1 21.31 3.29463 1.39314 4 0 1.00448 0 0 0 3.09744e-06
213 1 20.4222 2.99313 0.334941 4 0 1.00448 0 0 0 4.55601e-06
139 1 22.8719 2.07007 1.50872 4 0 1.0045 0 0 0 1.45521e-06
138 1 22.9717 2.60199 0.735523 4 0 1.0045 0 0 0 1.38209e-06
140 1 22.0961 2.49917 1.23787 4 0 1.00449 0 0 0 2.1438e-06
217 1 21.9898 3.20043 0.598797 4 0 1.00448 0 0 0 2.25636e-06
16179 1 22.6771 3.40124 0.07601 4 0 1.00448 0 0 0 1.6075e-06
141 1 23.7438 1.80844 0.624025 4 0 1.00451 0 0 0 9.14865e-07
143 1 24.4289 1.98763 1.61102 4 0 1.00452 0 0 0 6.21886e-07
142 1 24.342 2.68296 0.775192 4 0 1.00451 0 0 0 6.53779e-07
144 1 23.6887 2.90303 1.53628 4 0 1.00451 0 0 0 9.42976e-07
223 1 24.4728 3.51078 1.55704 4 0 1.00452 0 0 0 6.06322e-07
16108 1 24.9562 2.84566 0.0146836 4 0 1.0045 0 0 0 4.56188e-07
149 1 26.5483 1.79415 0.511367 4 0 1.00453 0 0 0 1.67291e-07
145 1 25.1322 1.85613 0.509414 4 0 1.00452 0 0 0 4.10329e-07
146 1 25.7918 2.61203 0.707489 4 0 1.00452 0 0 0 2.7288e-07
148 1 25.1579 2.55548 1.52547 4 0 1.00452 0 0 0 4.03983e-07
227 1 25.7213 3.49812 1.51211 4 0 1.00453 0 0 0 2.85271e-07
152 1 26.5364 2.56002 1.53049 4 0 1.00453 0 0 0 1.68608e-07
229 1 26.1686 3.50068 0.599043 4 0 1.00451 0 0 0 2.14474e-07
151 1 27.5039 1.98546 1.23792 4 0 1.00454 0 0 0 8.7263e-08
153 1 28.2489 2.09022 0.343734 4 0 1.00454 0 0 0 5.12236e-08
150 1 27.0867 2.6924 0.645359 4 0 1.00453 0 0 0 1.16459e-07
231 1 27.1998 3.35397 1.41682 4 0 1.00453 0 0 0 1.07769e-07
156 1 28.2537 2.75799 1.20639 4 0 1.00454 0 0 0 5.10456e-08
233 1 27.982 3.21993 0.326384 4 0 1.00453 0 0 0 6.21523e-08
997 1 29.9568 1.80906 1.70764 4 0 1.00458 0 0 0 1.38894e-08
155 1 29.4477 2.04702 0.879698 4 0 1.00456 0 0 0 2.07459e-08
154 1 29.1956 2.6589 0.290703 4 0 1.00455 0 0 0 2.52095e-08
235 1 29.2495 3.2651 1.17365 4 0 1.00455 0 0 0 2.41867e-08
159 1 30.9114 1.98502 0.924207 4 0 1.00458 0 0 0 6.36565e-09
160 1 30.1815 2.71094 1.00186 4 0 1.00457 0 0 0 1.15969e-08
239 1 31.0247 3.35309 0.97101 4 0 1.00458 0 0 0 5.78861e-09
998 1 30.9865 2.69483 1.72648 4 0 1.00459 0 0 0 5.97731e-09
237 1 30.1092 3.25953 0.132205 4 0 1.00457 0 0 0 1.22928e-08
157 1 30.4116 1.90909 0.0255368 4 0 1.00457 0 0 0 9.62147e-09
158 1 31.1434 2.66402 0.0761253 4 0 1.00458 0 0 0 5.23724e-09
164 1 0.293831 3.78503 0.918557 4 0 1.00458 0 0 0 6.07806e-06
241 1 0.143046 4.59443 0.482118 4 0 1.00458 0 0 0 5.72984e-06
243 1 1.14036 4.67093 0.986638 4 0 1.00459 0 0 0 8.32292e-06
244 1 0.0884667 5.26681 1.27761 4 0 1.00458 0 0 0 5.60753e-06
162 1 1.04069 3.86421 0.0595682 4 0 1.00459 0 0 0 8.0325e-06
168 1 1.84117 4.04604 0.847105 4 0 1.00458 0 0 0 1.0565e-05
247 1 2.54049 4.85585 1.13748 4 0 1.00457 0 0 0 1.31444e-05
166 1 2.64953 4.14475 0.20674 4 0 1.00457 0 0 0 1.35758e-05
245 1 1.89758 4.96895 0.278386 4 0 1.00458 0 0 0 1.07606e-05
249 1 3.40771 4.86189 0.161635 4 0 1.00456 0 0 0 1.67721e-05
172 1 3.494 4.07675 0.885909 4 0 1.00455 0 0 0 1.71555e-05
176 1 4.91235 4.00001 1.18344 4 0 1.00451 0 0 0 2.3836e-05
251 1 4.04658 4.88002 1.14639 4 0 1.00454 0 0 0 1.96881e-05
170 1 4.26027 4.18509 0.149001 4 0 1.00454 0 0 0 2.0697e-05
253 1 5.00947 4.74001 0.341082 4 0 1.00452 0 0 0 2.43072e-05
174 1 5.77735 3.9378 0.198707 4 0 1.00451 0 0 0 2.80016e-05
180 1 6.48883 3.76611 0.772067 4 0 1.00448 0 0 0 3.12592e-05
255 1 5.68025 4.73638 1.02487 4 0 1.0045 0 0 0 2.7541e-05
1097 1 6.66321 4.5115 1.6428 4 0 1.00447 0 0 0 3.20147e-05
260 1 6.68072 5.1315 0.885352 4 0 1.00448 0 0 0 3.20894e-05
184 1 8.1982 3.892 0.700757 4 0 1.00447 0 0 0 3.74853e-05
259 1 7.40842 4.46072 0.5468 4 0 1.00448 0 0 0 3.49722e-05
1018 1 7.39886 3.87029 1.49684 4 0 1.00446 0 0 0 3.49375e-05
1101 1 8.20004 4.61106 1.48677 4 0 1.00445 0 0 0 3.74903e-05
188 1 9.8976 3.57792 0.885667 4 0 1.00447 0 0 0 3.99916e-05
263 1 9.07913 4.56551 0.821335 4 0 1.00446 0 0 0 3.93273e-05
265 1 9.86266 4.50302 0.126324 4 0 1.00448 0 0 0 3.99849e-05
1022 1 9.07829 3.76256 1.49819 4 0 1.00446 0 0 0 3.93261e-05
1105 1 9.86881 4.3462 1.65532 4 1 1.00446 0 0 0 3.99862e-05
182 1 8.98541 3.86821 0.0631775 4 0 1.00448 0 0 0 3.91849e-05
192 1 11.408 3.64493 0.778297 4 0 1.00448 0 0 0 3.84451e-05
267 1 10.5891 4.66652 0.906264 4 0 1.00447 0 0 0 3.97234e-05
269 1 11.3867 4.69403 0.230734 4 0 1.00448 0 0 0 3.84908e-05
1026 1 10.7059 3.56689 1.58785 4 0 1.00447 0 0 0 3.96033e-05
1109 1 11.3652 4.3716 1.70545 4 0 1.00448 0 0 0 3.85364e-05
272 1 11.3894 5.27213 0.983682 4 0 1.00447 0 0 0 3.84852e-05
186 1 10.5826 3.84888 0.176129 4 0 1.00448 0 0 0 3.97294e-05
196 1 12.5168 3.57716 0.814749 4 0 1.00449 0 0 0 3.52406e-05
271 1 12.1916 4.55033 1.00021 4 0 1.00448 0 0 0 3.63362e-05
1113 1 12.7362 4.99738 1.68903 4 0 1.00449 0 0 0 3.44373e-05
275 1 13.2258 4.67863 0.80017 4 0 1.00448 0 0 0 3.24847e-05
273 1 12.6435 4.61885 0.0632315 4 0 1.00449 0 0 0 3.47826e-05
200 1 13.9891 4.12825 0.69648 4 0 1.00449 0 0 0 2.90966e-05
1034 1 13.4832 4.21781 1.59317 4 0 1.0045 0 0 0 3.13817e-05
1117 1 14.2046 5.11838 1.52001 4 0 1.00448 0 0 0 2.80868e-05
279 1 14.9402 5.01141 0.811699 4 0 1.00447 0 0 0 2.45512e-05
1038 1 14.9642 4.4167 1.59432 4 0 1.00448 0 0 0 2.44348e-05
277 1 14.1405 4.90647 0.0597868 4 0 1.00449 0 0 0 2.83893e-05
198 1 14.961 4.19423 0.096508 4 0 1.00448 0 0 0 2.44504e-05
204 1 15.6685 4.06642 0.926277 4 0 1.00447 0 0 0 2.10362e-05
281 1 15.8798 4.77595 0.186426 4 0 1.00447 0 0 0 2.00343e-05
283 1 16.5936 4.58036 0.900182 4 0 1.00446 0 0 0 1.67663e-05
1042 1 16.3184 3.95875 1.6903 4 0 1.00446 0 0 0 1.80012e-05
1121 1 15.8111 5.05317 1.64084 4 0 1.00445 0 0 0 2.03586e-05
208 1 17.2689 3.83372 0.811237 4 0 1.00446 0 0 0 1.39035e-05
287 1 18.0864 4.48855 1.09806 4 0 1.00445 0 0 0 1.08166e-05
1046 1 17.9525 3.63794 1.65602 4 0 1.00445 0 0 0 1.12912e-05
285 1 17.4569 4.57727 0.0147963 4 0 1.00447 0 0 0 1.31545e-05
206 1 18.1348 3.8547 0.0583493 4 0 1.00447 0 0 0 1.06481e-05
212 1 18.8779 3.70667 0.95022 4 0 1.00446 0 0 0 8.2692e-06
289 1 18.8235 4.60949 0.361826 4 0 1.00446 0 0 0 8.42993e-06
291 1 19.6906 4.67872 1.0803 4 0 1.00446 0 0 0 6.1148e-06
292 1 18.7859 5.27693 1.20102 4 0 1.00445 0 0 0 8.54227e-06
210 1 19.5987 3.76722 0.227421 4 0 1.00447 0 0 0 6.33562e-06
216 1 20.4384 3.82188 1.23329 4 0 1.00447 0 0 0 4.52529e-06
295 1 20.8846 4.71868 1.39403 4 0 1.00447 0 0 0 3.74106e-06
297 1 21.5775 4.95128 0.810455 4 0 1.00447 0 0 0 2.74038e-06
214 1 21.0824 3.93136 0.512408 4 0 1.00447 0 0 0 3.42981e-06
293 1 20.1339 4.78559 0.352846 4 0 1.00446 0 0 0 5.12935e-06
219 1 22.8205 3.63186 1.42135 4 0 1.0045 0 0 0 1.49421e-06
220 1 21.9406 4.13318 1.31068 4 0 1.00449 0 0 0 2.31012e-06
299 1 22.4705 5.17735 1.27286 4 0 1.00448 0 0 0 1.78355e-06
218 1 22.6119 4.34705 0.510028 4 0 1.00448 0 0 0 1.66139e-06
221 1 23.5735 3.63903 0.782677 4 0 1.00449 0 0 0 1.00407e-06
222 1 24.336 4.32055 0.625018 4 0 1.00449 0 0 0 6.5605e-07
224 1 23.4679 4.54946 1.33355 4 0 1.0045 0 0 0 1.06311e-06
305 1 24.8518 5.25716 0.566763 4 0 1.00449 0 0 0 4.85456e-07
301 1 23.5518 5.06386 0.533607 4 0 1.00448 0 0 0 1.01596e-06
228 1 25.0086 4.50055 1.62342 4 0 1.00452 0 0 0 4.42076e-07
225 1 25.0629 3.68037 0.802132 4 0 1.00451 0 0 0 4.27877e-07
303 1 24.363 5.28843 1.43377 4 0 1.00451 0 0 0 6.45963e-07
307 1 25.6904 5.1389 1.34266 4 0 1.00452 0 0 0 2.90858e-07
232 1 26.3575 4.29031 1.37159 4 0 1.00452 0 0 0 1.89672e-07
309 1 26.5026 4.97257 0.640732 4 0 1.00451 0 0 0 1.72414e-07
226 1 25.5284 4.40089 0.388179 4 0 1.0045 0 0 0 3.21824e-07
311 1 27.3302 4.86961 1.40568 4 0 1.00452 0 0 0 9.8484e-08
236 1 27.9624 3.97641 1.10408 4 0 1.00453 0 0 0 6.30336e-08
313 1 28.2771 4.73475 0.706344 4 0 1.00453 0 0 0 5.01773e-08
230 1 27.0674 4.04323 0.570038 4 0 1.00452 0 0 0 1.18005e-07
234 1 28.9321 3.77016 0.487204 4 0 1.00454 0 0 0 3.082e-08
315 1 29.0873 4.52317 1.33085 4 0 1.00454 0 0 0 2.73883e-08
240 1 29.9979 4.07209 1.02303 4 0 1.00456 0 0 0 1.34413e-08
238 1 31.0296 3.97382 0.373364 4 0 1.00457 0 0 0 5.76454e-09
317 1 30.2046 4.67765 0.491317 4 0 1.00456 0 0 0 1.13833e-08
319 1 30.9783 4.59929 1.41131 4 0 1.00457 0 0 0 6.01872e-09
242 1 0.908283 5.53205 0.461647 4 0 1.00458 0 0 0 7.65756e-06
248 1 1.53161 5.51184 1.37971 4 0 1.0046 0 0 0 9.53155e-06
323 1 0.793684 6.22023 1.2768 4 0 1.00459 0 0 0 7.34305e-06
324 1 0.257003 6.91734 1.50738 4 0 1.00459 0 0 0 5.99161e-06
322 1 0.969942 6.9454 0.573423 4 0 1.00457 0 0 0 7.83061e-06
328 1 1.7053 7.02884 1.23811 4 0 1.00459 0 0 0 1.01031e-05
325 1 1.89588 6.19966 0.519025 4 0 1.00458 0 0 0 1.07547e-05
252 1 3.10475 5.61709 1.30057 4 0 1.00457 0 0 0 1.54559e-05
327 1 2.26359 6.15348 1.40977 4 0 1.00459 0 0 0 1.20835e-05
332 1 3.25442 6.96226 1.12748 4 0 1.00457 0 0 0 1.61001e-05
246 1 2.68177 5.61289 0.273587 4 0 1.00457 0 0 0 1.37049e-05
329 1 3.39503 6.28191 0.500536 4 0 1.00456 0 0 0 1.6716e-05
250 1 4.18979 5.46246 0.325783 4 0 1.00454 0 0 0 2.03628e-05
256 1 4.93434 5.42873 1.31778 4 0 1.00452 0 0 0 2.39426e-05
331 1 4.13622 6.09659 1.22779 4 0 1.00455 0 0 0 2.01097e-05
333 1 4.82567 6.23357 0.333842 4 0 1.00452 0 0 0 2.34157e-05
336 1 4.77312 6.79931 1.15967 4 0 1.00453 0 0 0 2.31611e-05
330 1 4.00267 7.02511 0.221759 4 0 1.00454 0 0 0 1.94826e-05
254 1 5.78575 5.42185 0.301847 4 0 1.00451 0 0 0 2.80414e-05
335 1 5.6935 6.24342 0.9632 4 0 1.0045 0 0 0 2.7604e-05
1177 1 6.4578 5.98425 1.59671 4 0 1.00448 0 0 0 3.11227e-05
340 1 6.43234 6.86927 1.00965 4 0 1.00449 0 0 0 3.10102e-05
337 1 6.37773 6.04115 0.154639 4 0 1.0045 0 0 0 3.07676e-05
334 1 5.54993 7.05206 0.147147 4 0 1.00451 0 0 0 2.69186e-05
264 1 8.21355 5.31419 0.694273 4 0 1.00447 0 0 0 3.75266e-05
339 1 7.32761 6.15925 0.754293 4 0 1.00447 0 0 0 3.46759e-05
1098 1 7.39163 5.41839 1.49138 4 0 1.00446 0 0 0 3.49112e-05
1181 1 8.23884 6.11028 1.49159 4 0 1.00446 0 0 0 3.7594e-05
344 1 8.01352 6.85364 0.728993 4 0 1.00447 0 0 0 3.69645e-05
1178 1 7.28191 6.86379 1.59601 4 0 1.00447 0 0 0 3.45055e-05
258 1 7.33029 5.3575 0.0461812 4 0 1.00449 0 0 0 3.46859e-05
268 1 9.76796 5.3194 0.792562 4 0 1.00446 0 0 0 3.99569e-05
343 1 8.88016 6.18865 0.736908 4 0 1.00446 0 0 0 3.90092e-05
1102 1 9.05434 5.3271 1.5973 4 1 1.00445 0 0 0 3.92909e-05
1185 1 9.73844 6.19052 1.46731 4 0 1.00446 0 0 0 3.99453e-05
1182 1 9.09351 6.95013 1.463 4 0 1.00446 0 0 0 3.9348e-05
345 1 9.76329 6.23201 0.0941385 4 0 1.00447 0 0 0 3.99552e-05
262 1 8.99733 5.46479 0.012702 4 0 1.00448 0 0 0 3.92038e-05
347 1 10.5831 6.02196 0.964384 4 0 1.00447 0 0 0 3.97289e-05
349 1 11.3128 6.37134 0.0776634 4 0 1.00448 0 0 0 3.86448e-05
346 1 10.5187 6.94145 0.15452 4 0 1.00447 0 0 0 3.97854e-05
1186 1 10.4686 6.92564 1.49614 4 0 1.00446 0 0 0 3.98247e-05
270 1 11.9994 5.6274 0.183157 4 0 1.00448 0 0 0 3.69264e-05
276 1 12.6757 5.81849 0.861776 4 0 1.00447 0 0 0 3.46637e-05
351 1 11.7774 6.20735 1.05291 4 0 1.00447 0 0 0 3.75508e-05
1114 1 13.3219 5.86668 1.55471 4 0 1.00447 0 0 0 3.20783e-05
355 1 13.3506 6.58297 0.813679 4 0 1.00447 0 0 0 3.19555e-05
274 1 13.3212 5.53867 0.0424813 4 0 1.00448 0 0 0 3.20813e-05
280 1 14.0617 5.71565 0.77266 4 0 1.00447 0 0 0 2.87582e-05
1197 1 14.3278 6.65176 1.40646 4 0 1.00445 0 0 0 2.75025e-05
357 1 14.1303 6.38483 0.0380077 4 0 1.00448 0 0 0 2.8437e-05
278 1 15.0282 5.64393 0.034369 4 0 1.00448 0 0 0 2.41243e-05
284 1 15.8305 5.73813 0.95832 4 0 1.00445 0 0 0 2.02667e-05
359 1 15.0472 6.45091 0.806774 4 0 1.00445 0 0 0 2.40324e-05
363 1 16.491 6.45257 1.1401 4 0 1.00444 0 0 0 1.72224e-05
1118 1 15.1058 5.87594 1.69804 4 0 1.00445 0 0 0 2.3748e-05
282 1 16.62 5.41933 0.276819 4 0 1.00446 0 0 0 1.66497e-05
361 1 15.6753 6.3382 0.0390223 4 0 1.00447 0 0 0 2.10035e-05
286 1 17.8271 5.30128 0.541411 4 0 1.00445 0 0 0 1.17472e-05
288 1 17.113 5.42499 1.24767 4 0 1.00444 0 0 0 1.4541e-05
365 1 17.0619 6.27419 0.411469 4 0 1.00445 0 0 0 1.47534e-05
367 1 17.6649 6.24649 1.38542 4 0 1.00443 0 0 0 1.23526e-05
372 1 18.2745 7.0517 1.13153 4 0 1.00443 0 0 0 1.0171e-05
369 1 18.3714 6.23173 0.609762 4 0 1.00445 0 0 0 9.84813e-06
290 1 19.429 5.75829 0.62055 4 0 1.00445 0 0 0 6.75822e-06
371 1 19.3279 6.55755 1.35081 4 0 1.00443 0 0 0 7.01933e-06
373 1 19.9942 6.75229 0.610261 4 0 1.00445 0 0 0 5.42597e-06
294 1 20.7494 5.77593 0.653722 4 0 1.00446 0 0 0 3.96655e-06
296 1 20.1931 5.61076 1.39557 4 0 1.00445 0 0 0 5.00726e-06
375 1 20.7787 6.6124 1.30355 4 0 1.00445 0 0 0 3.91683e-06
377 1 21.6592 6.66248 0.666524 4 0 1.00445 0 0 0 2.6383e-06
300 1 21.6631 5.87866 1.38528 4 0 1.00447 0 0 0 2.63355e-06
16260 1 21.6904 5.73259 0.0517844 4 0 1.00446 0 0 0 2.60014e-06
298 1 22.6732 5.8279 0.674154 4 0 1.00447 0 0 0 1.61069e-06
379 1 22.6319 6.69333 1.20734 4 0 1.00446 0 0 0 1.64472e-06
381 1 23.3484 6.78052 0.267835 4 0 1.00446 0 0 0 1.13346e-06
304 1 23.4822 5.88496 1.30013 4 0 1.00449 0 0 0 1.05496e-06
383 1 24.3197 6.56281 1.15825 4 0 1.00449 0 0 0 6.62212e-07
302 1 24.1457 6.00685 0.427617 4 0 1.00448 0 0 0 7.31135e-07
306 1 25.6831 5.86213 0.700952 4 0 1.0045 0 0 0 2.92206e-07
308 1 25.1124 6.04132 1.67733 4 0 1.00452 0 0 0 4.15268e-07
385 1 25.1593 6.74159 0.495153 4 0 1.00448 0 0 0 4.03645e-07
387 1 25.8251 6.59457 1.40775 4 0 1.00451 0 0 0 2.67198e-07
312 1 26.6903 5.84511 1.4763 4 0 1.00452 0 0 0 1.52219e-07
310 1 27.4966 5.54334 0.722172 4 0 1.00451 0 0 0 8.77101e-08
389 1 26.7485 6.36567 0.651888 4 0 1.0045 0 0 0 1.46407e-07
391 1 27.7011 6.47315 1.36539 4 0 1.00452 0 0 0 7.59463e-08
316 1 28.3648 5.52203 1.4872 4 0 1.00453 0 0 0 4.70566e-08
390 1 27.7097 7.0074 0.530173 4 0 1.0045 0 0 0 7.54861e-08
314 1 29.3889 5.30889 0.818726 4 0 1.00454 0 0 0 2.17155e-08
395 1 29.4379 6.18214 1.32212 4 0 1.00454 0 0 0 2.09049e-08
394 1 29.5784 6.89773 0.506505 4 0 1.00453 0 0 0 1.87348e-08
393 1 28.4685 6.20589 0.638647 4 0 1.00452 0 0 0 4.35934e-08
16355 1 29.3762 6.15398 0.0801838 4 0 1.00453 0 0 0 2.19312e-08
16276 1 28.4822 5.38976 0.0592959 4 0 1.00453 0 0 0 4.31561e-08
318 1 30.9636 5.36838 0.595026 4 0 1.00457 0 0 0 6.09334e-09
320 1 30.2159 5.45949 1.46813 4 0 1.00456 0 0 0 1.12793e-08
397 1 30.3958 6.18258 0.649752 4 0 1.00455 0 0 0 9.74633e-09
399 1 31.2189 6.15516 1.38439 4 0 1.00458 0 0 0 4.91243e-09
398 1 31.1994 6.95407 0.60342 4 0 1.00456 0 0 0 4.99437e-09
321 1 31.7235 5.99622 0.446564 4 0 1.00457 0 0 0 3.18503e-09
401 1 0.261851 7.63199 0.661866 4 0 1.00456 0 0 0 6.00293e-06
402 1 0.831025 8.46344 0.61936 4 0 1.00455 0 0 0 7.44451e-06
403 1 1.11211 7.86396 1.49711 4 0 1.00458 0 0 0 8.23988e-06
404 1 0.356955 8.5626 1.47035 4 0 1.00457 0 0 0 6.22836e-06
405 1 1.59266 7.76478 0.37187 4 0 1.00456 0 0 0 9.72997e-06
408 1 1.72382 8.61735 1.46471 4 0 1.00457 0 0 0 1.01652e-05
326 1 2.48799 7.14986 0.476331 4 0 1.00456 0 0 0 1.29393e-05
406 1 2.19177 8.6335 0.399707 4 0 1.00455 0 0 0 1.18167e-05
407 1 2.39416 7.81099 1.27726 4 0 1.00458 0 0 0 1.25774e-05
412 1 3.01349 8.51445 0.935533 4 0 1.00455 0 0 0 1.50692e-05
409 1 3.24418 7.77117 0.327041 4 0 1.00455 0 0 0 1.60556e-05
410 1 3.81243 8.45898 0.0822892 4 0 1.00453 0 0 0 1.85999e-05
411 1 3.97971 7.67009 1.24863 4 0 1.00455 0 0 0 1.93753e-05
416 1 4.70459 8.25653 0.921772 4 0 1.00452 0 0 0 2.28295e-05
413 1 4.67023 7.63706 0.247803 4 0 1.00452 0 0 0 2.26634e-05
1250 1 3.81127 8.34851 1.76162 4 0 1.00456 0 0 0 1.85946e-05
414 1 5.86955 8.34822 0.169905 4 0 1.00449 0 0 0 2.84363e-05
415 1 5.48363 7.59071 1.03232 4 0 1.00451 0 0 0 2.66004e-05
417 1 6.49365 7.53799 0.169175 4 0 1.00449 0 0 0 3.12803e-05
420 1 6.39674 8.23976 1.04384 4 0 1.00449 0 0 0 3.08522e-05
419 1 7.28583 7.76918 0.746313 4 0 1.00447 0 0 0 3.45202e-05
424 1 8.2859 8.31376 0.868772 4 0 1.00447 0 0 0 3.77172e-05
1258 1 7.27857 8.18368 1.7015 4 0 1.00448 0 0 0 3.4493e-05
1261 1 8.05208 7.48784 1.5604 4 1 1.00446 0 0 0 3.70768e-05
421 1 7.99895 7.60312 0.0282118 4 0 1.00447 0 0 0 3.69215e-05
348 1 9.84313 7.22199 0.72344 4 0 1.00446 0 0 0 3.99803e-05
423 1 8.91207 7.61626 0.661731 4 0 1.00446 0 0 0 3.90642e-05
428 1 9.73234 8.61964 0.693151 4 0 1.00446 0 0 0 3.99427e-05
1262 1 9.09265 8.69904 1.44495 4 0 1.00446 0 0 0 3.93468e-05
1265 1 9.64026 7.88932 1.60055 4 0 1.00446 0 0 0 3.98966e-05
352 1 11.3161 7.14287 0.810636 4 0 1.00447 0 0 0 3.86381e-05
427 1 10.5731 7.9454 0.844311 4 0 1.00446 0 0 0 3.97381e-05
1266 1 10.5877 8.70196 1.4255 4 0 1.00447 0 0 0 3.97247e-05
1269 1 11.4057 7.80503 1.60301 4 0 1.00447 0 0 0 3.845e-05
429 1 11.227 8.11851 0.0422735 4 0 1.00447 0 0 0 3.88136e-05
356 1 12.7061 7.28322 0.565784 4 0 1.00447 0 0 0 3.45502e-05
431 1 12.178 8.23518 0.590765 4 0 1.00447 0 0 0 3.63796e-05
1190 1 12.0637 7.15788 1.37768 4 0 1.00447 0 0 0 3.67339e-05
1270 1 12.0887 8.68064 1.49044 4 0 1.00446 0 0 0 3.66578e-05
1273 1 12.8601 7.99585 1.47598 4 0 1.00446 0 0 0 3.39631e-05
360 1 14.3373 7.3542 0.580954 4 0 1.00446 0 0 0 2.74573e-05
435 1 13.6169 8.09282 0.464536 4 0 1.00446 0 0 0 3.07915e-05
1194 1 13.458 7.34024 1.34133 4 0 1.00445 0 0 0 3.14919e-05
1277 1 14.2471 8.18371 1.35246 4 0 1.00444 0 0 0 2.78858e-05
362 1 16.4328 7.18497 0.276798 4 0 1.00445 0 0 0 1.74835e-05
364 1 15.6276 7.3114 0.923132 4 0 1.00444 0 0 0 2.12315e-05
439 1 15.0689 8.29247 0.865596 4 0 1.00444 0 0 0 2.39267e-05
443 1 16.26 8.16052 1.11176 4 0 1.00443 0 0 0 1.82677e-05
1198 1 15.1452 7.52269 1.62484 4 0 1.00443 0 0 0 2.3557e-05
441 1 15.8668 8.31534 0.152632 4 0 1.00446 0 0 0 2.00953e-05
368 1 16.977 7.36262 1.11681 4 0 1.00443 0 0 0 1.51091e-05
445 1 17.0683 8.10487 0.342208 4 0 1.00445 0 0 0 1.47269e-05
447 1 17.703 8.02386 1.02699 4 0 1.00443 0 0 0 1.22086e-05
366 1 17.816 7.16593 0.212954 4 0 1.00445 0 0 0 1.17882e-05
370 1 19.0043 7.33822 0.644529 4 0 1.00444 0 0 0 7.90356e-06
451 1 18.9276 8.15325 1.18625 4 0 1.00442 0 0 0 8.12421e-06
376 1 19.871 7.65743 1.3273 4 0 1.00443 0 0 0 5.6982e-06
453 1 19.8034 8.14191 0.360639 4 0 1.00444 0 0 0 5.85178e-06
449 1 18.4485 8.18989 0.168602 4 0 1.00445 0 0 0 9.596e-06
374 1 20.6988 7.46059 0.673449 4 0 1.00444 0 0 0 4.05348e-06
455 1 20.6463 8.44048 1.03669 4 0 1.00443 0 0 0 4.14546e-06
380 1 21.5411 7.67297 1.15048 4 0 1.00444 0 0 0 2.78691e-06
457 1 21.6115 8.34459 0.258573 4 0 1.00444 0 0 0 2.69753e-06
459 1 22.5864 8.17833 1.02102 4 0 1.00445 0 0 0 1.68289e-06
1218 1 22.417 7.50131 1.75996 4 0 1.00445 0 0 0 1.83173e-06
378 1 22.3364 7.48462 0.386381 4 0 1.00445 0 0 0 1.90629e-06
384 1 23.4446 7.32194 1.0516 4 0 1.00446 0 0 0 1.07649e-06
461 1 23.4881 8.07549 0.386864 4 0 1.00446 0 0 0 1.05159e-06
463 1 24.3435 8.10177 1.00287 4 0 1.00447 0 0 0 6.5323e-07
1302 1 24.2519 8.71797 1.68854 4 0 1.00446 0 0 0 6.88362e-07
382 1 24.3392 7.32545 0.26928 4 0 1.00447 0 0 0 6.5482e-07
388 1 25.1162 7.39484 1.25566 4 0 1.00449 0 0 0 4.14331e-07
467 1 26.02 8.00574 0.988901 4 0 1.00449 0 0 0 2.36006e-07
1306 1 26.0181 8.62842 1.75809 4 0 1.00449 0 0 0 2.36292e-07
386 1 26.0919 7.27875 0.36814 4 0 1.00448 0 0 0 2.25348e-07
465 1 25.2288 8.1324 0.307821 4 0 1.00447 0 0 0 3.86943e-07
466 1 26.2729 8.58549 0.0891813 4 0 1.00448 0 0 0 2.00434e-07
392 1 26.7829 7.11176 1.34398 4 0 1.00451 0 0 0 1.43072e-07
470 1 27.9642 8.50472 0.429665 4 0 1.0045 0 0 0 6.29532e-08
471 1 27.7958 7.83833 1.21519 4 0 1.00451 0 0 0 7.10097e-08
472 1 26.9761 8.65498 1.02594 4 0 1.00449 0 0 0 1.2557e-07
469 1 26.996 7.78335 0.434662 4 0 1.00449 0 0 0 1.23885e-07
396 1 28.6515 7.11327 1.23056 4 0 1.00452 0 0 0 3.80572e-08
474 1 29.5942 8.35338 0.54453 4 0 1.00452 0 0 0 1.85032e-08
475 1 29.4977 7.67807 1.27669 4 0 1.00453 0 0 0 1.99541e-08
476 1 28.7798 8.55882 1.18636 4 0 1.00452 0 0 0 3.45716e-08
473 1 28.6951 7.71879 0.416043 4 0 1.00451 0 0 0 3.68362e-08
400 1 30.3249 7.09182 1.17973 4 0 1.00455 0 0 0 1.03257e-08
479 1 31.2503 7.82438 1.3018 4 0 1.00456 0 0 0 4.78313e-09
480 1 30.4298 8.49193 1.18422 4 0 1.00454 0 0 0 9.47896e-09
477 1 30.6367 7.87308 0.379941 4 0 1.00454 0 0 0 7.998e-09
478 1 31.4248 8.62324 0.390578 4 0 1.00454 0 0 0 4.12141e-09