ITEM: TIMESTEP
0
ITEM: NUMBER OF ATOMS
3929
ITEM: BOX BOUNDS ss ss pp
-2.4974137115652639e+00 2.5033347898951872e+00
-2.4995521139043730e+00 2.5003205103406279e+00
-2.5000000000000000e+00 2.5000000000000000e+00
ITEM: ATOMS id type x y vx vy fx fy c_den c_phase f_rheo_chi_chi c_eta c_surf c_rtemp
6 1 -0.848115 -2.34824 -0.00848115 0.0234824 0.000750932 -0.00136035 1 0 1 2 2 1
7 1 -0.752807 -2.35089 -0.00752807 0.0235089 8.43505e-06 -0.00143366 1 0 1 2 2 1
8 1 -0.647781 -2.34936 -0.00647781 0.0234936 0.000350465 -0.000994707 1 0 1 2 2 1
9 1 -0.598717 -2.40305 -0.00598717 0.0240305 0.000641877 -0.00147152 1 0 1 2 2 1
10 1 -0.552569 -2.34802 -0.00552569 0.0234802 0.000178359 -0.0007112 1 0 1 2 1 1
11 1 -0.501211 -2.39756 -0.00501211 0.0239756 0.000356792 -0.00115009 1 0 1 2 1 1
1 1 -0.448238 -2.44862 -0.00448238 0.0244862 0.000596941 -0.00143214 1 0 1 2 2 1
2 1 -0.352684 -2.44999 -0.00352684 0.0244999 -8.40888e-05 -0.00136115 1 0 1 2 2 1
12 1 -0.449512 -2.34971 -0.00449512 0.0234971 5.45841e-05 -0.000118992 1 0 1 2 1 1
13 1 -0.403525 -2.40282 -0.00403525 0.0240282 9.57653e-05 -0.000906818 1 0 1 2 1 1
14 1 -0.348659 -2.34822 -0.00348659 0.0234822 -7.39806e-05 -0.000125489 1 0 1 2 1 1
3 1 -0.249868 -2.44798 -0.00249868 0.0244798 8.53898e-05 -0.00135506 1 0 1 2 2 1
15 1 -0.301721 -2.40184 -0.00301721 0.0240184 4.28348e-05 -0.000925208 1 0 1 2 1 1
16 1 -0.247933 -2.34978 -0.00247933 0.0234978 -5.45275e-06 -0.000116801 1 0 1 2 1 1
17 1 -0.198338 -2.40352 -0.00198338 0.0240352 -1.25501e-05 -0.000927402 1 0 1 2 1 1
4 1 -0.153428 -2.44871 -0.00153428 0.0244871 6.10272e-05 -0.00137883 1 0 1 2 2 1
5 1 -0.0502342 -2.447 -0.000502342 0.02447 0.000239375 -0.00113395 1 0 1 2 2 1
18 1 -0.153181 -2.34983 -0.00153181 0.0234983 3.63859e-06 -0.000113031 1 0 1 2 1 1
19 1 -0.0981738 -2.40298 -0.000981738 0.0240298 5.70305e-05 -0.000859859 1 0 1 2 1 1
20 1 -0.0502769 -2.35075 -0.000502769 0.0235075 9.90011e-05 -7.84605e-06 1 0 1 2 1 1
1940 1 -0.0021309 -2.49905 -2.1309e-05 0.0249905 1.04872e-05 -0.00146344 1 0 1 2 2 1
43 1 -1.10052 -2.20265 -0.0110052 0.0220265 0.000981748 -0.00109724 1 0 1 2 2 1
21 1 -1.05333 -2.24904 -0.0105333 0.0224904 0.000673026 -0.00143416 1 0 1 2 2 1
22 1 -0.951546 -2.25225 -0.00951546 0.0225225 0.000496118 -0.00111711 1 0 1 2 1 1
45 1 -1.00032 -2.1967 -0.0100032 0.021967 8.01421e-05 -0.000790564 1 0 1 2 1 1
23 1 -0.90141 -2.29762 -0.0090141 0.0229762 0.000878237 -0.00115854 1 0 1 2 2 1
24 1 -0.84666 -2.24793 -0.0084666 0.0224793 8.11899e-05 -0.000257994 1 0 1 2 1 1
25 1 -0.797055 -2.30341 -0.00797055 0.0230341 0.000130961 -0.00087085 1 0 1 2 1 1
47 1 -0.89752 -2.20221 -0.0089752 0.0220221 0.000131696 -0.00012656 1 0 1 2 1 1
49 1 -0.802681 -2.19784 -0.00802681 0.0219784 -0.000108855 5.43476e-05 1 0 1 2 1 1
26 1 -0.750689 -2.25295 -0.00750689 0.0225295 -0.000107761 -9.87561e-06 1 0 1 2 1 1
27 1 -0.703083 -2.30337 -0.00703083 0.0230337 -2.85978e-05 -0.000810537 1 0 1 2 1 1
28 1 -0.64726 -2.24815 -0.0064726 0.0224815 3.674e-05 -9.55293e-05 1 0 1 2 1 1
51 1 -0.699678 -2.19948 -0.00699678 0.0219948 0.00011054 -0.000140166 1 0 1 2 1 1
29 1 -0.597791 -2.30215 -0.00597791 0.0230215 0.000122359 -0.000231781 1 0 1 2 1 1
30 1 -0.550524 -2.24842 -0.00550524 0.0224842 4.36146e-05 6.98831e-05 1 0 1 2 1 1
31 1 -0.497883 -2.30066 -0.00497883 0.0230066 -5.75126e-05 -6.76833e-05 1 0 1 2 1 1
53 1 -0.599197 -2.19728 -0.00599197 0.0219728 -0.000251739 0.000921031 1 0 1 2 1 1
55 1 -0.497529 -2.20095 -0.00497529 0.0220095 -0.000518173 0.000302599 1 0 1 2 1 1
32 1 -0.447781 -2.24791 -0.00447781 0.0224791 -0.000393595 0.000879986 1 0 1 2 1 1
33 1 -0.396851 -2.30306 -0.00396851 0.0230306 1.85015e-05 -8.19263e-05 1 0 1 2 1 1
34 1 -0.352299 -2.24753 -0.00352299 0.0224753 0.000121177 0.000921788 1 0 1 2 1 1
57 1 -0.398597 -2.19907 -0.00398597 0.0219907 0.000107963 -0.000312328 1 0 1 2 0 1
35 1 -0.301329 -2.29919 -0.00301329 0.0229919 -1.40066e-05 -6.03273e-05 1 0 1 2 1 1
36 1 -0.250004 -2.24773 -0.00250004 0.0224773 1.12763e-05 0.000865802 1 0 1 2 1 1
37 1 -0.202925 -2.29771 -0.00202925 0.0229771 8.85503e-05 1.76162e-05 1 0 1 2 1 1
59 1 -0.302228 -2.19728 -0.00302228 0.0219728 -7.68562e-07 -0.000140541 1 0 1 2 0 1
61 1 -0.200977 -2.20033 -0.00200977 0.0220033 2.73248e-05 -0.000112628 1 0 1 2 0 1
38 1 -0.146495 -2.25166 -0.00146495 0.0225166 -0.000124784 0.000859995 1 0 1 2 1 1
39 1 -0.102776 -2.30112 -0.00102776 0.0230112 -6.9567e-06 -9.85961e-05 1 0 1 2 1 1
40 1 -0.050833 -2.25017 -0.00050833 0.0225017 -4.30733e-06 0.000839442 1 0 1 2 1 1
63 1 -0.0993115 -2.20344 -0.000993115 0.0220344 3.28396e-06 -0.000186467 1 0 1 2 0 1
1983 1 -0.00334998 -2.20331 -3.34998e-05 0.0220331 1.20686e-06 -0.000187635 1 0 1 2 0 1
41 1 -1.24922 -2.15037 -0.0124922 0.0215037 0.000670627 -0.00140121 1 0 1 2 2 1
65 1 -1.35203 -2.05283 -0.0135203 0.0205283 0.000994634 -0.00102045 1 0 1 2 2 1
66 1 -1.30335 -2.10049 -0.0130335 0.0210049 0.000979234 -0.00115192 1 0 1 2 2 1
42 1 -1.15235 -2.14694 -0.0115235 0.0214694 0.000348881 -0.00107175 1 0 1 2 1 1
67 1 -1.24867 -2.04763 -0.0124867 0.0204763 0.00020274 -0.000209174 1 0 1 2 1 1
68 1 -1.20135 -2.09687 -0.0120135 0.0209687 0.000187747 -0.000821539 1 0 1 2 1 1
69 1 -1.15045 -2.04932 -0.0115045 0.0204932 -0.000111325 -7.14425e-05 1 0 1 2 1 1
70 1 -1.10149 -2.10124 -0.0110149 0.0210124 5.91723e-05 -0.000183295 1 0 1 2 1 1
44 1 -1.04692 -2.15234 -0.0104692 0.0215234 0.000218422 -0.000201229 1 0 1 2 1 1
46 1 -0.95121 -2.15064 -0.0095121 0.0215064 -8.98647e-05 -0.000156599 1 0 1 2 1 1
71 1 -1.05003 -2.04779 -0.0105003 0.0204779 1.11215e-05 2.28223e-05 1 0 1 2 1 1
72 1 -1.00353 -2.10161 -0.0100353 0.0210161 0.000108019 8.50127e-05 1 0 1 2 1 1
73 1 -0.94787 -2.05273 -0.0094787 0.0205273 -0.000843817 0.000302376 1 0 1 2 1 1
48 1 -0.851838 -2.15193 -0.00851838 0.0215193 1.45197e-05 6.2991e-05 1 0 1 2 1 1
74 1 -0.901568 -2.09813 -0.00901568 0.0209813 -0.000148466 0.00099404 1 0 1 2 1 1
75 1 -0.850956 -2.05054 -0.00850956 0.0205054 0.000289353 -8.06557e-05 1 0 1 2 0 1
76 1 -0.797931 -2.1003 -0.00797931 0.021003 -0.000466819 0.000349855 1 0 1 2 1 1
50 1 -0.746748 -2.14681 -0.00746748 0.0214681 -0.000257812 0.000851515 1 0 1 2 1 1
52 1 -0.646749 -2.14746 -0.00646749 0.0214746 -0.00041485 0.000272434 1 0 1 2 1 1
77 1 -0.750786 -2.0482 -0.00750786 0.020482 0.000166643 -0.000426048 1 0 1 2 0 1
78 1 -0.699713 -2.10237 -0.00699713 0.0210237 0.000295165 -7.13666e-05 1 0 1 2 0 1
79 1 -0.651385 -2.05172 -0.00651385 0.0205172 7.33871e-05 -0.00015613 1 0 1 2 0 1
54 1 -0.551347 -2.14798 -0.00551347 0.0214798 0.000307815 -0.000118017 1 0 1 2 1 1
80 1 -0.602434 -2.09746 -0.00602434 0.0209746 0.000156676 -0.000413345 1 0 1 2 0 1
81 1 -0.546985 -2.04991 -0.00546985 0.0204991 3.80145e-06 -1.96522e-05 1 0 1 2 0 1
82 1 -0.499014 -2.09804 -0.00499014 0.0209804 6.51798e-05 -0.000124611 1 0 1 2 0 1
56 1 -0.451632 -2.14761 -0.00451632 0.0214761 0.000158813 -0.000394871 1 0 1 2 0 1
58 1 -0.348116 -2.15061 -0.00348116 0.0215061 -9.5498e-06 -0.000270044 1 0 1 2 0 1
83 1 -0.449585 -2.04951 -0.00449585 0.0204951 4.76986e-07 -6.59489e-07 1 0 1 2 0 1
84 1 -0.402426 -2.1032 -0.00402426 0.021032 5.98604e-06 -2.27093e-05 1 0 1 2 0 1
85 1 -0.349576 -2.05327 -0.00349576 0.0205327 1.41349e-20 2.71029e-18 1 0 1 2 0 1
60 1 -0.252548 -2.15137 -0.00252548 0.0215137 -2.8981e-06 -0.00028506 1 0 1 2 0 1
86 1 -0.299749 -2.10346 -0.00299749 0.0210346 -4.60009e-07 -2.25759e-05 1 0 1 2 0 1
87 1 -0.24995 -2.05323 -0.0024995 0.0205323 -6.16481e-19 2.07925e-18 1 0 1 2 0 1
88 1 -0.198836 -2.10288 -0.00198836 0.0210288 5.65521e-07 -2.45737e-05 1 0 1 2 0 1
62 1 -0.149559 -2.1534 -0.00149559 0.021534 1.27773e-05 -0.000289662 1 0 1 2 0 1
64 1 -0.0479943 -2.14848 -0.000479943 0.0214848 3.17846e-06 -0.00026229 1 0 1 2 0 1
89 1 -0.147219 -2.0493 -0.00147219 0.020493 4.87891e-19 1.28749e-18 1 0 1 2 0 1
90 1 -0.101748 -2.09931 -0.00101748 0.0209931 4.28788e-07 -1.2125e-05 1 0 1 2 0 1
91 1 -0.0523797 -2.05169 -0.000523797 0.0205169 -3.11708e-19 9.64771e-19 1 0 1 2 0 1
124 1 -1.60121 -1.90223 -0.0160121 0.0190223 0.00113421 -0.00108967 1 0 1 2 2 1
92 1 -1.55012 -1.94983 -0.0155012 0.0194983 0.000975262 -0.00112727 1 0 1 2 2 1
93 1 -1.5009 -2.00055 -0.015009 0.0200055 0.000717283 -0.00144721 1 0 1 2 2 1
94 1 -1.45231 -1.9517 -0.0145231 0.019517 4.51064e-05 -0.000837513 1 0 1 2 1 1
126 1 -1.50263 -1.90204 -0.0150263 0.0190204 0.000136576 -0.000135222 1 0 1 2 1 1
95 1 -1.40149 -1.99968 -0.0140149 0.0199968 0.000322565 -0.000983334 1 0 1 2 1 1
96 1 -1.34932 -1.9512 -0.0134932 0.019512 5.57619e-05 -0.000183839 1 0 1 2 1 1
97 1 -1.29801 -2.00235 -0.0129801 0.0200235 0.000241059 -0.000129909 1 0 1 2 1 1
128 1 -1.40332 -1.89786 -0.0140332 0.0189786 -7.02247e-06 -6.03219e-05 1 0 1 2 1 1
130 1 -1.29886 -1.89877 -0.0129886 0.0189877 3.65604e-05 6.11993e-06 1 0 1 2 1 1
98 1 -1.24833 -1.95055 -0.0124833 0.0195055 8.14096e-05 2.57718e-05 1 0 1 2 1 1
99 1 -1.19839 -2.00246 -0.0119839 0.0200246 -3.3131e-05 3.32924e-05 1 0 1 2 1 1
100 1 -1.1513 -1.94828 -0.011513 0.0194828 -0.000752335 0.000477367 1 0 1 2 1 1
101 1 -1.09959 -1.99677 -0.0109959 0.0199677 -0.000141784 0.00096964 1 0 1 2 1 1
132 1 -1.19703 -1.89663 -0.0119703 0.0189663 -0.000595534 0.000423041 1 0 1 2 1 1
134 1 -1.0978 -1.90318 -0.010978 0.0190318 0.000292982 -0.00049335 1 0 1 2 0 1
102 1 -1.04667 -1.94713 -0.0104667 0.0194713 0.000272666 -4.50042e-05 1 0 1 2 0 1
103 1 -0.998952 -2.00345 -0.00998952 0.0200345 -0.000404744 0.0004745 1 0 1 2 1 1
104 1 -0.947651 -1.95247 -0.00947651 0.0195247 0.000227558 -0.000293265 1 0 1 2 0 1
136 1 -1.00087 -1.90316 -0.0100087 0.0190316 8.39602e-05 -0.000158427 1 0 1 2 0 1
105 1 -0.896619 -2.0005 -0.00896619 0.020005 0.000257838 -0.000458897 1 0 1 2 0 1
106 1 -0.85206 -1.95126 -0.0085206 0.0195126 4.54364e-06 -1.77948e-05 1 0 1 2 0 1
107 1 -0.801971 -2.00004 -0.00801971 0.0200004 6.39645e-05 -0.00013674 1 0 1 2 0 1
138 1 -0.900951 -1.90348 -0.00900951 0.0190348 6.48928e-06 -6.54296e-06 1 0 1 2 0 1
140 1 -0.8018 -1.89787 -0.008018 0.0189787 -1.01115e-19 -1.15535e-18 1 0 1 2 0 1
108 1 -0.748957 -1.95196 -0.00748957 0.0195196 3.40101e-07 -4.59294e-07 1 0 1 2 0 1
109 1 -0.70321 -2.00097 -0.0070321 0.0200097 3.83299e-06 -1.98924e-05 1 0 1 2 0 1
110 1 -0.652824 -1.947 -0.00652824 0.01947 1.8423e-19 1.12068e-18 1 0 1 2 0 1
142 1 -0.697727 -1.89653 -0.00697727 0.0189653 3.44848e-18 -1.12232e-18 1 0 1 2 0 1
111 1 -0.599786 -2.00057 -0.00599786 0.0200057 5.36644e-07 -7.61998e-07 1 0 1 2 0 1
112 1 -0.552102 -1.94955 -0.00552102 0.0194955 -1.34488e-18 -1.36092e-18 1 0 1 2 0 1
113 1 -0.498729 -1.99814 -0.00498729 0.0199814 -2.94429e-18 -2.26327e-18 1 0 1 2 0 1
144 1 -0.603475 -1.90336 -0.00603475 0.0190336 7.47189e-19 -4.9742e-19 1 0 1 2 0 1
146 1 -0.499935 -1.90291 -0.00499935 0.0190291 -2.89479e-18 -3.49507e-19 1 0 1 2 0 1
114 1 -0.448797 -1.94832 -0.00448797 0.0194832 -1.69407e-19 9.18184e-19 1 0 1 2 0 1
115 1 -0.401067 -2.00274 -0.00401067 0.0200274 8.40839e-19 -3.32852e-18 1 0 1 2 0 1
116 1 -0.352017 -1.9516 -0.00352017 0.019516 -4.76509e-19 1.0221e-18 1 0 1 2 0 1
148 1 -0.398782 -1.90004 -0.00398782 0.0190004 2.7591e-18 -2.74587e-18 1 0 1 2 0 1
117 1 -0.300476 -1.99784 -0.00300476 0.0199784 6.97955e-19 -1.46367e-18 1 0 1 2 0 1
118 1 -0.252037 -1.95086 -0.00252037 0.0195086 -4.79527e-19 1.61603e-18 1 0 1 2 0 1
119 1 -0.197137 -1.99945 -0.00197137 0.0199945 1.08166e-18 -1.0301e-18 1 0 1 2 0 1
150 1 -0.2981 -1.90123 -0.002981 0.0190123 1.55081e-18 -1.83404e-18 1 0 1 2 0 1
152 1 -0.202389 -1.9012 -0.00202389 0.019012 -1.43651e-18 3.0237e-18 1 0 1 2 0 1
120 1 -0.152458 -1.95243 -0.00152458 0.0195243 2.28699e-20 1.26547e-18 1 0 1 2 0 1
121 1 -0.100358 -1.99944 -0.00100358 0.0199944 -1.84314e-18 1.40946e-18 1 0 1 2 0 1
122 1 -0.0491883 -1.94822 -0.000491883 0.0194822 -4.33681e-19 -5.42101e-19 1 0 1 2 0 1
154 1 -0.0979915 -1.89997 -0.000979915 0.0189997 -9.75782e-19 2.1684e-18 1 0 1 2 0 1
2036 1 -0.0002133 -1.99991 -2.133e-06 0.0199991 0 -9.75782e-19 1 0 1 2 0 1
2068 1 -0.00267431 -1.90343 -2.67431e-05 0.0190343 3.1984e-18 -7.04731e-19 1 0 1 2 0 1
156 1 -1.75291 -1.74661 -0.0175291 0.0174661 0.00103178 -0.00118692 1 0 1 2 2 1
123 1 -1.64755 -1.85075 -0.0164755 0.0185075 0.00106896 -0.00106449 1 0 1 2 2 1
157 1 -1.70012 -1.79649 -0.0170012 0.0179649 0.00106042 -0.00104297 1 0 1 2 2 1
158 1 -1.65196 -1.75222 -0.0165196 0.0175222 0.000245268 -0.000119126 1 0 1 2 1 1
159 1 -1.60058 -1.79781 -0.0160058 0.0179781 5.61574e-05 -0.00010908 1 0 1 2 1 1
125 1 -1.55324 -1.85261 -0.0155324 0.0185261 0.000150374 -9.17029e-05 1 0 1 2 1 1
127 1 -1.44941 -1.85212 -0.0144941 0.0185212 2.57688e-05 5.02419e-06 1 0 1 2 1 1
160 1 -1.55348 -1.74679 -0.0155348 0.0174679 5.84751e-05 -2.67169e-05 1 0 1 2 1 1
161 1 -1.49934 -1.80102 -0.0149934 0.0180102 -1.8722e-05 -5.16196e-05 1 0 1 2 1 1
162 1 -1.45231 -1.74951 -0.0145231 0.0174951 -0.000514548 0.000594072 1 0 1 2 1 1
129 1 -1.35041 -1.85261 -0.0135041 0.0185261 -0.000159328 0.000915838 1 0 1 2 1 1
131 1 -1.2511 -1.85325 -0.012511 0.0185325 -0.000346727 0.000561474 1 0 1 2 1 1
163 1 -1.40053 -1.79984 -0.0140053 0.0179984 -0.000705495 0.000432594 1 0 1 2 1 1
164 1 -1.34899 -1.74766 -0.0134899 0.0174766 0.000264627 -0.000433132 1 0 1 2 0 1
165 1 -1.29849 -1.7986 -0.0129849 0.017986 0.000282655 -7.08033e-05 1 0 1 2 0 1
166 1 -1.25057 -1.75174 -0.0125057 0.0175174 7.3722e-05 -0.000145371 1 0 1 2 0 1
133 1 -1.14872 -1.85211 -0.0114872 0.0185211 0.00037593 -0.000394329 1 0 1 2 0 1
167 1 -1.20196 -1.80006 -0.0120196 0.0180006 0.000238091 -0.00031913 1 0 1 2 0 1
168 1 -1.14853 -1.75095 -0.0114853 0.0175095 4.47971e-06 -4.61017e-06 1 0 1 2 0 1
169 1 -1.09827 -1.79984 -0.0109827 0.0179984 3.94891e-06 -3.88084e-06 1 0 1 2 0 1
135 1 -1.05269 -1.85155 -0.0105269 0.0185155 6.41476e-06 -2.78487e-05 1 0 1 2 0 1
137 1 -0.948632 -1.85324 -0.00948632 0.0185324 9.6144e-07 -1.3711e-06 1 0 1 2 0 1
170 1 -1.04913 -1.75073 -0.0104913 0.0175073 2.30496e-18 -1.02809e-19 1 0 1 2 0 1
171 1 -0.999072 -1.80131 -0.00999072 0.0180131 -8.47562e-19 -1.72175e-18 1 0 1 2 0 1
172 1 -0.949965 -1.74971 -0.00949965 0.0174971 -2.45364e-18 2.01806e-18 1 0 1 2 0 1
139 1 -0.850122 -1.84924 -0.00850122 0.0184924 3.87094e-19 9.82558e-20 1 0 1 2 0 1
173 1 -0.900317 -1.7967 -0.00900317 0.017967 -3.26955e-19 1.36425e-19 1 0 1 2 0 1
174 1 -0.848939 -1.75046 -0.00848939 0.0175046 -9.48836e-19 7.66247e-19 1 0 1 2 0 1
175 1 -0.797267 -1.79767 -0.00797267 0.0179767 -1.50772e-19 -2.91803e-18 1 0 1 2 0 1
141 1 -0.751149 -1.84871 -0.00751149 0.0184871 -9.54606e-19 -5.98005e-19 1 0 1 2 0 1
143 1 -0.647957 -1.84781 -0.00647957 0.0184781 -1.49417e-18 2.48689e-18 1 0 1 2 0 1
176 1 -0.748574 -1.75086 -0.00748574 0.0175086 -1.66405e-18 -1.64938e-18 1 0 1 2 0 1
177 1 -0.700233 -1.80155 -0.00700233 0.0180155 1.61444e-18 -2.5592e-18 1 0 1 2 0 1
178 1 -0.64939 -1.75262 -0.0064939 0.0175262 -9.23478e-19 1.01623e-18 1 0 1 2 0 1
145 1 -0.547729 -1.85153 -0.00547729 0.0185153 -2.37339e-18 1.64324e-18 1 0 1 2 0 1
179 1 -0.598365 -1.79918 -0.00598365 0.0179918 2.1792e-18 -2.7374e-18 1 0 1 2 0 1
180 1 -0.547254 -1.74968 -0.00547254 0.0174968 -2.21891e-18 1.9558e-18 1 0 1 2 0 1
181 1 -0.497337 -1.7967 -0.00497337 0.017967 2.34967e-18 -6.58568e-20 1 0 1 2 0 1
147 1 -0.44905 -1.84685 -0.0044905 0.0184685 2.46995e-18 7.84353e-19 1 0 1 2 0 1
149 1 -0.351153 -1.85025 -0.00351153 0.0185025 1.3129e-19 2.12436e-18 1 0 1 2 0 1
182 1 -0.447128 -1.75103 -0.00447128 0.0175103 -2.0081e-18 8.19293e-19 1 0 1 2 0 1
183 1 -0.398843 -1.79952 -0.00398843 0.0179952 2.71919e-18 -1.38384e-19 1 0 1 2 0 1
184 1 -0.34807 -1.7525 -0.0034807 0.017525 -8.94837e-19 3.18569e-18 1 0 1 2 0 1
151 1 -0.252368 -1.85165 -0.00252368 0.0185165 -3.09167e-20 1.80291e-18 1 0 1 2 0 1
185 1 -0.299565 -1.8004 -0.00299565 0.018004 -1.17896e-18 5.38872e-19 1 0 1 2 0 1
186 1 -0.249226 -1.74659 -0.00249226 0.0174659 8.34327e-19 1.50814e-18 1 0 1 2 0 1
187 1 -0.202407 -1.80133 -0.00202407 0.0180133 -2.81744e-18 -1.75468e-18 1 0 1 2 0 1
153 1 -0.147258 -1.85126 -0.00147258 0.0185126 -7.95999e-19 9.70488e-19 1 0 1 2 0 1
155 1 -0.0491276 -1.85258 -0.000491276 0.0185258 2.27682e-18 -2.98156e-18 1 0 1 2 0 1
188 1 -0.148199 -1.75166 -0.00148199 0.0175166 -6.27228e-19 -1.13524e-18 1 0 1 2 0 1
189 1 -0.101767 -1.80284 -0.00101767 0.0180284 -2.52077e-18 -5.42101e-20 1 0 1 2 0 1
190 1 -0.0505093 -1.74733 -0.000505093 0.0174733 2.27682e-18 -1.02999e-18 1 0 1 2 0 1
2102 1 -0.000450986 -1.79954 -4.50986e-06 0.0179954 3.03577e-18 -1.54499e-18 1 0 1 2 0 1
229 1 -1.90197 -1.59816 -0.0190197 0.0159816 0.00106952 -0.00113527 1 0 1 2 2 1
191 1 -1.847 -1.65024 -0.01847 0.0165024 0.00109573 -0.000977263 1 0 1 2 2 1
192 1 -1.80324 -1.69756 -0.0180324 0.0169756 0.0011149 -0.00113823 1 0 1 2 2 1
193 1 -1.75228 -1.65343 -0.0175228 0.0165343 5.95461e-05 -0.000153592 1 0 1 2 1 1
231 1 -1.80199 -1.6028 -0.0180199 0.016028 0.000267355 -4.50762e-05 1 0 1 2 1 1
194 1 -1.7006 -1.69874 -0.017006 0.0169874 -2.91819e-05 -0.000150745 1 0 1 2 1 1
195 1 -1.65155 -1.64654 -0.0165155 0.0164654 -6.10269e-05 -1.52631e-05 1 0 1 2 1 1
196 1 -1.59657 -1.70202 -0.0159657 0.0170202 3.66807e-05 6.2753e-05 1 0 1 2 1 1
233 1 -1.70316 -1.60159 -0.0170316 0.0160159 -3.00861e-05 -1.39945e-05 1 0 1 2 1 1
235 1 -1.59911 -1.59753 -0.0159911 0.0159753 -0.000542698 0.000479195 1 0 1 2 1 1
197 1 -1.5501 -1.64967 -0.015501 0.0164967 -0.000504599 0.000701014 1 0 1 2 1 1
198 1 -1.4973 -1.70267 -0.014973 0.0170267 -0.000697118 0.000438618 1 0 1 2 1 1
199 1 -1.45347 -1.65059 -0.0145347 0.0165059 0.000384979 -0.00039245 1 0 1 2 0 1
237 1 -1.49843 -1.59662 -0.0149843 0.0159662 0.000341354 -0.000332775 1 0 1 2 0 1
200 1 -1.39804 -1.70057 -0.0139804 0.0170057 0.000346383 -0.00034207 1 0 1 2 0 1
201 1 -1.35229 -1.65317 -0.0135229 0.0165317 7.12281e-06 -7.15683e-06 1 0 1 2 0 1
202 1 -1.29784 -1.70282 -0.0129784 0.0170282 4.6668e-06 -2.49003e-05 1 0 1 2 0 1
203 1 -1.25327 -1.65243 -0.0125327 0.0165243 -7.5693e-19 -1.8266e-18 1 0 1 2 0 1
239 1 -1.40115 -1.60067 -0.0140115 0.0160067 5.71781e-06 -5.48425e-06 1 0 1 2 0 1
241 1 -1.30215 -1.60186 -0.0130215 0.0160186 7.21487e-19 -1.18129e-18 1 0 1 2 0 1
204 1 -1.19728 -1.70265 -0.0119728 0.0170265 7.35256e-07 -1.03462e-06 1 0 1 2 0 1
205 1 -1.14777 -1.65257 -0.0114777 0.0165257 -1.67575e-18 7.66353e-19 1 0 1 2 0 1
206 1 -1.09701 -1.6994 -0.0109701 0.016994 1.6856e-19 1.98375e-18 1 0 1 2 0 1
243 1 -1.19902 -1.59891 -0.0119902 0.0159891 -1.15599e-18 -9.01667e-19 1 0 1 2 0 1
245 1 -1.10155 -1.59961 -0.0110155 0.0159961 -2.54766e-18 -1.40925e-18 1 0 1 2 0 1
207 1 -1.05099 -1.64988 -0.0105099 0.0164988 1.03804e-18 1.39379e-18 1 0 1 2 0 1
208 1 -1.00159 -1.6976 -0.0100159 0.016976 1.97147e-19 -1.56648e-18 1 0 1 2 0 1
209 1 -0.946618 -1.65108 -0.00946618 0.0165108 -3.68735e-18 4.34411e-18 1 0 1 2 0 1
247 1 -0.998926 -1.60012 -0.00998926 0.0160012 1.35589e-18 -4.58033e-19 1 0 1 2 0 1
210 1 -0.899331 -1.69865 -0.00899331 0.0169865 -7.72494e-19 1.56616e-18 1 0 1 2 0 1
211 1 -0.850053 -1.64866 -0.00850053 0.0164866 -4.24258e-18 2.12383e-18 1 0 1 2 0 1
212 1 -0.797094 -1.70241 -0.00797094 0.0170241 3.02052e-18 -5.19231e-19 1 0 1 2 0 1
249 1 -0.898779 -1.59781 -0.00898779 0.0159781 1.02586e-18 -1.86728e-18 1 0 1 2 0 1
251 1 -0.802361 -1.60081 -0.00802361 0.0160081 2.73181e-18 1.75161e-18 1 0 1 2 0 1
213 1 -0.750387 -1.64696 -0.00750387 0.0164696 -3.18569e-18 -1.47892e-18 1 0 1 2 0 1
214 1 -0.696786 -1.7019 -0.00696786 0.017019 -3.74547e-19 -2.60463e-18 1 0 1 2 0 1
215 1 -0.648601 -1.64969 -0.00648601 0.0164969 -4.69044e-19 2.00292e-18 1 0 1 2 0 1
253 1 -0.698981 -1.60228 -0.00698981 0.0160228 6.78738e-19 2.02912e-18 1 0 1 2 0 1
216 1 -0.603076 -1.69788 -0.00603076 0.0169788 1.08505e-18 2.28741e-18 1 0 1 2 0 1
217 1 -0.549525 -1.65094 -0.00549525 0.0165094 3.71424e-19 6.77838e-19 1 0 1 2 0 1
218 1 -0.501117 -1.70128 -0.00501117 0.0170128 1.10114e-20 -7.99599e-19 1 0 1 2 0 1
255 1 -0.600551 -1.60253 -0.00600551 0.0160253 1.68025e-18 1.09479e-19 1 0 1 2 0 1
257 1 -0.501621 -1.60259 -0.00501621 0.0160259 -2.058e-18 1.26653e-18 1 0 1 2 0 1
219 1 -0.45006 -1.65299 -0.0045006 0.0165299 -3.02603e-18 -2.20102e-18 1 0 1 2 0 1
220 1 -0.396961 -1.70329 -0.00396961 0.0170329 3.6343e-19 1.08791e-18 1 0 1 2 0 1
221 1 -0.350159 -1.65228 -0.00350159 0.0165228 -8.9129e-19 8.89438e-19 1 0 1 2 0 1
259 1 -0.396944 -1.59709 -0.00396944 0.0159709 1.53419e-18 5.781e-19 1 0 1 2 0 1
222 1 -0.301759 -1.70159 -0.00301759 0.0170159 7.75035e-20 3.86247e-19 1 0 1 2 0 1
223 1 -0.249182 -1.64816 -0.00249182 0.0164816 -5.30349e-19 -5.20661e-19 1 0 1 2 0 1
224 1 -0.199849 -1.70284 -0.00199849 0.0170284 1.00966e-18 -1.9962e-18 1 0 1 2 0 1
261 1 -0.298652 -1.59662 -0.00298652 0.0159662 1.57135e-18 -2.15358e-19 1 0 1 2 0 1
263 1 -0.198357 -1.60147 -0.00198357 0.0160147 2.97732e-19 -1.27828e-18 1 0 1 2 0 1
225 1 -0.151466 -1.6511 -0.00151466 0.016511 1.35525e-19 7.86047e-19 1 0 1 2 0 1
226 1 -0.0965914 -1.70213 -0.000965914 0.0170213 -5.96311e-19 -7.86047e-19 1 0 1 2 0 1
227 1 -0.0470681 -1.65253 -0.000470681 0.0165253 9.21572e-19 4.87891e-19 1 0 1 2 0 1
265 1 -0.0997534 -1.59934 -0.000997534 0.0159934 -1.30104e-18 -7.58942e-19 1 0 1 2 0 1
228 1 -1.94719 -1.55135 -0.0194719 0.0155135 0.00107309 -0.00104852 1 0 1 2 2 1
267 1 -1.99791 -1.50278 -0.0199791 0.0150278 0.0014435 -0.000743988 1 0 1 2 2 1
268 1 -1.95292 -1.45237 -0.0195292 0.0145237 0.000923083 -5.0553e-05 1 0 1 2 1 1
269 1 -1.90264 -1.49923 -0.0190264 0.0149923 0.000268719 -0.000124875 1 0 1 2 1 1
230 1 -1.84796 -1.54728 -0.0184796 0.0154728 4.3805e-06 -0.000161901 1 0 1 2 1 1
232 1 -1.74902 -1.55138 -0.0174902 0.0155138 -1.32592e-07 8.06051e-05 1 0 1 2 1 1
270 1 -1.85281 -1.4513 -0.0185281 0.014513 5.3859e-06 4.4779e-06 1 0 1 2 1 1
271 1 -1.80303 -1.49894 -0.0180303 0.0149894 -6.13429e-05 -1.94273e-05 1 0 1 2 1 1
272 1 -1.75143 -1.45143 -0.0175143 0.0145143 -0.000615878 0.000565436 1 0 1 2 1 1
234 1 -1.65293 -1.54958 -0.0165293 0.0154958 -0.000571894 0.000629658 1 0 1 2 1 1
273 1 -1.69992 -1.50159 -0.0169992 0.0150159 -0.000538821 0.000545787 1 0 1 2 1 1
274 1 -1.64877 -1.44773 -0.0164877 0.0144773 0.00032571 -0.000328394 1 0 1 2 0 1
275 1 -1.59902 -1.49647 -0.0159902 0.0149647 0.000335696 -0.000338816 1 0 1 2 0 1
236 1 -1.5509 -1.55117 -0.015509 0.0155117 0.000361702 -0.000374388 1 0 1 2 0 1
238 1 -1.44782 -1.54812 -0.0144782 0.0154812 3.35442e-06 -3.41502e-06 1 0 1 2 0 1
276 1 -1.55106 -1.44771 -0.0155106 0.0144771 2.9206e-06 -2.95718e-06 1 0 1 2 0 1
277 1 -1.50202 -1.49881 -0.0150202 0.0149881 5.55721e-06 -5.60579e-06 1 0 1 2 0 1
278 1 -1.45054 -1.44878 -0.0145054 0.0144878 -9.47618e-20 6.33369e-19 1 0 1 2 0 1
240 1 -1.35243 -1.55135 -0.0135243 0.0155135 -8.04681e-20 -2.79097e-18 1 0 1 2 0 1
242 1 -1.25153 -1.54837 -0.0125153 0.0154837 -9.31736e-21 -1.26462e-18 1 0 1 2 0 1
279 1 -1.3986 -1.5031 -0.013986 0.015031 -7.98964e-19 -2.58181e-18 1 0 1 2 0 1
280 1 -1.35188 -1.447 -0.0135188 0.01447 -1.75759e-20 -3.11285e-19 1 0 1 2 0 1
281 1 -1.30012 -1.50208 -0.0130012 0.0150208 1.4012e-18 -1.51407e-19 1 0 1 2 0 1
244 1 -1.15182 -1.54714 -0.0115182 0.0154714 1.33831e-19 9.02937e-19 1 0 1 2 0 1
282 1 -1.2483 -1.44761 -0.012483 0.0144761 -7.33531e-19 -8.05528e-19 1 0 1 2 0 1
283 1 -1.1981 -1.5033 -0.011981 0.015033 1.646e-18 4.03823e-19 1 0 1 2 0 1
284 1 -1.14714 -1.44686 -0.0114714 0.0144686 -2.13982e-18 1.39549e-18 1 0 1 2 0 1
285 1 -1.10307 -1.50326 -0.0110307 0.0150326 -1.45957e-18 -5.171e-19 1 0 1 2 0 1
246 1 -1.04813 -1.55243 -0.0104813 0.0155243 2.80241e-18 4.24321e-18 1 0 1 2 0 1
248 1 -0.948508 -1.54649 -0.00948508 0.0154649 1.11724e-18 1.15959e-18 1 0 1 2 0 1
286 1 -1.05025 -1.45257 -0.0105025 0.0145257 -1.42804e-19 3.41307e-18 1 0 1 2 0 1
287 1 -0.998834 -1.50061 -0.00998834 0.0150061 -6.83979e-19 -1.78655e-18 1 0 1 2 0 1
288 1 -0.950301 -1.4491 -0.00950301 0.014491 1.07695e-18 9.80017e-19 1 0 1 2 0 1
250 1 -0.848741 -1.54843 -0.00848741 0.0154843 -2.82316e-18 -1.50264e-18 1 0 1 2 0 1
289 1 -0.900999 -1.49735 -0.00900999 0.0149735 1.12401e-18 -1.42492e-18 1 0 1 2 0 1
290 1 -0.849095 -1.44848 -0.00849095 0.0144848 -1.96893e-18 -7.27601e-19 1 0 1 2 0 1
291 1 -0.800022 -1.50107 -0.00800022 0.0150107 4.91321e-18 1.2337e-18 1 0 1 2 0 1
252 1 -0.751429 -1.54776 -0.00751429 0.0154776 1.05032e-19 -1.02406e-18 1 0 1 2 0 1
254 1 -0.65037 -1.54862 -0.0065037 0.0154862 1.59073e-18 2.65121e-19 1 0 1 2 0 1
292 1 -0.751083 -1.44906 -0.00751083 0.0144906 2.44777e-18 1.09161e-19 1 0 1 2 0 1
293 1 -0.702502 -1.5017 -0.00702502 0.015017 2.87991e-20 -1.33408e-19 1 0 1 2 0 1
294 1 -0.651749 -1.4501 -0.00651749 0.014501 1.05927e-18 -1.05021e-18 1 0 1 2 0 1
256 1 -0.549197 -1.55172 -0.00549197 0.0155172 3.10395e-18 2.70373e-18 1 0 1 2 0 1
295 1 -0.602183 -1.49679 -0.00602183 0.0149679 -1.5885e-18 -3.43551e-18 1 0 1 2 0 1
296 1 -0.550289 -1.45025 -0.00550289 0.0145025 -6.92926e-19 1.15821e-18 1 0 1 2 0 1
297 1 -0.502567 -1.49673 -0.00502567 0.0149673 -1.45732e-18 1.04185e-18 1 0 1 2 0 1
258 1 -0.449227 -1.54921 -0.00449227 0.0154921 6.96261e-19 6.33581e-19 1 0 1 2 0 1
260 1 -0.351237 -1.55099 -0.00351237 0.0155099 8.26281e-19 -1.59962e-18 1 0 1 2 0 1
298 1 -0.451337 -1.45307 -0.00451337 0.0145307 -1.84854e-18 -1.13301e-18 1 0 1 2 0 1
299 1 -0.396984 -1.49833 -0.00396984 0.0149833 2.14088e-19 1.61106e-18 1 0 1 2 0 1
300 1 -0.348536 -1.45288 -0.00348536 0.0145288 1.74002e-18 -1.48559e-18 1 0 1 2 0 1
262 1 -0.251543 -1.55041 -0.00251543 0.0155041 4.88738e-19 -9.72817e-19 1 0 1 2 0 1
301 1 -0.296909 -1.50344 -0.00296909 0.0150344 5.9017e-19 1.24302e-19 1 0 1 2 0 1
302 1 -0.252126 -1.45307 -0.00252126 0.0145307 1.88396e-18 -9.17972e-20 1 0 1 2 0 1
303 1 -0.201548 -1.50344 -0.00201548 0.0150344 3.83388e-19 5.39242e-19 1 0 1 2 0 1
264 1 -0.149291 -1.54912 -0.00149291 0.0154912 2.1684e-18 1.58565e-18 1 0 1 2 0 1
266 1 -0.0470766 -1.5469 -0.000470766 0.015469 1.24683e-18 9.21572e-19 1 0 1 2 0 1
304 1 -0.146764 -1.45292 -0.00146764 0.0145292 1.05879e-18 1.28749e-18 1 0 1 2 0 1
305 1 -0.101847 -1.50138 -0.00101847 0.0150138 -3.79471e-19 8.13152e-19 1 0 1 2 0 1
306 1 -0.0520181 -1.4482 -0.000520181 0.014482 1.30104e-18 -9.21572e-19 1 0 1 2 0 1
2216 1 -0.00187844 -1.49858 -1.87844e-05 0.0149858 5.42101e-19 -5.42101e-19 1 0 1 2 0 1
307 1 -2.04722 -1.34916 -0.0204722 0.0134916 0.00100171 -0.00101115 1 0 1 2 2 1
348 1 -2.15166 -1.25059 -0.0215166 0.0125059 0.00141977 -0.000745177 1 0 1 2 2 1
349 1 -2.09811 -1.29756 -0.0209811 0.0129756 0.00112712 -0.00098166 1 0 1 2 2 1
350 1 -2.05033 -1.25205 -0.0205033 0.0125205 0.000264109 -0.000150311 1 0 1 2 1 1
308 1 -2.00104 -1.40028 -0.0200104 0.0140028 0.00104218 -0.000422541 1 0 1 2 1 1
309 1 -1.94826 -1.34935 -0.0194826 0.0134935 0.000141034 -6.10647e-05 1 0 1 2 1 1
310 1 -1.89748 -1.40245 -0.0189748 0.0140245 0.000125463 6.13879e-05 1 0 1 2 1 1
351 1 -2.0008 -1.29894 -0.020008 0.0129894 9.94216e-05 -0.000196647 1 0 1 2 1 1
353 1 -1.89743 -1.30259 -0.0189743 0.0130259 5.12132e-05 -4.87564e-05 1 0 1 2 1 1
311 1 -1.84754 -1.3521 -0.0184754 0.013521 -0.000964694 0.00017817 1 0 1 2 1 1
312 1 -1.79748 -1.40024 -0.0179748 0.0140024 -0.000404969 0.000680667 1 0 1 2 1 1
313 1 -1.75274 -1.35136 -0.0175274 0.0135136 0.000528896 -0.000321165 1 0 1 2 0 1
354 1 -1.8512 -1.25299 -0.018512 0.0125299 -0.000465478 0.000355356 1 0 1 2 1 1
355 1 -1.80119 -1.29654 -0.0180119 0.0129654 4.23476e-06 -0.000292854 1 0 1 2 0 1
356 1 -1.75111 -1.25202 -0.0175111 0.0125202 0.000157341 -8.14703e-05 1 0 1 2 0 1
314 1 -1.69941 -1.39713 -0.0169941 0.0139713 0.000336056 -0.000331247 1 0 1 2 0 1
315 1 -1.65207 -1.34751 -0.0165207 0.0134751 3.47416e-06 -3.49825e-06 1 0 1 2 0 1
316 1 -1.59715 -1.40218 -0.0159715 0.0140218 3.70613e-06 -3.70082e-06 1 0 1 2 0 1
357 1 -1.69803 -1.30205 -0.0169803 0.0130205 1.77038e-05 -3.43371e-06 1 0 1 2 0 1
358 1 -1.64816 -1.25133 -0.0164816 0.0125133 -3.10808e-18 -6.71803e-19 1 0 1 2 0 1
359 1 -1.59931 -1.30057 -0.0159931 0.0130057 9.2136e-19 1.50137e-19 1 0 1 2 0 1
317 1 -1.55164 -1.35302 -0.0155164 0.0135302 2.28699e-18 1.13968e-18 1 0 1 2 0 1
318 1 -1.49946 -1.39917 -0.0149946 0.0139917 -2.72692e-19 3.962e-19 1 0 1 2 0 1
319 1 -1.44729 -1.34711 -0.0144729 0.0134711 1.19919e-18 -6.06899e-19 1 0 1 2 0 1
360 1 -1.55167 -1.25259 -0.0155167 0.0125259 4.03188e-19 7.708e-20 1 0 1 2 0 1
361 1 -1.49836 -1.29789 -0.0149836 0.0129789 1.37113e-18 -3.89423e-19 1 0 1 2 0 1
362 1 -1.44833 -1.25313 -0.0144833 0.0125313 -1.00095e-18 1.10061e-19 1 0 1 2 0 1
320 1 -1.40319 -1.39907 -0.0140319 0.0139907 -7.01343e-19 1.80842e-18 1 0 1 2 0 1
321 1 -1.34808 -1.35306 -0.0134808 0.0135306 1.63477e-19 -6.29769e-19 1 0 1 2 0 1
322 1 -1.3017 -1.40309 -0.013017 0.0140309 5.07082e-19 1.07536e-18 1 0 1 2 0 1
363 1 -1.39882 -1.29666 -0.0139882 0.0129666 1.41126e-18 9.88911e-20 1 0 1 2 0 1
364 1 -1.34975 -1.25123 -0.0134975 0.0125123 -1.19072e-18 3.47495e-19 1 0 1 2 0 1
365 1 -1.3031 -1.30037 -0.013031 0.0130037 9.65247e-19 3.54907e-19 1 0 1 2 0 1
323 1 -1.24767 -1.34996 -0.0124767 0.0134996 -6.80167e-19 -6.05629e-19 1 0 1 2 0 1
324 1 -1.19898 -1.39955 -0.0119898 0.0139955 6.07323e-19 3.61895e-19 1 0 1 2 0 1
325 1 -1.14733 -1.34692 -0.0114733 0.0134692 -2.59213e-18 -2.14384e-18 1 0 1 2 0 1
326 1 -1.10316 -1.40272 -0.0110316 0.0140272 -3.14165e-18 -8.53597e-19 1 0 1 2 0 1
366 1 -1.2467 -1.25063 -0.012467 0.0125063 -5.26854e-19 1.24006e-18 1 0 1 2 0 1
367 1 -1.19981 -1.30199 -0.0119981 0.0130199 -6.54915e-19 7.65506e-20 1 0 1 2 0 1
369 1 -1.09894 -1.30141 -0.0109894 0.0130141 6.6598e-19 -6.19075e-19 1 0 1 2 0 1
327 1 -1.05181 -1.35087 -0.0105181 0.0135087 -1.95876e-18 -1.40862e-18 1 0 1 2 0 1
328 1 -0.99844 -1.4035 -0.0099844 0.014035 -4.7455e-19 -1.74775e-18 1 0 1 2 0 1
329 1 -0.94982 -1.35193 -0.0094982 0.0135193 1.45012e-18 3.0112e-19 1 0 1 2 0 1
370 1 -1.0535 -1.25175 -0.010535 0.0125175 -4.78468e-19 4.01494e-19 1 0 1 2 0 1
371 1 -0.999232 -1.3009 -0.00999232 0.013009 3.9512e-18 7.83929e-19 1 0 1 2 0 1
330 1 -0.898045 -1.39768 -0.00898045 0.0139768 -7.05261e-19 -3.91329e-19 1 0 1 2 0 1
331 1 -0.846984 -1.35207 -0.00846984 0.0135207 -1.15228e-18 -2.97414e-19 1 0 1 2 0 1
332 1 -0.797276 -1.39839 -0.00797276 0.0139839 1.80503e-18 1.42302e-19 1 0 1 2 0 1
373 1 -0.899512 -1.30055 -0.00899512 0.0130055 1.25652e-18 7.70906e-19 1 0 1 2 0 1