LAMMPS data file via write_data, version 9 Oct 2020, timestep = 200000

20000 atoms
1 atom types

0.0 79.37005259841 xlo xhi
0.0 15.874010519682 ylo yhi
0.0 15.874010519682 zlo zhi

Masses

1 1

Atoms # rheo

313 1 1.0007060557862877 0.0 0 0.8192738320348849 1.6213048516751174 1.352399913387193 0 0 0
159 1 1.0010286769695862 0.0 0 0.8777359385508856 0.509834858916048 1.2799354046048983 0 0 0
183 1 1.0009023732557232 0.0 0 0.8783577426547201 1.4972229134170238 0.41331036651492675 0 0 0
161 1 1.0007025280544322 0.0 0 1.3249703893156666 0.5885329540461417 0.45947596853091166 0 0 0
134 1 1.0007883595670701 0.0 0 0.44912014723834237 0.11343701369744245 0.15790331587073897 0 0 0
317 1 1.0007835159839884 0.0 0 1.8272733483932688 1.5906611122426673 1.161600312791216 0 0 0
319 1 1.0011785828679325 0.0 0 2.7466109769539107 1.4480507308173383 1.6816473115377928 0 0 0
164 1 1.000780959768132 0.0 0 2.174019890961934 0.7066502484056336 1.0289179936808122 0 0 0
294 1 1.000435622521847 0.0 0 2.8002971067503193 0.6927105693167506 1.8372220242438335 0 0 0
321 1 1.0008226441918455 0.0 0 3.1886655172857914 1.6415623890284876 0.5120867258339711 0 0 0
168 1 1.0006281360355986 0.0 0 3.5223109027679693 0.7594151657240727 0.9636670579909435 0 0 0
293 1 1.0008868324753781 0.0 0 1.8820026487884847 0.14102168602994622 1.9649119619630009 0 0 0
187 1 1.0007461451054414 0.0 0 2.2130773794265357 1.9218757934230581 0.20814153837119545 0 0 0
165 1 1.0009530157123783 0.0 0 3.132381786934901 0.6373596620530259 0.1288559639673018 0 0 0
162 1 1.0008327029641373 0.0 0 2.203487865084628 1.0362348519614488 0.10675128950951189 0 0 0
325 1 1.0006342114411875 0.0 0 4.707528559543638 1.2488826596676637 1.0063430153215487 0 0 0
323 1 1.000903121517791 0.0 0 4.44855631443278 1.2977494748465115 1.757822089751435 0 0 0
298 1 1.0008934515970778 0.0 0 4.12879939762874 0.45483976218595135 1.1816016442776218 0 0 0
196 1 1.0009912321519983 0.0 0 5.237678907035294 1.2465627592282282 0.24160762695223958 0 0 0
172 1 1.0008030037502065 0.0 0 4.7691617425463955 0.3519458097236918 0.05050826935110643 0 0 0
191 1 1.000706656494773 0.0 0 4.055979055160013 1.3858019606410648 0.06578343143360574 0 0 0
328 1 1.0008577556297338 0.0 0 5.396368626615363 1.9807656131644258 1.6761626224255202 0 0 0
326 1 1.0011424980704031 0.0 0 6.165752906216848 1.1323550965522633 1.3757880957917972 0 0 0
219 1 1.0006478081554462 0.0 0 6.041556838234175 1.6575654645253992 0.7297759405341863 0 0 0
221 1 1.000908201276061 0.0 0 6.7499292338743295 0.687958026257924 0.5240500093259018 0 0 0
195 1 1.0008084008638816 0.0 0 5.534452371967252 0.3449212782314763 0.9209497734147525 0 0 0
329 1 1.0009810886575559 0.0 0 6.589776491355147 0.10817564952111945 1.7930198924925114 0 0 0
302 1 1.0008963381015687 0.0 0 5.425203760284474 0.08048199063009143 1.5465903656405655 0 0 0
225 1 1.0007124486161696 0.0 0 8.413553541145923 1.2066394320604847 1.2972241196210812 0 0 0
95 1 1.0009433784763253 0.0 0 8.802111482771718 1.1878081386108699 0.439978135162689 0 0 0
198 1 1.0008770818652373 0.0 0 7.726173740115885 0.9575666421823816 0.9210726440093208 0 0 0
222 1 1.0007715840366203 0.0 0 7.502920505072469 1.8030572681986548 0.43838965826531084 0 0 0
200 1 1.0003747265299545 0.0 0 7.114227305591068 0.5038994465483763 1.2550646206103309 0 0 0
204 1 1.0008240276125957 0.0 0 7.93769219565201 0.28018152965098353 1.9123593878162963 0 0 0
314 1 1.000921655045693 0.0 0 1.0842327099568407 2.646877049597152 1.559612246992397 0 0 0
184 1 1.0005584907178324 0.0 0 0.28936794170908464 2.5338218540228783 0.8059508658587955 0 0 0
341 1 1.0008325863418253 0.0 0 1.6885700875662015 3.3686345395900528 1.5235321498705328 0 0 0
207 1 1.0007823030490008 0.0 0 0.3843158726824934 3.468351724742204 1.1986918433380964 0 0 0
337 1 1.0007817197445488 0.0 0 0.06889677294418442 3.2495947885660423 1.9220031205077999 0 0 0
188 1 1.0009966625245188 0.0 0 1.0254334416393913 2.649496920974195 0.5180552922572886 0 0 0
209 1 1.0006599087148953 0.0 0 0.9553255804073503 3.839132751499951 0.2734582813751071 0 0 0
324 1 1.0008712859985374 0.0 0 3.48963205954954 2.066839711777082 1.3340700453889744 0 0 0
320 1 1.0007560071361559 0.0 0 2.170223377001033 2.37868602959733 1.7425825254915606 0 0 0
318 1 1.0008251106959567 0.0 0 2.20383400887319 2.530668374504148 0.7345799029405745 0 0 0
343 1 1.000809055984382 0.0 0 2.9430732863847475 2.943232201707498 1.7273674689436185 0 0 0
342 1 1.0010698060171337 0.0 0 2.481411277384435 3.889303525788728 1.7910400593824949 0 0 0
345 1 1.0006912238193948 0.0 0 3.1517398586584346 2.8565649858809636 0.747239135802469 0 0 0
211 1 1.0007283187907987 0.0 0 2.0473509542871158 3.4792815971843924 0.6326460246204568 0 0 0
216 1 1.0009603426804357 0.0 0 3.3346912378263465 3.5368349290198062 0.4863595030100881 0 0 0
322 1 1.000804567111816 0.0 0 4.221974667514907 2.0712421456412575 0.6860412326666802 0 0 0
349 1 1.0007873001003993 0.0 0 5.2072664123788295 2.4027981171631025 0.9502093655844522 0 0 0
347 1 1.000852141074826 0.0 0 4.237392280774547 2.5456133619890777 1.7985449724691902 0 0 0
346 1 1.0009532914729464 0.0 0 4.5899305115351225 3.3484094992052347 1.2837522080333712 0 0 0
348 1 1.0004568908120037 0.0 0 3.7594481298582316 3.267088359428422 1.6347370875323788 0 0 0
239 1 1.0009119688565886 0.0 0 4.422946188750711 3.8802608287128635 0.734870291194039 0 0 0
220 1 1.0008605458978064 0.0 0 5.192322199139944 2.841244154249899 0.42545663747101486 0 0 0
224 1 1.0008222488609904 0.0 0 6.926022825542847 2.057562874083615 1.0777304816982565 0 0 0
353 1 1.000693216332667 0.0 0 6.837140160007787 2.010179086661936 1.907352178595161 0 0 0
350 1 1.000696508844187 0.0 0 6.191926334117637 2.9989440777608514 1.5621871164108254 0 0 0
373 1 1.0010088001745636 0.0 0 5.751157293250723 3.7902181308532716 1.3241515769107965 0 0 0
248 1 1.00090658432855 0.0 0 7.005245917175317 3.768533514818989 1.132973315373892 0 0 0
243 1 1.0008066131744173 0.0 0 6.311671417722109 2.9739830753377294 0.6437550243507871 0 0 0
244 1 1.000970594850662 0.0 0 5.572168270442461 3.9687328011710035 0.29033076938085356 0 0 0
218 1 1.000787280175673 0.0 0 6.30773323260438 2.2356029906714974 0.11465334721166177 0 0 0
247 1 1.0008847283457196 0.0 0 7.61917971884478 2.4692816388441794 1.4508878480078906 0 0 0
249 1 1.0007975459966476 0.0 0 8.205476570412866 2.42752956254222 0.8211194039202693 0 0 0
250 1 1.0010521633994123 0.0 0 8.700034812140654 3.556643700376003 0.9243140815435351 0 0 0
252 1 1.0007985844175968 0.0 0 8.398383038515608 3.9793862259112367 1.5148894719420105 0 0 0
246 1 1.0009309618546165 0.0 0 7.555779363185336 3.4443902375654347 0.6903548311024654 0 0 0
119 1 1.0007516377261843 0.0 0 8.63158194407168 2.4409024573622817 0.16647410273184182 0 0 0
120 1 1.0004315349785113 0.0 0 8.148406389578385 3.3334525161813104 0.08020988768796569 0 0 0
344 1 1.0003573689031358 0.0 0 1.4120752638639475 4.041237776794289 1.9734796306702331 0 0 0
212 1 1.000973125716207 0.0 0 1.0511488007788605 4.164816535321614 0.7974285843063592 0 0 0
338 1 1.0010292782836072 0.0 0 0.2171994692360251 4.331791256671705 1.6565757462295447 0 0 0
365 1 1.0011748538591125 0.0 0 1.5467888930338198 4.846636141754709 1.4987805874437552 0 0 0
363 1 1.0004194086615246 0.0 0 0.6568202471389197 5.135146795057356 1.6284274789990836 0 0 0
519 1 1.0010488279749088 0.0 0 1.5562706214187867 5.889233934861135 1.6105410584077648 0 0 0
231 1 1.000842114780857 0.0 0 0.4425244572551729 5.123898300475471 0.5673460608842966 0 0 0
236 1 1.00075498470415 0.0 0 1.6351710342521977 5.323228424928723 0.5257177796153223 0 0 0
235 1 1.0006090793219249 0.0 0 2.357104478755671 4.277217182648003 0.7326372241067987 0 0 0
369 1 1.0009639916840418 0.0 0 3.290790310325908 4.402766017370208 1.1423582818185787 0 0 0
368 1 1.0003569130819188 0.0 0 2.3978918097874464 5.342182407154147 1.6671239069080683 0 0 0
366 1 1.0008693509170337 0.0 0 2.680512891904953 5.1364008772155145 0.9226523496523082 0 0 0
256 1 1.0010539610992772 0.0 0 2.7680105940772584 5.956165377454375 0.49555446470159004 0 0 0
371 1 1.0008462648887975 0.0 0 5.003427366918422 4.397401324140671 1.8653960624658479 0 0 0
372 1 1.0006078375766352 0.0 0 4.164845937425093 4.6497485147831075 1.6219372975084114 0 0 0
370 1 1.0009824549291242 0.0 0 5.205060965878902 4.86689609569266 0.9504036643800483 0 0 0
389 1 1.0008639055559336 0.0 0 4.202360824582035 5.401543531836775 1.061093801105384 0 0 0
1541 1 1.000420799818656 0.0 0 4.984193965953536 5.935196513665027 1.4590777089167013 0 0 0
240 1 1.0007911779654348 0.0 0 3.9052142881290433 4.562384595783683 0.3013455041864747 0 0 0
258 1 1.00081765196143 0.0 0 5.090137029072282 5.054443199802585 0.15682280645898725 0 0 0
1434 1 1.000738082048728 0.0 0 4.117136457693559 5.719616764827007 0.12719586832057173 0 0 0
376 1 1.0006224680745277 0.0 0 6.145643313821645 4.393902993235499 1.928954447137882 0 0 0
260 1 1.000213425796391 0.0 0 6.129898527283041 4.477558652513008 0.6980510600192563 0 0 0
374 1 1.00126226537879 0.0 0 6.892658772119791 4.880547252734702 1.3682045250692612 0 0 0
391 1 1.0011338580070437 0.0 0 5.820058822044969 5.549705004867361 1.409755003122197 0 0 0
1435 1 1.0006294453079838 0.0 0 6.5866618232031975 5.762284316696914 0.7689841670055906 0 0 0
1436 1 1.0006724253233092 0.0 0 5.743153912970172 5.924058975408872 0.4170945821955529 0 0 0
261 1 1.0009662295044293 0.0 0 6.964524232404011 4.713947628103197 0.37067267968106143 0 0 0
393 1 1.0003856148850205 0.0 0 7.498913400574769 4.370405096361137 1.8644869029102287 0 0 0
263 1 1.0009131192546605 0.0 0 8.32581790247974 4.840064304282704 0.8226995608832164 0 0 0
262 1 1.0007283968670806 0.0 0 7.996349055356738 5.344793815725445 1.330486380427939 0 0 0
1545 1 1.0008818500386387 0.0 0 7.3828273864685245 5.891754473138673 1.536703368931686 0 0 0
130 1 1.000568575166839 0.0 0 7.834595608033184 4.604809086832086 0.2537776749570088 0 0 0
1437 1 1.0010469640022324 0.0 0 7.637068881631674 5.9339263304479495 0.20268330934989995 0 0 0
362 1 1.0009396878640549 0.0 0 0.5274292021955298 5.976874016533776 0.8216435282753782 0 0 0
387 1 1.0007127301460517 0.0 0 1.5805410312270332 6.354054104210804 0.6743823531024987 0 0 0
386 1 1.000658882351362 0.0 0 0.4814013144093124 6.540216537220499 1.543392701345459 0 0 0
1645 1 1.0009431227311658 0.0 0 0.9222699933263983 7.27793332632965 1.581464132414654 0 0 0
1551 1 1.000780840332383 0.0 0 1.2496319676026515 7.634604653887446 0.759043973243244 0 0 0
1549 1 1.0009870160482874 0.0 0 0.538262996497848 7.670456608076799 0.21419024690480978 0 0 0
254 1 1.0007406414714743 0.0 0 0.9426116445694539 6.625940897474449 0.13026889741662956 0 0 0
1539 1 1.0006831445352953 0.0 0 3.3625498704405055 6.086475989149884 1.2232778235385586 0 0 0
1540 1 1.0008052613889669 0.0 0 2.018833499238073 6.7643270280035015 1.0577890526033877 0 0 0
1555 1 1.0007342170869098 0.0 0 2.992317334395826 6.962027060309457 1.4156229654776422 0 0 0
1661 1 1.0007937991839515 0.0 0 1.9707417734968442 7.20539174260332 1.8794319246314186 0 0 0
1554 1 1.0011939574528577 0.0 0 3.136268557495535 7.616360463356331 0.9114461137504362 0 0 0
1432 1 1.0005225242484808 0.0 0 3.0405963103655047 6.58608205958604 0.2026314112526123 0 0 0
1557 1 1.0011573980721988 0.0 0 4.278799949293321 6.507350875478736 0.767788327908069 0 0 0
1559 1 1.0010477760493013 0.0 0 4.375442874618636 6.706673419705075 1.8333374564728984 0 0 0
1451 1 1.0008472959998875 0.0 0 5.135268066665153 6.783658361573985 0.7264095096451447 0 0 0
1558 1 1.000763931494413 0.0 0 4.34128153740364 7.611236870457112 1.5625618034046476 0 0 0
1447 1 1.0003747209389668 0.0 0 3.9775162412293 7.3195619575322 0.36385833850485355 0 0 0
1455 1 1.0010082801229074 0.0 0 5.912544156387929 6.781712938605088 1.182698050458157 0 0 0
1561 1 1.0006697968061182 0.0 0 5.390306255401256 6.941557087905363 1.9750400704987867 0 0 0
1565 1 1.0011335268933763 0.0 0 6.534911182262901 7.065963921491598 1.8812102237367891 0 0 0
1562 1 1.0006718600160014 0.0 0 6.104709310634203 7.921742009154786 1.250429436515842 0 0 0
1347 1 1.000853191093825 0.0 0 6.5626999767541365 7.3004325303379884 0.30901344030348815 0 0 0
1453 1 1.0008646533677186 0.0 0 5.57032733036632 7.53662593256115 0.2432716976457505 0 0 0
1330 1 1.0007967525287473 0.0 0 6.7046800254380186 6.31204170198446 0.15604874433039506 0 0 0
1440 1 1.0008930707502495 0.0 0 8.637107427906892 6.0711397910506015 1.4163011332000692 0 0 0
1438 1 1.0007253443100346 0.0 0 7.166042262305218 6.597039950126526 1.1821366611982105 0 0 0
1462 1 1.0007774337501114 0.0 0 8.774651517144642 7.56071827764915 1.0663946870857643 0 0 0
1461 1 1.0009656309998054 0.0 0 8.239093171025072 6.751004543896148 0.6200653131271583 0 0 0
1460 1 1.0008773997646376 0.0 0 7.122817018207943 7.875375440419342 1.1074538779311767 0 0 0
1459 1 1.0010511934271245 0.0 0 8.068527203600798 7.340757910662317 1.7077382419873561 0 0 0
1566 1 1.000319839436276 0.0 0 7.4679677754009575 7.75065333762242 1.9411062497137215 0 0 0
1457 1 1.0005964659504958 0.0 0 7.509426332084159 7.215185242069761 0.5040902423502631 0 0 0
290 1 1.0005663875340935 0.0 0 1.3041549785765727 0.6968196462249682 2.0840912068284667 0 0 0
315 1 1.000905075893449 0.0 0 1.3688594120681696 1.648821383915431 2.1540657944706645 0 0 0
18107 1 1.0008989995358686 0.0 0 0.2758975226013322 1.8420889837057097 2.29638563545325 1 0 0
292 1 1.0007599384817616 0.0 0 0.1645668150632932 0.9379329823427088 2.505152654667537 0 0 0
424 1 1.000880317896972 0.0 0 0.07078782603040594 0.860740086789443 3.981615444712499 0 0 0
296 1 1.0010494133266894 0.0 0 1.726186447317884 0.9783840651309873 2.8239796460748003 0 0 0
447 1 1.0009162223313803 0.0 0 1.1627224268422836 1.4176148513394486 3.6307792285090943 0 0 0
422 1 1.0007923984869833 0.0 0 0.5741846333673055 0.8942550483401505 3.269128983298841 0 0 0
425 1 1.0007406457314134 0.0 0 1.6572461065300952 0.11377782871093006 3.275248914455655 0 0 0
449 1 1.000639708179406 0.0 0 2.3580728692269064 1.6064802077130362 2.7619799376545946 0 0 0
451 1 1.0009338776342482 0.0 0 3.0096885742045245 1.462587785380781 3.833335714882902 0 0 0
426 1 1.0007877668397755 0.0 0 2.78885732808017 0.8185378567892553 3.3600087127506884 0 0 0
295 1 1.000910844467783 0.0 0 2.788311031211375 0.2729269224558557 2.72272534258668 0 0 0
300 1 1.000924117968263 0.0 0 3.727030954707507 0.7776974408731416 2.3193500204791953 0 0 0
453 1 1.0005713204596454 0.0 0 3.5805288082066538 1.7466911515998782 2.35129258769258 0 0 0
457 1 1.0009967991527469 0.0 0 4.748298786686556 1.24316122063785 3.454877870244197 0 0 0
430 1 1.000802653383311 0.0 0 4.003768882653112 1.104917805132034 3.1785211579818693 0 0 0
304 1 1.000814769020008 0.0 0 4.914697344139929 0.5760617654911311 2.456533882120409 0 0 0
327 1 1.0007334780474375 0.0 0 5.460787949712418 1.0769041591827557 2.160891275041103 0 0 0
332 1 1.0004862149423082 0.0 0 6.506073985041126 1.1827531634209307 2.4511900534349715 0 0 0
461 1 1.000968826087457 0.0 0 5.889021557089194 1.4842771655400333 3.203479937098123 0 0 0
462 1 1.000828813013579 0.0 0 6.786280827760732 1.8229861740358058 3.3951108492249955 0 0 0
463 1 1.000799181626747 0.0 0 6.554533180308817 0.8098264953618197 3.911473695972115 0 0 0
434 1 1.00067310897206 0.0 0 5.664214781955606 0.5876410414684258 3.0173206053949166 0 0 0
331 1 1.0011085744349806 0.0 0 6.7448616498724006 0.29287877598005085 2.8569130346875236 0 0 0
223 1 1.0009138652408311 0.0 0 8.21798898174565 1.5574063244484386 2.0582974040586843 0 0 0
330 1 1.0010840524254148 0.0 0 7.303002616845558 1.130509296589505 2.1905739779832434 0 0 0
357 1 1.0008402374610372 0.0 0 8.15699057975309 1.3682965130693545 3.108441016931037 0 0 0
466 1 1.000927109318492 0.0 0 8.119678106442858 0.7933100610952457 3.8999194348328485 0 0 0
336 1 1.0005168186345226 0.0 0 7.5452926444439345 0.7489327097636798 3.0806222884675694 0 0 0
334 1 1.0006433692213497 0.0 0 8.739578300511656 0.5375129818679631 2.583606164487995 0 0 0
445 1 1.0006886201894312 0.0 0 0.5093684414215628 2.0370773194098564 3.254102745263417 0 0 0
339 1 1.0010281873584985 0.0 0 1.1059760591284187 3.481067931798515 2.507965301932767 0 0 0
578 1 1.0007711738963303 0.0 0 1.2915670458033748 2.532227676095414 3.9068853671446693 0 0 0
316 1 1.0007231284068494 0.0 0 0.7506418389341458 2.5566077360252293 2.635481944366929 0 0 0
448 1 1.0006574520664993 0.0 0 0.14308029448065462 2.551739655330284 3.9696405351122923 0 0 0
469 1 1.0009159091777882 0.0 0 0.29059360488003944 3.979899652599119 2.8446835433171946 0 0 0
18227 1 1.0009586942704864 0.0 0 0.1527386127294907 3.1323515832937905 3.2989368625959434 1 0 0
471 1 1.0008846490357661 0.0 0 1.6134905885725386 3.248003682454483 3.3950734710561252 0 0 0
450 1 1.000832686904585 0.0 0 3.11185100627054 2.0725861519457247 2.796070148442538 0 0 0
452 1 1.000859315074853 0.0 0 2.042984880479474 2.093618736220195 3.597409278749813 0 0 0
367 1 1.000847502647475 0.0 0 3.4411116286271946 3.9703212698163606 2.118667835755584 0 0 0
446 1 1.000820658358016 0.0 0 1.7689319537976302 2.5034846557066355 2.675211583348121 0 0 0
473 1 1.0007377219249671 0.0 0 2.6105710346640936 2.9730585704745276 2.6181286352412636 0 0 0
475 1 1.0007405762883357 0.0 0 3.0455985348594274 2.70156255882016 3.678424037168284 0 0 0
474 1 1.0006824519692707 0.0 0 2.6118741445884655 3.4965056134026327 3.168640975670899 0 0 0
454 1 1.0008109016927875 0.0 0 4.602714123467749 2.1026930380503064 2.4817485405037814 0 0 0
456 1 1.0008262452335752 0.0 0 4.019136356863697 2.1512535915363817 3.407309233738911 0 0 0
458 1 1.0006238653241148 0.0 0 5.2081864498450035 2.1648797413260263 3.0441060287152326 0 0 0
478 1 1.0007546018178932 0.0 0 4.715276147129846 3.6805966223458277 2.36178282417196 0 0 0
477 1 1.0012348063518723 0.0 0 3.79098760593679 3.089771050311083 2.829373435005185 0 0 0
481 1 1.0007842078868021 0.0 0 4.9144756515050005 3.1423141569642117 3.033176495801176 0 0 0
482 1 1.0007600567013044 0.0 0 5.258308416857793 3.930659425107435 3.4704817176656375 0 0 0
479 1 1.0006468404038227 0.0 0 4.202973936710409 3.1453217292832285 3.8499839323177736 0 0 0
377 1 1.0008361662573626 0.0 0 6.929966260593671 3.1564278519618276 2.018013370958927 0 0 0
352 1 1.0007816445882114 0.0 0 5.413774789989228 3.0372075364615996 2.1058489883862825 0 0 0
351 1 1.0008845322940154 0.0 0 6.034223168886138 2.2454801256816617 2.365938781161018 0 0 0
483 1 1.0009048737794748 0.0 0 5.563515428759863 2.809773117816424 3.7452787368741203 0 0 0
356 1 1.0008999833825818 0.0 0 6.312393066550592 2.962394005609566 3.084870734098936 0 0 0
375 1 1.0008546397507718 0.0 0 6.10648997980948 3.7671209730663384 2.669437846396591 0 0 0
509 1 1.0008545272819327 0.0 0 6.7257790852302834 3.9222853296220754 3.5616647109173534 0 0 0
228 1 1.000577409078134 0.0 0 8.594600198613586 2.488076733412638 2.030356841238329 0 0 0
378 1 1.0008370543562217 0.0 0 7.808675469666521 3.510091862637992 2.028605952970559 0 0 0
358 1 1.000584553887131 0.0 0 8.814229328769763 2.2283053793077556 3.3547088994062957 0 0 0
354 1 1.000807800943048 0.0 0 7.820006214417937 2.322288737450965 2.658492764683152 0 0 0
355 1 1.0008178465988466 0.0 0 7.197349501629106 2.3869341008867355 3.0212686749791806 0 0 0
360 1 1.0010131748446702 0.0 0 8.204807747117561 2.867270846899004 3.609105731306877 0 0 0
379 1 1.0007663935914595 0.0 0 7.425385743141467 3.4430987014914014 3.0228538659033166 0 0 0
381 1 1.001048522880146 0.0 0 8.615283741441088 3.3862113415709274 2.690129699198891 0 0 0
383 1 1.0006202354051976 0.0 0 8.817038151349124 3.4148901960397993 3.9529861826891914 0 0 0
495 1 1.0008122102064336 0.0 0 1.503937637356981 4.206502554898365 3.6841045041374776 0 0 0
494 1 1.0004712502246405 0.0 0 0.8598964789289387 5.893368728792408 2.4812634120268515 0 0 0
472 1 1.0005171389642054 0.0 0 0.5292312943778913 4.503348201571809 3.5932639757458604 0 0 0
470 1 1.0009365817604965 0.0 0 1.054798823730519 4.759240817189283 2.583166808373139 0 0 0
500 1 1.0009383846043585 0.0 0 1.6120901050793706 5.141496341328851 3.3657738050331063 0 0 0
493 1 1.0010165835712748 0.0 0 0.379827696044436 5.387335812509042 3.01025440652635 0 0 0
388 1 1.001131013858654 0.0 0 3.3488648831276033 5.144733841820782 2.0170692981705236 0 0 0
497 1 1.0007908642942127 0.0 0 2.06711480492482 4.235346575064976 2.746000671996576 0 0 0
499 1 1.0009610741029966 0.0 0 3.1411305461827497 4.252060068098409 3.3865939014634567 0 0 0
498 1 1.0007597059267959 0.0 0 2.499938730807983 4.797394292226939 2.531467811243763 0 0 0
520 1 1.0009681296693045 0.0 0 1.9834533353873895 5.74207171685726 2.6135497194592765 0 0 0
521 1 1.0007003577387619 0.0 0 3.261738138736017 5.373592461751101 2.998898681246991 0 0 0
504 1 1.0006725544538353 0.0 0 2.669638025670662 5.058295846709344 3.6739944759128638 0 0 0
390 1 1.0008998210786217 0.0 0 4.640115832998255 5.3325194914238585 2.154575296400113 0 0 0
501 1 1.000560762996723 0.0 0 3.9463209977449036 4.235745980939709 2.787918322308391 0 0 0
502 1 1.000917182317802 0.0 0 4.265133285839798 4.493322302857513 3.230641783523655 0 0 0
1649 1 1.0007501370489682 0.0 0 4.008646507476341 5.7831088926027165 2.834824824543645 0 0 0
523 1 1.0008583311387795 0.0 0 4.713542377963455 5.356937377337008 3.2564792428840925 0 0 0
508 1 1.0006291484799619 0.0 0 5.1549391157935585 5.317623460221546 3.8200954988387807 0 0 0
1544 1 1.00088282113181 0.0 0 5.290209101977902 5.959789986158019 2.4802520342870613 0 0 0
392 1 1.0004176555269981 0.0 0 6.24327672932187 5.344332747860615 2.167990457964508 0 0 0
507 1 1.0006870460615889 0.0 0 5.690526614031566 4.357243616605517 3.9402533888672937 0 0 0
505 1 1.000932684659064 0.0 0 5.510626869620782 4.6055738920395015 2.7189515930664565 0 0 0
512 1 1.0009332618440219 0.0 0 6.574697123099645 4.779584821330246 3.9030401800754406 0 0 0
506 1 1.0008543519382287 0.0 0 6.166505400717201 5.192404043764344 2.993119528809344 0 0 0
524 1 1.0007485771182578 0.0 0 5.977365470913082 5.718836224355314 3.8359381084501383 0 0 0
382 1 1.000694225242873 0.0 0 8.28429135428987 4.093432976786105 3.143674720127376 0 0 0
395 1 1.001268720543737 0.0 0 8.472288123595527 4.8132998655594665 2.173814719346001 0 0 0
380 1 1.0007576348233511 0.0 0 7.060800269539731 4.2342539221483095 2.6097243361659515 0 0 0
525 1 1.001248963133947 0.0 0 7.26338936309348 5.162993655510625 2.6515564493377495 0 0 0
384 1 1.0006605355470464 0.0 0 8.270315672574243 4.908785348408449 3.225176069543705 0 0 0
510 1 1.0006499385842238 0.0 0 7.435913301772261 4.920088334428269 3.629341496908972 0 0 0
394 1 1.000553451194747 0.0 0 8.100707915051736 5.803038343234664 2.7601132438789673 0 0 0
1646 1 1.0011204654480315 0.0 0 0.02380594528033723 7.64993385329516 3.7868312424894053 0 0 0
651 1 1.0008716402364548 0.0 0 1.2640816171528428 6.112054137514449 3.725615340546158 0 0 0
1648 1 1.0009751464146146 0.0 0 1.1999652164566155 6.601940067911618 2.422425527992053 0 0 0
517 1 1.0007232763979128 0.0 0 0.08646878179420632 6.945269841699399 2.457867908974789 0 0 0
1659 1 1.0009408041772618 0.0 0 0.43018813040438103 7.8191285563470965 2.593816898094518 0 0 0
518 1 1.0008885134332275 0.0 0 0.4768905626293848 6.625852608779451 3.3398394874519943 0 0 0
1769 1 1.0007483326402475 0.0 0 1.2545428567005106 7.562117498725528 2.9755768891884227 0 0 0
1753 1 1.000789196279734 0.0 0 0.8922677047870583 7.188393730020128 3.87378382831701 0 0 0
1647 1 1.0008959847800918 0.0 0 2.595697226890758 6.271256136489341 2.074647786920187 0 0 0
1650 1 1.0008083888642778 0.0 0 2.8534323845692726 6.214258634166826 3.2266346169261055 0 0 0
1665 1 1.0007826217815181 0.0 0 3.1603290261976347 7.029583367643092 2.539159317299325 0 0 0
1755 1 1.000671340921909 0.0 0 1.992850989369948 6.501824764253193 3.3374608708501596 0 0 0
1663 1 1.0009547897282869 0.0 0 2.190209210000367 7.352747877433029 2.808448977425492 0 0 0
1668 1 1.0006297522498941 0.0 0 2.9208371295208595 7.920549565351102 3.257419965243508 0 0 0
1773 1 1.0007435265176283 0.0 0 2.3427432362220215 7.107896967504033 3.8091101916255 0 0 0
1542 1 1.0006551759766484 0.0 0 3.665320267772255 6.184219403909299 2.0112665254242863 0 0 0
1560 1 1.0007985138271214 0.0 0 3.60539210745052 7.725306225133792 2.1559246694507403 0 0 0
1667 1 1.000939705243996 0.0 0 3.7917474221627074 6.721523838271864 3.2929858743255678 0 0 0
1652 1 1.0006043880439588 0.0 0 5.059016080888258 6.705441226835261 3.8486329615621737 0 0 0
1669 1 1.0008393942307576 0.0 0 4.552232152135407 6.896027757149968 2.845639046709096 0 0 0
1777 1 1.0006395265337136 0.0 0 4.600819778894994 7.547251549961148 3.8627148684827177 0 0 0
1774 1 1.0008008324516764 0.0 0 3.640675295037242 7.4771784311374505 3.633261910611172 0 0 0
1670 1 1.0009687345998868 0.0 0 5.194157547998606 7.6711902853400895 2.736164629867084 0 0 0
1543 1 1.0008682297131357 0.0 0 6.323895091433395 6.222445675524956 2.3380149098823537 0 0 0
1654 1 1.000751254356898 0.0 0 6.414353426214062 6.324208542079078 3.6749499085441752 0 0 0
1651 1 1.0008110158122574 0.0 0 5.466556967846937 6.461747434065703 3.1409559328969237 0 0 0
1563 1 1.0003656629012845 0.0 0 6.010354443644706 7.495417881579643 2.6084689168152053 0 0 0
1673 1 1.0007565478472586 0.0 0 6.801234572703976 7.201772285014682 3.133697516601183 0 0 0
1671 1 1.0009721612126212 0.0 0 5.938771182447739 7.419783947544003 3.6022592383677328 0 0 0
1546 1 1.0004608024320996 0.0 0 7.28404658189513 6.254096521177836 2.2665624565956466 0 0 0
1653 1 1.0009849723566249 0.0 0 7.135567241069093 6.2063962010294595 3.1819760963728103 0 0 0
1569 1 1.0010672890291825 0.0 0 8.13767928791661 6.751429841730628 2.2734360015753516 0 0 0
1548 1 1.0006986375395106 0.0 0 8.341763157953729 6.3913200441884515 3.4175429600448575 0 0 0
1567 1 1.0008278191058166 0.0 0 7.7071575277332265 7.361151272948898 3.0815295729533156 0 0 0
428 1 1.0007201416422675 0.0 0 1.4339522498969763 0.7639036680621234 4.247135189710975 0 0 0
577 1 1.0008567780514943 0.0 0 0.2483226826536353 1.8567609752438097 4.466736949479237 0 0 0
581 1 1.0008025659589117 0.0 0 1.5752555696654689 1.6435665120101834 4.526504523314607 0 0 0
554 1 1.0008945220777132 0.0 0 0.20506338386738115 0.9593550970790236 4.955876963282027 0 0 0
579 1 1.0007960947250802 0.0 0 0.9115880908215104 1.9252673012124397 5.161317825992072 0 0 0
560 1 1.0007692997117652 0.0 0 1.1273076407093432 0.8518555710432572 5.336025319949789 0 0 0
559 1 1.000951333534845 0.0 0 1.6487797998427618 0.17507985919670516 5.522946689607969 0 0 0
536 1 1.0007691139964443 0.0 0 0.5869187796694303 0.09085336416282047 5.771462826552409 0 0 0
427 1 1.0007831908613063 0.0 0 2.1837004042593633 0.47043001776974286 4.074214755968032 0 0 0
582 1 1.00080644905597 0.0 0 2.6458878385765408 1.8438145349452282 4.443970118194144 0 0 0
583 1 1.0006961764719862 0.0 0 2.1181871970287416 1.4063317448842518 5.29164672639284 0 0 0
588 1 1.0010647694570394 0.0 0 2.9316198950507144 1.6823949368472597 5.573136154716399 0 0 0
585 1 1.0007860786206673 0.0 0 3.3416573598046733 0.8351649117407521 4.71551872111012 0 0 0
558 1 1.000991464547678 0.0 0 2.4808199616244333 0.5211477567311577 4.97390841827207 0 0 0
564 1 1.000649787171425 0.0 0 3.2960826212296066 0.46995878788503664 5.762186796001403 0 0 0
455 1 1.0007085430460692 0.0 0 3.856080600339259 0.6773704825402748 4.018522710340711 0 0 0
436 1 1.0008476467086325 0.0 0 4.840665880438659 0.3346031437260752 4.23812917337805 0 0 0
589 1 1.0007707548667215 0.0 0 4.445802308601521 1.249140375702489 4.699705774781316 0 0 0
587 1 1.0007958639082857 0.0 0 3.884300454008773 1.2926200391084934 5.475510336635639 0 0 0
591 1 1.0008627441568212 0.0 0 4.990054126875811 0.818334646927335 5.404985522501521 0 0 0
459 1 1.0007104816432724 0.0 0 5.43439213154483 1.568950056167904 4.135071888861305 0 0 0
590 1 1.0007830923945535 0.0 0 5.313133042843914 1.8778255790451313 4.9468094473699455 0 0 0
593 1 1.0006748653284991 0.0 0 5.623952685386669 0.827289283992512 4.476449552212305 0 0 0
621 1 1.0007755459457248 0.0 0 6.752046441149869 1.4517866170242906 5.05579951892528 0 0 0
596 1 1.0007316187942352 0.0 0 5.717704937159075 1.1103449513304615 5.758448466051662 0 0 0
594 1 1.0011992199342807 0.0 0 6.375252791348986 0.5237294999937059 5.158408949762011 0 0 0
440 1 1.0006287070628186 0.0 0 6.237892870075578 0.13796574081587556 4.126339923298995 0 0 0
468 1 1.0011079995199403 0.0 0 7.242636058742787 1.5158395268559368 4.07200423555004 0 0 0
359 1 1.0007388847914251 0.0 0 8.610699745202396 1.7350546583596873 4.099871836207391 0 0 0
622 1 1.000795259255378 0.0 0 7.887072653663122 1.5726791148441757 5.590666204121788 0 0 0
2951 1 1.0011081952696372 0.0 0 8.25226547897553 0.963497575129942 4.972987376203856 0 0 0
598 1 1.0004866915803219 0.0 0 7.350796393964867 0.64874455256349 4.669351984847929 0 0 0
2932 1 1.000504749493245 0.0 0 8.625293311609328 0.31500967797256574 5.762221957250636 0 0 0
600 1 1.0009144623679096 0.0 0 7.582259902202661 0.09010664880228247 5.612644423585866 0 0 0
601 1 1.000815660612567 0.0 0 0.8029349314774356 3.5963039734515894 4.0692776575839105 0 0 0
580 1 1.0009401505501028 0.0 0 0.7032603738569426 2.962707441338033 4.797393667615663 0 0 0
603 1 1.0009526270838314 0.0 0 1.4068206363847704 3.0017104662422205 5.186529424559886 0 0 0
686 1 1.0006597911139359 0.0 0 0.7046044292384696 2.994789112028566 5.899323857319024 0 0 0
18371 1 1.0007216879273417 0.0 0 0.03205001699316669 3.8350590051144775 5.299087473786069 1 0 0
602 1 1.0005738786749114 0.0 0 1.5919926094276076 3.97746872753399 5.2692326802717675 0 0 0
480 1 1.0008680927542608 0.0 0 3.4119099832524538 3.5252517238622336 4.044462286885469 0 0 0
476 1 1.0008193566069237 0.0 0 2.2189091340206235 3.6111574870081418 4.191072778680503 0 0 0
584 1 1.0007649582162803 0.0 0 2.0572073329980243 2.343266199241939 5.641938699063361 0 0 0
609 1 1.000870674825448 0.0 0 3.340322257309359 2.514289903676132 4.782195601897348 0 0 0
605 1 1.0008953782661114 0.0 0 2.156863781143892 2.758148486192385 4.583488423978366 0 0 0
606 1 1.0006931291311412 0.0 0 2.862465016847414 3.3460113852434454 4.923155525694076 0 0 0
607 1 1.0006836031594517 0.0 0 2.5430251759557505 3.044296574868624 5.8533199174170445 0 0 0