ITEM: TIMESTEP
0
ITEM: NUMBER OF ATOMS
420
ITEM: BOX BOUNDS pp ss pp
0.0000000000000000e+00 2.5687134504920127e+01
-2.2245711031688635e-03 2.2247935602791809e+01
-3.2108918131150160e-01 3.2108918131150160e-01
ITEM: ATOMS id type xs ys zs
1 2 0 9.998e-05 0.5
3 2 0.05 9.998e-05 0.5
5 2 0.1 9.998e-05 0.5
7 2 0.15 9.998e-05 0.5
9 2 0.2 9.998e-05 0.5
11 2 0.25 9.998e-05 0.5
13 2 0.3 9.998e-05 0.5
15 2 0.35 9.998e-05 0.5
17 2 0.4 9.998e-05 0.5
19 2 0.45 9.998e-05 0.5
2 2 0.025 0.05009 0.5
4 2 0.075 0.05009 0.5
6 2 0.125 0.05009 0.5
8 2 0.175 0.05009 0.5
10 2 0.225 0.05009 0.5
12 2 0.275 0.05009 0.5
14 2 0.325 0.05009 0.5
16 2 0.375 0.05009 0.5
18 2 0.425 0.05009 0.5
20 2 0.475 0.05009 0.5
21 2 0 0.10008 0.5
23 2 0.05 0.10008 0.5
25 2 0.1 0.10008 0.5
27 2 0.15 0.10008 0.5
29 2 0.2 0.10008 0.5
31 2 0.25 0.10008 0.5
33 2 0.3 0.10008 0.5
35 2 0.35 0.10008 0.5
37 2 0.4 0.10008 0.5
39 2 0.45 0.10008 0.5
22 1 0.025 0.15007 0.5
24 1 0.075 0.15007 0.5
26 1 0.125 0.15007 0.5
28 1 0.175 0.15007 0.5
30 1 0.225 0.15007 0.5
32 1 0.275 0.15007 0.5
34 1 0.325 0.15007 0.5
36 1 0.375 0.15007 0.5
38 1 0.425 0.15007 0.5
40 1 0.475 0.15007 0.5
41 1 0 0.20006 0.5
43 1 0.05 0.20006 0.5
45 1 0.1 0.20006 0.5
47 1 0.15 0.20006 0.5
49 1 0.2 0.20006 0.5
51 1 0.25 0.20006 0.5
53 1 0.3 0.20006 0.5
55 1 0.35 0.20006 0.5
57 1 0.4 0.20006 0.5
59 1 0.45 0.20006 0.5
42 1 0.025 0.25005 0.5
44 1 0.075 0.25005 0.5
46 1 0.125 0.25005 0.5
48 1 0.175 0.25005 0.5
50 1 0.225 0.25005 0.5
52 1 0.275 0.25005 0.5
54 1 0.325 0.25005 0.5
56 1 0.375 0.25005 0.5
58 1 0.425 0.25005 0.5
60 1 0.475 0.25005 0.5
61 1 0 0.30004 0.5
63 1 0.05 0.30004 0.5
65 1 0.1 0.30004 0.5
67 1 0.15 0.30004 0.5
69 1 0.2 0.30004 0.5
71 1 0.25 0.30004 0.5
73 1 0.3 0.30004 0.5
75 1 0.35 0.30004 0.5
77 1 0.4 0.30004 0.5
79 1 0.45 0.30004 0.5
62 1 0.025 0.35003 0.5
64 1 0.075 0.35003 0.5
66 1 0.125 0.35003 0.5
68 1 0.175 0.35003 0.5
70 1 0.225 0.35003 0.5
72 1 0.275 0.35003 0.5
74 1 0.325 0.35003 0.5
76 1 0.375 0.35003 0.5
78 1 0.425 0.35003 0.5
80 1 0.475 0.35003 0.5
81 1 0 0.40002 0.5
83 1 0.05 0.40002 0.5
85 1 0.1 0.40002 0.5
87 1 0.15 0.40002 0.5
89 1 0.2 0.40002 0.5
91 1 0.25 0.40002 0.5
93 1 0.3 0.40002 0.5
95 1 0.35 0.40002 0.5
97 1 0.4 0.40002 0.5
99 1 0.45 0.40002 0.5
82 1 0.025 0.45001 0.5
84 1 0.075 0.45001 0.5
86 1 0.125 0.45001 0.5
88 1 0.175 0.45001 0.5
90 1 0.225 0.45001 0.5
92 1 0.275 0.45001 0.5
94 1 0.325 0.45001 0.5
96 1 0.375 0.45001 0.5
98 1 0.425 0.45001 0.5
100 1 0.475 0.45001 0.5
101 1 0 0.5 0.5
103 1 0.05 0.5 0.5
105 1 0.1 0.5 0.5
107 1 0.15 0.5 0.5
109 1 0.2 0.5 0.5
111 1 0.25 0.5 0.5
113 1 0.3 0.5 0.5
115 1 0.35 0.5 0.5
117 1 0.4 0.5 0.5
119 1 0.45 0.5 0.5
102 1 0.025 0.54999 0.5
104 1 0.075 0.54999 0.5
106 1 0.125 0.54999 0.5
108 1 0.175 0.54999 0.5
110 1 0.225 0.54999 0.5
112 1 0.275 0.54999 0.5
114 1 0.325 0.54999 0.5
116 1 0.375 0.54999 0.5
118 1 0.425 0.54999 0.5
120 1 0.475 0.54999 0.5
121 1 0 0.59998 0.5
123 1 0.05 0.59998 0.5
125 1 0.1 0.59998 0.5
127 1 0.15 0.59998 0.5
129 1 0.2 0.59998 0.5
131 1 0.25 0.59998 0.5
133 1 0.3 0.59998 0.5
135 1 0.35 0.59998 0.5
137 1 0.4 0.59998 0.5
139 1 0.45 0.59998 0.5
122 1 0.025 0.64997 0.5
124 1 0.075 0.64997 0.5
126 1 0.125 0.64997 0.5
128 1 0.175 0.64997 0.5
130 1 0.225 0.64997 0.5
132 1 0.275 0.64997 0.5
134 1 0.325 0.64997 0.5
136 1 0.375 0.64997 0.5
138 1 0.425 0.64997 0.5
140 1 0.475 0.64997 0.5
141 1 0 0.69996 0.5
143 1 0.05 0.69996 0.5
145 1 0.1 0.69996 0.5
147 1 0.15 0.69996 0.5
149 1 0.2 0.69996 0.5
151 1 0.25 0.69996 0.5
153 1 0.3 0.69996 0.5
155 1 0.35 0.69996 0.5
157 1 0.4 0.69996 0.5
159 1 0.45 0.69996 0.5
142 1 0.025 0.74995 0.5
144 1 0.075 0.74995 0.5
146 1 0.125 0.74995 0.5
148 1 0.175 0.74995 0.5
150 1 0.225 0.74995 0.5
152 1 0.275 0.74995 0.5
154 1 0.325 0.74995 0.5
156 1 0.375 0.74995 0.5
158 1 0.425 0.74995 0.5
160 1 0.475 0.74995 0.5
161 1 0 0.79994 0.5
163 1 0.05 0.79994 0.5
165 1 0.1 0.79994 0.5
167 1 0.15 0.79994 0.5
169 1 0.2 0.79994 0.5
171 1 0.25 0.79994 0.5
173 1 0.3 0.79994 0.5
175 1 0.35 0.79994 0.5
177 1 0.4 0.79994 0.5
179 1 0.45 0.79994 0.5
162 1 0.025 0.84993 0.5
164 1 0.075 0.84993 0.5
166 1 0.125 0.84993 0.5
168 1 0.175 0.84993 0.5
170 1 0.225 0.84993 0.5
172 1 0.275 0.84993 0.5
174 1 0.325 0.84993 0.5
176 1 0.375 0.84993 0.5
178 1 0.425 0.84993 0.5
180 1 0.475 0.84993 0.5
181 3 0 0.89992 0.5
183 3 0.05 0.89992 0.5
185 3 0.1 0.89992 0.5
187 3 0.15 0.89992 0.5
189 3 0.2 0.89992 0.5
191 3 0.25 0.89992 0.5
193 3 0.3 0.89992 0.5
195 3 0.35 0.89992 0.5
197 3 0.4 0.89992 0.5
199 3 0.45 0.89992 0.5
182 3 0.025 0.94991 0.5
184 3 0.075 0.94991 0.5
186 3 0.125 0.94991 0.5
188 3 0.175 0.94991 0.5
190 3 0.225 0.94991 0.5
192 3 0.275 0.94991 0.5
194 3 0.325 0.94991 0.5
196 3 0.375 0.94991 0.5
198 3 0.425 0.94991 0.5
200 3 0.475 0.94991 0.5
201 3 0 0.9999 0.5
202 3 0.05 0.9999 0.5
203 3 0.1 0.9999 0.5
204 3 0.15 0.9999 0.5
205 3 0.2 0.9999 0.5
206 3 0.25 0.9999 0.5
207 3 0.3 0.9999 0.5
208 3 0.35 0.9999 0.5
209 3 0.4 0.9999 0.5
210 3 0.45 0.9999 0.5
211 2 0.5 9.998e-05 0.5
213 2 0.55 9.998e-05 0.5
215 2 0.6 9.998e-05 0.5
217 2 0.65 9.998e-05 0.5
219 2 0.7 9.998e-05 0.5
221 2 0.75 9.998e-05 0.5
223 2 0.8 9.998e-05 0.5
225 2 0.85 9.998e-05 0.5
227 2 0.9 9.998e-05 0.5
229 2 0.95 9.998e-05 0.5
212 2 0.525 0.05009 0.5
214 2 0.575 0.05009 0.5
216 2 0.625 0.05009 0.5
218 2 0.675 0.05009 0.5
220 2 0.725 0.05009 0.5
222 2 0.775 0.05009 0.5
224 2 0.825 0.05009 0.5
226 2 0.875 0.05009 0.5
228 2 0.925 0.05009 0.5
230 2 0.975 0.05009 0.5
231 2 0.5 0.10008 0.5
233 2 0.55 0.10008 0.5
235 2 0.6 0.10008 0.5
237 2 0.65 0.10008 0.5
239 2 0.7 0.10008 0.5
241 2 0.75 0.10008 0.5
243 2 0.8 0.10008 0.5
245 2 0.85 0.10008 0.5
247 2 0.9 0.10008 0.5
249 2 0.95 0.10008 0.5
232 1 0.525 0.15007 0.5
234 1 0.575 0.15007 0.5
236 1 0.625 0.15007 0.5
238 1 0.675 0.15007 0.5
240 1 0.725 0.15007 0.5
242 1 0.775 0.15007 0.5
244 1 0.825 0.15007 0.5
246 1 0.875 0.15007 0.5
248 1 0.925 0.15007 0.5
250 1 0.975 0.15007 0.5
251 1 0.5 0.20006 0.5
253 1 0.55 0.20006 0.5
255 1 0.6 0.20006 0.5
257 1 0.65 0.20006 0.5
259 1 0.7 0.20006 0.5
261 1 0.75 0.20006 0.5
263 1 0.8 0.20006 0.5
265 1 0.85 0.20006 0.5
267 1 0.9 0.20006 0.5
269 1 0.95 0.20006 0.5
252 1 0.525 0.25005 0.5
254 1 0.575 0.25005 0.5
256 1 0.625 0.25005 0.5
258 1 0.675 0.25005 0.5
260 1 0.725 0.25005 0.5
262 1 0.775 0.25005 0.5
264 1 0.825 0.25005 0.5
266 1 0.875 0.25005 0.5
268 1 0.925 0.25005 0.5
270 1 0.975 0.25005 0.5
271 1 0.5 0.30004 0.5
273 1 0.55 0.30004 0.5
275 1 0.6 0.30004 0.5
277 1 0.65 0.30004 0.5
279 1 0.7 0.30004 0.5
281 1 0.75 0.30004 0.5
283 1 0.8 0.30004 0.5
285 1 0.85 0.30004 0.5
287 1 0.9 0.30004 0.5
289 1 0.95 0.30004 0.5
272 1 0.525 0.35003 0.5
274 1 0.575 0.35003 0.5
276 1 0.625 0.35003 0.5
278 1 0.675 0.35003 0.5
280 1 0.725 0.35003 0.5
282 1 0.775 0.35003 0.5
284 1 0.825 0.35003 0.5
286 1 0.875 0.35003 0.5
288 1 0.925 0.35003 0.5
290 1 0.975 0.35003 0.5
291 1 0.5 0.40002 0.5
293 1 0.55 0.40002 0.5
295 1 0.6 0.40002 0.5
297 1 0.65 0.40002 0.5
299 1 0.7 0.40002 0.5
301 1 0.75 0.40002 0.5
303 1 0.8 0.40002 0.5
305 1 0.85 0.40002 0.5
307 1 0.9 0.40002 0.5
309 1 0.95 0.40002 0.5
292 1 0.525 0.45001 0.5
294 1 0.575 0.45001 0.5
296 1 0.625 0.45001 0.5
298 1 0.675 0.45001 0.5
300 1 0.725 0.45001 0.5
302 1 0.775 0.45001 0.5
304 1 0.825 0.45001 0.5
306 1 0.875 0.45001 0.5
308 1 0.925 0.45001 0.5
310 1 0.975 0.45001 0.5
311 1 0.5 0.5 0.5
313 1 0.55 0.5 0.5
315 1 0.6 0.5 0.5
317 1 0.65 0.5 0.5
319 1 0.7 0.5 0.5
321 1 0.75 0.5 0.5
323 1 0.8 0.5 0.5
325 1 0.85 0.5 0.5
327 1 0.9 0.5 0.5
329 1 0.95 0.5 0.5
312 1 0.525 0.54999 0.5
314 1 0.575 0.54999 0.5
316 1 0.625 0.54999 0.5
318 1 0.675 0.54999 0.5
320 1 0.725 0.54999 0.5
322 1 0.775 0.54999 0.5
324 1 0.825 0.54999 0.5
326 1 0.875 0.54999 0.5
328 1 0.925 0.54999 0.5
330 1 0.975 0.54999 0.5
331 1 0.5 0.59998 0.5
333 1 0.55 0.59998 0.5
335 1 0.6 0.59998 0.5
337 1 0.65 0.59998 0.5
339 1 0.7 0.59998 0.5
341 1 0.75 0.59998 0.5
343 1 0.8 0.59998 0.5
345 1 0.85 0.59998 0.5
347 1 0.9 0.59998 0.5
349 1 0.95 0.59998 0.5
332 1 0.525 0.64997 0.5
334 1 0.575 0.64997 0.5
336 1 0.625 0.64997 0.5
338 1 0.675 0.64997 0.5
340 1 0.725 0.64997 0.5
342 1 0.775 0.64997 0.5
344 1 0.825 0.64997 0.5
346 1 0.875 0.64997 0.5
348 1 0.925 0.64997 0.5
350 1 0.975 0.64997 0.5
351 1 0.5 0.69996 0.5
353 1 0.55 0.69996 0.5
355 1 0.6 0.69996 0.5
357 1 0.65 0.69996 0.5
359 1 0.7 0.69996 0.5
361 1 0.75 0.69996 0.5
363 1 0.8 0.69996 0.5
365 1 0.85 0.69996 0.5
367 1 0.9 0.69996 0.5
369 1 0.95 0.69996 0.5
352 1 0.525 0.74995 0.5
354 1 0.575 0.74995 0.5
356 1 0.625 0.74995 0.5
358 1 0.675 0.74995 0.5
360 1 0.725 0.74995 0.5
362 1 0.775 0.74995 0.5
364 1 0.825 0.74995 0.5
366 1 0.875 0.74995 0.5
368 1 0.925 0.74995 0.5
370 1 0.975 0.74995 0.5
371 1 0.5 0.79994 0.5
373 1 0.55 0.79994 0.5
375 1 0.6 0.79994 0.5
377 1 0.65 0.79994 0.5
379 1 0.7 0.79994 0.5
381 1 0.75 0.79994 0.5
383 1 0.8 0.79994 0.5
385 1 0.85 0.79994 0.5
387 1 0.9 0.79994 0.5
389 1 0.95 0.79994 0.5
372 1 0.525 0.84993 0.5
374 1 0.575 0.84993 0.5
376 1 0.625 0.84993 0.5
378 1 0.675 0.84993 0.5
380 1 0.725 0.84993 0.5
382 1 0.775 0.84993 0.5
384 1 0.825 0.84993 0.5
386 1 0.875 0.84993 0.5
388 1 0.925 0.84993 0.5
390 1 0.975 0.84993 0.5
391 3 0.5 0.89992 0.5
393 3 0.55 0.89992 0.5
395 3 0.6 0.89992 0.5
397 3 0.65 0.89992 0.5
399 3 0.7 0.89992 0.5
401 3 0.75 0.89992 0.5
403 3 0.8 0.89992 0.5
405 3 0.85 0.89992 0.5
407 3 0.9 0.89992 0.5
409 3 0.95 0.89992 0.5
392 3 0.525 0.94991 0.5
394 3 0.575 0.94991 0.5
396 3 0.625 0.94991 0.5
398 3 0.675 0.94991 0.5
400 3 0.725 0.94991 0.5
402 3 0.775 0.94991 0.5
404 3 0.825 0.94991 0.5
406 3 0.875 0.94991 0.5
408 3 0.925 0.94991 0.5
410 3 0.975 0.94991 0.5
411 3 0.5 0.9999 0.5
412 3 0.55 0.9999 0.5
413 3 0.6 0.9999 0.5
414 3 0.65 0.9999 0.5
415 3 0.7 0.9999 0.5
416 3 0.75 0.9999 0.5
417 3 0.8 0.9999 0.5
418 3 0.85 0.9999 0.5
419 3 0.9 0.9999 0.5
420 3 0.95 0.9999 0.5
ITEM: TIMESTEP
500
ITEM: NUMBER OF ATOMS
420
ITEM: BOX BOUNDS pp ss pp
0.0000000000000000e+00 2.5687134504920127e+01
-2.2245711031688635e-03 2.2385087792626976e+01
-3.2108918131150160e-01 3.2108918131150160e-01
ITEM: ATOMS id type xs ys zs
1 2 0 9.93675e-05 0.5
3 2 0.05 9.93675e-05 0.5
5 2 0.1 9.93675e-05 0.5
7 2 0.15 9.93675e-05 0.5
9 2 0.2 9.93675e-05 0.5
11 2 0.25 9.93675e-05 0.5
13 2 0.3 9.93675e-05 0.5
15 2 0.35 9.93675e-05 0.5
17 2 0.4 9.93675e-05 0.5
19 2 0.45 9.93675e-05 0.5
2 2 0.025 0.0497831 0.5
4 2 0.075 0.0497831 0.5
6 2 0.125 0.0497831 0.5
8 2 0.175 0.0497831 0.5
10 2 0.225 0.0497831 0.5
12 2 0.275 0.0497831 0.5
14 2 0.325 0.0497831 0.5
16 2 0.375 0.0497831 0.5
18 2 0.425 0.0497831 0.5
20 2 0.475 0.0497831 0.5
21 2 0 0.0994669 0.5
23 2 0.05 0.0994669 0.5
25 2 0.1 0.0994669 0.5
27 2 0.15 0.0994669 0.5
29 2 0.2 0.0994669 0.5
31 2 0.25 0.0994669 0.5
33 2 0.3 0.0994669 0.5
35 2 0.35 0.0994669 0.5
37 2 0.4 0.0994669 0.5
39 2 0.45 0.0994669 0.5
22 1 0.0284509 0.145814 0.5
24 1 0.0730075 0.141698 0.5
26 1 0.131153 0.145085 0.5
28 1 0.176942 0.173338 0.5
30 1 0.26646 0.155826 0.5
32 1 0.30566 0.148625 0.5
34 1 0.345472 0.173569 0.5
36 1 0.425136 0.134815 0.5
38 1 0.450876 0.167577 0.5
40 1 0.484101 0.145961 0.5
117 1 0.387957 0.499825 0.5
43 1 0.0569835 0.187506 0.5
45 1 0.0996799 0.17659 0.5
47 1 0.157246 0.236996 0.5
49 1 0.217642 0.139047 0.5
51 1 0.255546 0.213761 0.5
53 1 0.299659 0.203142 0.5
55 1 0.385166 0.150875 0.5
57 1 0.432588 0.250874 0.5
59 1 0.471645 0.216527 0.5
42 1 0.0635235 0.240378 0.5
44 1 0.107379 0.239818 0.5
46 1 0.199995 0.269849 0.5
48 1 0.197039 0.221069 0.5
50 1 0.284112 0.251531 0.5
52 1 0.32715 0.261866 0.5
54 1 0.344933 0.220175 0.5
56 1 0.410476 0.199441 0.5
58 1 0.496485 0.264414 0.5
107 1 0.219966 0.441997 0.5
290 1 0.0202034 0.296929 0.5
63 1 0.0599867 0.304678 0.5
65 1 0.0989618 0.313346 0.5
67 1 0.233911 0.253193 0.5
69 1 0.227087 0.32335 0.5
71 1 0.260194 0.291452 0.5
73 1 0.296379 0.31229 0.5
75 1 0.38445 0.240003 0.5
77 1 0.403479 0.297341 0.5
79 1 0.45539 0.288937 0.5
62 1 0.0633732 0.352824 0.5
64 1 0.117344 0.361867 0.5
66 1 0.143126 0.277795 0.5
68 1 0.18798 0.316073 0.5
70 1 0.223735 0.371186 0.5
72 1 0.266842 0.367886 0.5
74 1 0.36169 0.31336 0.5
76 1 0.396363 0.358307 0.5
78 1 0.445043 0.355055 0.5
311 1 0.498556 0.493975 0.5
115 1 0.345938 0.461573 0.5
83 1 0.102855 0.412635 0.5
85 1 0.146703 0.396262 0.5
87 1 0.190762 0.407071 0.5
89 1 0.246825 0.409743 0.5
91 1 0.297685 0.415969 0.5
93 1 0.308059 0.357187 0.5
95 1 0.359041 0.370519 0.5
97 1 0.413088 0.403857 0.5
99 1 0.490422 0.343207 0.5
82 1 0.0433343 0.464332 0.5
84 1 0.108834 0.458891 0.5
86 1 0.150043 0.484696 0.5
88 1 0.164515 0.442683 0.5
90 1 0.250104 0.492351 0.5
92 1 0.285446 0.471035 0.5
94 1 0.337647 0.412138 0.5
96 1 0.396705 0.448846 0.5
98 1 0.463641 0.40441 0.5
100 1 0.46939 0.463006 0.5
81 1 0.0387755 0.415557 0.5
119 1 0.433976 0.489949 0.5
41 1 0.0165685 0.197614 0.5
310 1 0.0267681 0.370721 0.5
61 1 0.00665422 0.243306 0.5
103 1 0.080591 0.497199 0.5
369 1 0.0124548 0.693128 0.5
104 1 0.0953653 0.556008 0.5
106 1 0.133794 0.576994 0.5
108 1 0.19577 0.509212 0.5
110 1 0.219323 0.589926 0.5
112 1 0.306311 0.569991 0.5
114 1 0.353393 0.545422 0.5
116 1 0.406796 0.553937 0.5
118 1 0.447253 0.53641 0.5
120 1 0.490456 0.544308 0.5
210 3 0.45 1.00037 0.5
123 1 0.0569167 0.57776 0.5
125 1 0.104618 0.606915 0.5
127 1 0.144581 0.626117 0.5
129 1 0.170987 0.578771 0.5
131 1 0.275705 0.605727 0.5
133 1 0.380874 0.597747 0.5
135 1 0.389145 0.648024 0.5
137 1 0.423471 0.595301 0.5
139 1 0.471883 0.588666 0.5
122 1 0.0694544 0.627865 0.5
124 1 0.0992514 0.689309 0.5
126 1 0.143473 0.672286 0.5
128 1 0.186905 0.637251 0.5
130 1 0.237198 0.639184 0.5
132 1 0.302353 0.648177 0.5
134 1 0.343827 0.646228 0.5
136 1 0.431986 0.644456 0.5
138 1 0.470311 0.668648 0.5
140 1 0.492522 0.63001 0.5
209 3 0.4 1.00037 0.5
143 1 0.0551609 0.682992 0.5
145 1 0.083399 0.733721 0.5
147 1 0.177691 0.692953 0.5
149 1 0.216844 0.676736 0.5
151 1 0.264776 0.696846 0.5
153 1 0.304146 0.697797 0.5
155 1 0.368799 0.688876 0.5
157 1 0.433656 0.703001 0.5
159 1 0.481139 0.715324 0.5
142 1 0.0265096 0.751033 0.5
144 1 0.0857196 0.786609 0.5
146 1 0.133304 0.730402 0.5
148 1 0.203412 0.742535 0.5
150 1 0.248965 0.743208 0.5
152 1 0.288762 0.739633 0.5
154 1 0.340683 0.739052 0.5
156 1 0.384077 0.750087 0.5
158 1 0.480187 0.765466 0.5
113 1 0.320997 0.505524 0.5
101 1 0.0316526 0.510926 0.5
163 1 0.0440104 0.802025 0.5
165 1 0.134053 0.782594 0.5
167 1 0.174673 0.791982 0.5
169 1 0.223034 0.781887 0.5
171 1 0.300456 0.800281 0.5
173 1 0.341635 0.786958 0.5
175 1 0.377665 0.808343 0.5
177 1 0.418916 0.807878 0.5
179 1 0.4602 0.813436 0.5
162 1 0.0423147 0.855804 0.5
164 1 0.0860475 0.846527 0.5
166 1 0.141925 0.846105 0.5
168 1 0.192821 0.835503 0.5
170 1 0.236235 0.836879 0.5
172 1 0.273826 0.850664 0.5
174 1 0.347537 0.83979 0.5
176 1 0.388002 0.855192 0.5
178 1 0.433549 0.851376 0.5
105 1 0.126779 0.522757 0.5
181 3 0 0.901003 0.5
183 3 0.05 0.901003 0.5
185 3 0.1 0.901003 0.5
187 3 0.15 0.901003 0.5
189 3 0.2 0.901003 0.5
191 3 0.25 0.901003 0.5
193 3 0.3 0.901003 0.5
195 3 0.35 0.901003 0.5
197 3 0.4 0.901003 0.5
199 3 0.45 0.901003 0.5
182 3 0.025 0.950686 0.5
184 3 0.075 0.950686 0.5
186 3 0.125 0.950686 0.5
188 3 0.175 0.950686 0.5
190 3 0.225 0.950686 0.5
192 3 0.275 0.950686 0.5
194 3 0.325 0.950686 0.5
196 3 0.375 0.950686 0.5
198 3 0.425 0.950686 0.5
200 3 0.475 0.950686 0.5
201 3 0 1.00037 0.5
202 3 0.05 1.00037 0.5
203 3 0.1 1.00037 0.5
204 3 0.15 1.00037 0.5
205 3 0.2 1.00037 0.5
206 3 0.25 1.00037 0.5
207 3 0.3 1.00037 0.5
208 3 0.35 1.00037 0.5
141 1 0.0229359 0.64747 0.5
111 1 0.265172 0.558844 0.5
109 1 0.225903 0.543549 0.5
121 1 0.0167501 0.587947 0.5
102 1 0.00101138 0.544442 0.5
211 2 0.5 9.93675e-05 0.5
213 2 0.55 9.93675e-05 0.5
215 2 0.6 9.93675e-05 0.5
217 2 0.65 9.93675e-05 0.5
219 2 0.7 9.93675e-05 0.5
221 2 0.75 9.93675e-05 0.5
223 2 0.8 9.93675e-05 0.5
225 2 0.85 9.93675e-05 0.5
227 2 0.9 9.93675e-05 0.5
229 2 0.95 9.93675e-05 0.5
212 2 0.525 0.0497831 0.5
214 2 0.575 0.0497831 0.5
216 2 0.625 0.0497831 0.5
218 2 0.675 0.0497831 0.5
220 2 0.725 0.0497831 0.5
222 2 0.775 0.0497831 0.5
224 2 0.825 0.0497831 0.5
226 2 0.875 0.0497831 0.5
228 2 0.925 0.0497831 0.5
230 2 0.975 0.0497831 0.5
231 2 0.5 0.0994669 0.5
233 2 0.55 0.0994669 0.5
235 2 0.6 0.0994669 0.5
237 2 0.65 0.0994669 0.5
239 2 0.7 0.0994669 0.5
241 2 0.75 0.0994669 0.5
243 2 0.8 0.0994669 0.5
245 2 0.85 0.0994669 0.5
247 2 0.9 0.0994669 0.5
249 2 0.95 0.0994669 0.5
232 1 0.529503 0.14283 0.5
234 1 0.574194 0.139221 0.5
236 1 0.619663 0.164733 0.5
238 1 0.658216 0.199862 0.5
240 1 0.720137 0.150048 0.5
242 1 0.781625 0.151371 0.5
244 1 0.820252 0.155811 0.5
246 1 0.872238 0.151821 0.5
248 1 0.916601 0.157925 0.5
250 1 0.983513 0.15194 0.5
251 1 0.508665 0.189513 0.5
253 1 0.567071 0.192643 0.5
255 1 0.611383 0.216231 0.5
257 1 0.694734 0.24131 0.5
259 1 0.698538 0.190287 0.5
261 1 0.753619 0.185728 0.5
263 1 0.799714 0.199801 0.5
265 1 0.843366 0.196282 0.5
267 1 0.905017 0.212259 0.5
269 1 0.973615 0.202718 0.5
252 1 0.570097 0.253265 0.5
254 1 0.607471 0.262755 0.5
256 1 0.650697 0.250829 0.5
258 1 0.714934 0.287592 0.5
260 1 0.731703 0.22221 0.5
262 1 0.767562 0.235629 0.5
264 1 0.821963 0.253749 0.5
266 1 0.871141 0.24973 0.5
268 1 0.910555 0.270056 0.5
270 1 0.946144 0.237704 0.5
271 1 0.559758 0.302709 0.5
273 1 0.599523 0.345492 0.5
275 1 0.633609 0.303199 0.5
277 1 0.676633 0.29359 0.5
279 1 0.737174 0.336805 0.5
281 1 0.756529 0.283687 0.5
283 1 0.787568 0.311386 0.5
285 1 0.836797 0.29969 0.5
287 1 0.878193 0.298942 0.5
289 1 0.954566 0.280415 0.5
272 1 0.555614 0.350014 0.5
274 1 0.634036 0.380276 0.5
276 1 0.654175 0.341411 0.5
278 1 0.693922 0.364457 0.5
280 1 0.774187 0.353323 0.5
282 1 0.81681 0.356154 0.5
284 1 0.883135 0.351517 0.5
286 1 0.932687 0.377138 0.5
288 1 0.943236 0.325731 0.5
60 1 0.530778 0.237182 0.5
329 1 1.00253 0.443027 0.5
293 1 0.574544 0.396879 0.5
295 1 0.604009 0.429364 0.5
297 1 0.676408 0.405677 0.5
299 1 0.744916 0.392234 0.5
301 1 0.79495 0.439391 0.5
303 1 0.786533 0.394565 0.5
305 1 0.919921 0.419446 0.5
307 1 0.973089 0.376238 0.5
309 1 0.987167 0.324756 0.5
292 1 0.532313 0.435515 0.5
294 1 0.577816 0.465364 0.5
296 1 0.663388 0.476129 0.5
298 1 0.708151 0.47609 0.5
300 1 0.745705 0.438626 0.5
302 1 0.846828 0.403167 0.5
304 1 0.871217 0.435757 0.5
330 1 0.987125 0.487555 0.5
308 1 0.961015 0.420127 0.5
315 1 0.615222 0.487573 0.5
323 1 0.838931 0.459713 0.5
80 1 0.520927 0.302992 0.5
327 1 0.926274 0.472546 0.5
313 1 0.537058 0.479157 0.5
291 1 0.505629 0.397229 0.5
312 1 0.530024 0.530725 0.5
314 1 0.572552 0.51281 0.5
316 1 0.631694 0.53082 0.5
318 1 0.723518 0.564496 0.5
320 1 0.768002 0.565321 0.5
322 1 0.818021 0.539782 0.5
324 1 0.858649 0.561661 0.5
326 1 0.915557 0.548255 0.5
328 1 0.954678 0.526117 0.5
161 1 1.00023 0.793725 0.5
331 1 0.523733 0.578918 0.5
333 1 0.572586 0.564376 0.5
335 1 0.640808 0.58704 0.5
337 1 0.676983 0.58043 0.5
339 1 0.712213 0.607212 0.5
341 1 0.780517 0.611697 0.5
343 1 0.831534 0.598893 0.5
345 1 0.881161 0.600631 0.5
347 1 0.932274 0.584741 0.5
349 1 0.96884 0.575035 0.5
332 1 0.555077 0.609617 0.5
334 1 0.594945 0.622259 0.5
336 1 0.630994 0.640546 0.5
338 1 0.675581 0.630709 0.5
340 1 0.745958 0.640764 0.5
342 1 0.790387 0.685711 0.5
344 1 0.836388 0.643412 0.5
346 1 0.89903 0.651188 0.5
348 1 0.935418 0.634997 0.5
350 1 0.977386 0.657368 0.5
420 3 0.95 1.00037 0.5
353 1 0.561465 0.67764 0.5
355 1 0.604564 0.693958 0.5
357 1 0.692517 0.709774 0.5
359 1 0.71997 0.745885 0.5
361 1 0.760414 0.719054 0.5
363 1 0.836284 0.711583 0.5
365 1 0.910512 0.698519 0.5
367 1 0.950747 0.70488 0.5
306 1 0.896863 0.502008 0.5
352 1 0.552438 0.725377 0.5
354 1 0.589271 0.739058 0.5
356 1 0.6476 0.714275 0.5
358 1 0.65941 0.768836 0.5
360 1 0.76168 0.768084 0.5
362 1 0.799911 0.746839 0.5
364 1 0.871839 0.687799 0.5
366 1 0.879933 0.758481 0.5
368 1 0.922716 0.745607 0.5
370 1 0.973907 0.755765 0.5
371 1 0.529559 0.804737 0.5
373 1 0.565231 0.774186 0.5
375 1 0.607564 0.783245 0.5
377 1 0.643203 0.811012 0.5
379 1 0.711445 0.800569 0.5
381 1 0.798202 0.800809 0.5
383 1 0.838798 0.763801 0.5
385 1 0.871777 0.803329 0.5
387 1 0.911924 0.806451 0.5
389 1 0.961789 0.808438 0.5
372 1 0.547569 0.854898 0.5
374 1 0.5788 0.823887 0.5
376 1 0.617271 0.846877 0.5
378 1 0.675138 0.861792 0.5
380 1 0.734912 0.859499 0.5
382 1 0.776403 0.851772 0.5
384 1 0.833463 0.847053 0.5
386 1 0.878711 0.847904 0.5
388 1 0.941827 0.845055 0.5
390 1 0.981855 0.85944 0.5
391 3 0.5 0.901003 0.5
393 3 0.55 0.901003 0.5
395 3 0.6 0.901003 0.5
397 3 0.65 0.901003 0.5
399 3 0.7 0.901003 0.5
401 3 0.75 0.901003 0.5
403 3 0.8 0.901003 0.5
405 3 0.85 0.901003 0.5
407 3 0.9 0.901003 0.5
409 3 0.95 0.901003 0.5
392 3 0.525 0.950686 0.5
394 3 0.575 0.950686 0.5
396 3 0.625 0.950686 0.5
398 3 0.675 0.950686 0.5
400 3 0.725 0.950686 0.5
402 3 0.775 0.950686 0.5
404 3 0.825 0.950686 0.5
406 3 0.875 0.950686 0.5
408 3 0.925 0.950686 0.5
410 3 0.975 0.950686 0.5
411 3 0.5 1.00037 0.5
412 3 0.55 1.00037 0.5
413 3 0.6 1.00037 0.5
414 3 0.65 1.00037 0.5
415 3 0.7 1.00037 0.5
416 3 0.75 1.00037 0.5
417 3 0.8 1.00037 0.5
418 3 0.85 1.00037 0.5
419 3 0.9 1.00037 0.5
351 1 0.520021 0.69319 0.5
325 1 0.852098 0.50905 0.5
317 1 0.689384 0.526544 0.5
319 1 0.736962 0.514419 0.5
160 1 0.518146 0.750871 0.5
180 1 0.505566 0.854418 0.5
321 1 0.790609 0.506009 0.5
ITEM: TIMESTEP
1000
ITEM: NUMBER OF ATOMS
420
ITEM: BOX BOUNDS pp ss pp
0.0000000000000000e+00 2.5687134504920127e+01
-2.2245711031688635e-03 2.2799620780242680e+01
-3.2108918131150160e-01 3.2108918131150160e-01
ITEM: ATOMS id type xs ys zs
1 2 0 9.7561e-05 0.5
3 2 0.05 9.7561e-05 0.5
5 2 0.1 9.7561e-05 0.5
7 2 0.15 9.7561e-05 0.5
9 2 0.2 9.7561e-05 0.5
11 2 0.25 9.7561e-05 0.5
13 2 0.3 9.7561e-05 0.5
15 2 0.35 9.7561e-05 0.5
17 2 0.4 9.7561e-05 0.5
19 2 0.45 9.7561e-05 0.5
2 2 0.025 0.0488781 0.5
4 2 0.075 0.0488781 0.5
6 2 0.125 0.0488781 0.5
8 2 0.175 0.0488781 0.5
10 2 0.225 0.0488781 0.5
12 2 0.275 0.0488781 0.5
14 2 0.325 0.0488781 0.5
16 2 0.375 0.0488781 0.5
18 2 0.425 0.0488781 0.5
20 2 0.475 0.0488781 0.5
21 2 0 0.0976586 0.5
23 2 0.05 0.0976586 0.5
25 2 0.1 0.0976586 0.5
27 2 0.15 0.0976586 0.5
29 2 0.2 0.0976586 0.5
31 2 0.25 0.0976586 0.5
33 2 0.3 0.0976586 0.5
35 2 0.35 0.0976586 0.5
37 2 0.4 0.0976586 0.5
39 2 0.45 0.0976586 0.5
22 1 0.0311161 0.137494 0.5
24 1 0.0788923 0.135902 0.5
26 1 0.146963 0.144749 0.5
28 1 0.219845 0.155041 0.5
30 1 0.306795 0.155497 0.5
32 1 0.350017 0.147701 0.5
34 1 0.368908 0.192793 0.5
36 1 0.44659 0.141919 0.5
38 1 0.47398 0.194698 0.5
41 1 0.0517843 0.178783 0.5
61 1 0.0918559 0.230141 0.5
43 1 0.10968 0.169607 0.5
45 1 0.147657 0.195158 0.5
47 1 0.190538 0.200207 0.5
49 1 0.259408 0.144448 0.5
51 1 0.275161 0.192807 0.5
53 1 0.325947 0.205371 0.5
55 1 0.403221 0.150696 0.5
57 1 0.454483 0.238397 0.5
286 1 0.0209248 0.337331 0.5
42 1 0.157034 0.255817 0.5
44 1 0.199147 0.256277 0.5
46 1 0.236321 0.271834 0.5
48 1 0.234328 0.216722 0.5
50 1 0.325568 0.258156 0.5
52 1 0.368992 0.288079 0.5
54 1 0.376391 0.23764 0.5
56 1 0.428151 0.196381 0.5
329 1 0.0688286 0.432547 0.5
107 1 0.309975 0.453303 0.5
290 1 0.068249 0.271357 0.5
63 1 0.121375 0.284922 0.5
65 1 0.171841 0.295554 0.5
67 1 0.274717 0.256437 0.5
69 1 0.269869 0.314144 0.5
71 1 0.310776 0.302108 0.5
73 1 0.358864 0.339644 0.5
75 1 0.415511 0.239972 0.5
77 1 0.476085 0.28665 0.5
330 1 0.0296207 0.450621 0.5
62 1 0.134511 0.345547 0.5
64 1 0.188041 0.399692 0.5
66 1 0.216668 0.312149 0.5
68 1 0.195999 0.355545 0.5
70 1 0.258459 0.373857 0.5
72 1 0.301892 0.356804 0.5
74 1 0.434323 0.298877 0.5
76 1 0.450222 0.338583 0.5
78 1 0.489935 0.338017 0.5
103 1 0.171694 0.479872 0.5
115 1 0.403994 0.4517 0.5
83 1 0.145718 0.3892 0.5
85 1 0.228018 0.41384 0.5
87 1 0.261086 0.435841 0.5
89 1 0.297264 0.40811 0.5
91 1 0.348706 0.425327 0.5
93 1 0.342876 0.382497 0.5
95 1 0.404919 0.355464 0.5
97 1 0.491935 0.386131 0.5
310 1 0.0964826 0.322079 0.5
82 1 0.123636 0.462736 0.5
84 1 0.162445 0.433303 0.5
328 1 0.0379756 0.497518 0.5
88 1 0.203038 0.450153 0.5
102 1 0.0790103 0.481446 0.5
92 1 0.368995 0.480185 0.5
94 1 0.397731 0.404636 0.5
96 1 0.442608 0.385989 0.5
308 1 0.0232864 0.402457 0.5
100 1 0.461343 0.425465 0.5
81 1 0.101571 0.393191 0.5
307 1 0.058745 0.343206 0.5
108 1 0.283917 0.490314 0.5
117 1 0.459203 0.478138 0.5
309 1 0.019075 0.292899 0.5
289 1 0.0388628 0.230981 0.5
119 1 0.499728 0.492188 0.5
269 1 0.00440301 0.170722 0.5
369 1 0.068093 0.708034 0.5
104 1 0.145501 0.548401 0.5
106 1 0.194926 0.577312 0.5
90 1 0.333719 0.504772 0.5
110 1 0.267061 0.591069 0.5
112 1 0.370368 0.591404 0.5
114 1 0.398487 0.55201 0.5
116 1 0.439379 0.528678 0.5
118 1 0.474465 0.563403 0.5
370 1 0.0514167 0.758172 0.5
210 3 0.45 1.0002 0.5
123 1 0.0835418 0.543545 0.5
125 1 0.166987 0.617591 0.5
127 1 0.213351 0.624154 0.5
129 1 0.237072 0.545654 0.5
131 1 0.327151 0.580166 0.5
133 1 0.432234 0.578192 0.5
135 1 0.446046 0.630291 0.5
137 1 0.482011 0.608556 0.5
349 1 0.0413116 0.554364 0.5
122 1 0.125768 0.593349 0.5
124 1 0.140637 0.696965 0.5
126 1 0.126396 0.643662 0.5
128 1 0.260986 0.637386 0.5
130 1 0.302974 0.625646 0.5
132 1 0.34118 0.633197 0.5
134 1 0.405735 0.628456 0.5
136 1 0.498711 0.66034 0.5
350 1 0.0566405 0.643657 0.5
161 1 0.0286434 0.817277 0.5
209 3 0.4 1.0002 0.5
143 1 0.100752 0.680179 0.5
145 1 0.144882 0.746296 0.5
147 1 0.185707 0.671207 0.5
149 1 0.229443 0.693477 0.5
151 1 0.33498 0.683793 0.5
153 1 0.377785 0.693715 0.5
155 1 0.445946 0.683797 0.5
111 1 0.358082 0.541074 0.5
121 1 0.0279881 0.610806 0.5
142 1 0.0977957 0.749144 0.5
144 1 0.127008 0.793154 0.5
146 1 0.188755 0.723645 0.5
148 1 0.259707 0.734255 0.5
150 1 0.297347 0.695765 0.5
152 1 0.319055 0.742798 0.5
154 1 0.437029 0.733802 0.5
156 1 0.486213 0.73217 0.5
109 1 0.285447 0.542543 0.5
113 1 0.401062 0.506008 0.5
101 1 0.11804 0.506153 0.5
163 1 0.0780986 0.798638 0.5
165 1 0.194882 0.784369 0.5
167 1 0.229985 0.804537 0.5
169 1 0.270646 0.803059 0.5
171 1 0.309854 0.800866 0.5
173 1 0.379157 0.738472 0.5
175 1 0.416183 0.791306 0.5
177 1 0.458429 0.777758 0.5
367 1 0.0199212 0.70674 0.5
162 1 0.0491744 0.852484 0.5
164 1 0.130665 0.856478 0.5
166 1 0.168612 0.828995 0.5
168 1 0.209014 0.846999 0.5
170 1 0.266899 0.851695 0.5
172 1 0.309809 0.858631 0.5
174 1 0.383579 0.832387 0.5
176 1 0.430848 0.834325 0.5
178 1 0.467358 0.854081 0.5
105 1 0.186523 0.531731 0.5
181 3 0 0.902635 0.5
183 3 0.05 0.902635 0.5
185 3 0.1 0.902635 0.5
187 3 0.15 0.902635 0.5
189 3 0.2 0.902635 0.5
191 3 0.25 0.902635 0.5
193 3 0.3 0.902635 0.5
195 3 0.35 0.902635 0.5
197 3 0.4 0.902635 0.5
199 3 0.45 0.902635 0.5
182 3 0.025 0.951415 0.5
184 3 0.075 0.951415 0.5
186 3 0.125 0.951415 0.5
188 3 0.175 0.951415 0.5
190 3 0.225 0.951415 0.5
192 3 0.275 0.951415 0.5
194 3 0.325 0.951415 0.5
196 3 0.375 0.951415 0.5
198 3 0.425 0.951415 0.5
200 3 0.475 0.951415 0.5
201 3 0 1.0002 0.5
202 3 0.05 1.0002 0.5
203 3 0.1 1.0002 0.5
204 3 0.15 1.0002 0.5
205 3 0.2 1.0002 0.5
206 3 0.25 1.0002 0.5
207 3 0.3 1.0002 0.5
208 3 0.35 1.0002 0.5
141 1 0.0904594 0.615267 0.5
86 1 0.239714 0.500747 0.5
348 1 0.00182794 0.647705 0.5
211 2 0.5 9.7561e-05 0.5
213 2 0.55 9.7561e-05 0.5
215 2 0.6 9.7561e-05 0.5
217 2 0.65 9.7561e-05 0.5
219 2 0.7 9.7561e-05 0.5
221 2 0.75 9.7561e-05 0.5
223 2 0.8 9.7561e-05 0.5
225 2 0.85 9.7561e-05 0.5
227 2 0.9 9.7561e-05 0.5
229 2 0.95 9.7561e-05 0.5
212 2 0.525 0.0488781 0.5
214 2 0.575 0.0488781 0.5
216 2 0.625 0.0488781 0.5
218 2 0.675 0.0488781 0.5
220 2 0.725 0.0488781 0.5
222 2 0.775 0.0488781 0.5
224 2 0.825 0.0488781 0.5
226 2 0.875 0.0488781 0.5
228 2 0.925 0.0488781 0.5
230 2 0.975 0.0488781 0.5
231 2 0.5 0.0976586 0.5
233 2 0.55 0.0976586 0.5
235 2 0.6 0.0976586 0.5
237 2 0.65 0.0976586 0.5
239 2 0.7 0.0976586 0.5
241 2 0.75 0.0976586 0.5
243 2 0.8 0.0976586 0.5
245 2 0.85 0.0976586 0.5
247 2 0.9 0.0976586 0.5
249 2 0.95 0.0976586 0.5
232 1 0.561103 0.193686 0.5
234 1 0.568109 0.144162 0.5
236 1 0.626814 0.137555 0.5
238 1 0.664677 0.152399 0.5
240 1 0.711646 0.146952 0.5
242 1 0.827885 0.149754 0.5
244 1 0.878806 0.138906 0.5
246 1 0.922582 0.170426 0.5
248 1 0.961779 0.191836 0.5
250 1 0.971059 0.141598 0.5
99 1 0.584053 0.32843 0.5
253 1 0.611271 0.188395 0.5
255 1 0.661002 0.205153 0.5
257 1 0.737045 0.245434 0.5
259 1 0.700518 0.191035 0.5
261 1 0.769588 0.140241 0.5
263 1 0.876745 0.186687 0.5
265 1 0.911218 0.214732 0.5
267 1 0.93514 0.253642 0.5
321 1 0.871892 0.494635 0.5
252 1 0.653755 0.274033 0.5
254 1 0.690048 0.290293 0.5
256 1 0.690648 0.242958 0.5
258 1 0.769386 0.284243 0.5
260 1 0.748919 0.194982 0.5
262 1 0.825245 0.202933 0.5
264 1 0.855585 0.235698 0.5
266 1 0.8959 0.262962 0.5
268 1 0.984233 0.257031 0.5
270 1 0.99937 0.215314 0.5
271 1 0.625804 0.316474 0.5
273 1 0.694297 0.383231 0.5
275 1 0.713584 0.338869 0.5
277 1 0.731781 0.295935 0.5
279 1 0.825281 0.307414 0.5
281 1 0.816119 0.25983 0.5
283 1 0.860091 0.289466 0.5
285 1 0.89331 0.319342 0.5
287 1 0.93936 0.319546 0.5
306 1 0.95076 0.469861 0.5
272 1 0.669388 0.343379 0.5
274 1 0.709501 0.431555 0.5
276 1 0.735324 0.387989 0.5
278 1 0.758937 0.328893 0.5
280 1 0.811988 0.362075 0.5
282 1 0.862296 0.356909 0.5
284 1 0.95877 0.368532 0.5
251 1 0.523074 0.210383 0.5
288 1 0.978976 0.311116 0.5
60 1 0.579532 0.234357 0.5
291 1 0.546898 0.373398 0.5
293 1 0.650475 0.43056 0.5
295 1 0.678933 0.462636 0.5
297 1 0.750784 0.448432 0.5
299 1 0.780112 0.39277 0.5
301 1 0.839453 0.462917 0.5
303 1 0.832516 0.403906 0.5
305 1 0.976827 0.41367 0.5
40 1 0.522006 0.143112 0.5
98 1 0.51981 0.423867 0.5
292 1 0.589481 0.410535 0.5
294 1 0.629692 0.471518 0.5
296 1 0.732081 0.498121 0.5
298 1 0.793956 0.482128 0.5
300 1 0.800396 0.430387 0.5
302 1 0.914747 0.375204 0.5
304 1 0.926971 0.430565 0.5
58 1 0.574715 0.282239 0.5
325 1 0.911141 0.485862 0.5
311 1 0.544136 0.493444 0.5
323 1 0.881734 0.419697 0.5
80 1 0.632817 0.385596 0.5
327 1 0.992011 0.483496 0.5
313 1 0.582908 0.456646 0.5
79 1 0.523521 0.300079 0.5
59 1 0.506062 0.258269 0.5
312 1 0.562896 0.550719 0.5
314 1 0.599731 0.505323 0.5
316 1 0.693173 0.527376 0.5