LAMMPS (29 Oct 2020)
  using 8 OpenMP thread(s) per MPI task
Total wall time: 0:00:00
