LAMMPS (29 Oct 2020)
  using 8 OpenMP thread(s) per MPI task
dimension          2
units              lj
atom_style         rheo
boundary           p f p
comm_modify        vel yes
newton off

## Particle Lattice/Resolution Parameters
variable           L equal 10
variable           t_tot equal 5000
variable           sf equal .2 #/${L} #scaling of unit cell
variable           nb equal 1    #number of basis atoms depends on lattice
variable           n equal ${nb}/(${sf}^2)
variable           n equal 1/(${sf}^2)
variable           n equal 1/(0.2^2)
variable           del equal ${sf}#*sqrt(2)
variable           del equal 0.2
variable           hd equal 3.5
variable           h3 equal ${hd}*${del}
variable           h3 equal 3.5*${del}
variable           h3 equal 3.5*0.2
variable           dz equal 0.1*${sf}
variable           dz equal 0.1*0.2

# create simulation box

# read_restart       restart_adj_param.857143
###########################
### COMMENT FOR RESTART ###
region             box block 0 20 -10 10 -${dz} ${dz} units box
region             box block 0 20 -10 10 -0.02 ${dz} units box
region             box block 0 20 -10 10 -0.02 0.02 units box
create_box         2 box
Created orthogonal box = (0.0000000 -10.000000 -0.02) to (20.000000 10.000000 0.02)
  2 by 1 by 1 MPI processor grid
lattice            sq ${n}
lattice            sq 25
Lattice spacing in x,y,z = 0.2 0.2 0.2

#region             block cylinder z 10 -4.8 4 -${dz} ${dz} units b
region             topwall block INF INF  7 10 -${dz} ${dz} units box
region             topwall block INF INF  7 10 -0.02 ${dz} units box
region             topwall block INF INF  7 10 -0.02 0.02 units box
region             block   block INF INF -6.99 6.99 -${dz} ${dz} units box
region             block   block INF INF -6.99 6.99 -0.02 ${dz} units box
region             block   block INF INF -6.99 6.99 -0.02 0.02 units box
region             botwall block INF INF -10 -7 -${dz} ${dz} units box
region             botwall block INF INF -10 -7 -0.02 ${dz} units box
region             botwall block INF INF -10 -7 -0.02 0.02 units box

create_atoms       2 region topwall
Created 1500 atoms
  create_atoms CPU = 0.003 seconds
create_atoms       2 region botwall
Created 1600 atoms
  create_atoms CPU = 0.000 seconds
create_atoms       1 region block
Created 6900 atoms
  create_atoms CPU = 0.001 seconds

group              fluid type 1
6900 atoms in group fluid
group              rig type 2
3100 atoms in group rig

#Now randomly displace in x and y up %20 of their spacing (sf)
variable           seed equal 135414
variable           dr equal 0.1*${del}
variable           dr equal 0.1*0.2
displace_atoms     fluid random ${dr} ${dr} 0 ${seed} units box
displace_atoms     fluid random 0.02 ${dr} 0 ${seed} units box
displace_atoms     fluid random 0.02 0.02 0 ${seed} units box
displace_atoms     fluid random 0.02 0.02 0 135414 units box
Displacing atoms ...
### COMMENT FOR RESTART ###
###########################

# Potential parameters eta = 1, cs = 0 so force gives laplacian
variable           rho0 equal 1.0
variable           mp equal ${rho0}/${n}
variable           mp equal 1/${n}
variable           mp equal 1/25
variable           cs equal 4.0
variable           zeta equal 1
variable           D equal 1.0
variable	       kappa equal ${D}*${rho0}/${mp}
variable	       kappa equal 1*${rho0}/${mp}
variable	       kappa equal 1*1/${mp}
variable	       kappa equal 1*1/0.04
variable           fext equal 1e-3/${n}
variable           fext equal 1e-3/25
#Viscosity parameters
variable           eta equal 0.1 #1 becomes fully developed faster than 0.1; gives better profile
#(for a Herschel-Bulkley fluid - special case: power law)
variable           gd0 equal 1e-2
variable           npow equal 0.5
variable           K equal ${eta}*${gd0}^(1-${npow})
variable           K equal 0.1*${gd0}^(1-${npow})
variable           K equal 0.1*0.01^(1-${npow})
variable           K equal 0.1*0.01^(1-0.5)


# Set particle properties
mass               1 ${mp}
mass               1 0.04
mass               2 ${mp}
mass               2 0.04
set                group all rho ${rho0}
set                group all rho 1
Setting atom values ...
  10000 settings made for rho
set                group all phase 0
Setting atom values ...
  10000 settings made for phase
#set                group rig phase 4
set                group all temp 1.0
Setting atom values ...
  10000 settings made for temp

#velocity           fluid set 0.0 -1 0.0 units box


#Integration and Kernel
fix                1 all rheo ${h3} Quintic 0 shift # rhosum 1
fix                1 all rheo 0.7 Quintic 0 shift 
#fix                2 all rheo/viscosity constant ${eta}
fix                2 all rheo/viscosity power ${eta} ${gd0} ${K} ${npow}
fix                2 all rheo/viscosity power 0.1 ${gd0} ${K} ${npow}
fix                2 all rheo/viscosity power 0.1 0.01 ${K} ${npow}
fix                2 all rheo/viscosity power 0.1 0.01 0.01 ${npow}
fix                2 all rheo/viscosity power 0.1 0.01 0.01 0.5
#fix                3 all rheo/surface ${h3} 1.5 10

fix                4 rig setforce 0.0 0.0 0.0
fix                5 fluid addforce ${fext} 0.0 0.0
fix                5 fluid addforce 4e-05 0.0 0.0

variable           Dr equal 0.05*${h3}*${cs}
variable           Dr equal 0.05*0.7*${cs}
variable           Dr equal 0.05*0.7*4
pair_style         rheo ${h3} artificial/visc ${zeta} rho/damp ${Dr}  #pressure taitwater rho/damp ${Dr}
pair_style         rheo 0.7 artificial/visc ${zeta} rho/damp ${Dr}  
pair_style         rheo 0.7 artificial/visc 1 rho/damp ${Dr}  
pair_style         rheo 0.7 artificial/visc 1 rho/damp 0.14  
pair_coeff         * * ${rho0} ${cs}
pair_coeff         * * 1 ${cs}
pair_coeff         * * 1 4

#Timestep
variable           dt_max equal  0.1*${h3}/${cs}/3
variable           dt_max equal  0.1*0.7/${cs}/3
variable           dt_max equal  0.1*0.7/4/3
#variable           dt_max equal 0.125*${h3}*${h3}/${eta}/9 #Viscous criterion
#variable           dt_max equal 0.1*${sf}/.01
#variable           dx_max equal ${h3}/100
timestep           ${dt_max}
timestep           0.00583333333333333
#fix                dtr all dt/reset 1 NULL ${dt_max} ${dx_max}  units box
variable           Nsteps equal round(${t_tot}/${dt_max})
variable           Nsteps equal round(5000/${dt_max})
variable           Nsteps equal round(5000/0.00583333333333333)

compute            den all property/atom rho
compute            phase all property/atom phase
compute            eta all property/atom viscosity

thermo             200
thermo_style       custom step time etotal temp press

thermo_modify      norm no
dump               1 all custom 200 1_5_5_adj_param.atoms id type x y vx vy fx fy c_den c_phase f_rheo_chi_chi c_eta
dump               2 all netcdf 200 1_5_5_adj_param.nc id type x y z vx vy vz fx fy c_den c_phase f_rheo_chi_chi c_eta
variable           skin equal 0.2*${h3}
variable           skin equal 0.2*0.7
neighbor           ${skin} bin
neighbor           0.14 bin
neigh_modify       one 5000
run                ${Nsteps}
run                857143
WARNING: One or more atoms are time integrated more than once (src/modify.cpp:285)
Neighbor list info ...
  update every 1 steps, delay 10 steps, check yes
  max neighbors/atom: 5000, page size: 100000
  master list distance cutoff = 0.84
  ghost atom cutoff = 0.84
  binsize = 0.42, bins = 48 48 1
  5 neighbor lists, perpetual/occasional/extra = 5 0 0
  (1) pair rheo, perpetual, half/full from (2)
      attributes: half, newton off
      pair build: halffull/newtoff
      stencil: none
      bin: none
  (2) compute rheo/kernel, perpetual
      attributes: full, newton off
      pair build: full/bin/atomonly
      stencil: full/bin/2d
      bin: standard
  (3) compute rheo/grad, perpetual, copy from (1)
      attributes: half, newton off
      pair build: copy
      stencil: none
      bin: none
  (4) compute rheo/chi, perpetual, copy from (1)
      attributes: half, newton off
      pair build: copy
      stencil: none
      bin: none
  (5) fix rheo/vshift, perpetual, copy from (1)
      attributes: half, newton off
      pair build: copy
      stencil: none
      bin: none
Per MPI rank memory allocation (min/avg/max) = 31.31 | 31.31 | 31.31 Mbytes
Step Time TotEng Temp Press 
       0            0            0            0            0 
     200    1.1666667 0.00017825475 1.7827258e-08 9.4781953e-06 
     400    2.3333333 0.0006952255 6.9529503e-08 1.4061967e-05 
     600          3.5 0.0015339336 1.534087e-07 1.8028634e-05 
     800    4.6666667 0.0026818084 2.6820766e-07 2.2247617e-05 
    1000    5.8333333 0.0041283263 4.1287392e-07 2.6982494e-05 
    1200            7 0.0058642277 5.8648141e-07 3.2242149e-05 
    1400    8.1666667 0.0078811741 7.8819623e-07 3.8260532e-05 
    1600    9.3333333  0.010171505 1.0172522e-06 4.5129766e-05 
    1800         10.5  0.012728054 1.2729327e-06 5.2771829e-05 
    2000    11.666667  0.015544101 1.5545656e-06 6.124759e-05 
    2200    12.833333  0.018613296 1.8615157e-06 7.0577986e-05 
    2400           14  0.021929552 2.1931745e-06 8.0694363e-05 
    2600    15.166667  0.025487064 2.5489613e-06 9.1594843e-05 
    2800    16.333333  0.029280336 2.9283265e-06 0.00010325362 
    3000         17.5  0.033305193 3.3308524e-06 0.00011558692 
    3200    18.666667  0.037558113 3.7561869e-06 0.0001285902 
    3400    19.833333  0.042036622 4.2040826e-06 0.00014220694 
    3600           21  0.046737484 4.6742159e-06 0.0001563169 
    3800    22.166667  0.051658004 5.1663171e-06 0.00017074818 
    4000    23.333333  0.056795033 5.6800713e-06 0.00018535126 
    4200         24.5   0.06214481 6.2151025e-06 0.00019994827 
    4400    25.666667   0.06770445 6.7711221e-06 0.00021429252 
    4600    26.833333  0.073471722 7.347907e-06 0.00022826059 
    4800           28  0.079443408 7.9451353e-06 0.00024174095 
    5000    29.166667  0.085616274 8.5624836e-06 0.00025461779 
    5200    30.333333  0.091987882 9.1997082e-06 0.00026672917 
    5400         31.5  0.098556344  9.85662e-06 0.00027802729 
    5600    32.666667   0.10531894 1.0532947e-05 0.00028856935 
    5800    33.833333   0.11227294 1.1228417e-05 0.00029844336 
    6000           35   0.11941577 1.1942772e-05 0.00030778183 
    6200    36.166667    0.1267458 1.2675847e-05 0.00031674523 
    6400    37.333333   0.13426102 1.3427445e-05 0.0003256244 
    6600         38.5   0.14195913 1.4197333e-05 0.00033476305 
    6800    39.666667   0.14983783 1.4985282e-05 0.00034454587 
    7000    40.833333   0.15789495 1.5791074e-05 0.00035539059 
    7200           42   0.16612901 1.6614563e-05 0.00036770777 
    7400    43.166667   0.17453841 1.7455587e-05 0.00038191024 
    7600    44.333333    0.1831212 1.8313951e-05 0.00039842789 
    7800         45.5    0.1918756 1.9189479e-05 0.00041760087 
    8000    46.666667   0.20080002 2.0082011e-05 0.0004395312 
    8200    47.833333    0.2098932 2.0991419e-05 0.00046422863 
    8400           49   0.21915439 2.191763e-05 0.00049159457 
    8600    50.166667   0.22858245 2.2860531e-05 0.00052138464 
    8800    51.333333   0.23817604 2.3819986e-05 0.00055323033 
    9000         52.5   0.24793383 2.4795862e-05 0.0005866485 
    9200    53.666667   0.25785438 2.5788017e-05 0.00062106283 
    9400    54.833333   0.26793632 2.6796311e-05 0.00065584414 
    9600           56   0.27817851 2.7820633e-05 0.00069037411 
    9800    57.166667   0.28857957 2.8860843e-05 0.0007241006 
   10000    58.333333   0.29913785 2.9916777e-05 0.00075665147 
   10200         59.5   0.30985198 3.0988297e-05 0.00078787842 
   10400    60.666667   0.32071969 3.2075176e-05 0.00081787294 
   10600    61.833333   0.33173828 3.3177146e-05 0.00084701275 
   10800           63   0.34290495 3.4293925e-05 0.00087589807 
   11000    64.166667   0.35421686 3.5425229e-05 0.0009053137 
   11200    65.333333   0.36567096 3.6570753e-05 0.00093602286 
   11400         66.5   0.37726462 3.7730235e-05 0.00096815001 
   11600    67.666667   0.38899567 3.8903457e-05 0.0010015072 
   11800    68.833333   0.40086231 4.009024e-05 0.0010360038 
   12000           70   0.41286312 4.1290441e-05  0.001070752 
   12200    71.166667   0.42499687 4.2503937e-05 0.0011047007 
   12400    72.333333   0.43726266 4.3730639e-05 0.0011370642 
   12600         73.5   0.44965972 4.4970469e-05 0.0011672844 
   12800    74.666667   0.46218729 4.6223352e-05 0.0011951044 
   13000    75.833333   0.47484477 4.7489226e-05 0.0012207973 
   13200           77   0.48763161 4.8768038e-05 0.0012450667 
   13400    78.166667   0.50054738 5.0059744e-05 0.0012689359 
   13600    79.333333   0.51359192 5.1364328e-05 0.0012936352 
   13800         80.5   0.52676516 5.2681785e-05 0.0013203856 
   14000    81.666667   0.54006706 5.4012107e-05 0.0013503715 
   14200    82.833333   0.55349781 5.5355316e-05 0.0013843789 
   14400           84   0.56705787 5.6711458e-05 0.0014225376 
   14600    85.166667   0.58074759 5.8080567e-05 0.0014647255 
   14800    86.333333   0.59456719 5.9462666e-05 0.0015103955 
   15000         87.5   0.60851662 6.0857747e-05 0.0015589201 
   15200    88.666667   0.62259582 6.2265808e-05 0.0016092115 
   15400    89.833333   0.63680455 6.3686824e-05 0.0016598377 
   15600           91   0.65114187 6.5120699e-05  0.001709796 
   15800    92.166667   0.66560578 6.6567234e-05 0.0017584124 
   16000    93.333333   0.68019355 6.8026157e-05 0.0018054533 
   16200         94.5   0.69490199 6.9497148e-05  0.001851293 
   16400    95.666667   0.70972725 7.0979823e-05 0.0018969625 
   16600    96.833333   0.72466562 7.2473809e-05 0.0019429932 
   16800           98   0.73971484 7.3978882e-05  0.001989154 
   17000    99.166667   0.75487403 7.5494952e-05 0.0020346802 
   17200    100.33333   0.77014271 7.7021973e-05 0.0020784953 
   17400        101.5   0.78552002 7.8559858e-05 0.0021196253 
   17600    102.66667   0.80100452 8.0108463e-05  0.002157591 
   17800    103.83333   0.81659479 8.1667646e-05 0.0021930639 
   18000          105   0.83228992 8.3237316e-05 0.0022278256 
   18200    106.16667   0.84808973 8.4817454e-05 0.0022636552 
   18400    107.33333   0.86399476 8.6408116e-05 0.0023021963 
   18600        108.5   0.88000567 8.8009368e-05 0.0023451373 
   18800    109.66667   0.89612348 8.962131e-05  0.002393176 
   19000    110.83333   0.91234964 9.1244088e-05  0.002446429 
   19200          112   0.92868577 9.2877865e-05 0.0025037091 
   19400    113.16667     0.945133 9.4522752e-05 0.0025633221 
   19600    114.33333     0.961692 9.6178818e-05 0.0026231625 
   19800        115.5     0.978363 9.7846084e-05 0.0026814872 
   20000    116.66667   0.99514491 9.9524444e-05 0.0027372248 
   20200    117.83333    1.0120347 0.0001012136 0.0027900515 
   20400          119    1.0290273 0.00010291302 0.0028406847 
   20600    120.16667    1.0461162 0.00010462208 0.0028914046 
   20800    121.33333    1.0632956 0.0001063402  0.002944756 
   21000        122.5    1.0805629 0.0001080671 0.0030016352 
   21200    123.66667    1.0979184 0.00010980282 0.0030614729 
   21400    124.83333    1.1153634 0.00011154749 0.0031210048 
   21600          126    1.1328989 0.00011330122 0.0031763255 
   21800    127.16667    1.1505258 0.00011506408 0.0032247497 
   22000    128.33333    1.1682447 0.00011683616  0.003266229 
   22200        129.5    1.1860559 0.00011861745 0.0033039256 
   22400    130.66667    1.2039597 0.00012040801 0.0033432594 
   22600    131.83333    1.2219583 0.00012220805 0.0033886425 
   22800          133    1.2400539 0.00012401779 0.0034428657 
   23000    134.16667     1.258248 0.00012583739 0.0035061118 
   23200    135.33333    1.2765426 0.00012766702  0.003576712 
   23400        136.5    1.2949407 0.00012950702 0.0036498767 
   23600    137.66667    1.3134442 0.00013135755 0.0037222282 
   23800    138.83333    1.3320525 0.00013321857 0.0037927823 
   24000          140    1.3507636 0.00013508987 0.0038621368 
   24200    141.16667    1.3695729 0.00013697099 0.0039306352 
   24400    142.33333    1.3884727 0.00013886116 0.0039973067 
   24600        143.5     1.407454 0.00014075947 0.0040609815 
   24800    144.66667    1.4265093 0.0001426652   0.00412059 
   25000    145.83333    1.4456332 0.00014457778  0.004177486 
   25200          147    1.4648243 0.00014649708 0.0042325425 
   25400    148.16667     1.484083 0.00014842315 0.0042883295 
   25600    149.33333     1.503411 0.00015035613 0.0043465095 
   25800        150.5    1.5228112 0.00015229635 0.0044072102 
   26000    151.66667    1.5422883 0.00015424426 0.0044697303 
   26200    152.83333    1.5618489 0.00015620051 0.0045326545 
   26400          154    1.5814985 0.00015816567 0.0045956804 
   26600    155.16667      1.60124 0.00016014002 0.0046591625 
   26800    156.33333    1.6210731 0.00016212352  0.004723427 
   27000        157.5    1.6409958 0.00016411599 0.0047888232 
   27200    158.66667    1.6610038 0.00016611699 0.0048557025 
   27400    159.83333    1.6810922 0.00016812604 0.0049257284 
   27600          161    1.7012582 0.00017014283 0.0050014301 
   27800    162.16667    1.7215011 0.00017216733  0.005081605 
   28000    163.33333     1.741825 0.00017419992 0.0051603155 
   28200        164.5    1.7622326 0.00017624088 0.0052319447 
   28400    165.66667    1.7827239 0.00017829022 0.0052937689 
   28600    166.83333    1.8032958 0.00018034761 0.0053483859 
   28800          168    1.8239442 0.00018241266  0.005401861 
   29000    169.16667    1.8446658 0.00018448503 0.0054617976 
   29200    170.33333    1.8654606 0.00018656471 0.0055335047 
   29400        171.5    1.8863316 0.00018865203 0.0056172118 
   29600    172.66667     1.907281 0.00019074717 0.0057088636 
   29800    173.83333    1.9283087 0.00019285015 0.0058033951 
   30000          175    1.9494165 0.00019496115 0.0058901466 
   30200    176.16667    1.9706017 0.00019707988 0.0059621684 
   30400    177.33333    1.9918562 0.00019920554 0.0060190632 
   30600        178.5    2.0131688 0.00020133702  0.006069296 
   30800    179.66667    2.0345292 0.00020347327 0.0061265525 
   31000    180.83333    2.0559322 0.00020561378 0.0061985955 
   31200          182    2.0773818 0.00020775896 0.0062826284 
   31400    183.16667    2.0988894 0.00020990993 0.0063696564 
   31600    184.33333    2.1204672 0.00021206793 0.0064510916 
   31800        185.5     2.142124 0.00021423383 0.0065215297 
   32000    186.66667    2.1638643 0.00021640807 0.0065821501 
   32200    187.83333    2.1856887 0.00021859073 0.0066407296 
   32400          189     2.207599 0.00022078198 0.0067078411 
   32600    190.16667    2.2295995 0.00022298224 0.0067904994 
   32800    191.33333    2.2516932 0.00022519184 0.0068862417 
   33000        192.5    2.2738752 0.00022741026 0.0069856759 
   33200    193.66667    2.2961306 0.00022963602 0.0070796283 
   33400    194.83333    2.3184422 0.0002318674 0.0071651431 
   33600          196    2.3407999 0.0002341034 0.0072455604 
   33800    197.16667    2.3632019 0.00023634383  0.007322976 
   34000    198.33333    2.3856535 0.00023858921 0.0073968718 
   34200        199.5    2.4081591   0.00024084 0.0074633319 
   34400    200.66667    2.4307194 0.00024309625 0.0075217517 
   34600    201.83333    2.4533309 0.00024535763 0.0075784009 
   34800          203    2.4759928 0.00024762404 0.0076410841 
   35000    204.16667    2.4987112 0.00024989611 0.0077162548 
   35200    205.33333    2.5214973 0.00025217495 0.0078078877 
   35400        206.5    2.5443626 0.0002544617 0.0079150733 
   35600    207.66667    2.5673178 0.00025675745 0.0080288045 
   35800    208.83333    2.5903678 0.00025906268 0.0081354489 
   36000          210    2.6135028 0.00026137642 0.0082237223 
   36200    211.16667    2.6366963  0.000263696 0.0082908998 
   36400    212.33333    2.6599162 0.00026601822 0.0083479377 
   36600        213.5    2.6831533 0.00026834217 0.0084070173 
   36800    214.66667    2.7064165 0.00027066871 0.0084756715 
   37000    215.83333    2.7297185 0.00027299915 0.0085491795 
   37200          217    2.7530708 0.00027533462 0.0086206424 
   37400    218.16667    2.7764808 0.00027767585 0.0086911735 
   37600    219.33333     2.799957 0.0002800237 0.0087694332 
   37800        220.5    2.8235124 0.00028237948 0.0088660102 
   38000    221.66667    2.8471634 0.00028474481 0.0089796766 
   38200    222.83333     2.870923 0.00028712102 0.0090927445 
   38400          224    2.8947903 0.00028950798  0.009186263 
   38600    225.16667    2.9187436 0.00029190355 0.0092563877 
   38800    226.33333    2.9427459 0.00029430402 0.0093170806 
   39000        227.5    2.9667527 0.00029670494 0.0093872159 
   39200    228.66667    2.9907433 0.00029910424 0.0094708658 
   39400    229.83333    3.0147298 0.00030150313  0.009559609 
   39600          231    3.0387353 0.00030390392 0.0096438195 
   39800    232.16667    3.0627796 0.0003063086 0.0097187172 
   40000    233.33333    3.0868738 0.00030871825 0.0097878515 
   40200        234.5    3.1110232 0.00031113343 0.0098606672 
   40400    235.66667    3.1352386 0.00031355521 0.0099470353 
   40600    236.83333    3.1595351 0.0003159851  0.010050267 
   40800          238    3.1839301 0.00031842485  0.010158956 
   41000    239.16667    3.2084281 0.0003208749   0.01025576 
   41200    240.33333     3.233014 0.00032333374   0.01033585 
   41400        241.5    3.2576622 0.0003257988  0.010410767 
   41600    242.66667    3.2823532 0.00032826815   0.01049226 
   41800    243.83333    3.3070805 0.00033074113  0.010578978 
   42000          245    3.3318427 0.0003332176  0.010663863 
   42200    246.16667    3.3566413 0.0003356977  0.010743343 
   42400    247.33333    3.3814716 0.00033818097  0.010820478 
   42600        248.5    3.4063351 0.00034066758  0.010900109 
   42800    249.66667     3.431237 0.00034315802   0.01098793 
   43000    250.83333     3.456185 0.00034565307  0.011088827 
   43200          252    3.4811936 0.00034815417  0.011193184 
   43400    253.16667    3.5062677 0.00035066184   0.01128432 
   43600    254.33333    3.5313949 0.00035317481  0.011355631 
   43800        255.5    3.5565513 0.0003556907  0.011419486 
   44000    256.66667    3.5817191 0.00035820773   0.01149338 
   44200    257.83333    3.6069032 0.00036072639  0.011580456 
   44400          259    3.6321206 0.00036324838  0.011672801 
   44600    260.16667     3.657392 0.00036577578  0.011764551 
   44800    261.33333    3.6827379 0.00036831062   0.01185454 
   45000        262.5    3.7081708 0.00037085416  0.011943697 
   45200    263.66667    3.7336965 0.00037340699   0.01203566 
   45400    264.83333    3.7593095 0.00037596855  0.012131812 
   45600          266    3.7849961 0.00037853746  0.012226944 
   45800    267.16667    3.8107284 0.00038111095  0.012317726 
   46000    268.33333    3.8364787 0.00038368624  0.012402489 
   46200        269.5    3.8622272 0.00038626135  0.012483342 
   46400    270.66667    3.8879726 0.00038883615  0.012556143 
   46600    271.83333    3.9137214 0.00039141128  0.012617874 
   46800          273    3.9394785 0.00039398725  0.012679446 
   47000    274.16667    3.9652567 0.00039656533  0.012759556 
   47200    275.33333    3.9910859 0.00039914851  0.012867143 
   47400        276.5    4.0170053 0.00040174071  0.012992399 
   47600    277.66667    4.0430467 0.00040434511  0.013114068 
   47800    278.83333    4.0692132 0.00040696202  0.013211544 
   48000          280    4.0954667 0.00040958763  0.013281865 
   48200    281.16667    4.1217454 0.00041221576  0.013347773 
   48400    282.33333    4.1480017 0.00041484166  0.013432504 
   48600        283.5    4.1742193 0.00041746367  0.013524702 
   48800    284.66667    4.2003955 0.00042008156  0.013597715 
   49000    285.83333    4.2265491 0.00042269718  0.013641373 
   49200          287    4.2527098 0.00042531351   0.01367746 
   49400    288.16667    4.2789089 0.00042793369  0.013744346 
   49600    289.33333    4.3051906 0.00043056212  0.013864018 
   49800        290.5     4.331613 0.00043320462   0.01401893 
   50000    291.66667    4.3582059 0.00043586418  0.014165806 
   50200    292.83333    4.3849406 0.00043853792  0.014271287 
   50400          294     4.411738 0.00044121792  0.014348505 
   50600    295.16667    4.4385271 0.0004438971  0.014432696 
   50800    296.33333    4.4652835 0.00044657301   0.01452918 
   51000        297.5    4.4919982 0.00044924475   0.01461204 
   51200    298.66667    4.5186656 0.00045191176   0.01466431 
   51400    299.83333    4.5452899 0.00045457444  0.014697855 
   51600          301    4.5718902 0.00045723474  0.014744773 
   51800    302.16667    4.5985135 0.00045989734  0.014828903 
   52000    303.33333    4.6252295 0.0004625692  0.014943734 
   52200        304.5    4.6520932 0.00046525585  0.015058303 
   52400    305.66667     4.679106 0.00046795739  0.015155633 
   52600    306.83333     4.706224 0.00047066947  0.015251882 
   52800          308    4.7333992 0.00047338725  0.015366794 
   53000    309.16667     4.760591 0.00047610671  0.015486117 
   53200    310.33333    4.7877558 0.00047882347  0.015585277 
   53400        311.5    4.8148861 0.00048153677  0.015657415 
   53600    312.66667    4.8419915 0.00048424757  0.015720422 
   53800    313.83333    4.8690882 0.00048695752  0.015798399 
   54000          315    4.8962116 0.00048967013  0.015900326 
   54200    316.16667    4.9234021 0.00049238945  0.016012134 
   54400    317.33333    4.9506851 0.00049511802  0.016112751 
   54600        318.5    4.9780489 0.00049785468  0.016206133 
   54800    319.66667    5.0054662 0.00050059668   0.01631184 
   55000    320.83333    5.0329164 0.00050334197  0.016420258 
   55200          322    5.0603737 0.00050608798  0.016504902 
   55400    323.16667    5.0878006 0.00050883094  0.016561914 
   55600    324.33333    5.1151879 0.00051156995  0.016615545 
   55800        325.5    5.1425725 0.00051430868  0.016691733 
   56000    326.66667    5.1700066 0.00051705236  0.016792533 
   56200    327.83333     5.197528 0.00051980478  0.016905337 
   56400          329    5.2251402 0.00052256628  0.017019081 
   56600    330.16667    5.2528367 0.0005253362  0.017133428 
   56800    331.33333    5.2806149 0.0005281143  0.017257348 
   57000        332.5    5.3084701 0.0005309001  0.017377358 
   57200    333.66667    5.3363762 0.00053369099  0.017465947 
   57400    334.83333     5.364266 0.00053648025  0.017526019 
   57600          336    5.3920773 0.00053926166  0.017599782 
   57800    337.16667    5.4198383 0.00054203803  0.017707574 
   58000    338.33333    5.4476161 0.00054481609    0.0178233 
   58200        339.5    5.4754478 0.00054759954  0.017914975 
   58400    340.66667     5.503328 0.00055038783   0.01798932 
   58600    341.83333    5.5312298 0.0005531783  0.018080893 
   58800          343    5.5591573 0.00055597133  0.018196478 
   59000    344.16667    5.5871286 0.00055876874  0.018315889 
   59200    345.33333    5.6151474 0.0005615709  0.018419214 
   59400        346.5    5.6432049 0.00056437693  0.018501596 
   59600    347.66667    5.6712858 0.0005671853  0.018589019 
   59800    348.83333    5.6994136 0.00056999836  0.018705624 
   60000          350    5.7276375 0.00057282103   0.01883219 
   60200    351.16667    5.7559509 0.00057565266  0.018932892 
   60400    352.33333    5.7842826 0.00057848611  0.019009385 
   60600        353.5    5.8125606 0.00058131419   0.01910827 
   60800    354.66667    5.8407867 0.00058413708  0.019240034 
   61000    355.83333    5.8690101 0.00058695971  0.019364488 
   61200          357    5.8972599 0.00058978496  0.019445371 
   61400    358.16667    5.9255031 0.00059260957  0.019501767 
   61600    359.33333    5.9537013 0.00059542967  0.019589493 
   61800        360.5    5.9818892 0.00059824874  0.019727536 
   62000    361.66667    6.0101699 0.0006010771  0.019876294 
   62200    362.83333    6.0385982 0.00060392021  0.019987821 
   62400          364    6.0671259 0.00060677327  0.020068845 
   62600    365.16667    6.0956696 0.00060962792  0.020159197 
   62800    366.33333    6.1241871 0.00061247996  0.020267861 
   63000        367.5    6.1526867 0.0006153302  0.020376952 
   63200    368.66667    6.1811993 0.00061818175  0.020475443 
   63400    369.83333    6.2097368 0.00062103578  0.020569135 
   63600          371    6.2382821 0.0006238906  0.020670077 
   63800    372.16667    6.2668342 0.0006267461  0.020785866 
   64000    373.33333    6.2954258 0.00062960554  0.020911405 
   64200        374.5    6.3240955 0.0006324728  0.021027336 
   64400    375.66667    6.3528357 0.0006353471  0.021132245 
   64600    376.83333    6.3815961 0.00063822343  0.021234453 
   64800          378    6.4103356 0.00064109767   0.02133402 
   65000    379.16667    6.4390294 0.00064396733  0.021439202 
   65200    380.33333    6.4676987 0.00064683456  0.021556917 
   65400        381.5    6.4963859 0.00064970356  0.021664169 
   65600    382.66667     6.525099 0.00065257516  0.021750222 
   65800    383.83333    6.5538306 0.00065544861  0.021835235 
   66000          385    6.5825804 0.00065832387  0.021937021 
   66200    386.16667     6.611373 0.00066120342  0.022061982 
   66400    387.33333    6.6402493 0.00066409134  0.022192204 
   66600        388.5    6.6692406 0.00066699076  0.022302366 
   66800    389.66667    6.6983199 0.00066989898  0.022401349 
   67000    390.83333    6.7274268 0.00067280996  0.022514153 
   67200          392    6.7564985 0.00067571742   0.02263124 
   67400    393.16667    6.7854979 0.00067861765  0.022732012 
   67600    394.33333    6.8144105 0.0006815092  0.022832748 
   67800        395.5    6.8432775 0.00068439619  0.022932823 
   68000    396.66667     6.872138 0.00068728253  0.023031492 
   68200    397.83333    6.9010185 0.00069017087   0.02313711 
   68400          399    6.9299756 0.00069306686  0.023245287 
   68600    400.16667    6.9590533 0.00069597493   0.02335426 
   68800    401.33333    6.9882529 0.00069889518  0.023473674 
   69000        402.5    7.0175204 0.00070182223  0.023596783 
   69200    403.66667    7.0468123 0.00070475171   0.02370147 
   69400    404.83333    7.0760928 0.00070768005  0.023790277 
   69600          406    7.1053243 0.00071060349  0.023875036 
   69800    407.16667    7.1344966 0.00071352102  0.023965472 
   70000    408.33333    7.1636447 0.00071643611  0.024062114 
   70200        409.5    7.1928268 0.00071935462  0.024170186 
   70400    410.66667    7.2221124 0.00072228347  0.024290252 
   70600    411.83333    7.2515144 0.00072522396  0.024403302 
   70800          413    7.2809434 0.00072816716  0.024506016 
   71000    414.16667    7.3103202 0.00073110513  0.024611757 
   71200    415.33333    7.3396351 0.00073403691  0.024719419 
   71400        416.5    7.3689106 0.00073696476  0.024822033 
   71600    417.66667    7.3981811 0.0007398921  0.024913686 
   71800    418.83333    7.4274873 0.00074282301  0.025001538 
   72000          420    7.4568665 0.00074576122  0.025110563 
   72200    421.16667    7.4863599 0.00074871087  0.025240368 
   72400    422.33333    7.5159519 0.00075167036  0.025356603 
   72600        423.5    7.5455643 0.0007546319  0.025451766 
   72800    424.66667    7.5751424   0.00075759  0.025537716 
   73000    425.83333    7.6046651 0.00076054257  0.025624279 
   73200          427    7.6341387 0.00076349022  0.025720706 
   73400    428.16667    7.6636172 0.00076643836  0.025828984 
   73600    429.33333    7.6931781 0.00076939475   0.02594407 
   73800        430.5    7.7228588 0.00077236312  0.026068971 
   74000    431.66667    7.7526227 0.0007753398  0.026185099 
   74200    432.83333    7.7823488 0.00077831271  0.026277014 
   74400          434    7.8119336 0.00078127149  0.026356246 
   74600    435.16667    7.8413508 0.00078421351  0.026431117 
   74800    436.33333    7.8706507 0.00078714378  0.026511075 
   75000        437.5    7.8999626 0.00079007526  0.026620937 
   75200    438.66667    7.9294822 0.00079302752  0.026756707 
   75400    439.83333    7.9593494 0.00079601454  0.026890052 
   75600          441    7.9895147 0.00079903137  0.026995915 
   75800    442.16667    8.0197337 0.00080205358  0.027087664 
   76000    443.33333    8.0497755 0.00080505805  0.027192856 
   76200        444.5    8.0795531 0.00080803612  0.027279396 
   76400    445.66667    8.1090432 0.00081098542  0.027319884 
   76600    446.83333    8.1383071 0.0008139121  0.027354796 
   76800          448    8.1675242 0.00081683411  0.027457007 
   77000    449.16667    8.1969806 0.00081978003  0.027629629 
   77200    450.33333    8.2268782 0.00082277009  0.027800505 
   77400        451.5    8.2571424 0.00082579682  0.027913744 
   77600    452.66667    8.2874867 0.00082883156  0.028010803 
   77800    453.83333    8.3176698 0.00083185017  0.028113614 
   78000          455    8.3475459 0.00083483808  0.028175679 
   78200    456.16667    8.3770916 0.00083779294  0.028196839 
   78400    457.33333    8.4064445 0.00084072853  0.028241317 
   78600        458.5    8.4358727 0.00084367163  0.028357696 
   78800    459.66667    8.4656292 0.00084664759  0.028523001 
   79000    460.83333    8.4957664 0.0008496616  0.028669024 
   79200          462    8.5261049 0.00085269576  0.028796702 
   79400    463.16667    8.5564164 0.00085572721  0.028926821 
   79600    464.33333    8.5865199 0.00085873787  0.029026737 
   79800        465.5    8.6163251 0.00086171869  0.029080241 
   80000    466.66667    8.6459112 0.00086467758  0.029132923 
   80200    467.83333    8.6754973 0.0008676365  0.029225268 
   80400          469    8.7052807 0.00087061514  0.029349522 
   80600    470.16667    8.7353015 0.00087361751  0.029469919 
   80800    471.33333    8.7654596 0.00087663363  0.029587959 
   81000        472.5    8.7956502 0.00087965298   0.02970645 
   81200    473.66667    8.8257605 0.00088266432  0.029794685 
   81400    474.83333    8.8556962 0.00088565819  0.029858779 
   81600          476    8.8854903 0.00088863789  0.029949814 
   81800    477.16667    8.9153195 0.00089162111  0.030077894 
   82000    478.33333    8.9453277 0.00089462224  0.030212335 
   82200        479.5    8.9755123 0.00089764099  0.030325477 
   82400    480.66667    9.0057528 0.00090066535   0.03043902 
   82600    481.83333    9.0359287 0.00090368324  0.030548294 
   82800          483    9.0659519 0.00090668586   0.03062236 
   83000    484.16667    9.0957841 0.00090966938  0.030680241 
   83200    485.33333    9.1255316 0.00091264443  0.030776616 
   83400        486.5    9.1554206 0.00091563362  0.030920796 
   83600    487.66667    9.1856034 0.0009186522   0.03105581 
   83800    488.83333    9.2160071 0.00092169288  0.031159776 
   84000          490    9.2464311 0.00092473558  0.031279333 
   84200    491.16667    9.2767299 0.00092776577  0.031412271 
   84400    492.33333    9.3068537 0.00093077845  0.031511778 
   84600        493.5    9.3368189 0.00093377527  0.031584408 
   84800    494.66667    9.3667164 0.00093676532  0.031675523 
   85000    495.83333    9.3966724 0.00093976121   0.03181089 
   85200          497    9.4268016 0.00094277444  0.031950631 
   85400    498.16667      9.45708 0.00094580258  0.032070377 
   85600    499.33333     9.487378 0.00094883268  0.032188251 
   85800        500.5    9.5175733 0.00095185252  0.032294198 
   86000    501.66667    9.5475999 0.00095485547  0.032371658 
   86200    502.83333    9.5775134 0.00095784712  0.032451388 
   86400          504    9.6074625 0.00096084233  0.032564027 
   86600    505.16667    9.6375766 0.00096385405  0.032688289 
   86800    506.33333    9.6678566 0.00096688235  0.032808247 
   87000        507.5    9.6982585 0.00096992284  0.032929716 
   87200    508.66667      9.72871 0.0009729683  0.033045616 
   87400    509.83333    9.7591199 0.00097600959  0.033133872 
   87600          511    9.7893738 0.00097903529  0.033226139 
   87800    512.16667    9.8195003 0.00098204824  0.033354765 
   88000    513.33333    9.8496556 0.00098506406  0.033487395 
   88200        514.5     9.879873 0.00098808611  0.033579332 
   88400    515.66667    9.9100281 0.00099110192  0.033662876 
   88600    516.83333    9.9400542 0.00099410483  0.033784039 
   88800          518    9.9700548 0.00099710519  0.033917835 
   89000    519.16667    10.000167 0.0010001167  0.034026922 
   89200    520.33333     10.03042 0.0010031423   0.03413253 
   89400        521.5    10.060791 0.0010061797  0.034268517 
   89600    522.66667    10.091303 0.0010092313  0.034406442 
   89800    523.83333    10.121863 0.0010122875  0.034494994 
   90000          525    10.152215  0.001015323  0.034575159 
   90200    526.16667     10.18229 0.0010183309  0.034683567 
   90400    527.33333    10.212251 0.0010213273  0.034808272 
   90600        528.5     10.24233 0.0010243355  0.034925693 
   90800    529.66667    10.272617 0.0010273645  0.035038097 
   91000    530.83333    10.303034 0.0010304064  0.035172131 
   91200          532    10.333499 0.0010334532  0.035314533 
   91400    533.16667    10.363906 0.0010364943  0.035423173 
   91600    534.33333    10.394127 0.0010395167  0.035508011 
   91800        535.5    10.424215 0.0010425257    0.0355944 
   92000    536.66667    10.454344  0.001045539  0.035702488 
   92200    537.83333    10.484667 0.0010485715  0.035837971 
   92400          539    10.515211 0.0010516263  0.035969323 
   92600    540.16667    10.545869 0.0010546924  0.036092299 
   92800    541.33333    10.576491 0.0010577548  0.036201438 
   93000        542.5    10.606904 0.0010607965  0.036294047 
   93200    543.66667    10.637072 0.0010638136  0.036391122 
   93400    544.83333     10.66719 0.0010668257    0.0365111 
   93600          546    10.697487 0.0010698557  0.036637962 
   93800    547.16667    10.727997  0.001072907   0.03675294 
   94000    548.33333    10.758573 0.0010759649  0.036872545 
   94200        549.5    10.789082 0.0010790161  0.036988024 
   94400    550.66667    10.819405 0.0010820487  0.037077157 
   94600    551.83333    10.849505  0.001085059   0.03717014 
   94800          553    10.879581 0.0010880669  0.037299323 
   95000    554.16667     10.90996 0.0010911051  0.037441945 
   95200    555.33333    10.940698 0.0010941792  0.037549594 
   95400        556.5    10.971507 0.0010972604  0.037663207 
   95600    557.66667    11.002161 0.0011003261  0.037794799 
   95800    558.83333    11.032542 0.0011033646  0.037881214 
   96000          560    11.062591 0.0011063697   0.03793636 
   96200    561.16667    11.092466 0.0011093576  0.038040512 
   96400    562.33333    11.122518 0.0011123631  0.038206527 
   96600        563.5    11.152999 0.0011154114  0.038362884 
   96800    564.66667    11.183769 0.0011184887  0.038485132 
   97000    565.83333    11.214504 0.0011215626  0.038621096 
   97200          567    11.245034 0.0011246159  0.038723644 
   97400    568.16667    11.275263 0.0011276391  0.038775145 
   97600    569.33333     11.30526 0.0011306391  0.038852723 
   97800        570.5    11.335316  0.001133645  0.038994768 
   98000    571.66667    11.365695 0.0011366831  0.039145356 
   98200    572.83333    11.396375 0.0011397514  0.039259285 
   98400          574    11.427094 0.0011428237  0.039385241 
   98600    575.16667    11.457656 0.0011458802  0.039505922 
   98800    576.33333    11.487938 0.0011489087  0.039591581 
   99000        577.5    11.517988  0.001151914  0.039684826 
   99200    578.66667    11.548042 0.0011549197  0.039808281 
   99400    579.83333    11.578297 0.0011579455  0.039917322 
   99600          581    11.608693 0.0011609854   0.04001859 
   99800    582.16667    11.639076  0.001164024  0.040159371 
  100000    583.33333    11.669467 0.0011670634  0.040293056 
  100200        584.5     11.69991  0.001170108  0.040375379 
  100400    585.66667    11.730379 0.0011731552  0.040474501 
  100600    586.83333    11.760938 0.0011762114  0.040617402 
  100800          588    11.791589 0.0011792768  0.040733655 
  101000    589.16667    11.822148 0.0011823331  0.040815752 
  101200    590.33333    11.852439 0.0011853624  0.040925089 
  101400        591.5    11.882541 0.0011883729  0.041037544 
  101600    592.66667    11.912643 0.0011913835  0.041130462 
  101800    593.83333    11.942916 0.0011944111  0.041246597 
  102000          595    11.973472  0.001197467   0.04140219 
  102200    596.16667    12.004279  0.001200548  0.041539565 
  102400    597.33333    12.035062 0.0012036266  0.041623967 
  102600        598.5    12.065526 0.0012066733  0.041700382 
  102800    599.66667     12.09565  0.001209686  0.041792859 
  103000    600.83333    12.125688   0.00121269  0.041901037 
  103200          602    12.155944 0.0012157159  0.042023815 
  103400    603.16667    12.186526 0.0012187744  0.042144668 
  103600    604.33333    12.217237 0.0012218459  0.042269573 
  103800        605.5    12.247813 0.0012249038  0.042389802 
  104000    606.66667    12.278103 0.0012279331  0.042490472 
  104200    607.83333    12.308155 0.0012309386  0.042575686 
  104400          609    12.338146 0.0012339379  0.042682342 
  104600    610.16667    12.368351 0.0012369588  0.042819191 
  104800    611.33333    12.398891 0.0012400131  0.042935756 
  105000        612.5    12.429525 0.0012430768  0.043034491 
  105200    613.66667    12.459938 0.0012461184  0.043152157 
  105400    614.83333    12.490125 0.0012491374  0.043248424 
  105600          616    12.520251 0.0012521503  0.043327959 
  105800    617.16667    12.550497 0.0012551752  0.043446285 
  106000    618.33333    12.581017 0.0012582275  0.043604862 
  106200        619.5    12.611796 0.0012613057  0.043733014 
  106400    620.66667    12.642484 0.0012643748  0.043828611 
  106600    621.83333    12.672728 0.0012673996    0.0439184 
  106800          623    12.702546 0.0012703816   0.04399483 
  107000    624.16667    12.732247  0.001273352  0.044098457 
  107200    625.33333    12.762244  0.001276352  0.044262646 
  107400        626.5    12.792829 0.0012794108  0.044427749 
  107600    627.66667    12.823781 0.0012825064  0.044537677 
  107800    628.83333    12.854564  0.001285585  0.044637968 
  108000          630    12.884881  0.001288617  0.044718819 
  108200    631.16667    12.914792 0.0012916083  0.044774637 
  108400    632.33333    12.944589 0.0012945884  0.044890373 
  108600        633.5    12.974725 0.0012976023  0.045056277 
  108800    634.66667    13.005418 0.0013006718  0.045189568 
  109000    635.83333    13.036295 0.0013037598  0.045301839 
  109200          637    13.066845 0.0013068152  0.045436858 
  109400    638.16667    13.096965 0.0013098275  0.045520205 
  109600    639.33333    13.126756 0.0013128069   0.04556372 
  109800        640.5    13.156523 0.0013157838  0.045676083 
  110000    641.66667    13.186686 0.0013188005  0.045846812 
  110200    642.83333    13.217332 0.0013218654  0.045989127 
  110400          644    13.248044 0.0013249369  0.046115365 
  110600    645.16667    13.278447 0.0013279775  0.046227079 
  110800    646.33333    13.308459  0.001330979  0.046293315 
  111000        647.5    13.338197 0.0013339531  0.046377569 
  111200    648.66667    13.368087 0.0013369424  0.046524035 
  111400    649.83333    13.398495 0.0013399835   0.04665951 
  111600          651    13.429208 0.0013430551   0.04675709 
  111800    652.16667    13.459728 0.0013461074  0.046866837 
  112000    653.33333     13.48987 0.0013491219  0.046954161 
  112200        654.5    13.519728  0.001352108  0.047025499 
  112400    655.66667    13.549565  0.001355092  0.047155917 
  112600    656.83333     13.57989 0.0013581248  0.047328045 
  112800          658    13.610831 0.0013612192  0.047445161 
  113000    659.16667    13.641793 0.0013643157  0.047547485 
  113200    660.33333    13.672298 0.0013673666  0.047669593 
  113400        661.5    13.702353 0.0013703723  0.047741309 
  113600    662.66667    13.732122 0.0013733495  0.047798155 
  113800    663.83333    13.761954  0.001376333  0.047928896 
  114000          665    13.792273 0.0013793652  0.048103211 
  114200    666.16667    13.823062 0.0013824444  0.048241997 
  114400    667.33333    13.853849 0.0013855234  0.048360948 
  114600        668.5    13.884207 0.0013885596  0.048448797 
  114800    669.66667    13.914105 0.0013915496  0.048508916 
  115000    670.83333    13.943861 0.0013945255  0.048596862 
  115200          672    13.973917 0.0013975314  0.048731886 
  115400    673.16667    14.004441 0.0014005842  0.048885195 
  115600    674.33333    14.035254 0.0014036657  0.049018662 
  115800        675.5    14.065973 0.0014067379  0.049110395 
  116000    676.66667    14.096285 0.0014097695  0.049185193 
  116200    677.83333    14.126229 0.0014127641  0.049274088 
  116400          679     14.15613 0.0014157546  0.049395081 
  116600    680.16667    14.186275 0.0014187693   0.04951665 
  116800    681.33333    14.216616 0.0014218038  0.049652868 
  117000        682.5    14.247001 0.0014248426    0.0497798 
  117200    683.66667    14.277207 0.0014278635  0.049883525 
  117400    684.83333    14.307231 0.0014308662  0.049992065 
  117600          686    14.337298 0.0014338732  0.050105888 
  117800    687.16667     14.36759 0.0014369027   0.05021361 
  118000    688.33333     14.39796   0.00143994  0.050315648 
  118200        689.5    14.428226 0.0014429669  0.050440981 
  118400    690.66667    14.458316 0.0014459762   0.05054803 
  118600    691.83333    14.488157 0.0014489606  0.050657367 
  118800          693    14.517948 0.0014519399  0.050773815 
  119000    694.16667    14.547933 0.0014549388  0.050894109 
  119200    695.33333    14.578051 0.0014579509   0.05102315 
  119400        696.5    14.608139   0.00146096  0.051161953 
  119600    697.66667    14.638225 0.0014639689  0.051251222 
  119800    698.83333    14.668165 0.0014669632  0.051331956 
  120000          700     14.69799  0.001469946  0.051469569 
  120200    701.16667     14.72798 0.0014729453  0.051608596 
  120400    702.33333     14.75815 0.0014759626  0.051723193 
  120600        703.5    14.788242 0.0014789721  0.051854813 
  120800    704.66667    14.818186 0.0014819668  0.051963111 
  121000    705.83333    14.847959 0.0014849444  0.052058499 
  121200          707     14.87768 0.0014879167  0.052194915 
  121400    708.16667    14.907657 0.0014909148  0.052318832 
  121600    709.33333      14.9378 0.0014939294  0.052414517 
  121800        710.5    14.967804 0.0014969301  0.052536787 
  122000    711.66667      14.9977   0.00149992  0.052648911 
  122200    712.83333    15.027499 0.0015029002  0.052741195 
  122400          714    15.057315  0.001505882  0.052877853 
  122600    715.16667    15.087489 0.0015088997  0.053030084 
  122800    716.33333    15.118064 0.0015119576  0.053136545 
  123000        717.5    15.148486 0.0015150001  0.053270579 
  123200    718.66667      15.1785 0.0015180018  0.053389613 
  123400    719.83333    15.208095 0.0015209616  0.053444484 
  123600          721    15.237452 0.0015238976  0.053537752 
  123800    722.16667    15.267032 0.0015268559  0.053698899 
  124000    723.33333    15.297183 0.0015298713  0.053850233 
  124200        724.5    15.327652 0.0015329185  0.053974809 
  124400    725.66667    15.357956 0.0015359492  0.054107368 
  124600    726.83333    15.387899 0.0015389438  0.054183118 
  124800          728    15.417476 0.0015419018  0.054248093 
  125000    729.16667    15.447011 0.0015448556  0.054381177 
  125200    730.33333    15.476943 0.0015478491  0.054538952 
  125400        731.5    15.507327 0.0015508878  0.054673187 
  125600    732.66667    15.537781 0.0015539335  0.054784792 
  125800    733.83333    15.567829 0.0015569386  0.054882278 
  126000          735    15.597356 0.0015598916  0.054977677 
  126200    736.16667    15.626777 0.0015628339  0.055089115 
  126400    737.33333    15.656553 0.0015658119  0.055197555 
  126600        738.5    15.686663 0.0015688232  0.055324416 
  126800    739.66667    15.716889 0.0015718461  0.055463393 
  127000    740.83333    15.746935 0.0015748509  0.055568211 
  127200          742     15.77658 0.0015778158  0.055660216 
  127400    743.16667     15.80608 0.0015807661  0.055763525 
  127600    744.33333    15.835808 0.0015837392  0.055895579 
  127800        745.5    15.865875 0.0015867462  0.056044449 
  128000    746.66667    15.896183 0.0015897773  0.056176877 
  128200    747.83333    15.926321 0.0015927914  0.056260482 
  128400          749    15.955927 0.0015957522  0.056339941 
  128600    750.16667    15.985248 0.0015986846  0.056434283 
  128800    751.33333    16.014713 0.0016016315  0.056572124 
  129000        752.5    16.044597 0.0016046202  0.056739916 
  129200    753.66667     16.07501 0.0016076617  0.056864649 
  129400    754.83333    16.105484 0.0016107095  0.056942886 
  129600          756    16.135413 0.0016137027  0.057065975 
  129800    757.16667    16.164948 0.0016166565  0.057167264 
  130000    758.33333    16.194419 0.0016196039  0.057247757 
  130200        759.5    16.223968 0.0016225591  0.057392633 
  130400    760.66667    16.253889 0.0016255514  0.057546934 
  130600    761.83333    16.284078 0.0016285707  0.057648662 
  130800          763    16.314001 0.0016315633  0.057770908 
  131000    764.16667    16.343627 0.0016345262  0.057880167 
  131200    765.33333    16.373132 0.0016374769  0.057950597 
  131400        766.5    16.402589 0.0016404229   0.05806266 
  131600    767.66667    16.432271 0.0016433914  0.058213083 
  131800    768.83333    16.462291 0.0016463937   0.05833334 
  132000          770    16.492379 0.0016494029  0.058448743 
  132200    771.16667    16.522345 0.0016523998  0.058546201 
  132400    772.33333    16.552048 0.0016553704  0.058641991 
  132600        773.5    16.581563 0.0016583221  0.058780479 
  132800    774.66667    16.611151 0.0016612812  0.058902098 
  133000    775.83333    16.640789 0.0016642453  0.058999438 
  133200          777    16.670325 0.0016671992  0.059131259 
  133400    778.16667      16.6999  0.001670157  0.059262973 
  133600    779.33333     16.72954 0.0016731213  0.059354362 
  133800        780.5    16.759161 0.0016760837   0.05949451 
  134000    781.66667    16.789046 0.0016790725  0.059621003 
  134200    782.83333    16.819015 0.0016820697  0.059708167 
  134400          784     16.84871 0.0016850395  0.059846421 
  134600    785.16667    16.878314 0.0016880002  0.059975414 
  134800    786.33333    16.907842 0.0016909533  0.060041993 
  135000        787.5    16.937193 0.0016938887  0.060160346 
  135200    788.66667    16.966643  0.001696834  0.060312609 
  135400    789.83333    16.996274 0.0016997973  0.060433906 
  135600          791    17.025956 0.0017027659  0.060554199 
  135800    792.16667    17.055682 0.0017057388  0.060672921 
  136000    793.33333    17.085294 0.0017087003  0.060771784 
  136200        794.5    17.114777 0.0017116488  0.060899957 
  136400    795.66667    17.144337 0.0017146052  0.061014597 
  136600    796.83333    17.173918 0.0017175635  0.061119562 
  136800          798    17.203506 0.0017205227  0.061241641 
  137000    799.16667    17.233187  0.001723491  0.061365394 
  137200    800.33333     17.26285 0.0017264577  0.061468147 
  137400        801.5    17.292419 0.0017294148  0.061591308 
  137600    802.66667     17.32196 0.0017323692  0.061693577 
  137800    803.83333    17.351397 0.0017353133  0.061787195 
  138000          805    17.380676 0.0017382414  0.061904613 
  138200    806.16667    17.410005 0.0017411746  0.062049851 
  138400    807.33333    17.439531 0.0017441276  0.062174831 
  138600        808.5    17.469247 0.0017470994  0.062290503 
  138800    809.66667    17.499019 0.0017500769  0.062413493 
  139000    810.83333    17.528696 0.0017530449  0.062508661 
  139200          812    17.558024  0.001755978  0.062593003 
  139400    813.16667    17.587091  0.001758885  0.062712284 
  139600    814.33333    17.616185 0.0017617946  0.062840568 
  139800        815.5    17.645506 0.0017647271   0.06295684 
  140000    816.66667    17.674955 0.0017676723  0.063101207 
  140200    817.83333    17.704489  0.001770626   0.06322584 
  140400          819    17.733916 0.0017735689  0.063304619 
  140600    820.16667    17.763077 0.0017764854  0.063403834 
  140800    821.33333    17.792183 0.0017793962  0.063536638 
  141000        822.5    17.821446 0.0017823229  0.063651728 
  141200    823.66667    17.850787 0.0017852572  0.063768268 
  141400    824.83333    17.880119 0.0017881907  0.063884241 
  141600          826    17.909333 0.0017911124  0.063988778 
  141800    827.16667    17.938521 0.0017940315  0.064112945 
  142000    828.33333    17.967947 0.0017969744  0.064221093 
  142200        829.5    17.997461 0.0017999261  0.064307599 
  142400    830.66667    18.026756 0.0018028559  0.064422969 
  142600    831.83333    18.055879 0.0018057685  0.064539665 
  142800          833    18.084933 0.0018086741  0.064651743 
  143000    834.16667    18.114054 0.0018115865  0.064793382 
  143200    835.33333     18.14351 0.0018145325  0.064906057 
  143400        836.5    18.173061 0.0018174878  0.065007187 
  143600    837.66667    18.202366 0.0018204187  0.065135463 
  143800    838.83333    18.231387  0.001823321    0.0652135 
  144000          840    18.260112 0.0018261938  0.065279395 
  144200    841.16667    18.288894 0.0018290723  0.065412781 
  144400    842.33333    18.318067 0.0018319899   0.06556312 
  144600        843.5    18.347548 0.0018349383   0.06568774 
  144800    844.66667    18.376949 0.0018378787  0.065803976 
  145000    845.83333    18.406006 0.0018407847  0.065890649 
  145200          847    18.434716  0.001843656  0.065977098 
  145400    848.16667     18.46346 0.0018465307    0.0661003 
  145600    849.33333    18.492465 0.0018494314  0.066238483 
  145800        850.5    18.521733 0.0018523585  0.066360787 
  146000    851.66667    18.550974 0.0018552829  0.066474204 
  146200    852.83333    18.579855 0.0018581714  0.066586843 
  146400          854    18.608492 0.0018610353  0.066713539 
  146600    855.16667    18.637279 0.0018639143  0.066812352 
  146800    856.33333    18.666137 0.0018668004  0.066911415 
  147000        857.5    18.694946 0.0018696816  0.067050624 
  147200    858.66667    18.723784 0.0018725657   0.06718347 
  147400    859.83333    18.752592 0.0018754467  0.067283559 
  147600          861    18.781397 0.0018783276  0.067418547 
  147800    862.16667    18.810411 0.0018812292  0.067554994 
  148000    863.33333    18.839441 0.0018841325  0.067653077 
  148200        864.5    18.868154 0.0018870041  0.067756207 
  148400    865.66667    18.896647 0.0018898536  0.067872763 
  148600    866.83333    18.925151 0.0018927044   0.06798039 
  148800          868    18.953811 0.0018955706  0.068111872 
  149000    869.16667     18.98268 0.0018984579  0.068272191 
  149200    870.33333    19.011696 0.0019013597  0.068379993 
  149400        871.5    19.040488 0.0019042393   0.06847158 
  149600    872.66667    19.069027 0.0019070934   0.06859155 
  149800    873.83333    19.097684 0.0019099594  0.068731953 
  150000          875    19.126621 0.0019128534  0.068842554 
  150200    876.16667    19.155507 0.0019157423  0.068959617 
  150400    877.33333    19.184074 0.0019185993  0.069068161 
  150600        878.5    19.212321 0.0019214243  0.069180247 
  150800    879.66667    19.240619 0.0019242543  0.069309391 
  151000    880.83333    19.269325 0.0019271252  0.069429211 
  151200          882    19.298301 0.0019300231  0.069540831 
  151400    883.16667     19.32717 0.0019329103  0.069635714 
  151600    884.33333    19.355569 0.0019357504  0.069730669 
  151800        885.5    19.383742 0.0019385681  0.069844782 
  152000    886.66667    19.412269  0.001941421  0.069971009 
  152200    887.83333    19.441345 0.0019443289   0.07008568 
  152400          889    19.470553   0.00194725   0.07021471 
  152600    890.16667    19.499447 0.0019501397  0.070306339 
  152800    891.33333    19.527728 0.0019529681   0.07036785 
  153000        892.5    19.555619 0.0019557575  0.070476778 
  153200    893.66667    19.583816 0.0019585774  0.070639458 
  153400    894.83333    19.612698 0.0019614659  0.070776654 
  153600          896    19.641777 0.0019643741  0.070897767 
  153800    897.16667    19.670481 0.0019672448  0.071003921 
  154000    898.33333    19.698781 0.0019700751  0.071065582 
  154200        899.5    19.726841 0.0019728814  0.071181408 
  154400    900.66667    19.755187 0.0019757162  0.071343167 
  154600    901.83333       19.784 0.0019785979  0.071461023 
  154800          903    19.812661 0.0019814643  0.071562847 
  155000    904.16667     19.84084 0.0019842824  0.071672448 
  155200    905.33333    19.868786 0.0019870773   0.07177253 
  155400        906.5    19.896836 0.0019898826  0.071898768 
  155600    907.66667    19.925376 0.0019927368  0.072018243 
  155800    908.83333    19.954184  0.001995618  0.072135491 
  156000          910    19.982698 0.0019984697  0.072260955 
  156200    911.16667    20.010955 0.0020012956    0.0723391 
  156400    912.33333    20.039075 0.0020041079  0.072434625 
  156600        913.5    20.067324 0.0020069331  0.072586822 
  156800    914.66667     20.09607  0.002009808  0.072702339 
  157000    915.83333     20.12472 0.0020126733  0.072812294 
  157200          917    20.152858 0.0020154873  0.072922047 
  157400    918.16667    20.180681   0.00201827   0.07299874 
  157600    919.33333    20.208367 0.0020210388   0.07312046 
  157800        920.5    20.236405 0.0020238429  0.073284617 
  158000    921.66667    20.265069 0.0020267096  0.073393346 
  158200    922.83333      20.2938 0.0020295829  0.073487268 
  158400          924     20.32219 0.0020324222  0.073590518 
  158600    925.16667    20.350297 0.0020352332   0.07367094 
  158800    926.33333    20.378201 0.0020380239  0.073779178 
  159000        927.5    20.406262 0.0020408303  0.073913694 
  159200    928.66667    20.434561 0.0020436605  0.074034563 
  159400    929.83333    20.462825 0.0020464872  0.074150245 
  159600          931    20.490991  0.002049304  0.074268947 
  159800    932.16667    20.519134 0.0020521187  0.074356504 
  160000    933.33333    20.547261 0.0020549316  0.074451478 
  160200        934.5    20.575378 0.0020577436  0.074585506 
  160400    935.66667    20.603437 0.0020605497  0.074722005 
  160600    936.83333    20.631483 0.0020633546  0.074842082 
  160800          938    20.659625 0.0020661692  0.074940595 
  161000    939.16667    20.687692 0.0020689761  0.075055588 
  161200    940.33333    20.715689 0.0020717761  0.075186886 
  161400        941.5    20.743761 0.0020745836  0.075275248 
  161600    942.66667     20.77167 0.0020773747   0.07536935 
  161800    943.83333    20.799421 0.0020801501  0.075513637 
  162000          945    20.827343 0.0020829426  0.075616076 
  162200    946.16667    20.855345  0.002085743  0.075730616 
  162400    947.33333    20.883469 0.0020885557    0.0758708 
  162600        948.5    20.911762 0.0020913853  0.075937871 
  162800    949.66667     20.93972 0.0020941814  0.076059931 
  163000    950.83333    20.967519 0.0020969616  0.076197398 
  163200          952    20.995338 0.0020997438  0.076268785 
  163400    953.16667    21.022923 0.0021025025  0.076380484 
  163600    954.33333    21.050499 0.0021052604  0.076500296 
  163800        955.5    21.078173 0.0021080282  0.076622462 
  164000    956.66667    21.106062 0.0021108173  0.076759423 
  164200    957.83333    21.134164 0.0021136277  0.076844868 
  164400          959    21.161947 0.0021164063  0.076965172 
  164600    960.16667    21.189483 0.0021191602  0.077080593 
  164800    961.33333    21.216899 0.0021219021  0.077168945 
  165000        962.5     21.24431 0.0021246435  0.077305404 
  165200    963.66667    21.272037 0.0021274164  0.077432919 
  165400    964.83333    21.299884 0.0021302014  0.077545912 
  165600          966    21.327542 0.0021329675  0.077678008 
  165800    967.16667    21.355023 0.0021357159  0.077725857 
  166000    968.33333    21.382079 0.0021384217  0.077819119 
  166200        969.5    21.409193 0.0021411334  0.077978443 
  166400    970.66667     21.43684 0.0021438984  0.078099663 
  166600    971.83333    21.464736 0.0021466883  0.078218877 
  166800          973    21.492585 0.0021494734  0.078314241 
  167000    974.16667    21.519939 0.0021522091  0.078403769 
  167200    975.33333    21.546907 0.0021549062  0.078516609 
  167400        976.5    21.574109 0.0021576267  0.078634929 
  167600    977.66667    21.601616 0.0021603776  0.078760819 
  167800    978.83333    21.629353 0.0021631516  0.078857236 
  168000          980    21.656846 0.0021659011  0.078952055 
  168200    981.16667    21.683964 0.0021686133  0.079061725 
  168400    982.33333    21.711211 0.0021713382  0.079155619 
  168600        983.5    21.738725   0.00217409  0.079264178 
  168800    984.66667    21.766441 0.0021768618  0.079401754 
  169000    985.83333    21.794109 0.0021796289   0.07948402 
  169200          987    21.821314 0.0021823497  0.079560829 
  169400    988.16667     21.84827 0.0021850455  0.079657785 
  169600    989.33333    21.875395 0.0021877583  0.079791815 
  169800        990.5    21.902908 0.0021905098  0.079925324 
  170000    991.66667    21.930415 0.0021932608  0.080028987 
  170200    992.83333    21.957379 0.0021959575  0.080142879 
  170400          994     21.98404 0.0021986238  0.080235578 
  170600    995.16667    22.010689  0.002201289  0.080354749 
  170800    996.33333    22.037643 0.0022039847  0.080504034 
  171000        997.5    22.065147 0.0022067353  0.080591764 
  171200    998.66667    22.092536 0.0022094746  0.080713308 
  171400    999.83333    22.119661 0.0022121873  0.080829039 
  171600         1001     22.14663 0.0022148845  0.080897958 
  171800    1002.1667     22.17346 0.0022175678  0.081021538 
  172000    1003.3333    22.200525 0.0022202745   0.08115209 
  172200       1004.5    22.227789 0.0022230012  0.081272714 
  172400    1005.6667    22.255177 0.0022257403  0.081383357 
  172600    1006.8333    22.282591  0.002228482  0.081463294 
  172800         1008    22.309752 0.0022311983  0.081573549 
  173000    1009.1667    22.336908 0.0022339142  0.081679481 
  173200    1010.3333    22.363997 0.0022366233  0.081785798 
  173400       1011.5     22.39102 0.0022393259  0.081909661 
  173600    1012.6667    22.418206 0.0022420448  0.082014238 
  173800    1013.8333    22.445446 0.0022447691   0.08213624 
  174000         1015     22.47272 0.0022474967  0.082260464 
  174200    1016.1667    22.499958 0.0022502208  0.082331245 
  174400    1017.3333     22.52695 0.0022529202  0.082425576 
  174600       1018.5    22.553888 0.0022556143  0.082565574 
  174800    1019.6667    22.581109 0.0022583367  0.082683758 
  175000    1020.8333    22.608592 0.0022610853  0.082787409 
  175200         1022    22.635932 0.0022638196    0.0828986 
  175400    1023.1667    22.662983  0.002266525  0.082986416 
  175600    1024.3333    22.689808 0.0022692077  0.083090366 
  175800       1025.5    22.716702 0.0022718974  0.083211194 
  176000    1026.6667    22.743914 0.0022746188  0.083288442 
  176200    1027.8333    22.770857 0.0022773134  0.083393813 
  176400         1029    22.797445 0.0022799725  0.083517974 
  176600    1030.1667    22.824073 0.0022826356  0.083615578 
  176800    1031.3333    22.850973 0.0022853258  0.083741778 
  177000       1032.5    22.878282  0.002288057  0.083872875 
  177200    1033.6667    22.905509 0.0022907799  0.083973266 
  177400    1034.8333     22.93208 0.0022934373  0.084065553 
  177600         1036    22.958064  0.002296036  0.084148098 
  177800    1037.1667    22.983944 0.0022986243  0.084281001 
  178000    1038.3333    23.010633 0.0023012934  0.084419027 
  178200       1039.5    23.037817 0.0023040121  0.084528482 
  178400    1040.6667    23.064652 0.0023066959  0.084636344 
  178600    1041.8333    23.090962 0.0023093272  0.084687168 
  178800         1043    23.116784 0.0023119096  0.084797952 
  179000    1044.1667    23.143161 0.0023145476  0.084962932 
  179200    1045.3333    23.170517 0.0023172835  0.085063389 
  179400       1046.5    23.197926 0.0023200246  0.085183464 
  179600    1047.6667    23.224819 0.0023227142  0.085277953 
  179800    1048.8333    23.250936 0.0023253261  0.085345628 
  180000         1050    23.276953 0.0023279281  0.085459039 
  180200    1051.1667    23.303439  0.002330577  0.085582344 
  180400    1052.3333    23.330186 0.0023332519  0.085714044 
  180600       1053.5     23.35685 0.0023359186  0.085823887 
  180800    1054.6667    23.383093 0.0023385432  0.085900905 
  181000    1055.8333    23.409208 0.0023411549  0.085995406 
  181200         1057    23.435607 0.0023437951  0.086110744 
  181400    1058.1667    23.462186 0.0023464533  0.086244337 
  181600    1059.3333    23.488737 0.0023491086  0.086340295 
  181800       1060.5    23.514943 0.0023517295  0.086401771 
  182000    1061.6667     23.54099 0.0023543345  0.086526082 
  182200    1062.8333    23.567455 0.0023569812  0.086664462 
  182400         1064    23.594424 0.0023596784  0.086752533 
  182600    1065.1667    23.621325 0.0023623687  0.086835762 
  182800    1066.3333    23.647587 0.0023649952  0.086937186 
  183000       1067.5    23.673692 0.0023676059   0.08703107 
  183200    1068.6667    23.700049 0.0023702419  0.087145938 
  183400    1069.8333    23.726788  0.002372916  0.087261958 
  183600         1071    23.753664 0.0023756039  0.087348749 
  183800    1072.1667     23.78002 0.0023782398   0.08745536 
  184000    1073.3333    23.806162 0.0023808543   0.08753288 
  184200       1074.5    23.832305 0.0023834688  0.087615951 
  184400    1075.6667    23.858576 0.0023860962  0.087747967 
  184600    1076.8333    23.885051 0.0023887439  0.087847127 
  184800         1078    23.911261 0.0023913652  0.087942098 
  185000    1079.1667    23.937518 0.0023939912  0.088029485 
  185200    1080.3333    23.963867 0.0023966264  0.088129277 
  185400       1081.5    23.990142 0.0023992541  0.088245624 
  185600    1082.6667    24.016121 0.0024018523  0.088335044 
  185800    1083.8333     24.04161 0.0024044015  0.088453473 
  186000         1085    24.067328 0.0024069735  0.088572661 
  186200    1086.1667     24.09355  0.002409596  0.088691189 
  186400    1087.3333    24.120009 0.0024122422  0.088828446 
  186600       1088.5    24.146386 0.0024148801  0.088889605 
  186800    1089.6667    24.172054 0.0024174471  0.088970968 
  187000    1090.8333     24.19759  0.002420001  0.089103117 
  187200         1092    24.223775 0.0024226198  0.089224256 
  187400    1093.1667    24.250515  0.002425294  0.089326906 
  187600    1094.3333    24.277034 0.0024279462  0.089438498 
  187800       1095.5    24.302888 0.0024305319   0.08952965 
  188000    1096.6667    24.328481 0.0024330914  0.089614871 
  188200    1097.8333    24.354327 0.0024356762  0.089739189 
  188400         1099    24.380688 0.0024383126   0.08985027 
  188600    1100.1667    24.406824 0.0024409265  0.089963165 
  188800    1101.3333    24.432424 0.0024434868  0.090081445 
  189000       1102.5    24.458148 0.0024460594  0.090171573 
  189200    1103.6667    24.484149 0.0024486597  0.090305162 
  189400    1104.8333    24.510616 0.0024513068  0.090433237 
  189600         1106    24.536793 0.0024539247  0.090524781 
  189800    1107.1667     24.56199 0.0024564447  0.090600225 
  190000    1108.3333     24.58687 0.0024589329    0.0906944 
  190200       1109.5    24.612162 0.0024614623  0.090866448 
  190400    1110.6667    24.638649 0.0024641113  0.090976279 
  190600    1111.8333    24.665253 0.0024667719  0.091060347 
  190800         1113    24.690967 0.0024693436   0.09114214 
  191000    1114.1667    24.716227 0.0024718699  0.091196624 
  191200    1115.3333    24.741636  0.002474411  0.091344639 
  191400       1116.5    24.768003  0.002477048   0.09147519 
  191600    1117.6667    24.794494 0.0024796974   0.09158528 
  191800    1118.8333    24.820225 0.0024822707  0.091701857 
  192000         1120     24.84546 0.0024847945  0.091761499 
  192200    1121.1667    24.870609 0.0024873096  0.091873224 
  192400    1122.3333     24.89656  0.002489905  0.091990573 
  192600       1123.5     24.92266 0.0024925152  0.092122094 
  192800    1124.6667    24.948389 0.0024950884  0.092223496 
  193000    1125.8333     24.97388 0.0024976377   0.09229837 
  193200         1127    24.999217 0.0025001717  0.092430582 
  193400    1128.1667    25.025181 0.0025027684  0.092554663 
  193600    1129.3333    25.051425  0.002505393  0.092663273 
  193800       1130.5    25.077221 0.0025079729  0.092746431 
  194000    1131.6667     25.10225 0.0025104761  0.092837375 
  194200    1132.8333    25.127031 0.0025129544  0.092984156 
  194400         1134    25.152619 0.0025155134   0.09312271 
  194600    1135.1667    25.178745 0.0025181263  0.093237293 
  194800    1136.3333    25.204717 0.0025207238  0.093322916 
  195000       1137.5    25.229952 0.0025232476  0.093433869 
  195200    1138.6667    25.254873 0.0025257399   0.09352794 
  195400    1139.8333    25.280142  0.002528267  0.093632055 
  195600         1141    25.305897 0.0025308428   0.09377906 
  195800    1142.1667     25.33217 0.0025334703  0.093865211 
  196000    1143.3333    25.358172 0.0025360708  0.093977707 
  196200       1144.5    25.383732  0.002538627  0.094066537 
  196400    1145.6667    25.408935 0.0025411476   0.09413421 
  196600    1146.8333    25.433883 0.0025436427  0.094283086 
  196800         1148    25.459331 0.0025461878  0.094384869 
  197000    1149.1667    25.484933 0.0025487482  0.094504224 
  197200    1150.3333    25.510599  0.002551315  0.094618022 
  197400       1151.5    25.536014 0.0025538568  0.094721336 
  197600    1152.6667    25.561074  0.002556363  0.094825121 
  197800    1153.8333    25.586143 0.0025588702  0.094908199 
  198000         1155    25.611244 0.0025613806  0.095056575 
  198200    1156.1667    25.636756  0.002563932   0.09516069 
  198400    1157.3333    25.662105 0.0025664672  0.095267881 
  198600       1158.5    25.687249 0.0025689818  0.095392298 
  198800    1159.6667    25.712487 0.0025715058  0.095453631 
  199000    1160.8333    25.737618 0.0025740192  0.095591861 
  199200         1162    25.763085 0.0025765662  0.095706522 
  199400    1163.1667    25.788414 0.0025790993  0.095799598 
  199600    1164.3333    25.813562 0.0025816144  0.095909676 
  199800       1165.5    25.838673 0.0025841257  0.096020492 
  200000    1166.6667    25.863819 0.0025866406  0.096143173 
  200200    1167.8333    25.889135 0.0025891724  0.096229711 
  200400         1169    25.914099 0.0025916691   0.09634815 
  200600    1170.1667     25.93894 0.0025941534  0.096452046 
  200800    1171.3333    25.963874 0.0025966471  0.096560847 
  201000       1172.5    25.989149 0.0025991748  0.096674473 
  201200    1173.6667    26.014553 0.0026017155  0.096780521 
  201400    1174.8333    26.039748 0.0026042352  0.096910212 
  201600         1176    26.064722 0.0026067328  0.096996198 
  201800    1177.1667    26.089215 0.0026091824  0.097097143 
  202000    1178.3333    26.113712 0.0026116324  0.097217099 
  202200       1179.5    26.138245 0.0026140859   0.09734949 
  202400    1180.6667     26.16309 0.0026165707  0.097481625 
  202600    1181.8333    26.188356 0.0026190975  0.097572952 
  202800         1183    26.213447 0.0026216069   0.09769724 
  203000    1184.1667    26.238366  0.002624099  0.097776401 
  203200    1185.3333    26.262687 0.0026265314  0.097883951 
  203400       1186.5    26.287105 0.0026289734  0.098000902 
  203600    1187.6667    26.312044 0.0026314675  0.098089231 
  203800    1188.8333    26.336935 0.0026339569  0.098252227 
  204000         1190    26.362021 0.0026364657  0.098320759 
  204200    1191.1667    26.386545 0.0026389184   0.09838262 
  204400    1192.3333    26.410817 0.0026413459  0.098506928 
  204600       1193.5    26.435473 0.0026438116  0.098620604 
  204800    1194.6667     26.46031 0.0026462956  0.098748252 
  205000    1195.8333    26.485299 0.0026487948  0.098836286 
  205200         1197    26.509791 0.0026512442  0.098958247 
  205400    1198.1667    26.534016 0.0026536669   0.09906961 
  205600    1199.3333    26.558317 0.0026560974  0.099176864 
  205800       1200.5     26.58276 0.0026585419  0.099300607 
  206000    1201.6667    26.607228 0.0026609889  0.099386109 
  206200    1202.8333    26.631549 0.0026634212  0.099518396 
  206400         1204    26.656292 0.0026658958  0.099619444 
  206600    1205.1667    26.681466 0.0026684135  0.099695854 
  206800    1206.3333    26.706555 0.0026709226  0.099829337 
  207000       1207.5     26.73138 0.0026734054  0.099922657 
  207200    1208.6667    26.755745 0.0026758421   0.10001154 
  207400    1209.8333    26.780035 0.0026782713   0.10012975 
  207600         1211    26.804657 0.0026807337   0.10025948 
  207800    1212.1667    26.829419 0.0026832102   0.10037093 
  208000    1213.3333    26.853866 0.0026856551   0.10045822 
  208200       1214.5    26.878028 0.0026880716   0.10056491 
  208400    1215.6667    26.902194 0.0026904885   0.10067027 
  208600    1216.8333    26.926671 0.0026929364   0.10080256 
  208800         1218    26.951426 0.0026954121   0.10091038 
  209000    1219.1667    26.975987 0.0026978685   0.10100845 
  209200    1220.3333    27.000213 0.0027002914   0.10110908 
  209400       1221.5    27.024265 0.0027026968   0.10120336 
  209600    1222.6667     27.04847 0.0027051175   0.10128857 
  209800    1223.8333    27.072629 0.0027075336   0.10139878 
  210000         1225    27.096847 0.0027099557   0.10153941 
  210200    1226.1667     27.12137 0.0027124082   0.10164381 
  210400    1227.3333    27.145911 0.0027148626   0.10175311 
  210600       1228.5    27.170299 0.0027173016   0.10184256 
  210800    1229.6667      27.1943  0.002719702   0.10194036 
  211000    1230.8333    27.218296 0.0027221018   0.10206886 
  211200         1232    27.242612 0.0027245336    0.1021388 
  211400    1233.1667    27.266706 0.0027269433   0.10225114 
  211600    1234.3333    27.290727 0.0027293457   0.10236513 
  211800       1235.5     27.31496 0.0027317691   0.10242734 
  212000    1236.6667    27.339237 0.0027341971   0.10254066 
  212200    1237.8333    27.363619 0.0027366356   0.10266072 
  212400         1239     27.38776 0.0027390499   0.10277006 
  212600    1240.1667    27.411541 0.0027414282   0.10285977 
  212800    1241.3333    27.435263 0.0027438007   0.10295974 
  213000       1242.5    27.459248 0.0027461994   0.10308835 
  213200    1243.6667      27.4837 0.0027486448   0.10317736 
  213400    1244.8333    27.507937 0.0027510688   0.10326547 
  213600         1246     27.53155 0.0027534303    0.1033415 
  213800    1247.1667    27.554847 0.0027557603   0.10346328 
  214000    1248.3333    27.578517 0.0027581275   0.10361001 
  214200       1249.5    27.602841 0.0027605601   0.10370458 
  214400    1250.6667    27.627038 0.0027629801   0.10381042 
  214600    1251.8333    27.650726 0.0027653492   0.10391265 
  214800         1253    27.673991 0.0027676759    0.1040132 
  215000    1254.1667    27.697247 0.0027700017   0.10412597 
  215200    1255.3333    27.720787 0.0027723559   0.10424983 
  215400       1256.5     27.74464 0.0027747415   0.10437225 
  215600    1257.6667    27.768598 0.0027771375   0.10446728 
  215800    1258.8333    27.792376 0.0027795155   0.10456371 
  216000         1260    27.815982 0.0027818764   0.10465005 
  216200    1261.1667    27.839317 0.0027842101   0.10476696 
  216400    1262.3333     27.86274 0.0027865527   0.10487626 
  216600       1263.5    27.886562 0.0027889351   0.10497947 
  216800    1264.6667    27.910443 0.0027913234   0.10511639 
  217000    1265.8333    27.934272 0.0027937065   0.10521699 
  217200         1267    27.957644 0.0027960441    0.1052937 
  217400    1268.1667    27.980862  0.002798366   0.10538453 
  217600    1269.3333    28.004281 0.0028007082   0.10550525 
  217800       1270.5    28.028202 0.0028031005   0.10560158 
  218000    1271.6667    28.052338 0.0028055144   0.10571247 
  218200    1272.8333    28.076058 0.0028078866   0.10580752 
  218400         1274    28.099503 0.0028102314   0.10590864 
  218600    1275.1667    28.123059 0.0028125872   0.10604389 
  218800    1276.3333     28.14676 0.0028149575   0.10612312 
  219000       1277.5    28.170065 0.0028172882   0.10622902 
  219200    1278.6667    28.193092 0.0028195911   0.10634344 
  219400    1279.8333     28.21621 0.0028219032   0.10646043 
  219600         1281     28.23982 0.0028242645   0.10658665 
  219800    1282.1667    28.263729 0.0028266555   0.10668695 
  220000    1283.3333     28.28708 0.0028289909   0.10679287 
  220200       1284.5    28.310083 0.0028312914   0.10687266 
  220400    1285.6667    28.333081 0.0028335914   0.10699715 
  220600    1286.8333    28.356527 0.0028359363   0.10715119 
  220800         1288    28.380343 0.0028383182   0.10726075 
  221000    1289.1667    28.403554 0.0028406394   0.10736521 
  221200    1290.3333    28.426216 0.0028429058   0.10742581 
  221400       1291.5    28.448575  0.002845142   0.10755316 
  221600    1292.6667    28.471532  0.002847438   0.10769554 
  221800    1293.8333    28.495375 0.0028498225   0.10779301 
  222000         1295    28.519222 0.0028522074   0.10789157 
  222200    1296.1667    28.542418 0.0028545273   0.10797652 
  222400    1297.3333    28.564997 0.0028567853   0.10807791 
  222600       1298.5    28.587912 0.0028590772   0.10819512 
  222800    1299.6667    28.611213 0.0028614075   0.10831133 
  223000    1300.8333    28.634469 0.0028637332   0.10843125 
  223200         1302    28.657708 0.0028660574   0.10854103 
  223400    1303.1667    28.681147 0.0028684016   0.10862733 
  223600    1304.3333    28.704734 0.0028707604   0.10871987 
  223800       1305.5     28.72828 0.0028731154   0.10883162 
  224000    1306.6667    28.751556 0.0028754431   0.10891377 
  224200    1307.8333    28.774426 0.0028777304   0.10900192 
  224400         1309    28.797401 0.0028800281    0.1091269 
  224600    1310.1667    28.820785 0.0028823667   0.10925109 
  224800    1311.3333    28.844359 0.0028847243   0.10933623 
  225000       1312.5     28.86731 0.0028870197   0.10941415 
  225200    1313.6667    28.889614 0.0028892503   0.10949827 
  225400    1314.8333     28.91205 0.0028914942   0.10962365 
  225600         1316    28.935303 0.0028938197   0.10976634 
  225800    1317.1667    28.959054  0.002896195   0.10986179 
  226000    1318.3333     28.98198 0.0028984878   0.10997323 
  226200       1319.5     29.00404  0.002900694   0.11006185 
  226400    1320.6667    29.025937  0.002902884   0.11014365 
  226600    1321.8333    29.048425  0.002905133   0.11025971 
  226800         1323     29.07155 0.0029074457   0.11037923 
  227000    1324.1667    29.094678 0.0029097588   0.11047801 
  227200    1325.3333    29.117471 0.0029120383   0.11055106 
  227400       1326.5    29.140038 0.0029142952      0.11064 
  227600    1327.6667    29.162945 0.0029165862   0.11073798 
  227800    1328.8333       29.186 0.0029188919   0.11085159 
  228000         1330    29.209031 0.0029211952   0.11094469 
  228200    1331.1667    29.231949 0.0029234872    0.1110214 
  228400    1332.3333    29.254779 0.0029257704   0.11113121 
  228600       1333.5    29.277819 0.0029280747   0.11120665 
  228800    1334.6667    29.300648 0.0029303578   0.11129258 
  229000    1335.8333    29.323357  0.002932629   0.11140697 
  229200         1337    29.346267 0.0029349202   0.11151078 
  229400    1338.1667    29.369298 0.0029372235   0.11163363 
[...]
  797000    4649.1667    51.925806 0.0051930999   0.23342229 
  797200    4650.3333    51.927686 0.0051932879   0.23341508 
  797400       4651.5    51.928623 0.0051933816    0.2334267 
  797600    4652.6667    51.929383 0.0051934576   0.23343708 
  797800    4653.8333    51.930497 0.0051935691   0.23349348 
  798000         4655    51.931953 0.0051937147   0.23348923 
  798200    4656.1667    51.932489 0.0051937683   0.23352139 
  798400    4657.3333    51.933275 0.0051938469   0.23352326 
  798600       4658.5    51.934294 0.0051939488   0.23357171 
  798800    4659.6667    51.935351 0.0051940545   0.23359105 
  799000    4660.8333    51.936134 0.0051941328   0.23359819 
  799200         4662    51.937177 0.0051942372   0.23364094 
  799400    4663.1667    51.938731 0.0051943926   0.23364782 
  799600    4664.3333    51.939646 0.0051944841   0.23367026 
  799800       4665.5    51.940975  0.005194617   0.23365914 
  800000    4666.6667    51.942083 0.0051947277   0.23370187 
  800200    4667.8333    51.943219 0.0051948414   0.23370749 
  800400         4669    51.944155  0.005194935   0.23369638 
  800600    4670.1667    51.945091 0.0051950286   0.23375393 
  800800    4671.3333    51.946592 0.0051951787   0.23375819 
  801000       4672.5    51.947438 0.0051952633    0.2337899 
  801200    4673.6667    51.948546 0.0051953742   0.23377919 
  801400    4674.8333    51.949529 0.0051954725   0.23382578 
  801600         4676    51.950813 0.0051956008   0.23381832 
  801800    4677.1667    51.951737 0.0051956933   0.23382758 
  802000    4678.3333    51.952613 0.0051957808   0.23384462 
  802200       4679.5      51.9542 0.0051959396   0.23385564 
  802400    4680.6667    51.955551 0.0051960747   0.23389266 
  802600    4681.8333    51.956802 0.0051961998   0.23384774 
  802800         4683    51.957397 0.0051962593   0.23391727 
  803000    4684.1667    51.959175 0.0051964372   0.23389985 
  803200    4685.3333    51.960395 0.0051965591   0.23395367 
  803400       4686.5    51.961481 0.0051966678   0.23392169 
  803600    4687.6667    51.962221 0.0051967418   0.23398491 
  803800    4688.8333    51.964004 0.0051969201   0.23399072 
  804000         4690    51.965397 0.0051970595    0.2339678 
  804200    4691.1667    51.965995 0.0051971192    0.2339983 
  804400    4692.3333     51.96766 0.0051972857   0.23399549 
  804600       4693.5    51.969051 0.0051974249    0.2340251 
  804800    4694.6667    51.969966 0.0051975163   0.23398849 
  805000    4695.8333    51.970094 0.0051975292   0.23404819 
  805200         4697    51.971686 0.0051976884    0.2340679 
  805400    4698.1667    51.973256 0.0051978454   0.23407523 
  805600    4699.3333    51.973601 0.0051978799   0.23410236 
  805800       4700.5    51.974224 0.0051979422   0.23410598 
  806000    4701.6667    51.975574 0.0051980772   0.23416664 
  806200    4702.8333     51.97699 0.0051982188   0.23413535 
  806400         4704    51.976939 0.0051982137   0.23417059 
  806600    4705.1667    51.977938 0.0051983136   0.23415651 
  806800    4706.3333    51.979235 0.0051984433   0.23421489 
  807000       4707.5    51.980148 0.0051985347    0.2341997 
  807200    4708.6667    51.980667 0.0051985866   0.23422695 
  807400    4709.8333    51.981502   0.00519867   0.23426571 
  807600         4711     51.98269 0.0051987889   0.23427499 
  807800    4712.1667    51.983451 0.0051988649   0.23429849 
  808000    4713.3333    51.984519 0.0051989718   0.23429322 
  808200       4714.5     51.98555 0.0051990749   0.23431384 
  808400    4715.6667    51.986543 0.0051991742    0.2343024 
  808600    4716.8333     51.98738  0.005199258   0.23435132 
  808800         4718    51.989193 0.0051994393   0.23435534 
  809000    4719.1667    51.990348 0.0051995548   0.23437751 
  809200    4720.3333    51.990772 0.0051995972   0.23442548 
  809400       4721.5    51.991386 0.0051996586   0.23443375 
  809600    4722.6667    51.992176 0.0051997376   0.23446163 
  809800    4723.8333    51.992758 0.0051997958   0.23448397 
  810000         4725    51.993212 0.0051998412   0.23450676 
  810200    4726.1667    51.993736 0.0051998936     0.234521 
  810400    4727.3333    51.994904 0.0052000104   0.23455065 
  810600       4728.5     51.99614 0.0052001341   0.23457507 
  810800    4729.6667    51.997188 0.0052002388   0.23459299 
  811000    4730.8333    51.997162 0.0052002362   0.23466241 
  811200         4732    51.997773 0.0052002974   0.23466709 
  811400    4733.1667     51.99889 0.0052004091   0.23472009 
  811600    4734.3333    51.999678 0.0052004879    0.2347129 
  811800       4735.5    51.999775 0.0052004976   0.23475312 
  812000    4736.6667    52.000931 0.0052006132   0.23474312 
  812200    4737.8333     52.00198 0.0052007181   0.23479472 
  812400         4739    52.002832 0.0052008033   0.23481273 
  812600    4740.1667    52.003601 0.0052008802   0.23487372 
  812800    4741.3333    52.005279  0.005201048   0.23491556 
  813000       4742.5     52.00627 0.0052011472   0.23491231 
  813200    4743.6667    52.005726 0.0052010927   0.23494126 
  813400    4744.8333     52.00669 0.0052011891   0.23499561 
  813600         4746    52.008868  0.005201407   0.23501444 
  813800    4747.1667    52.009509 0.0052014711   0.23503029 
  814000    4748.3333    52.008703 0.0052013904   0.23508145 
  814200       4749.5    52.009552 0.0052014753    0.2351279 
  814400    4750.6667    52.010786 0.0052015988    0.2351631 
  814600    4751.8333     52.01125 0.0052016452    0.2351903 
  814800         4753    52.011718  0.005201692    0.2352398 
  815000    4754.1667    52.013212 0.0052018413   0.23527372 
  815200    4755.3333    52.014109 0.0052019311   0.23529784 
  815400       4756.5     52.01429 0.0052019492   0.23533191 
  815600    4757.6667    52.015354 0.0052020557   0.23535225 
  815800    4758.8333    52.016738  0.005202194   0.23539361 
  816000         4760    52.017457 0.0052022659    0.2353933 
  816200    4761.1667    52.017922 0.0052023125   0.23544723 
  816400    4762.3333    52.019351 0.0052024553   0.23547747 
  816600       4763.5    52.020428  0.005202563   0.23549853 
  816800    4764.6667    52.021258 0.0052026461   0.23550982 
  817000    4765.8333    52.022355 0.0052027557    0.2355467 
  817200         4767    52.023967  0.005202917   0.23555581 
  817400    4768.1667     52.02504 0.0052030243   0.23555187 
  817600    4769.3333    52.026137  0.005203134   0.23558891 
  817800       4770.5    52.027797    0.0052033   0.23560356 
  818000    4771.6667    52.028404 0.0052033608   0.23558417 
  818200    4772.8333    52.028364 0.0052033568   0.23561268 
  818400         4774    52.029146  0.005203435   0.23564173 
  818600    4775.1667    52.030189 0.0052035393   0.23565333 
  818800    4776.3333    52.030666  0.005203587   0.23567088 
  819000       4777.5    52.031325 0.0052036529   0.23566602 
  819200    4778.6667    52.032443 0.0052037646   0.23569143 
  819400    4779.8333     52.03345 0.0052038654   0.23568859 
  819600         4781    52.034225 0.0052039429   0.23572118 
  819800    4782.1667    52.035742 0.0052040946   0.23571927 
  820000    4783.3333    52.036879 0.0052042083   0.23574779 
  820200       4784.5    52.037256  0.005204246   0.23574639 
  820400    4785.6667    52.037522 0.0052042726   0.23575565 
  820600    4786.8333    52.038229 0.0052043433   0.23576679 
  820800         4788    52.038736 0.0052043941   0.23576975 
  821000    4789.1667    52.039254 0.0052044459   0.23575123 
  821200    4790.3333    52.040134 0.0052045338   0.23577682 
  821400       4791.5    52.040896   0.00520461   0.23578554 
  821600    4792.6667    52.041749 0.0052046953   0.23576824 
  821800    4793.8333    52.042885  0.005204809   0.23577613 
  822000         4795    52.043945  0.005204915   0.23579625 
  822200    4796.1667    52.044596 0.0052049801   0.23574921 
  822400    4797.3333    52.045403 0.0052050608   0.23577882 
  822600       4798.5    52.046836 0.0052052041   0.23576575 
  822800    4799.6667    52.047057 0.0052052262   0.23579202 
  823000    4800.8333    52.047151 0.0052052356   0.23577064 
  823200         4802    52.048064 0.0052053269   0.23580598 
  823400    4803.1667    52.049236 0.0052054441   0.23579366 
  823600    4804.3333     52.04967 0.0052054876   0.23580612 
  823800       4805.5     52.04985 0.0052055055   0.23584885 
  824000    4806.6667    52.050708 0.0052055913   0.23582637 
  824200    4807.8333    52.050868 0.0052056074   0.23584545 
  824400         4809    52.051643 0.0052056849   0.23583214 
  824600    4810.1667    52.053116 0.0052058322   0.23586691 
  824800    4811.3333    52.054097 0.0052059303   0.23585463 
  825000       4812.5    52.054285 0.0052059491   0.23586656 
  825200    4813.6667    52.054896 0.0052060102   0.23585218 
  825400    4814.8333    52.056441 0.0052061647   0.23584086 
  825600         4816    52.057658 0.0052062864   0.23584963 
  825800    4817.1667    52.059081 0.0052064287   0.23580984 
  826000    4818.3333    52.060718 0.0052065924   0.23587804 
  826200       4819.5    52.061761 0.0052066967   0.23586958 
  826400    4820.6667    52.061342 0.0052066549   0.23589691 
  826600    4821.8333    52.061394   0.00520666   0.23589291 
  826800         4823    52.062823  0.005206803   0.23592253 
  827000    4824.1667    52.063561 0.0052068768   0.23591355 
  827200    4825.3333    52.063551 0.0052068758   0.23587975 
  827400       4826.5    52.063721 0.0052068928   0.23593402 
  827600    4827.6667    52.065038 0.0052070245   0.23587771 
  827800    4828.8333    52.065291 0.0052070498   0.23591813 
  828000         4830    52.066211 0.0052071418    0.2358955 
  828200    4831.1667    52.067461 0.0052072668   0.23593591 
  828400    4832.3333    52.068194 0.0052073402   0.23591276 
  828600       4833.5    52.068124 0.0052073331   0.23592047 
  828800    4834.6667    52.068595 0.0052073802   0.23591719 
  829000    4835.8333    52.069332 0.0052074539   0.23591442 
  829200         4837    52.069619 0.0052074826   0.23594277 
  829400    4838.1667    52.070465 0.0052075673   0.23589809 
  829600    4839.3333    52.071197 0.0052076405   0.23591386 
  829800       4840.5     52.07218 0.0052077388   0.23588839 
  830000    4841.6667    52.073302 0.0052078509   0.23588839 
  830200    4842.8333    52.074395 0.0052079603   0.23588868 
  830400         4844    52.075178 0.0052080386   0.23587876 
  830600    4845.1667    52.075613 0.0052080821   0.23589086 
  830800    4846.3333    52.076625 0.0052081833   0.23584865 
  831000       4847.5    52.077041  0.005208225   0.23589105 
  831200    4848.6667    52.077864 0.0052083072   0.23584191 
  831400    4849.8333    52.078635 0.0052083844    0.2358889 
  831600         4851    52.080415 0.0052085623   0.23587944 
  831800    4852.1667    52.081213 0.0052086422   0.23588939 
  832000    4853.3333    52.081364 0.0052086573   0.23586812 
  832200       4854.5    52.081967 0.0052087175   0.23589583 
  832400    4855.6667    52.083229 0.0052088438   0.23590964 
  832600    4856.8333     52.08432 0.0052089529   0.23588482 
  832800         4858    52.084805 0.0052090014   0.23591662 
  833000    4859.1667    52.085756 0.0052090965   0.23589563 
  833200    4860.3333    52.086296 0.0052091505   0.23590833 
  833400       4861.5    52.086771  0.005209198   0.23591333 
  833600    4862.6667    52.087768 0.0052092977   0.23592732 
  833800    4863.8333    52.088921  0.005209413   0.23593033 
  834000         4865    52.089308 0.0052094518   0.23592854 
  834200    4866.1667    52.089948 0.0052095158   0.23595161 
  834400    4867.3333    52.091428 0.0052096638   0.23592076 
  834600       4868.5     52.09155  0.005209676   0.23593033 
  834800    4869.6667     52.09181  0.005209702   0.23590511 
  835000    4870.8333    52.093032 0.0052098241   0.23592708 
  835200         4872    52.094716 0.0052099926   0.23592158 
  835400    4873.1667    52.095187 0.0052100397   0.23591432 
  835600    4874.3333    52.095587 0.0052100798   0.23592639 
  835800       4875.5    52.096985 0.0052102195   0.23593499 
  836000    4876.6667    52.097447 0.0052102658   0.23592033 
  836200    4877.8333     52.09713  0.005210234   0.23589973 
  836400         4879    52.097861 0.0052103072   0.23593531 
  836600    4880.1667    52.099855 0.0052105065   0.23591084 
  836800    4881.3333    52.100165 0.0052105375   0.23588904 
  837000       4882.5    52.100487 0.0052105698   0.23588829 
  837200    4883.6667    52.102273 0.0052107484   0.23592121 
  837400    4884.8333    52.104067 0.0052109278   0.23590783 
  837600         4886     52.10395 0.0052109161   0.23591345 
  837800    4887.1667    52.104414 0.0052109625   0.23591117 
  838000    4888.3333    52.105905 0.0052111116   0.23591462 
  838200       4889.5    52.106105 0.0052111316   0.23591247 
  838400    4890.6667    52.106241 0.0052111452   0.23590859 
  838600    4891.8333    52.107592 0.0052112804   0.23590601 
  838800         4893      52.1089 0.0052114112   0.23589823 
  839000    4894.1667    52.109196 0.0052114408    0.2358816 
  839200    4895.3333     52.11005 0.0052115261   0.23588744 
  839400       4896.5    52.111517 0.0052116729   0.23588612 
  839600    4897.6667     52.11188 0.0052117091   0.23588604 
  839800    4898.8333    52.112159 0.0052117371   0.23587602 
  840000         4900    52.113564 0.0052118776   0.23588879 
  840200    4901.1667    52.114887 0.0052120099   0.23585767 
  840400    4902.3333    52.115015 0.0052120227   0.23582929 
  840600       4903.5    52.116512 0.0052121725   0.23580785 
  840800    4904.6667    52.118156 0.0052123368   0.23582395 
  841000    4905.8333     52.11875 0.0052123962   0.23579586 
  841200         4907    52.118786 0.0052123998   0.23580448 
  841400    4908.1667    52.120091 0.0052125304   0.23579467 
  841600    4909.3333    52.121204 0.0052126416   0.23578676 
  841800       4910.5    52.121308 0.0052126521   0.23577923 
  842000    4911.6667    52.121692 0.0052126905   0.23579725 
  842200    4912.8333    52.122344 0.0052127557    0.2357806 
  842400         4914    52.122624 0.0052127836   0.23579177 
  842600    4915.1667    52.123024 0.0052128237   0.23580172 
  842800    4916.3333    52.124059 0.0052129272   0.23578386 
  843000       4917.5    52.124786 0.0052129999    0.2357957 
  843200    4918.6667    52.125671 0.0052130884   0.23581235 
  843400    4919.8333    52.127056 0.0052132269   0.23578747 
  843600         4921    52.127468 0.0052132681   0.23577657 
  843800    4922.1667    52.127892 0.0052133106   0.23579485 
  844000    4923.3333    52.129422 0.0052134635   0.23579066 
  844200       4924.5    52.130923 0.0052136137   0.23578998 
  844400    4925.6667    52.130716  0.005213593   0.23577106 
  844600    4926.8333    52.130754 0.0052135968   0.23580321 
  844800         4928    52.131869 0.0052137083   0.23581403 
  845000    4929.1667    52.131627 0.0052136841     0.235805 
  845200    4930.3333    52.131349 0.0052136562   0.23578744 
  845400       4931.5    52.132824 0.0052138038    0.2358125 
  845600    4932.6667    52.135062 0.0052140276   0.23582021 
  845800    4933.8333    52.135478 0.0052140692   0.23578803 
  846000         4935    52.136091 0.0052141305   0.23580254 
  846200    4936.1667    52.138235 0.0052143449   0.23581379 
  846400    4937.3333     52.13878 0.0052143994   0.23579488 
  846600       4938.5    52.137668 0.0052142883   0.23579739 
  846800    4939.6667    52.138501 0.0052143715    0.2358392 
  847000    4940.8333    52.140657 0.0052145871   0.23583932 
  847200         4942    52.140627 0.0052145842   0.23579435 
  847400    4943.1667    52.140489 0.0052145703   0.23584575 
  847600    4944.3333    52.143195  0.005214841   0.23582953 
  847800       4945.5    52.144985   0.00521502   0.23585827 
  848000    4946.6667    52.144581 0.0052149796   0.23585308 
  848200    4947.8333    52.145396 0.0052150611    0.2358922 
  848400         4949    52.147616 0.0052152832   0.23588897 
  848600    4950.1667    52.147779 0.0052152994   0.23588761 
  848800    4951.3333    52.147151 0.0052152366   0.23592337 
  849000       4952.5    52.148735 0.0052153951   0.23593813 
  849200    4953.6667    52.149576 0.0052154792   0.23598337 
  849400    4954.8333    52.148984 0.0052154199   0.23595127 
  849600         4956    52.149378 0.0052154593   0.23600596 
  849800    4957.1667    52.151503 0.0052156718   0.23602853 
  850000    4958.3333    52.151817 0.0052157033   0.23601208 
  850200       4959.5    52.150949 0.0052156165   0.23602227 
  850400    4960.6667    52.152582 0.0052157798   0.23605419 
  850600    4961.8333    52.154599 0.0052159815   0.23610423 
  850800         4963    52.154839 0.0052160055   0.23606369 
  851000    4964.1667    52.154226 0.0052159442   0.23614578 
  851200    4965.3333    52.155535 0.0052160751   0.23614924 
  851400       4966.5    52.155739 0.0052160955   0.23617701 
  851600    4967.6667    52.155207 0.0052160423    0.2361927 
  851800    4968.8333    52.156228 0.0052161444   0.23620428 
  852000         4970    52.157876 0.0052163092   0.23623697 
  852200    4971.1667    52.158755 0.0052163971   0.23622694 
  852400    4972.3333    52.159423  0.005216464   0.23626591 
  852600       4973.5    52.161508 0.0052166724   0.23621556 
  852800    4974.6667    52.162303 0.0052167519   0.23629805 
  853000    4975.8333    52.163104 0.0052168321     0.236302 
  853200         4977    52.164284 0.0052169501   0.23633886 
  853400    4978.1667    52.165134 0.0052170351   0.23637019 
  853600    4979.3333    52.165646 0.0052170863   0.23638319 
  853800       4980.5    52.166625 0.0052171842     0.236424 
  854000    4981.6667    52.168354 0.0052173571   0.23642354 
  854200    4982.8333    52.168669 0.0052173886   0.23646712 
  854400         4984    52.169419 0.0052174636    0.2364663 
  854600    4985.1667    52.170973 0.0052176191   0.23650903 
  854800    4986.3333    52.171747 0.0052176964   0.23650265 
  855000       4987.5    52.171891 0.0052177109   0.23651655 
  855200    4988.6667    52.172842  0.005217806   0.23654351 
  855400    4989.8333    52.173977 0.0052179195   0.23655351 
  855600         4991    52.173669 0.0052178887   0.23659025 
  855800    4992.1667     52.17428 0.0052179498   0.23659333 
  856000    4993.3333    52.175956 0.0052181174    0.2366399 
  856200       4994.5    52.177265 0.0052182483   0.23661196 
  856400    4995.6667    52.177447 0.0052182665   0.23664341 
  856600    4996.8333    52.178957 0.0052184175   0.23667293 
  856800         4998    52.180402  0.005218562   0.23666169 
  857000    4999.1667    52.180147 0.0052185366   0.23667655 
  857143    5000.0008    52.180645 0.0052185864   0.23668208 
Loop time of 11974 on 16 procs for 857143 steps with 10000 atoms

Performance: 36078.085 tau/day, 71.584 timesteps/s
99.8% CPU use with 2 MPI tasks x 8 OpenMP threads

MPI task timing breakdown:
Section |  min time  |  avg time  |  max time  |%varavg| %total
---------------------------------------------------------------
Pair    | 2563.9     | 2564.8     | 2565.7     |   1.8 | 21.42
Neigh   | 109.37     | 109.48     | 109.6      |   1.1 |  0.91
Comm    | 48.845     | 50.771     | 52.696     |  27.0 |  0.42
Output  | 55.675     | 55.749     | 55.824     |   1.0 |  0.47
Modify  | 9125.1     | 9128       | 9130.8     |   3.0 | 76.23
Other   |            | 65.25      |            |       |  0.54

Nlocal:        5000.00 ave        5000 max        5000 min
Histogram: 2 0 0 0 0 0 0 0 0 0
Nghost:        863.000 ave         867 max         859 min
Histogram: 1 0 0 0 0 0 0 0 0 1
Neighs:       141926.0 ave      141992 max      141861 min
Histogram: 1 0 0 0 0 0 0 0 0 1
FullNghs:     273960.0 ave      274091 max      273829 min
Histogram: 1 0 0 0 0 0 0 0 0 1

Total # of neighbors = 547920
Ave neighs/atom = 54.792000
Neighbor list builds = 45536
Dangerous builds = 0
#write_restart      restart_adj_param.*

Total wall time: 3:19:34
src/input.cpp:264)
Last command: *
