ITEM: TIMESTEP
25500
ITEM: NUMBER OF ATOMS
9495
ITEM: BOX BOUNDS mm mm mm
0.0000000000000000e+00 3.1748021039364001e+01
0.0000000000000000e+00 3.1748021039364001e+01
-7.4072398406925706e-04 3.1748021039364001e+01
ITEM: ATOMS id type x y z c_phase c_temp c_surf c_nbond c_visc f_3[1]
1 1 0.116341 1.10259 0.464337 4 1.44016e-06 2 0 0.0994487 -0.68194
2 1 0.974108 1.6685 0.77798 4 2.75423e-06 2 0 0.0994487 -0.517031
3 1 0.714648 0.793562 1.41295 4 1.79847e-06 2 0 0.0994487 -0.281793
4 1 0.00336375 1.60273 1.37437 4 1.65324e-06 2 0 0.0994487 -0.804051
5 1 0.729896 0.0633724 0.61602 4 1.29528e-06 3 0 0.0994487 -0.190374
6 1 1.71015 0.808983 1.0155 4 3.54287e-06 2 0 0.0994487 -0.332068
7 1 1.80059 1.47468 0.221075 4 4.02837e-06 2 0 0.0994487 -0.125828
8 1 1.82015 1.66049 1.76126 4 4.52143e-06 2 0 0.0994487 -0.139532
9 1 2.52093 0.749102 0.203812 4 5.27996e-06 2 0 0.0994487 -0.142939
10 1 2.59149 0.0538711 1.03726 4 5.08511e-06 2 0 0.0994487 -0.295004
11 1 2.64922 1.541 0.882848 4 7.53561e-06 2 0 0.0994487 0.235764
12 1 2.66829 0.815502 1.7457 4 6.23253e-06 2 0 0.0994487 -0.187039
13 1 3.43386 0.933692 0.956349 4 1.10318e-05 2 0 0.0994487 0.320249
14 1 3.49924 0.0925696 1.70571 4 8.11054e-06 2 0 0.0994487 0.178054
15 1 3.60652 1.70798 1.71994 4 1.52123e-05 2 0 0.0994487 0.048797
16 1 4.10576 0.858321 0.325305 4 1.70126e-05 2 0 0.0994487 0.153148
17 1 4.96159 0.56786 1.17466 4 3.18363e-05 2 0 0.0994487 -0.0370636
18 1 4.91949 1.59987 0.383508 4 3.95445e-05 2 0 0.0994487 -0.100245
19 1 4.3472 0.941527 1.62884 4 2.10266e-05 2 0 0.0994487 0.110741
20 1 3.47612 0.111428 0.171027 4 7.6233e-06 2 0 0.0994487 0.166216
21 1 5.64741 0.645627 0.325839 4 5.03711e-05 2 0 0.0994487 -0.0806025
22 1 5.88414 1.31048 0.938036 4 6.86328e-05 2 0 0.0994487 -0.199564
23 1 6.57478 1.39104 0.218369 4 0.000105946 2 0 0.0994487 -0.0861303
24 1 5.78374 0.460658 1.69897 4 5.07392e-05 2 0 0.0994487 -0.08465
25 1 5.03122 1.72414 1.43602 4 4.27918e-05 2 0 0.0994487 0.0453762
26 1 6.7138 0.39031 0.865278 4 9.30594e-05 2 0 0.0994487 -0.0793789
27 1 6.69104 1.00962 1.69374 4 9.90432e-05 2 0 0.0994487 -0.10792
28 1 8.2679 0.408875 1.07337 4 0.000215327 2 0 0.0994487 -0.100163
29 1 7.36782 1.22285 0.954198 4 0.000161439 2 0 0.0994487 -0.302533
30 1 8.24709 1.39092 0.236779 4 0.000268155 2 0 0.0994487 -0.0460603
31 1 8.12868 1.27217 1.60653 4 0.00023728 2 0 0.0994487 -0.00811307
32 1 7.58247 0.647807 0.140287 4 0.000157276 2 0 0.0994487 -0.110933
33 1 8.85849 0.508506 0.273966 4 0.000293971 2 0 0.0994487 -0.0616435
34 1 9.55301 0.3386 0.888639 4 0.000405525 2 0 0.0994487 0.00506783
35 1 9.02586 1.30716 1.1133 4 0.000397082 2 0 0.0994487 -0.0606321
37 1 9.63995 1.37474 0.0900752 4 0.000506383 2 0 0.0994487 0.0992941
38 1 11.2128 0.215893 0.632658 4 0.000898189 2 0 0.0994487 0.203508
39 1 10.3637 1.04743 0.823114 4 0.000705953 2 0 0.0994487 0.539897
40 1 10.523 0.196295 1.44539 4 0.000632935 2 0 0.0994487 0.0644315
41 1 11.2856 1.01846 1.41785 4 0.0011765 2 0 0.0994487 0.164714
42 1 10.5797 1.67706 1.72992 4 0.000968903 2 0 0.0994487 0.118168
43 1 10.2431 0.367861 0.0780499 4 0.000506837 2 0 0.0994487 0.149803
44 1 12.8757 0.211714 0.636805 4 0.00212253 2 0 0.0994487 0.0587915
45 1 12.0457 1.07408 0.506655 4 0.0018029 2 0 0.0994487 -0.0235457
46 1 12.1319 0.316439 1.29957 4 0.00155959 2 0 0.0994487 0.0188414
47 1 12.7194 1.19864 1.3723 4 0.00257759 2 0 0.0994487 -0.0305199
48 1 14.3729 0.318493 0.764646 4 0.00407335 2 0 0.0994487 -0.0460352
49 1 13.5924 1.113 0.843618 4 0.00374357 2 0 0.0994487 -0.263042
50 1 14.0399 1.55958 0.167469 4 0.00499067 2 0 0.0994487 -0.0898218
51 1 13.6075 0.359834 1.6352 4 0.00298516 2 0 0.0994487 -0.0562601
52 1 14.3777 1.14948 1.47647 4 0.00479672 2 0 0.0994487 -0.0178229
53 1 14.8761 1.55337 0.662943 4 0.00645822 2 0 0.0994487 0.389957
54 1 15.7061 0.770636 0.788259 4 0.00693943 2 0 0.0994487 0.366489
55 1 16.5532 1.54451 0.681338 4 0.0119572 2 0 0.0994487 0.000812108
56 1 15.1422 0.4642 1.64149 4 0.00516935 2 0 0.0994487 0.15208
57 1 16.547 0.712289 1.3421 4 0.00960298 2 0 0.0994487 0.095631
58 1 15.6341 1.48544 1.3916 4 0.00832296 2 0 0.0994487 0.153637
59 1 15.1049 0.711806 0.0677822 4 0.00515467 2 0 0.0994487 0.169205
60 1 17.2544 0.732268 0.547589 4 0.0119122 2 0 0.0994487 0.0286329
61 1 17.9231 1.58109 0.757246 4 0.0177735 2 0 0.0994487 0.0415682
62 1 17.916 0.742935 1.42801 4 0.0146114 2 0 0.0994487 -0.224374
63 1 17.2202 1.74884 1.56274 4 0.0159719 2 0 0.0994487 -0.0984795
64 1 19.5372 0.0167772 0.662766 4 0.0159028 2 0 0.0994487 0.0436447
65 1 18.7918 0.725074 0.684829 4 0.0168139 2 0 0.0994487 -0.269943
66 1 19.5395 1.55488 0.841653 4 0.0236772 2 0 0.0994487 -0.341158
67 1 19.0276 0.158607 1.54508 4 0.0155719 2 0 0.0994487 -0.158663
68 1 19.5934 0.967491 1.68957 4 0.0198511 2 0 0.0994487 0.00835236
69 1 18.6564 1.51302 1.50035 4 0.0204283 2 0 0.0994487 -0.250304
70 1 21.0889 0.349843 1.06749 4 0.0202876 2 0 0.0994487 -0.196126
71 1 20.2493 0.776373 0.980057 4 0.0206889 2 0 0.0994487 -0.049759
72 1 21.1062 1.65725 0.951506 4 0.0276991 2 0 0.0994487 0.692918
73 1 21.1874 0.765598 0.218806 4 0.0215131 2 0 0.0994487 -0.0445904
74 1 20.3457 1.51479 0.193617 4 0.0251114 2 0 0.0994487 -0.0806017
75 1 22.0087 0.262534 0.539755 4 0.0203788 2 0 0.0994487 0.0993597
76 1 22.7913 0.430275 1.40734 4 0.0213334 2 0 0.0994487 0.2066
77 1 22.1105 1.14763 1.32981 4 0.0245107 2 0 0.0994487 0.240024
78 1 21.9982 1.59955 0.538558 4 0.0283329 2 0 0.0994487 0.185173
79 1 22.9157 1.07463 0.445168 4 0.024347 2 0 0.0994487 0.0520848
80 1 24.228 0.380179 1.45209 4 0.020699 2 0 0.0994487 0.0576167
81 1 23.5672 0.357563 0.57369 4 0.0210499 2 0 0.0994487 0.038571
82 1 24.4367 1.18687 0.754729 4 0.0247657 2 0 0.0994487 -0.0192965
83 1 23.4757 1.2499 1.4028 4 0.0262041 2 0 0.0994487 0.0298775
84 1 24.955 0.315686 0.551996 4 0.0189943 2 0 0.0994487 -0.0171991
85 1 26.0085 0.383365 1.1715 4 0.0162837 2 0 0.0994487 -0.18586
86 1 25.169 1.12579 1.48087 4 0.0227573 2 0 0.0994487 0.0251046
87 1 25.9301 1.73476 1.35794 4 0.0243699 2 0 0.0994487 0.0345349
88 1 25.8917 0.929212 0.432102 4 0.0186367 2 0 0.0994487 -0.0954204
89 1 27.5736 1.28032 0.38906 4 0.0141513 2 0 0.0994487 0.0454488
90 1 27.6142 0.50928 0.874321 4 0.0121124 2 0 0.0994487 0.175387
91 1 26.7559 1.02809 1.26347 4 0.0159262 2 0 0.0994487 -0.236888
92 1 28.3748 0.337482 1.39813 4 0.00959508 2 0 0.0994487 0.00984386
93 1 26.7925 0.240345 0.226621 4 0.0132611 2 0 0.0994487 0.0380745
94 1 28.6489 1.24263 0.742341 4 0.0109619 2 0 0.0994487 0.102405
95 1 29.3912 0.945639 1.56878 4 0.00826137 2 0 0.0994487 -0.0192012
96 1 28.5228 1.71921 1.49749 4 0.0125448 2 0 0.0994487 -0.0429816
97 1 29.8133 0.173958 1.46124 4 0.00650523 2 0 0.0994487 0.133416
98 1 29.2734 0.3547 0.615275 4 0.00748637 2 0 0.0994487 -0.0816815
99 1 31.5874 0.266128 1.25663 4 0.00410362 3 0 0.0994487 0.830097
100 1 30.7016 0.49015 0.470738 4 0.00559771 2 0 0.0994487 0.354852
101 1 30.1009 1.19877 0.774133 4 0.00755803 2 0 0.0994487 0.210919
102 1 30.8649 0.971942 1.39386 4 0.00609661 2 0 0.0994487 0.703281
103 1 1.11081 2.43607 0.129285 4 3.33075e-06 2 0 0.0994487 -0.0373217
104 1 0.133403 2.3821 0.812241 4 2.31735e-06 2 0 0.0994487 -0.984517
105 1 1.28845 3.23764 0.949187 4 5.42775e-06 2 0 0.0994487 0.2221
106 1 1.13977 2.36077 1.59162 4 3.75962e-06 2 0 0.0994487 -0.222188
107 1 0.386685 3.02999 1.54944 4 3.19787e-06 2 0 0.0994487 -0.671256
108 1 0.332248 3.09582 0.131296 4 2.9258e-06 2 0 0.0994487 -0.59134
109 1 1.90972 2.41867 0.78376 4 5.99197e-06 2 0 0.0994487 0.0782126
110 1 2.65852 3.28029 0.860875 4 1.43012e-05 2 0 0.0994487 0.0668085
111 1 2.66931 2.22918 1.53373 4 9.51679e-06 2 0 0.0994487 0.0829572
112 1 3.2579 3.42668 1.64938 4 2.26478e-05 2 0 0.0994487 0.00397772
113 1 2.7261 2.38168 0.0557193 4 8.78434e-06 2 0 0.0994487 0.146602
114 1 3.38195 2.55413 0.779289 4 1.77512e-05 2 0 0.0994487 0.211588
115 1 4.00679 1.841 0.711184 4 2.23436e-05 2 0 0.0994487 -0.0361186
116 1 4.91383 2.57277 0.815661 4 5.4003e-05 2 0 0.0994487 -0.259342
117 1 4.20148 3.3175 0.749446 4 4.30835e-05 2 0 0.0994487 0.00621996
118 1 4.13245 2.64107 1.58328 4 3.15272e-05 2 0 0.0994487 0.0270809
119 1 5.65047 2.44269 0.132743 4 8.12528e-05 2 0 0.0994487 -0.189923
120 1 6.55776 2.18062 0.772597 4 0.000132574 2 0 0.0994487 -0.289356
121 1 5.64874 3.19593 0.952489 4 0.000106917 2 0 0.0994487 -0.75462
122 1 5.861 2.19426 1.49672 4 8.45547e-05 2 0 0.0994487 0.0126394
123 1 6.52037 3.06691 1.5557 4 0.000170722 2 0 0.0994487 0.0443614
124 1 6.65033 2.92778 0.134227 4 0.000163236 2 0 0.0994487 0.0288898
125 1 7.45405 2.22586 0.139832 4 0.00022272 2 0 0.0994487 -0.0534987
126 1 8.08209 2.20208 0.930382 4 0.000325963 2 0 0.0994487 -0.302042
127 1 7.40132 3.06835 0.934051 4 0.00029751 2 0 0.0994487 -0.0454776
128 1 7.29928 2.06035 1.56856 4 0.000193543 2 0 0.0994487 -0.0607291
129 1 8.18545 3.00183 1.65211 4 0.000449794 2 0 0.0994487 -0.0454121
130 1 8.26934 2.9712 0.0392146 4 0.000465708 2 0 0.0994487 -0.150614
131 1 8.90393 2.08699 0.252387 4 0.000467923 2 0 0.0994487 0.00243775
132 1 9.77243 2.0246 1.10996 4 0.000734197 2 0 0.0994487 0.173481
133 1 8.92671 2.97262 0.928693 4 0.000685988 2 0 0.0994487 -0.156722
134 1 9.03062 2.22066 1.70398 4 0.000535511 2 0 0.0994487 -0.0819643
135 1 9.56096 2.90576 0.21312 4 0.000870974 2 0 0.0994487 0.173124
136 1 10.2834 2.1137 0.214297 4 0.000873477 2 0 0.0994487 0.337742
137 1 11.1583 1.82604 0.771092 4 0.00140954 2 0 0.0994487 0.260098
138 1 10.6214 2.80819 0.921535 4 0.00155105 2 0 0.0994487 0.541933
139 1 11.4444 2.82964 1.57484 4 0.00242753 2 0 0.0994487 0.095206
140 1 12.6737 1.94118 0.593851 4 0.00331524 2 0 0.0994487 -0.283926
141 1 11.928 2.64099 0.742299 4 0.00289775 2 0 0.0994487 -0.0386651
142 1 11.9239 1.9206 1.46509 4 0.0021883 2 0 0.0994487 0.0946606
143 1 12.8449 3.01766 1.68597 4 0.00497394 2 0 0.0994487 0.0363614
144 1 13.1791 3.03035 0.848852 4 0.00594592 2 0 0.0994487 -0.44084
145 1 13.3784 1.9912 1.48064 4 0.00435765 2 0 0.0994487 -0.0150654
146 1 14.0206 2.44438 0.927124 4 0.00669096 2 0 0.0994487 -0.133075
147 1 14.0279 3.38359 1.55716 4 0.00937703 2 0 0.0994487 0.0255796
148 1 14.6961 3.43698 0.884932 4 0.0124955 2 0 0.0994487 -0.332919
149 1 14.7823 2.29758 1.44821 4 0.00825587 2 0 0.0994487 0.0469317
150 1 14.8418 2.51505 0.136557 4 0.00900873 2 0 0.0994487 0.173009
151 1 14.1591 3.2262 0.0325348 4 0.00936691 2 0 0.0994487 -0.246102
152 1 13.4137 2.29398 0.0590902 4 0.00505867 2 0 0.0994487 -0.280958
153 1 15.6993 2.44373 0.692668 4 0.0121035 2 0 0.0994487 0.364403
154 1 16.3029 3.20095 0.662084 4 0.0193648 2 0 0.0994487 0.328596
155 1 16.308 2.47951 1.52575 4 0.015503 2 0 0.0994487 -0.100642
156 1 15.3694 3.25723 1.50191 4 0.0149224 2 0 0.0994487 -0.00766427
157 1 15.5706 3.25854 0.0192499 4 0.0144441 2 0 0.0994487 0.29024
158 1 17.0646 2.35032 0.682778 4 0.0184012 2 0 0.0994487 0.0234866
159 1 17.944 2.92608 0.699539 4 0.0296321 2 0 0.0994487 -0.231186
160 1 18.0193 2.43917 1.58112 4 0.0248423 2 0 0.0994487 -0.149131
161 1 17.0918 3.1162 1.49491 4 0.0251089 2 0 0.0994487 -0.143429
162 1 18.8908 2.35742 1.01358 4 0.028542 2 0 0.0994487 -0.516826
163 1 19.7027 3.2427 1.27782 4 0.0438178 2 0 0.0994487 0.394883
164 1 18.884 2.99607 0.196019 4 0.035952 2 0 0.0994487 -0.171808
165 1 19.587 2.34239 0.101452 4 0.0310368 2 0 0.0994487 -0.13237
166 1 20.3251 1.78863 1.72442 4 0.0265687 2 0 0.0994487 0.0449543
167 1 21.1565 2.41663 0.458355 4 0.0370479 2 0 0.0994487 0.196189
168 1 20.1948 2.46882 1.11433 4 0.0341351 2 0 0.0994487 0.286748
169 1 21.31 3.29463 1.39314 4 0.0558164 2 0 0.0994487 0.0777307
170 1 20.4222 2.99313 0.334941 4 0.0427411 2 0 0.0994487 0.186291
171 1 22.8719 2.07007 1.50872 4 0.0356922 2 0 0.0994487 -0.022123
172 1 22.9717 2.60199 0.735523 4 0.0464863 2 0 0.0994487 0.133327
173 1 22.0961 2.49917 1.23787 4 0.0422731 2 0 0.0994487 0.18644
174 1 21.9898 3.20043 0.598797 4 0.0582509 2 0 0.0994487 -0.0757483
175 1 22.6771 3.40124 0.07601 4 0.0651382 2 0 0.0994487 0.0760738
176 1 23.7438 1.80844 0.624025 4 0.0313682 2 0 0.0994487 -0.0873591
177 1 24.4289 1.98763 1.61102 4 0.032794 2 0 0.0994487 -0.0641758
178 1 24.342 2.68296 0.775192 4 0.043695 2 0 0.0994487 -0.341093
179 1 23.6887 2.90303 1.53628 4 0.0504572 2 0 0.0994487 -0.110505
180 1 24.4728 3.51078 1.55704 4 0.0624166 2 0 0.0994487 -0.118306
181 1 24.9562 2.84566 0.0146836 4 0.042037 2 0 0.0994487 -0.0864597
182 1 26.5483 1.79415 0.511367 4 0.0213253 2 0 0.0994487 -0.0056011
183 1 25.1322 1.85613 0.509414 4 0.029045 2 0 0.0994487 -0.0215295
184 1 25.7918 2.61203 0.707489 4 0.0354412 2 0 0.0994487 0.2282
185 1 25.1579 2.55548 1.52547 4 0.0381977 2 0 0.0994487 0.0576662
186 1 25.7213 3.49812 1.51211 4 0.0526187 2 0 0.0994487 0.123856
187 1 26.5364 2.56002 1.53049 4 0.0290623 2 0 0.0994487 0.0579465
188 1 26.1686 3.50068 0.599043 4 0.0479679 2 0 0.0994487 0.168843
189 1 27.5039 1.98546 1.23792 4 0.0177752 2 0 0.0994487 -0.18642
190 1 28.2489 2.09022 0.343734 4 0.0151068 2 0 0.0994487 -0.0177253
191 1 27.0867 2.6924 0.645359 4 0.0262327 2 0 0.0994487 -0.105602
192 1 27.1998 3.35397 1.41682 4 0.0330993 2 0 0.0994487 -0.0983302
193 1 28.2537 2.75799 1.20639 4 0.0189309 2 0 0.0994487 -0.418309
194 1 27.982 3.21993 0.326384 4 0.0238852 2 0 0.0994487 -0.125258
195 1 29.9568 1.80906 1.70764 4 0.00905832 2 0 0.0994487 0.183201
196 1 29.4477 2.04702 0.879698 4 0.0110787 2 0 0.0994487 -0.00708538
197 1 29.1956 2.6589 0.290703 4 0.0138875 2 0 0.0994487 -0.057829
198 1 29.2495 3.2651 1.17365 4 0.0168779 2 0 0.0994487 0.118631
199 1 30.9114 1.98502 0.924207 4 0.00829379 2 0 0.0994487 0.967251
200 1 30.1815 2.71094 1.00186 4 0.0112937 2 0 0.0994487 0.675111
201 1 31.0247 3.35309 0.97101 4 0.0117827 2 0 0.0994487 0.998409
202 1 30.9865 2.69483 1.72648 4 0.00982864 2 0 0.0994487 0.578502
203 1 30.1092 3.25953 0.132205 4 0.012749 2 0 0.0994487 -0.0443662
204 1 30.4116 1.90909 0.0255368 4 0.00838596 2 0 0.0994487 0.106045
205 1 31.1434 2.66402 0.0761253 4 0.00918311 2 0 0.0994487 0.70882
206 1 0.293831 3.78503 0.918557 4 3.94232e-06 2 0 0.0994487 -0.999347
207 1 0.143046 4.59443 0.482118 4 4.59253e-06 2 0 0.0994487 -0.784494
208 1 1.14036 4.67093 0.986638 4 8.23882e-06 2 0 0.0994487 -0.516746
209 1 0.0884667 5.26681 1.27761 4 5.53544e-06 2 0 0.0994487 -0.887458
210 1 1.04069 3.86421 0.0595682 4 5.30873e-06 2 0 0.0994487 0.0148886
211 1 1.84117 4.04604 0.847105 4 1.08254e-05 2 0 0.0994487 0.00827492
212 1 2.54049 4.85585 1.13748 4 2.29284e-05 2 0 0.0994487 -0.333842
213 1 2.64953 4.14475 0.20674 4 1.97091e-05 2 0 0.0994487 -0.0285706
214 1 1.89758 4.96895 0.278386 4 1.52634e-05 2 0 0.0994487 -0.153432
215 1 3.40771 4.86189 0.161635 4 4.15148e-05 2 0 0.0994487 -0.016386
216 1 3.494 4.07675 0.885909 4 3.4593e-05 2 0 0.0994487 0.0269019
217 1 4.91235 4.00001 1.18344 4 8.80782e-05 2 0 0.0994487 0.011526
218 1 4.04658 4.88002 1.14639 4 6.50674e-05 2 0 0.0994487 0.264496
219 1 4.26027 4.18509 0.149001 4 5.94366e-05 2 0 0.0994487 0.0377403
220 1 5.00947 4.74001 0.341082 4 0.000118824 2 0 0.0994487 0.0765437
221 1 5.77735 3.9378 0.198707 4 0.000137688 2 0 0.0994487 0.0260181
222 1 6.48883 3.76611 0.772067 4 0.000212913 2 0 0.0994487 0.204562
223 1 5.68025 4.73638 1.02487 4 0.000189972 2 0 0.0994487 -0.621657
224 1 6.66321 4.5115 1.6428 4 0.000305301 2 0 0.0994487 0.158937
225 1 6.68072 5.1315 0.885352 4 0.000403288 2 0 0.0994487 0.206875
226 1 8.1982 3.892 0.700757 4 0.000663789 2 0 0.0994487 -0.369891
227 1 7.40842 4.46072 0.5468 4 0.000502576 2 0 0.0994487 -0.0252068
228 1 7.39886 3.87029 1.49684 4 0.000390846 2 0 0.0994487 0.102583
229 1 8.20004 4.61106 1.48677 4 0.000846278 2 0 0.0994487 -0.0118316
230 1 9.8976 3.57792 0.885667 4 0.00145405 2 0 0.0994487 0.592853
231 1 9.07913 4.56551 0.821335 4 0.00136974 2 0 0.0994487 -0.658521
232 1 9.86266 4.50302 0.126324 4 0.00183346 2 0 0.0994487 0.0958693
233 1 9.07829 3.76256 1.49819 4 0.00101967 2 0 0.0994487 -0.0708806
234 1 9.86881 4.3462 1.65532 4 0.00193046 2 0 0.0994487 -0.0856579
235 1 8.98541 3.86821 0.0631775 4 0.00096774 2 0 0.0994487 -0.13875
236 1 11.408 3.64493 0.778297 4 0.00326149 2 0 0.0994487 0.202076
237 1 10.5891 4.66652 0.906264 4 0.00309142 2 0 0.0994487 0.0451132
238 1 11.3867 4.69403 0.230734 4 0.00465907 2 0 0.0994487 -0.0498846
239 1 10.7059 3.56689 1.58785 4 0.0022313 2 0 0.0994487 -0.0448436
240 1 11.3652 4.3716 1.70545 4 0.00414006 2 0 0.0994487 -0.0798224
241 1 11.3894 5.27213 0.983682 4 0.0056798 2 0 0.0994487 -0.674457
242 1 10.5826 3.84888 0.176129 4 0.00217031 2 0 0.0994487 0.21047
243 1 12.5168 3.57716 0.814749 4 0.0054483 2 0 0.0994487 -0.0105666
244 1 12.1916 4.55033 1.00021 4 0.00657357 2 0 0.0994487 0.105085
245 1 12.7362 4.99738 1.68903 4 0.0091985 2 0 0.0994487 0.191335
246 1 13.2258 4.67863 0.80017 4 0.0110251 2 0 0.0994487 -0.004676
247 1 12.6435 4.61885 0.0632315 4 0.00842276 2 0 0.0994487 -0.0335762
248 1 13.9891 4.12825 0.69648 4 0.012645 2 0 0.0994487 -0.430167
249 1 13.4832 4.21781 1.59317 4 0.0100883 2 0 0.0994487 0.0820233
250 1 14.2046 5.11838 1.52001 4 0.0190083 2 0 0.0994487 -0.0289849
251 1 14.9402 5.01141 0.811699 4 0.0243126 2 0 0.0994487 -0.0526008
252 1 14.9642 4.4167 1.59432 4 0.0199397 2 0 0.0994487 -0.0635577
253 1 14.1405 4.90647 0.0597868 4 0.0172293 2 0 0.0994487 -0.0856903
254 1 14.961 4.19423 0.096508 4 0.0176406 2 0 0.0994487 0.0322762
255 1 15.6685 4.06642 0.926277 4 0.0221134 2 0 0.0994487 0.872616
256 1 15.8798 4.77595 0.186426 4 0.0302353 2 0 0.0994487 0.165395
257 1 16.5936 4.58036 0.900182 4 0.0367512 2 0 0.0994487 -0.0789435
258 1 16.3184 3.95875 1.6903 4 0.026759 2 0 0.0994487 -0.0433929
259 1 15.8111 5.05317 1.64084 4 0.0327633 2 0 0.0994487 0.0995035
260 1 17.2689 3.83372 0.811237 4 0.0348275 2 0 0.0994487 -0.345377
261 1 18.0864 4.48855 1.09806 4 0.0529823 2 0 0.0994487 -0.612118
262 1 17.9525 3.63794 1.65602 4 0.0381321 2 0 0.0994487 -0.192802
263 1 17.4569 4.57727 0.0147963 4 0.0451601 2 0 0.0994487 -0.097408
264 1 18.1348 3.8547 0.0583493 4 0.0419059 2 0 0.0994487 -0.120516
265 1 18.8779 3.70667 0.95022 4 0.0463137 2 0 0.0994487 0.0692497
266 1 18.8235 4.60949 0.361826 4 0.0624077 2 0 0.0994487 0.115612
267 1 19.6906 4.67872 1.0803 4 0.0816209 2 0 0.0994487 0.931517
268 1 18.7859 5.27693 1.20102 4 0.0847038 2 0 0.0994487 0.5991
269 1 19.5987 3.76722 0.227421 4 0.0520318 2 0 0.0994487 0.164271
270 1 20.4384 3.82188 1.23329 4 0.0638273 2 0 0.0994487 0.325957
271 1 20.8846 4.71868 1.39403 4 0.108277 2 0 0.0994487 0.149061
272 1 21.5775 4.95128 0.810455 4 0.138658 2 0 0.0994487 -0.0037482
273 1 21.0824 3.93136 0.512408 4 0.0739994 2 0 0.0994487 0.0883048
274 1 20.1339 4.78559 0.352846 4 0.0932045 2 0 0.0994487 0.145589
275 1 22.8205 3.63186 1.42135 4 0.073317 2 0 0.0994487 -0.0183997
276 1 21.9406 4.13318 1.31068 4 0.0915996 2 0 0.0994487 0.0272051
277 1 22.4705 5.17735 1.27286 4 0.163805 2 0 0.0994487 0.0207048
278 1 22.6119 4.34705 0.510028 4 0.104116 2 0 0.0994487 -0.0221064
279 1 23.5735 3.63903 0.782677 4 0.0735488 2 0 0.0994487 0.185557
280 1 24.336 4.32055 0.625018 4 0.0964786 2 0 0.0994487 -0.150096
281 1 23.4679 4.54946 1.33355 4 0.115905 2 0 0.0994487 -0.0790573
282 1 24.8518 5.25716 0.566763 4 0.134982 2 0 0.0994487 0.0409029
283 1 23.5518 5.06386 0.533607 4 0.148185 2 0 0.0994487 -0.0968912
284 1 25.0086 4.50055 1.62342 4 0.0938028 2 0 0.0994487 -0.0421968
285 1 25.0629 3.68037 0.802132 4 0.0636583 2 0 0.0994487 -0.187921
286 1 24.363 5.28843 1.43377 4 0.150108 2 0 0.0994487 -0.154714
287 1 25.6904 5.1389 1.34266 4 0.108989 2 0 0.0994487 0.210096
288 1 26.3575 4.29031 1.37159 4 0.0641981 2 0 0.0994487 0.149479
289 1 26.5026 4.97257 0.640732 4 0.0808014 2 0 0.0994487 0.0989636
290 1 25.5284 4.40089 0.388179 4 0.0804174 2 0 0.0994487 0.0559458
291 1 27.3302 4.86961 1.40568 4 0.0606494 2 0 0.0994487 0.00660721
292 1 27.9624 3.97641 1.10408 4 0.0333795 2 0 0.0994487 -0.309509
293 1 28.2771 4.73475 0.706344 4 0.0417241 2 0 0.0994487 -0.0812503
294 1 27.0674 4.04323 0.570038 4 0.0464998 2 0 0.0994487 0.01202
295 1 28.9321 3.77016 0.487204 4 0.0221419 2 0 0.0994487 -0.0070339
296 1 29.0873 4.52317 1.33085 4 0.0287852 2 0 0.0994487 0.0574839
297 1 29.9979 4.07209 1.02303 4 0.0180032 2 0 0.0994487 -0.275233
298 1 31.0296 3.97382 0.373364 4 0.0139086 2 0 0.0994487 0.657583
299 1 30.2046 4.67765 0.491317 4 0.021504 2 0 0.0994487 0.00995744
300 1 30.9783 4.59929 1.41131 4 0.0173016 2 0 0.0994487 0.679913
301 1 0.908283 5.53205 0.461647 4 9.63782e-06 2 0 0.0994487 -0.463784
302 1 1.53161 5.51184 1.37971 4 1.37752e-05 2 0 0.0994487 -0.117386
303 1 0.793684 6.22023 1.2768 4 1.12112e-05 2 0 0.0994487 -0.70338
304 1 0.257003 6.91734 1.50738 4 1.01787e-05 2 0 0.0994487 -0.772633
305 1 0.969942 6.9454 0.573423 4 1.54098e-05 2 0 0.0994487 -0.473532
306 1 1.7053 7.02884 1.23811 4 2.3522e-05 2 0 0.0994487 0.0665198
307 1 1.89588 6.19966 0.519025 4 2.20672e-05 2 0 0.0994487 -0.156398
308 1 3.10475 5.61709 1.30057 4 4.18807e-05 2 0 0.0994487 0.0402554
309 1 2.26359 6.15348 1.40977 4 2.64439e-05 2 0 0.0994487 0.0408575
310 1 3.25442 6.96226 1.12748 4 7.40674e-05 2 0 0.0994487 -0.05412
311 1 2.68177 5.61289 0.273587 4 3.16756e-05 2 0 0.0994487 -0.0596838
312 1 3.39503 6.28191 0.500536 4 6.81526e-05 2 0 0.0994487 -0.12144
313 1 4.18979 5.46246 0.325783 4 8.84731e-05 2 0 0.0994487 0.031021
314 1 4.93434 5.42873 1.31778 4 0.000155645 2 0 0.0994487 -0.235095
315 1 4.13622 6.09659 1.22779 4 0.000110053 2 0 0.0994487 -0.0893849
316 1 4.82567 6.23357 0.333842 4 0.000177984 2 0 0.0994487 -0.0345722
317 1 4.77312 6.79931 1.15967 4 0.000214222 2 0 0.0994487 -0.305925
318 1 4.00267 7.02511 0.221759 4 0.00012607 2 0 0.0994487 -0.0853413
319 1 5.78575 5.42185 0.301847 4 0.000248838 2 0 0.0994487 0.0125058
320 1 5.6935 6.24342 0.9632 4 0.00032061 2 0 0.0994487 -0.967783
321 1 6.4578 5.98425 1.59671 4 0.000459561 2 0 0.0994487 0.140918
322 1 6.43234 6.86927 1.00965 4 0.000617874 2 0 0.0994487 0.851685
323 1 6.37773 6.04115 0.154639 4 0.00040846 2 0 0.0994487 0.111115
324 1 5.54993 7.05206 0.147147 4 0.000343613 2 0 0.0994487 0.0363893
325 1 8.21355 5.31419 0.694273 4 0.00110428 2 0 0.0994487 -0.0895795
326 1 7.32761 6.15925 0.754293 4 0.000842319 2 0 0.0994487 0.225742
327 1 7.39163 5.41839 1.49138 4 0.000678036 2 0 0.0994487 0.136759
328 1 8.23884 6.11028 1.49159 4 0.00147028 2 0 0.0994487 0.0187434
329 1 8.01352 6.85364 0.728993 4 0.00165508 2 0 0.0994487 0.0691969
330 1 7.28191 6.86379 1.59601 4 0.00108685 2 1 0.0994487 0.126051
331 1 7.33029 5.3575 0.0461812 4 0.000591704 2 0 0.0994487 0.0813597
332 1 9.76796 5.3194 0.792562 4 0.0025012 2 0 0.0994487 0.328464
333 1 8.88016 6.18865 0.736908 4 0.00217596 2 0 0.0994487 -0.235529
334 1 9.05434 5.3271 1.5973 4 0.00176531 2 0 0.0994487 -0.0628264
335 1 9.73844 6.19052 1.46731 4 0.00348482 2 0 0.0994487 -0.10644
336 1 9.09351 6.95013 1.463 4 0.00329784 2 2 0.0994487 -0.0758349
337 1 9.76329 6.23201 0.0941385 4 0.00334486 2 0 0.0994487 -0.0359476
338 1 8.99733 5.46479 0.012702 4 0.00171249 2 0 0.0994487 -0.134751
339 1 10.5831 6.02196 0.964384 4 0.00492784 2 0 0.0994487 -0.356388
340 1 11.3128 6.37134 0.0776634 4 0.0068987 2 0 0.0994487 0.100344
341 1 10.5187 6.94145 0.15452 4 0.00597769 2 0 0.0994487 -0.0735318
342 1 10.4686 6.92564 1.49614 4 0.0064668 2 1 0.0994487 -0.0634405
343 1 11.9994 5.6274 0.183157 4 0.00792483 2 0 0.0994487 -0.0105268
344 1 12.6757 5.81849 0.861776 4 0.0120354 2 0 0.0994487 0.0817647
345 1 11.7774 6.20735 1.05291 4 0.00887253 2 0 0.0994487 0.292233
346 1 13.3219 5.86668 1.55471 4 0.0160037 2 0 0.0994487 0.208173
347 1 13.3506 6.58297 0.813679 4 0.0217221 2 0 0.0994487 -0.292097
348 1 13.3212 5.53867 0.0424813 4 0.0148009 2 0 0.0994487 -0.142906
349 1 14.0617 5.71565 0.77266 4 0.0219298 2 0 0.0994487 -0.372615
350 1 14.3278 6.65176 1.40646 4 0.0351167 2 1 0.0994487 -0.103121
351 1 14.1303 6.38483 0.0380077 4 0.0261845 2 0 0.0994487 -0.082607
352 1 15.0282 5.64393 0.034369 4 0.0298511 2 0 0.0994487 0.0573679
353 1 15.8305 5.73813 0.95832 4 0.0434794 2 0 0.0994487 0.625804
354 1 15.0472 6.45091 0.806774 4 0.0420796 2 0 0.0994487 -0.176032
355 1 16.491 6.45257 1.1401 4 0.0725621 2 0 0.0994487 0.208302
356 1 15.1058 5.87594 1.69804 4 0.0365488 2 0 0.0994487 -0.0976535
357 1 16.62 5.41933 0.276819 4 0.0484795 2 0 0.0994487 0.0799262
358 1 15.6753 6.3382 0.0390223 4 0.0476078 2 0 0.0994487 0.0398555
359 1 17.8271 5.30128 0.541411 4 0.0650568 2 0 0.0994487 0.150331
360 1 17.113 5.42499 1.24767 4 0.0585773 2 0 0.0994487 -0.286566
361 1 17.0619 6.27419 0.411469 4 0.0771863 2 0 0.0994487 0.138955
362 1 17.6649 6.24649 1.38542 4 0.0946047 2 0 0.0994487 -0.254592
363 1 18.2745 7.0517 1.13153 4 0.147866 2 0 0.0994487 0.638175
364 1 18.3714 6.23173 0.609762 4 0.112188 2 0 0.0994487 0.156185
365 1 19.429 5.75829 0.62055 4 0.123408 2 0 0.0994487 0.0571897
366 1 19.3279 6.55755 1.35081 4 0.168399 2 0 0.0994487 0.275287
367 1 19.9942 6.75229 0.610261 4 0.227312 2 0 0.0994487 -0.0120756
368 1 20.7494 5.77593 0.653722 4 0.178768 2 0 0.0994487 -0.104062
369 1 20.1931 5.61076 1.39557 4 0.142449 2 0 0.0994487 0.312034
370 1 20.7787 6.6124 1.30355 3 0.275056 2 0 0.0992925 -0.34414
371 1 21.6592 6.66248 0.666524 3 0.295455 2 0 0.0991332 -0.0434666
372 1 21.6631 5.87866 1.38528 4 0.226717 2 0 0.0994487 0.0420266
373 1 21.6904 5.73259 0.0517844 4 0.194957 2 0 0.0994487 -0.00150157
374 1 22.6732 5.8279 0.674154 4 0.219068 2 0 0.0994487 0.00265318
375 1 22.6319 6.69333 1.20734 3 0.329427 2 0 0.0987852 -0.201659
376 1 23.3484 6.78052 0.267835 3 0.300415 2 0 0.0990894 -0.125378
377 1 23.4822 5.88496 1.30013 4 0.224273 2 0 0.0994487 -0.176378
378 1 24.3197 6.56281 1.15825 3 0.253547 2 0 0.099429 0.17358
379 1 24.1457 6.00685 0.427617 4 0.208035 2 0 0.0994487 0.00243409
380 1 25.6831 5.86213 0.700952 4 0.143803 2 0 0.0994487 0.163892
381 1 25.1124 6.04132 1.67733 4 0.175695 2 0 0.0994487 0.00366529
382 1 25.1593 6.74159 0.495153 4 0.217338 2 0 0.0994487 0.0903861
383 1 25.8251 6.59457 1.40775 4 0.176852 2 0 0.0994487 0.0880958
384 1 26.6903 5.84511 1.4763 4 0.108901 2 0 0.0994487 0.091758
385 1 27.4966 5.54334 0.722172 4 0.0726889 2 0 0.0994487 -0.251577
386 1 26.7485 6.36567 0.651888 4 0.12579 2 0 0.0994487 0.038746
387 1 27.7011 6.47315 1.36539 4 0.0943507 2 0 0.0994487 0.131489
388 1 28.3648 5.52203 1.4872 4 0.0537717 2 0 0.0994487 0.0456316
389 1 27.7097 7.0074 0.530173 4 0.107538 2 0 0.0994487 0.0321197
390 1 29.3889 5.30889 0.818726 4 0.0358262 2 0 0.0994487 0.316723
391 1 29.4379 6.18214 1.32212 4 0.0447373 2 0 0.0994487 -0.00338245
392 1 29.5784 6.89773 0.506505 4 0.0515678 2 0 0.0994487 0.0925848
393 1 28.4685 6.20589 0.638647 4 0.0628389 2 0 0.0994487 -0.270085
394 1 29.3762 6.15398 0.0801838 4 0.044808 2 0 0.0994487 0.0969256
395 1 28.4822 5.38976 0.0592959 4 0.0473883 2 0 0.0994487 -0.105004
396 1 30.9636 5.36838 0.595026 4 0.0238117 2 0 0.0994487 0.667849
397 1 30.2159 5.45949 1.46813 4 0.028191 2 0 0.0994487 0.0540207
398 1 30.3958 6.18258 0.649752 4 0.0340202 2 0 0.0994487 0.328999
399 1 31.2189 6.15516 1.38439 4 0.0277093 2 0 0.0994487 0.587258
400 1 31.1994 6.95407 0.60342 4 0.0342764 2 0 0.0994487 0.812251
401 1 31.7235 5.99622 0.446564 4 0.02457 2 0 0.0994487 0.879729
402 1 0.261851 7.63199 0.661866 4 1.27882e-05 2 0 0.0994487 -0.876373
403 1 0.831025 8.46344 0.61936 4 1.94673e-05 2 0 0.0994487 -0.577625
404 1 1.11211 7.86396 1.49711 4 1.93331e-05 2 0 0.0994487 -0.154428
405 1 0.356955 8.5626 1.47035 4 1.5408e-05 2 0 0.0994487 -0.764984
406 1 1.59266 7.76478 0.37187 4 2.66836e-05 2 0 0.0994487 -0.0897868
407 1 1.72382 8.61735 1.46471 4 3.35347e-05 2 0 0.0994487 0.0395983
408 1 2.48799 7.14986 0.476331 4 4.48719e-05 2 0 0.0994487 -0.0836934
409 1 2.19177 8.6335 0.399707 4 4.88674e-05 2 0 0.0994487 -0.137266
410 1 2.39416 7.81099 1.27726 4 4.71965e-05 2 0 0.0994487 0.0869945
411 1 3.01349 8.51445 0.935533 4 8.71913e-05 2 0 0.0994487 -0.539305
412 1 3.24418 7.77117 0.327041 4 8.90696e-05 2 0 0.0994487 -0.196202
413 1 3.81243 8.45898 0.0822892 4 0.000140482 2 0 0.0994487 -0.0457766
414 1 3.97971 7.67009 1.24863 4 0.000145738 2 0 0.0994487 -0.0554857
415 1 4.70459 8.25653 0.921772 4 0.000266997 2 0 0.0994487 0.295358
416 1 4.67023 7.63706 0.247803 4 0.000222487 2 0 0.0994487 0.0376953
417 1 3.81127 8.34851 1.76162 4 0.000140514 2 0 0.0994487 -0.0574344
418 1 5.86955 8.34822 0.169905 4 0.000557046 2 0 0.0994487 0.113108
419 1 5.48363 7.59071 1.03232 4 0.000412737 2 0 0.0994487 -0.46765
420 1 6.49365 7.53799 0.169175 4 0.000715158 2 0 0.0994487 0.187627
421 1 6.39674 8.23976 1.04384 4 0.000886448 2 0 0.0994487 0.338169
422 1 7.28583 7.76918 0.746313 4 0.00143213 2 1 0.0994487 0.00994858
423 1 8.2859 8.31376 0.868772 4 0.00305541 2 2 0.0994487 0.278729
424 1 7.27857 8.18368 1.7015 4 0.00178614 2 2 0.0994487 -0.174705
425 1 8.05208 7.48784 1.5604 4 0.00218403 2 1 0.0994487 0.185097
426 1 7.99895 7.60312 0.0282118 4 0.00185734 2 0 0.0994487 0.0674161
427 1 9.84313 7.22199 0.72344 4 0.0051438 2 1 0.0994487 -0.346914
428 1 8.91207 7.61626 0.661731 4 0.00347271 2 1 0.0994487 0.158674
429 1 9.73234 8.61964 0.693151 4 0.00716355 2 3 0.0994487 -0.257194
430 1 9.09265 8.69904 1.44495 4 0.00583983 2 9 0.0994487 -0.394436
431 1 9.64026 7.88932 1.60055 4 0.00645689 2 8 0.0994487 -0.340315
432 1 11.3161 7.14287 0.810636 4 0.0095757 2 1 0.0994487 0.448589
433 1 10.5731 7.9454 0.844311 4 0.00891685 2 3 0.0994487 -0.198247
434 1 10.5877 8.70196 1.4255 4 0.0113366 1 8 0.0994487 -0.146211
435 1 11.4057 7.80503 1.60301 4 0.0134736 2 7 0.0994487 0.228378
436 1 11.227 8.11851 0.0422735 4 0.0108302 2 0 0.0994487 0.174338
437 1 12.7061 7.28322 0.565784 4 0.0202859 2 0 0.0994487 -0.053132
438 1 12.178 8.23518 0.590765 4 0.0196059 2 2 0.0994487 0.163946
439 1 12.0637 7.15788 1.37768 4 0.0144997 2 3 0.0994487 0.145652
440 1 12.0887 8.68064 1.49044 4 0.0231116 1 8 0.0994487 0.0815655
441 1 12.8601 7.99585 1.47598 4 0.0292313 2 6 0.0994487 -0.217058
442 1 14.3373 7.3542 0.580954 4 0.0412986 2 0 0.0994487 0.0649077
443 1 13.6169 8.09282 0.464536 4 0.0368057 2 2 0.0994487 0.0237662
444 1 13.458 7.34024 1.34133 4 0.0305995 2 2 0.0994487 0.0544804
445 1 14.2471 8.18371 1.35246 4 0.0544717 2 5 0.0994487 0.0236665