ITEM: TIMESTEP
40500
ITEM: NUMBER OF ATOMS
9495
ITEM: BOX BOUNDS mm mm mm
0.0000000000000000e+00 3.1748021039364001e+01
0.0000000000000000e+00 3.1748021039364001e+01
-7.4072398406925706e-04 3.1748021039364001e+01
ITEM: ATOMS id type x y z c_phase c_temp c_surf c_nbond c_visc f_3[1]
1 1 0.116341 1.10259 0.464337 4 0.000224448 2 0 0.0994487 -0.68194
2 1 0.974108 1.6685 0.77798 4 0.000314239 2 0 0.0994487 -0.517032
3 1 0.714648 0.793562 1.41295 4 0.000249817 2 0 0.0994487 -0.281794
4 1 0.00336375 1.60273 1.37437 4 0.000242645 2 0 0.0994487 -0.804051
5 1 0.729896 0.0633724 0.61602 4 0.000208913 3 0 0.0994487 -0.190374
6 1 1.71015 0.808983 1.0155 4 0.000362876 2 0 0.0994487 -0.332069
7 1 1.80059 1.47468 0.221075 4 0.000389994 2 0 0.0994487 -0.125829
8 1 1.82015 1.66049 1.76126 4 0.000415245 2 0 0.0994487 -0.139533
9 1 2.52093 0.749102 0.203812 4 0.000462922 2 0 0.0994487 -0.142939
10 1 2.59149 0.0538711 1.03726 4 0.000460087 2 0 0.0994487 -0.295004
11 1 2.64922 1.541 0.882848 4 0.000556888 2 0 0.0994487 0.235756
12 1 2.66829 0.815502 1.7457 4 0.000509845 2 0 0.0994487 -0.18704
13 1 3.43386 0.933692 0.956349 4 0.000711923 2 0 0.0994487 0.320242
14 1 3.49924 0.0925696 1.70571 4 0.000605717 2 0 0.0994487 0.178053
15 1 3.60652 1.70798 1.71994 4 0.000869011 2 0 0.0994487 0.0487951
16 1 4.10576 0.858321 0.325305 4 0.000945677 2 0 0.0994487 0.153146
17 1 4.96159 0.56786 1.17466 4 0.00145815 2 0 0.0994487 -0.037067
18 1 4.91949 1.59987 0.383508 4 0.00164047 2 0 0.0994487 -0.100248
19 1 4.3472 0.941527 1.62884 4 0.00109244 2 0 0.0994487 0.110738
20 1 3.47612 0.111428 0.171027 4 0.000584215 2 0 0.0994487 0.166215
21 1 5.64741 0.645627 0.325839 4 0.00199287 2 0 0.0994487 -0.0806047
22 1 5.88414 1.31048 0.938036 4 0.00238003 2 0 0.0994487 -0.199584
23 1 6.57478 1.39104 0.218369 4 0.00317576 2 0 0.0994487 -0.0861334
24 1 5.78374 0.460658 1.69897 4 0.00202612 2 0 0.0994487 -0.0846524
25 1 5.03122 1.72414 1.43602 4 0.00172095 2 0 0.0994487 0.0453722
26 1 6.7138 0.39031 0.865278 4 0.00299624 2 0 0.0994487 -0.0793817
27 1 6.69104 1.00962 1.69374 4 0.00308623 2 0 0.0994487 -0.107923
28 1 8.2679 0.408875 1.07337 4 0.00514112 2 0 0.0994487 -0.100166
29 1 7.36782 1.22285 0.954198 4 0.00417228 2 0 0.0994487 -0.302551
30 1 8.24709 1.39092 0.236779 4 0.00578933 2 0 0.0994487 -0.046064
31 1 8.12868 1.27217 1.60653 4 0.00535391 2 0 0.0994487 -0.00811672
32 1 7.58247 0.647807 0.140287 4 0.00420581 2 0 0.0994487 -0.110936
33 1 8.85849 0.508506 0.273966 4 0.00628684 2 0 0.0994487 -0.0616461
34 1 9.55301 0.3386 0.888639 4 0.00769938 2 0 0.0994487 0.00506425
35 1 9.02586 1.30716 1.1133 4 0.007417 2 0 0.0994487 -0.0606445
37 1 9.63995 1.37474 0.0900752 4 0.00874031 2 0 0.0994487 0.0992915
38 1 11.2128 0.215893 0.632658 4 0.0128498 2 0 0.0994487 0.203504
39 1 10.3637 1.04743 0.823114 4 0.0107608 2 0 0.0994487 0.539886
40 1 10.523 0.196295 1.44539 4 0.0102832 2 0 0.0994487 0.0644289
41 1 11.2856 1.01846 1.41785 4 0.0150087 2 0 0.0994487 0.164708
42 1 10.5797 1.67706 1.72992 4 0.0130906 2 0 0.0994487 0.118164
43 1 10.2431 0.367861 0.0780499 4 0.00898252 2 0 0.0994487 0.149801
44 1 12.8757 0.211714 0.636805 4 0.0228447 2 0 0.0994487 0.0587883
45 1 12.0457 1.07408 0.506655 4 0.0199394 2 0 0.0994487 -0.0235505
46 1 12.1319 0.316439 1.29957 4 0.0185198 2 0 0.0994487 0.0188372
47 1 12.7194 1.19864 1.3723 4 0.0252158 2 0 0.0994487 -0.0305264
48 1 14.3729 0.318493 0.764646 4 0.0347452 2 0 0.0994487 -0.0460375
49 1 13.5924 1.113 0.843618 4 0.0322479 2 0 0.0994487 -0.26305
50 1 14.0399 1.55958 0.167469 4 0.0386596 2 0 0.0994487 -0.0898243
51 1 13.6075 0.359834 1.6352 4 0.0286006 2 0 0.0994487 -0.0562627
52 1 14.3777 1.14948 1.47647 4 0.0378444 2 0 0.0994487 -0.0178263
53 1 14.8761 1.55337 0.662943 4 0.0451773 2 0 0.0994487 0.38995
54 1 15.7061 0.770636 0.788259 4 0.0476702 2 0 0.0994487 0.366485
55 1 16.5532 1.54451 0.681338 4 0.0661808 2 0 0.0994487 0.000808286
56 1 15.1422 0.4642 1.64149 4 0.0401982 2 0 0.0994487 0.152078
57 1 16.547 0.712289 1.3421 4 0.0584778 2 0 0.0994487 0.0956282
58 1 15.6341 1.48544 1.3916 4 0.0527625 2 0 0.0994487 0.153633
59 1 15.1049 0.711806 0.0677822 4 0.0402269 2 0 0.0994487 0.169203
60 1 17.2544 0.732268 0.547589 4 0.0672701 2 0 0.0994487 0.0286315
61 1 17.9231 1.58109 0.757246 4 0.0846382 2 0 0.0994487 0.0415663
62 1 17.916 0.742935 1.42801 4 0.0763169 2 0 0.0994487 -0.224374
63 1 17.2202 1.74884 1.56274 4 0.0791518 2 0 0.0994487 -0.0984814
64 1 19.5372 0.0167772 0.662766 4 0.0813564 2 0 0.0994487 0.0436447
65 1 18.7918 0.725074 0.684829 4 0.083155 2 0 0.0994487 -0.269943
66 1 19.5395 1.55488 0.841653 4 0.0999938 2 0 0.0994487 -0.341157
67 1 19.0276 0.158607 1.54508 4 0.080338 2 0 0.0994487 -0.158663
68 1 19.5934 0.967491 1.68957 4 0.0909676 2 0 0.0994487 0.00835252
69 1 18.6564 1.51302 1.50035 4 0.092141 2 0 0.0994487 -0.250304
70 1 21.0889 0.349843 1.06749 4 0.0917148 2 0 0.0994487 -0.196125
71 1 20.2493 0.776373 0.980057 4 0.0928394 2 0 0.0994487 -0.0497576
72 1 21.1062 1.65725 0.951506 4 0.107796 2 0 0.0994487 0.692923
73 1 21.1874 0.765598 0.218806 4 0.0944675 2 0 0.0994487 -0.0445894
74 1 20.3457 1.51479 0.193617 4 0.103042 2 0 0.0994487 -0.0806007
75 1 22.0087 0.262534 0.539755 4 0.0914229 2 0 0.0994487 0.0993606
76 1 22.7913 0.430275 1.40734 4 0.0927365 2 0 0.0994487 0.206601
77 1 22.1105 1.14763 1.32981 4 0.10008 2 0 0.0994487 0.240027
78 1 21.9982 1.59955 0.538558 4 0.108181 2 0 0.0994487 0.185175
79 1 22.9157 1.07463 0.445168 4 0.0988595 2 0 0.0994487 0.0520866
80 1 24.228 0.380179 1.45209 4 0.0892282 2 0 0.0994487 0.0576181
81 1 23.5672 0.357563 0.57369 4 0.0910411 2 0 0.0994487 0.0385725
82 1 24.4367 1.18687 0.754729 4 0.0973464 2 0 0.0994487 -0.0192923
83 1 23.4757 1.2499 1.4028 4 0.101939 2 0 0.0994487 0.0298801
84 1 24.955 0.315686 0.551996 4 0.0839136 2 0 0.0994487 -0.0171972
85 1 26.0085 0.383365 1.1715 4 0.0752765 2 0 0.0994487 -0.185858
86 1 25.169 1.12579 1.48087 4 0.0917007 2 0 0.0994487 0.025107
87 1 25.9301 1.73476 1.35794 4 0.0936992 2 0 0.0994487 0.0345388
88 1 25.8917 0.929212 0.432102 4 0.0810085 2 0 0.0994487 -0.0954179
89 1 27.5736 1.28032 0.38906 4 0.0679654 2 0 0.0994487 0.0454503
90 1 27.6142 0.50928 0.874321 4 0.062815 2 0 0.0994487 0.175389
91 1 26.7559 1.02809 1.26347 4 0.0731278 2 0 0.0994487 -0.236883
92 1 28.3748 0.337482 1.39813 4 0.0551543 2 0 0.0994487 0.00984533
93 1 26.7925 0.240345 0.226621 4 0.0668933 2 0 0.0994487 0.0380755
94 1 28.6489 1.24263 0.742341 4 0.0587901 2 0 0.0994487 0.102407
95 1 29.3912 0.945639 1.56878 4 0.0507322 2 0 0.0994487 -0.0192
96 1 28.5228 1.71921 1.49749 4 0.0631605 2 0 0.0994487 -0.0429796
97 1 29.8133 0.173958 1.46124 4 0.0450685 2 0 0.0994487 0.133416
98 1 29.2734 0.3547 0.615275 4 0.0483177 2 0 0.0994487 -0.0816806
99 1 31.5874 0.266128 1.25663 4 0.035873 3 0 0.0994487 0.830097
100 1 30.7016 0.49015 0.470738 4 0.0418295 2 0 0.0994487 0.354852
101 1 30.1009 1.19877 0.774133 4 0.0485954 2 0 0.0994487 0.210921
102 1 30.8649 0.971942 1.39386 4 0.0436094 2 0 0.0994487 0.703282
103 1 1.11081 2.43607 0.129285 4 0.000352429 2 0 0.0994487 -0.0373222
104 1 0.133403 2.3821 0.812241 4 0.000292706 2 0 0.0994487 -0.984517
105 1 1.28845 3.23764 0.949187 4 0.000462592 2 0 0.0994487 0.222092
106 1 1.13977 2.36077 1.59162 4 0.000374613 2 0 0.0994487 -0.222189
107 1 0.386685 3.02999 1.54944 4 0.000351537 2 0 0.0994487 -0.671256
108 1 0.332248 3.09582 0.131296 4 0.00033695 2 0 0.0994487 -0.59134
109 1 1.90972 2.41867 0.78376 4 0.000482942 2 0 0.0994487 0.078209
110 1 2.65852 3.28029 0.860875 4 0.000822652 2 0 0.0994487 0.066804
111 1 2.66931 2.22918 1.53373 4 0.000638458 2 0 0.0994487 0.0829551
112 1 3.2579 3.42668 1.64938 4 0.00111221 2 0 0.0994487 0.00397504
113 1 2.7261 2.38168 0.0557193 4 0.0006115 2 0 0.0994487 0.146601
114 1 3.38195 2.55413 0.779289 4 0.000941345 2 0 0.0994487 0.211584
115 1 4.00679 1.841 0.711184 4 0.00110731 2 0 0.0994487 -0.0361233
116 1 4.91383 2.57277 0.815661 4 0.00197753 2 0 0.0994487 -0.25935
117 1 4.20148 3.3175 0.749446 4 0.00169441 2 0 0.0994487 0.00621561
118 1 4.13245 2.64107 1.58328 4 0.0013825 2 0 0.0994487 0.0270777
119 1 5.65047 2.44269 0.132743 4 0.00262942 2 0 0.0994487 -0.189925
120 1 6.55776 2.18062 0.772597 4 0.00359372 2 0 0.0994487 -0.289383
121 1 5.64874 3.19593 0.952489 4 0.00310294 2 0 0.0994487 -0.754633
122 1 5.861 2.19426 1.49672 4 0.00268242 2 0 0.0994487 0.0126358
123 1 6.52037 3.06691 1.5557 4 0.00422516 2 0 0.0994487 0.0443576
124 1 6.65033 2.92778 0.134227 4 0.0041214 2 0 0.0994487 0.0288869
125 1 7.45405 2.22586 0.139832 4 0.00505293 2 0 0.0994487 -0.0535023
126 1 8.08209 2.20208 0.930382 4 0.00643631 2 0 0.0994487 -0.302073
127 1 7.40132 3.06835 0.934051 4 0.0060371 2 0 0.0994487 -0.0455236
128 1 7.29928 2.06035 1.56856 4 0.00462026 2 0 0.0994487 -0.0607326
129 1 8.18545 3.00183 1.65211 4 0.0079666 2 0 0.0994487 -0.0454158
130 1 8.26934 2.9712 0.0392146 4 0.00816924 2 0 0.0994487 -0.150617
131 1 8.90393 2.08699 0.252387 4 0.00818824 2 0 0.0994487 0.00243341
132 1 9.77243 2.0246 1.10996 4 0.0108717 2 0 0.0994487 0.173465
133 1 8.92671 2.97262 0.928693 4 0.010437 2 0 0.0994487 -0.15676
134 1 9.03062 2.22066 1.70398 4 0.00891374 2 0 0.0994487 -0.0819678
135 1 9.56096 2.90576 0.21312 4 0.0122241 2 0 0.0994487 0.17312
136 1 10.2834 2.1137 0.214297 4 0.0122039 2 0 0.0994487 0.337739
137 1 11.1583 1.82604 0.771092 4 0.0165914 2 0 0.0994487 0.260089
138 1 10.6214 2.80819 0.921535 4 0.0176359 2 0 0.0994487 0.541918
139 1 11.4444 2.82964 1.57484 4 0.0237724 2 0 0.0994487 0.0951996
140 1 12.6737 1.94118 0.593851 4 0.0292892 2 0 0.0994487 -0.283933
141 1 11.928 2.64099 0.742299 4 0.026644 2 0 0.0994487 -0.0386733
142 1 11.9239 1.9206 1.46509 4 0.0222516 2 0 0.0994487 0.0946542
143 1 12.8449 3.01766 1.68597 4 0.0381855 2 0 0.0994487 0.0363569
144 1 13.1791 3.03035 0.848852 4 0.0426437 2 0 0.0994487 -0.440855
145 1 13.3784 1.9912 1.48064 4 0.0350603 2 0 0.0994487 -0.0150696
146 1 14.0206 2.44438 0.927124 4 0.0458622 2 0 0.0994487 -0.133098
147 1 14.0279 3.38359 1.55716 4 0.0573504 2 0 0.0994487 0.025575
148 1 14.6961 3.43698 0.884932 4 0.0687082 2 0 0.0994487 -0.332953
149 1 14.7823 2.29758 1.44821 4 0.0523494 2 0 0.0994487 0.0469281
150 1 14.8418 2.51505 0.136557 4 0.0555244 2 0 0.0994487 0.173006
151 1 14.1591 3.2262 0.0325348 4 0.0573718 2 0 0.0994487 -0.246105
152 1 13.4137 2.29398 0.0590902 4 0.0387055 2 0 0.0994487 -0.280961
153 1 15.6993 2.44373 0.692668 4 0.0664402 2 0 0.0994487 0.364395
154 1 16.3029 3.20095 0.662084 4 0.0895624 2 0 0.0994487 0.328591
155 1 16.308 2.47951 1.52575 4 0.0774936 2 0 0.0994487 -0.100645
156 1 15.3694 3.25723 1.50191 4 0.0765391 2 0 0.0994487 -0.00766796
157 1 15.5706 3.25854 0.0192499 4 0.0753186 2 0 0.0994487 0.290238
158 1 17.0646 2.35032 0.682778 4 0.0860036 2 0 0.0994487 0.0234837
159 1 17.944 2.92608 0.699539 4 0.115623 2 0 0.0994487 -0.231187
160 1 18.0193 2.43917 1.58112 4 0.103363 2 0 0.0994487 -0.149132
161 1 17.0918 3.1162 1.49491 4 0.104925 2 0 0.0994487 -0.143432
162 1 18.8908 2.35742 1.01358 4 0.111872 2 0 0.0994487 -0.51682
163 1 19.7027 3.2427 1.27782 4 0.14431 2 0 0.0994487 0.394886
164 1 18.884 2.99607 0.196019 4 0.129637 2 0 0.0994487 -0.171807
165 1 19.587 2.34239 0.101452 4 0.117295 2 0 0.0994487 -0.132369
166 1 20.3251 1.78863 1.72442 4 0.106195 2 0 0.0994487 0.0449554
167 1 21.1565 2.41663 0.458355 4 0.127162 2 0 0.0994487 0.19619
168 1 20.1948 2.46882 1.11433 4 0.122647 2 0 0.0994487 0.286756
169 1 21.31 3.29463 1.39314 4 0.163094 2 0 0.0994487 0.0777325
170 1 20.4222 2.99313 0.334941 4 0.140261 2 0 0.0994487 0.186293
171 1 22.8719 2.07007 1.50872 4 0.121977 2 0 0.0994487 -0.0221209
172 1 22.9717 2.60199 0.735523 4 0.142841 2 0 0.0994487 0.133331
173 1 22.0961 2.49917 1.23787 4 0.13594 2 0 0.0994487 0.186443
174 1 21.9898 3.20043 0.598797 4 0.166363 2 0 0.0994487 -0.0757459
175 1 22.6771 3.40124 0.07601 4 0.178601 2 0 0.0994487 0.0760748
176 1 23.7438 1.80844 0.624025 4 0.112041 2 0 0.0994487 -0.0873563
177 1 24.4289 1.98763 1.61102 4 0.113948 2 0 0.0994487 -0.0641737
178 1 24.342 2.68296 0.775192 4 0.135443 2 0 0.0994487 -0.341088
179 1 23.6887 2.90303 1.53628 4 0.149324 2 0 0.0994487 -0.110502
180 1 24.4728 3.51078 1.55704 4 0.170501 2 0 0.0994487 -0.118303
181 1 24.9562 2.84566 0.0146836 4 0.131985 2 0 0.0994487 -0.0864585
182 1 26.5483 1.79415 0.511367 4 0.0859854 2 0 0.0994487 -0.00559813
183 1 25.1322 1.85613 0.509414 4 0.105092 2 0 0.0994487 -0.0215268
184 1 25.7918 2.61203 0.707489 4 0.117306 2 0 0.0994487 0.228206
185 1 25.1579 2.55548 1.52547 4 0.123743 2 0 0.0994487 0.057669
186 1 25.7213 3.49812 1.51211 4 0.151431 2 0 0.0994487 0.123859
187 1 26.5364 2.56002 1.53049 4 0.103094 2 0 0.0994487 0.0579495
188 1 26.1686 3.50068 0.599043 4 0.142224 2 0 0.0994487 0.168848
189 1 27.5039 1.98546 1.23792 4 0.0766764 2 0 0.0994487 -0.186415
190 1 28.2489 2.09022 0.343734 4 0.0699574 2 0 0.0994487 -0.0177239
191 1 27.0867 2.6924 0.645359 4 0.0964199 2 0 0.0994487 -0.105598
192 1 27.1998 3.35397 1.41682 4 0.111517 2 0 0.0994487 -0.0983259
193 1 28.2537 2.75799 1.20639 4 0.0794456 2 0 0.0994487 -0.418303
194 1 27.982 3.21993 0.326384 4 0.0913341 2 0 0.0994487 -0.125256
195 1 29.9568 1.80906 1.70764 4 0.0534497 2 0 0.0994487 0.183201
196 1 29.4477 2.04702 0.879698 4 0.0592538 2 0 0.0994487 -0.00708053
197 1 29.1956 2.6589 0.290703 4 0.0671682 2 0 0.0994487 -0.0578275
198 1 29.2495 3.2651 1.17365 4 0.0752921 2 0 0.0994487 0.118638
199 1 30.9114 1.98502 0.924207 4 0.0516004 2 0 0.0994487 0.967251
200 1 30.1815 2.71094 1.00186 4 0.060734 2 0 0.0994487 0.675111
201 1 31.0247 3.35309 0.97101 4 0.0634849 2 0 0.0994487 0.998409
202 1 30.9865 2.69483 1.72648 4 0.0571762 2 0 0.0994487 0.578501
203 1 30.1092 3.25953 0.132205 4 0.0653316 2 0 0.0994487 -0.0443654
204 1 30.4116 1.90909 0.0255368 4 0.051792 2 0 0.0994487 0.106045
205 1 31.1434 2.66402 0.0761253 4 0.0550996 2 0 0.0994487 0.70882
206 1 0.293831 3.78503 0.918557 4 0.000402288 2 0 0.0994487 -0.999347
207 1 0.143046 4.59443 0.482118 4 0.000451113 2 0 0.0994487 -0.784494
208 1 1.14036 4.67093 0.986638 4 0.000614987 2 0 0.0994487 -0.516751
209 1 0.0884667 5.26681 1.27761 4 0.000517037 2 0 0.0994487 -0.887458
210 1 1.04069 3.86421 0.0595682 4 0.00046668 2 0 0.0994487 0.014888
211 1 1.84117 4.04604 0.847105 4 0.000703328 2 0 0.0994487 0.00826846
212 1 2.54049 4.85585 1.13748 4 0.00114227 2 0 0.0994487 -0.333846
213 1 2.64953 4.14475 0.20674 4 0.00103107 2 0 0.0994487 -0.0285722
214 1 1.89758 4.96895 0.278386 4 0.000895795 2 0 0.0994487 -0.153434
215 1 3.40771 4.86189 0.161635 4 0.00168235 2 0 0.0994487 -0.0163882
216 1 3.494 4.07675 0.885909 4 0.00146869 2 0 0.0994487 0.0268929
217 1 4.91235 4.00001 1.18344 4 0.00272379 2 0 0.0994487 0.0115096
218 1 4.04658 4.88002 1.14639 4 0.00223567 2 0 0.0994487 0.264489
219 1 4.26027 4.18509 0.149001 4 0.00212859 2 0 0.0994487 0.0377381
220 1 5.00947 4.74001 0.341082 4 0.00338255 2 0 0.0994487 0.0765395
221 1 5.77735 3.9378 0.198707 4 0.00372569 2 0 0.0994487 0.0260156
222 1 6.48883 3.76611 0.772067 4 0.00488429 2 0 0.0994487 0.204553
223 1 5.68025 4.73638 1.02487 4 0.00462041 2 0 0.0994487 -0.621692
224 1 6.66321 4.5115 1.6428 4 0.00631659 2 0 0.0994487 0.158933
225 1 6.68072 5.1315 0.885352 4 0.00769634 2 0 0.0994487 0.206852
226 1 8.1982 3.892 0.700757 4 0.0103903 2 0 0.0994487 -0.369902
227 1 7.40842 4.46072 0.5468 4 0.00878899 2 0 0.0994487 -0.0252132
228 1 7.39886 3.87029 1.49684 4 0.00731926 2 0 0.0994487 0.102577
229 1 8.20004 4.61106 1.48677 4 0.0124509 2 0 0.0994487 -0.0118382
230 1 9.8976 3.57792 0.885667 4 0.0171903 2 0 0.0994487 0.592774
231 1 9.07913 4.56551 0.821335 4 0.0171072 2 0 0.0994487 -0.658546
232 1 9.86266 4.50302 0.126324 4 0.0206929 2 0 0.0994487 0.0958649
233 1 9.07829 3.76256 1.49819 4 0.0137482 2 0 0.0994487 -0.0708861
234 1 9.86881 4.3462 1.65532 4 0.021271 2 0 0.0994487 -0.0856632
235 1 8.98541 3.86821 0.0631775 4 0.0134057 2 0 0.0994487 -0.138754
236 1 11.408 3.64493 0.778297 4 0.0291653 2 0 0.0994487 0.202065
237 1 10.5891 4.66652 0.906264 4 0.0290346 2 0 0.0994487 0.045071
238 1 11.3867 4.69403 0.230734 4 0.0380474 2 0 0.0994487 -0.0498912
239 1 10.7059 3.56689 1.58785 4 0.0227635 2 0 0.0994487 -0.0448501
240 1 11.3652 4.3716 1.70545 4 0.0349438 2 0 0.0994487 -0.0798288
241 1 11.3894 5.27213 0.983682 4 0.0442218 2 0 0.0994487 -0.674483
242 1 10.5826 3.84888 0.176129 4 0.0225623 2 0 0.0994487 0.210466
243 1 12.5168 3.57716 0.814749 4 0.0406907 2 0 0.0994487 -0.010577
244 1 12.1916 4.55033 1.00021 4 0.0471458 2 0 0.0994487 0.105041
245 1 12.7362 4.99738 1.68903 4 0.0594291 2 0 0.0994487 0.191328
246 1 13.2258 4.67863 0.80017 4 0.0657776 2 0 0.0994487 -0.00470185
247 1 12.6435 4.61885 0.0632315 4 0.0557724 2 0 0.0994487 -0.033581
248 1 13.9891 4.12825 0.69648 4 0.0706006 2 0 0.0994487 -0.430177
249 1 13.4832 4.21781 1.59317 4 0.0612869 2 0 0.0994487 0.0820173
250 1 14.2046 5.11838 1.52001 4 0.0942901 2 0 0.0994487 -0.0289922
251 1 14.9402 5.01141 0.811699 4 0.109807 2 0 0.0994487 -0.0527228
252 1 14.9642 4.4167 1.59432 4 0.0949902 2 0 0.0994487 -0.0635619
253 1 14.1405 4.90647 0.0597868 4 0.0884607 2 0 0.0994487 -0.0856948
254 1 14.961 4.19423 0.096508 4 0.0874169 2 0 0.0994487 0.0322729
255 1 15.6685 4.06642 0.926277 4 0.0997408 2 0 0.0994487 0.872575
256 1 15.8798 4.77595 0.186426 4 0.124709 2 0 0.0994487 0.16539
257 1 16.5936 4.58036 0.900182 4 0.138873 2 0 0.0994487 -0.0789637
258 1 16.3184 3.95875 1.6903 4 0.111869 2 0 0.0994487 -0.0433956
259 1 15.8111 5.05317 1.64084 4 0.132826 2 0 0.0994487 0.0995009
260 1 17.2689 3.83372 0.811237 4 0.130593 2 0 0.0994487 -0.345379
261 1 18.0864 4.48855 1.09806 4 0.170896 2 0 0.0994487 -0.612138
262 1 17.9525 3.63794 1.65602 4 0.136645 2 0 0.0994487 -0.192803
263 1 17.4569 4.57727 0.0147963 4 0.15764 2 0 0.0994487 -0.0974079
264 1 18.1348 3.8547 0.0583493 4 0.146166 2 0 0.0994487 -0.120515
265 1 18.8779 3.70667 0.95022 4 0.152301 2 0 0.0994487 0.0692508
266 1 18.8235 4.60949 0.361826 4 0.186978 2 0 0.0994487 0.115611
267 1 19.6906 4.67872 1.0803 4 0.218326 2 0 0.0994487 0.931535
268 1 18.7859 5.27693 1.20102 4 0.232446 2 0 0.0994487 0.599152
269 1 19.5987 3.76722 0.227421 4 0.161827 2 0 0.0994487 0.164271
270 1 20.4384 3.82188 1.23329 4 0.180956 2 0 0.0994487 0.32596
271 1 20.8846 4.71868 1.39403 3 0.25728 2 0 0.0994073 0.149061
272 1 21.5775 4.95128 0.810455 3 0.303286 2 0 0.099063 -0.00374198
273 1 21.0824 3.93136 0.512408 4 0.197111 2 0 0.0994487 0.0883063
274 1 20.1339 4.78559 0.352846 4 0.236299 2 0 0.0994487 0.145588
275 1 22.8205 3.63186 1.42135 4 0.19195 2 0 0.0994487 -0.0183969
276 1 21.9406 4.13318 1.31068 4 0.22498 2 0 0.0994487 0.0272081
277 1 22.4705 5.17735 1.27286 3 0.33909 2 0 0.0986629 0.0207108
278 1 22.6119 4.34705 0.510028 4 0.244626 2 0 0.0994487 -0.0221031
279 1 23.5735 3.63903 0.782677 4 0.19129 2 0 0.0994487 0.185565
280 1 24.336 4.32055 0.625018 4 0.230081 2 0 0.0994487 -0.15009
281 1 23.4679 4.54946 1.33355 3 0.262546 2 0 0.0993754 -0.0790525
282 1 24.8518 5.25716 0.566763 3 0.293761 2 0 0.0991477 0.0409095
283 1 23.5518 5.06386 0.533607 3 0.313882 2 0 0.0989589 -0.0968861
284 1 25.0086 4.50055 1.62342 4 0.225887 2 0 0.0994487 -0.0421935
285 1 25.0629 3.68037 0.802132 4 0.17219 2 0 0.0994487 -0.187913
286 1 24.363 5.28843 1.43377 3 0.316701 2 0 0.0989294 -0.154707
287 1 25.6904 5.1389 1.34266 3 0.252626 2 0 0.0994342 0.210104
288 1 26.3575 4.29031 1.37159 4 0.173716 2 0 0.0994487 0.149485
289 1 26.5026 4.97257 0.640732 4 0.205177 2 0 0.0994487 0.0989699
290 1 25.5284 4.40089 0.388179 4 0.202879 2 0 0.0994487 0.0559494
291 1 27.3302 4.86961 1.40568 4 0.169298 2 0 0.0994487 0.00661227
292 1 27.9624 3.97641 1.10408 4 0.113051 2 0 0.0994487 -0.3095
293 1 28.2771 4.73475 0.706344 4 0.133362 2 0 0.0994487 -0.0812436
294 1 27.0674 4.04323 0.570038 4 0.139746 2 0 0.0994487 0.0120248
295 1 28.9321 3.77016 0.487204 4 0.0884809 2 0 0.0994487 -0.00703152
296 1 29.0873 4.52317 1.33085 4 0.105795 2 0 0.0994487 0.0574873
297 1 29.9979 4.07209 1.02303 4 0.0803734 2 0 0.0994487 -0.27523
298 1 31.0296 3.97382 0.373364 4 0.0704585 2 0 0.0994487 0.657583
299 1 30.2046 4.67765 0.491317 4 0.0913602 2 0 0.0994487 0.00995915
300 1 30.9783 4.59929 1.41131 4 0.0811916 2 0 0.0994487 0.679914
301 1 0.908283 5.53205 0.461647 4 0.000706059 2 0 0.0994487 -0.463785
302 1 1.53161 5.51184 1.37971 4 0.000863369 2 0 0.0994487 -0.117387
303 1 0.793684 6.22023 1.2768 4 0.000809589 2 0 0.0994487 -0.703381
304 1 0.257003 6.91734 1.50738 4 0.000814128 2 0 0.0994487 -0.772633
305 1 0.969942 6.9454 0.573423 4 0.00100567 2 0 0.0994487 -0.473533
306 1 1.7053 7.02884 1.23811 4 0.00126595 2 0 0.0994487 0.0665178
307 1 1.89588 6.19966 0.519025 4 0.00117178 2 0 0.0994487 -0.1564
308 1 3.10475 5.61709 1.30057 4 0.00169995 2 0 0.0994487 0.0402523
309 1 2.26359 6.15348 1.40977 4 0.00130261 2 0 0.0994487 0.0408558
310 1 3.25442 6.96226 1.12748 4 0.00257441 2 0 0.0994487 -0.0541241
311 1 2.68177 5.61289 0.273587 4 0.00143042 2 0 0.0994487 -0.0596858
312 1 3.39503 6.28191 0.500536 4 0.00238837 2 0 0.0994487 -0.121445
313 1 4.18979 5.46246 0.325783 4 0.00279504 2 0 0.0994487 0.0310172
314 1 4.93434 5.42873 1.31778 4 0.00409305 2 0 0.0994487 -0.235101
315 1 4.13622 6.09659 1.22779 4 0.00326599 2 0 0.0994487 -0.0893896
316 1 4.82567 6.23357 0.333842 4 0.00456608 2 0 0.0994487 -0.0345767
317 1 4.77312 6.79931 1.15967 4 0.00521426 2 0 0.0994487 -0.305932
318 1 4.00267 7.02511 0.221759 4 0.00369128 2 0 0.0994487 -0.0853446
319 1 5.78575 5.42185 0.301847 4 0.00564549 2 0 0.0994487 0.0125015
320 1 5.6935 6.24342 0.9632 4 0.00678467 2 0 0.0994487 -0.967783
321 1 6.4578 5.98425 1.59671 4 0.0086082 2 0 0.0994487 0.140913
322 1 6.43234 6.86927 1.00965 4 0.0106972 2 0 0.0994487 0.851668
323 1 6.37773 6.04115 0.154639 4 0.00800864 2 0 0.0994487 0.111112
324 1 5.54993 7.05206 0.147147 4 0.00727024 2 0 0.0994487 0.0363854
325 1 8.21355 5.31419 0.694273 4 0.0151913 2 0 0.0994487 -0.089596
326 1 7.32761 6.15925 0.754293 4 0.0129761 2 0 0.0994487 0.225728
327 1 7.39163 5.41839 1.49138 4 0.0109781 2 0 0.0994487 0.136752
328 1 8.23884 6.11028 1.49159 4 0.0190157 2 0 0.0994487 0.0187352
329 1 8.01352 6.85364 0.728993 4 0.0212613 2 0 0.0994487 0.0691835
330 1 7.28191 6.86379 1.59601 4 0.0158979 2 1 0.0994487 0.126043
331 1 7.33029 5.3575 0.0461812 4 0.0101204 2 0 0.0994487 0.0813561
332 1 9.76796 5.3194 0.792562 4 0.0261329 2 0 0.0994487 0.328442
333 1 8.88016 6.18865 0.736908 4 0.0247837 2 0 0.0994487 -0.235549
334 1 9.05434 5.3271 1.5973 4 0.0208631 2 0 0.0994487 -0.0628324
335 1 9.73844 6.19052 1.46731 4 0.0340038 2 0 0.0994487 -0.10655
336 1 9.09351 6.95013 1.463 4 0.0340634 2 2 0.0994487 -0.0762071
337 1 9.76329 6.23201 0.0941385 4 0.0332765 2 0 0.0994487 -0.0359541
338 1 8.99733 5.46479 0.012702 4 0.0207518 2 0 0.0994487 -0.134755
339 1 10.5831 6.02196 0.964384 4 0.0421228 2 0 0.0994487 -0.356235
340 1 11.3128 6.37134 0.0776634 4 0.0533636 2 0 0.0994487 0.100341
341 1 10.5187 6.94145 0.15452 4 0.0503547 2 0 0.0994487 -0.0735292
342 1 10.4686 6.92564 1.49614 4 0.0532502 2 1 0.0994487 -0.0634919
343 1 11.9994 5.6274 0.183157 4 0.0554548 2 0 0.0994487 -0.0105323
344 1 12.6757 5.81849 0.861776 4 0.0724076 2 0 0.0994487 0.0817366
345 1 11.7774 6.20735 1.05291 4 0.0612836 2 0 0.0994487 0.292318
346 1 13.3219 5.86668 1.55471 4 0.0871021 2 0 0.0994487 0.208164
347 1 13.3506 6.58297 0.813679 4 0.110042 2 0 0.0994487 -0.292119
348 1 13.3212 5.53867 0.0424813 4 0.0818188 2 0 0.0994487 -0.142913
349 1 14.0617 5.71565 0.77266 4 0.105757 2 0 0.0994487 -0.37272
350 1 14.3278 6.65176 1.40646 4 0.150785 2 1 0.0994487 -0.102984
351 1 14.1303 6.38483 0.0380077 4 0.122028 2 0 0.0994487 -0.0826117
352 1 15.0282 5.64393 0.034369 4 0.128434 2 0 0.0994487 0.0573629
353 1 15.8305 5.73813 0.95832 4 0.163714 2 0 0.0994487 0.62574
354 1 15.0472 6.45091 0.806774 4 0.16605 2 0 0.0994487 -0.174596
355 1 16.491 6.45257 1.1401 4 0.235895 2 0 0.0994487 0.204797
356 1 15.1058 5.87594 1.69804 4 0.148863 2 0 0.0994487 -0.0976639
357 1 16.62 5.41933 0.276819 4 0.171467 2 0 0.0994487 0.0799234
358 1 15.6753 6.3382 0.0390223 4 0.177657 2 0 0.0994487 0.0398019
359 1 17.8271 5.30128 0.541411 4 0.201013 2 0 0.0994487 0.15033
360 1 17.113 5.42499 1.24767 4 0.191514 2 0 0.0994487 -0.286571
361 1 17.0619 6.27419 0.411469 4 0.238942 2 0 0.0994487 0.138988
362 1 17.6649 6.24649 1.38542 3 0.269454 2 0 0.0993309 -0.255523
363 1 18.2745 7.0517 1.13153 3 0.36686 2 0 0.0982394 0.67301
364 1 18.3714 6.23173 0.609762 3 0.293662 2 0 0.0991485 0.156213
365 1 19.429 5.75829 0.62055 3 0.29629 2 0 0.099126 0.0571886
366 1 19.3279 6.55755 1.35081 3 0.375564 2 0 0.0980812 0.281537
367 1 19.9942 6.75229 0.610261 3 0.456995 2 0 0.0957304 -0.0119344
368 1 20.7494 5.77593 0.653722 3 0.371271 2 0 0.0981609 -0.104063
369 1 20.1931 5.61076 1.39557 3 0.319156 2 0 0.0989029 0.312021
370 1 20.7787 6.6124 1.30355 3 0.511424 2 0 0.0927779 -0.344189
371 1 21.6592 6.66248 0.666524 3 0.531295 2 0 0.0912753 -0.0435301
372 1 21.6631 5.87866 1.38528 3 0.434701 2 0 0.0965658 0.0420153
373 1 21.6904 5.73259 0.0517844 3 0.392423 2 0 0.0977336 -0.0015002
374 1 22.6732 5.8279 0.674154 3 0.420199 2 0 0.097021 0.00266279
375 1 22.6319 6.69333 1.20734 3 0.566916 2 0 0.0878229 -0.202429
376 1 23.3484 6.78052 0.267835 3 0.53081 2 0 0.0913152 -0.125368
377 1 23.4822 5.88496 1.30013 3 0.425453 2 0 0.0968634 -0.176362
378 1 24.3197 6.56281 1.15825 3 0.466863 2 0 0.0953002 0.173778
379 1 24.1457 6.00685 0.427617 3 0.403715 2 0 0.0974668 0.00244039
380 1 25.6831 5.86213 0.700952 3 0.310594 2 0 0.0989924 0.1639
381 1 25.1124 6.04132 1.67733 3 0.358279 2 0 0.0983828 0.00367086
382 1 25.1593 6.74159 0.495153 3 0.421155 2 0 0.096993 0.0903942
383 1 25.8251 6.59457 1.40775 3 0.364204 2 0 0.0982851 0.0881061
384 1 26.6903 5.84511 1.4763 3 0.256835 2 0 0.0994099 0.0917645
385 1 27.4966 5.54334 0.722172 4 0.194254 2 0 0.0994487 -0.251568
386 1 26.7485 6.36567 0.651888 3 0.287243 2 0 0.0992012 0.0387542
387 1 27.7011 6.47315 1.36539 4 0.237339 2 0 0.0994487 0.131496
388 1 28.3648 5.52203 1.4872 4 0.160396 2 0 0.0994487 0.0456349
389 1 27.7097 7.0074 0.530173 3 0.26332 2 0 0.0993705 0.0321269
390 1 29.3889 5.30889 0.818726 4 0.125287 2 0 0.0994487 0.316732
391 1 29.4379 6.18214 1.32212 4 0.148061 2 0 0.0994487 -0.00337949
392 1 29.5784 6.89773 0.506505 4 0.166136 2 0 0.0994487 0.0925887
393 1 28.4685 6.20589 0.638647 4 0.181101 2 0 0.0994487 -0.270077
394 1 29.3762 6.15398 0.0801838 4 0.148477 2 0 0.0994487 0.0969271
395 1 28.4822 5.38976 0.0592959 4 0.148826 2 0 0.0994487 -0.105002
396 1 30.9636 5.36838 0.595026 4 0.101664 2 0 0.0994487 0.667849
397 1 30.2159 5.45949 1.46813 4 0.110646 2 0 0.0994487 0.0540222
398 1 30.3958 6.18258 0.649752 4 0.127748 2 0 0.0994487 0.329003
399 1 31.2189 6.15516 1.38439 4 0.114995 2 0 0.0994487 0.587258
400 1 31.1994 6.95407 0.60342 4 0.134305 2 0 0.0994487 0.812252
401 1 31.7235 5.99622 0.446564 4 0.108049 2 0 0.0994487 0.879729
402 1 0.261851 7.63199 0.661866 4 0.000952544 2 0 0.0994487 -0.876374
403 1 0.831025 8.46344 0.61936 4 0.00122045 2 0 0.0994487 -0.577626
404 1 1.11211 7.86396 1.49711 4 0.00118451 2 0 0.0994487 -0.154428
405 1 0.356955 8.5626 1.47035 4 0.00109087 2 0 0.0994487 -0.764984
406 1 1.59266 7.76478 0.37187 4 0.0014071 2 0 0.0994487 -0.089788
407 1 1.72382 8.61735 1.46471 4 0.00164929 2 0 0.0994487 0.0395968
408 1 2.48799 7.14986 0.476331 4 0.00187682 2 0 0.0994487 -0.0836965
409 1 2.19177 8.6335 0.399707 4 0.00207501 2 0 0.0994487 -0.137268
410 1 2.39416 7.81099 1.27726 4 0.0019761 2 0 0.0994487 0.0869918
411 1 3.01349 8.51445 0.935533 4 0.00297799 2 0 0.0994487 -0.539315
412 1 3.24418 7.77117 0.327041 4 0.002984 2 0 0.0994487 -0.196205
413 1 3.81243 8.45898 0.0822892 4 0.00409319 2 0 0.0994487 -0.045779
414 1 3.97971 7.67009 1.24863 4 0.00410855 2 0 0.0994487 -0.05549
415 1 4.70459 8.25653 0.921772 4 0.00618544 2 0 0.0994487 0.295326
416 1 4.67023 7.63706 0.247803 4 0.00544536 2 0 0.0994487 0.0376907
417 1 3.81127 8.34851 1.76162 4 0.00411036 2 0 0.0994487 -0.0574364
418 1 5.86955 8.34822 0.169905 4 0.0103106 2 0 0.0994487 0.113104
419 1 5.48363 7.59071 1.03232 4 0.0082399 2 0 0.0994487 -0.46767
420 1 6.49365 7.53799 0.169175 4 0.0120916 2 0 0.0994487 0.187622
421 1 6.39674 8.23976 1.04384 4 0.0140879 2 0 0.0994487 0.338144
422 1 7.28583 7.76918 0.746313 4 0.0197021 2 1 0.0994487 0.00993872
423 1 8.2859 8.31376 0.868772 4 0.0341059 2 2 0.0994487 0.278212
424 1 7.27857 8.18368 1.7015 4 0.0233433 2 2 0.0994487 -0.174828
425 1 8.05208 7.48784 1.5604 4 0.0264678 2 1 0.0994487 0.184999
426 1 7.99895 7.60312 0.0282118 4 0.024026 2 0 0.0994487 0.067412
427 1 9.84313 7.22199 0.72344 4 0.0462776 2 1 0.0994487 -0.346984
428 1 8.91207 7.61626 0.661731 4 0.0361877 2 1 0.0994487 0.158467
429 1 9.73234 8.61964 0.693151 4 0.0613803 2 3 0.0994487 -0.256985
430 1 9.09265 8.69904 1.44495 4 0.054568 2 9 0.0994487 -0.39385
431 1 9.64026 7.88932 1.60055 4 0.0567934 2 8 0.0994487 -0.340614
432 1 11.3161 7.14287 0.810636 4 0.068204 2 1 0.0994487 0.44867
433 1 10.5731 7.9454 0.844311 4 0.0687113 2 3 0.0994487 -0.197746
434 1 10.5877 8.70196 1.4255 4 0.0834803 1 8 0.0994487 -0.151097
435 1 11.4057 7.80503 1.60301 4 0.0899383 2 7 0.0994487 0.229018
436 1 11.227 8.11851 0.0422735 4 0.0778407 2 0 0.0994487 0.174338
437 1 12.7061 7.28322 0.565784 4 0.110165 2 0 0.0994487 -0.0531365
438 1 12.178 8.23518 0.590765 4 0.11285 2 2 0.0994487 0.163859
439 1 12.0637 7.15788 1.37768 4 0.0887909 2 3 0.0994487 0.146011
440 1 12.0887 8.68064 1.49044 4 0.130014 1 8 0.0994487 0.081606
441 1 12.8601 7.99585 1.47598 4 0.147599 2 5 0.0994487 -0.218777
442 1 14.3373 7.3542 0.580954 4 0.172335 2 0 0.0994487 0.0666314
443 1 13.6169 8.09282 0.464536 4 0.166675 2 2 0.0994487 0.0261315
444 1 13.458 7.34024 1.34133 4 0.145503 2 2 0.0994487 0.0554074
445 1 14.2471 8.18371 1.35246 4 0.217131 2 2 0.0994487 0.118723
446 1 16.4328 7.18497 0.276798 3 0.272476 2 0 0.0993104 -0.0655787
447 1 15.6276 7.3114 0.923132 4 0.24694 2 0 0.0994487 -0.446828
448 1 15.0689 8.29247 0.865596 3 0.264558 2 0 0.0993627 -0.331356
449 1 16.2796 8.16168 1.10436 0 0.335668 1 0 0.0987075 -0.333141
450 1 15.1452 7.52269 1.62484 4 0.24875 2 1 0.0994487 -0.39253