ITEM: TIMESTEP
48500
ITEM: NUMBER OF ATOMS
9495
ITEM: BOX BOUNDS mm mm mm
0.0000000000000000e+00 3.1748021039364001e+01
0.0000000000000000e+00 3.1748021039364001e+01
-7.4072398406925706e-04 3.1748021039364001e+01
ITEM: ATOMS id type x y z c_phase c_temp c_surf c_nbond c_visc f_3[1]
1 1 0.116341 1.10259 0.464337 4 0.00104564 2 0 0.0994487 -0.68194
2 1 0.974108 1.6685 0.77798 4 0.00135195 2 0 0.0994487 -0.517032
3 1 0.714648 0.793562 1.41295 4 0.00113159 2 0 0.0994487 -0.281794
4 1 0.00336375 1.60273 1.37437 4 0.00111203 2 0 0.0994487 -0.804051
5 1 0.729896 0.0633724 0.61602 4 0.00098526 3 0 0.0994487 -0.190374
6 1 1.71015 0.808983 1.0155 4 0.00150975 2 0 0.0994487 -0.33207
7 1 1.80059 1.47468 0.221075 4 0.001599 2 0 0.0994487 -0.125829
8 1 1.82015 1.66049 1.76126 4 0.0016791 2 0 0.0994487 -0.139533
9 1 2.52093 0.749102 0.203812 4 0.00183476 2 0 0.0994487 -0.14294
10 1 2.59149 0.0538711 1.03726 4 0.00183141 2 0 0.0994487 -0.295005
11 1 2.64922 1.541 0.882848 4 0.0021157 2 0 0.0994487 0.235751
12 1 2.66829 0.815502 1.7457 4 0.00198088 2 0 0.0994487 -0.187041
13 1 3.43386 0.933692 0.956349 4 0.00258536 2 0 0.0994487 0.320237
14 1 3.49924 0.0925696 1.70571 4 0.00228196 2 0 0.0994487 0.178053
15 1 3.60652 1.70798 1.71994 4 0.00304299 2 0 0.0994487 0.048794
16 1 4.10576 0.858321 0.325305 4 0.00327085 2 0 0.0994487 0.153145
17 1 4.96159 0.56786 1.17466 4 0.00472337 2 0 0.0994487 -0.0370689
18 1 4.91949 1.59987 0.383508 4 0.0051879 2 0 0.0994487 -0.10025
19 1 4.3472 0.941527 1.62884 4 0.00369333 2 0 0.0994487 0.110737
20 1 3.47612 0.111428 0.171027 4 0.00221733 2 0 0.0994487 0.166215
21 1 5.64741 0.645627 0.325839 4 0.00616688 2 0 0.0994487 -0.080606
22 1 5.88414 1.31048 0.938036 4 0.00712103 2 0 0.0994487 -0.199595
23 1 6.57478 1.39104 0.218369 4 0.00909437 2 0 0.0994487 -0.086135
24 1 5.78374 0.460658 1.69897 4 0.00627171 2 0 0.0994487 -0.0846537
25 1 5.03122 1.72414 1.43602 4 0.00539732 2 0 0.0994487 0.04537
26 1 6.7138 0.39031 0.865278 4 0.00871344 2 0 0.0994487 -0.0793832
27 1 6.69104 1.00962 1.69374 4 0.00891241 2 0 0.0994487 -0.107925
28 1 8.2679 0.408875 1.07337 4 0.0137012 2 0 0.0994487 -0.100168
29 1 7.36782 1.22285 0.954198 4 0.0114401 2 0 0.0994487 -0.30256
30 1 8.24709 1.39092 0.236779 4 0.0150528 2 0 0.0994487 -0.0460659
31 1 8.12868 1.27217 1.60653 4 0.0141047 2 0 0.0994487 -0.00811861
32 1 7.58247 0.647807 0.140287 4 0.0115846 2 0 0.0994487 -0.110937
33 1 8.85849 0.508506 0.273966 4 0.0162082 2 0 0.0994487 -0.0616475
34 1 9.55301 0.3386 0.888639 4 0.0191693 2 0 0.0994487 0.00506218
35 1 9.02586 1.30716 1.1133 4 0.0184924 2 0 0.0994487 -0.0606511
37 1 9.63995 1.37474 0.0900752 4 0.021248 2 0 0.0994487 0.0992901
38 1 11.2128 0.215893 0.632658 4 0.0293393 2 0 0.0994487 0.203501
39 1 10.3637 1.04743 0.823114 4 0.0252141 2 0 0.0994487 0.539881
40 1 10.523 0.196295 1.44539 4 0.0243977 2 0 0.0994487 0.0644273
41 1 11.2856 1.01846 1.41785 4 0.03327 2 0 0.0994487 0.164704
42 1 10.5797 1.67706 1.72992 4 0.0296477 2 0 0.0994487 0.118162
43 1 10.2431 0.367861 0.0780499 4 0.0218498 2 0 0.0994487 0.1498
44 1 12.8757 0.211714 0.636805 4 0.0476449 2 0 0.0994487 0.0587858
45 1 12.0457 1.07408 0.506655 4 0.0422444 2 0 0.0994487 -0.0235537
46 1 12.1319 0.316439 1.29957 4 0.0398734 2 0 0.0994487 0.0188342
47 1 12.7194 1.19864 1.3723 4 0.0514527 2 0 0.0994487 -0.0305312
48 1 14.3729 0.318493 0.764646 4 0.0676102 2 0 0.0994487 -0.04604
49 1 13.5924 1.113 0.843618 4 0.0632648 2 0 0.0994487 -0.263058
50 1 14.0399 1.55958 0.167469 4 0.073557 2 0 0.0994487 -0.0898267
51 1 13.6075 0.359834 1.6352 4 0.057555 2 0 0.0994487 -0.056265
52 1 14.3777 1.14948 1.47647 4 0.0722975 2 0 0.0994487 -0.01783
53 1 14.8761 1.55337 0.662943 4 0.0835106 2 0 0.0994487 0.389943
54 1 15.7061 0.770636 0.788259 4 0.0873461 2 0 0.0994487 0.36648
55 1 16.5532 1.54451 0.681338 4 0.113978 2 0 0.0994487 0.000800744
56 1 15.1422 0.4642 1.64149 4 0.0761788 2 0 0.0994487 0.152076
57 1 16.547 0.712289 1.3421 4 0.103211 2 0 0.0994487 0.0956232
58 1 15.6341 1.48544 1.3916 4 0.0947261 2 0 0.0994487 0.153627
59 1 15.1049 0.711806 0.0677822 4 0.0762964 2 0 0.0994487 0.169202
60 1 17.2544 0.732268 0.547589 4 0.115841 2 0 0.0994487 0.0286277
61 1 17.9231 1.58109 0.757246 4 0.139206 2 0 0.0994487 0.0415593
62 1 17.916 0.742935 1.42801 4 0.128328 2 0 0.0994487 -0.224379
63 1 17.2202 1.74884 1.56274 4 0.131878 2 0 0.0994487 -0.0984866
64 1 19.5372 0.0167772 0.662766 4 0.135298 2 0 0.0994487 0.0436431
65 1 18.7918 0.725074 0.684829 4 0.137483 2 0 0.0994487 -0.269947
66 1 19.5395 1.55488 0.841653 4 0.158726 2 0 0.0994487 -0.341164
67 1 19.0276 0.158607 1.54508 4 0.134 2 0 0.0994487 -0.158665
68 1 19.5934 0.967491 1.68957 4 0.14738 2 0 0.0994487 0.00834963
69 1 18.6564 1.51302 1.50035 4 0.149007 2 0 0.0994487 -0.25031
70 1 21.0889 0.349843 1.06749 4 0.147717 2 0 0.0994487 -0.196127
71 1 20.2493 0.776373 0.980057 4 0.149481 2 0 0.0994487 -0.0497631
72 1 21.1062 1.65725 0.951506 4 0.167392 2 0 0.0994487 0.692911
73 1 21.1874 0.765598 0.218806 4 0.151091 2 0 0.0994487 -0.0445912
74 1 20.3457 1.51479 0.193617 4 0.162156 2 0 0.0994487 -0.080603
75 1 22.0087 0.262534 0.539755 4 0.1469 2 0 0.0994487 0.0993589
76 1 22.7913 0.430275 1.40734 4 0.147917 2 0 0.0994487 0.206599
77 1 22.1105 1.14763 1.32981 4 0.157267 2 0 0.0994487 0.240022
78 1 21.9982 1.59955 0.538558 4 0.167123 2 0 0.0994487 0.185171
79 1 22.9157 1.07463 0.445168 4 0.155112 2 0 0.0994487 0.052084
80 1 24.228 0.380179 1.45209 4 0.142274 2 0 0.0994487 0.0576166
81 1 23.5672 0.357563 0.57369 4 0.145111 2 0 0.0994487 0.0385706
82 1 24.4367 1.18687 0.754729 4 0.151804 2 0 0.0994487 -0.0192962
83 1 23.4757 1.2499 1.4028 4 0.158274 2 0 0.0994487 0.0298767
84 1 24.955 0.315686 0.551996 4 0.134976 2 0 0.0994487 -0.0171986
85 1 26.0085 0.383365 1.1715 4 0.123207 2 0 0.0994487 -0.185859
86 1 25.169 1.12579 1.48087 4 0.144263 2 0 0.0994487 0.0251053
87 1 25.9301 1.73476 1.35794 4 0.14606 2 0 0.0994487 0.034537
88 1 25.8917 0.929212 0.432102 4 0.130453 2 0 0.0994487 -0.0954192
89 1 27.5736 1.28032 0.38906 4 0.113258 2 0 0.0994487 0.0454496
90 1 27.6142 0.50928 0.874321 4 0.106646 2 0 0.0994487 0.175388
91 1 26.7559 1.02809 1.26347 4 0.120033 2 0 0.0994487 -0.236885
92 1 28.3748 0.337482 1.39813 4 0.0964343 2 0 0.0994487 0.00984479
93 1 26.7925 0.240345 0.226621 4 0.112232 2 0 0.0994487 0.038075
94 1 28.6489 1.24263 0.742341 4 0.101238 2 0 0.0994487 0.102407
95 1 29.3912 0.945639 1.56878 4 0.090516 2 0 0.0994487 -0.0192003
96 1 28.5228 1.71921 1.49749 4 0.107008 2 0 0.0994487 -0.0429803
97 1 29.8133 0.173958 1.46124 4 0.0827739 2 0 0.0994487 0.133416
98 1 29.2734 0.3547 0.615275 4 0.0872048 2 0 0.0994487 -0.0816809
99 1 31.5874 0.266128 1.25663 4 0.0697506 3 0 0.0994487 0.830096
100 1 30.7016 0.49015 0.470738 4 0.0783085 2 0 0.0994487 0.354852
101 1 30.1009 1.19877 0.774133 4 0.0877355 2 0 0.0994487 0.21092
102 1 30.8649 0.971942 1.39386 4 0.0808277 2 0 0.0994487 0.703281
103 1 1.11081 2.43607 0.129285 4 0.00148393 2 0 0.0994487 -0.0373225
104 1 0.133403 2.3821 0.812241 4 0.00128884 2 0 0.0994487 -0.984517
105 1 1.28845 3.23764 0.949187 4 0.00183924 2 0 0.0994487 0.222087
106 1 1.13977 2.36077 1.59162 4 0.00155343 2 0 0.0994487 -0.22219
107 1 0.386685 3.02999 1.54944 4 0.00149075 2 0 0.0994487 -0.671256
108 1 0.332248 3.09582 0.131296 4 0.00144499 2 0 0.0994487 -0.59134
109 1 1.90972 2.41867 0.78376 4 0.00189002 2 0 0.0994487 0.0782069
110 1 2.65852 3.28029 0.860875 4 0.00290812 2 0 0.0994487 0.0668015
111 1 2.66931 2.22918 1.53373 4 0.00236106 2 0 0.0994487 0.0829539
112 1 3.2579 3.42668 1.64938 4 0.00373421 2 0 0.0994487 0.00397365
113 1 2.7261 2.38168 0.0557193 4 0.00228346 2 0 0.0994487 0.1466
114 1 3.38195 2.55413 0.779289 4 0.00323977 2 0 0.0994487 0.211581
115 1 4.00679 1.841 0.711184 4 0.00371493 2 0 0.0994487 -0.036126
116 1 4.91383 2.57277 0.815661 4 0.00604889 2 0 0.0994487 -0.259354
117 1 4.20148 3.3175 0.749446 4 0.00530662 2 0 0.0994487 0.00621346
118 1 4.13245 2.64107 1.58328 4 0.00447237 2 0 0.0994487 0.027076
119 1 5.65047 2.44269 0.132743 4 0.00772636 2 0 0.0994487 -0.189926
120 1 6.55776 2.18062 0.772597 4 0.0100376 2 0 0.0994487 -0.289396
121 1 5.64874 3.19593 0.952489 4 0.00885395 2 0 0.0994487 -0.75464
122 1 5.861 2.19426 1.49672 4 0.00784582 2 0 0.0994487 0.012634
123 1 6.52037 3.06691 1.5557 4 0.0114965 2 0 0.0994487 0.044356
124 1 6.65033 2.92778 0.134227 4 0.0112724 2 0 0.0994487 0.0288856
125 1 7.45405 2.22586 0.139832 4 0.0133799 2 0 0.0994487 -0.053504
126 1 8.08209 2.20208 0.930382 4 0.0163719 2 0 0.0994487 -0.302087
127 1 7.40132 3.06835 0.934051 4 0.0155008 2 0 0.0994487 -0.0455429
128 1 7.29928 2.06035 1.56856 4 0.0124176 2 0 0.0994487 -0.0607343
129 1 8.18545 3.00183 1.65211 4 0.0196097 2 0 0.0994487 -0.0454173
130 1 8.26934 2.9712 0.0392146 4 0.0200366 2 0 0.0994487 -0.150618
131 1 8.90393 2.08699 0.252387 4 0.0200629 2 0 0.0994487 0.00243131
132 1 9.77243 2.0246 1.10996 4 0.0253748 2 0 0.0994487 0.173456
133 1 8.92671 2.97262 0.928693 4 0.0245722 2 0 0.0994487 -0.156774
134 1 9.03062 2.22066 1.70398 4 0.0215281 2 0 0.0994487 -0.0819694
135 1 9.56096 2.90576 0.21312 4 0.0280755 2 0 0.0994487 0.173119
136 1 10.2834 2.1137 0.214297 4 0.0279723 2 0 0.0994487 0.337737
137 1 11.1583 1.82604 0.771092 4 0.0360742 2 0 0.0994487 0.260084
138 1 10.6214 2.80819 0.921535 4 0.0380484 2 0 0.0994487 0.541911
139 1 11.4444 2.82964 1.57484 4 0.0489175 2 0 0.0994487 0.0951964
140 1 12.6737 1.94118 0.593851 4 0.0581784 2 0 0.0994487 -0.283938
141 1 11.928 2.64099 0.742299 4 0.0537494 2 0 0.0994487 -0.0386782
142 1 11.9239 1.9206 1.46509 4 0.0461888 2 0 0.0994487 0.09465
143 1 12.8449 3.01766 1.68597 4 0.0728385 2 0 0.0994487 0.036354
144 1 13.1791 3.03035 0.848852 4 0.0797243 2 0 0.0994487 -0.440865
145 1 13.3784 1.9912 1.48064 4 0.0676721 2 0 0.0994487 -0.015073
146 1 14.0206 2.44438 0.927124 4 0.0845105 2 0 0.0994487 -0.133116
147 1 14.0279 3.38359 1.55716 4 0.102113 2 0 0.0994487 0.0255715
148 1 14.6961 3.43698 0.884932 4 0.118459 2 0 0.0994487 -0.332986
149 1 14.7823 2.29758 1.44821 4 0.0942097 2 0 0.0994487 0.0469243
150 1 14.8418 2.51505 0.136557 4 0.0990294 2 0 0.0994487 0.173003
151 1 14.1591 3.2262 0.0325348 4 0.102088 2 0 0.0994487 -0.246107
152 1 13.4137 2.29398 0.0590902 4 0.0735496 2 0 0.0994487 -0.280963
153 1 15.6993 2.44373 0.692668 4 0.11453 2 0 0.0994487 0.364386
154 1 16.3029 3.20095 0.662084 4 0.14668 2 0 0.0994487 0.328582
155 1 16.308 2.47951 1.52575 4 0.12982 2 0 0.0994487 -0.100651
156 1 15.3694 3.25723 1.50191 4 0.12923 2 0 0.0994487 -0.00767252
157 1 15.5706 3.25854 0.0192499 4 0.127675 2 0 0.0994487 0.290236
158 1 17.0646 2.35032 0.682778 4 0.141153 2 0 0.0994487 0.0234768
159 1 17.944 2.92608 0.699539 4 0.179855 2 0 0.0994487 -0.231195
160 1 18.0193 2.43917 1.58112 4 0.163795 2 0 0.0994487 -0.149138
161 1 17.0918 3.1162 1.49491 4 0.166649 2 0 0.0994487 -0.14344
162 1 18.8908 2.35742 1.01358 4 0.174178 2 0 0.0994487 -0.516833
163 1 19.7027 3.2427 1.27782 4 0.213959 2 0 0.0994487 0.394877
164 1 18.884 2.99607 0.196019 4 0.196889 2 0 0.0994487 -0.171811
165 1 19.587 2.34239 0.101452 4 0.180536 2 0 0.0994487 -0.132371
166 1 20.3251 1.78863 1.72442 4 0.16606 2 0 0.0994487 0.0449519
167 1 21.1565 2.41663 0.458355 4 0.190813 2 0 0.0994487 0.196186
168 1 20.1948 2.46882 1.11433 4 0.18643 2 0 0.0994487 0.286737
169 1 21.31 3.29463 1.39314 4 0.233461 2 0 0.0994487 0.0777275
170 1 20.4222 2.99313 0.334941 4 0.207722 2 0 0.0994487 0.186289
171 1 22.8719 2.07007 1.50872 4 0.182748 2 0 0.0994487 -0.022124
172 1 22.9717 2.60199 0.735523 4 0.207399 2 0 0.0994487 0.133326
173 1 22.0961 2.49917 1.23787 4 0.200164 2 0 0.0994487 0.186436
174 1 21.9898 3.20043 0.598797 4 0.23623 2 0 0.0994487 -0.0757518
175 1 22.6771 3.40124 0.07601 4 0.24986 2 0 0.0994487 0.0760732
176 1 23.7438 1.80844 0.624025 4 0.170067 2 0 0.0994487 -0.0873594
177 1 24.4289 1.98763 1.61102 4 0.171743 2 0 0.0994487 -0.0641755
178 1 24.342 2.68296 0.775192 4 0.197371 2 0 0.0994487 -0.341092
179 1 23.6887 2.90303 1.53628 4 0.214323 2 0 0.0994487 -0.110505
180 1 24.4728 3.51078 1.55704 4 0.238698 2 0 0.0994487 -0.118305
181 1 24.9562 2.84566 0.0146836 4 0.192981 2 0 0.0994487 -0.0864593
182 1 26.5483 1.79415 0.511367 4 0.136207 2 0 0.0994487 -0.00559931
183 1 25.1322 1.85613 0.509414 4 0.160517 2 0 0.0994487 -0.0215285
184 1 25.7918 2.61203 0.707489 4 0.174882 2 0 0.0994487 0.228203
185 1 25.1579 2.55548 1.52547 4 0.182956 2 0 0.0994487 0.0576674
186 1 25.7213 3.49812 1.51211 4 0.215888 2 0 0.0994487 0.123858
187 1 26.5364 2.56002 1.53049 4 0.157338 2 0 0.0994487 0.0579485
188 1 26.1686 3.50068 0.599043 4 0.204913 2 0 0.0994487 0.168846
189 1 27.5039 1.98546 1.23792 4 0.124304 2 0 0.0994487 -0.186417
190 1 28.2489 2.09022 0.343734 4 0.115837 2 0 0.0994487 -0.0177244
191 1 27.0867 2.6924 0.645359 4 0.149072 2 0 0.0994487 -0.105599
192 1 27.1998 3.35397 1.41682 4 0.167871 2 0 0.0994487 -0.098327
193 1 28.2537 2.75799 1.20639 4 0.128079 2 0 0.0994487 -0.418305
194 1 27.982 3.21993 0.326384 4 0.143152 2 0 0.0994487 -0.125256
195 1 29.9568 1.80906 1.70764 4 0.0944268 2 0 0.0994487 0.183201
196 1 29.4477 2.04702 0.879698 4 0.102123 2 0 0.0994487 -0.00708174
197 1 29.1956 2.6589 0.290703 4 0.112658 2 0 0.0994487 -0.0578279
198 1 29.2495 3.2651 1.17365 4 0.12347 2 0 0.0994487 0.118637
199 1 30.9114 1.98502 0.924207 4 0.0922216 2 0 0.0994487 0.967251
200 1 30.1815 2.71094 1.00186 4 0.104633 2 0 0.0994487 0.675109
201 1 31.0247 3.35309 0.97101 4 0.109032 2 0 0.0994487 0.998409
202 1 30.9865 2.69483 1.72648 4 0.100227 2 0 0.0994487 0.578501
203 1 30.1092 3.25953 0.132205 4 0.111018 2 0 0.0994487 -0.0443656
204 1 30.4116 1.90909 0.0255368 4 0.092421 2 0 0.0994487 0.106045
205 1 31.1434 2.66402 0.0761253 4 0.0973596 2 0 0.0994487 0.70882
206 1 0.293831 3.78503 0.918557 4 0.0016681 2 0 0.0994487 -0.999347
207 1 0.143046 4.59443 0.482118 4 0.00184339 2 0 0.0994487 -0.784494
208 1 1.14036 4.67093 0.986638 4 0.00234206 2 0 0.0994487 -0.516755
209 1 0.0884667 5.26681 1.27761 4 0.00207533 2 0 0.0994487 -0.887458
210 1 1.04069 3.86421 0.0595682 4 0.00186613 2 0 0.0994487 0.0148876
211 1 1.84117 4.04604 0.847105 4 0.00257975 2 0 0.0994487 0.00826487
212 1 2.54049 4.85585 1.13748 4 0.0038548 2 0 0.0994487 -0.333849
213 1 2.64953 4.14475 0.20674 4 0.00352906 2 0 0.0994487 -0.0285729
214 1 1.89758 4.96895 0.278386 4 0.00317398 2 0 0.0994487 -0.153434
215 1 3.40771 4.86189 0.161635 4 0.00531551 2 0 0.0994487 -0.0163892
216 1 3.494 4.07675 0.885909 4 0.00471652 2 0 0.0994487 0.0268887
217 1 4.91235 4.00001 1.18344 4 0.0079268 2 0 0.0994487 0.0115026
218 1 4.04658 4.88002 1.14639 4 0.00672494 2 0 0.0994487 0.264486
219 1 4.26027 4.18509 0.149001 4 0.00646391 2 0 0.0994487 0.0377371
220 1 5.00947 4.74001 0.341082 4 0.00957327 2 0 0.0994487 0.0765379
221 1 5.77735 3.9378 0.198707 4 0.0103844 2 0 0.0994487 0.0260146
222 1 6.48883 3.76611 0.772067 4 0.0129974 2 0 0.0994487 0.204549
223 1 5.68025 4.73638 1.02487 4 0.0124707 2 0 0.0994487 -0.621705
224 1 6.66321 4.5115 1.6428 4 0.0162464 2 0 0.0994487 0.158931
225 1 6.68072 5.1315 0.885352 4 0.0192853 2 0 0.0994487 0.206846
226 1 8.1982 3.892 0.700757 4 0.0246142 2 0 0.0994487 -0.369906
227 1 7.40842 4.46072 0.5468 4 0.0214844 2 0 0.0994487 -0.0252153
228 1 7.39886 3.87029 1.49684 4 0.0183091 2 0 0.0994487 0.102575
229 1 8.20004 4.61106 1.48677 4 0.0288706 2 0 0.0994487 -0.0118402
230 1 9.8976 3.57792 0.885667 4 0.0374796 2 0 0.0994487 0.592753
231 1 9.07913 4.56551 0.821335 4 0.0377516 2 0 0.0994487 -0.658552
232 1 9.86266 4.50302 0.126324 4 0.0443006 2 0 0.0994487 0.0958635
233 1 9.07829 3.76256 1.49819 4 0.031145 2 0 0.0994487 -0.070888
234 1 9.86881 4.3462 1.65532 4 0.0452365 2 0 0.0994487 -0.0856649
235 1 8.98541 3.86821 0.0631775 4 0.0305691 2 0 0.0994487 -0.138755
236 1 11.408 3.64493 0.778297 4 0.0583781 2 0 0.0994487 0.202061
237 1 10.5891 4.66652 0.906264 4 0.0588276 2 0 0.0994487 0.0450581
238 1 11.3867 4.69403 0.230734 4 0.0738216 2 0 0.0994487 -0.0498931
239 1 10.7059 3.56689 1.58785 4 0.0474269 2 0 0.0994487 -0.0448526
240 1 11.3652 4.3716 1.70545 4 0.0685255 2 0 0.0994487 -0.0798311
241 1 11.3894 5.27213 0.983682 4 0.084346 2 0 0.0994487 -0.67449
242 1 10.5826 3.84888 0.176129 4 0.0472518 2 0 0.0994487 0.210464
243 1 12.5168 3.57716 0.814749 4 0.0770288 2 0 0.0994487 -0.0105829
244 1 12.1916 4.55033 1.00021 4 0.0879888 2 0 0.0994487 0.105025
245 1 12.7362 4.99738 1.68903 4 0.107204 2 0 0.0994487 0.191326
246 1 13.2258 4.67863 0.80017 4 0.11594 2 0 0.0994487 -0.00471419
247 1 12.6435 4.61885 0.0632315 4 0.101424 2 0 0.0994487 -0.033583
248 1 13.9891 4.12825 0.69648 4 0.122066 2 0 0.0994487 -0.430186
249 1 13.4832 4.21781 1.59317 4 0.108759 2 0 0.0994487 0.0820137
250 1 14.2046 5.11838 1.52001 4 0.156648 2 0 0.0994487 -0.0289959
251 1 14.9402 5.01141 0.811699 4 0.177313 2 0 0.0994487 -0.0528224
252 1 14.9642 4.4167 1.59432 4 0.156259 2 0 0.0994487 -0.0635658
253 1 14.1405 4.90647 0.0597868 4 0.148519 2 0 0.0994487 -0.0856977
254 1 14.961 4.19423 0.096508 4 0.145617 2 0 0.0994487 0.0322698
255 1 15.6685 4.06642 0.926277 4 0.161748 2 0 0.0994487 0.872569
256 1 15.8798 4.77595 0.186426 4 0.196194 2 0 0.0994487 0.165386
257 1 16.5936 4.58036 0.900182 4 0.213346 2 0 0.0994487 -0.0790132
258 1 16.3184 3.95875 1.6903 4 0.177396 2 0 0.0994487 -0.043401
259 1 15.8111 5.05317 1.64084 4 0.207541 2 0 0.0994487 0.0994959
260 1 17.2689 3.83372 0.811237 4 0.200638 2 0 0.0994487 -0.345392
261 1 18.0864 4.48855 1.09806 3 0.251459 2 0 0.0994407 -0.612202
262 1 17.9525 3.63794 1.65602 4 0.207354 2 0 0.0994487 -0.192809
263 1 17.4569 4.57727 0.0147963 4 0.236304 2 0 0.0994487 -0.097412
264 1 18.1348 3.8547 0.0583493 4 0.219535 2 0 0.0994487 -0.120519
265 1 18.8779 3.70667 0.95022 4 0.22554 2 0 0.0994487 0.0692084
266 1 18.8235 4.60949 0.361826 3 0.269298 2 0 0.0993319 0.115606
267 1 19.6906 4.67872 1.0803 3 0.304652 2 0 0.0990502 0.931532
268 1 18.7859 5.27693 1.20102 3 0.326926 2 0 0.0988149 0.599198
269 1 19.5987 3.76722 0.227421 4 0.23578 2 0 0.0994487 0.164268
270 1 20.4384 3.82188 1.23329 3 0.256786 2 0 0.0994102 0.325951
271 1 20.8846 4.71868 1.39403 3 0.345789 2 0 0.098571 0.149055
272 1 21.5775 4.95128 0.810455 3 0.396507 2 0 0.0976405 -0.00375752
273 1 21.0824 3.93136 0.512408 3 0.274217 2 0 0.0992984 0.0883013
274 1 20.1339 4.78559 0.352846 3 0.324008 2 0 0.0988488 0.145584
275 1 22.8205 3.63186 1.42135 3 0.265076 2 0 0.0993594 -0.0184003
276 1 21.9406 4.13318 1.31068 3 0.304844 2 0 0.0990484 0.0272026
277 1 22.4705 5.17735 1.27286 3 0.434966 2 0 0.0965569 0.020705
278 1 22.6119 4.34705 0.510028 3 0.32636 2 0 0.0988216 -0.0221071
279 1 23.5735 3.63903 0.782677 3 0.263578 2 0 0.0993689 0.185558
280 1 24.336 4.32055 0.625018 3 0.308158 2 0 0.0990165 -0.150093
281 1 23.4679 4.54946 1.33355 3 0.345915 2 0 0.0985692 -0.0790564
282 1 24.8518 5.25716 0.566763 3 0.381961 2 0 0.0979559 0.0409075
283 1 23.5518 5.06386 0.533607 3 0.404629 2 0 0.0974439 -0.0968895
284 1 25.0086 4.50055 1.62342 3 0.303444 2 0 0.0990615 -0.0421946
285 1 25.0629 3.68037 0.802132 4 0.240485 2 0 0.0994487 -0.187917
286 1 24.363 5.28843 1.43377 3 0.407754 2 0 0.0973641 -0.154709
287 1 25.6904 5.1389 1.34266 3 0.335382 2 0 0.0987112 0.210102
288 1 26.3575 4.29031 1.37159 4 0.242888 2 0 0.0994487 0.149483
289 1 26.5026 4.97257 0.640732 3 0.280881 2 0 0.0992502 0.0989685
290 1 25.5284 4.40089 0.388179 3 0.276809 2 0 0.09928 0.0559484
291 1 27.3302 4.86961 1.40568 4 0.239388 2 0 0.0994487 0.0066114
292 1 27.9624 3.97641 1.10408 4 0.170622 2 0 0.0994487 -0.309503
293 1 28.2771 4.73475 0.706344 4 0.1972 2 0 0.0994487 -0.0812446
294 1 27.0674 4.04323 0.570038 4 0.202563 2 0 0.0994487 0.0120239
295 1 28.9321 3.77016 0.487204 4 0.140501 2 0 0.0994487 -0.00703181
296 1 29.0873 4.52317 1.33085 4 0.163484 2 0 0.0994487 0.057487
297 1 29.9979 4.07209 1.02303 4 0.131376 2 0 0.0994487 -0.275233
298 1 31.0296 3.97382 0.373364 4 0.11885 2 0 0.0994487 0.657583
299 1 30.2046 4.67765 0.491317 4 0.146789 2 0 0.0994487 0.00995913
300 1 30.9783 4.59929 1.41131 4 0.133856 2 0 0.0994487 0.679915
301 1 0.908283 5.53205 0.461647 4 0.00265723 2 0 0.0994487 -0.463785
302 1 1.53161 5.51184 1.37971 4 0.00311335 2 0 0.0994487 -0.117388
303 1 0.793684 6.22023 1.2768 4 0.00301863 2 0 0.0994487 -0.703381
304 1 0.257003 6.91734 1.50738 4 0.00309741 2 0 0.0994487 -0.772633
305 1 0.969942 6.9454 0.573423 4 0.00363768 2 0 0.0994487 -0.473533
306 1 1.7053 7.02884 1.23811 4 0.00434884 2 0 0.0994487 0.0665171
307 1 1.89588 6.19966 0.519025 4 0.00401955 2 0 0.0994487 -0.156401
308 1 3.10475 5.61709 1.30057 4 0.00538307 2 0 0.0994487 0.0402511
309 1 2.26359 6.15348 1.40977 4 0.00437037 2 0 0.0994487 0.0408552
310 1 3.25442 6.96226 1.12748 4 0.0077361 2 0 0.0994487 -0.0541254
311 1 2.68177 5.61289 0.273587 4 0.00467654 2 0 0.0994487 -0.0596866
312 1 3.39503 6.28191 0.500536 4 0.00720578 2 0 0.0994487 -0.121446
313 1 4.18979 5.46246 0.325783 4 0.00816774 2 0 0.0994487 0.0310158
314 1 4.93434 5.42873 1.31778 4 0.0112918 2 0 0.0994487 -0.235102
315 1 4.13622 6.09659 1.22779 4 0.00935491 2 0 0.0994487 -0.0893911
316 1 4.82567 6.23357 0.333842 4 0.0124759 2 0 0.0994487 -0.034578
317 1 4.77312 6.79931 1.15967 4 0.0140105 2 0 0.0994487 -0.305934
318 1 4.00267 7.02511 0.221759 4 0.0104936 2 0 0.0994487 -0.0853454
319 1 5.78575 5.42185 0.301847 4 0.0148758 2 0 0.0994487 0.0125002
320 1 5.6935 6.24342 0.9632 4 0.0174743 2 0 0.0994487 -0.967782
321 1 6.4578 5.98425 1.59671 4 0.0213714 2 0 0.0994487 0.140911
322 1 6.43234 6.86927 1.00965 4 0.0258529 2 0 0.0994487 0.851657
323 1 6.37773 6.04115 0.154639 4 0.0201415 2 0 0.0994487 0.111111
324 1 5.54993 7.05206 0.147147 4 0.0186673 2 0 0.0994487 0.0363846
325 1 8.21355 5.31419 0.694273 4 0.0344131 2 0 0.0994487 -0.0896005
326 1 7.32761 6.15925 0.754293 4 0.0303246 2 0 0.0994487 0.225725
327 1 7.39163 5.41839 1.49138 4 0.0261345 2 0 0.0994487 0.13675
328 1 8.23884 6.11028 1.49159 4 0.042064 2 0 0.0994487 0.0187333
329 1 8.01352 6.85364 0.728993 4 0.0467043 2 0 0.0994487 0.0691771
330 1 7.28191 6.86379 1.59601 4 0.0363671 2 1 0.0994487 0.126025
331 1 7.33029 5.3575 0.0461812 4 0.024467 2 0 0.0994487 0.0813551
332 1 9.76796 5.3194 0.792562 4 0.0544493 2 0 0.0994487 0.328435
333 1 8.88016 6.18865 0.736908 4 0.0527099 2 0 0.0994487 -0.235553
334 1 9.05434 5.3271 1.5973 4 0.0450895 2 0 0.0994487 -0.062834
335 1 9.73844 6.19052 1.46731 4 0.0689105 2 0 0.0994487 -0.106548
336 1 9.09351 6.95013 1.463 4 0.0698039 2 2 0.0994487 -0.0761723
337 1 9.76329 6.23201 0.0941385 4 0.0678264 2 0 0.0994487 -0.0359554
338 1 8.99733 5.46479 0.012702 4 0.0450891 2 0 0.0994487 -0.134756
339 1 10.5831 6.02196 0.964384 4 0.0821714 2 0 0.0994487 -0.356255
340 1 11.3128 6.37134 0.0776634 4 0.100765 2 0 0.0994487 0.10034
341 1 10.5187 6.94145 0.15452 4 0.0970446 2 0 0.0994487 -0.073531
342 1 10.4686 6.92564 1.49614 4 0.101625 2 1 0.0994487 -0.0634887
343 1 11.9994 5.6274 0.183157 4 0.102238 2 0 0.0994487 -0.010534
344 1 12.6757 5.81849 0.861776 4 0.127345 2 0 0.0994487 0.0817094
345 1 11.7774 6.20735 1.05291 4 0.112074 2 0 0.0994487 0.292275
346 1 13.3219 5.86668 1.55471 4 0.148375 2 0 0.0994487 0.208225
347 1 13.3506 6.58297 0.813679 4 0.182036 2 0 0.0994487 -0.291593
348 1 13.3212 5.53867 0.0424813 4 0.140257 2 0 0.0994487 -0.142915
349 1 14.0617 5.71565 0.77266 4 0.173578 2 0 0.0994487 -0.372739
350 1 14.3278 6.65176 1.40646 4 0.236545 2 0 0.0994487 -0.100676
351 1 14.1303 6.38483 0.0380077 4 0.197211 2 0 0.0994487 -0.0826126
352 1 15.0282 5.64393 0.034369 4 0.203573 2 0 0.0994487 0.0573597
353 1 15.8305 5.73813 0.95832 4 0.249171 2 0 0.0994487 0.625718
354 1 15.0472 6.45091 0.806774 3 0.25474 2 0 0.0994221 -0.174527
355 1 16.491 6.45257 1.1401 3 0.342043 2 0 0.0986231 0.204589
356 1 15.1058 5.87594 1.69804 4 0.231361 2 0 0.0994487 -0.0976957
357 1 16.62 5.41933 0.276819 3 0.257029 2 0 0.0994088 0.0799164
358 1 15.6753 6.3382 0.0390223 3 0.268561 2 0 0.0993368 0.0397986
359 1 17.8271 5.30128 0.541411 3 0.291154 2 0 0.0991695 0.150322
360 1 17.113 5.42499 1.24767 3 0.2815 2 0 0.0992456 -0.286862
361 1 17.0619 6.27419 0.411469 3 0.342947 2 0 0.0986107 0.13898
362 1 17.6649 6.24649 1.38542 3 0.380489 2 0 0.0979855 -0.264668
363 1 18.2745 7.0517 1.13153 3 0.495975 2 0 0.0937724 0.690512
364 1 18.3714 6.23173 0.609762 3 0.404773 2 0 0.0974403 0.1562
365 1 19.429 5.75829 0.62055 3 0.400236 2 0 0.0975522 0.0571827
366 1 19.3279 6.55755 1.35081 3 0.499501 2 0 0.0935577 0.290025
367 1 19.9942 6.75229 0.610261 3 0.585833 2 0 0.0855164 -0.011678
368 1 20.7494 5.77593 0.653722 3 0.479326 2 0 0.0946966 -0.104073
369 1 20.1931 5.61076 1.39557 3 0.422977 2 0 0.0969387 0.312609
370 1 20.7787 6.6124 1.30355 3 0.644042 2 0 0.0758348 -0.346244
371 1 21.6592 6.66248 0.666524 3 0.656876 2 0 0.0731025 -0.0434089
372 1 21.6631 5.87866 1.38528 3 0.547655 2 0 0.0898218 0.0421828
373 1 21.6904 5.73259 0.0517844 3 0.498528 2 0 0.0936176 -0.00150259
374 1 22.6732 5.8279 0.674154 3 0.526449 2 0 0.0916668 0.00265501
375 1 22.6319 6.69333 1.20734 3 0.690013 2 0 0.0649799 -0.203623
376 1 23.3484 6.78052 0.267835 3 0.649356 2 0 0.0747312 -0.125365
377 1 23.4822 5.88496 1.30013 3 0.530518 2 0 0.0913392 -0.176368
378 1 24.3197 6.56281 1.15825 3 0.577999 2 0 0.0865156 0.174907
379 1 24.1457 6.00685 0.427617 3 0.506744 2 0 0.0930941 0.00243801
380 1 25.6831 5.86213 0.700952 3 0.403232 2 0 0.0974789 0.163898
381 1 25.1124 6.04132 1.67733 3 0.456729 2 0 0.0957414 0.0036697
382 1 25.1593 6.74159 0.495153 3 0.529523 2 0 0.0914204 0.0903918
383 1 25.8251 6.59457 1.40775 3 0.466533 2 0 0.0953152 0.0881035
384 1 26.6903 5.84511 1.4763 3 0.343242 2 0 0.0986067 0.0917635
385 1 27.4966 5.54334 0.722172 3 0.270772 2 0 0.099322 -0.251569
386 1 26.7485 6.36567 0.651888 3 0.380088 2 0 0.0979934 0.038753
387 1 27.7011 6.47315 1.36539 3 0.32434 2 0 0.098845 0.131495
388 1 28.3648 5.52203 1.4872 4 0.231676 2 0 0.0994487 0.0456345
389 1 27.7097 7.0074 0.530173 3 0.356831 2 0 0.0984058 0.0321263
390 1 29.3889 5.30889 0.818726 4 0.190078 2 0 0.0994487 0.316728
391 1 29.4379 6.18214 1.32212 4 0.220539 2 0 0.0994487 -0.00337972
392 1 29.5784 6.89773 0.506505 4 0.245261 2 0 0.0994487 0.0925883
393 1 28.4685 6.20589 0.638647 3 0.258698 2 0 0.0993989 -0.270078
394 1 29.3762 6.15398 0.0801838 4 0.221006 2 0 0.0994487 0.0969268
395 1 28.4822 5.38976 0.0592959 4 0.218201 2 0 0.0994487 -0.105003
396 1 30.9636 5.36838 0.595026 4 0.16255 2 0 0.0994487 0.667848
397 1 30.2159 5.45949 1.46813 4 0.173217 2 0 0.0994487 0.0540221
398 1 30.3958 6.18258 0.649752 4 0.19701 2 0 0.0994487 0.329003
399 1 31.2189 6.15516 1.38439 4 0.181819 2 0 0.0994487 0.587258
400 1 31.1994 6.95407 0.60342 4 0.208822 2 0 0.0994487 0.812253
401 1 31.7235 5.99622 0.446564 4 0.173201 2 0 0.0994487 0.879729
402 1 0.261851 7.63199 0.661866 4 0.00354781 2 0 0.0994487 -0.876374
403 1 0.831025 8.46344 0.61936 4 0.0043448 2 0 0.0994487 -0.577626
404 1 1.11211 7.86396 1.49711 4 0.00420114 2 0 0.0994487 -0.154429
405 1 0.356955 8.5626 1.47035 4 0.00399846 2 0 0.0994487 -0.764984
406 1 1.59266 7.76478 0.37187 4 0.00479217 2 0 0.0994487 -0.0897884
407 1 1.72382 8.61735 1.46471 4 0.00549624 2 0 0.0994487 0.0395963
408 1 2.48799 7.14986 0.476331 4 0.00597564 2 0 0.0994487 -0.0836974
409 1 2.19177 8.6335 0.399707 4 0.00661102 2 0 0.0994487 -0.137268
410 1 2.39416 7.81099 1.27726 4 0.00628751 2 0 0.0994487 0.086991
411 1 3.01349 8.51445 0.935533 4 0.008872 2 0 0.0994487 -0.539317
412 1 3.24418 7.77117 0.327041 4 0.00883841 2 0 0.0994487 -0.196206
413 1 3.81243 8.45898 0.0822892 4 0.0115825 2 0 0.0994487 -0.0457795
414 1 3.97971 7.67009 1.24863 4 0.0115403 2 0 0.0994487 -0.0554909
415 1 4.70459 8.25653 0.921772 4 0.0163351 2 0 0.0994487 0.29532
416 1 4.67023 7.63706 0.247803 4 0.0146321 2 0 0.0994487 0.0376898
417 1 3.81127 8.34851 1.76162 4 0.0116383 2 0 0.0994487 -0.0574367
418 1 5.86955 8.34822 0.169905 4 0.0253134 2 0 0.0994487 0.113103
419 1 5.48363 7.59071 1.03232 4 0.0207826 2 0 0.0994487 -0.467674
420 1 6.49365 7.53799 0.169175 4 0.0289072 2 0 0.0994487 0.18762
421 1 6.39674 8.23976 1.04384 4 0.0329812 2 0 0.0994487 0.338048
422 1 7.28583 7.76918 0.746313 4 0.0440262 2 1 0.0994487 0.00985533
423 1 8.2859 8.31376 0.868772 4 0.0709907 2 2 0.0994487 0.278023
424 1 7.27857 8.18368 1.7015 4 0.0511048 2 2 0.0994487 -0.175052
425 1 8.05208 7.48784 1.5604 4 0.0567479 2 1 0.0994487 0.184958
426 1 7.99895 7.60312 0.0282118 4 0.0525657 2 0 0.0994487 0.0674097
427 1 9.84313 7.22199 0.72344 4 0.0907235 2 1 0.0994487 -0.346977
428 1 8.91207 7.61626 0.661731 4 0.0741039 2 1 0.0994487 0.158491
429 1 9.73234 8.61964 0.693151 4 0.11725 2 3 0.0994487 -0.256888
430 1 9.09265 8.69904 1.44495 4 0.106612 2 9 0.0994487 -0.393263
431 1 9.64026 7.88932 1.60055 4 0.109291 2 8 0.0994487 -0.340389
432 1 11.3161 7.14287 0.810636 4 0.124726 2 1 0.0994487 0.448061
433 1 10.5731 7.9454 0.844311 4 0.12752 2 3 0.0994487 -0.197775
434 1 10.5877 8.70196 1.4255 4 0.151201 1 8 0.0994487 -0.146987
435 1 11.4057 7.80503 1.60301 4 0.159153 2 4 0.0994487 0.215004
436 1 11.227 8.11851 0.0422735 4 0.141652 2 0 0.0994487 0.17432
437 1 12.7061 7.28322 0.565784 4 0.184902 2 0 0.0994487 -0.0538158
438 1 12.178 8.23518 0.590765 4 0.191228 2 1 0.0994487 0.161923
439 1 12.0637 7.15788 1.37768 4 0.154967 2 2 0.0994487 0.134292
440 1 12.0887 8.68064 1.49044 4 0.215816 1 3 0.0994487 0.0759508
441 1 12.8601 7.99585 1.47598 4 0.238582 2 2 0.0994487 -0.24679
442 1 14.3373 7.3542 0.580954 3 0.266469 2 0 0.0993505 0.0677215
443 1 13.6169 8.09282 0.464536 3 0.262342 2 0 0.0993766 0.0268711
444 1 13.458 7.34024 1.34133 4 0.233329 2 0 0.0994487 0.0661571
445 1 14.2471 8.18371 1.35246 3 0.326657 2 0 0.0988181 0.173605
446 1 16.4328 7.18497 0.276798 3 0.388422 2 0 0.0978214 -0.0655573
447 1 15.6276 7.3114 0.923132 3 0.35948 2 0 0.0983634 -0.448451
448 1 15.0689 8.29247 0.865596 3 0.384443 2 0 0.0979053 -0.336072
449 1 16.2796 8.1617 1.10431 0 0.468201 1 0 0.0952388 -0.33736
450 1 15.1452 7.52269 1.62484 3 0.364301 2 0 0.0982835 -0.399013
451 1 15.8668 8.31534 0.152632 3 0.435296 2 0 0.0965458 -0.193866
452 1 16.977 7.36262 1.11681 3 0.453989 2 0 0.0958537 0.322059
453 1 17.0683 8.10487 0.342208 3 0.502719 2 0 0.0933556 0.0314541