ITEM: TIMESTEP
19000
ITEM: NUMBER OF ATOMS
9495
ITEM: BOX BOUNDS mm mm mm
0.0000000000000000e+00 3.1748021039364001e+01
0.0000000000000000e+00 3.1748021039364001e+01
-7.4072398406925706e-04 3.1748021039364001e+01
ITEM: ATOMS id type x y z c_phase c_temp c_surf c_nbond c_visc f_3[1]
1 1 0.116341 1.10259 0.464337 4 1.89836e-08 2 0 0.0994487 -0.68194
2 1 0.974108 1.6685 0.77798 4 4.83884e-08 2 0 0.0994487 -0.517031
3 1 0.714648 0.793562 1.41295 4 2.65501e-08 2 0 0.0994487 -0.281794
4 1 0.00336375 1.60273 1.37437 4 2.28463e-08 2 0 0.0994487 -0.804051
5 1 0.729896 0.0633724 0.61602 4 1.69273e-08 3 0 0.0994487 -0.190374
6 1 1.71015 0.808983 1.0155 4 6.7726e-08 2 0 0.0994487 -0.332068
7 1 1.80059 1.47468 0.221075 4 8.09936e-08 2 0 0.0994487 -0.125829
8 1 1.82015 1.66049 1.76126 4 9.51247e-08 2 0 0.0994487 -0.139533
9 1 2.52093 0.749102 0.203812 4 1.14554e-07 2 0 0.0994487 -0.142939
10 1 2.59149 0.0538711 1.03726 4 1.05961e-07 2 0 0.0994487 -0.295004
11 1 2.64922 1.541 0.882848 4 1.92084e-07 2 0 0.0994487 0.235759
12 1 2.66829 0.815502 1.7457 4 1.43225e-07 2 0 0.0994487 -0.18704
13 1 3.43386 0.933692 0.956349 4 3.12593e-07 2 0 0.0994487 0.320245
14 1 3.49924 0.0925696 1.70571 4 2.00543e-07 2 0 0.0994487 0.178054
15 1 3.60652 1.70798 1.71994 4 4.74436e-07 2 0 0.0994487 0.048796
16 1 4.10576 0.858321 0.325305 4 5.4114e-07 2 0 0.0994487 0.153147
17 1 4.96159 0.56786 1.17466 4 1.17489e-06 2 0 0.0994487 -0.0370655
18 1 4.91949 1.59987 0.383508 4 1.61077e-06 2 0 0.0994487 -0.100246
19 1 4.3472 0.941527 1.62884 4 7.03297e-07 2 0 0.0994487 0.110739
20 1 3.47612 0.111428 0.171027 4 1.84567e-07 2 0 0.0994487 0.166216
21 1 5.64741 0.645627 0.325839 4 2.10793e-06 2 0 0.0994487 -0.0806038
22 1 5.88414 1.31048 0.938036 4 3.2778e-06 2 0 0.0994487 -0.199575
23 1 6.57478 1.39104 0.218369 4 5.7401e-06 2 0 0.0994487 -0.086132
24 1 5.78374 0.460658 1.69897 4 2.09587e-06 2 0 0.0994487 -0.0846514
25 1 5.03122 1.72414 1.43602 4 1.79714e-06 2 0 0.0994487 0.045374
26 1 6.7138 0.39031 0.865278 4 4.66696e-06 2 0 0.0994487 -0.0793805
27 1 6.69104 1.00962 1.69374 4 5.16093e-06 2 0 0.0994487 -0.107922
28 1 8.2679 0.408875 1.07337 4 1.41313e-05 2 0 0.0994487 -0.100165
29 1 7.36782 1.22285 0.954198 4 1.00175e-05 2 0 0.0994487 -0.302543
30 1 8.24709 1.39092 0.236779 4 1.94716e-05 2 0 0.0994487 -0.0460624
31 1 8.12868 1.27217 1.60653 4 1.66309e-05 2 0 0.0994487 -0.00811513
32 1 7.58247 0.647807 0.140287 4 9.29425e-06 2 0 0.0994487 -0.110935
33 1 8.85849 0.508506 0.273966 4 2.11754e-05 2 0 0.0994487 -0.0616451
34 1 9.55301 0.3386 0.888639 4 3.25378e-05 2 0 0.0994487 0.0050656
35 1 9.02586 1.30716 1.1133 4 3.29611e-05 2 0 0.0994487 -0.0606394
37 1 9.63995 1.37474 0.0900752 4 4.47759e-05 2 0 0.0994487 0.0992925
38 1 11.2128 0.215893 0.632658 4 9.19049e-05 2 0 0.0994487 0.203505
39 1 10.3637 1.04743 0.823114 4 6.98938e-05 2 0 0.0994487 0.539891
40 1 10.523 0.196295 1.44539 4 5.79251e-05 2 0 0.0994487 0.0644298
41 1 11.2856 1.01846 1.41785 4 0.000135087 2 0 0.0994487 0.16471
42 1 10.5797 1.67706 1.72992 4 0.000106935 2 0 0.0994487 0.118166
43 1 10.2431 0.367861 0.0780499 4 4.28809e-05 2 0 0.0994487 0.149802
44 1 12.8757 0.211714 0.636805 4 0.000275624 2 0 0.0994487 0.0587891
45 1 12.0457 1.07408 0.506655 4 0.000233462 2 0 0.0994487 -0.0235491
46 1 12.1319 0.316439 1.29957 4 0.00018639 2 0 0.0994487 0.0188383
47 1 12.7194 1.19864 1.3723 4 0.000371878 2 0 0.0994487 -0.0305247
48 1 14.3729 0.318493 0.764646 4 0.000652824 2 0 0.0994487 -0.0460373
49 1 13.5924 1.113 0.843618 4 0.000604134 2 0 0.0994487 -0.263049
50 1 14.0399 1.55958 0.167469 4 0.000887664 2 0 0.0994487 -0.089824
51 1 13.6075 0.359834 1.6352 4 0.000429221 2 0 0.0994487 -0.0562622
52 1 14.3777 1.14948 1.47647 4 0.000839062 2 0 0.0994487 -0.017826
53 1 14.8761 1.55337 0.662943 4 0.00127038 2 0 0.0994487 0.389951
54 1 15.7061 0.770636 0.788259 4 0.00137248 2 0 0.0994487 0.366485
55 1 16.5532 1.54451 0.681338 4 0.00288886 2 0 0.0994487 0.000807157
56 1 15.1422 0.4642 1.64149 4 0.00090511 2 0 0.0994487 0.152078
57 1 16.547 0.712289 1.3421 4 0.00209958 2 0 0.0994487 0.0956277
58 1 15.6341 1.48544 1.3916 4 0.00178972 2 0 0.0994487 0.153633
59 1 15.1049 0.711806 0.0677822 4 0.000898375 2 0 0.0994487 0.169203
60 1 17.2544 0.732268 0.547589 4 0.0027668 2 0 0.0994487 0.0286308
61 1 17.9231 1.58109 0.757246 4 0.00490908 2 0 0.0994487 0.0415646
62 1 17.916 0.742935 1.42801 4 0.00364199 2 0 0.0994487 -0.224376
63 1 17.2202 1.74884 1.56274 4 0.00425998 2 0 0.0994487 -0.0984825
64 1 19.5372 0.0167772 0.662766 4 0.00398336 2 0 0.0994487 0.0436442
65 1 18.7918 0.725074 0.684829 4 0.00440794 2 0 0.0994487 -0.269944
66 1 19.5395 1.55488 0.841653 4 0.00731652 2 0 0.0994487 -0.34116
67 1 19.0276 0.158607 1.54508 4 0.00387352 2 0 0.0994487 -0.158664
68 1 19.5934 0.967491 1.68957 4 0.00562747 2 0 0.0994487 0.00835156
69 1 18.6564 1.51302 1.50035 4 0.00592003 2 0 0.0994487 -0.250306
70 1 21.0889 0.349843 1.06749 4 0.00576708 2 0 0.0994487 -0.196126
71 1 20.2493 0.776373 0.980057 4 0.00597776 2 0 0.0994487 -0.0497597
72 1 21.1062 1.65725 0.951506 4 0.00930115 2 0 0.0994487 0.692918
73 1 21.1874 0.765598 0.218806 4 0.00632273 2 0 0.0994487 -0.0445902
74 1 20.3457 1.51479 0.193617 4 0.00795921 2 0 0.0994487 -0.0806018
75 1 22.0087 0.262534 0.539755 4 0.0058181 2 0 0.0994487 0.0993599
76 1 22.7913 0.430275 1.40734 4 0.00629954 2 0 0.0994487 0.2066
77 1 22.1105 1.14763 1.32981 4 0.00780812 2 0 0.0994487 0.240025
78 1 21.9982 1.59955 0.538558 4 0.00968422 2 0 0.0994487 0.185173
79 1 22.9157 1.07463 0.445168 4 0.00776336 2 0 0.0994487 0.0520855
80 1 24.228 0.380179 1.45209 4 0.00614985 2 0 0.0994487 0.0576173
81 1 23.5672 0.357563 0.57369 4 0.00622872 2 0 0.0994487 0.0385717
82 1 24.4367 1.18687 0.754729 4 0.00816575 2 0 0.0994487 -0.0192943
83 1 23.4757 1.2499 1.4028 4 0.00873067 2 0 0.0994487 0.0298786
84 1 24.955 0.315686 0.551996 4 0.00552474 2 0 0.0994487 -0.0171981
85 1 26.0085 0.383365 1.1715 4 0.00460069 2 0 0.0994487 -0.185859
86 1 25.169 1.12579 1.48087 4 0.00734469 2 0 0.0994487 0.0251059
87 1 25.9301 1.73476 1.35794 4 0.00832447 2 0 0.0994487 0.0345372
88 1 25.8917 0.929212 0.432102 4 0.00561855 2 0 0.0994487 -0.095419
89 1 27.5736 1.28032 0.38906 4 0.00396107 2 0 0.0994487 0.0454497
90 1 27.6142 0.50928 0.874321 4 0.00311431 2 0 0.0994487 0.175388
91 1 26.7559 1.02809 1.26347 4 0.00461722 2 0 0.0994487 -0.236885
92 1 28.3748 0.337482 1.39813 4 0.00224802 2 0 0.0994487 0.00984472
93 1 26.7925 0.240345 0.226621 4 0.00344031 2 0 0.0994487 0.0380751
94 1 28.6489 1.24263 0.742341 4 0.00279212 2 0 0.0994487 0.102406
95 1 29.3912 0.945639 1.56878 4 0.00184355 2 0 0.0994487 -0.0192005
96 1 28.5228 1.71921 1.49749 4 0.00340478 2 0 0.0994487 -0.0429804
97 1 29.8133 0.173958 1.46124 4 0.0012742 2 0 0.0994487 0.133416
98 1 29.2734 0.3547 0.615275 4 0.00157914 2 0 0.0994487 -0.081681
99 1 31.5874 0.266128 1.25663 4 0.000637667 3 0 0.0994487 0.830097
100 1 30.7016 0.49015 0.470738 4 0.00101799 2 0 0.0994487 0.354852
101 1 30.1009 1.19877 0.774133 4 0.00161136 2 0 0.0994487 0.21092
102 1 30.8649 0.971942 1.39386 4 0.00116381 2 0 0.0994487 0.703281
103 1 1.11081 2.43607 0.129285 4 6.21127e-08 2 0 0.0994487 -0.037322
104 1 0.133403 2.3821 0.812241 4 3.63894e-08 2 0 0.0994487 -0.984517
105 1 1.28845 3.23764 0.949187 4 1.22574e-07 2 0 0.0994487 0.222096
106 1 1.13977 2.36077 1.59162 4 7.39985e-08 2 0 0.0994487 -0.222189
107 1 0.386685 3.02999 1.54944 4 5.65948e-08 2 0 0.0994487 -0.671256
108 1 0.332248 3.09582 0.131296 4 4.94724e-08 2 0 0.0994487 -0.59134
109 1 1.90972 2.41867 0.78376 4 1.42519e-07 2 0 0.0994487 0.0782107
110 1 2.65852 3.28029 0.860875 4 4.44962e-07 2 0 0.0994487 0.0668062
111 1 2.66931 2.22918 1.53373 4 2.61981e-07 2 0 0.0994487 0.0829561
112 1 3.2579 3.42668 1.64938 4 7.97625e-07 2 0 0.0994487 0.00397641
113 1 2.7261 2.38168 0.0557193 4 2.33537e-07 2 0 0.0994487 0.146601
114 1 3.38195 2.55413 0.779289 4 5.93383e-07 2 0 0.0994487 0.211586
115 1 4.00679 1.841 0.711184 4 7.87969e-07 2 0 0.0994487 -0.0361211
116 1 4.91383 2.57277 0.815661 4 2.46404e-06 2 0 0.0994487 -0.259346
117 1 4.20148 3.3175 0.749446 4 1.83773e-06 2 0 0.0994487 0.00621786
118 1 4.13245 2.64107 1.58328 4 1.22699e-06 2 0 0.0994487 0.0270793
119 1 5.65047 2.44269 0.132743 4 4.10878e-06 2 0 0.0994487 -0.189924
120 1 6.55776 2.18062 0.772597 4 7.93506e-06 2 0 0.0994487 -0.28937
121 1 5.64874 3.19593 0.952489 4 5.98253e-06 2 0 0.0994487 -0.754627
122 1 5.861 2.19426 1.49672 4 4.38589e-06 2 0 0.0994487 0.0126375
123 1 6.52037 3.06691 1.5557 4 1.10272e-05 2 0 0.0994487 0.0443596
124 1 6.65033 2.92778 0.134227 4 1.03597e-05 2 0 0.0994487 0.0288883
125 1 7.45405 2.22586 0.139832 4 1.55602e-05 2 0 0.0994487 -0.0535006
126 1 8.08209 2.20208 0.930382 4 2.58815e-05 2 0 0.0994487 -0.302058
127 1 7.40132 3.06835 0.934051 4 2.30402e-05 2 0 0.0994487 -0.0455
128 1 7.29928 2.06035 1.56856 4 1.29488e-05 2 0 0.0994487 -0.060731
129 1 8.18545 3.00183 1.65211 4 3.90828e-05 2 0 0.0994487 -0.045414
130 1 8.26934 2.9712 0.0392146 4 4.06684e-05 2 0 0.0994487 -0.150615
131 1 8.90393 2.08699 0.252387 4 4.11754e-05 2 0 0.0994487 0.00243533
132 1 9.77243 2.0246 1.10996 4 7.53774e-05 2 0 0.0994487 0.173472
133 1 8.92671 2.97262 0.928693 4 6.86063e-05 2 0 0.0994487 -0.156741
134 1 9.03062 2.22066 1.70398 4 4.92957e-05 2 0 0.0994487 -0.0819663
135 1 9.56096 2.90576 0.21312 4 9.34249e-05 2 0 0.0994487 0.173122
136 1 10.2834 2.1137 0.214297 4 9.41569e-05 2 0 0.0994487 0.33774
137 1 11.1583 1.82604 0.771092 4 0.000176089 2 0 0.0994487 0.260092
138 1 10.6214 2.80819 0.921535 4 0.000201049 2 0 0.0994487 0.541924
139 1 11.4444 2.82964 1.57484 4 0.000356373 2 0 0.0994487 0.095202
140 1 12.6737 1.94118 0.593851 4 0.000528368 2 0 0.0994487 -0.283931
141 1 11.928 2.64099 0.742299 4 0.000449296 2 0 0.0994487 -0.0386708
142 1 11.9239 1.9206 1.46509 4 0.000308977 2 0 0.0994487 0.0946561
143 1 12.8449 3.01766 1.68597 4 0.000902721 2 0 0.0994487 0.036358
144 1 13.1791 3.03035 0.848852 4 0.00115094 2 0 0.0994487 -0.440852
145 1 13.3784 1.9912 1.48064 4 0.000755566 2 0 0.0994487 -0.0150688
146 1 14.0206 2.44438 0.927124 4 0.00134719 2 0 0.0994487 -0.133094
147 1 14.0279 3.38359 1.55716 4 0.00209063 2 0 0.0994487 0.0255757
148 1 14.6961 3.43698 0.884932 4 0.00306879 2 0 0.0994487 -0.332952
149 1 14.7823 2.29758 1.44821 4 0.0017822 2 0 0.0994487 0.0469283
150 1 14.8418 2.51505 0.136557 4 0.00198727 2 0 0.0994487 0.173006
151 1 14.1591 3.2262 0.0325348 4 0.00207389 2 0 0.0994487 -0.246104
152 1 13.4137 2.29398 0.0590902 4 0.000913144 2 0 0.0994487 -0.280961
153 1 15.6993 2.44373 0.692668 4 0.0029729 2 0 0.0994487 0.364395
154 1 16.3029 3.20095 0.662084 4 0.00555485 2 0 0.0994487 0.328589
155 1 16.308 2.47951 1.52575 4 0.00413191 2 0 0.0994487 -0.100646
156 1 15.3694 3.25723 1.50191 4 0.00389377 2 0 0.0994487 -0.00766826
157 1 15.5706 3.25854 0.0192499 4 0.00369765 2 0 0.0994487 0.290238
158 1 17.0646 2.35032 0.682778 4 0.00520919 2 0 0.0994487 0.0234822
159 1 17.944 2.92608 0.699539 4 0.00985645 2 0 0.0994487 -0.23119
160 1 18.0193 2.43917 1.58112 4 0.00779776 2 0 0.0994487 -0.149134
161 1 17.0918 3.1162 1.49491 4 0.00786323 2 0 0.0994487 -0.143434
162 1 18.8908 2.35742 1.01358 4 0.00947815 2 0 0.0994487 -0.516827
163 1 19.7027 3.2427 1.27782 4 0.0171235 2 0 0.0994487 0.394881
164 1 18.884 2.99607 0.196019 4 0.0128213 2 0 0.0994487 -0.171809
165 1 19.587 2.34239 0.101452 4 0.010624 2 0 0.0994487 -0.13237
166 1 20.3251 1.78863 1.72442 4 0.00866895 2 0 0.0994487 0.0449539
167 1 21.1565 2.41663 0.458355 4 0.014008 2 0 0.0994487 0.196189
168 1 20.1948 2.46882 1.11433 4 0.0123646 2 0 0.0994487 0.286747
169 1 21.31 3.29463 1.39314 4 0.0242891 2 0 0.0994487 0.0777306
170 1 20.4222 2.99313 0.334941 4 0.0167823 2 0 0.0994487 0.186291
171 1 22.8719 2.07007 1.50872 4 0.013501 2 0 0.0994487 -0.0221222
172 1 22.9717 2.60199 0.735523 4 0.0193131 2 0 0.0994487 0.133329
173 1 22.0961 2.49917 1.23787 4 0.0169304 2 0 0.0994487 0.186441
174 1 21.9898 3.20043 0.598797 4 0.0257621 2 0 0.0994487 -0.0757479
175 1 22.6771 3.40124 0.07601 4 0.0295903 2 0 0.0994487 0.0760742
176 1 23.7438 1.80844 0.624025 4 0.0113729 2 0 0.0994487 -0.0873577
177 1 24.4289 1.98763 1.61102 4 0.0121867 2 0 0.0994487 -0.0641747
178 1 24.342 2.68296 0.775192 4 0.0180208 2 0 0.0994487 -0.34109
179 1 23.6887 2.90303 1.53628 4 0.0216238 2 0 0.0994487 -0.110503
180 1 24.4728 3.51078 1.55704 4 0.028655 2 0 0.0994487 -0.118304
181 1 24.9562 2.84566 0.0146836 4 0.0170449 2 0 0.0994487 -0.086459
182 1 26.5483 1.79415 0.511367 4 0.0070164 2 0 0.0994487 -0.00559935
183 1 25.1322 1.85613 0.509414 4 0.0104199 2 0 0.0994487 -0.021528
184 1 25.7918 2.61203 0.707489 4 0.0138518 2 0 0.0994487 0.228203
185 1 25.1579 2.55548 1.52547 4 0.015162 2 0 0.0994487 0.0576678
186 1 25.7213 3.49812 1.51211 4 0.0231514 2 0 0.0994487 0.123858
187 1 26.5364 2.56002 1.53049 4 0.0107362 2 0 0.0994487 0.0579483
188 1 26.1686 3.50068 0.599043 4 0.0206096 2 0 0.0994487 0.168846
189 1 27.5039 1.98546 1.23792 4 0.0055624 2 0 0.0994487 -0.186417
190 1 28.2489 2.09022 0.343734 4 0.00443332 2 0 0.0994487 -0.0177244
191 1 27.0867 2.6924 0.645359 4 0.00945004 2 0 0.0994487 -0.1056
192 1 27.1998 3.35397 1.41682 4 0.0128461 2 0 0.0994487 -0.0983276
193 1 28.2537 2.75799 1.20639 4 0.00610781 2 0 0.0994487 -0.418305
194 1 27.982 3.21993 0.326384 4 0.00833339 2 0 0.0994487 -0.125257
195 1 29.9568 1.80906 1.70764 4 0.00210349 2 0 0.0994487 0.183201
196 1 29.4477 2.04702 0.879698 4 0.00284786 2 0 0.0994487 -0.00708251
197 1 29.1956 2.6589 0.290703 4 0.00392156 2 0 0.0994487 -0.0578281
198 1 29.2495 3.2651 1.17365 4 0.00513776 2 0 0.0994487 0.118635
199 1 30.9114 1.98502 0.924207 4 0.00180212 2 0 0.0994487 0.967251
200 1 30.1815 2.71094 1.00186 4 0.00285681 2 0 0.0994487 0.675111
201 1 31.0247 3.35309 0.97101 4 0.00291045 2 0 0.0994487 0.998409
202 1 30.9865 2.69483 1.72648 4 0.0022538 2 0 0.0994487 0.578502
203 1 30.1092 3.25953 0.132205 4 0.00336114 2 0 0.0994487 -0.0443657
204 1 30.4116 1.90909 0.0255368 4 0.0018414 2 0 0.0994487 0.106045
205 1 31.1434 2.66402 0.0761253 4 0.00204163 2 0 0.0994487 0.70882
206 1 0.293831 3.78503 0.918557 4 7.38755e-08 2 0 0.0994487 -0.999347
207 1 0.143046 4.59443 0.482118 4 8.7677e-08 2 0 0.0994487 -0.784494
208 1 1.14036 4.67093 0.986638 4 2.04335e-07 2 0 0.0994487 -0.51675
209 1 0.0884667 5.26681 1.27761 4 1.09112e-07 2 0 0.0994487 -0.887458
210 1 1.04069 3.86421 0.0595682 4 1.15425e-07 2 0 0.0994487 0.0148882
211 1 1.84117 4.04604 0.847105 4 3.03419e-07 2 0 0.0994487 0.00827163
212 1 2.54049 4.85585 1.13748 4 7.97087e-07 2 0 0.0994487 -0.333844
213 1 2.64953 4.14475 0.20674 4 6.54046e-07 2 0 0.0994487 -0.0285713
214 1 1.89758 4.96895 0.278386 4 4.59923e-07 2 0 0.0994487 -0.153433
215 1 3.40771 4.86189 0.161635 4 1.70878e-06 2 0 0.0994487 -0.0163869
216 1 3.494 4.07675 0.885909 4 1.37953e-06 2 0 0.0994487 0.0268978
217 1 4.91235 4.00001 1.18344 4 4.63721e-06 2 0 0.0994487 0.0115188
218 1 4.04658 4.88002 1.14639 4 3.12036e-06 2 0 0.0994487 0.264493
219 1 4.26027 4.18509 0.149001 4 2.71834e-06 2 0 0.0994487 0.0377393
220 1 5.00947 4.74001 0.341082 4 6.67158e-06 2 0 0.0994487 0.0765421
221 1 5.77735 3.9378 0.198707 4 8.12052e-06 2 0 0.0994487 0.026017
222 1 6.48883 3.76611 0.772067 4 1.47366e-05 2 0 0.0994487 0.204558
223 1 5.68025 4.73638 1.02487 4 1.23427e-05 2 0 0.0994487 -0.621671
224 1 6.66321 4.5115 1.6428 4 2.2993e-05 2 0 0.0994487 0.158936
225 1 6.68072 5.1315 0.885352 4 3.26937e-05 2 0 0.0994487 0.206867
226 1 8.1982 3.892 0.700757 4 6.42772e-05 2 0 0.0994487 -0.369896
227 1 7.40842 4.46072 0.5468 4 4.39606e-05 2 0 0.0994487 -0.0252094
228 1 7.39886 3.87029 1.49684 4 3.22876e-05 2 0 0.0994487 0.10258
229 1 8.20004 4.61106 1.48677 4 8.65403e-05 2 0 0.0994487 -0.0118343
230 1 9.8976 3.57792 0.885667 4 0.000181931 2 0 0.0994487 0.59282
231 1 9.07913 4.56551 0.821335 4 0.00016255 2 0 0.0994487 -0.658531
232 1 9.86266 4.50302 0.126324 4 0.000237824 2 0 0.0994487 0.0958671
233 1 9.07829 3.76256 1.49819 4 0.000112941 2 0 0.0994487 -0.0708833
234 1 9.86881 4.3462 1.65532 4 0.000256102 2 0 0.0994487 -0.0856605
235 1 8.98541 3.86821 0.0631775 4 0.000103964 2 0 0.0994487 -0.138752
236 1 11.408 3.64493 0.778297 4 0.000521753 2 0 0.0994487 0.20207
237 1 10.5891 4.66652 0.906264 4 0.000476399 2 0 0.0994487 0.0450918
238 1 11.3867 4.69403 0.230734 4 0.000808538 2 0 0.0994487 -0.049888
239 1 10.7059 3.56689 1.58785 4 0.00031692 2 0 0.0994487 -0.0448472
240 1 11.3652 4.3716 1.70545 4 0.000696458 2 0 0.0994487 -0.079826
241 1 11.3894 5.27213 0.983682 4 0.00103845 2 0 0.0994487 -0.674472
242 1 10.5826 3.84888 0.176129 4 0.00030338 2 0 0.0994487 0.210468
243 1 12.5168 3.57716 0.814749 4 0.00101982 2 0 0.0994487 -0.0105741
244 1 12.1916 4.55033 1.00021 4 0.00128425 2 0 0.0994487 0.105059
245 1 12.7362 4.99738 1.68903 4 0.00197522 2 0 0.0994487 0.19133
246 1 13.2258 4.67863 0.80017 4 0.00253221 2 0 0.0994487 -0.00469528
247 1 12.6435 4.61885 0.0632315 4 0.00175141 2 0 0.0994487 -0.0335795
248 1 13.9891 4.12825 0.69648 4 0.00306327 2 0 0.0994487 -0.430177
249 1 13.4832 4.21781 1.59317 4 0.00227105 2 0 0.0994487 0.0820185
250 1 14.2046 5.11838 1.52001 4 0.00514427 2 0 0.0994487 -0.0289908
251 1 14.9402 5.01141 0.811699 4 0.00713696 2 0 0.0994487 -0.0527229
252 1 14.9642 4.4167 1.59432 4 0.00555663 2 0 0.0994487 -0.0635619
253 1 14.1405 4.90647 0.0597868 4 0.00448637 2 0 0.0994487 -0.0856943
254 1 14.961 4.19423 0.096508 4 0.00473607 2 0 0.0994487 0.0322729
255 1 15.6685 4.06642 0.926277 4 0.00648734 2 0 0.0994487 0.872595
256 1 15.8798 4.77595 0.186426 4 0.00958118 2 0 0.0994487 0.16539
257 1 16.5936 4.58036 0.900182 4 0.0126057 2 0 0.0994487 -0.0789814
258 1 16.3184 3.95875 1.6903 4 0.00836716 2 0 0.0994487 -0.0433971
259 1 15.8111 5.05317 1.64084 4 0.0105588 2 0 0.0994487 0.0994992
260 1 17.2689 3.83372 0.811237 4 0.0120006 2 0 0.0994487 -0.345385
261 1 18.0864 4.48855 1.09806 4 0.0209218 2 0 0.0994487 -0.612162
262 1 17.9525 3.63794 1.65602 4 0.0136887 2 0 0.0994487 -0.192806
263 1 17.4569 4.57727 0.0147963 4 0.0164668 2 0 0.0994487 -0.0974102
264 1 18.1348 3.8547 0.0583493 4 0.0153176 2 0 0.0994487 -0.120517
265 1 18.8779 3.70667 0.95022 4 0.018037 2 0 0.0994487 0.0692316
266 1 18.8235 4.60949 0.361826 4 0.0263397 2 0 0.0994487 0.115609
267 1 19.6906 4.67872 1.0803 4 0.0380778 2 0 0.0994487 0.931527
268 1 18.7859 5.27693 1.20102 4 0.0385219 2 0 0.0994487 0.599108
269 1 19.5987 3.76722 0.227421 4 0.0213184 2 0 0.0994487 0.16427
270 1 20.4384 3.82188 1.23329 4 0.0284545 2 0 0.0994487 0.325956
271 1 20.8846 4.71868 1.39403 4 0.0556209 2 0 0.0994487 0.149059
272 1 21.5775 4.95128 0.810455 4 0.0759108 2 0 0.0994487 -0.00374638
273 1 21.0824 3.93136 0.512408 4 0.0347049 2 0 0.0994487 0.0883045
274 1 20.1339 4.78559 0.352846 4 0.0453595 2 0 0.0994487 0.145587
275 1 22.8205 3.63186 1.42135 4 0.0348343 2 0 0.0994487 -0.0183983
276 1 21.9406 4.13318 1.31068 4 0.04587 2 0 0.0994487 0.0272061
277 1 22.4705 5.17735 1.27286 4 0.0938713 2 0 0.0994487 0.020709
278 1 22.6119 4.34705 0.510028 4 0.053984 2 0 0.0994487 -0.0221045
279 1 23.5735 3.63903 0.782677 4 0.0351706 2 0 0.0994487 0.185562
280 1 24.336 4.32055 0.625018 4 0.0495846 2 0 0.0994487 -0.150093
281 1 23.4679 4.54946 1.33355 4 0.0620522 2 0 0.0994487 -0.0790541
282 1 24.8518 5.25716 0.566763 4 0.0748546 2 0 0.0994487 0.0409072
283 1 23.5518 5.06386 0.533607 4 0.0836559 2 0 0.0994487 -0.0968877
284 1 25.0086 4.50055 1.62342 4 0.0478438 2 0 0.0994487 -0.0421947
285 1 25.0629 3.68037 0.802132 4 0.0295229 2 0 0.0994487 -0.187916
286 1 24.363 5.28843 1.43377 4 0.0853905 2 0 0.0994487 -0.154709
287 1 25.6904 5.1389 1.34266 4 0.0575153 2 0 0.0994487 0.210101
288 1 26.3575 4.29031 1.37159 4 0.0297878 2 0 0.0994487 0.149483
289 1 26.5026 4.97257 0.640732 4 0.0395608 2 0 0.0994487 0.0989676
290 1 25.5284 4.40089 0.388179 4 0.0394568 2 0 0.0994487 0.0559481
291 1 27.3302 4.86961 1.40568 4 0.0274751 2 0 0.0994487 0.00661034
292 1 27.9624 3.97641 1.10408 4 0.0129254 2 0 0.0994487 -0.309503
293 1 28.2771 4.73475 0.706344 4 0.0168586 2 0 0.0994487 -0.0812462
294 1 27.0674 4.04323 0.570038 4 0.0198097 2 0 0.0994487 0.012023
295 1 28.9321 3.77016 0.487204 4 0.00742578 2 0 0.0994487 -0.00703249
296 1 29.0873 4.52317 1.33085 4 0.0103145 2 0 0.0994487 0.0574859
297 1 29.9979 4.07209 1.02303 4 0.00539191 2 0 0.0994487 -0.275231
298 1 31.0296 3.97382 0.373364 4 0.00361879 2 0 0.0994487 0.657583
299 1 30.2046 4.67765 0.491317 4 0.00664873 2 0 0.0994487 0.00995842
300 1 30.9783 4.59929 1.41131 4 0.00480461 2 0 0.0994487 0.679914
301 1 0.908283 5.53205 0.461647 4 2.38142e-07 2 0 0.0994487 -0.463784
302 1 1.53161 5.51184 1.37971 4 3.92375e-07 2 0 0.0994487 -0.117386
303 1 0.793684 6.22023 1.2768 4 2.77535e-07 2 0 0.0994487 -0.703381
304 1 0.257003 6.91734 1.50738 4 2.2451e-07 2 0 0.0994487 -0.772633
305 1 0.969942 6.9454 0.573423 4 4.16669e-07 2 0 0.0994487 -0.473532
306 1 1.7053 7.02884 1.23811 4 7.61869e-07 2 0 0.0994487 0.0665192
307 1 1.89588 6.19966 0.519025 4 7.24294e-07 2 0 0.0994487 -0.156399
308 1 3.10475 5.61709 1.30057 4 1.73601e-06 2 0 0.0994487 0.0402542
309 1 2.26359 6.15348 1.40977 4 9.26015e-07 2 0 0.0994487 0.0408569
310 1 3.25442 6.96226 1.12748 4 3.47965e-06 2 0 0.0994487 -0.0541213
311 1 2.68177 5.61289 0.273587 4 1.19223e-06 2 0 0.0994487 -0.0596846
312 1 3.39503 6.28191 0.500536 4 3.18159e-06 2 0 0.0994487 -0.121441
313 1 4.18979 5.46246 0.325783 4 4.52343e-06 2 0 0.0994487 0.0310196
314 1 4.93434 5.42873 1.31778 4 9.36196e-06 2 0 0.0994487 -0.235097
315 1 4.13622 6.09659 1.22779 4 5.95225e-06 2 0 0.0994487 -0.0893864
316 1 4.82567 6.23357 0.333842 4 1.09247e-05 2 0 0.0994487 -0.0345735
317 1 4.77312 6.79931 1.15967 4 1.38431e-05 2 0 0.0994487 -0.305927
318 1 4.00267 7.02511 0.221759 4 6.86136e-06 2 0 0.0994487 -0.0853422
319 1 5.78575 5.42185 0.301847 4 1.71028e-05 2 0 0.0994487 0.0125043
320 1 5.6935 6.24342 0.9632 4 2.35911e-05 2 0 0.0994487 -0.967783
321 1 6.4578 5.98425 1.59671 4 3.79023e-05 2 0 0.0994487 0.140917
322 1 6.43234 6.86927 1.00965 4 5.50195e-05 2 0 0.0994487 0.851682
323 1 6.37773 6.04115 0.154639 4 3.20755e-05 2 0 0.0994487 0.111114
324 1 5.54993 7.05206 0.147147 4 2.51577e-05 2 0 0.0994487 0.0363885
325 1 8.21355 5.31419 0.694273 4 0.00012031 2 0 0.0994487 -0.0895857
326 1 7.32761 6.15925 0.754293 4 8.32639e-05 2 0 0.0994487 0.225739
327 1 7.39163 5.41839 1.49138 4 6.38567e-05 2 0 0.0994487 0.136756
328 1 8.23884 6.11028 1.49159 4 0.000170321 2 0 0.0994487 0.0187407
329 1 8.01352 6.85364 0.728993 4 0.00019352 2 0 0.0994487 0.0691929
330 1 7.28191 6.86379 1.59601 4 0.000112706 2 1 0.0994487 0.12605
331 1 7.33029 5.3575 0.0461812 4 5.25422e-05 2 0 0.0994487 0.0813584
332 1 9.76796 5.3194 0.792562 4 0.000351251 2 0 0.0994487 0.328454
333 1 8.88016 6.18865 0.736908 4 0.000283529 2 0 0.0994487 -0.235535
334 1 9.05434 5.3271 1.5973 4 0.000220705 2 0 0.0994487 -0.0628288
335 1 9.73844 6.19052 1.46731 4 0.00052429 2 0 0.0994487 -0.106424
336 1 9.09351 6.95013 1.463 4 0.000475409 2 2 0.0994487 -0.0757553
337 1 9.76329 6.23201 0.0941385 4 0.000490568 2 0 0.0994487 -0.0359496
338 1 8.99733 5.46479 0.012702 4 0.000207178 2 0 0.0994487 -0.134752
339 1 10.5831 6.02196 0.964384 4 0.00083603 2 0 0.0994487 -0.356452
340 1 11.3128 6.37134 0.0776634 4 0.00127442 2 0 0.0994487 0.100342
341 1 10.5187 6.94145 0.15452 4 0.00102873 2 0 0.0994487 -0.0735363
342 1 10.4686 6.92564 1.49614 4 0.00115278 2 1 0.0994487 -0.0635129
343 1 11.9994 5.6274 0.183157 4 0.00159037 2 0 0.0994487 -0.0105305
344 1 12.6757 5.81849 0.861776 4 0.00278319 2 0 0.0994487 0.0817463
345 1 11.7774 6.20735 1.05291 4 0.00183127 2 0 0.0994487 0.292186
346 1 13.3219 5.86668 1.55471 4 0.00403559 2 0 0.0994487 0.208166
347 1 13.3506 6.58297 0.813679 4 0.00584968 2 0 0.0994487 -0.292118
348 1 13.3212 5.53867 0.0424813 4 0.00362965 2 0 0.0994487 -0.14291
349 1 14.0617 5.71565 0.77266 4 0.00610874 2 0 0.0994487 -0.372677
350 1 14.3278 6.65176 1.40646 4 0.0109065 2 1 0.0994487 -0.103136
351 1 14.1303 6.38483 0.0380077 4 0.00747812 2 0 0.0994487 -0.0826109
352 1 15.0282 5.64393 0.034369 4 0.00912305 2 0 0.0994487 0.0573632
353 1 15.8305 5.73813 0.95832 4 0.0150288 2 0 0.0994487 0.62578
354 1 15.0472 6.45091 0.806774 4 0.0139957 2 0 0.0994487 -0.176058
355 1 16.491 6.45257 1.1401 4 0.0285105 2 0 0.0994487 0.208311
356 1 15.1058 5.87594 1.69804 4 0.0117892 2 0 0.0994487 -0.0976581
357 1 16.62 5.41933 0.276819 4 0.0176035 2 0 0.0994487 0.0799204
358 1 15.6753 6.3382 0.0390223 4 0.0165071 2 0 0.0994487 0.0398504
359 1 17.8271 5.30128 0.541411 4 0.0266481 2 0 0.0994487 0.150325
360 1 17.113 5.42499 1.24767 4 0.0228517 2 0 0.0994487 -0.286577
361 1 17.0619 6.27419 0.411469 4 0.0314997 2 0 0.0994487 0.138947
362 1 17.6649 6.24649 1.38542 4 0.0415373 2 0 0.0994487 -0.254263
363 1 18.2745 7.0517 1.13153 4 0.0723081 2 1 0.0994487 0.631035
364 1 18.3714 6.23173 0.609762 4 0.052747 2 0 0.0994487 0.156178
365 1 19.429 5.75829 0.62055 4 0.062536 2 0 0.0994487 0.0571852
366 1 19.3279 6.55755 1.35081 4 0.0901415 2 0 0.0994487 0.274671
367 1 19.9942 6.75229 0.610261 4 0.130957 2 0 0.0994487 -0.0119454
368 1 20.7494 5.77593 0.653722 4 0.101491 2 0 0.0994487 -0.104065
369 1 20.1931 5.61076 1.39557 4 0.0765174 2 0 0.0994487 0.312023
370 1 20.7787 6.6124 1.30355 4 0.169181 2 0 0.0994487 -0.344819
371 1 21.6592 6.66248 0.666524 4 0.186917 2 0 0.0994487 -0.0434803
372 1 21.6631 5.87866 1.38528 4 0.137235 2 0 0.0994487 0.0420569
373 1 21.6904 5.73259 0.0517844 4 0.112918 2 0 0.0994487 -0.0015007
374 1 22.6732 5.8279 0.674154 4 0.133132 2 0 0.0994487 0.00266058
375 1 22.6319 6.69333 1.20734 4 0.217247 2 0 0.0994487 -0.201692
376 1 23.3484 6.78052 0.267835 4 0.19456 2 0 0.0994487 -0.125377
377 1 23.4822 5.88496 1.30013 4 0.138525 2 0 0.0994487 -0.17639
378 1 24.3197 6.56281 1.15825 4 0.160807 2 0 0.0994487 0.173545
379 1 24.1457 6.00685 0.427617 4 0.126195 2 0 0.0994487 0.00243851
380 1 25.6831 5.86213 0.700952 4 0.0805347 2 0 0.0994487 0.163897
381 1 25.1124 6.04132 1.67733 4 0.103063 2 0 0.0994487 0.00366886
382 1 25.1593 6.74159 0.495153 4 0.132824 2 0 0.0994487 0.0903916
383 1 25.8251 6.59457 1.40775 4 0.103344 2 0 0.0994487 0.0881024
384 1 26.6903 5.84511 1.4763 4 0.0568501 2 0 0.0994487 0.091762
385 1 27.4966 5.54334 0.722172 4 0.0342286 2 0 0.0994487 -0.251572
386 1 26.7485 6.36567 0.651888 4 0.0676206 2 0 0.0994487 0.0387511
387 1 27.7011 6.47315 1.36539 4 0.0468726 2 0 0.0994487 0.131493
388 1 28.3648 5.52203 1.4872 4 0.0230028 2 0 0.0994487 0.0456336
389 1 27.7097 7.0074 0.530173 4 0.0547934 2 0 0.0994487 0.032124
390 1 29.3889 5.30889 0.818726 4 0.0132725 2 0 0.0994487 0.316729
391 1 29.4379 6.18214 1.32212 4 0.0173579 2 0 0.0994487 -0.0033807
392 1 29.5784 6.89773 0.506505 4 0.0204624 2 0 0.0994487 0.0925871
393 1 28.4685 6.20589 0.638647 4 0.0277625 2 0 0.0994487 -0.27008
394 1 29.3762 6.15398 0.0801838 4 0.017263 2 0 0.0994487 0.0969266
395 1 28.4822 5.38976 0.0592959 4 0.0192422 2 0 0.0994487 -0.105003
396 1 30.9636 5.36838 0.595026 4 0.00711284 2 0 0.0994487 0.667849
397 1 30.2159 5.45949 1.46813 4 0.00927133 2 0 0.0994487 0.0540216
398 1 30.3958 6.18258 0.649752 4 0.0115732 2 0 0.0994487 0.329001
399 1 31.2189 6.15516 1.38439 4 0.00838052 2 0 0.0994487 0.587258
400 1 31.1994 6.95407 0.60342 4 0.0109278 2 0 0.0994487 0.812251
401 1 31.7235 5.99622 0.446564 4 0.0069261 2 0 0.0994487 0.879729
402 1 0.261851 7.63199 0.661866 4 2.99728e-07 2 0 0.0994487 -0.876373
403 1 0.831025 8.46344 0.61936 4 5.41455e-07 2 0 0.0994487 -0.577626
404 1 1.11211 7.86396 1.49711 4 5.52353e-07 2 0 0.0994487 -0.154428
405 1 0.356955 8.5626 1.47035 4 3.76943e-07 2 0 0.0994487 -0.764984
406 1 1.59266 7.76478 0.37187 4 8.74297e-07 2 0 0.0994487 -0.0897871
407 1 1.72382 8.61735 1.46471 4 1.16733e-06 2 0 0.0994487 0.0395978
408 1 2.48799 7.14986 0.476331 4 1.79739e-06 2 0 0.0994487 -0.0836944
409 1 2.19177 8.6335 0.399707 4 1.92075e-06 2 0 0.0994487 -0.137266
410 1 2.39416 7.81099 1.27726 4 1.89138e-06 2 0 0.0994487 0.0869937
411 1 3.01349 8.51445 0.935533 4 4.15036e-06 2 0 0.0994487 -0.539307
412 1 3.24418 7.77117 0.327041 4 4.2969e-06 2 0 0.0994487 -0.196203
413 1 3.81243 8.45898 0.0822892 4 7.66673e-06 2 0 0.0994487 -0.045777
414 1 3.97971 7.67009 1.24863 4 8.25457e-06 2 0 0.0994487 -0.0554866
415 1 4.70459 8.25653 0.921772 4 1.81584e-05 2 0 0.0994487 0.295352
416 1 4.67023 7.63706 0.247803 4 1.43089e-05 2 0 0.0994487 0.0376944
417 1 3.81127 8.34851 1.76162 4 7.6333e-06 2 0 0.0994487 -0.0574348
418 1 5.86955 8.34822 0.169905 4 4.62702e-05 2 0 0.0994487 0.113108
419 1 5.48363 7.59071 1.03232 4 3.2142e-05 2 0 0.0994487 -0.467653
420 1 6.49365 7.53799 0.169175 4 6.46662e-05 2 0 0.0994487 0.187626
421 1 6.39674 8.23976 1.04384 4 8.55231e-05 2 0 0.0994487 0.338162
422 1 7.28583 7.76918 0.746313 4 0.000157291 2 1 0.0994487 0.00993973
423 1 8.2859 8.31376 0.868772 4 0.0004111 2 2 0.0994487 0.278784
424 1 7.27857 8.18368 1.7015 4 0.000206516 2 2 0.0994487 -0.174682
425 1 8.05208 7.48784 1.5604 4 0.000271365 2 1 0.0994487 0.185099
426 1 7.99895 7.60312 0.0282118 4 0.000213593 2 0 0.0994487 0.0674151
427 1 9.84313 7.22199 0.72344 4 0.000841908 2 1 0.0994487 -0.346918
428 1 8.91207 7.61626 0.661731 4 0.000497953 2 1 0.0994487 0.158712
429 1 9.73234 8.61964 0.693151 4 0.0012352 2 3 0.0994487 -0.257241
430 1 9.09265 8.69904 1.44495 4 0.000936186 2 9 0.0994487 -0.394772
431 1 9.64026 7.88932 1.60055 4 0.00109568 2 8 0.0994487 -0.340354
432 1 11.3161 7.14287 0.810636 4 0.00195055 2 1 0.0994487 0.44852
433 1 10.5731 7.9454 0.844311 4 0.00170068 2 3 0.0994487 -0.198463
434 1 10.5877 8.70196 1.4255 4 0.00228257 1 8 0.0994487 -0.14675
435 1 11.4057 7.80503 1.60301 4 0.00295586 2 7 0.0994487 0.228308
436 1 11.227 8.11851 0.0422735 4 0.00217829 2 0 0.0994487 0.17433
437 1 12.7061 7.28322 0.565784 4 0.00518678 2 0 0.0994487 -0.0531424
438 1 12.178 8.23518 0.590765 4 0.00482221 2 2 0.0994487 0.163948
439 1 12.0637 7.15788 1.37768 4 0.00338105 2 3 0.0994487 0.145677
440 1 12.0887 8.68064 1.49044 4 0.00587092 1 8 0.0994487 0.0825112
441 1 12.8601 7.99585 1.47598 4 0.00806863 2 6 0.0994487 -0.216855
442 1 14.3373 7.3542 0.580954 4 0.0131151 2 0 0.0994487 0.0648964
443 1 13.6169 8.09282 0.464536 4 0.0109125 2 2 0.0994487 0.0237559