ITEM: TIMESTEP
14000
ITEM: NUMBER OF ATOMS
9495
ITEM: BOX BOUNDS mm mm mm
0.0000000000000000e+00 3.1748021039364001e+01
0.0000000000000000e+00 3.1748021039364001e+01
-7.4072398406925706e-04 3.1748021039364001e+01
ITEM: ATOMS id type x y z c_phase c_temp c_surf c_nbond c_visc f_3[1]
1 1 0.116341 1.10259 0.464337 4 6.32341e-11 2 0 0.0994487 -0.68194
2 1 0.974108 1.6685 0.77798 4 2.31081e-10 2 0 0.0994487 -0.517032
3 1 0.714648 0.793562 1.41295 4 1.02778e-10 2 0 0.0994487 -0.281794
4 1 0.00336375 1.60273 1.37437 4 7.98944e-11 2 0 0.0994487 -0.804051
5 1 0.729896 0.0633724 0.61602 4 5.74338e-11 3 0 0.0994487 -0.190374
6 1 1.71015 0.808983 1.0155 4 3.58112e-10 2 0 0.0994487 -0.332069
7 1 1.80059 1.47468 0.221075 4 4.5568e-10 2 0 0.0994487 -0.125829
8 1 1.82015 1.66049 1.76126 4 5.6316e-10 2 0 0.0994487 -0.139533
9 1 2.52093 0.749102 0.203812 4 7.12368e-10 2 0 0.0994487 -0.142939
10 1 2.59149 0.0538711 1.03726 4 6.21371e-10 2 0 0.0994487 -0.295004
11 1 2.64922 1.541 0.882848 4 1.45834e-09 2 0 0.0994487 0.235755
12 1 2.66829 0.815502 1.7457 4 9.51088e-10 2 0 0.0994487 -0.18704
13 1 3.43386 0.933692 0.956349 4 2.7089e-09 2 0 0.0994487 0.320241
14 1 3.49924 0.0925696 1.70571 4 1.47034e-09 2 0 0.0994487 0.178053
15 1 3.60652 1.70798 1.71994 4 4.57344e-09 2 0 0.0994487 0.0487951
16 1 4.10576 0.858321 0.325305 4 5.3866e-09 2 0 0.0994487 0.153146
17 1 4.96159 0.56786 1.17466 4 1.40192e-08 2 0 0.0994487 -0.0370669
18 1 4.91949 1.59987 0.383508 4 2.18401e-08 2 0 0.0994487 -0.100248
19 1 4.3472 0.941527 1.62884 4 7.4274e-09 2 0 0.0994487 0.110738
20 1 3.47612 0.111428 0.171027 4 1.32087e-09 2 0 0.0994487 0.166215
21 1 5.64741 0.645627 0.325839 4 2.96093e-08 2 0 0.0994487 -0.0806047
22 1 5.88414 1.31048 0.938036 4 5.51209e-08 2 0 0.0994487 -0.199583
23 1 6.57478 1.39104 0.218369 4 1.13282e-07 2 0 0.0994487 -0.0861332
24 1 5.78374 0.460658 1.69897 4 2.89626e-08 2 0 0.0994487 -0.0846523
25 1 5.03122 1.72414 1.43602 4 2.54175e-08 2 0 0.0994487 0.0453722
26 1 6.7138 0.39031 0.865278 4 8.30691e-08 2 0 0.0994487 -0.0793815
27 1 6.69104 1.00962 1.69374 4 9.72617e-08 2 0 0.0994487 -0.107923
28 1 8.2679 0.408875 1.07337 4 3.60235e-07 2 0 0.0994487 -0.100166
29 1 7.36782 1.22285 0.954198 4 2.37983e-07 2 0 0.0994487 -0.302549
30 1 8.24709 1.39092 0.236779 4 5.66357e-07 2 0 0.0994487 -0.0460636
31 1 8.12868 1.27217 1.60653 4 4.65507e-07 2 0 0.0994487 -0.00811642
32 1 7.58247 0.647807 0.140287 4 2.04514e-07 2 0 0.0994487 -0.110936
33 1 8.85849 0.508506 0.273966 4 6.07194e-07 2 0 0.0994487 -0.0616458
34 1 9.55301 0.3386 0.888639 4 1.08332e-06 2 0 0.0994487 0.00506465
35 1 9.02586 1.30716 1.1133 4 1.15613e-06 2 0 0.0994487 -0.0606433
37 1 9.63995 1.37474 0.0900752 4 1.69974e-06 2 0 0.0994487 0.0992918
38 1 11.2128 0.215893 0.632658 4 4.23197e-06 2 0 0.0994487 0.203504
39 1 10.3637 1.04743 0.823114 4 3.11846e-06 2 0 0.0994487 0.539887
40 1 10.523 0.196295 1.44539 4 2.29284e-06 2 0 0.0994487 0.0644292
41 1 11.2856 1.01846 1.41785 4 7.29344e-06 2 0 0.0994487 0.164708
42 1 10.5797 1.67706 1.72992 4 5.45971e-06 2 0 0.0994487 0.118165
43 1 10.2431 0.367861 0.0780499 4 1.53091e-06 2 0 0.0994487 0.149801
44 1 12.8757 0.211714 0.636805 4 1.74253e-05 2 0 0.0994487 0.0587886
45 1 12.0457 1.07408 0.506655 4 1.4813e-05 2 0 0.0994487 -0.0235499
46 1 12.1319 0.316439 1.29957 4 1.05028e-05 2 0 0.0994487 0.0188377
47 1 12.7194 1.19864 1.3723 4 2.73583e-05 2 0 0.0994487 -0.0305256
48 1 14.3729 0.318493 0.764646 4 5.52956e-05 2 0 0.0994487 -0.0460374
49 1 13.5924 1.113 0.843618 4 5.19753e-05 2 0 0.0994487 -0.263049
50 1 14.0399 1.55958 0.167469 4 8.69557e-05 2 0 0.0994487 -0.089824
51 1 13.6075 0.359834 1.6352 4 3.11718e-05 2 0 0.0994487 -0.0562625
52 1 14.3777 1.14948 1.47647 4 8.13086e-05 2 0 0.0994487 -0.0178262
53 1 14.8761 1.55337 0.662943 4 0.000145339 2 0 0.0994487 0.38995
54 1 15.7061 0.770636 0.788259 4 0.000157948 2 0 0.0994487 0.366485
55 1 16.5532 1.54451 0.681338 4 0.000438032 2 0 0.0994487 0.000807185
56 1 15.1422 0.4642 1.64149 4 8.73443e-05 2 0 0.0994487 0.152078
57 1 16.547 0.712289 1.3421 4 0.000274756 2 0 0.0994487 0.0956275
58 1 15.6341 1.48544 1.3916 4 0.000232408 2 0 0.0994487 0.153633
59 1 15.1049 0.711806 0.0677822 4 8.59098e-05 2 0 0.0994487 0.169203
60 1 17.2544 0.732268 0.547589 4 0.000391424 2 0 0.0994487 0.0286307
61 1 17.9231 1.58109 0.757246 4 0.000899276 2 0 0.0994487 0.0415642
62 1 17.916 0.742935 1.42801 4 0.000570069 2 0 0.0994487 -0.224376
63 1 17.2202 1.74884 1.56274 4 0.000739734 2 0 0.0994487 -0.0984825
64 1 19.5372 0.0167772 0.662766 4 0.000623721 2 0 0.0994487 0.0436437
65 1 18.7918 0.725074 0.684829 4 0.000745095 2 0 0.0994487 -0.269945
66 1 19.5395 1.55488 0.841653 4 0.00157685 2 0 0.0994487 -0.341161
67 1 19.0276 0.158607 1.54508 4 0.000599899 2 0 0.0994487 -0.158664
68 1 19.5934 0.967491 1.68957 4 0.00106886 2 0 0.0994487 0.00835075
69 1 18.6564 1.51302 1.50035 4 0.00116051 2 0 0.0994487 -0.250307
70 1 21.0889 0.349843 1.06749 4 0.00108776 2 0 0.0994487 -0.196127
71 1 20.2493 0.776373 0.980057 4 0.0011668 2 0 0.0994487 -0.0497618
72 1 21.1062 1.65725 0.951506 4 0.00227065 2 0 0.0994487 0.692912
73 1 21.1874 0.765598 0.218806 4 0.00125911 2 0 0.0994487 -0.0445912
74 1 20.3457 1.51479 0.193617 4 0.00177525 2 0 0.0994487 -0.0806025
75 1 22.0087 0.262534 0.539755 4 0.00109955 2 0 0.0994487 0.0993585
76 1 22.7913 0.430275 1.40734 4 0.00125226 2 0 0.0994487 0.206598
77 1 22.1105 1.14763 1.32981 4 0.00176456 2 0 0.0994487 0.240021
78 1 21.9982 1.59955 0.538558 4 0.00242119 2 0 0.0994487 0.18517
79 1 22.9157 1.07463 0.445168 4 0.00174171 2 0 0.0994487 0.0520829
80 1 24.228 0.380179 1.45209 4 0.00122038 2 0 0.0994487 0.0576155
81 1 23.5672 0.357563 0.57369 4 0.00123195 2 0 0.0994487 0.0385695
82 1 24.4367 1.18687 0.754729 4 0.00190782 2 0 0.0994487 -0.0192995
83 1 23.4757 1.2499 1.4028 4 0.00208141 2 0 0.0994487 0.0298748
84 1 24.955 0.315686 0.551996 4 0.00106206 2 0 0.0994487 -0.0172
85 1 26.0085 0.383365 1.1715 4 0.00085909 2 0 0.0994487 -0.185861
86 1 25.169 1.12579 1.48087 4 0.00166185 2 0 0.0994487 0.0251035
87 1 25.9301 1.73476 1.35794 4 0.00205107 2 0 0.0994487 0.0345343
88 1 25.8917 0.929212 0.432102 4 0.00115839 2 0 0.0994487 -0.0954209
89 1 27.5736 1.28032 0.38906 4 0.000747394 2 0 0.0994487 0.0454483
90 1 27.6142 0.50928 0.874321 4 0.000515467 2 0 0.0994487 0.175387
91 1 26.7559 1.02809 1.26347 4 0.000912464 2 0 0.0994487 -0.236888
92 1 28.3748 0.337482 1.39813 4 0.000327995 2 0 0.0994487 0.00984366
93 1 26.7925 0.240345 0.226621 4 0.000566815 2 0 0.0994487 0.0380742
94 1 28.6489 1.24263 0.742341 4 0.00046682 2 0 0.0994487 0.102405
95 1 29.3912 0.945639 1.56878 4 0.000256747 2 0 0.0994487 -0.0192011
96 1 28.5228 1.71921 1.49749 4 0.000622699 2 0 0.0994487 -0.0429819
97 1 29.8133 0.173958 1.46124 4 0.000145321 2 0 0.0994487 0.133416
98 1 29.2734 0.3547 0.615275 4 0.000201156 2 0 0.0994487 -0.0816815
99 1 31.5874 0.266128 1.25663 4 5.28752e-05 3 0 0.0994487 0.830096
100 1 30.7016 0.49015 0.470738 4 0.000104907 2 0 0.0994487 0.354852
101 1 30.1009 1.19877 0.774133 4 0.000210847 2 0 0.0994487 0.210919
102 1 30.8649 0.971942 1.39386 4 0.000129269 2 0 0.0994487 0.703281
103 1 1.11081 2.43607 0.129285 4 3.1753e-10 2 0 0.0994487 -0.0373222
104 1 0.133403 2.3821 0.812241 4 1.47608e-10 2 0 0.0994487 -0.984517
105 1 1.28845 3.23764 0.949187 4 7.87538e-10 2 0 0.0994487 0.222091
106 1 1.13977 2.36077 1.59162 4 4.02391e-10 2 0 0.0994487 -0.222189
107 1 0.386685 3.02999 1.54944 4 2.64956e-10 2 0 0.0994487 -0.671256
108 1 0.332248 3.09582 0.131296 4 2.18517e-10 2 0 0.0994487 -0.59134
109 1 1.90972 2.41867 0.78376 4 9.84058e-10 2 0 0.0994487 0.0782088
110 1 2.65852 3.28029 0.860875 4 4.1933e-09 2 0 0.0994487 0.0668034
111 1 2.66931 2.22918 1.53373 4 2.15678e-09 2 0 0.0994487 0.082955
112 1 3.2579 3.42668 1.64938 4 8.72631e-09 2 0 0.0994487 0.00397484
113 1 2.7261 2.38168 0.0557193 4 1.84147e-09 2 0 0.0994487 0.146601
114 1 3.38195 2.55413 0.779289 4 6.19863e-09 2 0 0.0994487 0.211583
115 1 4.00679 1.841 0.711184 4 8.88804e-09 2 0 0.0994487 -0.0361234
116 1 4.91383 2.57277 0.815661 4 3.8327e-08 2 0 0.0994487 -0.25935
117 1 4.20148 3.3175 0.749446 4 2.57737e-08 2 0 0.0994487 0.00621557
118 1 4.13245 2.64107 1.58328 4 1.54444e-08 2 0 0.0994487 0.0270776
119 1 5.65047 2.44269 0.132743 4 7.29294e-08 2 0 0.0994487 -0.189925
120 1 6.55776 2.18062 0.772597 4 1.78115e-07 2 0 0.0994487 -0.289381
121 1 5.64874 3.19593 0.952489 4 1.20338e-07 2 0 0.0994487 -0.754631
122 1 5.861 2.19426 1.49672 4 8.13011e-08 2 0 0.0994487 0.012636
123 1 6.52037 3.06691 1.5557 4 2.68474e-07 2 0 0.0994487 0.0443579
124 1 6.65033 2.92778 0.134227 4 2.4829e-07 2 0 0.0994487 0.0288872
125 1 7.45405 2.22586 0.139832 4 4.26062e-07 2 0 0.0994487 -0.053502
126 1 8.08209 2.20208 0.930382 4 8.43651e-07 2 0 0.0994487 -0.302071
127 1 7.40132 3.06835 0.934051 4 7.15764e-07 2 0 0.0994487 -0.0455198
128 1 7.29928 2.06035 1.56856 4 3.36533e-07 2 0 0.0994487 -0.0607323
129 1 8.18545 3.00183 1.65211 4 1.41036e-06 2 0 0.0994487 -0.0454154
130 1 8.26934 2.9712 0.0392146 4 1.47134e-06 2 0 0.0994487 -0.150617
131 1 8.90393 2.08699 0.252387 4 1.53863e-06 2 0 0.0994487 0.00243385
132 1 9.77243 2.0246 1.10996 4 3.49658e-06 2 0 0.0994487 0.173467
133 1 8.92671 2.97262 0.928693 4 3.01016e-06 2 0 0.0994487 -0.156756
134 1 9.03062 2.22066 1.70398 4 1.95426e-06 2 0 0.0994487 -0.0819674
135 1 9.56096 2.90576 0.21312 4 4.51018e-06 2 0 0.0994487 0.173121
136 1 10.2834 2.1137 0.214297 4 4.65886e-06 2 0 0.0994487 0.337739
137 1 11.1583 1.82604 0.771092 4 1.06471e-05 2 0 0.0994487 0.260091
138 1 10.6214 2.80819 0.921535 4 1.25921e-05 2 0 0.0994487 0.54192
139 1 11.4444 2.82964 1.57484 4 2.63003e-05 2 0 0.0994487 0.0952005
140 1 12.6737 1.94118 0.593851 4 4.43176e-05 2 0 0.0994487 -0.283932
141 1 11.928 2.64099 0.742299 4 3.59672e-05 2 0 0.0994487 -0.038672
142 1 11.9239 1.9206 1.46509 4 2.19621e-05 2 0 0.0994487 0.0946551
143 1 12.8449 3.01766 1.68597 4 8.93177e-05 2 0 0.0994487 0.0363577
144 1 13.1791 3.03035 0.848852 4 0.000125262 2 0 0.0994487 -0.440853
145 1 13.3784 1.9912 1.48064 4 7.14999e-05 2 0 0.0994487 -0.0150691
146 1 14.0206 2.44438 0.927124 4 0.000156735 2 0 0.0994487 -0.133095
147 1 14.0279 3.38359 1.55716 4 0.00027536 2 0 0.0994487 0.0255755
148 1 14.6961 3.43698 0.884932 4 0.000464127 2 0 0.0994487 -0.332951
149 1 14.7823 2.29758 1.44821 4 0.000229535 2 0 0.0994487 0.0469282
150 1 14.8418 2.51505 0.136557 4 0.000261179 2 0 0.0994487 0.173006
151 1 14.1591 3.2262 0.0325348 4 0.000269736 2 0 0.0994487 -0.246105
152 1 13.4137 2.29398 0.0590902 4 9.03838e-05 2 0 0.0994487 -0.280961
153 1 15.6993 2.44373 0.692668 4 0.000457794 2 0 0.0994487 0.364394
154 1 16.3029 3.20095 0.662084 4 0.00105492 2 0 0.0994487 0.32859
155 1 16.308 2.47951 1.52575 4 0.000712229 2 0 0.0994487 -0.100646
156 1 15.3694 3.25723 1.50191 4 0.000642893 2 0 0.0994487 -0.00766808
157 1 15.5706 3.25854 0.0192499 4 0.000592966 2 0 0.0994487 0.290238
158 1 17.0646 2.35032 0.682778 4 0.000981384 2 0 0.0994487 0.0234824
159 1 17.944 2.92608 0.699539 4 0.00230284 2 0 0.0994487 -0.231189
160 1 18.0193 2.43917 1.58112 4 0.00169308 2 0 0.0994487 -0.149134
161 1 17.0918 3.1162 1.49491 4 0.00168494 2 0 0.0994487 -0.143433
162 1 18.8908 2.35742 1.01358 4 0.00223878 2 0 0.0994487 -0.516826
163 1 19.7027 3.2427 1.27782 4 0.00504597 2 0 0.0994487 0.39488
164 1 18.884 2.99607 0.196019 4 0.00330053 2 0 0.0994487 -0.171809
165 1 19.587 2.34239 0.101452 4 0.00260982 2 0 0.0994487 -0.13237
166 1 20.3251 1.78863 1.72442 4 0.00202116 2 0 0.0994487 0.0449528
167 1 21.1565 2.41663 0.458355 4 0.00399235 2 0 0.0994487 0.196186
168 1 20.1948 2.46882 1.11433 4 0.00332565 2 0 0.0994487 0.286742
169 1 21.31 3.29463 1.39314 4 0.0082583 2 0 0.0994487 0.0777274
170 1 20.4222 2.99313 0.334941 4 0.00499655 2 0 0.0994487 0.18629
171 1 22.8719 2.07007 1.50872 4 0.00383222 2 0 0.0994487 -0.0221253
172 1 22.9717 2.60199 0.735523 4 0.00617347 2 0 0.0994487 0.133323
173 1 22.0961 2.49917 1.23787 4 0.005188 2 0 0.0994487 0.186434
174 1 21.9898 3.20043 0.598797 4 0.00890895 2 0 0.0994487 -0.0757528
175 1 22.6771 3.40124 0.07601 4 0.0104942 2 0 0.0994487 0.0760725
176 1 23.7438 1.80844 0.624025 4 0.00304422 2 0 0.0994487 -0.0873615
177 1 24.4289 1.98763 1.61102 4 0.00335313 2 0 0.0994487 -0.064177
178 1 24.342 2.68296 0.775192 4 0.00569616 2 0 0.0994487 -0.341095
179 1 23.6887 2.90303 1.53628 4 0.00717413 2 0 0.0994487 -0.110507
180 1 24.4728 3.51078 1.55704 4 0.010369 2 0 0.0994487 -0.118307
181 1 24.9562 2.84566 0.0146836 4 0.00521538 2 0 0.0994487 -0.0864601
182 1 26.5483 1.79415 0.511367 4 0.0016496 2 0 0.0994487 -0.00560132
183 1 25.1322 1.85613 0.509414 4 0.00273112 2 0 0.0994487 -0.0215305
184 1 25.7918 2.61203 0.707489 4 0.00406818 2 0 0.0994487 0.2282
185 1 25.1579 2.55548 1.52547 4 0.00454387 2 0 0.0994487 0.0576654
186 1 25.7213 3.49812 1.51211 4 0.00789682 2 0 0.0994487 0.123856
187 1 26.5364 2.56002 1.53049 4 0.00292916 2 0 0.0994487 0.0579466
188 1 26.1686 3.50068 0.599043 4 0.0068089 2 0 0.0994487 0.168844
189 1 27.5039 1.98546 1.23792 4 0.00123285 2 0 0.0994487 -0.186421
190 1 28.2489 2.09022 0.343734 4 0.000898689 2 0 0.0994487 -0.0177255
191 1 27.0867 2.6924 0.645359 4 0.00250316 2 0 0.0994487 -0.105602
192 1 27.1998 3.35397 1.41682 4 0.00373134 2 0 0.0994487 -0.0983294
193 1 28.2537 2.75799 1.20639 4 0.00140823 2 0 0.0994487 -0.418308
194 1 27.982 3.21993 0.326384 4 0.00211144 2 0 0.0994487 -0.125257
195 1 29.9568 1.80906 1.70764 4 0.000310063 2 0 0.0994487 0.183201
196 1 29.4477 2.04702 0.879698 4 0.000486181 2 0 0.0994487 -0.00708493
197 1 29.1956 2.6589 0.290703 4 0.000756586 2 0 0.0994487 -0.0578287
198 1 29.2495 3.2651 1.17365 4 0.00109605 2 0 0.0994487 0.118633
199 1 30.9114 1.98502 0.924207 4 0.000237757 2 0 0.0994487 0.96725
200 1 30.1815 2.71094 1.00186 4 0.000472905 2 0 0.0994487 0.675106
201 1 31.0247 3.35309 0.97101 4 0.000454529 2 0 0.0994487 0.998409
202 1 30.9865 2.69483 1.72648 4 0.000316533 2 0 0.0994487 0.578501
203 1 30.1092 3.25953 0.132205 4 0.000585103 2 0 0.0994487 -0.044366
204 1 30.4116 1.90909 0.0255368 4 0.000248049 2 0 0.0994487 0.106044
205 1 31.1434 2.66402 0.0761253 4 0.000274218 2 0 0.0994487 0.708819
206 1 0.293831 3.78503 0.918557 4 3.68754e-10 2 0 0.0994487 -0.999347
207 1 0.143046 4.59443 0.482118 4 4.42729e-10 2 0 0.0994487 -0.784494
208 1 1.14036 4.67093 0.986638 4 1.44455e-09 2 0 0.0994487 -0.516756
209 1 0.0884667 5.26681 1.27761 4 5.68136e-10 2 0 0.0994487 -0.887459
210 1 1.04069 3.86421 0.0595682 4 7.01647e-10 2 0 0.0994487 0.0148877
211 1 1.84117 4.04604 0.847105 4 2.49146e-09 2 0 0.0994487 0.00826694
212 1 2.54049 4.85585 1.13748 4 8.4901e-09 2 0 0.0994487 -0.333847
213 1 2.64953 4.14475 0.20674 4 6.55408e-09 2 0 0.0994487 -0.0285724
214 1 1.89758 4.96895 0.278386 4 4.07726e-09 2 0 0.0994487 -0.153434
215 1 3.40771 4.86189 0.161635 4 2.23414e-08 2 0 0.0994487 -0.0163884
216 1 3.494 4.07675 0.885909 4 1.7574e-08 2 0 0.0994487 0.0268922
217 1 4.91235 4.00001 1.18344 4 8.478e-08 2 0 0.0994487 0.0115094
218 1 4.04658 4.88002 1.14639 4 5.00542e-08 2 0 0.0994487 0.264489
219 1 4.26027 4.18509 0.149001 4 4.09085e-08 2 0 0.0994487 0.037738
220 1 5.00947 4.74001 0.341082 4 1.30621e-07 2 0 0.0994487 0.0765395
221 1 5.77735 3.9378 0.198707 4 1.72634e-07 2 0 0.0994487 0.0260159
222 1 6.48883 3.76611 0.772067 4 3.90631e-07 2 0 0.0994487 0.204554
223 1 5.68025 4.73638 1.02487 4 2.94498e-07 2 0 0.0994487 -0.62168
224 1 6.66321 4.5115 1.6428 4 6.70155e-07 2 0 0.0994487 0.158933
225 1 6.68072 5.1315 0.885352 4 1.04338e-06 2 0 0.0994487 0.206854
226 1 8.1982 3.892 0.700757 4 2.64121e-06 2 0 0.0994487 -0.3699
227 1 7.40842 4.46072 0.5468 4 1.56e-06 2 0 0.0994487 -0.0252124
228 1 7.39886 3.87029 1.49684 4 1.07403e-06 2 0 0.0994487 0.102577
229 1 8.20004 4.61106 1.48677 4 3.785e-06 2 0 0.0994487 -0.0118373
230 1 9.8976 3.57792 0.885667 4 1.07224e-05 2 0 0.0994487 0.592776
231 1 9.07913 4.56551 0.821335 4 8.74652e-06 2 0 0.0994487 -0.658544
232 1 9.86266 4.50302 0.126324 4 1.45176e-05 2 0 0.0994487 0.0958657
233 1 9.07829 3.76256 1.49819 4 5.58803e-06 2 0 0.0994487 -0.0708854
234 1 9.86881 4.3462 1.65532 4 1.6089e-05 2 0 0.0994487 -0.0856624
235 1 8.98541 3.86821 0.0631775 4 4.90436e-06 2 0 0.0994487 -0.138754
236 1 11.408 3.64493 0.778297 4 4.30151e-05 2 0 0.0994487 0.202067
237 1 10.5891 4.66652 0.906264 4 3.69476e-05 2 0 0.0994487 0.045078
238 1 11.3867 4.69403 0.230734 4 7.34389e-05 2 0 0.0994487 -0.0498902
239 1 10.7059 3.56689 1.58785 4 2.21163e-05 2 0 0.0994487 -0.0448491
240 1 11.3652 4.3716 1.70545 4 6.07839e-05 2 0 0.0994487 -0.0798277
241 1 11.3894 5.27213 0.983682 4 0.000101588 2 0 0.0994487 -0.674477
242 1 10.5826 3.84888 0.176129 4 2.06875e-05 2 0 0.0994487 0.210466
243 1 12.5168 3.57716 0.814749 4 0.000104761 2 0 0.0994487 -0.0105751
244 1 12.1916 4.55033 1.00021 4 0.000138638 2 0 0.0994487 0.105048
245 1 12.7362 4.99738 1.68903 4 0.000242446 2 0 0.0994487 0.19133
246 1 13.2258 4.67863 0.80017 4 0.000342051 2 0 0.0994487 -0.00469704
247 1 12.6435 4.61885 0.0632315 4 0.000204059 2 0 0.0994487 -0.0335801
248 1 13.9891 4.12825 0.69648 4 0.000447876 2 0 0.0994487 -0.430175
249 1 13.4832 4.21781 1.59317 4 0.000299695 2 0 0.0994487 0.0820183
250 1 14.2046 5.11838 1.52001 4 0.00087143 2 0 0.0994487 -0.0289913
251 1 14.9402 5.01141 0.811699 4 0.00135798 2 0 0.0994487 -0.0527178
252 1 14.9642 4.4167 1.59432 4 0.000985377 2 0 0.0994487 -0.0635617
253 1 14.1405 4.90647 0.0597868 4 0.000715888 2 0 0.0994487 -0.0856941
254 1 14.961 4.19423 0.096508 4 0.000799246 2 0 0.0994487 0.0322731
255 1 15.6685 4.06642 0.926277 4 0.00125124 2 0 0.0994487 0.872574
256 1 15.8798 4.77595 0.186426 4 0.00203287 2 0 0.0994487 0.16539
257 1 16.5936 4.58036 0.900182 4 0.00300717 2 0 0.0994487 -0.0789706
258 1 16.3184 3.95875 1.6903 4 0.00176323 2 0 0.0994487 -0.0433963
259 1 15.8111 5.05317 1.64084 4 0.00228773 2 0 0.0994487 0.0995004
260 1 17.2689 3.83372 0.811237 4 0.00290578 2 0 0.0994487 -0.345382
261 1 18.0864 4.48855 1.09806 4 0.006107 2 0 0.0994487 -0.612155
262 1 17.9525 3.63794 1.65602 4 0.00352469 2 0 0.0994487 -0.192805
263 1 17.4569 4.57727 0.0147963 4 0.0042533 2 0 0.0994487 -0.0974087
264 1 18.1348 3.8547 0.0583493 4 0.00401712 2 0 0.0994487 -0.120516
265 1 18.8779 3.70667 0.95022 4 0.00523678 2 0 0.0994487 0.0692329
266 1 18.8235 4.60949 0.361826 4 0.0084503 2 0 0.0994487 0.115609
267 1 19.6906 4.67872 1.0803 4 0.0139755 2 0 0.0994487 0.931534
268 1 18.7859 5.27693 1.20102 4 0.0135506 2 0 0.0994487 0.599144
269 1 19.5987 3.76722 0.227421 4 0.00664177 2 0 0.0994487 0.164269
270 1 20.4384 3.82188 1.23329 4 0.00993727 2 0 0.0994487 0.325952
271 1 20.8846 4.71868 1.39403 4 0.0230955 2 0 0.0994487 0.149056
272 1 21.5775 4.95128 0.810455 4 0.0341193 2 0 0.0994487 -0.00376043
273 1 21.0824 3.93136 0.512408 4 0.0129022 2 0 0.0994487 0.0883015
274 1 20.1339 4.78559 0.352846 4 0.0175253 2 0 0.0994487 0.145585
275 1 22.8205 3.63186 1.42135 4 0.0131835 2 0 0.0994487 -0.0184019
276 1 21.9406 4.13318 1.31068 4 0.0185292 2 0 0.0994487 0.0272013
277 1 22.4705 5.17735 1.27286 4 0.0450187 2 0 0.0994487 0.0207019
278 1 22.6119 4.34705 0.510028 4 0.022786 2 0 0.0994487 -0.0221089
279 1 23.5735 3.63903 0.782677 4 0.0134332 2 0 0.0994487 0.185553
280 1 24.336 4.32055 0.625018 4 0.020731 2 0 0.0994487 -0.150096
281 1 23.4679 4.54946 1.33355 4 0.0273809 2 0 0.0994487 -0.0790594
282 1 24.8518 5.25716 0.566763 4 0.0345073 2 0 0.0994487 0.040905
283 1 23.5518 5.06386 0.533607 4 0.0394603 2 0 0.0994487 -0.0968923
284 1 25.0086 4.50055 1.62342 4 0.0197684 2 0 0.0994487 -0.0421963
285 1 25.0629 3.68037 0.802132 4 0.0108186 2 0 0.0994487 -0.187922
286 1 24.363 5.28843 1.43377 4 0.0408762 2 0 0.0994487 -0.154712
287 1 25.6904 5.1389 1.34266 4 0.024798 2 0 0.0994487 0.210098
288 1 26.3575 4.29031 1.37159 4 0.0108411 2 0 0.0994487 0.149481
289 1 26.5026 4.97257 0.640732 4 0.0154017 2 0 0.0994487 0.0989656
290 1 25.5284 4.40089 0.388179 4 0.0154582 2 0 0.0994487 0.0559467
291 1 27.3302 4.86961 1.40568 4 0.00964598 2 0 0.0994487 0.00660916
292 1 27.9624 3.97641 1.10408 4 0.00373844 2 0 0.0994487 -0.309509
293 1 28.2771 4.73475 0.706344 4 0.00510228 2 0 0.0994487 -0.0812476
294 1 27.0674 4.04323 0.570038 4 0.00645084 2 0 0.0994487 0.0120215
295 1 28.9321 3.77016 0.487204 4 0.00178687 2 0 0.0994487 -0.00703287
296 1 29.0873 4.52317 1.33085 4 0.00268284 2 0 0.0994487 0.0574857
297 1 29.9979 4.07209 1.02303 4 0.00111348 2 0 0.0994487 -0.275237
298 1 31.0296 3.97382 0.373364 4 0.00060249 2 0 0.0994487 0.657583
299 1 30.2046 4.67765 0.491317 4 0.00141294 2 0 0.0994487 0.00995868
300 1 30.9783 4.59929 1.41131 4 0.000869958 2 0 0.0994487 0.679915
301 1 0.908283 5.53205 0.461647 4 1.65049e-09 2 0 0.0994487 -0.463785
302 1 1.53161 5.51184 1.37971 4 3.2559e-09 2 0 0.0994487 -0.117387
303 1 0.793684 6.22023 1.2768 4 1.9202e-09 2 0 0.0994487 -0.703381
304 1 0.257003 6.91734 1.50738 4 1.32553e-09 2 0 0.0994487 -0.772633
305 1 0.969942 6.9454 0.573423 4 3.21213e-09 2 0 0.0994487 -0.473533
306 1 1.7053 7.02884 1.23811 4 7.38496e-09 2 0 0.0994487 0.0665175
307 1 1.89588 6.19966 0.519025 4 7.14325e-09 2 0 0.0994487 -0.1564
308 1 3.10475 5.61709 1.30057 4 2.30104e-08 2 0 0.0994487 0.040252
309 1 2.26359 6.15348 1.40977 4 9.90551e-09 2 0 0.0994487 0.0408558
310 1 3.25442 6.96226 1.12748 4 5.32394e-08 2 0 0.0994487 -0.0541247
311 1 2.68177 5.61289 0.273587 4 1.39148e-08 2 0 0.0994487 -0.0596861
312 1 3.39503 6.28191 0.500536 4 4.83659e-08 2 0 0.0994487 -0.121445
313 1 4.18979 5.46246 0.325783 4 7.77145e-08 2 0 0.0994487 0.0310169
314 1 4.93434 5.42873 1.31778 4 1.9858e-07 2 0 0.0994487 -0.235101
315 1 4.13622 6.09659 1.22779 4 1.09566e-07 2 0 0.0994487 -0.08939
316 1 4.82567 6.23357 0.333842 4 2.36105e-07 2 0 0.0994487 -0.0345767
317 1 4.77312 6.79931 1.15967 4 3.20116e-07 2 0 0.0994487 -0.305932
318 1 4.00267 7.02511 0.221759 4 1.26233e-07 2 0 0.0994487 -0.0853446
319 1 5.78575 5.42185 0.301847 4 4.33637e-07 2 0 0.0994487 0.0125016
320 1 5.6935 6.24342 0.9632 4 6.52067e-07 2 0 0.0994487 -0.967772
321 1 6.4578 5.98425 1.59671 4 1.22459e-06 2 0 0.0994487 0.140913
322 1 6.43234 6.86927 1.00965 4 1.95521e-06 2 0 0.0994487 0.851668
323 1 6.37773 6.04115 0.154639 4 9.67177e-07 2 0 0.0994487 0.111112
324 1 5.54993 7.05206 0.147147 4 6.81728e-07 2 0 0.0994487 0.0363856
325 1 8.21355 5.31419 0.694273 4 5.6909e-06 2 0 0.0994487 -0.0895937
326 1 7.32761 6.15925 0.754293 4 3.42748e-06 2 0 0.0994487 0.22573
327 1 7.39163 5.41839 1.49138 4 2.48102e-06 2 0 0.0994487 0.136753
328 1 8.23884 6.11028 1.49159 4 8.6925e-06 2 0 0.0994487 0.0187362
329 1 8.01352 6.85364 0.728993 4 9.92147e-06 2 0 0.0994487 0.0691842
330 1 7.28191 6.86379 1.59601 4 4.87965e-06 2 1 0.0994487 0.126048
331 1 7.33029 5.3575 0.0461812 4 1.882e-06 2 0 0.0994487 0.0813567
332 1 9.76796 5.3194 0.792562 4 2.37458e-05 2 0 0.0994487 0.328446
333 1 8.88016 6.18865 0.736908 4 1.70267e-05 2 0 0.0994487 -0.235544
334 1 9.05434 5.3271 1.5973 4 1.26197e-05 2 0 0.0994487 -0.0628314
335 1 9.73844 6.19052 1.46731 4 3.84735e-05 2 0 0.0994487 -0.106406
336 1 9.09351 6.95013 1.463 4 3.26421e-05 2 2 0.0994487 -0.07568
337 1 9.76329 6.23201 0.0941385 4 3.45231e-05 2 0 0.0994487 -0.0359531
338 1 8.99733 5.46479 0.012702 4 1.1186e-05 2 0 0.0994487 -0.134754
339 1 10.5831 6.02196 0.964384 4 7.31347e-05 2 0 0.0994487 -0.356501
340 1 11.3128 6.37134 0.0776634 4 0.000124898 2 0 0.0994487 0.100341
341 1 10.5187 6.94145 0.15452 4 9.03214e-05 2 0 0.0994487 -0.0735409
342 1 10.4686 6.92564 1.49614 4 0.000107331 2 1 0.0994487 -0.0635319
343 1 11.9994 5.6274 0.183157 4 0.00017659 2 0 0.0994487 -0.0105308
344 1 12.6757 5.81849 0.861776 4 0.000378287 2 0 0.0994487 0.0817428
345 1 11.7774 6.20735 1.05291 4 0.000212234 2 0 0.0994487 0.292172
346 1 13.3219 5.86668 1.55471 4 0.000618454 2 0 0.0994487 0.208165
347 1 13.3506 6.58297 0.813679 4 0.000975138 2 0 0.0994487 -0.292125
348 1 13.3212 5.53867 0.0424813 4 0.000529724 2 0 0.0994487 -0.142911
349 1 14.0617 5.71565 0.77266 4 0.00107401 2 0 0.0994487 -0.372711
350 1 14.3278 6.65176 1.40646 4 0.00222944 2 1 0.0994487 -0.103115
351 1 14.1303 6.38483 0.0380077 4 0.00134559 2 0 0.0994487 -0.0826111
352 1 15.0282 5.64393 0.034369 4 0.00181852 2 0 0.0994487 0.0573629
353 1 15.8305 5.73813 0.95832 4 0.00358029 2 0 0.0994487 0.625787
354 1 15.0472 6.45091 0.806774 4 0.00314841 2 0 0.0994487 -0.176065
355 1 16.491 6.45257 1.1401 4 0.00809081 2 0 0.0994487 0.208318
356 1 15.1058 5.87594 1.69804 4 0.00253319 2 0 0.0994487 -0.0976595
357 1 16.62 5.41933 0.276819 4 0.00449406 2 0 0.0994487 0.0799223
358 1 15.6753 6.3382 0.0390223 4 0.00391594 2 0 0.0994487 0.0398497
359 1 17.8271 5.30128 0.541411 4 0.00810499 2 0 0.0994487 0.150328
360 1 17.113 5.42499 1.24767 4 0.00646826 2 0 0.0994487 -0.286574
361 1 17.0619 6.27419 0.411469 4 0.0094217 2 0 0.0994487 0.13895
362 1 17.6649 6.24649 1.38542 4 0.0137516 2 0 0.0994487 -0.254253
363 1 18.2745 7.0517 1.13153 4 0.0278869 2 1 0.0994487 0.631133
364 1 18.3714 6.23173 0.609762 4 0.0192148 2 0 0.0994487 0.156181
365 1 19.429 5.75829 0.62055 4 0.0252708 2 0 0.0994487 0.0571854
366 1 19.3279 6.55755 1.35081 4 0.039207 2 1 0.0994487 0.274718
367 1 19.9942 6.75229 0.610261 4 0.0621964 2 0 0.0994487 -0.011925
368 1 20.7494 5.77593 0.653722 4 0.0474858 2 0 0.0994487 -0.104072
369 1 20.1931 5.61076 1.39557 4 0.0335014 2 0 0.0994487 0.312017
370 1 20.7787 6.6124 1.30355 4 0.0880692 2 1 0.0994487 -0.344702
371 1 21.6592 6.66248 0.666524 4 0.101417 2 0 0.0994487 -0.0435262
372 1 21.6631 5.87866 1.38528 4 0.070281 2 0 0.0994487 0.0420681
373 1 21.6904 5.73259 0.0517844 4 0.0539933 2 0 0.0994487 -0.00150347
374 1 22.6732 5.8279 0.674154 4 0.0690051 2 0 0.0994487 0.00264932
375 1 22.6319 6.69333 1.20734 4 0.126892 2 0 0.0994487 -0.202055
376 1 23.3484 6.78052 0.267835 4 0.11031 2 0 0.0994487 -0.125383
377 1 23.4822 5.88496 1.30013 4 0.0741545 2 0 0.0994487 -0.176401
378 1 24.3197 6.56281 1.15825 4 0.0897732 2 0 0.0994487 0.173517
379 1 24.1457 6.00685 0.427617 4 0.0655872 2 0 0.0994487 0.00243602
380 1 25.6831 5.86213 0.700952 4 0.0375241 2 0 0.0994487 0.163895
381 1 25.1124 6.04132 1.67733 4 0.0514283 2 0 0.0994487 0.00366743
382 1 25.1593 6.74159 0.495153 4 0.0698889 2 0 0.0994487 0.0903894
383 1 25.8251 6.59457 1.40775 4 0.0511475 2 0 0.0994487 0.0880997
384 1 26.6903 5.84511 1.4763 4 0.0240106 2 0 0.0994487 0.0917612
385 1 27.4966 5.54334 0.722172 4 0.0126264 2 0 0.0994487 -0.251572
386 1 26.7485 6.36567 0.651888 4 0.0296388 2 0 0.0994487 0.0387505
387 1 27.7011 6.47315 1.36539 4 0.01846 2 0 0.0994487 0.131494
388 1 28.3648 5.52203 1.4872 4 0.00746574 2 0 0.0994487 0.0456334
389 1 27.7097 7.0074 0.530173 4 0.0222515 2 0 0.0994487 0.0321248
390 1 29.3889 5.30889 0.818726 4 0.00357295 2 0 0.0994487 0.316721
391 1 29.4379 6.18214 1.32212 4 0.00495026 2 0 0.0994487 -0.00338056
392 1 29.5784 6.89773 0.506505 4 0.00598768 2 0 0.0994487 0.0925874
393 1 28.4685 6.20589 0.638647 4 0.00940629 2 0 0.0994487 -0.270081
394 1 29.3762 6.15398 0.0801838 4 0.00483536 2 0 0.0994487 0.0969262
395 1 28.4822 5.38976 0.0592959 4 0.00579208 2 0 0.0994487 -0.105003
396 1 30.9636 5.36838 0.595026 4 0.00140432 2 0 0.0994487 0.667848
397 1 30.2159 5.45949 1.46813 4 0.00211665 2 0 0.0994487 0.0540217
398 1 30.3958 6.18258 0.649752 4 0.0027496 2 0 0.0994487 0.329002
399 1 31.2189 6.15516 1.38439 4 0.00165984 2 0 0.0994487 0.587258
400 1 31.1994 6.95407 0.60342 4 0.00231858 2 0 0.0994487 0.812253
401 1 31.7235 5.99622 0.446564 4 0.00122589 2 0 0.0994487 0.879729
402 1 0.261851 7.63199 0.661866 4 1.89807e-09 2 0 0.0994487 -0.876373
403 1 0.831025 8.46344 0.61936 4 4.29493e-09 2 0 0.0994487 -0.577626
404 1 1.11211 7.86396 1.49711 4 4.55301e-09 2 0 0.0994487 -0.154429
405 1 0.356955 8.5626 1.47035 4 2.50948e-09 2 0 0.0994487 -0.764984
406 1 1.59266 7.76478 0.37187 4 8.53186e-09 2 0 0.0994487 -0.0897883
407 1 1.72382 8.61735 1.46471 4 1.2242e-08 2 0 0.0994487 0.0395961
408 1 2.48799 7.14986 0.476331 4 2.24536e-08 2 0 0.0994487 -0.0836969
409 1 2.19177 8.6335 0.399707 4 2.32434e-08 2 0 0.0994487 -0.137268
410 1 2.39416 7.81099 1.27726 4 2.36755e-08 2 0 0.0994487 0.0869911
411 1 3.01349 8.51445 0.935533 4 6.41593e-08 2 0 0.0994487 -0.539313
412 1 3.24418 7.77117 0.327041 4 6.74959e-08 2 0 0.0994487 -0.196206
413 1 3.81243 8.45898 0.0822892 4 1.4084e-07 2 0 0.0994487 -0.0457792
414 1 3.97971 7.67009 1.24863 4 1.60812e-07 2 0 0.0994487 -0.05549
415 1 4.70459 8.25653 0.921772 4 4.48749e-07 2 0 0.0994487 0.295325
416 1 4.67023 7.63706 0.247803 4 3.27731e-07 2 0 0.0994487 0.0376909
417 1 3.81127 8.34851 1.76162 4 1.39643e-07 2 0 0.0994487 -0.0574365
418 1 5.86955 8.34822 0.169905 4 1.47393e-06 2 0 0.0994487 0.113104
419 1 5.48363 7.59071 1.03232 4 9.49292e-07 2 0 0.0994487 -0.467669
420 1 6.49365 7.53799 0.169175 4 2.31671e-06 2 0 0.0994487 0.187622
421 1 6.39674 8.23976 1.04384 4 3.34475e-06 2 0 0.0994487 0.338149
422 1 7.28583 7.76918 0.746313 4 7.30582e-06 2 1 0.0994487 0.00992927
423 1 8.2859 8.31376 0.868772 4 2.53416e-05 2 2 0.0994487 0.278827
424 1 7.27857 8.18368 1.7015 4 1.02225e-05 2 2 0.0994487 -0.174654
425 1 8.05208 7.48784 1.5604 4 1.50243e-05 2 1 0.0994487 0.185099
426 1 7.99895 7.60312 0.0282118 4 1.05257e-05 2 0 0.0994487 0.0674121
427 1 9.84313 7.22199 0.72344 4 6.8919e-05 2 1 0.0994487 -0.346917
428 1 8.91207 7.61626 0.661731 4 3.37938e-05 2 1 0.0994487 0.158738
429 1 9.73234 8.61964 0.693151 4 0.000107694 2 3 0.0994487 -0.257266
430 1 9.09265 8.69904 1.44495 4 7.37374e-05 2 9 0.0994487 -0.394597
431 1 9.64026 7.88932 1.60055 4 9.39669e-05 2 8 0.0994487 -0.340199
432 1 11.3161 7.14287 0.810636 4 0.000220781 2 1 0.0994487 0.448481
433 1 10.5731 7.9454 0.844311 4 0.000173428 2 3 0.0994487 -0.198613
434 1 10.5877 8.70196 1.4255 4 0.000252425 1 8 0.0994487 -0.147961
435 1 11.4057 7.80503 1.60301 4 0.000370859 2 7 0.0994487 0.22805
436 1 11.227 8.11851 0.0422735 4 0.000238091 2 0 0.0994487 0.174327
437 1 12.7061 7.28322 0.565784 4 0.000799193 2 0 0.0994487 -0.0531449
438 1 12.178 8.23518 0.590765 4 0.00070637 2 2 0.0994487 0.16392
439 1 12.0637 7.15788 1.37768 4 0.000462926 2 3 0.0994487 0.145597
440 1 12.0887 8.68064 1.49044 4 0.000909719 1 8 0.0994487 0.0831791