ITEM: TIMESTEP
19500
ITEM: NUMBER OF ATOMS
9495
ITEM: BOX BOUNDS mm mm mm
0.0000000000000000e+00 3.1748021039364001e+01
0.0000000000000000e+00 3.1748021039364001e+01
-7.4072398406925706e-04 3.1748021039364001e+01
ITEM: ATOMS id type x y z c_phase c_temp c_surf c_nbond c_visc f_3[1]
1 1 0.116341 1.10259 0.464337 4 2.90216e-08 2 0 0.0994487 -0.68194
2 1 0.974108 1.6685 0.77798 4 7.19381e-08 2 0 0.0994487 -0.517031
3 1 0.714648 0.793562 1.41295 4 4.01335e-08 2 0 0.0994487 -0.281794
4 1 0.00336375 1.60273 1.37437 4 3.47787e-08 2 0 0.0994487 -0.804051
5 1 0.729896 0.0633724 0.61602 4 2.58751e-08 3 0 0.0994487 -0.190374
6 1 1.71015 0.808983 1.0155 4 9.98893e-08 2 0 0.0994487 -0.332068
7 1 1.80059 1.47468 0.221075 4 1.1888e-07 2 0 0.0994487 -0.125829
8 1 1.82015 1.66049 1.76126 4 1.39032e-07 2 0 0.0994487 -0.139532
9 1 2.52093 0.749102 0.203812 4 1.66904e-07 2 0 0.0994487 -0.142939
10 1 2.59149 0.0538711 1.03726 4 1.55038e-07 2 0 0.0994487 -0.295004
11 1 2.64922 1.541 0.882848 4 2.7552e-07 2 0 0.0994487 0.23576
12 1 2.66829 0.815502 1.7457 4 2.07556e-07 2 0 0.0994487 -0.18704
13 1 3.43386 0.933692 0.956349 4 4.43854e-07 2 0 0.0994487 0.320245
14 1 3.49924 0.0925696 1.70571 4 2.88532e-07 2 0 0.0994487 0.178054
15 1 3.60652 1.70798 1.71994 4 6.67763e-07 2 0 0.0994487 0.0487961
16 1 4.10576 0.858321 0.325305 4 7.6005e-07 2 0 0.0994487 0.153147
17 1 4.96159 0.56786 1.17466 4 1.62711e-06 2 0 0.0994487 -0.0370653
18 1 4.91949 1.59987 0.383508 4 2.20912e-06 2 0 0.0994487 -0.100246
19 1 4.3472 0.941527 1.62884 4 9.83197e-07 2 0 0.0994487 0.11074
20 1 3.47612 0.111428 0.171027 4 2.6607e-07 2 0 0.0994487 0.166216
21 1 5.64741 0.645627 0.325839 4 2.88356e-06 2 0 0.0994487 -0.0806036
22 1 5.88414 1.31048 0.938036 4 4.42464e-06 2 0 0.0994487 -0.199574
23 1 6.57478 1.39104 0.218369 4 7.65403e-06 2 0 0.0994487 -0.0861318
24 1 5.78374 0.460658 1.69897 4 2.87082e-06 2 0 0.0994487 -0.0846512
25 1 5.03122 1.72414 1.43602 4 2.45713e-06 2 0 0.0994487 0.0453742
26 1 6.7138 0.39031 0.865278 4 6.27153e-06 2 0 0.0994487 -0.0793803
27 1 6.69104 1.00962 1.69374 4 6.90754e-06 2 0 0.0994487 -0.107922
28 1 8.2679 0.408875 1.07337 4 1.84899e-05 2 0 0.0994487 -0.100165
29 1 7.36782 1.22285 0.954198 4 1.31773e-05 2 0 0.0994487 -0.302543
30 1 8.24709 1.39092 0.236779 4 2.52236e-05 2 0 0.0994487 -0.0460622
31 1 8.12868 1.27217 1.60653 4 2.16136e-05 2 0 0.0994487 -0.00811494
32 1 7.58247 0.647807 0.140287 4 1.22906e-05 2 0 0.0994487 -0.110935
33 1 8.85849 0.508506 0.273966 4 2.74583e-05 2 0 0.0994487 -0.061645
34 1 9.55301 0.3386 0.888639 4 4.17372e-05 2 0 0.0994487 0.00506579
35 1 9.02586 1.30716 1.1133 4 4.21252e-05 2 0 0.0994487 -0.0606387
37 1 9.63995 1.37474 0.0900752 4 5.68795e-05 2 0 0.0994487 0.0992927
38 1 11.2128 0.215893 0.632658 4 0.000115093 2 0 0.0994487 0.203505
39 1 10.3637 1.04743 0.823114 4 8.7773e-05 2 0 0.0994487 0.539891
40 1 10.523 0.196295 1.44539 4 7.33491e-05 2 0 0.0994487 0.0644299
41 1 11.2856 1.01846 1.41785 4 0.000167217 2 0 0.0994487 0.16471
42 1 10.5797 1.67706 1.72992 4 0.00013289 2 0 0.0994487 0.118166
43 1 10.2431 0.367861 0.0780499 4 5.4723e-05 2 0 0.0994487 0.149802
44 1 12.8757 0.211714 0.636805 4 0.000337187 2 0 0.0994487 0.0587892
45 1 12.0457 1.07408 0.506655 4 0.00028559 2 0 0.0994487 -0.0235488
46 1 12.1319 0.316439 1.29957 4 0.000229913 2 0 0.0994487 0.0188386
47 1 12.7194 1.19864 1.3723 4 0.000450056 2 0 0.0994487 -0.0305244
48 1 14.3729 0.318493 0.764646 4 0.000781976 2 0 0.0994487 -0.0460372
49 1 13.5924 1.113 0.843618 4 0.000722998 2 0 0.0994487 -0.263049
50 1 14.0399 1.55958 0.167469 4 0.00105221 2 0 0.0994487 -0.0898239
51 1 13.6075 0.359834 1.6352 4 0.000519805 2 0 0.0994487 -0.0562621
52 1 14.3777 1.14948 1.47647 4 0.00099593 2 0 0.0994487 -0.0178259
53 1 14.8761 1.55337 0.662943 4 0.00149022 2 0 0.0994487 0.389951
54 1 15.7061 0.770636 0.788259 4 0.00160913 2 0 0.0994487 0.366485
55 1 16.5532 1.54451 0.681338 4 0.00332056 2 0 0.0994487 0.00080701
56 1 15.1422 0.4642 1.64149 4 0.00107439 2 0 0.0994487 0.152078
57 1 16.547 0.712289 1.3421 4 0.00243788 2 0 0.0994487 0.0956276
58 1 15.6341 1.48544 1.3916 4 0.00208069 2 0 0.0994487 0.153633
59 1 15.1049 0.711806 0.0677822 4 0.001067 2 0 0.0994487 0.169203
60 1 17.2544 0.732268 0.547589 4 0.00319396 2 0 0.0994487 0.0286306
61 1 17.9231 1.58109 0.757246 4 0.00556786 2 0 0.0994487 0.0415641
62 1 17.916 0.742935 1.42801 4 0.00417456 2 0 0.0994487 -0.224376
63 1 17.2202 1.74884 1.56274 4 0.00484911 2 0 0.0994487 -0.0984828
64 1 19.5372 0.0167772 0.662766 4 0.00456432 2 0 0.0994487 0.043644
65 1 18.7918 0.725074 0.684829 4 0.00502631 2 0 0.0994487 -0.269945
66 1 19.5395 1.55488 0.841653 4 0.00820445 2 0 0.0994487 -0.341161
67 1 19.0276 0.158607 1.54508 4 0.00444171 2 0 0.0994487 -0.158664
68 1 19.5934 0.967491 1.68957 4 0.00636566 2 0 0.0994487 0.00835116
69 1 18.6564 1.51302 1.50035 4 0.00668218 2 0 0.0994487 -0.250307
70 1 21.0889 0.349843 1.06749 4 0.00652319 2 0 0.0994487 -0.196126
71 1 20.2493 0.776373 0.980057 4 0.00674875 2 0 0.0994487 -0.0497607
72 1 21.1062 1.65725 0.951506 4 0.0103407 2 0 0.0994487 0.692915
73 1 21.1874 0.765598 0.218806 4 0.00712657 2 0 0.0994487 -0.0445906
74 1 20.3457 1.51479 0.193617 4 0.00890243 2 0 0.0994487 -0.0806023
75 1 22.0087 0.262534 0.539755 4 0.00657864 2 0 0.0994487 0.0993595
76 1 22.7913 0.430275 1.40734 4 0.00709833 2 0 0.0994487 0.2066
77 1 22.1105 1.14763 1.32981 4 0.00872697 2 0 0.0994487 0.240024
78 1 21.9982 1.59955 0.538558 4 0.0107473 2 0 0.0994487 0.185172
79 1 22.9157 1.07463 0.445168 4 0.00867782 2 0 0.0994487 0.0520849
80 1 24.228 0.380179 1.45209 4 0.00692705 2 0 0.0994487 0.057617
81 1 23.5672 0.357563 0.57369 4 0.0070184 2 0 0.0994487 0.0385712
82 1 24.4367 1.18687 0.754729 4 0.00909822 2 0 0.0994487 -0.0192953
83 1 23.4757 1.2499 1.4028 4 0.00971637 2 0 0.0994487 0.0298778
84 1 24.955 0.315686 0.551996 4 0.00623634 2 0 0.0994487 -0.0171984
85 1 26.0085 0.383365 1.1715 4 0.00520645 2 0 0.0994487 -0.185859
86 1 25.169 1.12579 1.48087 4 0.00820103 2 0 0.0994487 0.0251055
87 1 25.9301 1.73476 1.35794 4 0.00924066 2 0 0.0994487 0.0345367
88 1 25.8917 0.929212 0.432102 4 0.00631585 2 0 0.0994487 -0.0954193
89 1 27.5736 1.28032 0.38906 4 0.00448345 2 0 0.0994487 0.0454496
90 1 27.6142 0.50928 0.874321 4 0.00355638 2 0 0.0994487 0.175388
91 1 26.7559 1.02809 1.26347 4 0.00520857 2 0 0.0994487 -0.236885
92 1 28.3748 0.337482 1.39813 4 0.00259075 2 0 0.0994487 0.00984462
93 1 26.7925 0.240345 0.226621 4 0.00392726 2 0 0.0994487 0.038075
94 1 28.6489 1.24263 0.742341 4 0.00318914 2 0 0.0994487 0.102406
95 1 29.3912 0.945639 1.56878 4 0.00213374 2 0 0.0994487 -0.0192005
96 1 28.5228 1.71921 1.49749 4 0.00386415 2 0 0.0994487 -0.0429805
97 1 29.8133 0.173958 1.46124 4 0.00149498 2 0 0.0994487 0.133416
98 1 29.2734 0.3547 0.615275 4 0.00183863 2 0 0.0994487 -0.0816811
99 1 31.5874 0.266128 1.25663 4 0.000765807 3 0 0.0994487 0.830097
100 1 30.7016 0.49015 0.470738 4 0.00120331 2 0 0.0994487 0.354852
101 1 30.1009 1.19877 0.774133 4 0.00187358 2 0 0.0994487 0.21092
102 1 30.8649 0.971942 1.39386 4 0.00136868 2 0 0.0994487 0.703281
103 1 1.11081 2.43607 0.129285 4 9.18355e-08 2 0 0.0994487 -0.037322
104 1 0.133403 2.3821 0.812241 4 5.47339e-08 2 0 0.0994487 -0.984517
105 1 1.28845 3.23764 0.949187 4 1.77954e-07 2 0 0.0994487 0.222096
106 1 1.13977 2.36077 1.59162 4 1.08852e-07 2 0 0.0994487 -0.222189
107 1 0.386685 3.02999 1.54944 4 8.41642e-08 2 0 0.0994487 -0.671256
108 1 0.332248 3.09582 0.131296 4 7.3903e-08 2 0 0.0994487 -0.59134
109 1 1.90972 2.41867 0.78376 4 2.05832e-07 2 0 0.0994487 0.0782109
110 1 2.65852 3.28029 0.860875 4 6.26774e-07 2 0 0.0994487 0.0668065
111 1 2.66931 2.22918 1.53373 4 3.73181e-07 2 0 0.0994487 0.0829562
112 1 3.2579 3.42668 1.64938 4 1.11048e-06 2 0 0.0994487 0.00397657
113 1 2.7261 2.38168 0.0557193 4 3.33799e-07 2 0 0.0994487 0.146601
114 1 3.38195 2.55413 0.779289 4 8.29739e-07 2 0 0.0994487 0.211586
115 1 4.00679 1.841 0.711184 4 1.09586e-06 2 0 0.0994487 -0.0361209
116 1 4.91383 2.57277 0.815661 4 3.34293e-06 2 0 0.0994487 -0.259345
117 1 4.20148 3.3175 0.749446 4 2.51108e-06 2 0 0.0994487 0.0062181
118 1 4.13245 2.64107 1.58328 4 1.69107e-06 2 0 0.0994487 0.0270795
119 1 5.65047 2.44269 0.132743 4 5.51879e-06 2 0 0.0994487 -0.189924
120 1 6.55776 2.18062 0.772597 4 1.04777e-05 2 0 0.0994487 -0.289369
121 1 5.64874 3.19593 0.952489 4 7.9578e-06 2 0 0.0994487 -0.754626
122 1 5.861 2.19426 1.49672 4 5.87426e-06 2 0 0.0994487 0.0126377
123 1 6.52037 3.06691 1.5557 4 1.44607e-05 2 0 0.0994487 0.0443597
124 1 6.65033 2.92778 0.134227 4 1.36061e-05 2 0 0.0994487 0.0288885
125 1 7.45405 2.22586 0.139832 4 2.02384e-05 2 0 0.0994487 -0.0535004
126 1 8.08209 2.20208 0.930382 4 3.32353e-05 2 0 0.0994487 -0.302057
127 1 7.40132 3.06835 0.934051 4 2.96736e-05 2 0 0.0994487 -0.0454975
128 1 7.29928 2.06035 1.56856 4 1.69114e-05 2 0 0.0994487 -0.0607308
129 1 8.18545 3.00183 1.65211 4 4.97723e-05 2 0 0.0994487 -0.0454138
130 1 8.26934 2.9712 0.0392146 4 5.17721e-05 2 0 0.0994487 -0.150615
131 1 8.90393 2.08699 0.252387 4 5.23422e-05 2 0 0.0994487 0.00243557
132 1 9.77243 2.0246 1.10996 4 9.43401e-05 2 0 0.0994487 0.173472
133 1 8.92671 2.97262 0.928693 4 8.61437e-05 2 0 0.0994487 -0.156739
134 1 9.03062 2.22066 1.70398 4 6.23875e-05 2 0 0.0994487 -0.0819661
135 1 9.56096 2.90576 0.21312 4 0.000116493 2 0 0.0994487 0.173122
136 1 10.2834 2.1137 0.214297 4 0.000117284 2 0 0.0994487 0.33774
137 1 11.1583 1.82604 0.771092 4 0.000216148 2 0 0.0994487 0.260093
138 1 10.6214 2.80819 0.921535 4 0.000245991 2 0 0.0994487 0.541925
139 1 11.4444 2.82964 1.57484 4 0.000430771 2 0 0.0994487 0.0952025
140 1 12.6737 1.94118 0.593851 4 0.000633219 2 0 0.0994487 -0.28393
141 1 11.928 2.64099 0.742299 4 0.000540059 2 0 0.0994487 -0.0386702
142 1 11.9239 1.9206 1.46509 4 0.000374762 2 0 0.0994487 0.0946565
143 1 12.8449 3.01766 1.68597 4 0.00106846 2 0 0.0994487 0.0363584
144 1 13.1791 3.03035 0.848852 4 0.00135331 2 0 0.0994487 -0.44085
145 1 13.3784 1.9912 1.48064 4 0.000897869 2 0 0.0994487 -0.0150685
146 1 14.0206 2.44438 0.927124 4 0.00157735 2 0 0.0994487 -0.133092
147 1 14.0279 3.38359 1.55716 4 0.00242446 2 0 0.0994487 0.0255761
148 1 14.6961 3.43698 0.884932 4 0.00352454 2 0 0.0994487 -0.332949
149 1 14.7823 2.29758 1.44821 4 0.00207201 2 0 0.0994487 0.0469285
150 1 14.8418 2.51505 0.136557 4 0.00230616 2 0 0.0994487 0.173006
151 1 14.1591 3.2262 0.0325348 4 0.00240689 2 0 0.0994487 -0.246104
152 1 13.4137 2.29398 0.0590902 4 0.00108112 2 0 0.0994487 -0.28096
153 1 15.6993 2.44373 0.692668 4 0.00341252 2 0 0.0994487 0.364395
154 1 16.3029 3.20095 0.662084 4 0.00628045 2 0 0.0994487 0.328589
155 1 16.308 2.47951 1.52575 4 0.00470476 2 0 0.0994487 -0.100646
156 1 15.3694 3.25723 1.50191 4 0.00444489 2 0 0.0994487 -0.00766804
157 1 15.5706 3.25854 0.0192499 4 0.00422943 2 0 0.0994487 0.290238
158 1 17.0646 2.35032 0.682778 4 0.00589517 2 0 0.0994487 0.023482
159 1 17.944 2.92608 0.699539 4 0.0109808 2 0 0.0994487 -0.23119
160 1 18.0193 2.43917 1.58112 4 0.00873509 2 0 0.0994487 -0.149134
161 1 17.0918 3.1162 1.49491 4 0.00881354 2 0 0.0994487 -0.143434
162 1 18.8908 2.35742 1.01358 4 0.0105562 2 0 0.0994487 -0.51683
163 1 19.7027 3.2427 1.27782 4 0.0187677 2 0 0.0994487 0.39488
164 1 18.884 2.99607 0.196019 4 0.0141851 2 0 0.0994487 -0.171809
165 1 19.587 2.34239 0.101452 4 0.0117973 2 0 0.0994487 -0.13237
166 1 20.3251 1.78863 1.72442 4 0.00966749 2 0 0.0994487 0.0449532
167 1 21.1565 2.41663 0.458355 4 0.0153956 2 0 0.0994487 0.196188
168 1 20.1948 2.46882 1.11433 4 0.013648 2 0 0.0994487 0.286743
169 1 21.31 3.29463 1.39314 4 0.0263399 2 0 0.0994487 0.0777294
170 1 20.4222 2.99313 0.334941 4 0.0183821 2 0 0.0994487 0.18629
171 1 22.8719 2.07007 1.50872 4 0.0148382 2 0 0.0994487 -0.0221229
172 1 22.9717 2.60199 0.735523 4 0.0210372 2 0 0.0994487 0.133327
173 1 22.0961 2.49917 1.23787 4 0.0185046 2 0 0.0994487 0.186439
174 1 21.9898 3.20043 0.598797 4 0.0278966 2 0 0.0994487 -0.0757493
175 1 22.6771 3.40124 0.07601 4 0.0319689 2 0 0.0994487 0.0760738
176 1 23.7438 1.80844 0.624025 4 0.0125516 2 0 0.0994487 -0.0873585
177 1 24.4289 1.98763 1.61102 4 0.013419 2 0 0.0994487 -0.0641751
178 1 24.342 2.68296 0.775192 4 0.0196434 2 0 0.0994487 -0.341091
179 1 23.6887 2.90303 1.53628 4 0.0234856 2 0 0.0994487 -0.110504
180 1 24.4728 3.51078 1.55704 4 0.0309179 2 0 0.0994487 -0.118304
181 1 24.9562 2.84566 0.0146836 4 0.0186154 2 0 0.0994487 -0.0864592
182 1 26.5483 1.79415 0.511367 4 0.00781623 2 0 0.0994487 -0.00559968
183 1 25.1322 1.85613 0.509414 4 0.0115132 2 0 0.0994487 -0.0215285
184 1 25.7918 2.61203 0.707489 4 0.0151779 2 0 0.0994487 0.228203
185 1 25.1579 2.55548 1.52547 4 0.0165893 2 0 0.0994487 0.0576674
186 1 25.7213 3.49812 1.51211 4 0.025084 2 0 0.0994487 0.123858
187 1 26.5364 2.56002 1.53049 4 0.0118276 2 0 0.0994487 0.057948
188 1 26.1686 3.50068 0.599043 4 0.0223814 2 0 0.0994487 0.168845
189 1 27.5039 1.98546 1.23792 4 0.0062252 2 0 0.0994487 -0.186418
190 1 28.2489 2.09022 0.343734 4 0.0049932 2 0 0.0994487 -0.0177246
191 1 27.0867 2.6924 0.645359 4 0.0104348 2 0 0.0994487 -0.1056
192 1 27.1998 3.35397 1.41682 4 0.0140854 2 0 0.0994487 -0.098328
193 1 28.2537 2.75799 1.20639 4 0.00681528 2 0 0.0994487 -0.418306
194 1 27.982 3.21993 0.326384 4 0.00923078 2 0 0.0994487 -0.125257
195 1 29.9568 1.80906 1.70764 4 0.00242487 2 0 0.0994487 0.183201
196 1 29.4477 2.04702 0.879698 4 0.00324914 2 0 0.0994487 -0.0070828
197 1 29.1956 2.6589 0.290703 4 0.00443337 2 0 0.0994487 -0.0578282
198 1 29.2495 3.2651 1.17365 4 0.00576588 2 0 0.0994487 0.118635
199 1 30.9114 1.98502 0.924207 4 0.00209255 2 0 0.0994487 0.967251
200 1 30.1815 2.71094 1.00186 4 0.00326575 2 0 0.0994487 0.675111
201 1 31.0247 3.35309 0.97101 4 0.0033377 2 0 0.0994487 0.998409
202 1 30.9865 2.69483 1.72648 4 0.00260403 2 0 0.0994487 0.578502
203 1 30.1092 3.25953 0.132205 4 0.00382729 2 0 0.0994487 -0.0443658
204 1 30.4116 1.90909 0.0255368 4 0.00213556 2 0 0.0994487 0.106045
205 1 31.1434 2.66402 0.0761253 4 0.0023663 2 0 0.0994487 0.70882
206 1 0.293831 3.78503 0.918557 4 1.09289e-07 2 0 0.0994487 -0.999347
207 1 0.143046 4.59443 0.482118 4 1.29533e-07 2 0 0.0994487 -0.784494
208 1 1.14036 4.67093 0.986638 4 2.94222e-07 2 0 0.0994487 -0.516749
209 1 0.0884667 5.26681 1.27761 4 1.60762e-07 2 0 0.0994487 -0.887458
210 1 1.04069 3.86421 0.0595682 4 1.68245e-07 2 0 0.0994487 0.0148883
211 1 1.84117 4.04604 0.847105 4 4.31801e-07 2 0 0.0994487 0.00827209
212 1 2.54049 4.85585 1.13748 4 1.11149e-06 2 0 0.0994487 -0.333844
213 1 2.64953 4.14475 0.20674 4 9.16219e-07 2 0 0.0994487 -0.0285712
214 1 1.89758 4.96895 0.278386 4 6.50319e-07 2 0 0.0994487 -0.153433
215 1 3.40771 4.86189 0.161635 4 2.34487e-06 2 0 0.0994487 -0.0163868
216 1 3.494 4.07675 0.885909 4 1.89797e-06 2 0 0.0994487 0.0268983
217 1 4.91235 4.00001 1.18344 4 6.20858e-06 2 0 0.0994487 0.0115197
218 1 4.04658 4.88002 1.14639 4 4.2174e-06 2 0 0.0994487 0.264493
219 1 4.26027 4.18509 0.149001 4 3.69165e-06 2 0 0.0994487 0.0377394
220 1 5.00947 4.74001 0.341082 4 8.88092e-06 2 0 0.0994487 0.0765423
221 1 5.77735 3.9378 0.198707 4 1.07516e-05 2 0 0.0994487 0.0260171
222 1 6.48883 3.76611 0.772067 4 1.9198e-05 2 0 0.0994487 0.204558
223 1 5.68025 4.73638 1.02487 4 1.61924e-05 2 0 0.0994487 -0.62167
224 1 6.66321 4.5115 1.6428 4 2.97227e-05 2 0 0.0994487 0.158936
225 1 6.68072 5.1315 0.885352 4 4.19657e-05 2 0 0.0994487 0.206868
226 1 8.1982 3.892 0.700757 4 8.10242e-05 2 0 0.0994487 -0.369895
227 1 7.40842 4.46072 0.5468 4 5.59956e-05 2 0 0.0994487 -0.0252091
228 1 7.39886 3.87029 1.49684 4 4.13438e-05 2 0 0.0994487 0.10258
229 1 8.20004 4.61106 1.48677 4 0.000108539 2 0 0.0994487 -0.0118339
230 1 9.8976 3.57792 0.885667 4 0.000223475 2 0 0.0994487 0.592826
231 1 9.07913 4.56551 0.821335 4 0.000200844 2 0 0.0994487 -0.658529
232 1 9.86266 4.50302 0.126324 4 0.000291232 2 0 0.0994487 0.0958674
233 1 9.07829 3.76256 1.49819 4 0.000140462 2 0 0.0994487 -0.0708829
234 1 9.86881 4.3462 1.65532 4 0.000312914 2 0 0.0994487 -0.0856601
235 1 8.98541 3.86821 0.0631775 4 0.00012972 2 0 0.0994487 -0.138752
236 1 11.408 3.64493 0.778297 4 0.000625463 2 0 0.0994487 0.202071
237 1 10.5891 4.66652 0.906264 4 0.00057337 2 0 0.0994487 0.0450952
238 1 11.3867 4.69403 0.230734 4 0.00096186 2 0 0.0994487 -0.0498875
239 1 10.7059 3.56689 1.58785 4 0.000384462 2 0 0.0994487 -0.0448467
240 1 11.3652 4.3716 1.70545 4 0.000831027 2 0 0.0994487 -0.0798255
241 1 11.3894 5.27213 0.983682 4 0.00122882 2 0 0.0994487 -0.674469
242 1 10.5826 3.84888 0.176129 4 0.000368648 2 0 0.0994487 0.210468
243 1 12.5168 3.57716 0.814749 4 0.00120353 2 0 0.0994487 -0.0105732
244 1 12.1916 4.55033 1.00021 4 0.00150953 2 0 0.0994487 0.105063
245 1 12.7362 4.99738 1.68903 4 0.00230011 2 0 0.0994487 0.191331
246 1 13.2258 4.67863 0.80017 4 0.00292904 2 0 0.0994487 -0.00469249
247 1 12.6435 4.61885 0.0632315 4 0.00204659 2 0 0.0994487 -0.0335789
248 1 13.9891 4.12825 0.69648 4 0.00352435 2 0 0.0994487 -0.430176
249 1 13.4832 4.21781 1.59317 4 0.00263196 2 0 0.0994487 0.0820191
250 1 14.2046 5.11838 1.52001 4 0.00585421 2 0 0.0994487 -0.0289899
251 1 14.9402 5.01141 0.811699 4 0.00805624 2 0 0.0994487 -0.0527079
252 1 14.9642 4.4167 1.59432 4 0.00630517 2 0 0.0994487 -0.0635615
253 1 14.1405 4.90647 0.0597868 4 0.00512656 2 0 0.0994487 -0.0856938
254 1 14.961 4.19423 0.096508 4 0.00539392 2 0 0.0994487 0.0322732
255 1 15.6685 4.06642 0.926277 4 0.00732165 2 0 0.0994487 0.872601
256 1 15.8798 4.77595 0.186426 4 0.010734 2 0 0.0994487 0.16539
257 1 16.5936 4.58036 0.900182 4 0.0140087 2 0 0.0994487 -0.078981
258 1 16.3184 3.95875 1.6903 4 0.00938405 2 0 0.0994487 -0.043397
259 1 15.8111 5.05317 1.64084 4 0.0118086 2 0 0.0994487 0.0994994
260 1 17.2689 3.83372 0.811237 4 0.0133282 2 0 0.0994487 -0.345385
261 1 18.0864 4.48855 1.09806 4 0.0229214 2 0 0.0994487 -0.612165
262 1 17.9525 3.63794 1.65602 4 0.0151391 2 0 0.0994487 -0.192806
263 1 17.4569 4.57727 0.0147963 4 0.0181932 2 0 0.0994487 -0.0974105
264 1 18.1348 3.8547 0.0583493 4 0.0169144 2 0 0.0994487 -0.120517
265 1 18.8779 3.70667 0.95022 4 0.0197821 2 0 0.0994487 0.0692256
266 1 18.8235 4.60949 0.361826 4 0.0286631 2 0 0.0994487 0.115608
267 1 19.6906 4.67872 1.0803 4 0.0410216 2 0 0.0994487 0.931523
268 1 18.7859 5.27693 1.20102 4 0.0416042 2 0 0.0994487 0.599093
269 1 19.5987 3.76722 0.227421 4 0.0232625 2 0 0.0994487 0.164269
270 1 20.4384 3.82188 1.23329 4 0.0307888 2 0 0.0994487 0.325953
271 1 20.8846 4.71868 1.39403 4 0.0593626 2 0 0.0994487 0.149058
272 1 21.5775 4.95128 0.810455 4 0.0805192 2 0 0.0994487 -0.00375113
273 1 21.0824 3.93136 0.512408 4 0.0373708 2 0 0.0994487 0.0883032
274 1 20.1339 4.78559 0.352846 4 0.0486717 2 0 0.0994487 0.145586
275 1 22.8205 3.63186 1.42135 4 0.0374624 2 0 0.0994487 -0.0183993
276 1 21.9406 4.13318 1.31068 4 0.049081 2 0 0.0994487 0.0272046
277 1 22.4705 5.17735 1.27286 4 0.0991026 2 0 0.0994487 0.0207066
278 1 22.6119 4.34705 0.510028 4 0.0575697 2 0 0.0994487 -0.0221058
279 1 23.5735 3.63903 0.782677 4 0.0377988 2 0 0.0994487 0.185559
280 1 24.336 4.32055 0.625018 4 0.0529192 2 0 0.0994487 -0.150094
281 1 23.4679 4.54946 1.33355 4 0.0659581 2 0 0.0994487 -0.0790555
282 1 24.8518 5.25716 0.566763 4 0.0792818 2 0 0.0994487 0.0409063
283 1 23.5518 5.06386 0.533607 4 0.0884541 2 0 0.0994487 -0.096889
284 1 25.0086 4.50055 1.62342 4 0.0511006 2 0 0.0994487 -0.0421952
285 1 25.0629 3.68037 0.802132 4 0.0318227 2 0 0.0994487 -0.187917
286 1 24.363 5.28843 1.43377 4 0.0901971 2 0 0.0994487 -0.15471
287 1 25.6904 5.1389 1.34266 4 0.0612213 2 0 0.0994487 0.2101
288 1 26.3575 4.29031 1.37159 4 0.0321122 2 0 0.0994487 0.149482
289 1 26.5026 4.97257 0.640732 4 0.042427 2 0 0.0994487 0.0989671
290 1 25.5284 4.40089 0.388179 4 0.0423058 2 0 0.0994487 0.0559477
291 1 27.3302 4.86961 1.40568 4 0.0296907 2 0 0.0994487 0.00660999
292 1 27.9624 3.97641 1.10408 4 0.014176 2 0 0.0994487 -0.309504
293 1 28.2771 4.73475 0.706344 4 0.0184205 2 0 0.0994487 -0.0812466
294 1 27.0674 4.04323 0.570038 4 0.0215318 2 0 0.0994487 0.0120226
295 1 28.9321 3.77016 0.487204 4 0.00825724 2 0 0.0994487 -0.00703262
296 1 29.0873 4.52317 1.33085 4 0.0113999 2 0 0.0994487 0.0574857
297 1 29.9979 4.07209 1.02303 4 0.00606359 2 0 0.0994487 -0.275231
298 1 31.0296 3.97382 0.373364 4 0.0041297 2 0 0.0994487 0.657583
299 1 30.2046 4.67765 0.491317 4 0.00745736 2 0 0.0994487 0.00995834
300 1 30.9783 4.59929 1.41131 4 0.00544889 2 0 0.0994487 0.679914
301 1 0.908283 5.53205 0.461647 4 3.4323e-07 2 0 0.0994487 -0.463784
302 1 1.53161 5.51184 1.37971 4 5.57761e-07 2 0 0.0994487 -0.117386
303 1 0.793684 6.22023 1.2768 4 4.0002e-07 2 0 0.0994487 -0.703381
304 1 0.257003 6.91734 1.50738 4 3.27427e-07 2 0 0.0994487 -0.772633
305 1 0.969942 6.9454 0.573423 4 5.95509e-07 2 0 0.0994487 -0.473532
306 1 1.7053 7.02884 1.23811 4 1.06988e-06 2 0 0.0994487 0.0665192
307 1 1.89588 6.19966 0.519025 4 1.01577e-06 2 0 0.0994487 -0.156399
308 1 3.10475 5.61709 1.30057 4 2.38021e-06 2 0 0.0994487 0.0402544
309 1 2.26359 6.15348 1.40977 4 1.2906e-06 2 0 0.0994487 0.040857
310 1 3.25442 6.96226 1.12748 4 4.71588e-06 2 0 0.0994487 -0.0541211
311 1 2.68177 5.61289 0.273587 4 1.65026e-06 2 0 0.0994487 -0.0596845
312 1 3.39503 6.28191 0.500536 4 4.31421e-06 2 0 0.0994487 -0.121441
313 1 4.18979 5.46246 0.325783 4 6.07857e-06 2 0 0.0994487 0.0310198
314 1 4.93434 5.42873 1.31778 4 1.2382e-05 2 0 0.0994487 -0.235097
315 1 4.13622 6.09659 1.22779 4 7.95568e-06 2 0 0.0994487 -0.0893862
316 1 4.82567 6.23357 0.333842 4 1.44238e-05 2 0 0.0994487 -0.0345733
317 1 4.77312 6.79931 1.15967 4 1.81844e-05 2 0 0.0994487 -0.305926
318 1 4.00267 7.02511 0.221759 4 9.16801e-06 2 0 0.0994487 -0.085342
319 1 5.78575 5.42185 0.301847 4 2.23232e-05 2 0 0.0994487 0.0125045
320 1 5.6935 6.24342 0.9632 4 3.05881e-05 2 0 0.0994487 -0.967784
321 1 6.4578 5.98425 1.59671 4 4.85846e-05 2 0 0.0994487 0.140917
322 1 6.43234 6.86927 1.00965 4 7.00047e-05 2 0 0.0994487 0.851684
323 1 6.37773 6.04115 0.154639 4 4.1323e-05 2 0 0.0994487 0.111114
324 1 5.54993 7.05206 0.147147 4 3.26489e-05 2 0 0.0994487 0.0363887
325 1 8.21355 5.31419 0.694273 4 0.000149977 2 0 0.0994487 -0.0895847
326 1 7.32761 6.15925 0.754293 4 0.000104828 2 0 0.0994487 0.225739
327 1 7.39163 5.41839 1.49138 4 8.07656e-05 2 0 0.0994487 0.136757
328 1 8.23884 6.11028 1.49159 4 0.00021107 2 0 0.0994487 0.0187412
329 1 8.01352 6.85364 0.728993 4 0.00023965 2 0 0.0994487 0.0691939
330 1 7.28191 6.86379 1.59601 4 0.000141276 2 1 0.0994487 0.126053
331 1 7.33029 5.3575 0.0461812 4 6.68545e-05 2 0 0.0994487 0.0813586
332 1 9.76796 5.3194 0.792562 4 0.000426794 2 0 0.0994487 0.328456
333 1 8.88016 6.18865 0.736908 4 0.000347229 2 0 0.0994487 -0.235534
334 1 9.05434 5.3271 1.5973 4 0.000271366 2 0 0.0994487 -0.0628284
335 1 9.73844 6.19052 1.46731 4 0.00063284 2 0 0.0994487 -0.106424
336 1 9.09351 6.95013 1.463 4 0.000576362 2 2 0.0994487 -0.0757605
337 1 9.76329 6.23201 0.0941385 4 0.0005938 2 0 0.0994487 -0.0359491
338 1 8.99733 5.46479 0.012702 4 0.000255674 2 0 0.0994487 -0.134752
339 1 10.5831 6.02196 0.964384 4 0.000996831 2 0 0.0994487 -0.356446
340 1 11.3128 6.37134 0.0776634 4 0.00150689 2 0 0.0994487 0.100342
341 1 10.5187 6.94145 0.15452 4 0.00122528 2 0 0.0994487 -0.0735357
342 1 10.4686 6.92564 1.49614 4 0.00136759 2 1 0.0994487 -0.063506
343 1 11.9994 5.6274 0.183157 4 0.0018647 2 0 0.0994487 -0.0105299
344 1 12.6757 5.81849 0.861776 4 0.00321665 2 0 0.0994487 0.0817495
345 1 11.7774 6.20735 1.05291 4 0.00214041 2 0 0.0994487 0.29219
346 1 13.3219 5.86668 1.55471 4 0.00462404 2 0 0.0994487 0.208168
347 1 13.3506 6.58297 0.813679 4 0.00665835 2 0 0.0994487 -0.292113
348 1 13.3212 5.53867 0.0424813 4 0.0041725 2 0 0.0994487 -0.14291
349 1 14.0617 5.71565 0.77266 4 0.00693139 2 0 0.0994487 -0.372664
350 1 14.3278 6.65176 1.40646 4 0.0122346 2 1 0.0994487 -0.103139
351 1 14.1303 6.38483 0.0380077 4 0.00846619 2 0 0.0994487 -0.0826102
352 1 15.0282 5.64393 0.034369 4 0.010259 2 0 0.0994487 0.0573639
353 1 15.8305 5.73813 0.95832 4 0.0166862 2 0 0.0994487 0.625782
354 1 15.0472 6.45091 0.806774 4 0.0155955 2 0 0.0994487 -0.176054
355 1 16.491 6.45257 1.1401 4 0.0312326 2 0 0.0994487 0.208314
356 1 15.1058 5.87594 1.69804 4 0.0131813 2 0 0.0994487 -0.0976573
357 1 16.62 5.41933 0.276819 4 0.0194539 2 0 0.0994487 0.0799206
358 1 15.6753 6.3382 0.0390223 4 0.0183253 2 0 0.0994487 0.0398512
359 1 17.8271 5.30128 0.541411 4 0.0290881 2 0 0.0994487 0.150325
360 1 17.113 5.42499 1.24767 4 0.0250671 2 0 0.0994487 -0.286577
361 1 17.0619 6.27419 0.411469 4 0.0343887 2 0 0.0994487 0.138948
362 1 17.6649 6.24649 1.38542 4 0.0450004 2 0 0.0994487 -0.254265
363 1 18.2745 7.0517 1.13153 4 0.0774152 2 1 0.0994487 0.631045
364 1 18.3714 6.23173 0.609762 4 0.0567575 2 0 0.0994487 0.156178
365 1 19.429 5.75829 0.62055 4 0.0668066 2 0 0.0994487 0.0571844
366 1 19.3279 6.55755 1.35081 4 0.0956751 2 0 0.0994487 0.274673
367 1 19.9942 6.75229 0.610261 4 0.138034 2 0 0.0994487 -0.011945
368 1 20.7494 5.77593 0.653722 4 0.107225 2 0 0.0994487 -0.104068
369 1 20.1931 5.61076 1.39557 4 0.0812659 2 0 0.0994487 0.312021
370 1 20.7787 6.6124 1.30355 4 0.177108 2 0 0.0994487 -0.344832
371 1 21.6592 6.66248 0.666524 4 0.195204 2 0 0.0994487 -0.0434842
372 1 21.6631 5.87866 1.38528 4 0.144016 2 0 0.0994487 0.042054
373 1 21.6904 5.73259 0.0517844 4 0.119142 2 0 0.0994487 -0.00150162
374 1 22.6732 5.8279 0.674154 4 0.139685 2 0 0.0994487 0.00265687
375 1 22.6319 6.69333 1.20734 4 0.225777 2 0 0.0994487 -0.201687
376 1 23.3484 6.78052 0.267835 4 0.202663 2 0 0.0994487 -0.125379
377 1 23.4822 5.88496 1.30013 4 0.145047 2 0 0.0994487 -0.176392
378 1 24.3197 6.56281 1.15825 4 0.16781 2 0 0.0994487 0.173538
379 1 24.1457 6.00685 0.427617 4 0.132408 2 0 0.0994487 0.00243725
380 1 25.6831 5.86213 0.700952 4 0.0852024 2 0 0.0994487 0.163896
381 1 25.1124 6.04132 1.67733 4 0.108493 2 0 0.0994487 0.00366808
382 1 25.1593 6.74159 0.495153 4 0.139185 2 0 0.0994487 0.0903904
383 1 25.8251 6.59457 1.40775 4 0.108812 2 0 0.0994487 0.0881013
384 1 26.6903 5.84511 1.4763 4 0.0605812 2 0 0.0994487 0.0917616
385 1 27.4966 5.54334 0.722172 4 0.036849 2 0 0.0994487 -0.251572
386 1 26.7485 6.36567 0.651888 4 0.0718416 2 0 0.0994487 0.0387506
387 1 27.7011 6.47315 1.36539 4 0.0501974 2 0 0.0994487 0.131493
388 1 28.3648 5.52203 1.4872 4 0.024999 2 0 0.0994487 0.0456334
389 1 27.7097 7.0074 0.530173 4 0.0585319 2 0 0.0994487 0.0321237
390 1 29.3889 5.30889 0.818726 4 0.0146272 2 0 0.0994487 0.316728
391 1 29.4379 6.18214 1.32212 4 0.0190461 2 0 0.0994487 -0.0033808
392 1 29.5784 6.89773 0.506505 4 0.0224061 2 0 0.0994487 0.092587
393 1 28.4685 6.20589 0.638647 4 0.0300753 2 0 0.0994487 -0.27008
394 1 29.3762 6.15398 0.0801838 4 0.01896 2 0 0.0994487 0.0969265
395 1 28.4822 5.38976 0.0592959 4 0.0210234 2 0 0.0994487 -0.105003
396 1 30.9636 5.36838 0.595026 4 0.00801267 2 0 0.0994487 0.667849
397 1 30.2159 5.45949 1.46813 4 0.0103403 2 0 0.0994487 0.0540215
398 1 30.3958 6.18258 0.649752 4 0.0128677 2 0 0.0994487 0.329001
399 1 31.2189 6.15516 1.38439 4 0.00943367 2 0 0.0994487 0.587258
400 1 31.1994 6.95407 0.60342 4 0.0122386 2 0 0.0994487 0.812251
401 1 31.7235 5.99622 0.446564 4 0.00785495 2 0 0.0994487 0.879729
402 1 0.261851 7.63199 0.661866 4 4.34643e-07 2 0 0.0994487 -0.876373
403 1 0.831025 8.46344 0.61936 4 7.71947e-07 2 0 0.0994487 -0.577626
404 1 1.11211 7.86396 1.49711 4 7.85298e-07 2 0 0.0994487 -0.154428
405 1 0.356955 8.5626 1.47035 4 5.44422e-07 2 0 0.0994487 -0.764984
406 1 1.59266 7.76478 0.37187 4 1.22673e-06 2 0 0.0994487 -0.0897871
407 1 1.72382 8.61735 1.46471 4 1.62853e-06 2 0 0.0994487 0.0395979
408 1 2.48799 7.14986 0.476331 4 2.47385e-06 2 0 0.0994487 -0.0836942
409 1 2.19177 8.6335 0.399707 4 2.64924e-06 2 0 0.0994487 -0.137266
410 1 2.39416 7.81099 1.27726 4 2.60304e-06 2 0 0.0994487 0.0869938
411 1 3.01349 8.51445 0.935533 4 5.61897e-06 2 0 0.0994487 -0.539306
412 1 3.24418 7.77117 0.327041 4 5.81006e-06 2 0 0.0994487 -0.196203
413 1 3.81243 8.45898 0.0822892 4 1.02433e-05 2 0 0.0994487 -0.045777
414 1 3.97971 7.67009 1.24863 4 1.09848e-05 2 0 0.0994487 -0.0554864
415 1 4.70459 8.25653 0.921772 4 2.37331e-05 2 0 0.0994487 0.295353
416 1 4.67023 7.63706 0.247803 4 1.88071e-05 2 0 0.0994487 0.0376945
417 1 3.81127 8.34851 1.76162 4 1.02031e-05 2 0 0.0994487 -0.0574347
418 1 5.86955 8.34822 0.169905 4 5.93111e-05 2 0 0.0994487 0.113108
419 1 5.48363 7.59071 1.03232 4 4.14518e-05 2 0 0.0994487 -0.467652
420 1 6.49365 7.53799 0.169175 4 8.21866e-05 2 0 0.0994487 0.187627
421 1 6.39674 8.23976 1.04384 4 0.000107985 2 0 0.0994487 0.338177
422 1 7.28583 7.76918 0.746313 4 0.000196076 2 1 0.0994487 0.00995042
423 1 8.2859 8.31376 0.868772 4 0.000502016 2 2 0.0994487 0.278805
424 1 7.27857 8.18368 1.7015 4 0.000256147 2 2 0.0994487 -0.174652
425 1 8.05208 7.48784 1.5604 4 0.000334047 2 1 0.0994487 0.1851
426 1 7.99895 7.60312 0.0282118 4 0.000265098 2 0 0.0994487 0.0674155
427 1 9.84313 7.22199 0.72344 4 0.00100772 2 1 0.0994487 -0.346917
428 1 8.91207 7.61626 0.661731 4 0.00060407 2 1 0.0994487 0.15871
429 1 9.73234 8.61964 0.693151 4 0.00147077 2 3 0.0994487 -0.257247
430 1 9.09265 8.69904 1.44495 4 0.00112289 2 9 0.0994487 -0.394762
431 1 9.64026 7.88932 1.60055 4 0.0013065 2 8 0.0994487 -0.340337
432 1 11.3161 7.14287 0.810636 4 0.00228252 2 1 0.0994487 0.448525
433 1 10.5731 7.9454 0.844311 4 0.00200369 2 3 0.0994487 -0.19847
434 1 10.5877 8.70196 1.4255 4 0.00267323 1 8 0.0994487 -0.146788
435 1 11.4057 7.80503 1.60301 4 0.00343171 2 7 0.0994487 0.228298
436 1 11.227 8.11851 0.0422735 4 0.00255326 2 0 0.0994487 0.174331
437 1 12.7061 7.28322 0.565784 4 0.00593363 2 0 0.0994487 -0.0531392
438 1 12.178 8.23518 0.590765 4 0.00553538 2 2 0.0994487 0.163955
439 1 12.0637 7.15788 1.37768 4 0.00390232 2 3 0.0994487 0.145683
440 1 12.0887 8.68064 1.49044 4 0.00671176 1 8 0.0994487 0.0824108
441 1 12.8601 7.99585 1.47598 4 0.00914958 2 6 0.0994487 -0.21685
442 1 14.3373 7.3542 0.580954 4 0.0146758 2 0 0.0994487 0.0648962
443 1 13.6169 8.09282 0.464536 4 0.0122929 2 2 0.0994487 0.0237561