ITEM: TIMESTEP
45000
ITEM: NUMBER OF ATOMS
9495
ITEM: BOX BOUNDS mm mm mm
0.0000000000000000e+00 3.1748021039364001e+01
0.0000000000000000e+00 3.1748021039364001e+01
-7.4072398406925706e-04 3.1748021039364001e+01
ITEM: ATOMS id type x y z c_phase c_temp c_surf c_nbond c_visc f_3[1]
1 1 0.116341 1.10259 0.464337 4 0.000565227 2 0 0.0994487 -0.68194
2 1 0.974108 1.6685 0.77798 4 0.000753724 2 0 0.0994487 -0.517032
3 1 0.714648 0.793562 1.41295 4 0.000618326 2 0 0.0994487 -0.281794
4 1 0.00336375 1.60273 1.37437 4 0.000604995 2 0 0.0994487 -0.804051
5 1 0.729896 0.0633724 0.61602 4 0.000529955 3 0 0.0994487 -0.190374
6 1 1.71015 0.808983 1.0155 4 0.000852932 2 0 0.0994487 -0.332069
7 1 1.80059 1.47468 0.221075 4 0.000908561 2 0 0.0994487 -0.125829
8 1 1.82015 1.66049 1.76126 4 0.000959252 2 0 0.0994487 -0.139533
9 1 2.52093 0.749102 0.203812 4 0.00105686 2 0 0.0994487 -0.14294
10 1 2.59149 0.0538711 1.03726 4 0.00105338 2 0 0.0994487 -0.295004
11 1 2.64922 1.541 0.882848 4 0.00123885 2 0 0.0994487 0.235754
12 1 2.66829 0.815502 1.7457 4 0.00115005 2 0 0.0994487 -0.187041
13 1 3.43386 0.933692 0.956349 4 0.00154165 2 0 0.0994487 0.32024
14 1 3.49924 0.0925696 1.70571 4 0.00134148 2 0 0.0994487 0.178053
15 1 3.60652 1.70798 1.71994 4 0.00184118 2 0 0.0994487 0.0487947
16 1 4.10576 0.858321 0.325305 4 0.00198917 2 0 0.0994487 0.153145
17 1 4.96159 0.56786 1.17466 4 0.0029501 2 0 0.0994487 -0.0370677
18 1 4.91949 1.59987 0.383508 4 0.00327077 2 0 0.0994487 -0.100248
19 1 4.3472 0.941527 1.62884 4 0.00226699 2 0 0.0994487 0.110738
20 1 3.47612 0.111428 0.171027 4 0.00129967 2 0 0.0994487 0.166215
21 1 5.64741 0.645627 0.325839 4 0.00392341 2 0 0.0994487 -0.0806052
22 1 5.88414 1.31048 0.938036 4 0.00459066 2 0 0.0994487 -0.199588
23 1 6.57478 1.39104 0.218369 4 0.00596651 2 0 0.0994487 -0.0861339
24 1 5.78374 0.460658 1.69897 4 0.00399011 2 0 0.0994487 -0.0846528
25 1 5.03122 1.72414 1.43602 4 0.00341406 2 0 0.0994487 0.0453713
26 1 6.7138 0.39031 0.865278 4 0.00568292 2 0 0.0994487 -0.0793822
27 1 6.69104 1.00962 1.69374 4 0.00582837 2 0 0.0994487 -0.107924
28 1 8.2679 0.408875 1.07337 4 0.00925133 2 0 0.0994487 -0.100167
29 1 7.36782 1.22285 0.954198 4 0.00763624 2 0 0.0994487 -0.302553
30 1 8.24709 1.39092 0.236779 4 0.0102626 2 0 0.0994487 -0.0460646
31 1 8.12868 1.27217 1.60653 4 0.00956584 2 0 0.0994487 -0.00811734
32 1 7.58247 0.647807 0.140287 4 0.00772044 2 0 0.0994487 -0.110936
33 1 8.85849 0.508506 0.273966 4 0.0110896 2 0 0.0994487 -0.0616465
34 1 9.55301 0.3386 0.888639 4 0.0132983 2 0 0.0994487 0.00506368
35 1 9.02586 1.30716 1.1133 4 0.0128192 2 0 0.0994487 -0.0606464
37 1 9.63995 1.37474 0.0900752 4 0.0148798 2 0 0.0994487 0.0992911
38 1 11.2128 0.215893 0.632658 4 0.0210694 2 0 0.0994487 0.203503
39 1 10.3637 1.04743 0.823114 4 0.0179168 2 0 0.0994487 0.539885
40 1 10.523 0.196295 1.44539 4 0.0172545 2 0 0.0994487 0.0644285
41 1 11.2856 1.01846 1.41785 4 0.0241723 2 0 0.0994487 0.164707
42 1 10.5797 1.67706 1.72992 4 0.0213552 2 0 0.0994487 0.118164
43 1 10.2431 0.367861 0.0780499 4 0.0153009 2 0 0.0994487 0.149801
44 1 12.8757 0.211714 0.636805 4 0.0354866 2 0 0.0994487 0.0587877
45 1 12.0457 1.07408 0.506655 4 0.0312567 2 0 0.0994487 -0.0235512
46 1 12.1319 0.316439 1.29957 4 0.0293188 2 0 0.0994487 0.0188365
47 1 12.7194 1.19864 1.3723 4 0.0386492 2 0 0.0994487 -0.0305274
48 1 14.3729 0.318493 0.764646 4 0.0517728 2 0 0.0994487 -0.0460382
49 1 13.5924 1.113 0.843618 4 0.0482777 2 0 0.0994487 -0.263052
50 1 14.0399 1.55958 0.167469 4 0.0568213 2 0 0.0994487 -0.0898248
51 1 13.6075 0.359834 1.6352 4 0.0434877 2 0 0.0994487 -0.0562633
52 1 14.3777 1.14948 1.47647 4 0.0557587 2 0 0.0994487 -0.0178273
53 1 14.8761 1.55337 0.662943 4 0.0652483 2 0 0.0994487 0.389948
54 1 15.7061 0.770636 0.788259 4 0.0684898 2 0 0.0994487 0.366483
55 1 16.5532 1.54451 0.681338 4 0.0915767 2 0 0.0994487 0.000805499
56 1 15.1422 0.4642 1.64149 4 0.0589488 2 0 0.0994487 0.152077
57 1 16.547 0.712289 1.3421 4 0.0821464 2 0 0.0994487 0.0956264
58 1 15.6341 1.48544 1.3916 4 0.0748669 2 0 0.0994487 0.153631
59 1 15.1049 0.711806 0.0677822 4 0.0590223 2 0 0.0994487 0.169203
60 1 17.2544 0.732268 0.547589 4 0.0931158 2 0 0.0994487 0.02863
61 1 17.9231 1.58109 0.757246 4 0.113896 2 0 0.0994487 0.0415634
62 1 17.916 0.742935 1.42801 4 0.104135 2 0 0.0994487 -0.224376
63 1 17.2202 1.74884 1.56274 4 0.107343 2 0 0.0994487 -0.0984835
64 1 19.5372 0.0167772 0.662766 4 0.110328 2 0 0.0994487 0.043644
65 1 18.7918 0.725074 0.684829 4 0.112324 2 0 0.0994487 -0.269945
66 1 19.5395 1.55488 0.841653 4 0.131693 2 0 0.0994487 -0.34116
67 1 19.0276 0.158607 1.54508 4 0.109133 2 0 0.0994487 -0.158664
68 1 19.5934 0.967491 1.68957 4 0.121355 2 0 0.0994487 0.00835118
69 1 18.6564 1.51302 1.50035 4 0.122736 2 0 0.0994487 -0.250307
70 1 21.0889 0.349843 1.06749 4 0.121955 2 0 0.0994487 -0.196126
71 1 20.2493 0.776373 0.980057 4 0.123395 2 0 0.0994487 -0.0497603
72 1 21.1062 1.65725 0.951506 4 0.140072 2 0 0.0994487 0.692917
73 1 21.1874 0.765598 0.218806 4 0.125065 2 0 0.0994487 -0.0445903
74 1 20.3457 1.51479 0.193617 4 0.135008 2 0 0.0994487 -0.0806019
75 1 22.0087 0.262534 0.539755 4 0.121402 2 0 0.0994487 0.0993598
76 1 22.7913 0.430275 1.40734 4 0.122582 2 0 0.0994487 0.2066
77 1 22.1105 1.14763 1.32981 4 0.131043 2 0 0.0994487 0.240025
78 1 21.9982 1.59955 0.538558 4 0.140138 2 0 0.0994487 0.185173
79 1 22.9157 1.07463 0.445168 4 0.129332 2 0 0.0994487 0.0520854
80 1 24.228 0.380179 1.45209 4 0.117906 2 0 0.0994487 0.0576175
81 1 23.5672 0.357563 0.57369 4 0.120286 2 0 0.0994487 0.0385717
82 1 24.4367 1.18687 0.754729 4 0.126845 2 0 0.0994487 -0.0192939
83 1 23.4757 1.2499 1.4028 4 0.132485 2 0 0.0994487 0.0298786
84 1 24.955 0.315686 0.551996 4 0.111462 2 0 0.0994487 -0.0171978
85 1 26.0085 0.383365 1.1715 4 0.10102 2 0 0.0994487 -0.185858
86 1 25.169 1.12579 1.48087 4 0.120119 2 0 0.0994487 0.0251063
87 1 25.9301 1.73476 1.35794 4 0.121999 2 0 0.0994487 0.0345381
88 1 25.8917 0.929212 0.432102 4 0.107628 2 0 0.0994487 -0.0954184
89 1 27.5736 1.28032 0.38906 4 0.0921631 2 0 0.0994487 0.0454501
90 1 27.6142 0.50928 0.874321 4 0.0861706 2 0 0.0994487 0.175389
91 1 26.7559 1.02809 1.26347 4 0.0982709 2 0 0.0994487 -0.236883
92 1 28.3748 0.337482 1.39813 4 0.0770228 2 0 0.0994487 0.00984522
93 1 26.7925 0.240345 0.226621 4 0.0911324 2 0 0.0994487 0.0380753
94 1 28.6489 1.24263 0.742341 4 0.0813222 2 0 0.0994487 0.102407
95 1 29.3912 0.945639 1.56878 4 0.0717154 2 0 0.0994487 -0.0192
96 1 28.5228 1.71921 1.49749 4 0.0864964 2 0 0.0994487 -0.0429797
97 1 29.8133 0.173958 1.46124 4 0.0648547 2 0 0.0994487 0.133416
98 1 29.2734 0.3547 0.615275 4 0.0687897 2 0 0.0994487 -0.0816807
99 1 31.5874 0.266128 1.25663 4 0.0534583 3 0 0.0994487 0.830097
100 1 30.7016 0.49015 0.470738 4 0.0609015 2 0 0.0994487 0.354852
101 1 30.1009 1.19877 0.774133 4 0.0691932 2 0 0.0994487 0.210921
102 1 30.8649 0.971942 1.39386 4 0.0631021 2 0 0.0994487 0.703282
103 1 1.11081 2.43607 0.129285 4 0.000834423 2 0 0.0994487 -0.0373224
104 1 0.133403 2.3821 0.812241 4 0.000712264 2 0 0.0994487 -0.984517
105 1 1.28845 3.23764 0.949187 4 0.00105775 2 0 0.0994487 0.22209
106 1 1.13977 2.36077 1.59162 4 0.00087868 2 0 0.0994487 -0.222189
107 1 0.386685 3.02999 1.54944 4 0.000836127 2 0 0.0994487 -0.671256
108 1 0.332248 3.09582 0.131296 4 0.000806983 2 0 0.0994487 -0.59134
109 1 1.90972 2.41867 0.78376 4 0.0010936 2 0 0.0994487 0.0782081
110 1 2.65852 3.28029 0.860875 4 0.00175256 2 0 0.0994487 0.0668028
111 1 2.66931 2.22918 1.53373 4 0.00139737 2 0 0.0994487 0.0829546
112 1 3.2579 3.42668 1.64938 4 0.00229788 2 0 0.0994487 0.00397435
113 1 2.7261 2.38168 0.0557193 4 0.00134633 2 0 0.0994487 0.1466
114 1 3.38195 2.55413 0.779289 4 0.00197348 2 0 0.0994487 0.211583
115 1 4.00679 1.841 0.711184 4 0.00228661 2 0 0.0994487 -0.0361244
116 1 4.91383 2.57277 0.815661 4 0.00386455 2 0 0.0994487 -0.259351
117 1 4.20148 3.3175 0.749446 4 0.00335847 2 0 0.0994487 0.00621457
118 1 4.13245 2.64107 1.58328 4 0.00279359 2 0 0.0994487 0.027077
119 1 5.65047 2.44269 0.132743 4 0.00501705 2 0 0.0994487 -0.189926
120 1 6.55776 2.18062 0.772597 4 0.00665038 2 0 0.0994487 -0.289388
121 1 5.64874 3.19593 0.952489 4 0.00581742 2 0 0.0994487 -0.754636
122 1 5.861 2.19426 1.49672 4 0.00510354 2 0 0.0994487 0.0126351
123 1 6.52037 3.06691 1.5557 4 0.00769856 2 0 0.0994487 0.0443569
124 1 6.65033 2.92778 0.134227 4 0.0075324 2 0 0.0994487 0.0288864
125 1 7.45405 2.22586 0.139832 4 0.00905561 2 0 0.0994487 -0.0535029
126 1 8.08209 2.20208 0.930382 4 0.0112592 2 0 0.0994487 -0.302078
127 1 7.40132 3.06835 0.934051 4 0.0106226 2 0 0.0994487 -0.0455316
128 1 7.29928 2.06035 1.56856 4 0.00835459 2 0 0.0994487 -0.0607332
129 1 8.18545 3.00183 1.65211 4 0.0136677 2 0 0.0994487 -0.0454163
130 1 8.26934 2.9712 0.0392146 4 0.0139851 2 0 0.0994487 -0.150617
131 1 8.90393 2.08699 0.252387 4 0.0140058 2 0 0.0994487 0.00243277
132 1 9.77243 2.0246 1.10996 4 0.0180591 2 0 0.0994487 0.173463
133 1 8.92671 2.97262 0.928693 4 0.0174335 2 0 0.0994487 -0.156765
134 1 9.03062 2.22066 1.70398 4 0.0151151 2 0 0.0994487 -0.0819682
135 1 9.56096 2.90576 0.21312 4 0.0201171 2 0 0.0994487 0.17312
136 1 10.2834 2.1137 0.214297 4 0.0200531 2 0 0.0994487 0.337739
137 1 11.1583 1.82604 0.771092 4 0.026411 2 0 0.0994487 0.260088
138 1 10.6214 2.80819 0.921535 4 0.0279509 2 0 0.0994487 0.541916
139 1 11.4444 2.82964 1.57484 4 0.0366256 2 0 0.0994487 0.0951992
140 1 12.6737 1.94118 0.593851 4 0.0441712 2 0 0.0994487 -0.283934
141 1 11.928 2.64099 0.742299 4 0.0405606 2 0 0.0994487 -0.0386739
142 1 11.9239 1.9206 1.46509 4 0.0344539 2 0 0.0994487 0.0946534
143 1 12.8449 3.01766 1.68597 4 0.0562213 2 0 0.0994487 0.0363567
144 1 13.1791 3.03035 0.848852 4 0.0620272 2 0 0.0994487 -0.440856
145 1 13.3784 1.9912 1.48064 4 0.051974 2 0 0.0994487 -0.0150703
146 1 14.0206 2.44438 0.927124 4 0.0661162 2 0 0.0994487 -0.133101
147 1 14.0279 3.38359 1.55716 4 0.0810126 2 0 0.0994487 0.0255746
148 1 14.6961 3.43698 0.884932 4 0.0951765 2 0 0.0994487 -0.33296
149 1 14.7823 2.29758 1.44821 4 0.074393 2 0 0.0994487 0.0469272
150 1 14.8418 2.51505 0.136557 4 0.0784853 2 0 0.0994487 0.173005
151 1 14.1591 3.2262 0.0325348 4 0.0810075 2 0 0.0994487 -0.246105
152 1 13.4137 2.29398 0.0590902 4 0.0568449 2 0 0.0994487 -0.280962
153 1 15.6993 2.44373 0.692668 4 0.0919821 2 0 0.0994487 0.364392
154 1 16.3029 3.20095 0.662084 4 0.120181 2 0 0.0994487 0.328588
155 1 16.308 2.47951 1.52575 4 0.105428 2 0 0.0994487 -0.100647
156 1 15.3694 3.25723 1.50191 4 0.104663 2 0 0.0994487 -0.00766922
157 1 15.5706 3.25854 0.0192499 4 0.103251 2 0 0.0994487 0.290237
158 1 17.0646 2.35032 0.682778 4 0.115546 2 0 0.0994487 0.023481
159 1 17.944 2.92608 0.699539 4 0.150283 2 0 0.0994487 -0.231191
160 1 18.0193 2.43917 1.58112 4 0.135911 2 0 0.0994487 -0.149135
161 1 17.0918 3.1162 1.49491 4 0.138137 2 0 0.0994487 -0.143435
162 1 18.8908 2.35742 1.01358 4 0.145524 2 0 0.0994487 -0.516826
163 1 19.7027 3.2427 1.27782 4 0.182044 2 0 0.0994487 0.394881
164 1 18.884 2.99607 0.196019 4 0.166044 2 0 0.0994487 -0.171809
165 1 19.587 2.34239 0.101452 4 0.151533 2 0 0.0994487 -0.13237
166 1 20.3251 1.78863 1.72442 4 0.138576 2 0 0.0994487 0.0449537
167 1 21.1565 2.41663 0.458355 4 0.161722 2 0 0.0994487 0.196188
168 1 20.1948 2.46882 1.11433 4 0.157205 2 0 0.0994487 0.286747
169 1 21.31 3.29463 1.39314 4 0.20138 2 0 0.0994487 0.0777301
170 1 20.4222 2.99313 0.334941 4 0.176875 2 0 0.0994487 0.186291
171 1 22.8719 2.07007 1.50872 4 0.155031 2 0 0.0994487 -0.0221223
172 1 22.9717 2.60199 0.735523 4 0.178038 2 0 0.0994487 0.133328
173 1 22.0961 2.49917 1.23787 4 0.17089 2 0 0.0994487 0.18644
174 1 21.9898 3.20043 0.598797 4 0.204456 2 0 0.0994487 -0.0757486
175 1 22.6771 3.40124 0.07601 4 0.21755 2 0 0.0994487 0.0760741
176 1 23.7438 1.80844 0.624025 4 0.143568 2 0 0.0994487 -0.0873576
177 1 24.4289 1.98763 1.61102 4 0.145364 2 0 0.0994487 -0.0641745
178 1 24.342 2.68296 0.775192 4 0.169208 2 0 0.0994487 -0.34109
179 1 23.6887 2.90303 1.53628 4 0.184809 2 0 0.0994487 -0.110503
180 1 24.4728 3.51078 1.55704 4 0.207808 2 0 0.0994487 -0.118304
181 1 24.9562 2.84566 0.0146836 4 0.165244 2 0 0.0994487 -0.0864589
182 1 26.5483 1.79415 0.511367 4 0.113044 2 0 0.0994487 -0.00559855
183 1 25.1322 1.85613 0.509414 4 0.135157 2 0 0.0994487 -0.0215275
184 1 25.7918 2.61203 0.707489 4 0.148593 2 0 0.0994487 0.228205
185 1 25.1579 2.55548 1.52547 4 0.155972 2 0 0.0994487 0.0576683
186 1 25.7213 3.49812 1.51211 4 0.186622 2 0 0.0994487 0.123859
187 1 26.5364 2.56002 1.53049 4 0.13246 2 0 0.0994487 0.0579491
188 1 26.1686 3.50068 0.599043 4 0.176401 2 0 0.0994487 0.168847
189 1 27.5039 1.98546 1.23792 4 0.102215 2 0 0.0994487 -0.186416
190 1 28.2489 2.09022 0.343734 4 0.0944673 2 0 0.0994487 -0.017724
191 1 27.0867 2.6924 0.645359 4 0.124851 2 0 0.0994487 -0.105598
192 1 27.1998 3.35397 1.41682 4 0.142051 2 0 0.0994487 -0.0983263
193 1 28.2537 2.75799 1.20639 4 0.105526 2 0 0.0994487 -0.418304
194 1 27.982 3.21993 0.326384 4 0.119245 2 0 0.0994487 -0.125256
195 1 29.9568 1.80906 1.70764 4 0.0750982 2 0 0.0994487 0.183201
196 1 29.4477 2.04702 0.879698 4 0.0819958 2 0 0.0994487 -0.00708074
197 1 29.1956 2.6589 0.290703 4 0.0914119 2 0 0.0994487 -0.0578276
198 1 29.2495 3.2651 1.17365 4 0.101063 2 0 0.0994487 0.118637
199 1 30.9114 1.98502 0.924207 4 0.0730236 2 0 0.0994487 0.967251
200 1 30.1815 2.71094 1.00186 4 0.0840332 2 0 0.0994487 0.675111
201 1 31.0247 3.35309 0.97101 4 0.0876921 2 0 0.0994487 0.998409
202 1 30.9865 2.69483 1.72648 4 0.0799702 2 0 0.0994487 0.578501
203 1 30.1092 3.25953 0.132205 4 0.0896425 2 0 0.0994487 -0.0443654
204 1 30.4116 1.90909 0.0255368 4 0.0732242 2 0 0.0994487 0.106045
205 1 31.1434 2.66402 0.0761253 4 0.0774425 2 0 0.0994487 0.70882
206 1 0.293831 3.78503 0.918557 4 0.000944097 2 0 0.0994487 -0.999347
207 1 0.143046 4.59443 0.482118 4 0.0010497 2 0 0.0994487 -0.784494
208 1 1.14036 4.67093 0.986638 4 0.00137083 2 0 0.0994487 -0.516754
209 1 0.0884667 5.26681 1.27761 4 0.00119056 2 0 0.0994487 -0.887458
210 1 1.04069 3.86421 0.0595682 4 0.0010711 2 0 0.0994487 0.0148878
211 1 1.84117 4.04604 0.847105 4 0.00153215 2 0 0.0994487 0.00826648
212 1 2.54049 4.85585 1.13748 4 0.00236784 2 0 0.0994487 -0.333848
213 1 2.64953 4.14475 0.20674 4 0.00215527 2 0 0.0994487 -0.0285726
214 1 1.89758 4.96895 0.278386 4 0.00191211 2 0 0.0994487 -0.153434
215 1 3.40771 4.86189 0.161635 4 0.00335333 2 0 0.0994487 -0.0163889
216 1 3.494 4.07675 0.885909 4 0.00295518 2 0 0.0994487 0.0268905
217 1 4.91235 4.00001 1.18344 4 0.00516812 2 0 0.0994487 0.0115055
218 1 4.04658 4.88002 1.14639 4 0.00432718 2 0 0.0994487 0.264487
219 1 4.26027 4.18509 0.149001 4 0.00414347 2 0 0.0994487 0.0377375
220 1 5.00947 4.74001 0.341082 4 0.00631461 2 0 0.0994487 0.0765384
221 1 5.77735 3.9378 0.198707 4 0.00689007 2 0 0.0994487 0.0260151
222 1 6.48883 3.76611 0.772067 4 0.00878364 2 0 0.0994487 0.204551
223 1 5.68025 4.73638 1.02487 4 0.00838492 2 0 0.0994487 -0.621697
224 1 6.66321 4.5115 1.6428 4 0.0111363 2 0 0.0994487 0.158932
225 1 6.68072 5.1315 0.885352 4 0.0133652 2 0 0.0994487 0.206847
226 1 8.1982 3.892 0.700757 4 0.0174305 2 0 0.0994487 -0.369903
227 1 7.40842 4.46072 0.5468 4 0.0150311 2 0 0.0994487 -0.0252143
228 1 7.39886 3.87029 1.49684 4 0.0126852 2 0 0.0994487 0.102576
229 1 8.20004 4.61106 1.48677 4 0.0206351 2 0 0.0994487 -0.0118392
230 1 9.8976 3.57792 0.885667 4 0.0274315 2 0 0.0994487 0.592762
231 1 9.07913 4.56551 0.821335 4 0.0275239 2 0 0.0994487 -0.65855
232 1 9.86266 4.50302 0.126324 4 0.0326879 2 0 0.0994487 0.0958648
233 1 9.07829 3.76256 1.49819 4 0.0224523 2 0 0.0994487 -0.0708867
234 1 9.86881 4.3462 1.65532 4 0.0334647 2 0 0.0994487 -0.0856635
235 1 8.98541 3.86821 0.0631775 4 0.0219814 2 0 0.0994487 -0.138754
236 1 11.408 3.64493 0.778297 4 0.0442164 2 0 0.0994487 0.202065
237 1 10.5891 4.66652 0.906264 4 0.0443809 2 0 0.0994487 0.0450708
238 1 11.3867 4.69403 0.230734 4 0.0566636 2 0 0.0994487 -0.0498911
239 1 10.7059 3.56689 1.58785 4 0.0353485 2 0 0.0994487 -0.0448504
240 1 11.3652 4.3716 1.70545 4 0.0523621 2 0 0.0994487 -0.0798286
241 1 11.3894 5.27213 0.983682 4 0.0652297 2 0 0.0994487 -0.674479
242 1 10.5826 3.84888 0.176129 4 0.0351527 2 0 0.0994487 0.210465
243 1 12.5168 3.57716 0.814749 4 0.0596541 2 0 0.0994487 -0.010577
244 1 12.1916 4.55033 1.00021 4 0.0685811 2 0 0.0994487 0.105044
245 1 12.7362 4.99738 1.68903 4 0.0847275 2 0 0.0994487 0.191329
246 1 13.2258 4.67863 0.80017 4 0.0924457 2 0 0.0994487 -0.00469887
247 1 12.6435 4.61885 0.0632315 4 0.0798812 2 0 0.0994487 -0.0335805
248 1 13.9891 4.12825 0.69648 4 0.0980242 2 0 0.0994487 -0.430177
249 1 13.4832 4.21781 1.59317 4 0.0864515 2 0 0.0994487 0.0820176
250 1 14.2046 5.11838 1.52001 4 0.127886 2 0 0.0994487 -0.0289915
251 1 14.9402 5.01141 0.811699 4 0.146328 2 0 0.0994487 -0.0527318
252 1 14.9642 4.4167 1.59432 4 0.12796 2 0 0.0994487 -0.0635625
253 1 14.1405 4.90647 0.0597868 4 0.120738 2 0 0.0994487 -0.0856945
254 1 14.961 4.19423 0.096508 4 0.118648 2 0 0.0994487 0.0322724
255 1 15.6685 4.06642 0.926277 4 0.133113 2 0 0.0994487 0.872575
256 1 15.8798 4.77595 0.186426 4 0.163442 2 0 0.0994487 0.165389
257 1 16.5936 4.58036 0.900182 4 0.179192 2 0 0.0994487 -0.0789843
258 1 16.3184 3.95875 1.6903 4 0.147191 2 0 0.0994487 -0.0433977
259 1 15.8111 5.05317 1.64084 4 0.173391 2 0 0.0994487 0.0994992
260 1 17.2689 3.83372 0.811237 4 0.168427 2 0 0.0994487 -0.345385
261 1 18.0864 4.48855 1.09806 4 0.214378 2 0 0.0994487 -0.612171
262 1 17.9525 3.63794 1.65602 4 0.174824 2 0 0.0994487 -0.192806
263 1 17.4569 4.57727 0.0147963 4 0.200286 2 0 0.0994487 -0.0974098
264 1 18.1348 3.8547 0.0583493 4 0.185893 2 0 0.0994487 -0.120517
265 1 18.8779 3.70667 0.95022 4 0.191923 2 0 0.0994487 0.0692298
266 1 18.8235 4.60949 0.361826 4 0.231486 2 0 0.0994487 0.115609
267 1 19.6906 4.67872 1.0803 3 0.264907 2 0 0.0993605 0.931535
268 1 18.7859 5.27693 1.20102 3 0.283177 2 0 0.0992329 0.599138
269 1 19.5987 3.76722 0.227421 4 0.201911 2 0 0.0994487 0.164269
270 1 20.4384 3.82188 1.23329 4 0.222097 2 0 0.0994487 0.325955
271 1 20.8846 4.71868 1.39403 3 0.305193 2 0 0.0990451 0.149059
272 1 21.5775 4.95128 0.810455 3 0.353882 2 0 0.0984517 -0.00374837
273 1 21.0824 3.93136 0.512408 4 0.239035 2 0 0.0994487 0.0883039
274 1 20.1339 4.78559 0.352846 3 0.283723 2 0 0.0992287 0.145586
275 1 22.8205 3.63186 1.42135 4 0.231921 2 0 0.0994487 -0.0183984
276 1 21.9406 4.13318 1.31068 3 0.268517 2 0 0.0993371 0.0272057
277 1 22.4705 5.17735 1.27286 3 0.391509 2 0 0.097754 0.020709
278 1 22.6119 4.34705 0.510028 3 0.289313 2 0 0.0991846 -0.0221047
279 1 23.5735 3.63903 0.782677 4 0.23085 2 0 0.0994487 0.185562
280 1 24.336 4.32055 0.625018 3 0.272924 2 0 0.0993073 -0.150091
281 1 23.4679 4.54946 1.33355 3 0.308305 2 0 0.0990151 -0.079054
282 1 24.8518 5.25716 0.566763 3 0.342313 2 0 0.0986194 0.0409089
283 1 23.5518 5.06386 0.533607 3 0.363794 2 0 0.098292 -0.0968872
284 1 25.0086 4.50055 1.62342 3 0.26846 2 0 0.0993375 -0.0421939
285 1 25.0629 3.68037 0.802132 4 0.20955 2 0 0.0994487 -0.187914
286 1 24.363 5.28843 1.43377 3 0.366972 2 0 0.0982374 -0.154708
287 1 25.6904 5.1389 1.34266 3 0.298089 2 0 0.0991102 0.210103
288 1 26.3575 4.29031 1.37159 4 0.211536 2 0 0.0994487 0.149484
289 1 26.5026 4.97257 0.640732 4 0.246645 2 0 0.0994487 0.0989693
290 1 25.5284 4.40089 0.388179 4 0.243398 2 0 0.0994487 0.055949
291 1 27.3302 4.86961 1.40568 4 0.207574 2 0 0.0994487 0.0066119
292 1 27.9624 3.97641 1.10408 4 0.144227 2 0 0.0994487 -0.309501
293 1 28.2771 4.73475 0.706344 4 0.168058 2 0 0.0994487 -0.081244
294 1 27.0674 4.04323 0.570038 4 0.173949 2 0 0.0994487 0.0120244
295 1 28.9321 3.77016 0.487204 4 0.11645 2 0 0.0994487 -0.00703158
296 1 29.0873 4.52317 1.33085 4 0.136962 2 0 0.0994487 0.0574872
297 1 29.9979 4.07209 1.02303 4 0.107698 2 0 0.0994487 -0.275231
298 1 31.0296 3.97382 0.373364 4 0.0962697 2 0 0.0994487 0.657583
299 1 30.2046 4.67765 0.491317 4 0.121171 2 0 0.0994487 0.00995918
300 1 30.9783 4.59929 1.41131 4 0.10941 2 0 0.0994487 0.679914
301 1 0.908283 5.53205 0.461647 4 0.0015635 2 0 0.0994487 -0.463785
302 1 1.53161 5.51184 1.37971 4 0.001863 2 0 0.0994487 -0.117387
303 1 0.793684 6.22023 1.2768 4 0.00178367 2 0 0.0994487 -0.703381
304 1 0.257003 6.91734 1.50738 4 0.00181689 2 0 0.0994487 -0.772633
305 1 0.969942 6.9454 0.573423 4 0.00217612 2 0 0.0994487 -0.473533
306 1 1.7053 7.02884 1.23811 4 0.00265485 2 0 0.0994487 0.066517
307 1 1.89588 6.19966 0.519025 4 0.00245427 2 0 0.0994487 -0.156401
308 1 3.10475 5.61709 1.30057 4 0.00339318 2 0 0.0994487 0.0402513
309 1 2.26359 6.15348 1.40977 4 0.00269213 2 0 0.0994487 0.0408553
310 1 3.25442 6.96226 1.12748 4 0.00498368 2 0 0.0994487 -0.0541257
311 1 2.68177 5.61289 0.273587 4 0.00291028 2 0 0.0994487 -0.0596865
312 1 3.39503 6.28191 0.500536 4 0.0046334 2 0 0.0994487 -0.121447
313 1 4.18979 5.46246 0.325783 4 0.00531918 2 0 0.0994487 0.031016
314 1 4.93434 5.42873 1.31778 4 0.00752779 2 0 0.0994487 -0.235102
315 1 4.13622 6.09659 1.22779 4 0.0061432 2 0 0.0994487 -0.0893912
316 1 4.82567 6.23357 0.333842 4 0.00835282 2 0 0.0994487 -0.0345782
317 1 4.77312 6.79931 1.15967 4 0.00944609 2 0 0.0994487 -0.305934
318 1 4.00267 7.02511 0.221759 4 0.00691502 2 0 0.0994487 -0.0853457
319 1 5.78575 5.42185 0.301847 4 0.010104 2 0 0.0994487 0.0125003
320 1 5.6935 6.24342 0.9632 4 0.0119846 2 0 0.0994487 -0.967778
321 1 6.4578 5.98425 1.59671 4 0.0148768 2 0 0.0994487 0.140911
322 1 6.43234 6.86927 1.00965 4 0.0182055 2 0 0.0994487 0.851659
323 1 6.37773 6.04115 0.154639 4 0.0139469 2 0 0.0994487 0.111111
324 1 5.54993 7.05206 0.147147 4 0.0128239 2 0 0.0994487 0.036384
325 1 8.21355 5.31419 0.694273 4 0.0248468 2 0 0.0994487 -0.0895989
326 1 7.32761 6.15925 0.754293 4 0.0216387 2 0 0.0994487 0.225724
327 1 7.39163 5.41839 1.49138 4 0.0184962 2 0 0.0994487 0.13675
328 1 8.23884 6.11028 1.49159 4 0.0306978 2 0 0.0994487 0.0187336
329 1 8.01352 6.85364 0.728993 4 0.0342134 2 0 0.0994487 0.0691792
330 1 7.28191 6.86379 1.59601 4 0.0262024 2 1 0.0994487 0.126037
331 1 7.33029 5.3575 0.0461812 4 0.0172071 2 0 0.0994487 0.0813554
332 1 9.76796 5.3194 0.792562 4 0.0406604 2 0 0.0994487 0.328441
333 1 8.88016 6.18865 0.736908 4 0.0390869 2 0 0.0994487 -0.235552
334 1 9.05434 5.3271 1.5973 4 0.0331819 2 0 0.0994487 -0.0628331
335 1 9.73844 6.19052 1.46731 4 0.0521141 2 0 0.0994487 -0.106552
336 1 9.09351 6.95013 1.463 4 0.0526292 2 2 0.0994487 -0.0762106
337 1 9.76329 6.23201 0.0941385 4 0.0511681 2 0 0.0994487 -0.0359549
338 1 8.99733 5.46479 0.012702 4 0.033115 2 0 0.0994487 -0.134755
339 1 10.5831 6.02196 0.964384 4 0.0630668 2 0 0.0994487 -0.356223
340 1 11.3128 6.37134 0.0776634 4 0.0783631 2 0 0.0994487 0.100342
341 1 10.5187 6.94145 0.15452 4 0.074952 2 0 0.0994487 -0.0735288
342 1 10.4686 6.92564 1.49614 4 0.0788564 2 1 0.0994487 -0.0635009
343 1 11.9994 5.6274 0.183157 4 0.0801585 2 0 0.0994487 -0.0105309
344 1 12.6757 5.81849 0.861776 4 0.101747 2 0 0.0994487 0.0817324
345 1 11.7774 6.20735 1.05291 4 0.0882405 2 0 0.0994487 0.292325
346 1 13.3219 5.86668 1.55471 4 0.120061 2 0 0.0994487 0.208208
347 1 13.3506 6.58297 0.813679 4 0.149182 2 0 0.0994487 -0.291885
348 1 13.3212 5.53867 0.0424813 4 0.113158 2 0 0.0994487 -0.142911
349 1 14.0617 5.71565 0.77266 4 0.142484 2 0 0.0994487 -0.372701
350 1 14.3278 6.65176 1.40646 4 0.197932 2 0 0.0994487 -0.101413
351 1 14.1303 6.38483 0.0380077 4 0.162988 2 0 0.0994487 -0.0826102
352 1 15.0282 5.64393 0.034369 4 0.169322 2 0 0.0994487 0.0573629
353 1 15.8305 5.73813 0.95832 4 0.210425 2 0 0.0994487 0.625732
354 1 15.0472 6.45091 0.806774 4 0.214814 2 0 0.0994487 -0.174543
355 1 16.491 6.45257 1.1401 3 0.294269 2 0 0.0991434 0.204624
356 1 15.1058 5.87594 1.69804 4 0.193992 2 0 0.0994487 -0.0976902
357 1 16.62 5.41933 0.276819 4 0.218068 2 0 0.0994487 0.0799201
358 1 15.6753 6.3382 0.0390223 4 0.227571 2 0 0.0994487 0.0398012
359 1 17.8271 5.30128 0.541411 4 0.249791 2 0 0.0994487 0.150325
360 1 17.113 5.42499 1.24767 4 0.240265 2 0 0.0994487 -0.286579
361 1 17.0619 6.27419 0.411469 3 0.295852 2 0 0.0991298 0.138982
362 1 17.6649 6.24649 1.38542 3 0.329264 2 0 0.0987871 -0.257571
363 1 18.2745 7.0517 1.13153 3 0.437168 2 0 0.0964819 0.683721
364 1 18.3714 6.23173 0.609762 3 0.353735 2 0 0.098454 0.156204
365 1 19.429 5.75829 0.62055 3 0.352129 2 0 0.0984784 0.057185
366 1 19.3279 6.55755 1.35081 3 0.441866 2 0 0.0963165 0.289118
367 1 19.9942 6.75229 0.610261 3 0.525838 2 0 0.0917151 -0.0116426
368 1 20.7494 5.77593 0.653722 3 0.429316 2 0 0.0967423 -0.104068
369 1 20.1931 5.61076 1.39557 3 0.374738 2 0 0.0980968 0.312131
370 1 20.7787 6.6124 1.30355 3 0.581569 2 0 0.0860684 -0.344421
371 1 21.6592 6.66248 0.666524 3 0.599323 2 0 0.0836393 -0.0434394
372 1 21.6631 5.87866 1.38528 3 0.495624 2 0 0.0937933 0.0420834
373 1 21.6904 5.73259 0.0517844 3 0.449947 2 0 0.0960139 -0.00150098
374 1 22.6732 5.8279 0.674154 3 0.478586 2 0 0.0947344 0.00266077
375 1 22.6319 6.69333 1.20734 3 0.635667 2 0 0.0774948 -0.202662
376 1 23.3484 6.78052 0.267835 3 0.596812 2 0 0.0840042 -0.12537
377 1 23.4822 5.88496 1.30013 3 0.484012 2 0 0.0944507 -0.176383
378 1 24.3197 6.56281 1.15825 3 0.529143 2 0 0.0914512 0.173939
379 1 24.1457 6.00685 0.427617 3 0.460775 2 0 0.0955703 0.00244005
380 1 25.6831 5.86213 0.700952 3 0.361576 2 0 0.0983291 0.1639
381 1 25.1124 6.04132 1.67733 3 0.412773 2 0 0.0972307 0.00367067
382 1 25.1593 6.74159 0.495153 3 0.481088 2 0 0.0946054 0.0903939
383 1 25.8251 6.59457 1.40775 3 0.420629 2 0 0.0970084 0.0881056
384 1 26.6903 5.84511 1.4763 3 0.304255 2 0 0.0990539 0.0917641
385 1 27.4966 5.54334 0.722172 4 0.236109 2 0 0.0994487 -0.251569
386 1 26.7485 6.36567 0.651888 3 0.338217 2 0 0.0986744 0.0387538
387 1 27.7011 6.47315 1.36539 3 0.285019 2 0 0.0992187 0.131496
388 1 28.3648 5.52203 1.4872 4 0.199272 2 0 0.0994487 0.0456347
389 1 27.7097 7.0074 0.530173 3 0.314604 2 0 0.0989514 0.0321267
390 1 29.3889 5.30889 0.818726 4 0.160434 2 0 0.0994487 0.31673
391 1 29.4379 6.18214 1.32212 4 0.187512 2 0 0.0994487 -0.00337955
392 1 29.5784 6.89773 0.506505 4 0.209285 2 0 0.0994487 0.0925886
393 1 28.4685 6.20589 0.638647 4 0.223491 2 0 0.0994487 -0.270077
394 1 29.3762 6.15398 0.0801838 4 0.187974 2 0 0.0994487 0.096927
395 1 28.4822 5.38976 0.0592959 4 0.186628 2 0 0.0994487 -0.105002
396 1 30.9636 5.36838 0.595026 4 0.134504 2 0 0.0994487 0.667849
397 1 30.2159 5.45949 1.46813 4 0.144476 2 0 0.0994487 0.0540222
398 1 30.3958 6.18258 0.649752 4 0.165319 2 0 0.0994487 0.329003
399 1 31.2189 6.15516 1.38439 4 0.151148 2 0 0.0994487 0.587258
400 1 31.1994 6.95407 0.60342 4 0.174749 2 0 0.0994487 0.812252
401 1 31.7235 5.99622 0.446564 4 0.14324 2 0 0.0994487 0.879729
402 1 0.261851 7.63199 0.661866 4 0.00209915 2 0 0.0994487 -0.876374
403 1 0.831025 8.46344 0.61936 4 0.00261711 2 0 0.0994487 -0.577626
404 1 1.11211 7.86396 1.49711 4 0.00253363 2 0 0.0994487 -0.154429
405 1 0.356955 8.5626 1.47035 4 0.00238149 2 0 0.0994487 -0.764984
406 1 1.59266 7.76478 0.37187 4 0.00293648 2 0 0.0994487 -0.0897886
407 1 1.72382 8.61735 1.46471 4 0.003398 2 0 0.0994487 0.039596
408 1 2.48799 7.14986 0.476331 4 0.00376072 2 0 0.0994487 -0.0836977
409 1 2.19177 8.6335 0.399707 4 0.00416155 2 0 0.0994487 -0.137269
410 1 2.39416 7.81099 1.27726 4 0.00395886 2 0 0.0994487 0.0869906
411 1 3.01349 8.51445 0.935533 4 0.00573797 2 0 0.0994487 -0.539319
412 1 3.24418 7.77117 0.327041 4 0.00572904 2 0 0.0994487 -0.196207
413 1 3.81243 8.45898 0.0822892 4 0.00764993 2 0 0.0994487 -0.0457801
414 1 3.97971 7.67009 1.24863 4 0.0076432 2 0 0.0994487 -0.0554917
415 1 4.70459 8.25653 0.921772 4 0.0110953 2 0 0.0994487 0.295312
416 1 4.67023 7.63706 0.247803 4 0.00986751 2 0 0.0994487 0.0376889
417 1 3.81127 8.34851 1.76162 4 0.00768525 2 0 0.0994487 -0.0574372
418 1 5.86955 8.34822 0.169905 4 0.0177194 2 0 0.0994487 0.113102
419 1 5.48363 7.59071 1.03232 4 0.0143836 2 0 0.0994487 -0.467678
420 1 6.49365 7.53799 0.169175 4 0.0204548 2 0 0.0994487 0.18762
421 1 6.39674 8.23976 1.04384 4 0.0235468 2 0 0.0994487 0.338111
422 1 7.28583 7.76918 0.746313 4 0.0320476 2 1 0.0994487 0.00991354
423 1 8.2859 8.31376 0.868772 4 0.0532603 2 2 0.0994487 0.278142
424 1 7.27857 8.18368 1.7015 4 0.037545 2 2 0.0994487 -0.174884
425 1 8.05208 7.48784 1.5604 4 0.0420352 2 1 0.0994487 0.184984
426 1 7.99895 7.60312 0.0282118 4 0.0385988 2 0 0.0994487 0.0674103
427 1 9.84313 7.22199 0.72344 4 0.0696531 2 1 0.0994487 -0.346987
428 1 8.91207 7.61626 0.661731 4 0.0559257 2 1 0.0994487 0.158464
429 1 9.73234 8.61964 0.693151 4 0.0911567 2 3 0.0994487 -0.25696
430 1 9.09265 8.69904 1.44495 4 0.0822096 2 9 0.0994487 -0.393848
431 1 9.64026 7.88932 1.60055 4 0.0847397 2 8 0.0994487 -0.340625
432 1 11.3161 7.14287 0.810636 4 0.0983948 2 1 0.0994487 0.448626
433 1 10.5731 7.9454 0.844311 4 0.100212 2 3 0.0994487 -0.197707
434 1 10.5877 8.70196 1.4255 4 0.120226 1 8 0.0994487 -0.150805
435 1 11.4057 7.80503 1.60301 4 0.127482 2 6 0.0994487 0.225687
436 1 11.227 8.11851 0.0422735 4 0.112124 2 0 0.0994487 0.17434
437 1 12.7061 7.28322 0.565784 4 0.15086 2 0 0.0994487 -0.0535737
438 1 12.178 8.23518 0.590765 4 0.155713 2 2 0.0994487 0.163303
439 1 12.0637 7.15788 1.37768 4 0.124506 2 3 0.0994487 0.141745
440 1 12.0887 8.68064 1.49044 4 0.17756 1 5 0.0994487 0.0744605
441 1 12.8601 7.99585 1.47598 4 0.19802 2 3 0.0994487 -0.233802
442 1 14.3373 7.3542 0.580954 4 0.224469 2 0 0.0994487 0.0673159
443 1 13.6169 8.09282 0.464536 4 0.219789 2 1 0.0994487 0.0264346
444 1 13.458 7.34024 1.34133 4 0.19392 2 1 0.0994487 0.059304
445 1 14.2471 8.18371 1.35246 3 0.278795 2 0 0.0992657 0.154625
446 1 16.4328 7.18497 0.276798 3 0.336745 2 0 0.0986936 -0.0655672
447 1 15.6276 7.3114 0.923132 3 0.309651 2 0 0.0990018 -0.448709
448 1 15.0689 8.29247 0.865596 3 0.332129 2 0 0.0987521 -0.335158
449 1 16.2796 8.16169 1.10433 0 0.410126 1 0 0.0973019 -0.339244
450 1 15.1452 7.52269 1.62484 3 0.31375 2 0 0.0989603 -0.396996
451 1 15.8668 8.31534 0.152632 3 0.379296 2 0 0.0980091 -0.193687