ITEM: TIMESTEP
9000
ITEM: NUMBER OF ATOMS
9495
ITEM: BOX BOUNDS mm mm mm
0.0000000000000000e+00 3.1748021039364001e+01
0.0000000000000000e+00 3.1748021039364001e+01
-7.4072398406925706e-04 3.1748021039364001e+01
ITEM: ATOMS id type x y z c_phase c_temp c_surf c_nbond c_visc f_3[1]
1 1 0.116341 1.10259 0.464337 4 8.144e-16 2 0 0.0994487 -0.681941
2 1 0.974108 1.6685 0.77798 4 5.51429e-15 2 0 0.0994487 -0.517033
3 1 0.714648 0.793562 1.41295 4 1.74297e-15 2 0 0.0994487 -0.281794
4 1 0.00336375 1.60273 1.37437 4 1.09034e-15 2 0 0.0994487 -0.804051
5 1 0.729896 0.0633724 0.61602 4 8.16856e-16 3 0 0.0994487 -0.190374
6 1 1.71015 0.808983 1.0155 4 1.03361e-14 2 0 0.0994487 -0.33207
7 1 1.80059 1.47468 0.221075 4 1.46478e-14 2 0 0.0994487 -0.12583
8 1 1.82015 1.66049 1.76126 4 1.943e-14 2 0 0.0994487 -0.139534
9 1 2.52093 0.749102 0.203812 4 2.82414e-14 2 0 0.0994487 -0.14294
10 1 2.59149 0.0538711 1.03726 4 2.20352e-14 2 0 0.0994487 -0.295005
11 1 2.64922 1.541 0.882848 4 7.97561e-14 2 0 0.0994487 0.23575
12 1 2.66829 0.815502 1.7457 4 4.14836e-14 2 0 0.0994487 -0.187041
13 1 3.43386 0.933692 0.956349 4 1.89948e-13 2 0 0.0994487 0.320236
14 1 3.49924 0.0925696 1.70571 4 7.9197e-14 2 0 0.0994487 0.178053
15 1 3.60652 1.70798 1.71994 4 3.79161e-13 2 0 0.0994487 0.0487936
16 1 4.10576 0.858321 0.325305 4 4.83714e-13 2 0 0.0994487 0.153144
17 1 4.96159 0.56786 1.17466 4 1.75167e-12 2 0 0.0994487 -0.0370697
18 1 4.91949 1.59987 0.383508 4 3.39867e-12 2 0 0.0994487 -0.10025
19 1 4.3472 0.941527 1.62884 4 7.42135e-13 2 0 0.0994487 0.110736
20 1 3.47612 0.111428 0.171027 4 6.8562e-14 2 0 0.0994487 0.166215
21 1 5.64741 0.645627 0.325839 4 5.0134e-12 2 0 0.0994487 -0.0806066
22 1 5.88414 1.31048 0.938036 4 1.30215e-11 2 0 0.0994487 -0.199601
23 1 6.57478 1.39104 0.218369 4 3.57181e-11 2 0 0.0994487 -0.086136
24 1 5.78374 0.460658 1.69897 4 4.80912e-12 2 0 0.0994487 -0.0846544
25 1 5.03122 1.72414 1.43602 4 4.28939e-12 2 0 0.0994487 0.045369
26 1 6.7138 0.39031 0.865278 4 2.18964e-11 2 0 0.0994487 -0.0793841
27 1 6.69104 1.00962 1.69374 4 2.87262e-11 2 0 0.0994487 -0.107926
28 1 8.2679 0.408875 1.07337 4 1.88747e-10 2 0 0.0994487 -0.10017
29 1 7.36782 1.22285 0.954198 4 1.07718e-10 2 0 0.0994487 -0.302566
30 1 8.24709 1.39092 0.236779 4 3.72608e-10 2 0 0.0994487 -0.0460674
31 1 8.12868 1.27217 1.60653 4 2.90018e-10 2 0 0.0994487 -0.00812005
32 1 7.58247 0.647807 0.140287 4 7.95928e-11 2 0 0.0994487 -0.110938
33 1 8.85849 0.508506 0.273966 4 3.94859e-10 2 0 0.0994487 -0.0616486
34 1 9.55301 0.3386 0.888639 4 9.50616e-10 2 0 0.0994487 0.00506048
35 1 9.02586 1.30716 1.1133 4 1.1087e-09 2 0 0.0994487 -0.0606565
37 1 9.63995 1.37474 0.0900752 4 1.89217e-09 2 0 0.0994487 0.0992888
38 1 11.2128 0.215893 0.632658 4 6.97949e-09 2 0 0.0994487 0.203499
39 1 10.3637 1.04743 0.823114 4 4.85477e-09 2 0 0.0994487 0.539876
40 1 10.523 0.196295 1.44539 4 2.8078e-09 2 0 0.0994487 0.064426
41 1 11.2856 1.01846 1.41785 4 1.61724e-08 2 0 0.0994487 0.1647
42 1 10.5797 1.67706 1.72992 4 1.06347e-08 2 0 0.0994487 0.11816
43 1 10.2431 0.367861 0.0780499 4 1.56824e-09 2 0 0.0994487 0.149799
44 1 12.8757 0.211714 0.636805 4 5.3716e-08 2 0 0.0994487 0.0587838
45 1 12.0457 1.07408 0.506655 4 4.53318e-08 2 0 0.0994487 -0.0235565
46 1 12.1319 0.316439 1.29957 4 2.54202e-08 2 0 0.0994487 0.0188317
47 1 12.7194 1.19864 1.3723 4 1.12511e-07 2 0 0.0994487 -0.0305352
48 1 14.3729 0.318493 0.764646 4 3.06047e-07 2 0 0.0994487 -0.0460416
49 1 13.5924 1.113 0.843618 4 2.954e-07 2 0 0.0994487 -0.263063
50 1 14.0399 1.55958 0.167469 4 6.32991e-07 2 0 0.0994487 -0.0898284
51 1 13.6075 0.359834 1.6352 4 1.26274e-07 2 0 0.0994487 -0.0562667
52 1 14.3777 1.14948 1.47647 4 6.02857e-07 2 0 0.0994487 -0.0178324
53 1 14.8761 1.55337 0.662943 4 1.5152e-06 2 0 0.0994487 0.389938
54 1 15.7061 0.770636 0.788259 4 1.66497e-06 2 0 0.0994487 0.366477
55 1 16.5532 1.54451 0.681338 4 8.08288e-06 2 0 0.0994487 0.000797384
56 1 15.1422 0.4642 1.64149 4 6.39322e-07 2 0 0.0994487 0.152075
57 1 16.547 0.712289 1.3421 4 3.67498e-06 2 0 0.0994487 0.0956209
58 1 15.6341 1.48544 1.3916 4 3.15622e-06 2 0 0.0994487 0.153624
59 1 15.1049 0.711806 0.0677822 4 6.18821e-07 2 0 0.0994487 0.169201
60 1 17.2544 0.732268 0.547589 4 6.11059e-06 2 0 0.0994487 0.0286263
61 1 17.9231 1.58109 0.757246 4 2.51484e-05 2 0 0.0994487 0.0415571
62 1 17.916 0.742935 1.42801 4 1.10837e-05 2 0 0.0994487 -0.22438
63 1 17.2202 1.74884 1.56274 4 1.80931e-05 2 0 0.0994487 -0.0984885
64 1 19.5372 0.0167772 0.662766 4 1.21523e-05 2 0 0.0994487 0.0436428
65 1 18.7918 0.725074 0.684829 4 1.74798e-05 2 0 0.0994487 -0.269947
66 1 19.5395 1.55488 0.841653 4 6.34883e-05 2 0 0.0994487 -0.341164
67 1 19.0276 0.158607 1.54508 4 1.13163e-05 2 0 0.0994487 -0.158665
68 1 19.5934 0.967491 1.68957 4 3.24079e-05 2 0 0.0994487 0.0083491
69 1 18.6564 1.51302 1.50035 4 3.75513e-05 2 0 0.0994487 -0.250312
70 1 21.0889 0.349843 1.06749 4 3.17629e-05 2 0 0.0994487 -0.196127
71 1 20.2493 0.776373 0.980057 4 3.76533e-05 2 0 0.0994487 -0.0497637
72 1 21.1062 1.65725 0.951506 4 0.000122876 2 0 0.0994487 0.692911
73 1 21.1874 0.765598 0.218806 4 4.22292e-05 2 0 0.0994487 -0.0445911
74 1 20.3457 1.51479 0.193617 4 7.64145e-05 2 0 0.0994487 -0.080603
75 1 22.0087 0.262534 0.539755 4 3.21178e-05 2 0 0.0994487 0.099359
76 1 22.7913 0.430275 1.40734 4 4.12868e-05 2 0 0.0994487 0.206599
77 1 22.1105 1.14763 1.32981 4 8.11147e-05 2 0 0.0994487 0.240022
78 1 21.9982 1.59955 0.538558 4 0.000137433 2 0 0.0994487 0.185171
79 1 22.9157 1.07463 0.445168 4 7.69791e-05 2 0 0.0994487 0.0520842
80 1 24.228 0.380179 1.45209 4 3.89902e-05 2 0 0.0994487 0.057617
81 1 23.5672 0.357563 0.57369 4 3.92918e-05 2 0 0.0994487 0.038571
82 1 24.4367 1.18687 0.754729 4 9.03597e-05 2 0 0.0994487 -0.0192949
83 1 23.4757 1.2499 1.4028 4 0.000104258 2 0 0.0994487 0.0298773
84 1 24.955 0.315686 0.551996 4 3.15083e-05 2 0 0.0994487 -0.0171979
85 1 26.0085 0.383365 1.1715 4 2.45135e-05 2 0 0.0994487 -0.185858
86 1 25.169 1.12579 1.48087 4 7.26338e-05 2 0 0.0994487 0.0251063
87 1 25.9301 1.73476 1.35794 4 0.000108694 2 0 0.0994487 0.0345389
88 1 25.8917 0.929212 0.432102 4 4.17778e-05 2 0 0.0994487 -0.095418
89 1 27.5736 1.28032 0.38906 4 2.28238e-05 2 0 0.0994487 0.0454505
90 1 27.6142 0.50928 0.874321 4 1.16333e-05 2 0 0.0994487 0.175389
91 1 26.7559 1.02809 1.26347 4 3.09326e-05 2 0 0.0994487 -0.236882
92 1 28.3748 0.337482 1.39813 4 5.69357e-06 2 0 0.0994487 0.00984562
93 1 26.7925 0.240345 0.226621 4 1.23141e-05 2 0 0.0994487 0.0380755
94 1 28.6489 1.24263 0.742341 4 1.11728e-05 2 0 0.0994487 0.102408
95 1 29.3912 0.945639 1.56878 4 4.26288e-06 2 0 0.0994487 -0.0191996
96 1 28.5228 1.71921 1.49749 4 1.8068e-05 2 0 0.0994487 -0.0429791
97 1 29.8133 0.173958 1.46124 4 1.54028e-06 2 0 0.0994487 0.133417
98 1 29.2734 0.3547 0.615275 4 2.72041e-06 2 0 0.0994487 -0.0816803
99 1 31.5874 0.266128 1.25663 4 3.06258e-07 3 0 0.0994487 0.830096
100 1 30.7016 0.49015 0.470738 4 9.17806e-07 2 0 0.0994487 0.354852
101 1 30.1009 1.19877 0.774133 4 3.11819e-06 2 0 0.0994487 0.210921
102 1 30.8649 0.971942 1.39386 4 1.33222e-06 2 0 0.0994487 0.703282
103 1 1.11081 2.43607 0.129285 4 8.51338e-15 2 0 0.0994487 -0.0373226
104 1 0.133403 2.3821 0.812241 4 2.53495e-15 2 0 0.0994487 -0.984517
105 1 1.28845 3.23764 0.949187 4 3.02288e-14 2 0 0.0994487 0.222086
106 1 1.13977 2.36077 1.59162 4 1.17239e-14 2 0 0.0994487 -0.22219
107 1 0.386685 3.02999 1.54944 4 5.77177e-15 2 0 0.0994487 -0.671256
108 1 0.332248 3.09582 0.131296 4 4.31473e-15 2 0 0.0994487 -0.59134
109 1 1.90972 2.41867 0.78376 4 4.39473e-14 2 0 0.0994487 0.0782063
110 1 2.65852 3.28029 0.860875 4 3.14606e-13 2 0 0.0994487 0.0668007
111 1 2.66931 2.22918 1.53373 4 1.31997e-13 2 0 0.0994487 0.0829536
112 1 3.2579 3.42668 1.64938 4 8.53628e-13 2 0 0.0994487 0.00397315
113 1 2.7261 2.38168 0.0557193 4 1.0602e-13 2 0 0.0994487 0.1466
114 1 3.38195 2.55413 0.779289 4 5.77972e-13 2 0 0.0994487 0.21158
115 1 4.00679 1.841 0.711184 4 9.7795e-13 2 0 0.0994487 -0.0361269
116 1 4.91383 2.57277 0.815661 4 7.47681e-12 2 0 0.0994487 -0.259356
117 1 4.20148 3.3175 0.749446 4 4.02024e-12 2 0 0.0994487 0.00621251
118 1 4.13245 2.64107 1.58328 4 2.0125e-12 2 0 0.0994487 0.0270753
119 1 5.65047 2.44269 0.132743 4 1.8201e-11 2 0 0.0994487 -0.189927
120 1 6.55776 2.18062 0.772597 4 7.02913e-11 2 0 0.0994487 -0.289405
121 1 5.64874 3.19593 0.952489 4 3.71737e-11 2 0 0.0994487 -0.754644
122 1 5.861 2.19426 1.49672 4 2.23675e-11 2 0 0.0994487 0.012633
123 1 6.52037 3.06691 1.5557 4 1.1897e-10 2 0 0.0994487 0.0443548
124 1 6.65033 2.92778 0.134227 4 1.09346e-10 2 0 0.0994487 0.0288846
125 1 7.45405 2.22586 0.139832 4 2.42401e-10 2 0 0.0994487 -0.0535053
126 1 8.08209 2.20208 0.930382 4 6.7341e-10 2 0 0.0994487 -0.302099
127 1 7.40132 3.06835 0.934051 4 5.04452e-10 2 0 0.0994487 -0.0455586
128 1 7.29928 2.06035 1.56856 4 1.75341e-10 2 0 0.0994487 -0.0607355
129 1 8.18545 3.00183 1.65211 4 1.32407e-09 2 0 0.0994487 -0.0454187
130 1 8.26934 2.9712 0.0392146 4 1.3748e-09 2 0 0.0994487 -0.15062
131 1 8.90393 2.08699 0.252387 4 1.60427e-09 2 0 0.0994487 0.00242947
132 1 9.77243 2.0246 1.10996 4 5.62836e-09 2 0 0.0994487 0.173449
133 1 8.92671 2.97262 0.928693 4 4.16394e-09 2 0 0.0994487 -0.156789
134 1 9.03062 2.22066 1.70398 4 2.27215e-09 2 0 0.0994487 -0.0819709
135 1 9.56096 2.90576 0.21312 4 7.56187e-09 2 0 0.0994487 0.173117
136 1 10.2834 2.1137 0.214297 4 8.56167e-09 2 0 0.0994487 0.337736
137 1 11.1583 1.82604 0.771092 4 2.88804e-08 2 0 0.0994487 0.260079
138 1 10.6214 2.80819 0.921535 4 3.51508e-08 2 0 0.0994487 0.541904
139 1 11.4444 2.82964 1.57484 4 1.01075e-07 2 0 0.0994487 0.0951929
140 1 12.6737 1.94118 0.593851 4 2.29776e-07 2 0 0.0994487 -0.283942
141 1 11.928 2.64099 0.742299 4 1.65193e-07 2 0 0.0994487 -0.0386831
142 1 11.9239 1.9206 1.46509 4 8.20654e-08 2 0 0.0994487 0.0946463
143 1 12.8449 3.01766 1.68597 4 6.27874e-07 2 0 0.0994487 0.0363511
144 1 13.1791 3.03035 0.848852 4 1.08103e-06 2 0 0.0994487 -0.440875
145 1 13.3784 1.9912 1.48064 4 4.82573e-07 2 0 0.0994487 -0.0150757
146 1 14.0206 2.44438 0.927124 4 1.60568e-06 2 0 0.0994487 -0.133131
147 1 14.0279 3.38359 1.55716 4 3.50327e-06 2 0 0.0994487 0.0255682
148 1 14.6961 3.43698 0.884932 4 8.01997e-06 2 0 0.0994487 -0.333013
149 1 14.7823 2.29758 1.44821 4 2.94802e-06 2 0 0.0994487 0.0469218
150 1 14.8418 2.51505 0.136557 4 3.42207e-06 2 0 0.0994487 0.173
151 1 14.1591 3.2262 0.0325348 4 3.31159e-06 2 0 0.0994487 -0.246109
152 1 13.4137 2.29398 0.0590902 4 6.49067e-07 2 0 0.0994487 -0.280965
153 1 15.6993 2.44373 0.692668 4 8.56908e-06 2 0 0.0994487 0.36438
154 1 16.3029 3.20095 0.662084 4 3.08019e-05 2 0 0.0994487 0.328577
155 1 16.308 2.47951 1.52575 4 1.68647e-05 2 0 0.0994487 -0.100653
156 1 15.3694 3.25723 1.50191 4 1.35207e-05 2 0 0.0994487 -0.00767549
157 1 15.5706 3.25854 0.0192499 4 1.17708e-05 2 0 0.0994487 0.290234
158 1 17.0646 2.35032 0.682778 4 2.85345e-05 2 0 0.0994487 0.023474
159 1 17.944 2.92608 0.699539 4 0.000105571 2 0 0.0994487 -0.231197
160 1 18.0193 2.43917 1.58112 4 6.67449e-05 2 0 0.0994487 -0.14914
161 1 17.0918 3.1162 1.49491 4 6.341e-05 2 0 0.0994487 -0.143443
162 1 18.8908 2.35742 1.01358 4 0.000108272 2 0 0.0994487 -0.516833
163 1 19.7027 3.2427 1.27782 4 0.000401993 2 0 0.0994487 0.394876
164 1 18.884 2.99607 0.196019 4 0.000188096 2 0 0.0994487 -0.171811
165 1 19.587 2.34239 0.101452 4 0.000135204 2 0 0.0994487 -0.132371
166 1 20.3251 1.78863 1.72442 4 9.73137e-05 2 0 0.0994487 0.0449517
167 1 21.1565 2.41663 0.458355 4 0.00029393 2 0 0.0994487 0.196186
168 1 20.1948 2.46882 1.11433 4 0.000219575 2 0 0.0994487 0.286737
169 1 21.31 3.29463 1.39314 4 0.000884837 2 0 0.0994487 0.0777271
170 1 20.4222 2.99313 0.334941 4 0.000403419 2 0 0.0994487 0.186289
171 1 22.8719 2.07007 1.50872 4 0.000275977 2 0 0.0994487 -0.0221237
172 1 22.9717 2.60199 0.735523 4 0.00056925 2 0 0.0994487 0.133327
173 1 22.0961 2.49917 1.23787 4 0.000441785 2 0 0.0994487 0.186436
174 1 21.9898 3.20043 0.598797 4 0.000975117 2 0 0.0994487 -0.0757521
175 1 22.6771 3.40124 0.07601 4 0.00118405 2 0 0.0994487 0.0760732
176 1 23.7438 1.80844 0.624025 4 0.000194768 2 0 0.0994487 -0.0873587
177 1 24.4289 1.98763 1.61102 4 0.000224229 2 0 0.0994487 -0.0641747
178 1 24.342 2.68296 0.775192 4 0.000519082 2 0 0.0994487 -0.34109
179 1 23.6887 2.90303 1.53628 4 0.000719084 2 0 0.0994487 -0.110504
180 1 24.4728 3.51078 1.55704 4 0.00126285 2 0 0.0994487 -0.118304
181 1 24.9562 2.84566 0.0146836 4 0.000432026 2 0 0.0994487 -0.0864588
182 1 26.5483 1.79415 0.511367 4 7.96338e-05 2 0 0.0994487 -0.00559777
183 1 25.1322 1.85613 0.509414 4 0.000163818 2 0 0.0994487 -0.0215274
184 1 25.7918 2.61203 0.707489 4 0.000312176 2 0 0.0994487 0.228206
185 1 25.1579 2.55548 1.52547 4 0.000364598 2 0 0.0994487 0.0576685
186 1 25.7213 3.49812 1.51211 4 0.000834017 2 0 0.0994487 0.12386
187 1 26.5364 2.56002 1.53049 4 0.00019079 2 0 0.0994487 0.0579501
188 1 26.1686 3.50068 0.599043 4 0.000666604 2 0 0.0994487 0.168849
189 1 27.5039 1.98546 1.23792 4 5.34128e-05 2 0 0.0994487 -0.186415
190 1 28.2489 2.09022 0.343734 4 3.18784e-05 2 0 0.0994487 -0.0177235
191 1 27.0867 2.6924 0.645359 4 0.000154244 2 0 0.0994487 -0.105597
192 1 27.1998 3.35397 1.41682 4 0.000278031 2 0 0.0994487 -0.0983245
193 1 28.2537 2.75799 1.20639 4 6.5829e-05 2 0 0.0994487 -0.418301
194 1 27.982 3.21993 0.326384 4 0.000117774 2 0 0.0994487 -0.125255
195 1 29.9568 1.80906 1.70764 4 5.8139e-06 2 0 0.0994487 0.183202
196 1 29.4477 2.04702 0.879698 4 1.24217e-05 2 0 0.0994487 -0.00707871
197 1 29.1956 2.6589 0.290703 4 2.44311e-05 2 0 0.0994487 -0.057827
198 1 29.2495 3.2651 1.17365 4 4.39497e-05 2 0 0.0994487 0.118641
199 1 30.9114 1.98502 0.924207 4 3.43058e-06 2 0 0.0994487 0.96725
200 1 30.1815 2.71094 1.00186 4 1.13735e-05 2 0 0.0994487 0.67511
201 1 31.0247 3.35309 0.97101 4 9.24938e-06 2 0 0.0994487 0.998409
202 1 30.9865 2.69483 1.72648 4 5.10283e-06 2 0 0.0994487 0.578501
203 1 30.1092 3.25953 0.132205 4 1.53824e-05 2 0 0.0994487 -0.0443651
204 1 30.4116 1.90909 0.0255368 4 3.8147e-06 2 0 0.0994487 0.106045
205 1 31.1434 2.66402 0.0761253 4 4.01102e-06 2 0 0.0994487 0.70882
206 1 0.293831 3.78503 0.918557 4 8.86935e-15 2 0 0.0994487 -0.999347
207 1 0.143046 4.59443 0.482118 4 1.06986e-14 2 0 0.0994487 -0.784494
208 1 1.14036 4.67093 0.986638 4 6.33121e-14 2 0 0.0994487 -0.516756
209 1 0.0884667 5.26681 1.27761 4 1.43146e-14 2 0 0.0994487 -0.887458
210 1 1.04069 3.86421 0.0595682 4 2.42006e-14 2 0 0.0994487 0.0148875
211 1 1.84117 4.04604 0.847105 4 1.42015e-13 2 0 0.0994487 0.00826386
212 1 2.54049 4.85585 1.13748 4 7.6484e-13 2 0 0.0994487 -0.33385
213 1 2.64953 4.14475 0.20674 4 5.30438e-13 2 0 0.0994487 -0.0285732
214 1 1.89758 4.96895 0.278386 4 2.60705e-13 2 0 0.0994487 -0.153435
215 1 3.40771 4.86189 0.161635 4 2.88465e-12 2 0 0.0994487 -0.0163896
216 1 3.494 4.07675 0.885909 4 2.23191e-12 2 0 0.0994487 0.0268869
217 1 4.91235 4.00001 1.18344 4 2.11469e-11 2 0 0.0994487 0.0114987
218 1 4.04658 4.88002 1.14639 4 9.53392e-12 2 0 0.0994487 0.264485
219 1 4.26027 4.18509 0.149001 4 7.01825e-12 2 0 0.0994487 0.0377366
220 1 5.00947 4.74001 0.341082 4 3.60946e-11 2 0 0.0994487 0.076537
221 1 5.77735 3.9378 0.198707 4 5.85462e-11 2 0 0.0994487 0.0260139
222 1 6.48883 3.76611 0.772067 4 2.00464e-10 2 0 0.0994487 0.204546
223 1 5.68025 4.73638 1.02487 4 1.1934e-10 2 0 0.0994487 -0.621714
224 1 6.66321 4.5115 1.6428 4 4.00145e-10 2 0 0.0994487 0.15893
225 1 6.68072 5.1315 0.885352 4 7.26465e-10 2 0 0.0994487 0.20684
226 1 8.1982 3.892 0.700757 4 3.07881e-09 2 0 0.0994487 -0.369909
227 1 7.40842 4.46072 0.5468 4 1.3473e-09 2 0 0.0994487 -0.0252172
228 1 7.39886 3.87029 1.49684 4 8.3783e-10 2 0 0.0994487 0.102573
229 1 8.20004 4.61106 1.48677 4 4.87221e-09 2 0 0.0994487 -0.0118423
230 1 9.8976 3.57792 0.885667 4 2.59341e-08 2 0 0.0994487 0.592725
231 1 9.07913 4.56551 0.821335 4 1.71126e-08 2 0 0.0994487 -0.65856
232 1 9.86266 4.50302 0.126324 4 3.7157e-08 2 0 0.0994487 0.0958616
233 1 9.07829 3.76256 1.49819 4 9.42045e-09 2 0 0.0994487 -0.0708902
234 1 9.86881 4.3462 1.65532 4 4.26991e-08 2 0 0.0994487 -0.0856671
235 1 8.98541 3.86821 0.0631775 4 7.50702e-09 2 0 0.0994487 -0.138756
236 1 11.408 3.64493 0.778297 4 2.02894e-07 2 0 0.0994487 0.202055
237 1 10.5891 4.66652 0.906264 4 1.50447e-07 2 0 0.0994487 0.0450395
238 1 11.3867 4.69403 0.230734 4 4.05835e-07 2 0 0.0994487 -0.0498961
239 1 10.7059 3.56689 1.58785 4 7.39499e-08 2 0 0.0994487 -0.0448557
240 1 11.3652 4.3716 1.70545 4 3.13017e-07 2 0 0.0994487 -0.0798343
241 1 11.3894 5.27213 0.983682 4 6.55186e-07 2 0 0.0994487 -0.674504
242 1 10.5826 3.84888 0.176129 4 6.6387e-08 2 0 0.0994487 0.210462
243 1 12.5168 3.57716 0.814749 4 7.80556e-07 2 0 0.0994487 -0.0105895
244 1 12.1916 4.55033 1.00021 4 1.11467e-06 2 0 0.0994487 0.105002
245 1 12.7362 4.99738 1.68903 4 2.53122e-06 2 0 0.0994487 0.191322
246 1 13.2258 4.67863 0.80017 4 4.37908e-06 2 0 0.0994487 -0.00473218
247 1 12.6435 4.61885 0.0632315 4 1.87681e-06 2 0 0.0994487 -0.033586
248 1 13.9891 4.12825 0.69648 4 6.89542e-06 2 0 0.0994487 -0.430195
249 1 13.4832 4.21781 1.59317 4 3.71316e-06 2 0 0.0994487 0.0820095
250 1 14.2046 5.11838 1.52001 4 1.80155e-05 2 0 0.0994487 -0.0290015
251 1 14.9402 5.01141 0.811699 4 3.67971e-05 2 0 0.0994487 -0.0529323
252 1 14.9642 4.4167 1.59432 4 2.29561e-05 2 0 0.0994487 -0.0635694
253 1 14.1405 4.90647 0.0597868 4 1.28814e-05 2 0 0.0994487 -0.0857015
254 1 14.961 4.19423 0.096508 4 1.69398e-05 2 0 0.0994487 0.032267
255 1 15.6685 4.06642 0.926277 4 3.65336e-05 2 0 0.0994487 0.872549
256 1 15.8798 4.77595 0.186426 4 7.11535e-05 2 0 0.0994487 0.165382
257 1 16.5936 4.58036 0.900182 4 0.000140081 2 0 0.0994487 -0.0790374
258 1 16.3184 3.95875 1.6903 4 6.24562e-05 2 0 0.0994487 -0.0434038
259 1 15.8111 5.05317 1.64084 4 8.34909e-05 2 0 0.0994487 0.0994926
260 1 17.2689 3.83372 0.811237 4 0.000141898 2 0 0.0994487 -0.345396
261 1 18.0864 4.48855 1.09806 4 0.000463069 2 0 0.0994487 -0.612224
262 1 17.9525 3.63794 1.65602 4 0.000199439 2 0 0.0994487 -0.192811
263 1 17.4569 4.57727 0.0147963 4 0.000234641 2 0 0.0994487 -0.0974129
264 1 18.1348 3.8547 0.0583493 4 0.000234289 2 0 0.0994487 -0.120519
265 1 18.8779 3.70667 0.95022 4 0.000399797 2 0 0.0994487 0.0691993
266 1 18.8235 4.60949 0.361826 4 0.000799649 2 0 0.0994487 0.115605
267 1 19.6906 4.67872 1.0803 4 0.00179347 2 0 0.0994487 0.931541
268 1 18.7859 5.27693 1.20102 4 0.00156878 2 0 0.0994487 0.599134
269 1 19.5987 3.76722 0.227421 4 0.000588954 2 0 0.0994487 0.164267
270 1 20.4384 3.82188 1.23329 4 0.00113811 2 0 0.0994487 0.32595
271 1 20.8846 4.71868 1.39403 4 0.00384603 2 0 0.0994487 0.149054
272 1 21.5775 4.95128 0.810455 4 0.00670203 2 0 0.0994487 -0.00375886
273 1 21.0824 3.93136 0.512408 4 0.001669 2 0 0.0994487 0.0883007
274 1 20.1339 4.78559 0.352846 4 0.00246758 2 0 0.0994487 0.145583
275 1 22.8205 3.63186 1.42135 4 0.00176933 2 0 0.0994487 -0.0183998
276 1 21.9406 4.13318 1.31068 4 0.0028838 2 0 0.0994487 0.0272026
277 1 22.4705 5.17735 1.27286 4 0.0103634 2 0 0.0994487 0.0207063
278 1 22.6119 4.34705 0.510028 4 0.00389826 2 0 0.0994487 -0.0221065
279 1 23.5735 3.63903 0.782677 4 0.00184678 2 0 0.0994487 0.18556
280 1 24.336 4.32055 0.625018 4 0.0034736 2 0 0.0994487 -0.150091
281 1 23.4679 4.54946 1.33355 4 0.0052259 2 0 0.0994487 -0.079055
282 1 24.8518 5.25716 0.566763 4 0.00718932 2 0 0.0994487 0.0409107
283 1 23.5518 5.06386 0.533607 4 0.0086693 2 0 0.0994487 -0.0968878
284 1 25.0086 4.50055 1.62342 4 0.00322561 2 0 0.0994487 -0.0421931
285 1 25.0629 3.68037 0.802132 4 0.00135527 2 0 0.0994487 -0.187913
286 1 24.363 5.28843 1.43377 4 0.00943814 2 0 0.0994487 -0.154706
287 1 25.6904 5.1389 1.34266 4 0.00444595 2 0 0.0994487 0.210106
288 1 26.3575 4.29031 1.37159 4 0.00131779 2 0 0.0994487 0.149486
289 1 26.5026 4.97257 0.640732 4 0.00217073 2 0 0.0994487 0.0989722
290 1 25.5284 4.40089 0.388179 4 0.00221251 2 0 0.0994487 0.0559502
291 1 27.3302 4.86961 1.40568 4 0.0010747 2 0 0.0994487 0.00661463
292 1 27.9624 3.97641 1.10408 4 0.000277392 2 0 0.0994487 -0.309498
293 1 28.2771 4.73475 0.706344 4 0.000411909 2 0 0.0994487 -0.0812399
294 1 27.0674 4.04323 0.570038 4 0.000608975 2 0 0.0994487 0.0120268
295 1 28.9321 3.77016 0.487204 4 9.02005e-05 2 0 0.0994487 -0.00703021
296 1 29.0873 4.52317 1.33085 4 0.000158124 2 0 0.0994487 0.0574894
297 1 29.9979 4.07209 1.02303 4 4.18444e-05 2 0 0.0994487 -0.27523
298 1 31.0296 3.97382 0.373364 4 1.3777e-05 2 0 0.0994487 0.657583
299 1 30.2046 4.67765 0.491317 4 5.51201e-05 2 0 0.0994487 0.0099604
300 1 30.9783 4.59929 1.41131 4 2.36711e-05 2 0 0.0994487 0.679915
301 1 0.908283 5.53205 0.461647 4 6.85274e-14 2 0 0.0994487 -0.463785
302 1 1.53161 5.51184 1.37971 4 1.8653e-13 2 0 0.0994487 -0.117388
303 1 0.793684 6.22023 1.2768 4 7.9384e-14 2 0 0.0994487 -0.703381
304 1 0.257003 6.91734 1.50738 4 4.12328e-14 2 0 0.0994487 -0.772633
305 1 0.969942 6.9454 0.573423 4 1.59887e-13 2 0 0.0994487 -0.473533
306 1 1.7053 7.02884 1.23811 4 5.52131e-13 2 0 0.0994487 0.0665165
307 1 1.89588 6.19966 0.519025 4 5.51323e-13 2 0 0.0994487 -0.156401
308 1 3.10475 5.61709 1.30057 4 3.0505e-12 2 0 0.0994487 0.0402505
309 1 2.26359 6.15348 1.40977 4 8.88434e-13 2 0 0.0994487 0.0408549
310 1 3.25442 6.96226 1.12748 4 8.91433e-12 2 0 0.0994487 -0.0541264
311 1 2.68177 5.61289 0.273587 4 1.44942e-12 2 0 0.0994487 -0.059687
312 1 3.39503 6.28191 0.500536 4 7.99323e-12 2 0 0.0994487 -0.121448
313 1 4.18979 5.46246 0.325783 4 1.6403e-11 2 0 0.0994487 0.031015
314 1 4.93434 5.42873 1.31778 4 6.20018e-11 2 0 0.0994487 -0.235104
315 1 4.13622 6.09659 1.22779 4 2.59385e-11 2 0 0.0994487 -0.0893921
316 1 4.82567 6.23357 0.333842 4 7.49618e-11 2 0 0.0994487 -0.0345789
317 1 4.77312 6.79931 1.15967 4 1.14851e-10 2 0 0.0994487 -0.305935
318 1 4.00267 7.02511 0.221759 4 2.93639e-11 2 0 0.0994487 -0.0853461
319 1 5.78575 5.42185 0.301847 4 1.92054e-10 2 0 0.0994487 0.0124993
320 1 5.6935 6.24342 0.9632 4 3.33452e-10 2 0 0.0994487 -0.967782
321 1 6.4578 5.98425 1.59671 4 8.50764e-10 2 0 0.0994487 0.140911
322 1 6.43234 6.86927 1.00965 4 1.59106e-09 2 0 0.0994487 0.851665
323 1 6.37773 6.04115 0.154639 4 5.92836e-10 2 0 0.0994487 0.11111
324 1 5.54993 7.05206 0.147147 4 3.26435e-10 2 0 0.0994487 0.036384
325 1 8.21355 5.31419 0.694273 4 8.3646e-09 2 0 0.0994487 -0.0896051
326 1 7.32761 6.15925 0.754293 4 3.77577e-09 2 0 0.0994487 0.225723
327 1 7.39163 5.41839 1.49138 4 2.49381e-09 2 0 0.0994487 0.136748
328 1 8.23884 6.11028 1.49159 4 1.45649e-08 2 0 0.0994487 0.0187312
329 1 8.01352 6.85364 0.728993 4 1.6491e-08 2 0 0.0994487 0.0691777
330 1 7.28191 6.86379 1.59601 4 5.72477e-09 2 1 0.0994487 0.126046
331 1 7.33029 5.3575 0.0461812 4 1.63921e-09 2 0 0.0994487 0.0813542
332 1 9.76796 5.3194 0.792562 4 7.24401e-08 2 0 0.0994487 0.328427
333 1 8.88016 6.18865 0.736908 4 3.92733e-08 2 0 0.0994487 -0.235555
334 1 9.05434 5.3271 1.5973 4 2.71426e-08 2 0 0.0994487 -0.0628358
335 1 9.73844 6.19052 1.46731 4 1.32341e-07 2 0 0.0994487 -0.106436
336 1 9.09351 6.95013 1.463 4 9.57093e-08 2 2 0.0994487 -0.0758136
337 1 9.76329 6.23201 0.0941385 4 1.08883e-07 2 0 0.0994487 -0.0359564
338 1 8.99733 5.46479 0.012702 4 2.10562e-08 2 0 0.0994487 -0.134757
339 1 10.5831 6.02196 0.964384 4 3.6803e-07 2 0 0.0994487 -0.356498
340 1 11.3128 6.37134 0.0776634 4 7.90604e-07 2 0 0.0994487 0.100337
341 1 10.5187 6.94145 0.15452 4 4.39253e-07 2 0 0.0994487 -0.0735425
342 1 10.4686 6.92564 1.49614 4 5.92306e-07 2 1 0.0994487 -0.063665
343 1 11.9994 5.6274 0.183157 4 1.4731e-06 2 0 0.0994487 -0.0105375
344 1 12.6757 5.81849 0.861776 4 4.7945e-06 2 0 0.0994487 0.0817114
345 1 11.7774 6.20735 1.05291 4 1.91593e-06 2 0 0.0994487 0.292148
346 1 13.3219 5.86668 1.55471 4 1.01448e-05 2 0 0.0994487 0.208156
347 1 13.3506 6.58297 0.813679 4 1.84503e-05 2 0 0.0994487 -0.292149
348 1 13.3212 5.53867 0.0424813 4 7.67054e-06 2 0 0.0994487 -0.142919
349 1 14.0617 5.71565 0.77266 4 2.37892e-05 2 0 0.0994487 -0.372806
350 1 14.3278 6.65176 1.40646 4 6.6829e-05 2 1 0.0994487 -0.103197
351 1 14.1303 6.38483 0.0380077 4 3.03169e-05 2 0 0.0994487 -0.0826177
352 1 15.0282 5.64393 0.034369 4 5.30505e-05 2 0 0.0994487 0.057355
353 1 15.8305 5.73813 0.95832 4 0.000159436 2 0 0.0994487 0.625746
354 1 15.0472 6.45091 0.806774 4 0.000118917 2 0 0.0994487 -0.176116
355 1 16.491 6.45257 1.1401 4 0.000530598 2 0 0.0994487 0.208268
356 1 15.1058 5.87594 1.69804 4 8.63631e-05 2 0 0.0994487 -0.0976677
357 1 16.62 5.41933 0.276819 4 0.00023709 2 0 0.0994487 0.0799125
358 1 15.6753 6.3382 0.0390223 4 0.000166873 2 0 0.0994487 0.0398419
359 1 17.8271 5.30128 0.541411 4 0.000663912 2 0 0.0994487 0.150319
360 1 17.113 5.42499 1.24767 4 0.000439717 2 0 0.0994487 -0.286592
361 1 17.0619 6.27419 0.411469 4 0.00070687 2 0 0.0994487 0.138938
362 1 17.6649 6.24649 1.38542 4 0.00132262 2 0 0.0994487 -0.254286
363 1 18.2745 7.0517 1.13153 4 0.00383282 2 1 0.0994487 0.631036
364 1 18.3714 6.23173 0.609762 4 0.00233515 2 0 0.0994487 0.156173
365 1 19.429 5.75829 0.62055 4 0.00394109 2 0 0.0994487 0.0571799
366 1 19.3279 6.55755 1.35081 4 0.00725902 2 1 0.0994487 0.27473
367 1 19.9942 6.75229 0.610261 4 0.0136817 2 0 0.0994487 -0.0119257
368 1 20.7494 5.77593 0.653722 4 0.0102173 2 0 0.0994487 -0.104075
369 1 20.1931 5.61076 1.39557 4 0.00636288 2 0 0.0994487 0.312012
370 1 20.7787 6.6124 1.30355 4 0.0242575 2 1 0.0994487 -0.344623
371 1 21.6592 6.66248 0.666524 4 0.030684 2 0 0.0994487 -0.0435368
372 1 21.6631 5.87866 1.38528 4 0.018826 2 0 0.0994487 0.0420739
373 1 21.6904 5.73259 0.0517844 4 0.0118559 2 0 0.0994487 -0.00150266
374 1 22.6732 5.8279 0.674154 4 0.0188667 2 0 0.0994487 0.00265711
375 1 22.6319 6.69333 1.20734 4 0.0458138 2 0 0.0994487 -0.201697
376 1 23.3484 6.78052 0.267835 4 0.0361693 2 0 0.0994487 -0.125378
377 1 23.4822 5.88496 1.30013 4 0.0220928 2 0 0.0994487 -0.176399
378 1 24.3197 6.56281 1.15825 4 0.0291925 2 0 0.0994487 0.173527
379 1 24.1457 6.00685 0.427617 4 0.0178407 2 0 0.0994487 0.00244104
380 1 25.6831 5.86213 0.700952 4 0.00796895 2 0 0.0994487 0.163903
381 1 25.1124 6.04132 1.67733 4 0.01302 2 0 0.0994487 0.00367209
382 1 25.1593 6.74159 0.495153 4 0.0194269 2 0 0.0994487 0.0903963
383 1 25.8251 6.59457 1.40775 4 0.012541 2 0 0.0994487 0.0881094
384 1 26.6903 5.84511 1.4763 4 0.00405749 2 0 0.0994487 0.0917675
385 1 27.4966 5.54334 0.722172 4 0.00157568 2 0 0.0994487 -0.251563
386 1 26.7485 6.36567 0.651888 4 0.00539885 2 0 0.0994487 0.0387584
387 1 27.7011 6.47315 1.36539 4 0.00263553 2 0 0.0994487 0.131501
388 1 28.3648 5.52203 1.4872 4 0.000698534 2 0 0.0994487 0.0456369
389 1 27.7097 7.0074 0.530173 4 0.00336471 2 0 0.0994487 0.0321319
390 1 29.3889 5.30889 0.818726 4 0.000224934 2 0 0.0994487 0.316735
391 1 29.4379 6.18214 1.32212 4 0.000353815 2 0 0.0994487 -0.00337728
392 1 29.5784 6.89773 0.506505 4 0.000448842 2 0 0.0994487 0.0925918
393 1 28.4685 6.20589 0.638647 4 0.000974983 2 0 0.0994487 -0.270071
394 1 29.3762 6.15398 0.0801838 4 0.000323971 2 0 0.0994487 0.0969281
395 1 28.4822 5.38976 0.0592959 4 0.000453613 2 0 0.0994487 -0.105001
396 1 30.9636 5.36838 0.595026 4 4.51857e-05 2 0 0.0994487 0.667848
397 1 30.2159 5.45949 1.46813 4 9.42801e-05 2 0 0.0994487 0.0540234
398 1 30.3958 6.18258 0.649752 4 0.000132901 2 0 0.0994487 0.329006
399 1 31.2189 6.15516 1.38439 4 5.25977e-05 2 0 0.0994487 0.587258
400 1 31.1994 6.95407 0.60342 4 8.44711e-05 2 0 0.0994487 0.812253
401 1 31.7235 5.99622 0.446564 4 2.9711e-05 2 0 0.0994487 0.879729
402 1 0.261851 7.63199 0.661866 4 6.55709e-14 2 0 0.0994487 -0.876374
403 1 0.831025 8.46344 0.61936 4 2.21907e-13 2 0 0.0994487 -0.577627
404 1 1.11211 7.86396 1.49711 4 2.54137e-13 2 0 0.0994487 -0.154429
405 1 0.356955 8.5626 1.47035 4 9.39729e-14 2 0 0.0994487 -0.764984
406 1 1.59266 7.76478 0.37187 4 6.35939e-13 2 0 0.0994487 -0.0897888
407 1 1.72382 8.61735 1.46471 4 1.02934e-12 2 0 0.0994487 0.0395957
408 1 2.48799 7.14986 0.476331 4 2.578e-12 2 0 0.0994487 -0.0836983
409 1 2.19177 8.6335 0.399707 4 2.4894e-12 2 0 0.0994487 -0.137269
410 1 2.39416 7.81099 1.27726 4 2.74833e-12 2 0 0.0994487 0.0869901
411 1 3.01349 8.51445 0.935533 4 1.08068e-11 2 0 0.0994487 -0.539319
412 1 3.24418 7.77117 0.327041 4 1.16992e-11 2 0 0.0994487 -0.196207
413 1 3.81243 8.45898 0.0822892 4 3.24704e-11 2 0 0.0994487 -0.0457802
414 1 3.97971 7.67009 1.24863 4 4.21068e-11 2 0 0.0994487 -0.0554919
415 1 4.70459 8.25653 0.921772 4 1.81027e-10 2 0 0.0994487 0.295313
416 1 4.67023 7.63706 0.247803 4 1.14541e-10 2 0 0.0994487 0.0376889
417 1 3.81127 8.34851 1.76162 4 3.23371e-11 2 0 0.0994487 -0.0574373
418 1 5.86955 8.34822 0.169905 4 9.43757e-10 2 0 0.0994487 0.113103
419 1 5.48363 7.59071 1.03232 4 5.3505e-10 2 0 0.0994487 -0.467676
420 1 6.49365 7.53799 0.169175 4 1.87731e-09 2 0 0.0994487 0.187621
421 1 6.39674 8.23976 1.04384 4 3.16555e-09 2 0 0.0994487 0.338144
422 1 7.28583 7.76918 0.746313 4 9.63987e-09 2 1 0.0994487 0.0099325
423 1 8.2859 8.31376 0.868772 4 5.84557e-08 2 2 0.0994487 0.278633
424 1 7.27857 8.18368 1.7015 4 1.4931e-08 2 2 0.0994487 -0.174684
425 1 8.05208 7.48784 1.5604 4 2.85125e-08 2 1 0.0994487 0.185041
426 1 7.99895 7.60312 0.0282118 4 1.58734e-08 2 0 0.0994487 0.0674106
427 1 9.84313 7.22199 0.72344 4 2.87142e-07 2 1 0.0994487 -0.346958
428 1 8.91207 7.61626 0.661731 4 9.5757e-08 2 1 0.0994487 0.158646
429 1 9.73234 8.61964 0.693151 4 4.90211e-07 2 3 0.0994487 -0.257337
430 1 9.09265 8.69904 1.44495 4 2.72987e-07 2 9 0.0994487 -0.397825
431 1 9.64026 7.88932 1.60055 4 4.17594e-07 2 8 0.0994487 -0.34125
432 1 11.3161 7.14287 0.810636 4 1.84345e-06 2 1 0.0994487 0.448395
433 1 10.5731 7.9454 0.844311 4 1.12765e-06 2 3 0.0994487 -0.198602
434 1 10.5877 8.70196 1.4255 4 1.90896e-06 1 8 0.0994487 -0.145488
435 1 11.4057 7.80503 1.60301 4 3.7159e-06 2 7 0.0994487 0.228914
436 1 11.227 8.11851 0.0422735 4 1.77974e-06 2 0 0.0994487 0.174302
437 1 12.7061 7.28322 0.565784 4 1.22731e-05 2 0 0.0994487 -0.053123
438 1 12.178 8.23518 0.590765 4 9.58305e-06 2 2 0.0994487 0.164157
439 1 12.0637 7.15788 1.37768 4 5.66842e-06 2 3 0.0994487 0.146257