ITEM: TIMESTEP
44000
ITEM: NUMBER OF ATOMS
9495
ITEM: BOX BOUNDS mm mm mm
0.0000000000000000e+00 3.1748021039364001e+01
0.0000000000000000e+00 3.1748021039364001e+01
-7.4072398406925706e-04 3.1748021039364001e+01
ITEM: ATOMS id type x y z c_phase c_temp c_surf c_nbond c_visc f_3[1]
1 1 0.116341 1.10259 0.464337 4 0.00046688 2 0 0.0994487 -0.68194
2 1 0.974108 1.6685 0.77798 4 0.000628742 2 0 0.0994487 -0.517032
3 1 0.714648 0.793562 1.41295 4 0.000512517 2 0 0.0994487 -0.281794
4 1 0.00336375 1.60273 1.37437 4 0.000500744 2 0 0.0994487 -0.804051
5 1 0.729896 0.0633724 0.61602 4 0.00043708 3 0 0.0994487 -0.190374
6 1 1.71015 0.808983 1.0155 4 0.000714472 2 0 0.0994487 -0.332069
7 1 1.80059 1.47468 0.221075 4 0.00076245 2 0 0.0994487 -0.125829
8 1 1.82015 1.66049 1.76126 4 0.000806371 2 0 0.0994487 -0.139533
9 1 2.52093 0.749102 0.203812 4 0.00089065 2 0 0.0994487 -0.142939
10 1 2.59149 0.0538711 1.03726 4 0.000887258 2 0 0.0994487 -0.295004
11 1 2.64922 1.541 0.882848 4 0.0010495 2 0 0.0994487 0.235756
12 1 2.66829 0.815502 1.7457 4 0.00097159 2 0 0.0994487 -0.18704
13 1 3.43386 0.933692 0.956349 4 0.00131338 2 0 0.0994487 0.320242
14 1 3.49924 0.0925696 1.70571 4 0.00113767 2 0 0.0994487 0.178053
15 1 3.60652 1.70798 1.71994 4 0.00157566 2 0 0.0994487 0.0487951
16 1 4.10576 0.858321 0.325305 4 0.00170494 2 0 0.0994487 0.153146
17 1 4.96159 0.56786 1.17466 4 0.00254929 2 0 0.0994487 -0.0370668
18 1 4.91949 1.59987 0.383508 4 0.00283476 2 0 0.0994487 -0.100248
19 1 4.3472 0.941527 1.62884 4 0.00194858 2 0 0.0994487 0.110738
20 1 3.47612 0.111428 0.171027 4 0.0011012 2 0 0.0994487 0.166215
21 1 5.64741 0.645627 0.325839 4 0.00340967 2 0 0.0994487 -0.0806046
22 1 5.88414 1.31048 0.938036 4 0.00400618 2 0 0.0994487 -0.199583
23 1 6.57478 1.39104 0.218369 4 0.00523524 2 0 0.0994487 -0.0861331
24 1 5.78374 0.460658 1.69897 4 0.00346753 2 0 0.0994487 -0.0846522
25 1 5.03122 1.72414 1.43602 4 0.00296199 2 0 0.0994487 0.0453724
26 1 6.7138 0.39031 0.865278 4 0.004977 2 0 0.0994487 -0.0793814
27 1 6.69104 1.00962 1.69374 4 0.00510878 2 0 0.0994487 -0.107923
28 1 8.2679 0.408875 1.07337 4 0.00819034 2 0 0.0994487 -0.100166
29 1 7.36782 1.22285 0.954198 4 0.00673653 2 0 0.0994487 -0.302549
30 1 8.24709 1.39092 0.236779 4 0.0091132 2 0 0.0994487 -0.0460634
31 1 8.12868 1.27217 1.60653 4 0.00848071 2 0 0.0994487 -0.0081162
32 1 7.58247 0.647807 0.140287 4 0.0068071 2 0 0.0994487 -0.110935
33 1 8.85849 0.508506 0.273966 4 0.00985826 2 0 0.0994487 -0.0616457
34 1 9.55301 0.3386 0.888639 4 0.011873 2 0 0.0994487 0.00506484
35 1 9.02586 1.30716 1.1133 4 0.0114429 2 0 0.0994487 -0.0606424
37 1 9.63995 1.37474 0.0900752 4 0.013324 2 0 0.0994487 0.099292
38 1 11.2128 0.215893 0.632658 4 0.0190145 2 0 0.0994487 0.203504
39 1 10.3637 1.04743 0.823114 4 0.0161171 2 0 0.0994487 0.539889
40 1 10.523 0.196295 1.44539 4 0.0154977 2 0 0.0994487 0.0644294
41 1 11.2856 1.01846 1.41785 4 0.0218946 2 0 0.0994487 0.164709
42 1 10.5797 1.67706 1.72992 4 0.019291 2 0 0.0994487 0.118165
43 1 10.2431 0.367861 0.0780499 4 0.0137006 2 0 0.0994487 0.149801
44 1 12.8757 0.211714 0.636805 4 0.0323883 2 0 0.0994487 0.0587888
45 1 12.0457 1.07408 0.506655 4 0.0284713 2 0 0.0994487 -0.0235496
46 1 12.1319 0.316439 1.29957 4 0.0266532 2 0 0.0994487 0.0188379
47 1 12.7194 1.19864 1.3723 4 0.0353699 2 0 0.0994487 -0.0305252
48 1 14.3729 0.318493 0.764646 4 0.0476617 2 0 0.0994487 -0.0460374
49 1 13.5924 1.113 0.843618 4 0.0443983 2 0 0.0994487 -0.263049
50 1 14.0399 1.55958 0.167469 4 0.0524547 2 0 0.0994487 -0.089824
51 1 13.6075 0.359834 1.6352 4 0.0398677 2 0 0.0994487 -0.0562624
52 1 14.3777 1.14948 1.47647 4 0.0514483 2 0 0.0994487 -0.0178261
53 1 14.8761 1.55337 0.662943 4 0.0604516 2 0 0.0994487 0.389951
54 1 15.7061 0.770636 0.788259 4 0.0635252 2 0 0.0994487 0.366485
55 1 16.5532 1.54451 0.681338 4 0.0855984 2 0 0.0994487 0.000807142
56 1 15.1422 0.4642 1.64149 4 0.054447 2 0 0.0994487 0.152078
57 1 16.547 0.712289 1.3421 4 0.0765491 2 0 0.0994487 0.0956276
58 1 15.6341 1.48544 1.3916 4 0.0696165 2 0 0.0994487 0.153633
59 1 15.1049 0.711806 0.0677822 4 0.0545091 2 0 0.0994487 0.169203
60 1 17.2544 0.732268 0.547589 4 0.0870387 2 0 0.0994487 0.0286308
61 1 17.9231 1.58109 0.757246 4 0.107076 2 0 0.0994487 0.0415646
62 1 17.916 0.742935 1.42801 4 0.0976293 2 0 0.0994487 -0.224375
63 1 17.2202 1.74884 1.56274 4 0.100753 2 0 0.0994487 -0.0984825
64 1 19.5372 0.0167772 0.662766 4 0.103578 2 0 0.0994487 0.0436442
65 1 18.7918 0.725074 0.684829 4 0.105529 2 0 0.0994487 -0.269944
66 1 19.5395 1.55488 0.841653 4 0.124358 2 0 0.0994487 -0.341159
67 1 19.0276 0.158607 1.54508 4 0.102419 2 0 0.0994487 -0.158664
68 1 19.5934 0.967491 1.68957 4 0.114303 2 0 0.0994487 0.00835153
69 1 18.6564 1.51302 1.50035 4 0.115631 2 0 0.0994487 -0.250306
70 1 21.0889 0.349843 1.06749 4 0.114951 2 0 0.0994487 -0.196125
71 1 20.2493 0.776373 0.980057 4 0.116314 2 0 0.0994487 -0.0497597
72 1 21.1062 1.65725 0.951506 4 0.13263 2 0 0.0994487 0.692918
73 1 21.1874 0.765598 0.218806 4 0.117986 2 0 0.0994487 -0.0445901
74 1 20.3457 1.51479 0.193617 4 0.127625 2 0 0.0994487 -0.0806017
75 1 22.0087 0.262534 0.539755 4 0.114464 2 0 0.0994487 0.0993599
76 1 22.7913 0.430275 1.40734 4 0.115682 2 0 0.0994487 0.2066
77 1 22.1105 1.14763 1.32981 4 0.123897 2 0 0.0994487 0.240025
78 1 21.9982 1.59955 0.538558 4 0.132778 2 0 0.0994487 0.185173
79 1 22.9157 1.07463 0.445168 4 0.122302 2 0 0.0994487 0.0520854
80 1 24.228 0.380179 1.45209 4 0.111274 2 0 0.0994487 0.0576175
81 1 23.5672 0.357563 0.57369 4 0.113525 2 0 0.0994487 0.0385717
82 1 24.4367 1.18687 0.754729 4 0.12004 2 0 0.0994487 -0.0192939
83 1 23.4757 1.2499 1.4028 4 0.125447 2 0 0.0994487 0.0298786
84 1 24.955 0.315686 0.551996 4 0.105077 2 0 0.0994487 -0.0171978
85 1 26.0085 0.383365 1.1715 4 0.0950245 2 0 0.0994487 -0.185858
86 1 25.169 1.12579 1.48087 4 0.113551 2 0 0.0994487 0.0251064
87 1 25.9301 1.73476 1.35794 4 0.115458 2 0 0.0994487 0.0345382
88 1 25.8917 0.929212 0.432102 4 0.101446 2 0 0.0994487 -0.0954184
89 1 27.5736 1.28032 0.38906 4 0.0864982 2 0 0.0994487 0.0454501
90 1 27.6142 0.50928 0.874321 4 0.0806865 2 0 0.0994487 0.175389
91 1 26.7559 1.02809 1.26347 4 0.0924049 2 0 0.0994487 -0.236883
92 1 28.3748 0.337482 1.39813 4 0.0718568 2 0 0.0994487 0.00984516
93 1 26.7925 0.240345 0.226621 4 0.0854593 2 0 0.0994487 0.0380753
94 1 28.6489 1.24263 0.742341 4 0.0760114 2 0 0.0994487 0.102407
95 1 29.3912 0.945639 1.56878 4 0.0667367 2 0 0.0994487 -0.0192
96 1 28.5228 1.71921 1.49749 4 0.0810117 2 0 0.0994487 -0.0429798
97 1 29.8133 0.173958 1.46124 4 0.0601355 2 0 0.0994487 0.133416
98 1 29.2734 0.3547 0.615275 4 0.0639227 2 0 0.0994487 -0.0816807
99 1 31.5874 0.266128 1.25663 4 0.0492192 3 0 0.0994487 0.830097
100 1 30.7016 0.49015 0.470738 4 0.0563361 2 0 0.0994487 0.354852
101 1 30.1009 1.19877 0.774133 4 0.0642949 2 0 0.0994487 0.210921
102 1 30.8649 0.971942 1.39386 4 0.0584441 2 0 0.0994487 0.703282
103 1 1.11081 2.43607 0.129285 4 0.000697922 2 0 0.0994487 -0.0373223
104 1 0.133403 2.3821 0.812241 4 0.000592456 2 0 0.0994487 -0.984517
105 1 1.28845 3.23764 0.949187 4 0.000891021 2 0 0.0994487 0.222092
106 1 1.13977 2.36077 1.59162 4 0.000736329 2 0 0.0994487 -0.222189
107 1 0.386685 3.02999 1.54944 4 0.000698733 2 0 0.0994487 -0.671256
108 1 0.332248 3.09582 0.131296 4 0.000673444 2 0 0.0994487 -0.59134
109 1 1.90972 2.41867 0.78376 4 0.000923032 2 0 0.0994487 0.078209
110 1 2.65852 3.28029 0.860875 4 0.00149801 2 0 0.0994487 0.066804
111 1 2.66931 2.22918 1.53373 4 0.00118776 2 0 0.0994487 0.0829551
112 1 3.2579 3.42668 1.64938 4 0.00197675 2 0 0.0994487 0.0039751
113 1 2.7261 2.38168 0.0557193 4 0.00114299 2 0 0.0994487 0.146601
114 1 3.38195 2.55413 0.779289 4 0.00169248 2 0 0.0994487 0.211584
115 1 4.00679 1.841 0.711184 4 0.00196728 2 0 0.0994487 -0.0361232
116 1 4.91383 2.57277 0.815661 4 0.00336319 2 0 0.0994487 -0.259349
117 1 4.20148 3.3175 0.749446 4 0.00291419 2 0 0.0994487 0.00621581
118 1 4.13245 2.64107 1.58328 4 0.00241433 2 0 0.0994487 0.0270778
119 1 5.65047 2.44269 0.132743 4 0.00438801 2 0 0.0994487 -0.189925
120 1 6.55776 2.18062 0.772597 4 0.00585323 2 0 0.0994487 -0.28938
121 1 5.64874 3.19593 0.952489 4 0.00510648 2 0 0.0994487 -0.754632
122 1 5.861 2.19426 1.49672 4 0.00446621 2 0 0.0994487 0.0126361
123 1 6.52037 3.06691 1.5557 4 0.00679766 2 0 0.0994487 0.0443581
124 1 6.65033 2.92778 0.134227 4 0.00664673 2 0 0.0994487 0.0288873
125 1 7.45405 2.22586 0.139832 4 0.00802307 2 0 0.0994487 -0.0535018
126 1 8.08209 2.20208 0.930382 4 0.0100252 2 0 0.0994487 -0.302068
127 1 7.40132 3.06835 0.934051 4 0.00944722 2 0 0.0994487 -0.0455161
128 1 7.29928 2.06035 1.56856 4 0.00738837 2 0 0.0994487 -0.0607321
129 1 8.18545 3.00183 1.65211 4 0.0122192 2 0 0.0994487 -0.0454151
130 1 8.26934 2.9712 0.0392146 4 0.0125086 2 0 0.0994487 -0.150616
131 1 8.90393 2.08699 0.252387 4 0.0125288 2 0 0.0994487 0.0024342
132 1 9.77243 2.0246 1.10996 4 0.0162524 2 0 0.0994487 0.173468
133 1 8.92671 2.97262 0.928693 4 0.0156721 2 0 0.0994487 -0.156751
134 1 9.03062 2.22066 1.70398 4 0.0135453 2 0 0.0994487 -0.0819671
135 1 9.56096 2.90576 0.21312 4 0.0181404 2 0 0.0994487 0.173121
136 1 10.2834 2.1137 0.214297 4 0.0180877 2 0 0.0994487 0.33774
137 1 11.1583 1.82604 0.771092 4 0.0239793 2 0 0.0994487 0.260091
138 1 10.6214 2.80819 0.921535 4 0.0254013 2 0 0.0994487 0.541922
139 1 11.4444 2.82964 1.57484 4 0.0334814 2 0 0.0994487 0.0952012
140 1 12.6737 1.94118 0.593851 4 0.0405582 2 0 0.0994487 -0.283931
141 1 11.928 2.64099 0.742299 4 0.0371705 2 0 0.0994487 -0.0386715
142 1 11.9239 1.9206 1.46509 4 0.0314627 2 0 0.0994487 0.0946555
143 1 12.8449 3.01766 1.68597 4 0.0518831 2 0 0.0994487 0.0363578
144 1 13.1791 3.03035 0.848852 4 0.0573849 2 0 0.0994487 -0.440852
145 1 13.3784 1.9912 1.48064 4 0.0478937 2 0 0.0994487 -0.015069
146 1 14.0206 2.44438 0.927124 4 0.061279 2 0 0.0994487 -0.133095
147 1 14.0279 3.38359 1.55716 4 0.0754081 2 0 0.0994487 0.0255755
148 1 14.6961 3.43698 0.884932 4 0.0889507 2 0 0.0994487 -0.332954
149 1 14.7823 2.29758 1.44821 4 0.0691546 2 0 0.0994487 0.0469282
150 1 14.8418 2.51505 0.136557 4 0.0730407 2 0 0.0994487 0.173006
151 1 14.1591 3.2262 0.0325348 4 0.0754096 2 0 0.0994487 -0.246105
152 1 13.4137 2.29398 0.0590902 4 0.0524842 2 0 0.0994487 -0.280961
153 1 15.6993 2.44373 0.692668 4 0.0859674 2 0 0.0994487 0.364394
154 1 16.3029 3.20095 0.662084 4 0.113047 2 0 0.0994487 0.328589
155 1 16.308 2.47951 1.52575 4 0.098888 2 0 0.0994487 -0.100646
156 1 15.3694 3.25723 1.50191 4 0.098074 2 0 0.0994487 -0.00766848
157 1 15.5706 3.25854 0.0192499 4 0.0967028 2 0 0.0994487 0.290238
158 1 17.0646 2.35032 0.682778 4 0.108658 2 0 0.0994487 0.023482
159 1 17.944 2.92608 0.699539 4 0.142279 2 0 0.0994487 -0.23119
160 1 18.0193 2.43917 1.58112 4 0.128372 2 0 0.0994487 -0.149134
161 1 17.0918 3.1162 1.49491 4 0.130441 2 0 0.0994487 -0.143434
162 1 18.8908 2.35742 1.01358 4 0.137755 2 0 0.0994487 -0.516825
163 1 19.7027 3.2427 1.27782 4 0.173382 2 0 0.0994487 0.394881
164 1 18.884 2.99607 0.196019 4 0.157671 2 0 0.0994487 -0.171809
165 1 19.587 2.34239 0.101452 4 0.143647 2 0 0.0994487 -0.13237
166 1 20.3251 1.78863 1.72442 4 0.131102 2 0 0.0994487 0.044954
167 1 21.1565 2.41663 0.458355 4 0.153786 2 0 0.0994487 0.196188
168 1 20.1948 2.46882 1.11433 4 0.149255 2 0 0.0994487 0.286748
169 1 21.31 3.29463 1.39314 4 0.192625 2 0 0.0994487 0.07773
170 1 20.4222 2.99313 0.334941 4 0.168477 2 0 0.0994487 0.186291
171 1 22.8719 2.07007 1.50872 4 0.147448 2 0 0.0994487 -0.0221223
172 1 22.9717 2.60199 0.735523 4 0.169991 2 0 0.0994487 0.133329
173 1 22.0961 2.49917 1.23787 4 0.162884 2 0 0.0994487 0.18644
174 1 21.9898 3.20043 0.598797 4 0.195758 2 0 0.0994487 -0.0757488
175 1 22.6771 3.40124 0.07601 4 0.208678 2 0 0.0994487 0.076074
176 1 23.7438 1.80844 0.624025 4 0.136324 2 0 0.0994487 -0.0873576
177 1 24.4289 1.98763 1.61102 4 0.138151 2 0 0.0994487 -0.0641744
178 1 24.342 2.68296 0.775192 4 0.161484 2 0 0.0994487 -0.34109
179 1 23.6887 2.90303 1.53628 4 0.176707 2 0 0.0994487 -0.110503
180 1 24.4728 3.51078 1.55704 4 0.199303 2 0 0.0994487 -0.118304
181 1 24.9562 2.84566 0.0146836 4 0.157637 2 0 0.0994487 -0.0864588
182 1 26.5483 1.79415 0.511367 4 0.106769 2 0 0.0994487 -0.00559846
183 1 25.1322 1.85613 0.509414 4 0.128237 2 0 0.0994487 -0.0215275
184 1 25.7918 2.61203 0.707489 4 0.141409 2 0 0.0994487 0.228205
185 1 25.1579 2.55548 1.52547 4 0.148585 2 0 0.0994487 0.0576684
186 1 25.7213 3.49812 1.51211 4 0.178585 2 0 0.0994487 0.123859
187 1 26.5364 2.56002 1.53049 4 0.125688 2 0 0.0994487 0.0579493
188 1 26.1686 3.50068 0.599043 4 0.168584 2 0 0.0994487 0.168847
189 1 27.5039 1.98546 1.23792 4 0.0962617 2 0 0.0994487 -0.186416
190 1 28.2489 2.09022 0.343734 4 0.0887304 2 0 0.0994487 -0.017724
191 1 27.0867 2.6924 0.645359 4 0.118277 2 0 0.0994487 -0.105598
192 1 27.1998 3.35397 1.41682 4 0.135018 2 0 0.0994487 -0.098326
193 1 28.2537 2.75799 1.20639 4 0.0994477 2 0 0.0994487 -0.418303
194 1 27.982 3.21993 0.326384 4 0.112773 2 0 0.0994487 -0.125256
195 1 29.9568 1.80906 1.70764 4 0.0699705 2 0 0.0994487 0.183201
196 1 29.4477 2.04702 0.879698 4 0.0766326 2 0 0.0994487 -0.00708067
197 1 29.1956 2.6589 0.290703 4 0.0857227 2 0 0.0994487 -0.0578275
198 1 29.2495 3.2651 1.17365 4 0.0950396 2 0 0.0994487 0.118638
199 1 30.9114 1.98502 0.924207 4 0.0679397 2 0 0.0994487 0.967251
200 1 30.1815 2.71094 1.00186 4 0.0785406 2 0 0.0994487 0.675111
201 1 31.0247 3.35309 0.97101 4 0.0819925 2 0 0.0994487 0.998409
202 1 30.9865 2.69483 1.72648 4 0.0745824 2 0 0.0994487 0.578501
203 1 30.1092 3.25953 0.132205 4 0.0839268 2 0 0.0994487 -0.0443654
204 1 30.4116 1.90909 0.0255368 4 0.0681394 2 0 0.0994487 0.106045
205 1 31.1434 2.66402 0.0761253 4 0.0721534 2 0 0.0994487 0.70882
206 1 0.293831 3.78503 0.918557 4 0.00079116 2 0 0.0994487 -0.999347
207 1 0.143046 4.59443 0.482118 4 0.000881256 2 0 0.0994487 -0.784494
208 1 1.14036 4.67093 0.986638 4 0.00116094 2 0 0.0994487 -0.516752
209 1 0.0884667 5.26681 1.27761 4 0.00100174 2 0 0.0994487 -0.887458
210 1 1.04069 3.86421 0.0595682 4 0.000901624 2 0 0.0994487 0.014888
211 1 1.84117 4.04604 0.847105 4 0.00130362 2 0 0.0994487 0.0082684
212 1 2.54049 4.85585 1.13748 4 0.00203562 2 0 0.0994487 -0.333846
213 1 2.64953 4.14475 0.20674 4 0.00184964 2 0 0.0994487 -0.0285721
214 1 1.89758 4.96895 0.278386 4 0.00163392 2 0 0.0994487 -0.153434
215 1 3.40771 4.86189 0.161635 4 0.00290651 2 0 0.0994487 -0.0163881
216 1 3.494 4.07675 0.885909 4 0.00255626 2 0 0.0994487 0.0268932
217 1 4.91235 4.00001 1.18344 4 0.00452541 2 0 0.0994487 0.0115109
218 1 4.04658 4.88002 1.14639 4 0.00377352 2 0 0.0994487 0.264489
219 1 4.26027 4.18509 0.149001 4 0.00360911 2 0 0.0994487 0.0377382
220 1 5.00947 4.74001 0.341082 4 0.00554845 2 0 0.0994487 0.0765399
221 1 5.77735 3.9378 0.198707 4 0.00606563 2 0 0.0994487 0.0260159
222 1 6.48883 3.76611 0.772067 4 0.00777708 2 0 0.0994487 0.204554
223 1 5.68025 4.73638 1.02487 4 0.00741096 2 0 0.0994487 -0.621687
224 1 6.66321 4.5115 1.6428 4 0.00990174 2 0 0.0994487 0.158934
225 1 6.68072 5.1315 0.885352 4 0.0119218 2 0 0.0994487 0.206856
226 1 8.1982 3.892 0.700757 4 0.0156572 2 0 0.0994487 -0.369899
227 1 7.40842 4.46072 0.5468 4 0.0134492 2 0 0.0994487 -0.0252118
228 1 7.39886 3.87029 1.49684 4 0.0113179 2 0 0.0994487 0.102578
229 1 8.20004 4.61106 1.48677 4 0.0185848 2 0 0.0994487 -0.0118366
230 1 9.8976 3.57792 0.885667 4 0.0248963 2 0 0.0994487 0.592797
231 1 9.07913 4.56551 0.821335 4 0.0249421 2 0 0.0994487 -0.658539
232 1 9.86266 4.50302 0.126324 4 0.0297338 2 0 0.0994487 0.0958663
233 1 9.07829 3.76256 1.49819 4 0.0202804 2 0 0.0994487 -0.0708847
234 1 9.86881 4.3462 1.65532 4 0.0304656 2 0 0.0994487 -0.0856616
235 1 8.98541 3.86821 0.0631775 4 0.0198389 2 0 0.0994487 -0.138753
236 1 11.408 3.64493 0.778297 4 0.0405594 2 0 0.0994487 0.202068
237 1 10.5891 4.66652 0.906264 4 0.0406475 2 0 0.0994487 0.0450852
238 1 11.3867 4.69403 0.230734 4 0.0521782 2 0 0.0994487 -0.0498889
239 1 10.7059 3.56689 1.58785 4 0.0322635 2 0 0.0994487 -0.0448482
240 1 11.3652 4.3716 1.70545 4 0.0481532 2 0 0.0994487 -0.0798267
241 1 11.3894 5.27213 0.983682 4 0.0601907 2 0 0.0994487 -0.674473
242 1 10.5826 3.84888 0.176129 4 0.032064 2 0 0.0994487 0.210467
243 1 12.5168 3.57716 0.814749 4 0.0551028 2 0 0.0994487 -0.0105746
244 1 12.1916 4.55033 1.00021 4 0.0634588 2 0 0.0994487 0.105055
245 1 12.7362 4.99738 1.68903 4 0.0787291 2 0 0.0994487 0.19133
246 1 13.2258 4.67863 0.80017 4 0.0861556 2 0 0.0994487 -0.00469585
247 1 12.6435 4.61885 0.0632315 4 0.0741566 2 0 0.0994487 -0.0335796
248 1 13.9891 4.12825 0.69648 4 0.0915785 2 0 0.0994487 -0.430177
249 1 13.4832 4.21781 1.59317 4 0.0805027 2 0 0.0994487 0.0820184
250 1 14.2046 5.11838 1.52001 4 0.120069 2 0 0.0994487 -0.0289915
251 1 14.9402 5.01141 0.811699 4 0.137878 2 0 0.0994487 -0.0527412
252 1 14.9642 4.4167 1.59432 4 0.120294 2 0 0.0994487 -0.0635623
253 1 14.1405 4.90647 0.0597868 4 0.113213 2 0 0.0994487 -0.0856945
254 1 14.961 4.19423 0.096508 4 0.111366 2 0 0.0994487 0.0322726
255 1 15.6685 4.06642 0.926277 4 0.125366 2 0 0.0994487 0.872584
256 1 15.8798 4.77595 0.186426 4 0.154516 2 0 0.0994487 0.165389
257 1 16.5936 4.58036 0.900182 4 0.169915 2 0 0.0994487 -0.0789857
258 1 16.3184 3.95875 1.6903 4 0.139019 2 0 0.0994487 -0.0433974
259 1 15.8111 5.05317 1.64084 4 0.164054 2 0 0.0994487 0.0994986
260 1 17.2689 3.83372 0.811237 4 0.15971 2 0 0.0994487 -0.345385
261 1 18.0864 4.48855 1.09806 4 0.204383 2 0 0.0994487 -0.612171
262 1 17.9525 3.63794 1.65602 4 0.166034 2 0 0.0994487 -0.192806
263 1 17.4569 4.57727 0.0147963 4 0.190509 2 0 0.0994487 -0.09741
264 1 18.1348 3.8547 0.0583493 4 0.176773 2 0 0.0994487 -0.120517
265 1 18.8779 3.70667 0.95022 4 0.182825 2 0 0.0994487 0.0692306
266 1 18.8235 4.60949 0.361826 4 0.22128 2 0 0.0994487 0.115609
267 1 19.6906 4.67872 1.0803 3 0.254213 2 0 0.0994251 0.931535
268 1 18.7859 5.27693 1.20102 3 0.271458 2 0 0.0993174 0.599142
269 1 19.5987 3.76722 0.227421 4 0.192727 2 0 0.0994487 0.164269
270 1 20.4384 3.82188 1.23329 4 0.212682 2 0 0.0994487 0.325955
271 1 20.8846 4.71868 1.39403 3 0.294205 2 0 0.0991439 0.149058
272 1 21.5775 4.95128 0.810455 3 0.342258 2 0 0.0986202 -0.00374993
273 1 21.0824 3.93136 0.512408 4 0.229456 2 0 0.0994487 0.0883037
274 1 20.1339 4.78559 0.352846 3 0.272857 2 0 0.0993078 0.145586
275 1 22.8205 3.63186 1.42135 4 0.22281 2 0 0.0994487 -0.0183985
276 1 21.9406 4.13318 1.31068 3 0.258576 2 0 0.0993996 0.0272053
277 1 22.4705 5.17735 1.27286 3 0.379433 2 0 0.0980064 0.0207081
278 1 22.6119 4.34705 0.510028 3 0.279113 2 0 0.0992633 -0.0221051
279 1 23.5735 3.63903 0.782677 4 0.221835 2 0 0.0994487 0.185562
280 1 24.336 4.32055 0.625018 3 0.263158 2 0 0.0993715 -0.150091
281 1 23.4679 4.54946 1.33355 3 0.297851 2 0 0.0991123 -0.0790543
282 1 24.8518 5.25716 0.566763 3 0.331209 2 0 0.0987634 0.0409089
283 1 23.5518 5.06386 0.533607 3 0.35235 2 0 0.098475 -0.0968876
284 1 25.0086 4.50055 1.62342 3 0.258759 2 0 0.0993985 -0.0421938
285 1 25.0629 3.68037 0.802132 4 0.20103 2 0 0.0994487 -0.187914
286 1 24.363 5.28843 1.43377 3 0.355438 2 0 0.0984276 -0.154708
287 1 25.6904 5.1389 1.34266 3 0.287721 2 0 0.0991974 0.210103
288 1 26.3575 4.29031 1.37159 4 0.202908 2 0 0.0994487 0.149485
289 1 26.5026 4.97257 0.640732 4 0.237196 2 0 0.0994487 0.0989699
290 1 25.5284 4.40089 0.388179 4 0.234169 2 0 0.0994487 0.0559492
291 1 27.3302 4.86961 1.40568 4 0.198833 2 0 0.0994487 0.00661251
292 1 27.9624 3.97641 1.10408 4 0.137041 2 0 0.0994487 -0.3095
293 1 28.2771 4.73475 0.706344 4 0.160092 2 0 0.0994487 -0.081243
294 1 27.0674 4.04323 0.570038 4 0.166115 2 0 0.0994487 0.0120249
295 1 28.9321 3.77016 0.487204 4 0.10995 2 0 0.0994487 -0.00703136
296 1 29.0873 4.52317 1.33085 4 0.129757 2 0 0.0994487 0.0574876
297 1 29.9979 4.07209 1.02303 4 0.101321 2 0 0.0994487 -0.27523
298 1 31.0296 3.97382 0.373364 4 0.0902147 2 0 0.0994487 0.657583
299 1 30.2046 4.67765 0.491317 4 0.11424 2 0 0.0994487 0.00995939
300 1 30.9783 4.59929 1.41131 4 0.102822 2 0 0.0994487 0.679914
301 1 0.908283 5.53205 0.461647 4 0.00132608 2 0 0.0994487 -0.463785
302 1 1.53161 5.51184 1.37971 4 0.00158849 2 0 0.0994487 -0.117387
303 1 0.793684 6.22023 1.2768 4 0.00151458 2 0 0.0994487 -0.703381
304 1 0.257003 6.91734 1.50738 4 0.00153895 2 0 0.0994487 -0.772633
305 1 0.969942 6.9454 0.573423 4 0.00185479 2 0 0.0994487 -0.473533
306 1 1.7053 7.02884 1.23811 4 0.00227734 2 0 0.0994487 0.0665178
307 1 1.89588 6.19966 0.519025 4 0.00210565 2 0 0.0994487 -0.1564
308 1 3.10475 5.61709 1.30057 4 0.00294023 2 0 0.0994487 0.0402524
309 1 2.26359 6.15348 1.40977 4 0.00231609 2 0 0.0994487 0.0408559
310 1 3.25442 6.96226 1.12748 4 0.0043466 2 0 0.0994487 -0.0541239
311 1 2.68177 5.61289 0.273587 4 0.00251182 2 0 0.0994487 -0.0596858
312 1 3.39503 6.28191 0.500536 4 0.00403908 2 0 0.0994487 -0.121444
313 1 4.18979 5.46246 0.325783 4 0.00465529 2 0 0.0994487 0.0310175
314 1 4.93434 5.42873 1.31778 4 0.00663537 2 0 0.0994487 -0.2351
315 1 4.13622 6.09659 1.22779 4 0.0053898 2 0 0.0994487 -0.0893892
316 1 4.82567 6.23357 0.333842 4 0.00737138 2 0 0.0994487 -0.0345762
317 1 4.77312 6.79931 1.15967 4 0.00835345 2 0 0.0994487 -0.305931
318 1 4.00267 7.02511 0.221759 4 0.00607268 2 0 0.0994487 -0.0853443
319 1 5.78575 5.42185 0.301847 4 0.0089569 2 0 0.0994487 0.0125021
320 1 5.6935 6.24342 0.9632 4 0.0106539 2 0 0.0994487 -0.967783
321 1 6.4578 5.98425 1.59671 4 0.0132852 2 0 0.0994487 0.140914
322 1 6.43234 6.86927 1.00965 4 0.0163117 2 0 0.0994487 0.851669
323 1 6.37773 6.04115 0.154639 4 0.012435 2 0 0.0994487 0.111112
324 1 5.54993 7.05206 0.147147 4 0.0114044 2 0 0.0994487 0.036386
325 1 8.21355 5.31419 0.694273 4 0.0224425 2 0 0.0994487 -0.0895916
326 1 7.32761 6.15925 0.754293 4 0.0194689 2 0 0.0994487 0.225732
327 1 7.39163 5.41839 1.49138 4 0.0166037 2 0 0.0994487 0.136753
328 1 8.23884 6.11028 1.49159 4 0.0278085 2 0 0.0994487 0.0187376
329 1 8.01352 6.85364 0.728993 4 0.0310191 2 0 0.0994487 0.0691868
330 1 7.28191 6.86379 1.59601 4 0.0236369 2 1 0.0994487 0.126041
331 1 7.33029 5.3575 0.0461812 4 0.0154171 2 0 0.0994487 0.0813569
332 1 9.76796 5.3194 0.792562 4 0.0371099 2 0 0.0994487 0.328449
333 1 8.88016 6.18865 0.736908 4 0.0355817 2 0 0.0994487 -0.235543
334 1 9.05434 5.3271 1.5973 4 0.0301469 2 0 0.0994487 -0.0628305
335 1 9.73844 6.19052 1.46731 4 0.0477266 2 0 0.0994487 -0.10655
336 1 9.09351 6.95013 1.463 4 0.0481309 2 2 0.0994487 -0.0762124
337 1 9.76329 6.23201 0.0941385 4 0.0468266 2 0 0.0994487 -0.0359517
338 1 8.99733 5.46479 0.012702 4 0.0300662 2 0 0.0994487 -0.134754
339 1 10.5831 6.02196 0.964384 4 0.0580306 2 0 0.0994487 -0.356209
340 1 11.3128 6.37134 0.0776634 4 0.0723976 2 0 0.0994487 0.100343
341 1 10.5187 6.94145 0.15452 4 0.06907 2 0 0.0994487 -0.0735262
342 1 10.4686 6.92564 1.49614 4 0.0727584 2 1 0.0994487 -0.0634969
343 1 11.9994 5.6274 0.183157 4 0.0742811 2 0 0.0994487 -0.0105303
344 1 12.6757 5.81849 0.861776 4 0.0948357 2 0 0.0994487 0.081739
345 1 11.7774 6.20735 1.05291 4 0.0818394 2 0 0.0994487 0.292328
346 1 13.3219 5.86668 1.55471 4 0.112352 2 0 0.0994487 0.208208
347 1 13.3506 6.58297 0.813679 4 0.140111 2 0 0.0994487 -0.29189
348 1 13.3212 5.53867 0.0424813 4 0.105824 2 0 0.0994487 -0.142911
349 1 14.0617 5.71565 0.77266 4 0.133972 2 0 0.0994487 -0.372694
350 1 14.3278 6.65176 1.40646 4 0.187159 2 0 0.0994487 -0.102715
351 1 14.1303 6.38483 0.0380077 4 0.153547 2 0 0.0994487 -0.0826114
352 1 15.0282 5.64393 0.034369 4 0.159915 2 0 0.0994487 0.057362
353 1 15.8305 5.73813 0.95832 4 0.199732 2 0 0.0994487 0.625725
354 1 15.0472 6.45091 0.806774 4 0.203684 2 0 0.0994487 -0.174566
355 1 16.491 6.45257 1.1401 3 0.28097 2 0 0.0992496 0.204698
356 1 15.1058 5.87594 1.69804 4 0.183645 2 0 0.0994487 -0.0977019
357 1 16.62 5.41933 0.276819 4 0.207404 2 0 0.0994487 0.0799191
358 1 15.6753 6.3382 0.0390223 4 0.216195 2 0 0.0994487 0.039799
359 1 17.8271 5.30128 0.541411 4 0.238598 2 0 0.0994487 0.150325
360 1 17.113 5.42499 1.24767 4 0.229071 2 0 0.0994487 -0.28658
361 1 17.0619 6.27419 0.411469 3 0.282876 2 0 0.0992352 0.13898
362 1 17.6649 6.24649 1.38542 3 0.315405 2 0 0.0989431 -0.256354
363 1 18.2745 7.0517 1.13153 3 0.420965 2 0 0.0969986 0.680691
364 1 18.3714 6.23173 0.609762 3 0.339898 2 0 0.0986521 0.156206
365 1 19.429 5.75829 0.62055 3 0.339226 2 0 0.0986611 0.0571856
366 1 19.3279 6.55755 1.35081 3 0.426118 2 0 0.0968429 0.287216
367 1 19.9942 6.75229 0.610261 3 0.509743 2 0 0.0928931 -0.0117267
368 1 20.7494 5.77593 0.653722 3 0.415838 2 0 0.097146 -0.104068
369 1 20.1931 5.61076 1.39557 3 0.361833 2 0 0.0983249 0.312019
370 1 20.7787 6.6124 1.30355 3 0.56464 2 0 0.0880768 -0.344189
371 1 21.6592 6.66248 0.666524 3 0.583265 2 0 0.0858511 -0.0435085
372 1 21.6631 5.87866 1.38528 3 0.481315 2 0 0.0945935 0.0420286
373 1 21.6904 5.73259 0.0517844 3 0.436674 2 0 0.0964988 -0.00150124
374 1 22.6732 5.8279 0.674154 3 0.465033 2 0 0.095383 0.00265949
375 1 22.6319 6.69333 1.20734 3 0.61948 2 0 0.0804379 -0.202466
376 1 23.3484 6.78052 0.267835 3 0.581385 2 0 0.0860915 -0.125368
377 1 23.4822 5.88496 1.30013 3 0.470399 2 0 0.095136 -0.176371
378 1 24.3197 6.56281 1.15825 3 0.514656 2 0 0.0925515 0.173921
379 1 24.1457 6.00685 0.427617 3 0.447587 2 0 0.0961047 0.00243963
380 1 25.6831 5.86213 0.700952 3 0.349918 2 0 0.0985113 0.1639
381 1 25.1124 6.04132 1.67733 3 0.400243 2 0 0.097552 0.00367057
382 1 25.1593 6.74159 0.495153 3 0.46726 2 0 0.095282 0.0903936
383 1 25.8251 6.59457 1.40775 3 0.407687 2 0 0.0973658 0.0881058
384 1 26.6903 5.84511 1.4763 3 0.293452 2 0 0.0991503 0.0917647
385 1 27.4966 5.54334 0.722172 4 0.226564 2 0 0.0994487 -0.251567
386 1 26.7485 6.36567 0.651888 3 0.326601 2 0 0.0988187 0.0387545
387 1 27.7011 6.47315 1.36539 3 0.274164 2 0 0.0992987 0.131497
388 1 28.3648 5.52203 1.4872 4 0.19038 2 0 0.0994487 0.0456352
389 1 27.7097 7.0074 0.530173 3 0.302935 2 0 0.0990663 0.0321276
390 1 29.3889 5.30889 0.818726 4 0.152343 2 0 0.0994487 0.316732
391 1 29.4379 6.18214 1.32212 4 0.178462 2 0 0.0994487 -0.00337902
392 1 29.5784 6.89773 0.506505 4 0.199406 2 0 0.0994487 0.0925894
393 1 28.4685 6.20589 0.638647 4 0.213811 2 0 0.0994487 -0.270075
394 1 29.3762 6.15398 0.0801838 4 0.178919 2 0 0.0994487 0.0969273
395 1 28.4822 5.38976 0.0592959 4 0.177972 2 0 0.0994487 -0.105002
396 1 30.9636 5.36838 0.595026 4 0.126889 2 0 0.0994487 0.667849
397 1 30.2159 5.45949 1.46813 4 0.136655 2 0 0.0994487 0.0540225
398 1 30.3958 6.18258 0.649752 4 0.156662 2 0 0.0994487 0.329003
399 1 31.2189 6.15516 1.38439 4 0.14279 2 0 0.0994487 0.587258
400 1 31.1994 6.95407 0.60342 4 0.165431 2 0 0.0994487 0.812252
401 1 31.7235 5.99622 0.446564 4 0.135088 2 0 0.0994487 0.879729
402 1 0.261851 7.63199 0.661866 4 0.00178274 2 0 0.0994487 -0.876374
403 1 0.831025 8.46344 0.61936 4 0.0022351 2 0 0.0994487 -0.577626
404 1 1.11211 7.86396 1.49711 4 0.00216479 2 0 0.0994487 -0.154428
405 1 0.356955 8.5626 1.47035 4 0.00202654 2 0 0.0994487 -0.764984
406 1 1.59266 7.76478 0.37187 4 0.00252165 2 0 0.0994487 -0.089788
407 1 1.72382 8.61735 1.46471 4 0.00292587 2 0 0.0994487 0.0395968
408 1 2.48799 7.14986 0.476331 4 0.00325653 2 0 0.0994487 -0.0836964
409 1 2.19177 8.6335 0.399707 4 0.00360338 2 0 0.0994487 -0.137268
410 1 2.39416 7.81099 1.27726 4 0.00342841 2 0 0.0994487 0.0869919
411 1 3.01349 8.51445 0.935533 4 0.00500991 2 0 0.0994487 -0.539315
412 1 3.24418 7.77117 0.327041 4 0.00500568 2 0 0.0994487 -0.196205
413 1 3.81243 8.45898 0.0822892 4 0.00672201 2 0 0.0994487 -0.0457788
414 1 3.97971 7.67009 1.24863 4 0.00672217 2 0 0.0994487 -0.0554895
415 1 4.70459 8.25653 0.921772 4 0.00983296 2 0 0.0994487 0.29533
416 1 4.67023 7.63706 0.247803 4 0.00872612 2 0 0.0994487 0.0376913
417 1 3.81127 8.34851 1.76162 4 0.00675255 2 0 0.0994487 -0.0574362
418 1 5.86955 8.34822 0.169905 4 0.0158454 2 0 0.0994487 0.113105
419 1 5.48363 7.59071 1.03232 4 0.0128197 2 0 0.0994487 -0.467667
420 1 6.49365 7.53799 0.169175 4 0.0183516 2 0 0.0994487 0.187623
421 1 6.39674 8.23976 1.04384 4 0.0211802 2 0 0.0994487 0.338124
422 1 7.28583 7.76918 0.746313 4 0.0289931 2 1 0.0994487 0.00992167
423 1 8.2859 8.31376 0.868772 4 0.0486101 2 2 0.0994487 0.27815
424 1 7.27857 8.18368 1.7015 4 0.0340531 2 2 0.0994487 -0.174893
425 1 8.05208 7.48784 1.5604 4 0.0382253 2 1 0.0994487 0.184992
426 1 7.99895 7.60312 0.0282118 4 0.0350115 2 0 0.0994487 0.0674128
427 1 9.84313 7.22199 0.72344 4 0.0640514 2 1 0.0994487 -0.34698
428 1 8.91207 7.61626 0.661731 4 0.0511482 2 1 0.0994487 0.158469
429 1 9.73234 8.61964 0.693151 4 0.0840972 2 3 0.0994487 -0.256952
430 1 9.09265 8.69904 1.44495 4 0.0756356 2 9 0.0994487 -0.393851
431 1 9.64026 7.88932 1.60055 4 0.0781147 2 8 0.0994487 -0.34066
432 1 11.3161 7.14287 0.810636 4 0.0912606 2 1 0.0994487 0.448649
433 1 10.5731 7.9454 0.844311 4 0.092787 2 3 0.0994487 -0.197679
434 1 10.5877 8.70196 1.4255 4 0.111687 1 8 0.0994487 -0.150586
435 1 11.4057 7.80503 1.60301 4 0.118734 2 6 0.0994487 0.226471
436 1 11.227 8.11851 0.0422735 4 0.104064 2 0 0.0994487 0.174341
437 1 12.7061 7.28322 0.565784 4 0.141425 2 0 0.0994487 -0.0534378
438 1 12.178 8.23518 0.590765 4 0.145824 2 2 0.0994487 0.163406
439 1 12.0637 7.15788 1.37768 4 0.116117 2 3 0.0994487 0.142789
440 1 12.0887 8.68064 1.49044 4 0.166786 1 6 0.0994487 0.0739778
441 1 12.8601 7.99585 1.47598 4 0.186545 2 3 0.0994487 -0.22828
442 1 14.3373 7.3542 0.580954 4 0.212624 2 0 0.0994487 0.0668473
443 1 13.6169 8.09282 0.464536 4 0.207722 2 1 0.0994487 0.0264141
444 1 13.458 7.34024 1.34133 4 0.18283 2 1 0.0994487 0.0585158
445 1 14.2471 8.18371 1.35246 3 0.265029 2 0 0.0993597 0.137667
446 1 16.4328 7.18497 0.276798 3 0.322228 2 0 0.098869 -0.0655731
447 1 15.6276 7.3114 0.923132 3 0.295525 2 0 0.0991326 -0.446234
448 1 15.0689 8.29247 0.865596 3 0.317078 2 0 0.0989254 -0.334453
449 1 16.2796 8.16169 1.10434 0 0.393533 1 0 0.0977087 -0.331613
450 1 15.1452 7.52269 1.62484 3 0.299292 2 0 0.0990995 -0.399349
451 1 15.8668 8.31534 0.152632 3 0.363254 2 0 0.0983012 -0.193614