ITEM: TIMESTEP
8500
ITEM: NUMBER OF ATOMS
9495
ITEM: BOX BOUNDS mm mm mm
0.0000000000000000e+00 3.1748021039364001e+01
0.0000000000000000e+00 3.1748021039364001e+01
-7.4072398406925706e-04 3.1748021039364001e+01
ITEM: ATOMS id type x y z c_phase c_temp c_surf c_nbond c_visc f_3[1]
1 1 0.116341 1.10259 0.464337 4 1.3176e-16 2 0 0.0994487 -0.681941
2 1 0.974108 1.6685 0.77798 4 9.75463e-16 2 0 0.0994487 -0.517032
3 1 0.714648 0.793562 1.41295 4 2.93989e-16 2 0 0.0994487 -0.281794
4 1 0.00336375 1.60273 1.37437 4 1.77434e-16 2 0 0.0994487 -0.804051
5 1 0.729896 0.0633724 0.61602 4 1.3494e-16 3 0 0.0994487 -0.190374
6 1 1.71015 0.808983 1.0155 4 1.88528e-15 2 0 0.0994487 -0.33207
7 1 1.80059 1.47468 0.221075 4 2.71535e-15 2 0 0.0994487 -0.125829
8 1 1.82015 1.66049 1.76126 4 3.63262e-15 2 0 0.0994487 -0.139533
9 1 2.52093 0.749102 0.203812 4 5.4223e-15 2 0 0.0994487 -0.14294
10 1 2.59149 0.0538711 1.03726 4 4.16068e-15 2 0 0.0994487 -0.295005
11 1 2.64922 1.541 0.882848 4 1.5998e-14 2 0 0.0994487 0.235751
12 1 2.66829 0.815502 1.7457 4 8.06191e-15 2 0 0.0994487 -0.187041
13 1 3.43386 0.933692 0.956349 4 3.96313e-14 2 0 0.0994487 0.320237
14 1 3.49924 0.0925696 1.70571 4 1.59528e-14 2 0 0.0994487 0.178053
15 1 3.60652 1.70798 1.71994 4 8.10337e-14 2 0 0.0994487 0.0487939
16 1 4.10576 0.858321 0.325305 4 1.04853e-13 2 0 0.0994487 0.153145
17 1 4.96159 0.56786 1.17466 4 3.99672e-13 2 0 0.0994487 -0.0370691
18 1 4.91949 1.59987 0.383508 4 8.00197e-13 2 0 0.0994487 -0.10025
19 1 4.3472 0.941527 1.62884 4 1.6359e-13 2 0 0.0994487 0.110736
20 1 3.47612 0.111428 0.171027 4 1.37449e-14 2 0 0.0994487 0.166215
21 1 5.64741 0.645627 0.325839 4 1.19884e-12 2 0 0.0994487 -0.0806062
22 1 5.88414 1.31048 0.938036 4 3.27281e-12 2 0 0.0994487 -0.199597
23 1 6.57478 1.39104 0.218369 4 9.38263e-12 2 0 0.0994487 -0.0861355
24 1 5.78374 0.460658 1.69897 4 1.14831e-12 2 0 0.0994487 -0.084654
25 1 5.03122 1.72414 1.43602 4 1.02249e-12 2 0 0.0994487 0.0453697
26 1 6.7138 0.39031 0.865278 4 5.60741e-12 2 0 0.0994487 -0.0793836
27 1 6.69104 1.00962 1.69374 4 7.48547e-12 2 0 0.0994487 -0.107925
28 1 8.2679 0.408875 1.07337 4 5.38171e-11 2 0 0.0994487 -0.100169
29 1 7.36782 1.22285 0.954198 4 2.99453e-11 2 0 0.0994487 -0.302564
30 1 8.24709 1.39092 0.236779 4 1.09769e-10 2 0 0.0994487 -0.0460667
31 1 8.12868 1.27217 1.60653 4 8.48207e-11 2 0 0.0994487 -0.00811943
32 1 7.58247 0.647807 0.140287 4 2.16404e-11 2 0 0.0994487 -0.110937
33 1 8.85849 0.508506 0.273966 4 1.16454e-10 2 0 0.0994487 -0.0616482
34 1 9.55301 0.3386 0.888639 4 2.94137e-10 2 0 0.0994487 0.0050611
35 1 9.02586 1.30716 1.1133 4 3.46842e-10 2 0 0.0994487 -0.0606544
37 1 9.63995 1.37474 0.0900752 4 6.06357e-10 2 0 0.0994487 0.0992893
38 1 11.2128 0.215893 0.632658 4 2.38727e-09 2 0 0.0994487 0.2035
39 1 10.3637 1.04743 0.823114 4 1.64279e-09 2 0 0.0994487 0.539878
40 1 10.523 0.196295 1.44539 4 9.16023e-10 2 0 0.0994487 0.0644264
41 1 11.2856 1.01846 1.41785 4 5.78043e-09 2 0 0.0994487 0.164702
42 1 10.5797 1.67706 1.72992 4 3.71521e-09 2 0 0.0994487 0.118161
43 1 10.2431 0.367861 0.0780499 4 4.99016e-10 2 0 0.0994487 0.149799
44 1 12.8757 0.211714 0.636805 4 2.03114e-08 2 0 0.0994487 0.0587844
45 1 12.0457 1.07408 0.506655 4 1.70682e-08 2 0 0.0994487 -0.0235556
46 1 12.1319 0.316439 1.29957 4 9.23538e-09 2 0 0.0994487 0.0188325
47 1 12.7194 1.19864 1.3723 4 4.44056e-08 2 0 0.0994487 -0.030534
48 1 14.3729 0.318493 0.764646 4 1.2699e-07 2 0 0.0994487 -0.046041
49 1 13.5924 1.113 0.843618 4 1.22879e-07 2 0 0.0994487 -0.263061
50 1 14.0399 1.55958 0.167469 4 2.73655e-07 2 0 0.0994487 -0.0898278
51 1 13.6075 0.359834 1.6352 4 4.98643e-08 2 0 0.0994487 -0.0562662
52 1 14.3777 1.14948 1.47647 4 2.62277e-07 2 0 0.0994487 -0.0178316
53 1 14.8761 1.55337 0.662943 4 6.96306e-07 2 0 0.0994487 0.38994
54 1 15.7061 0.770636 0.788259 4 7.66459e-07 2 0 0.0994487 0.366478
55 1 16.5532 1.54451 0.681338 4 4.06834e-06 2 0 0.0994487 0.0007988
56 1 15.1422 0.4642 1.64149 4 2.7766e-07 2 0 0.0994487 0.152075
57 1 16.547 0.712289 1.3421 4 1.75505e-06 2 0 0.0994487 0.0956219
58 1 15.6341 1.48544 1.3916 4 1.51332e-06 2 0 0.0994487 0.153625
59 1 15.1049 0.711806 0.0677822 4 2.68438e-07 2 0 0.0994487 0.169201
60 1 17.2544 0.732268 0.547589 4 2.99243e-06 2 0 0.0994487 0.028627
61 1 17.9231 1.58109 0.757246 4 1.35725e-05 2 0 0.0994487 0.0415583
62 1 17.916 0.742935 1.42801 4 5.62751e-06 2 0 0.0994487 -0.22438
63 1 17.2202 1.74884 1.56274 4 9.53267e-06 2 0 0.0994487 -0.0984876
64 1 19.5372 0.0167772 0.662766 4 6.18194e-06 2 0 0.0994487 0.043643
65 1 18.7918 0.725074 0.684829 4 9.17501e-06 2 0 0.0994487 -0.269947
66 1 19.5395 1.55488 0.841653 4 3.64408e-05 2 0 0.0994487 -0.341164
67 1 19.0276 0.158607 1.54508 4 5.71938e-06 2 0 0.0994487 -0.158665
68 1 19.5934 0.967491 1.68957 4 1.77404e-05 2 0 0.0994487 0.00834951
69 1 18.6564 1.51302 1.50035 4 2.07604e-05 2 0 0.0994487 -0.250311
70 1 21.0889 0.349843 1.06749 4 1.72656e-05 2 0 0.0994487 -0.196127
71 1 20.2493 0.776373 0.980057 4 2.08361e-05 2 0 0.0994487 -0.0497631
72 1 21.1062 1.65725 0.951506 4 7.42651e-05 2 0 0.0994487 0.692912
73 1 21.1874 0.765598 0.218806 4 2.35305e-05 2 0 0.0994487 -0.044591
74 1 20.3457 1.51479 0.193617 4 4.43184e-05 2 0 0.0994487 -0.0806028
75 1 22.0087 0.262534 0.539755 4 1.74671e-05 2 0 0.0994487 0.0993591
76 1 22.7913 0.430275 1.40734 4 2.29389e-05 2 0 0.0994487 0.206599
77 1 22.1105 1.14763 1.32981 4 4.77924e-05 2 0 0.0994487 0.240022
78 1 21.9982 1.59955 0.538558 4 8.37076e-05 2 0 0.0994487 0.185171
79 1 22.9157 1.07463 0.445168 4 4.49954e-05 2 0 0.0994487 0.0520843
80 1 24.228 0.380179 1.45209 4 2.15039e-05 2 0 0.0994487 0.0576169
81 1 23.5672 0.357563 0.57369 4 2.16707e-05 2 0 0.0994487 0.0385709
82 1 24.4367 1.18687 0.754729 4 5.33387e-05 2 0 0.0994487 -0.0192953
83 1 23.4757 1.2499 1.4028 4 6.21617e-05 2 0 0.0994487 0.0298772
84 1 24.955 0.315686 0.551996 4 1.71564e-05 2 0 0.0994487 -0.0171982
85 1 26.0085 0.383365 1.1715 4 1.32727e-05 2 0 0.0994487 -0.185859
86 1 25.169 1.12579 1.48087 4 4.22517e-05 2 0 0.0994487 0.0251059
87 1 25.9301 1.73476 1.35794 4 6.53005e-05 2 0 0.0994487 0.034538
88 1 25.8917 0.929212 0.432102 4 2.35589e-05 2 0 0.0994487 -0.0954186
89 1 27.5736 1.28032 0.38906 4 1.25286e-05 2 0 0.0994487 0.0454501
90 1 27.6142 0.50928 0.874321 4 6.06688e-06 2 0 0.0994487 0.175388
91 1 26.7559 1.02809 1.26347 4 1.72953e-05 2 0 0.0994487 -0.236883
92 1 28.3748 0.337482 1.39813 4 2.84382e-06 2 0 0.0994487 0.00984521
93 1 26.7925 0.240345 0.226621 4 6.37747e-06 2 0 0.0994487 0.0380753
94 1 28.6489 1.24263 0.742341 4 5.88925e-06 2 0 0.0994487 0.102407
95 1 29.3912 0.945639 1.56878 4 2.12087e-06 2 0 0.0994487 -0.0191999
96 1 28.5228 1.71921 1.49749 4 9.83684e-06 2 0 0.0994487 -0.0429797
97 1 29.8133 0.173958 1.46124 4 7.11127e-07 2 0 0.0994487 0.133416
98 1 29.2734 0.3547 0.615275 4 1.30808e-06 2 0 0.0994487 -0.0816806
99 1 31.5874 0.266128 1.25663 4 1.29017e-07 3 0 0.0994487 0.830096
100 1 30.7016 0.49015 0.470738 4 4.11514e-07 2 0 0.0994487 0.354852
101 1 30.1009 1.19877 0.774133 4 1.52454e-06 2 0 0.0994487 0.210921
102 1 30.8649 0.971942 1.39386 4 6.133e-07 2 0 0.0994487 0.703282
103 1 1.11081 2.43607 0.129285 4 1.53319e-15 2 0 0.0994487 -0.0373225
104 1 0.133403 2.3821 0.812241 4 4.25503e-16 2 0 0.0994487 -0.984517
105 1 1.28845 3.23764 0.949187 4 5.71129e-15 2 0 0.0994487 0.222088
106 1 1.13977 2.36077 1.59162 4 2.13113e-15 2 0 0.0994487 -0.22219
107 1 0.386685 3.02999 1.54944 4 1.00237e-15 2 0 0.0994487 -0.671256
108 1 0.332248 3.09582 0.131296 4 7.38961e-16 2 0 0.0994487 -0.59134
109 1 1.90972 2.41867 0.78376 4 8.51929e-15 2 0 0.0994487 0.078207
110 1 2.65852 3.28029 0.860875 4 6.58077e-14 2 0 0.0994487 0.0668016
111 1 2.66931 2.22918 1.53373 4 2.68676e-14 2 0 0.0994487 0.0829539
112 1 3.2579 3.42668 1.64938 4 1.85943e-13 2 0 0.0994487 0.00397365
113 1 2.7261 2.38168 0.0557193 4 2.14394e-14 2 0 0.0994487 0.1466
114 1 3.38195 2.55413 0.779289 4 1.25337e-13 2 0 0.0994487 0.211581
115 1 4.00679 1.841 0.711184 4 2.18029e-13 2 0 0.0994487 -0.0361261
116 1 4.91383 2.57277 0.815661 4 1.81739e-12 2 0 0.0994487 -0.259354
117 1 4.20148 3.3175 0.749446 4 9.4181e-13 2 0 0.0994487 0.00621328
118 1 4.13245 2.64107 1.58328 4 4.59379e-13 2 0 0.0994487 0.0270759
119 1 5.65047 2.44269 0.132743 4 4.59787e-12 2 0 0.0994487 -0.189927
120 1 6.55776 2.18062 0.772597 4 1.90725e-11 2 0 0.0994487 -0.2894
121 1 5.64874 3.19593 0.952489 4 9.68315e-12 2 0 0.0994487 -0.754642
122 1 5.861 2.19426 1.49672 4 5.74177e-12 2 0 0.0994487 0.0126337
123 1 6.52037 3.06691 1.5557 4 3.27809e-11 2 0 0.0994487 0.0443554
124 1 6.65033 2.92778 0.134227 4 3.01803e-11 2 0 0.0994487 0.0288851
125 1 7.45405 2.22586 0.139832 4 6.96091e-11 2 0 0.0994487 -0.0535047
126 1 8.08209 2.20208 0.930382 4 2.03875e-10 2 0 0.0994487 -0.302094
127 1 7.40132 3.06835 0.934051 4 1.49391e-10 2 0 0.0994487 -0.0455512
128 1 7.29928 2.06035 1.56856 4 4.97036e-11 2 0 0.0994487 -0.0607349
129 1 8.18545 3.00183 1.65211 4 4.10427e-10 2 0 0.0994487 -0.0454181
130 1 8.26934 2.9712 0.0392146 4 4.25573e-10 2 0 0.0994487 -0.150619
131 1 8.90393 2.08699 0.252387 4 5.06967e-10 2 0 0.0994487 0.00243018
132 1 9.77243 2.0246 1.10996 4 1.90601e-09 2 0 0.0994487 0.173451
133 1 8.92671 2.97262 0.928693 4 1.37198e-09 2 0 0.0994487 -0.156784
134 1 9.03062 2.22066 1.70398 4 7.30088e-10 2 0 0.0994487 -0.0819703
135 1 9.56096 2.90576 0.21312 4 2.57099e-09 2 0 0.0994487 0.173117
136 1 10.2834 2.1137 0.214297 4 2.96555e-09 2 0 0.0994487 0.337736
137 1 11.1583 1.82604 0.771092 4 1.0628e-08 2 0 0.0994487 0.260081
138 1 10.6214 2.80819 0.921535 4 1.2947e-08 2 0 0.0994487 0.541906
139 1 11.4444 2.82964 1.57484 4 3.91783e-08 2 0 0.0994487 0.095194
140 1 12.6737 1.94118 0.593851 4 9.37723e-08 2 0 0.0994487 -0.283941
141 1 11.928 2.64099 0.742299 4 6.59474e-08 2 0 0.0994487 -0.0386817
142 1 11.9239 1.9206 1.46509 4 3.18105e-08 2 0 0.0994487 0.0946474
143 1 12.8449 3.01766 1.68597 4 2.68519e-07 2 0 0.0994487 0.0363519
144 1 13.1791 3.03035 0.848852 4 4.77933e-07 2 0 0.0994487 -0.440872
145 1 13.3784 1.9912 1.48064 4 2.05926e-07 2 0 0.0994487 -0.0150749
146 1 14.0206 2.44438 0.927124 4 7.32208e-07 2 0 0.0994487 -0.133126
147 1 14.0279 3.38359 1.55716 4 1.64951e-06 2 0 0.0994487 0.0255691
148 1 14.6961 3.43698 0.884932 4 3.9753e-06 2 0 0.0994487 -0.333005
149 1 14.7823 2.29758 1.44821 4 1.3966e-06 2 0 0.0994487 0.0469226
150 1 14.8418 2.51505 0.136557 4 1.6243e-06 2 0 0.0994487 0.173001
151 1 14.1591 3.2262 0.0325348 4 1.54935e-06 2 0 0.0994487 -0.246109
152 1 13.4137 2.29398 0.0590902 4 2.79096e-07 2 0 0.0994487 -0.280965
153 1 15.6993 2.44373 0.692668 4 4.31754e-06 2 0 0.0994487 0.364382
154 1 16.3029 3.20095 0.662084 4 1.66991e-05 2 0 0.0994487 0.328579
155 1 16.308 2.47951 1.52575 4 8.82602e-06 2 0 0.0994487 -0.100652
156 1 15.3694 3.25723 1.50191 4 6.92772e-06 2 0 0.0994487 -0.00767447
157 1 15.5706 3.25854 0.0192499 4 5.9852e-06 2 0 0.0994487 0.290235
158 1 17.0646 2.35032 0.682778 4 1.54656e-05 2 0 0.0994487 0.0234753
159 1 17.944 2.92608 0.699539 4 6.16875e-05 2 0 0.0994487 -0.231196
160 1 18.0193 2.43917 1.58112 4 3.8049e-05 2 0 0.0994487 -0.149139
161 1 17.0918 3.1162 1.49491 4 3.58186e-05 2 0 0.0994487 -0.143441
162 1 18.8908 2.35742 1.01358 4 6.40017e-05 2 0 0.0994487 -0.516832
163 1 19.7027 3.2427 1.27782 4 0.000258881 2 0 0.0994487 0.394877
164 1 18.884 2.99607 0.196019 4 0.000114068 2 0 0.0994487 -0.17181
165 1 19.587 2.34239 0.101452 4 8.06988e-05 2 0 0.0994487 -0.132371
166 1 20.3251 1.78863 1.72442 4 5.76147e-05 2 0 0.0994487 0.0449521
167 1 21.1565 2.41663 0.458355 4 0.000186518 2 0 0.0994487 0.196187
168 1 20.1948 2.46882 1.11433 4 0.000137103 2 0 0.0994487 0.286739
169 1 21.31 3.29463 1.39314 4 0.000598565 2 0 0.0994487 0.0777279
170 1 20.4222 2.99313 0.334941 4 0.00026001 2 0 0.0994487 0.186289
171 1 22.8719 2.07007 1.50872 4 0.000174488 2 0 0.0994487 -0.0221235
172 1 22.9717 2.60199 0.735523 4 0.000375109 2 0 0.0994487 0.133327
173 1 22.0961 2.49917 1.23787 4 0.000287293 2 0 0.0994487 0.186437
174 1 21.9898 3.20043 0.598797 4 0.000661542 2 0 0.0994487 -0.0757512
175 1 22.6771 3.40124 0.07601 4 0.000806498 2 0 0.0994487 0.0760734
176 1 23.7438 1.80844 0.624025 4 0.000120918 2 0 0.0994487 -0.0873588
177 1 24.4289 1.98763 1.61102 4 0.000140101 2 0 0.0994487 -0.064175
178 1 24.342 2.68296 0.775192 4 0.000342291 2 0 0.0994487 -0.341091
179 1 23.6887 2.90303 1.53628 4 0.000481358 2 0 0.0994487 -0.110504
180 1 24.4728 3.51078 1.55704 4 0.000875399 2 0 0.0994487 -0.118304
181 1 24.9562 2.84566 0.0146836 4 0.000279907 2 0 0.0994487 -0.086459
182 1 26.5483 1.79415 0.511367 4 4.71132e-05 2 0 0.0994487 -0.00559851
183 1 25.1322 1.85613 0.509414 4 0.000100442 2 0 0.0994487 -0.0215279
184 1 25.7918 2.61203 0.707489 4 0.000199606 2 0 0.0994487 0.228205
185 1 25.1579 2.55548 1.52547 4 0.000234969 2 0 0.0994487 0.0576681
186 1 25.7213 3.49812 1.51211 4 0.000563318 2 0 0.0994487 0.123859
187 1 26.5364 2.56002 1.53049 4 0.000118555 2 0 0.0994487 0.0579493
188 1 26.1686 3.50068 0.599043 4 0.000443921 2 0 0.0994487 0.168848
189 1 27.5039 1.98546 1.23792 4 3.1061e-05 2 0 0.0994487 -0.186416
190 1 28.2489 2.09022 0.343734 4 1.79141e-05 2 0 0.0994487 -0.017724
191 1 27.0867 2.6924 0.645359 4 9.49837e-05 2 0 0.0994487 -0.105598
192 1 27.1998 3.35397 1.41682 4 0.000176817 2 0 0.0994487 -0.0983257
193 1 28.2537 2.75799 1.20639 4 3.87534e-05 2 0 0.0994487 -0.418303
194 1 27.982 3.21993 0.326384 4 7.13053e-05 2 0 0.0994487 -0.125256
195 1 29.9568 1.80906 1.70764 4 2.95088e-06 2 0 0.0994487 0.183201
196 1 29.4477 2.04702 0.879698 4 6.62742e-06 2 0 0.0994487 -0.00708023
197 1 29.1956 2.6589 0.290703 4 1.35245e-05 2 0 0.0994487 -0.0578274
198 1 29.2495 3.2651 1.17365 4 2.52441e-05 2 0 0.0994487 0.118639
199 1 30.9114 1.98502 0.924207 4 1.66581e-06 2 0 0.0994487 0.967251
200 1 30.1815 2.71094 1.00186 4 6.01909e-06 2 0 0.0994487 0.67511
201 1 31.0247 3.35309 0.97101 4 4.75206e-06 2 0 0.0994487 0.998409
202 1 30.9865 2.69483 1.72648 4 2.52212e-06 2 0 0.0994487 0.578501
203 1 30.1092 3.25953 0.132205 4 8.2517e-06 2 0 0.0994487 -0.0443653
204 1 30.4116 1.90909 0.0255368 4 1.87567e-06 2 0 0.0994487 0.106045
205 1 31.1434 2.66402 0.0761253 4 1.95036e-06 2 0 0.0994487 0.70882
206 1 0.293831 3.78503 0.918557 4 1.56067e-15 2 0 0.0994487 -0.999347
207 1 0.143046 4.59443 0.482118 4 1.88172e-15 2 0 0.0994487 -0.784494
208 1 1.14036 4.67093 0.986638 4 1.2163e-14 2 0 0.0994487 -0.516754
209 1 0.0884667 5.26681 1.27761 4 2.53116e-15 2 0 0.0994487 -0.887458
210 1 1.04069 3.86421 0.0595682 4 4.49753e-15 2 0 0.0994487 0.0148877
211 1 1.84117 4.04604 0.847105 4 2.83982e-14 2 0 0.0994487 0.00826517
212 1 2.54049 4.85585 1.13748 4 1.63801e-13 2 0 0.0994487 -0.333849
213 1 2.64953 4.14475 0.20674 4 1.11927e-13 2 0 0.0994487 -0.0285729
214 1 1.89758 4.96895 0.278386 4 5.29448e-14 2 0 0.0994487 -0.153434
215 1 3.40771 4.86189 0.161635 4 6.52393e-13 2 0 0.0994487 -0.0163892
216 1 3.494 4.07675 0.885909 4 5.04917e-13 2 0 0.0994487 0.0268885
217 1 4.91235 4.00001 1.18344 4 5.3113e-12 2 0 0.0994487 0.0115016
218 1 4.04658 4.88002 1.14639 4 2.28981e-12 2 0 0.0994487 0.264486
219 1 4.26027 4.18509 0.149001 4 1.66385e-12 2 0 0.0994487 0.037737
220 1 5.00947 4.74001 0.341082 4 9.19403e-12 2 0 0.0994487 0.0765377
221 1 5.77735 3.9378 0.198707 4 1.54801e-11 2 0 0.0994487 0.0260143
222 1 6.48883 3.76611 0.772067 4 5.64161e-11 2 0 0.0994487 0.204548
223 1 5.68025 4.73638 1.02487 4 3.22747e-11 2 0 0.0994487 -0.621709
224 1 6.66321 4.5115 1.6428 4 1.15077e-10 2 0 0.0994487 0.158931
225 1 6.68072 5.1315 0.885352 4 2.13479e-10 2 0 0.0994487 0.206844
226 1 8.1982 3.892 0.700757 4 9.8419e-10 2 0 0.0994487 -0.369908
227 1 7.40842 4.46072 0.5468 4 4.10327e-10 2 0 0.0994487 -0.0252163
228 1 7.39886 3.87029 1.49684 4 2.51616e-10 2 0 0.0994487 0.102574
229 1 8.20004 4.61106 1.48677 4 1.579e-09 2 0 0.0994487 -0.0118414
230 1 9.8976 3.57792 0.885667 4 9.31859e-09 2 0 0.0994487 0.592737
231 1 9.07913 4.56551 0.821335 4 5.93205e-09 2 0 0.0994487 -0.658556
232 1 9.86266 4.50302 0.126324 4 1.34771e-08 2 0 0.0994487 0.0958622
233 1 9.07829 3.76256 1.49819 4 3.19342e-09 2 0 0.0994487 -0.0708894
234 1 9.86881 4.3462 1.65532 4 1.553e-08 2 0 0.0994487 -0.0856664
235 1 8.98541 3.86821 0.0631775 4 2.50815e-09 2 0 0.0994487 -0.138756
236 1 11.408 3.64493 0.778297 4 8.11092e-08 2 0 0.0994487 0.202057
237 1 10.5891 4.66652 0.906264 4 5.85865e-08 2 0 0.0994487 0.045045
238 1 11.3867 4.69403 0.230734 4 1.6587e-07 2 0 0.0994487 -0.0498953
239 1 10.7059 3.56689 1.58785 4 2.79589e-08 2 0 0.0994487 -0.0448547
240 1 11.3652 4.3716 1.70545 4 1.26637e-07 2 0 0.0994487 -0.0798334
241 1 11.3894 5.27213 0.983682 4 2.74432e-07 2 0 0.0994487 -0.6745
242 1 10.5826 3.84888 0.176129 4 2.49582e-08 2 0 0.0994487 0.210463
243 1 12.5168 3.57716 0.814749 4 3.36179e-07 2 0 0.0994487 -0.0105878
244 1 12.1916 4.55033 1.00021 4 4.84701e-07 2 0 0.0994487 0.105008
245 1 12.7362 4.99738 1.68903 4 1.14817e-06 2 0 0.0994487 0.191323
246 1 13.2258 4.67863 0.80017 4 2.05335e-06 2 0 0.0994487 -0.00472814
247 1 12.6435 4.61885 0.0632315 4 8.33047e-07 2 0 0.0994487 -0.0335853
248 1 13.9891 4.12825 0.69648 4 3.33913e-06 2 0 0.0994487 -0.430193
249 1 13.4832 4.21781 1.59317 4 1.73536e-06 2 0 0.0994487 0.0820105
250 1 14.2046 5.11838 1.52001 4 9.1346e-06 2 0 0.0994487 -0.0290003
251 1 14.9402 5.01141 0.811699 4 1.95568e-05 2 0 0.0994487 -0.0529055
252 1 14.9642 4.4167 1.59432 4 1.19041e-05 2 0 0.0994487 -0.0635684
253 1 14.1405 4.90647 0.0597868 4 6.385e-06 2 0 0.0994487 -0.0857006
254 1 14.961 4.19423 0.096508 4 8.66513e-06 2 0 0.0994487 0.0322678
255 1 15.6685 4.06642 0.926277 4 1.97538e-05 2 0 0.0994487 0.872555
256 1 15.8798 4.77595 0.186426 4 3.9554e-05 2 0 0.0994487 0.165383
257 1 16.5936 4.58036 0.900182 4 8.18808e-05 2 0 0.0994487 -0.0790274
258 1 16.3184 3.95875 1.6903 4 3.48751e-05 2 0 0.0994487 -0.0434027
259 1 15.8111 5.05317 1.64084 4 4.67316e-05 2 0 0.0994487 0.0994937
260 1 17.2689 3.83372 0.811237 4 8.3722e-05 2 0 0.0994487 -0.345394
261 1 18.0864 4.48855 1.09806 4 0.000295106 2 0 0.0994487 -0.61221
262 1 17.9525 3.63794 1.65602 4 0.000120737 2 0 0.0994487 -0.19281
263 1 17.4569 4.57727 0.0147963 4 0.000141167 2 0 0.0994487 -0.0974123
264 1 18.1348 3.8547 0.0583493 4 0.000142533 2 0 0.0994487 -0.120519
265 1 18.8779 3.70667 0.95022 4 0.000255486 2 0 0.0994487 0.0692073
266 1 18.8235 4.60949 0.361826 4 0.000529339 2 0 0.0994487 0.115606
267 1 19.6906 4.67872 1.0803 4 0.00125212 2 0 0.0994487 0.931539
268 1 18.7859 5.27693 1.20102 4 0.00107505 2 0 0.0994487 0.599136
269 1 19.5987 3.76722 0.227421 4 0.00038545 2 0 0.0994487 0.164268
270 1 20.4384 3.82188 1.23329 4 0.000778927 2 0 0.0994487 0.325951
271 1 20.8846 4.71868 1.39403 4 0.00280953 2 0 0.0994487 0.149056
272 1 21.5775 4.95128 0.810455 4 0.00503649 2 0 0.0994487 -0.00375488
273 1 21.0824 3.93136 0.512408 4 0.00116509 2 0 0.0994487 0.0883018
274 1 20.1339 4.78559 0.352846 4 0.00174608 2 0 0.0994487 0.145584
275 1 22.8205 3.63186 1.42135 4 0.00124569 2 0 0.0994487 -0.0183995
276 1 21.9406 4.13318 1.31068 4 0.0020824 2 0 0.0994487 0.0272035
277 1 22.4705 5.17735 1.27286 4 0.00803965 2 0 0.0994487 0.0207072
278 1 22.6119 4.34705 0.510028 4 0.00286276 2 0 0.0994487 -0.022106
279 1 23.5735 3.63903 0.782677 4 0.00130652 2 0 0.0994487 0.18556
280 1 24.336 4.32055 0.625018 4 0.00254417 2 0 0.0994487 -0.150092
281 1 23.4679 4.54946 1.33355 4 0.00392274 2 0 0.0994487 -0.079055
282 1 24.8518 5.25716 0.566763 4 0.00547781 2 0 0.0994487 0.0409094
283 1 23.5518 5.06386 0.533607 4 0.00666217 2 0 0.0994487 -0.0968879
284 1 25.0086 4.50055 1.62342 4 0.0023548 2 0 0.0994487 -0.0421937
285 1 25.0629 3.68037 0.802132 4 0.000943864 2 0 0.0994487 -0.187914
286 1 24.363 5.28843 1.43377 4 0.00734904 2 0 0.0994487 -0.154707
287 1 25.6904 5.1389 1.34266 4 0.00330199 2 0 0.0994487 0.210104
288 1 26.3575 4.29031 1.37159 4 0.000912503 2 0 0.0994487 0.149485
289 1 26.5026 4.97257 0.640732 4 0.00154253 2 0 0.0994487 0.0989705
290 1 25.5284 4.40089 0.388179 4 0.00157504 2 0 0.0994487 0.0559494
291 1 27.3302 4.86961 1.40568 4 0.000732614 2 0 0.0994487 0.00661307
292 1 27.9624 3.97641 1.10408 4 0.000176416 2 0 0.0994487 -0.3095
293 1 28.2771 4.73475 0.706344 4 0.000265612 2 0 0.0994487 -0.0812422
294 1 27.0674 4.04323 0.570038 4 0.000402971 2 0 0.0994487 0.0120254
295 1 28.9321 3.77016 0.487204 4 5.37395e-05 2 0 0.0994487 -0.00703102
296 1 29.0873 4.52317 1.33085 4 9.66765e-05 2 0 0.0994487 0.0574882
297 1 29.9979 4.07209 1.02303 4 2.38101e-05 2 0 0.0994487 -0.275231
298 1 31.0296 3.97382 0.373364 4 7.20405e-06 2 0 0.0994487 0.657583
299 1 30.2046 4.67765 0.491317 4 3.15197e-05 2 0 0.0994487 0.00995974
300 1 30.9783 4.59929 1.41131 4 1.27408e-05 2 0 0.0994487 0.679915
301 1 0.908283 5.53205 0.461647 4 1.30421e-14 2 0 0.0994487 -0.463785
302 1 1.53161 5.51184 1.37971 4 3.72658e-14 2 0 0.0994487 -0.117388
303 1 0.793684 6.22023 1.2768 4 1.50942e-14 2 0 0.0994487 -0.703381
304 1 0.257003 6.91734 1.50738 4 7.52178e-15 2 0 0.0994487 -0.772633
305 1 0.969942 6.9454 0.573423 4 3.12367e-14 2 0 0.0994487 -0.473533
306 1 1.7053 7.02884 1.23811 4 1.14658e-13 2 0 0.0994487 0.0665169
307 1 1.89588 6.19966 0.519025 4 1.1507e-13 2 0 0.0994487 -0.156401
308 1 3.10475 5.61709 1.30057 4 6.91936e-13 2 0 0.0994487 0.040251
309 1 2.26359 6.15348 1.40977 4 1.89843e-13 2 0 0.0994487 0.0408551
310 1 3.25442 6.96226 1.12748 4 2.09025e-12 2 0 0.0994487 -0.0541257
311 1 2.68177 5.61289 0.273587 4 3.16707e-13 2 0 0.0994487 -0.0596867
312 1 3.39503 6.28191 0.500536 4 1.87027e-12 2 0 0.0994487 -0.121447
313 1 4.18979 5.46246 0.325783 4 3.99579e-12 2 0 0.0994487 0.0310157
314 1 4.93434 5.42873 1.31778 4 1.60411e-11 2 0 0.0994487 -0.235103
315 1 4.13622 6.09659 1.22779 4 6.41855e-12 2 0 0.0994487 -0.0893913
316 1 4.82567 6.23357 0.333842 4 1.94057e-11 2 0 0.0994487 -0.0345782
317 1 4.77312 6.79931 1.15967 4 3.02637e-11 2 0 0.0994487 -0.305934
318 1 4.00267 7.02511 0.221759 4 7.23393e-12 2 0 0.0994487 -0.0853455
319 1 5.78575 5.42185 0.301847 4 5.25577e-11 2 0 0.0994487 0.0124999
320 1 5.6935 6.24342 0.9632 4 9.30066e-11 2 0 0.0994487 -0.967783
321 1 6.4578 5.98425 1.59671 4 2.49221e-10 2 0 0.0994487 0.140911
322 1 6.43234 6.86927 1.00965 4 4.76253e-10 2 0 0.0994487 0.851668
323 1 6.37773 6.04115 0.154639 4 1.70621e-10 2 0 0.0994487 0.11111
324 1 5.54993 7.05206 0.147147 4 8.99244e-11 2 0 0.0994487 0.0363846
325 1 8.21355 5.31419 0.694273 4 2.76144e-09 2 0 0.0994487 -0.0896029
326 1 7.32761 6.15925 0.754293 4 1.18829e-09 2 0 0.0994487 0.225724
327 1 7.39163 5.41839 1.49138 4 7.75553e-10 2 0 0.0994487 0.136749
328 1 8.23884 6.11028 1.49159 4 4.89878e-09 2 0 0.0994487 0.0187322
329 1 8.01352 6.85364 0.728993 4 5.52971e-09 2 0 0.0994487 0.0691792
330 1 7.28191 6.86379 1.59601 4 1.81354e-09 2 1 0.0994487 0.126047
331 1 7.33029 5.3575 0.0461812 4 4.99788e-10 2 0 0.0994487 0.0813547
332 1 9.76796 5.3194 0.792562 4 2.69184e-08 2 0 0.0994487 0.32843
333 1 8.88016 6.18865 0.736908 4 1.38918e-08 2 0 0.0994487 -0.235553
334 1 9.05434 5.3271 1.5973 4 9.52868e-09 2 0 0.0994487 -0.0628351
335 1 9.73844 6.19052 1.46731 4 4.98883e-08 2 0 0.0994487 -0.106446
336 1 9.09351 6.95013 1.463 4 3.50513e-08 2 2 0.0994487 -0.0758606
337 1 9.76329 6.23201 0.0941385 4 4.05288e-08 2 0 0.0994487 -0.0359557
338 1 8.99733 5.46479 0.012702 4 7.23205e-09 2 0 0.0994487 -0.134756
339 1 10.5831 6.02196 0.964384 4 1.47826e-07 2 0 0.0994487 -0.35647
340 1 11.3128 6.37134 0.0776634 4 3.2991e-07 2 0 0.0994487 0.100337
341 1 10.5187 6.94145 0.15452 4 1.74913e-07 2 0 0.0994487 -0.0735409
342 1 10.4686 6.92564 1.49614 4 2.40481e-07 2 1 0.0994487 -0.063693
343 1 11.9994 5.6274 0.183157 4 6.43398e-07 2 0 0.0994487 -0.0105369
344 1 12.6757 5.81849 0.861776 4 2.23783e-06 2 0 0.0994487 0.081715
345 1 11.7774 6.20735 1.05291 4 8.45593e-07 2 0 0.0994487 0.292168
346 1 13.3219 5.86668 1.55471 4 4.94297e-06 2 0 0.0994487 0.208158
347 1 13.3506 6.58297 0.813679 4 9.16969e-06 2 0 0.0994487 -0.292144
348 1 13.3212 5.53867 0.0424813 4 3.65773e-06 2 0 0.0994487 -0.142918
349 1 14.0617 5.71565 0.77266 4 1.21865e-05 2 0 0.0994487 -0.372793
350 1 14.3278 6.65176 1.40646 4 3.58753e-05 2 1 0.0994487 -0.103208
351 1 14.1303 6.38483 0.0380077 4 1.55412e-05 2 0 0.0994487 -0.082617
352 1 15.0282 5.64393 0.034369 4 2.84742e-05 2 0 0.0994487 0.057356
353 1 15.8305 5.73813 0.95832 4 9.20515e-05 2 0 0.0994487 0.625751
354 1 15.0472 6.45091 0.806774 4 6.64914e-05 2 0 0.0994487 -0.176113
355 1 16.491 6.45257 1.1401 4 0.000326727 2 0 0.0994487 0.208267
356 1 15.1058 5.87594 1.69804 4 4.74744e-05 2 0 0.0994487 -0.0976668
357 1 16.62 5.41933 0.276819 4 0.000141154 2 0 0.0994487 0.079914
358 1 15.6753 6.3382 0.0390223 4 9.53249e-05 2 0 0.0994487 0.0398429
359 1 17.8271 5.30128 0.541411 4 0.000427939 2 0 0.0994487 0.150321
360 1 17.113 5.42499 1.24767 4 0.000273773 2 0 0.0994487 -0.286589
361 1 17.0619 6.27419 0.411469 4 0.000446321 2 0 0.0994487 0.13894
362 1 17.6649 6.24649 1.38542 4 0.000872726 2 0 0.0994487 -0.254279
363 1 18.2745 7.0517 1.13153 4 0.00269431 2 1 0.0994487 0.630917
364 1 18.3714 6.23173 0.609762 4 0.00160751 2 0 0.0994487 0.156175
365 1 19.429 5.75829 0.62055 4 0.00283766 2 0 0.0994487 0.0571821
366 1 19.3279 6.55755 1.35081 4 0.00539699 2 1 0.0994487 0.274725
367 1 19.9942 6.75229 0.610261 4 0.0104536 2 0 0.0994487 -0.0119211
368 1 20.7494 5.77593 0.653722 4 0.00779602 2 0 0.0994487 -0.104071
369 1 20.1931 5.61076 1.39557 4 0.0047619 2 0 0.0994487 0.312015
370 1 20.7787 6.6124 1.30355 4 0.019394 2 1 0.0994487 -0.344529
371 1 21.6592 6.66248 0.666524 4 0.024977 2 0 0.0994487 -0.0435065
372 1 21.6631 5.87866 1.38528 4 0.0150066 2 0 0.0994487 0.0420917
373 1 21.6904 5.73259 0.0517844 4 0.00906221 2 0 0.0994487 -0.00150195
374 1 22.6732 5.8279 0.674154 4 0.0150964 2 0 0.0994487 0.00265819
375 1 22.6319 6.69333 1.20734 4 0.0387011 2 1 0.0994487 -0.20206
376 1 23.3484 6.78052 0.267835 4 0.029873 2 0 0.0994487 -0.12538
377 1 23.4822 5.88496 1.30013 4 0.0180182 2 0 0.0994487 -0.176404
378 1 24.3197 6.56281 1.15825 4 0.0242234 2 0 0.0994487 0.173516
379 1 24.1457 6.00685 0.427617 4 0.014256 2 0 0.0994487 0.00244018
380 1 25.6831 5.86213 0.700952 4 0.00609769 2 0 0.0994487 0.163901
381 1 25.1124 6.04132 1.67733 4 0.0103268 2 0 0.0994487 0.00367095
382 1 25.1593 6.74159 0.495153 4 0.0156095 2 0 0.0994487 0.0903946
383 1 25.8251 6.59457 1.40775 4 0.00988166 2 0 0.0994487 0.0881068
384 1 26.6903 5.84511 1.4763 4 0.00298089 2 0 0.0994487 0.0917656
385 1 27.4966 5.54334 0.722172 4 0.00109614 2 0 0.0994487 -0.251566
386 1 26.7485 6.36567 0.651888 4 0.00401493 2 0 0.0994487 0.0387558
387 1 27.7011 6.47315 1.36539 4 0.00187671 2 0 0.0994487 0.131498
388 1 28.3648 5.52203 1.4872 4 0.000461973 2 0 0.0994487 0.0456357
389 1 27.7097 7.0074 0.530173 4 0.00241662 2 0 0.0994487 0.0321292
390 1 29.3889 5.30889 0.818726 4 0.000139048 2 0 0.0994487 0.316732
391 1 29.4379 6.18214 1.32212 4 0.000223633 2 0 0.0994487 -0.00337845
392 1 29.5784 6.89773 0.506505 4 0.000285651 2 0 0.0994487 0.0925902
393 1 28.4685 6.20589 0.638647 4 0.000656747 2 0 0.0994487 -0.270074
394 1 29.3762 6.15398 0.0801838 4 0.000202128 2 0 0.0994487 0.0969275
395 1 28.4822 5.38976 0.0592959 4 0.000290816 2 0 0.0994487 -0.105002
396 1 30.9636 5.36838 0.595026 4 2.49898e-05 2 0 0.0994487 0.667848
397 1 30.2159 5.45949 1.46813 4 5.50456e-05 2 0 0.0994487 0.0540228
398 1 30.3958 6.18258 0.649752 4 7.86319e-05 2 0 0.0994487 0.329004
399 1 31.2189 6.15516 1.38439 4 2.8983e-05 2 0 0.0994487 0.587258
400 1 31.1994 6.95407 0.60342 4 4.75779e-05 2 0 0.0994487 0.812253
401 1 31.7235 5.99622 0.446564 4 1.56388e-05 2 0 0.0994487 0.879729
402 1 0.261851 7.63199 0.661866 4 1.21243e-14 2 0 0.0994487 -0.876374
403 1 0.831025 8.46344 0.61936 4 4.35282e-14 2 0 0.0994487 -0.577626
404 1 1.11211 7.86396 1.49711 4 5.0486e-14 2 0 0.0994487 -0.154429
405 1 0.356955 8.5626 1.47035 4 1.75727e-14 2 0 0.0994487 -0.764984
406 1 1.59266 7.76478 0.37187 4 1.31819e-13 2 0 0.0994487 -0.0897886
407 1 1.72382 8.61735 1.46471 4 2.1713e-13 2 0 0.0994487 0.039596
408 1 2.48799 7.14986 0.476331 4 5.70025e-13 2 0 0.0994487 -0.0836977
409 1 2.19177 8.6335 0.399707 4 5.44084e-13 2 0 0.0994487 -0.137269
410 1 2.39416 7.81099 1.27726 4 6.09147e-13 2 0 0.0994487 0.0869906
411 1 3.01349 8.51445 0.935533 4 2.53224e-12 2 0 0.0994487 -0.539318
412 1 3.24418 7.77117 0.327041 4 2.75422e-12 2 0 0.0994487 -0.196206
413 1 3.81243 8.45898 0.0822892 4 7.98353e-12 2 0 0.0994487 -0.0457798
414 1 3.97971 7.67009 1.24863 4 1.05696e-11 2 0 0.0994487 -0.0554912
415 1 4.70459 8.25653 0.921772 4 4.8494e-11 2 0 0.0994487 0.295318
416 1 4.67023 7.63706 0.247803 4 3.00304e-11 2 0 0.0994487 0.0376896
417 1 3.81127 8.34851 1.76162 4 7.96913e-12 2 0 0.0994487 -0.057437
418 1 5.86955 8.34822 0.169905 4 2.71474e-10 2 0 0.0994487 0.113103
419 1 5.48363 7.59071 1.03232 4 1.50978e-10 2 0 0.0994487 -0.467673
420 1 6.49365 7.53799 0.169175 4 5.61107e-10 2 0 0.0994487 0.187621
421 1 6.39674 8.23976 1.04384 4 9.66707e-10 2 0 0.0994487 0.338146
422 1 7.28583 7.76918 0.746313 4 3.10407e-09 2 1 0.0994487 0.00993302
423 1 8.2859 8.31376 0.868772 4 2.05513e-08 2 2 0.0994487 0.278558
424 1 7.27857 8.18368 1.7015 4 4.87327e-09 2 2 0.0994487 -0.174702
425 1 8.05208 7.48784 1.5604 4 9.74411e-09 2 1 0.0994487 0.185023
426 1 7.99895 7.60312 0.0282118 4 5.24088e-09 2 0 0.0994487 0.067411
427 1 9.84313 7.22199 0.72344 4 1.1127e-07 2 1 0.0994487 -0.34697
428 1 8.91207 7.61626 0.661731 4 3.48382e-08 2 1 0.0994487 0.158618
429 1 9.73234 8.61964 0.693151 4 1.91888e-07 2 3 0.0994487 -0.257339
430 1 9.09265 8.69904 1.44495 4 1.03268e-07 2 9 0.0994487 -0.398464
431 1 9.64026 7.88932 1.60055 4 1.62854e-07 2 8 0.0994487 -0.341476
432 1 11.3161 7.14287 0.810636 4 8.00745e-07 2 1 0.0994487 0.44839
433 1 10.5731 7.9454 0.844311 4 4.68954e-07 2 3 0.0994487 -0.198564
434 1 10.5877 8.70196 1.4255 4 8.11376e-07 1 8 0.0994487 -0.145131
435 1 11.4057 7.80503 1.60301 4 1.65713e-06 2 7 0.0994487 0.229138
436 1 11.227 8.11851 0.0422735 4 7.57841e-07 2 0 0.0994487 0.174298
437 1 12.7061 7.28322 0.565784 4 5.87206e-06 2 0 0.0994487 -0.0531131
438 1 12.178 8.23518 0.590765 4 4.48285e-06 2 2 0.0994487 0.164207