ITEM: TIMESTEP
35500
ITEM: NUMBER OF ATOMS
9495
ITEM: BOX BOUNDS mm mm mm
0.0000000000000000e+00 3.1748021039364001e+01
0.0000000000000000e+00 3.1748021039364001e+01
-7.4072398406925706e-04 3.1748021039364001e+01
ITEM: ATOMS id type x y z c_phase c_temp c_surf c_nbond c_visc f_3[1]
1 1 0.116341 1.10259 0.464337 4 6.37173e-05 2 0 0.0994487 -0.68194
2 1 0.974108 1.6685 0.77798 4 9.5786e-05 2 0 0.0994487 -0.517031
3 1 0.714648 0.793562 1.41295 4 7.27618e-05 2 0 0.0994487 -0.281794
4 1 0.00336375 1.60273 1.37437 4 6.98762e-05 2 0 0.0994487 -0.804051
5 1 0.729896 0.0633724 0.61602 4 5.87294e-05 3 0 0.0994487 -0.190374
6 1 1.71015 0.808983 1.0155 4 0.000113717 2 0 0.0994487 -0.332068
7 1 1.80059 1.47468 0.221075 4 0.000123794 2 0 0.0994487 -0.125829
8 1 1.82015 1.66049 1.76126 4 0.000133425 2 0 0.0994487 -0.139533
9 1 2.52093 0.749102 0.203812 4 0.000150907 2 0 0.0994487 -0.142939
10 1 2.59149 0.0538711 1.03726 4 0.000149187 2 0 0.0994487 -0.295004
11 1 2.64922 1.541 0.882848 4 0.00018858 2 0 0.0994487 0.235759
12 1 2.66829 0.815502 1.7457 4 0.000169017 2 0 0.0994487 -0.18704
13 1 3.43386 0.933692 0.956349 4 0.000249824 2 0 0.0994487 0.320245
14 1 3.49924 0.0925696 1.70571 4 0.000205694 2 0 0.0994487 0.178054
15 1 3.60652 1.70798 1.71994 4 0.000314211 2 0 0.0994487 0.0487959
16 1 4.10576 0.858321 0.325305 4 0.000344924 2 0 0.0994487 0.153147
17 1 4.96159 0.56786 1.17466 4 0.000559636 2 0 0.0994487 -0.0370655
18 1 4.91949 1.59987 0.383508 4 0.000643243 2 0 0.0994487 -0.100246
19 1 4.3472 0.941527 1.62884 4 0.000405594 2 0 0.0994487 0.110739
20 1 3.47612 0.111428 0.171027 4 0.00019715 2 0 0.0994487 0.166216
21 1 5.64741 0.645627 0.325839 4 0.000793359 2 0 0.0994487 -0.0806038
22 1 5.88414 1.31048 0.938036 4 0.000975849 2 0 0.0994487 -0.199575
23 1 6.57478 1.39104 0.218369 4 0.00134969 2 0 0.0994487 -0.086132
24 1 5.78374 0.460658 1.69897 4 0.000805699 2 0 0.0994487 -0.0846513
25 1 5.03122 1.72414 1.43602 4 0.000679586 2 0 0.0994487 0.0453739
26 1 6.7138 0.39031 0.865278 4 0.00125496 2 0 0.0994487 -0.0793804
27 1 6.69104 1.00962 1.69374 4 0.00130122 2 0 0.0994487 -0.107922
28 1 8.2679 0.408875 1.07337 4 0.00231571 2 0 0.0994487 -0.100165
29 1 7.36782 1.22285 0.954198 4 0.00183843 2 0 0.0994487 -0.302543
30 1 8.24709 1.39092 0.236779 4 0.002666 2 0 0.0994487 -0.0460624
31 1 8.12868 1.27217 1.60653 4 0.00243878 2 0 0.0994487 -0.00811517
32 1 7.58247 0.647807 0.140287 4 0.00184292 2 0 0.0994487 -0.110935
33 1 8.85849 0.508506 0.273966 4 0.00291034 2 0 0.0994487 -0.0616451
34 1 9.55301 0.3386 0.888639 4 0.00366961 2 0 0.0994487 0.00506564
35 1 9.02586 1.30716 1.1133 4 0.00353795 2 0 0.0994487 -0.0606395
37 1 9.63995 1.37474 0.0900752 4 0.00425488 2 0 0.0994487 0.0992925
38 1 11.2128 0.215893 0.632658 4 0.00657468 2 0 0.0994487 0.203505
39 1 10.3637 1.04743 0.823114 4 0.00540174 2 0 0.0994487 0.53989
40 1 10.523 0.196295 1.44539 4 0.0050978 2 0 0.0994487 0.0644298
41 1 11.2856 1.01846 1.41785 4 0.00788229 2 0 0.0994487 0.16471
42 1 10.5797 1.67706 1.72992 4 0.00676381 2 0 0.0994487 0.118166
43 1 10.2431 0.367861 0.0780499 4 0.00436022 2 0 0.0994487 0.149802
44 1 12.8757 0.211714 0.636805 4 0.0125683 2 0 0.0994487 0.0587889
45 1 12.0457 1.07408 0.506655 4 0.0108601 2 0 0.0994487 -0.0235492
46 1 12.1319 0.316439 1.29957 4 0.00993524 2 0 0.0994487 0.0188383
47 1 12.7194 1.19864 1.3723 4 0.0141611 2 0 0.0994487 -0.0305249
48 1 14.3729 0.318493 0.764646 4 0.0202371 2 0 0.0994487 -0.0460375
49 1 13.5924 1.113 0.843618 4 0.0186962 2 0 0.0994487 -0.263049
50 1 14.0399 1.55958 0.167469 4 0.0229981 2 0 0.0994487 -0.0898241
51 1 13.6075 0.359834 1.6352 4 0.016198 2 0 0.0994487 -0.0562624
52 1 14.3777 1.14948 1.47647 4 0.0224209 2 0 0.0994487 -0.0178263
53 1 14.8761 1.55337 0.662943 4 0.0275352 2 0 0.0994487 0.38995
54 1 15.7061 0.770636 0.788259 4 0.0292216 2 0 0.0994487 0.366484
55 1 16.5532 1.54451 0.681338 4 0.0427453 2 0 0.0994487 0.000806045
56 1 15.1422 0.4642 1.64149 4 0.0239366 2 0 0.0994487 0.152078
57 1 16.547 0.712289 1.3421 4 0.0369491 2 0 0.0994487 0.0956268
58 1 15.6341 1.48544 1.3916 4 0.0329419 2 0 0.0994487 0.153632
59 1 15.1049 0.711806 0.0677822 4 0.0239368 2 0 0.0994487 0.169203
60 1 17.2544 0.732268 0.547589 4 0.043338 2 0 0.0994487 0.0286301
61 1 17.9231 1.58109 0.757246 4 0.0567498 2 0 0.0994487 0.0415632
62 1 17.916 0.742935 1.42801 4 0.0501234 2 0 0.0994487 -0.224377
63 1 17.2202 1.74884 1.56274 4 0.0525409 2 0 0.0994487 -0.0984834
64 1 19.5372 0.0167772 0.662766 4 0.0537994 2 0 0.0994487 0.0436436
65 1 18.7918 0.725074 0.684829 4 0.0553534 2 0 0.0994487 -0.269945
66 1 19.5395 1.55488 0.841653 4 0.0690211 2 0 0.0994487 -0.341162
67 1 19.0276 0.158607 1.54508 4 0.0530108 2 0 0.0994487 -0.158664
68 1 19.5934 0.967491 1.68957 4 0.0616268 2 0 0.0994487 0.00835058
69 1 18.6564 1.51302 1.50035 4 0.0626183 2 0 0.0994487 -0.250308
70 1 21.0889 0.349843 1.06749 4 0.0623727 2 0 0.0994487 -0.196127
71 1 20.2493 0.776373 0.980057 4 0.0632082 2 0 0.0994487 -0.0497619
72 1 21.1062 1.65725 0.951506 4 0.0758153 2 0 0.0994487 0.692913
73 1 21.1874 0.765598 0.218806 4 0.0646568 2 0 0.0994487 -0.0445911
74 1 20.3457 1.51479 0.193617 4 0.0716149 2 0 0.0994487 -0.0806026
75 1 22.0087 0.262534 0.539755 4 0.0622906 2 0 0.0994487 0.0993589
76 1 22.7913 0.430275 1.40734 4 0.0636176 2 0 0.0994487 0.206599
77 1 22.1105 1.14763 1.32981 4 0.0696056 2 0 0.0994487 0.240022
78 1 21.9982 1.59955 0.538558 4 0.0764106 2 0 0.0994487 0.185171
79 1 22.9157 1.07463 0.445168 4 0.0688442 2 0 0.0994487 0.0520838
80 1 24.228 0.380179 1.45209 4 0.0612881 2 0 0.0994487 0.0576163
81 1 23.5672 0.357563 0.57369 4 0.0625153 2 0 0.0994487 0.0385704
82 1 24.4367 1.18687 0.754729 4 0.0682341 2 0 0.0994487 -0.0192972
83 1 23.4757 1.2499 1.4028 4 0.071672 2 0 0.0994487 0.0298764
84 1 24.955 0.315686 0.551996 4 0.0572642 2 0 0.0994487 -0.0171991
85 1 26.0085 0.383365 1.1715 4 0.0507219 2 0 0.0994487 -0.18586
86 1 25.169 1.12579 1.48087 4 0.0638503 2 0 0.0994487 0.0251046
87 1 25.9301 1.73476 1.35794 4 0.0658662 2 0 0.0994487 0.0345357
88 1 25.8917 0.929212 0.432102 4 0.0553541 2 0 0.0994487 -0.09542
89 1 27.5736 1.28032 0.38906 4 0.0452318 2 0 0.0994487 0.0454492
90 1 27.6142 0.50928 0.874321 4 0.0411125 2 0 0.0994487 0.175388
91 1 26.7559 1.02809 1.26347 4 0.049244 2 0 0.0994487 -0.236886
92 1 28.3748 0.337482 1.39813 4 0.0352235 2 0 0.0994487 0.00984432
93 1 26.7925 0.240345 0.226621 4 0.0441564 2 0 0.0994487 0.0380747
94 1 28.6489 1.24263 0.742341 4 0.0380828 2 0 0.0994487 0.102406
95 1 29.3912 0.945639 1.56878 4 0.0318669 2 0 0.0994487 -0.0192007
96 1 28.5228 1.71921 1.49749 4 0.0415009 2 0 0.0994487 -0.0429809
97 1 29.8133 0.173958 1.46124 4 0.0275815 2 0 0.0994487 0.133416
98 1 29.2734 0.3547 0.615275 4 0.0300333 2 0 0.0994487 -0.0816812
99 1 31.5874 0.266128 1.25663 4 0.0208558 3 0 0.0994487 0.830097
100 1 30.7016 0.49015 0.470738 4 0.0251696 2 0 0.0994487 0.354852
101 1 30.1009 1.19877 0.774133 4 0.030211 2 0 0.0994487 0.21092
102 1 30.8649 0.971942 1.39386 4 0.0264833 2 0 0.0994487 0.703281
103 1 1.11081 2.43607 0.129285 4 0.000109401 2 0 0.0994487 -0.037322
104 1 0.133403 2.3821 0.812241 4 8.73025e-05 2 0 0.0994487 -0.984517
105 1 1.28845 3.23764 0.949187 4 0.00015095 2 0 0.0994487 0.222095
106 1 1.13977 2.36077 1.59162 4 0.000117888 2 0 0.0994487 -0.222189
107 1 0.386685 3.02999 1.54944 4 0.000108322 2 0 0.0994487 -0.671256
108 1 0.332248 3.09582 0.131296 4 0.000102768 2 0 0.0994487 -0.59134
109 1 1.90972 2.41867 0.78376 4 0.000159764 2 0 0.0994487 0.0782105
110 1 2.65852 3.28029 0.860875 4 0.00029582 2 0 0.0994487 0.0668059
111 1 2.66931 2.22918 1.53373 4 0.000221218 2 0 0.0994487 0.082956
112 1 3.2579 3.42668 1.64938 4 0.000416528 2 0 0.0994487 0.00397617
113 1 2.7261 2.38168 0.0557193 4 0.000210085 2 0 0.0994487 0.146601
114 1 3.38195 2.55413 0.779289 4 0.000345781 2 0 0.0994487 0.211586
115 1 4.00679 1.841 0.711184 4 0.000414602 2 0 0.0994487 -0.0361213
116 1 4.91383 2.57277 0.815661 4 0.000797696 2 0 0.0994487 -0.259346
117 1 4.20148 3.3175 0.749446 4 0.000670792 2 0 0.0994487 0.00621748
118 1 4.13245 2.64107 1.58328 4 0.000533169 2 0 0.0994487 0.0270791
119 1 5.65047 2.44269 0.132743 4 0.00109487 2 0 0.0994487 -0.189924
120 1 6.55776 2.18062 0.772597 4 0.00156141 2 0 0.0994487 -0.289371
121 1 5.64874 3.19593 0.952489 4 0.00132441 2 0 0.0994487 -0.754627
122 1 5.861 2.19426 1.49672 4 0.00112174 2 0 0.0994487 0.0126374
123 1 6.52037 3.06691 1.5557 4 0.00187548 2 0 0.0994487 0.0443593
124 1 6.65033 2.92778 0.134227 4 0.00182152 2 0 0.0994487 0.0288882
125 1 7.45405 2.22586 0.139832 4 0.00229428 2 0 0.0994487 -0.0535007
126 1 8.08209 2.20208 0.930382 4 0.00302249 2 0 0.0994487 -0.30206
127 1 7.40132 3.06835 0.934051 4 0.00281291 2 0 0.0994487 -0.0455037
128 1 7.29928 2.06035 1.56856 4 0.00207194 2 0 0.0994487 -0.0607311
129 1 8.18545 3.00183 1.65211 4 0.00384223 2 0 0.0994487 -0.0454142
130 1 8.26934 2.9712 0.0392146 4 0.00395113 2 0 0.0994487 -0.150616
131 1 8.90393 2.08699 0.252387 4 0.00396469 2 0 0.0994487 0.00243519
132 1 9.77243 2.0246 1.10996 4 0.00548324 2 0 0.0994487 0.173471
133 1 8.92671 2.97262 0.928693 4 0.00522464 2 0 0.0994487 -0.156744
134 1 9.03062 2.22066 1.70398 4 0.00436866 2 0 0.0994487 -0.0819664
135 1 9.56096 2.90576 0.21312 4 0.00624549 2 0 0.0994487 0.173122
136 1 10.2834 2.1137 0.214297 4 0.00624675 2 0 0.0994487 0.33774
137 1 11.1583 1.82604 0.771092 4 0.00886868 2 0 0.0994487 0.260092
138 1 10.6214 2.80819 0.921535 4 0.00949362 2 0 0.0994487 0.541923
139 1 11.4444 2.82964 1.57484 4 0.0132972 2 0 0.0994487 0.0952016
140 1 12.6737 1.94118 0.593851 4 0.0168421 2 0 0.0994487 -0.283931
141 1 11.928 2.64099 0.742299 4 0.0151458 2 0 0.0994487 -0.038671
142 1 11.9239 1.9206 1.46509 4 0.0123476 2 0 0.0994487 0.094656
143 1 12.8449 3.01766 1.68597 4 0.0227158 2 0 0.0994487 0.0363579
144 1 13.1791 3.03035 0.848852 4 0.0257932 2 0 0.0994487 -0.440853
145 1 13.3784 1.9912 1.48064 4 0.0206366 2 0 0.0994487 -0.015069
146 1 14.0206 2.44438 0.927124 4 0.0280643 2 0 0.0994487 -0.133096
147 1 14.0279 3.38359 1.55716 4 0.0360947 2 0 0.0994487 0.0255754
148 1 14.6961 3.43698 0.884932 4 0.0444003 2 0 0.0994487 -0.332955
149 1 14.7823 2.29758 1.44821 4 0.0326599 2 0 0.0994487 0.0469279
150 1 14.8418 2.51505 0.136557 4 0.0348967 2 0 0.0994487 0.173006
151 1 14.1591 3.2262 0.0325348 4 0.0361191 2 0 0.0994487 -0.246105
152 1 13.4137 2.29398 0.0590902 4 0.0230755 2 0 0.0994487 -0.280961
153 1 15.6993 2.44373 0.692668 4 0.0429559 2 0 0.0994487 0.364394
154 1 16.3029 3.20095 0.662084 4 0.0604284 2 0 0.0994487 0.328589
155 1 16.308 2.47951 1.52575 4 0.0512915 2 0 0.0994487 -0.100647
156 1 15.3694 3.25723 1.50191 4 0.0503334 2 0 0.0994487 -0.0076686
157 1 15.5706 3.25854 0.0192499 4 0.0493546 2 0 0.0994487 0.290238
158 1 17.0646 2.35032 0.682778 4 0.057883 2 0 0.0994487 0.0234813
159 1 17.944 2.92608 0.699539 4 0.081418 2 0 0.0994487 -0.231191
160 1 18.0193 2.43917 1.58112 4 0.0716143 2 0 0.0994487 -0.149135
161 1 17.0918 3.1162 1.49491 4 0.0726323 2 0 0.0994487 -0.143434
162 1 18.8908 2.35742 1.01358 4 0.0786382 2 0 0.0994487 -0.51683
163 1 19.7027 3.2427 1.27782 4 0.105918 2 0 0.0994487 0.39488
164 1 18.884 2.99607 0.196019 4 0.0931006 2 0 0.0994487 -0.171809
165 1 19.587 2.34239 0.101452 4 0.0831933 2 0 0.0994487 -0.13237
166 1 20.3251 1.78863 1.72442 4 0.0742498 2 0 0.0994487 0.0449527
167 1 21.1565 2.41663 0.458355 4 0.0922046 2 0 0.0994487 0.196187
168 1 20.1948 2.46882 1.11433 4 0.087989 2 0 0.0994487 0.286741
169 1 21.31 3.29463 1.39314 4 0.123268 2 0 0.0994487 0.0777285
170 1 20.4222 2.99313 0.334941 4 0.102949 2 0 0.0994487 0.18629
171 1 22.8719 2.07007 1.50872 4 0.0884797 2 0 0.0994487 -0.0221241
172 1 22.9717 2.60199 0.735523 4 0.106456 2 0 0.0994487 0.133325
173 1 22.0961 2.49917 1.23787 4 0.100153 2 0 0.0994487 0.186437
174 1 21.9898 3.20043 0.598797 4 0.126471 2 0 0.0994487 -0.0757509
175 1 22.6771 3.40124 0.07601 4 0.137307 2 0 0.0994487 0.0760733
176 1 23.7438 1.80844 0.624025 4 0.080369 2 0 0.0994487 -0.0873599
177 1 24.4289 1.98763 1.61102 4 0.0822604 2 0 0.0994487 -0.064176
178 1 24.342 2.68296 0.775192 4 0.100644 2 0 0.0994487 -0.341093
179 1 23.6887 2.90303 1.53628 4 0.112363 2 0 0.0994487 -0.110505
180 1 24.4728 3.51078 1.55704 4 0.131057 2 0 0.0994487 -0.118305
181 1 24.9562 2.84566 0.0146836 4 0.0977545 2 0 0.0994487 -0.0864596
182 1 26.5483 1.79415 0.511367 4 0.0596909 2 0 0.0994487 -0.00560029
183 1 25.1322 1.85613 0.509414 4 0.0750652 2 0 0.0994487 -0.0215293
184 1 25.7918 2.61203 0.707489 4 0.0856059 2 0 0.0994487 0.228202
185 1 25.1579 2.55548 1.52547 4 0.0908635 2 0 0.0994487 0.0576666
186 1 25.7213 3.49812 1.51211 4 0.114686 2 0 0.0994487 0.123857
187 1 26.5364 2.56002 1.53049 4 0.0738508 2 0 0.0994487 0.0579475
188 1 26.1686 3.50068 0.599043 4 0.106814 2 0 0.0994487 0.168845
189 1 27.5039 1.98546 1.23792 4 0.0522818 2 0 0.0994487 -0.186419
190 1 28.2489 2.09022 0.343734 4 0.0468761 2 0 0.0994487 -0.0177248
191 1 27.0867 2.6924 0.645359 4 0.0683946 2 0 0.0994487 -0.105601
192 1 27.1998 3.35397 1.41682 4 0.0808794 2 0 0.0994487 -0.0983285
193 1 28.2537 2.75799 1.20639 4 0.0544762 2 0 0.0994487 -0.418306
194 1 27.982 3.21993 0.326384 4 0.0641025 2 0 0.0994487 -0.125257
195 1 29.9568 1.80906 1.70764 4 0.0338719 2 0 0.0994487 0.183201
196 1 29.4477 2.04702 0.879698 4 0.0383784 2 0 0.0994487 -0.00708337
197 1 29.1956 2.6589 0.290703 4 0.0445334 2 0 0.0994487 -0.0578283
198 1 29.2495 3.2651 1.17365 4 0.0508861 2 0 0.0994487 0.118634
199 1 30.9114 1.98502 0.924207 4 0.0323509 2 0 0.0994487 0.967251
200 1 30.1815 2.71094 1.00186 4 0.0393287 2 0 0.0994487 0.67511
201 1 31.0247 3.35309 0.97101 4 0.0411734 2 0 0.0994487 0.998409
202 1 30.9865 2.69483 1.72648 4 0.0364355 2 0 0.0994487 0.578501
203 1 30.1092 3.25953 0.132205 4 0.0427976 2 0 0.0994487 -0.0443658
204 1 30.4116 1.90909 0.0255368 4 0.0325179 2 0 0.0994487 0.106045
205 1 31.1434 2.66402 0.0761253 4 0.0348689 2 0 0.0994487 0.70882
206 1 0.293831 3.78503 0.918557 4 0.000126259 2 0 0.0994487 -0.999347
207 1 0.143046 4.59443 0.482118 4 0.000143119 2 0 0.0994487 -0.784494
208 1 1.14036 4.67093 0.986638 4 0.00020759 2 0 0.0994487 -0.51675
209 1 0.0884667 5.26681 1.27761 4 0.000166263 2 0 0.0994487 -0.887458
210 1 1.04069 3.86421 0.0595682 4 0.000151349 2 0 0.0994487 0.0148882
211 1 1.84117 4.04604 0.847105 4 0.000245317 2 0 0.0994487 0.00827105
212 1 2.54049 4.85585 1.13748 4 0.00042578 2 0 0.0994487 -0.333845
213 1 2.64953 4.14475 0.20674 4 0.000380018 2 0 0.0994487 -0.0285715
214 1 1.89758 4.96895 0.278386 4 0.000320813 2 0 0.0994487 -0.153433
215 1 3.40771 4.86189 0.161635 4 0.000660664 2 0 0.0994487 -0.0163873
216 1 3.494 4.07675 0.885909 4 0.000569914 2 0 0.0994487 0.0268967
217 1 4.91235 4.00001 1.18344 4 0.00114367 2 0 0.0994487 0.0115165
218 1 4.04658 4.88002 1.14639 4 0.000913747 2 0 0.0994487 0.264492
219 1 4.26027 4.18509 0.149001 4 0.000862757 2 0 0.0994487 0.037739
220 1 5.00947 4.74001 0.341082 4 0.00145035 2 0 0.0994487 0.0765413
221 1 5.77735 3.9378 0.198707 4 0.00161867 2 0 0.0994487 0.0260167
222 1 6.48883 3.76611 0.772067 4 0.00220719 2 0 0.0994487 0.204557
223 1 5.68025 4.73638 1.02487 4 0.00205899 2 0 0.0994487 -0.621676
224 1 6.66321 4.5115 1.6428 4 0.00292967 2 0 0.0994487 0.158935
225 1 6.68072 5.1315 0.885352 4 0.00364132 2 0 0.0994487 0.206862
226 1 8.1982 3.892 0.700757 4 0.00516575 2 0 0.0994487 -0.369897
227 1 7.40842 4.46072 0.5468 4 0.00425091 2 0 0.0994487 -0.0252104
228 1 7.39886 3.87029 1.49684 4 0.00347926 2 0 0.0994487 0.102579
229 1 8.20004 4.61106 1.48677 4 0.00628764 2 0 0.0994487 -0.0118353
230 1 9.8976 3.57792 0.885667 4 0.0091631 2 0 0.0994487 0.592804
231 1 9.07913 4.56551 0.821335 4 0.00900052 2 0 0.0994487 -0.658536
232 1 9.86266 4.50302 0.126324 4 0.0111689 2 0 0.0994487 0.0958667
233 1 9.07829 3.76256 1.49819 4 0.00709462 2 0 0.0994487 -0.0708839
234 1 9.86881 4.3462 1.65532 4 0.0115476 2 0 0.0994487 -0.0856611
235 1 8.98541 3.86821 0.0631775 4 0.00687642 2 0 0.0994487 -0.138752
236 1 11.408 3.64493 0.778297 4 0.0166782 2 0 0.0994487 0.202069
237 1 10.5891 4.66652 0.906264 4 0.0163962 2 0 0.0994487 0.0450869
238 1 11.3867 4.69403 0.230734 4 0.0222645 2 0 0.0994487 -0.049889
239 1 10.7059 3.56689 1.58785 4 0.012596 2 0 0.0994487 -0.0448478
240 1 11.3652 4.3716 1.70545 4 0.0202823 2 0 0.0994487 -0.0798267
241 1 11.3894 5.27213 0.983682 4 0.0261751 2 0 0.0994487 -0.674474
242 1 10.5826 3.84888 0.176129 4 0.0124254 2 0 0.0994487 0.210467
243 1 12.5168 3.57716 0.814749 4 0.0243541 2 0 0.0994487 -0.0105746
244 1 12.1916 4.55033 1.00021 4 0.0284902 2 0 0.0994487 0.105054
245 1 12.7362 4.99738 1.68903 4 0.0368628 2 0 0.0994487 0.19133
246 1 13.2258 4.67863 0.80017 4 0.0416279 2 0 0.0994487 -0.00469727
247 1 12.6435 4.61885 0.0632315 4 0.0344151 2 0 0.0994487 -0.0335799
248 1 13.9891 4.12825 0.69648 4 0.0454513 2 0 0.0994487 -0.430177
249 1 13.4832 4.21781 1.59317 4 0.0386239 2 0 0.0994487 0.0820181
250 1 14.2046 5.11838 1.52001 4 0.0624819 2 0 0.0994487 -0.0289917
251 1 14.9402 5.01141 0.811699 4 0.0745197 2 0 0.0994487 -0.0527305
252 1 14.9642 4.4167 1.59432 4 0.0636393 2 0 0.0994487 -0.0635622
253 1 14.1405 4.90647 0.0597868 4 0.0581808 2 0 0.0994487 -0.0856946
254 1 14.961 4.19423 0.096508 4 0.0580127 2 0 0.0994487 0.0322727
255 1 15.6685 4.06642 0.926277 4 0.0677358 2 0 0.0994487 0.872583
256 1 15.8798 4.77595 0.186426 4 0.0866613 2 0 0.0994487 0.16539
257 1 16.5936 4.58036 0.900182 4 0.0986679 2 0 0.0994487 -0.0789771
258 1 16.3184 3.95875 1.6903 4 0.077474 2 0 0.0994487 -0.043397
259 1 15.8111 5.05317 1.64084 4 0.092656 2 0 0.0994487 0.0994997
260 1 17.2689 3.83372 0.811237 4 0.0929579 2 0 0.0994487 -0.345384
261 1 18.0864 4.48855 1.09806 4 0.126432 2 0 0.0994487 -0.612158
262 1 17.9525 3.63794 1.65602 4 0.0983627 2 0 0.0994487 -0.192806
263 1 17.4569 4.57727 0.0147963 4 0.114414 2 0 0.0994487 -0.0974095
264 1 18.1348 3.8547 0.0583493 4 0.106013 2 0 0.0994487 -0.120517
265 1 18.8779 3.70667 0.95022 4 0.111967 2 0 0.0994487 0.0692284
266 1 18.8235 4.60949 0.361826 4 0.140919 2 0 0.0994487 0.115609
267 1 19.6906 4.67872 1.0803 4 0.169402 2 0 0.0994487 0.931527
268 1 18.7859 5.27693 1.20102 4 0.17939 2 0 0.0994487 0.599122
269 1 19.5987 3.76722 0.227421 4 0.120607 2 0 0.0994487 0.164269
270 1 20.4384 3.82188 1.23329 4 0.138028 2 0 0.0994487 0.325953
271 1 20.8846 4.71868 1.39403 4 0.206033 2 0 0.0994487 0.149058
272 1 21.5775 4.95128 0.810455 4 0.248662 2 0 0.0994487 -0.00375314
273 1 21.0824 3.93136 0.512408 4 0.152829 2 0 0.0994487 0.0883026
274 1 20.1339 4.78559 0.352846 4 0.185993 2 0 0.0994487 0.145586
275 1 22.8205 3.63186 1.42135 4 0.149384 2 0 0.0994487 -0.0184004
276 1 21.9406 4.13318 1.31068 4 0.178328 2 0 0.0994487 0.0272034
277 1 22.4705 5.17735 1.27286 3 0.282475 2 0 0.0992383 0.0207051
278 1 22.6119 4.34705 0.510028 4 0.196342 2 0 0.0994487 -0.022107
279 1 23.5735 3.63903 0.782677 4 0.149099 2 0 0.0994487 0.185557
280 1 24.336 4.32055 0.625018 4 0.183775 2 0 0.0994487 -0.150095
281 1 23.4679 4.54946 1.33355 4 0.212908 2 0 0.0994487 -0.079057
282 1 24.8518 5.25716 0.566763 4 0.241038 2 0 0.0994487 0.0409053
283 1 23.5518 5.06386 0.533607 3 0.259683 2 0 0.0993929 -0.0968903
284 1 25.0086 4.50055 1.62342 4 0.179902 2 0 0.0994487 -0.0421957
285 1 25.0629 3.68037 0.802132 4 0.132673 2 0 0.0994487 -0.187919
286 1 24.363 5.28843 1.43377 3 0.26225 2 0 0.0993772 -0.154711
287 1 25.6904 5.1389 1.34266 4 0.203421 2 0 0.0994487 0.210099
288 1 26.3575 4.29031 1.37159 4 0.133781 2 0 0.0994487 0.149482
289 1 26.5026 4.97257 0.640732 4 0.160879 2 0 0.0994487 0.0989663
290 1 25.5284 4.40089 0.388179 4 0.159422 2 0 0.0994487 0.0559472
291 1 27.3302 4.86961 1.40568 4 0.129221 2 0 0.0994487 0.00660957
292 1 27.9624 3.97641 1.10408 4 0.0818547 2 0 0.0994487 -0.309505
293 1 28.2771 4.73475 0.706344 4 0.0981157 2 0 0.0994487 -0.081247
294 1 27.0674 4.04323 0.570038 4 0.104512 2 0 0.0994487 0.0120221
295 1 28.9321 3.77016 0.487204 4 0.0614304 2 0 0.0994487 -0.0070327
296 1 29.0873 4.52317 1.33085 4 0.0750701 2 0 0.0994487 0.0574857
297 1 29.9979 4.07209 1.02303 4 0.0544043 2 0 0.0994487 -0.275232
298 1 31.0296 3.97382 0.373364 4 0.0463836 2 0 0.0994487 0.657583
299 1 30.2046 4.67765 0.491317 4 0.0626706 2 0 0.0994487 0.00995841
300 1 30.9783 4.59929 1.41131 4 0.0544607 2 0 0.0994487 0.679914
301 1 0.908283 5.53205 0.461647 4 0.000240032 2 0 0.0994487 -0.463784
302 1 1.53161 5.51184 1.37971 4 0.000304398 2 0 0.0994487 -0.117386
303 1 0.793684 6.22023 1.2768 4 0.00027668 2 0 0.0994487 -0.703381
304 1 0.257003 6.91734 1.50738 4 0.000272571 2 0 0.0994487 -0.772633
305 1 0.969942 6.9454 0.573423 4 0.000352125 2 0 0.0994487 -0.473533
306 1 1.7053 7.02884 1.23811 4 0.000463333 2 0 0.0994487 0.0665185
307 1 1.89588 6.19966 0.519025 4 0.000430091 2 0 0.0994487 -0.156399
308 1 3.10475 5.61709 1.30057 4 0.000666425 2 0 0.0994487 0.0402535
309 1 2.26359 6.15348 1.40977 4 0.000486941 2 0 0.0994487 0.0408565
310 1 3.25442 6.96226 1.12748 4 0.00104962 2 0 0.0994487 -0.0541226
311 1 2.68177 5.61289 0.273587 4 0.000546404 2 0 0.0994487 -0.059685
312 1 3.39503 6.28191 0.500536 4 0.000971713 2 0 0.0994487 -0.121443
313 1 4.18979 5.46246 0.325783 4 0.00116737 2 0 0.0994487 0.0310187
314 1 4.93434 5.42873 1.31778 4 0.00178954 2 0 0.0994487 -0.235098
315 1 4.13622 6.09659 1.22779 4 0.00138498 2 0 0.0994487 -0.0893878
316 1 4.82567 6.23357 0.333842 4 0.00200881 2 0 0.0994487 -0.0345749
317 1 4.77312 6.79931 1.15967 4 0.00232324 2 0 0.0994487 -0.305929
318 1 4.00267 7.02511 0.221759 4 0.0015716 2 0 0.0994487 -0.0853433
319 1 5.78575 5.42185 0.301847 4 0.00256076 2 0 0.0994487 0.0125033
320 1 5.6935 6.24342 0.9632 4 0.00312975 2 0 0.0994487 -0.967781
321 1 6.4578 5.98425 1.59671 4 0.00409257 2 0 0.0994487 0.140915
322 1 6.43234 6.86927 1.00965 4 0.00518598 2 0 0.0994487 0.851678
323 1 6.37773 6.04115 0.154639 4 0.00376717 2 0 0.0994487 0.111113
324 1 5.54993 7.05206 0.147147 4 0.00335577 2 0 0.0994487 0.0363869
325 1 8.21355 5.31419 0.694273 4 0.0078019 2 0 0.0994487 -0.0895889
326 1 7.32761 6.15925 0.754293 4 0.00647713 2 0 0.0994487 0.225734
327 1 7.39163 5.41839 1.49138 4 0.00541148 2 0 0.0994487 0.136755
328 1 8.23884 6.11028 1.49159 4 0.00992043 2 0 0.0994487 0.0187384
329 1 8.01352 6.85364 0.728993 4 0.0111166 2 0 0.0994487 0.0691898
330 1 7.28191 6.86379 1.59601 4 0.00804453 2 1 0.0994487 0.126057
331 1 7.33029 5.3575 0.0461812 4 0.00492567 2 0 0.0994487 0.0813577
332 1 9.76796 5.3194 0.792562 4 0.0143749 2 0 0.0994487 0.328451
333 1 8.88016 6.18865 0.736908 4 0.0133482 2 0 0.0994487 -0.235541
334 1 9.05434 5.3271 1.5973 4 0.0111325 2 0 0.0994487 -0.0628299
335 1 9.73844 6.19052 1.46731 4 0.0190331 2 0 0.0994487 -0.106499
336 1 9.09351 6.95013 1.463 4 0.0188028 2 2 0.0994487 -0.0760645
337 1 9.76329 6.23201 0.0941385 4 0.0185506 2 0 0.0994487 -0.0359514
338 1 8.99733 5.46479 0.012702 4 0.0110166 2 0 0.0994487 -0.134753
339 1 10.5831 6.02196 0.964384 4 0.0243604 2 0 0.0994487 -0.356309
340 1 11.3128 6.37134 0.0776634 4 0.0316624 2 0 0.0994487 0.100342
341 1 10.5187 6.94145 0.15452 4 0.0292628 2 0 0.0994487 -0.0735305
342 1 10.4686 6.92564 1.49614 4 0.0310817 2 1 0.0994487 -0.0634564
343 1 11.9994 5.6274 0.183157 4 0.0337214 2 0 0.0994487 -0.0105307
344 1 12.6757 5.81849 0.861776 4 0.0456788 2 0 0.0994487 0.0817434
345 1 11.7774 6.20735 1.05291 4 0.0373453 2 0 0.0994487 0.29227
346 1 13.3219 5.86668 1.55471 4 0.0563408 2 0 0.0994487 0.208166
347 1 13.3506 6.58297 0.813679 4 0.0724663 2 0 0.0994487 -0.292118
348 1 13.3212 5.53867 0.0424813 4 0.0528002 2 0 0.0994487 -0.142911
349 1 14.0617 5.71565 0.77266 4 0.0705503 2 0 0.0994487 -0.372704
350 1 14.3278 6.65176 1.40646 4 0.103398 2 1 0.0994487 -0.103129
351 1 14.1303 6.38483 0.0380077 4 0.0821688 2 0 0.0994487 -0.0826116
352 1 15.0282 5.64393 0.034369 4 0.0882593 2 0 0.0994487 0.0573627
353 1 15.8305 5.73813 0.95832 4 0.116254 2 0 0.0994487 0.625786
354 1 15.0472 6.45091 0.806774 4 0.11639 2 0 0.0994487 -0.176072
355 1 16.491 6.45257 1.1401 4 0.173839 2 0 0.0994487 0.207556
356 1 15.1058 5.87594 1.69804 4 0.103552 2 0 0.0994487 -0.0976764
357 1 16.62 5.41933 0.276819 4 0.123928 2 0 0.0994487 0.0799217
358 1 15.6753 6.3382 0.0390223 4 0.126498 2 0 0.0994487 0.03985
359 1 17.8271 5.30128 0.541411 4 0.150473 2 0 0.0994487 0.150327
360 1 17.113 5.42499 1.24767 4 0.141245 2 0 0.0994487 -0.286574
361 1 17.0619 6.27419 0.411469 4 0.17871 2 0 0.0994487 0.138907
362 1 17.6649 6.24649 1.38542 4 0.206122 2 0 0.0994487 -0.256009
363 1 18.2745 7.0517 1.13153 3 0.291156 2 0 0.0991695 0.659787
364 1 18.3714 6.23173 0.609762 4 0.229726 2 0 0.0994487 0.156204
365 1 19.429 5.75829 0.62055 4 0.236969 2 0 0.0994487 0.0571864
366 1 19.3279 6.55755 1.35081 3 0.306319 2 0 0.0990343 0.278899
367 1 19.9942 6.75229 0.610261 3 0.383909 2 0 0.0979163 -0.0120374
368 1 20.7494 5.77593 0.653722 3 0.309126 2 0 0.099007 -0.104066
369 1 20.1931 5.61076 1.39557 3 0.260014 2 0 0.0993909 0.31204
370 1 20.7787 6.6124 1.30355 3 0.439199 2 0 0.0964113 -0.344083
371 1 21.6592 6.66248 0.666524 3 0.461236 2 0 0.0955504 -0.0434696
372 1 21.6631 5.87866 1.38528 3 0.370346 2 0 0.0981777 0.0420268
373 1 21.6904 5.73259 0.0517844 3 0.329994 2 0 0.0987783 -0.00150187
374 1 22.6732 5.8279 0.674154 3 0.358157 2 0 0.0983847 0.00265501
375 1 22.6319 6.69333 1.20734 3 0.498361 2 0 0.0936278 -0.20244
376 1 23.3484 6.78052 0.267835 3 0.463898 2 0 0.0954337 -0.125375
377 1 23.4822 5.88496 1.30013 3 0.363726 2 0 0.0982932 -0.176368
378 1 24.3197 6.56281 1.15825 3 0.402632 2 0 0.0974937 0.173617
379 1 24.1457 6.00685 0.427617 3 0.342958 2 0 0.0986106 0.00243622
380 1 25.6831 5.86213 0.700952 3 0.255389 2 0 0.0994184 0.163895
381 1 25.1124 6.04132 1.67733 3 0.299707 2 0 0.0990958 0.00366737
382 1 25.1593 6.74159 0.495153 3 0.357768 2 0 0.098391 0.0903891
383 1 25.8251 6.59457 1.40775 3 0.303659 2 0 0.0990595 0.0880998
384 1 26.6903 5.84511 1.4763 4 0.205715 2 0 0.0994487 0.091761
385 1 27.4966 5.54334 0.722172 4 0.150083 2 0 0.0994487 -0.251573
386 1 26.7485 6.36567 0.651888 4 0.232219 2 0 0.0994487 0.0387497
387 1 27.7011 6.47315 1.36539 4 0.186506 2 0 0.0994487 0.131493
388 1 28.3648 5.52203 1.4872 4 0.120251 2 0 0.0994487 0.0456333
389 1 27.7097 7.0074 0.530173 4 0.208467 2 0 0.0994487 0.0321232
390 1 29.3889 5.30889 0.818726 4 0.0901463 2 0 0.0994487 0.316727
391 1 29.4379 6.18214 1.32212 4 0.108097 2 0 0.0994487 -0.00338083
392 1 29.5784 6.89773 0.506505 4 0.122152 2 0 0.0994487 0.0925869
393 1 28.4685 6.20589 0.638647 4 0.137038 2 0 0.0994487 -0.270081
394 1 29.3762 6.15398 0.0801838 4 0.108406 2 0 0.0994487 0.0969264
395 1 28.4822 5.38976 0.0592959 4 0.110115 2 0 0.0994487 -0.105003
396 1 30.9636 5.36838 0.595026 4 0.0698641 2 0 0.0994487 0.667849
397 1 30.2159 5.45949 1.46813 4 0.0774724 2 0 0.0994487 0.0540215
398 1 30.3958 6.18258 0.649752 4 0.0904936 2 0 0.0994487 0.329001
399 1 31.2189 6.15516 1.38439 4 0.079673 2 0 0.0994487 0.587258
400 1 31.1994 6.95407 0.60342 4 0.0943371 2 0 0.0994487 0.812252
401 1 31.7235 5.99622 0.446564 4 0.0739457 2 0 0.0994487 0.879729
402 1 0.261851 7.63199 0.661866 4 0.000324379 2 0 0.0994487 -0.876374
403 1 0.831025 8.46344 0.61936 4 0.000431936 2 0 0.0994487 -0.577626
404 1 1.11211 7.86396 1.49711 4 0.000421093 2 0 0.0994487 -0.154428
405 1 0.356955 8.5626 1.47035 4 0.000376086 2 0 0.0994487 -0.764984
406 1 1.59266 7.76478 0.37187 4 0.000517927 2 0 0.0994487 -0.0897876
407 1 1.72382 8.61735 1.46471 4 0.000617418 2 0 0.0994487 0.0395972
408 1 2.48799 7.14986 0.476331 4 0.000730675 2 0 0.0994487 -0.0836954
409 1 2.19177 8.6335 0.399707 4 0.000805502 2 0 0.0994487 -0.137267
410 1 2.39416 7.81099 1.27726 4 0.000769083 2 0 0.0994487 0.0869927
411 1 3.01349 8.51445 0.935533 4 0.00121987 2 0 0.0994487 -0.539311
412 1 3.24418 7.77117 0.327041 4 0.00122867 2 0 0.0994487 -0.196204
413 1 3.81243 8.45898 0.0822892 4 0.00174549 2 0 0.0994487 -0.0457781
414 1 3.97971 7.67009 1.24863 4 0.00176491 2 0 0.0994487 -0.0554883
415 1 4.70459 8.25653 0.921772 4 0.00278912 2 0 0.0994487 0.295338
416 1 4.67023 7.63706 0.247803 4 0.00242306 2 0 0.0994487 0.0376924
417 1 3.81127 8.34851 1.76162 4 0.00175149 2 0 0.0994487 -0.0574356
418 1 5.86955 8.34822 0.169905 4 0.00492204 2 0 0.0994487 0.113105
419 1 5.48363 7.59071 1.03232 4 0.00385627 2 0 0.0994487 -0.467662
420 1 6.49365 7.53799 0.169175 4 0.00590229 2 0 0.0994487 0.187624
421 1 6.39674 8.23976 1.04384 4 0.0069837 2 0 0.0994487 0.338194
422 1 7.28583 7.76918 0.746313 4 0.0101325 2 1 0.0994487 0.00997049
423 1 8.2859 8.31376 0.868772 4 0.0185004 2 2 0.0994487 0.278312
424 1 7.27857 8.18368 1.7015 4 0.0121665 2 2 0.0994487 -0.174748
425 1 8.05208 7.48784 1.5604 4 0.0140499 2 1 0.0994487 0.185001
426 1 7.99895 7.60312 0.0282118 4 0.0125632 2 0 0.0994487 0.0674139
427 1 9.84313 7.22199 0.72344 4 0.0264477 2 1 0.0994487 -0.346938
428 1 8.91207 7.61626 0.661731 4 0.0199443 2 1 0.0994487 0.158519
429 1 9.73234 8.61964 0.693151 4 0.0355894 2 3 0.0994487 -0.257028
430 1 9.09265 8.69904 1.44495 4 0.0309656 2 9 0.0994487 -0.394859
431 1 9.64026 7.88932 1.60055 4 0.032653 2 8 0.0994487 -0.340556
432 1 11.3161 7.14287 0.810636 4 0.0412492 2 1 0.0994487 0.448621
433 1 10.5731 7.9454 0.844311 4 0.0408148 2 3 0.0994487 -0.19783
434 1 10.5877 8.70196 1.4255 4 0.0501764 1 8 0.0994487 -0.148565
435 1 11.4057 7.80503 1.60301 4 0.055239 2 7 0.0994487 0.228646
436 1 11.227 8.11851 0.0422735 4 0.0470893 2 0 0.0994487 0.174336
437 1 12.7061 7.28322 0.565784 4 0.0713097 2 0 0.0994487 -0.053141
438 1 12.178 8.23518 0.590765 4 0.0720539 2 2 0.0994487 0.163871
439 1 12.0637 7.15788 1.37768 4 0.0557086 2 3 0.0994487 0.14581
440 1 12.0887 8.68064 1.49044 4 0.0834367 1 8 0.0994487 0.0819125
441 1 12.8601 7.99585 1.47598 4 0.097215 2 6 0.0994487 -0.217578
442 1 14.3373 7.3542 0.580954 4 0.119128 2 0 0.0994487 0.0649194
443 1 13.6169 8.09282 0.464536 4 0.113103 2 2 0.0994487 0.0238199
444 1 13.458 7.34024 1.34133 4 0.0972823 2 2 0.0994487 0.0547519
445 1 14.2471 8.18371 1.35246 4 0.152169 2 5 0.0994487 0.0270754
446 1 16.4328 7.18497 0.276798 4 0.202732 2 0 0.0994487 -0.0631033
447 1 15.6276 7.3114 0.923132 4 0.179318 2 1 0.0994487 -0.440531
448 1 15.0689 8.29247 0.865596 4 0.190636 2 2 0.0994487 -0.30713