ITEM: TIMESTEP
12000
ITEM: NUMBER OF ATOMS
9495
ITEM: BOX BOUNDS mm mm mm
0.0000000000000000e+00 3.1748021039364001e+01
0.0000000000000000e+00 3.1748021039364001e+01
-7.4072398406925706e-04 3.1748021039364001e+01
ITEM: ATOMS id type x y z c_phase c_temp c_surf c_nbond c_visc f_3[1]
1 1 0.116341 1.10259 0.464337 4 1.99959e-12 2 0 0.0994487 -0.68194
2 1 0.974108 1.6685 0.77798 4 8.945e-12 2 0 0.0994487 -0.517032
3 1 0.714648 0.793562 1.41295 4 3.54831e-12 2 0 0.0994487 -0.281794
4 1 0.00336375 1.60273 1.37437 4 2.58381e-12 2 0 0.0994487 -0.804051
5 1 0.729896 0.0633724 0.61602 4 1.8594e-12 3 0 0.0994487 -0.190374
6 1 1.71015 0.808983 1.0155 4 1.4704e-11 2 0 0.0994487 -0.332069
7 1 1.80059 1.47468 0.221075 4 1.9373e-11 2 0 0.0994487 -0.125829
8 1 1.82015 1.66049 1.76126 4 2.45614e-11 2 0 0.0994487 -0.139533
9 1 2.52093 0.749102 0.203812 4 3.22421e-11 2 0 0.0994487 -0.142939
10 1 2.59149 0.0538711 1.03726 4 2.71433e-11 2 0 0.0994487 -0.295004
11 1 2.64922 1.541 0.882848 4 7.35989e-11 2 0 0.0994487 0.235756
12 1 2.66829 0.815502 1.7457 4 4.45205e-11 2 0 0.0994487 -0.18704
13 1 3.43386 0.933692 0.956349 4 1.47726e-10 2 0 0.0994487 0.320242
14 1 3.49924 0.0925696 1.70571 4 7.32676e-11 2 0 0.0994487 0.178053
15 1 3.60652 1.70798 1.71994 4 2.63756e-10 2 0 0.0994487 0.0487952
16 1 4.10576 0.858321 0.325305 4 3.17759e-10 2 0 0.0994487 0.153146
17 1 4.96159 0.56786 1.17466 4 9.17913e-10 2 0 0.0994487 -0.0370668
18 1 4.91949 1.59987 0.383508 4 1.53719e-09 2 0 0.0994487 -0.100248
19 1 4.3472 0.941527 1.62884 4 4.53125e-10 2 0 0.0994487 0.110738
20 1 3.47612 0.111428 0.171027 4 6.49845e-11 2 0 0.0994487 0.166215
21 1 5.64741 0.645627 0.325839 4 2.13375e-09 2 0 0.0994487 -0.0806046
22 1 5.88414 1.31048 0.938036 4 4.41849e-09 2 0 0.0994487 -0.199582
23 1 6.57478 1.39104 0.218369 4 9.95591e-09 2 0 0.0994487 -0.0861331
24 1 5.78374 0.460658 1.69897 4 2.07059e-09 2 0 0.0994487 -0.0846522
25 1 5.03122 1.72414 1.43602 4 1.83524e-09 2 0 0.0994487 0.0453725
26 1 6.7138 0.39031 0.865278 4 6.88205e-09 2 0 0.0994487 -0.0793814
27 1 6.69104 1.00962 1.69374 4 8.34993e-09 2 0 0.0994487 -0.107923
28 1 8.2679 0.408875 1.07337 4 3.69934e-08 2 0 0.0994487 -0.100166
29 1 7.36782 1.22285 0.954198 4 2.34055e-08 2 0 0.0994487 -0.302549
30 1 8.24709 1.39092 0.236779 4 6.26816e-08 2 0 0.0994487 -0.0460635
31 1 8.12868 1.27217 1.60653 4 5.05462e-08 2 0 0.0994487 -0.00811625
32 1 7.58247 0.647807 0.140287 4 1.9171e-08 2 0 0.0994487 -0.110935
33 1 8.85849 0.508506 0.273966 4 6.67472e-08 2 0 0.0994487 -0.0616458
34 1 9.55301 0.3386 0.888639 4 1.30565e-07 2 0 0.0994487 0.00506472
35 1 9.02586 1.30716 1.1133 4 1.43668e-07 2 0 0.0994487 -0.0606427
37 1 9.63995 1.37474 0.0900752 4 2.21212e-07 2 0 0.0994487 0.0992919
38 1 11.2128 0.215893 0.632658 4 6.20155e-07 2 0 0.0994487 0.203504
39 1 10.3637 1.04743 0.823114 4 4.49356e-07 2 0 0.0994487 0.539888
40 1 10.523 0.196295 1.44539 4 3.06457e-07 2 0 0.0994487 0.0644293
41 1 11.2856 1.01846 1.41785 4 1.1751e-06 2 0 0.0994487 0.164709
42 1 10.5797 1.67706 1.72992 4 8.47536e-07 2 0 0.0994487 0.118165
43 1 10.2431 0.367861 0.0780499 4 1.92885e-07 2 0 0.0994487 0.149801
44 1 12.8757 0.211714 0.636805 4 3.09557e-06 2 0 0.0994487 0.0587887
45 1 12.0457 1.07408 0.506655 4 2.63434e-06 2 0 0.0994487 -0.0235497
46 1 12.1319 0.316439 1.29957 4 1.735e-06 2 0 0.0994487 0.0188378
47 1 12.7194 1.19864 1.3723 4 5.32911e-06 2 0 0.0994487 -0.0305253
48 1 14.3729 0.318493 0.764646 4 1.17674e-05 2 0 0.0994487 -0.0460373
49 1 13.5924 1.113 0.843618 4 1.117e-05 2 0 0.0994487 -0.263049
50 1 14.0399 1.55958 0.167469 4 2.01991e-05 2 0 0.0994487 -0.089824
51 1 13.6075 0.359834 1.6352 4 6.02616e-06 2 0 0.0994487 -0.0562624
52 1 14.3777 1.14948 1.47647 4 1.89e-05 2 0 0.0994487 -0.017826
53 1 14.8761 1.55337 0.662943 4 3.74996e-05 2 0 0.0994487 0.389951
54 1 15.7061 0.770636 0.788259 4 4.08886e-05 2 0 0.0994487 0.366485
55 1 16.5532 1.54451 0.681338 4 0.000134701 2 0 0.0994487 0.000807713
56 1 15.1422 0.4642 1.64149 4 2.02218e-05 2 0 0.0994487 0.152078
57 1 16.547 0.712289 1.3421 4 7.66988e-05 2 0 0.0994487 0.0956279
58 1 15.6341 1.48544 1.3916 4 6.49965e-05 2 0 0.0994487 0.153633
59 1 15.1049 0.711806 0.0677822 4 1.97717e-05 2 0 0.0994487 0.169203
60 1 17.2544 0.732268 0.547589 4 0.000114563 2 0 0.0994487 0.0286308
61 1 17.9231 1.58109 0.757246 4 0.000312838 2 0 0.0994487 0.0415647
62 1 17.916 0.742935 1.42801 4 0.00017819 2 0 0.0994487 -0.224376
63 1 17.2202 1.74884 1.56274 4 0.000247838 2 0 0.0994487 -0.0984822
64 1 19.5372 0.0167772 0.662766 4 0.00019481 2 0 0.0994487 0.0436438
65 1 18.7918 0.725074 0.684829 4 0.000245665 2 0 0.0994487 -0.269945
66 1 19.5395 1.55488 0.841653 4 0.000610762 2 0 0.0994487 -0.341161
67 1 19.0276 0.158607 1.54508 4 0.000185816 2 0 0.0994487 -0.158664
68 1 19.5934 0.967491 1.68957 4 0.000380603 2 0 0.0994487 0.00835086
69 1 18.6564 1.51302 1.50035 4 0.000421774 2 0 0.0994487 -0.250307
70 1 21.0889 0.349843 1.06749 4 0.000383639 2 0 0.0994487 -0.196127
71 1 20.2493 0.776373 0.980057 4 0.000423026 2 0 0.0994487 -0.0497619
72 1 21.1062 1.65725 0.951506 4 0.00095744 2 0 0.0994487 0.692911
73 1 21.1874 0.765598 0.218806 4 0.000461724 2 0 0.0994487 -0.0445914
74 1 20.3457 1.51479 0.193617 4 0.000702065 2 0 0.0994487 -0.0806028
75 1 22.0087 0.262534 0.539755 4 0.000387778 2 0 0.0994487 0.0993584
76 1 22.7913 0.430275 1.40734 4 0.000457178 2 0 0.0994487 0.206598
77 1 22.1105 1.14763 1.32981 4 0.000707478 2 0 0.0994487 0.240021
78 1 21.9982 1.59955 0.538558 4 0.00103584 2 0 0.0994487 0.18517
79 1 22.9157 1.07463 0.445168 4 0.000691824 2 0 0.0994487 0.0520827
80 1 24.228 0.380179 1.45209 4 0.000442708 2 0 0.0994487 0.0576152
81 1 23.5672 0.357563 0.57369 4 0.000446448 2 0 0.0994487 0.0385693
82 1 24.4367 1.18687 0.754729 4 0.00077521 2 0 0.0994487 -0.0193005
83 1 23.4757 1.2499 1.4028 4 0.000859077 2 0 0.0994487 0.0298744
84 1 24.955 0.315686 0.551996 4 0.00037708 2 0 0.0994487 -0.0172006
85 1 26.0085 0.383365 1.1715 4 0.000300883 2 0 0.0994487 -0.185862
86 1 25.169 1.12579 1.48087 4 0.000660268 2 0 0.0994487 0.0251027
87 1 25.9301 1.73476 1.35794 4 0.000862616 2 0 0.0994487 0.0345327
88 1 25.8917 0.929212 0.432102 4 0.000434083 2 0 0.0994487 -0.0954218
89 1 27.5736 1.28032 0.38906 4 0.000266003 2 0 0.0994487 0.0454477
90 1 27.6142 0.50928 0.874321 4 0.000167909 2 0 0.0994487 0.175386
91 1 26.7559 1.02809 1.26347 4 0.000334657 2 0 0.0994487 -0.23689
92 1 28.3748 0.337482 1.39813 4 9.87141e-05 2 0 0.0994487 0.00984303
93 1 26.7925 0.240345 0.226621 4 0.000182917 2 0 0.0994487 0.0380739
94 1 28.6489 1.24263 0.742341 4 0.000154353 2 0 0.0994487 0.102404
95 1 29.3912 0.945639 1.56878 4 7.58245e-05 2 0 0.0994487 -0.0192016
96 1 28.5228 1.71921 1.49749 4 0.000218065 2 0 0.0994487 -0.0429828
97 1 29.8133 0.173958 1.46124 4 3.75756e-05 2 0 0.0994487 0.133416
98 1 29.2734 0.3547 0.615275 4 5.59175e-05 2 0 0.0994487 -0.0816819
99 1 31.5874 0.266128 1.25663 4 1.12886e-05 3 0 0.0994487 0.830096
100 1 30.7016 0.49015 0.470738 4 2.55272e-05 2 0 0.0994487 0.354852
101 1 30.1009 1.19877 0.774133 4 6.00055e-05 2 0 0.0994487 0.210919
102 1 30.8649 0.971942 1.39386 4 3.30476e-05 2 0 0.0994487 0.703281
103 1 1.11081 2.43607 0.129285 4 1.27598e-11 2 0 0.0994487 -0.0373222
104 1 0.133403 2.3821 0.812241 4 5.16356e-12 2 0 0.0994487 -0.984517
105 1 1.28845 3.23764 0.949187 4 3.57731e-11 2 0 0.0994487 0.222092
106 1 1.13977 2.36077 1.59162 4 1.66742e-11 2 0 0.0994487 -0.222189
107 1 0.386685 3.02999 1.54944 4 1.00273e-11 2 0 0.0994487 -0.671256
108 1 0.332248 3.09582 0.131296 4 8.00511e-12 2 0 0.0994487 -0.59134
109 1 1.90972 2.41867 0.78376 4 4.67611e-11 2 0 0.0994487 0.0782091
110 1 2.65852 3.28029 0.860875 4 2.36162e-10 2 0 0.0994487 0.0668042
111 1 2.66931 2.22918 1.53373 4 1.13258e-10 2 0 0.0994487 0.0829552
112 1 3.2579 3.42668 1.64938 4 5.34873e-10 2 0 0.0994487 0.00397523
113 1 2.7261 2.38168 0.0557193 4 9.45479e-11 2 0 0.0994487 0.146601
114 1 3.38195 2.55413 0.779289 4 3.7265e-10 2 0 0.0994487 0.211584
115 1 4.00679 1.841 0.711184 4 5.61334e-10 2 0 0.0994487 -0.036123
116 1 4.91383 2.57277 0.815661 4 2.90845e-09 2 0 0.0994487 -0.259349
117 1 4.20148 3.3175 0.749446 4 1.82894e-09 2 0 0.0994487 0.00621605
118 1 4.13245 2.64107 1.58328 4 1.03288e-09 2 0 0.0994487 0.027078
119 1 5.65047 2.44269 0.132743 4 5.97926e-09 2 0 0.0994487 -0.189925
120 1 6.55776 2.18062 0.772597 4 1.68459e-08 2 0 0.0994487 -0.289379
121 1 5.64874 3.19593 0.952489 4 1.05825e-08 2 0 0.0994487 -0.754631
122 1 5.861 2.19426 1.49672 4 6.86263e-09 2 0 0.0994487 0.0126362
123 1 6.52037 3.06691 1.5557 4 2.64413e-08 2 0 0.0994487 0.0443582
124 1 6.65033 2.92778 0.134227 4 2.43256e-08 2 0 0.0994487 0.0288874
125 1 7.45405 2.22586 0.139832 4 4.52347e-08 2 0 0.0994487 -0.0535018
126 1 8.08209 2.20208 0.930382 4 9.95414e-08 2 0 0.0994487 -0.302068
127 1 7.40132 3.06835 0.934051 4 8.15349e-08 2 0 0.0994487 -0.0455154
128 1 7.29928 2.06035 1.56856 4 3.4716e-08 2 0 0.0994487 -0.0607321
129 1 8.18545 3.00183 1.65211 4 1.75622e-07 2 0 0.0994487 -0.0454151
130 1 8.26934 2.9712 0.0392146 4 1.83136e-07 2 0 0.0994487 -0.150616
131 1 8.90393 2.08699 0.252387 4 1.97136e-07 2 0 0.0994487 0.00243412
132 1 9.77243 2.0246 1.10996 4 5.12078e-07 2 0 0.0994487 0.173468
133 1 8.92671 2.97262 0.928693 4 4.22635e-07 2 0 0.0994487 -0.156752
134 1 9.03062 2.22066 1.70398 4 2.59209e-07 2 0 0.0994487 -0.0819672
135 1 9.56096 2.90576 0.21312 4 6.71531e-07 2 0 0.0994487 0.173121
136 1 10.2834 2.1137 0.214297 4 7.09871e-07 2 0 0.0994487 0.33774
137 1 11.1583 1.82604 0.771092 4 1.83205e-06 2 0 0.0994487 0.260091
138 1 10.6214 2.80819 0.921535 4 2.19713e-06 2 0 0.0994487 0.541921
139 1 11.4444 2.82964 1.57484 4 5.06611e-06 2 0 0.0994487 0.0952011
140 1 12.6737 1.94118 0.593851 4 9.31239e-06 2 0 0.0994487 -0.283931
141 1 11.928 2.64099 0.742299 4 7.30675e-06 2 0 0.0994487 -0.0386716
142 1 11.9239 1.9206 1.46509 4 4.169e-06 2 0 0.0994487 0.0946554
143 1 12.8449 3.01766 1.68597 4 2.06735e-05 2 0 0.0994487 0.0363579
144 1 13.1791 3.03035 0.848852 4 3.08477e-05 2 0 0.0994487 -0.440852
145 1 13.3784 1.9912 1.48064 4 1.62451e-05 2 0 0.0994487 -0.0150689
146 1 14.0206 2.44438 0.927124 4 4.04963e-05 2 0 0.0994487 -0.133093
147 1 14.0279 3.38359 1.55716 4 7.63555e-05 2 0 0.0994487 0.0255761
148 1 14.6961 3.43698 0.884932 4 0.000140931 2 0 0.0994487 -0.332946
149 1 14.7823 2.29758 1.44821 4 6.34051e-05 2 0 0.0994487 0.0469286
150 1 14.8418 2.51505 0.136557 4 7.27507e-05 2 0 0.0994487 0.173006
151 1 14.1591 3.2262 0.0325348 4 7.40624e-05 2 0 0.0994487 -0.246104
152 1 13.4137 2.29398 0.0590902 4 2.10016e-05 2 0 0.0994487 -0.280961
153 1 15.6993 2.44373 0.692668 4 0.000141699 2 0 0.0994487 0.364396
154 1 16.3029 3.20095 0.662084 4 0.000373349 2 0 0.0994487 0.328591
155 1 16.308 2.47951 1.52575 4 0.000236815 2 0 0.0994487 -0.100645
156 1 15.3694 3.25723 1.50191 4 0.000206869 2 0 0.0994487 -0.00766741
157 1 15.5706 3.25854 0.0192499 4 0.000187236 2 0 0.0994487 0.290239
158 1 17.0646 2.35032 0.682778 4 0.000346455 2 0 0.0994487 0.023483
159 1 17.944 2.92608 0.699539 4 0.000932451 2 0 0.0994487 -0.231189
160 1 18.0193 2.43917 1.58112 4 0.000654822 2 0 0.0994487 -0.149134
161 1 17.0918 3.1162 1.49491 4 0.000644103 2 0 0.0994487 -0.143432
162 1 18.8908 2.35742 1.01358 4 0.000917658 2 0 0.0994487 -0.516829
163 1 19.7027 3.2427 1.27782 4 0.00239327 2 0 0.0994487 0.39488
164 1 18.884 2.99607 0.196019 4 0.0014244 2 0 0.0994487 -0.171809
165 1 19.587 2.34239 0.101452 4 0.00109422 2 0 0.0994487 -0.13237
166 1 20.3251 1.78863 1.72442 4 0.000824726 2 0 0.0994487 0.0449526
167 1 21.1565 2.41663 0.458355 4 0.00185184 2 0 0.0994487 0.196187
168 1 20.1948 2.46882 1.11433 4 0.00149001 2 0 0.0994487 0.286741
169 1 21.31 3.29463 1.39314 4 0.00428064 2 0 0.0994487 0.0777278
170 1 20.4222 2.99313 0.334941 4 0.00238252 2 0 0.0994487 0.18629
171 1 22.8719 2.07007 1.50872 4 0.00176678 2 0 0.0994487 -0.0221256
172 1 22.9717 2.60199 0.735523 4 0.00306466 2 0 0.0994487 0.133322
173 1 22.0961 2.49917 1.23787 4 0.002514 2 0 0.0994487 0.186435
174 1 21.9898 3.20043 0.598797 4 0.00465268 2 0 0.0994487 -0.0757524
175 1 22.6771 3.40124 0.07601 4 0.00554129 2 0 0.0994487 0.0760725
176 1 23.7438 1.80844 0.624025 4 0.00135246 2 0 0.0994487 -0.0873621
177 1 24.4289 1.98763 1.61102 4 0.00151168 2 0 0.0994487 -0.0641776
178 1 24.342 2.68296 0.775192 4 0.00280954 2 0 0.0994487 -0.341097
179 1 23.6887 2.90303 1.53628 4 0.00364496 2 0 0.0994487 -0.110507
180 1 24.4728 3.51078 1.55704 4 0.00556864 2 0 0.0994487 -0.118308
181 1 24.9562 2.84566 0.0146836 4 0.00250701 2 0 0.0994487 -0.0864606
182 1 26.5483 1.79415 0.511367 4 0.000674343 2 0 0.0994487 -0.00560262
183 1 25.1322 1.85613 0.509414 4 0.00119274 2 0 0.0994487 -0.0215315
184 1 25.7918 2.61203 0.707489 4 0.00191048 2 0 0.0994487 0.228197
185 1 25.1579 2.55548 1.52547 4 0.00216184 2 0 0.0994487 0.0576644
186 1 25.7213 3.49812 1.51211 4 0.00407414 2 0 0.0994487 0.123854
187 1 26.5364 2.56002 1.53049 4 0.00131168 2 0 0.0994487 0.0579452
188 1 26.1686 3.50068 0.599043 4 0.00343905 2 0 0.0994487 0.168841
189 1 27.5039 1.98546 1.23792 4 0.000487171 2 0 0.0994487 -0.186423
190 1 28.2489 2.09022 0.343734 4 0.000334975 2 0 0.0994487 -0.0177262
191 1 27.0867 2.6924 0.645359 4 0.00110179 2 0 0.0994487 -0.105604
192 1 27.1998 3.35397 1.41682 4 0.0017381 2 0 0.0994487 -0.0983316
193 1 28.2537 2.75799 1.20639 4 0.000569747 2 0 0.0994487 -0.418311
194 1 27.982 3.21993 0.326384 4 0.000902672 2 0 0.0994487 -0.125258
195 1 29.9568 1.80906 1.70764 4 9.49817e-05 2 0 0.0994487 0.1832
196 1 29.4477 2.04702 0.879698 4 0.000163589 2 0 0.0994487 -0.00708728
197 1 29.1956 2.6589 0.290703 4 0.000273893 2 0 0.0994487 -0.0578294
198 1 29.2495 3.2651 1.17365 4 0.000422982 2 0 0.0994487 0.11863
199 1 30.9114 1.98502 0.924207 4 6.7462e-05 2 0 0.0994487 0.967251
200 1 30.1815 2.71094 1.00186 4 0.000155978 2 0 0.0994487 0.675106
201 1 31.0247 3.35309 0.97101 4 0.000143133 2 0 0.0994487 0.998409
202 1 30.9865 2.69483 1.72648 4 9.30132e-05 2 0 0.0994487 0.578501
203 1 30.1092 3.25953 0.132205 4 0.000198595 2 0 0.0994487 -0.0443664
204 1 30.4116 1.90909 0.0255368 4 7.1563e-05 2 0 0.0994487 0.106044
205 1 31.1434 2.66402 0.0761253 4 7.82841e-05 2 0 0.0994487 0.70882
206 1 0.293831 3.78503 0.918557 4 1.44368e-11 2 0 0.0994487 -0.999347
207 1 0.143046 4.59443 0.482118 4 1.73879e-11 2 0 0.0994487 -0.784494
208 1 1.14036 4.67093 0.986638 4 6.87794e-11 2 0 0.0994487 -0.516753
209 1 0.0884667 5.26681 1.27761 4 2.26456e-11 2 0 0.0994487 -0.887458
210 1 1.04069 3.86421 0.0595682 4 3.08183e-11 2 0 0.0994487 0.0148879
211 1 1.84117 4.04604 0.847105 4 1.29053e-10 2 0 0.0994487 0.00826848
212 1 2.54049 4.85585 1.13748 4 5.09532e-10 2 0 0.0994487 -0.333846
213 1 2.64953 4.14475 0.20674 4 3.79683e-10 2 0 0.0994487 -0.0285721
214 1 1.89758 4.96895 0.278386 4 2.19675e-10 2 0 0.0994487 -0.153433
215 1 3.40771 4.86189 0.161635 4 1.50515e-09 2 0 0.0994487 -0.016388
216 1 3.494 4.07675 0.885909 4 1.17324e-09 2 0 0.0994487 0.0268938
217 1 4.91235 4.00001 1.18344 4 7.00066e-09 2 0 0.0994487 0.0115119
218 1 4.04658 4.88002 1.14639 4 3.81014e-09 2 0 0.0994487 0.26449
219 1 4.26027 4.18509 0.149001 4 3.00355e-09 2 0 0.0994487 0.0377384
220 1 5.00947 4.74001 0.341082 4 1.117e-08 2 0 0.0994487 0.0765402
221 1 5.77735 3.9378 0.198707 4 1.56365e-08 2 0 0.0994487 0.0260161
222 1 6.48883 3.76611 0.772067 4 4.03644e-08 2 0 0.0994487 0.204554
223 1 5.68025 4.73638 1.02487 4 2.83759e-08 2 0 0.0994487 -0.621682
224 1 6.66321 4.5115 1.6428 4 7.28343e-08 2 0 0.0994487 0.158934
225 1 6.68072 5.1315 0.885352 4 1.19314e-07 2 0 0.0994487 0.206858
226 1 8.1982 3.892 0.700757 4 3.53331e-07 2 0 0.0994487 -0.369899
227 1 7.40842 4.46072 0.5468 4 1.90427e-07 2 0 0.0994487 -0.0252116
228 1 7.39886 3.87029 1.49684 4 1.26673e-07 2 0 0.0994487 0.102578
229 1 8.20004 4.61106 1.48677 4 5.23569e-07 2 0 0.0994487 -0.0118364
230 1 9.8976 3.57792 0.885667 4 1.79451e-06 2 0 0.0994487 0.592796
231 1 9.07913 4.56551 0.821335 4 1.37548e-06 2 0 0.0994487 -0.658539
232 1 9.86266 4.50302 0.126324 4 2.47357e-06 2 0 0.0994487 0.0958662
233 1 9.07829 3.76256 1.49819 4 8.37727e-07 2 0 0.0994487 -0.0708848
234 1 9.86881 4.3462 1.65532 4 2.78158e-06 2 0 0.0994487 -0.0856617
235 1 8.98541 3.86821 0.0631775 4 7.13273e-07 2 0 0.0994487 -0.138753
236 1 11.408 3.64493 0.778297 4 8.84561e-06 2 0 0.0994487 0.202068
237 1 10.5891 4.66652 0.906264 4 7.28548e-06 2 0 0.0994487 0.045084
238 1 11.3867 4.69403 0.230734 4 1.59266e-05 2 0 0.0994487 -0.0498891
239 1 10.7059 3.56689 1.58785 4 4.09566e-06 2 0 0.0994487 -0.0448484
240 1 11.3652 4.3716 1.70545 4 1.28813e-05 2 0 0.0994487 -0.0798269
241 1 11.3894 5.27213 0.983682 4 2.30974e-05 2 0 0.0994487 -0.674474
242 1 10.5826 3.84888 0.176129 4 3.77926e-06 2 0 0.0994487 0.210467
243 1 12.5168 3.57716 0.814749 4 2.47511e-05 2 0 0.0994487 -0.0105744
244 1 12.1916 4.55033 1.00021 4 3.364e-05 2 0 0.0994487 0.105055
245 1 12.7362 4.99738 1.68903 4 6.37284e-05 2 0 0.0994487 0.19133
246 1 13.2258 4.67863 0.80017 4 9.5635e-05 2 0 0.0994487 -0.00469384
247 1 12.6435 4.61885 0.0632315 4 5.1708e-05 2 0 0.0994487 -0.0335795
248 1 13.9891 4.12825 0.69648 4 0.000132089 2 0 0.0994487 -0.430175
249 1 13.4832 4.21781 1.59317 4 8.27698e-05 2 0 0.0994487 0.0820189
250 1 14.2046 5.11838 1.52001 4 0.000281706 2 0 0.0994487 -0.0289898
251 1 14.9402 5.01141 0.811699 4 0.000474804 2 0 0.0994487 -0.0526881
252 1 14.9642 4.4167 1.59432 4 0.000329147 2 0 0.0994487 -0.0635608
253 1 14.1405 4.90647 0.0597868 4 0.000222071 2 0 0.0994487 -0.0856935
254 1 14.961 4.19423 0.096508 4 0.000258955 2 0 0.0994487 0.0322737
255 1 15.6685 4.06642 0.926277 4 0.00044463 2 0 0.0994487 0.872593
256 1 15.8798 4.77595 0.186426 4 0.000765161 2 0 0.0994487 0.165392
257 1 16.5936 4.58036 0.900182 4 0.00122803 2 0 0.0994487 -0.078963
258 1 16.3184 3.95875 1.6903 4 0.000663702 2 0 0.0994487 -0.0433955
259 1 15.8111 5.05317 1.64084 4 0.000872273 2 0 0.0994487 0.0995012
260 1 17.2689 3.83372 0.811237 4 0.00120094 2 0 0.0994487 -0.345381
261 1 18.0864 4.48855 1.09806 4 0.00286438 2 0 0.0994487 -0.612137
262 1 17.9525 3.63794 1.65602 4 0.00151957 2 0 0.0994487 -0.192804
263 1 17.4569 4.57727 0.0147963 4 0.00182625 2 0 0.0994487 -0.0974087
264 1 18.1348 3.8547 0.0583493 4 0.00174859 2 0 0.0994487 -0.120516
265 1 18.8779 3.70667 0.95022 4 0.00245526 2 0 0.0994487 0.0692372
266 1 18.8235 4.60949 0.361826 4 0.00422493 2 0 0.0994487 0.115611
267 1 19.6906 4.67872 1.0803 4 0.00762909 2 0 0.0994487 0.931521
268 1 18.7859 5.27693 1.20102 4 0.00718733 2 0 0.0994487 0.599115
269 1 19.5987 3.76722 0.227421 4 0.00325838 2 0 0.0994487 0.16427
270 1 20.4384 3.82188 1.23329 4 0.00524983 2 0 0.0994487 0.325953
271 1 20.8846 4.71868 1.39403 4 0.0136022 2 0 0.0994487 0.149058
272 1 21.5775 4.95128 0.810455 4 0.0210844 2 0 0.0994487 -0.00375799
273 1 21.0824 3.93136 0.512408 4 0.00707376 2 0 0.0994487 0.0883022
274 1 20.1339 4.78559 0.352846 4 0.00985637 2 0 0.0994487 0.145587
275 1 22.8205 3.63186 1.42135 4 0.00729303 2 0 0.0994487 -0.0184026
276 1 21.9406 4.13318 1.31068 4 0.0107021 2 0 0.0994487 0.0272013
277 1 22.4705 5.17735 1.27286 4 0.0290011 2 0 0.0994487 0.0206993
278 1 22.6119 4.34705 0.510028 4 0.0135193 2 0 0.0994487 -0.0221099
279 1 23.5735 3.63903 0.782677 4 0.00747579 2 0 0.0994487 0.185551
280 1 24.336 4.32055 0.625018 4 0.0122111 2 0 0.0994487 -0.150099
281 1 23.4679 4.54946 1.33355 4 0.0167192 2 0 0.0994487 -0.0790615
282 1 24.8518 5.25716 0.566763 4 0.0216109 2 0 0.0994487 0.0409002
283 1 23.5518 5.06386 0.533607 4 0.025108 2 0 0.0994487 -0.0968952
284 1 25.0086 4.50055 1.62342 4 0.0115455 2 0 0.0994487 -0.0421984
285 1 25.0629 3.68037 0.802132 4 0.00585695 2 0 0.0994487 -0.187925
286 1 24.363 5.28843 1.43377 4 0.0262782 2 0 0.0994487 -0.154717
287 1 25.6904 5.1389 1.34266 4 0.0148699 2 0 0.0994487 0.210093
288 1 26.3575 4.29031 1.37159 4 0.00582432 2 0 0.0994487 0.149477
289 1 26.5026 4.97257 0.640732 4 0.00863464 2 0 0.0994487 0.0989616
290 1 25.5284 4.40089 0.388179 4 0.00871095 2 0 0.0994487 0.0559445
291 1 27.3302 4.86961 1.40568 4 0.00505573 2 0 0.0994487 0.00660607
292 1 27.9624 3.97641 1.10408 4 0.00173764 2 0 0.0994487 -0.309514
293 1 28.2771 4.73475 0.706344 4 0.00243365 2 0 0.0994487 -0.0812516
294 1 27.0674 4.04323 0.570038 4 0.00322448 2 0 0.0994487 0.0120187
295 1 28.9321 3.77016 0.487204 4 0.000740685 2 0 0.0994487 -0.0070342
296 1 29.0873 4.52317 1.33085 4 0.00116523 2 0 0.0994487 0.0574837
297 1 29.9979 4.07209 1.02303 4 0.000420811 2 0 0.0994487 -0.275238
298 1 31.0296 3.97382 0.373364 4 0.000196926 2 0 0.0994487 0.657583
299 1 30.2046 4.67765 0.491317 4 0.000541142 2 0 0.0994487 0.00995765
300 1 30.9783 4.59929 1.41131 4 0.000299593 2 0 0.0994487 0.679914
301 1 0.908283 5.53205 0.461647 4 7.73743e-11 2 0 0.0994487 -0.463785
302 1 1.53161 5.51184 1.37971 4 1.69235e-10 2 0 0.0994487 -0.117387
303 1 0.793684 6.22023 1.2768 4 8.99071e-11 2 0 0.0994487 -0.703381
304 1 0.257003 6.91734 1.50738 4 5.65866e-11 2 0 0.0994487 -0.772633
305 1 0.969942 6.9454 0.573423 4 1.59795e-10 2 0 0.0994487 -0.473533
306 1 1.7053 7.02884 1.23811 4 4.18742e-10 2 0 0.0994487 0.066518
307 1 1.89588 6.19966 0.519025 4 4.091e-10 2 0 0.0994487 -0.1564
308 1 3.10475 5.61709 1.30057 4 1.56426e-09 2 0 0.0994487 0.0402527
309 1 2.26359 6.15348 1.40977 4 5.94715e-10 2 0 0.0994487 0.0408561
310 1 3.25442 6.96226 1.12748 4 3.91115e-09 2 0 0.0994487 -0.0541235
311 1 2.68177 5.61289 0.273587 4 8.76978e-10 2 0 0.0994487 -0.0596856
312 1 3.39503 6.28191 0.500536 4 3.53935e-09 2 0 0.0994487 -0.121444
313 1 4.18979 5.46246 0.325783 4 6.12669e-09 2 0 0.0994487 0.0310178
314 1 4.93434 5.42873 1.31778 4 1.77171e-08 2 0 0.0994487 -0.2351
315 1 4.13622 6.09659 1.22779 4 8.97581e-09 2 0 0.0994487 -0.0893888
316 1 4.82567 6.23357 0.333842 4 2.12286e-08 2 0 0.0994487 -0.0345756
317 1 4.77312 6.79931 1.15967 4 2.99431e-08 2 0 0.0994487 -0.30593
318 1 4.00267 7.02511 0.221759 4 1.0306e-08 2 0 0.0994487 -0.0853438
319 1 5.78575 5.42185 0.301847 4 4.30909e-08 2 0 0.0994487 0.0125025
320 1 5.6935 6.24342 0.9632 4 6.80181e-08 2 0 0.0994487 -0.967779
321 1 6.4578 5.98425 1.59671 4 1.40421e-07 2 0 0.0994487 0.140915
322 1 6.43234 6.86927 1.00965 4 2.36396e-07 2 0 0.0994487 0.851675
323 1 6.37773 6.04115 0.154639 4 1.06454e-07 2 0 0.0994487 0.111113
324 1 5.54993 7.05206 0.147147 4 6.98877e-08 2 0 0.0994487 0.0363867
325 1 8.21355 5.31419 0.694273 4 8.2265e-07 2 0 0.0994487 -0.089591
326 1 7.32761 6.15925 0.754293 4 4.54152e-07 2 0 0.0994487 0.225733
327 1 7.39163 5.41839 1.49138 4 3.18585e-07 2 0 0.0994487 0.136754
328 1 8.23884 6.11028 1.49159 4 1.3118e-06 2 0 0.0994487 0.0187378
329 1 8.01352 6.85364 0.728993 4 1.4967e-06 2 0 0.0994487 0.0691877
330 1 7.28191 6.86379 1.59601 4 6.62217e-07 2 1 0.0994487 0.126051
331 1 7.33029 5.3575 0.0461812 4 2.3047e-07 2 0 0.0994487 0.0813572
332 1 9.76796 5.3194 0.792562 4 4.28909e-06 2 0 0.0994487 0.328449
333 1 8.88016 6.18865 0.736908 4 2.83772e-06 2 0 0.0994487 -0.23554
334 1 9.05434 5.3271 1.5973 4 2.05006e-06 2 0 0.0994487 -0.0628305
335 1 9.73844 6.19052 1.46731 4 7.25403e-06 2 0 0.0994487 -0.106403
336 1 9.09351 6.95013 1.463 4 5.88126e-06 2 2 0.0994487 -0.0756721
337 1 9.76329 6.23201 0.0941385 4 6.33384e-06 2 0 0.0994487 -0.0359514
338 1 8.99733 5.46479 0.012702 4 1.7467e-06 2 0 0.0994487 -0.134753
339 1 10.5831 6.02196 0.964384 4 1.54488e-05 2 0 0.0994487 -0.356501
340 1 11.3128 6.37134 0.0776634 4 2.82872e-05 2 0 0.0994487 0.100342
341 1 10.5187 6.94145 0.15452 4 1.89688e-05 2 0 0.0994487 -0.0735397
342 1 10.4686 6.92564 1.49614 4 2.34335e-05 2 1 0.0994487 -0.0635281
343 1 11.9994 5.6274 0.183157 4 4.3436e-05 2 0 0.0994487 -0.0105304
344 1 12.6757 5.81849 0.861776 4 0.000105804 2 0 0.0994487 0.0817467
345 1 11.7774 6.20735 1.05291 4 5.35883e-05 2 0 0.0994487 0.292167
346 1 13.3219 5.86668 1.55471 4 0.000186873 2 0 0.0994487 0.208167
347 1 13.3506 6.58297 0.813679 4 0.000309029 2 0 0.0994487 -0.292118
348 1 13.3212 5.53867 0.0424813 4 0.000154471 2 0 0.0994487 -0.14291
349 1 14.0617 5.71565 0.77266 4 0.000354951 2 0 0.0994487 -0.372678
350 1 14.3278 6.65176 1.40646 4 0.00080954 2 1 0.0994487 -0.103112
351 1 14.1303 6.38483 0.0380077 4 0.000448559 2 0 0.0994487 -0.08261
352 1 15.0282 5.64393 0.034369 4 0.000652218 2 0 0.0994487 0.0573645
353 1 15.8305 5.73813 0.95832 4 0.00145125 2 0 0.0994487 0.625792
354 1 15.0472 6.45091 0.806774 4 0.00122161 2 0 0.0994487 -0.176052
355 1 16.491 6.45257 1.1401 4 0.00367857 2 0 0.0994487 0.208329
356 1 15.1058 5.87594 1.69804 4 0.000953544 2 0 0.0994487 -0.0976574
357 1 16.62 5.41933 0.276819 4 0.0019107 2 0 0.0994487 0.0799238
358 1 15.6753 6.3382 0.0390223 4 0.00157356 2 0 0.0994487 0.0398522
359 1 17.8271 5.30128 0.541411 4 0.00389692 2 0 0.0994487 0.15033
360 1 17.113 5.42499 1.24767 4 0.00295518 2 0 0.0994487 -0.28657
361 1 17.0619 6.27419 0.411469 4 0.00444583 2 0 0.0994487 0.138953
362 1 17.6649 6.24649 1.38542 4 0.00695931 2 0 0.0994487 -0.254249
363 1 18.2745 7.0517 1.13153 4 0.0156057 2 1 0.0994487 0.631135
364 1 18.3714 6.23173 0.609762 4 0.0103796 2 0 0.0994487 0.156185
365 1 19.429 5.75829 0.62055 4 0.0146355 2 0 0.0994487 0.0571896
366 1 19.3279 6.55755 1.35081 4 0.0237787 2 1 0.0994487 0.274726
367 1 19.9942 6.75229 0.610261 4 0.0397608 2 0 0.0994487 -0.0119172
368 1 20.7494 5.77593 0.653722 4 0.0301219 2 0 0.0994487 -0.104066
369 1 20.1931 5.61076 1.39557 4 0.0204496 2 0 0.0994487 0.312025
370 1 20.7787 6.6124 1.30355 4 0.059653 2 1 0.0994487 -0.344522
371 1 21.6592 6.66248 0.666524 4 0.070534 2 0 0.0994487 -0.0435289
372 1 21.6631 5.87866 1.38528 4 0.0472162 2 0 0.0994487 0.0420706
373 1 21.6904 5.73259 0.0517844 4 0.0345554 2 0 0.0994487 -0.0015033
374 1 22.6732 5.8279 0.674154 4 0.0466413 2 0 0.0994487 0.00264411
375 1 22.6319 6.69333 1.20734 4 0.0923334 2 0 0.0994487 -0.201975
376 1 23.3484 6.78052 0.267835 4 0.0785342 2 0 0.0994487 -0.125389
377 1 23.4822 5.88496 1.30013 4 0.0511734 2 0 0.0994487 -0.176414
378 1 24.3197 6.56281 1.15825 4 0.0634378 2 0 0.0994487 0.173482
379 1 24.1457 6.00685 0.427617 4 0.0442907 2 0 0.0994487 0.00243057
380 1 25.6831 5.86213 0.700952 4 0.0236154 2 0 0.0994487 0.163888
381 1 25.1124 6.04132 1.67733 4 0.033885 2 0 0.0994487 0.00366254
382 1 25.1593 6.74159 0.495153 4 0.0474328 2 0 0.0994487 0.0903818
383 1 25.8251 6.59457 1.40775 4 0.0334298 2 0 0.0994487 0.0880908
384 1 26.6903 5.84511 1.4763 4 0.0141668 2 0 0.0994487 0.0917567
385 1 27.4966 5.54334 0.722172 4 0.00683322 2 0 0.0994487 -0.251578
386 1 26.7485 6.36567 0.651888 4 0.0178822 2 0 0.0994487 0.0387445
387 1 27.7011 6.47315 1.36539 4 0.0103928 2 0 0.0994487 0.131489
388 1 28.3648 5.52203 1.4872 4 0.00371899 2 0 0.0994487 0.0456314
389 1 27.7097 7.0074 0.530173 4 0.012753 2 0 0.0994487 0.0321198
390 1 29.3889 5.30889 0.818726 4 0.00158297 2 0 0.0994487 0.316717
391 1 29.4379 6.18214 1.32212 4 0.00227526 2 0 0.0994487 -0.00338234
392 1 29.5784 6.89773 0.506505 4 0.00279404 2 0 0.0994487 0.0925851
393 1 28.4685 6.20589 0.638647 4 0.00482204 2 0 0.0994487 -0.270086
394 1 29.3762 6.15398 0.0801838 4 0.00218689 2 0 0.0994487 0.0969253
395 1 28.4822 5.38976 0.0592959 4 0.00274208 2 0 0.0994487 -0.105004
396 1 30.9636 5.36838 0.595026 4 0.000509136 2 0 0.0994487 0.667848
397 1 30.2159 5.45949 1.46813 4 0.000845049 2 0 0.0994487 0.0540208
398 1 30.3958 6.18258 0.649752 4 0.00112502 2 0 0.0994487 0.329
399 1 31.2189 6.15516 1.38439 4 0.000600212 2 0 0.0994487 0.587257
400 1 31.1994 6.95407 0.60342 4 0.000875135 2 0 0.0994487 0.812252
401 1 31.7235 5.99622 0.446564 4 0.000410142 2 0 0.0994487 0.879729
402 1 0.261851 7.63199 0.661866 4 8.40433e-11 2 0 0.0994487 -0.876373
403 1 0.831025 8.46344 0.61936 4 2.16637e-10 2 0 0.0994487 -0.577626
404 1 1.11211 7.86396 1.49711 4 2.35135e-10 2 0 0.0994487 -0.154428
405 1 0.356955 8.5626 1.47035 4 1.14157e-10 2 0 0.0994487 -0.764984
406 1 1.59266 7.76478 0.37187 4 4.84191e-10 2 0 0.0994487 -0.0897879
407 1 1.72382 8.61735 1.46471 4 7.22809e-10 2 0 0.0994487 0.0395968
408 1 2.48799 7.14986 0.476331 4 1.46496e-09 2 0 0.0994487 -0.0836961
409 1 2.19177 8.6335 0.399707 4 1.48519e-09 2 0 0.0994487 -0.137268
410 1 2.39416 7.81099 1.27726 4 1.54847e-09 2 0 0.0994487 0.086992
411 1 3.01349 8.51445 0.935533 4 4.73069e-09 2 0 0.0994487 -0.539312
412 1 3.24418 7.77117 0.327041 4 5.02154e-09 2 0 0.0994487 -0.196205
413 1 3.81243 8.45898 0.0822892 4 1.14738e-08 2 0 0.0994487 -0.0457785
414 1 3.97971 7.67009 1.24863 4 1.36129e-08 2 0 0.0994487 -0.0554888
415 1 4.70459 8.25653 0.921772 4 4.36204e-08 2 0 0.0994487 0.295335
416 1 4.67023 7.63706 0.247803 4 3.0439e-08 2 0 0.0994487 0.0376921
417 1 3.81127 8.34851 1.76162 4 1.13703e-08 2 0 0.0994487 -0.0574359
418 1 5.86955 8.34822 0.169905 4 1.65892e-07 2 0 0.0994487 0.113106
419 1 5.48363 7.59071 1.03232 4 1.0251e-07 2 0 0.0994487 -0.467663
420 1 6.49365 7.53799 0.169175 4 2.80227e-07 2 0 0.0994487 0.187624
421 1 6.39674 8.23976 1.04384 4 4.258e-07 2 0 0.0994487 0.33816
422 1 7.28583 7.76918 0.746313 4 1.03098e-06 2 1 0.0994487 0.00993774
423 1 8.2859 8.31376 0.868772 4 4.25284e-06 2 2 0.0994487 0.278842
424 1 7.27857 8.18368 1.7015 4 1.49333e-06 2 2 0.0994487 -0.174644
425 1 8.05208 7.48784 1.5604 4 2.36706e-06 2 1 0.0994487 0.185102
426 1 7.99895 7.60312 0.0282118 4 1.5424e-06 2 0 0.0994487 0.0674134
427 1 9.84313 7.22199 0.72344 4 1.38347e-05 2 1 0.0994487 -0.346912
428 1 8.91207 7.61626 0.661731 4 6.03339e-06 2 1 0.0994487 0.158744
429 1 9.73234 8.61964 0.693151 4 2.23239e-05 2 3 0.0994487 -0.257263
430 1 9.09265 8.69904 1.44495 4 1.43533e-05 2 9 0.0994487 -0.394556
431 1 9.64026 7.88932 1.60055 4 1.9323e-05 2 8 0.0994487 -0.340168
432 1 11.3161 7.14287 0.810636 4 5.46446e-05 2 1 0.0994487 0.448484
433 1 10.5731 7.9454 0.844311 4 3.9927e-05 2 3 0.0994487 -0.198619
434 1 10.5877 8.70196 1.4255 4 6.10099e-05 1 8 0.0994487 -0.148017
435 1 11.4057 7.80503 1.60301 4 9.74066e-05 2 7 0.0994487 0.228032
436 1 11.227 8.11851 0.0422735 4 5.71771e-05 2 0 0.0994487 0.174328
437 1 12.7061 7.28322 0.565784 4 0.000238994 2 0 0.0994487 -0.0531415
438 1 12.178 8.23518 0.590765 4 0.000203921 2 2 0.0994487 0.163924
439 1 12.0637 7.15788 1.37768 4 0.000128965 2 3 0.0994487 0.145601