ITEM: TIMESTEP
52500
ITEM: NUMBER OF ATOMS
9495
ITEM: BOX BOUNDS mm mm mm
0.0000000000000000e+00 3.1748021039364001e+01
0.0000000000000000e+00 3.1748021039364001e+01
-7.4072398406925706e-04 3.1748021039364001e+01
ITEM: ATOMS id type x y z c_phase c_temp c_surf c_nbond c_visc f_3[1]
1 1 0.116341 1.10259 0.464337 4 0.00193454 2 0 0.0994487 -0.681941
2 1 0.974108 1.6685 0.77798 4 0.00242803 2 0 0.0994487 -0.517032
3 1 0.714648 0.793562 1.41295 4 0.00207235 2 0 0.0994487 -0.281794
4 1 0.00336375 1.60273 1.37437 4 0.00204439 2 0 0.0994487 -0.804051
5 1 0.729896 0.0633724 0.61602 4 0.00183216 3 0 0.0994487 -0.190374
6 1 1.71015 0.808983 1.0155 4 0.00267666 2 0 0.0994487 -0.33207
7 1 1.80059 1.47468 0.221075 4 0.00281879 2 0 0.0994487 -0.125829
8 1 1.82015 1.66049 1.76126 4 0.00294436 2 0 0.0994487 -0.139533
9 1 2.52093 0.749102 0.203812 4 0.00319052 2 0 0.0994487 -0.14294
10 1 2.59149 0.0538711 1.03726 4 0.00318848 2 0 0.0994487 -0.295005
11 1 2.64922 1.541 0.882848 4 0.00362091 2 0 0.0994487 0.235753
12 1 2.66829 0.815502 1.7457 4 0.00341786 2 0 0.0994487 -0.187041
13 1 3.43386 0.933692 0.956349 4 0.00434442 2 0 0.0994487 0.32024
14 1 3.49924 0.0925696 1.70571 4 0.00388803 2 0 0.0994487 0.178053
15 1 3.60652 1.70798 1.71994 4 0.00503833 2 0 0.0994487 0.0487945
16 1 4.10576 0.858321 0.325305 4 0.00538762 2 0 0.0994487 0.153145
17 1 4.96159 0.56786 1.17466 4 0.00757014 2 0 0.0994487 -0.037068
18 1 4.91949 1.59987 0.383508 4 0.00823695 2 0 0.0994487 -0.100249
19 1 4.3472 0.941527 1.62884 4 0.00602592 2 0 0.0994487 0.110737
20 1 3.47612 0.111428 0.171027 4 0.00378882 2 0 0.0994487 0.166215
21 1 5.64741 0.645627 0.325839 4 0.00969923 2 0 0.0994487 -0.0806054
22 1 5.88414 1.31048 0.938036 4 0.0110539 2 0 0.0994487 -0.199591
23 1 6.57478 1.39104 0.218369 4 0.0138691 2 0 0.0994487 -0.0861343
24 1 5.78374 0.460658 1.69897 4 0.00986306 2 0 0.0994487 -0.0846531
25 1 5.03122 1.72414 1.43602 4 0.00854078 2 0 0.0994487 0.0453709
26 1 6.7138 0.39031 0.865278 4 0.0133665 2 0 0.0994487 -0.0793825
27 1 6.69104 1.00962 1.69374 4 0.0136353 2 0 0.0994487 -0.107924
28 1 8.2679 0.408875 1.07337 4 0.0203037 2 0 0.0994487 -0.100167
29 1 7.36782 1.22285 0.954198 4 0.0171488 2 0 0.0994487 -0.302556
30 1 8.24709 1.39092 0.236779 4 0.0220908 2 0 0.0994487 -0.046065
31 1 8.12868 1.27217 1.60653 4 0.0208102 2 0 0.0994487 -0.00811774
32 1 7.58247 0.647807 0.140287 4 0.0173908 2 0 0.0994487 -0.110936
33 1 8.85849 0.508506 0.273966 4 0.0237041 2 0 0.0994487 -0.0616468
34 1 9.55301 0.3386 0.888639 4 0.0276545 2 0 0.0994487 0.00506326
35 1 9.02586 1.30716 1.1133 4 0.0266956 2 0 0.0994487 -0.0606478
37 1 9.63995 1.37474 0.0900752 4 0.0303615 2 0 0.0994487 0.0992908
38 1 11.2128 0.215893 0.632658 4 0.0409007 2 0 0.0994487 0.203502
39 1 10.3637 1.04743 0.823114 4 0.03552 2 0 0.0994487 0.539884
40 1 10.523 0.196295 1.44539 4 0.034531 2 0 0.0994487 0.0644282
41 1 11.2856 1.01846 1.41785 4 0.0458461 2 0 0.0994487 0.164706
42 1 10.5797 1.67706 1.72992 4 0.0411965 2 0 0.0994487 0.118163
43 1 10.2431 0.367861 0.0780499 4 0.0312258 2 0 0.0994487 0.149801
44 1 12.8757 0.211714 0.636805 4 0.0640391 2 0 0.0994487 0.0587868
45 1 12.0457 1.07408 0.506655 4 0.0571668 2 0 0.0994487 -0.0235521
46 1 12.1319 0.316439 1.29957 4 0.0542868 2 0 0.0994487 0.0188356
47 1 12.7194 1.19864 1.3723 4 0.0685942 2 0 0.0994487 -0.030529
48 1 14.3729 0.318493 0.764646 4 0.08844 2 0 0.0994487 -0.0460395
49 1 13.5924 1.113 0.843618 4 0.0830506 2 0 0.0994487 -0.263055
50 1 14.0399 1.55958 0.167469 4 0.0954276 2 0 0.0994487 -0.089826
51 1 13.6075 0.359834 1.6352 4 0.0762681 2 0 0.0994487 -0.0562643
52 1 14.3777 1.14948 1.47647 4 0.0939485 2 0 0.0994487 -0.0178293
53 1 14.8761 1.55337 0.662943 4 0.107213 2 0 0.0994487 0.389944
54 1 15.7061 0.770636 0.788259 4 0.111742 2 0 0.0994487 0.36648
55 1 16.5532 1.54451 0.681338 4 0.142638 2 0 0.0994487 0.000799661
56 1 15.1422 0.4642 1.64149 4 0.0986602 2 0 0.0994487 0.152076
57 1 16.547 0.712289 1.3421 4 0.130185 2 0 0.0994487 0.0956225
58 1 15.6341 1.48544 1.3916 4 0.120341 2 0 0.0994487 0.153627
59 1 15.1049 0.711806 0.0677822 4 0.0988327 2 0 0.0994487 0.169202
60 1 17.2544 0.732268 0.547589 4 0.14473 2 0 0.0994487 0.0286269
61 1 17.9231 1.58109 0.757246 4 0.171341 2 0 0.0994487 0.0415573
62 1 17.916 0.742935 1.42801 4 0.158894 2 0 0.0994487 -0.224381
63 1 17.2202 1.74884 1.56274 4 0.163183 2 0 0.0994487 -0.0984878
64 1 19.5372 0.0167772 0.662766 4 0.166518 2 0 0.0994487 0.0436423
65 1 18.7918 0.725074 0.684829 4 0.169078 2 0 0.0994487 -0.269948
66 1 19.5395 1.55488 0.841653 4 0.192695 2 0 0.0994487 -0.341167
67 1 19.0276 0.158607 1.54508 4 0.165158 2 0 0.0994487 -0.158666
68 1 19.5934 0.967491 1.68957 4 0.179963 2 0 0.0994487 0.00834831
69 1 18.6564 1.51302 1.50035 4 0.182204 2 0 0.0994487 -0.250313
70 1 21.0889 0.349843 1.06749 4 0.179696 2 0 0.0994487 -0.196128
71 1 20.2493 0.776373 0.980057 4 0.182008 2 0 0.0994487 -0.0497661
72 1 21.1062 1.65725 0.951506 4 0.201408 2 0 0.0994487 0.692905
73 1 21.1874 0.765598 0.218806 4 0.183393 2 0 0.0994487 -0.0445923
74 1 20.3457 1.51479 0.193617 4 0.19605 2 0 0.0994487 -0.0806042
75 1 22.0087 0.262534 0.539755 4 0.178471 2 0 0.0994487 0.0993577
76 1 22.7913 0.430275 1.40734 4 0.179236 2 0 0.0994487 0.206597
77 1 22.1105 1.14763 1.32981 4 0.189732 2 0 0.0994487 0.240018
78 1 21.9982 1.59955 0.538558 4 0.200557 2 0 0.0994487 0.185169
79 1 22.9157 1.07463 0.445168 4 0.186958 2 0 0.0994487 0.0520819
80 1 24.228 0.380179 1.45209 4 0.172394 2 0 0.0994487 0.0576152
81 1 23.5672 0.357563 0.57369 4 0.175781 2 0 0.0994487 0.038569
82 1 24.4367 1.18687 0.754729 4 0.182626 2 0 0.0994487 -0.0193
83 1 23.4757 1.2499 1.4028 4 0.190101 2 0 0.0994487 0.0298739
84 1 24.955 0.315686 0.551996 4 0.164118 2 0 0.0994487 -0.0172001
85 1 26.0085 0.383365 1.1715 4 0.15088 2 0 0.0994487 -0.185861
86 1 25.169 1.12579 1.48087 4 0.174145 2 0 0.0994487 0.0251035
87 1 25.9301 1.73476 1.35794 4 0.175886 2 0 0.0994487 0.0345346
88 1 25.8917 0.929212 0.432102 4 0.158846 2 0 0.0994487 -0.0954208
89 1 27.5736 1.28032 0.38906 4 0.139778 2 0 0.0994487 0.0454487
90 1 27.6142 0.50928 0.874321 4 0.132463 2 0 0.0994487 0.175387
91 1 26.7559 1.02809 1.26347 4 0.147265 2 0 0.0994487 -0.236888
92 1 28.3748 0.337482 1.39813 4 0.121107 2 0 0.0994487 0.00984398
93 1 26.7925 0.240345 0.226621 4 0.138702 2 0 0.0994487 0.0380744
94 1 28.6489 1.24263 0.742341 4 0.126497 2 0 0.0994487 0.102405
95 1 29.3912 0.945639 1.56878 4 0.114564 2 0 0.0994487 -0.0192008
96 1 28.5228 1.71921 1.49749 4 0.132937 2 0 0.0994487 -0.0429814
97 1 29.8133 0.173958 1.46124 4 0.105851 2 0 0.0994487 0.133416
98 1 29.2734 0.3547 0.615275 4 0.110817 2 0 0.0994487 -0.0816813
99 1 31.5874 0.266128 1.25663 4 0.0910625 3 0 0.0994487 0.830096
100 1 30.7016 0.49015 0.470738 4 0.100844 2 0 0.0994487 0.354852
101 1 30.1009 1.19877 0.774133 4 0.111525 2 0 0.0994487 0.21092
102 1 30.8649 0.971942 1.39386 4 0.103721 2 0 0.0994487 0.703281
103 1 1.11081 2.43607 0.129285 4 0.00264217 2 0 0.0994487 -0.0373225
104 1 0.133403 2.3821 0.812241 4 0.00233335 2 0 0.0994487 -0.984517
105 1 1.28845 3.23764 0.949187 4 0.00320301 2 0 0.0994487 0.22209
106 1 1.13977 2.36077 1.59162 4 0.00275031 2 0 0.0994487 -0.222189
107 1 0.386685 3.02999 1.54944 4 0.00265976 2 0 0.0994487 -0.671256
108 1 0.332248 3.09582 0.131296 4 0.00258863 2 0 0.0994487 -0.59134
109 1 1.90972 2.41867 0.78376 4 0.00327304 2 0 0.0994487 0.0782078
110 1 2.65852 3.28029 0.860875 4 0.00483345 2 0 0.0994487 0.0668027
111 1 2.66931 2.22918 1.53373 4 0.0039977 2 0 0.0994487 0.0829544
112 1 3.2579 3.42668 1.64938 4 0.0060748 2 0 0.0994487 0.00397423
113 1 2.7261 2.38168 0.0557193 4 0.00388059 2 0 0.0994487 0.1466
114 1 3.38195 2.55413 0.779289 4 0.00532795 2 0 0.0994487 0.211582
115 1 4.00679 1.841 0.711184 4 0.0060452 2 0 0.0994487 -0.0361248
116 1 4.91383 2.57277 0.815661 4 0.00947328 2 0 0.0994487 -0.259352
117 1 4.20148 3.3175 0.749446 4 0.00838799 2 0 0.0994487 0.00621413
118 1 4.13245 2.64107 1.58328 4 0.00716717 2 0 0.0994487 0.0270767
119 1 5.65047 2.44269 0.132743 4 0.0119014 2 0 0.0994487 -0.189926
120 1 6.55776 2.18062 0.772597 4 0.015155 2 0 0.0994487 -0.289391
121 1 5.64874 3.19593 0.952489 4 0.0134702 2 0 0.0994487 -0.75464
122 1 5.861 2.19426 1.49672 4 0.0120664 2 0 0.0994487 0.0126347
123 1 6.52037 3.06691 1.5557 4 0.0171587 2 0 0.0994487 0.0443564
124 1 6.65033 2.92778 0.134227 4 0.0168654 2 0 0.0994487 0.0288859
125 1 7.45405 2.22586 0.139832 4 0.0197738 2 0 0.0994487 -0.0535034
126 1 8.08209 2.20208 0.930382 4 0.0238118 2 0 0.0994487 -0.302081
127 1 7.40132 3.06835 0.934051 4 0.0226067 2 0 0.0994487 -0.0455371
128 1 7.29928 2.06035 1.56856 4 0.0184623 2 0 0.0994487 -0.0607336
129 1 8.18545 3.00183 1.65211 4 0.0281177 2 0 0.0994487 -0.0454168
130 1 8.26934 2.9712 0.0392146 4 0.0286907 2 0 0.0994487 -0.150618
131 1 8.90393 2.08699 0.252387 4 0.0287475 2 0 0.0994487 0.00243229
132 1 9.77243 2.0246 1.10996 4 0.0356738 2 0 0.0994487 0.173461
133 1 8.92671 2.97262 0.928693 4 0.034615 2 0 0.0994487 -0.156768
134 1 9.03062 2.22066 1.70398 4 0.0306698 2 0 0.0994487 -0.0819686
135 1 9.56096 2.90576 0.21312 4 0.0391651 2 0 0.0994487 0.173119
136 1 10.2834 2.1137 0.214297 4 0.03904 2 0 0.0994487 0.337738
137 1 11.1583 1.82604 0.771092 4 0.0493245 2 0 0.0994487 0.260087
138 1 10.6214 2.80819 0.921535 4 0.0517981 2 0 0.0994487 0.541915
139 1 11.4444 2.82964 1.57484 4 0.0653576 2 0 0.0994487 0.0951985
140 1 12.6737 1.94118 0.593851 4 0.076745 2 0 0.0994487 -0.283935
141 1 11.928 2.64099 0.742299 4 0.0712879 2 0 0.0994487 -0.0386753
142 1 11.9239 1.9206 1.46509 4 0.0619913 2 0 0.0994487 0.0946523
143 1 12.8449 3.01766 1.68597 4 0.0944911 2 0 0.0994487 0.0363558
144 1 13.1791 3.03035 0.848852 4 0.102673 2 0 0.0994487 -0.440859
145 1 13.3784 1.9912 1.48064 4 0.0882793 2 0 0.0994487 -0.0150716
146 1 14.0206 2.44438 0.927124 4 0.10834 2 0 0.0994487 -0.133109
147 1 14.0279 3.38359 1.55716 4 0.129165 2 0 0.0994487 0.0255732
148 1 14.6961 3.43698 0.884932 4 0.148261 2 0 0.0994487 -0.332978
149 1 14.7823 2.29758 1.44821 4 0.119778 2 0 0.0994487 0.046925
150 1 14.8418 2.51505 0.136557 4 0.125457 2 0 0.0994487 0.173003
151 1 14.1591 3.2262 0.0325348 4 0.129105 2 0 0.0994487 -0.246106
152 1 13.4137 2.29398 0.0590902 4 0.095355 2 0 0.0994487 -0.280962
153 1 15.6993 2.44373 0.692668 4 0.143483 2 0 0.0994487 0.364386
154 1 16.3029 3.20095 0.662084 4 0.181028 2 0 0.0994487 0.328581
155 1 16.308 2.47951 1.52575 4 0.161183 2 0 0.0994487 -0.100651
156 1 15.3694 3.25723 1.50191 4 0.160815 2 0 0.0994487 -0.0076722
157 1 15.5706 3.25854 0.0192499 4 0.158942 2 0 0.0994487 0.290236
158 1 17.0646 2.35032 0.682778 4 0.174046 2 0 0.0994487 0.0234753
159 1 17.944 2.92608 0.699539 4 0.218582 2 0 0.0994487 -0.231197
160 1 18.0193 2.43917 1.58112 4 0.199803 2 0 0.0994487 -0.14914
161 1 17.0918 3.1162 1.49491 4 0.204259 2 0 0.0994487 -0.143442
162 1 18.8908 2.35742 1.01358 4 0.210894 2 0 0.0994487 -0.516839
163 1 19.7027 3.2427 1.27782 3 0.256196 2 0 0.0994137 0.394873
164 1 18.884 2.99607 0.196019 4 0.236959 2 0 0.0994487 -0.171812
165 1 19.587 2.34239 0.101452 4 0.217265 2 0 0.0994487 -0.132372
166 1 20.3251 1.78863 1.72442 4 0.200474 2 0 0.0994487 0.0449502
167 1 21.1565 2.41663 0.458355 4 0.227218 2 0 0.0994487 0.196184
168 1 20.1948 2.46882 1.11433 4 0.223482 2 0 0.0994487 0.286728
169 1 21.31 3.29463 1.39314 3 0.27433 2 0 0.0992976 0.0777253
170 1 20.4222 2.99313 0.334941 4 0.247085 2 0 0.0994487 0.186287
171 1 22.8719 2.07007 1.50872 4 0.216987 2 0 0.0994487 -0.0221263
172 1 22.9717 2.60199 0.735523 4 0.243748 2 0 0.0994487 0.133322
173 1 22.0961 2.49917 1.23787 4 0.236565 2 0 0.0994487 0.186432
174 1 21.9898 3.20043 0.598797 3 0.276124 2 0 0.0992849 -0.0757547
175 1 22.6771 3.40124 0.07601 3 0.290149 2 0 0.0991778 0.0760723
176 1 23.7438 1.80844 0.624025 4 0.202744 2 0 0.0994487 -0.0873621
177 1 24.4289 1.98763 1.61102 4 0.204256 2 0 0.0994487 -0.0641772
178 1 24.342 2.68296 0.775192 4 0.232114 2 0 0.0994487 -0.341096
179 1 23.6887 2.90303 1.53628 3 0.25081 2 0 0.0994443 -0.110507
180 1 24.4728 3.51078 1.55704 3 0.277057 2 0 0.0992782 -0.118307
181 1 24.9562 2.84566 0.0146836 4 0.227132 2 0 0.0994487 -0.0864601
182 1 26.5483 1.79415 0.511367 4 0.165029 2 0 0.0994487 -0.00560104
183 1 25.1322 1.85613 0.509414 4 0.191823 2 0 0.0994487 -0.0215305
184 1 25.7918 2.61203 0.707489 4 0.20734 2 0 0.0994487 0.2282
185 1 25.1579 2.55548 1.52547 4 0.21623 2 0 0.0994487 0.0576655
186 1 25.7213 3.49812 1.51211 3 0.252067 2 0 0.0994373 0.123856
187 1 26.5364 2.56002 1.53049 4 0.188159 2 0 0.0994487 0.0579468
188 1 26.1686 3.50068 0.599043 4 0.240134 2 0 0.0994487 0.168844
189 1 27.5039 1.98546 1.23792 4 0.151962 2 0 0.0994487 -0.18642
190 1 28.2489 2.09022 0.343734 4 0.142721 2 0 0.0994487 -0.0177252
191 1 27.0867 2.6924 0.645359 4 0.179166 2 0 0.0994487 -0.105602
192 1 27.1998 3.35397 1.41682 4 0.199862 2 0 0.0994487 -0.0983292
193 1 28.2537 2.75799 1.20639 4 0.156326 2 0 0.0994487 -0.418307
194 1 27.982 3.21993 0.326384 4 0.172943 2 0 0.0994487 -0.125257
195 1 29.9568 1.80906 1.70764 4 0.119095 2 0 0.0994487 0.183201
196 1 29.4477 2.04702 0.879698 4 0.127671 2 0 0.0994487 -0.00708397
197 1 29.1956 2.6589 0.290703 4 0.139466 2 0 0.0994487 -0.0578285
198 1 29.2495 3.2651 1.17365 4 0.15161 2 0 0.0994487 0.118634
199 1 30.9114 1.98502 0.924207 4 0.116773 2 0 0.0994487 0.967251
200 1 30.1815 2.71094 1.00186 4 0.130755 2 0 0.0994487 0.675108
201 1 31.0247 3.35309 0.97101 4 0.136024 2 0 0.0994487 0.998409
202 1 30.9865 2.69483 1.72648 4 0.125983 2 0 0.0994487 0.578501
203 1 30.1092 3.25953 0.132205 4 0.138026 2 0 0.0994487 -0.0443659
204 1 30.4116 1.90909 0.0255368 4 0.116964 2 0 0.0994487 0.106045
205 1 31.1434 2.66402 0.0761253 4 0.122735 2 0 0.0994487 0.70882
206 1 0.293831 3.78503 0.918557 4 0.00294873 2 0 0.0994487 -0.999347
207 1 0.143046 4.59443 0.482118 4 0.00323718 2 0 0.0994487 -0.784494
208 1 1.14036 4.67093 0.986638 4 0.00400426 2 0 0.0994487 -0.516749
209 1 0.0884667 5.26681 1.27761 4 0.00361579 2 0 0.0994487 -0.887458
210 1 1.04069 3.86421 0.0595682 4 0.00325465 2 0 0.0994487 0.014888
211 1 1.84117 4.04604 0.847105 4 0.00434942 2 0 0.0994487 0.00826723
212 1 2.54049 4.85585 1.13748 4 0.00627782 2 0 0.0994487 -0.333848
213 1 2.64953 4.14475 0.20674 4 0.00578276 2 0 0.0994487 -0.0285726
214 1 1.89758 4.96895 0.278386 4 0.0052711 2 0 0.0994487 -0.153434
215 1 3.40771 4.86189 0.161635 4 0.00842182 2 0 0.0994487 -0.0163889
216 1 3.494 4.07675 0.885909 4 0.00752979 2 0 0.0994487 0.0268901
217 1 4.91235 4.00001 1.18344 4 0.0121477 2 0 0.0994487 0.0115042
218 1 4.04658 4.88002 1.14639 4 0.0104411 2 0 0.0994487 0.264487
219 1 4.26027 4.18509 0.149001 4 0.0100763 2 0 0.0994487 0.0377373
220 1 5.00947 4.74001 0.341082 4 0.0144838 2 0 0.0994487 0.0765381
221 1 5.77735 3.9378 0.198707 4 0.0156282 2 0 0.0994487 0.0260146
222 1 6.48883 3.76611 0.772067 4 0.0192064 2 0 0.0994487 0.20455
223 1 5.68025 4.73638 1.02487 4 0.0184981 2 0 0.0994487 -0.621713
224 1 6.66321 4.5115 1.6428 4 0.0236348 2 0 0.0994487 0.158931
225 1 6.68072 5.1315 0.885352 4 0.0277164 2 0 0.0994487 0.206845
226 1 8.1982 3.892 0.700757 4 0.0346888 2 0 0.0994487 -0.369905
227 1 7.40842 4.46072 0.5468 4 0.0306138 2 0 0.0994487 -0.0252151
228 1 7.39886 3.87029 1.49684 4 0.0263771 2 0 0.0994487 0.102575
229 1 8.20004 4.61106 1.48677 4 0.040253 2 0 0.0994487 -0.0118399
230 1 9.8976 3.57792 0.885667 4 0.0511458 2 0 0.0994487 0.592767
231 1 9.07913 4.56551 0.821335 4 0.0516098 2 0 0.0994487 -0.658549
232 1 9.86266 4.50302 0.126324 4 0.0598716 2 0 0.0994487 0.0958644
233 1 9.07829 3.76256 1.49819 4 0.0431267 2 0 0.0994487 -0.0708872
234 1 9.86881 4.3462 1.65532 4 0.0609969 2 0 0.0994487 -0.0856638
235 1 8.98541 3.86821 0.0631775 4 0.0424274 2 0 0.0994487 -0.138755
236 1 11.408 3.64493 0.778297 4 0.0770426 2 0 0.0994487 0.202064
237 1 10.5891 4.66652 0.906264 4 0.0777985 2 0 0.0994487 0.04507
238 1 11.3867 4.69403 0.230734 4 0.096023 2 0 0.0994487 -0.0498908
239 1 10.7059 3.56689 1.58785 4 0.0635821 2 0 0.0994487 -0.0448507
240 1 11.3652 4.3716 1.70545 4 0.0895802 2 0 0.0994487 -0.0798287
241 1 11.3894 5.27213 0.983682 4 0.108879 2 0 0.0994487 -0.674479
242 1 10.5826 3.84888 0.176129 4 0.0634266 2 0 0.0994487 0.210465
243 1 12.5168 3.57716 0.814749 4 0.0995468 2 0 0.0994487 -0.0105785
244 1 12.1916 4.55033 1.00021 4 0.112888 2 0 0.0994487 0.105045
245 1 12.7362 4.99738 1.68903 4 0.135823 2 0 0.0994487 0.191329
246 1 13.2258 4.67863 0.80017 4 0.145721 2 0 0.0994487 -0.00469985
247 1 12.6435 4.61885 0.0632315 4 0.128809 2 0 0.0994487 -0.0335804
248 1 13.9891 4.12825 0.69648 4 0.152633 2 0 0.0994487 -0.430181
249 1 13.4832 4.21781 1.59317 4 0.137187 2 0 0.0994487 0.0820168
250 1 14.2046 5.11838 1.52001 4 0.1933 2 0 0.0994487 -0.0289916
251 1 14.9402 5.01141 0.811699 4 0.217176 2 0 0.0994487 -0.0527642
252 1 14.9642 4.4167 1.59432 4 0.192679 2 0 0.0994487 -0.0635644
253 1 14.1405 4.90647 0.0597868 4 0.18353 2 0 0.0994487 -0.0856951
254 1 14.961 4.19423 0.096508 4 0.179984 2 0 0.0994487 0.0322709
255 1 15.6685 4.06642 0.926277 4 0.198998 2 0 0.0994487 0.872586
256 1 15.8798 4.77595 0.186426 4 0.239048 2 0 0.0994487 0.165386
257 1 16.5936 4.58036 0.900182 3 0.260686 2 0 0.0993869 -0.0790328
258 1 16.3184 3.95875 1.6903 4 0.217928 2 0 0.0994487 -0.0434735
259 1 15.8111 5.05317 1.64084 3 0.254169 2 0 0.0994254 0.0973221
260 1 17.2689 3.83372 0.811237 4 0.24475 2 0 0.0994487 -0.345397
261 1 18.0864 4.48855 1.09806 3 0.30851 2 0 0.0990131 -0.614238
262 1 17.9525 3.63794 1.65602 3 0.252971 2 0 0.0994322 -0.192811
263 1 17.4569 4.57727 0.0147963 3 0.28616 2 0 0.0992098 -0.0974141
264 1 18.1348 3.8547 0.0583493 3 0.265017 2 0 0.0993598 -0.12052
265 1 18.8779 3.70667 0.95022 3 0.272107 2 0 0.099313 0.0691903
266 1 18.8235 4.60949 0.361826 3 0.324864 2 0 0.098839 0.115604
267 1 19.6906 4.67872 1.0803 3 0.367406 2 0 0.09823 0.933866
268 1 18.7859 5.27693 1.20102 3 0.406935 2 0 0.0973855 0.616325
269 1 19.5987 3.76722 0.227421 3 0.281193 2 0 0.0992479 0.164266
270 1 20.4384 3.82188 1.23329 3 0.303647 2 0 0.0990597 0.325948
271 1 20.8846 4.71868 1.39403 3 0.40673 2 0 0.0973907 0.153757
272 1 21.5775 4.95128 0.810455 3 0.456712 2 0 0.0957423 -0.00255466
273 1 21.0824 3.93136 0.512408 3 0.320399 2 0 0.0988893 0.0882996
274 1 20.1339 4.78559 0.352846 3 0.382686 2 0 0.0979414 0.145583
275 1 22.8205 3.63186 1.42135 3 0.306809 2 0 0.0990296 -0.0184025
276 1 21.9406 4.13318 1.31068 3 0.352292 2 0 0.0984759 0.0272182
277 1 22.4705 5.17735 1.27286 3 0.497022 2 0 0.0937095 0.022101
278 1 22.6119 4.34705 0.510028 3 0.374448 2 0 0.0981022 -0.0221092
279 1 23.5735 3.63903 0.782677 3 0.304607 2 0 0.0990506 0.185553
280 1 24.336 4.32055 0.625018 3 0.353151 2 0 0.0984629 -0.150097
281 1 23.4679 4.54946 1.33355 3 0.395341 2 0 0.0976675 -0.0790595
282 1 24.8518 5.25716 0.566763 3 0.435091 2 0 0.0965527 0.0409026
283 1 23.5518 5.06386 0.533607 3 0.460287 2 0 0.0955914 -0.0968928
284 1 25.0086 4.50055 1.62342 3 0.348027 2 0 0.098539 -0.042197
285 1 25.0629 3.68037 0.802132 3 0.278933 2 0 0.0992646 -0.187922
286 1 24.363 5.28843 1.43377 3 0.464921 2 0 0.0953881 -0.154712
287 1 25.6904 5.1389 1.34266 3 0.383724 2 0 0.0979201 0.210096
288 1 26.3575 4.29031 1.37159 3 0.281827 2 0 0.0992431 0.14948
289 1 26.5026 4.97257 0.640732 3 0.323775 2 0 0.0988514 0.0989643
290 1 25.5284 4.40089 0.388179 3 0.318697 2 0 0.0989079 0.0559461
291 1 27.3302 4.86961 1.40568 3 0.278774 2 0 0.0992658 0.00660841
292 1 27.9624 3.97641 1.10408 4 0.20334 2 0 0.0994487 -0.309508
293 1 28.2771 4.73475 0.706344 4 0.233178 2 0 0.0994487 -0.0812481
294 1 27.0674 4.04323 0.570038 4 0.237931 2 0 0.0994487 0.0120213
295 1 28.9321 3.77016 0.487204 4 0.170517 2 0 0.0994487 -0.00703281
296 1 29.0873 4.52317 1.33085 4 0.196378 2 0 0.0994487 0.0574855
297 1 29.9979 4.07209 1.02303 4 0.161019 2 0 0.0994487 -0.275235
298 1 31.0296 3.97382 0.373364 4 0.147265 2 0 0.0994487 0.657583
299 1 30.2046 4.67765 0.491317 4 0.17868 2 0 0.0994487 0.00995848
300 1 30.9783 4.59929 1.41131 4 0.164416 2 0 0.0994487 0.679914
301 1 0.908283 5.53205 0.461647 4 0.00451527 2 0 0.0994487 -0.463784
302 1 1.53161 5.51184 1.37971 4 0.00520288 2 0 0.0994487 -0.117387
303 1 0.793684 6.22023 1.2768 4 0.00510334 2 0 0.0994487 -0.703381
304 1 0.257003 6.91734 1.50738 4 0.00526929 2 0 0.0994487 -0.772633
305 1 0.969942 6.9454 0.573423 4 0.00607155 2 0 0.0994487 -0.473533
306 1 1.7053 7.02884 1.23811 4 0.00711472 2 0 0.0994487 0.0665172
307 1 1.89588 6.19966 0.519025 4 0.00657928 2 0 0.0994487 -0.156401
308 1 3.10475 5.61709 1.30057 4 0.00853375 2 0 0.0994487 0.0402513
309 1 2.26359 6.15348 1.40977 4 0.00709036 2 0 0.0994487 0.0408551
310 1 3.25442 6.96226 1.12748 4 0.0119786 2 0 0.0994487 -0.0541252
311 1 2.68177 5.61289 0.273587 4 0.00751135 2 0 0.0994487 -0.0596864
312 1 3.39503 6.28191 0.500536 4 0.0111839 2 0 0.0994487 -0.121446
313 1 4.18979 5.46246 0.325783 4 0.0125162 2 0 0.0994487 0.0310161
314 1 4.93434 5.42873 1.31778 4 0.0168857 2 0 0.0994487 -0.235102
315 1 4.13622 6.09659 1.22779 4 0.0142056 2 0 0.0994487 -0.0893909
316 1 4.82567 6.23357 0.333842 4 0.0185595 2 0 0.0994487 -0.0345782
317 1 4.77312 6.79931 1.15967 4 0.020683 2 0 0.0994487 -0.305934
318 1 4.00267 7.02511 0.221759 4 0.0158649 2 0 0.0994487 -0.0853457
319 1 5.78575 5.42185 0.301847 4 0.0218158 2 0 0.0994487 0.0125001
320 1 5.6935 6.24342 0.9632 4 0.0253481 2 0 0.0994487 -0.967793
321 1 6.4578 5.98425 1.59671 4 0.0305329 2 0 0.0994487 0.140911
322 1 6.43234 6.86927 1.00965 4 0.0364571 2 0 0.0994487 0.851656
323 1 6.37773 6.04115 0.154639 4 0.0289331 2 0 0.0994487 0.11111
324 1 5.54993 7.05206 0.147147 4 0.0270105 2 0 0.0994487 0.0363841
325 1 8.21355 5.31419 0.694273 4 0.0474274 2 0 0.0994487 -0.0896004
326 1 7.32761 6.15925 0.754293 4 0.0422241 2 0 0.0994487 0.225724
327 1 7.39163 5.41839 1.49138 4 0.0367448 2 0 0.0994487 0.13675
328 1 8.23884 6.11028 1.49159 4 0.0572446 2 0 0.0994487 0.0187332
329 1 8.01352 6.85364 0.728993 4 0.0632124 2 0 0.0994487 0.0691742
330 1 7.28191 6.86379 1.59601 4 0.0500619 2 1 0.0994487 0.126017
331 1 7.33029 5.3575 0.0461812 4 0.0346255 2 0 0.0994487 0.0813549
332 1 9.76796 5.3194 0.792562 4 0.0725922 2 0 0.0994487 0.328439
333 1 8.88016 6.18865 0.736908 4 0.0705982 2 0 0.0994487 -0.235552
334 1 9.05434 5.3271 1.5973 4 0.0609694 2 0 0.0994487 -0.0628335
335 1 9.73844 6.19052 1.46731 4 0.0905607 2 0 0.0994487 -0.106565
336 1 9.09351 6.95013 1.463 4 0.0918092 2 2 0.0994487 -0.0762076
337 1 9.76329 6.23201 0.0941385 4 0.089316 2 0 0.0994487 -0.0359542
338 1 8.99733 5.46479 0.012702 4 0.0610652 2 0 0.0994487 -0.134756
339 1 10.5831 6.02196 0.964384 4 0.106579 2 0 0.0994487 -0.356233
340 1 11.3128 6.37134 0.0776634 4 0.128989 2 0 0.0994487 0.100342
341 1 10.5187 6.94145 0.15452 4 0.124762 2 0 0.0994487 -0.0735283
342 1 10.4686 6.92564 1.49614 4 0.130259 2 1 0.0994487 -0.0657773
343 1 11.9994 5.6274 0.183157 4 0.130214 2 0 0.0994487 -0.0105308
344 1 12.6757 5.81849 0.861776 4 0.159607 2 0 0.0994487 0.0817317
345 1 11.7774 6.20735 1.05291 4 0.14224 2 0 0.0994487 0.29158
346 1 13.3219 5.86668 1.55471 4 0.184321 2 0 0.0994487 0.209139
347 1 13.3506 6.58297 0.813679 4 0.222791 2 0 0.0994487 -0.290455
348 1 13.3212 5.53867 0.0424813 4 0.174191 2 0 0.0994487 -0.14291
349 1 14.0617 5.71565 0.77266 4 0.212831 2 0 0.0994487 -0.372667
350 1 14.3278 6.65176 1.40646 3 0.286841 2 0 0.0992044 -0.105732
351 1 14.1303 6.38483 0.0380077 4 0.239751 2 0 0.0994487 -0.0826087
352 1 15.0282 5.64393 0.034369 4 0.247188 2 0 0.0994487 0.057363
353 1 15.8305 5.73813 0.95832 3 0.301937 2 0 0.0990755 0.626928
354 1 15.0472 6.45091 0.806774 3 0.30684 2 0 0.0990293 -0.174192
355 1 16.491 6.45257 1.1401 3 0.412945 2 0 0.0972261 0.201298
356 1 15.1058 5.87594 1.69804 3 0.283212 2 0 0.0992327 -0.106959
357 1 16.62 5.41933 0.276819 3 0.310965 2 0 0.0989887 0.0799152
358 1 15.6753 6.3382 0.0390223 3 0.321818 2 0 0.0988736 0.0398028
359 1 17.8271 5.30128 0.541411 3 0.355386 2 0 0.0984285 0.150281
360 1 17.113 5.42499 1.24767 3 0.348494 2 0 0.0985323 -0.313315
361 1 17.0619 6.27419 0.411469 3 0.411438 2 0 0.0972669 0.138796
362 1 17.6649 6.24649 1.38542 3 0.478078 2 0 0.0947606 -0.359394
363 1 18.2745 7.0517 1.13153 3 0.599431 2 0 0.0836245 0.906097
364 1 18.3714 6.23173 0.609762 3 0.490416 2 0 0.0940973 0.154777
365 1 19.429 5.75829 0.62055 3 0.482309 2 0 0.0945417 0.0549321
366 1 19.3279 6.55755 1.35081 3 0.628132 2 0 0.0789098 0.385956
367 1 19.9942 6.75229 0.610261 3 0.683065 2 0 0.066812 -0.00652743
368 1 20.7494 5.77593 0.653722 3 0.55881 2 0 0.0887055 -0.0997374
369 1 20.1931 5.61076 1.39557 3 0.525053 2 0 0.0917778 0.36824
370 1 20.7787 6.6124 1.30355 3 0.765842 2 0 0.0415949 -0.32779
371 1 21.6592 6.66248 0.666524 3 0.749612 2 0 0.0469661 -0.0410679
372 1 21.6631 5.87866 1.38528 3 0.640675 2 0 0.076516 0.0947769
373 1 21.6904 5.73259 0.0517844 3 0.567554 2 0 0.0877515 -0.00150276
374 1 22.6732 5.8279 0.674154 3 0.598748 2 0 0.0837243 0.00265262
375 1 22.6319 6.69333 1.20734 3 0.790459 2 0 0.0334455 -0.206693
376 1 23.3484 6.78052 0.267835 3 0.735299 2 0 0.0516002 -0.125363
377 1 23.4822 5.88496 1.30013 3 0.607216 2 0 0.0824453 -0.176252
378 1 24.3197 6.56281 1.15825 3 0.665986 2 0 0.0710248 0.181775
379 1 24.1457 6.00685 0.427617 3 0.575727 2 0 0.0867941 0.00243298
380 1 25.6831 5.86213 0.700952 3 0.459617 2 0 0.0956201 0.163891
381 1 25.1124 6.04132 1.67733 3 0.522844 2 0 0.0919476 0.00442757
382 1 25.1593 6.74159 0.495153 3 0.603856 2 0 0.0829628 0.0903838
383 1 25.8251 6.59457 1.40775 3 0.533913 2 0 0.0910569 0.0883428
384 1 26.6903 5.84511 1.4763 3 0.393331 2 0 0.0977133 0.0917586
385 1 27.4966 5.54334 0.722172 3 0.313836 2 0 0.0989594 -0.251575
386 1 26.7485 6.36567 0.651888 3 0.434544 2 0 0.0965711 0.0387462
387 1 27.7011 6.47315 1.36539 3 0.373706 2 0 0.0981161 0.13149
388 1 28.3648 5.52203 1.4872 3 0.271603 2 0 0.0993164 0.0456327
389 1 27.7097 7.0074 0.530173 3 0.41012 2 0 0.097302 0.0321204
390 1 29.3889 5.30889 0.818726 4 0.22663 2 0 0.0994487 0.316723
391 1 29.4379 6.18214 1.32212 3 0.261104 2 0 0.0993843 -0.00338131
392 1 29.5784 6.89773 0.506505 3 0.289349 2 0 0.0991843 0.092586
393 1 28.4685 6.20589 0.638647 3 0.302094 2 0 0.0990741 -0.270083
394 1 29.3762 6.15398 0.0801838 3 0.261538 2 0 0.0993816 0.096926
395 1 28.4822 5.38976 0.0592959 3 0.257024 2 0 0.0994088 -0.105004
396 1 30.9636 5.36838 0.595026 4 0.19727 2 0 0.0994487 0.667848
397 1 30.2159 5.45949 1.46813 4 0.208726 2 0 0.0994487 0.0540215
398 1 30.3958 6.18258 0.649752 4 0.235974 2 0 0.0994487 0.329001
399 1 31.2189 6.15516 1.38439 4 0.219598 2 0 0.0994487 0.587258
400 1 31.1994 6.95407 0.60342 3 0.250598 2 0 0.0994455 0.812252
401 1 31.7235 5.99622 0.446564 4 0.210159 2 0 0.0994487 0.879729
402 1 0.261851 7.63199 0.661866 4 0.00598153 2 0 0.0994487 -0.876374
403 1 0.831025 8.46344 0.61936 4 0.00719561 2 0 0.0994487 -0.577626
404 1 1.11211 7.86396 1.49711 4 0.0069521 2 0 0.0994487 -0.154429
405 1 0.356955 8.5626 1.47035 4 0.00669428 2 0 0.0994487 -0.764984
406 1 1.59266 7.76478 0.37187 4 0.00780666 2 0 0.0994487 -0.0897882
407 1 1.72382 8.61735 1.46471 4 0.00887087 2 0 0.0994487 0.0395968
408 1 2.48799 7.14986 0.476331 4 0.00947827 2 0 0.0994487 -0.0836973
409 1 2.19177 8.6335 0.399707 4 0.0104763 2 0 0.0994487 -0.137268
410 1 2.39416 7.81099 1.27726 4 0.00996502 2 0 0.0994487 0.0869915
411 1 3.01349 8.51445 0.935533 4 0.013673 2 0 0.0994487 -0.539321
412 1 3.24418 7.77117 0.327041 4 0.0135913 2 0 0.0994487 -0.196206
413 1 3.81243 8.45898 0.0822892 4 0.0174604 2 0 0.0994487 -0.0457795
414 1 3.97971 7.67009 1.24863 4 0.0173516 2 0 0.0994487 -0.0554913
415 1 4.70459 8.25653 0.921772 4 0.0239141 2 0 0.0994487 0.295319
416 1 4.67023 7.63706 0.247803 4 0.0215857 2 0 0.0994487 0.0376891
417 1 3.81127 8.34851 1.76162 4 0.0175468 2 0 0.0994487 -0.0574368
418 1 5.86955 8.34822 0.169905 4 0.0358857 2 0 0.0994487 0.113103
419 1 5.48363 7.59071 1.03232 4 0.0298316 2 0 0.0994487 -0.467676
420 1 6.49365 7.53799 0.169175 4 0.0405277 2 0 0.0994487 0.18762
421 1 6.39674 8.23976 1.04384 4 0.0457967 2 0 0.0994487 0.337997
422 1 7.28583 7.76918 0.746313 4 0.059904 2 1 0.0994487 0.00980923
423 1 8.2859 8.31376 0.868772 4 0.0935896 2 2 0.0994487 0.27796
424 1 7.27857 8.18368 1.7015 4 0.0688321 2 2 0.0994487 -0.175146
425 1 8.05208 7.48784 1.5604 4 0.0758434 2 1 0.0994487 0.184919
426 1 7.99895 7.60312 0.0282118 4 0.0708632 2 0 0.0994487 0.0674087
427 1 9.84313 7.22199 0.72344 4 0.117208 2 1 0.0994487 -0.346982
428 1 8.91207 7.61626 0.661731 4 0.0972353 2 1 0.0994487 0.158497
429 1 9.73234 8.61964 0.693151 4 0.149215 2 3 0.0994487 -0.256855
430 1 9.09265 8.69904 1.44495 4 0.136714 2 9 0.0994487 -0.393352
431 1 9.64026 7.88932 1.60055 4 0.13968 2 8 0.0994487 -0.34449
432 1 11.3161 7.14287 0.810636 4 0.157388 2 1 0.0994487 0.446375
433 1 10.5731 7.9454 0.844311 4 0.160933 2 3 0.0994487 -0.19758
434 1 10.5877 8.70196 1.4255 4 0.188426 1 5 0.0994487 -0.117978
435 1 11.4057 7.80503 1.60301 4 0.19827 2 2 0.0994487 0.200285
436 1 11.227 8.11851 0.0422735 4 0.177397 2 0 0.0994487 0.174357
437 1 12.7061 7.28322 0.565784 4 0.226334 2 0 0.0994487 -0.0539363
438 1 12.178 8.23518 0.590765 4 0.233401 2 1 0.0994487 0.163624
439 1 12.0637 7.15788 1.37768 4 0.193514 2 2 0.0994487 0.114414
440 1 12.0887 8.68065 1.4904 0 0.260736 1 0 0.0993865 0.116132
441 1 12.8601 7.99585 1.47598 3 0.287774 2 0 0.099197 -0.328051
442 1 14.3373 7.3542 0.580954 3 0.317988 2 0 0.0989156 0.0679776
443 1 13.6169 8.09282 0.464536 3 0.312655 2 0 0.0989716 0.0264229
444 1 13.458 7.34024 1.34133 3 0.282306 2 0 0.0992395 0.0785637
445 1 14.2471 8.18371 1.35246 3 0.383378 2 0 0.0979272 0.241279
446 1 16.4328 7.18497 0.276798 3 0.457306 2 0 0.0957175 -0.0655132
447 1 15.6276 7.3114 0.923132 3 0.425509 2 0 0.0968618 -0.437531
448 1 15.0689 8.29247 0.865596 3 0.447429 2 0 0.0961107 -0.34265
449 1 16.2796 8.16171 1.10428 0 0.543468 1 0 0.0902143 -0.345955
450 1 15.1452 7.52269 1.62484 3 0.432443 2 0 0.096641 -0.478965
451 1 15.8668 8.31534 0.152632 3 0.503286 2 0 0.0933194 -0.194462
452 1 16.977 7.36262 1.11681 3 0.538034 1 0 0.0907023 0.249935
453 1 17.0683 8.10487 0.342208 3 0.579951 2 0 0.0862731 0.0319737