ITEM: TIMESTEP
36000
ITEM: NUMBER OF ATOMS
9495
ITEM: BOX BOUNDS mm mm mm
0.0000000000000000e+00 3.1748021039364001e+01
0.0000000000000000e+00 3.1748021039364001e+01
-7.4072398406925706e-04 3.1748021039364001e+01
ITEM: ATOMS id type x y z c_phase c_temp c_surf c_nbond c_visc f_3[1]
1 1 0.116341 1.10259 0.464337 4 7.32595e-05 2 0 0.0994487 -0.68194
2 1 0.974108 1.6685 0.77798 4 0.000109235 2 0 0.0994487 -0.517032
3 1 0.714648 0.793562 1.41295 4 8.34111e-05 2 0 0.0994487 -0.281794
4 1 0.00336375 1.60273 1.37437 4 8.02099e-05 2 0 0.0994487 -0.804051
5 1 0.729896 0.0633724 0.61602 4 6.75974e-05 3 0 0.0994487 -0.190374
6 1 1.71015 0.808983 1.0155 4 0.000129288 2 0 0.0994487 -0.332069
7 1 1.80059 1.47468 0.221075 4 0.000140538 2 0 0.0994487 -0.125829
8 1 1.82015 1.66049 1.76126 4 0.000151261 2 0 0.0994487 -0.139533
9 1 2.52093 0.749102 0.203812 4 0.000170823 2 0 0.0994487 -0.142939
10 1 2.59149 0.0538711 1.03726 4 0.000168991 2 0 0.0994487 -0.295004
11 1 2.64922 1.541 0.882848 4 0.000212534 2 0 0.0994487 0.235757
12 1 2.66829 0.815502 1.7457 4 0.000190964 2 0 0.0994487 -0.18704
13 1 3.43386 0.933692 0.956349 4 0.000280467 2 0 0.0994487 0.320243
14 1 3.49924 0.0925696 1.70571 4 0.000231796 2 0 0.0994487 0.178053
15 1 3.60652 1.70798 1.71994 4 0.000351577 2 0 0.0994487 0.0487954
16 1 4.10576 0.858321 0.325305 4 0.000385598 2 0 0.0994487 0.153146
17 1 4.96159 0.56786 1.17466 4 0.000622173 2 0 0.0994487 -0.0370664
18 1 4.91949 1.59987 0.383508 4 0.00071336 2 0 0.0994487 -0.100247
19 1 4.3472 0.941527 1.62884 4 0.000452545 2 0 0.0994487 0.110739
20 1 3.47612 0.111428 0.171027 4 0.000222325 2 0 0.0994487 0.166215
21 1 5.64741 0.645627 0.325839 4 0.000878468 2 0 0.0994487 -0.0806044
22 1 5.88414 1.31048 0.938036 4 0.00107691 2 0 0.0994487 -0.199581
23 1 6.57478 1.39104 0.218369 4 0.00148357 2 0 0.0994487 -0.0861329
24 1 5.78374 0.460658 1.69897 4 0.000892277 2 0 0.0994487 -0.084652
25 1 5.03122 1.72414 1.43602 4 0.000753063 2 0 0.0994487 0.0453728
26 1 6.7138 0.39031 0.865278 4 0.00138179 2 0 0.0994487 -0.0793812
27 1 6.69104 1.00962 1.69374 4 0.00143162 2 0 0.0994487 -0.107923
28 1 8.2679 0.408875 1.07337 4 0.0025292 2 0 0.0994487 -0.100166
29 1 7.36782 1.22285 0.954198 4 0.00201269 2 0 0.0994487 -0.302548
30 1 8.24709 1.39092 0.236779 4 0.00290444 2 0 0.0994487 -0.0460634
31 1 8.12868 1.27217 1.60653 4 0.00266011 2 0 0.0994487 -0.00811619
32 1 7.58247 0.647807 0.140287 4 0.00201901 2 0 0.0994487 -0.110935
33 1 8.85849 0.508506 0.273966 4 0.00316904 2 0 0.0994487 -0.0616458
34 1 9.55301 0.3386 0.888639 4 0.00398288 2 0 0.0994487 0.00506468
35 1 9.02586 1.30716 1.1133 4 0.00383929 2 0 0.0994487 -0.0606428
37 1 9.63995 1.37474 0.0900752 4 0.004607 2 0 0.0994487 0.0992918
38 1 11.2128 0.215893 0.632658 4 0.00708022 2 0 0.0994487 0.203504
39 1 10.3637 1.04743 0.823114 4 0.00582884 2 0 0.0994487 0.539888
40 1 10.523 0.196295 1.44539 4 0.00550902 2 0 0.0994487 0.0644292
41 1 11.2856 1.01846 1.41785 4 0.00846328 2 0 0.0994487 0.164708
42 1 10.5797 1.67706 1.72992 4 0.00727505 2 0 0.0994487 0.118165
43 1 10.2431 0.367861 0.0780499 4 0.00472304 2 0 0.0994487 0.149801
44 1 12.8757 0.211714 0.636805 4 0.0134273 2 0 0.0994487 0.0587884
45 1 12.0457 1.07408 0.506655 4 0.011614 2 0 0.0994487 -0.0235501
46 1 12.1319 0.316439 1.29957 4 0.0106436 2 0 0.0994487 0.0188374
47 1 12.7194 1.19864 1.3723 4 0.0150928 2 0 0.0994487 -0.030526
48 1 14.3729 0.318493 0.764646 4 0.0214836 2 0 0.0994487 -0.0460376
49 1 13.5924 1.113 0.843618 4 0.0198563 2 0 0.0994487 -0.26305
50 1 14.0399 1.55958 0.167469 4 0.0243546 2 0 0.0994487 -0.0898243
51 1 13.6075 0.359834 1.6352 4 0.0172497 2 0 0.0994487 -0.0562627
52 1 14.3777 1.14948 1.47647 4 0.023755 2 0 0.0994487 -0.0178264
53 1 14.8761 1.55337 0.662943 4 0.0290799 2 0 0.0994487 0.38995
54 1 15.7061 0.770636 0.788259 4 0.0308434 2 0 0.0994487 0.366485
55 1 16.5532 1.54451 0.681338 4 0.0448539 2 0 0.0994487 0.00080735
56 1 15.1422 0.4642 1.64149 4 0.0253481 2 0 0.0994487 0.152078
57 1 16.547 0.712289 1.3421 4 0.0388693 2 0 0.0994487 0.0956276
58 1 15.6341 1.48544 1.3916 4 0.0346969 2 0 0.0994487 0.153633
59 1 15.1049 0.711806 0.0677822 4 0.0253504 2 0 0.0994487 0.169203
60 1 17.2544 0.732268 0.547589 4 0.0454933 2 0 0.0994487 0.0286309
61 1 17.9231 1.58109 0.757246 4 0.0593037 2 0 0.0994487 0.0415651
62 1 17.916 0.742935 1.42801 4 0.0525035 2 0 0.0994487 -0.224375
63 1 17.2202 1.74884 1.56274 4 0.0549656 2 0 0.0994487 -0.0984822
64 1 19.5372 0.0167772 0.662766 4 0.0563137 2 0 0.0994487 0.0436442
65 1 18.7918 0.725074 0.684829 4 0.0578953 2 0 0.0994487 -0.269944
66 1 19.5395 1.55488 0.841653 4 0.0718947 2 0 0.0994487 -0.341159
67 1 19.0276 0.158607 1.54508 4 0.0555017 2 0 0.0994487 -0.158664
68 1 19.5934 0.967491 1.68957 4 0.0643288 2 0 0.0994487 0.00835163
69 1 18.6564 1.51302 1.50035 4 0.0653391 2 0 0.0994487 -0.250306
70 1 21.0889 0.349843 1.06749 4 0.0650791 2 0 0.0994487 -0.196126
71 1 20.2493 0.776373 0.980057 4 0.0659424 2 0 0.0994487 -0.0497598
72 1 21.1062 1.65725 0.951506 4 0.0788048 2 0 0.0994487 0.692918
73 1 21.1874 0.765598 0.218806 4 0.0674133 2 0 0.0994487 -0.0445904
74 1 20.3457 1.51479 0.193617 4 0.0745394 2 0 0.0994487 -0.0806017
75 1 22.0087 0.262534 0.539755 4 0.064979 2 0 0.0994487 0.0993596
76 1 22.7913 0.430275 1.40734 4 0.0663106 2 0 0.0994487 0.2066
77 1 22.1105 1.14763 1.32981 4 0.07244 2 0 0.0994487 0.240024
78 1 21.9982 1.59955 0.538558 4 0.0793848 2 0 0.0994487 0.185173
79 1 22.9157 1.07463 0.445168 4 0.0716362 2 0 0.0994487 0.0520848
80 1 24.228 0.380179 1.45209 4 0.0638702 2 0 0.0994487 0.0576168
81 1 23.5672 0.357563 0.57369 4 0.0651529 2 0 0.0994487 0.0385711
82 1 24.4367 1.18687 0.754729 4 0.0709457 2 0 0.0994487 -0.0192959
83 1 23.4757 1.2499 1.4028 4 0.0744975 2 0 0.0994487 0.0298776
84 1 24.955 0.315686 0.551996 4 0.059718 2 0 0.0994487 -0.0171987
85 1 26.0085 0.383365 1.1715 4 0.0529666 2 0 0.0994487 -0.18586
86 1 25.169 1.12579 1.48087 4 0.0664345 2 0 0.0994487 0.0251051
87 1 25.9301 1.73476 1.35794 4 0.0684562 2 0 0.0994487 0.034536
88 1 25.8917 0.929212 0.432102 4 0.057713 2 0 0.0994487 -0.0954198
89 1 27.5736 1.28032 0.38906 4 0.0472942 2 0 0.0994487 0.0454492
90 1 27.6142 0.50928 0.874321 4 0.0430691 2 0 0.0994487 0.175388
91 1 26.7559 1.02809 1.26347 4 0.0514235 2 0 0.0994487 -0.236886
92 1 28.3748 0.337482 1.39813 4 0.0370013 2 0 0.0994487 0.00984426
93 1 26.7925 0.240345 0.226621 4 0.0462163 2 0 0.0994487 0.0380748
94 1 28.6489 1.24263 0.742341 4 0.0399388 2 0 0.0994487 0.102406
95 1 29.3912 0.945639 1.56878 4 0.0335371 2 0 0.0994487 -0.0192008
96 1 28.5228 1.71921 1.49749 4 0.0434532 2 0 0.0994487 -0.042981
97 1 29.8133 0.173958 1.46124 4 0.0291144 2 0 0.0994487 0.133416
98 1 29.2734 0.3547 0.615275 4 0.0316459 2 0 0.0994487 -0.0816813
99 1 31.5874 0.266128 1.25663 4 0.0221458 3 0 0.0994487 0.830097
100 1 30.7016 0.49015 0.470738 4 0.0266201 2 0 0.0994487 0.354852
101 1 30.1009 1.19877 0.774133 4 0.0318319 2 0 0.0994487 0.21092
102 1 30.8649 0.971942 1.39386 4 0.0279796 2 0 0.0994487 0.703281
103 1 1.11081 2.43607 0.129285 4 0.000124505 2 0 0.0994487 -0.0373222
104 1 0.133403 2.3821 0.812241 4 9.98124e-05 2 0 0.0994487 -0.984517
105 1 1.28845 3.23764 0.949187 4 0.000170815 2 0 0.0994487 0.222093
106 1 1.13977 2.36077 1.59162 4 0.000133954 2 0 0.0994487 -0.222189
107 1 0.386685 3.02999 1.54944 4 0.000123385 2 0 0.0994487 -0.671256
108 1 0.332248 3.09582 0.131296 4 0.000117198 2 0 0.0994487 -0.59134
109 1 1.90972 2.41867 0.78376 4 0.000180513 2 0 0.0994487 0.0782095
110 1 2.65852 3.28029 0.860875 4 0.000331152 2 0 0.0994487 0.0668046
111 1 2.66931 2.22918 1.53373 4 0.000248672 2 0 0.0994487 0.0829554
112 1 3.2579 3.42668 1.64938 4 0.000464211 2 0 0.0994487 0.00397541
113 1 2.7261 2.38168 0.0557193 4 0.000236385 2 0 0.0994487 0.146601
114 1 3.38195 2.55413 0.779289 4 0.000386188 2 0 0.0994487 0.211584
115 1 4.00679 1.841 0.711184 4 0.000462113 2 0 0.0994487 -0.0361226
116 1 4.91383 2.57277 0.815661 4 0.000881815 2 0 0.0994487 -0.259348
117 1 4.20148 3.3175 0.749446 4 0.000743037 2 0 0.0994487 0.00621627
118 1 4.13245 2.64107 1.58328 4 0.000592312 2 0 0.0994487 0.0270782
119 1 5.65047 2.44269 0.132743 4 0.00120614 2 0 0.0994487 -0.189925
120 1 6.55776 2.18062 0.772597 4 0.00171196 2 0 0.0994487 -0.289378
121 1 5.64874 3.19593 0.952489 4 0.00145494 2 0 0.0994487 -0.754631
122 1 5.861 2.19426 1.49672 4 0.00123513 2 0 0.0994487 0.0126364
123 1 6.52037 3.06691 1.5557 4 0.00205141 2 0 0.0994487 0.0443583
124 1 6.65033 2.92778 0.134227 4 0.00199336 2 0 0.0994487 0.0288874
125 1 7.45405 2.22586 0.139832 4 0.00250327 2 0 0.0994487 -0.0535017
126 1 8.08209 2.20208 0.930382 4 0.00328546 2 0 0.0994487 -0.302068
127 1 7.40132 3.06835 0.934051 4 0.00306025 2 0 0.0994487 -0.0455155
128 1 7.29928 2.06035 1.56856 4 0.00226379 2 0 0.0994487 -0.060732
129 1 8.18545 3.00183 1.65211 4 0.00416424 2 0 0.0994487 -0.0454151
130 1 8.26934 2.9712 0.0392146 4 0.00428097 2 0 0.0994487 -0.150616
131 1 8.90393 2.08699 0.252387 4 0.00429514 2 0 0.0994487 0.00243406
132 1 9.77243 2.0246 1.10996 4 0.00591328 2 0 0.0994487 0.173467
133 1 8.92671 2.97262 0.928693 4 0.00563905 2 0 0.0994487 -0.156753
134 1 9.03062 2.22066 1.70398 4 0.00472638 2 0 0.0994487 -0.0819672
135 1 9.56096 2.90576 0.21312 4 0.00672566 2 0 0.0994487 0.173121
136 1 10.2834 2.1137 0.214297 4 0.00672572 2 0 0.0994487 0.337739
137 1 11.1583 1.82604 0.771092 4 0.00950301 2 0 0.0994487 0.26009
138 1 10.6214 2.80819 0.921535 4 0.0101641 2 0 0.0994487 0.54192
139 1 11.4444 2.82964 1.57484 4 0.014176 2 0 0.0994487 0.0952004
140 1 12.6737 1.94118 0.593851 4 0.0179019 2 0 0.0994487 -0.283932
141 1 11.928 2.64099 0.742299 4 0.0161182 2 0 0.0994487 -0.0386725
142 1 11.9239 1.9206 1.46509 4 0.0131763 2 0 0.0994487 0.0946547
143 1 12.8449 3.01766 1.68597 4 0.0240517 2 0 0.0994487 0.0363572
144 1 13.1791 3.03035 0.848852 4 0.027259 2 0 0.0994487 -0.440854
145 1 13.3784 1.9912 1.48064 4 0.0218784 2 0 0.0994487 -0.0150695
146 1 14.0206 2.44438 0.927124 4 0.0296226 2 0 0.0994487 -0.133097
147 1 14.0279 3.38359 1.55716 4 0.0379757 2 0 0.0994487 0.0255751
148 1 14.6961 3.43698 0.884932 4 0.0465764 2 0 0.0994487 -0.332954
149 1 14.7823 2.29758 1.44821 4 0.0343998 2 0 0.0994487 0.046928
150 1 14.8418 2.51505 0.136557 4 0.0367254 2 0 0.0994487 0.173006
151 1 14.1591 3.2262 0.0325348 4 0.0380021 2 0 0.0994487 -0.246105
152 1 13.4137 2.29398 0.0590902 4 0.0244293 2 0 0.0994487 -0.280961
153 1 15.6993 2.44373 0.692668 4 0.0450649 2 0 0.0994487 0.364395
154 1 16.3029 3.20095 0.662084 4 0.0630923 2 0 0.0994487 0.32859
155 1 16.308 2.47951 1.52575 4 0.0536711 2 0 0.0994487 -0.100646
156 1 15.3694 3.25723 1.50191 4 0.0527002 2 0 0.0994487 -0.00766821
157 1 15.5706 3.25854 0.0192499 4 0.0516973 2 0 0.0994487 0.290238
158 1 17.0646 2.35032 0.682778 4 0.0604581 2 0 0.0994487 0.0234828
159 1 17.944 2.92608 0.699539 4 0.0846148 2 0 0.0994487 -0.231189
160 1 18.0193 2.43917 1.58112 4 0.0745618 2 0 0.0994487 -0.149133
161 1 17.0918 3.1162 1.49491 4 0.0756235 2 0 0.0994487 -0.143433
162 1 18.8908 2.35742 1.01358 4 0.0817447 2 0 0.0994487 -0.516825
163 1 19.7027 3.2427 1.27782 4 0.109578 2 0 0.0994487 0.394883
164 1 18.884 2.99607 0.196019 4 0.0965495 2 0 0.0994487 -0.171808
165 1 19.587 2.34239 0.101452 4 0.0863954 2 0 0.0994487 -0.13237
166 1 20.3251 1.78863 1.72442 4 0.0772296 2 0 0.0994487 0.044954
167 1 21.1565 2.41663 0.458355 4 0.0955178 2 0 0.0994487 0.196189
168 1 20.1948 2.46882 1.11433 4 0.0912582 2 0 0.0994487 0.286749
169 1 21.31 3.29463 1.39314 4 0.127126 2 0 0.0994487 0.0777307
170 1 20.4222 2.99313 0.334941 4 0.106507 2 0 0.0994487 0.186291
171 1 22.8719 2.07007 1.50872 4 0.0916528 2 0 0.0994487 -0.0221229
172 1 22.9717 2.60199 0.735523 4 0.109952 2 0 0.0994487 0.133327
173 1 22.0961 2.49917 1.23787 4 0.103571 2 0 0.0994487 0.18644
174 1 21.9898 3.20043 0.598797 4 0.13035 2 0 0.0994487 -0.0757484
175 1 22.6771 3.40124 0.07601 4 0.141352 2 0 0.0994487 0.0760739
176 1 23.7438 1.80844 0.624025 4 0.0833514 2 0 0.0994487 -0.0873588
177 1 24.4289 1.98763 1.61102 4 0.0852519 2 0 0.0994487 -0.0641754
178 1 24.342 2.68296 0.775192 4 0.103979 2 0 0.0994487 -0.341092
179 1 23.6887 2.90303 1.53628 4 0.115934 2 0 0.0994487 -0.110504
180 1 24.4728 3.51078 1.55704 4 0.134919 2 0 0.0994487 -0.118305
181 1 24.9562 2.84566 0.0146836 4 0.101029 2 0 0.0994487 -0.0864594
182 1 26.5483 1.79415 0.511367 4 0.0621218 2 0 0.0994487 -0.00560022
183 1 25.1322 1.85613 0.509414 4 0.0778833 2 0 0.0994487 -0.0215289
184 1 25.7918 2.61203 0.707489 4 0.088611 2 0 0.0994487 0.228202
185 1 25.1579 2.55548 1.52547 4 0.0939928 2 0 0.0994487 0.057667
186 1 25.7213 3.49812 1.51211 4 0.118247 2 0 0.0994487 0.123857
187 1 26.5364 2.56002 1.53049 4 0.0765942 2 0 0.0994487 0.0579475
188 1 26.1686 3.50068 0.599043 4 0.110226 2 0 0.0994487 0.168845
189 1 27.5039 1.98546 1.23792 4 0.0545163 2 0 0.0994487 -0.186419
190 1 28.2489 2.09022 0.343734 4 0.0489737 2 0 0.0994487 -0.0177249
191 1 27.0867 2.6924 0.645359 4 0.0710092 2 0 0.0994487 -0.105601
192 1 27.1998 3.35397 1.41682 4 0.0837701 2 0 0.0994487 -0.0983286
193 1 28.2537 2.75799 1.20639 4 0.0567675 2 0 0.0994487 -0.418307
194 1 27.982 3.21993 0.326384 4 0.0666287 2 0 0.0994487 -0.125257
195 1 29.9568 1.80906 1.70764 4 0.035611 2 0 0.0994487 0.183201
196 1 29.4477 2.04702 0.879698 4 0.0402486 2 0 0.0994487 -0.00708381
197 1 29.1956 2.6589 0.290703 4 0.0465808 2 0 0.0994487 -0.0578285
198 1 29.2495 3.2651 1.17365 4 0.0531119 2 0 0.0994487 0.118634
199 1 30.9114 1.98502 0.924207 4 0.0340545 2 0 0.0994487 0.967251
200 1 30.1815 2.71094 1.00186 4 0.0412473 2 0 0.0994487 0.67511
201 1 31.0247 3.35309 0.97101 4 0.0431765 2 0 0.0994487 0.998409
202 1 30.9865 2.69483 1.72648 4 0.0382842 2 0 0.0994487 0.578501
203 1 30.1092 3.25953 0.132205 4 0.0448274 2 0 0.0994487 -0.0443659
204 1 30.4116 1.90909 0.0255368 4 0.0342246 2 0 0.0994487 0.106045
205 1 31.1434 2.66402 0.0761253 4 0.0366671 2 0 0.0994487 0.70882
206 1 0.293831 3.78503 0.918557 4 0.000143521 2 0 0.0994487 -0.999347
207 1 0.143046 4.59443 0.482118 4 0.000162498 2 0 0.0994487 -0.784494
208 1 1.14036 4.67093 0.986638 4 0.000234033 2 0 0.0994487 -0.516752
209 1 0.0884667 5.26681 1.27761 4 0.000188499 2 0 0.0994487 -0.887458
210 1 1.04069 3.86421 0.0595682 4 0.000171392 2 0 0.0994487 0.014888
211 1 1.84117 4.04604 0.847105 4 0.000275544 2 0 0.0994487 0.00826911
212 1 2.54049 4.85585 1.13748 4 0.000474756 2 0 0.0994487 -0.333846
213 1 2.64953 4.14475 0.20674 4 0.000424265 2 0 0.0994487 -0.028572
214 1 1.89758 4.96895 0.278386 4 0.000359306 2 0 0.0994487 -0.153433
215 1 3.40771 4.86189 0.161635 4 0.000732462 2 0 0.0994487 -0.0163879
216 1 3.494 4.07675 0.885909 4 0.000632667 2 0 0.0994487 0.0268942
217 1 4.91235 4.00001 1.18344 4 0.00125865 2 0 0.0994487 0.0115122
218 1 4.04658 4.88002 1.14639 4 0.00100858 2 0 0.0994487 0.26449
219 1 4.26027 4.18509 0.149001 4 0.000953222 2 0 0.0994487 0.0377384
220 1 5.00947 4.74001 0.341082 4 0.00159254 2 0 0.0994487 0.0765402
221 1 5.77735 3.9378 0.198707 4 0.00177479 2 0 0.0994487 0.0260161
222 1 6.48883 3.76611 0.772067 4 0.00240945 2 0 0.0994487 0.204554
223 1 5.68025 4.73638 1.02487 4 0.00225125 2 0 0.0994487 -0.621684
224 1 6.66321 4.5115 1.6428 4 0.00318909 2 0 0.0994487 0.158934
225 1 6.68072 5.1315 0.885352 4 0.00395513 2 0 0.0994487 0.206857
226 1 8.1982 3.892 0.700757 4 0.0055799 2 0 0.0994487 -0.369899
227 1 7.40842 4.46072 0.5468 4 0.0046059 2 0 0.0994487 -0.0252118
228 1 7.39886 3.87029 1.49684 4 0.00377692 2 0 0.0994487 0.102578
229 1 8.20004 4.61106 1.48677 4 0.00678016 2 0 0.0994487 -0.0118367
230 1 9.8976 3.57792 0.885667 4 0.00982098 2 0 0.0994487 0.59279
231 1 9.07913 4.56551 0.821335 4 0.00966117 2 0 0.0994487 -0.65854
232 1 9.86266 4.50302 0.126324 4 0.0119545 2 0 0.0994487 0.0958659
233 1 9.07829 3.76256 1.49819 4 0.0076317 2 0 0.0994487 -0.070885
234 1 9.86881 4.3462 1.65532 4 0.0123516 2 0 0.0994487 -0.0856621
235 1 8.98541 3.86821 0.0631775 4 0.00740216 2 0 0.0994487 -0.138753
236 1 11.408 3.64493 0.778297 4 0.0177356 2 0 0.0994487 0.202067
237 1 10.5891 4.66652 0.906264 4 0.0174594 2 0 0.0994487 0.0450802
238 1 11.3867 4.69403 0.230734 4 0.0236136 2 0 0.0994487 -0.0498899
239 1 10.7059 3.56689 1.58785 4 0.0134442 2 0 0.0994487 -0.044849
240 1 11.3652 4.3716 1.70545 4 0.0215315 2 0 0.0994487 -0.0798276
241 1 11.3894 5.27213 0.983682 4 0.0277232 2 0 0.0994487 -0.674477
242 1 10.5826 3.84888 0.176129 4 0.0132692 2 0 0.0994487 0.210467
243 1 12.5168 3.57716 0.814749 4 0.0257666 2 0 0.0994487 -0.010576
244 1 12.1916 4.55033 1.00021 4 0.0301065 2 0 0.0994487 0.105048
245 1 12.7362 4.99738 1.68903 4 0.0388376 2 0 0.0994487 0.191329
246 1 13.2258 4.67863 0.80017 4 0.0437609 2 0 0.0994487 -0.00469967
247 1 12.6435 4.61885 0.0632315 4 0.036283 2 0 0.0994487 -0.0335804
248 1 13.9891 4.12825 0.69648 4 0.0476937 2 0 0.0994487 -0.430178
249 1 13.4832 4.21781 1.59317 4 0.0406255 2 0 0.0994487 0.0820176
250 1 14.2046 5.11838 1.52001 4 0.0653445 2 0 0.0994487 -0.028992
251 1 14.9402 5.01141 0.811699 4 0.0777313 2 0 0.0994487 -0.0527303
252 1 14.9642 4.4167 1.59432 4 0.0664829 2 0 0.0994487 -0.0635621
253 1 14.1405 4.90647 0.0597868 4 0.0608997 2 0 0.0994487 -0.0856948
254 1 14.961 4.19423 0.096508 4 0.0606712 2 0 0.0994487 0.0322728
255 1 15.6685 4.06642 0.926277 4 0.0706608 2 0 0.0994487 0.872583
256 1 15.8798 4.77595 0.186426 4 0.0901672 2 0 0.0994487 0.16539
257 1 16.5936 4.58036 0.900182 4 0.102418 2 0 0.0994487 -0.0789685
258 1 16.3184 3.95875 1.6903 4 0.080651 2 0 0.0994487 -0.0433961
259 1 15.8111 5.05317 1.64084 4 0.0963631 2 0 0.0994487 0.0995002
260 1 17.2689 3.83372 0.811237 4 0.0964838 2 0 0.0994487 -0.345381
261 1 18.0864 4.48855 1.09806 4 0.130672 2 0 0.0994487 -0.61214
262 1 17.9525 3.63794 1.65602 4 0.101973 2 0 0.0994487 -0.192804
263 1 17.4569 4.57727 0.0147963 4 0.118498 2 0 0.0994487 -0.0974085
264 1 18.1348 3.8547 0.0583493 4 0.109816 2 0 0.0994487 -0.120516
265 1 18.8779 3.70667 0.95022 4 0.115812 2 0 0.0994487 0.0692436
266 1 18.8235 4.60949 0.361826 4 0.145359 2 0 0.0994487 0.115611
267 1 19.6906 4.67872 1.0803 4 0.1742 2 0 0.0994487 0.931529
268 1 18.7859 5.27693 1.20102 4 0.184556 2 0 0.0994487 0.599136
269 1 19.5987 3.76722 0.227421 4 0.124567 2 0 0.0994487 0.16427
270 1 20.4384 3.82188 1.23329 4 0.142206 2 0 0.0994487 0.325957
271 1 20.8846 4.71868 1.39403 4 0.211181 2 0 0.0994487 0.14906
272 1 21.5775 4.95128 0.810455 3 0.254262 2 0 0.0994249 -0.00374637
273 1 21.0824 3.93136 0.512408 4 0.157185 2 0 0.0994487 0.0883048
274 1 20.1339 4.78559 0.352846 4 0.190978 2 0 0.0994487 0.145588
275 1 22.8205 3.63186 1.42135 4 0.153588 2 0 0.0994487 -0.018399
276 1 21.9406 4.13318 1.31068 4 0.182993 2 0 0.0994487 0.0272057
277 1 22.4705 5.17735 1.27286 3 0.288362 2 0 0.0991923 0.0207073
278 1 22.6119 4.34705 0.510028 4 0.201223 2 0 0.0994487 -0.0221054
279 1 23.5735 3.63903 0.782677 4 0.153272 2 0 0.0994487 0.185559
280 1 24.336 4.32055 0.625018 4 0.188445 2 0 0.0994487 -0.150094
281 1 23.4679 4.54946 1.33355 4 0.217975 2 0 0.0994487 -0.0790556
282 1 24.8518 5.25716 0.566763 4 0.246472 2 0 0.0994487 0.0409057
283 1 23.5518 5.06386 0.533607 3 0.265311 2 0 0.0993579 -0.0968892
284 1 25.0086 4.50055 1.62342 4 0.184528 2 0 0.0994487 -0.0421955
285 1 25.0629 3.68037 0.802132 4 0.136548 2 0 0.0994487 -0.187918
286 1 24.363 5.28843 1.43377 3 0.267897 2 0 0.0993412 -0.154711
287 1 25.6904 5.1389 1.34266 4 0.208409 2 0 0.0994487 0.210099
288 1 26.3575 4.29031 1.37159 4 0.137693 2 0 0.0994487 0.149481
289 1 26.5026 4.97257 0.640732 4 0.165274 2 0 0.0994487 0.0989663
290 1 25.5284 4.40089 0.388179 4 0.163745 2 0 0.0994487 0.0559473
291 1 27.3302 4.86961 1.40568 4 0.13312 2 0 0.0994487 0.00660934
292 1 27.9624 3.97641 1.10408 4 0.0847948 2 0 0.0994487 -0.309506
293 1 28.2771 4.73475 0.706344 4 0.101469 2 0 0.0994487 -0.0812475
294 1 27.0674 4.04323 0.570038 4 0.107896 2 0 0.0994487 0.0120219
295 1 28.9321 3.77016 0.487204 4 0.0639275 2 0 0.0994487 -0.00703296
296 1 29.0873 4.52317 1.33085 4 0.077938 2 0 0.0994487 0.0574853
297 1 29.9979 4.07209 1.02303 4 0.0567769 2 0 0.0994487 -0.275232
298 1 31.0296 3.97382 0.373364 4 0.0485594 2 0 0.0994487 0.657583
299 1 30.2046 4.67765 0.491317 4 0.0653097 2 0 0.0994487 0.00995817
300 1 30.9783 4.59929 1.41131 4 0.0568972 2 0 0.0994487 0.679914
301 1 0.908283 5.53205 0.461647 4 0.000270417 2 0 0.0994487 -0.463785
302 1 1.53161 5.51184 1.37971 4 0.000341525 2 0 0.0994487 -0.117387
303 1 0.793684 6.22023 1.2768 4 0.000311545 2 0 0.0994487 -0.703381
304 1 0.257003 6.91734 1.50738 4 0.000307667 2 0 0.0994487 -0.772633
305 1 0.969942 6.9454 0.573423 4 0.000395428 2 0 0.0994487 -0.473533
306 1 1.7053 7.02884 1.23811 4 0.000517713 2 0 0.0994487 0.066518
307 1 1.89588 6.19966 0.519025 4 0.0004804 2 0 0.0994487 -0.1564
308 1 3.10475 5.61709 1.30057 4 0.000738971 2 0 0.0994487 0.0402527
309 1 2.26359 6.15348 1.40977 4 0.000542796 2 0 0.0994487 0.0408561
310 1 3.25442 6.96226 1.12748 4 0.00115894 2 0 0.0994487 -0.0541236
311 1 2.68177 5.61289 0.273587 4 0.000607624 2 0 0.0994487 -0.0596856
312 1 3.39503 6.28191 0.500536 4 0.00107315 2 0 0.0994487 -0.121444
313 1 4.18979 5.46246 0.325783 4 0.00128552 2 0 0.0994487 0.0310178
314 1 4.93434 5.42873 1.31778 4 0.00196081 2 0 0.0994487 -0.2351
315 1 4.13622 6.09659 1.22779 4 0.00152263 2 0 0.0994487 -0.0893889
316 1 4.82567 6.23357 0.333842 4 0.00219963 2 0 0.0994487 -0.0345759
317 1 4.77312 6.79931 1.15967 4 0.00254042 2 0 0.0994487 -0.305931
318 1 4.00267 7.02511 0.221759 4 0.00172713 2 0 0.0994487 -0.085344
319 1 5.78575 5.42185 0.301847 4 0.00279454 2 0 0.0994487 0.0125023
320 1 5.6935 6.24342 0.9632 4 0.00340923 2 0 0.0994487 -0.967781
321 1 6.4578 5.98425 1.59671 4 0.00444313 2 0 0.0994487 0.140914
322 1 6.43234 6.86927 1.00965 4 0.00561829 2 0 0.0994487 0.851676
323 1 6.37773 6.04115 0.154639 4 0.00409476 2 0 0.0994487 0.111112
324 1 5.54993 7.05206 0.147147 4 0.00365538 2 0 0.0994487 0.0363862
325 1 8.21355 5.31419 0.694273 4 0.00839743 2 0 0.0994487 -0.0895919
326 1 7.32761 6.15925 0.754293 4 0.00699403 2 0 0.0994487 0.225732
327 1 7.39163 5.41839 1.49138 4 0.00585125 2 0 0.0994487 0.136754
328 1 8.23884 6.11028 1.49159 4 0.0106594 2 0 0.0994487 0.0187372
329 1 8.01352 6.85364 0.728993 4 0.0119424 2 0 0.0994487 0.069188
330 1 7.28191 6.86379 1.59601 4 0.00867404 2 1 0.0994487 0.126056
331 1 7.33029 5.3575 0.0461812 4 0.00533364 2 0 0.0994487 0.081357
332 1 9.76796 5.3194 0.792562 4 0.0153527 2 0 0.0994487 0.328448
333 1 8.88016 6.18865 0.736908 4 0.0142908 2 0 0.0994487 -0.235543
334 1 9.05434 5.3271 1.5973 4 0.0119309 2 0 0.0994487 -0.0628308
335 1 9.73844 6.19052 1.46731 4 0.0202876 2 0 0.0994487 -0.1065
336 1 9.09351 6.95013 1.463 4 0.0200749 2 2 0.0994487 -0.0760638
337 1 9.76329 6.23201 0.0941385 4 0.019783 2 0 0.0994487 -0.035952
338 1 8.99733 5.46479 0.012702 4 0.0118141 2 0 0.0994487 -0.134754
339 1 10.5831 6.02196 0.964384 4 0.0258684 2 0 0.0994487 -0.356315
340 1 11.3128 6.37134 0.0776634 4 0.0335242 2 0 0.0994487 0.100342
341 1 10.5187 6.94145 0.15452 4 0.0310574 2 0 0.0994487 -0.0735309
342 1 10.4686 6.92564 1.49614 4 0.0329698 2 1 0.0994487 -0.0634622
343 1 11.9994 5.6274 0.183157 4 0.0356062 2 0 0.0994487 -0.0105314
344 1 12.6757 5.81849 0.861776 4 0.0480285 2 0 0.0994487 0.0817412
345 1 11.7774 6.20735 1.05291 4 0.0394188 2 0 0.0994487 0.292266
346 1 13.3219 5.86668 1.55471 4 0.0590738 2 0 0.0994487 0.208166
347 1 13.3506 6.58297 0.813679 4 0.0758288 2 0 0.0994487 -0.292119
348 1 13.3212 5.53867 0.0424813 4 0.0553794 2 0 0.0994487 -0.142912
349 1 14.0617 5.71565 0.77266 4 0.0737224 2 0 0.0994487 -0.372706
350 1 14.3278 6.65176 1.40646 4 0.107742 2 1 0.0994487 -0.103065
351 1 14.1303 6.38483 0.0380077 4 0.0857705 2 0 0.0994487 -0.082612
352 1 15.0282 5.64393 0.034369 4 0.0919297 2 0 0.0994487 0.0573626
353 1 15.8305 5.73813 0.95832 4 0.120667 2 0 0.0994487 0.625773
354 1 15.0472 6.45091 0.806774 4 0.120981 2 0 0.0994487 -0.175606
355 1 16.491 6.45257 1.1401 4 0.179753 2 0 0.0994487 0.206807
356 1 15.1058 5.87594 1.69804 4 0.107724 2 0 0.0994487 -0.0976707
357 1 16.62 5.41933 0.276819 4 0.128387 2 0 0.0994487 0.0799227
358 1 15.6753 6.3382 0.0390223 4 0.131249 2 0 0.0994487 0.0398393
359 1 17.8271 5.30128 0.541411 4 0.155306 2 0 0.0994487 0.150329
360 1 17.113 5.42499 1.24767 4 0.146012 2 0 0.0994487 -0.286572
361 1 17.0619 6.27419 0.411469 4 0.184454 2 0 0.0994487 0.138925
362 1 17.6649 6.24649 1.38542 4 0.212252 2 0 0.0994487 -0.25612
363 1 18.2745 7.0517 1.13153 3 0.298611 2 0 0.0991056 0.662854
364 1 18.3714 6.23173 0.609762 4 0.235971 2 0 0.0994487 0.156209
365 1 19.429 5.75829 0.62055 4 0.242874 2 0 0.0994487 0.0571892
366 1 19.3279 6.55755 1.35081 3 0.313259 2 0 0.0989654 0.279212
367 1 19.9942 6.75229 0.610261 3 0.391407 2 0 0.0977562 -0.012025
368 1 20.7494 5.77593 0.653722 3 0.315531 2 0 0.0989417 -0.104062
369 1 20.1931 5.61076 1.39557 3 0.265992 2 0 0.0993536 0.31204
370 1 20.7787 6.6124 1.30355 3 0.446687 2 0 0.0961388 -0.344208
371 1 21.6592 6.66248 0.666524 3 0.468507 2 0 0.0952246 -0.043478
372 1 21.6631 5.87866 1.38528 3 0.377069 2 0 0.0980524 0.0420243
373 1 21.6904 5.73259 0.0517844 3 0.336539 2 0 0.0986963 -0.00150091
374 1 22.6732 5.8279 0.674154 3 0.364677 2 0 0.098277 0.00265759
375 1 22.6319 6.69333 1.20734 3 0.505165 2 0 0.0931977 -0.202464
376 1 23.3484 6.78052 0.267835 3 0.470815 2 0 0.0951164 -0.125374
377 1 23.4822 5.88496 1.30013 3 0.370185 2 0 0.0981805 -0.176365
378 1 24.3197 6.56281 1.15825 3 0.409208 2 0 0.0973261 0.173641
379 1 24.1457 6.00685 0.427617 3 0.349348 2 0 0.0985197 0.00243682
380 1 25.6831 5.86213 0.700952 3 0.261069 2 0 0.0993845 0.163896
381 1 25.1124 6.04132 1.67733 3 0.305786 2 0 0.0990394 0.0036677
382 1 25.1593 6.74159 0.495153 3 0.364358 2 0 0.0982825 0.0903896
383 1 25.8251 6.59457 1.40775 3 0.3099 2 0 0.0989993 0.0881003
384 1 26.6903 5.84511 1.4763 4 0.210863 2 0 0.0994487 0.0917609
385 1 27.4966 5.54334 0.722172 4 0.154413 2 0 0.0994487 -0.251573
386 1 26.7485 6.36567 0.651888 4 0.23779 2 0 0.0994487 0.0387497
387 1 27.7011 6.47315 1.36539 4 0.191543 2 0 0.0994487 0.131492
388 1 28.3648 5.52203 1.4872 4 0.124113 2 0 0.0994487 0.045633
389 1 27.7097 7.0074 0.530173 4 0.213925 2 0 0.0994487 0.032123
390 1 29.3889 5.30889 0.818726 4 0.0934528 2 0 0.0994487 0.316726
391 1 29.4379 6.18214 1.32212 4 0.111887 2 0 0.0994487 -0.00338115
392 1 29.5784 6.89773 0.506505 4 0.126339 2 0 0.0994487 0.0925865
393 1 28.4685 6.20589 0.638647 4 0.141299 2 0 0.0994487 -0.270082
394 1 29.3762 6.15398 0.0801838 4 0.112208 2 0 0.0994487 0.0969263
395 1 28.4822 5.38976 0.0592959 4 0.113813 2 0 0.0994487 -0.105003
396 1 30.9636 5.36838 0.595026 4 0.0727971 2 0 0.0994487 0.667849
397 1 30.2159 5.45949 1.46813 4 0.0805557 2 0 0.0994487 0.0540213
398 1 30.3958 6.18258 0.649752 4 0.0939775 2 0 0.0994487 0.329001
399 1 31.2189 6.15516 1.38439 4 0.082946 2 0 0.0994487 0.587258
400 1 31.1994 6.95407 0.60342 4 0.0980641 2 0 0.0994487 0.812252
401 1 31.7235 5.99622 0.446564 4 0.0770907 2 0 0.0994487 0.879729
402 1 0.261851 7.63199 0.661866 4 0.000365453 2 0 0.0994487 -0.876374
403 1 0.831025 8.46344 0.61936 4 0.000484503 2 0 0.0994487 -0.577626
404 1 1.11211 7.86396 1.49711 4 0.000472085 2 0 0.0994487 -0.154428
405 1 0.356955 8.5626 1.47035 4 0.000423131 2 0 0.0994487 -0.764984
406 1 1.59266 7.76478 0.37187 4 0.00057837 2 0 0.0994487 -0.0897879
407 1 1.72382 8.61735 1.46471 4 0.000688193 2 0 0.0994487 0.0395969
408 1 2.48799 7.14986 0.476331 4 0.000810873 2 0 0.0994487 -0.0836961
409 1 2.19177 8.6335 0.399707 4 0.00089425 2 0 0.0994487 -0.137268
410 1 2.39416 7.81099 1.27726 4 0.00085354 2 0 0.0994487 0.0869921
411 1 3.01349 8.51445 0.935533 4 0.0013463 2 0 0.0994487 -0.539313
412 1 3.24418 7.77117 0.327041 4 0.00135524 2 0 0.0994487 -0.196205
413 1 3.81243 8.45898 0.0822892 4 0.001918 2 0 0.0994487 -0.0457786
414 1 3.97971 7.67009 1.24863 4 0.00193769 2 0 0.0994487 -0.0554892
415 1 4.70459 8.25653 0.921772 4 0.00304598 2 0 0.0994487 0.295332
416 1 4.67023 7.63706 0.247803 4 0.00265003 2 0 0.0994487 0.0376916
417 1 3.81127 8.34851 1.76162 4 0.00192476 2 0 0.0994487 -0.057436
418 1 5.86955 8.34822 0.169905 4 0.00534199 2 0 0.0994487 0.113105
419 1 5.48363 7.59071 1.03232 4 0.00419418 2 0 0.0994487 -0.467665
420 1 6.49365 7.53799 0.169175 4 0.00638986 2 0 0.0994487 0.187623
421 1 6.39674 8.23976 1.04384 4 0.00754794 2 0 0.0994487 0.338189
422 1 7.28583 7.76918 0.746313 4 0.0109064 2 1 0.0994487 0.00996714
423 1 8.2859 8.31376 0.868772 4 0.0197954 2 2 0.0994487 0.278298
424 1 7.27857 8.18368 1.7015 4 0.0130773 2 2 0.0994487 -0.174752
425 1 8.05208 7.48784 1.5604 4 0.0150693 2 1 0.0994487 0.184996
426 1 7.99895 7.60312 0.0282118 4 0.013498 2 0 0.0994487 0.0674135
427 1 9.84313 7.22199 0.72344 4 0.0281241 2 1 0.0994487 -0.34694
428 1 8.91207 7.61626 0.661731 4 0.0212987 2 1 0.0994487 0.158517
429 1 9.73234 8.61964 0.693151 4 0.0377882 2 3 0.0994487 -0.257023
430 1 9.09265 8.69904 1.44495 4 0.0329643 2 9 0.0994487 -0.394861
431 1 9.64026 7.88932 1.60055 4 0.0347018 2 8 0.0994487 -0.34054
432 1 11.3161 7.14287 0.810636 4 0.0435749 2 1 0.0994487 0.448619
433 1 10.5731 7.9454 0.844311 4 0.0432086 2 3 0.0994487 -0.19783
434 1 10.5877 8.70196 1.4255 4 0.0530528 1 8 0.0994487 -0.148527
435 1 11.4057 7.80503 1.60301 4 0.0582547 2 7 0.0994487 0.228667
436 1 11.227 8.11851 0.0422735 4 0.0497454 2 0 0.0994487 0.174336
437 1 12.7061 7.28322 0.565784 4 0.0747575 2 0 0.0994487 -0.0531384
438 1 12.178 8.23518 0.590765 4 0.0756583 2 2 0.0994487 0.163879
439 1 12.0637 7.15788 1.37768 4 0.058608 2 3 0.0994487 0.145839
440 1 12.0887 8.68064 1.49044 4 0.0876 1 8 0.0994487 0.0820724
441 1 12.8601 7.99585 1.47598 4 0.101805 2 6 0.0994487 -0.217514
442 1 14.3373 7.3542 0.580954 4 0.124021 2 0 0.0994487 0.0653724
443 1 13.6169 8.09282 0.464536 4 0.117993 2 2 0.0994487 0.0238738
444 1 13.458 7.34024 1.34133 4 0.101678 2 2 0.0994487 0.0547557
445 1 14.2471 8.18371 1.35246 4 0.158403 2 5 0.0994487 0.0403496
446 1 16.4328 7.18497 0.276798 4 0.209393 2 0 0.0994487 -0.0638794
447 1 15.6276 7.3114 0.923132 4 0.185763 2 1 0.0994487 -0.441982
448 1 15.0689 8.29247 0.865596 4 0.197641 2 2 0.0994487 -0.303952
449 1 16.2658 8.16106 1.10977 0 0.259017 1 0 0.099397 -0.300187