ITEM: TIMESTEP
49500
ITEM: NUMBER OF ATOMS
9495
ITEM: BOX BOUNDS mm mm mm
0.0000000000000000e+00 3.1748021039364001e+01
0.0000000000000000e+00 3.1748021039364001e+01
-7.4072398406925706e-04 3.1748021039364001e+01
ITEM: ATOMS id type x y z c_phase c_temp c_surf c_nbond c_visc f_3[1]
1 1 0.116341 1.10259 0.464337 4 0.00122939 2 0 0.0994487 -0.681941
2 1 0.974108 1.6685 0.77798 4 0.00157699 2 0 0.0994487 -0.517032
3 1 0.714648 0.793562 1.41295 4 0.00132682 2 0 0.0994487 -0.281794
4 1 0.00336375 1.60273 1.37437 4 0.00130526 2 0 0.0994487 -0.804051
5 1 0.729896 0.0633724 0.61602 4 0.00115994 3 0 0.0994487 -0.190374
6 1 1.71015 0.808983 1.0155 4 0.00175502 2 0 0.0994487 -0.33207
7 1 1.80059 1.47468 0.221075 4 0.00185599 2 0 0.0994487 -0.125829
8 1 1.82015 1.66049 1.76126 4 0.00194622 2 0 0.0994487 -0.139533
9 1 2.52093 0.749102 0.203812 4 0.00212198 2 0 0.0994487 -0.14294
10 1 2.59149 0.0538711 1.03726 4 0.00211881 2 0 0.0994487 -0.295005
11 1 2.64922 1.541 0.882848 4 0.00243657 2 0 0.0994487 0.235751
12 1 2.66829 0.815502 1.7457 4 0.00228627 2 0 0.0994487 -0.187041
13 1 3.43386 0.933692 0.956349 4 0.00296318 2 0 0.0994487 0.320238
14 1 3.49924 0.0925696 1.70571 4 0.00262507 2 0 0.0994487 0.178053
15 1 3.60652 1.70798 1.71994 4 0.00347425 2 0 0.0994487 0.0487941
16 1 4.10576 0.858321 0.325305 4 0.00372931 2 0 0.0994487 0.153145
17 1 4.96159 0.56786 1.17466 4 0.0053472 2 0 0.0994487 -0.0370687
18 1 4.91949 1.59987 0.383508 4 0.00585867 2 0 0.0994487 -0.100249
19 1 4.3472 0.941527 1.62884 4 0.0042006 2 0 0.0994487 0.110737
20 1 3.47612 0.111428 0.171027 4 0.00255266 2 0 0.0994487 0.166215
21 1 5.64741 0.645627 0.325839 4 0.00694716 2 0 0.0994487 -0.0806058
22 1 5.88414 1.31048 0.938036 4 0.00799439 2 0 0.0994487 -0.199593
23 1 6.57478 1.39104 0.218369 4 0.0101625 2 0 0.0994487 -0.0861346
24 1 5.78374 0.460658 1.69897 4 0.0070651 2 0 0.0994487 -0.0846535
25 1 5.03122 1.72414 1.43602 4 0.00608984 2 0 0.0994487 0.0453703
26 1 6.7138 0.39031 0.865278 4 0.00975181 2 0 0.0994487 -0.0793829
27 1 6.69104 1.00962 1.69374 4 0.00996752 2 0 0.0994487 -0.107924
28 1 8.2679 0.408875 1.07337 4 0.015195 2 0 0.0994487 -0.100167
29 1 7.36782 1.22285 0.954198 4 0.0127259 2 0 0.0994487 -0.302557
30 1 8.24709 1.39092 0.236779 4 0.0166516 2 0 0.0994487 -0.0460652
31 1 8.12868 1.27217 1.60653 4 0.0156245 2 0 0.0994487 -0.00811793
32 1 7.58247 0.647807 0.140287 4 0.0128917 2 0 0.0994487 -0.110937
33 1 8.85849 0.508506 0.273966 4 0.017913 2 0 0.0994487 -0.0616469
34 1 9.55301 0.3386 0.888639 4 0.021109 2 0 0.0994487 0.00506314
35 1 9.02586 1.30716 1.1133 4 0.0203676 2 0 0.0994487 -0.0606482
37 1 9.63995 1.37474 0.0900752 4 0.0233398 2 0 0.0994487 0.0992908
38 1 11.2128 0.215893 0.632658 4 0.0320166 2 0 0.0994487 0.203503
39 1 10.3637 1.04743 0.823114 4 0.0275916 2 0 0.0994487 0.539884
40 1 10.523 0.196295 1.44539 4 0.0267311 2 0 0.0994487 0.0644282
41 1 11.2856 1.01846 1.41785 4 0.0361952 2 0 0.0994487 0.164706
42 1 10.5797 1.67706 1.72992 4 0.0323267 2 0 0.0994487 0.118163
43 1 10.2431 0.367861 0.0780499 4 0.0240012 2 0 0.0994487 0.149801
44 1 12.8757 0.211714 0.636805 4 0.051494 2 0 0.0994487 0.0587871
45 1 12.0457 1.07408 0.506655 4 0.0457385 2 0 0.0994487 -0.0235519
46 1 12.1319 0.316439 1.29957 4 0.0432413 2 0 0.0994487 0.0188359
47 1 12.7194 1.19864 1.3723 4 0.0554877 2 0 0.0994487 -0.0305285
48 1 14.3729 0.318493 0.764646 4 0.0725446 2 0 0.0994487 -0.0460388
49 1 13.5924 1.113 0.843618 4 0.0679452 2 0 0.0994487 -0.263054
50 1 14.0399 1.55958 0.167469 4 0.0787479 2 0 0.0994487 -0.0898255
51 1 13.6075 0.359834 1.6352 4 0.0619704 2 0 0.0994487 -0.0562638
52 1 14.3777 1.14948 1.47647 4 0.0774333 2 0 0.0994487 -0.0178283
53 1 14.8761 1.55337 0.662943 4 0.0891455 2 0 0.0994487 0.389946
54 1 15.7061 0.770636 0.788259 4 0.0931539 2 0 0.0994487 0.366482
55 1 16.5532 1.54451 0.681338 4 0.120807 2 0 0.0994487 0.000803031
56 1 15.1422 0.4642 1.64149 4 0.0815183 2 0 0.0994487 0.152077
57 1 16.547 0.712289 1.3421 4 0.109651 2 0 0.0994487 0.0956249
58 1 15.6341 1.48544 1.3916 4 0.100823 2 0 0.0994487 0.15363
59 1 15.1049 0.711806 0.0677822 4 0.0816493 2 0 0.0994487 0.169202
60 1 17.2544 0.732268 0.547589 4 0.122754 2 0 0.0994487 0.0286288
61 1 17.9231 1.58109 0.757246 4 0.146866 2 0 0.0994487 0.0415607
62 1 17.916 0.742935 1.42801 4 0.135654 2 0 0.0994487 -0.224378
63 1 17.2202 1.74884 1.56274 4 0.139322 2 0 0.0994487 -0.0984853
64 1 19.5372 0.0167772 0.662766 4 0.142823 2 0 0.0994487 0.0436432
65 1 18.7918 0.725074 0.684829 4 0.145076 2 0 0.0994487 -0.269946
66 1 19.5395 1.55488 0.841653 4 0.16686 2 0 0.0994487 -0.341163
67 1 19.0276 0.158607 1.54508 4 0.141501 2 0 0.0994487 -0.158665
68 1 19.5934 0.967491 1.68957 4 0.155214 2 0 0.0994487 0.00834988
69 1 18.6564 1.51302 1.50035 4 0.156935 2 0 0.0994487 -0.250309
70 1 21.0889 0.349843 1.06749 4 0.155445 2 0 0.0994487 -0.196127
71 1 20.2493 0.776373 0.980057 4 0.15732 2 0 0.0994487 -0.0497628
72 1 21.1062 1.65725 0.951506 4 0.175581 2 0 0.0994487 0.692911
73 1 21.1874 0.765598 0.218806 4 0.158895 2 0 0.0994487 -0.0445911
74 1 20.3457 1.51479 0.193617 4 0.170306 2 0 0.0994487 -0.0806028
75 1 22.0087 0.262534 0.539755 4 0.15454 2 0 0.0994487 0.0993588
76 1 22.7913 0.430275 1.40734 4 0.155501 2 0 0.0994487 0.206599
77 1 22.1105 1.14763 1.32981 4 0.165117 2 0 0.0994487 0.240021
78 1 21.9982 1.59955 0.538558 4 0.175197 2 0 0.0994487 0.185171
79 1 22.9157 1.07463 0.445168 4 0.162822 2 0 0.0994487 0.0520836
80 1 24.228 0.380179 1.45209 4 0.14957 2 0 0.0994487 0.0576162
81 1 23.5672 0.357563 0.57369 4 0.152541 2 0 0.0994487 0.0385703
82 1 24.4367 1.18687 0.754729 4 0.159268 2 0 0.0994487 -0.0192971
83 1 23.4757 1.2499 1.4028 4 0.165981 2 0 0.0994487 0.0298762
84 1 24.955 0.315686 0.551996 4 0.14203 2 0 0.0994487 -0.0171991
85 1 26.0085 0.383365 1.1715 4 0.129891 2 0 0.0994487 -0.18586
86 1 25.169 1.12579 1.48087 4 0.151496 2 0 0.0994487 0.0251049
87 1 25.9301 1.73476 1.35794 4 0.153272 2 0 0.0994487 0.0345366
88 1 25.8917 0.929212 0.432102 4 0.137316 2 0 0.0994487 -0.0954197
89 1 27.5736 1.28032 0.38906 4 0.119646 2 0 0.0994487 0.0454492
90 1 27.6142 0.50928 0.874321 4 0.112858 2 0 0.0994487 0.175387
91 1 26.7559 1.02809 1.26347 4 0.126603 2 0 0.0994487 -0.236886
92 1 28.3748 0.337482 1.39813 4 0.102355 2 0 0.0994487 0.00984421
93 1 26.7925 0.240345 0.226621 4 0.118613 2 0 0.0994487 0.0380747
94 1 28.6489 1.24263 0.742341 4 0.107304 2 0 0.0994487 0.102406
95 1 29.3912 0.945639 1.56878 4 0.0962741 2 0 0.0994487 -0.0192007
96 1 28.5228 1.71921 1.49749 4 0.113242 2 0 0.0994487 -0.0429809
97 1 29.8133 0.173958 1.46124 4 0.0882865 2 0 0.0994487 0.133416
98 1 29.2734 0.3547 0.615275 4 0.0928538 2 0 0.0994487 -0.0816812
99 1 31.5874 0.266128 1.25663 4 0.0748133 3 0 0.0994487 0.830096
100 1 30.7016 0.49015 0.470738 4 0.0836818 2 0 0.0994487 0.354852
101 1 30.1009 1.19877 0.774133 4 0.0934258 2 0 0.0994487 0.21092
102 1 30.8649 0.971942 1.39386 4 0.0862909 2 0 0.0994487 0.703281
103 1 1.11081 2.43607 0.129285 4 0.00172703 2 0 0.0994487 -0.0373226
104 1 0.133403 2.3821 0.812241 4 0.00150666 2 0 0.0994487 -0.984517
105 1 1.28845 3.23764 0.949187 4 0.00212806 2 0 0.0994487 0.222087
106 1 1.13977 2.36077 1.59162 4 0.00180518 2 0 0.0994487 -0.22219
107 1 0.386685 3.02999 1.54944 4 0.00173599 2 0 0.0994487 -0.671256
108 1 0.332248 3.09582 0.131296 4 0.00168454 2 0 0.0994487 -0.59134
109 1 1.90972 2.41867 0.78376 4 0.00218347 2 0 0.0994487 0.078207
110 1 2.65852 3.28029 0.860875 4 0.00332372 2 0 0.0994487 0.0668016
111 1 2.66931 2.22918 1.53373 4 0.00271151 2 0 0.0994487 0.082954
112 1 3.2579 3.42668 1.64938 4 0.00424414 2 0 0.0994487 0.0039737
113 1 2.7261 2.38168 0.0557193 4 0.00262497 2 0 0.0994487 0.1466
114 1 3.38195 2.55413 0.779289 4 0.0036924 2 0 0.0994487 0.211581
115 1 4.00679 1.841 0.711184 4 0.00422222 2 0 0.0994487 -0.0361257
116 1 4.91383 2.57277 0.815661 4 0.00680683 2 0 0.0994487 -0.259353
117 1 4.20148 3.3175 0.749446 4 0.00598627 2 0 0.0994487 0.00621357
118 1 4.13245 2.64107 1.58328 4 0.00506305 2 0 0.0994487 0.0270762
119 1 5.65047 2.44269 0.132743 4 0.00865695 2 0 0.0994487 -0.189926
120 1 6.55776 2.18062 0.772597 4 0.0111874 2 0 0.0994487 -0.289393
121 1 5.64874 3.19593 0.952489 4 0.00988881 2 0 0.0994487 -0.754639
122 1 5.861 2.19426 1.49672 4 0.00878698 2 0 0.0994487 0.0126343
123 1 6.52037 3.06691 1.5557 4 0.0127759 2 0 0.0994487 0.0443563
124 1 6.65033 2.92778 0.134227 4 0.0125345 2 0 0.0994487 0.0288859
125 1 7.45405 2.22586 0.139832 4 0.0148289 2 0 0.0994487 -0.0535035
126 1 8.08209 2.20208 0.930382 4 0.0180687 2 0 0.0994487 -0.302082
127 1 7.40132 3.06835 0.934051 4 0.0171213 2 0 0.0994487 -0.0455367
128 1 7.29928 2.06035 1.56856 4 0.0137841 2 0 0.0994487 -0.0607338
129 1 8.18545 3.00183 1.65211 4 0.0215632 2 0 0.0994487 -0.0454167
130 1 8.26934 2.9712 0.0392146 4 0.0220245 2 0 0.0994487 -0.150618
131 1 8.90393 2.08699 0.252387 4 0.0220552 2 0 0.0994487 0.00243226
132 1 9.77243 2.0246 1.10996 4 0.0277542 2 0 0.0994487 0.173461
133 1 8.92671 2.97262 0.928693 4 0.026894 2 0 0.0994487 -0.156767
134 1 9.03062 2.22066 1.70398 4 0.0236301 2 0 0.0994487 -0.0819686
135 1 9.56096 2.90576 0.21312 4 0.0306487 2 0 0.0994487 0.17312
136 1 10.2834 2.1137 0.214297 4 0.0305366 2 0 0.0994487 0.337738
137 1 11.1583 1.82604 0.771092 4 0.039166 2 0 0.0994487 0.260087
138 1 10.6214 2.80819 0.921535 4 0.0412663 2 0 0.0994487 0.541915
139 1 11.4444 2.82964 1.57484 4 0.0527902 2 0 0.0994487 0.0951984
140 1 12.6737 1.94118 0.593851 4 0.0625645 2 0 0.0994487 -0.283935
141 1 11.928 2.64099 0.742299 4 0.0578889 2 0 0.0994487 -0.0386753
142 1 11.9239 1.9206 1.46509 4 0.0499012 2 0 0.0994487 0.0946524
143 1 12.8449 3.01766 1.68597 4 0.0779833 2 0 0.0994487 0.0363556
144 1 13.1791 3.03035 0.848852 4 0.0851831 2 0 0.0994487 -0.44086
145 1 13.3784 1.9912 1.48064 4 0.0725559 2 0 0.0994487 -0.0150713
146 1 14.0206 2.44438 0.927124 4 0.0901773 2 0 0.0994487 -0.133108
147 1 14.0279 3.38359 1.55716 4 0.108556 2 0 0.0994487 0.0255728
148 1 14.6961 3.43698 0.884932 4 0.125533 2 0 0.0994487 -0.332977
149 1 14.7823 2.29758 1.44821 4 0.100291 2 0 0.0994487 0.0469258
150 1 14.8418 2.51505 0.136557 4 0.10532 2 0 0.0994487 0.173004
151 1 14.1591 3.2262 0.0325348 4 0.108527 2 0 0.0994487 -0.246106
152 1 13.4137 2.29398 0.0590902 4 0.0787272 2 0 0.0994487 -0.280962
153 1 15.6993 2.44373 0.692668 4 0.121403 2 0 0.0994487 0.364388
154 1 16.3029 3.20095 0.662084 4 0.154704 2 0 0.0994487 0.328583
155 1 16.308 2.47951 1.52575 4 0.13723 2 0 0.0994487 -0.100649
156 1 15.3694 3.25723 1.50191 4 0.136684 2 0 0.0994487 -0.00767146
157 1 15.5706 3.25854 0.0192499 4 0.135085 2 0 0.0994487 0.290236
158 1 17.0646 2.35032 0.682778 4 0.148916 2 0 0.0994487 0.0234781
159 1 17.944 2.92608 0.699539 4 0.188788 2 0 0.0994487 -0.231194
160 1 18.0193 2.43917 1.58112 4 0.172222 2 0 0.0994487 -0.149137
161 1 17.0918 3.1162 1.49491 4 0.175275 2 0 0.0994487 -0.143439
162 1 18.8908 2.35742 1.01358 4 0.182815 2 0 0.0994487 -0.51683
163 1 19.7027 3.2427 1.27782 4 0.223566 2 0 0.0994487 0.394876
164 1 18.884 2.99607 0.196019 4 0.206183 2 0 0.0994487 -0.17181
165 1 19.587 2.34239 0.101452 4 0.189258 2 0 0.0994487 -0.132371
166 1 20.3251 1.78863 1.72442 4 0.174314 2 0 0.0994487 0.0449521
167 1 21.1565 2.41663 0.458355 4 0.199525 2 0 0.0994487 0.196186
168 1 20.1948 2.46882 1.11433 4 0.195209 2 0 0.0994487 0.286739
169 1 21.31 3.29463 1.39314 4 0.243053 2 0 0.0994487 0.0777268
170 1 20.4222 2.99313 0.334941 4 0.21698 2 0 0.0994487 0.186289
171 1 22.8719 2.07007 1.50872 4 0.191016 2 0 0.0994487 -0.0221242
172 1 22.9717 2.60199 0.735523 4 0.216139 2 0 0.0994487 0.133326
173 1 22.0961 2.49917 1.23787 4 0.208903 2 0 0.0994487 0.186435
174 1 21.9898 3.20043 0.598797 4 0.245701 2 0 0.0994487 -0.0757525
175 1 22.6771 3.40124 0.07601 3 0.259459 2 0 0.0993943 0.0760731
176 1 23.7438 1.80844 0.624025 4 0.177973 2 0 0.0994487 -0.0873597
177 1 24.4289 1.98763 1.61102 4 0.179609 2 0 0.0994487 -0.0641756
178 1 24.342 2.68296 0.775192 4 0.205744 2 0 0.0994487 -0.341091
179 1 23.6887 2.90303 1.53628 4 0.223089 2 0 0.0994487 -0.110504
180 1 24.4728 3.51078 1.55704 4 0.247844 2 0 0.0994487 -0.118304
181 1 24.9562 2.84566 0.0146836 4 0.201226 2 0 0.0994487 -0.0864592
182 1 26.5483 1.79415 0.511367 4 0.143169 2 0 0.0994487 -0.00559966
183 1 25.1322 1.85613 0.509414 4 0.168093 2 0 0.0994487 -0.0215288
184 1 25.7918 2.61203 0.707489 4 0.182721 2 0 0.0994487 0.228203
185 1 25.1579 2.55548 1.52547 4 0.190991 2 0 0.0994487 0.0576675
186 1 25.7213 3.49812 1.51211 4 0.224567 2 0 0.0994487 0.123859
187 1 26.5364 2.56002 1.53049 4 0.164785 2 0 0.0994487 0.0579485
188 1 26.1686 3.50068 0.599043 4 0.213382 2 0 0.0994487 0.168847
189 1 27.5039 1.98546 1.23792 4 0.130973 2 0 0.0994487 -0.186418
190 1 28.2489 2.09022 0.343734 4 0.12231 2 0 0.0994487 -0.0177247
191 1 27.0867 2.6924 0.645359 4 0.156338 2 0 0.0994487 -0.105599
192 1 27.1998 3.35397 1.41682 4 0.175592 2 0 0.0994487 -0.0983264
193 1 28.2537 2.75799 1.20639 4 0.134888 2 0 0.0994487 -0.418305
194 1 27.982 3.21993 0.326384 4 0.150342 2 0 0.0994487 -0.125256
195 1 29.9568 1.80906 1.70764 4 0.100338 2 0 0.0994487 0.183201
196 1 29.4477 2.04702 0.879698 4 0.108256 2 0 0.0994487 -0.00708297
197 1 29.1956 2.6589 0.290703 4 0.119106 2 0 0.0994487 -0.0578281
198 1 29.2495 3.2651 1.17365 4 0.13025 2 0 0.0994487 0.118636
199 1 30.9114 1.98502 0.924207 4 0.0981009 2 0 0.0994487 0.967251
200 1 30.1815 2.71094 1.00186 4 0.110907 2 0 0.0994487 0.675109
201 1 31.0247 3.35309 0.97101 4 0.115521 2 0 0.0994487 0.998409
202 1 30.9865 2.69483 1.72648 4 0.106407 2 0 0.0994487 0.578501
203 1 30.1092 3.25953 0.132205 4 0.117513 2 0 0.0994487 -0.0443657
204 1 30.4116 1.90909 0.0255368 4 0.098299 2 0 0.0994487 0.106045
205 1 31.1434 2.66402 0.0761253 4 0.103445 2 0 0.0994487 0.70882
206 1 0.293831 3.78503 0.918557 4 0.00193785 2 0 0.0994487 -0.999347
207 1 0.143046 4.59443 0.482118 4 0.00213788 2 0 0.0994487 -0.784494
208 1 1.14036 4.67093 0.986638 4 0.00269701 2 0 0.0994487 -0.516754
209 1 0.0884667 5.26681 1.27761 4 0.00240201 2 0 0.0994487 -0.887458
210 1 1.04069 3.86421 0.0595682 4 0.00216013 2 0 0.0994487 0.0148876
211 1 1.84117 4.04604 0.847105 4 0.00295964 2 0 0.0994487 0.00826503
212 1 2.54049 4.85585 1.13748 4 0.00438282 2 0 0.0994487 -0.333849
213 1 2.64953 4.14475 0.20674 4 0.00401878 2 0 0.0994487 -0.0285729
214 1 1.89758 4.96895 0.278386 4 0.00362728 2 0 0.0994487 -0.153434
215 1 3.40771 4.86189 0.161635 4 0.00600061 2 0 0.0994487 -0.0163893
216 1 3.494 4.07675 0.885909 4 0.00533461 2 0 0.0994487 0.0268887
217 1 4.91235 4.00001 1.18344 4 0.00887075 2 0 0.0994487 0.0115028
218 1 4.04658 4.88002 1.14639 4 0.00755176 2 0 0.0994487 0.264486
219 1 4.26027 4.18509 0.149001 4 0.00726613 2 0 0.0994487 0.0377371
220 1 5.00947 4.74001 0.341082 4 0.0106786 2 0 0.0994487 0.0765379
221 1 5.77735 3.9378 0.198707 4 0.0115665 2 0 0.0994487 0.0260147
222 1 6.48883 3.76611 0.772067 4 0.0144073 2 0 0.0994487 0.20455
223 1 5.68025 4.73638 1.02487 4 0.0138393 2 0 0.0994487 -0.621704
224 1 6.66321 4.5115 1.6428 4 0.0179375 2 0 0.0994487 0.158932
225 1 6.68072 5.1315 0.885352 4 0.0212272 2 0 0.0994487 0.206846
226 1 8.1982 3.892 0.700757 4 0.0269473 2 0 0.0994487 -0.369904
227 1 7.40842 4.46072 0.5468 4 0.0235921 2 0 0.0994487 -0.0252146
228 1 7.39886 3.87029 1.49684 4 0.020161 2 0 0.0994487 0.102575
229 1 8.20004 4.61106 1.48677 4 0.0315225 2 0 0.0994487 -0.0118392
230 1 9.8976 3.57792 0.885667 4 0.0406807 2 0 0.0994487 0.592768
231 1 9.07913 4.56551 0.821335 4 0.0410043 2 0 0.0994487 -0.658548
232 1 9.86266 4.50302 0.126324 4 0.0479691 2 0 0.0994487 0.0958646
233 1 9.07829 3.76256 1.49819 4 0.033938 2 0 0.0994487 -0.0708869
234 1 9.86881 4.3462 1.65532 4 0.0489508 2 0 0.0994487 -0.0856636
235 1 8.98541 3.86821 0.0631775 4 0.0333317 2 0 0.0994487 -0.138754
236 1 11.408 3.64493 0.778297 4 0.0627984 2 0 0.0994487 0.202064
237 1 10.5891 4.66652 0.906264 4 0.0633277 2 0 0.0994487 0.045069
238 1 11.3867 4.69403 0.230734 4 0.079113 2 0 0.0994487 -0.0498916
239 1 10.7059 3.56689 1.58785 4 0.0512336 2 0 0.0994487 -0.0448508
240 1 11.3652 4.3716 1.70545 4 0.0735301 2 0 0.0994487 -0.0798294
241 1 11.3894 5.27213 0.983682 4 0.0902009 2 0 0.0994487 -0.674483
242 1 10.5826 3.84888 0.176129 4 0.0510648 2 0 0.0994487 0.210465
243 1 12.5168 3.57716 0.814749 4 0.0823884 2 0 0.0994487 -0.0105797
244 1 12.1916 4.55033 1.00021 4 0.0939304 2 0 0.0994487 0.105035
245 1 12.7362 4.99738 1.68903 4 0.114028 2 0 0.0994487 0.191327
246 1 13.2258 4.67863 0.80017 4 0.123051 2 0 0.0994487 -0.00471043
247 1 12.6435 4.61885 0.0632315 4 0.107979 2 0 0.0994487 -0.0335821
248 1 13.9891 4.12825 0.69648 4 0.129343 2 0 0.0994487 -0.430183
249 1 13.4832 4.21781 1.59317 4 0.115538 2 0 0.0994487 0.0820149
250 1 14.2046 5.11838 1.52001 4 0.165262 2 0 0.0994487 -0.0289964
251 1 14.9402 5.01141 0.811699 4 0.186575 2 0 0.0994487 -0.0528342
252 1 14.9642 4.4167 1.59432 4 0.164767 2 0 0.0994487 -0.0635656
253 1 14.1405 4.90647 0.0597868 4 0.156851 2 0 0.0994487 -0.0856976
254 1 14.961 4.19423 0.096508 4 0.153743 2 0 0.0994487 0.0322701
255 1 15.6685 4.06642 0.926277 4 0.170374 2 0 0.0994487 0.872561
256 1 15.8798 4.77595 0.186426 4 0.205999 2 0 0.0994487 0.165385
257 1 16.5936 4.58036 0.900182 4 0.22363 2 0 0.0994487 -0.0790133
258 1 16.3184 3.95875 1.6903 4 0.186512 2 0 0.0994487 -0.0434007
259 1 15.8111 5.05317 1.64084 4 0.217765 2 0 0.0994487 0.0994957
260 1 17.2689 3.83372 0.811237 4 0.210371 2 0 0.0994487 -0.345391
261 1 18.0864 4.48855 1.09806 3 0.262744 2 0 0.0993741 -0.612219
262 1 17.9525 3.63794 1.65602 4 0.217208 2 0 0.0994487 -0.192809
263 1 17.4569 4.57727 0.0147963 4 0.247153 2 0 0.0994487 -0.0974116
264 1 18.1348 3.8547 0.0583493 4 0.229684 2 0 0.0994487 -0.120518
265 1 18.8779 3.70667 0.95022 4 0.235689 2 0 0.0994487 0.0692052
266 1 18.8235 4.60949 0.361826 3 0.280717 2 0 0.0992515 0.115605
267 1 19.6906 4.67872 1.0803 3 0.316641 2 0 0.09893 0.931544
268 1 18.7859 5.27693 1.20102 3 0.340354 2 0 0.098646 0.600779
269 1 19.5987 3.76722 0.227421 4 0.245974 2 0 0.0994487 0.164267
270 1 20.4384 3.82188 1.23329 3 0.267199 2 0 0.0993457 0.325949
271 1 20.8846 4.71868 1.39403 3 0.357945 2 0 0.0983881 0.149052
272 1 21.5775 4.95128 0.810455 3 0.409245 2 0 0.0973251 -0.00376157
273 1 21.0824 3.93136 0.512408 3 0.284741 2 0 0.0992209 0.0883001
274 1 20.1339 4.78559 0.352846 3 0.336102 2 0 0.0987019 0.145581
275 1 22.8205 3.63186 1.42135 3 0.27492 2 0 0.0992934 -0.0183998
276 1 21.9406 4.13318 1.31068 3 0.315669 2 0 0.0989403 0.0272023
277 1 22.4705 5.17735 1.27286 3 0.448106 2 0 0.0960849 0.020708
278 1 22.6119 4.34705 0.510028 3 0.33737 2 0 0.0986855 -0.0221061
279 1 23.5735 3.63903 0.782677 3 0.273275 2 0 0.0993049 0.18556
280 1 24.336 4.32055 0.625018 3 0.318574 2 0 0.0989093 -0.15009
281 1 23.4679 4.54946 1.33355 3 0.357114 2 0 0.0984013 -0.0790538
282 1 24.8518 5.25716 0.566763 3 0.393736 2 0 0.0977041 0.0409133
283 1 23.5518 5.06386 0.533607 3 0.416854 2 0 0.0971174 -0.0968856
284 1 25.0086 4.50055 1.62342 3 0.313779 2 0 0.09896 -0.0421925
285 1 25.0629 3.68037 0.802132 4 0.249639 2 0 0.0994487 -0.187914
286 1 24.363 5.28843 1.43377 3 0.420127 2 0 0.0970232 -0.154703
287 1 25.6904 5.1389 1.34266 3 0.346398 2 0 0.0985624 0.210108
288 1 26.3575 4.29031 1.37159 3 0.252165 2 0 0.0994367 0.149486
289 1 26.5026 4.97257 0.640732 3 0.290985 2 0 0.0991709 0.0989722
290 1 25.5284 4.40089 0.388179 3 0.286667 2 0 0.0992058 0.0559504
291 1 27.3302 4.86961 1.40568 4 0.248815 2 0 0.0994487 0.00661364
292 1 27.9624 3.97641 1.10408 4 0.178519 2 0 0.0994487 -0.309501
293 1 28.2771 4.73475 0.706344 4 0.205887 2 0 0.0994487 -0.0812425
294 1 27.0674 4.04323 0.570038 4 0.211074 2 0 0.0994487 0.0120253
295 1 28.9321 3.77016 0.487204 4 0.147745 2 0 0.0994487 -0.00703169
296 1 29.0873 4.52317 1.33085 4 0.171436 2 0 0.0994487 0.0574875
297 1 29.9979 4.07209 1.02303 4 0.138526 2 0 0.0994487 -0.275232
298 1 31.0296 3.97382 0.373364 4 0.125694 2 0 0.0994487 0.657583
299 1 30.2046 4.67765 0.491317 4 0.154497 2 0 0.0994487 0.00995931
300 1 30.9783 4.59929 1.41131 4 0.141233 2 0 0.0994487 0.679914
301 1 0.908283 5.53205 0.461647 4 0.00305528 2 0 0.0994487 -0.463785
302 1 1.53161 5.51184 1.37971 4 0.00356403 2 0 0.0994487 -0.117388
303 1 0.793684 6.22023 1.2768 4 0.0034665 2 0 0.0994487 -0.703381
304 1 0.257003 6.91734 1.50738 4 0.00356318 2 0 0.0994487 -0.772633
305 1 0.969942 6.9454 0.573423 4 0.00416356 2 0 0.0994487 -0.473533
306 1 1.7053 7.02884 1.23811 4 0.00495132 2 0 0.0994487 0.0665169
307 1 1.89588 6.19966 0.519025 4 0.00457669 2 0 0.0994487 -0.156401
308 1 3.10475 5.61709 1.30057 4 0.00607798 2 0 0.0994487 0.0402509
309 1 2.26359 6.15348 1.40977 4 0.00496457 2 0 0.0994487 0.040855
310 1 3.25442 6.96226 1.12748 4 0.00868252 2 0 0.0994487 -0.0541258
311 1 2.68177 5.61289 0.273587 4 0.00529828 2 0 0.0994487 -0.0596867
312 1 3.39503 6.28191 0.500536 4 0.00809193 2 0 0.0994487 -0.121447
313 1 4.18979 5.46246 0.325783 4 0.00914148 2 0 0.0994487 0.0310157
314 1 4.93434 5.42873 1.31778 4 0.0125583 2 0 0.0994487 -0.235103
315 1 4.13622 6.09659 1.22779 4 0.010446 2 0 0.0994487 -0.0893915
316 1 4.82567 6.23357 0.333842 4 0.0138576 2 0 0.0994487 -0.0345784
317 1 4.77312 6.79931 1.15967 4 0.0155318 2 0 0.0994487 -0.305934
318 1 4.00267 7.02511 0.221759 4 0.0117051 2 0 0.0994487 -0.0853458
319 1 5.78575 5.42185 0.301847 4 0.016461 2 0 0.0994487 0.0125001
320 1 5.6935 6.24342 0.9632 4 0.0192833 2 0 0.0994487 -0.967783
321 1 6.4578 5.98425 1.59671 4 0.0234901 2 0 0.0994487 0.140911
322 1 6.43234 6.86927 1.00965 4 0.0283223 2 0 0.0994487 0.851656
323 1 6.37773 6.04115 0.154639 4 0.0221699 2 0 0.0994487 0.111111
324 1 5.54993 7.05206 0.147147 4 0.020588 2 0 0.0994487 0.0363842
325 1 8.21355 5.31419 0.694273 4 0.0374646 2 0 0.0994487 -0.0895982
326 1 7.32761 6.15925 0.754293 4 0.0331082 2 0 0.0994487 0.225725
327 1 7.39163 5.41839 1.49138 4 0.0286027 2 0 0.0994487 0.136751
328 1 8.23884 6.11028 1.49159 4 0.0456495 2 0 0.0994487 0.0187344
329 1 8.01352 6.85364 0.728993 4 0.0506203 2 0 0.0994487 0.0691778
330 1 7.28191 6.86379 1.59601 4 0.0395921 2 1 0.0994487 0.126024
331 1 7.33029 5.3575 0.0461812 4 0.0268235 2 0 0.0994487 0.0813554
332 1 9.76796 5.3194 0.792562 4 0.0587538 2 0 0.0994487 0.328441
333 1 8.88016 6.18865 0.736908 4 0.0569608 2 0 0.0994487 -0.23555
334 1 9.05434 5.3271 1.5973 4 0.0488401 2 0 0.0994487 -0.0628329
335 1 9.73844 6.19052 1.46731 4 0.0740844 2 0 0.0994487 -0.106546
336 1 9.09351 6.95013 1.463 4 0.0750788 2 2 0.0994487 -0.076168
337 1 9.76329 6.23201 0.0941385 4 0.0729647 2 0 0.0994487 -0.0359541
338 1 8.99733 5.46479 0.012702 4 0.048863 2 0 0.0994487 -0.134755
339 1 10.5831 6.02196 0.964384 4 0.0880137 2 0 0.0994487 -0.356241
340 1 11.3128 6.37134 0.0776634 4 0.107552 2 0 0.0994487 0.10034
341 1 10.5187 6.94145 0.15452 4 0.103731 2 0 0.0994487 -0.0735295
342 1 10.4686 6.92564 1.49614 4 0.108496 2 1 0.0994487 -0.0634957
343 1 11.9994 5.6274 0.183157 4 0.10894 2 0 0.0994487 -0.010533
344 1 12.6757 5.81849 0.861776 4 0.135044 2 0 0.0994487 0.0817098
345 1 11.7774 6.20735 1.05291 4 0.119274 2 0 0.0994487 0.292262
346 1 13.3219 5.86668 1.55471 4 0.156847 2 0 0.0994487 0.20828
347 1 13.3506 6.58297 0.813679 4 0.191728 2 0 0.0994487 -0.291338
348 1 13.3212 5.53867 0.0424813 4 0.148379 2 0 0.0994487 -0.142915
349 1 14.0617 5.71565 0.77266 4 0.18283 2 0 0.0994487 -0.372763
350 1 14.3278 6.65176 1.40646 4 0.247946 2 0 0.0994487 -0.101147
351 1 14.1303 6.38483 0.0380077 4 0.207313 2 0 0.0994487 -0.0826143
352 1 15.0282 5.64393 0.034369 4 0.213741 2 0 0.0994487 0.0573583
353 1 15.8305 5.73813 0.95832 3 0.260698 2 0 0.0993868 0.625716
354 1 15.0472 6.45091 0.806774 3 0.266501 2 0 0.0993503 -0.174577
355 1 16.491 6.45257 1.1401 3 0.356298 2 0 0.0984142 0.204158
356 1 15.1058 5.87594 1.69804 4 0.24249 2 0 0.0994487 -0.0978806
357 1 16.62 5.41933 0.276819 3 0.268671 2 0 0.0993361 0.0799158
358 1 15.6753 6.3382 0.0390223 3 0.280638 2 0 0.0992521 0.0397957
359 1 17.8271 5.30128 0.541411 3 0.303683 2 0 0.0990593 0.15032
360 1 17.113 5.42499 1.24767 3 0.294089 2 0 0.0991449 -0.288756
361 1 17.0619 6.27419 0.411469 3 0.356961 2 0 0.0984038 0.13898
362 1 17.6649 6.24649 1.38542 3 0.396823 2 0 0.0976332 -0.276651
363 1 18.2745 7.0517 1.13153 3 0.514093 2 0 0.0925915 0.715475
364 1 18.3714 6.23173 0.609762 3 0.420173 2 0 0.0970219 0.156181
365 1 19.429 5.75829 0.62055 3 0.414705 2 0 0.0971776 0.0571775
366 1 19.3279 6.55755 1.35081 3 0.517454 2 0 0.0923502 0.300726
367 1 19.9942 6.75229 0.610261 3 0.603554 2 0 0.0830082 -0.0111436
368 1 20.7494 5.77593 0.653722 3 0.494262 2 0 0.0938741 -0.104083
369 1 20.1931 5.61076 1.39557 3 0.437526 2 0 0.0964696 0.313273
370 1 20.7787 6.6124 1.30355 3 0.662937 2 0 0.0717323 -0.348167
371 1 21.6592 6.66248 0.666524 3 0.674597 2 0 0.0689499 -0.0437629
372 1 21.6631 5.87866 1.38528 3 0.563588 2 0 0.0881925 0.0426266
373 1 21.6904 5.73259 0.0517844 3 0.513045 2 0 0.0926652 -0.001503
374 1 22.6732 5.8279 0.674154 3 0.541256 2 0 0.0904154 0.00266249
375 1 22.6319 6.69333 1.20734 3 0.709615 2 0 0.0594768 -0.20981
376 1 23.3484 6.78052 0.267835 3 0.666198 2 0 0.0709732 -0.125311
377 1 23.4822 5.88496 1.30013 3 0.545962 2 0 0.0899822 -0.176382
378 1 24.3197 6.56281 1.15825 3 0.594908 2 0 0.0842763 0.179907
379 1 24.1457 6.00685 0.427617 3 0.520894 2 0 0.0920953 0.00244537
380 1 25.6831 5.86213 0.700952 3 0.415582 2 0 0.0971531 0.163906
381 1 25.1124 6.04132 1.67733 3 0.470287 2 0 0.0951414 0.00372225
382 1 25.1593 6.74159 0.495153 3 0.544343 2 0 0.0901333 0.090402
383 1 25.8251 6.59457 1.40775 3 0.480396 2 0 0.0946414 0.0881152
384 1 26.6903 5.84511 1.4763 3 0.354737 2 0 0.0984385 0.0917682
385 1 27.4966 5.54334 0.722172 3 0.281023 2 0 0.0992492 -0.251564
386 1 26.7485 6.36567 0.651888 3 0.392425 2 0 0.0977336 0.0387594
387 1 27.7011 6.47315 1.36539 3 0.335941 2 0 0.098704 0.1315
388 1 28.3648 5.52203 1.4872 4 0.241298 2 0 0.0994487 0.0456359
389 1 27.7097 7.0074 0.530173 3 0.369279 2 0 0.0981968 0.0321309
390 1 29.3889 5.30889 0.818726 4 0.198929 2 0 0.0994487 0.316732
391 1 29.4379 6.18214 1.32212 4 0.230366 2 0 0.0994487 -0.0033786
392 1 29.5784 6.89773 0.506505 3 0.255943 2 0 0.0994151 0.09259
393 1 28.4685 6.20589 0.638647 3 0.269133 2 0 0.099333 -0.270073
394 1 29.3762 6.15398 0.0801838 4 0.230832 2 0 0.0994487 0.0969275
395 1 28.4822 5.38976 0.0592959 4 0.22759 2 0 0.0994487 -0.105002
396 1 30.9636 5.36838 0.595026 4 0.170961 2 0 0.0994487 0.667849
397 1 30.2159 5.45949 1.46813 4 0.18182 2 0 0.0994487 0.0540225
398 1 30.3958 6.18258 0.649752 4 0.206465 2 0 0.0994487 0.329004
399 1 31.2189 6.15516 1.38439 4 0.190987 2 0 0.0994487 0.587258
400 1 31.1994 6.95407 0.60342 4 0.218975 2 0 0.0994487 0.812253
401 1 31.7235 5.99622 0.446564 4 0.182167 2 0 0.0994487 0.879729
402 1 0.261851 7.63199 0.661866 4 0.00407183 2 0 0.0994487 -0.876374
403 1 0.831025 8.46344 0.61936 4 0.0049632 2 0 0.0994487 -0.577626
404 1 1.11211 7.86396 1.49711 4 0.0047979 2 0 0.0994487 -0.154429
405 1 0.356955 8.5626 1.47035 4 0.00458079 2 0 0.0994487 -0.764984
406 1 1.59266 7.76478 0.37187 4 0.00545024 2 0 0.0994487 -0.0897885
407 1 1.72382 8.61735 1.46471 4 0.00623601 2 0 0.0994487 0.0395962
408 1 2.48799 7.14986 0.476331 4 0.00674877 2 0 0.0994487 -0.0836978
409 1 2.19177 8.6335 0.399707 4 0.00746503 2 0 0.0994487 -0.137269
410 1 2.39416 7.81099 1.27726 4 0.00709974 2 0 0.0994487 0.0869907
411 1 3.01349 8.51445 0.935533 4 0.00994584 2 0 0.0994487 -0.539319
412 1 3.24418 7.77117 0.327041 4 0.00990246 2 0 0.0994487 -0.196207
413 1 3.81243 8.45898 0.0822892 4 0.0129107 2 0 0.0994487 -0.0457799
414 1 3.97971 7.67009 1.24863 4 0.0128547 2 0 0.0994487 -0.0554915
415 1 4.70459 8.25653 0.921772 4 0.0180707 2 0 0.0994487 0.295315
416 1 4.67023 7.63706 0.247803 4 0.0162187 2 0 0.0994487 0.0376891
417 1 3.81127 8.34851 1.76162 4 0.0129735 2 0 0.0994487 -0.0574371
418 1 5.86955 8.34822 0.169905 4 0.0277721 2 0 0.0994487 0.113102
419 1 5.48363 7.59071 1.03232 4 0.0228737 2 0 0.0994487 -0.467676
420 1 6.49365 7.53799 0.169175 4 0.0316229 2 0 0.0994487 0.18762
421 1 6.39674 8.23976 1.04384 4 0.03599 2 0 0.0994487 0.33804
422 1 7.28583 7.76918 0.746313 4 0.0477892 2 1 0.0994487 0.00984901
423 1 8.2859 8.31376 0.868772 4 0.0764248 2 2 0.0994487 0.278003
424 1 7.27857 8.18368 1.7015 4 0.0553274 2 2 0.0994487 -0.175057
425 1 8.05208 7.48784 1.5604 4 0.0613083 2 1 0.0994487 0.184947
426 1 7.99895 7.60312 0.0282118 4 0.0569225 2 0 0.0994487 0.0674098
427 1 9.84313 7.22199 0.72344 4 0.0971108 2 1 0.0994487 -0.346975
428 1 8.91207 7.61626 0.661731 4 0.0796665 2 1 0.0994487 0.158494
429 1 9.73234 8.61964 0.693151 4 0.125039 2 3 0.0994487 -0.25688
430 1 9.09265 8.69904 1.44495 4 0.113933 2 9 0.0994487 -0.393311
431 1 9.64026 7.88932 1.60055 4 0.116649 2 8 0.0994487 -0.340391
432 1 11.3161 7.14287 0.810636 4 0.132593 2 1 0.0994487 0.447938
433 1 10.5731 7.9454 0.844311 4 0.135637 2 3 0.0994487 -0.197751
434 1 10.5877 8.70196 1.4255 4 0.160304 1 8 0.0994487 -0.141226
435 1 11.4057 7.80503 1.60301 4 0.168508 2 4 0.0994487 0.211381
436 1 11.227 8.11851 0.0422735 4 0.150377 2 0 0.0994487 0.174334
437 1 12.7061 7.28322 0.565784 4 0.194865 2 0 0.0994487 -0.0537821
438 1 12.178 8.23518 0.590765 4 0.201477 2 1 0.0994487 0.163516
439 1 12.0637 7.15788 1.37768 4 0.164064 2 2 0.0994487 0.131217
440 1 12.0887 8.68064 1.49044 4 0.226763 1 3 0.0994487 0.104933
441 1 12.8601 7.99585 1.47598 3 0.250312 2 0 0.0994471 -0.256509
442 1 14.3373 7.3542 0.580954 3 0.27864 2 0 0.0992668 0.0676289
443 1 13.6169 8.09282 0.464536 3 0.274553 2 0 0.099296 0.0263627
444 1 13.458 7.34024 1.34133 4 0.244809 2 0 0.0994487 0.0699219
445 1 14.2471 8.18371 1.35246 3 0.340249 2 0 0.0986474 0.176917
446 1 16.4328 7.18497 0.276798 3 0.403503 2 0 0.0974721 -0.065547
447 1 15.6276 7.3114 0.923132 3 0.374009 2 0 0.0981105 -0.448029
448 1 15.0689 8.29247 0.865596 3 0.399327 2 0 0.097574 -0.337727
449 1 16.2796 8.1617 1.1043 0 0.484954 1 0 0.0944 -0.339543
450 1 15.1452 7.52269 1.62484 3 0.379107 2 0 0.0980128 -0.40891
451 1 15.8668 8.31534 0.152632 3 0.451301 2 0 0.095961 -0.193975
452 1 16.977 7.36262 1.11681 3 0.470922 2 0 0.0951114 0.310859
453 1 17.0683 8.10487 0.342208 3 0.519927 2 0 0.0921678 0.0316071