ITEM: TIMESTEP
49000
ITEM: NUMBER OF ATOMS
9495
ITEM: BOX BOUNDS mm mm mm
0.0000000000000000e+00 3.1748021039364001e+01
0.0000000000000000e+00 3.1748021039364001e+01
-7.4072398406925706e-04 3.1748021039364001e+01
ITEM: ATOMS id type x y z c_phase c_temp c_surf c_nbond c_visc f_3[1]
1 1 0.116341 1.10259 0.464337 4 0.00113461 2 0 0.0994487 -0.681941
2 1 0.974108 1.6685 0.77798 4 0.00146112 2 0 0.0994487 -0.517033
3 1 0.714648 0.793562 1.41295 4 0.00122618 2 0 0.0994487 -0.281794
4 1 0.00336375 1.60273 1.37437 4 0.00120563 2 0 0.0994487 -0.804051
5 1 0.729896 0.0633724 0.61602 4 0.00106981 3 0 0.0994487 -0.190374
6 1 1.71015 0.808983 1.0155 4 0.00162884 2 0 0.0994487 -0.33207
7 1 1.80059 1.47468 0.221075 4 0.00172382 2 0 0.0994487 -0.12583
8 1 1.82015 1.66049 1.76126 4 0.00180888 2 0 0.0994487 -0.139534
9 1 2.52093 0.749102 0.203812 4 0.0019744 2 0 0.0994487 -0.14294
10 1 2.59149 0.0538711 1.03726 4 0.00197112 2 0 0.0994487 -0.295005
11 1 2.64922 1.541 0.882848 4 0.00227185 2 0 0.0994487 0.235749
12 1 2.66829 0.815502 1.7457 4 0.00212942 2 0 0.0994487 -0.187041
13 1 3.43386 0.933692 0.956349 4 0.00276945 2 0 0.0994487 0.320236
14 1 3.49924 0.0925696 1.70571 4 0.00244899 2 0 0.0994487 0.178053
15 1 3.60652 1.70798 1.71994 4 0.00325333 2 0 0.0994487 0.0487935
16 1 4.10576 0.858321 0.325305 4 0.00349454 2 0 0.0994487 0.153144
17 1 4.96159 0.56786 1.17466 4 0.00502833 2 0 0.0994487 -0.0370696
18 1 4.91949 1.59987 0.383508 4 0.00551601 2 0 0.0994487 -0.10025
19 1 4.3472 0.941527 1.62884 4 0.003941 2 0 0.0994487 0.110736
20 1 3.47612 0.111428 0.171027 4 0.00238054 2 0 0.0994487 0.166215
21 1 5.64741 0.645627 0.325839 4 0.00654882 2 0 0.0994487 -0.0806064
22 1 5.88414 1.31048 0.938036 4 0.0075489 2 0 0.0994487 -0.199598
23 1 6.57478 1.39104 0.218369 4 0.00961829 2 0 0.0994487 -0.0861355
24 1 5.78374 0.460658 1.69897 4 0.00666007 2 0 0.0994487 -0.0846541
25 1 5.03122 1.72414 1.43602 4 0.00573615 2 0 0.0994487 0.0453691
26 1 6.7138 0.39031 0.865278 4 0.00922257 2 0 0.0994487 -0.0793837
27 1 6.69104 1.00962 1.69374 4 0.00942984 2 0 0.0994487 -0.107925
28 1 8.2679 0.408875 1.07337 4 0.0144353 2 0 0.0994487 -0.100168
29 1 7.36782 1.22285 0.954198 4 0.0120715 2 0 0.0994487 -0.302562
30 1 8.24709 1.39092 0.236779 4 0.015839 2 0 0.0994487 -0.0460663
31 1 8.12868 1.27217 1.60653 4 0.0148518 2 0 0.0994487 -0.00811901
32 1 7.58247 0.647807 0.140287 4 0.0122264 2 0 0.0994487 -0.110937
33 1 8.85849 0.508506 0.273966 4 0.0170468 2 0 0.0994487 -0.0616477
34 1 9.55301 0.3386 0.888639 4 0.0201242 2 0 0.0994487 0.00506209
35 1 9.02586 1.30716 1.1133 4 0.0194156 2 0 0.0994487 -0.0606518
37 1 9.63995 1.37474 0.0900752 4 0.0222785 2 0 0.0994487 0.09929
38 1 11.2128 0.215893 0.632658 4 0.0306603 2 0 0.0994487 0.203502
39 1 10.3637 1.04743 0.823114 4 0.0263864 2 0 0.0994487 0.539881
40 1 10.523 0.196295 1.44539 4 0.0255479 2 0 0.0994487 0.0644274
41 1 11.2856 1.01846 1.41785 4 0.0347144 2 0 0.0994487 0.164705
42 1 10.5797 1.67706 1.72992 4 0.0309699 2 0 0.0994487 0.118163
43 1 10.2431 0.367861 0.0780499 4 0.0229096 2 0 0.0994487 0.1498
44 1 12.8757 0.211714 0.636805 4 0.0495486 2 0 0.0994487 0.0587865
45 1 12.0457 1.07408 0.506655 4 0.0439717 2 0 0.0994487 -0.0235529
46 1 12.1319 0.316439 1.29957 4 0.0415378 2 0 0.0994487 0.0188349
47 1 12.7194 1.19864 1.3723 4 0.0534494 2 0 0.0994487 -0.0305297
48 1 14.3729 0.318493 0.764646 4 0.0700548 2 0 0.0994487 -0.0460391
49 1 13.5924 1.113 0.843618 4 0.065583 2 0 0.0994487 -0.263055
50 1 14.0399 1.55958 0.167469 4 0.0761299 2 0 0.0994487 -0.0898257
51 1 13.6075 0.359834 1.6352 4 0.0597408 2 0 0.0994487 -0.0562643
52 1 14.3777 1.14948 1.47647 4 0.0748427 2 0 0.0994487 -0.0178285
53 1 14.8761 1.55337 0.662943 4 0.086305 2 0 0.0994487 0.389946
54 1 15.7061 0.770636 0.788259 4 0.0902267 2 0 0.0994487 0.366482
55 1 16.5532 1.54451 0.681338 4 0.117369 2 0 0.0994487 0.000804116
56 1 15.1422 0.4642 1.64149 4 0.0788255 2 0 0.0994487 0.152077
57 1 16.547 0.712289 1.3421 4 0.106408 2 0 0.0994487 0.0956254
58 1 15.6341 1.48544 1.3916 4 0.0977511 2 0 0.0994487 0.15363
59 1 15.1049 0.711806 0.0677822 4 0.0789498 2 0 0.0994487 0.169202
60 1 17.2544 0.732268 0.547589 4 0.119274 2 0 0.0994487 0.0286292
61 1 17.9231 1.58109 0.757246 4 0.143011 2 0 0.0994487 0.0415623
62 1 17.916 0.742935 1.42801 4 0.131967 2 0 0.0994487 -0.224378
63 1 17.2202 1.74884 1.56274 4 0.135575 2 0 0.0994487 -0.0984843
64 1 19.5372 0.0167772 0.662766 4 0.139039 2 0 0.0994487 0.0436436
65 1 18.7918 0.725074 0.684829 4 0.141256 2 0 0.0994487 -0.269946
66 1 19.5395 1.55488 0.841653 4 0.162769 2 0 0.0994487 -0.341162
67 1 19.0276 0.158607 1.54508 4 0.137728 2 0 0.0994487 -0.158664
68 1 19.5934 0.967491 1.68957 4 0.151274 2 0 0.0994487 0.0083505
69 1 18.6564 1.51302 1.50035 4 0.152947 2 0 0.0994487 -0.250308
70 1 21.0889 0.349843 1.06749 4 0.15156 2 0 0.0994487 -0.196127
71 1 20.2493 0.776373 0.980057 4 0.153379 2 0 0.0994487 -0.0497621
72 1 21.1062 1.65725 0.951506 4 0.171465 2 0 0.0994487 0.692913
73 1 21.1874 0.765598 0.218806 4 0.154972 2 0 0.0994487 -0.0445912
74 1 20.3457 1.51479 0.193617 4 0.166208 2 0 0.0994487 -0.0806027
75 1 22.0087 0.262534 0.539755 4 0.1507 2 0 0.0994487 0.0993588
76 1 22.7913 0.430275 1.40734 4 0.151689 2 0 0.0994487 0.206599
77 1 22.1105 1.14763 1.32981 4 0.161172 2 0 0.0994487 0.240022
78 1 21.9982 1.59955 0.538558 4 0.171139 2 0 0.0994487 0.185171
79 1 22.9157 1.07463 0.445168 4 0.158947 2 0 0.0994487 0.0520835
80 1 24.228 0.380179 1.45209 4 0.145903 2 0 0.0994487 0.0576159
81 1 23.5672 0.357563 0.57369 4 0.148807 2 0 0.0994487 0.0385701
82 1 24.4367 1.18687 0.754729 4 0.155517 2 0 0.0994487 -0.0192984
83 1 23.4757 1.2499 1.4028 4 0.162108 2 0 0.0994487 0.0298758
84 1 24.955 0.315686 0.551996 4 0.138484 2 0 0.0994487 -0.0171997
85 1 26.0085 0.383365 1.1715 4 0.12653 2 0 0.0994487 -0.185861
86 1 25.169 1.12579 1.48087 4 0.147861 2 0 0.0994487 0.0251038
87 1 25.9301 1.73476 1.35794 4 0.149647 2 0 0.0994487 0.0345341
88 1 25.8917 0.929212 0.432102 4 0.133865 2 0 0.0994487 -0.0954209
89 1 27.5736 1.28032 0.38906 4 0.116432 2 0 0.0994487 0.0454485
90 1 27.6142 0.50928 0.874321 4 0.109732 2 0 0.0994487 0.175387
91 1 26.7559 1.02809 1.26347 4 0.123298 2 0 0.0994487 -0.236888
92 1 28.3748 0.337482 1.39813 4 0.0993741 2 0 0.0994487 0.00984377
93 1 26.7925 0.240345 0.226621 4 0.115403 2 0 0.0994487 0.0380743
94 1 28.6489 1.24263 0.742341 4 0.104251 2 0 0.0994487 0.102405
95 1 29.3912 0.945639 1.56878 4 0.0933738 2 0 0.0994487 -0.0192011
96 1 28.5228 1.71921 1.49749 4 0.110104 2 0 0.0994487 -0.0429819
97 1 29.8133 0.173958 1.46124 4 0.0855086 2 0 0.0994487 0.133416
98 1 29.2734 0.3547 0.615275 4 0.090008 2 0 0.0994487 -0.0816815
99 1 31.5874 0.266128 1.25663 4 0.0722596 3 0 0.0994487 0.830096
100 1 30.7016 0.49015 0.470738 4 0.0809733 2 0 0.0994487 0.354852
101 1 30.1009 1.19877 0.774133 4 0.0905591 2 0 0.0994487 0.210919
102 1 30.8649 0.971942 1.39386 4 0.0835375 2 0 0.0994487 0.703281
103 1 1.11081 2.43607 0.129285 4 0.00160193 2 0 0.0994487 -0.0373227
104 1 0.133403 2.3821 0.812241 4 0.00139446 2 0 0.0994487 -0.984517
105 1 1.28845 3.23764 0.949187 4 0.00197963 2 0 0.0994487 0.222085
106 1 1.13977 2.36077 1.59162 4 0.00167567 2 0 0.0994487 -0.22219
107 1 0.386685 3.02999 1.54944 4 0.00160978 2 0 0.0994487 -0.671256
108 1 0.332248 3.09582 0.131296 4 0.00156123 2 0 0.0994487 -0.59134
109 1 1.90972 2.41867 0.78376 4 0.00203271 2 0 0.0994487 0.078206
110 1 2.65852 3.28029 0.860875 4 0.00311078 2 0 0.0994487 0.0668001
111 1 2.66931 2.22918 1.53373 4 0.00253173 2 0 0.0994487 0.0829534
112 1 3.2579 3.42668 1.64938 4 0.00398324 2 0 0.0994487 0.00397285
113 1 2.7261 2.38168 0.0557193 4 0.00244974 2 0 0.0994487 0.1466
114 1 3.38195 2.55413 0.779289 4 0.00346064 2 0 0.0994487 0.21158
115 1 4.00679 1.841 0.711184 4 0.00396265 2 0 0.0994487 -0.036127
116 1 4.91383 2.57277 0.815661 4 0.00642 2 0 0.0994487 -0.259356
117 1 4.20148 3.3175 0.749446 4 0.0056392 2 0 0.0994487 0.00621224
118 1 4.13245 2.64107 1.58328 4 0.00476112 2 0 0.0994487 0.0270752
119 1 5.65047 2.44269 0.132743 4 0.00818254 2 0 0.0994487 -0.189927
120 1 6.55776 2.18062 0.772597 4 0.010602 2 0 0.0994487 -0.289401
121 1 5.64874 3.19593 0.952489 4 0.00936171 2 0 0.0994487 -0.754642
122 1 5.861 2.19426 1.49672 4 0.00830722 2 0 0.0994487 0.0126333
123 1 6.52037 3.06691 1.5557 4 0.0121251 2 0 0.0994487 0.0443553
124 1 6.65033 2.92778 0.134227 4 0.0118924 2 0 0.0994487 0.0288851
125 1 7.45405 2.22586 0.139832 4 0.0140922 2 0 0.0994487 -0.0535045
126 1 8.08209 2.20208 0.930382 4 0.0172069 2 0 0.0994487 -0.302091
127 1 7.40132 3.06835 0.934051 4 0.0162982 2 0 0.0994487 -0.0455498
128 1 7.29928 2.06035 1.56856 4 0.013089 2 0 0.0994487 -0.0607348
129 1 8.18545 3.00183 1.65211 4 0.0205721 2 0 0.0994487 -0.0454177
130 1 8.26934 2.9712 0.0392146 4 0.021016 2 0 0.0994487 -0.150619
131 1 8.90393 2.08699 0.252387 4 0.0210443 2 0 0.0994487 0.00243106
132 1 9.77243 2.0246 1.10996 4 0.0265483 2 0 0.0994487 0.173457
133 1 8.92671 2.97262 0.928693 4 0.0257173 2 0 0.0994487 -0.156776
134 1 9.03062 2.22066 1.70398 4 0.0225639 2 0 0.0994487 -0.0819695
135 1 9.56096 2.90576 0.21312 4 0.0293455 2 0 0.0994487 0.173119
136 1 10.2834 2.1137 0.214297 4 0.0292376 2 0 0.0994487 0.337738
137 1 11.1583 1.82604 0.771092 4 0.0376017 2 0 0.0994487 0.260085
138 1 10.6214 2.80819 0.921535 4 0.039639 2 0 0.0994487 0.541912
139 1 11.4444 2.82964 1.57484 4 0.0508341 2 0 0.0994487 0.0951975
140 1 12.6737 1.94118 0.593851 4 0.0603503 2 0 0.0994487 -0.283936
141 1 11.928 2.64099 0.742299 4 0.0557988 2 0 0.0994487 -0.0386763
142 1 11.9239 1.9206 1.46509 4 0.0480252 2 0 0.0994487 0.0946513
143 1 12.8449 3.01766 1.68597 4 0.0753892 2 0 0.0994487 0.0363556
144 1 13.1791 3.03035 0.848852 4 0.0824317 2 0 0.0994487 -0.440859
145 1 13.3784 1.9912 1.48064 4 0.0700921 2 0 0.0994487 -0.0150716
146 1 14.0206 2.44438 0.927124 4 0.0873212 2 0 0.0994487 -0.133106
147 1 14.0279 3.38359 1.55716 4 0.105312 2 0 0.0994487 0.0255737
148 1 14.6961 3.43698 0.884932 4 0.121973 2 0 0.0994487 -0.332966
149 1 14.7823 2.29758 1.44821 4 0.0972274 2 0 0.0994487 0.0469263
150 1 14.8418 2.51505 0.136557 4 0.102152 2 0 0.0994487 0.173004
151 1 14.1591 3.2262 0.0325348 4 0.105284 2 0 0.0994487 -0.246106
152 1 13.4137 2.29398 0.0590902 4 0.0761161 2 0 0.0994487 -0.280962
153 1 15.6993 2.44373 0.692668 4 0.117942 2 0 0.0994487 0.364391
154 1 16.3029 3.20095 0.662084 4 0.150666 2 0 0.0994487 0.328587
155 1 16.308 2.47951 1.52575 4 0.1335 2 0 0.0994487 -0.100648
156 1 15.3694 3.25723 1.50191 4 0.132933 2 0 0.0994487 -0.00766986
157 1 15.5706 3.25854 0.0192499 4 0.131355 2 0 0.0994487 0.290237
158 1 17.0646 2.35032 0.682778 4 0.145009 2 0 0.0994487 0.0234802
159 1 17.944 2.92608 0.699539 4 0.184293 2 0 0.0994487 -0.231191
160 1 18.0193 2.43917 1.58112 4 0.167982 2 0 0.0994487 -0.149135
161 1 17.0918 3.1162 1.49491 4 0.170933 2 0 0.0994487 -0.143435
162 1 18.8908 2.35742 1.01358 4 0.178471 2 0 0.0994487 -0.516831
163 1 19.7027 3.2427 1.27782 4 0.218734 2 0 0.0994487 0.394881
164 1 18.884 2.99607 0.196019 4 0.201508 2 0 0.0994487 -0.171809
165 1 19.587 2.34239 0.101452 4 0.184872 2 0 0.0994487 -0.132371
166 1 20.3251 1.78863 1.72442 4 0.170164 2 0 0.0994487 0.0449527
167 1 21.1565 2.41663 0.458355 4 0.195147 2 0 0.0994487 0.196187
168 1 20.1948 2.46882 1.11433 4 0.190795 2 0 0.0994487 0.286741
169 1 21.31 3.29463 1.39314 4 0.238232 2 0 0.0994487 0.0777292
170 1 20.4222 2.99313 0.334941 4 0.212326 2 0 0.0994487 0.18629
171 1 22.8719 2.07007 1.50872 4 0.186862 2 0 0.0994487 -0.0221245
172 1 22.9717 2.60199 0.735523 4 0.211748 2 0 0.0994487 0.133324
173 1 22.0961 2.49917 1.23787 4 0.204512 2 0 0.0994487 0.186437
174 1 21.9898 3.20043 0.598797 4 0.240942 2 0 0.0994487 -0.0757504
175 1 22.6771 3.40124 0.07601 3 0.254636 2 0 0.0994227 0.0760732
176 1 23.7438 1.80844 0.624025 4 0.174001 2 0 0.0994487 -0.0873607
177 1 24.4289 1.98763 1.61102 4 0.175657 2 0 0.0994487 -0.0641767
178 1 24.342 2.68296 0.775192 4 0.201538 2 0 0.0994487 -0.341095
179 1 23.6887 2.90303 1.53628 4 0.218685 2 0 0.0994487 -0.110506
180 1 24.4728 3.51078 1.55704 4 0.243249 2 0 0.0994487 -0.118307
181 1 24.9562 2.84566 0.0146836 4 0.197085 2 0 0.0994487 -0.0864602
182 1 26.5483 1.79415 0.511367 4 0.139669 2 0 0.0994487 -0.00560162
183 1 25.1322 1.85613 0.509414 4 0.164286 2 0 0.0994487 -0.0215304
184 1 25.7918 2.61203 0.707489 4 0.178783 2 0 0.0994487 0.228199
185 1 25.1579 2.55548 1.52547 4 0.186955 2 0 0.0994487 0.0576653
186 1 25.7213 3.49812 1.51211 4 0.220207 2 0 0.0994487 0.123855
187 1 26.5364 2.56002 1.53049 4 0.161043 2 0 0.0994487 0.057946
188 1 26.1686 3.50068 0.599043 4 0.209128 2 0 0.0994487 0.168842
189 1 27.5039 1.98546 1.23792 4 0.127618 2 0 0.0994487 -0.186421
190 1 28.2489 2.09022 0.343734 4 0.119053 2 0 0.0994487 -0.0177256
191 1 27.0867 2.6924 0.645359 4 0.152686 2 0 0.0994487 -0.105603
192 1 27.1998 3.35397 1.41682 4 0.171712 2 0 0.0994487 -0.098331
193 1 28.2537 2.75799 1.20639 4 0.131463 2 0 0.0994487 -0.418309
194 1 27.982 3.21993 0.326384 4 0.146727 2 0 0.0994487 -0.125258
195 1 29.9568 1.80906 1.70764 4 0.0973611 2 0 0.0994487 0.183201
196 1 29.4477 2.04702 0.879698 4 0.105168 2 0 0.0994487 -0.00708555
197 1 29.1956 2.6589 0.290703 4 0.115861 2 0 0.0994487 -0.0578291
198 1 29.2495 3.2651 1.17365 4 0.126839 2 0 0.0994487 0.118631
199 1 30.9114 1.98502 0.924207 4 0.0951396 2 0 0.0994487 0.967251
200 1 30.1815 2.71094 1.00186 4 0.107748 2 0 0.0994487 0.675107
201 1 31.0247 3.35309 0.97101 4 0.112255 2 0 0.0994487 0.998409
202 1 30.9865 2.69483 1.72648 4 0.103295 2 0 0.0994487 0.578501
203 1 30.1092 3.25953 0.132205 4 0.114244 2 0 0.0994487 -0.0443663
204 1 30.4116 1.90909 0.0255368 4 0.0953384 2 0 0.0994487 0.106044
205 1 31.1434 2.66402 0.0761253 4 0.10038 2 0 0.0994487 0.70882
206 1 0.293831 3.78503 0.918557 4 0.00179911 2 0 0.0994487 -0.999347
207 1 0.143046 4.59443 0.482118 4 0.00198648 2 0 0.0994487 -0.784494
208 1 1.14036 4.67093 0.986638 4 0.00251483 2 0 0.0994487 -0.516757
209 1 0.0884667 5.26681 1.27761 4 0.00223416 2 0 0.0994487 -0.887458
210 1 1.04069 3.86421 0.0595682 4 0.00200904 2 0 0.0994487 0.0148874
211 1 1.84117 4.04604 0.847105 4 0.00276483 2 0 0.0994487 0.00826271
212 1 2.54049 4.85585 1.13748 4 0.00411266 2 0 0.0994487 -0.333851
213 1 2.64953 4.14475 0.20674 4 0.00376811 2 0 0.0994487 -0.0285735
214 1 1.89758 4.96895 0.278386 4 0.00339506 2 0 0.0994487 -0.153435
215 1 3.40771 4.86189 0.161635 4 0.00565074 2 0 0.0994487 -0.0163901
216 1 3.494 4.07675 0.885909 4 0.00501878 2 0 0.0994487 0.0268856
217 1 4.91235 4.00001 1.18344 4 0.00838976 2 0 0.0994487 0.0114976
218 1 4.04658 4.88002 1.14639 4 0.0071301 2 0 0.0994487 0.264484
219 1 4.26027 4.18509 0.149001 4 0.0068569 2 0 0.0994487 0.0377364
220 1 5.00947 4.74001 0.341082 4 0.0101159 2 0 0.0994487 0.0765365
221 1 5.77735 3.9378 0.198707 4 0.0109649 2 0 0.0994487 0.026014
222 1 6.48883 3.76611 0.772067 4 0.0136906 2 0 0.0994487 0.204547
223 1 5.68025 4.73638 1.02487 4 0.0131436 2 0 0.0994487 -0.621712
224 1 6.66321 4.5115 1.6428 4 0.017079 2 0 0.0994487 0.15893
225 1 6.68072 5.1315 0.885352 4 0.0202424 2 0 0.0994487 0.20684
226 1 8.1982 3.892 0.700757 4 0.0257652 2 0 0.0994487 -0.369907
227 1 7.40842 4.46072 0.5468 4 0.0225236 2 0 0.0994487 -0.0252162
228 1 7.39886 3.87029 1.49684 4 0.0192213 2 0 0.0994487 0.102574
229 1 8.20004 4.61106 1.48677 4 0.0301802 2 0 0.0994487 -0.0118407
230 1 9.8976 3.57792 0.885667 4 0.0390621 2 0 0.0994487 0.592752
231 1 9.07913 4.56551 0.821335 4 0.03936 2 0 0.0994487 -0.658553
232 1 9.86266 4.50302 0.126324 4 0.0461159 2 0 0.0994487 0.0958641
233 1 9.07829 3.76256 1.49819 4 0.0325245 2 0 0.0994487 -0.0708881
234 1 9.86881 4.3462 1.65532 4 0.0470747 2 0 0.0994487 -0.0856643
235 1 8.98541 3.86821 0.0631775 4 0.0319334 2 0 0.0994487 -0.138755
236 1 11.408 3.64493 0.778297 4 0.060568 2 0 0.0994487 0.202063
237 1 10.5891 4.66652 0.906264 4 0.0610577 2 0 0.0994487 0.0450664
238 1 11.3867 4.69403 0.230734 4 0.0764464 2 0 0.0994487 -0.0498915
239 1 10.7059 3.56689 1.58785 4 0.0493109 2 0 0.0994487 -0.0448516
240 1 11.3652 4.3716 1.70545 4 0.0710069 2 0 0.0994487 -0.0798294
241 1 11.3894 5.27213 0.983682 4 0.0872522 2 0 0.0994487 -0.674481
242 1 10.5826 3.84888 0.176129 4 0.049139 2 0 0.0994487 0.210465
243 1 12.5168 3.57716 0.814749 4 0.0796872 2 0 0.0994487 -0.0105793
244 1 12.1916 4.55033 1.00021 4 0.0909381 2 0 0.0994487 0.10504
245 1 12.7362 4.99738 1.68903 4 0.110594 2 0 0.0994487 0.191329
246 1 13.2258 4.67863 0.80017 4 0.119474 2 0 0.0994487 -0.0047025
247 1 12.6435 4.61885 0.0632315 4 0.10468 2 0 0.0994487 -0.033581
248 1 13.9891 4.12825 0.69648 4 0.125682 2 0 0.0994487 -0.43018
249 1 13.4832 4.21781 1.59317 4 0.112127 2 0 0.0994487 0.0820165
250 1 14.2046 5.11838 1.52001 4 0.160932 2 0 0.0994487 -0.0289923
251 1 14.9402 5.01141 0.811699 4 0.181919 2 0 0.0994487 -0.0527454
252 1 14.9642 4.4167 1.59432 4 0.160488 2 0 0.0994487 -0.0635631
253 1 14.1405 4.90647 0.0597868 4 0.152663 2 0 0.0994487 -0.0856952
254 1 14.961 4.19423 0.096508 4 0.149657 2 0 0.0994487 0.032272
255 1 15.6685 4.06642 0.926277 4 0.166035 2 0 0.0994487 0.872583
256 1 15.8798 4.77595 0.186426 4 0.201069 2 0 0.0994487 0.165389
257 1 16.5936 4.58036 0.900182 4 0.218451 2 0 0.0994487 -0.0789837
258 1 16.3184 3.95875 1.6903 4 0.181923 2 0 0.0994487 -0.0433979
259 1 15.8111 5.05317 1.64084 4 0.21262 2 0 0.0994487 0.099499
260 1 17.2689 3.83372 0.811237 4 0.20547 2 0 0.0994487 -0.345385
261 1 18.0864 4.48855 1.09806 3 0.257037 2 0 0.0994087 -0.612157
262 1 17.9525 3.63794 1.65602 4 0.212242 2 0 0.0994487 -0.192806
263 1 17.4569 4.57727 0.0147963 4 0.241691 2 0 0.0994487 -0.0974099
264 1 18.1348 3.8547 0.0583493 4 0.224577 2 0 0.0994487 -0.120517
265 1 18.8779 3.70667 0.95022 4 0.230579 2 0 0.0994487 0.0692327
266 1 18.8235 4.60949 0.361826 3 0.274963 2 0 0.0992931 0.11561
267 1 19.6906 4.67872 1.0803 3 0.310595 2 0 0.0989924 0.931525
268 1 18.7859 5.27693 1.20102 3 0.333516 2 0 0.0987348 0.599374
269 1 19.5987 3.76722 0.227421 4 0.240847 2 0 0.0994487 0.16427
270 1 20.4384 3.82188 1.23329 3 0.261962 2 0 0.099379 0.325955
271 1 20.8846 4.71868 1.39403 3 0.351824 2 0 0.0984829 0.149061
272 1 21.5775 4.95128 0.810455 3 0.40282 2 0 0.0974891 -0.00374696
273 1 21.0824 3.93136 0.512408 3 0.27945 2 0 0.0992608 0.0883039
274 1 20.1339 4.78559 0.352846 3 0.330016 2 0 0.098778 0.145589
275 1 22.8205 3.63186 1.42135 3 0.269972 2 0 0.0993274 -0.018401
276 1 21.9406 4.13318 1.31068 3 0.310223 2 0 0.0989961 0.027204
277 1 22.4705 5.17735 1.27286 3 0.441432 2 0 0.096332 0.0207044
278 1 22.6119 4.34705 0.510028 3 0.331826 2 0 0.0987558 -0.0221075
279 1 23.5735 3.63903 0.782677 3 0.2684 2 0 0.0993379 0.185554
280 1 24.336 4.32055 0.625018 3 0.31333 2 0 0.0989646 -0.150098
281 1 23.4679 4.54946 1.33355 3 0.351459 2 0 0.0984884 -0.0790593
282 1 24.8518 5.25716 0.566763 3 0.387779 2 0 0.0978351 0.0409
283 1 23.5518 5.06386 0.533607 3 0.410654 2 0 0.0972878 -0.0968933
284 1 25.0086 4.50055 1.62342 3 0.308577 2 0 0.0990124 -0.0421981
285 1 25.0629 3.68037 0.802132 4 0.24504 2 0 0.0994487 -0.187924
286 1 24.363 5.28843 1.43377 3 0.413818 2 0 0.0972021 -0.154717
287 1 25.6904 5.1389 1.34266 3 0.340847 2 0 0.0986394 0.210092
288 1 26.3575 4.29031 1.37159 4 0.247505 2 0 0.0994487 0.149478
289 1 26.5026 4.97257 0.640732 3 0.285908 2 0 0.0992118 0.0989612
290 1 25.5284 4.40089 0.388179 3 0.281712 2 0 0.099244 0.0559446
291 1 27.3302 4.86961 1.40568 4 0.244081 2 0 0.0994487 0.00660576
292 1 27.9624 3.97641 1.10408 4 0.174551 2 0 0.0994487 -0.309512
293 1 28.2771 4.73475 0.706344 4 0.201524 2 0 0.0994487 -0.0812518
294 1 27.0674 4.04323 0.570038 4 0.206799 2 0 0.0994487 0.012019
295 1 28.9321 3.77016 0.487204 4 0.144102 2 0 0.0994487 -0.00703398
296 1 29.0873 4.52317 1.33085 4 0.167439 2 0 0.0994487 0.0574837
297 1 29.9979 4.07209 1.02303 4 0.13493 2 0 0.0994487 -0.275237
298 1 31.0296 3.97382 0.373364 4 0.122251 2 0 0.0994487 0.657583
299 1 30.2046 4.67765 0.491317 4 0.150622 2 0 0.0994487 0.00995758
300 1 30.9783 4.59929 1.41131 4 0.137523 2 0 0.0994487 0.679914
301 1 0.908283 5.53205 0.461647 4 0.00285108 2 0 0.0994487 -0.463785
302 1 1.53161 5.51184 1.37971 4 0.00333307 2 0 0.0994487 -0.117388
303 1 0.793684 6.22023 1.2768 4 0.00323684 2 0 0.0994487 -0.703381
304 1 0.257003 6.91734 1.50738 4 0.00332426 2 0 0.0994487 -0.772633
305 1 0.969942 6.9454 0.573423 4 0.00389413 2 0 0.0994487 -0.473533
306 1 1.7053 7.02884 1.23811 4 0.00464303 2 0 0.0994487 0.066516
307 1 1.89588 6.19966 0.519025 4 0.00429157 2 0 0.0994487 -0.156402
308 1 3.10475 5.61709 1.30057 4 0.0057231 2 0 0.0994487 0.0402498
309 1 2.26359 6.15348 1.40977 4 0.00466066 2 0 0.0994487 0.0408544
310 1 3.25442 6.96226 1.12748 4 0.00820005 2 0 0.0994487 -0.0541274
311 1 2.68177 5.61289 0.273587 4 0.00498049 2 0 0.0994487 -0.0596875
312 1 3.39503 6.28191 0.500536 4 0.00764008 2 0 0.0994487 -0.121449
313 1 4.18979 5.46246 0.325783 4 0.00864539 2 0 0.0994487 0.0310143
314 1 4.93434 5.42873 1.31778 4 0.0119142 2 0 0.0994487 -0.235105
315 1 4.13622 6.09659 1.22779 4 0.00989053 2 0 0.0994487 -0.0893932
316 1 4.82567 6.23357 0.333842 4 0.0131552 2 0 0.0994487 -0.0345799
317 1 4.77312 6.79931 1.15967 4 0.0147589 2 0 0.0994487 -0.305937
318 1 4.00267 7.02511 0.221759 4 0.0110886 2 0 0.0994487 -0.0853469
319 1 5.78575 5.42185 0.301847 4 0.0156559 2 0 0.0994487 0.0124988
320 1 5.6935 6.24342 0.9632 4 0.0183655 2 0 0.0994487 -0.96778
321 1 6.4578 5.98425 1.59671 4 0.0224163 2 0 0.0994487 0.14091
322 1 6.43234 6.86927 1.00965 4 0.0270721 2 0 0.0994487 0.85165
323 1 6.37773 6.04115 0.154639 4 0.0211414 2 0 0.0994487 0.11111
324 1 5.54993 7.05206 0.147147 4 0.0196137 2 0 0.0994487 0.036383
325 1 8.21355 5.31419 0.694273 4 0.0359217 2 0 0.0994487 -0.0896016
326 1 7.32761 6.15925 0.754293 4 0.0317001 2 0 0.0994487 0.225722
327 1 7.39163 5.41839 1.49138 4 0.027353 2 0 0.0994487 0.136749
328 1 8.23884 6.11028 1.49159 4 0.0438388 2 0 0.0994487 0.018733
329 1 8.01352 6.85364 0.728993 4 0.0486441 2 0 0.0994487 0.0691753
330 1 7.28191 6.86379 1.59601 4 0.0379625 2 1 0.0994487 0.126021
331 1 7.33029 5.3575 0.0461812 4 0.0256297 2 0 0.0994487 0.0813546
332 1 9.76796 5.3194 0.792562 4 0.0565822 2 0 0.0994487 0.328439
333 1 8.88016 6.18865 0.736908 4 0.0548165 2 0 0.0994487 -0.235552
334 1 9.05434 5.3271 1.5973 4 0.0469462 2 0 0.0994487 -0.0628337
335 1 9.73844 6.19052 1.46731 4 0.0714779 2 0 0.0994487 -0.106548
336 1 9.09351 6.95013 1.463 4 0.0724224 2 2 0.0994487 -0.076173
337 1 9.76329 6.23201 0.0941385 4 0.070376 2 0 0.0994487 -0.0359545
338 1 8.99733 5.46479 0.012702 4 0.0469572 2 0 0.0994487 -0.134756
339 1 10.5831 6.02196 0.964384 4 0.0850724 2 0 0.0994487 -0.356235
340 1 11.3128 6.37134 0.0776634 4 0.104138 2 0 0.0994487 0.100342
341 1 10.5187 6.94145 0.15452 4 0.100369 2 0 0.0994487 -0.0735288
342 1 10.4686 6.92564 1.49614 4 0.105041 2 1 0.0994487 -0.0634937
343 1 11.9994 5.6274 0.183157 4 0.105568 2 0 0.0994487 -0.0105315
344 1 12.6757 5.81849 0.861776 4 0.131173 2 0 0.0994487 0.0817214
345 1 11.7774 6.20735 1.05291 4 0.115652 2 0 0.0994487 0.292292
346 1 13.3219 5.86668 1.55471 4 0.152588 2 0 0.0994487 0.208249
347 1 13.3506 6.58297 0.813679 4 0.186865 2 0 0.0994487 -0.291484
348 1 13.3212 5.53867 0.0424813 4 0.144297 2 0 0.0994487 -0.142912
349 1 14.0617 5.71565 0.77266 4 0.178182 2 0 0.0994487 -0.3727
350 1 14.3278 6.65176 1.40646 4 0.242208 2 0 0.0994487 -0.100793
351 1 14.1303 6.38483 0.0380077 4 0.202243 2 0 0.0994487 -0.0826106
352 1 15.0282 5.64393 0.034369 4 0.208634 2 0 0.0994487 0.0573625
353 1 15.8305 5.73813 0.95832 3 0.254895 2 0 0.0994212 0.625734
354 1 15.0472 6.45091 0.806774 3 0.260589 2 0 0.0993874 -0.174524
355 1 16.491 6.45257 1.1401 3 0.349079 2 0 0.0985237 0.204513
356 1 15.1058 5.87594 1.69804 4 0.236881 2 0 0.0994487 -0.0977041
357 1 16.62 5.41933 0.276819 3 0.262811 2 0 0.0993737 0.0799207
358 1 15.6753 6.3382 0.0390223 3 0.274572 2 0 0.0992959 0.0398014
359 1 17.8271 5.30128 0.541411 3 0.297347 2 0 0.0991168 0.150327
360 1 17.113 5.42499 1.24767 3 0.287687 2 0 0.0991977 -0.287103
361 1 17.0619 6.27419 0.411469 3 0.349893 2 0 0.0985117 0.138986
362 1 17.6649 6.24649 1.38542 3 0.388326 2 0 0.0978234 -0.267751
363 1 18.2745 7.0517 1.13153 3 0.50469 2 0 0.0932288 0.694882
364 1 18.3714 6.23173 0.609762 3 0.412357 2 0 0.097242 0.156208
365 1 19.429 5.75829 0.62055 3 0.407387 2 0 0.0973736 0.0571915
366 1 19.3279 6.55755 1.35081 3 0.508078 2 0 0.0930054 0.290875
367 1 19.9942 6.75229 0.610261 3 0.594593 2 0 0.0843208 -0.0116846
368 1 20.7494 5.77593 0.653722 3 0.486716 2 0 0.0943039 -0.10406
369 1 20.1931 5.61076 1.39557 3 0.430143 2 0 0.0967158 0.312766
370 1 20.7787 6.6124 1.30355 3 0.653252 2 0 0.0738975 -0.347002
371 1 21.6592 6.66248 0.666524 3 0.665493 2 0 0.0711386 -0.0435963
372 1 21.6631 5.87866 1.38528 3 0.555441 2 0 0.0890535 0.0422703
373 1 21.6904 5.73259 0.0517844 3 0.505708 2 0 0.0931623 -0.00150057
374 1 22.6732 5.8279 0.674154 3 0.533652 2 0 0.0910786 0.00265356
375 1 22.6319 6.69333 1.20734 3 0.69915 2 0 0.0624759 -0.206294
376 1 23.3484 6.78052 0.267835 3 0.657374 2 0 0.0729918 -0.125339
377 1 23.4822 5.88496 1.30013 3 0.537849 2 0 0.0907181 -0.176357
378 1 24.3197 6.56281 1.15825 3 0.58584 2 0 0.0855154 0.177191
379 1 24.1457 6.00685 0.427617 3 0.513612 2 0 0.0926253 0.00243035
380 1 25.6831 5.86213 0.700952 3 0.409335 2 0 0.0973228 0.163887
381 1 25.1124 6.04132 1.67733 3 0.463312 2 0 0.0954596 0.00367326
382 1 25.1593 6.74159 0.495153 3 0.536717 2 0 0.0908166 0.0903795
383 1 25.8251 6.59457 1.40775 3 0.473318 2 0 0.0949964 0.0880884
384 1 26.6903 5.84511 1.4763 3 0.348953 2 0 0.0985255 0.0917554
385 1 27.4966 5.54334 0.722172 3 0.275875 2 0 0.0992867 -0.25158
386 1 26.7485 6.36567 0.651888 3 0.386214 2 0 0.0978683 0.0387423
387 1 27.7011 6.47315 1.36539 3 0.330114 2 0 0.0987768 0.131487
388 1 28.3648 5.52203 1.4872 4 0.236466 2 0 0.0994487 0.0456309
389 1 27.7097 7.0074 0.530173 3 0.363026 2 0 0.098305 0.0321173
390 1 29.3889 5.30889 0.818726 4 0.194482 2 0 0.0994487 0.316716
391 1 29.4379 6.18214 1.32212 4 0.225431 2 0 0.0994487 -0.00338295
392 1 29.5784 6.89773 0.506505 3 0.250579 2 0 0.0994456 0.092584
393 1 28.4685 6.20589 0.638647 3 0.263894 2 0 0.0993669 -0.270088
394 1 29.3762 6.15398 0.0801838 4 0.225898 2 0 0.0994487 0.0969251
395 1 28.4822 5.38976 0.0592959 4 0.222875 2 0 0.0994487 -0.105005
396 1 30.9636 5.36838 0.595026 4 0.166733 2 0 0.0994487 0.667848
397 1 30.2159 5.45949 1.46813 4 0.177497 2 0 0.0994487 0.0540206
398 1 30.3958 6.18258 0.649752 4 0.201715 2 0 0.0994487 0.328999
399 1 31.2189 6.15516 1.38439 4 0.186381 2 0 0.0994487 0.587257
400 1 31.1994 6.95407 0.60342 4 0.213875 2 0 0.0994487 0.812252
401 1 31.7235 5.99622 0.446564 4 0.177661 2 0 0.0994487 0.879729
402 1 0.261851 7.63199 0.661866 4 0.0038032 2 0 0.0994487 -0.876374
403 1 0.831025 8.46344 0.61936 4 0.00464655 2 0 0.0994487 -0.577627
404 1 1.11211 7.86396 1.49711 4 0.00449234 2 0 0.0994487 -0.154429
405 1 0.356955 8.5626 1.47035 4 0.00428241 2 0 0.0994487 -0.764984
406 1 1.59266 7.76478 0.37187 4 0.00511362 2 0 0.0994487 -0.0897891
407 1 1.72382 8.61735 1.46471 4 0.00585785 2 0 0.0994487 0.0395954
408 1 2.48799 7.14986 0.476331 4 0.00635398 2 0 0.0994487 -0.0836991
409 1 2.19177 8.6335 0.399707 4 0.007029 2 0 0.0994487 -0.13727
410 1 2.39416 7.81099 1.27726 4 0.00668502 2 0 0.0994487 0.0869895
411 1 3.01349 8.51445 0.935533 4 0.00939863 2 0 0.0994487 -0.539323
412 1 3.24418 7.77117 0.327041 4 0.00936031 2 0 0.0994487 -0.196208
413 1 3.81243 8.45898 0.0822892 4 0.012235 2 0 0.0994487 -0.0457808
414 1 3.97971 7.67009 1.24863 4 0.0121861 2 0 0.0994487 -0.055493
415 1 4.70459 8.25653 0.921772 4 0.0171896 2 0 0.0994487 0.295305
416 1 4.67023 7.63706 0.247803 4 0.0154128 2 0 0.0994487 0.0376876
417 1 3.81127 8.34851 1.76162 4 0.0122942 2 0 0.0994487 -0.0574378
418 1 5.86955 8.34822 0.169905 4 0.026527 2 0 0.0994487 0.113101
419 1 5.48363 7.59071 1.03232 4 0.0218137 2 0 0.0994487 -0.467682
420 1 6.49365 7.53799 0.169175 4 0.0302489 2 0 0.0994487 0.187619
421 1 6.39674 8.23976 1.04384 4 0.0344688 2 0 0.0994487 0.338024
422 1 7.28583 7.76918 0.746313 4 0.0458898 2 1 0.0994487 0.00983913
423 1 8.2859 8.31376 0.868772 4 0.073689 2 2 0.0994487 0.277984
424 1 7.27857 8.18368 1.7015 4 0.0531979 2 2 0.0994487 -0.175083
425 1 8.05208 7.48784 1.5604 4 0.0590096 2 1 0.0994487 0.184946
426 1 7.99895 7.60312 0.0282118 4 0.0547251 2 0 0.0994487 0.067409
427 1 9.84313 7.22199 0.72344 4 0.0938986 2 1 0.0994487 -0.346975
428 1 8.91207 7.61626 0.661731 4 0.0768664 2 1 0.0994487 0.158491
429 1 9.73234 8.61964 0.693151 4 0.121128 2 3 0.0994487 -0.256871
430 1 9.09265 8.69904 1.44495 4 0.110255 2 9 0.0994487 -0.393307
431 1 9.64026 7.88932 1.60055 4 0.112953 2 8 0.0994487 -0.340405
432 1 11.3161 7.14287 0.810636 4 0.128641 2 1 0.0994487 0.448026
433 1 10.5731 7.9454 0.844311 4 0.131562 2 3 0.0994487 -0.197731
434 1 10.5877 8.70196 1.4255 4 0.155737 1 8 0.0994487 -0.143517
435 1 11.4057 7.80503 1.60301 4 0.163801 2 4 0.0994487 0.213746
436 1 11.227 8.11851 0.0422735 4 0.146002 2 0 0.0994487 0.174331
437 1 12.7061 7.28322 0.565784 4 0.18987 2 0 0.0994487 -0.0537822
438 1 12.178 8.23518 0.590765 4 0.196342 2 1 0.0994487 0.162799
439 1 12.0637 7.15788 1.37768 4 0.159487 2 2 0.0994487 0.133113
440 1 12.0887 8.68064 1.49044 4 0.221265 1 3 0.0994487 0.0917907
441 1 12.8601 7.99585 1.47598 4 0.244417 2 2 0.0994487 -0.251187
442 1 14.3373 7.3542 0.580954 3 0.27254 2 0 0.09931 0.0676976
443 1 13.6169 8.09282 0.464536 3 0.268442 2 0 0.0993376 0.0265938
444 1 13.458 7.34024 1.34133 4 0.239043 2 0 0.0994487 0.0675437
445 1 14.2471 8.18371 1.35246 3 0.333431 2 0 0.0987359 0.174669
446 1 16.4328 7.18497 0.276798 3 0.395922 2 0 0.0976541 -0.0655517
447 1 15.6276 7.3114 0.923132 3 0.366689 2 0 0.0982424 -0.448497
448 1 15.0689 8.29247 0.865596 3 0.39187 2 0 0.097746 -0.33675
449 1 16.2796 8.1617 1.1043 0 0.476496 1 0 0.0948399 -0.339137
450 1 15.1452 7.52269 1.62484 3 0.37159 2 0 0.0981551 -0.401472
451 1 15.8668 8.31534 0.152632 3 0.443289 2 0 0.0962649 -0.193919
452 1 16.977 7.36262 1.11681 3 0.462285 2 0 0.0955048 0.321101
453 1 17.0683 8.10487 0.342208 3 0.51128 2 0 0.0927879 0.0315326