ITEM: TIMESTEP
39500
ITEM: NUMBER OF ATOMS
9495
ITEM: BOX BOUNDS mm mm mm
0.0000000000000000e+00 3.1748021039364001e+01
0.0000000000000000e+00 3.1748021039364001e+01
-7.4072398406925706e-04 3.1748021039364001e+01
ITEM: ATOMS id type x y z c_phase c_temp c_surf c_nbond c_visc f_3[1]
1 1 0.116341 1.10259 0.464337 4 0.000178391 2 0 0.0994487 -0.68194
2 1 0.974108 1.6685 0.77798 4 0.000252913 2 0 0.0994487 -0.517032
3 1 0.714648 0.793562 1.41295 4 0.00019945 2 0 0.0994487 -0.281794
4 1 0.00336375 1.60273 1.37437 4 0.000193346 2 0 0.0994487 -0.804051
5 1 0.729896 0.0633724 0.61602 4 0.000165746 3 0 0.0994487 -0.190374
6 1 1.71015 0.808983 1.0155 4 0.00029354 2 0 0.0994487 -0.332069
7 1 1.80059 1.47468 0.221075 4 0.000316194 2 0 0.0994487 -0.125829
8 1 1.82015 1.66049 1.76126 4 0.000337394 2 0 0.0994487 -0.139533
9 1 2.52093 0.749102 0.203812 4 0.000377182 2 0 0.0994487 -0.142939
10 1 2.59149 0.0538711 1.03726 4 0.000374557 2 0 0.0994487 -0.295004
11 1 2.64922 1.541 0.882848 4 0.000456794 2 0 0.0994487 0.235757
12 1 2.66829 0.815502 1.7457 4 0.000416675 2 0 0.0994487 -0.18704
13 1 3.43386 0.933692 0.956349 4 0.000587829 2 0 0.0994487 0.320243
14 1 3.49924 0.0925696 1.70571 4 0.000497248 2 0 0.0994487 0.178054
15 1 3.60652 1.70798 1.71994 4 0.000721448 2 0 0.0994487 0.0487955
16 1 4.10576 0.858321 0.325305 4 0.000786428 2 0 0.0994487 0.153147
17 1 4.96159 0.56786 1.17466 4 0.00122414 2 0 0.0994487 -0.0370662
18 1 4.91949 1.59987 0.383508 4 0.00138241 2 0 0.0994487 -0.100247
19 1 4.3472 0.941527 1.62884 4 0.000911472 2 0 0.0994487 0.110739
20 1 3.47612 0.111428 0.171027 4 0.000479053 2 0 0.0994487 0.166215
21 1 5.64741 0.645627 0.325839 4 0.00168432 2 0 0.0994487 -0.0806042
22 1 5.88414 1.31048 0.938036 4 0.00202213 2 0 0.0994487 -0.199579
23 1 6.57478 1.39104 0.218369 4 0.00271594 2 0 0.0994487 -0.0861326
24 1 5.78374 0.460658 1.69897 4 0.00171218 2 0 0.0994487 -0.0846518
25 1 5.03122 1.72414 1.43602 4 0.00145206 2 0 0.0994487 0.0453731
26 1 6.7138 0.39031 0.865278 4 0.00255595 2 0 0.0994487 -0.079381
27 1 6.69104 1.00962 1.69374 4 0.00263573 2 0 0.0994487 -0.107922
28 1 8.2679 0.408875 1.07337 4 0.00444394 2 0 0.0994487 -0.100165
29 1 7.36782 1.22285 0.954198 4 0.00359167 2 0 0.0994487 -0.302546
30 1 8.24709 1.39092 0.236779 4 0.00502382 2 0 0.0994487 -0.0460628
31 1 8.12868 1.27217 1.60653 4 0.00463677 2 0 0.0994487 -0.00811562
32 1 7.58247 0.647807 0.140287 4 0.00361733 2 0 0.0994487 -0.110935
33 1 8.85849 0.508506 0.273966 4 0.00546147 2 0 0.0994487 -0.0616453
34 1 9.55301 0.3386 0.888639 4 0.00672402 2 0 0.0994487 0.00506547
35 1 9.02586 1.30716 1.1133 4 0.00647742 2 0 0.0994487 -0.0606404
37 1 9.63995 1.37474 0.0900752 4 0.0076617 2 0 0.0994487 0.0992924
38 1 11.2128 0.215893 0.632658 4 0.0113683 2 0 0.0994487 0.203505
39 1 10.3637 1.04743 0.823114 4 0.00948552 2 0 0.0994487 0.53989
40 1 10.523 0.196295 1.44539 4 0.00904543 2 0 0.0994487 0.0644299
41 1 11.2856 1.01846 1.41785 4 0.0133398 2 0 0.0994487 0.16471
42 1 10.5797 1.67706 1.72992 4 0.0115992 2 0 0.0994487 0.118166
43 1 10.2431 0.367861 0.0780499 4 0.00787128 2 0 0.0994487 0.149802
44 1 12.8757 0.211714 0.636805 4 0.0204822 2 0 0.0994487 0.0587896
45 1 12.0457 1.07408 0.506655 4 0.0178409 2 0 0.0994487 -0.0235486
46 1 12.1319 0.316439 1.29957 4 0.0165275 2 0 0.0994487 0.0188388
47 1 12.7194 1.19864 1.3723 4 0.0226882 2 0 0.0994487 -0.0305237
48 1 14.3729 0.318493 0.764646 4 0.0314763 2 0 0.0994487 -0.0460366
49 1 13.5924 1.113 0.843618 4 0.0291847 2 0 0.0994487 -0.263047
50 1 14.0399 1.55958 0.167469 4 0.0351493 2 0 0.0994487 -0.0898233
51 1 13.6075 0.359834 1.6352 4 0.0257789 2 0 0.0994487 -0.0562617
52 1 14.3777 1.14948 1.47647 4 0.034385 2 0 0.0994487 -0.0178249
53 1 14.8761 1.55337 0.662943 4 0.0412552 2 0 0.0994487 0.389953
54 1 15.7061 0.770636 0.788259 4 0.0435834 2 0 0.0994487 0.366487
55 1 16.5532 1.54451 0.681338 4 0.0610797 2 0 0.0994487 0.000809582
56 1 15.1422 0.4642 1.64149 4 0.036562 2 0 0.0994487 0.152079
57 1 16.547 0.712289 1.3421 4 0.0537621 2 0 0.0994487 0.0956292
58 1 15.6341 1.48544 1.3916 4 0.0483942 2 0 0.0994487 0.153635
59 1 15.1049 0.711806 0.0677822 4 0.0365834 2 0 0.0994487 0.169204
60 1 17.2544 0.732268 0.547589 4 0.0620676 2 0 0.0994487 0.0286319
61 1 17.9231 1.58109 0.757246 4 0.0786535 2 0 0.0994487 0.0415667
62 1 17.916 0.742935 1.42801 4 0.0706634 2 0 0.0994487 -0.224374
63 1 17.2202 1.74884 1.56274 4 0.0734167 2 0 0.0994487 -0.0984809
64 1 19.5372 0.0167772 0.662766 4 0.0754309 2 0 0.0994487 0.0436446
65 1 18.7918 0.725074 0.684829 4 0.0771851 2 0 0.0994487 -0.269943
66 1 19.5395 1.55488 0.841653 4 0.09342 2 0 0.0994487 -0.341158
67 1 19.0276 0.158607 1.54508 4 0.0744569 2 0 0.0994487 -0.158663
68 1 19.5934 0.967491 1.68957 4 0.0847037 2 0 0.0994487 0.00835226
69 1 18.6564 1.51302 1.50035 4 0.0858393 2 0 0.0994487 -0.250305
70 1 21.0889 0.349843 1.06749 4 0.0854605 2 0 0.0994487 -0.196125
71 1 20.2493 0.776373 0.980057 4 0.0865246 2 0 0.0994487 -0.0497585
72 1 21.1062 1.65725 0.951506 4 0.101052 2 0 0.0994487 0.69292
73 1 21.1874 0.765598 0.218806 4 0.0881261 2 0 0.0994487 -0.0445899
74 1 20.3457 1.51479 0.193617 4 0.0963898 2 0 0.0994487 -0.0806013
75 1 22.0087 0.262534 0.539755 4 0.0852162 2 0 0.0994487 0.0993601
76 1 22.7913 0.430275 1.40734 4 0.0865439 2 0 0.0994487 0.206601
77 1 22.1105 1.14763 1.32981 4 0.0936287 2 0 0.0994487 0.240026
78 1 21.9982 1.59955 0.538558 4 0.101491 2 0 0.0994487 0.185174
79 1 22.9157 1.07463 0.445168 4 0.0925067 2 0 0.0994487 0.0520857
80 1 24.228 0.380179 1.45209 4 0.0832823 2 0 0.0994487 0.0576175
81 1 23.5672 0.357563 0.57369 4 0.0849734 2 0 0.0994487 0.0385718
82 1 24.4367 1.18687 0.754729 4 0.0911916 2 0 0.0994487 -0.019294
83 1 23.4757 1.2499 1.4028 4 0.095552 2 0 0.0994487 0.0298789
84 1 24.955 0.315686 0.551996 4 0.0782248 2 0 0.0994487 -0.017198
85 1 26.0085 0.383365 1.1715 4 0.0700037 2 0 0.0994487 -0.185859
86 1 25.169 1.12579 1.48087 4 0.0857938 2 0 0.0994487 0.025106
87 1 25.9301 1.73476 1.35794 4 0.0878099 2 0 0.0994487 0.0345374
88 1 25.8917 0.929212 0.432102 4 0.0755258 2 0 0.0994487 -0.0954188
89 1 27.5736 1.28032 0.38906 4 0.0630532 2 0 0.0994487 0.0454498
90 1 27.6142 0.50928 0.874321 4 0.0581019 2 0 0.0994487 0.175388
91 1 26.7559 1.02809 1.26347 4 0.0679917 2 0 0.0994487 -0.236885
92 1 28.3748 0.337482 1.39813 4 0.0507894 2 0 0.0994487 0.00984483
93 1 26.7925 0.240345 0.226621 4 0.0619749 2 0 0.0994487 0.0380751
94 1 28.6489 1.24263 0.742341 4 0.0542725 2 0 0.0994487 0.102407
95 1 29.3912 0.945639 1.56878 4 0.0465766 2 0 0.0994487 -0.0192004
96 1 28.5228 1.71921 1.49749 4 0.0584561 2 0 0.0994487 -0.0429802
97 1 29.8133 0.173958 1.46124 4 0.0411874 2 0 0.0994487 0.133416
98 1 29.2734 0.3547 0.615275 4 0.0442782 2 0 0.0994487 -0.0816809
99 1 31.5874 0.266128 1.25663 4 0.0324897 3 0 0.0994487 0.830097
100 1 30.7016 0.49015 0.470738 4 0.0381132 2 0 0.0994487 0.354852
101 1 30.1009 1.19877 0.774133 4 0.0445329 2 0 0.0994487 0.21092
102 1 30.8649 0.971942 1.39386 4 0.0397988 2 0 0.0994487 0.703281
103 1 1.11081 2.43607 0.129285 4 0.000284579 2 0 0.0994487 -0.0373222
104 1 0.133403 2.3821 0.812241 4 0.000234691 2 0 0.0994487 -0.984517
105 1 1.28845 3.23764 0.949187 4 0.000376864 2 0 0.0994487 0.222093
106 1 1.13977 2.36077 1.59162 4 0.000303223 2 0 0.0994487 -0.222189
107 1 0.386685 3.02999 1.54944 4 0.000283502 2 0 0.0994487 -0.671256
108 1 0.332248 3.09582 0.131296 4 0.00027125 2 0 0.0994487 -0.59134
109 1 1.90972 2.41867 0.78376 4 0.000394419 2 0 0.0994487 0.0782096
110 1 2.65852 3.28029 0.860875 4 0.000682142 2 0 0.0994487 0.0668049
111 1 2.66931 2.22918 1.53373 4 0.00052586 2 0 0.0994487 0.0829555
112 1 3.2579 3.42668 1.64938 4 0.0009292 2 0 0.0994487 0.00397559
113 1 2.7261 2.38168 0.0557193 4 0.000502894 2 0 0.0994487 0.146601
114 1 3.38195 2.55413 0.779289 4 0.000783651 2 0 0.0994487 0.211585
115 1 4.00679 1.841 0.711184 4 0.000925159 2 0 0.0994487 -0.0361223
116 1 4.91383 2.57277 0.815661 4 0.00167493 2 0 0.0994487 -0.259348
117 1 4.20148 3.3175 0.749446 4 0.00143014 2 0 0.0994487 0.00621655
118 1 4.13245 2.64107 1.58328 4 0.00116132 2 0 0.0994487 0.0270784
119 1 5.65047 2.44269 0.132743 4 0.00224018 2 0 0.0994487 -0.189925
120 1 6.55776 2.18062 0.772597 4 0.00308542 2 0 0.0994487 -0.289376
121 1 5.64874 3.19593 0.952489 4 0.00265537 2 0 0.0994487 -0.75463
122 1 5.861 2.19426 1.49672 4 0.00228706 2 0 0.0994487 0.0126367
123 1 6.52037 3.06691 1.5557 4 0.00364164 2 0 0.0994487 0.0443586
124 1 6.65033 2.92778 0.134227 4 0.00354947 2 0 0.0994487 0.0288877
125 1 7.45405 2.22586 0.139832 4 0.00437319 2 0 0.0994487 -0.0535013
126 1 8.08209 2.20208 0.930382 4 0.00560451 2 0 0.0994487 -0.302064
127 1 7.40132 3.06835 0.934051 4 0.00524924 2 0 0.0994487 -0.04551
128 1 7.29928 2.06035 1.56856 4 0.00398973 2 0 0.0994487 -0.0607316
129 1 8.18545 3.00183 1.65211 4 0.00697072 2 0 0.0994487 -0.0454146
130 1 8.26934 2.9712 0.0392146 4 0.00715184 2 0 0.0994487 -0.150616
131 1 8.90393 2.08699 0.252387 4 0.00717003 2 0 0.0994487 0.00243483
132 1 9.77243 2.0246 1.10996 4 0.00959019 2 0 0.0994487 0.173471
133 1 8.92671 2.97262 0.928693 4 0.00919382 2 0 0.0994487 -0.156747
134 1 9.03062 2.22066 1.70398 4 0.00782241 2 0 0.0994487 -0.0819666
135 1 9.56096 2.90576 0.21312 4 0.0108081 2 0 0.0994487 0.173122
136 1 10.2834 2.1137 0.214297 4 0.0107945 2 0 0.0994487 0.33774
137 1 11.1583 1.82604 0.771092 4 0.0147916 2 0 0.0994487 0.260093
138 1 10.6214 2.80819 0.921535 4 0.0157406 2 0 0.0994487 0.541924
139 1 11.4444 2.82964 1.57484 4 0.0213664 2 0 0.0994487 0.0952021
140 1 12.6737 1.94118 0.593851 4 0.0264628 2 0 0.0994487 -0.28393
141 1 11.928 2.64099 0.742299 4 0.0240186 2 0 0.0994487 -0.03867
142 1 11.9239 1.9206 1.46509 4 0.0199739 2 0 0.0994487 0.0946567
143 1 12.8449 3.01766 1.68597 4 0.0347069 2 0 0.0994487 0.0363588
144 1 13.1791 3.03035 0.848852 4 0.0388757 2 0 0.0994487 -0.440849
145 1 13.3784 1.9912 1.48064 4 0.0318116 2 0 0.0994487 -0.0150679
146 1 14.0206 2.44438 0.927124 4 0.0419029 2 0 0.0994487 -0.133089
147 1 14.0279 3.38359 1.55716 4 0.0526594 2 0 0.0994487 0.0255769
148 1 14.6961 3.43698 0.884932 4 0.0633929 2 0 0.0994487 -0.33294
149 1 14.7823 2.29758 1.44821 4 0.0480006 2 0 0.0994487 0.0469295
150 1 14.8418 2.51505 0.136557 4 0.0509786 2 0 0.0994487 0.173007
151 1 14.1591 3.2262 0.0325348 4 0.0526854 2 0 0.0994487 -0.246104
152 1 13.4137 2.29398 0.0590902 4 0.0352005 2 0 0.0994487 -0.28096
153 1 15.6993 2.44373 0.692668 4 0.0613172 2 0 0.0994487 0.364398
154 1 16.3029 3.20095 0.662084 4 0.0832971 2 0 0.0994487 0.328593
155 1 16.308 2.47951 1.52575 4 0.0718286 2 0 0.0994487 -0.100644
156 1 15.3694 3.25723 1.50191 4 0.070848 2 0 0.0994487 -0.00766659
157 1 15.5706 3.25854 0.0192499 4 0.0696747 2 0 0.0994487 0.290239
158 1 17.0646 2.35032 0.682778 4 0.0799649 2 0 0.0994487 0.0234845
159 1 17.944 2.92608 0.699539 4 0.108398 2 0 0.0994487 -0.231187
160 1 18.0193 2.43917 1.58112 4 0.0966216 2 0 0.0994487 -0.149132
161 1 17.0918 3.1162 1.49491 4 0.0980528 2 0 0.0994487 -0.143431
162 1 18.8908 2.35742 1.01358 4 0.104857 2 0 0.0994487 -0.516823
163 1 19.7027 3.2427 1.27782 4 0.136333 2 0 0.0994487 0.394884
164 1 18.884 2.99607 0.196019 4 0.121984 2 0 0.0994487 -0.171808
165 1 19.587 2.34239 0.101452 4 0.110126 2 0 0.0994487 -0.132369
166 1 20.3251 1.78863 1.72442 4 0.0994458 2 0 0.0994487 0.0449547
167 1 21.1565 2.41663 0.458355 4 0.119873 2 0 0.0994487 0.196189
168 1 20.1948 2.46882 1.11433 4 0.115388 2 0 0.0994487 0.286751
169 1 21.31 3.29463 1.39314 4 0.154927 2 0 0.0994487 0.0777313
170 1 20.4222 2.99313 0.334941 4 0.132515 2 0 0.0994487 0.186292
171 1 22.8719 2.07007 1.50872 4 0.114993 2 0 0.0994487 -0.0221219
172 1 22.9717 2.60199 0.735523 4 0.135342 2 0 0.0994487 0.133329
173 1 22.0961 2.49917 1.23787 4 0.128526 2 0 0.0994487 0.186442
174 1 21.9898 3.20043 0.598797 4 0.158212 2 0 0.0994487 -0.0757474
175 1 22.6771 3.40124 0.07601 4 0.170219 2 0 0.0994487 0.0760743
176 1 23.7438 1.80844 0.624025 4 0.105406 2 0 0.0994487 -0.0873575
177 1 24.4289 1.98763 1.61102 4 0.107324 2 0 0.0994487 -0.0641746
178 1 24.342 2.68296 0.775192 4 0.128257 2 0 0.0994487 -0.34109
179 1 23.6887 2.90303 1.53628 4 0.141739 2 0 0.0994487 -0.110503
180 1 24.4728 3.51078 1.55704 4 0.162486 2 0 0.0994487 -0.118304
181 1 24.9562 2.84566 0.0146836 4 0.124908 2 0 0.0994487 -0.086459
182 1 26.5483 1.79415 0.511367 4 0.080391 2 0 0.0994487 -0.00559917
183 1 25.1322 1.85613 0.509414 4 0.098784 2 0 0.0994487 -0.0215279
184 1 25.7918 2.61203 0.707489 4 0.110701 2 0 0.0994487 0.228204
185 1 25.1579 2.55548 1.52547 4 0.116915 2 0 0.0994487 0.0576679
186 1 25.7213 3.49812 1.51211 4 0.143906 2 0 0.0994487 0.123858
187 1 26.5364 2.56002 1.53049 4 0.0969472 2 0 0.0994487 0.0579485
188 1 26.1686 3.50068 0.599043 4 0.134941 2 0 0.0994487 0.168846
189 1 27.5039 1.98546 1.23792 4 0.0714464 2 0 0.0994487 -0.186417
190 1 28.2489 2.09022 0.343734 4 0.0649769 2 0 0.0994487 -0.0177243
191 1 27.0867 2.6924 0.645359 4 0.0905017 2 0 0.0994487 -0.105599
192 1 27.1998 3.35397 1.41682 4 0.105106 2 0 0.0994487 -0.0983274
193 1 28.2537 2.75799 1.20639 4 0.0740998 2 0 0.0994487 -0.418305
194 1 27.982 3.21993 0.326384 4 0.0855558 2 0 0.0994487 -0.125256
195 1 29.9568 1.80906 1.70764 4 0.0491484 2 0 0.0994487 0.183201
196 1 29.4477 2.04702 0.879698 4 0.0546976 2 0 0.0994487 -0.00708209
197 1 29.1956 2.6589 0.290703 4 0.0622655 2 0 0.0994487 -0.057828
198 1 29.2495 3.2651 1.17365 4 0.0700403 2 0 0.0994487 0.118636
199 1 30.9114 1.98502 0.924207 4 0.047359 2 0 0.0994487 0.967251
200 1 30.1815 2.71094 1.00186 4 0.0560638 2 0 0.0994487 0.675111
201 1 31.0247 3.35309 0.97101 4 0.0586233 2 0 0.0994487 0.998409
202 1 30.9865 2.69483 1.72648 4 0.0526313 2 0 0.0994487 0.578502
203 1 30.1092 3.25953 0.132205 4 0.0604344 2 0 0.0994487 -0.0443656
204 1 30.4116 1.90909 0.0255368 4 0.0475468 2 0 0.0994487 0.106045
205 1 31.1434 2.66402 0.0761253 4 0.0506568 2 0 0.0994487 0.70882
206 1 0.293831 3.78503 0.918557 4 0.000325513 2 0 0.0994487 -0.999347
207 1 0.143046 4.59443 0.482118 4 0.00036576 2 0 0.0994487 -0.784494
208 1 1.14036 4.67093 0.986638 4 0.000504145 2 0 0.0994487 -0.51675
209 1 0.0884667 5.26681 1.27761 4 0.000420265 2 0 0.0994487 -0.887458
210 1 1.04069 3.86421 0.0595682 4 0.000379798 2 0 0.0994487 0.0148881
211 1 1.84117 4.04604 0.847105 4 0.000579958 2 0 0.0994487 0.00826974
212 1 2.54049 4.85585 1.13748 4 0.000953472 2 0 0.0994487 -0.333846
213 1 2.64953 4.14475 0.20674 4 0.000858887 2 0 0.0994487 -0.0285718
214 1 1.89758 4.96895 0.278386 4 0.0007423 2 0 0.0994487 -0.153433
215 1 3.40771 4.86189 0.161635 4 0.00141787 2 0 0.0994487 -0.0163878
216 1 3.494 4.07675 0.885909 4 0.00123503 2 0 0.0994487 0.0268948
217 1 4.91235 4.00001 1.18344 4 0.00232391 2 0 0.0994487 0.0115134
218 1 4.04658 4.88002 1.14639 4 0.00189802 2 0 0.0994487 0.26449
219 1 4.26027 4.18509 0.149001 4 0.00180447 2 0 0.0994487 0.0377385
220 1 5.00947 4.74001 0.341082 4 0.00289727 2 0 0.0994487 0.0765405
221 1 5.77735 3.9378 0.198707 4 0.00319884 2 0 0.0994487 0.0260162
222 1 6.48883 3.76611 0.772067 4 0.00422343 2 0 0.0994487 0.204555
223 1 5.68025 4.73638 1.02487 4 0.00398549 2 0 0.0994487 -0.621684
224 1 6.66321 4.5115 1.6428 4 0.00548826 2 0 0.0994487 0.158934
225 1 6.68072 5.1315 0.885352 4 0.00671156 2 0 0.0994487 0.206859
226 1 8.1982 3.892 0.700757 4 0.00914166 2 0 0.0994487 -0.369898
227 1 7.40842 4.46072 0.5468 4 0.00769471 2 0 0.0994487 -0.0252112
228 1 7.39886 3.87029 1.49684 4 0.00638753 2 0 0.0994487 0.102578
229 1 8.20004 4.61106 1.48677 4 0.0109861 2 0 0.0994487 -0.011836
230 1 9.8976 3.57792 0.885667 4 0.0153153 2 0 0.0994487 0.592803
231 1 9.07913 4.56551 0.821335 4 0.0152062 2 0 0.0994487 -0.658537
232 1 9.86266 4.50302 0.126324 4 0.0184782 2 0 0.0994487 0.0958666
233 1 9.07829 3.76256 1.49819 4 0.0121776 2 0 0.0994487 -0.0708842
234 1 9.86881 4.3462 1.65532 4 0.0190139 2 0 0.0994487 -0.0856612
235 1 8.98541 3.86821 0.0631775 4 0.0118619 2 0 0.0994487 -0.138753
236 1 11.408 3.64493 0.778297 4 0.0263156 2 0 0.0994487 0.202069
237 1 10.5891 4.66652 0.906264 4 0.0261374 2 0 0.0994487 0.0450875
238 1 11.3867 4.69403 0.230734 4 0.0344713 2 0 0.0994487 -0.0498886
239 1 10.7059 3.56689 1.58785 4 0.0204181 2 0 0.0994487 -0.0448476
240 1 11.3652 4.3716 1.70545 4 0.0316139 2 0 0.0994487 -0.0798262
241 1 11.3894 5.27213 0.983682 4 0.0401502 2 0 0.0994487 -0.674472
242 1 10.5826 3.84888 0.176129 4 0.0202201 2 0 0.0994487 0.210468
243 1 12.5168 3.57716 0.814749 4 0.0370201 2 0 0.0994487 -0.0105727
244 1 12.1916 4.55033 1.00021 4 0.0429641 2 0 0.0994487 0.105059
245 1 12.7362 4.99738 1.68903 4 0.0544179 2 0 0.0994487 0.191331
246 1 13.2258 4.67863 0.80017 4 0.0604498 2 0 0.0994487 -0.00469122
247 1 12.6435 4.61885 0.0632315 4 0.0510182 2 0 0.0994487 -0.0335791
248 1 13.9891 4.12825 0.69648 4 0.0650879 2 0 0.0994487 -0.430173
249 1 13.4832 4.21781 1.59317 4 0.0562812 2 0 0.0994487 0.0820197
250 1 14.2046 5.11838 1.52001 4 0.0873982 2 0 0.0994487 -0.0289892
251 1 14.9402 5.01141 0.811699 4 0.10223 2 0 0.0994487 -0.0526734
252 1 14.9642 4.4167 1.59432 4 0.0882209 2 0 0.0994487 -0.0635602
253 1 14.1405 4.90647 0.0597868 4 0.0818732 2 0 0.0994487 -0.0856929
254 1 14.961 4.19423 0.096508 4 0.0810434 2 0 0.0994487 0.0322742
255 1 15.6685 4.06642 0.926277 4 0.0928651 2 0 0.0994487 0.872591
256 1 15.8798 4.77595 0.186426 4 0.116607 2 0 0.0994487 0.165392
257 1 16.5936 4.58036 0.900182 4 0.130389 2 0 0.0994487 -0.0789577
258 1 16.3184 3.95875 1.6903 4 0.104539 2 0 0.0994487 -0.0433948
259 1 15.8111 5.05317 1.64084 4 0.124305 2 0 0.0994487 0.0995019
260 1 17.2689 3.83372 0.811237 4 0.122662 2 0 0.0994487 -0.345379
261 1 18.0864 4.48855 1.09806 4 0.161665 2 0 0.0994487 -0.612134
262 1 17.9525 3.63794 1.65602 4 0.128619 2 0 0.0994487 -0.192803
263 1 17.4569 4.57727 0.0147963 4 0.1486 2 0 0.0994487 -0.0974082
264 1 18.1348 3.8547 0.0583493 4 0.137775 2 0 0.0994487 -0.120516
265 1 18.8779 3.70667 0.95022 4 0.143918 2 0 0.0994487 0.0692472
266 1 18.8235 4.60949 0.361826 4 0.177488 2 0 0.0994487 0.115611
267 1 19.6906 4.67872 1.0803 4 0.208363 2 0 0.0994487 0.931528
268 1 18.7859 5.27693 1.20102 4 0.22161 2 0 0.0994487 0.599127
269 1 19.5987 3.76722 0.227421 4 0.153312 2 0 0.0994487 0.164271
270 1 20.4384 3.82188 1.23329 4 0.172174 2 0 0.0994487 0.325958
271 1 20.8846 4.71868 1.39403 4 0.246994 2 0 0.0994487 0.149061
272 1 21.5775 4.95128 0.810455 3 0.292424 2 0 0.099159 -0.0037457
273 1 21.0824 3.93136 0.512408 4 0.188125 2 0 0.0994487 0.0883053
274 1 20.1339 4.78559 0.352846 4 0.226126 2 0 0.0994487 0.145588
275 1 22.8205 3.63186 1.42135 4 0.183349 2 0 0.0994487 -0.0183983
276 1 21.9406 4.13318 1.31068 4 0.215612 2 0 0.0994487 0.0272064
277 1 22.4705 5.17735 1.27286 3 0.327859 2 0 0.0988039 0.0207078
278 1 22.6119 4.34705 0.510028 4 0.234992 2 0 0.0994487 -0.0221048
279 1 23.5735 3.63903 0.782677 4 0.182772 2 0 0.0994487 0.185561
280 1 24.336 4.32055 0.625018 4 0.220834 2 0 0.0994487 -0.150093
281 1 23.4679 4.54946 1.33355 3 0.25268 2 0 0.0994339 -0.0790547
282 1 24.8518 5.25716 0.566763 3 0.283308 2 0 0.0992319 0.0409066
283 1 23.5518 5.06386 0.533607 3 0.303157 2 0 0.0990642 -0.0968885
284 1 25.0086 4.50055 1.62342 4 0.216694 2 0 0.0994487 -0.0421948
285 1 25.0629 3.68037 0.802132 4 0.164165 2 0 0.0994487 -0.187916
286 1 24.363 5.28843 1.43377 3 0.305903 2 0 0.0990383 -0.15471
287 1 25.6904 5.1389 1.34266 4 0.242816 2 0 0.0994487 0.210101
288 1 26.3575 4.29031 1.37159 4 0.165599 2 0 0.0994487 0.149483
289 1 26.5026 4.97257 0.640732 4 0.196245 2 0 0.0994487 0.0989676
290 1 25.5284 4.40089 0.388179 4 0.194139 2 0 0.0994487 0.055948
291 1 27.3302 4.86961 1.40568 4 0.161108 2 0 0.0994487 0.00661055
292 1 27.9624 3.97641 1.10408 4 0.106516 2 0 0.0994487 -0.309503
293 1 28.2771 4.73475 0.706344 4 0.126033 2 0 0.0994487 -0.0812457
294 1 27.0674 4.04323 0.570038 4 0.132478 2 0 0.0994487 0.0120232
295 1 28.9321 3.77016 0.487204 4 0.0827171 2 0 0.0994487 -0.00703225
296 1 29.0873 4.52317 1.33085 4 0.0993066 2 0 0.0994487 0.0574863
297 1 29.9979 4.07209 1.02303 4 0.0747931 2 0 0.0994487 -0.275231
298 1 31.0296 3.97382 0.373364 4 0.0652399 2 0 0.0994487 0.657583
299 1 30.2046 4.67765 0.491317 4 0.0852293 2 0 0.0994487 0.00995865
300 1 30.9783 4.59929 1.41131 4 0.0754367 2 0 0.0994487 0.679914
301 1 0.908283 5.53205 0.461647 4 0.000579634 2 0 0.0994487 -0.463784
302 1 1.53161 5.51184 1.37971 4 0.000713431 2 0 0.0994487 -0.117387
303 1 0.793684 6.22023 1.2768 4 0.000665344 2 0 0.0994487 -0.703381
304 1 0.257003 6.91734 1.50738 4 0.000666733 2 0 0.0994487 -0.772633
305 1 0.969942 6.9454 0.573423 4 0.000830155 2 0 0.0994487 -0.473533
306 1 1.7053 7.02884 1.23811 4 0.00105334 2 0 0.0994487 0.0665181
307 1 1.89588 6.19966 0.519025 4 0.000975425 2 0 0.0994487 -0.1564
308 1 3.10475 5.61709 1.30057 4 0.00143221 2 0 0.0994487 0.0402529
309 1 2.26359 6.15348 1.40977 4 0.00108796 2 0 0.0994487 0.0408561
310 1 3.25442 6.96226 1.12748 4 0.00218491 2 0 0.0994487 -0.0541232
311 1 2.68177 5.61289 0.273587 4 0.00119943 2 0 0.0994487 -0.0596854
312 1 3.39503 6.28191 0.500536 4 0.00202614 2 0 0.0994487 -0.121444
313 1 4.18979 5.46246 0.325783 4 0.00238256 2 0 0.0994487 0.0310181
314 1 4.93434 5.42873 1.31778 4 0.00351852 2 0 0.0994487 -0.235099
315 1 4.13622 6.09659 1.22779 4 0.00279188 2 0 0.0994487 -0.0893885
316 1 4.82567 6.23357 0.333842 4 0.00392989 2 0 0.0994487 -0.0345756
317 1 4.77312 6.79931 1.15967 4 0.00449831 2 0 0.0994487 -0.30593
318 1 4.00267 7.02511 0.221759 4 0.00315806 2 0 0.0994487 -0.0853438
319 1 5.78575 5.42185 0.301847 4 0.00488587 2 0 0.0994487 0.0125026
320 1 5.6935 6.24342 0.9632 4 0.00589016 2 0 0.0994487 -0.967784
321 1 6.4578 5.98425 1.59671 4 0.00751417 2 0 0.0994487 0.140914
322 1 6.43234 6.86927 1.00965 4 0.00937164 2 0 0.0994487 0.851674
323 1 6.37773 6.04115 0.154639 4 0.00697749 2 0 0.0994487 0.111113
324 1 5.54993 7.05206 0.147147 4 0.00631303 2 0 0.0994487 0.0363864
325 1 8.21355 5.31419 0.694273 4 0.0134454 2 0 0.0994487 -0.0895905
326 1 7.32761 6.15925 0.754293 4 0.0114272 2 0 0.0994487 0.225733
327 1 7.39163 5.41839 1.49138 4 0.00964493 2 0 0.0994487 0.136754
328 1 8.23884 6.11028 1.49159 4 0.0168795 2 0 0.0994487 0.0187379
329 1 8.01352 6.85364 0.728993 4 0.0188829 2 0 0.0994487 0.0691883
330 1 7.28191 6.86379 1.59601 4 0.0140369 2 1 0.0994487 0.126049
331 1 7.33029 5.3575 0.0461812 4 0.0088714 2 0 0.0994487 0.0813572
332 1 9.76796 5.3194 0.792562 4 0.0234156 2 0 0.0994487 0.32845
333 1 8.88016 6.18865 0.736908 4 0.0221252 2 0 0.0994487 -0.235543
334 1 9.05434 5.3271 1.5973 4 0.0185926 2 0 0.0994487 -0.0628303
335 1 9.73844 6.19052 1.46731 4 0.0305674 2 0 0.0994487 -0.106545
336 1 9.09351 6.95013 1.463 4 0.0305497 2 2 0.0994487 -0.0762041
337 1 9.76329 6.23201 0.0941385 4 0.0298908 2 0 0.0994487 -0.0359517
338 1 8.99733 5.46479 0.012702 4 0.0184775 2 0 0.0994487 -0.134753
339 1 10.5831 6.02196 0.964384 4 0.0380884 2 0 0.0994487 -0.35622
340 1 11.3128 6.37134 0.0776634 4 0.0484788 2 0 0.0994487 0.100342
341 1 10.5187 6.94145 0.15452 4 0.0455785 2 0 0.0994487 -0.073527
342 1 10.4686 6.92564 1.49614 4 0.0482507 2 1 0.0994487 -0.0634896
343 1 11.9994 5.6274 0.183157 4 0.0505963 2 0 0.0994487 -0.01053
344 1 12.6757 5.81849 0.861776 4 0.0665205 2 0 0.0994487 0.0817481
345 1 11.7774 6.20735 1.05291 4 0.0559532 2 0 0.0994487 0.292332
346 1 13.3219 5.86668 1.55471 4 0.0803978 2 0 0.0994487 0.208168
347 1 13.3506 6.58297 0.813679 4 0.101963 2 0 0.0994487 -0.292109
348 1 13.3212 5.53867 0.0424813 4 0.0754659 2 0 0.0994487 -0.14291
349 1 14.0617 5.71565 0.77266 4 0.0981651 2 0 0.0994487 -0.372678
350 1 14.3278 6.65176 1.40646 4 0.140819 2 1 0.0994487 -0.103075
351 1 14.1303 6.38483 0.0380077 4 0.11348 2 0 0.0994487 -0.0826097
352 1 15.0282 5.64393 0.034369 4 0.119857 2 0 0.0994487 0.057365
353 1 15.8305 5.73813 0.95832 4 0.153764 2 0 0.0994487 0.625746
354 1 15.0472 6.45091 0.806774 4 0.155644 2 0 0.0994487 -0.174575
355 1 16.491 6.45257 1.1401 4 0.223244 2 0 0.0994487 0.204904
356 1 15.1058 5.87594 1.69804 4 0.139306 2 0 0.0994487 -0.0976563
357 1 16.62 5.41933 0.276819 4 0.161524 2 0 0.0994487 0.0799244
358 1 15.6753 6.3382 0.0390223 4 0.166947 2 0 0.0994487 0.0398042
359 1 17.8271 5.30128 0.541411 4 0.190575 2 0 0.0994487 0.15033
360 1 17.113 5.42499 1.24767 4 0.181095 2 0 0.0994487 -0.286569
361 1 17.0619 6.27419 0.411469 4 0.226601 2 0 0.0994487 0.138989
362 1 17.6649 6.24649 1.38542 3 0.256624 2 0 0.0994112 -0.255702
363 1 18.2745 7.0517 1.13153 3 0.351752 2 0 0.098484 0.672058
364 1 18.3714 6.23173 0.609762 3 0.280705 2 0 0.0992516 0.156213
365 1 19.429 5.75829 0.62055 3 0.284323 2 0 0.0992241 0.0571887
366 1 19.3279 6.55755 1.35081 3 0.361652 2 0 0.0983279 0.281173
367 1 19.9942 6.75229 0.610261 3 0.442364 2 0 0.0962985 -0.0119494
368 1 20.7494 5.77593 0.653722 3 0.358883 2 0 0.0983731 -0.104063
369 1 20.1931 5.61076 1.39557 3 0.307284 2 0 0.099025 0.312025
370 1 20.7787 6.6124 1.30355 3 0.496816 2 0 0.0937217 -0.344178
371 1 21.6592 6.66248 0.666524 3 0.516997 2 0 0.0923832 -0.0435131
372 1 21.6631 5.87866 1.38528 3 0.421792 2 0 0.0969741 0.0420144
373 1 21.6904 5.73259 0.0517844 3 0.380113 2 0 0.0979929 -0.00150092
374 1 22.6732 5.8279 0.674154 3 0.407794 2 0 0.097363 0.00265801
375 1 22.6319 6.69333 1.20734 3 0.552455 2 0 0.0893543 -0.20252
376 1 23.3484 6.78052 0.267835 3 0.517006 2 0 0.0923826 -0.125373
377 1 23.4822 5.88496 1.30013 3 0.413034 2 0 0.0972235 -0.176366
378 1 24.3197 6.56281 1.15825 3 0.45375 2 0 0.0958633 0.173734
379 1 24.1457 6.00685 0.427617 3 0.391589 2 0 0.0977522 0.00243727
380 1 25.6831 5.86213 0.700952 3 0.299625 2 0 0.0990965 0.163897
381 1 25.1124 6.04132 1.67733 3 0.346621 2 0 0.0985592 0.00366822
382 1 25.1593 6.74159 0.495153 3 0.408426 2 0 0.0973466 0.0903901
383 1 25.8251 6.59457 1.40775 3 0.352119 2 0 0.0984785 0.0881013
384 1 26.6903 5.84511 1.4763 4 0.246605 2 0 0.0994487 0.091762
385 1 27.4966 5.54334 0.722172 4 0.185273 2 0 0.0994487 -0.251571
386 1 26.7485 6.36567 0.651888 3 0.276249 2 0 0.099284 0.0387509
387 1 27.7011 6.47315 1.36539 4 0.227071 2 0 0.0994487 0.131494
388 1 28.3648 5.52203 1.4872 4 0.152121 2 0 0.0994487 0.0456338
389 1 27.7097 7.0074 0.530173 3 0.252264 2 0 0.0994362 0.0321242
390 1 29.3889 5.30889 0.818726 4 0.117915 2 0 0.0994487 0.316729
391 1 29.4379 6.18214 1.32212 4 0.13973 2 0 0.0994487 -0.00338039
392 1 29.5784 6.89773 0.506505 4 0.156994 2 0 0.0994487 0.0925875
393 1 28.4685 6.20589 0.638647 4 0.172052 2 0 0.0994487 -0.27008
394 1 29.3762 6.15398 0.0801838 4 0.140127 2 0 0.0994487 0.0969267
395 1 28.4822 5.38976 0.0592959 4 0.140805 2 0 0.0994487 -0.105003
396 1 30.9636 5.36838 0.595026 4 0.0948831 2 0 0.0994487 0.667849
397 1 30.2159 5.45949 1.46813 4 0.103617 2 0 0.0994487 0.0540218
398 1 30.3958 6.18258 0.649752 4 0.119893 2 0 0.0994487 0.329002
399 1 31.2189 6.15516 1.38439 4 0.107492 2 0 0.0994487 0.587258
400 1 31.1994 6.95407 0.60342 4 0.125859 2 0 0.0994487 0.812252
401 1 31.7235 5.99622 0.446564 4 0.100777 2 0 0.0994487 0.879729
402 1 0.261851 7.63199 0.661866 4 0.000782509 2 0 0.0994487 -0.876374
403 1 0.831025 8.46344 0.61936 4 0.00100953 2 0 0.0994487 -0.577626
404 1 1.11211 7.86396 1.49711 4 0.00098052 2 0 0.0994487 -0.154428
405 1 0.356955 8.5626 1.47035 4 0.000898175 2 0 0.0994487 -0.764984
406 1 1.59266 7.76478 0.37187 4 0.00117208 2 0 0.0994487 -0.0897878
407 1 1.72382 8.61735 1.46471 4 0.00137811 2 0 0.0994487 0.0395971
408 1 2.48799 7.14986 0.476331 4 0.00157937 2 0 0.0994487 -0.0836959
409 1 2.19177 8.6335 0.399707 4 0.00174542 2 0 0.0994487 -0.137267
410 1 2.39416 7.81099 1.27726 4 0.00166288 2 0 0.0994487 0.0869924
411 1 3.01349 8.51445 0.935533 4 0.00252988 2 0 0.0994487 -0.539314
412 1 3.24418 7.77117 0.327041 4 0.00253735 2 0 0.0994487 -0.196205
413 1 3.81243 8.45898 0.0822892 4 0.00350331 2 0 0.0994487 -0.0457785
414 1 3.97971 7.67009 1.24863 4 0.0035209 2 0 0.0994487 -0.055489
415 1 4.70459 8.25653 0.921772 4 0.00534834 2 0 0.0994487 0.295334
416 1 4.67023 7.63706 0.247803 4 0.00469685 2 0 0.0994487 0.0376918
417 1 3.81127 8.34851 1.76162 4 0.00351757 2 0 0.0994487 -0.0574359
418 1 5.86955 8.34822 0.169905 4 0.00900937 2 0 0.0994487 0.113105
419 1 5.48363 7.59071 1.03232 4 0.00717318 2 0 0.0994487 -0.467664
420 1 6.49365 7.53799 0.169175 4 0.0106076 2 0 0.0994487 0.187624
421 1 6.39674 8.23976 1.04384 4 0.0123944 2 0 0.0994487 0.338169
422 1 7.28583 7.76918 0.746313 4 0.0174492 2 1 0.0994487 0.00995528
423 1 8.2859 8.31376 0.868772 4 0.0305014 2 2 0.0994487 0.27823
424 1 7.27857 8.18368 1.7015 4 0.020727 2 2 0.0994487 -0.174791
425 1 8.05208 7.48784 1.5604 4 0.0235757 2 1 0.0994487 0.184997
426 1 7.99895 7.60312 0.0282118 4 0.0213427 2 0 0.0994487 0.0674135
427 1 9.84313 7.22199 0.72344 4 0.0417667 2 1 0.0994487 -0.346976
428 1 8.91207 7.61626 0.661731 4 0.0324491 2 1 0.0994487 0.158469
429 1 9.73234 8.61964 0.693151 4 0.0555626 2 3 0.0994487 -0.25699
430 1 9.09265 8.69904 1.44495 4 0.0492117 2 9 0.0994487 -0.394057
431 1 9.64026 7.88932 1.60055 4 0.0513373 2 8 0.0994487 -0.340652
432 1 11.3161 7.14287 0.810636 4 0.0622112 2 1 0.0994487 0.448675
433 1 10.5731 7.9454 0.844311 4 0.0624789 2 3 0.0994487 -0.197729
434 1 10.5877 8.70196 1.4255 4 0.0761139 1 8 0.0994487 -0.151284
435 1 11.4057 7.80503 1.60301 4 0.0823591 2 7 0.0994487 0.229007
436 1 11.227 8.11851 0.0422735 4 0.0710081 2 0 0.0994487 0.174339
437 1 12.7061 7.28322 0.565784 4 0.101806 2 0 0.0994487 -0.0531348
438 1 12.178 8.23518 0.590765 4 0.104075 2 2 0.0994487 0.163857
439 1 12.0637 7.15788 1.37768 4 0.0815896 2 3 0.0994487 0.146011
440 1 12.0887 8.68064 1.49044 4 0.120161 1 8 0.0994487 0.0815422
441 1 12.8601 7.99585 1.47598 4 0.137114 2 5 0.0994487 -0.218803
442 1 14.3373 7.3542 0.580954 4 0.16122 2 0 0.0994487 0.0665935
443 1 13.6169 8.09282 0.464536 4 0.155471 2 2 0.0994487 0.026021
444 1 13.458 7.34024 1.34133 4 0.135402 2 2 0.0994487 0.0551513
445 1 14.2471 8.18371 1.35246 4 0.203873 2 2 0.0994487 0.113514
446 1 16.4328 7.18497 0.276798 3 0.25836 2 0 0.0994009 -0.06558
447 1 15.6276 7.3114 0.923132 4 0.233236 2 0 0.0994487 -0.446271
448 1 15.0689 8.29247 0.865596 4 0.249633 2 0 0.0994487 -0.329807
449 1 16.2796 8.16166 1.10437 0 0.319219 1 0 0.0989023 -0.326963