ITEM: TIMESTEP
20000
ITEM: NUMBER OF ATOMS
9495
ITEM: BOX BOUNDS mm mm mm
0.0000000000000000e+00 3.1748021039364001e+01
0.0000000000000000e+00 3.1748021039364001e+01
-7.4072398406925706e-04 3.1748021039364001e+01
ITEM: ATOMS id type x y z c_phase c_temp c_surf c_nbond c_visc f_3[1]
1 1 0.116341 1.10259 0.464337 4 4.35276e-08 2 0 0.0994487 -0.68194
2 1 0.974108 1.6685 0.77798 4 1.05046e-07 2 0 0.0994487 -0.517031
3 1 0.714648 0.793562 1.41295 4 5.95488e-08 2 0 0.0994487 -0.281794
4 1 0.00336375 1.60273 1.37437 4 5.19469e-08 2 0 0.0994487 -0.804051
5 1 0.729896 0.0633724 0.61602 4 3.88113e-08 3 0 0.0994487 -0.190374
6 1 1.71015 0.808983 1.0155 4 1.44749e-07 2 0 0.0994487 -0.332068
7 1 1.80059 1.47468 0.221075 4 1.71469e-07 2 0 0.0994487 -0.125828
8 1 1.82015 1.66049 1.76126 4 1.99717e-07 2 0 0.0994487 -0.139532
9 1 2.52093 0.749102 0.203812 4 2.39045e-07 2 0 0.0994487 -0.142939
10 1 2.59149 0.0538711 1.03726 4 2.22939e-07 2 0 0.0994487 -0.295004
11 1 2.64922 1.541 0.882848 4 3.88731e-07 2 0 0.0994487 0.23576
12 1 2.66829 0.815502 1.7457 4 2.95726e-07 2 0 0.0994487 -0.18704
13 1 3.43386 0.933692 0.956349 4 6.20176e-07 2 0 0.0994487 0.320246
14 1 3.49924 0.0925696 1.70571 4 4.08287e-07 2 0 0.0994487 0.178054
15 1 3.60652 1.70798 1.71994 4 9.25122e-07 2 0 0.0994487 0.0487963
16 1 4.10576 0.858321 0.325305 4 1.05091e-06 2 0 0.0994487 0.153147
17 1 4.96159 0.56786 1.17466 4 2.21953e-06 2 0 0.0994487 -0.037065
18 1 4.91949 1.59987 0.383508 4 2.98551e-06 2 0 0.0994487 -0.100246
19 1 4.3472 0.941527 1.62884 4 1.35333e-06 2 0 0.0994487 0.11074
20 1 3.47612 0.111428 0.171027 4 3.77218e-07 2 0 0.0994487 0.166216
21 1 5.64741 0.645627 0.325839 4 3.88746e-06 2 0 0.0994487 -0.0806035
22 1 5.88414 1.31048 0.938036 4 5.89003e-06 2 0 0.0994487 -0.199572
23 1 6.57478 1.39104 0.218369 4 1.007e-05 2 0 0.0994487 -0.0861315
24 1 5.78374 0.460658 1.69897 4 3.87511e-06 2 0 0.0994487 -0.084651
25 1 5.03122 1.72414 1.43602 4 3.31097e-06 2 0 0.0994487 0.0453746
26 1 6.7138 0.39031 0.865278 4 8.31234e-06 2 0 0.0994487 -0.0793801
27 1 6.69104 1.00962 1.69374 4 9.12068e-06 2 0 0.0994487 -0.107921
28 1 8.2679 0.408875 1.07337 4 2.38913e-05 2 0 0.0994487 -0.100164
29 1 7.36782 1.22285 0.954198 4 1.71141e-05 2 0 0.0994487 -0.302541
30 1 8.24709 1.39092 0.236779 4 3.22821e-05 2 0 0.0994487 -0.0460618
31 1 8.12868 1.27217 1.60653 4 2.77489e-05 2 0 0.0994487 -0.00811458
32 1 7.58247 0.647807 0.140287 4 1.60417e-05 2 0 0.0994487 -0.110934
33 1 8.85849 0.508506 0.273966 4 3.51748e-05 2 0 0.0994487 -0.0616447
34 1 9.55301 0.3386 0.888639 4 5.29187e-05 2 0 0.0994487 0.00506616
35 1 9.02586 1.30716 1.1133 4 5.32267e-05 2 0 0.0994487 -0.0606374
37 1 9.63995 1.37474 0.0900752 4 7.14535e-05 2 0 0.0994487 0.099293
38 1 11.2128 0.215893 0.632658 4 0.000142626 2 0 0.0994487 0.203506
39 1 10.3637 1.04743 0.823114 4 0.000109069 2 0 0.0994487 0.539892
40 1 10.523 0.196295 1.44539 4 9.18606e-05 2 0 0.0994487 0.0644302
41 1 11.2856 1.01846 1.41785 4 0.000204946 2 0 0.0994487 0.164711
42 1 10.5797 1.67706 1.72992 4 0.000163483 2 0 0.0994487 0.118166
43 1 10.2431 0.367861 0.0780499 4 6.90441e-05 2 0 0.0994487 0.149802
44 1 12.8757 0.211714 0.636805 4 0.000408633 2 0 0.0994487 0.0587896
45 1 12.0457 1.07408 0.506655 4 0.000346103 2 0 0.0994487 -0.0235483
46 1 12.1319 0.316439 1.29957 4 0.000280825 2 0 0.0994487 0.018839
47 1 12.7194 1.19864 1.3723 4 0.000539877 2 0 0.0994487 -0.0305237
48 1 14.3729 0.318493 0.764646 4 0.000928881 2 0 0.0994487 -0.046037
49 1 13.5924 1.113 0.843618 4 0.000858117 2 0 0.0994487 -0.263048
50 1 14.0399 1.55958 0.167469 4 0.00123753 2 0 0.0994487 -0.0898236
51 1 13.6075 0.359834 1.6352 4 0.000623909 2 0 0.0994487 -0.0562619
52 1 14.3777 1.14948 1.47647 4 0.0011729 2 0 0.0994487 -0.0178255
53 1 14.8761 1.55337 0.662943 4 0.0017355 2 0 0.0994487 0.389952
54 1 15.7061 0.770636 0.788259 4 0.00187304 2 0 0.0994487 0.366486
55 1 16.5532 1.54451 0.681338 4 0.00379294 2 0 0.0994487 0.000807181
56 1 15.1422 0.4642 1.64149 4 0.00126534 2 0 0.0994487 0.152078
57 1 16.547 0.712289 1.3421 4 0.00281152 2 0 0.0994487 0.0956277
58 1 15.6341 1.48544 1.3916 4 0.00240264 2 0 0.0994487 0.153633
59 1 15.1049 0.711806 0.0677822 4 0.00125729 2 0 0.0994487 0.169203
60 1 17.2544 0.732268 0.547589 4 0.00366301 2 0 0.0994487 0.0286305
61 1 17.9231 1.58109 0.757246 4 0.00627971 2 0 0.0994487 0.0415639
62 1 17.916 0.742935 1.42801 4 0.00475549 2 0 0.0994487 -0.224376
63 1 17.2202 1.74884 1.56274 4 0.00548773 2 0 0.0994487 -0.0984828
64 1 19.5372 0.0167772 0.662766 4 0.00519764 2 0 0.0994487 0.0436438
65 1 18.7918 0.725074 0.684829 4 0.00569772 2 0 0.0994487 -0.269945
66 1 19.5395 1.55488 0.841653 4 0.00915403 2 0 0.0994487 -0.341162
67 1 19.0276 0.158607 1.54508 4 0.00506151 2 0 0.0994487 -0.158664
68 1 19.5934 0.967491 1.68957 4 0.00716144 2 0 0.0994487 0.0083508
69 1 18.6564 1.51302 1.50035 4 0.00750206 2 0 0.0994487 -0.250308
70 1 21.0889 0.349843 1.06749 4 0.00733783 2 0 0.0994487 -0.196127
71 1 20.2493 0.776373 0.980057 4 0.00757842 2 0 0.0994487 -0.0497616
72 1 21.1062 1.65725 0.951506 4 0.0114442 2 0 0.0994487 0.692913
73 1 21.1874 0.765598 0.218806 4 0.0079901 2 0 0.0994487 -0.0445911
74 1 20.3457 1.51479 0.193617 4 0.00990879 2 0 0.0994487 -0.0806027
75 1 22.0087 0.262534 0.539755 4 0.00739759 2 0 0.0994487 0.0993591
76 1 22.7913 0.430275 1.40734 4 0.00795582 2 0 0.0994487 0.206599
77 1 22.1105 1.14763 1.32981 4 0.00970704 2 0 0.0994487 0.240022
78 1 21.9982 1.59955 0.538558 4 0.0118739 2 0 0.0994487 0.185171
79 1 22.9157 1.07463 0.445168 4 0.00965285 2 0 0.0994487 0.0520841
80 1 24.228 0.380179 1.45209 4 0.00776061 2 0 0.0994487 0.0576165
81 1 23.5672 0.357563 0.57369 4 0.00786574 2 0 0.0994487 0.0385706
82 1 24.4367 1.18687 0.754729 4 0.0100892 2 0 0.0994487 -0.0192968
83 1 23.4757 1.2499 1.4028 4 0.0107631 2 0 0.0994487 0.0298767
84 1 24.955 0.315686 0.551996 4 0.00700099 2 0 0.0994487 -0.017199
85 1 26.0085 0.383365 1.1715 4 0.0058593 2 0 0.0994487 -0.18586
86 1 25.169 1.12579 1.48087 4 0.00911278 2 0 0.0994487 0.0251047
87 1 25.9301 1.73476 1.35794 4 0.0102112 2 0 0.0994487 0.0345356
88 1 25.8917 0.929212 0.432102 4 0.00706298 2 0 0.0994487 -0.09542
89 1 27.5736 1.28032 0.38906 4 0.00504721 2 0 0.0994487 0.0454492
90 1 27.6142 0.50928 0.874321 4 0.00403713 2 0 0.0994487 0.175388
91 1 26.7559 1.02809 1.26347 4 0.00584466 2 0 0.0994487 -0.236887
92 1 28.3748 0.337482 1.39813 4 0.00296674 2 0 0.0994487 0.00984429
93 1 26.7925 0.240345 0.226621 4 0.00445618 2 0 0.0994487 0.0380747
94 1 28.6489 1.24263 0.742341 4 0.00362147 2 0 0.0994487 0.102406
95 1 29.3912 0.945639 1.56878 4 0.00245368 2 0 0.0994487 -0.0192008
96 1 28.5228 1.71921 1.49749 4 0.00436146 2 0 0.0994487 -0.042981
97 1 29.8133 0.173958 1.46124 4 0.00174134 2 0 0.0994487 0.133416
98 1 29.2734 0.3547 0.615275 4 0.00212618 2 0 0.0994487 -0.0816813
99 1 31.5874 0.266128 1.25663 4 0.000911995 3 0 0.0994487 0.830097
100 1 30.7016 0.49015 0.470738 4 0.00141157 2 0 0.0994487 0.354852
101 1 30.1009 1.19877 0.774133 4 0.00216393 2 0 0.0994487 0.21092
102 1 30.8649 0.971942 1.39386 4 0.00159787 2 0 0.0994487 0.703281
103 1 1.11081 2.43607 0.129285 4 1.3339e-07 2 0 0.0994487 -0.0373219
104 1 0.133403 2.3821 0.812241 4 8.08111e-08 2 0 0.0994487 -0.984517
105 1 1.28845 3.23764 0.949187 4 2.53981e-07 2 0 0.0994487 0.222097
106 1 1.13977 2.36077 1.59162 4 1.5733e-07 2 0 0.0994487 -0.222189
107 1 0.386685 3.02999 1.54944 4 1.22912e-07 2 0 0.0994487 -0.671256
108 1 0.332248 3.09582 0.131296 4 1.08391e-07 2 0 0.0994487 -0.59134
109 1 1.90972 2.41867 0.78376 4 2.92312e-07 2 0 0.0994487 0.0782112
110 1 2.65852 3.28029 0.860875 4 8.68891e-07 2 0 0.0994487 0.0668069
111 1 2.66931 2.22918 1.53373 4 5.22981e-07 2 0 0.0994487 0.0829564
112 1 3.2579 3.42668 1.64938 4 1.52224e-06 2 0 0.0994487 0.00397678
113 1 2.7261 2.38168 0.0557193 4 4.69321e-07 2 0 0.0994487 0.146601
114 1 3.38195 2.55413 0.779289 4 1.1423e-06 2 0 0.0994487 0.211586
115 1 4.00679 1.841 0.711184 4 1.50093e-06 2 0 0.0994487 -0.0361205
116 1 4.91383 2.57277 0.815661 4 4.47099e-06 2 0 0.0994487 -0.259345
117 1 4.20148 3.3175 0.749446 4 3.38108e-06 2 0 0.0994487 0.00621845
118 1 4.13245 2.64107 1.58328 4 2.29594e-06 2 0 0.0994487 0.0270797
119 1 5.65047 2.44269 0.132743 4 7.31072e-06 2 0 0.0994487 -0.189924
120 1 6.55776 2.18062 0.772597 4 1.36565e-05 2 0 0.0994487 -0.289366
121 1 5.64874 3.19593 0.952489 4 1.04437e-05 2 0 0.0994487 -0.754625
122 1 5.861 2.19426 1.49672 4 7.76099e-06 2 0 0.0994487 0.012638
123 1 6.52037 3.06691 1.5557 4 1.87223e-05 2 0 0.0994487 0.0443601
124 1 6.65033 2.92778 0.134227 4 1.76421e-05 2 0 0.0994487 0.0288887
125 1 7.45405 2.22586 0.139832 4 2.60005e-05 2 0 0.0994487 -0.0535
126 1 8.08209 2.20208 0.930382 4 4.21816e-05 2 0 0.0994487 -0.302054
127 1 7.40132 3.06835 0.934051 4 3.77632e-05 2 0 0.0994487 -0.0454933
128 1 7.29928 2.06035 1.56856 4 2.18125e-05 2 0 0.0994487 -0.0607305
129 1 8.18545 3.00183 1.65211 4 6.26645e-05 2 0 0.0994487 -0.0454134
130 1 8.26934 2.9712 0.0392146 4 6.51574e-05 2 0 0.0994487 -0.150615
131 1 8.90393 2.08699 0.252387 4 6.57938e-05 2 0 0.0994487 0.002436
132 1 9.77243 2.0246 1.10996 4 0.000116846 2 0 0.0994487 0.173474
133 1 8.92671 2.97262 0.928693 4 0.00010701 2 0 0.0994487 -0.156735
134 1 9.03062 2.22066 1.70398 4 7.80893e-05 2 0 0.0994487 -0.0819657
135 1 9.56096 2.90576 0.21312 4 0.000143755 2 0 0.0994487 0.173123
136 1 10.2834 2.1137 0.214297 4 0.000144604 2 0 0.0994487 0.337741
137 1 11.1583 1.82604 0.771092 4 0.000262807 2 0 0.0994487 0.260094
138 1 10.6214 2.80819 0.921535 4 0.000298146 2 0 0.0994487 0.541927
139 1 11.4444 2.82964 1.57484 4 0.000516085 2 0 0.0994487 0.0952032
140 1 12.6737 1.94118 0.593851 4 0.000752537 2 0 0.0994487 -0.28393
141 1 11.928 2.64099 0.742299 4 0.000643603 2 0 0.0994487 -0.0386693
142 1 11.9239 1.9206 1.46509 4 0.000450494 2 0 0.0994487 0.0946573
143 1 12.8449 3.01766 1.68597 4 0.00125471 2 0 0.0994487 0.0363589
144 1 13.1791 3.03035 0.848852 4 0.00157935 2 0 0.0994487 -0.440848
145 1 13.3784 1.9912 1.48064 4 0.00105852 2 0 0.0994487 -0.0150681
146 1 14.0206 2.44438 0.927124 4 0.00183351 2 0 0.0994487 -0.13309
147 1 14.0279 3.38359 1.55716 4 0.00279225 2 0 0.0994487 0.0255767
148 1 14.6961 3.43698 0.884932 4 0.00402203 2 0 0.0994487 -0.332945
149 1 14.7823 2.29758 1.44821 4 0.00239247 2 0 0.0994487 0.0469289
150 1 14.8418 2.51505 0.136557 4 0.00265798 2 0 0.0994487 0.173007
151 1 14.1591 3.2262 0.0325348 4 0.00277402 2 0 0.0994487 -0.246104
152 1 13.4137 2.29398 0.0590902 4 0.00127 2 0 0.0994487 -0.28096
153 1 15.6993 2.44373 0.692668 4 0.00389269 2 0 0.0994487 0.364396
154 1 16.3029 3.20095 0.662084 4 0.00706106 2 0 0.0994487 0.32859
155 1 16.308 2.47951 1.52575 4 0.00532562 2 0 0.0994487 -0.100646
156 1 15.3694 3.25723 1.50191 4 0.00504308 2 0 0.0994487 -0.00766757
157 1 15.5706 3.25854 0.0192499 4 0.00480769 2 0 0.0994487 0.290238
158 1 17.0646 2.35032 0.682778 4 0.0066345 2 0 0.0994487 0.0234821
159 1 17.944 2.92608 0.699539 4 0.0121735 2 0 0.0994487 -0.231191
160 1 18.0193 2.43917 1.58112 4 0.00973539 2 0 0.0994487 -0.149135
161 1 17.0918 3.1162 1.49491 4 0.00982734 2 0 0.0994487 -0.143434
162 1 18.8908 2.35742 1.01358 4 0.0117008 2 0 0.0994487 -0.516832
163 1 19.7027 3.2427 1.27782 4 0.0204855 2 0 0.0994487 0.394879
164 1 18.884 2.99607 0.196019 4 0.0156223 2 0 0.0994487 -0.17181
165 1 19.587 2.34239 0.101452 4 0.0130395 2 0 0.0994487 -0.132371
166 1 20.3251 1.78863 1.72442 4 0.01073 2 0 0.0994487 0.0449526
167 1 21.1565 2.41663 0.458355 4 0.0168517 2 0 0.0994487 0.196187
168 1 20.1948 2.46882 1.11433 4 0.0149999 2 0 0.0994487 0.286739
169 1 21.31 3.29463 1.39314 4 0.0284606 2 0 0.0994487 0.0777283
170 1 20.4222 2.99313 0.334941 4 0.0200535 2 0 0.0994487 0.18629
171 1 22.8719 2.07007 1.50872 4 0.0162413 2 0 0.0994487 -0.0221239
172 1 22.9717 2.60199 0.735523 4 0.0228294 2 0 0.0994487 0.133325
173 1 22.0961 2.49917 1.23787 4 0.0201472 2 0 0.0994487 0.186437
174 1 21.9898 3.20043 0.598797 4 0.0301005 2 0 0.0994487 -0.0757507
175 1 22.6771 3.40124 0.07601 4 0.0344175 2 0 0.0994487 0.0760733
176 1 23.7438 1.80844 0.624025 4 0.0137933 2 0 0.0994487 -0.0873596
177 1 24.4289 1.98763 1.61102 4 0.014714 2 0 0.0994487 -0.0641759
178 1 24.342 2.68296 0.775192 4 0.0213314 2 0 0.0994487 -0.341093
179 1 23.6887 2.90303 1.53628 4 0.0254148 2 0 0.0994487 -0.110505
180 1 24.4728 3.51078 1.55704 4 0.033246 2 0 0.0994487 -0.118305
181 1 24.9562 2.84566 0.0146836 4 0.0202512 2 0 0.0994487 -0.0864596
182 1 26.5483 1.79415 0.511367 4 0.00866652 2 0 0.0994487 -0.00560041
183 1 25.1322 1.85613 0.509414 4 0.0126658 2 0 0.0994487 -0.0215293
184 1 25.7918 2.61203 0.707489 4 0.0165646 2 0 0.0994487 0.228201
185 1 25.1579 2.55548 1.52547 4 0.0180795 2 0 0.0994487 0.0576665
186 1 25.7213 3.49812 1.51211 4 0.0270806 2 0 0.0994487 0.123857
187 1 26.5364 2.56002 1.53049 4 0.0129751 2 0 0.0994487 0.0579473
188 1 26.1686 3.50068 0.599043 4 0.0242162 2 0 0.0994487 0.168844
189 1 27.5039 1.98546 1.23792 4 0.00693326 2 0 0.0994487 -0.186419
190 1 28.2489 2.09022 0.343734 4 0.00559486 2 0 0.0994487 -0.0177249
191 1 27.0867 2.6924 0.645359 4 0.0114726 2 0 0.0994487 -0.105601
192 1 27.1998 3.35397 1.41682 4 0.0153819 2 0 0.0994487 -0.0983289
193 1 28.2537 2.75799 1.20639 4 0.00756884 2 0 0.0994487 -0.418307
194 1 27.982 3.21993 0.326384 4 0.0101793 2 0 0.0994487 -0.125257
195 1 29.9568 1.80906 1.70764 4 0.00277789 2 0 0.0994487 0.183201
196 1 29.4477 2.04702 0.879698 4 0.00368582 2 0 0.0994487 -0.00708373
197 1 29.1956 2.6589 0.290703 4 0.0049854 2 0 0.0994487 -0.0578285
198 1 29.2495 3.2651 1.17365 4 0.00643857 2 0 0.0994487 0.118634
199 1 30.9114 1.98502 0.924207 4 0.00241348 2 0 0.0994487 0.967251
200 1 30.1815 2.71094 1.00186 4 0.00371136 2 0 0.0994487 0.675111
201 1 31.0247 3.35309 0.97101 4 0.00380407 2 0 0.0994487 0.998409
202 1 30.9865 2.69483 1.72648 4 0.002989 2 0 0.0994487 0.578502
203 1 30.1092 3.25953 0.132205 4 0.0043332 2 0 0.0994487 -0.0443659
204 1 30.4116 1.90909 0.0255368 4 0.00246031 2 0 0.0994487 0.106045
205 1 31.1434 2.66402 0.0761253 4 0.00272421 2 0 0.0994487 0.70882
206 1 0.293831 3.78503 0.918557 4 1.58796e-07 2 0 0.0994487 -0.999347
207 1 0.143046 4.59443 0.482118 4 1.87955e-07 2 0 0.0994487 -0.784494
208 1 1.14036 4.67093 0.986638 4 4.16555e-07 2 0 0.0994487 -0.516749
209 1 0.0884667 5.26681 1.27761 4 2.32647e-07 2 0 0.0994487 -0.887458
210 1 1.04069 3.86421 0.0595682 4 2.41031e-07 2 0 0.0994487 0.0148884
211 1 1.84117 4.04604 0.847105 4 6.04489e-07 2 0 0.0994487 0.00827262
212 1 2.54049 4.85585 1.13748 4 1.52582e-06 2 0 0.0994487 -0.333843
213 1 2.64953 4.14475 0.20674 4 1.26328e-06 2 0 0.0994487 -0.0285711
214 1 1.89758 4.96895 0.278386 4 9.04704e-07 2 0 0.0994487 -0.153433
215 1 3.40771 4.86189 0.161635 4 3.16971e-06 2 0 0.0994487 -0.0163866
216 1 3.494 4.07675 0.885909 4 2.57223e-06 2 0 0.0994487 0.026899
217 1 4.91235 4.00001 1.18344 4 8.19808e-06 2 0 0.0994487 0.011521
218 1 4.04658 4.88002 1.14639 4 5.61903e-06 2 0 0.0994487 0.264494
219 1 4.26027 4.18509 0.149001 4 4.94099e-06 2 0 0.0994487 0.0377396
220 1 5.00947 4.74001 0.341082 4 1.16611e-05 2 0 0.0994487 0.0765426
221 1 5.77735 3.9378 0.198707 4 1.40466e-05 2 0 0.0994487 0.0260173
222 1 6.48883 3.76611 0.772067 4 2.46987e-05 2 0 0.0994487 0.204559
223 1 5.68025 4.73638 1.02487 4 2.09686e-05 2 0 0.0994487 -0.621668
224 1 6.66321 4.5115 1.6428 4 3.79529e-05 2 0 0.0994487 0.158936
225 1 6.68072 5.1315 0.885352 4 5.32241e-05 2 0 0.0994487 0.20687
226 1 8.1982 3.892 0.700757 4 0.000101012 2 0 0.0994487 -0.369894
227 1 7.40842 4.46072 0.5468 4 7.05014e-05 2 0 0.0994487 -0.0252086
228 1 7.39886 3.87029 1.49684 4 5.23198e-05 2 0 0.0994487 0.102581
229 1 8.20004 4.61106 1.48677 4 0.000134655 2 0 0.0994487 -0.0118334
230 1 9.8976 3.57792 0.885667 4 0.000271848 2 0 0.0994487 0.592833
231 1 9.07913 4.56551 0.821335 4 0.000245655 2 0 0.0994487 -0.658527
232 1 9.86266 4.50302 0.126324 4 0.000353197 2 0 0.0994487 0.0958678
233 1 9.07829 3.76256 1.49819 4 0.000172885 2 0 0.0994487 -0.0708824
234 1 9.86881 4.3462 1.65532 4 0.000378683 2 0 0.0994487 -0.0856596
235 1 8.98541 3.86821 0.0631775 4 0.000160153 2 0 0.0994487 -0.138751
236 1 11.408 3.64493 0.778297 4 0.0007434 2 0 0.0994487 0.202072
237 1 10.5891 4.66652 0.906264 4 0.000684017 2 0 0.0994487 0.0450997
238 1 11.3867 4.69403 0.230734 4 0.00113481 2 0 0.0994487 -0.0498867
239 1 10.7059 3.56689 1.58785 4 0.00046215 2 0 0.0994487 -0.044846
240 1 11.3652 4.3716 1.70545 4 0.000983286 2 0 0.0994487 -0.0798247
241 1 11.3894 5.27213 0.983682 4 0.00144244 2 0 0.0994487 -0.674466
242 1 10.5826 3.84888 0.176129 4 0.000443836 2 0 0.0994487 0.210469
243 1 12.5168 3.57716 0.814749 4 0.00140932 2 0 0.0994487 -0.0105719
244 1 12.1916 4.55033 1.00021 4 0.00176078 2 0 0.0994487 0.105069
245 1 12.7362 4.99738 1.68903 4 0.00265908 2 0 0.0994487 0.191332
246 1 13.2258 4.67863 0.80017 4 0.00336468 2 0 0.0994487 -0.00468859
247 1 12.6435 4.61885 0.0632315 4 0.00237379 2 0 0.0994487 -0.0335783
248 1 13.9891 4.12825 0.69648 4 0.00402807 2 0 0.0994487 -0.430175
249 1 13.4832 4.21781 1.59317 4 0.00302906 2 0 0.0994487 0.08202
250 1 14.2046 5.11838 1.52001 4 0.00662093 2 0 0.0994487 -0.0289885
251 1 14.9402 5.01141 0.811699 4 0.00904118 2 0 0.0994487 -0.0526817
252 1 14.9642 4.4167 1.59432 4 0.00711168 2 0 0.0994487 -0.0635607
253 1 14.1405 4.90647 0.0597868 4 0.00582068 2 0 0.0994487 -0.085693
254 1 14.961 4.19423 0.096508 4 0.00610547 2 0 0.0994487 0.0322738
255 1 15.6685 4.06642 0.926277 4 0.00821648 2 0 0.0994487 0.872608
256 1 15.8798 4.77595 0.186426 4 0.0119601 2 0 0.0994487 0.165391
257 1 16.5936 4.58036 0.900182 4 0.0154899 2 0 0.0994487 -0.0789772
258 1 16.3184 3.95875 1.6903 4 0.0104681 2 0 0.0994487 -0.0433966
259 1 15.8111 5.05317 1.64084 4 0.0131353 2 0 0.0994487 0.0995001
260 1 17.2689 3.83372 0.811237 4 0.0147304 2 0 0.0994487 -0.345385
261 1 18.0864 4.48855 1.09806 4 0.025004 2 0 0.0994487 -0.612162
262 1 17.9525 3.63794 1.65602 4 0.0166654 2 0 0.0994487 -0.192806
263 1 17.4569 4.57727 0.0147963 4 0.0200049 2 0 0.0994487 -0.0974106
264 1 18.1348 3.8547 0.0583493 4 0.0185914 2 0 0.0994487 -0.120518
265 1 18.8779 3.70667 0.95022 4 0.0216045 2 0 0.0994487 0.0692228
266 1 18.8235 4.60949 0.361826 4 0.0310678 2 0 0.0994487 0.115608
267 1 19.6906 4.67872 1.0803 4 0.0440377 2 0 0.0994487 0.931519
268 1 18.7859 5.27693 1.20102 4 0.0447675 2 0 0.0994487 0.599077
269 1 19.5987 3.76722 0.227421 4 0.0252829 2 0 0.0994487 0.164269
270 1 20.4384 3.82188 1.23329 4 0.0331946 2 0 0.0994487 0.325952
271 1 20.8846 4.71868 1.39403 4 0.0631575 2 0 0.0994487 0.149057
272 1 21.5775 4.95128 0.810455 4 0.0851585 2 0 0.0994487 -0.00375484
273 1 21.0824 3.93136 0.512408 4 0.040104 2 0 0.0994487 0.0883023
274 1 20.1339 4.78559 0.352846 4 0.0520494 2 0 0.0994487 0.145586
275 1 22.8205 3.63186 1.42135 4 0.0401557 2 0 0.0994487 -0.0184005
276 1 21.9406 4.13318 1.31068 4 0.0523502 2 0 0.0994487 0.027203
277 1 22.4705 5.17735 1.27286 4 0.104343 2 0 0.0994487 0.020704
278 1 22.6119 4.34705 0.510028 4 0.0612067 2 0 0.0994487 -0.0221073
279 1 23.5735 3.63903 0.782677 4 0.0404908 2 0 0.0994487 0.185557
280 1 24.336 4.32055 0.625018 4 0.056307 2 0 0.0994487 -0.150096
281 1 23.4679 4.54946 1.33355 4 0.0699067 2 0 0.0994487 -0.0790574
282 1 24.8518 5.25716 0.566763 4 0.0837381 2 0 0.0994487 0.0409043
283 1 23.5518 5.06386 0.533607 4 0.093272 2 0 0.0994487 -0.096891
284 1 25.0086 4.50055 1.62342 4 0.0544121 2 0 0.0994487 -0.0421962
285 1 25.0629 3.68037 0.802132 4 0.0341861 2 0 0.0994487 -0.187919
286 1 24.363 5.28843 1.43377 4 0.0950216 2 0 0.0994487 -0.154713
287 1 25.6904 5.1389 1.34266 4 0.0649734 2 0 0.0994487 0.210098
288 1 26.3575 4.29031 1.37159 4 0.0344995 2 0 0.0994487 0.149481
289 1 26.5026 4.97257 0.640732 4 0.0453528 2 0 0.0994487 0.0989655
290 1 25.5284 4.40089 0.388179 4 0.0452147 2 0 0.0994487 0.0559467
291 1 27.3302 4.86961 1.40568 4 0.031971 2 0 0.0994487 0.00660892
292 1 27.9624 3.97641 1.10408 4 0.0154844 2 0 0.0994487 -0.309506
293 1 28.2771 4.73475 0.706344 4 0.0200468 2 0 0.0994487 -0.0812478
294 1 27.0674 4.04323 0.570038 4 0.0233162 2 0 0.0994487 0.0120216
295 1 28.9321 3.77016 0.487204 4 0.00913934 2 0 0.0994487 -0.00703303
296 1 29.0873 4.52317 1.33085 4 0.0125438 2 0 0.0994487 0.0574852
297 1 29.9979 4.07209 1.02303 4 0.00678385 2 0 0.0994487 -0.275232
298 1 31.0296 3.97382 0.373364 4 0.00468458 2 0 0.0994487 0.657583
299 1 30.2046 4.67765 0.491317 4 0.00832151 2 0 0.0994487 0.0099581
300 1 30.9783 4.59929 1.41131 4 0.00614424 2 0 0.0994487 0.679914
301 1 0.908283 5.53205 0.461647 4 4.86339e-07 2 0 0.0994487 -0.463784
302 1 1.53161 5.51184 1.37971 4 7.79924e-07 2 0 0.0994487 -0.117386
303 1 0.793684 6.22023 1.2768 4 5.66812e-07 2 0 0.0994487 -0.703381
304 1 0.257003 6.91734 1.50738 4 4.69173e-07 2 0 0.0994487 -0.772633
305 1 0.969942 6.9454 0.573423 4 8.36993e-07 2 0 0.0994487 -0.473532
306 1 1.7053 7.02884 1.23811 4 1.47859e-06 2 0 0.0994487 0.0665194
307 1 1.89588 6.19966 0.519025 4 1.40204e-06 2 0 0.0994487 -0.156399
308 1 3.10475 5.61709 1.30057 4 3.21495e-06 2 0 0.0994487 0.0402546
309 1 2.26359 6.15348 1.40977 4 1.77076e-06 2 0 0.0994487 0.0408571
310 1 3.25442 6.96226 1.12748 4 6.29876e-06 2 0 0.0994487 -0.0541208
311 1 2.68177 5.61289 0.273587 4 2.24932e-06 2 0 0.0994487 -0.0596843
312 1 3.39503 6.28191 0.500536 4 5.76527e-06 2 0 0.0994487 -0.121441
313 1 4.18979 5.46246 0.325783 4 8.05344e-06 2 0 0.0994487 0.0310201
314 1 4.93434 5.42873 1.31778 4 1.61572e-05 2 0 0.0994487 -0.235096
315 1 4.13622 6.09659 1.22779 4 1.0486e-05 2 0 0.0994487 -0.0893859
316 1 4.82567 6.23357 0.333842 4 1.87894e-05 2 0 0.0994487 -0.034573
317 1 4.77312 6.79931 1.15967 4 2.35736e-05 2 0 0.0994487 -0.305926
318 1 4.00267 7.02511 0.221759 4 1.20798e-05 2 0 0.0994487 -0.0853418
319 1 5.78575 5.42185 0.301847 4 2.87648e-05 2 0 0.0994487 0.0125049
320 1 5.6935 6.24342 0.9632 4 3.91647e-05 2 0 0.0994487 -0.967784
321 1 6.4578 5.98425 1.59671 4 6.15336e-05 2 0 0.0994487 0.140917
322 1 6.43234 6.86927 1.00965 4 8.80328e-05 2 0 0.0994487 0.851685
323 1 6.37773 6.04115 0.154639 4 5.2587e-05 2 0 0.0994487 0.111115
324 1 5.54993 7.05206 0.147147 4 4.18358e-05 2 0 0.0994487 0.0363889
325 1 8.21355 5.31419 0.694273 4 0.000184979 2 0 0.0994487 -0.0895833
326 1 7.32761 6.15925 0.754293 4 0.00013051 2 0 0.0994487 0.22574
327 1 7.39163 5.41839 1.49138 4 0.000100999 2 0 0.0994487 0.136757
328 1 8.23884 6.11028 1.49159 4 0.000258854 2 0 0.0994487 0.0187418
329 1 8.01352 6.85364 0.728993 4 0.00029369 2 0 0.0994487 0.0691949
330 1 7.28191 6.86379 1.59601 4 0.000175138 2 1 0.0994487 0.126053
331 1 7.33029 5.3575 0.0461812 4 8.40805e-05 2 0 0.0994487 0.0813589
332 1 9.76796 5.3194 0.792562 4 0.000513755 2 0 0.0994487 0.328458
333 1 8.88016 6.18865 0.736908 4 0.000421075 2 0 0.0994487 -0.235532
334 1 9.05434 5.3271 1.5973 4 0.000330343 2 0 0.0994487 -0.0628279
335 1 9.73844 6.19052 1.46731 4 0.000756921 2 0 0.0994487 -0.106426
336 1 9.09351 6.95013 1.463 4 0.000692209 2 2 0.0994487 -0.0757702
337 1 9.76329 6.23201 0.0941385 4 0.000712101 2 0 0.0994487 -0.0359486
338 1 8.99733 5.46479 0.012702 4 0.000312309 2 0 0.0994487 -0.134752
339 1 10.5831 6.02196 0.964384 4 0.00117853 2 0 0.0994487 -0.356436
340 1 11.3128 6.37134 0.0776634 4 0.00176738 2 0 0.0994487 0.100343
341 1 10.5187 6.94145 0.15452 4 0.00144697 2 0 0.0994487 -0.0735348
342 1 10.4686 6.92564 1.49614 4 0.00160901 2 1 0.0994487 -0.0634995
343 1 11.9994 5.6274 0.183157 4 0.00216975 2 0 0.0994487 -0.0105291
344 1 12.6757 5.81849 0.861776 4 0.00369193 2 0 0.0994487 0.0817541
345 1 11.7774 6.20735 1.05291 4 0.0024831 2 0 0.0994487 0.292199
346 1 13.3219 5.86668 1.55471 4 0.00526372 2 0 0.0994487 0.208169
347 1 13.3506 6.58297 0.813679 4 0.00753116 2 0 0.0994487 -0.292107
348 1 13.3212 5.53867 0.0424813 4 0.00476436 2 0 0.0994487 -0.142909
349 1 14.0617 5.71565 0.77266 4 0.00781694 2 0 0.0994487 -0.372644
350 1 14.3278 6.65176 1.40646 4 0.0136476 2 1 0.0994487 -0.103137
351 1 14.1303 6.38483 0.0380077 4 0.00952666 2 0 0.0994487 -0.082609
352 1 15.0282 5.64393 0.034369 4 0.0114706 2 0 0.0994487 0.0573652
353 1 15.8305 5.73813 0.95832 4 0.018432 2 0 0.0994487 0.625786
354 1 15.0472 6.45091 0.806774 4 0.0172864 2 0 0.0994487 -0.176043
355 1 16.491 6.45257 1.1401 4 0.0340628 2 0 0.0994487 0.208318
356 1 15.1058 5.87594 1.69804 4 0.0146574 2 0 0.0994487 -0.0976556
357 1 16.62 5.41933 0.276819 4 0.0213942 2 0 0.0994487 0.0799214
358 1 15.6753 6.3382 0.0390223 4 0.0202391 2 0 0.0994487 0.0398529
359 1 17.8271 5.30128 0.541411 4 0.0316176 2 0 0.0994487 0.150325
360 1 17.113 5.42499 1.24767 4 0.0273739 2 0 0.0994487 -0.286575
361 1 17.0619 6.27419 0.411469 4 0.0373811 2 0 0.0994487 0.138949
362 1 17.6649 6.24649 1.38542 4 0.0485632 2 0 0.0994487 -0.254271
363 1 18.2745 7.0517 1.13153 4 0.0826271 2 1 0.0994487 0.631075
364 1 18.3714 6.23173 0.609762 4 0.0608567 2 0 0.0994487 0.156178
365 1 19.429 5.75829 0.62055 4 0.0711399 2 0 0.0994487 0.057184
366 1 19.3279 6.55755 1.35081 4 0.101273 2 0 0.0994487 0.274665
367 1 19.9942 6.75229 0.610261 4 0.145126 2 0 0.0994487 -0.011945
368 1 20.7494 5.77593 0.653722 4 0.11297 2 0 0.0994487 -0.104069
369 1 20.1931 5.61076 1.39557 4 0.0860575 2 0 0.0994487 0.312021
370 1 20.7787 6.6124 1.30355 4 0.185013 2 0 0.0994487 -0.344829
371 1 21.6592 6.66248 0.666524 4 0.203416 2 0 0.0994487 -0.0434871
372 1 21.6631 5.87866 1.38528 4 0.150769 2 0 0.0994487 0.0420504
373 1 21.6904 5.73259 0.0517844 4 0.125357 2 0 0.0994487 -0.00150231
374 1 22.6732 5.8279 0.674154 4 0.146201 2 0 0.0994487 0.00265299
375 1 22.6319 6.69333 1.20734 4 0.234213 2 0 0.0994487 -0.201683
376 1 23.3484 6.78052 0.267835 4 0.210668 2 0 0.0994487 -0.125381
377 1 23.4822 5.88496 1.30013 4 0.151526 2 0 0.0994487 -0.176395
378 1 24.3197 6.56281 1.15825 4 0.174757 2 0 0.0994487 0.173528
379 1 24.1457 6.00685 0.427617 4 0.138592 2 0 0.0994487 0.00243509
380 1 25.6831 5.86213 0.700952 4 0.0898937 2 0 0.0994487 0.163894
381 1 25.1124 6.04132 1.67733 4 0.113924 2 0 0.0994487 0.00366631
382 1 25.1593 6.74159 0.495153 4 0.145514 2 0 0.0994487 0.0903878
383 1 25.8251 6.59457 1.40775 4 0.114282 2 0 0.0994487 0.0880982
384 1 26.6903 5.84511 1.4763 4 0.0643607 2 0 0.0994487 0.09176
385 1 27.4966 5.54334 0.722172 4 0.0395341 2 0 0.0994487 -0.251574
386 1 26.7485 6.36567 0.651888 4 0.0761016 2 0 0.0994487 0.0387486
387 1 27.7011 6.47315 1.36539 4 0.0535825 2 0 0.0994487 0.131492
388 1 28.3648 5.52203 1.4872 4 0.0270648 2 0 0.0994487 0.0456328
389 1 27.7097 7.0074 0.530173 4 0.0623263 2 0 0.0994487 0.0321222
390 1 29.3889 5.30889 0.818726 4 0.0160496 2 0 0.0994487 0.316727
391 1 29.4379 6.18214 1.32212 4 0.0208103 2 0 0.0994487 -0.00338125
392 1 29.5784 6.89773 0.506505 4 0.0244322 2 0 0.0994487 0.0925864
393 1 28.4685 6.20589 0.638647 4 0.0324605 2 0 0.0994487 -0.270082
394 1 29.3762 6.15398 0.0801838 4 0.0207341 2 0 0.0994487 0.0969263
395 1 28.4822 5.38976 0.0592959 4 0.0228761 2 0 0.0994487 -0.105003
396 1 30.9636 5.36838 0.595026 4 0.00897682 2 0 0.0994487 0.667849
397 1 30.2159 5.45949 1.46813 4 0.0114756 2 0 0.0994487 0.0540213
398 1 30.3958 6.18258 0.649752 4 0.0142379 2 0 0.0994487 0.329001
399 1 31.2189 6.15516 1.38439 4 0.0105604 2 0 0.0994487 0.587258
400 1 31.1994 6.95407 0.60342 4 0.0136337 2 0 0.0994487 0.812251
401 1 31.7235 5.99622 0.446564 4 0.00885508 2 0 0.0994487 0.879729
402 1 0.261851 7.63199 0.661866 4 6.19387e-07 2 0 0.0994487 -0.876373
403 1 0.831025 8.46344 0.61936 4 1.08236e-06 2 0 0.0994487 -0.577626
404 1 1.11211 7.86396 1.49711 4 1.09819e-06 2 0 0.0994487 -0.154428
405 1 0.356955 8.5626 1.47035 4 7.72828e-07 2 0 0.0994487 -0.764984
406 1 1.59266 7.76478 0.37187 4 1.6939e-06 2 0 0.0994487 -0.089787
407 1 1.72382 8.61735 1.46471 4 2.23636e-06 2 0 0.0994487 0.039598
408 1 2.48799 7.14986 0.476331 4 3.35341e-06 2 0 0.0994487 -0.083694
409 1 2.19177 8.6335 0.399707 4 3.59827e-06 2 0 0.0994487 -0.137266
410 1 2.39416 7.81099 1.27726 4 3.52832e-06 2 0 0.0994487 0.086994
411 1 3.01349 8.51445 0.935533 4 7.49709e-06 2 0 0.0994487 -0.539306
412 1 3.24418 7.77117 0.327041 4 7.74268e-06 2 0 0.0994487 -0.196203
413 1 3.81243 8.45898 0.0822892 4 1.3495e-05 2 0 0.0994487 -0.0457768
414 1 3.97971 7.67009 1.24863 4 1.44178e-05 2 0 0.0994487 -0.0554862
415 1 4.70459 8.25653 0.921772 4 3.06188e-05 2 0 0.0994487 0.295355
416 1 4.67023 7.63706 0.247803 4 2.43936e-05 2 0 0.0994487 0.0376948
417 1 3.81127 8.34851 1.76162 4 1.34477e-05 2 0 0.0994487 -0.0574346
418 1 5.86955 8.34822 0.169905 4 7.51073e-05 2 0 0.0994487 0.113108
419 1 5.48363 7.59071 1.03232 4 5.27999e-05 2 0 0.0994487 -0.467651
420 1 6.49365 7.53799 0.169175 4 0.000103233 2 0 0.0994487 0.187627
421 1 6.39674 8.23976 1.04384 4 0.000134795 2 0 0.0994487 0.338178
422 1 7.28583 7.76918 0.746313 4 0.000241782 2 1 0.0994487 0.00995184
423 1 8.2859 8.31376 0.868772 4 0.000607028 2 2 0.0994487 0.278802
424 1 7.27857 8.18368 1.7015 4 0.000314328 2 2 0.0994487 -0.174654
425 1 8.05208 7.48784 1.5604 4 0.000407023 2 1 0.0994487 0.185101
426 1 7.99895 7.60312 0.0282118 4 0.000325528 2 0 0.0994487 0.0674158
427 1 9.84313 7.22199 0.72344 4 0.00119563 2 1 0.0994487 -0.346916
428 1 8.91207 7.61626 0.661731 4 0.000725896 2 1 0.0994487 0.158707
429 1 9.73234 8.61964 0.693151 4 0.00173625 2 3 0.0994487 -0.257244
430 1 9.09265 8.69904 1.44495 4 0.0013348 2 9 0.0994487 -0.394757
431 1 9.64026 7.88932 1.60055 4 0.00154446 2 8 0.0994487 -0.340349
432 1 11.3161 7.14287 0.810636 4 0.0026508 2 1 0.0994487 0.448533
433 1 10.5731 7.9454 0.844311 4 0.00234188 2 3 0.0994487 -0.198449
434 1 10.5877 8.70196 1.4255 4 0.00310677 1 8 0.0994487 -0.146711
435 1 11.4057 7.80503 1.60301 4 0.0039554 2 7 0.0994487 0.228318
436 1 11.227 8.11851 0.0422735 4 0.00296961 2 0 0.0994487 0.174332
437 1 12.7061 7.28322 0.565784 4 0.00674349 2 0 0.0994487 -0.0531364
438 1 12.178 8.23518 0.590765 4 0.00631144 2 2 0.0994487 0.163959
439 1 12.0637 7.15788 1.37768 4 0.00447283 2 3 0.0994487 0.14569
440 1 12.0887 8.68064 1.49044 4 0.00762342 1 8 0.0994487 0.0823327
441 1 12.8601 7.99585 1.47598 4 0.010312 2 6 0.0994487 -0.216868
442 1 14.3373 7.3542 0.580954 4 0.0163322 2 0 0.0994487 0.0648994
443 1 13.6169 8.09282 0.464536 4 0.0137673 2 2 0.0994487 0.0237582