ITEM: TIMESTEP
51500
ITEM: NUMBER OF ATOMS
9495
ITEM: BOX BOUNDS mm mm mm
0.0000000000000000e+00 3.1748021039364001e+01
0.0000000000000000e+00 3.1748021039364001e+01
-7.4072398406925706e-04 3.1748021039364001e+01
ITEM: ATOMS id type x y z c_phase c_temp c_surf c_nbond c_visc f_3[1]
1 1 0.116341 1.10259 0.464337 4 0.00167175 2 0 0.0994487 -0.681941
2 1 0.974108 1.6685 0.77798 4 0.00211286 2 0 0.0994487 -0.517033
3 1 0.714648 0.793562 1.41295 4 0.00179509 2 0 0.0994487 -0.281794
4 1 0.00336375 1.60273 1.37437 4 0.00176933 2 0 0.0994487 -0.804051
5 1 0.729896 0.0633724 0.61602 4 0.00158134 3 0 0.0994487 -0.190374
6 1 1.71015 0.808983 1.0155 4 0.00233627 2 0 0.0994487 -0.33207
7 1 1.80059 1.47468 0.221075 4 0.00246366 2 0 0.0994487 -0.12583
8 1 1.82015 1.66049 1.76126 4 0.00257662 2 0 0.0994487 -0.139534
9 1 2.52093 0.749102 0.203812 4 0.00279759 2 0 0.0994487 -0.14294
10 1 2.59149 0.0538711 1.03726 4 0.00279507 2 0 0.0994487 -0.295005
11 1 2.64922 1.541 0.882848 4 0.0031869 2 0 0.0994487 0.235749
12 1 2.66829 0.815502 1.7457 4 0.00300247 2 0 0.0994487 -0.187041
13 1 3.43386 0.933692 0.956349 4 0.00384038 2 0 0.0994487 0.320236
14 1 3.49924 0.0925696 1.70571 4 0.00342575 2 0 0.0994487 0.178052
15 1 3.60652 1.70798 1.71994 4 0.00446959 2 0 0.0994487 0.0487935
16 1 4.10576 0.858321 0.325305 4 0.00478532 2 0 0.0994487 0.153144
17 1 4.96159 0.56786 1.17466 4 0.00676816 2 0 0.0994487 -0.0370699
18 1 4.91949 1.59987 0.383508 4 0.00738088 2 0 0.0994487 -0.10025
19 1 4.3472 0.941527 1.62884 4 0.0053645 2 0 0.0994487 0.110736
20 1 3.47612 0.111428 0.171027 4 0.00333607 2 0 0.0994487 0.166215
21 1 5.64741 0.645627 0.325839 4 0.00871092 2 0 0.0994487 -0.0806067
22 1 5.88414 1.31048 0.938036 4 0.00995856 2 0 0.0994487 -0.199602
23 1 6.57478 1.39104 0.218369 4 0.0125478 2 0 0.0994487 -0.086136
24 1 5.78374 0.460658 1.69897 4 0.00885833 2 0 0.0994487 -0.0846545
25 1 5.03122 1.72414 1.43602 4 0.00765928 2 0 0.0994487 0.0453688
26 1 6.7138 0.39031 0.865278 4 0.0120761 2 0 0.0994487 -0.0793841
27 1 6.69104 1.00962 1.69374 4 0.0123268 2 0 0.0994487 -0.107926
28 1 8.2679 0.408875 1.07337 4 0.0184945 2 0 0.0994487 -0.100169
29 1 7.36782 1.22285 0.954198 4 0.0155783 2 0 0.0994487 -0.302566
30 1 8.24709 1.39092 0.236779 4 0.0201691 2 0 0.0994487 -0.046067
31 1 8.12868 1.27217 1.60653 4 0.0189756 2 0 0.0994487 -0.0081197
32 1 7.58247 0.647807 0.140287 4 0.0157928 2 0 0.0994487 -0.110938
33 1 8.85849 0.508506 0.273966 4 0.0216595 2 0 0.0994487 -0.0616483
34 1 9.55301 0.3386 0.888639 4 0.0253504 2 0 0.0994487 0.00506126
35 1 9.02586 1.30716 1.1133 4 0.024468 2 0 0.0994487 -0.0606543
37 1 9.63995 1.37474 0.0900752 4 0.0278956 2 0 0.0994487 0.0992895
38 1 11.2128 0.215893 0.632658 4 0.0377967 2 0 0.0994487 0.203501
39 1 10.3637 1.04743 0.823114 4 0.0327438 2 0 0.0994487 0.53988
40 1 10.523 0.196295 1.44539 4 0.0317969 2 0 0.0994487 0.0644268
41 1 11.2856 1.01846 1.41785 4 0.0424828 2 0 0.0994487 0.164703
42 1 10.5797 1.67706 1.72992 4 0.0381006 2 0 0.0994487 0.118162
43 1 10.2431 0.367861 0.0780499 4 0.0286881 2 0 0.0994487 0.1498
44 1 12.8757 0.211714 0.636805 4 0.0596906 2 0 0.0994487 0.0587856
45 1 12.0457 1.07408 0.506655 4 0.0531991 2 0 0.0994487 -0.023554
46 1 12.1319 0.316439 1.29957 4 0.0504477 2 0 0.0994487 0.0188337
47 1 12.7194 1.19864 1.3723 4 0.064057 2 0 0.0994487 -0.0305313
48 1 14.3729 0.318493 0.764646 4 0.0829563 2 0 0.0994487 -0.04604
49 1 13.5924 1.113 0.843618 4 0.0778343 2 0 0.0994487 -0.263058
50 1 14.0399 1.55958 0.167469 4 0.0896747 2 0 0.0994487 -0.0898264
51 1 13.6075 0.359834 1.6352 4 0.0713258 2 0 0.0994487 -0.0562651
52 1 14.3777 1.14948 1.47647 4 0.0882517 2 0 0.0994487 -0.0178297
53 1 14.8761 1.55337 0.662943 4 0.10098 2 0 0.0994487 0.389944
54 1 15.7061 0.770636 0.788259 4 0.105338 2 0 0.0994487 0.366481
55 1 16.5532 1.54451 0.681338 4 0.135086 2 0 0.0994487 0.000801095
56 1 15.1422 0.4642 1.64149 4 0.092753 2 0 0.0994487 0.152076
57 1 16.547 0.712289 1.3421 4 0.123116 2 0 0.0994487 0.0956235
58 1 15.6341 1.48544 1.3916 4 0.113603 2 0 0.0994487 0.153628
59 1 15.1049 0.711806 0.0677822 4 0.0929112 2 0 0.0994487 0.169202
60 1 17.2544 0.732268 0.547589 4 0.13717 2 0 0.0994487 0.0286276
61 1 17.9231 1.58109 0.757246 4 0.162848 2 0 0.0994487 0.0415589
62 1 17.916 0.742935 1.42801 4 0.150901 2 0 0.0994487 -0.22438
63 1 17.2202 1.74884 1.56274 4 0.154887 2 0 0.0994487 -0.0984867
64 1 19.5372 0.0167772 0.662766 4 0.158417 2 0 0.0994487 0.0436429
65 1 18.7918 0.725074 0.684829 4 0.160839 2 0 0.0994487 -0.269948
66 1 19.5395 1.55488 0.841653 4 0.183759 2 0 0.0994487 -0.341166
67 1 19.0276 0.158607 1.54508 4 0.15706 2 0 0.0994487 -0.158665
68 1 19.5934 0.967491 1.68957 4 0.171462 2 0 0.0994487 0.00834916
69 1 18.6564 1.51302 1.50035 4 0.173444 2 0 0.0994487 -0.250312
70 1 21.0889 0.349843 1.06749 4 0.171418 2 0 0.0994487 -0.196128
71 1 20.2493 0.776373 0.980057 4 0.173552 2 0 0.0994487 -0.0497644
72 1 21.1062 1.65725 0.951506 4 0.19253 2 0 0.0994487 0.692907
73 1 21.1874 0.765598 0.218806 4 0.175025 2 0 0.0994487 -0.0445918
74 1 20.3457 1.51479 0.193617 4 0.187193 2 0 0.0994487 -0.080604
75 1 22.0087 0.262534 0.539755 4 0.170314 2 0 0.0994487 0.0993587
76 1 22.7913 0.430275 1.40734 4 0.171149 2 0 0.0994487 0.206599
77 1 22.1105 1.14763 1.32981 4 0.181326 2 0 0.0994487 0.240021
78 1 21.9982 1.59955 0.538558 4 0.191876 2 0 0.0994487 0.18517
79 1 22.9157 1.07463 0.445168 4 0.178729 2 0 0.0994487 0.0520837
80 1 24.228 0.380179 1.45209 4 0.164623 2 0 0.0994487 0.0576168
81 1 23.5672 0.357563 0.57369 4 0.167868 2 0 0.0994487 0.0385707
82 1 24.4367 1.18687 0.754729 4 0.174664 2 0 0.0994487 -0.0192959
83 1 23.4757 1.2499 1.4028 4 0.181876 2 0 0.0994487 0.0298765
84 1 24.955 0.315686 0.551996 4 0.156595 2 0 0.0994487 -0.0171983
85 1 26.0085 0.383365 1.1715 4 0.143723 2 0 0.0994487 -0.185859
86 1 25.169 1.12579 1.48087 4 0.166425 2 0 0.0994487 0.0251057
87 1 25.9301 1.73476 1.35794 4 0.168169 2 0 0.0994487 0.0345374
88 1 25.8917 0.929212 0.432102 4 0.151505 2 0 0.0994487 -0.0954187
89 1 27.5736 1.28032 0.38906 4 0.132902 2 0 0.0994487 0.0454501
90 1 27.6142 0.50928 0.874321 4 0.125765 2 0 0.0994487 0.175389
91 1 26.7559 1.02809 1.26347 4 0.140214 2 0 0.0994487 -0.236884
92 1 28.3748 0.337482 1.39813 4 0.114691 2 0 0.0994487 0.00984534
93 1 26.7925 0.240345 0.226621 4 0.131847 2 0 0.0994487 0.0380753
94 1 28.6489 1.24263 0.742341 4 0.119933 2 0 0.0994487 0.102407
95 1 29.3912 0.945639 1.56878 4 0.108298 2 0 0.0994487 -0.0191998
96 1 28.5228 1.71921 1.49749 4 0.126203 2 0 0.0994487 -0.0429796
97 1 29.8133 0.173958 1.46124 4 0.0998261 2 0 0.0994487 0.133416
98 1 29.2734 0.3547 0.615275 4 0.10466 2 0 0.0994487 -0.0816806
99 1 31.5874 0.266128 1.25663 4 0.0854708 3 0 0.0994487 0.830097
100 1 30.7016 0.49015 0.470738 4 0.0949508 2 0 0.0994487 0.354852
101 1 30.1009 1.19877 0.774133 4 0.105321 2 0 0.0994487 0.210921
102 1 30.8649 0.971942 1.39386 4 0.0977386 2 0 0.0994487 0.703282
103 1 1.11081 2.43607 0.129285 4 0.00230394 2 0 0.0994487 -0.0373227
104 1 0.133403 2.3821 0.812241 4 0.00202674 2 0 0.0994487 -0.984517
105 1 1.28845 3.23764 0.949187 4 0.00280768 2 0 0.0994487 0.222086
106 1 1.13977 2.36077 1.59162 4 0.00240141 2 0 0.0994487 -0.22219
107 1 0.386685 3.02999 1.54944 4 0.00231827 2 0 0.0994487 -0.671256
108 1 0.332248 3.09582 0.131296 4 0.00225414 2 0 0.0994487 -0.59134
109 1 1.90972 2.41867 0.78376 4 0.00287273 2 0 0.0994487 0.078206
110 1 2.65852 3.28029 0.860875 4 0.00428413 2 0 0.0994487 0.0668006
111 1 2.66931 2.22918 1.53373 4 0.00352756 2 0 0.0994487 0.0829534
112 1 3.2579 3.42668 1.64938 4 0.00541222 2 0 0.0994487 0.00397297
113 1 2.7261 2.38168 0.0557193 4 0.00342126 2 0 0.0994487 0.1466
114 1 3.38195 2.55413 0.779289 4 0.00473422 2 0 0.0994487 0.21158
115 1 4.00679 1.841 0.711184 4 0.00538504 2 0 0.0994487 -0.0361272
116 1 4.91383 2.57277 0.815661 4 0.00851691 2 0 0.0994487 -0.259356
117 1 4.20148 3.3175 0.749446 4 0.00752488 2 0 0.0994487 0.00621206
118 1 4.13245 2.64107 1.58328 4 0.00640824 2 0 0.0994487 0.0270751
119 1 5.65047 2.44269 0.132743 4 0.0107424 2 0 0.0994487 -0.189927
120 1 6.55776 2.18062 0.772597 4 0.0137443 2 0 0.0994487 -0.289405
121 1 5.64874 3.19593 0.952489 4 0.0121952 2 0 0.0994487 -0.754647
122 1 5.861 2.19426 1.49672 4 0.0108952 2 0 0.0994487 0.0126329
123 1 6.52037 3.06691 1.5557 4 0.0156057 2 0 0.0994487 0.0443546
124 1 6.65033 2.92778 0.134227 4 0.0153295 2 0 0.0994487 0.0288845
125 1 7.45405 2.22586 0.139832 4 0.0180244 2 0 0.0994487 -0.0535052
126 1 8.08209 2.20208 0.930382 4 0.0217876 2 0 0.0994487 -0.302096
127 1 7.40132 3.06835 0.934051 4 0.0206734 2 0 0.0994487 -0.0455577
128 1 7.29928 2.06035 1.56856 4 0.0168048 2 0 0.0994487 -0.0607354
129 1 8.18545 3.00183 1.65211 4 0.0258168 2 0 0.0994487 -0.0454184
130 1 8.26934 2.9712 0.0392146 4 0.0263512 2 0 0.0994487 -0.150619
131 1 8.90393 2.08699 0.252387 4 0.0263967 2 0 0.0994487 0.00243022
132 1 9.77243 2.0246 1.10996 4 0.0329032 2 0 0.0994487 0.173454
133 1 8.92671 2.97262 0.928693 4 0.0319152 2 0 0.0994487 -0.156782
134 1 9.03062 2.22066 1.70398 4 0.0282003 2 0 0.0994487 -0.0819702
135 1 9.56096 2.90576 0.21312 4 0.0361935 2 0 0.0994487 0.173118
136 1 10.2834 2.1137 0.214297 4 0.03607 2 0 0.0994487 0.337737
137 1 11.1583 1.82604 0.771092 4 0.0457906 2 0 0.0994487 0.260084
138 1 10.6214 2.80819 0.921535 4 0.0481406 2 0 0.0994487 0.541911
139 1 11.4444 2.82964 1.57484 4 0.0610082 2 0 0.0994487 0.095197
140 1 12.6737 1.94118 0.593851 4 0.0718443 2 0 0.0994487 -0.283937
141 1 11.928 2.64099 0.742299 4 0.066655 2 0 0.0994487 -0.0386773
142 1 11.9239 1.9206 1.46509 4 0.0578011 2 0 0.0994487 0.0946501
143 1 12.8449 3.01766 1.68597 4 0.0887978 2 0 0.0994487 0.0363555
144 1 13.1791 3.03035 0.848852 4 0.0966391 2 0 0.0994487 -0.440859
145 1 13.3784 1.9912 1.48064 4 0.0828521 2 0 0.0994487 -0.0150723
146 1 14.0206 2.44438 0.927124 4 0.102069 2 0 0.0994487 -0.133108
147 1 14.0279 3.38359 1.55716 4 0.122031 2 0 0.0994487 0.0255744
148 1 14.6961 3.43698 0.884932 4 0.140341 2 0 0.0994487 -0.332963
149 1 14.7823 2.29758 1.44821 4 0.11304 2 0 0.0994487 0.0469256
150 1 14.8418 2.51505 0.136557 4 0.118493 2 0 0.0994487 0.173004
151 1 14.1591 3.2262 0.0325348 4 0.12199 2 0 0.0994487 -0.246105
152 1 13.4137 2.29398 0.0590902 4 0.0896199 2 0 0.0994487 -0.280963
153 1 15.6993 2.44373 0.692668 4 0.135803 2 0 0.0994487 0.364389
154 1 16.3029 3.20095 0.662084 4 0.171675 2 0 0.0994487 0.328585
155 1 16.308 2.47951 1.52575 4 0.152792 2 0 0.0994487 -0.10065
156 1 15.3694 3.25723 1.50191 4 0.152342 2 0 0.0994487 -0.00767026
157 1 15.5706 3.25854 0.0192499 4 0.150606 2 0 0.0994487 0.290237
158 1 17.0646 2.35032 0.682778 4 0.165217 2 0 0.0994487 0.0234773
159 1 17.944 2.92608 0.699539 4 0.207809 2 0 0.0994487 -0.231196
160 1 18.0193 2.43917 1.58112 4 0.189997 2 0 0.0994487 -0.149139
161 1 17.0918 3.1162 1.49491 4 0.19378 2 0 0.0994487 -0.143439
162 1 18.8908 2.35742 1.01358 4 0.200945 2 0 0.0994487 -0.516844
163 1 19.7027 3.2427 1.27782 4 0.244128 2 0 0.0994487 0.394872
164 1 18.884 2.99607 0.196019 4 0.225843 2 0 0.0994487 -0.171813
165 1 19.587 2.34239 0.101452 4 0.207445 2 0 0.0994487 -0.132373
166 1 20.3251 1.78863 1.72442 4 0.191437 2 0 0.0994487 0.0449506
167 1 21.1565 2.41663 0.458355 4 0.2176 2 0 0.0994487 0.196185
168 1 20.1948 2.46882 1.11433 4 0.213529 2 0 0.0994487 0.286726
169 1 21.31 3.29463 1.39314 3 0.263146 2 0 0.0993716 0.0777246
170 1 20.4222 2.99313 0.334941 4 0.23636 2 0 0.0994487 0.186287
171 1 22.8719 2.07007 1.50872 4 0.208088 2 0 0.0994487 -0.0221249
172 1 22.9717 2.60199 0.735523 4 0.23423 2 0 0.0994487 0.133323
173 1 22.0961 2.49917 1.23787 4 0.227001 2 0 0.0994487 0.186433
174 1 21.9898 3.20043 0.598797 3 0.265435 2 0 0.0993571 -0.0757549
175 1 22.6771 3.40124 0.07601 3 0.27944 2 0 0.0992609 0.0760722
176 1 23.7438 1.80844 0.624025 4 0.194283 2 0 0.0994487 -0.08736
177 1 24.4289 1.98763 1.61102 4 0.195835 2 0 0.0994487 -0.0641757
178 1 24.342 2.68296 0.775192 4 0.223057 2 0 0.0994487 -0.341094
179 1 23.6887 2.90303 1.53628 4 0.241251 2 0 0.0994487 -0.110506
180 1 24.4728 3.51078 1.55704 3 0.266913 2 0 0.0993476 -0.118306
181 1 24.9562 2.84566 0.0146836 4 0.218251 2 0 0.0994487 -0.0864596
182 1 26.5483 1.79415 0.511367 4 0.157568 2 0 0.0994487 -0.00559885
183 1 25.1322 1.85613 0.509414 4 0.183723 2 0 0.0994487 -0.0215285
184 1 25.7918 2.61203 0.707489 4 0.198911 2 0 0.0994487 0.228203
185 1 25.1579 2.55548 1.52547 4 0.207584 2 0 0.0994487 0.057667
186 1 25.7213 3.49812 1.51211 4 0.242573 2 0 0.0994487 0.123857
187 1 26.5364 2.56002 1.53049 4 0.180169 2 0 0.0994487 0.0579486
188 1 26.1686 3.50068 0.599043 4 0.230919 2 0 0.0994487 0.168845
189 1 27.5039 1.98546 1.23792 4 0.144794 2 0 0.0994487 -0.186416
190 1 28.2489 2.09022 0.343734 4 0.135747 2 0 0.0994487 -0.017724
191 1 27.0867 2.6924 0.645359 4 0.171364 2 0 0.0994487 -0.105599
192 1 27.1998 3.35397 1.41682 4 0.191551 2 0 0.0994487 -0.0983269
193 1 28.2537 2.75799 1.20639 4 0.149002 2 0 0.0994487 -0.418303
194 1 27.982 3.21993 0.326384 4 0.165221 2 0 0.0994487 -0.125256
195 1 29.9568 1.80906 1.70764 4 0.112672 2 0 0.0994487 0.183201
196 1 29.4477 2.04702 0.879698 4 0.121029 2 0 0.0994487 -0.00708011
197 1 29.1956 2.6589 0.290703 4 0.132507 2 0 0.0994487 -0.0578274
198 1 29.2495 3.2651 1.17365 4 0.144313 2 0 0.0994487 0.118638
199 1 30.9114 1.98502 0.924207 4 0.110377 2 0 0.0994487 0.967251
200 1 30.1815 2.71094 1.00186 4 0.123967 2 0 0.0994487 0.675111
201 1 31.0247 3.35309 0.97101 4 0.129017 2 0 0.0994487 0.998409
202 1 30.9865 2.69483 1.72648 4 0.119285 2 0 0.0994487 0.578501
203 1 30.1092 3.25953 0.132205 4 0.131016 2 0 0.0994487 -0.0443653
204 1 30.4116 1.90909 0.0255368 4 0.110571 2 0 0.0994487 0.106045
205 1 31.1434 2.66402 0.0761253 4 0.116132 2 0 0.0994487 0.70882
206 1 0.293831 3.78503 0.918557 4 0.00257587 2 0 0.0994487 -0.999347
207 1 0.143046 4.59443 0.482118 4 0.00283242 2 0 0.0994487 -0.784494
208 1 1.14036 4.67093 0.986638 4 0.00352576 2 0 0.0994487 -0.516752
209 1 0.0884667 5.26681 1.27761 4 0.00316981 2 0 0.0994487 -0.887458
210 1 1.04069 3.86421 0.0595682 4 0.00285209 2 0 0.0994487 0.0148877
211 1 1.84117 4.04604 0.847105 4 0.00384218 2 0 0.0994487 0.00826424
212 1 2.54049 4.85585 1.13748 4 0.00559211 2 0 0.0994487 -0.33385
213 1 2.64953 4.14475 0.20674 4 0.00514339 2 0 0.0994487 -0.0285733
214 1 1.89758 4.96895 0.278386 4 0.00467353 2 0 0.0994487 -0.153434
215 1 3.40771 4.86189 0.161635 4 0.00755178 2 0 0.0994487 -0.0163899
216 1 3.494 4.07675 0.885909 4 0.00673916 2 0 0.0994487 0.0268861
217 1 4.91235 4.00001 1.18344 4 0.0109796 2 0 0.0994487 0.0114968
218 1 4.04658 4.88002 1.14639 4 0.0094081 2 0 0.0994487 0.264484
219 1 4.26027 4.18509 0.149001 4 0.00907051 2 0 0.0994487 0.0377363
220 1 5.00947 4.74001 0.341082 4 0.0131327 2 0 0.0994487 0.0765363
221 1 5.77735 3.9378 0.198707 4 0.0141871 2 0 0.0994487 0.0260135
222 1 6.48883 3.76611 0.772067 4 0.0175109 2 0 0.0994487 0.204546
223 1 5.68025 4.73638 1.02487 4 0.0168523 2 0 0.0994487 -0.621727
224 1 6.66321 4.5115 1.6428 4 0.0216316 2 0 0.0994487 0.15893
225 1 6.68072 5.1315 0.885352 4 0.0254434 2 0 0.0994487 0.206837
226 1 8.1982 3.892 0.700757 4 0.031985 2 0 0.0994487 -0.369908
227 1 7.40842 4.46072 0.5468 4 0.0281574 2 0 0.0994487 -0.0252175
228 1 7.39886 3.87029 1.49684 4 0.0241949 2 0 0.0994487 0.102573
229 1 8.20004 4.61106 1.48677 4 0.0372148 2 0 0.0994487 -0.0118419
230 1 9.8976 3.57792 0.885667 4 0.0475137 2 0 0.0994487 0.592754
231 1 9.07913 4.56551 0.821335 4 0.0479341 2 0 0.0994487 -0.658555
232 1 9.86266 4.50302 0.126324 4 0.0557545 2 0 0.0994487 0.0958637
233 1 9.07829 3.76256 1.49819 4 0.0399293 2 0 0.0994487 -0.0708888
234 1 9.86881 4.3462 1.65532 4 0.0568301 2 0 0.0994487 -0.0856647
235 1 8.98541 3.86821 0.0631775 4 0.0392615 2 0 0.0994487 -0.138756
236 1 11.408 3.64493 0.778297 4 0.0721255 2 0 0.0994487 0.202063
237 1 10.5891 4.66652 0.906264 4 0.0728075 2 0 0.0994487 0.0450675
238 1 11.3867 4.69403 0.230734 4 0.0902013 2 0 0.0994487 -0.0498904
239 1 10.7059 3.56689 1.58785 4 0.0593095 2 0 0.0994487 -0.0448519
240 1 11.3652 4.3716 1.70545 4 0.0840461 2 0 0.0994487 -0.0798288
241 1 11.3894 5.27213 0.983682 4 0.102441 2 0 0.0994487 -0.674476
242 1 10.5826 3.84888 0.176129 4 0.059151 2 0 0.0994487 0.210465
243 1 12.5168 3.57716 0.814749 4 0.0936314 2 0 0.0994487 -0.0105786
244 1 12.1916 4.55033 1.00021 4 0.106352 2 0 0.0994487 0.105053
245 1 12.7362 4.99738 1.68903 4 0.128275 2 0 0.0994487 0.191332
246 1 13.2258 4.67863 0.80017 4 0.137871 2 0 0.0994487 -0.00468964
247 1 12.6435 4.61885 0.0632315 4 0.121635 2 0 0.0994487 -0.0335791
248 1 13.9891 4.12825 0.69648 4 0.144536 2 0 0.0994487 -0.430178
249 1 13.4832 4.21781 1.59317 4 0.129691 2 0 0.0994487 0.0820188
250 1 14.2046 5.11838 1.52001 4 0.183386 2 0 0.0994487 -0.028986
251 1 14.9402 5.01141 0.811699 4 0.206224 2 0 0.0994487 -0.0526451
252 1 14.9642 4.4167 1.59432 4 0.182745 2 0 0.0994487 -0.0635612
253 1 14.1405 4.90647 0.0597868 4 0.174215 2 0 0.0994487 -0.085692
254 1 14.961 4.19423 0.096508 4 0.170762 2 0 0.0994487 0.0322733
255 1 15.6685 4.06642 0.926277 4 0.188732 2 0 0.0994487 0.872625
256 1 15.8798 4.77595 0.186426 4 0.227032 2 0 0.0994487 0.165391
257 1 16.5936 4.58036 0.900182 4 0.246819 2 0 0.0994487 -0.0790063
258 1 16.3184 3.95875 1.6903 4 0.206416 2 0 0.0994487 -0.0434047
259 1 15.8111 5.05317 1.64084 4 0.240587 2 0 0.0994487 0.098277
260 1 17.2689 3.83372 0.811237 4 0.231925 2 0 0.0994487 -0.345394
261 1 18.0864 4.48855 1.09806 3 0.290543 2 0 0.0991746 -0.613865
262 1 17.9525 3.63794 1.65602 4 0.239448 2 0 0.0994487 -0.19281
263 1 17.4569 4.57727 0.0147963 3 0.271348 2 0 0.0993181 -0.0974141
264 1 18.1348 3.8547 0.0583493 3 0.251783 2 0 0.0994389 -0.120521
265 1 18.8779 3.70667 0.95022 3 0.258197 2 0 0.0994019 0.0691918
266 1 18.8235 4.60949 0.361826 3 0.307241 2 0 0.0990255 0.115605
267 1 19.6906 4.67872 1.0803 3 0.345995 2 0 0.0985682 0.932324
268 1 18.7859 5.27693 1.20102 3 0.379177 2 0 0.0980115 0.61602
269 1 19.5987 3.76722 0.227421 3 0.267943 2 0 0.0993409 0.164266
270 1 20.4384 3.82188 1.23329 3 0.289742 2 0 0.0991811 0.325944
271 1 20.8846 4.71868 1.39403 3 0.385853 2 0 0.0978759 0.149764
272 1 21.5775 4.95128 0.810455 3 0.437829 2 0 0.0964591 -0.00376408
273 1 21.0824 3.93136 0.512408 3 0.307145 2 0 0.0990264 0.088298
274 1 20.1339 4.78559 0.352846 3 0.363646 2 0 0.0982946 0.145583
275 1 22.8205 3.63186 1.42135 3 0.295569 2 0 0.0991322 -0.0184033
276 1 21.9406 4.13318 1.31068 3 0.338787 2 0 0.0986669 0.0271973
277 1 22.4705 5.17735 1.27286 3 0.477951 2 0 0.0947667 0.0207712
278 1 22.6119 4.34705 0.510028 3 0.360972 2 0 0.0983391 -0.0221125
279 1 23.5735 3.63903 0.782677 3 0.293624 2 0 0.0991489 0.185552
280 1 24.336 4.32055 0.625018 3 0.340852 2 0 0.0986393 -0.150099
281 1 23.4679 4.54946 1.33355 3 0.381473 2 0 0.0979658 -0.0790628
282 1 24.8518 5.25716 0.566763 3 0.419953 2 0 0.0970283 0.0409004
283 1 23.5518 5.06386 0.533607 3 0.444227 2 0 0.0962305 -0.0968974
284 1 25.0086 4.50055 1.62342 3 0.335857 2 0 0.0987051 -0.0421973
285 1 25.0629 3.68037 0.802132 3 0.268748 2 0 0.0993356 -0.187921
286 1 24.363 5.28843 1.43377 3 0.448243 2 0 0.0960797 -0.154718
287 1 25.6904 5.1389 1.34266 3 0.370268 2 0 0.098179 0.210096
288 1 26.3575 4.29031 1.37159 3 0.271509 2 0 0.099317 0.149482
289 1 26.5026 4.97257 0.640732 3 0.312238 2 0 0.0989758 0.0989657
290 1 25.5284 4.40089 0.388179 3 0.307439 2 0 0.0990235 0.0559463
291 1 27.3302 4.86961 1.40568 3 0.268389 2 0 0.0993379 0.00661036
292 1 27.9624 3.97641 1.10408 4 0.194842 2 0 0.0994487 -0.309502
293 1 28.2771 4.73475 0.706344 4 0.223823 2 0 0.0994487 -0.0812446
294 1 27.0674 4.04323 0.570038 4 0.228687 2 0 0.0994487 0.0120233
295 1 28.9321 3.77016 0.487204 4 0.16274 2 0 0.0994487 -0.00703138
296 1 29.0873 4.52317 1.33085 4 0.187861 2 0 0.0994487 0.0574874
297 1 29.9979 4.07209 1.02303 4 0.153342 2 0 0.0994487 -0.275231
298 1 31.0296 3.97382 0.373364 4 0.1399 2 0 0.0994487 0.657583
299 1 30.2046 4.67765 0.491317 4 0.170435 2 0 0.0994487 0.00995946
300 1 30.9783 4.59929 1.41131 4 0.15651 2 0 0.0994487 0.679915
301 1 0.908283 5.53205 0.461647 4 0.00398187 2 0 0.0994487 -0.463785
302 1 1.53161 5.51184 1.37971 4 0.00460641 2 0 0.0994487 -0.117388
303 1 0.793684 6.22023 1.2768 4 0.00450631 2 0 0.0994487 -0.703381
304 1 0.257003 6.91734 1.50738 4 0.00464642 2 0 0.0994487 -0.772633
305 1 0.969942 6.9454 0.573423 4 0.0053779 2 0 0.0994487 -0.473534
306 1 1.7053 7.02884 1.23811 4 0.00633182 2 0 0.0994487 0.0665163
307 1 1.89588 6.19966 0.519025 4 0.00585421 2 0 0.0994487 -0.156402
308 1 3.10475 5.61709 1.30057 4 0.00765133 2 0 0.0994487 0.04025
309 1 2.26359 6.15348 1.40977 4 0.0063223 2 0 0.0994487 0.0408545
310 1 3.25442 6.96226 1.12748 4 0.0108022 2 0 0.0994487 -0.054127
311 1 2.68177 5.61289 0.273587 4 0.00671355 2 0 0.0994487 -0.0596872
312 1 3.39503 6.28191 0.500536 4 0.0100793 2 0 0.0994487 -0.121448
313 1 4.18979 5.46246 0.325783 4 0.0113143 2 0 0.0994487 0.0310145
314 1 4.93434 5.42873 1.31778 4 0.0153545 2 0 0.0994487 -0.235105
315 1 4.13622 6.09659 1.22779 4 0.0128703 2 0 0.0994487 -0.0893929
316 1 4.82567 6.23357 0.333842 4 0.016899 2 0 0.0994487 -0.03458
317 1 4.77312 6.79931 1.15967 4 0.018868 2 0 0.0994487 -0.305937
318 1 4.00267 7.02511 0.221759 4 0.0143898 2 0 0.0994487 -0.085347
319 1 5.78575 5.42185 0.301847 4 0.019931 2 0 0.0994487 0.0124985
320 1 5.6935 6.24342 0.9632 4 0.0232208 2 0 0.0994487 -0.96779
321 1 6.4578 5.98425 1.59671 4 0.0280721 2 0 0.0994487 0.140909
322 1 6.43234 6.86927 1.00965 4 0.0336265 2 0 0.0994487 0.851649
323 1 6.37773 6.04115 0.154639 4 0.0265667 2 0 0.0994487 0.111109
324 1 5.54993 7.05206 0.147147 4 0.0247606 2 0 0.0994487 0.0363827
325 1 8.21355 5.31419 0.694273 4 0.0439735 2 0 0.0994487 -0.0896046
326 1 7.32761 6.15925 0.754293 4 0.0390602 2 0 0.0994487 0.22572
327 1 7.39163 5.41839 1.49138 4 0.0339094 2 0 0.0994487 0.136748
328 1 8.23884 6.11028 1.49159 4 0.0532419 2 0 0.0994487 0.0187317
329 1 8.01352 6.85364 0.728993 4 0.0588773 2 0 0.0994487 0.0691721
330 1 7.28191 6.86379 1.59601 4 0.0464428 2 1 0.0994487 0.126014
331 1 7.33029 5.3575 0.0461812 4 0.0319042 2 0 0.0994487 0.0813538
332 1 9.76796 5.3194 0.792562 4 0.0678224 2 0 0.0994487 0.328437
333 1 8.88016 6.18865 0.736908 4 0.0659049 2 0 0.0994487 -0.235554
334 1 9.05434 5.3271 1.5973 4 0.0567804 2 0 0.0994487 -0.0628345
335 1 9.73844 6.19052 1.46731 4 0.0848978 2 0 0.0994487 -0.106548
336 1 9.09351 6.95013 1.463 4 0.0860735 2 2 0.0994487 -0.0761689
337 1 9.76329 6.23201 0.0941385 4 0.0837048 2 0 0.0994487 -0.0359542
338 1 8.99733 5.46479 0.012702 4 0.0568525 2 0 0.0994487 -0.134756
339 1 10.5831 6.02196 0.964384 4 0.100195 2 0 0.0994487 -0.356233
340 1 11.3128 6.37134 0.0776634 4 0.121633 2 0 0.0994487 0.100343
341 1 10.5187 6.94145 0.15452 4 0.117567 2 0 0.0994487 -0.0735277
342 1 10.4686 6.92564 1.49614 4 0.122721 2 1 0.0994487 -0.0635161
343 1 11.9994 5.6274 0.183157 4 0.122889 2 0 0.0994487 -0.010529
344 1 12.6757 5.81849 0.861776 4 0.15108 2 0 0.0994487 0.0817287
345 1 11.7774 6.20735 1.05291 4 0.134283 2 0 0.0994487 0.292113
346 1 13.3219 5.86668 1.55471 4 0.174615 2 0 0.0994487 0.208524
347 1 13.3506 6.58297 0.813679 4 0.21193 2 0 0.0994487 -0.290771
348 1 13.3212 5.53867 0.0424813 4 0.165243 2 0 0.0994487 -0.142907
349 1 14.0617 5.71565 0.77266 4 0.202241 2 0 0.0994487 -0.372576
350 1 14.3278 6.65176 1.40646 3 0.272609 2 0 0.0993095 -0.101998
351 1 14.1303 6.38483 0.0380077 4 0.228357 2 0 0.0994487 -0.0826033
352 1 15.0282 5.64393 0.034369 4 0.235226 2 0 0.0994487 0.0573691
353 1 15.8305 5.73813 0.95832 3 0.286617 2 0 0.0992062 0.626044
354 1 15.0472 6.45091 0.806774 3 0.292148 2 0 0.0991613 -0.174296
355 1 16.491 6.45257 1.1401 3 0.391789 2 0 0.0977478 0.196232
356 1 15.1058 5.87594 1.69804 3 0.267868 2 0 0.0993414 -0.102803
357 1 16.62 5.41933 0.276819 3 0.295011 2 0 0.0991371 0.0799198
358 1 15.6753 6.3382 0.0390223 3 0.30677 2 0 0.09903 0.0398111
359 1 17.8271 5.30128 0.541411 3 0.334999 2 0 0.0987161 0.150293
360 1 17.113 5.42499 1.24767 3 0.32798 2 0 0.0988025 -0.311501
361 1 17.0619 6.27419 0.411469 3 0.390598 2 0 0.0977741 0.138822
362 1 17.6649 6.24649 1.38542 3 0.448879 2 0 0.0960556 -0.348715
363 1 18.2745 7.0517 1.13153 3 0.567723 2 0 0.0877329 0.883791
364 1 18.3714 6.23173 0.609762 3 0.462051 2 0 0.0955153 0.155334
365 1 19.429 5.75829 0.62055 3 0.453218 2 0 0.0958849 0.0557704
366 1 19.3279 6.55755 1.35081 3 0.585605 2 0 0.0855484 0.37614
367 1 19.9942 6.75229 0.610261 3 0.649647 2 0 0.0746712 -0.00694427
368 1 20.7494 5.77593 0.653722 3 0.53089 2 0 0.0913091 -0.101747
369 1 20.1931 5.61076 1.39557 3 0.484094 2 0 0.094447 0.354403
370 1 20.7787 6.6124 1.30355 3 0.721655 2 0 0.0558703 -0.319987
371 1 21.6592 6.66248 0.666524 3 0.718182 2 0 0.0569256 -0.0423473
372 1 21.6631 5.87866 1.38528 3 0.605924 2 0 0.0826462 0.0636463
373 1 21.6904 5.73259 0.0517844 3 0.545943 2 0 0.0899841 -0.00150667
374 1 22.6732 5.8279 0.674154 3 0.5761 2 0 0.0867486 0.00263266
375 1 22.6319 6.69333 1.20734 3 0.756181 2 0 0.0448002 -0.211913
376 1 23.3484 6.78052 0.267835 3 0.708429 2 0 0.0598239 -0.125382
377 1 23.4822 5.88496 1.30013 3 0.58287 2 0 0.0859023 -0.176481
378 1 24.3197 6.56281 1.15825 3 0.637713 2 0 0.0770989 0.181145
379 1 24.1457 6.00685 0.427617 3 0.554817 2 0 0.0891172 0.00242799
380 1 25.6831 5.86213 0.700952 3 0.443292 2 0 0.0962648 0.16389
381 1 25.1124 6.04132 1.67733 3 0.502451 2 0 0.0933727 0.00372525
382 1 25.1593 6.74159 0.495153 3 0.580664 2 0 0.0861832 0.0903807
383 1 25.8251 6.59457 1.40775 3 0.513117 2 0 0.0926603 0.0880928
384 1 26.6903 5.84511 1.4763 3 0.379405 2 0 0.0980069 0.0917599
385 1 27.4966 5.54334 0.722172 3 0.302382 2 0 0.0990714 -0.251572
386 1 26.7485 6.36567 0.651888 3 0.419157 2 0 0.0970514 0.038748
387 1 27.7011 6.47315 1.36539 3 0.360314 2 0 0.0983499 0.131493
388 1 28.3648 5.52203 1.4872 3 0.261173 2 0 0.0993839 0.0456343
389 1 27.7097 7.0074 0.530173 3 0.395527 2 0 0.0976632 0.0321237
390 1 29.3889 5.30889 0.818726 4 0.217174 2 0 0.0994487 0.31673
391 1 29.4379 6.18214 1.32212 3 0.250599 2 0 0.0994455 -0.0033795
392 1 29.5784 6.89773 0.506505 3 0.277923 2 0 0.099272 0.0925886
393 1 28.4685 6.20589 0.638647 3 0.290706 2 0 0.0991732 -0.270079
394 1 29.3762 6.15398 0.0801838 3 0.251053 2 0 0.099443 0.096927
395 1 28.4822 5.38976 0.0592959 4 0.246941 2 0 0.0994487 -0.105003
396 1 30.9636 5.36838 0.595026 4 0.188314 2 0 0.0994487 0.667849
397 1 30.2159 5.45949 1.46813 4 0.199561 2 0 0.0994487 0.0540224
398 1 30.3958 6.18258 0.649752 4 0.225928 2 0 0.0994487 0.329003
399 1 31.2189 6.15516 1.38439 4 0.209869 2 0 0.0994487 0.587258
400 1 31.1994 6.95407 0.60342 4 0.23985 2 0 0.0994487 0.812252
401 1 31.7235 5.99622 0.446564 4 0.200641 2 0 0.0994487 0.879729
402 1 0.261851 7.63199 0.661866 4 0.00528593 2 0 0.0994487 -0.876374
403 1 0.831025 8.46344 0.61936 4 0.00638588 2 0 0.0994487 -0.577626
404 1 1.11211 7.86396 1.49711 4 0.00617073 2 0 0.0994487 -0.154429
405 1 0.356955 8.5626 1.47035 4 0.00592587 2 0 0.0994487 -0.764984
406 1 1.59266 7.76478 0.37187 4 0.00695501 2 0 0.0994487 -0.0897888
407 1 1.72382 8.61735 1.46471 4 0.00792088 2 0 0.0994487 0.039596
408 1 2.48799 7.14986 0.476331 4 0.00849802 2 0 0.0994487 -0.0836986
409 1 2.19177 8.6335 0.399707 4 0.00939551 2 0 0.0994487 -0.137269
410 1 2.39416 7.81099 1.27726 4 0.00893639 2 0 0.0994487 0.0869902
411 1 3.01349 8.51445 0.935533 4 0.0123448 2 0 0.0994487 -0.539324
412 1 3.24418 7.77117 0.327041 4 0.0122775 2 0 0.0994487 -0.196207
413 1 3.81243 8.45898 0.0822892 4 0.0158489 2 0 0.0994487 -0.0457806
414 1 3.97971 7.67009 1.24863 4 0.0157596 2 0 0.0994487 -0.0554931
415 1 4.70459 8.25653 0.921772 4 0.0218606 2 0 0.0994487 0.295305
416 1 4.67023 7.63706 0.247803 4 0.0196956 2 0 0.0994487 0.0376873
417 1 3.81127 8.34851 1.76162 4 0.0159269 2 0 0.0994487 -0.0574377
418 1 5.86955 8.34822 0.169905 4 0.0330605 2 0 0.0994487 0.113101
419 1 5.48363 7.59071 1.03232 4 0.0273996 2 0 0.0994487 -0.467683
420 1 6.49365 7.53799 0.169175 4 0.037436 2 0 0.0994487 0.187618
421 1 6.39674 8.23976 1.04384 4 0.0424012 2 0 0.0994487 0.337977
422 1 7.28583 7.76918 0.746313 4 0.0557325 2 1 0.0994487 0.00980119
423 1 8.2859 8.31376 0.868772 4 0.0877283 2 2 0.0994487 0.277931
424 1 7.27857 8.18368 1.7015 4 0.0641969 2 2 0.0994487 -0.175177
425 1 8.05208 7.48784 1.5604 4 0.0708597 2 1 0.0994487 0.184929
426 1 7.99895 7.60312 0.0282118 4 0.066076 2 0 0.0994487 0.0674081
427 1 9.84313 7.22199 0.72344 4 0.110332 2 1 0.0994487 -0.346971
428 1 8.91207 7.61626 0.661731 4 0.0912295 2 1 0.0994487 0.158502
429 1 9.73234 8.61964 0.693151 4 0.141008 2 3 0.0994487 -0.256858
430 1 9.09265 8.69904 1.44495 4 0.128978 2 9 0.0994487 -0.393011
431 1 9.64026 7.88932 1.60055 4 0.131783 2 8 0.0994487 -0.340424
432 1 11.3161 7.14287 0.810636 4 0.14885 2 1 0.0994487 0.44754
433 1 10.5731 7.9454 0.844311 4 0.152291 2 3 0.0994487 -0.197917
434 1 10.5877 8.70196 1.4255 4 0.178868 1 7 0.0994487 -0.139047
435 1 11.4057 7.80503 1.60301 4 0.187812 2 3 0.0994487 0.202433
436 1 11.227 8.11851 0.0422735 4 0.168206 2 0 0.0994487 0.174346
437 1 12.7061 7.28322 0.565784 4 0.215465 2 0 0.0994487 -0.0542586
438 1 12.178 8.23518 0.590765 4 0.222478 2 1 0.0994487 0.163825
439 1 12.0637 7.15788 1.37768 4 0.183136 2 2 0.0994487 0.1192
440 1 12.0887 8.68064 1.49044 4 0.249118 1 2 0.0994487 0.125034
441 1 12.8601 7.99585 1.47598 3 0.274861 2 0 0.0992939 -0.309674
442 1 14.3373 7.3542 0.580954 3 0.304094 2 0 0.0990555 0.0682715
443 1 13.6169 8.09282 0.464536 3 0.299539 2 0 0.0990973 0.0265712
444 1 13.458 7.34024 1.34133 3 0.269083 2 0 0.0993334 0.0768966
445 1 14.2471 8.18371 1.35246 3 0.368289 2 0 0.0982144 0.23138
446 1 16.4328 7.18497 0.276798 3 0.437427 2 0 0.0964731 -0.065524
447 1 15.6276 7.3114 0.923132 3 0.406605 2 0 0.0973938 -0.443992
448 1 15.0689 8.29247 0.865596 3 0.430406 2 0 0.0967074 -0.340785
449 1 16.2796 8.16171 1.10429 0 0.522401 1 0 0.0919814 -0.36277
450 1 15.1452 7.52269 1.62484 3 0.412619 2 0 0.097235 -0.441549
451 1 15.8668 8.31534 0.152632 3 0.484885 2 0 0.0944038 -0.194222
452 1 16.977 7.36262 1.11681 3 0.513733 1 0 0.0926171 0.242562
453 1 17.0683 8.10487 0.342208 3 0.558254 2 0 0.0887633 0.0315493