ITEM: TIMESTEP
28000
ITEM: NUMBER OF ATOMS
9495
ITEM: BOX BOUNDS mm mm mm
0.0000000000000000e+00 3.1748021039364001e+01
0.0000000000000000e+00 3.1748021039364001e+01
-7.4072398406925706e-04 3.1748021039364001e+01
ITEM: ATOMS id type x y z c_phase c_temp c_surf c_nbond c_visc f_3[1]
1 1 0.116341 1.10259 0.464337 4 4.66251e-06 2 0 0.0994487 -0.68194
2 1 0.974108 1.6685 0.77798 4 8.25399e-06 2 0 0.0994487 -0.51703
3 1 0.714648 0.793562 1.41295 4 5.6548e-06 2 0 0.0994487 -0.281793
4 1 0.00336375 1.60273 1.37437 4 5.27749e-06 2 0 0.0994487 -0.804051
5 1 0.729896 0.0633724 0.61602 4 4.21945e-06 3 0 0.0994487 -0.190374
6 1 1.71015 0.808983 1.0155 4 1.03635e-05 2 0 0.0994487 -0.332067
7 1 1.80059 1.47468 0.221075 4 1.1621e-05 2 0 0.0994487 -0.125828
8 1 1.82015 1.66049 1.76126 4 1.2877e-05 2 0 0.0994487 -0.139532
9 1 2.52093 0.749102 0.203812 4 1.49079e-05 2 0 0.0994487 -0.142938
10 1 2.59149 0.0538711 1.03726 4 1.44938e-05 2 0 0.0994487 -0.295004
11 1 2.64922 1.541 0.882848 4 2.03777e-05 2 0 0.0994487 0.235764
12 1 2.66829 0.815502 1.7457 4 1.73124e-05 2 0 0.0994487 -0.187039
13 1 3.43386 0.933692 0.956349 4 2.89516e-05 2 0 0.0994487 0.320249
14 1 3.49924 0.0925696 1.70571 4 2.20802e-05 2 0 0.0994487 0.178054
15 1 3.60652 1.70798 1.71994 4 3.88091e-05 2 0 0.0994487 0.0487972
16 1 4.10576 0.858321 0.325305 4 4.31844e-05 2 0 0.0994487 0.153149
17 1 4.96159 0.56786 1.17466 4 7.74331e-05 2 0 0.0994487 -0.0370632
18 1 4.91949 1.59987 0.383508 4 9.37304e-05 2 0 0.0994487 -0.100244
19 1 4.3472 0.941527 1.62884 4 5.25878e-05 2 0 0.0994487 0.110741
20 1 3.47612 0.111428 0.171027 4 2.08793e-05 2 0 0.0994487 0.166216
21 1 5.64741 0.645627 0.325839 4 0.000118401 2 0 0.0994487 -0.0806023
22 1 5.88414 1.31048 0.938036 4 0.000155967 2 0 0.0994487 -0.199561
23 1 6.57478 1.39104 0.218369 4 0.000232615 2 0 0.0994487 -0.0861298
24 1 5.78374 0.460658 1.69897 4 0.000119642 2 0 0.0994487 -0.0846497
25 1 5.03122 1.72414 1.43602 4 0.000100634 2 0 0.0994487 0.0453766
26 1 6.7138 0.39031 0.865278 4 0.00020836 2 0 0.0994487 -0.0793784
27 1 6.69104 1.00962 1.69374 4 0.000219744 2 0 0.0994487 -0.10792
28 1 8.2679 0.408875 1.07337 4 0.000448845 2 0 0.0994487 -0.100162
29 1 7.36782 1.22285 0.954198 4 0.000342077 2 0 0.0994487 -0.30253
30 1 8.24709 1.39092 0.236779 4 0.000544438 2 0 0.0994487 -0.0460595
31 1 8.12868 1.27217 1.60653 4 0.000486764 2 0 0.0994487 -0.00811235
32 1 7.58247 0.647807 0.140287 4 0.000336876 2 0 0.0994487 -0.110933
33 1 8.85849 0.508506 0.273966 4 0.000597212 2 0 0.0994487 -0.061643
34 1 9.55301 0.3386 0.888639 4 0.000800826 2 0 0.0994487 0.00506864
35 1 9.02586 1.30716 1.1133 4 0.00077861 2 0 0.0994487 -0.0606294
37 1 9.63995 1.37474 0.0900752 4 0.000975349 2 0 0.0994487 0.0992947
38 1 11.2128 0.215893 0.632658 4 0.0016608 2 0 0.0994487 0.203509
39 1 10.3637 1.04743 0.823114 4 0.0013204 2 0 0.0994487 0.539899
40 1 10.523 0.196295 1.44539 4 0.00120582 2 0 0.0994487 0.0644321
41 1 11.2856 1.01846 1.41785 4 0.00211224 2 0 0.0994487 0.164715
42 1 10.5797 1.67706 1.72992 4 0.0017594 2 0 0.0994487 0.118169
43 1 10.2431 0.367861 0.0780499 4 0.000985959 2 0 0.0994487 0.149804
44 1 12.8757 0.211714 0.636805 4 0.00367659 2 0 0.0994487 0.0587923
45 1 12.0457 1.07408 0.506655 4 0.00313239 2 0 0.0994487 -0.0235445
46 1 12.1319 0.316439 1.29957 4 0.0027628 2 0 0.0994487 0.0188424
47 1 12.7194 1.19864 1.3723 4 0.00435082 2 0 0.0994487 -0.0305183
48 1 14.3729 0.318493 0.764646 4 0.0066747 2 0 0.0994487 -0.0460348
49 1 13.5924 1.113 0.843618 4 0.00613346 2 0 0.0994487 -0.26304
50 1 14.0399 1.55958 0.167469 4 0.00796815 2 0 0.0994487 -0.0898213
51 1 13.6075 0.359834 1.6352 4 0.00503146 2 0 0.0994487 -0.0562596
52 1 14.3777 1.14948 1.47647 4 0.00769682 2 0 0.0994487 -0.0178223
53 1 14.8761 1.55337 0.662943 4 0.0100563 2 0 0.0994487 0.389958
54 1 15.7061 0.770636 0.788259 4 0.0107781 2 0 0.0994487 0.366489
55 1 16.5532 1.54451 0.681338 4 0.0176222 2 0 0.0994487 0.000811675
56 1 15.1422 0.4642 1.64149 4 0.00828168 2 0 0.0994487 0.15208
57 1 16.547 0.712289 1.3421 4 0.0145061 2 0 0.0994487 0.0956308
58 1 15.6341 1.48544 1.3916 4 0.0126605 2 0 0.0994487 0.153638
59 1 15.1049 0.711806 0.0677822 4 0.00826564 2 0 0.0994487 0.169205
60 1 17.2544 0.732268 0.547589 4 0.0176915 2 0 0.0994487 0.0286325
61 1 17.9231 1.58109 0.757246 4 0.0252865 2 0 0.0994487 0.0415669
62 1 17.916 0.742935 1.42801 4 0.0213038 2 0 0.0994487 -0.224374
63 1 17.2202 1.74884 1.56274 4 0.0229305 2 0 0.0994487 -0.0984802
64 1 19.5372 0.0167772 0.662766 4 0.0231254 2 0 0.0994487 0.0436442
65 1 18.7918 0.725074 0.684829 4 0.0242028 2 0 0.0994487 -0.269944
66 1 19.5395 1.55488 0.841653 4 0.0327313 2 0 0.0994487 -0.341161
67 1 19.0276 0.158607 1.54508 4 0.0226846 2 0 0.0994487 -0.158664
68 1 19.5934 0.967491 1.68957 4 0.0280276 2 0 0.0994487 0.00835147
69 1 18.6564 1.51302 1.50035 4 0.0286986 2 0 0.0994487 -0.250306
70 1 21.0889 0.349843 1.06749 4 0.0285864 2 0 0.0994487 -0.196127
71 1 20.2493 0.776373 0.980057 4 0.0290667 2 0 0.0994487 -0.0497609
72 1 21.1062 1.65725 0.951506 4 0.0375174 2 0 0.0994487 0.692913
73 1 21.1874 0.765598 0.218806 4 0.030078 2 0 0.0994487 -0.0445911
74 1 20.3457 1.51479 0.193617 4 0.0344788 2 0 0.0994487 -0.0806026
75 1 22.0087 0.262534 0.539755 4 0.0286708 2 0 0.0994487 0.099359
76 1 22.7913 0.430275 1.40734 4 0.0297671 2 0 0.0994487 0.206599
77 1 22.1105 1.14763 1.32981 4 0.0336211 2 0 0.0994487 0.240022
78 1 21.9982 1.59955 0.538558 4 0.0381977 2 0 0.0994487 0.185171
79 1 22.9157 1.07463 0.445168 4 0.0333606 2 0 0.0994487 0.0520837
80 1 24.228 0.380179 1.45209 4 0.0288168 2 0 0.0994487 0.057616
81 1 23.5672 0.357563 0.57369 4 0.0293376 2 0 0.0994487 0.0385702
82 1 24.4367 1.18687 0.754729 4 0.0336383 2 0 0.0994487 -0.0192982
83 1 23.4757 1.2499 1.4028 4 0.0355099 2 0 0.0994487 0.029876
84 1 24.955 0.315686 0.551996 4 0.0265924 2 0 0.0994487 -0.0171997
85 1 26.0085 0.383365 1.1715 4 0.0230126 2 0 0.0994487 -0.185861
86 1 25.169 1.12579 1.48087 4 0.0310844 2 0 0.0994487 0.0251039
87 1 25.9301 1.73476 1.35794 4 0.0328501 2 0 0.0994487 0.0345342
88 1 25.8917 0.929212 0.432102 4 0.0259217 2 0 0.0994487 -0.0954209
89 1 27.5736 1.28032 0.38906 4 0.0201205 2 0 0.0994487 0.0454485
90 1 27.6142 0.50928 0.874321 4 0.017578 2 0 0.0994487 0.175387
91 1 26.7559 1.02809 1.26347 4 0.0224182 2 0 0.0994487 -0.236888
92 1 28.3748 0.337482 1.39813 4 0.0142773 2 0 0.0994487 0.00984365
93 1 26.7925 0.240345 0.226621 4 0.0191536 2 0 0.0994487 0.0380743
94 1 28.6489 1.24263 0.742341 4 0.0159991 2 0 0.0994487 0.102405
95 1 29.3912 0.945639 1.56878 4 0.0124785 2 0 0.0994487 -0.0192013
96 1 28.5228 1.71921 1.49749 4 0.0180148 2 0 0.0994487 -0.0429819
97 1 29.8133 0.173958 1.46124 4 0.0101441 2 0 0.0994487 0.133416
98 1 29.2734 0.3547 0.615275 4 0.0114608 2 0 0.0994487 -0.0816816
99 1 31.5874 0.266128 1.25663 4 0.00679197 3 0 0.0994487 0.830097
100 1 30.7016 0.49015 0.470738 4 0.00889841 2 0 0.0994487 0.354852
101 1 30.1009 1.19877 0.774133 4 0.0115507 2 0 0.0994487 0.210919
102 1 30.8649 0.971942 1.39386 4 0.00957859 2 0 0.0994487 0.703281
103 1 1.11081 2.43607 0.129285 4 9.80803e-06 2 0 0.0994487 -0.0373217
104 1 0.133403 2.3821 0.812241 4 7.13497e-06 2 0 0.0994487 -0.984517
105 1 1.28845 3.23764 0.949187 4 1.51583e-05 2 0 0.0994487 0.2221
106 1 1.13977 2.36077 1.59162 4 1.09073e-05 2 0 0.0994487 -0.222188
107 1 0.386685 3.02999 1.54944 4 9.52205e-06 2 0 0.0994487 -0.671256
108 1 0.332248 3.09582 0.131296 4 8.81624e-06 2 0 0.0994487 -0.59134
109 1 1.90972 2.41867 0.78376 4 1.65124e-05 2 0 0.0994487 0.0782127
110 1 2.65852 3.28029 0.860875 4 3.64534e-05 2 0 0.0994487 0.0668085
111 1 2.66931 2.22918 1.53373 4 2.51516e-05 2 0 0.0994487 0.0829573
112 1 3.2579 3.42668 1.64938 4 5.57055e-05 2 0 0.0994487 0.00397781
113 1 2.7261 2.38168 0.0557193 4 2.34305e-05 2 0 0.0994487 0.146602
114 1 3.38195 2.55413 0.779289 4 4.44202e-05 2 0 0.0994487 0.211588
115 1 4.00679 1.841 0.711184 4 5.51237e-05 2 0 0.0994487 -0.0361183
116 1 4.91383 2.57277 0.815661 4 0.000124055 2 0 0.0994487 -0.259341
117 1 4.20148 3.3175 0.749446 4 0.000100598 2 0 0.0994487 0.00622032
118 1 4.13245 2.64107 1.58328 4 7.55614e-05 2 0 0.0994487 0.0270811
119 1 5.65047 2.44269 0.132743 4 0.000181463 2 0 0.0994487 -0.189923
120 1 6.55776 2.18062 0.772597 4 0.000283552 2 0 0.0994487 -0.289351
121 1 5.64874 3.19593 0.952489 4 0.000232271 2 0 0.0994487 -0.754617
122 1 5.861 2.19426 1.49672 4 0.000187816 2 0 0.0994487 0.0126399
123 1 6.52037 3.06691 1.5557 4 0.000357053 2 0 0.0994487 0.0443621
124 1 6.65033 2.92778 0.134227 4 0.000343202 2 0 0.0994487 0.0288904
125 1 7.45405 2.22586 0.139832 4 0.000456763 2 0 0.0994487 -0.053498
126 1 8.08209 2.20208 0.930382 4 0.000646421 2 0 0.0994487 -0.302036
127 1 7.40132 3.06835 0.934051 4 0.000593201 2 0 0.0994487 -0.0454685
128 1 7.29928 2.06035 1.56856 4 0.000401765 2 0 0.0994487 -0.0607285
129 1 8.18545 3.00183 1.65211 4 0.00086906 2 0 0.0994487 -0.0454113
130 1 8.26934 2.9712 0.0392146 4 0.00089816 2 0 0.0994487 -0.150613
131 1 8.90393 2.08699 0.252387 4 0.000902408 2 0 0.0994487 0.00243873
132 1 9.77243 2.0246 1.10996 4 0.0013603 2 0 0.0994487 0.173485
133 1 8.92671 2.97262 0.928693 4 0.00127783 2 0 0.0994487 -0.156714
134 1 9.03062 2.22066 1.70398 4 0.00102036 2 0 0.0994487 -0.0819635
135 1 9.56096 2.90576 0.21312 4 0.00159231 2 0 0.0994487 0.173125
136 1 10.2834 2.1137 0.214297 4 0.00159683 2 0 0.0994487 0.337743
137 1 11.1583 1.82604 0.771092 4 0.0024768 2 0 0.0994487 0.260101
138 1 10.6214 2.80819 0.921535 4 0.00269784 2 0 0.0994487 0.541937
139 1 11.4444 2.82964 1.57484 4 0.00408076 2 0 0.0994487 0.0952079
140 1 12.6737 1.94118 0.593851 4 0.00545249 2 0 0.0994487 -0.283924
141 1 11.928 2.64099 0.742299 4 0.00480212 2 0 0.0994487 -0.0386627
142 1 11.9239 1.9206 1.46509 4 0.00371814 2 0 0.0994487 0.0946624
143 1 12.8449 3.01766 1.68597 4 0.00790249 2 0 0.0994487 0.0363628
144 1 13.1791 3.03035 0.848852 4 0.00929457 2 0 0.0994487 -0.440836
145 1 13.3784 1.9912 1.48064 4 0.00701051 2 0 0.0994487 -0.0150644
146 1 14.0206 2.44438 0.927124 4 0.010354 2 0 0.0994487 -0.13307
147 1 14.0279 3.38359 1.55716 4 0.0141217 2 0 0.0994487 0.0255808
148 1 14.6961 3.43698 0.884932 4 0.0183557 2 0 0.0994487 -0.332913
149 1 14.7823 2.29758 1.44821 4 0.0125446 2 0 0.0994487 0.0469322
150 1 14.8418 2.51505 0.136557 4 0.0135999 2 0 0.0994487 0.17301
151 1 14.1591 3.2262 0.0325348 4 0.01412 2 0 0.0994487 -0.246101
152 1 13.4137 2.29398 0.0590902 4 0.00804419 2 0 0.0994487 -0.280958
153 1 15.6993 2.44373 0.692668 4 0.0177746 2 0 0.0994487 0.364403
154 1 16.3029 3.20095 0.662084 4 0.0273164 2 0 0.0994487 0.328595
155 1 16.308 2.47951 1.52575 4 0.0222762 2 0 0.0994487 -0.100643
156 1 15.3694 3.25723 1.50191 4 0.0215689 2 0 0.0994487 -0.00766402
157 1 15.5706 3.25854 0.0192499 4 0.0209674 2 0 0.0994487 0.29024
158 1 17.0646 2.35032 0.682778 4 0.026029 2 0 0.0994487 0.0234856
159 1 17.944 2.92608 0.699539 4 0.0401817 2 0 0.0994487 -0.231188
160 1 18.0193 2.43917 1.58112 4 0.0341971 2 0 0.0994487 -0.149132
161 1 17.0918 3.1162 1.49491 4 0.0345979 2 0 0.0994487 -0.14343
162 1 18.8908 2.35742 1.01358 4 0.0387338 2 0 0.0994487 -0.516831
163 1 19.7027 3.2427 1.27782 4 0.0570673 2 0 0.0994487 0.394879
164 1 18.884 2.99607 0.196019 4 0.047861 2 0 0.0994487 -0.171809
165 1 19.587 2.34239 0.101452 4 0.0417634 2 0 0.0994487 -0.132371
166 1 20.3251 1.78863 1.72442 4 0.0362305 2 0 0.0994487 0.0449529
167 1 21.1565 2.41663 0.458355 4 0.0486651 2 0 0.0994487 0.196187
168 1 20.1948 2.46882 1.11433 4 0.045344 2 0 0.0994487 0.28674
169 1 21.31 3.29463 1.39314 4 0.0706628 2 0 0.0994487 0.0777281
170 1 20.4222 2.99313 0.334941 4 0.0555841 2 0 0.0994487 0.18629
171 1 22.8719 2.07007 1.50872 4 0.0468373 2 0 0.0994487 -0.0221245
172 1 22.9717 2.60199 0.735523 4 0.0595031 2 0 0.0994487 0.133324
173 1 22.0961 2.49917 1.23787 4 0.0546777 2 0 0.0994487 0.186436
174 1 21.9898 3.20043 0.598797 4 0.0733627 2 0 0.0994487 -0.0757513
175 1 22.6771 3.40124 0.07601 4 0.0813286 2 0 0.0994487 0.076073
176 1 23.7438 1.80844 0.624025 4 0.0416047 2 0 0.0994487 -0.0873605
177 1 24.4289 1.98763 1.61102 4 0.043199 2 0 0.0994487 -0.0641766
178 1 24.342 2.68296 0.775192 4 0.0560246 2 0 0.0994487 -0.341095
179 1 23.6887 2.90303 1.53628 4 0.0640328 2 0 0.0994487 -0.110506
180 1 24.4728 3.51078 1.55704 4 0.0777918 2 0 0.0994487 -0.118306
181 1 24.9562 2.84566 0.0146836 4 0.0540723 2 0 0.0994487 -0.08646
182 1 26.5483 1.79415 0.511367 4 0.0290541 2 0 0.0994487 -0.00560154
183 1 25.1322 1.85613 0.509414 4 0.0386181 2 0 0.0994487 -0.0215303
184 1 25.7918 2.61203 0.707489 4 0.0460977 2 0 0.0994487 0.228199
185 1 25.1579 2.55548 1.52547 4 0.049463 2 0 0.0994487 0.0576656
186 1 25.7213 3.49812 1.51211 4 0.0663075 2 0 0.0994487 0.123856
187 1 26.5364 2.56002 1.53049 4 0.0383887 2 0 0.0994487 0.0579462
188 1 26.1686 3.50068 0.599043 4 0.0608323 2 0 0.0994487 0.168843
189 1 27.5039 1.98546 1.23792 4 0.0245796 2 0 0.0994487 -0.186421
190 1 28.2489 2.09022 0.343734 4 0.0212478 2 0 0.0994487 -0.0177255
191 1 27.0867 2.6924 0.645359 4 0.0349132 2 0 0.0994487 -0.105603
192 1 27.1998 3.35397 1.41682 4 0.0431665 2 0 0.0994487 -0.0983304
193 1 28.2537 2.75799 1.20639 4 0.0259784 2 0 0.0994487 -0.418309
194 1 27.982 3.21993 0.326384 4 0.0320677 2 0 0.0994487 -0.125258
195 1 29.9568 1.80906 1.70764 4 0.0135423 2 0 0.0994487 0.183201
196 1 29.4477 2.04702 0.879698 4 0.0161456 2 0 0.0994487 -0.00708577
197 1 29.1956 2.6589 0.290703 4 0.0197377 2 0 0.0994487 -0.057829
198 1 29.2495 3.2651 1.17365 4 0.0235147 2 0 0.0994487 0.118631
199 1 30.9114 1.98502 0.924207 4 0.0125856 2 0 0.0994487 0.967251
200 1 30.1815 2.71094 1.00186 4 0.0165012 2 0 0.0994487 0.675109
201 1 31.0247 3.35309 0.97101 4 0.0172635 2 0 0.0994487 0.998409
202 1 30.9865 2.69483 1.72648 4 0.0146811 2 0 0.0994487 0.578501
203 1 30.1092 3.25953 0.132205 4 0.0184124 2 0 0.0994487 -0.0443662
204 1 30.4116 1.90909 0.0255368 4 0.0126982 2 0 0.0994487 0.106044
205 1 31.1434 2.66402 0.0761253 4 0.0138259 2 0 0.0994487 0.70882
206 1 0.293831 3.78503 0.918557 4 1.15404e-05 2 0 0.0994487 -0.999347
207 1 0.143046 4.59443 0.482118 4 1.33451e-05 2 0 0.0994487 -0.784494
208 1 1.14036 4.67093 0.986638 4 2.23418e-05 2 0 0.0994487 -0.516749
209 1 0.0884667 5.26681 1.27761 4 1.59155e-05 2 0 0.0994487 -0.887458
210 1 1.04069 3.86421 0.0595682 4 1.49558e-05 2 0 0.0994487 0.0148885
211 1 1.84117 4.04604 0.847105 4 2.83852e-05 2 0 0.0994487 0.00827447
212 1 2.54049 4.85585 1.13748 4 5.65395e-05 2 0 0.0994487 -0.333842
213 1 2.64953 4.14475 0.20674 4 4.92019e-05 2 0 0.0994487 -0.0285706
214 1 1.89758 4.96895 0.278386 4 3.9134e-05 2 0 0.0994487 -0.153432
215 1 3.40771 4.86189 0.161635 4 9.76029e-05 2 0 0.0994487 -0.0163859
216 1 3.494 4.07675 0.885909 4 8.21873e-05 2 0 0.0994487 0.0269023
217 1 4.91235 4.00001 1.18344 4 0.000194161 2 0 0.0994487 0.0115275
218 1 4.04658 4.88002 1.14639 4 0.000146959 2 0 0.0994487 0.264496
219 1 4.26027 4.18509 0.149001 4 0.000135822 2 0 0.0994487 0.0377404
220 1 5.00947 4.74001 0.341082 4 0.000256933 2 0 0.0994487 0.0765441
221 1 5.77735 3.9378 0.198707 4 0.000294316 2 0 0.0994487 0.0260185
222 1 6.48883 3.76611 0.772067 4 0.000436921 2 0 0.0994487 0.204563
223 1 5.68025 4.73638 1.02487 4 0.000395424 2 0 0.0994487 -0.621647
224 1 6.66321 4.5115 1.6428 4 0.000611398 2 0 0.0994487 0.158938
225 1 6.68072 5.1315 0.885352 4 0.000791756 2 0 0.0994487 0.206879
226 1 8.1982 3.892 0.700757 4 0.00124459 2 0 0.0994487 -0.369888
227 1 7.40842 4.46072 0.5468 4 0.000967137 2 0 0.0994487 -0.0252053
228 1 7.39886 3.87029 1.49684 4 0.000764503 2 0 0.0994487 0.102584
229 1 8.20004 4.61106 1.48677 4 0.001563 2 0 0.0994487 -0.0118298
230 1 9.8976 3.57792 0.885667 4 0.00255091 2 0 0.0994487 0.592871
231 1 9.07913 4.56551 0.821335 4 0.00243387 2 0 0.0994487 -0.658515
232 1 9.86266 4.50302 0.126324 4 0.00318233 2 0 0.0994487 0.0958707
233 1 9.07829 3.76256 1.49819 4 0.00184571 2 0 0.0994487 -0.0708792
234 1 9.86881 4.3462 1.65532 4 0.00333145 2 0 0.0994487 -0.0856562
235 1 8.98541 3.86821 0.0631775 4 0.00176415 2 0 0.0994487 -0.138749
236 1 11.408 3.64493 0.778297 4 0.00536131 2 0 0.0994487 0.202079
237 1 10.5891 4.66652 0.906264 4 0.00513563 2 0 0.0994487 0.045128
238 1 11.3867 4.69403 0.230734 4 0.00749653 2 0 0.0994487 -0.0498823
239 1 10.7059 3.56689 1.58785 4 0.00378333 2 0 0.0994487 -0.0448417
240 1 11.3652 4.3716 1.70545 4 0.00671461 2 0 0.0994487 -0.0798201
241 1 11.3894 5.27213 0.983682 4 0.00903367 2 0 0.0994487 -0.674446
242 1 10.5826 3.84888 0.176129 4 0.00369526 2 0 0.0994487 0.210472
243 1 12.5168 3.57716 0.814749 4 0.0085923 2 0 0.0994487 -0.0105631
244 1 12.1916 4.55033 1.00021 4 0.0102628 2 0 0.0994487 0.105102
245 1 12.7362 4.99738 1.68903 4 0.0140226 2 0 0.0994487 0.191337
246 1 13.2258 4.67863 0.80017 4 0.0165042 2 0 0.0994487 -0.00466643
247 1 12.6435 4.61885 0.0632315 4 0.0129192 2 0 0.0994487 -0.0335744
248 1 13.9891 4.12825 0.69648 4 0.0186468 2 0 0.0994487 -0.430164
249 1 13.4832 4.21781 1.59317 4 0.0151661 2 0 0.0994487 0.0820253
250 1 14.2046 5.11838 1.52001 4 0.0273014 2 0 0.0994487 -0.0289825
251 1 14.9402 5.01141 0.811699 4 0.0341897 2 0 0.0994487 -0.0525757
252 1 14.9642 4.4167 1.59432 4 0.0283634 2 0 0.0994487 -0.0635569
253 1 14.1405 4.90647 0.0597868 4 0.0249457 2 0 0.0994487 -0.0856889
254 1 14.961 4.19423 0.096508 4 0.0253182 2 0 0.0994487 0.0322768
255 1 15.6685 4.06642 0.926277 4 0.0310407 2 0 0.0994487 0.872627
256 1 15.8798 4.77595 0.186426 4 0.0416371 2 0 0.0994487 0.165394
257 1 16.5936 4.58036 0.900182 4 0.0495819 2 0 0.0994487 -0.0789553
258 1 16.3184 3.95875 1.6903 4 0.0369087 2 0 0.0994487 -0.0433938
259 1 15.8111 5.05317 1.64084 4 0.0449723 2 0 0.0994487 0.0995028
260 1 17.2689 3.83372 0.811237 4 0.0468387 2 0 0.0994487 -0.345381
261 1 18.0864 4.48855 1.09806 4 0.0688959 2 0 0.0994487 -0.612147
262 1 17.9525 3.63794 1.65602 4 0.0507263 2 0 0.0994487 -0.192804
263 1 17.4569 4.57727 0.0147963 4 0.0598439 2 0 0.0994487 -0.0974098
264 1 18.1348 3.8547 0.0583493 4 0.055432 2 0 0.0994487 -0.120517
265 1 18.8779 3.70667 0.95022 4 0.0603669 2 0 0.0994487 0.0692297
266 1 18.8235 4.60949 0.361826 4 0.079756 2 0 0.0994487 0.115609
267 1 19.6906 4.67872 1.0803 4 0.101658 2 0 0.0994487 0.931516
268 1 18.7859 5.27693 1.20102 4 0.106387 2 0 0.0994487 0.599069
269 1 19.5987 3.76722 0.227421 4 0.0669229 2 0 0.0994487 0.164269
270 1 20.4384 3.82188 1.23329 4 0.0803449 2 0 0.0994487 0.325951
271 1 20.8846 4.71868 1.39403 4 0.131327 2 0 0.0994487 0.149056
272 1 21.5775 4.95128 0.810455 4 0.165283 2 0 0.0994487 -0.00375769
273 1 21.0824 3.93136 0.512408 4 0.0918558 2 0 0.0994487 0.0883019
274 1 20.1339 4.78559 0.352846 4 0.114709 2 0 0.0994487 0.145586
275 1 22.8205 3.63186 1.42135 4 0.0905872 2 0 0.0994487 -0.0184013
276 1 21.9406 4.13318 1.31068 4 0.111712 2 0 0.0994487 0.0272021
277 1 22.4705 5.17735 1.27286 4 0.192933 2 0 0.0994487 0.0207023
278 1 22.6119 4.34705 0.510028 4 0.125779 2 0 0.0994487 -0.0221083
279 1 23.5735 3.63903 0.782677 4 0.0907202 2 0 0.0994487 0.185554
280 1 24.336 4.32055 0.625018 4 0.116816 2 0 0.0994487 -0.150097
281 1 23.4679 4.54946 1.33355 4 0.138893 2 0 0.0994487 -0.0790588
282 1 24.8518 5.25716 0.566763 4 0.160394 2 0 0.0994487 0.0409029
283 1 23.5518 5.06386 0.533607 4 0.17521 2 0 0.0994487 -0.0968923
284 1 25.0086 4.50055 1.62342 4 0.113787 2 0 0.0994487 -0.0421971
285 1 25.0629 3.68037 0.802132 4 0.0791477 2 0 0.0994487 -0.187922
286 1 24.363 5.28843 1.43377 4 0.177228 2 0 0.0994487 -0.154714
287 1 25.6904 5.1389 1.34266 4 0.131142 2 0 0.0994487 0.210096
288 1 26.3575 4.29031 1.37159 4 0.0797934 2 0 0.0994487 0.149479
289 1 26.5026 4.97257 0.640732 4 0.0990714 2 0 0.0994487 0.0989636
290 1 25.5284 4.40089 0.388179 4 0.0985034 2 0 0.0994487 0.0559457
291 1 27.3302 4.86961 1.40568 4 0.0758671 2 0 0.0994487 0.00660725
292 1 27.9624 3.97641 1.10408 4 0.0435695 2 0 0.0994487 -0.30951
293 1 28.2771 4.73475 0.706344 4 0.0537847 2 0 0.0994487 -0.0812503
294 1 27.0674 4.04323 0.570038 4 0.0591161 2 0 0.0994487 0.0120199
295 1 28.9321 3.77016 0.487204 4 0.0300429 2 0 0.0994487 -0.00703388
296 1 29.0873 4.52317 1.33085 4 0.038323 2 0 0.0994487 0.057484
297 1 29.9979 4.07209 1.02303 4 0.025134 2 0 0.0994487 -0.275234
298 1 31.0296 3.97382 0.373364 4 0.020081 2 0 0.0994487 0.657583
299 1 30.2046 4.67765 0.491317 4 0.0297053 2 0 0.0994487 0.00995756
300 1 30.9783 4.59929 1.41131 4 0.0245304 2 0 0.0994487 0.679914
301 1 0.908283 5.53205 0.461647 4 2.60841e-05 2 0 0.0994487 -0.463784
302 1 1.53161 5.51184 1.37971 4 3.58789e-05 2 0 0.0994487 -0.117386
303 1 0.793684 6.22023 1.2768 4 3.02854e-05 2 0 0.0994487 -0.70338
304 1 0.257003 6.91734 1.50738 4 2.82817e-05 2 0 0.0994487 -0.772633
305 1 0.969942 6.9454 0.573423 4 4.06237e-05 2 0 0.0994487 -0.473532
306 1 1.7053 7.02884 1.23811 4 5.90913e-05 2 0 0.0994487 0.0665199
307 1 1.89588 6.19966 0.519025 4 5.52475e-05 2 0 0.0994487 -0.156398
308 1 3.10475 5.61709 1.30057 4 9.8369e-05 2 0 0.0994487 0.0402555
309 1 2.26359 6.15348 1.40977 4 6.50328e-05 2 0 0.0994487 0.0408576
310 1 3.25442 6.96226 1.12748 4 0.000167784 2 0 0.0994487 -0.0541198
311 1 2.68177 5.61289 0.273587 4 7.63372e-05 2 0 0.0994487 -0.0596838
312 1 3.39503 6.28191 0.500536 4 0.000154697 2 0 0.0994487 -0.12144
313 1 4.18979 5.46246 0.325783 4 0.000196025 2 0 0.0994487 0.0310212
314 1 4.93434 5.42873 1.31778 4 0.000330137 2 0 0.0994487 -0.235095
315 1 4.13622 6.09659 1.22779 4 0.000240127 2 0 0.0994487 -0.0893846
316 1 4.82567 6.23357 0.333842 4 0.000375218 2 0 0.0994487 -0.0345717
317 1 4.77312 6.79931 1.15967 4 0.000445668 2 0 0.0994487 -0.305924
318 1 4.00267 7.02511 0.221759 4 0.0002743 2 0 0.0994487 -0.085341
319 1 5.78575 5.42185 0.301847 4 0.000509522 2 0 0.0994487 0.0125063
320 1 5.6935 6.24342 0.9632 4 0.000644985 2 0 0.0994487 -0.967778
321 1 6.4578 5.98425 1.59671 4 0.000897763 2 0 0.0994487 0.140919
322 1 6.43234 6.86927 1.00965 4 0.00118347 2 0 0.0994487 0.851687
323 1 6.37773 6.04115 0.154639 4 0.000807405 2 0 0.0994487 0.111116
324 1 5.54993 7.05206 0.147147 4 0.000691351 2 0 0.0994487 0.0363899
325 1 8.21355 5.31419 0.694273 4 0.00200608 2 0 0.0994487 -0.0895749
326 1 7.32761 6.15925 0.754293 4 0.00157009 2 0 0.0994487 0.225746
327 1 7.39163 5.41839 1.49138 4 0.00127974 2 0 0.0994487 0.13676
328 1 8.23884 6.11028 1.49159 4 0.00263035 2 0 0.0994487 0.0187458
329 1 8.01352 6.85364 0.728993 4 0.00295486 2 0 0.0994487 0.0692012
330 1 7.28191 6.86379 1.59601 4 0.00200049 2 1 0.0994487 0.126055
331 1 7.33029 5.3575 0.0461812 4 0.00113279 2 0 0.0994487 0.0813606
332 1 9.76796 5.3194 0.792562 4 0.00425845 2 0 0.0994487 0.328473
333 1 8.88016 6.18865 0.736908 4 0.00377834 2 0 0.0994487 -0.235524
334 1 9.05434 5.3271 1.5973 4 0.00309473 2 0 0.0994487 -0.0628245
335 1 9.73844 6.19052 1.46731 4 0.0058363 2 0 0.0994487 -0.10644
336 1 9.09351 6.95013 1.463 4 0.00559271 2 2 0.0994487 -0.0758594
337 1 9.76329 6.23201 0.0941385 4 0.00563082 2 0 0.0994487 -0.0359455
338 1 8.99733 5.46479 0.012702 4 0.0030229 2 0 0.0994487 -0.13475
339 1 10.5831 6.02196 0.964384 4 0.00800461 2 0 0.0994487 -0.356359
340 1 11.3128 6.37134 0.0776634 4 0.010959 2 0 0.0994487 0.100347
341 1 10.5187 6.94145 0.15452 4 0.00968188 2 0 0.0994487 -0.0735287
342 1 10.4686 6.92564 1.49614 4 0.0104107 2 1 0.0994487 -0.0634546
343 1 11.9994 5.6274 0.183157 4 0.0123027 2 0 0.0994487 -0.0105242
344 1 12.6757 5.81849 0.861776 4 0.0180518 2 0 0.0994487 0.0817777
345 1 11.7774 6.20735 1.05291 4 0.0137273 2 0 0.0994487 0.292259
346 1 13.3219 5.86668 1.55471 4 0.0234787 2 0 0.0994487 0.208177
347 1 13.3506 6.58297 0.813679 4 0.0314136 2 0 0.0994487 -0.292081
348 1 13.3212 5.53867 0.0424813 4 0.0217948 2 0 0.0994487 -0.142904
349 1 14.0617 5.71565 0.77266 4 0.0313234 2 0 0.0994487 -0.372574
350 1 14.3278 6.65176 1.40646 4 0.0490038 2 1 0.0994487 -0.103108
351 1 14.1303 6.38483 0.0380077 4 0.0371703 2 0 0.0994487 -0.0826052
352 1 15.0282 5.64393 0.034369 4 0.0415731 2 0 0.0994487 0.0573691
353 1 15.8305 5.73813 0.95832 4 0.058807 2 0 0.0994487 0.6258
354 1 15.0472 6.45091 0.806774 4 0.0576141 2 0 0.0994487 -0.176021
355 1 16.491 6.45257 1.1401 4 0.0952739 2 0 0.0994487 0.208319
356 1 15.1058 5.87594 1.69804 4 0.0503308 2 0 0.0994487 -0.0976518
357 1 16.62 5.41933 0.276819 4 0.0645876 2 0 0.0994487 0.079924
358 1 15.6753 6.3382 0.0390223 4 0.0643593 2 0 0.0994487 0.0398562
359 1 17.8271 5.30128 0.541411 4 0.0839917 2 0 0.0994487 0.150326
360 1 17.113 5.42499 1.24767 4 0.0766649 2 0 0.0994487 -0.286572
361 1 17.0619 6.27419 0.411469 4 0.100152 2 0 0.0994487 0.13895
362 1 17.6649 6.24649 1.38542 4 0.120505 2 0 0.0994487 -0.254913
363 1 18.2745 7.0517 1.13153 4 0.18318 2 0 0.0994487 0.640278
364 1 18.3714 6.23173 0.609762 4 0.140105 2 0 0.0994487 0.156177
365 1 19.429 5.75829 0.62055 4 0.150656 2 0 0.0994487 0.0571836
366 1 19.3279 6.55755 1.35081 4 0.202849 2 0 0.0994487 0.275788
367 1 19.9942 6.75229 0.610261 3 0.267986 2 0 0.0993406 -0.0120719
368 1 20.7494 5.77593 0.653722 4 0.21132 2 0 0.0994487 -0.10407
369 1 20.1931 5.61076 1.39557 4 0.171074 2 0 0.0994487 0.312022
370 1 20.7787 6.6124 1.30355 3 0.318193 2 0 0.0989134 -0.344451
371 1 21.6592 6.66248 0.666524 3 0.339132 2 0 0.0986623 -0.0434677
372 1 21.6631 5.87866 1.38528 3 0.26333 2 0 0.0993705 0.0420498
373 1 21.6904 5.73259 0.0517844 4 0.228782 2 0 0.0994487 -0.00150294
374 1 22.6732 5.8279 0.674154 3 0.25419 2 0 0.0994253 0.00265029
375 1 22.6319 6.69333 1.20734 3 0.373781 2 0 0.0981147 -0.201876
376 1 23.3484 6.78052 0.267835 3 0.343099 2 0 0.0986087 -0.12538
377 1 23.4822 5.88496 1.30013 3 0.259263 2 0 0.0993955 -0.176391
378 1 24.3197 6.56281 1.15825 3 0.29135 2 0 0.0991679 0.173556
379 1 24.1457 6.00685 0.427617 4 0.241735 2 0 0.0994487 0.002434
380 1 25.6831 5.86213 0.700952 4 0.170578 2 0 0.0994487 0.163892
381 1 25.1124 6.04132 1.67733 4 0.205991 2 0 0.0994487 0.0036654
382 1 25.1593 6.74159 0.495153 3 0.252407 2 0 0.0994354 0.0903863
383 1 25.8251 6.59457 1.40775 4 0.207742 2 0 0.0994487 0.088096
384 1 26.6903 5.84511 1.4763 4 0.131458 2 0 0.0994487 0.0917583
385 1 27.4966 5.54334 0.722172 4 0.0900647 2 0 0.0994487 -0.251577
386 1 26.7485 6.36567 0.651888 4 0.15082 2 0 0.0994487 0.0387465
387 1 27.7011 6.47315 1.36539 4 0.115371 2 0 0.0994487 0.13149
388 1 28.3648 5.52203 1.4872 4 0.068263 2 0 0.0994487 0.0456317
389 1 27.7097 7.0074 0.530173 4 0.130709 2 0 0.0994487 0.0321202
390 1 29.3889 5.30889 0.818726 4 0.0472026 2 0 0.0994487 0.316722
391 1 29.4379 6.18214 1.32212 4 0.0582102 2 0 0.0994487 -0.00338229
392 1 29.5784 6.89773 0.506505 4 0.0666828 2 0 0.0994487 0.092585
393 1 28.4685 6.20589 0.638647 4 0.0791517 2 0 0.0994487 -0.270085
394 1 29.3762 6.15398 0.0801838 4 0.0583439 2 0 0.0994487 0.0969256
395 1 28.4822 5.38976 0.0592959 4 0.0609027 2 0 0.0994487 -0.105004
396 1 30.9636 5.36838 0.595026 4 0.0330436 2 0 0.0994487 0.667849
397 1 30.2159 5.45949 1.46813 4 0.0382486 2 0 0.0994487 0.0540208
398 1 30.3958 6.18258 0.649752 4 0.045703 2 0 0.0994487 0.328999
399 1 31.2189 6.15516 1.38439 4 0.038244 2 0 0.0994487 0.587257
400 1 31.1994 6.95407 0.60342 4 0.0466423 2 0 0.0994487 0.812251
401 1 31.7235 5.99622 0.446564 4 0.0344608 2 0 0.0994487 0.879729
402 1 0.261851 7.63199 0.661866 4 3.49282e-05 2 0 0.0994487 -0.876373
403 1 0.831025 8.46344 0.61936 4 5.0869e-05 2 0 0.0994487 -0.577625
404 1 1.11211 7.86396 1.49711 4 5.01944e-05 2 0 0.0994487 -0.154428
405 1 0.356955 8.5626 1.47035 4 4.15763e-05 2 0 0.0994487 -0.764984
406 1 1.59266 7.76478 0.37187 4 6.67498e-05 2 0 0.0994487 -0.0897867
407 1 1.72382 8.61735 1.46471 4 8.24875e-05 2 0 0.0994487 0.0395982
408 1 2.48799 7.14986 0.476331 4 0.000106186 2 0 0.0994487 -0.0836933
409 1 2.19177 8.6335 0.399707 4 0.000116119 2 0 0.0994487 -0.137266
410 1 2.39416 7.81099 1.27726 4 0.00011169 2 0 0.0994487 0.0869945
411 1 3.01349 8.51445 0.935533 4 0.00019669 2 0 0.0994487 -0.539303
412 1 3.24418 7.77117 0.327041 4 0.000200116 2 0 0.0994487 -0.196202
413 1 3.81243 8.45898 0.0822892 4 0.000305286 2 0 0.0994487 -0.0457763
414 1 3.97971 7.67009 1.24863 4 0.00031399 2 0 0.0994487 -0.0554851
415 1 4.70459 8.25653 0.921772 4 0.000548366 2 0 0.0994487 0.295362
416 1 4.67023 7.63706 0.247803 4 0.000463367 2 0 0.0994487 0.037696
417 1 3.81127 8.34851 1.76162 4 0.000305708 2 0 0.0994487 -0.0574341
418 1 5.86955 8.34822 0.169905 4 0.00108474 2 0 0.0994487 0.113109
419 1 5.48363 7.59071 1.03232 4 0.000818082 2 0 0.0994487 -0.467647
420 1 6.49365 7.53799 0.169175 4 0.0013627 2 0 0.0994487 0.187628
421 1 6.39674 8.23976 1.04384 4 0.00166306 2 0 0.0994487 0.338184
422 1 7.28583 7.76918 0.746313 4 0.00259775 2 1 0.0994487 0.00995857
423 1 8.2859 8.31376 0.868772 4 0.00527624 2 2 0.0994487 0.278655
424 1 7.27857 8.18368 1.7015 4 0.00320005 2 2 0.0994487 -0.174722
425 1 8.05208 7.48784 1.5604 4 0.0038441 2 1 0.0994487 0.185083
426 1 7.99895 7.60312 0.0282118 4 0.00332452 2 0 0.0994487 0.0674174
427 1 9.84313 7.22199 0.72344 4 0.00845221 2 1 0.0994487 -0.346906
428 1 8.91207 7.61626 0.661731 4 0.00590062 2 1 0.0994487 0.158654
429 1 9.73234 8.61964 0.693151 4 0.0116501 2 3 0.0994487 -0.257166
430 1 9.09265 8.69904 1.44495 4 0.00968056 2 9 0.0994487 -0.394968
431 1 9.64026 7.88932 1.60055 4 0.0105507 2 8 0.0994487 -0.340487
432 1 11.3161 7.14287 0.810636 4 0.0149213 2 1 0.0994487 0.448588
433 1 10.5731 7.9454 0.844311 4 0.0141503 2 3 0.0994487 -0.198174
434 1 10.5877 8.70196 1.4255 4 0.0178201 1 8 0.0994487 -0.146208
435 1 11.4057 7.80503 1.60301 4 0.0207027 2 7 0.0994487 0.22848
436 1 11.227 8.11851 0.0422735 4 0.016936 2 0 0.0994487 0.174339
437 1 12.7061 7.28322 0.565784 4 0.0298224 2 0 0.0994487 -0.0531236
438 1 12.178 8.23518 0.590765 4 0.0292346 2 2 0.0994487 0.163969
439 1 12.0637 7.15788 1.37768 4 0.0218573 2 3 0.0994487 0.145742
440 1 12.0887 8.68064 1.49044 4 0.034326 1 8 0.0994487 0.0821155
441 1 12.8601 7.99585 1.47598 4 0.0423848 2 6 0.0994487 -0.216936
442 1 14.3373 7.3542 0.580954 4 0.0574121 2 0 0.0994487 0.0649188
443 1 13.6169 8.09282 0.464536 4 0.0522233 2 2 0.0994487 0.0237805
444 1 13.458 7.34024 1.34133 4 0.0437425 2 2 0.0994487 0.0545521
445 1 14.2471 8.18371 1.35246 4 0.0752898 2 5 0.0994487 0.0240992
446 1 16.4328 7.18497 0.276798 4 0.113445 2 0 0.0994487 -0.0624268