ITEM: TIMESTEP
31000
ITEM: NUMBER OF ATOMS
9495
ITEM: BOX BOUNDS mm mm mm
0.0000000000000000e+00 3.1748021039364001e+01
0.0000000000000000e+00 3.1748021039364001e+01
-7.4072398406925706e-04 3.1748021039364001e+01
ITEM: ATOMS id type x y z c_phase c_temp c_surf c_nbond c_visc f_3[1]
1 1 0.116341 1.10259 0.464337 4 1.52011e-05 2 0 0.0994487 -0.68194
2 1 0.974108 1.6685 0.77798 4 2.49428e-05 2 0 0.0994487 -0.517031
3 1 0.714648 0.793562 1.41295 4 1.79234e-05 2 0 0.0994487 -0.281794
4 1 0.00336375 1.60273 1.37437 4 1.69599e-05 2 0 0.0994487 -0.804051
5 1 0.729896 0.0633724 0.61602 4 1.38627e-05 3 0 0.0994487 -0.190374
6 1 1.71015 0.808983 1.0155 4 3.05456e-05 2 0 0.0994487 -0.332068
7 1 1.80059 1.47468 0.221075 4 3.37837e-05 2 0 0.0994487 -0.125828
8 1 1.82015 1.66049 1.76126 4 3.69584e-05 2 0 0.0994487 -0.139532
9 1 2.52093 0.749102 0.203812 4 4.23793e-05 2 0 0.0994487 -0.142939
10 1 2.59149 0.0538711 1.03726 4 4.15506e-05 2 0 0.0994487 -0.295004
11 1 2.64922 1.541 0.882848 4 5.5542e-05 2 0 0.0994487 0.23576
12 1 2.66829 0.815502 1.7457 4 4.84095e-05 2 0 0.0994487 -0.18704
13 1 3.43386 0.933692 0.956349 4 7.65039e-05 2 0 0.0994487 0.320246
14 1 3.49924 0.0925696 1.70571 4 6.04748e-05 2 0 0.0994487 0.178054
15 1 3.60652 1.70798 1.71994 4 9.96255e-05 2 0 0.0994487 0.0487962
16 1 4.10576 0.858321 0.325305 4 0.00011025 2 0 0.0994487 0.153147
17 1 4.96159 0.56786 1.17466 4 0.000189115 2 0 0.0994487 -0.037065
18 1 4.91949 1.59987 0.383508 4 0.00022334 2 0 0.0994487 -0.100246
19 1 4.3472 0.941527 1.62884 4 0.000132192 2 0 0.0994487 0.11074
20 1 3.47612 0.111428 0.171027 4 5.75376e-05 2 0 0.0994487 0.166216
21 1 5.64741 0.645627 0.325839 4 0.000279422 2 0 0.0994487 -0.0806035
22 1 5.88414 1.31048 0.938036 4 0.000356365 2 0 0.0994487 -0.199573
23 1 6.57478 1.39104 0.218369 4 0.000513537 2 0 0.0994487 -0.0861316
24 1 5.78374 0.460658 1.69897 4 0.000283114 2 0 0.0994487 -0.0846511
25 1 5.03122 1.72414 1.43602 4 0.000237983 2 0 0.0994487 0.0453745
26 1 6.7138 0.39031 0.865278 4 0.000468428 2 0 0.0994487 -0.0793801
27 1 6.69104 1.00962 1.69374 4 0.000489931 2 0 0.0994487 -0.107921
28 1 8.2679 0.408875 1.07337 4 0.000940065 2 0 0.0994487 -0.100164
29 1 7.36782 1.22285 0.954198 4 0.000729174 2 0 0.0994487 -0.302541
30 1 8.24709 1.39092 0.236779 4 0.00111224 2 0 0.0994487 -0.0460619
31 1 8.12868 1.27217 1.60653 4 0.00100486 2 0 0.0994487 -0.00811472
32 1 7.58247 0.647807 0.140287 4 0.000724727 2 0 0.0994487 -0.110934
33 1 8.85849 0.508506 0.273966 4 0.00121885 2 0 0.0994487 -0.0616448
34 1 9.55301 0.3386 0.888639 4 0.00158915 2 0 0.0994487 0.00506605
35 1 9.02586 1.30716 1.1133 4 0.00153711 2 0 0.0994487 -0.0606379
37 1 9.63995 1.37474 0.0900752 4 0.00189069 2 0 0.0994487 0.0992929
38 1 11.2128 0.215893 0.632658 4 0.00308483 2 0 0.0994487 0.203505
39 1 10.3637 1.04743 0.823114 4 0.00248602 2 0 0.0994487 0.539892
40 1 10.523 0.196295 1.44539 4 0.00230753 2 0 0.0994487 0.0644301
41 1 11.2856 1.01846 1.41785 4 0.00381579 2 0 0.0994487 0.16471
42 1 10.5797 1.67706 1.72992 4 0.00321877 2 0 0.0994487 0.118166
43 1 10.2431 0.367861 0.0780499 4 0.00192611 2 0 0.0994487 0.149802
44 1 12.8757 0.211714 0.636805 4 0.00639311 2 0 0.0994487 0.0587896
45 1 12.0457 1.07408 0.506655 4 0.00547474 2 0 0.0994487 -0.0235484
46 1 12.1319 0.316439 1.29957 4 0.00491447 2 0 0.0994487 0.018839
47 1 12.7194 1.19864 1.3723 4 0.00738982 2 0 0.0994487 -0.0305238
48 1 14.3729 0.318493 0.764646 4 0.0109882 2 0 0.0994487 -0.0460368
49 1 13.5924 1.113 0.843618 4 0.0101135 2 0 0.0994487 -0.263047
50 1 14.0399 1.55958 0.167469 4 0.0128149 2 0 0.0994487 -0.0898235
51 1 13.6075 0.359834 1.6352 4 0.0085142 2 0 0.0994487 -0.0562618
52 1 14.3777 1.14948 1.47647 4 0.0124326 2 0 0.0994487 -0.0178253
53 1 14.8761 1.55337 0.662943 4 0.015787 2 0 0.0994487 0.389952
54 1 15.7061 0.770636 0.788259 4 0.0168513 2 0 0.0994487 0.366486
55 1 16.5532 1.54451 0.681338 4 0.0261873 2 0 0.0994487 0.000808652
56 1 15.1422 0.4642 1.64149 4 0.0133374 2 0 0.0994487 0.152079
57 1 16.547 0.712289 1.3421 4 0.0220514 2 0 0.0994487 0.0956287
58 1 15.6341 1.48544 1.3916 4 0.019419 2 0 0.0994487 0.153634
59 1 15.1049 0.711806 0.0677822 4 0.0133239 2 0 0.0994487 0.169204
60 1 17.2544 0.732268 0.547589 4 0.0264298 2 0 0.0994487 0.0286316
61 1 17.9231 1.58109 0.757246 4 0.0362797 2 0 0.0994487 0.0415661
62 1 17.916 0.742935 1.42801 4 0.0312505 2 0 0.0994487 -0.224375
63 1 17.2202 1.74884 1.56274 4 0.0332084 2 0 0.0994487 -0.0984815
64 1 19.5372 0.0167772 0.662766 4 0.0337764 2 0 0.0994487 0.0436447
65 1 18.7918 0.725074 0.684829 4 0.0350513 2 0 0.0994487 -0.269944
66 1 19.5395 1.55488 0.841653 4 0.0456445 2 0 0.0994487 -0.341158
67 1 19.0276 0.158607 1.54508 4 0.0331972 2 0 0.0994487 -0.158663
68 1 19.5934 0.967491 1.68957 4 0.0398546 2 0 0.0994487 0.00835237
69 1 18.6564 1.51302 1.50035 4 0.040654 2 0 0.0994487 -0.250305
70 1 21.0889 0.349843 1.06749 4 0.0405216 2 0 0.0994487 -0.196125
71 1 20.2493 0.776373 0.980057 4 0.0411244 2 0 0.0994487 -0.0497581
72 1 21.1062 1.65725 0.951506 4 0.0512939 2 0 0.0994487 0.692922
73 1 21.1874 0.765598 0.218806 4 0.0423356 2 0 0.0994487 -0.0445896
74 1 20.3457 1.51479 0.193617 4 0.0477494 2 0 0.0994487 -0.0806011
75 1 22.0087 0.262534 0.539755 4 0.0405662 2 0 0.0994487 0.0993605
76 1 22.7913 0.430275 1.40734 4 0.0417918 2 0 0.0994487 0.206601
77 1 22.1105 1.14763 1.32981 4 0.046491 2 0 0.0994487 0.240027
78 1 21.9982 1.59955 0.538558 4 0.051978 2 0 0.0994487 0.185174
79 1 22.9157 1.07463 0.445168 4 0.0460653 2 0 0.0994487 0.0520864
80 1 24.228 0.380179 1.45209 4 0.0403627 2 0 0.0994487 0.057618
81 1 23.5672 0.357563 0.57369 4 0.0411334 2 0 0.0994487 0.0385724
82 1 24.4367 1.18687 0.754729 4 0.046067 2 0 0.0994487 -0.0192927
83 1 23.4757 1.2499 1.4028 4 0.0485247 2 0 0.0994487 0.0298799
84 1 24.955 0.315686 0.551996 4 0.0374548 2 0 0.0994487 -0.0171975
85 1 26.0085 0.383365 1.1715 4 0.0327417 2 0 0.0994487 -0.185858
86 1 25.169 1.12579 1.48087 4 0.0428077 2 0 0.0994487 0.0251066
87 1 25.9301 1.73476 1.35794 4 0.0447105 2 0 0.0994487 0.034538
88 1 25.8917 0.929212 0.432102 4 0.0363359 2 0 0.0994487 -0.0954184
89 1 27.5736 1.28032 0.38906 4 0.0288539 2 0 0.0994487 0.0454501
90 1 27.6142 0.50928 0.874321 4 0.0256885 2 0 0.0994487 0.175389
91 1 26.7559 1.02809 1.26347 4 0.0318198 2 0 0.0994487 -0.236884
92 1 28.3748 0.337482 1.39813 4 0.0213841 2 0 0.0994487 0.00984501
93 1 26.7925 0.240345 0.226621 4 0.0278259 2 0 0.0994487 0.0380753
94 1 28.6489 1.24263 0.742341 4 0.0235498 2 0 0.0994487 0.102407
95 1 29.3912 0.945639 1.56878 4 0.0189826 2 0 0.0994487 -0.0192003
96 1 28.5228 1.71921 1.49749 4 0.0261121 2 0 0.0994487 -0.04298
97 1 29.8133 0.173958 1.46124 4 0.015899 2 0 0.0994487 0.133416
98 1 29.2734 0.3547 0.615275 4 0.0176519 2 0 0.0994487 -0.0816809
99 1 31.5874 0.266128 1.25663 4 0.0112728 3 0 0.0994487 0.830097
100 1 30.7016 0.49015 0.470738 4 0.0142076 2 0 0.0994487 0.354852
101 1 30.1009 1.19877 0.774133 4 0.0177696 2 0 0.0994487 0.21092
102 1 30.8649 0.971942 1.39386 4 0.0151276 2 0 0.0994487 0.703281
103 1 1.11081 2.43607 0.129285 4 2.91101e-05 2 0 0.0994487 -0.0373219
104 1 0.133403 2.3821 0.812241 4 2.21121e-05 2 0 0.0994487 -0.984517
105 1 1.28845 3.23764 0.949187 4 4.26865e-05 2 0 0.0994487 0.222097
106 1 1.13977 2.36077 1.59162 4 3.19017e-05 2 0 0.0994487 -0.222189
107 1 0.386685 3.02999 1.54944 4 2.85372e-05 2 0 0.0994487 -0.671256
108 1 0.332248 3.09582 0.131296 4 2.67268e-05 2 0 0.0994487 -0.59134
109 1 1.90972 2.41867 0.78376 4 4.58939e-05 2 0 0.0994487 0.0782111
110 1 2.65852 3.28029 0.860875 4 9.35561e-05 2 0 0.0994487 0.0668067
111 1 2.66931 2.22918 1.53373 4 6.69723e-05 2 0 0.0994487 0.0829564
112 1 3.2579 3.42668 1.64938 4 0.000137817 2 0 0.0994487 0.00397667
113 1 2.7261 2.38168 0.0557193 4 6.2951e-05 2 0 0.0994487 0.146601
114 1 3.38195 2.55413 0.779289 4 0.000111911 2 0 0.0994487 0.211586
115 1 4.00679 1.841 0.711184 4 0.000136836 2 0 0.0994487 -0.0361206
116 1 4.91383 2.57277 0.815661 4 0.000286693 2 0 0.0994487 -0.259345
117 1 4.20148 3.3175 0.749446 4 0.000236267 2 0 0.0994487 0.00621826
118 1 4.13245 2.64107 1.58328 4 0.000182153 2 0 0.0994487 0.0270796
119 1 5.65047 2.44269 0.132743 4 0.000407551 2 0 0.0994487 -0.189924
120 1 6.55776 2.18062 0.772597 4 0.000610585 2 0 0.0994487 -0.289367
121 1 5.64874 3.19593 0.952489 4 0.000507935 2 0 0.0994487 -0.754626
122 1 5.861 2.19426 1.49672 4 0.000419774 2 0 0.0994487 0.0126379
123 1 6.52037 3.06691 1.5557 4 0.00075208 2 0 0.0994487 0.0443599
124 1 6.65033 2.92778 0.134227 4 0.000726538 2 0 0.0994487 0.0288886
125 1 7.45405 2.22586 0.139832 4 0.00094325 2 0 0.0994487 -0.0535002
126 1 8.08209 2.20208 0.930382 4 0.00129174 2 0 0.0994487 -0.302055
127 1 7.40132 3.06835 0.934051 4 0.00119234 2 0 0.0994487 -0.0454958
128 1 7.29928 2.06035 1.56856 4 0.000839755 2 0 0.0994487 -0.0607306
129 1 8.18545 3.00183 1.65211 4 0.00169253 2 0 0.0994487 -0.0454136
130 1 8.26934 2.9712 0.0392146 4 0.00174554 2 0 0.0994487 -0.150615
131 1 8.90393 2.08699 0.252387 4 0.0017534 2 0 0.0994487 0.00243581
132 1 9.77243 2.0246 1.10996 4 0.00254119 2 0 0.0994487 0.173473
133 1 8.92671 2.97262 0.928693 4 0.00240141 2 0 0.0994487 -0.156738
134 1 9.03062 2.22066 1.70398 4 0.00195924 2 0 0.0994487 -0.0819659
135 1 9.56096 2.90576 0.21312 4 0.00293698 2 0 0.0994487 0.173123
136 1 10.2834 2.1137 0.214297 4 0.00294314 2 0 0.0994487 0.337741
137 1 11.1583 1.82604 0.771092 4 0.00438706 2 0 0.0994487 0.260094
138 1 10.6214 2.80819 0.921535 4 0.00473775 2 0 0.0994487 0.541926
139 1 11.4444 2.82964 1.57484 4 0.00692475 2 0 0.0994487 0.0952028
140 1 12.6737 1.94118 0.593851 4 0.00903836 2 0 0.0994487 -0.28393
141 1 11.928 2.64099 0.742299 4 0.00803133 2 0 0.0994487 -0.0386697
142 1 11.9239 1.9206 1.46509 4 0.0063672 2 0 0.0994487 0.094657
143 1 12.8449 3.01766 1.68597 4 0.0126791 2 0 0.0994487 0.0363586
144 1 13.1791 3.03035 0.848852 4 0.0146781 2 0 0.0994487 -0.44085
145 1 13.3784 1.9912 1.48064 4 0.0113714 2 0 0.0994487 -0.0150681
146 1 14.0206 2.44438 0.927124 4 0.0161776 2 0 0.0994487 -0.13309
147 1 14.0279 3.38359 1.55716 4 0.0214993 2 0 0.0994487 0.0255763
148 1 14.6961 3.43698 0.884932 4 0.0272653 2 0 0.0994487 -0.332947
149 1 14.7823 2.29758 1.44821 4 0.0192462 2 0 0.0994487 0.046929
150 1 14.8418 2.51505 0.136557 4 0.0207328 2 0 0.0994487 0.173007
151 1 14.1591 3.2262 0.0325348 4 0.0215053 2 0 0.0994487 -0.246104
152 1 13.4137 2.29398 0.0590902 4 0.0128979 2 0 0.0994487 -0.28096
153 1 15.6993 2.44373 0.692668 4 0.0263691 2 0 0.0994487 0.364397
154 1 16.3029 3.20095 0.662084 4 0.0389596 2 0 0.0994487 0.328591
155 1 16.308 2.47951 1.52575 4 0.032333 2 0 0.0994487 -0.100645
156 1 15.3694 3.25723 1.50191 4 0.0315191 2 0 0.0994487 -0.00766754
157 1 15.5706 3.25854 0.0192499 4 0.0307619 2 0 0.0994487 0.290238
158 1 17.0646 2.35032 0.682778 4 0.0371869 2 0 0.0994487 0.0234835
159 1 17.944 2.92608 0.699539 4 0.0550623 2 0 0.0994487 -0.231188
160 1 18.0193 2.43917 1.58112 4 0.0475488 2 0 0.0994487 -0.149133
161 1 17.0918 3.1162 1.49491 4 0.0481871 2 0 0.0994487 -0.143432
162 1 18.8908 2.35742 1.01358 4 0.0530959 2 0 0.0994487 -0.516824
163 1 19.7027 3.2427 1.27782 4 0.0751263 2 0 0.0994487 0.394884
164 1 18.884 2.99607 0.196019 4 0.0643772 2 0 0.0994487 -0.171808
165 1 19.587 2.34239 0.101452 4 0.0567522 2 0 0.0994487 -0.132369
166 1 20.3251 1.78863 1.72442 4 0.0498615 2 0 0.0994487 0.044955
167 1 21.1565 2.41663 0.458355 4 0.064603 2 0 0.0994487 0.19619
168 1 20.1948 2.46882 1.11433 4 0.0608681 2 0 0.0994487 0.286752
169 1 21.31 3.29463 1.39314 4 0.0904041 2 0 0.0994487 0.0777323
170 1 20.4222 2.99313 0.334941 4 0.0730667 2 0 0.0994487 0.186292
171 1 22.8719 2.07007 1.50872 4 0.0620804 2 0 0.0994487 -0.022121
172 1 22.9717 2.60199 0.735523 4 0.0769558 2 0 0.0994487 0.133331
173 1 22.0961 2.49917 1.23787 4 0.071472 2 0 0.0994487 0.186443
174 1 21.9898 3.20043 0.598797 4 0.0933486 2 0 0.0994487 -0.0757458
175 1 22.6771 3.40124 0.07601 4 0.102536 2 0 0.0994487 0.0760748
176 1 23.7438 1.80844 0.624025 4 0.0557066 2 0 0.0994487 -0.0873565
177 1 24.4289 1.98763 1.61102 4 0.0574567 2 0 0.0994487 -0.0641739
178 1 24.342 2.68296 0.775192 4 0.0725716 2 0 0.0994487 -0.341089
179 1 23.6887 2.90303 1.53628 4 0.0820921 2 0 0.0994487 -0.110502
180 1 24.4728 3.51078 1.55704 4 0.0979273 2 0 0.0994487 -0.118303
181 1 24.9562 2.84566 0.0146836 4 0.0702451 2 0 0.0994487 -0.0864587
182 1 26.5483 1.79415 0.511367 4 0.0399748 2 0 0.0994487 -0.00559878
183 1 25.1322 1.85613 0.509414 4 0.0518385 2 0 0.0994487 -0.0215273
184 1 25.7918 2.61203 0.707489 4 0.0605883 2 0 0.0994487 0.228204
185 1 25.1579 2.55548 1.52547 4 0.064709 2 0 0.0994487 0.0576685
186 1 25.7213 3.49812 1.51211 4 0.0844281 2 0 0.0994487 0.123859
187 1 26.5364 2.56002 1.53049 4 0.0512513 2 0 0.0994487 0.0579488
188 1 26.1686 3.50068 0.599043 4 0.0779671 2 0 0.0994487 0.168847
189 1 27.5039 1.98546 1.23792 4 0.0343419 2 0 0.0994487 -0.186417
190 1 28.2489 2.09022 0.343734 4 0.030186 2 0 0.0994487 -0.0177242
191 1 27.0867 2.6924 0.645359 4 0.0469814 2 0 0.0994487 -0.105599
192 1 27.1998 3.35397 1.41682 4 0.0569298 2 0 0.0994487 -0.0983271
193 1 28.2537 2.75799 1.20639 4 0.0360459 2 0 0.0994487 -0.418305
194 1 27.982 3.21993 0.326384 4 0.0435385 2 0 0.0994487 -0.125256
195 1 29.9568 1.80906 1.70764 4 0.0203998 2 0 0.0994487 0.183201
196 1 29.4477 2.04702 0.879698 4 0.0237433 2 0 0.0994487 -0.00708182
197 1 29.1956 2.6589 0.290703 4 0.0283303 2 0 0.0994487 -0.0578279
198 1 29.2495 3.2651 1.17365 4 0.0331063 2 0 0.0994487 0.118636
199 1 30.9114 1.98502 0.924207 4 0.0192129 2 0 0.0994487 0.967251
200 1 30.1815 2.71094 1.00186 4 0.0243069 2 0 0.0994487 0.675112
201 1 31.0247 3.35309 0.97101 4 0.0254584 2 0 0.0994487 0.998409
202 1 30.9865 2.69483 1.72648 4 0.0220562 2 0 0.0994487 0.578502
203 1 30.1092 3.25953 0.132205 4 0.0268116 2 0 0.0994487 -0.0443656
204 1 30.4116 1.90909 0.0255368 4 0.0193489 2 0 0.0994487 0.106045
205 1 31.1434 2.66402 0.0761253 4 0.0209288 2 0 0.0994487 0.70882
206 1 0.293831 3.78503 0.918557 4 3.3982e-05 2 0 0.0994487 -0.999347
207 1 0.143046 4.59443 0.482118 4 3.89634e-05 2 0 0.0994487 -0.784494
208 1 1.14036 4.67093 0.986638 4 6.09956e-05 2 0 0.0994487 -0.516748
209 1 0.0884667 5.26681 1.27761 4 4.59369e-05 2 0 0.0994487 -0.887458
210 1 1.04069 3.86421 0.0595682 4 4.24478e-05 2 0 0.0994487 0.0148883
211 1 1.84117 4.04604 0.847105 4 7.49518e-05 2 0 0.0994487 0.0082724
212 1 2.54049 4.85585 1.13748 4 0.000140265 2 0 0.0994487 -0.333843
213 1 2.64953 4.14475 0.20674 4 0.000123519 2 0 0.0994487 -0.0285712
214 1 1.89758 4.96895 0.278386 4 0.000100927 2 0 0.0994487 -0.153433
215 1 3.40771 4.86189 0.161635 4 0.000230729 2 0 0.0994487 -0.0163868
216 1 3.494 4.07675 0.885909 4 0.000196422 2 0 0.0994487 0.0268986
217 1 4.91235 4.00001 1.18344 4 0.000430784 2 0 0.0994487 0.01152
218 1 4.04658 4.88002 1.14639 4 0.000334069 2 0 0.0994487 0.264493
219 1 4.26027 4.18509 0.149001 4 0.000312026 2 0 0.0994487 0.0377395
220 1 5.00947 4.74001 0.341082 4 0.000559097 2 0 0.0994487 0.0765423
221 1 5.77735 3.9378 0.198707 4 0.000633116 2 0 0.0994487 0.0260171
222 1 6.48883 3.76611 0.772067 4 0.000903672 2 0 0.0994487 0.204558
223 1 5.68025 4.73638 1.02487 4 0.000829167 2 0 0.0994487 -0.62167
224 1 6.66321 4.5115 1.6428 4 0.0012344 2 0 0.0994487 0.158936
225 1 6.68072 5.1315 0.885352 4 0.00156858 2 0 0.0994487 0.206868
226 1 8.1982 3.892 0.700757 4 0.0023546 2 0 0.0994487 -0.369895
227 1 7.40842 4.46072 0.5468 4 0.00187758 2 0 0.0994487 -0.025209
228 1 7.39886 3.87029 1.49684 4 0.00150794 2 0 0.0994487 0.10258
229 1 8.20004 4.61106 1.48677 4 0.0029151 2 0 0.0994487 -0.0118338
230 1 9.8976 3.57792 0.885667 4 0.00452079 2 0 0.0994487 0.592826
231 1 9.07913 4.56551 0.821335 4 0.00437057 2 0 0.0994487 -0.658529
232 1 9.86266 4.50302 0.126324 4 0.00558239 2 0 0.0994487 0.0958675
233 1 9.07829 3.76256 1.49819 4 0.0033728 2 0 0.0994487 -0.0708827
234 1 9.86881 4.3462 1.65532 4 0.00581125 2 0 0.0994487 -0.0856599
235 1 8.98541 3.86821 0.0631775 4 0.00324488 2 0 0.0994487 -0.138752
236 1 11.408 3.64493 0.778297 4 0.00890931 2 0 0.0994487 0.202071
237 1 10.5891 4.66652 0.906264 4 0.0086345 2 0 0.0994487 0.0450964
238 1 11.3867 4.69403 0.230734 4 0.0122075 2 0 0.0994487 -0.0498873
239 1 10.7059 3.56689 1.58785 4 0.00648107 2 0 0.0994487 -0.0448465
240 1 11.3652 4.3716 1.70545 4 0.0110162 2 0 0.0994487 -0.0798253
241 1 11.3894 5.27213 0.983682 4 0.0145541 2 0 0.0994487 -0.674468
242 1 10.5826 3.84888 0.176129 4 0.00635815 2 0 0.0994487 0.210468
243 1 12.5168 3.57716 0.814749 4 0.0136997 2 0 0.0994487 -0.0105727
244 1 12.1916 4.55033 1.00021 4 0.0162187 2 0 0.0994487 0.105064
245 1 12.7362 4.99738 1.68903 4 0.0216411 2 0 0.0994487 0.191331
246 1 13.2258 4.67863 0.80017 4 0.025005 2 0 0.0994487 -0.00469261
247 1 12.6435 4.61885 0.0632315 4 0.0200528 2 0 0.0994487 -0.0335789
248 1 13.9891 4.12825 0.69648 4 0.0278148 2 0 0.0994487 -0.430176
249 1 13.4832 4.21781 1.59317 4 0.0230666 2 0 0.0994487 0.0820192
250 1 14.2046 5.11838 1.52001 4 0.0396425 2 0 0.0994487 -0.0289905
251 1 14.9402 5.01141 0.811699 4 0.0485764 2 0 0.0994487 -0.0527189
252 1 14.9642 4.4167 1.59432 4 0.0407906 2 0 0.0994487 -0.0635615
253 1 14.1405 4.90647 0.0597868 4 0.0365277 2 0 0.0994487 -0.085694
254 1 14.961 4.19423 0.096508 4 0.0367456 2 0 0.0994487 0.0322732
255 1 15.6685 4.06642 0.926277 4 0.0440593 2 0 0.0994487 0.872596
256 1 15.8798 4.77595 0.186426 4 0.0579312 2 0 0.0994487 0.16539
257 1 16.5936 4.58036 0.900182 4 0.0675632 2 0 0.0994487 -0.078976
258 1 16.3184 3.95875 1.6903 4 0.0514668 2 0 0.0994487 -0.0433964
259 1 15.8111 5.05317 1.64084 4 0.0623002 2 0 0.0994487 0.0994994
260 1 17.2689 3.83372 0.811237 4 0.0636648 2 0 0.0994487 -0.345382
261 1 18.0864 4.48855 1.09806 4 0.0904437 2 0 0.0994487 -0.61215
262 1 17.9525 3.63794 1.65602 4 0.0681955 2 0 0.0994487 -0.192804
263 1 17.4569 4.57727 0.0147963 4 0.0800772 2 0 0.0994487 -0.0974095
264 1 18.1348 3.8547 0.0583493 4 0.0740828 2 0 0.0994487 -0.120516
265 1 18.8779 3.70667 0.95022 4 0.0795146 2 0 0.0994487 0.0692427
266 1 18.8235 4.60949 0.361826 4 0.102886 2 0 0.0994487 0.11561
267 1 19.6906 4.67872 1.0803 4 0.12769 2 0 0.0994487 0.931529
268 1 18.7859 5.27693 1.20102 4 0.134521 2 0 0.0994487 0.599127
269 1 19.5987 3.76722 0.227421 4 0.0869818 2 0 0.0994487 0.164271
270 1 20.4384 3.82188 1.23329 4 0.102168 2 0 0.0994487 0.325959
271 1 20.8846 4.71868 1.39403 4 0.160482 2 0 0.0994487 0.149062
272 1 21.5775 4.95128 0.810455 4 0.198253 2 0 0.0994487 -0.00374085
273 1 21.0824 3.93136 0.512408 4 0.115127 2 0 0.0994487 0.0883062
274 1 20.1339 4.78559 0.352846 4 0.142314 2 0 0.0994487 0.145588
275 1 22.8205 3.63186 1.42135 4 0.113009 2 0 0.0994487 -0.0183971
276 1 21.9406 4.13318 1.31068 4 0.137441 2 0 0.0994487 0.0272081
277 1 22.4705 5.17735 1.27286 4 0.228568 2 0 0.0994487 0.0207109
278 1 22.6119 4.34705 0.510028 4 0.153212 2 0 0.0994487 -0.0221031
279 1 23.5735 3.63903 0.782677 4 0.112984 2 0 0.0994487 0.185564
280 1 24.336 4.32055 0.625018 4 0.142703 2 0 0.0994487 -0.150091
281 1 23.4679 4.54946 1.33355 4 0.167788 2 0 0.0994487 -0.0790527
282 1 24.8518 5.25716 0.566763 4 0.192075 2 0 0.0994487 0.040908
283 1 23.5518 5.06386 0.533607 4 0.208602 2 0 0.0994487 -0.0968864
284 1 25.0086 4.50055 1.62342 4 0.13929 2 0 0.0994487 -0.0421942
285 1 25.0629 3.68037 0.802132 4 0.0994001 2 0 0.0994487 -0.187914
286 1 24.363 5.28843 1.43377 4 0.210782 2 0 0.0994487 -0.154708
287 1 25.6904 5.1389 1.34266 4 0.159198 2 0 0.0994487 0.210102
288 1 26.3575 4.29031 1.37159 4 0.1002 2 0 0.0994487 0.149483
289 1 26.5026 4.97257 0.640732 4 0.122678 2 0 0.0994487 0.0989682
290 1 25.5284 4.40089 0.388179 4 0.121817 2 0 0.0994487 0.0559485
291 1 27.3302 4.86961 1.40568 4 0.0959172 2 0 0.0994487 0.00661075
292 1 27.9624 3.97641 1.10408 4 0.057522 2 0 0.0994487 -0.309502
293 1 28.2771 4.73475 0.706344 4 0.070095 2 0 0.0994487 -0.0812457
294 1 27.0674 4.04323 0.570038 4 0.0759791 2 0 0.0994487 0.0120235
295 1 28.9321 3.77016 0.487204 4 0.0412132 2 0 0.0994487 -0.00703231
296 1 29.0873 4.52317 1.33085 4 0.0515713 2 0 0.0994487 0.0574861
297 1 29.9979 4.07209 1.02303 4 0.0354138 2 0 0.0994487 -0.27523
298 1 31.0296 3.97382 0.373364 4 0.0291825 2 0 0.0994487 0.657583
299 1 30.2046 4.67765 0.491317 4 0.041385 2 0 0.0994487 0.00995847
300 1 30.9783 4.59929 1.41131 4 0.0350097 2 0 0.0994487 0.679914
301 1 0.908283 5.53205 0.461647 4 7.09637e-05 2 0 0.0994487 -0.463784
302 1 1.53161 5.51184 1.37971 4 9.4001e-05 2 0 0.0994487 -0.117386
303 1 0.793684 6.22023 1.2768 4 8.21684e-05 2 0 0.0994487 -0.703381
304 1 0.257003 6.91734 1.50738 4 7.87506e-05 2 0 0.0994487 -0.772633
305 1 0.969942 6.9454 0.573423 4 0.000107579 2 0 0.0994487 -0.473532
306 1 1.7053 7.02884 1.23811 4 0.000149322 2 0 0.0994487 0.0665192
307 1 1.89588 6.19966 0.519025 4 0.000139144 2 0 0.0994487 -0.156399
308 1 3.10475 5.61709 1.30057 4 0.000232499 2 0 0.0994487 0.0402544
309 1 2.26359 6.15348 1.40977 4 0.000160896 2 0 0.0994487 0.040857
310 1 3.25442 6.96226 1.12748 4 0.00038242 2 0 0.0994487 -0.0541211
311 1 2.68177 5.61289 0.273587 4 0.000185045 2 0 0.0994487 -0.0596845
312 1 3.39503 6.28191 0.500536 4 0.000353277 2 0 0.0994487 -0.121441
313 1 4.18979 5.46246 0.325783 4 0.000437003 2 0 0.0994487 0.0310198
314 1 4.93434 5.42873 1.31778 4 0.000705066 2 0 0.0994487 -0.235097
315 1 4.13622 6.09659 1.22779 4 0.000527435 2 0 0.0994487 -0.0893863
316 1 4.82567 6.23357 0.333842 4 0.000796693 2 0 0.0994487 -0.0345734
317 1 4.77312 6.79931 1.15967 4 0.000934592 2 0 0.0994487 -0.305927
318 1 4.00267 7.02511 0.221759 4 0.000600705 2 0 0.0994487 -0.0853422
319 1 5.78575 5.42185 0.301847 4 0.00105128 2 0 0.0994487 0.0125045
320 1 5.6935 6.24342 0.9632 4 0.00130915 2 0 0.0994487 -0.967784
321 1 6.4578 5.98425 1.59671 4 0.00177115 2 0 0.0994487 0.140917
322 1 6.43234 6.86927 1.00965 4 0.00229268 2 0 0.0994487 0.851684
323 1 6.37773 6.04115 0.154639 4 0.00161023 2 0 0.0994487 0.111114
324 1 5.54993 7.05206 0.147147 4 0.00140346 2 0 0.0994487 0.0363885
325 1 8.21355 5.31419 0.694273 4 0.00368448 2 0 0.0994487 -0.0895846
326 1 7.32761 6.15925 0.754293 4 0.00296046 2 0 0.0994487 0.225739
327 1 7.39163 5.41839 1.49138 4 0.00244048 2 0 0.0994487 0.136757
328 1 8.23884 6.11028 1.49159 4 0.00476455 2 0 0.0994487 0.0187411
329 1 8.01352 6.85364 0.728993 4 0.00534635 2 0 0.0994487 0.0691943
330 1 7.28191 6.86379 1.59601 4 0.00372873 2 1 0.0994487 0.126055
331 1 7.33029 5.3575 0.0461812 4 0.00218851 2 0 0.0994487 0.0813586
332 1 9.76796 5.3194 0.792562 4 0.00734113 2 0 0.0994487 0.328456
333 1 8.88016 6.18865 0.736908 4 0.00664769 2 0 0.0994487 -0.235535
334 1 9.05434 5.3271 1.5973 4 0.00548901 2 0 0.0994487 -0.0628283
335 1 9.73844 6.19052 1.46731 4 0.00991079 2 0 0.0994487 -0.10647
336 1 9.09351 6.95013 1.463 4 0.00962648 2 2 0.0994487 -0.0759733
337 1 9.76329 6.23201 0.0941385 4 0.00960714 2 0 0.0994487 -0.0359492
338 1 8.99733 5.46479 0.012702 4 0.00539475 2 0 0.0994487 -0.134752
339 1 10.5831 6.02196 0.964384 4 0.0131835 2 0 0.0994487 -0.356351
340 1 11.3128 6.37134 0.0776634 4 0.0176476 2 0 0.0994487 0.100343
341 1 10.5187 6.94145 0.15452 4 0.0159093 2 0 0.0994487 -0.0735309
342 1 10.4686 6.92564 1.49614 4 0.0170084 2 1 0.0994487 -0.0634887
343 1 11.9994 5.6274 0.183157 4 0.0193457 2 0 0.0994487 -0.0105298
344 1 12.6757 5.81849 0.861776 4 0.0274114 2 0 0.0994487 0.0817493
345 1 11.7774 6.20735 1.05291 4 0.0215226 2 0 0.0994487 0.292243
346 1 13.3219 5.86668 1.55471 4 0.0348347 2 0 0.0994487 0.208168
347 1 13.3506 6.58297 0.813679 4 0.045848 2 0 0.0994487 -0.292111
348 1 13.3212 5.53867 0.0424813 4 0.03247 2 0 0.0994487 -0.14291
349 1 14.0617 5.71565 0.77266 4 0.0451945 2 0 0.0994487 -0.372675
350 1 14.3278 6.65176 1.40646 4 0.0687122 2 1 0.0994487 -0.103119
351 1 14.1303 6.38483 0.0380077 4 0.0532435 2 0 0.0994487 -0.082611
352 1 15.0282 5.64393 0.034369 4 0.0584388 2 0 0.0994487 0.057363
353 1 15.8305 5.73813 0.95832 4 0.08003 2 0 0.0994487 0.62578
354 1 15.0472 6.45091 0.806774 4 0.0792217 2 0 0.0994487 -0.176065
355 1 16.491 6.45257 1.1401 4 0.125002 2 0 0.0994487 0.208296
356 1 15.1058 5.87594 1.69804 4 0.0697476 2 0 0.0994487 -0.097659
357 1 16.62 5.41933 0.276819 4 0.0867061 2 0 0.0994487 0.0799207
358 1 15.6753 6.3382 0.0390223 4 0.0874638 2 0 0.0994487 0.0398496
359 1 17.8271 5.30128 0.541411 4 0.10922 2 0 0.0994487 0.150327
360 1 17.113 5.42499 1.24767 4 0.100996 2 0 0.0994487 -0.286577
361 1 17.0619 6.27419 0.411469 4 0.130209 2 0 0.0994487 0.138947
362 1 17.6649 6.24649 1.38542 4 0.153568 2 0 0.0994487 -0.25606
363 1 18.2745 7.0517 1.13153 4 0.225804 2 0 0.0994487 0.64785
364 1 18.3714 6.23173 0.609762 4 0.175204 2 0 0.0994487 0.15618
365 1 19.429 5.75829 0.62055 4 0.184665 2 0 0.0994487 0.057188
366 1 19.3279 6.55755 1.35081 4 0.244214 2 0 0.0994487 0.277585
367 1 19.9942 6.75229 0.610261 3 0.315146 2 0 0.0989458 -0.0121016
368 1 20.7494 5.77593 0.653722 3 0.250585 2 0 0.0994456 -0.10406
369 1 20.1931 5.61076 1.39557 4 0.206346 2 0 0.0994487 0.31205
370 1 20.7787 6.6124 1.30355 3 0.367737 2 0 0.0982241 -0.34412
371 1 21.6592 6.66248 0.666524 3 0.38946 2 0 0.097799 -0.0434708
372 1 21.6631 5.87866 1.38528 3 0.306691 2 0 0.0990308 0.0420466
373 1 21.6904 5.73259 0.0517844 3 0.269579 2 0 0.0993301 -0.00149987
374 1 22.6732 5.8279 0.674154 3 0.296199 2 0 0.0991268 0.00266317
375 1 22.6319 6.69333 1.20734 3 0.425367 2 0 0.0968661 -0.201854
376 1 23.3484 6.78052 0.267835 3 0.393026 2 0 0.0977201 -0.12537
377 1 23.4822 5.88496 1.30013 3 0.301298 2 0 0.0990814 -0.176367
378 1 24.3197 6.56281 1.15825 3 0.336584 2 0 0.0986957 0.173611
379 1 24.1457 6.00685 0.427617 3 0.28245 2 0 0.0992384 0.00243937
380 1 25.6831 5.86213 0.700952 4 0.203948 2 0 0.0994487 0.163898
381 1 25.1124 6.04132 1.67733 4 0.24323 2 0 0.0994487 0.00366958
382 1 25.1593 6.74159 0.495153 3 0.29492 2 0 0.0991378 0.0903925
383 1 25.8251 6.59457 1.40775 4 0.245868 2 0 0.0994487 0.0881035
384 1 26.6903 5.84511 1.4763 4 0.16018 2 0 0.0994487 0.0917625
385 1 27.4966 5.54334 0.722172 4 0.112773 2 0 0.0994487 -0.251571
386 1 26.7485 6.36567 0.651888 4 0.182493 2 0 0.0994487 0.0387516
387 1 27.7011 6.47315 1.36539 4 0.142545 2 0 0.0994487 0.131493
388 1 28.3648 5.52203 1.4872 4 0.0875971 2 0 0.0994487 0.0456337
389 1 27.7097 7.0074 0.530173 4 0.160539 2 0 0.0994487 0.0321241
390 1 29.3889 5.30889 0.818726 4 0.0628211 2 0 0.0994487 0.31673
391 1 29.4379 6.18214 1.32212 4 0.0765037 2 0 0.0994487 -0.00338063
392 1 29.5784 6.89773 0.506505 4 0.087098 2 0 0.0994487 0.0925871
393 1 28.4685 6.20589 0.638647 4 0.100785 2 0 0.0994487 -0.27008
394 1 29.3762 6.15398 0.0801838 4 0.0767092 2 0 0.0994487 0.0969266
395 1 28.4822 5.38976 0.0592959 4 0.0790816 2 0 0.0994487 -0.105003
396 1 30.9636 5.36838 0.595026 4 0.0461359 2 0 0.0994487 0.667849
397 1 30.2159 5.45949 1.46813 4 0.0523214 2 0 0.0994487 0.0540216
398 1 30.3958 6.18258 0.649752 4 0.061887 2 0 0.0994487 0.329001
399 1 31.2189 6.15516 1.38439 4 0.053061 2 0 0.0994487 0.587258
400 1 31.1994 6.95407 0.60342 4 0.0638293 2 0 0.0994487 0.812251
401 1 31.7235 5.99622 0.446564 4 0.0485022 2 0 0.0994487 0.879729
402 1 0.261851 7.63199 0.661866 4 9.56103e-05 2 0 0.0994487 -0.876373
403 1 0.831025 8.46344 0.61936 4 0.000133477 2 0 0.0994487 -0.577626
404 1 1.11211 7.86396 1.49711 4 0.000130933 2 0 0.0994487 -0.154428
405 1 0.356955 8.5626 1.47035 4 0.000112439 2 0 0.0994487 -0.764984
406 1 1.59266 7.76478 0.37187 4 0.0001679 2 0 0.0994487 -0.0897871
407 1 1.72382 8.61735 1.46471 4 0.000204068 2 0 0.0994487 0.0395979
408 1 2.48799 7.14986 0.476331 4 0.000252763 2 0 0.0994487 -0.0836942
409 1 2.19177 8.6335 0.399707 4 0.000277469 2 0 0.0994487 -0.137266
410 1 2.39416 7.81099 1.27726 4 0.000265921 2 0 0.0994487 0.0869938
411 1 3.01349 8.51445 0.935533 4 0.000446499 2 0 0.0994487 -0.539307
412 1 3.24418 7.77117 0.327041 4 0.000452293 2 0 0.0994487 -0.196203
413 1 3.81243 8.45898 0.0822892 4 0.000667868 2 0 0.0994487 -0.0457771
414 1 3.97971 7.67009 1.24863 4 0.000681432 2 0 0.0994487 -0.0554866
415 1 4.70459 8.25653 0.921772 4 0.00113665 2 0 0.0994487 0.295352
416 1 4.67023 7.63706 0.247803 4 0.00097297 2 0 0.0994487 0.0376943
417 1 3.81127 8.34851 1.76162 4 0.000669472 2 0 0.0994487 -0.0574348
418 1 5.86955 8.34822 0.169905 4 0.00213514 2 0 0.0994487 0.113107
419 1 5.48363 7.59071 1.03232 4 0.00163816 2 0 0.0994487 -0.467654
420 1 6.49365 7.53799 0.169175 4 0.0026264 2 0 0.0994487 0.187626
421 1 6.39674 8.23976 1.04384 4 0.00316025 2 0 0.0994487 0.33818
422 1 7.28583 7.76918 0.746313 4 0.00477655 2 1 0.0994487 0.00995892
423 1 8.2859 8.31376 0.868772 4 0.00925473 2 2 0.0994487 0.27843
424 1 7.27857 8.18368 1.7015 4 0.00581681 2 2 0.0994487 -0.174766
425 1 8.05208 7.48784 1.5604 4 0.00686589 2 1 0.0994487 0.18503
426 1 7.99895 7.60312 0.0282118 4 0.00602944 2 0 0.0994487 0.0674155
427 1 9.84313 7.22199 0.72344 4 0.0141 2 1 0.0994487 -0.346927
428 1 8.91207 7.61626 0.661731 4 0.0101822 2 1 0.0994487 0.158574
429 1 9.73234 8.61964 0.693151 4 0.0192483 2 3 0.0994487 -0.257107
430 1 9.09265 8.69904 1.44495 4 0.0163102 2 9 0.0994487 -0.395708
431 1 9.64026 7.88932 1.60055 4 0.0175146 2 8 0.0994487 -0.340767
432 1 11.3161 7.14287 0.810636 4 0.0235757 2 1 0.0994487 0.448569
433 1 10.5731 7.9454 0.844311 4 0.0227895 2 3 0.0994487 -0.198019
434 1 10.5877 8.70196 1.4255 4 0.0284014 1 8 0.0994487 -0.146521
435 1 11.4057 7.80503 1.60301 4 0.0322055 2 7 0.0994487 0.228717
436 1 11.227 8.11851 0.0422735 4 0.0268609 2 0 0.0994487 0.17433
437 1 12.7061 7.28322 0.565784 4 0.044254 2 0 0.0994487 -0.0531331
438 1 12.178 8.23518 0.590765 4 0.0439919 2 2 0.0994487 0.163971
439 1 12.0637 7.15788 1.37768 4 0.0333261 2 3 0.0994487 0.145898
440 1 12.0887 8.68064 1.49044 4 0.0512996 1 8 0.0994487 0.0827366
441 1 12.8601 7.99585 1.47598 4 0.0617009 2 6 0.0994487 -0.216959
442 1 14.3373 7.3542 0.580954 4 0.0799813 2 0 0.0994487 0.0649081
443 1 13.6169 8.09282 0.464536 4 0.0742546 2 2 0.0994487 0.0237888
444 1 13.458 7.34024 1.34133 4 0.0628165 2 2 0.0994487 0.0546443
445 1 14.2471 8.18371 1.35246 4 0.103485 2 5 0.0994487 0.024723
446 1 16.4328 7.18497 0.276798 4 0.147647 2 0 0.0994487 -0.0624059
447 1 15.6276 7.3114 0.923132 4 0.127451 2 1 0.0994487 -0.441611