ITEM: TIMESTEP
37000
ITEM: NUMBER OF ATOMS
9495
ITEM: BOX BOUNDS mm mm mm
0.0000000000000000e+00 3.1748021039364001e+01
0.0000000000000000e+00 3.1748021039364001e+01
-7.4072398406925706e-04 3.1748021039364001e+01
ITEM: ATOMS id type x y z c_phase c_temp c_surf c_nbond c_visc f_3[1]
1 1 0.116341 1.10259 0.464337 4 9.5889e-05 2 0 0.0994487 -0.68194
2 1 0.974108 1.6685 0.77798 4 0.00014077 2 0 0.0994487 -0.517032
3 1 0.714648 0.793562 1.41295 4 0.000108564 2 0 0.0994487 -0.281794
4 1 0.00336375 1.60273 1.37437 4 0.00010466 2 0 0.0994487 -0.804051
5 1 0.729896 0.0633724 0.61602 4 8.86625e-05 3 0 0.0994487 -0.190374
6 1 1.71015 0.808983 1.0155 4 0.000165631 2 0 0.0994487 -0.332069
7 1 1.80059 1.47468 0.221075 4 0.000179539 2 0 0.0994487 -0.125829
8 1 1.82015 1.66049 1.76126 4 0.000192725 2 0 0.0994487 -0.139533
9 1 2.52093 0.749102 0.203812 4 0.000217008 2 0 0.0994487 -0.14294
10 1 2.59149 0.0538711 1.03726 4 0.000214948 2 0 0.0994487 -0.295004
11 1 2.64922 1.541 0.882848 4 0.000267755 2 0 0.0994487 0.235754
12 1 2.66829 0.815502 1.7457 4 0.000241718 2 0 0.0994487 -0.187041
13 1 3.43386 0.933692 0.956349 4 0.000350685 2 0 0.0994487 0.32024
14 1 3.49924 0.0925696 1.70571 4 0.000291915 2 0 0.0994487 0.178053
15 1 3.60652 1.70798 1.71994 4 0.000436786 2 0 0.0994487 0.0487948
16 1 4.10576 0.858321 0.325305 4 0.000478202 2 0 0.0994487 0.153146
17 1 4.96159 0.56786 1.17466 4 0.000763342 2 0 0.0994487 -0.0370675
18 1 4.91949 1.59987 0.383508 4 0.000871127 2 0 0.0994487 -0.100248
19 1 4.3472 0.941527 1.62884 4 0.000559125 2 0 0.0994487 0.110738
20 1 3.47612 0.111428 0.171027 4 0.000280367 2 0 0.0994487 0.166215
21 1 5.64741 0.645627 0.325839 4 0.00106943 2 0 0.0994487 -0.0806051
22 1 5.88414 1.31048 0.938036 4 0.00130264 2 0 0.0994487 -0.199586
23 1 6.57478 1.39104 0.218369 4 0.00178083 2 0 0.0994487 -0.0861337
24 1 5.78374 0.460658 1.69897 4 0.00108655 2 0 0.0994487 -0.0846527
25 1 5.03122 1.72414 1.43602 4 0.000918205 2 0 0.0994487 0.0453716
26 1 6.7138 0.39031 0.865278 4 0.00166402 2 0 0.0994487 -0.079382
27 1 6.69104 1.00962 1.69374 4 0.00172151 2 0 0.0994487 -0.107924
28 1 8.2679 0.408875 1.07337 4 0.0029987 2 0 0.0994487 -0.100166
29 1 7.36782 1.22285 0.954198 4 0.00239736 2 0 0.0994487 -0.302552
30 1 8.24709 1.39092 0.236779 4 0.00342703 2 0 0.0994487 -0.0460642
31 1 8.12868 1.27217 1.60653 4 0.00314605 2 0 0.0994487 -0.00811698
32 1 7.58247 0.647807 0.140287 4 0.00240799 2 0 0.0994487 -0.110936
33 1 8.85849 0.508506 0.273966 4 0.00373541 2 0 0.0994487 -0.0616462
34 1 9.55301 0.3386 0.888639 4 0.00466547 2 0 0.0994487 0.0050642
35 1 9.02586 1.30716 1.1133 4 0.00449597 2 0 0.0994487 -0.0606449
37 1 9.63995 1.37474 0.0900752 4 0.00537173 2 0 0.0994487 0.0992915
38 1 11.2128 0.215893 0.632658 4 0.00816897 2 0 0.0994487 0.203504
39 1 10.3637 1.04743 0.823114 4 0.00675181 2 0 0.0994487 0.539887
40 1 10.523 0.196295 1.44539 4 0.00639926 2 0 0.0994487 0.064429
41 1 11.2856 1.01846 1.41785 4 0.00970943 2 0 0.0994487 0.164708
42 1 10.5797 1.67706 1.72992 4 0.0083747 2 0 0.0994487 0.118165
43 1 10.2431 0.367861 0.0780499 4 0.00551114 2 0 0.0994487 0.149801
44 1 12.8757 0.211714 0.636805 4 0.0152549 2 0 0.0994487 0.0587887
45 1 12.0457 1.07408 0.506655 4 0.0132212 2 0 0.0994487 -0.0235499
46 1 12.1319 0.316439 1.29957 4 0.0121572 2 0 0.0994487 0.0188377
47 1 12.7194 1.19864 1.3723 4 0.0170693 2 0 0.0994487 -0.0305253
48 1 14.3729 0.318493 0.764646 4 0.0241113 2 0 0.0994487 -0.046037
49 1 13.5924 1.113 0.843618 4 0.0223043 2 0 0.0994487 -0.263048
50 1 14.0399 1.55958 0.167469 4 0.0272055 2 0 0.0994487 -0.0898236
51 1 13.6075 0.359834 1.6352 4 0.0194765 2 0 0.0994487 -0.0562622
52 1 14.3777 1.14948 1.47647 4 0.0265603 2 0 0.0994487 -0.0178254
53 1 14.8761 1.55337 0.662943 4 0.0323143 2 0 0.0994487 0.389953
54 1 15.7061 0.770636 0.788259 4 0.0342355 2 0 0.0994487 0.366487
55 1 16.5532 1.54451 0.681338 4 0.049229 2 0 0.0994487 0.000810041
56 1 15.1422 0.4642 1.64149 4 0.0283134 2 0 0.0994487 0.152079
57 1 16.547 0.712289 1.3421 4 0.0428663 2 0 0.0994487 0.0956293
58 1 15.6341 1.48544 1.3916 4 0.0383581 2 0 0.0994487 0.153635
59 1 15.1049 0.711806 0.0677822 4 0.0283203 2 0 0.0994487 0.169204
60 1 17.2544 0.732268 0.547589 4 0.049965 2 0 0.0994487 0.0286322
61 1 17.9231 1.58109 0.757246 4 0.064572 2 0 0.0994487 0.0415674
62 1 17.916 0.742935 1.42801 4 0.0574271 2 0 0.0994487 -0.224374
63 1 17.2202 1.74884 1.56274 4 0.0599752 2 0 0.0994487 -0.0984804
64 1 19.5372 0.0167772 0.662766 4 0.0615086 2 0 0.0994487 0.0436447
65 1 18.7918 0.725074 0.684829 4 0.063143 2 0 0.0994487 -0.269943
66 1 19.5395 1.55488 0.841653 4 0.0777979 2 0 0.0994487 -0.341157
67 1 19.0276 0.158607 1.54508 4 0.0606499 2 0 0.0994487 -0.158663
68 1 19.5934 0.967491 1.68957 4 0.0698936 2 0 0.0994487 0.00835252
69 1 18.6564 1.51302 1.50035 4 0.0709403 2 0 0.0994487 -0.250304
70 1 21.0889 0.349843 1.06749 4 0.0706504 2 0 0.0994487 -0.196125
71 1 20.2493 0.776373 0.980057 4 0.07157 2 0 0.0994487 -0.0497582
72 1 21.1062 1.65725 0.951506 4 0.0849319 2 0 0.0994487 0.692921
73 1 21.1874 0.765598 0.218806 4 0.073083 2 0 0.0994487 -0.0445899
74 1 20.3457 1.51479 0.193617 4 0.0805416 2 0 0.0994487 -0.0806012
75 1 22.0087 0.262534 0.539755 4 0.0705123 2 0 0.0994487 0.0993601
76 1 22.7913 0.430275 1.40734 4 0.0718496 2 0 0.0994487 0.206601
77 1 22.1105 1.14763 1.32981 4 0.078259 2 0 0.0994487 0.240026
78 1 21.9982 1.59955 0.538558 4 0.0854781 2 0 0.0994487 0.185174
79 1 22.9157 1.07463 0.445168 4 0.077368 2 0 0.0994487 0.0520857
80 1 24.228 0.380179 1.45209 4 0.069182 2 0 0.0994487 0.0576173
81 1 23.5672 0.357563 0.57369 4 0.0705781 2 0 0.0994487 0.0385717
82 1 24.4367 1.18687 0.754729 4 0.07651 2 0 0.0994487 -0.0192947
83 1 23.4757 1.2499 1.4028 4 0.0802914 2 0 0.0994487 0.0298787
84 1 24.955 0.315686 0.551996 4 0.0647717 2 0 0.0994487 -0.0171983
85 1 26.0085 0.383365 1.1715 4 0.0576007 2 0 0.0994487 -0.185859
86 1 25.169 1.12579 1.48087 4 0.0717438 2 0 0.0994487 0.0251055
87 1 25.9301 1.73476 1.35794 4 0.0737729 2 0 0.0994487 0.0345364
88 1 25.8917 0.929212 0.432102 4 0.0625737 2 0 0.0994487 -0.0954195
89 1 27.5736 1.28032 0.38906 4 0.0515627 2 0 0.0994487 0.0454494
90 1 27.6142 0.50928 0.874321 4 0.0471269 2 0 0.0994487 0.175388
91 1 26.7559 1.02809 1.26347 4 0.0559258 2 0 0.0994487 -0.236886
92 1 28.3748 0.337482 1.39813 4 0.0407015 2 0 0.0994487 0.00984439
93 1 26.7925 0.240345 0.226621 4 0.0504815 2 0 0.0994487 0.0380749
94 1 28.6489 1.24263 0.742341 4 0.0437956 2 0 0.0994487 0.102406
95 1 29.3912 0.945639 1.56878 4 0.037022 2 0 0.0994487 -0.0192007
96 1 28.5228 1.71921 1.49749 4 0.0475026 2 0 0.0994487 -0.0429809
97 1 29.8133 0.173958 1.46124 4 0.0323237 2 0 0.0994487 0.133416
98 1 29.2734 0.3547 0.615275 4 0.035015 2 0 0.0994487 -0.0816812
99 1 31.5874 0.266128 1.25663 4 0.0248654 3 0 0.0994487 0.830097
100 1 30.7016 0.49015 0.470738 4 0.029664 2 0 0.0994487 0.354852
101 1 30.1009 1.19877 0.774133 4 0.0352187 2 0 0.0994487 0.21092
102 1 30.8649 0.971942 1.39386 4 0.0311157 2 0 0.0994487 0.703281
103 1 1.11081 2.43607 0.129285 4 0.000159818 2 0 0.0994487 -0.0373223
104 1 0.133403 2.3821 0.812241 4 0.000129246 2 0 0.0994487 -0.984517
105 1 1.28845 3.23764 0.949187 4 0.000216894 2 0 0.0994487 0.22209
106 1 1.13977 2.36077 1.59162 4 0.000171434 2 0 0.0994487 -0.222189
107 1 0.386685 3.02999 1.54944 4 0.000158642 2 0 0.0994487 -0.671256
108 1 0.332248 3.09582 0.131296 4 0.000151027 2 0 0.0994487 -0.59134
109 1 1.90972 2.41867 0.78376 4 0.000228535 2 0 0.0994487 0.0782083
110 1 2.65852 3.28029 0.860875 4 0.000411826 2 0 0.0994487 0.0668031
111 1 2.66931 2.22918 1.53373 4 0.00031173 2 0 0.0994487 0.0829547
112 1 3.2579 3.42668 1.64938 4 0.000572352 2 0 0.0994487 0.00397453
113 1 2.7261 2.38168 0.0557193 4 0.000296875 2 0 0.0994487 0.1466
114 1 3.38195 2.55413 0.779289 4 0.000478117 2 0 0.0994487 0.211583
115 1 4.00679 1.841 0.711184 4 0.000569842 2 0 0.0994487 -0.0361241
116 1 4.91383 2.57277 0.815661 4 0.00107025 2 0 0.0994487 -0.259351
117 1 4.20148 3.3175 0.749446 4 0.000905391 2 0 0.0994487 0.00621485
118 1 4.13245 2.64107 1.58328 4 0.000725785 2 0 0.0994487 0.0270772
119 1 5.65047 2.44269 0.132743 4 0.00145408 2 0 0.0994487 -0.189926
120 1 6.55776 2.18062 0.772597 4 0.00204513 2 0 0.0994487 -0.289386
121 1 5.64874 3.19593 0.952489 4 0.00174468 2 0 0.0994487 -0.754635
122 1 5.861 2.19426 1.49672 4 0.00148763 2 0 0.0994487 0.0126354
123 1 6.52037 3.06691 1.5557 4 0.00243941 2 0 0.0994487 0.0443572
124 1 6.65033 2.92778 0.134227 4 0.00237262 2 0 0.0994487 0.0288866
125 1 7.45405 2.22586 0.139832 4 0.00296242 2 0 0.0994487 -0.0535026
126 1 8.08209 2.20208 0.930382 4 0.00386009 2 0 0.0994487 -0.302075
127 1 7.40132 3.06835 0.934051 4 0.00360143 2 0 0.0994487 -0.0455276
128 1 7.29928 2.06035 1.56856 4 0.00268616 2 0 0.0994487 -0.0607329
129 1 8.18545 3.00183 1.65211 4 0.00486474 2 0 0.0994487 -0.045416
130 1 8.26934 2.9712 0.0392146 4 0.00499815 2 0 0.0994487 -0.150617
131 1 8.90393 2.08699 0.252387 4 0.00501354 2 0 0.0994487 0.00243326
132 1 9.77243 2.0246 1.10996 4 0.00684204 2 0 0.0994487 0.173465
133 1 8.92671 2.97262 0.928693 4 0.00653511 2 0 0.0994487 -0.156761
134 1 9.03062 2.22066 1.70398 4 0.00550253 2 0 0.0994487 -0.0819678
135 1 9.56096 2.90576 0.21312 4 0.0077604 2 0 0.0994487 0.17312
136 1 10.2834 2.1137 0.214297 4 0.00775761 2 0 0.0994487 0.337739
137 1 11.1583 1.82604 0.771092 4 0.0108599 2 0 0.0994487 0.26009
138 1 10.6214 2.80819 0.921535 4 0.0115967 2 0 0.0994487 0.541919
139 1 11.4444 2.82964 1.57484 4 0.016042 2 0 0.0994487 0.0952005
140 1 12.6737 1.94118 0.593851 4 0.0201417 2 0 0.0994487 -0.283931
141 1 11.928 2.64099 0.742299 4 0.0181773 2 0 0.0994487 -0.0386719
142 1 11.9239 1.9206 1.46509 4 0.0149381 2 0 0.0994487 0.0946551
143 1 12.8449 3.01766 1.68597 4 0.0268603 2 0 0.0994487 0.0363582
144 1 13.1791 3.03035 0.848852 4 0.0303331 2 0 0.0994487 -0.440851
145 1 13.3784 1.9912 1.48064 4 0.0244928 2 0 0.0994487 -0.0150686
146 1 14.0206 2.44438 0.927124 4 0.0328843 2 0 0.0994487 -0.13309
147 1 14.0279 3.38359 1.55716 4 0.0418972 2 0 0.0994487 0.0255768
148 1 14.6961 3.43698 0.884932 4 0.0510958 2 0 0.0994487 -0.332937
149 1 14.7823 2.29758 1.44821 4 0.0380306 2 0 0.0994487 0.0469295
150 1 14.8418 2.51505 0.136557 4 0.0405367 2 0 0.0994487 0.173007
151 1 14.1591 3.2262 0.0325348 4 0.0419265 2 0 0.0994487 -0.246104
152 1 13.4137 2.29398 0.0590902 4 0.0272736 2 0 0.0994487 -0.280961
153 1 15.6993 2.44373 0.692668 4 0.0494417 2 0 0.0994487 0.364399
154 1 16.3029 3.20095 0.662084 4 0.0685863 2 0 0.0994487 0.328594
155 1 16.308 2.47951 1.52575 4 0.0585913 2 0 0.0994487 -0.100643
156 1 15.3694 3.25723 1.50191 4 0.0576014 2 0 0.0994487 -0.00766599
157 1 15.5706 3.25854 0.0192499 4 0.0565501 2 0 0.0994487 0.290239
158 1 17.0646 2.35032 0.682778 4 0.0657683 2 0 0.0994487 0.0234854
159 1 17.944 2.92608 0.699539 4 0.0911618 2 0 0.0994487 -0.231186
160 1 18.0193 2.43917 1.58112 4 0.0806127 2 0 0.0994487 -0.149131
161 1 17.0918 3.1162 1.49491 4 0.0817666 2 0 0.0994487 -0.143429
162 1 18.8908 2.35742 1.01358 4 0.0881089 2 0 0.0994487 -0.516822
163 1 19.7027 3.2427 1.27782 4 0.117027 2 0 0.0994487 0.394885
164 1 18.884 2.99607 0.196019 4 0.103591 2 0 0.0994487 -0.171807
165 1 19.587 2.34239 0.101452 4 0.0929465 2 0 0.0994487 -0.132369
166 1 20.3251 1.78863 1.72442 4 0.0833405 2 0 0.0994487 0.044955
167 1 21.1565 2.41663 0.458355 4 0.102278 2 0 0.0994487 0.19619
168 1 20.1948 2.46882 1.11433 4 0.0979373 2 0 0.0994487 0.286753
169 1 21.31 3.29463 1.39314 4 0.134939 2 0 0.0994487 0.077732
170 1 20.4222 2.99313 0.334941 4 0.113751 2 0 0.0994487 0.186292
171 1 22.8719 2.07007 1.50872 4 0.0981296 2 0 0.0994487 -0.022122
172 1 22.9717 2.60199 0.735523 4 0.117055 2 0 0.0994487 0.133329
173 1 22.0961 2.49917 1.23787 4 0.110528 2 0 0.0994487 0.186442
174 1 21.9898 3.20043 0.598797 4 0.138198 2 0 0.0994487 -0.0757467
175 1 22.6771 3.40124 0.07601 4 0.14952 2 0 0.0994487 0.0760744
176 1 23.7438 1.80844 0.624025 4 0.0894506 2 0 0.0994487 -0.0873579
177 1 24.4289 1.98763 1.61102 4 0.0913647 2 0 0.0994487 -0.0641749
178 1 24.342 2.68296 0.775192 4 0.110763 2 0 0.0994487 -0.341091
179 1 23.6887 2.90303 1.53628 4 0.123177 2 0 0.0994487 -0.110504
180 1 24.4728 3.51078 1.55704 4 0.142717 2 0 0.0994487 -0.118304
181 1 24.9562 2.84566 0.0146836 4 0.107692 2 0 0.0994487 -0.0864592
182 1 26.5483 1.79415 0.511367 4 0.0671222 2 0 0.0994487 -0.00560003
183 1 25.1322 1.85613 0.509414 4 0.0836524 2 0 0.0994487 -0.0215285
184 1 25.7918 2.61203 0.707489 4 0.0947437 2 0 0.0994487 0.228202
185 1 25.1579 2.55548 1.52547 4 0.100371 2 0 0.0994487 0.0576673
186 1 25.7213 3.49812 1.51211 4 0.125461 2 0 0.0994487 0.123857
187 1 26.5364 2.56002 1.53049 4 0.0822113 2 0 0.0994487 0.0579476
188 1 26.1686 3.50068 0.599043 4 0.117152 2 0 0.0994487 0.168845
189 1 27.5039 1.98546 1.23792 4 0.0591266 2 0 0.0994487 -0.186419
190 1 28.2489 2.09022 0.343734 4 0.0533125 2 0 0.0994487 -0.0177248
191 1 27.0867 2.6924 0.645359 4 0.0763721 2 0 0.0994487 -0.105601
192 1 27.1998 3.35397 1.41682 4 0.0896777 2 0 0.0994487 -0.0983288
193 1 28.2537 2.75799 1.20639 4 0.061492 2 0 0.0994487 -0.418307
194 1 27.982 3.21993 0.326384 4 0.0718194 2 0 0.0994487 -0.125257
195 1 29.9568 1.80906 1.70764 4 0.0392357 2 0 0.0994487 0.183201
196 1 29.4477 2.04702 0.879698 4 0.0441354 2 0 0.0994487 -0.00708377
197 1 29.1956 2.6589 0.290703 4 0.0508223 2 0 0.0994487 -0.0578285
198 1 29.2495 3.2651 1.17365 4 0.0577105 2 0 0.0994487 0.118633
199 1 30.9114 1.98502 0.924207 4 0.0376097 2 0 0.0994487 0.967251
200 1 30.1815 2.71094 1.00186 4 0.045234 2 0 0.0994487 0.675111
201 1 31.0247 3.35309 0.97101 4 0.0473366 2 0 0.0994487 0.998409
202 1 30.9865 2.69483 1.72648 4 0.0421328 2 0 0.0994487 0.578501
203 1 30.1092 3.25953 0.132205 4 0.0490383 2 0 0.0994487 -0.0443659
204 1 30.4116 1.90909 0.0255368 4 0.0377854 2 0 0.0994487 0.106045
205 1 31.1434 2.66402 0.0761253 4 0.0404142 2 0 0.0994487 0.70882
206 1 0.293831 3.78503 0.918557 4 0.000183804 2 0 0.0994487 -0.999347
207 1 0.143046 4.59443 0.482118 4 0.000207637 2 0 0.0994487 -0.784494
208 1 1.14036 4.67093 0.986638 4 0.000295031 2 0 0.0994487 -0.516753
209 1 0.0884667 5.26681 1.27761 4 0.000240175 2 0 0.0994487 -0.887458
210 1 1.04069 3.86421 0.0595682 4 0.000217927 2 0 0.0994487 0.0148878
211 1 1.84117 4.04604 0.847105 4 0.000344907 2 0 0.0994487 0.00826698
212 1 2.54049 4.85585 1.13748 4 0.000585927 2 0 0.0994487 -0.333848
213 1 2.64953 4.14475 0.20674 4 0.000524881 2 0 0.0994487 -0.0285725
214 1 1.89758 4.96895 0.278386 4 0.000447252 2 0 0.0994487 -0.153434
215 1 3.40771 4.86189 0.161635 4 0.000894039 2 0 0.0994487 -0.0163887
216 1 3.494 4.07675 0.885909 4 0.000774169 2 0 0.0994487 0.0268912
217 1 4.91235 4.00001 1.18344 4 0.00151457 2 0 0.0994487 0.0115068
218 1 4.04658 4.88002 1.14639 4 0.00122062 2 0 0.0994487 0.264488
219 1 4.26027 4.18509 0.149001 4 0.00115574 2 0 0.0994487 0.0377377
220 1 5.00947 4.74001 0.341082 4 0.00190792 2 0 0.0994487 0.0765388
221 1 5.77735 3.9378 0.198707 4 0.00212027 2 0 0.0994487 0.0260153
222 1 6.48883 3.76611 0.772067 4 0.00285422 2 0 0.0994487 0.204552
223 1 5.68025 4.73638 1.02487 4 0.00267498 2 0 0.0994487 -0.621695
224 1 6.66321 4.5115 1.6428 4 0.00375704 2 0 0.0994487 0.158932
225 1 6.68072 5.1315 0.885352 4 0.00463987 2 0 0.0994487 0.20685
226 1 8.1982 3.892 0.700757 4 0.00647628 2 0 0.0994487 -0.369902
227 1 7.40842 4.46072 0.5468 4 0.00537769 2 0 0.0994487 -0.0252136
228 1 7.39886 3.87029 1.49684 4 0.00442601 2 0 0.0994487 0.102576
229 1 8.20004 4.61106 1.48677 4 0.00784323 2 0 0.0994487 -0.0118385
230 1 9.8976 3.57792 0.885667 4 0.0112288 2 0 0.0994487 0.592774
231 1 9.07913 4.56551 0.821335 4 0.0110775 2 0 0.0994487 -0.658546
232 1 9.86266 4.50302 0.126324 4 0.0136317 2 0 0.0994487 0.0958652
233 1 9.07829 3.76256 1.49819 4 0.00878699 2 0 0.0994487 -0.0708861
234 1 9.86881 4.3462 1.65532 4 0.0140667 2 0 0.0994487 -0.0856629
235 1 8.98541 3.86821 0.0631775 4 0.00853407 2 0 0.0994487 -0.138754
236 1 11.408 3.64493 0.778297 4 0.0199729 2 0 0.0994487 0.202067
237 1 10.5891 4.66652 0.906264 4 0.0197137 2 0 0.0994487 0.0450757
238 1 11.3867 4.69403 0.230734 4 0.026458 2 0 0.0994487 -0.0498902
239 1 10.7059 3.56689 1.58785 4 0.0152483 2 0 0.0994487 -0.0448494
240 1 11.3652 4.3716 1.70545 4 0.0241686 2 0 0.0994487 -0.0798277
241 1 11.3894 5.27213 0.983682 4 0.0309836 2 0 0.0994487 -0.674477
242 1 10.5826 3.84888 0.176129 4 0.0150651 2 0 0.0994487 0.210466
243 1 12.5168 3.57716 0.814749 4 0.0287342 2 0 0.0994487 -0.0105742
244 1 12.1916 4.55033 1.00021 4 0.0334992 2 0 0.0994487 0.105051
245 1 12.7362 4.99738 1.68903 4 0.0429701 2 0 0.0994487 0.191331
246 1 13.2258 4.67863 0.80017 4 0.0482105 2 0 0.0994487 -0.00469126
247 1 12.6435 4.61885 0.0632315 4 0.0401909 2 0 0.0994487 -0.0335794
248 1 13.9891 4.12825 0.69648 4 0.0523566 2 0 0.0994487 -0.430171
249 1 13.4832 4.21781 1.59317 4 0.0448005 2 0 0.0994487 0.0820197
250 1 14.2046 5.11838 1.52001 4 0.071286 2 0 0.0994487 -0.0289882
251 1 14.9402 5.01141 0.811699 4 0.0843733 2 0 0.0994487 -0.0526386
252 1 14.9642 4.4167 1.59432 4 0.0723655 2 0 0.0994487 -0.0635593
253 1 14.1405 4.90647 0.0597868 4 0.066542 2 0 0.0994487 -0.0856922
254 1 14.961 4.19423 0.096508 4 0.0661742 2 0 0.0994487 0.032275
255 1 15.6685 4.06642 0.926277 4 0.0766952 2 0 0.0994487 0.87259
256 1 15.8798 4.77595 0.186426 4 0.097384 2 0 0.0994487 0.165394
257 1 16.5936 4.58036 0.900182 4 0.110105 2 0 0.0994487 -0.078942
258 1 16.3184 3.95875 1.6903 4 0.0871814 2 0 0.0994487 -0.0433934
259 1 15.8111 5.05317 1.64084 4 0.104 2 0 0.0994487 0.0995038
260 1 17.2689 3.83372 0.811237 4 0.103697 2 0 0.0994487 -0.345376
261 1 18.0864 4.48855 1.09806 4 0.139299 2 0 0.0994487 -0.612114
262 1 17.9525 3.63794 1.65602 4 0.109345 2 0 0.0994487 -0.192802
263 1 17.4569 4.57727 0.0147963 4 0.12683 2 0 0.0994487 -0.097407
264 1 18.1348 3.8547 0.0583493 4 0.117568 2 0 0.0994487 -0.120515
265 1 18.8779 3.70667 0.95022 4 0.123636 2 0 0.0994487 0.0692563
266 1 18.8235 4.60949 0.361826 4 0.154357 2 0 0.0994487 0.115613
267 1 19.6906 4.67872 1.0803 4 0.183864 2 0 0.0994487 0.931526
268 1 18.7859 5.27693 1.20102 4 0.194991 2 0 0.0994487 0.599131
269 1 19.5987 3.76722 0.227421 4 0.132605 2 0 0.0994487 0.164271
270 1 20.4384 3.82188 1.23329 4 0.15065 2 0 0.0994487 0.325959
271 1 20.8846 4.71868 1.39403 4 0.221451 2 0 0.0994487 0.149062
272 1 21.5775 4.95128 0.810455 3 0.265324 2 0 0.0993578 -0.00374288
273 1 21.0824 3.93136 0.512408 4 0.165958 2 0 0.0994487 0.0883061
274 1 20.1339 4.78559 0.352846 4 0.200982 2 0 0.0994487 0.145589
275 1 22.8205 3.63186 1.42135 4 0.162048 2 0 0.0994487 -0.0183983
276 1 21.9406 4.13318 1.31068 4 0.192329 2 0 0.0994487 0.027207
277 1 22.4705 5.17735 1.27286 3 0.299875 2 0 0.0990943 0.0207083
278 1 22.6119 4.34705 0.510028 4 0.210946 2 0 0.0994487 -0.0221046
279 1 23.5735 3.63903 0.782677 4 0.161664 2 0 0.0994487 0.185561
280 1 24.336 4.32055 0.625018 4 0.197757 2 0 0.0994487 -0.150094
281 1 23.4679 4.54946 1.33355 4 0.228013 2 0 0.0994487 -0.0790549
282 1 24.8518 5.25716 0.566763 3 0.257169 2 0 0.099408 0.0409054
283 1 23.5518 5.06386 0.533607 3 0.276342 2 0 0.0992834 -0.0968887
284 1 25.0086 4.50055 1.62342 4 0.193763 2 0 0.0994487 -0.0421956
285 1 25.0629 3.68037 0.802132 4 0.144366 2 0 0.0994487 -0.187918
286 1 24.363 5.28843 1.43377 3 0.278953 2 0 0.0992645 -0.154711
287 1 25.6904 5.1389 1.34266 4 0.218323 2 0 0.0994487 0.210099
288 1 26.3575 4.29031 1.37159 4 0.145587 2 0 0.0994487 0.149481
289 1 26.5026 4.97257 0.640732 4 0.174097 2 0 0.0994487 0.0989656
290 1 25.5284 4.40089 0.388179 4 0.17242 2 0 0.0994487 0.0559471
291 1 27.3302 4.86961 1.40568 4 0.141006 2 0 0.0994487 0.00660873
292 1 27.9624 3.97641 1.10408 4 0.0908051 2 0 0.0994487 -0.309506
293 1 28.2771 4.73475 0.706344 4 0.108301 2 0 0.0994487 -0.0812484
294 1 27.0674 4.04323 0.570038 4 0.114772 2 0 0.0994487 0.0120216
295 1 28.9321 3.77016 0.487204 4 0.0690662 2 0 0.0994487 -0.00703317
296 1 29.0873 4.52317 1.33085 4 0.0838184 2 0 0.0994487 0.0574849
297 1 29.9979 4.07209 1.02303 4 0.0616759 2 0 0.0994487 -0.275232
298 1 31.0296 3.97382 0.373364 4 0.053068 2 0 0.0994487 0.657583
299 1 30.2046 4.67765 0.491317 4 0.0707467 2 0 0.0994487 0.00995792
300 1 30.9783 4.59929 1.41131 4 0.0619318 2 0 0.0994487 0.679914
301 1 0.908283 5.53205 0.461647 4 0.000340416 2 0 0.0994487 -0.463785
302 1 1.53161 5.51184 1.37971 4 0.000426561 2 0 0.0994487 -0.117387
303 1 0.793684 6.22023 1.2768 4 0.000391785 2 0 0.0994487 -0.703381
304 1 0.257003 6.91734 1.50738 4 0.000388688 2 0 0.0994487 -0.772633
305 1 0.969942 6.9454 0.573423 4 0.0004947 2 0 0.0994487 -0.473533
306 1 1.7053 7.02884 1.23811 4 0.00064151 2 0 0.0994487 0.0665173
307 1 1.89588 6.19966 0.519025 4 0.000594881 2 0 0.0994487 -0.156401
308 1 3.10475 5.61709 1.30057 4 0.00090229 2 0 0.0994487 0.0402516
309 1 2.26359 6.15348 1.40977 4 0.000669522 2 0 0.0994487 0.0408555
310 1 3.25442 6.96226 1.12748 4 0.00140345 2 0 0.0994487 -0.0541251
311 1 2.68177 5.61289 0.273587 4 0.000746031 2 0 0.0994487 -0.0596863
312 1 3.39503 6.28191 0.500536 4 0.0013001 2 0 0.0994487 -0.121446
313 1 4.18979 5.46246 0.325783 4 0.00154873 2 0 0.0994487 0.0310165
314 1 4.93434 5.42873 1.31778 4 0.00233946 2 0 0.0994487 -0.235102
315 1 4.13622 6.09659 1.22779 4 0.0018285 2 0 0.0994487 -0.0893906
316 1 4.82567 6.23357 0.333842 4 0.00262105 2 0 0.0994487 -0.0345775
317 1 4.77312 6.79931 1.15967 4 0.00301901 2 0 0.0994487 -0.305933
318 1 4.00267 7.02511 0.221759 4 0.00207246 2 0 0.0994487 -0.0853452
319 1 5.78575 5.42185 0.301847 4 0.00330819 2 0 0.0994487 0.0125008
320 1 5.6935 6.24342 0.9632 4 0.00402154 2 0 0.0994487 -0.967781
321 1 6.4578 5.98425 1.59671 4 0.00520734 2 0 0.0994487 0.140912
322 1 6.43234 6.86927 1.00965 4 0.00655755 2 0 0.0994487 0.851668
323 1 6.37773 6.04115 0.154639 4 0.00481011 2 0 0.0994487 0.111111
324 1 5.54993 7.05206 0.147147 4 0.00431165 2 0 0.0994487 0.0363848
325 1 8.21355 5.31419 0.694273 4 0.00967911 2 0 0.0994487 -0.0895968
326 1 7.32761 6.15925 0.754293 4 0.00811169 2 0 0.0994487 0.225727
327 1 7.39163 5.41839 1.49138 4 0.00680423 2 0 0.0994487 0.136751
328 1 8.23884 6.11028 1.49159 4 0.0122454 2 0 0.0994487 0.0187345
329 1 8.01352 6.85364 0.728993 4 0.013714 2 0 0.0994487 0.0691825
330 1 7.28191 6.86379 1.59601 4 0.0100318 2 1 0.0994487 0.126049
331 1 7.33029 5.3575 0.0461812 4 0.0062195 2 0 0.0994487 0.0813558
332 1 9.76796 5.3194 0.792562 4 0.0174341 2 0 0.0994487 0.328443
333 1 8.88016 6.18865 0.736908 4 0.0163035 2 0 0.0994487 -0.235549
334 1 9.05434 5.3271 1.5973 4 0.0136386 2 0 0.0994487 -0.0628324
335 1 9.73844 6.19052 1.46731 4 0.0229507 2 0 0.0994487 -0.106524
336 1 9.09351 6.95013 1.463 4 0.022781 2 2 0.0994487 -0.0761387
337 1 9.76329 6.23201 0.0941385 4 0.0224002 2 0 0.0994487 -0.035954
338 1 8.99733 5.46479 0.012702 4 0.0135209 2 0 0.0994487 -0.134755
339 1 10.5831 6.02196 0.964384 4 0.0290559 2 0 0.0994487 -0.356277
340 1 11.3128 6.37134 0.0776634 4 0.037446 2 0 0.0994487 0.100342
341 1 10.5187 6.94145 0.15452 4 0.0348478 2 0 0.0994487 -0.0735307
342 1 10.4686 6.92564 1.49614 4 0.0369602 2 1 0.0994487 -0.0634603
343 1 11.9994 5.6274 0.183157 4 0.0395618 2 0 0.0994487 -0.0105304
344 1 12.6757 5.81849 0.861776 4 0.0529449 2 0 0.0994487 0.0817471
345 1 11.7774 6.20735 1.05291 4 0.0437782 2 0 0.0994487 0.292301
346 1 13.3219 5.86668 1.55471 4 0.0647785 2 0 0.0994487 0.208169
347 1 13.3506 6.58297 0.813679 4 0.082856 2 0 0.0994487 -0.292111
348 1 13.3212 5.53867 0.0424813 4 0.0607516 2 0 0.0994487 -0.14291
349 1 14.0617 5.71565 0.77266 4 0.0803121 2 0 0.0994487 -0.372675
350 1 14.3278 6.65176 1.40646 4 0.116769 2 1 0.0994487 -0.102929
351 1 14.1303 6.38483 0.0380077 4 0.0932522 2 0 0.0994487 -0.0826085
352 1 15.0282 5.64393 0.034369 4 0.0995158 2 0 0.0994487 0.0573666
353 1 15.8305 5.73813 0.95832 4 0.129756 2 0 0.0994487 0.625764
354 1 15.0472 6.45091 0.806774 4 0.13047 2 0 0.0994487 -0.174628
355 1 16.491 6.45257 1.1401 4 0.191895 2 0 0.0994487 0.205282
356 1 15.1058 5.87594 1.69804 4 0.116354 2 0 0.0994487 -0.0976538
357 1 16.62 5.41933 0.276819 4 0.137523 2 0 0.0994487 0.0799272
358 1 15.6753 6.3382 0.0390223 4 0.141042 2 0 0.0994487 0.0398139
359 1 17.8271 5.30128 0.541411 4 0.165137 2 0 0.0994487 0.150333
360 1 17.113 5.42499 1.24767 4 0.155751 2 0 0.0994487 -0.286564
361 1 17.0619 6.27419 0.411469 4 0.196199 2 0 0.0994487 0.138979
362 1 17.6649 6.24649 1.38542 4 0.224734 2 0 0.0994487 -0.256097
363 1 18.2745 7.0517 1.13153 3 0.313659 2 0 0.0989613 0.667432
364 1 18.3714 6.23173 0.609762 4 0.248588 2 0 0.0994487 0.156216
365 1 19.429 5.75829 0.62055 3 0.254687 2 0 0.0994224 0.0571905
366 1 19.3279 6.55755 1.35081 3 0.327038 2 0 0.0988136 0.279796
367 1 19.9942 6.75229 0.610261 3 0.406116 2 0 0.0974063 -0.0119955
368 1 20.7494 5.77593 0.653722 3 0.328112 2 0 0.0988009 -0.10406
369 1 20.1931 5.61076 1.39557 3 0.277856 2 0 0.0992725 0.312037
370 1 20.7787 6.6124 1.30355 3 0.46116 2 0 0.0955537 -0.344245
371 1 21.6592 6.66248 0.666524 3 0.482478 2 0 0.0945324 -0.0434898
372 1 21.6631 5.87866 1.38528 3 0.390085 2 0 0.0977853 0.0420229
373 1 21.6904 5.73259 0.0517844 3 0.349313 2 0 0.0985202 -0.00150049
374 1 22.6732 5.8279 0.674154 3 0.377247 2 0 0.098049 0.00265874
375 1 22.6319 6.69333 1.20734 3 0.518406 2 0 0.0922803 -0.202487
376 1 23.3484 6.78052 0.267835 3 0.483993 2 0 0.0944517 -0.125373
377 1 23.4822 5.88496 1.30013 3 0.382605 2 0 0.0979429 -0.176366
378 1 24.3197 6.56281 1.15825 3 0.421914 2 0 0.0969705 0.173664
379 1 24.1457 6.00685 0.427617 3 0.361658 2 0 0.0983277 0.00243678
380 1 25.6831 5.86213 0.700952 3 0.272248 2 0 0.099312 0.163895
381 1 25.1124 6.04132 1.67733 3 0.317638 2 0 0.0989194 0.00366741
382 1 25.1593 6.74159 0.495153 3 0.377103 2 0 0.0980518 0.0903891
383 1 25.8251 6.59457 1.40775 3 0.322112 2 0 0.0988702 0.0880993
384 1 26.6903 5.84511 1.4763 4 0.221124 2 0 0.0994487 0.09176
385 1 27.4966 5.54334 0.722172 4 0.163146 2 0 0.0994487 -0.251575
386 1 26.7485 6.36567 0.651888 4 0.24886 2 0 0.0994487 0.0387484
387 1 27.7011 6.47315 1.36539 4 0.201655 2 0 0.0994487 0.131491
388 1 28.3648 5.52203 1.4872 4 0.131953 2 0 0.0994487 0.0456325
389 1 27.7097 7.0074 0.530173 4 0.22486 2 0 0.0994487 0.0321214
390 1 29.3889 5.30889 0.818726 4 0.100215 2 0 0.0994487 0.316725
391 1 29.4379 6.18214 1.32212 4 0.119618 2 0 0.0994487 -0.00338176
392 1 29.5784 6.89773 0.506505 4 0.134869 2 0 0.0994487 0.0925856
393 1 28.4685 6.20589 0.638647 4 0.149933 2 0 0.0994487 -0.270083
394 1 29.3762 6.15398 0.0801838 4 0.119961 2 0 0.0994487 0.096926
395 1 28.4822 5.38976 0.0592959 4 0.121337 2 0 0.0994487 -0.105003
396 1 30.9636 5.36838 0.595026 4 0.0788343 2 0 0.0994487 0.667849
397 1 30.2159 5.45949 1.46813 4 0.0868864 2 0 0.0994487 0.0540211
398 1 30.3958 6.18258 0.649752 4 0.101116 2 0 0.0994487 0.329
399 1 31.2189 6.15516 1.38439 4 0.0896727 2 0 0.0994487 0.587258
400 1 31.1994 6.95407 0.60342 4 0.105708 2 0 0.0994487 0.812251
401 1 31.7235 5.99622 0.446564 4 0.0835647 2 0 0.0994487 0.879729
402 1 0.261851 7.63199 0.661866 4 0.000460013 2 0 0.0994487 -0.876374
403 1 0.831025 8.46344 0.61936 4 0.000604793 2 0 0.0994487 -0.577626
404 1 1.11211 7.86396 1.49711 4 0.000588695 2 0 0.0994487 -0.154429
405 1 0.356955 8.5626 1.47035 4 0.000531221 2 0 0.0994487 -0.764984
406 1 1.59266 7.76478 0.37187 4 0.000715836 2 0 0.0994487 -0.0897883
407 1 1.72382 8.61735 1.46471 4 0.000848711 2 0 0.0994487 0.0395964
408 1 2.48799 7.14986 0.476331 4 0.000991617 2 0 0.0994487 -0.0836972
409 1 2.19177 8.6335 0.399707 4 0.00109434 2 0 0.0994487 -0.137268
410 1 2.39416 7.81099 1.27726 4 0.00104389 2 0 0.0994487 0.0869911
411 1 3.01349 8.51445 0.935533 4 0.00162884 2 0 0.0994487 -0.539317
412 1 3.24418 7.77117 0.327041 4 0.00163783 2 0 0.0994487 -0.196206
413 1 3.81243 8.45898 0.0822892 4 0.00230089 2 0 0.0994487 -0.0457795
414 1 3.97971 7.67009 1.24863 4 0.00232076 2 0 0.0994487 -0.0554908
415 1 4.70459 8.25653 0.921772 4 0.00361084 2 0 0.0994487 0.29532
416 1 4.67023 7.63706 0.247803 4 0.00315028 2 0 0.0994487 0.0376898
417 1 3.81127 8.34851 1.76162 4 0.0023094 2 0 0.0994487 -0.0574368
418 1 5.86955 8.34822 0.169905 4 0.00625655 2 0 0.0994487 0.113103
419 1 5.48363 7.59071 1.03232 4 0.00493265 2 0 0.0994487 -0.467673
420 1 6.49365 7.53799 0.169175 4 0.00744779 2 0 0.0994487 0.187621
421 1 6.39674 8.23976 1.04384 4 0.008769 2 0 0.0994487 0.338163
422 1 7.28583 7.76918 0.746313 4 0.0125709 2 1 0.0994487 0.00995055
423 1 8.2859 8.31376 0.868772 4 0.0225559 2 2 0.0994487 0.278205
424 1 7.27857 8.18368 1.7015 4 0.0150315 2 2 0.0994487 -0.174797
425 1 8.05208 7.48784 1.5604 4 0.0172504 2 1 0.0994487 0.184981
426 1 7.99895 7.60312 0.0282118 4 0.0155025 2 0 0.0994487 0.0674117
427 1 9.84313 7.22199 0.72344 4 0.0316732 2 1 0.0994487 -0.346958
428 1 8.91207 7.61626 0.661731 4 0.0241799 2 1 0.0994487 0.15848
429 1 9.73234 8.61964 0.693151 4 0.0424326 2 3 0.0994487 -0.256986
430 1 9.09265 8.69904 1.44495 4 0.0371965 2 9 0.0994487 -0.394539
431 1 9.64026 7.88932 1.60055 4 0.0390373 2 8 0.0994487 -0.340572
432 1 11.3161 7.14287 0.810636 4 0.0484769 2 1 0.0994487 0.448649
433 1 10.5731 7.9454 0.844311 4 0.0482606 2 3 0.0994487 -0.197712
434 1 10.5877 8.70196 1.4255 4 0.0591276 1 8 0.0994487 -0.149164
435 1 11.4057 7.80503 1.60301 4 0.064639 2 7 0.0994487 0.228773
436 1 11.227 8.11851 0.0422735 4 0.0553387 2 0 0.0994487 0.174337
437 1 12.7061 7.28322 0.565784 4 0.0820005 2 0 0.0994487 -0.0531406
438 1 12.178 8.23518 0.590765 4 0.0832612 2 2 0.0994487 0.16385
439 1 12.0637 7.15788 1.37768 4 0.0647217 2 3 0.0994487 0.145856
440 1 12.0887 8.68064 1.49044 4 0.0964578 1 8 0.0994487 0.0816415
441 1 12.8601 7.99585 1.47598 4 0.111537 2 6 0.0994487 -0.218105
442 1 14.3373 7.3542 0.580954 4 0.1342 2 0 0.0994487 0.0662101
443 1 13.6169 8.09282 0.464536 4 0.128256 2 2 0.0994487 0.0239408
444 1 13.458 7.34024 1.34133 4 0.110907 2 2 0.0994487 0.054646
445 1 14.2471 8.18371 1.35246 4 0.171353 2 4 0.0994487 0.0578908
446 1 16.4328 7.18497 0.276798 4 0.223102 2 0 0.0994487 -0.0654878
447 1 15.6276 7.3114 0.923132 4 0.19901 2 0 0.0994487 -0.445046
448 1 15.0689 8.29247 0.865596 4 0.212153 2 1 0.0994487 -0.298119
449 1 16.2782 8.16194 1.10481 0 0.276868 1 0 0.0992796 -0.367038