ITEM: TIMESTEP
9500
ITEM: NUMBER OF ATOMS
9495
ITEM: BOX BOUNDS mm mm mm
0.0000000000000000e+00 3.1748021039364001e+01
0.0000000000000000e+00 3.1748021039364001e+01
-7.4072398406925706e-04 3.1748021039364001e+01
ITEM: ATOMS id type x y z c_phase c_temp c_surf c_nbond c_visc f_3[1]
1 1 0.116341 1.10259 0.464337 4 4.15244e-15 2 0 0.0994487 -0.681941
2 1 0.974108 1.6685 0.77798 4 2.59013e-14 2 0 0.0994487 -0.517033
3 1 0.714648 0.793562 1.41295 4 8.55665e-15 2 0 0.0994487 -0.281794
4 1 0.00336375 1.60273 1.37437 4 5.52662e-15 2 0 0.0994487 -0.804051
5 1 0.729896 0.0633724 0.61602 4 4.09155e-15 3 0 0.0994487 -0.190374
6 1 1.71015 0.808983 1.0155 4 4.72397e-14 2 0 0.0994487 -0.33207
7 1 1.80059 1.47468 0.221075 4 6.59692e-14 2 0 0.0994487 -0.12583
8 1 1.82015 1.66049 1.76126 4 8.67921e-14 2 0 0.0994487 -0.139534
9 1 2.52093 0.749102 0.203812 4 1.23283e-13 2 0 0.0994487 -0.14294
10 1 2.59149 0.0538711 1.03726 4 9.76719e-14 2 0 0.0994487 -0.295005
11 1 2.64922 1.541 0.882848 4 3.34212e-13 2 0 0.0994487 0.235748
12 1 2.66829 0.815502 1.7457 4 1.79019e-13 2 0 0.0994487 -0.187041
13 1 3.43386 0.933692 0.956349 4 7.68315e-13 2 0 0.0994487 0.320235
14 1 3.49924 0.0925696 1.70571 4 3.311e-13 2 0 0.0994487 0.178052
15 1 3.60652 1.70798 1.71994 4 1.50026e-12 2 0 0.0994487 0.0487933
16 1 4.10576 0.858321 0.325305 4 1.89023e-12 2 0 0.0994487 0.153144
17 1 4.96159 0.56786 1.17466 4 6.53567e-12 2 0 0.0994487 -0.0370702
18 1 4.91949 1.59987 0.383508 4 1.23188e-11 2 0 0.0994487 -0.100251
19 1 4.3472 0.941527 1.62884 4 2.85672e-12 2 0 0.0994487 0.110735
20 1 3.47612 0.111428 0.171027 4 2.87944e-13 2 0 0.0994487 0.166214
21 1 5.64741 0.645627 0.325839 4 1.7928e-11 2 0 0.0994487 -0.0806069
22 1 5.88414 1.31048 0.938036 4 4.44927e-11 2 0 0.0994487 -0.199604
23 1 6.57478 1.39104 0.218369 4 1.17261e-10 2 0 0.0994487 -0.0861364
24 1 5.78374 0.460658 1.69897 4 1.72265e-11 2 0 0.0994487 -0.0846547
25 1 5.03122 1.72414 1.43602 4 1.5373e-11 2 0 0.0994487 0.0453684
26 1 6.7138 0.39031 0.865278 4 7.35974e-11 2 0 0.0994487 -0.0793845
27 1 6.69104 1.00962 1.69374 4 9.50347e-11 2 0 0.0994487 -0.107926
28 1 8.2679 0.408875 1.07337 4 5.75785e-10 2 0 0.0994487 -0.10017
29 1 7.36782 1.22285 0.954198 4 3.35992e-10 2 0 0.0994487 -0.302569
30 1 8.24709 1.39092 0.236779 4 1.10296e-09 2 0 0.0994487 -0.0460679
31 1 8.12868 1.27217 1.60653 4 8.64286e-10 2 0 0.0994487 -0.00812054
32 1 7.58247 0.647807 0.140287 4 2.53411e-10 2 0 0.0994487 -0.110938
33 1 8.85849 0.508506 0.273966 4 1.16849e-09 2 0 0.0994487 -0.061649
34 1 9.55301 0.3386 0.888639 4 2.69444e-09 2 0 0.0994487 0.00505999
35 1 9.02586 1.30716 1.1133 4 3.10914e-09 2 0 0.0994487 -0.0606582
37 1 9.63995 1.37474 0.0900752 4 5.19351e-09 2 0 0.0994487 0.0992885
38 1 11.2128 0.215893 0.632658 4 1.80782e-08 2 0 0.0994487 0.203498
39 1 10.3637 1.04743 0.823114 4 1.26906e-08 2 0 0.0994487 0.539875
40 1 10.523 0.196295 1.44539 4 7.58888e-09 2 0 0.0994487 0.0644256
41 1 11.2856 1.01846 1.41785 4 4.02349e-08 2 0 0.0994487 0.1647
42 1 10.5797 1.67706 1.72992 4 2.69945e-08 2 0 0.0994487 0.11816
43 1 10.2431 0.367861 0.0780499 4 4.33833e-09 2 0 0.0994487 0.149799
44 1 12.8757 0.211714 0.636805 4 1.27162e-07 2 0 0.0994487 0.0587834
45 1 12.0457 1.07408 0.506655 4 1.07646e-07 2 0 0.0994487 -0.023557
46 1 12.1319 0.316439 1.29957 4 6.23624e-08 2 0 0.0994487 0.0188312
47 1 12.7194 1.19864 1.3723 4 2.56089e-07 2 0 0.0994487 -0.0305359
48 1 14.3729 0.318493 0.764646 4 6.66366e-07 2 0 0.0994487 -0.0460418
49 1 13.5924 1.113 0.843618 4 6.41443e-07 2 0 0.0994487 -0.263064
50 1 14.0399 1.55958 0.167469 4 1.32752e-06 2 0 0.0994487 -0.0898286
51 1 13.6075 0.359834 1.6352 4 2.87496e-07 2 0 0.0994487 -0.056267
52 1 14.3777 1.14948 1.47647 4 1.2579e-06 2 0 0.0994487 -0.0178327
53 1 14.8761 1.55337 0.662943 4 3.00987e-06 2 0 0.0994487 0.389938
54 1 15.7061 0.770636 0.788259 4 3.30219e-06 2 0 0.0994487 0.366477
55 1 16.5532 1.54451 0.681338 4 1.47937e-05 2 0 0.0994487 0.000797231
56 1 15.1422 0.4642 1.64149 4 1.33626e-06 2 0 0.0994487 0.152074
57 1 16.547 0.712289 1.3421 4 7.05074e-06 2 0 0.0994487 0.0956207
58 1 15.6341 1.48544 1.3916 4 6.03476e-06 2 0 0.0994487 0.153624
59 1 15.1049 0.711806 0.0677822 4 1.29533e-06 2 0 0.0994487 0.169201
60 1 17.2544 0.732268 0.547589 4 1.14636e-05 2 0 0.0994487 0.0286262
61 1 17.9231 1.58109 0.757246 4 4.32584e-05 2 0 0.0994487 0.041557
62 1 17.916 0.742935 1.42801 4 2.0132e-05 2 0 0.0994487 -0.224381
63 1 17.2202 1.74884 1.56274 4 3.17865e-05 2 0 0.0994487 -0.0984886
64 1 19.5372 0.0167772 0.662766 4 2.20446e-05 2 0 0.0994487 0.0436427
65 1 18.7918 0.725074 0.684829 4 3.0834e-05 2 0 0.0994487 -0.269948
66 1 19.5395 1.55488 0.841653 4 0.000103394 2 0 0.0994487 -0.341165
67 1 19.0276 0.158607 1.54508 4 2.06423e-05 2 0 0.0994487 -0.158665
68 1 19.5934 0.967491 1.68957 4 5.50554e-05 2 0 0.0994487 0.00834897
69 1 18.6564 1.51302 1.50035 4 6.32194e-05 2 0 0.0994487 -0.250312
70 1 21.0889 0.349843 1.06749 4 5.42969e-05 2 0 0.0994487 -0.196127
71 1 20.2493 0.776373 0.980057 4 6.33575e-05 2 0 0.0994487 -0.0497642
72 1 21.1062 1.65725 0.951506 4 0.000191199 2 0 0.0994487 0.69291
73 1 21.1874 0.765598 0.218806 4 7.06345e-05 2 0 0.0994487 -0.0445914
74 1 20.3457 1.51479 0.193617 4 0.00012328 2 0 0.0994487 -0.0806033
75 1 22.0087 0.262534 0.539755 4 5.48883e-05 2 0 0.0994487 0.0993587
76 1 22.7913 0.430275 1.40734 4 6.92443e-05 2 0 0.0994487 0.206599
77 1 22.1105 1.14763 1.32981 4 0.000129166 2 0 0.0994487 0.240021
78 1 21.9982 1.59955 0.538558 4 0.000212375 2 0 0.0994487 0.185171
79 1 22.9157 1.07463 0.445168 4 0.000123434 2 0 0.0994487 0.0520837
80 1 24.228 0.380179 1.45209 4 6.57989e-05 2 0 0.0994487 0.0576166
81 1 23.5672 0.357563 0.57369 4 6.63093e-05 2 0 0.0994487 0.0385706
82 1 24.4367 1.18687 0.754729 4 0.000143574 2 0 0.0994487 -0.0192961
83 1 23.4757 1.2499 1.4028 4 0.000164206 2 0 0.0994487 0.0298765
84 1 24.955 0.315686 0.551996 4 5.3778e-05 2 0 0.0994487 -0.0171984
85 1 26.0085 0.383365 1.1715 4 4.20499e-05 2 0 0.0994487 -0.185859
86 1 25.169 1.12579 1.48087 4 0.000116894 2 0 0.0994487 0.0251056
87 1 25.9301 1.73476 1.35794 4 0.000169968 2 0 0.0994487 0.0345376
88 1 25.8917 0.929212 0.432102 4 6.91358e-05 2 0 0.0994487 -0.0954188
89 1 27.5736 1.28032 0.38906 4 3.8687e-05 2 0 0.0994487 0.04545
90 1 27.6142 0.50928 0.874321 4 2.06382e-05 2 0 0.0994487 0.175388
91 1 26.7559 1.02809 1.26347 4 5.15899e-05 2 0 0.0994487 -0.236884
92 1 28.3748 0.337482 1.39813 4 1.04978e-05 2 0 0.0994487 0.00984525
93 1 26.7925 0.240345 0.226621 4 2.19837e-05 2 0 0.0994487 0.0380752
94 1 28.6489 1.24263 0.742341 4 1.96324e-05 2 0 0.0994487 0.102407
95 1 29.3912 0.945639 1.56878 4 7.89128e-06 2 0 0.0994487 -0.0191998
96 1 28.5228 1.71921 1.49749 4 3.08503e-05 2 0 0.0994487 -0.0429798
97 1 29.8133 0.173958 1.46124 4 3.04822e-06 2 0 0.0994487 0.133416
98 1 29.2734 0.3547 0.615275 4 5.19205e-06 2 0 0.0994487 -0.0816806
99 1 31.5874 0.266128 1.25663 4 6.58835e-07 3 0 0.0994487 0.830096
100 1 30.7016 0.49015 0.470738 4 1.86529e-06 2 0 0.0994487 0.354852
101 1 30.1009 1.19877 0.774133 4 5.86455e-06 2 0 0.0994487 0.210921
102 1 30.8649 0.971942 1.39386 4 2.64383e-06 2 0 0.0994487 0.703282
103 1 1.11081 2.43607 0.129285 4 3.93489e-14 2 0 0.0994487 -0.0373227
104 1 0.133403 2.3821 0.812241 4 1.2482e-14 2 0 0.0994487 -0.984517
105 1 1.28845 3.23764 0.949187 4 1.33566e-13 2 0 0.0994487 0.222085
106 1 1.13977 2.36077 1.59162 4 5.36921e-14 2 0 0.0994487 -0.22219
107 1 0.386685 3.02999 1.54944 4 2.75432e-14 2 0 0.0994487 -0.671256
108 1 0.332248 3.09582 0.131296 4 2.08571e-14 2 0 0.0994487 -0.59134
109 1 1.90972 2.41867 0.78376 4 1.89823e-13 2 0 0.0994487 0.0782058
110 1 2.65852 3.28029 0.860875 4 1.26761e-12 2 0 0.0994487 0.0668001
111 1 2.66931 2.22918 1.53373 4 5.45591e-13 2 0 0.0994487 0.0829532
112 1 3.2579 3.42668 1.64938 4 3.31548e-12 2 0 0.0994487 0.00397277
113 1 2.7261 2.38168 0.0557193 4 4.41134e-13 2 0 0.0994487 0.1466
114 1 3.38195 2.55413 0.779289 4 2.25518e-12 2 0 0.0994487 0.21158
115 1 4.00679 1.841 0.711184 4 3.72299e-12 2 0 0.0994487 -0.0361276
116 1 4.91383 2.57277 0.815661 4 2.63131e-11 2 0 0.0994487 -0.259357
117 1 4.20148 3.3175 0.749446 4 1.46224e-11 2 0 0.0994487 0.00621191
118 1 4.13245 2.64107 1.58328 4 7.49648e-12 2 0 0.0994487 0.0270749
119 1 5.65047 2.44269 0.132743 4 6.18692e-11 2 0 0.0994487 -0.189927
120 1 6.55776 2.18062 0.772597 4 2.23976e-10 2 0 0.0994487 -0.289409
121 1 5.64874 3.19593 0.952489 4 1.22841e-10 2 0 0.0994487 -0.754646
122 1 5.861 2.19426 1.49672 4 7.49485e-11 2 0 0.0994487 0.0126325
123 1 6.52037 3.06691 1.5557 4 3.73692e-10 2 0 0.0994487 0.0443543
124 1 6.65033 2.92778 0.134227 4 3.43137e-10 2 0 0.0994487 0.0288843
125 1 7.45405 2.22586 0.139832 4 7.33857e-10 2 0 0.0994487 -0.0535058
126 1 8.08209 2.20208 0.930382 4 1.94355e-09 2 0 0.0994487 -0.302103
127 1 7.40132 3.06835 0.934051 4 1.48448e-09 2 0 0.0994487 -0.045564
128 1 7.29928 2.06035 1.56856 4 5.37148e-10 2 0 0.0994487 -0.0607359
129 1 8.18545 3.00183 1.65211 4 3.74011e-09 2 0 0.0994487 -0.0454191
130 1 8.26934 2.9712 0.0392146 4 3.88783e-09 2 0 0.0994487 -0.15062
131 1 8.90393 2.08699 0.252387 4 4.45568e-09 2 0 0.0994487 0.00242894
132 1 9.77243 2.0246 1.10996 4 1.46889e-08 2 0 0.0994487 0.173447
133 1 8.92671 2.97262 0.928693 4 1.11311e-08 2 0 0.0994487 -0.156793
134 1 9.03062 2.22066 1.70398 4 6.21608e-09 2 0 0.0994487 -0.0819713
135 1 9.56096 2.90576 0.21312 4 1.96565e-08 2 0 0.0994487 0.173116
136 1 10.2834 2.1137 0.214297 4 2.19045e-08 2 0 0.0994487 0.337736
137 1 11.1583 1.82604 0.771092 4 6.99465e-08 2 0 0.0994487 0.260078
138 1 10.6214 2.80819 0.921535 4 8.50045e-08 2 0 0.0994487 0.541902
139 1 11.4444 2.82964 1.57484 4 2.33485e-07 2 0 0.0994487 0.0951924
140 1 12.6737 1.94118 0.593851 4 5.07129e-07 2 0 0.0994487 -0.283942
141 1 11.928 2.64099 0.742299 4 3.71677e-07 2 0 0.0994487 -0.0386837
142 1 11.9239 1.9206 1.46509 4 1.89742e-07 2 0 0.0994487 0.0946456
143 1 12.8449 3.01766 1.68597 4 1.3283e-06 2 0 0.0994487 0.0363509
144 1 13.1791 3.03035 0.848852 4 2.21971e-06 2 0 0.0994487 -0.440875
145 1 13.3784 1.9912 1.48064 4 1.02376e-06 2 0 0.0994487 -0.015076
146 1 14.0206 2.44438 0.927124 4 3.20879e-06 2 0 0.0994487 -0.133131
147 1 14.0279 3.38359 1.55716 4 6.79957e-06 2 0 0.0994487 0.0255682
148 1 14.6961 3.43698 0.884932 4 1.48706e-05 2 0 0.0994487 -0.333011
149 1 14.7823 2.29758 1.44821 4 5.6951e-06 2 0 0.0994487 0.0469217
150 1 14.8418 2.51505 0.136557 4 6.5984e-06 2 0 0.0994487 0.173
151 1 14.1591 3.2262 0.0325348 4 6.46387e-06 2 0 0.0994487 -0.246109
152 1 13.4137 2.29398 0.0590902 4 1.36702e-06 2 0 0.0994487 -0.280965
153 1 15.6993 2.44373 0.692668 4 1.56662e-05 2 0 0.0994487 0.36438
154 1 16.3029 3.20095 0.662084 4 5.27501e-05 2 0 0.0994487 0.328578
155 1 16.308 2.47951 1.52575 4 2.98002e-05 2 0 0.0994487 -0.100653
156 1 15.3694 3.25723 1.50191 4 2.43425e-05 2 0 0.0994487 -0.00767527
157 1 15.5706 3.25854 0.0192499 4 2.13487e-05 2 0 0.0994487 0.290234
158 1 17.0646 2.35032 0.682778 4 4.88775e-05 2 0 0.0994487 0.0234741
159 1 17.944 2.92608 0.699539 4 0.000169115 2 0 0.0994487 -0.231197
160 1 18.0193 2.43917 1.58112 4 0.000109302 2 0 0.0994487 -0.14914
161 1 17.0918 3.1162 1.49491 4 0.000104667 2 0 0.0994487 -0.143442
162 1 18.8908 2.35742 1.01358 4 0.000171744 2 0 0.0994487 -0.516835
163 1 19.7027 3.2427 1.27782 4 0.000591161 2 0 0.0994487 0.394876
164 1 18.884 2.99607 0.196019 4 0.000291558 2 0 0.0994487 -0.171811
165 1 19.587 2.34239 0.101452 4 0.000212543 2 0 0.0994487 -0.132371
166 1 20.3251 1.78863 1.72442 4 0.000154213 2 0 0.0994487 0.0449514
167 1 21.1565 2.41663 0.458355 4 0.000437753 2 0 0.0994487 0.196186
168 1 20.1948 2.46882 1.11433 4 0.000331902 2 0 0.0994487 0.286735
169 1 21.31 3.29463 1.39314 4 0.00124548 2 0 0.0994487 0.077727
170 1 20.4222 2.99313 0.334941 4 0.000592609 2 0 0.0994487 0.186289
171 1 22.8719 2.07007 1.50872 4 0.000412399 2 0 0.0994487 -0.0221243
172 1 22.9717 2.60199 0.735523 4 0.000819974 2 0 0.0994487 0.133325
173 1 22.0961 2.49917 1.23787 4 0.000643872 2 0 0.0994487 0.186435
174 1 21.9898 3.20043 0.598797 4 0.00136891 2 0 0.0994487 -0.0757525
175 1 22.6771 3.40124 0.07601 4 0.00165614 2 0 0.0994487 0.076073
176 1 23.7438 1.80844 0.624025 4 0.0002959 2 0 0.0994487 -0.0873596
177 1 24.4289 1.98763 1.61102 4 0.000338673 2 0 0.0994487 -0.0641754
178 1 24.342 2.68296 0.775192 4 0.00074769 2 0 0.0994487 -0.341092
179 1 23.6887 2.90303 1.53628 4 0.00102189 2 0 0.0994487 -0.110505
180 1 24.4728 3.51078 1.55704 4 0.00174071 2 0 0.0994487 -0.118305
181 1 24.9562 2.84566 0.0146836 4 0.000631983 2 0 0.0994487 -0.0864593
182 1 26.5483 1.79415 0.511367 4 0.000126238 2 0 0.0994487 -0.00559876
183 1 25.1322 1.85613 0.509414 4 0.000251568 2 0 0.0994487 -0.0215283
184 1 25.7918 2.61203 0.707489 4 0.00046192 2 0 0.0994487 0.228204
185 1 25.1579 2.55548 1.52547 4 0.000535794 2 0 0.0994487 0.0576675
186 1 25.7213 3.49812 1.51211 4 0.00117585 2 0 0.0994487 0.123858
187 1 26.5364 2.56002 1.53049 4 0.000289503 2 0 0.0994487 0.057949
188 1 26.1686 3.50068 0.599043 4 0.000951334 2 0 0.0994487 0.168847
189 1 27.5039 1.98546 1.23792 4 8.59841e-05 2 0 0.0994487 -0.186416
190 1 28.2489 2.09022 0.343734 4 5.28993e-05 2 0 0.0994487 -0.0177241
191 1 27.0867 2.6924 0.645359 4 0.000235929 2 0 0.0994487 -0.105599
192 1 27.1998 3.35397 1.41682 4 0.000413342 2 0 0.0994487 -0.0983263
193 1 28.2537 2.75799 1.20639 4 0.000104821 2 0 0.0994487 -0.418303
194 1 27.982 3.21993 0.326384 4 0.00018288 2 0 0.0994487 -0.125256
195 1 29.9568 1.80906 1.70764 4 1.0572e-05 2 0 0.0994487 0.183201
196 1 29.4477 2.04702 0.879698 4 2.15962e-05 2 0 0.0994487 -0.0070802
197 1 29.1956 2.6589 0.290703 4 4.10899e-05 2 0 0.0994487 -0.0578275
198 1 29.2495 3.2651 1.17365 4 7.15436e-05 2 0 0.0994487 0.118638
199 1 30.9114 1.98502 0.924207 4 6.48907e-06 2 0 0.0994487 0.96725
200 1 30.1815 2.71094 1.00186 4 1.99267e-05 2 0 0.0994487 0.675109
201 1 31.0247 3.35309 0.97101 4 1.66364e-05 2 0 0.0994487 0.998409
202 1 30.9865 2.69483 1.72648 4 9.50126e-06 2 0 0.0994487 0.578501
203 1 30.1092 3.25953 0.132205 4 2.6623e-05 2 0 0.0994487 -0.0443653
204 1 30.4116 1.90909 0.0255368 4 7.13836e-06 2 0 0.0994487 0.106045
205 1 31.1434 2.66402 0.0761253 4 7.57754e-06 2 0 0.0994487 0.70882
206 1 0.293831 3.78503 0.918557 4 4.18046e-14 2 0 0.0994487 -0.999347
207 1 0.143046 4.59443 0.482118 4 5.04351e-14 2 0 0.0994487 -0.784494
208 1 1.14036 4.67093 0.986638 4 2.75344e-13 2 0 0.0994487 -0.516757
209 1 0.0884667 5.26681 1.27761 4 6.71426e-14 2 0 0.0994487 -0.887458
210 1 1.04069 3.86421 0.0595682 4 1.08542e-13 2 0 0.0994487 0.0148874
211 1 1.84117 4.04604 0.847105 4 5.95637e-13 2 0 0.0994487 0.00826289
212 1 2.54049 4.85585 1.13748 4 3.01353e-12 2 0 0.0994487 -0.33385
213 1 2.64953 4.14475 0.20674 4 2.11924e-12 2 0 0.0994487 -0.0285734
214 1 1.89758 4.96895 0.278386 4 1.07775e-12 2 0 0.0994487 -0.153435
215 1 3.40771 4.86189 0.161635 4 1.08176e-11 2 0 0.0994487 -0.0163899
216 1 3.494 4.07675 0.885909 4 8.37236e-12 2 0 0.0994487 0.0268857
217 1 4.91235 4.00001 1.18344 4 7.21714e-11 2 0 0.0994487 0.0114967
218 1 4.04658 4.88002 1.14639 4 3.38578e-11 2 0 0.0994487 0.264484
219 1 4.26027 4.18509 0.149001 4 2.52398e-11 2 0 0.0994487 0.0377363
220 1 5.00947 4.74001 0.341082 4 1.21591e-10 2 0 0.0994487 0.0765365
221 1 5.77735 3.9378 0.198707 4 1.90913e-10 2 0 0.0994487 0.0260136
222 1 6.48883 3.76611 0.772067 4 6.17509e-10 2 0 0.0994487 0.204545
223 1 5.68025 4.73638 1.02487 4 3.80841e-10 2 0 0.0994487 -0.621718
224 1 6.66321 4.5115 1.6428 4 1.20834e-09 2 0 0.0994487 0.15893
225 1 6.68072 5.1315 0.885352 4 2.15019e-09 2 0 0.0994487 0.206838
226 1 8.1982 3.892 0.700757 4 8.45299e-09 2 0 0.0994487 -0.369911
227 1 7.40842 4.46072 0.5468 4 3.86322e-09 2 0 0.0994487 -0.0252179
228 1 7.39886 3.87029 1.49684 4 2.43388e-09 2 0 0.0994487 0.102572
229 1 8.20004 4.61106 1.48677 4 1.32075e-08 2 0 0.0994487 -0.0118429
230 1 9.8976 3.57792 0.885667 4 6.41021e-08 2 0 0.0994487 0.59272
231 1 9.07913 4.56551 0.821335 4 4.3669e-08 2 0 0.0994487 -0.658561
232 1 9.86266 4.50302 0.126324 4 9.10918e-08 2 0 0.0994487 0.0958614
233 1 9.07829 3.76256 1.49819 4 2.45342e-08 2 0 0.0994487 -0.0708906
234 1 9.86881 4.3462 1.65532 4 1.04345e-07 2 0 0.0994487 -0.0856674
235 1 8.98541 3.86821 0.0631775 4 1.98132e-08 2 0 0.0994487 -0.138757
236 1 11.408 3.64493 0.778297 4 4.55685e-07 2 0 0.0994487 0.202055
237 1 10.5891 4.66652 0.906264 4 3.45736e-07 2 0 0.0994487 0.0450374
238 1 11.3867 4.69403 0.230734 4 8.92996e-07 2 0 0.0994487 -0.0498963
239 1 10.7059 3.56689 1.58785 4 1.74597e-07 2 0 0.0994487 -0.0448561
240 1 11.3652 4.3716 1.70545 4 6.95253e-07 2 0 0.0994487 -0.0798346
241 1 11.3894 5.27213 0.983682 4 1.41005e-06 2 0 0.0994487 -0.674504
242 1 10.5826 3.84888 0.176129 4 1.57575e-07 2 0 0.0994487 0.210462
243 1 12.5168 3.57716 0.814749 4 1.64003e-06 2 0 0.0994487 -0.01059
244 1 12.1916 4.55033 1.00021 4 2.32066e-06 2 0 0.0994487 0.105001
245 1 12.7362 4.99738 1.68903 4 5.07434e-06 2 0 0.0994487 0.191322
246 1 13.2258 4.67863 0.80017 4 8.52155e-06 2 0 0.0994487 -0.00473149
247 1 12.6435 4.61885 0.0632315 4 3.83576e-06 2 0 0.0994487 -0.0335859
248 1 13.9891 4.12825 0.69648 4 1.30433e-05 2 0 0.0994487 -0.430195
249 1 13.4832 4.21781 1.59317 4 7.2505e-06 2 0 0.0994487 0.0820096
250 1 14.2046 5.11838 1.52001 4 3.26898e-05 2 0 0.0994487 -0.0290009
251 1 14.9402 5.01141 0.811699 4 6.40572e-05 2 0 0.0994487 -0.0529143
252 1 14.9642 4.4167 1.59432 4 4.08532e-05 2 0 0.0994487 -0.0635689
253 1 14.1405 4.90647 0.0597868 4 2.38556e-05 2 0 0.0994487 -0.0857011
254 1 14.961 4.19423 0.096508 4 3.053e-05 2 0 0.0994487 0.0322673
255 1 15.6685 4.06642 0.926277 4 6.26896e-05 2 0 0.0994487 0.872555
256 1 15.8798 4.77595 0.186426 4 0.000119069 2 0 0.0994487 0.165383
257 1 16.5936 4.58036 0.900182 4 0.000224261 2 0 0.0994487 -0.0790303
258 1 16.3184 3.95875 1.6903 4 0.000104142 2 0 0.0994487 -0.0434032
259 1 15.8111 5.05317 1.64084 4 0.000138874 2 0 0.0994487 0.0994934
260 1 17.2689 3.83372 0.811237 4 0.000225341 2 0 0.0994487 -0.345395
261 1 18.0864 4.48855 1.09806 4 0.000687166 2 0 0.0994487 -0.61221
262 1 17.9525 3.63794 1.65602 4 0.000309612 2 0 0.0994487 -0.19281
263 1 17.4569 4.57727 0.0147963 4 0.000366209 2 0 0.0994487 -0.0974126
264 1 18.1348 3.8547 0.0583493 4 0.000362141 2 0 0.0994487 -0.120519
265 1 18.8779 3.70667 0.95022 4 0.000591953 2 0 0.0994487 0.0692032
266 1 18.8235 4.60949 0.361826 4 0.00114725 2 0 0.0994487 0.115606
267 1 19.6906 4.67872 1.0803 4 0.00245549 2 0 0.0994487 0.931534
268 1 18.7859 5.27693 1.20102 4 0.00218322 2 0 0.0994487 0.599126
269 1 19.5987 3.76722 0.227421 4 0.000853409 2 0 0.0994487 0.164267
270 1 20.4384 3.82188 1.23329 4 0.00158562 2 0 0.0994487 0.32595
271 1 20.8846 4.71868 1.39403 4 0.0050604 2 0 0.0994487 0.149055
272 1 21.5775 4.95128 0.810455 4 0.00859988 2 0 0.0994487 -0.00375774
273 1 21.0824 3.93136 0.512408 4 0.00228452 2 0 0.0994487 0.088301
274 1 20.1339 4.78559 0.352846 4 0.00333665 2 0 0.0994487 0.145584
275 1 22.8205 3.63186 1.42135 4 0.00240505 2 0 0.0994487 -0.0184007
276 1 21.9406 4.13318 1.31068 4 0.00383317 2 0 0.0994487 0.0272021
277 1 22.4705 5.17735 1.27286 4 0.0129435 2 0 0.0994487 0.0207043
278 1 22.6119 4.34705 0.510028 4 0.0051055 2 0 0.0994487 -0.0221076
279 1 23.5735 3.63903 0.782677 4 0.00249982 2 0 0.0994487 0.185557
280 1 24.336 4.32055 0.625018 4 0.00456049 2 0 0.0994487 -0.150094
281 1 23.4679 4.54946 1.33355 4 0.00671806 2 0 0.0994487 -0.0790571
282 1 24.8518 5.25716 0.566763 4 0.00911936 2 0 0.0994487 0.0409067
283 1 23.5518 5.06386 0.533607 4 0.0109128 2 0 0.0994487 -0.0968904
284 1 25.0086 4.50055 1.62342 4 0.00424893 2 0 0.0994487 -0.0421949
285 1 25.0629 3.68037 0.802132 4 0.00186016 2 0 0.0994487 -0.187917
286 1 24.363 5.28843 1.43377 4 0.0117571 2 0 0.0994487 -0.15471
287 1 25.6904 5.1389 1.34266 4 0.00576928 2 0 0.0994487 0.210101
288 1 26.3575 4.29031 1.37159 4 0.00181786 2 0 0.0994487 0.149484
289 1 26.5026 4.97257 0.640732 4 0.00292697 2 0 0.0994487 0.0989686
290 1 25.5284 4.40089 0.388179 4 0.00297786 2 0 0.0994487 0.0559484
291 1 27.3302 4.86961 1.40568 4 0.00150293 2 0 0.0994487 0.00661191
292 1 27.9624 3.97641 1.10408 4 0.000412441 2 0 0.0994487 -0.309502
293 1 28.2771 4.73475 0.706344 4 0.000604967 2 0 0.0994487 -0.0812434
294 1 27.0674 4.04323 0.570038 4 0.000873988 2 0 0.0994487 0.0120245
295 1 28.9321 3.77016 0.487204 4 0.00014209 2 0 0.0994487 -0.00703115
296 1 29.0873 4.52317 1.33085 4 0.000243437 2 0 0.0994487 0.0574879
297 1 29.9979 4.07209 1.02303 4 6.871e-05 2 0 0.0994487 -0.275233
298 1 31.0296 3.97382 0.373364 4 2.43861e-05 2 0 0.0994487 0.657583
299 1 30.2046 4.67765 0.491317 4 9.00969e-05 2 0 0.0994487 0.00995969
300 1 30.9783 4.59929 1.41131 4 4.08354e-05 2 0 0.0994487 0.679915
301 1 0.908283 5.53205 0.461647 4 3.00506e-13 2 0 0.0994487 -0.463785
302 1 1.53161 5.51184 1.37971 4 7.8265e-13 2 0 0.0994487 -0.117388
303 1 0.793684 6.22023 1.2768 4 3.48372e-13 2 0 0.0994487 -0.703381
304 1 0.257003 6.91734 1.50738 4 1.87977e-13 2 0 0.0994487 -0.772633
305 1 0.969942 6.9454 0.573423 4 6.84422e-13 2 0 0.0994487 -0.473533
306 1 1.7053 7.02884 1.23811 4 2.23574e-12 2 0 0.0994487 0.0665163
307 1 1.89588 6.19966 0.519025 4 2.2224e-12 2 0 0.0994487 -0.156402
308 1 3.10475 5.61709 1.30057 4 1.14048e-11 2 0 0.0994487 0.0402501
309 1 2.26359 6.15348 1.40977 4 3.50628e-12 2 0 0.0994487 0.0408547
310 1 3.25442 6.96226 1.12748 4 3.23226e-11 2 0 0.0994487 -0.0541269
311 1 2.68177 5.61289 0.273587 4 5.6053e-12 2 0 0.0994487 -0.0596873
312 1 3.39503 6.28191 0.500536 4 2.90387e-11 2 0 0.0994487 -0.121448
313 1 4.18979 5.46246 0.325783 4 5.74941e-11 2 0 0.0994487 0.0310146
314 1 4.93434 5.42873 1.31778 4 2.05783e-10 2 0 0.0994487 -0.235104
315 1 4.13622 6.09659 1.22779 4 8.9589e-11 2 0 0.0994487 -0.0893926
316 1 4.82567 6.23357 0.333842 4 2.48551e-10 2 0 0.0994487 -0.0345794
317 1 4.77312 6.79931 1.15967 4 3.74624e-10 2 0 0.0994487 -0.305935
318 1 4.00267 7.02511 0.221759 4 1.01789e-10 2 0 0.0994487 -0.0853464
319 1 5.78575 5.42185 0.301847 4 6.06157e-10 2 0 0.0994487 0.0124988
320 1 5.6935 6.24342 0.9632 4 1.03359e-09 2 0 0.0994487 -0.967781
321 1 6.4578 5.98425 1.59671 4 2.52366e-09 2 0 0.0994487 0.14091
322 1 6.43234 6.86927 1.00965 4 4.62497e-09 2 0 0.0994487 0.851663
323 1 6.37773 6.04115 0.154639 4 1.78776e-09 2 0 0.0994487 0.11111
324 1 5.54993 7.05206 0.147147 4 1.02287e-09 2 0 0.0994487 0.0363837
325 1 8.21355 5.31419 0.694273 4 2.22872e-08 2 0 0.0994487 -0.0896063
326 1 7.32761 6.15925 0.754293 4 1.04973e-08 2 0 0.0994487 0.225721
327 1 7.39163 5.41839 1.49138 4 7.01227e-09 2 0 0.0994487 0.136748
328 1 8.23884 6.11028 1.49159 4 3.81428e-08 2 0 0.0994487 0.0187307
329 1 8.01352 6.85364 0.728993 4 4.32878e-08 2 0 0.0994487 0.0691769
330 1 7.28191 6.86379 1.59601 4 1.58103e-08 2 1 0.0994487 0.126044
331 1 7.33029 5.3575 0.0461812 4 4.6955e-09 2 0 0.0994487 0.0813539
332 1 9.76796 5.3194 0.792562 4 1.73609e-07 2 0 0.0994487 0.328426
333 1 8.88016 6.18865 0.736908 4 9.8284e-08 2 0 0.0994487 -0.235556
334 1 9.05434 5.3271 1.5973 4 6.84479e-08 2 0 0.0994487 -0.0628362
335 1 9.73844 6.19052 1.46731 4 3.12771e-07 2 0 0.0994487 -0.106424
336 1 9.09351 6.95013 1.463 4 2.31949e-07 2 2 0.0994487 -0.0757438
337 1 9.76329 6.23201 0.0941385 4 2.60388e-07 2 0 0.0994487 -0.0359565
338 1 8.99733 5.46479 0.012702 4 5.41541e-08 2 0 0.0994487 -0.134757
339 1 10.5831 6.02196 0.964384 4 8.22032e-07 2 0 0.0994487 -0.356526
340 1 11.3128 6.37134 0.0776634 4 1.70724e-06 2 0 0.0994487 0.100337
341 1 10.5187 6.94145 0.15452 4 9.88234e-07 2 0 0.0994487 -0.0735437
342 1 10.4686 6.92564 1.49614 4 1.30899e-06 2 1 0.0994487 -0.0635878
343 1 11.9994 5.6274 0.183157 4 3.05402e-06 2 0 0.0994487 -0.0105375
344 1 12.6757 5.81849 0.861776 4 9.3621e-06 2 0 0.0994487 0.0817123
345 1 11.7774 6.20735 1.05291 4 3.93255e-06 2 0 0.0994487 0.292129
346 1 13.3219 5.86668 1.55471 4 1.90671e-05 2 0 0.0994487 0.208156
347 1 13.3506 6.58297 0.813679 4 3.40436e-05 2 0 0.0994487 -0.29215
348 1 13.3212 5.53867 0.0424813 4 1.46956e-05 2 0 0.0994487 -0.142918
349 1 14.0617 5.71565 0.77266 4 4.27624e-05 2 0 0.0994487 -0.372796
350 1 14.3278 6.65176 1.40646 4 0.000115133 2 1 0.0994487 -0.103182
351 1 14.1303 6.38483 0.0380077 4 5.44483e-05 2 0 0.0994487 -0.082617
352 1 15.0282 5.64393 0.034369 4 9.15073e-05 2 0 0.0994487 0.057356
353 1 15.8305 5.73813 0.95832 4 0.000257829 2 0 0.0994487 0.625752
354 1 15.0472 6.45091 0.806774 4 0.000197674 2 0 0.0994487 -0.176106
355 1 16.491 6.45257 1.1401 4 0.000810216 2 0 0.0994487 0.208282
356 1 15.1058 5.87594 1.69804 4 0.000145761 2 0 0.0994487 -0.0976663
357 1 16.62 5.41933 0.276819 4 0.000373265 2 0 0.0994487 0.079914
358 1 15.6753 6.3382 0.0390223 4 0.000272257 2 0 0.0994487 0.0398434
359 1 17.8271 5.30128 0.541411 4 0.00097502 2 0 0.0994487 0.150321
360 1 17.113 5.42499 1.24767 4 0.00066553 2 0 0.0994487 -0.286589
361 1 17.0619 6.27419 0.411469 4 0.00105615 2 0 0.0994487 0.138941
362 1 17.6649 6.24649 1.38542 4 0.00190106 2 0 0.0994487 -0.25428
363 1 18.2745 7.0517 1.13153 4 0.00521107 2 1 0.0994487 0.631101
364 1 18.3714 6.23173 0.609762 4 0.00323426 2 0 0.0994487 0.156176
365 1 19.429 5.75829 0.62055 4 0.00524764 2 0 0.0994487 0.0571833
366 1 19.3279 6.55755 1.35081 4 0.00940064 2 1 0.0994487 0.27474
367 1 19.9942 6.75229 0.610261 4 0.0172868 2 0 0.0994487 -0.0119201
368 1 20.7494 5.77593 0.653722 4 0.0129338 2 0 0.0994487 -0.104071
369 1 20.1931 5.61076 1.39557 4 0.00819781 2 0 0.0994487 0.312017
370 1 20.7787 6.6124 1.30355 4 0.0294901 2 1 0.0994487 -0.344597
371 1 21.6592 6.66248 0.666524 4 0.0367333 2 0 0.0994487 -0.0435326
372 1 21.6631 5.87866 1.38528 4 0.0229623 2 0 0.0994487 0.0420757
373 1 21.6904 5.73259 0.0517844 4 0.0149804 2 0 0.0994487 -0.00150252
374 1 22.6732 5.8279 0.674154 4 0.0229333 2 0 0.0994487 0.00265334
375 1 22.6319 6.69333 1.20734 4 0.0531567 2 0 0.0994487 -0.201749
376 1 23.3484 6.78052 0.267835 4 0.0427476 2 0 0.0994487 -0.125383
377 1 23.4822 5.88496 1.30013 4 0.0264305 2 0 0.0994487 -0.176406
378 1 24.3197 6.56281 1.15825 4 0.0344111 2 0 0.0994487 0.173502
379 1 24.1457 6.00685 0.427617 4 0.0217062 2 0 0.0994487 0.00243671
380 1 25.6831 5.86213 0.700952 4 0.0100729 2 0 0.0994487 0.163897
381 1 25.1124 6.04132 1.67733 4 0.015967 2 0 0.0994487 0.00366795
382 1 25.1593 6.74159 0.495153 4 0.0235309 2 0 0.0994487 0.0903898
383 1 25.8251 6.59457 1.40775 4 0.015465 2 0 0.0994487 0.0881012
384 1 26.6903 5.84511 1.4763 4 0.00531537 2 0 0.0994487 0.0917634
385 1 27.4966 5.54334 0.722172 4 0.00216463 2 0 0.0994487 -0.251568
386 1 26.7485 6.36567 0.651888 4 0.00699508 2 0 0.0994487 0.0387528
387 1 27.7011 6.47315 1.36539 4 0.00354723 2 0 0.0994487 0.131496
388 1 28.3648 5.52203 1.4872 4 0.00100329 2 0 0.0994487 0.0456351
389 1 27.7097 7.0074 0.530173 4 0.00449269 2 0 0.0994487 0.032127
390 1 29.3889 5.30889 0.818726 4 0.000342929 2 0 0.0994487 0.316729
391 1 29.4379 6.18214 1.32212 4 0.000528984 2 0 0.0994487 -0.00337897
392 1 29.5784 6.89773 0.506505 4 0.000666763 2 0 0.0994487 0.0925894
393 1 28.4685 6.20589 0.638647 4 0.00137792 2 0 0.0994487 -0.270076
394 1 29.3762 6.15398 0.0801838 4 0.000489815 2 0 0.0994487 0.0969272
395 1 28.4822 5.38976 0.0592959 4 0.000669649 2 0 0.0994487 -0.105002
396 1 30.9636 5.36838 0.595026 4 7.60813e-05 2 0 0.0994487 0.667848
397 1 30.2159 5.45949 1.46813 4 0.000151248 2 0 0.0994487 0.0540226
398 1 30.3958 6.18258 0.649752 4 0.00021067 2 0 0.0994487 0.329004
399 1 31.2189 6.15516 1.38439 4 8.88389e-05 2 0 0.0994487 0.587258
400 1 31.1994 6.95407 0.60342 4 0.000139866 2 0 0.0994487 0.812253
401 1 31.7235 5.99622 0.446564 4 5.2268e-05 2 0 0.0994487 0.879729
402 1 0.261851 7.63199 0.661866 4 2.95129e-13 2 0 0.0994487 -0.876374
403 1 0.831025 8.46344 0.61936 4 9.4607e-13 2 0 0.0994487 -0.577627
404 1 1.11211 7.86396 1.49711 4 1.07133e-12 2 0 0.0994487 -0.154429
405 1 0.356955 8.5626 1.47035 4 4.1857e-13 2 0 0.0994487 -0.764984
406 1 1.59266 7.76478 0.37187 4 2.57864e-12 2 0 0.0994487 -0.089789
407 1 1.72382 8.61735 1.46471 4 4.1074e-12 2 0 0.0994487 0.0395955
408 1 2.48799 7.14986 0.476331 4 9.85632e-12 2 0 0.0994487 -0.0836986
409 1 2.19177 8.6335 0.399707 4 9.61604e-12 2 0 0.0994487 -0.137269
410 1 2.39416 7.81099 1.27726 4 1.0486e-11 2 0 0.0994487 0.0869898
411 1 3.01349 8.51445 0.935533 4 3.91931e-11 2 0 0.0994487 -0.53932
412 1 3.24418 7.77117 0.327041 4 4.22545e-11 2 0 0.0994487 -0.196207
413 1 3.81243 8.45898 0.0822892 4 1.1274e-10 2 0 0.0994487 -0.0457804
414 1 3.97971 7.67009 1.24863 4 1.43506e-10 2 0 0.0994487 -0.0554923
415 1 4.70459 8.25653 0.921772 4 5.81468e-10 2 0 0.0994487 0.29531
416 1 4.67023 7.63706 0.247803 4 3.75234e-10 2 0 0.0994487 0.0376885
417 1 3.81127 8.34851 1.76162 4 1.12085e-10 2 0 0.0994487 -0.0574375
418 1 5.86955 8.34822 0.169905 4 2.84247e-09 2 0 0.0994487 0.113102
419 1 5.48363 7.59071 1.03232 4 1.63978e-09 2 0 0.0994487 -0.467678
420 1 6.49365 7.53799 0.169175 4 5.4641e-09 2 0 0.0994487 0.18762
421 1 6.39674 8.23976 1.04384 4 9.02924e-09 2 0 0.0994487 0.33814
422 1 7.28583 7.76918 0.746313 4 2.622e-08 2 1 0.0994487 0.00992938
423 1 8.2859 8.31376 0.868772 4 1.46869e-07 2 2 0.0994487 0.278797
424 1 7.27857 8.18368 1.7015 4 4.00929e-08 2 2 0.0994487 -0.174647
425 1 8.05208 7.48784 1.5604 4 7.35348e-08 2 1 0.0994487 0.185082
426 1 7.99895 7.60312 0.0282118 4 4.22579e-08 2 0 0.0994487 0.0674104
427 1 9.84313 7.22199 0.72344 4 6.6155e-07 2 1 0.0994487 -0.346943
428 1 8.91207 7.61626 0.661731 4 2.3339e-07 2 1 0.0994487 0.158699
429 1 9.73234 8.61964 0.693151 4 1.11817e-06 2 3 0.0994487 -0.25734
430 1 9.09265 8.69904 1.44495 4 6.41796e-07 2 9 0.0994487 -0.396288
431 1 9.64026 7.88932 1.60055 4 9.55591e-07 2 8 0.0994487 -0.34074
432 1 11.3161 7.14287 0.810636 4 3.83526e-06 2 1 0.0994487 0.448442
433 1 10.5731 7.9454 0.844311 4 2.43769e-06 2 3 0.0994487 -0.198629
434 1 10.5877 8.70196 1.4255 4 4.04389e-06 1 8 0.0994487 -0.145861
435 1 11.4057 7.80503 1.60301 4 7.54476e-06 2 7 0.0994487 0.228539
436 1 11.227 8.11851 0.0422735 4 3.76845e-06 2 0 0.0994487 0.174314
437 1 12.7061 7.28322 0.565784 4 2.34107e-05 2 0 0.0994487 -0.0531359
438 1 12.178 8.23518 0.590765 4 1.86404e-05 2 2 0.0994487 0.164066
439 1 12.0637 7.15788 1.37768 4 1.11652e-05 2 3 0.0994487 0.14593