ITEM: TIMESTEP
50500
ITEM: NUMBER OF ATOMS
9495
ITEM: BOX BOUNDS mm mm mm
0.0000000000000000e+00 3.1748021039364001e+01
0.0000000000000000e+00 3.1748021039364001e+01
-7.4072398406925706e-04 3.1748021039364001e+01
ITEM: ATOMS id type x y z c_phase c_temp c_surf c_nbond c_visc f_3[1]
1 1 0.116341 1.10259 0.464337 4 0.00143741 2 0 0.0994487 -0.681941
2 1 0.974108 1.6685 0.77798 4 0.00182991 2 0 0.0994487 -0.517033
3 1 0.714648 0.793562 1.41295 4 0.00154728 2 0 0.0994487 -0.281794
4 1 0.00336375 1.60273 1.37437 4 0.00152366 2 0 0.0994487 -0.804051
5 1 0.729896 0.0633724 0.61602 4 0.00135796 3 0 0.0994487 -0.190374
6 1 1.71015 0.808983 1.0155 4 0.0020298 2 0 0.0994487 -0.33207
7 1 1.80059 1.47468 0.221075 4 0.00214346 2 0 0.0994487 -0.12583
8 1 1.82015 1.66049 1.76126 4 0.00224465 2 0 0.0994487 -0.139534
9 1 2.52093 0.749102 0.203812 4 0.00244217 2 0 0.0994487 -0.14294
10 1 2.59149 0.0538711 1.03726 4 0.00243927 2 0 0.0994487 -0.295005
11 1 2.64922 1.541 0.882848 4 0.00279288 2 0 0.0994487 0.235749
12 1 2.66829 0.815502 1.7457 4 0.00262603 2 0 0.0994487 -0.187041
13 1 3.43386 0.933692 0.956349 4 0.00338073 2 0 0.0994487 0.320236
14 1 3.49924 0.0925696 1.70571 4 0.00300555 2 0 0.0994487 0.178052
15 1 3.60652 1.70798 1.71994 4 0.00394899 2 0 0.0994487 0.0487934
16 1 4.10576 0.858321 0.325305 4 0.00423333 2 0 0.0994487 0.153144
17 1 4.96159 0.56786 1.17466 4 0.00602797 2 0 0.0994487 -0.0370699
18 1 4.91949 1.59987 0.383508 4 0.00658887 2 0 0.0994487 -0.10025
19 1 4.3472 0.941527 1.62884 4 0.00475685 2 0 0.0994487 0.110736
20 1 3.47612 0.111428 0.171027 4 0.00292479 2 0 0.0994487 0.166215
21 1 5.64741 0.645627 0.325839 4 0.00779434 2 0 0.0994487 -0.0806067
22 1 5.88414 1.31048 0.938036 4 0.00893945 2 0 0.0994487 -0.199601
23 1 6.57478 1.39104 0.218369 4 0.0113129 2 0 0.0994487 -0.086136
24 1 5.78374 0.460658 1.69897 4 0.00792646 2 0 0.0994487 -0.0846545
25 1 5.03122 1.72414 1.43602 4 0.00684304 2 0 0.0994487 0.0453688
26 1 6.7138 0.39031 0.865278 4 0.0108719 2 0 0.0994487 -0.0793841
27 1 6.69104 1.00962 1.69374 4 0.0111049 2 0 0.0994487 -0.107926
28 1 8.2679 0.408875 1.07337 4 0.0167921 2 0 0.0994487 -0.100169
29 1 7.36782 1.22285 0.954198 4 0.0141046 2 0 0.0994487 -0.302566
30 1 8.24709 1.39092 0.236779 4 0.0183565 2 0 0.0994487 -0.0460672
31 1 8.12868 1.27217 1.60653 4 0.0172476 2 0 0.0994487 -0.00811989
32 1 7.58247 0.647807 0.140287 4 0.0142937 2 0 0.0994487 -0.110938
33 1 8.85849 0.508506 0.273966 4 0.0197295 2 0 0.0994487 -0.0616484
34 1 9.55301 0.3386 0.888639 4 0.0231689 2 0 0.0994487 0.00506092
35 1 9.02586 1.30716 1.1133 4 0.022359 2 0 0.0994487 -0.0606555
37 1 9.63995 1.37474 0.0900752 4 0.0255554 2 0 0.0994487 0.0992891
38 1 11.2128 0.215893 0.632658 4 0.0348356 2 0 0.0994487 0.2035
39 1 10.3637 1.04743 0.823114 4 0.0301012 2 0 0.0994487 0.539878
40 1 10.523 0.196295 1.44539 4 0.0291972 2 0 0.0994487 0.0644264
41 1 11.2856 1.01846 1.41785 4 0.039266 2 0 0.0994487 0.164702
42 1 10.5797 1.67706 1.72992 4 0.0351442 2 0 0.0994487 0.118161
43 1 10.2431 0.367861 0.0780499 4 0.0262802 2 0 0.0994487 0.149799
44 1 12.8757 0.211714 0.636805 4 0.0555092 2 0 0.0994487 0.0587846
45 1 12.0457 1.07408 0.506655 4 0.0493901 2 0 0.0994487 -0.0235554
46 1 12.1319 0.316439 1.29957 4 0.0467661 2 0 0.0994487 0.0188327
47 1 12.7194 1.19864 1.3723 4 0.0596891 2 0 0.0994487 -0.0305336
48 1 14.3729 0.318493 0.764646 4 0.0776597 2 0 0.0994487 -0.0460408
49 1 13.5924 1.113 0.843618 4 0.0728014 2 0 0.0994487 -0.263061
50 1 14.0399 1.55958 0.167469 4 0.0841195 2 0 0.0994487 -0.0898276
51 1 13.6075 0.359834 1.6352 4 0.0665606 2 0 0.0994487 -0.0562659
52 1 14.3777 1.14948 1.47647 4 0.0827505 2 0 0.0994487 -0.0178313
53 1 14.8761 1.55337 0.662943 4 0.0949658 2 0 0.0994487 0.38994
54 1 15.7061 0.770636 0.788259 4 0.0991492 2 0 0.0994487 0.366479
55 1 16.5532 1.54451 0.681338 4 0.127833 2 0 0.0994487 0.000799402
56 1 15.1422 0.4642 1.64149 4 0.0870423 2 0 0.0994487 0.152075
57 1 16.547 0.712289 1.3421 4 0.116283 2 0 0.0994487 0.0956223
58 1 15.6341 1.48544 1.3916 4 0.107111 2 0 0.0994487 0.153626
59 1 15.1049 0.711806 0.0677822 4 0.0871868 2 0 0.0994487 0.169201
60 1 17.2544 0.732268 0.547589 4 0.129859 2 0 0.0994487 0.0286275
61 1 17.9231 1.58109 0.757246 4 0.15473 2 0 0.0994487 0.0415592
62 1 17.916 0.742935 1.42801 4 0.143173 2 0 0.0994487 -0.224379
63 1 17.2202 1.74884 1.56274 4 0.146973 2 0 0.0994487 -0.0984871
64 1 19.5372 0.0167772 0.662766 4 0.150526 2 0 0.0994487 0.0436434
65 1 18.7918 0.725074 0.684829 4 0.152855 2 0 0.0994487 -0.269946
66 1 19.5395 1.55488 0.841653 4 0.17519 2 0 0.0994487 -0.341161
67 1 19.0276 0.158607 1.54508 4 0.149184 2 0 0.0994487 -0.158665
68 1 19.5934 0.967491 1.68957 4 0.163235 2 0 0.0994487 0.00835031
69 1 18.6564 1.51302 1.50035 4 0.165064 2 0 0.0994487 -0.25031
70 1 21.0889 0.349843 1.06749 4 0.163343 2 0 0.0994487 -0.196126
71 1 20.2493 0.776373 0.980057 4 0.165339 2 0 0.0994487 -0.0497611
72 1 21.1062 1.65725 0.951506 4 0.183951 2 0 0.0994487 0.692918
73 1 21.1874 0.765598 0.218806 4 0.16687 2 0 0.0994487 -0.0445902
74 1 20.3457 1.51479 0.193617 4 0.178643 2 0 0.0994487 -0.0806018
75 1 22.0087 0.262534 0.539755 4 0.162342 2 0 0.0994487 0.0993599
76 1 22.7913 0.430275 1.40734 4 0.163243 2 0 0.0994487 0.2066
77 1 22.1105 1.14763 1.32981 4 0.173133 2 0 0.0994487 0.240025
78 1 21.9982 1.59955 0.538558 4 0.183441 2 0 0.0994487 0.185173
79 1 22.9157 1.07463 0.445168 4 0.170691 2 0 0.0994487 0.0520858
80 1 24.228 0.380179 1.45209 4 0.157018 2 0 0.0994487 0.0576179
81 1 23.5672 0.357563 0.57369 4 0.160125 2 0 0.0994487 0.0385721
82 1 24.4367 1.18687 0.754729 4 0.166885 2 0 0.0994487 -0.0192925
83 1 23.4757 1.2499 1.4028 4 0.173844 2 0 0.0994487 0.0298794
84 1 24.955 0.315686 0.551996 4 0.149235 2 0 0.0994487 -0.0171972
85 1 26.0085 0.383365 1.1715 4 0.136729 2 0 0.0994487 -0.185858
86 1 25.169 1.12579 1.48087 4 0.158881 2 0 0.0994487 0.0251072
87 1 25.9301 1.73476 1.35794 4 0.160638 2 0 0.0994487 0.0345397
88 1 25.8917 0.929212 0.432102 4 0.144332 2 0 0.0994487 -0.0954175
89 1 27.5736 1.28032 0.38906 4 0.126193 2 0 0.0994487 0.0454507
90 1 27.6142 0.50928 0.874321 4 0.119231 2 0 0.0994487 0.175389
91 1 26.7559 1.02809 1.26347 4 0.133328 2 0 0.0994487 -0.236881
92 1 28.3748 0.337482 1.39813 4 0.108441 2 0 0.0994487 0.00984575
93 1 26.7925 0.240345 0.226621 4 0.125151 2 0 0.0994487 0.0380757
94 1 28.6489 1.24263 0.742341 4 0.113536 2 0 0.0994487 0.102408
95 1 29.3912 0.945639 1.56878 4 0.102202 2 0 0.0994487 -0.0191996
96 1 28.5228 1.71921 1.49749 4 0.11964 2 0 0.0994487 -0.042979
97 1 29.8133 0.173958 1.46124 4 0.0939709 2 0 0.0994487 0.133417
98 1 29.2734 0.3547 0.615275 4 0.0986726 2 0 0.0994487 -0.0816803
99 1 31.5874 0.266128 1.25663 4 0.0800539 3 0 0.0994487 0.830097
100 1 30.7016 0.49015 0.470738 4 0.0892296 2 0 0.0994487 0.354852
101 1 30.1009 1.19877 0.774133 4 0.0992879 2 0 0.0994487 0.210921
102 1 30.8649 0.971942 1.39386 4 0.0919282 2 0 0.0994487 0.703282
103 1 1.11081 2.43607 0.129285 4 0.00199964 2 0 0.0994487 -0.0373227
104 1 0.133403 2.3821 0.812241 4 0.00175191 2 0 0.0994487 -0.984517
105 1 1.28845 3.23764 0.949187 4 0.00245012 2 0 0.0994487 0.222086
106 1 1.13977 2.36077 1.59162 4 0.00208711 2 0 0.0994487 -0.22219
107 1 0.386685 3.02999 1.54944 4 0.00201109 2 0 0.0994487 -0.671256
108 1 0.332248 3.09582 0.131296 4 0.00195352 2 0 0.0994487 -0.59134
109 1 1.90972 2.41867 0.78376 4 0.00251029 2 0 0.0994487 0.0782059
110 1 2.65852 3.28029 0.860875 4 0.00378163 2 0 0.0994487 0.0668004
111 1 2.66931 2.22918 1.53373 4 0.00309958 2 0 0.0994487 0.0829534
112 1 3.2579 3.42668 1.64938 4 0.00480272 2 0 0.0994487 0.00397289
113 1 2.7261 2.38168 0.0557193 4 0.00300347 2 0 0.0994487 0.1466
114 1 3.38195 2.55413 0.779289 4 0.00418978 2 0 0.0994487 0.21158
115 1 4.00679 1.841 0.711184 4 0.00477813 2 0 0.0994487 -0.0361273
116 1 4.91383 2.57277 0.815661 4 0.00762876 2 0 0.0994487 -0.259357
117 1 4.20148 3.3175 0.749446 4 0.00672497 2 0 0.0994487 0.00621204
118 1 4.13245 2.64107 1.58328 4 0.00570758 2 0 0.0994487 0.0270751
119 1 5.65047 2.44269 0.132743 4 0.0096616 2 0 0.0994487 -0.189927
120 1 6.55776 2.18062 0.772597 4 0.0124223 2 0 0.0994487 -0.289406
121 1 5.64874 3.19593 0.952489 4 0.011002 2 0 0.0994487 -0.754646
122 1 5.861 2.19426 1.49672 4 0.00980274 2 0 0.0994487 0.0126329
123 1 6.52037 3.06691 1.5557 4 0.0141451 2 0 0.0994487 0.0443546
124 1 6.65033 2.92778 0.134227 4 0.0138863 2 0 0.0994487 0.0288845
125 1 7.45405 2.22586 0.139832 4 0.0163766 2 0 0.0994487 -0.0535053
126 1 8.08209 2.20208 0.930382 4 0.0198735 2 0 0.0994487 -0.302098
127 1 7.40132 3.06835 0.934051 4 0.0188452 2 0 0.0994487 -0.0455599
128 1 7.29928 2.06035 1.56856 4 0.0152459 2 0 0.0994487 -0.0607355
129 1 8.18545 3.00183 1.65211 4 0.0236321 2 0 0.0994487 -0.0454187
130 1 8.26934 2.9712 0.0392146 4 0.0241292 2 0 0.0994487 -0.150619
131 1 8.90393 2.08699 0.252387 4 0.0241662 2 0 0.0994487 0.00242975
132 1 9.77243 2.0246 1.10996 4 0.0302636 2 0 0.0994487 0.173451
133 1 8.92671 2.97262 0.928693 4 0.0293416 2 0 0.0994487 -0.156788
134 1 9.03062 2.22066 1.70398 4 0.0258539 2 0 0.0994487 -0.0819706
135 1 9.56096 2.90576 0.21312 4 0.0333548 2 0 0.0994487 0.173117
136 1 10.2834 2.1137 0.214297 4 0.0332357 2 0 0.0994487 0.337736
137 1 11.1583 1.82604 0.771092 4 0.0424048 2 0 0.0994487 0.260081
138 1 10.6214 2.80819 0.921535 4 0.0446304 2 0 0.0994487 0.541905
139 1 11.4444 2.82964 1.57484 4 0.0568205 2 0 0.0994487 0.095194
140 1 12.6737 1.94118 0.593851 4 0.0671196 2 0 0.0994487 -0.28394
141 1 11.928 2.64099 0.742299 4 0.0621906 2 0 0.0994487 -0.0386814
142 1 11.9239 1.9206 1.46509 4 0.0537719 2 0 0.0994487 0.0946476
143 1 12.8449 3.01766 1.68597 4 0.0833015 2 0 0.0994487 0.0363521
144 1 13.1791 3.03035 0.848852 4 0.0908185 2 0 0.0994487 -0.440872
145 1 13.3784 1.9912 1.48064 4 0.077615 2 0 0.0994487 -0.0150747
146 1 14.0206 2.44438 0.927124 4 0.0960264 2 0 0.0994487 -0.133126
147 1 14.0279 3.38359 1.55716 4 0.115185 2 0 0.0994487 0.0255691
148 1 14.6961 3.43698 0.884932 4 0.132805 2 0 0.0994487 -0.333006
149 1 14.7823 2.29758 1.44821 4 0.106562 2 0 0.0994487 0.0469227
150 1 14.8418 2.51505 0.136557 4 0.111801 2 0 0.0994487 0.173001
151 1 14.1591 3.2262 0.0325348 4 0.115153 2 0 0.0994487 -0.246109
152 1 13.4137 2.29398 0.0590902 4 0.0840827 2 0 0.0994487 -0.280965
153 1 15.6993 2.44373 0.692668 4 0.128477 2 0 0.0994487 0.364382
154 1 16.3029 3.20095 0.662084 4 0.162975 2 0 0.0994487 0.328579
155 1 16.308 2.47951 1.52575 4 0.144858 2 0 0.0994487 -0.100652
156 1 15.3694 3.25723 1.50191 4 0.144352 2 0 0.0994487 -0.00767473
157 1 15.5706 3.25854 0.0192499 4 0.142702 2 0 0.0994487 0.290234
158 1 17.0646 2.35032 0.682778 4 0.156902 2 0 0.0994487 0.0234756
159 1 17.944 2.92608 0.699539 4 0.19801 2 0 0.0994487 -0.231195
160 1 18.0193 2.43917 1.58112 4 0.180897 2 0 0.0994487 -0.149138
161 1 17.0918 3.1162 1.49491 4 0.184215 2 0 0.0994487 -0.143441
162 1 18.8908 2.35742 1.01358 4 0.191687 2 0 0.0994487 -0.516826
163 1 19.7027 3.2427 1.27782 4 0.233485 2 0 0.0994487 0.394881
164 1 18.884 2.99607 0.196019 4 0.215748 2 0 0.0994487 -0.171809
165 1 19.587 2.34239 0.101452 4 0.198195 2 0 0.0994487 -0.13237
166 1 20.3251 1.78863 1.72442 4 0.182759 2 0 0.0994487 0.0449535
167 1 21.1565 2.41663 0.458355 4 0.208433 2 0 0.0994487 0.196188
168 1 20.1948 2.46882 1.11433 4 0.204202 2 0 0.0994487 0.286748
169 1 21.31 3.29463 1.39314 3 0.252886 2 0 0.0994327 0.077731
170 1 20.4222 2.99313 0.334941 4 0.226469 2 0 0.0994487 0.186291
171 1 22.8719 2.07007 1.50872 4 0.199453 2 0 0.0994487 -0.0221216
172 1 22.9717 2.60199 0.735523 4 0.225064 2 0 0.0994487 0.13333
173 1 22.0961 2.49917 1.23787 4 0.217829 2 0 0.0994487 0.186441
174 1 21.9898 3.20043 0.598797 3 0.255395 2 0 0.0994183 -0.0757475
175 1 22.6771 3.40124 0.07601 3 0.269283 2 0 0.099332 0.0760746
176 1 23.7438 1.80844 0.624025 4 0.186038 2 0 0.0994487 -0.0873566
177 1 24.4289 1.98763 1.61102 4 0.187631 2 0 0.0994487 -0.0641736
178 1 24.342 2.68296 0.775192 4 0.21429 2 0 0.0994487 -0.341087
179 1 23.6887 2.90303 1.53628 4 0.232044 2 0 0.0994487 -0.110502
180 1 24.4728 3.51078 1.55704 3 0.257218 2 0 0.0994077 -0.118302
181 1 24.9562 2.84566 0.0146836 4 0.209636 2 0 0.0994487 -0.0864583
182 1 26.5483 1.79415 0.511367 4 0.150287 2 0 0.0994487 -0.00559735
183 1 25.1322 1.85613 0.509414 4 0.175822 2 0 0.0994487 -0.0215264
184 1 25.7918 2.61203 0.707489 4 0.19072 2 0 0.0994487 0.228207
185 1 25.1579 2.55548 1.52547 4 0.199188 2 0 0.0994487 0.0576695
186 1 25.7213 3.49812 1.51211 4 0.233437 2 0 0.0994487 0.12386
187 1 26.5364 2.56002 1.53049 4 0.172388 2 0 0.0994487 0.0579504
188 1 26.1686 3.50068 0.599043 4 0.222029 2 0 0.0994487 0.168849
189 1 27.5039 1.98546 1.23792 4 0.137801 2 0 0.0994487 -0.186414
190 1 28.2489 2.09022 0.343734 4 0.128946 2 0 0.0994487 -0.0177234
191 1 27.0867 2.6924 0.645359 4 0.163764 2 0 0.0994487 -0.105597
192 1 27.1998 3.35397 1.41682 4 0.183476 2 0 0.0994487 -0.0983245
193 1 28.2537 2.75799 1.20639 4 0.141861 2 0 0.0994487 -0.418301
194 1 27.982 3.21993 0.326384 4 0.157695 2 0 0.0994487 -0.125255
195 1 29.9568 1.80906 1.70764 4 0.10642 2 0 0.0994487 0.183202
196 1 29.4477 2.04702 0.879698 4 0.114558 2 0 0.0994487 -0.00707888
197 1 29.1956 2.6589 0.290703 4 0.125723 2 0 0.0994487 -0.0578271
198 1 29.2495 3.2651 1.17365 4 0.137196 2 0 0.0994487 0.11864
199 1 30.9114 1.98502 0.924207 4 0.104153 2 0 0.0994487 0.967251
200 1 30.1815 2.71094 1.00186 4 0.117351 2 0 0.0994487 0.675111
201 1 31.0247 3.35309 0.97101 4 0.122183 2 0 0.0994487 0.998409
202 1 30.9865 2.69483 1.72648 4 0.11276 2 0 0.0994487 0.578501
203 1 30.1092 3.25953 0.132205 4 0.124179 2 0 0.0994487 -0.0443651
204 1 30.4116 1.90909 0.0255368 4 0.104349 2 0 0.0994487 0.106045
205 1 31.1434 2.66402 0.0761253 4 0.109702 2 0 0.0994487 0.70882
206 1 0.293831 3.78503 0.918557 4 0.00223968 2 0 0.0994487 -0.999347
207 1 0.143046 4.59443 0.482118 4 0.00246678 2 0 0.0994487 -0.784494
208 1 1.14036 4.67093 0.986638 4 0.00309078 2 0 0.0994487 -0.516754
209 1 0.0884667 5.26681 1.27761 4 0.00276602 2 0 0.0994487 -0.887458
210 1 1.04069 3.86421 0.0595682 4 0.00248802 2 0 0.0994487 0.0148875
211 1 1.84117 4.04604 0.847105 4 0.00337968 2 0 0.0994487 0.00826358
212 1 2.54049 4.85585 1.13748 4 0.00496117 2 0 0.0994487 -0.33385
213 1 2.64953 4.14475 0.20674 4 0.00455612 2 0 0.0994487 -0.0285733
214 1 1.89758 4.96895 0.278386 4 0.00412635 2 0 0.0994487 -0.153435
215 1 3.40771 4.86189 0.161635 4 0.00674535 2 0 0.0994487 -0.01639
216 1 3.494 4.07675 0.885909 4 0.0060081 2 0 0.0994487 0.0268858
217 1 4.91235 4.00001 1.18344 4 0.00988776 2 0 0.0994487 0.0114967
218 1 4.04658 4.88002 1.14639 4 0.00844554 2 0 0.0994487 0.264484
219 1 4.26027 4.18509 0.149001 4 0.00813435 2 0 0.0994487 0.0377363
220 1 5.00947 4.74001 0.341082 4 0.0118646 2 0 0.0994487 0.0765363
221 1 5.77735 3.9378 0.198707 4 0.0128336 2 0 0.0994487 0.0260135
222 1 6.48883 3.76611 0.772067 4 0.0159114 2 0 0.0994487 0.204546
223 1 5.68025 4.73638 1.02487 4 0.0152995 2 0 0.0994487 -0.621722
224 1 6.66321 4.5115 1.6428 4 0.0197325 2 0 0.0994487 0.15893
225 1 6.68072 5.1315 0.885352 4 0.0232801 2 0 0.0994487 0.206836
226 1 8.1982 3.892 0.700757 4 0.0294044 2 0 0.0994487 -0.36991
227 1 7.40842 4.46072 0.5468 4 0.0258167 2 0 0.0994487 -0.0252178
228 1 7.39886 3.87029 1.49684 4 0.0221228 2 0 0.0994487 0.102572
229 1 8.20004 4.61106 1.48677 4 0.0343044 2 0 0.0994487 -0.0118428
230 1 9.8976 3.57792 0.885667 4 0.0440257 2 0 0.0994487 0.592726
231 1 9.07913 4.56551 0.821335 4 0.0443991 2 0 0.0994487 -0.658561
232 1 9.86266 4.50302 0.126324 4 0.0517876 2 0 0.0994487 0.095862
233 1 9.07829 3.76256 1.49819 4 0.0368664 2 0 0.0994487 -0.07089
234 1 9.86881 4.3462 1.65532 4 0.0528157 2 0 0.0994487 -0.0856668
235 1 8.98541 3.86821 0.0631775 4 0.0362295 2 0 0.0994487 -0.138756
236 1 11.408 3.64493 0.778297 4 0.0673804 2 0 0.0994487 0.202057
237 1 10.5891 4.66652 0.906264 4 0.0679873 2 0 0.0994487 0.0450436
238 1 11.3867 4.69403 0.230734 4 0.0845712 2 0 0.0994487 -0.0498955
239 1 10.7059 3.56689 1.58785 4 0.0551946 2 0 0.0994487 -0.0448549
240 1 11.3652 4.3716 1.70545 4 0.0787022 2 0 0.0994487 -0.0798334
241 1 11.3894 5.27213 0.983682 4 0.0962279 2 0 0.0994487 -0.674499
242 1 10.5826 3.84888 0.176129 4 0.0550315 2 0 0.0994487 0.210462
243 1 12.5168 3.57716 0.814749 4 0.0879202 2 0 0.0994487 -0.0105874
244 1 12.1916 4.55033 1.00021 4 0.100046 2 0 0.0994487 0.105007
245 1 12.7362 4.99738 1.68903 4 0.121038 2 0 0.0994487 0.191323
246 1 13.2258 4.67863 0.80017 4 0.130345 2 0 0.0994487 -0.00472866
247 1 12.6435 4.61885 0.0632315 4 0.114709 2 0 0.0994487 -0.0335853
248 1 13.9891 4.12825 0.69648 4 0.136813 2 0 0.0994487 -0.430193
249 1 13.4832 4.21781 1.59317 4 0.122502 2 0 0.0994487 0.0820104
250 1 14.2046 5.11838 1.52001 4 0.174112 2 0 0.0994487 -0.0290017
251 1 14.9402 5.01141 0.811699 4 0.196115 2 0 0.0994487 -0.0529384
252 1 14.9642 4.4167 1.59432 4 0.173523 2 0 0.0994487 -0.0635692
253 1 14.1405 4.90647 0.0597868 4 0.165381 2 0 0.0994487 -0.0857012
254 1 14.961 4.19423 0.096508 4 0.162082 2 0 0.0994487 0.0322673
255 1 15.6685 4.06642 0.926277 4 0.179277 2 0 0.0994487 0.872542
256 1 15.8798 4.77595 0.186426 4 0.216134 2 0 0.0994487 0.165381
257 1 16.5936 4.58036 0.900182 4 0.234523 2 0 0.0994487 -0.079036
258 1 16.3184 3.95875 1.6903 4 0.196026 2 0 0.0994487 -0.0434035
259 1 15.8111 5.05317 1.64084 4 0.228515 2 0 0.0994487 0.0992962
260 1 17.2689 3.83372 0.811237 4 0.220588 2 0 0.0994487 -0.345394
261 1 18.0864 4.48855 1.09806 3 0.27529 2 0 0.0992908 -0.612956
262 1 17.9525 3.63794 1.65602 4 0.227658 2 0 0.0994487 -0.192809
263 1 17.4569 4.57727 0.0147963 3 0.258548 2 0 0.0993998 -0.097412
264 1 18.1348 3.8547 0.0583493 4 0.240237 2 0 0.0994487 -0.120518
265 1 18.8779 3.70667 0.95022 4 0.246322 2 0 0.0994487 0.0692176
266 1 18.8235 4.60949 0.361826 3 0.292897 2 0 0.099155 0.115607
267 1 19.6906 4.67872 1.0803 3 0.32962 2 0 0.0987828 0.931551
268 1 18.7859 5.27693 1.20102 3 0.356515 2 0 0.0984108 0.612161
269 1 19.5987 3.76722 0.227421 3 0.256516 2 0 0.0994118 0.164269
270 1 20.4384 3.82188 1.23329 3 0.277974 2 0 0.0992716 0.325957
271 1 20.8846 4.71868 1.39403 3 0.370743 2 0 0.0981705 0.149064
272 1 21.5775 4.95128 0.810455 3 0.422685 2 0 0.0969475 -0.00373824
273 1 21.0824 3.93136 0.512408 3 0.29558 2 0 0.0991321 0.0883051
274 1 20.1339 4.78559 0.352846 3 0.348811 2 0 0.0985276 0.145586
275 1 22.8205 3.63186 1.42135 3 0.285039 2 0 0.0992186 -0.0183967
276 1 21.9406 4.13318 1.31068 3 0.326867 2 0 0.0988156 0.0272083
277 1 22.4705 5.17735 1.27286 3 0.462259 2 0 0.0955059 0.0207155
278 1 22.6119 4.34705 0.510028 3 0.348824 2 0 0.0985274 -0.0221019
279 1 23.5735 3.63903 0.782677 3 0.28325 2 0 0.0992323 0.185566
280 1 24.336 4.32055 0.625018 3 0.329418 2 0 0.0987852 -0.150089
281 1 23.4679 4.54946 1.33355 3 0.368916 2 0 0.0982032 -0.0790508
282 1 24.8518 5.25716 0.566763 3 0.406342 2 0 0.0974005 0.0409114
283 1 23.5518 5.06386 0.533607 3 0.430011 2 0 0.09672 -0.0968839
284 1 25.0086 4.50055 1.62342 3 0.324528 2 0 0.0988428 -0.0421924
285 1 25.0629 3.68037 0.802132 3 0.259025 2 0 0.0993969 -0.187911
286 1 24.363 5.28843 1.43377 3 0.433625 2 0 0.0966018 -0.154705
287 1 25.6904 5.1389 1.34266 3 0.357956 2 0 0.0983879 0.210106
288 1 26.3575 4.29031 1.37159 3 0.261668 2 0 0.0993808 0.149486
289 1 26.5026 4.97257 0.640732 3 0.301381 2 0 0.0990806 0.0989718
290 1 25.5284 4.40089 0.388179 3 0.296824 2 0 0.0991213 0.0559505
291 1 27.3302 4.86961 1.40568 3 0.258449 2 0 0.0994004 0.00661393
292 1 27.9624 3.97641 1.10408 4 0.186583 2 0 0.0994487 -0.309498
293 1 28.2771 4.73475 0.706344 4 0.214748 2 0 0.0994487 -0.0812412
294 1 27.0674 4.04323 0.570038 4 0.219762 2 0 0.0994487 0.0120265
295 1 28.9321 3.77016 0.487204 4 0.155155 2 0 0.0994487 -0.00703062
296 1 29.0873 4.52317 1.33085 4 0.179556 2 0 0.0994487 0.0574886
297 1 29.9979 4.07209 1.02303 4 0.145847 2 0 0.0994487 -0.27523
298 1 31.0296 3.97382 0.373364 4 0.13271 2 0 0.0994487 0.657583
299 1 30.2046 4.67765 0.491317 4 0.162378 2 0 0.0994487 0.00995984
300 1 30.9783 4.59929 1.41131 4 0.148784 2 0 0.0994487 0.679915
301 1 0.908283 5.53205 0.461647 4 0.003496 2 0 0.0994487 -0.463785
302 1 1.53161 5.51184 1.37971 4 0.00406091 2 0 0.0994487 -0.117388
303 1 0.793684 6.22023 1.2768 4 0.00396153 2 0 0.0994487 -0.703381
304 1 0.257003 6.91734 1.50738 4 0.0040786 2 0 0.0994487 -0.772633
305 1 0.969942 6.9454 0.573423 4 0.00474275 2 0 0.0994487 -0.473533
306 1 1.7053 7.02884 1.23811 4 0.00561147 2 0 0.0994487 0.0665163
307 1 1.89588 6.19966 0.519025 4 0.00518744 2 0 0.0994487 -0.156402
308 1 3.10475 5.61709 1.30057 4 0.00683337 2 0 0.0994487 0.0402499
309 1 2.26359 6.15348 1.40977 4 0.00561443 2 0 0.0994487 0.0408545
310 1 3.25442 6.96226 1.12748 4 0.00970398 2 0 0.0994487 -0.0541271
311 1 2.68177 5.61289 0.273587 4 0.00597655 2 0 0.0994487 -0.0596873
312 1 3.39503 6.28191 0.500536 4 0.0090492 2 0 0.0994487 -0.121448
313 1 4.18979 5.46246 0.325783 4 0.0101898 2 0 0.0994487 0.0310144
314 1 4.93434 5.42873 1.31778 4 0.0139123 2 0 0.0994487 -0.235105
315 1 4.13622 6.09659 1.22779 4 0.0116174 2 0 0.0994487 -0.089393
316 1 4.82567 6.23357 0.333842 4 0.0153318 2 0 0.0994487 -0.0345801
317 1 4.77312 6.79931 1.15967 4 0.017151 2 0 0.0994487 -0.305937
318 1 4.00267 7.02511 0.221759 4 0.0130035 2 0 0.0994487 -0.0853469
319 1 5.78575 5.42185 0.301847 4 0.0181461 2 0 0.0994487 0.0124984
320 1 5.6935 6.24342 0.9632 4 0.021199 2 0 0.0994487 -0.967786
321 1 6.4578 5.98425 1.59671 4 0.0257241 2 0 0.0994487 0.140909
322 1 6.43234 6.86927 1.00965 4 0.0309142 2 0 0.0994487 0.851648
323 1 6.37773 6.04115 0.154639 4 0.024312 2 0 0.0994487 0.111109
324 1 5.54993 7.05206 0.147147 4 0.0226194 2 0 0.0994487 0.0363826
325 1 8.21355 5.31419 0.694273 4 0.0406523 2 0 0.0994487 -0.0896069
326 1 7.32761 6.15925 0.754293 4 0.036021 2 0 0.0994487 0.225719
327 1 7.39163 5.41839 1.49138 4 0.0311949 2 0 0.0994487 0.136747
328 1 8.23884 6.11028 1.49159 4 0.0493767 2 0 0.0994487 0.0187304
329 1 8.01352 6.85364 0.728993 4 0.0546794 2 0 0.0994487 0.0691705
330 1 7.28191 6.86379 1.59601 4 0.0429518 2 1 0.0994487 0.126015
331 1 7.33029 5.3575 0.0461812 4 0.0293031 2 0 0.0994487 0.0813536
332 1 9.76796 5.3194 0.792562 4 0.0632119 2 0 0.0994487 0.328428
333 1 8.88016 6.18865 0.736908 4 0.0613603 2 0 0.0994487 -0.235559
334 1 9.05434 5.3271 1.5973 4 0.0527379 2 0 0.0994487 -0.0628361
335 1 9.73844 6.19052 1.46731 4 0.0794133 2 0 0.0994487 -0.106551
336 1 9.09351 6.95013 1.463 4 0.0805029 2 2 0.0994487 -0.0761665
337 1 9.76329 6.23201 0.0941385 4 0.078258 2 0 0.0994487 -0.035957
338 1 8.99733 5.46479 0.012702 4 0.0527852 2 0 0.0994487 -0.134757
339 1 10.5831 6.02196 0.964384 4 0.0940187 2 0 0.0994487 -0.356268
340 1 11.3128 6.37134 0.0776634 4 0.114502 2 0 0.0994487 0.100338
341 1 10.5187 6.94145 0.15452 4 0.110569 2 0 0.0994487 -0.0735319
342 1 10.4686 6.92564 1.49614 4 0.115523 2 1 0.0994487 -0.0634982
343 1 11.9994 5.6274 0.183157 4 0.115816 2 0 0.0994487 -0.0105364
344 1 12.6757 5.81849 0.861776 4 0.142933 2 0 0.0994487 0.0816857
345 1 11.7774 6.20735 1.05291 4 0.126663 2 0 0.0994487 0.292181
346 1 13.3219 5.86668 1.55471 4 0.165548 2 0 0.0994487 0.208348
347 1 13.3506 6.58297 0.813679 4 0.201639 2 0 0.0994487 -0.291025
348 1 13.3212 5.53867 0.0424813 4 0.156682 2 0 0.0994487 -0.142918
349 1 14.0617 5.71565 0.77266 4 0.192318 2 0 0.0994487 -0.372812
350 1 14.3278 6.65176 1.40646 3 0.259824 2 0 0.0993921 -0.100967
351 1 14.1303 6.38483 0.0380077 4 0.217627 2 0 0.0994487 -0.0826176
352 1 15.0282 5.64393 0.034369 4 0.224184 2 0 0.0994487 0.0573543
353 1 15.8305 5.73813 0.95832 3 0.272916 2 0 0.0993074 0.625707
354 1 15.0472 6.45091 0.806774 3 0.278792 2 0 0.0992657 -0.174539
355 1 16.491 6.45257 1.1401 3 0.372465 2 0 0.0981391 0.200524
356 1 15.1058 5.87594 1.69804 3 0.254402 2 0 0.0994241 -0.0995104
357 1 16.62 5.41933 0.276819 3 0.280998 2 0 0.0992494 0.0799124
358 1 15.6753 6.3382 0.0390223 3 0.293164 2 0 0.0991528 0.0397919
359 1 17.8271 5.30128 0.541411 3 0.31769 2 0 0.0989188 0.150307
360 1 17.113 5.42499 1.24767 3 0.309088 2 0 0.0990074 -0.300798
361 1 17.0619 6.27419 0.411469 3 0.372318 2 0 0.0981418 0.138949
362 1 17.6649 6.24649 1.38542 3 0.419459 2 0 0.0970428 -0.315449
363 1 18.2745 7.0517 1.13153 3 0.537269 2 0 0.0907692 0.792823
364 1 18.3714 6.23173 0.609762 3 0.438184 2 0 0.0964469 0.156128
365 1 19.429 5.75829 0.62055 3 0.430982 2 0 0.0966888 0.0571479
366 1 19.3279 6.55755 1.35081 3 0.542591 2 0 0.0902951 0.333843
367 1 19.9942 6.75229 0.610261 3 0.623314 2 0 0.0797722 -0.00980838
368 1 20.7494 5.77593 0.653722 3 0.510435 2 0 0.0928459 -0.104021
369 1 20.1931 5.61076 1.39557 3 0.454661 2 0 0.0958265 0.319648
370 1 20.7787 6.6124 1.30355 3 0.686048 2 0 0.0660337 -0.34672
371 1 21.6592 6.66248 0.666524 3 0.694321 2 0 0.0638133 -0.0431865
372 1 21.6631 5.87866 1.38528 3 0.58165 2 0 0.0860581 0.0466877
373 1 21.6904 5.73259 0.0517844 3 0.528513 2 0 0.0915022 -0.00149812
374 1 22.6732 5.8279 0.674154 3 0.557722 2 0 0.0888185 0.00267101
375 1 22.6319 6.69333 1.20734 3 0.731135 2 0 0.0529193 -0.215899
376 1 23.3484 6.78052 0.267835 3 0.686144 2 0 0.0660073 -0.12536
377 1 23.4822 5.88496 1.30013 3 0.563577 2 0 0.0881937 -0.176508
378 1 24.3197 6.56281 1.15825 3 0.61516 2 0 0.0811664 0.1813
379 1 24.1457 6.00685 0.427617 3 0.536987 2 0 0.0907933 0.00244206
380 1 25.6831 5.86213 0.700952 3 0.428844 2 0 0.0967573 0.163902
381 1 25.1124 6.04132 1.67733 3 0.485543 2 0 0.0943681 0.003712
382 1 25.1593 6.74159 0.495153 3 0.561367 2 0 0.0884333 0.0903946
383 1 25.8251 6.59457 1.40775 3 0.495812 2 0 0.0937821 0.0881075
384 1 26.6903 5.84511 1.4763 3 0.366699 2 0 0.0982422 0.0917662
385 1 27.4966 5.54334 0.722172 3 0.291513 2 0 0.0991666 -0.251565
386 1 26.7485 6.36567 0.651888 3 0.405329 2 0 0.0974263 0.038756
387 1 27.7011 6.47315 1.36539 3 0.347858 2 0 0.0985414 0.131498
388 1 28.3648 5.52203 1.4872 3 0.251109 2 0 0.0994426 0.045636
389 1 27.7097 7.0074 0.530173 3 0.382085 2 0 0.0979535 0.0321286
390 1 29.3889 5.30889 0.818726 4 0.207954 2 0 0.0994487 0.316734
391 1 29.4379 6.18214 1.32212 4 0.240375 2 0 0.0994487 -0.00337847
392 1 29.5784 6.89773 0.506505 3 0.266818 2 0 0.0993482 0.0925899
393 1 28.4685 6.20589 0.638647 3 0.279772 2 0 0.0992585 -0.270074
394 1 29.3762 6.15398 0.0801838 4 0.240838 2 0 0.0994487 0.0969276
395 1 28.4822 5.38976 0.0592959 4 0.237156 2 0 0.0994487 -0.105002
396 1 30.9636 5.36838 0.595026 4 0.179547 2 0 0.0994487 0.667849
397 1 30.2159 5.45949 1.46813 4 0.190599 2 0 0.0994487 0.0540228
398 1 30.3958 6.18258 0.649752 4 0.216101 2 0 0.0994487 0.329004
399 1 31.2189 6.15516 1.38439 4 0.200336 2 0 0.0994487 0.587258
400 1 31.1994 6.95407 0.60342 4 0.229315 2 0 0.0994487 0.812253
401 1 31.7235 5.99622 0.446564 4 0.191313 2 0 0.0994487 0.879729
402 1 0.261851 7.63199 0.661866 4 0.00465026 2 0 0.0994487 -0.876374
403 1 0.831025 8.46344 0.61936 4 0.00564262 2 0 0.0994487 -0.577627
404 1 1.11211 7.86396 1.49711 4 0.00545352 2 0 0.0994487 -0.154429
405 1 0.356955 8.5626 1.47035 4 0.00522229 2 0 0.0994487 -0.764984
406 1 1.59266 7.76478 0.37187 4 0.00617034 2 0 0.0994487 -0.0897889
407 1 1.72382 8.61735 1.46471 4 0.00704337 2 0 0.0994487 0.0395958
408 1 2.48799 7.14986 0.476331 4 0.00758884 2 0 0.0994487 -0.0836987
409 1 2.19177 8.6335 0.399707 4 0.00839244 2 0 0.0994487 -0.137269
410 1 2.39416 7.81099 1.27726 4 0.00798196 2 0 0.0994487 0.0869899
411 1 3.01349 8.51445 0.935533 4 0.0111029 2 0 0.0994487 -0.539323
412 1 3.24418 7.77117 0.327041 4 0.0110483 2 0 0.0994487 -0.196208
413 1 3.81243 8.45898 0.0822892 4 0.0143326 2 0 0.0994487 -0.0457807
414 1 3.97971 7.67009 1.24863 4 0.0142608 2 0 0.0994487 -0.0554931
415 1 4.70459 8.25653 0.921772 4 0.0199126 2 0 0.0994487 0.295304
416 1 4.67023 7.63706 0.247803 4 0.0179066 2 0 0.0994487 0.0376874
417 1 3.81127 8.34851 1.76162 4 0.0144027 2 0 0.0994487 -0.0574378
418 1 5.86955 8.34822 0.169905 4 0.0303552 2 0 0.0994487 0.113101
419 1 5.48363 7.59071 1.03232 4 0.0250798 2 0 0.0994487 -0.467684
420 1 6.49365 7.53799 0.169175 4 0.0344668 2 0 0.0994487 0.187618
421 1 6.39674 8.23976 1.04384 4 0.0391311 2 0 0.0994487 0.337993
422 1 7.28583 7.76918 0.746313 4 0.0516928 2 1 0.0994487 0.0098136
423 1 8.2859 8.31376 0.868772 4 0.082006 2 2 0.0994487 0.277937
424 1 7.27857 8.18368 1.7015 4 0.059693 2 2 0.0994487 -0.175142
425 1 8.05208 7.48784 1.5604 4 0.0660139 2 1 0.0994487 0.184932
426 1 7.99895 7.60312 0.0282118 4 0.0614279 2 0 0.0994487 0.0674076
427 1 9.84313 7.22199 0.72344 4 0.103646 2 1 0.0994487 -0.34698
428 1 8.91207 7.61626 0.661731 4 0.0853764 2 1 0.0994487 0.158495
429 1 9.73234 8.61964 0.693151 4 0.132958 2 3 0.0994487 -0.256857
430 1 9.09265 8.69904 1.44495 4 0.12139 2 9 0.0994487 -0.393154
431 1 9.64026 7.88932 1.60055 4 0.124145 2 8 0.0994487 -0.34036
432 1 11.3161 7.14287 0.810636 4 0.14062 2 1 0.0994487 0.447766
433 1 10.5731 7.9454 0.844311 4 0.143886 2 3 0.0994487 -0.19771
434 1 10.5877 8.70196 1.4255 4 0.169512 1 7 0.0994487 -0.129892
435 1 11.4057 7.80503 1.60301 4 0.178015 2 3 0.0994487 0.208042
436 1 11.227 8.11851 0.0422735 4 0.159216 2 0 0.0994487 0.174348
437 1 12.7061 7.28322 0.565784 4 0.205014 2 0 0.0994487 -0.0541281
438 1 12.178 8.23518 0.590765 4 0.21185 2 1 0.0994487 0.163993
439 1 12.0637 7.15788 1.37768 4 0.17343 2 2 0.0994487 0.124544
440 1 12.0887 8.68064 1.49044 4 0.237797 1 2 0.0994487 0.122544
441 1 12.8601 7.99585 1.47598 3 0.26242 2 0 0.0993762 -0.29035
442 1 14.3373 7.3542 0.580954 3 0.291076 2 0 0.0991702 0.0680243
443 1 13.6169 8.09282 0.464536 3 0.286891 2 0 0.099204 0.0264857
444 1 13.458 7.34024 1.34133 3 0.256683 2 0 0.0994108 0.0753491
445 1 14.2471 8.18371 1.35246 3 0.354024 2 0 0.0984495 0.213115
446 1 16.4328 7.18497 0.276798 3 0.419503 2 0 0.0970414 -0.0655429
447 1 15.6276 7.3114 0.923132 3 0.389511 2 0 0.0977978 -0.446985
448 1 15.0689 8.29247 0.865596 3 0.414525 2 0 0.0971826 -0.340235
449 1 16.2796 8.16171 1.10429 0 0.502885 1 0 0.093345 -0.35479
450 1 15.1452 7.52269 1.62484 3 0.395149 2 0 0.0976719 -0.423376
451 1 15.8668 8.31534 0.152632 3 0.46766 2 0 0.0952638 -0.194091
452 1 16.977 7.36262 1.11681 3 0.490639 2 0 0.0940844 0.277892
453 1 17.0683 8.10487 0.342208 3 0.538173 2 0 0.0906899 0.0315458