ITEM: TIMESTEP
31500
ITEM: NUMBER OF ATOMS
9495
ITEM: BOX BOUNDS mm mm mm
0.0000000000000000e+00 3.1748021039364001e+01
0.0000000000000000e+00 3.1748021039364001e+01
-7.4072398406925706e-04 3.1748021039364001e+01
ITEM: ATOMS id type x y z c_phase c_temp c_surf c_nbond c_visc f_3[1]
1 1 0.116341 1.10259 0.464337 4 1.81478e-05 2 0 0.0994487 -0.68194
2 1 0.974108 1.6685 0.77798 4 2.9448e-05 2 0 0.0994487 -0.517031
3 1 0.714648 0.793562 1.41295 4 2.13103e-05 2 0 0.0994487 -0.281794
4 1 0.00336375 1.60273 1.37437 4 2.02039e-05 2 0 0.0994487 -0.804051
5 1 0.729896 0.0633724 0.61602 4 1.65708e-05 3 0 0.0994487 -0.190374
6 1 1.71015 0.808983 1.0155 4 3.59262e-05 2 0 0.0994487 -0.332068
7 1 1.80059 1.47468 0.221075 4 3.96544e-05 2 0 0.0994487 -0.125829
8 1 1.82015 1.66049 1.76126 4 4.32988e-05 2 0 0.0994487 -0.139532
9 1 2.52093 0.749102 0.203812 4 4.95725e-05 2 0 0.0994487 -0.142939
10 1 2.59149 0.0538711 1.03726 4 4.86591e-05 2 0 0.0994487 -0.295004
11 1 2.64922 1.541 0.882848 4 6.45728e-05 2 0 0.0994487 0.235759
12 1 2.66829 0.815502 1.7457 4 5.6487e-05 2 0 0.0994487 -0.18704
13 1 3.43386 0.933692 0.956349 4 8.85233e-05 2 0 0.0994487 0.320245
14 1 3.49924 0.0925696 1.70571 4 7.03424e-05 2 0 0.0994487 0.178054
15 1 3.60652 1.70798 1.71994 4 0.000114778 2 0 0.0994487 0.048796
16 1 4.10576 0.858321 0.325305 4 0.000126905 2 0 0.0994487 0.153147
17 1 4.96159 0.56786 1.17466 4 0.000216215 2 0 0.0994487 -0.0370654
18 1 4.91949 1.59987 0.383508 4 0.000254445 2 0 0.0994487 -0.100246
19 1 4.3472 0.941527 1.62884 4 0.000151802 2 0 0.0994487 0.110739
20 1 3.47612 0.111428 0.171027 4 6.69875e-05 2 0 0.0994487 0.166216
21 1 5.64741 0.645627 0.325839 4 0.000317829 2 0 0.0994487 -0.0806038
22 1 5.88414 1.31048 0.938036 4 0.000403464 2 0 0.0994487 -0.199575
23 1 6.57478 1.39104 0.218369 4 0.000578442 2 0 0.0994487 -0.0861321
24 1 5.78374 0.460658 1.69897 4 0.00032214 2 0 0.0994487 -0.0846514
25 1 5.03122 1.72414 1.43602 4 0.00027083 2 0 0.0994487 0.045374
26 1 6.7138 0.39031 0.865278 4 0.000528978 2 0 0.0994487 -0.0793805
27 1 6.69104 1.00962 1.69374 4 0.000552622 2 0 0.0994487 -0.107922
28 1 8.2679 0.408875 1.07337 4 0.0010505 2 0 0.0994487 -0.100165
29 1 7.36782 1.22285 0.954198 4 0.000817085 2 0 0.0994487 -0.302544
30 1 8.24709 1.39092 0.236779 4 0.00123851 2 0 0.0994487 -0.0460626
31 1 8.12868 1.27217 1.60653 4 0.00112067 2 0 0.0994487 -0.00811532
32 1 7.58247 0.647807 0.140287 4 0.000813084 2 0 0.0994487 -0.110935
33 1 8.85849 0.508506 0.273966 4 0.00135677 2 0 0.0994487 -0.0616452
34 1 9.55301 0.3386 0.888639 4 0.00176162 2 0 0.0994487 0.00506544
35 1 9.02586 1.30716 1.1133 4 0.00170297 2 0 0.0994487 -0.0606401
37 1 9.63995 1.37474 0.0900752 4 0.00208893 2 0 0.0994487 0.0992924
38 1 11.2128 0.215893 0.632658 4 0.00338595 2 0 0.0994487 0.203505
39 1 10.3637 1.04743 0.823114 4 0.00273478 2 0 0.0994487 0.53989
40 1 10.523 0.196295 1.44539 4 0.00254406 2 0 0.0994487 0.0644297
41 1 11.2856 1.01846 1.41785 4 0.00417161 2 0 0.0994487 0.164709
42 1 10.5797 1.67706 1.72992 4 0.00352603 2 0 0.0994487 0.118165
43 1 10.2431 0.367861 0.0780499 4 0.00213003 2 0 0.0994487 0.149802
44 1 12.8757 0.211714 0.636805 4 0.00694794 2 0 0.0994487 0.0587889
45 1 12.0457 1.07408 0.506655 4 0.00595562 2 0 0.0994487 -0.0235493
46 1 12.1319 0.316439 1.29957 4 0.00535928 2 0 0.0994487 0.0188382
47 1 12.7194 1.19864 1.3723 4 0.00800474 2 0 0.0994487 -0.030525
48 1 14.3729 0.318493 0.764646 4 0.0118454 2 0 0.0994487 -0.0460372
49 1 13.5924 1.113 0.843618 4 0.0109067 2 0 0.0994487 -0.263049
50 1 14.0399 1.55958 0.167469 4 0.0137694 2 0 0.0994487 -0.0898239
51 1 13.6075 0.359834 1.6352 4 0.00921566 2 0 0.0994487 -0.0562623
52 1 14.3777 1.14948 1.47647 4 0.0133666 2 0 0.0994487 -0.0178259
53 1 14.8761 1.55337 0.662943 4 0.0169024 2 0 0.0994487 0.389951
54 1 15.7061 0.770636 0.788259 4 0.0180291 2 0 0.0994487 0.366486
55 1 16.5532 1.54451 0.681338 4 0.0278082 2 0 0.0994487 0.000808401
56 1 15.1422 0.4642 1.64149 4 0.0143314 2 0 0.0994487 0.152078
57 1 16.547 0.712289 1.3421 4 0.0234931 2 0 0.0994487 0.0956284
58 1 15.6341 1.48544 1.3916 4 0.0207192 2 0 0.0994487 0.153634
59 1 15.1049 0.711806 0.0677822 4 0.0143189 2 0 0.0994487 0.169203
60 1 17.2544 0.732268 0.547589 4 0.0280835 2 0 0.0994487 0.0286316
61 1 17.9231 1.58109 0.757246 4 0.0383229 2 0 0.0994487 0.0415663
62 1 17.916 0.742935 1.42801 4 0.0331152 2 0 0.0994487 -0.224374
63 1 17.2202 1.74884 1.56274 4 0.0351284 2 0 0.0994487 -0.0984814
64 1 19.5372 0.0167772 0.662766 4 0.0357634 2 0 0.0994487 0.0436447
65 1 18.7918 0.725074 0.684829 4 0.0370713 2 0 0.0994487 -0.269943
66 1 19.5395 1.55488 0.841653 4 0.048011 2 0 0.0994487 -0.341157
67 1 19.0276 0.158607 1.54508 4 0.035161 2 0 0.0994487 -0.158663
68 1 19.5934 0.967491 1.68957 4 0.0420392 2 0 0.0994487 0.00835257
69 1 18.6564 1.51302 1.50035 4 0.0428612 2 0 0.0994487 -0.250304
70 1 21.0889 0.349843 1.06749 4 0.0427193 2 0 0.0994487 -0.196125
71 1 20.2493 0.776373 0.980057 4 0.0433456 2 0 0.0994487 -0.0497576
72 1 21.1062 1.65725 0.951506 4 0.0537966 2 0 0.0994487 0.692923
73 1 21.1874 0.765598 0.218806 4 0.0445868 2 0 0.0994487 -0.0445894
74 1 20.3457 1.51479 0.193617 4 0.0501729 2 0 0.0994487 -0.0806008
75 1 22.0087 0.262534 0.539755 4 0.0427535 2 0 0.0994487 0.0993606
76 1 22.7913 0.430275 1.40734 4 0.0439958 2 0 0.0994487 0.206601
77 1 22.1105 1.14763 1.32981 4 0.0488383 2 0 0.0994487 0.240028
78 1 21.9982 1.59955 0.538558 4 0.0544759 2 0 0.0994487 0.185175
79 1 22.9157 1.07463 0.445168 4 0.0483801 2 0 0.0994487 0.0520866
80 1 24.228 0.380179 1.45209 4 0.0424768 2 0 0.0994487 0.0576181
81 1 23.5672 0.357563 0.57369 4 0.0432937 2 0 0.0994487 0.0385725
82 1 24.4367 1.18687 0.754729 4 0.0483247 2 0 0.0994487 -0.0192924
83 1 23.4757 1.2499 1.4028 4 0.0508863 2 0 0.0994487 0.0298802
84 1 24.955 0.315686 0.551996 4 0.0394495 2 0 0.0994487 -0.0171974
85 1 26.0085 0.383365 1.1715 4 0.0345395 2 0 0.0994487 -0.185858
86 1 25.169 1.12579 1.48087 4 0.0449436 2 0 0.0994487 0.0251068
87 1 25.9301 1.73476 1.35794 4 0.0468644 2 0 0.0994487 0.0345382
88 1 25.8917 0.929212 0.432102 4 0.0382491 2 0 0.0994487 -0.0954183
89 1 27.5736 1.28032 0.38906 4 0.0304788 2 0 0.0994487 0.0454502
90 1 27.6142 0.50928 0.874321 4 0.0272081 2 0 0.0994487 0.175389
91 1 26.7559 1.02809 1.26347 4 0.0335591 2 0 0.0994487 -0.236884
92 1 28.3748 0.337482 1.39813 4 0.0227312 2 0 0.0994487 0.00984512
93 1 26.7925 0.240345 0.226621 4 0.0294432 2 0 0.0994487 0.0380754
94 1 28.6489 1.24263 0.742341 4 0.0249726 2 0 0.0994487 0.102407
95 1 29.3912 0.945639 1.56878 4 0.0202258 2 0 0.0994487 -0.0192002
96 1 28.5228 1.71921 1.49749 4 0.0276283 2 0 0.0994487 -0.0429799
97 1 29.8133 0.173958 1.46124 4 0.0170126 2 0 0.0994487 0.133416
98 1 29.2734 0.3547 0.615275 4 0.018841 2 0 0.0994487 -0.0816808
99 1 31.5874 0.266128 1.25663 4 0.0121627 3 0 0.0994487 0.830097
100 1 30.7016 0.49015 0.470738 4 0.0152437 2 0 0.0994487 0.354852
101 1 30.1009 1.19877 0.774133 4 0.0189641 2 0 0.0994487 0.21092
102 1 30.8649 0.971942 1.39386 4 0.0162056 2 0 0.0994487 0.703281
103 1 1.11081 2.43607 0.129285 4 3.42752e-05 2 0 0.0994487 -0.037322
104 1 0.133403 2.3821 0.812241 4 2.62002e-05 2 0 0.0994487 -0.984517
105 1 1.28845 3.23764 0.949187 4 4.98733e-05 2 0 0.0994487 0.222096
106 1 1.13977 2.36077 1.59162 4 3.74815e-05 2 0 0.0994487 -0.222189
107 1 0.386685 3.02999 1.54944 4 3.36456e-05 2 0 0.0994487 -0.671256
108 1 0.332248 3.09582 0.131296 4 3.15635e-05 2 0 0.0994487 -0.59134
109 1 1.90972 2.41867 0.78376 4 5.35164e-05 2 0 0.0994487 0.0782107
110 1 2.65852 3.28029 0.860875 4 0.000107797 2 0 0.0994487 0.0668062
111 1 2.66931 2.22918 1.53373 4 7.75917e-05 2 0 0.0994487 0.0829561
112 1 3.2579 3.42668 1.64938 4 0.000157918 2 0 0.0994487 0.00397634
113 1 2.7261 2.38168 0.0557193 4 7.30283e-05 2 0 0.0994487 0.146601
114 1 3.38195 2.55413 0.779289 4 0.000128585 2 0 0.0994487 0.211586
115 1 4.00679 1.841 0.711184 4 0.000156862 2 0 0.0994487 -0.0361211
116 1 4.91383 2.57277 0.815661 4 0.000325175 2 0 0.0994487 -0.259346
117 1 4.20148 3.3175 0.749446 4 0.000268635 2 0 0.0994487 0.00621767
118 1 4.13245 2.64107 1.58328 4 0.000207905 2 0 0.0994487 0.0270792
119 1 5.65047 2.44269 0.132743 4 0.000460269 2 0 0.0994487 -0.189924
120 1 6.55776 2.18062 0.772597 4 0.000685316 2 0 0.0994487 -0.289371
121 1 5.64874 3.19593 0.952489 4 0.000571441 2 0 0.0994487 -0.754628
122 1 5.861 2.19426 1.49672 4 0.000473749 2 0 0.0994487 0.0126374
123 1 6.52037 3.06691 1.5557 4 0.000841429 2 0 0.0994487 0.0443593
124 1 6.65033 2.92778 0.134227 4 0.000813425 2 0 0.0994487 0.0288881
125 1 7.45405 2.22586 0.139832 4 0.00105213 2 0 0.0994487 -0.0535008
126 1 8.08209 2.20208 0.930382 4 0.00143389 2 0 0.0994487 -0.302061
127 1 7.40132 3.06835 0.934051 4 0.00132481 2 0 0.0994487 -0.0455045
128 1 7.29928 2.06035 1.56856 4 0.000938363 2 0 0.0994487 -0.0607312
129 1 8.18545 3.00183 1.65211 4 0.00187171 2 0 0.0994487 -0.0454144
130 1 8.26934 2.9712 0.0392146 4 0.00192967 2 0 0.0994487 -0.150616
131 1 8.90393 2.08699 0.252387 4 0.00193818 2 0 0.0994487 0.00243499
132 1 9.77243 2.0246 1.10996 4 0.00279271 2 0 0.0994487 0.17347
133 1 8.92671 2.97262 0.928693 4 0.00264167 2 0 0.0994487 -0.156746
134 1 9.03062 2.22066 1.70398 4 0.00216194 2 0 0.0994487 -0.0819665
135 1 9.56096 2.90576 0.21312 4 0.00322179 2 0 0.0994487 0.173122
136 1 10.2834 2.1137 0.214297 4 0.00322791 2 0 0.0994487 0.33774
137 1 11.1583 1.82604 0.771092 4 0.00478288 2 0 0.0994487 0.260092
138 1 10.6214 2.80819 0.921535 4 0.00515934 2 0 0.0994487 0.541923
139 1 11.4444 2.82964 1.57484 4 0.00750202 2 0 0.0994487 0.0952013
140 1 12.6737 1.94118 0.593851 4 0.00975621 2 0 0.0994487 -0.283931
141 1 11.928 2.64099 0.742299 4 0.00868167 2 0 0.0994487 -0.0386714
142 1 11.9239 1.9206 1.46509 4 0.00690655 2 0 0.0994487 0.0946557
143 1 12.8449 3.01766 1.68597 4 0.0136207 2 0 0.0994487 0.0363577
144 1 13.1791 3.03035 0.848852 4 0.0157306 2 0 0.0994487 -0.440853
145 1 13.3784 1.9912 1.48064 4 0.0122348 2 0 0.0994487 -0.0150689
146 1 14.0206 2.44438 0.927124 4 0.0173096 2 0 0.0994487 -0.133094
147 1 14.0279 3.38359 1.55716 4 0.0229136 2 0 0.0994487 0.0255754
148 1 14.6961 3.43698 0.884932 4 0.0289505 2 0 0.0994487 -0.332952
149 1 14.7823 2.29758 1.44821 4 0.0205367 2 0 0.0994487 0.0469284
150 1 14.8418 2.51505 0.136557 4 0.0221017 2 0 0.0994487 0.173006
151 1 14.1591 3.2262 0.0325348 4 0.0229211 2 0 0.0994487 -0.246105
152 1 13.4137 2.29398 0.0590902 4 0.0138532 2 0 0.0994487 -0.280961
153 1 15.6993 2.44373 0.692668 4 0.027996 2 0 0.0994487 0.364396
154 1 16.3029 3.20095 0.662084 4 0.0411167 2 0 0.0994487 0.328591
155 1 16.308 2.47951 1.52575 4 0.0342152 2 0 0.0994487 -0.100645
156 1 15.3694 3.25723 1.50191 4 0.0333855 2 0 0.0994487 -0.00766795
157 1 15.5706 3.25854 0.0192499 4 0.0326028 2 0 0.0994487 0.290238
158 1 17.0646 2.35032 0.682778 4 0.0392584 2 0 0.0994487 0.0234836
159 1 17.944 2.92608 0.699539 4 0.0577645 2 0 0.0994487 -0.231187
160 1 18.0193 2.43917 1.58112 4 0.0499931 2 0 0.0994487 -0.149132
161 1 17.0918 3.1162 1.49491 4 0.0506743 2 0 0.0994487 -0.143432
162 1 18.8908 2.35742 1.01358 4 0.0557072 2 0 0.0994487 -0.516821
163 1 19.7027 3.2427 1.27782 4 0.0783427 2 0 0.0994487 0.394886
164 1 18.884 2.99607 0.196019 4 0.067349 2 0 0.0994487 -0.171807
165 1 19.587 2.34239 0.101452 4 0.0594661 2 0 0.0994487 -0.132369
166 1 20.3251 1.78863 1.72442 4 0.0523449 2 0 0.0994487 0.0449554
167 1 21.1565 2.41663 0.458355 4 0.0674605 2 0 0.0994487 0.19619
168 1 20.1948 2.46882 1.11433 4 0.0636645 2 0 0.0994487 0.286756
169 1 21.31 3.29463 1.39314 4 0.0938758 2 0 0.0994487 0.0777332
170 1 20.4222 2.99313 0.334941 4 0.0761827 2 0 0.0994487 0.186293
171 1 22.8719 2.07007 1.50872 4 0.0648113 2 0 0.0994487 -0.0221207
172 1 22.9717 2.60199 0.735523 4 0.080046 2 0 0.0994487 0.133331
173 1 22.0961 2.49917 1.23787 4 0.0744614 2 0 0.0994487 0.186444
174 1 21.9898 3.20043 0.598797 4 0.0968549 2 0 0.0994487 -0.075745
175 1 22.6771 3.40124 0.07601 4 0.106237 2 0 0.0994487 0.076075
176 1 23.7438 1.80844 0.624025 4 0.0582444 2 0 0.0994487 -0.0873562
177 1 24.4289 1.98763 1.61102 4 0.0600156 2 0 0.0994487 -0.0641738
178 1 24.342 2.68296 0.775192 4 0.0755055 2 0 0.0994487 -0.341088
179 1 23.6887 2.90303 1.53628 4 0.0852762 2 0 0.0994487 -0.110502
180 1 24.4728 3.51078 1.55704 4 0.101446 2 0 0.0994487 -0.118303
181 1 24.9562 2.84566 0.0146836 4 0.073116 2 0 0.0994487 -0.0864586
182 1 26.5483 1.79415 0.511367 4 0.0419695 2 0 0.0994487 -0.00559862
183 1 25.1322 1.85613 0.509414 4 0.0542222 2 0 0.0994487 -0.0215271
184 1 25.7918 2.61203 0.707489 4 0.0631786 2 0 0.0994487 0.228205
185 1 25.1579 2.55548 1.52547 4 0.0674263 2 0 0.0994487 0.0576687
186 1 25.7213 3.49812 1.51211 4 0.0876162 2 0 0.0994487 0.123859
187 1 26.5364 2.56002 1.53049 4 0.0535698 2 0 0.0994487 0.0579489
188 1 26.1686 3.50068 0.599043 4 0.0809934 2 0 0.0994487 0.168847
189 1 27.5039 1.98546 1.23792 4 0.0361402 2 0 0.0994487 -0.186416
190 1 28.2489 2.09022 0.343734 4 0.0318452 2 0 0.0994487 -0.0177241
191 1 27.0867 2.6924 0.645359 4 0.0491668 2 0 0.0994487 -0.105599
192 1 27.1998 3.35397 1.41682 4 0.0593989 2 0 0.0994487 -0.098327
193 1 28.2537 2.75799 1.20639 4 0.0378966 2 0 0.0994487 -0.418304
194 1 27.982 3.21993 0.326384 4 0.0456259 2 0 0.0994487 -0.125256
195 1 29.9568 1.80906 1.70764 4 0.0217051 2 0 0.0994487 0.183201
196 1 29.4477 2.04702 0.879698 4 0.0251754 2 0 0.0994487 -0.0070815
197 1 29.1956 2.6589 0.290703 4 0.0299329 2 0 0.0994487 -0.0578278
198 1 29.2495 3.2651 1.17365 4 0.0348802 2 0 0.0994487 0.118636
199 1 30.9114 1.98502 0.924207 4 0.0204802 2 0 0.0994487 0.967251
200 1 30.1815 2.71094 1.00186 4 0.0257776 2 0 0.0994487 0.675112
201 1 31.0247 3.35309 0.97101 4 0.0269999 2 0 0.0994487 0.998409
202 1 30.9865 2.69483 1.72648 4 0.023455 2 0 0.0994487 0.578502
203 1 30.1092 3.25953 0.132205 4 0.0283855 2 0 0.0994487 -0.0443656
204 1 30.4116 1.90909 0.0255368 4 0.02062 2 0 0.0994487 0.106045
205 1 31.1434 2.66402 0.0761253 4 0.0222804 2 0 0.0994487 0.70882
206 1 0.293831 3.78503 0.918557 4 3.99585e-05 2 0 0.0994487 -0.999347
207 1 0.143046 4.59443 0.482118 4 4.57539e-05 2 0 0.0994487 -0.784494
208 1 1.14036 4.67093 0.986638 4 7.09294e-05 2 0 0.0994487 -0.516749
209 1 0.0884667 5.26681 1.27761 4 5.38465e-05 2 0 0.0994487 -0.887458
210 1 1.04069 3.86421 0.0595682 4 4.96486e-05 2 0 0.0994487 0.0148883
211 1 1.84117 4.04604 0.847105 4 8.67302e-05 2 0 0.0994487 0.00827168
212 1 2.54049 4.85585 1.13748 4 0.000160797 2 0 0.0994487 -0.333844
213 1 2.64953 4.14475 0.20674 4 0.000141844 2 0 0.0994487 -0.0285714
214 1 1.89758 4.96895 0.278386 4 0.000116369 2 0 0.0994487 -0.153433
215 1 3.40771 4.86189 0.161635 4 0.0002626 2 0 0.0994487 -0.0163871
216 1 3.494 4.07675 0.885909 4 0.000223921 2 0 0.0994487 0.0268973
217 1 4.91235 4.00001 1.18344 4 0.000485706 2 0 0.0994487 0.0115174
218 1 4.04658 4.88002 1.14639 4 0.000378037 2 0 0.0994487 0.264492
219 1 4.26027 4.18509 0.149001 4 0.000353605 2 0 0.0994487 0.0377391
220 1 5.00947 4.74001 0.341082 4 0.000628567 2 0 0.0994487 0.0765416
221 1 5.77735 3.9378 0.198707 4 0.000710535 2 0 0.0994487 0.0260167
222 1 6.48883 3.76611 0.772067 4 0.00100837 2 0 0.0994487 0.204557
223 1 5.68025 4.73638 1.02487 4 0.000927133 2 0 0.0994487 -0.621677
224 1 6.66321 4.5115 1.6428 4 0.00137253 2 0 0.0994487 0.158935
225 1 6.68072 5.1315 0.885352 4 0.00173932 2 0 0.0994487 0.206863
226 1 8.1982 3.892 0.700757 4 0.00259285 2 0 0.0994487 -0.369897
227 1 7.40842 4.46072 0.5468 4 0.00207558 2 0 0.0994487 -0.0252104
228 1 7.39886 3.87029 1.49684 4 0.00167085 2 0 0.0994487 0.102579
229 1 8.20004 4.61106 1.48677 4 0.0032034 2 0 0.0994487 -0.0118354
230 1 9.8976 3.57792 0.885667 4 0.00493002 2 0 0.0994487 0.592805
231 1 9.07913 4.56551 0.821335 4 0.00477572 2 0 0.0994487 -0.658535
232 1 9.86266 4.50302 0.126324 4 0.00607843 2 0 0.0994487 0.0958664
233 1 9.07829 3.76256 1.49819 4 0.00369494 2 0 0.0994487 -0.070884
234 1 9.86881 4.3462 1.65532 4 0.00632232 2 0 0.0994487 -0.0856613
235 1 8.98541 3.86821 0.0631775 4 0.00355814 2 0 0.0994487 -0.138752
236 1 11.408 3.64493 0.778297 4 0.0096223 2 0 0.0994487 0.202068
237 1 10.5891 4.66652 0.906264 4 0.00934214 2 0 0.0994487 0.0450847
238 1 11.3867 4.69403 0.230734 4 0.0131439 2 0 0.0994487 -0.0498892
239 1 10.7059 3.56689 1.58785 4 0.00703174 2 0 0.0994487 -0.0448481
240 1 11.3652 4.3716 1.70545 4 0.0118745 2 0 0.0994487 -0.079827
241 1 11.3894 5.27213 0.983682 4 0.0156444 2 0 0.0994487 -0.674476
242 1 10.5826 3.84888 0.176129 4 0.00690306 2 0 0.0994487 0.210467
243 1 12.5168 3.57716 0.814749 4 0.0147035 2 0 0.0994487 -0.0105751
244 1 12.1916 4.55033 1.00021 4 0.0173832 2 0 0.0994487 0.105051
245 1 12.7362 4.99738 1.68903 4 0.0231094 2 0 0.0994487 0.191329
246 1 13.2258 4.67863 0.80017 4 0.0266265 2 0 0.0994487 -0.00469891
247 1 12.6435 4.61885 0.0632315 4 0.021433 2 0 0.0994487 -0.0335802
248 1 13.9891 4.12825 0.69648 4 0.0295498 2 0 0.0994487 -0.430177
249 1 13.4832 4.21781 1.59317 4 0.0245785 2 0 0.0994487 0.0820178
250 1 14.2046 5.11838 1.52001 4 0.0419321 2 0 0.0994487 -0.0289921
251 1 14.9402 5.01141 0.811699 4 0.0512101 2 0 0.0994487 -0.0527369
252 1 14.9642 4.4167 1.59432 4 0.0430901 2 0 0.0994487 -0.0635621
253 1 14.1405 4.90647 0.0597868 4 0.0386897 2 0 0.0994487 -0.0856949
254 1 14.961 4.19423 0.096508 4 0.0388737 2 0 0.0994487 0.0322728
255 1 15.6685 4.06642 0.926277 4 0.0464554 2 0 0.0994487 0.872583
256 1 15.8798 4.77595 0.186426 4 0.0608824 2 0 0.0994487 0.16539
257 1 16.5936 4.58036 0.900182 4 0.0707884 2 0 0.0994487 -0.078971
258 1 16.3184 3.95875 1.6903 4 0.0541233 2 0 0.0994487 -0.0433961
259 1 15.8111 5.05317 1.64084 4 0.0654232 2 0 0.0994487 0.0994997
260 1 17.2689 3.83372 0.811237 4 0.0666955 2 0 0.0994487 -0.345381
261 1 18.0864 4.48855 1.09806 4 0.0942426 2 0 0.0994487 -0.612139
262 1 17.9525 3.63794 1.65602 4 0.0713293 2 0 0.0994487 -0.192804
263 1 17.4569 4.57727 0.0147963 4 0.0836749 2 0 0.0994487 -0.0974085
264 1 18.1348 3.8547 0.0583493 4 0.0774151 2 0 0.0994487 -0.120515
265 1 18.8779 3.70667 0.95022 4 0.0829163 2 0 0.0994487 0.0692516
266 1 18.8235 4.60949 0.361826 4 0.106932 2 0 0.0994487 0.115612
267 1 19.6906 4.67872 1.0803 4 0.132182 2 0 0.0994487 0.931533
268 1 18.7859 5.27693 1.20102 4 0.139361 2 0 0.0994487 0.599152
269 1 19.5987 3.76722 0.227421 4 0.0905251 2 0 0.0994487 0.164271
270 1 20.4384 3.82188 1.23329 4 0.105983 2 0 0.0994487 0.325961
271 1 20.8846 4.71868 1.39403 4 0.165451 2 0 0.0994487 0.149063
272 1 21.5775 4.95128 0.810455 4 0.203814 2 0 0.0994487 -0.00373661
273 1 21.0824 3.93136 0.512408 4 0.119165 2 0 0.0994487 0.0883073
274 1 20.1339 4.78559 0.352846 4 0.147048 2 0 0.0994487 0.14559
275 1 22.8205 3.63186 1.42135 4 0.116901 2 0 0.0994487 -0.0183966
276 1 21.9406 4.13318 1.31068 4 0.141864 2 0 0.0994487 0.0272092
277 1 22.4705 5.17735 1.27286 4 0.234553 2 0 0.0994487 0.0207124
278 1 22.6119 4.34705 0.510028 4 0.157903 2 0 0.0994487 -0.0221024
279 1 23.5735 3.63903 0.782677 4 0.116849 2 0 0.0994487 0.185565
280 1 24.336 4.32055 0.625018 4 0.147151 2 0 0.0994487 -0.150091
281 1 23.4679 4.54946 1.33355 4 0.172715 2 0 0.0994487 -0.0790522
282 1 24.8518 5.25716 0.566763 4 0.197459 2 0 0.0994487 0.0409081
283 1 23.5518 5.06386 0.533607 4 0.214244 2 0 0.0994487 -0.0968859
284 1 25.0086 4.50055 1.62342 4 0.14368 2 0 0.0994487 -0.0421941
285 1 25.0629 3.68037 0.802132 4 0.102936 2 0 0.0994487 -0.187914
286 1 24.363 5.28843 1.43377 4 0.216462 2 0 0.0994487 -0.154708
287 1 25.6904 5.1389 1.34266 4 0.164008 2 0 0.0994487 0.210102
288 1 26.3575 4.29031 1.37159 4 0.103766 2 0 0.0994487 0.149483
289 1 26.5026 4.97257 0.640732 4 0.126773 2 0 0.0994487 0.0989682
290 1 25.5284 4.40089 0.388179 4 0.125854 2 0 0.0994487 0.0559486
291 1 27.3302 4.86961 1.40568 4 0.0994371 2 0 0.0994487 0.00661073
292 1 27.9624 3.97641 1.10408 4 0.0600276 2 0 0.0994487 -0.309502
293 1 28.2771 4.73475 0.706344 4 0.0730033 2 0 0.0994487 -0.0812457
294 1 27.0674 4.04323 0.570038 4 0.0789645 2 0 0.0994487 0.0120236
295 1 28.9321 3.77016 0.487204 4 0.0432552 2 0 0.0994487 -0.00703221
296 1 29.0873 4.52317 1.33085 4 0.0539697 2 0 0.0994487 0.0574862
297 1 29.9979 4.07209 1.02303 4 0.037312 2 0 0.0994487 -0.27523
298 1 31.0296 3.97382 0.373364 4 0.0308822 2 0 0.0994487 0.657583
299 1 30.2046 4.67765 0.491317 4 0.0435274 2 0 0.0994487 0.00995852
300 1 30.9783 4.59929 1.41131 4 0.0369493 2 0 0.0994487 0.679914
301 1 0.908283 5.53205 0.461647 4 8.2467e-05 2 0 0.0994487 -0.463784
302 1 1.53161 5.51184 1.37971 4 0.000108637 2 0 0.0994487 -0.117386
303 1 0.793684 6.22023 1.2768 4 9.54417e-05 2 0 0.0994487 -0.703381
304 1 0.257003 6.91734 1.50738 4 9.18062e-05 2 0 0.0994487 -0.772633
305 1 0.969942 6.9454 0.573423 4 0.000124511 2 0 0.0994487 -0.473533
306 1 1.7053 7.02884 1.23811 4 0.00017165 2 0 0.0994487 0.0665188
307 1 1.89588 6.19966 0.519025 4 0.000159871 2 0 0.0994487 -0.156399
308 1 3.10475 5.61709 1.30057 4 0.00026463 2 0 0.0994487 0.0402539
309 1 2.26359 6.15348 1.40977 4 0.000184376 2 0 0.0994487 0.0408567
310 1 3.25442 6.96226 1.12748 4 0.000432929 2 0 0.0994487 -0.054122
311 1 2.68177 5.61289 0.273587 4 0.000211402 2 0 0.0994487 -0.0596848
312 1 3.39503 6.28191 0.500536 4 0.000400047 2 0 0.0994487 -0.121442
313 1 4.18979 5.46246 0.325783 4 0.000493079 2 0 0.0994487 0.0310191
314 1 4.93434 5.42873 1.31778 4 0.000790511 2 0 0.0994487 -0.235098
315 1 4.13622 6.09659 1.22779 4 0.000593833 2 0 0.0994487 -0.0893872
316 1 4.82567 6.23357 0.333842 4 0.000892501 2 0 0.0994487 -0.0345744
317 1 4.77312 6.79931 1.15967 4 0.00104511 2 0 0.0994487 -0.305928
318 1 4.00267 7.02511 0.221759 4 0.000676028 2 0 0.0994487 -0.0853429
319 1 5.78575 5.42185 0.301847 4 0.0011727 2 0 0.0994487 0.0125036
320 1 5.6935 6.24342 0.9632 4 0.00145693 2 0 0.0994487 -0.967784
321 1 6.4578 5.98425 1.59671 4 0.00196281 2 0 0.0994487 0.140916
322 1 6.43234 6.86927 1.00965 4 0.00253411 2 0 0.0994487 0.85168
323 1 6.37773 6.04115 0.154639 4 0.00178726 2 0 0.0994487 0.111113
324 1 5.54993 7.05206 0.147147 4 0.00156193 2 0 0.0994487 0.0363875
325 1 8.21355 5.31419 0.694273 4 0.00403979 2 0 0.0994487 -0.0895889
326 1 7.32761 6.15925 0.754293 4 0.00325892 2 0 0.0994487 0.225735
327 1 7.39163 5.41839 1.49138 4 0.00269091 2 0 0.0994487 0.136755
328 1 8.23884 6.11028 1.49159 4 0.00521342 2 0 0.0994487 0.0187387
329 1 8.01352 6.85364 0.728993 4 0.00584921 2 0 0.0994487 0.0691903
330 1 7.28191 6.86379 1.59601 4 0.00409771 2 1 0.0994487 0.126054
331 1 7.33029 5.3575 0.0461812 4 0.0024176 2 0 0.0994487 0.0813577
332 1 9.76796 5.3194 0.792562 4 0.00797284 2 0 0.0994487 0.32845
333 1 8.88016 6.18865 0.736908 4 0.0072421 2 0 0.0994487 -0.23554
334 1 9.05434 5.3271 1.5973 4 0.00598689 2 0 0.0994487 -0.06283
335 1 9.73844 6.19052 1.46731 4 0.010739 2 0 0.0994487 -0.106474
336 1 9.09351 6.95013 1.463 4 0.0104525 2 2 0.0994487 -0.0759803
337 1 9.76329 6.23201 0.0941385 4 0.0104172 2 0 0.0994487 -0.0359512
338 1 8.99733 5.46479 0.012702 4 0.00588927 2 0 0.0994487 -0.134753
339 1 10.5831 6.02196 0.964384 4 0.0142185 2 0 0.0994487 -0.356362
340 1 11.3128 6.37134 0.0776634 4 0.0189665 2 0 0.0994487 0.100341
341 1 10.5187 6.94145 0.15452 4 0.0171509 2 0 0.0994487 -0.0735328
342 1 10.4686 6.92564 1.49614 4 0.01832 2 1 0.0994487 -0.0634954
343 1 11.9994 5.6274 0.183157 4 0.0207172 2 0 0.0994487 -0.0105313
344 1 12.6757 5.81849 0.861776 4 0.0291944 2 0 0.0994487 0.0817412
345 1 11.7774 6.20735 1.05291 4 0.0230361 2 0 0.0994487 0.292234
346 1 13.3219 5.86668 1.55471 4 0.0369654 2 0 0.0994487 0.208165
347 1 13.3506 6.58297 0.813679 4 0.0485175 2 0 0.0994487 -0.29212
348 1 13.3212 5.53867 0.0424813 4 0.0344807 2 0 0.0994487 -0.142912
349 1 14.0617 5.71565 0.77266 4 0.0477498 2 0 0.0994487 -0.372705
350 1 14.3278 6.65176 1.40646 4 0.0722524 2 1 0.0994487 -0.103121
351 1 14.1303 6.38483 0.0380077 4 0.0561804 2 0 0.0994487 -0.0826121
352 1 15.0282 5.64393 0.034369 4 0.0614933 2 0 0.0994487 0.0573622
353 1 15.8305 5.73813 0.95832 4 0.0837869 2 0 0.0994487 0.625781
354 1 15.0472 6.45091 0.806774 4 0.0830501 2 0 0.0994487 -0.176071
355 1 16.491 6.45257 1.1401 4 0.130104 2 0 0.0994487 0.208292
356 1 15.1058 5.87594 1.69804 4 0.0732198 2 0 0.0994487 -0.09766
357 1 16.62 5.41933 0.276819 4 0.0906067 2 0 0.0994487 0.0799216
358 1 15.6753 6.3382 0.0390223 4 0.0915277 2 0 0.0994487 0.039849
359 1 17.8271 5.30128 0.541411 4 0.11361 2 0 0.0994487 0.150329
360 1 17.113 5.42499 1.24767 4 0.105247 2 0 0.0994487 -0.286574
361 1 17.0619 6.27419 0.411469 4 0.135356 2 0 0.0994487 0.138949
362 1 17.6649 6.24649 1.38542 4 0.159203 2 0 0.0994487 -0.256169
363 1 18.2745 7.0517 1.13153 4 0.232983 2 0 0.0994487 0.649857
364 1 18.3714 6.23173 0.609762 4 0.181128 2 0 0.0994487 0.156183
365 1 19.429 5.75829 0.62055 4 0.1904 2 0 0.0994487 0.0571906
366 1 19.3279 6.55755 1.35081 3 0.251095 2 0 0.0994427 0.278025
367 1 19.9942 6.75229 0.610261 3 0.322864 2 0 0.0988618 -0.0120988
368 1 20.7494 5.77593 0.653722 3 0.257119 2 0 0.0994083 -0.104057
369 1 20.1931 5.61076 1.39557 4 0.212273 2 0 0.0994487 0.312053
370 1 20.7787 6.6124 1.30355 3 0.37586 2 0 0.0980756 -0.344114
371 1 21.6592 6.66248 0.666524 3 0.397708 2 0 0.0976124 -0.0434595
372 1 21.6631 5.87866 1.38528 3 0.313872 2 0 0.0989591 0.0420541
373 1 21.6904 5.73259 0.0517844 3 0.276357 2 0 0.0992833 -0.00149906
374 1 22.6732 5.8279 0.674154 3 0.303187 2 0 0.0990639 0.00266529
375 1 22.6319 6.69333 1.20734 3 0.433842 2 0 0.0965947 -0.20199
376 1 23.3484 6.78052 0.267835 3 0.401271 2 0 0.0975271 -0.12537
377 1 23.4822 5.88496 1.30013 3 0.308319 2 0 0.099015 -0.176368
378 1 24.3197 6.56281 1.15825 3 0.344134 2 0 0.0985943 0.173612
379 1 24.1457 6.00685 0.427617 3 0.289268 2 0 0.099185 0.00243958
380 1 25.6831 5.86213 0.700952 4 0.209623 2 0 0.0994487 0.163898
381 1 25.1124 6.04132 1.67733 4 0.249522 2 0 0.0994487 0.00366954
382 1 25.1593 6.74159 0.495153 3 0.302061 2 0 0.0990744 0.0903923
383 1 25.8251 6.59457 1.40775 3 0.252328 2 0 0.0994358 0.0881032
384 1 26.6903 5.84511 1.4763 4 0.165123 2 0 0.0994487 0.0917623
385 1 27.4966 5.54334 0.722172 4 0.116741 2 0 0.0994487 -0.251571
386 1 26.7485 6.36567 0.651888 4 0.187929 2 0 0.0994487 0.0387512
387 1 27.7011 6.47315 1.36539 4 0.147266 2 0 0.0994487 0.131493
388 1 28.3648 5.52203 1.4872 4 0.0910178 2 0 0.0994487 0.0456337
389 1 27.7097 7.0074 0.530173 4 0.165711 2 0 0.0994487 0.0321237
390 1 29.3889 5.30889 0.818726 4 0.0656301 2 0 0.0994487 0.31673
391 1 29.4379 6.18214 1.32212 4 0.0797739 2 0 0.0994487 -0.00338069
392 1 29.5784 6.89773 0.506505 4 0.0907378 2 0 0.0994487 0.0925869
393 1 28.4685 6.20589 0.638647 4 0.1046 2 0 0.0994487 -0.27008
394 1 29.3762 6.15398 0.0801838 4 0.0799911 2 0 0.0994487 0.0969266
395 1 28.4822 5.38976 0.0592959 4 0.0823135 2 0 0.0994487 -0.105003
396 1 30.9636 5.36838 0.595026 4 0.048531 2 0 0.0994487 0.667849
397 1 30.2159 5.45949 1.46813 4 0.0548784 2 0 0.0994487 0.0540216
398 1 30.3958 6.18258 0.649752 4 0.0648118 2 0 0.0994487 0.329001
399 1 31.2189 6.15516 1.38439 4 0.0557595 2 0 0.0994487 0.587258
400 1 31.1994 6.95407 0.60342 4 0.0669409 2 0 0.0994487 0.812251
401 1 31.7235 5.99622 0.446564 4 0.0510709 2 0 0.0994487 0.879729
402 1 0.261851 7.63199 0.661866 4 0.00011118 2 0 0.0994487 -0.876373
403 1 0.831025 8.46344 0.61936 4 0.00015427 2 0 0.0994487 -0.577626
404 1 1.11211 7.86396 1.49711 4 0.000151205 2 0 0.0994487 -0.154428
405 1 0.356955 8.5626 1.47035 4 0.000130516 2 0 0.0994487 -0.764984
406 1 1.59266 7.76478 0.37187 4 0.000192869 2 0 0.0994487 -0.0897873
407 1 1.72382 8.61735 1.46471 4 0.000233844 2 0 0.0994487 0.0395976
408 1 2.48799 7.14986 0.476331 4 0.000287996 2 0 0.0994487 -0.0836949
409 1 2.19177 8.6335 0.399707 4 0.000316321 2 0 0.0994487 -0.137267
410 1 2.39416 7.81099 1.27726 4 0.000303003 2 0 0.0994487 0.0869933
411 1 3.01349 8.51445 0.935533 4 0.00050518 2 0 0.0994487 -0.53931
412 1 3.24418 7.77117 0.327041 4 0.000511386 2 0 0.0994487 -0.196204
413 1 3.81243 8.45898 0.0822892 4 0.000751512 2 0 0.0994487 -0.0457777
414 1 3.97971 7.67009 1.24863 4 0.000765893 2 0 0.0994487 -0.0554876
415 1 4.70459 8.25653 0.921772 4 0.00126899 2 0 0.0994487 0.295343
416 1 4.67023 7.63706 0.247803 4 0.00108827 2 0 0.0994487 0.0376931
417 1 3.81127 8.34851 1.76162 4 0.000753421 2 0 0.0994487 -0.0574353
418 1 5.86955 8.34822 0.169905 4 0.00236556 2 0 0.0994487 0.113106
419 1 5.48363 7.59071 1.03232 4 0.00181956 2 0 0.0994487 -0.467659
420 1 6.49365 7.53799 0.169175 4 0.00290074 2 0 0.0994487 0.187625
421 1 6.39674 8.23976 1.04384 4 0.00348317 2 0 0.0994487 0.338176
422 1 7.28583 7.76918 0.746313 4 0.00523864 2 1 0.0994487 0.00995752
423 1 8.2859 8.31376 0.868772 4 0.0100778 2 2 0.0994487 0.278418
424 1 7.27857 8.18368 1.7015 4 0.00636861 2 2 0.0994487 -0.174757
425 1 8.05208 7.48784 1.5604 4 0.00749722 2 1 0.0994487 0.185023
426 1 7.99895 7.60312 0.0282118 4 0.00659874 2 0 0.0994487 0.0674142
427 1 9.84313 7.22199 0.72344 4 0.015236 2 1 0.0994487 -0.346933
428 1 8.91207 7.61626 0.661731 4 0.0110602 2 1 0.0994487 0.158566
429 1 9.73234 8.61964 0.693151 4 0.020766 2 3 0.0994487 -0.257113
430 1 9.09265 8.69904 1.44495 4 0.017651 2 9 0.0994487 -0.395779
431 1 9.64026 7.88932 1.60055 4 0.0189116 2 8 0.0994487 -0.34078
432 1 11.3161 7.14287 0.810636 4 0.025261 2 1 0.0994487 0.448559
433 1 10.5731 7.9454 0.844311 4 0.0244898 2 3 0.0994487 -0.198031
434 1 10.5877 8.70196 1.4255 4 0.0304697 1 8 0.0994487 -0.146658
435 1 11.4057 7.80503 1.60301 4 0.0344233 2 7 0.0994487 0.228713
436 1 11.227 8.11851 0.0422735 4 0.0287933 2 0 0.0994487 0.174328
437 1 12.7061 7.28322 0.565784 4 0.0469462 2 0 0.0994487 -0.053137
438 1 12.178 8.23518 0.590765 4 0.0467646 2 2 0.0994487 0.163967
439 1 12.0637 7.15788 1.37768 4 0.0355096 2 3 0.0994487 0.1459
440 1 12.0887 8.68064 1.49044 4 0.0544786 1 8 0.0994487 0.0827382
441 1 12.8601 7.99585 1.47598 4 0.0652621 2 6 0.0994487 -0.216974
442 1 14.3373 7.3542 0.580954 4 0.0839948 2 0 0.0994487 0.0649061
443 1 13.6169 8.09282 0.464536 4 0.0782207 2 2 0.0994487 0.0237868
444 1 13.458 7.34024 1.34133 4 0.0662989 2 2 0.0994487 0.0546354
445 1 14.2471 8.18371 1.35246 4 0.108448 2 5 0.0994487 0.0247297
446 1 16.4328 7.18497 0.276798 4 0.153414 2 0 0.0994487 -0.0624807
447 1 15.6276 7.3114 0.923132 4 0.132778 2 1 0.0994487 -0.441521