ITEM: TIMESTEP
7500
ITEM: NUMBER OF ATOMS
9495
ITEM: BOX BOUNDS mm mm mm
0.0000000000000000e+00 3.1748021039364001e+01
0.0000000000000000e+00 3.1748021039364001e+01
-7.4072398406925706e-04 3.1748021039364001e+01
ITEM: ATOMS id type x y z c_phase c_temp c_surf c_nbond c_visc f_3[1]
1 1 0.116341 1.10259 0.464337 4 1.59737e-18 2 0 0.0994487 -0.681941
2 1 0.974108 1.6685 0.77798 4 1.45401e-17 2 0 0.0994487 -0.517032
3 1 0.714648 0.793562 1.41295 4 3.93188e-18 2 0 0.0994487 -0.281794
4 1 0.00336375 1.60273 1.37437 4 2.17511e-18 2 0 0.0994487 -0.804051
5 1 0.729896 0.0633724 0.61602 4 1.72631e-18 3 0 0.0994487 -0.190374
6 1 1.71015 0.808983 1.0155 4 3.02705e-17 2 0 0.0994487 -0.33207
7 1 1.80059 1.47468 0.221075 4 4.53127e-17 2 0 0.0994487 -0.125829
8 1 1.82015 1.66049 1.76126 4 6.1724e-17 2 0 0.0994487 -0.139533
9 1 2.52093 0.749102 0.203812 4 9.85634e-17 2 0 0.0994487 -0.14294
10 1 2.59149 0.0538711 1.03726 4 7.27547e-17 2 0 0.0994487 -0.295005
11 1 2.64922 1.541 0.882848 4 3.20856e-16 2 0 0.0994487 0.235753
12 1 2.66829 0.815502 1.7457 4 1.50496e-16 2 0 0.0994487 -0.187041
13 1 3.43386 0.933692 0.956349 4 8.73882e-16 2 0 0.0994487 0.320239
14 1 3.49924 0.0925696 1.70571 4 3.25281e-16 2 0 0.0994487 0.178053
15 1 3.60652 1.70798 1.71994 4 1.89032e-15 2 0 0.0994487 0.0487944
16 1 4.10576 0.858321 0.325305 4 2.53299e-15 2 0 0.0994487 0.153145
17 1 4.96159 0.56786 1.17466 4 1.09111e-14 2 0 0.0994487 -0.0370684
18 1 4.91949 1.59987 0.383508 4 2.34816e-14 2 0 0.0994487 -0.100249
19 1 4.3472 0.941527 1.62884 4 4.1147e-15 2 0 0.0994487 0.110737
20 1 3.47612 0.111428 0.171027 4 2.77434e-16 2 0 0.0994487 0.166215
21 1 5.64741 0.645627 0.325839 4 3.65868e-14 2 0 0.0994487 -0.0806057
22 1 5.88414 1.31048 0.938036 4 1.1218e-13 2 0 0.0994487 -0.199593
23 1 6.57478 1.39104 0.218369 4 3.57201e-13 2 0 0.0994487 -0.0861348
24 1 5.78374 0.460658 1.69897 4 3.49833e-14 2 0 0.0994487 -0.0846535
25 1 5.03122 1.72414 1.43602 4 3.08879e-14 2 0 0.0994487 0.0453706
26 1 6.7138 0.39031 0.865278 4 2.01431e-13 2 0 0.0994487 -0.079383
27 1 6.69104 1.00962 1.69374 4 2.80016e-13 2 0 0.0994487 -0.107925
28 1 8.2679 0.408875 1.07337 4 2.49729e-12 2 0 0.0994487 -0.100168
29 1 7.36782 1.22285 0.954198 4 1.30435e-12 2 0 0.0994487 -0.30256
30 1 8.24709 1.39092 0.236779 4 5.49159e-12 2 0 0.0994487 -0.0460659
31 1 8.12868 1.27217 1.60653 4 4.17331e-12 2 0 0.0994487 -0.00811857
32 1 7.58247 0.647807 0.140287 4 8.9618e-13 2 0 0.0994487 -0.110937
33 1 8.85849 0.508506 0.273966 4 5.86112e-12 2 0 0.0994487 -0.0616476
34 1 9.55301 0.3386 0.888639 4 1.66087e-11 2 0 0.0994487 0.00506197
35 1 9.02586 1.30716 1.1133 4 2.00306e-11 2 0 0.0994487 -0.0606514
37 1 9.63995 1.37474 0.0900752 4 3.71376e-11 2 0 0.0994487 0.0992899
38 1 11.2128 0.215893 0.632658 4 1.71474e-10 2 0 0.0994487 0.203501
39 1 10.3637 1.04743 0.823114 4 1.14705e-10 2 0 0.0994487 0.539881
40 1 10.523 0.196295 1.44539 4 5.8752e-11 2 0 0.0994487 0.0644271
41 1 11.2856 1.01846 1.41785 4 4.59778e-10 2 0 0.0994487 0.164703
42 1 10.5797 1.67706 1.72992 4 2.79177e-10 2 0 0.0994487 0.118162
43 1 10.2431 0.367861 0.0780499 4 3.02606e-11 2 0 0.0994487 0.1498
44 1 12.8757 0.211714 0.636805 4 1.85711e-09 2 0 0.0994487 0.0587853
45 1 12.0457 1.07408 0.506655 4 1.53957e-09 2 0 0.0994487 -0.0235543
46 1 12.1319 0.316439 1.29957 4 7.66447e-10 2 0 0.0994487 0.0188336
47 1 12.7194 1.19864 1.3723 4 4.48381e-09 2 0 0.0994487 -0.0305322
48 1 14.3729 0.318493 0.764646 4 1.44977e-08 2 0 0.0994487 -0.0460403
49 1 13.5924 1.113 0.843618 4 1.40818e-08 2 0 0.0994487 -0.263059
50 1 14.0399 1.55958 0.167469 4 3.43834e-08 2 0 0.0994487 -0.0898271
51 1 13.6075 0.359834 1.6352 4 5.05989e-09 2 0 0.0994487 -0.0562654
52 1 14.3777 1.14948 1.47647 4 3.35258e-08 2 0 0.0994487 -0.0178305
53 1 14.8761 1.55337 0.662943 4 1.01518e-07 2 0 0.0994487 0.389942
54 1 15.7061 0.770636 0.788259 4 1.12211e-07 2 0 0.0994487 0.36648
55 1 16.5532 1.54451 0.681338 4 7.37313e-07 2 0 0.0994487 0.000800352
56 1 15.1422 0.4642 1.64149 4 3.53769e-08 2 0 0.0994487 0.152076
57 1 16.547 0.712289 1.3421 4 2.80459e-07 2 0 0.0994487 0.0956229
58 1 15.6341 1.48544 1.3916 4 2.4418e-07 2 0 0.0994487 0.153627
59 1 15.1049 0.711806 0.0677822 4 3.41794e-08 2 0 0.0994487 0.169202
60 1 17.2544 0.732268 0.547589 4 5.08251e-07 2 0 0.0994487 0.0286276
61 1 17.9231 1.58109 0.757246 4 2.91515e-06 2 0 0.0994487 0.0415592
62 1 17.916 0.742935 1.42801 4 1.04282e-06 2 0 0.0994487 -0.224379
63 1 17.2202 1.74884 1.56274 4 1.92891e-06 2 0 0.0994487 -0.0984867
64 1 19.5372 0.0167772 0.662766 4 1.15321e-06 2 0 0.0994487 0.0436431
65 1 18.7918 0.725074 0.684829 4 1.84561e-06 2 0 0.0994487 -0.269947
66 1 19.5395 1.55488 0.841653 4 9.09652e-06 2 0 0.0994487 -0.341164
67 1 19.0276 0.158607 1.54508 4 1.04922e-06 2 0 0.0994487 -0.158665
68 1 19.5934 0.967491 1.68957 4 3.94826e-06 2 0 0.0994487 0.00834958
69 1 18.6564 1.51302 1.50035 4 4.72776e-06 2 0 0.0994487 -0.250311
70 1 21.0889 0.349843 1.06749 4 3.77841e-06 2 0 0.0994487 -0.196127
71 1 20.2493 0.776373 0.980057 4 4.76177e-06 2 0 0.0994487 -0.0497634
72 1 21.1062 1.65725 0.951506 4 2.10544e-05 2 0 0.0994487 0.692911
73 1 21.1874 0.765598 0.218806 4 5.47485e-06 2 0 0.0994487 -0.0445914
74 1 20.3457 1.51479 0.193617 4 1.13392e-05 2 0 0.0994487 -0.0806031
75 1 22.0087 0.262534 0.539755 4 3.8305e-06 2 0 0.0994487 0.0993587
76 1 22.7913 0.430275 1.40734 4 5.30495e-06 2 0 0.0994487 0.206599
77 1 22.1105 1.14763 1.32981 4 1.27601e-05 2 0 0.0994487 0.240021
78 1 21.9982 1.59955 0.538558 4 2.41784e-05 2 0 0.0994487 0.185171
79 1 22.9157 1.07463 0.445168 4 1.17809e-05 2 0 0.0994487 0.0520836
80 1 24.228 0.380179 1.45209 4 4.87831e-06 2 0 0.0994487 0.0576162
81 1 23.5672 0.357563 0.57369 4 4.91681e-06 2 0 0.0994487 0.0385702
82 1 24.4367 1.18687 0.754729 4 1.42804e-05 2 0 0.0994487 -0.0192974
83 1 23.4757 1.2499 1.4028 4 1.70596e-05 2 0 0.0994487 0.0298761
84 1 24.955 0.315686 0.551996 4 3.77144e-06 2 0 0.0994487 -0.0171992
85 1 26.0085 0.383365 1.1715 4 2.8766e-06 2 0 0.0994487 -0.18586
86 1 25.169 1.12579 1.48087 4 1.09044e-05 2 0 0.0994487 0.0251046
87 1 25.9301 1.73476 1.35794 4 1.8222e-05 2 0 0.0994487 0.0345357
88 1 25.8917 0.929212 0.432102 4 5.64219e-06 2 0 0.0994487 -0.09542
89 1 27.5736 1.28032 0.38906 4 2.80942e-06 2 0 0.0994487 0.0454491
90 1 27.6142 0.50928 0.874321 4 1.20107e-06 2 0 0.0994487 0.175388
91 1 26.7559 1.02809 1.26347 4 4.05918e-06 2 0 0.0994487 -0.236886
92 1 28.3748 0.337482 1.39813 4 5.07232e-07 2 0 0.0994487 0.00984426
93 1 26.7925 0.240345 0.226621 4 1.24282e-06 2 0 0.0994487 0.0380747
94 1 28.6489 1.24263 0.742341 4 1.19551e-06 2 0 0.0994487 0.102406
95 1 29.3912 0.945639 1.56878 4 3.7525e-07 2 0 0.0994487 -0.0192007
96 1 28.5228 1.71921 1.49749 4 2.1619e-06 2 0 0.0994487 -0.042981
97 1 29.8133 0.173958 1.46124 4 1.0506e-07 2 0 0.0994487 0.133416
98 1 29.2734 0.3547 0.615275 4 2.13241e-07 2 0 0.0994487 -0.0816812
99 1 31.5874 0.266128 1.25663 4 1.53765e-08 3 0 0.0994487 0.830097
100 1 30.7016 0.49015 0.470738 4 5.67386e-08 2 0 0.0994487 0.354852
101 1 30.1009 1.19877 0.774133 4 2.58823e-07 2 0 0.0994487 0.21092
102 1 30.8649 0.971942 1.39386 4 9.00239e-08 2 0 0.0994487 0.703281
103 1 1.11081 2.43607 0.129285 4 2.38604e-17 2 0 0.0994487 -0.0373224
104 1 0.133403 2.3821 0.812241 4 5.59231e-18 2 0 0.0994487 -0.984517
105 1 1.28845 3.23764 0.949187 4 9.88761e-17 2 0 0.0994487 0.22209
106 1 1.13977 2.36077 1.59162 4 3.3794e-17 2 0 0.0994487 -0.222189
107 1 0.386685 3.02999 1.54944 4 1.42528e-17 2 0 0.0994487 -0.671256
108 1 0.332248 3.09582 0.131296 4 1.01775e-17 2 0 0.0994487 -0.59134
109 1 1.90972 2.41867 0.78376 4 1.57157e-16 2 0 0.0994487 0.0782078
110 1 2.65852 3.28029 0.860875 4 1.45048e-15 2 0 0.0994487 0.0668027
111 1 2.66931 2.22918 1.53373 4 5.57029e-16 2 0 0.0994487 0.0829544
112 1 3.2579 3.42668 1.64938 4 4.51243e-15 2 0 0.0994487 0.00397431
113 1 2.7261 2.38168 0.0557193 4 4.39091e-16 2 0 0.0994487 0.1466
114 1 3.38195 2.55413 0.779289 4 3.0164e-15 2 0 0.0994487 0.211582
115 1 4.00679 1.841 0.711184 4 5.61306e-15 2 0 0.0994487 -0.0361251
116 1 4.91383 2.57277 0.815661 4 5.73675e-14 2 0 0.0994487 -0.259353
117 1 4.20148 3.3175 0.749446 4 2.71917e-14 2 0 0.0994487 0.00621432
118 1 4.13245 2.64107 1.58328 4 1.24883e-14 2 0 0.0994487 0.0270767
119 1 5.65047 2.44269 0.132743 4 1.59158e-13 2 0 0.0994487 -0.189926
120 1 6.55776 2.18062 0.772597 4 7.82195e-13 2 0 0.0994487 -0.289394
121 1 5.64874 3.19593 0.952489 4 3.59708e-13 2 0 0.0994487 -0.754639
122 1 5.861 2.19426 1.49672 4 2.06607e-13 2 0 0.0994487 0.0126345
123 1 6.52037 3.06691 1.5557 4 1.39233e-12 2 0 0.0994487 0.0443563
124 1 6.65033 2.92778 0.134227 4 1.29049e-12 2 0 0.0994487 0.0288858
125 1 7.45405 2.22586 0.139832 4 3.26925e-12 2 0 0.0994487 -0.0535039
126 1 8.08209 2.20208 0.930382 4 1.08526e-11 2 0 0.0994487 -0.302086
127 1 7.40132 3.06835 0.934051 4 7.53123e-12 2 0 0.0994487 -0.0455399
128 1 7.29928 2.06035 1.56856 4 2.26433e-12 2 0 0.0994487 -0.0607341
129 1 8.18545 3.00183 1.65211 4 2.30975e-11 2 0 0.0994487 -0.0454173
130 1 8.26934 2.9712 0.0392146 4 2.38679e-11 2 0 0.0994487 -0.150618
131 1 8.90393 2.08699 0.252387 4 2.9933e-11 2 0 0.0994487 0.00243125
132 1 9.77243 2.0246 1.10996 4 1.3279e-10 2 0 0.0994487 0.173456
133 1 8.92671 2.97262 0.928693 4 8.92713e-11 2 0 0.0994487 -0.156774
134 1 9.03062 2.22066 1.70398 4 4.48436e-11 2 0 0.0994487 -0.0819695
135 1 9.56096 2.90576 0.21312 4 1.8058e-10 2 0 0.0994487 0.173118
136 1 10.2834 2.1137 0.214297 4 2.1857e-10 2 0 0.0994487 0.337737
137 1 11.1583 1.82604 0.771092 4 9.04057e-10 2 0 0.0994487 0.260083
138 1 10.6214 2.80819 0.921535 4 1.10043e-09 2 0 0.0994487 0.54191
139 1 11.4444 2.82964 1.57484 4 3.76533e-09 2 0 0.0994487 0.0951957
140 1 12.6737 1.94118 0.593851 4 1.02259e-08 2 0 0.0994487 -0.283939
141 1 11.928 2.64099 0.742299 4 6.80532e-09 2 0 0.0994487 -0.0386795
142 1 11.9239 1.9206 1.46509 4 3.06924e-09 2 0 0.0994487 0.0946491
143 1 12.8449 3.01766 1.68597 4 3.27331e-08 2 0 0.0994487 0.0363531
144 1 13.1791 3.03035 0.848852 4 6.30684e-08 2 0 0.0994487 -0.440867
145 1 13.3784 1.9912 1.48064 4 2.50544e-08 2 0 0.0994487 -0.0150737
146 1 14.0206 2.44438 0.927124 4 1.04391e-07 2 0 0.0994487 -0.133119
147 1 14.0279 3.38359 1.55716 4 2.53591e-07 2 0 0.0994487 0.0255705
148 1 14.6961 3.43698 0.884932 4 6.92482e-07 2 0 0.0994487 -0.332993
149 1 14.7823 2.29758 1.44821 4 2.18552e-07 2 0 0.0994487 0.0469238
150 1 14.8418 2.51505 0.136557 4 2.55249e-07 2 0 0.0994487 0.173002
151 1 14.1591 3.2262 0.0325348 4 2.34523e-07 2 0 0.0994487 -0.246108
152 1 13.4137 2.29398 0.0590902 4 3.45338e-08 2 0 0.0994487 -0.280964
153 1 15.6993 2.44373 0.692668 4 7.83945e-07 2 0 0.0994487 0.364385
154 1 16.3029 3.20095 0.662084 4 3.62143e-06 2 0 0.0994487 0.328581
155 1 16.308 2.47951 1.52575 4 1.75576e-06 2 0 0.0994487 -0.100651
156 1 15.3694 3.25723 1.50191 4 1.30849e-06 2 0 0.0994487 -0.0076731
157 1 15.5706 3.25854 0.0192499 4 1.11301e-06 2 0 0.0994487 0.290235
158 1 17.0646 2.35032 0.682778 4 3.35074e-06 2 0 0.0994487 0.0234766
159 1 17.944 2.92608 0.699539 4 1.6046e-05 2 0 0.0994487 -0.231195
160 1 18.0193 2.43917 1.58112 4 9.32262e-06 2 0 0.0994487 -0.149138
161 1 17.0918 3.1162 1.49491 4 8.57527e-06 2 0 0.0994487 -0.14344
162 1 18.8908 2.35742 1.01358 4 1.71558e-05 2 0 0.0994487 -0.516834
163 1 19.7027 3.2427 1.27782 4 8.56997e-05 2 0 0.0994487 0.394877
164 1 18.884 2.99607 0.196019 4 3.25024e-05 2 0 0.0994487 -0.171811
165 1 19.587 2.34239 0.101452 4 2.21122e-05 2 0 0.0994487 -0.132371
166 1 20.3251 1.78863 1.72442 4 1.55342e-05 2 0 0.0994487 0.0449519
167 1 21.1565 2.41663 0.458355 4 5.94321e-05 2 0 0.0994487 0.196186
168 1 20.1948 2.46882 1.11433 4 4.20878e-05 2 0 0.0994487 0.286737
169 1 21.31 3.29463 1.39314 4 0.000223448 2 0 0.0994487 0.0777279
170 1 20.4222 2.99313 0.334941 4 8.60923e-05 2 0 0.0994487 0.186289
171 1 22.8719 2.07007 1.50872 4 5.5166e-05 2 0 0.0994487 -0.0221244
172 1 22.9717 2.60199 0.735523 4 0.000131213 2 0 0.0994487 0.133325
173 1 22.0961 2.49917 1.23787 4 9.72843e-05 2 0 0.0994487 0.186436
174 1 21.9898 3.20043 0.598797 4 0.00024863 2 0 0.0994487 -0.0757514
175 1 22.6771 3.40124 0.07601 4 0.000306055 2 0 0.0994487 0.0760732
176 1 23.7438 1.80844 0.624025 4 3.66135e-05 2 0 0.0994487 -0.0873601
177 1 24.4289 1.98763 1.61102 4 4.30667e-05 2 0 0.0994487 -0.064176
178 1 24.342 2.68296 0.775192 4 0.000120253 2 0 0.0994487 -0.341093
179 1 23.6887 2.90303 1.53628 4 0.000175393 2 0 0.0994487 -0.110505
180 1 24.4728 3.51078 1.55704 4 0.00034824 2 0 0.0994487 -0.118305
181 1 24.9562 2.84566 0.0146836 4 9.41495e-05 2 0 0.0994487 -0.0864596
182 1 26.5483 1.79415 0.511367 4 1.26613e-05 2 0 0.0994487 -0.00560031
183 1 25.1322 1.85613 0.509414 4 2.94551e-05 2 0 0.0994487 -0.0215294
184 1 25.7918 2.61203 0.707489 4 6.48895e-05 2 0 0.0994487 0.228202
185 1 25.1579 2.55548 1.52547 4 7.79339e-05 2 0 0.0994487 0.0576666
186 1 25.7213 3.49812 1.51211 4 0.000209802 2 0 0.0994487 0.123857
187 1 26.5364 2.56002 1.53049 4 3.59121e-05 2 0 0.0994487 0.0579475
188 1 26.1686 3.50068 0.599043 4 0.000159375 2 0 0.0994487 0.168845
189 1 27.5039 1.98546 1.23792 4 8.00443e-06 2 0 0.0994487 -0.186419
190 1 28.2489 2.09022 0.343734 4 4.24604e-06 2 0 0.0994487 -0.0177249
191 1 27.0867 2.6924 0.645359 4 2.81346e-05 2 0 0.0994487 -0.105601
192 1 27.1998 3.35397 1.41682 4 5.67208e-05 2 0 0.0994487 -0.0983284
193 1 28.2537 2.75799 1.20639 4 1.02911e-05 2 0 0.0994487 -0.418306
194 1 27.982 3.21993 0.326384 4 2.02657e-05 2 0 0.0994487 -0.125257
195 1 29.9568 1.80906 1.70764 4 5.47912e-07 2 0 0.0994487 0.183201
196 1 29.4477 2.04702 0.879698 4 1.38631e-06 2 0 0.0994487 -0.0070835
197 1 29.1956 2.6589 0.290703 4 3.09129e-06 2 0 0.0994487 -0.0578284
198 1 29.2495 3.2651 1.17365 4 6.31781e-06 2 0 0.0994487 0.118634
199 1 30.9114 1.98502 0.924207 4 2.77814e-07 2 0 0.0994487 0.967251
200 1 30.1815 2.71094 1.00186 4 1.23706e-06 2 0 0.0994487 0.675109
201 1 31.0247 3.35309 0.97101 4 9.08911e-07 2 0 0.0994487 0.998409
202 1 30.9865 2.69483 1.72648 4 4.39418e-07 2 0 0.0994487 0.578501
203 1 30.1092 3.25953 0.132205 4 1.75218e-06 2 0 0.0994487 -0.0443658
204 1 30.4116 1.90909 0.0255368 4 3.2301e-07 2 0 0.0994487 0.106045
205 1 31.1434 2.66402 0.0761253 4 3.26516e-07 2 0 0.0994487 0.70882
206 1 0.293831 3.78503 0.918557 4 2.28407e-17 2 0 0.0994487 -0.999347
207 1 0.143046 4.59443 0.482118 4 2.74831e-17 2 0 0.0994487 -0.784494
208 1 1.14036 4.67093 0.986638 4 2.18338e-16 2 0 0.0994487 -0.516752
209 1 0.0884667 5.26681 1.27761 4 3.74046e-17 2 0 0.0994487 -0.887458
210 1 1.04069 3.86421 0.0595682 4 7.48822e-17 2 0 0.0994487 0.0148878
211 1 1.84117 4.04604 0.847105 4 5.60901e-16 2 0 0.0994487 0.00826694
212 1 2.54049 4.85585 1.13748 4 3.80025e-15 2 0 0.0994487 -0.333847
213 1 2.64953 4.14475 0.20674 4 2.51308e-15 2 0 0.0994487 -0.0285725
214 1 1.89758 4.96895 0.278386 4 1.08269e-15 2 0 0.0994487 -0.153434
215 1 3.40771 4.86189 0.161635 4 1.72248e-14 2 0 0.0994487 -0.0163886
216 1 3.494 4.07675 0.885909 4 1.3373e-14 2 0 0.0994487 0.0268909
217 1 4.91235 4.00001 1.18344 4 1.80392e-13 2 0 0.0994487 0.0115058
218 1 4.04658 4.88002 1.14639 4 6.97029e-14 2 0 0.0994487 0.264488
219 1 4.26027 4.18509 0.149001 4 4.93103e-14 2 0 0.0994487 0.0377376
220 1 5.00947 4.74001 0.341082 4 3.22508e-13 2 0 0.0994487 0.0765388
221 1 5.77735 3.9378 0.198707 4 5.96668e-13 2 0 0.0994487 0.0260148
222 1 6.48883 3.76611 0.772067 4 2.51518e-12 2 0 0.0994487 0.20455
223 1 5.68025 4.73638 1.02487 4 1.30528e-12 2 0 0.0994487 -0.621703
224 1 6.66321 4.5115 1.6428 4 5.39574e-12 2 0 0.0994487 0.158932
225 1 6.68072 5.1315 0.885352 4 1.05086e-11 2 0 0.0994487 0.20685
226 1 8.1982 3.892 0.700757 4 5.9437e-11 2 0 0.0994487 -0.369905
227 1 7.40842 4.46072 0.5468 4 2.20537e-11 2 0 0.0994487 -0.0252147
228 1 7.39886 3.87029 1.49684 4 1.31013e-11 2 0 0.0994487 0.102575
229 1 8.20004 4.61106 1.48677 4 9.83873e-11 2 0 0.0994487 -0.0118397
230 1 9.8976 3.57792 0.885667 4 7.44969e-10 2 0 0.0994487 0.59276
231 1 9.07913 4.56551 0.821335 4 4.34489e-10 2 0 0.0994487 -0.658549
232 1 9.86266 4.50302 0.126324 4 1.10353e-09 2 0 0.0994487 0.0958633
233 1 9.07829 3.76256 1.49819 4 2.21975e-10 2 0 0.0994487 -0.070888
234 1 9.86881 4.3462 1.65532 4 1.27591e-09 2 0 0.0994487 -0.085665
235 1 8.98541 3.86821 0.0631775 4 1.6863e-10 2 0 0.0994487 -0.138755
236 1 11.408 3.64493 0.778297 4 8.37835e-09 2 0 0.0994487 0.20206
237 1 10.5891 4.66652 0.906264 4 5.66629e-09 2 0 0.0994487 0.0450559
238 1 11.3867 4.69403 0.230734 4 1.80261e-08 2 0 0.0994487 -0.0498935
239 1 10.7059 3.56689 1.58785 4 2.52518e-09 2 0 0.0994487 -0.044853
240 1 11.3652 4.3716 1.70545 4 1.34432e-08 2 0 0.0994487 -0.0798318
241 1 11.3894 5.27213 0.983682 4 3.16006e-08 2 0 0.0994487 -0.674494
242 1 10.5826 3.84888 0.176129 4 2.22637e-09 2 0 0.0994487 0.210464
243 1 12.5168 3.57716 0.814749 4 4.15788e-08 2 0 0.0994487 -0.010585
244 1 12.1916 4.55033 1.00021 4 6.11874e-08 2 0 0.0994487 0.10502
245 1 12.7362 4.99738 1.68903 4 1.60537e-07 2 0 0.0994487 0.191324
246 1 13.2258 4.67863 0.80017 4 3.1092e-07 2 0 0.0994487 -0.00472113
247 1 12.6435 4.61885 0.0632315 4 1.10512e-07 2 0 0.0994487 -0.033584
248 1 13.9891 4.12825 0.69648 4 5.4775e-07 2 0 0.0994487 -0.43019
249 1 13.4832 4.21781 1.59317 4 2.61281e-07 2 0 0.0994487 0.0820122
250 1 14.2046 5.11838 1.52001 4 1.67098e-06 2 0 0.0994487 -0.0289981
251 1 14.9402 5.01141 0.811699 4 4.01948e-06 2 0 0.0994487 -0.052863
252 1 14.9642 4.4167 1.59432 4 2.3063e-06 2 0 0.0994487 -0.0635669
253 1 14.1405 4.90647 0.0597868 4 1.10688e-06 2 0 0.0994487 -0.0856993
254 1 14.961 4.19423 0.096508 4 1.62752e-06 2 0 0.0994487 0.0322689
255 1 15.6685 4.06642 0.926277 4 4.2501e-06 2 0 0.0994487 0.872569
256 1 15.8798 4.77595 0.186426 4 9.08953e-06 2 0 0.0994487 0.165385
257 1 16.5936 4.58036 0.900182 4 2.12953e-05 2 0 0.0994487 -0.0790161
258 1 16.3184 3.95875 1.6903 4 8.11598e-06 2 0 0.0994487 -0.0434014
259 1 15.8111 5.05317 1.64084 4 1.09268e-05 2 0 0.0994487 0.099495
260 1 17.2689 3.83372 0.811237 4 2.22978e-05 2 0 0.0994487 -0.345392
261 1 18.0864 4.48855 1.09806 4 9.51411e-05 2 0 0.0994487 -0.612195
262 1 17.9525 3.63794 1.65602 4 3.42638e-05 2 0 0.0994487 -0.192809
263 1 17.4569 4.57727 0.0147963 4 3.94415e-05 2 0 0.0994487 -0.0974119
264 1 18.1348 3.8547 0.0583493 4 4.09458e-05 2 0 0.0994487 -0.120518
265 1 18.8779 3.70667 0.95022 4 8.29843e-05 2 0 0.0994487 0.0692117
266 1 18.8235 4.60949 0.361826 4 0.000187182 2 0 0.0994487 0.115607
267 1 19.6906 4.67872 1.0803 4 0.000505581 2 0 0.0994487 0.931532
268 1 18.7859 5.27693 1.20102 4 0.000414438 2 0 0.0994487 0.599123
269 1 19.5987 3.76722 0.227421 4 0.000132448 2 0 0.0994487 0.164268
270 1 20.4384 3.82188 1.23329 4 0.000299273 2 0 0.0994487 0.325952
271 1 20.8846 4.71868 1.39403 4 0.00127054 2 0 0.0994487 0.149057
272 1 21.5775 4.95128 0.810455 4 0.00244131 2 0 0.0994487 -0.0037533
273 1 21.0824 3.93136 0.512408 4 0.000469623 2 0 0.0994487 0.088302
274 1 20.1339 4.78559 0.352846 4 0.000726949 2 0 0.0994487 0.145585
275 1 22.8205 3.63186 1.42135 4 0.000514306 2 0 0.0994487 -0.0184004
276 1 21.9406 4.13318 1.31068 4 0.000914957 2 0 0.0994487 0.0272033
277 1 22.4705 5.17735 1.27286 4 0.00423768 2 0 0.0994487 0.0207062
278 1 22.6119 4.34705 0.510028 4 0.00131152 2 0 0.0994487 -0.0221067
279 1 23.5735 3.63903 0.782677 4 0.000545868 2 0 0.0994487 0.185557
280 1 24.336 4.32055 0.625018 4 0.00115838 2 0 0.0994487 -0.150094
281 1 23.4679 4.54946 1.33355 4 0.00190419 2 0 0.0994487 -0.0790565
282 1 24.8518 5.25716 0.566763 4 0.00275539 2 0 0.0994487 0.0409062
283 1 23.5518 5.06386 0.533607 4 0.00342074 2 0 0.0994487 -0.0968895
284 1 25.0086 4.50055 1.62342 4 0.00106628 2 0 0.0994487 -0.0421954
285 1 25.0629 3.68037 0.802132 4 0.000379388 2 0 0.0994487 -0.187919
286 1 24.363 5.28843 1.43377 4 0.00392301 2 0 0.0994487 -0.15471
287 1 25.6904 5.1389 1.34266 4 0.00156119 2 0 0.0994487 0.2101
288 1 26.3575 4.29031 1.37159 4 0.000361731 2 0 0.0994487 0.149482
289 1 26.5026 4.97257 0.640732 4 0.000651765 2 0 0.0994487 0.0989667
290 1 25.5284 4.40089 0.388179 4 0.000667598 2 0 0.0994487 0.0559475
291 1 27.3302 4.86961 1.40568 4 0.000279178 2 0 0.0994487 0.00660979
292 1 27.9624 3.97641 1.10408 4 5.66233e-05 2 0 0.0994487 -0.309506
293 1 28.2771 4.73475 0.706344 4 8.81892e-05 2 0 0.0994487 -0.0812468
294 1 27.0674 4.04323 0.570038 4 0.000142437 2 0 0.0994487 0.0120223
295 1 28.9321 3.77016 0.487204 4 1.4686e-05 2 0 0.0994487 -0.00703266
296 1 29.0873 4.52317 1.33085 4 2.81567e-05 2 0 0.0994487 0.0574858
297 1 29.9979 4.07209 1.02303 4 5.832e-06 2 0 0.0994487 -0.275233
298 1 31.0296 3.97382 0.373364 4 1.43633e-06 2 0 0.0994487 0.657583
299 1 30.2046 4.67765 0.491317 4 7.81084e-06 2 0 0.0994487 0.00995849
300 1 30.9783 4.59929 1.41131 4 2.72604e-06 2 0 0.0994487 0.679914
301 1 0.908283 5.53205 0.461647 4 2.28774e-16 2 0 0.0994487 -0.463785
302 1 1.53161 5.51184 1.37971 4 7.32893e-16 2 0 0.0994487 -0.117387
303 1 0.793684 6.22023 1.2768 4 2.64013e-16 2 0 0.0994487 -0.703381
304 1 0.257003 6.91734 1.50738 4 1.19569e-16 2 0 0.0994487 -0.772633
305 1 0.969942 6.9454 0.573423 4 5.81894e-16 2 0 0.0994487 -0.473533
306 1 1.7053 7.02884 1.23811 4 2.46578e-15 2 0 0.0994487 0.0665176
307 1 1.89588 6.19966 0.519025 4 2.50511e-15 2 0 0.0994487 -0.1564
308 1 3.10475 5.61709 1.30057 4 1.83576e-14 2 0 0.0994487 0.0402519
309 1 2.26359 6.15348 1.40977 4 4.37298e-15 2 0 0.0994487 0.0408556
310 1 3.25442 6.96226 1.12748 4 5.98494e-14 2 0 0.0994487 -0.0541243
311 1 2.68177 5.61289 0.273587 4 7.69048e-15 2 0 0.0994487 -0.0596861
312 1 3.39503 6.28191 0.500536 4 5.32859e-14 2 0 0.0994487 -0.121445
313 1 4.18979 5.46246 0.325783 4 1.25667e-13 2 0 0.0994487 0.0310168
314 1 4.93434 5.42873 1.31778 4 5.81796e-13 2 0 0.0994487 -0.235101
315 1 4.13622 6.09659 1.22779 4 2.08987e-13 2 0 0.0994487 -0.0893899
316 1 4.82567 6.23357 0.333842 4 7.03401e-13 2 0 0.0994487 -0.0345768
317 1 4.77312 6.79931 1.15967 4 1.1421e-12 2 0 0.0994487 -0.305932
318 1 4.00267 7.02511 0.221759 4 2.32622e-13 2 0 0.0994487 -0.0853446
319 1 5.78575 5.42185 0.301847 4 2.18323e-12 2 0 0.0994487 0.0125011
320 1 5.6935 6.24342 0.9632 4 4.02537e-12 2 0 0.0994487 -0.967785
321 1 6.4578 5.98425 1.59671 4 1.21429e-11 2 0 0.0994487 0.140913
322 1 6.43234 6.86927 1.00965 4 2.43421e-11 2 0 0.0994487 0.851673
323 1 6.37773 6.04115 0.154639 4 7.98966e-12 2 0 0.0994487 0.111111
324 1 5.54993 7.05206 0.147147 4 3.77274e-12 2 0 0.0994487 0.0363858
325 1 8.21355 5.31419 0.694273 4 1.79369e-10 2 0 0.0994487 -0.0895986
326 1 7.32761 6.15925 0.754293 4 6.86538e-11 2 0 0.0994487 0.225728
327 1 7.39163 5.41839 1.49138 4 4.36772e-11 2 0 0.0994487 0.136751
328 1 8.23884 6.11028 1.49159 4 3.31944e-10 2 0 0.0994487 0.0187344
329 1 8.01352 6.85364 0.728993 4 3.71236e-10 2 0 0.0994487 0.0691829
330 1 7.28191 6.86379 1.59601 4 1.06129e-10 2 1 0.0994487 0.126049
331 1 7.33029 5.3575 0.0461812 4 2.69347e-11 2 0 0.0994487 0.0813556
332 1 9.76796 5.3194 0.792562 4 2.32586e-09 2 0 0.0994487 0.328435
333 1 8.88016 6.18865 0.736908 4 1.0616e-09 2 0 0.0994487 -0.235549
334 1 9.05434 5.3271 1.5973 4 7.17971e-10 2 0 0.0994487 -0.0628335
335 1 9.73844 6.19052 1.46731 4 4.44149e-09 2 0 0.0994487 -0.106459
336 1 9.09351 6.95013 1.463 4 2.90065e-09 2 2 0.0994487 -0.0759129
337 1 9.76329 6.23201 0.0941385 4 3.50814e-09 2 0 0.0994487 -0.035954
338 1 8.99733 5.46479 0.012702 4 5.1729e-10 2 0 0.0994487 -0.134755
339 1 10.5831 6.02196 0.964384 4 1.53582e-08 2 0 0.0994487 -0.356429
340 1 11.3128 6.37134 0.0776634 4 3.76647e-08 2 0 0.0994487 0.100338
341 1 10.5187 6.94145 0.15452 4 1.77633e-08 2 0 0.0994487 -0.073538
342 1 10.4686 6.92564 1.49614 4 2.5534e-08 2 1 0.0994487 -0.0636968
343 1 11.9994 5.6274 0.183157 4 8.20203e-08 2 0 0.0994487 -0.0105356
344 1 12.6757 5.81849 0.861776 4 3.34061e-07 2 0 0.0994487 0.0817219
345 1 11.7774 6.20735 1.05291 4 1.1018e-07 2 0 0.0994487 0.292194
346 1 13.3219 5.86668 1.55471 4 8.19536e-07 2 0 0.0994487 0.20816
347 1 13.3506 6.58297 0.813679 4 1.58993e-06 2 0 0.0994487 -0.292135
348 1 13.3212 5.53867 0.0424813 4 5.7569e-07 2 0 0.0994487 -0.142916
349 1 14.0617 5.71565 0.77266 4 2.28264e-06 2 0 0.0994487 -0.372763
350 1 14.3278 6.65176 1.40646 4 7.50288e-06 2 1 0.0994487 -0.103213
351 1 14.1303 6.38483 0.0380077 4 2.9141e-06 2 0 0.0994487 -0.0826156
352 1 15.0282 5.64393 0.034369 4 5.98543e-06 2 0 0.0994487 0.0573578
353 1 15.8305 5.73813 0.95832 4 2.31416e-05 2 0 0.0994487 0.625759
354 1 15.0472 6.45091 0.806774 4 1.53913e-05 2 0 0.0994487 -0.176103
355 1 16.491 6.45257 1.1401 4 9.60942e-05 2 0 0.0994487 0.208273
356 1 15.1058 5.87594 1.69804 4 1.05497e-05 2 0 0.0994487 -0.0976649
357 1 16.62 5.41933 0.276819 4 3.83366e-05 2 0 0.0994487 0.0799157
358 1 15.6753 6.3382 0.0390223 4 2.32942e-05 2 0 0.0994487 0.039845
359 1 17.8271 5.30128 0.541411 4 0.000141683 2 0 0.0994487 0.150322
360 1 17.113 5.42499 1.24767 4 8.30616e-05 2 0 0.0994487 -0.286585
361 1 17.0619 6.27419 0.411469 4 0.000139873 2 0 0.0994487 0.138942
362 1 17.6649 6.24649 1.38542 4 0.000305164 2 0 0.0994487 -0.254268
363 1 18.2745 7.0517 1.13153 4 0.0011031 2 1 0.0994487 0.630783
364 1 18.3714 6.23173 0.609762 4 0.000624678 2 0 0.0994487 0.156177
365 1 19.429 5.75829 0.62055 4 0.00123294 2 0 0.0994487 0.0571842
366 1 19.3279 6.55755 1.35081 4 0.00254661 2 1 0.0994487 0.27472
367 1 19.9942 6.75229 0.610261 4 0.00526194 2 0 0.0994487 -0.0119156
368 1 20.7494 5.77593 0.653722 4 0.00392144 2 0 0.0994487 -0.104068
369 1 20.1931 5.61076 1.39557 4 0.00228957 2 0 0.0994487 0.312018
370 1 20.7787 6.6124 1.30355 4 0.0109936 2 1 0.0994487 -0.344536
371 1 21.6592 6.66248 0.666524 4 0.0148357 2 0 0.0994487 -0.0435063
372 1 21.6631 5.87866 1.38528 4 0.0084675 2 0 0.0994487 0.0420922
373 1 21.6904 5.73259 0.0517844 4 0.00457411 2 0 0.0994487 -0.00150164
374 1 22.6732 5.8279 0.674154 4 0.00859576 2 0 0.0994487 0.00265683
375 1 22.6319 6.69333 1.20734 4 0.0253812 2 1 0.0994487 -0.202049
376 1 23.3484 6.78052 0.267835 4 0.0183893 2 0 0.0994487 -0.125382
377 1 23.4822 5.88496 1.30013 4 0.0108049 2 0 0.0994487 -0.176408
378 1 24.3197 6.56281 1.15825 4 0.0152001 2 0 0.0994487 0.1735
379 1 24.1457 6.00685 0.427617 4 0.00807837 2 0 0.0994487 0.0024375
380 1 25.6831 5.86213 0.700952 4 0.00310349 2 0 0.0994487 0.163896
381 1 25.1124 6.04132 1.67733 4 0.00578909 2 0 0.0994487 0.00366815
382 1 25.1593 6.74159 0.495153 4 0.00898658 2 0 0.0994487 0.0903905
383 1 25.8251 6.59457 1.40775 4 0.00544162 2 0 0.0994487 0.088101
384 1 26.6903 5.84511 1.4763 4 0.00137145 2 0 0.0994487 0.0917615
385 1 27.4966 5.54334 0.722172 4 0.000439228 2 0 0.0994487 -0.251572
386 1 26.7485 6.36567 0.651888 4 0.00190034 2 0 0.0994487 0.0387505
387 1 27.7011 6.47315 1.36539 4 0.00079733 2 0 0.0994487 0.131493
388 1 28.3648 5.52203 1.4872 4 0.000163303 2 0 0.0994487 0.0456334
389 1 27.7097 7.0074 0.530173 4 0.00104641 2 0 0.0994487 0.0321239
390 1 29.3889 5.30889 0.818726 4 4.16065e-05 2 0 0.0994487 0.316726
391 1 29.4379 6.18214 1.32212 4 7.07232e-05 2 0 0.0994487 -0.00338073
392 1 29.5784 6.89773 0.506505 4 9.17081e-05 2 0 0.0994487 0.092587
393 1 28.4685 6.20589 0.638647 4 0.000242871 2 0 0.0994487 -0.270081
394 1 29.3762 6.15398 0.0801838 4 6.18555e-05 2 0 0.0994487 0.0969264
395 1 28.4822 5.38976 0.0592959 4 9.52512e-05 2 0 0.0994487 -0.105003
396 1 30.9636 5.36838 0.595026 4 5.70919e-06 2 0 0.0994487 0.667849
397 1 30.2159 5.45949 1.46813 4 1.43387e-05 2 0 0.0994487 0.0540216
398 1 30.3958 6.18258 0.649752 4 2.11362e-05 2 0 0.0994487 0.329001
399 1 31.2189 6.15516 1.38439 4 6.56182e-06 2 0 0.0994487 0.587258
400 1 31.1994 6.95407 0.60342 4 1.13412e-05 2 0 0.0994487 0.812252
401 1 31.7235 5.99622 0.446564 4 3.16772e-06 2 0 0.0994487 0.879729
402 1 0.261851 7.63199 0.661866 4 1.98513e-16 2 0 0.0994487 -0.876374
403 1 0.831025 8.46344 0.61936 4 8.17016e-16 2 0 0.0994487 -0.577626
404 1 1.11211 7.86396 1.49711 4 9.77512e-16 2 0 0.0994487 -0.154429
405 1 0.356955 8.5626 1.47035 4 2.95185e-16 2 0 0.0994487 -0.764984
406 1 1.59266 7.76478 0.37187 4 2.8186e-15 2 0 0.0994487 -0.0897881
407 1 1.72382 8.61735 1.46471 4 4.83526e-15 2 0 0.0994487 0.0395966
408 1 2.48799 7.14986 0.476331 4 1.41884e-14 2 0 0.0994487 -0.0836967
409 1 2.19177 8.6335 0.399707 4 1.31598e-14 2 0 0.0994487 -0.137268
410 1 2.39416 7.81099 1.27726 4 1.52544e-14 2 0 0.0994487 0.0869916
411 1 3.01349 8.51445 0.935533 4 7.22311e-14 2 0 0.0994487 -0.539315
412 1 3.24418 7.77117 0.327041 4 7.9498e-14 2 0 0.0994487 -0.196205
413 1 3.81243 8.45898 0.0822892 4 2.55312e-13 2 0 0.0994487 -0.0457789
414 1 3.97971 7.67009 1.24863 4 3.55274e-13 2 0 0.0994487 -0.0554898
415 1 4.70459 8.25653 0.921772 4 1.89845e-12 2 0 0.0994487 0.295329
416 1 4.67023 7.63706 0.247803 4 1.11862e-12 2 0 0.0994487 0.037691
417 1 3.81127 8.34851 1.76162 4 2.56696e-13 2 0 0.0994487 -0.0574363
418 1 5.86955 8.34822 0.169905 4 1.25954e-11 2 0 0.0994487 0.113105
419 1 5.48363 7.59071 1.03232 4 6.69079e-12 2 0 0.0994487 -0.467667
420 1 6.49365 7.53799 0.169175 4 2.85802e-11 2 0 0.0994487 0.187623
421 1 6.39674 8.23976 1.04384 4 5.16346e-11 2 0 0.0994487 0.338155
422 1 7.28583 7.76918 0.746313 4 1.88391e-10 2 1 0.0994487 0.0099365
423 1 8.2859 8.31376 0.868772 4 1.53715e-09 2 2 0.0994487 0.278503
424 1 7.27857 8.18368 1.7015 4 3.04821e-10 2 2 0.0994487 -0.174712
425 1 8.05208 7.48784 1.5604 4 6.83293e-10 2 1 0.0994487 0.18501
426 1 7.99895 7.60312 0.0282118 4 3.39437e-10 2 0 0.0994487 0.0674123
427 1 9.84313 7.22199 0.72344 4 1.05506e-08 2 1 0.0994487 -0.346981
428 1 8.91207 7.61626 0.661731 4 2.83419e-09 2 1 0.0994487 0.158594
429 1 9.73234 8.61964 0.693151 4 1.85618e-08 2 3 0.0994487 -0.257332
430 1 9.09265 8.69904 1.44495 4 9.18639e-09 2 9 0.0994487 -0.398669
431 1 9.64026 7.88932 1.60055 4 1.56125e-08 2 8 0.0994487 -0.341575
432 1 11.3161 7.14287 0.810636 4 1.00056e-07 2 1 0.0994487 0.448409
433 1 10.5731 7.9454 0.844311 4 5.26082e-08 2 3 0.0994487 -0.198502
434 1 10.5877 8.70196 1.4255 4 9.56061e-08 1 8 0.0994487 -0.144933
435 1 11.4057 7.80503 1.60301 4 2.19976e-07 2 7 0.0994487 0.229297
436 1 11.227 8.11851 0.0422735 4 9.02082e-08 2 0 0.0994487 0.174298
437 1 12.7061 7.28322 0.565784 4 9.25674e-07 2 0 0.0994487 -0.053107
438 1 12.178 8.23518 0.590765 4 6.67248e-07 2 2 0.0994487 0.164231