ITEM: TIMESTEP
35000
ITEM: NUMBER OF ATOMS
9495
ITEM: BOX BOUNDS mm mm mm
0.0000000000000000e+00 3.1748021039364001e+01
0.0000000000000000e+00 3.1748021039364001e+01
-7.4072398406925706e-04 3.1748021039364001e+01
ITEM: ATOMS id type x y z c_phase c_temp c_surf c_nbond c_visc f_3[1]
1 1 0.116341 1.10259 0.464337 4 5.52247e-05 2 0 0.0994487 -0.68194
2 1 0.974108 1.6685 0.77798 4 8.37232e-05 2 0 0.0994487 -0.517031
3 1 0.714648 0.793562 1.41295 4 6.32574e-05 2 0 0.0994487 -0.281794
4 1 0.00336375 1.60273 1.37437 4 6.06647e-05 2 0 0.0994487 -0.804051
5 1 0.729896 0.0633724 0.61602 4 5.08457e-05 3 0 0.0994487 -0.190374
6 1 1.71015 0.808983 1.0155 4 9.97077e-05 2 0 0.0994487 -0.332069
7 1 1.80059 1.47468 0.221075 4 0.000108709 2 0 0.0994487 -0.125829
8 1 1.82015 1.66049 1.76126 4 0.000117335 2 0 0.0994487 -0.139533
9 1 2.52093 0.749102 0.203812 4 0.000132907 2 0 0.0994487 -0.142939
10 1 2.59149 0.0538711 1.03726 4 0.000131298 2 0 0.0994487 -0.295004
11 1 2.64922 1.541 0.882848 4 0.000166844 2 0 0.0994487 0.235758
12 1 2.66829 0.815502 1.7457 4 0.000149146 2 0 0.0994487 -0.18704
13 1 3.43386 0.933692 0.956349 4 0.000221906 2 0 0.0994487 0.320244
14 1 3.49924 0.0925696 1.70571 4 0.000181996 2 0 0.0994487 0.178054
15 1 3.60652 1.70798 1.71994 4 0.000280057 2 0 0.0994487 0.0487958
16 1 4.10576 0.858321 0.325305 4 0.000307707 2 0 0.0994487 0.153147
17 1 4.96159 0.56786 1.17466 4 0.000502081 2 0 0.0994487 -0.0370657
18 1 4.91949 1.59987 0.383508 4 0.000578568 2 0 0.0994487 -0.100247
19 1 4.3472 0.941527 1.62884 4 0.000362547 2 0 0.0994487 0.110739
20 1 3.47612 0.111428 0.171027 4 0.00017431 2 0 0.0994487 0.166216
21 1 5.64741 0.645627 0.325839 4 0.000714711 2 0 0.0994487 -0.0806039
22 1 5.88414 1.31048 0.938036 4 0.000882165 2 0 0.0994487 -0.199576
23 1 6.57478 1.39104 0.218369 4 0.0012251 2 0 0.0994487 -0.0861321
24 1 5.78374 0.460658 1.69897 4 0.000725698 2 0 0.0994487 -0.0846515
25 1 5.03122 1.72414 1.43602 4 0.000611761 2 0 0.0994487 0.0453737
26 1 6.7138 0.39031 0.865278 4 0.00113709 2 0 0.0994487 -0.0793806
27 1 6.69104 1.00962 1.69374 4 0.00117995 2 0 0.0994487 -0.107922
28 1 8.2679 0.408875 1.07337 4 0.0021157 2 0 0.0994487 -0.100165
29 1 7.36782 1.22285 0.954198 4 0.00167561 2 0 0.0994487 -0.302544
30 1 8.24709 1.39092 0.236779 4 0.00244211 2 0 0.0994487 -0.0460623
31 1 8.12868 1.27217 1.60653 4 0.00223121 2 0 0.0994487 -0.00811509
32 1 7.58247 0.647807 0.140287 4 0.00167846 2 0 0.0994487 -0.110935
33 1 8.85849 0.508506 0.273966 4 0.00266725 2 0 0.0994487 -0.061645
34 1 9.55301 0.3386 0.888639 4 0.0033743 2 0 0.0994487 0.00506583
35 1 9.02586 1.30716 1.1133 4 0.00325389 2 0 0.0994487 -0.0606387
37 1 9.63995 1.37474 0.0900752 4 0.00392218 2 0 0.0994487 0.0992927
38 1 11.2128 0.215893 0.632658 4 0.0060943 2 0 0.0994487 0.203505
39 1 10.3637 1.04743 0.823114 4 0.00499683 2 0 0.0994487 0.539892
40 1 10.523 0.196295 1.44539 4 0.00470841 2 0 0.0994487 0.0644301
41 1 11.2856 1.01846 1.41785 4 0.00732866 2 0 0.0994487 0.164711
42 1 10.5797 1.67706 1.72992 4 0.00627758 2 0 0.0994487 0.118166
43 1 10.2431 0.367861 0.0780499 4 0.00401747 2 0 0.0994487 0.149802
44 1 12.8757 0.211714 0.636805 4 0.0117453 2 0 0.0994487 0.0587896
45 1 12.0457 1.07408 0.506655 4 0.0101387 2 0 0.0994487 -0.0235483
46 1 12.1319 0.316439 1.29957 4 0.00925845 2 0 0.0994487 0.018839
47 1 12.7194 1.19864 1.3723 4 0.0132664 2 0 0.0994487 -0.0305236
48 1 14.3729 0.318493 0.764646 4 0.0190351 2 0 0.0994487 -0.0460369
49 1 13.5924 1.113 0.843618 4 0.0175783 2 0 0.0994487 -0.263047
50 1 14.0399 1.55958 0.167469 4 0.0216872 2 0 0.0994487 -0.0898235
51 1 13.6075 0.359834 1.6352 4 0.0151871 2 0 0.0994487 -0.0562618
52 1 14.3777 1.14948 1.47647 4 0.0211324 2 0 0.0994487 -0.0178254
53 1 14.8761 1.55337 0.662943 4 0.0260387 2 0 0.0994487 0.389952
54 1 15.7061 0.770636 0.788259 4 0.0276494 2 0 0.0994487 0.366486
55 1 16.5532 1.54451 0.681338 4 0.0406896 2 0 0.0994487 0.000807166
56 1 15.1422 0.4642 1.64149 4 0.0225724 2 0 0.0994487 0.152079
57 1 16.547 0.712289 1.3421 4 0.0350814 2 0 0.0994487 0.0956277
58 1 15.6341 1.48544 1.3916 4 0.0312373 2 0 0.0994487 0.153634
59 1 15.1049 0.711806 0.0677822 4 0.0225706 2 0 0.0994487 0.169204
60 1 17.2544 0.732268 0.547589 4 0.0412371 2 0 0.0994487 0.0286305
61 1 17.9231 1.58109 0.757246 4 0.0542501 2 0 0.0994487 0.0415636
62 1 17.916 0.742935 1.42801 4 0.0477985 2 0 0.0994487 -0.224377
63 1 17.2202 1.74884 1.56274 4 0.0501702 2 0 0.0994487 -0.0984829
64 1 19.5372 0.0167772 0.662766 4 0.0513414 2 0 0.0994487 0.0436437
65 1 18.7918 0.725074 0.684829 4 0.0528671 2 0 0.0994487 -0.269945
66 1 19.5395 1.55488 0.841653 4 0.0662006 2 0 0.0994487 -0.341162
67 1 19.0276 0.158607 1.54508 4 0.0505762 2 0 0.0994487 -0.158664
68 1 19.5934 0.967491 1.68957 4 0.0589795 2 0 0.0994487 0.00835055
69 1 18.6564 1.51302 1.50035 4 0.0599516 2 0 0.0994487 -0.250308
70 1 21.0889 0.349843 1.06749 4 0.0597202 2 0 0.0994487 -0.196127
71 1 20.2493 0.776373 0.980057 4 0.0605282 2 0 0.0994487 -0.0497623
72 1 21.1062 1.65725 0.951506 4 0.0728766 2 0 0.0994487 0.692911
73 1 21.1874 0.765598 0.218806 4 0.0619538 2 0 0.0994487 -0.0445914
74 1 20.3457 1.51479 0.193617 4 0.0687428 2 0 0.0994487 -0.080603
75 1 22.0087 0.262534 0.539755 4 0.0596555 2 0 0.0994487 0.0993587
76 1 22.7913 0.430275 1.40734 4 0.0609765 2 0 0.0994487 0.206599
77 1 22.1105 1.14763 1.32981 4 0.0668226 2 0 0.0994487 0.240021
78 1 21.9982 1.59955 0.538558 4 0.0734862 2 0 0.0994487 0.185171
79 1 22.9157 1.07463 0.445168 4 0.0661026 2 0 0.0994487 0.0520835
80 1 24.228 0.380179 1.45209 4 0.0587561 2 0 0.0994487 0.057616
81 1 23.5672 0.357563 0.57369 4 0.0599285 2 0 0.0994487 0.0385701
82 1 24.4367 1.18687 0.754729 4 0.0655707 2 0 0.0994487 -0.019298
83 1 23.4757 1.2499 1.4028 4 0.0688955 2 0 0.0994487 0.0298759
84 1 24.955 0.315686 0.551996 4 0.0548599 2 0 0.0994487 -0.0171995
85 1 26.0085 0.383365 1.1715 4 0.0485258 2 0 0.0994487 -0.18586
86 1 25.169 1.12579 1.48087 4 0.061314 2 0 0.0994487 0.0251041
87 1 25.9301 1.73476 1.35794 4 0.0633228 2 0 0.0994487 0.0345347
88 1 25.8917 0.929212 0.432102 4 0.0530435 2 0 0.0994487 -0.0954206
89 1 27.5736 1.28032 0.38906 4 0.0432176 2 0 0.0994487 0.0454488
90 1 27.6142 0.50928 0.874321 4 0.0392044 2 0 0.0994487 0.175387
91 1 26.7559 1.02809 1.26347 4 0.0471125 2 0 0.0994487 -0.236888
92 1 28.3748 0.337482 1.39813 4 0.0334939 2 0 0.0994487 0.00984389
93 1 26.7925 0.240345 0.226621 4 0.0421452 2 0 0.0994487 0.0380744
94 1 28.6489 1.24263 0.742341 4 0.036275 2 0 0.0994487 0.102405
95 1 29.3912 0.945639 1.56878 4 0.0302449 2 0 0.0994487 -0.0192011
96 1 28.5228 1.71921 1.49749 4 0.0395969 2 0 0.0994487 -0.0429815
97 1 29.8133 0.173958 1.46124 4 0.0260962 2 0 0.0994487 0.133416
98 1 29.2734 0.3547 0.615275 4 0.0284686 2 0 0.0994487 -0.0816815
99 1 31.5874 0.266128 1.25663 4 0.019612 3 0 0.0994487 0.830097
100 1 30.7016 0.49015 0.470738 4 0.0237663 2 0 0.0994487 0.354852
101 1 30.1009 1.19877 0.774133 4 0.0286383 2 0 0.0994487 0.210919
102 1 30.8649 0.971942 1.39386 4 0.0250347 2 0 0.0994487 0.703281
103 1 1.11081 2.43607 0.129285 4 9.58261e-05 2 0 0.0994487 -0.0373221
104 1 0.133403 2.3821 0.812241 4 7.61081e-05 2 0 0.0994487 -0.984517
105 1 1.28845 3.23764 0.949187 4 0.000133 2 0 0.0994487 0.222095
106 1 1.13977 2.36077 1.59162 4 0.000103428 2 0 0.0994487 -0.222189
107 1 0.386685 3.02999 1.54944 4 9.47941e-05 2 0 0.0994487 -0.671256
108 1 0.332248 3.09582 0.131296 4 8.9823e-05 2 0 0.0994487 -0.59134
109 1 1.90972 2.41867 0.78376 4 0.000140986 2 0 0.0994487 0.0782102
110 1 2.65852 3.28029 0.860875 4 0.00026355 2 0 0.0994487 0.0668056
111 1 2.66931 2.22918 1.53373 4 0.000196244 2 0 0.0994487 0.0829559
112 1 3.2579 3.42668 1.64938 4 0.00037278 2 0 0.0994487 0.00397606
113 1 2.7261 2.38168 0.0557193 4 0.000186183 2 0 0.0994487 0.146601
114 1 3.38195 2.55413 0.779289 4 0.000308787 2 0 0.0994487 0.211585
115 1 4.00679 1.841 0.711184 4 0.000371008 2 0 0.0994487 -0.0361216
116 1 4.91383 2.57277 0.815661 4 0.000719873 2 0 0.0994487 -0.259346
117 1 4.20148 3.3175 0.749446 4 0.000604098 2 0 0.0994487 0.00621733
118 1 4.13245 2.64107 1.58328 4 0.000478725 2 0 0.0994487 0.0270789
119 1 5.65047 2.44269 0.132743 4 0.000991562 2 0 0.0994487 -0.189924
120 1 6.55776 2.18062 0.772597 4 0.00142098 2 0 0.0994487 -0.289371
121 1 5.64874 3.19593 0.952489 4 0.00120289 2 0 0.0994487 -0.754628
122 1 5.861 2.19426 1.49672 4 0.00101641 2 0 0.0994487 0.0126373
123 1 6.52037 3.06691 1.5557 4 0.00171098 2 0 0.0994487 0.0443594
124 1 6.65033 2.92778 0.134227 4 0.00166091 2 0 0.0994487 0.0288882
125 1 7.45405 2.22586 0.139832 4 0.00209838 2 0 0.0994487 -0.0535006
126 1 8.08209 2.20208 0.930382 4 0.00277505 2 0 0.0994487 -0.302058
127 1 7.40132 3.06835 0.934051 4 0.0025804 2 0 0.0994487 -0.0455005
128 1 7.29928 2.06035 1.56856 4 0.00189234 2 0 0.0994487 -0.060731
129 1 8.18545 3.00183 1.65211 4 0.00353835 2 0 0.0994487 -0.0454139
130 1 8.26934 2.9712 0.0392146 4 0.00363973 2 0 0.0994487 -0.150615
131 1 8.90393 2.08699 0.252387 4 0.00365269 2 0 0.0994487 0.00243556
132 1 9.77243 2.0246 1.10996 4 0.00507535 2 0 0.0994487 0.173473
133 1 8.92671 2.97262 0.928693 4 0.00483191 2 0 0.0994487 -0.156739
134 1 9.03062 2.22066 1.70398 4 0.00403045 2 0 0.0994487 -0.081966
135 1 9.56096 2.90576 0.21312 4 0.00578937 2 0 0.0994487 0.173123
136 1 10.2834 2.1137 0.214297 4 0.0057917 2 0 0.0994487 0.337741
137 1 11.1583 1.82604 0.771092 4 0.00826309 2 0 0.0994487 0.260094
138 1 10.6214 2.80819 0.921535 4 0.00885301 2 0 0.0994487 0.541927
139 1 11.4444 2.82964 1.57484 4 0.0124537 2 0 0.0994487 0.0952034
140 1 12.6737 1.94118 0.593851 4 0.0158219 2 0 0.0994487 -0.283929
141 1 11.928 2.64099 0.742299 4 0.014211 2 0 0.0994487 -0.038669
142 1 11.9239 1.9206 1.46509 4 0.011553 2 0 0.0994487 0.0946573
143 1 12.8449 3.01766 1.68597 4 0.0214248 2 0 0.0994487 0.0363593
144 1 13.1791 3.03035 0.848852 4 0.0243742 2 0 0.0994487 -0.440847
145 1 13.3784 1.9912 1.48064 4 0.0194382 2 0 0.0994487 -0.0150679
146 1 14.0206 2.44438 0.927124 4 0.026554 2 0 0.0994487 -0.133088
147 1 14.0279 3.38359 1.55716 4 0.0342661 2 0 0.0994487 0.0255771
148 1 14.6961 3.43698 0.884932 4 0.0422791 2 0 0.0994487 -0.332943
149 1 14.7823 2.29758 1.44821 4 0.0309699 2 0 0.0994487 0.0469291
150 1 14.8418 2.51505 0.136557 4 0.0331191 2 0 0.0994487 0.173007
151 1 14.1591 3.2262 0.0325348 4 0.0342884 2 0 0.0994487 -0.246104
152 1 13.4137 2.29398 0.0590902 4 0.021767 2 0 0.0994487 -0.28096
153 1 15.6993 2.44373 0.692668 4 0.0408998 2 0 0.0994487 0.364396
154 1 16.3029 3.20095 0.662084 4 0.0578197 2 0 0.0994487 0.32859
155 1 16.308 2.47951 1.52575 4 0.0489656 2 0 0.0994487 -0.100646
156 1 15.3694 3.25723 1.50191 4 0.048022 2 0 0.0994487 -0.00766751
157 1 15.5706 3.25854 0.0192499 4 0.0470672 2 0 0.0994487 0.290238
158 1 17.0646 2.35032 0.682778 4 0.0553617 2 0 0.0994487 0.0234819
159 1 17.944 2.92608 0.699539 4 0.0782729 2 0 0.0994487 -0.231191
160 1 18.0193 2.43917 1.58112 4 0.0687196 2 0 0.0994487 -0.149135
161 1 17.0918 3.1162 1.49491 4 0.0696948 2 0 0.0994487 -0.143434
162 1 18.8908 2.35742 1.01358 4 0.075583 2 0 0.0994487 -0.516833
163 1 19.7027 3.2427 1.27782 4 0.102303 2 0 0.0994487 0.394877
164 1 18.884 2.99607 0.196019 4 0.0897006 2 0 0.0994487 -0.17181
165 1 19.587 2.34239 0.101452 4 0.0800416 2 0 0.0994487 -0.132371
166 1 20.3251 1.78863 1.72442 4 0.0713218 2 0 0.0994487 0.0449522
167 1 21.1565 2.41663 0.458355 4 0.088938 2 0 0.0994487 0.196187
168 1 20.1948 2.46882 1.11433 4 0.0847684 2 0 0.0994487 0.286737
169 1 21.31 3.29463 1.39314 4 0.119448 2 0 0.0994487 0.0777276
170 1 20.4222 2.99313 0.334941 4 0.0994357 2 0 0.0994487 0.186289
171 1 22.8719 2.07007 1.50872 4 0.0853522 2 0 0.0994487 -0.0221246
172 1 22.9717 2.60199 0.735523 4 0.103 2 0 0.0994487 0.133324
173 1 22.0961 2.49917 1.23787 4 0.0967782 2 0 0.0994487 0.186436
174 1 21.9898 3.20043 0.598797 4 0.122629 2 0 0.0994487 -0.0757516
175 1 22.6771 3.40124 0.07601 4 0.133294 2 0 0.0994487 0.0760731
176 1 23.7438 1.80844 0.624025 4 0.077433 2 0 0.0994487 -0.0873605
177 1 24.4289 1.98763 1.61102 4 0.079314 2 0 0.0994487 -0.0641764
178 1 24.342 2.68296 0.775192 4 0.0973482 2 0 0.0994487 -0.341094
179 1 23.6887 2.90303 1.53628 4 0.108831 2 0 0.0994487 -0.110506
180 1 24.4728 3.51078 1.55704 4 0.127225 2 0 0.0994487 -0.118306
181 1 24.9562 2.84566 0.0146836 4 0.0945208 2 0 0.0994487 -0.0864598
182 1 26.5483 1.79415 0.511367 4 0.0573071 2 0 0.0994487 -0.00560112
183 1 25.1322 1.85613 0.509414 4 0.0722929 2 0 0.0994487 -0.02153
184 1 25.7918 2.61203 0.707489 4 0.0826437 2 0 0.0994487 0.2282
185 1 25.1579 2.55548 1.52547 4 0.0877764 2 0 0.0994487 0.0576659
186 1 25.7213 3.49812 1.51211 4 0.111162 2 0 0.0994487 0.123856
187 1 26.5364 2.56002 1.53049 4 0.0711522 2 0 0.0994487 0.0579466
188 1 26.1686 3.50068 0.599043 4 0.10344 2 0 0.0994487 0.168844
189 1 27.5039 1.98546 1.23792 4 0.0500948 2 0 0.0994487 -0.18642
190 1 28.2489 2.09022 0.343734 4 0.0448268 2 0 0.0994487 -0.0177253
191 1 27.0867 2.6924 0.645359 4 0.0658256 2 0 0.0994487 -0.105602
192 1 27.1998 3.35397 1.41682 4 0.0780326 2 0 0.0994487 -0.0983297
193 1 28.2537 2.75799 1.20639 4 0.0522329 2 0 0.0994487 -0.418308
194 1 27.982 3.21993 0.326384 4 0.0616233 2 0 0.0994487 -0.125258
195 1 29.9568 1.80906 1.70764 4 0.0321816 2 0 0.0994487 0.183201
196 1 29.4477 2.04702 0.879698 4 0.0365572 2 0 0.0994487 -0.00708495
197 1 29.1956 2.6589 0.290703 4 0.0425352 2 0 0.0994487 -0.0578288
198 1 29.2495 3.2651 1.17365 4 0.0487098 2 0 0.0994487 0.118632
199 1 30.9114 1.98502 0.924207 4 0.0306965 2 0 0.0994487 0.967251
200 1 30.1815 2.71094 1.00186 4 0.0374602 2 0 0.0994487 0.67511
201 1 31.0247 3.35309 0.97101 4 0.0392217 2 0 0.0994487 0.998409
202 1 30.9865 2.69483 1.72648 4 0.0346373 2 0 0.0994487 0.578501
203 1 30.1092 3.25953 0.132205 4 0.0408185 2 0 0.0994487 -0.0443661
204 1 30.4116 1.90909 0.0255368 4 0.0308604 2 0 0.0994487 0.106045
205 1 31.1434 2.66402 0.0761253 4 0.0331209 2 0 0.0994487 0.70882
206 1 0.293831 3.78503 0.918557 4 0.000110725 2 0 0.0994487 -0.999347
207 1 0.143046 4.59443 0.482118 4 0.00012566 2 0 0.0994487 -0.784494
208 1 1.14036 4.67093 0.986638 4 0.000183606 2 0 0.0994487 -0.51675
209 1 0.0884667 5.26681 1.27761 4 0.0001462 2 0 0.0994487 -0.887458
210 1 1.04069 3.86421 0.0595682 4 0.00013325 2 0 0.0994487 0.0148882
211 1 1.84117 4.04604 0.847105 4 0.000217803 2 0 0.0994487 0.00827082
212 1 2.54049 4.85585 1.13748 4 0.000380872 2 0 0.0994487 -0.333845
213 1 2.64953 4.14475 0.20674 4 0.000339495 2 0 0.0994487 -0.0285716
214 1 1.89758 4.96895 0.278386 4 0.000285672 2 0 0.0994487 -0.153433
215 1 3.40771 4.86189 0.161635 4 0.000594445 2 0 0.0994487 -0.0163873
216 1 3.494 4.07675 0.885909 4 0.000512115 2 0 0.0994487 0.0268965
217 1 4.91235 4.00001 1.18344 4 0.00103683 2 0 0.0994487 0.0115168
218 1 4.04658 4.88002 1.14639 4 0.000825893 2 0 0.0994487 0.264492
219 1 4.26027 4.18509 0.149001 4 0.000779024 2 0 0.0994487 0.037739
220 1 5.00947 4.74001 0.341082 4 0.00131792 2 0 0.0994487 0.0765415
221 1 5.77735 3.9378 0.198707 4 0.00147305 2 0 0.0994487 0.0260167
222 1 6.48883 3.76611 0.772067 4 0.00201771 2 0 0.0994487 0.204557
223 1 5.68025 4.73638 1.02487 4 0.00187914 2 0 0.0994487 -0.621676
224 1 6.66321 4.5115 1.6428 4 0.00268591 2 0 0.0994487 0.158935
225 1 6.68072 5.1315 0.885352 4 0.00334578 2 0 0.0994487 0.206865
226 1 8.1982 3.892 0.700757 4 0.00477353 2 0 0.0994487 -0.369895
227 1 7.40842 4.46072 0.5468 4 0.00391576 2 0 0.0994487 -0.0252095
228 1 7.39886 3.87029 1.49684 4 0.0031988 2 0 0.0994487 0.10258
229 1 8.20004 4.61106 1.48677 4 0.00582035 2 0 0.0994487 -0.0118341
230 1 9.8976 3.57792 0.885667 4 0.00853514 2 0 0.0994487 0.59283
231 1 9.07913 4.56551 0.821335 4 0.00837074 2 0 0.0994487 -0.658529
232 1 9.86266 4.50302 0.126324 4 0.0104178 2 0 0.0994487 0.0958679
233 1 9.07829 3.76256 1.49819 4 0.00658383 2 0 0.0994487 -0.0708827
234 1 9.86881 4.3462 1.65532 4 0.0107784 2 0 0.0994487 -0.0856595
235 1 8.98541 3.86821 0.0631775 4 0.00637673 2 0 0.0994487 -0.138752
236 1 11.408 3.64493 0.778297 4 0.0156609 2 0 0.0994487 0.202072
237 1 10.5891 4.66652 0.906264 4 0.0153745 2 0 0.0994487 0.0451025
238 1 11.3867 4.69403 0.230734 4 0.0209631 2 0 0.0994487 -0.0498861
239 1 10.7059 3.56689 1.58785 4 0.0117829 2 0 0.0994487 -0.0448458
240 1 11.3652 4.3716 1.70545 4 0.0190782 2 0 0.0994487 -0.0798241
241 1 11.3894 5.27213 0.983682 4 0.0246801 2 0 0.0994487 -0.674462
242 1 10.5826 3.84888 0.176129 4 0.011617 2 0 0.0994487 0.210469
243 1 12.5168 3.57716 0.814749 4 0.0229883 2 0 0.0994487 -0.0105709
244 1 12.1916 4.55033 1.00021 4 0.0269258 2 0 0.0994487 0.105075
245 1 12.7362 4.99738 1.68903 4 0.0349467 2 0 0.0994487 0.191333
246 1 13.2258 4.67863 0.80017 4 0.039554 2 0 0.0994487 -0.00468469
247 1 12.6435 4.61885 0.0632315 4 0.0326029 2 0 0.0994487 -0.0335775
248 1 13.9891 4.12825 0.69648 4 0.0432668 2 0 0.0994487 -0.430174
249 1 13.4832 4.21781 1.59317 4 0.0366782 2 0 0.0994487 0.0820208
250 1 14.2046 5.11838 1.52001 4 0.0596888 2 0 0.0994487 -0.0289878
251 1 14.9402 5.01141 0.811699 4 0.0713784 2 0 0.0994487 -0.0526824
252 1 14.9642 4.4167 1.59432 4 0.060859 2 0 0.0994487 -0.0635606
253 1 14.1405 4.90647 0.0597868 4 0.0555275 2 0 0.0994487 -0.0856925
254 1 14.961 4.19423 0.096508 4 0.0554148 2 0 0.0994487 0.0322738
255 1 15.6685 4.06642 0.926277 4 0.0648708 2 0 0.0994487 0.872609
256 1 15.8798 4.77595 0.186426 4 0.0832212 2 0 0.0994487 0.16539
257 1 16.5936 4.58036 0.900182 4 0.0949786 2 0 0.0994487 -0.0789844
258 1 16.3184 3.95875 1.6903 4 0.0743547 2 0 0.0994487 -0.0433971
259 1 15.8111 5.05317 1.64084 4 0.0890212 2 0 0.0994487 0.0994993
260 1 17.2689 3.83372 0.811237 4 0.0894856 2 0 0.0994487 -0.345387
261 1 18.0864 4.48855 1.09806 4 0.122239 2 0 0.0994487 -0.612176
262 1 17.9525 3.63794 1.65602 4 0.0948021 2 0 0.0994487 -0.192807
263 1 17.4569 4.57727 0.0147963 4 0.110385 2 0 0.0994487 -0.0974113
264 1 18.1348 3.8547 0.0583493 4 0.102259 2 0 0.0994487 -0.120518
265 1 18.8779 3.70667 0.95022 4 0.108168 2 0 0.0994487 0.069217
266 1 18.8235 4.60949 0.361826 4 0.136521 2 0 0.0994487 0.115607
267 1 19.6906 4.67872 1.0803 4 0.164633 2 0 0.0994487 0.931522
268 1 18.7859 5.27693 1.20102 4 0.174262 2 0 0.0994487 0.599083
269 1 19.5987 3.76722 0.227421 4 0.11669 2 0 0.0994487 0.164268
270 1 20.4384 3.82188 1.23329 4 0.133885 2 0 0.0994487 0.32595
271 1 20.8846 4.71868 1.39403 4 0.20089 2 0 0.0994487 0.149056
272 1 21.5775 4.95128 0.810455 4 0.243034 2 0 0.0994487 -0.00375667
273 1 21.0824 3.93136 0.512408 4 0.148501 2 0 0.0994487 0.0883015
274 1 20.1339 4.78559 0.352846 4 0.181029 2 0 0.0994487 0.145585
275 1 22.8205 3.63186 1.42135 4 0.145206 2 0 0.0994487 -0.018401
276 1 21.9406 4.13318 1.31068 4 0.173677 2 0 0.0994487 0.0272024
277 1 22.4705 5.17735 1.27286 3 0.276509 2 0 0.0992822 0.0207046
278 1 22.6119 4.34705 0.510028 4 0.191463 2 0 0.0994487 -0.0221075
279 1 23.5735 3.63903 0.782677 4 0.144951 2 0 0.0994487 0.185555
280 1 24.336 4.32055 0.625018 4 0.179112 2 0 0.0994487 -0.150096
281 1 23.4679 4.54946 1.33355 4 0.207826 2 0 0.0994487 -0.0790574
282 1 24.8518 5.25716 0.566763 4 0.235567 2 0 0.0994487 0.040905
283 1 23.5518 5.06386 0.533607 3 0.253997 2 0 0.0994264 -0.0968905
284 1 25.0086 4.50055 1.62342 4 0.175286 2 0 0.0994487 -0.0421962
285 1 25.0629 3.68037 0.802132 4 0.128829 2 0 0.0994487 -0.18792
286 1 24.363 5.28843 1.43377 3 0.25653 2 0 0.0994117 -0.154711
287 1 25.6904 5.1389 1.34266 4 0.198429 2 0 0.0994487 0.210098
288 1 26.3575 4.29031 1.37159 4 0.1299 2 0 0.0994487 0.14948
289 1 26.5026 4.97257 0.640732 4 0.156507 2 0 0.0994487 0.0989652
290 1 25.5284 4.40089 0.388179 4 0.15512 2 0 0.0994487 0.0559466
291 1 27.3302 4.86961 1.40568 4 0.125357 2 0 0.0994487 0.00660839
292 1 27.9624 3.97641 1.10408 4 0.0789598 2 0 0.0994487 -0.309508
293 1 28.2771 4.73475 0.706344 4 0.0948075 2 0 0.0994487 -0.0812489
294 1 27.0674 4.04323 0.570038 4 0.101168 2 0 0.0994487 0.0120209
295 1 28.9321 3.77016 0.487204 4 0.0589824 2 0 0.0994487 -0.00703349
296 1 29.0873 4.52317 1.33085 4 0.0722518 2 0 0.0994487 0.0574846
297 1 29.9979 4.07209 1.02303 4 0.0520835 2 0 0.0994487 -0.275233
298 1 31.0296 3.97382 0.373364 4 0.0442606 2 0 0.0994487 0.657583
299 1 30.2046 4.67765 0.491317 4 0.0600851 2 0 0.0994487 0.00995782
300 1 30.9783 4.59929 1.41131 4 0.0520787 2 0 0.0994487 0.679914
301 1 0.908283 5.53205 0.461647 4 0.000212449 2 0 0.0994487 -0.463784
302 1 1.53161 5.51184 1.37971 4 0.000270561 2 0 0.0994487 -0.117386
303 1 0.793684 6.22023 1.2768 4 0.000245011 2 0 0.0994487 -0.703381
304 1 0.257003 6.91734 1.50738 4 0.000240759 2 0 0.0994487 -0.772633
305 1 0.969942 6.9454 0.573423 4 0.000312687 2 0 0.0994487 -0.473533
306 1 1.7053 7.02884 1.23811 4 0.00041357 2 0 0.0994487 0.0665186
307 1 1.89588 6.19966 0.519025 4 0.000384038 2 0 0.0994487 -0.156399
308 1 3.10475 5.61709 1.30057 4 0.000599534 2 0 0.0994487 0.0402536
309 1 2.26359 6.15348 1.40977 4 0.000435709 2 0 0.0994487 0.0408565
310 1 3.25442 6.96226 1.12748 4 0.00094837 2 0 0.0994487 -0.0541222
311 1 2.68177 5.61289 0.273587 4 0.000490117 2 0 0.0994487 -0.059685
312 1 3.39503 6.28191 0.500536 4 0.000877795 2 0 0.0994487 -0.121442
313 1 4.18979 5.46246 0.325783 4 0.00105765 2 0 0.0994487 0.031019
314 1 4.93434 5.42873 1.31778 4 0.00162967 2 0 0.0994487 -0.235098
315 1 4.13622 6.09659 1.22779 4 0.00125694 2 0 0.0994487 -0.0893874
316 1 4.82567 6.23357 0.333842 4 0.00183056 2 0 0.0994487 -0.0345744
317 1 4.77312 6.79931 1.15967 4 0.00212008 2 0 0.0994487 -0.305928
318 1 4.00267 7.02511 0.221759 4 0.00142686 2 0 0.0994487 -0.085343
319 1 5.78575 5.42185 0.301847 4 0.00234164 2 0 0.0994487 0.0125038
320 1 5.6935 6.24342 0.9632 4 0.0028673 2 0 0.0994487 -0.967784
321 1 6.4578 5.98425 1.59671 4 0.00376223 2 0 0.0994487 0.140916
322 1 6.43234 6.86927 1.00965 4 0.00477769 2 0 0.0994487 0.851682
323 1 6.37773 6.04115 0.154639 4 0.00345885 2 0 0.0994487 0.111114
324 1 5.54993 7.05206 0.147147 4 0.00307438 2 0 0.0994487 0.0363876
325 1 8.21355 5.31419 0.694273 4 0.00723573 2 0 0.0994487 -0.0895851
326 1 7.32761 6.15925 0.754293 4 0.0059873 2 0 0.0994487 0.225738
327 1 7.39163 5.41839 1.49138 4 0.00499536 2 0 0.0994487 0.136756
328 1 8.23884 6.11028 1.49159 4 0.00921657 2 0 0.0994487 0.0187407
329 1 8.01352 6.85364 0.728993 4 0.0103296 2 0 0.0994487 0.0691938
330 1 7.28191 6.86379 1.59601 4 0.00744699 2 1 0.0994487 0.126058
331 1 7.33029 5.3575 0.0461812 4 0.00454019 2 0 0.0994487 0.0813583
332 1 9.76796 5.3194 0.792562 4 0.013438 2 0 0.0994487 0.328459
333 1 8.88016 6.18865 0.736908 4 0.012447 2 0 0.0994487 -0.235535
334 1 9.05434 5.3271 1.5973 4 0.01037 2 0 0.0994487 -0.0628281
335 1 9.73844 6.19052 1.46731 4 0.0178286 2 0 0.0994487 -0.106494
336 1 9.09351 6.95013 1.463 4 0.017583 2 2 0.0994487 -0.0760565
337 1 9.76329 6.23201 0.0941385 4 0.0173677 2 0 0.0994487 -0.0359487
338 1 8.99733 5.46479 0.012702 4 0.0102554 2 0 0.0994487 -0.134752
339 1 10.5831 6.02196 0.964384 4 0.0229074 2 0 0.0994487 -0.356292
340 1 11.3128 6.37134 0.0776634 4 0.0298637 2 0 0.0994487 0.100344
341 1 10.5187 6.94145 0.15452 4 0.0275326 2 0 0.0994487 -0.0735275
342 1 10.4686 6.92564 1.49614 4 0.0292609 2 1 0.0994487 -0.0634525
343 1 11.9994 5.6274 0.183157 4 0.0318961 2 0 0.0994487 -0.0105278
344 1 12.6757 5.81849 0.861776 4 0.0433975 2 0 0.0994487 0.0817604
345 1 11.7774 6.20735 1.05291 4 0.0353385 2 0 0.0994487 0.292289
346 1 13.3219 5.86668 1.55471 4 0.0536831 2 0 0.0994487 0.208172
347 1 13.3506 6.58297 0.813679 4 0.0691987 2 0 0.0994487 -0.292095
348 1 13.3212 5.53867 0.0424813 4 0.0502887 2 0 0.0994487 -0.142908
349 1 14.0617 5.71565 0.77266 4 0.0674565 2 0 0.0994487 -0.372632
350 1 14.3278 6.65176 1.40646 4 0.0991749 2 1 0.0994487 -0.103108
351 1 14.1303 6.38483 0.0380077 4 0.0786552 2 0 0.0994487 -0.0826085
352 1 15.0282 5.64393 0.034369 4 0.0846674 2 0 0.0994487 0.057365
353 1 15.8305 5.73813 0.95832 4 0.11193 2 0 0.0994487 0.625781
354 1 15.0472 6.45091 0.806774 4 0.111907 2 0 0.0994487 -0.176049
355 1 16.491 6.45257 1.1401 4 0.168046 2 0 0.0994487 0.207591
356 1 15.1058 5.87594 1.69804 4 0.099477 2 0 0.0994487 -0.0976731
357 1 16.62 5.41933 0.276819 4 0.11954 2 0 0.0994487 0.0799196
358 1 15.6753 6.3382 0.0390223 4 0.121841 2 0 0.0994487 0.0398518
359 1 17.8271 5.30128 0.541411 4 0.145693 2 0 0.0994487 0.150323
360 1 17.113 5.42499 1.24767 4 0.136543 2 0 0.0994487 -0.28658
361 1 17.0619 6.27419 0.411469 4 0.17305 2 0 0.0994487 0.138903
362 1 17.6649 6.24649 1.38542 4 0.200092 2 0 0.0994487 -0.255981
363 1 18.2745 7.0517 1.13153 3 0.283808 2 0 0.0992281 0.658946
364 1 18.3714 6.23173 0.609762 4 0.223528 2 0 0.0994487 0.156195
365 1 19.429 5.75829 0.62055 4 0.231077 2 0 0.0994487 0.0571814
366 1 19.3279 6.55755 1.35081 3 0.299368 2 0 0.0990988 0.278642
367 1 19.9942 6.75229 0.610261 3 0.376334 2 0 0.0980665 -0.0120663
368 1 20.7494 5.77593 0.653722 3 0.302659 2 0 0.0990688 -0.10407
369 1 20.1931 5.61076 1.39557 3 0.254018 2 0 0.0994263 0.312036
370 1 20.7787 6.6124 1.30355 3 0.431517 2 0 0.0966713 -0.344159
371 1 21.6592 6.66248 0.666524 3 0.453664 2 0 0.0958668 -0.0434666
372 1 21.6631 5.87866 1.38528 3 0.36345 2 0 0.0982978 0.0420261
373 1 21.6904 5.73259 0.0517844 3 0.323362 2 0 0.0988561 -0.00150241
374 1 22.6732 5.8279 0.674154 3 0.351444 2 0 0.0984887 0.00265491
375 1 22.6319 6.69333 1.20734 3 0.491118 2 0 0.0940569 -0.202448
376 1 23.3484 6.78052 0.267835 3 0.45657 2 0 0.0957481 -0.125374
377 1 23.4822 5.88496 1.30013 3 0.357008 2 0 0.098403 -0.176366
378 1 24.3197 6.56281 1.15825 3 0.39572 2 0 0.0976587 0.173618
379 1 24.1457 6.00685 0.427617 3 0.336384 2 0 0.0986983 0.00243684
380 1 25.6831 5.86213 0.700952 4 0.249663 2 0 0.0994487 0.163895
381 1 25.1124 6.04132 1.67733 3 0.293505 2 0 0.0991499 0.00366779
382 1 25.1593 6.74159 0.495153 3 0.350984 2 0 0.0984955 0.0903902
383 1 25.8251 6.59457 1.40775 3 0.297314 2 0 0.099117 0.0881004
384 1 26.6903 5.84511 1.4763 4 0.20057 2 0 0.0994487 0.0917602
385 1 27.4966 5.54334 0.722172 4 0.145782 2 0 0.0994487 -0.251575
386 1 26.7485 6.36567 0.651888 4 0.226638 2 0 0.0994487 0.038749
387 1 27.7011 6.47315 1.36539 4 0.181491 2 0 0.0994487 0.131491
388 1 28.3648 5.52203 1.4872 4 0.116431 2 0 0.0994487 0.0456324
389 1 27.7097 7.0074 0.530173 4 0.203027 2 0 0.0994487 0.0321223
390 1 29.3889 5.30889 0.818726 4 0.0868912 2 0 0.0994487 0.316724
391 1 29.4379 6.18214 1.32212 4 0.104359 2 0 0.0994487 -0.00338167
392 1 29.5784 6.89773 0.506505 4 0.118018 2 0 0.0994487 0.0925859
393 1 28.4685 6.20589 0.638647 4 0.132818 2 0 0.0994487 -0.270083
394 1 29.3762 6.15398 0.0801838 4 0.104656 2 0 0.0994487 0.096926
395 1 28.4822 5.38976 0.0592959 4 0.106464 2 0 0.0994487 -0.105004
396 1 30.9636 5.36838 0.595026 4 0.066989 2 0 0.0994487 0.667849
397 1 30.2159 5.45949 1.46813 4 0.0744449 2 0 0.0994487 0.054021
398 1 30.3958 6.18258 0.649752 4 0.0870681 2 0 0.0994487 0.329
399 1 31.2189 6.15516 1.38439 4 0.0764615 2 0 0.0994487 0.587258
400 1 31.1994 6.95407 0.60342 4 0.0906749 2 0 0.0994487 0.812251
401 1 31.7235 5.99622 0.446564 4 0.0708629 2 0 0.0994487 0.879729
402 1 0.261851 7.63199 0.661866 4 0.000287081 2 0 0.0994487 -0.876374
403 1 0.831025 8.46344 0.61936 4 0.000384004 2 0 0.0994487 -0.577626
404 1 1.11211 7.86396 1.49711 4 0.000374576 2 0 0.0994487 -0.154428
405 1 0.356955 8.5626 1.47035 4 0.000333308 2 0 0.0994487 -0.764984
406 1 1.59266 7.76478 0.37187 4 0.000462579 2 0 0.0994487 -0.0897875
407 1 1.72382 8.61735 1.46471 4 0.000552491 2 0 0.0994487 0.0395974
408 1 2.48799 7.14986 0.476331 4 0.000656784 2 0 0.0994487 -0.0836951
409 1 2.19177 8.6335 0.399707 4 0.000723759 2 0 0.0994487 -0.137267
410 1 2.39416 7.81099 1.27726 4 0.000691272 2 0 0.0994487 0.086993
411 1 3.01349 8.51445 0.935533 4 0.00110272 2 0 0.0994487 -0.539311
412 1 3.24418 7.77117 0.327041 4 0.00111132 2 0 0.0994487 -0.196204
413 1 3.81243 8.45898 0.0822892 4 0.00158492 2 0 0.0994487 -0.0457778
414 1 3.97971 7.67009 1.24863 4 0.00160396 2 0 0.0994487 -0.0554878
415 1 4.70459 8.25653 0.921772 4 0.00254853 2 0 0.0994487 0.295344
416 1 4.67023 7.63706 0.247803 4 0.00221078 2 0 0.0994487 0.0376931
417 1 3.81127 8.34851 1.76162 4 0.00159021 2 0 0.0994487 -0.0574354
418 1 5.86955 8.34822 0.169905 4 0.00452608 2 0 0.0994487 0.113107
419 1 5.48363 7.59071 1.03232 4 0.00353841 2 0 0.0994487 -0.467658
420 1 6.49365 7.53799 0.169175 4 0.0054414 2 0 0.0994487 0.187626
421 1 6.39674 8.23976 1.04384 4 0.00644937 2 0 0.0994487 0.338194
422 1 7.28583 7.76918 0.746313 4 0.00939638 2 1 0.0994487 0.00997015
423 1 8.2859 8.31376 0.868772 4 0.017261 2 2 0.0994487 0.278315
424 1 7.27857 8.18368 1.7015 4 0.0112989 2 2 0.0994487 -0.174762
425 1 8.05208 7.48784 1.5604 4 0.0130768 2 1 0.0994487 0.185005
426 1 7.99895 7.60312 0.0282118 4 0.0116724 2 0 0.0994487 0.0674153
427 1 9.84313 7.22199 0.72344 4 0.0248343 2 1 0.0994487 -0.346931
428 1 8.91207 7.61626 0.661731 4 0.0186458 2 1 0.0994487 0.158527
429 1 9.73234 8.61964 0.693151 4 0.0334698 2 3 0.0994487 -0.257022
430 1 9.09265 8.69904 1.44495 4 0.0290426 2 9 0.0994487 -0.394917
431 1 9.64026 7.88932 1.60055 4 0.0306795 2 8 0.0994487 -0.340574
432 1 11.3161 7.14287 0.810636 4 0.0390009 2 1 0.0994487 0.448632
433 1 10.5731 7.9454 0.844311 4 0.038503 2 3 0.0994487 -0.197814
434 1 10.5877 8.70196 1.4255 4 0.0473963 1 8 0.0994487 -0.148132
435 1 11.4057 7.80503 1.60301 4 0.0523253 2 7 0.0994487 0.228676
436 1 11.227 8.11851 0.0422735 4 0.0445201 2 0 0.0994487 0.174339
437 1 12.7061 7.28322 0.565784 4 0.0679673 2 0 0.0994487 -0.0531347
438 1 12.178 8.23518 0.590765 4 0.0685651 2 2 0.0994487 0.163888
439 1 12.0637 7.15788 1.37768 4 0.0529043 2 3 0.0994487 0.145819
440 1 12.0887 8.68064 1.49044 4 0.0794272 1 8 0.0994487 0.0819759
441 1 12.8601 7.99585 1.47598 4 0.0928067 2 6 0.0994487 -0.21758
442 1 14.3373 7.3542 0.580954 4 0.114371 2 0 0.0994487 0.0649293
443 1 13.6169 8.09282 0.464536 4 0.108367 2 2 0.0994487 0.0238249
444 1 13.458 7.34024 1.34133 4 0.0930394 2 2 0.0994487 0.0547568
445 1 14.2471 8.18371 1.35246 4 0.146151 2 5 0.0994487 0.0193292
446 1 16.4328 7.18497 0.276798 4 0.196198 2 0 0.0994487 -0.0630986
447 1 15.6276 7.3114 0.923132 4 0.17302 2 1 0.0994487 -0.440358
448 1 15.0689 8.29247 0.865596 4 0.183848 2 2 0.0994487 -0.308197