ITEM: TIMESTEP
29000
ITEM: NUMBER OF ATOMS
9495
ITEM: BOX BOUNDS mm mm mm
0.0000000000000000e+00 3.1748021039364001e+01
0.0000000000000000e+00 3.1748021039364001e+01
-7.4072398406925706e-04 3.1748021039364001e+01
ITEM: ATOMS id type x y z c_phase c_temp c_surf c_nbond c_visc f_3[1]
1 1 0.116341 1.10259 0.464337 4 7.0849e-06 2 0 0.0994487 -0.68194
2 1 0.974108 1.6685 0.77798 4 1.22064e-05 2 0 0.0994487 -0.51703
3 1 0.714648 0.793562 1.41295 4 8.50603e-06 2 0 0.0994487 -0.281793
4 1 0.00336375 1.60273 1.37437 4 7.97868e-06 2 0 0.0994487 -0.804051
5 1 0.729896 0.0633724 0.61602 4 6.42815e-06 3 0 0.0994487 -0.190374
6 1 1.71015 0.808983 1.0155 4 1.51923e-05 2 0 0.0994487 -0.332067
7 1 1.80059 1.47468 0.221075 4 1.69522e-05 2 0 0.0994487 -0.125828
8 1 1.82015 1.66049 1.76126 4 1.86988e-05 2 0 0.0994487 -0.139532
9 1 2.52093 0.749102 0.203812 4 2.15776e-05 2 0 0.0994487 -0.142938
10 1 2.59149 0.0538711 1.03726 4 2.10438e-05 2 0 0.0994487 -0.295003
11 1 2.64922 1.541 0.882848 4 2.90524e-05 2 0 0.0994487 0.235766
12 1 2.66829 0.815502 1.7457 4 2.49118e-05 2 0 0.0994487 -0.187039
13 1 3.43386 0.933692 0.956349 4 4.08303e-05 2 0 0.0994487 0.320251
14 1 3.49924 0.0925696 1.70571 4 3.15423e-05 2 0 0.0994487 0.178055
15 1 3.60652 1.70798 1.71994 4 5.41754e-05 2 0 0.0994487 0.0487978
16 1 4.10576 0.858321 0.325305 4 6.01708e-05 2 0 0.0994487 0.153149
17 1 4.96159 0.56786 1.17466 4 0.000106228 2 0 0.0994487 -0.0370623
18 1 4.91949 1.59987 0.383508 4 0.000127443 2 0 0.0994487 -0.100243
19 1 4.3472 0.941527 1.62884 4 7.28767e-05 2 0 0.0994487 0.110742
20 1 3.47612 0.111428 0.171027 4 2.98916e-05 2 0 0.0994487 0.166216
21 1 5.64741 0.645627 0.325839 4 0.000160468 2 0 0.0994487 -0.0806017
22 1 5.88414 1.31048 0.938036 4 0.000208927 2 0 0.0994487 -0.199556
23 1 6.57478 1.39104 0.218369 4 0.000307819 2 0 0.0994487 -0.0861291
24 1 5.78374 0.460658 1.69897 4 0.000162315 2 0 0.0994487 -0.0846491
25 1 5.03122 1.72414 1.43602 4 0.000136457 2 0 0.0994487 0.0453777
26 1 6.7138 0.39031 0.865278 4 0.000277562 2 0 0.0994487 -0.0793778
27 1 6.69104 1.00962 1.69374 4 0.000291834 2 0 0.0994487 -0.107919
28 1 8.2679 0.408875 1.07337 4 0.000583018 2 0 0.0994487 -0.100161
29 1 7.36782 1.22285 0.954198 4 0.000447045 2 0 0.0994487 -0.302527
30 1 8.24709 1.39092 0.236779 4 0.000700819 2 0 0.0994487 -0.0460589
31 1 8.12868 1.27217 1.60653 4 0.000628907 2 0 0.0994487 -0.00811174
32 1 7.58247 0.647807 0.140287 4 0.000441781 2 0 0.0994487 -0.110933
33 1 8.85849 0.508506 0.273966 4 0.00076865 2 0 0.0994487 -0.0616427
34 1 9.55301 0.3386 0.888639 4 0.00102046 2 0 0.0994487 0.00506899
35 1 9.02586 1.30716 1.1133 4 0.000990081 2 0 0.0994487 -0.0606278
37 1 9.63995 1.37474 0.0900752 4 0.0012323 2 0 0.0994487 0.099295
38 1 11.2128 0.215893 0.632658 4 0.0020673 2 0 0.0994487 0.203509
39 1 10.3637 1.04743 0.823114 4 0.00165106 2 0 0.0994487 0.5399
40 1 10.523 0.196295 1.44539 4 0.00151694 2 0 0.0994487 0.0644322
41 1 11.2856 1.01846 1.41785 4 0.00260284 2 0 0.0994487 0.164715
42 1 10.5797 1.67706 1.72992 4 0.00217741 2 0 0.0994487 0.118169
43 1 10.2431 0.367861 0.0780499 4 0.00124951 2 0 0.0994487 0.149804
44 1 12.8757 0.211714 0.636805 4 0.00447095 2 0 0.0994487 0.0587919
45 1 12.0457 1.07408 0.506655 4 0.00381505 2 0 0.0994487 -0.0235448
46 1 12.1319 0.316439 1.29957 4 0.00338678 2 0 0.0994487 0.0188422
47 1 12.7194 1.19864 1.3723 4 0.00524533 2 0 0.0994487 -0.030519
48 1 14.3729 0.318493 0.764646 4 0.00795991 2 0 0.0994487 -0.0460353
49 1 13.5924 1.113 0.843618 4 0.00731707 2 0 0.0994487 -0.263042
50 1 14.0399 1.55958 0.167469 4 0.00942102 2 0 0.0994487 -0.0898219
51 1 13.6075 0.359834 1.6352 4 0.00605966 2 0 0.0994487 -0.05626
52 1 14.3777 1.14948 1.47647 4 0.00911508 2 0 0.0994487 -0.0178231
53 1 14.8761 1.55337 0.662943 4 0.0117874 2 0 0.0994487 0.389956
54 1 15.7061 0.770636 0.788259 4 0.0126175 2 0 0.0994487 0.366488
55 1 16.5532 1.54451 0.681338 4 0.0202577 2 0 0.0994487 0.00080998
56 1 15.1422 0.4642 1.64149 4 0.00979899 2 0 0.0994487 0.15208
57 1 16.547 0.712289 1.3421 4 0.0168139 2 0 0.0994487 0.0956297
58 1 15.6341 1.48544 1.3916 4 0.0147181 2 0 0.0994487 0.153636
59 1 15.1049 0.711806 0.0677822 4 0.00978318 2 0 0.0994487 0.169204
60 1 17.2544 0.732268 0.547589 4 0.0203809 2 0 0.0994487 0.0286318
61 1 17.9231 1.58109 0.757246 4 0.0287087 2 0 0.0994487 0.0415658
62 1 17.916 0.742935 1.42801 4 0.0243838 2 0 0.0994487 -0.224375
63 1 17.2202 1.74884 1.56274 4 0.0261193 2 0 0.0994487 -0.0984812
64 1 19.5372 0.0167772 0.662766 4 0.0264338 2 0 0.0994487 0.0436441
65 1 18.7918 0.725074 0.684829 4 0.0275768 2 0 0.0994487 -0.269944
66 1 19.5395 1.55488 0.841653 4 0.0367877 2 0 0.0994487 -0.341161
67 1 19.0276 0.158607 1.54508 4 0.0259472 2 0 0.0994487 -0.158664
68 1 19.5934 0.967491 1.68957 4 0.0317248 2 0 0.0994487 0.0083513
69 1 18.6564 1.51302 1.50035 4 0.0324364 2 0 0.0994487 -0.250306
70 1 21.0889 0.349843 1.06749 4 0.0323253 2 0 0.0994487 -0.196127
71 1 20.2493 0.776373 0.980057 4 0.0328427 2 0 0.0994487 -0.049761
72 1 21.1062 1.65725 0.951506 4 0.0418698 2 0 0.0994487 0.692914
73 1 21.1874 0.765598 0.218806 4 0.0339242 2 0 0.0994487 -0.044591
74 1 20.3457 1.51479 0.193617 4 0.0386572 2 0 0.0994487 -0.0806025
75 1 22.0087 0.262534 0.539755 4 0.0324007 2 0 0.0994487 0.0993591
76 1 22.7913 0.430275 1.40734 4 0.0335454 2 0 0.0994487 0.206599
77 1 22.1105 1.14763 1.32981 4 0.0376775 2 0 0.0994487 0.240022
78 1 21.9982 1.59955 0.538558 4 0.042558 2 0 0.0994487 0.185171
79 1 22.9157 1.07463 0.445168 4 0.037368 2 0 0.0994487 0.0520839
80 1 24.228 0.380179 1.45209 4 0.0324474 2 0 0.0994487 0.0576161
81 1 23.5672 0.357563 0.57369 4 0.0330461 2 0 0.0994487 0.0385703
82 1 24.4367 1.18687 0.754729 4 0.0375664 2 0 0.0994487 -0.0192979
83 1 23.4757 1.2499 1.4028 4 0.0396259 2 0 0.0994487 0.0298763
84 1 24.955 0.315686 0.551996 4 0.030002 2 0 0.0994487 -0.0171996
85 1 26.0085 0.383365 1.1715 4 0.0260543 2 0 0.0994487 -0.185861
86 1 25.169 1.12579 1.48087 4 0.0347829 2 0 0.0994487 0.025104
87 1 25.9301 1.73476 1.35794 4 0.0365998 2 0 0.0994487 0.0345343
88 1 25.8917 0.929212 0.432102 4 0.02919 2 0 0.0994487 -0.0954209
89 1 27.5736 1.28032 0.38906 4 0.0228391 2 0 0.0994487 0.0454485
90 1 27.6142 0.50928 0.874321 4 0.0200911 2 0 0.0994487 0.175387
91 1 26.7559 1.02809 1.26347 4 0.0253554 2 0 0.0994487 -0.236889
92 1 28.3748 0.337482 1.39813 4 0.0164625 2 0 0.0994487 0.00984356
93 1 26.7925 0.240345 0.226621 4 0.0218488 2 0 0.0994487 0.0380743
94 1 28.6489 1.24263 0.742341 4 0.0183301 2 0 0.0994487 0.102405
95 1 29.3912 0.945639 1.56878 4 0.0144672 2 0 0.0994487 -0.0192014
96 1 28.5228 1.71921 1.49749 4 0.0205251 2 0 0.0994487 -0.042982
97 1 29.8133 0.173958 1.46124 4 0.011889 2 0 0.0994487 0.133416
98 1 29.2734 0.3547 0.615275 4 0.0133476 2 0 0.0994487 -0.0816817
99 1 31.5874 0.266128 1.25663 4 0.00812634 3 0 0.0994487 0.830097
100 1 30.7016 0.49015 0.470738 4 0.0104989 2 0 0.0994487 0.354852
101 1 30.1009 1.19877 0.774133 4 0.0134459 2 0 0.0994487 0.210919
102 1 30.8649 0.971942 1.39386 4 0.0112566 2 0 0.0994487 0.703281
103 1 1.11081 2.43607 0.129285 4 1.44127e-05 2 0 0.0994487 -0.0373215
104 1 0.133403 2.3821 0.812241 4 1.06487e-05 2 0 0.0994487 -0.984517
105 1 1.28845 3.23764 0.949187 4 2.18611e-05 2 0 0.0994487 0.222103
106 1 1.13977 2.36077 1.59162 4 1.59443e-05 2 0 0.0994487 -0.222188
107 1 0.386685 3.02999 1.54944 4 1.40431e-05 2 0 0.0994487 -0.671256
108 1 0.332248 3.09582 0.131296 4 1.30559e-05 2 0 0.0994487 -0.59134
109 1 1.90972 2.41867 0.78376 4 2.3703e-05 2 0 0.0994487 0.0782139
110 1 2.65852 3.28029 0.860875 4 5.08754e-05 2 0 0.0994487 0.0668101
111 1 2.66931 2.22918 1.53373 4 3.55632e-05 2 0 0.0994487 0.082958
112 1 3.2579 3.42668 1.64938 4 7.6747e-05 2 0 0.0994487 0.00397871
113 1 2.7261 2.38168 0.0557193 4 3.32363e-05 2 0 0.0994487 0.146602
114 1 3.38195 2.55413 0.779289 4 6.15901e-05 2 0 0.0994487 0.21159
115 1 4.00679 1.841 0.711184 4 7.60384e-05 2 0 0.0994487 -0.0361169
116 1 4.91383 2.57277 0.815661 4 0.000166831 2 0 0.0994487 -0.259338
117 1 4.20148 3.3175 0.749446 4 0.000136061 2 0 0.0994487 0.00622166
118 1 4.13245 2.64107 1.58328 4 0.000103152 2 0 0.0994487 0.0270821
119 1 5.65047 2.44269 0.132743 4 0.000241583 2 0 0.0994487 -0.189922
120 1 6.55776 2.18062 0.772597 4 0.000371847 2 0 0.0994487 -0.289345
121 1 5.64874 3.19593 0.952489 4 0.000306262 2 0 0.0994487 -0.754614
122 1 5.861 2.19426 1.49672 4 0.000249595 2 0 0.0994487 0.0126408
123 1 6.52037 3.06691 1.5557 4 0.000464539 2 0 0.0994487 0.0443629
124 1 6.65033 2.92778 0.134227 4 0.000447337 2 0 0.0994487 0.028891
125 1 7.45405 2.22586 0.139832 4 0.000590145 2 0 0.0994487 -0.0534973
126 1 8.08209 2.20208 0.930382 4 0.000825423 2 0 0.0994487 -0.302031
127 1 7.40132 3.06835 0.934051 4 0.000758969 2 0 0.0994487 -0.0454599
128 1 7.29928 2.06035 1.56856 4 0.000521324 2 0 0.0994487 -0.0607278
129 1 8.18545 3.00183 1.65211 4 0.00109954 2 0 0.0994487 -0.0454108
130 1 8.26934 2.9712 0.0392146 4 0.00113555 2 0 0.0994487 -0.150612
131 1 8.90393 2.08699 0.252387 4 0.0011409 2 0 0.0994487 0.00243926
132 1 9.77243 2.0246 1.10996 4 0.00169583 2 0 0.0994487 0.173486
133 1 8.92671 2.97262 0.928693 4 0.00159622 2 0 0.0994487 -0.15671
134 1 9.03062 2.22066 1.70398 4 0.00128458 2 0 0.0994487 -0.0819632
135 1 9.56096 2.90576 0.21312 4 0.00197591 2 0 0.0994487 0.173126
136 1 10.2834 2.1137 0.214297 4 0.00198123 2 0 0.0994487 0.337743
137 1 11.1583 1.82604 0.771092 4 0.00303008 2 0 0.0994487 0.2601
138 1 10.6214 2.80819 0.921535 4 0.00328975 2 0 0.0994487 0.541937
139 1 11.4444 2.82964 1.57484 4 0.0049161 2 0 0.0994487 0.0952074
140 1 12.6737 1.94118 0.593851 4 0.00651565 2 0 0.0994487 -0.283925
141 1 11.928 2.64099 0.742299 4 0.00575563 2 0 0.0994487 -0.0386637
142 1 11.9239 1.9206 1.46509 4 0.00449467 2 0 0.0994487 0.0946619
143 1 12.8449 3.01766 1.68597 4 0.00933288 2 0 0.0994487 0.0363618
144 1 13.1791 3.03035 0.848852 4 0.0109153 2 0 0.0994487 -0.44084
145 1 13.3784 1.9912 1.48064 4 0.00831296 2 0 0.0994487 -0.0150652
146 1 14.0206 2.44438 0.927124 4 0.0121141 2 0 0.0994487 -0.133076
147 1 14.0279 3.38359 1.55716 4 0.0163703 2 0 0.0994487 0.0255792
148 1 14.6961 3.43698 0.884932 4 0.0210943 2 0 0.0994487 -0.332927
149 1 14.7823 2.29758 1.44821 4 0.0145827 2 0 0.0994487 0.0469311
150 1 14.8418 2.51505 0.136557 4 0.0157737 2 0 0.0994487 0.173008
151 1 14.1591 3.2262 0.0325348 4 0.0163712 2 0 0.0994487 -0.246102
152 1 13.4137 2.29398 0.0590902 4 0.00949951 2 0 0.0994487 -0.280958
153 1 15.6993 2.44373 0.692668 4 0.0204172 2 0 0.0994487 0.3644
154 1 16.3029 3.20095 0.662084 4 0.0309436 2 0 0.0994487 0.328593
155 1 16.308 2.47951 1.52575 4 0.0253912 2 0 0.0994487 -0.100644
156 1 15.3694 3.25723 1.50191 4 0.024644 2 0 0.0994487 -0.0076656
157 1 15.5706 3.25854 0.0192499 4 0.0239907 2 0 0.0994487 0.29024
158 1 17.0646 2.35032 0.682778 4 0.0295034 2 0 0.0994487 0.0234841
159 1 17.944 2.92608 0.699539 4 0.0448785 2 0 0.0994487 -0.231189
160 1 18.0193 2.43917 1.58112 4 0.0383915 2 0 0.0994487 -0.149133
161 1 17.0918 3.1162 1.49491 4 0.0388648 2 0 0.0994487 -0.143432
162 1 18.8908 2.35742 1.01358 4 0.0432659 2 0 0.0994487 -0.51683
163 1 19.7027 3.2427 1.27782 4 0.0628388 2 0 0.0994487 0.39488
164 1 18.884 2.99607 0.196019 4 0.053105 2 0 0.0994487 -0.171809
165 1 19.587 2.34239 0.101452 4 0.0465066 2 0 0.0994487 -0.13237
166 1 20.3251 1.78863 1.72442 4 0.0405287 2 0 0.0994487 0.0449531
167 1 21.1565 2.41663 0.458355 4 0.0537414 2 0 0.0994487 0.196187
168 1 20.1948 2.46882 1.11433 4 0.0502728 2 0 0.0994487 0.286742
169 1 21.31 3.29463 1.39314 4 0.0770254 2 0 0.0994487 0.077729
170 1 20.4222 2.99313 0.334941 4 0.0611707 2 0 0.0994487 0.18629
171 1 22.8719 2.07007 1.50872 4 0.051696 2 0 0.0994487 -0.022124
172 1 22.9717 2.60199 0.735523 4 0.0651066 2 0 0.0994487 0.133325
173 1 22.0961 2.49917 1.23787 4 0.0600517 2 0 0.0994487 0.186438
174 1 21.9898 3.20043 0.598797 4 0.0798147 2 0 0.0994487 -0.0757501
175 1 22.6771 3.40124 0.07601 4 0.0881975 2 0 0.0994487 0.0760735
176 1 23.7438 1.80844 0.624025 4 0.0460878 2 0 0.0994487 -0.0873601
177 1 24.4289 1.98763 1.61102 4 0.0477396 2 0 0.0994487 -0.0641763
178 1 24.342 2.68296 0.775192 4 0.0613339 2 0 0.0994487 -0.341094
179 1 23.6887 2.90303 1.53628 4 0.0698469 2 0 0.0994487 -0.110505
180 1 24.4728 3.51078 1.55704 4 0.0843111 2 0 0.0994487 -0.118306
181 1 24.9562 2.84566 0.0146836 4 0.0592582 2 0 0.0994487 -0.0864599
182 1 26.5483 1.79415 0.511367 4 0.0324944 2 0 0.0994487 -0.00560153
183 1 25.1322 1.85613 0.509414 4 0.0428166 2 0 0.0994487 -0.0215301
184 1 25.7918 2.61203 0.707489 4 0.0507245 2 0 0.0994487 0.2282
185 1 25.1579 2.55548 1.52547 4 0.0543396 2 0 0.0994487 0.0576658
186 1 25.7213 3.49812 1.51211 4 0.0721503 2 0 0.0994487 0.123856
187 1 26.5364 2.56002 1.53049 4 0.0424747 2 0 0.0994487 0.0579462
188 1 26.1686 3.50068 0.599043 4 0.0663445 2 0 0.0994487 0.168843
189 1 27.5039 1.98546 1.23792 4 0.0276385 2 0 0.0994487 -0.186421
190 1 28.2489 2.09022 0.343734 4 0.0240346 2 0 0.0994487 -0.0177255
191 1 27.0867 2.6924 0.645359 4 0.0387359 2 0 0.0994487 -0.105603
192 1 27.1998 3.35397 1.41682 4 0.047552 2 0 0.0994487 -0.0983305
193 1 28.2537 2.75799 1.20639 4 0.0291372 2 0 0.0994487 -0.418309
194 1 27.982 3.21993 0.326384 4 0.0356903 2 0 0.0994487 -0.125258
195 1 29.9568 1.80906 1.70764 4 0.015645 2 0 0.0994487 0.1832
196 1 29.4477 2.04702 0.879698 4 0.0184907 2 0 0.0994487 -0.00708608
197 1 29.1956 2.6589 0.290703 4 0.0224084 2 0 0.0994487 -0.0578291
198 1 29.2495 3.2651 1.17365 4 0.0265124 2 0 0.0994487 0.118631
199 1 30.9114 1.98502 0.924207 4 0.0146114 2 0 0.0994487 0.967251
200 1 30.1815 2.71094 1.00186 4 0.0189111 2 0 0.0994487 0.67511
201 1 31.0247 3.35309 0.97101 4 0.0197962 2 0 0.0994487 0.998409
202 1 30.9865 2.69483 1.72648 4 0.0169479 2 0 0.0994487 0.578501
203 1 30.1092 3.25953 0.132205 4 0.0210149 2 0 0.0994487 -0.0443663
204 1 30.4116 1.90909 0.0255368 4 0.0147319 2 0 0.0994487 0.106044
205 1 31.1434 2.66402 0.0761253 4 0.0160041 2 0 0.0994487 0.70882
206 1 0.293831 3.78503 0.918557 4 1.69145e-05 2 0 0.0994487 -0.999347
207 1 0.143046 4.59443 0.482118 4 1.95031e-05 2 0 0.0994487 -0.784494
208 1 1.14036 4.67093 0.986638 4 3.18734e-05 2 0 0.0994487 -0.516746
209 1 0.0884667 5.26681 1.27761 4 2.31672e-05 2 0 0.0994487 -0.887458
210 1 1.04069 3.86421 0.0595682 4 2.16314e-05 2 0 0.0994487 0.0148888
211 1 1.84117 4.04604 0.847105 4 4.00163e-05 2 0 0.0994487 0.008277
212 1 2.54049 4.85585 1.13748 4 7.79675e-05 2 0 0.0994487 -0.33384
213 1 2.64953 4.14475 0.20674 4 6.81398e-05 2 0 0.0994487 -0.02857
214 1 1.89758 4.96895 0.278386 4 5.4716e-05 2 0 0.0994487 -0.153432
215 1 3.40771 4.86189 0.161635 4 0.000132313 2 0 0.0994487 -0.0163851
216 1 3.494 4.07675 0.885909 4 0.000111846 2 0 0.0994487 0.0269054
217 1 4.91235 4.00001 1.18344 4 0.000257324 2 0 0.0994487 0.0115325
218 1 4.04658 4.88002 1.14639 4 0.000196448 2 0 0.0994487 0.264498
219 1 4.26027 4.18509 0.149001 4 0.00018227 2 0 0.0994487 0.0377411
220 1 5.00947 4.74001 0.341082 4 0.000338173 2 0 0.0994487 0.0765454
221 1 5.77735 3.9378 0.198707 4 0.00038581 2 0 0.0994487 0.0260191
222 1 6.48883 3.76611 0.772067 4 0.000564716 2 0 0.0994487 0.204565
223 1 5.68025 4.73638 1.02487 4 0.00051359 2 0 0.0994487 -0.62164
224 1 6.66321 4.5115 1.6428 4 0.000783438 2 0 0.0994487 0.158939
225 1 6.68072 5.1315 0.885352 4 0.00100764 2 0 0.0994487 0.206884
226 1 8.1982 3.892 0.700757 4 0.00155832 2 0 0.0994487 -0.369886
227 1 7.40842 4.46072 0.5468 4 0.00122207 2 0 0.0994487 -0.0252042
228 1 7.39886 3.87029 1.49684 4 0.000971545 2 0 0.0994487 0.102585
229 1 8.20004 4.61106 1.48677 4 0.00194691 2 0 0.0994487 -0.0118291
230 1 9.8976 3.57792 0.885667 4 0.00312043 2 0 0.0994487 0.592876
231 1 9.07913 4.56551 0.821335 4 0.00299105 2 0 0.0994487 -0.658513
232 1 9.86266 4.50302 0.126324 4 0.00387856 2 0 0.0994487 0.0958706
233 1 9.07829 3.76256 1.49819 4 0.00228259 2 0 0.0994487 -0.0708788
234 1 9.86881 4.3462 1.65532 4 0.00405219 2 0 0.0994487 -0.0856563
235 1 8.98541 3.86821 0.0631775 4 0.00218691 2 0 0.0994487 -0.138749
236 1 11.408 3.64493 0.778297 4 0.00641016 2 0 0.0994487 0.202078
237 1 10.5891 4.66652 0.906264 4 0.00616526 2 0 0.0994487 0.0451244
238 1 11.3867 4.69403 0.230734 4 0.00889858 2 0 0.0994487 -0.0498832
239 1 10.7059 3.56689 1.58785 4 0.00457263 2 0 0.0994487 -0.044842
240 1 11.3652 4.3716 1.70545 4 0.00799174 2 0 0.0994487 -0.079821
241 1 11.3894 5.27213 0.983682 4 0.0106829 2 0 0.0994487 -0.674452
242 1 10.5826 3.84888 0.176129 4 0.00447302 2 0 0.0994487 0.210472
243 1 12.5168 3.57716 0.814749 4 0.0101242 2 0 0.0994487 -0.0105655
244 1 12.1916 4.55033 1.00021 4 0.0120542 2 0 0.0994487 0.105092
245 1 12.7362 4.99738 1.68903 4 0.0163346 2 0 0.0994487 0.191335
246 1 13.2258 4.67863 0.80017 4 0.0191009 2 0 0.0994487 -0.00467581
247 1 12.6435 4.61885 0.0632315 4 0.0150789 2 0 0.0994487 -0.0335758
248 1 13.9891 4.12825 0.69648 4 0.0214622 2 0 0.0994487 -0.430169
249 1 13.4832 4.21781 1.59317 4 0.0175754 2 0 0.0994487 0.0820231
250 1 14.2046 5.11838 1.52001 4 0.031137 2 0 0.0994487 -0.0289858
251 1 14.9402 5.01141 0.811699 4 0.0386984 2 0 0.0994487 -0.0526388
252 1 14.9642 4.4167 1.59432 4 0.0322332 2 0 0.0994487 -0.0635589
253 1 14.1405 4.90647 0.0597868 4 0.0285307 2 0 0.0994487 -0.085691
254 1 14.961 4.19423 0.096508 4 0.0288625 2 0 0.0994487 0.0322752
255 1 15.6685 4.06642 0.926277 4 0.0351095 2 0 0.0994487 0.872615
256 1 15.8798 4.77595 0.186426 4 0.0467775 2 0 0.0994487 0.165392
257 1 16.5936 4.58036 0.900182 4 0.0552923 2 0 0.0994487 -0.078968
258 1 16.3184 3.95875 1.6903 4 0.0414842 2 0 0.0994487 -0.0433953
259 1 15.8111 5.05317 1.64084 4 0.0504573 2 0 0.0994487 0.0995011
260 1 17.2689 3.83372 0.811237 4 0.0521719 2 0 0.0994487 -0.345383
261 1 18.0864 4.48855 1.09806 4 0.0758183 2 0 0.0994487 -0.612154
262 1 17.9525 3.63794 1.65602 4 0.0562798 2 0 0.0994487 -0.192805
263 1 17.4569 4.57727 0.0147963 4 0.066305 2 0 0.0994487 -0.0974101
264 1 18.1348 3.8547 0.0583493 4 0.0613747 2 0 0.0994487 -0.120517
265 1 18.8779 3.70667 0.95022 4 0.0664928 2 0 0.0994487 0.0692299
266 1 18.8235 4.60949 0.361826 4 0.087226 2 0 0.0994487 0.115609
267 1 19.6906 4.67872 1.0803 4 0.11014 2 0 0.0994487 0.93152
268 1 18.7859 5.27693 1.20102 4 0.11557 2 0 0.0994487 0.599089
269 1 19.5987 3.76722 0.227421 4 0.0733649 2 0 0.0994487 0.164269
270 1 20.4384 3.82188 1.23329 4 0.0874018 2 0 0.0994487 0.325953
271 1 20.8846 4.71868 1.39403 4 0.140907 2 0 0.0994487 0.149058
272 1 21.5775 4.95128 0.810455 4 0.17619 2 0 0.0994487 -0.00375053
273 1 21.0824 3.93136 0.512408 4 0.0994165 2 0 0.0994487 0.0883031
274 1 20.1339 4.78559 0.352846 4 0.123742 2 0 0.0994487 0.145587
275 1 22.8205 3.63186 1.42135 4 0.097874 2 0 0.0994487 -0.0184003
276 1 21.9406 4.13318 1.31068 4 0.120124 2 0 0.0994487 0.027204
277 1 22.4705 5.17735 1.27286 4 0.204754 2 0 0.0994487 0.0207061
278 1 22.6119 4.34705 0.510028 4 0.134778 2 0 0.0994487 -0.0221066
279 1 23.5735 3.63903 0.782677 4 0.0979573 2 0 0.0994487 0.185556
280 1 24.336 4.32055 0.625018 4 0.125286 2 0 0.0994487 -0.150096
281 1 23.4679 4.54946 1.33355 4 0.148391 2 0 0.0994487 -0.0790569
282 1 24.8518 5.25716 0.566763 4 0.170831 2 0 0.0994487 0.0409038
283 1 23.5518 5.06386 0.533607 4 0.186247 2 0 0.0994487 -0.0968903
284 1 25.0086 4.50055 1.62342 4 0.122122 2 0 0.0994487 -0.0421966
285 1 25.0629 3.68037 0.802132 4 0.0857083 2 0 0.0994487 -0.187921
286 1 24.363 5.28843 1.43377 4 0.188306 2 0 0.0994487 -0.154713
287 1 25.6904 5.1389 1.34266 4 0.140334 2 0 0.0994487 0.210096
288 1 26.3575 4.29031 1.37159 4 0.0864012 2 0 0.0994487 0.149479
289 1 26.5026 4.97257 0.640732 4 0.106751 2 0 0.0994487 0.0989639
290 1 25.5284 4.40089 0.388179 4 0.106095 2 0 0.0994487 0.055946
291 1 27.3302 4.86961 1.40568 4 0.0823424 2 0 0.0994487 0.00660722
292 1 27.9624 3.97641 1.10408 4 0.0480128 2 0 0.0994487 -0.309509
293 1 28.2771 4.73475 0.706344 4 0.0590019 2 0 0.0994487 -0.0812505
294 1 27.0674 4.04323 0.570038 4 0.0645336 2 0 0.0994487 0.0120199
295 1 28.9321 3.77016 0.487204 4 0.0335604 2 0 0.0994487 -0.00703405
296 1 29.0873 4.52317 1.33085 4 0.0425208 2 0 0.0994487 0.0574837
297 1 29.9979 4.07209 1.02303 4 0.02835 2 0 0.0994487 -0.275234
298 1 31.0296 3.97382 0.373364 4 0.0229072 2 0 0.0994487 0.657583
299 1 30.2046 4.67765 0.491317 4 0.0333749 2 0 0.0994487 0.00995733
300 1 30.9783 4.59929 1.41131 4 0.0278035 2 0 0.0994487 0.679913
301 1 0.908283 5.53205 0.461647 4 3.71727e-05 2 0 0.0994487 -0.463784
302 1 1.53161 5.51184 1.37971 4 5.04466e-05 2 0 0.0994487 -0.117385
303 1 0.793684 6.22023 1.2768 4 4.31225e-05 2 0 0.0994487 -0.70338
304 1 0.257003 6.91734 1.50738 4 4.06538e-05 2 0 0.0994487 -0.772633
305 1 0.969942 6.9454 0.573423 4 5.73452e-05 2 0 0.0994487 -0.473532
306 1 1.7053 7.02884 1.23811 4 8.20221e-05 2 0 0.0994487 0.0665208
307 1 1.89588 6.19966 0.519025 4 7.65953e-05 2 0 0.0994487 -0.156397
308 1 3.10475 5.61709 1.30057 4 0.00013333 2 0 0.0994487 0.0402567
309 1 2.26359 6.15348 1.40977 4 8.95918e-05 2 0 0.0994487 0.0408583
310 1 3.25442 6.96226 1.12748 4 0.000224496 2 0 0.0994487 -0.0541181
311 1 2.68177 5.61289 0.273587 4 0.000104407 2 0 0.0994487 -0.059683
312 1 3.39503 6.28191 0.500536 4 0.000207132 2 0 0.0994487 -0.121438
313 1 4.18979 5.46246 0.325783 4 0.000260234 2 0 0.0994487 0.0310225
314 1 4.93434 5.42873 1.31778 4 0.000431608 2 0 0.0994487 -0.235093
315 1 4.13622 6.09659 1.22779 4 0.000317083 2 0 0.0994487 -0.0893829
316 1 4.82567 6.23357 0.333842 4 0.000489508 2 0 0.0994487 -0.0345702
317 1 4.77312 6.79931 1.15967 4 0.0005788 2 0 0.0994487 -0.305922
318 1 4.00267 7.02511 0.221759 4 0.000361826 2 0 0.0994487 -0.0853398
319 1 5.78575 5.42185 0.301847 4 0.000657965 2 0 0.0994487 0.0125075
320 1 5.6935 6.24342 0.9632 4 0.000827936 2 0 0.0994487 -0.967781
321 1 6.4578 5.98425 1.59671 4 0.00114074 2 0 0.0994487 0.14092
322 1 6.43234 6.86927 1.00965 4 0.00149386 2 0 0.0994487 0.851694
323 1 6.37773 6.04115 0.154639 4 0.00102998 2 0 0.0994487 0.111117
324 1 5.54993 7.05206 0.147147 4 0.000887482 2 0 0.0994487 0.0363911
325 1 8.21355 5.31419 0.694273 4 0.00248497 2 0 0.0994487 -0.0895732
326 1 7.32761 6.15925 0.754293 4 0.00196295 2 0 0.0994487 0.225748
327 1 7.39163 5.41839 1.49138 4 0.00160658 2 0 0.0994487 0.136761
328 1 8.23884 6.11028 1.49159 4 0.00324191 2 0 0.0994487 0.0187464
329 1 8.01352 6.85364 0.728993 4 0.00364015 2 0 0.0994487 0.0692029
330 1 7.28191 6.86379 1.59601 4 0.00249062 2 1 0.0994487 0.12606
331 1 7.33029 5.3575 0.0461812 4 0.00142886 2 0 0.0994487 0.0813612
332 1 9.76796 5.3194 0.792562 4 0.00515752 2 0 0.0994487 0.328471
333 1 8.88016 6.18865 0.736908 4 0.00460894 2 0 0.0994487 -0.235523
334 1 9.05434 5.3271 1.5973 4 0.00378623 2 0 0.0994487 -0.0628243
335 1 9.73844 6.19052 1.46731 4 0.0070307 2 0 0.0994487 -0.106449
336 1 9.09351 6.95013 1.463 4 0.00676916 2 2 0.0994487 -0.0759039
337 1 9.76329 6.23201 0.0941385 4 0.00679459 2 0 0.0994487 -0.0359457
338 1 8.99733 5.46479 0.012702 4 0.00370667 2 0 0.0994487 -0.134749
339 1 10.5831 6.02196 0.964384 4 0.00953962 2 0 0.0994487 -0.356352
340 1 11.3128 6.37134 0.0776634 4 0.0129584 2 0 0.0994487 0.100345
341 1 10.5187 6.94145 0.15452 4 0.0115298 2 0 0.0994487 -0.073529
342 1 10.4686 6.92564 1.49614 4 0.012373 2 1 0.0994487 -0.0634843
343 1 11.9994 5.6274 0.183157 4 0.0144257 2 0 0.0994487 -0.0105261
344 1 12.6757 5.81849 0.861776 4 0.0209128 2 0 0.0994487 0.0817669
345 1 11.7774 6.20735 1.05291 4 0.0160816 2 0 0.0994487 0.292253
346 1 13.3219 5.86668 1.55471 4 0.0269837 2 0 0.0994487 0.208174
347 1 13.3506 6.58297 0.813679 4 0.0359109 2 0 0.0994487 -0.292093
348 1 13.3212 5.53867 0.0424813 4 0.0250802 2 0 0.0994487 -0.142906
349 1 14.0617 5.71565 0.77266 4 0.0356531 2 0 0.0994487 -0.372614
350 1 14.3278 6.65176 1.40646 4 0.0552609 2 1 0.0994487 -0.103111
351 1 14.1303 6.38483 0.0380077 4 0.0422114 2 0 0.0994487 -0.0826076
352 1 15.0282 5.64393 0.034369 4 0.0468914 2 0 0.0994487 0.0573664
353 1 15.8305 5.73813 0.95832 4 0.0656017 2 0 0.0994487 0.62579
354 1 15.0472 6.45091 0.806774 4 0.0645292 2 0 0.0994487 -0.176039
355 1 16.491 6.45257 1.1401 4 0.104989 2 0 0.0994487 0.208309
356 1 15.1058 5.87594 1.69804 4 0.0565091 2 0 0.0994487 -0.0976548
357 1 16.62 5.41933 0.276819 4 0.0716835 2 0 0.0994487 0.079922
358 1 15.6753 6.3382 0.0390223 4 0.0717795 2 0 0.0994487 0.0398533
359 1 17.8271 5.30128 0.541411 4 0.0921617 2 0 0.0994487 0.150325
360 1 17.113 5.42499 1.24767 4 0.0845218 2 0 0.0994487 -0.286575
361 1 17.0619 6.27419 0.411469 4 0.109983 2 0 0.0994487 0.138948
362 1 17.6649 6.24649 1.38542 4 0.131366 2 0 0.0994487 -0.255208
363 1 18.2745 7.0517 1.13153 4 0.197432 2 0 0.0994487 0.642876
364 1 18.3714 6.23173 0.609762 4 0.151714 2 0 0.0994487 0.156177
365 1 19.429 5.75829 0.62055 4 0.161906 2 0 0.0994487 0.0571847
366 1 19.3279 6.55755 1.35081 4 0.216645 2 0 0.0994487 0.276266
367 1 19.9942 6.75229 0.610261 3 0.283921 2 0 0.0992272 -0.0120932
368 1 20.7494 5.77593 0.653722 4 0.224425 2 0 0.0994487 -0.104065
369 1 20.1931 5.61076 1.39557 4 0.182769 2 0 0.0994487 0.312028
370 1 20.7787 6.6124 1.30355 3 0.334872 2 0 0.0987177 -0.344424
371 1 21.6592 6.66248 0.666524 3 0.356084 2 0 0.0984176 -0.0434661
372 1 21.6631 5.87866 1.38528 3 0.277832 2 0 0.0992727 0.0420453
373 1 21.6904 5.73259 0.0517844 4 0.242408 2 0 0.0994487 -0.00150122
374 1 22.6732 5.8279 0.674154 3 0.268207 2 0 0.0993391 0.0026571
375 1 22.6319 6.69333 1.20734 3 0.391066 2 0 0.0977638 -0.201833
376 1 23.3484 6.78052 0.267835 3 0.359831 2 0 0.0983578 -0.125375
377 1 23.4822 5.88496 1.30013 3 0.273251 2 0 0.0993051 -0.17638
378 1 24.3197 6.56281 1.15825 3 0.306403 2 0 0.0990335 0.173582
379 1 24.1457 6.00685 0.427617 3 0.255271 2 0 0.0994191 0.00243564
380 1 25.6831 5.86213 0.700952 4 0.181568 2 0 0.0994487 0.163893
381 1 25.1124 6.04132 1.67733 4 0.218302 2 0 0.0994487 0.00366617
382 1 25.1593 6.74159 0.495153 3 0.266509 2 0 0.0993502 0.0903876
383 1 25.8251 6.59457 1.40775 4 0.220323 2 0 0.0994487 0.0880969
384 1 26.6903 5.84511 1.4763 4 0.140849 2 0 0.0994487 0.0917583
385 1 27.4966 5.54334 0.722172 4 0.0974199 2 0 0.0994487 -0.251577
386 1 26.7485 6.36567 0.651888 4 0.161196 2 0 0.0994487 0.0387463
387 1 27.7011 6.47315 1.36539 4 0.124205 2 0 0.0994487 0.131489
388 1 28.3648 5.52203 1.4872 4 0.0744777 2 0 0.0994487 0.0456315
389 1 27.7097 7.0074 0.530173 4 0.14042 2 0 0.0994487 0.0321194
390 1 29.3889 5.30889 0.818726 4 0.0521719 2 0 0.0994487 0.316722
391 1 29.4379 6.18214 1.32212 4 0.0640532 2 0 0.0994487 -0.00338264
392 1 29.5784 6.89773 0.506505 4 0.0732149 2 0 0.0994487 0.0925844
393 1 28.4685 6.20589 0.638647 4 0.0861202 2 0 0.0994487 -0.270086
394 1 29.3762 6.15398 0.0801838 4 0.0642111 2 0 0.0994487 0.0969255
395 1 28.4822 5.38976 0.0592959 4 0.0667284 2 0 0.0994487 -0.105004
396 1 30.9636 5.36838 0.595026 4 0.0371639 2 0 0.0994487 0.667849
397 1 30.2159 5.45949 1.46813 4 0.0426971 2 0 0.0994487 0.0540206
398 1 30.3958 6.18258 0.649752 4 0.0508367 2 0 0.0994487 0.328999
399 1 31.2189 6.15516 1.38439 4 0.0429205 2 0 0.0994487 0.587257
400 1 31.1994 6.95407 0.60342 4 0.0520882 2 0 0.0994487 0.812251
401 1 31.7235 5.99622 0.446564 4 0.0388795 2 0 0.0994487 0.879729
402 1 0.261851 7.63199 0.661866 4 4.99031e-05 2 0 0.0994487 -0.876373
403 1 0.831025 8.46344 0.61936 4 7.15761e-05 2 0 0.0994487 -0.577625
404 1 1.11211 7.86396 1.49711 4 7.04744e-05 2 0 0.0994487 -0.154427
405 1 0.356955 8.5626 1.47035 4 5.9146e-05 2 0 0.0994487 -0.764984
406 1 1.59266 7.76478 0.37187 4 9.25045e-05 2 0 0.0994487 -0.0897861
407 1 1.72382 8.61735 1.46471 4 0.000113637 2 0 0.0994487 0.039599
408 1 2.48799 7.14986 0.476331 4 0.000144291 2 0 0.0994487 -0.083692
409 1 2.19177 8.6335 0.399707 4 0.000158008 2 0 0.0994487 -0.137265
410 1 2.39416 7.81099 1.27726 4 0.000151778 2 0 0.0994487 0.0869958
411 1 3.01349 8.51445 0.935533 4 0.000262788 2 0 0.0994487 -0.539299
412 1 3.24418 7.77117 0.327041 4 0.000266961 2 0 0.0994487 -0.196201
413 1 3.81243 8.45898 0.0822892 4 0.000402538 2 0 0.0994487 -0.0457753
414 1 3.97971 7.67009 1.24863 4 0.000412813 2 0 0.0994487 -0.0554835
415 1 4.70459 8.25653 0.921772 4 0.000709135 2 0 0.0994487 0.295374
416 1 4.67023 7.63706 0.247803 4 0.000602044 2 0 0.0994487 0.0376975
417 1 3.81127 8.34851 1.76162 4 0.000403248 2 0 0.0994487 -0.0574333
418 1 5.86955 8.34822 0.169905 4 0.00137704 2 0 0.0994487 0.11311
419 1 5.48363 7.59071 1.03232 4 0.00104494 2 0 0.0994487 -0.467641
420 1 6.49365 7.53799 0.169175 4 0.00171694 2 0 0.0994487 0.18763
421 1 6.39674 8.23976 1.04384 4 0.00208465 2 0 0.0994487 0.338205
422 1 7.28583 7.76918 0.746313 4 0.00321842 2 1 0.0994487 0.00997278
423 1 8.2859 8.31376 0.868772 4 0.00642843 2 2 0.0994487 0.278566
424 1 7.27857 8.18368 1.7015 4 0.0039484 2 2 0.0994487 -0.174719
425 1 8.05208 7.48784 1.5604 4 0.00471371 2 1 0.0994487 0.185059
426 1 7.99895 7.60312 0.0282118 4 0.00409904 2 0 0.0994487 0.067418
427 1 9.84313 7.22199 0.72344 4 0.0101186 2 1 0.0994487 -0.346912
428 1 8.91207 7.61626 0.661731 4 0.00714798 2 1 0.0994487 0.158621
429 1 9.73234 8.61964 0.693151 4 0.0139014 2 3 0.0994487 -0.257147
430 1 9.09265 8.69904 1.44495 4 0.0116297 2 9 0.0994487 -0.395527
431 1 9.64026 7.88932 1.60055 4 0.0126097 2 8 0.0994487 -0.340677
432 1 11.3161 7.14287 0.810636 4 0.01753 2 1 0.0994487 0.448565
433 1 10.5731 7.9454 0.844311 4 0.016736 2 3 0.0994487 -0.198136
434 1 10.5877 8.70196 1.4255 4 0.0210028 1 8 0.0994487 -0.146568
435 1 11.4057 7.80503 1.60301 4 0.0241956 2 7 0.0994487 0.228589
436 1 11.227 8.11851 0.0422735 4 0.0199258 2 0 0.0994487 0.174333
437 1 12.7061 7.28322 0.565784 4 0.0342955 2 0 0.0994487 -0.0531273
438 1 12.178 8.23518 0.590765 4 0.0337894 2 2 0.0994487 0.163977
439 1 12.0637 7.15788 1.37768 4 0.0253673 2 3 0.0994487 0.145838
440 1 12.0887 8.68064 1.49044 4 0.0395816 1 8 0.0994487 0.0825898
441 1 12.8601 7.99585 1.47598 4 0.0484289 2 6 0.0994487 -0.216888
442 1 14.3373 7.3542 0.580954 4 0.0646229 2 0 0.0994487 0.0649156
443 1 13.6169 8.09282 0.464536 4 0.0592132 2 2 0.0994487 0.0237864
444 1 13.458 7.34024 1.34133 4 0.0497433 2 2 0.0994487 0.0546108
445 1 14.2471 8.18371 1.35246 4 0.0843555 2 5 0.0994487 0.0244712
446 1 16.4328 7.18497 0.276798 4 0.124732 2 0 0.0994487 -0.0624157
447 1 15.6276 7.3114 0.923132 4 0.106459 2 1 0.0994487 -0.441698