ITEM: TIMESTEP
30500
ITEM: NUMBER OF ATOMS
9495
ITEM: BOX BOUNDS mm mm mm
0.0000000000000000e+00 3.1748021039364001e+01
0.0000000000000000e+00 3.1748021039364001e+01
-7.4072398406925706e-04 3.1748021039364001e+01
ITEM: ATOMS id type x y z c_phase c_temp c_surf c_nbond c_visc f_3[1]
1 1 0.116341 1.10259 0.464337 4 1.26667e-05 2 0 0.0994487 -0.68194
2 1 0.974108 1.6685 0.77798 4 2.10256e-05 2 0 0.0994487 -0.517031
3 1 0.714648 0.793562 1.41295 4 1.49989e-05 2 0 0.0994487 -0.281793
4 1 0.00336375 1.60273 1.37437 4 1.41637e-05 2 0 0.0994487 -0.804051
5 1 0.729896 0.0633724 0.61602 4 1.15368e-05 3 0 0.0994487 -0.190374
6 1 1.71015 0.808983 1.0155 4 2.58489e-05 2 0 0.0994487 -0.332068
7 1 1.80059 1.47468 0.221075 4 2.86491e-05 2 0 0.0994487 -0.125828
8 1 1.82015 1.66049 1.76126 4 3.14027e-05 2 0 0.0994487 -0.139532
9 1 2.52093 0.749102 0.203812 4 3.60651e-05 2 0 0.0994487 -0.142939
10 1 2.59149 0.0538711 1.03726 4 3.53169e-05 2 0 0.0994487 -0.295004
11 1 2.64922 1.541 0.882848 4 4.75683e-05 2 0 0.0994487 0.235762
12 1 2.66829 0.815502 1.7457 4 4.13016e-05 2 0 0.0994487 -0.18704
13 1 3.43386 0.933692 0.956349 4 6.58391e-05 2 0 0.0994487 0.320247
14 1 3.49924 0.0925696 1.70571 4 5.17629e-05 2 0 0.0994487 0.178054
15 1 3.60652 1.70798 1.71994 4 8.61219e-05 2 0 0.0994487 0.0487965
16 1 4.10576 0.858321 0.325305 4 9.53923e-05 2 0 0.0994487 0.153148
17 1 4.96159 0.56786 1.17466 4 0.000164767 2 0 0.0994487 -0.0370645
18 1 4.91949 1.59987 0.383508 4 0.000195305 2 0 0.0994487 -0.100245
19 1 4.3472 0.941527 1.62884 4 0.000114655 2 0 0.0994487 0.11074
20 1 3.47612 0.111428 0.171027 4 4.92022e-05 2 0 0.0994487 0.166216
21 1 5.64741 0.645627 0.325839 4 0.000244737 2 0 0.0994487 -0.0806032
22 1 5.88414 1.31048 0.938036 4 0.000313648 2 0 0.0994487 -0.19957
23 1 6.57478 1.39104 0.218369 4 0.00045437 2 0 0.0994487 -0.0861312
24 1 5.78374 0.460658 1.69897 4 0.000247877 2 0 0.0994487 -0.0846507
25 1 5.03122 1.72414 1.43602 4 0.000208347 2 0 0.0994487 0.0453751
26 1 6.7138 0.39031 0.865278 4 0.000413351 2 0 0.0994487 -0.0793797
27 1 6.69104 1.00962 1.69374 4 0.000432852 2 0 0.0994487 -0.107921
28 1 8.2679 0.408875 1.07337 4 0.000838575 2 0 0.0994487 -0.100164
29 1 7.36782 1.22285 0.954198 4 0.000648629 2 0 0.0994487 -0.302539
30 1 8.24709 1.39092 0.236779 4 0.000995844 2 0 0.0994487 -0.0460615
31 1 8.12868 1.27217 1.60653 4 0.000898258 2 0 0.0994487 -0.0081143
32 1 7.58247 0.647807 0.140287 4 0.00064384 2 0 0.0994487 -0.110934
33 1 8.85849 0.508506 0.273966 4 0.0010916 2 0 0.0994487 -0.0616445
34 1 9.55301 0.3386 0.888639 4 0.00142938 2 0 0.0994487 0.00506646
35 1 9.02586 1.30716 1.1133 4 0.00138346 2 0 0.0994487 -0.0606366
37 1 9.63995 1.37474 0.0900752 4 0.00170652 2 0 0.0994487 0.0992931
38 1 11.2128 0.215893 0.632658 4 0.00280311 2 0 0.0994487 0.203506
39 1 10.3637 1.04743 0.823114 4 0.00225393 2 0 0.0994487 0.539892
40 1 10.523 0.196295 1.44539 4 0.00208721 2 0 0.0994487 0.0644304
41 1 11.2856 1.01846 1.41785 4 0.00348173 2 0 0.0994487 0.164711
42 1 10.5797 1.67706 1.72992 4 0.00293097 2 0 0.0994487 0.118166
43 1 10.2431 0.367861 0.0780499 4 0.00173673 2 0 0.0994487 0.149802
44 1 12.8757 0.211714 0.636805 4 0.0058688 2 0 0.0994487 0.0587898
45 1 12.0457 1.07408 0.506655 4 0.00502102 2 0 0.0994487 -0.0235481
46 1 12.1319 0.316439 1.29957 4 0.00449559 2 0 0.0994487 0.0188393
47 1 12.7194 1.19864 1.3723 4 0.00680719 2 0 0.0994487 -0.0305234
48 1 14.3729 0.318493 0.764646 4 0.0101718 2 0 0.0994487 -0.0460367
49 1 13.5924 1.113 0.843618 4 0.00935869 2 0 0.0994487 -0.263047
50 1 14.0399 1.55958 0.167469 4 0.0119035 2 0 0.0994487 -0.0898234
51 1 13.6075 0.359834 1.6352 4 0.00784866 2 0 0.0994487 -0.0562616
52 1 14.3777 1.14948 1.47647 4 0.0115411 2 0 0.0994487 -0.0178251
53 1 14.8761 1.55337 0.662943 4 0.0147183 2 0 0.0994487 0.389952
54 1 15.7061 0.770636 0.788259 4 0.0157218 2 0 0.0994487 0.366486
55 1 16.5532 1.54451 0.681338 4 0.0246218 2 0 0.0994487 0.000808818
56 1 15.1422 0.4642 1.64149 4 0.0123879 2 0 0.0994487 0.152079
57 1 16.547 0.712289 1.3421 4 0.020663 2 0 0.0994487 0.0956287
58 1 15.6341 1.48544 1.3916 4 0.0181692 2 0 0.0994487 0.153634
59 1 15.1049 0.711806 0.0677822 4 0.0123736 2 0 0.0994487 0.169204
60 1 17.2544 0.732268 0.547589 4 0.0248329 2 0 0.0994487 0.0286317
61 1 17.9231 1.58109 0.757246 4 0.0342963 2 0 0.0994487 0.0415663
62 1 17.916 0.742935 1.42801 4 0.029445 2 0 0.0994487 -0.224374
63 1 17.2202 1.74884 1.56274 4 0.0313472 2 0 0.0994487 -0.0984813
64 1 19.5372 0.0167772 0.662766 4 0.0318498 2 0 0.0994487 0.0436447
65 1 18.7918 0.725074 0.684829 4 0.0330917 2 0 0.0994487 -0.269943
66 1 19.5395 1.55488 0.841653 4 0.0433383 2 0 0.0994487 -0.341157
67 1 19.0276 0.158607 1.54508 4 0.0312938 2 0 0.0994487 -0.158663
68 1 19.5934 0.967491 1.68957 4 0.0377305 2 0 0.0994487 0.00835241
69 1 18.6564 1.51302 1.50035 4 0.0385074 2 0 0.0994487 -0.250305
70 1 21.0889 0.349843 1.06749 4 0.038383 2 0 0.0994487 -0.196125
71 1 20.2493 0.776373 0.980057 4 0.0389631 2 0 0.0994487 -0.049758
72 1 21.1062 1.65725 0.951506 4 0.0488492 2 0 0.0994487 0.692922
73 1 21.1874 0.765598 0.218806 4 0.0401434 2 0 0.0994487 -0.0445896
74 1 20.3457 1.51479 0.193617 4 0.0453854 2 0 0.0994487 -0.080601
75 1 22.0087 0.262534 0.539755 4 0.038437 2 0 0.0994487 0.0993604
76 1 22.7913 0.430275 1.40734 4 0.0396444 2 0 0.0994487 0.206601
77 1 22.1105 1.14763 1.32981 4 0.0442008 2 0 0.0994487 0.240027
78 1 21.9982 1.59955 0.538558 4 0.0495368 2 0 0.0994487 0.185174
79 1 22.9157 1.07463 0.445168 4 0.0438064 2 0 0.0994487 0.0520863
80 1 24.228 0.380179 1.45209 4 0.0383025 2 0 0.0994487 0.0576178
81 1 23.5672 0.357563 0.57369 4 0.0390282 2 0 0.0994487 0.0385722
82 1 24.4367 1.18687 0.754729 4 0.0438619 2 0 0.0994487 -0.0192932
83 1 23.4757 1.2499 1.4028 4 0.0462175 2 0 0.0994487 0.0298796
84 1 24.955 0.315686 0.551996 4 0.0355126 2 0 0.0994487 -0.0171977
85 1 26.0085 0.383365 1.1715 4 0.0309943 2 0 0.0994487 -0.185859
86 1 25.169 1.12579 1.48087 4 0.0407235 2 0 0.0994487 0.0251063
87 1 25.9301 1.73476 1.35794 4 0.0426069 2 0 0.0994487 0.0345377
88 1 25.8917 0.929212 0.432102 4 0.0344733 2 0 0.0994487 -0.0954187
89 1 27.5736 1.28032 0.38906 4 0.0272776 2 0 0.0994487 0.0454499
90 1 27.6142 0.50928 0.874321 4 0.0242172 2 0 0.0994487 0.175388
91 1 26.7559 1.02809 1.26347 4 0.0301297 2 0 0.0994487 -0.236884
92 1 28.3748 0.337482 1.39813 4 0.0200839 2 0 0.0994487 0.00984484
93 1 26.7925 0.240345 0.226621 4 0.0262579 2 0 0.0994487 0.0380752
94 1 28.6489 1.24263 0.742341 4 0.0221744 2 0 0.0994487 0.102407
95 1 29.3912 0.945639 1.56878 4 0.0177855 2 0 0.0994487 -0.0192004
96 1 28.5228 1.71921 1.49749 4 0.0246439 2 0 0.0994487 -0.0429802
97 1 29.8133 0.173958 1.46124 4 0.0148303 2 0 0.0994487 0.133416
98 1 29.2734 0.3547 0.615275 4 0.0165084 2 0 0.0994487 -0.081681
99 1 31.5874 0.266128 1.25663 4 0.0104248 3 0 0.0994487 0.830097
100 1 30.7016 0.49015 0.470738 4 0.0132156 2 0 0.0994487 0.354852
101 1 30.1009 1.19877 0.774133 4 0.0166209 2 0 0.0994487 0.21092
102 1 30.8649 0.971942 1.39386 4 0.0140941 2 0 0.0994487 0.703281
103 1 1.11081 2.43607 0.129285 4 2.46069e-05 2 0 0.0994487 -0.0373218
104 1 0.133403 2.3821 0.812241 4 1.85696e-05 2 0 0.0994487 -0.984517
105 1 1.28845 3.23764 0.949187 4 3.63733e-05 2 0 0.0994487 0.222098
106 1 1.13977 2.36077 1.59162 4 2.70268e-05 2 0 0.0994487 -0.222189
107 1 0.386685 3.02999 1.54944 4 2.40888e-05 2 0 0.0994487 -0.671256
108 1 0.332248 3.09582 0.131296 4 2.25216e-05 2 0 0.0994487 -0.59134
109 1 1.90972 2.41867 0.78376 4 3.9185e-05 2 0 0.0994487 0.0782117
110 1 2.65852 3.28029 0.860875 4 8.08701e-05 2 0 0.0994487 0.0668073
111 1 2.66931 2.22918 1.53373 4 5.75638e-05 2 0 0.0994487 0.0829567
112 1 3.2579 3.42668 1.64938 4 0.000119811 2 0 0.0994487 0.00397701
113 1 2.7261 2.38168 0.0557193 4 5.4034e-05 2 0 0.0994487 0.146601
114 1 3.38195 2.55413 0.779289 4 9.70142e-05 2 0 0.0994487 0.211587
115 1 4.00679 1.841 0.711184 4 0.0001189 2 0 0.0994487 -0.0361199
116 1 4.91383 2.57277 0.815661 4 0.000251865 2 0 0.0994487 -0.259344
117 1 4.20148 3.3175 0.749446 4 0.000207046 2 0 0.0994487 0.00621881
118 1 4.13245 2.64107 1.58328 4 0.00015899 2 0 0.0994487 0.02708
119 1 5.65047 2.44269 0.132743 4 0.000359627 2 0 0.0994487 -0.189924
120 1 6.55776 2.18062 0.772597 4 0.000542246 2 0 0.0994487 -0.289364
121 1 5.64874 3.19593 0.952489 4 0.000450004 2 0 0.0994487 -0.754623
122 1 5.861 2.19426 1.49672 4 0.000370679 2 0 0.0994487 0.0126384
123 1 6.52037 3.06691 1.5557 4 0.000670132 2 0 0.0994487 0.0443603
124 1 6.65033 2.92778 0.134227 4 0.000646895 2 0 0.0994487 0.028889
125 1 7.45405 2.22586 0.139832 4 0.000843073 2 0 0.0994487 -0.0534998
126 1 8.08209 2.20208 0.930382 4 0.00116034 2 0 0.0994487 -0.302053
127 1 7.40132 3.06835 0.934051 4 0.00107003 2 0 0.0994487 -0.0454921
128 1 7.29928 2.06035 1.56856 4 0.000749184 2 0 0.0994487 -0.0607302
129 1 8.18545 3.00183 1.65211 4 0.00152632 2 0 0.0994487 -0.0454134
130 1 8.26934 2.9712 0.0392146 4 0.00157466 2 0 0.0994487 -0.150615
131 1 8.90393 2.08699 0.252387 4 0.00158187 2 0 0.0994487 0.00243618
132 1 9.77243 2.0246 1.10996 4 0.0023064 2 0 0.0994487 0.173475
133 1 8.92671 2.97262 0.928693 4 0.00217739 2 0 0.0994487 -0.156736
134 1 9.03062 2.22066 1.70398 4 0.00177077 2 0 0.0994487 -0.0819656
135 1 9.56096 2.90576 0.21312 4 0.00267069 2 0 0.0994487 0.173123
136 1 10.2834 2.1137 0.214297 4 0.00267677 2 0 0.0994487 0.337741
137 1 11.1583 1.82604 0.771092 4 0.0040146 2 0 0.0994487 0.260094
138 1 10.6214 2.80819 0.921535 4 0.00434074 2 0 0.0994487 0.541926
139 1 11.4444 2.82964 1.57484 4 0.00637826 2 0 0.0994487 0.0952029
140 1 12.6737 1.94118 0.593851 4 0.00835608 2 0 0.0994487 -0.28393
141 1 11.928 2.64099 0.742299 4 0.00741426 2 0 0.0994487 -0.0386693
142 1 11.9239 1.9206 1.46509 4 0.00585709 2 0 0.0994487 0.0946574
143 1 12.8449 3.01766 1.68597 4 0.0117801 2 0 0.0994487 0.0363588
144 1 13.1791 3.03035 0.848852 4 0.0136707 2 0 0.0994487 -0.44085
145 1 13.3784 1.9912 1.48064 4 0.0105481 2 0 0.0994487 -0.0150679
146 1 14.0206 2.44438 0.927124 4 0.0150924 2 0 0.0994487 -0.13309
147 1 14.0279 3.38359 1.55716 4 0.0201377 2 0 0.0994487 0.0255763
148 1 14.6961 3.43698 0.884932 4 0.0256366 2 0 0.0994487 -0.332947
149 1 14.7823 2.29758 1.44821 4 0.0180057 2 0 0.0994487 0.0469291
150 1 14.8418 2.51505 0.136557 4 0.0194156 2 0 0.0994487 0.173006
151 1 14.1591 3.2262 0.0325348 4 0.0201423 2 0 0.0994487 -0.246104
152 1 13.4137 2.29398 0.0590902 4 0.0119855 2 0 0.0994487 -0.28096
153 1 15.6993 2.44373 0.692668 4 0.0247976 2 0 0.0994487 0.364397
154 1 16.3029 3.20095 0.662084 4 0.0368625 2 0 0.0994487 0.328591
155 1 16.308 2.47951 1.52575 4 0.030509 2 0 0.0994487 -0.100645
156 1 15.3694 3.25723 1.50191 4 0.0297109 2 0 0.0994487 -0.00766748
157 1 15.5706 3.25854 0.0192499 4 0.0289795 2 0 0.0994487 0.290239
158 1 17.0646 2.35032 0.682778 4 0.035175 2 0 0.0994487 0.0234837
159 1 17.944 2.92608 0.699539 4 0.052421 2 0 0.0994487 -0.231188
160 1 18.0193 2.43917 1.58112 4 0.0451654 2 0 0.0994487 -0.149132
161 1 17.0918 3.1162 1.49491 4 0.0457611 2 0 0.0994487 -0.143432
162 1 18.8908 2.35742 1.01358 4 0.0505449 2 0 0.0994487 -0.516822
163 1 19.7027 3.2427 1.27782 4 0.071966 2 0 0.0994487 0.394885
164 1 18.884 2.99607 0.196019 4 0.0614651 2 0 0.0994487 -0.171808
165 1 19.587 2.34239 0.101452 4 0.0540982 2 0 0.0994487 -0.132369
166 1 20.3251 1.78863 1.72442 4 0.0474375 2 0 0.0994487 0.0449551
167 1 21.1565 2.41663 0.458355 4 0.0618014 2 0 0.0994487 0.19619
168 1 20.1948 2.46882 1.11433 4 0.0581296 2 0 0.0994487 0.286754
169 1 21.31 3.29463 1.39314 4 0.0869818 2 0 0.0994487 0.0777327
170 1 20.4222 2.99313 0.334941 4 0.070006 2 0 0.0994487 0.186293
171 1 22.8719 2.07007 1.50872 4 0.0594026 2 0 0.0994487 -0.0221211
172 1 22.9717 2.60199 0.735523 4 0.0739157 2 0 0.0994487 0.13333
173 1 22.0961 2.49917 1.23787 4 0.0685354 2 0 0.0994487 0.186443
174 1 21.9898 3.20043 0.598797 4 0.0898901 2 0 0.0994487 -0.0757455
175 1 22.6771 3.40124 0.07601 4 0.0988802 2 0 0.0994487 0.0760749
176 1 23.7438 1.80844 0.624025 4 0.0532215 2 0 0.0994487 -0.0873568
177 1 24.4289 1.98763 1.61102 4 0.0549492 2 0 0.0994487 -0.0641741
178 1 24.342 2.68296 0.775192 4 0.0696867 2 0 0.0994487 -0.341089
179 1 23.6887 2.90303 1.53628 4 0.0789561 2 0 0.0994487 -0.110502
180 1 24.4728 3.51078 1.55704 4 0.0944538 2 0 0.0994487 -0.118303
181 1 24.9562 2.84566 0.0146836 4 0.0674232 2 0 0.0994487 -0.0864588
182 1 26.5483 1.79415 0.511367 4 0.0380299 2 0 0.0994487 -0.00559906
183 1 25.1322 1.85613 0.509414 4 0.0495057 2 0 0.0994487 -0.0215275
184 1 25.7918 2.61203 0.707489 4 0.0580472 2 0 0.0994487 0.228204
185 1 25.1579 2.55548 1.52547 4 0.062041 2 0 0.0994487 0.0576683
186 1 25.7213 3.49812 1.51211 4 0.0812867 2 0 0.0994487 0.123858
187 1 26.5364 2.56002 1.53049 4 0.0489822 2 0 0.0994487 0.0579486
188 1 26.1686 3.50068 0.599043 4 0.0749884 2 0 0.0994487 0.168846
189 1 27.5039 1.98546 1.23792 4 0.0325927 2 0 0.0994487 -0.186417
190 1 28.2489 2.09022 0.343734 4 0.0285754 2 0 0.0994487 -0.0177243
191 1 27.0867 2.6924 0.645359 4 0.0448454 2 0 0.0994487 -0.105599
192 1 27.1998 3.35397 1.41682 4 0.0545103 2 0 0.0994487 -0.0983274
193 1 28.2537 2.75799 1.20639 4 0.0342446 2 0 0.0994487 -0.418305
194 1 27.982 3.21993 0.326384 4 0.0415012 2 0 0.0994487 -0.125257
195 1 29.9568 1.80906 1.70764 4 0.0191414 2 0 0.0994487 0.183201
196 1 29.4477 2.04702 0.879698 4 0.022359 2 0 0.0994487 -0.00708229
197 1 29.1956 2.6589 0.290703 4 0.0267767 2 0 0.0994487 -0.0578281
198 1 29.2495 3.2651 1.17365 4 0.0313826 2 0 0.0994487 0.118635
199 1 30.9114 1.98502 0.924207 4 0.0179928 2 0 0.0994487 0.967251
200 1 30.1815 2.71094 1.00186 4 0.0228852 2 0 0.0994487 0.675112
201 1 31.0247 3.35309 0.97101 4 0.0239676 2 0 0.0994487 0.998409
202 1 30.9865 2.69483 1.72648 4 0.0207064 2 0 0.0994487 0.578502
203 1 30.1092 3.25953 0.132205 4 0.0252878 2 0 0.0994487 -0.0443657
204 1 30.4116 1.90909 0.0255368 4 0.018125 2 0 0.0994487 0.106045
205 1 31.1434 2.66402 0.0761253 4 0.0196257 2 0 0.0994487 0.70882
206 1 0.293831 3.78503 0.918557 4 2.87634e-05 2 0 0.0994487 -0.999347
207 1 0.143046 4.59443 0.482118 4 3.30252e-05 2 0 0.0994487 -0.784494
208 1 1.14036 4.67093 0.986638 4 5.2227e-05 2 0 0.0994487 -0.516749
209 1 0.0884667 5.26681 1.27761 4 3.9007e-05 2 0 0.0994487 -0.887458
210 1 1.04069 3.86421 0.0595682 4 3.61284e-05 2 0 0.0994487 0.0148884
211 1 1.84117 4.04604 0.847105 4 6.45048e-05 2 0 0.0994487 0.00827305
212 1 2.54049 4.85585 1.13748 4 0.000121882 2 0 0.0994487 -0.333843
213 1 2.64953 4.14475 0.20674 4 0.00010714 2 0 0.0994487 -0.028571
214 1 1.89758 4.96895 0.278386 4 8.71802e-05 2 0 0.0994487 -0.153432
215 1 3.40771 4.86189 0.161635 4 0.000201988 2 0 0.0994487 -0.0163866
216 1 3.494 4.07675 0.885909 4 0.000171664 2 0 0.0994487 0.0268995
217 1 4.91235 4.00001 1.18344 4 0.000380797 2 0 0.0994487 0.0115216
218 1 4.04658 4.88002 1.14639 4 0.000294199 2 0 0.0994487 0.264494
219 1 4.26027 4.18509 0.149001 4 0.000274367 2 0 0.0994487 0.0377397
220 1 5.00947 4.74001 0.341082 4 0.000495691 2 0 0.0994487 0.0765426
221 1 5.77735 3.9378 0.198707 4 0.000562324 2 0 0.0994487 0.0260174
222 1 6.48883 3.76611 0.772067 4 0.000807413 2 0 0.0994487 0.204559
223 1 5.68025 4.73638 1.02487 4 0.000739283 2 0 0.0994487 -0.621665
224 1 6.66321 4.5115 1.6428 4 0.00110697 2 0 0.0994487 0.158936
225 1 6.68072 5.1315 0.885352 4 0.00141067 2 0 0.0994487 0.206869
226 1 8.1982 3.892 0.700757 4 0.00213271 2 0 0.0994487 -0.369894
227 1 7.40842 4.46072 0.5468 4 0.00169388 2 0 0.0994487 -0.0252087
228 1 7.39886 3.87029 1.49684 4 0.00135713 2 0 0.0994487 0.102581
229 1 8.20004 4.61106 1.48677 4 0.00264606 2 0 0.0994487 -0.0118337
230 1 9.8976 3.57792 0.885667 4 0.00413598 2 0 0.0994487 0.592822
231 1 9.07913 4.56551 0.821335 4 0.00399036 2 0 0.0994487 -0.65853
232 1 9.86266 4.50302 0.126324 4 0.00511522 2 0 0.0994487 0.0958675
233 1 9.07829 3.76256 1.49819 4 0.00307125 2 0 0.0994487 -0.0708826
234 1 9.86881 4.3462 1.65532 4 0.00532953 2 0 0.0994487 -0.08566
235 1 8.98541 3.86821 0.0631775 4 0.00295188 2 0 0.0994487 -0.138752
236 1 11.408 3.64493 0.778297 4 0.00823228 2 0 0.0994487 0.202071
237 1 10.5891 4.66652 0.906264 4 0.00796374 2 0 0.0994487 0.0450948
238 1 11.3867 4.69403 0.230734 4 0.0113153 2 0 0.0994487 -0.0498878
239 1 10.7059 3.56689 1.58785 4 0.00596059 2 0 0.0994487 -0.0448465
240 1 11.3652 4.3716 1.70545 4 0.0101993 2 0 0.0994487 -0.0798255
241 1 11.3894 5.27213 0.983682 4 0.0135132 2 0 0.0994487 -0.67447
242 1 10.5826 3.84888 0.176129 4 0.00584348 2 0 0.0994487 0.210468
243 1 12.5168 3.57716 0.814749 4 0.0127403 2 0 0.0994487 -0.0105726
244 1 12.1916 4.55033 1.00021 4 0.0151038 2 0 0.0994487 0.105061
245 1 12.7362 4.99738 1.68903 4 0.0202293 2 0 0.0994487 0.191331
246 1 13.2258 4.67863 0.80017 4 0.0234411 2 0 0.0994487 -0.00469345
247 1 12.6435 4.61885 0.0632315 4 0.0187271 2 0 0.0994487 -0.0335791
248 1 13.9891 4.12825 0.69648 4 0.0261378 2 0 0.0994487 -0.430175
249 1 13.4832 4.21781 1.59317 4 0.02161 2 0 0.0994487 0.0820191
250 1 14.2046 5.11838 1.52001 4 0.0374165 2 0 0.0994487 -0.0289908
251 1 14.9402 5.01141 0.811699 4 0.046006 2 0 0.0994487 -0.0527193
252 1 14.9642 4.4167 1.59432 4 0.0385534 2 0 0.0994487 -0.0635615
253 1 14.1405 4.90647 0.0597868 4 0.0344291 2 0 0.0994487 -0.0856941
254 1 14.961 4.19423 0.096508 4 0.0346788 2 0 0.0994487 0.0322732
255 1 15.6685 4.06642 0.926277 4 0.0417248 2 0 0.0994487 0.872588
256 1 15.8798 4.77595 0.186426 4 0.0550421 2 0 0.0994487 0.16539
257 1 16.5936 4.58036 0.900182 4 0.0643979 2 0 0.0994487 -0.0789724
258 1 16.3184 3.95875 1.6903 4 0.0488725 2 0 0.0994487 -0.0433961
259 1 15.8111 5.05317 1.64084 4 0.059239 2 0 0.0994487 0.0994998
260 1 17.2689 3.83372 0.811237 4 0.0606946 2 0 0.0994487 -0.345381
261 1 18.0864 4.48855 1.09806 4 0.0866989 2 0 0.0994487 -0.612145
262 1 17.9525 3.63794 1.65602 4 0.0651214 2 0 0.0994487 -0.192804
263 1 17.4569 4.57727 0.0147963 4 0.0765379 2 0 0.0994487 -0.0974089
264 1 18.1348 3.8547 0.0583493 4 0.0708099 2 0 0.0994487 -0.120516
265 1 18.8779 3.70667 0.95022 4 0.0761691 2 0 0.0994487 0.0692478
266 1 18.8235 4.60949 0.361826 4 0.0988901 2 0 0.0994487 0.115611
267 1 19.6906 4.67872 1.0803 4 0.123237 2 0 0.0994487 0.931532
268 1 18.7859 5.27693 1.20102 4 0.129721 2 0 0.0994487 0.599142
269 1 19.5987 3.76722 0.227421 4 0.083492 2 0 0.0994487 0.164271
270 1 20.4384 3.82188 1.23329 4 0.0984006 2 0 0.0994487 0.32596
271 1 20.8846 4.71868 1.39403 4 0.155542 2 0 0.0994487 0.149063
272 1 21.5775 4.95128 0.810455 4 0.192709 2 0 0.0994487 -0.00373736
273 1 21.0824 3.93136 0.512408 4 0.111131 2 0 0.0994487 0.0883068
274 1 20.1339 4.78559 0.352846 4 0.137615 2 0 0.0994487 0.145589
275 1 22.8205 3.63186 1.42135 4 0.109159 2 0 0.0994487 -0.0183969
276 1 21.9406 4.13318 1.31068 4 0.133055 2 0 0.0994487 0.0272088
277 1 22.4705 5.17735 1.27286 4 0.222595 2 0 0.0994487 0.0207123
278 1 22.6119 4.34705 0.510028 4 0.148552 2 0 0.0994487 -0.0221026
279 1 23.5735 3.63903 0.782677 4 0.109162 2 0 0.0994487 0.185564
280 1 24.336 4.32055 0.625018 4 0.138293 2 0 0.0994487 -0.150091
281 1 23.4679 4.54946 1.33355 4 0.162892 2 0 0.0994487 -0.0790524
282 1 24.8518 5.25716 0.566763 4 0.18672 2 0 0.0994487 0.0409078
283 1 23.5518 5.06386 0.533607 4 0.20298 2 0 0.0994487 -0.0968861
284 1 25.0086 4.50055 1.62342 4 0.134939 2 0 0.0994487 -0.0421943
285 1 25.0629 3.68037 0.802132 4 0.0959083 2 0 0.0994487 -0.187915
286 1 24.363 5.28843 1.43377 4 0.205126 2 0 0.0994487 -0.154708
287 1 25.6904 5.1389 1.34266 4 0.154424 2 0 0.0994487 0.210101
288 1 26.3575 4.29031 1.37159 4 0.0966795 2 0 0.0994487 0.149483
289 1 26.5026 4.97257 0.640732 4 0.118627 2 0 0.0994487 0.0989677
290 1 25.5284 4.40089 0.388179 4 0.117822 2 0 0.0994487 0.0559483
291 1 27.3302 4.86961 1.40568 4 0.0924473 2 0 0.0994487 0.00661032
292 1 27.9624 3.97641 1.10408 4 0.0550675 2 0 0.0994487 -0.309503
293 1 28.2771 4.73475 0.706344 4 0.0672404 2 0 0.0994487 -0.0812463
294 1 27.0674 4.04323 0.570038 4 0.0730429 2 0 0.0994487 0.0120231
295 1 28.9321 3.77016 0.487204 4 0.0392227 2 0 0.0994487 -0.0070325
296 1 29.0873 4.52317 1.33085 4 0.0492271 2 0 0.0994487 0.0574858
297 1 29.9979 4.07209 1.02303 4 0.0335686 2 0 0.0994487 -0.27523
298 1 31.0296 3.97382 0.373364 4 0.0275353 2 0 0.0994487 0.657583
299 1 30.2046 4.67765 0.491317 4 0.0392985 2 0 0.0994487 0.00995832
300 1 30.9783 4.59929 1.41131 4 0.0331253 2 0 0.0994487 0.679914
301 1 0.908283 5.53205 0.461647 4 6.08008e-05 2 0 0.0994487 -0.463784
302 1 1.53161 5.51184 1.37971 4 8.10016e-05 2 0 0.0994487 -0.117386
303 1 0.793684 6.22023 1.2768 4 7.04347e-05 2 0 0.0994487 -0.703381
304 1 0.257003 6.91734 1.50738 4 6.72472e-05 2 0 0.0994487 -0.772633
305 1 0.969942 6.9454 0.573423 4 9.25583e-05 2 0 0.0994487 -0.473532
306 1 1.7053 7.02884 1.23811 4 0.000129386 2 0 0.0994487 0.0665194
307 1 1.89588 6.19966 0.519025 4 0.000120628 2 0 0.0994487 -0.156399
308 1 3.10475 5.61709 1.30057 4 0.00020353 2 0 0.0994487 0.0402546
309 1 2.26359 6.15348 1.40977 4 0.000139866 2 0 0.0994487 0.0408571
310 1 3.25442 6.96226 1.12748 4 0.000336639 2 0 0.0994487 -0.0541209
311 1 2.68177 5.61289 0.273587 4 0.000161366 2 0 0.0994487 -0.0596843
312 1 3.39503 6.28191 0.500536 4 0.000310895 2 0 0.0994487 -0.121441
313 1 4.18979 5.46246 0.325783 4 0.000386005 2 0 0.0994487 0.03102
314 1 4.93434 5.42873 1.31778 4 0.000626878 2 0 0.0994487 -0.235097
315 1 4.13622 6.09659 1.22779 4 0.000466928 2 0 0.0994487 -0.0893861
316 1 4.82567 6.23357 0.333842 4 0.000708958 2 0 0.0994487 -0.0345733
317 1 4.77312 6.79931 1.15967 4 0.000833217 2 0 0.0994487 -0.305927
318 1 4.00267 7.02511 0.221759 4 0.000532036 2 0 0.0994487 -0.085342
319 1 5.78575 5.42185 0.301847 4 0.000939628 2 0 0.0994487 0.0125046
320 1 5.6935 6.24342 0.9632 4 0.00117297 2 0 0.0994487 -0.967782
321 1 6.4578 5.98425 1.59671 4 0.0015938 2 0 0.0994487 0.140917
322 1 6.43234 6.86927 1.00965 4 0.00206874 2 0 0.0994487 0.851683
323 1 6.37773 6.04115 0.154639 4 0.00144665 2 0 0.0994487 0.111114
324 1 5.54993 7.05206 0.147147 4 0.00125743 2 0 0.0994487 0.0363885
325 1 8.21355 5.31419 0.694273 4 0.00335219 2 0 0.0994487 -0.0895847
326 1 7.32761 6.15925 0.754293 4 0.00268247 2 0 0.0994487 0.225739
327 1 7.39163 5.41839 1.49138 4 0.00220758 2 0 0.0994487 0.136757
328 1 8.23884 6.11028 1.49159 4 0.00434392 2 0 0.0994487 0.0187408
329 1 8.01352 6.85364 0.728993 4 0.00487505 2 0 0.0994487 0.0691936
330 1 7.28191 6.86379 1.59601 4 0.00338449 2 1 0.0994487 0.126054
331 1 7.33029 5.3575 0.0461812 4 0.00197583 2 0 0.0994487 0.0813587
332 1 9.76796 5.3194 0.792562 4 0.00674461 2 0 0.0994487 0.328456
333 1 8.88016 6.18865 0.736908 4 0.00608814 2 0 0.0994487 -0.235535
334 1 9.05434 5.3271 1.5973 4 0.00502091 2 0 0.0994487 -0.0628285
335 1 9.73844 6.19052 1.46731 4 0.00912677 2 0 0.0994487 -0.106468
336 1 9.09351 6.95013 1.463 4 0.00884615 2 2 0.0994487 -0.075963
337 1 9.76329 6.23201 0.0941385 4 0.00884075 2 0 0.0994487 -0.0359498
338 1 8.99733 5.46479 0.012702 4 0.00493015 2 0 0.0994487 -0.134752
339 1 10.5831 6.02196 0.964384 4 0.0121987 2 0 0.0994487 -0.356358
340 1 11.3128 6.37134 0.0776634 4 0.0163877 2 0 0.0994487 0.100342
341 1 10.5187 6.94145 0.15452 4 0.0147271 2 0 0.0994487 -0.0735317
342 1 10.4686 6.92564 1.49614 4 0.0157586 2 1 0.0994487 -0.0634909
343 1 11.9994 5.6274 0.183157 4 0.0180309 2 0 0.0994487 -0.01053
344 1 12.6757 5.81849 0.861776 4 0.0256911 2 0 0.0994487 0.0817473
345 1 11.7774 6.20735 1.05291 4 0.0200705 2 0 0.0994487 0.29224
346 1 13.3219 5.86668 1.55471 4 0.03277 2 0 0.0994487 0.208167
347 1 13.3506 6.58297 0.813679 4 0.0432508 2 0 0.0994487 -0.292114
348 1 13.3212 5.53867 0.0424813 4 0.0305233 2 0 0.0994487 -0.14291
349 1 14.0617 5.71565 0.77266 4 0.0427049 2 0 0.0994487 -0.372686
350 1 14.3278 6.65176 1.40646 4 0.0652384 2 1 0.0994487 -0.103121
351 1 14.1303 6.38483 0.0380077 4 0.0503752 2 0 0.0994487 -0.0826112
352 1 15.0282 5.64393 0.034369 4 0.055448 2 0 0.0994487 0.0573629
353 1 15.8305 5.73813 0.95832 4 0.0763291 2 0 0.0994487 0.625782
354 1 15.0472 6.45091 0.806774 4 0.0754504 2 0 0.0994487 -0.176066
355 1 16.491 6.45257 1.1401 4 0.119936 2 0 0.0994487 0.208301
356 1 15.1058 5.87594 1.69804 4 0.0663366 2 0 0.0994487 -0.0976592
357 1 16.62 5.41933 0.276819 4 0.0828596 2 0 0.0994487 0.0799213
358 1 15.6753 6.3382 0.0390223 4 0.0834521 2 0 0.0994487 0.0398496
359 1 17.8271 5.30128 0.541411 4 0.104878 2 0 0.0994487 0.150328
360 1 17.113 5.42499 1.24767 4 0.0967942 2 0 0.0994487 -0.286575
361 1 17.0619 6.27419 0.411469 4 0.125097 2 0 0.0994487 0.138948
362 1 17.6649 6.24649 1.38542 4 0.147968 2 0 0.0994487 -0.255828
363 1 18.2745 7.0517 1.13153 4 0.218695 2 0 0.0994487 0.645346
364 1 18.3714 6.23173 0.609762 4 0.169306 2 0 0.0994487 0.156181
365 1 19.429 5.75829 0.62055 4 0.178949 2 0 0.0994487 0.0571894
366 1 19.3279 6.55755 1.35081 4 0.237329 2 0 0.0994487 0.277111
367 1 19.9942 6.75229 0.610261 3 0.307405 2 0 0.0990239 -0.0120976
368 1 20.7494 5.77593 0.653722 4 0.24405 2 0 0.0994487 -0.104058
369 1 20.1931 5.61076 1.39557 4 0.200432 2 0 0.0994487 0.312048
370 1 20.7787 6.6124 1.30355 3 0.359575 2 0 0.0983619 -0.344263
371 1 21.6592 6.66248 0.666524 3 0.381173 2 0 0.0979718 -0.0434736
372 1 21.6631 5.87866 1.38528 3 0.299495 2 0 0.0990977 0.0420467
373 1 21.6904 5.73259 0.0517844 3 0.262795 2 0 0.0993738 -0.00149905
374 1 22.6732 5.8279 0.674154 3 0.289207 2 0 0.0991855 0.00266555
375 1 22.6319 6.69333 1.20734 3 0.416837 2 0 0.0971179 -0.201777
376 1 23.3484 6.78052 0.267835 3 0.384758 2 0 0.0978988 -0.125369
377 1 23.4822 5.88496 1.30013 3 0.294283 2 0 0.0991433 -0.176367
378 1 24.3197 6.56281 1.15825 3 0.329034 2 0 0.0987899 0.173609
379 1 24.1457 6.00685 0.427617 3 0.275642 2 0 0.0992884 0.00243931
380 1 25.6831 5.86213 0.700952 4 0.198303 2 0 0.0994487 0.163898
381 1 25.1124 6.04132 1.67733 4 0.236962 2 0 0.0994487 0.00366918
382 1 25.1593 6.74159 0.495153 3 0.287792 2 0 0.0991969 0.0903918
383 1 25.8251 6.59457 1.40775 4 0.239435 2 0 0.0994487 0.0881025
384 1 26.6903 5.84511 1.4763 4 0.15528 2 0 0.0994487 0.0917618
385 1 27.4966 5.54334 0.722172 4 0.108856 2 0 0.0994487 -0.251572
386 1 26.7485 6.36567 0.651888 4 0.177101 2 0 0.0994487 0.0387506
387 1 27.7011 6.47315 1.36539 4 0.137878 2 0 0.0994487 0.131493
388 1 28.3648 5.52203 1.4872 4 0.0842324 2 0 0.0994487 0.0456334
389 1 27.7097 7.0074 0.530173 4 0.155423 2 0 0.0994487 0.0321231
390 1 29.3889 5.30889 0.818726 4 0.0600706 2 0 0.0994487 0.316729
391 1 29.4379 6.18214 1.32212 4 0.0732962 2 0 0.0994487 -0.00338099
392 1 29.5784 6.89773 0.506505 4 0.0835255 2 0 0.0994487 0.0925865
393 1 28.4685 6.20589 0.638647 4 0.0970291 2 0 0.0994487 -0.270081
394 1 29.3762 6.15398 0.0801838 4 0.07349 2 0 0.0994487 0.0969264
395 1 28.4822 5.38976 0.0592959 4 0.0759067 2 0 0.0994487 -0.105003
396 1 30.9636 5.36838 0.595026 4 0.0438016 2 0 0.0994487 0.667849
397 1 30.2159 5.45949 1.46813 4 0.0498247 2 0 0.0994487 0.0540214
398 1 30.3958 6.18258 0.649752 4 0.0590269 2 0 0.0994487 0.329001
399 1 31.2189 6.15516 1.38439 4 0.0504277 2 0 0.0994487 0.587258
400 1 31.1994 6.95407 0.60342 4 0.0607881 2 0 0.0994487 0.812251
401 1 31.7235 5.99622 0.446564 4 0.0459987 2 0 0.0994487 0.879729
402 1 0.261851 7.63199 0.661866 4 8.18574e-05 2 0 0.0994487 -0.876373
403 1 0.831025 8.46344 0.61936 4 0.000115005 2 0 0.0994487 -0.577626
404 1 1.11211 7.86396 1.49711 4 0.00011291 2 0 0.0994487 -0.154428
405 1 0.356955 8.5626 1.47035 4 9.64439e-05 2 0 0.0994487 -0.764984
406 1 1.59266 7.76478 0.37187 4 0.000145589 2 0 0.0994487 -0.089787
407 1 1.72382 8.61735 1.46471 4 0.000177399 2 0 0.0994487 0.039598
408 1 2.48799 7.14986 0.476331 4 0.00022103 2 0 0.0994487 -0.0836941
409 1 2.19177 8.6335 0.399707 4 0.000242495 2 0 0.0994487 -0.137266
410 1 2.39416 7.81099 1.27726 4 0.000232525 2 0 0.0994487 0.086994
411 1 3.01349 8.51445 0.935533 4 0.000393284 2 0 0.0994487 -0.539306
412 1 3.24418 7.77117 0.327041 4 0.000398664 2 0 0.0994487 -0.196203
413 1 3.81243 8.45898 0.0822892 4 0.000591605 2 0 0.0994487 -0.045777
414 1 3.97971 7.67009 1.24863 4 0.000604343 2 0 0.0994487 -0.0554865
415 1 4.70459 8.25653 0.921772 4 0.00101509 2 0 0.0994487 0.295352
416 1 4.67023 7.63706 0.247803 4 0.000867242 2 0 0.0994487 0.0376944
417 1 3.81127 8.34851 1.76162 4 0.000592939 2 0 0.0994487 -0.0574347
418 1 5.86955 8.34822 0.169905 4 0.0019219 2 0 0.0994487 0.113107
419 1 5.48363 7.59071 1.03232 4 0.00147069 2 0 0.0994487 -0.467654
420 1 6.49365 7.53799 0.169175 4 0.00237171 2 0 0.0994487 0.187626
421 1 6.39674 8.23976 1.04384 4 0.00285988 2 0 0.0994487 0.33818
422 1 7.28583 7.76918 0.746313 4 0.00434457 2 1 0.0994487 0.00995835
423 1 8.2859 8.31376 0.868772 4 0.00847946 2 2 0.0994487 0.278446
424 1 7.27857 8.18368 1.7015 4 0.00530006 2 2 0.0994487 -0.174759
425 1 8.05208 7.48784 1.5604 4 0.00627304 2 1 0.0994487 0.185032
426 1 7.99895 7.60312 0.0282118 4 0.00549601 2 0 0.0994487 0.0674152
427 1 9.84313 7.22199 0.72344 4 0.0130211 2 1 0.0994487 -0.346927
428 1 8.91207 7.61626 0.661731 4 0.00935307 2 1 0.0994487 0.158579
429 1 9.73234 8.61964 0.693151 4 0.0178037 2 3 0.0994487 -0.257114
430 1 9.09265 8.69904 1.44495 4 0.0150388 2 9 0.0994487 -0.395674
431 1 9.64026 7.88932 1.60055 4 0.0161869 2 8 0.0994487 -0.340749
432 1 11.3161 7.14287 0.810636 4 0.0219603 2 1 0.0994487 0.448564
433 1 10.5731 7.9454 0.844311 4 0.0211645 2 3 0.0994487 -0.198041
434 1 10.5877 8.70196 1.4255 4 0.0264209 1 8 0.0994487 -0.146543
435 1 11.4057 7.80503 1.60301 4 0.0300738 2 7 0.0994487 0.228699
436 1 11.227 8.11851 0.0422735 4 0.025008 2 0 0.0994487 0.17433
437 1 12.7061 7.28322 0.565784 4 0.0416415 2 0 0.0994487 -0.0531335
438 1 12.178 8.23518 0.590765 4 0.041307 2 2 0.0994487 0.16397
439 1 12.0637 7.15788 1.37768 4 0.0312196 2 3 0.0994487 0.145892
440 1 12.0887 8.68064 1.49044 4 0.0482179 1 8 0.0994487 0.082731
441 1 12.8601 7.99585 1.47598 4 0.0582324 2 6 0.0994487 -0.216933
442 1 14.3373 7.3542 0.580954 4 0.0760313 2 0 0.0994487 0.0649082
443 1 13.6169 8.09282 0.464536 4 0.0703659 2 2 0.0994487 0.0237877
444 1 13.458 7.34024 1.34133 4 0.0594154 2 2 0.0994487 0.054636
445 1 14.2471 8.18371 1.35246 4 0.0985737 2 5 0.0994487 0.0246902
446 1 16.4328 7.18497 0.276798 4 0.141893 2 0 0.0994487 -0.0623899
447 1 15.6276 7.3114 0.923132 4 0.122146 2 1 0.0994487 -0.441735