ITEM: TIMESTEP
34500
ITEM: NUMBER OF ATOMS
9495
ITEM: BOX BOUNDS mm mm mm
0.0000000000000000e+00 3.1748021039364001e+01
0.0000000000000000e+00 3.1748021039364001e+01
-7.4072398406925706e-04 3.1748021039364001e+01
ITEM: ATOMS id type x y z c_phase c_temp c_surf c_nbond c_visc f_3[1]
1 1 0.116341 1.10259 0.464337 4 4.76901e-05 2 0 0.0994487 -0.68194
2 1 0.974108 1.6685 0.77798 4 7.29345e-05 2 0 0.0994487 -0.517031
3 1 0.714648 0.793562 1.41295 4 5.48006e-05 2 0 0.0994487 -0.281794
4 1 0.00336375 1.60273 1.37437 4 5.24788e-05 2 0 0.0994487 -0.804051
5 1 0.729896 0.0633724 0.61602 4 4.38593e-05 3 0 0.0994487 -0.190374
6 1 1.71015 0.808983 1.0155 4 8.71378e-05 2 0 0.0994487 -0.332069
7 1 1.80059 1.47468 0.221075 4 9.51541e-05 2 0 0.0994487 -0.125829
8 1 1.82015 1.66049 1.76126 4 0.000102858 2 0 0.0994487 -0.139533
9 1 2.52093 0.749102 0.203812 4 0.000116684 2 0 0.0994487 -0.142939
10 1 2.59149 0.0538711 1.03726 4 0.000115184 2 0 0.0994487 -0.295004
11 1 2.64922 1.541 0.882848 4 0.00014717 2 0 0.0994487 0.235758
12 1 2.66829 0.815502 1.7457 4 0.000131203 2 0 0.0994487 -0.18704
13 1 3.43386 0.933692 0.956349 4 0.000196534 2 0 0.0994487 0.320244
14 1 3.49924 0.0925696 1.70571 4 0.000160537 2 0 0.0994487 0.178054
15 1 3.60652 1.70798 1.71994 4 0.000248912 2 0 0.0994487 0.0487957
16 1 4.10576 0.858321 0.325305 4 0.000273732 2 0 0.0994487 0.153147
17 1 4.96159 0.56786 1.17466 4 0.00044923 2 0 0.0994487 -0.0370658
18 1 4.91949 1.59987 0.383508 4 0.000519042 2 0 0.0994487 -0.100247
19 1 4.3472 0.941527 1.62884 4 0.000323168 2 0 0.0994487 0.110739
20 1 3.47612 0.111428 0.171027 4 0.000153642 2 0 0.0994487 0.166216
21 1 5.64741 0.645627 0.325839 4 0.000642188 2 0 0.0994487 -0.080604
22 1 5.88414 1.31048 0.938036 4 0.0007955 2 0 0.0994487 -0.199577
23 1 6.57478 1.39104 0.218369 4 0.00110937 2 0 0.0994487 -0.0861323
24 1 5.78374 0.460658 1.69897 4 0.000651934 2 0 0.0994487 -0.0846516
25 1 5.03122 1.72414 1.43602 4 0.000549286 2 0 0.0994487 0.0453735
26 1 6.7138 0.39031 0.865278 4 0.00102777 2 0 0.0994487 -0.0793807
27 1 6.69104 1.00962 1.69374 4 0.00106741 2 0 0.0994487 -0.107922
28 1 8.2679 0.408875 1.07337 4 0.00192868 2 0 0.0994487 -0.100165
29 1 7.36782 1.22285 0.954198 4 0.00152375 2 0 0.0994487 -0.302544
30 1 8.24709 1.39092 0.236779 4 0.00223224 2 0 0.0994487 -0.0460626
31 1 8.12868 1.27217 1.60653 4 0.00203688 2 0 0.0994487 -0.00811539
32 1 7.58247 0.647807 0.140287 4 0.00152515 2 0 0.0994487 -0.110935
33 1 8.85849 0.508506 0.273966 4 0.00243922 2 0 0.0994487 -0.0616452
34 1 9.55301 0.3386 0.888639 4 0.00309637 2 0 0.0994487 0.0050655
35 1 9.02586 1.30716 1.1133 4 0.00298658 2 0 0.0994487 -0.06064
37 1 9.63995 1.37474 0.0900752 4 0.00360835 2 0 0.0994487 0.0992925
38 1 11.2128 0.215893 0.632658 4 0.0056385 2 0 0.0994487 0.203505
39 1 10.3637 1.04743 0.823114 4 0.00461354 2 0 0.0994487 0.53989
40 1 10.523 0.196295 1.44539 4 0.00434029 2 0 0.0994487 0.0644298
41 1 11.2856 1.01846 1.41785 4 0.00680185 2 0 0.0994487 0.16471
42 1 10.5797 1.67706 1.72992 4 0.00581579 2 0 0.0994487 0.118166
43 1 10.2431 0.367861 0.0780499 4 0.0036942 2 0 0.0994487 0.149802
44 1 12.8757 0.211714 0.636805 4 0.0109577 2 0 0.0994487 0.058789
45 1 12.0457 1.07408 0.506655 4 0.00944939 2 0 0.0994487 -0.0235491
46 1 12.1319 0.316439 1.29957 4 0.00861275 2 0 0.0994487 0.0188384
47 1 12.7194 1.19864 1.3723 4 0.0124084 2 0 0.0994487 -0.0305247
48 1 14.3729 0.318493 0.764646 4 0.0178776 2 0 0.0994487 -0.0460373
49 1 13.5924 1.113 0.843618 4 0.0165023 2 0 0.0994487 -0.263049
50 1 14.0399 1.55958 0.167469 4 0.0204217 2 0 0.0994487 -0.089824
51 1 13.6075 0.359834 1.6352 4 0.0142165 2 0 0.0994487 -0.0562623
52 1 14.3777 1.14948 1.47647 4 0.0198891 2 0 0.0994487 -0.0178261
53 1 14.8761 1.55337 0.662943 4 0.0245902 2 0 0.0994487 0.38995
54 1 15.7061 0.770636 0.788259 4 0.0261268 2 0 0.0994487 0.366485
55 1 16.5532 1.54451 0.681338 4 0.0386872 2 0 0.0994487 0.000806356
56 1 15.1422 0.4642 1.64149 4 0.0212553 2 0 0.0994487 0.152078
57 1 16.547 0.712289 1.3421 4 0.0332663 2 0 0.0994487 0.0956271
58 1 15.6341 1.48544 1.3916 4 0.029583 2 0 0.0994487 0.153633
59 1 15.1049 0.711806 0.0677822 4 0.0212517 2 0 0.0994487 0.169203
60 1 17.2544 0.732268 0.547589 4 0.0391909 2 0 0.0994487 0.0286303
61 1 17.9231 1.58109 0.757246 4 0.0518053 2 0 0.0994487 0.0415634
62 1 17.916 0.742935 1.42801 4 0.0455293 2 0 0.0994487 -0.224376
63 1 17.2202 1.74884 1.56274 4 0.0478538 2 0 0.0994487 -0.0984832
64 1 19.5372 0.0167772 0.662766 4 0.0489404 2 0 0.0994487 0.0436437
65 1 18.7918 0.725074 0.684829 4 0.0504369 2 0 0.0994487 -0.269945
66 1 19.5395 1.55488 0.841653 4 0.0634339 2 0 0.0994487 -0.341161
67 1 19.0276 0.158607 1.54508 4 0.0481985 2 0 0.0994487 -0.158664
68 1 19.5934 0.967491 1.68957 4 0.0563876 2 0 0.0994487 0.00835074
69 1 18.6564 1.51302 1.50035 4 0.0573396 2 0 0.0994487 -0.250308
70 1 21.0889 0.349843 1.06749 4 0.0571223 2 0 0.0994487 -0.196127
71 1 20.2493 0.776373 0.980057 4 0.0579031 2 0 0.0994487 -0.0497616
72 1 21.1062 1.65725 0.951506 4 0.0699894 2 0 0.0994487 0.692913
73 1 21.1874 0.765598 0.218806 4 0.0593048 2 0 0.0994487 -0.044591
74 1 20.3457 1.51479 0.193617 4 0.0659238 2 0 0.0994487 -0.0806025
75 1 22.0087 0.262534 0.539755 4 0.0570742 2 0 0.0994487 0.0993591
76 1 22.7913 0.430275 1.40734 4 0.058388 2 0 0.0994487 0.206599
77 1 22.1105 1.14763 1.32981 4 0.0640915 2 0 0.0994487 0.240022
78 1 21.9982 1.59955 0.538558 4 0.0706123 2 0 0.0994487 0.185172
79 1 22.9157 1.07463 0.445168 4 0.0634122 2 0 0.0994487 0.052084
80 1 24.228 0.380179 1.45209 4 0.0562747 2 0 0.0994487 0.0576163
81 1 23.5672 0.357563 0.57369 4 0.0573933 2 0 0.0994487 0.0385705
82 1 24.4367 1.18687 0.754729 4 0.062956 2 0 0.0994487 -0.019297
83 1 23.4757 1.2499 1.4028 4 0.0661686 2 0 0.0994487 0.0298766
84 1 24.955 0.315686 0.551996 4 0.0525055 2 0 0.0994487 -0.0171992
85 1 26.0085 0.383365 1.1715 4 0.0463788 2 0 0.0994487 -0.18586
86 1 25.169 1.12579 1.48087 4 0.0588262 2 0 0.0994487 0.0251046
87 1 25.9301 1.73476 1.35794 4 0.0608264 2 0 0.0994487 0.0345356
88 1 25.8917 0.929212 0.432102 4 0.0507815 2 0 0.0994487 -0.0954201
89 1 27.5736 1.28032 0.38906 4 0.0412517 2 0 0.0994487 0.045449
90 1 27.6142 0.50928 0.874321 4 0.0373447 2 0 0.0994487 0.175387
91 1 26.7559 1.02809 1.26347 4 0.0450295 2 0 0.0994487 -0.236887
92 1 28.3748 0.337482 1.39813 4 0.0318124 2 0 0.0994487 0.00984413
93 1 26.7925 0.240345 0.226621 4 0.0401829 2 0 0.0994487 0.0380746
94 1 28.6489 1.24263 0.742341 4 0.0345157 2 0 0.0994487 0.102406
95 1 29.3912 0.945639 1.56878 4 0.0286709 2 0 0.0994487 -0.0192009
96 1 28.5228 1.71921 1.49749 4 0.0377415 2 0 0.0994487 -0.0429812
97 1 29.8133 0.173958 1.46124 4 0.0246583 2 0 0.0994487 0.133416
98 1 29.2734 0.3547 0.615275 4 0.0269517 2 0 0.0994487 -0.0816813
99 1 31.5874 0.266128 1.25663 4 0.0184138 3 0 0.0994487 0.830097
100 1 30.7016 0.49015 0.470738 4 0.0224101 2 0 0.0994487 0.354852
101 1 30.1009 1.19877 0.774133 4 0.0271138 2 0 0.0994487 0.21092
102 1 30.8649 0.971942 1.39386 4 0.0236335 2 0 0.0994487 0.703281
103 1 1.11081 2.43607 0.129285 4 8.36602e-05 2 0 0.0994487 -0.0373221
104 1 0.133403 2.3821 0.812241 4 6.61204e-05 2 0 0.0994487 -0.984517
105 1 1.28845 3.23764 0.949187 4 0.000116823 2 0 0.0994487 0.222094
106 1 1.13977 2.36077 1.59162 4 9.04488e-05 2 0 0.0994487 -0.222189
107 1 0.386685 3.02999 1.54944 4 8.26802e-05 2 0 0.0994487 -0.671256
108 1 0.332248 3.09582 0.131296 4 7.82446e-05 2 0 0.0994487 -0.59134
109 1 1.90972 2.41867 0.78376 4 0.000124036 2 0 0.0994487 0.0782101
110 1 2.65852 3.28029 0.860875 4 0.000234145 2 0 0.0994487 0.0668054
111 1 2.66931 2.22918 1.53373 4 0.000173583 2 0 0.0994487 0.0829558
112 1 3.2579 3.42668 1.64938 4 0.000332733 2 0 0.0994487 0.0039759
113 1 2.7261 2.38168 0.0557193 4 0.000164514 2 0 0.0994487 0.146601
114 1 3.38195 2.55413 0.779289 4 0.000274995 2 0 0.0994487 0.211585
115 1 4.00679 1.841 0.711184 4 0.000331096 2 0 0.0994487 -0.0361218
116 1 4.91383 2.57277 0.815661 4 0.000648023 2 0 0.0994487 -0.259347
117 1 4.20148 3.3175 0.749446 4 0.000542659 2 0 0.0994487 0.00621707
118 1 4.13245 2.64107 1.58328 4 0.000428716 2 0 0.0994487 0.0270788
119 1 5.65047 2.44269 0.132743 4 0.000895832 2 0 0.0994487 -0.189924
120 1 6.55776 2.18062 0.772597 4 0.00129022 2 0 0.0994487 -0.289373
121 1 5.64874 3.19593 0.952489 4 0.00108999 2 0 0.0994487 -0.754628
122 1 5.861 2.19426 1.49672 4 0.000918767 2 0 0.0994487 0.0126371
123 1 6.52037 3.06691 1.5557 4 0.00155746 2 0 0.0994487 0.0443591
124 1 6.65033 2.92778 0.134227 4 0.00151109 2 0 0.0994487 0.028888
125 1 7.45405 2.22586 0.139832 4 0.00191506 2 0 0.0994487 -0.0535009
126 1 8.08209 2.20208 0.930382 4 0.00254263 2 0 0.0994487 -0.302061
127 1 7.40132 3.06835 0.934051 4 0.0023622 2 0 0.0994487 -0.0455054
128 1 7.29928 2.06035 1.56856 4 0.00172452 2 0 0.0994487 -0.0607313
129 1 8.18545 3.00183 1.65211 4 0.00325202 2 0 0.0994487 -0.0454143
130 1 8.26934 2.9712 0.0392146 4 0.00334624 2 0 0.0994487 -0.150616
131 1 8.90393 2.08699 0.252387 4 0.00335858 2 0 0.0994487 0.00243507
132 1 9.77243 2.0246 1.10996 4 0.00468907 2 0 0.0994487 0.173471
133 1 8.92671 2.97262 0.928693 4 0.00446029 2 0 0.0994487 -0.156744
134 1 9.03062 2.22066 1.70398 4 0.00371121 2 0 0.0994487 -0.0819664
135 1 9.56096 2.90576 0.21312 4 0.00535674 2 0 0.0994487 0.173122
136 1 10.2834 2.1137 0.214297 4 0.00536001 2 0 0.0994487 0.33774
137 1 11.1583 1.82604 0.771092 4 0.00768569 2 0 0.0994487 0.260092
138 1 10.6214 2.80819 0.921535 4 0.0082417 2 0 0.0994487 0.541924
139 1 11.4444 2.82964 1.57484 4 0.0116453 2 0 0.0994487 0.095202
140 1 12.6737 1.94118 0.593851 4 0.0148408 2 0 0.0994487 -0.283931
141 1 11.928 2.64099 0.742299 4 0.0133133 2 0 0.0994487 -0.0386706
142 1 11.9239 1.9206 1.46509 4 0.0107921 2 0 0.0994487 0.0946562
143 1 12.8449 3.01766 1.68597 4 0.0201784 2 0 0.0994487 0.0363582
144 1 13.1791 3.03035 0.848852 4 0.0230018 2 0 0.0994487 -0.440851
145 1 13.3784 1.9912 1.48064 4 0.0182826 2 0 0.0994487 -0.0150687
146 1 14.0206 2.44438 0.927124 4 0.0250913 2 0 0.0994487 -0.133094
147 1 14.0279 3.38359 1.55716 4 0.0324895 2 0 0.0994487 0.0255758
148 1 14.6961 3.43698 0.884932 4 0.0402124 2 0 0.0994487 -0.332953
149 1 14.7823 2.29758 1.44821 4 0.0293299 2 0 0.0994487 0.0469282
150 1 14.8418 2.51505 0.136557 4 0.0313924 2 0 0.0994487 0.173006
151 1 14.1591 3.2262 0.0325348 4 0.0325095 2 0 0.0994487 -0.246104
152 1 13.4137 2.29398 0.0590902 4 0.0205034 2 0 0.0994487 -0.280961
153 1 15.6993 2.44373 0.692668 4 0.0388964 2 0 0.0994487 0.364394
154 1 16.3029 3.20095 0.662084 4 0.0552661 2 0 0.0994487 0.328588
155 1 16.308 2.47951 1.52575 4 0.0466935 2 0 0.0994487 -0.100646
156 1 15.3694 3.25723 1.50191 4 0.0457655 2 0 0.0994487 -0.00766851
157 1 15.5706 3.25854 0.0192499 4 0.0448349 2 0 0.0994487 0.290238
158 1 17.0646 2.35032 0.682778 4 0.0528944 2 0 0.0994487 0.0234813
159 1 17.944 2.92608 0.699539 4 0.0751801 2 0 0.0994487 -0.231191
160 1 18.0193 2.43917 1.58112 4 0.0658781 2 0 0.0994487 -0.149135
161 1 17.0918 3.1162 1.49491 4 0.0668113 2 0 0.0994487 -0.143435
162 1 18.8908 2.35742 1.01358 4 0.07258 2 0 0.0994487 -0.51683
163 1 19.7027 3.2427 1.27782 4 0.0987341 2 0 0.0994487 0.394879
164 1 18.884 2.99607 0.196019 4 0.0863505 2 0 0.0994487 -0.17181
165 1 19.587 2.34239 0.101452 4 0.0769409 2 0 0.0994487 -0.13237
166 1 20.3251 1.78863 1.72442 4 0.0684462 2 0 0.0994487 0.0449528
167 1 21.1565 2.41663 0.458355 4 0.0857191 2 0 0.0994487 0.196187
168 1 20.1948 2.46882 1.11433 4 0.0815974 2 0 0.0994487 0.286742
169 1 21.31 3.29463 1.39314 4 0.115668 2 0 0.0994487 0.0777287
170 1 20.4222 2.99313 0.334941 4 0.0959682 2 0 0.0994487 0.18629
171 1 22.8719 2.07007 1.50872 4 0.0822713 2 0 0.0994487 -0.0221238
172 1 22.9717 2.60199 0.735523 4 0.099587 2 0 0.0994487 0.133326
173 1 22.0961 2.49917 1.23787 4 0.0934484 2 0 0.0994487 0.186437
174 1 21.9898 3.20043 0.598797 4 0.118824 2 0 0.0994487 -0.0757504
175 1 22.6771 3.40124 0.07601 4 0.129315 2 0 0.0994487 0.0760735
176 1 23.7438 1.80844 0.624025 4 0.0745441 2 0 0.0994487 -0.0873596
177 1 24.4289 1.98763 1.61102 4 0.0764135 2 0 0.0994487 -0.0641758
178 1 24.342 2.68296 0.775192 4 0.0940948 2 0 0.0994487 -0.341093
179 1 23.6887 2.90303 1.53628 4 0.105338 2 0 0.0994487 -0.110505
180 1 24.4728 3.51078 1.55704 4 0.123429 2 0 0.0994487 -0.118305
181 1 24.9562 2.84566 0.0146836 4 0.0913293 2 0 0.0994487 -0.0864595
182 1 26.5483 1.79415 0.511367 4 0.0549706 2 0 0.0994487 -0.00560048
183 1 25.1322 1.85613 0.509414 4 0.0695669 2 0 0.0994487 -0.0215293
184 1 25.7918 2.61203 0.707489 4 0.0797254 2 0 0.0994487 0.228202
185 1 25.1579 2.55548 1.52547 4 0.0847327 2 0 0.0994487 0.0576667
186 1 25.7213 3.49812 1.51211 4 0.107675 2 0 0.0994487 0.123857
187 1 26.5364 2.56002 1.53049 4 0.0684991 2 0 0.0994487 0.0579473
188 1 26.1686 3.50068 0.599043 4 0.100106 2 0 0.0994487 0.168845
189 1 27.5039 1.98546 1.23792 4 0.0479557 2 0 0.0994487 -0.186419
190 1 28.2489 2.09022 0.343734 4 0.0428259 2 0 0.0994487 -0.017725
191 1 27.0867 2.6924 0.645359 4 0.0633029 2 0 0.0994487 -0.105601
192 1 27.1998 3.35397 1.41682 4 0.0752306 2 0 0.0994487 -0.0983287
193 1 28.2537 2.75799 1.20639 4 0.0500379 2 0 0.0994487 -0.418307
194 1 27.982 3.21993 0.326384 4 0.0591917 2 0 0.0994487 -0.125257
195 1 29.9568 1.80906 1.70764 4 0.03054 2 0 0.0994487 0.183201
196 1 29.4477 2.04702 0.879698 4 0.0347848 2 0 0.0994487 -0.0070841
197 1 29.1956 2.6589 0.290703 4 0.0405863 2 0 0.0994487 -0.0578285
198 1 29.2495 3.2651 1.17365 4 0.0465834 2 0 0.0994487 0.118633
199 1 30.9114 1.98502 0.924207 4 0.0290911 2 0 0.0994487 0.967251
200 1 30.1815 2.71094 1.00186 4 0.0356416 2 0 0.0994487 0.67511
201 1 31.0247 3.35309 0.97101 4 0.0373215 2 0 0.0994487 0.998409
202 1 30.9865 2.69483 1.72648 4 0.0328895 2 0 0.0994487 0.578501
203 1 30.1092 3.25953 0.132205 4 0.03889 2 0 0.0994487 -0.0443659
204 1 30.4116 1.90909 0.0255368 4 0.0292519 2 0 0.0994487 0.106045
205 1 31.1434 2.66402 0.0761253 4 0.031423 2 0 0.0994487 0.70882
206 1 0.293831 3.78503 0.918557 4 9.67853e-05 2 0 0.0994487 -0.999347
207 1 0.143046 4.59443 0.482118 4 0.000109973 2 0 0.0994487 -0.784494
208 1 1.14036 4.67093 0.986638 4 0.000161907 2 0 0.0994487 -0.51675
209 1 0.0884667 5.26681 1.27761 4 0.000128145 2 0 0.0994487 -0.887458
210 1 1.04069 3.86421 0.0595682 4 0.000116949 2 0 0.0994487 0.0148882
211 1 1.84117 4.04604 0.847105 4 0.00019282 2 0 0.0994487 0.00827038
212 1 2.54049 4.85585 1.13748 4 0.000339786 2 0 0.0994487 -0.333845
213 1 2.64953 4.14475 0.20674 4 0.000302468 2 0 0.0994487 -0.0285717
214 1 1.89758 4.96895 0.278386 4 0.000253666 2 0 0.0994487 -0.153433
215 1 3.40771 4.86189 0.161635 4 0.000533503 2 0 0.0994487 -0.0163875
216 1 3.494 4.07675 0.885909 4 0.000458993 2 0 0.0994487 0.0268959
217 1 4.91235 4.00001 1.18344 4 0.000937758 2 0 0.0994487 0.0115154
218 1 4.04658 4.88002 1.14639 4 0.000744677 2 0 0.0994487 0.264491
219 1 4.26027 4.18509 0.149001 4 0.000701684 2 0 0.0994487 0.0377388
220 1 5.00947 4.74001 0.341082 4 0.00119481 2 0 0.0994487 0.0765411
221 1 5.77735 3.9378 0.198707 4 0.00133748 2 0 0.0994487 0.0260165
222 1 6.48883 3.76611 0.772067 4 0.00184052 2 0 0.0994487 0.204556
223 1 5.68025 4.73638 1.02487 4 0.00171123 2 0 0.0994487 -0.621678
224 1 6.66321 4.5115 1.6428 4 0.00245728 2 0 0.0994487 0.158935
225 1 6.68072 5.1315 0.885352 4 0.00306794 2 0 0.0994487 0.206862
226 1 8.1982 3.892 0.700757 4 0.00440267 2 0 0.0994487 -0.369897
227 1 7.40842 4.46072 0.5468 4 0.00359987 2 0 0.0994487 -0.0252104
228 1 7.39886 3.87029 1.49684 4 0.002935 2 0 0.0994487 0.102579
229 1 8.20004 4.61106 1.48677 4 0.00537766 2 0 0.0994487 -0.0118351
230 1 9.8976 3.57792 0.885667 4 0.00793654 2 0 0.0994487 0.592811
231 1 9.07913 4.56551 0.821335 4 0.00777123 2 0 0.0994487 -0.658534
232 1 9.86266 4.50302 0.126324 4 0.00970064 2 0 0.0994487 0.095867
233 1 9.07829 3.76256 1.49819 4 0.00609875 2 0 0.0994487 -0.0708837
234 1 9.86881 4.3462 1.65532 4 0.0100435 2 0 0.0994487 -0.0856607
235 1 8.98541 3.86821 0.0631775 4 0.0059025 2 0 0.0994487 -0.138752
236 1 11.408 3.64493 0.778297 4 0.0146831 2 0 0.0994487 0.20207
237 1 10.5891 4.66652 0.906264 4 0.0143938 2 0 0.0994487 0.0450917
238 1 11.3867 4.69403 0.230734 4 0.0197085 2 0 0.0994487 -0.049888
239 1 10.7059 3.56689 1.58785 4 0.0110044 2 0 0.0994487 -0.0448473
240 1 11.3652 4.3716 1.70545 4 0.0179187 2 0 0.0994487 -0.0798259
241 1 11.3894 5.27213 0.983682 4 0.0232371 2 0 0.0994487 -0.67447
242 1 10.5826 3.84888 0.176129 4 0.0108433 2 0 0.0994487 0.210468
243 1 12.5168 3.57716 0.814749 4 0.0216686 2 0 0.0994487 -0.0105736
244 1 12.1916 4.55033 1.00021 4 0.0254125 2 0 0.0994487 0.105061
245 1 12.7362 4.99738 1.68903 4 0.033088 2 0 0.0994487 0.191331
246 1 13.2258 4.67863 0.80017 4 0.0375379 2 0 0.0994487 -0.00469334
247 1 12.6435 4.61885 0.0632315 4 0.0308456 2 0 0.0994487 -0.0335791
248 1 13.9891 4.12825 0.69648 4 0.0411393 2 0 0.0994487 -0.430176
249 1 13.4832 4.21781 1.59317 4 0.0347874 2 0 0.0994487 0.0820189
250 1 14.2046 5.11838 1.52001 4 0.0569623 2 0 0.0994487 -0.0289905
251 1 14.9402 5.01141 0.811699 4 0.0683049 2 0 0.0994487 -0.0527254
252 1 14.9642 4.4167 1.59432 4 0.0581404 2 0 0.0994487 -0.063562
253 1 14.1405 4.90647 0.0597868 4 0.0529378 2 0 0.0994487 -0.0856941
254 1 14.961 4.19423 0.096508 4 0.0528764 2 0 0.0994487 0.0322728
255 1 15.6685 4.06642 0.926277 4 0.0620649 2 0 0.0994487 0.872592
256 1 15.8798 4.77595 0.186426 4 0.0798451 2 0 0.0994487 0.165389
257 1 16.5936 4.58036 0.900182 4 0.0913486 2 0 0.0994487 -0.0789863
258 1 16.3184 3.95875 1.6903 4 0.0712927 2 0 0.0994487 -0.0433976
259 1 15.8111 5.05317 1.64084 4 0.0854554 2 0 0.0994487 0.0994988
260 1 17.2689 3.83372 0.811237 4 0.0860666 2 0 0.0994487 -0.345386
261 1 18.0864 4.48855 1.09806 4 0.118094 2 0 0.0994487 -0.612172
262 1 17.9525 3.63794 1.65602 4 0.091292 2 0 0.0994487 -0.192806
263 1 17.4569 4.57727 0.0147963 4 0.106409 2 0 0.0994487 -0.0974106
264 1 18.1348 3.8547 0.0583493 4 0.0985558 2 0 0.0994487 -0.120517
265 1 18.8779 3.70667 0.95022 4 0.104415 2 0 0.0994487 0.0692234
266 1 18.8235 4.60949 0.361826 4 0.132164 2 0 0.0994487 0.115608
267 1 19.6906 4.67872 1.0803 4 0.159896 2 0 0.0994487 0.931528
268 1 18.7859 5.27693 1.20102 4 0.169168 2 0 0.0994487 0.599108
269 1 19.5987 3.76722 0.227421 4 0.112815 2 0 0.0994487 0.164269
270 1 20.4384 3.82188 1.23329 4 0.12978 2 0 0.0994487 0.325953
271 1 20.8846 4.71868 1.39403 4 0.195762 2 0 0.0994487 0.149057
272 1 21.5775 4.95128 0.810455 4 0.237402 2 0 0.0994487 -0.0037528
273 1 21.0824 3.93136 0.512408 4 0.144206 2 0 0.0994487 0.0883026
274 1 20.1339 4.78559 0.352846 4 0.17609 2 0 0.0994487 0.145586
275 1 22.8205 3.63186 1.42135 4 0.141059 2 0 0.0994487 -0.0183998
276 1 21.9406 4.13318 1.31068 4 0.16905 2 0 0.0994487 0.0272039
277 1 22.4705 5.17735 1.27286 3 0.270505 2 0 0.0993238 0.0207067
278 1 22.6119 4.34705 0.510028 4 0.1866 2 0 0.0994487 -0.0221061
279 1 23.5735 3.63903 0.782677 4 0.140834 2 0 0.0994487 0.185558
280 1 24.336 4.32055 0.625018 4 0.17447 2 0 0.0994487 -0.150094
281 1 23.4679 4.54946 1.33355 4 0.202751 2 0 0.0994487 -0.0790557
282 1 24.8518 5.25716 0.566763 4 0.230089 2 0 0.0994487 0.0409069
283 1 23.5518 5.06386 0.533607 4 0.248294 2 0 0.0994487 -0.0968888
284 1 25.0086 4.50055 1.62342 4 0.17069 2 0 0.0994487 -0.0421952
285 1 25.0629 3.68037 0.802132 4 0.125018 2 0 0.0994487 -0.187918
286 1 24.363 5.28843 1.43377 3 0.250777 2 0 0.0994445 -0.15471
287 1 25.6904 5.1389 1.34266 4 0.193449 2 0 0.0994487 0.2101
288 1 26.3575 4.29031 1.37159 4 0.126054 2 0 0.0994487 0.149482
289 1 26.5026 4.97257 0.640732 4 0.152162 2 0 0.0994487 0.0989669
290 1 25.5284 4.40089 0.388179 4 0.150845 2 0 0.0994487 0.0559476
291 1 27.3302 4.86961 1.40568 4 0.12153 2 0 0.0994487 0.00660965
292 1 27.9624 3.97641 1.10408 4 0.0761108 2 0 0.0994487 -0.309506
293 1 28.2771 4.73475 0.706344 4 0.0915454 2 0 0.0994487 -0.0812473
294 1 27.0674 4.04323 0.570038 4 0.0978641 2 0 0.0994487 0.0120221
295 1 28.9321 3.77016 0.487204 4 0.0565839 2 0 0.0994487 -0.00703301
296 1 29.0873 4.52317 1.33085 4 0.0694836 2 0 0.0994487 0.0574853
297 1 29.9979 4.07209 1.02303 4 0.0498149 2 0 0.0994487 -0.275233
298 1 31.0296 3.97382 0.373364 4 0.0421904 2 0 0.0994487 0.657583
299 1 30.2046 4.67765 0.491317 4 0.057554 2 0 0.0994487 0.00995812
300 1 30.9783 4.59929 1.41131 4 0.0497515 2 0 0.0994487 0.679914
301 1 0.908283 5.53205 0.461647 4 0.000187473 2 0 0.0994487 -0.463784
302 1 1.53161 5.51184 1.37971 4 0.000239799 2 0 0.0994487 -0.117386
303 1 0.793684 6.22023 1.2768 4 0.000216318 2 0 0.0994487 -0.703381
304 1 0.257003 6.91734 1.50738 4 0.000212 2 0 0.0994487 -0.772633
305 1 0.969942 6.9454 0.573423 4 0.000276857 2 0 0.0994487 -0.473533
306 1 1.7053 7.02884 1.23811 4 0.000368137 2 0 0.0994487 0.0665184
307 1 1.89588 6.19966 0.519025 4 0.00034198 2 0 0.0994487 -0.1564
308 1 3.10475 5.61709 1.30057 4 0.00053799 2 0 0.0994487 0.0402533
309 1 2.26359 6.15348 1.40977 4 0.000388824 2 0 0.0994487 0.0408564
310 1 3.25442 6.96226 1.12748 4 0.000854802 2 0 0.0994487 -0.0541227
311 1 2.68177 5.61289 0.273587 4 0.000438479 2 0 0.0994487 -0.0596852
312 1 3.39503 6.28191 0.500536 4 0.000791018 2 0 0.0994487 -0.121443
313 1 4.18979 5.46246 0.325783 4 0.000955964 2 0 0.0994487 0.0310186
314 1 4.93434 5.42873 1.31778 4 0.00148073 2 0 0.0994487 -0.235099
315 1 4.13622 6.09659 1.22779 4 0.00113808 2 0 0.0994487 -0.0893879
316 1 4.82567 6.23357 0.333842 4 0.00166438 2 0 0.0994487 -0.034575
317 1 4.77312 6.79931 1.15967 4 0.00193042 2 0 0.0994487 -0.305929
318 1 4.00267 7.02511 0.221759 4 0.00129243 2 0 0.0994487 -0.0853433
319 1 5.78575 5.42185 0.301847 4 0.00213664 2 0 0.0994487 0.0125032
320 1 5.6935 6.24342 0.9632 4 0.00262128 2 0 0.0994487 -0.967783
321 1 6.4578 5.98425 1.59671 4 0.00345149 2 0 0.0994487 0.140915
322 1 6.43234 6.86927 1.00965 4 0.00439273 2 0 0.0994487 0.85168
323 1 6.37773 6.04115 0.154639 4 0.00316916 2 0 0.0994487 0.111113
324 1 5.54993 7.05206 0.147147 4 0.00281059 2 0 0.0994487 0.0363871
325 1 8.21355 5.31419 0.694273 4 0.00669828 2 0 0.0994487 -0.089588
326 1 7.32761 6.15925 0.754293 4 0.00552387 2 0 0.0994487 0.225735
327 1 7.39163 5.41839 1.49138 4 0.00460227 2 0 0.0994487 0.136755
328 1 8.23884 6.11028 1.49159 4 0.00854712 2 0 0.0994487 0.0187391
329 1 8.01352 6.85364 0.728993 4 0.00958097 2 0 0.0994487 0.0691913
330 1 7.28191 6.86379 1.59601 4 0.00688073 2 1 0.0994487 0.126056
331 1 7.33029 5.3575 0.0461812 4 0.00417658 2 0 0.0994487 0.0813578
332 1 9.76796 5.3194 0.792562 4 0.0125413 2 0 0.0994487 0.328453
333 1 8.88016 6.18865 0.736908 4 0.0115866 2 0 0.0994487 -0.235538
334 1 9.05434 5.3271 1.5973 4 0.00964285 2 0 0.0994487 -0.0628293
335 1 9.73844 6.19052 1.46731 4 0.0166732 2 0 0.0994487 -0.106492
336 1 9.09351 6.95013 1.463 4 0.016415 2 2 0.0994487 -0.0760457
337 1 9.76329 6.23201 0.0941385 4 0.0162335 2 0 0.0994487 -0.0359503
338 1 8.99733 5.46479 0.012702 4 0.00952984 2 0 0.0994487 -0.134753
339 1 10.5831 6.02196 0.964384 4 0.0215086 2 0 0.0994487 -0.356313
340 1 11.3128 6.37134 0.0776634 4 0.0281268 2 0 0.0994487 0.100343
341 1 10.5187 6.94145 0.15452 4 0.0258656 2 0 0.0994487 -0.0735297
342 1 10.4686 6.92564 1.49614 4 0.027506 2 1 0.0994487 -0.0634586
343 1 11.9994 5.6274 0.183157 4 0.030129 2 0 0.0994487 -0.0105297
344 1 12.6757 5.81849 0.861776 4 0.0411815 2 0 0.0994487 0.0817498
345 1 11.7774 6.20735 1.05291 4 0.033396 2 0 0.0994487 0.29227
346 1 13.3219 5.86668 1.55471 4 0.0510965 2 0 0.0994487 0.208168
347 1 13.3506 6.58297 0.813679 4 0.0660176 2 0 0.0994487 -0.292109
348 1 13.3212 5.53867 0.0424813 4 0.0478426 2 0 0.0994487 -0.14291
349 1 14.0617 5.71565 0.77266 4 0.0644367 2 0 0.0994487 -0.372675
350 1 14.3278 6.65176 1.40646 4 0.0950657 2 1 0.0994487 -0.103123
351 1 14.1303 6.38483 0.0380077 4 0.0752233 2 0 0.0994487 -0.0826106
352 1 15.0282 5.64393 0.034369 4 0.08115 2 0 0.0994487 0.057363
353 1 15.8305 5.73813 0.95832 4 0.107688 2 0 0.0994487 0.625778
354 1 15.0472 6.45091 0.806774 4 0.107528 2 0 0.0994487 -0.176066
355 1 16.491 6.45257 1.1401 4 0.162356 2 0 0.0994487 0.207603
356 1 15.1058 5.87594 1.69804 4 0.0954926 2 0 0.0994487 -0.0976768
357 1 16.62 5.41933 0.276819 4 0.115218 2 0 0.0994487 0.0799196
358 1 15.6753 6.3382 0.0390223 4 0.117273 2 0 0.0994487 0.0398498
359 1 17.8271 5.30128 0.541411 4 0.140962 2 0 0.0994487 0.150324
360 1 17.113 5.42499 1.24767 4 0.131899 2 0 0.0994487 -0.286579
361 1 17.0619 6.27419 0.411469 4 0.16746 2 0 0.0994487 0.138906
362 1 17.6649 6.24649 1.38542 4 0.1941 2 0 0.0994487 -0.256508
363 1 18.2745 7.0517 1.13153 3 0.276468 2 0 0.0992825 0.663141
364 1 18.3714 6.23173 0.609762 4 0.217364 2 0 0.0994487 0.156197
365 1 19.429 5.75829 0.62055 4 0.225203 2 0 0.0994487 0.0571836
366 1 19.3279 6.55755 1.35081 3 0.29242 2 0 0.099159 0.279092
367 1 19.9942 6.75229 0.610261 3 0.368722 2 0 0.0982067 -0.012078
368 1 20.7494 5.77593 0.653722 3 0.296163 2 0 0.0991271 -0.104068
369 1 20.1931 5.61076 1.39557 4 0.248021 2 0 0.0994487 0.312041
370 1 20.7787 6.6124 1.30355 3 0.423678 2 0 0.0969176 -0.344272
371 1 21.6592 6.66248 0.666524 3 0.445814 2 0 0.0961716 -0.043457
372 1 21.6631 5.87866 1.38528 3 0.356424 2 0 0.0984122 0.0420375
373 1 21.6904 5.73259 0.0517844 3 0.316689 2 0 0.0989295 -0.00150177
374 1 22.6732 5.8279 0.674154 3 0.344598 2 0 0.0985878 0.00265778
375 1 22.6319 6.69333 1.20734 3 0.483204 2 0 0.0944939 -0.202406
376 1 23.3484 6.78052 0.267835 3 0.448846 2 0 0.0960566 -0.125374
377 1 23.4822 5.88496 1.30013 3 0.350081 2 0 0.0985089 -0.176368
378 1 24.3197 6.56281 1.15825 3 0.388443 2 0 0.0978209 0.1736
379 1 24.1457 6.00685 0.427617 3 0.329696 2 0 0.0987819 0.0024383
380 1 25.6831 5.86213 0.700952 4 0.243925 2 0 0.0994487 0.163897
381 1 25.1124 6.04132 1.67733 3 0.287224 2 0 0.0992014 0.00366905
382 1 25.1593 6.74159 0.495153 3 0.344067 2 0 0.0985952 0.0903918
383 1 25.8251 6.59457 1.40775 3 0.290907 2 0 0.0991716 0.0881028
384 1 26.6903 5.84511 1.4763 4 0.195441 2 0 0.0994487 0.0917618
385 1 27.4966 5.54334 0.722172 4 0.141517 2 0 0.0994487 -0.251573
386 1 26.7485 6.36567 0.651888 4 0.221065 2 0 0.0994487 0.0387509
387 1 27.7011 6.47315 1.36539 4 0.176504 2 0 0.0994487 0.131493
388 1 28.3648 5.52203 1.4872 4 0.112656 2 0 0.0994487 0.0456332
389 1 27.7097 7.0074 0.530173 4 0.197611 2 0 0.0994487 0.0321237
390 1 29.3889 5.30889 0.818726 4 0.0836884 2 0 0.0994487 0.316726
391 1 29.4379 6.18214 1.32212 4 0.100674 2 0 0.0994487 -0.0033811
392 1 29.5784 6.89773 0.506505 4 0.11394 2 0 0.0994487 0.0925866
393 1 28.4685 6.20589 0.638647 4 0.128641 2 0 0.0994487 -0.270081
394 1 29.3762 6.15398 0.0801838 4 0.10096 2 0 0.0994487 0.0969263
395 1 28.4822 5.38976 0.0592959 4 0.10286 2 0 0.0994487 -0.105003
396 1 30.9636 5.36838 0.595026 4 0.0641726 2 0 0.0994487 0.667849
397 1 30.2159 5.45949 1.46813 4 0.0714741 2 0 0.0994487 0.0540213
398 1 30.3958 6.18258 0.649752 4 0.0837022 2 0 0.0994487 0.329001
399 1 31.2189 6.15516 1.38439 4 0.0733123 2 0 0.0994487 0.587258
400 1 31.1994 6.95407 0.60342 4 0.0870789 2 0 0.0994487 0.812251
401 1 31.7235 5.99622 0.446564 4 0.067843 2 0 0.0994487 0.879729
402 1 0.261851 7.63199 0.661866 4 0.000253297 2 0 0.0994487 -0.876374
403 1 0.831025 8.46344 0.61936 4 0.000340403 2 0 0.0994487 -0.577626
404 1 1.11211 7.86396 1.49711 4 0.000332243 2 0 0.0994487 -0.154428
405 1 0.356955 8.5626 1.47035 4 0.000294507 2 0 0.0994487 -0.764984
406 1 1.59266 7.76478 0.37187 4 0.000412015 2 0 0.0994487 -0.0897876
407 1 1.72382 8.61735 1.46471 4 0.000493063 2 0 0.0994487 0.0395973
408 1 2.48799 7.14986 0.476331 4 0.000588854 2 0 0.0994487 -0.0836955
409 1 2.19177 8.6335 0.399707 4 0.000648633 2 0 0.0994487 -0.137267
410 1 2.39416 7.81099 1.27726 4 0.000619741 2 0 0.0994487 0.0869927
411 1 3.01349 8.51445 0.935533 4 0.000994389 2 0 0.0994487 -0.539312
412 1 3.24418 7.77117 0.327041 4 0.00100275 2 0 0.0994487 -0.196204
413 1 3.81243 8.45898 0.0822892 4 0.00143576 2 0 0.0994487 -0.0457781
414 1 3.97971 7.67009 1.24863 4 0.00145432 2 0 0.0994487 -0.0554883
415 1 4.70459 8.25653 0.921772 4 0.0023236 2 0 0.0994487 0.295339
416 1 4.67023 7.63706 0.247803 4 0.00201262 2 0 0.0994487 0.0376926
417 1 3.81127 8.34851 1.76162 4 0.00144041 2 0 0.0994487 -0.0574356
418 1 5.86955 8.34822 0.169905 4 0.00415341 2 0 0.0994487 0.113106
419 1 5.48363 7.59071 1.03232 4 0.00323995 2 0 0.0994487 -0.467661
420 1 6.49365 7.53799 0.169175 4 0.00500648 2 0 0.0994487 0.187625
421 1 6.39674 8.23976 1.04384 4 0.00594423 2 0 0.0994487 0.338189
422 1 7.28583 7.76918 0.746313 4 0.00869744 2 1 0.0994487 0.00996765
423 1 8.2859 8.31376 0.868772 4 0.0160766 2 2 0.0994487 0.27833
424 1 7.27857 8.18368 1.7015 4 0.0104738 2 2 0.0994487 -0.17476
425 1 8.05208 7.48784 1.5604 4 0.0121493 2 1 0.0994487 0.185008
426 1 7.99895 7.60312 0.0282118 4 0.0108247 2 0 0.0994487 0.0674145
427 1 9.84313 7.22199 0.72344 4 0.0232829 2 1 0.0994487 -0.346934
428 1 8.91207 7.61626 0.661731 4 0.0174027 2 1 0.0994487 0.15853
429 1 9.73234 8.61964 0.693151 4 0.0314281 2 3 0.0994487 -0.257037
430 1 9.09265 8.69904 1.44495 4 0.027195 2 9 0.0994487 -0.395008
431 1 9.64026 7.88932 1.60055 4 0.0287805 2 8 0.0994487 -0.340583
432 1 11.3161 7.14287 0.810636 4 0.0368264 2 1 0.0994487 0.448617
433 1 10.5731 7.9454 0.844311 4 0.0362709 2 3 0.0994487 -0.197852
434 1 10.5877 8.70196 1.4255 4 0.0447089 1 8 0.0994487 -0.14795
435 1 11.4057 7.80503 1.60301 4 0.0495056 2 7 0.0994487 0.228669
436 1 11.227 8.11851 0.0422735 4 0.0420343 2 0 0.0994487 0.174336
437 1 12.7061 7.28322 0.565784 4 0.0647189 2 0 0.0994487 -0.0531378
438 1 12.178 8.23518 0.590765 4 0.0651798 2 2 0.0994487 0.163897
439 1 12.0637 7.15788 1.37768 4 0.0501865 2 3 0.0994487 0.145829
440 1 12.0887 8.68064 1.49044 4 0.0755475 1 8 0.0994487 0.0820049
441 1 12.8601 7.99585 1.47598 4 0.0885556 2 6 0.0994487 -0.217467
442 1 14.3373 7.3542 0.580954 4 0.109741 2 0 0.0994487 0.0649179
443 1 13.6169 8.09282 0.464536 4 0.103763 2 2 0.0994487 0.0238127
444 1 13.458 7.34024 1.34133 4 0.0889336 2 2 0.0994487 0.0547088
445 1 14.2471 8.18371 1.35246 4 0.140359 2 5 0.0994487 0.0152137
446 1 16.4328 7.18497 0.276798 4 0.189776 2 0 0.0994487 -0.0630787
447 1 15.6276 7.3114 0.923132 4 0.166894 2 1 0.0994487 -0.440627
448 1 15.0689 8.29247 0.865596 4 0.177267 2 2 0.0994487 -0.309335