ITEM: TIMESTEP
6500
ITEM: NUMBER OF ATOMS
9495
ITEM: BOX BOUNDS mm mm mm
0.0000000000000000e+00 3.1748021039364001e+01
0.0000000000000000e+00 3.1748021039364001e+01
-7.4072398406925706e-04 3.1748021039364001e+01
ITEM: ATOMS id type x y z c_phase c_temp c_surf c_nbond c_visc f_3[1]
1 1 0.116341 1.10259 0.464337 4 3.96374e-21 2 0 0.0994487 -0.681941
2 1 0.974108 1.6685 0.77798 4 4.69152e-20 2 0 0.0994487 -0.517032
3 1 0.714648 0.793562 1.41295 4 1.10924e-20 2 0 0.0994487 -0.281794
4 1 0.00336375 1.60273 1.37437 4 5.44947e-21 2 0 0.0994487 -0.804051
5 1 0.729896 0.0633724 0.61602 4 4.63276e-21 3 0 0.0994487 -0.190374
6 1 1.71015 0.808983 1.0155 4 1.08096e-19 2 0 0.0994487 -0.33207
7 1 1.80059 1.47468 0.221075 4 1.70427e-19 2 0 0.0994487 -0.125829
8 1 1.82015 1.66049 1.76126 4 2.36796e-19 2 0 0.0994487 -0.139533
9 1 2.52093 0.749102 0.203812 4 4.1633e-19 2 0 0.0994487 -0.14294
10 1 2.59149 0.0538711 1.03726 4 2.92619e-19 2 0 0.0994487 -0.295005
11 1 2.64922 1.541 0.882848 4 1.52717e-18 2 0 0.0994487 0.235752
12 1 2.66829 0.815502 1.7457 4 6.55974e-19 2 0 0.0994487 -0.187041
13 1 3.43386 0.933692 0.956349 4 4.72649e-18 2 0 0.0994487 0.320239
14 1 3.49924 0.0925696 1.70571 4 1.60248e-18 2 0 0.0994487 0.178053
15 1 3.60652 1.70798 1.71994 4 1.10076e-17 2 0 0.0994487 0.0487943
16 1 4.10576 0.858321 0.325305 4 1.54753e-17 2 0 0.0994487 0.153145
17 1 4.96159 0.56786 1.17466 4 7.84424e-17 2 0 0.0994487 -0.0370686
18 1 4.91949 1.59987 0.383508 4 1.84911e-16 2 0 0.0994487 -0.100249
19 1 4.3472 0.941527 1.62884 4 2.65505e-17 2 0 0.0994487 0.110737
20 1 3.47612 0.111428 0.171027 4 1.35245e-18 2 0 0.0994487 0.166215
21 1 5.64741 0.645627 0.325839 4 3.04739e-16 2 0 0.0994487 -0.0806058
22 1 5.88414 1.31048 0.938036 4 1.08418e-15 2 0 0.0994487 -0.199594
23 1 6.57478 1.39104 0.218369 4 3.96828e-15 2 0 0.0994487 -0.0861349
24 1 5.78374 0.460658 1.69897 4 2.91764e-16 2 0 0.0994487 -0.0846536
25 1 5.03122 1.72414 1.43602 4 2.52493e-16 2 0 0.0994487 0.0453704
26 1 6.7138 0.39031 0.865278 4 2.08193e-15 2 0 0.0994487 -0.0793832
27 1 6.69104 1.00962 1.69374 4 3.04714e-15 2 0 0.0994487 -0.107925
28 1 8.2679 0.408875 1.07337 4 3.62384e-14 2 0 0.0994487 -0.100168
29 1 7.36782 1.22285 0.954198 4 1.73006e-14 2 0 0.0994487 -0.302561
30 1 8.24709 1.39092 0.236779 4 8.76385e-14 2 0 0.0994487 -0.046066
31 1 8.12868 1.27217 1.60653 4 6.51804e-14 2 0 0.0994487 -0.00811871
32 1 7.58247 0.647807 0.140287 4 1.11801e-14 2 0 0.0994487 -0.110937
33 1 8.85849 0.508506 0.273966 4 9.49201e-14 2 0 0.0994487 -0.0616477
34 1 9.55301 0.3386 0.888639 4 3.13569e-13 2 0 0.0994487 0.00506182
35 1 9.02586 1.30716 1.1133 4 3.86569e-13 2 0 0.0994487 -0.0606519
37 1 9.63995 1.37474 0.0900752 4 7.77435e-13 2 0 0.0994487 0.0992898
38 1 11.2128 0.215893 0.632658 4 4.46899e-12 2 0 0.0994487 0.203501
39 1 10.3637 1.04743 0.823114 4 2.86242e-12 2 0 0.0994487 0.53988
40 1 10.523 0.196295 1.44539 4 1.31695e-12 2 0 0.0994487 0.064427
41 1 11.2856 1.01846 1.41785 4 1.36334e-11 2 0 0.0994487 0.164703
42 1 10.5797 1.67706 1.72992 4 7.64211e-12 2 0 0.0994487 0.118162
43 1 10.2431 0.367861 0.0780499 4 6.34278e-13 2 0 0.0994487 0.1498
44 1 12.8757 0.211714 0.636805 4 6.69028e-11 2 0 0.0994487 0.0587852
45 1 12.0457 1.07408 0.506655 4 5.41288e-11 2 0 0.0994487 -0.0235545
46 1 12.1319 0.316439 1.29957 4 2.42285e-11 2 0 0.0994487 0.0188335
47 1 12.7194 1.19864 1.3723 4 1.832e-10 2 0 0.0994487 -0.0305324
48 1 14.3729 0.318493 0.764646 4 7.01492e-10 2 0 0.0994487 -0.0460404
49 1 13.5924 1.113 0.843618 4 6.81517e-10 2 0 0.0994487 -0.26306
50 1 14.0399 1.55958 0.167469 4 1.88152e-09 2 0 0.0994487 -0.0898272
51 1 13.6075 0.359834 1.6352 4 2.09738e-10 2 0 0.0994487 -0.0562655
52 1 14.3777 1.14948 1.47647 4 1.88239e-09 2 0 0.0994487 -0.0178306
53 1 14.8761 1.55337 0.662943 4 6.79518e-09 2 0 0.0994487 0.389942
54 1 15.7061 0.770636 0.788259 4 7.55594e-09 2 0 0.0994487 0.36648
55 1 16.5532 1.54451 0.681338 4 6.58833e-08 2 0 0.0994487 0.00080008
56 1 15.1422 0.4642 1.64149 4 1.98272e-09 2 0 0.0994487 0.152076
57 1 16.547 0.712289 1.3421 4 2.12192e-08 2 0 0.0994487 0.0956228
58 1 15.6341 1.48544 1.3916 4 1.86894e-08 2 0 0.0994487 0.153627
59 1 15.1049 0.711806 0.0677822 4 1.92355e-09 2 0 0.0994487 0.169201
60 1 17.2544 0.732268 0.547589 4 4.17835e-08 2 0 0.0994487 0.0286274
61 1 17.9231 1.58109 0.757246 4 3.28002e-07 2 0 0.0994487 0.0415589
62 1 17.916 0.742935 1.42801 4 9.63479e-08 2 0 0.0994487 -0.22438
63 1 17.2202 1.74884 1.56274 4 1.99889e-07 2 0 0.0994487 -0.0984869
64 1 19.5372 0.0167772 0.662766 4 1.07942e-07 2 0 0.0994487 0.043643
65 1 18.7918 0.725074 0.684829 4 1.90879e-07 2 0 0.0994487 -0.269947
66 1 19.5395 1.55488 0.841653 4 1.25658e-06 2 0 0.0994487 -0.341164
67 1 19.0276 0.158607 1.54508 4 9.58717e-08 2 0 0.0994487 -0.158665
68 1 19.5934 0.967491 1.68957 4 4.67629e-07 2 0 0.0994487 0.00834942
69 1 18.6564 1.51302 1.50035 4 5.76291e-07 2 0 0.0994487 -0.250311
70 1 21.0889 0.349843 1.06749 4 4.3792e-07 2 0 0.0994487 -0.196127
71 1 20.2493 0.776373 0.980057 4 5.84532e-07 2 0 0.0994487 -0.0497637
72 1 21.1062 1.65725 0.951506 4 3.46662e-06 2 0 0.0994487 0.69291
73 1 21.1874 0.765598 0.218806 4 6.90495e-07 2 0 0.0994487 -0.0445915
74 1 20.3457 1.51479 0.193617 4 1.61831e-06 2 0 0.0994487 -0.0806033
75 1 22.0087 0.262534 0.539755 4 4.46149e-07 2 0 0.0994487 0.0993586
76 1 22.7913 0.430275 1.40734 4 6.65905e-07 2 0 0.0994487 0.206599
77 1 22.1105 1.14763 1.32981 4 1.94382e-06 2 0 0.0994487 0.240021
78 1 21.9982 1.59955 0.538558 4 4.08345e-06 2 0 0.0994487 0.185171
79 1 22.9157 1.07463 0.445168 4 1.7505e-06 2 0 0.0994487 0.0520834
80 1 24.228 0.380179 1.45209 4 5.95501e-07 2 0 0.0994487 0.0576161
81 1 23.5672 0.357563 0.57369 4 6.00226e-07 2 0 0.0994487 0.0385701
82 1 24.4367 1.18687 0.754729 4 2.18009e-06 2 0 0.0994487 -0.0192977
83 1 23.4757 1.2499 1.4028 4 2.69576e-06 2 0 0.0994487 0.0298759
84 1 24.955 0.315686 0.551996 4 4.4084e-07 2 0 0.0994487 -0.0171993
85 1 26.0085 0.383365 1.1715 4 3.29121e-07 2 0 0.0994487 -0.18586
86 1 25.169 1.12579 1.48087 4 1.58116e-06 2 0 0.0994487 0.0251045
87 1 25.9301 1.73476 1.35794 4 2.93478e-06 2 0 0.0994487 0.0345356
88 1 25.8917 0.929212 0.432102 4 7.40183e-07 2 0 0.0994487 -0.0954201
89 1 27.5736 1.28032 0.38906 4 3.365e-07 2 0 0.0994487 0.0454491
90 1 27.6142 0.50928 0.874321 4 1.2157e-07 2 0 0.0994487 0.175387
91 1 26.7559 1.02809 1.26347 4 5.17787e-07 2 0 0.0994487 -0.236887
92 1 28.3748 0.337482 1.39813 4 4.46308e-08 2 0 0.0994487 0.00984423
93 1 26.7925 0.240345 0.226621 4 1.23607e-07 2 0 0.0994487 0.0380746
94 1 28.6489 1.24263 0.742341 4 1.24818e-07 2 0 0.0994487 0.102406
95 1 29.3912 0.945639 1.56878 4 3.27001e-08 2 0 0.0994487 -0.0192007
96 1 28.5228 1.71921 1.49749 4 2.51949e-07 2 0 0.0994487 -0.0429811
97 1 29.8133 0.173958 1.46124 4 7.19614e-09 2 0 0.0994487 0.133416
98 1 29.2734 0.3547 0.615275 4 1.6672e-08 2 0 0.0994487 -0.0816812
99 1 31.5874 0.266128 1.25663 4 7.97904e-10 3 0 0.0994487 0.830097
100 1 30.7016 0.49015 0.470738 4 3.55003e-09 2 0 0.0994487 0.354852
101 1 30.1009 1.19877 0.774133 4 2.13426e-08 2 0 0.0994487 0.21092
102 1 30.8649 0.971942 1.39386 4 6.10977e-09 2 0 0.0994487 0.703281
103 1 1.11081 2.43607 0.129285 4 8.16579e-20 2 0 0.0994487 -0.0373225
104 1 0.133403 2.3821 0.812241 4 1.52459e-20 2 0 0.0994487 -0.984517
105 1 1.28845 3.23764 0.949187 4 3.83913e-19 2 0 0.0994487 0.222089
106 1 1.13977 2.36077 1.59162 4 1.1778e-19 2 0 0.0994487 -0.22219
107 1 0.386685 3.02999 1.54944 4 4.2953e-20 2 0 0.0994487 -0.671256
108 1 0.332248 3.09582 0.131296 4 2.948e-20 2 0 0.0994487 -0.59134
109 1 1.90972 2.41867 0.78376 4 6.66882e-19 2 0 0.0994487 0.0782076
110 1 2.65852 3.28029 0.860875 4 7.75216e-18 2 0 0.0994487 0.0668025
111 1 2.66931 2.22918 1.53373 4 2.76404e-18 2 0 0.0994487 0.0829543
112 1 3.2579 3.42668 1.64938 4 2.73904e-17 2 0 0.0994487 0.00397418
113 1 2.7261 2.38168 0.0557193 4 2.15914e-18 2 0 0.0994487 0.1466
114 1 3.38195 2.55413 0.779289 4 1.81813e-17 2 0 0.0994487 0.211582
115 1 4.00679 1.841 0.711184 4 3.70783e-17 2 0 0.0994487 -0.0361253
116 1 4.91383 2.57277 0.815661 4 4.949e-16 2 0 0.0994487 -0.259353
117 1 4.20148 3.3175 0.749446 4 2.08025e-16 2 0 0.0994487 0.00621414
118 1 4.13245 2.64107 1.58328 4 8.84691e-17 2 0 0.0994487 0.0270765
119 1 5.65047 2.44269 0.132743 4 1.55328e-15 2 0 0.0994487 -0.189926
120 1 6.55776 2.18062 0.772597 4 9.53679e-15 2 0 0.0994487 -0.289395
121 1 5.64874 3.19593 0.952489 4 3.8371e-15 2 0 0.0994487 -0.75464
122 1 5.861 2.19426 1.49672 4 2.12477e-15 2 0 0.0994487 0.0126343
123 1 6.52037 3.06691 1.5557 4 1.77464e-14 2 0 0.0994487 0.0443562
124 1 6.65033 2.92778 0.134227 4 1.66816e-14 2 0 0.0994487 0.0288857
125 1 7.45405 2.22586 0.139832 4 4.7793e-14 2 0 0.0994487 -0.053504
126 1 8.08209 2.20208 0.930382 4 1.86877e-13 2 0 0.0994487 -0.302087
127 1 7.40132 3.06835 0.934051 4 1.20311e-13 2 0 0.0994487 -0.0455411
128 1 7.29928 2.06035 1.56856 4 3.18049e-14 2 0 0.0994487 -0.0607342
129 1 8.18545 3.00183 1.65211 4 4.28202e-13 2 0 0.0994487 -0.0454173
130 1 8.26934 2.9712 0.0392146 4 4.40533e-13 2 0 0.0994487 -0.150618
131 1 8.90393 2.08699 0.252387 4 5.93262e-13 2 0 0.0994487 0.00243111
132 1 9.77243 2.0246 1.10996 4 3.27946e-12 2 0 0.0994487 0.173455
133 1 8.92671 2.97262 0.928693 4 2.00263e-12 2 0 0.0994487 -0.156775
134 1 9.03062 2.22066 1.70398 4 9.36372e-13 2 0 0.0994487 -0.0819696
135 1 9.56096 2.90576 0.21312 4 4.50034e-12 2 0 0.0994487 0.173118
136 1 10.2834 2.1137 0.214297 4 5.84794e-12 2 0 0.0994487 0.337737
137 1 11.1583 1.82604 0.771092 4 2.91739e-11 2 0 0.0994487 0.260083
138 1 10.6214 2.80819 0.921535 4 3.52917e-11 2 0 0.0994487 0.54191
139 1 11.4444 2.82964 1.57484 4 1.42424e-10 2 0 0.0994487 0.0951956
140 1 12.6737 1.94118 0.593851 4 4.60149e-10 2 0 0.0994487 -0.283939
141 1 11.928 2.64099 0.742299 4 2.8314e-10 2 0 0.0994487 -0.0386796
142 1 11.9239 1.9206 1.46509 4 1.17536e-10 2 0 0.0994487 0.094649
143 1 12.8449 3.01766 1.68597 4 1.70744e-09 2 0 0.0994487 0.0363531
144 1 13.1791 3.03035 0.848852 4 3.65089e-09 2 0 0.0994487 -0.440868
145 1 13.3784 1.9912 1.48064 4 1.31108e-09 2 0 0.0994487 -0.0150738
146 1 14.0206 2.44438 0.927124 4 6.73779e-09 2 0 0.0994487 -0.13312
147 1 14.0279 3.38359 1.55716 4 1.80761e-08 2 0 0.0994487 0.0255705
148 1 14.6961 3.43698 0.884932 4 5.84402e-08 2 0 0.0994487 -0.332994
149 1 14.7823 2.29758 1.44821 4 1.60232e-08 2 0 0.0994487 0.0469237
150 1 14.8418 2.51505 0.136557 4 1.88124e-08 2 0 0.0994487 0.173002
151 1 14.1591 3.2262 0.0325348 4 1.63763e-08 2 0 0.0994487 -0.246108
152 1 13.4137 2.29398 0.0590902 4 1.84442e-09 2 0 0.0994487 -0.280964
153 1 15.6993 2.44373 0.692668 4 7.01557e-08 2 0 0.0994487 0.364385
154 1 16.3029 3.20095 0.662084 4 4.11995e-07 2 0 0.0994487 0.328581
155 1 16.308 2.47951 1.52575 4 1.77613e-07 2 0 0.0994487 -0.100651
156 1 15.3694 3.25723 1.50191 4 1.23354e-07 2 0 0.0994487 -0.00767319
157 1 15.5706 3.25854 0.0192499 4 1.03467e-07 2 0 0.0994487 0.290235
158 1 17.0646 2.35032 0.682778 4 3.80445e-07 2 0 0.0994487 0.0234764
159 1 17.944 2.92608 0.699539 4 2.33591e-06 2 0 0.0994487 -0.231195
160 1 18.0193 2.43917 1.58112 4 1.25251e-06 2 0 0.0994487 -0.149138
161 1 17.0918 3.1162 1.49491 4 1.11465e-06 2 0 0.0994487 -0.14344
162 1 18.8908 2.35742 1.01358 4 2.6098e-06 2 0 0.0994487 -0.516835
163 1 19.7027 3.2427 1.27782 4 1.74576e-05 2 0 0.0994487 0.394877
164 1 18.884 2.99607 0.196019 4 5.36427e-06 2 0 0.0994487 -0.171811
165 1 19.587 2.34239 0.101452 4 3.458e-06 2 0 0.0994487 -0.132371
166 1 20.3251 1.78863 1.72442 4 2.3927e-06 2 0 0.0994487 0.0449516
167 1 21.1565 2.41663 0.458355 4 1.14425e-05 2 0 0.0994487 0.196186
168 1 20.1948 2.46882 1.11433 4 7.72957e-06 2 0 0.0994487 0.286736
169 1 21.31 3.29463 1.39314 4 5.3691e-05 2 0 0.0994487 0.0777275
170 1 20.4222 2.99313 0.334941 4 1.74824e-05 2 0 0.0994487 0.186289
171 1 22.8719 2.07007 1.50872 4 1.055e-05 2 0 0.0994487 -0.0221246
172 1 22.9717 2.60199 0.735523 4 2.88e-05 2 0 0.0994487 0.133325
173 1 22.0961 2.49917 1.23787 4 2.04163e-05 2 0 0.0994487 0.186435
174 1 21.9898 3.20043 0.598797 4 6.02793e-05 2 0 0.0994487 -0.0757519
175 1 22.6771 3.40124 0.07601 4 7.52804e-05 2 0 0.0994487 0.0760731
176 1 23.7438 1.80844 0.624025 4 6.61322e-06 2 0 0.0994487 -0.0873603
177 1 24.4289 1.98763 1.61102 4 7.93728e-06 2 0 0.0994487 -0.0641762
178 1 24.342 2.68296 0.775192 4 2.66727e-05 2 0 0.0994487 -0.341093
179 1 23.6887 2.90303 1.53628 4 4.09403e-05 2 0 0.0994487 -0.110505
180 1 24.4728 3.51078 1.55704 4 9.21337e-05 2 0 0.0994487 -0.118306
181 1 24.9562 2.84566 0.0146836 4 1.96908e-05 2 0 0.0994487 -0.0864597
182 1 26.5483 1.79415 0.511367 4 1.93531e-06 2 0 0.0994487 -0.00560042
183 1 25.1322 1.85613 0.509414 4 5.077e-06 2 0 0.0994487 -0.0215295
184 1 25.7918 2.61203 0.707489 4 1.28839e-05 2 0 0.0994487 0.228201
185 1 25.1579 2.55548 1.52547 4 1.59433e-05 2 0 0.0994487 0.0576664
186 1 25.7213 3.49812 1.51211 4 5.04431e-05 2 0 0.0994487 0.123857
187 1 26.5364 2.56002 1.53049 4 6.47004e-06 2 0 0.0994487 0.0579474
188 1 26.1686 3.50068 0.599043 4 3.62394e-05 2 0 0.0994487 0.168845
189 1 27.5039 1.98546 1.23792 4 1.15441e-06 2 0 0.0994487 -0.186419
190 1 28.2489 2.09022 0.343734 4 5.46771e-07 2 0 0.0994487 -0.0177249
191 1 27.0867 2.6924 0.645359 4 4.90767e-06 2 0 0.0994487 -0.105601
192 1 27.1998 3.35397 1.41682 4 1.10642e-05 2 0 0.0994487 -0.0983286
193 1 28.2537 2.75799 1.20639 4 1.54731e-06 2 0 0.0994487 -0.418307
194 1 27.982 3.21993 0.326384 4 3.34361e-06 2 0 0.0994487 -0.125257
195 1 29.9568 1.80906 1.70764 4 5.09535e-08 2 0 0.0994487 0.183201
196 1 29.4477 2.04702 0.879698 4 1.50781e-07 2 0 0.0994487 -0.0070836
197 1 29.1956 2.6589 0.290703 4 3.78958e-07 2 0 0.0994487 -0.0578284
198 1 29.2495 3.2651 1.17365 4 8.77287e-07 2 0 0.0994487 0.118634
199 1 30.9114 1.98502 0.924207 4 2.23467e-08 2 0 0.0994487 0.967251
200 1 30.1815 2.71094 1.00186 4 1.31844e-07 2 0 0.0994487 0.675109
201 1 31.0247 3.35309 0.97101 4 8.80602e-08 2 0 0.0994487 0.998409
202 1 30.9865 2.69483 1.72648 4 3.76028e-08 2 0 0.0994487 0.578501
203 1 30.1092 3.25953 0.132205 4 1.95399e-07 2 0 0.0994487 -0.0443659
204 1 30.4116 1.90909 0.0255368 4 2.72185e-08 2 0 0.0994487 0.106045
205 1 31.1434 2.66402 0.0761253 4 2.64618e-08 2 0 0.0994487 0.70882
206 1 0.293831 3.78503 0.918557 4 7.11584e-20 2 0 0.0994487 -0.999347
207 1 0.143046 4.59443 0.482118 4 8.52156e-20 2 0 0.0994487 -0.784494
208 1 1.14036 4.67093 0.986638 4 8.83511e-19 2 0 0.0994487 -0.516753
209 1 0.0884667 5.26681 1.27761 4 1.17586e-19 2 0 0.0994487 -0.887458
210 1 1.04069 3.86421 0.0595682 4 2.76261e-19 2 0 0.0994487 0.0148878
211 1 1.84117 4.04604 0.847105 4 2.57946e-18 2 0 0.0994487 0.00826661
212 1 2.54049 4.85585 1.13748 4 2.15281e-17 2 0 0.0994487 -0.333848
213 1 2.64953 4.14475 0.20674 4 1.37119e-17 2 0 0.0994487 -0.0285726
214 1 1.89758 4.96895 0.278386 4 5.19288e-18 2 0 0.0994487 -0.153434
215 1 3.40771 4.86189 0.161635 4 1.15824e-16 2 0 0.0994487 -0.0163887
216 1 3.494 4.07675 0.885909 4 9.07004e-17 2 0 0.0994487 0.0268905
217 1 4.91235 4.00001 1.18344 4 1.7001e-15 2 0 0.0994487 0.0115052
218 1 4.04658 4.88002 1.14639 4 5.64686e-16 2 0 0.0994487 0.264488
219 1 4.26027 4.18509 0.149001 4 3.89003e-16 2 0 0.0994487 0.0377375
220 1 5.00947 4.74001 0.341082 4 3.16684e-15 2 0 0.0994487 0.0765387
221 1 5.77735 3.9378 0.198707 4 6.70587e-15 2 0 0.0994487 0.0260148
222 1 6.48883 3.76611 0.772067 4 3.40497e-14 2 0 0.0994487 0.20455
223 1 5.68025 4.73638 1.02487 4 1.54539e-14 2 0 0.0994487 -0.621703
224 1 6.66321 4.5115 1.6428 4 7.79786e-14 2 0 0.0994487 0.158932
225 1 6.68072 5.1315 0.885352 4 1.61039e-13 2 0 0.0994487 0.20685
226 1 8.1982 3.892 0.700757 4 1.20349e-12 2 0 0.0994487 -0.369905
227 1 7.40842 4.46072 0.5468 4 3.81934e-13 2 0 0.0994487 -0.0252148
228 1 7.39886 3.87029 1.49684 4 2.18218e-13 2 0 0.0994487 0.102575
229 1 8.20004 4.61106 1.48677 4 2.07141e-12 2 0 0.0994487 -0.0118397
230 1 9.8976 3.57792 0.885667 4 2.193e-11 2 0 0.0994487 0.592761
231 1 9.07913 4.56551 0.821335 4 1.13524e-11 2 0 0.0994487 -0.658549
232 1 9.86266 4.50302 0.126324 4 3.36705e-11 2 0 0.0994487 0.0958633
233 1 9.07829 3.76256 1.49819 4 5.42218e-12 2 0 0.0994487 -0.070888
234 1 9.86881 4.3462 1.65532 4 3.88502e-11 2 0 0.0994487 -0.085665
235 1 8.98541 3.86821 0.0631775 4 3.95304e-12 2 0 0.0994487 -0.138755
236 1 11.408 3.64493 0.778297 4 3.47733e-10 2 0 0.0994487 0.20206
237 1 10.5891 4.66652 0.906264 4 2.14097e-10 2 0 0.0994487 0.0450564
238 1 11.3867 4.69403 0.230734 4 7.97702e-10 2 0 0.0994487 -0.0498934
239 1 10.7059 3.56689 1.58785 4 8.75419e-11 2 0 0.0994487 -0.0448531
240 1 11.3652 4.3716 1.70545 4 5.77549e-10 2 0 0.0994487 -0.0798317
241 1 11.3894 5.27213 0.983682 4 1.50602e-09 2 0 0.0994487 -0.674494
242 1 10.5826 3.84888 0.176129 4 7.61231e-11 2 0 0.0994487 0.210464
243 1 12.5168 3.57716 0.814749 4 2.19996e-09 2 0 0.0994487 -0.0105851
244 1 12.1916 4.55033 1.00021 4 3.3109e-09 2 0 0.0994487 0.10502
245 1 12.7362 4.99738 1.68903 4 9.97797e-09 2 0 0.0994487 0.191324
246 1 13.2258 4.67863 0.80017 4 2.14864e-08 2 0 0.0994487 -0.0047209
247 1 12.6435 4.61885 0.0632315 4 6.40426e-09 2 0 0.0994487 -0.0335839
248 1 13.9891 4.12825 0.69648 4 4.23575e-08 2 0 0.0994487 -0.43019
249 1 13.4832 4.21781 1.59317 4 1.80106e-08 2 0 0.0994487 0.0820122
250 1 14.2046 5.11838 1.52001 4 1.49056e-07 2 0 0.0994487 -0.028998
251 1 14.9402 5.01141 0.811699 4 4.21565e-07 2 0 0.0994487 -0.0528621
252 1 14.9642 4.4167 1.59432 4 2.23722e-07 2 0 0.0994487 -0.0635669
253 1 14.1405 4.90647 0.0597868 4 9.21262e-08 2 0 0.0994487 -0.0856993
254 1 14.961 4.19423 0.096508 4 1.52009e-07 2 0 0.0994487 0.0322689
255 1 15.6685 4.06642 0.926277 4 4.77507e-07 2 0 0.0994487 0.872572
256 1 15.8798 4.77595 0.186426 4 1.11474e-06 2 0 0.0994487 0.165385
257 1 16.5936 4.58036 0.900182 4 3.09536e-06 2 0 0.0994487 -0.0790176
258 1 16.3184 3.95875 1.6903 4 1.01545e-06 2 0 0.0994487 -0.0434015
259 1 15.8111 5.05317 1.64084 4 1.37542e-06 2 0 0.0994487 0.0994949
260 1 17.2689 3.83372 0.811237 4 3.35336e-06 2 0 0.0994487 -0.345393
261 1 18.0864 4.48855 1.09806 4 1.8668e-05 2 0 0.0994487 -0.612197
262 1 17.9525 3.63794 1.65602 4 5.62895e-06 2 0 0.0994487 -0.192809
263 1 17.4569 4.57727 0.0147963 4 6.34556e-06 2 0 0.0994487 -0.0974121
264 1 18.1348 3.8547 0.0583493 4 6.84291e-06 2 0 0.0994487 -0.120519
265 1 18.8779 3.70667 0.95022 4 1.64633e-05 2 0 0.0994487 0.0692092
266 1 18.8235 4.60949 0.361826 4 4.15994e-05 2 0 0.0994487 0.115607
267 1 19.6906 4.67872 1.0803 4 0.000135531 2 0 0.0994487 0.93153
268 1 18.7859 5.27693 1.20102 4 0.000104115 2 0 0.0994487 0.599115
269 1 19.5987 3.76722 0.227421 4 2.82643e-05 2 0 0.0994487 0.164268
270 1 20.4384 3.82188 1.23329 4 7.481e-05 2 0 0.0994487 0.325951
271 1 20.8846 4.71868 1.39403 4 0.00040061 2 0 0.0994487 0.149057
272 1 21.5775 4.95128 0.810455 4 0.000845819 2 0 0.0994487 -0.00375449
273 1 21.0824 3.93136 0.512408 4 0.000125288 2 0 0.0994487 0.0883017
274 1 20.1339 4.78559 0.352846 4 0.000202346 2 0 0.0994487 0.145585
275 1 22.8205 3.63186 1.42135 4 0.000142862 2 0 0.0994487 -0.0184007
276 1 21.9406 4.13318 1.31068 4 0.000276799 2 0 0.0994487 0.0272028
277 1 22.4705 5.17735 1.27286 4 0.00166921 2 0 0.0994487 0.0207054
278 1 22.6119 4.34705 0.510028 4 0.000420353 2 0 0.0994487 -0.0221072
279 1 23.5735 3.63903 0.782677 4 0.000153926 2 0 0.0994487 0.185556
280 1 24.336 4.32055 0.625018 4 0.000368167 2 0 0.0994487 -0.150095
281 1 23.4679 4.54946 1.33355 4 0.000667422 2 0 0.0994487 -0.0790571
282 1 24.8518 5.25716 0.566763 4 0.00100992 2 0 0.0994487 0.0409055
283 1 23.5518 5.06386 0.533607 4 0.0012889 2 0 0.0994487 -0.0968902
284 1 25.0086 4.50055 1.62342 4 0.00033877 2 0 0.0994487 -0.0421957
285 1 25.0629 3.68037 0.802132 4 0.000101388 2 0 0.0994487 -0.187919
286 1 24.363 5.28843 1.43377 4 0.00158506 2 0 0.0994487 -0.154711
287 1 25.6904 5.1389 1.34266 4 0.000526993 2 0 0.0994487 0.210099
288 1 26.3575 4.29031 1.37159 4 9.50131e-05 2 0 0.0994487 0.149481
289 1 26.5026 4.97257 0.640732 4 0.000186784 2 0 0.0994487 0.0989663
290 1 25.5284 4.40089 0.388179 4 0.000191596 2 0 0.0994487 0.0559472
291 1 27.3302 4.86961 1.40568 4 6.92867e-05 2 0 0.0994487 0.00660954
292 1 27.9624 3.97641 1.10408 4 1.10562e-05 2 0 0.0994487 -0.309506
293 1 28.2771 4.73475 0.706344 4 1.80459e-05 2 0 0.0994487 -0.0812471
294 1 27.0674 4.04323 0.570038 4 3.1712e-05 2 0 0.0994487 0.0120221
295 1 28.9321 3.77016 0.487204 4 2.29515e-06 2 0 0.0994487 -0.00703272
296 1 29.0873 4.52317 1.33085 4 4.80738e-06 2 0 0.0994487 0.0574857
297 1 29.9979 4.07209 1.02303 4 7.8829e-07 2 0 0.0994487 -0.275233
298 1 31.0296 3.97382 0.373364 4 1.46958e-07 2 0 0.0994487 0.657583
299 1 30.2046 4.67765 0.491317 4 1.07281e-06 2 0 0.0994487 0.00995846
300 1 30.9783 4.59929 1.41131 4 3.07266e-07 2 0 0.0994487 0.679914
301 1 0.908283 5.53205 0.461647 4 8.96384e-19 2 0 0.0994487 -0.463785
302 1 1.53161 5.51184 1.37971 4 3.33478e-18 2 0 0.0994487 -0.117387
303 1 0.793684 6.22023 1.2768 4 1.02877e-18 2 0 0.0994487 -0.703381
304 1 0.257003 6.91734 1.50738 4 4.13019e-19 2 0 0.0994487 -0.772633
305 1 0.969942 6.9454 0.573423 4 2.45774e-18 2 0 0.0994487 -0.473533
306 1 1.7053 7.02884 1.23811 4 1.25614e-17 2 0 0.0994487 0.0665175
307 1 1.89588 6.19966 0.519025 4 1.29765e-17 2 0 0.0994487 -0.1564
308 1 3.10475 5.61709 1.30057 4 1.23561e-16 2 0 0.0994487 0.0402518
309 1 2.26359 6.15348 1.40977 4 2.44428e-17 2 0 0.0994487 0.0408556
310 1 3.25442 6.96226 1.12748 4 4.43287e-16 2 0 0.0994487 -0.0541244
311 1 2.68177 5.61289 0.273587 4 4.6091e-17 2 0 0.0994487 -0.0596862
312 1 3.39503 6.28191 0.500536 4 3.92296e-16 2 0 0.0994487 -0.121445
313 1 4.18979 5.46246 0.325783 4 1.06143e-15 2 0 0.0994487 0.0310167
314 1 4.93434 5.42873 1.31778 4 5.92521e-15 2 0 0.0994487 -0.235101
315 1 4.13622 6.09659 1.22779 4 1.83731e-15 2 0 0.0994487 -0.0893899
316 1 4.82567 6.23357 0.333842 4 7.12879e-15 2 0 0.0994487 -0.0345769
317 1 4.77312 6.79931 1.15967 4 1.21548e-14 2 0 0.0994487 -0.305932
318 1 4.00267 7.02511 0.221759 4 2.00384e-15 2 0 0.0994487 -0.0853446
319 1 5.78575 5.42185 0.301847 4 2.67235e-14 2 0 0.0994487 0.0125011
320 1 5.6935 6.24342 0.9632 4 5.15366e-14 2 0 0.0994487 -0.967785
321 1 6.4578 5.98425 1.59671 4 1.82584e-13 2 0 0.0994487 0.140913
322 1 6.43234 6.86927 1.00965 4 3.86852e-13 2 0 0.0994487 0.851676
323 1 6.37773 6.04115 0.154639 4 1.1457e-13 2 0 0.0994487 0.111111
324 1 5.54993 7.05206 0.147147 4 4.62482e-14 2 0 0.0994487 0.0363858
325 1 8.21355 5.31419 0.694273 4 3.96947e-12 2 0 0.0994487 -0.0895984
326 1 7.32761 6.15925 0.754293 4 1.29217e-12 2 0 0.0994487 0.225729
327 1 7.39163 5.41839 1.49138 4 7.99602e-13 2 0 0.0994487 0.136751
328 1 8.23884 6.11028 1.49159 4 7.73359e-12 2 0 0.0994487 0.0187344
329 1 8.01352 6.85364 0.728993 4 8.50594e-12 2 0 0.0994487 0.0691835
330 1 7.28191 6.86379 1.59601 4 2.02033e-12 2 1 0.0994487 0.126053
331 1 7.33029 5.3575 0.0461812 4 4.68246e-13 2 0 0.0994487 0.0813556
332 1 9.76796 5.3194 0.792562 4 7.55593e-11 2 0 0.0994487 0.328435
333 1 8.88016 6.18865 0.736908 4 2.90079e-11 2 0 0.0994487 -0.235548
334 1 9.05434 5.3271 1.5973 4 1.94162e-11 2 0 0.0994487 -0.0628334
335 1 9.73844 6.19052 1.46731 4 1.48876e-10 2 0 0.0994487 -0.106462
336 1 9.09351 6.95013 1.463 4 8.7451e-11 2 2 0.0994487 -0.0759186
337 1 9.76329 6.23201 0.0941385 4 1.13906e-10 2 0 0.0994487 -0.0359538
338 1 8.99733 5.46479 0.012702 4 1.30753e-11 2 0 0.0994487 -0.134755
339 1 10.5831 6.02196 0.964384 4 6.34877e-10 2 0 0.0994487 -0.356424
340 1 11.3128 6.37134 0.0776634 4 1.7786e-09 2 0 0.0994487 0.100338
341 1 10.5187 6.94145 0.15452 4 7.10666e-10 2 0 0.0994487 -0.0735376
342 1 10.4686 6.92564 1.49614 4 1.0775e-09 2 1 0.0994487 -0.0636878
343 1 11.9994 5.6274 0.183157 4 4.49288e-09 2 0 0.0994487 -0.0105355
344 1 12.6757 5.81849 0.861776 4 2.25013e-08 2 0 0.0994487 0.0817227
345 1 11.7774 6.20735 1.05291 4 6.16799e-09 2 0 0.0994487 0.292197
346 1 13.3219 5.86668 1.55471 4 6.37438e-08 2 0 0.0994487 0.20816
347 1 13.3506 6.58297 0.813679 4 1.30569e-07 2 0 0.0994487 -0.292136
348 1 13.3212 5.53867 0.0424813 4 4.18205e-08 2 0 0.0994487 -0.142916
349 1 14.0617 5.71565 0.77266 4 2.09598e-07 2 0 0.0994487 -0.372758
350 1 14.3278 6.65176 1.40646 4 7.94221e-07 2 1 0.0994487 -0.103213
351 1 14.1303 6.38483 0.0380077 4 2.68146e-07 2 0 0.0994487 -0.0826155
352 1 15.0282 5.64393 0.034369 4 6.46305e-07 2 0 0.0994487 0.0573579
353 1 15.8305 5.73813 0.95832 4 3.19016e-06 2 0 0.0994487 0.625758
354 1 15.0472 6.45091 0.806774 4 1.87998e-06 2 0 0.0994487 -0.176103
355 1 16.491 6.45257 1.1401 4 1.64097e-05 2 0 0.0994487 0.208267
356 1 15.1058 5.87594 1.69804 4 1.22184e-06 2 0 0.0994487 -0.0976647
357 1 16.62 5.41933 0.276819 4 5.90261e-06 2 0 0.0994487 0.0799155
358 1 15.6753 6.3382 0.0390223 4 3.07818e-06 2 0 0.0994487 0.0398452
359 1 17.8271 5.30128 0.541411 4 2.87683e-05 2 0 0.0994487 0.150322
360 1 17.113 5.42499 1.24767 4 1.49065e-05 2 0 0.0994487 -0.286586
361 1 17.0619 6.27419 0.411469 4 2.61568e-05 2 0 0.0994487 0.138942
362 1 17.6649 6.24649 1.38542 4 6.65193e-05 2 0 0.0994487 -0.254259
363 1 18.2745 7.0517 1.13153 4 0.000299976 2 1 0.0994487 0.630654
364 1 18.3714 6.23173 0.609762 4 0.000157729 2 0 0.0994487 0.156177
365 1 19.429 5.75829 0.62055 4 0.000363785 2 0 0.0994487 0.0571841
366 1 19.3279 6.55755 1.35081 4 0.000849172 2 1 0.0994487 0.274712
367 1 19.9942 6.75229 0.610261 4 0.00190868 2 0 0.0994487 -0.0119142
368 1 20.7494 5.77593 0.653722 4 0.00142837 2 0 0.0994487 -0.104068
369 1 20.1931 5.61076 1.39557 4 0.000788208 2 0 0.0994487 0.312018
370 1 20.7787 6.6124 1.30355 4 0.0047688 2 1 0.0994487 -0.344554
371 1 21.6592 6.66248 0.666524 4 0.0069044 2 0 0.0994487 -0.0435081
372 1 21.6631 5.87866 1.38528 4 0.00367292 2 0 0.0994487 0.0420917
373 1 21.6904 5.73259 0.0517844 4 0.00167399 2 0 0.0994487 -0.00150186
374 1 22.6732 5.8279 0.674154 4 0.00377094 2 0 0.0994487 0.00265546
375 1 22.6319 6.69333 1.20734 4 0.013769 2 1 0.0994487 -0.202024
376 1 23.3484 6.78052 0.267835 4 0.00898839 2 0 0.0994487 -0.125383
377 1 23.4822 5.88496 1.30013 4 0.00514591 2 0 0.0994487 -0.17641
378 1 24.3197 6.56281 1.15825 4 0.00776062 2 0 0.0994487 0.17349
379 1 24.1457 6.00685 0.427617 4 0.00350757 2 0 0.0994487 0.0024366
380 1 25.6831 5.86213 0.700952 4 0.00115936 2 0 0.0994487 0.163895
381 1 25.1124 6.04132 1.67733 4 0.00252321 2 0 0.0994487 0.0036674
382 1 25.1593 6.74159 0.495153 4 0.00400709 2 0 0.0994487 0.0903893
383 1 25.8251 6.59457 1.40775 4 0.0023034 2 0 0.0994487 0.0880997
384 1 26.6903 5.84511 1.4763 4 0.0004455 2 0 0.0994487 0.0917611
385 1 27.4966 5.54334 0.722172 4 0.000116764 2 0 0.0994487 -0.251573
386 1 26.7485 6.36567 0.651888 4 0.000638972 2 0 0.0994487 0.0387499
387 1 27.7011 6.47315 1.36539 4 0.000230675 2 0 0.0994487 0.131493
388 1 28.3648 5.52203 1.4872 4 3.6494e-05 2 0 0.0994487 0.0456333
389 1 27.7097 7.0074 0.530173 4 0.000308996 2 0 0.0994487 0.0321235
390 1 29.3889 5.30889 0.818726 4 7.37228e-06 2 0 0.0994487 0.316726
391 1 29.4379 6.18214 1.32212 4 1.35472e-05 2 0 0.0994487 -0.00338079
392 1 29.5784 6.89773 0.506505 4 1.78595e-05 2 0 0.0994487 0.092587
393 1 28.4685 6.20589 0.638647 4 5.76633e-05 2 0 0.0994487 -0.270081
394 1 29.3762 6.15398 0.0801838 4 1.13161e-05 2 0 0.0994487 0.0969264
395 1 28.4822 5.38976 0.0592959 4 1.91822e-05 2 0 0.0994487 -0.105003
396 1 30.9636 5.36838 0.595026 4 7.02889e-07 2 0 0.0994487 0.667849
397 1 30.2159 5.45949 1.46813 4 2.10632e-06 2 0 0.0994487 0.0540216
398 1 30.3958 6.18258 0.649752 4 3.23124e-06 2 0 0.0994487 0.329001
399 1 31.2189 6.15516 1.38439 4 7.98494e-07 2 0 0.0994487 0.587258
400 1 31.1994 6.95407 0.60342 4 1.4742e-06 2 0 0.0994487 0.812252
401 1 31.7235 5.99622 0.446564 4 3.31812e-07 2 0 0.0994487 0.879729
402 1 0.261851 7.63199 0.661866 4 7.09481e-19 2 0 0.0994487 -0.876374
403 1 0.831025 8.46344 0.61936 4 3.47002e-18 2 0 0.0994487 -0.577626
404 1 1.11211 7.86396 1.49711 4 4.33504e-18 2 0 0.0994487 -0.154429
405 1 0.356955 8.5626 1.47035 4 1.08881e-18 2 0 0.0994487 -0.764984
406 1 1.59266 7.76478 0.37187 4 1.42075e-17 2 0 0.0994487 -0.0897881
407 1 1.72382 8.61735 1.46471 4 2.56756e-17 2 0 0.0994487 0.0395966
408 1 2.48799 7.14986 0.476331 4 8.72323e-17 2 0 0.0994487 -0.0836967
409 1 2.19177 8.6335 0.399707 4 7.76773e-17 2 0 0.0994487 -0.137268
410 1 2.39416 7.81099 1.27726 4 9.45587e-17 2 0 0.0994487 0.0869916
411 1 3.01349 8.51445 0.935533 4 5.29679e-16 2 0 0.0994487 -0.539315
412 1 3.24418 7.77117 0.327041 4 5.93252e-16 2 0 0.0994487 -0.196205
413 1 3.81243 8.45898 0.0822892 4 2.17838e-15 2 0 0.0994487 -0.0457789
414 1 3.97971 7.67009 1.24863 4 3.23981e-15 2 0 0.0994487 -0.0554898
415 1 4.70459 8.25653 0.921772 4 2.1081e-14 2 0 0.0994487 0.29533
416 1 4.67023 7.63706 0.247803 4 1.1677e-14 2 0 0.0994487 0.0376911
417 1 3.81127 8.34851 1.76162 4 2.21911e-15 2 0 0.0994487 -0.0574363
418 1 5.86955 8.34822 0.169905 4 1.75433e-13 2 0 0.0994487 0.113105
419 1 5.48363 7.59071 1.03232 4 8.76175e-14 2 0 0.0994487 -0.467666
420 1 6.49365 7.53799 0.169175 4 4.52672e-13 2 0 0.0994487 0.187623
421 1 6.39674 8.23976 1.04384 4 8.62989e-13 2 0 0.0994487 0.338184
422 1 7.28583 7.76918 0.746313 4 3.74229e-12 2 1 0.0994487 0.0099561
423 1 8.2859 8.31376 0.868772 4 4.01941e-11 2 2 0.0994487 0.278546
424 1 7.27857 8.18368 1.7015 4 6.27168e-12 2 2 0.0994487 -0.174641
425 1 8.05208 7.48784 1.5604 4 1.65119e-11 2 1 0.0994487 0.185007
426 1 7.99895 7.60312 0.0282118 4 7.43921e-12 2 0 0.0994487 0.0674127
427 1 9.84313 7.22199 0.72344 4 3.82125e-10 2 1 0.0994487 -0.346981
428 1 8.91207 7.61626 0.661731 4 8.33219e-11 2 1 0.0994487 0.158594
429 1 9.73234 8.61964 0.693151 4 6.84167e-10 2 3 0.0994487 -0.25734
430 1 9.09265 8.69904 1.44495 4 3.01228e-10 2 9 0.0994487 -0.3985
431 1 9.64026 7.88932 1.60055 4 5.68262e-10 2 8 0.0994487 -0.341473
432 1 11.3161 7.14287 0.810636 4 5.25604e-09 2 1 0.0994487 0.448418
433 1 10.5731 7.9454 0.844311 4 2.37595e-09 2 3 0.0994487 -0.198519
434 1 10.5877 8.70196 1.4255 4 4.57461e-09 1 8 0.0994487 -0.145246
435 1 11.4057 7.80503 1.60301 4 1.24505e-08 2 7 0.0994487 0.229266
436 1 11.227 8.11851 0.0422735 4 4.44057e-09 2 0 0.0994487 0.1743
437 1 12.7061 7.28322 0.565784 4 6.64592e-08 2 0 0.0994487 -0.0531013
438 1 12.178 8.23518 0.590765 4 4.40352e-08 2 2 0.0994487 0.164236