ITEM: TIMESTEP
13000
ITEM: NUMBER OF ATOMS
9495
ITEM: BOX BOUNDS mm mm mm
0.0000000000000000e+00 3.1748021039364001e+01
0.0000000000000000e+00 3.1748021039364001e+01
-7.4072398406925706e-04 3.1748021039364001e+01
ITEM: ATOMS id type x y z c_phase c_temp c_surf c_nbond c_visc f_3[1]
1 1 0.116341 1.10259 0.464337 4 1.26854e-11 2 0 0.0994487 -0.68194
2 1 0.974108 1.6685 0.77798 4 5.10071e-11 2 0 0.0994487 -0.517031
3 1 0.714648 0.793562 1.41295 4 2.14856e-11 2 0 0.0994487 -0.281794
4 1 0.00336375 1.60273 1.37437 4 1.62056e-11 2 0 0.0994487 -0.804051
5 1 0.729896 0.0633724 0.61602 4 1.16374e-11 3 0 0.0994487 -0.190374
6 1 1.71015 0.808983 1.0155 4 8.12558e-11 2 0 0.0994487 -0.332069
7 1 1.80059 1.47468 0.221075 4 1.05107e-10 2 0 0.0994487 -0.125829
8 1 1.82015 1.66049 1.76126 4 1.31512e-10 2 0 0.0994487 -0.139533
9 1 2.52093 0.749102 0.203812 4 1.69131e-10 2 0 0.0994487 -0.142939
10 1 2.59149 0.0538711 1.03726 4 1.45099e-10 2 0 0.0994487 -0.295004
11 1 2.64922 1.541 0.882848 4 3.64658e-10 2 0 0.0994487 0.235757
12 1 2.66829 0.815502 1.7457 4 2.29496e-10 2 0 0.0994487 -0.18704
13 1 3.43386 0.933692 0.956349 4 7.02346e-10 2 0 0.0994487 0.320242
14 1 3.49924 0.0925696 1.70571 4 3.65166e-10 2 0 0.0994487 0.178053
15 1 3.60652 1.70798 1.71994 4 1.21782e-09 2 0 0.0994487 0.0487954
16 1 4.10576 0.858321 0.325305 4 1.44914e-09 2 0 0.0994487 0.153146
17 1 4.96159 0.56786 1.17466 4 3.96061e-09 2 0 0.0994487 -0.0370664
18 1 4.91949 1.59987 0.383508 4 6.38461e-09 2 0 0.0994487 -0.100247
19 1 4.3472 0.941527 1.62884 4 2.02995e-09 2 0 0.0994487 0.110739
20 1 3.47612 0.111428 0.171027 4 3.26048e-10 2 0 0.0994487 0.166215
21 1 5.64741 0.645627 0.325839 4 8.74906e-09 2 0 0.0994487 -0.0806044
22 1 5.88414 1.31048 0.938036 4 1.7121e-08 2 0 0.0994487 -0.19958
23 1 6.57478 1.39104 0.218369 4 3.67413e-08 2 0 0.0994487 -0.0861328
24 1 5.78374 0.460658 1.69897 4 8.52451e-09 2 0 0.0994487 -0.084652
25 1 5.03122 1.72414 1.43602 4 7.5195e-09 2 0 0.0994487 0.0453728
26 1 6.7138 0.39031 0.865278 4 2.62011e-08 2 0 0.0994487 -0.0793811
27 1 6.69104 1.00962 1.69374 4 3.11901e-08 2 0 0.0994487 -0.107923
28 1 8.2679 0.408875 1.07337 4 1.25606e-07 2 0 0.0994487 -0.100165
29 1 7.36782 1.22285 0.954198 4 8.13395e-08 2 0 0.0994487 -0.302547
30 1 8.24709 1.39092 0.236779 4 2.04588e-07 2 0 0.0994487 -0.0460632
31 1 8.12868 1.27217 1.60653 4 1.66615e-07 2 0 0.0994487 -0.00811593
32 1 7.58247 0.647807 0.140287 4 6.83537e-08 2 0 0.0994487 -0.110935
33 1 8.85849 0.508506 0.273966 4 2.18584e-07 2 0 0.0994487 -0.0616455
34 1 9.55301 0.3386 0.888639 4 4.07016e-07 2 0 0.0994487 0.00506509
35 1 9.02586 1.30716 1.1133 4 4.40714e-07 2 0 0.0994487 -0.0606416
37 1 9.63995 1.37474 0.0900752 4 6.6209e-07 2 0 0.0994487 0.0992921
38 1 11.2128 0.215893 0.632658 4 1.74163e-06 2 0 0.0994487 0.203505
39 1 10.3637 1.04743 0.823114 4 1.27333e-06 2 0 0.0994487 0.539889
40 1 10.523 0.196295 1.44539 4 9.04036e-07 2 0 0.0994487 0.0644295
41 1 11.2856 1.01846 1.41785 4 3.13801e-06 2 0 0.0994487 0.164709
42 1 10.5797 1.67706 1.72992 4 2.30951e-06 2 0 0.0994487 0.118165
43 1 10.2431 0.367861 0.0780499 4 5.87014e-07 2 0 0.0994487 0.149802
44 1 12.8757 0.211714 0.636805 4 7.84316e-06 2 0 0.0994487 0.0587891
45 1 12.0457 1.07408 0.506655 4 6.67265e-06 2 0 0.0994487 -0.0235492
46 1 12.1319 0.316439 1.29957 4 4.57124e-06 2 0 0.0994487 0.0188383
47 1 12.7194 1.19864 1.3723 4 1.28565e-05 2 0 0.0994487 -0.0305246
48 1 14.3729 0.318493 0.764646 4 2.70681e-05 2 0 0.0994487 -0.046037
49 1 13.5924 1.113 0.843618 4 2.55623e-05 2 0 0.0994487 -0.263048
50 1 14.0399 1.55958 0.167469 4 4.43503e-05 2 0 0.0994487 -0.0898236
51 1 13.6075 0.359834 1.6352 4 1.45938e-05 2 0 0.0994487 -0.0562621
52 1 14.3777 1.14948 1.47647 4 4.14551e-05 2 0 0.0994487 -0.0178256
53 1 14.8761 1.55337 0.662943 4 7.77755e-05 2 0 0.0994487 0.389952
54 1 15.7061 0.770636 0.788259 4 8.46515e-05 2 0 0.0994487 0.366486
55 1 16.5532 1.54451 0.681338 4 0.000254295 2 0 0.0994487 0.000808245
56 1 15.1422 0.4642 1.64149 4 4.44513e-05 2 0 0.0994487 0.152078
57 1 16.547 0.712289 1.3421 4 0.000152553 2 0 0.0994487 0.0956282
58 1 15.6341 1.48544 1.3916 4 0.000129092 2 0 0.0994487 0.153634
59 1 15.1049 0.711806 0.0677822 4 4.35991e-05 2 0 0.0994487 0.169204
60 1 17.2544 0.732268 0.547589 4 0.000222167 2 0 0.0994487 0.0286311
61 1 17.9231 1.58109 0.757246 4 0.000552519 2 0 0.0994487 0.041565
62 1 17.916 0.742935 1.42801 4 0.000333511 2 0 0.0994487 -0.224375
63 1 17.2202 1.74884 1.56274 4 0.000446825 2 0 0.0994487 -0.0984819
64 1 19.5372 0.0167772 0.662766 4 0.00036474 2 0 0.0994487 0.0436438
65 1 18.7918 0.725074 0.684829 4 0.000446599 2 0 0.0994487 -0.269945
66 1 19.5395 1.55488 0.841653 4 0.00101774 2 0 0.0994487 -0.341161
67 1 19.0276 0.158607 1.54508 4 0.000349518 2 0 0.0994487 -0.158664
68 1 19.5934 0.967491 1.68957 4 0.000663743 2 0 0.0994487 0.00835097
69 1 18.6564 1.51302 1.50035 4 0.000727543 2 0 0.0994487 -0.250306
70 1 21.0889 0.349843 1.06749 4 0.000672709 2 0 0.0994487 -0.196127
71 1 20.2493 0.776373 0.980057 4 0.000730544 2 0 0.0994487 -0.0497616
72 1 21.1062 1.65725 0.951506 4 0.00152329 2 0 0.0994487 0.692912
73 1 21.1874 0.765598 0.218806 4 0.00079253 2 0 0.0994487 -0.0445912
74 1 20.3457 1.51479 0.193617 4 0.00115693 2 0 0.0994487 -0.0806026
75 1 22.0087 0.262534 0.539755 4 0.000680012 2 0 0.0994487 0.0993585
76 1 22.7913 0.430275 1.40734 4 0.000786736 2 0 0.0994487 0.206598
77 1 22.1105 1.14763 1.32981 4 0.0011565 2 0 0.0994487 0.240021
78 1 21.9982 1.59955 0.538558 4 0.00163522 2 0 0.0994487 0.18517
79 1 22.9157 1.07463 0.445168 4 0.00113702 2 0 0.0994487 0.0520828
80 1 24.228 0.380179 1.45209 4 0.000764771 2 0 0.0994487 0.0576153
81 1 23.5672 0.357563 0.57369 4 0.0007716 2 0 0.0994487 0.0385694
82 1 24.4367 1.18687 0.754729 4 0.00125888 2 0 0.0994487 -0.0193002
83 1 23.4757 1.2499 1.4028 4 0.00138311 2 0 0.0994487 0.0298746
84 1 24.955 0.315686 0.551996 4 0.00065905 2 0 0.0994487 -0.0172004
85 1 26.0085 0.383365 1.1715 4 0.000529566 2 0 0.0994487 -0.185861
86 1 25.169 1.12579 1.48087 4 0.00108548 2 0 0.0994487 0.025103
87 1 25.9301 1.73476 1.35794 4 0.00137509 2 0 0.0994487 0.0345332
88 1 25.8917 0.929212 0.432102 4 0.000736416 2 0 0.0994487 -0.0954216
89 1 27.5736 1.28032 0.38906 4 0.000463825 2 0 0.0994487 0.0454479
90 1 27.6142 0.50928 0.874321 4 0.000307194 2 0 0.0994487 0.175386
91 1 26.7559 1.02809 1.26347 4 0.000574101 2 0 0.0994487 -0.23689
92 1 28.3748 0.337482 1.39813 4 0.000188448 2 0 0.0994487 0.00984312
93 1 26.7925 0.240345 0.226621 4 0.000336482 2 0 0.0994487 0.0380739
94 1 28.6489 1.24263 0.742341 4 0.000279976 2 0 0.0994487 0.102404
95 1 29.3912 0.945639 1.56878 4 0.00014611 2 0 0.0994487 -0.0192015
96 1 28.5228 1.71921 1.49749 4 0.000383487 2 0 0.0994487 -0.0429826
97 1 29.8133 0.173958 1.46124 4 7.78068e-05 2 0 0.0994487 0.133416
98 1 29.2734 0.3547 0.615275 4 0.000111346 2 0 0.0994487 -0.0816818
99 1 31.5874 0.266128 1.25663 4 2.58843e-05 3 0 0.0994487 0.830096
100 1 30.7016 0.49015 0.470738 4 5.45952e-05 2 0 0.0994487 0.354852
101 1 30.1009 1.19877 0.774133 4 0.000117924 2 0 0.0994487 0.210919
102 1 30.8649 0.971942 1.39386 4 6.88204e-05 2 0 0.0994487 0.703281
103 1 1.11081 2.43607 0.129285 4 7.13381e-11 2 0 0.0994487 -0.0373221
104 1 0.133403 2.3821 0.812241 4 3.10848e-11 2 0 0.0994487 -0.984517
105 1 1.28845 3.23764 0.949187 4 1.87587e-10 2 0 0.0994487 0.222092
106 1 1.13977 2.36077 1.59162 4 9.1761e-11 2 0 0.0994487 -0.222189
107 1 0.386685 3.02999 1.54944 4 5.79182e-11 2 0 0.0994487 -0.671256
108 1 0.332248 3.09582 0.131296 4 4.70365e-11 2 0 0.0994487 -0.59134
109 1 1.90972 2.41867 0.78376 4 2.39329e-10 2 0 0.0994487 0.0782094
110 1 2.65852 3.28029 0.860875 4 1.1053e-09 2 0 0.0994487 0.0668043
111 1 2.66931 2.22918 1.53373 4 5.49759e-10 2 0 0.0994487 0.0829554
112 1 3.2579 3.42668 1.64938 4 2.39357e-09 2 0 0.0994487 0.00397534
113 1 2.7261 2.38168 0.0557193 4 4.64317e-10 2 0 0.0994487 0.146601
114 1 3.38195 2.55413 0.779289 4 1.68389e-09 2 0 0.0994487 0.211584
115 1 4.00679 1.841 0.711184 4 2.46994e-09 2 0 0.0994487 -0.0361226
116 1 4.91383 2.57277 0.815661 4 1.16118e-08 2 0 0.0994487 -0.259348
117 1 4.20148 3.3175 0.749446 4 7.57079e-09 2 0 0.0994487 0.0062163
118 1 4.13245 2.64107 1.58328 4 4.41098e-09 2 0 0.0994487 0.0270782
119 1 5.65047 2.44269 0.132743 4 2.29097e-08 2 0 0.0994487 -0.189925
120 1 6.55776 2.18062 0.772597 4 5.98044e-08 2 0 0.0994487 -0.289377
121 1 5.64874 3.19593 0.952489 4 3.90761e-08 2 0 0.0994487 -0.754629
122 1 5.861 2.19426 1.49672 4 2.58836e-08 2 0 0.0994487 0.0126365
123 1 6.52037 3.06691 1.5557 4 9.19214e-08 2 0 0.0994487 0.0443585
124 1 6.65033 2.92778 0.134227 4 8.47702e-08 2 0 0.0994487 0.0288876
125 1 7.45405 2.22586 0.139832 4 1.51025e-07 2 0 0.0994487 -0.0535015
126 1 8.08209 2.20208 0.930382 4 3.1413e-07 2 0 0.0994487 -0.302066
127 1 7.40132 3.06835 0.934051 4 2.62308e-07 2 0 0.0994487 -0.0455128
128 1 7.29928 2.06035 1.56856 4 1.17676e-07 2 0 0.0994487 -0.0607318
129 1 8.18545 3.00183 1.65211 4 5.388e-07 2 0 0.0994487 -0.0454148
130 1 8.26934 2.9712 0.0392146 4 5.62068e-07 2 0 0.0994487 -0.150616
131 1 8.90393 2.08699 0.252387 4 5.9532e-07 2 0 0.0994487 0.00243446
132 1 9.77243 2.0246 1.10996 4 1.43958e-06 2 0 0.0994487 0.173469
133 1 8.92671 2.97262 0.928693 4 1.21601e-06 2 0 0.0994487 -0.15675
134 1 9.03062 2.22066 1.70398 4 7.68514e-07 2 0 0.0994487 -0.0819669
135 1 9.56096 2.90576 0.21312 4 1.87234e-06 2 0 0.0994487 0.173121
136 1 10.2834 2.1137 0.214297 4 1.95364e-06 2 0 0.0994487 0.33774
137 1 11.1583 1.82604 0.771092 4 4.72516e-06 2 0 0.0994487 0.260092
138 1 10.6214 2.80819 0.921535 4 5.62846e-06 2 0 0.0994487 0.541922
139 1 11.4444 2.82964 1.57484 4 1.23105e-05 2 0 0.0994487 0.0952015
140 1 12.6737 1.94118 0.593851 4 2.15844e-05 2 0 0.0994487 -0.283931
141 1 11.928 2.64099 0.742299 4 1.72525e-05 2 0 0.0994487 -0.0386708
142 1 11.9239 1.9206 1.46509 4 1.02024e-05 2 0 0.0994487 0.094656
143 1 12.8449 3.01766 1.68597 4 4.55208e-05 2 0 0.0994487 0.0363584
144 1 13.1791 3.03035 0.848852 4 6.56921e-05 2 0 0.0994487 -0.440851
145 1 13.3784 1.9912 1.48064 4 3.60983e-05 2 0 0.0994487 -0.0150685
146 1 14.0206 2.44438 0.927124 4 8.40008e-05 2 0 0.0994487 -0.133091
147 1 14.0279 3.38359 1.55716 4 0.000152585 2 0 0.0994487 0.0255765
148 1 14.6961 3.43698 0.884932 4 0.000268146 2 0 0.0994487 -0.332943
149 1 14.7823 2.29758 1.44821 4 0.000126852 2 0 0.0994487 0.046929
150 1 14.8418 2.51505 0.136557 4 0.00014495 2 0 0.0994487 0.173006
151 1 14.1591 3.2262 0.0325348 4 0.000148811 2 0 0.0994487 -0.246104
152 1 13.4137 2.29398 0.0590902 4 4.61316e-05 2 0 0.0994487 -0.28096
153 1 15.6993 2.44373 0.692668 4 0.000266658 2 0 0.0994487 0.364397
154 1 16.3029 3.20095 0.662084 4 0.000653701 2 0 0.0994487 0.328591
155 1 16.308 2.47951 1.52575 4 0.000428833 2 0 0.0994487 -0.100645
156 1 15.3694 3.25723 1.50191 4 0.000381444 2 0 0.0994487 -0.00766709
157 1 15.5706 3.25854 0.0192499 4 0.000348744 2 0 0.0994487 0.290239
158 1 17.0646 2.35032 0.682778 4 0.000607294 2 0 0.0994487 0.0234834
159 1 17.944 2.92608 0.699539 4 0.00151816 2 0 0.0994487 -0.231189
160 1 18.0193 2.43917 1.58112 4 0.00109272 2 0 0.0994487 -0.149133
161 1 17.0918 3.1162 1.49491 4 0.00108195 2 0 0.0994487 -0.143432
162 1 18.8908 2.35742 1.01358 4 0.00148352 2 0 0.0994487 -0.516827
163 1 19.7027 3.2427 1.27782 4 0.00357466 2 0 0.0994487 0.39488
164 1 18.884 2.99607 0.196019 4 0.00224034 2 0 0.0994487 -0.171809
165 1 19.587 2.34239 0.101452 4 0.0017479 2 0 0.0994487 -0.13237
166 1 20.3251 1.78863 1.72442 4 0.00133599 2 0 0.0994487 0.0449528
167 1 21.1565 2.41663 0.458355 4 0.00279965 2 0 0.0994487 0.196187
168 1 20.1948 2.46882 1.11433 4 0.00229468 2 0 0.0994487 0.286742
169 1 21.31 3.29463 1.39314 4 0.00609493 2 0 0.0994487 0.0777276
170 1 20.4222 2.99313 0.334941 4 0.00354878 2 0 0.0994487 0.18629
171 1 22.8719 2.07007 1.50872 4 0.00268026 2 0 0.0994487 -0.0221255
172 1 22.9717 2.60199 0.735523 4 0.00446765 2 0 0.0994487 0.133323
173 1 22.0961 2.49917 1.23787 4 0.00371252 2 0 0.0994487 0.186435
174 1 21.9898 3.20043 0.598797 4 0.0065992 2 0 0.0994487 -0.0757527
175 1 22.6771 3.40124 0.07601 4 0.00781558 2 0 0.0994487 0.0760725
176 1 23.7438 1.80844 0.624025 4 0.00209281 2 0 0.0994487 -0.0873619
177 1 24.4289 1.98763 1.61102 4 0.00232127 2 0 0.0994487 -0.0641774
178 1 24.342 2.68296 0.775192 4 0.00410897 2 0 0.0994487 -0.341096
179 1 23.6887 2.90303 1.53628 4 0.00524695 2 0 0.0994487 -0.110507
180 1 24.4728 3.51078 1.55704 4 0.00777792 2 0 0.0994487 -0.118307
181 1 24.9562 2.84566 0.0146836 4 0.00371931 2 0 0.0994487 -0.0864604
182 1 26.5483 1.79415 0.511367 4 0.00109144 2 0 0.0994487 -0.00560225
183 1 25.1322 1.85613 0.509414 4 0.00186332 2 0 0.0994487 -0.0215312
184 1 25.7918 2.61203 0.707489 4 0.00286972 2 0 0.0994487 0.228198
185 1 25.1579 2.55548 1.52547 4 0.00322449 2 0 0.0994487 0.0576648
186 1 25.7213 3.49812 1.51211 4 0.00581659 2 0 0.0994487 0.123855
187 1 26.5364 2.56002 1.53049 4 0.00202172 2 0 0.0994487 0.0579457
188 1 26.1686 3.50068 0.599043 4 0.00496707 2 0 0.0994487 0.168842
189 1 27.5039 1.98546 1.23792 4 0.000802832 2 0 0.0994487 -0.186423
190 1 28.2489 2.09022 0.343734 4 0.000569773 2 0 0.0994487 -0.017726
191 1 27.0867 2.6924 0.645359 4 0.00171385 2 0 0.0994487 -0.105604
192 1 27.1998 3.35397 1.41682 4 0.00262248 2 0 0.0994487 -0.0983308
193 1 28.2537 2.75799 1.20639 4 0.000927184 2 0 0.0994487 -0.41831
194 1 27.982 3.21993 0.326384 4 0.00142647 2 0 0.0994487 -0.125258
195 1 29.9568 1.80906 1.70764 4 0.000179453 2 0 0.0994487 0.1832
196 1 29.4477 2.04702 0.879698 4 0.000293855 2 0 0.0994487 -0.00708678
197 1 29.1956 2.6589 0.290703 4 0.000473179 2 0 0.0994487 -0.0578293
198 1 29.2495 3.2651 1.17365 4 0.000705955 2 0 0.0994487 0.118631
199 1 30.9114 1.98502 0.924207 4 0.000132876 2 0 0.0994487 0.967251
200 1 30.1815 2.71094 1.00186 4 0.000283177 2 0 0.0994487 0.675106
201 1 31.0247 3.35309 0.97101 4 0.00026659 2 0 0.0994487 0.998409
202 1 30.9865 2.69483 1.72648 4 0.000179841 2 0 0.0994487 0.578501
203 1 30.1092 3.25953 0.132205 4 0.000355124 2 0 0.0994487 -0.0443663
204 1 30.4116 1.90909 0.0255368 4 0.000139654 2 0 0.0994487 0.106044
205 1 31.1434 2.66402 0.0761253 4 0.000153741 2 0 0.0994487 0.70882
206 1 0.293831 3.78503 0.918557 4 8.19231e-11 2 0 0.0994487 -0.999347
207 1 0.143046 4.59443 0.482118 4 9.85275e-11 2 0 0.0994487 -0.784494
208 1 1.14036 4.67093 0.986638 4 3.51995e-10 2 0 0.0994487 -0.516754
209 1 0.0884667 5.26681 1.27761 4 1.27344e-10 2 0 0.0994487 -0.887458
210 1 1.04069 3.86421 0.0595682 4 1.64526e-10 2 0 0.0994487 0.0148879
211 1 1.84117 4.04604 0.847105 4 6.31681e-10 2 0 0.0994487 0.00826848
212 1 2.54049 4.85585 1.13748 4 2.3071e-09 2 0 0.0994487 -0.333846
213 1 2.64953 4.14475 0.20674 4 1.75159e-09 2 0 0.0994487 -0.0285721
214 1 1.89758 4.96895 0.278386 4 1.05342e-09 2 0 0.0994487 -0.153434
215 1 3.40771 4.86189 0.161635 4 6.41091e-09 2 0 0.0994487 -0.016388
216 1 3.494 4.07675 0.885909 4 5.01892e-09 2 0 0.0994487 0.026894
217 1 4.91235 4.00001 1.18344 4 2.67454e-08 2 0 0.0994487 0.0115124
218 1 4.04658 4.88002 1.14639 4 1.52064e-08 2 0 0.0994487 0.26449
219 1 4.26027 4.18509 0.149001 4 1.22166e-08 2 0 0.0994487 0.0377384
220 1 5.00947 4.74001 0.341082 4 4.19036e-08 2 0 0.0994487 0.0765403
221 1 5.77735 3.9378 0.198707 4 5.68458e-08 2 0 0.0994487 0.0260162
222 1 6.48883 3.76611 0.772067 4 1.36812e-07 2 0 0.0994487 0.204555
223 1 5.68025 4.73638 1.02487 4 9.98829e-08 2 0 0.0994487 -0.621678
224 1 6.66321 4.5115 1.6428 4 2.40422e-07 2 0 0.0994487 0.158934
225 1 6.68072 5.1315 0.885352 4 3.83436e-07 2 0 0.0994487 0.206858
226 1 8.1982 3.892 0.700757 4 1.0439e-06 2 0 0.0994487 -0.369899
227 1 7.40842 4.46072 0.5468 4 5.90926e-07 2 0 0.0994487 -0.0252114
228 1 7.39886 3.87029 1.49684 4 4.00224e-07 2 0 0.0994487 0.102578
229 1 8.20004 4.61106 1.48677 4 1.52001e-06 2 0 0.0994487 -0.0118362
230 1 9.8976 3.57792 0.885667 4 4.7023e-06 2 0 0.0994487 0.592793
231 1 9.07913 4.56551 0.821335 4 3.72805e-06 2 0 0.0994487 -0.658539
232 1 9.86266 4.50302 0.126324 4 6.42111e-06 2 0 0.0994487 0.0958664
233 1 9.07829 3.76256 1.49819 4 2.32876e-06 2 0 0.0994487 -0.0708846
234 1 9.86881 4.3462 1.65532 4 7.16707e-06 2 0 0.0994487 -0.0856615
235 1 8.98541 3.86821 0.0631775 4 2.01525e-06 2 0 0.0994487 -0.138753
236 1 11.408 3.64493 0.778297 4 2.07611e-05 2 0 0.0994487 0.202069
237 1 10.5891 4.66652 0.906264 4 1.74946e-05 2 0 0.0994487 0.0450853
238 1 11.3867 4.69403 0.230734 4 3.63527e-05 2 0 0.0994487 -0.049889
239 1 10.7059 3.56689 1.58785 4 1.01687e-05 2 0 0.0994487 -0.0448481
240 1 11.3652 4.3716 1.70545 4 2.97626e-05 2 0 0.0994487 -0.0798266
241 1 11.3894 5.27213 0.983682 4 5.1398e-05 2 0 0.0994487 -0.674473
242 1 10.5826 3.84888 0.176129 4 9.45089e-06 2 0 0.0994487 0.210467
243 1 12.5168 3.57716 0.814749 4 5.39189e-05 2 0 0.0994487 -0.0105735
244 1 12.1916 4.55033 1.00021 4 7.22713e-05 2 0 0.0994487 0.105057
245 1 12.7362 4.99738 1.68903 4 0.000131166 2 0 0.0994487 0.191331
246 1 13.2258 4.67863 0.80017 4 0.000190405 2 0 0.0994487 -0.00469188
247 1 12.6435 4.61885 0.0632315 4 0.000108574 2 0 0.0994487 -0.0335792
248 1 13.9891 4.12825 0.69648 4 0.000255472 2 0 0.0994487 -0.430173
249 1 13.4832 4.21781 1.59317 4 0.000165841 2 0 0.0994487 0.0820195
250 1 14.2046 5.11838 1.52001 4 0.00051872 2 0 0.0994487 -0.0289894
251 1 14.9402 5.01141 0.811699 4 0.000837828 2 0 0.0994487 -0.0526802
252 1 14.9642 4.4167 1.59432 4 0.000595288 2 0 0.0994487 -0.0635605
253 1 14.1405 4.90647 0.0597868 4 0.000418178 2 0 0.0994487 -0.0856931
254 1 14.961 4.19423 0.096508 4 0.000476013 2 0 0.0994487 0.032274
255 1 15.6685 4.06642 0.926277 4 0.000777221 2 0 0.0994487 0.872589
256 1 15.8798 4.77595 0.186426 4 0.00129715 2 0 0.0994487 0.165392
257 1 16.5936 4.58036 0.900182 4 0.0019912 2 0 0.0994487 -0.0789614
258 1 16.3184 3.95875 1.6903 4 0.00112465 2 0 0.0994487 -0.0433953
259 1 15.8111 5.05317 1.64084 4 0.00146853 2 0 0.0994487 0.0995015
260 1 17.2689 3.83372 0.811237 4 0.00193425 2 0 0.0994487 -0.345381
261 1 18.0864 4.48855 1.09806 4 0.00430625 2 0 0.0994487 -0.61214
262 1 17.9525 3.63794 1.65602 4 0.00239172 2 0 0.0994487 -0.192804
263 1 17.4569 4.57727 0.0147963 4 0.00288221 2 0 0.0994487 -0.0974085
264 1 18.1348 3.8547 0.0583493 4 0.00273832 2 0 0.0994487 -0.120516
265 1 18.8779 3.70667 0.95022 4 0.00369084 2 0 0.0994487 0.0692367
266 1 18.8235 4.60949 0.361826 4 0.00613429 2 0 0.0994487 0.11561
267 1 19.6906 4.67872 1.0803 4 0.0105603 2 0 0.0994487 0.931525
268 1 18.7859 5.27693 1.20102 4 0.0101067 2 0 0.0994487 0.599121
269 1 19.5987 3.76722 0.227421 4 0.00477972 2 0 0.0994487 0.164269
270 1 20.4384 3.82188 1.23329 4 0.00739753 2 0 0.0994487 0.325953
271 1 20.8846 4.71868 1.39403 4 0.018071 2 0 0.0994487 0.149057
272 1 21.5775 4.95128 0.810455 4 0.0272922 2 0 0.0994487 -0.00376029
273 1 21.0824 3.93136 0.512408 4 0.00977131 2 0 0.0994487 0.0883018
274 1 20.1339 4.78559 0.352846 4 0.0134285 2 0 0.0994487 0.145586
275 1 22.8205 3.63186 1.42135 4 0.010025 2 0 0.0994487 -0.0184023
276 1 21.9406 4.13318 1.31068 4 0.0143702 2 0 0.0994487 0.0272011
277 1 22.4705 5.17735 1.27286 4 0.0366918 2 0 0.0994487 0.0206996
278 1 22.6119 4.34705 0.510028 4 0.0178899 2 0 0.0994487 -0.0221097
279 1 23.5735 3.63903 0.782677 4 0.0102419 2 0 0.0994487 0.185552
280 1 24.336 4.32055 0.625018 4 0.0162211 2 0 0.0994487 -0.150098
281 1 23.4679 4.54946 1.33355 4 0.0217771 2 0 0.0994487 -0.0790608
282 1 24.8518 5.25716 0.566763 4 0.0277657 2 0 0.0994487 0.0409023
283 1 23.5518 5.06386 0.533607 4 0.0319823 2 0 0.0994487 -0.0968942
284 1 25.0086 4.50055 1.62342 4 0.0154079 2 0 0.0994487 -0.0421975
285 1 25.0629 3.68037 0.802132 4 0.00814474 2 0 0.0994487 -0.187924
286 1 24.363 5.28843 1.43377 4 0.0332781 2 0 0.0994487 -0.154715
287 1 25.6904 5.1389 1.34266 4 0.0195618 2 0 0.0994487 0.210095
288 1 26.3575 4.29031 1.37159 4 0.00813477 2 0 0.0994487 0.149479
289 1 26.5026 4.97257 0.640732 4 0.0117841 2 0 0.0994487 0.0989634
290 1 25.5284 4.40089 0.388179 4 0.0118552 2 0 0.0994487 0.0559455
291 1 27.3302 4.86961 1.40568 4 0.00715719 2 0 0.0994487 0.00660742
292 1 27.9624 3.97641 1.10408 4 0.00262459 2 0 0.0994487 -0.309512
293 1 28.2771 4.73475 0.706344 4 0.00362551 2 0 0.0994487 -0.08125
294 1 27.0674 4.04323 0.570038 4 0.00468374 2 0 0.0994487 0.0120198
295 1 28.9321 3.77016 0.487204 4 0.00118994 2 0 0.0994487 -0.00703377
296 1 29.0873 4.52317 1.33085 4 0.00182568 2 0 0.0994487 0.0574844
297 1 29.9979 4.07209 1.02303 4 0.000710209 2 0 0.0994487 -0.275238
298 1 31.0296 3.97382 0.373364 4 0.0003596 2 0 0.0994487 0.657583
299 1 30.2046 4.67765 0.491317 4 0.000907069 2 0 0.0994487 0.00995799
300 1 30.9783 4.59929 1.41131 4 0.000531928 2 0 0.0994487 0.679914
301 1 0.908283 5.53205 0.461647 4 3.9936e-10 2 0 0.0994487 -0.463785
302 1 1.53161 5.51184 1.37971 4 8.27009e-10 2 0 0.0994487 -0.117387
303 1 0.793684 6.22023 1.2768 4 4.64351e-10 2 0 0.0994487 -0.703381
304 1 0.257003 6.91734 1.50738 4 3.06908e-10 2 0 0.0994487 -0.772633
305 1 0.969942 6.9454 0.573423 4 7.99334e-10 2 0 0.0994487 -0.473533
306 1 1.7053 7.02884 1.23811 4 1.95449e-09 2 0 0.0994487 0.066518
307 1 1.89588 6.19966 0.519025 4 1.89939e-09 2 0 0.0994487 -0.1564
308 1 3.10475 5.61709 1.30057 4 6.63074e-09 2 0 0.0994487 0.0402527
309 1 2.26359 6.15348 1.40977 4 2.69275e-09 2 0 0.0994487 0.0408561
310 1 3.25442 6.96226 1.12748 4 1.59174e-08 2 0 0.0994487 -0.0541236
311 1 2.68177 5.61289 0.273587 4 3.87038e-09 2 0 0.0994487 -0.0596856
312 1 3.39503 6.28191 0.500536 4 1.44344e-08 2 0 0.0994487 -0.121444
313 1 4.18979 5.46246 0.325783 4 2.40098e-08 2 0 0.0994487 0.0310178
314 1 4.93434 5.42873 1.31778 4 6.50113e-08 2 0 0.0994487 -0.2351
315 1 4.13622 6.09659 1.22779 4 3.44718e-08 2 0 0.0994487 -0.0893889
316 1 4.82567 6.23357 0.333842 4 7.7599e-08 2 0 0.0994487 -0.0345758
317 1 4.77312 6.79931 1.15967 4 1.07183e-07 2 0 0.0994487 -0.30593
318 1 4.00267 7.02511 0.221759 4 3.96625e-08 2 0 0.0994487 -0.0853439
319 1 5.78575 5.42185 0.301847 4 1.4927e-07 2 0 0.0994487 0.0125024
320 1 5.6935 6.24342 0.9632 4 2.29683e-07 2 0 0.0994487 -0.967776
321 1 6.4578 5.98425 1.59671 4 4.5079e-07 2 0 0.0994487 0.140914
322 1 6.43234 6.86927 1.00965 4 7.38051e-07 2 0 0.0994487 0.851673
323 1 6.37773 6.04115 0.154639 4 3.49244e-07 2 0 0.0994487 0.111113
324 1 5.54993 7.05206 0.147147 4 2.38296e-07 2 0 0.0994487 0.0363865
325 1 8.21355 5.31419 0.694273 4 2.33353e-06 2 0 0.0994487 -0.0895908
326 1 7.32761 6.15925 0.754293 4 1.34989e-06 2 0 0.0994487 0.225733
327 1 7.39163 5.41839 1.49138 4 9.6263e-07 2 0 0.0994487 0.136754
328 1 8.23884 6.11028 1.49159 4 3.63748e-06 2 0 0.0994487 0.0187377
329 1 8.01352 6.85364 0.728993 4 4.15207e-06 2 0 0.0994487 0.0691872
330 1 7.28191 6.86379 1.59601 4 1.94444e-06 2 1 0.0994487 0.126051
331 1 7.33029 5.3575 0.0461812 4 7.14057e-07 2 0 0.0994487 0.0813573
332 1 9.76796 5.3194 0.792562 4 1.07965e-05 2 0 0.0994487 0.32845
333 1 8.88016 6.18865 0.736908 4 7.46232e-06 2 0 0.0994487 -0.235541
334 1 9.05434 5.3271 1.5973 4 5.46301e-06 2 0 0.0994487 -0.0628304
335 1 9.73844 6.19052 1.46731 4 1.78576e-05 2 0 0.0994487 -0.106404
336 1 9.09351 6.95013 1.463 4 1.48404e-05 2 2 0.0994487 -0.0756753
337 1 9.76329 6.23201 0.0941385 4 1.58226e-05 2 0 0.0994487 -0.0359517
338 1 8.99733 5.46479 0.012702 4 4.75551e-06 2 0 0.0994487 -0.134753
339 1 10.5831 6.02196 0.964384 4 3.5771e-05 2 0 0.0994487 -0.356497
340 1 11.3128 6.37134 0.0776634 4 6.30982e-05 2 0 0.0994487 0.100342
341 1 10.5187 6.94145 0.15452 4 4.40864e-05 2 0 0.0994487 -0.0735397
342 1 10.4686 6.92564 1.49614 4 5.33349e-05 2 1 0.0994487 -0.0635291
343 1 11.9994 5.6274 0.183157 4 9.26678e-05 2 0 0.0994487 -0.0105299
344 1 12.6757 5.81849 0.861776 4 0.000210681 2 0 0.0994487 0.0817484
345 1 11.7774 6.20735 1.05291 4 0.000112745 2 0 0.0994487 0.292174
346 1 13.3219 5.86668 1.55471 4 0.000356928 2 0 0.0994487 0.208167
347 1 13.3506 6.58297 0.813679 4 0.000575599 2 0 0.0994487 -0.292118
348 1 13.3212 5.53867 0.0424813 4 0.000300851 2 0 0.0994487 -0.14291
349 1 14.0617 5.71565 0.77266 4 0.000645945 2 0 0.0994487 -0.37268
350 1 14.3278 6.65176 1.40646 4 0.00140065 2 1 0.0994487 -0.10311
351 1 14.1303 6.38483 0.0380077 4 0.000812919 2 0 0.0994487 -0.0826097
352 1 15.0282 5.64393 0.034369 4 0.00113567 2 0 0.0994487 0.0573647
353 1 15.8305 5.73813 0.95832 4 0.00236403 2 0 0.0994487 0.625794
354 1 15.0472 6.45091 0.806774 4 0.00203865 2 0 0.0994487 -0.176052
355 1 16.491 6.45257 1.1401 4 0.00563096 2 0 0.0994487 0.208328
356 1 15.1058 5.87594 1.69804 4 0.00161768 2 0 0.0994487 -0.0976573
357 1 16.62 5.41933 0.276819 4 0.00303248 2 0 0.0994487 0.0799239
358 1 15.6753 6.3382 0.0390223 4 0.00257677 2 0 0.0994487 0.0398521
359 1 17.8271 5.30128 0.541411 4 0.00578162 2 0 0.0994487 0.150329
360 1 17.113 5.42499 1.24767 4 0.00450924 2 0 0.0994487 -0.28657
361 1 17.0619 6.27419 0.411469 4 0.00666846 2 0 0.0994487 0.138953
362 1 17.6649 6.24649 1.38542 4 0.010046 2 0 0.0994487 -0.254251
363 1 18.2745 7.0517 1.13153 4 0.0213209 2 1 0.0994487 0.631147
364 1 18.3714 6.23173 0.609762 4 0.0144577 2 0 0.0994487 0.156184
365 1 19.429 5.75829 0.62055 4 0.0196231 2 0 0.0994487 0.0571878
366 1 19.3279 6.55755 1.35081 4 0.0310733 2 1 0.0994487 0.274728
367 1 19.9942 6.75229 0.610261 4 0.0505204 2 0 0.0994487 -0.0119207
368 1 20.7494 5.77593 0.653722 4 0.038438 2 0 0.0994487 -0.10407
369 1 20.1931 5.61076 1.39557 4 0.0266374 2 0 0.0994487 0.312021
370 1 20.7787 6.6124 1.30355 4 0.0733984 2 1 0.0994487 -0.344536
371 1 21.6592 6.66248 0.666524 4 0.085596 2 0 0.0994487 -0.0435276
372 1 21.6631 5.87866 1.38528 4 0.0583845 2 0 0.0994487 0.0420679
373 1 21.6904 5.73259 0.0517844 4 0.0439021 2 0 0.0994487 -0.00150374
374 1 22.6732 5.8279 0.674154 4 0.057488 2 0 0.0994487 0.00264493
375 1 22.6319 6.69333 1.20734 4 0.109333 2 0 0.0994487 -0.202031
376 1 23.3484 6.78052 0.267835 4 0.0941177 2 0 0.0994487 -0.125388
377 1 23.4822 5.88496 1.30013 4 0.0623543 2 0 0.0994487 -0.176409
378 1 24.3197 6.56281 1.15825 4 0.0763142 2 0 0.0994487 0.173493
379 1 24.1457 6.00685 0.427617 4 0.0546204 2 0 0.0994487 0.00243272
380 1 25.6831 5.86213 0.700952 4 0.0302617 2 0 0.0994487 0.163891
381 1 25.1124 6.04132 1.67733 4 0.042341 2 0 0.0994487 0.00366469
382 1 25.1593 6.74159 0.495153 4 0.0583384 2 0 0.0994487 0.0903852
383 1 25.8251 6.59457 1.40775 4 0.0419614 2 0 0.0994487 0.088095
384 1 26.6903 5.84511 1.4763 4 0.0188044 2 0 0.0994487 0.0917588
385 1 27.4966 5.54334 0.722172 4 0.00950605 2 0 0.0994487 -0.251576
386 1 26.7485 6.36567 0.651888 4 0.0234517 2 0 0.0994487 0.0387474
387 1 27.7011 6.47315 1.36539 4 0.0141532 2 0 0.0994487 0.131491
388 1 28.3648 5.52203 1.4872 4 0.00541193 2 0 0.0994487 0.0456323
389 1 27.7097 7.0074 0.530173 4 0.017202 2 0 0.0994487 0.0321222
390 1 29.3889 5.30889 0.818726 4 0.00245393 2 0 0.0994487 0.316719
391 1 29.4379 6.18214 1.32212 4 0.00345758 2 0 0.0994487 -0.00338158
392 1 29.5784 6.89773 0.506505 4 0.00421177 2 0 0.0994487 0.0925861
393 1 28.4685 6.20589 0.638647 4 0.00690784 2 0 0.0994487 -0.270084
394 1 29.3762 6.15398 0.0801838 4 0.00335373 2 0 0.0994487 0.0969257
395 1 28.4822 5.38976 0.0592959 4 0.00410263 2 0 0.0994487 -0.105004
396 1 30.9636 5.36838 0.595026 4 0.000879456 2 0 0.0994487 0.667848
397 1 30.2159 5.45949 1.46813 4 0.0013855 2 0 0.0994487 0.0540212
398 1 30.3958 6.18258 0.649752 4 0.0018203 2 0 0.0994487 0.329001
399 1 31.2189 6.15516 1.38439 4 0.00103856 2 0 0.0994487 0.587257
400 1 31.1994 6.95407 0.60342 4 0.00147982 2 0 0.0994487 0.812253
401 1 31.7235 5.99622 0.446564 4 0.000740349 2 0 0.0994487 0.879729
402 1 0.261851 7.63199 0.661866 4 4.4724e-10 2 0 0.0994487 -0.876373
403 1 0.831025 8.46344 0.61936 4 1.07599e-09 2 0 0.0994487 -0.577626
404 1 1.11211 7.86396 1.49711 4 1.15322e-09 2 0 0.0994487 -0.154428
405 1 0.356955 8.5626 1.47035 4 5.98949e-10 2 0 0.0994487 -0.764984
406 1 1.59266 7.76478 0.37187 4 2.25948e-09 2 0 0.0994487 -0.089788
407 1 1.72382 8.61735 1.46471 4 3.30342e-09 2 0 0.0994487 0.0395966
408 1 2.48799 7.14986 0.476331 4 6.35039e-09 2 0 0.0994487 -0.0836962
409 1 2.19177 8.6335 0.399707 4 6.51088e-09 2 0 0.0994487 -0.137268
410 1 2.39416 7.81099 1.27726 4 6.70283e-09 2 0 0.0994487 0.0869919
411 1 3.01349 8.51445 0.935533 4 1.9219e-08 2 0 0.0994487 -0.539311
412 1 3.24418 7.77117 0.327041 4 2.0304e-08 2 0 0.0994487 -0.196205
413 1 3.81243 8.45898 0.0822892 4 4.42109e-08 2 0 0.0994487 -0.0457786
414 1 3.97971 7.67009 1.24863 4 5.13805e-08 2 0 0.0994487 -0.055489
415 1 4.70459 8.25653 0.921772 4 1.52998e-07 2 0 0.0994487 0.295333
416 1 4.67023 7.63706 0.247803 4 1.09384e-07 2 0 0.0994487 0.0376919
417 1 3.81127 8.34851 1.76162 4 4.38154e-08 2 0 0.0994487 -0.057436
418 1 5.86955 8.34822 0.169905 4 5.38331e-07 2 0 0.0994487 0.113105
419 1 5.48363 7.59071 1.03232 4 3.39986e-07 2 0 0.0994487 -0.467664
420 1 6.49365 7.53799 0.169175 4 8.74955e-07 2 0 0.0994487 0.187624
421 1 6.39674 8.23976 1.04384 4 1.294e-06 2 0 0.0994487 0.338158
422 1 7.28583 7.76918 0.746313 4 2.96558e-06 2 1 0.0994487 0.00993588
423 1 8.2859 8.31376 0.868772 4 1.11508e-05 2 2 0.0994487 0.278839
424 1 7.27857 8.18368 1.7015 4 4.21844e-06 2 2 0.0994487 -0.174646
425 1 8.05208 7.48784 1.5604 4 6.4178e-06 2 1 0.0994487 0.185102
426 1 7.99895 7.60312 0.0282118 4 4.34695e-06 2 0 0.0994487 0.0674131
427 1 9.84313 7.22199 0.72344 4 3.29479e-05 2 1 0.0994487 -0.346913
428 1 8.91207 7.61626 0.661731 4 1.53013e-05 2 1 0.0994487 0.158742
429 1 9.73234 8.61964 0.693151 4 5.22884e-05 2 3 0.0994487 -0.257265
430 1 9.09265 8.69904 1.44495 4 3.4771e-05 2 9 0.0994487 -0.394582
431 1 9.64026 7.88932 1.60055 4 4.54479e-05 2 8 0.0994487 -0.340187
432 1 11.3161 7.14287 0.810636 4 0.000116254 2 1 0.0994487 0.448484
433 1 10.5731 7.9454 0.844311 4 8.83532e-05 2 3 0.0994487 -0.198618
434 1 10.5877 8.70196 1.4255 4 0.000131554 1 8 0.0994487 -0.148017
435 1 11.4057 7.80503 1.60301 4 0.000200809 2 7 0.0994487 0.22804
436 1 11.227 8.11851 0.0422735 4 0.000123699 2 0 0.0994487 0.174328
437 1 12.7061 7.28322 0.565784 4 0.000459558 2 0 0.0994487 -0.0531417
438 1 12.178 8.23518 0.590765 4 0.000399703 2 2 0.0994487 0.163923
439 1 12.0637 7.15788 1.37768 4 0.000257525 2 3 0.0994487 0.145601
440 1 12.0887 8.68064 1.49044 4 0.000523204 1 8 0.0994487 0.0832459