ITEM: TIMESTEP
41500
ITEM: NUMBER OF ATOMS
9495
ITEM: BOX BOUNDS mm mm mm
0.0000000000000000e+00 3.1748021039364001e+01
0.0000000000000000e+00 3.1748021039364001e+01
-7.4072398406925706e-04 3.1748021039364001e+01
ITEM: ATOMS id type x y z c_phase c_temp c_surf c_nbond c_visc f_3[1]
1 1 0.116341 1.10259 0.464337 4 0.000279706 2 0 0.0994487 -0.68194
2 1 0.974108 1.6685 0.77798 4 0.000386984 2 0 0.0994487 -0.517032
3 1 0.714648 0.793562 1.41295 4 0.000310004 2 0 0.0994487 -0.281794
4 1 0.00336375 1.60273 1.37437 4 0.000301655 2 0 0.0994487 -0.804051
5 1 0.729896 0.0633724 0.61602 4 0.000260796 3 0 0.0994487 -0.190374
6 1 1.71015 0.808983 1.0155 4 0.00044472 2 0 0.0994487 -0.33207
7 1 1.80059 1.47468 0.221075 4 0.000476927 2 0 0.0994487 -0.125829
8 1 1.82015 1.66049 1.76126 4 0.000506767 2 0 0.0994487 -0.139533
9 1 2.52093 0.749102 0.203812 4 0.000563413 2 0 0.0994487 -0.14294
10 1 2.59149 0.0538711 1.03726 4 0.000560386 2 0 0.0994487 -0.295005
11 1 2.64922 1.541 0.882848 4 0.000673506 2 0 0.0994487 0.235752
12 1 2.66829 0.815502 1.7457 4 0.000618732 2 0 0.0994487 -0.187041
13 1 3.43386 0.933692 0.956349 4 0.000855544 2 0 0.0994487 0.320239
14 1 3.49924 0.0925696 1.70571 4 0.000731909 2 0 0.0994487 0.178053
15 1 3.60652 1.70798 1.71994 4 0.0010389 2 0 0.0994487 0.0487943
16 1 4.10576 0.858321 0.325305 4 0.00112867 2 0 0.0994487 0.153145
17 1 4.96159 0.56786 1.17466 4 0.00172446 2 0 0.0994487 -0.0370683
18 1 4.91949 1.59987 0.383508 4 0.00193317 2 0 0.0994487 -0.100249
19 1 4.3472 0.941527 1.62884 4 0.00129968 2 0 0.0994487 0.110737
20 1 3.47612 0.111428 0.171027 4 0.000706689 2 0 0.0994487 0.166215
21 1 5.64741 0.645627 0.325839 4 0.00234164 2 0 0.0994487 -0.0806056
22 1 5.88414 1.31048 0.938036 4 0.0027827 2 0 0.0994487 -0.199591
23 1 6.57478 1.39104 0.218369 4 0.00368982 2 0 0.0994487 -0.0861344
24 1 5.78374 0.460658 1.69897 4 0.00238098 2 0 0.0994487 -0.0846532
25 1 5.03122 1.72414 1.43602 4 0.00202556 2 0 0.0994487 0.0453706
26 1 6.7138 0.39031 0.865278 4 0.00348945 2 0 0.0994487 -0.0793826
27 1 6.69104 1.00962 1.69374 4 0.00359041 2 0 0.0994487 -0.107924
28 1 8.2679 0.408875 1.07337 4 0.00591238 2 0 0.0994487 -0.100167
29 1 7.36782 1.22285 0.954198 4 0.00481735 2 0 0.0994487 -0.302556
30 1 8.24709 1.39092 0.236779 4 0.00663342 2 0 0.0994487 -0.046065
31 1 8.12868 1.27217 1.60653 4 0.00614612 2 0 0.0994487 -0.00811772
32 1 7.58247 0.647807 0.140287 4 0.0048599 2 0 0.0994487 -0.110936
33 1 8.85849 0.508506 0.273966 4 0.00719555 2 0 0.0994487 -0.0616467
34 1 9.55301 0.3386 0.888639 4 0.00876789 2 0 0.0994487 0.00506354
35 1 9.02586 1.30716 1.1133 4 0.00844693 2 0 0.0994487 -0.0606473
37 1 9.63995 1.37474 0.0900752 4 0.00991831 2 0 0.0994487 0.099291
38 1 11.2128 0.215893 0.632658 4 0.0144527 2 0 0.0994487 0.203503
39 1 10.3637 1.04743 0.823114 4 0.0121463 2 0 0.0994487 0.539885
40 1 10.523 0.196295 1.44539 4 0.0116298 2 0 0.0994487 0.0644286
41 1 11.2856 1.01846 1.41785 4 0.0168075 2 0 0.0994487 0.164707
42 1 10.5797 1.67706 1.72992 4 0.0147036 2 0 0.0994487 0.118164
43 1 10.2431 0.367861 0.0780499 4 0.0101957 2 0 0.0994487 0.149801
44 1 12.8757 0.211714 0.636805 4 0.0253672 2 0 0.0994487 0.0587882
45 1 12.0457 1.07408 0.506655 4 0.0221864 2 0 0.0994487 -0.0235507
46 1 12.1319 0.316439 1.29957 4 0.020657 2 0 0.0994487 0.0188369
47 1 12.7194 1.19864 1.3723 4 0.027908 2 0 0.0994487 -0.0305264
48 1 14.3729 0.318493 0.764646 4 0.0382011 2 0 0.0994487 -0.0460374
49 1 13.5924 1.113 0.843618 4 0.0354922 2 0 0.0994487 -0.26305
50 1 14.0399 1.55958 0.167469 4 0.0423623 2 0 0.0994487 -0.0898241
51 1 13.6075 0.359834 1.6352 4 0.0315977 2 0 0.0994487 -0.0562627
52 1 14.3777 1.14948 1.47647 4 0.041494 2 0 0.0994487 -0.0178261
53 1 14.8761 1.55337 0.662943 4 0.0492974 2 0 0.0994487 0.389951
54 1 15.7061 0.770636 0.788259 4 0.0519554 2 0 0.0994487 0.366486
55 1 16.5532 1.54451 0.681338 4 0.071484 2 0 0.0994487 0.000808668
56 1 15.1422 0.4642 1.64149 4 0.0440281 2 0 0.0994487 0.152078
57 1 16.547 0.712289 1.3421 4 0.063395 2 0 0.0994487 0.0956284
58 1 15.6341 1.48544 1.3916 4 0.0573319 2 0 0.0994487 0.153634
59 1 15.1049 0.711806 0.0677822 4 0.0440652 2 0 0.0994487 0.169203
60 1 17.2544 0.732268 0.547589 4 0.0726742 2 0 0.0994487 0.0286316
61 1 17.9231 1.58109 0.757246 4 0.0908167 2 0 0.0994487 0.0415663
62 1 17.916 0.742935 1.42801 4 0.0821683 2 0 0.0994487 -0.224374
63 1 17.2202 1.74884 1.56274 4 0.0850853 2 0 0.0994487 -0.0984813
64 1 19.5372 0.0167772 0.662766 4 0.0874755 2 0 0.0994487 0.0436446
65 1 18.7918 0.725074 0.684829 4 0.0893175 2 0 0.0994487 -0.269944
66 1 19.5395 1.55488 0.841653 4 0.106744 2 0 0.0994487 -0.341158
67 1 19.0276 0.158607 1.54508 4 0.0864142 2 0 0.0994487 -0.158663
68 1 19.5934 0.967491 1.68957 4 0.0974154 2 0 0.0994487 0.00835226
69 1 18.6564 1.51302 1.50035 4 0.098629 2 0 0.0994487 -0.250305
70 1 21.0889 0.349843 1.06749 4 0.0981454 2 0 0.0994487 -0.196125
71 1 20.2493 0.776373 0.980057 4 0.0993332 2 0 0.0994487 -0.0497584
72 1 21.1062 1.65725 0.951506 4 0.114698 2 0 0.0994487 0.692921
73 1 21.1874 0.765598 0.218806 4 0.100982 2 0 0.0994487 -0.0445898
74 1 20.3457 1.51479 0.193617 4 0.109863 2 0 0.0994487 -0.0806012
75 1 22.0087 0.262534 0.539755 4 0.0978024 2 0 0.0994487 0.0993603
76 1 22.7913 0.430275 1.40734 4 0.0990958 2 0 0.0994487 0.206601
77 1 22.1105 1.14763 1.32981 4 0.106692 2 0 0.0994487 0.240026
78 1 21.9982 1.59955 0.538558 4 0.115023 2 0 0.0994487 0.185174
79 1 22.9157 1.07463 0.445168 4 0.10537 2 0 0.0994487 0.052086
80 1 24.228 0.380179 1.45209 4 0.095336 2 0 0.0994487 0.0576177
81 1 23.5672 0.357563 0.57369 4 0.0972724 2 0 0.0994487 0.0385721
82 1 24.4367 1.18687 0.754729 4 0.103651 2 0 0.0994487 -0.0192934
83 1 23.4757 1.2499 1.4028 4 0.108475 2 0 0.0994487 0.0298793
84 1 24.955 0.315686 0.551996 4 0.0897665 2 0 0.0994487 -0.0171976
85 1 26.0085 0.383365 1.1715 4 0.0807179 2 0 0.0994487 -0.185858
86 1 25.169 1.12579 1.48087 4 0.0977602 2 0 0.0994487 0.0251064
87 1 25.9301 1.73476 1.35794 4 0.0997359 2 0 0.0994487 0.0345379
88 1 25.8917 0.929212 0.432102 4 0.0866535 2 0 0.0994487 -0.0954185
89 1 27.5736 1.28032 0.38906 4 0.073051 2 0 0.0994487 0.0454501
90 1 27.6142 0.50928 0.874321 4 0.0677063 2 0 0.0994487 0.175389
91 1 26.7559 1.02809 1.26347 4 0.0784326 2 0 0.0994487 -0.236884
92 1 28.3748 0.337482 1.39813 4 0.0597031 2 0 0.0994487 0.00984515
93 1 26.7925 0.240345 0.226621 4 0.0719875 2 0 0.0994487 0.0380753
94 1 28.6489 1.24263 0.742341 4 0.0634896 2 0 0.0994487 0.102407
95 1 29.3912 0.945639 1.56878 4 0.0550755 2 0 0.0994487 -0.0192001
96 1 28.5228 1.71921 1.49749 4 0.0680437 2 0 0.0994487 -0.0429799
97 1 29.8133 0.173958 1.46124 4 0.0491396 2 0 0.0994487 0.133416
98 1 29.2734 0.3547 0.615275 4 0.0525455 2 0 0.0994487 -0.0816807
99 1 31.5874 0.266128 1.25663 4 0.0394479 3 0 0.0994487 0.830097
100 1 30.7016 0.49015 0.470738 4 0.0457376 2 0 0.0994487 0.354852
101 1 30.1009 1.19877 0.774133 4 0.0528479 2 0 0.0994487 0.21092
102 1 30.8649 0.971942 1.39386 4 0.0476117 2 0 0.0994487 0.703282
103 1 1.11081 2.43607 0.129285 4 0.000432666 2 0 0.0994487 -0.0373225
104 1 0.133403 2.3821 0.812241 4 0.000361751 2 0 0.0994487 -0.984517
105 1 1.28845 3.23764 0.949187 4 0.000563143 2 0 0.0994487 0.222088
106 1 1.13977 2.36077 1.59162 4 0.000458851 2 0 0.0994487 -0.22219
107 1 0.386685 3.02999 1.54944 4 0.000432072 2 0 0.0994487 -0.671256
108 1 0.332248 3.09582 0.131296 4 0.000414844 2 0 0.0994487 -0.59134
109 1 1.90972 2.41867 0.78376 4 0.000586532 2 0 0.0994487 0.0782073
110 1 2.65852 3.28029 0.860875 4 0.000984677 2 0 0.0994487 0.0668019
111 1 2.66931 2.22918 1.53373 4 0.00076914 2 0 0.0994487 0.0829542
112 1 3.2579 3.42668 1.64938 4 0.00132166 2 0 0.0994487 0.00397383
113 1 2.7261 2.38168 0.0557193 4 0.000737724 2 0 0.0994487 0.1466
114 1 3.38195 2.55413 0.779289 4 0.00112247 2 0 0.0994487 0.211582
115 1 4.00679 1.841 0.711184 4 0.00131571 2 0 0.0994487 -0.0361253
116 1 4.91383 2.57277 0.815661 4 0.00231915 2 0 0.0994487 -0.259353
117 1 4.20148 3.3175 0.749446 4 0.0019938 2 0 0.0994487 0.00621376
118 1 4.13245 2.64107 1.58328 4 0.00163424 2 0 0.0994487 0.0270764
119 1 5.65047 2.44269 0.132743 4 0.00306625 2 0 0.0994487 -0.189926
120 1 6.55776 2.18062 0.772597 4 0.00416008 2 0 0.0994487 -0.289392
121 1 5.64874 3.19593 0.952489 4 0.00360319 2 0 0.0994487 -0.754638
122 1 5.861 2.19426 1.49672 4 0.00312585 2 0 0.0994487 0.0126345
123 1 6.52037 3.06691 1.5557 4 0.00487298 2 0 0.0994487 0.0443564
124 1 6.65033 2.92778 0.134227 4 0.00475677 2 0 0.0994487 0.028886
125 1 7.45405 2.22586 0.139832 4 0.00580456 2 0 0.0994487 -0.0535034
126 1 8.08209 2.20208 0.930382 4 0.00735092 2 0 0.0994487 -0.302081
127 1 7.40132 3.06835 0.934051 4 0.00690468 2 0 0.0994487 -0.045537
128 1 7.29928 2.06035 1.56856 4 0.00531893 2 0 0.0994487 -0.0607337
129 1 8.18545 3.00183 1.65211 4 0.00905671 2 0 0.0994487 -0.0454167
130 1 8.26934 2.9712 0.0392146 4 0.00928232 2 0 0.0994487 -0.150618
131 1 8.90393 2.08699 0.252387 4 0.00930187 2 0 0.0994487 0.00243245
132 1 9.77243 2.0246 1.10996 4 0.0122639 2 0 0.0994487 0.173462
133 1 8.92671 2.97262 0.928693 4 0.0117894 2 0 0.0994487 -0.156767
134 1 9.03062 2.22066 1.70398 4 0.010105 2 0 0.0994487 -0.0819684
135 1 9.56096 2.90576 0.21312 4 0.0137593 2 0 0.0994487 0.17312
136 1 10.2834 2.1137 0.214297 4 0.0137312 2 0 0.0994487 0.337739
137 1 11.1583 1.82604 0.771092 4 0.018527 2 0 0.0994487 0.260089
138 1 10.6214 2.80819 0.921535 4 0.019673 2 0 0.0994487 0.541917
139 1 11.4444 2.82964 1.57484 4 0.0263411 2 0 0.0994487 0.0951996
140 1 12.6737 1.94118 0.593851 4 0.0322899 2 0 0.0994487 -0.283932
141 1 11.928 2.64099 0.742299 4 0.0294388 2 0 0.0994487 -0.0386731
142 1 11.9239 1.9206 1.46509 4 0.0246851 2 0 0.0994487 0.0946541
143 1 12.8449 3.01766 1.68597 4 0.0418595 2 0 0.0994487 0.0363576
144 1 13.1791 3.03035 0.848852 4 0.0466118 2 0 0.0994487 -0.440853
145 1 13.3784 1.9912 1.48064 4 0.0384952 2 0 0.0994487 -0.0150693
146 1 14.0206 2.44438 0.927124 4 0.0500221 2 0 0.0994487 -0.133094
147 1 14.0279 3.38359 1.55716 4 0.0622554 2 0 0.0994487 0.0255761
148 1 14.6961 3.43698 0.884932 4 0.0742388 2 0 0.0994487 -0.332944
149 1 14.7823 2.29758 1.44821 4 0.0569028 2 0 0.0994487 0.0469287
150 1 14.8418 2.51505 0.136557 4 0.0602783 2 0 0.0994487 0.173006
151 1 14.1591 3.2262 0.0325348 4 0.0622714 2 0 0.0994487 -0.246104
152 1 13.4137 2.29398 0.0590902 4 0.0424036 2 0 0.0994487 -0.280961
153 1 15.6993 2.44373 0.692668 4 0.0717709 2 0 0.0994487 0.364397
154 1 16.3029 3.20095 0.662084 4 0.0960325 2 0 0.0994487 0.328592
155 1 16.308 2.47951 1.52575 4 0.083363 2 0 0.0994487 -0.100644
156 1 15.3694 3.25723 1.50191 4 0.0824428 2 0 0.0994487 -0.00766701
157 1 15.5706 3.25854 0.0192499 4 0.0811771 2 0 0.0994487 0.290239
158 1 17.0646 2.35032 0.682778 4 0.0922402 2 0 0.0994487 0.0234841
159 1 17.944 2.92608 0.699539 4 0.123026 2 0 0.0994487 -0.231187
160 1 18.0193 2.43917 1.58112 4 0.110288 2 0 0.0994487 -0.149132
161 1 17.0918 3.1162 1.49491 4 0.111989 2 0 0.0994487 -0.143431
162 1 18.8908 2.35742 1.01358 4 0.119059 2 0 0.0994487 -0.516823
163 1 19.7027 3.2427 1.27782 4 0.152432 2 0 0.0994487 0.394884
164 1 18.884 2.99607 0.196019 4 0.13745 2 0 0.0994487 -0.171808
165 1 19.587 2.34239 0.101452 4 0.124627 2 0 0.0994487 -0.132369
166 1 20.3251 1.78863 1.72442 4 0.113111 2 0 0.0994487 0.0449548
167 1 21.1565 2.41663 0.458355 4 0.134592 2 0 0.0994487 0.196189
168 1 20.1948 2.46882 1.11433 4 0.130059 2 0 0.0994487 0.286752
169 1 21.31 3.29463 1.39314 4 0.171374 2 0 0.0994487 0.0777317
170 1 20.4222 2.99313 0.334941 4 0.148145 2 0 0.0994487 0.186292
171 1 22.8719 2.07007 1.50872 4 0.12909 2 0 0.0994487 -0.0221217
172 1 22.9717 2.60199 0.735523 4 0.150449 2 0 0.0994487 0.133329
173 1 22.0961 2.49917 1.23787 4 0.143476 2 0 0.0994487 0.186442
174 1 21.9898 3.20043 0.598797 4 0.174615 2 0 0.0994487 -0.075747
175 1 22.6771 3.40124 0.07601 4 0.187064 2 0 0.0994487 0.0760744
176 1 23.7438 1.80844 0.624025 4 0.118811 2 0 0.0994487 -0.0873572
177 1 24.4289 1.98763 1.61102 4 0.120701 2 0 0.0994487 -0.0641743
178 1 24.342 2.68296 0.775192 4 0.142737 2 0 0.0994487 -0.34109
179 1 23.6887 2.90303 1.53628 4 0.157008 2 0 0.0994487 -0.110503
180 1 24.4728 3.51078 1.55704 4 0.1786 2 0 0.0994487 -0.118304
181 1 24.9562 2.84566 0.0146836 4 0.139171 2 0 0.0994487 -0.0864589
182 1 26.5483 1.79415 0.511367 4 0.0917348 2 0 0.0994487 -0.00559879
183 1 25.1322 1.85613 0.509414 4 0.111536 2 0 0.0994487 -0.0215275
184 1 25.7918 2.61203 0.707489 4 0.124034 2 0 0.0994487 0.228204
185 1 25.1579 2.55548 1.52547 4 0.130688 2 0 0.0994487 0.0576681
186 1 25.7213 3.49812 1.51211 4 0.159051 2 0 0.0994487 0.123858
187 1 26.5364 2.56002 1.53049 4 0.109377 2 0 0.0994487 0.0579487
188 1 26.1686 3.50068 0.599043 4 0.149611 2 0 0.0994487 0.168846
189 1 27.5039 1.98546 1.23792 4 0.0820714 2 0 0.0994487 -0.186417
190 1 28.2489 2.09022 0.343734 4 0.075111 2 0 0.0994487 -0.0177242
191 1 27.0867 2.6924 0.645359 4 0.102484 2 0 0.0994487 -0.105599
192 1 27.1998 3.35397 1.41682 4 0.118061 2 0 0.0994487 -0.0983272
193 1 28.2537 2.75799 1.20639 4 0.0849575 2 0 0.0994487 -0.418304
194 1 27.982 3.21993 0.326384 4 0.0972675 2 0 0.0994487 -0.125256
195 1 29.9568 1.80906 1.70764 4 0.0579396 2 0 0.0994487 0.183201
196 1 29.4477 2.04702 0.879698 4 0.0639944 2 0 0.0994487 -0.0070813
197 1 29.1956 2.6589 0.290703 4 0.0722507 2 0 0.0994487 -0.0578278
198 1 29.2495 3.2651 1.17365 4 0.0807199 2 0 0.0994487 0.118636
199 1 30.9114 1.98502 0.924207 4 0.0560338 2 0 0.0994487 0.967251
200 1 30.1815 2.71094 1.00186 4 0.0655925 2 0 0.0994487 0.675111
201 1 31.0247 3.35309 0.97101 4 0.0685392 2 0 0.0994487 0.998409
202 1 30.9865 2.69483 1.72648 4 0.0619144 2 0 0.0994487 0.578501
203 1 30.1092 3.25953 0.132205 4 0.0704166 2 0 0.0994487 -0.0443656
204 1 30.4116 1.90909 0.0255368 4 0.0562286 2 0 0.0994487 0.106045
205 1 31.1434 2.66402 0.0761253 4 0.059736 2 0 0.0994487 0.70882
206 1 0.293831 3.78503 0.918557 4 0.000492876 2 0 0.0994487 -0.999347
207 1 0.143046 4.59443 0.482118 4 0.000551606 2 0 0.0994487 -0.784494
208 1 1.14036 4.67093 0.986638 4 0.000744187 2 0 0.0994487 -0.516754
209 1 0.0884667 5.26681 1.27761 4 0.000630676 2 0 0.0994487 -0.887458
210 1 1.04069 3.86421 0.0595682 4 0.000568666 2 0 0.0994487 0.0148877
211 1 1.84117 4.04604 0.847105 4 0.000846357 2 0 0.0994487 0.00826528
212 1 2.54049 4.85585 1.13748 4 0.0013585 2 0 0.0994487 -0.333849
213 1 2.64953 4.14475 0.20674 4 0.00122868 2 0 0.0994487 -0.0285729
214 1 1.89758 4.96895 0.278386 4 0.00107285 2 0 0.0994487 -0.153434
215 1 3.40771 4.86189 0.161635 4 0.00198236 2 0 0.0994487 -0.0163893
216 1 3.494 4.07675 0.885909 4 0.00173437 2 0 0.0994487 0.0268888
217 1 4.91235 4.00001 1.18344 4 0.00317202 2 0 0.0994487 0.0115028
218 1 4.04658 4.88002 1.14639 4 0.00261598 2 0 0.0994487 0.264486
219 1 4.26027 4.18509 0.149001 4 0.00249412 2 0 0.0994487 0.0377371
220 1 5.00947 4.74001 0.341082 4 0.00392431 2 0 0.0994487 0.0765378
221 1 5.77735 3.9378 0.198707 4 0.00431255 2 0 0.0994487 0.0260147
222 1 6.48883 3.76611 0.772067 4 0.00561571 2 0 0.0994487 0.20455
223 1 5.68025 4.73638 1.02487 4 0.00532446 2 0 0.0994487 -0.621703
224 1 6.66321 4.5115 1.6428 4 0.0072289 2 0 0.0994487 0.158931
225 1 6.68072 5.1315 0.885352 4 0.00877694 2 0 0.0994487 0.206845
226 1 8.1982 3.892 0.700757 4 0.0117499 2 0 0.0994487 -0.369904
227 1 7.40842 4.46072 0.5468 4 0.0099857 2 0 0.0994487 -0.0252149
228 1 7.39886 3.87029 1.49684 4 0.00834155 2 0 0.0994487 0.102575
229 1 8.20004 4.61106 1.48677 4 0.0140412 2 0 0.0994487 -0.0118396
230 1 9.8976 3.57792 0.885667 4 0.0192088 2 0 0.0994487 0.592763
231 1 9.07913 4.56551 0.821335 4 0.0191567 2 0 0.0994487 -0.65855
232 1 9.86266 4.50302 0.126324 4 0.0230704 2 0 0.0994487 0.0958647
233 1 9.07829 3.76256 1.49819 4 0.0154478 2 0 0.0994487 -0.070887
234 1 9.86881 4.3462 1.65532 4 0.0236917 2 0 0.0994487 -0.0856636
235 1 8.98541 3.86821 0.0631775 4 0.0150778 2 0 0.0994487 -0.138754
236 1 11.408 3.64493 0.778297 4 0.032196 2 0 0.0994487 0.202066
237 1 10.5891 4.66652 0.906264 4 0.0321198 2 0 0.0994487 0.0450718
238 1 11.3867 4.69403 0.230734 4 0.0418316 2 0 0.0994487 -0.0498906
239 1 10.7059 3.56689 1.58785 4 0.0252722 2 0 0.0994487 -0.0448502
240 1 11.3652 4.3716 1.70545 4 0.0384734 2 0 0.0994487 -0.0798283
241 1 11.3894 5.27213 0.983682 4 0.0485152 2 0 0.0994487 -0.674478
242 1 10.5826 3.84888 0.176129 4 0.0250695 2 0 0.0994487 0.210466
243 1 12.5168 3.57716 0.814749 4 0.0445631 2 0 0.0994487 -0.0105754
244 1 12.1916 4.55033 1.00021 4 0.0515451 2 0 0.0994487 0.105048
245 1 12.7362 4.99738 1.68903 4 0.06467 2 0 0.0994487 0.19133
246 1 13.2258 4.67863 0.80017 4 0.0713329 2 0 0.0994487 -0.00469337
247 1 12.6435 4.61885 0.0632315 4 0.060755 2 0 0.0994487 -0.0335798
248 1 13.9891 4.12825 0.69648 4 0.0763355 2 0 0.0994487 -0.430173
249 1 13.4832 4.21781 1.59317 4 0.0665151 2 0 0.0994487 0.0820191
250 1 14.2046 5.11838 1.52001 4 0.1014 2 0 0.0994487 -0.0289891
251 1 14.9402 5.01141 0.811699 4 0.117589 2 0 0.0994487 -0.0526677
252 1 14.9642 4.4167 1.59432 4 0.101974 2 0 0.0994487 -0.0635603
253 1 14.1405 4.90647 0.0597868 4 0.0952743 2 0 0.0994487 -0.0856928
254 1 14.961 4.19423 0.096508 4 0.0940092 2 0 0.0994487 0.0322742
255 1 15.6685 4.06642 0.926277 4 0.106824 2 0 0.0994487 0.872587
256 1 15.8798 4.77595 0.186426 4 0.133004 2 0 0.0994487 0.165392
257 1 16.5936 4.58036 0.900182 4 0.147533 2 0 0.0994487 -0.0789561
258 1 16.3184 3.95875 1.6903 4 0.119398 2 0 0.0994487 -0.0433948
259 1 15.8111 5.05317 1.64084 4 0.141529 2 0 0.0994487 0.0995022
260 1 17.2689 3.83372 0.811237 4 0.138702 2 0 0.0994487 -0.345379
261 1 18.0864 4.48855 1.09806 4 0.180271 2 0 0.0994487 -0.612131
262 1 17.9525 3.63794 1.65602 4 0.144838 2 0 0.0994487 -0.192803
263 1 17.4569 4.57727 0.0147963 4 0.16684 2 0 0.0994487 -0.097408
264 1 18.1348 3.8547 0.0583493 4 0.154716 2 0 0.0994487 -0.120515
265 1 18.8779 3.70667 0.95022 4 0.160834 2 0 0.0994487 0.0692493
266 1 18.8235 4.60949 0.361826 4 0.196599 2 0 0.0994487 0.115612
267 1 19.6906 4.67872 1.0803 4 0.228405 2 0 0.0994487 0.931528
268 1 18.7859 5.27693 1.20102 4 0.243393 2 0 0.0994487 0.599134
269 1 19.5987 3.76722 0.227421 4 0.170479 2 0 0.0994487 0.164271
270 1 20.4384 3.82188 1.23329 4 0.189856 2 0 0.0994487 0.325958
271 1 20.8846 4.71868 1.39403 3 0.26767 2 0 0.0993427 0.149061
272 1 21.5775 4.95128 0.810455 3 0.314258 2 0 0.098955 -0.00374438
273 1 21.0824 3.93136 0.512408 4 0.2062 2 0 0.0994487 0.0883057
274 1 20.1339 4.78559 0.352846 4 0.24658 2 0 0.0994487 0.145589
275 1 22.8205 3.63186 1.42135 4 0.200634 2 0 0.0994487 -0.0183981
276 1 21.9406 4.13318 1.31068 4 0.234437 2 0 0.0994487 0.0272067
277 1 22.4705 5.17735 1.27286 3 0.350441 2 0 0.0985036 0.020708
278 1 22.6119 4.34705 0.510028 3 0.254343 2 0 0.0994244 -0.0221047
279 1 23.5735 3.63903 0.782677 4 0.199887 2 0 0.0994487 0.185562
280 1 24.336 4.32055 0.625018 4 0.239402 2 0 0.0994487 -0.150093
281 1 23.4679 4.54946 1.33355 3 0.272495 2 0 0.0993103 -0.0790548
282 1 24.8518 5.25716 0.566763 3 0.304308 2 0 0.0990534 0.0409062
283 1 23.5518 5.06386 0.533607 3 0.324713 2 0 0.0988407 -0.0968886
284 1 25.0086 4.50055 1.62342 4 0.235151 2 0 0.0994487 -0.0421949
285 1 25.0629 3.68037 0.802132 4 0.180298 2 0 0.0994487 -0.187916
286 1 24.363 5.28843 1.43377 3 0.3276 2 0 0.098807 -0.15471
287 1 25.6904 5.1389 1.34266 3 0.262514 2 0 0.0993756 0.2101
288 1 26.3575 4.29031 1.37159 4 0.18192 2 0 0.0994487 0.149483
289 1 26.5026 4.97257 0.640732 4 0.214189 2 0 0.0994487 0.0989672
290 1 25.5284 4.40089 0.388179 4 0.211691 2 0 0.0994487 0.0559479
291 1 27.3302 4.86961 1.40568 4 0.177587 2 0 0.0994487 0.00661033
292 1 27.9624 3.97641 1.10408 4 0.119726 2 0 0.0994487 -0.309503
293 1 28.2771 4.73475 0.706344 4 0.140825 2 0 0.0994487 -0.0812459
294 1 27.0674 4.04323 0.570038 4 0.147126 2 0 0.0994487 0.0120233
295 1 28.9321 3.77016 0.487204 4 0.0944109 2 0 0.0994487 -0.0070321
296 1 29.0873 4.52317 1.33085 4 0.112443 2 0 0.0994487 0.0574863
297 1 29.9979 4.07209 1.02303 4 0.0861366 2 0 0.0994487 -0.275232
298 1 31.0296 3.97382 0.373364 4 0.0758701 2 0 0.0994487 0.657583
299 1 30.2046 4.67765 0.491317 4 0.097675 2 0 0.0994487 0.00995871
300 1 30.9783 4.59929 1.41131 4 0.0871396 2 0 0.0994487 0.679914
301 1 0.908283 5.53205 0.461647 4 0.000853158 2 0 0.0994487 -0.463785
302 1 1.53161 5.51184 1.37971 4 0.00103676 2 0 0.0994487 -0.117388
303 1 0.793684 6.22023 1.2768 4 0.000977186 2 0 0.0994487 -0.703381
304 1 0.257003 6.91734 1.50738 4 0.000985864 2 0 0.0994487 -0.772633
305 1 0.969942 6.9454 0.573423 4 0.0012087 2 0 0.0994487 -0.473533
306 1 1.7053 7.02884 1.23811 4 0.00151007 2 0 0.0994487 0.0665167
307 1 1.89588 6.19966 0.519025 4 0.0013972 2 0 0.0994487 -0.156401
308 1 3.10475 5.61709 1.30057 4 0.00200378 2 0 0.0994487 0.0402508
309 1 2.26359 6.15348 1.40977 4 0.00154826 2 0 0.0994487 0.040855
310 1 3.25442 6.96226 1.12748 4 0.00301299 2 0 0.0994487 -0.0541262
311 1 2.68177 5.61289 0.273587 4 0.00169377 2 0 0.0994487 -0.0596868
312 1 3.39503 6.28191 0.500536 4 0.00279651 2 0 0.0994487 -0.121447
313 1 4.18979 5.46246 0.325783 4 0.00325766 2 0 0.0994487 0.0310155
314 1 4.93434 5.42873 1.31778 4 0.00473206 2 0 0.0994487 -0.235103
315 1 4.13622 6.09659 1.22779 4 0.00379618 2 0 0.0994487 -0.0893917
316 1 4.82567 6.23357 0.333842 4 0.00527263 2 0 0.0994487 -0.0345787
317 1 4.77312 6.79931 1.15967 4 0.00600744 2 0 0.0994487 -0.305935
318 1 4.00267 7.02511 0.221759 4 0.00428682 2 0 0.0994487 -0.0853461
319 1 5.78575 5.42185 0.301847 4 0.00648485 2 0 0.0994487 0.0124999
320 1 5.6935 6.24342 0.9632 4 0.00776979 2 0 0.0994487 -0.967781
321 1 6.4578 5.98425 1.59671 4 0.00980687 2 0 0.0994487 0.140911
322 1 6.43234 6.86927 1.00965 4 0.0121438 2 0 0.0994487 0.851661
323 1 6.37773 6.04115 0.154639 4 0.00914044 2 0 0.0994487 0.11111
324 1 5.54993 7.05206 0.147147 4 0.00832376 2 0 0.0994487 0.0363839
325 1 8.21355 5.31419 0.694273 4 0.0170802 2 0 0.0994487 -0.0895994
326 1 7.32761 6.15925 0.754293 4 0.0146587 2 0 0.0994487 0.225724
327 1 7.39163 5.41839 1.49138 4 0.0124304 2 0 0.0994487 0.13675
328 1 8.23884 6.11028 1.49159 4 0.021318 2 0 0.0994487 0.0187336
329 1 8.01352 6.85364 0.728993 4 0.023821 2 0 0.0994487 0.0691803
330 1 7.28191 6.86379 1.59601 4 0.0179127 2 1 0.0994487 0.126038
331 1 7.33029 5.3575 0.0461812 4 0.011484 2 0 0.0994487 0.0813552
332 1 9.76796 5.3194 0.792562 4 0.0290368 2 0 0.0994487 0.328441
333 1 8.88016 6.18865 0.736908 4 0.027632 2 0 0.0994487 -0.235552
334 1 9.05434 5.3271 1.5973 4 0.0233027 2 0 0.0994487 -0.0628331
335 1 9.73844 6.19052 1.46731 4 0.0376575 2 0 0.0994487 -0.106553
336 1 9.09351 6.95013 1.463 4 0.0378041 2 2 0.0994487 -0.0762167
337 1 9.76329 6.23201 0.0941385 4 0.0368802 2 0 0.0994487 -0.0359545
338 1 8.99733 5.46479 0.012702 4 0.0231974 2 0 0.0994487 -0.134755
339 1 10.5831 6.02196 0.964384 4 0.0463872 2 0 0.0994487 -0.356224
340 1 11.3128 6.37134 0.0776634 4 0.0584987 2 0 0.0994487 0.100342
341 1 10.5187 6.94145 0.15452 4 0.0553885 2 0 0.0994487 -0.0735287
342 1 10.4686 6.92564 1.49614 4 0.0585111 2 1 0.0994487 -0.0634972
343 1 11.9994 5.6274 0.183157 4 0.06055 2 0 0.0994487 -0.0105306
344 1 12.6757 5.81849 0.861776 4 0.0785312 2 0 0.0994487 0.0817468
345 1 11.7774 6.20735 1.05291 4 0.0668586 2 0 0.0994487 0.292338
346 1 13.3219 5.86668 1.55471 4 0.0940372 2 0 0.0994487 0.208168
347 1 13.3506 6.58297 0.813679 4 0.118351 2 0 0.0994487 -0.292108
348 1 13.3212 5.53867 0.0424813 4 0.0884053 2 0 0.0994487 -0.14291
349 1 14.0617 5.71565 0.77266 4 0.113563 2 0 0.0994487 -0.372681
350 1 14.3278 6.65176 1.40646 4 0.160929 2 1 0.0994487 -0.10309
351 1 14.1303 6.38483 0.0380077 4 0.130785 2 0 0.0994487 -0.0826091
352 1 15.0282 5.64393 0.034369 4 0.137204 2 0 0.0994487 0.0573654
353 1 15.8305 5.73813 0.95832 4 0.173807 2 0 0.0994487 0.625749
354 1 15.0472 6.45091 0.806774 4 0.176597 2 0 0.0994487 -0.17457
355 1 16.491 6.45257 1.1401 4 0.2486 2 0 0.0994487 0.204753
356 1 15.1058 5.87594 1.69804 4 0.15858 2 0 0.0994487 -0.0976671
357 1 16.62 5.41933 0.276819 4 0.181551 2 0 0.0994487 0.0799247
358 1 15.6753 6.3382 0.0390223 4 0.188492 2 0 0.0994487 0.0398046
359 1 17.8271 5.30128 0.541411 4 0.211571 2 0 0.0994487 0.15033
360 1 17.113 5.42499 1.24767 4 0.202056 2 0 0.0994487 -0.286569
361 1 17.0619 6.27419 0.411469 3 0.251346 2 0 0.0994413 0.138989
362 1 17.6649 6.24649 1.38542 3 0.282353 2 0 0.0992392 -0.255395
363 1 18.2745 7.0517 1.13153 3 0.382028 2 0 0.0979546 0.673566
364 1 18.3714 6.23173 0.609762 3 0.306682 2 0 0.0990308 0.156214
365 1 19.429 5.75829 0.62055 3 0.308357 2 0 0.0990146 0.0571899
366 1 19.3279 6.55755 1.35081 3 0.389569 2 0 0.0977966 0.281763
367 1 19.9942 6.75229 0.610261 3 0.47175 2 0 0.0950719 -0.0119079
368 1 20.7494 5.77593 0.653722 3 0.383794 2 0 0.0979186 -0.104062
369 1 20.1931 5.61076 1.39557 3 0.331143 2 0 0.0987643 0.31202
370 1 20.7787 6.6124 1.30355 3 0.526176 2 0 0.0916884 -0.344089
371 1 21.6592 6.66248 0.666524 3 0.545803 2 0 0.089997 -0.0435204
372 1 21.6631 5.87866 1.38528 3 0.447757 2 0 0.0960982 0.0420321
373 1 21.6904 5.73259 0.0517844 3 0.404874 2 0 0.0974378 -0.00150069
374 1 22.6732 5.8279 0.674154 3 0.432779 2 0 0.0966299 0.00265805
375 1 22.6319 6.69333 1.20734 3 0.581443 2 0 0.0860842 -0.202621
376 1 23.3484 6.78052 0.267835 3 0.544917 2 0 0.0900799 -0.125372
377 1 23.4822 5.88496 1.30013 3 0.438021 2 0 0.0964524 -0.176375
378 1 24.3197 6.56281 1.15825 3 0.48017 2 0 0.094653 0.173746
379 1 24.1457 6.00685 0.427617 3 0.416019 2 0 0.0971409 0.00243688
380 1 25.6831 5.86213 0.700952 3 0.321663 2 0 0.0988753 0.163896
381 1 25.1124 6.04132 1.67733 3 0.370062 2 0 0.0981827 0.00366775
382 1 25.1593 6.74159 0.495153 3 0.434076 2 0 0.0965868 0.0903893
383 1 25.8251 6.59457 1.40775 3 0.376421 2 0 0.0980648 0.0881001
384 1 26.6903 5.84511 1.4763 3 0.26715 2 0 0.0993461 0.0917614
385 1 27.4966 5.54334 0.722172 4 0.203334 2 0 0.0994487 -0.251572
386 1 26.7485 6.36567 0.651888 3 0.298328 2 0 0.0991081 0.0387501
387 1 27.7011 6.47315 1.36539 4 0.247704 2 0 0.0994487 0.131493
388 1 28.3648 5.52203 1.4872 4 0.168795 2 0 0.0994487 0.0456336
389 1 27.7097 7.0074 0.530173 3 0.274475 2 0 0.0992966 0.0321234
390 1 29.3889 5.30889 0.818726 4 0.132819 2 0 0.0994487 0.316728
391 1 29.4379 6.18214 1.32212 4 0.156549 2 0 0.0994487 -0.00338061
392 1 29.5784 6.89773 0.506505 4 0.175439 2 0 0.0994487 0.092587
393 1 28.4685 6.20589 0.638647 4 0.190275 2 0 0.0994487 -0.27008
394 1 29.3762 6.15398 0.0801838 4 0.15698 2 0 0.0994487 0.0969265
395 1 28.4822 5.38976 0.0592959 4 0.15698 2 0 0.0994487 -0.105003
396 1 30.9636 5.36838 0.595026 4 0.108639 2 0 0.0994487 0.667849
397 1 30.2159 5.45949 1.46813 4 0.117858 2 0 0.0994487 0.0540217
398 1 30.3958 6.18258 0.649752 4 0.135787 2 0 0.0994487 0.329002
399 1 31.2189 6.15516 1.38439 4 0.122699 2 0 0.0994487 0.587258
400 1 31.1994 6.95407 0.60342 4 0.142955 2 0 0.0994487 0.812252
401 1 31.7235 5.99622 0.446564 4 0.11553 2 0 0.0994487 0.879729
402 1 0.261851 7.63199 0.661866 4 0.00115005 2 0 0.0994487 -0.876374
403 1 0.831025 8.46344 0.61936 4 0.00146386 2 0 0.0994487 -0.577626
404 1 1.11211 7.86396 1.49711 4 0.0014198 2 0 0.0994487 -0.154429
405 1 0.356955 8.5626 1.47035 4 0.00131416 2 0 0.0994487 -0.764984
406 1 1.59266 7.76478 0.37187 4 0.0016766 2 0 0.0994487 -0.0897887
407 1 1.72382 8.61735 1.46471 4 0.00195928 2 0 0.0994487 0.0395959
408 1 2.48799 7.14986 0.476331 4 0.0022146 2 0 0.0994487 -0.0836981
409 1 2.19177 8.6335 0.399707 4 0.00244927 2 0 0.0994487 -0.137269
410 1 2.39416 7.81099 1.27726 4 0.00233174 2 0 0.0994487 0.0869903
411 1 3.01349 8.51445 0.935533 4 0.00348185 2 0 0.0994487 -0.539321
412 1 3.24418 7.77117 0.327041 4 0.00348581 2 0 0.0994487 -0.196207
413 1 3.81243 8.45898 0.0822892 4 0.00475144 2 0 0.0994487 -0.0457802
414 1 3.97971 7.67009 1.24863 4 0.00476371 2 0 0.0994487 -0.055492
415 1 4.70459 8.25653 0.921772 4 0.00711035 2 0 0.0994487 0.295312
416 1 4.67023 7.63706 0.247803 4 0.00627452 2 0 0.0994487 0.0376887
417 1 3.81127 8.34851 1.76162 4 0.00477192 2 0 0.0994487 -0.0574373
418 1 5.86955 8.34822 0.169905 4 0.0117333 2 0 0.0994487 0.113102
419 1 5.48363 7.59071 1.03232 4 0.00941091 2 0 0.0994487 -0.467678
420 1 6.49365 7.53799 0.169175 4 0.0137082 2 0 0.0994487 0.18762
421 1 6.39674 8.23976 1.04384 4 0.0159269 2 0 0.0994487 0.338121
422 1 7.28583 7.76918 0.746313 4 0.0221324 2 1 0.0994487 0.00992411
423 1 8.2859 8.31376 0.868772 4 0.0379524 2 2 0.0994487 0.278176
424 1 7.27857 8.18368 1.7015 4 0.0261568 2 2 0.0994487 -0.174862
425 1 8.05208 7.48784 1.5604 4 0.0295682 2 1 0.0994487 0.184993
426 1 7.99895 7.60312 0.0282118 4 0.0269113 2 0 0.0994487 0.0674109
427 1 9.84313 7.22199 0.72344 4 0.0510447 2 1 0.0994487 -0.346986
428 1 8.91207 7.61626 0.661731 4 0.040167 2 1 0.0994487 0.158461
429 1 9.73234 8.61964 0.693151 4 0.0675061 2 3 0.0994487 -0.256975
430 1 9.09265 8.69904 1.44495 4 0.0602308 2 9 0.0994487 -0.393905
431 1 9.64026 7.88932 1.60055 4 0.0625444 2 8 0.0994487 -0.340661
432 1 11.3161 7.14287 0.810636 4 0.0744659 2 1 0.0994487 0.448677
433 1 10.5731 7.9454 0.844311 4 0.0752412 2 3 0.0994487 -0.197713
434 1 10.5877 8.70196 1.4255 4 0.091191 1 8 0.0994487 -0.150916
435 1 11.4057 7.80503 1.60301 4 0.0978337 2 7 0.0994487 0.229083
436 1 11.227 8.11851 0.0422735 4 0.0849716 2 0 0.0994487 0.174338
437 1 12.7061 7.28322 0.565784 4 0.118782 2 0 0.0994487 -0.0531314
438 1 12.178 8.23518 0.590765 4 0.121934 2 2 0.0994487 0.163868
439 1 12.0637 7.15788 1.37768 4 0.0962648 2 3 0.0994487 0.146048
440 1 12.0887 8.68064 1.49044 4 0.140259 1 8 0.0994487 0.0809688
441 1 12.8601 7.99585 1.47598 4 0.158442 2 5 0.0994487 -0.219213
442 1 14.3373 7.3542 0.580954 4 0.183625 2 0 0.0994487 0.0666122
443 1 13.6169 8.09282 0.464536 4 0.178143 2 2 0.0994487 0.0261452
444 1 13.458 7.34024 1.34133 4 0.15587 2 2 0.0994487 0.0553098
445 1 14.2471 8.18371 1.35246 4 0.230673 2 2 0.0994487 0.119864
446 1 16.4328 7.18497 0.276798 3 0.286586 2 0 0.0992064 -0.0655733
447 1 15.6276 7.3114 0.923132 3 0.260672 2 0 0.0993869 -0.446652
448 1 15.0689 8.29247 0.865596 3 0.279479 2 0 0.0992606 -0.332073
449 1 16.2796 8.16168 1.10435 0 0.352116 1 0 0.0984786 -0.331649
450 1 15.1452 7.52269 1.62484 3 0.263011 2 0 0.0993725 -0.393835