ITEM: TIMESTEP
14500
ITEM: NUMBER OF ATOMS
9495
ITEM: BOX BOUNDS mm mm mm
0.0000000000000000e+00 3.1748021039364001e+01
0.0000000000000000e+00 3.1748021039364001e+01
-7.4072398406925706e-04 3.1748021039364001e+01
ITEM: ATOMS id type x y z c_phase c_temp c_surf c_nbond c_visc f_3[1]
1 1 0.116341 1.10259 0.464337 4 1.30945e-10 2 0 0.0994487 -0.68194
2 1 0.974108 1.6685 0.77798 4 4.57837e-10 2 0 0.0994487 -0.517032
3 1 0.714648 0.793562 1.41295 4 2.08854e-10 2 0 0.0994487 -0.281794
4 1 0.00336375 1.60273 1.37437 4 1.6456e-10 2 0 0.0994487 -0.804051
5 1 0.729896 0.0633724 0.61602 4 1.1847e-10 3 0 0.0994487 -0.190374
6 1 1.71015 0.808983 1.0155 4 7.00634e-10 2 0 0.0994487 -0.332069
7 1 1.80059 1.47468 0.221075 4 8.84779e-10 2 0 0.0994487 -0.125829
8 1 1.82015 1.66049 1.76126 4 1.08706e-09 2 0 0.0994487 -0.139533
9 1 2.52093 0.749102 0.203812 4 1.36536e-09 2 0 0.0994487 -0.14294
10 1 2.59149 0.0538711 1.03726 4 1.19997e-09 2 0 0.0994487 -0.295004
11 1 2.64922 1.541 0.882848 4 2.72842e-09 2 0 0.0994487 0.235754
12 1 2.66829 0.815502 1.7457 4 1.80898e-09 2 0 0.0994487 -0.187041
13 1 3.43386 0.933692 0.956349 4 4.98496e-09 2 0 0.0994487 0.32024
14 1 3.49924 0.0925696 1.70571 4 2.76073e-09 2 0 0.0994487 0.178053
15 1 3.60652 1.70798 1.71994 4 8.31149e-09 2 0 0.0994487 0.0487946
16 1 4.10576 0.858321 0.325305 4 9.7455e-09 2 0 0.0994487 0.153145
17 1 4.96159 0.56786 1.17466 4 2.48011e-08 2 0 0.0994487 -0.0370677
18 1 4.91949 1.59987 0.383508 4 3.80317e-08 2 0 0.0994487 -0.100248
19 1 4.3472 0.941527 1.62884 4 1.33407e-08 2 0 0.0994487 0.110737
20 1 3.47612 0.111428 0.171027 4 2.48718e-09 2 0 0.0994487 0.166215
21 1 5.64741 0.645627 0.325839 4 5.1318e-08 2 0 0.0994487 -0.0806052
22 1 5.88414 1.31048 0.938036 4 9.33795e-08 2 0 0.0994487 -0.199587
23 1 6.57478 1.39104 0.218369 4 1.88136e-07 2 0 0.0994487 -0.0861339
24 1 5.78374 0.460658 1.69897 4 5.02923e-08 2 0 0.0994487 -0.0846528
25 1 5.03122 1.72414 1.43602 4 4.40224e-08 2 0 0.0994487 0.0453713
26 1 6.7138 0.39031 0.865278 4 1.39745e-07 2 0 0.0994487 -0.0793822
27 1 6.69104 1.00962 1.69374 4 1.62401e-07 2 0 0.0994487 -0.107924
28 1 8.2679 0.408875 1.07337 4 5.7898e-07 2 0 0.0994487 -0.100167
29 1 7.36782 1.22285 0.954198 4 3.85947e-07 2 0 0.0994487 -0.302553
30 1 8.24709 1.39092 0.236779 4 8.95512e-07 2 0 0.0994487 -0.0460647
31 1 8.12868 1.27217 1.60653 4 7.39288e-07 2 0 0.0994487 -0.00811742
32 1 7.58247 0.647807 0.140287 4 3.3504e-07 2 0 0.0994487 -0.110936
33 1 8.85849 0.508506 0.273966 4 9.61723e-07 2 0 0.0994487 -0.0616466
34 1 9.55301 0.3386 0.888639 4 1.68304e-06 2 0 0.0994487 0.00506355
35 1 9.02586 1.30716 1.1133 4 1.78419e-06 2 0 0.0994487 -0.0606469
37 1 9.63995 1.37474 0.0900752 4 2.59734e-06 2 0 0.0994487 0.099291
38 1 11.2128 0.215893 0.632658 4 6.30832e-06 2 0 0.0994487 0.203503
39 1 10.3637 1.04743 0.823114 4 4.66537e-06 2 0 0.0994487 0.539884
40 1 10.523 0.196295 1.44539 4 3.48479e-06 2 0 0.0994487 0.0644284
41 1 11.2856 1.01846 1.41785 4 1.06534e-05 2 0 0.0994487 0.164706
42 1 10.5797 1.67706 1.72992 4 8.03492e-06 2 0 0.0994487 0.118164
43 1 10.2431 0.367861 0.0780499 4 2.35687e-06 2 0 0.0994487 0.149801
44 1 12.8757 0.211714 0.636805 4 2.49418e-05 2 0 0.0994487 0.0587873
45 1 12.0457 1.07408 0.506655 4 2.11924e-05 2 0 0.0994487 -0.0235516
46 1 12.1319 0.316439 1.29957 4 1.52614e-05 2 0 0.0994487 0.0188361
47 1 12.7194 1.19864 1.3723 4 3.83984e-05 2 0 0.0994487 -0.0305281
48 1 14.3729 0.318493 0.764646 4 7.62006e-05 2 0 0.0994487 -0.0460385
49 1 13.5924 1.113 0.843618 4 7.14708e-05 2 0 0.0994487 -0.263053
50 1 14.0399 1.55958 0.167469 4 0.000117607 2 0 0.0994487 -0.0898251
51 1 13.6075 0.359834 1.6352 4 4.38289e-05 2 0 0.0994487 -0.0562636
52 1 14.3777 1.14948 1.47647 4 0.000110032 2 0 0.0994487 -0.0178277
53 1 14.8761 1.55337 0.662943 4 0.000192441 2 0 0.0994487 0.389947
54 1 15.7061 0.770636 0.788259 4 0.000208995 2 0 0.0994487 0.366483
55 1 16.5532 1.54451 0.681338 4 0.000559083 2 0 0.0994487 0.000804864
56 1 15.1422 0.4642 1.64149 4 0.000118292 2 0 0.0994487 0.152077
57 1 16.547 0.712289 1.3421 4 0.000357721 2 0 0.0994487 0.0956259
58 1 15.6341 1.48544 1.3916 4 0.000302624 2 0 0.0994487 0.153631
59 1 15.1049 0.711806 0.0677822 4 0.000116496 2 0 0.0994487 0.169203
60 1 17.2544 0.732268 0.547589 4 0.000504566 2 0 0.0994487 0.0286297
61 1 17.9231 1.58109 0.757246 4 0.00111918 2 0 0.0994487 0.0415628
62 1 17.916 0.742935 1.42801 4 0.000724993 2 0 0.0994487 -0.224376
63 1 17.2202 1.74884 1.56274 4 0.000927485 2 0 0.0994487 -0.0984838
64 1 19.5372 0.0167772 0.662766 4 0.000793385 2 0 0.0994487 0.0436436
65 1 18.7918 0.725074 0.684829 4 0.000937578 2 0 0.0994487 -0.269945
66 1 19.5395 1.55488 0.841653 4 0.00192004 2 0 0.0994487 -0.341161
67 1 19.0276 0.158607 1.54508 4 0.000764281 2 0 0.0994487 -0.158664
68 1 19.5934 0.967491 1.68957 4 0.00132397 2 0 0.0994487 0.00835066
69 1 18.6564 1.51302 1.50035 4 0.00143137 2 0 0.0994487 -0.250307
70 1 21.0889 0.349843 1.06749 4 0.00134957 2 0 0.0994487 -0.196126
71 1 20.2493 0.776373 0.980057 4 0.00144005 2 0 0.0994487 -0.0497614
72 1 21.1062 1.65725 0.951506 4 0.00271827 2 0 0.0994487 0.692914
73 1 21.1874 0.765598 0.218806 4 0.00155022 2 0 0.0994487 -0.0445907
74 1 20.3457 1.51479 0.193617 4 0.00215217 2 0 0.0994487 -0.0806022
75 1 22.0087 0.262534 0.539755 4 0.00136414 2 0 0.0994487 0.0993591
76 1 22.7913 0.430275 1.40734 4 0.00154288 2 0 0.0994487 0.206599
77 1 22.1105 1.14763 1.32981 4 0.00213455 2 0 0.0994487 0.240022
78 1 21.9982 1.59955 0.538558 4 0.00288974 2 0 0.0994487 0.185171
79 1 22.9157 1.07463 0.445168 4 0.00211014 2 0 0.0994487 0.0520839
80 1 24.228 0.380179 1.45209 4 0.00150492 2 0 0.0994487 0.0576164
81 1 23.5672 0.357563 0.57369 4 0.00151963 2 0 0.0994487 0.0385705
82 1 24.4367 1.18687 0.754729 4 0.0023 2 0 0.0994487 -0.0192968
83 1 23.4757 1.2499 1.4028 4 0.00250172 2 0 0.0994487 0.0298764
84 1 24.955 0.315686 0.551996 4 0.00131537 2 0 0.0994487 -0.0171988
85 1 26.0085 0.383365 1.1715 4 0.00106743 2 0 0.0994487 -0.185859
86 1 25.169 1.12579 1.48087 4 0.0020124 2 0 0.0994487 0.0251051
87 1 25.9301 1.73476 1.35794 4 0.00245523 2 0 0.0994487 0.0345369
88 1 25.8917 0.929212 0.432102 4 0.0014199 2 0 0.0994487 -0.0954193
89 1 27.5736 1.28032 0.38906 4 0.000926266 2 0 0.0994487 0.0454494
90 1 27.6142 0.50928 0.874321 4 0.000650369 2 0 0.0994487 0.175388
91 1 26.7559 1.02809 1.26347 4 0.00112396 2 0 0.0994487 -0.236885
92 1 28.3748 0.337482 1.39813 4 0.00042069 2 0 0.0994487 0.00984468
93 1 26.7925 0.240345 0.226621 4 0.000716191 2 0 0.0994487 0.0380749
94 1 28.6489 1.24263 0.742341 4 0.000587542 2 0 0.0994487 0.102406
95 1 29.3912 0.945639 1.56878 4 0.000330895 2 0 0.0994487 -0.0192003
96 1 28.5228 1.71921 1.49749 4 0.000774504 2 0 0.0994487 -0.0429805
97 1 29.8133 0.173958 1.46124 4 0.000192426 2 0 0.0994487 0.133416
98 1 29.2734 0.3547 0.615275 4 0.000262442 2 0 0.0994487 -0.0816809
99 1 31.5874 0.266128 1.25663 4 7.29293e-05 3 0 0.0994487 0.830096
100 1 30.7016 0.49015 0.470738 4 0.000140722 2 0 0.0994487 0.354852
101 1 30.1009 1.19877 0.774133 4 0.000273904 2 0 0.0994487 0.21092
102 1 30.8649 0.971942 1.39386 4 0.000171654 2 0 0.0994487 0.703281
103 1 1.11081 2.43607 0.129285 4 6.23987e-10 2 0 0.0994487 -0.0373223
104 1 0.133403 2.3821 0.812241 4 2.98731e-10 2 0 0.0994487 -0.984517
105 1 1.28845 3.23764 0.949187 4 1.50585e-09 2 0 0.0994487 0.222089
106 1 1.13977 2.36077 1.59162 4 7.8514e-10 2 0 0.0994487 -0.222189
107 1 0.386685 3.02999 1.54944 4 5.27005e-10 2 0 0.0994487 -0.671256
108 1 0.332248 3.09582 0.131296 4 4.37751e-10 2 0 0.0994487 -0.59134
109 1 1.90972 2.41867 0.78376 4 1.86409e-09 2 0 0.0994487 0.078208
110 1 2.65852 3.28029 0.860875 4 7.65187e-09 2 0 0.0994487 0.0668024
111 1 2.66931 2.22918 1.53373 4 3.99828e-09 2 0 0.0994487 0.0829546
112 1 3.2579 3.42668 1.64938 4 1.56345e-08 2 0 0.0994487 0.00397423
113 1 2.7261 2.38168 0.0557193 4 3.43133e-09 2 0 0.0994487 0.1466
114 1 3.38195 2.55413 0.779289 4 1.11592e-08 2 0 0.0994487 0.211583
115 1 4.00679 1.841 0.711184 4 1.58393e-08 2 0 0.0994487 -0.0361244
116 1 4.91383 2.57277 0.815661 4 6.56417e-08 2 0 0.0994487 -0.259351
117 1 4.20148 3.3175 0.749446 4 4.47562e-08 2 0 0.0994487 0.00621458
118 1 4.13245 2.64107 1.58328 4 2.71716e-08 2 0 0.0994487 0.0270769
119 1 5.65047 2.44269 0.132743 4 1.22855e-07 2 0 0.0994487 -0.189926
120 1 6.55776 2.18062 0.772597 4 2.91123e-07 2 0 0.0994487 -0.289387
121 1 5.64874 3.19593 0.952489 4 1.99635e-07 2 0 0.0994487 -0.754633
122 1 5.861 2.19426 1.49672 4 1.36146e-07 2 0 0.0994487 0.0126352
123 1 6.52037 3.06691 1.5557 4 4.34753e-07 2 0 0.0994487 0.044357
124 1 6.65033 2.92778 0.134227 4 4.02676e-07 2 0 0.0994487 0.0288865
125 1 7.45405 2.22586 0.139832 4 6.79303e-07 2 0 0.0994487 -0.053503
126 1 8.08209 2.20208 0.930382 4 1.31539e-06 2 0 0.0994487 -0.302079
127 1 7.40132 3.06835 0.934051 4 1.12373e-06 2 0 0.0994487 -0.0455317
128 1 7.29928 2.06035 1.56856 4 5.39965e-07 2 0 0.0994487 -0.0607332
129 1 8.18545 3.00183 1.65211 4 2.17269e-06 2 0 0.0994487 -0.0454164
130 1 8.26934 2.9712 0.0392146 4 2.26645e-06 2 0 0.0994487 -0.150618
131 1 8.90393 2.08699 0.252387 4 2.35753e-06 2 0 0.0994487 0.00243261
132 1 9.77243 2.0246 1.10996 4 5.20931e-06 2 0 0.0994487 0.173462
133 1 8.92671 2.97262 0.928693 4 4.52152e-06 2 0 0.0994487 -0.156767
134 1 9.03062 2.22066 1.70398 4 2.9722e-06 2 0 0.0994487 -0.0819684
135 1 9.56096 2.90576 0.21312 4 6.69166e-06 2 0 0.0994487 0.173119
136 1 10.2834 2.1137 0.214297 4 6.88365e-06 2 0 0.0994487 0.337738
137 1 11.1583 1.82604 0.771092 4 1.53319e-05 2 0 0.0994487 0.260087
138 1 10.6214 2.80819 0.921535 4 1.80668e-05 2 0 0.0994487 0.541915
139 1 11.4444 2.82964 1.57484 4 3.69531e-05 2 0 0.0994487 0.0951983
140 1 12.6737 1.94118 0.593851 4 6.11862e-05 2 0 0.0994487 -0.283934
141 1 11.928 2.64099 0.742299 4 4.99871e-05 2 0 0.0994487 -0.038675
142 1 11.9239 1.9206 1.46509 4 3.09775e-05 2 0 0.0994487 0.0946527
143 1 12.8449 3.01766 1.68597 4 0.000120778 2 0 0.0994487 0.036356
144 1 13.1791 3.03035 0.848852 4 0.000167234 2 0 0.0994487 -0.440859
145 1 13.3784 1.9912 1.48064 4 9.7143e-05 2 0 0.0994487 -0.0150709
146 1 14.0206 2.44438 0.927124 4 0.000207286 2 0 0.0994487 -0.133105
147 1 14.0279 3.38359 1.55716 4 0.000358604 2 0 0.0994487 0.0255736
148 1 14.6961 3.43698 0.884932 4 0.000593317 2 0 0.0994487 -0.332967
149 1 14.7823 2.29758 1.44821 4 0.000299447 2 0 0.0994487 0.0469265
150 1 14.8418 2.51505 0.136557 4 0.000340008 2 0 0.0994487 0.173004
151 1 14.1591 3.2262 0.0325348 4 0.000351944 2 0 0.0994487 -0.246106
152 1 13.4137 2.29398 0.0590902 4 0.000122163 2 0 0.0994487 -0.280962
153 1 15.6993 2.44373 0.692668 4 0.000583316 2 0 0.0994487 0.364391
154 1 16.3029 3.20095 0.662084 4 0.00130744 2 0 0.0994487 0.328587
155 1 16.308 2.47951 1.52575 4 0.000894129 2 0 0.0994487 -0.100647
156 1 15.3694 3.25723 1.50191 4 0.000812185 2 0 0.0994487 -0.00766997
157 1 15.5706 3.25854 0.0192499 4 0.000752071 2 0 0.0994487 0.290237
158 1 17.0646 2.35032 0.682778 4 0.00121722 2 0 0.0994487 0.0234804
159 1 17.944 2.92608 0.699539 4 0.0027764 2 0 0.0994487 -0.231191
160 1 18.0193 2.43917 1.58112 4 0.00206084 2 0 0.0994487 -0.149135
161 1 17.0918 3.1162 1.49491 4 0.00205522 2 0 0.0994487 -0.143435
162 1 18.8908 2.35742 1.01358 4 0.00269376 2 0 0.0994487 -0.516825
163 1 19.7027 3.2427 1.27782 4 0.00589447 2 0 0.0994487 0.39488
164 1 18.884 2.99607 0.196019 4 0.00392808 2 0 0.0994487 -0.171809
165 1 19.587 2.34239 0.101452 4 0.0031249 2 0 0.0994487 -0.13237
166 1 20.3251 1.78863 1.72442 4 0.00243519 2 0 0.0994487 0.0449531
167 1 21.1565 2.41663 0.458355 4 0.00468469 2 0 0.0994487 0.196187
168 1 20.1948 2.46882 1.11433 4 0.00393115 2 0 0.0994487 0.286744
169 1 21.31 3.29463 1.39314 4 0.00947138 2 0 0.0994487 0.0777281
170 1 20.4222 2.99313 0.334941 4 0.00582964 2 0 0.0994487 0.18629
171 1 22.8719 2.07007 1.50872 4 0.00450155 2 0 0.0994487 -0.0221241
172 1 22.9717 2.60199 0.735523 4 0.00714149 2 0 0.0994487 0.133325
173 1 22.0961 2.49917 1.23787 4 0.0060323 2 0 0.0994487 0.186436
174 1 21.9898 3.20043 0.598797 4 0.0101995 2 0 0.0994487 -0.0757518
175 1 22.6771 3.40124 0.07601 4 0.0119827 2 0 0.0994487 0.076073
176 1 23.7438 1.80844 0.624025 4 0.00360373 2 0 0.0994487 -0.0873598
177 1 24.4289 1.98763 1.61102 4 0.00395655 2 0 0.0994487 -0.0641757
178 1 24.342 2.68296 0.775192 4 0.00659947 2 0 0.0994487 -0.341092
179 1 23.6887 2.90303 1.53628 4 0.00826018 2 0 0.0994487 -0.110505
180 1 24.4728 3.51078 1.55704 4 0.0118055 2 0 0.0994487 -0.118305
181 1 24.9562 2.84566 0.0146836 4 0.00607195 2 0 0.0994487 -0.0864594
182 1 26.5483 1.79415 0.511367 4 0.00198647 2 0 0.0994487 -0.00559938
183 1 25.1322 1.85613 0.509414 4 0.00324353 2 0 0.0994487 -0.0215287
184 1 25.7918 2.61203 0.707489 4 0.00476008 2 0 0.0994487 0.228203
185 1 25.1579 2.55548 1.52547 4 0.00530253 2 0 0.0994487 0.0576671
186 1 25.7213 3.49812 1.51211 4 0.00906305 2 0 0.0994487 0.123858
187 1 26.5364 2.56002 1.53049 4 0.00346069 2 0 0.0994487 0.0579485
188 1 26.1686 3.50068 0.599043 4 0.00784779 2 0 0.0994487 0.168846
189 1 27.5039 1.98546 1.23792 4 0.00149546 2 0 0.0994487 -0.186418
190 1 28.2489 2.09022 0.343734 4 0.00110315 2 0 0.0994487 -0.0177245
191 1 27.0867 2.6924 0.645359 4 0.00296827 2 0 0.0994487 -0.105599
192 1 27.1998 3.35397 1.41682 4 0.00437289 2 0 0.0994487 -0.0983267
193 1 28.2537 2.75799 1.20639 4 0.00169967 2 0 0.0994487 -0.418304
194 1 27.982 3.21993 0.326384 4 0.00251863 2 0 0.0994487 -0.125256
195 1 29.9568 1.80906 1.70764 4 0.000396608 2 0 0.0994487 0.183201
196 1 29.4477 2.04702 0.879698 4 0.000609919 2 0 0.0994487 -0.00708163
197 1 29.1956 2.6589 0.290703 4 0.000934513 2 0 0.0994487 -0.0578278
198 1 29.2495 3.2651 1.17365 4 0.00133611 2 0 0.0994487 0.118637
199 1 30.9114 1.98502 0.924207 4 0.000308837 2 0 0.0994487 0.96725
200 1 30.1815 2.71094 1.00186 4 0.000595765 2 0 0.0994487 0.675107
201 1 31.0247 3.35309 0.97101 4 0.000577706 2 0 0.0994487 0.998409
202 1 30.9865 2.69483 1.72648 4 0.000408051 2 0 0.0994487 0.578501
203 1 30.1092 3.25953 0.132205 4 0.000732544 2 0 0.0994487 -0.0443655
204 1 30.4116 1.90909 0.0255368 4 0.000321202 2 0 0.0994487 0.106045
205 1 31.1434 2.66402 0.0761253 4 0.000355605 2 0 0.0994487 0.708819
206 1 0.293831 3.78503 0.918557 4 7.27921e-10 2 0 0.0994487 -0.999347
207 1 0.143046 4.59443 0.482118 4 8.73112e-10 2 0 0.0994487 -0.784494
208 1 1.14036 4.67093 0.986638 4 2.73237e-09 2 0 0.0994487 -0.516758
209 1 0.0884667 5.26681 1.27761 4 1.1166e-09 2 0 0.0994487 -0.887459
210 1 1.04069 3.86421 0.0595682 4 1.35122e-09 2 0 0.0994487 0.0148876
211 1 1.84117 4.04604 0.847105 4 4.62707e-09 2 0 0.0994487 0.00826538
212 1 2.54049 4.85585 1.13748 4 1.52719e-08 2 0 0.0994487 -0.333848
213 1 2.64953 4.14475 0.20674 4 1.188e-08 2 0 0.0994487 -0.0285728
214 1 1.89758 4.96895 0.278386 4 7.50517e-09 2 0 0.0994487 -0.153434
215 1 3.40771 4.86189 0.161635 4 3.91907e-08 2 0 0.0994487 -0.016389
216 1 3.494 4.07675 0.885909 4 3.09047e-08 2 0 0.0994487 0.0268902
217 1 4.91235 4.00001 1.18344 4 1.42465e-07 2 0 0.0994487 0.0115055
218 1 4.04658 4.88002 1.14639 4 8.55519e-08 2 0 0.0994487 0.264487
219 1 4.26027 4.18509 0.149001 4 7.04782e-08 2 0 0.0994487 0.0377375
220 1 5.00947 4.74001 0.341082 4 2.17764e-07 2 0 0.0994487 0.0765385
221 1 5.77735 3.9378 0.198707 4 2.84535e-07 2 0 0.0994487 0.0260153
222 1 6.48883 3.76611 0.772067 4 6.25982e-07 2 0 0.0994487 0.204551
223 1 5.68025 4.73638 1.02487 4 4.78719e-07 2 0 0.0994487 -0.621687
224 1 6.66321 4.5115 1.6428 4 1.06191e-06 2 0 0.0994487 0.158932
225 1 6.68072 5.1315 0.885352 4 1.635e-06 2 0 0.0994487 0.206848
226 1 8.1982 3.892 0.700757 4 4.00516e-06 2 0 0.0994487 -0.369903
227 1 7.40842 4.46072 0.5468 4 2.41131e-06 2 0 0.0994487 -0.0252139
228 1 7.39886 3.87029 1.49684 4 1.67295e-06 2 0 0.0994487 0.102576
229 1 8.20004 4.61106 1.48677 4 5.69699e-06 2 0 0.0994487 -0.011839
230 1 9.8976 3.57792 0.885667 4 1.55142e-05 2 0 0.0994487 0.592753
231 1 9.07913 4.56551 0.821335 4 1.28155e-05 2 0 0.0994487 -0.65855
232 1 9.86266 4.50302 0.126324 4 2.09214e-05 2 0 0.0994487 0.0958645
233 1 9.07829 3.76256 1.49819 4 8.27295e-06 2 0 0.0994487 -0.070887
234 1 9.86881 4.3462 1.65532 4 2.31071e-05 2 0 0.0994487 -0.0856639
235 1 8.98541 3.86821 0.0631775 4 7.30699e-06 2 0 0.0994487 -0.138754
236 1 11.408 3.64493 0.778297 4 5.9597e-05 2 0 0.0994487 0.202063
237 1 10.5891 4.66652 0.906264 4 5.16241e-05 2 0 0.0994487 0.045066
238 1 11.3867 4.69403 0.230734 4 0.000100559 2 0 0.0994487 -0.0498922
239 1 10.7059 3.56689 1.58785 4 3.13184e-05 2 0 0.0994487 -0.0448511
240 1 11.3652 4.3716 1.70545 4 8.36481e-05 2 0 0.0994487 -0.0798297
241 1 11.3894 5.27213 0.983682 4 0.000137747 2 0 0.0994487 -0.674485
242 1 10.5826 3.84888 0.176129 4 2.93815e-05 2 0 0.0994487 0.210465
243 1 12.5168 3.57716 0.814749 4 0.000141013 2 0 0.0994487 -0.0105789
244 1 12.1916 4.55033 1.00021 4 0.000185501 2 0 0.0994487 0.105034
245 1 12.7362 4.99738 1.68903 4 0.000319014 2 0 0.0994487 0.191328
246 1 13.2258 4.67863 0.80017 4 0.000444369 2 0 0.0994487 -0.0047061
247 1 12.6435 4.61885 0.0632315 4 0.00027047 2 0 0.0994487 -0.0335817
248 1 13.9891 4.12825 0.69648 4 0.000575602 2 0 0.0994487 -0.43018
249 1 13.4832 4.21781 1.59317 4 0.000390432 2 0 0.0994487 0.082016
250 1 14.2046 5.11838 1.52001 4 0.00109863 2 0 0.0994487 -0.0289939
251 1 14.9402 5.01141 0.811699 4 0.00168514 2 0 0.0994487 -0.0527715
252 1 14.9642 4.4167 1.59432 4 0.0012343 2 0 0.0994487 -0.0635637
253 1 14.1405 4.90647 0.0597868 4 0.000910046 2 0 0.0994487 -0.0856959
254 1 14.961 4.19423 0.096508 4 0.00100763 2 0 0.0994487 0.0322715
255 1 15.6685 4.06642 0.926277 4 0.0015486 2 0 0.0994487 0.872562
256 1 15.8798 4.77595 0.186426 4 0.00248543 2 0 0.0994487 0.165388
257 1 16.5936 4.58036 0.900182 4 0.00361755 2 0 0.0994487 -0.078986
258 1 16.3184 3.95875 1.6903 4 0.00215665 2 0 0.0994487 -0.0433981
259 1 15.8111 5.05317 1.64084 4 0.00278953 2 0 0.0994487 0.0994987
260 1 17.2689 3.83372 0.811237 4 0.00348777 2 0 0.0994487 -0.345385
261 1 18.0864 4.48855 1.09806 4 0.00714702 2 0 0.0994487 -0.61217
262 1 17.9525 3.63794 1.65602 4 0.00419517 2 0 0.0994487 -0.192806
263 1 17.4569 4.57727 0.0147963 4 0.00506388 2 0 0.0994487 -0.0974094
264 1 18.1348 3.8547 0.0583493 4 0.00477108 2 0 0.0994487 -0.120517
265 1 18.8779 3.70667 0.95022 4 0.00613075 2 0 0.0994487 0.0692281
266 1 18.8235 4.60949 0.361826 4 0.00976403 2 0 0.0994487 0.115609
267 1 19.6906 4.67872 1.0803 4 0.0158652 2 0 0.0994487 0.931538
268 1 18.7859 5.27693 1.20102 4 0.0154726 2 0 0.0994487 0.599149
269 1 19.5987 3.76722 0.227421 4 0.00770365 2 0 0.0994487 0.164269
270 1 20.4384 3.82188 1.23329 4 0.0113545 2 0 0.0994487 0.325953
271 1 20.8846 4.71868 1.39403 4 0.0258118 2 0 0.0994487 0.149056
272 1 21.5775 4.95128 0.810455 4 0.037756 2 0 0.0994487 -0.00375836
273 1 21.0824 3.93136 0.512408 4 0.0146278 2 0 0.0994487 0.0883019
274 1 20.1339 4.78559 0.352846 4 0.0197685 2 0 0.0994487 0.145585
275 1 22.8205 3.63186 1.42135 4 0.0149189 2 0 0.0994487 -0.0184005
276 1 21.9406 4.13318 1.31068 4 0.0207866 2 0 0.0994487 0.0272025
277 1 22.4705 5.17735 1.27286 4 0.0494045 2 0 0.0994487 0.0207039
278 1 22.6119 4.34705 0.510028 4 0.0254221 2 0 0.0994487 -0.0221076
279 1 23.5735 3.63903 0.782677 4 0.0151842 2 0 0.0994487 0.185557
280 1 24.336 4.32055 0.625018 4 0.0231643 2 0 0.0994487 -0.150093
281 1 23.4679 4.54946 1.33355 4 0.0303752 2 0 0.0994487 -0.0790573
282 1 24.8518 5.25716 0.566763 4 0.0380813 2 0 0.0994487 0.0409075
283 1 23.5518 5.06386 0.533607 4 0.0434076 2 0 0.0994487 -0.0968903
284 1 25.0086 4.50055 1.62342 4 0.0221264 2 0 0.0994487 -0.0421947
285 1 25.0629 3.68037 0.802132 4 0.0122976 2 0 0.0994487 -0.187917
286 1 24.363 5.28843 1.43377 4 0.044879 2 0 0.0994487 -0.154709
287 1 25.6904 5.1389 1.34266 4 0.0276079 2 0 0.0994487 0.210102
288 1 26.3575 4.29031 1.37159 4 0.0123397 2 0 0.0994487 0.149484
289 1 26.5026 4.97257 0.640732 4 0.0173795 2 0 0.0994487 0.0989688
290 1 25.5284 4.40089 0.388179 4 0.0174253 2 0 0.0994487 0.0559485
291 1 27.3302 4.86961 1.40568 4 0.0110336 2 0 0.0994487 0.00661195
292 1 27.9624 3.97641 1.10408 4 0.00438355 2 0 0.0994487 -0.309504
293 1 28.2771 4.73475 0.706344 4 0.00594992 2 0 0.0994487 -0.0812436
294 1 27.0674 4.04323 0.570038 4 0.00745038 2 0 0.0994487 0.0120243
295 1 28.9321 3.77016 0.487204 4 0.00214547 2 0 0.0994487 -0.00703139
296 1 29.0873 4.52317 1.33085 4 0.00318988 2 0 0.0994487 0.0574877
297 1 29.9979 4.07209 1.02303 4 0.00136337 2 0 0.0994487 -0.275235
298 1 31.0296 3.97382 0.373364 4 0.000759665 2 0 0.0994487 0.657583
299 1 30.2046 4.67765 0.491317 4 0.00172465 2 0 0.0994487 0.00995968
300 1 30.9783 4.59929 1.41131 4 0.00108507 2 0 0.0994487 0.679915
301 1 0.908283 5.53205 0.461647 4 3.13139e-09 2 0 0.0994487 -0.463785
302 1 1.53161 5.51184 1.37971 4 6.04092e-09 2 0 0.0994487 -0.117388
303 1 0.793684 6.22023 1.2768 4 3.64406e-09 2 0 0.0994487 -0.703381
304 1 0.257003 6.91734 1.50738 4 2.56624e-09 2 0 0.0994487 -0.772633
305 1 0.969942 6.9454 0.573423 4 6.01568e-09 2 0 0.0994487 -0.473533
306 1 1.7053 7.02884 1.23811 4 1.34441e-08 2 0 0.0994487 0.0665171
307 1 1.89588 6.19966 0.519025 4 1.29762e-08 2 0 0.0994487 -0.156401
308 1 3.10475 5.61709 1.30057 4 4.02879e-08 2 0 0.0994487 0.0402513
309 1 2.26359 6.15348 1.40977 4 1.78128e-08 2 0 0.0994487 0.0408554
310 1 3.25442 6.96226 1.12748 4 9.16278e-08 2 0 0.0994487 -0.0541256
311 1 2.68177 5.61289 0.273587 4 2.47585e-08 2 0 0.0994487 -0.0596866
312 1 3.39503 6.28191 0.500536 4 8.33073e-08 2 0 0.0994487 -0.121447
313 1 4.18979 5.46246 0.325783 4 1.31778e-07 2 0 0.0994487 0.031016
314 1 4.93434 5.42873 1.31778 4 3.27926e-07 2 0 0.0994487 -0.235102
315 1 4.13622 6.09659 1.22779 4 1.84228e-07 2 0 0.0994487 -0.0893911
316 1 4.82567 6.23357 0.333842 4 3.89129e-07 2 0 0.0994487 -0.0345778
317 1 4.77312 6.79931 1.15967 4 5.23118e-07 2 0 0.0994487 -0.305933
318 1 4.00267 7.02511 0.221759 4 2.12349e-07 2 0 0.0994487 -0.0853453
319 1 5.78575 5.42185 0.301847 4 6.99963e-07 2 0 0.0994487 0.0125005
320 1 5.6935 6.24342 0.9632 4 1.0414e-06 2 0 0.0994487 -0.967771
321 1 6.4578 5.98425 1.59671 4 1.91703e-06 2 0 0.0994487 0.140912
322 1 6.43234 6.86927 1.00965 4 3.02534e-06 2 0 0.0994487 0.851664
323 1 6.37773 6.04115 0.154639 4 1.52746e-06 2 0 0.0994487 0.111111
324 1 5.54993 7.05206 0.147147 4 1.09227e-06 2 0 0.0994487 0.0363847
325 1 8.21355 5.31419 0.694273 4 8.48349e-06 2 0 0.0994487 -0.0895977
326 1 7.32761 6.15925 0.754293 4 5.20298e-06 2 0 0.0994487 0.225727
327 1 7.39163 5.41839 1.49138 4 3.79258e-06 2 0 0.0994487 0.136751
328 1 8.23884 6.11028 1.49159 4 1.28372e-05 2 0 0.0994487 0.0187343
329 1 8.01352 6.85364 0.728993 4 1.46495e-05 2 0 0.0994487 0.0691812
330 1 7.28191 6.86379 1.59601 4 7.36569e-06 2 1 0.0994487 0.126046
331 1 7.33029 5.3575 0.0461812 4 2.90662e-06 2 0 0.0994487 0.0813558
332 1 9.76796 5.3194 0.792562 4 3.3788e-05 2 0 0.0994487 0.32844
333 1 8.88016 6.18865 0.736908 4 2.46237e-05 2 0 0.0994487 -0.235548
334 1 9.05434 5.3271 1.5973 4 1.83569e-05 2 0 0.0994487 -0.0628329
335 1 9.73844 6.19052 1.46731 4 5.42143e-05 2 0 0.0994487 -0.106409
336 1 9.09351 6.95013 1.463 4 4.64194e-05 2 2 0.0994487 -0.0756838
337 1 9.76329 6.23201 0.0941385 4 4.89237e-05 2 0 0.0994487 -0.0359546
338 1 8.99733 5.46479 0.012702 4 1.64018e-05 2 0 0.0994487 -0.134755
339 1 10.5831 6.02196 0.964384 4 0.000100673 2 0 0.0994487 -0.356512
340 1 11.3128 6.37134 0.0776634 4 0.00016943 2 0 0.0994487 0.10034
341 1 10.5187 6.94145 0.15452 4 0.000124398 2 0 0.0994487 -0.0735421
342 1 10.4686 6.92564 1.49614 4 0.000146653 2 1 0.0994487 -0.0635315
343 1 11.9994 5.6274 0.183157 4 0.000235533 2 0 0.0994487 -0.0105325
344 1 12.6757 5.81849 0.861776 4 0.00049125 2 0 0.0994487 0.0817346
345 1 11.7774 6.20735 1.05291 4 0.000281508 2 0 0.0994487 0.292161
346 1 13.3219 5.86668 1.55471 4 0.000790449 2 0 0.0994487 0.208163
347 1 13.3506 6.58297 0.813679 4 0.00123345 2 0 0.0994487 -0.292133
348 1 13.3212 5.53867 0.0424813 4 0.000681765 2 0 0.0994487 -0.142913
349 1 14.0617 5.71565 0.77266 4 0.00134768 2 0 0.0994487 -0.372741
350 1 14.3278 6.65176 1.40646 4 0.0027432 2 1 0.0994487 -0.103121
351 1 14.1303 6.38483 0.0380077 4 0.00168456 2 0 0.0994487 -0.0826127
352 1 15.0282 5.64393 0.034369 4 0.0022439 2 0 0.0994487 0.0573609
353 1 15.8305 5.73813 0.95832 4 0.00431106 2 0 0.0994487 0.625778
354 1 15.0472 6.45091 0.806774 4 0.0038229 2 0 0.0994487 -0.176077
355 1 16.491 6.45257 1.1401 4 0.00951894 2 0 0.0994487 0.208309
356 1 15.1058 5.87594 1.69804 4 0.00309483 2 0 0.0994487 -0.0976615
357 1 16.62 5.41933 0.276819 4 0.00536001 2 0 0.0994487 0.0799201
358 1 15.6753 6.3382 0.0390223 4 0.00472091 2 0 0.0994487 0.0398477
359 1 17.8271 5.30128 0.541411 4 0.00943623 2 0 0.0994487 0.150326
360 1 17.113 5.42499 1.24767 4 0.00760605 2 0 0.0994487 -0.286578
361 1 17.0619 6.27419 0.411469 4 0.0110033 2 0 0.0994487 0.138947
362 1 17.6649 6.24649 1.38542 4 0.0158434 2 0 0.0994487 -0.254257
363 1 18.2745 7.0517 1.13153 4 0.0315104 2 1 0.0994487 0.631122
364 1 18.3714 6.23173 0.609762 4 0.0218546 2 0 0.0994487 0.15618
365 1 19.429 5.75829 0.62055 4 0.0283479 2 0 0.0994487 0.0571846
366 1 19.3279 6.55755 1.35081 4 0.0436233 2 1 0.0994487 0.274718
367 1 19.9942 6.75229 0.610261 4 0.0684286 2 0 0.0994487 -0.0119248
368 1 20.7494 5.77593 0.653722 4 0.0522898 2 0 0.0994487 -0.104072
369 1 20.1931 5.61076 1.39557 4 0.0371945 2 0 0.0994487 0.312017
370 1 20.7787 6.6124 1.30355 4 0.0958239 2 1 0.0994487 -0.344739
371 1 21.6592 6.66248 0.666524 4 0.109631 2 0 0.0994487 -0.043526
372 1 21.6631 5.87866 1.38528 4 0.0765065 2 0 0.0994487 0.0420703
373 1 21.6904 5.73259 0.0517844 4 0.0593037 2 0 0.0994487 -0.00150303
374 1 22.6732 5.8279 0.674154 4 0.0749903 2 0 0.0994487 0.00265226
375 1 22.6319 6.69333 1.20734 4 0.135836 2 0 0.0994487 -0.201972
376 1 23.3484 6.78052 0.267835 4 0.118585 2 0 0.0994487 -0.125382
377 1 23.4822 5.88496 1.30013 4 0.0802477 2 0 0.0994487 -0.176399
378 1 24.3197 6.56281 1.15825 4 0.0966658 2 0 0.0994487 0.173521
379 1 24.1457 6.00685 0.427617 4 0.0712775 2 0 0.0994487 0.00243783
380 1 25.6831 5.86213 0.700952 4 0.0413667 2 0 0.0994487 0.163898
381 1 25.1124 6.04132 1.67733 4 0.0561797 2 0 0.0994487 0.0036692
382 1 25.1593 6.74159 0.495153 4 0.0758686 2 0 0.0994487 0.0903917
383 1 25.8251 6.59457 1.40775 4 0.0559567 2 0 0.0994487 0.0881034
384 1 26.6903 5.84511 1.4763 4 0.0268142 2 0 0.0994487 0.0917642
385 1 27.4966 5.54334 0.722172 4 0.0143502 2 0 0.0994487 -0.251568
386 1 26.7485 6.36567 0.651888 4 0.0329473 2 0 0.0994487 0.038754
387 1 27.7011 6.47315 1.36539 4 0.0208091 2 0 0.0994487 0.131497
388 1 28.3648 5.52203 1.4872 4 0.00862854 2 0 0.0994487 0.0456352
389 1 27.7097 7.0074 0.530173 4 0.0249892 2 0 0.0994487 0.0321281
390 1 29.3889 5.30889 0.818726 4 0.00423046 2 0 0.0994487 0.316727
391 1 29.4379 6.18214 1.32212 4 0.00581751 2 0 0.0994487 -0.00337886
392 1 29.5784 6.89773 0.506505 4 0.0070142 2 0 0.0994487 0.0925896
393 1 28.4685 6.20589 0.638647 4 0.0108095 2 0 0.0994487 -0.270076
394 1 29.3762 6.15398 0.0801838 4 0.0056989 2 0 0.0994487 0.0969271
395 1 28.4822 5.38976 0.0592959 4 0.00676265 2 0 0.0994487 -0.105002
396 1 30.9636 5.36838 0.595026 4 0.00173263 2 0 0.0994487 0.667848
397 1 30.2159 5.45949 1.46813 4 0.00256077 2 0 0.0994487 0.0540226
398 1 30.3958 6.18258 0.649752 4 0.00330964 2 0 0.0994487 0.329004
399 1 31.2189 6.15516 1.38439 4 0.00204827 2 0 0.0994487 0.587258
400 1 31.1994 6.95407 0.60342 4 0.00283574 2 0 0.0994487 0.812253
401 1 31.7235 5.99622 0.446564 4 0.0015365 2 0 0.0994487 0.879729
402 1 0.261851 7.63199 0.661866 4 3.64446e-09 2 0 0.0994487 -0.876373
403 1 0.831025 8.46344 0.61936 4 8.01769e-09 2 0 0.0994487 -0.577626
404 1 1.11211 7.86396 1.49711 4 8.45743e-09 2 0 0.0994487 -0.154429
405 1 0.356955 8.5626 1.47035 4 4.78966e-09 2 0 0.0994487 -0.764984
406 1 1.59266 7.76478 0.37187 4 1.5525e-08 2 0 0.0994487 -0.0897886
407 1 1.72382 8.61735 1.46471 4 2.2083e-08 2 0 0.0994487 0.0395957
408 1 2.48799 7.14986 0.476331 4 3.96375e-08 2 0 0.0994487 -0.0836977
409 1 2.19177 8.6335 0.399707 4 4.12082e-08 2 0 0.0994487 -0.137269
410 1 2.39416 7.81099 1.27726 4 4.1778e-08 2 0 0.0994487 0.0869904
411 1 3.01349 8.51445 0.935533 4 1.10312e-07 2 0 0.0994487 -0.539315
412 1 3.24418 7.77117 0.327041 4 1.15823e-07 2 0 0.0994487 -0.196206
413 1 3.81243 8.45898 0.0822892 4 2.37007e-07 2 0 0.0994487 -0.0457798
414 1 3.97971 7.67009 1.24863 4 2.68489e-07 2 0 0.0994487 -0.0554909
415 1 4.70459 8.25653 0.921772 4 7.27251e-07 2 0 0.0994487 0.295317
416 1 4.67023 7.63706 0.247803 4 5.363e-07 2 0 0.0994487 0.0376899
417 1 3.81127 8.34851 1.76162 4 2.35068e-07 2 0 0.0994487 -0.0574369
418 1 5.86955 8.34822 0.169905 4 2.31443e-06 2 0 0.0994487 0.113103
419 1 5.48363 7.59071 1.03232 4 1.50425e-06 2 0 0.0994487 -0.467673
420 1 6.49365 7.53799 0.169175 4 3.58312e-06 2 0 0.0994487 0.187621
421 1 6.39674 8.23976 1.04384 4 5.1163e-06 2 0 0.0994487 0.33814
422 1 7.28583 7.76918 0.746313 4 1.09338e-05 2 1 0.0994487 0.00992417
423 1 8.2859 8.31376 0.868772 4 3.65666e-05 2 2 0.0994487 0.278823
424 1 7.27857 8.18368 1.7015 4 1.5182e-05 2 2 0.0994487 -0.174661
425 1 8.05208 7.48784 1.5604 4 2.19753e-05 2 1 0.0994487 0.185099
426 1 7.99895 7.60312 0.0282118 4 1.56319e-05 2 0 0.0994487 0.0674112
427 1 9.84313 7.22199 0.72344 4 9.58063e-05 2 1 0.0994487 -0.34692
428 1 8.91207 7.61626 0.661731 4 4.81417e-05 2 1 0.0994487 0.158735
429 1 9.73234 8.61964 0.693151 4 0.000148618 2 3 0.0994487 -0.257269
430 1 9.09265 8.69904 1.44495 4 0.000103109 2 9 0.0994487 -0.394608
431 1 9.64026 7.88932 1.60055 4 0.000129913 2 8 0.0994487 -0.340209
432 1 11.3161 7.14287 0.810636 4 0.000293942 2 1 0.0994487 0.448478
433 1 10.5731 7.9454 0.844311 4 0.000234282 2 3 0.0994487 -0.198613
434 1 10.5877 8.70196 1.4255 4 0.000337495 1 8 0.0994487 -0.147862
435 1 11.4057 7.80503 1.60301 4 0.000487474 2 7 0.0994487 0.228052
436 1 11.227 8.11851 0.0422735 4 0.000318785 2 0 0.0994487 0.174326
437 1 12.7061 7.28322 0.565784 4 0.00102244 2 0 0.0994487 -0.0531472
438 1 12.178 8.23518 0.590765 4 0.000910117 2 2 0.0994487 0.163919
439 1 12.0637 7.15788 1.37768 4 0.000601238 2 3 0.0994487 0.145589
440 1 12.0887 8.68064 1.49044 4 0.00116362 1 8 0.0994487 0.08313