ITEM: TIMESTEP
10500
ITEM: NUMBER OF ATOMS
9495
ITEM: BOX BOUNDS mm mm mm
0.0000000000000000e+00 3.1748021039364001e+01
0.0000000000000000e+00 3.1748021039364001e+01
-7.4072398406925706e-04 3.1748021039364001e+01
ITEM: ATOMS id type x y z c_phase c_temp c_surf c_nbond c_visc f_3[1]
1 1 0.116341 1.10259 0.464337 4 6.85448e-14 2 0 0.0994487 -0.681941
2 1 0.974108 1.6685 0.77798 4 3.69288e-13 2 0 0.0994487 -0.517033
3 1 0.714648 0.793562 1.41295 4 1.32136e-13 2 0 0.0994487 -0.281794
4 1 0.00336375 1.60273 1.37437 4 9.01486e-14 2 0 0.0994487 -0.804051
5 1 0.729896 0.0633724 0.61602 4 6.56496e-14 3 0 0.0994487 -0.190374
6 1 1.71015 0.808983 1.0155 4 6.42545e-13 2 0 0.0994487 -0.33207
7 1 1.80059 1.47468 0.221075 4 8.74394e-13 2 0 0.0994487 -0.12583
8 1 1.82015 1.66049 1.76126 4 1.13263e-12 2 0 0.0994487 -0.139534
9 1 2.52093 0.749102 0.203812 4 1.54947e-12 2 0 0.0994487 -0.14294
10 1 2.59149 0.0538711 1.03726 4 1.26123e-12 2 0 0.0994487 -0.295005
11 1 2.64922 1.541 0.882848 4 3.89863e-12 2 0 0.0994487 0.23575
12 1 2.66829 0.815502 1.7457 4 2.20228e-12 2 0 0.0994487 -0.187041
13 1 3.43386 0.933692 0.956349 4 8.43019e-12 2 0 0.0994487 0.320236
14 1 3.49924 0.0925696 1.70571 4 3.8601e-12 2 0 0.0994487 0.178053
15 1 3.60652 1.70798 1.71994 4 1.58273e-11 2 0 0.0994487 0.0487937
16 1 4.10576 0.858321 0.325305 4 1.95289e-11 2 0 0.0994487 0.153144
17 1 4.96159 0.56786 1.17466 4 6.22898e-11 2 0 0.0994487 -0.0370695
18 1 4.91949 1.59987 0.383508 4 1.11463e-10 2 0 0.0994487 -0.10025
19 1 4.3472 0.941527 1.62884 4 2.87527e-11 2 0 0.0994487 0.110736
20 1 3.47612 0.111428 0.171027 4 3.38546e-12 2 0 0.0994487 0.166215
21 1 5.64741 0.645627 0.325839 4 1.58644e-10 2 0 0.0994487 -0.0806064
22 1 5.88414 1.31048 0.938036 4 3.63244e-10 2 0 0.0994487 -0.199598
23 1 6.57478 1.39104 0.218369 4 8.92584e-10 2 0 0.0994487 -0.0861355
24 1 5.78374 0.460658 1.69897 4 1.53014e-10 2 0 0.0994487 -0.0846541
25 1 5.03122 1.72414 1.43602 4 1.36369e-10 2 0 0.0994487 0.0453694
26 1 6.7138 0.39031 0.865278 4 5.84461e-10 2 0 0.0994487 -0.0793837
27 1 6.69104 1.00962 1.69374 4 7.33929e-10 2 0 0.0994487 -0.107925
28 1 8.2679 0.408875 1.07337 4 3.86201e-09 2 0 0.0994487 -0.100169
29 1 7.36782 1.22285 0.954198 4 2.33944e-09 2 0 0.0994487 -0.302563
30 1 8.24709 1.39092 0.236779 4 7.00938e-09 2 0 0.0994487 -0.0460664
31 1 8.12868 1.27217 1.60653 4 5.56064e-09 2 0 0.0994487 -0.0081191
32 1 7.58247 0.647807 0.140287 4 1.8303e-09 2 0 0.0994487 -0.110937
33 1 8.85849 0.508506 0.273966 4 7.43418e-09 2 0 0.0994487 -0.0616479
34 1 9.55301 0.3386 0.888639 4 1.59114e-08 2 0 0.0994487 0.00506176
35 1 9.02586 1.30716 1.1133 4 1.79922e-08 2 0 0.0994487 -0.0606525
37 1 9.63995 1.37474 0.0900752 4 2.89655e-08 2 0 0.0994487 0.0992898
38 1 11.2128 0.215893 0.632658 4 9.13305e-08 2 0 0.0994487 0.203501
39 1 10.3637 1.04743 0.823114 4 6.50738e-08 2 0 0.0994487 0.539881
40 1 10.523 0.196295 1.44539 4 4.12724e-08 2 0 0.0994487 0.0644271
41 1 11.2856 1.01846 1.41785 4 1.8924e-07 2 0 0.0994487 0.164704
42 1 10.5797 1.67706 1.72992 4 1.3131e-07 2 0 0.0994487 0.118162
43 1 10.2431 0.367861 0.0780499 4 2.46087e-08 2 0 0.0994487 0.1498
44 1 12.8757 0.211714 0.636805 4 5.49957e-07 2 0 0.0994487 0.058786
45 1 12.0457 1.07408 0.506655 4 4.67255e-07 2 0 0.0994487 -0.0235535
46 1 12.1319 0.316439 1.29957 4 2.86684e-07 2 0 0.0994487 0.0188343
47 1 12.7194 1.19864 1.3723 4 1.03297e-06 2 0 0.0994487 -0.0305307
48 1 14.3729 0.318493 0.764646 4 2.49271e-06 2 0 0.0994487 -0.0460394
49 1 13.5924 1.113 0.843618 4 2.38594e-06 2 0 0.0994487 -0.263057
50 1 14.0399 1.55958 0.167469 4 4.64748e-06 2 0 0.0994487 -0.0898261
51 1 13.6075 0.359834 1.6352 4 1.16212e-06 2 0 0.0994487 -0.0562646
52 1 14.3777 1.14948 1.47647 4 4.37201e-06 2 0 0.0994487 -0.017829
53 1 14.8761 1.55337 0.662943 4 9.60949e-06 2 0 0.0994487 0.389946
54 1 15.7061 0.770636 0.788259 4 1.05135e-05 2 0 0.0994487 0.366482
55 1 16.5532 1.54451 0.681338 4 4.0983e-05 2 0 0.0994487 0.000803788
56 1 15.1422 0.4642 1.64149 4 4.65907e-06 2 0 0.0994487 0.152077
57 1 16.547 0.712289 1.3421 4 2.11831e-05 2 0 0.0994487 0.0956251
58 1 15.6341 1.48544 1.3916 4 1.80351e-05 2 0 0.0994487 0.15363
59 1 15.1049 0.711806 0.0677822 4 4.53176e-06 2 0 0.0994487 0.169202
60 1 17.2544 0.732268 0.547589 4 3.31391e-05 2 0 0.0994487 0.0286289
61 1 17.9231 1.58109 0.757246 4 0.000107815 2 0 0.0994487 0.0415618
62 1 17.916 0.742935 1.42801 4 5.50583e-05 2 0 0.0994487 -0.224378
63 1 17.2202 1.74884 1.56274 4 8.20633e-05 2 0 0.0994487 -0.0984845
64 1 19.5372 0.0167772 0.662766 4 6.02093e-05 2 0 0.0994487 0.0436432
65 1 18.7918 0.725074 0.684829 4 8.02913e-05 2 0 0.0994487 -0.269947
66 1 19.5395 1.55488 0.841653 4 0.000234804 2 0 0.0994487 -0.341164
67 1 19.0276 0.158607 1.54508 4 5.68844e-05 2 0 0.0994487 -0.158665
68 1 19.5934 0.967491 1.68957 4 0.000134377 2 0 0.0994487 0.00834987
69 1 18.6564 1.51302 1.50035 4 0.000151869 2 0 0.0994487 -0.250309
70 1 21.0889 0.349843 1.06749 4 0.00013391 2 0 0.0994487 -0.196128
71 1 20.2493 0.776373 0.980057 4 0.000152167 2 0 0.0994487 -0.049764
72 1 21.1062 1.65725 0.951506 4 0.000402157 2 0 0.0994487 0.692907
73 1 21.1874 0.765598 0.218806 4 0.000167982 2 0 0.0994487 -0.0445922
74 1 20.3457 1.51479 0.193617 4 0.000275396 2 0 0.0994487 -0.0806037
75 1 22.0087 0.262534 0.539755 4 0.000135344 2 0 0.0994487 0.0993578
76 1 22.7913 0.430275 1.40734 4 0.000165448 2 0 0.0994487 0.206597
77 1 22.1105 1.14763 1.32981 4 0.000282866 2 0 0.0994487 0.240019
78 1 21.9982 1.59955 0.538558 4 0.000441386 2 0 0.0994487 0.185169
79 1 22.9157 1.07463 0.445168 4 0.000273369 2 0 0.0994487 0.0520818
80 1 24.228 0.380179 1.45209 4 0.000158731 2 0 0.0994487 0.0576145
81 1 23.5672 0.357563 0.57369 4 0.000159988 2 0 0.0994487 0.0385686
82 1 24.4367 1.18687 0.754729 4 0.0003128 2 0 0.0994487 -0.0193025
83 1 23.4757 1.2499 1.4028 4 0.000352512 2 0 0.0994487 0.0298732
84 1 24.955 0.315686 0.551996 4 0.000132235 2 0 0.0994487 -0.0172014
85 1 26.0085 0.383365 1.1715 4 0.000104312 2 0 0.0994487 -0.185863
86 1 25.169 1.12579 1.48087 4 0.000260125 2 0 0.0994487 0.0251015
87 1 25.9301 1.73476 1.35794 4 0.000360105 2 0 0.0994487 0.0345305
88 1 25.8917 0.929212 0.432102 4 0.000161422 2 0 0.0994487 -0.0954231
89 1 27.5736 1.28032 0.38906 4 9.41264e-05 2 0 0.0994487 0.045447
90 1 27.6142 0.50928 0.874321 4 5.42593e-05 2 0 0.0994487 0.175385
91 1 26.7559 1.02809 1.26347 4 0.000122163 2 0 0.0994487 -0.236893
92 1 28.3748 0.337482 1.39813 4 2.94854e-05 2 0 0.0994487 0.00984239
93 1 26.7925 0.240345 0.226621 4 5.84178e-05 2 0 0.0994487 0.0380734
94 1 28.6489 1.24263 0.742341 4 5.0786e-05 2 0 0.0994487 0.102403
95 1 29.3912 0.945639 1.56878 4 2.23489e-05 2 0 0.0994487 -0.0192022
96 1 28.5228 1.71921 1.49749 4 7.60041e-05 2 0 0.0994487 -0.0429838
97 1 29.8133 0.173958 1.46124 4 9.67761e-06 2 0 0.0994487 0.133415
98 1 29.2734 0.3547 0.615275 4 1.54942e-05 2 0 0.0994487 -0.0816823
99 1 31.5874 0.266128 1.25663 4 2.42298e-06 3 0 0.0994487 0.830097
100 1 30.7016 0.49015 0.470738 4 6.20528e-06 2 0 0.0994487 0.354851
101 1 30.1009 1.19877 0.774133 4 1.70801e-05 2 0 0.0994487 0.210918
102 1 30.8649 0.971942 1.39386 4 8.44026e-06 2 0 0.0994487 0.703281
103 1 1.11081 2.43607 0.129285 4 5.45456e-13 2 0 0.0994487 -0.0373226
104 1 0.133403 2.3821 0.812241 4 1.93108e-13 2 0 0.0994487 -0.984517
105 1 1.28845 3.23764 0.949187 4 1.70471e-12 2 0 0.0994487 0.222086
106 1 1.13977 2.36077 1.59162 4 7.31082e-13 2 0 0.0994487 -0.22219
107 1 0.386685 3.02999 1.54944 4 4.02861e-13 2 0 0.0994487 -0.671256
108 1 0.332248 3.09582 0.131296 4 3.12215e-13 2 0 0.0994487 -0.59134
109 1 1.90972 2.41867 0.78376 4 2.33133e-12 2 0 0.0994487 0.0782064
110 1 2.65852 3.28029 0.860875 4 1.37606e-11 2 0 0.0994487 0.0668009
111 1 2.66931 2.22918 1.53373 4 6.20578e-12 2 0 0.0994487 0.0829536
112 1 3.2579 3.42668 1.64938 4 3.3749e-11 2 0 0.0994487 0.00397333
113 1 2.7261 2.38168 0.0557193 4 5.08411e-12 2 0 0.0994487 0.1466
114 1 3.38195 2.55413 0.779289 4 2.31743e-11 2 0 0.0994487 0.211581
115 1 4.00679 1.841 0.711184 4 3.66835e-11 2 0 0.0994487 -0.0361267
116 1 4.91383 2.57277 0.815661 4 2.25778e-10 2 0 0.0994487 -0.259355
117 1 4.20148 3.3175 0.749446 4 1.32757e-10 2 0 0.0994487 0.00621293
118 1 4.13245 2.64107 1.58328 4 7.10216e-11 2 0 0.0994487 0.0270756
119 1 5.65047 2.44269 0.132743 4 4.99757e-10 2 0 0.0994487 -0.189927
120 1 6.55776 2.18062 0.772597 4 1.61621e-09 2 0 0.0994487 -0.2894
121 1 5.64874 3.19593 0.952489 4 9.43305e-10 2 0 0.0994487 -0.754642
122 1 5.861 2.19426 1.49672 4 5.90664e-10 2 0 0.0994487 0.0126335
123 1 6.52037 3.06691 1.5557 4 2.62674e-09 2 0 0.0994487 0.0443555
124 1 6.65033 2.92778 0.134227 4 2.41134e-09 2 0 0.0994487 0.0288852
125 1 7.45405 2.22586 0.139832 4 4.8433e-09 2 0 0.0994487 -0.0535045
126 1 8.08209 2.20208 0.930382 4 1.18009e-08 2 0 0.0994487 -0.30209
127 1 7.40132 3.06835 0.934051 4 9.31226e-09 2 0 0.0994487 -0.045547
128 1 7.29928 2.06035 1.56856 4 3.62012e-09 2 0 0.0994487 -0.0607347
129 1 8.18545 3.00183 1.65211 4 2.18578e-08 2 0 0.0994487 -0.0454176
130 1 8.26934 2.9712 0.0392146 4 2.27602e-08 2 0 0.0994487 -0.150618
131 1 8.90393 2.08699 0.252387 4 2.53193e-08 2 0 0.0994487 0.00243091
132 1 9.77243 2.0246 1.10996 4 7.4937e-08 2 0 0.0994487 0.173456
133 1 8.92671 2.97262 0.928693 4 5.91052e-08 2 0 0.0994487 -0.156776
134 1 9.03062 2.22066 1.70398 4 3.43998e-08 2 0 0.0994487 -0.0819697
135 1 9.56096 2.90576 0.21312 4 9.94789e-08 2 0 0.0994487 0.173118
136 1 10.2834 2.1137 0.214297 4 1.0806e-07 2 0 0.0994487 0.337737
137 1 11.1583 1.82604 0.771092 4 3.13557e-07 2 0 0.0994487 0.260084
138 1 10.6214 2.80819 0.921535 4 3.79384e-07 2 0 0.0994487 0.541912
139 1 11.4444 2.82964 1.57484 4 9.62758e-07 2 0 0.0994487 0.0951969
140 1 12.6737 1.94118 0.593851 4 1.93587e-06 2 0 0.0994487 -0.283937
141 1 11.928 2.64099 0.742299 4 1.46493e-06 2 0 0.0994487 -0.0386775
142 1 11.9239 1.9206 1.46509 4 7.85338e-07 2 0 0.0994487 0.0946504
143 1 12.8449 3.01766 1.68597 4 4.70872e-06 2 0 0.0994487 0.0363548
144 1 13.1791 3.03035 0.848852 4 7.47349e-06 2 0 0.0994487 -0.440861
145 1 13.3784 1.9912 1.48064 4 3.65424e-06 2 0 0.0994487 -0.0150722
146 1 14.0206 2.44438 0.927124 4 1.03267e-05 2 0 0.0994487 -0.133108
147 1 14.0279 3.38359 1.55716 4 2.07808e-05 2 0 0.0994487 0.0255733
148 1 14.6961 3.43698 0.884932 4 4.20425e-05 2 0 0.0994487 -0.332967
149 1 14.7823 2.29758 1.44821 4 1.73019e-05 2 0 0.0994487 0.046926
150 1 14.8418 2.51505 0.136557 4 1.99702e-05 2 0 0.0994487 0.173004
151 1 14.1591 3.2262 0.0325348 4 1.99422e-05 2 0 0.0994487 -0.246106
152 1 13.4137 2.29398 0.0590902 4 4.81349e-06 2 0 0.0994487 -0.280963
153 1 15.6993 2.44373 0.692668 4 4.32949e-05 2 0 0.0994487 0.364391
154 1 16.3029 3.20095 0.662084 4 0.000130343 2 0 0.0994487 0.328588
155 1 16.308 2.47951 1.52575 4 7.76553e-05 2 0 0.0994487 -0.100648
156 1 15.3694 3.25723 1.50191 4 6.5458e-05 2 0 0.0994487 -0.00766974
157 1 15.5706 3.25854 0.0192499 4 5.82005e-05 2 0 0.0994487 0.290237
158 1 17.0646 2.35032 0.682778 4 0.000120825 2 0 0.0994487 0.0234803
159 1 17.944 2.92608 0.699539 4 0.000372763 2 0 0.0994487 -0.231191
160 1 18.0193 2.43917 1.58112 4 0.000250201 2 0 0.0994487 -0.149136
161 1 17.0918 3.1162 1.49491 4 0.000242708 2 0 0.0994487 -0.143435
162 1 18.8908 2.35742 1.01358 4 0.000372716 2 0 0.0994487 -0.516836
163 1 19.7027 3.2427 1.27782 4 0.00112881 2 0 0.0994487 0.394879
164 1 18.884 2.99607 0.196019 4 0.000607801 2 0 0.0994487 -0.17181
165 1 19.587 2.34239 0.101452 4 0.000453808 2 0 0.0994487 -0.132371
166 1 20.3251 1.78863 1.72442 4 0.000334472 2 0 0.0994487 0.0449515
167 1 21.1565 2.41663 0.458355 4 0.000853315 2 0 0.0994487 0.196186
168 1 20.1948 2.46882 1.11433 4 0.000664284 2 0 0.0994487 0.286735
169 1 21.31 3.29463 1.39314 4 0.00220677 2 0 0.0994487 0.0777276
170 1 20.4222 2.99313 0.334941 4 0.00112856 2 0 0.0994487 0.186289
171 1 22.8719 2.07007 1.50872 4 0.00080859 2 0 0.0994487 -0.0221267
172 1 22.9717 2.60199 0.735523 4 0.0015103 2 0 0.0994487 0.13332
173 1 22.0961 2.49917 1.23787 4 0.00120987 2 0 0.0994487 0.186433
174 1 21.9898 3.20043 0.598797 4 0.00241379 2 0 0.0994487 -0.0757527
175 1 22.6771 3.40124 0.07601 4 0.0029008 2 0 0.0994487 0.0760723
176 1 23.7438 1.80844 0.624025 4 0.000597241 2 0 0.0994487 -0.0873635
177 1 24.4289 1.98763 1.61102 4 0.000676484 2 0 0.0994487 -0.0641787
178 1 24.342 2.68296 0.775192 4 0.00137901 2 0 0.0994487 -0.3411
179 1 23.6887 2.90303 1.53628 4 0.00184108 2 0 0.0994487 -0.110509
180 1 24.4728 3.51078 1.55704 4 0.00298079 2 0 0.0994487 -0.11831
181 1 24.9562 2.84566 0.0146836 4 0.00119584 2 0 0.0994487 -0.0864613
182 1 26.5483 1.79415 0.511367 4 0.00027377 2 0 0.0994487 -0.00560431
183 1 25.1322 1.85613 0.509414 4 0.000516714 2 0 0.0994487 -0.0215329
184 1 25.7918 2.61203 0.707489 4 0.000890937 2 0 0.0994487 0.228194
185 1 25.1579 2.55548 1.52547 4 0.00102163 2 0 0.0994487 0.0576628
186 1 25.7213 3.49812 1.51211 4 0.0020902 2 0 0.0994487 0.123852
187 1 26.5364 2.56002 1.53049 4 0.000582497 2 0 0.0994487 0.0579433
188 1 26.1686 3.50068 0.599043 4 0.00172518 2 0 0.0994487 0.168838
189 1 27.5039 1.98546 1.23792 4 0.00019149 2 0 0.0994487 -0.186426
190 1 28.2489 2.09022 0.343734 4 0.000124018 2 0 0.0994487 -0.017727
191 1 27.0867 2.6924 0.645359 4 0.000481257 2 0 0.0994487 -0.105607
192 1 27.1998 3.35397 1.41682 4 0.000803486 2 0 0.0994487 -0.0983347
193 1 28.2537 2.75799 1.20639 4 0.000229098 2 0 0.0994487 -0.418314
194 1 27.982 3.21993 0.326384 4 0.000382695 2 0 0.0994487 -0.12526
195 1 29.9568 1.80906 1.70764 4 2.90372e-05 2 0 0.0994487 0.1832
196 1 29.4477 2.04702 0.879698 4 5.48907e-05 2 0 0.0994487 -0.00709002
197 1 29.1956 2.6589 0.290703 4 9.85933e-05 2 0 0.0994487 -0.0578304
198 1 29.2495 3.2651 1.17365 4 0.000162437 2 0 0.0994487 0.118625
199 1 30.9114 1.98502 0.924207 4 1.90617e-05 2 0 0.0994487 0.967251
200 1 30.1815 2.71094 1.00186 4 5.13737e-05 2 0 0.0994487 0.675106
201 1 31.0247 3.35309 0.97101 4 4.48296e-05 2 0 0.0994487 0.998409
202 1 30.9865 2.69483 1.72648 4 2.71637e-05 2 0 0.0994487 0.578501
203 1 30.1092 3.25953 0.132205 4 6.7182e-05 2 0 0.0994487 -0.044367
204 1 30.4116 1.90909 0.0255368 4 2.06062e-05 2 0 0.0994487 0.106044
205 1 31.1434 2.66402 0.0761253 4 2.22058e-05 2 0 0.0994487 0.70882
206 1 0.293831 3.78503 0.918557 4 5.97687e-13 2 0 0.0994487 -0.999347
207 1 0.143046 4.59443 0.482118 4 7.20893e-13 2 0 0.0994487 -0.784494
208 1 1.14036 4.67093 0.986638 4 3.41165e-12 2 0 0.0994487 -0.516756
209 1 0.0884667 5.26681 1.27761 4 9.5077e-13 2 0 0.0994487 -0.887458
210 1 1.04069 3.86421 0.0595682 4 1.42207e-12 2 0 0.0994487 0.0148875
211 1 1.84117 4.04604 0.847105 4 6.92615e-12 2 0 0.0994487 0.00826411
212 1 2.54049 4.85585 1.13748 4 3.13822e-11 2 0 0.0994487 -0.333849
213 1 2.64953 4.14475 0.20674 4 2.26352e-11 2 0 0.0994487 -0.0285731
214 1 1.89758 4.96895 0.278386 4 1.22056e-11 2 0 0.0994487 -0.153434
215 1 3.40771 4.86189 0.161635 4 1.03281e-10 2 0 0.0994487 -0.0163894
216 1 3.494 4.07675 0.885909 4 8.00921e-11 2 0 0.0994487 0.0268877
217 1 4.91235 4.00001 1.18344 4 5.85349e-10 2 0 0.0994487 0.011501
218 1 4.04658 4.88002 1.14639 4 2.9389e-10 2 0 0.0994487 0.264486
219 1 4.26027 4.18509 0.149001 4 2.24366e-10 2 0 0.0994487 0.0377369
220 1 5.00947 4.74001 0.341082 4 9.63164e-10 2 0 0.0994487 0.0765376
221 1 5.77735 3.9378 0.198707 4 1.43299e-09 2 0 0.0994487 0.0260143
222 1 6.48883 3.76611 0.772067 4 4.19161e-09 2 0 0.0994487 0.204548
223 1 5.68025 4.73638 1.02487 4 2.74532e-09 2 0 0.0994487 -0.621707
224 1 6.66321 4.5115 1.6428 4 7.91553e-09 2 0 0.0994487 0.158931
225 1 6.68072 5.1315 0.885352 4 1.3584e-08 2 0 0.0994487 0.206846
226 1 8.1982 3.892 0.700757 4 4.69417e-08 2 0 0.0994487 -0.369906
227 1 7.40842 4.46072 0.5468 4 2.31213e-08 2 0 0.0994487 -0.0252154
228 1 7.39886 3.87029 1.49684 4 1.49152e-08 2 0 0.0994487 0.102574
229 1 8.20004 4.61106 1.48677 4 7.16712e-08 2 0 0.0994487 -0.0118401
230 1 9.8976 3.57792 0.885667 4 2.96847e-07 2 0 0.0994487 0.592761
231 1 9.07913 4.56551 0.821335 4 2.13501e-07 2 0 0.0994487 -0.65855
232 1 9.86266 4.50302 0.126324 4 4.16035e-07 2 0 0.0994487 0.0958638
233 1 9.07829 3.76256 1.49819 4 1.24338e-07 2 0 0.0994487 -0.070888
234 1 9.86881 4.3462 1.65532 4 4.7318e-07 2 0 0.0994487 -0.0856645
235 1 8.98541 3.86821 0.0631775 4 1.02811e-07 2 0 0.0994487 -0.138755
236 1 11.408 3.64493 0.778297 4 1.78801e-06 2 0 0.0994487 0.202062
237 1 10.5891 4.66652 0.906264 4 1.40951e-06 2 0 0.0994487 0.0450632
238 1 11.3867 4.69403 0.230734 4 3.37677e-06 2 0 0.0994487 -0.0498919
239 1 10.7059 3.56689 1.58785 4 7.46655e-07 2 0 0.0994487 -0.0448521
240 1 11.3652 4.3716 1.70545 4 2.67352e-06 2 0 0.0994487 -0.0798301
241 1 11.3894 5.27213 0.983682 4 5.13045e-06 2 0 0.0994487 -0.674486
242 1 10.5826 3.84888 0.176129 4 6.80413e-07 2 0 0.0994487 0.210465
243 1 12.5168 3.57716 0.814749 4 5.73851e-06 2 0 0.0994487 -0.010581
244 1 12.1916 4.55033 1.00021 4 7.98188e-06 2 0 0.0994487 0.105035
245 1 12.7362 4.99738 1.68903 4 1.63534e-05 2 0 0.0994487 0.191328
246 1 13.2258 4.67863 0.80017 4 2.60923e-05 2 0 0.0994487 -0.0047062
247 1 12.6435 4.61885 0.0632315 4 1.2773e-05 2 0 0.0994487 -0.0335817
248 1 13.9891 4.12825 0.69648 4 3.80796e-05 2 0 0.0994487 -0.430182
249 1 13.4832 4.21781 1.59317 4 2.23551e-05 2 0 0.0994487 0.0820157
250 1 14.2046 5.11838 1.52001 4 8.87584e-05 2 0 0.0994487 -0.0289925
251 1 14.9402 5.01141 0.811699 4 0.000162203 2 0 0.0994487 -0.0527365
252 1 14.9642 4.4167 1.59432 4 0.000107445 2 0 0.0994487 -0.0635628
253 1 14.1405 4.90647 0.0597868 4 6.70928e-05 2 0 0.0994487 -0.0856956
254 1 14.961 4.19423 0.096508 4 8.21369e-05 2 0 0.0994487 0.0322721
255 1 15.6685 4.06642 0.926277 4 0.000155245 2 0 0.0994487 0.872594
256 1 15.8798 4.77595 0.186426 4 0.000282163 2 0 0.0994487 0.16539
257 1 16.5936 4.58036 0.900182 4 0.000493336 2 0 0.0994487 -0.0789737
258 1 16.3184 3.95875 1.6903 4 0.000245572 2 0 0.0994487 -0.0433971
259 1 15.8111 5.05317 1.64084 4 0.000325723 2 0 0.0994487 0.0994998
260 1 17.2689 3.83372 0.811237 4 0.000489252 2 0 0.0994487 -0.345385
261 1 18.0864 4.48855 1.09806 4 0.00133129 2 0 0.0994487 -0.612135
262 1 17.9525 3.63794 1.65602 4 0.000647011 2 0 0.0994487 -0.192805
263 1 17.4569 4.57727 0.0147963 4 0.000771669 2 0 0.0994487 -0.0974095
264 1 18.1348 3.8547 0.0583493 4 0.000751214 2 0 0.0994487 -0.120517
265 1 18.8779 3.70667 0.95022 4 0.0011433 2 0 0.0994487 0.0692332
266 1 18.8235 4.60949 0.361826 4 0.00209897 2 0 0.0994487 0.115611
267 1 19.6906 4.67872 1.0803 4 0.00415244 2 0 0.0994487 0.931513
268 1 18.7859 5.27693 1.20102 4 0.00379369 2 0 0.0994487 0.599104
269 1 19.5987 3.76722 0.227421 4 0.00158757 2 0 0.0994487 0.16427
270 1 20.4384 3.82188 1.23329 4 0.00276131 2 0 0.0994487 0.325953
271 1 20.8846 4.71868 1.39403 4 0.0080031 2 0 0.0994487 0.14906
272 1 21.5775 4.95128 0.810455 4 0.013035 2 0 0.0994487 -0.00375214
273 1 21.0824 3.93136 0.512408 4 0.00385921 2 0 0.0994487 0.0883027
274 1 20.1339 4.78559 0.352846 4 0.0055181 2 0 0.0994487 0.145589
275 1 22.8205 3.63186 1.42135 4 0.00402014 2 0 0.0994487 -0.0184035
276 1 21.9406 4.13318 1.31068 4 0.00616851 2 0 0.0994487 0.0272014
277 1 22.4705 5.17735 1.27286 4 0.0187838 2 0 0.0994487 0.020699
278 1 22.6119 4.34705 0.510028 4 0.00801524 2 0 0.0994487 -0.0221104
279 1 23.5735 3.63903 0.782677 4 0.00415027 2 0 0.0994487 0.185547
280 1 24.336 4.32055 0.625018 4 0.00719248 2 0 0.0994487 -0.150103
281 1 23.4679 4.54946 1.33355 4 0.010236 2 0 0.0994487 -0.0790634
282 1 24.8518 5.25716 0.566763 4 0.0135823 2 0 0.0994487 0.0408946
283 1 23.5518 5.06386 0.533607 4 0.0160383 2 0 0.0994487 -0.0968976
284 1 25.0086 4.50055 1.62342 4 0.00674375 2 0 0.0994487 -0.042201
285 1 25.0629 3.68037 0.802132 4 0.00316197 2 0 0.0994487 -0.187931
286 1 24.363 5.28843 1.43377 4 0.0170183 2 0 0.0994487 -0.154723
287 1 25.6904 5.1389 1.34266 4 0.00893205 2 0 0.0994487 0.210086
288 1 26.3575 4.29031 1.37159 4 0.00311587 2 0 0.0994487 0.149473
289 1 26.5026 4.97257 0.640732 4 0.00482821 2 0 0.0994487 0.0989558
290 1 25.5284 4.40089 0.388179 4 0.0048947 2 0 0.0994487 0.0559416
291 1 27.3302 4.86961 1.40568 4 0.00263532 2 0 0.0994487 0.00660132
292 1 27.9624 3.97641 1.10408 4 0.000802181 2 0 0.0994487 -0.30952
293 1 28.2771 4.73475 0.706344 4 0.00115215 2 0 0.0994487 -0.0812579
294 1 27.0674 4.04323 0.570038 4 0.00159999 2 0 0.0994487 0.0120148
295 1 28.9321 3.77016 0.487204 4 0.000304779 2 0 0.0994487 -0.00703607
296 1 29.0873 4.52317 1.33085 4 0.000502176 2 0 0.0994487 0.0574807
297 1 29.9979 4.07209 1.02303 4 0.000158449 2 0 0.0994487 -0.275241
298 1 31.0296 3.97382 0.373364 4 6.38827e-05 2 0 0.0994487 0.657583
299 1 30.2046 4.67765 0.491317 4 0.000206046 2 0 0.0994487 0.0099561
300 1 30.9783 4.59929 1.41131 4 0.00010238 2 0 0.0994487 0.679914
301 1 0.908283 5.53205 0.461647 4 3.776e-12 2 0 0.0994487 -0.463785
302 1 1.53161 5.51184 1.37971 4 9.0987e-12 2 0 0.0994487 -0.117388
303 1 0.793684 6.22023 1.2768 4 4.38234e-12 2 0 0.0994487 -0.703381
304 1 0.257003 6.91734 1.50738 4 2.53106e-12 2 0 0.0994487 -0.772633
305 1 0.969942 6.9454 0.573423 4 8.23695e-12 2 0 0.0994487 -0.473533
306 1 1.7053 7.02884 1.23811 4 2.43944e-11 2 0 0.0994487 0.0665168
307 1 1.89588 6.19966 0.519025 4 2.40604e-11 2 0 0.0994487 -0.156401
308 1 3.10475 5.61709 1.30057 4 1.0823e-10 2 0 0.0994487 0.0402508
309 1 2.26359 6.15348 1.40977 4 3.65883e-11 2 0 0.0994487 0.0408551
310 1 3.25442 6.96226 1.12748 4 2.90332e-10 2 0 0.0994487 -0.0541258
311 1 2.68177 5.61289 0.273587 4 5.64329e-11 2 0 0.0994487 -0.0596868
312 1 3.39503 6.28191 0.500536 4 2.61704e-10 2 0 0.0994487 -0.121447
313 1 4.18979 5.46246 0.325783 4 4.87378e-10 2 0 0.0994487 0.0310156
314 1 4.93434 5.42873 1.31778 4 1.58547e-09 2 0 0.0994487 -0.235103
315 1 4.13622 6.09659 1.22779 4 7.39321e-10 2 0 0.0994487 -0.0893914
316 1 4.82567 6.23357 0.333842 4 1.90969e-09 2 0 0.0994487 -0.0345781
317 1 4.77312 6.79931 1.15967 4 2.79515e-09 2 0 0.0994487 -0.305933
318 1 4.00267 7.02511 0.221759 4 8.44573e-10 2 0 0.0994487 -0.0853455
319 1 5.78575 5.42185 0.301847 4 4.28205e-09 2 0 0.0994487 0.0125002
320 1 5.6935 6.24342 0.9632 4 7.06167e-09 2 0 0.0994487 -0.967782
321 1 6.4578 5.98425 1.59671 4 1.59815e-08 2 0 0.0994487 0.140912
322 1 6.43234 6.86927 1.00965 4 2.82254e-08 2 0 0.0994487 0.851668
323 1 6.37773 6.04115 0.154639 4 1.16635e-08 2 0 0.0994487 0.111111
324 1 5.54993 7.05206 0.147147 4 7.11432e-09 2 0 0.0994487 0.0363849
325 1 8.21355 5.31419 0.694273 4 1.17226e-07 2 0 0.0994487 -0.0895993
326 1 7.32761 6.15925 0.754293 4 5.93679e-08 2 0 0.0994487 0.225727
327 1 7.39163 5.41839 1.49138 4 4.05019e-08 2 0 0.0994487 0.13675
328 1 8.23884 6.11028 1.49159 4 1.94481e-07 2 0 0.0994487 0.0187342
329 1 8.01352 6.85364 0.728993 4 2.21402e-07 2 0 0.0994487 0.0691824
330 1 7.28191 6.86379 1.59601 4 8.82423e-08 2 1 0.0994487 0.126047
331 1 7.33029 5.3575 0.0461812 4 2.80515e-08 2 0 0.0994487 0.0813553
332 1 9.76796 5.3194 0.792562 4 7.60859e-07 2 0 0.0994487 0.328438
333 1 8.88016 6.18865 0.736908 4 4.6311e-07 2 0 0.0994487 -0.235547
334 1 9.05434 5.3271 1.5973 4 3.27448e-07 2 0 0.0994487 -0.0628333
335 1 9.73844 6.19052 1.46731 4 1.33476e-06 2 0 0.0994487 -0.106402
336 1 9.09351 6.95013 1.463 4 1.03199e-06 2 2 0.0994487 -0.0756575
337 1 9.76329 6.23201 0.0941385 4 1.13502e-06 2 0 0.0994487 -0.0359534
338 1 8.99733 5.46479 0.012702 4 2.67997e-07 2 0 0.0994487 -0.134755
339 1 10.5831 6.02196 0.964384 4 3.18583e-06 2 0 0.0994487 -0.356533
340 1 11.3128 6.37134 0.0776634 4 6.24676e-06 2 0 0.0994487 0.10034
341 1 10.5187 6.94145 0.15452 4 3.87229e-06 2 0 0.0994487 -0.073542
342 1 10.4686 6.92564 1.49614 4 4.97058e-06 2 1 0.0994487 -0.0635314
343 1 11.9994 5.6274 0.183157 4 1.04212e-05 2 0 0.0994487 -0.0105329
344 1 12.6757 5.81849 0.861776 4 2.87922e-05 2 0 0.0994487 0.0817362
345 1 11.7774 6.20735 1.05291 4 1.31723e-05 2 0 0.0994487 0.292139
346 1 13.3219 5.86668 1.55471 4 5.494e-05 2 0 0.0994487 0.208164
347 1 13.3506 6.58297 0.813679 4 9.48713e-05 2 0 0.0994487 -0.292125
348 1 13.3212 5.53867 0.0424813 4 4.37401e-05 2 0 0.0994487 -0.142912
349 1 14.0617 5.71565 0.77266 4 0.000114192 2 0 0.0994487 -0.372698
350 1 14.3278 6.65176 1.40646 4 0.000285409 2 1 0.0994487 -0.103133
351 1 14.1303 6.38483 0.0380077 4 0.000145047 2 0 0.0994487 -0.0826114
352 1 15.0282 5.64393 0.034369 4 0.000227846 2 0 0.0994487 0.0573632
353 1 15.8305 5.73813 0.95832 4 0.000575633 2 0 0.0994487 0.625787
354 1 15.0472 6.45091 0.806774 4 0.000461505 2 0 0.0994487 -0.176058
355 1 16.491 6.45257 1.1401 4 0.00163974 2 0 0.0994487 0.208329
356 1 15.1058 5.87594 1.69804 4 0.00034928 2 0 0.0994487 -0.0976586
357 1 16.62 5.41933 0.276819 4 0.000797076 2 0 0.0994487 0.0799228
358 1 15.6753 6.3382 0.0390223 4 0.00061614 2 0 0.0994487 0.0398516
359 1 17.8271 5.30128 0.541411 4 0.0018543 2 0 0.0994487 0.15033
360 1 17.113 5.42499 1.24767 4 0.00133022 2 0 0.0994487 -0.28657
361 1 17.0619 6.27419 0.411469 4 0.00206236 2 0 0.0994487 0.138954
362 1 17.6649 6.24649 1.38542 4 0.00347847 2 0 0.0994487 -0.254251
363 1 18.2745 7.0517 1.13153 4 0.00868299 2 1 0.0994487 0.631151
364 1 18.3714 6.23173 0.609762 4 0.00556352 2 0 0.0994487 0.156188
365 1 19.429 5.75829 0.62055 4 0.00845232 2 0 0.0994487 0.057194
366 1 19.3279 6.55755 1.35081 4 0.0144567 2 1 0.0994487 0.274744
367 1 19.9942 6.75229 0.610261 4 0.025465 2 0 0.0994487 -0.0119061
368 1 20.7494 5.77593 0.653722 4 0.0191474 2 0 0.0994487 -0.104058
369 1 20.1931 5.61076 1.39557 4 0.0125172 2 0 0.0994487 0.312032
370 1 20.7787 6.6124 1.30355 4 0.0408073 2 1 0.0994487 -0.344503
371 1 21.6592 6.66248 0.666524 4 0.0495901 2 0 0.0994487 -0.0435199
372 1 21.6631 5.87866 1.38528 4 0.0320062 2 0 0.0994487 0.0420774
373 1 21.6904 5.73259 0.0517844 4 0.0220964 2 0 0.0994487 -0.00150184
374 1 22.6732 5.8279 0.674154 4 0.0318016 2 0 0.0994487 0.00264396
375 1 22.6319 6.69333 1.20734 4 0.0682761 2 0 0.0994487 -0.201987
376 1 23.3484 6.78052 0.267835 4 0.0565301 2 0 0.0994487 -0.125393
377 1 23.4822 5.88496 1.30013 4 0.0357573 2 0 0.0994487 -0.176422
378 1 24.3197 6.56281 1.15825 4 0.0454636 2 0 0.0994487 0.173449
379 1 24.1457 6.00685 0.427617 4 0.0301473 2 0 0.0994487 0.00242537
380 1 25.6831 5.86213 0.700952 4 0.0149219 2 0 0.0994487 0.16388
381 1 25.1124 6.04132 1.67733 4 0.02254 2 0 0.0994487 0.00365687
382 1 25.1593 6.74159 0.495153 4 0.0324717 2 0 0.0994487 0.090373
383 1 25.8251 6.59457 1.40775 4 0.0220263 2 0 0.0994487 0.0880791
384 1 26.6903 5.84511 1.4763 4 0.00835983 2 0 0.0994487 0.0917498
385 1 27.4966 5.54334 0.722172 4 0.00368441 2 0 0.0994487 -0.251588
386 1 26.7485 6.36567 0.651888 4 0.0107939 2 0 0.0994487 0.0387351
387 1 27.7011 6.47315 1.36539 4 0.00583312 2 0 0.0994487 0.131481
388 1 28.3648 5.52203 1.4872 4 0.00184002 2 0 0.0994487 0.0456279
389 1 27.7097 7.0074 0.530173 4 0.00728381 2 0 0.0994487 0.0321108
390 1 29.3889 5.30889 0.818726 4 0.000695755 2 0 0.0994487 0.316707
391 1 29.4379 6.18214 1.32212 4 0.00103863 2 0 0.0994487 -0.00338573
392 1 29.5784 6.89773 0.506505 4 0.00129409 2 0 0.0994487 0.0925802
393 1 28.4685 6.20589 0.638647 4 0.00245987 2 0 0.0994487 -0.270097
394 1 29.3762 6.15398 0.0801838 4 0.000979267 2 0 0.0994487 0.0969236
395 1 28.4822 5.38976 0.0592959 4 0.00128626 2 0 0.0994487 -0.105006
396 1 30.9636 5.36838 0.595026 4 0.000182945 2 0 0.0994487 0.667848
397 1 30.2159 5.45949 1.46813 4 0.000334821 2 0 0.0994487 0.0540192
398 1 30.3958 6.18258 0.649752 4 0.000456843 2 0 0.0994487 0.328996
399 1 31.2189 6.15516 1.38439 4 0.000214672 2 0 0.0994487 0.587257
400 1 31.1994 6.95407 0.60342 4 0.000326459 2 0 0.0994487 0.812252
401 1 31.7235 5.99622 0.446564 4 0.00013534 2 0 0.0994487 0.879729
402 1 0.261851 7.63199 0.661866 4 3.88053e-12 2 0 0.0994487 -0.876374
403 1 0.831025 8.46344 0.61936 4 1.12951e-11 2 0 0.0994487 -0.577626
404 1 1.11211 7.86396 1.49711 4 1.25461e-11 2 0 0.0994487 -0.154429
405 1 0.356955 8.5626 1.47035 4 5.40074e-12 2 0 0.0994487 -0.764984
406 1 1.59266 7.76478 0.37187 4 2.81839e-11 2 0 0.0994487 -0.0897886
407 1 1.72382 8.61735 1.46471 4 4.36272e-11 2 0 0.0994487 0.0395959
408 1 2.48799 7.14986 0.476331 4 9.71016e-11 2 0 0.0994487 -0.0836978
409 1 2.19177 8.6335 0.399707 4 9.64113e-11 2 0 0.0994487 -0.137269
410 1 2.39416 7.81099 1.27726 4 1.02971e-10 2 0 0.0994487 0.0869905
411 1 3.01349 8.51445 0.935533 4 3.51869e-10 2 0 0.0994487 -0.539317
412 1 3.24418 7.77117 0.327041 4 3.76695e-10 2 0 0.0994487 -0.196206
413 1 3.81243 8.45898 0.0822892 4 9.37795e-10 2 0 0.0994487 -0.0457797
414 1 3.97971 7.67009 1.24863 4 1.15608e-09 2 0 0.0994487 -0.055491
415 1 4.70459 8.25653 0.921772 4 4.21932e-09 2 0 0.0994487 0.29532
416 1 4.67023 7.63706 0.247803 4 2.81948e-09 2 0 0.0994487 0.0376899
417 1 3.81127 8.34851 1.76162 4 9.3037e-10 2 0 0.0994487 -0.0574369
418 1 5.86955 8.34822 0.169905 4 1.84323e-08 2 0 0.0994487 0.113104
419 1 5.48363 7.59071 1.03232 4 1.09633e-08 2 0 0.0994487 -0.467671
420 1 6.49365 7.53799 0.169175 4 3.34112e-08 2 0 0.0994487 0.187622
421 1 6.39674 8.23976 1.04384 4 5.32201e-08 2 0 0.0994487 0.338144
422 1 7.28583 7.76918 0.746313 4 1.42354e-07 2 1 0.0994487 0.00993
423 1 8.2859 8.31376 0.868772 4 6.94618e-07 2 2 0.0994487 0.278885
424 1 7.27857 8.18368 1.7015 4 2.12635e-07 2 2 0.0994487 -0.174642
425 1 8.05208 7.48784 1.5604 4 3.64441e-07 2 1 0.0994487 0.185112
426 1 7.99895 7.60312 0.0282118 4 2.21516e-07 2 0 0.0994487 0.067412
427 1 9.84313 7.22199 0.72344 4 2.6973e-06 2 1 0.0994487 -0.346917
428 1 8.91207 7.61626 0.661731 4 1.04803e-06 2 1 0.0994487 0.158751
429 1 9.73234 8.61964 0.693151 4 4.47176e-06 2 3 0.0994487 -0.257303
430 1 9.09265 8.69904 1.44495 4 2.70298e-06 2 9 0.0994487 -0.394825
431 1 9.64026 7.88932 1.60055 4 3.84322e-06 2 8 0.0994487 -0.340227
432 1 11.3161 7.14287 0.810636 4 1.31266e-05 2 1 0.0994487 0.448474
433 1 10.5731 7.9454 0.844311 4 8.89954e-06 2 3 0.0994487 -0.198665
434 1 10.5877 8.70196 1.4255 4 1.42374e-05 1 8 0.0994487 -0.147222
435 1 11.4057 7.80503 1.60301 4 2.47244e-05 2 7 0.0994487 0.228067
436 1 11.227 8.11851 0.0422735 4 1.32844e-05 2 0 0.0994487 0.174325
437 1 12.7061 7.28322 0.565784 4 6.89387e-05 2 0 0.0994487 -0.0531435
438 1 12.178 8.23518 0.590765 4 5.66969e-05 2 2 0.0994487 0.163951
439 1 12.0637 7.15788 1.37768 4 3.47587e-05 2 3 0.0994487 0.145601