ITEM: TIMESTEP
42500
ITEM: NUMBER OF ATOMS
9495
ITEM: BOX BOUNDS mm mm mm
0.0000000000000000e+00 3.1748021039364001e+01
0.0000000000000000e+00 3.1748021039364001e+01
-7.4072398406925706e-04 3.1748021039364001e+01
ITEM: ATOMS id type x y z c_phase c_temp c_surf c_nbond c_visc f_3[1]
1 1 0.116341 1.10259 0.464337 4 0.000345465 2 0 0.0994487 -0.68194
2 1 0.974108 1.6685 0.77798 4 0.000472626 2 0 0.0994487 -0.517032
3 1 0.714648 0.793562 1.41295 4 0.000381358 2 0 0.0994487 -0.281794
4 1 0.00336375 1.60273 1.37437 4 0.000371722 2 0 0.0994487 -0.804051
5 1 0.729896 0.0633724 0.61602 4 0.000322645 3 0 0.0994487 -0.190374
6 1 1.71015 0.808983 1.0155 4 0.000540625 2 0 0.0994487 -0.332069
7 1 1.80059 1.47468 0.221075 4 0.000578594 2 0 0.0994487 -0.125829
8 1 1.82015 1.66049 1.76126 4 0.000613601 2 0 0.0994487 -0.139533
9 1 2.52093 0.749102 0.203812 4 0.00068037 2 0 0.0994487 -0.14294
10 1 2.59149 0.0538711 1.03726 4 0.000677174 2 0 0.0994487 -0.295004
11 1 2.64922 1.541 0.882848 4 0.000808468 2 0 0.0994487 0.235753
12 1 2.66829 0.815502 1.7457 4 0.000745113 2 0 0.0994487 -0.187041
13 1 3.43386 0.933692 0.956349 4 0.0010207 2 0 0.0994487 0.320239
14 1 3.49924 0.0925696 1.70571 4 0.000877734 2 0 0.0994487 0.178053
15 1 3.60652 1.70798 1.71994 4 0.00123327 2 0 0.0994487 0.0487945
16 1 4.10576 0.858321 0.325305 4 0.00133765 2 0 0.0994487 0.153145
17 1 4.96159 0.56786 1.17466 4 0.00202575 2 0 0.0994487 -0.0370678
18 1 4.91949 1.59987 0.383508 4 0.00226328 2 0 0.0994487 -0.100249
19 1 4.3472 0.941527 1.62884 4 0.0015356 2 0 0.0994487 0.110737
20 1 3.47612 0.111428 0.171027 4 0.000848361 2 0 0.0994487 0.166215
21 1 5.64741 0.645627 0.325839 4 0.0027337 2 0 0.0994487 -0.0806052
22 1 5.88414 1.31048 0.938036 4 0.00323332 2 0 0.0994487 -0.199588
23 1 6.57478 1.39104 0.218369 4 0.00426164 2 0 0.0994487 -0.0861338
24 1 5.78374 0.460658 1.69897 4 0.00277986 2 0 0.0994487 -0.0846529
25 1 5.03122 1.72414 1.43602 4 0.00236872 2 0 0.0994487 0.0453712
26 1 6.7138 0.39031 0.865278 4 0.0040391 2 0 0.0994487 -0.0793821
27 1 6.69104 1.00962 1.69374 4 0.0041518 2 0 0.0994487 -0.107924
28 1 8.2679 0.408875 1.07337 4 0.00676166 2 0 0.0994487 -0.100166
29 1 7.36782 1.22285 0.954198 4 0.00553064 2 0 0.0994487 -0.302552
30 1 8.24709 1.39092 0.236779 4 0.00756009 2 0 0.0994487 -0.0460641
31 1 8.12868 1.27217 1.60653 4 0.00701737 2 0 0.0994487 -0.00811685
32 1 7.58247 0.647807 0.140287 4 0.00558342 2 0 0.0994487 -0.110936
33 1 8.85849 0.508506 0.273966 4 0.00819167 2 0 0.0994487 -0.0616461
34 1 9.55301 0.3386 0.888639 4 0.00993364 2 0 0.0994487 0.00506452
35 1 9.02586 1.30716 1.1133 4 0.00957124 2 0 0.0994487 -0.060644
37 1 9.63995 1.37474 0.0900752 4 0.0111998 2 0 0.0994487 0.0992917
38 1 11.2128 0.215893 0.632658 4 0.0161806 2 0 0.0994487 0.203505
39 1 10.3637 1.04743 0.823114 4 0.0136459 2 0 0.0994487 0.539888
40 1 10.523 0.196295 1.44539 4 0.0130892 2 0 0.0994487 0.0644293
41 1 11.2856 1.01846 1.41785 4 0.0187398 2 0 0.0994487 0.164709
42 1 10.5797 1.67706 1.72992 4 0.016442 2 0 0.0994487 0.118165
43 1 10.2431 0.367861 0.0780499 4 0.0115148 2 0 0.0994487 0.149801
44 1 12.8757 0.211714 0.636805 4 0.0280522 2 0 0.0994487 0.0587893
45 1 12.0457 1.07408 0.506655 4 0.0245849 2 0 0.0994487 -0.0235492
46 1 12.1319 0.316439 1.29957 4 0.0229423 2 0 0.0994487 0.0188383
47 1 12.7194 1.19864 1.3723 4 0.0307668 2 0 0.0994487 -0.0305242
48 1 14.3729 0.318493 0.764646 4 0.0418447 2 0 0.0994487 -0.0460366
49 1 13.5924 1.113 0.843618 4 0.0389183 2 0 0.0994487 -0.263047
50 1 14.0399 1.55958 0.167469 4 0.0462567 2 0 0.0994487 -0.0898232
51 1 13.6075 0.359834 1.6352 4 0.0347721 2 0 0.0994487 -0.0562618
52 1 14.3777 1.14948 1.47647 4 0.0453339 2 0 0.0994487 -0.0178249
53 1 14.8761 1.55337 0.662943 4 0.0536139 2 0 0.0994487 0.389954
54 1 15.7061 0.770636 0.788259 4 0.0564375 2 0 0.0994487 0.366487
55 1 16.5532 1.54451 0.681338 4 0.0769851 2 0 0.0994487 0.000810243
56 1 15.1422 0.4642 1.64149 4 0.0480514 2 0 0.0994487 0.152079
57 1 16.547 0.712289 1.3421 4 0.0685107 2 0 0.0994487 0.0956296
58 1 15.6341 1.48544 1.3916 4 0.0620997 2 0 0.0994487 0.153635
59 1 15.1049 0.711806 0.0677822 4 0.0480979 2 0 0.0994487 0.169204
60 1 17.2544 0.732268 0.547589 4 0.0782757 2 0 0.0994487 0.0286322
61 1 17.9231 1.58109 0.757246 4 0.0971833 2 0 0.0994487 0.0415673
62 1 17.916 0.742935 1.42801 4 0.0882125 2 0 0.0994487 -0.224374
63 1 17.2202 1.74884 1.56274 4 0.0912118 2 0 0.0994487 -0.0984804
64 1 19.5372 0.0167772 0.662766 4 0.0937814 2 0 0.0994487 0.0436446
65 1 18.7918 0.725074 0.684829 4 0.0956666 2 0 0.0994487 -0.269943
66 1 19.5395 1.55488 0.841653 4 0.113664 2 0 0.0994487 -0.341158
67 1 19.0276 0.158607 1.54508 4 0.0926793 2 0 0.0994487 -0.158663
68 1 19.5934 0.967491 1.68957 4 0.104041 2 0 0.0994487 0.00835233
69 1 18.6564 1.51302 1.50035 4 0.105298 2 0 0.0994487 -0.250304
70 1 21.0889 0.349843 1.06749 4 0.104745 2 0 0.0994487 -0.196125
71 1 20.2493 0.776373 0.980057 4 0.106 2 0 0.0994487 -0.0497586
72 1 21.1062 1.65725 0.951506 4 0.121756 2 0 0.0994487 0.692919
73 1 21.1874 0.765598 0.218806 4 0.107663 2 0 0.0994487 -0.04459
74 1 20.3457 1.51479 0.193617 4 0.116848 2 0 0.0994487 -0.0806013
75 1 22.0087 0.262534 0.539755 4 0.104347 2 0 0.0994487 0.09936
76 1 22.7913 0.430275 1.40734 4 0.105615 2 0 0.0994487 0.2066
77 1 22.1105 1.14763 1.32981 4 0.11346 2 0 0.0994487 0.240025
78 1 21.9982 1.59955 0.538558 4 0.122014 2 0 0.0994487 0.185173
79 1 22.9157 1.07463 0.445168 4 0.112031 2 0 0.0994487 0.0520854
80 1 24.228 0.380179 1.45209 4 0.101599 2 0 0.0994487 0.0576172
81 1 23.5672 0.357563 0.57369 4 0.10366 2 0 0.0994487 0.0385715
82 1 24.4367 1.18687 0.754729 4 0.1101 2 0 0.0994487 -0.019295
83 1 23.4757 1.2499 1.4028 4 0.115157 2 0 0.0994487 0.0298783
84 1 24.955 0.315686 0.551996 4 0.0957767 2 0 0.0994487 -0.0171984
85 1 26.0085 0.383365 1.1715 4 0.0863221 2 0 0.0994487 -0.185859
86 1 25.169 1.12579 1.48087 4 0.103968 2 0 0.0994487 0.0251055
87 1 25.9301 1.73476 1.35794 4 0.105917 2 0 0.0994487 0.0345366
88 1 25.8917 0.929212 0.432102 4 0.0924556 2 0 0.0994487 -0.0954194
89 1 27.5736 1.28032 0.38906 4 0.0783059 2 0 0.0994487 0.0454494
90 1 27.6142 0.50928 0.874321 4 0.0727714 2 0 0.0994487 0.175388
91 1 26.7559 1.02809 1.26347 4 0.0839015 2 0 0.0994487 -0.236886
92 1 28.3748 0.337482 1.39813 4 0.0644322 2 0 0.0994487 0.00984452
93 1 26.7925 0.240345 0.226621 4 0.0772523 2 0 0.0994487 0.0380749
94 1 28.6489 1.24263 0.742341 4 0.0683673 2 0 0.0994487 0.102406
95 1 29.3912 0.945639 1.56878 4 0.0596037 2 0 0.0994487 -0.0192006
96 1 28.5228 1.71921 1.49749 4 0.0731021 2 0 0.0994487 -0.0429807
97 1 29.8133 0.173958 1.46124 4 0.053399 2 0 0.0994487 0.133416
98 1 29.2734 0.3547 0.615275 4 0.0569593 2 0 0.0994487 -0.0816811
99 1 31.5874 0.266128 1.25663 4 0.0432139 3 0 0.0994487 0.830097
100 1 30.7016 0.49015 0.470738 4 0.0498359 2 0 0.0994487 0.354852
101 1 30.1009 1.19877 0.774133 4 0.0572882 2 0 0.0994487 0.21092
102 1 30.8649 0.971942 1.39386 4 0.051804 2 0 0.0994487 0.703281
103 1 1.11081 2.43607 0.129285 4 0.000526848 2 0 0.0994487 -0.0373224
104 1 0.133403 2.3821 0.812241 4 0.000443287 2 0 0.0994487 -0.984517
105 1 1.28845 3.23764 0.949187 4 0.000680259 2 0 0.0994487 0.222089
106 1 1.13977 2.36077 1.59162 4 0.000557528 2 0 0.0994487 -0.222189
107 1 0.386685 3.02999 1.54944 4 0.000526691 2 0 0.0994487 -0.671256
108 1 0.332248 3.09582 0.131296 4 0.000506498 2 0 0.0994487 -0.59134
109 1 1.90972 2.41867 0.78376 4 0.000706924 2 0 0.0994487 0.0782077
110 1 2.65852 3.28029 0.860875 4 0.00117035 2 0 0.0994487 0.0668025
111 1 2.66931 2.22918 1.53373 4 0.000919824 2 0 0.0994487 0.0829544
112 1 3.2579 3.42668 1.64938 4 0.00155993 2 0 0.0994487 0.00397421
113 1 2.7261 2.38168 0.0557193 4 0.000883459 2 0 0.0994487 0.1466
114 1 3.38195 2.55413 0.779289 4 0.00132923 2 0 0.0994487 0.211582
115 1 4.00679 1.841 0.711184 4 0.00155274 2 0 0.0994487 -0.0361246
116 1 4.91383 2.57277 0.815661 4 0.00270272 2 0 0.0994487 -0.259352
117 1 4.20148 3.3175 0.749446 4 0.00233108 2 0 0.0994487 0.00621445
118 1 4.13245 2.64107 1.58328 4 0.00191913 2 0 0.0994487 0.0270768
119 1 5.65047 2.44269 0.132743 4 0.00355396 2 0 0.0994487 -0.189926
120 1 6.55776 2.18062 0.772597 4 0.00478807 2 0 0.0994487 -0.289386
121 1 5.64874 3.19593 0.952489 4 0.00415954 2 0 0.0994487 -0.754636
122 1 5.861 2.19426 1.49672 4 0.00362063 2 0 0.0994487 0.0126352
123 1 6.52037 3.06691 1.5557 4 0.00558878 2 0 0.0994487 0.0443572
124 1 6.65033 2.92778 0.134227 4 0.00545929 2 0 0.0994487 0.0288866
125 1 7.45405 2.22586 0.139832 4 0.00663193 2 0 0.0994487 -0.0535026
126 1 8.08209 2.20208 0.930382 4 0.00835232 2 0 0.0994487 -0.302074
127 1 7.40132 3.06835 0.934051 4 0.00785586 2 0 0.0994487 -0.0455261
128 1 7.29928 2.06035 1.56856 4 0.00608955 2 0 0.0994487 -0.0607329
129 1 8.18545 3.00183 1.65211 4 0.010245 2 0 0.0994487 -0.0454158
130 1 8.26934 2.9712 0.0392146 4 0.010495 2 0 0.0994487 -0.150617
131 1 8.90393 2.08699 0.252387 4 0.0105149 2 0 0.0994487 0.00243358
132 1 9.77243 2.0246 1.10996 4 0.0137705 2 0 0.0994487 0.173467
133 1 8.92671 2.97262 0.928693 4 0.013255 2 0 0.0994487 -0.156757
134 1 9.03062 2.22066 1.70398 4 0.0114001 2 0 0.0994487 -0.0819675
135 1 9.56096 2.90576 0.21312 4 0.0154171 2 0 0.0994487 0.173121
136 1 10.2834 2.1137 0.214297 4 0.0153799 2 0 0.0994487 0.33774
137 1 11.1583 1.82604 0.771092 4 0.0206016 2 0 0.0994487 0.260091
138 1 10.6214 2.80819 0.921535 4 0.0218545 2 0 0.0994487 0.541921
139 1 11.4444 2.82964 1.57484 4 0.0290738 2 0 0.0994487 0.0952015
140 1 12.6737 1.94118 0.593851 4 0.0354659 2 0 0.0994487 -0.28393
141 1 11.928 2.64099 0.742299 4 0.0324038 2 0 0.0994487 -0.0386706
142 1 11.9239 1.9206 1.46509 4 0.0272765 2 0 0.0994487 0.0946561
143 1 12.8449 3.01766 1.68597 4 0.0457266 2 0 0.0994487 0.0363588
144 1 13.1791 3.03035 0.848852 4 0.0507766 2 0 0.0994487 -0.440849
145 1 13.3784 1.9912 1.48064 4 0.0421162 2 0 0.0994487 -0.015068
146 1 14.0206 2.44438 0.927124 4 0.0543797 2 0 0.0994487 -0.133087
147 1 14.0279 3.38359 1.55716 4 0.0673669 2 0 0.0994487 0.0255773
148 1 14.6961 3.43698 0.884932 4 0.0799753 2 0 0.0994487 -0.332935
149 1 14.7823 2.29758 1.44821 4 0.0616567 2 0 0.0994487 0.0469298
150 1 14.8418 2.51505 0.136557 4 0.0652354 2 0 0.0994487 0.173007
151 1 14.1591 3.2262 0.0325348 4 0.0673773 2 0 0.0994487 -0.246104
152 1 13.4137 2.29398 0.0590902 4 0.0462937 2 0 0.0994487 -0.28096
153 1 15.6993 2.44373 0.692668 4 0.0773032 2 0 0.0994487 0.364399
154 1 16.3029 3.20095 0.662084 4 0.102698 2 0 0.0994487 0.328594
155 1 16.308 2.47951 1.52575 4 0.0894299 2 0 0.0994487 -0.100643
156 1 15.3694 3.25723 1.50191 4 0.0885494 2 0 0.0994487 -0.00766594
157 1 15.5706 3.25854 0.0192499 4 0.0872403 2 0 0.0994487 0.290239
158 1 17.0646 2.35032 0.682778 4 0.0986681 2 0 0.0994487 0.0234852
159 1 17.944 2.92608 0.699539 4 0.130601 2 0 0.0994487 -0.231187
160 1 18.0193 2.43917 1.58112 4 0.117392 2 0 0.0994487 -0.149131
161 1 17.0918 3.1162 1.49491 4 0.119236 2 0 0.0994487 -0.14343
162 1 18.8908 2.35742 1.01358 4 0.126414 2 0 0.0994487 -0.516823
163 1 19.7027 3.2427 1.27782 4 0.1607 2 0 0.0994487 0.394884
164 1 18.884 2.99607 0.196019 4 0.145421 2 0 0.0994487 -0.171808
165 1 19.587 2.34239 0.101452 4 0.132117 2 0 0.0994487 -0.132369
166 1 20.3251 1.78863 1.72442 4 0.120188 2 0 0.0994487 0.0449547
167 1 21.1565 2.41663 0.458355 4 0.142162 2 0 0.0994487 0.196189
168 1 20.1948 2.46882 1.11433 4 0.137623 2 0 0.0994487 0.286751
169 1 21.31 3.29463 1.39314 4 0.179776 2 0 0.0994487 0.0777312
170 1 20.4222 2.99313 0.334941 4 0.15617 2 0 0.0994487 0.186292
171 1 22.8719 2.07007 1.50872 4 0.136333 2 0 0.0994487 -0.0221224
172 1 22.9717 2.60199 0.735523 4 0.158173 2 0 0.0994487 0.133328
173 1 22.0961 2.49917 1.23787 4 0.15114 2 0 0.0994487 0.186441
174 1 21.9898 3.20043 0.598797 4 0.18298 2 0 0.0994487 -0.0757477
175 1 22.6771 3.40124 0.07601 4 0.195625 2 0 0.0994487 0.0760741
176 1 23.7438 1.80844 0.624025 4 0.125715 2 0 0.0994487 -0.0873582
177 1 24.4289 1.98763 1.61102 4 0.127583 2 0 0.0994487 -0.064175
178 1 24.342 2.68296 0.775192 4 0.150145 2 0 0.0994487 -0.341091
179 1 23.6887 2.90303 1.53628 4 0.164799 2 0 0.0994487 -0.110504
180 1 24.4728 3.51078 1.55704 4 0.186797 2 0 0.0994487 -0.118305
181 1 24.9562 2.84566 0.0146836 4 0.146468 2 0 0.0994487 -0.0864593
182 1 26.5483 1.79415 0.511367 4 0.097636 2 0 0.0994487 -0.00559982
183 1 25.1322 1.85613 0.509414 4 0.118115 2 0 0.0994487 -0.0215285
184 1 25.7918 2.61203 0.707489 4 0.130887 2 0 0.0994487 0.228203
185 1 25.1579 2.55548 1.52547 4 0.137753 2 0 0.0994487 0.0576673
186 1 25.7213 3.49812 1.51211 4 0.166776 2 0 0.0994487 0.123857
187 1 26.5364 2.56002 1.53049 4 0.115797 2 0 0.0994487 0.0579478
188 1 26.1686 3.50068 0.599043 4 0.157109 2 0 0.0994487 0.168845
189 1 27.5039 1.98546 1.23792 4 0.0876281 2 0 0.0994487 -0.186418
190 1 28.2489 2.09022 0.343734 4 0.0804339 2 0 0.0994487 -0.0177247
191 1 27.0867 2.6924 0.645359 4 0.108692 2 0 0.0994487 -0.105601
192 1 27.1998 3.35397 1.41682 4 0.124739 2 0 0.0994487 -0.0983283
193 1 28.2537 2.75799 1.20639 4 0.0906324 2 0 0.0994487 -0.418306
194 1 27.982 3.21993 0.326384 4 0.103354 2 0 0.0994487 -0.125257
195 1 29.9568 1.80906 1.70764 4 0.0626152 2 0 0.0994487 0.183201
196 1 29.4477 2.04702 0.879698 4 0.0689163 2 0 0.0994487 -0.00708315
197 1 29.1956 2.6589 0.290703 4 0.0775096 2 0 0.0994487 -0.0578283
198 1 29.2495 3.2651 1.17365 4 0.0863202 2 0 0.0994487 0.118634
199 1 30.9114 1.98502 0.924207 4 0.0606567 2 0 0.0994487 0.967251
200 1 30.1815 2.71094 1.00186 4 0.0706359 2 0 0.0994487 0.67511
201 1 31.0247 3.35309 0.97101 4 0.0737822 2 0 0.0994487 0.998409
202 1 30.9865 2.69483 1.72648 4 0.0668423 2 0 0.0994487 0.578501
203 1 30.1092 3.25953 0.132205 4 0.0756856 2 0 0.0994487 -0.0443658
204 1 30.4116 1.90909 0.0255368 4 0.0608539 2 0 0.0994487 0.106045
205 1 31.1434 2.66402 0.0761253 4 0.064563 2 0 0.0994487 0.70882
206 1 0.293831 3.78503 0.918557 4 0.000598975 2 0 0.0994487 -0.999347
207 1 0.143046 4.59443 0.482118 4 0.000669058 2 0 0.0994487 -0.784494
208 1 1.14036 4.67093 0.986638 4 0.000893759 2 0 0.0994487 -0.516753
209 1 0.0884667 5.26681 1.27761 4 0.000763155 2 0 0.0994487 -0.887458
210 1 1.04069 3.86421 0.0595682 4 0.000687537 2 0 0.0994487 0.0148877
211 1 1.84117 4.04604 0.847105 4 0.0010111 2 0 0.0994487 0.0082661
212 1 2.54049 4.85585 1.13748 4 0.00160467 2 0 0.0994487 -0.333848
213 1 2.64953 4.14475 0.20674 4 0.00145409 2 0 0.0994487 -0.0285727
214 1 1.89758 4.96895 0.278386 4 0.00127577 2 0 0.0994487 -0.153434
215 1 3.40771 4.86189 0.161635 4 0.00232074 2 0 0.0994487 -0.0163889
216 1 3.494 4.07675 0.885909 4 0.00203475 2 0 0.0994487 0.0268902
217 1 4.91235 4.00001 1.18344 4 0.00367188 2 0 0.0994487 0.0115059
218 1 4.04658 4.88002 1.14639 4 0.00304203 2 0 0.0994487 0.264487
219 1 4.26027 4.18509 0.149001 4 0.00290412 2 0 0.0994487 0.0377375
220 1 5.00947 4.74001 0.341082 4 0.00452604 2 0 0.0994487 0.0765386
221 1 5.77735 3.9378 0.198707 4 0.00496303 2 0 0.0994487 0.0260152
222 1 6.48883 3.76611 0.772067 4 0.00642144 2 0 0.0994487 0.204552
223 1 5.68025 4.73638 1.02487 4 0.00610136 2 0 0.0994487 -0.621696
224 1 6.66321 4.5115 1.6428 4 0.00822908 2 0 0.0994487 0.158933
225 1 6.68072 5.1315 0.885352 4 0.0099572 2 0 0.0994487 0.206851
226 1 8.1982 3.892 0.700757 4 0.0132242 2 0 0.0994487 -0.369901
227 1 7.40842 4.46072 0.5468 4 0.0112886 2 0 0.0994487 -0.0252133
228 1 7.39886 3.87029 1.49684 4 0.00945826 2 0 0.0994487 0.102576
229 1 8.20004 4.61106 1.48677 4 0.01576 2 0 0.0994487 -0.0118379
230 1 9.8976 3.57792 0.885667 4 0.021373 2 0 0.0994487 0.592785
231 1 9.07913 4.56551 0.821335 4 0.0213566 2 0 0.0994487 -0.658543
232 1 9.86266 4.50302 0.126324 4 0.0256121 2 0 0.0994487 0.0958659
233 1 9.07829 3.76256 1.49819 4 0.0172796 2 0 0.0994487 -0.0708855
234 1 9.86881 4.3462 1.65532 4 0.0262772 2 0 0.0994487 -0.0856621
235 1 8.98541 3.86821 0.0631775 4 0.0168814 2 0 0.0994487 -0.138754
236 1 11.408 3.64493 0.778297 4 0.0354072 2 0 0.0994487 0.202069
237 1 10.5891 4.66652 0.906264 4 0.0353919 2 0 0.0994487 0.045083
238 1 11.3867 4.69403 0.230734 4 0.04582 2 0 0.0994487 -0.049889
239 1 10.7059 3.56689 1.58785 4 0.0279451 2 0 0.0994487 -0.0448484
240 1 11.3652 4.3716 1.70545 4 0.0421998 2 0 0.0994487 -0.0798266
241 1 11.3894 5.27213 0.983682 4 0.053026 2 0 0.0994487 -0.674472
242 1 10.5826 3.84888 0.176129 4 0.0277426 2 0 0.0994487 0.210467
243 1 12.5168 3.57716 0.814749 4 0.0486336 2 0 0.0994487 -0.0105726
244 1 12.1916 4.55033 1.00021 4 0.0561561 2 0 0.0994487 0.105059
245 1 12.7362 4.99738 1.68903 4 0.0701323 2 0 0.0994487 0.191332
246 1 13.2258 4.67863 0.80017 4 0.0771052 2 0 0.0994487 -0.00468788
247 1 12.6435 4.61885 0.0632315 4 0.0659571 2 0 0.0994487 -0.0335787
248 1 13.9891 4.12825 0.69648 4 0.0822812 2 0 0.0994487 -0.430171
249 1 13.4832 4.21781 1.59317 4 0.0719563 2 0 0.0994487 0.0820205
250 1 14.2046 5.11838 1.52001 4 0.108717 2 0 0.0994487 -0.0289878
251 1 14.9402 5.01141 0.811699 4 0.125563 2 0 0.0994487 -0.0526454
252 1 14.9642 4.4167 1.59432 4 0.109157 2 0 0.0994487 -0.0635594
253 1 14.1405 4.90647 0.0597868 4 0.102299 2 0 0.0994487 -0.085692
254 1 14.961 4.19423 0.096508 4 0.100806 2 0 0.0994487 0.0322749
255 1 15.6685 4.06642 0.926277 4 0.1141 2 0 0.0994487 0.872593
256 1 15.8798 4.77595 0.186426 4 0.141477 2 0 0.0994487 0.165393
257 1 16.5936 4.58036 0.900182 4 0.156358 2 0 0.0994487 -0.0789507
258 1 16.3184 3.95875 1.6903 4 0.127111 2 0 0.0994487 -0.043394
259 1 15.8111 5.05317 1.64084 4 0.150405 2 0 0.0994487 0.0995028
260 1 17.2689 3.83372 0.811237 4 0.146979 2 0 0.0994487 -0.345378
261 1 18.0864 4.48855 1.09806 4 0.189792 2 0 0.0994487 -0.612128
262 1 17.9525 3.63794 1.65602 4 0.153193 2 0 0.0994487 -0.192803
263 1 17.4569 4.57727 0.0147963 4 0.17619 2 0 0.0994487 -0.0974078
264 1 18.1348 3.8547 0.0583493 4 0.163422 2 0 0.0994487 -0.120515
265 1 18.8779 3.70667 0.95022 4 0.169514 2 0 0.0994487 0.06925
266 1 18.8235 4.60949 0.361826 4 0.206355 2 0 0.0994487 0.115612
267 1 19.6906 4.67872 1.0803 4 0.238609 2 0 0.0994487 0.931527
268 1 18.7859 5.27693 1.20102 3 0.254469 2 0 0.0994237 0.599129
269 1 19.5987 3.76722 0.227421 4 0.179268 2 0 0.0994487 0.164271
270 1 20.4384 3.82188 1.23329 4 0.198882 2 0 0.0994487 0.325958
271 1 20.8846 4.71868 1.39403 3 0.278171 2 0 0.0992702 0.149061
272 1 21.5775 4.95128 0.810455 3 0.325337 2 0 0.0988335 -0.00374616
273 1 21.0824 3.93136 0.512408 4 0.215404 2 0 0.0994487 0.0883052
274 1 20.1339 4.78559 0.352846 3 0.256979 2 0 0.0994091 0.145588
275 1 22.8205 3.63186 1.42135 4 0.209418 2 0 0.0994487 -0.0183987
276 1 21.9406 4.13318 1.31068 4 0.243998 2 0 0.0994487 0.0272061
277 1 22.4705 5.17735 1.27286 3 0.361894 2 0 0.0983238 0.0207073
278 1 22.6119 4.34705 0.510028 3 0.264158 2 0 0.0993653 -0.0221052
279 1 23.5735 3.63903 0.782677 4 0.208581 2 0 0.0994487 0.18556
280 1 24.336 4.32055 0.625018 4 0.248815 2 0 0.0994487 -0.150094
281 1 23.4679 4.54946 1.33355 3 0.282537 2 0 0.0992378 -0.0790554
282 1 24.8518 5.25716 0.566763 3 0.314958 2 0 0.0989477 0.0409058
283 1 23.5518 5.06386 0.533607 3 0.335648 2 0 0.0987077 -0.0968891
284 1 25.0086 4.50055 1.62342 4 0.244506 2 0 0.0994487 -0.0421954
285 1 25.0629 3.68037 0.802132 4 0.188506 2 0 0.0994487 -0.187917
286 1 24.363 5.28843 1.43377 3 0.338599 2 0 0.0986694 -0.154711
287 1 25.6904 5.1389 1.34266 3 0.2725 2 0 0.0993103 0.210099
288 1 26.3575 4.29031 1.37159 4 0.190227 2 0 0.0994487 0.149482
289 1 26.5026 4.97257 0.640732 4 0.223302 2 0 0.0994487 0.0989663
290 1 25.5284 4.40089 0.388179 4 0.220597 2 0 0.0994487 0.0559474
291 1 27.3302 4.86961 1.40568 4 0.185991 2 0 0.0994487 0.00660942
292 1 27.9624 3.97641 1.10408 4 0.126543 2 0 0.0994487 -0.309505
293 1 28.2771 4.73475 0.706344 4 0.148424 2 0 0.0994487 -0.0812473
294 1 27.0674 4.04323 0.570038 4 0.154625 2 0 0.0994487 0.0120222
295 1 28.9321 3.77016 0.487204 4 0.100505 2 0 0.0994487 -0.00703277
296 1 29.0873 4.52317 1.33085 4 0.119249 2 0 0.0994487 0.0574855
297 1 29.9979 4.07209 1.02303 4 0.0920786 2 0 0.0994487 -0.275233
298 1 31.0296 3.97382 0.373364 4 0.0814701 2 0 0.0994487 0.657583
299 1 30.2046 4.67765 0.491317 4 0.104169 2 0 0.0994487 0.00995828
300 1 30.9783 4.59929 1.41131 4 0.0932754 2 0 0.0994487 0.679914
301 1 0.908283 5.53205 0.461647 4 0.00102314 2 0 0.0994487 -0.463785
302 1 1.53161 5.51184 1.37971 4 0.00123596 2 0 0.0994487 -0.117387
303 1 0.793684 6.22023 1.2768 4 0.00117058 2 0 0.0994487 -0.703381
304 1 0.257003 6.91734 1.50738 4 0.00118454 2 0 0.0994487 -0.772633
305 1 0.969942 6.9454 0.573423 4 0.00144199 2 0 0.0994487 -0.473533
306 1 1.7053 7.02884 1.23811 4 0.0017886 2 0 0.0994487 0.066517
307 1 1.89588 6.19966 0.519025 4 0.00165436 2 0 0.0994487 -0.156401
308 1 3.10475 5.61709 1.30057 4 0.00234659 2 0 0.0994487 0.0402513
309 1 2.26359 6.15348 1.40977 4 0.00182763 2 0 0.0994487 0.0408552
310 1 3.25442 6.96226 1.12748 4 0.00350408 2 0 0.0994487 -0.0541254
311 1 2.68177 5.61289 0.273587 4 0.00199222 2 0 0.0994487 -0.0596865
312 1 3.39503 6.28191 0.500536 4 0.00325382 2 0 0.0994487 -0.121446
313 1 4.18979 5.46246 0.325783 4 0.00377375 2 0 0.0994487 0.0310162
314 1 4.93434 5.42873 1.31778 4 0.00543923 2 0 0.0994487 -0.235102
315 1 4.13622 6.09659 1.22779 4 0.00438596 2 0 0.0994487 -0.0893908
316 1 4.82567 6.23357 0.333842 4 0.00605337 2 0 0.0994487 -0.0345777
317 1 4.77312 6.79931 1.15967 4 0.0068818 2 0 0.0994487 -0.305933
318 1 4.00267 7.02511 0.221759 4 0.00494845 2 0 0.0994487 -0.0853454
319 1 5.78575 5.42185 0.301847 4 0.00740784 2 0 0.0994487 0.0125008
320 1 5.6935 6.24342 0.9632 4 0.00884946 2 0 0.0994487 -0.967782
321 1 6.4578 5.98425 1.59671 4 0.011114 2 0 0.0994487 0.140912
322 1 6.43234 6.86927 1.00965 4 0.013715 2 0 0.0994487 0.851665
323 1 6.37773 6.04115 0.154639 4 0.0103768 2 0 0.0994487 0.111111
324 1 5.54993 7.05206 0.147147 4 0.00947763 2 0 0.0994487 0.0363848
325 1 8.21355 5.31419 0.694273 4 0.0191145 2 0 0.0994487 -0.089595
326 1 7.32761 6.15925 0.754293 4 0.0164782 2 0 0.0994487 0.225728
327 1 7.39163 5.41839 1.49138 4 0.0140053 2 0 0.0994487 0.136752
328 1 8.23884 6.11028 1.49159 4 0.0237879 2 0 0.0994487 0.0187358
329 1 8.01352 6.85364 0.728993 4 0.0265634 2 0 0.0994487 0.0691839
330 1 7.28191 6.86379 1.59601 4 0.0200838 2 1 0.0994487 0.12604
331 1 7.33029 5.3575 0.0461812 4 0.0129659 2 0 0.0994487 0.0813561
332 1 9.76796 5.3194 0.792562 4 0.0321271 2 0 0.0994487 0.328447
333 1 8.88016 6.18865 0.736908 4 0.0306703 2 0 0.0994487 -0.235547
334 1 9.05434 5.3271 1.5973 4 0.0259124 2 0 0.0994487 -0.0628315
335 1 9.73844 6.19052 1.46731 4 0.0415271 2 0 0.0994487 -0.106552
336 1 9.09351 6.95013 1.463 4 0.0417709 2 2 0.0994487 -0.0762193
337 1 9.76329 6.23201 0.0941385 4 0.0406997 2 0 0.0994487 -0.0359529
338 1 8.99733 5.46479 0.012702 4 0.0258153 2 0 0.0994487 -0.134754
339 1 10.5831 6.02196 0.964384 4 0.0508788 2 0 0.0994487 -0.35621
340 1 11.3128 6.37134 0.0776634 4 0.0638799 2 0 0.0994487 0.100343
341 1 10.5187 6.94145 0.15452 4 0.0606777 2 0 0.0994487 -0.0735271
342 1 10.4686 6.92564 1.49614 4 0.0640304 2 1 0.0994487 -0.0634978
343 1 11.9994 5.6274 0.183157 4 0.0658752 2 0 0.0994487 -0.0105295
344 1 12.6757 5.81849 0.861776 4 0.0848851 2 0 0.0994487 0.0817521
345 1 11.7774 6.20735 1.05291 4 0.0726753 2 0 0.0994487 0.292347
346 1 13.3219 5.86668 1.55471 4 0.101197 2 0 0.0994487 0.20817
347 1 13.3506 6.58297 0.813679 4 0.126886 2 0 0.0994487 -0.292102
348 1 13.3212 5.53867 0.0424813 4 0.0952133 2 0 0.0994487 -0.142909
349 1 14.0617 5.71565 0.77266 4 0.121575 2 0 0.0994487 -0.372664
350 1 14.3278 6.65176 1.40646 4 0.171267 2 1 0.0994487 -0.103221
351 1 14.1303 6.38483 0.0380077 4 0.139743 2 0 0.0994487 -0.0826085
352 1 15.0282 5.64393 0.034369 4 0.146153 2 0 0.0994487 0.0573662
353 1 15.8305 5.73813 0.95832 4 0.184048 2 0 0.0994487 0.625751
354 1 15.0472 6.45091 0.806774 4 0.1873 2 0 0.0994487 -0.174565
355 1 16.491 6.45257 1.1401 3 0.261407 2 0 0.0993824 0.204693
356 1 15.1058 5.87594 1.69804 4 0.168465 2 0 0.0994487 -0.097676
357 1 16.62 5.41933 0.276819 4 0.191774 2 0 0.0994487 0.0799253
358 1 15.6753 6.3382 0.0390223 4 0.199459 2 0 0.0994487 0.0398052
359 1 17.8271 5.30128 0.541411 4 0.222255 2 0 0.0994487 0.15033
360 1 17.113 5.42499 1.24767 4 0.21273 2 0 0.0994487 -0.286568
361 1 17.0619 6.27419 0.411469 3 0.263839 2 0 0.0993673 0.13899
362 1 17.6649 6.24649 1.38542 3 0.295371 2 0 0.099134 -0.255518
363 1 18.2745 7.0517 1.13153 3 0.397292 2 0 0.0976222 0.674925
364 1 18.3714 6.23173 0.609762 3 0.319798 2 0 0.0988959 0.156213
365 1 19.429 5.75829 0.62055 3 0.320542 2 0 0.0988877 0.057189
366 1 19.3279 6.55755 1.35081 3 0.403815 2 0 0.0974644 0.282758
367 1 19.9942 6.75229 0.610261 3 0.486658 2 0 0.0943071 -0.0118399
368 1 20.7494 5.77593 0.653722 3 0.39643 2 0 0.0976423 -0.104063
369 1 20.1931 5.61076 1.39557 3 0.343245 2 0 0.0986066 0.312018
370 1 20.7787 6.6124 1.30355 3 0.541022 2 0 0.0904365 -0.343038
371 1 21.6592 6.66248 0.666524 3 0.560431 2 0 0.0885331 -0.043531
372 1 21.6631 5.87866 1.38528 3 0.460908 2 0 0.0955646 0.0420252
373 1 21.6904 5.73259 0.0517844 3 0.417447 2 0 0.0971005 -0.001501
374 1 22.6732 5.8279 0.674154 3 0.445472 2 0 0.0961843 0.00265733
375 1 22.6319 6.69333 1.20734 3 0.59612 2 0 0.0841034 -0.202406
376 1 23.3484 6.78052 0.267835 3 0.559193 2 0 0.0886643 -0.125373
377 1 23.4822 5.88496 1.30013 3 0.450692 2 0 0.0959848 -0.176381
378 1 24.3197 6.56281 1.15825 3 0.493622 2 0 0.0939117 0.173772
379 1 24.1457 6.00685 0.427617 3 0.428457 2 0 0.0967696 0.00243688
380 1 25.6831 5.86213 0.700952 3 0.332848 2 0 0.0987432 0.163895
381 1 25.1124 6.04132 1.67733 3 0.381965 2 0 0.0979559 0.00366775
382 1 25.1593 6.74159 0.495153 3 0.447155 2 0 0.0961211 0.0903895
383 1 25.8251 6.59457 1.40775 3 0.388773 2 0 0.0978138 0.0881001
384 1 26.6903 5.84511 1.4763 3 0.277571 2 0 0.0992745 0.0917608
385 1 27.4966 5.54334 0.722172 4 0.212529 2 0 0.0994487 -0.251573
386 1 26.7485 6.36567 0.651888 3 0.30953 2 0 0.099003 0.0387495
387 1 27.7011 6.47315 1.36539 3 0.258185 2 0 0.0994019 0.131492
388 1 28.3648 5.52203 1.4872 4 0.177324 2 0 0.0994487 0.045633
389 1 27.7097 7.0074 0.530173 3 0.285752 2 0 0.099213 0.0321227
390 1 29.3889 5.30889 0.818726 4 0.140509 2 0 0.0994487 0.316726
391 1 29.4379 6.18214 1.32212 4 0.165194 2 0 0.0994487 -0.00338116
392 1 29.5784 6.89773 0.506505 4 0.184903 2 0 0.0994487 0.0925864
393 1 28.4685 6.20589 0.638647 4 0.199582 2 0 0.0994487 -0.270082
394 1 29.3762 6.15398 0.0801838 4 0.165638 2 0 0.0994487 0.0969262
395 1 28.4822 5.38976 0.0592959 4 0.16527 2 0 0.0994487 -0.105003
396 1 30.9636 5.36838 0.595026 4 0.115802 2 0 0.0994487 0.667849
397 1 30.2159 5.45949 1.46813 4 0.125246 2 0 0.0994487 0.0540214
398 1 30.3958 6.18258 0.649752 4 0.144005 2 0 0.0994487 0.329001
399 1 31.2189 6.15516 1.38439 4 0.130595 2 0 0.0994487 0.587258
400 1 31.1994 6.95407 0.60342 4 0.151803 2 0 0.0994487 0.812252
401 1 31.7235 5.99622 0.446564 4 0.123209 2 0 0.0994487 0.879729
402 1 0.261851 7.63199 0.661866 4 0.00137785 2 0 0.0994487 -0.876374
403 1 0.831025 8.46344 0.61936 4 0.00174287 2 0 0.0994487 -0.577626
404 1 1.11211 7.86396 1.49711 4 0.00168939 2 0 0.0994487 -0.154429
405 1 0.356955 8.5626 1.47035 4 0.00157112 2 0 0.0994487 -0.764984
406 1 1.59266 7.76478 0.37187 4 0.00198369 2 0 0.0994487 -0.0897885
407 1 1.72382 8.61735 1.46471 4 0.00231138 2 0 0.0994487 0.0395962
408 1 2.48799 7.14986 0.476331 4 0.00259591 2 0 0.0994487 -0.0836975
409 1 2.19177 8.6335 0.399707 4 0.00287172 2 0 0.0994487 -0.137269
410 1 2.39416 7.81099 1.27726 4 0.00273315 2 0 0.0994487 0.0869908
411 1 3.01349 8.51445 0.935533 4 0.00404523 2 0 0.0994487 -0.539319
412 1 3.24418 7.77117 0.327041 4 0.00404648 2 0 0.0994487 -0.196206
413 1 3.81243 8.45898 0.0822892 4 0.00548205 2 0 0.0994487 -0.0457797
414 1 3.97971 7.67009 1.24863 4 0.00549028 2 0 0.0994487 -0.055491
415 1 4.70459 8.25653 0.921772 4 0.00812718 2 0 0.0994487 0.29532
416 1 4.67023 7.63706 0.247803 4 0.00718837 2 0 0.0994487 0.0376898
417 1 3.81127 8.34851 1.76162 4 0.00550624 2 0 0.0994487 -0.0574369
418 1 5.86955 8.34822 0.169905 4 0.0132813 2 0 0.0994487 0.113103
419 1 5.48363 7.59071 1.03232 4 0.0106902 2 0 0.0994487 -0.467673
420 1 6.49365 7.53799 0.169175 4 0.0154611 2 0 0.0994487 0.187622
421 1 6.39674 8.23976 1.04384 4 0.0179147 2 0 0.0994487 0.338127
422 1 7.28583 7.76918 0.746313 4 0.0247419 2 1 0.0994487 0.00992748
423 1 8.2859 8.31376 0.868772 4 0.0420405 2 2 0.0994487 0.278172
424 1 7.27857 8.18368 1.7015 4 0.0291683 2 2 0.0994487 -0.174865
425 1 8.05208 7.48784 1.5604 4 0.0328773 2 1 0.0994487 0.184995
426 1 7.99895 7.60312 0.0282118 4 0.0299997 2 0 0.0994487 0.067412
427 1 9.84313 7.22199 0.72344 4 0.0560665 2 1 0.0994487 -0.346983
428 1 8.91207 7.61626 0.661731 4 0.044386 2 1 0.0994487 0.158463
429 1 9.73234 8.61964 0.693151 4 0.0739379 2 3 0.0994487 -0.256969
430 1 9.09265 8.69904 1.44495 4 0.0661935 2 9 0.0994487 -0.393938
431 1 9.64026 7.88932 1.60055 4 0.0685831 2 8 0.0994487 -0.340686
432 1 11.3161 7.14287 0.810636 4 0.0809971 2 1 0.0994487 0.448681
433 1 10.5731 7.9454 0.844311 4 0.082066 2 3 0.0994487 -0.197697
434 1 10.5877 8.70196 1.4255 4 0.0992143 1 8 0.0994487 -0.150913
435 1 11.4057 7.80503 1.60301 4 0.106013 2 7 0.0994487 0.229121
436 1 11.227 8.11851 0.0422735 4 0.0924051 2 0 0.0994487 0.17434
437 1 12.7061 7.28322 0.565784 4 0.127657 2 0 0.0994487 -0.0531271
438 1 12.178 8.23518 0.590765 4 0.131315 2 2 0.0994487 0.163873
439 1 12.0637 7.15788 1.37768 4 0.104003 2 3 0.0994487 0.146078
440 1 12.0887 8.68064 1.49044 4 0.150761 1 8 0.0994487 0.0791819
441 1 12.8601 7.99585 1.47598 4 0.169517 2 5 0.0994487 -0.219531
442 1 14.3373 7.3542 0.580954 4 0.195097 2 0 0.0994487 0.0665688
443 1 13.6169 8.09282 0.464536 4 0.189845 2 2 0.0994487 0.0261517
444 1 13.458 7.34024 1.34133 4 0.166463 2 2 0.0994487 0.0551741
445 1 14.2471 8.18371 1.35246 4 0.244357 2 2 0.0994487 0.119588
446 1 16.4328 7.18497 0.276798 3 0.30075 2 0 0.0990864 -0.0655695
447 1 15.6276 7.3114 0.923132 3 0.274502 2 0 0.0992964 -0.446403
448 1 15.0689 8.29247 0.865596 3 0.294476 2 0 0.0991416 -0.332596
449 1 16.2796 8.16169 1.10435 0 0.368609 1 0 0.0982087 -0.330469
450 1 15.1452 7.52269 1.62484 3 0.277383 2 0 0.0992759 -0.395803
451 1 15.8668 8.31534 0.152632 3 0.339246 2 0 0.0986608 -0.193518