ITEM: TIMESTEP
21000
ITEM: NUMBER OF ATOMS
9495
ITEM: BOX BOUNDS mm mm mm
0.0000000000000000e+00 3.1748021039364001e+01
0.0000000000000000e+00 3.1748021039364001e+01
-7.4072398406925706e-04 3.1748021039364001e+01
ITEM: ATOMS id type x y z c_phase c_temp c_surf c_nbond c_visc f_3[1]
1 1 0.116341 1.10259 0.464337 4 9.29292e-08 2 0 0.0994487 -0.68194
2 1 0.974108 1.6685 0.77798 4 2.13272e-07 2 0 0.0994487 -0.517031
3 1 0.714648 0.793562 1.41295 4 1.24605e-07 2 0 0.0994487 -0.281793
4 1 0.00336375 1.60273 1.37437 4 1.10025e-07 2 0 0.0994487 -0.804051
5 1 0.729896 0.0633724 0.61602 4 8.29138e-08 3 0 0.0994487 -0.190374
6 1 1.71015 0.808983 1.0155 4 2.89647e-07 2 0 0.0994487 -0.332068
7 1 1.80059 1.47468 0.221075 4 3.40121e-07 2 0 0.0994487 -0.125828
8 1 1.82015 1.66049 1.76126 4 3.9308e-07 2 0 0.0994487 -0.139532
9 1 2.52093 0.749102 0.203812 4 4.67935e-07 2 0 0.0994487 -0.142939
10 1 2.59149 0.0538711 1.03726 4 4.39629e-07 2 0 0.0994487 -0.295004
11 1 2.64922 1.541 0.882848 4 7.39782e-07 2 0 0.0994487 0.235762
12 1 2.66829 0.815502 1.7457 4 5.73199e-07 2 0 0.0994487 -0.18704
13 1 3.43386 0.933692 0.956349 4 1.15882e-06 2 0 0.0994487 0.320248
14 1 3.49924 0.0925696 1.70571 4 7.81288e-07 2 0 0.0994487 0.178054
15 1 3.60652 1.70798 1.71994 4 1.70075e-06 2 0 0.0994487 0.0487967
16 1 4.10576 0.858321 0.325305 4 1.92507e-06 2 0 0.0994487 0.153148
17 1 4.96159 0.56786 1.17466 4 3.96317e-06 2 0 0.0994487 -0.0370642
18 1 4.91949 1.59987 0.383508 4 5.23882e-06 2 0 0.0994487 -0.100245
19 1 4.3472 0.941527 1.62884 4 2.45792e-06 2 0 0.0994487 0.11074
20 1 3.47612 0.111428 0.171027 4 7.24444e-07 2 0 0.0994487 0.166216
21 1 5.64741 0.645627 0.325839 4 6.79017e-06 2 0 0.0994487 -0.0806029
22 1 5.88414 1.31048 0.938036 4 1.00488e-05 2 0 0.0994487 -0.199567
23 1 6.57478 1.39104 0.218369 4 1.68059e-05 2 0 0.0994487 -0.0861308
24 1 5.78374 0.460658 1.69897 4 6.78441e-06 2 0 0.0994487 -0.0846504
25 1 5.03122 1.72414 1.43602 4 5.77841e-06 2 0 0.0994487 0.0453755
26 1 6.7138 0.39031 0.865278 4 1.40646e-05 2 0 0.0994487 -0.0793793
27 1 6.69104 1.00962 1.69374 4 1.53252e-05 2 0 0.0994487 -0.107921
28 1 8.2679 0.408875 1.07337 4 3.85516e-05 2 0 0.0994487 -0.100163
29 1 7.36782 1.22285 0.954198 4 2.78831e-05 2 0 0.0994487 -0.302536
30 1 8.24709 1.39092 0.236779 4 5.11695e-05 2 0 0.0994487 -0.0460608
31 1 8.12868 1.27217 1.60653 4 4.42487e-05 2 0 0.0994487 -0.00811361
32 1 7.58247 0.647807 0.140287 4 2.63729e-05 2 0 0.0994487 -0.110934
33 1 8.85849 0.508506 0.273966 4 5.58462e-05 2 0 0.0994487 -0.061644
34 1 9.55301 0.3386 0.888639 4 8.24263e-05 2 0 0.0994487 0.00506722
35 1 9.02586 1.30716 1.1133 4 8.23859e-05 2 0 0.0994487 -0.060634
37 1 9.63995 1.37474 0.0900752 4 0.000109396 2 0 0.0994487 0.0992937
38 1 11.2128 0.215893 0.632658 4 0.000212869 2 0 0.0994487 0.203507
39 1 10.3637 1.04743 0.823114 4 0.000163656 2 0 0.0994487 0.539895
40 1 10.523 0.196295 1.44539 4 0.000139823 2 0 0.0994487 0.064431
41 1 11.2856 1.01846 1.41785 4 0.000299682 2 0 0.0994487 0.164713
42 1 10.5797 1.67706 1.72992 4 0.000240715 2 0 0.0994487 0.118167
43 1 10.2431 0.367861 0.0780499 4 0.000106559 2 0 0.0994487 0.149803
44 1 12.8757 0.211714 0.636805 4 0.000584987 2 0 0.0994487 0.0587908
45 1 12.0457 1.07408 0.506655 4 0.000495545 2 0 0.0994487 -0.0235467
46 1 12.1319 0.316439 1.29957 4 0.000407935 2 0 0.0994487 0.0188405
47 1 12.7194 1.19864 1.3723 4 0.00075843 2 0 0.0994487 -0.0305213
48 1 14.3729 0.318493 0.764646 4 0.00128121 2 0 0.0994487 -0.0460359
49 1 13.5924 1.113 0.843618 4 0.00118191 2 0 0.0994487 -0.263044
50 1 14.0399 1.55958 0.167469 4 0.0016757 2 0 0.0994487 -0.0898225
51 1 13.6075 0.359834 1.6352 4 0.000877298 2 0 0.0994487 -0.0562608
52 1 14.3777 1.14948 1.47647 4 0.00159244 2 0 0.0994487 -0.017824
53 1 14.8761 1.55337 0.662943 4 0.00230779 2 0 0.0994487 0.389955
54 1 15.7061 0.770636 0.788259 4 0.00248838 2 0 0.0994487 0.366487
55 1 16.5532 1.54451 0.681338 4 0.00486472 2 0 0.0994487 0.000809767
56 1 15.1422 0.4642 1.64149 4 0.0017179 2 0 0.0994487 0.152079
57 1 16.547 0.712289 1.3421 4 0.00367067 2 0 0.0994487 0.0956294
58 1 15.6341 1.48544 1.3916 4 0.00314488 2 0 0.0994487 0.153636
59 1 15.1049 0.711806 0.0677822 4 0.00170853 2 0 0.0994487 0.169204
60 1 17.2544 0.732268 0.547589 4 0.00473254 2 0 0.0994487 0.0286316
61 1 17.9231 1.58109 0.757246 4 0.00786608 2 0 0.0994487 0.0415658
62 1 17.916 0.742935 1.42801 4 0.00606765 2 0 0.0994487 -0.224375
63 1 17.2202 1.74884 1.56274 4 0.00691726 2 0 0.0994487 -0.0984812
64 1 19.5372 0.0167772 0.662766 4 0.0066269 2 0 0.0994487 0.043644
65 1 18.7918 0.725074 0.684829 4 0.00720436 2 0 0.0994487 -0.269945
66 1 19.5395 1.55488 0.841653 4 0.0112393 2 0 0.0994487 -0.341161
67 1 19.0276 0.158607 1.54508 4 0.0064615 2 0 0.0994487 -0.158664
68 1 19.5934 0.967491 1.68957 4 0.00892908 2 0 0.0994487 0.00835113
69 1 18.6564 1.51302 1.50035 4 0.00931756 2 0 0.0994487 -0.250306
70 1 21.0889 0.349843 1.06749 4 0.00914605 2 0 0.0994487 -0.196127
71 1 20.2493 0.776373 0.980057 4 0.00941678 2 0 0.0994487 -0.0497616
72 1 21.1062 1.65725 0.951506 4 0.0138422 2 0 0.0994487 0.692912
73 1 21.1874 0.765598 0.218806 4 0.00989893 2 0 0.0994487 -0.0445913
74 1 20.3457 1.51479 0.193617 4 0.0121115 2 0 0.0994487 -0.0806028
75 1 22.0087 0.262534 0.539755 4 0.00921402 2 0 0.0994487 0.0993587
76 1 22.7913 0.430275 1.40734 4 0.00984943 2 0 0.0994487 0.206599
77 1 22.1105 1.14763 1.32981 4 0.0118518 2 0 0.0994487 0.240021
78 1 21.9982 1.59955 0.538558 4 0.0143166 2 0 0.0994487 0.185171
79 1 22.9157 1.07463 0.445168 4 0.0117855 2 0 0.0994487 0.0520832
80 1 24.228 0.380179 1.45209 4 0.00959889 2 0 0.0994487 0.0576156
81 1 23.5672 0.357563 0.57369 4 0.00973569 2 0 0.0994487 0.0385697
82 1 24.4367 1.18687 0.754729 4 0.0122463 2 0 0.0994487 -0.0192995
83 1 23.4757 1.2499 1.4028 4 0.0130391 2 0 0.0994487 0.0298752
84 1 24.955 0.315686 0.551996 4 0.00869188 2 0 0.0994487 -0.0172003
85 1 26.0085 0.383365 1.1715 4 0.00730927 2 0 0.0994487 -0.185861
86 1 25.169 1.12579 1.48087 4 0.011103 2 0 0.0994487 0.0251031
87 1 25.9301 1.73476 1.35794 4 0.0123144 2 0 0.0994487 0.0345329
88 1 25.8917 0.929212 0.432102 4 0.00870879 2 0 0.0994487 -0.0954217
89 1 27.5736 1.28032 0.38906 4 0.00630218 2 0 0.0994487 0.045448
90 1 27.6142 0.50928 0.874321 4 0.00511883 2 0 0.0994487 0.175386
91 1 26.7559 1.02809 1.26347 4 0.0072539 2 0 0.0994487 -0.23689
92 1 28.3748 0.337482 1.39813 4 0.00382344 2 0 0.0994487 0.00984314
93 1 26.7925 0.240345 0.226621 4 0.00564402 2 0 0.0994487 0.038074
94 1 28.6489 1.24263 0.742341 4 0.00459639 2 0 0.0994487 0.102404
95 1 29.3912 0.945639 1.56878 4 0.00318798 2 0 0.0994487 -0.0192017
96 1 28.5228 1.71921 1.49749 4 0.0054736 2 0 0.0994487 -0.0429826
97 1 29.8133 0.173958 1.46124 4 0.00231639 2 0 0.0994487 0.133416
98 1 29.2734 0.3547 0.615275 4 0.00279091 2 0 0.0994487 -0.0816819
99 1 31.5874 0.266128 1.25663 4 0.00126416 3 0 0.0994487 0.830097
100 1 30.7016 0.49015 0.470738 4 0.00190262 2 0 0.0994487 0.354852
101 1 30.1009 1.19877 0.774133 4 0.00283441 2 0 0.0994487 0.210919
102 1 30.8649 0.971942 1.39386 4 0.00213486 2 0 0.0994487 0.703281
103 1 1.11081 2.43607 0.129285 4 2.68087e-07 2 0 0.0994487 -0.0373218
104 1 0.133403 2.3821 0.812241 4 1.6744e-07 2 0 0.0994487 -0.984517
105 1 1.28845 3.23764 0.949187 4 4.93801e-07 2 0 0.0994487 0.222099
106 1 1.13977 2.36077 1.59162 4 3.13263e-07 2 0 0.0994487 -0.222189
107 1 0.386685 3.02999 1.54944 4 2.49465e-07 2 0 0.0994487 -0.671256
108 1 0.332248 3.09582 0.131296 4 2.2177e-07 2 0 0.0994487 -0.59134
109 1 1.90972 2.41867 0.78376 4 5.631e-07 2 0 0.0994487 0.078212
110 1 2.65852 3.28029 0.860875 4 1.59878e-06 2 0 0.0994487 0.0668078
111 1 2.66931 2.22918 1.53373 4 9.82457e-07 2 0 0.0994487 0.0829569
112 1 3.2579 3.42668 1.64938 4 2.74199e-06 2 0 0.0994487 0.00397735
113 1 2.7261 2.38168 0.0557193 4 8.87073e-07 2 0 0.0994487 0.146601
114 1 3.38195 2.55413 0.779289 4 2.07505e-06 2 0 0.0994487 0.211587
115 1 4.00679 1.841 0.711184 4 2.70067e-06 2 0 0.0994487 -0.0361194
116 1 4.91383 2.57277 0.815661 4 7.69275e-06 2 0 0.0994487 -0.259343
117 1 4.20148 3.3175 0.749446 4 5.88945e-06 2 0 0.0994487 0.0062194
118 1 4.13245 2.64107 1.58328 4 4.06267e-06 2 0 0.0994487 0.0270804
119 1 5.65047 2.44269 0.132743 4 1.23549e-05 2 0 0.0994487 -0.189923
120 1 6.55776 2.18062 0.772597 4 2.23955e-05 2 0 0.0994487 -0.28936
121 1 5.64874 3.19593 0.952489 4 1.7342e-05 2 0 0.0994487 -0.754622
122 1 5.861 2.19426 1.49672 4 1.30532e-05 2 0 0.0994487 0.0126389
123 1 6.52037 3.06691 1.5557 4 3.03113e-05 2 0 0.0994487 0.0443609
124 1 6.65033 2.92778 0.134227 4 2.86459e-05 2 0 0.0994487 0.0288894
125 1 7.45405 2.22586 0.139832 4 4.15005e-05 2 0 0.0994487 -0.0534991
126 1 8.08209 2.20208 0.930382 4 6.58211e-05 2 0 0.0994487 -0.302046
127 1 7.40132 3.06835 0.934051 4 5.92096e-05 2 0 0.0994487 -0.0454826
128 1 7.29928 2.06035 1.56856 4 3.50771e-05 2 0 0.0994487 -0.0607296
129 1 8.18545 3.00183 1.65211 4 9.62967e-05 2 0 0.0994487 -0.0454125
130 1 8.26934 2.9712 0.0392146 4 0.00010005 2 0 0.0994487 -0.150614
131 1 8.90393 2.08699 0.252387 4 0.000100832 2 0 0.0994487 0.00243715
132 1 9.77243 2.0246 1.10996 4 0.000174235 2 0 0.0994487 0.173479
133 1 8.92671 2.97262 0.928693 4 0.000160392 2 0 0.0994487 -0.156726
134 1 9.03062 2.22066 1.70398 4 0.000118733 2 0 0.0994487 -0.0819648
135 1 9.56096 2.90576 0.21312 4 0.000212825 2 0 0.0994487 0.173124
136 1 10.2834 2.1137 0.214297 4 0.000213799 2 0 0.0994487 0.337742
137 1 11.1583 1.82604 0.771092 4 0.000378602 2 0 0.0994487 0.260097
138 1 10.6214 2.80819 0.921535 4 0.000426876 2 0 0.0994487 0.541931
139 1 11.4444 2.82964 1.57484 4 0.000723047 2 0 0.0994487 0.0952051
140 1 12.6737 1.94118 0.593851 4 0.00103888 2 0 0.0994487 -0.283927
141 1 11.928 2.64099 0.742299 4 0.000892951 2 0 0.0994487 -0.0386666
142 1 11.9239 1.9206 1.46509 4 0.00063528 2 0 0.0994487 0.0946594
143 1 12.8449 3.01766 1.68597 4 0.00169352 2 0 0.0994487 0.0363605
144 1 13.1791 3.03035 0.848852 4 0.00210729 2 0 0.0994487 -0.440843
145 1 13.3784 1.9912 1.48064 4 0.00143967 2 0 0.0994487 -0.0150664
146 1 14.0206 2.44438 0.927124 4 0.00242889 2 0 0.0994487 -0.133081
147 1 14.0279 3.38359 1.55716 4 0.0036345 2 0 0.0994487 0.0255785
148 1 14.6961 3.43698 0.884932 4 0.00514627 2 0 0.0994487 -0.332929
149 1 14.7823 2.29758 1.44821 4 0.0031304 2 0 0.0994487 0.0469306
150 1 14.8418 2.51505 0.136557 4 0.00346545 2 0 0.0994487 0.173008
151 1 14.1591 3.2262 0.0325348 4 0.00361559 2 0 0.0994487 -0.246103
152 1 13.4137 2.29398 0.0590902 4 0.00171554 2 0 0.0994487 -0.280959
153 1 15.6993 2.44373 0.692668 4 0.00497904 2 0 0.0994487 0.3644
154 1 16.3029 3.20095 0.662084 4 0.00878896 2 0 0.0994487 0.328593
155 1 16.308 2.47951 1.52575 4 0.00671473 2 0 0.0994487 -0.100644
156 1 15.3694 3.25723 1.50191 4 0.006384 2 0 0.0994487 -0.00766554
157 1 15.5706 3.25854 0.0192499 4 0.00610728 2 0 0.0994487 0.29024
158 1 17.0646 2.35032 0.682778 4 0.0082756 2 0 0.0994487 0.0234845
159 1 17.944 2.92608 0.699539 4 0.0147615 2 0 0.0994487 -0.231188
160 1 18.0193 2.43917 1.58112 4 0.0119246 2 0 0.0994487 -0.149133
161 1 17.0918 3.1162 1.49491 4 0.0120446 2 0 0.0994487 -0.143431
162 1 18.8908 2.35742 1.01358 4 0.0141878 2 0 0.0994487 -0.516831
163 1 19.7027 3.2427 1.27782 4 0.0241338 2 0 0.0994487 0.39488
164 1 18.884 2.99607 0.196019 4 0.0187118 2 0 0.0994487 -0.171809
165 1 19.587 2.34239 0.101452 4 0.0157277 2 0 0.0994487 -0.132371
166 1 20.3251 1.78863 1.72442 4 0.013047 2 0 0.0994487 0.0449527
167 1 21.1565 2.41663 0.458355 4 0.0199636 2 0 0.0994487 0.196187
168 1 20.1948 2.46882 1.11433 4 0.0179054 2 0 0.0994487 0.28674
169 1 21.31 3.29463 1.39314 4 0.0328991 2 0 0.0994487 0.0777284
170 1 20.4222 2.99313 0.334941 4 0.0236036 2 0 0.0994487 0.18629
171 1 22.8719 2.07007 1.50872 4 0.0192406 2 0 0.0994487 -0.022125
172 1 22.9717 2.60199 0.735523 4 0.0266084 2 0 0.0994487 0.133323
173 1 22.0961 2.49917 1.23787 4 0.0236295 2 0 0.0994487 0.186436
174 1 21.9898 3.20043 0.598797 4 0.0347024 2 0 0.0994487 -0.0757511
175 1 22.6771 3.40124 0.07601 4 0.0395074 2 0 0.0994487 0.076073
176 1 23.7438 1.80844 0.624025 4 0.016463 2 0 0.0994487 -0.0873613
177 1 24.4289 1.98763 1.61102 4 0.017488 2 0 0.0994487 -0.0641772
178 1 24.342 2.68296 0.775192 4 0.0248946 2 0 0.0994487 -0.341096
179 1 23.6887 2.90303 1.53628 4 0.0294639 2 0 0.0994487 -0.110507
180 1 24.4728 3.51078 1.55704 4 0.0380818 2 0 0.0994487 -0.118307
181 1 24.9562 2.84566 0.0146836 4 0.0237107 2 0 0.0994487 -0.0864603
182 1 26.5483 1.79415 0.511367 4 0.0105189 2 0 0.0994487 -0.0056025
183 1 25.1322 1.85613 0.509414 4 0.0151466 2 0 0.0994487 -0.0215311
184 1 25.7918 2.61203 0.707489 4 0.0195137 2 0 0.0994487 0.228198
185 1 25.1579 2.55548 1.52547 4 0.021242 2 0 0.0994487 0.0576648
186 1 25.7213 3.49812 1.51211 4 0.0312532 2 0 0.0994487 0.123855
187 1 26.5364 2.56002 1.53049 4 0.0154348 2 0 0.0994487 0.0579452
188 1 26.1686 3.50068 0.599043 4 0.0280637 2 0 0.0994487 0.168841
189 1 27.5039 1.98546 1.23792 4 0.00848688 2 0 0.0994487 -0.186423
190 1 28.2489 2.09022 0.343734 4 0.00692623 2 0 0.0994487 -0.017726
191 1 27.0867 2.6924 0.645359 4 0.0137054 2 0 0.0994487 -0.105604
192 1 27.1998 3.35397 1.41682 4 0.0181413 2 0 0.0994487 -0.0983318
193 1 28.2537 2.75799 1.20639 4 0.00921528 2 0 0.0994487 -0.418311
194 1 27.982 3.21993 0.326384 4 0.0122286 2 0 0.0994487 -0.125259
195 1 29.9568 1.80906 1.70764 4 0.00358387 2 0 0.0994487 0.1832
196 1 29.4477 2.04702 0.879698 4 0.00466967 2 0 0.0994487 -0.00708742
197 1 29.1956 2.6589 0.290703 4 0.00621333 2 0 0.0994487 -0.0578295
198 1 29.2495 3.2651 1.17365 4 0.00791978 2 0 0.0994487 0.118629
199 1 30.9114 1.98502 0.924207 4 0.00315222 2 0 0.0994487 0.967251
200 1 30.1815 2.71094 1.00186 4 0.00471706 2 0 0.0994487 0.67511
201 1 31.0247 3.35309 0.97101 4 0.00485888 2 0 0.0994487 0.998409
202 1 30.9865 2.69483 1.72648 4 0.00386837 2 0 0.0994487 0.578501
203 1 30.1092 3.25953 0.132205 4 0.0054684 2 0 0.0994487 -0.0443665
204 1 30.4116 1.90909 0.0255368 4 0.00320697 2 0 0.0994487 0.106044
205 1 31.1434 2.66402 0.0761253 4 0.00354515 2 0 0.0994487 0.70882
206 1 0.293831 3.78503 0.918557 4 3.19191e-07 2 0 0.0994487 -0.999347
207 1 0.143046 4.59443 0.482118 4 3.76752e-07 2 0 0.0994487 -0.784494
208 1 1.14036 4.67093 0.986638 4 7.974e-07 2 0 0.0994487 -0.516748
209 1 0.0884667 5.26681 1.27761 4 4.63919e-07 2 0 0.0994487 -0.887458
210 1 1.04069 3.86421 0.0595682 4 4.71886e-07 2 0 0.0994487 0.0148885
211 1 1.84117 4.04604 0.847105 4 1.13283e-06 2 0 0.0994487 0.00827394
212 1 2.54049 4.85585 1.13748 4 2.75547e-06 2 0 0.0994487 -0.333842
213 1 2.64953 4.14475 0.20674 4 2.30009e-06 2 0 0.0994487 -0.0285708
214 1 1.89758 4.96895 0.278386 4 1.67511e-06 2 0 0.0994487 -0.153432
215 1 3.40771 4.86189 0.161635 4 5.55978e-06 2 0 0.0994487 -0.0163862
216 1 3.494 4.07675 0.885909 4 4.53476e-06 2 0 0.0994487 0.0269009
217 1 4.91235 4.00001 1.18344 4 1.37659e-05 2 0 0.0994487 0.0115244
218 1 4.04658 4.88002 1.14639 4 9.59349e-06 2 0 0.0994487 0.264495
219 1 4.26027 4.18509 0.149001 4 8.50761e-06 2 0 0.0994487 0.0377401
220 1 5.00947 4.74001 0.341082 4 1.93708e-05 2 0 0.0994487 0.0765434
221 1 5.77735 3.9378 0.198707 4 2.31217e-05 2 0 0.0994487 0.0260178
222 1 6.48883 3.76611 0.772067 4 3.95118e-05 2 0 0.0994487 0.204561
223 1 5.68025 4.73638 1.02487 4 3.39436e-05 2 0 0.0994487 -0.62166
224 1 6.66321 4.5115 1.6428 4 5.98516e-05 2 0 0.0994487 0.158937
225 1 6.68072 5.1315 0.885352 4 8.28684e-05 2 0 0.0994487 0.206874
226 1 8.1982 3.892 0.700757 4 0.000152358 2 0 0.0994487 -0.369892
227 1 7.40842 4.46072 0.5468 4 0.000108294 2 0 0.0994487 -0.0252072
228 1 7.39886 3.87029 1.49684 4 8.11508e-05 2 0 0.0994487 0.102582
229 1 8.20004 4.61106 1.48677 4 0.00020122 2 0 0.0994487 -0.011832
230 1 9.8976 3.57792 0.885667 4 0.00039179 2 0 0.0994487 0.592849
231 1 9.07913 4.56551 0.821335 4 0.000357535 2 0 0.0994487 -0.658522
232 1 9.86266 4.50302 0.126324 4 0.000506021 2 0 0.0994487 0.0958688
233 1 9.07829 3.76256 1.49819 4 0.000254636 2 0 0.0994487 -0.0708811
234 1 9.86881 4.3462 1.65532 4 0.000540374 2 0 0.0994487 -0.0856584
235 1 8.98541 3.86821 0.0631775 4 0.000237208 2 0 0.0994487 -0.138751
236 1 11.408 3.64493 0.778297 4 0.00102604 2 0 0.0994487 0.202075
237 1 10.5891 4.66652 0.906264 4 0.000950449 2 0 0.0994487 0.045109
238 1 11.3867 4.69403 0.230734 4 0.00154439 2 0 0.0994487 -0.0498853
239 1 10.7059 3.56689 1.58785 4 0.000651413 2 0 0.0994487 -0.0448444
240 1 11.3652 4.3716 1.70545 4 0.00134549 2 0 0.0994487 -0.0798232
241 1 11.3894 5.27213 0.983682 4 0.00194461 2 0 0.0994487 -0.67446
242 1 10.5826 3.84888 0.176129 4 0.000627401 2 0 0.0994487 0.21047
243 1 12.5168 3.57716 0.814749 4 0.00189199 2 0 0.0994487 -0.0105685
244 1 12.1916 4.55033 1.00021 4 0.00234622 2 0 0.0994487 0.10508
245 1 12.7362 4.99738 1.68903 4 0.00348438 2 0 0.0994487 0.191334
246 1 13.2258 4.67863 0.80017 4 0.00435712 2 0 0.0994487 -0.00468064
247 1 12.6435 4.61885 0.0632315 4 0.00312941 2 0 0.0994487 -0.033577
248 1 13.9891 4.12825 0.69648 4 0.00516756 2 0 0.0994487 -0.43017
249 1 13.4832 4.21781 1.59317 4 0.00393654 2 0 0.0994487 0.0820221
250 1 14.2046 5.11838 1.52001 4 0.00832739 2 0 0.0994487 -0.0289862
251 1 14.9402 5.01141 0.811699 4 0.0112089 2 0 0.0994487 -0.0526275
252 1 14.9642 4.4167 1.59432 4 0.00890041 2 0 0.0994487 -0.0635587
253 1 14.1405 4.90647 0.0597868 4 0.00737379 2 0 0.0994487 -0.0856913
254 1 14.961 4.19423 0.096508 4 0.00769222 2 0 0.0994487 0.0322754
255 1 15.6685 4.06642 0.926277 4 0.0101884 2 0 0.0994487 0.872615
256 1 15.8798 4.77595 0.186426 4 0.0146305 2 0 0.0994487 0.165394
257 1 16.5936 4.58036 0.900182 4 0.0186821 2 0 0.0994487 -0.0789547
258 1 16.3184 3.95875 1.6903 4 0.0128364 2 0 0.0994487 -0.0433943
259 1 15.8111 5.05317 1.64084 4 0.0160172 2 0 0.0994487 0.0995024
260 1 17.2689 3.83372 0.811237 4 0.0177538 2 0 0.0994487 -0.34538
261 1 18.0864 4.48855 1.09806 4 0.029409 2 0 0.0994487 -0.612132
262 1 17.9525 3.63794 1.65602 4 0.0199394 2 0 0.0994487 -0.192804
263 1 17.4569 4.57727 0.0147963 4 0.0238757 2 0 0.0994487 -0.097409
264 1 18.1348 3.8547 0.0583493 4 0.022178 2 0 0.0994487 -0.120517
265 1 18.8779 3.70667 0.95022 4 0.0254723 2 0 0.0994487 0.0692364
266 1 18.8235 4.60949 0.361826 4 0.036109 2 0 0.0994487 0.11561
267 1 19.6906 4.67872 1.0803 4 0.0502738 2 0 0.0994487 0.931514
268 1 18.7859 5.27693 1.20102 4 0.0513277 2 0 0.0994487 0.599084
269 1 19.5987 3.76722 0.227421 4 0.0295421 2 0 0.0994487 0.16427
270 1 20.4384 3.82188 1.23329 4 0.0382074 2 0 0.0994487 0.325953
271 1 20.8846 4.71868 1.39403 4 0.0708929 2 0 0.0994487 0.149059
272 1 21.5775 4.95128 0.810455 4 0.0945192 2 0 0.0994487 -0.00375373
273 1 21.0824 3.93136 0.512408 4 0.0457557 2 0 0.0994487 0.0883028
274 1 20.1339 4.78559 0.352846 4 0.0589871 2 0 0.0994487 0.145588
275 1 22.8205 3.63186 1.42135 4 0.0457186 2 0 0.0994487 -0.0184016
276 1 21.9406 4.13318 1.31068 4 0.0590439 2 0 0.0994487 0.0272026
277 1 22.4705 5.17735 1.27286 4 0.11485 2 0 0.0994487 0.020702
278 1 22.6119 4.34705 0.510028 4 0.068613 2 0 0.0994487 -0.0221084
279 1 23.5735 3.63903 0.782677 4 0.046047 2 0 0.0994487 0.185553
280 1 24.336 4.32055 0.625018 4 0.0632198 2 0 0.0994487 -0.150099
281 1 23.4679 4.54946 1.33355 4 0.0779113 2 0 0.0994487 -0.0790596
282 1 24.8518 5.25716 0.566763 4 0.0927217 2 0 0.0994487 0.0409007
283 1 23.5518 5.06386 0.533607 4 0.102954 2 0 0.0994487 -0.0968933
284 1 25.0086 4.50055 1.62342 4 0.0611768 2 0 0.0994487 -0.0421981
285 1 25.0629 3.68037 0.802132 4 0.0390875 2 0 0.0994487 -0.187924
286 1 24.363 5.28843 1.43377 4 0.104715 2 0 0.0994487 -0.154716
287 1 25.6904 5.1389 1.34266 4 0.0725959 2 0 0.0994487 0.210093
288 1 26.3575 4.29031 1.37159 4 0.0394466 2 0 0.0994487 0.149477
289 1 26.5026 4.97257 0.640732 4 0.0513639 2 0 0.0994487 0.0989616
290 1 25.5284 4.40089 0.388179 4 0.0511919 2 0 0.0994487 0.0559446
291 1 27.3302 4.86961 1.40568 4 0.0367103 2 0 0.0994487 0.0066056
292 1 27.9624 3.97641 1.10408 4 0.0182693 2 0 0.0994487 -0.309512
293 1 28.2771 4.73475 0.706344 4 0.0234842 2 0 0.0994487 -0.0812525
294 1 27.0674 4.04323 0.570038 4 0.0270611 2 0 0.0994487 0.0120184
295 1 28.9321 3.77016 0.487204 4 0.0110554 2 0 0.0994487 -0.0070347
296 1 29.0873 4.52317 1.33085 4 0.0150039 2 0 0.0994487 0.0574828
297 1 29.9979 4.07209 1.02303 4 0.00837222 2 0 0.0994487 -0.275234
298 1 31.0296 3.97382 0.373364 4 0.0059304 2 0 0.0994487 0.657582
299 1 30.2046 4.67765 0.491317 4 0.0102175 2 0 0.0994487 0.00995692
300 1 30.9783 4.59929 1.41131 4 0.00769129 2 0 0.0994487 0.679913
301 1 0.908283 5.53205 0.461647 4 9.32156e-07 2 0 0.0994487 -0.463784
302 1 1.53161 5.51184 1.37971 4 1.45815e-06 2 0 0.0994487 -0.117386
303 1 0.793684 6.22023 1.2768 4 1.08631e-06 2 0 0.0994487 -0.70338
304 1 0.257003 6.91734 1.50738 4 9.18052e-07 2 0 0.0994487 -0.772633
305 1 0.969942 6.9454 0.573423 4 1.57976e-06 2 0 0.0994487 -0.473532
306 1 1.7053 7.02884 1.23811 4 2.70382e-06 2 0 0.0994487 0.0665197
307 1 1.89588 6.19966 0.519025 4 2.55779e-06 2 0 0.0994487 -0.156398
308 1 3.10475 5.61709 1.30057 4 5.63126e-06 2 0 0.0994487 0.0402552
309 1 2.26359 6.15348 1.40977 4 3.1943e-06 2 0 0.0994487 0.0408574
310 1 3.25442 6.96226 1.12748 4 1.08e-05 2 0 0.0994487 -0.0541201
311 1 2.68177 5.61289 0.273587 4 4.00731e-06 2 0 0.0994487 -0.059684
312 1 3.39503 6.28191 0.500536 4 9.89534e-06 2 0 0.0994487 -0.12144
313 1 4.18979 5.46246 0.325783 4 1.36026e-05 2 0 0.0994487 0.0310208
314 1 4.93434 5.42873 1.31778 4 2.65239e-05 2 0 0.0994487 -0.235095
315 1 4.13622 6.09659 1.22779 4 1.75394e-05 2 0 0.0994487 -0.089385
316 1 4.82567 6.23357 0.333842 4 3.07423e-05 2 0 0.0994487 -0.0345722
317 1 4.77312 6.79931 1.15967 4 3.82214e-05 2 0 0.0994487 -0.305925
318 1 4.00267 7.02511 0.221759 4 2.01889e-05 2 0 0.0994487 -0.0853413
319 1 5.78575 5.42185 0.301847 4 4.61239e-05 2 0 0.0994487 0.0125056
320 1 5.6935 6.24342 0.9632 4 6.20533e-05 2 0 0.0994487 -0.967783
321 1 6.4578 5.98425 1.59671 4 9.55403e-05 2 0 0.0994487 0.140918
322 1 6.43234 6.86927 1.00965 4 0.000134861 2 0 0.0994487 0.851687
323 1 6.37773 6.04115 0.154639 4 8.2374e-05 2 0 0.0994487 0.111115
324 1 5.54993 7.05206 0.147147 4 6.63669e-05 2 0 0.0994487 0.0363895
325 1 8.21355 5.31419 0.694273 4 0.00027339 2 0 0.0994487 -0.0895802
326 1 7.32761 6.15925 0.754293 4 0.000196255 2 0 0.0994487 0.225743
327 1 7.39163 5.41839 1.49138 4 0.000153161 2 0 0.0994487 0.136758
328 1 8.23884 6.11028 1.49159 4 0.000378485 2 0 0.0994487 0.0187433
329 1 8.01352 6.85364 0.728993 4 0.000428771 2 0 0.0994487 0.0691969
330 1 7.28191 6.86379 1.59601 4 0.000261214 2 1 0.0994487 0.126052
331 1 7.33029 5.3575 0.0461812 4 0.000128859 2 0 0.0994487 0.0813596
332 1 9.76796 5.3194 0.792562 4 0.000725793 2 0 0.0994487 0.328462
333 1 8.88016 6.18865 0.736908 4 0.000602935 2 0 0.0994487 -0.23553
334 1 9.05434 5.3271 1.5973 4 0.000476477 2 0 0.0994487 -0.0628267
335 1 9.73844 6.19052 1.46731 4 0.00105641 2 0 0.0994487 -0.106431
336 1 9.09351 6.95013 1.463 4 0.000973395 2 2 0.0994487 -0.075792
337 1 9.76329 6.23201 0.0941385 4 0.000998631 2 0 0.0994487 -0.0359477
338 1 8.99733 5.46479 0.012702 4 0.000453256 2 0 0.0994487 -0.134751
339 1 10.5831 6.02196 0.964384 4 0.00160991 2 0 0.0994487 -0.356413
340 1 11.3128 6.37134 0.0776634 4 0.00237843 2 0 0.0994487 0.100344
341 1 10.5187 6.94145 0.15452 4 0.00197192 2 0 0.0994487 -0.0735333
342 1 10.4686 6.92564 1.49614 4 0.0021779 2 1 0.0994487 -0.0634796
343 1 11.9994 5.6274 0.183157 4 0.00287751 2 0 0.0994487 -0.0105277
344 1 12.6757 5.81849 0.861776 4 0.00477294 2 0 0.0994487 0.0817604
345 1 11.7774 6.20735 1.05291 4 0.00327486 2 0 0.0994487 0.292216
346 1 13.3219 5.86668 1.55471 4 0.00670101 2 0 0.0994487 0.208171
347 1 13.3506 6.58297 0.813679 4 0.00947305 2 0 0.0994487 -0.292103
348 1 13.3212 5.53867 0.0424813 4 0.0060993 2 0 0.0994487 -0.142907
349 1 14.0617 5.71565 0.77266 4 0.0097791 2 0 0.0994487 -0.372625
350 1 14.3278 6.65176 1.40646 4 0.0167304 2 1 0.0994487 -0.103132
351 1 14.1303 6.38483 0.0380077 4 0.0118666 2 0 0.0994487 -0.0826077
352 1 15.0282 5.64393 0.034369 4 0.01412 2 0 0.0994487 0.0573671
353 1 15.8305 5.73813 0.95832 4 0.0221865 2 0 0.0994487 0.625799
354 1 15.0472 6.45091 0.806774 4 0.0209413 2 0 0.0994487 -0.176035
355 1 16.491 6.45257 1.1401 4 0.0400461 2 0 0.0994487 0.208331
356 1 15.1058 5.87594 1.69804 4 0.0178609 2 0 0.0994487 -0.0976541
357 1 16.62 5.41933 0.276819 4 0.0255388 2 0 0.0994487 0.0799249
358 1 15.6753 6.3382 0.0390223 4 0.0243503 2 0 0.0994487 0.0398549
359 1 17.8271 5.30128 0.541411 4 0.0369365 2 0 0.0994487 0.150329
360 1 17.113 5.42499 1.24767 4 0.0322551 2 0 0.0994487 -0.286568
361 1 17.0619 6.27419 0.411469 4 0.0436726 2 0 0.0994487 0.138954
362 1 17.6649 6.24649 1.38542 4 0.0559852 2 0 0.0994487 -0.254263
363 1 18.2745 7.0517 1.13153 4 0.0933517 2 1 0.0994487 0.631131
364 1 18.3714 6.23173 0.609762 4 0.0693212 2 0 0.0994487 0.156184
365 1 19.429 5.75829 0.62055 4 0.0799937 2 0 0.0994487 0.0571888
366 1 19.3279 6.55755 1.35081 4 0.112662 2 0 0.0994487 0.2746
367 1 19.9942 6.75229 0.610261 4 0.159394 2 0 0.0994487 -0.0119577
368 1 20.7494 5.77593 0.653722 4 0.124511 2 0 0.0994487 -0.104065
369 1 20.1931 5.61076 1.39557 4 0.0957717 2 0 0.0994487 0.312026
370 1 20.7787 6.6124 1.30355 4 0.200805 2 0 0.0994487 -0.344841
371 1 21.6592 6.66248 0.666524 4 0.219717 2 0 0.0994487 -0.0434889
372 1 21.6631 5.87866 1.38528 4 0.164228 2 0 0.0994487 0.0420509
373 1 21.6904 5.73259 0.0517844 4 0.137766 2 0 0.0994487 -0.0015023
374 1 22.6732 5.8279 0.674154 4 0.159161 2 0 0.0994487 0.00264936
375 1 22.6319 6.69333 1.20734 3 0.250939 2 0 0.0994436 -0.201704
376 1 23.3484 6.78052 0.267835 4 0.226498 2 0 0.0994487 -0.125384
377 1 23.4822 5.88496 1.30013 4 0.164408 2 0 0.0994487 -0.176401
378 1 24.3197 6.56281 1.15825 4 0.188562 2 0 0.0994487 0.173516
379 1 24.1457 6.00685 0.427617 4 0.150898 2 0 0.0994487 0.00243184
380 1 25.6831 5.86213 0.700952 4 0.099337 2 0 0.0994487 0.163889
381 1 25.1124 6.04132 1.67733 4 0.124793 2 0 0.0994487 0.00366332
382 1 25.1593 6.74159 0.495153 4 0.158121 2 0 0.0994487 0.0903833
383 1 25.8251 6.59457 1.40775 4 0.12524 2 0 0.0994487 0.0880922
384 1 26.6903 5.84511 1.4763 4 0.0720464 2 0 0.0994487 0.091756
385 1 27.4966 5.54334 0.722172 4 0.0450809 2 0 0.0994487 -0.25158
386 1 26.7485 6.36567 0.651888 4 0.0847245 2 0 0.0994487 0.0387435
387 1 27.7011 6.47315 1.36539 4 0.0605154 2 0 0.0994487 0.131487
388 1 28.3648 5.52203 1.4872 4 0.031393 2 0 0.0994487 0.0456306
389 1 27.7097 7.0074 0.530173 4 0.070066 2 0 0.0994487 0.0321175
390 1 29.3889 5.30889 0.818726 4 0.0190924 2 0 0.0994487 0.31672
391 1 29.4379 6.18214 1.32212 4 0.0245582 2 0 0.0994487 -0.00338335
392 1 29.5784 6.89773 0.506505 4 0.0287214 2 0 0.0994487 0.0925836
393 1 28.4685 6.20589 0.638647 4 0.0374338 2 0 0.0994487 -0.270088
394 1 29.3762 6.15398 0.0801838 4 0.024505 2 0 0.0994487 0.0969252
395 1 28.4822 5.38976 0.0592959 4 0.0267855 2 0 0.0994487 -0.105004
396 1 30.9636 5.36838 0.595026 4 0.0110992 2 0 0.0994487 0.667849
397 1 30.2159 5.45949 1.46813 4 0.0139437 2 0 0.0994487 0.0540202
398 1 30.3958 6.18258 0.649752 4 0.0172015 2 0 0.0994487 0.328998
399 1 31.2189 6.15516 1.38439 4 0.0130346 2 0 0.0994487 0.587257
400 1 31.1994 6.95407 0.60342 4 0.0166744 2 0 0.0994487 0.812251
401 1 31.7235 5.99622 0.446564 4 0.0110712 2 0 0.0994487 0.879729
402 1 0.261851 7.63199 0.661866 4 1.1994e-06 2 0 0.0994487 -0.876373
403 1 0.831025 8.46344 0.61936 4 2.03337e-06 2 0 0.0994487 -0.577625
404 1 1.11211 7.86396 1.49711 4 2.05308e-06 2 0 0.0994487 -0.154428
405 1 0.356955 8.5626 1.47035 4 1.48555e-06 2 0 0.0994487 -0.764984
406 1 1.59266 7.76478 0.37187 4 3.0921e-06 2 0 0.0994487 -0.0897868
407 1 1.72382 8.61735 1.46471 4 4.03993e-06 2 0 0.0994487 0.0395983
408 1 2.48799 7.14986 0.476331 4 5.91177e-06 2 0 0.0994487 -0.0836935
409 1 2.19177 8.6335 0.399707 4 6.36606e-06 2 0 0.0994487 -0.137266
410 1 2.39416 7.81099 1.27726 4 6.21949e-06 2 0 0.0994487 0.0869945
411 1 3.01349 8.51445 0.935533 4 1.28277e-05 2 0 0.0994487 -0.539304
412 1 3.24418 7.77117 0.327041 4 1.32177e-05 2 0 0.0994487 -0.196202
413 1 3.81243 8.45898 0.0822892 4 2.2547e-05 2 0 0.0994487 -0.0457764
414 1 3.97971 7.67009 1.24863 4 2.39247e-05 2 0 0.0994487 -0.0554855
415 1 4.70459 8.25653 0.921772 4 4.91979e-05 2 0 0.0994487 0.29536
416 1 4.67023 7.63706 0.247803 4 3.95875e-05 2 0 0.0994487 0.0376955
417 1 3.81127 8.34851 1.76162 4 2.2486e-05 2 0 0.0994487 -0.0574342
418 1 5.86955 8.34822 0.169905 4 0.000116534 2 0 0.0994487 0.113109
419 1 5.48363 7.59071 1.03232 4 8.2838e-05 2 0 0.0994487 -0.467648
420 1 6.49365 7.53799 0.169175 4 0.000157774 2 0 0.0994487 0.187628
421 1 6.39674 8.23976 1.04384 4 0.00020363 2 0 0.0994487 0.338174
422 1 7.28583 7.76918 0.746313 4 0.000357004 2 1 0.0994487 0.00994841
423 1 8.2859 8.31376 0.868772 4 0.000864279 2 2 0.0994487 0.278766
424 1 7.27857 8.18368 1.7015 4 0.000459913 2 2 0.0994487 -0.174681
425 1 8.05208 7.48784 1.5604 4 0.000587838 2 1 0.0994487 0.185098
426 1 7.99895 7.60312 0.0282118 4 0.000476884 2 0 0.0994487 0.0674163
427 1 9.84313 7.22199 0.72344 4 0.00164366 2 1 0.0994487 -0.346915
428 1 8.91207 7.61626 0.661731 4 0.00102176 2 1 0.0994487 0.158698
429 1 9.73234 8.61964 0.693151 4 0.00236429 2 3 0.0994487 -0.257218
430 1 9.09265 8.69904 1.44495 4 0.0018412 2 9 0.0994487 -0.394568
431 1 9.64026 7.88932 1.60055 4 0.00210869 2 8 0.0994487 -0.340315
432 1 11.3161 7.14287 0.810636 4 0.00350274 2 1 0.0994487 0.448556
433 1 10.5731 7.9454 0.844311 4 0.00313098 2 3 0.0994487 -0.198369
434 1 10.5877 8.70196 1.4255 4 0.0041105 1 8 0.0994487 -0.146453
435 1 11.4057 7.80503 1.60301 4 0.00515371 2 7 0.0994487 0.228349
436 1 11.227 8.11851 0.0422735 4 0.00393383 2 0 0.0994487 0.174335
437 1 12.7061 7.28322 0.565784 4 0.00855741 2 0 0.0994487 -0.053135
438 1 12.178 8.23518 0.590765 4 0.00805892 2 2 0.0994487 0.163951
439 1 12.0637 7.15788 1.37768 4 0.00576774 2 3 0.0994487 0.145682
440 1 12.0887 8.68064 1.49044 4 0.00966706 1 8 0.0994487 0.0820642
441 1 12.8601 7.99585 1.47598 4 0.0128881 2 6 0.0994487 -0.216955
442 1 14.3373 7.3542 0.580954 4 0.019935 2 0 0.0994487 0.0649024
443 1 13.6169 8.09282 0.464536 4 0.0170033 2 2 0.0994487 0.0237602
444 1 13.458 7.34024 1.34133 4 0.013861 2 2 0.0994487 0.0544449