ITEM: TIMESTEP
11000
ITEM: NUMBER OF ATOMS
9495
ITEM: BOX BOUNDS mm mm mm
0.0000000000000000e+00 3.1748021039364001e+01
0.0000000000000000e+00 3.1748021039364001e+01
-7.4072398406925706e-04 3.1748021039364001e+01
ITEM: ATOMS id type x y z c_phase c_temp c_surf c_nbond c_visc f_3[1]
1 1 0.116341 1.10259 0.464337 4 2.32059e-13 2 0 0.0994487 -0.68194
2 1 0.974108 1.6685 0.77798 4 1.17043e-12 2 0 0.0994487 -0.517032
3 1 0.714648 0.793562 1.41295 4 4.343e-13 2 0 0.0994487 -0.281794
4 1 0.00336375 1.60273 1.37437 4 3.03394e-13 2 0 0.0994487 -0.804051
5 1 0.729896 0.0633724 0.61602 4 2.19756e-13 3 0 0.0994487 -0.190374
6 1 1.71015 0.808983 1.0155 4 1.99517e-12 2 0 0.0994487 -0.33207
7 1 1.80059 1.47468 0.221075 4 2.68399e-12 2 0 0.0994487 -0.125829
8 1 1.82015 1.66049 1.76126 4 3.45103e-12 2 0 0.0994487 -0.139533
9 1 2.52093 0.749102 0.203812 4 4.6487e-12 2 0 0.0994487 -0.14294
10 1 2.59149 0.0538711 1.03726 4 3.82976e-12 2 0 0.0994487 -0.295005
11 1 2.64922 1.541 0.882848 4 1.13034e-11 2 0 0.0994487 0.235753
12 1 2.66829 0.815502 1.7457 4 6.54133e-12 2 0 0.0994487 -0.187041
13 1 3.43386 0.933692 0.956349 4 2.37953e-11 2 0 0.0994487 0.320239
14 1 3.49924 0.0925696 1.70571 4 1.12047e-11 2 0 0.0994487 0.178053
15 1 3.60652 1.70798 1.71994 4 4.38888e-11 2 0 0.0994487 0.0487944
16 1 4.10576 0.858321 0.325305 4 5.36781e-11 2 0 0.0994487 0.153145
17 1 4.96159 0.56786 1.17466 4 1.65233e-10 2 0 0.0994487 -0.0370681
18 1 4.91949 1.59987 0.383508 4 2.88812e-10 2 0 0.0994487 -0.100249
19 1 4.3472 0.941527 1.62884 4 7.8129e-11 2 0 0.0994487 0.110737
20 1 3.47612 0.111428 0.171027 4 9.86565e-12 2 0 0.0994487 0.166215
21 1 5.64741 0.645627 0.325839 4 4.07265e-10 2 0 0.0994487 -0.0806054
22 1 5.88414 1.31048 0.938036 4 8.99633e-10 2 0 0.0994487 -0.19959
23 1 6.57478 1.39104 0.218369 4 2.14313e-09 2 0 0.0994487 -0.0861342
24 1 5.78374 0.460658 1.69897 4 3.93601e-10 2 0 0.0994487 -0.0846531
25 1 5.03122 1.72414 1.43602 4 3.50263e-10 2 0 0.0994487 0.045371
26 1 6.7138 0.39031 0.865278 4 1.43049e-09 2 0 0.0994487 -0.0793825
27 1 6.69104 1.00962 1.69374 4 1.77428e-09 2 0 0.0994487 -0.107924
28 1 8.2679 0.408875 1.07337 4 8.77619e-09 2 0 0.0994487 -0.100167
29 1 7.36782 1.22285 0.954198 4 5.40147e-09 2 0 0.0994487 -0.302555
30 1 8.24709 1.39092 0.236779 4 1.55452e-08 2 0 0.0994487 -0.0460648
31 1 8.12868 1.27217 1.60653 4 1.24026e-08 2 0 0.0994487 -0.00811752
32 1 7.58247 0.647807 0.140287 4 4.29576e-09 2 0 0.0994487 -0.110936
33 1 8.85849 0.508506 0.273966 4 1.65058e-08 2 0 0.0994487 -0.0616467
34 1 9.55301 0.3386 0.888639 4 3.41973e-08 2 0 0.0994487 0.00506345
35 1 9.02586 1.30716 1.1133 4 3.83033e-08 2 0 0.0994487 -0.060647
37 1 9.63995 1.37474 0.0900752 4 6.06811e-08 2 0 0.0994487 0.099291
38 1 11.2128 0.215893 0.632658 4 1.83338e-07 2 0 0.0994487 0.203503
39 1 10.3637 1.04743 0.823114 4 1.3144e-07 2 0 0.0994487 0.539885
40 1 10.523 0.196295 1.44539 4 8.55657e-08 2 0 0.0994487 0.0644284
41 1 11.2856 1.01846 1.41785 4 3.67952e-07 2 0 0.0994487 0.164707
42 1 10.5797 1.67706 1.72992 4 2.58975e-07 2 0 0.0994487 0.118164
43 1 10.2431 0.367861 0.0780499 4 5.20043e-08 2 0 0.0994487 0.149801
44 1 12.8757 0.211714 0.636805 4 1.03166e-06 2 0 0.0994487 0.0587877
45 1 12.0457 1.07408 0.506655 4 8.77338e-07 2 0 0.0994487 -0.0235512
46 1 12.1319 0.316439 1.29957 4 5.5215e-07 2 0 0.0994487 0.0188364
47 1 12.7194 1.19864 1.3723 4 1.87838e-06 2 0 0.0994487 -0.0305274
48 1 14.3729 0.318493 0.764646 4 4.38851e-06 2 0 0.0994487 -0.0460381
49 1 13.5924 1.113 0.843618 4 4.18866e-06 2 0 0.0994487 -0.263052
50 1 14.0399 1.55958 0.167469 4 7.94409e-06 2 0 0.0994487 -0.0898248
51 1 13.6075 0.359834 1.6352 4 2.1165e-06 2 0 0.0994487 -0.0562633
52 1 14.3777 1.14948 1.47647 4 7.4552e-06 2 0 0.0994487 -0.0178271
53 1 14.8761 1.55337 0.662943 4 1.57909e-05 2 0 0.0994487 0.389949
54 1 15.7061 0.770636 0.788259 4 1.72553e-05 2 0 0.0994487 0.366484
55 1 16.5532 1.54451 0.681338 4 6.32977e-05 2 0 0.0994487 0.000806207
56 1 15.1422 0.4642 1.64149 4 7.95612e-06 2 0 0.0994487 0.152078
57 1 16.547 0.712289 1.3421 4 3.38874e-05 2 0 0.0994487 0.0956269
58 1 15.6341 1.48544 1.3916 4 2.87953e-05 2 0 0.0994487 0.153632
59 1 15.1049 0.711806 0.0677822 4 7.75238e-06 2 0 0.0994487 0.169203
60 1 17.2544 0.732268 0.547589 4 5.21339e-05 2 0 0.0994487 0.0286301
61 1 17.9231 1.58109 0.757246 4 0.000159124 2 0 0.0994487 0.0415636
62 1 17.916 0.742935 1.42801 4 8.45648e-05 2 0 0.0994487 -0.224377
63 1 17.2202 1.74884 1.56274 4 0.000122922 2 0 0.0994487 -0.0984831
64 1 19.5372 0.0167772 0.662766 4 9.24534e-05 2 0 0.0994487 0.0436436
65 1 18.7918 0.725074 0.684829 4 0.000120794 2 0 0.0994487 -0.269945
66 1 19.5395 1.55488 0.841653 4 0.000332989 2 0 0.0994487 -0.341162
67 1 19.0276 0.158607 1.54508 4 8.76635e-05 2 0 0.0994487 -0.158664
68 1 19.5934 0.967491 1.68957 4 0.000196574 2 0 0.0994487 0.0083505
69 1 18.6564 1.51302 1.50035 4 0.000220602 2 0 0.0994487 -0.250308
70 1 21.0889 0.349843 1.06749 4 0.000196735 2 0 0.0994487 -0.196128
71 1 20.2493 0.776373 0.980057 4 0.000221078 2 0 0.0994487 -0.0497627
72 1 21.1062 1.65725 0.951506 4 0.000552066 2 0 0.0994487 0.69291
73 1 21.1874 0.765598 0.218806 4 0.000243044 2 0 0.0994487 -0.0445917
74 1 20.3457 1.51479 0.193617 4 0.000387737 2 0 0.0994487 -0.080603
75 1 22.0087 0.262534 0.539755 4 0.000198843 2 0 0.0994487 0.0993581
76 1 22.7913 0.430275 1.40734 4 0.000239853 2 0 0.0994487 0.206597
77 1 22.1105 1.14763 1.32981 4 0.000395264 2 0 0.0994487 0.24002
78 1 21.9982 1.59955 0.538558 4 0.000602771 2 0 0.0994487 0.18517
79 1 22.9157 1.07463 0.445168 4 0.00038372 2 0 0.0994487 0.0520821
80 1 24.228 0.380179 1.45209 4 0.000230961 2 0 0.0994487 0.0576146
81 1 23.5672 0.357563 0.57369 4 0.000232824 2 0 0.0994487 0.0385687
82 1 24.4367 1.18687 0.754729 4 0.000435821 2 0 0.0994487 -0.0193023
83 1 23.4757 1.2499 1.4028 4 0.000488112 2 0 0.0994487 0.0298735
84 1 24.955 0.315686 0.551996 4 0.000193979 2 0 0.0994487 -0.0172015
85 1 26.0085 0.383365 1.1715 4 0.00015363 2 0 0.0994487 -0.185863
86 1 25.169 1.12579 1.48087 4 0.000365653 2 0 0.0994487 0.0251016
87 1 25.9301 1.73476 1.35794 4 0.000495613 2 0 0.0994487 0.0345308
88 1 25.8917 0.929212 0.432102 4 0.000231699 2 0 0.0994487 -0.0954232
89 1 27.5736 1.28032 0.38906 4 0.000137548 2 0 0.0994487 0.0454468
90 1 27.6142 0.50928 0.874321 4 8.19661e-05 2 0 0.0994487 0.175385
91 1 26.7559 1.02809 1.26347 4 0.000176486 2 0 0.0994487 -0.236893
92 1 28.3748 0.337482 1.39813 4 4.58329e-05 2 0 0.0994487 0.00984205
93 1 26.7925 0.240345 0.226621 4 8.86418e-05 2 0 0.0994487 0.0380733
94 1 28.6489 1.24263 0.742341 4 7.62012e-05 2 0 0.0994487 0.102402
95 1 29.3912 0.945639 1.56878 4 3.48903e-05 2 0 0.0994487 -0.0192025
96 1 28.5228 1.71921 1.49749 4 0.000111672 2 0 0.0994487 -0.0429841
97 1 29.8133 0.173958 1.46124 4 1.58701e-05 2 0 0.0994487 0.133415
98 1 29.2734 0.3547 0.615275 4 2.47403e-05 2 0 0.0994487 -0.0816825
99 1 31.5874 0.266128 1.25663 4 4.24127e-06 3 0 0.0994487 0.830097
100 1 30.7016 0.49015 0.470738 4 1.03887e-05 2 0 0.0994487 0.354851
101 1 30.1009 1.19877 0.774133 4 2.6999e-05 2 0 0.0994487 0.210918
102 1 30.8649 0.971942 1.39386 4 1.38795e-05 2 0 0.0994487 0.703281
103 1 1.11081 2.43607 0.129285 4 1.70741e-12 2 0 0.0994487 -0.0373224
104 1 0.133403 2.3821 0.812241 4 6.34278e-13 2 0 0.0994487 -0.984517
105 1 1.28845 3.23764 0.949187 4 5.13686e-12 2 0 0.0994487 0.222089
106 1 1.13977 2.36077 1.59162 4 2.26873e-12 2 0 0.0994487 -0.222189
107 1 0.386685 3.02999 1.54944 4 1.2901e-12 2 0 0.0994487 -0.671256
108 1 0.332248 3.09582 0.131296 4 1.01037e-12 2 0 0.0994487 -0.59134
109 1 1.90972 2.41867 0.78376 4 6.9103e-12 2 0 0.0994487 0.0782077
110 1 2.65852 3.28029 0.860875 4 3.85914e-11 2 0 0.0994487 0.0668026
111 1 2.66931 2.22918 1.53373 4 1.77825e-11 2 0 0.0994487 0.0829544
112 1 3.2579 3.42668 1.64938 4 9.1991e-11 2 0 0.0994487 0.00397431
113 1 2.7261 2.38168 0.0557193 4 1.46623e-11 2 0 0.0994487 0.1466
114 1 3.38195 2.55413 0.779289 4 6.3472e-11 2 0 0.0994487 0.211582
115 1 4.00679 1.841 0.711184 4 9.86729e-11 2 0 0.0994487 -0.0361248
116 1 4.91383 2.57277 0.815661 4 5.71094e-10 2 0 0.0994487 -0.259352
117 1 4.20148 3.3175 0.749446 4 3.44099e-10 2 0 0.0994487 0.00621455
118 1 4.13245 2.64107 1.58328 4 1.87651e-10 2 0 0.0994487 0.0270768
119 1 5.65047 2.44269 0.132743 4 1.231e-09 2 0 0.0994487 -0.189926
120 1 6.55776 2.18062 0.772597 4 3.78835e-09 2 0 0.0994487 -0.289389
121 1 5.64874 3.19593 0.952489 4 2.27112e-09 2 0 0.0994487 -0.754637
122 1 5.861 2.19426 1.49672 4 1.43948e-09 2 0 0.0994487 0.0126349
123 1 6.52037 3.06691 1.5557 4 6.08274e-09 2 0 0.0994487 0.044357
124 1 6.65033 2.92778 0.134227 4 5.58651e-09 2 0 0.0994487 0.0288864
125 1 7.45405 2.22586 0.139832 4 1.09145e-08 2 0 0.0994487 -0.053503
126 1 8.08209 2.20208 0.930382 4 2.56364e-08 2 0 0.0994487 -0.302078
127 1 7.40132 3.06835 0.934051 4 2.05104e-08 2 0 0.0994487 -0.0455294
128 1 7.29928 2.06035 1.56856 4 8.23492e-09 2 0 0.0994487 -0.0607333
129 1 8.18545 3.00183 1.65211 4 4.66744e-08 2 0 0.0994487 -0.0454162
130 1 8.26934 2.9712 0.0392146 4 4.86312e-08 2 0 0.0994487 -0.150617
131 1 8.90393 2.08699 0.252387 4 5.34368e-08 2 0 0.0994487 0.00243273
132 1 9.77243 2.0246 1.10996 4 1.50878e-07 2 0 0.0994487 0.173463
133 1 8.92671 2.97262 0.928693 4 1.21017e-07 2 0 0.0994487 -0.156762
134 1 9.03062 2.22066 1.70398 4 7.17555e-08 2 0 0.0994487 -0.0819682
135 1 9.56096 2.90576 0.21312 4 1.99481e-07 2 0 0.0994487 0.17312
136 1 10.2834 2.1137 0.214297 4 2.14465e-07 2 0 0.0994487 0.337739
137 1 11.1583 1.82604 0.771092 4 5.96632e-07 2 0 0.0994487 0.260088
138 1 10.6214 2.80819 0.921535 4 7.19928e-07 2 0 0.0994487 0.541917
139 1 11.4444 2.82964 1.57484 4 1.76488e-06 2 0 0.0994487 0.0951993
140 1 12.6737 1.94118 0.593851 4 3.43393e-06 2 0 0.0994487 -0.283934
141 1 11.928 2.64099 0.742299 4 2.63363e-06 2 0 0.0994487 -0.0386741
142 1 11.9239 1.9206 1.46509 4 1.4434e-06 2 0 0.0994487 0.0946533
143 1 12.8449 3.01766 1.68597 4 8.08374e-06 2 0 0.0994487 0.0363566
144 1 13.1791 3.03035 0.848852 4 1.25461e-05 2 0 0.0994487 -0.440856
145 1 13.3784 1.9912 1.48064 4 6.29817e-06 2 0 0.0994487 -0.0150702
146 1 14.0206 2.44438 0.927124 4 1.70105e-05 2 0 0.0994487 -0.1331
147 1 14.0279 3.38359 1.55716 4 3.34485e-05 2 0 0.0994487 0.0255748
148 1 14.6961 3.43698 0.884932 4 6.54442e-05 2 0 0.0994487 -0.332957
149 1 14.7823 2.29758 1.44821 4 2.78045e-05 2 0 0.0994487 0.0469275
150 1 14.8418 2.51505 0.136557 4 3.20303e-05 2 0 0.0994487 0.173005
151 1 14.1591 3.2262 0.0325348 4 3.22262e-05 2 0 0.0994487 -0.246105
152 1 13.4137 2.29398 0.0590902 4 8.24286e-06 2 0 0.0994487 -0.280962
153 1 15.6993 2.44373 0.692668 4 6.67797e-05 2 0 0.0994487 0.364394
154 1 16.3029 3.20095 0.662084 4 0.000191549 2 0 0.0994487 0.328589
155 1 16.308 2.47951 1.52575 4 0.000116754 2 0 0.0994487 -0.100646
156 1 15.3694 3.25723 1.50191 4 9.97257e-05 2 0 0.0994487 -0.00766856
157 1 15.5706 3.25854 0.0192499 4 8.92296e-05 2 0 0.0994487 0.290238
158 1 17.0646 2.35032 0.682778 4 0.00017761 2 0 0.0994487 0.0234818
159 1 17.944 2.92608 0.699539 4 0.000521459 2 0 0.0994487 -0.23119
160 1 18.0193 2.43917 1.58112 4 0.000355786 2 0 0.0994487 -0.149134
161 1 17.0918 3.1162 1.49491 4 0.000346954 2 0 0.0994487 -0.143434
162 1 18.8908 2.35742 1.01358 4 0.000518205 2 0 0.0994487 -0.516831
163 1 19.7027 3.2427 1.27782 4 0.00148593 2 0 0.0994487 0.39488
164 1 18.884 2.99607 0.196019 4 0.000830221 2 0 0.0994487 -0.171809
165 1 19.587 2.34239 0.101452 4 0.000626302 2 0 0.0994487 -0.132371
166 1 20.3251 1.78863 1.72442 4 0.000465139 2 0 0.0994487 0.0449523
167 1 21.1565 2.41663 0.458355 4 0.00113298 2 0 0.0994487 0.196187
168 1 20.1948 2.46882 1.11433 4 0.000892463 2 0 0.0994487 0.286739
169 1 21.31 3.29463 1.39314 4 0.00281254 2 0 0.0994487 0.0777282
170 1 20.4222 2.99313 0.334941 4 0.00148349 2 0 0.0994487 0.18629
171 1 22.8719 2.07007 1.50872 4 0.00107629 2 0 0.0994487 -0.0221261
172 1 22.9717 2.60199 0.735523 4 0.00195694 2 0 0.0994487 0.133322
173 1 22.0961 2.49917 1.23787 4 0.00158123 2 0 0.0994487 0.186434
174 1 21.9898 3.20043 0.598797 4 0.0030696 2 0 0.0994487 -0.0757519
175 1 22.6771 3.40124 0.07601 4 0.00367749 2 0 0.0994487 0.0760726
176 1 23.7438 1.80844 0.624025 4 0.000805229 2 0 0.0994487 -0.0873629
177 1 24.4289 1.98763 1.61102 4 0.000907789 2 0 0.0994487 -0.0641783
178 1 24.342 2.68296 0.775192 4 0.00178888 2 0 0.0994487 -0.341098
179 1 23.6887 2.90303 1.53628 4 0.00236381 2 0 0.0994487 -0.110508
180 1 24.4728 3.51078 1.55704 4 0.00374611 2 0 0.0994487 -0.118308
181 1 24.9562 2.84566 0.0146836 4 0.00156788 2 0 0.0994487 -0.0864609
182 1 26.5483 1.79415 0.511367 4 0.000380613 2 0 0.0994487 -0.00560419
183 1 25.1322 1.85613 0.509414 4 0.000701672 2 0 0.0994487 -0.0215326
184 1 25.7918 2.61203 0.707489 4 0.00117773 2 0 0.0994487 0.228195
185 1 25.1579 2.55548 1.52547 4 0.00134394 2 0 0.0994487 0.0576634
186 1 25.7213 3.49812 1.51211 4 0.00266835 2 0 0.0994487 0.123853
187 1 26.5364 2.56002 1.53049 4 0.000783938 2 0 0.0994487 0.0579437
188 1 26.1686 3.50068 0.599043 4 0.00222075 2 0 0.0994487 0.168839
189 1 27.5039 1.98546 1.23792 4 0.000269334 2 0 0.0994487 -0.186426
190 1 28.2489 2.09022 0.343734 4 0.000178299 2 0 0.0994487 -0.017727
191 1 27.0867 2.6924 0.645359 4 0.000651563 2 0 0.0994487 -0.105607
192 1 27.1998 3.35397 1.41682 4 0.00106558 2 0 0.0994487 -0.0983338
193 1 28.2537 2.75799 1.20639 4 0.000319602 2 0 0.0994487 -0.418314
194 1 27.982 3.21993 0.326384 4 0.000523807 2 0 0.0994487 -0.12526
195 1 29.9568 1.80906 1.70764 4 4.47343e-05 2 0 0.0994487 0.1832
196 1 29.4477 2.04702 0.879698 4 8.17592e-05 2 0 0.0994487 -0.00709056
197 1 29.1956 2.6589 0.290703 4 0.000143189 2 0 0.0994487 -0.0578304
198 1 29.2495 3.2651 1.17365 4 0.000230402 2 0 0.0994487 0.118626
199 1 30.9114 1.98502 0.924207 4 3.02245e-05 2 0 0.0994487 0.967251
200 1 30.1815 2.71094 1.00186 4 7.70239e-05 2 0 0.0994487 0.675106
201 1 31.0247 3.35309 0.97101 4 6.84768e-05 2 0 0.0994487 0.998409
202 1 30.9865 2.69483 1.72648 4 4.25636e-05 2 0 0.0994487 0.578501
203 1 30.1092 3.25953 0.132205 4 9.97697e-05 2 0 0.0994487 -0.0443669
204 1 30.4116 1.90909 0.0255368 4 3.2442e-05 2 0 0.0994487 0.106044
205 1 31.1434 2.66402 0.0761253 4 3.51664e-05 2 0 0.0994487 0.70882
206 1 0.293831 3.78503 0.918557 4 1.89399e-12 2 0 0.0994487 -0.999347
207 1 0.143046 4.59443 0.482118 4 2.28359e-12 2 0 0.0994487 -0.784494
208 1 1.14036 4.67093 0.986638 4 1.01386e-11 2 0 0.0994487 -0.516754
209 1 0.0884667 5.26681 1.27761 4 2.99865e-12 2 0 0.0994487 -0.887458
210 1 1.04069 3.86421 0.0595682 4 4.33496e-12 2 0 0.0994487 0.0148877
211 1 1.84117 4.04604 0.847105 4 2.00115e-11 2 0 0.0994487 0.00826641
212 1 2.54049 4.85585 1.13748 4 8.63258e-11 2 0 0.0994487 -0.333848
213 1 2.64953 4.14475 0.20674 4 6.29865e-11 2 0 0.0994487 -0.0285726
214 1 1.89758 4.96895 0.278386 4 3.48396e-11 2 0 0.0994487 -0.153434
215 1 3.40771 4.86189 0.161635 4 2.73354e-10 2 0 0.0994487 -0.0163886
216 1 3.494 4.07675 0.885909 4 2.12294e-10 2 0 0.0994487 0.0268909
217 1 4.91235 4.00001 1.18344 4 1.44263e-09 2 0 0.0994487 0.0115069
218 1 4.04658 4.88002 1.14639 4 7.45843e-10 2 0 0.0994487 0.264488
219 1 4.26027 4.18509 0.149001 4 5.75804e-10 2 0 0.0994487 0.0377377
220 1 5.00947 4.74001 0.341082 4 2.34829e-09 2 0 0.0994487 0.0765391
221 1 5.77735 3.9378 0.198707 4 3.41592e-09 2 0 0.0994487 0.0260152
222 1 6.48883 3.76611 0.772067 4 9.55501e-09 2 0 0.0994487 0.204552
223 1 5.68025 4.73638 1.02487 4 6.42177e-09 2 0 0.0994487 -0.621694
224 1 6.66321 4.5115 1.6428 4 1.77561e-08 2 0 0.0994487 0.158933
225 1 6.68072 5.1315 0.885352 4 2.99746e-08 2 0 0.0994487 0.206853
226 1 8.1982 3.892 0.700757 4 9.79494e-08 2 0 0.0994487 -0.369902
227 1 7.40842 4.46072 0.5468 4 4.98424e-08 2 0 0.0994487 -0.0252132
228 1 7.39886 3.87029 1.49684 4 3.25019e-08 2 0 0.0994487 0.102576
229 1 8.20004 4.61106 1.48677 4 1.47984e-07 2 0 0.0994487 -0.011838
230 1 9.8976 3.57792 0.885667 4 5.7223e-07 2 0 0.0994487 0.592783
231 1 9.07913 4.56551 0.821335 4 4.21249e-07 2 0 0.0994487 -0.658543
232 1 9.86266 4.50302 0.126324 4 7.97208e-07 2 0 0.0994487 0.0958651
233 1 9.07829 3.76256 1.49819 4 2.49278e-07 2 0 0.0994487 -0.0708861
234 1 9.86881 4.3462 1.65532 4 9.03309e-07 2 0 0.0994487 -0.0856629
235 1 8.98541 3.86821 0.0631775 4 2.08296e-07 2 0 0.0994487 -0.138754
236 1 11.408 3.64493 0.778297 4 3.20619e-06 2 0 0.0994487 0.202066
237 1 10.5891 4.66652 0.906264 4 2.5686e-06 2 0 0.0994487 0.045075
238 1 11.3867 4.69403 0.230734 4 5.9541e-06 2 0 0.0994487 -0.0498903
239 1 10.7059 3.56689 1.58785 4 1.38989e-06 2 0 0.0994487 -0.0448499
240 1 11.3652 4.3716 1.70545 4 4.74987e-06 2 0 0.0994487 -0.0798283
241 1 11.3894 5.27213 0.983682 4 8.89536e-06 2 0 0.0994487 -0.67448
242 1 10.5826 3.84888 0.176129 4 1.27218e-06 2 0 0.0994487 0.210466
243 1 12.5168 3.57716 0.814749 4 9.79118e-06 2 0 0.0994487 -0.0105774
244 1 12.1916 4.55033 1.00021 4 1.35099e-05 2 0 0.0994487 0.105046
245 1 12.7362 4.99738 1.68903 4 2.69064e-05 2 0 0.0994487 0.191329
246 1 13.2258 4.67863 0.80017 4 4.19865e-05 2 0 0.0994487 -0.00470058
247 1 12.6435 4.61885 0.0632315 4 2.13111e-05 2 0 0.0994487 -0.0335807
248 1 13.9891 4.12825 0.69648 4 6.00493e-05 2 0 0.0994487 -0.430179
249 1 13.4832 4.21781 1.59317 4 3.60963e-05 2 0 0.0994487 0.0820173
250 1 14.2046 5.11838 1.52001 4 0.000135568 2 0 0.0994487 -0.0289917
251 1 14.9402 5.01141 0.811699 4 0.000240505 2 0 0.0994487 -0.0527254
252 1 14.9642 4.4167 1.59432 4 0.000161958 2 0 0.0994487 -0.0635621
253 1 14.1405 4.90647 0.0597868 4 0.000104052 2 0 0.0994487 -0.0856948
254 1 14.961 4.19423 0.096508 4 0.000125082 2 0 0.0994487 0.0322727
255 1 15.6685 4.06642 0.926277 4 0.000228227 2 0 0.0994487 0.87259
256 1 15.8798 4.77595 0.186426 4 0.000406787 2 0 0.0994487 0.16539
257 1 16.5936 4.58036 0.900182 4 0.000689166 2 0 0.0994487 -0.078972
258 1 16.3184 3.95875 1.6903 4 0.000353476 2 0 0.0994487 -0.0433965
259 1 15.8111 5.05317 1.64084 4 0.000467475 2 0 0.0994487 0.0995
260 1 17.2689 3.83372 0.811237 4 0.00067984 2 0 0.0994487 -0.345383
261 1 18.0864 4.48855 1.09806 4 0.00176251 2 0 0.0994487 -0.612143
262 1 17.9525 3.63794 1.65602 4 0.000884579 2 0 0.0994487 -0.192805
263 1 17.4569 4.57727 0.0147963 4 0.00105831 2 0 0.0994487 -0.0974092
264 1 18.1348 3.8547 0.0583493 4 0.00102375 2 0 0.0994487 -0.120517
265 1 18.8779 3.70667 0.95022 4 0.00151222 2 0 0.0994487 0.0692351
266 1 18.8235 4.60949 0.361826 4 0.00271174 2 0 0.0994487 0.115611
267 1 19.6906 4.67872 1.0803 4 0.00518789 2 0 0.0994487 0.931522
268 1 18.7859 5.27693 1.20102 4 0.0047939 2 0 0.0994487 0.59912
269 1 19.5987 3.76722 0.227421 4 0.00206569 2 0 0.0994487 0.16427
270 1 20.4384 3.82188 1.23329 4 0.00349346 2 0 0.0994487 0.325954
271 1 20.8846 4.71868 1.39403 4 0.00971728 2 0 0.0994487 0.149059
272 1 21.5775 4.95128 0.810455 4 0.015542 2 0 0.0994487 -0.00375167
273 1 21.0824 3.93136 0.512408 4 0.00481827 2 0 0.0994487 0.0883029
274 1 20.1339 4.78559 0.352846 4 0.00682522 2 0 0.0994487 0.145588
275 1 22.8205 3.63186 1.42135 4 0.00499911 2 0 0.0994487 -0.0184023
276 1 21.9406 4.13318 1.31068 4 0.00754647 2 0 0.0994487 0.0272025
277 1 22.4705 5.17735 1.27286 4 0.0220058 2 0 0.0994487 0.0207027
278 1 22.6119 4.34705 0.510028 4 0.00970413 2 0 0.0994487 -0.0221086
279 1 23.5735 3.63903 0.782677 4 0.00514692 2 0 0.0994487 0.18555
280 1 24.336 4.32055 0.625018 4 0.00872754 2 0 0.0994487 -0.1501
281 1 23.4679 4.54946 1.33355 4 0.0122436 2 0 0.0994487 -0.0790604
282 1 24.8518 5.25716 0.566763 4 0.0160901 2 0 0.0994487 0.0408996
283 1 23.5518 5.06386 0.533607 4 0.0188881 2 0 0.0994487 -0.0968938
284 1 25.0086 4.50055 1.62342 4 0.00820734 2 0 0.0994487 -0.0421989
285 1 25.0629 3.68037 0.802132 4 0.00396133 2 0 0.0994487 -0.187927
286 1 24.363 5.28843 1.43377 4 0.0199319 2 0 0.0994487 -0.154717
287 1 25.6904 5.1389 1.34266 4 0.0107583 2 0 0.0994487 0.210091
288 1 26.3575 4.29031 1.37159 4 0.00391697 2 0 0.0994487 0.149475
289 1 26.5026 4.97257 0.640732 4 0.00597167 2 0 0.0994487 0.0989594
290 1 25.5284 4.40089 0.388179 4 0.00604362 2 0 0.0994487 0.0559436
291 1 27.3302 4.86961 1.40568 4 0.00334473 2 0 0.0994487 0.00660373
292 1 27.9624 3.97641 1.10408 4 0.00106427 2 0 0.0994487 -0.309518
293 1 28.2771 4.73475 0.706344 4 0.00151472 2 0 0.0994487 -0.0812553
294 1 27.0674 4.04323 0.570038 4 0.00206787 2 0 0.0994487 0.0120165
295 1 28.9321 3.77016 0.487204 4 0.000421678 2 0 0.0994487 -0.00703574
296 1 29.0873 4.52317 1.33085 4 0.000683206 2 0 0.0994487 0.0574815
297 1 29.9979 4.07209 1.02303 4 0.000226326 2 0 0.0994487 -0.275239
298 1 31.0296 3.97382 0.373364 4 9.6363e-05 2 0 0.0994487 0.657583
299 1 30.2046 4.67765 0.491317 4 0.000293176 2 0 0.0994487 0.00995639
300 1 30.9783 4.59929 1.41131 4 0.000151539 2 0 0.0994487 0.679913
301 1 0.908283 5.53205 0.461647 4 1.12886e-11 2 0 0.0994487 -0.463785
302 1 1.53161 5.51184 1.37971 4 2.62767e-11 2 0 0.0994487 -0.117387
303 1 0.793684 6.22023 1.2768 4 1.31071e-11 2 0 0.0994487 -0.703381
304 1 0.257003 6.91734 1.50738 4 7.80497e-12 2 0 0.0994487 -0.772633
305 1 0.969942 6.9454 0.573423 4 2.41511e-11 2 0 0.0994487 -0.473533
306 1 1.7053 7.02884 1.23811 4 6.84705e-11 2 0 0.0994487 0.0665175
307 1 1.89588 6.19966 0.519025 4 6.73027e-11 2 0 0.0994487 -0.1564
308 1 3.10475 5.61709 1.30057 4 2.85625e-10 2 0 0.0994487 0.0402519
309 1 2.26359 6.15348 1.40977 4 1.00704e-10 2 0 0.0994487 0.0408556
310 1 3.25442 6.96226 1.12748 4 7.47379e-10 2 0 0.0994487 -0.0541244
311 1 2.68177 5.61289 0.273587 4 1.52859e-10 2 0 0.0994487 -0.0596862
312 1 3.39503 6.28191 0.500536 4 6.74648e-10 2 0 0.0994487 -0.121445
313 1 4.18979 5.46246 0.325783 4 1.22357e-09 2 0 0.0994487 0.0310168
314 1 4.93434 5.42873 1.31778 4 3.81585e-09 2 0 0.0994487 -0.235101
315 1 4.13622 6.09659 1.22779 4 1.83343e-09 2 0 0.0994487 -0.0893898
316 1 4.82567 6.23357 0.333842 4 4.5886e-09 2 0 0.0994487 -0.0345766
317 1 4.77312 6.79931 1.15967 4 6.6283e-09 2 0 0.0994487 -0.305931
318 1 4.00267 7.02511 0.221759 4 2.0987e-09 2 0 0.0994487 -0.0853445
319 1 5.78575 5.42185 0.301847 4 9.92329e-09 2 0 0.0994487 0.0125015
320 1 5.6935 6.24342 0.9632 4 1.61148e-08 2 0 0.0994487 -0.967781
321 1 6.4578 5.98425 1.59671 4 3.52808e-08 2 0 0.0994487 0.140914
322 1 6.43234 6.86927 1.00965 4 6.12667e-08 2 0 0.0994487 0.851673
323 1 6.37773 6.04115 0.154639 4 2.60982e-08 2 0 0.0994487 0.111112
324 1 5.54993 7.05206 0.147147 4 1.63552e-08 2 0 0.0994487 0.036386
325 1 8.21355 5.31419 0.694273 4 2.38633e-07 2 0 0.0994487 -0.0895944
326 1 7.32761 6.15925 0.754293 4 1.24697e-07 2 0 0.0994487 0.225731
327 1 7.39163 5.41839 1.49138 4 8.59048e-08 2 0 0.0994487 0.136753
328 1 8.23884 6.11028 1.49159 4 3.90376e-07 2 0 0.0994487 0.0187363
329 1 8.01352 6.85364 0.728993 4 4.44857e-07 2 0 0.0994487 0.0691857
330 1 7.28191 6.86379 1.59601 4 1.84144e-07 2 1 0.0994487 0.12605
331 1 7.33029 5.3575 0.0461812 4 6.042e-08 2 0 0.0994487 0.0813564
332 1 9.76796 5.3194 0.792562 4 1.43079e-06 2 0 0.0994487 0.328444
333 1 8.88016 6.18865 0.736908 4 8.97987e-07 2 0 0.0994487 -0.235543
334 1 9.05434 5.3271 1.5973 4 6.39628e-07 2 0 0.0994487 -0.0628317
335 1 9.73844 6.19052 1.46731 4 2.47849e-06 2 0 0.0994487 -0.106402
336 1 9.09351 6.95013 1.463 4 1.95011e-06 2 2 0.0994487 -0.0756658
337 1 9.76329 6.23201 0.0941385 4 2.12768e-06 2 0 0.0994487 -0.0359522
338 1 8.99733 5.46479 0.012702 4 5.31223e-07 2 0 0.0994487 -0.134754
339 1 10.5831 6.02196 0.964384 4 5.67536e-06 2 0 0.0994487 -0.356517
340 1 11.3128 6.37134 0.0776634 4 1.08555e-05 2 0 0.0994487 0.10034
341 1 10.5187 6.94145 0.15452 4 6.92661e-06 2 0 0.0994487 -0.0735408
342 1 10.4686 6.92564 1.49614 4 8.76905e-06 2 1 0.0994487 -0.063537
343 1 11.9994 5.6274 0.183157 4 1.75719e-05 2 0 0.0994487 -0.0105318
344 1 12.6757 5.81849 0.861776 4 4.63906e-05 2 0 0.0994487 0.0817403
345 1 11.7774 6.20735 1.05291 4 2.20217e-05 2 0 0.0994487 0.292152
346 1 13.3219 5.86668 1.55471 4 8.60684e-05 2 0 0.0994487 0.208165
347 1 13.3506 6.58297 0.813679 4 0.000146377 2 0 0.0994487 -0.292124
348 1 13.3212 5.53867 0.0424813 4 6.9475e-05 2 0 0.0994487 -0.142912
349 1 14.0617 5.71565 0.77266 4 0.000173123 2 0 0.0994487 -0.372696
350 1 14.3278 6.65176 1.40646 4 0.000418707 2 1 0.0994487 -0.103117
351 1 14.1303 6.38483 0.0380077 4 0.000219567 2 0 0.0994487 -0.0826113
352 1 15.0282 5.64393 0.034369 4 0.000335216 2 0 0.0994487 0.0573631
353 1 15.8305 5.73813 0.95832 4 0.000808385 2 0 0.0994487 0.625786
354 1 15.0472 6.45091 0.806774 4 0.000660068 2 0 0.0994487 -0.176061
355 1 16.491 6.45257 1.1401 4 0.00220699 2 0 0.0994487 0.208322
356 1 15.1058 5.87594 1.69804 4 0.000505206 2 0 0.0994487 -0.097659
357 1 16.62 5.41933 0.276819 4 0.00109868 2 0 0.0994487 0.0799223
358 1 15.6753 6.3382 0.0390223 4 0.000869724 2 0 0.0994487 0.0398507
359 1 17.8271 5.30128 0.541411 4 0.0024345 2 0 0.0994487 0.150329
360 1 17.113 5.42499 1.24767 4 0.00178291 2 0 0.0994487 -0.286572
361 1 17.0619 6.27419 0.411469 4 0.00273496 2 0 0.0994487 0.138951
362 1 17.6649 6.24649 1.38542 4 0.00448756 2 0 0.0994487 -0.254251
363 1 18.2745 7.0517 1.13153 4 0.0107662 2 1 0.0994487 0.631141
364 1 18.3714 6.23173 0.609762 4 0.00699389 2 0 0.0994487 0.156185
365 1 19.429 5.75829 0.62055 4 0.0103356 2 0 0.0994487 0.0571904
366 1 19.3279 6.55755 1.35081 4 0.0173394 2 1 0.0994487 0.274728
367 1 19.9942 6.75229 0.610261 4 0.0299718 2 0 0.0994487 -0.0119145
368 1 20.7494 5.77593 0.653722 4 0.0225966 2 0 0.0994487 -0.104062
369 1 20.1931 5.61076 1.39557 4 0.014975 2 0 0.0994487 0.312027
370 1 20.7787 6.6124 1.30355 4 0.0468352 2 1 0.0994487 -0.344505
371 1 21.6592 6.66248 0.666524 4 0.0563415 2 0 0.0994487 -0.0435181
372 1 21.6631 5.87866 1.38528 4 0.0368611 2 0 0.0994487 0.0420798
373 1 21.6904 5.73259 0.0517844 4 0.0260289 2 0 0.0994487 -0.00150164
374 1 22.6732 5.8279 0.674154 4 0.036551 2 0 0.0994487 0.00265053
375 1 22.6319 6.69333 1.20734 4 0.07608 2 0 0.0994487 -0.201932
376 1 23.3484 6.78052 0.267835 4 0.0636823 2 0 0.0994487 -0.125387
377 1 23.4822 5.88496 1.30013 4 0.0407094 2 0 0.0994487 -0.176413
378 1 24.3197 6.56281 1.15825 4 0.0512695 2 0 0.0994487 0.17348
379 1 24.1457 6.00685 0.427617 4 0.0346752 2 0 0.0994487 0.00243136
380 1 25.6831 5.86213 0.700952 4 0.0176406 2 0 0.0994487 0.163887
381 1 25.1124 6.04132 1.67733 4 0.0261341 2 0 0.0994487 0.00366228
382 1 25.1593 6.74159 0.495153 4 0.0372639 2 0 0.0994487 0.0903815
383 1 25.8251 6.59457 1.40775 4 0.025631 2 0 0.0994487 0.0880892
384 1 26.6903 5.84511 1.4763 4 0.0101357 2 0 0.0994487 0.0917543
385 1 27.4966 5.54334 0.722172 4 0.00461813 2 0 0.0994487 -0.251583
386 1 26.7485 6.36567 0.651888 4 0.0129792 2 0 0.0994487 0.0387412
387 1 27.7011 6.47315 1.36539 4 0.00720482 2 0 0.0994487 0.131485
388 1 28.3648 5.52203 1.4872 4 0.00238039 2 0 0.0994487 0.0456295
389 1 27.7097 7.0074 0.530173 4 0.00894026 2 0 0.0994487 0.0321156
390 1 29.3889 5.30889 0.818726 4 0.000939825 2 0 0.0994487 0.316712
391 1 29.4379 6.18214 1.32212 4 0.00138361 2 0 0.0994487 -0.0033844
392 1 29.5784 6.89773 0.506505 4 0.001715 2 0 0.0994487 0.0925822
393 1 28.4685 6.20589 0.638647 4 0.00314644 2 0 0.0994487 -0.270092
394 1 29.3762 6.15398 0.0801838 4 0.0013141 2 0 0.0994487 0.0969244
395 1 28.4822 5.38976 0.0592959 4 0.00169696 2 0 0.0994487 -0.105005
396 1 30.9636 5.36838 0.595026 4 0.000265917 2 0 0.0994487 0.667848
397 1 30.2159 5.45949 1.46813 4 0.000469643 2 0 0.0994487 0.0540197
398 1 30.3958 6.18258 0.649752 4 0.000635098 2 0 0.0994487 0.328997
399 1 31.2189 6.15516 1.38439 4 0.000312616 2 0 0.0994487 0.587257
400 1 31.1994 6.95407 0.60342 4 0.000468234 2 0 0.0994487 0.812251
401 1 31.7235 5.99622 0.446564 4 0.000202995 2 0 0.0994487 0.879729
402 1 0.261851 7.63199 0.661866 4 1.18346e-11 2 0 0.0994487 -0.876374
403 1 0.831025 8.46344 0.61936 4 3.29889e-11 2 0 0.0994487 -0.577626
404 1 1.11211 7.86396 1.49711 4 3.63375e-11 2 0 0.0994487 -0.154429
405 1 0.356955 8.5626 1.47035 4 1.63301e-11 2 0 0.0994487 -0.764984
406 1 1.59266 7.76478 0.37187 4 7.91438e-11 2 0 0.0994487 -0.0897882
407 1 1.72382 8.61735 1.46471 4 1.20945e-10 2 0 0.0994487 0.0395964
408 1 2.48799 7.14986 0.476331 4 2.60336e-10 2 0 0.0994487 -0.0836968
409 1 2.19177 8.6335 0.399707 4 2.6045e-10 2 0 0.0994487 -0.137268
410 1 2.39416 7.81099 1.27726 4 2.75724e-10 2 0 0.0994487 0.0869914
411 1 3.01349 8.51445 0.935533 4 9.05292e-10 2 0 0.0994487 -0.539314
412 1 3.24418 7.77117 0.327041 4 9.66202e-10 2 0 0.0994487 -0.196205
413 1 3.81243 8.45898 0.0822892 4 2.33269e-09 2 0 0.0994487 -0.0457789
414 1 3.97971 7.67009 1.24863 4 2.83595e-09 2 0 0.0994487 -0.0554897
415 1 4.70459 8.25653 0.921772 4 9.88017e-09 2 0 0.0994487 0.29533
416 1 4.67023 7.63706 0.247803 4 6.70541e-09 2 0 0.0994487 0.0376912
417 1 3.81127 8.34851 1.76162 4 2.31286e-09 2 0 0.0994487 -0.0574363
418 1 5.86955 8.34822 0.169905 4 4.10711e-08 2 0 0.0994487 0.113105
419 1 5.48363 7.59071 1.03232 4 2.47629e-08 2 0 0.0994487 -0.467666
420 1 6.49365 7.53799 0.169175 4 7.25717e-08 2 0 0.0994487 0.187623
421 1 6.39674 8.23976 1.04384 4 1.13683e-07 2 0 0.0994487 0.338156
422 1 7.28583 7.76918 0.746313 4 2.93356e-07 2 1 0.0994487 0.00993602
423 1 8.2859 8.31376 0.868772 4 1.34738e-06 2 2 0.0994487 0.278849
424 1 7.27857 8.18368 1.7015 4 4.33474e-07 2 2 0.0994487 -0.174641
425 1 8.05208 7.48784 1.5604 4 7.21928e-07 2 1 0.0994487 0.185103
426 1 7.99895 7.60312 0.0282118 4 4.49893e-07 2 0 0.0994487 0.0674129
427 1 9.84313 7.22199 0.72344 4 4.90674e-06 2 1 0.0994487 -0.346915
428 1 8.91207 7.61626 0.661731 4 1.98795e-06 2 1 0.0994487 0.158745
429 1 9.73234 8.61964 0.693151 4 8.05952e-06 2 3 0.0994487 -0.257275
430 1 9.09265 8.69904 1.44495 4 4.98173e-06 2 9 0.0994487 -0.39468
431 1 9.64026 7.88932 1.60055 4 6.94402e-06 2 8 0.0994487 -0.340198
432 1 11.3161 7.14287 0.810636 4 2.21371e-05 2 1 0.0994487 0.448473
433 1 10.5731 7.9454 0.844311 4 1.54261e-05 2 3 0.0994487 -0.198644
434 1 10.5877 8.70196 1.4255 4 2.42785e-05 1 8 0.0994487 -0.147991
435 1 11.4057 7.80503 1.60301 4 4.08883e-05 2 7 0.0994487 0.228037
436 1 11.227 8.11851 0.0422735 4 2.26826e-05 2 0 0.0994487 0.174326
437 1 12.7061 7.28322 0.565784 4 0.000108849 2 0 0.0994487 -0.0531433
438 1 12.178 8.23518 0.590765 4 9.07432e-05 2 2 0.0994487 0.16393
439 1 12.0637 7.15788 1.37768 4 5.62362e-05 2 3 0.0994487 0.14561