ITEM: TIMESTEP
45500
ITEM: NUMBER OF ATOMS
9495
ITEM: BOX BOUNDS mm mm mm
0.0000000000000000e+00 3.1748021039364001e+01
0.0000000000000000e+00 3.1748021039364001e+01
-7.4072398406925706e-04 3.1748021039364001e+01
ITEM: ATOMS id type x y z c_phase c_temp c_surf c_nbond c_visc f_3[1]
1 1 0.116341 1.10259 0.464337 4 0.000620228 2 0 0.0994487 -0.68194
2 1 0.974108 1.6685 0.77798 4 0.000823155 2 0 0.0994487 -0.517032
3 1 0.714648 0.793562 1.41295 4 0.000677364 2 0 0.0994487 -0.281794
4 1 0.00336375 1.60273 1.37437 4 0.000663214 2 0 0.0994487 -0.804051
5 1 0.729896 0.0633724 0.61602 4 0.000581955 3 0 0.0994487 -0.190374
6 1 1.71015 0.808983 1.0155 4 0.000929624 2 0 0.0994487 -0.33207
7 1 1.80059 1.47468 0.221075 4 0.000989389 2 0 0.0994487 -0.125829
8 1 1.82015 1.66049 1.76126 4 0.00104373 2 0 0.0994487 -0.139533
9 1 2.52093 0.749102 0.203812 4 0.00114851 2 0 0.0994487 -0.14294
10 1 2.59149 0.0538711 1.03726 4 0.00114501 2 0 0.0994487 -0.295005
11 1 2.64922 1.541 0.882848 4 0.00134291 2 0 0.0994487 0.235752
12 1 2.66829 0.815502 1.7457 4 0.0012483 2 0 0.0994487 -0.187041
13 1 3.43386 0.933692 0.956349 4 0.00166658 2 0 0.0994487 0.320239
14 1 3.49924 0.0925696 1.70571 4 0.00145335 2 0 0.0994487 0.178053
15 1 3.60652 1.70798 1.71994 4 0.00198601 2 0 0.0994487 0.0487943
16 1 4.10576 0.858321 0.325305 4 0.00214401 2 0 0.0994487 0.153145
17 1 4.96159 0.56786 1.17466 4 0.00316711 2 0 0.0994487 -0.0370682
18 1 4.91949 1.59987 0.383508 4 0.00350635 2 0 0.0994487 -0.100249
19 1 4.3472 0.941527 1.62884 4 0.00244008 2 0 0.0994487 0.110737
20 1 3.47612 0.111428 0.171027 4 0.00140869 2 0 0.0994487 0.166215
21 1 5.64741 0.645627 0.325839 4 0.00420036 2 0 0.0994487 -0.0806055
22 1 5.88414 1.31048 0.938036 4 0.00490485 2 0 0.0994487 -0.19959
23 1 6.57478 1.39104 0.218369 4 0.00635805 2 0 0.0994487 -0.0861343
24 1 5.78374 0.460658 1.69897 4 0.00427181 2 0 0.0994487 -0.0846532
25 1 5.03122 1.72414 1.43602 4 0.00365813 2 0 0.0994487 0.0453707
26 1 6.7138 0.39031 0.865278 4 0.00606133 2 0 0.0994487 -0.0793825
27 1 6.69104 1.00962 1.69374 4 0.00621391 2 0 0.0994487 -0.107924
28 1 8.2679 0.408875 1.07337 4 0.0098157 2 0 0.0994487 -0.100167
29 1 7.36782 1.22285 0.954198 4 0.00811612 2 0 0.0994487 -0.302555
30 1 8.24709 1.39092 0.236779 4 0.0108727 2 0 0.0994487 -0.0460648
31 1 8.12868 1.27217 1.60653 4 0.0101426 2 0 0.0994487 -0.0081176
32 1 7.58247 0.647807 0.140287 4 0.00820769 2 0 0.0994487 -0.110936
33 1 8.85849 0.508506 0.273966 4 0.0117427 2 0 0.0994487 -0.0616467
34 1 9.55301 0.3386 0.888639 4 0.0140519 2 0 0.0994487 0.0050635
35 1 9.02586 1.30716 1.1133 4 0.0135471 2 0 0.0994487 -0.060647
37 1 9.63995 1.37474 0.0900752 4 0.0157007 2 0 0.0994487 0.099291
38 1 11.2128 0.215893 0.632658 4 0.0221474 2 0 0.0994487 0.203503
39 1 10.3637 1.04743 0.823114 4 0.0188634 2 0 0.0994487 0.539885
40 1 10.523 0.196295 1.44539 4 0.0181793 2 0 0.0994487 0.0644284
41 1 11.2856 1.01846 1.41785 4 0.0253642 2 0 0.0994487 0.164707
42 1 10.5797 1.67706 1.72992 4 0.0224376 2 0 0.0994487 0.118164
43 1 10.2431 0.367861 0.0780499 4 0.0161452 2 0 0.0994487 0.149801
44 1 12.8757 0.211714 0.636805 4 0.0370983 2 0 0.0994487 0.0587877
45 1 12.0457 1.07408 0.506655 4 0.0327082 2 0 0.0994487 -0.0235512
46 1 12.1319 0.316439 1.29957 4 0.0307096 2 0 0.0994487 0.0188365
47 1 12.7194 1.19864 1.3723 4 0.0403522 2 0 0.0994487 -0.0305274
48 1 14.3729 0.318493 0.764646 4 0.0538978 2 0 0.0994487 -0.0460382
49 1 13.5924 1.113 0.843618 4 0.0502849 2 0 0.0994487 -0.263052
50 1 14.0399 1.55958 0.167469 4 0.0590744 2 0 0.0994487 -0.0898248
51 1 13.6075 0.359834 1.6352 4 0.0453645 2 0 0.0994487 -0.0562633
52 1 14.3777 1.14948 1.47647 4 0.0579836 2 0 0.0994487 -0.0178273
53 1 14.8761 1.55337 0.662943 4 0.0677173 2 0 0.0994487 0.389949
54 1 15.7061 0.770636 0.788259 4 0.0710431 2 0 0.0994487 0.366484
55 1 16.5532 1.54451 0.681338 4 0.0946359 2 0 0.0994487 0.000805511
56 1 15.1422 0.4642 1.64149 4 0.0612705 2 0 0.0994487 0.152078
57 1 16.547 0.712289 1.3421 4 0.0850155 2 0 0.0994487 0.0956264
58 1 15.6341 1.48544 1.3916 4 0.077563 2 0 0.0994487 0.153631
59 1 15.1049 0.711806 0.0677822 4 0.0613498 2 0 0.0994487 0.169203
60 1 17.2544 0.732268 0.547589 4 0.0962238 2 0 0.0994487 0.02863
61 1 17.9231 1.58109 0.757246 4 0.117373 2 0 0.0994487 0.0415632
62 1 17.916 0.742935 1.42801 4 0.107456 2 0 0.0994487 -0.224376
63 1 17.2202 1.74884 1.56274 4 0.110707 2 0 0.0994487 -0.0984835
64 1 19.5372 0.0167772 0.662766 4 0.113767 2 0 0.0994487 0.0436439
65 1 18.7918 0.725074 0.684829 4 0.115786 2 0 0.0994487 -0.269945
66 1 19.5395 1.55488 0.841653 4 0.135423 2 0 0.0994487 -0.341161
67 1 19.0276 0.158607 1.54508 4 0.112555 2 0 0.0994487 -0.158664
68 1 19.5934 0.967491 1.68957 4 0.124944 2 0 0.0994487 0.00835102
69 1 18.6564 1.51302 1.50035 4 0.126353 2 0 0.0994487 -0.250307
70 1 21.0889 0.349843 1.06749 4 0.125516 2 0 0.0994487 -0.196126
71 1 20.2493 0.776373 0.980057 4 0.126997 2 0 0.0994487 -0.0497606
72 1 21.1062 1.65725 0.951506 4 0.143851 2 0 0.0994487 0.692916
73 1 21.1874 0.765598 0.218806 4 0.128663 2 0 0.0994487 -0.0445904
74 1 20.3457 1.51479 0.193617 4 0.13876 2 0 0.0994487 -0.0806021
75 1 22.0087 0.262534 0.539755 4 0.124928 2 0 0.0994487 0.0993597
76 1 22.7913 0.430275 1.40734 4 0.126088 2 0 0.0994487 0.2066
77 1 22.1105 1.14763 1.32981 4 0.134673 2 0 0.0994487 0.240024
78 1 21.9982 1.59955 0.538558 4 0.143875 2 0 0.0994487 0.185173
79 1 22.9157 1.07463 0.445168 4 0.132902 2 0 0.0994487 0.0520851
80 1 24.228 0.380179 1.45209 4 0.121277 2 0 0.0994487 0.0576173
81 1 23.5672 0.357563 0.57369 4 0.123722 2 0 0.0994487 0.0385715
82 1 24.4367 1.18687 0.754729 4 0.1303 2 0 0.0994487 -0.0192943
83 1 23.4757 1.2499 1.4028 4 0.136058 2 0 0.0994487 0.0298782
84 1 24.955 0.315686 0.551996 4 0.114711 2 0 0.0994487 -0.0171979
85 1 26.0085 0.383365 1.1715 4 0.104074 2 0 0.0994487 -0.185858
86 1 25.169 1.12579 1.48087 4 0.123458 2 0 0.0994487 0.0251062
87 1 25.9301 1.73476 1.35794 4 0.125324 2 0 0.0994487 0.0345381
88 1 25.8917 0.929212 0.432102 4 0.110775 2 0 0.0994487 -0.0954184
89 1 27.5736 1.28032 0.38906 4 0.0950561 2 0 0.0994487 0.0454501
90 1 27.6142 0.50928 0.874321 4 0.0889741 2 0 0.0994487 0.175389
91 1 26.7559 1.02809 1.26347 4 0.101262 2 0 0.0994487 -0.236883
92 1 28.3748 0.337482 1.39813 4 0.0796698 2 0 0.0994487 0.00984522
93 1 26.7925 0.240345 0.226621 4 0.0940286 2 0 0.0994487 0.0380753
94 1 28.6489 1.24263 0.742341 4 0.0840413 2 0 0.0994487 0.102407
95 1 29.3912 0.945639 1.56878 4 0.0742709 2 0 0.0994487 -0.0192
96 1 28.5228 1.71921 1.49749 4 0.0893017 2 0 0.0994487 -0.0429797
97 1 29.8133 0.173958 1.46124 4 0.0672818 2 0 0.0994487 0.133416
98 1 29.2734 0.3547 0.615275 4 0.0712897 2 0 0.0994487 -0.0816807
99 1 31.5874 0.266128 1.25663 4 0.0556479 3 0 0.0994487 0.830097
100 1 30.7016 0.49015 0.470738 4 0.0632531 2 0 0.0994487 0.354852
101 1 30.1009 1.19877 0.774133 4 0.0717097 2 0 0.0994487 0.210921
102 1 30.8649 0.971942 1.39386 4 0.0654996 2 0 0.0994487 0.703282
103 1 1.11081 2.43607 0.129285 4 0.000910109 2 0 0.0994487 -0.0373225
104 1 0.133403 2.3821 0.812241 4 0.000778941 2 0 0.0994487 -0.984517
105 1 1.28845 3.23764 0.949187 4 0.00114975 2 0 0.0994487 0.222088
106 1 1.13977 2.36077 1.59162 4 0.000957509 2 0 0.0994487 -0.22219
107 1 0.386685 3.02999 1.54944 4 0.000912344 2 0 0.0994487 -0.671256
108 1 0.332248 3.09582 0.131296 4 0.000881128 2 0 0.0994487 -0.59134
109 1 1.90972 2.41867 0.78376 4 0.00118759 2 0 0.0994487 0.0782073
110 1 2.65852 3.28029 0.860875 4 0.00189155 2 0 0.0994487 0.0668018
111 1 2.66931 2.22918 1.53373 4 0.00151229 2 0 0.0994487 0.0829542
112 1 3.2579 3.42668 1.64938 4 0.00247237 2 0 0.0994487 0.00397386
113 1 2.7261 2.38168 0.0557193 4 0.0014579 2 0 0.0994487 0.1466
114 1 3.38195 2.55413 0.779289 4 0.00212653 2 0 0.0994487 0.211582
115 1 4.00679 1.841 0.711184 4 0.00246011 2 0 0.0994487 -0.0361252
116 1 4.91383 2.57277 0.815661 4 0.00413463 2 0 0.0994487 -0.259353
117 1 4.20148 3.3175 0.749446 4 0.00359833 2 0 0.0994487 0.00621391
118 1 4.13245 2.64107 1.58328 4 0.00299897 2 0 0.0994487 0.0270764
119 1 5.65047 2.44269 0.132743 4 0.00535464 2 0 0.0994487 -0.189926
120 1 6.55776 2.18062 0.772597 4 0.00707628 2 0 0.0994487 -0.28939
121 1 5.64874 3.19593 0.952489 4 0.00619795 2 0 0.0994487 -0.754637
122 1 5.861 2.19426 1.49672 4 0.00544547 2 0 0.0994487 0.0126347
123 1 6.52037 3.06691 1.5557 4 0.00817868 2 0 0.0994487 0.0443567
124 1 6.65033 2.92778 0.134227 4 0.00800466 2 0 0.0994487 0.0288862
125 1 7.45405 2.22586 0.139832 4 0.00960463 2 0 0.0994487 -0.0535032
126 1 8.08209 2.20208 0.930382 4 0.011913 2 0 0.0994487 -0.30208
127 1 7.40132 3.06835 0.934051 4 0.0112458 2 0 0.0994487 -0.045533
128 1 7.29928 2.06035 1.56856 4 0.00886904 2 0 0.0994487 -0.0607335
129 1 8.18545 3.00183 1.65211 4 0.0144327 2 0 0.0994487 -0.0454164
130 1 8.26934 2.9712 0.0392146 4 0.0147647 2 0 0.0994487 -0.150618
131 1 8.90393 2.08699 0.252387 4 0.0147856 2 0 0.0994487 0.00243264
132 1 9.77243 2.0246 1.10996 4 0.019009 2 0 0.0994487 0.173462
133 1 8.92671 2.97262 0.928693 4 0.0183599 2 0 0.0994487 -0.156764
134 1 9.03062 2.22066 1.70398 4 0.0159429 2 0 0.0994487 -0.0819683
135 1 9.56096 2.90576 0.21312 4 0.0211546 2 0 0.0994487 0.17312
136 1 10.2834 2.1137 0.214297 4 0.0210848 2 0 0.0994487 0.337739
137 1 11.1583 1.82604 0.771092 4 0.0276814 2 0 0.0994487 0.260088
138 1 10.6214 2.80819 0.921535 4 0.0292816 2 0 0.0994487 0.541917
139 1 11.4444 2.82964 1.57484 4 0.0382595 2 0 0.0994487 0.0951995
140 1 12.6737 1.94118 0.593851 4 0.046043 2 0 0.0994487 -0.283933
141 1 11.928 2.64099 0.742299 4 0.0423191 2 0 0.0994487 -0.0386737
142 1 11.9239 1.9206 1.46509 4 0.0360098 2 0 0.0994487 0.0946535
143 1 12.8449 3.01766 1.68597 4 0.0584599 2 0 0.0994487 0.0363568
144 1 13.1791 3.03035 0.848852 4 0.0644185 2 0 0.0994487 -0.440856
145 1 13.3784 1.9912 1.48064 4 0.0540822 2 0 0.0994487 -0.0150702
146 1 14.0206 2.44438 0.927124 4 0.0686052 2 0 0.0994487 -0.1331
147 1 14.0279 3.38359 1.55716 4 0.0838869 2 0 0.0994487 0.0255747
148 1 14.6961 3.43698 0.884932 4 0.0983613 2 0 0.0994487 -0.33296
149 1 14.7823 2.29758 1.44821 4 0.0770833 2 0 0.0994487 0.0469272
150 1 14.8418 2.51505 0.136557 4 0.081279 2 0 0.0994487 0.173005
151 1 14.1591 3.2262 0.0325348 4 0.0838783 2 0 0.0994487 -0.246105
152 1 13.4137 2.29398 0.0590902 4 0.0590946 2 0 0.0994487 -0.280962
153 1 15.6993 2.44373 0.692668 4 0.0950605 2 0 0.0994487 0.364392
154 1 16.3029 3.20095 0.662084 4 0.123819 2 0 0.0994487 0.328588
155 1 16.308 2.47951 1.52575 4 0.108768 2 0 0.0994487 -0.100647
156 1 15.3694 3.25723 1.50191 4 0.108029 2 0 0.0994487 -0.00766923
157 1 15.5706 3.25854 0.0192499 4 0.106597 2 0 0.0994487 0.290238
158 1 17.0646 2.35032 0.682778 4 0.11906 2 0 0.0994487 0.0234808
159 1 17.944 2.92608 0.699539 4 0.154354 2 0 0.0994487 -0.231191
160 1 18.0193 2.43917 1.58112 4 0.139748 2 0 0.0994487 -0.149135
161 1 17.0918 3.1162 1.49491 4 0.142057 2 0 0.0994487 -0.143435
162 1 18.8908 2.35742 1.01358 4 0.149475 2 0 0.0994487 -0.516828
163 1 19.7027 3.2427 1.27782 4 0.186445 2 0 0.0994487 0.39488
164 1 18.884 2.99607 0.196019 4 0.170298 2 0 0.0994487 -0.171809
165 1 19.587 2.34239 0.101452 4 0.155538 2 0 0.0994487 -0.13237
166 1 20.3251 1.78863 1.72442 4 0.142374 2 0 0.0994487 0.0449533
167 1 21.1565 2.41663 0.458355 4 0.165749 2 0 0.0994487 0.196188
168 1 20.1948 2.46882 1.11433 4 0.161243 2 0 0.0994487 0.286744
169 1 21.31 3.29463 1.39314 4 0.205823 2 0 0.0994487 0.077729
170 1 20.4222 2.99313 0.334941 4 0.181139 2 0 0.0994487 0.18629
171 1 22.8719 2.07007 1.50872 4 0.158876 2 0 0.0994487 -0.0221228
172 1 22.9717 2.60199 0.735523 4 0.182117 2 0 0.0994487 0.133328
173 1 22.0961 2.49917 1.23787 4 0.17495 2 0 0.0994487 0.186439
174 1 21.9898 3.20043 0.598797 4 0.208866 2 0 0.0994487 -0.0757499
175 1 22.6771 3.40124 0.07601 4 0.222045 2 0 0.0994487 0.0760737
176 1 23.7438 1.80844 0.624025 4 0.147243 2 0 0.0994487 -0.087358
177 1 24.4289 1.98763 1.61102 4 0.149023 2 0 0.0994487 -0.0641746
178 1 24.342 2.68296 0.775192 4 0.173123 2 0 0.0994487 -0.34109
179 1 23.6887 2.90303 1.53628 4 0.188915 2 0 0.0994487 -0.110504
180 1 24.4728 3.51078 1.55704 4 0.212117 2 0 0.0994487 -0.118304
181 1 24.9562 2.84566 0.0146836 4 0.169099 2 0 0.0994487 -0.0864589
182 1 26.5483 1.79415 0.511367 4 0.116238 2 0 0.0994487 -0.00559851
183 1 25.1322 1.85613 0.509414 4 0.138671 2 0 0.0994487 -0.0215276
184 1 25.7918 2.61203 0.707489 4 0.152238 2 0 0.0994487 0.228205
185 1 25.1579 2.55548 1.52547 4 0.159718 2 0 0.0994487 0.0576682
186 1 25.7213 3.49812 1.51211 4 0.190696 2 0 0.0994487 0.123859
187 1 26.5364 2.56002 1.53049 4 0.135901 2 0 0.0994487 0.0579492
188 1 26.1686 3.50068 0.599043 4 0.180365 2 0 0.0994487 0.168847
189 1 27.5039 1.98546 1.23792 4 0.105251 2 0 0.0994487 -0.186416
190 1 28.2489 2.09022 0.343734 4 0.0973971 2 0 0.0994487 -0.017724
191 1 27.0867 2.6924 0.645359 4 0.128196 2 0 0.0994487 -0.105598
192 1 27.1998 3.35397 1.41682 4 0.145624 2 0 0.0994487 -0.0983261
193 1 28.2537 2.75799 1.20639 4 0.108625 2 0 0.0994487 -0.418303
194 1 27.982 3.21993 0.326384 4 0.12254 2 0 0.0994487 -0.125256
195 1 29.9568 1.80906 1.70764 4 0.0777285 2 0 0.0994487 0.183201
196 1 29.4477 2.04702 0.879698 4 0.0847424 2 0 0.0994487 -0.00708053
197 1 29.1956 2.6589 0.290703 4 0.0943202 2 0 0.0994487 -0.0578275
198 1 29.2495 3.2651 1.17365 4 0.104138 2 0 0.0994487 0.118638
199 1 30.9114 1.98502 0.924207 4 0.0756332 2 0 0.0994487 0.967251
200 1 30.1815 2.71094 1.00186 4 0.0868455 2 0 0.0994487 0.67511
201 1 31.0247 3.35309 0.97101 4 0.0906088 2 0 0.0994487 0.998409
202 1 30.9865 2.69483 1.72648 4 0.0827315 2 0 0.0994487 0.578501
203 1 30.1092 3.25953 0.132205 4 0.0925661 2 0 0.0994487 -0.0443654
204 1 30.4116 1.90909 0.0255368 4 0.0758339 2 0 0.0994487 0.106045
205 1 31.1434 2.66402 0.0761253 4 0.0801548 2 0 0.0994487 0.70882
206 1 0.293831 3.78503 0.918557 4 0.00102876 2 0 0.0994487 -0.999347
207 1 0.143046 4.59443 0.482118 4 0.0011428 2 0 0.0994487 -0.784494
208 1 1.14036 4.67093 0.986638 4 0.00148616 2 0 0.0994487 -0.516755
209 1 0.0884667 5.26681 1.27761 4 0.00129475 2 0 0.0994487 -0.887458
210 1 1.04069 3.86421 0.0595682 4 0.00116463 2 0 0.0994487 0.0148876
211 1 1.84117 4.04604 0.847105 4 0.00165733 2 0 0.0994487 0.008265
212 1 2.54049 4.85585 1.13748 4 0.00254841 2 0 0.0994487 -0.333849
213 1 2.64953 4.14475 0.20674 4 0.00232162 2 0 0.0994487 -0.0285729
214 1 1.89758 4.96895 0.278386 4 0.00206397 2 0 0.0994487 -0.153434
215 1 3.40771 4.86189 0.161635 4 0.00359468 2 0 0.0994487 -0.0163892
216 1 3.494 4.07675 0.885909 4 0.00317104 2 0 0.0994487 0.026889
217 1 4.91235 4.00001 1.18344 4 0.00551271 2 0 0.0994487 0.0115038
218 1 4.04658 4.88002 1.14639 4 0.0046249 2 0 0.0994487 0.264486
219 1 4.26027 4.18509 0.149001 4 0.00443106 2 0 0.0994487 0.0377372
220 1 5.00947 4.74001 0.341082 4 0.0067242 2 0 0.0994487 0.0765381
221 1 5.77735 3.9378 0.198707 4 0.00733027 2 0 0.0994487 0.026015
222 1 6.48883 3.76611 0.772067 4 0.00931888 2 0 0.0994487 0.204551
223 1 5.68025 4.73638 1.02487 4 0.00890327 2 0 0.0994487 -0.621697
224 1 6.66321 4.5115 1.6428 4 0.0117905 2 0 0.0994487 0.158932
225 1 6.68072 5.1315 0.885352 4 0.0141278 2 0 0.0994487 0.206848
226 1 8.1982 3.892 0.700757 4 0.0183634 2 0 0.0994487 -0.369903
227 1 7.40842 4.46072 0.5468 4 0.0158653 2 0 0.0994487 -0.0252139
228 1 7.39886 3.87029 1.49684 4 0.0134081 2 0 0.0994487 0.102576
229 1 8.20004 4.61106 1.48677 4 0.0217108 2 0 0.0994487 -0.0118385
230 1 9.8976 3.57792 0.885667 4 0.0287554 2 0 0.0994487 0.592773
231 1 9.07913 4.56551 0.821335 4 0.0288723 2 0 0.0994487 -0.658546
232 1 9.86266 4.50302 0.126324 4 0.0342266 2 0 0.0994487 0.0958653
233 1 9.07829 3.76256 1.49819 4 0.0235902 2 0 0.0994487 -0.0708863
234 1 9.86881 4.3462 1.65532 4 0.0350261 2 0 0.0994487 -0.0856628
235 1 8.98541 3.86821 0.0631775 4 0.0231045 2 0 0.0994487 -0.138754
236 1 11.408 3.64493 0.778297 4 0.0461112 2 0 0.0994487 0.202066
237 1 10.5891 4.66652 0.906264 4 0.0463157 2 0 0.0994487 0.0450772
238 1 11.3867 4.69403 0.230734 4 0.058979 2 0 0.0994487 -0.04989
239 1 10.7059 3.56689 1.58785 4 0.0369528 2 0 0.0994487 -0.0448498
240 1 11.3652 4.3716 1.70545 4 0.0545375 2 0 0.0994487 -0.0798279
241 1 11.3894 5.27213 0.983682 4 0.0678244 2 0 0.0994487 -0.674476
242 1 10.5826 3.84888 0.176129 4 0.0367594 2 0 0.0994487 0.210466
243 1 12.5168 3.57716 0.814749 4 0.0620004 2 0 0.0994487 -0.0105766
244 1 12.1916 4.55033 1.00021 4 0.0712164 2 0 0.0994487 0.105049
245 1 12.7362 4.99738 1.68903 4 0.0878024 2 0 0.0994487 0.19133
246 1 13.2258 4.67863 0.80017 4 0.0956651 2 0 0.0994487 -0.004698
247 1 12.6435 4.61885 0.0632315 4 0.0828192 2 0 0.0994487 -0.0335801
248 1 13.9891 4.12825 0.69648 4 0.10132 2 0 0.0994487 -0.430178
249 1 13.4832 4.21781 1.59317 4 0.0894996 2 0 0.0994487 0.0820177
250 1 14.2046 5.11838 1.52001 4 0.131864 2 0 0.0994487 -0.0289915
251 1 14.9402 5.01141 0.811699 4 0.150622 2 0 0.0994487 -0.0527369
252 1 14.9642 4.4167 1.59432 4 0.131864 2 0 0.0994487 -0.0635626
253 1 14.1405 4.90647 0.0597868 4 0.124573 2 0 0.0994487 -0.0856946
254 1 14.961 4.19423 0.096508 4 0.122361 2 0 0.0994487 0.0322723
255 1 15.6685 4.06642 0.926277 4 0.137058 2 0 0.0994487 0.872585
256 1 15.8798 4.77595 0.186426 4 0.167977 2 0 0.0994487 0.165389
257 1 16.5936 4.58036 0.900182 4 0.183909 2 0 0.0994487 -0.0789879
258 1 16.3184 3.95875 1.6903 4 0.151351 2 0 0.0994487 -0.0433979
259 1 15.8111 5.05317 1.64084 4 0.178127 2 0 0.0994487 0.0994987
260 1 17.2689 3.83372 0.811237 4 0.172862 2 0 0.0994487 -0.345386
261 1 18.0864 4.48855 1.09806 4 0.219472 2 0 0.0994487 -0.612174
262 1 17.9525 3.63794 1.65602 4 0.179297 2 0 0.0994487 -0.192806
263 1 17.4569 4.57727 0.0147963 4 0.205255 2 0 0.0994487 -0.0974105
264 1 18.1348 3.8547 0.0583493 4 0.190528 2 0 0.0994487 -0.120517
265 1 18.8779 3.70667 0.95022 4 0.19655 2 0 0.0994487 0.0692242
266 1 18.8235 4.60949 0.361826 4 0.236684 2 0 0.0994487 0.115608
267 1 19.6906 4.67872 1.0803 3 0.270365 2 0 0.0993248 0.93153
268 1 18.7859 5.27693 1.20102 3 0.289176 2 0 0.0991857 0.599112
269 1 19.5987 3.76722 0.227421 4 0.206579 2 0 0.0994487 0.164269
270 1 20.4384 3.82188 1.23329 4 0.226883 2 0 0.0994487 0.325953
271 1 20.8846 4.71868 1.39403 3 0.310796 2 0 0.0989904 0.149057
272 1 21.5775 4.95128 0.810455 3 0.359809 2 0 0.0983581 -0.00375514
273 1 21.0824 3.93136 0.512408 4 0.243901 2 0 0.0994487 0.0883026
274 1 20.1339 4.78559 0.352846 3 0.289263 2 0 0.099185 0.145585
275 1 22.8205 3.63186 1.42135 4 0.23654 2 0 0.0994487 -0.0183993
276 1 21.9406 4.13318 1.31068 3 0.273567 2 0 0.0993029 0.0272039
277 1 22.4705 5.17735 1.27286 3 0.397636 2 0 0.0976141 0.0207053
278 1 22.6119 4.34705 0.510028 3 0.294492 2 0 0.0991415 -0.0221063
279 1 23.5735 3.63903 0.782677 4 0.235419 2 0 0.0994487 0.18556
280 1 24.336 4.32055 0.625018 3 0.277873 2 0 0.0992724 -0.150092
281 1 23.4679 4.54946 1.33355 3 0.313603 2 0 0.0989618 -0.0790556
282 1 24.8518 5.25716 0.566763 3 0.347937 2 0 0.0985403 0.040908
283 1 23.5518 5.06386 0.533607 3 0.369593 2 0 0.0981912 -0.0968891
284 1 25.0086 4.50055 1.62342 3 0.273374 2 0 0.0993042 -0.0421942
285 1 25.0629 3.68037 0.802132 4 0.213866 2 0 0.0994487 -0.187915
286 1 24.363 5.28843 1.43377 3 0.372786 2 0 0.0981331 -0.154709
287 1 25.6904 5.1389 1.34266 3 0.303341 2 0 0.0990625 0.210103
288 1 26.3575 4.29031 1.37159 4 0.215908 2 0 0.0994487 0.149484
289 1 26.5026 4.97257 0.640732 3 0.251431 2 0 0.0994409 0.0989695
290 1 25.5284 4.40089 0.388179 4 0.248074 2 0 0.0994487 0.0559489
291 1 27.3302 4.86961 1.40568 4 0.212004 2 0 0.0994487 0.0066123
292 1 27.9624 3.97641 1.10408 4 0.147878 2 0 0.0994487 -0.309501
293 1 28.2771 4.73475 0.706344 4 0.1721 2 0 0.0994487 -0.0812432
294 1 27.0674 4.04323 0.570038 4 0.177923 2 0 0.0994487 0.0120248
295 1 28.9321 3.77016 0.487204 4 0.119762 2 0 0.0994487 -0.00703134
296 1 29.0873 4.52317 1.33085 4 0.140627 2 0 0.0994487 0.0574876
297 1 29.9979 4.07209 1.02303 4 0.110952 2 0 0.0994487 -0.275231
298 1 31.0296 3.97382 0.373364 4 0.0993638 2 0 0.0994487 0.657583
299 1 30.2046 4.67765 0.491317 4 0.124701 2 0 0.0994487 0.00995943
300 1 30.9783 4.59929 1.41131 4 0.112771 2 0 0.0994487 0.679915
301 1 0.908283 5.53205 0.461647 4 0.00169378 2 0 0.0994487 -0.463785
302 1 1.53161 5.51184 1.37971 4 0.00201307 2 0 0.0994487 -0.117388
303 1 0.793684 6.22023 1.2768 4 0.00193116 2 0 0.0994487 -0.703381
304 1 0.257003 6.91734 1.50738 4 0.00196943 2 0 0.0994487 -0.772633
305 1 0.969942 6.9454 0.573423 4 0.00235172 2 0 0.0994487 -0.473533
306 1 1.7053 7.02884 1.23811 4 0.00286023 2 0 0.0994487 0.0665167
307 1 1.89588 6.19966 0.519025 4 0.00264396 2 0 0.0994487 -0.156401
308 1 3.10475 5.61709 1.30057 4 0.00363789 2 0 0.0994487 0.0402509
309 1 2.26359 6.15348 1.40977 4 0.00289634 2 0 0.0994487 0.0408551
310 1 3.25442 6.96226 1.12748 4 0.00532603 2 0 0.0994487 -0.054126
311 1 2.68177 5.61289 0.273587 4 0.00312618 2 0 0.0994487 -0.0596868
312 1 3.39503 6.28191 0.500536 4 0.00495295 2 0 0.0994487 -0.121447
313 1 4.18979 5.46246 0.325783 4 0.00567512 2 0 0.0994487 0.0310157
314 1 4.93434 5.42873 1.31778 4 0.00800361 2 0 0.0994487 -0.235102
315 1 4.13622 6.09659 1.22779 4 0.00654631 2 0 0.0994487 -0.0893914
316 1 4.82567 6.23357 0.333842 4 0.00887547 2 0 0.0994487 -0.0345781
317 1 4.77312 6.79931 1.15967 4 0.0100269 2 0 0.0994487 -0.305934
318 1 4.00267 7.02511 0.221759 4 0.00736524 2 0 0.0994487 -0.0853457
319 1 5.78575 5.42185 0.301847 4 0.0107128 2 0 0.0994487 0.0125004
320 1 5.6935 6.24342 0.9632 4 0.0126891 2 0 0.0994487 -0.967779
321 1 6.4578 5.98425 1.59671 4 0.0157164 2 0 0.0994487 0.140912
322 1 6.43234 6.86927 1.00965 4 0.0192013 2 0 0.0994487 0.851661
323 1 6.37773 6.04115 0.154639 4 0.0147455 2 0 0.0994487 0.111111
324 1 5.54993 7.05206 0.147147 4 0.0135749 2 0 0.0994487 0.0363846
325 1 8.21355 5.31419 0.694273 4 0.0261045 2 0 0.0994487 -0.0895959
326 1 7.32761 6.15925 0.754293 4 0.0227763 2 0 0.0994487 0.225728
327 1 7.39163 5.41839 1.49138 4 0.0194909 2 0 0.0994487 0.136751
328 1 8.23884 6.11028 1.49159 4 0.0322039 2 0 0.0994487 0.018736
329 1 8.01352 6.85364 0.728993 4 0.0358756 2 0 0.0994487 0.0691835
330 1 7.28191 6.86379 1.59601 4 0.0275432 2 1 0.0994487 0.126034
331 1 7.33029 5.3575 0.0461812 4 0.0181493 2 0 0.0994487 0.0813559
332 1 9.76796 5.3194 0.792562 4 0.0425031 2 0 0.0994487 0.328445
333 1 8.88016 6.18865 0.736908 4 0.0409069 2 0 0.0994487 -0.235546
334 1 9.05434 5.3271 1.5973 4 0.0347623 2 0 0.0994487 -0.0628318
335 1 9.73844 6.19052 1.46731 4 0.0543807 2 0 0.0994487 -0.10655
336 1 9.09351 6.95013 1.463 4 0.0549511 2 2 0.0994487 -0.0762059
337 1 9.76329 6.23201 0.0941385 4 0.0534128 2 0 0.0994487 -0.0359526
338 1 8.99733 5.46479 0.012702 4 0.0347032 2 0 0.0994487 -0.134754
339 1 10.5831 6.02196 0.964384 4 0.0656605 2 0 0.0994487 -0.356215
340 1 11.3128 6.37134 0.0776634 4 0.0814252 2 0 0.0994487 0.100342
341 1 10.5187 6.94145 0.15452 4 0.0779716 2 0 0.0994487 -0.0735266
342 1 10.4686 6.92564 1.49614 4 0.0819777 2 1 0.0994487 -0.063494
343 1 11.9994 5.6274 0.183157 4 0.0831749 2 0 0.0994487 -0.0105306
344 1 12.6757 5.81849 0.861776 4 0.105275 2 0 0.0994487 0.0817331
345 1 11.7774 6.20735 1.05291 4 0.0915139 2 0 0.0994487 0.292322
346 1 13.3219 5.86668 1.55471 4 0.123984 2 0 0.0994487 0.208202
347 1 13.3506 6.58297 0.813679 4 0.153773 2 0 0.0994487 -0.291899
348 1 13.3212 5.53867 0.0424813 4 0.116898 2 0 0.0994487 -0.142911
349 1 14.0617 5.71565 0.77266 4 0.146804 2 0 0.0994487 -0.372686
350 1 14.3278 6.65176 1.40646 4 0.203338 2 0 0.0994487 -0.10114
351 1 14.1303 6.38483 0.0380077 4 0.167769 2 0 0.0994487 -0.0826106
352 1 15.0282 5.64393 0.034369 4 0.174091 2 0 0.0994487 0.0573627
353 1 15.8305 5.73813 0.95832 4 0.215828 2 0 0.0994487 0.625729
354 1 15.0472 6.45091 0.806774 4 0.220414 2 0 0.0994487 -0.174536
355 1 16.491 6.45257 1.1401 3 0.300957 2 0 0.0990845 0.204617
356 1 15.1058 5.87594 1.69804 4 0.199208 2 0 0.0994487 -0.0976847
357 1 16.62 5.41933 0.276819 4 0.223476 2 0 0.0994487 0.0799196
358 1 15.6753 6.3382 0.0390223 4 0.233314 2 0 0.0994487 0.0398013
359 1 17.8271 5.30128 0.541411 3 0.255491 2 0 0.0994178 0.150324
360 1 17.113 5.42499 1.24767 4 0.245957 2 0 0.0994487 -0.28658
361 1 17.0619 6.27419 0.411469 3 0.302416 2 0 0.0990711 0.138983
362 1 17.6649 6.24649 1.38542 3 0.33632 2 0 0.0986991 -0.258196
363 1 18.2745 7.0517 1.13153 3 0.445381 2 0 0.0961878 0.685564
364 1 18.3714 6.23173 0.609762 3 0.360785 2 0 0.0983422 0.156202
365 1 19.429 5.75829 0.62055 3 0.358736 2 0 0.0983755 0.0571841
366 1 19.3279 6.55755 1.35081 3 0.449926 2 0 0.0960148 0.289832
367 1 19.9942 6.75229 0.610261 3 0.534108 2 0 0.0910401 -0.0116153
368 1 20.7494 5.77593 0.653722 3 0.436227 2 0 0.0965141 -0.104072
369 1 20.1931 5.61076 1.39557 3 0.381367 2 0 0.0979679 0.312208
370 1 20.7787 6.6124 1.30355 3 0.590286 2 0 0.0849192 -0.34465
371 1 21.6592 6.66248 0.666524 3 0.607471 2 0 0.0824046 -0.0434219
372 1 21.6631 5.87866 1.38528 3 0.502914 2 0 0.0933431 0.0420973
373 1 21.6904 5.73259 0.0517844 3 0.456728 2 0 0.0957415 -0.00150253
374 1 22.6732 5.8279 0.674154 3 0.485425 2 0 0.0943745 0.00265428
375 1 22.6319 6.69333 1.20734 3 0.643412 2 0 0.0759628 -0.202543
376 1 23.3484 6.78052 0.267835 3 0.604516 2 0 0.0828615 -0.125374
377 1 23.4822 5.88496 1.30013 3 0.490718 2 0 0.0940797 -0.17639
378 1 24.3197 6.56281 1.15825 3 0.536217 2 0 0.0908598 0.17392
379 1 24.1457 6.00685 0.427617 3 0.467415 2 0 0.0952749 0.00243804
380 1 25.6831 5.86213 0.700952 3 0.36748 2 0 0.0982286 0.163899
381 1 25.1124 6.04132 1.67733 3 0.419062 2 0 0.0970541 0.00366962
382 1 25.1593 6.74159 0.495153 3 0.488059 2 0 0.0942296 0.090392
383 1 25.8251 6.59457 1.40775 3 0.427163 2 0 0.0968103 0.0881043
384 1 26.6903 5.84511 1.4763 3 0.309727 2 0 0.099001 0.0917643
385 1 27.4966 5.54334 0.722172 4 0.240943 2 0 0.0994487 -0.251568
386 1 26.7485 6.36567 0.651888 3 0.344102 2 0 0.0985947 0.0387541
387 1 27.7011 6.47315 1.36539 3 0.290515 2 0 0.0991748 0.131497
388 1 28.3648 5.52203 1.4872 4 0.203778 2 0 0.0994487 0.0456351
389 1 27.7097 7.0074 0.530173 3 0.320511 2 0 0.0988881 0.0321275
390 1 29.3889 5.30889 0.818726 4 0.164542 2 0 0.0994487 0.316731
391 1 29.4379 6.18214 1.32212 4 0.1921 2 0 0.0994487 -0.00337908
392 1 29.5784 6.89773 0.506505 4 0.21429 2 0 0.0994487 0.0925893
393 1 28.4685 6.20589 0.638647 4 0.228394 2 0 0.0994487 -0.270076
394 1 29.3762 6.15398 0.0801838 4 0.192564 2 0 0.0994487 0.0969272
395 1 28.4822 5.38976 0.0592959 4 0.191015 2 0 0.0994487 -0.105002
396 1 30.9636 5.36838 0.595026 4 0.138378 2 0 0.0994487 0.667849
397 1 30.2159 5.45949 1.46813 4 0.148452 2 0 0.0994487 0.0540225
398 1 30.3958 6.18258 0.649752 4 0.169713 2 0 0.0994487 0.329003
399 1 31.2189 6.15516 1.38439 4 0.155395 2 0 0.0994487 0.587258
400 1 31.1994 6.95407 0.60342 4 0.179478 2 0 0.0994487 0.812252
401 1 31.7235 5.99622 0.446564 4 0.147384 2 0 0.0994487 0.879729
402 1 0.261851 7.63199 0.661866 4 0.00227245 2 0 0.0994487 -0.876374
403 1 0.831025 8.46344 0.61936 4 0.0028255 2 0 0.0994487 -0.577626
404 1 1.11211 7.86396 1.49711 4 0.0027348 2 0 0.0994487 -0.154429
405 1 0.356955 8.5626 1.47035 4 0.00257558 2 0 0.0994487 -0.764984
406 1 1.59266 7.76478 0.37187 4 0.00316195 2 0 0.0994487 -0.0897887
407 1 1.72382 8.61735 1.46471 4 0.00365407 2 0 0.0994487 0.0395958
408 1 2.48799 7.14986 0.476331 4 0.00403314 2 0 0.0994487 -0.083698
409 1 2.19177 8.6335 0.399707 4 0.00446304 2 0 0.0994487 -0.137269
410 1 2.39416 7.81099 1.27726 4 0.00424541 2 0 0.0994487 0.0869903
411 1 3.01349 8.51445 0.935533 4 0.00612878 2 0 0.0994487 -0.539319
412 1 3.24418 7.77117 0.327041 4 0.00611713 2 0 0.0994487 -0.196207
413 1 3.81243 8.45898 0.0822892 4 0.00814551 2 0 0.0994487 -0.04578
414 1 3.97971 7.67009 1.24863 4 0.00813485 2 0 0.0994487 -0.0554914
415 1 4.70459 8.25653 0.921772 4 0.011765 2 0 0.0994487 0.295317
416 1 4.67023 7.63706 0.247803 4 0.0104741 2 0 0.0994487 0.0376894
417 1 3.81127 8.34851 1.76162 4 0.0081834 2 0 0.0994487 -0.0574371
418 1 5.86955 8.34822 0.169905 4 0.018706 2 0 0.0994487 0.113103
419 1 5.48363 7.59071 1.03232 4 0.0152096 2 0 0.0994487 -0.467674
420 1 6.49365 7.53799 0.169175 4 0.0215592 2 0 0.0994487 0.187621
421 1 6.39674 8.23976 1.04384 4 0.0247862 2 0 0.0994487 0.338094
422 1 7.28583 7.76918 0.746313 4 0.0336389 2 1 0.0994487 0.00989908
423 1 8.2859 8.31376 0.868772 4 0.0556601 2 2 0.0994487 0.278105
424 1 7.27857 8.18368 1.7015 4 0.0393582 2 2 0.0994487 -0.174952
425 1 8.05208 7.48784 1.5604 4 0.0440098 2 1 0.0994487 0.184985
426 1 7.99895 7.60312 0.0282118 4 0.0404633 2 0 0.0994487 0.0674119
427 1 9.84313 7.22199 0.72344 4 0.0725296 2 1 0.0994487 -0.34698
428 1 8.91207 7.61626 0.661731 4 0.0583893 2 1 0.0994487 0.158473
429 1 9.73234 8.61964 0.693151 4 0.0947592 2 3 0.0994487 -0.256928
430 1 9.09265 8.69904 1.44495 4 0.085569 2 9 0.0994487 -0.393726
431 1 9.64026 7.88932 1.60055 4 0.0881218 2 8 0.0994487 -0.340613
432 1 11.3161 7.14287 0.810636 4 0.10203 2 1 0.0994487 0.448643
433 1 10.5731 7.9454 0.844311 4 0.103992 2 3 0.0994487 -0.197659
434 1 10.5877 8.70196 1.4255 4 0.124547 1 8 0.0994487 -0.150239
435 1 11.4057 7.80503 1.60301 4 0.131873 2 6 0.0994487 0.225918
436 1 11.227 8.11851 0.0422735 4 0.116224 2 0 0.0994487 0.174343
437 1 12.7061 7.28322 0.565784 4 0.155627 2 0 0.0994487 -0.0536139
438 1 12.178 8.23518 0.590765 4 0.160698 2 2 0.0994487 0.163293
439 1 12.0637 7.15788 1.37768 4 0.128722 2 3 0.0994487 0.141719
440 1 12.0887 8.68064 1.49044 4 0.182964 1 5 0.0994487 0.0744392
441 1 12.8601 7.99585 1.47598 4 0.203736 2 3 0.0994487 -0.235245
442 1 14.3373 7.3542 0.580954 4 0.230407 2 0 0.0994487 0.0674021
443 1 13.6169 8.09282 0.464536 4 0.22584 2 1 0.0994487 0.0264307
444 1 13.458 7.34024 1.34133 4 0.199468 2 1 0.0994487 0.0587156
445 1 14.2471 8.18371 1.35246 3 0.285624 2 0 0.099214 0.156643
446 1 16.4328 7.18497 0.276798 3 0.344032 2 0 0.0985957 -0.0655657
447 1 15.6276 7.3114 0.923132 3 0.316696 2 0 0.0989294 -0.449068
448 1 15.0689 8.29247 0.865596 3 0.339615 2 0 0.0986559 -0.33535
449 1 16.2796 8.1617 1.10433 0 0.418394 1 0 0.0970735 -0.339611
450 1 15.1452 7.52269 1.62484 3 0.320873 2 0 0.0988841 -0.396607
451 1 15.8668 8.31534 0.152632 3 0.387297 2 0 0.0978454 -0.193718
452 1 16.977 7.36262 1.11681 3 0.405015 2 0 0.0974342 0.325531