ITEM: TIMESTEP
24500
ITEM: NUMBER OF ATOMS
9495
ITEM: BOX BOUNDS mm mm mm
0.0000000000000000e+00 3.1748021039364001e+01
0.0000000000000000e+00 3.1748021039364001e+01
-7.4072398406925706e-04 3.1748021039364001e+01
ITEM: ATOMS id type x y z c_phase c_temp c_surf c_nbond c_visc f_3[1]
1 1 0.116341 1.10259 0.464337 4 8.47482e-07 2 0 0.0994487 -0.68194
2 1 0.974108 1.6685 0.77798 4 1.6788e-06 2 0 0.0994487 -0.517031
3 1 0.714648 0.793562 1.41295 4 1.07272e-06 2 0 0.0994487 -0.281793
4 1 0.00336375 1.60273 1.37437 4 9.78937e-07 2 0 0.0994487 -0.804051
5 1 0.729896 0.0633724 0.61602 4 7.60507e-07 3 0 0.0994487 -0.190374
6 1 1.71015 0.808983 1.0155 4 2.18282e-06 2 0 0.0994487 -0.332068
7 1 1.80059 1.47468 0.221075 4 2.49757e-06 2 0 0.0994487 -0.125828
8 1 1.82015 1.66049 1.76126 4 2.81947e-06 2 0 0.0994487 -0.139532
9 1 2.52093 0.749102 0.203812 4 3.30484e-06 2 0 0.0994487 -0.142939
10 1 2.59149 0.0538711 1.03726 4 3.1685e-06 2 0 0.0994487 -0.295004
11 1 2.64922 1.541 0.882848 4 4.81062e-06 2 0 0.0994487 0.235764
12 1 2.66829 0.815502 1.7457 4 3.92967e-06 2 0 0.0994487 -0.187039
13 1 3.43386 0.933692 0.956349 4 7.13682e-06 2 0 0.0994487 0.320249
14 1 3.49924 0.0925696 1.70571 4 5.15999e-06 2 0 0.0994487 0.178054
15 1 3.60652 1.70798 1.71994 4 9.96504e-06 2 0 0.0994487 0.0487972
16 1 4.10576 0.858321 0.325305 4 1.11694e-05 2 0 0.0994487 0.153149
17 1 4.96159 0.56786 1.17466 4 2.13004e-05 2 0 0.0994487 -0.0370634
18 1 4.91949 1.59987 0.383508 4 2.67739e-05 2 0 0.0994487 -0.100244
19 1 4.3472 0.941527 1.62884 4 1.38949e-05 2 0 0.0994487 0.110741
20 1 3.47612 0.111428 0.171027 4 4.83699e-06 2 0 0.0994487 0.166216
21 1 5.64741 0.645627 0.325839 4 3.42244e-05 2 0 0.0994487 -0.0806024
22 1 5.88414 1.31048 0.938036 4 4.7367e-05 2 0 0.0994487 -0.199563
23 1 6.57478 1.39104 0.218369 4 7.42637e-05 2 0 0.0994487 -0.08613
24 1 5.78374 0.460658 1.69897 4 3.44225e-05 2 0 0.0994487 -0.0846499
25 1 5.03122 1.72414 1.43602 4 2.90777e-05 2 0 0.0994487 0.0453765
26 1 6.7138 0.39031 0.865278 4 6.46377e-05 2 0 0.0994487 -0.0793786
27 1 6.69104 1.00962 1.69374 4 6.90925e-05 2 0 0.0994487 -0.10792
28 1 8.2679 0.408875 1.07337 4 0.000154506 2 0 0.0994487 -0.100162
29 1 7.36782 1.22285 0.954198 4 0.000115015 2 0 0.0994487 -0.302532
30 1 8.24709 1.39092 0.236779 4 0.000194769 2 0 0.0994487 -0.0460598
31 1 8.12868 1.27217 1.60653 4 0.000171553 2 0 0.0994487 -0.00811264
32 1 7.58247 0.647807 0.140287 4 0.000111457 2 0 0.0994487 -0.110933
33 1 8.85849 0.508506 0.273966 4 0.000213389 2 0 0.0994487 -0.0616433
34 1 9.55301 0.3386 0.888639 4 0.000298189 2 0 0.0994487 0.00506827
35 1 9.02586 1.30716 1.1133 4 0.000293044 2 0 0.0994487 -0.0606305
37 1 9.63995 1.37474 0.0900752 4 0.000376692 2 0 0.0994487 0.0992945
38 1 11.2128 0.215893 0.632658 4 0.000680349 2 0 0.0994487 0.203508
39 1 10.3637 1.04743 0.823114 4 0.000532236 2 0 0.0994487 0.539898
40 1 10.523 0.196295 1.44539 4 0.000472986 2 0 0.0994487 0.0644318
41 1 11.2856 1.01846 1.41785 4 0.000903437 2 0 0.0994487 0.164715
42 1 10.5797 1.67706 1.72992 4 0.000740381 2 0 0.0994487 0.118169
43 1 10.2431 0.367861 0.0780499 4 0.000375171 2 0 0.0994487 0.149803
44 1 12.8757 0.211714 0.636805 4 0.00165561 2 0 0.0994487 0.0587919
45 1 12.0457 1.07408 0.506655 4 0.00140504 2 0 0.0994487 -0.0235451
46 1 12.1319 0.316439 1.29957 4 0.00120427 2 0 0.0994487 0.0188419
47 1 12.7194 1.19864 1.3723 4 0.00203532 2 0 0.0994487 -0.030519
48 1 14.3729 0.318493 0.764646 4 0.00325873 2 0 0.0994487 -0.0460349
49 1 13.5924 1.113 0.843618 4 0.00299628 2 0 0.0994487 -0.263041
50 1 14.0399 1.55958 0.167469 4 0.00404212 2 0 0.0994487 -0.0898215
51 1 13.6075 0.359834 1.6352 4 0.00235747 2 0 0.0994487 -0.0562598
52 1 14.3777 1.14948 1.47647 4 0.00387602 2 0 0.0994487 -0.0178225
53 1 14.8761 1.55337 0.662943 4 0.00529205 2 0 0.0994487 0.389958
54 1 15.7061 0.770636 0.788259 4 0.00569093 2 0 0.0994487 0.366489
55 1 16.5532 1.54451 0.681338 4 0.0100461 2 0 0.0994487 0.000812362
56 1 15.1422 0.4642 1.64149 4 0.00417875 2 0 0.0994487 0.15208
57 1 16.547 0.712289 1.3421 4 0.00797418 2 0 0.0994487 0.0956312
58 1 15.6341 1.48544 1.3916 4 0.00689316 2 0 0.0994487 0.153638
59 1 15.1049 0.711806 0.0677822 4 0.00416507 2 0 0.0994487 0.169205
60 1 17.2544 0.732268 0.547589 4 0.0099669 2 0 0.0994487 0.0286329
61 1 17.9231 1.58109 0.757246 4 0.0151751 2 0 0.0994487 0.041568
62 1 17.916 0.742935 1.42801 4 0.012329 2 0 0.0994487 -0.224374
63 1 17.2202 1.74884 1.56274 4 0.0135812 2 0 0.0994487 -0.0984795
64 1 19.5372 0.0167772 0.662766 4 0.0134301 2 0 0.0994487 0.0436445
65 1 18.7918 0.725074 0.684829 4 0.0142713 2 0 0.0994487 -0.269944
66 1 19.5395 1.55488 0.841653 4 0.0204852 2 0 0.0994487 -0.341159
67 1 19.0276 0.158607 1.54508 4 0.0131402 2 0 0.0994487 -0.158663
68 1 19.5934 0.967491 1.68957 4 0.0170029 2 0 0.0994487 0.00835207
69 1 18.6564 1.51302 1.50035 4 0.0175424 2 0 0.0994487 -0.250305
70 1 21.0889 0.349843 1.06749 4 0.0173877 2 0 0.0994487 -0.196126
71 1 20.2493 0.776373 0.980057 4 0.0177603 2 0 0.0994487 -0.0497598
72 1 21.1062 1.65725 0.951506 4 0.0241948 2 0 0.0994487 0.692915
73 1 21.1874 0.765598 0.218806 4 0.0185072 2 0 0.0994487 -0.0445907
74 1 20.3457 1.51479 0.193617 4 0.0217925 2 0 0.0994487 -0.0806021
75 1 22.0087 0.262534 0.539755 4 0.0174766 2 0 0.0994487 0.0993593
76 1 22.7913 0.430275 1.40734 4 0.0183667 2 0 0.0994487 0.206599
77 1 22.1105 1.14763 1.32981 4 0.0212792 2 0 0.0994487 0.240023
78 1 21.9982 1.59955 0.538558 4 0.0248007 2 0 0.0994487 0.185172
79 1 22.9157 1.07463 0.445168 4 0.0211446 2 0 0.0994487 0.0520842
80 1 24.228 0.380179 1.45209 4 0.0178376 2 0 0.0994487 0.0576162
81 1 23.5672 0.357563 0.57369 4 0.0181307 2 0 0.0994487 0.0385705
82 1 24.4367 1.18687 0.754729 4 0.0215962 2 0 0.0994487 -0.0192978
83 1 23.4757 1.2499 1.4028 4 0.0228762 2 0 0.0994487 0.0298765
84 1 24.955 0.315686 0.551996 4 0.0163268 2 0 0.0994487 -0.0171996
85 1 26.0085 0.383365 1.1715 4 0.0139408 2 0 0.0994487 -0.185861
86 1 25.169 1.12579 1.48087 4 0.0197939 2 0 0.0994487 0.0251039
87 1 25.9301 1.73476 1.35794 4 0.0213332 2 0 0.0994487 0.0345339
88 1 25.8917 0.929212 0.432102 4 0.0160756 2 0 0.0994487 -0.095421
89 1 27.5736 1.28032 0.38906 4 0.0120891 2 0 0.0994487 0.0454484
90 1 27.6142 0.50928 0.874321 4 0.0102473 2 0 0.0994487 0.175387
91 1 26.7559 1.02809 1.26347 4 0.013666 2 0 0.0994487 -0.236889
92 1 28.3748 0.337482 1.39813 4 0.00802578 2 0 0.0994487 0.00984353
93 1 26.7925 0.240345 0.226621 4 0.0112391 2 0 0.0994487 0.0380743
94 1 28.6489 1.24263 0.742341 4 0.00925463 2 0 0.0994487 0.102405
95 1 29.3912 0.945639 1.56878 4 0.00686512 2 0 0.0994487 -0.0192014
96 1 28.5228 1.71921 1.49749 4 0.0106712 2 0 0.0994487 -0.0429821
97 1 29.8133 0.173958 1.46124 4 0.00532552 2 0 0.0994487 0.133416
98 1 29.2734 0.3547 0.615275 4 0.00618163 2 0 0.0994487 -0.0816817
99 1 31.5874 0.266128 1.25663 4 0.00326837 3 0 0.0994487 0.830097
100 1 30.7016 0.49015 0.470738 4 0.0045422 2 0 0.0994487 0.354852
101 1 30.1009 1.19877 0.774133 4 0.00624671 2 0 0.0994487 0.210919
102 1 30.8649 0.971942 1.39386 4 0.00497439 2 0 0.0994487 0.703281
103 1 1.11081 2.43607 0.129285 4 2.04599e-06 2 0 0.0994487 -0.0373217
104 1 0.133403 2.3821 0.812241 4 1.39458e-06 2 0 0.0994487 -0.984517
105 1 1.28845 3.23764 0.949187 4 3.41482e-06 2 0 0.0994487 0.222101
106 1 1.13977 2.36077 1.59162 4 2.32507e-06 2 0 0.0994487 -0.222188
107 1 0.386685 3.02999 1.54944 4 1.95361e-06 2 0 0.0994487 -0.671256
108 1 0.332248 3.09582 0.131296 4 1.77762e-06 2 0 0.0994487 -0.59134
109 1 1.90972 2.41867 0.78376 4 3.79299e-06 2 0 0.0994487 0.0782128
110 1 2.65852 3.28029 0.860875 4 9.37113e-06 2 0 0.0994487 0.0668089
111 1 2.66931 2.22918 1.53373 4 6.1372e-06 2 0 0.0994487 0.0829574
112 1 3.2579 3.42668 1.64938 4 1.50768e-05 2 0 0.0994487 0.00397797
113 1 2.7261 2.38168 0.0557193 4 5.641e-06 2 0 0.0994487 0.146602
114 1 3.38195 2.55413 0.779289 4 1.17303e-05 2 0 0.0994487 0.211588
115 1 4.00679 1.841 0.711184 4 1.48595e-05 2 0 0.0994487 -0.0361183
116 1 4.91383 2.57277 0.815661 4 3.70852e-05 2 0 0.0994487 -0.259341
117 1 4.20148 3.3175 0.749446 4 2.93629e-05 2 0 0.0994487 0.00622039
118 1 4.13245 2.64107 1.58328 4 2.12375e-05 2 0 0.0994487 0.0270812
119 1 5.65047 2.44269 0.132743 4 5.65099e-05 2 0 0.0994487 -0.189923
120 1 6.55776 2.18062 0.772597 4 9.40565e-05 2 0 0.0994487 -0.289353
121 1 5.64874 3.19593 0.952489 4 7.52997e-05 2 0 0.0994487 -0.754619
122 1 5.861 2.19426 1.49672 4 5.89629e-05 2 0 0.0994487 0.0126397
123 1 6.52037 3.06691 1.5557 4 0.000122339 2 0 0.0994487 0.0443618
124 1 6.65033 2.92778 0.134227 4 0.000116697 2 0 0.0994487 0.0288901
125 1 7.45405 2.22586 0.139832 4 0.000161043 2 0 0.0994487 -0.0534982
126 1 8.08209 2.20208 0.930382 4 0.000239344 2 0 0.0994487 -0.302038
127 1 7.40132 3.06835 0.934051 4 0.000217903 2 0 0.0994487 -0.0454714
128 1 7.29928 2.06035 1.56856 4 0.000139186 2 0 0.0994487 -0.0607288
129 1 8.18545 3.00183 1.65211 4 0.000334143 2 0 0.0994487 -0.0454116
130 1 8.26934 2.9712 0.0392146 4 0.000346226 2 0 0.0994487 -0.150613
131 1 8.90393 2.08699 0.252387 4 0.000347931 2 0 0.0994487 0.00243832
132 1 9.77243 2.0246 1.10996 4 0.000556042 2 0 0.0994487 0.173483
133 1 8.92671 2.97262 0.928693 4 0.000518234 2 0 0.0994487 -0.156717
134 1 9.03062 2.22066 1.70398 4 0.000400382 2 0 0.0994487 -0.0819639
135 1 9.56096 2.90576 0.21312 4 0.000663593 2 0 0.0994487 0.173125
136 1 10.2834 2.1137 0.214297 4 0.000665519 2 0 0.0994487 0.337742
137 1 11.1583 1.82604 0.771092 4 0.00109336 2 0 0.0994487 0.2601
138 1 10.6214 2.80819 0.921535 4 0.00120895 2 0 0.0994487 0.541935
139 1 11.4444 2.82964 1.57484 4 0.00192143 2 0 0.0994487 0.095207
140 1 12.6737 1.94118 0.593851 4 0.00264958 2 0 0.0994487 -0.283925
141 1 11.928 2.64099 0.742299 4 0.0023085 2 0 0.0994487 -0.038664
142 1 11.9239 1.9206 1.46509 4 0.0017233 2 0 0.0994487 0.0946615
143 1 12.8449 3.01766 1.68597 4 0.00403958 2 0 0.0994487 0.0363619
144 1 13.1791 3.03035 0.848852 4 0.00486554 2 0 0.0994487 -0.440838
145 1 13.3784 1.9912 1.48064 4 0.00351806 2 0 0.0994487 -0.0150649
146 1 14.0206 2.44438 0.927124 4 0.00549988 2 0 0.0994487 -0.133073
147 1 14.0279 3.38359 1.55716 4 0.00780628 2 0 0.0994487 0.0255801
148 1 14.6961 3.43698 0.884932 4 0.0105229 2 0 0.0994487 -0.332916
149 1 14.7823 2.29758 1.44821 4 0.00684285 2 0 0.0994487 0.0469321
150 1 14.8418 2.51505 0.136557 4 0.0074888 2 0 0.0994487 0.173009
151 1 14.1591 3.2262 0.0325348 4 0.00779278 2 0 0.0994487 -0.246102
152 1 13.4137 2.29398 0.0590902 4 0.00410536 2 0 0.0994487 -0.280958
153 1 15.6993 2.44373 0.692668 4 0.0101901 2 0 0.0994487 0.364404
154 1 16.3029 3.20095 0.662084 4 0.0166122 2 0 0.0994487 0.328596
155 1 16.308 2.47951 1.52575 4 0.0131822 2 0 0.0994487 -0.100642
156 1 15.3694 3.25723 1.50191 4 0.0126588 2 0 0.0994487 -0.00766395
157 1 15.5706 3.25854 0.0192499 4 0.0122272 2 0 0.0994487 0.290241
158 1 17.0646 2.35032 0.682778 4 0.0157587 2 0 0.0994487 0.0234866
159 1 17.944 2.92608 0.699539 4 0.0258779 2 0 0.0994487 -0.231186
160 1 18.0193 2.43917 1.58112 4 0.0215416 2 0 0.0994487 -0.149131
161 1 17.0918 3.1162 1.49491 4 0.02177 2 0 0.0994487 -0.143429
162 1 18.8908 2.35742 1.01358 4 0.0249125 2 0 0.0994487 -0.516828
163 1 19.7027 3.2427 1.27782 4 0.0389905 2 0 0.0994487 0.394882
164 1 18.884 2.99607 0.196019 4 0.0316611 2 0 0.0994487 -0.171808
165 1 19.587 2.34239 0.101452 4 0.0271922 2 0 0.0994487 -0.13237
166 1 20.3251 1.78863 1.72442 4 0.0231337 2 0 0.0994487 0.0449537
167 1 21.1565 2.41663 0.458355 4 0.0328287 2 0 0.0994487 0.196188
168 1 20.1948 2.46882 1.11433 4 0.030093 2 0 0.0994487 0.286745
169 1 21.31 3.29463 1.39314 4 0.0503125 2 0 0.0994487 0.0777298
170 1 20.4222 2.99313 0.334941 4 0.0380528 2 0 0.0994487 0.186291
171 1 22.8719 2.07007 1.50872 4 0.0316347 2 0 0.0994487 -0.0221238
172 1 22.9717 2.60199 0.735523 4 0.0416789 2 0 0.0994487 0.133325
173 1 22.0961 2.49917 1.23787 4 0.0377243 2 0 0.0994487 0.186438
174 1 21.9898 3.20043 0.598797 4 0.0526236 2 0 0.0994487 -0.0757494
175 1 22.6771 3.40124 0.07601 4 0.0590661 2 0 0.0994487 0.0760735
176 1 23.7438 1.80844 0.624025 4 0.0276621 2 0 0.0994487 -0.0873601
177 1 24.4289 1.98763 1.61102 4 0.0290103 2 0 0.0994487 -0.0641764
178 1 24.342 2.68296 0.775192 4 0.0391429 2 0 0.0994487 -0.341094
179 1 23.6887 2.90303 1.53628 4 0.0454154 2 0 0.0994487 -0.110506
180 1 24.4728 3.51078 1.55704 4 0.0566492 2 0 0.0994487 -0.118306
181 1 24.9562 2.84566 0.0146836 4 0.0375949 2 0 0.0994487 -0.08646
182 1 26.5483 1.79415 0.511367 4 0.0185791 2 0 0.0994487 -0.00560181
183 1 25.1322 1.85613 0.509414 4 0.0255839 2 0 0.0994487 -0.0215303
184 1 25.7918 2.61203 0.707489 4 0.0315415 2 0 0.0994487 0.228199
185 1 25.1579 2.55548 1.52547 4 0.0340617 2 0 0.0994487 0.0576655
186 1 25.7213 3.49812 1.51211 4 0.0475157 2 0 0.0994487 0.123855
187 1 26.5364 2.56002 1.53049 4 0.0256837 2 0 0.0994487 0.0579458
188 1 26.1686 3.50068 0.599043 4 0.0431909 2 0 0.0994487 0.168842
189 1 27.5039 1.98546 1.23792 4 0.0153851 2 0 0.0994487 -0.186422
190 1 28.2489 2.09022 0.343734 4 0.012974 2 0 0.0994487 -0.0177256
191 1 27.0867 2.6924 0.645359 4 0.0231065 2 0 0.0994487 -0.105603
192 1 27.1998 3.35397 1.41682 4 0.0294274 2 0 0.0994487 -0.0983311
193 1 28.2537 2.75799 1.20639 4 0.0164454 2 0 0.0994487 -0.41831
194 1 27.982 3.21993 0.326384 4 0.0209561 2 0 0.0994487 -0.125258
195 1 29.9568 1.80906 1.70764 4 0.00756329 2 0 0.0994487 0.1832
196 1 29.4477 2.04702 0.879698 4 0.00936107 2 0 0.0994487 -0.00708642
197 1 29.1956 2.6589 0.290703 4 0.0118703 2 0 0.0994487 -0.0578292
198 1 29.2495 3.2651 1.17365 4 0.0145594 2 0 0.0994487 0.11863
199 1 30.9114 1.98502 0.924207 4 0.00687509 2 0 0.0994487 0.967251
200 1 30.1815 2.71094 1.00186 4 0.00952904 2 0 0.0994487 0.67511
201 1 31.0247 3.35309 0.97101 4 0.00992368 2 0 0.0994487 0.998409
202 1 30.9865 2.69483 1.72648 4 0.00820457 2 0 0.0994487 0.578502
203 1 30.1092 3.25953 0.132205 4 0.0108134 2 0 0.0994487 -0.0443663
204 1 30.4116 1.90909 0.0255368 4 0.00695892 2 0 0.0994487 0.106044
205 1 31.1434 2.66402 0.0761253 4 0.00763769 2 0 0.0994487 0.70882
206 1 0.293831 3.78503 0.918557 4 2.42648e-06 2 0 0.0994487 -0.999347
207 1 0.143046 4.59443 0.482118 4 2.83507e-06 2 0 0.0994487 -0.784494
208 1 1.14036 4.67093 0.986638 4 5.24973e-06 2 0 0.0994487 -0.516746
209 1 0.0884667 5.26681 1.27761 4 3.43253e-06 2 0 0.0994487 -0.887458
210 1 1.04069 3.86421 0.0595682 4 3.32591e-06 2 0 0.0994487 0.0148887
211 1 1.84117 4.04604 0.847105 4 7.00351e-06 2 0 0.0994487 0.00827557
212 1 2.54049 4.85585 1.13748 4 1.52448e-05 2 0 0.0994487 -0.333841
213 1 2.64953 4.14475 0.20674 4 1.30307e-05 2 0 0.0994487 -0.0285704
214 1 1.89758 4.96895 0.278386 4 9.97131e-06 2 0 0.0994487 -0.153432
215 1 3.40771 4.86189 0.161635 4 2.81973e-05 2 0 0.0994487 -0.0163857
216 1 3.494 4.07675 0.885909 4 2.33903e-05 2 0 0.0994487 0.026903
217 1 4.91235 4.00001 1.18344 4 6.16117e-05 2 0 0.0994487 0.0115281
218 1 4.04658 4.88002 1.14639 4 4.50144e-05 2 0 0.0994487 0.264497
219 1 4.26027 4.18509 0.149001 4 4.08915e-05 2 0 0.0994487 0.0377405
220 1 5.00947 4.74001 0.341082 4 8.38306e-05 2 0 0.0994487 0.0765444
221 1 5.77735 3.9378 0.198707 4 9.76627e-05 2 0 0.0994487 0.0260184
222 1 6.48883 3.76611 0.772067 4 0.000153897 2 0 0.0994487 0.204563
223 1 5.68025 4.73638 1.02487 4 0.000136391 2 0 0.0994487 -0.621654
224 1 6.66321 4.5115 1.6428 4 0.000223106 2 0 0.0994487 0.158938
225 1 6.68072 5.1315 0.885352 4 0.000297414 2 0 0.0994487 0.206879
226 1 8.1982 3.892 0.700757 4 0.0004999 2 0 0.0994487 -0.369889
227 1 7.40842 4.46072 0.5468 4 0.000374009 2 0 0.0994487 -0.0252058
228 1 7.39886 3.87029 1.49684 4 0.000288724 2 0 0.0994487 0.102583
229 1 8.20004 4.61106 1.48677 4 0.000641774 2 0 0.0994487 -0.0118305
230 1 9.8976 3.57792 0.885667 4 0.00112897 2 0 0.0994487 0.592869
231 1 9.07913 4.56551 0.821335 4 0.00105736 2 0 0.0994487 -0.658516
232 1 9.86266 4.50302 0.126324 4 0.00143051 2 0 0.0994487 0.0958699
233 1 9.07829 3.76256 1.49819 4 0.000780388 2 0 0.0994487 -0.0708798
234 1 9.86881 4.3462 1.65532 4 0.00151022 2 0 0.0994487 -0.085657
235 1 8.98541 3.86821 0.0631775 4 0.000738137 2 0 0.0994487 -0.13875
236 1 11.408 3.64493 0.778297 4 0.00260877 2 0 0.0994487 0.202078
237 1 10.5891 4.66652 0.906264 4 0.00246172 2 0 0.0994487 0.0451198
238 1 11.3867 4.69403 0.230734 4 0.0037644 2 0 0.0994487 -0.0498836
239 1 10.7059 3.56689 1.58785 4 0.00175948 2 0 0.0994487 -0.0448426
240 1 11.3652 4.3716 1.70545 4 0.00333248 2 0 0.0994487 -0.0798215
241 1 11.3894 5.27213 0.983682 4 0.00461592 2 0 0.0994487 -0.674454
242 1 10.5826 3.84888 0.176129 4 0.00170821 2 0 0.0994487 0.210471
243 1 12.5168 3.57716 0.814749 4 0.00444121 2 0 0.0994487 -0.0105654
244 1 12.1916 4.55033 1.00021 4 0.00538591 2 0 0.0994487 0.105091
245 1 12.7362 4.99738 1.68903 4 0.00762157 2 0 0.0994487 0.191336
246 1 13.2258 4.67863 0.80017 4 0.00921024 2 0 0.0994487 -0.00467347
247 1 12.6435 4.61885 0.0632315 4 0.00695601 2 0 0.0994487 -0.0335757
248 1 13.9891 4.12825 0.69648 4 0.010633 2 0 0.0994487 -0.430167
249 1 13.4832 4.21781 1.59317 4 0.00840848 2 0 0.0994487 0.0820239
250 1 14.2046 5.11838 1.52001 4 0.0161899 2 0 0.0994487 -0.0289842
251 1 14.9402 5.01141 0.811699 4 0.0209096 2 0 0.0994487 -0.0525913
252 1 14.9642 4.4167 1.59432 4 0.0170501 2 0 0.0994487 -0.0635573
253 1 14.1405 4.90647 0.0597868 4 0.0146154 2 0 0.0994487 -0.08569
254 1 14.961 4.19423 0.096508 4 0.0150193 2 0 0.0994487 0.0322765
255 1 15.6685 4.06642 0.926277 4 0.0190225 2 0 0.0994487 0.872623
256 1 15.8798 4.77595 0.186426 4 0.0262488 2 0 0.0994487 0.165395
257 1 16.5936 4.58036 0.900182 4 0.0322041 2 0 0.0994487 -0.0789436
258 1 16.3184 3.95875 1.6903 4 0.0231999 2 0 0.0994487 -0.0433929
259 1 15.8111 5.05317 1.64084 4 0.0284919 2 0 0.0994487 0.0995036
260 1 17.2689 3.83372 0.811237 4 0.0305452 2 0 0.0994487 -0.345378
261 1 18.0864 4.48855 1.09806 4 0.0472058 2 0 0.0994487 -0.612119
262 1 17.9525 3.63794 1.65602 4 0.0336062 2 0 0.0994487 -0.192803
263 1 17.4569 4.57727 0.0147963 4 0.0398836 2 0 0.0994487 -0.0974083
264 1 18.1348 3.8547 0.0583493 4 0.0370237 2 0 0.0994487 -0.120516
265 1 18.8779 3.70667 0.95022 4 0.041202 2 0 0.0994487 0.0692459
266 1 18.8235 4.60949 0.361826 4 0.0560409 2 0 0.0994487 0.115611
267 1 19.6906 4.67872 1.0803 4 0.0741549 2 0 0.0994487 0.931514
268 1 18.7859 5.27693 1.20102 4 0.076686 2 0 0.0994487 0.599085
269 1 19.5987 3.76722 0.227421 4 0.0465693 2 0 0.0994487 0.16427
270 1 20.4384 3.82188 1.23329 4 0.0576948 2 0 0.0994487 0.325955
271 1 20.8846 4.71868 1.39403 4 0.0995326 2 0 0.0994487 0.14906
272 1 21.5775 4.95128 0.810455 4 0.128434 2 0 0.0994487 -0.00375083
273 1 21.0824 3.93136 0.512408 4 0.0673099 2 0 0.0994487 0.088304
274 1 20.1339 4.78559 0.352846 4 0.0851275 2 0 0.0994487 0.145589
275 1 22.8205 3.63186 1.42135 4 0.0668128 2 0 0.0994487 -0.0184006
276 1 21.9406 4.13318 1.31068 4 0.0839805 2 0 0.0994487 0.0272039
277 1 22.4705 5.17735 1.27286 4 0.152511 2 0 0.0994487 0.0207032
278 1 22.6119 4.34705 0.510028 4 0.095858 2 0 0.0994487 -0.0221074
279 1 23.5735 3.63903 0.782677 4 0.0670743 2 0 0.0994487 0.185555
280 1 24.336 4.32055 0.625018 4 0.088733 2 0 0.0994487 -0.150098
281 1 23.4679 4.54946 1.33355 4 0.107096 2 0 0.0994487 -0.0790585
282 1 24.8518 5.25716 0.566763 4 0.125199 2 0 0.0994487 0.0409015
283 1 23.5518 5.06386 0.533607 4 0.137742 2 0 0.0994487 -0.0968924
284 1 25.0086 4.50055 1.62342 4 0.0861983 2 0 0.0994487 -0.0421976
285 1 25.0629 3.68037 0.802132 4 0.0578427 2 0 0.0994487 -0.187923
286 1 24.363 5.28843 1.43377 4 0.139612 2 0 0.0994487 -0.154715
287 1 25.6904 5.1389 1.34266 4 0.100526 2 0 0.0994487 0.210094
288 1 26.3575 4.29031 1.37159 4 0.0583432 2 0 0.0994487 0.149478
289 1 26.5026 4.97257 0.640732 4 0.0738948 2 0 0.0994487 0.0989624
290 1 25.5284 4.40089 0.388179 4 0.0735712 2 0 0.0994487 0.0559451
291 1 27.3302 4.86961 1.40568 4 0.0549596 2 0 0.0994487 0.00660621
292 1 27.9624 3.97641 1.10408 4 0.0296669 2 0 0.0994487 -0.309511
293 1 28.2771 4.73475 0.706344 4 0.037291 2 0 0.0994487 -0.0812516
294 1 27.0674 4.04323 0.570038 4 0.0418249 2 0 0.0994487 0.012019
295 1 28.9321 3.77016 0.487204 4 0.0193327 2 0 0.0994487 -0.00703437
296 1 29.0873 4.52317 1.33085 4 0.0253484 2 0 0.0994487 0.0574833
297 1 29.9979 4.07209 1.02303 4 0.0155097 2 0 0.0994487 -0.275234
298 1 31.0296 3.97382 0.373364 4 0.0117917 2 0 0.0994487 0.657582
299 1 30.2046 4.67765 0.491317 4 0.0186096 2 0 0.0994487 0.00995711
300 1 30.9783 4.59929 1.41131 4 0.0147889 2 0 0.0994487 0.679913
301 1 0.908283 5.53205 0.461647 4 6.14367e-06 2 0 0.0994487 -0.463784
302 1 1.53161 5.51184 1.37971 4 8.93552e-06 2 0 0.0994487 -0.117385
303 1 0.793684 6.22023 1.2768 4 7.1509e-06 2 0 0.0994487 -0.70338
304 1 0.257003 6.91734 1.50738 4 6.40653e-06 2 0 0.0994487 -0.772633
305 1 0.969942 6.9454 0.573423 4 9.93778e-06 2 0 0.0994487 -0.473532
306 1 1.7053 7.02884 1.23811 4 1.55073e-05 2 0 0.0994487 0.0665202
307 1 1.89588 6.19966 0.519025 4 1.45711e-05 2 0 0.0994487 -0.156398
308 1 3.10475 5.61709 1.30057 4 2.84634e-05 2 0 0.0994487 0.0402559
309 1 2.26359 6.15348 1.40977 4 1.76023e-05 2 0 0.0994487 0.0408578
310 1 3.25442 6.96226 1.12748 4 5.11573e-05 2 0 0.0994487 -0.0541192
311 1 2.68177 5.61289 0.273587 4 2.12769e-05 2 0 0.0994487 -0.0596835
312 1 3.39503 6.28191 0.500536 4 4.70301e-05 2 0 0.0994487 -0.121439
313 1 4.18979 5.46246 0.325783 4 6.17269e-05 2 0 0.0994487 0.0310217
314 1 4.93434 5.42873 1.31778 4 0.00011077 2 0 0.0994487 -0.235094
315 1 4.13622 6.09659 1.22779 4 7.73222e-05 2 0 0.0994487 -0.089384
316 1 4.82567 6.23357 0.333842 4 0.000127017 2 0 0.0994487 -0.0345712
317 1 4.77312 6.79931 1.15967 4 0.000153825 2 0 0.0994487 -0.305923
318 1 4.00267 7.02511 0.221759 4 8.86777e-05 2 0 0.0994487 -0.0853406
319 1 5.78575 5.42185 0.301847 4 0.000179972 2 0 0.0994487 0.0125066
320 1 5.6935 6.24342 0.9632 4 0.000233807 2 0 0.0994487 -0.967785
321 1 6.4578 5.98425 1.59671 4 0.000339717 2 0 0.0994487 0.140919
322 1 6.43234 6.86927 1.00965 4 0.000461007 2 0 0.0994487 0.85169
323 1 6.37773 6.04115 0.154639 4 0.000300247 2 0 0.0994487 0.111116
324 1 5.54993 7.05206 0.147147 4 0.000250543 2 0 0.0994487 0.0363903
325 1 8.21355 5.31419 0.694273 4 0.000843949 2 0 0.0994487 -0.0895764
326 1 7.32761 6.15925 0.754293 4 0.000636326 2 0 0.0994487 0.225746
327 1 7.39163 5.41839 1.49138 4 0.00050919 2 0 0.0994487 0.13676
328 1 8.23884 6.11028 1.49159 4 0.00113199 2 0 0.0994487 0.0187451
329 1 8.01352 6.85364 0.728993 4 0.0012758 2 0 0.0994487 0.0692003
330 1 7.28191 6.86379 1.59601 4 0.000826 2 1 0.0994487 0.126054
331 1 7.33029 5.3575 0.0461812 4 0.000441349 2 0 0.0994487 0.0813604
332 1 9.76796 5.3194 0.792562 4 0.00196987 2 0 0.0994487 0.328468
333 1 8.88016 6.18865 0.736908 4 0.00169876 2 0 0.0994487 -0.235526
334 1 9.05434 5.3271 1.5973 4 0.0013715 2 0 0.0994487 -0.0628253
335 1 9.73844 6.19052 1.46731 4 0.00276692 2 0 0.0994487 -0.106437
336 1 9.09351 6.95013 1.463 4 0.00260461 2 2 0.0994487 -0.0758265
337 1 9.76329 6.23201 0.0941385 4 0.00264883 2 0 0.0994487 -0.0359463
338 1 8.99733 5.46479 0.012702 4 0.00132592 2 0 0.0994487 -0.13475
339 1 10.5831 6.02196 0.964384 4 0.00396823 2 0 0.0994487 -0.356386
340 1 11.3128 6.37134 0.0776634 4 0.00561275 2 0 0.0994487 0.100345
341 1 10.5187 6.94145 0.15452 4 0.00482208 2 0 0.0994487 -0.0735309
342 1 10.4686 6.92564 1.49614 4 0.00523398 2 1 0.0994487 -0.0634413
343 1 11.9994 5.6274 0.183157 4 0.00651303 2 0 0.0994487 -0.0105263
344 1 12.6757 5.81849 0.861776 4 0.0100539 2 0 0.0994487 0.0817672
345 1 11.7774 6.20735 1.05291 4 0.00730928 2 0 0.0994487 0.292231
346 1 13.3219 5.86668 1.55471 4 0.0135065 2 0 0.0994487 0.208174
347 1 13.3506 6.58297 0.813679 4 0.0184642 2 0 0.0994487 -0.292094
348 1 13.3212 5.53867 0.0424813 4 0.0124624 2 0 0.0994487 -0.142906
349 1 14.0617 5.71565 0.77266 4 0.0187341 2 0 0.0994487 -0.372601
350 1 14.3278 6.65176 1.40646 4 0.0303424 2 1 0.0994487 -0.103123
351 1 14.1303 6.38483 0.0380077 4 0.0224364 2 0 0.0994487 -0.0826067
352 1 15.0282 5.64393 0.034369 4 0.0257949 2 0 0.0994487 0.0573684
353 1 15.8305 5.73813 0.95832 4 0.0380903 2 0 0.0994487 0.625804
354 1 15.0472 6.45091 0.806774 4 0.0366706 2 0 0.0994487 -0.176028
355 1 16.491 6.45257 1.1401 4 0.0644408 2 0 0.0994487 0.208331
356 1 15.1058 5.87594 1.69804 4 0.0317579 2 0 0.0994487 -0.0976528
357 1 16.62 5.41933 0.276819 4 0.0427491 2 0 0.0994487 0.0799262
358 1 15.6753 6.3382 0.0390223 4 0.0417233 2 0 0.0994487 0.0398561
359 1 17.8271 5.30128 0.541411 4 0.0581803 2 0 0.0994487 0.15033
360 1 17.113 5.42499 1.24767 4 0.0520736 2 0 0.0994487 -0.286566
361 1 17.0619 6.27419 0.411469 4 0.0689095 2 0 0.0994487 0.138955
362 1 17.6649 6.24649 1.38542 4 0.0851404 2 0 0.0994487 -0.254266
363 1 18.2745 7.0517 1.13153 4 0.134574 2 1 0.0994487 0.633177
364 1 18.3714 6.23173 0.609762 4 0.101841 2 0 0.0994487 0.156185
365 1 19.429 5.75829 0.62055 4 0.113136 2 0 0.0994487 0.0571893
366 1 19.3279 6.55755 1.35081 4 0.155174 2 0 0.0994487 0.274803
367 1 19.9942 6.75229 0.610261 4 0.211415 2 0 0.0994487 -0.0120544
368 1 20.7494 5.77593 0.653722 4 0.16618 2 0 0.0994487 -0.104063
369 1 20.1931 5.61076 1.39557 4 0.131519 2 0 0.0994487 0.312034
370 1 20.7787 6.6124 1.30355 3 0.257825 2 0 0.0994041 -0.344312
371 1 21.6592 6.66248 0.666524 3 0.277966 2 0 0.0992717 -0.0434893
372 1 21.6631 5.87866 1.38528 4 0.212294 2 0 0.0994487 0.0420211
373 1 21.6904 5.73259 0.0517844 4 0.181816 2 0 0.0994487 -0.00150202
374 1 22.6732 5.8279 0.674154 4 0.205258 2 0 0.0994487 0.00265093
375 1 22.6319 6.69333 1.20734 3 0.311347 2 0 0.0989849 -0.20153
376 1 23.3484 6.78052 0.267835 3 0.283295 2 0 0.099232 -0.125379
377 1 23.4822 5.88496 1.30013 4 0.210443 2 0 0.0994487 -0.17638
378 1 24.3197 6.56281 1.15825 4 0.238481 2 0 0.0994487 0.173572
379 1 24.1457 6.00685 0.427617 4 0.194822 2 0 0.0994487 0.00243272
380 1 25.6831 5.86213 0.700952 4 0.13349 2 0 0.0994487 0.16389
381 1 25.1124 6.04132 1.67733 4 0.163905 2 0 0.0994487 0.0036641
382 1 25.1593 6.74159 0.495153 4 0.203577 2 0 0.0994487 0.0903844
383 1 25.8251 6.59457 1.40775 4 0.164861 2 0 0.0994487 0.0880936
384 1 26.6903 5.84511 1.4763 4 0.100309 2 0 0.0994487 0.0917567
385 1 27.4966 5.54334 0.722172 4 0.0661627 2 0 0.0994487 -0.251579
386 1 26.7485 6.36567 0.651888 4 0.116226 2 0 0.0994487 0.0387444
387 1 27.7011 6.47315 1.36539 4 0.0864066 2 0 0.0994487 0.131488
388 1 28.3648 5.52203 1.4872 4 0.0483964 2 0 0.0994487 0.045631
389 1 27.7097 7.0074 0.530173 4 0.0987593 2 0 0.0994487 0.0321183
390 1 29.3889 5.30889 0.818726 4 0.0316923 2 0 0.0994487 0.316721
391 1 29.4379 6.18214 1.32212 4 0.039802 2 0 0.0994487 -0.003383
392 1 29.5784 6.89773 0.506505 4 0.0460085 2 0 0.0994487 0.0925841
393 1 28.4685 6.20589 0.638647 4 0.0567654 2 0 0.0994487 -0.270087
394 1 29.3762 6.15398 0.0801838 4 0.0398456 2 0 0.0994487 0.0969254
395 1 28.4822 5.38976 0.0592959 4 0.0424012 2 0 0.0994487 -0.105004
396 1 30.9636 5.36838 0.595026 4 0.0205481 2 0 0.0994487 0.667849
397 1 30.2159 5.45949 1.46813 4 0.0245932 2 0 0.0994487 0.0540204
398 1 30.3958 6.18258 0.649752 4 0.0298092 2 0 0.0994487 0.328999
399 1 31.2189 6.15516 1.38439 4 0.0239629 2 0 0.0994487 0.587257
400 1 31.1994 6.95407 0.60342 4 0.0298353 2 0 0.0994487 0.812251
401 1 31.7235 5.99622 0.446564 4 0.0210827 2 0 0.0994487 0.879729
402 1 0.261851 7.63199 0.661866 4 8.1111e-06 2 0 0.0994487 -0.876373
403 1 0.831025 8.46344 0.61936 4 1.26027e-05 2 0 0.0994487 -0.577625
404 1 1.11211 7.86396 1.49711 4 1.25541e-05 2 0 0.0994487 -0.154427
405 1 0.356955 8.5626 1.47035 4 9.82612e-06 2 0 0.0994487 -0.764984
406 1 1.59266 7.76478 0.37187 4 1.76229e-05 2 0 0.0994487 -0.0897865
407 1 1.72382 8.61735 1.46471 4 2.23168e-05 2 0 0.0994487 0.0395987
408 1 2.48799 7.14986 0.476331 4 3.03869e-05 2 0 0.0994487 -0.0836928
409 1 2.19177 8.6335 0.399707 4 3.30269e-05 2 0 0.0994487 -0.137265
410 1 2.39416 7.81099 1.27726 4 3.19618e-05 2 0 0.0994487 0.0869951
411 1 3.01349 8.51445 0.935533 4 6.03339e-05 2 0 0.0994487 -0.539303
412 1 3.24418 7.77117 0.327041 4 6.1741e-05 2 0 0.0994487 -0.196202
413 1 3.81243 8.45898 0.0822892 4 9.88675e-05 2 0 0.0994487 -0.0457759
414 1 3.97971 7.67009 1.24863 4 0.000102988 2 0 0.0994487 -0.0554846
415 1 4.70459 8.25653 0.921772 4 0.000192892 2 0 0.0994487 0.295367
416 1 4.67023 7.63706 0.247803 4 0.000159683 2 0 0.0994487 0.0376964
417 1 3.81127 8.34851 1.76162 4 9.88352e-05 2 0 0.0994487 -0.0574339
418 1 5.86955 8.34822 0.169905 4 0.000412403 2 0 0.0994487 0.113109
419 1 5.48363 7.59071 1.03232 4 0.000303101 2 0 0.0994487 -0.467644
420 1 6.49365 7.53799 0.169175 4 0.000534816 2 0 0.0994487 0.187629
421 1 6.39674 8.23976 1.04384 4 0.00066789 2 0 0.0994487 0.338182
422 1 7.28583 7.76918 0.746313 4 0.001096 2 1 0.0994487 0.00995619
423 1 8.2859 8.31376 0.868772 4 0.00239376 2 2 0.0994487 0.278746
424 1 7.27857 8.18368 1.7015 4 0.00137516 2 2 0.0994487 -0.174692
425 1 8.05208 7.48784 1.5604 4 0.00169541 2 1 0.0994487 0.1851
426 1 7.99895 7.60312 0.0282118 4 0.00142979 2 0 0.0994487 0.0674173
427 1 9.84313 7.22199 0.72344 4 0.00412333 2 1 0.0994487 -0.34691
428 1 8.91207 7.61626 0.661731 4 0.00274091 2 1 0.0994487 0.158681
429 1 9.73234 8.61964 0.693151 4 0.00577458 2 3 0.0994487 -0.257195
430 1 9.09265 8.69904 1.44495 4 0.00466647 2 9 0.0994487 -0.394405
431 1 9.64026 7.88932 1.60055 4 0.00519359 2 8 0.0994487 -0.340296
432 1 11.3161 7.14287 0.810636 4 0.00786969 2 1 0.0994487 0.448588
433 1 10.5731 7.9454 0.844311 4 0.00727017 2 3 0.0994487 -0.198264
434 1 10.5877 8.70196 1.4255 4 0.00929025 1 8 0.0994487 -0.146293
435 1 11.4057 7.80503 1.60301 4 0.0111543 2 7 0.0994487 0.228362
436 1 11.227 8.11851 0.0422735 4 0.00888902 2 0 0.0994487 0.174339
437 1 12.7061 7.28322 0.565784 4 0.0171247 2 0 0.0994487 -0.0531315
438 1 12.178 8.23518 0.590765 4 0.0164551 2 2 0.0994487 0.163946
439 1 12.0637 7.15788 1.37768 4 0.0121016 2 3 0.0994487 0.14565
440 1 12.0887 8.68064 1.49044 4 0.0194368 1 8 0.0994487 0.0815902
441 1 12.8601 7.99585 1.47598 4 0.0248408 2 6 0.0994487 -0.217054
442 1 14.3373 7.3542 0.580954 4 0.0357543 2 0 0.0994487 0.0649069
443 1 13.6169 8.09282 0.464536 4 0.0315819 2 2 0.0994487 0.0237654
444 1 13.458 7.34024 1.34133 4 0.0261623 2 2 0.0994487 0.0544755
445 1 14.2471 8.18371 1.35246 4 0.0472561 2 5 0.0994487 0.0236069