ITEM: TIMESTEP
47000
ITEM: NUMBER OF ATOMS
9495
ITEM: BOX BOUNDS mm mm mm
0.0000000000000000e+00 3.1748021039364001e+01
0.0000000000000000e+00 3.1748021039364001e+01
-7.4072398406925706e-04 3.1748021039364001e+01
ITEM: ATOMS id type x y z c_phase c_temp c_surf c_nbond c_visc f_3[1]
1 1 0.116341 1.10259 0.464337 4 0.000811125 2 0 0.0994487 -0.68194
2 1 0.974108 1.6685 0.77798 4 0.00106203 2 0 0.0994487 -0.517032
3 1 0.714648 0.793562 1.41295 4 0.000881657 2 0 0.0994487 -0.281794
4 1 0.00336375 1.60273 1.37437 4 0.000864904 2 0 0.0994487 -0.804051
5 1 0.729896 0.0633724 0.61602 4 0.000762716 3 0 0.0994487 -0.190374
6 1 1.71015 0.808983 1.0155 4 0.00119246 2 0 0.0994487 -0.332069
7 1 1.80059 1.47468 0.221075 4 0.00126594 2 0 0.0994487 -0.125829
8 1 1.82015 1.66049 1.76126 4 0.0013323 2 0 0.0994487 -0.139533
9 1 2.52093 0.749102 0.203812 4 0.00146082 2 0 0.0994487 -0.14294
10 1 2.59149 0.0538711 1.03726 4 0.00145732 2 0 0.0994487 -0.295004
11 1 2.64922 1.541 0.882848 4 0.00169583 2 0 0.0994487 0.235753
12 1 2.66829 0.815502 1.7457 4 0.00158228 2 0 0.0994487 -0.187041
13 1 3.43386 0.933692 0.956349 4 0.00208794 2 0 0.0994487 0.320239
14 1 3.49924 0.0925696 1.70571 4 0.00183221 2 0 0.0994487 0.178053
15 1 3.60652 1.70798 1.71994 4 0.00247238 2 0 0.0994487 0.0487945
16 1 4.10576 0.858321 0.325305 4 0.00266317 2 0 0.0994487 0.153145
17 1 4.96159 0.56786 1.17466 4 0.00388868 2 0 0.0994487 -0.037068
18 1 4.91949 1.59987 0.383508 4 0.00428761 2 0 0.0994487 -0.100249
19 1 4.3472 0.941527 1.62884 4 0.00301875 2 0 0.0994487 0.110737
20 1 3.47612 0.111428 0.171027 4 0.00177818 2 0 0.0994487 0.166215
21 1 5.64741 0.645627 0.325839 4 0.0051161 2 0 0.0994487 -0.0806054
22 1 5.88414 1.31048 0.938036 4 0.00593981 2 0 0.0994487 -0.19959
23 1 6.57478 1.39104 0.218369 4 0.00764103 2 0 0.0994487 -0.0861343
24 1 5.78374 0.460658 1.69897 4 0.00520315 2 0 0.0994487 -0.0846531
25 1 5.03122 1.72414 1.43602 4 0.00446678 2 0 0.0994487 0.0453709
26 1 6.7138 0.39031 0.865278 4 0.00730329 2 0 0.0994487 -0.0793825
27 1 6.69104 1.00962 1.69374 4 0.00747831 2 0 0.0994487 -0.107924
28 1 8.2679 0.408875 1.07337 4 0.0116492 2 0 0.0994487 -0.100167
29 1 7.36782 1.22285 0.954198 4 0.00968059 2 0 0.0994487 -0.302556
30 1 8.24709 1.39092 0.236779 4 0.0128494 2 0 0.0994487 -0.0460651
31 1 8.12868 1.27217 1.60653 4 0.012014 2 0 0.0994487 -0.00811786
32 1 7.58247 0.647807 0.140287 4 0.0097967 2 0 0.0994487 -0.110936
33 1 8.85849 0.508506 0.273966 4 0.0138561 2 0 0.0994487 -0.0616469
34 1 9.55301 0.3386 0.888639 4 0.016481 2 0 0.0994487 0.00506302
35 1 9.02586 1.30716 1.1133 4 0.0158941 2 0 0.0994487 -0.0606484
37 1 9.63995 1.37474 0.0900752 4 0.0183395 2 0 0.0994487 0.0992907
38 1 11.2128 0.215893 0.632658 4 0.025587 2 0 0.0994487 0.203502
39 1 10.3637 1.04743 0.823114 4 0.0218936 2 0 0.0994487 0.539883
40 1 10.523 0.196295 1.44539 4 0.0211435 2 0 0.0994487 0.0644279
41 1 11.2856 1.01846 1.41785 4 0.0291547 2 0 0.0994487 0.164705
42 1 10.5797 1.67706 1.72992 4 0.0258883 2 0 0.0994487 0.118163
43 1 10.2431 0.367861 0.0780499 4 0.0188588 2 0 0.0994487 0.1498
44 1 12.8757 0.211714 0.636805 4 0.0421838 2 0 0.0994487 0.0587866
45 1 12.0457 1.07408 0.506655 4 0.0372989 2 0 0.0994487 -0.0235525
46 1 12.1319 0.316439 1.29957 4 0.0351155 2 0 0.0994487 0.0188353
47 1 12.7194 1.19864 1.3723 4 0.0457135 2 0 0.0994487 -0.0305294
48 1 14.3729 0.318493 0.764646 4 0.0605486 2 0 0.0994487 -0.0460392
49 1 13.5924 1.113 0.843618 4 0.0565749 2 0 0.0994487 -0.263055
50 1 14.0399 1.55958 0.167469 4 0.0661101 2 0 0.0994487 -0.0898258
51 1 13.6075 0.359834 1.6352 4 0.0512611 2 0 0.0994487 -0.0562642
52 1 14.3777 1.14948 1.47647 4 0.0649347 2 0 0.0994487 -0.0178288
53 1 14.8761 1.55337 0.662943 4 0.075405 2 0 0.0994487 0.389945
54 1 15.7061 0.770636 0.788259 4 0.0789844 2 0 0.0994487 0.366481
55 1 16.5532 1.54451 0.681338 4 0.104095 2 0 0.0994487 0.000802547
56 1 15.1422 0.4642 1.64149 4 0.0685158 2 0 0.0994487 0.152077
57 1 16.547 0.712289 1.3421 4 0.093903 2 0 0.0994487 0.0956244
58 1 15.6341 1.48544 1.3916 4 0.0859333 2 0 0.0994487 0.153629
59 1 15.1049 0.711806 0.0677822 4 0.0686138 2 0 0.0994487 0.169202
60 1 17.2544 0.732268 0.547589 4 0.105824 2 0 0.0994487 0.0286286
61 1 17.9231 1.58109 0.757246 4 0.128078 2 0 0.0994487 0.0415607
62 1 17.916 0.742935 1.42801 4 0.117687 2 0 0.0994487 -0.224378
63 1 17.2202 1.74884 1.56274 4 0.121079 2 0 0.0994487 -0.0984855
64 1 19.5372 0.0167772 0.662766 4 0.12434 2 0 0.0994487 0.0436432
65 1 18.7918 0.725074 0.684829 4 0.126435 2 0 0.0994487 -0.269946
66 1 19.5395 1.55488 0.841653 4 0.146873 2 0 0.0994487 -0.341163
67 1 19.0276 0.158607 1.54508 4 0.123081 2 0 0.0994487 -0.158665
68 1 19.5934 0.967491 1.68957 4 0.135966 2 0 0.0994487 0.00834991
69 1 18.6564 1.51302 1.50035 4 0.137473 2 0 0.0994487 -0.250309
70 1 21.0889 0.349843 1.06749 4 0.136435 2 0 0.0994487 -0.196127
71 1 20.2493 0.776373 0.980057 4 0.138049 2 0 0.0994487 -0.0497628
72 1 21.1062 1.65725 0.951506 4 0.155433 2 0 0.0994487 0.692912
73 1 21.1874 0.765598 0.218806 4 0.139695 2 0 0.0994487 -0.0445912
74 1 20.3457 1.51479 0.193617 4 0.150264 2 0 0.0994487 -0.0806029
75 1 22.0087 0.262534 0.539755 4 0.135739 2 0 0.0994487 0.0993588
76 1 22.7913 0.430275 1.40734 4 0.136831 2 0 0.0994487 0.206599
77 1 22.1105 1.14763 1.32981 4 0.145794 2 0 0.0994487 0.240022
78 1 21.9982 1.59955 0.538558 4 0.15532 2 0 0.0994487 0.185171
79 1 22.9157 1.07463 0.445168 4 0.143836 2 0 0.0994487 0.0520837
80 1 24.228 0.380179 1.45209 4 0.131609 2 0 0.0994487 0.0576164
81 1 23.5672 0.357563 0.57369 4 0.134249 2 0 0.0994487 0.0385704
82 1 24.4367 1.18687 0.754729 4 0.140886 2 0 0.0994487 -0.0192968
83 1 23.4757 1.2499 1.4028 4 0.146998 2 0 0.0994487 0.0298763
84 1 24.955 0.315686 0.551996 4 0.124676 2 0 0.0994487 -0.0171988
85 1 26.0085 0.383365 1.1715 4 0.113469 2 0 0.0994487 -0.185859
86 1 25.169 1.12579 1.48087 4 0.133694 2 0 0.0994487 0.0251051
87 1 25.9301 1.73476 1.35794 4 0.135523 2 0 0.0994487 0.0345368
88 1 25.8917 0.929212 0.432102 4 0.120443 2 0 0.0994487 -0.0954193
89 1 27.5736 1.28032 0.38906 4 0.103976 2 0 0.0994487 0.0454495
90 1 27.6142 0.50928 0.874321 4 0.0976281 2 0 0.0994487 0.175388
91 1 26.7559 1.02809 1.26347 4 0.110472 2 0 0.0994487 -0.236885
92 1 28.3748 0.337482 1.39813 4 0.0878639 2 0 0.0994487 0.00984474
93 1 26.7925 0.240345 0.226621 4 0.102954 2 0 0.0994487 0.0380749
94 1 28.6489 1.24263 0.742341 4 0.0924514 2 0 0.0994487 0.102407
95 1 29.3912 0.945639 1.56878 4 0.0821992 2 0 0.0994487 -0.0192003
96 1 28.5228 1.71921 1.49749 4 0.0979678 2 0 0.0994487 -0.0429804
97 1 29.8133 0.173958 1.46124 4 0.0748302 2 0 0.0994487 0.133416
98 1 29.2734 0.3547 0.615275 4 0.0790524 2 0 0.0994487 -0.0816809
99 1 31.5874 0.266128 1.25663 4 0.0624939 3 0 0.0994487 0.830096
100 1 30.7016 0.49015 0.470738 4 0.0705795 2 0 0.0994487 0.354852
101 1 30.1009 1.19877 0.774133 4 0.0795253 2 0 0.0994487 0.21092
102 1 30.8649 0.971942 1.39386 4 0.072963 2 0 0.0994487 0.703281
103 1 1.11081 2.43607 0.129285 4 0.00116984 2 0 0.0994487 -0.0373224
104 1 0.133403 2.3821 0.812241 4 0.00100888 2 0 0.0994487 -0.984517
105 1 1.28845 3.23764 0.949187 4 0.00146339 2 0 0.0994487 0.222089
106 1 1.13977 2.36077 1.59162 4 0.00122758 2 0 0.0994487 -0.222189
107 1 0.386685 3.02999 1.54944 4 0.00117405 2 0 0.0994487 -0.671256
108 1 0.332248 3.09582 0.131296 4 0.00113602 2 0 0.0994487 -0.59134
109 1 1.90972 2.41867 0.78376 4 0.00150751 2 0 0.0994487 0.0782078
110 1 2.65852 3.28029 0.860875 4 0.00235889 2 0 0.0994487 0.0668023
111 1 2.66931 2.22918 1.53373 4 0.00190084 2 0 0.0994487 0.0829544
112 1 3.2579 3.42668 1.64938 4 0.00305536 2 0 0.0994487 0.00397411
113 1 2.7261 2.38168 0.0557193 4 0.00183553 2 0 0.0994487 0.1466
114 1 3.38195 2.55413 0.779289 4 0.00263955 2 0 0.0994487 0.211582
115 1 4.00679 1.841 0.711184 4 0.0030398 2 0 0.0994487 -0.0361248
116 1 4.91383 2.57277 0.815661 4 0.00502677 2 0 0.0994487 -0.259352
117 1 4.20148 3.3175 0.749446 4 0.00439282 2 0 0.0994487 0.00621417
118 1 4.13245 2.64107 1.58328 4 0.00368204 2 0 0.0994487 0.0270767
119 1 5.65047 2.44269 0.132743 4 0.0064642 2 0 0.0994487 -0.189926
120 1 6.55776 2.18062 0.772597 4 0.00846786 2 0 0.0994487 -0.289391
121 1 5.64874 3.19593 0.952489 4 0.00744407 2 0 0.0994487 -0.754637
122 1 5.861 2.19426 1.49672 4 0.00656878 2 0 0.0994487 0.0126348
123 1 6.52037 3.06691 1.5557 4 0.00974205 2 0 0.0994487 0.0443566
124 1 6.65033 2.92778 0.134227 4 0.00954352 2 0 0.0994487 0.0288861
125 1 7.45405 2.22586 0.139832 4 0.0113872 2 0 0.0994487 -0.0535034
126 1 8.08209 2.20208 0.930382 4 0.0140258 2 0 0.0994487 -0.302082
127 1 7.40132 3.06835 0.934051 4 0.0132611 2 0 0.0994487 -0.045536
128 1 7.29928 2.06035 1.56856 4 0.0105423 2 0 0.0994487 -0.0607336
129 1 8.18545 3.00183 1.65211 4 0.0168942 2 0 0.0994487 -0.0454167
130 1 8.26934 2.9712 0.0392146 4 0.017272 2 0 0.0994487 -0.150618
131 1 8.90393 2.08699 0.252387 4 0.0172946 2 0 0.0994487 0.00243215
132 1 9.77243 2.0246 1.10996 4 0.022048 2 0 0.0994487 0.17346
133 1 8.92671 2.97262 0.928693 4 0.0213253 2 0 0.0994487 -0.156769
134 1 9.03062 2.22066 1.70398 4 0.0186016 2 0 0.0994487 -0.0819687
135 1 9.56096 2.90576 0.21312 4 0.0244654 2 0 0.0994487 0.173119
136 1 10.2834 2.1137 0.214297 4 0.0243782 2 0 0.0994487 0.337738
137 1 11.1583 1.82604 0.771092 4 0.0317123 2 0 0.0994487 0.260086
138 1 10.6214 2.80819 0.921535 4 0.0334978 2 0 0.0994487 0.541914
139 1 11.4444 2.82964 1.57484 4 0.0434067 2 0 0.0994487 0.0951979
140 1 12.6737 1.94118 0.593851 4 0.0519176 2 0 0.0994487 -0.283936
141 1 11.928 2.64099 0.742299 4 0.0478473 2 0 0.0994487 -0.0386761
142 1 11.9239 1.9206 1.46509 4 0.040919 2 0 0.0994487 0.0946517
143 1 12.8449 3.01766 1.68597 4 0.0654486 2 0 0.0994487 0.0363553
144 1 13.1791 3.03035 0.848852 4 0.0718685 2 0 0.0994487 -0.440861
145 1 13.3784 1.9912 1.48064 4 0.0606767 2 0 0.0994487 -0.0150717
146 1 14.0206 2.44438 0.927124 4 0.0763512 2 0 0.0994487 -0.133109
147 1 14.0279 3.38359 1.55716 4 0.0927922 2 0 0.0994487 0.0255729
148 1 14.6961 3.43698 0.884932 4 0.108199 2 0 0.0994487 -0.332976
149 1 14.7823 2.29758 1.44821 4 0.0854362 2 0 0.0994487 0.0469255
150 1 14.8418 2.51505 0.136557 4 0.0899432 2 0 0.0994487 0.173004
151 1 14.1591 3.2262 0.0325348 4 0.0927738 2 0 0.0994487 -0.246106
152 1 13.4137 2.29398 0.0590902 4 0.0661185 2 0 0.0994487 -0.280963
153 1 15.6993 2.44373 0.692668 4 0.104581 2 0 0.0994487 0.364388
154 1 16.3029 3.20095 0.662084 4 0.135026 2 0 0.0994487 0.328584
155 1 16.308 2.47951 1.52575 4 0.119076 2 0 0.0994487 -0.100649
156 1 15.3694 3.25723 1.50191 4 0.118414 2 0 0.0994487 -0.00767122
157 1 15.5706 3.25854 0.0192499 4 0.11692 2 0 0.0994487 0.290236
158 1 17.0646 2.35032 0.682778 4 0.129886 2 0 0.0994487 0.0234783
159 1 17.944 2.92608 0.699539 4 0.166867 2 0 0.0994487 -0.231193
160 1 18.0193 2.43917 1.58112 4 0.151546 2 0 0.0994487 -0.149137
161 1 17.0918 3.1162 1.49491 4 0.154118 2 0 0.0994487 -0.143438
162 1 18.8908 2.35742 1.01358 4 0.161605 2 0 0.0994487 -0.516831
163 1 19.7027 3.2427 1.27782 4 0.199958 2 0 0.0994487 0.394877
164 1 18.884 2.99607 0.196019 4 0.183356 2 0 0.0994487 -0.17181
165 1 19.587 2.34239 0.101452 4 0.167823 2 0 0.0994487 -0.132371
166 1 20.3251 1.78863 1.72442 4 0.15402 2 0 0.0994487 0.0449521
167 1 21.1565 2.41663 0.458355 4 0.178083 2 0 0.0994487 0.196186
168 1 20.1948 2.46882 1.11433 4 0.173625 2 0 0.0994487 0.286739
169 1 21.31 3.29463 1.39314 4 0.219431 2 0 0.0994487 0.0777272
170 1 20.4222 2.99313 0.334941 4 0.194209 2 0 0.0994487 0.186289
171 1 22.8719 2.07007 1.50872 4 0.170639 2 0 0.0994487 -0.0221243
172 1 22.9717 2.60199 0.735523 4 0.194586 2 0 0.0994487 0.133325
173 1 22.0961 2.49917 1.23787 4 0.187372 2 0 0.0994487 0.186435
174 1 21.9898 3.20043 0.598797 4 0.222357 2 0 0.0994487 -0.0757523
175 1 22.6771 3.40124 0.07601 4 0.235777 2 0 0.0994487 0.076073
176 1 23.7438 1.80844 0.624025 4 0.158488 2 0 0.0994487 -0.0873598
177 1 24.4289 1.98763 1.61102 4 0.160219 2 0 0.0994487 -0.0641757
178 1 24.342 2.68296 0.775192 4 0.185087 2 0 0.0994487 -0.341092
179 1 23.6887 2.90303 1.53628 4 0.201457 2 0 0.0994487 -0.110505
180 1 24.4728 3.51078 1.55704 4 0.22526 2 0 0.0994487 -0.118305
181 1 24.9562 2.84566 0.0146836 4 0.180881 2 0 0.0994487 -0.0864594
182 1 26.5483 1.79415 0.511367 4 0.12605 2 0 0.0994487 -0.00559944
183 1 25.1322 1.85613 0.509414 4 0.149429 2 0 0.0994487 -0.0215288
184 1 25.7918 2.61203 0.707489 4 0.163396 2 0 0.0994487 0.228203
185 1 25.1579 2.55548 1.52547 4 0.171176 2 0 0.0994487 0.0576671
186 1 25.7213 3.49812 1.51211 4 0.203138 2 0 0.0994487 0.123858
187 1 26.5364 2.56002 1.53049 4 0.14645 2 0 0.0994487 0.0579484
188 1 26.1686 3.50068 0.599043 4 0.192479 2 0 0.0994487 0.168846
189 1 27.5039 1.98546 1.23792 4 0.114598 2 0 0.0994487 -0.186418
190 1 28.2489 2.09022 0.343734 4 0.106433 2 0 0.0994487 -0.0177244
191 1 27.0867 2.6924 0.645359 4 0.13846 2 0 0.0994487 -0.105599
192 1 27.1998 3.35397 1.41682 4 0.156575 2 0 0.0994487 -0.0983269
193 1 28.2537 2.75799 1.20639 4 0.118169 2 0 0.0994487 -0.418304
194 1 27.982 3.21993 0.326384 4 0.132666 2 0 0.0994487 -0.125256
195 1 29.9568 1.80906 1.70764 4 0.0858823 2 0 0.0994487 0.183201
196 1 29.4477 2.04702 0.879698 4 0.0932402 2 0 0.0994487 -0.00708171
197 1 29.1956 2.6589 0.290703 4 0.103299 2 0 0.0994487 -0.0578278
198 1 29.2495 3.2651 1.17365 4 0.113615 2 0 0.0994487 0.118637
199 1 30.9114 1.98502 0.924207 4 0.0837292 2 0 0.0994487 0.967251
200 1 30.1815 2.71094 1.00186 4 0.0955443 2 0 0.0994487 0.675109
201 1 31.0247 3.35309 0.97101 4 0.0996236 2 0 0.0994487 0.998409
202 1 30.9865 2.69483 1.72648 4 0.0912815 2 0 0.0994487 0.578501
203 1 30.1092 3.25953 0.132205 4 0.101598 2 0 0.0994487 -0.0443655
204 1 30.4116 1.90909 0.0255368 4 0.0839298 2 0 0.0994487 0.106045
205 1 31.1434 2.66402 0.0761253 4 0.088559 2 0 0.0994487 0.70882
206 1 0.293831 3.78503 0.918557 4 0.00131866 2 0 0.0994487 -0.999347
207 1 0.143046 4.59443 0.482118 4 0.00146098 2 0 0.0994487 -0.784494
208 1 1.14036 4.67093 0.986638 4 0.00187719 2 0 0.0994487 -0.516754
209 1 0.0884667 5.26681 1.27761 4 0.00164993 2 0 0.0994487 -0.887458
210 1 1.04069 3.86421 0.0595682 4 0.00148366 2 0 0.0994487 0.0148877
211 1 1.84117 4.04604 0.847105 4 0.00208004 2 0 0.0994487 0.0082659
212 1 2.54049 4.85585 1.13748 4 0.00315189 2 0 0.0994487 -0.333848
213 1 2.64953 4.14475 0.20674 4 0.00287859 2 0 0.0994487 -0.0285727
214 1 1.89758 4.96895 0.278386 4 0.00257447 2 0 0.0994487 -0.153434
215 1 3.40771 4.86189 0.161635 4 0.00439469 2 0 0.0994487 -0.0163891
216 1 3.494 4.07675 0.885909 4 0.0038882 2 0 0.0994487 0.0268897
217 1 4.91235 4.00001 1.18344 4 0.00664357 2 0 0.0994487 0.0115041
218 1 4.04658 4.88002 1.14639 4 0.00560578 2 0 0.0994487 0.264487
219 1 4.26027 4.18509 0.149001 4 0.00537966 2 0 0.0994487 0.0377373
220 1 5.00947 4.74001 0.341082 4 0.00806306 2 0 0.0994487 0.0765381
221 1 5.77735 3.9378 0.198707 4 0.008767 2 0 0.0994487 0.0260149
222 1 6.48883 3.76611 0.772067 4 0.0110564 2 0 0.0994487 0.20455
223 1 5.68025 4.73638 1.02487 4 0.0105875 2 0 0.0994487 -0.621699
224 1 6.66321 4.5115 1.6428 4 0.0139036 2 0 0.0994487 0.158932
225 1 6.68072 5.1315 0.885352 4 0.0165813 2 0 0.0994487 0.206847
226 1 8.1982 3.892 0.700757 4 0.0213484 2 0 0.0994487 -0.369904
227 1 7.40842 4.46072 0.5468 4 0.0185428 2 0 0.0994487 -0.0252145
228 1 7.39886 3.87029 1.49684 4 0.0157367 2 0 0.0994487 0.102575
229 1 8.20004 4.61106 1.48677 4 0.0251402 2 0 0.0994487 -0.0118393
230 1 9.8976 3.57792 0.885667 4 0.0329512 2 0 0.0994487 0.592761
231 1 9.07913 4.56551 0.821335 4 0.0331447 2 0 0.0994487 -0.658549
232 1 9.86266 4.50302 0.126324 4 0.0390859 2 0 0.0994487 0.0958645
233 1 9.07829 3.76256 1.49819 4 0.0272122 2 0 0.0994487 -0.0708871
234 1 9.86881 4.3462 1.65532 4 0.0399535 2 0 0.0994487 -0.0856637
235 1 8.98541 3.86821 0.0631775 4 0.0266815 2 0 0.0994487 -0.138755
236 1 11.408 3.64493 0.778297 4 0.0520552 2 0 0.0994487 0.202063
237 1 10.5891 4.66652 0.906264 4 0.0523822 2 0 0.0994487 0.0450692
238 1 11.3867 4.69403 0.230734 4 0.0662021 2 0 0.0994487 -0.0498914
239 1 10.7059 3.56689 1.58785 4 0.0420102 2 0 0.0994487 -0.0448512
240 1 11.3652 4.3716 1.70545 4 0.0613355 2 0 0.0994487 -0.0798293
241 1 11.3894 5.27213 0.983682 4 0.0758857 2 0 0.0994487 -0.674482
242 1 10.5826 3.84888 0.176129 4 0.0418252 2 0 0.0994487 0.210465
243 1 12.5168 3.57716 0.814749 4 0.0693145 2 0 0.0994487 -0.0105799
244 1 12.1916 4.55033 1.00021 4 0.0794019 2 0 0.0994487 0.105038
245 1 12.7362 4.99738 1.68903 4 0.0973029 2 0 0.0994487 0.191328
246 1 13.2258 4.67863 0.80017 4 0.105601 2 0 0.0994487 -0.00470635
247 1 12.6435 4.61885 0.0632315 4 0.0919183 2 0 0.0994487 -0.0335815
248 1 13.9891 4.12825 0.69648 4 0.111487 2 0 0.0994487 -0.430183
249 1 13.4832 4.21781 1.59317 4 0.0989253 2 0 0.0994487 0.0820155
250 1 14.2046 5.11838 1.52001 4 0.144059 2 0 0.0994487 -0.028994
251 1 14.9402 5.01141 0.811699 4 0.163765 2 0 0.0994487 -0.0527908
252 1 14.9642 4.4167 1.59432 4 0.143852 2 0 0.0994487 -0.0635646
253 1 14.1405 4.90647 0.0597868 4 0.136347 2 0 0.0994487 -0.0856964
254 1 14.961 4.19423 0.096508 4 0.133779 2 0 0.0994487 0.0322708
255 1 15.6685 4.06642 0.926277 4 0.149183 2 0 0.0994487 0.872576
256 1 15.8798 4.77595 0.186426 4 0.181865 2 0 0.0994487 0.165387
257 1 16.5936 4.58036 0.900182 4 0.198378 2 0 0.0994487 -0.0790049
258 1 16.3184 3.95875 1.6903 4 0.164137 2 0 0.0994487 -0.0433999
259 1 15.8111 5.05317 1.64084 4 0.192614 2 0 0.0994487 0.0994967
260 1 17.2689 3.83372 0.811237 4 0.186494 2 0 0.0994487 -0.34539
261 1 18.0864 4.48855 1.09806 4 0.23516 2 0 0.0994487 -0.612192
262 1 17.9525 3.63794 1.65602 4 0.193059 2 0 0.0994487 -0.192808
263 1 17.4569 4.57727 0.0147963 4 0.220508 2 0 0.0994487 -0.0974116
264 1 18.1348 3.8547 0.0583493 4 0.204767 2 0 0.0994487 -0.120518
265 1 18.8779 3.70667 0.95022 4 0.210776 2 0 0.0994487 0.069213
266 1 18.8235 4.60949 0.361826 3 0.252688 2 0 0.0994338 0.115607
267 1 19.6906 4.67872 1.0803 3 0.287201 2 0 0.0992016 0.931531
268 1 18.7859 5.27693 1.20102 3 0.307716 2 0 0.0990208 0.59911
269 1 19.5987 3.76722 0.227421 4 0.220917 2 0 0.0994487 0.164268
270 1 20.4384 3.82188 1.23329 4 0.241581 2 0 0.0994487 0.325951
271 1 20.8846 4.71868 1.39403 3 0.328023 2 0 0.0988019 0.149055
272 1 21.5775 4.95128 0.810455 3 0.377932 2 0 0.0980357 -0.00376039
273 1 21.0824 3.93136 0.512408 3 0.258824 2 0 0.0993981 0.088301
274 1 20.1339 4.78559 0.352846 3 0.306332 2 0 0.0990342 0.145584
275 1 22.8205 3.63186 1.42135 3 0.250639 2 0 0.0994452 -0.0184008
276 1 21.9406 4.13318 1.31068 3 0.289005 2 0 0.0991871 0.0272019
277 1 22.4705 5.17735 1.27286 3 0.416112 2 0 0.0971383 0.0207032
278 1 22.6119 4.34705 0.510028 3 0.310262 2 0 0.0989957 -0.0221079
279 1 23.5735 3.63903 0.782677 4 0.249348 2 0 0.0994487 0.185557
280 1 24.336 4.32055 0.625018 3 0.2929 2 0 0.099155 -0.150094
281 1 23.4679 4.54946 1.33355 3 0.329631 2 0 0.0987827 -0.0790573
282 1 24.8518 5.25716 0.566763 3 0.36487 2 0 0.0982737 0.0409073
283 1 23.5518 5.06386 0.533607 3 0.38701 2 0 0.0978515 -0.0968904
284 1 25.0086 4.50055 1.62342 3 0.288292 2 0 0.0991928 -0.0421948
285 1 25.0629 3.68037 0.802132 4 0.227031 2 0 0.0994487 -0.187917
286 1 24.363 5.28843 1.43377 3 0.390137 2 0 0.0977841 -0.15471
287 1 25.6904 5.1389 1.34266 3 0.319254 2 0 0.0989019 0.210102
288 1 26.3575 4.29031 1.37159 4 0.229247 2 0 0.0994487 0.149483
289 1 26.5026 4.97257 0.640732 3 0.266014 2 0 0.0993534 0.0989687
290 1 25.5284 4.40089 0.388179 3 0.262311 2 0 0.0993768 0.0559484
291 1 27.3302 4.86961 1.40568 4 0.22553 2 0 0.0994487 0.00661174
292 1 27.9624 3.97641 1.10408 4 0.159072 2 0 0.0994487 -0.309503
293 1 28.2771 4.73475 0.706344 4 0.184469 2 0 0.0994487 -0.081244
294 1 27.0674 4.04323 0.570038 4 0.190076 2 0 0.0994487 0.012024
295 1 28.9321 3.77016 0.487204 4 0.129945 2 0 0.0994487 -0.00703165
296 1 29.0873 4.52317 1.33085 4 0.151868 2 0 0.0994487 0.0574873
297 1 29.9979 4.07209 1.02303 4 0.120971 2 0 0.0994487 -0.275233
298 1 31.0296 3.97382 0.373364 4 0.10891 2 0 0.0994487 0.657583
299 1 30.2046 4.67765 0.491317 4 0.13555 2 0 0.0994487 0.00995933
300 1 30.9783 4.59929 1.41131 4 0.123117 2 0 0.0994487 0.679915
301 1 0.908283 5.53205 0.461647 4 0.00213464 2 0 0.0994487 -0.463785
302 1 1.53161 5.51184 1.37971 4 0.00251842 2 0 0.0994487 -0.117388
303 1 0.793684 6.22023 1.2768 4 0.00242943 2 0 0.0994487 -0.703381
304 1 0.257003 6.91734 1.50738 4 0.00248564 2 0 0.0994487 -0.772633
305 1 0.969942 6.9454 0.573423 4 0.00294271 2 0 0.0994487 -0.473533
306 1 1.7053 7.02884 1.23811 4 0.00354741 2 0 0.0994487 0.0665169
307 1 1.89588 6.19966 0.519025 4 0.00327881 2 0 0.0994487 -0.156401
308 1 3.10475 5.61709 1.30057 4 0.00444915 2 0 0.0994487 0.0402511
309 1 2.26359 6.15348 1.40977 4 0.00357798 2 0 0.0994487 0.0408552
310 1 3.25442 6.96226 1.12748 4 0.00645279 2 0 0.0994487 -0.0541259
311 1 2.68177 5.61289 0.273587 4 0.00384472 2 0 0.0994487 -0.0596866
312 1 3.39503 6.28191 0.500536 4 0.00600551 2 0 0.0994487 -0.121447
313 1 4.18979 5.46246 0.325783 4 0.00684309 2 0 0.0994487 0.0310158
314 1 4.93434 5.42873 1.31778 4 0.00955332 2 0 0.0994487 -0.235103
315 1 4.13622 6.09659 1.22779 4 0.00786529 2 0 0.0994487 -0.0893914
316 1 4.82567 6.23357 0.333842 4 0.0105748 2 0 0.0994487 -0.0345783
317 1 4.77312 6.79931 1.15967 4 0.0119107 2 0 0.0994487 -0.305934
318 1 4.00267 7.02511 0.221759 4 0.00883619 2 0 0.0994487 -0.0853458
319 1 5.78575 5.42185 0.301847 4 0.012684 2 0 0.0994487 0.0125002
320 1 5.6935 6.24342 0.9632 4 0.0149615 2 0 0.0994487 -0.967779
321 1 6.4578 5.98425 1.59671 4 0.0184118 2 0 0.0994487 0.140912
322 1 6.43234 6.86927 1.00965 4 0.0223833 2 0 0.0994487 0.851657
323 1 6.37773 6.04115 0.154639 4 0.0173139 2 0 0.0994487 0.111111
324 1 5.54993 7.05206 0.147147 4 0.0159953 2 0 0.0994487 0.0363842
325 1 8.21355 5.31419 0.694273 4 0.0300975 2 0 0.0994487 -0.0895979
326 1 7.32761 6.15925 0.754293 4 0.0263974 2 0 0.0994487 0.225726
327 1 7.39163 5.41839 1.49138 4 0.0226687 2 0 0.0994487 0.136751
328 1 8.23884 6.11028 1.49159 4 0.0369613 2 0 0.0994487 0.0187351
329 1 8.01352 6.85364 0.728993 4 0.0411118 2 0 0.0994487 0.0691807
330 1 7.28191 6.86379 1.59601 4 0.0317914 2 1 0.0994487 0.126027
331 1 7.33029 5.3575 0.0461812 4 0.0211662 2 0 0.0994487 0.0813555
332 1 9.76796 5.3194 0.792562 4 0.0482899 2 0 0.0994487 0.328442
333 1 8.88016 6.18865 0.736908 4 0.0466242 2 0 0.0994487 -0.235548
334 1 9.05434 5.3271 1.5973 4 0.0397484 2 0 0.0994487 -0.0628326
335 1 9.73844 6.19052 1.46731 4 0.0614522 2 0 0.0994487 -0.10655
336 1 9.09351 6.95013 1.463 4 0.0621866 2 2 0.0994487 -0.0761904
337 1 9.76329 6.23201 0.0941385 4 0.0604238 2 0 0.0994487 -0.0359533
338 1 8.99733 5.46479 0.012702 4 0.0397162 2 0 0.0994487 -0.134755
339 1 10.5831 6.02196 0.964384 4 0.073718 2 0 0.0994487 -0.356226
340 1 11.3128 6.37134 0.0776634 4 0.0908938 2 0 0.0994487 0.100342
341 1 10.5187 6.94145 0.15452 4 0.08731 2 0 0.0994487 -0.0735273
342 1 10.4686 6.92564 1.49614 4 0.0916076 2 1 0.0994487 -0.0634889
343 1 11.9994 5.6274 0.183157 4 0.0925054 2 0 0.0994487 -0.010532
344 1 12.6757 5.81849 0.861776 4 0.116117 2 0 0.0994487 0.0817234
345 1 11.7774 6.20735 1.05291 4 0.101596 2 0 0.0994487 0.292307
346 1 13.3219 5.86668 1.55471 4 0.135992 2 0 0.0994487 0.208198
347 1 13.3506 6.58297 0.813679 4 0.167743 2 0 0.0994487 -0.29179
348 1 13.3212 5.53867 0.0424813 4 0.128385 2 0 0.0994487 -0.142913
349 1 14.0617 5.71565 0.77266 4 0.160007 2 0 0.0994487 -0.372709
350 1 14.3278 6.65176 1.40646 4 0.219779 2 0 0.0994487 -0.100828
351 1 14.1303 6.38483 0.0380077 4 0.182324 2 0 0.0994487 -0.0826121
352 1 15.0282 5.64393 0.034369 4 0.188642 2 0 0.0994487 0.0573608
353 1 15.8305 5.73813 0.95832 4 0.232292 2 0 0.0994487 0.625719
354 1 15.0472 6.45091 0.806774 4 0.237413 2 0 0.0994487 -0.174529
355 1 16.491 6.45257 1.1401 3 0.321303 2 0 0.0988793 0.204649
356 1 15.1058 5.87594 1.69804 4 0.215091 2 0 0.0994487 -0.0976905
357 1 16.62 5.41933 0.276819 4 0.240009 2 0 0.0994487 0.0799173
358 1 15.6753 6.3382 0.0390223 3 0.250757 2 0 0.0994446 0.0397994
359 1 17.8271 5.30128 0.541411 3 0.273015 2 0 0.0993067 0.150322
360 1 17.113 5.42499 1.24767 3 0.263429 2 0 0.0993699 -0.28662
361 1 17.0619 6.27419 0.411469 3 0.32244 2 0 0.0988666 0.13898
362 1 17.6649 6.24649 1.38542 3 0.358035 2 0 0.0983867 -0.260401
363 1 18.2745 7.0517 1.13153 3 0.47057 2 0 0.0951281 0.688035
364 1 18.3714 6.23173 0.609762 3 0.382485 2 0 0.0979454 0.156199
365 1 19.429 5.75829 0.62055 3 0.37917 2 0 0.0980116 0.0571824
366 1 19.3279 6.55755 1.35081 3 0.474813 2 0 0.0949234 0.289837
367 1 19.9942 6.75229 0.610261 3 0.559749 2 0 0.0886057 -0.0116555
368 1 20.7494 5.77593 0.653722 3 0.457506 2 0 0.0957091 -0.104075
369 1 20.1931 5.61076 1.39557 3 0.401897 2 0 0.0975118 0.312551
370 1 20.7787 6.6124 1.30355 3 0.617227 2 0 0.0808207 -0.346021
371 1 21.6592 6.66248 0.666524 3 0.63193 2 0 0.078205 -0.0433666
372 1 21.6631 5.87866 1.38528 3 0.525036 2 0 0.0917778 0.0421373
373 1 21.6904 5.73259 0.0517844 3 0.47741 2 0 0.094794 -0.00150337
374 1 22.6732 5.8279 0.674154 3 0.505725 2 0 0.0931611 0.00265173
375 1 22.6319 6.69333 1.20734 3 0.665795 2 0 0.0710674 -0.202065
376 1 23.3484 6.78052 0.267835 3 0.626752 2 0 0.0791582 -0.12537
377 1 23.4822 5.88496 1.30013 3 0.510161 2 0 0.0928645 -0.176376
378 1 24.3197 6.56281 1.15825 3 0.556555 2 0 0.0889391 0.174036
379 1 24.1457 6.00685 0.427617 3 0.486982 2 0 0.0942892 0.00243748
380 1 25.6831 5.86213 0.700952 3 0.385274 2 0 0.097888 0.163898
381 1 25.1124 6.04132 1.67733 3 0.437729 2 0 0.0964625 0.00366928
382 1 25.1593 6.74159 0.495153 3 0.50871 2 0 0.0929629 0.0903918
383 1 25.8251 6.59457 1.40775 3 0.446733 2 0 0.096137 0.0881039
384 1 26.6903 5.84511 1.4763 3 0.326353 2 0 0.0988216 0.091764
385 1 27.4966 5.54334 0.722172 3 0.255691 2 0 0.0994166 -0.251568
386 1 26.7485 6.36567 0.651888 3 0.361967 2 0 0.0983226 0.0387538
387 1 27.7011 6.47315 1.36539 3 0.307258 2 0 0.0990253 0.131497
388 1 28.3648 5.52203 1.4872 4 0.217544 2 0 0.0994487 0.0456349
389 1 27.7097 7.0074 0.530173 3 0.338497 2 0 0.0986707 0.0321275
390 1 29.3889 5.30889 0.818726 4 0.177119 2 0 0.0994487 0.316729
391 1 29.4379 6.18214 1.32212 4 0.206124 2 0 0.0994487 -0.00337919
392 1 29.5784 6.89773 0.506505 4 0.229573 2 0 0.0994487 0.0925892
393 1 28.4685 6.20589 0.638647 4 0.24336 2 0 0.0994487 -0.270076
394 1 29.3762 6.15398 0.0801838 4 0.206591 2 0 0.0994487 0.0969271
395 1 28.4822 5.38976 0.0592959 4 0.204423 2 0 0.0994487 -0.105002
396 1 30.9636 5.36838 0.595026 4 0.150266 2 0 0.0994487 0.667848
397 1 30.2159 5.45949 1.46813 4 0.160638 2 0 0.0994487 0.0540224
398 1 30.3958 6.18258 0.649752 4 0.183161 2 0 0.0994487 0.329003
399 1 31.2189 6.15516 1.38439 4 0.168405 2 0 0.0994487 0.587258
400 1 31.1994 6.95407 0.60342 4 0.193941 2 0 0.0994487 0.812253
401 1 31.7235 5.99622 0.446564 4 0.16009 2 0 0.0994487 0.879729
402 1 0.261851 7.63199 0.661866 4 0.00285735 2 0 0.0994487 -0.876374
403 1 0.831025 8.46344 0.61936 4 0.0035251 2 0 0.0994487 -0.577626
404 1 1.11211 7.86396 1.49711 4 0.00341008 2 0 0.0994487 -0.154429
405 1 0.356955 8.5626 1.47035 4 0.00322923 2 0 0.0994487 -0.764984
406 1 1.59266 7.76478 0.37187 4 0.00391532 2 0 0.0994487 -0.0897886
407 1 1.72382 8.61735 1.46471 4 0.00450726 2 0 0.0994487 0.0395959
408 1 2.48799 7.14986 0.476331 4 0.00493622 2 0 0.0994487 -0.0836978
409 1 2.19177 8.6335 0.399707 4 0.00546206 2 0 0.0994487 -0.137269
410 1 2.39416 7.81099 1.27726 4 0.00519505 2 0 0.0994487 0.0869905
411 1 3.01349 8.51445 0.935533 4 0.00741294 2 0 0.0994487 -0.539319
412 1 3.24418 7.77117 0.327041 4 0.00739162 2 0 0.0994487 -0.196207
413 1 3.81243 8.45898 0.0822892 4 0.00976299 2 0 0.0994487 -0.0457801
414 1 3.97971 7.67009 1.24863 4 0.00973835 2 0 0.0994487 -0.0554917
415 1 4.70459 8.25653 0.921772 4 0.0139311 2 0 0.0994487 0.295313
416 1 4.67023 7.63706 0.247803 4 0.012441 2 0 0.0994487 0.037689
417 1 3.81127 8.34851 1.76162 4 0.00980929 2 0 0.0994487 -0.0574372
418 1 5.86955 8.34822 0.169905 4 0.0218636 2 0 0.0994487 0.113103
419 1 5.48363 7.59071 1.03232 4 0.0178639 2 0 0.0994487 -0.467676
420 1 6.49365 7.53799 0.169175 4 0.0250806 2 0 0.0994487 0.18762
421 1 6.39674 8.23976 1.04384 4 0.0287241 2 0 0.0994487 0.338059
422 1 7.28583 7.76918 0.746313 4 0.0386576 2 1 0.0994487 0.00986832
423 1 8.2859 8.31376 0.868772 4 0.0631338 2 2 0.0994487 0.278038
424 1 7.27857 8.18368 1.7015 4 0.0450516 2 2 0.0994487 -0.175027
425 1 8.05208 7.48784 1.5604 4 0.0501943 2 1 0.0994487 0.184967
426 1 7.99895 7.60312 0.0282118 4 0.0463253 2 0 0.0994487 0.0674109
427 1 9.84313 7.22199 0.72344 4 0.0814328 2 1 0.0994487 -0.346975
428 1 8.91207 7.61626 0.661731 4 0.0660542 2 1 0.0994487 0.158483
429 1 9.73234 8.61964 0.693151 4 0.105824 2 3 0.0994487 -0.25689
430 1 9.09265 8.69904 1.44495 4 0.0959064 2 9 0.0994487 -0.393516
431 1 9.64026 7.88932 1.60055 4 0.0985231 2 8 0.0994487 -0.340507
432 1 11.3161 7.14287 0.810636 4 0.113189 2 1 0.0994487 0.448307
433 1 10.5731 7.9454 0.844311 4 0.115579 2 3 0.0994487 -0.19771
434 1 10.5877 8.70196 1.4255 4 0.13773 1 8 0.0994487 -0.153751
435 1 11.4057 7.80503 1.60301 4 0.145352 2 5 0.0994487 0.219254
436 1 11.227 8.11851 0.0422735 4 0.128767 2 0 0.0994487 0.17432
437 1 12.7061 7.28322 0.565784 4 0.170118 2 0 0.0994487 -0.0537339
438 1 12.178 8.23518 0.590765 4 0.175861 2 1 0.0994487 0.161149
439 1 12.0637 7.15788 1.37768 4 0.141651 2 2 0.0994487 0.13803
440 1 12.0887 8.68064 1.49044 4 0.199405 1 4 0.0994487 0.0536848
441 1 12.8601 7.99585 1.47598 4 0.221107 2 2 0.0994487 -0.234984
442 1 14.3373 7.3542 0.580954 4 0.248338 2 0 0.0994487 0.06764
443 1 13.6169 8.09282 0.464536 4 0.244037 2 0 0.0994487 0.0271341
444 1 13.458 7.34024 1.34133 4 0.21628 2 0 0.0994487 0.0629229
445 1 14.2471 8.18371 1.35246 3 0.306171 2 0 0.0990358 0.16959
446 1 16.4328 7.18497 0.276798 3 0.366079 2 0 0.098253 -0.0655625
447 1 15.6276 7.3114 0.923132 3 0.337997 2 0 0.0986773 -0.448998
448 1 15.0689 8.29247 0.865596 3 0.362052 2 0 0.0983212 -0.335398
449 1 16.2796 8.1617 1.10432 0 0.443314 1 0 0.096264 -0.339412
450 1 15.1452 7.52269 1.62484 3 0.342606 2 0 0.0986154 -0.397367
451 1 15.8668 8.31534 0.152632 3 0.411278 2 0 0.0972711 -0.193783
452 1 16.977 7.36262 1.11681 3 0.429404 2 0 0.0967396 0.323524