ITEM: TIMESTEP
18500
ITEM: NUMBER OF ATOMS
9495
ITEM: BOX BOUNDS mm mm mm
0.0000000000000000e+00 3.1748021039364001e+01
0.0000000000000000e+00 3.1748021039364001e+01
-7.4072398406925706e-04 3.1748021039364001e+01
ITEM: ATOMS id type x y z c_phase c_temp c_surf c_nbond c_visc f_3[1]
1 1 0.116341 1.10259 0.464337 4 1.21652e-08 2 0 0.0994487 -0.68194
2 1 0.974108 1.6685 0.77798 4 3.19253e-08 2 0 0.0994487 -0.517031
3 1 0.714648 0.793562 1.41295 4 1.72167e-08 2 0 0.0994487 -0.281794
4 1 0.00336375 1.60273 1.37437 4 1.47045e-08 2 0 0.0994487 -0.804051
5 1 0.729896 0.0633724 0.61602 4 1.0851e-08 3 0 0.0994487 -0.190374
6 1 1.71015 0.808983 1.0155 4 4.50549e-08 2 0 0.0994487 -0.332068
7 1 1.80059 1.47468 0.221075 4 5.41538e-08 2 0 0.0994487 -0.125829
8 1 1.82015 1.66049 1.76126 4 6.38809e-08 2 0 0.0994487 -0.139533
9 1 2.52093 0.749102 0.203812 4 7.71875e-08 2 0 0.0994487 -0.142939
10 1 2.59149 0.0538711 1.03726 4 7.10794e-08 2 0 0.0994487 -0.295004
11 1 2.64922 1.541 0.882848 4 1.31556e-07 2 0 0.0994487 0.235759
12 1 2.66829 0.815502 1.7457 4 9.70455e-08 2 0 0.0994487 -0.18704
13 1 3.43386 0.933692 0.956349 4 2.16368e-07 2 0 0.0994487 0.320244
14 1 3.49924 0.0925696 1.70571 4 1.36916e-07 2 0 0.0994487 0.178054
15 1 3.60652 1.70798 1.71994 4 3.31384e-07 2 0 0.0994487 0.0487958
16 1 4.10576 0.858321 0.325305 4 3.78825e-07 2 0 0.0994487 0.153147
17 1 4.96159 0.56786 1.17466 4 8.34627e-07 2 0 0.0994487 -0.0370658
18 1 4.91949 1.59987 0.383508 4 1.15602e-06 2 0 0.0994487 -0.100247
19 1 4.3472 0.941527 1.62884 4 4.94737e-07 2 0 0.0994487 0.110739
20 1 3.47612 0.111428 0.171027 4 1.25753e-07 2 0 0.0994487 0.166216
21 1 5.64741 0.645627 0.325839 4 1.51687e-06 2 0 0.0994487 -0.080604
22 1 5.88414 1.31048 0.938036 4 2.39195e-06 2 0 0.0994487 -0.199577
23 1 6.57478 1.39104 0.218369 4 4.24282e-06 2 0 0.0994487 -0.0861322
24 1 5.78374 0.460658 1.69897 4 1.50613e-06 2 0 0.0994487 -0.0846515
25 1 5.03122 1.72414 1.43602 4 1.29396e-06 2 0 0.0994487 0.0453737
26 1 6.7138 0.39031 0.865278 4 3.42161e-06 2 0 0.0994487 -0.0793807
27 1 6.69104 1.00962 1.69374 4 3.79993e-06 2 0 0.0994487 -0.107922
28 1 8.2679 0.408875 1.07337 4 1.06548e-05 2 0 0.0994487 -0.100165
29 1 7.36782 1.22285 0.954198 4 7.51111e-06 2 0 0.0994487 -0.302545
30 1 8.24709 1.39092 0.236779 4 1.48362e-05 2 0 0.0994487 -0.0460626
31 1 8.12868 1.27217 1.60653 4 1.26295e-05 2 0 0.0994487 -0.00811541
32 1 7.58247 0.647807 0.140287 4 6.92976e-06 2 0 0.0994487 -0.110935
33 1 8.85849 0.508506 0.273966 4 1.61169e-05 2 0 0.0994487 -0.0616452
34 1 9.55301 0.3386 0.888639 4 2.50495e-05 2 0 0.0994487 0.00506539
35 1 9.02586 1.30716 1.1133 4 2.54746e-05 2 0 0.0994487 -0.0606402
37 1 9.63995 1.37474 0.0900752 4 3.48253e-05 2 0 0.0994487 0.0992924
38 1 11.2128 0.215893 0.632658 4 7.25595e-05 2 0 0.0994487 0.203505
39 1 10.3637 1.04743 0.823114 4 5.50253e-05 2 0 0.0994487 0.53989
40 1 10.523 0.196295 1.44539 4 4.52019e-05 2 0 0.0994487 0.0644297
41 1 11.2856 1.01846 1.41785 4 0.000107966 2 0 0.0994487 0.164709
42 1 10.5797 1.67706 1.72992 4 8.51121e-05 2 0 0.0994487 0.118166
43 1 10.2431 0.367861 0.0780499 4 3.31901e-05 2 0 0.0994487 0.149802
44 1 12.8757 0.211714 0.636805 4 0.000223018 2 0 0.0994487 0.058789
45 1 12.0457 1.07408 0.506655 4 0.000188926 2 0 0.0994487 -0.0235492
46 1 12.1319 0.316439 1.29957 4 0.000149508 2 0 0.0994487 0.0188382
47 1 12.7194 1.19864 1.3723 4 0.000304356 2 0 0.0994487 -0.0305248
48 1 14.3729 0.318493 0.764646 4 0.000540098 2 0 0.0994487 -0.0460372
49 1 13.5924 1.113 0.843618 4 0.000500316 2 0 0.0994487 -0.263049
50 1 14.0399 1.55958 0.167469 4 0.000742539 2 0 0.0994487 -0.0898239
51 1 13.6075 0.359834 1.6352 4 0.000351017 2 0 0.0994487 -0.0562622
52 1 14.3777 1.14948 1.47647 4 0.000700952 2 0 0.0994487 -0.0178259
53 1 14.8761 1.55337 0.662943 4 0.00107456 2 0 0.0994487 0.389951
54 1 15.7061 0.770636 0.788259 4 0.00116155 2 0 0.0994487 0.366485
55 1 16.5532 1.54451 0.681338 4 0.00249641 2 0 0.0994487 0.000807817
56 1 15.1422 0.4642 1.64149 4 0.00075605 2 0 0.0994487 0.152078
57 1 16.547 0.712289 1.3421 4 0.00179502 2 0 0.0994487 0.0956281
58 1 15.6341 1.48544 1.3916 4 0.00152825 2 0 0.0994487 0.153633
59 1 15.1049 0.711806 0.0677822 4 0.000749963 2 0 0.0994487 0.169203
60 1 17.2544 0.732268 0.547589 4 0.0023799 2 0 0.0994487 0.0286311
61 1 17.9231 1.58109 0.757246 4 0.00430228 2 0 0.0994487 0.0415653
62 1 17.916 0.742935 1.42801 4 0.00315626 2 0 0.0994487 -0.224375
63 1 17.2202 1.74884 1.56274 4 0.00371916 2 0 0.0994487 -0.098482
64 1 19.5372 0.0167772 0.662766 4 0.00345314 2 0 0.0994487 0.0436444
65 1 18.7918 0.725074 0.684829 4 0.00384117 2 0 0.0994487 -0.269944
66 1 19.5395 1.55488 0.841653 4 0.00648967 2 0 0.0994487 -0.341159
67 1 19.0276 0.158607 1.54508 4 0.0033553 2 0 0.0994487 -0.158664
68 1 19.5934 0.967491 1.68957 4 0.00494574 2 0 0.0994487 0.00835189
69 1 18.6564 1.51302 1.50035 4 0.00521469 2 0 0.0994487 -0.250306
70 1 21.0889 0.349843 1.06749 4 0.00506839 2 0 0.0994487 -0.196125
71 1 20.2493 0.776373 0.980057 4 0.00526441 2 0 0.0994487 -0.0497591
72 1 21.1062 1.65725 0.951506 4 0.00832542 2 0 0.0994487 0.692919
73 1 21.1874 0.765598 0.218806 4 0.00557764 2 0 0.0994487 -0.04459
74 1 20.3457 1.51479 0.193617 4 0.00707866 2 0 0.0994487 -0.0806015
75 1 22.0087 0.262534 0.539755 4 0.00511492 2 0 0.0994487 0.0993601
76 1 22.7913 0.430275 1.40734 4 0.00555855 2 0 0.0994487 0.206601
77 1 22.1105 1.14763 1.32981 4 0.00694996 2 0 0.0994487 0.240026
78 1 21.9982 1.59955 0.538558 4 0.00868469 2 0 0.0994487 0.185173
79 1 22.9157 1.07463 0.445168 4 0.00690899 2 0 0.0994487 0.0520856
80 1 24.228 0.380179 1.45209 4 0.00542821 2 0 0.0994487 0.0576174
81 1 23.5672 0.357563 0.57369 4 0.00549586 2 0 0.0994487 0.0385718
82 1 24.4367 1.18687 0.754729 4 0.00729148 2 0 0.0994487 -0.0192942
83 1 23.4757 1.2499 1.4028 4 0.00780578 2 0 0.0994487 0.0298788
84 1 24.955 0.315686 0.551996 4 0.00486532 2 0 0.0994487 -0.0171981
85 1 26.0085 0.383365 1.1715 4 0.00404105 2 0 0.0994487 -0.185859
86 1 25.169 1.12579 1.48087 4 0.00654337 2 0 0.0994487 0.0251059
87 1 25.9301 1.73476 1.35794 4 0.00746251 2 0 0.0994487 0.0345371
88 1 25.8917 0.929212 0.432102 4 0.00497036 2 0 0.0994487 -0.095419
89 1 27.5736 1.28032 0.38906 4 0.00347908 2 0 0.0994487 0.0454497
90 1 27.6142 0.50928 0.874321 4 0.00270971 2 0 0.0994487 0.175388
91 1 26.7559 1.02809 1.26347 4 0.00406973 2 0 0.0994487 -0.236885
92 1 28.3748 0.337482 1.39813 4 0.00193722 2 0 0.0994487 0.0098447
93 1 26.7925 0.240345 0.226621 4 0.00299414 2 0 0.0994487 0.0380751
94 1 28.6489 1.24263 0.742341 4 0.00242923 2 0 0.0994487 0.102406
95 1 29.3912 0.945639 1.56878 4 0.00158174 2 0 0.0994487 -0.0192005
96 1 28.5228 1.71921 1.49749 4 0.00298228 2 0 0.0994487 -0.0429805
97 1 29.8133 0.173958 1.46124 4 0.00107754 2 0 0.0994487 0.133416
98 1 29.2734 0.3547 0.615275 4 0.0013463 2 0 0.0994487 -0.081681
99 1 31.5874 0.266128 1.25663 4 0.000526172 3 0 0.0994487 0.830097
100 1 30.7016 0.49015 0.470738 4 0.000854156 2 0 0.0994487 0.354852
101 1 30.1009 1.19877 0.774133 4 0.00137587 2 0 0.0994487 0.21092
102 1 30.8649 0.971942 1.39386 4 0.000981821 2 0 0.0994487 0.703281
103 1 1.11081 2.43607 0.129285 4 4.12142e-08 2 0 0.0994487 -0.037322
104 1 0.133403 2.3821 0.812241 4 2.37145e-08 2 0 0.0994487 -0.984517
105 1 1.28845 3.23764 0.949187 4 8.28883e-08 2 0 0.0994487 0.222095
106 1 1.13977 2.36077 1.59162 4 4.93609e-08 2 0 0.0994487 -0.222189
107 1 0.386685 3.02999 1.54944 4 3.73201e-08 2 0 0.0994487 -0.671256
108 1 0.332248 3.09582 0.131296 4 3.24707e-08 2 0 0.0994487 -0.59134
109 1 1.90972 2.41867 0.78376 4 9.69078e-08 2 0 0.0994487 0.0782103
110 1 2.65852 3.28029 0.860875 4 3.10496e-07 2 0 0.0994487 0.0668057
111 1 2.66931 2.22918 1.53373 4 1.80711e-07 2 0 0.0994487 0.0829559
112 1 3.2579 3.42668 1.64938 4 5.63392e-07 2 0 0.0994487 0.00397612
113 1 2.7261 2.38168 0.0557193 4 1.6052e-07 2 0 0.0994487 0.146601
114 1 3.38195 2.55413 0.779289 4 4.17283e-07 2 0 0.0994487 0.211585
115 1 4.00679 1.841 0.711184 4 5.57312e-07 2 0 0.0994487 -0.0361216
116 1 4.91383 2.57277 0.815661 4 1.78843e-06 2 0 0.0994487 -0.259346
117 1 4.20148 3.3175 0.749446 4 1.32376e-06 2 0 0.0994487 0.00621743
118 1 4.13245 2.64107 1.58328 4 8.75968e-07 2 0 0.0994487 0.027079
119 1 5.65047 2.44269 0.132743 4 3.01361e-06 2 0 0.0994487 -0.189924
120 1 6.55776 2.18062 0.772597 4 5.92572e-06 2 0 0.0994487 -0.289372
121 1 5.64874 3.19593 0.952489 4 4.43264e-06 2 0 0.0994487 -0.754628
122 1 5.861 2.19426 1.49672 4 3.22671e-06 2 0 0.0994487 0.0126372
123 1 6.52037 3.06691 1.5557 4 8.29335e-06 2 0 0.0994487 0.0443592
124 1 6.65033 2.92778 0.134227 4 7.77937e-06 2 0 0.0994487 0.0288881
125 1 7.45405 2.22586 0.139832 4 1.1805e-05 2 0 0.0994487 -0.0535009
126 1 8.08209 2.20208 0.930382 4 1.99013e-05 2 0 0.0994487 -0.302061
127 1 7.40132 3.06835 0.934051 4 1.76601e-05 2 0 0.0994487 -0.0455039
128 1 7.29928 2.06035 1.56856 4 9.78182e-06 2 0 0.0994487 -0.0607313
129 1 8.18545 3.00183 1.65211 4 3.03115e-05 2 0 0.0994487 -0.0454143
130 1 8.26934 2.9712 0.0392146 4 3.15528e-05 2 0 0.0994487 -0.150616
131 1 8.90393 2.08699 0.252387 4 3.19995e-05 2 0 0.0994487 0.00243502
132 1 9.77243 2.0246 1.10996 4 5.95495e-05 2 0 0.0994487 0.173471
133 1 8.92671 2.97262 0.928693 4 5.40084e-05 2 0 0.0994487 -0.156744
134 1 9.03062 2.22066 1.70398 4 3.84888e-05 2 0 0.0994487 -0.0819665
135 1 9.56096 2.90576 0.21312 4 7.40871e-05 2 0 0.0994487 0.173122
136 1 10.2834 2.1137 0.214297 4 7.47586e-05 2 0 0.0994487 0.33774
137 1 11.1583 1.82604 0.771092 4 0.000141985 2 0 0.0994487 0.260092
138 1 10.6214 2.80819 0.921535 4 0.000162645 2 0 0.0994487 0.541924
139 1 11.4444 2.82964 1.57484 4 0.000291997 2 0 0.0994487 0.0952018
140 1 12.6737 1.94118 0.593851 4 0.000436897 2 0 0.0994487 -0.283931
141 1 11.928 2.64099 0.742299 4 0.00037033 2 0 0.0994487 -0.0386709
142 1 11.9239 1.9206 1.46509 4 0.000252279 2 0 0.0994487 0.094656
143 1 12.8449 3.01766 1.68597 4 0.000756227 2 0 0.0994487 0.0363581
144 1 13.1791 3.03035 0.848852 4 0.000970909 2 0 0.0994487 -0.440851
145 1 13.3784 1.9912 1.48064 4 0.000630377 2 0 0.0994487 -0.0150687
146 1 14.0206 2.44438 0.927124 4 0.00114167 2 0 0.0994487 -0.133093
147 1 14.0279 3.38359 1.55716 4 0.00178942 2 0 0.0994487 0.0255759
148 1 14.6961 3.43698 0.884932 4 0.00265358 2 0 0.0994487 -0.332949
149 1 14.7823 2.29758 1.44821 4 0.00152163 2 0 0.0994487 0.0469285
150 1 14.8418 2.51505 0.136557 4 0.00169991 2 0 0.0994487 0.173006
151 1 14.1591 3.2262 0.0325348 4 0.00177365 2 0 0.0994487 -0.246104
152 1 13.4137 2.29398 0.0590902 4 0.000764768 2 0 0.0994487 -0.280961
153 1 15.6993 2.44373 0.692668 4 0.00257255 2 0 0.0994487 0.364396
154 1 16.3029 3.20095 0.662084 4 0.00488362 2 0 0.0994487 0.32859
155 1 16.308 2.47951 1.52575 4 0.00360598 2 0 0.0994487 -0.100645
156 1 15.3694 3.25723 1.50191 4 0.00338869 2 0 0.0994487 -0.00766784
157 1 15.5706 3.25854 0.0192499 4 0.00321123 2 0 0.0994487 0.290238
158 1 17.0646 2.35032 0.682778 4 0.0045757 2 0 0.0994487 0.0234829
159 1 17.944 2.92608 0.699539 4 0.00880105 2 0 0.0994487 -0.231189
160 1 18.0193 2.43917 1.58112 4 0.0069232 2 0 0.0994487 -0.149133
161 1 17.0918 3.1162 1.49491 4 0.00697639 2 0 0.0994487 -0.143433
162 1 18.8908 2.35742 1.01358 4 0.00846681 2 0 0.0994487 -0.516826
163 1 19.7027 3.2427 1.27782 4 0.0155552 2 0 0.0994487 0.394883
164 1 18.884 2.99607 0.196019 4 0.0115322 2 0 0.0994487 -0.171808
165 1 19.587 2.34239 0.101452 4 0.00951998 2 0 0.0994487 -0.13237
166 1 20.3251 1.78863 1.72442 4 0.00773421 2 0 0.0994487 0.0449543
167 1 21.1565 2.41663 0.458355 4 0.0126899 2 0 0.0994487 0.196189
168 1 20.1948 2.46882 1.11433 4 0.0111506 2 0 0.0994487 0.286749
169 1 21.31 3.29463 1.39314 4 0.0223119 2 0 0.0994487 0.0777313
170 1 20.4222 2.99313 0.334941 4 0.0152562 2 0 0.0994487 0.186292
171 1 22.8719 2.07007 1.50872 4 0.0122308 2 0 0.0994487 -0.022122
172 1 22.9717 2.60199 0.735523 4 0.0176597 2 0 0.0994487 0.133329
173 1 22.0961 2.49917 1.23787 4 0.0154264 2 0 0.0994487 0.186441
174 1 21.9898 3.20043 0.598797 4 0.0237009 2 0 0.0994487 -0.0757472
175 1 22.6771 3.40124 0.07601 4 0.0272867 2 0 0.0994487 0.0760744
176 1 23.7438 1.80844 0.624025 4 0.0102579 2 0 0.0994487 -0.0873576
177 1 24.4289 1.98763 1.61102 4 0.0110177 2 0 0.0994487 -0.0641747
178 1 24.342 2.68296 0.775192 4 0.0164657 2 0 0.0994487 -0.34109
179 1 23.6887 2.90303 1.53628 4 0.0198324 2 0 0.0994487 -0.110503
180 1 24.4728 3.51078 1.55704 4 0.0264617 2 0 0.0994487 -0.118304
181 1 24.9562 2.84566 0.0146836 4 0.0155417 2 0 0.0994487 -0.0864591
182 1 26.5483 1.79415 0.511367 4 0.00626671 2 0 0.0994487 -0.00559945
183 1 25.1322 1.85613 0.509414 4 0.00938635 2 0 0.0994487 -0.021528
184 1 25.7918 2.61203 0.707489 4 0.0125874 2 0 0.0994487 0.228203
185 1 25.1579 2.55548 1.52547 4 0.0137991 2 0 0.0994487 0.0576677
186 1 25.7213 3.49812 1.51211 4 0.0212861 2 0 0.0994487 0.123858
187 1 26.5364 2.56002 1.53049 4 0.00970127 2 0 0.0994487 0.0579481
188 1 26.1686 3.50068 0.599043 4 0.0189035 2 0 0.0994487 0.168846
189 1 27.5039 1.98546 1.23792 4 0.00494427 2 0 0.0994487 -0.186418
190 1 28.2489 2.09022 0.343734 4 0.00391438 2 0 0.0994487 -0.0177245
191 1 27.0867 2.6924 0.645359 4 0.0085187 2 0 0.0994487 -0.1056
192 1 27.1998 3.35397 1.41682 4 0.011665 2 0 0.0994487 -0.098328
193 1 28.2537 2.75799 1.20639 4 0.00544598 2 0 0.0994487 -0.418306
194 1 27.982 3.21993 0.326384 4 0.0074872 2 0 0.0994487 -0.125257
195 1 29.9568 1.80906 1.70764 4 0.00181241 2 0 0.0994487 0.183201
196 1 29.4477 2.04702 0.879698 4 0.00248079 2 0 0.0994487 -0.00708269
197 1 29.1956 2.6589 0.290703 4 0.00344899 2 0 0.0994487 -0.0578282
198 1 29.2495 3.2651 1.17365 4 0.00455352 2 0 0.0994487 0.118635
199 1 30.9114 1.98502 0.924207 4 0.00154075 2 0 0.0994487 0.967251
200 1 30.1815 2.71094 1.00186 4 0.0024833 2 0 0.0994487 0.675111
201 1 31.0247 3.35309 0.97101 4 0.00252101 2 0 0.0994487 0.998409
202 1 30.9865 2.69483 1.72648 4 0.00193689 2 0 0.0994487 0.578501
203 1 30.1092 3.25953 0.132205 4 0.0029336 2 0 0.0994487 -0.0443658
204 1 30.4116 1.90909 0.0255368 4 0.00157642 2 0 0.0994487 0.106045
205 1 31.1434 2.66402 0.0761253 4 0.00174874 2 0 0.0994487 0.70882
206 1 0.293831 3.78503 0.918557 4 4.898e-08 2 0 0.0994487 -0.999347
207 1 0.143046 4.59443 0.482118 4 5.82069e-08 2 0 0.0994487 -0.784494
208 1 1.14036 4.67093 0.986638 4 1.39351e-07 2 0 0.0994487 -0.516751
209 1 0.0884667 5.26681 1.27761 4 7.26381e-08 2 0 0.0994487 -0.887458
210 1 1.04069 3.86421 0.0595682 4 7.77255e-08 2 0 0.0994487 0.0148882
211 1 1.84117 4.04604 0.847105 4 2.09464e-07 2 0 0.0994487 0.00827079
212 1 2.54049 4.85585 1.13748 4 5.62044e-07 2 0 0.0994487 -0.333844
213 1 2.64953 4.14475 0.20674 4 4.5897e-07 2 0 0.0994487 -0.0285715
214 1 1.89758 4.96895 0.278386 4 3.19618e-07 2 0 0.0994487 -0.153433
215 1 3.40771 4.86189 0.161635 4 1.22518e-06 2 0 0.0994487 -0.0163872
216 1 3.494 4.07675 0.885909 4 9.86533e-07 2 0 0.0994487 0.0268968
217 1 4.91235 4.00001 1.18344 4 3.41211e-06 2 0 0.0994487 0.0115171
218 1 4.04658 4.88002 1.14639 4 2.27323e-06 2 0 0.0994487 0.264492
219 1 4.26027 4.18509 0.149001 4 1.97042e-06 2 0 0.0994487 0.0377391
220 1 5.00947 4.74001 0.341082 4 4.93824e-06 2 0 0.0994487 0.0765416
221 1 5.77735 3.9378 0.198707 4 6.04553e-06 2 0 0.0994487 0.0260168
222 1 6.48883 3.76611 0.772067 4 1.11596e-05 2 0 0.0994487 0.204557
223 1 5.68025 4.73638 1.02487 4 9.27694e-06 2 0 0.0994487 -0.621673
224 1 6.66321 4.5115 1.6428 4 1.75521e-05 2 0 0.0994487 0.158935
225 1 6.68072 5.1315 0.885352 4 2.51415e-05 2 0 0.0994487 0.206865
226 1 8.1982 3.892 0.700757 4 5.03848e-05 2 0 0.0994487 -0.369896
227 1 7.40842 4.46072 0.5468 4 3.40811e-05 2 0 0.0994487 -0.02521
228 1 7.39886 3.87029 1.49684 4 2.48955e-05 2 0 0.0994487 0.102579
229 1 8.20004 4.61106 1.48677 4 6.81914e-05 2 0 0.0994487 -0.0118348
230 1 9.8976 3.57792 0.885667 4 0.000146557 2 0 0.0994487 0.592813
231 1 9.07913 4.56551 0.821335 4 0.00013012 2 0 0.0994487 -0.658533
232 1 9.86266 4.50302 0.126324 4 0.000192187 2 0 0.0994487 0.0958669
233 1 9.07829 3.76256 1.49819 4 8.97963e-05 2 0 0.0994487 -0.0708837
234 1 9.86881 4.3462 1.65532 4 0.000207443 2 0 0.0994487 -0.0856608
235 1 8.98541 3.86821 0.0631775 4 8.2372e-05 2 0 0.0994487 -0.138752
236 1 11.408 3.64493 0.778297 4 0.000431231 2 0 0.0994487 0.202069
237 1 10.5891 4.66652 0.906264 4 0.000392068 2 0 0.0994487 0.04509
238 1 11.3867 4.69403 0.230734 4 0.00067359 2 0 0.0994487 -0.0498883
239 1 10.7059 3.56689 1.58785 4 0.000258669 2 0 0.0994487 -0.0448475
240 1 11.3652 4.3716 1.70545 4 0.000578391 2 0 0.0994487 -0.0798262
241 1 11.3894 5.27213 0.983682 4 0.000869973 2 0 0.0994487 -0.674472
242 1 10.5826 3.84888 0.176129 4 0.000247182 2 0 0.0994487 0.210468
243 1 12.5168 3.57716 0.814749 4 0.000856922 2 0 0.0994487 -0.010574
244 1 12.1916 4.55033 1.00021 4 0.00108359 2 0 0.0994487 0.105059
245 1 12.7362 4.99738 1.68903 4 0.00168301 2 0 0.0994487 0.191331
246 1 13.2258 4.67863 0.80017 4 0.00217291 2 0 0.0994487 -0.00469433
247 1 12.6435 4.61885 0.0632315 4 0.00148682 2 0 0.0994487 -0.0335794
248 1 13.9891 4.12825 0.69648 4 0.00264362 2 0 0.0994487 -0.430176
249 1 13.4832 4.21781 1.59317 4 0.00194498 2 0 0.0994487 0.0820188
250 1 14.2046 5.11838 1.52001 4 0.00449037 2 0 0.0994487 -0.0289903
251 1 14.9402 5.01141 0.811699 4 0.00628316 2 0 0.0994487 -0.0527109
252 1 14.9642 4.4167 1.59432 4 0.00486547 2 0 0.0994487 -0.0635615
253 1 14.1405 4.90647 0.0597868 4 0.00389918 2 0 0.0994487 -0.085694
254 1 14.961 4.19423 0.096508 4 0.00413109 2 0 0.0994487 0.0322732
255 1 15.6685 4.06642 0.926277 4 0.00571325 2 0 0.0994487 0.872595
256 1 15.8798 4.77595 0.186426 4 0.00850236 2 0 0.0994487 0.16539
257 1 16.5936 4.58036 0.900182 4 0.0112821 2 0 0.0994487 -0.0789751
258 1 16.3184 3.95875 1.6903 4 0.00741769 2 0 0.0994487 -0.0433965
259 1 15.8111 5.05317 1.64084 4 0.00938662 2 0 0.0994487 0.0994998
260 1 17.2689 3.83372 0.811237 4 0.0107487 2 0 0.0994487 -0.345383
261 1 18.0864 4.48855 1.09806 4 0.0190083 2 0 0.0994487 -0.612152
262 1 17.9525 3.63794 1.65602 4 0.0123157 2 0 0.0994487 -0.192805
263 1 17.4569 4.57727 0.0147963 4 0.0148283 2 0 0.0994487 -0.0974096
264 1 18.1348 3.8547 0.0583493 4 0.0138031 2 0 0.0994487 -0.120517
265 1 18.8779 3.70667 0.95022 4 0.0163717 2 0 0.0994487 0.0692383
266 1 18.8235 4.60949 0.361826 4 0.0241012 2 0 0.0994487 0.11561
267 1 19.6906 4.67872 1.0803 4 0.0352109 2 0 0.0994487 0.931527
268 1 18.7859 5.27693 1.20102 4 0.0355242 2 0 0.0994487 0.599116
269 1 19.5987 3.76722 0.227421 4 0.0194539 2 0 0.0994487 0.16427
270 1 20.4384 3.82188 1.23329 4 0.0261961 2 0 0.0994487 0.325957
271 1 20.8846 4.71868 1.39403 4 0.0519387 2 0 0.0994487 0.149061
272 1 21.5775 4.95128 0.810455 4 0.0713402 2 0 0.0994487 -0.0037436
273 1 21.0824 3.93136 0.512408 4 0.0321117 2 0 0.0994487 0.0883053
274 1 20.1339 4.78559 0.352846 4 0.0421184 2 0 0.0994487 0.145588
275 1 22.8205 3.63186 1.42135 4 0.0322767 2 0 0.0994487 -0.0183981
276 1 21.9406 4.13318 1.31068 4 0.042724 2 0 0.0994487 0.0272068
277 1 22.4705 5.17735 1.27286 4 0.088656 2 0 0.0994487 0.0207093
278 1 22.6119 4.34705 0.510028 4 0.0504574 2 0 0.0994487 -0.0221043
279 1 23.5735 3.63903 0.782677 4 0.0326118 2 0 0.0994487 0.185561
280 1 24.336 4.32055 0.625018 4 0.0463108 2 0 0.0994487 -0.150093
281 1 23.4679 4.54946 1.33355 4 0.0581977 2 0 0.0994487 -0.0790543
282 1 24.8518 5.25716 0.566763 4 0.0704652 2 0 0.0994487 0.0409063
283 1 23.5518 5.06386 0.533607 4 0.0788868 2 0 0.0994487 -0.096888
284 1 25.0086 4.50055 1.62342 4 0.0446489 2 0 0.0994487 -0.0421951
285 1 25.0629 3.68037 0.802132 4 0.0272911 2 0 0.0994487 -0.187916
286 1 24.363 5.28843 1.43377 4 0.0806096 2 0 0.0994487 -0.15471
287 1 25.6904 5.1389 1.34266 4 0.0538633 2 0 0.0994487 0.2101
288 1 26.3575 4.29031 1.37159 4 0.0275309 2 0 0.0994487 0.149482
289 1 26.5026 4.97257 0.640732 4 0.0367603 2 0 0.0994487 0.0989667
290 1 25.5284 4.40089 0.388179 4 0.036674 2 0 0.0994487 0.0559477
291 1 27.3302 4.86961 1.40568 4 0.0253282 2 0 0.0994487 0.00660965
292 1 27.9624 3.97641 1.10408 4 0.0117335 2 0 0.0994487 -0.309504
293 1 28.2771 4.73475 0.706344 4 0.0153631 2 0 0.0994487 -0.081247
294 1 27.0674 4.04323 0.570038 4 0.0181524 2 0 0.0994487 0.0120225
295 1 28.9321 3.77016 0.487204 4 0.00664483 2 0 0.0994487 -0.00703266
296 1 29.0873 4.52317 1.33085 4 0.00928805 2 0 0.0994487 0.0574856
297 1 29.9979 4.07209 1.02303 4 0.00476806 2 0 0.0994487 -0.275232
298 1 31.0296 3.97382 0.373364 4 0.00315065 2 0 0.0994487 0.657583
299 1 30.2046 4.67765 0.491317 4 0.00589514 2 0 0.0994487 0.00995828
300 1 30.9783 4.59929 1.41131 4 0.0042104 2 0 0.0994487 0.679914
301 1 0.908283 5.53205 0.461647 4 1.62226e-07 2 0 0.0994487 -0.463784
302 1 1.53161 5.51184 1.37971 4 2.71178e-07 2 0 0.0994487 -0.117386
303 1 0.793684 6.22023 1.2768 4 1.89048e-07 2 0 0.0994487 -0.703381
304 1 0.257003 6.91734 1.50738 4 1.51046e-07 2 0 0.0994487 -0.772633
305 1 0.969942 6.9454 0.573423 4 2.86329e-07 2 0 0.0994487 -0.473532
306 1 1.7053 7.02884 1.23811 4 5.33261e-07 2 0 0.0994487 0.0665189
307 1 1.89588 6.19966 0.519025 4 5.07663e-07 2 0 0.0994487 -0.156399
308 1 3.10475 5.61709 1.30057 4 1.24586e-06 2 0 0.0994487 0.0402539
309 1 2.26359 6.15348 1.40977 4 6.53288e-07 2 0 0.0994487 0.0408568
310 1 3.25442 6.96226 1.12748 4 2.52735e-06 2 0 0.0994487 -0.0541218
311 1 2.68177 5.61289 0.273587 4 8.47125e-07 2 0 0.0994487 -0.0596849
312 1 3.39503 6.28191 0.500536 4 2.30962e-06 2 0 0.0994487 -0.121442
313 1 4.18979 5.46246 0.325783 4 3.31501e-06 2 0 0.0994487 0.0310191
314 1 4.93434 5.42873 1.31778 4 6.9762e-06 2 0 0.0994487 -0.235098
315 1 4.13622 6.09659 1.22779 4 4.38666e-06 2 0 0.0994487 -0.089387
316 1 4.82567 6.23357 0.333842 4 8.15501e-06 2 0 0.0994487 -0.034574
317 1 4.77312 6.79931 1.15967 4 1.03888e-05 2 0 0.0994487 -0.305927
318 1 4.00267 7.02511 0.221759 4 5.05794e-06 2 0 0.0994487 -0.0853425
319 1 5.78575 5.42185 0.301847 4 1.29224e-05 2 0 0.0994487 0.0125039
320 1 5.6935 6.24342 0.9632 4 1.79489e-05 2 0 0.0994487 -0.967781
321 1 6.4578 5.98425 1.59671 4 2.91866e-05 2 0 0.0994487 0.140916
322 1 6.43234 6.86927 1.00965 4 4.26967e-05 2 0 0.0994487 0.85168
323 1 6.37773 6.04115 0.154639 4 2.45689e-05 2 0 0.0994487 0.111114
324 1 5.54993 7.05206 0.147147 4 1.91208e-05 2 0 0.0994487 0.0363881
325 1 8.21355 5.31419 0.694273 4 9.54036e-05 2 0 0.0994487 -0.089587
326 1 7.32761 6.15925 0.754293 4 6.53397e-05 2 0 0.0994487 0.225737
327 1 7.39163 5.41839 1.49138 4 4.98715e-05 2 0 0.0994487 0.136756
328 1 8.23884 6.11028 1.49159 4 0.000135896 2 0 0.0994487 0.0187401
329 1 8.01352 6.85364 0.728993 4 0.000154509 2 0 0.0994487 0.0691919
330 1 7.28191 6.86379 1.59601 4 8.88412e-05 2 1 0.0994487 0.12605
331 1 7.33029 5.3575 0.0461812 4 4.07769e-05 2 0 0.0994487 0.0813581
332 1 9.76796 5.3194 0.792562 4 0.000286165 2 0 0.0994487 0.328453
333 1 8.88016 6.18865 0.736908 4 0.000229058 2 0 0.0994487 -0.235536
334 1 9.05434 5.3271 1.5973 4 0.000177572 2 0 0.0994487 -0.0628292
335 1 9.73844 6.19052 1.46731 4 0.000430086 2 0 0.0994487 -0.106418
336 1 9.09351 6.95013 1.463 4 0.000388163 2 2 0.0994487 -0.0757311
337 1 9.76329 6.23201 0.0941385 4 0.000401219 2 0 0.0994487 -0.03595
338 1 8.99733 5.46479 0.012702 4 0.00016603 2 0 0.0994487 -0.134753
339 1 10.5831 6.02196 0.964384 4 0.000694767 2 0 0.0994487 -0.356464
340 1 11.3128 6.37134 0.0776634 4 0.00106841 2 0 0.0994487 0.100342
341 1 10.5187 6.94145 0.15452 4 0.000855769 2 0 0.0994487 -0.0735371
342 1 10.4686 6.92564 1.49614 4 0.000963015 2 1 0.0994487 -0.0635101
343 1 11.9994 5.6274 0.183157 4 0.00134528 2 0 0.0994487 -0.0105303
344 1 12.6757 5.81849 0.861776 4 0.00239021 2 0 0.0994487 0.0817471
345 1 11.7774 6.20735 1.05291 4 0.00155418 2 0 0.0994487 0.292181
346 1 13.3219 5.86668 1.55471 4 0.00349724 2 0 0.0994487 0.208167
347 1 13.3506 6.58297 0.813679 4 0.00510429 2 0 0.0994487 -0.292117
348 1 13.3212 5.53867 0.0424813 4 0.00313463 2 0 0.0994487 -0.14291
349 1 14.0617 5.71565 0.77266 4 0.0053484 2 0 0.0994487 -0.372675
350 1 14.3278 6.65176 1.40646 4 0.00966328 2 1 0.0994487 -0.103138
351 1 14.1303 6.38483 0.0380077 4 0.00656214 2 0 0.0994487 -0.0826106
352 1 15.0282 5.64393 0.034369 4 0.00806304 2 0 0.0994487 0.0573636
353 1 15.8305 5.73813 0.95832 4 0.0134611 2 0 0.0994487 0.625782
354 1 15.0472 6.45091 0.806774 4 0.0124874 2 0 0.0994487 -0.176057
355 1 16.491 6.45257 1.1401 4 0.0258966 2 0 0.0994487 0.208313
356 1 15.1058 5.87594 1.69804 4 0.0104816 2 0 0.0994487 -0.0976579
357 1 16.62 5.41933 0.276819 4 0.0158451 2 0 0.0994487 0.0799213
358 1 15.6753 6.3382 0.0390223 4 0.0147858 2 0 0.0994487 0.0398507
359 1 17.8271 5.30128 0.541411 4 0.0243006 2 0 0.0994487 0.150327
360 1 17.113 5.42499 1.24767 4 0.0207302 2 0 0.0994487 -0.286575
361 1 17.0619 6.27419 0.411469 4 0.0287155 2 0 0.0994487 0.138948
362 1 17.6649 6.24649 1.38542 4 0.0381739 2 0 0.0994487 -0.254262
363 1 18.2745 7.0517 1.13153 4 0.067298 2 1 0.0994487 0.631033
364 1 18.3714 6.23173 0.609762 4 0.0488249 2 0 0.0994487 0.15618
365 1 19.429 5.75829 0.62055 4 0.0583302 2 0 0.0994487 0.0571872
366 1 19.3279 6.55755 1.35081 4 0.0846646 2 0 0.0994487 0.274634
367 1 19.9942 6.75229 0.610261 4 0.123882 2 0 0.0994487 -0.0119245
368 1 20.7494 5.77593 0.653722 4 0.0957704 2 0 0.0994487 -0.104062
369 1 20.1931 5.61076 1.39557 4 0.0718139 2 0 0.0994487 0.312026
370 1 20.7787 6.6124 1.30355 4 0.161207 2 0 0.0994487 -0.344834
371 1 21.6592 6.66248 0.666524 4 0.178528 2 0 0.0994487 -0.043486
372 1 21.6631 5.87866 1.38528 4 0.130417 2 0 0.0994487 0.0420575
373 1 21.6904 5.73259 0.0517844 4 0.106692 2 0 0.0994487 -0.00150022
374 1 22.6732 5.8279 0.674154 4 0.126543 2 0 0.0994487 0.00266082
375 1 22.6319 6.69333 1.20734 4 0.208573 2 0 0.0994487 -0.201658
376 1 23.3484 6.78052 0.267835 4 0.186332 2 0 0.0994487 -0.125378
377 1 23.4822 5.88496 1.30013 4 0.131958 2 0 0.0994487 -0.176391
378 1 24.3197 6.56281 1.15825 4 0.153732 2 0 0.0994487 0.173539
379 1 24.1457 6.00685 0.427617 4 0.119953 2 0 0.0994487 0.00243758
380 1 25.6831 5.86213 0.700952 4 0.0758977 2 0 0.0994487 0.163896
381 1 25.1124 6.04132 1.67733 4 0.0976368 2 0 0.0994487 0.00366783
382 1 25.1593 6.74159 0.495153 4 0.126426 2 0 0.0994487 0.0903898
383 1 25.8251 6.59457 1.40775 4 0.0978788 2 0 0.0994487 0.0881001
384 1 26.6903 5.84511 1.4763 4 0.0531747 2 0 0.0994487 0.0917609
385 1 27.4966 5.54334 0.722172 4 0.0316779 2 0 0.0994487 -0.251573
386 1 26.7485 6.36567 0.651888 4 0.0634454 2 0 0.0994487 0.0387495
387 1 27.7011 6.47315 1.36539 4 0.0436143 2 0 0.0994487 0.131492
388 1 28.3648 5.52203 1.4872 4 0.0210796 2 0 0.0994487 0.0456331
389 1 27.7097 7.0074 0.530173 4 0.0511172 2 0 0.0994487 0.0321225
390 1 29.3889 5.30889 0.818726 4 0.0119867 2 0 0.0994487 0.316727
391 1 29.4379 6.18214 1.32212 4 0.0157477 2 0 0.0994487 -0.00338118
392 1 29.5784 6.89773 0.506505 4 0.0186038 2 0 0.0994487 0.0925863
393 1 28.4685 6.20589 0.638647 4 0.0255261 2 0 0.0994487 -0.270082
394 1 29.3762 6.15398 0.0801838 4 0.0156451 2 0 0.0994487 0.0969263
395 1 28.4822 5.38976 0.0592959 4 0.0175351 2 0 0.0994487 -0.105003
396 1 30.9636 5.36838 0.595026 4 0.00627675 2 0 0.0994487 0.667849
397 1 30.2159 5.45949 1.46813 4 0.00826873 2 0 0.0994487 0.0540214
398 1 30.3958 6.18258 0.649752 4 0.0103547 2 0 0.0994487 0.329001
399 1 31.2189 6.15516 1.38439 4 0.00740053 2 0 0.0994487 0.587258
400 1 31.1994 6.95407 0.60342 4 0.00970144 2 0 0.0994487 0.812251
401 1 31.7235 5.99622 0.446564 4 0.00606768 2 0 0.0994487 0.879729
402 1 0.261851 7.63199 0.661866 4 2.02845e-07 2 0 0.0994487 -0.876373
403 1 0.831025 8.46344 0.61936 4 3.73023e-07 2 0 0.0994487 -0.577626
404 1 1.11211 7.86396 1.49711 4 3.81649e-07 2 0 0.0994487 -0.154428
405 1 0.356955 8.5626 1.47035 4 2.56166e-07 2 0 0.0994487 -0.764984
406 1 1.59266 7.76478 0.37187 4 6.12459e-07 2 0 0.0994487 -0.0897873
407 1 1.72382 8.61735 1.46471 4 8.22606e-07 2 0 0.0994487 0.0395976
408 1 2.48799 7.14986 0.476331 4 1.2846e-06 2 0 0.0994487 -0.0836948
409 1 2.19177 8.6335 0.399707 4 1.36964e-06 2 0 0.0994487 -0.137267
410 1 2.39416 7.81099 1.27726 4 1.35188e-06 2 0 0.0994487 0.0869933
411 1 3.01349 8.51445 0.935533 4 3.01767e-06 2 0 0.0994487 -0.539307
412 1 3.24418 7.77117 0.327041 4 3.12831e-06 2 0 0.0994487 -0.196203
413 1 3.81243 8.45898 0.0822892 4 5.65187e-06 2 0 0.0994487 -0.0457774
414 1 3.97971 7.67009 1.24863 4 6.11119e-06 2 0 0.0994487 -0.0554871
415 1 4.70459 8.25653 0.921772 4 1.36992e-05 2 0 0.0994487 0.295348
416 1 4.67023 7.63706 0.247803 4 1.07316e-05 2 0 0.0994487 0.0376938
417 1 3.81127 8.34851 1.76162 4 5.62476e-06 2 0 0.0994487 -0.057435
418 1 5.86955 8.34822 0.169905 4 3.56238e-05 2 0 0.0994487 0.113107
419 1 5.48363 7.59071 1.03232 4 2.45911e-05 2 0 0.0994487 -0.467655
420 1 6.49365 7.53799 0.169175 4 5.02373e-05 2 0 0.0994487 0.187626
421 1 6.39674 8.23976 1.04384 4 6.68986e-05 2 0 0.0994487 0.338166
422 1 7.28583 7.76918 0.746313 4 0.000124702 2 1 0.0994487 0.00994241
423 1 8.2859 8.31376 0.868772 4 0.000333072 2 2 0.0994487 0.278835
424 1 7.27857 8.18368 1.7015 4 0.000164585 2 2 0.0994487 -0.174656
425 1 8.05208 7.48784 1.5604 4 0.000218014 2 1 0.0994487 0.185107
426 1 7.99895 7.60312 0.0282118 4 0.000170116 2 0 0.0994487 0.0674148
427 1 9.84313 7.22199 0.72344 4 0.000696716 2 1 0.0994487 -0.346917
428 1 8.91207 7.61626 0.661731 4 0.000406287 2 1 0.0994487 0.158726
429 1 9.73234 8.61964 0.693151 4 0.00102773 2 3 0.0994487 -0.257259
430 1 9.09265 8.69904 1.44495 4 0.000772952 2 9 0.0994487 -0.394637
431 1 9.64026 7.88932 1.60055 4 0.000910294 2 8 0.0994487 -0.340283
432 1 11.3161 7.14287 0.810636 4 0.00165323 2 1 0.0994487 0.448517
433 1 10.5731 7.9454 0.844311 4 0.00143104 2 3 0.0994487 -0.198517
434 1 10.5877 8.70196 1.4255 4 0.00193278 1 8 0.0994487 -0.146927
435 1 11.4057 7.80503 1.60301 4 0.00252606 2 7 0.0994487 0.228233
436 1 11.227 8.11851 0.0422735 4 0.0018428 2 0 0.0994487 0.174331
437 1 12.7061 7.28322 0.565784 4 0.00450169 2 0 0.0994487 -0.0531414
438 1 12.178 8.23518 0.590765 4 0.00417037 2 2 0.0994487 0.163946
439 1 12.0637 7.15788 1.37768 4 0.00290749 2 3 0.0994487 0.145644
440 1 12.0887 8.68064 1.49044 4 0.00509926 1 8 0.0994487 0.0825047
441 1 12.8601 7.99585 1.47598 4 0.00706797 2 6 0.0994487 -0.216816
442 1 14.3373 7.3542 0.580954 4 0.0116499 2 0 0.0994487 0.0648961