ITEM: TIMESTEP
27500
ITEM: NUMBER OF ATOMS
9495
ITEM: BOX BOUNDS mm mm mm
0.0000000000000000e+00 3.1748021039364001e+01
0.0000000000000000e+00 3.1748021039364001e+01
-7.4072398406925706e-04 3.1748021039364001e+01
ITEM: ATOMS id type x y z c_phase c_temp c_surf c_nbond c_visc f_3[1]
1 1 0.116341 1.10259 0.464337 4 3.74366e-06 2 0 0.0994487 -0.68194
2 1 0.974108 1.6685 0.77798 4 6.72303e-06 2 0 0.0994487 -0.51703
3 1 0.714648 0.793562 1.41295 4 4.5649e-06 2 0 0.0994487 -0.281793
4 1 0.00336375 1.60273 1.37437 4 4.24873e-06 2 0 0.0994487 -0.804051
5 1 0.729896 0.0633724 0.61602 4 3.3836e-06 3 0 0.0994487 -0.190374
6 1 1.71015 0.808983 1.0155 4 8.47987e-06 2 0 0.0994487 -0.332067
7 1 1.80059 1.47468 0.221075 4 9.5335e-06 2 0 0.0994487 -0.125828
8 1 1.82015 1.66049 1.76126 4 1.05892e-05 2 0 0.0994487 -0.139532
9 1 2.52093 0.749102 0.203812 4 1.22798e-05 2 0 0.0994487 -0.142938
10 1 2.59149 0.0538711 1.03726 4 1.19185e-05 2 0 0.0994487 -0.295004
11 1 2.64922 1.541 0.882848 4 1.692e-05 2 0 0.0994487 0.235764
12 1 2.66829 0.815502 1.7457 4 1.43041e-05 2 0 0.0994487 -0.187039
13 1 3.43386 0.933692 0.956349 4 2.41753e-05 2 0 0.0994487 0.320249
14 1 3.49924 0.0925696 1.70571 4 1.83127e-05 2 0 0.0994487 0.178054
15 1 3.60652 1.70798 1.71994 4 3.25801e-05 2 0 0.0994487 0.0487972
16 1 4.10576 0.858321 0.325305 4 3.62878e-05 2 0 0.0994487 0.153149
17 1 4.96159 0.56786 1.17466 4 6.55948e-05 2 0 0.0994487 -0.0370631
18 1 4.91949 1.59987 0.383508 4 7.97784e-05 2 0 0.0994487 -0.100244
19 1 4.3472 0.941527 1.62884 4 4.43141e-05 2 0 0.0994487 0.110741
20 1 3.47612 0.111428 0.171027 4 1.72971e-05 2 0 0.0994487 0.166216
21 1 5.64741 0.645627 0.325839 4 0.000100941 2 0 0.0994487 -0.0806022
22 1 5.88414 1.31048 0.938036 4 0.000133796 2 0 0.0994487 -0.199561
23 1 6.57478 1.39104 0.218369 4 0.000200834 2 0 0.0994487 -0.0861297
24 1 5.78374 0.460658 1.69897 4 0.000101942 2 0 0.0994487 -0.0846496
25 1 5.03122 1.72414 1.43602 4 8.57781e-05 2 0 0.0994487 0.0453767
26 1 6.7138 0.39031 0.865278 4 0.000179251 2 0 0.0994487 -0.0793784
27 1 6.69104 1.00962 1.69374 4 0.000189357 2 0 0.0994487 -0.10792
28 1 8.2679 0.408875 1.07337 4 0.000391308 2 0 0.0994487 -0.100162
29 1 7.36782 1.22285 0.954198 4 0.000297294 2 0 0.0994487 -0.302529
30 1 8.24709 1.39092 0.236779 4 0.000476945 2 0 0.0994487 -0.0460595
31 1 8.12868 1.27217 1.60653 4 0.000425592 2 0 0.0994487 -0.00811235
32 1 7.58247 0.647807 0.140287 4 0.000292216 2 0 0.0994487 -0.110933
33 1 8.85849 0.508506 0.273966 4 0.000523169 2 0 0.0994487 -0.061643
34 1 9.55301 0.3386 0.888639 4 0.000705241 2 0 0.0994487 0.00506861
35 1 9.02586 1.30716 1.1133 4 0.0006865 2 0 0.0994487 -0.0606296
37 1 9.63995 1.37474 0.0900752 4 0.000862862 2 0 0.0994487 0.0992947
38 1 11.2128 0.215893 0.632658 4 0.00148066 2 0 0.0994487 0.203508
39 1 10.3637 1.04743 0.823114 4 0.0011745 2 0 0.0994487 0.539898
40 1 10.523 0.196295 1.44539 4 0.00106906 2 0 0.0994487 0.064432
41 1 11.2856 1.01846 1.41785 4 0.00189332 2 0 0.0994487 0.164715
42 1 10.5797 1.67706 1.72992 4 0.00157359 2 0 0.0994487 0.118169
43 1 10.2431 0.367861 0.0780499 4 0.000870752 2 0 0.0994487 0.149803
44 1 12.8757 0.211714 0.636805 4 0.00331813 2 0 0.0994487 0.058792
45 1 12.0457 1.07408 0.506655 4 0.002825 2 0 0.0994487 -0.0235449
46 1 12.1319 0.316439 1.29957 4 0.00248298 2 0 0.0994487 0.0188421
47 1 12.7194 1.19864 1.3723 4 0.003945 2 0 0.0994487 -0.0305189
48 1 14.3729 0.318493 0.764646 4 0.00608629 2 0 0.0994487 -0.0460351
49 1 13.5924 1.113 0.843618 4 0.00559225 2 0 0.0994487 -0.263041
50 1 14.0399 1.55958 0.167469 4 0.00729969 2 0 0.0994487 -0.0898217
51 1 13.6075 0.359834 1.6352 4 0.00456406 2 0 0.0994487 -0.0562598
52 1 14.3777 1.14948 1.47647 4 0.00704482 2 0 0.0994487 -0.0178228
53 1 14.8761 1.55337 0.662943 4 0.00925505 2 0 0.0994487 0.389957
54 1 15.7061 0.770636 0.788259 4 0.00992519 2 0 0.0994487 0.366488
55 1 16.5532 1.54451 0.681338 4 0.016385 2 0 0.0994487 0.000810951
56 1 15.1422 0.4642 1.64149 4 0.0075831 2 0 0.0994487 0.15208
57 1 16.547 0.712289 1.3421 4 0.0134279 2 0 0.0994487 0.0956303
58 1 15.6341 1.48544 1.3916 4 0.0117025 2 0 0.0994487 0.153637
59 1 15.1049 0.711806 0.0677822 4 0.00756714 2 0 0.0994487 0.169205
60 1 17.2544 0.732268 0.547589 4 0.0164288 2 0 0.0994487 0.0286324
61 1 17.9231 1.58109 0.757246 4 0.0236656 2 0 0.0994487 0.0415669
62 1 17.916 0.742935 1.42801 4 0.0198511 2 0 0.0994487 -0.224374
63 1 17.2202 1.74884 1.56274 4 0.0214241 2 0 0.0994487 -0.0984805
64 1 19.5372 0.0167772 0.662766 4 0.0215614 2 0 0.0994487 0.0436443
65 1 18.7918 0.725074 0.684829 4 0.0226061 2 0 0.0994487 -0.269944
66 1 19.5395 1.55488 0.841653 4 0.0307966 2 0 0.0994487 -0.341159
67 1 19.0276 0.158607 1.54508 4 0.0211432 2 0 0.0994487 -0.158663
68 1 19.5934 0.967491 1.68957 4 0.0262709 2 0 0.0994487 0.00835181
69 1 18.6564 1.51302 1.50035 4 0.0269224 2 0 0.0994487 -0.250305
70 1 21.0889 0.349843 1.06749 4 0.0268068 2 0 0.0994487 -0.196126
71 1 20.2493 0.776373 0.980057 4 0.02727 2 0 0.0994487 -0.0497598
72 1 21.1062 1.65725 0.951506 4 0.0354322 2 0 0.0994487 0.692916
73 1 21.1874 0.765598 0.218806 4 0.028245 2 0 0.0994487 -0.0445905
74 1 20.3457 1.51479 0.193617 4 0.0324823 2 0 0.0994487 -0.0806019
75 1 22.0087 0.262534 0.539755 4 0.0268943 2 0 0.0994487 0.0993594
76 1 22.7913 0.430275 1.40734 4 0.0279646 2 0 0.0994487 0.206599
77 1 22.1105 1.14763 1.32981 4 0.0316811 2 0 0.0994487 0.240023
78 1 21.9982 1.59955 0.538558 4 0.0361062 2 0 0.0994487 0.185172
79 1 22.9157 1.07463 0.445168 4 0.0314429 2 0 0.0994487 0.0520843
80 1 24.228 0.380179 1.45209 4 0.0270835 2 0 0.0994487 0.0576164
81 1 23.5672 0.357563 0.57369 4 0.0275675 2 0 0.0994487 0.0385706
82 1 24.4367 1.18687 0.754729 4 0.0317554 2 0 0.0994487 -0.0192971
83 1 23.4757 1.2499 1.4028 4 0.0335361 2 0 0.0994487 0.0298768
84 1 24.955 0.315686 0.551996 4 0.0249669 2 0 0.0994487 -0.0171993
85 1 26.0085 0.383365 1.1715 4 0.0215669 2 0 0.0994487 -0.18586
86 1 25.169 1.12579 1.48087 4 0.029314 2 0 0.0994487 0.0251044
87 1 25.9301 1.73476 1.35794 4 0.031052 2 0 0.0994487 0.0345351
88 1 25.8917 0.929212 0.432102 4 0.0243636 2 0 0.0994487 -0.0954204
89 1 27.5736 1.28032 0.38906 4 0.0188326 2 0 0.0994487 0.0454487
90 1 27.6142 0.50928 0.874321 4 0.0163921 2 0 0.0994487 0.175387
91 1 26.7559 1.02809 1.26347 4 0.0210229 2 0 0.0994487 -0.236888
92 1 28.3748 0.337482 1.39813 4 0.0132525 2 0 0.0994487 0.0098438
93 1 26.7925 0.240345 0.226621 4 0.0178788 2 0 0.0994487 0.0380745
94 1 28.6489 1.24263 0.742341 4 0.0149021 2 0 0.0994487 0.102405
95 1 29.3912 0.945639 1.56878 4 0.0115498 2 0 0.0994487 -0.0192011
96 1 28.5228 1.71921 1.49749 4 0.0168295 2 0 0.0994487 -0.0429816
97 1 29.8133 0.173958 1.46124 4 0.00933486 2 0 0.0994487 0.133416
98 1 29.2734 0.3547 0.615275 4 0.0105822 2 0 0.0994487 -0.0816815
99 1 31.5874 0.266128 1.25663 4 0.00618196 3 0 0.0994487 0.830097
100 1 30.7016 0.49015 0.470738 4 0.00815956 2 0 0.0994487 0.354852
101 1 30.1009 1.19877 0.774133 4 0.0106681 2 0 0.0994487 0.210919
102 1 30.8649 0.971942 1.39386 4 0.00880199 2 0 0.0994487 0.703281
103 1 1.11081 2.43607 0.129285 4 8.01535e-06 2 0 0.0994487 -0.0373216
104 1 0.133403 2.3821 0.812241 4 5.78311e-06 2 0 0.0994487 -0.984517
105 1 1.28845 3.23764 0.949187 4 1.25107e-05 2 0 0.0994487 0.2221
106 1 1.13977 2.36077 1.59162 4 8.93844e-06 2 0 0.0994487 -0.222188
107 1 0.386685 3.02999 1.54944 4 7.76635e-06 2 0 0.0994487 -0.671256
108 1 0.332248 3.09582 0.131296 4 7.17494e-06 2 0 0.0994487 -0.59134
109 1 1.90972 2.41867 0.78376 4 1.36618e-05 2 0 0.0994487 0.0782128
110 1 2.65852 3.28029 0.860875 4 3.06071e-05 2 0 0.0994487 0.0668086
111 1 2.66931 2.22918 1.53373 4 2.09743e-05 2 0 0.0994487 0.0829574
112 1 3.2579 3.42668 1.64938 4 4.70876e-05 2 0 0.0994487 0.00397785
113 1 2.7261 2.38168 0.0557193 4 1.95059e-05 2 0 0.0994487 0.146602
114 1 3.38195 2.55413 0.779289 4 3.74245e-05 2 0 0.0994487 0.211588
115 1 4.00679 1.841 0.711184 4 4.65667e-05 2 0 0.0994487 -0.0361181
116 1 4.91383 2.57277 0.815661 4 0.000106205 2 0 0.0994487 -0.259341
117 1 4.20148 3.3175 0.749446 4 8.58648e-05 2 0 0.0994487 0.00622038
118 1 4.13245 2.64107 1.58328 4 6.41804e-05 2 0 0.0994487 0.0270812
119 1 5.65047 2.44269 0.132743 4 0.000156175 2 0 0.0994487 -0.189923
120 1 6.55776 2.18062 0.772597 4 0.000245993 2 0 0.0994487 -0.289351
121 1 5.64874 3.19593 0.952489 4 0.000200928 2 0 0.0994487 -0.754616
122 1 5.861 2.19426 1.49672 4 0.000161799 2 0 0.0994487 0.0126399
123 1 6.52037 3.06691 1.5557 4 0.000311057 2 0 0.0994487 0.044362
124 1 6.65033 2.92778 0.134227 4 0.000298698 2 0 0.0994487 0.0288904
125 1 7.45405 2.22586 0.139832 4 0.000399375 2 0 0.0994487 -0.053498
126 1 8.08209 2.20208 0.930382 4 0.000568729 2 0 0.0994487 -0.302037
127 1 7.40132 3.06835 0.934051 4 0.000521374 2 0 0.0994487 -0.0454698
128 1 7.29928 2.06035 1.56856 4 0.000350493 2 0 0.0994487 -0.0607285
129 1 8.18545 3.00183 1.65211 4 0.000768333 2 0 0.0994487 -0.0454114
130 1 8.26934 2.9712 0.0392146 4 0.000794348 2 0 0.0994487 -0.150613
131 1 8.90393 2.08699 0.252387 4 0.0007981 2 0 0.0994487 0.0024386
132 1 9.77243 2.0246 1.10996 4 0.00121202 2 0 0.0994487 0.173484
133 1 8.92671 2.97262 0.928693 4 0.00113738 2 0 0.0994487 -0.156716
134 1 9.03062 2.22066 1.70398 4 0.000904444 2 0 0.0994487 -0.0819637
135 1 9.56096 2.90576 0.21312 4 0.00142225 2 0 0.0994487 0.173125
136 1 10.2834 2.1137 0.214297 4 0.00142633 2 0 0.0994487 0.337743
137 1 11.1583 1.82604 0.771092 4 0.00222876 2 0 0.0994487 0.2601
138 1 10.6214 2.80819 0.921535 4 0.00243205 2 0 0.0994487 0.541935
139 1 11.4444 2.82964 1.57484 4 0.00370222 2 0 0.0994487 0.095207
140 1 12.6737 1.94118 0.593851 4 0.00496737 2 0 0.0994487 -0.283925
141 1 11.928 2.64099 0.742299 4 0.00436833 2 0 0.0994487 -0.0386638
142 1 11.9239 1.9206 1.46509 4 0.00336685 2 0 0.0994487 0.0946617
143 1 12.8449 3.01766 1.68597 4 0.0072449 2 0 0.0994487 0.0363619
144 1 13.1791 3.03035 0.848852 4 0.00854659 2 0 0.0994487 -0.440839
145 1 13.3784 1.9912 1.48064 4 0.00641289 2 0 0.0994487 -0.0150651
146 1 14.0206 2.44438 0.927124 4 0.00953907 2 0 0.0994487 -0.133075
147 1 14.0279 3.38359 1.55716 4 0.0130746 2 0 0.0994487 0.0255795
148 1 14.6961 3.43698 0.884932 4 0.0170727 2 0 0.0994487 -0.332924
149 1 14.7823 2.29758 1.44821 4 0.0115966 2 0 0.0994487 0.0469314
150 1 14.8418 2.51505 0.136557 4 0.0125872 2 0 0.0994487 0.173009
151 1 14.1591 3.2262 0.0325348 4 0.0130715 2 0 0.0994487 -0.246102
152 1 13.4137 2.29398 0.0590902 4 0.00737443 2 0 0.0994487 -0.280958
153 1 15.6993 2.44373 0.692668 4 0.0165352 2 0 0.0994487 0.364401
154 1 16.3029 3.20095 0.662084 4 0.0255996 2 0 0.0994487 0.328594
155 1 16.308 2.47951 1.52575 4 0.0208071 2 0 0.0994487 -0.100643
156 1 15.3694 3.25723 1.50191 4 0.0201222 2 0 0.0994487 -0.0076652
157 1 15.5706 3.25854 0.0192499 4 0.0195461 2 0 0.0994487 0.29024
158 1 17.0646 2.35032 0.682778 4 0.0243837 2 0 0.0994487 0.023485
159 1 17.944 2.92608 0.699539 4 0.0379357 2 0 0.0994487 -0.231188
160 1 18.0193 2.43917 1.58112 4 0.0321975 2 0 0.0994487 -0.149132
161 1 17.0918 3.1162 1.49491 4 0.0325659 2 0 0.0994487 -0.143431
162 1 18.8908 2.35742 1.01358 4 0.0365656 2 0 0.0994487 -0.516826
163 1 19.7027 3.2427 1.27782 4 0.0542809 2 0 0.0994487 0.394882
164 1 18.884 2.99607 0.196019 4 0.0453416 2 0 0.0994487 -0.171808
165 1 19.587 2.34239 0.101452 4 0.039489 2 0 0.0994487 -0.13237
166 1 20.3251 1.78863 1.72442 4 0.0341745 2 0 0.0994487 0.0449539
167 1 21.1565 2.41663 0.458355 4 0.0462185 2 0 0.0994487 0.196188
168 1 20.1948 2.46882 1.11433 4 0.0429747 2 0 0.0994487 0.286746
169 1 21.31 3.29463 1.39314 4 0.0675697 2 0 0.0994487 0.0777296
170 1 20.4222 2.99313 0.334941 4 0.052886 2 0 0.0994487 0.186291
171 1 22.8719 2.07007 1.50872 4 0.0444934 2 0 0.0994487 -0.0221235
172 1 22.9717 2.60199 0.735523 4 0.0567853 2 0 0.0994487 0.133326
173 1 22.0961 2.49917 1.23787 4 0.0520782 2 0 0.0994487 0.186439
174 1 21.9898 3.20043 0.598797 4 0.0702215 2 0 0.0994487 -0.0757496
175 1 22.6771 3.40124 0.07601 4 0.0779756 2 0 0.0994487 0.0760736
176 1 23.7438 1.80844 0.624025 4 0.0394462 2 0 0.0994487 -0.0873596
177 1 24.4289 1.98763 1.61102 4 0.0410096 2 0 0.0994487 -0.0641759
178 1 24.342 2.68296 0.775192 4 0.0534499 2 0 0.0994487 -0.341093
179 1 23.6887 2.90303 1.53628 4 0.0612067 2 0 0.0994487 -0.110505
180 1 24.4728 3.51078 1.55704 4 0.0746088 2 0 0.0994487 -0.118305
181 1 24.9562 2.84566 0.0146836 4 0.0515584 2 0 0.0994487 -0.0864597
182 1 26.5483 1.79415 0.511367 4 0.027409 2 0 0.0994487 -0.00560089
183 1 25.1322 1.85613 0.509414 4 0.0365979 2 0 0.0994487 -0.0215296
184 1 25.7918 2.61203 0.707489 4 0.043862 2 0 0.0994487 0.228201
185 1 25.1579 2.55548 1.52547 4 0.0471036 2 0 0.0994487 0.0576664
186 1 25.7213 3.49812 1.51211 4 0.0634634 2 0 0.0994487 0.123857
187 1 26.5364 2.56002 1.53049 4 0.0364219 2 0 0.0994487 0.0579469
188 1 26.1686 3.50068 0.599043 4 0.0581537 2 0 0.0994487 0.168844
189 1 27.5039 1.98546 1.23792 4 0.0231229 2 0 0.0994487 -0.18642
190 1 28.2489 2.09022 0.343734 4 0.0199259 2 0 0.0994487 -0.0177253
191 1 27.0867 2.6924 0.645359 4 0.0330772 2 0 0.0994487 -0.105602
192 1 27.1998 3.35397 1.41682 4 0.0410505 2 0 0.0994487 -0.0983294
193 1 28.2537 2.75799 1.20639 4 0.0244723 2 0 0.0994487 -0.418308
194 1 27.982 3.21993 0.326384 4 0.0303317 2 0 0.0994487 -0.125257
195 1 29.9568 1.80906 1.70764 4 0.0125581 2 0 0.0994487 0.183201
196 1 29.4477 2.04702 0.879698 4 0.0150421 2 0 0.0994487 -0.00708502
197 1 29.1956 2.6589 0.290703 4 0.0184739 2 0 0.0994487 -0.0578288
198 1 29.2495 3.2651 1.17365 4 0.0220899 2 0 0.0994487 0.118633
199 1 30.9114 1.98502 0.924207 4 0.0116399 2 0 0.0994487 0.967251
200 1 30.1815 2.71094 1.00186 4 0.0153671 2 0 0.0994487 0.675109
201 1 31.0247 3.35309 0.97101 4 0.0160708 2 0 0.0994487 0.998409
202 1 30.9865 2.69483 1.72648 4 0.0136184 2 0 0.0994487 0.578501
203 1 30.1092 3.25953 0.132205 4 0.0171841 2 0 0.0994487 -0.0443661
204 1 30.4116 1.90909 0.0255368 4 0.0117485 2 0 0.0994487 0.106045
205 1 31.1434 2.66402 0.0761253 4 0.0128064 2 0 0.0994487 0.70882
206 1 0.293831 3.78503 0.918557 4 9.44301e-06 2 0 0.0994487 -0.999347
207 1 0.143046 4.59443 0.482118 4 1.09357e-05 2 0 0.0994487 -0.784494
208 1 1.14036 4.67093 0.986638 4 1.85433e-05 2 0 0.0994487 -0.516749
209 1 0.0884667 5.26681 1.27761 4 1.30687e-05 2 0 0.0994487 -0.887458
210 1 1.04069 3.86421 0.0595682 4 1.23242e-05 2 0 0.0994487 0.0148885
211 1 1.84117 4.04604 0.847105 4 2.37073e-05 2 0 0.0994487 0.00827456
212 1 2.54049 4.85585 1.13748 4 4.77701e-05 2 0 0.0994487 -0.333842
213 1 2.64953 4.14475 0.20674 4 4.14763e-05 2 0 0.0994487 -0.0285706
214 1 1.89758 4.96895 0.278386 4 3.28249e-05 2 0 0.0994487 -0.153432
215 1 3.40771 4.86189 0.161635 4 8.32059e-05 2 0 0.0994487 -0.0163859
216 1 3.494 4.07675 0.885909 4 6.9924e-05 2 0 0.0994487 0.0269023
217 1 4.91235 4.00001 1.18344 4 0.000167508 2 0 0.0994487 0.0115274
218 1 4.04658 4.88002 1.14639 4 0.000126215 2 0 0.0994487 0.264496
219 1 4.26027 4.18509 0.149001 4 0.000116404 2 0 0.0994487 0.0377404
220 1 5.00947 4.74001 0.341082 4 0.000222468 2 0 0.0994487 0.076544
221 1 5.77735 3.9378 0.198707 4 0.000255379 2 0 0.0994487 0.0260185
222 1 6.48883 3.76611 0.772067 4 0.000381972 2 0 0.0994487 0.204563
223 1 5.68025 4.73638 1.02487 4 0.000344799 2 0 0.0994487 -0.621647
224 1 6.66321 4.5115 1.6428 4 0.000536946 2 0 0.0994487 0.158938
225 1 6.68072 5.1315 0.885352 4 0.000697879 2 0 0.0994487 0.206877
226 1 8.1982 3.892 0.700757 4 0.00110646 2 0 0.0994487 -0.369889
227 1 7.40842 4.46072 0.5468 4 0.000855661 2 0 0.0994487 -0.0252057
228 1 7.39886 3.87029 1.49684 4 0.000674342 2 0 0.0994487 0.102584
229 1 8.20004 4.61106 1.48677 4 0.00139337 2 0 0.0994487 -0.0118305
230 1 9.8976 3.57792 0.885667 4 0.00229586 2 0 0.0994487 0.592858
231 1 9.07913 4.56551 0.821335 4 0.00218526 2 0 0.0994487 -0.658519
232 1 9.86266 4.50302 0.126324 4 0.00286976 2 0 0.0994487 0.09587
233 1 9.07829 3.76256 1.49819 4 0.0016516 2 0 0.0994487 -0.0708797
234 1 9.86881 4.3462 1.65532 4 0.00300741 2 0 0.0994487 -0.085657
235 1 8.98541 3.86821 0.0631775 4 0.00157661 2 0 0.0994487 -0.13875
236 1 11.408 3.64493 0.778297 4 0.00488375 2 0 0.0994487 0.202077
237 1 10.5891 4.66652 0.906264 4 0.00466853 2 0 0.0994487 0.0451198
238 1 11.3867 4.69403 0.230734 4 0.00685524 2 0 0.0994487 -0.0498839
239 1 10.7059 3.56689 1.58785 4 0.00342669 2 0 0.0994487 -0.0448427
240 1 11.3652 4.3716 1.70545 4 0.00613142 2 0 0.0994487 -0.0798215
241 1 11.3894 5.27213 0.983682 4 0.00827765 2 0 0.0994487 -0.674453
242 1 10.5826 3.84888 0.176129 4 0.00334428 2 0 0.0994487 0.210471
243 1 12.5168 3.57716 0.814749 4 0.00788737 2 0 0.0994487 -0.0105654
244 1 12.1916 4.55033 1.00021 4 0.00943717 2 0 0.0994487 0.105089
245 1 12.7362 4.99738 1.68903 4 0.0129508 2 0 0.0994487 0.191335
246 1 13.2258 4.67863 0.80017 4 0.0152947 2 0 0.0994487 -0.00467481
247 1 12.6435 4.61885 0.0632315 4 0.0119192 2 0 0.0994487 -0.0335758
248 1 13.9891 4.12825 0.69648 4 0.0173298 2 0 0.0994487 -0.430167
249 1 13.4832 4.21781 1.59317 4 0.0140447 2 0 0.0994487 0.0820234
250 1 14.2046 5.11838 1.52001 4 0.0254943 2 0 0.0994487 -0.0289854
251 1 14.9402 5.01141 0.811699 4 0.0320527 2 0 0.0994487 -0.052627
252 1 14.9642 4.4167 1.59432 4 0.026536 2 0 0.0994487 -0.0635585
253 1 14.1405 4.90647 0.0597868 4 0.0232609 2 0 0.0994487 -0.0856906
254 1 14.961 4.19423 0.096508 4 0.0236486 2 0 0.0994487 0.0322755
255 1 15.6685 4.06642 0.926277 4 0.0291131 2 0 0.0994487 0.872608
256 1 15.8798 4.77595 0.186426 4 0.0391881 2 0 0.0994487 0.165393
257 1 16.5936 4.58036 0.900182 4 0.046846 2 0 0.0994487 -0.0789621
258 1 16.3184 3.95875 1.6903 4 0.034731 2 0 0.0994487 -0.0433947
259 1 15.8111 5.05317 1.64084 4 0.0423531 2 0 0.0994487 0.0995018
260 1 17.2689 3.83372 0.811237 4 0.0442837 2 0 0.0994487 -0.345381
261 1 18.0864 4.48855 1.09806 4 0.0655462 2 0 0.0994487 -0.612147
262 1 17.9525 3.63794 1.65602 4 0.0480583 2 0 0.0994487 -0.192804
263 1 17.4569 4.57727 0.0147963 4 0.0567342 2 0 0.0994487 -0.0974093
264 1 18.1348 3.8547 0.0583493 4 0.0525727 2 0 0.0994487 -0.120516
265 1 18.8779 3.70667 0.95022 4 0.0574091 2 0 0.0994487 0.0692372
266 1 18.8235 4.60949 0.361826 4 0.0761259 2 0 0.0994487 0.11561
267 1 19.6906 4.67872 1.0803 4 0.097504 2 0 0.0994487 0.931523
268 1 18.7859 5.27693 1.20102 4 0.101884 2 0 0.0994487 0.599098
269 1 19.5987 3.76722 0.227421 4 0.0638027 2 0 0.0994487 0.16427
270 1 20.4384 3.82188 1.23329 4 0.0769077 2 0 0.0994487 0.325955
271 1 20.8846 4.71868 1.39403 4 0.126599 2 0 0.0994487 0.149059
272 1 21.5775 4.95128 0.810455 4 0.159865 2 0 0.0994487 -0.00375127
273 1 21.0824 3.93136 0.512408 4 0.0881588 2 0 0.0994487 0.0883036
274 1 20.1339 4.78559 0.352846 4 0.110271 2 0 0.0994487 0.145587
275 1 22.8205 3.63186 1.42135 4 0.0870208 2 0 0.0994487 -0.0183999
276 1 21.9406 4.13318 1.31068 4 0.107576 2 0 0.0994487 0.0272043
277 1 22.4705 5.17735 1.27286 4 0.187043 2 0 0.0994487 0.0207053
278 1 22.6119 4.34705 0.510028 4 0.121342 2 0 0.0994487 -0.0221065
279 1 23.5735 3.63903 0.782677 4 0.0871766 2 0 0.0994487 0.185558
280 1 24.336 4.32055 0.625018 4 0.112647 2 0 0.0994487 -0.150095
281 1 23.4679 4.54946 1.33355 4 0.1342 2 0 0.0994487 -0.0790568
282 1 24.8518 5.25716 0.566763 4 0.155225 2 0 0.0994487 0.0409046
283 1 23.5518 5.06386 0.533607 4 0.169727 2 0 0.0994487 -0.0968904
284 1 25.0086 4.50055 1.62342 4 0.109687 2 0 0.0994487 -0.042196
285 1 25.0629 3.68037 0.802132 4 0.075943 2 0 0.0994487 -0.187919
286 1 24.363 5.28843 1.43377 4 0.171729 2 0 0.0994487 -0.154712
287 1 25.6904 5.1389 1.34266 4 0.12661 2 0 0.0994487 0.210098
288 1 26.3575 4.29031 1.37159 4 0.0765663 2 0 0.0994487 0.149481
289 1 26.5026 4.97257 0.640732 4 0.0953072 2 0 0.0994487 0.0989653
290 1 25.5284 4.40089 0.388179 4 0.0947799 2 0 0.0994487 0.0559468
291 1 27.3302 4.86961 1.40568 4 0.0727107 2 0 0.0994487 0.00660863
292 1 27.9624 3.97641 1.10408 4 0.0414265 2 0 0.0994487 -0.309508
293 1 28.2771 4.73475 0.706344 4 0.0512599 2 0 0.0994487 -0.0812485
294 1 27.0674 4.04323 0.570038 4 0.056486 2 0 0.0994487 0.0120212
295 1 28.9321 3.77016 0.487204 4 0.0283611 2 0 0.0994487 -0.00703332
296 1 29.0873 4.52317 1.33085 4 0.0363063 2 0 0.0994487 0.0574849
297 1 29.9979 4.07209 1.02303 4 0.0236043 2 0 0.0994487 -0.275234
298 1 31.0296 3.97382 0.373364 4 0.0187449 2 0 0.0994487 0.657583
299 1 30.2046 4.67765 0.491317 4 0.0279541 2 0 0.0994487 0.00995798
300 1 30.9783 4.59929 1.41131 4 0.0229759 2 0 0.0994487 0.679914
301 1 0.908283 5.53205 0.461647 4 2.16599e-05 2 0 0.0994487 -0.463784
302 1 1.53161 5.51184 1.37971 4 3.00061e-05 2 0 0.0994487 -0.117386
303 1 0.793684 6.22023 1.2768 4 2.51589e-05 2 0 0.0994487 -0.70338
304 1 0.257003 6.91734 1.50738 4 2.33747e-05 2 0 0.0994487 -0.772633
305 1 0.969942 6.9454 0.573423 4 3.39011e-05 2 0 0.0994487 -0.473532
306 1 1.7053 7.02884 1.23811 4 4.97541e-05 2 0 0.0994487 0.0665199
307 1 1.89588 6.19966 0.519025 4 4.6547e-05 2 0 0.0994487 -0.156398
308 1 3.10475 5.61709 1.30057 4 8.38697e-05 2 0 0.0994487 0.0402555
309 1 2.26359 6.15348 1.40977 4 5.49743e-05 2 0 0.0994487 0.0408576
310 1 3.25442 6.96226 1.12748 4 0.000144027 2 0 0.0994487 -0.05412
311 1 2.68177 5.61289 0.273587 4 6.47756e-05 2 0 0.0994487 -0.0596838
312 1 3.39503 6.28191 0.500536 4 0.000132743 2 0 0.0994487 -0.12144
313 1 4.18979 5.46246 0.325783 4 0.000168965 2 0 0.0994487 0.0310211
314 1 4.93434 5.42873 1.31778 4 0.000286874 2 0 0.0994487 -0.235095
315 1 4.13622 6.09659 1.22779 4 0.000207566 2 0 0.0994487 -0.0893848
316 1 4.82567 6.23357 0.333842 4 0.000326416 2 0 0.0994487 -0.0345719
317 1 4.77312 6.79931 1.15967 4 0.000388642 2 0 0.0994487 -0.305925
318 1 4.00267 7.02511 0.221759 4 0.000237235 2 0 0.0994487 -0.0853411
319 1 5.78575 5.42185 0.301847 4 0.00044565 2 0 0.0994487 0.0125061
320 1 5.6935 6.24342 0.9632 4 0.000565945 2 0 0.0994487 -0.967778
321 1 6.4578 5.98425 1.59671 4 0.000792012 2 0 0.0994487 0.140919
322 1 6.43234 6.86927 1.00965 4 0.00104779 2 0 0.0994487 0.851686
323 1 6.37773 6.04115 0.154639 4 0.000710786 2 0 0.0994487 0.111116
324 1 5.54993 7.05206 0.147147 4 0.000606619 2 0 0.0994487 0.0363896
325 1 8.21355 5.31419 0.694273 4 0.00179371 2 0 0.0994487 -0.0895768
326 1 7.32761 6.15925 0.754293 4 0.00139712 2 0 0.0994487 0.225744
327 1 7.39163 5.41839 1.49138 4 0.00113621 2 0 0.0994487 0.13676
328 1 8.23884 6.11028 1.49159 4 0.00235832 2 0 0.0994487 0.0187446
329 1 8.01352 6.85364 0.728993 4 0.00265008 2 0 0.0994487 0.0691989
330 1 7.28191 6.86379 1.59601 4 0.00178413 2 1 0.0994487 0.126055
331 1 7.33029 5.3575 0.0461812 4 0.00100317 2 0 0.0994487 0.0813603
332 1 9.76796 5.3194 0.792562 4 0.00385332 2 0 0.0994487 0.328469
333 1 8.88016 6.18865 0.736908 4 0.00340619 2 0 0.0994487 -0.235527
334 1 9.05434 5.3271 1.5973 4 0.00278534 2 0 0.0994487 -0.0628254
335 1 9.73844 6.19052 1.46731 4 0.00529639 2 0 0.0994487 -0.10644
336 1 9.09351 6.95013 1.463 4 0.00506302 2 2 0.0994487 -0.075849
337 1 9.76329 6.23201 0.0941385 4 0.00510531 2 0 0.0994487 -0.0359469
338 1 8.99733 5.46479 0.012702 4 0.00271737 2 0 0.0994487 -0.13475
339 1 10.5831 6.02196 0.964384 4 0.00730527 2 0 0.0994487 -0.356375
340 1 11.3128 6.37134 0.0776634 4 0.0100428 2 0 0.0994487 0.100345
341 1 10.5187 6.94145 0.15452 4 0.00883981 2 0 0.0994487 -0.0735306
342 1 10.4686 6.92564 1.49614 4 0.00951514 2 1 0.0994487 -0.0634465
343 1 11.9994 5.6274 0.183157 4 0.0113235 2 0 0.0994487 -0.0105259
344 1 12.6757 5.81849 0.861776 4 0.0167202 2 0 0.0994487 0.0817679
345 1 11.7774 6.20735 1.05291 4 0.0126408 2 0 0.0994487 0.292245
346 1 13.3219 5.86668 1.55471 4 0.0218364 2 0 0.0994487 0.208174
347 1 13.3506 6.58297 0.813679 4 0.0292937 2 0 0.0994487 -0.292094
348 1 13.3212 5.53867 0.0424813 4 0.0202579 2 0 0.0994487 -0.142906
349 1 14.0617 5.71565 0.77266 4 0.0292787 2 0 0.0994487 -0.372617
350 1 14.3278 6.65176 1.40646 4 0.0460102 2 1 0.0994487 -0.103114
351 1 14.1303 6.38483 0.0380077 4 0.0347837 2 0 0.0994487 -0.0826072
352 1 15.0282 5.64393 0.034369 4 0.0390438 2 0 0.0994487 0.0573669
353 1 15.8305 5.73813 0.95832 4 0.0555367 2 0 0.0994487 0.625794
354 1 15.0472 6.45091 0.806774 4 0.0542881 2 0 0.0994487 -0.176036
355 1 16.491 6.45257 1.1401 4 0.0905121 2 0 0.0994487 0.208303
356 1 15.1058 5.87594 1.69804 4 0.0473715 2 0 0.0994487 -0.0976544
357 1 16.62 5.41933 0.276819 4 0.0611667 2 0 0.0994487 0.0799231
358 1 15.6753 6.3382 0.0390223 4 0.0607852 2 0 0.0994487 0.039854
359 1 17.8271 5.30128 0.541411 4 0.0800175 2 0 0.0994487 0.150327
360 1 17.113 5.42499 1.24767 4 0.0728519 2 0 0.0994487 -0.286573
361 1 17.0619 6.27419 0.411469 4 0.0953403 2 0 0.0994487 0.13895
362 1 17.6649 6.24649 1.38542 4 0.115148 2 0 0.0994487 -0.254934
363 1 18.2745 7.0517 1.13153 4 0.176056 2 0 0.0994487 0.640242
364 1 18.3714 6.23173 0.609762 4 0.134354 2 0 0.0994487 0.156179
365 1 19.429 5.75829 0.62055 4 0.145076 2 0 0.0994487 0.0571861
366 1 19.3279 6.55755 1.35081 4 0.195947 2 0 0.0994487 0.275836
367 1 19.9942 6.75229 0.610261 3 0.259913 2 0 0.0993916 -0.0120743
368 1 20.7494 5.77593 0.653722 4 0.204755 2 0 0.0994487 -0.104066
369 1 20.1931 5.61076 1.39557 4 0.165253 2 0 0.0994487 0.312027
370 1 20.7787 6.6124 1.30355 3 0.309743 2 0 0.0990009 -0.34426
371 1 21.6592 6.66248 0.666524 3 0.330534 2 0 0.0987717 -0.0434656
372 1 21.6631 5.87866 1.38528 3 0.256033 2 0 0.0994146 0.0420435
373 1 21.6904 5.73259 0.0517844 4 0.221961 2 0 0.0994487 -0.00150183
374 1 22.6732 5.8279 0.674154 4 0.247159 2 0 0.0994487 0.00265433
375 1 22.6319 6.69333 1.20734 3 0.365118 2 0 0.0982695 -0.201725
376 1 23.3484 6.78052 0.267835 3 0.334662 2 0 0.0987204 -0.125378
377 1 23.4822 5.88496 1.30013 3 0.252268 2 0 0.0994362 -0.176385
378 1 24.3197 6.56281 1.15825 3 0.283822 2 0 0.099228 0.173565
379 1 24.1457 6.00685 0.427617 4 0.234968 2 0 0.0994487 0.00243543
380 1 25.6831 5.86213 0.700952 4 0.165134 2 0 0.0994487 0.163894
381 1 25.1124 6.04132 1.67733 4 0.19987 2 0 0.0994487 0.0036665
382 1 25.1593 6.74159 0.495153 4 0.245365 2 0 0.0994487 0.0903877
383 1 25.8251 6.59457 1.40775 4 0.201492 2 0 0.0994487 0.088098
384 1 26.6903 5.84511 1.4763 4 0.126835 2 0 0.0994487 0.0917599
385 1 27.4966 5.54334 0.722172 4 0.086471 2 0 0.0994487 -0.251574
386 1 26.7485 6.36567 0.651888 4 0.145703 2 0 0.0994487 0.0387484
387 1 27.7011 6.47315 1.36539 4 0.11104 2 0 0.0994487 0.131491
388 1 28.3648 5.52203 1.4872 4 0.0652441 2 0 0.0994487 0.0456326
389 1 27.7097 7.0074 0.530173 4 0.125944 2 0 0.0994487 0.032122
390 1 29.3889 5.30889 0.818726 4 0.0448076 2 0 0.0994487 0.316724
391 1 29.4379 6.18214 1.32212 4 0.0553856 2 0 0.0994487 -0.00338148
392 1 29.5784 6.89773 0.506505 4 0.0635204 2 0 0.0994487 0.0925861
393 1 28.4685 6.20589 0.638647 4 0.0757608 2 0 0.0994487 -0.270083
394 1 29.3762 6.15398 0.0801838 4 0.055507 2 0 0.0994487 0.096926
395 1 28.4822 5.38976 0.0592959 4 0.0580794 2 0 0.0994487 -0.105003
396 1 30.9636 5.36838 0.595026 4 0.031075 2 0 0.0994487 0.667849
397 1 30.2159 5.45949 1.46813 4 0.0361155 2 0 0.0994487 0.0540212
398 1 30.3958 6.18258 0.649752 4 0.0432347 2 0 0.0994487 0.329
399 1 31.2189 6.15516 1.38439 4 0.0360045 2 0 0.0994487 0.587258
400 1 31.1994 6.95407 0.60342 4 0.044026 2 0 0.0994487 0.812252
401 1 31.7235 5.99622 0.446564 4 0.0323501 2 0 0.0994487 0.879729
402 1 0.261851 7.63199 0.661866 4 2.89606e-05 2 0 0.0994487 -0.876373
403 1 0.831025 8.46344 0.61936 4 4.25223e-05 2 0 0.0994487 -0.577625
404 1 1.11211 7.86396 1.49711 4 4.20072e-05 2 0 0.0994487 -0.154428
405 1 0.356955 8.5626 1.47035 4 3.45512e-05 2 0 0.0994487 -0.764984
406 1 1.59266 7.76478 0.37187 4 5.62487e-05 2 0 0.0994487 -0.0897868
407 1 1.72382 8.61735 1.46471 4 6.97287e-05 2 0 0.0994487 0.0395982
408 1 2.48799 7.14986 0.476331 4 9.04116e-05 2 0 0.0994487 -0.0836934
409 1 2.19177 8.6335 0.399707 4 9.87955e-05 2 0 0.0994487 -0.137266
410 1 2.39416 7.81099 1.27726 4 9.50966e-05 2 0 0.0994487 0.0869944
411 1 3.01349 8.51445 0.935533 4 0.000168971 2 0 0.0994487 -0.539303
412 1 3.24418 7.77117 0.327041 4 0.000172048 2 0 0.0994487 -0.196202
413 1 3.81243 8.45898 0.0822892 4 0.000264092 2 0 0.0994487 -0.0457764
414 1 3.97971 7.67009 1.24863 4 0.000272046 2 0 0.0994487 -0.0554854
415 1 4.70459 8.25653 0.921772 4 0.000479307 2 0 0.0994487 0.29536
416 1 4.67023 7.63706 0.247803 4 0.00040399 2 0 0.0994487 0.0376956
417 1 3.81127 8.34851 1.76162 4 0.000264403 2 0 0.0994487 -0.0574343
418 1 5.86955 8.34822 0.169905 4 0.000957479 2 0 0.0994487 0.113109
419 1 5.48363 7.59071 1.03232 4 0.000719755 2 0 0.0994487 -0.467648
420 1 6.49365 7.53799 0.169175 4 0.00120764 2 0 0.0994487 0.187628
421 1 6.39674 8.23976 1.04384 4 0.00147792 2 0 0.0994487 0.338185
422 1 7.28583 7.76918 0.746313 4 0.0023229 2 1 0.0994487 0.00995956
423 1 8.2859 8.31376 0.868772 4 0.00476018 2 2 0.0994487 0.278689
424 1 7.27857 8.18368 1.7015 4 0.00286779 2 2 0.0994487 -0.174699
425 1 8.05208 7.48784 1.5604 4 0.00345625 2 1 0.0994487 0.185087
426 1 7.99895 7.60312 0.0282118 4 0.00298025 2 0 0.0994487 0.0674167
427 1 9.84313 7.22199 0.72344 4 0.007696 2 1 0.0994487 -0.346909
428 1 8.91207 7.61626 0.661731 4 0.00533954 2 1 0.0994487 0.158659
429 1 9.73234 8.61964 0.693151 4 0.0106264 2 3 0.0994487 -0.25718
430 1 9.09265 8.69904 1.44495 4 0.00879863 2 9 0.0994487 -0.39478
431 1 9.64026 7.88932 1.60055 4 0.00961535 2 8 0.0994487 -0.340407
432 1 11.3161 7.14287 0.810636 4 0.01372 2 1 0.0994487 0.448585
433 1 10.5731 7.9454 0.844311 4 0.012966 2 3 0.0994487 -0.198204
434 1 10.5877 8.70196 1.4255 4 0.0163568 1 8 0.0994487 -0.14631
435 1 11.4057 7.80503 1.60301 4 0.019085 2 7 0.0994487 0.228407
436 1 11.227 8.11851 0.0422735 4 0.0155611 2 0 0.0994487 0.174338
437 1 12.7061 7.28322 0.565784 4 0.0277227 2 0 0.0994487 -0.0531295
438 1 12.178 8.23518 0.590765 4 0.027103 2 2 0.0994487 0.163954
439 1 12.0637 7.15788 1.37768 4 0.020223 2 3 0.0994487 0.145687
440 1 12.0887 8.68064 1.49044 4 0.0318533 1 8 0.0994487 0.0818305
441 1 12.8601 7.99585 1.47598 4 0.0395147 2 6 0.0994487 -0.217018
442 1 14.3373 7.3542 0.580954 4 0.0539477 2 0 0.0994487 0.0649123
443 1 13.6169 8.09282 0.464536 4 0.0488831 2 2 0.0994487 0.0237737
444 1 13.458 7.34024 1.34133 4 0.0408865 2 2 0.0994487 0.0545176
445 1 14.2471 8.18371 1.35246 4 0.0708713 2 5 0.0994487 0.0239231
446 1 16.4328 7.18497 0.276798 4 0.10789 2 0 0.0994487 -0.062433