ITEM: TIMESTEP
18500
ITEM: NUMBER OF ATOMS
15950
ITEM: BOX BOUNDS pp pp pp
0.0000000000000000e+00 1.0000000000000000e+02
-5.0000000000000000e+00 2.0000000000000000e+02
-5.0000000000000000e-01 5.0000000000000000e-01
ITEM: ATOMS id type x y z c_rho c_phase c_nbond c_temp f_rheo_chi_chi fx fy
1 2 0 -5 0 1 2 8 8.47265e-11 1 0 0
2 2 1 -5 0 1 2 8 1.30887e-10 1 0 0
51 2 0 -4 0 1 2 8 6.05269e-10 1 0 0
52 2 1 -4 0 1 2 8 9.71732e-10 1 0 0
3 2 2 -5 0 1 2 8 2.90095e-10 1 0 0
4 2 3 -5 0 1 2 8 6.03035e-10 1 0 0
53 2 2 -4 0 1 2 8 2.26599e-09 1 0 0
54 2 3 -4 0 1 2 8 4.88047e-09 1 0 0
5 2 4 -5 0 1 2 7 1.11226e-09 1 0 0
55 2 4 -4 0 1 2 8 9.10253e-09 1 0 0
6 2 5 -5 0 1 2 6 1.84039e-09 1 0 0
7 2 6 -5 0 1 2 5 2.64502e-09 1 0 0
56 2 5 -4 0 1 2 8 1.47639e-08 1 0 0
57 2 6 -4 0 1 2 8 2.11017e-08 1 0 0
8 2 7 -5 0 1 2 5 3.38591e-09 1 0 0
9 2 8 -5 0 1 2 5 3.99818e-09 1 0 0
58 2 7 -4 0 1 2 8 2.71531e-08 1 0 0
59 2 8 -4 0 1 2 8 3.21717e-08 1 0 0
10 2 9 -5 0 1 2 5 4.44679e-09 1 0 0
60 2 9 -4 0 1 2 8 3.58456e-08 1 0 0
11 2 10 -5 0 1 2 5 4.74732e-09 1 0 0
12 2 11 -5 0 1 2 5 4.95115e-09 1 0 0
61 2 10 -4 0 1 2 8 3.83026e-08 1 0 0
62 2 11 -4 0 1 2 8 3.99666e-08 1 0 0
13 2 12 -5 0 1 2 5 5.11843e-09 1 0 0
14 2 13 -5 0 1 2 5 5.2844e-09 1 0 0
63 2 12 -4 0 1 2 8 4.13449e-08 1 0 0
64 2 13 -4 0 1 2 8 4.27357e-08 1 0 0
15 2 14 -5 0 1 2 5 5.44062e-09 1 0 0
65 2 14 -4 0 1 2 8 4.40419e-08 1 0 0
16 2 15 -5 0 1 2 5 5.55787e-09 1 0 0
17 2 16 -5 0 1 2 5 5.62805e-09 1 0 0
66 2 15 -4 0 1 2 8 4.49851e-08 1 0 0
67 2 16 -4 0 1 2 8 4.55106e-08 1 0 0
18 2 17 -5 0 1 2 5 5.6712e-09 1 0 0
19 2 18 -5 0 1 2 5 5.7025e-09 1 0 0
68 2 17 -4 0 1 2 8 4.58396e-08 1 0 0
69 2 18 -4 0 1 2 8 4.61314e-08 1 0 0
20 2 19 -5 0 1 2 5 5.70697e-09 1 0 0
70 2 19 -4 0 1 2 8 4.62428e-08 1 0 0
21 2 20 -5 0 1 2 5 5.65344e-09 1 0 0
22 2 21 -5 0 1 2 5 5.52907e-09 1 0 0
71 2 20 -4 0 1 2 8 4.58704e-08 1 0 0
72 2 21 -4 0 1 2 8 4.48772e-08 1 0 0
23 2 22 -5 0 1 2 5 5.35777e-09 1 0 0
24 2 23 -5 0 1 2 5 5.1908e-09 1 0 0
73 2 22 -4 0 1 2 8 4.34558e-08 1 0 0
74 2 23 -4 0 1 2 8 4.20412e-08 1 0 0
25 2 24 -5 0 1 2 5 5.08361e-09 1 0 0
75 2 24 -4 0 1 2 8 4.11197e-08 1 0 0
26 2 25 -5 0 1 2 5 5.07179e-09 1 0 0
27 2 26 -5 0 1 2 5 5.15432e-09 1 0 0
76 2 25 -4 0 1 2 8 4.10209e-08 1 0 0
77 2 26 -4 0 1 2 8 4.17426e-08 1 0 0
28 2 27 -5 0 1 2 5 5.29753e-09 1 0 0
29 2 28 -5 0 1 2 5 5.4615e-09 1 0 0
78 2 27 -4 0 1 2 8 4.29665e-08 1 0 0
79 2 28 -4 0 1 2 8 4.43175e-08 1 0 0
30 2 29 -5 0 1 2 5 5.62324e-09 1 0 0
80 2 29 -4 0 1 2 8 4.56082e-08 1 0 0
31 2 30 -5 0 1 2 5 5.77214e-09 1 0 0
32 2 31 -5 0 1 2 5 5.89047e-09 1 0 0
81 2 30 -4 0 1 2 8 4.67924e-08 1 0 0
82 2 31 -4 0 1 2 8 4.7749e-08 1 0 0
33 2 32 -5 0 1 2 5 5.95308e-09 1 0 0
34 2 33 -5 0 1 2 5 5.95138e-09 1 0 0
83 2 32 -4 0 1 2 8 4.82551e-08 1 0 0
84 2 33 -4 0 1 2 8 4.82183e-08 1 0 0
35 2 34 -5 0 1 2 5 5.90828e-09 1 0 0
85 2 34 -4 0 1 2 8 4.78382e-08 1 0 0
36 2 35 -5 0 1 2 5 5.85949e-09 1 0 0
37 2 36 -5 0 1 2 5 5.82189e-09 1 0 0
86 2 35 -4 0 1 2 8 4.74375e-08 1 0 0
87 2 36 -4 0 1 2 8 4.7161e-08 1 0 0
38 2 37 -5 0 1 2 5 5.78481e-09 1 0 0
39 2 38 -5 0 1 2 5 5.72719e-09 1 0 0
88 2 37 -4 0 1 2 8 4.68992e-08 1 0 0
89 2 38 -4 0 1 2 8 4.64517e-08 1 0 0
40 2 39 -5 0 1 2 5 5.63797e-09 1 0 0
90 2 39 -4 0 1 2 8 4.57074e-08 1 0 0
41 2 40 -5 0 1 2 5 5.52689e-09 1 0 0
42 2 41 -5 0 1 2 5 5.42602e-09 1 0 0
91 2 40 -4 0 1 2 8 4.4739e-08 1 0 0
92 2 41 -4 0 1 2 8 4.3826e-08 1 0 0
43 2 42 -5 0 1 2 5 5.37903e-09 1 0 0
44 2 43 -5 0 1 2 5 5.4151e-09 1 0 0
93 2 42 -4 0 1 2 8 4.33701e-08 1 0 0
94 2 43 -4 0 1 2 8 4.3657e-08 1 0 0
45 2 44 -5 0 1 2 5 5.52049e-09 1 0 0
95 2 44 -4 0 1 2 8 4.4582e-08 1 0 0
46 2 45 -5 0 1 2 5 5.63535e-09 1 0 0
47 2 46 -5 0 1 2 5 5.69038e-09 1 0 0
96 2 45 -4 0 1 2 8 4.56082e-08 1 0 0
97 2 46 -4 0 1 2 8 4.61036e-08 1 0 0
48 2 47 -5 0 1 2 5 5.65749e-09 1 0 0
49 2 48 -5 0 1 2 5 5.56859e-09 1 0 0
98 2 47 -4 0 1 2 8 4.58147e-08 1 0 0
99 2 48 -4 0 1 2 8 4.50353e-08 1 0 0
50 2 49 -5 0 1 2 5 5.48785e-09 1 0 0
100 2 49 -4 0 1 2 8 4.4345e-08 1 0 0
101 2 0 -3 0 1 2 8 3.92947e-09 1 0 0
102 2 1 -3 0 1 2 8 6.59095e-09 1 0 0
151 2 0 -2 0 1 2 8 2.28886e-08 1 0 0
152 2 1 -2 0 1 2 8 4.0339e-08 1 0 0
103 2 2 -3 0 1 2 8 1.62621e-08 1 0 0
104 2 3 -3 0 1 2 8 3.65094e-08 1 0 0
153 2 2 -2 0 1 2 8 1.05939e-07 1 0 0
154 2 3 -2 0 1 2 8 2.4925e-07 1 0 0
105 2 4 -3 0 1 2 8 7.01157e-08 1 0 0
155 2 4 -2 0 1 2 8 4.95405e-07 1 0 0
106 2 5 -3 0 1 2 8 1.15774e-07 1 0 0
107 2 6 -3 0 1 2 8 1.67359e-07 1 0 0
156 2 5 -2 0 1 2 8 8.36793e-07 1 0 0
157 2 6 -2 0 1 2 8 1.22571e-06 1 0 0
108 2 7 -3 0 1 2 8 2.16778e-07 1 0 0
109 2 8 -3 0 1 2 8 2.57732e-07 1 0 0
158 2 7 -2 0 1 2 8 1.59877e-06 1 0 0
159 2 8 -2 0 1 2 8 1.90772e-06 1 0 0
110 2 9 -3 0 1 2 8 2.87677e-07 1 0 0
160 2 9 -2 0 1 2 8 2.13376e-06 1 0 0
111 2 10 -3 0 1 2 8 3.07683e-07 1 0 0
112 2 11 -3 0 1 2 8 3.2122e-07 1 0 0
161 2 10 -2 0 1 2 8 2.28525e-06 1 0 0
162 2 11 -2 0 1 2 8 2.38802e-06 1 0 0
113 2 12 -3 0 1 2 8 3.32549e-07 1 0 0
114 2 13 -3 0 1 2 8 3.44219e-07 1 0 0
163 2 12 -2 0 1 2 8 2.47487e-06 1 0 0
164 2 13 -2 0 1 2 8 2.5662e-06 1 0 0
115 2 14 -3 0 1 2 8 3.55166e-07 1 0 0
165 2 14 -2 0 1 2 8 2.65164e-06 1 0 0
116 2 15 -3 0 1 2 8 3.62701e-07 1 0 0
117 2 16 -3 0 1 2 8 3.66495e-07 1 0 0
166 2 15 -2 0 1 2 8 2.70711e-06 1 0 0
167 2 16 -2 0 1 2 8 2.73133e-06 1 0 0
118 2 17 -3 0 1 2 8 3.68931e-07 1 0 0
119 2 18 -3 0 1 2 8 3.71649e-07 1 0 0
168 2 17 -2 0 1 2 8 2.74759e-06 1 0 0
169 2 18 -2 0 1 2 8 2.77114e-06 1 0 0
120 2 19 -3 0 1 2 8 3.73262e-07 1 0 0
170 2 19 -2 0 1 2 8 2.78945e-06 1 0 0
121 2 20 -3 0 1 2 8 3.7084e-07 1 0 0
122 2 21 -3 0 1 2 8 3.62996e-07 1 0 0
171 2 20 -2 0 1 2 8 2.77656e-06 1 0 0
172 2 21 -2 0 1 2 8 2.72003e-06 1 0 0
123 2 22 -3 0 1 2 8 3.51286e-07 1 0 0
124 2 23 -3 0 1 2 8 3.39361e-07 1 0 0
173 2 22 -2 0 1 2 8 2.63157e-06 1 0 0
174 2 23 -2 0 1 2 8 2.53901e-06 1 0 0
125 2 24 -3 0 1 2 8 3.31442e-07 1 0 0
175 2 24 -2 0 1 2 8 2.47593e-06 1 0 0
126 2 25 -3 0 1 2 8 3.30605e-07 1 0 0
127 2 26 -3 0 1 2 8 3.36924e-07 1 0 0
176 2 25 -2 0 1 2 8 2.46919e-06 1 0 0
177 2 26 -2 0 1 2 8 2.52056e-06 1 0 0
128 2 27 -3 0 1 2 8 3.47381e-07 1 0 0
129 2 28 -3 0 1 2 8 3.58432e-07 1 0 0
178 2 27 -2 0 1 2 8 2.60349e-06 1 0 0
179 2 28 -2 0 1 2 8 2.68667e-06 1 0 0
130 2 29 -3 0 1 2 8 3.68568e-07 1 0 0
180 2 29 -2 0 1 2 8 2.75896e-06 1 0 0
131 2 30 -3 0 1 2 8 3.77854e-07 1 0 0
132 2 31 -3 0 1 2 8 3.85553e-07 1 0 0
181 2 30 -2 0 1 2 8 2.82515e-06 1 0 0
182 2 31 -2 0 1 2 8 2.88219e-06 1 0 0
133 2 32 -3 0 1 2 8 3.89651e-07 1 0 0
134 2 33 -3 0 1 2 8 3.89146e-07 1 0 0
183 2 32 -2 0 1 2 8 2.91306e-06 1 0 0
184 2 33 -2 0 1 2 8 2.90771e-06 1 0 0
135 2 34 -3 0 1 2 8 3.85781e-07 1 0 0
185 2 34 -2 0 1 2 8 2.88019e-06 1 0 0
136 2 35 -3 0 1 2 8 3.82497e-07 1 0 0
137 2 36 -3 0 1 2 8 3.80541e-07 1 0 0
186 2 35 -2 0 1 2 8 2.85542e-06 1 0 0
187 2 36 -2 0 1 2 8 2.84331e-06 1 0 0
138 2 37 -3 0 1 2 8 3.78806e-07 1 0 0
139 2 38 -3 0 1 2 8 3.75409e-07 1 0 0
188 2 37 -2 0 1 2 8 2.83369e-06 1 0 0
189 2 38 -2 0 1 2 8 2.81043e-06 1 0 0
140 2 39 -3 0 1 2 8 3.69262e-07 1 0 0
190 2 39 -2 0 1 2 8 2.76386e-06 1 0 0
141 2 40 -3 0 1 2 8 3.60869e-07 1 0 0
142 2 41 -3 0 1 2 8 3.52637e-07 1 0 0
191 2 40 -2 0 1 2 8 2.69673e-06 1 0 0
192 2 41 -2 0 1 2 8 2.62805e-06 1 0 0
143 2 42 -3 0 1 2 8 3.48251e-07 1 0 0
144 2 43 -3 0 1 2 8 3.50497e-07 1 0 0
193 2 42 -2 0 1 2 8 2.5891e-06 1 0 0
194 2 43 -2 0 1 2 8 2.60495e-06 1 0 0
145 2 44 -3 0 1 2 8 3.58617e-07 1 0 0
195 2 44 -2 0 1 2 8 2.67086e-06 1 0 0
146 2 45 -3 0 1 2 8 3.67786e-07 1 0 0
147 2 46 -3 0 1 2 8 3.72229e-07 1 0 0
196 2 45 -2 0 1 2 8 2.74664e-06 1 0 0
197 2 46 -2 0 1 2 8 2.78342e-06 1 0 0
148 2 47 -3 0 1 2 8 3.69665e-07 1 0 0
149 2 48 -3 0 1 2 8 3.62803e-07 1 0 0
198 2 47 -2 0 1 2 8 2.76229e-06 1 0 0
199 2 48 -2 0 1 2 8 2.70639e-06 1 0 0
150 2 49 -3 0 1 2 8 3.5687e-07 1 0 0
200 2 49 -2 0 1 2 8 2.65908e-06 1 0 0
201 2 0 -1 0 1 2 8 1.17822e-07 1 0 0
202 2 1 -1 0 1 2 8 2.19432e-07 1 0 0
203 2 2 -1 0 1 2 8 6.17195e-07 1 0 0
204 2 3 -1 0 1 2 8 1.53117e-06 1 0 0
205 2 4 -1 0 1 2 8 3.16603e-06 1 0 0
206 2 5 -1 0 1 2 8 5.48804e-06 1 0 0
207 2 6 -1 0 1 2 8 8.15535e-06 1 0 0
208 2 7 -1 0 1 2 8 1.07147e-05 1 0 0
209 2 8 -1 0 1 2 8 1.28337e-05 1 0 0
210 2 9 -1 0 1 2 8 1.43892e-05 1 0 0
211 2 10 -1 0 1 2 8 1.54409e-05 1 0 0
212 2 11 -1 0 1 2 8 1.61602e-05 1 0 0
213 2 12 -1 0 1 2 8 1.67729e-05 1 0 0
214 2 13 -1 0 1 2 8 1.74298e-05 1 0 0
215 2 14 -1 0 1 2 8 1.8042e-05 1 0 0
216 2 15 -1 0 1 2 8 1.84126e-05 1 0 0
217 2 16 -1 0 1 2 8 1.85441e-05 1 0 0
218 2 17 -1 0 1 2 8 1.86406e-05 1 0 0
219 2 18 -1 0 1 2 8 1.88278e-05 1 0 0
220 2 19 -1 0 1 2 8 1.90019e-05 1 0 0
221 2 20 -1 0 1 2 8 1.89555e-05 1 0 0
222 2 21 -1 0 1 2 8 1.85917e-05 1 0 0
223 2 22 -1 0 1 2 8 1.79918e-05 1 0 0
224 2 23 -1 0 1 2 8 1.73436e-05 1 0 0
225 2 24 -1 0 1 2 8 1.68861e-05 1 0 0
226 2 25 -1 0 1 2 8 1.6835e-05 1 0 0
227 2 26 -1 0 1 2 8 1.72161e-05 1 0 0
228 2 27 -1 0 1 2 8 1.78163e-05 1 0 0
229 2 28 -1 0 1 2 8 1.83818e-05 1 0 0
230 2 29 -1 0 1 2 8 1.88383e-05 1 0 0
231 2 30 -1 0 1 2 8 1.92569e-05 1 0 0
232 2 31 -1 0 1 2 8 1.96389e-05 1 0 0
233 2 32 -1 0 1 2 8 1.98522e-05 1 0 0
234 2 33 -1 0 1 2 8 1.98056e-05 1 0 0
235 2 34 -1 0 1 2 8 1.96015e-05 1 0 0
236 2 35 -1 0 1 2 8 1.94329e-05 1 0 0
237 2 36 -1 0 1 2 8 1.93714e-05 1 0 0
238 2 37 -1 0 1 2 8 1.93326e-05 1 0 0
239 2 38 -1 0 1 2 8 1.91931e-05 1 0 0
240 2 39 -1 0 1 2 8 1.88756e-05 1 0 0
241 2 40 -1 0 1 2 8 1.83894e-05 1 0 0
242 2 41 -1 0 1 2 8 1.78684e-05 1 0 0
243 2 42 -1 0 1 2 8 1.75545e-05 1 0 0
244 2 43 -1 0 1 2 8 1.76524e-05 1 0 0
245 2 44 -1 0 1 2 8 1.81382e-05 1 0 0
246 2 45 -1 0 1 2 8 1.8707e-05 1 0 0
247 2 46 -1 0 1 2 8 1.89827e-05 1 0 0
248 2 47 -1 0 1 2 8 1.88238e-05 1 0 0
249 2 48 -1 0 1 2 8 1.84103e-05 1 0 0
250 2 49 -1 0 1 2 8 1.80665e-05 1 0 0
251 2 0 0 0 1 2 8 5.26674e-07 1 0 0
252 2 1 0 0 1 2 8 1.04156e-06 1 0 0
301 2 0 1 0 1 2 8 2.00566e-06 1 0 0
302 2 1 1 0 1 2 8 4.22204e-06 1 0 0
253 2 2 0 0 1 2 8 3.15561e-06 1 0 0
254 2 3 0 0 1 2 8 8.31121e-06 1 0 0
303 2 2 1 0 1 2 8 1.38282e-05 1 0 0
304 2 3 1 0 1 2 8 3.89126e-05 1 0 0
255 2 4 0 0 1 2 8 1.79937e-05 1 0 0
305 2 4 1 0 1 2 8 8.88747e-05 1 0 0
256 2 5 0 0 1 2 8 3.214e-05 1 0 0
257 2 6 0 0 1 2 8 4.85144e-05 1 0 0
306 2 5 1 0 1 2 8 0.0001645 1 0 0
307 2 6 1 0 1 2 8 0.000252569 1 0 0
258 2 7 0 0 1 2 8 6.42016e-05 1 0 0
259 2 8 0 0 1 2 8 7.71951e-05 1 0 0
308 2 7 1 0 1 2 8 0.000336456 1 0 0
309 2 8 1 0 1 2 8 0.000406076 1 0 0
260 2 9 0 0 1 2 8 8.6801e-05 1 0 0
310 2 9 1 0 1 2 8 0.000458203 1 0 0
261 2 10 0 0 1 2 8 9.34067e-05 1 0 0
262 2 11 0 0 1 2 8 9.79963e-05 1 0 0
311 2 10 1 0 1 2 8 0.000495039 1 0 0
312 2 11 1 0 1 2 8 0.000521339 1 0 0
263 2 12 0 0 1 2 8 0.000101924 1 0 0
264 2 13 0 0 1 2 8 0.000106204 1 0 0
313 2 12 1 0 1 2 8 0.000543821 1 0 0
314 2 13 1 0 1 2 8 0.00056858 1 0 0
265 2 14 0 0 1 2 8 0.000110174 1 0 0
315 2 14 1 0 1 2 8 0.000591454 1 0 0
266 2 15 0 0 1 2 8 0.000112395 1 0 0
267 2 16 0 0 1 2 8 0.000112972 1 0 0
316 2 15 1 0 1 2 8 0.00060325 1 0 0
317 2 16 1 0 1 2 8 0.000605178 1 0 0
268 2 17 0 0 1 2 8 0.00011348 1 0 0
269 2 18 0 0 1 2 8 0.000114828 1 0 0
318 2 17 1 0 1 2 8 0.000607656 1 0 0
319 2 18 1 0 1 2 8 0.000616274 1 0 0
270 2 19 0 0 1 2 8 0.000116235 1 0 0
320 2 19 1 0 1 2 8 0.000625899 1 0 0
271 2 20 0 0 1 2 8 0.000116239 1 0 0
272 2 21 0 0 1 2 8 0.000114197 1 0 0
321 2 20 1 0 1 2 8 0.000627599 1 0 0
322 2 21 1 0 1 2 8 0.000617952 1 0 0
273 2 22 0 0 1 2 8 0.000110633 1 0 0
274 2 23 0 0 1 2 8 0.000106629 1 0 0
323 2 22 1 0 1 2 8 0.000600076 1 0 0
324 2 23 1 0 1 2 8 0.000578985 1 0 0
275 2 24 0 0 1 2 8 0.000103664 1 0 0
325 2 24 1 0 1 2 8 0.00056228 1 0 0
276 2 25 0 0 1 2 8 0.000103307 1 0 0
277 2 26 0 0 1 2 8 0.000105839 1 0 0
326 2 25 1 0 1 2 8 0.000560063 1 0 0
327 2 26 1 0 1 2 8 0.000574734 1 0 0
278 2 27 0 0 1 2 8 0.000109732 1 0 0
279 2 28 0 0 1 2 8 0.000113137 1 0 0
328 2 27 1 0 1 2 8 0.000596785 1 0 0
329 2 28 1 0 1 2 8 0.00061445 1 0 0
280 2 29 0 0 1 2 8 0.000115613 1 0 0
330 2 29 1 0 1 2 8 0.000625429 1 0 0
281 2 30 0 0 1 2 8 0.000117893 1 0 0
282 2 31 0 0 1 2 8 0.000120163 1 0 0
331 2 30 1 0 1 2 8 0.000635669 1 0 0
332 2 31 1 0 1 2 8 0.000647324 1 0 0
283 2 32 0 0 1 2 8 0.000121496 1 0 0
284 2 33 0 0 1 2 8 0.000121157 1 0 0
333 2 32 1 0 1 2 8 0.000654694 1 0 0
334 2 33 1 0 1 2 8 0.000652694 1 0 0
285 2 34 0 0 1 2 8 0.000119813 1 0 0
335 2 34 1 0 1 2 8 0.000645063 1 0 0
286 2 35 0 0 1 2 8 0.000118805 1 0 0
287 2 36 0 0 1 2 8 0.000118584 1 0 0
336 2 35 1 0 1 2 8 0.00063995 1 0 0
337 2 36 1 0 1 2 8 0.000639774 1 0 0
288 2 37 0 0 1 2 8 0.000118535 1 0 0
289 2 38 0 0 1 2 8 0.000117828 1 0 0
338 2 37 1 0 1 2 8 0.000640635 1 0 0
339 2 38 1 0 1 2 8 0.000637786 1 0 0
290 2 39 0 0 1 2 8 0.000115925 1 0 0
340 2 39 1 0 1 2 8 0.000628066 1 0 0
291 2 40 0 0 1 2 8 0.000112799 1 0 0
292 2 41 0 0 1 2 8 0.000109273 1 0 0
341 2 40 1 0 1 2 8 0.000610755 1 0 0
342 2 41 1 0 1 2 8 0.000590043 1 0 0
293 2 42 0 0 1 2 8 0.000107022 1 0 0
294 2 43 0 0 1 2 8 0.00010753 1 0 0
343 2 42 1 0 1 2 8 0.00057606 1 0 0
344 2 43 1 0 1 2 8 0.000578121 1 0 0
295 2 44 0 0 1 2 8 0.000110719 1 0 0
345 2 44 1 0 1 2 8 0.000596266 1 0 0
296 2 45 0 0 1 2 8 0.000114521 1 0 0
297 2 46 0 0 1 2 8 0.000116351 1 0 0
346 2 45 1 0 1 2 8 0.000618274 1 0 0
347 2 46 1 0 1 2 8 0.000628694 1 0 0
298 2 47 0 0 1 2 8 0.000115281 1 0 0
299 2 48 0 0 1 2 8 0.000112558 1 0 0
348 2 47 1 0 1 2 8 0.000622397 1 0 0
349 2 48 1 0 1 2 8 0.000606896 1 0 0
300 2 49 0 0 1 2 8 0.000110323 1 0 0
350 2 49 1 0 1 2 8 0.000594199 1 0 0
351 2 0 2 0 1 2 8 6.3867e-06 1 0 0
352 2 1 2 0 1 2 8 1.42833e-05 1 0 0
401 2 0 3 0 1 2 8 1.67623e-05 1 0 0
402 2 1 3 0 1 2 8 3.95651e-05 1 0 0
353 2 2 2 0 1 2 8 5.05132e-05 1 0 0
354 2 3 2 0 1 2 8 0.000152164 1 0 0
403 2 2 3 0 1 2 8 0.00014958 1 0 0
404 2 3 3 0 1 2 8 0.000478908 1 0 0
355 2 4 2 0 1 2 8 0.00036931 1 0 0
405 2 4 3 0 1 2 8 0.00122671 1 0 0
356 2 5 2 0 1 2 8 0.000713863 1 0 0
357 2 6 2 0 1 2 8 0.00111551 1 0 0
406 2 5 3 0 1 2 8 0.00251452 1 0 0
407 2 6 3 0 1 2 8 0.00401222 1 0 0
358 2 7 2 0 1 2 8 0.00149277 1 0 0
359 2 8 2 0 1 2 8 0.00180771 1 0 0
408 2 7 3 0 1 2 8 0.0053565 1 0 0
409 2 8 3 0 1 2 8 0.00650271 1 0 0
360 2 9 2 0 1 2 8 0.00204861 1 0 0
410 2 9 3 0 1 2 8 0.007414 1 0 0
361 2 10 2 0 1 2 8 0.00222573 1 0 0
362 2 11 2 0 1 2 8 0.00235756 1 0 0
411 2 10 3 0 1 2 8 0.00811881 1 0 0
412 2 11 3 0 1 2 8 0.00867832 1 0 0
363 2 12 2 0 1 2 8 0.00246979 1 0 0
364 2 13 2 0 1 2 8 0.00259305 1 0 0
413 2 12 3 0 1 2 8 0.00915112 1 0 0
414 2 13 3 0 1 2 8 0.00965792 1 0 0
365 2 14 2 0 1 2 8 0.0027064 1 0 0
415 2 14 3 0 1 2 8 0.0101235 1 0 0
366 2 15 2 0 1 2 8 0.00276156 1 0 0
367 2 16 2 0 1 2 8 0.00276701 1 0 0
416 2 15 3 0 1 2 8 0.0103516 1 0 0
417 2 16 3 0 1 2 8 0.0103843 1 0 0
368 2 17 2 0 1 2 8 0.00277933 1 0 0
369 2 18 2 0 1 2 8 0.00282701 1 0 0
418 2 17 3 0 1 2 8 0.0104562 1 0 0
419 2 18 3 0 1 2 8 0.0106774 1 0 0
370 2 19 2 0 1 2 8 0.00288115 1 0 0
420 2 19 3 0 1 2 8 0.0109201 1 0 0
371 2 20 2 0 1 2 8 0.00289686 1 0 0
372 2 21 2 0 1 2 8 0.00286075 1 0 0
421 2 20 3 0 1 2 8 0.0110074 1 0 0
422 2 21 3 0 1 2 8 0.0109129 1 0 0
373 2 22 2 0 1 2 8 0.00278972 1 0 0
374 2 23 2 0 1 2 8 0.0027001 1 0 0
423 2 22 3 0 1 2 8 0.0107179 1 0 0
424 2 23 3 0 1 2 8 0.0104424 1 0 0
375 2 24 2 0 1 2 8 0.00262215 1 0 0
425 2 24 3 0 1 2 8 0.0101624 1 0 0
376 2 25 2 0 1 2 8 0.00261068 1 0 0
377 2 26 2 0 1 2 8 0.00268156 1 0 0
426 2 25 3 0 1 2 8 0.0101219 1 0 0
427 2 26 3 0 1 2 8 0.0103884 1 0 0
378 2 27 2 0 1 2 8 0.00278624 1 0 0
379 2 28 2 0 1 2 8 0.00286195 1 0 0
428 2 27 3 0 1 2 8 0.0107804 1 0 0
429 2 28 3 0 1 2 8 0.0110356 1 0 0
380 2 29 2 0 1 2 8 0.00289852 1 0 0
430 2 29 3 0 1 2 8 0.0111104 1 0 0
381 2 30 2 0 1 2 8 0.00293361 1 0 0
382 2 31 2 0 1 2 8 0.00298335 1 0 0
431 2 30 3 0 1 2 8 0.0111917 1 0 0
432 2 31 3 0 1 2 8 0.0113578 1 0 0
383 2 32 2 0 1 2 8 0.00301811 1 0 0
384 2 33 2 0 1 2 8 0.00300902 1 0 0
433 2 32 3 0 1 2 8 0.0114908 1 0 0
434 2 33 3 0 1 2 8 0.0114638 1 0 0
385 2 34 2 0 1 2 8 0.00297346 1 0 0
435 2 34 3 0 1 2 8 0.0113359 1 0 0
386 2 35 2 0 1 2 8 0.00295288 1 0 0
387 2 36 2 0 1 2 8 0.00295747 1 0 0
436 2 35 3 0 1 2 8 0.0112778 1 0 0
437 2 36 3 0 1 2 8 0.0113183 1 0 0
388 2 37 2 0 1 2 8 0.00296671 1 0 0
389 2 38 2 0 1 2 8 0.00295848 1 0 0
438 2 37 3 0 1 2 8 0.0113696 1 0 0
439 2 38 3 0 1 2 8 0.0113548 1 0 0
390 2 39 2 0 1 2 8 0.0029182 1 0 0
440 2 39 3 0 1 2 8 0.0112295 1 0 0
391 2 40 2 0 1 2 8 0.00283951 1 0 0
392 2 41 2 0 1 2 8 0.00273848 1 0 0
441 2 40 3 0 1 2 8 0.0109627 1 0 0
442 2 41 3 0 1 2 8 0.0105804 1 0 0
393 2 42 2 0 1 2 8 0.00266669 1 0 0
394 2 43 2 0 1 2 8 0.00267231 1 0 0
443 2 42 3 0 1 2 8 0.0102984 1 0 0
444 2 43 3 0 1 2 8 0.0103035 1 0 0
395 2 44 2 0 1 2 8 0.00275792 1 0 0
445 2 44 3 0 1 2 8 0.0106157 1 0 0
396 2 45 2 0 1 2 8 0.00286332 1 0 0
397 2 46 2 0 1 2 8 0.00291165 1 0 0
446 2 45 3 0 1 2 8 0.0110049 1 0 0
447 2 46 3 0 1 2 8 0.0111708 1 0 0
398 2 47 2 0 1 2 8 0.00288048 1 0 0
399 2 48 2 0 1 2 8 0.00280762 1 0 0
448 2 47 3 0 1 2 8 0.011046 1 0 0
449 2 48 3 0 1 2 8 0.010784 1 0 0
400 2 49 2 0 1 2 8 0.00274714 1 0 0
450 2 49 3 0 1 2 8 0.0105533 1 0 0
451 2 0 4 0 1 2 8 3.60536e-05 1 0 0
452 2 1 4 0 1 2 8 8.89324e-05 1 0 0
453 2 2 4 0 1 2 8 0.000354553 1 0 0
454 2 3 4 0 1 2 8 0.00117995 1 0 0
455 2 4 4 0 1 2 7 0.00303404 1 0 0
456 2 5 4 0 1 2 6 0.00666569 1 0 0
457 2 6 4 0 1 2 5 0.0105518 1 0 0
506 1 5.48262 4.8675 0 1.0006 2 0 0.0139197 1 0.00421202 0.00756145
507 1 6.49013 4.86648 0 1.02569 2 0 0.0180709 1 0.0044754 0.00786192
458 2 7 4 0 1 2 5 0.0138219 1 0 0
459 2 8 4 0 1 2 5 0.016786 1 0 0
508 1 7.49214 4.86487 0 1.03193 2 0 0.0221912 1 0.000400159 0.000702443
460 2 9 4 0 1 2 5 0.0192697 1 0 0
510 1 8.4927 4.865 0 1.01036 2 0 0.0260892 1 0.000845952 0.00145068
511 1 9.49723 4.86304 0 1.00136 2 0 0.0296408 1 -0.00115181 0.00333749
461 2 10 4 0 1 2 5 0.0213212 1 0 0
462 2 11 4 0 1 2 5 0.0230782 1 0 0
512 1 10.4969 4.86361 0 1.01573 2 0 0.0329554 1 -0.00343507 -0.00692195
513 1 11.5002 4.86232 0 1.01534 2 0 0.0360537 1 -0.0051651 -0.00285979
463 2 12 4 0 1 2 5 0.0246169 1 0 0
464 2 13 4 0 1 2 5 0.0261408 1 0 0
514 1 12.4998 4.86159 0 1.01802 2 0 0.0388959 1 -0.00481404 -0.0011713
465 2 14 4 0 1 2 5 0.0275121 1 0 0
515 1 13.4987 4.86271 0 1.02031 2 0 0.041481 1 0.00168199 -0.00019139
516 1 14.4986 4.86166 0 1.0096 2 0 0.0437096 1 -0.000682082 0.00486025
466 2 15 4 0 1 2 5 0.0283147 1 0 0
467 2 16 4 0 1 2 5 0.028607 1 0 0
518 1 16.498 4.86279 0 1.02515 2 0 0.0470605 1 0.00401035 0.00483494
517 1 15.499 4.86391 0 1.02614 2 0 0.0455072 1 0.000587211 -0.00825914
468 2 17 4 0 1 2 5 0.0289688 1 0 0
469 2 18 4 0 1 2 5 0.0297251 1 0 0
519 1 17.4999 4.8625 0 1.0239 2 0 0.048519 1 -0.00692686 0.00335775
470 2 19 4 0 1 2 5 0.0304612 1 0 0
520 1 18.4972 4.86269 0 1.00577 2 0 0.0498361 1 0.00766737 0.00104659
521 1 19.4966 4.86435 0 1.00453 2 0 0.0508901 1 0.00588793 -0.0028145
471 2 20 4 0 1 2 5 0.0307798 1 0 0
472 2 21 4 0 1 2 5 0.0306965 1 0 0
523 1 21.4986 4.8652 0 1.02268 2 0 0.0521035 1 -0.00197866 -0.00208935
522 1 20.4996 4.86379 0 1.0139 2 0 0.0516134 1 -0.00120932 0.00474698
473 2 22 4 0 1 2 5 0.0304768 1 0 0
474 2 23 4 0 1 2 5 0.0300221 1 0 0
524 1 22.4973 4.86417 0 1.01383 2 0 0.052432 1 0.00389678 0.0028186
475 2 24 4 0 1 2 5 0.0294502 1 0 0
525 1 23.4975 4.86435 0 1.03669 2 0 0.0526201 1 8.66788e-05 -0.0021164
526 1 24.4992 4.8635 0 1.04245 2 0 0.0529225 1 3.86827e-05 -0.00323494
476 2 25 4 0 1 2 5 0.0294076 1 0 0
477 2 26 4 0 1 2 5 0.0300401 1 0 0
528 1 26.5003 4.86234 0 1.04147 2 0 0.0543287 1 0.000926317 0.00236608
527 1 25.5001 4.86186 0 1.03798 2 0 0.0535289 1 -0.000632487 0.00695839
478 2 27 4 0 1 2 5 0.0310141 1 0 0
479 2 28 4 0 1 2 5 0.0315761 1 0 0
529 1 27.5007 4.8638 0 1.0019 2 0 0.0550553 1 0.00338092 -0.000330943
480 2 29 4 0 1 2 5 0.0316483 1 0 0
531 1 29.5017 4.86443 0 1.01679 2 0 0.0558485 1 -0.00243257 -0.00146941
530 1 28.501 4.86414 0 1.02091 2 0 0.0555381 1 0.00131351 0.000156502
481 2 30 4 0 1 2 5 0.0317348 1 0 0
482 2 31 4 0 1 2 5 0.0321013 1 0 0
533 1 31.5002 4.86451 0 1.004 2 0 0.056524 1 0.00500368 0.00117225
532 1 30.5034 4.86463 0 1.0182 2 0 0.0561552 1 -0.00717639 -0.000200131
483 2 32 4 0 1 2 5 0.0324308 1 0 0
484 2 33 4 0 1 2 5 0.0324068 1 0 0
534 1 32.4996 4.86471 0 1.00171 2 0 0.0568203 1 -0.00145549 0.000626087
485 2 34 4 0 1 2 5 0.032136 1 0 0
535 1 33.4988 4.86268 0 1.00275 2 0 0.0569508 1 -0.00229787 0.00730094
536 1 34.497 4.86283 0 1.0237 2 0 0.0569911 1 0.0094408 0.00445307
486 2 35 4 0 1 2 5 0.0320607 1 0 0
487 2 36 4 0 1 2 5 0.0322141 1 0 0
538 1 36.4993 4.86256 0 1.01227 2 0 0.0572736 1 0.00153553 -0.00124623
537 1 35.4987 4.86334 0 1.0067 2 0 0.057128 1 0.00014748 0.000446149
488 2 37 4 0 1 2 5 0.0323686 1 0 0
489 2 38 4 0 1 2 5 0.032342 1 0 0
539 1 37.5004 4.86278 0 1.00174 2 0 0.0572887 1 -0.00275563 -0.001019
490 2 39 4 0 1 2 5 0.0320971 1 0 0
541 1 39.5015 4.86545 0 1.00168 2 0 0.0568843 1 -0.00315554 -0.00820108
540 1 38.499 4.86477 0 1.01715 2 0 0.0571632 1 0.0042495 -0.00916828
491 2 40 4 0 1 2 5 0.0315537 1 0 0
492 2 41 4 0 1 2 5 0.030653 1 0 0
542 1 40.4998 4.86263 0 1.01016 2 0 0.0564527 1 0.00842087 0.00195251
543 1 41.5053 4.86305 0 1.03252 2 0 0.0560224 1 -0.0124411 0.00500534
493 2 42 4 0 1 2 5 0.029987 1 0 0
494 2 43 4 0 1 2 5 0.029981 1 0 0
544 1 42.5013 4.86542 0 1.0319 2 0 0.0558286 1 0.00439231 -0.00920755
495 2 44 4 0 1 2 5 0.0306891 1 0 0
545 1 43.4989 4.86379 0 1.03659 2 0 0.0558878 1 0.00341954 0.00246397
546 1 44.4972 4.86332 0 1.01001 2 0 0.0560552 1 0.00711917 -6.84025e-05
496 2 45 4 0 1 2 5 0.0315756 1 0 0
497 2 46 4 0 1 2 5 0.0318975 1 0 0
548 1 46.5023 4.86481 0 1.00807 2 0 0.0557856 1 0.0033009 -0.00571484
547 1 45.5016 4.86445 0 1.00173 2 0 0.0560816 1 -0.00810328 -0.0130985
498 2 47 4 0 1 2 5 0.0315714 1 0 0
499 2 48 4 0 1 2 5 0.0309749 1 0 0
549 1 47.5072 4.86419 0 1.02093 2 0 0.0552123 1 -0.0116056 0.000909172
500 2 49 4 0 1 2 5 0.0304192 1 0 0
550 1 48.5041 4.86236 0 1.02225 2 0 0.0547888 1 -0.00453959 0.0104103
8501 1 49.5007 4.86447 0 1.06187 2 0 0.0547357 1 0.00526392 0.00237641
501 2 0 5 0 1 2 8 6.41059e-05 1 0 0
502 2 1 5 0 1 2 8 0.00016331 1 0 0
551 2 0 6 0 1 2 8 9.68272e-05 1 0 0
552 2 1 6 0 1 2 8 0.000251909 1 0 0
503 2 2 5 0 1 2 8 0.000674123 1 0 0
504 2 3 5 0 1 2 8 0.00231713 1 0 0
553 2 2 6 0 1 2 8 0.00105621 1 0 0
554 2 3 6 0 1 2 8 0.00366015 1 0 0
505 2 4 5 0 1 2 6 0.00616199 1 0 0
555 2 4 6 0 1 2 5 0.00955379 1 0 0
556 1 4.96303 5.72444 0 1.02426 2 0 0.0152935 1 0 -5e-05
557 1 5.9702 5.73718 0 1.00456 2 0 0.0210538 1 -0.00247659 -0.00391248
558 1 6.98845 5.73408 0 1.00032 2 0 0.0262378 1 -0.00472228 -0.010349
509 1 7.98691 5.72885 0 1.00999 2 0 0.031423 1 0.00708284 0.00763005
560 1 8.98671 5.73021 0 1.01571 2 0 0.0363745 1 0.0010997 0.00132444
561 1 9.99376 5.72733 0 1.04128 2 0 0.0411145 1 0.000841866 -0.00495774
562 1 10.9939 5.72246 0 1.02468 2 0 0.0456035 1 0.00399382 0.0095494
563 1 11.9968 5.72326 0 1.00884 2 0 0.0497728 1 -0.00381305 0.00241582
565 1 12.9943 5.7237 0 1.01555 2 0 0.0536538 1 0.00752428 0.00262479
566 1 13.997 5.72541 0 1.01485 2 0 0.0571644 1 0.00312246 -0.00220672
567 1 14.9982 5.72382 0 1.00349 2 0 0.0602261 1 -0.00260319 0.00496026
568 1 15.9974 5.72681 0 1.02492 2 0 0.0629672 1 0.00864775 -0.00635577
569 1 17.9984 5.72606 0 1.01386 2 0 0.0674374 1 -0.0011267 0.000994023
618 1 16.9992 5.72663 0 1.00786 2 0 0.0653558 1 -0.000987899 -0.0058149
570 1 18.9963 5.72655 0 1.00562 2 0 0.0691781 1 0.00673918 0.00329081
571 1 19.9977 5.72789 0 1.00943 2 0 0.0706209 1 -0.006125 -0.00375016
572 1 20.9959 5.73147 0 1.02492 2 0 0.0718321 1 0.00418357 -0.00670077
573 1 21.9951 5.73026 0 1.00977 2 0 0.0726846 1 0.00282148 0.00195808
574 1 22.9965 5.72883 0 1.00488 2 0 0.0733302 1 0.00190323 -0.00512013
575 1 23.9986 5.72598 0 1.01237 2 0 0.0739993 1 -0.0010761 0.00383064
576 1 24.9989 5.7257 0 1.01087 2 0 0.0748504 1 0.00215132 -0.00217882
577 1 26.001 5.72519 0 1.01133 2 0 0.0758991 1 -0.00370327 0.000115265
579 1 27.0013 5.7256 0 1.01129 2 0 0.0768702 1 -0.00316254 0.000811654
580 1 28.0039 5.72863 0 1.02117 2 0 0.077694 1 -0.00461837 -0.000310368
581 1 29.0022 5.72906 0 1.01861 2 0 0.0782677 1 0.00318566 -0.00418577
632 1 30.0028 5.72738 0 1.0167 2 0 0.0786177 1 0.00181952 0.00330688
582 1 31.0025 5.73063 0 1.0143 2 0 0.0790156 1 -0.0089453 -0.000890903
583 1 31.999 5.73027 0 1.0088 2 0 0.079491 1 0.00536691 -0.00150847
584 1 32.9988 5.72918 0 1.00514 2 0 0.0799476 1 -0.000510132 -0.00252786
585 1 33.999 5.7267 0 1.02197 2 0 0.0803527 1 -0.00170431 0.00200137
586 1 34.9992 5.72773 0 1.02669 2 0 0.0805835 1 7.40054e-05 -0.00702884
587 1 36.0007 5.72507 0 1.01702 2 0 0.0807265 1 -0.000360085 0.00263904
588 1 37 5.7248 0 1.01798 2 0 0.0807241 1 0.00476622 0.000248026
589 1 37.9991 5.72622 0 1.01656 2 0 0.0805824 1 0.00209508 0.000812921
590 1 39 5.72619 0 1.01208 2 0 0.0803719 1 0.00224597 0.00153543
591 1 40.0056 5.72654 0 1.01334 2 0 0.0801588 1 -0.0035973 0.00581924
592 1 41.0044 5.72676 0 1.02633 2 0 0.0800254 1 -0.000208762 -0.00430517
594 1 43.0011 5.72936 0 1.01497 2 0 0.0797304 1 0.00595931 -0.0013071
593 1 42.005 5.72838 0 1.02837 2 0 0.0798906 1 -0.012214 0.0047408
595 1 44.0004 5.72794 0 1.01694 2 0 0.0794905 1 -0.00211337 -0.00493892
596 1 44.9984 5.72635 0 1.01116 2 0 0.0791706 1 0.00354716 -0.00673499
597 1 45.9986 5.72248 0 1.01212 2 0 0.0787035 1 0.00478883 0.0205018
598 1 47.0073 5.72786 0 1.00861 2 0 0.0779136 1 -0.00852468 -0.013575
599 1 48.0051 5.72852 0 1.02545 2 0 0.0771365 1 0.00477207 -0.00492998
600 1 49.0025 5.73002 0 1.00476 2 0 0.0769969 1 0.00244135 0.000107737
10651 1 49.8676 45.3223 0 1.00347 0 0 0.499591 1 0.000276038 0.000146349
601 2 0 7 0 1 2 8 0.000129145 1 0 0
602 2 1 7 0 1 2 8 0.00034089 1 0 0
651 2 0 8 0 1 2 8 0.000157349 1 0 0
652 2 1 8 0 1 2 8 0.000420258 1 0 0
603 2 2 7 0 1 2 8 0.00144345 1 0 0
604 2 3 7 0 1 2 8 0.00504052 1 0 0
653 2 2 8 0 1 2 8 0.00179707 1 0 0
654 2 3 8 0 1 2 8 0.00637962 1 0 0
605 2 4 7 0 1 2 5 0.0129643 1 0 0
655 2 4 8 0 1 2 5 0.0162135 1 0 0
656 1 4.89715 7.46782 0 1.01253 2 0 0.0215981 1 0 -5e-05
606 1 5.43581 6.62461 0 1.01839 2 0 0.0224251 1 0 -5e-05
607 1 6.47881 6.59198 0 1.01626 2 0 0.0290364 1 0.00264711 0.0116978
657 1 5.96426 7.48652 0 1.02523 2 0 0.0302692 1 0 -5e-05
608 1 7.48511 6.59758 0 1.01581 2 0 0.0355063 1 0.00120589 -0.0065259
609 1 7.98159 7.45978 0 1.00447 2 0 0.0457229 1 0.00840831 -0.014574
658 1 6.97902 7.45724 0 1.00499 2 0 0.0381949 1 -0.00375867 0.00206141
559 1 8.48597 6.59647 0 1.01669 2 0 0.0418103 1 -0.00621189 -0.0110474
610 1 9.49204 6.58971 0 1.00382 2 0 0.0479591 1 0.00233058 0.000141788
661 1 8.99188 7.45172 0 1.00906 2 0 0.0532174 1 0.00824828 0.00308354
612 1 9.99489 7.45212 0 1.00002 2 0 0.0605116 1 -0.00207877 0.00128303
611 1 10.495 6.58778 0 1.00368 2 0 0.0538625 1 -0.00063952 0.00153432
564 1 11.4939 6.58511 0 1.01095 2 0 0.0594479 1 0.000147228 0.00364092
613 1 10.9946 7.45052 0 1.00877 2 0 0.0676038 1 -0.00425857 0.00139218
614 1 12.4931 6.58601 0 1.01882 2 0 0.0646965 1 0.00230203 0.00324666
665 1 12.9915 7.44894 0 1.00809 2 0 0.0806004 1 -0.000924398 -0.00641952
664 1 11.9927 7.44947 0 1.0022 2 0 0.0743374 1 6.03673e-05 -0.00402094
615 1 13.4935 6.58555 0 1.00601 2 0 0.0695455 1 -0.0040864 0.000186254
616 1 14.4991 6.58702 0 1.00878 2 0 0.0738813 1 -0.0023674 0.000280478
666 1 13.9908 7.44631 0 0.997531 2 0 0.08629 1 0.00665932 -0.00171654
667 1 14.9986 7.44882 0 1.00922 2 0 0.091445 1 -0.00188828 0.00042948
617 1 15.4995 6.58608 0 1.01132 2 0 0.077773 1 -0.00256657 0.0109059
668 1 15.9977 7.4523 0 1.01232 2 0 0.0960719 1 0.00133125 -0.00489657
619 1 16.4999 6.58935 0 1.00791 2 0 0.0812738 1 -0.00342913 5.8614e-05
669 1 17.4998 6.58914 0 1.0115 2 0 0.0843426 1 -0.00505424 0.00480297
719 1 16.9971 7.45317 0 1.0104 2 0 0.100219 1 0.00552584 0.00431238
720 1 17.9971 7.45348 0 1.00384 2 0 0.103902 1 -0.00480128 0.00698641
620 1 18.4986 6.58981 0 1.00047 2 0 0.0870128 1 -0.00221998 0.00705436
621 1 19.4964 6.59265 0 1.01086 2 0 0.0892591 1 -0.00469001 -0.0012621
670 1 18.994 7.46174 0 1.01205 2 0 0.107167 1 -0.00242452 -0.00202738
671 1 19.9891 7.46153 0 1.01101 2 0 0.109907 1 6.69828e-05 -0.00823077
622 1 20.4928 6.59213 0 1.02282 2 0 0.091193 1 0.0030738 0.00331142
623 1 21.4943 6.59711 0 1.01715 2 0 0.0926776 1 0.00154681 -0.00562461
672 1 20.9866 7.45587 0 1.01032 2 0 0.112095 1 0.00422178 0.000340904
673 1 21.9988 7.45816 0 1.00705 2 0 0.113622 1 0.00432559 -0.000394084
624 1 22.4988 6.59242 0 1.00933 2 0 0.0935445 1 -0.00272404 0.00568643
674 1 23.0002 7.45631 0 1.01197 2 0 0.114169 1 0.000428715 0.000523912
625 1 23.499 6.59101 0 1.01358 2 0 0.0942309 1 -0.000174108 -0.000776161
626 1 24.4993 6.58847 0 1.01095 2 0 0.0951471 1 -0.00229408 0.00128162
675 1 24.0012 7.45306 0 1.00974 2 0 0.114527 1 -0.00196731 7.92968e-05
676 1 24.9979 7.45217 0 1.01754 2 0 0.11594 1 0.00150939 -0.000394406
578 1 26.4993 6.58792 0 1.0136 2 0 0.0983038 1 -0.000514745 -0.00325428
628 1 25.9971 7.44907 0 1.00647 2 0 0.118798 1 0.00296071 0.00382499
627 1 25.4986 6.58844 0 1.0116 2 0 0.0966499 1 -0.000523444 -0.00496399
629 1 27.499 6.58926 0 1.00585 2 0 0.0996663 1 0.00168555 -0.000716176
679 1 27.9995 7.45168 0 1.01276 2 0 0.122777 1 -0.00107647 -0.00123629
678 1 26.9964 7.45036 0 1.01987 2 0 0.121244 1 0.00199615 0.00127099
630 1 28.5045 6.5935 0 1.00031 2 0 0.100697 1 -0.000275927 -0.00657966
631 1 29.505 6.59151 0 1.01679 2 0 0.101302 1 -0.00412094 0.0033885
680 1 29.0061 7.4554 0 1.0041 2 0 0.123738 1 -0.00140379 0.0019897
681 1 30.0046 7.46106 0 1.0067 2 0 0.124272 1 -0.00100161 -0.000735415
682 1 30.5022 6.5964 0 1.0233 2 0 0.101772 1 0.000846215 -0.00402559
633 1 31.4987 6.59659 0 1.00197 2 0 0.102463 1 0.0096684 0.000256843
732 1 31.0024 7.46265 0 1.02086 2 0 0.125096 1 -0.00122241 0.000174481
683 1 31.9996 7.46472 0 1.00602 2 0 0.126548 1 0.00461028 -0.0054225
684 1 32.4982 6.59465 0 1.01173 2 0 0.103309 1 0.00121662 0.00103694
734 1 33.0006 7.45771 0 1.01306 2 0 0.128072 1 -0.00190339 -0.00252535
634 1 33.4995 6.59133 0 1.00318 2 0 0.104095 1 0.00122275 0.00630689
635 1 34.5001 6.58997 0 1.01335 2 0 0.104612 1 -0.000736793 0.00230252
685 1 34.0031 7.45467 0 1.01182 2 0 0.128979 1 -0.00187604 -0.00336285
686 1 35.0053 7.45116 0 1.01566 2 0 0.129249 1 -1.12756e-05 -0.00316969
636 1 35.5037 6.58883 0 1.01343 2 0 0.104766 1 0.000735741 -0.000670222