ITEM: TIMESTEP
2000
ITEM: NUMBER OF ATOMS
15950
ITEM: BOX BOUNDS pp pp pp
0.0000000000000000e+00 1.0000000000000000e+02
-5.0000000000000000e+00 2.0000000000000000e+02
-5.0000000000000000e-01 5.0000000000000000e-01
ITEM: ATOMS id type x y z c_rho c_phase c_nbond c_temp f_rheo_chi_chi fx fy
1 2 0 -5 0 1 2 8 2.29505e-17 1 0 0
2 2 1 -5 0 1 2 8 6.49311e-17 1 0 0
51 2 0 -4 0 1 2 8 5.49493e-16 1 0 0
52 2 1 -4 0 1 2 8 1.71663e-15 1 0 0
3 2 2 -5 0 1 2 8 2.39362e-16 1 0 0
4 2 3 -5 0 1 2 8 6.83608e-16 1 0 0
53 2 2 -4 0 1 2 8 6.98852e-15 1 0 0
54 2 3 -4 0 1 2 8 2.14508e-14 1 0 0
5 2 4 -5 0 1 2 7 1.49702e-15 1 0 0
55 2 4 -4 0 1 2 8 4.91724e-14 1 0 0
6 2 5 -5 0 1 2 6 2.57512e-15 1 0 0
7 2 6 -5 0 1 2 5 3.59049e-15 1 0 0
56 2 5 -4 0 1 2 8 8.64009e-14 1 0 0
57 2 6 -4 0 1 2 8 1.21617e-13 1 0 0
8 2 7 -5 0 1 2 5 4.27064e-15 1 0 0
9 2 8 -5 0 1 2 5 4.57794e-15 1 0 0
58 2 7 -4 0 1 2 8 1.45123e-13 1 0 0
59 2 8 -4 0 1 2 8 1.55514e-13 1 0 0
10 2 9 -5 0 1 2 5 4.65245e-15 1 0 0
60 2 9 -4 0 1 2 8 1.57924e-13 1 0 0
11 2 10 -5 0 1 2 5 4.65412e-15 1 0 0
12 2 11 -5 0 1 2 5 4.65208e-15 1 0 0
61 2 10 -4 0 1 2 8 1.58044e-13 1 0 0
62 2 11 -4 0 1 2 8 1.57997e-13 1 0 0
13 2 12 -5 0 1 2 5 4.67852e-15 1 0 0
14 2 13 -5 0 1 2 5 4.78075e-15 1 0 0
63 2 12 -4 0 1 2 8 1.58829e-13 1 0 0
64 2 13 -4 0 1 2 8 1.62714e-13 1 0 0
15 2 14 -5 0 1 2 5 4.91821e-15 1 0 0
65 2 14 -4 0 1 2 8 1.68273e-13 1 0 0
16 2 15 -5 0 1 2 5 4.96333e-15 1 0 0
17 2 16 -5 0 1 2 5 4.88494e-15 1 0 0
66 2 15 -4 0 1 2 8 1.70326e-13 1 0 0
67 2 16 -4 0 1 2 8 1.67477e-13 1 0 0
18 2 17 -5 0 1 2 5 4.8102e-15 1 0 0
19 2 18 -5 0 1 2 5 4.84339e-15 1 0 0
68 2 17 -4 0 1 2 8 1.6466e-13 1 0 0
69 2 18 -4 0 1 2 8 1.65897e-13 1 0 0
20 2 19 -5 0 1 2 5 4.92728e-15 1 0 0
70 2 19 -4 0 1 2 8 1.6902e-13 1 0 0
21 2 20 -5 0 1 2 5 4.92237e-15 1 0 0
22 2 21 -5 0 1 2 5 4.78422e-15 1 0 0
71 2 20 -4 0 1 2 8 1.6876e-13 1 0 0
72 2 21 -4 0 1 2 8 1.63534e-13 1 0 0
23 2 22 -5 0 1 2 5 4.60451e-15 1 0 0
24 2 23 -5 0 1 2 5 4.47532e-15 1 0 0
73 2 22 -4 0 1 2 8 1.57026e-13 1 0 0
74 2 23 -4 0 1 2 8 1.52751e-13 1 0 0
25 2 24 -5 0 1 2 5 4.39953e-15 1 0 0
75 2 24 -4 0 1 2 8 1.50478e-13 1 0 0
26 2 25 -5 0 1 2 5 4.36033e-15 1 0 0
27 2 26 -5 0 1 2 5 4.38353e-15 1 0 0
76 2 25 -4 0 1 2 8 1.49208e-13 1 0 0
77 2 26 -4 0 1 2 8 1.49872e-13 1 0 0
28 2 27 -5 0 1 2 5 4.48447e-15 1 0 0
29 2 28 -5 0 1 2 5 4.62432e-15 1 0 0
78 2 27 -4 0 1 2 8 1.53179e-13 1 0 0
79 2 28 -4 0 1 2 8 1.57752e-13 1 0 0
30 2 29 -5 0 1 2 5 4.77827e-15 1 0 0
80 2 29 -4 0 1 2 8 1.62833e-13 1 0 0
31 2 30 -5 0 1 2 5 4.97081e-15 1 0 0
32 2 31 -5 0 1 2 5 5.18106e-15 1 0 0
81 2 30 -4 0 1 2 8 1.69572e-13 1 0 0
82 2 31 -4 0 1 2 8 1.77148e-13 1 0 0
33 2 32 -5 0 1 2 5 5.3085e-15 1 0 0
34 2 33 -5 0 1 2 5 5.27945e-15 1 0 0
83 2 32 -4 0 1 2 8 1.8159e-13 1 0 0
84 2 33 -4 0 1 2 8 1.80079e-13 1 0 0
35 2 34 -5 0 1 2 5 5.15482e-15 1 0 0
85 2 34 -4 0 1 2 8 1.752e-13 1 0 0
36 2 35 -5 0 1 2 5 5.05592e-15 1 0 0
37 2 36 -5 0 1 2 5 5.01894e-15 1 0 0
86 2 35 -4 0 1 2 8 1.71722e-13 1 0 0
87 2 36 -4 0 1 2 8 1.70624e-13 1 0 0
38 2 37 -5 0 1 2 5 5.01017e-15 1 0 0
39 2 38 -5 0 1 2 5 5.00434e-15 1 0 0
88 2 37 -4 0 1 2 8 1.70249e-13 1 0 0
89 2 38 -4 0 1 2 8 1.69776e-13 1 0 0
40 2 39 -5 0 1 2 5 4.98049e-15 1 0 0
90 2 39 -4 0 1 2 8 1.68797e-13 1 0 0
41 2 40 -5 0 1 2 5 4.9071e-15 1 0 0
42 2 41 -5 0 1 2 5 4.76464e-15 1 0 0
91 2 40 -4 0 1 2 8 1.66451e-13 1 0 0
92 2 41 -4 0 1 2 8 1.61962e-13 1 0 0
43 2 42 -5 0 1 2 5 4.60326e-15 1 0 0
44 2 43 -5 0 1 2 5 4.54392e-15 1 0 0
93 2 42 -4 0 1 2 8 1.5677e-13 1 0 0
94 2 43 -4 0 1 2 8 1.54962e-13 1 0 0
45 2 44 -5 0 1 2 5 4.67419e-15 1 0 0
95 2 44 -4 0 1 2 8 1.59843e-13 1 0 0
46 2 45 -5 0 1 2 5 4.91098e-15 1 0 0
47 2 46 -5 0 1 2 5 5.03394e-15 1 0 0
96 2 45 -4 0 1 2 8 1.68585e-13 1 0 0
97 2 46 -4 0 1 2 8 1.73052e-13 1 0 0
48 2 47 -5 0 1 2 5 4.92552e-15 1 0 0
49 2 48 -5 0 1 2 5 4.68923e-15 1 0 0
98 2 47 -4 0 1 2 8 1.69012e-13 1 0 0
99 2 48 -4 0 1 2 8 1.60585e-13 1 0 0
50 2 49 -5 0 1 2 5 4.48434e-15 1 0 0
100 2 49 -4 0 1 2 8 1.53503e-13 1 0 0
101 2 0 -3 0 1 2 8 1.16684e-14 1 0 0
102 2 1 -3 0 1 2 8 4.07427e-14 1 0 0
151 2 0 -2 0 1 2 8 2.14582e-13 1 0 0
152 2 1 -2 0 1 2 8 8.5159e-13 1 0 0
103 2 2 -3 0 1 2 8 1.85926e-13 1 0 0
104 2 3 -3 0 1 2 8 6.23671e-13 1 0 0
153 2 2 -2 0 1 2 8 4.44955e-12 1 0 0
154 2 3 -2 0 1 2 8 1.65318e-11 1 0 0
105 2 4 -3 0 1 2 8 1.52194e-12 1 0 0
155 2 4 -2 0 1 2 8 4.31277e-11 1 0 0
106 2 5 -3 0 1 2 8 2.77081e-12 1 0 0
107 2 6 -3 0 1 2 8 3.95732e-12 1 0 0
156 2 5 -2 0 1 2 8 8.13586e-11 1 0 0
157 2 6 -2 0 1 2 8 1.1789e-10 1 0 0
108 2 7 -3 0 1 2 8 4.73995e-12 1 0 0
109 2 8 -3 0 1 2 8 5.0729e-12 1 0 0
158 2 7 -2 0 1 2 8 1.41887e-10 1 0 0
159 2 8 -2 0 1 2 8 1.52047e-10 1 0 0
110 2 9 -3 0 1 2 8 5.14241e-12 1 0 0
160 2 9 -2 0 1 2 8 1.54179e-10 1 0 0
111 2 10 -3 0 1 2 8 5.15491e-12 1 0 0
112 2 11 -3 0 1 2 8 5.15946e-12 1 0 0
161 2 10 -2 0 1 2 8 1.54744e-10 1 0 0
162 2 11 -2 0 1 2 8 1.54858e-10 1 0 0
113 2 12 -3 0 1 2 8 5.17234e-12 1 0 0
114 2 13 -3 0 1 2 8 5.31375e-12 1 0 0
163 2 12 -2 0 1 2 8 1.54934e-10 1 0 0
164 2 13 -2 0 1 2 8 1.59591e-10 1 0 0
115 2 14 -3 0 1 2 8 5.54343e-12 1 0 0
165 2 14 -2 0 1 2 8 1.67636e-10 1 0 0
116 2 15 -3 0 1 2 8 5.63738e-12 1 0 0
117 2 16 -3 0 1 2 8 5.53058e-12 1 0 0
166 2 15 -2 0 1 2 8 1.71124e-10 1 0 0
167 2 16 -2 0 1 2 8 1.67724e-10 1 0 0
118 2 17 -3 0 1 2 8 5.4244e-12 1 0 0
119 2 18 -3 0 1 2 8 5.47213e-12 1 0 0
168 2 17 -2 0 1 2 8 1.64306e-10 1 0 0
169 2 18 -2 0 1 2 8 1.65902e-10 1 0 0
120 2 19 -3 0 1 2 8 5.59044e-12 1 0 0
170 2 19 -2 0 1 2 8 1.69751e-10 1 0 0
121 2 20 -3 0 1 2 8 5.57842e-12 1 0 0
122 2 21 -3 0 1 2 8 5.37769e-12 1 0 0
171 2 20 -2 0 1 2 8 1.69268e-10 1 0 0
172 2 21 -2 0 1 2 8 1.62566e-10 1 0 0
123 2 22 -3 0 1 2 8 5.14065e-12 1 0 0
124 2 23 -3 0 1 2 8 5.00335e-12 1 0 0
173 2 22 -2 0 1 2 8 1.54914e-10 1 0 0
174 2 23 -2 0 1 2 8 1.50938e-10 1 0 0
125 2 24 -3 0 1 2 8 4.93805e-12 1 0 0
175 2 24 -2 0 1 2 8 1.49402e-10 1 0 0
126 2 25 -3 0 1 2 8 4.89556e-12 1 0 0
127 2 26 -3 0 1 2 8 4.91403e-12 1 0 0
176 2 25 -2 0 1 2 8 1.48245e-10 1 0 0
177 2 26 -2 0 1 2 8 1.48655e-10 1 0 0
128 2 27 -3 0 1 2 8 5.02523e-12 1 0 0
129 2 28 -3 0 1 2 8 5.17421e-12 1 0 0
178 2 27 -2 0 1 2 8 1.51798e-10 1 0 0
179 2 28 -2 0 1 2 8 1.55951e-10 1 0 0
130 2 29 -3 0 1 2 8 5.33525e-12 1 0 0
180 2 29 -2 0 1 2 8 1.60576e-10 1 0 0
131 2 30 -3 0 1 2 8 5.56931e-12 1 0 0
132 2 31 -3 0 1 2 8 5.84118e-12 1 0 0
181 2 30 -2 0 1 2 8 1.67934e-10 1 0 0
182 2 31 -2 0 1 2 8 1.76666e-10 1 0 0
133 2 32 -3 0 1 2 8 5.9959e-12 1 0 0
134 2 33 -3 0 1 2 8 5.92171e-12 1 0 0
183 2 32 -2 0 1 2 8 1.81438e-10 1 0 0
184 2 33 -2 0 1 2 8 1.78508e-10 1 0 0
135 2 34 -3 0 1 2 8 5.72878e-12 1 0 0
185 2 34 -2 0 1 2 8 1.71928e-10 1 0 0
136 2 35 -3 0 1 2 8 5.61318e-12 1 0 0
137 2 36 -3 0 1 2 8 5.58888e-12 1 0 0
186 2 35 -2 0 1 2 8 1.68527e-10 1 0 0
187 2 36 -2 0 1 2 8 1.6818e-10 1 0 0
138 2 37 -3 0 1 2 8 5.57278e-12 1 0 0
139 2 38 -3 0 1 2 8 5.54668e-12 1 0 0
188 2 37 -2 0 1 2 8 1.67589e-10 1 0 0
189 2 38 -2 0 1 2 8 1.66345e-10 1 0 0
140 2 39 -3 0 1 2 8 5.50744e-12 1 0 0
190 2 39 -2 0 1 2 8 1.64805e-10 1 0 0
141 2 40 -3 0 1 2 8 5.43683e-12 1 0 0
142 2 41 -3 0 1 2 8 5.30143e-12 1 0 0
191 2 40 -2 0 1 2 8 1.62812e-10 1 0 0
192 2 41 -2 0 1 2 8 1.59299e-10 1 0 0
143 2 42 -3 0 1 2 8 5.13921e-12 1 0 0
144 2 43 -3 0 1 2 8 5.08401e-12 1 0 0
193 2 42 -2 0 1 2 8 1.54968e-10 1 0 0
194 2 43 -2 0 1 2 8 1.5356e-10 1 0 0
145 2 44 -3 0 1 2 8 5.26294e-12 1 0 0
195 2 44 -2 0 1 2 8 1.59319e-10 1 0 0
146 2 45 -3 0 1 2 8 5.58417e-12 1 0 0
147 2 46 -3 0 1 2 8 5.74313e-12 1 0 0
196 2 45 -2 0 1 2 8 1.69662e-10 1 0 0
197 2 46 -2 0 1 2 8 1.74692e-10 1 0 0
148 2 47 -3 0 1 2 8 5.58673e-12 1 0 0
149 2 48 -3 0 1 2 8 5.2908e-12 1 0 0
198 2 47 -2 0 1 2 8 1.6957e-10 1 0 0
199 2 48 -2 0 1 2 8 1.60402e-10 1 0 0
150 2 49 -3 0 1 2 8 5.05645e-12 1 0 0
200 2 49 -2 0 1 2 8 1.53429e-10 1 0 0
201 2 0 -1 0 1 2 8 3.3394e-12 1 0 0
202 2 1 -1 0 1 2 8 1.52656e-11 1 0 0
203 2 2 -1 0 1 2 8 9.29667e-11 1 0 0
204 2 3 -1 0 1 2 8 3.92625e-10 1 0 0
205 2 4 -1 0 1 2 8 1.12535e-09 1 0 0
206 2 5 -1 0 1 2 8 2.2387e-09 1 0 0
207 2 6 -1 0 1 2 8 3.30661e-09 1 0 0
208 2 7 -1 0 1 2 8 4.00755e-09 1 0 0
209 2 8 -1 0 1 2 8 4.29822e-09 1 0 0
210 2 9 -1 0 1 2 8 4.34947e-09 1 0 0
211 2 10 -1 0 1 2 8 4.38395e-09 1 0 0
212 2 11 -1 0 1 2 8 4.40167e-09 1 0 0
213 2 12 -1 0 1 2 8 4.36141e-09 1 0 0
214 2 13 -1 0 1 2 8 4.50705e-09 1 0 0
215 2 14 -1 0 1 2 8 4.80702e-09 1 0 0
216 2 15 -1 0 1 2 8 4.94124e-09 1 0 0
217 2 16 -1 0 1 2 8 4.8238e-09 1 0 0
218 2 17 -1 0 1 2 8 4.71547e-09 1 0 0
219 2 18 -1 0 1 2 8 4.77089e-09 1 0 0
220 2 19 -1 0 1 2 8 4.89968e-09 1 0 0
221 2 20 -1 0 1 2 8 4.88327e-09 1 0 0
222 2 21 -1 0 1 2 8 4.65379e-09 1 0 0
223 2 22 -1 0 1 2 8 4.40154e-09 1 0 0
224 2 23 -1 0 1 2 8 4.28876e-09 1 0 0
225 2 24 -1 0 1 2 8 4.25038e-09 1 0 0
226 2 25 -1 0 1 2 8 4.21704e-09 1 0 0
227 2 26 -1 0 1 2 8 4.23056e-09 1 0 0
228 2 27 -1 0 1 2 8 4.32779e-09 1 0 0
229 2 28 -1 0 1 2 8 4.44636e-09 1 0 0
230 2 29 -1 0 1 2 8 4.5698e-09 1 0 0
231 2 30 -1 0 1 2 8 4.80437e-09 1 0 0
232 2 31 -1 0 1 2 8 5.08082e-09 1 0 0
233 2 32 -1 0 1 2 8 5.22871e-09 1 0 0
234 2 33 -1 0 1 2 8 5.11319e-09 1 0 0
235 2 34 -1 0 1 2 8 4.88064e-09 1 0 0
236 2 35 -1 0 1 2 8 4.79298e-09 1 0 0
237 2 36 -1 0 1 2 8 4.80809e-09 1 0 0
238 2 37 -1 0 1 2 8 4.78384e-09 1 0 0
239 2 38 -1 0 1 2 8 4.73599e-09 1 0 0
240 2 39 -1 0 1 2 8 4.67939e-09 1 0 0
241 2 40 -1 0 1 2 8 4.62986e-09 1 0 0
242 2 41 -1 0 1 2 8 4.54326e-09 1 0 0
243 2 42 -1 0 1 2 8 4.43248e-09 1 0 0
244 2 43 -1 0 1 2 8 4.39316e-09 1 0 0
245 2 44 -1 0 1 2 8 4.57445e-09 1 0 0
246 2 45 -1 0 1 2 8 4.90824e-09 1 0 0
247 2 46 -1 0 1 2 8 5.06361e-09 1 0 0
248 2 47 -1 0 1 2 8 4.88253e-09 1 0 0
249 2 48 -1 0 1 2 8 4.60468e-09 1 0 0
250 2 49 -1 0 1 2 8 4.41234e-09 1 0 0
251 2 0 0 0 1 2 8 4.26408e-11 1 0 0
252 2 1 0 0 1 2 8 2.24911e-10 1 0 0
301 2 0 1 0 1 2 8 4.2275e-10 1 0 0
302 2 1 1 0 1 2 8 2.64423e-09 1 0 0
253 2 2 0 0 1 2 8 1.65558e-09 1 0 0
254 2 3 0 0 1 2 8 8.19168e-09 1 0 0
303 2 2 1 0 1 2 8 2.37643e-08 1 0 0
304 2 3 1 0 1 2 8 1.42331e-07 1 0 0
255 2 4 0 0 1 2 8 2.59881e-08 1 0 0
305 2 4 1 0 1 2 8 5.27843e-07 1 0 0
256 2 5 0 0 1 2 8 5.43276e-08 1 0 0
257 2 6 0 0 1 2 8 8.16556e-08 1 0 0
306 2 5 1 0 1 2 8 1.20818e-06 1 0 0
307 2 6 1 0 1 2 8 1.8614e-06 1 0 0
258 2 7 0 0 1 2 8 9.97329e-08 1 0 0
259 2 8 0 0 1 2 8 1.0762e-07 1 0 0
308 2 7 1 0 1 2 8 2.31341e-06 1 0 0
309 2 8 1 0 1 2 8 2.52331e-06 1 0 0
260 2 9 0 0 1 2 8 1.09242e-07 1 0 0
310 2 9 1 0 1 2 8 2.55086e-06 1 0 0
261 2 10 0 0 1 2 8 1.10313e-07 1 0 0
262 2 11 0 0 1 2 8 1.10576e-07 1 0 0
311 2 10 1 0 1 2 8 2.59662e-06 1 0 0
312 2 11 1 0 1 2 8 2.63299e-06 1 0 0
263 2 12 0 0 1 2 8 1.09092e-07 1 0 0
264 2 13 0 0 1 2 8 1.13029e-07 1 0 0
313 2 12 1 0 1 2 8 2.51286e-06 1 0 0
314 2 13 1 0 1 2 8 2.61987e-06 1 0 0
265 2 14 0 0 1 2 8 1.2148e-07 1 0 0
315 2 14 1 0 1 2 8 2.90708e-06 1 0 0
266 2 15 0 0 1 2 8 1.25313e-07 1 0 0
267 2 16 0 0 1 2 8 1.22271e-07 1 0 0
316 2 15 1 0 1 2 8 3.02519e-06 1 0 0
317 2 16 1 0 1 2 8 2.9269e-06 1 0 0
268 2 17 0 0 1 2 8 1.19584e-07 1 0 0
269 2 18 0 0 1 2 8 1.21163e-07 1 0 0
318 2 17 1 0 1 2 8 2.86462e-06 1 0 0
319 2 18 1 0 1 2 8 2.91014e-06 1 0 0
270 2 19 0 0 1 2 8 1.24588e-07 1 0 0
320 2 19 1 0 1 2 8 3.00687e-06 1 0 0
271 2 20 0 0 1 2 8 1.24109e-07 1 0 0
272 2 21 0 0 1 2 8 1.17853e-07 1 0 0
321 2 20 1 0 1 2 8 2.99695e-06 1 0 0
322 2 21 1 0 1 2 8 2.81659e-06 1 0 0
273 2 22 0 0 1 2 8 1.11068e-07 1 0 0
274 2 23 0 0 1 2 8 1.083e-07 1 0 0
323 2 22 1 0 1 2 8 2.62105e-06 1 0 0
324 2 23 1 0 1 2 8 2.54785e-06 1 0 0
275 2 24 0 0 1 2 8 1.07723e-07 1 0 0
325 2 24 1 0 1 2 8 2.52062e-06 1 0 0
276 2 25 0 0 1 2 8 1.07068e-07 1 0 0
277 2 26 0 0 1 2 8 1.07352e-07 1 0 0
326 2 25 1 0 1 2 8 2.51034e-06 1 0 0
327 2 26 1 0 1 2 8 2.53564e-06 1 0 0
278 2 27 0 0 1 2 8 1.09593e-07 1 0 0
279 2 28 0 0 1 2 8 1.12133e-07 1 0 0
328 2 27 1 0 1 2 8 2.60234e-06 1 0 0
329 2 28 1 0 1 2 8 2.6662e-06 1 0 0
280 2 29 0 0 1 2 8 1.15008e-07 1 0 0
330 2 29 1 0 1 2 8 2.72217e-06 1 0 0
281 2 30 0 0 1 2 8 1.21189e-07 1 0 0
282 2 31 0 0 1 2 8 1.2852e-07 1 0 0
331 2 30 1 0 1 2 8 2.90239e-06 1 0 0
332 2 31 1 0 1 2 8 3.08718e-06 1 0 0
283 2 32 0 0 1 2 8 1.3229e-07 1 0 0
284 2 33 0 0 1 2 8 1.28808e-07 1 0 0
333 2 32 1 0 1 2 8 3.18511e-06 1 0 0
334 2 33 1 0 1 2 8 3.07678e-06 1 0 0
285 2 34 0 0 1 2 8 1.22371e-07 1 0 0
335 2 34 1 0 1 2 8 2.87782e-06 1 0 0
286 2 35 0 0 1 2 8 1.20472e-07 1 0 0
287 2 36 0 0 1 2 8 1.2136e-07 1 0 0
336 2 35 1 0 1 2 8 2.85366e-06 1 0 0
337 2 36 1 0 1 2 8 2.91049e-06 1 0 0
288 2 37 0 0 1 2 8 1.20678e-07 1 0 0
289 2 38 0 0 1 2 8 1.19001e-07 1 0 0
338 2 37 1 0 1 2 8 2.8827e-06 1 0 0
339 2 38 1 0 1 2 8 2.83936e-06 1 0 0
290 2 39 0 0 1 2 8 1.17145e-07 1 0 0
340 2 39 1 0 1 2 8 2.7842e-06 1 0 0
291 2 40 0 0 1 2 8 1.15913e-07 1 0 0
292 2 41 0 0 1 2 8 1.14272e-07 1 0 0
341 2 40 1 0 1 2 8 2.76379e-06 1 0 0
342 2 41 1 0 1 2 8 2.72778e-06 1 0 0
293 2 42 0 0 1 2 8 1.12099e-07 1 0 0
294 2 43 0 0 1 2 8 1.11282e-07 1 0 0
343 2 42 1 0 1 2 8 2.68734e-06 1 0 0
344 2 43 1 0 1 2 8 2.65946e-06 1 0 0
295 2 44 0 0 1 2 8 1.15977e-07 1 0 0
345 2 44 1 0 1 2 8 2.78348e-06 1 0 0
296 2 45 0 0 1 2 8 1.24786e-07 1 0 0
297 2 46 0 0 1 2 8 1.28824e-07 1 0 0
346 2 45 1 0 1 2 8 3.02368e-06 1 0 0
347 2 46 1 0 1 2 8 3.12757e-06 1 0 0
298 2 47 0 0 1 2 8 1.24004e-07 1 0 0
299 2 48 0 0 1 2 8 1.17006e-07 1 0 0
348 2 47 1 0 1 2 8 2.97511e-06 1 0 0
349 2 48 1 0 1 2 8 2.80275e-06 1 0 0
300 2 49 0 0 1 2 8 1.124e-07 1 0 0
350 2 49 1 0 1 2 8 2.70441e-06 1 0 0
351 2 0 2 0 1 2 8 3.10105e-09 1 0 0
352 2 1 2 0 1 2 8 2.31187e-08 1 0 0
401 2 0 3 0 1 2 8 1.53703e-08 1 0 0
402 2 1 3 0 1 2 8 1.34556e-07 1 0 0
353 2 2 2 0 1 2 8 2.53639e-07 1 0 0
354 2 3 2 0 1 2 8 2.00537e-06 1 0 0
403 2 2 3 0 1 2 8 1.93303e-06 1 0 0
404 2 3 3 0 1 2 8 1.95578e-05 1 0 0
355 2 4 2 0 1 2 8 8.93167e-06 1 0 0
405 2 4 3 0 1 2 8 0.000114888 1 0 0
356 2 5 2 0 1 2 8 2.20713e-05 1 0 0
357 2 6 2 0 1 2 8 3.46372e-05 1 0 0
406 2 5 3 0 1 2 8 0.000345913 1 0 0
407 2 6 3 0 1 2 8 0.000556736 1 0 0
358 2 7 2 0 1 2 8 4.35134e-05 1 0 0
359 2 8 2 0 1 2 8 4.837e-05 1 0 0
408 2 7 3 0 1 2 8 0.000746961 1 0 0
409 2 8 3 0 1 2 8 0.000878629 1 0 0
360 2 9 2 0 1 2 8 4.94407e-05 1 0 0
410 2 9 3 0 1 2 8 0.000887597 1 0 0
361 2 10 2 0 1 2 8 5.0328e-05 1 0 0
362 2 11 2 0 1 2 8 5.05201e-05 1 0 0
411 2 10 3 0 1 2 8 0.000904011 1 0 0
412 2 11 3 0 1 2 8 0.000948059 1 0 0
363 2 12 2 0 1 2 8 4.81956e-05 1 0 0
364 2 13 2 0 1 2 8 5.03656e-05 1 0 0
413 2 12 3 0 1 2 8 0.00079794 1 0 0
414 2 13 3 0 1 2 8 0.000859701 1 0 0
365 2 14 2 0 1 2 8 5.58631e-05 1 0 0
415 2 14 3 0 1 2 8 0.00104879 1 0 0
366 2 15 2 0 1 2 8 5.8059e-05 1 0 0
367 2 16 2 0 1 2 8 5.62564e-05 1 0 0
416 2 15 3 0 1 2 8 0.00108697 1 0 0
417 2 16 3 0 1 2 8 0.00103623 1 0 0
368 2 17 2 0 1 2 8 5.53259e-05 1 0 0
369 2 18 2 0 1 2 8 5.63454e-05 1 0 0
418 2 17 3 0 1 2 8 0.00102688 1 0 0
419 2 18 3 0 1 2 8 0.00104491 1 0 0
370 2 19 2 0 1 2 8 5.82485e-05 1 0 0
420 2 19 3 0 1 2 8 0.00108516 1 0 0
371 2 20 2 0 1 2 8 5.80703e-05 1 0 0
372 2 21 2 0 1 2 8 5.456e-05 1 0 0
421 2 20 3 0 1 2 8 0.00108364 1 0 0
422 2 21 3 0 1 2 8 0.00100924 1 0 0
373 2 22 2 0 1 2 8 5.07513e-05 1 0 0
374 2 23 2 0 1 2 8 4.93211e-05 1 0 0
423 2 22 3 0 1 2 8 0.000926618 1 0 0
424 2 23 3 0 1 2 8 0.000883521 1 0 0
375 2 24 2 0 1 2 8 4.90854e-05 1 0 0
425 2 24 3 0 1 2 9 0.000839367 1 0 0
376 2 25 2 0 1 2 8 4.90069e-05 1 0 0
377 2 26 2 0 1 2 8 4.94713e-05 1 0 0
426 2 25 3 0 1 2 9 0.000857861 1 0 0
427 2 26 3 0 1 2 8 0.000903162 1 0 0
378 2 27 2 0 1 2 8 5.06933e-05 1 0 0
379 2 28 2 0 1 2 8 5.15356e-05 1 0 0
428 2 27 3 0 1 2 8 0.000935736 1 0 0
429 2 28 3 0 1 2 8 0.000957579 1 0 0
380 2 29 2 0 1 2 8 5.24366e-05 1 0 0
430 2 29 3 0 1 2 8 0.000962466 1 0 0
381 2 30 2 0 1 2 8 5.57893e-05 1 0 0
382 2 31 2 0 1 2 8 5.93313e-05 1 0 0
431 2 30 3 0 1 2 8 0.00104997 1 0 0
432 2 31 3 0 1 2 8 0.00110352 1 0 0
383 2 32 2 0 1 2 8 6.11803e-05 1 0 0
384 2 33 2 0 1 2 8 5.89793e-05 1 0 0
433 2 32 3 0 1 2 8 0.00113273 1 0 0
434 2 33 3 0 1 2 8 0.00108702 1 0 0
385 2 34 2 0 1 2 8 5.51051e-05 1 0 0
435 2 34 3 0 1 2 8 0.000989551 1 0 0
386 2 35 2 0 1 2 8 5.49177e-05 1 0 0
387 2 36 2 0 1 2 8 5.62733e-05 1 0 0
436 2 35 3 0 1 2 8 0.00100175 1 0 0
437 2 36 3 0 1 2 8 0.00105818 1 0 0
388 2 37 2 0 1 2 8 5.58222e-05 1 0 0
389 2 38 2 0 1 2 8 5.4706e-05 1 0 0
438 2 37 3 0 1 2 8 0.00103892 1 0 0
439 2 38 3 0 1 2 8 0.00102693 1 0 0
390 2 39 2 0 1 2 8 5.3414e-05 1 0 0
440 2 39 3 0 1 2 8 0.00100473 1 0 0
391 2 40 2 0 1 2 8 5.28799e-05 1 0 0
392 2 41 2 0 1 2 8 5.23889e-05 1 0 0
441 2 40 3 0 1 2 8 0.00100231 1 0 0
442 2 41 3 0 1 2 8 0.000979481 1 0 0
393 2 42 2 0 1 2 8 5.18998e-05 1 0 0
394 2 43 2 0 1 2 8 5.13831e-05 1 0 0
443 2 42 3 0 1 2 8 0.000973216 1 0 0
444 2 43 3 0 1 2 8 0.000947899 1 0 0
395 2 44 2 0 1 2 8 5.3699e-05 1 0 0
445 2 44 3 0 1 2 8 0.00100099 1 0 0
396 2 45 2 0 1 2 8 5.83907e-05 1 0 0
397 2 46 2 0 1 2 8 6.04093e-05 1 0 0
446 2 45 3 0 1 2 8 0.00109809 1 0 0
447 2 46 3 0 1 2 8 0.00113448 1 0 0
398 2 47 2 0 1 2 8 5.75651e-05 1 0 0
399 2 48 2 0 1 2 8 5.43274e-05 1 0 0
448 2 47 3 0 1 2 8 0.00105922 1 0 0
449 2 48 3 0 1 2 8 0.00100539 1 0 0
400 2 49 2 0 1 2 8 5.25764e-05 1 0 0
450 2 49 3 0 1 2 8 0.000973169 1 0 0
451 2 0 4 0 1 2 8 4.93436e-08 1 0 0
452 2 1 4 0 1 2 8 4.9407e-07 1 0 0
453 2 2 4 0 1 2 8 8.46355e-06 1 0 0
454 2 3 4 0 1 2 8 0.000109971 1 0 0
455 2 4 4 0 1 2 7 0.00108072 1 0 0
456 2 5 4 0 1 2 6 0.00380113 1 0 0
457 2 6 4 0 1 2 5 0.00614661 1 0 0
458 2 7 4 0 1 2 5 0.00799581 1 0 0
459 2 8 4 0 1 2 5 0.00981869 1 0 0
508 1 7.53861 4.84325 0 1.03193 2 1 0.0585122 1 0.00668358 -0.000189441
460 2 9 4 0 1 2 5 0.0103065 1 0 0
510 1 8.53699 4.8784 0 1.01036 2 1 0.0698071 0.999944 -0.0101588 -0.000146343
461 2 10 4 0 1 2 5 0.0104833 1 0 0
462 2 11 4 0 1 2 5 0.010278 1 0 0
512 1 10.6193 5.08075 0 1.01573 2 0 0.0858689 0.99867 -0.000340057 -0.000144525
513 1 11.6183 5.03994 0 1.01534 2 0 0.0961263 0.985927 -0.000132771 -0.000675109
463 2 12 4 0 1 2 6 0.00960723 0.999949 0 0
464 2 13 4 0 1 2 5 0.0102418 0.999771 0 0
465 2 14 4 0 1 2 5 0.0112726 0.999993 0 0
515 1 13.4982 4.86531 0 1.02031 2 1 0.0863189 0.977194 0.00467599 -0.00329813
516 1 14.4987 4.93409 0 1.0096 2 1 0.0851254 0.998438 0.000363635 0.000157175
466 2 15 4 0 1 2 5 0.0114637 1 0 0
467 2 16 4 0 1 2 5 0.011021 1 0 0
517 1 15.5033 4.90742 0 1.02614 2 1 0.081445 0.999906 6.79456e-05 0.000495429
518 1 16.5047 4.86664 0 1.02515 2 2 0.0770341 0.999935 -0.00143722 -0.000670794
468 2 17 4 0 1 2 5 0.011073 1 0 0
469 2 18 4 0 1 2 5 0.0113635 1 0 0
519 1 17.5581 4.88966 0 1.0239 2 1 0.0801409 0.999831 0.00154369 0.000901407
470 2 19 4 0 1 2 6 0.0118505 1 0 0
520 1 18.5597 4.91133 0 1.00577 2 0 0.081517 0.99759 -0.0124031 6.05983e-05
521 1 19.5535 4.89535 0 1.00453 2 1 0.0832218 0.993651 0.00873139 -0.00413108
471 2 20 4 0 1 2 5 0.0118643 1 0 0
472 2 21 4 0 1 2 6 0.0111219 1 0 0
522 1 20.5491 4.94456 0 1.0139 2 0 0.0839424 0.995672 -0.00207615 0.000184305
523 1 21.5447 4.92443 0 1.02268 2 1 0.0763663 0.999699 -0.000987565 0.000370527
473 2 22 4 0 1 2 5 0.0104098 1 0 0
474 2 23 4 0 1 2 5 0.0100979 0.999995 0 0
524 1 22.5397 4.91481 0 1.01383 2 1 0.0783833 0.996754 -0.00164876 0.000723083
475 2 24 4 0 1 2 5 0.0100724 0.999925 0 0
476 2 25 4 0 1 2 5 0.0100358 0.999823 0 0
477 2 26 4 0 1 2 5 0.0101575 0.999493 0 0
528 1 26.4982 4.86117 0 1.04147 2 0 0.0749468 0.946304 -0.000861786 0.00892964
478 2 27 4 0 1 2 5 0.0106774 0.999859 0 0
479 2 28 4 0 1 2 5 0.0107877 1 0 0
480 2 29 4 0 1 2 5 0.0107142 1 0 0
531 1 29.496 4.86314 0 1.01679 2 1 0.0784142 0.999275 0.00825135 0.000973254
481 2 30 4 0 1 2 5 0.0112806 1 0 0
482 2 31 4 0 1 2 5 0.0119141 1 0 0
532 1 30.4946 4.86174 0 1.0182 2 1 0.0819581 0.996922 -0.00219332 -0.00782857
533 1 31.4901 4.86611 0 1.004 2 0 0.0892454 0.992155 0.00204052 -0.00372011
483 2 32 4 0 1 2 5 0.0123278 0.999999 0 0
484 2 33 4 0 1 2 5 0.0119615 0.999998 0 0
534 1 32.4862 4.86879 0 1.00171 2 0 0.0932089 0.989632 0.00513687 0.00117965
485 2 34 4 0 1 2 5 0.0111397 1 0 0
535 1 33.484 4.86772 0 1.00275 2 0 0.0911748 0.992528 0.00731631 0.00395015
486 2 35 4 0 1 2 5 0.0112552 1 0 0
487 2 36 4 0 1 2 5 0.0116968 1 0 0
537 1 35.4906 4.87196 0 1.0067 2 1 0.0878783 0.998704 -0.0169623 -0.00570823
538 1 36.4831 4.86733 0 1.01227 2 0 0.0873166 0.996829 0.00956364 0.00255471
488 2 37 4 0 1 2 5 0.01172 1 0 0
489 2 38 4 0 1 2 5 0.0114678 0.999999 0 0
539 1 37.4791 4.86977 0 1.00174 2 0 0.0899707 0.991687 0.0038486 -0.00785556
490 2 39 4 0 1 2 5 0.0112027 0.999999 0 0
541 1 39.4912 4.86504 0 1.00168 2 1 0.0934208 0.993225 -0.00311637 0.000877656
491 2 40 4 0 1 2 5 0.0110055 1 0 0
492 2 41 4 0 1 2 5 0.0106165 0.999669 0 0
542 1 40.502 4.86527 0 1.01016 2 1 0.0884658 0.990866 0.0047434 0.000655411
543 1 41.5021 4.85887 0 1.03252 2 1 0.08064 0.922627 -0.00416862 0.00104281
493 2 42 4 0 1 2 5 0.0104386 0.998053 0 0
494 2 43 4 0 1 2 5 0.0101726 0.997767 0 0
544 1 42.5006 4.86107 0 1.0319 2 0 0.07694 0.852284 -0.00886417 -0.00125376
495 2 44 4 0 1 2 5 0.0107049 0.999369 0 0
545 1 43.4954 4.86246 0 1.03659 2 0 0.0772496 0.901035 0.0108836 -0.00252311
546 1 44.4914 4.85175 0 1.01001 2 1 0.0800843 0.980821 -0.00328312 0.0109116
496 2 45 4 0 1 2 5 0.0118024 0.999999 0 0
497 2 46 4 0 1 2 5 0.0122489 1 0 0
547 1 45.4996 4.86353 0 1.00173 2 1 0.0812981 0.993452 0.00422158 -0.00469744
548 1 46.4985 4.86542 0 1.00807 2 1 0.082413 0.99726 -0.000657935 -0.0025023
498 2 47 4 0 1 2 5 0.0116178 1 0 0
499 2 48 4 0 1 2 5 0.0108663 0.999601 0 0
549 1 47.5027 4.86138 0 1.02093 2 2 0.0768609 0.988161 0.000650838 0.000524171
500 2 49 4 0 1 2 5 0.0104865 0.998797 0 0
550 1 48.5007 4.85895 0 1.02225 2 1 0.0713801 0.925934 0.00334121 0.00154554
8501 1 49.4978 4.8609 0 1.06187 2 0 0.0683278 0.877123 0.0062097 -0.00260548
501 2 0 5 0 1 2 8 1.04873e-07 1 0 0
502 2 1 5 0 1 2 8 1.15294e-06 1 0 0
551 2 0 6 0 1 2 8 1.61009e-07 1 0 0
552 2 1 6 0 1 2 8 1.85774e-06 1 0 0
503 2 2 5 0 1 2 8 2.11796e-05 1 0 0
504 2 3 5 0 1 2 8 0.000330486 1 0 0
553 2 2 6 0 1 2 8 3.46316e-05 1 0 0
554 2 3 6 0 1 2 8 0.000560686 1 0 0
506 1 5.03226 4.99312 0 1.0006 2 0 0.0292401 1 -0.000463758 0.0110928
505 2 4 5 0 1 2 6 0.00372444 1 0 0
555 2 4 6 0 1 2 5 0.0062652 1 0 0
556 1 4.8665 6.51236 0 1.02426 2 0 0.058542 1 0.00253078 0.00134783
507 1 6.5424 4.95119 0 1.02569 2 0 0.0554717 1 0 -5e-05
557 1 5.58584 5.82497 0 1.00456 2 0 0.0800597 1 -0.0144877 -0.018676
509 1 7.87501 5.78256 0 1.00999 2 0 0.138372 0.981615 0.0015029 0.00316372
511 1 9.53222 4.87621 0 1.00136 2 0 0.0726462 0.999447 -0.000161675 0.00050392
561 1 9.83134 5.82423 0 1.04128 2 2 0.15988 0.892583 -0.00335603 -0.00148591
562 1 10.9306 6.3973 0 1.02468 2 1 0.231569 0.653206 -0.00172976 -0.00228378
514 1 12.6482 5.38717 0 1.01802 2 3 0.148002 0.822795 -0.00285189 0.00150629
563 1 11.9249 6.38358 0 1.00884 2 1 0.232305 0.539126 0.000432292 0.000882195
565 1 13.7845 6.21578 0 1.01555 2 2 0.22766 0.57113 -0.000220233 2.62225e-05
566 1 14.8014 6.07708 0 1.01485 2 2 0.218796 0.857239 0.00157435 -0.00109018
567 1 15.6722 6.3001 0 1.00349 2 7 0.242043 0.705273 0.00028072 0.000174704
568 1 16.6224 6.25673 0 1.02492 2 2 0.236897 0.718448 0.000180122 7.48901e-05
569 1 17.623 6.03359 0 1.01386 2 2 0.21134 0.838174 -0.000514885 -0.00273658
570 1 18.6122 6.16788 0 1.00562 2 1 0.215993 0.623594 0.000137729 -0.000863484
571 1 19.7723 5.87689 0 1.00943 2 2 0.18969 0.740486 -0.00069683 0.000618608
572 1 20.8502 6.04615 0 1.02492 2 3 0.203692 0.733534 -0.000547089 -4.13674e-05
573 1 22.051 6.33371 0 1.00977 2 2 0.236414 0.703189 0.000250212 -0.00221625
574 1 22.8769 6.27864 0 1.00488 2 4 0.247404 0.54621 -0.000476119 -0.00166121
525 1 23.5274 5.0248 0 1.03669 2 2 0.0905818 0.947973 -0.00131734 6.27532e-05
526 1 24.5212 5.02818 0 1.04245 2 1 0.0890367 0.889729 -0.00331902 0.000441394
527 1 25.501 4.86577 0 1.03798 2 0 0.0715865 0.922649 0.0067368 -0.0077742
578 1 26.2161 6.40781 0 1.00918 0 0 0.27939 0.75339 -0.000220883 -0.00119308
529 1 27.4929 4.89557 0 1.0019 2 0 0.0859319 0.991619 0.00973899 7.60376e-05
579 1 27.347 5.97319 0 1.01129 2 1 0.220552 0.644023 -0.00287614 -0.00208457
530 1 28.4914 4.96103 0 1.02091 2 0 0.0875155 0.998764 6.01384e-06 -0.00022881
581 1 29.4937 6.13265 0 1.01861 2 2 0.227109 0.638024 0.00157782 -0.00535966
582 1 30.7518 5.8196 0 1.0143 2 0 0.17919 0.765731 0.00233581 0.00866033
583 1 31.805 5.80879 0 1.0088 2 0 0.18243 0.722427 0.0015857 0.00348575
584 1 32.9076 5.77204 0 1.00514 2 0 0.183409 0.744368 0.000288985 -0.00181297
585 1 33.9279 5.75939 0 1.02197 2 0 0.176418 0.810983 0.00250275 -0.00437919
536 1 34.4866 4.87142 0 1.0237 2 0 0.092223 0.997587 -0.00614075 -0.0134732
586 1 34.929 5.75744 0 1.02669 2 0 0.190099 0.861168 0.00760384 0.00564242
587 1 35.9167 6.02933 0 1.01702 2 1 0.212973 0.701474 -0.00295345 -0.00742226
588 1 36.8879 5.77607 0 1.01798 2 0 0.183167 0.788688 -0.00233085 -0.00371118
589 1 37.9697 5.72877 0 1.01656 2 0 0.177333 0.757509 0.000334542 0.00271137
540 1 38.4845 4.86062 0 1.01715 2 0 0.0937985 0.98967 0.00184694 0.00112949
590 1 38.9644 5.72594 0 1.01208 2 1 0.176337 0.76784 0.00136879 0.000544293
591 1 40.001 5.72531 0 1.01334 2 1 0.176272 0.837082 0.000218966 0.0016439
592 1 40.948 6.15409 0 1.02633 2 5 0.243379 0.413807 0.00174431 -0.00177161
593 1 41.8611 6.28798 0 1.02437 0 0 0.276224 0.648639 0.000764358 0.00117567
594 1 42.6205 6.24984 0 1.02333 0 0 0.278502 0.821775 0.000127929 0.00162072
595 1 43.3625 6.28611 0 1.03327 0 0 0.273473 0.698937 -0.000258152 0.00142366
596 1 44.3459 5.83574 0 1.01116 2 1 0.198179 0.562956 0.000528203 -0.00494019
597 1 45.6704 5.84604 0 1.01212 2 2 0.18324 0.70939 0.00392807 0.00513099
598 1 46.767 6.02726 0 1.00861 2 3 0.208266 0.722695 0.00206769 0.00204561
599 1 47.8007 6.18061 0 1.02545 2 4 0.242145 0.442579 -8.53498e-05 0.000313211
600 1 48.7287 6.31042 0 1.01562 0 0 0.2763 0.632996 -0.000361616 0.00156763
8551 1 49.4376 6.56115 0 1.01446 0 0 0.29712 0.913623 -0.000676831 0.00105834
601 2 0 7 0 1 2 8 2.03021e-07 1 0 0
602 2 1 7 0 1 2 8 2.39613e-06 1 0 0
651 2 0 8 0 1 2 8 2.27187e-07 1 0 0
652 2 1 8 0 1 2 8 2.63904e-06 1 0 0
603 2 2 7 0 1 2 8 4.50265e-05 1 0 0
604 2 3 7 0 1 2 8 0.000772719 1 0 0
653 2 2 8 0 1 2 8 5.01622e-05 1 0 0
654 2 3 8 0 1 2 8 0.000919658 1 0 0
605 2 4 7 0 1 2 5 0.00833356 1 0 0
606 1 4.8965 7.53346 0 1.01839 2 0 0.066564 0.999556 -7.50508e-05 -8.41218e-05
655 2 4 8 0 1 2 5 0.00979275 1 0 0
607 1 5.89344 7.40589 0 1.01626 2 3 0.142549 0.950188 0.00522178 0.00189041
558 1 6.4397 6.31992 0 1.00032 2 3 0.150548 0.984312 0.00632607 -0.00183209
559 1 7.91662 6.79834 0 1.01669 2 2 0.221476 0.586373 -0.00607842 -0.00447676
608 1 6.79105 7.25605 0 1.01581 2 4 0.20801 0.698329 -0.000486134 -0.00324633
609 1 7.70644 7.74777 0 1.01701 0 0 0.279128 0.581665 0.00160326 -0.0004456
560 1 8.82038 6.13353 0 1.01571 2 1 0.19656 0.822642 -0.00172448 -0.00281211
610 1 8.8899 7.50423 0 1.01031 0 0 0.3017 0.781785 -5.73641e-05 -0.00147197
611 1 9.75597 7.26403 0 1.00136 0 0 0.307426 0.793587 0.00137344 -0.00104706
612 1 10.6277 7.55328 0 0.998715 0 0 0.327984 0.845372 0.00222772 -0.000805573
564 1 12.8469 6.49091 0 1.01039 0 0 0.251034 0.262376 0.000704563 -0.000324401
613 1 11.877 7.76686 0 1.00227 0 0 0.342347 0.898044 0.00133347 -0.000548049
614 1 12.8754 7.71991 0 1.00411 0 0 0.345942 0.948829 0.000126 -0.00048856
615 1 13.8064 7.65046 0 1.00088 0 0 0.34698 0.922999 2.27735e-05 -0.000364472
616 1 14.8412 7.55648 0 1.00031 0 0 0.344756 0.870674 -1.03683e-05 -0.000487423
665 1 13.8574 8.42581 0 1.00264 0 0 0.375675 0.998185 -0.000246994 -0.000541361
617 1 15.7031 7.49541 0 1.00261 0 0 0.340464 0.822133 8.33526e-06 -0.000448491
666 1 14.8286 8.38961 0 1.00265 0 0 0.376839 0.997475 -0.000251146 -0.000473973
667 1 15.8193 8.42467 0 1.00356 0 0 0.378817 0.996214 -0.000220905 -0.000458677
618 1 16.5662 7.48925 0 1.00428 0 0 0.342265 0.825745 0.00013507 -0.000425338
619 1 17.5891 7.50499 0 1.00395 0 0 0.347619 0.869648 0.000144014 -0.000838668
668 1 16.8409 8.3297 0 1.00412 0 0 0.378359 0.995199 -4.95435e-05 -0.000448654
669 1 17.9121 8.2254 0 1.00455 0 0 0.377764 0.995196 0.000138725 -0.000723921
620 1 18.7272 7.1805 0 1.00421 0 0 0.320903 0.732999 -0.000226401 -0.000515291
670 1 18.9002 8.09934 0 1.00476 0 0 0.372939 0.991191 0.000239454 -0.000804298
671 1 19.8433 8.03737 0 1.00353 0 0 0.371193 0.993932 0.00032092 -0.000989701
621 1 19.7511 6.91082 0 1.00114 0 0 0.297212 0.622164 -0.000255302 -0.000708036
622 1 20.7894 7.29547 0 1.00077 0 0 0.333389 0.806639 0.000140652 -0.00116925
672 1 20.7981 8.18906 0 1.00308 0 0 0.379127 0.995403 0.000289424 -0.00120118
623 1 21.9 7.63953 0 1.00275 0 0 0.35733 0.86537 -9.4805e-05 -0.00156444
624 1 22.9939 7.52833 0 1.00304 0 0 0.350748 0.846814 -0.000937027 -0.00138041
673 1 21.8326 8.41421 0 1.00373 0 0 0.387984 0.995621 -5.25454e-05 -0.00113567
575 1 23.8731 6.61665 0 1.00177 0 0 0.297452 0.721231 -0.000889507 -0.00143888
576 1 24.7166 6.58744 0 1.00347 0 0 0.300081 0.920488 -0.000907583 -0.00115942
625 1 23.8995 7.67025 0 1.00355 0 0 0.35863 0.977717 -0.00125187 -0.00069382
626 1 24.8548 7.65933 0 1.00462 0 0 0.35788 0.999537 -0.000830443 -0.000466892
577 1 25.4882 6.52417 0 1.00576 0 0 0.294737 0.927631 -0.000618996 -0.00116076
627 1 25.7885 7.62964 0 1.00508 0 0 0.35666 0.998771 -0.000592758 -0.000630021
628 1 26.6523 7.51777 0 1.00399 0 0 0.351383 0.974032 -0.00065283 -0.000881672
629 1 27.6537 7.28931 0 1.00155 0 0 0.33906 0.85109 -0.00107948 -0.000784536
679 1 27.9408 8.10554 0 1.00427 0 0 0.377174 0.994921 -0.000554995 -0.000508694
580 1 28.4006 6.04711 0 1.02117 2 3 0.220065 0.751993 0.000208245 -0.000114366
630 1 28.642 7.30042 0 1.00523 0 0 0.340573 0.826986 -0.000560654 -0.000463958
631 1 29.7029 7.2738 0 1.00515 0 0 0.341247 0.827848 -0.000392701 -0.000310522
632 1 30.8194 7.01722 0 1.00464 0 0 0.322133 0.777212 -0.000142974 0.00107577
681 1 29.9992 8.0554 0 1.00446 0 0 0.378617 0.992978 -0.000135737 -0.000254874
682 1 30.9872 7.89372 0 1.00439 0 0 0.373156 0.993583 -0.000445589 -0.000639089
633 1 31.8672 6.82699 0 1.00841 0 0 0.302347 0.688076 -0.000134312 0.00106345
634 1 33.0302 6.8002 0 1.01232 0 0 0.305865 0.67202 0.000441341 0.00102544
683 1 31.9568 7.77793 0 1.00582 0 0 0.368606 0.989937 -0.000645316 -0.000329936
684 1 32.8801 7.79103 0 1.0071 0 0 0.372422 0.99159 -0.000552258 2.55037e-05