ITEM: TIMESTEP
15500
ITEM: NUMBER OF ATOMS
15950
ITEM: BOX BOUNDS pp pp pp
0.0000000000000000e+00 1.0000000000000000e+02
-5.0000000000000000e+00 2.0000000000000000e+02
-5.0000000000000000e-01 5.0000000000000000e-01
ITEM: ATOMS id type x y z c_rho c_phase c_nbond c_temp f_rheo_chi_chi fx fy
1 2 0 -5 0 1 2 8 2.40086e-11 1 0 0
2 2 1 -5 0 1 2 8 3.86377e-11 1 0 0
51 2 0 -4 0 1 2 8 1.90562e-10 1 0 0
52 2 1 -4 0 1 2 8 3.20151e-10 1 0 0
3 2 2 -5 0 1 2 8 8.96585e-11 1 0 0
4 2 3 -5 0 1 2 8 1.91926e-10 1 0 0
53 2 2 -4 0 1 2 8 7.84763e-10 1 0 0
54 2 3 -4 0 1 2 8 1.74594e-09 1 0 0
5 2 4 -5 0 1 2 7 3.59847e-10 1 0 0
55 2 4 -4 0 1 2 8 3.32357e-09 1 0 0
6 2 5 -5 0 1 2 6 5.98279e-10 1 0 0
7 2 6 -5 0 1 2 5 8.60642e-10 1 0 0
56 2 5 -4 0 1 2 8 5.44967e-09 1 0 0
57 2 6 -4 0 1 2 8 7.81922e-09 1 0 0
8 2 7 -5 0 1 2 5 1.09997e-09 1 0 0
9 2 8 -5 0 1 2 5 1.29325e-09 1 0 0
58 2 7 -4 0 1 2 8 1.00508e-08 1 0 0
59 2 8 -4 0 1 2 8 1.18584e-08 1 0 0
10 2 9 -5 0 1 2 5 1.42992e-09 1 0 0
60 2 9 -4 0 1 2 8 1.31347e-08 1 0 0
11 2 10 -5 0 1 2 5 1.51691e-09 1 0 0
12 2 11 -5 0 1 2 5 1.57299e-09 1 0 0
61 2 10 -4 0 1 2 8 1.39438e-08 1 0 0
62 2 11 -4 0 1 2 8 1.44616e-08 1 0 0
13 2 12 -5 0 1 2 5 1.61998e-09 1 0 0
14 2 13 -5 0 1 2 5 1.67081e-09 1 0 0
63 2 12 -4 0 1 2 8 1.48993e-08 1 0 0
64 2 13 -4 0 1 2 8 1.53847e-08 1 0 0
15 2 14 -5 0 1 2 5 1.72162e-09 1 0 0
65 2 14 -4 0 1 2 8 1.58706e-08 1 0 0
16 2 15 -5 0 1 2 5 1.76007e-09 1 0 0
17 2 16 -5 0 1 2 5 1.78205e-09 1 0 0
66 2 15 -4 0 1 2 8 1.62233e-08 1 0 0
67 2 16 -4 0 1 2 8 1.64079e-08 1 0 0
18 2 17 -5 0 1 2 5 1.79482e-09 1 0 0
19 2 18 -5 0 1 2 5 1.80427e-09 1 0 0
68 2 17 -4 0 1 2 8 1.65163e-08 1 0 0
69 2 18 -4 0 1 2 8 1.66178e-08 1 0 0
20 2 19 -5 0 1 2 5 1.80514e-09 1 0 0
70 2 19 -4 0 1 2 8 1.66542e-08 1 0 0
21 2 20 -5 0 1 2 5 1.78628e-09 1 0 0
22 2 21 -5 0 1 2 5 1.74347e-09 1 0 0
71 2 20 -4 0 1 2 8 1.65014e-08 1 0 0
72 2 21 -4 0 1 2 8 1.61074e-08 1 0 0
23 2 22 -5 0 1 2 5 1.68562e-09 1 0 0
24 2 23 -5 0 1 2 5 1.63044e-09 1 0 0
73 2 22 -4 0 1 2 8 1.55559e-08 1 0 0
74 2 23 -4 0 1 2 8 1.50193e-08 1 0 0
25 2 24 -5 0 1 2 5 1.5958e-09 1 0 0
75 2 24 -4 0 1 2 8 1.46773e-08 1 0 0
26 2 25 -5 0 1 2 5 1.59245e-09 1 0 0
27 2 26 -5 0 1 2 5 1.61931e-09 1 0 0
76 2 25 -4 0 1 2 8 1.46453e-08 1 0 0
77 2 26 -4 0 1 2 8 1.49156e-08 1 0 0
28 2 27 -5 0 1 2 5 1.66523e-09 1 0 0
29 2 28 -5 0 1 2 5 1.71782e-09 1 0 0
78 2 27 -4 0 1 2 8 1.53664e-08 1 0 0
79 2 28 -4 0 1 2 8 1.58624e-08 1 0 0
30 2 29 -5 0 1 2 5 1.77069e-09 1 0 0
80 2 29 -4 0 1 2 8 1.63447e-08 1 0 0
31 2 30 -5 0 1 2 5 1.82085e-09 1 0 0
32 2 31 -5 0 1 2 5 1.86146e-09 1 0 0
81 2 30 -4 0 1 2 8 1.68023e-08 1 0 0
82 2 31 -4 0 1 2 8 1.71801e-08 1 0 0
33 2 32 -5 0 1 2 5 1.88246e-09 1 0 0
34 2 33 -5 0 1 2 5 1.88042e-09 1 0 0
83 2 32 -4 0 1 2 8 1.73757e-08 1 0 0
84 2 33 -4 0 1 2 8 1.73474e-08 1 0 0
35 2 34 -5 0 1 2 5 1.86416e-09 1 0 0
85 2 34 -4 0 1 2 8 1.71837e-08 1 0 0
36 2 35 -5 0 1 2 5 1.84709e-09 1 0 0
37 2 36 -5 0 1 2 5 1.83501e-09 1 0 0
86 2 35 -4 0 1 2 8 1.70235e-08 1 0 0
87 2 36 -4 0 1 2 8 1.69231e-08 1 0 0
38 2 37 -5 0 1 2 5 1.82367e-09 1 0 0
39 2 38 -5 0 1 2 5 1.80581e-09 1 0 0
88 2 37 -4 0 1 2 8 1.68329e-08 1 0 0
89 2 38 -4 0 1 2 8 1.66742e-08 1 0 0
40 2 39 -5 0 1 2 5 1.77806e-09 1 0 0
90 2 39 -4 0 1 2 8 1.64091e-08 1 0 0
41 2 40 -5 0 1 2 5 1.74364e-09 1 0 0
42 2 41 -5 0 1 2 5 1.71254e-09 1 0 0
91 2 40 -4 0 1 2 8 1.60653e-08 1 0 0
92 2 41 -4 0 1 2 8 1.5742e-08 1 0 0
43 2 42 -5 0 1 2 5 1.69864e-09 1 0 0
44 2 43 -5 0 1 2 5 1.71179e-09 1 0 0
93 2 42 -4 0 1 2 8 1.55854e-08 1 0 0
94 2 43 -4 0 1 2 8 1.57054e-08 1 0 0
45 2 44 -5 0 1 2 5 1.74789e-09 1 0 0
95 2 44 -4 0 1 2 8 1.60675e-08 1 0 0
46 2 45 -5 0 1 2 5 1.78677e-09 1 0 0
47 2 46 -5 0 1 2 5 1.80449e-09 1 0 0
96 2 45 -4 0 1 2 8 1.64647e-08 1 0 0
97 2 46 -4 0 1 2 8 1.66472e-08 1 0 0
48 2 47 -5 0 1 2 5 1.79144e-09 1 0 0
49 2 48 -5 0 1 2 5 1.75908e-09 1 0 0
98 2 47 -4 0 1 2 8 1.65162e-08 1 0 0
99 2 48 -4 0 1 2 8 1.61927e-08 1 0 0
50 2 49 -5 0 1 2 5 1.72972e-09 1 0 0
100 2 49 -4 0 1 2 8 1.59071e-08 1 0 0
101 2 0 -3 0 1 2 8 1.37185e-09 1 0 0
102 2 1 -3 0 1 2 8 2.42075e-09 1 0 0
151 2 0 -2 0 1 2 8 8.83553e-09 1 0 0
152 2 1 -2 0 1 2 8 1.6486e-08 1 0 0
103 2 2 -3 0 1 2 8 6.30774e-09 1 0 0
104 2 3 -3 0 1 2 8 1.46782e-08 1 0 0
153 2 2 -2 0 1 2 8 4.59816e-08 1 0 0
154 2 3 -2 0 1 2 8 1.1261e-07 1 0 0
105 2 4 -3 0 1 2 8 2.88442e-08 1 0 0
155 2 4 -2 0 1 2 8 2.29701e-07 1 0 0
106 2 5 -3 0 1 2 8 4.8231e-08 1 0 0
107 2 6 -3 0 1 2 8 7.00476e-08 1 0 0
156 2 5 -2 0 1 2 8 3.93571e-07 1 0 0
157 2 6 -2 0 1 2 8 5.79664e-07 1 0 0
108 2 7 -3 0 1 2 8 9.06672e-08 1 0 0
109 2 8 -3 0 1 2 8 1.0736e-07 1 0 0
158 2 7 -2 0 1 2 8 7.55878e-07 1 0 0
159 2 8 -2 0 1 2 8 8.98495e-07 1 0 0
110 2 9 -3 0 1 2 8 1.19129e-07 1 0 0
160 2 9 -2 0 1 2 8 9.99105e-07 1 0 0
111 2 10 -3 0 1 2 8 1.26569e-07 1 0 0
112 2 11 -3 0 1 2 8 1.31299e-07 1 0 0
161 2 10 -2 0 1 2 8 1.06285e-06 1 0 0
162 2 11 -2 0 1 2 8 1.10325e-06 1 0 0
113 2 12 -3 0 1 2 8 1.35333e-07 1 0 0
114 2 13 -3 0 1 2 8 1.39938e-07 1 0 0
163 2 12 -2 0 1 2 8 1.13795e-06 1 0 0
164 2 13 -2 0 1 2 8 1.17872e-06 1 0 0
115 2 14 -3 0 1 2 8 1.44557e-07 1 0 0
165 2 14 -2 0 1 2 8 1.21961e-06 1 0 0
116 2 15 -3 0 1 2 8 1.47735e-07 1 0 0
117 2 16 -3 0 1 2 8 1.49198e-07 1 0 0
166 2 15 -2 0 1 2 8 1.24591e-06 1 0 0
167 2 16 -2 0 1 2 8 1.25587e-06 1 0 0
118 2 17 -3 0 1 2 8 1.5007e-07 1 0 0
119 2 18 -3 0 1 2 8 1.5115e-07 1 0 0
168 2 17 -2 0 1 2 8 1.26204e-06 1 0 0
169 2 18 -2 0 1 2 8 1.27272e-06 1 0 0
120 2 19 -3 0 1 2 8 1.51793e-07 1 0 0
170 2 19 -2 0 1 2 8 1.28126e-06 1 0 0
121 2 20 -3 0 1 2 8 1.50633e-07 1 0 0
122 2 21 -3 0 1 2 8 1.47075e-07 1 0 0
171 2 20 -2 0 1 2 8 1.27388e-06 1 0 0
172 2 21 -2 0 1 2 8 1.24448e-06 1 0 0
123 2 22 -3 0 1 2 8 1.41897e-07 1 0 0
124 2 23 -3 0 1 2 8 1.36743e-07 1 0 0
173 2 22 -2 0 1 2 8 1.19982e-06 1 0 0
174 2 23 -2 0 1 2 8 1.15415e-06 1 0 0
125 2 24 -3 0 1 2 8 1.33389e-07 1 0 0
175 2 24 -2 0 1 2 8 1.12353e-06 1 0 0
126 2 25 -3 0 1 2 8 1.33076e-07 1 0 0
127 2 26 -3 0 1 2 8 1.35778e-07 1 0 0
176 2 25 -2 0 1 2 8 1.12055e-06 1 0 0
177 2 26 -2 0 1 2 8 1.14567e-06 1 0 0
128 2 27 -3 0 1 2 8 1.40172e-07 1 0 0
129 2 28 -3 0 1 2 8 1.44781e-07 1 0 0
178 2 27 -2 0 1 2 8 1.18554e-06 1 0 0
179 2 28 -2 0 1 2 8 1.22504e-06 1 0 0
130 2 29 -3 0 1 2 8 1.49075e-07 1 0 0
180 2 29 -2 0 1 2 8 1.25977e-06 1 0 0
131 2 30 -3 0 1 2 8 1.53159e-07 1 0 0
132 2 31 -3 0 1 2 8 1.56633e-07 1 0 0
181 2 30 -2 0 1 2 8 1.29296e-06 1 0 0
182 2 31 -2 0 1 2 8 1.32242e-06 1 0 0
133 2 32 -3 0 1 2 8 1.58445e-07 1 0 0
134 2 33 -3 0 1 2 8 1.58089e-07 1 0 0
183 2 32 -2 0 1 2 8 1.33808e-06 1 0 0
184 2 33 -2 0 1 2 8 1.33422e-06 1 0 0
135 2 34 -3 0 1 2 8 1.56447e-07 1 0 0
185 2 34 -2 0 1 2 8 1.31896e-06 1 0 0
136 2 35 -3 0 1 2 8 1.54957e-07 1 0 0
137 2 36 -3 0 1 2 8 1.54163e-07 1 0 0
186 2 35 -2 0 1 2 8 1.30615e-06 1 0 0
187 2 36 -2 0 1 2 8 1.30067e-06 1 0 0
138 2 37 -3 0 1 2 8 1.53497e-07 1 0 0
139 2 38 -3 0 1 2 8 1.52129e-07 1 0 0
188 2 37 -2 0 1 2 8 1.29661e-06 1 0 0
189 2 38 -2 0 1 2 8 1.28594e-06 1 0 0
140 2 39 -3 0 1 2 8 1.49639e-07 1 0 0
190 2 39 -2 0 1 2 8 1.26445e-06 1 0 0
141 2 40 -3 0 1 2 8 1.4625e-07 1 0 0
142 2 41 -3 0 1 2 8 1.42926e-07 1 0 0
191 2 40 -2 0 1 2 8 1.23353e-06 1 0 0
192 2 41 -2 0 1 2 8 1.20182e-06 1 0 0
143 2 42 -3 0 1 2 8 1.4119e-07 1 0 0
144 2 43 -3 0 1 2 8 1.4226e-07 1 0 0
193 2 42 -2 0 1 2 8 1.18405e-06 1 0 0
194 2 43 -2 0 1 2 8 1.19268e-06 1 0 0
145 2 44 -3 0 1 2 8 1.45864e-07 1 0 0
195 2 44 -2 0 1 2 8 1.22594e-06 1 0 0
146 2 45 -3 0 1 2 8 1.49895e-07 1 0 0
147 2 46 -3 0 1 2 8 1.51757e-07 1 0 0
196 2 45 -2 0 1 2 8 1.26388e-06 1 0 0
197 2 46 -2 0 1 2 8 1.28147e-06 1 0 0
148 2 47 -3 0 1 2 8 1.50443e-07 1 0 0
149 2 48 -3 0 1 2 8 1.47228e-07 1 0 0
198 2 47 -2 0 1 2 8 1.26925e-06 1 0 0
199 2 48 -2 0 1 2 8 1.23963e-06 1 0 0
150 2 49 -3 0 1 2 8 1.4446e-07 1 0 0
200 2 49 -2 0 1 2 8 1.21473e-06 1 0 0
201 2 0 -1 0 1 2 8 5.0081e-08 1 0 0
202 2 1 -1 0 1 2 8 9.94942e-08 1 0 0
203 2 2 -1 0 1 2 8 2.99273e-07 1 0 0
204 2 3 -1 0 1 2 8 7.77057e-07 1 0 0
205 2 4 -1 0 1 2 8 1.65527e-06 1 0 0
206 2 5 -1 0 1 2 8 2.91671e-06 1 0 0
207 2 6 -1 0 1 2 8 4.36244e-06 1 0 0
208 2 7 -1 0 1 2 8 5.73302e-06 1 0 0
209 2 8 -1 0 1 2 8 6.84272e-06 1 0 0
210 2 9 -1 0 1 2 8 7.62813e-06 1 0 0
211 2 10 -1 0 1 2 8 8.13033e-06 1 0 0
212 2 11 -1 0 1 2 8 8.45009e-06 1 0 0
213 2 12 -1 0 1 2 8 8.72521e-06 1 0 0
214 2 13 -1 0 1 2 8 9.05753e-06 1 0 0
215 2 14 -1 0 1 2 8 9.39007e-06 1 0 0
216 2 15 -1 0 1 2 8 9.58649e-06 1 0 0
217 2 16 -1 0 1 2 8 9.64033e-06 1 0 0
218 2 17 -1 0 1 2 8 9.67719e-06 1 0 0
219 2 18 -1 0 1 2 8 9.77428e-06 1 0 0
220 2 19 -1 0 1 2 8 9.8681e-06 1 0 0
221 2 20 -1 0 1 2 8 9.8335e-06 1 0 0
222 2 21 -1 0 1 2 8 9.61558e-06 1 0 0
223 2 22 -1 0 1 2 8 9.26871e-06 1 0 0
224 2 23 -1 0 1 2 8 8.90228e-06 1 0 0
225 2 24 -1 0 1 2 8 8.64633e-06 1 0 0
226 2 25 -1 0 1 2 8 8.61913e-06 1 0 0
227 2 26 -1 0 1 2 8 8.833e-06 1 0 0
228 2 27 -1 0 1 2 8 9.1645e-06 1 0 0
229 2 28 -1 0 1 2 8 9.47132e-06 1 0 0
230 2 29 -1 0 1 2 8 9.72026e-06 1 0 0
231 2 30 -1 0 1 2 8 9.95995e-06 1 0 0
232 2 31 -1 0 1 2 8 1.01865e-05 1 0 0
233 2 32 -1 0 1 2 8 1.0311e-05 1 0 0
234 2 33 -1 0 1 2 8 1.02748e-05 1 0 0
235 2 34 -1 0 1 2 8 1.01454e-05 1 0 0
236 2 35 -1 0 1 2 8 1.00456e-05 1 0 0
237 2 36 -1 0 1 2 8 1.00147e-05 1 0 0
238 2 37 -1 0 1 2 8 9.99752e-06 1 0 0
239 2 38 -1 0 1 2 8 9.9245e-06 1 0 0
240 2 39 -1 0 1 2 8 9.75713e-06 1 0 0
241 2 40 -1 0 1 2 8 9.50079e-06 1 0 0
242 2 41 -1 0 1 2 8 9.22456e-06 1 0 0
243 2 42 -1 0 1 2 8 9.05904e-06 1 0 0
244 2 43 -1 0 1 2 8 9.1202e-06 1 0 0
245 2 44 -1 0 1 2 8 9.40005e-06 1 0 0
246 2 45 -1 0 1 2 8 9.72561e-06 1 0 0
247 2 46 -1 0 1 2 8 9.87671e-06 1 0 0
248 2 47 -1 0 1 2 8 9.77306e-06 1 0 0
249 2 48 -1 0 1 2 8 9.52484e-06 1 0 0
250 2 49 -1 0 1 2 8 9.3202e-06 1 0 0
251 2 0 0 0 1 2 8 2.45018e-07 1 0 0
252 2 1 0 0 1 2 8 5.21496e-07 1 0 0
301 2 0 1 0 1 2 8 1.01244e-06 1 0 0
302 2 1 1 0 1 2 8 2.31698e-06 1 0 0
253 2 2 0 0 1 2 8 1.70436e-06 1 0 0
254 2 3 0 0 1 2 8 4.73221e-06 1 0 0
303 2 2 1 0 1 2 8 8.27554e-06 1 0 0
304 2 3 1 0 1 2 8 2.47903e-05 1 0 0
255 2 4 0 0 1 2 8 1.0609e-05 1 0 0
305 2 4 1 0 1 2 8 5.90514e-05 1 0 0
256 2 5 0 0 1 2 8 1.93167e-05 1 0 0
257 2 6 0 0 1 2 8 2.93831e-05 1 0 0
306 2 5 1 0 1 2 8 0.00011186 1 0 0
307 2 6 1 0 1 2 8 0.000173352 1 0 0
258 2 7 0 0 1 2 8 3.89219e-05 1 0 0
259 2 8 0 0 1 2 8 4.66559e-05 1 0 0
308 2 7 1 0 1 2 8 0.000231369 1 0 0
309 2 8 1 0 1 2 8 0.000278568 1 0 0
260 2 9 0 0 1 2 8 5.21687e-05 1 0 0
310 2 9 1 0 1 2 8 0.000312642 1 0 0
261 2 10 0 0 1 2 8 5.57607e-05 1 0 0
262 2 11 0 0 1 2 8 5.80827e-05 1 0 0
311 2 10 1 0 1 2 8 0.000335555 1 0 0
312 2 11 1 0 1 2 8 0.000350854 1 0 0
263 2 12 0 0 1 2 8 6.00723e-05 1 0 0
264 2 13 0 0 1 2 8 6.25298e-05 1 0 0
313 2 12 1 0 1 2 8 0.000363765 1 0 0
314 2 13 1 0 1 2 8 0.000379934 1 0 0
265 2 14 0 0 1 2 8 6.49776e-05 1 0 0
315 2 14 1 0 1 2 8 0.00039594 1 0 0
266 2 15 0 0 1 2 8 6.62819e-05 1 0 0
267 2 16 0 0 1 2 8 6.64668e-05 1 0 0
316 2 15 1 0 1 2 8 0.000403513 1 0 0
317 2 16 1 0 1 2 8 0.000403392 1 0 0
268 2 17 0 0 1 2 8 6.66432e-05 1 0 0
269 2 18 0 0 1 2 8 6.74409e-05 1 0 0
318 2 17 1 0 1 2 8 0.000404048 1 0 0
319 2 18 1 0 1 2 8 0.00040986 1 0 0
270 2 19 0 0 1 2 8 6.83142e-05 1 0 0
320 2 19 1 0 1 2 8 0.000416714 1 0 0
271 2 20 0 0 1 2 8 6.82517e-05 1 0 0
272 2 21 0 0 1 2 8 6.6835e-05 1 0 0
321 2 20 1 0 1 2 8 0.000417524 1 0 0
322 2 21 1 0 1 2 8 0.000409696 1 0 0
273 2 22 0 0 1 2 8 6.44666e-05 1 0 0
274 2 23 0 0 1 2 8 6.1863e-05 1 0 0
323 2 22 1 0 1 2 8 0.000395983 1 0 0
324 2 23 1 0 1 2 8 0.00038014 1 0 0
275 2 24 0 0 1 2 8 5.994e-05 1 0 0
325 2 24 1 0 1 2 8 0.000367478 1 0 0
276 2 25 0 0 1 2 8 5.97078e-05 1 0 0
277 2 26 0 0 1 2 8 6.13445e-05 1 0 0
326 2 25 1 0 1 2 8 0.000365705 1 0 0
327 2 26 1 0 1 2 8 0.000376677 1 0 0
278 2 27 0 0 1 2 8 6.38257e-05 1 0 0
279 2 28 0 0 1 2 8 6.59432e-05 1 0 0
328 2 27 1 0 1 2 8 0.000392954 1 0 0
329 2 28 1 0 1 2 8 0.000405585 1 0 0
280 2 29 0 0 1 2 8 6.74736e-05 1 0 0
330 2 29 1 0 1 2 8 0.000413219 1 0 0
281 2 30 0 0 1 2 8 6.89671e-05 1 0 0
282 2 31 0 0 1 2 8 7.05163e-05 1 0 0
331 2 30 1 0 1 2 8 0.000420878 1 0 0
332 2 31 1 0 1 2 8 0.000430042 1 0 0
283 2 32 0 0 1 2 8 7.14132e-05 1 0 0
284 2 33 0 0 1 2 8 7.1121e-05 1 0 0
333 2 32 1 0 1 2 8 0.000435764 1 0 0
334 2 33 1 0 1 2 8 0.000433801 1 0 0
285 2 34 0 0 1 2 8 7.01426e-05 1 0 0
335 2 34 1 0 1 2 8 0.000427387 1 0 0
286 2 35 0 0 1 2 8 6.94532e-05 1 0 0
287 2 36 0 0 1 2 8 6.93347e-05 1 0 0
336 2 35 1 0 1 2 8 0.000423324 1 0 0
337 2 36 1 0 1 2 8 0.000423314 1 0 0
288 2 37 0 0 1 2 8 6.93291e-05 1 0 0
289 2 38 0 0 1 2 8 6.89067e-05 1 0 0
338 2 37 1 0 1 2 8 0.000424067 1 0 0
339 2 38 1 0 1 2 8 0.000422144 1 0 0
290 2 39 0 0 1 2 8 6.77577e-05 1 0 0
340 2 39 1 0 1 2 8 0.000415407 1 0 0
291 2 40 0 0 1 2 8 6.58625e-05 1 0 0
292 2 41 0 0 1 2 8 6.37043e-05 1 0 0
341 2 40 1 0 1 2 8 0.000403276 1 0 0
342 2 41 1 0 1 2 8 0.000388537 1 0 0
293 2 42 0 0 1 2 8 6.23263e-05 1 0 0
294 2 43 0 0 1 2 8 6.26933e-05 1 0 0
343 2 42 1 0 1 2 8 0.000378546 1 0 0
344 2 43 1 0 1 2 8 0.000380276 1 0 0
295 2 44 0 0 1 2 8 6.4799e-05 1 0 0
345 2 44 1 0 1 2 8 0.00039407 1 0 0
296 2 45 0 0 1 2 8 6.72981e-05 1 0 0
297 2 46 0 0 1 2 8 6.84541e-05 1 0 0
346 2 45 1 0 1 2 8 0.000410762 1 0 0
347 2 46 1 0 1 2 8 0.000418397 1 0 0
298 2 47 0 0 1 2 8 6.76665e-05 1 0 0
299 2 48 0 0 1 2 8 6.58115e-05 1 0 0
348 2 47 1 0 1 2 8 0.000413165 1 0 0
349 2 48 1 0 1 2 8 0.000401157 1 0 0
300 2 49 0 0 1 2 8 6.43024e-05 1 0 0
350 2 49 1 0 1 2 8 0.000391406 1 0 0
351 2 0 2 0 1 2 8 3.45683e-06 1 0 0
352 2 1 2 0 1 2 8 8.49351e-06 1 0 0
401 2 0 3 0 1 2 8 9.58347e-06 1 0 0
402 2 1 3 0 1 2 8 2.50888e-05 1 0 0
353 2 2 2 0 1 2 8 3.31888e-05 1 0 0
354 2 3 2 0 1 2 8 0.000107828 1 0 0
403 2 2 3 0 1 2 8 0.000106191 1 0 0
404 2 3 3 0 1 2 8 0.000373148 1 0 0
355 2 4 2 0 1 2 8 0.000275867 1 0 0
405 2 4 3 0 1 2 8 0.00102248 1 0 0
356 2 5 2 0 1 2 8 0.000548975 1 0 0
357 2 6 2 0 1 2 8 0.000867677 1 0 0
406 2 5 3 0 1 2 8 0.00218092 1 0 0
407 2 6 3 0 1 2 8 0.003534 1 0 0
358 2 7 2 0 1 2 8 0.00116476 1 0 0
359 2 8 2 0 1 2 8 0.00140842 1 0 0
408 2 7 3 0 1 2 8 0.00474121 1 0 0
409 2 8 3 0 1 2 8 0.00575605 1 0 0
360 2 9 2 0 1 2 8 0.00158811 1 0 0
410 2 9 3 0 1 2 8 0.00653525 1 0 0
361 2 10 2 0 1 2 8 0.00171467 1 0 0
362 2 11 2 0 1 2 8 0.00180371 1 0 0
411 2 10 3 0 1 2 8 0.00711758 1 0 0
412 2 11 3 0 1 2 8 0.00756456 1 0 0
363 2 12 2 0 1 2 8 0.0018775 1 0 0
364 2 13 2 0 1 2 8 0.00196915 1 0 0
413 2 12 3 0 1 2 8 0.00792466 1 0 0
414 2 13 3 0 1 2 8 0.00835533 1 0 0
365 2 14 2 0 1 2 8 0.00205888 1 0 0
415 2 14 3 0 1 2 8 0.00877244 1 0 0
366 2 15 2 0 1 2 8 0.00209703 1 0 0
367 2 16 2 0 1 2 8 0.00209067 1 0 0
416 2 15 3 0 1 2 8 0.00894155 1 0 0
417 2 16 3 0 1 2 8 0.00890946 1 0 0
368 2 17 2 0 1 2 8 0.00209294 1 0 0
369 2 18 2 0 1 2 8 0.00212949 1 0 0
418 2 17 3 0 1 2 8 0.00893212 1 0 0
419 2 18 3 0 1 2 8 0.00912375 1 0 0
370 2 19 2 0 1 2 8 0.00217355 1 0 0
420 2 19 3 0 1 2 8 0.0093478 1 0 0
371 2 20 2 0 1 2 8 0.00218409 1 0 0
372 2 21 2 0 1 2 8 0.00214923 1 0 0
421 2 20 3 0 1 2 8 0.00941706 1 0 0
422 2 21 3 0 1 2 8 0.00930283 1 0 0
373 2 22 2 0 1 2 8 0.00208594 1 0 0
374 2 23 2 0 1 2 8 0.0020077 1 0 0
423 2 22 3 0 1 2 8 0.00909701 1 0 0
424 2 23 3 0 1 2 8 0.00881424 1 0 0
375 2 24 2 0 1 2 8 0.00193812 1 0 0
425 2 24 3 0 1 2 8 0.0085134 1 0 0
376 2 25 2 0 1 2 8 0.0019267 1 0 0
377 2 26 2 0 1 2 8 0.00198802 1 0 0
426 2 25 3 0 1 2 8 0.00846049 1 0 0
427 2 26 3 0 1 2 8 0.00872705 1 0 0
378 2 27 2 0 1 2 8 0.00207773 1 0 0
379 2 28 2 0 1 2 8 0.00213993 1 0 0
428 2 27 3 0 1 2 8 0.00911442 1 0 0
429 2 28 3 0 1 2 8 0.00935368 1 0 0
380 2 29 2 0 1 2 8 0.0021677 1 0 0
430 2 29 3 0 1 2 8 0.00940615 1 0 0
381 2 30 2 0 1 2 8 0.00219721 1 0 0
382 2 31 2 0 1 2 8 0.00224216 1 0 0
431 2 30 3 0 1 2 8 0.00947824 1 0 0
432 2 31 3 0 1 2 8 0.00964889 1 0 0
383 2 32 2 0 1 2 8 0.0022732 1 0 0
384 2 33 2 0 1 2 8 0.00226279 1 0 0
433 2 32 3 0 1 2 8 0.00978479 1 0 0
434 2 33 3 0 1 2 8 0.00974722 1 0 0
385 2 34 2 0 1 2 8 0.00222821 1 0 0
435 2 34 3 0 1 2 8 0.00960395 1 0 0
386 2 35 2 0 1 2 8 0.0022091 1 0 0
387 2 36 2 0 1 2 8 0.00221349 1 0 0
436 2 35 3 0 1 2 8 0.00954102 1 0 0
437 2 36 3 0 1 2 8 0.00958312 1 0 0
388 2 37 2 0 1 2 8 0.00222193 1 0 0
389 2 38 2 0 1 2 8 0.00221599 1 0 0
438 2 37 3 0 1 2 8 0.009637 1 0 0
439 2 38 3 0 1 2 8 0.00962891 1 0 0
390 2 39 2 0 1 2 8 0.00218392 1 0 0
440 2 39 3 0 1 2 8 0.0095134 1 0 0
391 2 40 2 0 1 2 8 0.00211974 1 0 0
392 2 41 2 0 1 2 8 0.00203545 1 0 0
441 2 40 3 0 1 2 8 0.00925778 1 0 0
442 2 41 3 0 1 2 8 0.00887939 1 0 0
393 2 42 2 0 1 2 8 0.00197511 1 0 0
394 2 43 2 0 1 2 8 0.00198051 1 0 0
443 2 42 3 0 1 2 8 0.00859744 1 0 0
444 2 43 3 0 1 2 8 0.00860103 1 0 0
395 2 44 2 0 1 2 8 0.00205575 1 0 0
445 2 44 3 0 1 2 8 0.00891944 1 0 0
396 2 45 2 0 1 2 8 0.00214847 1 0 0
397 2 46 2 0 1 2 8 0.00218979 1 0 0
446 2 45 3 0 1 2 8 0.00931774 1 0 0
447 2 46 3 0 1 2 8 0.00948501 1 0 0
398 2 47 2 0 1 2 8 0.00216065 1 0 0
399 2 48 2 0 1 2 8 0.0020964 1 0 0
448 2 47 3 0 1 2 8 0.00935435 1 0 0
449 2 48 3 0 1 2 8 0.00909191 1 0 0
400 2 49 2 0 1 2 8 0.00204336 1 0 0
450 2 49 3 0 1 2 8 0.00885992 1 0 0
451 2 0 4 0 1 2 8 2.14059e-05 1 0 0
452 2 1 4 0 1 2 8 5.89896e-05 1 0 0
453 2 2 4 0 1 2 8 0.000266233 1 0 0
454 2 3 4 0 1 2 8 0.000987089 1 0 0
455 2 4 4 0 1 2 7 0.00277076 1 0 0
456 2 5 4 0 1 2 6 0.00644674 1 0 0
457 2 6 4 0 1 2 5 0.0104173 1 0 0
506 1 5.49261 4.86476 0 1.0006 2 0 0.014539 1 0.000714402 0.00111892
507 1 6.49413 4.86249 0 1.02569 2 0 0.0190942 1 0.00243581 0.00442678
458 2 7 4 0 1 2 5 0.0137447 1 0 0
459 2 8 4 0 1 2 5 0.0167349 1 0 0
508 1 7.49447 4.86389 0 1.03193 2 0 0.0236665 1 0.00110103 0.00187639
460 2 9 4 0 1 2 5 0.0191605 1 0 0
510 1 8.49838 4.86488 0 1.01036 2 0 0.0279333 1 -0.00034036 -1.80124e-05
511 1 9.49846 4.86426 0 1.00136 2 0 0.0317571 1 -0.00116478 0.000628297
461 2 10 4 0 1 2 5 0.0211162 1 0 0
462 2 11 4 0 1 2 5 0.0227565 1 0 0
512 1 10.5003 4.86379 0 1.01573 2 0 0.0352646 1 0.00112395 -0.00660014
513 1 11.4997 4.86241 0 1.01534 2 0 0.0384959 1 -0.0022342 -0.00054656
463 2 12 4 0 1 2 5 0.0241542 1 0 0
464 2 13 4 0 1 2 5 0.0256182 1 0 0
514 1 12.4998 4.86133 0 1.01802 2 0 0.0414014 1 -0.00303422 0.00247655
465 2 14 4 0 1 2 5 0.0269628 1 0 0
515 1 13.4984 4.86139 0 1.02031 2 0 0.0439844 1 0.00489268 0.00636573
516 1 14.5002 4.8634 0 1.0096 2 0 0.0461239 1 -0.00108144 0.00577693
466 2 15 4 0 1 2 5 0.0276364 1 0 0
467 2 16 4 0 1 2 5 0.0276971 1 0 0
518 1 16.4987 4.86396 0 1.02515 2 0 0.0490317 1 -0.00196352 0.000900994
517 1 15.4992 4.86661 0 1.02614 2 0 0.0477449 1 0.00222757 -0.00294823
468 2 17 4 0 1 2 5 0.0278755 1 0 0
469 2 18 4 0 1 2 5 0.0286177 1 0 0
519 1 17.498 4.8613 0 1.0239 2 0 0.0502058 1 -0.00884211 0.00226726
470 2 19 4 0 1 2 5 0.0293639 1 0 0
520 1 18.4953 4.86104 0 1.00577 2 0 0.0513513 1 0.00471404 0.00150359
521 1 19.4968 4.86199 0 1.00453 2 0 0.052289 1 0.00155752 0.00139294
471 2 20 4 0 1 2 5 0.029634 1 0 0
472 2 21 4 0 1 2 5 0.0294433 1 0 0
523 1 21.4999 4.86334 0 1.02268 2 0 0.0530297 1 -0.000531819 0.00595869
522 1 20.4991 4.86291 0 1.0139 2 0 0.0528021 1 0.00184644 -0.000269773
473 2 22 4 0 1 2 5 0.02913 1 0 0
474 2 23 4 0 1 2 5 0.0285487 1 0 0
524 1 22.5003 4.86311 0 1.01383 2 0 0.0530405 1 -0.00262095 0.00451623
475 2 24 4 0 1 2 5 0.0277884 1 0 0
525 1 23.498 4.86776 0 1.03669 2 0 0.0529187 1 -0.000832788 -0.0094886
526 1 24.5006 4.86461 0 1.04245 2 0 0.053036 1 -0.000445352 0.0022328
476 2 25 4 0 1 2 5 0.0276584 1 0 0
477 2 26 4 0 1 2 5 0.0283509 1 0 0
528 1 26.4978 4.86658 0 1.04147 2 0 0.0546165 1 0.0035123 0.00103234
527 1 25.5001 4.87325 0 1.03798 2 0 0.0536976 1 -0.00273183 -0.00148432
478 2 27 4 0 1 2 5 0.0294515 1 0 0
479 2 28 4 0 1 2 5 0.0300259 1 0 0
529 1 27.4969 4.8672 0 1.0019 2 0 0.0555353 1 0.000683863 0.000858865
480 2 29 4 0 1 2 5 0.0300142 1 0 0
531 1 29.4971 4.86257 0 1.01679 2 0 0.0563651 1 -0.00144046 0.00498507
530 1 28.4961 4.86953 0 1.02091 2 0 0.0560864 1 -0.000652508 -0.00383417
481 2 30 4 0 1 2 5 0.0300487 1 0 0
482 2 31 4 0 1 2 5 0.0304769 1 0 0
533 1 31.4957 4.86236 0 1.004 2 0 0.0570794 1 -0.00108011 -0.0010516
532 1 30.4964 4.8644 0 1.0182 2 0 0.0566596 1 0.000807012 -0.00105693
483 2 32 4 0 1 2 5 0.0308594 1 0 0
484 2 33 4 0 1 2 5 0.0308048 1 0 0
534 1 32.4988 4.86158 0 1.00171 2 0 0.057417 1 8.32601e-05 -0.000926935
485 2 34 4 0 1 2 5 0.0304623 1 0 0
535 1 33.5004 4.86005 0 1.00275 2 0 0.0575048 1 -0.00281758 0.00773504
536 1 34.5 4.86426 0 1.0237 2 0 0.0574769 1 -0.000971747 0.00216453
486 2 35 4 0 1 2 5 0.0303683 1 0 0
487 2 36 4 0 1 2 5 0.0305438 1 0 0
538 1 36.4962 4.86647 0 1.01227 2 0 0.0575123 1 0.000135695 -0.00671764
537 1 35.4982 4.86425 0 1.0067 2 0 0.05752 1 0.00137955 0.00532511
488 2 37 4 0 1 2 5 0.0307379 1 0 0
489 2 38 4 0 1 2 5 0.0307284 1 0 0
539 1 37.4984 4.86247 0 1.00174 2 0 0.0573352 1 0.000723823 0.00724155
490 2 39 4 0 1 2 5 0.030462 1 0 0
541 1 39.5023 4.8631 0 1.00168 2 0 0.0565831 1 -0.00601805 -0.00269515
540 1 38.5006 4.86198 0 1.01715 2 0 0.0570055 1 0.000633749 0.00279715
491 2 40 4 0 1 2 5 0.029836 1 0 0
492 2 41 4 0 1 2 5 0.0287605 1 0 0
542 1 40.5003 4.86337 0 1.01016 2 0 0.0561375 1 0.00335547 -0.00385746
543 1 41.5001 4.86129 0 1.03252 2 0 0.0558356 1 0.000144238 0.0070258
493 2 42 4 0 1 2 5 0.0279542 1 0 0
494 2 43 4 0 1 2 5 0.0279225 1 0 0
544 1 42.4998 4.8617 0 1.0319 2 0 0.0558993 1 0.000739284 0.00390957
495 2 44 4 0 1 2 5 0.0287619 1 0 0
545 1 43.501 4.86357 0 1.03659 2 0 0.056287 1 -0.00723092 -0.00177637
546 1 44.4982 4.86342 0 1.01001 2 0 0.0568046 1 0.00330507 -0.000440716
496 2 45 4 0 1 2 5 0.0298235 1 0 0
497 2 46 4 0 1 2 5 0.0302073 1 0 0
548 1 46.4991 4.86382 0 1.00807 2 0 0.0572345 1 -0.00527153 -0.00104798
547 1 45.497 4.86382 0 1.00173 2 0 0.0571966 1 0.00541645 0.000406025
498 2 47 4 0 1 2 5 0.029836 1 0 0
499 2 48 4 0 1 2 5 0.0291727 1 0 0
549 1 47.4966 4.8648 0 1.02093 2 0 0.0569089 1 0.00725623 -0.00608956
500 2 49 4 0 1 2 5 0.0285397 1 0 0
550 1 48.4977 4.86288 0 1.02225 2 0 0.0565523 1 0.0018926 0.000832211
8501 1 49.4993 4.86385 0 1.06187 2 0 0.0564071 1 -0.0026652 -0.00491314
501 2 0 5 0 1 2 8 3.88632e-05 1 0 0
502 2 1 5 0 1 2 8 0.000111131 1 0 0
551 2 0 6 0 1 2 8 5.91349e-05 1 0 0
552 2 1 6 0 1 2 8 0.000173119 1 0 0
503 2 2 5 0 1 2 8 0.000522747 1 0 0
504 2 3 5 0 1 2 8 0.00202379 1 0 0
553 2 2 6 0 1 2 8 0.000829058 1 0 0
554 2 3 6 0 1 2 8 0.0032482 1 0 0
505 2 4 5 0 1 2 6 0.00599356 1 0 0
555 2 4 6 0 1 2 5 0.00949484 1 0 0
556 1 4.95926 5.71926 0 1.02426 2 0 0.0160764 1 -0.000111958 -0.00270266
557 1 5.9811 5.73262 0 1.00456 2 0 0.0227403 1 0.000570023 0.00149932
558 1 6.98066 5.73216 0 1.00032 2 0 0.0287126 1 -5.04796e-06 -0.00131766
509 1 7.98966 5.72863 0 1.00999 2 0 0.0347037 1 0.000319318 0.000519043
560 1 8.9944 5.73093 0 1.01571 2 0 0.0402684 1 -0.00336545 -0.00563665
561 1 10.0021 5.72505 0 1.04128 2 0 0.0455277 1 -0.0056366 0.0059019
562 1 11.0001 5.727 0 1.02468 2 0 0.0504087 1 -0.000561069 -0.00554393
563 1 11.9987 5.72313 0 1.00884 2 0 0.0548277 1 0.00456137 0.0110495
565 1 12.9979 5.72441 0 1.01555 2 0 0.0588397 1 0.00337517 0.00521855
566 1 13.9968 5.72606 0 1.01485 2 0 0.0623249 1 0.00514458 0.00164023
567 1 14.9985 5.73057 0 1.00349 2 0 0.0651903 1 -0.00466897 -0.00120267
568 1 15.996 5.73421 0 1.02492 2 0 0.0675906 1 -0.000551423 -0.00534024
569 1 17.9912 5.72327 0 1.01386 2 0 0.0711749 1 0.00495553 0.00370176
618 1 16.9939 5.72923 0 1.00786 2 0 0.0695631 1 -0.00106866 0.000127794
570 1 18.9911 5.72206 0 1.00562 2 0 0.0726975 1 0.00239951 0.00394229
571 1 19.9965 5.72375 0 1.00943 2 0 0.0739837 1 0.00180827 0.0037217
572 1 20.997 5.7274 0 1.02492 2 0 0.0748243 1 0.00271058 -0.00682794
573 1 22.0018 5.7272 0 1.00977 2 0 0.075139 1 -0.00428255 0.00485211
574 1 23.0002 5.73512 0 1.00488 2 0 0.0752299 1 -0.00151466 1.19394e-05
575 1 23.9977 5.72762 0 1.01237 2 0 0.0754739 1 0.0069914 0.00759226
576 1 24.9997 5.73807 0 1.01087 2 0 0.0763262 1 -0.0044391 -0.0104344
577 1 25.9976 5.74242 0 1.01133 2 0 0.0777956 1 -0.000785281 -0.00687631
579 1 26.9931 5.7356 0 1.01129 2 0 0.0789576 1 0.00891804 -0.000111125
580 1 27.9948 5.73703 0 1.02117 2 0 0.0799631 1 0 -5e-05
581 1 28.995 5.73373 0 1.01861 2 0 0.0805058 1 -0.00103367 -0.00276366
632 1 29.993 5.72746 0 1.0167 2 0 0.080619 1 0.00606779 0.00532314
582 1 30.9947 5.72804 0 1.0143 2 0 0.0809661 1 0.00182067 -0.0144793
583 1 31.9944 5.72103 0 1.0088 2 0 0.08155 1 0.00293628 0.00758657
584 1 32.9984 5.72245 0 1.00514 2 0 0.0820097 1 -0.00747869 -0.00150042
585 1 33.9947 5.72511 0 1.02197 2 0 0.0823244 1 0.0128072 -0.00137499
586 1 34.9984 5.73296 0 1.02669 2 0 0.0825486 1 -0.00414662 -0.00867156
587 1 35.9943 5.73321 0 1.01702 2 0 0.0826052 1 0.0106127 -0.00418927
588 1 36.996 5.72642 0 1.01798 2 0 0.0822488 1 0.00291951 0.00692609
589 1 38.0019 5.72486 0 1.01656 2 0 0.0816582 1 -0.0047097 0.00335415
590 1 39.0019 5.72486 0 1.01208 2 0 0.0810788 1 0.00137538 -0.00117831
591 1 40.0012 5.72616 0 1.01334 2 0 0.0808001 1 0.00251685 0.00184002
592 1 41.0009 5.72499 0 1.02633 2 0 0.0809022 1 0.00172254 0.000258973
594 1 42.9985 5.72541 0 1.01497 2 0 0.0817213 1 0.00726766 0.00341793
593 1 42.0005 5.72517 0 1.02837 2 0 0.0812681 1 -0.00089343 -0.00143699
595 1 43.9984 5.72774 0 1.01694 2 0 0.0821017 1 -0.00179168 0.000833003
596 1 44.9958 5.72721 0 1.01116 2 0 0.0824069 1 0.00656161 9.62729e-05
597 1 45.9978 5.72723 0 1.01212 2 0 0.0826674 1 -0.00474568 -0.00329796
598 1 46.9971 5.72781 0 1.00861 2 0 0.0826444 1 0.00275222 0.000561731
599 1 47.9976 5.72628 0 1.02545 2 0 0.0823187 1 -0.000197779 0.00305576
600 1 48.9965 5.72647 0 1.00476 2 0 0.0819828 1 0.00238702 -0.00784936
2700 1 48.9978 45.4694 0 1.00493 0 0 0.499883 1 1.31047e-06 1.25617e-05
601 2 0 7 0 1 2 8 7.88278e-05 1 0 0
602 2 1 7 0 1 2 8 0.000234324 1 0 0
651 2 0 8 0 1 2 8 9.56099e-05 1 0 0
652 2 1 8 0 1 2 8 0.000287485 1 0 0
603 2 2 7 0 1 2 8 0.00113433 1 0 0
604 2 3 7 0 1 2 8 0.00448979 1 0 0
653 2 2 8 0 1 2 8 0.00140638 1 0 0
654 2 3 8 0 1 2 8 0.00567837 1 0 0
605 2 4 7 0 1 2 5 0.0129606 1 0 0
655 2 4 8 0 1 2 5 0.0162595 1 0 0
656 1 4.8704 7.48998 0 1.01253 2 0 0.0229259 1 0.00202141 -0.00273009
606 1 5.37572 6.62698 0 1.01839 2 0 0.0240716 1 0.00108624 0.00231752
607 1 6.39705 6.63865 0 1.01626 2 0 0.0320154 1 -0.00323614 -0.00263647
657 1 5.87153 7.50572 0 1.02523 2 0 0.0331621 1 -9.91441e-05 -0.000183479
608 1 7.48264 6.59212 0 1.01581 2 0 0.0400281 1 0.0025164 -0.00277455
609 1 7.97927 7.45568 0 1.00447 2 0 0.0522393 1 0.00289458 -0.00223269
658 1 6.97282 7.45008 0 1.00499 2 0 0.0433325 1 0.00527184 -8.84769e-07
559 1 8.48578 6.5932 0 1.01669 2 0 0.0471907 1 -0.00100932 -0.00151045
610 1 9.50065 6.58729 0 1.00382 2 0 0.0541596 1 0.00155785 0.00347835
661 1 8.9972 7.4478 0 1.00906 2 0 0.060819 1 0.00259604 0.000843188
612 1 9.9968 7.45245 0 1.00002 2 0 0.0690147 1 0.00128568 -0.00297739
611 1 10.4998 6.59036 0 1.00368 2 0 0.0607244 1 -0.000903691 -0.00137057
564 1 11.4993 6.58771 0 1.01095 2 0 0.0667949 1 0.00592323 0.00309438
613 1 11.002 7.45182 0 1.00877 2 0 0.0768468 1 0.00115455 -0.00335514
614 1 12.4998 6.58822 0 1.01882 2 0 0.0723505 1 -0.00371341 -0.00563476
665 1 12.9974 7.4528 0 1.00809 2 0 0.0906642 1 0.00337161 0.00131432
664 1 12.0012 7.45061 0 1.0022 2 0 0.0841169 1 -0.00684547 -0.0022204
615 1 13.4985 6.59053 0 1.00601 2 0 0.0773053 1 -0.00270035 -0.00533794
616 1 14.4968 6.59332 0 1.00878 2 0 0.0814756 1 -0.00175866 0.00172484
666 1 13.9937 7.45642 0 0.997531 2 0 0.0963026 1 0.00514989 -0.000438032
667 1 14.9898 7.46529 0 1.00922 2 0 0.101036 1 0.00900004 -0.0054147
617 1 15.4948 6.59861 0 1.01132 2 0 0.0849523 1 0.00173787 0.00159881
668 1 15.989 7.46908 0 1.01232 2 0 0.105056 1 -0.00199291 -1.93939e-05
619 1 16.494 6.5985 0 1.00791 2 0 0.0879003 1 -0.00391526 -0.00463984
669 1 17.4925 6.59267 0 1.0115 2 0 0.0904087 1 -0.0029807 0.00302739
719 1 16.9871 7.46254 0 1.0104 2 0 0.108499 1 0.00196155 0.0051331
720 1 17.9847 7.46179 0 1.00384 2 0 0.111599 1 -0.00134852 -0.00301498
620 1 18.4886 6.58396 0 1.00047 2 0 0.0924336 1 0.00196458 -0.00214909
621 1 19.4912 6.58324 0 1.01086 2 0 0.0945464 1 -0.00877537 -0.00508618
670 1 18.98 7.44423 0 1.01205 2 0 0.113954 1 0.00971788 0.000858188
671 1 19.9812 7.44347 0 1.01101 2 0 0.116847 1 0.0045155 -0.000436167
622 1 20.4953 6.58827 0 1.02282 2 0 0.096292 1 -0.00323646 -0.000662559
623 1 21.4971 6.58997 0 1.01715 2 0 0.0970125 1 0.00032955 -0.0036714
672 1 20.9964 7.44935 0 1.01032 2 0 0.118591 1 -0.00179134 0.00990743
673 1 21.9945 7.4655 0 1.00705 2 0 0.11869 1 -0.00280169 -0.00229071
624 1 22.4932 6.60234 0 1.00933 2 0 0.0968398 1 0.0058248 -0.00537297
674 1 22.9907 7.47129 0 1.01197 2 0 0.117236 1 -0.00316685 -0.00472968
625 1 23.4908 6.60659 0 1.01358 2 0 0.0966344 1 0.0039759 -0.00548118
626 1 24.4912 6.59488 0 1.01095 2 0 0.0971319 1 -0.0052195 0.00356785
675 1 23.9876 7.47208 0 1.00974 2 0 0.116907 1 0.00194271 0.00121639
676 1 24.9837 7.46098 0 1.01754 2 0 0.120315 1 0.0106398 0.00726286
578 1 26.4991 6.62798 0 1.0136 2 0 0.102035 1 0 -5e-05
628 1 25.9998 7.49562 0 1.00647 2 0 0.124339 1 0 -5e-05
627 1 25.4957 6.60266 0 1.0116 2 0 0.0995741 1 -0.00023664 0.011439
629 1 27.5 6.60714 0 1.00585 2 0 0.103486 1 0 -5e-05
679 1 28.0024 7.47558 0 1.01276 2 0 0.128391 1 0.000380129 -0.00184511
678 1 27.0033 7.49675 0 1.01987 2 0 0.126582 1 -0.00143497 -1.95988e-05
630 1 28.5005 6.60034 0 1.00031 2 0 0.104544 1 -0.00910962 -0.000112269
631 1 29.4983 6.59609 0 1.01679 2 0 0.104514 1 0.00256761 -0.00938165
680 1 29.0029 7.46234 0 1.0041 2 0 0.129009 1 0.000765944 0.00211377
681 1 30.0037 7.45301 0 1.0067 2 0 0.127691 1 -0.000837158 0.00408875
682 1 30.4983 6.58993 0 1.0233 2 0 0.104172 1 -0.00347564 -0.00179606
633 1 31.4973 6.58577 0 1.00197 2 0 0.105227 1 -0.00542106 0.00600169
732 1 30.9993 7.45351 0 1.02086 2 0 0.127823 1 5.03327e-05 -0.0097142
683 1 31.9978 7.44581 0 1.00602 2 0 0.130121 1 -0.00375404 0.0166096
684 1 32.4942 6.58311 0 1.01173 2 0 0.106214 1 0.00902688 -0.00157535
734 1 32.9943 7.44661 0 1.01306 2 0 0.130584 1 -0.0076978 0.00170743
634 1 33.494 6.58518 0 1.00318 2 0 0.106717 1 0.000829002 0.00688328
635 1 34.4929 6.59047 0 1.01335 2 0 0.107206 1 -0.00019713 0.000170052
685 1 33.9904 7.45117 0 1.01182 2 0 0.130282 1 -0.000390499 -0.00168154
686 1 34.9885 7.45613 0 1.01566 2 0 0.131853 1 -0.0041736 -0.0053568