ITEM: TIMESTEP
38000
ITEM: NUMBER OF ATOMS
15950
ITEM: BOX BOUNDS pp pp pp
0.0000000000000000e+00 1.0000000000000000e+02
-5.0000000000000000e+00 2.0000000000000000e+02
-5.0000000000000000e-01 5.0000000000000000e-01
ITEM: ATOMS id type x y z c_rho c_phase c_nbond c_temp f_rheo_chi_chi fx fy
1 2 0 -5 0 1 2 8 1.33471e-08 1 0 0
2 2 1 -5 0 1 2 8 1.77104e-08 1 0 0
51 2 0 -4 0 1 2 8 6.121e-08 1 0 0
52 2 1 -4 0 1 2 8 8.29443e-08 1 0 0
3 2 2 -5 0 1 2 8 3.21781e-08 1 0 0
4 2 3 -5 0 1 2 8 5.86031e-08 1 0 0
53 2 2 -4 0 1 2 8 1.55693e-07 1 0 0
54 2 3 -4 0 1 2 8 2.89577e-07 1 0 0
5 2 4 -5 0 1 2 7 1.00264e-07 1 0 0
55 2 4 -4 0 1 2 8 4.91003e-07 1 0 0
6 2 5 -5 0 1 2 6 1.6197e-07 1 0 0
7 2 6 -5 0 1 2 5 2.30396e-07 1 0 0
56 2 5 -4 0 1 2 8 7.53088e-07 1 0 0
57 2 6 -4 0 1 2 8 1.04762e-06 1 0 0
8 2 7 -5 0 1 2 5 2.94321e-07 1 0 0
9 2 8 -5 0 1 2 5 3.5137e-07 1 0 0
58 2 7 -4 0 1 2 8 1.34076e-06 1 0 0
59 2 8 -4 0 1 2 8 1.6047e-06 1 0 0
10 2 9 -5 0 1 2 5 3.9867e-07 1 0 0
60 2 9 -4 0 1 2 8 1.82396e-06 1 0 0
11 2 10 -5 0 1 2 5 4.35954e-07 1 0 0
12 2 11 -5 0 1 2 5 4.65113e-07 1 0 0
61 2 10 -4 0 1 2 8 1.99735e-06 1 0 0
62 2 11 -4 0 1 2 8 2.1338e-06 1 0 0
13 2 12 -5 0 1 2 5 4.88652e-07 1 0 0
14 2 13 -5 0 1 2 5 5.08212e-07 1 0 0
63 2 12 -4 0 1 2 8 2.2449e-06 1 0 0
64 2 13 -4 0 1 2 8 2.33788e-06 1 0 0
15 2 14 -5 0 1 2 5 5.24093e-07 1 0 0
65 2 14 -4 0 1 2 8 2.41338e-06 1 0 0
16 2 15 -5 0 1 2 5 5.36082e-07 1 0 0
17 2 16 -5 0 1 2 5 5.44592e-07 1 0 0
66 2 15 -4 0 1 2 8 2.4699e-06 1 0 0
67 2 16 -4 0 1 2 8 2.50976e-06 1 0 0
18 2 17 -5 0 1 2 5 5.50665e-07 1 0 0
19 2 18 -5 0 1 2 5 5.54865e-07 1 0 0
68 2 17 -4 0 1 2 8 2.53894e-06 1 0 0
69 2 18 -4 0 1 2 8 2.56079e-06 1 0 0
20 2 19 -5 0 1 2 5 5.56492e-07 1 0 0
70 2 19 -4 0 1 2 8 2.57176e-06 1 0 0
21 2 20 -5 0 1 2 5 5.54171e-07 1 0 0
22 2 21 -5 0 1 2 5 5.47322e-07 1 0 0
71 2 20 -4 0 1 2 8 2.5645e-06 1 0 0
72 2 21 -4 0 1 2 8 2.53548e-06 1 0 0
23 2 22 -5 0 1 2 5 5.3723e-07 1 0 0
24 2 23 -5 0 1 2 5 5.26957e-07 1 0 0
73 2 22 -4 0 1 2 8 2.49025e-06 1 0 0
74 2 23 -4 0 1 2 8 2.44317e-06 1 0 0
25 2 24 -5 0 1 2 5 5.20196e-07 1 0 0
75 2 24 -4 0 1 2 8 2.41201e-06 1 0 0
26 2 25 -5 0 1 2 5 5.19605e-07 1 0 0
27 2 26 -5 0 1 2 5 5.25542e-07 1 0 0
76 2 25 -4 0 1 2 8 2.40979e-06 1 0 0
77 2 26 -4 0 1 2 8 2.43825e-06 1 0 0
28 2 27 -5 0 1 2 5 5.36112e-07 1 0 0
29 2 28 -5 0 1 2 5 5.48522e-07 1 0 0
78 2 27 -4 0 1 2 8 2.48778e-06 1 0 0
79 2 28 -4 0 1 2 8 2.54456e-06 1 0 0
30 2 29 -5 0 1 2 5 5.6054e-07 1 0 0
80 2 29 -4 0 1 2 8 2.59836e-06 1 0 0
31 2 30 -5 0 1 2 5 5.70873e-07 1 0 0
32 2 31 -5 0 1 2 5 5.78637e-07 1 0 0
81 2 30 -4 0 1 2 8 2.64411e-06 1 0 0
82 2 31 -4 0 1 2 8 2.67855e-06 1 0 0
33 2 32 -5 0 1 2 5 5.83113e-07 1 0 0
34 2 33 -5 0 1 2 5 5.84207e-07 1 0 0
83 2 32 -4 0 1 2 8 2.69836e-06 1 0 0
84 2 33 -4 0 1 2 8 2.70283e-06 1 0 0
35 2 34 -5 0 1 2 5 5.8282e-07 1 0 0
85 2 34 -4 0 1 2 8 2.69623e-06 1 0 0
36 2 35 -5 0 1 2 5 5.80307e-07 1 0 0
37 2 36 -5 0 1 2 5 5.77396e-07 1 0 0
86 2 35 -4 0 1 2 8 2.6852e-06 1 0 0
87 2 36 -4 0 1 2 8 2.67321e-06 1 0 0
38 2 37 -5 0 1 2 5 5.73661e-07 1 0 0
39 2 38 -5 0 1 2 5 5.6805e-07 1 0 0
88 2 37 -4 0 1 2 8 2.65781e-06 1 0 0
89 2 38 -4 0 1 2 8 2.63328e-06 1 0 0
40 2 39 -5 0 1 2 5 5.60011e-07 1 0 0
90 2 39 -4 0 1 2 8 2.59631e-06 1 0 0
41 2 40 -5 0 1 2 5 5.50439e-07 1 0 0
42 2 41 -5 0 1 2 5 5.41795e-07 1 0 0
91 2 40 -4 0 1 2 8 2.55076e-06 1 0 0
92 2 41 -4 0 1 2 8 2.50857e-06 1 0 0
43 2 42 -5 0 1 2 5 5.37078e-07 1 0 0
44 2 43 -5 0 1 2 5 5.38006e-07 1 0 0
93 2 42 -4 0 1 2 8 2.48485e-06 1 0 0
94 2 43 -4 0 1 2 8 2.48873e-06 1 0 0
45 2 44 -5 0 1 2 5 5.43578e-07 1 0 0
95 2 44 -4 0 1 2 8 2.51573e-06 1 0 0
46 2 45 -5 0 1 2 5 5.50316e-07 1 0 0
47 2 46 -5 0 1 2 5 5.54371e-07 1 0 0
96 2 45 -4 0 1 2 8 2.54868e-06 1 0 0
97 2 46 -4 0 1 2 8 2.56833e-06 1 0 0
48 2 47 -5 0 1 2 5 5.54018e-07 1 0 0
49 2 48 -5 0 1 2 5 5.50644e-07 1 0 0
98 2 47 -4 0 1 2 8 2.56613e-06 1 0 0
99 2 48 -4 0 1 2 8 2.54913e-06 1 0 0
50 2 49 -5 0 1 2 5 5.47527e-07 1 0 0
100 2 49 -4 0 1 2 8 2.53379e-06 1 0 0
101 2 0 -3 0 1 2 8 2.57588e-07 1 0 0
102 2 1 -3 0 1 2 8 3.57244e-07 1 0 0
151 2 0 -2 0 1 2 8 9.85986e-07 1 0 0
152 2 1 -2 0 1 2 8 1.40223e-06 1 0 0
103 2 2 -3 0 1 2 8 6.94924e-07 1 0 0
104 2 3 -3 0 1 2 8 1.3274e-06 1 0 0
153 2 2 -2 0 1 2 8 2.83287e-06 1 0 0
154 2 3 -2 0 1 2 8 5.5702e-06 1 0 0
105 2 4 -3 0 1 2 8 2.29017e-06 1 0 0
155 2 4 -2 0 1 2 8 9.81622e-06 1 0 0
106 2 5 -3 0 1 2 8 3.54356e-06 1 0 0
107 2 6 -3 0 1 2 8 4.96212e-06 1 0 0
156 2 5 -2 0 1 2 8 1.54097e-05 1 0 0
157 2 6 -2 0 1 2 8 2.17691e-05 1 0 0
108 2 7 -3 0 1 2 8 6.37999e-06 1 0 0
109 2 8 -3 0 1 2 8 7.65625e-06 1 0 0
158 2 7 -2 0 1 2 8 2.81242e-05 1 0 0
159 2 8 -2 0 1 2 8 3.3838e-05 1 0 0
110 2 9 -3 0 1 2 8 8.71648e-06 1 0 0
160 2 9 -2 0 1 2 8 3.85887e-05 1 0 0
111 2 10 -3 0 1 2 8 9.55706e-06 1 0 0
112 2 11 -3 0 1 2 8 1.02226e-05 1 0 0
161 2 10 -2 0 1 2 8 4.23717e-05 1 0 0
162 2 11 -2 0 1 2 8 4.53915e-05 1 0 0
113 2 12 -3 0 1 2 8 1.07699e-05 1 0 0
114 2 13 -3 0 1 2 8 1.12324e-05 1 0 0
163 2 12 -2 0 1 2 8 4.79028e-05 1 0 0
164 2 13 -2 0 1 2 8 5.00478e-05 1 0 0
115 2 14 -3 0 1 2 8 1.16086e-05 1 0 0
165 2 14 -2 0 1 2 8 5.1798e-05 1 0 0
116 2 15 -3 0 1 2 8 1.18875e-05 1 0 0
117 2 16 -3 0 1 2 8 1.20825e-05 1 0 0
166 2 15 -2 0 1 2 8 5.30843e-05 1 0 0
167 2 16 -2 0 1 2 8 5.39767e-05 1 0 0
118 2 17 -3 0 1 2 8 1.22292e-05 1 0 0
119 2 18 -3 0 1 2 8 1.23479e-05 1 0 0
168 2 17 -2 0 1 2 8 5.46679e-05 1 0 0
169 2 18 -2 0 1 2 8 5.5271e-05 1 0 0
120 2 19 -3 0 1 2 8 1.24196e-05 1 0 0
170 2 19 -2 0 1 2 8 5.56882e-05 1 0 0
121 2 20 -3 0 1 2 8 1.24029e-05 1 0 0
122 2 21 -3 0 1 2 8 1.22763e-05 1 0 0
171 2 20 -2 0 1 2 8 5.57084e-05 1 0 0
172 2 21 -2 0 1 2 8 5.52163e-05 1 0 0
123 2 22 -3 0 1 2 8 1.2065e-05 1 0 0
124 2 23 -3 0 1 2 8 1.18394e-05 1 0 0
173 2 22 -2 0 1 2 8 5.43182e-05 1 0 0
174 2 23 -2 0 1 2 8 5.33299e-05 1 0 0
125 2 24 -3 0 1 2 8 1.1689e-05 1 0 0
175 2 24 -2 0 1 2 8 5.26652e-05 1 0 0
126 2 25 -3 0 1 2 8 1.16812e-05 1 0 0
127 2 26 -3 0 1 2 8 1.1825e-05 1 0 0
176 2 25 -2 0 1 2 8 5.26485e-05 1 0 0
177 2 26 -2 0 1 2 8 5.33242e-05 1 0 0
128 2 27 -3 0 1 2 8 1.20688e-05 1 0 0
129 2 28 -3 0 1 2 8 1.23405e-05 1 0 0
178 2 27 -2 0 1 2 8 5.44371e-05 1 0 0
179 2 28 -2 0 1 2 8 5.56358e-05 1 0 0
130 2 29 -3 0 1 2 8 1.25909e-05 1 0 0
180 2 29 -2 0 1 2 8 5.67053e-05 1 0 0
131 2 30 -3 0 1 2 8 1.28017e-05 1 0 0
132 2 31 -3 0 1 2 8 1.29614e-05 1 0 0
181 2 30 -2 0 1 2 8 5.75954e-05 1 0 0
182 2 31 -2 0 1 2 8 5.82792e-05 1 0 0
133 2 32 -3 0 1 2 8 1.30535e-05 1 0 0
134 2 33 -3 0 1 2 8 1.30722e-05 1 0 0
183 2 32 -2 0 1 2 8 5.86782e-05 1 0 0
184 2 33 -2 0 1 2 8 5.87524e-05 1 0 0
135 2 34 -3 0 1 2 8 1.30389e-05 1 0 0
185 2 34 -2 0 1 2 8 5.85989e-05 1 0 0
136 2 35 -3 0 1 2 8 1.29884e-05 1 0 0
137 2 36 -3 0 1 2 8 1.29384e-05 1 0 0
186 2 35 -2 0 1 2 8 5.83885e-05 1 0 0
187 2 36 -2 0 1 2 8 5.82052e-05 1 0 0
138 2 37 -3 0 1 2 8 1.28744e-05 1 0 0
139 2 38 -3 0 1 2 8 1.27643e-05 1 0 0
188 2 37 -2 0 1 2 8 5.79717e-05 1 0 0
189 2 38 -2 0 1 2 8 5.75235e-05 1 0 0
140 2 39 -3 0 1 2 8 1.25878e-05 1 0 0
190 2 39 -2 0 1 2 8 5.67509e-05 1 0 0
141 2 40 -3 0 1 2 8 1.23618e-05 1 0 0
142 2 41 -3 0 1 2 8 1.21465e-05 1 0 0
191 2 40 -2 0 1 2 8 5.57191e-05 1 0 0
192 2 41 -2 0 1 2 8 5.4707e-05 1 0 0
143 2 42 -3 0 1 2 8 1.2022e-05 1 0 0
144 2 43 -3 0 1 2 8 1.20392e-05 1 0 0
193 2 42 -2 0 1 2 8 5.41044e-05 1 0 0
194 2 43 -2 0 1 2 8 5.41723e-05 1 0 0
145 2 44 -3 0 1 2 8 1.21773e-05 1 0 0
195 2 44 -2 0 1 2 8 5.4823e-05 1 0 0
146 2 45 -3 0 1 2 8 1.23468e-05 1 0 0
147 2 46 -3 0 1 2 8 1.24464e-05 1 0 0
196 2 45 -2 0 1 2 8 5.56266e-05 1 0 0
197 2 46 -2 0 1 2 8 5.60896e-05 1 0 0
148 2 47 -3 0 1 2 8 1.24313e-05 1 0 0
149 2 48 -3 0 1 2 8 1.23398e-05 1 0 0
198 2 47 -2 0 1 2 8 5.5998e-05 1 0 0
199 2 48 -2 0 1 2 8 5.55426e-05 1 0 0
150 2 49 -3 0 1 2 8 1.2259e-05 1 0 0
200 2 49 -2 0 1 2 8 5.51485e-05 1 0 0
201 2 0 -1 0 1 2 8 3.40011e-06 1 0 0
202 2 1 -1 0 1 2 8 4.96542e-06 1 0 0
203 2 2 -1 0 1 2 8 1.0432e-05 1 0 0
204 2 3 -1 0 1 2 8 2.11469e-05 1 0 0
205 2 4 -1 0 1 2 8 3.81265e-05 1 0 0
206 2 5 -1 0 1 2 8 6.07875e-05 1 0 0
207 2 6 -1 0 1 2 8 8.6652e-05 1 0 0
208 2 7 -1 0 1 2 8 0.000112461 1 0 0
209 2 8 -1 0 1 2 8 0.000135634 1 0 0
210 2 9 -1 0 1 2 8 0.000154949 1 0 0
211 2 10 -1 0 1 2 8 0.000170439 1 0 0
212 2 11 -1 0 1 2 8 0.000182936 1 0 0
213 2 12 -1 0 1 2 8 0.000193463 1 0 0
214 2 13 -1 0 1 2 8 0.000202562 1 0 0
215 2 14 -1 0 1 2 8 0.000210021 1 0 0
216 2 15 -1 0 1 2 8 0.000215469 1 0 0
217 2 16 -1 0 1 2 8 0.000219233 1 0 0
218 2 17 -1 0 1 2 8 0.000222248 1 0 0
219 2 18 -1 0 1 2 8 0.00022506 1 0 0
220 2 19 -1 0 1 2 8 0.000227215 1 0 0
221 2 20 -1 0 1 2 8 0.000227747 1 0 0
222 2 21 -1 0 1 2 8 0.000226128 1 0 0
223 2 22 -1 0 1 2 8 0.000222768 1 0 0
224 2 23 -1 0 1 2 8 0.000218927 1 0 0
225 2 24 -1 0 1 2 8 0.000216318 1 0 0
226 2 25 -1 0 1 2 8 0.000216354 1 0 0
227 2 26 -1 0 1 2 8 0.000219248 1 0 0
228 2 27 -1 0 1 2 8 0.000223858 1 0 0
229 2 28 -1 0 1 2 8 0.000228632 1 0 0
230 2 29 -1 0 1 2 8 0.000232722 1 0 0
231 2 30 -1 0 1 2 8 0.000236089 1 0 0
232 2 31 -1 0 1 2 8 0.00023874 1 0 0
233 2 32 -1 0 1 2 8 0.000240325 1 0 0
234 2 33 -1 0 1 2 8 0.000240606 1 0 0
235 2 34 -1 0 1 2 8 0.00023998 1 0 0
236 2 35 -1 0 1 2 8 0.000239209 1 0 0
237 2 36 -1 0 1 2 8 0.000238651 1 0 0
238 2 37 -1 0 1 2 8 0.000237942 1 0 0
239 2 38 -1 0 1 2 8 0.000236335 1 0 0
240 2 39 -1 0 1 2 8 0.000233314 1 0 0
241 2 40 -1 0 1 2 8 0.000229088 1 0 0
242 2 41 -1 0 1 2 8 0.000224809 1 0 0
243 2 42 -1 0 1 2 8 0.000222181 1 0 0
244 2 43 -1 0 1 2 8 0.000222409 1 0 0
245 2 44 -1 0 1 2 8 0.000225168 1 0 0
246 2 45 -1 0 1 2 8 0.000228592 1 0 0
247 2 46 -1 0 1 2 8 0.000230519 1 0 0
248 2 47 -1 0 1 2 8 0.000230031 1 0 0
249 2 48 -1 0 1 2 8 0.000227987 1 0 0
250 2 49 -1 0 1 2 8 0.00022625 1 0 0
251 2 0 0 0 1 2 8 1.04585e-05 1 0 0
252 2 1 0 0 1 2 8 1.56898e-05 1 0 0
301 2 0 1 0 1 2 8 2.84257e-05 1 0 0
302 2 1 1 0 1 2 8 4.3756e-05 1 0 0
253 2 2 0 0 1 2 8 3.42735e-05 1 0 0
254 2 3 0 0 1 2 8 7.16686e-05 1 0 0
303 2 2 1 0 1 2 8 9.91088e-05 1 0 0
304 2 3 1 0 1 2 8 0.00021345 1 0 0
255 2 4 0 0 1 2 8 0.000132358 1 0 0
305 2 4 1 0 1 2 8 0.000403871 1 0 0
256 2 5 0 0 1 2 8 0.000214515 1 0 0
257 2 6 0 0 1 2 8 0.000308519 1 0 0
306 2 5 1 0 1 2 8 0.000665803 1 0 0
307 2 6 1 0 1 2 8 0.000965423 1 0 0
258 2 7 0 0 1 2 8 0.000401977 1 0 0
259 2 8 0 0 1 2 8 0.000485761 1 0 0
308 2 7 1 0 1 2 8 0.00126091 1 0 0
309 2 8 1 0 1 2 8 0.00152539 1 0 0
260 2 9 0 0 1 2 8 0.000555934 1 0 0
310 2 9 1 0 1 2 8 0.00174885 1 0 0
261 2 10 0 0 1 2 8 0.000612823 1 0 0
262 2 11 0 0 1 2 8 0.000659362 1 0 0
311 2 10 1 0 1 2 8 0.00193287 1 0 0
312 2 11 1 0 1 2 8 0.00208611 1 0 0
263 2 12 0 0 1 2 8 0.000699119 1 0 0
264 2 13 0 0 1 2 8 0.000733935 1 0 0
313 2 12 1 0 1 2 8 0.00221906 1 0 0
314 2 13 1 0 1 2 8 0.00233713 1 0 0
265 2 14 0 0 1 2 8 0.000762689 1 0 0
315 2 14 1 0 1 2 8 0.00243573 1 0 0
266 2 15 0 0 1 2 8 0.00078366 1 0 0
267 2 16 0 0 1 2 8 0.000798199 1 0 0
316 2 15 1 0 1 2 8 0.00250819 1 0 0
317 2 16 1 0 1 2 8 0.00255925 1 0 0
268 2 17 0 0 1 2 8 0.000810281 1 0 0
269 2 18 0 0 1 2 8 0.000822184 1 0 0
318 2 17 1 0 1 2 8 0.00260334 1 0 0
319 2 18 1 0 1 2 8 0.00264843 1 0 0
270 2 19 0 0 1 2 8 0.000832003 1 0 0
320 2 19 1 0 1 2 8 0.00268747 1 0 0
271 2 20 0 0 1 2 8 0.000835863 1 0 0
272 2 21 0 0 1 2 8 0.000831744 1 0 0
321 2 20 1 0 1 2 8 0.00270715 1 0 0
322 2 21 1 0 1 2 8 0.00270133 1 0 0
273 2 22 0 0 1 2 8 0.000821081 1 0 0
274 2 23 0 0 1 2 8 0.000808241 1 0 0
323 2 22 1 0 1 2 8 0.00267463 1 0 0
324 2 23 1 0 1 2 8 0.00263964 1 0 0
275 2 24 0 0 1 2 8 0.000799421 1 0 0
325 2 24 1 0 1 2 8 0.00261529 1 0 0
276 2 25 0 0 1 2 8 0.000800098 1 0 0
277 2 26 0 0 1 2 8 0.000811232 1 0 0
326 2 25 1 0 1 2 8 0.00262006 1 0 0
327 2 26 1 0 1 2 8 0.00265784 1 0 0
278 2 27 0 0 1 2 8 0.000828306 1 0 0
279 2 28 0 0 1 2 8 0.000845202 1 0 0
328 2 27 1 0 1 2 8 0.00271334 1 0 0
329 2 28 1 0 1 2 8 0.00276555 1 0 0
280 2 29 0 0 1 2 8 0.000858982 1 0 0
330 2 29 1 0 1 2 8 0.00280567 1 0 0
281 2 30 0 0 1 2 8 0.000870215 1 0 0
282 2 31 0 0 1 2 8 0.000879413 1 0 0
331 2 30 1 0 1 2 8 0.0028382 1 0 0
332 2 31 1 0 1 2 8 0.00286647 1 0 0
283 2 32 0 0 1 2 8 0.000885151 1 0 0
284 2 33 0 0 1 2 8 0.000886202 1 0 0
333 2 32 1 0 1 2 8 0.00288526 1 0 0
334 2 33 1 0 1 2 8 0.00288924 1 0 0
285 2 34 0 0 1 2 8 0.00088401 1 0 0
335 2 34 1 0 1 2 8 0.00288295 1 0 0
286 2 35 0 0 1 2 8 0.000881604 1 0 0
287 2 36 0 0 1 2 8 0.000880357 1 0 0
336 2 35 1 0 1 2 8 0.00287699 1 0 0
337 2 36 1 0 1 2 8 0.00287588 1 0 0
288 2 37 0 0 1 2 8 0.000878732 1 0 0
289 2 38 0 0 1 2 8 0.000873801 1 0 0
338 2 37 1 0 1 2 8 0.00287399 1 0 0
339 2 38 1 0 1 2 8 0.00286158 1 0 0
290 2 39 0 0 1 2 8 0.000863475 1 0 0
340 2 39 1 0 1 2 8 0.00283172 1 0 0
291 2 40 0 0 1 2 8 0.000848272 1 0 0
292 2 41 0 0 1 2 8 0.000832327 1 0 0
341 2 40 1 0 1 2 8 0.00278514 1 0 0
342 2 41 1 0 1 2 8 0.00273422 1 0 0
293 2 42 0 0 1 2 8 0.000822213 1 0 0
294 2 43 0 0 1 2 8 0.000822829 1 0 0
343 2 42 1 0 1 2 8 0.00270078 1 0 0
344 2 43 1 0 1 2 8 0.00270197 1 0 0
295 2 44 0 0 1 2 8 0.000833149 1 0 0
345 2 44 1 0 1 2 8 0.00273514 1 0 0
296 2 45 0 0 1 2 8 0.000846002 1 0 0
297 2 46 0 0 1 2 8 0.00085302 1 0 0
346 2 45 1 0 1 2 8 0.00277653 1 0 0
347 2 46 1 0 1 2 8 0.00279821 1 0 0
298 2 47 0 0 1 2 8 0.00085076 1 0 0
299 2 48 0 0 1 2 8 0.000842653 1 0 0
348 2 47 1 0 1 2 8 0.00278931 1 0 0
349 2 48 1 0 1 2 8 0.00276168 1 0 0
300 2 49 0 0 1 2 8 0.000835878 1 0 0
350 2 49 1 0 1 2 8 0.00273896 1 0 0
351 2 0 2 0 1 2 8 6.77628e-05 1 0 0
352 2 1 2 0 1 2 8 0.000106715 1 0 0
401 2 0 3 0 1 2 8 0.000141159 1 0 0
402 2 1 3 0 1 2 8 0.000226547 1 0 0
353 2 2 2 0 1 2 8 0.000249042 1 0 0
354 2 3 2 0 1 2 8 0.000548978 1 0 0
403 2 2 3 0 1 2 8 0.000539631 1 0 0
404 2 3 3 0 1 2 8 0.00120132 1 0 0
355 2 4 2 0 1 2 8 0.00106119 1 0 0
405 2 4 3 0 1 2 8 0.00233951 1 0 0
356 2 5 2 0 1 2 8 0.00177988 1 0 0
357 2 6 2 0 1 2 8 0.00259675 1 0 0
406 2 5 3 0 1 2 8 0.00400077 1 0 0
407 2 6 3 0 1 2 8 0.00585818 1 0 0
358 2 7 2 0 1 2 8 0.00338879 1 0 0
359 2 8 2 0 1 2 8 0.00409721 1 0 0
408 2 7 3 0 1 2 8 0.00757859 1 0 0
409 2 8 3 0 1 2 8 0.00912914 1 0 0
360 2 9 2 0 1 2 8 0.00470485 1 0 0
410 2 9 3 0 1 2 8 0.010495 1 0 0
361 2 10 2 0 1 2 8 0.00521635 1 0 0
362 2 11 2 0 1 2 8 0.00565209 1 0 0
411 2 10 3 0 1 2 8 0.0116774 1 0 0
412 2 11 3 0 1 2 8 0.012715 1 0 0
363 2 12 2 0 1 2 8 0.00603671 1 0 0
364 2 13 2 0 1 2 8 0.00638318 1 0 0
413 2 12 3 0 1 2 8 0.0136498 1 0 0
414 2 13 3 0 1 2 8 0.0145032 1 0 0
365 2 14 2 0 1 2 8 0.00667737 1 0 0
415 2 14 3 0 1 2 8 0.0152466 1 0 0
366 2 15 2 0 1 2 8 0.00689821 1 0 0
367 2 16 2 0 1 2 8 0.00705933 1 0 0
416 2 15 3 0 1 2 8 0.0158273 1 0 0
417 2 16 3 0 1 2 8 0.0162755 1 0 0
368 2 17 2 0 1 2 8 0.00720369 1 0 0
369 2 18 2 0 1 2 8 0.00735364 1 0 0
418 2 17 3 0 1 2 8 0.0166911 1 0 0
419 2 18 3 0 1 2 8 0.0171199 1 0 0
370 2 19 2 0 1 2 8 0.00748675 1 0 0
420 2 19 3 0 1 2 8 0.0175032 1 0 0
371 2 20 2 0 1 2 8 0.0075655 1 0 0
372 2 21 2 0 1 2 8 0.00757651 1 0 0
421 2 20 3 0 1 2 8 0.0177565 1 0 0
422 2 21 3 0 1 2 8 0.0178678 1 0 0
373 2 22 2 0 1 2 8 0.00753364 1 0 0
374 2 23 2 0 1 2 8 0.00746469 1 0 0
423 2 22 3 0 1 2 8 0.0178775 1 0 0
424 2 23 3 0 1 2 8 0.0178201 1 0 0
375 2 24 2 0 1 2 8 0.00741609 1 0 0
425 2 24 3 0 1 2 8 0.0177788 1 0 0
376 2 25 2 0 1 2 8 0.00744034 1 0 0
377 2 26 2 0 1 2 8 0.00755076 1 0 0
426 2 25 3 0 1 2 8 0.0178778 1 0 0
427 2 26 3 0 1 2 8 0.0181473 1 0 0
378 2 27 2 0 1 2 8 0.00770522 1 0 0
379 2 28 2 0 1 2 8 0.00784308 1 0 0
428 2 27 3 0 1 2 8 0.0185079 1 0 0
429 2 28 3 0 1 2 8 0.0188143 1 0 0
380 2 29 2 0 1 2 8 0.00794221 1 0 0
430 2 29 3 0 1 2 8 0.0190189 1 0 0
381 2 30 2 0 1 2 8 0.00802304 1 0 0
382 2 31 2 0 1 2 8 0.0080993 1 0 0
431 2 30 3 0 1 2 8 0.0191936 1 0 0
432 2 31 3 0 1 2 8 0.0193749 1 0 0
383 2 32 2 0 1 2 8 0.00815447 1 0 0
384 2 33 2 0 1 2 8 0.00816945 1 0 0
433 2 32 3 0 1 2 8 0.01952 1 0 0
434 2 33 3 0 1 2 8 0.0195735 1 0 0
385 2 34 2 0 1 2 8 0.00815607 1 0 0
435 2 34 3 0 1 2 8 0.0195571 1 0 0
386 2 35 2 0 1 2 8 0.00814644 1 0 0
387 2 36 2 0 1 2 8 0.00815279 1 0 0
436 2 35 3 0 1 2 8 0.0195583 1 0 0
437 2 36 3 0 1 2 8 0.0196021 1 0 0
388 2 37 2 0 1 2 8 0.00815735 1 0 0
389 2 38 2 0 1 2 8 0.00813383 1 0 0
438 2 37 3 0 1 2 8 0.019638 1 0 0
439 2 38 3 0 1 2 8 0.0196119 1 0 0
390 2 39 2 0 1 2 8 0.00806466 1 0 0
440 2 39 3 0 1 2 8 0.0194978 1 0 0
391 2 40 2 0 1 2 8 0.00794889 1 0 0
392 2 41 2 0 1 2 8 0.00781533 1 0 0
441 2 40 3 0 1 2 8 0.0192875 1 0 0
442 2 41 3 0 1 2 8 0.0190167 1 0 0
393 2 42 2 0 1 2 8 0.00772424 1 0 0
394 2 43 2 0 1 2 8 0.00772546 1 0 0
443 2 42 3 0 1 2 8 0.0188253 1 0 0
444 2 43 3 0 1 2 8 0.0188258 1 0 0
395 2 44 2 0 1 2 8 0.00781377 1 0 0
445 2 44 3 0 1 2 8 0.0190122 1 0 0
396 2 45 2 0 1 2 8 0.00792379 1 0 0
397 2 46 2 0 1 2 8 0.0079781 1 0 0
446 2 45 3 0 1 2 8 0.0192444 1 0 0
447 2 46 3 0 1 2 8 0.0193477 1 0 0
398 2 47 2 0 1 2 8 0.00794931 1 0 0
399 2 48 2 0 1 2 8 0.00787183 1 0 0
448 2 47 3 0 1 2 8 0.0192747 1 0 0
449 2 48 3 0 1 2 8 0.0191091 1 0 0
400 2 49 2 0 1 2 8 0.00780901 1 0 0
450 2 49 3 0 1 2 8 0.0189721 1 0 0
451 2 0 4 0 1 2 8 0.000257374 1 0 0
452 2 1 4 0 1 2 8 0.00041942 1 0 0
453 2 2 4 0 1 2 8 0.00101186 1 0 0
454 2 3 4 0 1 2 8 0.00223808 1 0 0
455 2 4 4 0 1 2 7 0.00420916 1 0 0
456 2 5 4 0 1 2 6 0.00735321 1 0 0
457 2 6 4 0 1 2 5 0.0105534 1 0 0
506 1 5.49738 4.86524 0 1.0006 2 0 0.0123885 1 -0.00021842 -0.00079332
507 1 6.49757 4.86391 0 1.02569 2 0 0.0153639 1 -0.00425077 0.000490628
458 2 7 4 0 1 2 5 0.0133086 1 0 0
459 2 8 4 0 1 2 5 0.0158954 1 0 0
508 1 7.49577 4.86517 0 1.03193 2 0 0.0183914 1 0.00290391 -0.000910652
460 2 9 4 0 1 2 5 0.0182545 1 0 0
510 1 8.49569 4.86555 0 1.01036 2 0 0.0213006 1 -0.000609102 -0.00500634
511 1 9.49502 4.86454 0 1.00136 2 0 0.0240077 1 0.00112967 -0.00321418
461 2 10 4 0 1 2 5 0.0203699 1 0 0
462 2 11 4 0 1 2 5 0.0223054 1 0 0
512 1 10.4963 4.86175 0 1.01573 2 0 0.0265897 1 -0.00195155 0.00529606
513 1 11.4955 4.86303 0 1.01534 2 0 0.0290451 1 -0.000762407 -0.00564016
463 2 12 4 0 1 2 5 0.0240918 1 0 0
464 2 13 4 0 1 2 5 0.0257382 1 0 0
514 1 12.4947 4.86202 0 1.01802 2 0 0.03134 1 0.00255497 -0.00227779
465 2 14 4 0 1 2 5 0.0272203 1 0 0
515 1 13.495 4.86151 0 1.02031 2 0 0.0334811 1 0.000708681 0.00223167
516 1 14.4969 4.86147 0 1.0096 2 0 0.0354415 1 -0.00152266 -0.0013014
466 2 15 4 0 1 2 5 0.0284544 1 0 0
467 2 16 4 0 1 2 5 0.029482 1 0 0
518 1 16.4971 4.86052 0 1.02515 2 0 0.0388557 1 0.000825393 -0.000118452
517 1 15.4959 4.86125 0 1.02614 2 0 0.03721 1 0.00314194 -0.00183295
468 2 17 4 0 1 2 5 0.0304558 1 0 0
469 2 18 4 0 1 2 5 0.0314235 1 0 0
519 1 17.4972 4.86105 0 1.0239 2 0 0.0403956 1 0.00122255 -0.000214635
470 2 19 4 0 1 2 5 0.0322856 1 0 0
520 1 18.4985 4.8618 0 1.00577 2 0 0.0418022 1 0.00097913 -0.00143643
521 1 19.5016 4.86133 0 1.00453 2 0 0.043033 1 -0.00250662 -0.000130877
471 2 20 4 0 1 2 5 0.0329169 1 0 0
472 2 21 4 0 1 2 5 0.0333401 1 0 0
523 1 21.5012 4.86183 0 1.02268 2 0 0.0450264 1 -0.00193509 -0.00343003
522 1 20.5013 4.86053 0 1.0139 2 0 0.0440825 1 -0.000210247 0.000827463
473 2 22 4 0 1 2 5 0.03365 1 0 0
474 2 23 4 0 1 2 5 0.0338322 1 0 0
524 1 22.5006 4.86135 0 1.01383 2 0 0.0458716 1 0.00139597 0.0023133
475 2 24 4 0 1 2 5 0.0339761 1 0 0
525 1 23.501 4.8631 0 1.03669 2 0 0.0466085 1 -0.00300369 -0.0036506
526 1 24.4999 4.86273 0 1.04245 2 0 0.0473227 1 0.00159438 -0.000669157
476 2 25 4 0 1 2 5 0.0342902 1 0 0
477 2 26 4 0 1 2 5 0.0348079 1 0 0
528 1 26.5002 4.86296 0 1.04147 2 0 0.0488357 1 -0.000595041 0.000253816
527 1 25.5003 4.86328 0 1.03798 2 0 0.0480695 1 -0.00050883 -0.00217374
478 2 27 4 0 1 2 5 0.0354566 1 0 0
479 2 28 4 0 1 2 5 0.0359941 1 0 0
529 1 27.5003 4.86326 0 1.0019 2 0 0.0495591 1 -0.00271423 -0.00209969
480 2 29 4 0 1 2 5 0.0363563 1 0 0
531 1 29.4995 4.86312 0 1.01679 2 0 0.0507863 1 0.000728996 -0.000410069
530 1 28.4997 4.86276 0 1.02091 2 0 0.0502084 1 0.000851687 0.000704606
481 2 30 4 0 1 2 5 0.0366908 1 0 0
482 2 31 4 0 1 2 5 0.0370518 1 0 0
533 1 31.4992 4.8634 0 1.004 2 0 0.0518329 1 0.000584918 -6.38857e-05
532 1 30.4999 4.8637 0 1.0182 2 0 0.0513252 1 -0.000787112 -0.000772637
483 2 32 4 0 1 2 5 0.0373676 1 0 0
484 2 33 4 0 1 2 5 0.0375289 1 0 0
534 1 32.5006 4.86357 0 1.00171 2 0 0.0522497 1 -0.00108884 -3.63231e-05
485 2 34 4 0 1 2 5 0.0375515 1 0 0
535 1 33.5011 4.86351 0 1.00275 2 0 0.0525486 1 -0.00294995 0.000873145
536 1 34.5004 4.86433 0 1.0237 2 0 0.052783 1 0.000862564 -0.00317828
486 2 35 4 0 1 2 5 0.037619 1 0 0
487 2 36 4 0 1 2 5 0.0377682 1 0 0
538 1 36.4998 4.86419 0 1.01227 2 0 0.0533018 1 0.00188477 -0.00397814
537 1 35.5 4.86295 0 1.0067 2 0 0.0530467 1 0.000364483 0.00272377
488 2 37 4 0 1 2 5 0.0378865 1 0 0
489 2 38 4 0 1 2 5 0.0379021 1 0 0
539 1 37.4995 4.86341 0 1.00174 2 0 0.0534723 1 0.0005993 0.00248506
490 2 39 4 0 1 2 5 0.0378131 1 0 0
541 1 39.4983 4.86339 0 1.00168 2 0 0.0535758 1 0.00277666 -0.00218138
540 1 38.4986 4.8633 0 1.01715 2 0 0.0535648 1 0.00214186 0.00040037
491 2 40 4 0 1 2 5 0.037599 1 0 0
492 2 41 4 0 1 2 5 0.037248 1 0 0
542 1 40.4993 4.86273 0 1.01016 2 0 0.0535185 1 -0.000770217 0.000888357
543 1 41.4993 4.8634 0 1.03252 2 0 0.0534679 1 -0.000347923 -0.00184162
493 2 42 4 0 1 2 5 0.0369996 1 0 0
494 2 43 4 0 1 2 5 0.0370183 1 0 0
544 1 42.4993 4.86286 0 1.0319 2 0 0.0535138 1 -0.00196783 -0.00152664
495 2 44 4 0 1 2 5 0.0372934 1 0 0
545 1 43.499 4.86188 0 1.03659 2 0 0.0536421 1 -0.000503866 0.00155567
546 1 44.4986 4.86231 0 1.01001 2 0 0.0538128 1 0.00154499 -0.000715567
496 2 45 4 0 1 2 5 0.0376355 1 0 0
497 2 46 4 0 1 2 5 0.0377731 1 0 0
548 1 46.5016 4.86301 0 1.00807 2 0 0.0541041 1 -0.00289306 -0.00187937
547 1 45.5004 4.86272 0 1.00173 2 0 0.0539965 1 0.000491522 0.000539494
498 2 47 4 0 1 2 5 0.0376633 1 0 0
499 2 48 4 0 1 2 5 0.0374474 1 0 0
549 1 47.5007 4.86243 0 1.02093 2 0 0.0541239 1 0.000193992 0.0021084
500 2 49 4 0 1 2 5 0.0372688 1 0 0
550 1 48.5011 4.86286 0 1.02225 2 0 0.0541738 1 -0.00125549 -0.00206631
8501 1 49.5005 4.86296 0 1.06187 2 0 0.0542798 1 0.000605567 -0.00235931
501 2 0 5 0 1 2 8 0.000414153 1 0 0
502 2 1 5 0 1 2 8 0.000683117 1 0 0
551 2 0 6 0 1 2 8 0.00059729 1 0 0
552 2 1 6 0 1 2 8 0.0009945 1 0 0
503 2 2 5 0 1 2 8 0.00166109 1 0 0
504 2 3 5 0 1 2 8 0.00365752 1 0 0
553 2 2 6 0 1 2 8 0.00242712 1 0 0
554 2 3 6 0 1 2 8 0.00530766 1 0 0
505 2 4 5 0 1 2 6 0.00677605 1 0 0
555 2 4 6 0 1 2 5 0.00952884 1 0 0
556 1 4.95627 5.70762 0 1.02426 2 0 0.0131719 1 5.27673e-05 -6.61334e-05
557 1 5.96119 5.74849 0 1.00456 2 0 0.0169894 1 0.000248524 -7.48012e-05
558 1 6.96632 5.74352 0 1.00032 2 0 0.0203914 1 0.00134451 0.00292911
509 1 7.99379 5.72849 0 1.00999 2 0 0.0238645 1 -0.00168961 0.0015836
560 1 8.99334 5.72863 0 1.01571 2 0 0.0271179 1 0.00210795 -0.00173275
561 1 9.99347 5.72598 0 1.04128 2 0 0.0302877 1 -0.00208464 0.00155992
562 1 10.9921 5.72537 0 1.02468 2 0 0.0333465 1 -0.00101594 0.000311457
563 1 11.9911 5.72361 0 1.00884 2 0 0.0362455 1 0.00131938 0.00574839
565 1 12.9902 5.72345 0 1.01555 2 0 0.0390187 1 0.00211158 -0.00176036
566 1 13.9935 5.72211 0 1.01485 2 0 0.041631 1 -0.00237984 0.00229068
567 1 14.9941 5.72258 0 1.00349 2 0 0.0440578 1 -0.00105534 0.000343388
568 1 15.9947 5.72086 0 1.02492 2 0 0.0463555 1 -0.000916573 0.0026373
569 1 17.9959 5.72189 0 1.01386 2 0 0.050457 1 8.50704e-05 0.00144647
618 1 16.9944 5.72132 0 1.00786 2 0 0.0484951 1 0.000434605 0.00186122
570 1 19 5.72199 0 1.00562 2 0 0.0522345 1 -0.000682975 0.00135162
571 1 20.0027 5.72173 0 1.00943 2 0 0.0538525 1 -0.00309518 0.000439804
572 1 21.0008 5.7221 0 1.02492 2 0 0.055369 1 0.0027137 0.00221018
573 1 22.0006 5.72306 0 1.00977 2 0 0.0567514 1 0.00179514 0.000771544
574 1 23.0001 5.72425 0 1.00488 2 0 0.0580088 1 0.0014791 -0.000697982
575 1 23.9999 5.72581 0 1.01237 2 0 0.059193 1 0.000767809 -0.00211452
576 1 24.9991 5.72518 0 1.01087 2 0 0.0602887 1 0.00282753 0.00148964
577 1 25.9998 5.7261 0 1.01133 2 0 0.061309 1 0.000521722 -0.00168446
579 1 26.9996 5.7261 0 1.01129 2 0 0.0622393 1 -0.00106366 -0.000224979
580 1 27.9993 5.72576 0 1.02117 2 0 0.0631373 1 -0.000398036 0.00183452
581 1 28.999 5.72591 0 1.01861 2 0 0.0639725 1 -0.000862095 0.000288313
632 1 29.9989 5.72638 0 1.0167 2 0 0.0646842 1 -0.000123669 0.00176994
582 1 30.9994 5.72771 0 1.0143 2 0 0.0653502 1 -0.00290533 -0.00178529
583 1 31.9986 5.72631 0 1.0088 2 0 0.0659515 1 0.00175121 0.00234942
584 1 33.0003 5.72701 0 1.00514 2 0 0.0664892 1 -0.00127555 -0.000911417
585 1 34.0006 5.72749 0 1.02197 2 0 0.0669974 1 -0.000652114 0.000223341
586 1 35.001 5.72748 0 1.02669 2 0 0.0674308 1 -0.000423465 -0.0011709
587 1 36.0008 5.72637 0 1.01702 2 0 0.0678197 1 -0.00130396 0.00418341
588 1 37.0007 5.7278 0 1.01798 2 0 0.0681274 1 -0.00171374 -0.00161762
589 1 38.0002 5.72784 0 1.01656 2 0 0.0683486 1 -0.00370586 -0.00202551
590 1 38.9992 5.72625 0 1.01208 2 0 0.068501 1 -0.00193715 0.00350467
591 1 39.9987 5.7262 0 1.01334 2 0 0.0686374 1 0.000140683 -0.000970879
592 1 40.9977 5.72594 0 1.02633 2 0 0.068845 1 0.00342404 0.00100396
594 1 42.9983 5.72474 0 1.01497 2 0 0.0691216 1 0.000209327 0.00100845
593 1 41.9986 5.7259 0 1.02837 2 0 0.0690214 1 -0.000147299 -0.00161587
595 1 43.9976 5.72426 0 1.01694 2 0 0.0691632 1 0.00153855 0.000975663
596 1 44.9985 5.72404 0 1.01116 2 0 0.0692528 1 -0.000148191 0.000718175
597 1 46.0018 5.72531 0 1.01212 2 0 0.0694539 1 -0.0022743 -0.00110605
598 1 47.0008 5.72608 0 1.00861 2 0 0.0696454 1 0.00483478 -0.00231051
599 1 48.0014 5.72471 0 1.02545 2 0 0.069842 1 0.000361384 0.00136661
600 1 49.0011 5.72556 0 1.00476 2 0 0.07007 1 0.0022981 -0.00260917
2800 1 48.7868 46.1967 0 1.00726 0 0 0.486147 1 9.59965e-05 -5.15574e-06
601 2 0 7 0 1 2 8 0.000787421 1 0 0
602 2 1 7 0 1 2 8 0.001322 1 0 0
651 2 0 8 0 1 2 8 0.000966801 1 0 0
652 2 1 8 0 1 2 8 0.00163665 1 0 0
603 2 2 7 0 1 2 8 0.00323773 1 0 0
604 2 3 7 0 1 2 8 0.00706484 1 0 0
653 2 2 8 0 1 2 8 0.00402737 1 0 0
654 2 3 8 0 1 2 8 0.00882156 1 0 0
605 2 4 7 0 1 2 5 0.0124413 1 0 0
655 2 4 8 0 1 2 5 0.0152475 1 0 0
656 1 4.87721 7.48398 0 1.01253 2 0 0.017833 1 0 -5e-05
606 1 5.38075 6.61549 0 1.01839 2 0 0.0177917 1 0 -5e-05
607 1 6.38054 6.65377 0 1.01626 2 0 0.0218474 1 0.00195742 0.00417564
657 1 5.88616 7.52516 0 1.02523 2 0 0.022712 1 -0.000341054 -0.000505069
608 1 7.49178 6.59238 0 1.01581 2 0 0.0260068 1 -0.000771627 0.00136604
609 1 7.9925 7.45607 0 1.00447 2 0 0.0318219 1 -0.00307286 -0.00210903
658 1 6.98253 7.45373 0 1.00499 2 0 0.0275045 1 -0.00129682 -0.00227606
559 1 8.49207 6.5917 0 1.01669 2 0 0.0297642 1 -0.000276048 0.00336848
610 1 9.49122 6.59173 0 1.00382 2 0 0.0334762 1 0.00281917 -0.000728225
661 1 8.9922 7.45586 0 1.00906 2 0 0.0360522 1 -0.00119757 -0.00100281
612 1 9.99089 7.45578 0 1.00002 2 0 0.0402185 1 -0.00383201 0.000201247
611 1 10.4899 6.58953 0 1.00368 2 0 0.0371048 1 1.1774e-05 -0.0012056
564 1 11.489 6.58741 0 1.01095 2 0 0.0406087 1 -0.000371149 -0.00150963
613 1 10.9879 7.45115 0 1.00877 2 0 0.0443262 1 0.00146344 0.00315131
614 1 12.4879 6.58606 0 1.01882 2 0 0.0439967 1 0.000408183 -0.00212948
665 1 12.9855 7.44668 0 1.00809 2 0 0.0522321 1 0.000702826 -0.00139194
664 1 11.9861 7.44898 0 1.0022 2 0 0.0483382 1 0.0010816 0.000222424
615 1 13.4876 6.58343 0 1.00601 2 0 0.0472543 1 0.00164081 0.000962987
616 1 14.49 6.5833 0 1.00878 2 0 0.0503179 1 -0.00160852 -0.00058848
666 1 13.9851 7.44428 0 0.997531 2 0 0.0559513 1 -0.000628446 -0.000764059
667 1 14.9867 7.44329 0 1.00922 2 0 0.0595091 1 0.00120557 0.00128775
617 1 15.4925 6.5825 0 1.01132 2 0 0.0532339 1 -0.00282897 0.00204627
668 1 15.9886 7.44394 0 1.01232 2 0 0.0629059 1 0.000268553 -0.000475566
619 1 16.4916 6.58221 0 1.00791 2 0 0.0560075 1 0.000345441 0.000111777
669 1 17.4928 6.58216 0 1.0115 2 0 0.0585977 1 -0.000551529 0.00150144
719 1 16.9887 7.44263 0 1.0104 2 0 0.0661327 1 -0.000455691 -0.000108199
720 1 17.9927 7.44228 0 1.00384 2 0 0.0691626 1 0.00230439 -0.000363007
620 1 18.4963 6.58227 0 1.00047 2 0 0.0609888 1 0.000380642 -0.00020559
621 1 19.5024 6.5817 0 1.01086 2 0 0.0632011 1 -0.00296674 -0.000227808
670 1 19.0001 7.44093 0 1.01205 2 0 0.0719996 1 -0.00248101 0.000123599
671 1 19.9992 7.44411 0 1.01101 2 0 0.0746524 1 0.00315307 -0.00315877
622 1 20.5014 6.58416 0 1.02282 2 0 0.0652831 1 0.000539359 -0.00208829
623 1 21.5008 6.5837 0 1.01715 2 0 0.0671823 1 0.00080134 0.00140103
672 1 21.0012 7.44501 0 1.01032 2 0 0.0770783 1 -0.00328948 0.00171069
673 1 21.9995 7.44646 0 1.00705 2 0 0.0792664 1 0.00224988 0.000766625
624 1 22.5006 6.58565 0 1.00933 2 0 0.068874 1 -0.00119267 0.000284653
674 1 23.0002 7.4483 0 1.01197 2 0 0.0812841 1 -0.00305657 0.00100233
625 1 23.5 6.58706 0 1.01358 2 0 0.0704631 1 0.00108046 -0.000108459
626 1 24.5002 6.58821 0 1.01095 2 0 0.0719428 1 -0.00125061 0.000586765
675 1 23.9994 7.45021 0 1.00974 2 0 0.0831731 1 0.000860591 0.000313845
676 1 24.9992 7.45168 0 1.01754 2 0 0.0848955 1 -0.00313979 -0.000115709
578 1 26.4987 6.58932 0 1.0136 2 0 0.0745611 1 0.000562891 0.000294097
628 1 25.9979 7.45253 0 1.00647 2 0 0.0864744 1 0.000509578 -3.14024e-05
627 1 25.4995 6.58818 0 1.0116 2 0 0.073304 1 -0.0013557 0.00227427
629 1 27.498 6.58916 0 1.00585 2 0 0.0757481 1 0.000342768 0.000897106
679 1 27.9965 7.45252 0 1.01276 2 0 0.0893652 1 0.0010309 0.00197363
678 1 26.9971 7.45307 0 1.01987 2 0 0.0879614 1 0.000316378 -0.00100012
630 1 28.4975 6.58906 0 1.00031 2 0 0.0768919 1 0.00057903 0.00127944
631 1 29.4969 6.58918 0 1.01679 2 0 0.0779066 1 0.00223829 0.00300668
680 1 28.9961 7.45302 0 1.0041 2 0 0.0906846 1 0.000359043 -0.000382541
681 1 29.996 7.45344 0 1.0067 2 0 0.0918924 1 -0.0010189 0.000571174
682 1 30.4971 6.59088 0 1.0233 2 0 0.0787819 1 0.000879082 -0.00246024
633 1 31.4983 6.5906 0 1.00197 2 0 0.0795733 1 0.00128797 0.000304705
732 1 30.9975 7.45378 0 1.02086 2 0 0.0929444 1 -0.000665357 0.000100238
683 1 31.9981 7.45409 0 1.00602 2 0 0.0938865 1 -0.00048032 0.000313068
684 1 32.4981 6.59014 0 1.01173 2 0 0.0803105 1 0.00106561 -0.000277601
734 1 32.999 7.45345 0 1.01306 2 0 0.0947813 1 0.000644741 -0.00095632
634 1 33.499 6.59005 0 1.00318 2 0 0.0810227 1 0.00134403 0.00194764
635 1 34.5007 6.59077 0 1.01335 2 0 0.0816937 1 -0.00105263 -0.000365548
685 1 33.999 7.45374 0 1.01182 2 0 0.0956253 1 0.00157691 -0.00043924
686 1 35.0004 7.4536 0 1.01566 2 0 0.0963915 1 -0.000863896 0.00214183