ITEM: TIMESTEP
35000
ITEM: NUMBER OF ATOMS
15950
ITEM: BOX BOUNDS pp pp pp
0.0000000000000000e+00 1.0000000000000000e+02
-5.0000000000000000e+00 2.0000000000000000e+02
-5.0000000000000000e-01 5.0000000000000000e-01
ITEM: ATOMS id type x y z c_rho c_phase c_nbond c_temp f_rheo_chi_chi fx fy
1 2 0 -5 0 1 2 8 7.58941e-09 1 0 0
2 2 1 -5 0 1 2 8 1.02348e-08 1 0 0
51 2 0 -4 0 1 2 8 3.6647e-08 1 0 0
52 2 1 -4 0 1 2 8 5.05655e-08 1 0 0
3 2 2 -5 0 1 2 8 1.90419e-08 1 0 0
4 2 3 -5 0 1 2 8 3.52516e-08 1 0 0
53 2 2 -4 0 1 2 8 9.74133e-08 1 0 0
54 2 3 -4 0 1 2 8 1.84511e-07 1 0 0
5 2 4 -5 0 1 2 7 6.08814e-08 1 0 0
55 2 4 -4 0 1 2 8 3.16634e-07 1 0 0
6 2 5 -5 0 1 2 6 9.8659e-08 1 0 0
7 2 6 -5 0 1 2 5 1.4057e-07 1 0 0
56 2 5 -4 0 1 2 8 4.8923e-07 1 0 0
57 2 6 -4 0 1 2 8 6.83295e-07 1 0 0
8 2 7 -5 0 1 2 5 1.7973e-07 1 0 0
9 2 8 -5 0 1 2 5 2.14416e-07 1 0 0
58 2 7 -4 0 1 2 8 8.75707e-07 1 0 0
59 2 8 -4 0 1 2 8 1.0475e-06 1 0 0
10 2 9 -5 0 1 2 5 2.42821e-07 1 0 0
60 2 9 -4 0 1 2 8 1.18841e-06 1 0 0
11 2 10 -5 0 1 2 5 2.64874e-07 1 0 0
12 2 11 -5 0 1 2 5 2.81906e-07 1 0 0
61 2 10 -4 0 1 2 8 1.29813e-06 1 0 0
62 2 11 -4 0 1 2 8 1.38339e-06 1 0 0
13 2 12 -5 0 1 2 5 2.95627e-07 1 0 0
14 2 13 -5 0 1 2 5 3.07121e-07 1 0 0
63 2 12 -4 0 1 2 8 1.45266e-06 1 0 0
64 2 13 -4 0 1 2 8 1.51112e-06 1 0 0
15 2 14 -5 0 1 2 5 3.16516e-07 1 0 0
65 2 14 -4 0 1 2 8 1.55886e-06 1 0 0
16 2 15 -5 0 1 2 5 3.23572e-07 1 0 0
17 2 16 -5 0 1 2 5 3.28491e-07 1 0 0
66 2 15 -4 0 1 2 8 1.59427e-06 1 0 0
67 2 16 -4 0 1 2 8 1.61868e-06 1 0 0
18 2 17 -5 0 1 2 5 3.31958e-07 1 0 0
19 2 18 -5 0 1 2 5 3.34356e-07 1 0 0
68 2 17 -4 0 1 2 8 1.63633e-06 1 0 0
69 2 18 -4 0 1 2 8 1.64968e-06 1 0 0
20 2 19 -5 0 1 2 5 3.35209e-07 1 0 0
70 2 19 -4 0 1 2 8 1.65614e-06 1 0 0
21 2 20 -5 0 1 2 5 3.33577e-07 1 0 0
22 2 21 -5 0 1 2 5 3.29047e-07 1 0 0
71 2 20 -4 0 1 2 8 1.6503e-06 1 0 0
72 2 21 -4 0 1 2 8 1.62951e-06 1 0 0
23 2 22 -5 0 1 2 5 3.22439e-07 1 0 0
24 2 23 -5 0 1 2 5 3.15731e-07 1 0 0
73 2 22 -4 0 1 2 8 1.59756e-06 1 0 0
74 2 23 -4 0 1 2 8 1.56442e-06 1 0 0
25 2 24 -5 0 1 2 5 3.113e-07 1 0 0
75 2 24 -4 0 1 2 8 1.54236e-06 1 0 0
26 2 25 -5 0 1 2 5 3.10851e-07 1 0 0
27 2 26 -5 0 1 2 5 3.1459e-07 1 0 0
76 2 25 -4 0 1 2 8 1.5404e-06 1 0 0
77 2 26 -4 0 1 2 8 1.55962e-06 1 0 0
28 2 27 -5 0 1 2 5 3.21264e-07 1 0 0
29 2 28 -5 0 1 2 5 3.29072e-07 1 0 0
78 2 27 -4 0 1 2 8 1.59317e-06 1 0 0
79 2 28 -4 0 1 2 8 1.63147e-06 1 0 0
30 2 29 -5 0 1 2 5 3.36622e-07 1 0 0
80 2 29 -4 0 1 2 8 1.66763e-06 1 0 0
31 2 30 -5 0 1 2 5 3.43132e-07 1 0 0
32 2 31 -5 0 1 2 5 3.48039e-07 1 0 0
81 2 30 -4 0 1 2 8 1.69849e-06 1 0 0
82 2 31 -4 0 1 2 8 1.72181e-06 1 0 0
33 2 32 -5 0 1 2 5 3.50833e-07 1 0 0
34 2 33 -5 0 1 2 5 3.51425e-07 1 0 0
83 2 32 -4 0 1 2 8 1.73506e-06 1 0 0
84 2 33 -4 0 1 2 8 1.73756e-06 1 0 0
35 2 34 -5 0 1 2 5 3.50421e-07 1 0 0
85 2 34 -4 0 1 2 8 1.73238e-06 1 0 0
36 2 35 -5 0 1 2 5 3.48756e-07 1 0 0
37 2 36 -5 0 1 2 5 3.4693e-07 1 0 0
86 2 35 -4 0 1 2 8 1.72448e-06 1 0 0
87 2 36 -4 0 1 2 8 1.71641e-06 1 0 0
38 2 37 -5 0 1 2 5 3.44662e-07 1 0 0
39 2 38 -5 0 1 2 5 3.41242e-07 1 0 0
88 2 37 -4 0 1 2 8 1.70643e-06 1 0 0
89 2 38 -4 0 1 2 8 1.69042e-06 1 0 0
40 2 39 -5 0 1 2 5 3.36282e-07 1 0 0
90 2 39 -4 0 1 2 8 1.66593e-06 1 0 0
41 2 40 -5 0 1 2 5 3.30324e-07 1 0 0
42 2 41 -5 0 1 2 5 3.2493e-07 1 0 0
91 2 40 -4 0 1 2 8 1.63543e-06 1 0 0
92 2 41 -4 0 1 2 8 1.60707e-06 1 0 0
43 2 42 -5 0 1 2 5 3.22036e-07 1 0 0
44 2 43 -5 0 1 2 5 3.22765e-07 1 0 0
93 2 42 -4 0 1 2 8 1.59133e-06 1 0 0
94 2 43 -4 0 1 2 8 1.59466e-06 1 0 0
45 2 44 -5 0 1 2 5 3.26473e-07 1 0 0
95 2 44 -4 0 1 2 8 1.61396e-06 1 0 0
46 2 45 -5 0 1 2 5 3.30884e-07 1 0 0
47 2 46 -5 0 1 2 5 3.33469e-07 1 0 0
96 2 45 -4 0 1 2 8 1.63716e-06 1 0 0
97 2 46 -4 0 1 2 8 1.65067e-06 1 0 0
48 2 47 -5 0 1 2 5 3.33112e-07 1 0 0
49 2 48 -5 0 1 2 5 3.30758e-07 1 0 0
98 2 47 -4 0 1 2 8 1.64853e-06 1 0 0
99 2 48 -4 0 1 2 8 1.63589e-06 1 0 0
50 2 49 -5 0 1 2 5 3.28589e-07 1 0 0
100 2 49 -4 0 1 2 8 1.62451e-06 1 0 0
101 2 0 -3 0 1 2 8 1.62171e-07 1 0 0
102 2 1 -3 0 1 2 8 2.29519e-07 1 0 0
151 2 0 -2 0 1 2 8 6.51598e-07 1 0 0
152 2 1 -2 0 1 2 8 9.48086e-07 1 0 0
103 2 2 -3 0 1 2 8 4.59376e-07 1 0 0
104 2 3 -3 0 1 2 8 8.95212e-07 1 0 0
153 2 2 -2 0 1 2 8 1.9765e-06 1 0 0
154 2 3 -2 0 1 2 8 3.97323e-06 1 0 0
105 2 4 -3 0 1 2 8 1.56555e-06 1 0 0
155 2 4 -2 0 1 2 8 7.10845e-06 1 0 0
106 2 5 -3 0 1 2 8 2.4433e-06 1 0 0
107 2 6 -3 0 1 2 8 3.43746e-06 1 0 0
156 2 5 -2 0 1 2 8 1.12673e-05 1 0 0
157 2 6 -2 0 1 2 8 1.60014e-05 1 0 0
108 2 7 -3 0 1 2 8 4.42712e-06 1 0 0
109 2 8 -3 0 1 2 8 5.31033e-06 1 0 0
158 2 7 -2 0 1 2 8 2.07138e-05 1 0 0
159 2 8 -2 0 1 2 8 2.49143e-05 1 0 0
110 2 9 -3 0 1 2 8 6.03464e-06 1 0 0
160 2 9 -2 0 1 2 8 2.8362e-05 1 0 0
111 2 10 -3 0 1 2 8 6.59998e-06 1 0 0
112 2 11 -3 0 1 2 8 7.04188e-06 1 0 0
161 2 10 -2 0 1 2 8 3.10648e-05 1 0 0
162 2 11 -2 0 1 2 8 3.31946e-05 1 0 0
113 2 12 -3 0 1 2 8 7.40462e-06 1 0 0
114 2 13 -3 0 1 2 8 7.7138e-06 1 0 0
163 2 12 -2 0 1 2 8 3.49631e-05 1 0 0
164 2 13 -2 0 1 2 8 3.64872e-05 1 0 0
115 2 14 -3 0 1 2 8 7.96649e-06 1 0 0
165 2 14 -2 0 1 2 8 3.77352e-05 1 0 0
116 2 15 -3 0 1 2 8 8.15138e-06 1 0 0
117 2 16 -3 0 1 2 8 8.27691e-06 1 0 0
166 2 15 -2 0 1 2 8 3.86361e-05 1 0 0
167 2 16 -2 0 1 2 8 3.92386e-05 1 0 0
118 2 17 -3 0 1 2 8 8.37023e-06 1 0 0
119 2 18 -3 0 1 2 8 8.44744e-06 1 0 0
168 2 17 -2 0 1 2 8 3.9701e-05 1 0 0
169 2 18 -2 0 1 2 8 4.01177e-05 1 0 0
120 2 19 -3 0 1 2 8 8.49347e-06 1 0 0
170 2 19 -2 0 1 2 8 4.04073e-05 1 0 0
121 2 20 -3 0 1 2 8 8.47616e-06 1 0 0
122 2 21 -3 0 1 2 8 8.37834e-06 1 0 0
171 2 20 -2 0 1 2 8 4.0394e-05 1 0 0
172 2 21 -2 0 1 2 8 3.99814e-05 1 0 0
123 2 22 -3 0 1 2 8 8.21843e-06 1 0 0
124 2 23 -3 0 1 2 8 8.04834e-06 1 0 0
173 2 22 -2 0 1 2 8 3.92519e-05 1 0 0
174 2 23 -2 0 1 2 8 3.84531e-05 1 0 0
125 2 24 -3 0 1 2 8 7.93411e-06 1 0 0
175 2 24 -2 0 1 2 8 3.79107e-05 1 0 0
126 2 25 -3 0 1 2 8 7.92563e-06 1 0 0
127 2 26 -3 0 1 2 8 8.02898e-06 1 0 0
176 2 25 -2 0 1 2 8 3.78808e-05 1 0 0
177 2 26 -2 0 1 2 8 3.83971e-05 1 0 0
128 2 27 -3 0 1 2 8 8.20495e-06 1 0 0
129 2 28 -3 0 1 2 8 8.39975e-06 1 0 0
178 2 27 -2 0 1 2 8 3.92517e-05 1 0 0
179 2 28 -2 0 1 2 8 4.01645e-05 1 0 0
130 2 29 -3 0 1 2 8 8.5785e-06 1 0 0
180 2 29 -2 0 1 2 8 4.09729e-05 1 0 0
131 2 30 -3 0 1 2 8 8.72943e-06 1 0 0
132 2 31 -3 0 1 2 8 8.84449e-06 1 0 0
181 2 30 -2 0 1 2 8 4.1648e-05 1 0 0
182 2 31 -2 0 1 2 8 4.21713e-05 1 0 0
133 2 32 -3 0 1 2 8 8.91e-06 1 0 0
134 2 33 -3 0 1 2 8 8.92053e-06 1 0 0
183 2 32 -2 0 1 2 8 4.24726e-05 1 0 0
184 2 33 -2 0 1 2 8 4.25139e-05 1 0 0
135 2 34 -3 0 1 2 8 8.89251e-06 1 0 0
185 2 34 -2 0 1 2 8 4.23751e-05 1 0 0
136 2 35 -3 0 1 2 8 8.85358e-06 1 0 0
137 2 36 -3 0 1 2 8 8.81774e-06 1 0 0
186 2 35 -2 0 1 2 8 4.22004e-05 1 0 0
187 2 36 -2 0 1 2 8 4.20604e-05 1 0 0
138 2 37 -3 0 1 2 8 8.77393e-06 1 0 0
139 2 38 -3 0 1 2 8 8.69757e-06 1 0 0
188 2 37 -2 0 1 2 8 4.1892e-05 1 0 0
189 2 38 -2 0 1 2 8 4.15622e-05 1 0 0
140 2 39 -3 0 1 2 8 8.57285e-06 1 0 0
190 2 39 -2 0 1 2 8 4.09803e-05 1 0 0
141 2 40 -3 0 1 2 8 8.41121e-06 1 0 0
142 2 41 -3 0 1 2 8 8.25643e-06 1 0 0
191 2 40 -2 0 1 2 8 4.01926e-05 1 0 0
192 2 41 -2 0 1 2 8 3.94146e-05 1 0 0
143 2 42 -3 0 1 2 8 8.16776e-06 1 0 0
144 2 43 -3 0 1 2 8 8.18358e-06 1 0 0
193 2 42 -2 0 1 2 8 3.8954e-05 1 0 0
194 2 43 -2 0 1 2 8 3.90213e-05 1 0 0
145 2 44 -3 0 1 2 8 8.28875e-06 1 0 0
195 2 44 -2 0 1 2 8 3.95492e-05 1 0 0
146 2 45 -3 0 1 2 8 8.41615e-06 1 0 0
147 2 46 -3 0 1 2 8 8.48942e-06 1 0 0
196 2 45 -2 0 1 2 8 4.01936e-05 1 0 0
197 2 46 -2 0 1 2 8 4.05582e-05 1 0 0
148 2 47 -3 0 1 2 8 8.47531e-06 1 0 0
149 2 48 -3 0 1 2 8 8.40348e-06 1 0 0
198 2 47 -2 0 1 2 8 4.0473e-05 1 0 0
199 2 48 -2 0 1 2 8 4.00954e-05 1 0 0
150 2 49 -3 0 1 2 8 8.34021e-06 1 0 0
200 2 49 -2 0 1 2 8 3.97693e-05 1 0 0
201 2 0 -1 0 1 2 8 2.35294e-06 1 0 0
202 2 1 -1 0 1 2 8 3.52599e-06 1 0 0
203 2 2 -1 0 1 2 8 7.67028e-06 1 0 0
204 2 3 -1 0 1 2 8 1.59368e-05 1 0 0
205 2 4 -1 0 1 2 8 2.92273e-05 1 0 0
206 2 5 -1 0 1 2 8 4.71121e-05 1 0 0
207 2 6 -1 0 1 2 8 6.7562e-05 1 0 0
208 2 7 -1 0 1 2 8 8.78907e-05 1 0 0
209 2 8 -1 0 1 2 8 0.000105988 1 0 0
210 2 9 -1 0 1 2 8 0.000120879 1 0 0
211 2 10 -1 0 1 2 8 0.000132639 1 0 0
212 2 11 -1 0 1 2 8 0.000142007 1 0 0
213 2 12 -1 0 1 2 8 0.000149886 1 0 0
214 2 13 -1 0 1 2 8 0.000156759 1 0 0
215 2 14 -1 0 1 2 8 0.000162406 1 0 0
216 2 15 -1 0 1 2 8 0.000166436 1 0 0
217 2 16 -1 0 1 2 8 0.000169099 1 0 0
218 2 17 -1 0 1 2 8 0.00017122 1 0 0
219 2 18 -1 0 1 2 8 0.000173285 1 0 0
220 2 19 -1 0 1 2 8 0.00017489 1 0 0
221 2 20 -1 0 1 2 8 0.000175178 1 0 0
222 2 21 -1 0 1 2 8 0.000173682 1 0 0
223 2 22 -1 0 1 2 8 0.00017074 1 0 0
224 2 23 -1 0 1 2 8 0.000167402 1 0 0
225 2 24 -1 0 1 2 8 0.000165103 1 0 0
226 2 25 -1 0 1 2 8 0.000165039 1 0 0
227 2 26 -1 0 1 2 8 0.000167386 1 0 0
228 2 27 -1 0 1 2 8 0.000171151 1 0 0
229 2 28 -1 0 1 2 8 0.000175008 1 0 0
230 2 29 -1 0 1 2 8 0.000178274 1 0 0
231 2 30 -1 0 1 2 8 0.000180972 1 0 0
232 2 31 -1 0 1 2 8 0.000183122 1 0 0
233 2 32 -1 0 1 2 8 0.000184392 1 0 0
234 2 33 -1 0 1 2 8 0.000184545 1 0 0
235 2 34 -1 0 1 2 8 0.000183934 1 0 0
236 2 35 -1 0 1 2 8 0.00018324 1 0 0
237 2 36 -1 0 1 2 8 0.000182786 1 0 0
238 2 37 -1 0 1 2 8 0.000182252 1 0 0
239 2 38 -1 0 1 2 8 0.000180998 1 0 0
240 2 39 -1 0 1 2 8 0.000178571 1 0 0
241 2 40 -1 0 1 2 8 0.000175125 1 0 0
242 2 41 -1 0 1 2 8 0.000171605 1 0 0
243 2 42 -1 0 1 2 8 0.00016945 1 0 0
244 2 43 -1 0 1 2 8 0.000169695 1 0 0
245 2 44 -1 0 1 2 8 0.00017208 1 0 0
246 2 45 -1 0 1 2 8 0.000175011 1 0 0
247 2 46 -1 0 1 2 8 0.000176636 1 0 0
248 2 47 -1 0 1 2 8 0.000176176 1 0 0
249 2 48 -1 0 1 2 8 0.000174383 1 0 0
250 2 49 -1 0 1 2 8 0.000172862 1 0 0
251 2 0 0 0 1 2 8 7.55415e-06 1 0 0
252 2 1 0 0 1 2 8 1.16678e-05 1 0 0
301 2 0 1 0 1 2 8 2.13389e-05 1 0 0
302 2 1 1 0 1 2 8 3.39405e-05 1 0 0
253 2 2 0 0 1 2 8 2.64944e-05 1 0 0
254 2 3 0 0 1 2 8 5.69633e-05 1 0 0
303 2 2 1 0 1 2 8 8.02652e-05 1 0 0
304 2 3 1 0 1 2 8 0.000178408 1 0 0
255 2 4 0 0 1 2 8 0.000107276 1 0 0
305 2 4 1 0 1 2 8 0.000345308 1 0 0
256 2 5 0 0 1 2 8 0.000176069 1 0 0
257 2 6 0 0 1 2 8 0.000254977 1 0 0
306 2 5 1 0 1 2 8 0.000577723 1 0 0
307 2 6 1 0 1 2 8 0.000844448 1 0 0
258 2 7 0 0 1 2 8 0.00033314 1 0 0
259 2 8 0 0 1 2 8 0.000402624 1 0 0
308 2 7 1 0 1 2 8 0.00110656 1 0 0
309 2 8 1 0 1 2 8 0.00133928 1 0 0
260 2 9 0 0 1 2 8 0.000460098 1 0 0
310 2 9 1 0 1 2 8 0.00153357 1 0 0
261 2 10 0 0 1 2 8 0.000506003 1 0 0
262 2 11 0 0 1 2 8 0.000543092 1 0 0
311 2 10 1 0 1 2 8 0.00169135 1 0 0
312 2 11 1 0 1 2 8 0.0018212 1 0 0
263 2 12 0 0 1 2 8 0.000574729 1 0 0
264 2 13 0 0 1 2 8 0.000602685 1 0 0
313 2 12 1 0 1 2 8 0.00193365 1 0 0
314 2 13 1 0 1 2 8 0.00203437 1 0 0
265 2 14 0 0 1 2 8 0.000625788 1 0 0
315 2 14 1 0 1 2 8 0.00211842 1 0 0
266 2 15 0 0 1 2 8 0.000642171 1 0 0
267 2 16 0 0 1 2 8 0.000652959 1 0 0
316 2 15 1 0 1 2 8 0.0021782 1 0 0
317 2 16 1 0 1 2 8 0.00221804 1 0 0
268 2 17 0 0 1 2 8 0.00066191 1 0 0
269 2 18 0 0 1 2 8 0.000671198 1 0 0
318 2 17 1 0 1 2 8 0.00225257 1 0 0
319 2 18 1 0 1 2 8 0.00228993 1 0 0
270 2 19 0 0 1 2 8 0.000679008 1 0 0
320 2 19 1 0 1 2 8 0.00232294 1 0 0
271 2 20 0 0 1 2 8 0.000681675 1 0 0
272 2 21 0 0 1 2 8 0.000677298 1 0 0
321 2 20 1 0 1 2 8 0.00233818 1 0 0
322 2 21 1 0 1 2 8 0.0023295 1 0 0
273 2 22 0 0 1 2 8 0.000667149 1 0 0
274 2 23 0 0 1 2 8 0.000655085 1 0 0
323 2 22 1 0 1 2 8 0.00230132 1 0 0
324 2 23 1 0 1 2 8 0.00226535 1 0 0
275 2 24 0 0 1 2 8 0.000646625 1 0 0
325 2 24 1 0 1 2 8 0.00223951 1 0 0
276 2 25 0 0 1 2 8 0.000646745 1 0 0
277 2 26 0 0 1 2 8 0.000656315 1 0 0
326 2 25 1 0 1 2 8 0.00224183 1 0 0
327 2 26 1 0 1 2 8 0.00227613 1 0 0
278 2 27 0 0 1 2 8 0.00067113 1 0 0
279 2 28 0 0 1 2 8 0.000685584 1 0 0
328 2 27 1 0 1 2 8 0.00232717 1 0 0
329 2 28 1 0 1 2 8 0.0023743 1 0 0
280 2 29 0 0 1 2 8 0.00069716 1 0 0
330 2 29 1 0 1 2 8 0.00240952 1 0 0
281 2 30 0 0 1 2 8 0.000706623 1 0 0
282 2 31 0 0 1 2 8 0.000714511 1 0 0
331 2 30 1 0 1 2 8 0.00243811 1 0 0
332 2 31 1 0 1 2 8 0.0024636 1 0 0
283 2 32 0 0 1 2 8 0.000719374 1 0 0
284 2 33 0 0 1 2 8 0.000719952 1 0 0
333 2 32 1 0 1 2 8 0.00248038 1 0 0
334 2 33 1 0 1 2 8 0.00248274 1 0 0
285 2 34 0 0 1 2 8 0.000717611 1 0 0
335 2 34 1 0 1 2 8 0.00247525 1 0 0
286 2 35 0 0 1 2 8 0.000715246 1 0 0
287 2 36 0 0 1 2 8 0.000714156 1 0 0
336 2 35 1 0 1 2 8 0.0024687 1 0 0
337 2 36 1 0 1 2 8 0.00246757 1 0 0
288 2 37 0 0 1 2 8 0.000712909 1 0 0
289 2 38 0 0 1 2 8 0.000708825 1 0 0
338 2 37 1 0 1 2 8 0.00246628 1 0 0
339 2 38 1 0 1 2 8 0.00245536 1 0 0
290 2 39 0 0 1 2 8 0.000699974 1 0 0
340 2 39 1 0 1 2 8 0.002428 1 0 0
291 2 40 0 0 1 2 8 0.000686719 1 0 0
292 2 41 0 0 1 2 8 0.000672677 1 0 0
341 2 40 1 0 1 2 8 0.00238455 1 0 0
342 2 41 1 0 1 2 8 0.00233651 1 0 0
293 2 42 0 0 1 2 8 0.000663769 1 0 0
294 2 43 0 0 1 2 8 0.0006645 1 0 0
343 2 42 1 0 1 2 8 0.00230488 1 0 0
344 2 43 1 0 1 2 8 0.00230649 1 0 0
295 2 44 0 0 1 2 8 0.000674008 1 0 0
345 2 44 1 0 1 2 8 0.00233904 1 0 0
296 2 45 0 0 1 2 8 0.000685762 1 0 0
297 2 46 0 0 1 2 8 0.000692098 1 0 0
346 2 45 1 0 1 2 8 0.00237944 1 0 0
347 2 46 1 0 1 2 8 0.00240037 1 0 0
298 2 47 0 0 1 2 8 0.000689905 1 0 0
299 2 48 0 0 1 2 8 0.000682378 1 0 0
348 2 47 1 0 1 2 8 0.00239138 1 0 0
349 2 48 1 0 1 2 8 0.00236419 1 0 0
300 2 49 0 0 1 2 8 0.000676088 1 0 0
350 2 49 1 0 1 2 8 0.00234177 1 0 0
351 2 0 2 0 1 2 8 5.25853e-05 1 0 0
352 2 1 2 0 1 2 8 8.58814e-05 1 0 0
401 2 0 3 0 1 2 8 0.000112513 1 0 0
402 2 1 3 0 1 2 8 0.000187905 1 0 0
353 2 2 2 0 1 2 8 0.000210231 1 0 0
354 2 3 2 0 1 2 8 0.000480297 1 0 0
403 2 2 3 0 1 2 8 0.000471578 1 0 0
404 2 3 3 0 1 2 8 0.00109256 1 0 0
355 2 4 2 0 1 2 8 0.000953357 1 0 0
405 2 4 3 0 1 2 8 0.00219316 1 0 0
356 2 5 2 0 1 2 8 0.00162732 1 0 0
357 2 6 2 0 1 2 8 0.00239656 1 0 0
406 2 5 3 0 1 2 8 0.00383054 1 0 0
407 2 6 3 0 1 2 8 0.00567135 1 0 0
358 2 7 2 0 1 2 8 0.00313988 1 0 0
359 2 8 2 0 1 2 8 0.00379977 1 0 0
408 2 7 3 0 1 2 8 0.00737049 1 0 0
409 2 8 3 0 1 2 8 0.00889276 1 0 0
360 2 9 2 0 1 2 8 0.00435966 1 0 0
410 2 9 3 0 1 2 8 0.0102215 1 0 0
361 2 10 2 0 1 2 8 0.00482509 1 0 0
362 2 11 2 0 1 2 8 0.00521738 1 0 0
411 2 10 3 0 1 2 8 0.0113597 1 0 0
412 2 11 3 0 1 2 8 0.0123498 1 0 0
363 2 12 2 0 1 2 8 0.00556277 1 0 0
364 2 13 2 0 1 2 8 0.00587618 1 0 0
413 2 12 3 0 1 2 8 0.0132389 1 0 0
414 2 13 3 0 1 2 8 0.0140546 1 0 0
365 2 14 2 0 1 2 8 0.00614175 1 0 0
415 2 14 3 0 1 2 8 0.0147631 1 0 0
366 2 15 2 0 1 2 8 0.00633434 1 0 0
367 2 16 2 0 1 2 8 0.00646738 1 0 0
416 2 15 3 0 1 2 8 0.0152991 1 0 0
417 2 16 3 0 1 2 8 0.0156946 1 0 0
368 2 17 2 0 1 2 8 0.00658751 1 0 0
369 2 18 2 0 1 2 8 0.00671923 1 0 0
418 2 17 3 0 1 2 8 0.0160646 1 0 0
419 2 18 3 0 1 2 8 0.0164632 1 0 0
370 2 19 2 0 1 2 8 0.00683831 1 0 0
420 2 19 3 0 1 2 8 0.0168239 1 0 0
371 2 20 2 0 1 2 8 0.00690436 1 0 0
372 2 21 2 0 1 2 8 0.00690311 1 0 0
421 2 20 3 0 1 2 8 0.0170503 1 0 0
422 2 21 3 0 1 2 8 0.017128 1 0 0
373 2 22 2 0 1 2 8 0.00684877 1 0 0
374 2 23 2 0 1 2 8 0.0067685 1 0 0
423 2 22 3 0 1 2 8 0.0171014 1 0 0
424 2 23 3 0 1 2 8 0.0170048 1 0 0
375 2 24 2 0 1 2 8 0.00670878 1 0 0
425 2 24 3 0 1 2 8 0.0169257 1 0 0
376 2 25 2 0 1 2 8 0.00672451 1 0 0
377 2 26 2 0 1 2 8 0.00682975 1 0 0
426 2 25 3 0 1 2 8 0.0170021 1 0 0
427 2 26 3 0 1 2 8 0.0172682 1 0 0
378 2 27 2 0 1 2 8 0.00697955 1 0 0
379 2 28 2 0 1 2 8 0.00711013 1 0 0
428 2 27 3 0 1 2 8 0.0176327 1 0 0
429 2 28 3 0 1 2 8 0.0179338 1 0 0
380 2 29 2 0 1 2 8 0.00720004 1 0 0
430 2 29 3 0 1 2 8 0.0181223 1 0 0
381 2 30 2 0 1 2 8 0.00727325 1 0 0
382 2 31 2 0 1 2 8 0.00734495 1 0 0
431 2 30 3 0 1 2 8 0.0182827 1 0 0
432 2 31 3 0 1 2 8 0.0184579 1 0 0
383 2 32 2 0 1 2 8 0.00739648 1 0 0
384 2 33 2 0 1 2 8 0.00740658 1 0 0
433 2 32 3 0 1 2 8 0.0185979 1 0 0
434 2 33 3 0 1 2 8 0.0186394 1 0 0
385 2 34 2 0 1 2 8 0.00738793 1 0 0
435 2 34 3 0 1 2 8 0.0186072 1 0 0
386 2 35 2 0 1 2 8 0.00737494 1 0 0
387 2 36 2 0 1 2 8 0.00738034 1 0 0
436 2 35 3 0 1 2 8 0.0185981 1 0 0
437 2 36 3 0 1 2 8 0.0186389 1 0 0
388 2 37 2 0 1 2 8 0.00738543 1 0 0
389 2 38 2 0 1 2 8 0.00736312 1 0 0
438 2 37 3 0 1 2 8 0.0186741 1 0 0
439 2 38 3 0 1 2 8 0.0186453 1 0 0
390 2 39 2 0 1 2 8 0.00729511 1 0 0
440 2 39 3 0 1 2 8 0.0185232 1 0 0
391 2 40 2 0 1 2 8 0.00717942 1 0 0
392 2 41 2 0 1 2 8 0.0070444 1 0 0
441 2 40 3 0 1 2 8 0.0182971 1 0 0
442 2 41 3 0 1 2 8 0.0180039 1 0 0
393 2 42 2 0 1 2 8 0.00695186 1 0 0
394 2 43 2 0 1 2 8 0.00695382 1 0 0
443 2 42 3 0 1 2 8 0.017795 1 0 0
444 2 43 3 0 1 2 8 0.0177941 1 0 0
395 2 44 2 0 1 2 8 0.00704573 1 0 0
445 2 44 3 0 1 2 8 0.0179965 1 0 0
396 2 45 2 0 1 2 8 0.00715989 1 0 0
397 2 46 2 0 1 2 8 0.00721565 1 0 0
446 2 45 3 0 1 2 8 0.0182489 1 0 0
447 2 46 3 0 1 2 8 0.0183593 1 0 0
398 2 47 2 0 1 2 8 0.00718501 1 0 0
399 2 48 2 0 1 2 8 0.00710408 1 0 0
448 2 47 3 0 1 2 8 0.0182763 1 0 0
449 2 48 3 0 1 2 8 0.0180925 1 0 0
400 2 49 2 0 1 2 8 0.0070381 1 0 0
450 2 49 3 0 1 2 8 0.0179396 1 0 0
451 2 0 4 0 1 2 8 0.000209216 1 0 0
452 2 1 4 0 1 2 8 0.00035582 1 0 0
453 2 2 4 0 1 2 8 0.000907956 1 0 0
454 2 3 4 0 1 2 8 0.00209723 1 0 0
455 2 4 4 0 1 2 7 0.00407233 1 0 0
456 2 5 4 0 1 2 6 0.00728999 1 0 0
457 2 6 4 0 1 2 5 0.0105839 1 0 0
506 1 5.49068 4.86709 0 1.0006 2 0 0.0125736 1 0.000892653 0.00148962
507 1 6.49293 4.86578 0 1.02569 2 0 0.0156965 1 0.00366768 0.00639186
458 2 7 4 0 1 2 5 0.0134131 1 0 0
459 2 8 4 0 1 2 5 0.0160588 1 0 0
508 1 7.49305 4.8672 0 1.03193 2 0 0.0188012 1 0.00226693 0.0039427
460 2 9 4 0 1 2 5 0.0184557 1 0 0
510 1 8.49727 4.86645 0 1.01036 2 0 0.0217846 1 -0.000244026 -0.000991807
511 1 9.50152 4.86586 0 1.00136 2 0 0.0245749 1 -0.00717829 -0.00761001
461 2 10 4 0 1 2 5 0.0205889 1 0 0
462 2 11 4 0 1 2 5 0.0225298 1 0 0
512 1 10.501 4.86211 0 1.01573 2 0 0.0272264 1 -0.000618247 0.00922497
513 1 11.5006 4.8645 0 1.01534 2 0 0.0297457 1 1.68262e-05 0.00422006
463 2 12 4 0 1 2 5 0.0243157 1 0 0
464 2 13 4 0 1 2 5 0.0259638 1 0 0
514 1 12.5007 4.86476 0 1.01802 2 0 0.032101 1 -0.00527062 -0.00419325
465 2 14 4 0 1 2 5 0.027442 1 0 0
515 1 13.4982 4.86278 0 1.02031 2 0 0.0342867 1 0.00578705 0.00718994
516 1 14.5043 4.86761 0 1.0096 2 0 0.0362804 1 -0.00662062 -0.00544618
466 2 15 4 0 1 2 5 0.0286463 1 0 0
467 2 16 4 0 1 2 5 0.029621 1 0 0
518 1 16.4992 4.86592 0 1.02515 2 0 0.0396814 1 -0.00186336 -0.0064004
517 1 15.5005 4.86588 0 1.02614 2 0 0.0380442 1 0.0025562 -0.00292899
468 2 17 4 0 1 2 5 0.0305491 1 0 0
469 2 18 4 0 1 2 5 0.031494 1 0 0
519 1 17.4985 4.86252 0 1.0239 2 0 0.0412048 1 0.000402851 0.00595227
470 2 19 4 0 1 2 5 0.0323374 1 0 0
520 1 18.5021 4.86171 0 1.00577 2 0 0.0425734 1 -0.00442036 0.0129487
521 1 19.5009 4.86615 0 1.00453 2 0 0.0437634 1 0.00197735 0.000555466
471 2 20 4 0 1 2 5 0.0329318 1 0 0
472 2 21 4 0 1 2 5 0.0332995 1 0 0
523 1 21.4976 4.86424 0 1.02268 2 0 0.0456343 1 0.00962924 0.00412127
522 1 20.5018 4.86733 0 1.0139 2 0 0.0447537 1 -0.0083454 -2.40838e-05
473 2 22 4 0 1 2 5 0.0335477 1 0 0
474 2 23 4 0 1 2 5 0.0336586 1 0 0
524 1 22.4974 4.86637 0 1.01383 2 0 0.0464036 1 -0.000675375 -0.00673077
475 2 24 4 0 1 2 5 0.03373 1 0 0
525 1 23.4972 4.86472 0 1.03669 2 0 0.0470547 1 0.00299123 0.00433025
526 1 24.5019 4.86472 0 1.04245 2 0 0.0476787 1 -0.00573188 0.00383053
476 2 25 4 0 1 2 5 0.034002 1 0 0
477 2 26 4 0 1 2 5 0.0345151 1 0 0
528 1 26.5023 4.86216 0 1.04147 2 0 0.0491223 1 -0.0077595 0.011326
527 1 25.5 4.86259 0 1.03798 2 0 0.0483496 1 -0.000707632 0.00222573
478 2 27 4 0 1 2 5 0.035178 1 0 0
479 2 28 4 0 1 2 5 0.0357114 1 0 0
529 1 27.4997 4.87117 0 1.0019 2 0 0.0497879 1 0.0024632 -0.00303317
480 2 29 4 0 1 2 5 0.0360459 1 0 0
531 1 29.4968 4.86224 0 1.01679 2 0 0.0509832 1 0.00789333 0.0112465
530 1 28.4991 4.87027 0 1.02091 2 0 0.0504176 1 -0.00615671 -0.0045577
481 2 30 4 0 1 2 5 0.0363545 1 0 0
482 2 31 4 0 1 2 5 0.0367051 1 0 0
533 1 31.4974 4.86563 0 1.004 2 0 0.0520109 1 0.00757974 -0.00389599
532 1 30.5004 4.86205 0 1.0182 2 0 0.0515262 1 -0.0085011 0.00827841
483 2 32 4 0 1 2 5 0.0370125 1 0 0
484 2 33 4 0 1 2 5 0.037152 1 0 0
534 1 32.4997 4.87446 0 1.00171 2 0 0.0524466 1 0.00108584 -0.00650412
485 2 34 4 0 1 2 5 0.0371438 1 0 0
535 1 33.5028 4.868 0 1.00275 2 0 0.0526997 1 -0.000807626 -5.30214e-05
536 1 34.5024 4.87174 0 1.0237 2 0 0.0529413 1 -0.00109342 -3.11517e-05
486 2 35 4 0 1 2 5 0.0371915 1 0 0
487 2 36 4 0 1 2 5 0.0373344 1 0 0
538 1 36.4984 4.87875 0 1.01227 2 0 0.0534614 1 0.009071 -0.00953385
537 1 35.5014 4.86343 0 1.0067 2 0 0.0531496 1 -0.00514811 0.00754834
488 2 37 4 0 1 2 5 0.0374487 1 0 0
489 2 38 4 0 1 2 5 0.0374529 1 0 0
539 1 37.5027 4.86868 0 1.00174 2 0 0.0535394 1 -0.00209536 -4.84225e-05
490 2 39 4 0 1 2 5 0.0373409 1 0 0
541 1 39.5018 4.86555 0 1.00168 2 0 0.0537461 1 -0.0114361 0.00215096
540 1 38.5016 4.86793 0 1.01715 2 0 0.0536815 1 0.00209536 -5.15775e-05
491 2 40 4 0 1 2 5 0.0370882 1 0 0
492 2 41 4 0 1 2 5 0.0366821 1 0 0
542 1 40.4967 4.87206 0 1.01016 2 0 0.05368 1 0.00910056 -0.012284
543 1 41.4938 4.86488 0 1.03252 2 0 0.0536434 1 0.00968656 0.00693365
493 2 42 4 0 1 2 5 0.0363895 1 0 0
494 2 43 4 0 1 2 5 0.0363975 1 0 0
544 1 42.4954 4.86425 0 1.0319 2 0 0.0537224 1 0.00103084 0.00176811
495 2 44 4 0 1 2 5 0.0366967 1 0 0
545 1 43.4978 4.8636 0 1.03659 2 0 0.0538966 1 -0.00266664 0.00386954
546 1 44.4964 4.86036 0 1.01001 2 0 0.0541002 1 -0.000133088 0.0167978
496 2 45 4 0 1 2 5 0.0370707 1 0 0
497 2 46 4 0 1 2 5 0.0372118 1 0 0
548 1 46.4957 4.87291 0 1.00807 2 0 0.0543919 1 0.00436386 -0.00853452
547 1 45.493 4.86421 0 1.00173 2 0 0.0542856 1 0.0118851 0.00837622
498 2 47 4 0 1 2 5 0.0370726 1 0 0
499 2 48 4 0 1 2 5 0.0368156 1 0 0
549 1 47.4996 4.86994 0 1.02093 2 0 0.0543902 1 -0.00289026 -0.00494326
500 2 49 4 0 1 2 5 0.0366033 1 0 0
550 1 48.5004 4.86003 0 1.02225 2 0 0.0544471 1 0.000467714 0.0163908
8501 1 49.5034 4.86274 0 1.06187 2 0 0.0545329 1 -0.00791104 0.00971008
501 2 0 5 0 1 2 8 0.00034093 1 0 0
502 2 1 5 0 1 2 8 0.00058815 1 0 0
551 2 0 6 0 1 2 8 0.000494994 1 0 0
552 2 1 6 0 1 2 8 0.000863187 1 0 0
503 2 2 5 0 1 2 8 0.00151689 1 0 0
504 2 3 5 0 1 2 8 0.00349853 1 0 0
553 2 2 6 0 1 2 8 0.00223759 1 0 0
554 2 3 6 0 1 2 8 0.00513274 1 0 0
505 2 4 5 0 1 2 6 0.00670976 1 0 0
555 2 4 6 0 1 2 5 0.00954287 1 0 0
556 1 4.96022 5.72467 0 1.02426 2 0 0.0134174 1 -0.00150137 -0.0073581
557 1 5.97892 5.73656 0 1.00456 2 0 0.017482 1 -0.000465382 -0.00103276
558 1 6.98252 5.73923 0 1.00032 2 0 0.021011 1 -0.00296548 -0.00505589
509 1 7.99582 5.73145 0 1.00999 2 0 0.0245528 1 -0.00410705 -0.00662517
560 1 8.99793 5.73046 0 1.01571 2 0 0.0279631 1 -0.00214188 -0.00439589
561 1 10 5.72662 0 1.04128 2 0 0.0312751 1 -0.00280227 0.00117822
562 1 10.9973 5.72961 0 1.02468 2 0 0.0344641 1 0.00594692 -0.0135722
563 1 12.0028 5.72905 0 1.00884 2 0 0.037487 1 -0.00944465 -0.0107669
565 1 12.9993 5.72921 0 1.01555 2 0 0.040361 1 0.0108364 -0.00486207
566 1 13.9988 5.72714 0 1.01485 2 0 0.0430497 1 -0.000529149 0.00682167
567 1 15.0005 5.73455 0 1.00349 2 0 0.0455314 1 -0.00643928 -0.00898203
568 1 15.9981 5.73092 0 1.02492 2 0 0.0478539 1 0.00578575 0.00273818
569 1 17.9975 5.72608 0 1.01386 2 0 0.0519307 1 -0.00334234 0.0044259
618 1 16.9974 5.72858 0 1.00786 2 0 0.0499973 1 0.00616099 0.00493987
570 1 18.9945 5.73391 0 1.00562 2 0 0.0536518 1 0.0104558 -0.00803183
571 1 19.9959 5.74126 0 1.00943 2 0 0.0552584 1 0 -5e-05
572 1 20.9968 5.73707 0 1.02492 2 0 0.0566969 1 0.000668929 -0.00185883
573 1 21.9966 5.73003 0 1.00977 2 0 0.0579969 1 -0.00277257 0.00397186
574 1 22.9955 5.72976 0 1.00488 2 0 0.0591781 1 -0.00349942 0.00548011
575 1 23.9911 5.73501 0 1.01237 2 0 0.0602566 1 0.000637507 -7.51226e-05
576 1 24.9869 5.7437 0 1.01087 2 0 0.0613318 1 0.0122131 -0.00693494
577 1 25.9919 5.72797 0 1.01133 2 0 0.0622482 1 -0.00801275 0.00783265
579 1 26.9855 5.73753 0 1.01129 2 0 0.0631219 1 0.012687 0.000297055
580 1 27.9893 5.7411 0 1.02117 2 0 0.0639592 1 0.00614131 -0.00489371
581 1 28.99 5.7385 0 1.01861 2 0 0.0647542 1 0.00950178 -0.0139642
632 1 29.9971 5.72902 0 1.0167 2 0 0.0654551 1 -0.00267232 -0.000633823
582 1 30.9956 5.72848 0 1.0143 2 0 0.0661303 1 -0.0053645 0.00669473
583 1 31.9914 5.73283 0 1.0088 2 0 0.0667273 1 0.0109786 0.0024915
584 1 32.997 5.74045 0 1.00514 2 0 0.0672825 1 -0.0083019 -0.00842102
585 1 33.9952 5.74087 0 1.02197 2 0 0.0677961 1 -0.00553829 -0.0064922
586 1 34.9926 5.74339 0 1.02669 2 0 0.0682334 1 0.00237135 -0.00530725
587 1 35.9955 5.73796 0 1.01702 2 0 0.0686845 1 -0.00459724 0.00759921
588 1 36.9954 5.74524 0 1.01798 2 0 0.0689516 1 0.0018032 -0.00974748
589 1 38.0002 5.74499 0 1.01656 2 0 0.0691728 1 -0.00642648 -0.00327582
590 1 38.9979 5.73756 0 1.01208 2 0 0.0693632 1 0.00454845 -8.38489e-05
591 1 40.0023 5.73463 0 1.01334 2 0 0.0695638 1 -0.0136497 0.00676436
592 1 40.9994 5.73513 0 1.02633 2 0 0.0698501 1 -0.00109545 0.0013083
594 1 42.9928 5.72856 0 1.01497 2 0 0.0702659 1 -0.00111226 0.00471044
593 1 41.9955 5.73549 0 1.02837 2 0 0.0700759 1 -0.00119286 -0.00631096
595 1 43.9882 5.73286 0 1.01694 2 0 0.0703736 1 0.0111367 0.00337459
596 1 44.9916 5.72913 0 1.01116 2 0 0.0704696 1 -0.00279872 -0.00414466
597 1 45.9916 5.73126 0 1.01212 2 0 0.0706702 1 -0.00251244 0.00419675
598 1 46.9967 5.73802 0 1.00861 2 0 0.070828 1 -0.00228421 -0.00742314
599 1 48.0068 5.72857 0 1.02545 2 0 0.0710607 1 -0.00821234 0.00610572
600 1 49.0019 5.73229 0 1.00476 2 0 0.071253 1 0.00666902 -0.00323774
601 2 0 7 0 1 2 8 0.000654289 1 0 0
602 2 1 7 0 1 2 8 0.00115151 1 0 0
651 2 0 8 0 1 2 8 0.000803472 1 0 0
652 2 1 8 0 1 2 8 0.00142679 1 0 0
603 2 2 7 0 1 2 8 0.00299798 1 0 0
604 2 3 7 0 1 2 8 0.00686802 1 0 0
653 2 2 8 0 1 2 8 0.00373481 1 0 0
654 2 3 8 0 1 2 8 0.00859911 1 0 0
605 2 4 7 0 1 2 5 0.0125275 1 0 0
655 2 4 8 0 1 2 5 0.0154 1 0 0
656 1 4.90659 7.45472 0 1.01253 2 0 0.0182309 1 -0.000137446 0.000173547
606 1 5.43029 6.60297 0 1.01839 2 0 0.0184778 1 0.00372808 0.00643549
607 1 6.45711 6.61098 0 1.01626 2 0 0.0226692 1 -0.000502509 -0.000179422
657 1 5.94189 7.47841 0 1.02523 2 0 0.0235911 1 0 -5e-05
608 1 7.49073 6.59711 0 1.01581 2 0 0.0268319 1 0.00018558 0.000174106
609 1 7.99192 7.45922 0 1.00447 2 0 0.0330592 1 0.0018439 0.00316609
658 1 6.9813 7.45846 0 1.00499 2 0 0.0284818 1 0.0012801 0.00168346
559 1 8.49391 6.59393 0 1.01669 2 0 0.030826 1 0.00313079 0.006104
610 1 9.50048 6.59078 0 1.00382 2 0 0.0347521 1 -0.00423487 0.000535347
661 1 9.00247 7.4541 0 1.00906 2 0 0.0375635 1 -0.00454383 -0.0046677
612 1 10.0009 7.45443 0 1.00002 2 0 0.0419674 1 -0.011564 0.0049253
611 1 10.4967 6.59051 0 1.00368 2 0 0.038571 1 0.00605077 -0.00200506
564 1 11.5006 6.58871 0 1.01095 2 0 0.0422649 1 -0.00351198 0.00710232
613 1 10.996 7.45123 0 1.00877 2 0 0.0463227 1 0.0138657 0.00960583
614 1 12.5004 6.5912 0 1.01882 2 0 0.0458176 1 -0.00638144 0.00235815
665 1 12.9945 7.45528 0 1.00809 2 0 0.0546715 1 0.00755614 0.0117287
664 1 11.9972 7.45234 0 1.0022 2 0 0.0505756 1 -0.00403064 0.0110248
615 1 13.4978 6.595 0 1.00601 2 0 0.049216 1 0.00830939 -0.00442046
616 1 14.4972 6.5966 0 1.00878 2 0 0.0523889 1 -4.51592e-05 -0.00662705
666 1 13.999 7.46016 0 0.997531 2 0 0.0585643 1 -0.01011 -0.00156167
667 1 14.9974 7.45958 0 1.00922 2 0 0.0622655 1 0.00640963 0.00151673
617 1 15.4987 6.59639 0 1.01132 2 0 0.0553925 1 0.00440478 0.00384844
668 1 15.997 7.46198 0 1.01232 2 0 0.0657487 1 0.00273892 -0.000624829
619 1 16.5045 6.59758 0 1.00791 2 0 0.0582111 1 -0.00344212 -0.00277196
669 1 17.5047 6.59655 0 1.0115 2 0 0.0607862 1 0.000725782 -0.00894694
719 1 17.0058 7.45992 0 1.0104 2 0 0.0690172 1 -0.0105718 0.00899371
720 1 18.0008 7.46224 0 1.00384 2 0 0.0720146 1 0.0124243 0.00330972
620 1 18.5078 6.60223 0 1.00047 2 0 0.063164 1 -0.00503181 0.00507668
621 1 19.5066 6.61645 0 1.01086 2 0 0.0653356 1 0.00377939 -0.0119184
670 1 19.0014 7.47382 0 1.01205 2 0 0.0748291 1 -0.00495857 0.0083654
671 1 20.0028 7.48232 0 1.01101 2 0 0.0774576 1 -0.00217566 -0.00181143
622 1 20.5058 6.60704 0 1.02282 2 0 0.0673419 1 -0.00626544 0.001772
623 1 21.5025 6.60347 0 1.01715 2 0 0.0692012 1 0.00664163 -7.38368e-05
672 1 21.0023 7.48269 0 1.01032 2 0 0.0798884 1 -0.00828404 -0.00500671
673 1 21.999 7.47157 0 1.00705 2 0 0.0819861 1 0.00653938 -0.000122921
624 1 22.5038 6.60539 0 1.00933 2 0 0.0707853 1 -0.0100305 -0.00157983
674 1 23.002 7.47149 0 1.01197 2 0 0.0839635 1 -0.0119791 0.008946
625 1 23.4993 6.60891 0 1.01358 2 0 0.0723239 1 0.00614401 -0.00779228
626 1 24.4956 6.61002 0 1.01095 2 0 0.0736908 1 0.00459207 0.0046525
675 1 23.9977 7.47572 0 1.00974 2 0 0.0857415 1 0.00884815 -0.000154707
676 1 25.0001 7.47441 0 1.01754 2 0 0.0873524 1 -0.00786189 -0.000152733
578 1 26.5025 6.626 0 1.0136 2 0 0.0761971 1 -0.00790011 -0.0104614
628 1 25.9961 7.48743 0 1.00647 2 0 0.0888863 1 0.00758504 0.000504972
627 1 25.4998 6.60281 0 1.0116 2 0 0.0749788 1 0 -5e-05
629 1 27.5007 6.60852 0 1.00585 2 0 0.0772865 1 -0.00111145 0.00776727
679 1 27.9979 7.47621 0 1.01276 2 0 0.0916855 1 -0.000703893 -7.11483e-05
678 1 27 7.48746 0 1.01987 2 0 0.0903102 1 -0.00114622 0.00473645
630 1 28.5014 6.60093 0 1.00031 2 0 0.0784322 1 -0.0109065 0.015382
631 1 29.5003 6.59648 0 1.01679 2 0 0.0793691 1 0.000194136 0.00354282
680 1 28.9956 7.47127 0 1.0041 2 0 0.0930199 1 0.000956737 -8.30871e-05
681 1 29.9938 7.47409 0 1.0067 2 0 0.0941318 1 -6.66966e-05 -0.0123655
682 1 30.4986 6.60207 0 1.0233 2 0 0.0802358 1 -0.00871852 -0.00904126
633 1 31.495 6.59758 0 1.00197 2 0 0.0810275 1 0.00269227 0.00497655
732 1 30.9914 7.46628 0 1.02086 2 0 0.0951922 1 0.00397289 0.00894852
683 1 31.9884 7.46735 0 1.00602 2 0 0.0961507 1 0.00264698 0.000250482
684 1 32.4943 6.60493 0 1.01173 2 0 0.0817894 1 -0.0126388 -0.00583771
734 1 32.9869 7.47168 0 1.01306 2 0 0.0970573 1 -0.0104055 -0.0098002
634 1 33.4887 6.60417 0 1.00318 2 0 0.0825123 1 0.00657202 -0.00474669
635 1 34.4878 6.60698 0 1.01335 2 0 0.0831343 1 0.000440024 -0.0221361
685 1 33.9829 7.46352 0 1.01182 2 0 0.0978992 1 0.00402152 0.0123994
686 1 34.9838 7.46289 0 1.01566 2 0 0.0986206 1 0.00542176 0.0120114
636 1 35.4931 6.60553 0 1.01343 2 0 0.0837579 1 0.00294341 -0.00497108
637 1 36.495 6.60691 0 0.995425 2 0 0.0842742 1 -0.0175373 -0.00815113
687 1 35.9911 7.46927 0 1.00809 2 0 0.0992472 1 -0.00353999 -0.00197355