ITEM: TIMESTEP
31500
ITEM: NUMBER OF ATOMS
15950
ITEM: BOX BOUNDS pp pp pp
0.0000000000000000e+00 1.0000000000000000e+02
-5.0000000000000000e+00 2.0000000000000000e+02
-5.0000000000000000e-01 5.0000000000000000e-01
ITEM: ATOMS id type x y z c_rho c_phase c_nbond c_temp f_rheo_chi_chi fx fy
1 2 0 -5 0 1 2 8 3.65532e-09 1 0 0
2 2 1 -5 0 1 2 8 5.03504e-09 1 0 0
51 2 0 -4 0 1 2 8 1.88511e-08 1 0 0
52 2 1 -4 0 1 2 8 2.66339e-08 1 0 0
3 2 2 -5 0 1 2 8 9.65313e-09 1 0 0
4 2 3 -5 0 1 2 8 1.82398e-08 1 0 0
53 2 2 -4 0 1 2 8 5.3023e-08 1 0 0
54 2 3 -4 0 1 2 8 1.02741e-07 1 0 0
5 2 4 -5 0 1 2 7 3.18719e-08 1 0 0
55 2 4 -4 0 1 2 8 1.78963e-07 1 0 0
6 2 5 -5 0 1 2 6 5.18485e-08 1 0 0
7 2 6 -5 0 1 2 5 7.40183e-08 1 0 0
56 2 5 -4 0 1 2 8 2.79032e-07 1 0 0
57 2 6 -4 0 1 2 8 3.91586e-07 1 0 0
8 2 7 -5 0 1 2 5 9.47226e-08 1 0 0
9 2 8 -5 0 1 2 5 1.12877e-07 1 0 0
58 2 7 -4 0 1 2 8 5.02605e-07 1 0 0
59 2 8 -4 0 1 2 8 6.00629e-07 1 0 0
10 2 9 -5 0 1 2 5 1.27499e-07 1 0 0
60 2 9 -4 0 1 2 8 6.79674e-07 1 0 0
11 2 10 -5 0 1 2 5 1.38621e-07 1 0 0
12 2 11 -5 0 1 2 5 1.47065e-07 1 0 0
61 2 10 -4 0 1 2 8 7.39944e-07 1 0 0
62 2 11 -4 0 1 2 8 7.85957e-07 1 0 0
13 2 12 -5 0 1 2 5 1.53856e-07 1 0 0
14 2 13 -5 0 1 2 5 1.59627e-07 1 0 0
63 2 12 -4 0 1 2 8 8.23298e-07 1 0 0
64 2 13 -4 0 1 2 8 8.55276e-07 1 0 0
15 2 14 -5 0 1 2 5 1.64405e-07 1 0 0
65 2 14 -4 0 1 2 8 8.81687e-07 1 0 0
16 2 15 -5 0 1 2 5 1.67974e-07 1 0 0
17 2 16 -5 0 1 2 5 1.70404e-07 1 0 0
66 2 15 -4 0 1 2 8 9.01079e-07 1 0 0
67 2 16 -4 0 1 2 8 9.14031e-07 1 0 0
18 2 17 -5 0 1 2 5 1.72088e-07 1 0 0
19 2 18 -5 0 1 2 5 1.73256e-07 1 0 0
68 2 17 -4 0 1 2 8 9.23238e-07 1 0 0
69 2 18 -4 0 1 2 8 9.30326e-07 1 0 0
20 2 19 -5 0 1 2 5 1.73625e-07 1 0 0
70 2 19 -4 0 1 2 8 9.336e-07 1 0 0
21 2 20 -5 0 1 2 5 1.72634e-07 1 0 0
22 2 21 -5 0 1 2 5 1.70028e-07 1 0 0
71 2 20 -4 0 1 2 8 9.29525e-07 1 0 0
72 2 21 -4 0 1 2 8 9.16328e-07 1 0 0
23 2 22 -5 0 1 2 5 1.66265e-07 1 0 0
24 2 23 -5 0 1 2 5 1.6246e-07 1 0 0
73 2 22 -4 0 1 2 8 8.96336e-07 1 0 0
74 2 23 -4 0 1 2 8 8.75676e-07 1 0 0
25 2 24 -5 0 1 2 5 1.59943e-07 1 0 0
75 2 24 -4 0 1 2 8 8.61884e-07 1 0 0
26 2 25 -5 0 1 2 5 1.5966e-07 1 0 0
27 2 26 -5 0 1 2 5 1.61706e-07 1 0 0
76 2 25 -4 0 1 2 8 8.60458e-07 1 0 0
77 2 26 -4 0 1 2 8 8.71964e-07 1 0 0
28 2 27 -5 0 1 2 5 1.65361e-07 1 0 0
29 2 28 -5 0 1 2 5 1.69618e-07 1 0 0
78 2 27 -4 0 1 2 8 8.92073e-07 1 0 0
79 2 28 -4 0 1 2 8 9.14872e-07 1 0 0
30 2 29 -5 0 1 2 5 1.73729e-07 1 0 0
80 2 29 -4 0 1 2 8 9.36347e-07 1 0 0
31 2 30 -5 0 1 2 5 1.77295e-07 1 0 0
32 2 31 -5 0 1 2 5 1.79997e-07 1 0 0
81 2 30 -4 0 1 2 8 9.54786e-07 1 0 0
82 2 31 -4 0 1 2 8 9.68827e-07 1 0 0
33 2 32 -5 0 1 2 5 1.81515e-07 1 0 0
34 2 33 -5 0 1 2 5 1.81774e-07 1 0 0
83 2 32 -4 0 1 2 8 9.76692e-07 1 0 0
84 2 33 -4 0 1 2 8 9.77806e-07 1 0 0
35 2 34 -5 0 1 2 5 1.81138e-07 1 0 0
85 2 34 -4 0 1 2 8 9.74192e-07 1 0 0
36 2 35 -5 0 1 2 5 1.80172e-07 1 0 0
37 2 36 -5 0 1 2 5 1.79181e-07 1 0 0
86 2 35 -4 0 1 2 8 9.69136e-07 1 0 0
87 2 36 -4 0 1 2 8 9.6435e-07 1 0 0
38 2 37 -5 0 1 2 5 1.78e-07 1 0 0
39 2 38 -5 0 1 2 5 1.76211e-07 1 0 0
88 2 37 -4 0 1 2 8 9.58709e-07 1 0 0
89 2 38 -4 0 1 2 8 9.49584e-07 1 0 0
40 2 39 -5 0 1 2 5 1.73578e-07 1 0 0
90 2 39 -4 0 1 2 8 9.35353e-07 1 0 0
41 2 40 -5 0 1 2 5 1.70383e-07 1 0 0
42 2 41 -5 0 1 2 5 1.67484e-07 1 0 0
91 2 40 -4 0 1 2 8 9.17422e-07 1 0 0
92 2 41 -4 0 1 2 8 9.00669e-07 1 0 0
43 2 42 -5 0 1 2 5 1.65961e-07 1 0 0
44 2 43 -5 0 1 2 5 1.66456e-07 1 0 0
93 2 42 -4 0 1 2 8 8.91527e-07 1 0 0
94 2 43 -4 0 1 2 8 8.94027e-07 1 0 0
45 2 44 -5 0 1 2 5 1.68611e-07 1 0 0
95 2 44 -4 0 1 2 8 9.06302e-07 1 0 0
46 2 45 -5 0 1 2 5 1.71124e-07 1 0 0
47 2 46 -5 0 1 2 5 1.72548e-07 1 0 0
96 2 45 -4 0 1 2 8 9.20797e-07 1 0 0
97 2 46 -4 0 1 2 8 9.28985e-07 1 0 0
48 2 47 -5 0 1 2 5 1.72255e-07 1 0 0
49 2 48 -5 0 1 2 5 1.70809e-07 1 0 0
98 2 47 -4 0 1 2 8 9.27182e-07 1 0 0
99 2 48 -4 0 1 2 8 9.18758e-07 1 0 0
50 2 49 -5 0 1 2 5 1.69481e-07 1 0 0
100 2 49 -4 0 1 2 8 9.11199e-07 1 0 0
101 2 0 -3 0 1 2 8 8.89548e-08 1 0 0
102 2 1 -3 0 1 2 8 1.29287e-07 1 0 0
151 2 0 -2 0 1 2 8 3.80298e-07 1 0 0
152 2 1 -2 0 1 2 8 5.70173e-07 1 0 0
103 2 2 -3 0 1 2 8 2.68257e-07 1 0 0
104 2 3 -3 0 1 2 8 5.36004e-07 1 0 0
153 2 2 -2 0 1 2 8 1.23685e-06 1 0 0
154 2 3 -2 0 1 2 8 2.55611e-06 1 0 0
105 2 4 -3 0 1 2 8 9.5326e-07 1 0 0
155 2 4 -2 0 1 2 8 4.65997e-06 1 0 0
106 2 5 -3 0 1 2 8 1.50353e-06 1 0 0
107 2 6 -3 0 1 2 8 2.12718e-06 1 0 0
156 2 5 -2 0 1 2 8 7.47459e-06 1 0 0
157 2 6 -2 0 1 2 8 1.06826e-05 1 0 0
108 2 7 -3 0 1 2 8 2.74465e-06 1 0 0
109 2 8 -3 0 1 2 8 3.28948e-06 1 0 0
158 2 7 -2 0 1 2 8 1.3859e-05 1 0 0
159 2 8 -2 0 1 2 8 1.66585e-05 1 0 0
110 2 9 -3 0 1 2 8 3.72869e-06 1 0 0
160 2 9 -2 0 1 2 8 1.89171e-05 1 0 0
111 2 10 -3 0 1 2 8 4.06426e-06 1 0 0
112 2 11 -3 0 1 2 8 4.32192e-06 1 0 0
161 2 10 -2 0 1 2 8 2.06502e-05 1 0 0
162 2 11 -2 0 1 2 8 2.19915e-05 1 0 0
113 2 12 -3 0 1 2 8 4.5332e-06 1 0 0
114 2 13 -3 0 1 2 8 4.71607e-06 1 0 0
163 2 12 -2 0 1 2 8 2.31044e-05 1 0 0
164 2 13 -2 0 1 2 8 2.40788e-05 1 0 0
115 2 14 -3 0 1 2 8 4.86704e-06 1 0 0
165 2 14 -2 0 1 2 8 2.48836e-05 1 0 0
116 2 15 -3 0 1 2 8 4.97577e-06 1 0 0
117 2 16 -3 0 1 2 8 5.04659e-06 1 0 0
166 2 15 -2 0 1 2 8 2.54515e-05 1 0 0
167 2 16 -2 0 1 2 8 2.58115e-05 1 0 0
118 2 17 -3 0 1 2 8 5.09841e-06 1 0 0
119 2 18 -3 0 1 2 8 5.14277e-06 1 0 0
168 2 17 -2 0 1 2 8 2.60843e-05 1 0 0
169 2 18 -2 0 1 2 8 2.63432e-05 1 0 0
120 2 19 -3 0 1 2 8 5.16896e-06 1 0 0
170 2 19 -2 0 1 2 8 2.65251e-05 1 0 0
121 2 20 -3 0 1 2 8 5.15414e-06 1 0 0
122 2 21 -3 0 1 2 8 5.08606e-06 1 0 0
171 2 20 -2 0 1 2 8 2.64948e-05 1 0 0
172 2 21 -2 0 1 2 8 2.61783e-05 1 0 0
123 2 22 -3 0 1 2 8 4.97698e-06 1 0 0
124 2 23 -3 0 1 2 8 4.86149e-06 1 0 0
173 2 22 -2 0 1 2 8 2.5635e-05 1 0 0
174 2 23 -2 0 1 2 8 2.50436e-05 1 0 0
125 2 24 -3 0 1 2 8 4.78352e-06 1 0 0
175 2 24 -2 0 1 2 8 2.46386e-05 1 0 0
126 2 25 -3 0 1 2 8 4.77626e-06 1 0 0
127 2 26 -3 0 1 2 8 4.84333e-06 1 0 0
176 2 25 -2 0 1 2 8 2.46061e-05 1 0 0
177 2 26 -2 0 1 2 8 2.49687e-05 1 0 0
128 2 27 -3 0 1 2 8 4.95769e-06 1 0 0
129 2 28 -3 0 1 2 8 5.08321e-06 1 0 0
178 2 27 -2 0 1 2 8 2.55705e-05 1 0 0
179 2 28 -2 0 1 2 8 2.62062e-05 1 0 0
130 2 29 -3 0 1 2 8 5.19782e-06 1 0 0
180 2 29 -2 0 1 2 8 2.67645e-05 1 0 0
131 2 30 -3 0 1 2 8 5.29527e-06 1 0 0
132 2 31 -3 0 1 2 8 5.37033e-06 1 0 0
181 2 30 -2 0 1 2 8 2.72343e-05 1 0 0
182 2 31 -2 0 1 2 8 2.76035e-05 1 0 0
133 2 32 -3 0 1 2 8 5.41247e-06 1 0 0
134 2 33 -3 0 1 2 8 5.41702e-06 1 0 0
183 2 32 -2 0 1 2 8 2.78133e-05 1 0 0
184 2 33 -2 0 1 2 8 2.78294e-05 1 0 0
135 2 34 -3 0 1 2 8 5.39567e-06 1 0 0
185 2 34 -2 0 1 2 8 2.77139e-05 1 0 0
136 2 35 -3 0 1 2 8 5.36844e-06 1 0 0
137 2 36 -3 0 1 2 8 5.34539e-06 1 0 0
186 2 35 -2 0 1 2 8 2.75799e-05 1 0 0
187 2 36 -2 0 1 2 8 2.74824e-05 1 0 0
138 2 37 -3 0 1 2 8 5.31883e-06 1 0 0
139 2 38 -3 0 1 2 8 5.27179e-06 1 0 0
188 2 37 -2 0 1 2 8 2.73737e-05 1 0 0
189 2 38 -2 0 1 2 8 2.71545e-05 1 0 0
140 2 39 -3 0 1 2 8 5.19316e-06 1 0 0
190 2 39 -2 0 1 2 8 2.67566e-05 1 0 0
141 2 40 -3 0 1 2 8 5.08983e-06 1 0 0
142 2 41 -3 0 1 2 8 4.99025e-06 1 0 0
191 2 40 -2 0 1 2 8 2.62092e-05 1 0 0
192 2 41 -2 0 1 2 8 2.5664e-05 1 0 0
143 2 42 -3 0 1 2 8 4.93386e-06 1 0 0
144 2 43 -3 0 1 2 8 4.94684e-06 1 0 0
193 2 42 -2 0 1 2 8 2.53435e-05 1 0 0
194 2 43 -2 0 1 2 8 2.54038e-05 1 0 0
145 2 44 -3 0 1 2 8 5.01933e-06 1 0 0
195 2 44 -2 0 1 2 8 2.57982e-05 1 0 0
146 2 45 -3 0 1 2 8 5.10582e-06 1 0 0
147 2 46 -3 0 1 2 8 5.15422e-06 1 0 0
196 2 45 -2 0 1 2 8 2.62735e-05 1 0 0
197 2 46 -2 0 1 2 8 2.65361e-05 1 0 0
148 2 47 -3 0 1 2 8 5.14224e-06 1 0 0
149 2 48 -3 0 1 2 8 5.09084e-06 1 0 0
198 2 47 -2 0 1 2 8 2.64623e-05 1 0 0
199 2 48 -2 0 1 2 8 2.61722e-05 1 0 0
150 2 49 -3 0 1 2 8 5.04571e-06 1 0 0
200 2 49 -2 0 1 2 8 2.59224e-05 1 0 0
201 2 0 -1 0 1 2 8 1.45679e-06 1 0 0
202 2 1 -1 0 1 2 8 2.25839e-06 1 0 0
203 2 2 -1 0 1 2 8 5.13439e-06 1 0 0
204 2 3 -1 0 1 2 8 1.10035e-05 1 0 0
205 2 4 -1 0 1 2 8 2.06147e-05 1 0 0
206 2 5 -1 0 1 2 8 3.36815e-05 1 0 0
207 2 6 -1 0 1 2 8 4.86516e-05 1 0 0
208 2 7 -1 0 1 2 8 6.34571e-05 1 0 0
209 2 8 -1 0 1 2 8 7.64898e-05 1 0 0
210 2 9 -1 0 1 2 8 8.70334e-05 1 0 0
211 2 10 -1 0 1 2 8 9.51852e-05 1 0 0
212 2 11 -1 0 1 2 8 0.000101563 1 0 0
213 2 12 -1 0 1 2 8 0.000106924 1 0 0
214 2 13 -1 0 1 2 8 0.000111676 1 0 0
215 2 14 -1 0 1 2 8 0.000115607 1 0 0
216 2 15 -1 0 1 2 8 0.000118328 1 0 0
217 2 16 -1 0 1 2 8 0.00012001 1 0 0
218 2 17 -1 0 1 2 8 0.000121339 1 0 0
219 2 18 -1 0 1 2 8 0.000122726 1 0 0
220 2 19 -1 0 1 2 8 0.00012383 1 0 0
221 2 20 -1 0 1 2 8 0.000123934 1 0 0
222 2 21 -1 0 1 2 8 0.000122653 1 0 0
223 2 22 -1 0 1 2 8 0.000120251 1 0 0
224 2 23 -1 0 1 2 8 0.000117547 1 0 0
225 2 24 -1 0 1 2 8 0.000115661 1 0 0
226 2 25 -1 0 1 2 8 0.000115542 1 0 0
227 2 26 -1 0 1 2 8 0.000117325 1 0 0
228 2 27 -1 0 1 2 8 0.000120198 1 0 0
229 2 28 -1 0 1 2 8 0.000123098 1 0 0
230 2 29 -1 0 1 2 8 0.000125521 1 0 0
231 2 30 -1 0 1 2 8 0.000127538 1 0 0
232 2 31 -1 0 1 2 8 0.000129177 1 0 0
233 2 32 -1 0 1 2 8 0.000130132 1 0 0
234 2 33 -1 0 1 2 8 0.000130182 1 0 0
235 2 34 -1 0 1 2 8 0.000129623 1 0 0
236 2 35 -1 0 1 2 8 0.000129037 1 0 0
237 2 36 -1 0 1 2 8 0.000128695 1 0 0
238 2 37 -1 0 1 2 8 0.000128333 1 0 0
239 2 38 -1 0 1 2 8 0.000127435 1 0 0
240 2 39 -1 0 1 2 8 0.000125633 1 0 0
241 2 40 -1 0 1 2 8 0.000123027 1 0 0
242 2 41 -1 0 1 2 8 0.000120338 1 0 0
243 2 42 -1 0 1 2 8 0.000118696 1 0 0
244 2 43 -1 0 1 2 8 0.000118938 1 0 0
245 2 44 -1 0 1 2 8 0.000120872 1 0 0
246 2 45 -1 0 1 2 8 0.000123223 1 0 0
247 2 46 -1 0 1 2 8 0.0001245 1 0 0
248 2 47 -1 0 1 2 8 0.000124087 1 0 0
249 2 48 -1 0 1 2 8 0.000122608 1 0 0
250 2 49 -1 0 1 2 8 0.000121354 1 0 0
251 2 0 0 0 1 2 8 4.94126e-06 1 0 0
252 2 1 0 0 1 2 8 7.93096e-06 1 0 0
301 2 0 1 0 1 2 8 1.46667e-05 1 0 0
302 2 1 1 0 1 2 8 2.43607e-05 1 0 0
253 2 2 0 0 1 2 8 1.89178e-05 1 0 0
254 2 3 0 0 1 2 8 4.21254e-05 1 0 0
303 2 2 1 0 1 2 8 6.08704e-05 1 0 0
304 2 3 1 0 1 2 8 0.000140835 1 0 0
255 2 4 0 0 1 2 8 8.13039e-05 1 0 0
305 2 4 1 0 1 2 8 0.000280524 1 0 0
256 2 5 0 0 1 2 8 0.000135544 1 0 0
257 2 6 0 0 1 2 8 0.000197933 1 0 0
306 2 5 1 0 1 2 8 0.000478063 1 0 0
307 2 6 1 0 1 2 8 0.000705629 1 0 0
258 2 7 0 0 1 2 8 0.000259429 1 0 0
259 2 8 0 0 1 2 8 0.000313497 1 0 0
308 2 7 1 0 1 2 8 0.000928204 1 0 0
309 2 8 1 0 1 2 8 0.00112372 1 0 0
260 2 9 0 0 1 2 8 0.000357482 1 0 0
310 2 9 1 0 1 2 8 0.00128438 1 0 0
261 2 10 0 0 1 2 8 0.000391902 1 0 0
262 2 11 0 0 1 2 8 0.000419229 1 0 0
311 2 10 1 0 1 2 8 0.00141238 1 0 0
312 2 11 1 0 1 2 8 0.00151599 1 0 0
263 2 12 0 0 1 2 8 0.000442513 1 0 0
264 2 13 0 0 1 2 8 0.000463422 1 0 0
313 2 12 1 0 1 2 8 0.00160554 1 0 0
314 2 13 1 0 1 2 8 0.00168698 1 0 0
265 2 14 0 0 1 2 8 0.000480785 1 0 0
315 2 14 1 0 1 2 8 0.00175513 1 0 0
266 2 15 0 0 1 2 8 0.000492632 1 0 0
267 2 16 0 0 1 2 8 0.00049983 1 0 0
316 2 15 1 0 1 2 8 0.00180143 1 0 0
317 2 16 1 0 1 2 8 0.00182962 1 0 0
268 2 17 0 0 1 2 8 0.0005058 1 0 0
269 2 18 0 0 1 2 8 0.00051254 1 0 0
318 2 17 1 0 1 2 8 0.00185427 1 0 0
319 2 18 1 0 1 2 8 0.00188354 1 0 0
270 2 19 0 0 1 2 8 0.000518382 1 0 0
320 2 19 1 0 1 2 8 0.00191024 1 0 0
271 2 20 0 0 1 2 8 0.000519995 1 0 0
272 2 21 0 0 1 2 8 0.000515681 1 0 0
321 2 20 1 0 1 2 8 0.00192112 1 0 0
322 2 21 1 0 1 2 8 0.0019102 1 0 0
273 2 22 0 0 1 2 8 0.000506533 1 0 0
274 2 23 0 0 1 2 8 0.000495784 1 0 0
323 2 22 1 0 1 2 8 0.00188167 1 0 0
324 2 23 1 0 1 2 8 0.00184606 1 0 0
275 2 24 0 0 1 2 8 0.000488103 1 0 0
325 2 24 1 0 1 2 8 0.00181974 1 0 0
276 2 25 0 0 1 2 8 0.000487807 1 0 0
277 2 26 0 0 1 2 8 0.000495653 1 0 0
326 2 25 1 0 1 2 8 0.00181985 1 0 0
327 2 26 1 0 1 2 8 0.0018501 1 0 0
278 2 27 0 0 1 2 8 0.000507891 1 0 0
279 2 28 0 0 1 2 8 0.000519606 1 0 0
328 2 27 1 0 1 2 8 0.00189564 1 0 0
329 2 28 1 0 1 2 8 0.00193667 1 0 0
280 2 29 0 0 1 2 8 0.000528785 1 0 0
330 2 29 1 0 1 2 8 0.00196625 1 0 0
281 2 30 0 0 1 2 8 0.000536348 1 0 0
282 2 31 0 0 1 2 8 0.000542822 1 0 0
331 2 30 1 0 1 2 8 0.00199043 1 0 0
332 2 31 1 0 1 2 8 0.00201283 1 0 0
283 2 32 0 0 1 2 8 0.000546766 1 0 0
284 2 33 0 0 1 2 8 0.000546928 1 0 0
333 2 32 1 0 1 2 8 0.00202742 1 0 0
334 2 33 1 0 1 2 8 0.0020282 1 0 0
285 2 34 0 0 1 2 8 0.000544562 1 0 0
335 2 34 1 0 1 2 8 0.00201974 1 0 0
286 2 35 0 0 1 2 8 0.000542348 1 0 0
287 2 36 0 0 1 2 8 0.000541457 1 0 0
336 2 35 1 0 1 2 8 0.00201282 1 0 0
337 2 36 1 0 1 2 8 0.0020118 1 0 0
288 2 37 0 0 1 2 8 0.000540607 1 0 0
289 2 38 0 0 1 2 8 0.000537458 1 0 0
338 2 37 1 0 1 2 8 0.00201122 1 0 0
339 2 38 1 0 1 2 8 0.00200215 1 0 0
290 2 39 0 0 1 2 8 0.00053032 1 0 0
340 2 39 1 0 1 2 8 0.00197815 1 0 0
291 2 40 0 0 1 2 8 0.000519404 1 0 0
292 2 41 0 0 1 2 8 0.000507694 1 0 0
341 2 40 1 0 1 2 8 0.00193914 1 0 0
342 2 41 1 0 1 2 8 0.00189538 1 0 0
293 2 42 0 0 1 2 8 0.000500259 1 0 0
294 2 43 0 0 1 2 8 0.000501061 1 0 0
343 2 42 1 0 1 2 8 0.00186646 1 0 0
344 2 43 1 0 1 2 8 0.00186847 1 0 0
295 2 44 0 0 1 2 8 0.000509432 1 0 0
345 2 44 1 0 1 2 8 0.0018996 1 0 0
296 2 45 0 0 1 2 8 0.000519694 1 0 0
297 2 46 0 0 1 2 8 0.000525136 1 0 0
346 2 45 1 0 1 2 8 0.00193801 1 0 0
347 2 46 1 0 1 2 8 0.00195766 1 0 0
298 2 47 0 0 1 2 8 0.000523084 1 0 0
299 2 48 0 0 1 2 8 0.000516396 1 0 0
348 2 47 1 0 1 2 8 0.00194878 1 0 0
349 2 48 1 0 1 2 8 0.00192274 1 0 0
300 2 49 0 0 1 2 8 0.000510811 1 0 0
350 2 49 1 0 1 2 8 0.00190123 1 0 0
351 2 0 2 0 1 2 8 3.77161e-05 1 0 0
352 2 1 2 0 1 2 8 6.46453e-05 1 0 0
401 2 0 3 0 1 2 8 8.35118e-05 1 0 0
402 2 1 3 0 1 2 8 0.000147058 1 0 0
353 2 2 2 0 1 2 8 0.000168252 1 0 0
354 2 3 2 0 1 2 8 0.000402444 1 0 0
403 2 2 3 0 1 2 8 0.000394788 1 0 0
404 2 3 3 0 1 2 8 0.000963314 1 0 0
355 2 4 2 0 1 2 8 0.000826403 1 0 0
405 2 4 3 0 1 2 8 0.00201149 1 0 0
356 2 5 2 0 1 2 8 0.00144223 1 0 0
357 2 6 2 0 1 2 8 0.00214863 1 0 0
406 2 5 3 0 1 2 8 0.0036101 1 0 0
407 2 6 3 0 1 2 8 0.00541968 1 0 0
358 2 7 2 0 1 2 8 0.00282814 1 0 0
359 2 8 2 0 1 2 8 0.0034255 1 0 0
408 2 7 3 0 1 2 8 0.00708205 1 0 0
409 2 8 3 0 1 2 8 0.00855973 1 0 0
360 2 9 2 0 1 2 8 0.00392494 1 0 0
410 2 9 3 0 1 2 8 0.00983354 1 0 0
361 2 10 2 0 1 2 8 0.00433307 1 0 0
362 2 11 2 0 1 2 8 0.00467195 1 0 0
411 2 10 3 0 1 2 8 0.0109088 1 0 0
412 2 11 3 0 1 2 8 0.011833 1 0 0
363 2 12 2 0 1 2 8 0.00496932 1 0 0
364 2 13 2 0 1 2 8 0.00524283 1 0 0
413 2 12 3 0 1 2 8 0.0126587 1 0 0
414 2 13 3 0 1 2 8 0.0134237 1 0 0
365 2 14 2 0 1 2 8 0.00547468 1 0 0
415 2 14 3 0 1 2 8 0.0140871 1 0 0
366 2 15 2 0 1 2 8 0.00563459 1 0 0
367 2 16 2 0 1 2 8 0.00573547 1 0 0
416 2 15 3 0 1 2 8 0.0145654 1 0 0
417 2 16 3 0 1 2 8 0.0148926 1 0 0
368 2 17 2 0 1 2 8 0.00582808 1 0 0
369 2 18 2 0 1 2 8 0.00593924 1 0 0
418 2 17 3 0 1 2 8 0.0152043 1 0 0
419 2 18 3 0 1 2 8 0.0155658 1 0 0
370 2 19 2 0 1 2 8 0.00604268 1 0 0
420 2 19 3 0 1 2 8 0.0158997 1 0 0
371 2 20 2 0 1 2 8 0.00609502 1 0 0
372 2 21 2 0 1 2 8 0.00608123 1 0 0
421 2 20 3 0 1 2 8 0.0160944 1 0 0
422 2 21 3 0 1 2 8 0.0161327 1 0 0
373 2 22 2 0 1 2 8 0.00601602 1 0 0
374 2 23 2 0 1 2 8 0.0059253 1 0 0
423 2 22 3 0 1 2 8 0.0160639 1 0 0
424 2 23 3 0 1 2 8 0.0159219 1 0 0
375 2 24 2 0 1 2 8 0.00585475 1 0 0
425 2 24 3 0 1 2 8 0.0157981 1 0 0
376 2 25 2 0 1 2 8 0.00586158 1 0 0
377 2 26 2 0 1 2 8 0.00596074 1 0 0
426 2 25 3 0 1 2 8 0.0158487 1 0 0
427 2 26 3 0 1 2 8 0.0161132 1 0 0
378 2 27 2 0 1 2 8 0.00610436 1 0 0
379 2 28 2 0 1 2 8 0.00622565 1 0 0
428 2 27 3 0 1 2 8 0.0164847 1 0 0
429 2 28 3 0 1 2 8 0.0167798 1 0 0
380 2 29 2 0 1 2 8 0.00630444 1 0 0
430 2 29 3 0 1 2 8 0.0169484 1 0 0
381 2 30 2 0 1 2 8 0.00636887 1 0 0
382 2 31 2 0 1 2 8 0.00643559 1 0 0
431 2 30 3 0 1 2 8 0.017092 1 0 0
432 2 31 3 0 1 2 8 0.0172617 1 0 0
383 2 32 2 0 1 2 8 0.00648326 1 0 0
384 2 33 2 0 1 2 8 0.00648809 1 0 0
433 2 32 3 0 1 2 8 0.0173977 1 0 0
434 2 33 3 0 1 2 8 0.0174251 1 0 0
385 2 34 2 0 1 2 8 0.00646387 1 0 0
435 2 34 3 0 1 2 8 0.0173734 1 0 0
386 2 35 2 0 1 2 8 0.0064476 1 0 0
387 2 36 2 0 1 2 8 0.00645236 1 0 0
436 2 35 3 0 1 2 8 0.0173519 1 0 0
437 2 36 3 0 1 2 8 0.0173897 1 0 0
388 2 37 2 0 1 2 8 0.00645848 1 0 0
389 2 38 2 0 1 2 8 0.00643833 1 0 0
438 2 37 3 0 1 2 8 0.0174255 1 0 0
439 2 38 3 0 1 2 8 0.017395 1 0 0
390 2 39 2 0 1 2 8 0.00637319 1 0 0
440 2 39 3 0 1 2 8 0.0172652 1 0 0
391 2 40 2 0 1 2 8 0.00625979 1 0 0
392 2 41 2 0 1 2 8 0.0061254 1 0 0
441 2 40 3 0 1 2 8 0.0170218 1 0 0
442 2 41 3 0 1 2 8 0.0167025 1 0 0
393 2 42 2 0 1 2 8 0.00603275 1 0 0
394 2 43 2 0 1 2 8 0.00603583 1 0 0
443 2 42 3 0 1 2 8 0.0164736 1 0 0
444 2 43 3 0 1 2 8 0.0164728 1 0 0
395 2 44 2 0 1 2 8 0.00613111 1 0 0
445 2 44 3 0 1 2 8 0.0166974 1 0 0
396 2 45 2 0 1 2 8 0.00624904 1 0 0
397 2 46 2 0 1 2 8 0.00630609 1 0 0
446 2 45 3 0 1 2 8 0.016977 1 0 0
447 2 46 3 0 1 2 8 0.0170977 1 0 0
398 2 47 2 0 1 2 8 0.00627392 1 0 0
399 2 48 2 0 1 2 8 0.00619029 1 0 0
448 2 47 3 0 1 2 8 0.0170036 1 0 0
449 2 48 3 0 1 2 8 0.0167985 1 0 0
400 2 49 2 0 1 2 8 0.00612164 1 0 0
450 2 49 3 0 1 2 8 0.0166263 1 0 0
451 2 0 4 0 1 2 8 0.000159213 1 0 0
452 2 1 4 0 1 2 8 0.000286641 1 0 0
453 2 2 4 0 1 2 8 0.000786594 1 0 0
454 2 3 4 0 1 2 8 0.00192338 1 0 0
455 2 4 4 0 1 2 7 0.00389631 1 0 0
456 2 5 4 0 1 2 6 0.00720378 1 0 0
457 2 6 4 0 1 2 5 0.0106141 1 0 0
506 1 5.48397 4.87337 0 1.0006 2 0 0.0127409 1 0.00246351 -0.00219967
507 1 6.48776 4.87028 0 1.02569 2 0 0.0159988 1 0.000546094 0.00157148
458 2 7 4 0 1 2 5 0.0135314 1 0 0
459 2 8 4 0 1 2 5 0.0162467 1 0 0
508 1 7.48759 4.87226 0 1.03193 2 0 0.019298 1 -0.00195595 -0.00391292
460 2 9 4 0 1 2 5 0.0186843 1 0 0
510 1 8.49287 4.86634 0 1.01036 2 0 0.0224433 1 0.000623166 0.00112291
511 1 9.49471 4.86542 0 1.00136 2 0 0.0253502 1 0.00136265 0.000859537
461 2 10 4 0 1 2 5 0.020831 1 0 0
462 2 11 4 0 1 2 5 0.0227684 1 0 0
512 1 10.4954 4.8628 0 1.01573 2 0 0.0281084 1 0.00245336 0.00429846
513 1 11.4957 4.86309 0 1.01534 2 0 0.0307304 1 0.00296982 -0.000889958
463 2 12 4 0 1 2 5 0.0245428 1 0 0
464 2 13 4 0 1 2 5 0.0261852 1 0 0
514 1 12.4974 4.86309 0 1.01802 2 0 0.0331731 1 -0.000653089 -0.00350464
465 2 14 4 0 1 2 5 0.0276525 1 0 0
515 1 13.4975 4.86177 0 1.02031 2 0 0.0354445 1 -0.00158342 0.00222919
516 1 14.4973 4.86257 0 1.0096 2 0 0.0375056 1 0.00252596 -0.000723499
466 2 15 4 0 1 2 5 0.0288086 1 0 0
467 2 16 4 0 1 2 5 0.0297013 1 0 0
518 1 16.4984 4.86225 0 1.02515 2 0 0.0410118 1 -0.0016945 0.000382768
517 1 15.498 4.86237 0 1.02614 2 0 0.0393314 1 -0.000279204 0.000766244
468 2 17 4 0 1 2 5 0.0305595 1 0 0
469 2 18 4 0 1 2 5 0.0314727 1 0 0
519 1 17.4984 4.86276 0 1.0239 2 0 0.0425821 1 -0.0015832 -0.000672163
470 2 19 4 0 1 2 5 0.0322942 1 0 0
520 1 18.498 4.86193 0 1.00577 2 0 0.0440076 1 0.00302496 0.00155839
521 1 19.4987 4.86164 0 1.00453 2 0 0.0452307 1 0.000164747 0.00164504
471 2 20 4 0 1 2 5 0.0328441 1 0 0
472 2 21 4 0 1 2 5 0.033144 1 0 0
523 1 21.4995 4.86252 0 1.02268 2 0 0.0471047 1 0.000659793 0.00127077
522 1 20.4999 4.86257 0 1.0139 2 0 0.0462343 1 -0.00230891 -0.00184261
473 2 22 4 0 1 2 5 0.033318 1 0 0
474 2 23 4 0 1 2 5 0.033342 1 0 0
524 1 22.5 4.86305 0 1.01383 2 0 0.0478531 1 -0.00209915 -0.000842258
475 2 24 4 0 1 2 5 0.0333245 1 0 0
525 1 23.5016 4.86357 0 1.03669 2 0 0.0484752 1 -0.00309227 0.00111014
526 1 24.5005 4.86426 0 1.04245 2 0 0.0490746 1 0.00253562 -0.000822969
476 2 25 4 0 1 2 5 0.0335521 1 0 0
477 2 26 4 0 1 2 5 0.0340755 1 0 0
528 1 26.5005 4.86378 0 1.04147 2 0 0.0504415 1 -0.00131599 -0.00168059
527 1 25.5005 4.86398 0 1.03798 2 0 0.049734 1 2.71048e-05 0.000705168
478 2 27 4 0 1 2 5 0.0347742 1 0 0
479 2 28 4 0 1 2 5 0.0353121 1 0 0
529 1 27.4998 4.86381 0 1.0019 2 0 0.0511057 1 0.0022518 0.000630157
480 2 29 4 0 1 2 5 0.0356137 1 0 0
531 1 29.5013 4.86444 0 1.01679 2 0 0.0521944 1 -0.00185596 -0.00188411
530 1 28.5011 4.86395 0 1.02091 2 0 0.0516878 1 -0.000961077 3.21533e-05
481 2 30 4 0 1 2 5 0.0358912 1 0 0
482 2 31 4 0 1 2 5 0.0362337 1 0 0
533 1 31.5005 4.86345 0 1.004 2 0 0.053127 1 0.000755009 -0.000640023
532 1 30.5006 4.86345 0 1.0182 2 0 0.0526709 1 0.0014572 0.000770678
483 2 32 4 0 1 2 5 0.0365344 1 0 0
484 2 33 4 0 1 2 5 0.0366446 1 0 0
534 1 32.5004 4.86263 0 1.00171 2 0 0.0534877 1 0.000162977 0.000621323
485 2 34 4 0 1 2 5 0.0365926 1 0 0
535 1 33.5007 4.86214 0 1.00275 2 0 0.0537082 1 0.00115685 -0.00047767
536 1 34.5012 4.86105 0 1.0237 2 0 0.0538584 1 0.00103471 0.00267619
486 2 35 4 0 1 2 5 0.0366127 1 0 0
487 2 36 4 0 1 2 5 0.0367467 1 0 0
538 1 36.5011 4.86202 0 1.01227 2 0 0.0542552 1 -0.00247186 -0.00553849
537 1 35.5013 4.86117 0 1.0067 2 0 0.0540563 1 -0.000181821 0.00104239
488 2 37 4 0 1 2 5 0.0368535 1 0 0
489 2 38 4 0 1 2 5 0.0368388 1 0 0
539 1 37.5 4.86094 0 1.00174 2 0 0.0543678 1 0.00173446 -0.000723068
490 2 39 4 0 1 2 5 0.036693 1 0 0
541 1 39.5013 4.86121 0 1.00168 2 0 0.0543494 1 0.00216368 -0.000529381
540 1 38.5021 4.86039 0 1.01715 2 0 0.0544035 1 -0.00303148 0.0032081
491 2 40 4 0 1 2 5 0.0363841 1 0 0
492 2 41 4 0 1 2 5 0.0358977 1 0 0
542 1 40.5023 4.86123 0 1.01016 2 0 0.0542219 1 1.62963e-05 -0.000945745
543 1 41.5027 4.86121 0 1.03252 2 0 0.0541158 1 -0.00147874 0.00330807
493 2 42 4 0 1 2 5 0.0355421 1 0 0
494 2 43 4 0 1 2 5 0.0355359 1 0 0
544 1 42.5021 4.86258 0 1.0319 2 0 0.0541389 1 0.00074871 -0.000895271
495 2 44 4 0 1 2 5 0.0358717 1 0 0
545 1 43.5009 4.86279 0 1.03659 2 0 0.0542866 1 0.00336928 -0.000483697
546 1 44.5009 4.86238 0 1.01001 2 0 0.0545021 1 -0.000356259 0.00100756
496 2 45 4 0 1 2 5 0.036293 1 0 0
497 2 46 4 0 1 2 5 0.0364397 1 0 0
548 1 46.4998 4.86365 0 1.00807 2 0 0.0548424 1 -0.000444844 -0.00351835
547 1 45.5006 4.86194 0 1.00173 2 0 0.0547235 1 -0.00174012 0.00506923
498 2 47 4 0 1 2 5 0.0362599 1 0 0
499 2 48 4 0 1 2 5 0.0359471 1 0 0
549 1 47.499 4.86276 0 1.02093 2 0 0.0548329 1 -0.00136375 0.000730061
500 2 49 4 0 1 2 5 0.0356901 1 0 0
550 1 48.4987 4.86242 0 1.02225 2 0 0.0548397 1 -0.000592265 0.0010745
8501 1 49.4977 4.8619 0 1.06187 2 0 0.0549026 1 0.00228485 0.00238996
501 2 0 5 0 1 2 8 0.000263558 1 0 0
502 2 1 5 0 1 2 8 0.000482703 1 0 0
551 2 0 6 0 1 2 8 0.000385749 1 0 0
552 2 1 6 0 1 2 8 0.000715423 1 0 0
503 2 2 5 0 1 2 8 0.00134385 1 0 0
504 2 3 5 0 1 2 8 0.00329548 1 0 0
553 2 2 6 0 1 2 8 0.0020056 1 0 0
554 2 3 6 0 1 2 8 0.00490118 1 0 0
505 2 4 5 0 1 2 6 0.00662366 1 0 0
555 2 4 6 0 1 2 5 0.00955851 1 0 0
556 1 4.96081 5.72344 0 1.02426 2 0 0.0136854 1 -0.00333542 -0.000790838
557 1 5.96908 5.74676 0 1.00456 2 0 0.0178951 1 -8.24155e-05 -0.000587223
558 1 6.98058 5.73878 0 1.00032 2 0 0.0216964 1 -0.00169511 -0.00279203
509 1 7.99216 5.73215 0 1.00999 2 0 0.0255519 1 0.000954745 -0.00114342
560 1 8.99241 5.7296 0 1.01571 2 0 0.0291614 1 0.00189462 -0.00262483
561 1 9.99553 5.72839 0 1.04128 2 0 0.0326625 1 -0.00213179 -0.0032445
562 1 10.9948 5.72613 0 1.02468 2 0 0.0360376 1 -0.000784596 0.00269597
563 1 11.995 5.72552 0 1.00884 2 0 0.0392366 1 -0.00399983 -9.48582e-05
565 1 12.9947 5.72474 0 1.01555 2 0 0.0422893 1 0.0015827 -0.00104658
566 1 13.9947 5.72383 0 1.01485 2 0 0.0451524 1 -0.000516485 0.00327818
567 1 14.996 5.72524 0 1.00349 2 0 0.0477941 1 -0.00107334 -0.00325113
568 1 15.9956 5.72498 0 1.02492 2 0 0.0502699 1 -0.000297461 -0.0009757
569 1 17.9979 5.72433 0 1.01386 2 0 0.0546202 1 -0.00156125 -0.000446624
618 1 16.995 5.72463 0 1.00786 2 0 0.052551 1 0.00179838 0.000318126
570 1 18.9983 5.72423 0 1.00562 2 0 0.0564601 1 -0.00287169 -0.00058145
571 1 19.9973 5.72403 0 1.00943 2 0 0.058109 1 -5.6496e-05 0.00191051
572 1 20.9977 5.72483 0 1.02492 2 0 0.059617 1 0.000414963 -0.00109285
573 1 21.9981 5.7259 0 1.00977 2 0 0.0609521 1 0.000549133 -0.00107079
574 1 22.9986 5.7255 0 1.00488 2 0 0.062126 1 0.00136826 0.00182507
575 1 24.0013 5.72798 0 1.01237 2 0 0.0632071 1 0.000605886 -0.00173821
576 1 25.0013 5.72853 0 1.01087 2 0 0.0641798 1 0.00103233 0.000186454
577 1 26.002 5.72753 0 1.01133 2 0 0.0650754 1 -0.0046708 0.00105962
579 1 27.0001 5.72761 0 1.01129 2 0 0.0658819 1 0.00581189 0.002513
580 1 28.0008 5.7277 0 1.02117 2 0 0.0666699 1 0.00136386 0.00041003
581 1 29.0014 5.72781 0 1.01861 2 0 0.0674068 1 0.00092342 0.00169056
632 1 30.0027 5.72796 0 1.0167 2 0 0.0680231 1 -0.00320361 -0.00205813
582 1 31.002 5.72677 0 1.0143 2 0 0.0686042 1 0.00188618 -0.000851334
583 1 32.0023 5.7265 0 1.0088 2 0 0.0691274 1 0.000243572 -0.00183112
584 1 33.0028 5.72422 0 1.00514 2 0 0.0695729 1 0.00152283 0.000166774
585 1 34.004 5.72331 0 1.02197 2 0 0.0699804 1 -0.000681251 0.000202961
586 1 35.0034 5.72312 0 1.02669 2 0 0.0703049 1 0.00136019 -0.000724729
587 1 36.0026 5.72274 0 1.01702 2 0 0.0705941 1 -0.000586845 0.0016502
588 1 37.0011 5.72255 0 1.01798 2 0 0.0708117 1 0.00525484 -0.000738503
589 1 38.001 5.72085 0 1.01656 2 0 0.0709512 1 0.00276379 0.00135202
590 1 39.0026 5.7219 0 1.01208 2 0 0.0710416 1 0.000479443 0.000537728
591 1 40.004 5.72183 0 1.01334 2 0 0.0711385 1 -0.00109998 0.000615234
592 1 41.0038 5.72264 0 1.02633 2 0 0.0713325 1 0.00307922 0.000166013
594 1 43.0039 5.72602 0 1.01497 2 0 0.0716432 1 -0.00155713 -0.00239723
593 1 42.0044 5.72402 0 1.02837 2 0 0.0715209 1 -0.00122992 0.000232789
595 1 44.0028 5.72551 0 1.01694 2 0 0.0717237 1 -0.0025869 0.00090242
596 1 45.0009 5.72576 0 1.01116 2 0 0.0718598 1 0.00187579 -0.000346925
597 1 45.9993 5.72635 0 1.01212 2 0 0.0721126 1 -0.00169494 -0.00128515
598 1 46.9977 5.72684 0 1.00861 2 0 0.0723344 1 0.00485216 -0.00381271
599 1 47.9974 5.72494 0 1.02545 2 0 0.0725255 1 0.00050997 0.00371976
600 1 48.9973 5.72555 0 1.00476 2 0 0.0727113 1 -0.00273253 -0.00192667
8551 1 49.9963 5.72429 0 0.994864 2 0 0.0727077 1 -0.000603829 0.00010204
601 2 0 7 0 1 2 8 0.000511348 1 0 0
602 2 1 7 0 1 2 8 0.000958174 1 0 0
651 2 0 8 0 1 2 8 0.000627802 1 0 0
652 2 1 8 0 1 2 8 0.00118793 1 0 0
603 2 2 7 0 1 2 8 0.00270065 1 0 0
604 2 3 7 0 1 2 8 0.00659893 1 0 0
653 2 2 8 0 1 2 8 0.00336922 1 0 0
654 2 3 8 0 1 2 8 0.00828769 1 0 0
605 2 4 7 0 1 2 5 0.0126287 1 0 0
655 2 4 8 0 1 2 5 0.0155813 1 0 0
656 1 4.87559 7.49245 0 1.01253 2 0 0.0187104 1 0 -5e-05
606 1 5.3816 6.62831 0 1.01839 2 0 0.0187979 1 0.00175275 0.00371915
607 1 6.38354 6.65552 0 1.01626 2 0 0.0233734 1 0.000991438 0.00212384
657 1 5.87606 7.51876 0 1.02523 2 0 0.0243041 1 0 -5e-05
608 1 7.48977 6.5959 0 1.01581 2 0 0.0281242 1 0.00151394 0.00126202
609 1 7.99262 7.45804 0 1.00447 2 0 0.0348246 1 -0.00211082 -0.00180532
658 1 6.98274 7.45652 0 1.00499 2 0 0.0298549 1 -0.00419212 -0.00337625
559 1 8.49382 6.59398 0 1.01669 2 0 0.0323676 1 -0.00149956 0.00163867
610 1 9.4936 6.59216 0 1.00382 2 0 0.0365544 1 0.00231528 -0.00024846
661 1 8.99441 7.45637 0 1.00906 2 0 0.0396616 1 0.00244559 -0.0044853
612 1 9.99436 7.456 0 1.00002 2 0 0.0444257 1 -0.00228347 -0.00285115
611 1 10.4939 6.5913 0 1.00368 2 0 0.0406471 1 -0.000704122 -0.00137051
564 1 11.4928 6.59002 0 1.01095 2 0 0.0446014 1 0.00218394 -0.00472308
613 1 10.9932 7.45408 0 1.00877 2 0 0.0491382 1 -0.004074 0.000777497
614 1 12.4924 6.58705 0 1.01882 2 0 0.0484242 1 0.000182312 0.00558468
665 1 12.9907 7.44986 0 1.00809 2 0 0.0582065 1 -0.000600007 -0.000223068
664 1 11.9916 7.45221 0 1.0022 2 0 0.0537426 1 0.00242596 -0.00470524
615 1 13.4922 6.58653 0 1.00601 2 0 0.052091 1 0.000898495 0.00104299
616 1 14.4926 6.58635 0 1.00878 2 0 0.0555225 1 -0.00207116 -0.000576925
666 1 13.9899 7.44888 0 0.997531 2 0 0.062457 1 -0.00047216 -0.000895095
667 1 14.9892 7.44827 0 1.00922 2 0 0.066501 1 0.000778762 0.000942186
617 1 15.4932 6.58757 0 1.01132 2 0 0.0587651 1 0.000393835 -0.00217924
668 1 15.9901 7.44957 0 1.01232 2 0 0.0703225 1 0.000520177 -0.00209414
619 1 16.4934 6.58726 0 1.00791 2 0 0.0618161 1 -0.000807599 0.000478315
669 1 17.4948 6.58573 0 1.0115 2 0 0.0646261 1 -0.000519861 0.0018184
719 1 16.9925 7.44855 0 1.0104 2 0 0.0739056 1 0.000520934 -0.00208249
720 1 17.9939 7.44752 0 1.00384 2 0 0.0772023 1 -0.00378889 0.000964462
620 1 18.4957 6.58584 0 1.00047 2 0 0.0671796 1 0.0013169 0.00195778
621 1 19.4954 6.58775 0 1.01086 2 0 0.0695058 1 -0.000242004 -0.0054414
670 1 18.9928 7.44951 0 1.01205 2 0 0.0802526 1 -3.82943e-05 -0.00164914
671 1 19.9926 7.44917 0 1.01101 2 0 0.0830537 1 0.000823777 0.00140253
622 1 20.4953 6.58621 0 1.02282 2 0 0.0716525 1 -0.00160568 0.00332766
623 1 21.4948 6.58735 0 1.01715 2 0 0.0735505 1 0.000655594 0.000623638
672 1 20.9922 7.44949 0 1.01032 2 0 0.0855398 1 -0.00164067 -0.00137895
673 1 21.9928 7.44953 0 1.00705 2 0 0.0876974 1 -0.00190557 -0.000973093
624 1 22.4978 6.58857 0 1.00933 2 0 0.0751836 1 -0.000951717 -0.000580427
674 1 22.995 7.45201 0 1.01197 2 0 0.0896233 1 0.00143736 -0.000707463
625 1 23.4983 6.58866 0 1.01358 2 0 0.076661 1 -0.00281904 0.00368032
626 1 24.5012 6.59201 0 1.01095 2 0 0.0780048 1 0.000224097 0.000523538
675 1 23.9961 7.45261 0 1.00974 2 0 0.0913463 1 -0.00156513 -0.000990086
676 1 25.0041 7.45464 0 1.01754 2 0 0.092873 1 -0.000908151 0.00214414
578 1 26.5018 6.59198 0 1.0136 2 0 0.0802813 1 0.00684238 0.000672689
628 1 26.0058 7.45647 0 1.00647 2 0 0.0942287 1 0.000570916 0.00161515
627 1 25.5039 6.59238 0 1.0116 2 0 0.0792032 1 -0.00313945 -0.00271988
629 1 27.5023 6.59187 0 1.00585 2 0 0.0813071 1 0.000998823 -0.000388834
679 1 28.0052 7.45656 0 1.01276 2 0 0.096698 1 0.00279525 -0.00341763
678 1 27.0059 7.45657 0 1.01987 2 0 0.0954844 1 -0.00255352 -0.00207745
630 1 28.5027 6.59194 0 1.00031 2 0 0.0823193 1 0.000720657 0.000574484
631 1 29.5032 6.5919 0 1.01679 2 0 0.0832234 1 4.17049e-05 -0.00240847
680 1 29.0057 7.4562 0 1.0041 2 0 0.0978792 1 -0.00145533 -0.00113199
681 1 30.0056 7.45489 0 1.0067 2 0 0.098983 1 3.69966e-05 -0.0018672
682 1 30.504 6.58979 0 1.0233 2 0 0.0839947 1 -0.00123263 0.00484086
633 1 31.5043 6.58963 0 1.00197 2 0 0.0846935 1 0.000114937 -0.00050897
732 1 31.0059 7.45226 0 1.02086 2 0 0.09995 1 -0.000371772 0.00215199
683 1 32.011 7.44981 0 1.00602 2 0 0.100793 1 0.000674219 -0.00112992
684 1 32.5076 6.58708 0 1.01173 2 0 0.0853271 1 -0.00148856 0.000306117
734 1 33.0113 7.44815 0 1.01306 2 0 0.101567 1 0.00094381 0.00195452
634 1 33.5073 6.58555 0 1.00318 2 0 0.0859203 1 0.00147137 0.00122074
635 1 34.5074 6.58493 0 1.01335 2 0 0.0864492 1 -0.00218597 0.00122026
685 1 34.0116 7.4479 0 1.01182 2 0 0.102234 1 -0.0027157 -0.00251807