ITEM: TIMESTEP
7500
ITEM: NUMBER OF ATOMS
15950
ITEM: BOX BOUNDS pp pp pp
0.0000000000000000e+00 1.0000000000000000e+02
-5.0000000000000000e+00 2.0000000000000000e+02
-5.0000000000000000e-01 5.0000000000000000e-01
ITEM: ATOMS id type x y z c_rho c_phase c_nbond c_temp f_rheo_chi_chi fx fy
1 2 0 -5 0 1 2 8 1.44776e-13 1 0 0
2 2 1 -5 0 1 2 8 2.79356e-13 1 0 0
51 2 0 -4 0 1 2 8 1.73915e-12 1 0 0
52 2 1 -4 0 1 2 8 3.57039e-12 1 0 0
3 2 2 -5 0 1 2 8 7.74842e-13 1 0 0
4 2 3 -5 0 1 2 8 1.85545e-12 1 0 0
53 2 2 -4 0 1 2 8 1.06248e-11 1 0 0
54 2 3 -4 0 1 2 8 2.67693e-11 1 0 0
5 2 4 -5 0 1 2 7 3.69964e-12 1 0 0
55 2 4 -4 0 1 2 8 5.49531e-11 1 0 0
6 2 5 -5 0 1 2 6 6.24812e-12 1 0 0
7 2 6 -5 0 1 2 5 8.95138e-12 1 0 0
56 2 5 -4 0 1 2 8 9.32795e-11 1 0 0
57 2 6 -4 0 1 2 8 1.3441e-10 1 0 0
8 2 7 -5 0 1 2 5 1.1253e-11 1 0 0
9 2 8 -5 0 1 2 5 1.28956e-11 1 0 0
58 2 7 -4 0 1 2 8 1.70118e-10 1 0 0
59 2 8 -4 0 1 2 8 1.95644e-10 1 0 0
10 2 9 -5 0 1 2 5 1.38716e-11 1 0 0
60 2 9 -4 0 1 2 8 2.10759e-10 1 0 0
11 2 10 -5 0 1 2 5 1.43556e-11 1 0 0
12 2 11 -5 0 1 2 5 1.45886e-11 1 0 0
61 2 10 -4 0 1 2 8 2.18119e-10 1 0 0
62 2 11 -4 0 1 2 8 2.21373e-10 1 0 0
13 2 12 -5 0 1 2 5 1.48353e-11 1 0 0
14 2 13 -5 0 1 2 5 1.52732e-11 1 0 0
63 2 12 -4 0 1 2 8 2.24846e-10 1 0 0
64 2 13 -4 0 1 2 8 2.31776e-10 1 0 0
15 2 14 -5 0 1 2 5 1.58196e-11 1 0 0
65 2 14 -4 0 1 2 8 2.40722e-10 1 0 0
16 2 15 -5 0 1 2 5 1.62283e-11 1 0 0
17 2 16 -5 0 1 2 5 1.64013e-11 1 0 0
66 2 15 -4 0 1 2 8 2.47196e-10 1 0 0
67 2 16 -4 0 1 2 8 2.49597e-10 1 0 0
18 2 17 -5 0 1 2 5 1.6464e-11 1 0 0
19 2 18 -5 0 1 2 5 1.65329e-11 1 0 0
68 2 17 -4 0 1 2 8 2.50397e-10 1 0 0
69 2 18 -4 0 1 2 8 2.51707e-10 1 0 0
20 2 19 -5 0 1 2 5 1.65404e-11 1 0 0
70 2 19 -4 0 1 2 8 2.52259e-10 1 0 0
21 2 20 -5 0 1 2 5 1.63241e-11 1 0 0
22 2 21 -5 0 1 2 5 1.58405e-11 1 0 0
71 2 20 -4 0 1 2 8 2.49112e-10 1 0 0
72 2 21 -4 0 1 2 8 2.41421e-10 1 0 0
23 2 22 -5 0 1 2 5 1.52393e-11 1 0 0
24 2 23 -5 0 1 2 5 1.47332e-11 1 0 0
73 2 22 -4 0 1 2 8 2.31708e-10 1 0 0
74 2 23 -4 0 1 2 8 2.23528e-10 1 0 0
25 2 24 -5 0 1 2 5 1.44566e-11 1 0 0
75 2 24 -4 0 1 2 8 2.19095e-10 1 0 0
26 2 25 -5 0 1 2 5 1.44427e-11 1 0 0
27 2 26 -5 0 1 2 5 1.46534e-11 1 0 0
76 2 25 -4 0 1 2 8 2.19025e-10 1 0 0
77 2 26 -4 0 1 2 8 2.22686e-10 1 0 0
28 2 27 -5 0 1 2 5 1.50095e-11 1 0 0
29 2 28 -5 0 1 2 5 1.54485e-11 1 0 0
78 2 27 -4 0 1 2 8 2.28557e-10 1 0 0
79 2 28 -4 0 1 2 8 2.35386e-10 1 0 0
30 2 29 -5 0 1 2 5 1.59626e-11 1 0 0
80 2 29 -4 0 1 2 8 2.43166e-10 1 0 0
31 2 30 -5 0 1 2 5 1.65316e-11 1 0 0
32 2 31 -5 0 1 2 5 1.70245e-11 1 0 0
81 2 30 -4 0 1 2 8 2.51934e-10 1 0 0
82 2 31 -4 0 1 2 8 2.59715e-10 1 0 0
33 2 32 -5 0 1 2 5 1.72522e-11 1 0 0
34 2 33 -5 0 1 2 5 1.7155e-11 1 0 0
83 2 32 -4 0 1 2 8 2.6328e-10 1 0 0
84 2 33 -4 0 1 2 8 2.61505e-10 1 0 0
35 2 34 -5 0 1 2 5 1.68905e-11 1 0 0
85 2 34 -4 0 1 2 8 2.57109e-10 1 0 0
36 2 35 -5 0 1 2 5 1.66727e-11 1 0 0
37 2 36 -5 0 1 2 5 1.65594e-11 1 0 0
86 2 35 -4 0 1 2 8 2.53803e-10 1 0 0
87 2 36 -4 0 1 2 8 2.52397e-10 1 0 0
38 2 37 -5 0 1 2 5 1.64638e-11 1 0 0
39 2 38 -5 0 1 2 5 1.63074e-11 1 0 0
88 2 37 -4 0 1 2 8 2.51182e-10 1 0 0
89 2 38 -4 0 1 2 8 2.48804e-10 1 0 0
40 2 39 -5 0 1 2 5 1.60838e-11 1 0 0
90 2 39 -4 0 1 2 8 2.4522e-10 1 0 0
41 2 40 -5 0 1 2 5 1.58288e-11 1 0 0
42 2 41 -5 0 1 2 5 1.56028e-11 1 0 0
91 2 40 -4 0 1 2 8 2.41031e-10 1 0 0
92 2 41 -4 0 1 2 8 2.37192e-10 1 0 0
43 2 42 -5 0 1 2 5 1.55082e-11 1 0 0
44 2 43 -5 0 1 2 5 1.56596e-11 1 0 0
93 2 42 -4 0 1 2 8 2.35402e-10 1 0 0
94 2 43 -4 0 1 2 8 2.37677e-10 1 0 0
45 2 44 -5 0 1 2 5 1.60616e-11 1 0 0
95 2 44 -4 0 1 2 8 2.44259e-10 1 0 0
46 2 45 -5 0 1 2 5 1.65075e-11 1 0 0
47 2 46 -5 0 1 2 5 1.66941e-11 1 0 0
96 2 45 -4 0 1 2 8 2.51703e-10 1 0 0
97 2 46 -4 0 1 2 8 2.54794e-10 1 0 0
48 2 47 -5 0 1 2 5 1.64933e-11 1 0 0
49 2 48 -5 0 1 2 5 1.60584e-11 1 0 0
98 2 47 -4 0 1 2 8 2.51405e-10 1 0 0
99 2 48 -4 0 1 2 8 2.44297e-10 1 0 0
50 2 49 -5 0 1 2 5 1.56585e-11 1 0 0
100 2 49 -4 0 1 2 8 2.38007e-10 1 0 0
101 2 0 -3 0 1 2 8 1.88064e-11 1 0 0
102 2 1 -3 0 1 2 8 4.146e-11 1 0 0
151 2 0 -2 0 1 2 8 1.80004e-10 1 0 0
152 2 1 -2 0 1 2 8 4.30632e-10 1 0 0
103 2 2 -3 0 1 2 8 1.33578e-10 1 0 0
104 2 3 -3 0 1 2 8 3.57005e-10 1 0 0
153 2 2 -2 0 1 2 8 1.51848e-09 1 0 0
154 2 3 -2 0 1 2 8 4.34687e-09 1 0 0
105 2 4 -3 0 1 2 8 7.64024e-10 1 0 0
155 2 4 -2 0 1 2 8 9.77019e-09 1 0 0
106 2 5 -3 0 1 2 8 1.33025e-09 1 0 0
107 2 6 -3 0 1 2 8 1.94467e-09 1 0 0
156 2 5 -2 0 1 2 8 1.75336e-08 1 0 0
157 2 6 -2 0 1 2 8 2.60544e-08 1 0 0
108 2 7 -3 0 1 2 8 2.48073e-09 1 0 0
109 2 8 -3 0 1 2 8 2.86436e-09 1 0 0
158 2 7 -2 0 1 2 8 3.35287e-08 1 0 0
159 2 8 -2 0 1 2 8 3.88966e-08 1 0 0
110 2 9 -3 0 1 2 8 3.09097e-09 1 0 0
160 2 9 -2 0 1 2 8 4.20687e-08 1 0 0
111 2 10 -3 0 1 2 8 3.19989e-09 1 0 0
112 2 11 -3 0 1 2 8 3.24336e-09 1 0 0
161 2 10 -2 0 1 2 8 4.35865e-08 1 0 0
162 2 11 -2 0 1 2 8 4.41283e-08 1 0 0
113 2 12 -3 0 1 2 8 3.28912e-09 1 0 0
114 2 13 -3 0 1 2 8 3.39544e-09 1 0 0
163 2 12 -2 0 1 2 8 4.46706e-08 1 0 0
164 2 13 -2 0 1 2 8 4.61938e-08 1 0 0
115 2 14 -3 0 1 2 8 3.53773e-09 1 0 0
165 2 14 -2 0 1 2 8 4.83024e-08 1 0 0
116 2 15 -3 0 1 2 8 3.63585e-09 1 0 0
117 2 16 -3 0 1 2 8 3.66543e-09 1 0 0
166 2 15 -2 0 1 2 8 4.96632e-08 1 0 0
167 2 16 -2 0 1 2 8 4.99511e-08 1 0 0
118 2 17 -3 0 1 2 8 3.67392e-09 1 0 0
119 2 18 -3 0 1 2 8 3.6978e-09 1 0 0
168 2 17 -2 0 1 2 8 5.00088e-08 1 0 0
169 2 18 -2 0 1 2 8 5.04129e-08 1 0 0
120 2 19 -3 0 1 2 8 3.71404e-09 1 0 0
170 2 19 -2 0 1 2 8 5.07715e-08 1 0 0
121 2 20 -3 0 1 2 8 3.67107e-09 1 0 0
122 2 21 -3 0 1 2 8 3.55315e-09 1 0 0
171 2 20 -2 0 1 2 8 5.02497e-08 1 0 0
172 2 21 -2 0 1 2 8 4.85792e-08 1 0 0
123 2 22 -3 0 1 2 8 3.40154e-09 1 0 0
124 2 23 -3 0 1 2 8 3.27324e-09 1 0 0
173 2 22 -2 0 1 2 8 4.63855e-08 1 0 0
174 2 23 -2 0 1 2 8 4.45069e-08 1 0 0
125 2 24 -3 0 1 2 8 3.20332e-09 1 0 0
175 2 24 -2 0 1 2 8 4.34573e-08 1 0 0
126 2 25 -3 0 1 2 8 3.20399e-09 1 0 0
127 2 26 -3 0 1 2 8 3.26602e-09 1 0 0
176 2 25 -2 0 1 2 8 4.34775e-08 1 0 0
177 2 26 -2 0 1 2 8 4.44612e-08 1 0 0
128 2 27 -3 0 1 2 8 3.36077e-09 1 0 0
129 2 28 -3 0 1 2 8 3.4635e-09 1 0 0
178 2 27 -2 0 1 2 8 4.59059e-08 1 0 0
179 2 28 -2 0 1 2 8 4.73457e-08 1 0 0
130 2 29 -3 0 1 2 8 3.57593e-09 1 0 0
180 2 29 -2 0 1 2 8 4.88293e-08 1 0 0
131 2 30 -3 0 1 2 8 3.70567e-09 1 0 0
132 2 31 -3 0 1 2 8 3.8247e-09 1 0 0
181 2 30 -2 0 1 2 8 5.05938e-08 1 0 0
182 2 31 -2 0 1 2 8 5.22881e-08 1 0 0
133 2 32 -3 0 1 2 8 3.87937e-09 1 0 0
134 2 33 -3 0 1 2 8 3.84853e-09 1 0 0
183 2 32 -2 0 1 2 8 5.30802e-08 1 0 0
184 2 33 -2 0 1 2 8 5.25926e-08 1 0 0
135 2 34 -3 0 1 2 8 3.77746e-09 1 0 0
185 2 34 -2 0 1 2 8 5.15212e-08 1 0 0
136 2 35 -3 0 1 2 8 3.72918e-09 1 0 0
137 2 36 -3 0 1 2 8 3.71416e-09 1 0 0
186 2 35 -2 0 1 2 8 5.08683e-08 1 0 0
187 2 36 -2 0 1 2 8 5.0753e-08 1 0 0
138 2 37 -3 0 1 2 8 3.70038e-09 1 0 0
139 2 38 -3 0 1 2 8 3.66561e-09 1 0 0
188 2 37 -2 0 1 2 8 5.06286e-08 1 0 0
189 2 38 -2 0 1 2 8 5.01608e-08 1 0 0
140 2 39 -3 0 1 2 8 3.61011e-09 1 0 0
190 2 39 -2 0 1 2 8 4.93631e-08 1 0 0
141 2 40 -3 0 1 2 8 3.54319e-09 1 0 0
142 2 41 -3 0 1 2 8 3.47935e-09 1 0 0
191 2 40 -2 0 1 2 8 4.83613e-08 1 0 0
192 2 41 -2 0 1 2 8 4.73601e-08 1 0 0
143 2 42 -3 0 1 2 8 3.44633e-09 1 0 0
144 2 43 -3 0 1 2 8 3.47874e-09 1 0 0
193 2 42 -2 0 1 2 8 4.67918e-08 1 0 0
194 2 43 -2 0 1 2 8 4.72122e-08 1 0 0
145 2 44 -3 0 1 2 8 3.58347e-09 1 0 0
195 2 44 -2 0 1 2 8 4.87708e-08 1 0 0
146 2 45 -3 0 1 2 8 3.70451e-09 1 0 0
147 2 46 -3 0 1 2 8 3.75428e-09 1 0 0
196 2 45 -2 0 1 2 8 5.06138e-08 1 0 0
197 2 46 -2 0 1 2 8 5.13627e-08 1 0 0
148 2 47 -3 0 1 2 8 3.69843e-09 1 0 0
149 2 48 -3 0 1 2 8 3.58542e-09 1 0 0
198 2 47 -2 0 1 2 8 5.05022e-08 1 0 0
199 2 48 -2 0 1 2 8 4.88247e-08 1 0 0
150 2 49 -3 0 1 2 8 3.48949e-09 1 0 0
200 2 49 -2 0 1 2 8 4.74592e-08 1 0 0
201 2 0 -1 0 1 2 8 1.49295e-09 1 0 0
202 2 1 -1 0 1 2 8 3.92053e-09 1 0 0
203 2 2 -1 0 1 2 8 1.5326e-08 1 0 0
204 2 3 -1 0 1 2 8 4.75711e-08 1 0 0
205 2 4 -1 0 1 2 8 1.1334e-07 1 0 0
206 2 5 -1 0 1 2 8 2.10724e-07 1 0 0
207 2 6 -1 0 1 2 8 3.18898e-07 1 0 0
208 2 7 -1 0 1 2 8 4.14477e-07 1 0 0
209 2 8 -1 0 1 2 8 4.83575e-07 1 0 0
210 2 9 -1 0 1 2 8 5.24509e-07 1 0 0
211 2 10 -1 0 1 2 8 5.44313e-07 1 0 0
212 2 11 -1 0 1 2 8 5.50766e-07 1 0 0
213 2 12 -1 0 1 2 8 5.56285e-07 1 0 0
214 2 13 -1 0 1 2 8 5.76513e-07 1 0 0
215 2 14 -1 0 1 2 8 6.05447e-07 1 0 0
216 2 15 -1 0 1 2 8 6.22346e-07 1 0 0
217 2 16 -1 0 1 2 8 6.238e-07 1 0 0
218 2 17 -1 0 1 2 8 6.23624e-07 1 0 0
219 2 18 -1 0 1 2 8 6.29886e-07 1 0 0
220 2 19 -1 0 1 2 8 6.36519e-07 1 0 0
221 2 20 -1 0 1 2 8 6.3115e-07 1 0 0
222 2 21 -1 0 1 2 8 6.09584e-07 1 0 0
223 2 22 -1 0 1 2 8 5.80585e-07 1 0 0
224 2 23 -1 0 1 2 8 5.55194e-07 1 0 0
225 2 24 -1 0 1 2 8 5.40147e-07 1 0 0
226 2 25 -1 0 1 2 8 5.40251e-07 1 0 0
227 2 26 -1 0 1 2 8 5.54801e-07 1 0 0
228 2 27 -1 0 1 2 8 5.7546e-07 1 0 0
229 2 28 -1 0 1 2 8 5.94088e-07 1 0 0
230 2 29 -1 0 1 2 8 6.11567e-07 1 0 0
231 2 30 -1 0 1 2 8 6.3326e-07 1 0 0
232 2 31 -1 0 1 2 8 6.55419e-07 1 0 0
233 2 32 -1 0 1 2 8 6.66199e-07 1 0 0
234 2 33 -1 0 1 2 8 6.5926e-07 1 0 0
235 2 34 -1 0 1 2 8 6.44306e-07 1 0 0
236 2 35 -1 0 1 2 8 6.36218e-07 1 0 0
237 2 36 -1 0 1 2 8 6.36095e-07 1 0 0
238 2 37 -1 0 1 2 8 6.35426e-07 1 0 0
239 2 38 -1 0 1 2 8 6.29776e-07 1 0 0
240 2 39 -1 0 1 2 8 6.1932e-07 1 0 0
241 2 40 -1 0 1 2 8 6.05457e-07 1 0 0
242 2 41 -1 0 1 2 8 5.90789e-07 1 0 0
243 2 42 -1 0 1 2 8 5.81772e-07 1 0 0
244 2 43 -1 0 1 2 8 5.86649e-07 1 0 0
245 2 44 -1 0 1 2 8 6.08163e-07 1 0 0
246 2 45 -1 0 1 2 8 6.34192e-07 1 0 0
247 2 46 -1 0 1 2 8 6.44616e-07 1 0 0
248 2 47 -1 0 1 2 8 6.3233e-07 1 0 0
249 2 48 -1 0 1 2 8 6.09369e-07 1 0 0
250 2 49 -1 0 1 2 8 5.91395e-07 1 0 0
251 2 0 0 0 1 2 8 1.04502e-08 1 0 0
252 2 1 0 0 1 2 8 3.04644e-08 1 0 0
301 2 0 1 0 1 2 8 5.97922e-08 1 0 0
302 2 1 1 0 1 2 8 1.95058e-07 1 0 0
253 2 2 0 0 1 2 8 1.33966e-07 1 0 0
254 2 3 0 0 1 2 8 4.58125e-07 1 0 0
303 2 2 1 0 1 2 8 9.80436e-07 1 0 0
304 2 3 1 0 1 2 8 3.76702e-06 1 0 0
255 2 4 0 0 1 2 8 1.17183e-06 1 0 0
305 2 4 1 0 1 2 8 1.05212e-05 1 0 0
256 2 5 0 0 1 2 8 2.2722e-06 1 0 0
257 2 6 0 0 1 2 8 3.5086e-06 1 0 0
306 2 5 1 0 1 2 8 2.14979e-05 1 0 0
307 2 6 1 0 1 2 8 3.39646e-05 1 0 0
258 2 7 0 0 1 2 8 4.60985e-06 1 0 0
259 2 8 0 0 1 2 8 5.41475e-06 1 0 0
308 2 7 1 0 1 2 8 4.51834e-05 1 0 0
309 2 8 1 0 1 2 8 5.35121e-05 1 0 0
260 2 9 0 0 1 2 8 5.89419e-06 1 0 0
310 2 9 1 0 1 2 8 5.85028e-05 1 0 0
261 2 10 0 0 1 2 8 6.13238e-06 1 0 0
262 2 11 0 0 1 2 8 6.20653e-06 1 0 0
311 2 10 1 0 1 2 8 6.11227e-05 1 0 0
312 2 11 1 0 1 2 8 6.20372e-05 1 0 0
263 2 12 0 0 1 2 8 6.25569e-06 1 0 0
264 2 13 0 0 1 2 8 6.50085e-06 1 0 0
313 2 12 1 0 1 2 8 6.23545e-05 1 0 0
314 2 13 1 0 1 2 8 6.50506e-05 1 0 0
265 2 14 0 0 1 2 8 6.8586e-06 1 0 0
315 2 14 1 0 1 2 8 6.90469e-05 1 0 0
266 2 15 0 0 1 2 8 7.04108e-06 1 0 0
267 2 16 0 0 1 2 8 7.02383e-06 1 0 0
316 2 15 1 0 1 2 8 7.06647e-05 1 0 0
317 2 16 1 0 1 2 8 7.00109e-05 1 0 0
268 2 17 0 0 1 2 8 7.00916e-06 1 0 0
269 2 18 0 0 1 2 8 7.09728e-06 1 0 0
318 2 17 1 0 1 2 8 6.97279e-05 1 0 0
319 2 18 1 0 1 2 8 7.08208e-05 1 0 0
270 2 19 0 0 1 2 8 7.20228e-06 1 0 0
320 2 19 1 0 1 2 8 7.22577e-05 1 0 0
271 2 20 0 0 1 2 8 7.15959e-06 1 0 0
272 2 21 0 0 1 2 8 6.91173e-06 1 0 0
321 2 20 1 0 1 2 8 7.20873e-05 1 0 0
322 2 21 1 0 1 2 8 6.96017e-05 1 0 0
273 2 22 0 0 1 2 8 6.56954e-06 1 0 0
274 2 23 0 0 1 2 8 6.25895e-06 1 0 0
323 2 22 1 0 1 2 8 6.6097e-05 1 0 0
324 2 23 1 0 1 2 8 6.27374e-05 1 0 0
275 2 24 0 0 1 2 8 6.05766e-06 1 0 0
325 2 24 1 0 1 2 8 6.01752e-05 1 0 0
276 2 25 0 0 1 2 8 6.05093e-06 1 0 0
277 2 26 0 0 1 2 8 6.24567e-06 1 0 0
326 2 25 1 0 1 2 8 5.99396e-05 1 0 0
327 2 26 1 0 1 2 8 6.23336e-05 1 0 0
278 2 27 0 0 1 2 8 6.51825e-06 1 0 0
279 2 28 0 0 1 2 8 6.7375e-06 1 0 0
328 2 27 1 0 1 2 8 6.55997e-05 1 0 0
329 2 28 1 0 1 2 8 6.79199e-05 1 0 0
280 2 29 0 0 1 2 8 6.91533e-06 1 0 0
330 2 29 1 0 1 2 8 6.93846e-05 1 0 0
281 2 30 0 0 1 2 8 7.14953e-06 1 0 0
282 2 31 0 0 1 2 8 7.41142e-06 1 0 0
331 2 30 1 0 1 2 8 7.15397e-05 1 0 0
332 2 31 1 0 1 2 8 7.42704e-05 1 0 0
283 2 32 0 0 1 2 8 7.54732e-06 1 0 0
284 2 33 0 0 1 2 8 7.46037e-06 1 0 0
333 2 32 1 0 1 2 8 7.58364e-05 1 0 0
334 2 33 1 0 1 2 8 7.48969e-05 1 0 0
285 2 34 0 0 1 2 8 7.27139e-06 1 0 0
335 2 34 1 0 1 2 8 7.27495e-05 1 0 0
286 2 35 0 0 1 2 8 7.18042e-06 1 0 0
287 2 36 0 0 1 2 8 7.19504e-06 1 0 0
336 2 35 1 0 1 2 8 7.18364e-05 1 0 0
337 2 36 1 0 1 2 8 7.21629e-05 1 0 0
288 2 37 0 0 1 2 8 7.19905e-06 1 0 0
289 2 38 0 0 1 2 8 7.13964e-06 1 0 0
338 2 37 1 0 1 2 8 7.23249e-05 1 0 0
339 2 38 1 0 1 2 8 7.18255e-05 1 0 0
290 2 39 0 0 1 2 8 7.01731e-06 1 0 0
340 2 39 1 0 1 2 8 7.05877e-05 1 0 0
291 2 40 0 0 1 2 8 6.84236e-06 1 0 0
292 2 41 0 0 1 2 8 6.6446e-06 1 0 0
341 2 40 1 0 1 2 8 6.86296e-05 1 0 0
342 2 41 1 0 1 2 8 6.62024e-05 1 0 0
293 2 42 0 0 1 2 8 6.51505e-06 1 0 0
294 2 43 0 0 1 2 8 6.56487e-06 1 0 0
343 2 42 1 0 1 2 8 6.45391e-05 1 0 0
344 2 43 1 0 1 2 8 6.49668e-05 1 0 0
295 2 44 0 0 1 2 8 6.83624e-06 1 0 0
345 2 44 1 0 1 2 8 6.80577e-05 1 0 0
296 2 45 0 0 1 2 8 7.17159e-06 1 0 0
297 2 46 0 0 1 2 8 7.30377e-06 1 0 0
346 2 45 1 0 1 2 8 7.19392e-05 1 0 0
347 2 46 1 0 1 2 8 7.34406e-05 1 0 0
298 2 47 0 0 1 2 8 7.14529e-06 1 0 0
299 2 48 0 0 1 2 8 6.86037e-06 1 0 0
348 2 47 1 0 1 2 8 7.16132e-05 1 0 0
349 2 48 1 0 1 2 8 6.8486e-05 1 0 0
300 2 49 0 0 1 2 8 6.64396e-06 1 0 0
350 2 49 1 0 1 2 8 6.61321e-05 1 0 0
351 2 0 2 0 1 2 8 2.69469e-07 1 0 0
352 2 1 2 0 1 2 8 9.86137e-07 1 0 0
401 2 0 3 0 1 2 8 9.26436e-07 1 0 0
402 2 1 3 0 1 2 8 3.75267e-06 1 0 0
353 2 2 2 0 1 2 8 5.72382e-06 1 0 0
354 2 3 2 0 1 2 8 2.52643e-05 1 0 0
403 2 2 3 0 1 2 8 2.49863e-05 1 0 0
404 2 3 3 0 1 2 8 0.000129843 1 0 0
355 2 4 2 0 1 2 8 7.90925e-05 1 0 0
405 2 4 3 0 1 2 8 0.000463515 1 0 0
356 2 5 2 0 1 2 8 0.000172862 1 0 0
357 2 6 2 0 1 2 8 0.000279795 1 0 0
406 2 5 3 0 1 2 8 0.00112219 1 0 0
407 2 6 3 0 1 2 8 0.00187959 1 0 0
358 2 7 2 0 1 2 8 0.000376418 1 0 0
359 2 8 2 0 1 2 8 0.000449987 1 0 0
408 2 7 3 0 1 2 8 0.00255671 1 0 0
409 2 8 3 0 1 2 8 0.0030892 1 0 0
360 2 9 2 0 1 2 8 0.000494494 1 0 0
410 2 9 3 0 1 2 8 0.00341969 1 0 0
361 2 10 2 0 1 2 8 0.000519581 1 0 0
362 2 11 2 0 1 2 8 0.000529909 1 0 0
411 2 10 3 0 1 2 8 0.00362812 1 0 0
412 2 11 3 0 1 2 8 0.00376262 1 0 0
363 2 12 2 0 1 2 8 0.000532746 1 0 0
364 2 13 2 0 1 2 8 0.000558286 1 0 0
413 2 12 3 0 1 2 8 0.00377957 1 0 0
414 2 13 3 0 1 2 8 0.00398778 1 0 0
365 2 14 2 0 1 2 8 0.000595109 1 0 0
415 2 14 3 0 1 2 8 0.00428377 1 0 0
366 2 15 2 0 1 2 8 0.000606264 1 0 0
367 2 16 2 0 1 2 8 0.000595465 1 0 0
416 2 15 3 0 1 2 8 0.00432968 1 0 0
417 2 16 3 0 1 2 8 0.00420875 1 0 0
368 2 17 2 0 1 2 8 0.000591239 1 0 0
369 2 18 2 0 1 2 8 0.000603315 1 0 0
418 2 17 3 0 1 2 8 0.00417308 1 0 0
419 2 18 3 0 1 2 8 0.00428027 1 0 0
370 2 19 2 0 1 2 8 0.000619706 1 0 0
420 2 19 3 0 1 2 8 0.00443463 1 0 0
371 2 20 2 0 1 2 8 0.000621004 1 0 0
372 2 21 2 0 1 2 8 0.000600612 1 0 0
421 2 20 3 0 1 2 8 0.0044711 1 0 0
422 2 21 3 0 1 2 8 0.00433792 1 0 0
373 2 22 2 0 1 2 8 0.000571359 1 0 0
374 2 23 2 0 1 2 8 0.000540829 1 0 0
423 2 22 3 0 1 2 8 0.00415439 1 0 0
424 2 23 3 0 1 2 8 0.00394501 1 0 0
375 2 24 2 0 1 2 8 0.000513123 1 0 0
425 2 24 3 0 1 2 8 0.00366519 1 0 0
376 2 25 2 0 1 2 8 0.000508304 1 0 0
377 2 26 2 0 1 2 8 0.000532639 1 0 0
426 2 25 3 0 1 2 8 0.00361039 1 0 0
427 2 26 3 0 1 2 8 0.00383878 1 0 0
378 2 27 2 0 1 2 8 0.000566791 1 0 0
379 2 28 2 0 1 2 8 0.00058783 1 0 0
428 2 27 3 0 1 2 8 0.00412662 1 0 0
429 2 28 3 0 1 2 8 0.0042862 1 0 0
380 2 29 2 0 1 2 8 0.000596258 1 0 0
430 2 29 3 0 1 2 8 0.00429708 1 0 0
381 2 30 2 0 1 2 8 0.000611426 1 0 0
382 2 31 2 0 1 2 8 0.000635744 1 0 0
431 2 30 3 0 1 2 8 0.00437011 1 0 0
432 2 31 3 0 1 2 8 0.00453859 1 0 0
383 2 32 2 0 1 2 8 0.000651346 1 0 0
384 2 33 2 0 1 2 8 0.000642977 1 0 0
433 2 32 3 0 1 2 8 0.00466486 1 0 0
434 2 33 3 0 1 2 8 0.00460598 1 0 0
385 2 34 2 0 1 2 8 0.000622507 1 0 0
435 2 34 3 0 1 2 8 0.00444377 1 0 0
386 2 35 2 0 1 2 8 0.000614496 1 0 0
387 2 36 2 0 1 2 8 0.000618444 1 0 0
436 2 35 3 0 1 2 8 0.00438315 1 0 0
437 2 36 3 0 1 2 8 0.00441774 1 0 0
388 2 37 2 0 1 2 8 0.000621226 1 0 0
389 2 38 2 0 1 2 8 0.000618191 1 0 0
438 2 37 3 0 1 2 8 0.00444867 1 0 0
439 2 38 3 0 1 2 8 0.00444744 1 0 0
390 2 39 2 0 1 2 8 0.000607877 1 0 0
440 2 39 3 0 1 2 8 0.00438067 1 0 0
391 2 40 2 0 1 2 8 0.000588913 1 0 0
392 2 41 2 0 1 2 8 0.000562826 1 0 0
441 2 40 3 0 1 2 8 0.00423502 1 0 0
442 2 41 3 0 1 2 8 0.00399073 1 0 0
393 2 42 2 0 1 2 8 0.000544469 1 0 0
394 2 43 2 0 1 2 8 0.000547443 1 0 0
443 2 42 3 0 1 2 8 0.00381509 1 0 0
444 2 43 3 0 1 2 8 0.00382413 1 0 0
395 2 44 2 0 1 2 8 0.000577891 1 0 0
445 2 44 3 0 1 2 8 0.00407866 1 0 0
396 2 45 2 0 1 2 8 0.000616607 1 0 0
397 2 46 2 0 1 2 8 0.000631244 1 0 0
446 2 45 3 0 1 2 8 0.00440092 1 0 0
447 2 46 3 0 1 2 8 0.00452199 1 0 0
398 2 47 2 0 1 2 8 0.000613699 1 0 0
399 2 48 2 0 1 2 8 0.000584589 1 0 0
448 2 47 3 0 1 2 8 0.00438617 1 0 0
449 2 48 3 0 1 2 8 0.0041784 1 0 0
400 2 49 2 0 1 2 8 0.000562144 1 0 0
450 2 49 3 0 1 2 8 0.00399948 1 0 0
451 2 0 4 0 1 2 8 2.38837e-06 1 0 0
452 2 1 4 0 1 2 8 1.0458e-05 1 0 0
453 2 2 4 0 1 2 8 7.77114e-05 1 0 0
454 2 3 4 0 1 2 8 0.000454636 1 0 0
455 2 4 4 0 1 2 7 0.00190721 1 0 0
456 2 5 4 0 1 2 6 0.00536659 1 0 0
457 2 6 4 0 1 2 5 0.0090994 1 0 0
506 1 5.49659 4.86141 0 1.0006 2 0 0.017469 1 0.000943982 0.0139986
507 1 6.49536 4.86349 0 1.02569 2 0 0.0238827 1 0.00698216 0.00780599
458 2 7 4 0 1 2 5 0.012229 1 0 0
459 2 8 4 0 1 2 5 0.0149246 1 0 0
508 1 7.49844 4.86641 0 1.03193 2 0 0.0302701 1 -0.00962066 0.000349042
460 2 9 4 0 1 2 5 0.0166497 1 0 0
510 1 8.49273 4.90138 0 1.01036 2 0 0.0366041 1 -0.000926454 0.000299978
511 1 9.48718 4.9017 0 1.00136 2 0 0.0415775 1 0.00713628 -0.00450997
461 2 10 4 0 1 2 5 0.0178482 1 0 0
462 2 11 4 0 1 2 5 0.0187204 1 0 0
512 1 10.4863 4.88065 0 1.01573 2 0 0.0458676 1 0.00125209 -7.63793e-05
513 1 11.4906 4.87814 0 1.01534 2 0 0.0504313 1 -0.00794108 2.68601e-05
463 2 12 4 0 1 2 5 0.0192466 1 0 0
464 2 13 4 0 1 2 5 0.020367 1 0 0
514 1 12.4866 4.8685 0 1.01802 2 0 0.054684 1 0.00538861 0.00763178
465 2 14 4 0 1 2 5 0.0216315 1 0 0
515 1 13.483 4.88174 0 1.02031 2 0 0.058247 1 0.0145903 -0.0208433
516 1 14.4954 4.86294 0 1.0096 2 0 0.0604252 1 0.00423907 0.00865799
466 2 15 4 0 1 2 5 0.0218513 1 0 0
467 2 16 4 0 1 2 5 0.0210648 1 0 0
518 1 16.4971 4.86304 0 1.02515 2 0 0.0606848 1 0.0043346 -0.00036645
517 1 15.4979 4.85817 0 1.02614 2 0 0.0610638 1 -0.00948564 0.0054108
468 2 17 4 0 1 2 5 0.0206021 1 0 0
469 2 18 4 0 1 2 5 0.0214957 1 0 0
519 1 17.4976 4.85894 0 1.0239 2 0 0.0601828 1 -0.00474689 0.00350239
470 2 19 4 0 1 2 5 0.0224402 1 0 0
520 1 18.5012 4.86161 0 1.00577 2 0 0.0611258 1 -0.00178791 -0.00673594
521 1 19.4999 4.86271 0 1.00453 2 0 0.0616723 1 -0.00567285 0.00737764
471 2 20 4 0 1 2 5 0.0227241 1 0 0
472 2 21 4 0 1 2 5 0.022249 1 0 0
523 1 21.4936 4.86835 0 1.02268 2 0 0.0614446 1 0.00652399 0.0019197
522 1 20.4964 4.87002 0 1.0139 2 0 0.0615003 1 0.00335902 -0.00471229
473 2 22 4 0 1 2 5 0.0216542 1 0 0
474 2 23 4 0 1 2 5 0.0207549 1 0 0
524 1 22.4938 4.87404 0 1.01383 2 0 0.0608942 1 0 -5e-05
475 2 24 4 0 1 2 5 0.0193322 1 0 0
525 1 23.4969 4.86697 0 1.03669 2 0 0.0602222 1 0.000737898 0.00123754
526 1 24.4975 4.86583 0 1.04245 2 0 0.0618143 1 0.00142011 0.00242155
476 2 25 4 0 1 2 5 0.0189036 1 0 0
477 2 26 4 0 1 2 5 0.0199587 1 0 0
528 1 26.5028 4.86475 0 1.04147 2 0 0.0646807 1 0.00175697 -0.00410552
527 1 25.501 4.86648 0 1.03798 2 0 0.0634333 1 0.00119604 -0.00214471
478 2 27 4 0 1 2 5 0.0217417 1 0 0
479 2 28 4 0 1 2 5 0.0224443 1 0 0
529 1 27.5025 4.8647 0 1.0019 2 0 0.0655191 1 0.00199244 -0.00494622
480 2 29 4 0 1 2 5 0.0221648 1 0 0
531 1 29.5006 4.86454 0 1.01679 2 0 0.064728 1 -0.000616979 0.000942405
530 1 28.5018 4.86367 0 1.02091 2 0 0.0655774 1 0.00232579 -0.00219381
481 2 30 4 0 1 2 5 0.0220784 1 0 0
482 2 31 4 0 1 2 5 0.0229239 1 0 0
533 1 31.4982 4.86836 0 1.004 2 0 0.0626528 1 0.00373726 -0.00218957
532 1 30.4995 4.8648 0 1.0182 2 0 0.0634301 1 0.00385285 -0.00268794
483 2 32 4 0 1 2 5 0.0235476 1 0 0
484 2 33 4 0 1 2 5 0.0232655 1 0 0
534 1 32.5013 4.86526 0 1.00171 2 0 0.0622706 1 -0.000682486 -0.00584195
485 2 34 4 0 1 2 5 0.0225082 1 0 0
535 1 33.4993 4.8682 0 1.00275 2 0 0.0622121 1 0.00488445 -0.00455717
536 1 34.4985 4.87198 0 1.0237 2 0 0.0623711 1 -0.00855703 -0.0014925
486 2 35 4 0 1 2 5 0.0222205 1 0 0
487 2 36 4 0 1 2 5 0.0223091 1 0 0
538 1 36.4936 4.86672 0 1.01227 2 0 0.0625681 1 0.00294191 0.00370835
488 2 37 4 0 1 2 5 0.0225621 1 0 0
489 2 38 4 0 1 2 5 0.0226126 1 0 0
539 1 37.5078 4.88352 0 1.00174 2 0 0.0620021 1 -0.00490351 -3.22158e-05
490 2 39 4 0 1 2 5 0.0223338 1 0 0
541 1 39.5002 4.87612 0 1.00168 2 0 0.0593267 1 0.0117954 -0.00243817
540 1 38.5054 4.8799 0 1.01715 2 0 0.0609236 1 -0.00556353 -2.79517e-05
491 2 40 4 0 1 2 5 0.0215012 1 0 0
492 2 41 4 0 1 2 5 0.0198497 1 0 0
542 1 40.5027 4.86446 0 1.01016 2 0 0.0563458 1 -0.00559127 0.00463746
543 1 41.5013 4.87101 0 1.03252 2 0 0.0509005 1 0.000458809 -0.000111249
493 2 42 4 0 1 2 5 0.0186799 1 0 0
494 2 43 4 0 1 2 5 0.0186324 1 0 0
544 1 42.4995 4.90399 0 1.0319 2 0 0.0476555 1 0.00284887 -0.000714032
495 2 44 4 0 1 2 5 0.0200952 1 0 0
545 1 43.4994 4.86467 0 1.03659 2 0 0.0486591 1 -0.0153867 -0.00658382
546 1 44.4944 4.86286 0 1.01001 2 0 0.0538133 1 0.00798857 -0.00038208
496 2 45 4 0 1 2 5 0.0219931 1 0 0
497 2 46 4 0 1 2 5 0.0226606 1 0 0
547 1 45.4934 4.86171 0 1.00173 2 0 0.0575912 1 0.00144406 0.00207865
548 1 46.4928 4.86218 0 1.00807 2 0 0.0593303 1 -0.000230964 -0.00261106
498 2 47 4 0 1 2 5 0.0220696 1 0 0
499 2 48 4 0 1 2 5 0.0211343 1 0 0
549 1 47.4962 4.8672 0 1.02093 2 0 0.0601675 1 -0.0063205 -0.00483436
500 2 49 4 0 1 2 5 0.0201615 1 0 0
550 1 48.4944 4.86792 0 1.02225 2 0 0.0609274 1 0.00118121 0.00194936
8501 1 49.4926 4.87065 0 1.06187 2 0 0.061617 1 0.00415767 -0.00095074
501 2 0 5 0 1 2 8 4.66146e-06 1 0 0
502 2 1 5 0 1 2 8 2.1532e-05 1 0 0
551 2 0 6 0 1 2 8 7.21952e-06 1 0 0
552 2 1 6 0 1 2 8 3.44543e-05 1 0 0
503 2 2 5 0 1 2 8 0.000170577 1 0 0
504 2 3 5 0 1 2 8 0.00108405 1 0 0
553 2 2 6 0 1 2 8 0.000279469 1 0 0
554 2 3 6 0 1 2 8 0.00182362 1 0 0
505 2 4 5 0 1 2 6 0.00519344 1 0 0
555 2 4 6 0 1 2 5 0.00878236 1 0 0
556 1 4.95458 5.70633 0 1.02426 2 0 0.0200604 1 -0.00305012 -0.00107946
557 1 5.95053 5.75705 0 1.00456 2 0 0.0309328 1 -0.00330685 0.000124913
558 1 6.94607 5.76889 0 1.00032 2 0 0.0410369 1 0.00497057 -0.0069357
509 1 7.95572 5.77732 0 1.00999 2 0 0.0513491 1 0 -5e-05
560 1 8.97737 5.78897 0 1.01571 2 0 0.0615908 1 0 -5e-05
561 1 9.98576 5.76545 0 1.04128 2 0 0.0704577 1 -0.0133355 0.0045974
562 1 10.9778 5.75565 0 1.02468 2 0 0.0774407 1 0.0217069 -0.0109935
563 1 11.9845 5.75621 0 1.00884 2 0 0.0842714 1 -0.00641789 -0.0110202
565 1 12.9901 5.74044 0 1.01555 2 0 0.0909062 1 -0.0154114 0.00894317
566 1 13.9897 5.74133 0 1.01485 2 0 0.0956165 1 -0.00727563 -0.000514004
567 1 14.9833 5.73551 0 1.00349 2 0 0.0981289 1 0.00449062 -0.0144049
568 1 15.986 5.71944 0 1.02492 2 0 0.0987892 1 -0.00201086 0.00617755
569 1 17.9951 5.71633 0 1.01386 2 0 0.0974825 0.999948 -0.00372434 0.00640407
618 1 16.9998 5.72432 0 1.00786 2 0 0.0978636 0.999998 -0.00351542 -0.000108338
570 1 18.9925 5.72712 0 1.00562 2 0 0.0979865 0.999997 0.00605852 0.00052194
571 1 19.9925 5.73126 0 1.00943 2 0 0.096862 1 -0.00176943 0.0043246
572 1 20.9942 5.73669 0 1.02492 2 0 0.0967203 1 -0.00713656 0.000812832
573 1 21.9904 5.73847 0 1.00977 2 0 0.0978338 1 0.00454906 -0.00645583
574 1 22.9971 5.80563 0 1.00488 2 0 0.100413 0.999729 -1.04213e-06 -6.11092e-05
575 1 24.0005 5.73927 0 1.01237 2 0 0.0994665 0.999935 2.22162e-06 -5.82408e-05
577 1 26.0088 5.72868 0 1.01133 2 0 0.103034 0.999989 -0.00243448 0.00131747
576 1 25.0055 5.73357 0 1.01087 2 0 0.101236 0.999976 -0.00132342 0.00226069
579 1 27.008 5.7279 0 1.01129 2 0 0.104015 1 -0.00115401 0.00278982
580 1 28.0087 5.72747 0 1.02117 2 0 0.105185 1 -0.0112548 0.00388738
581 1 29.0042 5.73165 0 1.01861 2 0 0.104962 0.999999 0.00337059 -0.000240519
632 1 30.0023 5.72823 0 1.0167 2 0 0.102574 1 0.00291951 0.00541845
582 1 31.0025 5.73546 0 1.0143 2 0 0.0992779 1 5.44756e-05 -0.00782568
583 1 32.0078 5.72964 0 1.0088 2 0 0.0979214 0.999998 -0.00537568 0.00470225
584 1 33.0065 5.73535 0 1.00514 2 0 0.0979029 1 -0.00827846 0.00444565
585 1 34.0022 5.73918 0 1.02197 2 0 0.0988396 1 0.00332747 -0.00414339
537 1 35.4929 4.86742 0 1.0067 2 0 0.0629314 1 0.0133285 0.00388076
586 1 35.0018 5.74207 0 1.02669 2 0 0.0996104 1 0.00277492 -0.00312967
587 1 36.0076 5.74023 0 1.01702 2 0 0.100695 1 -0.00278077 0.000415876
588 1 37.0011 5.84275 0 1.01798 2 0 0.103098 0.999993 0.0023848 0.000193669
589 1 38.0057 5.75574 0 1.01656 2 0 0.098614 1 3.13852e-12 -5e-05
590 1 39.0085 5.74536 0 1.01208 2 0 0.095229 1 -0.00132831 0.00229834
640 1 39.5147 6.61814 0 1.01834 2 0 0.133215 0.999672 0.00561563 -2.74224e-05
591 1 40.0094 5.74373 0 1.01334 2 0 0.0928741 1 -0.00266211 -0.00151554
592 1 41.0085 5.74254 0 1.02633 2 0 0.0883113 1 -0.000890876 -0.00599407
641 1 40.5124 6.60702 0 1.00947 2 1 0.13718 0.999999 0.00100714 0.00451113
594 1 42.9929 5.90857 0 1.01497 2 0 0.080487 1 0.00561126 0.000721816
593 1 42.005 5.7727 0 1.02837 2 0 0.0788116 1 -3.16241e-05 0.000104032
595 1 43.9819 5.7337 0 1.01694 2 0 0.0815502 0.999965 0.000437007 0.00780682
596 1 44.9799 5.73058 0 1.01116 2 0 0.0884565 0.999499 0.00420336 -7.20289e-05
597 1 45.9808 5.7278 0 1.01212 2 0 0.0918461 0.999551 -0.000752344 -0.000792664
598 1 46.9805 5.7256 0 1.00861 2 0 0.093488 0.999253 0.00180682 0.00194632
599 1 47.9821 5.73711 0 1.02545 2 0 0.0955398 0.999956 0.000280802 0.000696271
600 1 48.9926 5.73607 0 1.00476 2 0 0.0982008 1 -0.00485796 -0.000959702
2600 1 48.9939 44.8839 0 1.00474 0 0 0.5 1 -0.000200107 0.000206565
601 2 0 7 0 1 2 8 9.5192e-06 1 0 0
602 2 1 7 0 1 2 8 4.62361e-05 1 0 0
651 2 0 8 0 1 2 8 1.12726e-05 1 0 0
652 2 1 8 0 1 2 8 5.50855e-05 1 0 0
603 2 2 7 0 1 2 8 0.000379264 1 0 0
604 2 3 7 0 1 2 8 0.00251577 1 0 0
653 2 2 8 0 1 2 8 0.00045631 1 0 0
654 2 3 8 0 1 2 8 0.00309509 1 0 0
605 2 4 7 0 1 2 5 0.0120309 1 0 0
655 2 4 8 0 1 2 5 0.0149031 1 0 0
656 1 4.87279 7.48527 0 1.01253 2 0 0.0305273 1 0.00232972 0.00124533
606 1 5.38656 6.61546 0 1.01839 2 0 0.0329578 1 0 -5e-05
607 1 6.39443 6.66359 0 1.01626 2 0 0.0477638 1 0 -5e-05
657 1 5.88985 7.77654 0 1.02523 2 0 0.053101 1 0 -5e-05
608 1 7.42411 6.64272 0 1.01581 2 0 0.0621252 1 -0.00591392 -0.0101745
609 1 7.91369 7.50316 0 1.00447 2 0 0.0887284 1 0.0301659 0.0211542
658 1 6.9256 7.51595 0 1.00499 2 0 0.0685401 1 -0.017289 -0.0185702
559 1 8.45297 6.66412 0 1.01669 2 0 0.0781282 1 0.00282187 -0.00444045
610 1 9.45448 6.70208 0 1.00382 2 0 0.0926608 1 0 -5e-05
661 1 8.92777 7.56752 0 1.00906 2 0 0.115066 1 -0.0104279 -0.0230399
660 1 8.34177 8.41063 0 0.999698 2 0 0.121464 1 0.00581676 -0.00977246
611 1 10.5083 6.63186 0 1.00368 2 0 0.107863 1 -0.0408852 0.0102213
612 1 9.96732 7.6298 0 1.00002 2 0 0.142687 1 0 -5e-05
564 1 11.4909 6.64626 0 1.01095 2 0 0.115187 1 0.0268248 0.000735623
613 1 10.9677 7.52782 0 1.00877 2 0 0.149151 0.999707 -1.77936e-05 -8.085e-05
614 1 12.4862 6.61371 0 1.01882 2 0 0.12433 0.999999 0.0046513 -0.00728546
665 1 12.97 7.47729 0 1.00809 2 0 0.168395 0.988847 0.00887232 -0.000407839
664 1 11.9672 7.72264 0 1.0022 2 0 0.177352 0.98465 -0.00020046 -0.000375625
615 1 13.4869 6.60285 0 1.00601 2 0 0.130221 0.999999 -0.0105686 -0.0105547
616 1 14.4886 6.61199 0 1.00878 2 0 0.134541 1 -0.00999435 7.07428e-05
666 1 13.9669 7.46511 0 0.997531 2 1 0.169875 0.992661 0.00438333 -0.00176954
617 1 15.4833 6.59148 0 1.01132 2 1 0.138168 1 0.0132896 0.000255106
667 1 14.9649 7.51034 0 1.00922 2 2 0.177327 0.996009 0.00225451 0.00393157
668 1 15.969 7.46961 0 1.01232 2 3 0.186873 0.986566 -4.13134e-05 0.0041526
619 1 16.4841 6.57581 0 1.00791 2 2 0.140684 0.999027 0.0025661 0.00182308
669 1 17.4556 6.81016 0 1.0115 2 2 0.159341 0.959441 -0.00563015 0.000213053
620 1 18.4325 6.60313 0 1.00047 2 1 0.14118 0.981279 -0.00382842 -0.00332378
621 1 19.4262 6.62338 0 1.01086 2 2 0.139233 0.996386 0.00456585 0.000778053
671 1 19.7054 7.76906 0 1.01101 2 3 0.213864 0.746591 -4.4026e-05 -0.00127658
670 1 18.7408 7.54372 0 1.01205 2 1 0.198836 0.717457 -0.00166952 0.00667784
622 1 20.4222 6.63302 0 1.02282 2 2 0.136367 0.999633 9.14898e-05 -0.000994792
623 1 21.4189 6.64221 0 1.01715 2 3 0.139683 0.999513 -0.00266975 0.000142249
672 1 20.7107 8.12779 0 1.01032 2 6 0.249366 0.599519 0.000106385 0.000328337
673 1 21.5927 7.96825 0 1.00705 2 6 0.242103 0.706683 0.000553907 -0.00220529
624 1 22.4227 6.63627 0 1.00933 2 2 0.144493 0.984357 0.00163786 -0.00765803
674 1 22.471 7.89847 0 1.01197 2 5 0.240476 0.524604 0.000176923 0.00464697
625 1 23.5867 6.95709 0 1.01358 2 2 0.171812 0.879792 0.0021402 0.00135558
626 1 24.5203 6.61183 0 1.01095 2 0 0.142802 0.984379 0.00100966 -0.0036938
675 1 23.3394 8.25199 0 1.00234 0 0 0.261614 0.476496 0.000846374 -6.23199e-05
676 1 24.5107 7.91101 0 1.01754 2 3 0.236622 0.357598 0.00116718 0.000298965
578 1 26.5123 6.59296 0 1.0136 2 0 0.143183 0.99609 0.00608821 -0.00274511
628 1 26.1204 7.5084 0 1.00647 2 2 0.197116 0.800862 0.00162263 -0.000873454
627 1 25.5163 6.59434 0 1.0116 2 1 0.140608 0.981774 0.00295106 -0.00332783
629 1 27.5111 6.59143 0 1.00585 2 1 0.144979 0.99755 -0.00235038 -0.0030706
679 1 27.7421 7.56147 0 1.01276 2 0 0.203961 0.797772 0.000482491 0.00186058
678 1 26.8206 8.12411 0 1.01987 2 2 0.23809 0.551434 0.00277348 -0.00168516
630 1 28.5098 6.6048 0 1.00031 2 0 0.147619 0.991359 -0.00363024 -0.00157468
631 1 29.5068 6.59499 0 1.01679 2 0 0.145656 0.991787 0.0022245 0.00384173
681 1 30.0007 7.46635 0 1.0067 2 0 0.196692 0.825887 0.000247812 -0.00155476
680 1 28.805 7.55932 0 1.0041 2 0 0.205957 0.688776 -0.000186404 -0.000257123
682 1 30.5053 6.59902 0 1.0233 2 0 0.142387 0.997076 -0.000444431 0.00579837
633 1 31.5098 6.59464 0 1.00197 2 1 0.136557 0.992358 -0.0043047 -0.000837082
683 1 31.9074 7.51422 0 1.00602 2 0 0.193443 0.779369 -0.000180865 -0.000648259
732 1 30.7991 8.06881 0 1.02086 2 1 0.230245 0.534743 -0.00134541 -0.000537428