ITEM: TIMESTEP
1000
ITEM: NUMBER OF ATOMS
15950
ITEM: BOX BOUNDS pp pp pp
0.0000000000000000e+00 1.0000000000000000e+02
-5.0000000000000000e+00 2.0000000000000000e+02
-5.0000000000000000e-01 5.0000000000000000e-01
ITEM: ATOMS id type x y z c_rho c_phase c_nbond c_temp f_rheo_chi_chi fx fy
1 2 0 -5 0 1 2 8 3.15096e-19 1 0 0
2 2 1 -5 0 1 2 8 1.11877e-18 1 0 0
51 2 0 -4 0 1 2 8 1.05726e-17 1 0 0
52 2 1 -4 0 1 2 8 4.25988e-17 1 0 0
3 2 2 -5 0 1 2 8 4.68657e-18 1 0 0
4 2 3 -5 0 1 2 8 1.44588e-17 1 0 0
53 2 2 -4 0 1 2 8 1.99238e-16 1 0 0
54 2 3 -4 0 1 2 8 6.61575e-16 1 0 0
5 2 4 -5 0 1 2 7 3.29077e-17 1 0 0
55 2 4 -4 0 1 2 8 1.57285e-15 1 0 0
6 2 5 -5 0 1 2 6 5.69025e-17 1 0 0
7 2 6 -5 0 1 2 5 7.81077e-17 1 0 0
56 2 5 -4 0 1 2 8 2.77574e-15 1 0 0
57 2 6 -4 0 1 2 8 3.84231e-15 1 0 0
8 2 7 -5 0 1 2 5 9.05252e-17 1 0 0
9 2 8 -5 0 1 2 5 9.42736e-17 1 0 0
58 2 7 -4 0 1 2 8 4.46473e-15 1 0 0
59 2 8 -4 0 1 2 8 4.64988e-15 1 0 0
10 2 9 -5 0 1 2 5 9.34394e-17 1 0 0
60 2 9 -4 0 1 2 8 4.60723e-15 1 0 0
11 2 10 -5 0 1 2 5 9.20429e-17 1 0 0
12 2 11 -5 0 1 2 5 9.1271e-17 1 0 0
61 2 10 -4 0 1 2 8 4.53989e-15 1 0 0
62 2 11 -4 0 1 2 8 4.50401e-15 1 0 0
13 2 12 -5 0 1 2 5 9.10148e-17 1 0 0
14 2 13 -5 0 1 2 5 9.21051e-17 1 0 0
63 2 12 -4 0 1 2 8 4.49342e-15 1 0 0
64 2 13 -4 0 1 2 8 4.55671e-15 1 0 0
15 2 14 -5 0 1 2 5 9.38929e-17 1 0 0
65 2 14 -4 0 1 2 8 4.66125e-15 1 0 0
16 2 15 -5 0 1 2 5 9.35292e-17 1 0 0
17 2 16 -5 0 1 2 5 9.04029e-17 1 0 0
66 2 15 -4 0 1 2 8 4.65066e-15 1 0 0
67 2 16 -4 0 1 2 8 4.48822e-15 1 0 0
18 2 17 -5 0 1 2 5 8.81852e-17 1 0 0
19 2 18 -5 0 1 2 5 8.9709e-17 1 0 0
68 2 17 -4 0 1 2 8 4.36956e-15 1 0 0
69 2 18 -4 0 1 2 8 4.44656e-15 1 0 0
20 2 19 -5 0 1 2 5 9.30672e-17 1 0 0
70 2 19 -4 0 1 2 8 4.61974e-15 1 0 0
21 2 20 -5 0 1 2 5 9.41128e-17 1 0 0
22 2 21 -5 0 1 2 5 9.15262e-17 1 0 0
71 2 20 -4 0 1 2 8 4.67247e-15 1 0 0
72 2 21 -4 0 1 2 8 4.53867e-15 1 0 0
23 2 22 -5 0 1 2 5 8.75985e-17 1 0 0
24 2 23 -5 0 1 2 5 8.44051e-17 1 0 0
73 2 22 -4 0 1 2 8 4.34367e-15 1 0 0
74 2 23 -4 0 1 2 8 4.1968e-15 1 0 0
25 2 24 -5 0 1 2 5 8.19528e-17 1 0 0
75 2 24 -4 0 1 2 8 4.0886e-15 1 0 0
26 2 25 -5 0 1 2 5 8.03403e-17 1 0 0
27 2 26 -5 0 1 2 5 8.09415e-17 1 0 0
76 2 25 -4 0 1 2 8 4.01134e-15 1 0 0
77 2 26 -4 0 1 2 8 4.03449e-15 1 0 0
28 2 27 -5 0 1 2 5 8.42363e-17 1 0 0
29 2 28 -5 0 1 2 5 8.82733e-17 1 0 0
78 2 27 -4 0 1 2 8 4.189e-15 1 0 0
79 2 28 -4 0 1 2 8 4.37762e-15 1 0 0
30 2 29 -5 0 1 2 5 9.14497e-17 1 0 0
80 2 29 -4 0 1 2 8 4.52196e-15 1 0 0
31 2 30 -5 0 1 2 5 9.48899e-17 1 0 0
32 2 31 -5 0 1 2 5 9.94025e-17 1 0 0
81 2 30 -4 0 1 2 8 4.68582e-15 1 0 0
82 2 31 -4 0 1 2 8 4.91094e-15 1 0 0
33 2 32 -5 0 1 2 5 1.03087e-16 1 0 0
34 2 33 -5 0 1 2 5 1.03497e-16 1 0 0
83 2 32 -4 0 1 2 8 5.09261e-15 1 0 0
84 2 33 -4 0 1 2 8 5.10152e-15 1 0 0
35 2 34 -5 0 1 2 5 1.0128e-16 1 0 0
85 2 34 -4 0 1 2 8 4.97908e-15 1 0 0
36 2 35 -5 0 1 2 5 9.92421e-17 1 0 0
37 2 36 -5 0 1 2 5 9.8655e-17 1 0 0
86 2 35 -4 0 1 2 8 4.87669e-15 1 0 0
87 2 36 -4 0 1 2 8 4.85117e-15 1 0 0
38 2 37 -5 0 1 2 5 9.91952e-17 1 0 0
39 2 38 -5 0 1 2 5 1.00389e-16 1 0 0
88 2 37 -4 0 1 2 8 4.87617e-15 1 0 0
89 2 38 -4 0 1 2 8 4.93042e-15 1 0 0
40 2 39 -5 0 1 2 5 1.01099e-16 1 0 0
90 2 39 -4 0 1 2 8 4.96559e-15 1 0 0
41 2 40 -5 0 1 2 5 9.95367e-17 1 0 0
42 2 41 -5 0 1 2 5 9.45617e-17 1 0 0
91 2 40 -4 0 1 2 8 4.89676e-15 1 0 0
92 2 41 -4 0 1 2 8 4.66292e-15 1 0 0
43 2 42 -5 0 1 2 5 8.79747e-17 1 0 0
44 2 43 -5 0 1 2 5 8.41355e-17 1 0 0
93 2 42 -4 0 1 2 8 4.34535e-15 1 0 0
94 2 43 -4 0 1 2 8 4.15821e-15 1 0 0
45 2 44 -5 0 1 2 5 8.63355e-17 1 0 0
95 2 44 -4 0 1 2 8 4.27413e-15 1 0 0
46 2 45 -5 0 1 2 5 9.26036e-17 1 0 0
47 2 46 -5 0 1 2 5 9.63052e-17 1 0 0
96 2 45 -4 0 1 2 8 4.59958e-15 1 0 0
97 2 46 -4 0 1 2 8 4.79131e-15 1 0 0
48 2 47 -5 0 1 2 5 9.35834e-17 1 0 0
49 2 48 -5 0 1 2 5 8.75581e-17 1 0 0
98 2 47 -4 0 1 2 8 4.65073e-15 1 0 0
99 2 48 -4 0 1 2 8 4.3459e-15 1 0 0
50 2 49 -5 0 1 2 5 8.29547e-17 1 0 0
100 2 49 -4 0 1 2 8 4.11815e-15 1 0 0
101 2 0 -3 0 1 2 8 3.10988e-16 1 0 0
102 2 1 -3 0 1 2 8 1.43296e-15 1 0 0
151 2 0 -2 0 1 2 8 7.77967e-15 1 0 0
152 2 1 -2 0 1 2 8 4.2421e-14 1 0 0
103 2 2 -3 0 1 2 8 7.72516e-15 1 0 0
104 2 3 -3 0 1 2 8 2.88336e-14 1 0 0
153 2 2 -2 0 1 2 8 2.68456e-13 1 0 0
154 2 3 -2 0 1 2 8 1.11399e-12 1 0 0
105 2 4 -3 0 1 2 8 7.44985e-14 1 0 0
155 2 4 -2 0 1 2 8 3.05837e-12 1 0 0
106 2 5 -3 0 1 2 8 1.37535e-13 1 0 0
107 2 6 -3 0 1 2 8 1.93142e-13 1 0 0
156 2 5 -2 0 1 2 8 5.81421e-12 1 0 0
157 2 6 -2 0 1 2 8 8.25691e-12 1 0 0
108 2 7 -3 0 1 2 8 2.24409e-13 1 0 0
109 2 8 -3 0 1 2 8 2.32286e-13 1 0 0
158 2 7 -2 0 1 2 8 9.62832e-12 1 0 0
159 2 8 -2 0 1 2 8 9.98363e-12 1 0 0
110 2 9 -3 0 1 2 8 2.28967e-13 1 0 0
160 2 9 -2 0 1 2 8 9.85152e-12 1 0 0
111 2 10 -3 0 1 2 8 2.26181e-13 1 0 0
112 2 11 -3 0 1 2 8 2.25342e-13 1 0 0
161 2 10 -2 0 1 2 8 9.73663e-12 1 0 0
162 2 11 -2 0 1 2 8 9.69863e-12 1 0 0
113 2 12 -3 0 1 2 8 2.24132e-13 1 0 0
114 2 13 -3 0 1 2 8 2.27669e-13 1 0 0
163 2 12 -2 0 1 2 8 9.65097e-12 1 0 0
164 2 13 -2 0 1 2 8 9.83035e-12 1 0 0
115 2 14 -3 0 1 2 8 2.35145e-13 1 0 0
165 2 14 -2 0 1 2 8 1.01957e-11 1 0 0
116 2 15 -3 0 1 2 8 2.35692e-13 1 0 0
117 2 16 -3 0 1 2 8 2.25774e-13 1 0 0
166 2 15 -2 0 1 2 8 1.02425e-11 1 0 0
167 2 16 -2 0 1 2 8 9.80652e-12 1 0 0
118 2 17 -3 0 1 2 8 2.18421e-13 1 0 0
119 2 18 -3 0 1 2 8 2.23057e-13 1 0 0
168 2 17 -2 0 1 2 8 9.47421e-12 1 0 0
169 2 18 -2 0 1 2 8 9.66962e-12 1 0 0
120 2 19 -3 0 1 2 8 2.33498e-13 1 0 0
170 2 19 -2 0 1 2 8 1.0121e-11 1 0 0
121 2 20 -3 0 1 2 8 2.36355e-13 1 0 0
122 2 21 -3 0 1 2 8 2.27957e-13 1 0 0
171 2 20 -2 0 1 2 8 1.02395e-11 1 0 0
172 2 21 -2 0 1 2 8 9.86521e-12 1 0 0
123 2 22 -3 0 1 2 8 2.17106e-13 1 0 0
124 2 23 -3 0 1 2 8 2.10364e-13 1 0 0
173 2 22 -2 0 1 2 8 9.40028e-12 1 0 0
174 2 23 -2 0 1 2 8 9.14733e-12 1 0 0
125 2 24 -3 0 1 2 8 2.05444e-13 1 0 0
175 2 24 -2 0 1 2 8 8.9861e-12 1 0 0
126 2 25 -3 0 1 2 8 2.00967e-13 1 0 0
127 2 26 -3 0 1 2 8 2.01665e-13 1 0 0
176 2 25 -2 0 1 2 8 8.81064e-12 1 0 0
177 2 26 -2 0 1 2 8 8.81936e-12 1 0 0
128 2 27 -3 0 1 2 8 2.10323e-13 1 0 0
129 2 28 -3 0 1 2 8 2.20526e-13 1 0 0
178 2 27 -2 0 1 2 8 9.15351e-12 1 0 0
179 2 28 -2 0 1 2 8 9.54678e-12 1 0 0
130 2 29 -3 0 1 2 8 2.26744e-13 1 0 0
180 2 29 -2 0 1 2 8 9.78128e-12 1 0 0
131 2 30 -3 0 1 2 8 2.34566e-13 1 0 0
132 2 31 -3 0 1 2 8 2.46887e-13 1 0 0
181 2 30 -2 0 1 2 8 1.01099e-11 1 0 0
182 2 31 -2 0 1 2 8 1.06459e-11 1 0 0
133 2 32 -3 0 1 2 8 2.57132e-13 1 0 0
134 2 33 -3 0 1 2 8 2.56727e-13 1 0 0
183 2 32 -2 0 1 2 8 1.10752e-11 1 0 0
184 2 33 -2 0 1 2 8 1.10171e-11 1 0 0
135 2 34 -3 0 1 2 8 2.48719e-13 1 0 0
185 2 34 -2 0 1 2 8 1.06395e-11 1 0 0
136 2 35 -3 0 1 2 8 2.43284e-13 1 0 0
137 2 36 -3 0 1 2 8 2.42381e-13 1 0 0
186 2 35 -2 0 1 2 8 1.04136e-11 1 0 0
187 2 36 -2 0 1 2 8 1.03916e-11 1 0 0
138 2 37 -3 0 1 2 8 2.43384e-13 1 0 0
139 2 38 -3 0 1 2 8 2.46183e-13 1 0 0
188 2 37 -2 0 1 2 8 1.04257e-11 1 0 0
189 2 38 -2 0 1 2 8 1.05178e-11 1 0 0
140 2 39 -3 0 1 2 8 2.48262e-13 1 0 0
190 2 39 -2 0 1 2 8 1.05902e-11 1 0 0
141 2 40 -3 0 1 2 8 2.45453e-13 1 0 0
142 2 41 -3 0 1 2 8 2.33533e-13 1 0 0
191 2 40 -2 0 1 2 8 1.04864e-11 1 0 0
192 2 41 -2 0 1 2 8 1.00262e-11 1 0 0
143 2 42 -3 0 1 2 8 2.16633e-13 1 0 0
144 2 43 -3 0 1 2 8 2.06476e-13 1 0 0
193 2 42 -2 0 1 2 8 9.35465e-12 1 0 0
194 2 43 -2 0 1 2 8 8.94055e-12 1 0 0
145 2 44 -3 0 1 2 8 2.13313e-13 1 0 0
195 2 44 -2 0 1 2 8 9.24098e-12 1 0 0
146 2 45 -3 0 1 2 8 2.32699e-13 1 0 0
147 2 46 -3 0 1 2 8 2.43821e-13 1 0 0
196 2 45 -2 0 1 2 8 1.00908e-11 1 0 0
197 2 46 -2 0 1 2 8 1.05769e-11 1 0 0
148 2 47 -3 0 1 2 8 2.34642e-13 1 0 0
149 2 48 -3 0 1 2 8 2.17325e-13 1 0 0
198 2 47 -2 0 1 2 8 1.01752e-11 1 0 0
199 2 48 -2 0 1 2 8 9.4348e-12 1 0 0
150 2 49 -3 0 1 2 8 2.05642e-13 1 0 0
200 2 49 -2 0 1 2 8 8.94351e-12 1 0 0
201 2 0 -1 0 1 2 8 1.65374e-13 1 0 0
202 2 1 -1 0 1 2 8 1.04633e-12 1 0 0
203 2 2 -1 0 1 2 8 7.98236e-12 1 0 0
204 2 3 -1 0 1 2 8 3.94833e-11 1 0 0
205 2 4 -1 0 1 2 8 1.23743e-10 1 0 0
206 2 5 -1 0 1 2 8 2.52676e-10 1 0 0
207 2 6 -1 0 1 2 8 3.65527e-10 1 0 0
208 2 7 -1 0 1 2 8 4.2625e-10 1 0 0
209 2 8 -1 0 1 2 8 4.38026e-10 1 0 0
210 2 9 -1 0 1 2 8 4.28657e-10 1 0 0
211 2 10 -1 0 1 2 8 4.26314e-10 1 0 0
212 2 11 -1 0 1 2 8 4.28673e-10 1 0 0
213 2 12 -1 0 1 2 8 4.22104e-10 1 0 0
214 2 13 -1 0 1 2 8 4.31073e-10 1 0 0
215 2 14 -1 0 1 2 8 4.5533e-10 1 0 0
216 2 15 -1 0 1 2 8 4.618e-10 1 0 0
217 2 16 -1 0 1 2 8 4.36914e-10 1 0 0
218 2 17 -1 0 1 2 8 4.18741e-10 1 0 0
219 2 18 -1 0 1 2 8 4.29032e-10 1 0 0
220 2 19 -1 0 1 2 8 4.534e-10 1 0 0
221 2 20 -1 0 1 2 8 4.58856e-10 1 0 0
222 2 21 -1 0 1 2 8 4.36298e-10 1 0 0
223 2 22 -1 0 1 2 8 4.11951e-10 1 0 0
224 2 23 -1 0 1 2 8 4.03494e-10 1 0 0
225 2 24 -1 0 1 2 8 3.984e-10 1 0 0
226 2 25 -1 0 1 2 8 3.8888e-10 1 0 0
227 2 26 -1 0 1 2 8 3.87649e-10 1 0 0
228 2 27 -1 0 1 2 8 4.05313e-10 1 0 0
229 2 28 -1 0 1 2 8 4.2546e-10 1 0 0
230 2 29 -1 0 1 2 8 4.32144e-10 1 0 0
231 2 30 -1 0 1 2 8 4.473e-10 1 0 0
232 2 31 -1 0 1 2 8 4.74487e-10 1 0 0
233 2 32 -1 0 1 2 8 4.96854e-10 1 0 0
234 2 33 -1 0 1 2 8 4.90668e-10 1 0 0
235 2 34 -1 0 1 2 8 4.67189e-10 1 0 0
236 2 35 -1 0 1 2 8 4.57768e-10 1 0 0
237 2 36 -1 0 1 2 8 4.58874e-10 1 0 0
238 2 37 -1 0 1 2 8 4.5843e-10 1 0 0
239 2 38 -1 0 1 2 8 4.62623e-10 1 0 0
240 2 39 -1 0 1 2 8 4.64934e-10 1 0 0
241 2 40 -1 0 1 2 8 4.62043e-10 1 0 0
242 2 41 -1 0 1 2 8 4.41833e-10 1 0 0
243 2 42 -1 0 1 2 8 4.11434e-10 1 0 0
244 2 43 -1 0 1 2 8 3.9191e-10 1 0 0
245 2 44 -1 0 1 2 8 4.07434e-10 1 0 0
246 2 45 -1 0 1 2 8 4.52878e-10 1 0 0
247 2 46 -1 0 1 2 8 4.77884e-10 1 0 0
248 2 47 -1 0 1 2 8 4.52619e-10 1 0 0
249 2 48 -1 0 1 2 8 4.15433e-10 1 0 0
250 2 49 -1 0 1 2 8 3.94586e-10 1 0 0
251 2 0 0 0 1 2 8 2.82454e-12 1 0 0
252 2 1 0 0 1 2 8 2.07838e-11 1 0 0
301 2 0 1 0 1 2 8 3.66343e-11 1 0 0
302 2 1 1 0 1 2 8 3.34906e-10 1 0 0
253 2 2 0 0 1 2 8 2.04097e-10 1 0 0
254 2 3 0 0 1 2 8 1.20146e-09 1 0 0
303 2 2 1 0 1 2 8 3.93367e-09 1 0 0
304 2 3 1 0 1 2 8 3.01759e-08 1 0 0
255 2 4 0 0 1 2 8 4.1202e-09 1 0 0
305 2 4 1 0 1 2 8 1.30978e-07 1 0 0
256 2 5 0 0 1 2 8 8.73941e-09 1 0 0
257 2 6 0 0 1 2 8 1.28107e-08 1 0 0
306 2 5 1 0 1 2 8 3.1717e-07 1 0 0
307 2 6 1 0 1 2 8 4.76224e-07 1 0 0
258 2 7 0 0 1 2 8 1.50209e-08 1 0 0
259 2 8 0 0 1 2 8 1.55352e-08 1 0 0
308 2 7 1 0 1 2 8 5.611e-07 1 0 0
309 2 8 1 0 1 2 8 5.73735e-07 1 0 0
260 2 9 0 0 1 2 8 1.52772e-08 1 0 0
310 2 9 1 0 1 2 8 5.55158e-07 1 0 0
261 2 10 0 0 1 2 8 1.51913e-08 1 0 0
262 2 11 0 0 1 2 8 1.52221e-08 1 0 0
311 2 10 1 0 1 2 8 5.59882e-07 1 0 0
312 2 11 1 0 1 2 8 5.76186e-07 1 0 0
263 2 12 0 0 1 2 8 1.50197e-08 1 0 0
264 2 13 0 0 1 2 8 1.54027e-08 1 0 0
313 2 12 1 0 1 2 8 5.47423e-07 1 0 0
314 2 13 1 0 1 2 8 5.66955e-07 1 0 0
265 2 14 0 0 1 2 8 1.63227e-08 1 0 0
315 2 14 1 0 1 2 8 6.24655e-07 1 0 0
266 2 15 0 0 1 2 8 1.65874e-08 1 0 0
267 2 16 0 0 1 2 8 1.57409e-08 1 0 0
316 2 15 1 0 1 2 8 6.4693e-07 1 0 0
317 2 16 1 0 1 2 8 6.01395e-07 1 0 0
268 2 17 0 0 1 2 8 1.51038e-08 1 0 0
269 2 18 0 0 1 2 8 1.54319e-08 1 0 0
318 2 17 1 0 1 2 8 5.7375e-07 1 0 0
319 2 18 1 0 1 2 8 5.86376e-07 1 0 0
270 2 19 0 0 1 2 8 1.62381e-08 1 0 0
320 2 19 1 0 1 2 8 6.23223e-07 1 0 0
271 2 20 0 0 1 2 8 1.64075e-08 1 0 0
272 2 21 0 0 1 2 8 1.56133e-08 1 0 0
321 2 20 1 0 1 2 8 6.29822e-07 1 0 0
322 2 21 1 0 1 2 8 5.84722e-07 1 0 0
273 2 22 0 0 1 2 8 1.47718e-08 1 0 0
274 2 23 0 0 1 2 8 1.45474e-08 1 0 0
323 2 22 1 0 1 2 8 5.41391e-07 1 0 0
324 2 23 1 0 1 2 8 5.41213e-07 1 0 0
275 2 24 0 0 1 2 8 1.45063e-08 1 0 0
325 2 24 1 0 1 2 8 5.43526e-07 1 0 0
276 2 25 0 0 1 2 8 1.42394e-08 1 0 0
277 2 26 0 0 1 2 8 1.41494e-08 1 0 0
326 2 25 1 0 1 2 8 5.29834e-07 1 0 0
327 2 26 1 0 1 2 8 5.23703e-07 1 0 0
278 2 27 0 0 1 2 8 1.4644e-08 1 0 0
279 2 28 0 0 1 2 8 1.51992e-08 1 0 0
328 2 27 1 0 1 2 8 5.48394e-07 1 0 0
329 2 28 1 0 1 2 8 5.75929e-07 1 0 0
280 2 29 0 0 1 2 8 1.53922e-08 1 0 0
330 2 29 1 0 1 2 8 5.72818e-07 1 0 0
281 2 30 0 0 1 2 8 1.59412e-08 1 0 0
282 2 31 0 0 1 2 8 1.69092e-08 1 0 0
331 2 30 1 0 1 2 8 6.05401e-07 1 0 0
332 2 31 1 0 1 2 8 6.49126e-07 1 0 0
283 2 32 0 0 1 2 8 1.76411e-08 1 0 0
284 2 33 0 0 1 2 8 1.73223e-08 1 0 0
333 2 32 1 0 1 2 8 6.84419e-07 1 0 0
334 2 33 1 0 1 2 8 6.61659e-07 1 0 0
285 2 34 0 0 1 2 8 1.64457e-08 1 0 0
335 2 34 1 0 1 2 8 6.08644e-07 1 0 0
286 2 35 0 0 1 2 8 1.61578e-08 1 0 0
287 2 36 0 0 1 2 8 1.62414e-08 1 0 0
336 2 35 1 0 1 2 8 6.03447e-07 1 0 0
337 2 36 1 0 1 2 8 6.14391e-07 1 0 0
288 2 37 0 0 1 2 8 1.62044e-08 1 0 0
289 2 38 0 0 1 2 8 1.62497e-08 1 0 0
338 2 37 1 0 1 2 8 6.0395e-07 1 0 0
339 2 38 1 0 1 2 8 6.06779e-07 1 0 0
290 2 39 0 0 1 2 8 1.6251e-08 1 0 0
340 2 39 1 0 1 2 8 5.98092e-07 1 0 0
291 2 40 0 0 1 2 8 1.61535e-08 1 0 0
292 2 41 0 0 1 2 8 1.56009e-08 1 0 0
341 2 40 1 0 1 2 8 5.98218e-07 1 0 0
342 2 41 1 0 1 2 8 5.79483e-07 1 0 0
293 2 42 0 0 1 2 8 1.47354e-08 1 0 0
294 2 43 0 0 1 2 8 1.41346e-08 1 0 0
343 2 42 1 0 1 2 8 5.53389e-07 1 0 0
344 2 43 1 0 1 2 8 5.30021e-07 1 0 0
295 2 44 0 0 1 2 8 1.46596e-08 1 0 0
345 2 44 1 0 1 2 8 5.5429e-07 1 0 0
296 2 45 0 0 1 2 8 1.62153e-08 1 0 0
297 2 46 0 0 1 2 8 1.70663e-08 1 0 0
346 2 45 1 0 1 2 8 6.26393e-07 1 0 0
347 2 46 1 0 1 2 8 6.63481e-07 1 0 0
298 2 47 0 0 1 2 8 1.62147e-08 1 0 0
299 2 48 0 0 1 2 8 1.49836e-08 1 0 0
348 2 47 1 0 1 2 8 6.11966e-07 1 0 0
349 2 48 1 0 1 2 8 5.61441e-07 1 0 0
300 2 49 0 0 1 2 8 1.42903e-08 1 0 0
350 2 49 1 0 1 2 8 5.41163e-07 1 0 0
351 2 0 2 0 1 2 8 3.54779e-10 1 0 0
352 2 1 2 0 1 2 8 3.76302e-09 1 0 0
401 2 0 3 0 1 2 8 2.10491e-09 1 0 0
402 2 1 3 0 1 2 8 2.74352e-08 1 0 0
353 2 2 2 0 1 2 8 5.60472e-08 1 0 0
354 2 3 2 0 1 2 8 6.20599e-07 1 0 0
403 2 2 3 0 1 2 8 5.83725e-07 1 0 0
404 2 3 3 0 1 2 8 7.62884e-06 1 0 0
355 2 4 2 0 1 2 8 3.17611e-06 1 0 0
405 2 4 3 0 1 2 8 6.08453e-05 1 0 0
356 2 5 2 0 1 2 8 8.09838e-06 1 0 0
357 2 6 2 0 1 2 8 1.23422e-05 1 0 0
406 2 5 3 0 1 2 8 0.000213811 1 0 0
407 2 6 3 0 1 2 8 0.000336266 1 0 0
358 2 7 2 0 1 2 8 1.46572e-05 1 0 0
359 2 8 2 0 1 2 8 1.53077e-05 1 0 0
408 2 7 3 0 1 2 8 0.000413061 1 0 0
409 2 8 3 0 1 2 8 0.000441401 1 0 0
360 2 9 2 0 1 2 8 1.50715e-05 1 0 0
410 2 9 3 0 1 2 8 0.000413687 1 0 0
361 2 10 2 0 1 2 8 1.51384e-05 1 0 0
362 2 11 2 0 1 2 8 1.5294e-05 1 0 0
411 2 10 3 0 1 2 8 0.000425865 1 0 0
412 2 11 3 0 1 2 8 0.000483487 1 0 0
363 2 12 2 0 1 2 8 1.47611e-05 1 0 0
364 2 13 2 0 1 2 8 1.53547e-05 1 0 0
413 2 12 3 0 1 2 8 0.000396282 1 0 0
414 2 13 3 0 1 2 8 0.000432593 1 0 0
365 2 14 2 0 1 2 8 1.67826e-05 1 0 0
415 2 14 3 0 1 2 8 0.00052584 1 0 0
366 2 15 2 0 1 2 8 1.7328e-05 1 0 0
367 2 16 2 0 1 2 8 1.63329e-05 1 0 0
416 2 15 3 0 1 2 8 0.000557026 1 0 0
417 2 16 3 0 1 2 8 0.000509104 1 0 0
368 2 17 2 0 1 2 8 1.57101e-05 1 0 0
369 2 18 2 0 1 2 8 1.59601e-05 1 0 0
418 2 17 3 0 1 2 8 0.000497684 1 0 0
419 2 18 3 0 1 2 8 0.00049897 1 0 0
370 2 19 2 0 1 2 8 1.67387e-05 1 0 0
420 2 19 3 0 1 2 8 0.000524548 1 0 0
371 2 20 2 0 1 2 8 1.6866e-05 1 0 0
372 2 21 2 0 1 2 8 1.58049e-05 1 0 0
421 2 20 3 0 1 2 8 0.000528456 1 0 0
422 2 21 3 0 1 2 8 0.000476841 1 0 0
373 2 22 2 0 1 2 8 1.47643e-05 1 0 0
374 2 23 2 0 1 2 8 1.47837e-05 1 0 0
423 2 22 3 0 1 2 8 0.000418736 1 0 0
424 2 23 3 0 1 2 8 0.000431185 1 0 0
375 2 24 2 0 1 2 8 1.50948e-05 1 0 0
425 2 24 3 0 1 2 9 0.000431557 1 0 0
376 2 25 2 0 1 2 8 1.48989e-05 1 0 0
377 2 26 2 0 1 2 8 1.46749e-05 1 0 0
426 2 25 3 0 1 2 9 0.000424452 1 0 0
427 2 26 3 0 1 2 8 0.000423345 1 0 0
378 2 27 2 0 1 2 8 1.50361e-05 1 0 0
379 2 28 2 0 1 2 8 1.53649e-05 1 0 0
428 2 27 3 0 1 2 8 0.000434874 1 0 0
429 2 28 3 0 1 2 8 0.000442803 1 0 0
380 2 29 2 0 1 2 8 1.53336e-05 1 0 0
430 2 29 3 0 1 2 8 0.000430956 1 0 0
381 2 30 2 0 1 2 8 1.61825e-05 1 0 0
382 2 31 2 0 1 2 8 1.73152e-05 1 0 0
431 2 30 3 0 1 2 8 0.000509972 1 0 0
432 2 31 3 0 1 2 8 0.000545201 1 0 0
383 2 32 2 0 1 2 8 1.80943e-05 1 0 0
384 2 33 2 0 1 2 8 1.7396e-05 1 0 0
433 2 32 3 0 1 2 8 0.000583118 1 0 0
434 2 33 3 0 1 2 8 0.000547892 0.999999 0 0
385 2 34 2 0 1 2 8 1.60626e-05 1 0 0
435 2 34 3 0 1 2 8 0.000468918 1 0 0
386 2 35 2 0 1 2 8 1.60071e-05 1 0 0
387 2 36 2 0 1 2 8 1.63231e-05 1 0 0
436 2 35 3 0 1 2 9 0.000480164 1 0 0
437 2 36 3 0 1 2 8 0.000509099 1 0 0
388 2 37 2 0 1 2 8 1.6069e-05 1 0 0
389 2 38 2 0 1 2 8 1.58881e-05 1 0 0
438 2 37 3 0 1 2 8 0.000481994 1 0 0
439 2 38 3 0 1 2 8 0.000469649 1 0 0
390 2 39 2 0 1 2 8 1.55104e-05 1 0 0
440 2 39 3 0 1 2 8 0.000436821 1 0 0
391 2 40 2 0 1 2 8 1.54278e-05 1 0 0
392 2 41 2 0 1 2 8 1.52571e-05 1 0 0
441 2 40 3 0 1 2 8 0.000447904 1 0 0
442 2 41 3 0 1 2 8 0.000445696 1 0 0
393 2 42 2 0 1 2 8 1.49879e-05 1 0 0
394 2 43 2 0 1 2 8 1.45475e-05 1 0 0
443 2 42 3 0 1 2 8 0.000464707 1 0 0
444 2 43 3 0 1 2 8 0.000444898 1 0 0
395 2 44 2 0 1 2 8 1.50772e-05 1 0 0
445 2 44 3 0 1 2 8 0.000474197 1 0 0
396 2 45 2 0 1 2 8 1.67537e-05 1 0 0
397 2 46 2 0 1 2 8 1.76057e-05 1 0 0
446 2 45 3 0 1 2 8 0.000537107 1 0 0
447 2 46 3 0 1 2 8 0.000566928 1 0 0
398 2 47 2 0 1 2 8 1.65065e-05 1 0 0
399 2 48 2 0 1 2 8 1.54008e-05 1 0 0
448 2 47 3 0 1 2 8 0.000503766 1 0 0
449 2 48 3 0 1 2 8 0.000474944 1 0 0
400 2 49 2 0 1 2 8 1.49327e-05 1 0 0
450 2 49 3 0 1 2 8 0.000468409 1 0 0
451 2 0 4 0 1 2 8 7.392e-09 1 0 0
452 2 1 4 0 1 2 8 1.163e-07 1 0 0
453 2 2 4 0 1 2 8 2.8991e-06 1 0 0
454 2 3 4 0 1 2 8 5.66735e-05 1 0 0
455 2 4 4 0 1 2 7 0.000829141 1 0 0
456 2 5 4 0 1 2 6 0.00316446 1 0 0
457 2 6 4 0 1 2 5 0.00496532 1 0 0
458 2 7 4 0 1 2 5 0.00603468 1 0 0
459 2 8 4 0 1 2 5 0.00693751 1 0 0
508 1 7.49265 4.90518 0 1.03193 2 0 0.0828817 0.990115 9.8493e-05 -0.00089143
460 2 9 4 0 1 2 5 0.00703983 0.999817 0 0
510 1 8.541 4.88473 0 1.01036 2 0 0.0968432 0.985841 -0.00315705 0.00542999
461 2 10 4 0 1 2 5 0.0071061 0.998895 0 0
462 2 11 4 0 1 2 5 0.00711334 0.999586 0 0
512 1 10.4491 4.89548 0 1.01573 2 0 0.104692 0.891071 -0.000190099 -0.00277124
513 1 11.5294 4.87634 0 1.01534 2 0 0.10522 0.919396 -0.00505836 0.00734322
463 2 12 4 0 1 2 6 0.00673749 0.999676 0 0
464 2 13 4 0 1 2 5 0.00716348 0.999738 0 0
465 2 14 4 0 1 2 5 0.00784906 0.998847 0 0
515 1 13.4834 4.87592 0 1.02031 2 0 0.105756 0.9144 -0.000700511 -0.00333425
516 1 14.4854 4.87492 0 1.0096 2 0 0.100614 0.877628 -0.00054265 -0.00192346
466 2 15 4 0 1 2 5 0.00812199 0.99861 0 0
467 2 16 4 0 1 2 5 0.00775886 0.998661 0 0
517 1 15.4919 4.86798 0 1.02614 2 0 0.0992708 0.879529 -0.00218568 -0.00181717
518 1 16.4899 4.86779 0 1.02515 2 0 0.102266 0.872381 0.00096287 0.00017598
468 2 17 4 0 1 2 5 0.0077583 0.998015 0 0
469 2 18 4 0 1 2 5 0.00780349 0.993964 0 0
519 1 17.4871 4.8656 0 1.0239 2 0 0.109599 0.842726 0.00569301 0.00347309
470 2 19 4 0 1 2 5 0.00808259 0.9869 0 0
520 1 18.4845 4.87442 0 1.00577 2 0 0.123387 0.772535 0.00394848 -0.00372278
521 1 19.4857 4.86983 0 1.00453 2 0 0.130591 0.744095 -0.010666 0.00302685
471 2 20 4 0 1 2 5 0.00810822 0.987882 0 0
472 2 21 4 0 1 2 5 0.00759669 0.996324 0 0
522 1 20.4795 4.86901 0 1.0139 2 0 0.122238 0.802175 0.00686986 0.00600496
523 1 21.4715 4.89411 0 1.02268 2 0 0.11623 0.871005 -0.00313551 -0.00846429
473 2 22 4 0 1 2 5 0.00705854 0.998928 0 0
474 2 23 4 0 1 2 5 0.00704921 0.999358 0 0
524 1 22.4615 4.8882 0 1.01383 2 0 0.106779 0.897724 0.0105357 -0.00571242
475 2 24 4 0 1 2 5 0.00738809 0.999889 0 0
476 2 25 4 0 1 2 5 0.00739819 0.999926 0 0
477 2 26 4 0 1 2 5 0.00723017 0.999885 0 0
528 1 26.5055 4.90045 0 1.04147 2 0 0.0930495 0.923128 -0.00207422 -0.00772839
478 2 27 4 0 1 2 5 0.00718032 0.999512 0 0
479 2 28 4 0 1 2 5 0.00693885 0.999667 0 0
480 2 29 4 0 1 2 5 0.00692001 0.999552 0 0
531 1 29.4122 4.90722 0 1.01679 2 0 0.106363 0.888784 0.0018184 0.00217356
481 2 30 4 0 1 2 5 0.00755254 0.99758 0 0
482 2 31 4 0 1 2 5 0.00806191 0.994489 0 0
532 1 30.4218 4.90436 0 1.0182 2 0 0.110449 0.816772 -0.000480824 -0.00322203
533 1 31.422 4.90465 0 1.004 2 0 0.119967 0.766634 -0.00211578 -0.000265479
483 2 32 4 0 1 2 5 0.00848896 0.986787 0 0
484 2 33 4 0 1 2 5 0.00811075 0.985108 0 0
534 1 32.4209 4.90619 0 1.00171 2 0 0.126816 0.717691 0.000525357 -0.00211334
485 2 34 4 0 1 2 5 0.00732879 0.994601 0 0
535 1 33.4202 4.90428 0 1.00275 2 0 0.128531 0.756244 0.00128306 0.00283363
486 2 35 4 0 1 2 5 0.00748167 0.995851 0 0
487 2 36 4 0 1 2 5 0.00771406 0.993599 0 0
537 1 35.431 4.89857 0 1.0067 2 0 0.123176 0.800656 0.000825932 0.00142049
538 1 36.4348 4.89842 0 1.01227 2 0 0.123148 0.769836 -0.00574864 -0.00618691
488 2 37 4 0 1 2 5 0.00751876 0.991239 0 0
489 2 38 4 0 1 2 5 0.00714008 0.993957 0 0
539 1 37.4315 4.90009 0 1.00174 2 1 0.12799 0.770143 0.00351587 -0.00331315
490 2 39 4 0 1 2 5 0.00665588 0.994778 0 0
541 1 39.502 4.87429 0 1.00168 2 0 0.133526 0.791483 -0.00376157 -0.00729011
491 2 40 4 0 1 2 5 0.00656357 0.991247 0 0
492 2 41 4 0 1 2 5 0.00680075 0.996127 0 0
542 1 40.5276 4.87183 0 1.01016 2 0 0.146972 0.802359 -0.0194102 0.00470866
543 1 41.5212 4.85513 0 1.03252 2 0 0.107643 0.856552 -0.0384182 0.0213084
493 2 42 4 0 1 2 5 0.00714953 0.997854 0 0
494 2 43 4 0 1 2 5 0.00699719 0.998448 0 0
544 1 42.5067 4.86603 0 1.0319 2 0 0.098065 0.869543 0.017138 -0.00517897
495 2 44 4 0 1 2 5 0.0072192 0.995136 0 0
545 1 43.5023 4.85998 0 1.03659 2 0 0.100015 0.858309 0.00323419 0.00389973
546 1 44.5015 4.86487 0 1.01001 2 0 0.114261 0.78902 -0.00322453 -0.0046918
496 2 45 4 0 1 2 5 0.00794578 0.989293 0 0
497 2 46 4 0 1 2 5 0.00832031 0.987041 0 0
547 1 45.5007 4.86539 0 1.00173 2 0 0.124549 0.751296 -0.00346689 -0.00595115
548 1 46.4988 4.86344 0 1.00807 2 0 0.127259 0.755859 -0.00455352 -0.000149696
498 2 47 4 0 1 2 5 0.00790493 0.989958 0 0
499 2 48 4 0 1 2 5 0.00752129 0.995675 0 0
549 1 47.4939 4.85935 0 1.02093 2 0 0.118061 0.801177 0.0162446 0.0108076
500 2 49 4 0 1 2 5 0.00746009 0.997798 0 0
550 1 48.4933 4.86664 0 1.02225 2 0 0.108722 0.843044 -0.00690013 -0.00324051
8501 1 49.4878 4.86164 0 1.06187 2 0 0.109152 0.856971 0.0189942 -0.00147534
501 2 0 5 0 1 2 8 1.61698e-08 1 0 0
502 2 1 5 0 1 2 8 2.88913e-07 1 0 0
551 2 0 6 0 1 2 8 2.45363e-08 1 0 0
552 2 1 6 0 1 2 8 4.66626e-07 1 0 0
503 2 2 5 0 1 2 8 7.49789e-06 1 0 0
504 2 3 5 0 1 2 8 0.000199212 1 0 0
553 2 2 6 0 1 2 8 1.21232e-05 1 0 0
554 2 3 6 0 1 2 8 0.000332969 1 0 0
506 1 4.97445 5.23726 0 1.0006 2 0 0.0454972 0.999996 -1.02465e-07 -4.98872e-05
505 2 4 5 0 1 2 6 0.00305008 1 0 0
555 2 4 6 0 1 2 5 0.00497947 1 0 0
556 1 5.30461 6.23325 0 1.02426 2 0 0.103514 0.977943 -0.000873577 -0.000724936
507 1 6.07995 5.1991 0 1.02569 2 0 0.0649752 0.990596 -0.000404101 -0.000580525
557 1 6.37204 6.3133 0 1.00456 2 0 0.19175 0.605595 -0.000596402 -0.000787895
509 1 8.0789 5.78733 0 1.00999 2 0 0.189985 0.699035 0.00109357 -0.0023766
511 1 9.49884 5.30372 0 1.00136 2 0 0.158315 0.718698 -0.000481217 -0.000421398
561 1 9.99821 6.31181 0 0.999531 0 0 0.317464 0.775943 -0.000148062 -0.000405684
562 1 10.8028 6.53455 0 0.999777 0 0 0.347604 0.934145 -0.00049076 -0.000246261
514 1 12.6262 5.40147 0 1.01802 2 1 0.193099 0.644381 0.000638987 -0.000158061
563 1 11.7386 6.44911 0 0.998872 0 0 0.3416 0.857387 -0.000506819 7.56219e-06
565 1 13.9219 6.33924 0 1.00158 0 0 0.329585 0.861461 0.000108336 -0.000831526
566 1 14.8151 6.2975 0 1.00094 0 0 0.326941 0.882244 -1.43312e-05 -0.000767665
567 1 15.7444 6.34619 0 1.00141 0 0 0.331101 0.901461 -3.87133e-05 -0.00059263
568 1 16.6673 6.28149 0 1.00215 0 0 0.322435 0.875922 0.000289315 -3.91775e-05
569 1 17.6055 6.25795 0 1.00327 0 0 0.318033 0.869517 0.00097845 0.000681319
570 1 18.5667 5.97838 0 1.00333 0 0 0.281056 0.716052 0.00103289 0.000840159
571 1 19.6244 5.85578 0 1.0049 0 0 0.268707 0.633929 -0.000860197 0.000470841
572 1 20.6718 6.14251 0 1.01017 0 0 0.320911 0.794677 -0.00178877 -9.5654e-05
573 1 21.9057 6.33657 0 1.01188 0 0 0.353501 0.87192 -0.000325685 -0.00197621
574 1 22.9139 6.38927 0 1.00787 0 0 0.352741 0.875645 0.00101664 -0.00165438
525 1 23.45 5.00481 0 1.03669 2 1 0.115511 0.881184 0.00658282 0.00299752
526 1 24.4555 5.0087 0 1.04245 2 1 0.108615 0.90866 -0.00271947 -0.000947376
527 1 25.4654 4.92559 0 1.03798 2 0 0.0886013 0.935689 -0.000448547 -0.00640731
578 1 26.5263 6.52644 0 1.00998 0 0 0.360997 0.907972 0.00166974 -0.00211191
529 1 27.454 5.21574 0 1.0019 2 0 0.144216 0.763848 0.00272485 -0.00221349
579 1 27.4289 6.40142 0 1.00507 0 0 0.34032 0.782056 0.00137125 -0.00167709
530 1 28.4627 5.22053 0 1.02091 2 0 0.177867 0.801836 0.000132582 -0.00241958
581 1 29.6953 6.33503 0 1.00069 0 0 0.331077 0.854191 0.000963558 -0.000301473
582 1 30.5859 6.16371 0 1.00398 0 0 0.303097 0.809679 0.000854102 -0.000312427
583 1 31.558 6.06227 0 1.00504 0 0 0.284753 0.757677 0.00105976 9.91293e-05
584 1 32.6288 5.80758 0 1.00537 0 0 0.250276 0.578058 0.00115464 0.000776605
585 1 33.6009 6.14775 0 1.00291 0 0 0.301433 0.790554 0.000643362 0.000425502
536 1 34.4167 4.97046 0 1.0237 2 1 0.136117 0.765256 -0.000756814 0.000127944
586 1 34.6563 6.13786 0 1.00319 0 0 0.307961 0.774384 -0.000442416 0.000353198
587 1 35.6343 6.18558 0 1.00719 0 0 0.318562 0.821703 -0.00097825 0.000693187
588 1 36.598 5.98678 0 1.01354 0 0 0.296761 0.701755 -0.000808393 -0.000115871
589 1 37.6761 6.02545 0 1.00911 0 0 0.314773 0.689848 -0.000317308 -0.000868735
540 1 38.5063 5.05812 0 1.01715 2 1 0.190602 0.717024 0.00308058 -0.00461248
590 1 38.9004 6.24144 0 1.0064 0 0 0.360595 0.808797 -0.000249231 -0.00168304
591 1 39.8783 5.94899 0 1.02041 0 0 0.331425 0.677225 -0.00264544 -0.000985315
592 1 40.8477 6.21584 0 1.01995 0 0 0.359571 0.850277 0.000565437 -0.00120079
593 1 41.8092 6.23175 0 1.01839 0 0 0.355523 0.854526 0.0015505 -0.0014716
594 1 42.7542 6.30967 0 1.01508 0 0 0.357441 0.887501 0.00161156 -0.00125453
595 1 43.6863 6.31706 0 1.01247 0 0 0.346715 0.893468 0.00112128 -0.0003764
596 1 44.5927 6.00491 0 1.0132 0 0 0.298579 0.740571 0.000366118 -0.0012134
597 1 45.6279 5.91597 0 1.0147 0 0 0.283691 0.689513 0.000160372 -0.00090247
598 1 46.6996 5.92393 0 1.01219 0 0 0.287554 0.68995 0.00107525 -0.00124861
599 1 47.7037 6.14671 0 1.00899 0 0 0.326618 0.820871 0.000600599 -0.000835043
600 1 48.6553 6.21925 0 1.00971 0 0 0.34387 0.848943 0.0007515 -0.000434283
8551 1 49.5862 6.34682 0 1.00901 0 0 0.357637 0.902424 0.00151527 0.000147923
601 2 0 7 0 1 2 8 3.00039e-08 1 0 0
602 2 1 7 0 1 2 8 5.81062e-07 1 0 0
651 2 0 8 0 1 2 8 3.2463e-08 1 0 0
652 2 1 8 0 1 2 8 6.02602e-07 1 0 0
603 2 2 7 0 1 2 8 1.51343e-05 1 0 0
604 2 3 7 0 1 2 8 0.000436915 1 0 0
653 2 2 8 0 1 2 8 1.58732e-05 1 0 0
654 2 3 8 0 1 2 8 0.000489593 1 0 0
605 2 4 7 0 1 2 5 0.00642752 0.999832 0 0
606 1 4.92735 7.35987 0 1.01839 2 0 0.0829787 0.922364 0.00689202 0.0026579
655 2 4 8 0 1 2 5 0.0071195 0.999059 0 0
607 1 6.38396 7.84188 0 1.00151 0 0 0.28262 0.818148 9.86335e-05 -0.000168606
558 1 7.22429 6.86894 0 1.00159 0 0 0.286968 0.631218 0.000168671 -0.000973767
559 1 8.2275 7.24062 0 0.999711 0 0 0.346793 0.934812 0.000255168 -0.000907225
608 1 7.29283 7.98909 0 1.00117 0 0 0.336028 0.989257 -0.000112637 -0.000618164
609 1 8.2216 8.02722 0 1.00147 0 0 0.370286 0.998496 -7.49942e-06 -0.000658221
560 1 9.27236 6.76443 0 0.998269 0 0 0.342508 0.88714 0.000274896 -0.000533997
610 1 9.17334 7.68731 0 1.00101 0 0 0.381638 0.997589 4.1135e-05 -0.000614256
611 1 10.0806 7.44336 0 1.00103 0 0 0.382938 0.998162 -4.83957e-05 -0.000537148
612 1 11.0523 7.38441 0 1.0012 0 0 0.389576 0.99961 -0.000369586 -0.000494229
564 1 12.9654 6.60574 0 1.00128 0 0 0.349368 0.872766 -0.000161279 -0.000375158
613 1 12.0381 7.34869 0 1.00136 0 0 0.392677 0.994773 -0.000520047 -0.000405914
614 1 13.0703 7.3849 0 1.00236 0 0 0.393196 0.994964 -0.000347836 -0.000343001
615 1 14.0713 7.2408 0 1.00278 0 0 0.385233 0.998507 -0.000192871 -0.000487627
616 1 14.9995 7.26554 0 1.003 0 0 0.386397 0.999402 -0.000129455 -0.000421201
665 1 14.1207 8.17647 0 1.00451 0 0 0.426308 1 -0.000277643 -0.000280356
617 1 15.9241 7.28529 0 1.00312 0 0 0.38761 0.999506 -0.000183676 -0.000353823
666 1 15.1004 8.20106 0 1.00485 0 0 0.427948 1 -0.00023279 -0.000348007
667 1 16.0854 8.22368 0 1.00503 0 0 0.429841 1 -0.000229511 -0.000472193
618 1 16.8597 7.25198 0 1.00328 0 0 0.386903 0.999329 -0.000155374 -0.000197505
619 1 17.8503 7.1258 0 1.00339 0 0 0.381894 0.9981 0.000124669 -7.86473e-05
668 1 17.089 8.13804 0 1.00503 0 0 0.428552 1 -0.000120912 -0.000585952
669 1 18.0723 7.99389 0 1.00479 0 0 0.425406 1 -7.02087e-05 -0.000724289
620 1 18.8355 6.97137 0 1.00351 0 0 0.375189 0.994408 -0.000264269 -0.000270185
670 1 19.031 7.93229 0 1.00472 0 0 0.426456 1 -0.000467341 -0.000641824
671 1 19.9725 7.86054 0 1.00502 0 0 0.426064 1 -0.000959139 -0.000230959
621 1 19.7837 6.86676 0 1.0044 0 0 0.372662 0.989898 -0.00131387 -0.000181278
622 1 20.8142 7.0313 0 1.00662 0 0 0.392027 0.995964 -0.00163253 0.000393089
672 1 20.9469 7.94363 0 1.00591 0 0 0.430461 1 -0.00108153 0.000465817
623 1 21.8246 7.20696 0 1.00741 0 0 0.402783 0.998746 -0.000896404 0.000580713
624 1 22.8528 7.3357 0 1.007 0 0 0.403751 0.999318 -0.000274998 -0.000131749
673 1 21.9493 8.10949 0 1.00662 0 0 0.434449 1 -0.000633745 0.000830717
575 1 23.8375 6.62948 0 1.00751 0 0 0.368984 0.940779 0.00075264 -0.00133221
576 1 24.7438 6.59568 0 1.01007 0 0 0.367879 0.933843 0.00107689 -0.00229028
625 1 23.8554 7.56574 0 1.0069 0 0 0.409127 0.99989 0.000125465 -3.59844e-05
626 1 24.8819 7.59224 0 1.00717 0 0 0.408867 0.999942 0.000670366 -8.48233e-05
577 1 25.6369 6.64079 0 1.01023 0 0 0.373309 0.95465 0.00153631 -0.00249413
627 1 25.8654 7.643 0 1.00687 0 0 0.410645 0.999992 0.00100156 -0.000133543
628 1 26.8119 7.48976 0 1.00621 0 0 0.405207 0.999309 0.00107393 -0.000657114
629 1 27.7769 7.34929 0 1.00399 0 0 0.402215 0.995672 0.000897926 -0.000757049
679 1 28.0366 8.20594 0 1.00541 0 0 0.433751 1 0.000547321 -0.00039772
580 1 28.6452 6.63383 0 0.996656 0 0 0.366867 0.89519 0.000975352 -0.000718185
630 1 28.9316 7.43601 0 1.00209 0 0 0.407065 0.998575 0.000715985 -0.000530771
631 1 29.9406 7.22699 0 1.00265 0 0 0.391262 0.998618 0.000699054 -0.000395678
632 1 30.9395 7.11296 0 1.00342 0 0 0.380039 0.997264 0.000756373 -0.000129998
681 1 30.1147 8.14482 0 1.00447 0 0 0.432481 1 0.000484322 -0.000489717
682 1 31.0724 8.07327 0 1.00416 0 0 0.429928 1 0.000435519 -0.000413709
633 1 31.8926 6.95291 0 1.00341 0 0 0.369247 0.992379 0.000938451 -0.000262059