ITEM: TIMESTEP
45500
ITEM: NUMBER OF ATOMS
15950
ITEM: BOX BOUNDS pp pp pp
0.0000000000000000e+00 1.0000000000000000e+02
-5.0000000000000000e+00 2.0000000000000000e+02
-5.0000000000000000e-01 5.0000000000000000e-01
ITEM: ATOMS id type x y z c_rho c_phase c_nbond c_temp f_rheo_chi_chi fx fy
1 2 0 -5 0 1 2 8 4.49797e-08 1 0 0
2 2 1 -5 0 1 2 8 5.76708e-08 1 0 0
51 2 0 -4 0 1 2 8 1.84174e-07 1 0 0
52 2 1 -4 0 1 2 8 2.40196e-07 1 0 0
3 2 2 -5 0 1 2 8 9.94041e-08 1 0 0
4 2 3 -5 0 1 2 8 1.74437e-07 1 0 0
53 2 2 -4 0 1 2 8 4.25551e-07 1 0 0
54 2 3 -4 0 1 2 8 7.59417e-07 1 0 0
5 2 4 -5 0 1 2 7 2.9212e-07 1 0 0
55 2 4 -4 0 1 2 8 1.25288e-06 1 0 0
6 2 5 -5 0 1 2 6 4.68444e-07 1 0 0
7 2 6 -5 0 1 2 5 6.63691e-07 1 0 0
56 2 5 -4 0 1 2 8 1.88933e-06 1 0 0
57 2 6 -4 0 1 2 8 2.60332e-06 1 0 0
8 2 7 -5 0 1 2 5 8.45745e-07 1 0 0
9 2 8 -5 0 1 2 5 1.01071e-06 1 0 0
58 2 7 -4 0 1 2 8 3.31924e-06 1 0 0
59 2 8 -4 0 1 2 8 3.97527e-06 1 0 0
10 2 9 -5 0 1 2 5 1.15102e-06 1 0 0
60 2 9 -4 0 1 2 8 4.53477e-06 1 0 0
11 2 10 -5 0 1 2 5 1.26504e-06 1 0 0
12 2 11 -5 0 1 2 5 1.3565e-06 1 0 0
61 2 10 -4 0 1 2 8 4.99119e-06 1 0 0
62 2 11 -4 0 1 2 8 5.35964e-06 1 0 0
13 2 12 -5 0 1 2 5 1.43088e-06 1 0 0
14 2 13 -5 0 1 2 5 1.4921e-06 1 0 0
63 2 12 -4 0 1 2 8 5.66178e-06 1 0 0
64 2 13 -4 0 1 2 8 5.91224e-06 1 0 0
15 2 14 -5 0 1 2 5 1.54146e-06 1 0 0
65 2 14 -4 0 1 2 8 6.11475e-06 1 0 0
16 2 15 -5 0 1 2 5 1.57931e-06 1 0 0
17 2 16 -5 0 1 2 5 1.60716e-06 1 0 0
66 2 15 -4 0 1 2 8 6.26977e-06 1 0 0
67 2 16 -4 0 1 2 8 6.38413e-06 1 0 0
18 2 17 -5 0 1 2 5 1.62755e-06 1 0 0
19 2 18 -5 0 1 2 5 1.64177e-06 1 0 0
68 2 17 -4 0 1 2 8 6.46992e-06 1 0 0
69 2 18 -4 0 1 2 8 6.53352e-06 1 0 0
20 2 19 -5 0 1 2 5 1.6483e-06 1 0 0
70 2 19 -4 0 1 2 8 6.56838e-06 1 0 0
21 2 20 -5 0 1 2 5 1.64421e-06 1 0 0
22 2 21 -5 0 1 2 5 1.62846e-06 1 0 0
71 2 20 -4 0 1 2 8 6.56111e-06 1 0 0
72 2 21 -4 0 1 2 8 6.50596e-06 1 0 0
23 2 22 -5 0 1 2 5 1.60447e-06 1 0 0
24 2 23 -5 0 1 2 5 1.57991e-06 1 0 0
73 2 22 -4 0 1 2 8 6.41563e-06 1 0 0
74 2 23 -4 0 1 2 8 6.32091e-06 1 0 0
25 2 24 -5 0 1 2 5 1.56402e-06 1 0 0
75 2 24 -4 0 1 2 8 6.25962e-06 1 0 0
26 2 25 -5 0 1 2 5 1.56351e-06 1 0 0
27 2 26 -5 0 1 2 5 1.57949e-06 1 0 0
76 2 25 -4 0 1 2 8 6.25964e-06 1 0 0
77 2 26 -4 0 1 2 8 6.32544e-06 1 0 0
28 2 27 -5 0 1 2 5 1.60751e-06 1 0 0
29 2 28 -5 0 1 2 5 1.6406e-06 1 0 0
78 2 27 -4 0 1 2 8 6.43791e-06 1 0 0
79 2 28 -4 0 1 2 8 6.56799e-06 1 0 0
30 2 29 -5 0 1 2 5 1.67284e-06 1 0 0
80 2 29 -4 0 1 2 8 6.69232e-06 1 0 0
31 2 30 -5 0 1 2 5 1.7005e-06 1 0 0
32 2 31 -5 0 1 2 5 1.72126e-06 1 0 0
81 2 30 -4 0 1 2 8 6.7979e-06 1 0 0
82 2 31 -4 0 1 2 8 6.87713e-06 1 0 0
33 2 32 -5 0 1 2 5 1.73361e-06 1 0 0
34 2 33 -5 0 1 2 5 1.73754e-06 1 0 0
83 2 32 -4 0 1 2 8 6.92428e-06 1 0 0
84 2 33 -4 0 1 2 8 6.93895e-06 1 0 0
35 2 34 -5 0 1 2 5 1.73511e-06 1 0 0
85 2 34 -4 0 1 2 8 6.92944e-06 1 0 0
36 2 35 -5 0 1 2 5 1.72924e-06 1 0 0
37 2 36 -5 0 1 2 5 1.72144e-06 1 0 0
86 2 35 -4 0 1 2 8 6.90791e-06 1 0 0
87 2 36 -4 0 1 2 8 6.8805e-06 1 0 0
38 2 37 -5 0 1 2 5 1.71073e-06 1 0 0
39 2 38 -5 0 1 2 5 1.69476e-06 1 0 0
88 2 37 -4 0 1 2 8 6.84229e-06 1 0 0
89 2 38 -4 0 1 2 8 6.78236e-06 1 0 0
40 2 39 -5 0 1 2 5 1.67254e-06 1 0 0
90 2 39 -4 0 1 2 8 6.69513e-06 1 0 0
41 2 40 -5 0 1 2 5 1.64662e-06 1 0 0
42 2 41 -5 0 1 2 5 1.62336e-06 1 0 0
91 2 40 -4 0 1 2 8 6.59031e-06 1 0 0
92 2 41 -4 0 1 2 8 6.49412e-06 1 0 0
43 2 42 -5 0 1 2 5 1.6102e-06 1 0 0
44 2 43 -5 0 1 2 5 1.61127e-06 1 0 0
93 2 42 -4 0 1 2 8 6.43847e-06 1 0 0
94 2 43 -4 0 1 2 8 6.44189e-06 1 0 0
45 2 44 -5 0 1 2 5 1.62405e-06 1 0 0
95 2 44 -4 0 1 2 8 6.49473e-06 1 0 0
46 2 45 -5 0 1 2 5 1.64022e-06 1 0 0
47 2 46 -5 0 1 2 5 1.65053e-06 1 0 0
96 2 45 -4 0 1 2 8 6.56186e-06 1 0 0
97 2 46 -4 0 1 2 8 6.6041e-06 1 0 0
48 2 47 -5 0 1 2 5 1.65073e-06 1 0 0
49 2 48 -5 0 1 2 5 1.64385e-06 1 0 0
98 2 47 -4 0 1 2 8 6.60348e-06 1 0 0
99 2 48 -4 0 1 2 8 6.57326e-06 1 0 0
50 2 49 -5 0 1 2 5 1.63746e-06 1 0 0
100 2 49 -4 0 1 2 8 6.54586e-06 1 0 0
101 2 0 -3 0 1 2 8 6.94143e-07 1 0 0
102 2 1 -3 0 1 2 8 9.22301e-07 1 0 0
151 2 0 -2 0 1 2 8 2.38951e-06 1 0 0
152 2 1 -2 0 1 2 8 3.23851e-06 1 0 0
103 2 2 -3 0 1 2 8 1.68389e-06 1 0 0
104 2 3 -3 0 1 2 8 3.07359e-06 1 0 0
153 2 2 -2 0 1 2 8 6.10167e-06 1 0 0
154 2 3 -2 0 1 2 8 1.14124e-05 1 0 0
105 2 4 -3 0 1 2 8 5.14167e-06 1 0 0
155 2 4 -2 0 1 2 8 1.94327e-05 1 0 0
106 2 5 -3 0 1 2 8 7.79875e-06 1 0 0
107 2 6 -3 0 1 2 8 1.0799e-05 1 0 0
156 2 5 -2 0 1 2 8 2.98333e-05 1 0 0
157 2 6 -2 0 1 2 8 4.16178e-05 1 0 0
108 2 7 -3 0 1 2 8 1.38226e-05 1 0 0
109 2 8 -3 0 1 2 8 1.65938e-05 1 0 0
158 2 7 -2 0 1 2 8 5.34892e-05 1 0 0
159 2 8 -2 0 1 2 8 6.43575e-05 1 0 0
110 2 9 -3 0 1 2 8 1.8958e-05 1 0 0
160 2 9 -2 0 1 2 8 7.36385e-05 1 0 0
111 2 10 -3 0 1 2 8 2.08923e-05 1 0 0
112 2 11 -3 0 1 2 8 2.24636e-05 1 0 0
161 2 10 -2 0 1 2 8 8.12644e-05 1 0 0
162 2 11 -2 0 1 2 8 8.75089e-05 1 0 0
113 2 12 -3 0 1 2 8 2.3764e-05 1 0 0
114 2 13 -3 0 1 2 8 2.48518e-05 1 0 0
163 2 12 -2 0 1 2 8 9.27323e-05 1 0 0
164 2 13 -2 0 1 2 8 9.7147e-05 1 0 0
115 2 14 -3 0 1 2 8 2.5735e-05 1 0 0
165 2 14 -2 0 1 2 8 0.000100751 1 0 0
116 2 15 -3 0 1 2 8 2.64098e-05 1 0 0
117 2 16 -3 0 1 2 8 2.69083e-05 1 0 0
166 2 15 -2 0 1 2 8 0.000103503 1 0 0
167 2 16 -2 0 1 2 8 0.000105543 1 0 0
118 2 17 -3 0 1 2 8 2.72915e-05 1 0 0
119 2 18 -3 0 1 2 8 2.7593e-05 1 0 0
168 2 17 -2 0 1 2 8 0.000107153 1 0 0
169 2 18 -2 0 1 2 8 0.000108491 1 0 0
120 2 19 -3 0 1 2 8 2.77819e-05 1 0 0
170 2 19 -2 0 1 2 8 0.000109422 1 0 0
121 2 20 -3 0 1 2 8 2.77925e-05 1 0 0
122 2 21 -3 0 1 2 8 2.75928e-05 1 0 0
171 2 20 -2 0 1 2 8 0.000109651 1 0 0
172 2 21 -2 0 1 2 8 0.000109026 1 0 0
123 2 22 -3 0 1 2 8 2.72332e-05 1 0 0
124 2 23 -3 0 1 2 8 2.68451e-05 1 0 0
173 2 22 -2 0 1 2 8 0.000107731 1 0 0
174 2 23 -2 0 1 2 8 0.000106282 1 0 0
125 2 24 -3 0 1 2 8 2.65938e-05 1 0 0
175 2 24 -2 0 1 2 8 0.000105346 1 0 0
126 2 25 -3 0 1 2 8 2.66037e-05 1 0 0
127 2 26 -3 0 1 2 8 2.68944e-05 1 0 0
176 2 25 -2 0 1 2 8 0.000105437 1 0 0
177 2 26 -2 0 1 2 8 0.000106636 1 0 0
128 2 27 -3 0 1 2 8 2.73771e-05 1 0 0
129 2 28 -3 0 1 2 8 2.79215e-05 1 0 0
178 2 27 -2 0 1 2 8 0.000108565 1 0 0
179 2 28 -2 0 1 2 8 0.000110676 1 0 0
130 2 29 -3 0 1 2 8 2.84298e-05 1 0 0
180 2 29 -2 0 1 2 8 0.000112595 1 0 0
131 2 30 -3 0 1 2 8 2.8857e-05 1 0 0
132 2 31 -3 0 1 2 8 2.91787e-05 1 0 0
181 2 30 -2 0 1 2 8 0.000114191 1 0 0
182 2 31 -2 0 1 2 8 0.000115404 1 0 0
133 2 32 -3 0 1 2 8 2.93709e-05 1 0 0
134 2 33 -3 0 1 2 8 2.94289e-05 1 0 0
183 2 32 -2 0 1 2 8 0.000116138 1 0 0
184 2 33 -2 0 1 2 8 0.000116357 1 0 0
135 2 34 -3 0 1 2 8 2.93886e-05 1 0 0
185 2 34 -2 0 1 2 8 0.000116204 1 0 0
136 2 35 -3 0 1 2 8 2.93054e-05 1 0 0
137 2 36 -3 0 1 2 8 2.92064e-05 1 0 0
186 2 35 -2 0 1 2 8 0.000115914 1 0 0
187 2 36 -2 0 1 2 8 0.0001156 1 0 0
138 2 37 -3 0 1 2 8 2.90665e-05 1 0 0
139 2 38 -3 0 1 2 8 2.88314e-05 1 0 0
188 2 37 -2 0 1 2 8 0.000115145 1 0 0
189 2 38 -2 0 1 2 8 0.000114307 1 0 0
140 2 39 -3 0 1 2 8 2.84702e-05 1 0 0
190 2 39 -2 0 1 2 8 0.000112933 1 0 0
141 2 40 -3 0 1 2 8 2.80206e-05 1 0 0
142 2 41 -3 0 1 2 8 2.75977e-05 1 0 0
191 2 40 -2 0 1 2 8 0.000111156 1 0 0
192 2 41 -2 0 1 2 8 0.000109441 1 0 0
143 2 42 -3 0 1 2 8 2.73478e-05 1 0 0
144 2 43 -3 0 1 2 8 2.73602e-05 1 0 0
193 2 42 -2 0 1 2 8 0.000108404 1 0 0
194 2 43 -2 0 1 2 8 0.000108443 1 0 0
145 2 44 -3 0 1 2 8 2.75953e-05 1 0 0
195 2 44 -2 0 1 2 8 0.000109409 1 0 0
146 2 45 -3 0 1 2 8 2.78944e-05 1 0 0
147 2 46 -3 0 1 2 8 2.80786e-05 1 0 0
196 2 45 -2 0 1 2 8 0.000110639 1 0 0
197 2 46 -2 0 1 2 8 0.000111378 1 0 0
148 2 47 -3 0 1 2 8 2.80668e-05 1 0 0
149 2 48 -3 0 1 2 8 2.79218e-05 1 0 0
198 2 47 -2 0 1 2 8 0.000111289 1 0 0
199 2 48 -2 0 1 2 8 0.000110647 1 0 0
150 2 49 -3 0 1 2 8 2.77935e-05 1 0 0
200 2 49 -2 0 1 2 8 0.00011009 1 0 0
201 2 0 -1 0 1 2 8 7.45168e-06 1 0 0
202 2 1 -1 0 1 2 8 1.03082e-05 1 0 0
203 2 2 -1 0 1 2 8 2.00495e-05 1 0 0
204 2 3 -1 0 1 2 8 3.84489e-05 1 0 0
205 2 4 -1 0 1 2 8 6.66985e-05 1 0 0
206 2 5 -1 0 1 2 8 0.0001037 1 0 0
207 2 6 -1 0 1 2 8 0.000145736 1 0 0
208 2 7 -1 0 1 2 8 0.000188006 1 0 0
209 2 8 -1 0 1 2 8 0.000226651 1 0 0
210 2 9 -1 0 1 2 8 0.000259723 1 0 0
211 2 10 -1 0 1 2 8 0.000287079 1 0 0
212 2 11 -1 0 1 2 8 0.00030971 1 0 0
213 2 12 -1 0 1 2 8 0.000328874 1 0 0
214 2 13 -1 0 1 2 8 0.000345261 1 0 0
215 2 14 -1 0 1 2 8 0.000358738 1 0 0
216 2 15 -1 0 1 2 8 0.000369053 1 0 0
217 2 16 -1 0 1 2 8 0.000376748 1 0 0
218 2 17 -1 0 1 2 8 0.000382995 1 0 0
219 2 18 -1 0 1 2 8 0.000388452 1 0 0
220 2 19 -1 0 1 2 8 0.000392572 1 0 0
221 2 20 -1 0 1 2 8 0.000394183 1 0 0
222 2 21 -1 0 1 2 8 0.000392661 1 0 0
223 2 22 -1 0 1 2 8 0.000388627 1 0 0
224 2 23 -1 0 1 2 8 0.000383884 1 0 0
225 2 24 -1 0 1 2 8 0.000380837 1 0 0
226 2 25 -1 0 1 2 8 0.000381418 1 0 0
227 2 26 -1 0 1 2 8 0.000385944 1 0 0
228 2 27 -1 0 1 2 8 0.000392951 1 0 0
229 2 28 -1 0 1 2 8 0.000400363 1 0 0
230 2 29 -1 0 1 2 8 0.000406892 1 0 0
231 2 30 -1 0 1 2 8 0.00041227 1 0 0
232 2 31 -1 0 1 2 8 0.000416434 1 0 0
233 2 32 -1 0 1 2 8 0.000419015 1 0 0
234 2 33 -1 0 1 2 8 0.000419806 1 0 0
235 2 34 -1 0 1 2 8 0.00041931 1 0 0
236 2 35 -1 0 1 2 8 0.000418439 1 0 0
237 2 36 -1 0 1 2 8 0.000417622 1 0 0
238 2 37 -1 0 1 2 8 0.000416379 1 0 0
239 2 38 -1 0 1 2 8 0.000413746 1 0 0
240 2 39 -1 0 1 2 8 0.000409085 1 0 0
241 2 40 -1 0 1 2 8 0.00040279 1 0 0
242 2 41 -1 0 1 2 8 0.000396537 1 0 0
243 2 42 -1 0 1 2 8 0.000392669 1 0 0
244 2 43 -1 0 1 2 8 0.000392765 1 0 0
245 2 44 -1 0 1 2 8 0.000396337 1 0 0
246 2 45 -1 0 1 2 8 0.000400882 1 0 0
247 2 46 -1 0 1 2 8 0.000403534 1 0 0
248 2 47 -1 0 1 2 8 0.00040304 1 0 0
249 2 48 -1 0 1 2 8 0.000400487 1 0 0
250 2 49 -1 0 1 2 8 0.000398315 1 0 0
251 2 0 0 0 1 2 8 2.088e-05 1 0 0
252 2 1 0 0 1 2 8 2.94731e-05 1 0 0
301 2 0 1 0 1 2 8 5.21867e-05 1 0 0
302 2 1 1 0 1 2 8 7.50473e-05 1 0 0
253 2 2 0 0 1 2 8 5.91111e-05 1 0 0
254 2 3 0 0 1 2 8 0.000116168 1 0 0
303 2 2 1 0 1 2 8 0.000154655 1 0 0
304 2 3 1 0 1 2 8 0.00031065 1 0 0
255 2 4 0 0 1 2 8 0.000205345 1 0 0
305 2 4 1 0 1 2 8 0.000558994 1 0 0
256 2 5 0 0 1 2 8 0.00032338 1 0 0
257 2 6 0 0 1 2 8 0.000457608 1 0 0
306 2 5 1 0 1 2 8 0.000891403 1 0 0
307 2 6 1 0 1 2 8 0.00126864 1 0 0
258 2 7 0 0 1 2 8 0.000592051 1 0 0
259 2 8 0 0 1 2 8 0.00071474 1 0 0
308 2 7 1 0 1 2 8 0.00164338 1 0 0
309 2 8 1 0 1 2 8 0.00198459 1 0 0
260 2 9 0 0 1 2 8 0.000820181 1 0 0
310 2 9 1 0 1 2 8 0.00227999 1 0 0
261 2 10 0 0 1 2 8 0.000908247 1 0 0
262 2 11 0 0 1 2 8 0.000982053 1 0 0
311 2 10 1 0 1 2 8 0.00253016 1 0 0
312 2 11 1 0 1 2 8 0.00274327 1 0 0
263 2 12 0 0 1 2 8 0.00104543 1 0 0
264 2 13 0 0 1 2 8 0.00110035 1 0 0
313 2 12 1 0 1 2 8 0.00292918 1 0 0
314 2 13 1 0 1 2 8 0.00309265 1 0 0
265 2 14 0 0 1 2 8 0.00114596 1 0 0
315 2 14 1 0 1 2 8 0.00323028 1 0 0
266 2 15 0 0 1 2 8 0.00118111 1 0 0
267 2 16 0 0 1 2 8 0.00120765 1 0 0
316 2 15 1 0 1 2 8 0.00333776 1 0 0
317 2 16 1 0 1 2 8 0.0034206 1 0 0
268 2 17 0 0 1 2 8 0.00122985 1 0 0
269 2 18 0 0 1 2 8 0.00125007 1 0 0
318 2 17 1 0 1 2 8 0.00349205 1 0 0
319 2 18 1 0 1 2 8 0.00355924 1 0 0
270 2 19 0 0 1 2 8 0.00126633 1 0 0
320 2 19 1 0 1 2 8 0.0036157 1 0 0
271 2 20 0 0 1 2 8 0.00127451 1 0 0
272 2 21 0 0 1 2 8 0.00127253 1 0 0
321 2 20 1 0 1 2 8 0.00364922 1 0 0
322 2 21 1 0 1 2 8 0.00365417 1 0 0
273 2 22 0 0 1 2 8 0.00126226 1 0 0
274 2 23 0 0 1 2 8 0.0012492 1 0 0
323 2 22 1 0 1 2 8 0.00363575 1 0 0
324 2 23 1 0 1 2 8 0.00360802 1 0 0
275 2 24 0 0 1 2 8 0.00124094 1 0 0
325 2 24 1 0 1 2 8 0.00359134 1 0 0
276 2 25 0 0 1 2 8 0.00124395 1 0 0
277 2 26 0 0 1 2 8 0.00125937 1 0 0
326 2 25 1 0 1 2 8 0.00360443 1 0 0
327 2 26 1 0 1 2 8 0.00365124 1 0 0
278 2 27 0 0 1 2 8 0.00128223 1 0 0
279 2 28 0 0 1 2 8 0.00130549 1 0 0
328 2 27 1 0 1 2 8 0.00371719 1 0 0
329 2 28 1 0 1 2 8 0.00378151 1 0 0
280 2 29 0 0 1 2 8 0.00132525 1 0 0
330 2 29 1 0 1 2 8 0.00383399 1 0 0
281 2 30 0 0 1 2 8 0.00134141 1 0 0
282 2 31 0 0 1 2 8 0.00135431 1 0 0
331 2 30 1 0 1 2 8 0.0038769 1 0 0
332 2 31 1 0 1 2 8 0.00391273 1 0 0
283 2 32 0 0 1 2 8 0.00136263 1 0 0
284 2 33 0 0 1 2 8 0.00136537 1 0 0
333 2 32 1 0 1 2 8 0.00393728 1 0 0
334 2 33 1 0 1 2 8 0.00394636 1 0 0
285 2 34 0 0 1 2 8 0.00136409 1 0 0
335 2 34 1 0 1 2 8 0.00394431 1 0 0
286 2 35 0 0 1 2 8 0.00136199 1 0 0
287 2 36 0 0 1 2 8 0.00136049 1 0 0
336 2 35 1 0 1 2 8 0.00394092 1 0 0
337 2 36 1 0 1 2 8 0.00394044 1 0 0
288 2 37 0 0 1 2 8 0.00135788 1 0 0
289 2 38 0 0 1 2 8 0.00135082 1 0 0
338 2 37 1 0 1 2 8 0.00393741 1 0 0
339 2 38 1 0 1 2 8 0.00392206 1 0 0
290 2 39 0 0 1 2 8 0.00133703 1 0 0
340 2 39 1 0 1 2 8 0.00388766 1 0 0
291 2 40 0 0 1 2 8 0.00131747 1 0 0
292 2 41 0 0 1 2 8 0.0012974 1 0 0
341 2 40 1 0 1 2 8 0.00383597 1 0 0
342 2 41 1 0 1 2 8 0.00378083 1 0 0
293 2 42 0 0 1 2 8 0.00128466 1 0 0
294 2 43 0 0 1 2 8 0.00128482 1 0 0
343 2 42 1 0 1 2 8 0.00374483 1 0 0
344 2 43 1 0 1 2 8 0.00374495 1 0 0
295 2 44 0 0 1 2 8 0.00129649 1 0 0
345 2 44 1 0 1 2 8 0.00377788 1 0 0
296 2 45 0 0 1 2 8 0.00131132 1 0 0
297 2 46 0 0 1 2 8 0.00131967 1 0 0
346 2 45 1 0 1 2 8 0.00381958 1 0 0
347 2 46 1 0 1 2 8 0.00384207 1 0 0
298 2 47 0 0 1 2 8 0.00131747 1 0 0
299 2 48 0 0 1 2 8 0.00130853 1 0 0
348 2 47 1 0 1 2 8 0.00383414 1 0 0
349 2 48 1 0 1 2 8 0.00380732 1 0 0
300 2 49 0 0 1 2 8 0.00130107 1 0 0
350 2 49 1 0 1 2 8 0.00378541 1 0 0
351 2 0 2 0 1 2 8 0.000115744 1 0 0
352 2 1 2 0 1 2 8 0.000169077 1 0 0
401 2 0 3 0 1 2 8 0.000227427 1 0 0
402 2 1 3 0 1 2 8 0.000336323 1 0 0
353 2 2 2 0 1 2 8 0.000355662 1 0 0
354 2 3 2 0 1 2 8 0.000725229 1 0 0
403 2 2 3 0 1 2 8 0.000715843 1 0 0
404 2 3 3 0 1 2 8 0.00146295 1 0 0
355 2 4 2 0 1 2 8 0.00132331 1 0 0
405 2 4 3 0 1 2 8 0.002671 1 0 0
356 2 5 2 0 1 2 8 0.00213497 1 0 0
357 2 6 2 0 1 2 8 0.00304852 1 0 0
406 2 5 3 0 1 2 8 0.00436442 1 0 0
407 2 6 3 0 1 2 8 0.00623473 1 0 0
358 2 7 2 0 1 2 8 0.0039405 1 0 0
359 2 8 2 0 1 2 8 0.00475097 1 0 0
408 2 7 3 0 1 2 8 0.00797957 1 0 0
409 2 8 3 0 1 2 8 0.00957179 1 0 0
360 2 9 2 0 1 2 8 0.00546164 1 0 0
410 2 9 3 0 1 2 8 0.0109999 1 0 0
361 2 10 2 0 1 2 8 0.00607503 1 0 0
362 2 11 2 0 1 2 8 0.0066084 1 0 0
411 2 10 3 0 1 2 8 0.0122624 1 0 0
412 2 11 3 0 1 2 8 0.0133892 1 0 0
363 2 12 2 0 1 2 8 0.00708206 1 0 0
364 2 13 2 0 1 2 8 0.00750528 1 0 0
413 2 12 3 0 1 2 8 0.0144112 1 0 0
414 2 13 3 0 1 2 8 0.0153397 1 0 0
365 2 14 2 0 1 2 8 0.0078682 1 0 0
415 2 14 3 0 1 2 8 0.016157 1 0 0
366 2 15 2 0 1 2 8 0.00815813 1 0 0
367 2 16 2 0 1 2 8 0.00838853 1 0 0
416 2 15 3 0 1 2 8 0.0168322 1 0 0
417 2 16 3 0 1 2 8 0.0173913 1 0 0
368 2 17 2 0 1 2 8 0.00859349 1 0 0
369 2 18 2 0 1 2 8 0.00879008 1 0 0
418 2 17 3 0 1 2 8 0.0179047 1 0 0
419 2 18 3 0 1 2 8 0.0184021 1 0 0
370 2 19 2 0 1 2 8 0.00896015 1 0 0
420 2 19 3 0 1 2 8 0.01884 1 0 0
371 2 20 2 0 1 2 8 0.00907357 1 0 0
372 2 21 2 0 1 2 8 0.00911978 1 0 0
421 2 20 3 0 1 2 8 0.0191577 1 0 0
422 2 21 3 0 1 2 8 0.0193488 1 0 0
373 2 22 2 0 1 2 8 0.00911204 1 0 0
374 2 23 2 0 1 2 8 0.00907831 1 0 0
423 2 22 3 0 1 2 8 0.0194471 1 0 0
424 2 23 3 0 1 2 8 0.0194845 1 0 0
375 2 24 2 0 1 2 8 0.00906274 1 0 0
425 2 24 3 0 1 2 8 0.0195322 1 0 0
376 2 25 2 0 1 2 8 0.00911136 1 0 0
377 2 26 2 0 1 2 8 0.00923574 1 0 0
426 2 25 3 0 1 2 8 0.0196869 1 0 0
427 2 26 3 0 1 2 8 0.0199715 1 0 0
378 2 27 2 0 1 2 8 0.00940116 1 0 0
379 2 28 2 0 1 2 8 0.00955566 1 0 0
428 2 27 3 0 1 2 8 0.0203302 1 0 0
429 2 28 3 0 1 2 8 0.0206512 1 0 0
380 2 29 2 0 1 2 8 0.00967673 1 0 0
430 2 29 3 0 1 2 8 0.0208923 1 0 0
381 2 30 2 0 1 2 8 0.00977694 1 0 0
382 2 31 2 0 1 2 8 0.00986613 1 0 0
431 2 30 3 0 1 2 8 0.0211014 1 0 0
432 2 31 3 0 1 2 8 0.0213025 1 0 0
383 2 32 2 0 1 2 8 0.00993212 1 0 0
384 2 33 2 0 1 2 8 0.0099607 1 0 0
433 2 32 3 0 1 2 8 0.0214655 1 0 0
434 2 33 3 0 1 2 8 0.0215495 1 0 0
385 2 34 2 0 1 2 8 0.00996187 1 0 0
435 2 34 3 0 1 2 8 0.0215708 1 0 0
386 2 35 2 0 1 2 8 0.00996231 1 0 0
387 2 36 2 0 1 2 8 0.0099726 1 0 0
436 2 35 3 0 1 2 8 0.0215986 1 0 0
437 2 36 3 0 1 2 8 0.0216537 1 0 0
388 2 37 2 0 1 2 8 0.00997741 1 0 0
389 2 38 2 0 1 2 8 0.00995336 1 0 0
438 2 37 3 0 1 2 8 0.021695 1 0 0
439 2 38 3 0 1 2 8 0.021679 1 0 0
390 2 39 2 0 1 2 8 0.00988542 1 0 0
440 2 39 3 0 1 2 8 0.0215871 1 0 0
391 2 40 2 0 1 2 8 0.00977494 1 0 0
392 2 41 2 0 1 2 8 0.00965042 1 0 0
441 2 40 3 0 1 2 8 0.0214161 1 0 0
442 2 41 3 0 1 2 8 0.0211976 1 0 0
393 2 42 2 0 1 2 8 0.00956656 1 0 0
394 2 43 2 0 1 2 8 0.00956679 1 0 0
443 2 42 3 0 1 2 8 0.0210461 1 0 0
444 2 43 3 0 1 2 8 0.0210504 1 0 0
395 2 44 2 0 1 2 8 0.00964503 1 0 0
445 2 44 3 0 1 2 8 0.0212037 1 0 0
396 2 45 2 0 1 2 8 0.00974327 1 0 0
397 2 46 2 0 1 2 8 0.0097935 1 0 0
446 2 45 3 0 1 2 8 0.0213948 1 0 0
447 2 46 3 0 1 2 8 0.0214851 1 0 0
398 2 47 2 0 1 2 8 0.0097708 1 0 0
399 2 48 2 0 1 2 8 0.00970478 1 0 0
448 2 47 3 0 1 2 8 0.0214356 1 0 0
449 2 48 3 0 1 2 8 0.0213118 1 0 0
400 2 49 2 0 1 2 8 0.00965192 1 0 0
450 2 49 3 0 1 2 8 0.0212101 1 0 0
451 2 0 4 0 1 2 8 0.000397074 1 0 0
452 2 1 4 0 1 2 8 0.000592839 1 0 0
453 2 2 4 0 1 2 8 0.0012684 1 0 0
454 2 3 4 0 1 2 8 0.00256024 1 0 0
455 2 4 4 0 1 2 7 0.00450605 1 0 0
456 2 5 4 0 1 2 6 0.00748054 1 0 0
457 2 6 4 0 1 2 5 0.010474 1 0 0
506 1 5.48407 4.87225 0 1.0006 2 0 0.0120659 1 -0.00386834 0.00141396
507 1 6.48175 4.87187 0 1.02569 2 0 0.0148346 1 0.00809808 0.00618901
458 2 7 4 0 1 2 5 0.0130641 1 0 0
459 2 8 4 0 1 2 5 0.0155132 1 0 0
508 1 7.48835 4.87094 0 1.03193 2 0 0.0176345 1 -0.00635665 -0.00178229
460 2 9 4 0 1 2 5 0.017775 1 0 0
510 1 8.48567 4.87211 0 1.01036 2 0 0.0203254 1 0.00542179 0.000287899
511 1 9.4956 4.86234 0 1.00136 2 0 0.022851 1 0.00366632 0.00977139
461 2 10 4 0 1 2 5 0.0198338 1 0 0
462 2 11 4 0 1 2 5 0.0217387 1 0 0
512 1 10.4956 4.8631 0 1.01573 2 0 0.0252663 1 0.000258132 0.00158289
513 1 11.4957 4.86124 0 1.01534 2 0 0.0275723 1 0.0022705 0.00524848
463 2 12 4 0 1 2 5 0.0235073 1 0 0
464 2 13 4 0 1 2 5 0.0251389 1 0 0
514 1 12.4962 4.85989 0 1.01802 2 0 0.0297366 1 0.0014565 0.00550899
465 2 14 4 0 1 2 5 0.0266217 1 0 0
515 1 13.4956 4.86039 0 1.02031 2 0 0.0317685 1 0.00489831 0.00356354
516 1 14.4955 4.85914 0 1.0096 2 0 0.0336489 1 -0.00238906 0.00596307
466 2 15 4 0 1 2 5 0.0279045 1 0 0
467 2 16 4 0 1 2 5 0.0290221 1 0 0
518 1 16.4944 4.86296 0 1.02515 2 0 0.0369902 1 0.00251773 -0.00280116
517 1 15.4946 4.86274 0 1.02614 2 0 0.0353711 1 0.00811552 -0.0121602
468 2 17 4 0 1 2 5 0.0300759 1 0 0
469 2 18 4 0 1 2 5 0.0310888 1 0 0
519 1 17.4955 4.86197 0 1.0239 2 0 0.0385111 1 0.000502203 -0.000409098
470 2 19 4 0 1 2 5 0.031991 1 0 0
520 1 18.4953 4.8623 0 1.00577 2 0 0.0399066 1 -0.00454328 -0.00813064
521 1 19.4922 4.86097 0 1.00453 2 0 0.0411458 1 0.0110743 -0.00340299
471 2 20 4 0 1 2 5 0.0326973 1 0 0
472 2 21 4 0 1 2 5 0.0332322 1 0 0
523 1 21.4951 4.86001 0 1.02268 2 0 0.0432499 1 0.00636981 -0.000467542
522 1 20.4966 4.86022 0 1.0139 2 0 0.0422391 1 -0.000692591 -0.000471912
473 2 22 4 0 1 2 5 0.0336695 1 0 0
474 2 23 4 0 1 2 5 0.0339976 1 0 0
524 1 22.496 4.86097 0 1.01383 2 0 0.0441745 1 0.0012716 -0.00221297
475 2 24 4 0 1 2 5 0.0342872 1 0 0
525 1 23.4972 4.86048 0 1.03669 2 0 0.0450024 1 -0.000269504 0.00778214
526 1 24.4985 4.86382 0 1.04245 2 0 0.0458032 1 -0.00210036 -0.00868793
476 2 25 4 0 1 2 5 0.0346916 1 0 0
477 2 26 4 0 1 2 5 0.0352318 1 0 0
528 1 26.4958 4.86376 0 1.04147 2 0 0.047421 1 0.00564689 -0.00977851
527 1 25.4974 4.8631 0 1.03798 2 0 0.0466107 1 -0.00273982 -0.0061893
478 2 27 4 0 1 2 5 0.0358675 1 0 0
479 2 28 4 0 1 2 5 0.036421 1 0 0
529 1 27.4965 4.86076 0 1.0019 2 0 0.0481791 1 -0.000650391 0.00303828
480 2 29 4 0 1 2 5 0.0368407 1 0 0
531 1 29.4966 4.86074 0 1.01679 2 0 0.0495016 1 -3.08008e-05 0.00458645
530 1 28.496 4.86001 0 1.02091 2 0 0.0488736 1 0.00368265 0.00601119
481 2 30 4 0 1 2 5 0.0372308 1 0 0
482 2 31 4 0 1 2 5 0.0376241 1 0 0
533 1 31.4969 4.8617 0 1.004 2 0 0.0506196 1 -0.00209295 -0.00436223
532 1 30.4962 4.8616 0 1.0182 2 0 0.05008 1 0.00162383 0.000894159
483 2 32 4 0 1 2 5 0.0379692 1 0 0
484 2 33 4 0 1 2 5 0.0381826 1 0 0
534 1 32.4969 4.86069 0 1.00171 2 0 0.0510702 1 -0.00303943 0.00181122
485 2 34 4 0 1 2 5 0.0382739 1 0 0
535 1 33.4957 4.86139 0 1.00275 2 0 0.0514098 1 0.00225076 0.000304767
536 1 34.4958 4.86068 0 1.0237 2 0 0.0516838 1 -0.000760451 0.0046529
486 2 35 4 0 1 2 5 0.0383902 1 0 0
487 2 36 4 0 1 2 5 0.0385611 1 0 0
538 1 36.4959 4.86251 0 1.01227 2 0 0.0522531 1 -0.000910212 0.00125398
537 1 35.4954 4.86249 0 1.0067 2 0 0.0519778 1 0.00062136 -0.00233431
488 2 37 4 0 1 2 5 0.0386951 1 0 0
489 2 38 4 0 1 2 5 0.0387386 1 0 0
539 1 37.4966 4.86213 0 1.00174 2 0 0.0524483 1 -0.00298399 0.00114154
490 2 39 4 0 1 2 5 0.0386973 1 0 0
541 1 39.4965 4.86238 0 1.00168 2 0 0.0526469 1 0.00103174 -0.000200367
540 1 38.4957 4.86253 0 1.01715 2 0 0.0525813 1 0.00268406 0.000469811
491 2 40 4 0 1 2 5 0.038558 1 0 0
492 2 41 4 0 1 2 5 0.0383088 1 0 0
542 1 40.4981 4.86328 0 1.01016 2 0 0.0526569 1 -0.00499484 -0.000350271
543 1 41.4964 4.86431 0 1.03252 2 0 0.0526732 1 0.00389368 -0.000282002
493 2 42 4 0 1 2 5 0.0381389 1 0 0
494 2 43 4 0 1 2 5 0.0381729 1 0 0
544 1 42.4965 4.86387 0 1.0319 2 0 0.052764 1 -0.000688637 0.0011028
495 2 44 4 0 1 2 5 0.0384002 1 0 0
545 1 43.496 4.86467 0 1.03659 2 0 0.0529114 1 0.000964029 -0.00215923
546 1 44.4962 4.86343 0 1.01001 2 0 0.0530846 1 0.000632845 0.00132956
496 2 45 4 0 1 2 5 0.0386813 1 0 0
497 2 46 4 0 1 2 5 0.0388097 1 0 0
548 1 46.4966 4.86426 0 1.00807 2 0 0.0533883 1 0.00210824 -0.00293963
547 1 45.497 4.86336 0 1.00173 2 0 0.0532665 1 -0.00177799 0.00102129
498 2 47 4 0 1 2 5 0.0387513 1 0 0
499 2 48 4 0 1 2 5 0.0386108 1 0 0
549 1 47.4973 4.86369 0 1.02093 2 0 0.0534346 1 -0.000352274 -0.000776246
500 2 49 4 0 1 2 5 0.038493 1 0 0
550 1 48.4969 4.86319 0 1.02225 2 0 0.0535 1 0.000899627 0.00264201
8501 1 49.4968 4.86317 0 1.06187 2 0 0.0535978 1 0.00115394 6.60636e-05
501 2 0 5 0 1 2 8 0.000621005 1 0 0
502 2 1 5 0 1 2 8 0.000934385 1 0 0
551 2 0 6 0 1 2 8 0.000881447 1 0 0
552 2 1 6 0 1 2 8 0.00133493 1 0 0
503 2 2 5 0 1 2 8 0.00200392 1 0 0
504 2 3 5 0 1 2 8 0.00400539 1 0 0
553 2 2 6 0 1 2 8 0.0028648 1 0 0
554 2 3 6 0 1 2 8 0.00567226 1 0 0
505 2 4 5 0 1 2 6 0.00691818 1 0 0
555 2 4 6 0 1 2 5 0.00949481 1 0 0
556 1 4.96558 5.73396 0 1.02426 2 0 0.0128002 1 -0.00146749 -0.00322679
557 1 5.97195 5.74335 0 1.00456 2 0 0.0162464 1 0.00110312 0.00172756
558 1 6.98341 5.73654 0 1.00032 2 0 0.0193492 1 -0.00380489 -0.00597872
509 1 7.9832 5.73705 0 1.00999 2 0 0.0224887 1 0.000751553 0.000692236
560 1 8.9963 5.73005 0 1.01571 2 0 0.0254647 1 -0.00122729 -0.00212772
561 1 9.99359 5.72868 0 1.04128 2 0 0.0283504 1 0.00569801 -0.00653202
562 1 10.9948 5.72483 0 1.02468 2 0 0.0311358 1 -0.00050341 0.00165339
563 1 11.9966 5.72257 0 1.00884 2 0 0.0337908 1 -0.00764496 0.000791043
565 1 12.9947 5.72181 0 1.01555 2 0 0.0363414 1 -0.000629193 0.000980791
566 1 13.9941 5.72263 0 1.01485 2 0 0.0387608 1 -0.00387762 -0.00719925
567 1 14.9922 5.71912 0 1.00349 2 0 0.0410277 1 -0.00277627 0.0188442
568 1 15.9906 5.72472 0 1.02492 2 0 0.0431924 1 0.000607716 -0.0059033
569 1 17.9935 5.72298 0 1.01386 2 0 0.0471065 1 -0.00734329 -0.000678856
618 1 16.9923 5.72402 0 1.00786 2 0 0.0452228 1 -0.00258428 -0.00125737
570 1 18.9914 5.72199 0 1.00562 2 0 0.0488292 1 0.00753782 -0.00127631
571 1 19.993 5.7188 0 1.00943 2 0 0.050429 1 0.00190217 -5.67048e-05
572 1 20.9949 5.72065 0 1.02492 2 0 0.0519515 1 -0.00499971 -0.00319078
573 1 21.9922 5.7205 0 1.00977 2 0 0.0533739 1 0.005535 0.00423151
574 1 22.9917 5.72209 0 1.00488 2 0 0.0546853 1 0.00768069 -0.00182768
575 1 23.9946 5.72328 0 1.01237 2 0 0.055932 1 -0.00185372 -0.00522986
576 1 24.9956 5.72556 0 1.01087 2 0 0.0570928 1 -0.00347893 -0.0052364
577 1 25.9936 5.7239 0 1.01133 2 0 0.0581807 1 0.00369488 0.000898693
579 1 26.9951 5.72356 0 1.01129 2 0 0.0591702 1 -0.000671006 -0.00359982
580 1 27.9946 5.72195 0 1.02117 2 0 0.0601178 1 -0.000882974 0.00263998
581 1 28.9935 5.72279 0 1.01861 2 0 0.0610011 1 0.0019323 0.00181649
632 1 29.993 5.7235 0 1.0167 2 0 0.0617601 1 -0.00139874 0.00239684
582 1 30.9938 5.72317 0 1.0143 2 0 0.0624608 1 -0.00605344 0.000293613
583 1 31.9924 5.72161 0 1.0088 2 0 0.0630902 1 0.00272255 0.00681625
584 1 32.9914 5.72297 0 1.00514 2 0 0.0636536 1 0.00265004 -0.000421671
585 1 33.9914 5.72281 0 1.02197 2 0 0.0641775 1 -0.000970509 -0.00067992
586 1 34.9901 5.72387 0 1.02669 2 0 0.0646318 1 0.00419882 -0.00089125
587 1 35.9897 5.72476 0 1.01702 2 0 0.0650399 1 0.00280178 -0.00138903
588 1 36.992 5.72479 0 1.01798 2 0 0.0653725 1 -0.00057167 0.00151106
589 1 37.9917 5.72476 0 1.01656 2 0 0.0656271 1 0.000286795 0.00170593
590 1 38.9938 5.72454 0 1.01208 2 0 0.0658313 1 -0.00245491 5.98148e-05
591 1 39.9928 5.72541 0 1.01334 2 0 0.0660263 1 0.00106876 0.0012439
592 1 40.9925 5.72768 0 1.02633 2 0 0.0662887 1 0.000925754 -0.000395763
594 1 42.9931 5.72836 0 1.01497 2 0 0.066678 1 -0.00109236 -0.000560412
593 1 41.9932 5.72859 0 1.02837 2 0 0.0665235 1 -0.000850024 -0.00100239
595 1 43.9936 5.72766 0 1.01694 2 0 0.0667742 1 -0.000428479 0.00103554
596 1 44.9933 5.72715 0 1.01116 2 0 0.0668973 1 -5.6402e-05 -0.00100131
597 1 45.9935 5.72686 0 1.01212 2 0 0.0671081 1 -0.00143209 0.00176517
598 1 46.9952 5.7271 0 1.00861 2 0 0.067304 1 -0.00255396 0.00018024
599 1 47.9945 5.72755 0 1.02545 2 0 0.0674914 1 0.00193578 -0.00104467
600 1 48.995 5.72668 0 1.00476 2 0 0.0676905 1 0.000168387 0.000197421
10751 1 49.789 46.0562 0 1.009 0 0 0.474188 1 6.41318e-05 -8.9156e-06
601 2 0 7 0 1 2 8 0.00115386 1 0 0
602 2 1 7 0 1 2 8 0.00175855 1 0 0
651 2 0 8 0 1 2 8 0.0014147 1 0 0
652 2 1 8 0 1 2 8 0.00217049 1 0 0
603 2 2 7 0 1 2 8 0.00378012 1 0 0
604 2 3 7 0 1 2 8 0.00745459 1 0 0
653 2 2 8 0 1 2 8 0.0046807 1 0 0
654 2 3 8 0 1 2 8 0.00924404 1 0 0
605 2 4 7 0 1 2 5 0.0122412 1 0 0
655 2 4 8 0 1 2 5 0.0148957 1 0 0
656 1 4.86776 7.49597 0 1.01253 2 0 0.0171163 1 -0.00146146 -0.00393874
606 1 5.38421 6.6402 0 1.01839 2 0 0.0169962 1 -0.000104594 0.00229997
607 1 6.38309 6.65433 0 1.01626 2 0 0.0206062 1 -0.00191108 -0.00511781
657 1 5.86618 7.53233 0 1.02523 2 0 0.0214329 1 0.00184208 1.70805e-05
608 1 7.47706 6.60187 0 1.01581 2 0 0.0243334 1 0.00290923 0.000824317
609 1 7.99318 7.45604 0 1.00447 2 0 0.0295076 1 -0.00244765 -0.00390078
658 1 6.96772 7.46096 0 1.00499 2 0 0.0256541 1 0.00406578 0.00452289
559 1 8.49623 6.59296 0 1.01669 2 0 0.0277197 1 -0.00183897 0.00231367
610 1 9.49804 6.59491 0 1.00382 2 0 0.0310372 1 -0.00420951 -0.00917501
661 1 8.9977 7.45544 0 1.00906 2 0 0.0332408 1 -0.00135653 -0.000619284
612 1 9.99701 7.45818 0 1.00002 2 0 0.0368946 1 -0.00398831 -0.00456799
611 1 10.496 6.59052 0 1.00368 2 0 0.0342745 1 -0.00162321 -0.00240395
564 1 11.4947 6.58645 0 1.01095 2 0 0.0374133 1 -0.00154806 0.00304814
613 1 10.994 7.45225 0 1.00877 2 0 0.0405227 1 0.00206286 0.00215546
614 1 12.4927 6.58472 0 1.01882 2 0 0.0404634 1 0.00118557 0.00700014
665 1 12.9881 7.45004 0 1.00809 2 0 0.047546 1 -0.00262607 -0.00606084
664 1 11.9915 7.45086 0 1.0022 2 0 0.0440804 1 -0.00260214 -0.00159309
615 1 13.4909 6.58357 0 1.00601 2 0 0.0434123 1 -0.00319988 0.00528267
616 1 14.4888 6.58381 0 1.00878 2 0 0.0462061 1 0.000338996 0.00165652
666 1 13.9851 7.44688 0 0.997531 2 0 0.0508787 1 0.0029136 0.00219358
667 1 14.9822 7.44769 0 1.00922 2 0 0.0540874 1 0.00449925 -0.00176583
617 1 15.4857 6.58536 0 1.01132 2 0 0.048882 1 0.00031487 -0.00349544
668 1 15.9827 7.44644 0 1.01232 2 0 0.0571721 1 0.00296252 -0.00521898
619 1 16.4845 6.58443 0 1.00791 2 0 0.0514504 1 0.00838393 0.00461467
669 1 17.4892 6.5839 0 1.0115 2 0 0.0538666 1 0.00640027 3.59025e-05
719 1 16.9886 7.44321 0 1.0104 2 0 0.0601328 1 -0.00433987 0.00370877
720 1 17.9955 7.44195 0 1.00384 2 0 0.0629259 1 -0.00531391 -0.000251055
620 1 18.4922 6.58139 0 1.00047 2 0 0.05612 1 0.000936596 0.000698419
621 1 19.4944 6.57925 0 1.01086 2 0 0.0582411 1 -0.00467618 -0.00234542
670 1 18.9947 7.43838 0 1.01205 2 0 0.0655834 1 0.000886196 0.0030675
671 1 19.9931 7.43817 0 1.01101 2 0 0.0681223 1 -0.00113144 0.00274043
622 1 20.4922 6.57867 0 1.02282 2 0 0.0602738 1 0.00211467 0.000100036
623 1 21.4903 6.58185 0 1.01715 2 0 0.0621642 1 0.00689545 -0.00703036
672 1 20.9902 7.44005 0 1.01032 2 0 0.0704978 1 0.00693704 -0.000554605
673 1 21.99 7.44015 0 1.00705 2 0 0.0726835 1 -0.000121271 0.00557138
624 1 22.4911 6.58214 0 1.00933 2 0 0.0638915 1 0.00134746 -0.00303515
674 1 22.9903 7.44343 0 1.01197 2 0 0.0747434 1 -0.00102897 -0.00406791
625 1 23.4927 6.58328 0 1.01358 2 0 0.0655311 1 -0.00648577 -0.00227553
626 1 24.4905 6.58417 0 1.01095 2 0 0.0670757 1 0.00601143 0.00275946
675 1 23.9893 7.44509 0 1.00974 2 0 0.0766969 1 -0.00136111 0.000497069
676 1 24.9897 7.44504 0 1.01754 2 0 0.0785066 1 -0.00191942 0.000466153
578 1 26.4917 6.58379 0 1.0136 2 0 0.0698415 1 0.00333916 0.00396679
628 1 25.989 7.44578 0 1.00647 2 0 0.0801753 1 0.00348954 0.000997916
627 1 25.4933 6.58544 0 1.0116 2 0 0.068513 1 -0.00372929 -0.00119148
629 1 27.4919 6.58392 0 1.00585 2 0 0.0710916 1 0.000347213 0.00189092
679 1 27.9875 7.44696 0 1.01276 2 0 0.083203 1 -0.000613007 0.00116543
678 1 26.9895 7.44528 0 1.01987 2 0 0.0817411 1 -0.00364382 0.00317935
630 1 28.4908 6.58526 0 1.00031 2 0 0.0722791 1 0.000440399 -0.000290177
631 1 29.4896 6.58738 0 1.01679 2 0 0.0733329 1 0.0025591 -0.00342611
680 1 28.9859 7.44954 0 1.0041 2 0 0.084555 1 0.00340301 -0.0018445
681 1 29.9869 7.45052 0 1.0067 2 0 0.0857761 1 0.00035743 -0.00696253
682 1 30.4893 6.58585 0 1.0233 2 0 0.0742402 1 -0.00117447 0.000557122
633 1 31.4889 6.58437 0 1.00197 2 0 0.0750527 1 0.00156688 0.00215015
732 1 30.9866 7.44727 0 1.02086 2 0 0.0868312 1 -0.00390126 0.00369949
683 1 31.9848 7.44716 0 1.00602 2 0 0.0877626 1 0.000640546 -0.00136293
684 1 32.4882 6.5847 0 1.01173 2 0 0.0758026 1 -0.000359828 0.000380695
734 1 32.9852 7.44653 0 1.01306 2 0 0.0886359 1 -0.00505044 -0.000471324
634 1 33.4879 6.58436 0 1.00318 2 0 0.0765123 1 -0.000959276 0.0007088
635 1 34.4872 6.58494 0 1.01335 2 0 0.0771771 1 -0.000556427 -0.00026547
685 1 33.9843 7.44615 0 1.01182 2 0 0.0894467 1 -0.00227707 0.00354741
686 1 34.9821 7.44728 0 1.01566 2 0 0.0901831 1 0.00422277 0.00211167