ITEM: TIMESTEP
23000
ITEM: NUMBER OF ATOMS
15950
ITEM: BOX BOUNDS pp pp pp
0.0000000000000000e+00 1.0000000000000000e+02
-5.0000000000000000e+00 2.0000000000000000e+02
-5.0000000000000000e-01 5.0000000000000000e-01
ITEM: ATOMS id type x y z c_rho c_phase c_nbond c_temp f_rheo_chi_chi fx fy
1 2 0 -5 0 1 2 8 3.98989e-10 1 0 0
2 2 1 -5 0 1 2 8 5.87229e-10 1 0 0
51 2 0 -4 0 1 2 8 2.49838e-09 1 0 0
52 2 1 -4 0 1 2 8 3.80061e-09 1 0 0
3 2 2 -5 0 1 2 8 1.22817e-09 1 0 0
4 2 3 -5 0 1 2 8 2.45886e-09 1 0 0
53 2 2 -4 0 1 2 8 8.32029e-09 1 0 0
54 2 3 -4 0 1 2 8 1.719e-08 1 0 0
5 2 4 -5 0 1 2 7 4.44016e-09 1 0 0
55 2 4 -4 0 1 2 8 3.12191e-08 1 0 0
6 2 5 -5 0 1 2 6 7.29949e-09 1 0 0
7 2 6 -5 0 1 2 5 1.04692e-08 1 0 0
56 2 5 -4 0 1 2 8 4.98872e-08 1 0 0
57 2 6 -4 0 1 2 8 7.08562e-08 1 0 0
8 2 7 -5 0 1 2 5 1.34118e-08 1 0 0
9 2 8 -5 0 1 2 5 1.59074e-08 1 0 0
58 2 7 -4 0 1 2 8 9.1174e-08 1 0 0
59 2 8 -4 0 1 2 8 1.08485e-07 1 0 0
10 2 9 -5 0 1 2 5 1.78122e-08 1 0 0
60 2 9 -4 0 1 2 8 1.21697e-07 1 0 0
11 2 10 -5 0 1 2 5 1.91629e-08 1 0 0
12 2 11 -5 0 1 2 5 2.01283e-08 1 0 0
61 2 10 -4 0 1 2 8 1.31069e-07 1 0 0
62 2 11 -4 0 1 2 8 1.37787e-07 1 0 0
13 2 12 -5 0 1 2 5 2.0909e-08 1 0 0
14 2 13 -5 0 1 2 5 2.16228e-08 1 0 0
63 2 12 -4 0 1 2 8 1.4327e-07 1 0 0
64 2 13 -4 0 1 2 8 1.4834e-07 1 0 0
15 2 14 -5 0 1 2 5 2.22527e-08 1 0 0
65 2 14 -4 0 1 2 8 1.52796e-07 1 0 0
16 2 15 -5 0 1 2 5 2.2722e-08 1 0 0
17 2 16 -5 0 1 2 5 2.30185e-08 1 0 0
66 2 15 -4 0 1 2 8 1.56012e-07 1 0 0
67 2 16 -4 0 1 2 8 1.57947e-07 1 0 0
18 2 17 -5 0 1 2 5 2.32114e-08 1 0 0
19 2 18 -5 0 1 2 5 2.33484e-08 1 0 0
68 2 17 -4 0 1 2 8 1.59236e-07 1 0 0
69 2 18 -4 0 1 2 8 1.60308e-07 1 0 0
20 2 19 -5 0 1 2 5 2.33771e-08 1 0 0
70 2 19 -4 0 1 2 8 1.60749e-07 1 0 0
21 2 20 -5 0 1 2 5 2.31908e-08 1 0 0
22 2 21 -5 0 1 2 5 2.27424e-08 1 0 0
71 2 20 -4 0 1 2 8 1.59685e-07 1 0 0
72 2 21 -4 0 1 2 8 1.56694e-07 1 0 0
23 2 22 -5 0 1 2 5 2.2112e-08 1 0 0
24 2 23 -5 0 1 2 5 2.14853e-08 1 0 0
73 2 22 -4 0 1 2 8 1.52311e-07 1 0 0
74 2 23 -4 0 1 2 8 1.47861e-07 1 0 0
25 2 24 -5 0 1 2 5 2.10752e-08 1 0 0
75 2 24 -4 0 1 2 8 1.44911e-07 1 0 0
26 2 25 -5 0 1 2 5 2.10262e-08 1 0 0
27 2 26 -5 0 1 2 5 2.13432e-08 1 0 0
76 2 25 -4 0 1 2 8 1.4457e-07 1 0 0
77 2 26 -4 0 1 2 8 1.46892e-07 1 0 0
28 2 27 -5 0 1 2 5 2.19021e-08 1 0 0
29 2 28 -5 0 1 2 5 2.25451e-08 1 0 0
78 2 27 -4 0 1 2 8 1.50896e-07 1 0 0
79 2 28 -4 0 1 2 8 1.55354e-07 1 0 0
30 2 29 -5 0 1 2 5 2.31702e-08 1 0 0
80 2 29 -4 0 1 2 8 1.59563e-07 1 0 0
31 2 30 -5 0 1 2 5 2.37284e-08 1 0 0
32 2 31 -5 0 1 2 5 2.41624e-08 1 0 0
81 2 30 -4 0 1 2 8 1.63295e-07 1 0 0
82 2 31 -4 0 1 2 8 1.66232e-07 1 0 0
33 2 32 -5 0 1 2 5 2.43977e-08 1 0 0
34 2 33 -5 0 1 2 5 2.44104e-08 1 0 0
83 2 32 -4 0 1 2 8 1.67821e-07 1 0 0
84 2 33 -4 0 1 2 8 1.67841e-07 1 0 0
35 2 34 -5 0 1 2 5 2.42731e-08 1 0 0
85 2 34 -4 0 1 2 8 1.66822e-07 1 0 0
36 2 35 -5 0 1 2 5 2.41011e-08 1 0 0
37 2 36 -5 0 1 2 5 2.3953e-08 1 0 0
86 2 35 -4 0 1 2 8 1.65636e-07 1 0 0
87 2 36 -4 0 1 2 8 1.64713e-07 1 0 0
38 2 37 -5 0 1 2 5 2.37962e-08 1 0 0
39 2 38 -5 0 1 2 5 2.35557e-08 1 0 0
88 2 37 -4 0 1 2 8 1.63765e-07 1 0 0
89 2 38 -4 0 1 2 8 1.62186e-07 1 0 0
40 2 39 -5 0 1 2 5 2.31885e-08 1 0 0
90 2 39 -4 0 1 2 8 1.5961e-07 1 0 0
41 2 40 -5 0 1 2 5 2.27335e-08 1 0 0
42 2 41 -5 0 1 2 5 2.23193e-08 1 0 0
91 2 40 -4 0 1 2 8 1.56279e-07 1 0 0
92 2 41 -4 0 1 2 8 1.53142e-07 1 0 0
43 2 42 -5 0 1 2 5 2.21162e-08 1 0 0
44 2 43 -5 0 1 2 5 2.2232e-08 1 0 0
93 2 42 -4 0 1 2 8 1.51515e-07 1 0 0
94 2 43 -4 0 1 2 8 1.52285e-07 1 0 0
45 2 44 -5 0 1 2 5 2.26109e-08 1 0 0
95 2 44 -4 0 1 2 8 1.55087e-07 1 0 0
46 2 45 -5 0 1 2 5 2.30333e-08 1 0 0
47 2 46 -5 0 1 2 5 2.32497e-08 1 0 0
96 2 45 -4 0 1 2 8 1.5826e-07 1 0 0
97 2 46 -4 0 1 2 8 1.59894e-07 1 0 0
48 2 47 -5 0 1 2 5 2.3157e-08 1 0 0
49 2 48 -5 0 1 2 5 2.28632e-08 1 0 0
98 2 47 -4 0 1 2 8 1.59201e-07 1 0 0
99 2 48 -4 0 1 2 8 1.57017e-07 1 0 0
50 2 49 -5 0 1 2 5 2.25955e-08 1 0 0
100 2 49 -4 0 1 2 8 1.55075e-07 1 0 0
101 2 0 -3 0 1 2 8 1.42542e-08 1 0 0
102 2 1 -3 0 1 2 8 2.25084e-08 1 0 0
151 2 0 -2 0 1 2 8 7.32407e-08 1 0 0
152 2 1 -2 0 1 2 8 1.20588e-07 1 0 0
103 2 2 -3 0 1 2 8 5.18275e-08 1 0 0
104 2 3 -3 0 1 2 8 1.11136e-07 1 0 0
153 2 2 -2 0 1 2 8 2.93438e-07 1 0 0
154 2 3 -2 0 1 2 8 6.55938e-07 1 0 0
105 2 4 -3 0 1 2 8 2.07148e-07 1 0 0
155 2 4 -2 0 1 2 8 1.26053e-06 1 0 0
106 2 5 -3 0 1 2 8 3.3619e-07 1 0 0
107 2 6 -3 0 1 2 8 4.8238e-07 1 0 0
156 2 5 -2 0 1 2 8 2.08806e-06 1 0 0
157 2 6 -2 0 1 2 8 3.03239e-06 1 0 0
108 2 7 -3 0 1 2 8 6.24505e-07 1 0 0
109 2 8 -3 0 1 2 8 7.4549e-07 1 0 0
158 2 7 -2 0 1 2 8 3.95108e-06 1 0 0
159 2 8 -2 0 1 2 8 4.73235e-06 1 0 0
110 2 9 -3 0 1 2 8 8.37755e-07 1 0 0
160 2 9 -2 0 1 2 8 5.32861e-06 1 0 0
111 2 10 -3 0 1 2 8 9.03243e-07 1 0 0
112 2 11 -3 0 1 2 8 9.50333e-07 1 0 0
161 2 10 -2 0 1 2 8 5.75344e-06 1 0 0
162 2 11 -2 0 1 2 8 6.06078e-06 1 0 0
113 2 12 -3 0 1 2 8 9.89189e-07 1 0 0
114 2 13 -3 0 1 2 8 1.02565e-06 1 0 0
163 2 12 -2 0 1 2 8 6.3173e-06 1 0 0
164 2 13 -2 0 1 2 8 6.56164e-06 1 0 0
115 2 14 -3 0 1 2 8 1.05761e-06 1 0 0
165 2 14 -2 0 1 2 8 6.77523e-06 1 0 0
116 2 15 -3 0 1 2 8 1.07983e-06 1 0 0
117 2 16 -3 0 1 2 8 1.09234e-06 1 0 0
166 2 15 -2 0 1 2 8 6.91742e-06 1 0 0
167 2 16 -2 0 1 2 8 6.99098e-06 1 0 0
118 2 17 -3 0 1 2 8 1.10093e-06 1 0 0
119 2 18 -3 0 1 2 8 1.10941e-06 1 0 0
168 2 17 -2 0 1 2 8 7.04373e-06 1 0 0
169 2 18 -2 0 1 2 8 7.10622e-06 1 0 0
120 2 19 -3 0 1 2 8 1.11442e-06 1 0 0
170 2 19 -2 0 1 2 8 7.1528e-06 1 0 0
121 2 20 -3 0 1 2 8 1.10877e-06 1 0 0
122 2 21 -3 0 1 2 8 1.08883e-06 1 0 0
171 2 20 -2 0 1 2 8 7.12951e-06 1 0 0
172 2 21 -2 0 1 2 8 7.00859e-06 1 0 0
123 2 22 -3 0 1 2 8 1.0582e-06 1 0 0
124 2 23 -3 0 1 2 8 1.02637e-06 1 0 0
173 2 22 -2 0 1 2 8 6.81278e-06 1 0 0
174 2 23 -2 0 1 2 8 6.60367e-06 1 0 0
125 2 24 -3 0 1 2 8 1.00493e-06 1 0 0
175 2 24 -2 0 1 2 8 6.45978e-06 1 0 0
126 2 25 -3 0 1 2 8 1.00254e-06 1 0 0
127 2 26 -3 0 1 2 8 1.01977e-06 1 0 0
176 2 25 -2 0 1 2 8 6.44414e-06 1 0 0
177 2 26 -2 0 1 2 8 6.56259e-06 1 0 0
128 2 27 -3 0 1 2 8 1.04877e-06 1 0 0
129 2 28 -3 0 1 2 8 1.07983e-06 1 0 0
178 2 27 -2 0 1 2 8 6.75708e-06 1 0 0
179 2 28 -2 0 1 2 8 6.95594e-06 1 0 0
130 2 29 -3 0 1 2 8 1.10808e-06 1 0 0
180 2 29 -2 0 1 2 8 7.12823e-06 1 0 0
131 2 30 -3 0 1 2 8 1.13299e-06 1 0 0
132 2 31 -3 0 1 2 8 1.15299e-06 1 0 0
181 2 30 -2 0 1 2 8 7.27933e-06 1 0 0
182 2 31 -2 0 1 2 8 7.40454e-06 1 0 0
133 2 32 -3 0 1 2 8 1.16386e-06 1 0 0
134 2 33 -3 0 1 2 8 1.16349e-06 1 0 0
183 2 32 -2 0 1 2 8 7.47358e-06 1 0 0
184 2 33 -2 0 1 2 8 7.46809e-06 1 0 0
135 2 34 -3 0 1 2 8 1.15581e-06 1 0 0
185 2 34 -2 0 1 2 8 7.41472e-06 1 0 0
136 2 35 -3 0 1 2 8 1.14757e-06 1 0 0
137 2 36 -3 0 1 2 8 1.14195e-06 1 0 0
186 2 35 -2 0 1 2 8 7.36223e-06 1 0 0
187 2 36 -2 0 1 2 8 7.33232e-06 1 0 0
138 2 37 -3 0 1 2 8 1.13648e-06 1 0 0
139 2 38 -3 0 1 2 8 1.12624e-06 1 0 0
188 2 37 -2 0 1 2 8 7.30544e-06 1 0 0
189 2 38 -2 0 1 2 8 7.24564e-06 1 0 0
140 2 39 -3 0 1 2 8 1.10815e-06 1 0 0
190 2 39 -2 0 1 2 8 7.12921e-06 1 0 0
141 2 40 -3 0 1 2 8 1.08364e-06 1 0 0
142 2 41 -3 0 1 2 8 1.0597e-06 1 0 0
191 2 40 -2 0 1 2 8 6.96318e-06 1 0 0
192 2 41 -2 0 1 2 8 6.79458e-06 1 0 0
143 2 42 -3 0 1 2 8 1.04661e-06 1 0 0
144 2 43 -3 0 1 2 8 1.05173e-06 1 0 0
193 2 42 -2 0 1 2 8 6.69752e-06 1 0 0
194 2 43 -2 0 1 2 8 6.72805e-06 1 0 0
145 2 44 -3 0 1 2 8 1.0727e-06 1 0 0
195 2 44 -2 0 1 2 8 6.87284e-06 1 0 0
146 2 45 -3 0 1 2 8 1.09681e-06 1 0 0
147 2 46 -3 0 1 2 8 1.10922e-06 1 0 0
196 2 45 -2 0 1 2 8 7.04195e-06 1 0 0
197 2 46 -2 0 1 2 8 7.1287e-06 1 0 0
148 2 47 -3 0 1 2 8 1.10388e-06 1 0 0
149 2 48 -3 0 1 2 8 1.08735e-06 1 0 0
198 2 47 -2 0 1 2 8 7.09035e-06 1 0 0
199 2 48 -2 0 1 2 8 6.97458e-06 1 0 0
150 2 49 -3 0 1 2 8 1.07297e-06 1 0 0
200 2 49 -2 0 1 2 8 6.87588e-06 1 0 0
201 2 0 -1 0 1 2 8 3.34369e-07 1 0 0
202 2 1 -1 0 1 2 8 5.76462e-07 1 0 0
203 2 2 -1 0 1 2 8 1.4893e-06 1 0 0
204 2 3 -1 0 1 2 8 3.4866e-06 1 0 0
205 2 4 -1 0 1 2 8 6.93648e-06 1 0 0
206 2 5 -1 0 1 2 8 1.17579e-05 1 0 0
207 2 6 -1 0 1 2 8 1.72991e-05 1 0 0
208 2 7 -1 0 1 2 8 2.26875e-05 1 0 0
209 2 8 -1 0 1 2 8 2.72662e-05 1 0 0
210 2 9 -1 0 1 2 8 3.07716e-05 1 0 0
211 2 10 -1 0 1 2 8 3.32903e-05 1 0 0
212 2 11 -1 0 1 2 8 3.51311e-05 1 0 0
213 2 12 -1 0 1 2 8 3.6685e-05 1 0 0
214 2 13 -1 0 1 2 8 3.81873e-05 1 0 0
215 2 14 -1 0 1 2 8 3.94967e-05 1 0 0
216 2 15 -1 0 1 2 8 4.03273e-05 1 0 0
217 2 16 -1 0 1 2 8 4.07145e-05 1 0 0
218 2 17 -1 0 1 2 8 4.1011e-05 1 0 0
219 2 18 -1 0 1 2 8 4.14335e-05 1 0 0
220 2 19 -1 0 1 2 8 4.18027e-05 1 0 0
221 2 20 -1 0 1 2 8 4.17537e-05 1 0 0
222 2 21 -1 0 1 2 8 4.11033e-05 1 0 0
223 2 22 -1 0 1 2 8 3.99835e-05 1 0 0
224 2 23 -1 0 1 2 8 3.87488e-05 1 0 0
225 2 24 -1 0 1 2 8 3.78746e-05 1 0 0
226 2 25 -1 0 1 2 8 3.77807e-05 1 0 0
227 2 26 -1 0 1 2 8 3.8522e-05 1 0 0
228 2 27 -1 0 1 2 8 3.97079e-05 1 0 0
229 2 28 -1 0 1 2 8 4.08549e-05 1 0 0
230 2 29 -1 0 1 2 8 4.17863e-05 1 0 0
231 2 30 -1 0 1 2 8 4.25989e-05 1 0 0
232 2 31 -1 0 1 2 8 4.3306e-05 1 0 0
233 2 32 -1 0 1 2 8 4.37072e-05 1 0 0
234 2 33 -1 0 1 2 8 4.36587e-05 1 0 0
235 2 34 -1 0 1 2 8 4.33245e-05 1 0 0
236 2 35 -1 0 1 2 8 4.30247e-05 1 0 0
237 2 36 -1 0 1 2 8 4.28932e-05 1 0 0
238 2 37 -1 0 1 2 8 4.27922e-05 1 0 0
239 2 38 -1 0 1 2 8 4.24859e-05 1 0 0
240 2 39 -1 0 1 2 8 4.18138e-05 1 0 0
241 2 40 -1 0 1 2 8 4.0799e-05 1 0 0
242 2 41 -1 0 1 2 8 3.97245e-05 1 0 0
243 2 42 -1 0 1 2 8 3.90734e-05 1 0 0
244 2 43 -1 0 1 2 8 3.9232e-05 1 0 0
245 2 44 -1 0 1 2 8 4.01365e-05 1 0 0
246 2 45 -1 0 1 2 8 4.12091e-05 1 0 0
247 2 46 -1 0 1 2 8 4.17554e-05 1 0 0
248 2 47 -1 0 1 2 8 4.15045e-05 1 0 0
249 2 48 -1 0 1 2 8 4.07697e-05 1 0 0
250 2 49 -1 0 1 2 8 4.01536e-05 1 0 0
251 2 0 0 0 1 2 8 1.33589e-06 1 0 0
252 2 1 0 0 1 2 8 2.41949e-06 1 0 0
301 2 0 1 0 1 2 8 4.59649e-06 1 0 0
302 2 1 1 0 1 2 8 8.75494e-06 1 0 0
253 2 2 0 0 1 2 8 6.66094e-06 1 0 0
254 2 3 0 0 1 2 8 1.64088e-05 1 0 0
303 2 2 1 0 1 2 8 2.57149e-05 1 0 0
304 2 3 1 0 1 2 8 6.68893e-05 1 0 0
255 2 4 0 0 1 2 8 3.39579e-05 1 0 0
305 2 4 1 0 1 2 8 0.000144722 1 0 0
256 2 5 0 0 1 2 8 5.90893e-05 1 0 0
257 2 6 0 0 1 2 8 8.81539e-05 1 0 0
306 2 5 1 0 1 2 8 0.000259565 1 0 0
307 2 6 1 0 1 2 8 0.000392964 1 0 0
258 2 7 0 0 1 2 8 0.000116346 1 0 0
259 2 8 0 0 1 2 8 0.000140292 1 0 0
308 2 7 1 0 1 2 8 0.000521467 1 0 0
309 2 8 1 0 1 2 8 0.000630684 1 0 0
260 2 9 0 0 1 2 8 0.000158747 1 0 0
310 2 9 1 0 1 2 8 0.000715866 1 0 0
261 2 10 0 0 1 2 8 0.000172203 1 0 0
262 2 11 0 0 1 2 8 0.000182192 1 0 0
311 2 10 1 0 1 2 8 0.00077941 1 0 0
312 2 11 1 0 1 2 8 0.000827679 1 0 0
263 2 12 0 0 1 2 8 0.000190713 1 0 0
264 2 13 0 0 1 2 8 0.000199062 1 0 0
313 2 12 1 0 1 2 8 0.000869207 1 0 0
314 2 13 1 0 1 2 8 0.000910325 1 0 0
265 2 14 0 0 1 2 8 0.000206325 1 0 0
315 2 14 1 0 1 2 8 0.000946103 1 0 0
266 2 15 0 0 1 2 8 0.000210712 1 0 0
267 2 16 0 0 1 2 8 0.00021253 1 0 0
316 2 15 1 0 1 2 8 0.000966839 1 0 0
317 2 16 1 0 1 2 8 0.000974594 1 0 0
268 2 17 0 0 1 2 8 0.000214064 1 0 0
269 2 18 0 0 1 2 8 0.000216651 1 0 0
318 2 17 1 0 1 2 8 0.000982029 1 0 0
319 2 18 1 0 1 2 8 0.000996141 1 0 0
270 2 19 0 0 1 2 8 0.000219161 1 0 0
320 2 19 1 0 1 2 8 0.00101066 1 0 0
271 2 20 0 0 1 2 8 0.000219418 1 0 0
272 2 21 0 0 1 2 8 0.000216399 1 0 0
321 2 20 1 0 1 2 8 0.00101443 1 0 0
322 2 21 1 0 1 2 8 0.00100287 1 0 0
273 2 22 0 0 1 2 8 0.000210815 1 0 0
274 2 23 0 0 1 2 8 0.000204415 1 0 0
323 2 22 1 0 1 2 8 0.000979523 1 0 0
324 2 23 1 0 1 2 8 0.000951415 1 0 0
275 2 24 0 0 1 2 8 0.000199704 1 0 0
325 2 24 1 0 1 2 8 0.00092957 1 0 0
276 2 25 0 0 1 2 8 0.000199198 1 0 0
277 2 26 0 0 1 2 8 0.000203343 1 0 0
326 2 25 1 0 1 2 8 0.000927221 1 0 0
327 2 26 1 0 1 2 8 0.000947415 1 0 0
278 2 27 0 0 1 2 8 0.000209802 1 0 0
279 2 28 0 0 1 2 8 0.000215649 1 0 0
328 2 27 1 0 1 2 8 0.000978065 1 0 0
329 2 28 1 0 1 2 8 0.00100375 1 0 0
280 2 29 0 0 1 2 8 0.000219992 1 0 0
330 2 29 1 0 1 2 8 0.00102054 1 0 0
281 2 30 0 0 1 2 8 0.000223766 1 0 0
282 2 31 0 0 1 2 8 0.000227304 1 0 0
331 2 30 1 0 1 2 8 0.00103511 1 0 0
332 2 31 1 0 1 2 8 0.00105044 1 0 0
283 2 32 0 0 1 2 8 0.000229409 1 0 0
284 2 33 0 0 1 2 8 0.000229089 1 0 0
333 2 32 1 0 1 2 8 0.00106024 1 0 0
334 2 33 1 0 1 2 8 0.00105864 1 0 0
285 2 34 0 0 1 2 8 0.000227241 1 0 0
335 2 34 1 0 1 2 8 0.00104988 1 0 0
286 2 35 0 0 1 2 8 0.000225744 1 0 0
287 2 36 0 0 1 2 8 0.000225326 1 0 0
336 2 35 1 0 1 2 8 0.00104359 1 0 0
337 2 36 1 0 1 2 8 0.00104312 1 0 0
288 2 37 0 0 1 2 8 0.000225126 1 0 0
289 2 38 0 0 1 2 8 0.000223795 1 0 0
338 2 37 1 0 1 2 8 0.00104382 1 0 0
339 2 38 1 0 1 2 8 0.00103915 1 0 0
290 2 39 0 0 1 2 8 0.000220391 1 0 0
340 2 39 1 0 1 2 8 0.00102448 1 0 0
291 2 40 0 0 1 2 8 0.000214911 1 0 0
292 2 41 0 0 1 2 8 0.000208835 1 0 0
341 2 40 1 0 1 2 8 0.000999123 1 0 0
342 2 41 1 0 1 2 8 0.00096949 1 0 0
293 2 42 0 0 1 2 8 0.000204963 1 0 0
294 2 43 0 0 1 2 8 0.000205652 1 0 0
343 2 42 1 0 1 2 8 0.000949643 1 0 0
344 2 43 1 0 1 2 8 0.000951981 1 0 0
295 2 44 0 0 1 2 8 0.000210665 1 0 0
345 2 44 1 0 1 2 8 0.000975946 1 0 0
296 2 45 0 0 1 2 8 0.000216696 1 0 0
297 2 46 0 0 1 2 8 0.000219728 1 0 0
346 2 45 1 0 1 2 8 0.00100516 1 0 0
347 2 46 1 0 1 2 8 0.0010195 1 0 0
298 2 47 0 0 1 2 8 0.000218255 1 0 0
299 2 48 0 0 1 2 8 0.000214112 1 0 0
348 2 47 1 0 1 2 8 0.00101193 1 0 0
349 2 48 1 0 1 2 8 0.000991751 1 0 0
300 2 49 0 0 1 2 8 0.000210679 1 0 0
350 2 49 1 0 1 2 8 0.000975111 1 0 0
351 2 0 2 0 1 2 8 1.34189e-05 1 0 0
352 2 1 2 0 1 2 8 2.68162e-05 1 0 0
401 2 0 3 0 1 2 8 3.28803e-05 1 0 0
402 2 1 3 0 1 2 8 6.85582e-05 1 0 0
353 2 2 2 0 1 2 8 8.37423e-05 1 0 0
354 2 3 2 0 1 2 8 0.000229659 1 0 0
403 2 2 3 0 1 2 8 0.000225355 1 0 0
404 2 3 3 0 1 2 8 0.000644523 1 0 0
355 2 4 2 0 1 2 8 0.000521234 1 0 0
405 2 4 3 0 1 2 8 0.001518 1 0 0
356 2 5 2 0 1 2 8 0.000968608 1 0 0
357 2 6 2 0 1 2 8 0.0014878 1 0 0
406 2 5 3 0 1 2 8 0.00295205 1 0 0
407 2 6 3 0 1 2 8 0.00460508 1 0 0
358 2 7 2 0 1 2 8 0.00198024 1 0 0
359 2 8 2 0 1 2 8 0.00240027 1 0 0
408 2 7 3 0 1 2 8 0.00610215 1 0 0
409 2 8 3 0 1 2 8 0.00740079 1 0 0
360 2 9 2 0 1 2 8 0.00273457 1 0 0
410 2 9 3 0 1 2 8 0.00847222 1 0 0
361 2 10 2 0 1 2 8 0.00299226 1 0 0
362 2 11 2 0 1 2 8 0.00319454 1 0 0
411 2 10 3 0 1 2 8 0.00933352 1 0 0
412 2 11 3 0 1 2 8 0.0100426 1 0 0
363 2 12 2 0 1 2 8 0.00336979 1 0 0
364 2 13 2 0 1 2 8 0.00354396 1 0 0
413 2 12 3 0 1 2 8 0.0106616 1 0 0
414 2 13 3 0 1 2 8 0.0112709 1 0 0
365 2 14 2 0 1 2 8 0.00369602 1 0 0
415 2 14 3 0 1 2 8 0.0118087 1 0 0
366 2 15 2 0 1 2 8 0.00378279 1 0 0
367 2 16 2 0 1 2 8 0.00381469 1 0 0
416 2 15 3 0 1 2 8 0.012127 1 0 0
417 2 16 3 0 1 2 8 0.0122644 1 0 0
368 2 17 2 0 1 2 8 0.00384912 1 0 0
369 2 18 2 0 1 2 8 0.00391598 1 0 0
418 2 17 3 0 1 2 8 0.0124192 1 0 0
419 2 18 3 0 1 2 8 0.0126874 1 0 0
370 2 19 2 0 1 2 8 0.00398574 1 0 0
420 2 19 3 0 1 2 8 0.012959 1 0 0
371 2 20 2 0 1 2 8 0.00401135 1 0 0
372 2 21 2 0 1 2 8 0.00397794 1 0 0
421 2 20 3 0 1 2 8 0.0130792 1 0 0
422 2 21 3 0 1 2 8 0.0130242 1 0 0
373 2 22 2 0 1 2 8 0.00390177 1 0 0
374 2 23 2 0 1 2 8 0.00380324 1 0 0
423 2 22 3 0 1 2 8 0.0128618 1 0 0
424 2 23 3 0 1 2 8 0.0126189 1 0 0
375 2 24 2 0 1 2 8 0.00372049 1 0 0
425 2 24 3 0 1 2 8 0.0123855 1 0 0
376 2 25 2 0 1 2 8 0.00371211 1 0 0
377 2 26 2 0 1 2 8 0.00379451 1 0 0
426 2 25 3 0 1 2 8 0.0123731 1 0 0
427 2 26 3 0 1 2 8 0.0126384 1 0 0
378 2 27 2 0 1 2 8 0.00391661 1 0 0
379 2 28 2 0 1 2 8 0.00401034 1 0 0
428 2 27 3 0 1 2 8 0.0130272 1 0 0
429 2 28 3 0 1 2 8 0.0133008 1 0 0
380 2 29 2 0 1 2 8 0.00406115 1 0 0
430 2 29 3 0 1 2 8 0.0134106 1 0 0
381 2 30 2 0 1 2 8 0.00410546 1 0 0
382 2 31 2 0 1 2 8 0.00416113 1 0 0
431 2 30 3 0 1 2 8 0.0135118 1 0 0
432 2 31 3 0 1 2 8 0.0136756 1 0 0
383 2 32 2 0 1 2 8 0.00420043 1 0 0
384 2 33 2 0 1 2 8 0.00419485 1 0 0
433 2 32 3 0 1 2 8 0.0138075 1 0 0
434 2 33 3 0 1 2 8 0.0138001 1 0 0
385 2 34 2 0 1 2 8 0.00416091 1 0 0
435 2 34 3 0 1 2 8 0.0136995 1 0 0
386 2 35 2 0 1 2 8 0.00414013 1 0 0
387 2 36 2 0 1 2 8 0.00414473 1 0 0
436 2 35 3 0 1 2 8 0.0136527 1 0 0
437 2 36 3 0 1 2 8 0.0136908 1 0 0
388 2 37 2 0 1 2 8 0.00415369 1 0 0
389 2 38 2 0 1 2 8 0.00414126 1 0 0
438 2 37 3 0 1 2 8 0.0137353 1 0 0
439 2 38 3 0 1 2 8 0.0137111 1 0 0
390 2 39 2 0 1 2 8 0.00409007 1 0 0
440 2 39 3 0 1 2 8 0.0135768 1 0 0
391 2 40 2 0 1 2 8 0.00399424 1 0 0
392 2 41 2 0 1 2 8 0.003875 1 0 0
441 2 40 3 0 1 2 8 0.0133076 1 0 0
442 2 41 3 0 1 2 8 0.012937 1 0 0
393 2 42 2 0 1 2 8 0.00379126 1 0 0
394 2 43 2 0 1 2 8 0.00379656 1 0 0
443 2 42 3 0 1 2 8 0.0126665 1 0 0
444 2 43 3 0 1 2 8 0.0126695 1 0 0
395 2 44 2 0 1 2 8 0.00389109 1 0 0
445 2 44 3 0 1 2 8 0.0129551 1 0 0
396 2 45 2 0 1 2 8 0.00400746 1 0 0
397 2 46 2 0 1 2 8 0.0040622 1 0 0
446 2 45 3 0 1 2 8 0.0133101 1 0 0
447 2 46 3 0 1 2 8 0.0134621 1 0 0
398 2 47 2 0 1 2 8 0.00402929 1 0 0
399 2 48 2 0 1 2 8 0.00394811 1 0 0
448 2 47 3 0 1 2 8 0.0133455 1 0 0
449 2 48 3 0 1 2 8 0.0130949 1 0 0
400 2 49 2 0 1 2 8 0.00388073 1 0 0
450 2 49 3 0 1 2 8 0.0128774 1 0 0
451 2 0 4 0 1 2 8 6.73999e-05 1 0 0
452 2 1 4 0 1 2 8 0.000145531 1 0 0
453 2 2 4 0 1 2 8 0.000497764 1 0 0
454 2 3 4 0 1 2 8 0.00145502 1 0 0
455 2 4 4 0 1 2 7 0.00337739 1 0 0
456 2 5 4 0 1 2 6 0.00690552 1 0 0
457 2 6 4 0 1 2 5 0.0106272 1 0 0
506 1 5.48515 4.87213 0 1.0006 2 0 0.013436 1 -0.00471102 -0.000557492
507 1 6.48282 4.87345 0 1.02569 2 0 0.0171919 1 0.000967332 0.000661421
458 2 7 4 0 1 2 5 0.0137795 1 0 0
459 2 8 4 0 1 2 5 0.0166682 1 0 0
508 1 7.48076 4.8697 0 1.03193 2 0 0.0209182 1 0.00500636 0.00230501
460 2 9 4 0 1 2 5 0.0191693 1 0 0
510 1 8.49712 4.86338 0 1.01036 2 0 0.0244649 1 0.00514224 0.00347413
511 1 9.4991 4.86204 0 1.00136 2 0 0.027703 1 -0.0042306 0.00878622
461 2 10 4 0 1 2 5 0.0212933 1 0 0
462 2 11 4 0 1 2 5 0.0231552 1 0 0
512 1 10.4974 4.86258 0 1.01573 2 0 0.0307517 1 0.00831708 0.00626134
513 1 11.4991 4.86147 0 1.01534 2 0 0.0336202 1 -0.00121368 0.00819663
463 2 12 4 0 1 2 5 0.0248243 1 0 0
464 2 13 4 0 1 2 5 0.0264084 1 0 0
514 1 12.5011 4.86511 0 1.01802 2 0 0.036268 1 -0.00475675 -0.00196367
465 2 14 4 0 1 2 5 0.0278178 1 0 0
515 1 13.4996 4.86307 0 1.02031 2 0 0.0387022 1 0.00274009 0.00376203
516 1 14.5029 4.86581 0 1.0096 2 0 0.0408556 1 -0.0122692 -0.00358669
466 2 15 4 0 1 2 5 0.0287763 1 0 0
467 2 16 4 0 1 2 5 0.0293409 1 0 0
518 1 16.4961 4.86587 0 1.02515 2 0 0.044318 1 0.00623638 0.00238668
517 1 15.4985 4.86762 0 1.02614 2 0 0.0426726 1 0.00105928 -0.00639451
468 2 17 4 0 1 2 5 0.0299251 1 0 0
469 2 18 4 0 1 2 5 0.0307338 1 0 0
519 1 17.4963 4.8673 0 1.0239 2 0 0.0458287 1 -0.00340412 -0.00691013
470 2 19 4 0 1 2 5 0.0314897 1 0 0
520 1 18.4969 4.86798 0 1.00577 2 0 0.0472199 1 0.00219818 -0.00381342
521 1 19.4973 4.8655 0 1.00453 2 0 0.0483804 1 0.0018144 0.00310783
471 2 20 4 0 1 2 5 0.031892 1 0 0
472 2 21 4 0 1 2 5 0.0319568 1 0 0
523 1 21.4985 4.86387 0 1.02268 2 0 0.0500019 1 0.00686806 0.0015449
522 1 20.5025 4.86864 0 1.0139 2 0 0.0492791 1 -0.0137928 -0.0101919
473 2 22 4 0 1 2 5 0.03188 1 0 0
474 2 23 4 0 1 2 5 0.0316071 1 0 0
524 1 22.5003 4.86176 0 1.01383 2 0 0.0506081 1 -0.00271812 0.00861453
475 2 24 4 0 1 2 5 0.0312689 1 0 0
525 1 23.5042 4.86589 0 1.03669 2 0 0.0510703 1 -0.0111771 -0.0002388
526 1 24.5005 4.86552 0 1.04245 2 0 0.0515575 1 0.00614242 -0.000108835
476 2 25 4 0 1 2 5 0.0313431 1 0 0
477 2 26 4 0 1 2 5 0.0319262 1 0 0
528 1 26.4991 4.86154 0 1.04147 2 0 0.0529179 1 0.00524916 0.0130036
527 1 25.5017 4.86453 0 1.03798 2 0 0.0521827 1 -0.0104248 -0.00149758
478 2 27 4 0 1 2 5 0.0327778 1 0 0
479 2 28 4 0 1 2 5 0.0333389 1 0 0
529 1 27.4986 4.86334 0 1.0019 2 0 0.0536535 1 0.00314502 -0.00207937
480 2 29 4 0 1 2 5 0.0335244 1 0 0
531 1 29.4988 4.86258 0 1.01679 2 0 0.0547416 1 0.00330165 0.00794637
530 1 28.4996 4.86585 0 1.02091 2 0 0.0542425 1 0.0033548 -0.0132893
481 2 30 4 0 1 2 5 0.0337027 1 0 0
482 2 31 4 0 1 2 5 0.0340552 1 0 0
533 1 31.4999 4.86358 0 1.004 2 0 0.0556139 1 0.000791961 0.00322657
532 1 30.4995 4.86305 0 1.0182 2 0 0.0551904 1 -0.00139524 0.00304631
483 2 32 4 0 1 2 5 0.0343744 1 0 0
484 2 33 4 0 1 2 5 0.0344188 1 0 0
534 1 32.4998 4.86665 0 1.00171 2 0 0.0559225 1 0.00260818 -0.0109538
485 2 34 4 0 1 2 5 0.0342487 1 0 0
535 1 33.5004 4.86784 0 1.00275 2 0 0.0560396 1 -0.00655516 -0.0111185
536 1 34.4968 4.86709 0 1.0237 2 0 0.0560728 1 0.00981117 -0.00772328
486 2 35 4 0 1 2 5 0.034208 1 0 0
487 2 36 4 0 1 2 5 0.0343403 1 0 0
538 1 36.5004 4.86294 0 1.01227 2 0 0.056348 1 -6.82489e-05 0.00737651
537 1 35.4984 4.86486 0 1.0067 2 0 0.0562122 1 0.000759901 0.00192718
488 2 37 4 0 1 2 5 0.0344546 1 0 0
489 2 38 4 0 1 2 5 0.0344122 1 0 0
539 1 37.5 4.86312 0 1.00174 2 0 0.056374 1 0.000731765 0.00870774
490 2 39 4 0 1 2 5 0.0341893 1 0 0
541 1 39.4972 4.8641 0 1.00168 2 0 0.0560289 1 0.00933459 0.00522449
540 1 38.5006 4.86564 0 1.01715 2 0 0.0562559 1 -0.00745829 0.00110234
491 2 40 4 0 1 2 5 0.0337309 1 0 0
492 2 41 4 0 1 2 5 0.0330044 1 0 0
542 1 40.5025 4.86682 0 1.01016 2 0 0.0556988 1 -0.000781242 0.000871847
543 1 41.5023 4.86983 0 1.03252 2 0 0.0554409 1 -0.00287963 -0.00372448
493 2 42 4 0 1 2 5 0.0324676 1 0 0
494 2 43 4 0 1 2 5 0.0324546 1 0 0
544 1 42.5003 4.86853 0 1.0319 2 0 0.0553176 1 0.000757403 -0.00284028
495 2 44 4 0 1 2 5 0.0329817 1 0 0
545 1 43.4978 4.86649 0 1.03659 2 0 0.0553986 1 0.00876045 -0.00419868
546 1 44.4993 4.87746 0 1.01001 2 0 0.0555987 1 -0.00237752 -0.0105003
496 2 45 4 0 1 2 5 0.0336404 1 0 0
497 2 46 4 0 1 2 5 0.0338689 1 0 0
548 1 46.4973 4.87558 0 1.00807 2 0 0.0559164 1 0.00299144 -0.00594634
547 1 45.4975 4.86579 0 1.00173 2 0 0.0557019 1 0.00494921 0.00246035
498 2 47 4 0 1 2 5 0.0335934 1 0 0
499 2 48 4 0 1 2 5 0.0331038 1 0 0
549 1 47.5015 4.86607 0 1.02093 2 0 0.0555829 1 -0.000697496 0.00116177
500 2 49 4 0 1 2 5 0.0326717 1 0 0
550 1 48.5022 4.86553 0 1.02225 2 0 0.0555059 1 -0.00467327 0.00264987
8501 1 49.5006 4.86086 0 1.06187 2 0 0.0555184 1 0.00247034 0.0155708
501 2 0 5 0 1 2 8 0.000116577 1 0 0
502 2 1 5 0 1 2 8 0.000258378 1 0 0
551 2 0 6 0 1 2 8 0.000174138 1 0 0
552 2 1 6 0 1 2 8 0.000392861 1 0 0
503 2 2 5 0 1 2 8 0.000907354 1 0 0
504 2 3 5 0 1 2 8 0.0027038 1 0 0
553 2 2 6 0 1 2 8 0.00139672 1 0 0
554 2 3 6 0 1 2 8 0.00417574 1 0 0
505 2 4 5 0 1 2 6 0.0063566 1 0 0
555 2 4 6 0 1 2 5 0.0095796 1 0 0
556 1 4.96432 5.72565 0 1.02426 2 0 0.0146255 1 -0.000123514 0.000152412
557 1 5.96884 5.74487 0 1.00456 2 0 0.0196753 1 -0.0062409 -0.00241261
558 1 6.96639 5.74691 0 1.00032 2 0 0.0241766 1 0.000357843 -0.00692789
509 1 7.99176 5.72354 0 1.00999 2 0 0.0287177 1 0.00613992 0.00666213
560 1 8.99719 5.72915 0 1.01571 2 0 0.0330027 1 -0.000120738 -0.0110686
561 1 9.99834 5.7265 0 1.04128 2 0 0.0371286 1 0.00102359 -0.0013629
562 1 10.9997 5.72725 0 1.02468 2 0 0.0410718 1 -0.00843478 -0.000283939
563 1 11.9954 5.72654 0 1.00884 2 0 0.0447666 1 0.0111473 0.00170984
565 1 13.0016 5.729 0 1.01555 2 0 0.0482576 1 -0.0105274 -0.00632656
566 1 13.998 5.72793 0 1.01485 2 0 0.0514659 1 0.00739429 0.00194702
567 1 14.9967 5.73216 0 1.00349 2 0 0.0543687 1 0.00249706 0.00405893
568 1 15.9952 5.73175 0 1.02492 2 0 0.0570338 1 0.00517201 0.00565657
569 1 17.9937 5.72956 0 1.01386 2 0 0.0615468 1 0.0071254 0.00586711
618 1 16.9946 5.732 0 1.00786 2 0 0.0594374 1 -0.000109267 0.00161772
570 1 18.9973 5.73567 0 1.00562 2 0 0.0634066 1 -0.00154141 -0.00302734
571 1 19.9961 5.73236 0 1.00943 2 0 0.065051 1 -0.00116706 -0.00618391
572 1 20.9989 5.72999 0 1.02492 2 0 0.0665358 1 -0.0016724 -0.00259907
573 1 21.9975 5.7275 0 1.00977 2 0 0.0678211 1 0.00103741 -0.000399277
574 1 22.9966 5.72706 0 1.00488 2 0 0.0689428 1 0.00186188 0.00141082
575 1 23.9998 5.73218 0 1.01237 2 0 0.070002 1 0.000585534 -0.00274735
576 1 24.9974 5.73227 0 1.01087 2 0 0.0709603 1 0.00106159 -0.00549944
577 1 25.9957 5.73013 0 1.01133 2 0 0.0718731 1 0.00925306 -0.0131313
579 1 27.0004 5.72658 0 1.01129 2 0 0.0727177 1 0.000172813 -0.00609327
580 1 28.0008 5.72534 0 1.02117 2 0 0.0735842 1 -0.0040453 0.0149923
581 1 29.0013 5.72906 0 1.01861 2 0 0.0743656 1 -0.00470632 -0.00401737
632 1 29.9989 5.72794 0 1.0167 2 0 0.0749696 1 0.00185955 -0.00416904
582 1 30.9982 5.72676 0 1.0143 2 0 0.0754943 1 -0.00245239 -0.00327642
583 1 32.0009 5.72831 0 1.0088 2 0 0.0759311 1 -0.00434228 0.00556284
584 1 33.0006 5.7299 0 1.00514 2 0 0.0762407 1 -0.00231785 0.00947047
585 1 33.9999 5.73082 0 1.02197 2 0 0.0765389 1 -0.0020365 0.00735472
586 1 34.9975 5.73096 0 1.02669 2 0 0.0767654 1 0.00829248 -0.000576942
587 1 36.0012 5.72821 0 1.01702 2 0 0.0769444 1 -0.00626142 0.00272044
588 1 36.9983 5.73043 0 1.01798 2 0 0.0770556 1 0.00380231 -0.00690005
589 1 37.9954 5.73191 0 1.01656 2 0 0.0770421 1 0.00666201 -0.00139903
590 1 38.9962 5.73494 0 1.01208 2 0 0.0769428 1 0 -5e-05
591 1 39.997 5.72991 0 1.01334 2 0 0.0767032 1 0.000734245 -0.000413152
592 1 41.0016 5.73361 0 1.02633 2 0 0.0767297 1 -0.0015734 0.00266435
594 1 43.0042 5.7326 0 1.01497 2 0 0.0766497 1 -0.00647686 -0.00226694
593 1 42.0035 5.73455 0 1.02837 2 0 0.0767364 1 0.00565762 -0.00797815
595 1 44.0003 5.73974 0 1.01694 2 0 0.0766994 1 -0.00484931 0.00528473
596 1 44.9955 5.74297 0 1.01116 2 0 0.0767406 1 0.0123773 0.00309643
597 1 46.0066 5.74327 0 1.01212 2 0 0.0767487 1 -0.0152491 -0.000559549
598 1 47.001 5.73911 0 1.00861 2 0 0.0766891 1 0.0112708 0.000409177
599 1 48.0014 5.73661 0 1.02545 2 0 0.0765703 1 0 -5e-05
600 1 49.0031 5.73125 0 1.00476 2 0 0.0766469 1 -0.00911911 -0.0160087
2750 1 48.8061 45.9445 0 1.00386 0 0 0.498589 1 0.000187311 -0.000105391
601 2 0 7 0 1 2 8 0.000232039 1 0 0
602 2 1 7 0 1 2 8 0.000530387 1 0 0
651 2 0 8 0 1 2 8 0.000283943 1 0 0
652 2 1 8 0 1 2 8 0.000656494 1 0 0
603 2 2 7 0 1 2 8 0.00190134 1 0 0
604 2 3 7 0 1 2 8 0.00570923 1 0 0
653 2 2 8 0 1 2 8 0.00237359 1 0 0
654 2 3 8 0 1 2 8 0.00721463 1 0 0
605 2 4 7 0 1 2 5 0.01288 1 0 0
655 2 4 8 0 1 2 5 0.0160305 1 0 0
656 1 4.89899 7.47048 0 1.01253 2 0 0.0203476 1 -0.00171873 -0.000103844
606 1 5.43891 6.61354 0 1.01839 2 0 0.0209655 1 -0.000292356 -0.00061608
607 1 6.4547 6.61486 0 1.01626 2 0 0.0264987 1 0.000682043 0.00183927
657 1 5.89764 7.50176 0 1.02523 2 0 0.0275155 1 0.000812901 -0.00109077
608 1 7.4963 6.58819 0 1.01581 2 0 0.0320661 1 0.00371716 0.013845
609 1 7.99462 7.45539 0 1.00447 2 0 0.040629 1 -0.00397444 -0.00891875
658 1 6.99589 7.45277 0 1.00499 2 0 0.0344035 1 -0.0031677 0.00178567
559 1 8.49676 6.59133 0 1.01669 2 0 0.0373622 1 -0.00541904 -0.00069196
610 1 9.4999 6.58973 0 1.00382 2 0 0.0425481 1 -0.00489002 -0.000767923
661 1 9.00015 7.45205 0 1.00906 2 0 0.0468051 1 -0.00266622 0.00390283
612 1 9.99749 7.45284 0 1.00002 2 0 0.0528181 1 0.00742133 0.00638028
611 1 10.4975 6.59121 0 1.00368 2 0 0.0475544 1 0.00776067 -0.00570428
564 1 11.5004 6.59333 0 1.01095 2 0 0.052325 1 -0.00953133 -0.00263185
613 1 10.9967 7.45569 0 1.00877 2 0 0.0587218 1 0.00517907 -0.000392476
614 1 12.4968 6.59072 0 1.01882 2 0 0.0568789 1 0.00691256 0.00152241
665 1 12.9963 7.45653 0 1.00809 2 0 0.0698206 1 -0.00261758 -0.00348506
664 1 11.9996 7.45742 0 1.0022 2 0 0.0643832 1 -0.00993689 -0.0032234
615 1 13.4972 6.59175 0 1.00601 2 0 0.0611946 1 0.000716047 0.00972813
616 1 14.4956 6.59662 0 1.00878 2 0 0.065152 1 0.0011888 -0.00585004
666 1 13.9934 7.45964 0 0.997531 2 0 0.0749314 1 0.00987468 -0.00749825
667 1 14.993 7.46113 0 1.00922 2 0 0.0797029 1 0.000757749 0.00322662
617 1 15.4981 6.6001 0 1.01132 2 0 0.0688274 1 -0.00709128 -0.00745139
668 1 15.995 7.46501 0 1.01232 2 0 0.0841017 1 0.00641641 -0.00937727
619 1 16.4949 6.59832 0 1.00791 2 0 0.0722293 1 0.00635593 -6.12932e-05
669 1 17.4997 6.59546 0 1.0115 2 0 0.0753011 1 -0.00315761 0.00548531
719 1 16.9992 7.46271 0 1.0104 2 0 0.0881981 1 -0.00393222 -0.006956
720 1 17.9999 7.46411 0 1.00384 2 0 0.091881 1 -0.0105081 0.00377623
620 1 18.5014 6.60255 0 1.00047 2 0 0.0780074 1 -0.010263 -0.00657708
621 1 19.4963 6.60176 0 1.01086 2 0 0.0804174 1 0.0105982 0.000681111
670 1 18.9966 7.46912 0 1.01205 2 0 0.0952579 1 0.00844931 0.00337892
671 1 19.9993 7.4736 0 1.01101 2 0 0.0982238 1 0 -5e-05
622 1 20.4975 6.59343 0 1.02282 2 0 0.0826572 1 -0.00576359 0.00866137
623 1 21.4935 6.59227 0 1.01715 2 0 0.0846729 1 0.0137882 0.0103203
672 1 21.0018 7.46437 0 1.01032 2 0 0.100933 1 -0.00609024 -0.00468896
673 1 22 7.45557 0 1.00705 2 0 0.103361 1 -0.0142478 0.0077173
624 1 22.4946 6.59187 0 1.00933 2 0 0.0863487 1 0.00523928 -0.00729868
674 1 22.9938 7.45576 0 1.01197 2 0 0.105595 1 0.0133914 0.00529499
625 1 23.4954 6.59158 0 1.01358 2 0 0.0879551 1 -0.00357953 0.00310856
626 1 24.5002 6.59824 0 1.01095 2 0 0.0893925 1 -0.00334797 -0.0153766
675 1 23.9934 7.45556 0 1.00974 2 0 0.107669 1 -0.00229811 0.00461744
676 1 24.9982 7.4584 0 1.01754 2 0 0.109399 1 0.00169844 -0.00623695
578 1 26.502 6.58751 0 1.0136 2 0 0.0917702 1 -0.000238049 0.00855658
628 1 26.0068 7.45126 0 1.00647 2 0 0.110818 1 -0.00625224 0.00815276
627 1 25.5024 6.59235 0 1.0116 2 0 0.0906565 1 -0.00892426 0.00930689
629 1 27.4997 6.59091 0 1.00585 2 0 0.0928618 1 0.0111027 -0.0051167
679 1 28.0019 7.45571 0 1.01276 2 0 0.113337 1 -0.0082527 -0.0038323
678 1 27.0034 7.45355 0 1.01987 2 0 0.112089 1 -0.00123157 0.000221296
630 1 28.4997 6.59183 0 1.00031 2 0 0.0939667 1 -0.00069806 -0.00330116
631 1 29.4994 6.59301 0 1.01679 2 0 0.0949039 1 -0.00533699 -0.00754221
680 1 28.9994 7.45678 0 1.0041 2 0 0.114581 1 -0.00430476 -0.0101763
681 1 29.9964 7.45368 0 1.0067 2 0 0.115654 1 0.0106404 0.010469
682 1 30.4977 6.59176 0 1.0233 2 0 0.0956062 1 -0.000220782 0.000338587
633 1 31.4934 6.58908 0 1.00197 2 0 0.0961035 1 0.0167154 0.00447483
732 1 31.0041 7.45701 0 1.02086 2 0 0.116382 1 -0.00358402 0.00630692
683 1 32.0054 7.4626 0 1.00602 2 0 0.116817 1 -0.00715194 0.0052587
684 1 32.4966 6.59567 0 1.01173 2 0 0.0965295 1 0.00448202 -0.0046961
734 1 33.0034 7.46343 0 1.01306 2 0 0.117132 1 -0.00305177 -0.00797436
634 1 33.5026 6.59596 0 1.00318 2 0 0.096937 1 -0.00883358 -0.00318592
635 1 34.5013 6.597 0 1.01335 2 0 0.0973513 1 -0.00537761 -0.00955668
685 1 34.002 7.45774 0 1.01182 2 0 0.117598 1 -0.0032157 0.00975316
686 1 35.0011 7.4603 0 1.01566 2 0 0.118085 1 0.000177745 0.00453675
636 1 35.4969 6.59882 0 1.01343 2 0 0.0976617 1 0.0147984 -0.0105692