ITEM: TIMESTEP
40000
ITEM: NUMBER OF ATOMS
15950
ITEM: BOX BOUNDS pp pp pp
0.0000000000000000e+00 1.0000000000000000e+02
-5.0000000000000000e+00 2.0000000000000000e+02
-5.0000000000000000e-01 5.0000000000000000e-01
ITEM: ATOMS id type x y z c_rho c_phase c_nbond c_temp f_rheo_chi_chi fx fy
1 2 0 -5 0 1 2 8 1.89254e-08 1 0 0
2 2 1 -5 0 1 2 8 2.48639e-08 1 0 0
51 2 0 -4 0 1 2 8 8.40389e-08 1 0 0
52 2 1 -4 0 1 2 8 1.12623e-07 1 0 0
3 2 2 -5 0 1 2 8 4.45071e-08 1 0 0
4 2 3 -5 0 1 2 8 8.02187e-08 1 0 0
53 2 2 -4 0 1 2 8 2.07977e-07 1 0 0
54 2 3 -4 0 1 2 8 3.8237e-07 1 0 0
5 2 4 -5 0 1 2 7 1.36429e-07 1 0 0
55 2 4 -4 0 1 2 8 6.43403e-07 1 0 0
6 2 5 -5 0 1 2 6 2.19944e-07 1 0 0
7 2 6 -5 0 1 2 5 3.12524e-07 1 0 0
56 2 5 -4 0 1 2 8 9.82197e-07 1 0 0
57 2 6 -4 0 1 2 8 1.36278e-06 1 0 0
8 2 7 -5 0 1 2 5 3.98985e-07 1 0 0
9 2 8 -5 0 1 2 5 4.76497e-07 1 0 0
58 2 7 -4 0 1 2 8 1.7424e-06 1 0 0
59 2 8 -4 0 1 2 8 2.08598e-06 1 0 0
10 2 9 -5 0 1 2 5 5.41245e-07 1 0 0
60 2 9 -4 0 1 2 8 2.3736e-06 1 0 0
11 2 10 -5 0 1 2 5 5.92747e-07 1 0 0
12 2 11 -5 0 1 2 5 6.33326e-07 1 0 0
61 2 10 -4 0 1 2 8 2.60316e-06 1 0 0
62 2 11 -4 0 1 2 8 2.78518e-06 1 0 0
13 2 12 -5 0 1 2 5 6.66143e-07 1 0 0
14 2 13 -5 0 1 2 5 6.9331e-07 1 0 0
63 2 12 -4 0 1 2 8 2.93363e-06 1 0 0
64 2 13 -4 0 1 2 8 3.05741e-06 1 0 0
15 2 14 -5 0 1 2 5 7.15298e-07 1 0 0
65 2 14 -4 0 1 2 8 3.15767e-06 1 0 0
16 2 15 -5 0 1 2 5 7.31964e-07 1 0 0
17 2 16 -5 0 1 2 5 7.4392e-07 1 0 0
66 2 15 -4 0 1 2 8 3.23319e-06 1 0 0
67 2 16 -4 0 1 2 8 3.28717e-06 1 0 0
18 2 17 -5 0 1 2 5 7.52518e-07 1 0 0
19 2 18 -5 0 1 2 5 7.58471e-07 1 0 0
68 2 17 -4 0 1 2 8 3.32697e-06 1 0 0
69 2 18 -4 0 1 2 8 3.35665e-06 1 0 0
20 2 19 -5 0 1 2 5 7.60897e-07 1 0 0
70 2 19 -4 0 1 2 8 3.37192e-06 1 0 0
21 2 20 -5 0 1 2 5 7.58071e-07 1 0 0
22 2 21 -5 0 1 2 5 7.49291e-07 1 0 0
71 2 20 -4 0 1 2 8 3.36396e-06 1 0 0
72 2 21 -4 0 1 2 8 3.32862e-06 1 0 0
23 2 22 -5 0 1 2 5 7.36254e-07 1 0 0
24 2 23 -5 0 1 2 5 7.22965e-07 1 0 0
73 2 22 -4 0 1 2 8 3.27296e-06 1 0 0
74 2 23 -4 0 1 2 8 3.21491e-06 1 0 0
25 2 24 -5 0 1 2 5 7.14248e-07 1 0 0
75 2 24 -4 0 1 2 8 3.17666e-06 1 0 0
26 2 25 -5 0 1 2 5 7.13586e-07 1 0 0
27 2 26 -5 0 1 2 5 7.21481e-07 1 0 0
76 2 25 -4 0 1 2 8 3.1745e-06 1 0 0
77 2 26 -4 0 1 2 8 3.21074e-06 1 0 0
28 2 27 -5 0 1 2 5 7.35497e-07 1 0 0
29 2 28 -5 0 1 2 5 7.51985e-07 1 0 0
78 2 27 -4 0 1 2 8 3.27358e-06 1 0 0
79 2 28 -4 0 1 2 8 3.34583e-06 1 0 0
30 2 29 -5 0 1 2 5 7.67976e-07 1 0 0
80 2 29 -4 0 1 2 8 3.41443e-06 1 0 0
31 2 30 -5 0 1 2 5 7.81706e-07 1 0 0
32 2 31 -5 0 1 2 5 7.92013e-07 1 0 0
81 2 30 -4 0 1 2 8 3.47271e-06 1 0 0
82 2 31 -4 0 1 2 8 3.5165e-06 1 0 0
33 2 32 -5 0 1 2 5 7.98003e-07 1 0 0
34 2 33 -5 0 1 2 5 7.99591e-07 1 0 0
83 2 32 -4 0 1 2 8 3.54191e-06 1 0 0
84 2 33 -4 0 1 2 8 3.54825e-06 1 0 0
35 2 34 -5 0 1 2 5 7.97923e-07 1 0 0
85 2 34 -4 0 1 2 8 3.54071e-06 1 0 0
36 2 35 -5 0 1 2 5 7.94698e-07 1 0 0
37 2 36 -5 0 1 2 5 7.90824e-07 1 0 0
86 2 35 -4 0 1 2 8 3.52725e-06 1 0 0
87 2 36 -4 0 1 2 8 3.51198e-06 1 0 0
38 2 37 -5 0 1 2 5 7.85753e-07 1 0 0
39 2 38 -5 0 1 2 5 7.78152e-07 1 0 0
88 2 37 -4 0 1 2 8 3.49191e-06 1 0 0
89 2 38 -4 0 1 2 8 3.46008e-06 1 0 0
40 2 39 -5 0 1 2 5 7.67348e-07 1 0 0
90 2 39 -4 0 1 2 8 3.41257e-06 1 0 0
41 2 40 -5 0 1 2 5 7.54559e-07 1 0 0
42 2 41 -5 0 1 2 5 7.43028e-07 1 0 0
91 2 40 -4 0 1 2 8 3.35445e-06 1 0 0
92 2 41 -4 0 1 2 8 3.30073e-06 1 0 0
43 2 42 -5 0 1 2 5 7.3667e-07 1 0 0
44 2 43 -5 0 1 2 5 7.37708e-07 1 0 0
93 2 42 -4 0 1 2 8 3.2703e-06 1 0 0
94 2 43 -4 0 1 2 8 3.27439e-06 1 0 0
45 2 44 -5 0 1 2 5 7.4483e-07 1 0 0
95 2 44 -4 0 1 2 8 3.30739e-06 1 0 0
46 2 45 -5 0 1 2 5 7.53543e-07 1 0 0
47 2 46 -5 0 1 2 5 7.58874e-07 1 0 0
96 2 45 -4 0 1 2 8 3.34807e-06 1 0 0
97 2 46 -4 0 1 2 8 3.37271e-06 1 0 0
48 2 47 -5 0 1 2 5 7.58574e-07 1 0 0
49 2 48 -5 0 1 2 5 7.54394e-07 1 0 0
98 2 47 -4 0 1 2 8 3.37064e-06 1 0 0
99 2 48 -4 0 1 2 8 3.35039e-06 1 0 0
50 2 49 -5 0 1 2 5 7.50526e-07 1 0 0
100 2 49 -4 0 1 2 8 3.33209e-06 1 0 0
101 2 0 -3 0 1 2 8 3.42729e-07 1 0 0
102 2 1 -3 0 1 2 8 4.69453e-07 1 0 0
151 2 0 -2 0 1 2 8 1.2728e-06 1 0 0
152 2 1 -2 0 1 2 8 1.78499e-06 1 0 0
103 2 2 -3 0 1 2 8 8.96973e-07 1 0 0
104 2 3 -3 0 1 2 8 1.69169e-06 1 0 0
153 2 2 -2 0 1 2 8 3.53562e-06 1 0 0
154 2 3 -2 0 1 2 8 6.85523e-06 1 0 0
105 2 4 -3 0 1 2 8 2.89364e-06 1 0 0
155 2 4 -2 0 1 2 8 1.19653e-05 1 0 0
106 2 5 -3 0 1 2 8 4.45266e-06 1 0 0
107 2 6 -3 0 1 2 8 6.2161e-06 1 0 0
156 2 5 -2 0 1 2 8 1.86675e-05 1 0 0
157 2 6 -2 0 1 2 8 2.62807e-05 1 0 0
108 2 7 -3 0 1 2 8 7.98297e-06 1 0 0
109 2 8 -3 0 1 2 8 9.58175e-06 1 0 0
158 2 7 -2 0 1 2 8 3.39068e-05 1 0 0
159 2 8 -2 0 1 2 8 4.07995e-05 1 0 0
110 2 9 -3 0 1 2 8 1.09203e-05 1 0 0
160 2 9 -2 0 1 2 8 4.65754e-05 1 0 0
111 2 10 -3 0 1 2 8 1.19915e-05 1 0 0
112 2 11 -3 0 1 2 8 1.28462e-05 1 0 0
161 2 10 -2 0 1 2 8 5.12179e-05 1 0 0
162 2 11 -2 0 1 2 8 5.49521e-05 1 0 0
113 2 12 -3 0 1 2 8 1.355e-05 1 0 0
114 2 13 -3 0 1 2 8 1.41424e-05 1 0 0
163 2 12 -2 0 1 2 8 5.80616e-05 1 0 0
164 2 13 -2 0 1 2 8 6.07065e-05 1 0 0
115 2 14 -3 0 1 2 8 1.46235e-05 1 0 0
165 2 14 -2 0 1 2 8 6.28626e-05 1 0 0
116 2 15 -3 0 1 2 8 1.49832e-05 1 0 0
117 2 16 -3 0 1 2 8 1.5239e-05 1 0 0
166 2 15 -2 0 1 2 8 6.4465e-05 1 0 0
167 2 16 -2 0 1 2 8 6.55998e-05 1 0 0
118 2 17 -3 0 1 2 8 1.54325e-05 1 0 0
119 2 18 -3 0 1 2 8 1.55877e-05 1 0 0
168 2 17 -2 0 1 2 8 6.64836e-05 1 0 0
169 2 18 -2 0 1 2 8 6.7242e-05 1 0 0
120 2 19 -3 0 1 2 8 1.56822e-05 1 0 0
170 2 19 -2 0 1 2 8 6.77663e-05 1 0 0
121 2 20 -3 0 1 2 8 1.56684e-05 1 0 0
122 2 21 -3 0 1 2 8 1.55216e-05 1 0 0
171 2 20 -2 0 1 2 8 6.78222e-05 1 0 0
172 2 21 -2 0 1 2 8 6.72824e-05 1 0 0
123 2 22 -3 0 1 2 8 1.52728e-05 1 0 0
124 2 23 -3 0 1 2 8 1.50065e-05 1 0 0
173 2 22 -2 0 1 2 8 6.62718e-05 1 0 0
174 2 23 -2 0 1 2 8 6.51554e-05 1 0 0
125 2 24 -3 0 1 2 8 1.483e-05 1 0 0
175 2 24 -2 0 1 2 8 6.44109e-05 1 0 0
126 2 25 -3 0 1 2 8 1.48242e-05 1 0 0
127 2 26 -3 0 1 2 8 1.50003e-05 1 0 0
176 2 25 -2 0 1 2 8 6.44107e-05 1 0 0
177 2 26 -2 0 1 2 8 6.5208e-05 1 0 0
128 2 27 -3 0 1 2 8 1.52978e-05 1 0 0
129 2 28 -3 0 1 2 8 1.56304e-05 1 0 0
178 2 27 -2 0 1 2 8 6.65146e-05 1 0 0
179 2 28 -2 0 1 2 8 6.7929e-05 1 0 0
130 2 29 -3 0 1 2 8 1.59382e-05 1 0 0
180 2 29 -2 0 1 2 8 6.91974e-05 1 0 0
131 2 30 -3 0 1 2 8 1.61968e-05 1 0 0
132 2 31 -3 0 1 2 8 1.63922e-05 1 0 0
181 2 30 -2 0 1 2 8 7.02516e-05 1 0 0
182 2 31 -2 0 1 2 8 7.10582e-05 1 0 0
133 2 32 -3 0 1 2 8 1.6506e-05 1 0 0
134 2 33 -3 0 1 2 8 1.65323e-05 1 0 0
183 2 32 -2 0 1 2 8 7.15331e-05 1 0 0
184 2 33 -2 0 1 2 8 7.16364e-05 1 0 0
135 2 34 -3 0 1 2 8 1.64959e-05 1 0 0
185 2 34 -2 0 1 2 8 7.14769e-05 1 0 0
136 2 35 -3 0 1 2 8 1.6437e-05 1 0 0
137 2 36 -3 0 1 2 8 1.63759e-05 1 0 0
186 2 35 -2 0 1 2 8 7.12433e-05 1 0 0
187 2 36 -2 0 1 2 8 7.1028e-05 1 0 0
138 2 37 -3 0 1 2 8 1.62955e-05 1 0 0
139 2 38 -3 0 1 2 8 1.61579e-05 1 0 0
188 2 37 -2 0 1 2 8 7.07435e-05 1 0 0
189 2 38 -2 0 1 2 8 7.02042e-05 1 0 0
140 2 39 -3 0 1 2 8 1.59401e-05 1 0 0
190 2 39 -2 0 1 2 8 6.9288e-05 1 0 0
141 2 40 -3 0 1 2 8 1.56633e-05 1 0 0
142 2 41 -3 0 1 2 8 1.54005e-05 1 0 0
191 2 40 -2 0 1 2 8 6.80751e-05 1 0 0
192 2 41 -2 0 1 2 8 6.68907e-05 1 0 0
143 2 42 -3 0 1 2 8 1.52477e-05 1 0 0
144 2 43 -3 0 1 2 8 1.5265e-05 1 0 0
193 2 42 -2 0 1 2 8 6.61827e-05 1 0 0
194 2 43 -2 0 1 2 8 6.62476e-05 1 0 0
145 2 44 -3 0 1 2 8 1.54272e-05 1 0 0
195 2 44 -2 0 1 2 8 6.69825e-05 1 0 0
146 2 45 -3 0 1 2 8 1.56281e-05 1 0 0
147 2 46 -3 0 1 2 8 1.57477e-05 1 0 0
196 2 45 -2 0 1 2 8 6.78972e-05 1 0 0
197 2 46 -2 0 1 2 8 6.84304e-05 1 0 0
148 2 47 -3 0 1 2 8 1.57326e-05 1 0 0
149 2 48 -3 0 1 2 8 1.56272e-05 1 0 0
198 2 47 -2 0 1 2 8 6.83366e-05 1 0 0
199 2 48 -2 0 1 2 8 6.78294e-05 1 0 0
150 2 49 -3 0 1 2 8 1.55341e-05 1 0 0
200 2 49 -2 0 1 2 8 6.73901e-05 1 0 0
201 2 0 -1 0 1 2 8 4.26497e-06 1 0 0
202 2 1 -1 0 1 2 8 6.13099e-06 1 0 0
203 2 2 -1 0 1 2 8 1.26023e-05 1 0 0
204 2 3 -1 0 1 2 8 2.5151e-05 1 0 0
205 2 4 -1 0 1 2 8 4.48577e-05 1 0 0
206 2 5 -1 0 1 2 8 7.10204e-05 1 0 0
207 2 6 -1 0 1 2 8 0.000100845 1 0 0
208 2 7 -1 0 1 2 8 0.000130673 1 0 0
209 2 8 -1 0 1 2 8 0.000157596 1 0 0
210 2 9 -1 0 1 2 8 0.00018021 1 0 0
211 2 10 -1 0 1 2 8 0.000198514 1 0 0
212 2 11 -1 0 1 2 8 0.000213393 1 0 0
213 2 12 -1 0 1 2 8 0.000225941 1 0 0
214 2 13 -1 0 1 2 8 0.000236741 1 0 0
215 2 14 -1 0 1 2 8 0.000245594 1 0 0
216 2 15 -1 0 1 2 8 0.00025215 1 0 0
217 2 16 -1 0 1 2 8 0.000256792 1 0 0
218 2 17 -1 0 1 2 8 0.000260524 1 0 0
219 2 18 -1 0 1 2 8 0.000263928 1 0 0
220 2 19 -1 0 1 2 8 0.000266519 1 0 0
221 2 20 -1 0 1 2 8 0.000267268 1 0 0
222 2 21 -1 0 1 2 8 0.000265611 1 0 0
223 2 22 -1 0 1 2 8 0.00026201 1 0 0
224 2 23 -1 0 1 2 8 0.000257869 1 0 0
225 2 24 -1 0 1 2 8 0.00025509 1 0 0
226 2 25 -1 0 1 2 8 0.000255225 1 0 0
227 2 26 -1 0 1 2 8 0.000258517 1 0 0
228 2 27 -1 0 1 2 8 0.000263728 1 0 0
229 2 28 -1 0 1 2 8 0.000269159 1 0 0
230 2 29 -1 0 1 2 8 0.000273849 1 0 0
231 2 30 -1 0 1 2 8 0.000277706 1 0 0
232 2 31 -1 0 1 2 8 0.000280723 1 0 0
233 2 32 -1 0 1 2 8 0.000282544 1 0 0
234 2 33 -1 0 1 2 8 0.000282932 1 0 0
235 2 34 -1 0 1 2 8 0.000282316 1 0 0
236 2 35 -1 0 1 2 8 0.000281503 1 0 0
237 2 36 -1 0 1 2 8 0.000280875 1 0 0
238 2 37 -1 0 1 2 8 0.000280035 1 0 0
239 2 38 -1 0 1 2 8 0.000278172 1 0 0
240 2 39 -1 0 1 2 8 0.00027473 1 0 0
241 2 40 -1 0 1 2 8 0.000269964 1 0 0
242 2 41 -1 0 1 2 8 0.000265163 1 0 0
243 2 42 -1 0 1 2 8 0.00026221 1 0 0
244 2 43 -1 0 1 2 8 0.000262415 1 0 0
245 2 44 -1 0 1 2 8 0.000265411 1 0 0
246 2 45 -1 0 1 2 8 0.000269152 1 0 0
247 2 46 -1 0 1 2 8 0.000271279 1 0 0
248 2 47 -1 0 1 2 8 0.00027078 1 0 0
249 2 48 -1 0 1 2 8 0.000268581 1 0 0
250 2 49 -1 0 1 2 8 0.000266711 1 0 0
251 2 0 0 0 1 2 8 1.27738e-05 1 0 0
252 2 1 0 0 1 2 8 1.88257e-05 1 0 0
301 2 0 1 0 1 2 8 3.3896e-05 1 0 0
302 2 1 1 0 1 2 8 5.11478e-05 1 0 0
253 2 2 0 0 1 2 8 4.01377e-05 1 0 0
254 2 3 0 0 1 2 8 8.24738e-05 1 0 0
303 2 2 1 0 1 2 8 0.000112773 1 0 0
304 2 3 1 0 1 2 8 0.000238121 1 0 0
255 2 4 0 0 1 2 8 0.000150446 1 0 0
305 2 4 1 0 1 2 8 0.000444183 1 0 0
256 2 5 0 0 1 2 8 0.000241878 1 0 0
257 2 6 0 0 1 2 8 0.000346324 1 0 0
306 2 5 1 0 1 2 8 0.000725445 1 0 0
307 2 6 1 0 1 2 8 0.00104648 1 0 0
258 2 7 0 0 1 2 8 0.000450391 1 0 0
259 2 8 0 0 1 2 8 0.000544169 1 0 0
308 2 7 1 0 1 2 8 0.00136377 1 0 0
309 2 8 1 0 1 2 8 0.00164918 1 0 0
260 2 9 0 0 1 2 8 0.000623308 1 0 0
310 2 9 1 0 1 2 8 0.00189206 1 0 0
261 2 10 0 0 1 2 8 0.000688039 1 0 0
262 2 11 0 0 1 2 8 0.000741379 1 0 0
311 2 10 1 0 1 2 8 0.00209374 1 0 0
312 2 11 1 0 1 2 8 0.00226285 1 0 0
263 2 12 0 0 1 2 8 0.000787001 1 0 0
264 2 13 0 0 1 2 8 0.000826786 1 0 0
313 2 12 1 0 1 2 8 0.00240978 1 0 0
314 2 13 1 0 1 2 8 0.00253973 1 0 0
265 2 14 0 0 1 2 8 0.000859666 1 0 0
315 2 14 1 0 1 2 8 0.00264843 1 0 0
266 2 15 0 0 1 2 8 0.000884049 1 0 0
267 2 16 0 0 1 2 8 0.00090143 1 0 0
316 2 15 1 0 1 2 8 0.00272981 1 0 0
317 2 16 1 0 1 2 8 0.00278888 1 0 0
268 2 17 0 0 1 2 8 0.000915895 1 0 0
269 2 18 0 0 1 2 8 0.000929768 1 0 0
318 2 17 1 0 1 2 8 0.00283984 1 0 0
319 2 18 1 0 1 2 8 0.00289046 1 0 0
270 2 19 0 0 1 2 8 0.000941101 1 0 0
320 2 19 1 0 1 2 8 0.00293382 1 0 0
271 2 20 0 0 1 2 8 0.000945921 1 0 0
272 2 21 0 0 1 2 8 0.000942154 1 0 0
321 2 20 1 0 1 2 8 0.00295683 1 0 0
322 2 21 1 0 1 2 8 0.00295338 1 0 0
273 2 22 0 0 1 2 8 0.000931348 1 0 0
274 2 23 0 0 1 2 8 0.000918198 1 0 0
323 2 22 1 0 1 2 8 0.00292828 1 0 0
324 2 23 1 0 1 2 8 0.00289457 1 0 0
275 2 24 0 0 1 2 8 0.000909317 1 0 0
325 2 24 1 0 1 2 8 0.00287174 1 0 0
276 2 25 0 0 1 2 8 0.000910477 1 0 0
277 2 26 0 0 1 2 8 0.000922701 1 0 0
326 2 25 1 0 1 2 8 0.00287842 1 0 0
327 2 26 1 0 1 2 8 0.00291856 1 0 0
278 2 27 0 0 1 2 8 0.000941299 1 0 0
279 2 28 0 0 1 2 8 0.000959862 1 0 0
328 2 27 1 0 1 2 8 0.00297692 1 0 0
329 2 28 1 0 1 2 8 0.00303243 1 0 0
280 2 29 0 0 1 2 8 0.000975176 1 0 0
330 2 29 1 0 1 2 8 0.00307585 1 0 0
281 2 30 0 0 1 2 8 0.000987656 1 0 0
282 2 31 0 0 1 2 8 0.00099778 1 0 0
331 2 30 1 0 1 2 8 0.00311107 1 0 0
332 2 31 1 0 1 2 8 0.00314126 1 0 0
283 2 32 0 0 1 2 8 0.00100415 1 0 0
284 2 33 0 0 1 2 8 0.00100558 1 0 0
333 2 32 1 0 1 2 8 0.00316148 1 0 0
334 2 33 1 0 1 2 8 0.00316668 1 0 0
285 2 34 0 0 1 2 8 0.00100355 1 0 0
335 2 34 1 0 1 2 8 0.00316135 1 0 0
286 2 35 0 0 1 2 8 0.00100117 1 0 0
287 2 36 0 0 1 2 8 0.000999832 1 0 0
336 2 35 1 0 1 2 8 0.00315593 1 0 0
337 2 36 1 0 1 2 8 0.0031549 1 0 0
288 2 37 0 0 1 2 8 0.000997944 1 0 0
289 2 38 0 0 1 2 8 0.000992439 1 0 0
338 2 37 1 0 1 2 8 0.00315264 1 0 0
339 2 38 1 0 1 2 8 0.00313933 1 0 0
290 2 39 0 0 1 2 8 0.000981145 1 0 0
340 2 39 1 0 1 2 8 0.00310801 1 0 0
291 2 40 0 0 1 2 8 0.000964697 1 0 0
292 2 41 0 0 1 2 8 0.000947554 1 0 0
341 2 40 1 0 1 2 8 0.00305969 1 0 0
342 2 41 1 0 1 2 8 0.00300724 1 0 0
293 2 42 0 0 1 2 8 0.000936679 1 0 0
294 2 43 0 0 1 2 8 0.000937195 1 0 0
343 2 42 1 0 1 2 8 0.00297286 1 0 0
344 2 43 1 0 1 2 8 0.00297376 1 0 0
295 2 44 0 0 1 2 8 0.000947968 1 0 0
345 2 44 1 0 1 2 8 0.00300709 1 0 0
296 2 45 0 0 1 2 8 0.000961456 1 0 0
297 2 46 0 0 1 2 8 0.000968881 1 0 0
346 2 45 1 0 1 2 8 0.00304883 1 0 0
347 2 46 1 0 1 2 8 0.00307086 1 0 0
298 2 47 0 0 1 2 8 0.000966605 1 0 0
299 2 48 0 0 1 2 8 0.000958188 1 0 0
348 2 47 1 0 1 2 8 0.00306211 1 0 0
349 2 48 1 0 1 2 8 0.00303445 1 0 0
300 2 49 0 0 1 2 8 0.000951156 1 0 0
350 2 49 1 0 1 2 8 0.00301174 1 0 0
351 2 0 2 0 1 2 8 7.91525e-05 1 0 0
352 2 1 2 0 1 2 8 0.000121932 1 0 0
401 2 0 3 0 1 2 8 0.000162157 1 0 0
402 2 1 3 0 1 2 8 0.000254057 1 0 0
353 2 2 2 0 1 2 8 0.000276223 1 0 0
354 2 3 2 0 1 2 8 0.00059549 1 0 0
403 2 2 3 0 1 2 8 0.000585901 1 0 0
404 2 3 3 0 1 2 8 0.00127259 1 0 0
355 2 4 2 0 1 2 8 0.00113227 1 0 0
405 2 4 3 0 1 2 8 0.00243253 1 0 0
356 2 5 2 0 1 2 8 0.00187828 1 0 0
357 2 6 2 0 1 2 8 0.00272391 1 0 0
406 2 5 3 0 1 2 8 0.00410577 1 0 0
407 2 6 3 0 1 2 8 0.00597007 1 0 0
358 2 7 2 0 1 2 8 0.00354553 1 0 0
359 2 8 2 0 1 2 8 0.00428379 1 0 0
408 2 7 3 0 1 2 8 0.00770067 1 0 0
409 2 8 3 0 1 2 8 0.00926607 1 0 0
360 2 9 2 0 1 2 8 0.00492116 1 0 0
410 2 9 3 0 1 2 8 0.0106524 1 0 0
361 2 10 2 0 1 2 8 0.00546172 1 0 0
362 2 11 2 0 1 2 8 0.00592508 1 0 0
411 2 10 3 0 1 2 8 0.0118602 1 0 0
412 2 11 3 0 1 2 8 0.0129255 1 0 0
363 2 12 2 0 1 2 8 0.00633475 1 0 0
364 2 13 2 0 1 2 8 0.00670256 1 0 0
413 2 12 3 0 1 2 8 0.0138871 1 0 0
414 2 13 3 0 1 2 8 0.0147631 1 0 0
365 2 14 2 0 1 2 8 0.00701555 1 0 0
415 2 14 3 0 1 2 8 0.0155282 1 0 0
366 2 15 2 0 1 2 8 0.00725513 1 0 0
367 2 16 2 0 1 2 8 0.00743497 1 0 0
416 2 15 3 0 1 2 8 0.0161365 1 0 0
417 2 16 3 0 1 2 8 0.0166173 1 0 0
368 2 17 2 0 1 2 8 0.0075956 1 0 0
369 2 18 2 0 1 2 8 0.00775792 1 0 0
418 2 17 3 0 1 2 8 0.0170613 1 0 0
419 2 18 3 0 1 2 8 0.0175094 1 0 0
370 2 19 2 0 1 2 8 0.00790067 1 0 0
420 2 19 3 0 1 2 8 0.0179077 1 0 0
371 2 20 2 0 1 2 8 0.00798832 1 0 0
372 2 21 2 0 1 2 8 0.00800817 1 0 0
421 2 20 3 0 1 2 8 0.0181787 1 0 0
422 2 21 3 0 1 2 8 0.0183118 1 0 0
373 2 22 2 0 1 2 8 0.0079739 1 0 0
374 2 23 2 0 1 2 8 0.00791352 1 0 0
423 2 22 3 0 1 2 8 0.0183457 1 0 0
424 2 23 3 0 1 2 8 0.0183142 1 0 0
375 2 24 2 0 1 2 8 0.00787309 1 0 0
425 2 24 3 0 1 2 8 0.0182974 1 0 0
376 2 25 2 0 1 2 8 0.00790346 1 0 0
377 2 26 2 0 1 2 8 0.00801743 1 0 0
426 2 25 3 0 1 2 8 0.0184115 1 0 0
427 2 26 3 0 1 2 8 0.0186841 1 0 0
378 2 27 2 0 1 2 8 0.00817485 1 0 0
379 2 28 2 0 1 2 8 0.00831731 1 0 0
428 2 27 3 0 1 2 8 0.0190433 1 0 0
429 2 28 3 0 1 2 8 0.0193533 1 0 0
380 2 29 2 0 1 2 8 0.00842244 1 0 0
430 2 29 3 0 1 2 8 0.0195683 1 0 0
381 2 30 2 0 1 2 8 0.0085084 1 0 0
382 2 31 2 0 1 2 8 0.0085879 1 0 0
431 2 30 3 0 1 2 8 0.0197524 1 0 0
432 2 31 3 0 1 2 8 0.0199385 1 0 0
383 2 32 2 0 1 2 8 0.00864569 1 0 0
384 2 33 2 0 1 2 8 0.00866412 1 0 0
433 2 32 3 0 1 2 8 0.0200878 1 0 0
434 2 33 3 0 1 2 8 0.0201494 1 0 0
385 2 34 2 0 1 2 8 0.00865444 1 0 0
435 2 34 3 0 1 2 8 0.0201434 1 0 0
386 2 35 2 0 1 2 8 0.00864728 1 0 0
387 2 36 2 0 1 2 8 0.00865445 1 0 0
436 2 35 3 0 1 2 8 0.0201516 1 0 0
437 2 36 3 0 1 2 8 0.020198 1 0 0
388 2 37 2 0 1 2 8 0.00865884 1 0 0
389 2 38 2 0 1 2 8 0.00863484 1 0 0
438 2 37 3 0 1 2 8 0.0202349 1 0 0
439 2 38 3 0 1 2 8 0.0202111 1 0 0
390 2 39 2 0 1 2 8 0.00856548 1 0 0
440 2 39 3 0 1 2 8 0.0201027 1 0 0
391 2 40 2 0 1 2 8 0.00845044 1 0 0
392 2 41 2 0 1 2 8 0.00831866 1 0 0
441 2 40 3 0 1 2 8 0.019903 1 0 0
442 2 41 3 0 1 2 8 0.0196468 1 0 0
393 2 42 2 0 1 2 8 0.00822909 1 0 0
394 2 43 2 0 1 2 8 0.00822993 1 0 0
443 2 42 3 0 1 2 8 0.0194668 1 0 0
444 2 43 3 0 1 2 8 0.0194685 1 0 0
395 2 44 2 0 1 2 8 0.00831565 1 0 0
445 2 44 3 0 1 2 8 0.0196452 1 0 0
396 2 45 2 0 1 2 8 0.00842265 1 0 0
397 2 46 2 0 1 2 8 0.00847589 1 0 0
446 2 45 3 0 1 2 8 0.019865 1 0 0
447 2 46 3 0 1 2 8 0.019964 1 0 0
398 2 47 2 0 1 2 8 0.00844855 1 0 0
399 2 48 2 0 1 2 8 0.00837381 1 0 0
448 2 47 3 0 1 2 8 0.0198975 1 0 0
449 2 48 3 0 1 2 8 0.0197438 1 0 0
400 2 49 2 0 1 2 8 0.00831343 1 0 0
450 2 49 3 0 1 2 8 0.0196169 1 0 0
451 2 0 4 0 1 2 8 0.000292043 1 0 0
452 2 1 4 0 1 2 8 0.000463793 1 0 0
453 2 2 4 0 1 2 8 0.00108083 1 0 0
454 2 3 4 0 1 2 8 0.00232801 1 0 0
455 2 4 4 0 1 2 7 0.00429434 1 0 0
456 2 5 4 0 1 2 6 0.00739104 1 0 0
457 2 6 4 0 1 2 5 0.0105325 1 0 0
506 1 5.47489 4.87832 0 1.0006 2 0 0.0123236 1 0.00160511 -0.00403368
507 1 6.48388 4.87312 0 1.02569 2 0 0.0152809 1 0.00170917 0.00303401
458 2 7 4 0 1 2 5 0.0132418 1 0 0
459 2 8 4 0 1 2 5 0.0157911 1 0 0
508 1 7.49278 4.86726 0 1.03193 2 0 0.0181982 1 0.000307482 0.00043912
460 2 9 4 0 1 2 5 0.0181247 1 0 0
510 1 8.49308 4.86621 0 1.01036 2 0 0.0210135 1 0.00201426 0.00353005
511 1 9.49438 4.86508 0 1.00136 2 0 0.0236627 1 -5.91977e-05 -0.00334457
461 2 10 4 0 1 2 5 0.0202267 1 0 0
462 2 11 4 0 1 2 5 0.0221566 1 0 0
512 1 10.4985 4.86363 0 1.01573 2 0 0.0261953 1 -0.00284936 -0.00460014
513 1 11.5 4.86232 0 1.01534 2 0 0.0286046 1 -0.00440495 0.00334151
463 2 12 4 0 1 2 5 0.023941 1 0 0
464 2 13 4 0 1 2 5 0.0255855 1 0 0
514 1 12.5011 4.86507 0 1.01802 2 0 0.030862 1 -0.0142424 -0.0101087
465 2 14 4 0 1 2 5 0.0270696 1 0 0
515 1 13.4967 4.86269 0 1.02031 2 0 0.0329698 1 0.00907247 -0.00274573
516 1 14.4974 4.86321 0 1.0096 2 0 0.0349019 1 -0.00604376 -0.0103378
466 2 15 4 0 1 2 5 0.0283206 1 0 0
467 2 16 4 0 1 2 5 0.029378 1 0 0
518 1 16.4997 4.86327 0 1.02515 2 0 0.0382802 1 0.00158642 -0.00235378
517 1 15.4944 4.8643 0 1.02614 2 0 0.0366521 1 0.0143409 -0.0060886
468 2 17 4 0 1 2 5 0.030378 1 0 0
469 2 18 4 0 1 2 5 0.0313599 1 0 0
519 1 17.5006 4.86402 0 1.0239 2 0 0.0398113 1 0.00324385 -0.00212651
470 2 19 4 0 1 2 5 0.032234 1 0 0
520 1 18.5018 4.86391 0 1.00577 2 0 0.0412046 1 -0.00877124 -0.000819769
521 1 19.4996 4.86184 0 1.00453 2 0 0.0424232 1 0.00381718 -0.00350209
471 2 20 4 0 1 2 5 0.0328874 1 0 0
472 2 21 4 0 1 2 5 0.0333433 1 0 0
523 1 21.5063 4.86339 0 1.02268 2 0 0.0444011 1 -0.00617487 -0.00303027
522 1 20.5021 4.86272 0 1.0139 2 0 0.0434614 1 0.00229289 -0.00757334
473 2 22 4 0 1 2 5 0.0336903 1 0 0
474 2 23 4 0 1 2 5 0.0339151 1 0 0
524 1 22.5033 4.86704 0 1.01383 2 0 0.045254 1 0.00837791 -0.00950021
475 2 24 4 0 1 2 5 0.0341018 1 0 0
525 1 23.5031 4.86415 0 1.03669 2 0 0.0459985 1 -0.00147941 0.00342754
526 1 24.5031 4.8689 0 1.04245 2 0 0.0467333 1 -0.00475276 -0.0092026
476 2 25 4 0 1 2 5 0.0344418 1 0 0
477 2 26 4 0 1 2 5 0.0349641 1 0 0
528 1 26.4984 4.86583 0 1.04147 2 0 0.0482436 1 0.00691951 -0.000682967
527 1 25.5015 4.86726 0 1.03798 2 0 0.0474773 1 -0.00320396 -0.000927368
478 2 27 4 0 1 2 5 0.0356067 1 0 0
479 2 28 4 0 1 2 5 0.036148 1 0 0
529 1 27.4996 4.86474 0 1.0019 2 0 0.0489912 1 -0.000144002 -0.00572553
480 2 29 4 0 1 2 5 0.0365278 1 0 0
531 1 29.4938 4.86553 0 1.01679 2 0 0.0502583 1 0.00902823 -0.00761059
530 1 28.4995 4.86521 0 1.02091 2 0 0.0496507 1 -0.0143171 -0.00618331
481 2 30 4 0 1 2 5 0.0368793 1 0 0
482 2 31 4 0 1 2 5 0.0372496 1 0 0
533 1 31.4919 4.86131 0 1.004 2 0 0.0513657 1 0.00714361 0.00740908
532 1 30.492 4.8625 0 1.0182 2 0 0.0508214 1 0.0100029 0.00264979
483 2 32 4 0 1 2 5 0.0375736 1 0 0
484 2 33 4 0 1 2 5 0.0377504 1 0 0
534 1 32.4962 4.86305 0 1.00171 2 0 0.0518234 1 -0.00402109 -0.000143425
485 2 34 4 0 1 2 5 0.0377935 1 0 0
535 1 33.4949 4.86383 0 1.00275 2 0 0.0521687 1 0.000933105 0.000875515
536 1 34.4937 4.86296 0 1.0237 2 0 0.0524442 1 0.00236205 0.000848259
486 2 35 4 0 1 2 5 0.0378752 1 0 0
487 2 36 4 0 1 2 5 0.0380303 1 0 0
538 1 36.4928 4.86302 0 1.01227 2 0 0.0530457 1 0.00567223 0.00651892
537 1 35.4935 4.86009 0 1.0067 2 0 0.0527543 1 0.00228537 0.0117216
488 2 37 4 0 1 2 5 0.0381527 1 0 0
489 2 38 4 0 1 2 5 0.0381758 1 0 0
539 1 37.4962 4.86127 0 1.00174 2 0 0.0532365 1 0.00152632 0.0102331
490 2 39 4 0 1 2 5 0.0381001 1 0 0
541 1 39.4968 4.86336 0 1.00168 2 0 0.0533795 1 0.00147339 -0.000955098
540 1 38.4973 4.86395 0 1.01715 2 0 0.0533487 1 -0.00326075 -0.00301744
491 2 40 4 0 1 2 5 0.0379076 1 0 0
492 2 41 4 0 1 2 5 0.0375871 1 0 0
542 1 40.4959 4.86367 0 1.01016 2 0 0.0533412 1 -9.22154e-05 -0.000735639
543 1 41.4953 4.86175 0 1.03252 2 0 0.0533016 1 0.00440677 0.00577989
493 2 42 4 0 1 2 5 0.0373627 1 0 0
494 2 43 4 0 1 2 5 0.0373866 1 0 0
544 1 42.4985 4.86311 0 1.0319 2 0 0.0533324 1 -0.00125308 -0.00145448
495 2 44 4 0 1 2 5 0.0376467 1 0 0
545 1 43.4987 4.86228 0 1.03659 2 0 0.0534355 1 -0.00141696 0.00135386
546 1 44.4995 4.86369 0 1.01001 2 0 0.053579 1 0.00152506 -0.0061636
496 2 45 4 0 1 2 5 0.0379681 1 0 0
497 2 46 4 0 1 2 5 0.0381019 1 0 0
548 1 46.5019 4.86636 0 1.00807 2 0 0.0538797 1 0.00191496 -0.00802468
547 1 45.5011 4.86437 0 1.00173 2 0 0.0537823 1 -0.00126381 -0.00196059
498 2 47 4 0 1 2 5 0.0380086 1 0 0
499 2 48 4 0 1 2 5 0.0378169 1 0 0
549 1 47.502 4.86309 0 1.02093 2 0 0.0539079 1 -0.00160673 0.00502302
500 2 49 4 0 1 2 5 0.0376583 1 0 0
550 1 48.5027 4.8624 0 1.02225 2 0 0.0539653 1 -0.00136557 0.00570778
8501 1 49.5035 4.86275 0 1.06187 2 0 0.0540734 1 -0.00419293 0.00213946
501 2 0 5 0 1 2 8 0.000466198 1 0 0
502 2 1 5 0 1 2 8 0.000748403 1 0 0
551 2 0 6 0 1 2 8 0.00066942 1 0 0
552 2 1 6 0 1 2 8 0.00108388 1 0 0
503 2 2 5 0 1 2 8 0.00175501 1 0 0
504 2 3 5 0 1 2 8 0.00375677 1 0 0
553 2 2 6 0 1 2 8 0.0025488 1 0 0
554 2 3 6 0 1 2 8 0.00541423 1 0 0
505 2 4 5 0 1 2 6 0.00681708 1 0 0
555 2 4 6 0 1 2 5 0.00951884 1 0 0
556 1 4.96357 5.73538 0 1.02426 2 0 0.0131174 1 -0.000596704 0.00298048
557 1 5.97825 5.74022 0 1.00456 2 0 0.0168795 1 0.000727477 0.0011609
558 1 6.9826 5.74058 0 1.00032 2 0 0.0201516 1 -0.00459488 -0.00136753
509 1 7.98069 5.73765 0 1.00999 2 0 0.0234294 1 0.00443646 0.00110672
560 1 8.99444 5.73003 0 1.01571 2 0 0.0266081 1 -0.00196226 0.000521954
561 1 9.99424 5.72583 0 1.04128 2 0 0.0296966 1 0.00195639 0.00692764
562 1 10.9924 5.72671 0 1.02468 2 0 0.0326761 1 0.00709159 0.00294644
563 1 11.9953 5.72598 0 1.00884 2 0 0.0354991 1 -0.000924102 -0.00299987
565 1 12.9972 5.72645 0 1.01555 2 0 0.0381995 1 1.75028e-05 -0.00052816
566 1 13.9956 5.72343 0 1.01485 2 0 0.04075 1 0.000787736 0.00654685
567 1 14.9941 5.72344 0 1.00349 2 0 0.0431204 1 0.0040811 0.00854408
568 1 15.9997 5.72502 0 1.02492 2 0 0.0453623 1 -0.00176695 0.00476235
569 1 18.0016 5.72897 0 1.01386 2 0 0.0493719 1 -0.000476139 -0.00797654
618 1 17.0014 5.72557 0 1.00786 2 0 0.0474496 1 -0.000858549 0.00483519
570 1 19.0033 5.72513 0 1.00562 2 0 0.0511004 1 0.000703525 0.00228382
571 1 20.0022 5.72044 0 1.00943 2 0 0.0526765 1 0.0050338 0.00727885
572 1 21.007 5.72252 0 1.02492 2 0 0.054163 1 0.00143029 0.00168757
573 1 22.0055 5.72882 0 1.00977 2 0 0.055519 1 0.00631768 -0.0102668
574 1 23.0055 5.73013 0 1.00488 2 0 0.0567557 1 -0.0023962 -0.00621639
575 1 24.0016 5.73183 0 1.01237 2 0 0.0579375 1 0.00321504 0.000706737
576 1 24.9996 5.73309 0 1.01087 2 0 0.0590319 1 0.00741114 0.00578563
577 1 26.0013 5.73279 0 1.01133 2 0 0.0600427 1 -0.00212341 -0.00157614
579 1 27.002 5.72902 0 1.01129 2 0 0.0609859 1 -0.0142037 0.00245913
580 1 27.9969 5.72913 0 1.02117 2 0 0.0619239 1 0.00638505 0.00205394
581 1 28.9948 5.72882 0 1.01861 2 0 0.0627872 1 0.000431545 0.00974337
632 1 29.993 5.72619 0 1.0167 2 0 0.0635361 1 -0.000749701 0.00641571
582 1 30.9914 5.72548 0 1.0143 2 0 0.0642503 1 -0.000164731 0.00562632
583 1 31.9895 5.72591 0 1.0088 2 0 0.0649177 1 0.00166226 0.00138991
584 1 32.988 5.72801 0 1.00514 2 0 0.065532 1 -0.00194079 -3.389e-06
585 1 33.9854 5.73077 0 1.02197 2 0 0.0661168 1 0.00513717 -0.00259076
586 1 34.9848 5.7281 0 1.02669 2 0 0.0666126 1 0.0053754 0.00381077
587 1 35.9876 5.72562 0 1.01702 2 0 0.0670527 1 0.00304994 0.00641044
588 1 36.9913 5.72751 0 1.01798 2 0 0.0674124 1 0.003766 -0.00083777
589 1 37.9923 5.72686 0 1.01656 2 0 0.0676708 1 0.00518156 -0.0067192
590 1 38.9945 5.72575 0 1.01208 2 0 0.0678505 1 -2.92949e-06 0.00291498
591 1 39.9926 5.72823 0 1.01334 2 0 0.0680086 1 0.010367 -0.0053593
592 1 40.994 5.7257 0 1.02633 2 0 0.0682254 1 0.00341085 0.00490354
594 1 42.9964 5.72537 0 1.01497 2 0 0.0684463 1 -0.000925008 0.00321116
593 1 41.9945 5.72499 0 1.02837 2 0 0.0683938 1 -0.000199992 0.00397252
595 1 43.998 5.72386 0 1.01694 2 0 0.0684463 1 -0.00305164 0.00684232
596 1 44.9983 5.72658 0 1.01116 2 0 0.0684958 1 0.00174316 -0.0073291
597 1 46.0017 5.72767 0 1.01212 2 0 0.0687464 1 0.00133183 0.000631542
598 1 47.0047 5.72921 0 1.00861 2 0 0.0689174 1 -0.000242544 -0.00397114
599 1 48.0042 5.72683 0 1.02545 2 0 0.0691167 1 0.00209272 0.00103228
600 1 49.0055 5.72585 0 1.00476 2 0 0.0693358 1 -0.00280657 0.00491025
601 2 0 7 0 1 2 8 0.000880896 1 0 0
602 2 1 7 0 1 2 8 0.00143737 1 0 0
651 2 0 8 0 1 2 8 0.00108129 1 0 0
652 2 1 8 0 1 2 8 0.00177823 1 0 0
603 2 2 7 0 1 2 8 0.00339013 1 0 0
604 2 3 7 0 1 2 8 0.00718146 1 0 0
653 2 2 8 0 1 2 8 0.00421217 1 0 0
654 2 3 8 0 1 2 8 0.0089504 1 0 0
605 2 4 7 0 1 2 5 0.0123839 1 0 0
655 2 4 8 0 1 2 5 0.0151481 1 0 0
656 1 4.96634 7.47667 0 1.01253 2 0 0.0179552 1 -0.00330038 -0.00459711
606 1 5.47577 6.61349 0 1.01839 2 0 0.0178658 1 -0.000581117 -4.59406e-05
607 1 6.47546 6.60651 0 1.01626 2 0 0.0216545 1 -9.48307e-05 -0.00124841
657 1 5.96443 7.48772 0 1.02523 2 0 0.0225582 1 0.00369404 -9.09568e-06
608 1 7.47646 6.60925 0 1.01581 2 0 0.0254008 1 -0.00530414 -0.00899818
609 1 7.98135 7.46553 0 1.00447 2 0 0.0310359 1 0.00107218 0.0025532
658 1 6.97038 7.4733 0 1.00499 2 0 0.0268342 1 0.00270691 -0.00635704
559 1 8.48284 6.60059 0 1.01669 2 0 0.0290921 1 0.000560426 0.000297215
610 1 9.49788 6.59194 0 1.00382 2 0 0.03272 1 -0.00840451 0.00387018
661 1 8.99712 7.45685 0 1.00906 2 0 0.035169 1 -0.00423207 -0.00276296
612 1 9.99636 7.45799 0 1.00002 2 0 0.0391894 1 -0.0048488 0.00329039
611 1 10.4937 6.59239 0 1.00368 2 0 0.0362373 1 0.00581975 -0.00653466
564 1 11.4935 6.58867 0 1.01095 2 0 0.0396241 1 -0.00439781 -0.00172126
613 1 10.9939 7.45484 0 1.00877 2 0 0.0431481 1 -0.00248388 -0.00138756
614 1 12.4941 6.58615 0 1.01882 2 0 0.0429023 1 -0.00251209 0.00785966
665 1 12.9914 7.44838 0 1.00809 2 0 0.0507508 1 -0.00142075 0.00321892
664 1 11.9906 7.44969 0 1.0022 2 0 0.0470066 1 0.00820734 0.00399993
615 1 13.497 6.58733 0 1.00601 2 0 0.046054 1 -0.00638859 -0.00376239
616 1 14.4959 6.58591 0 1.00878 2 0 0.0490266 1 -0.00647134 0.00395417
666 1 13.9912 7.44789 0 0.997531 2 0 0.0543357 1 0.0034918 0.00918085
667 1 14.9936 7.44921 0 1.00922 2 0 0.0577656 1 -0.000572223 0.00062545
617 1 15.4934 6.58575 0 1.01132 2 0 0.051853 1 0.00770648 0.00108094
668 1 15.995 7.44854 0 1.01232 2 0 0.0610364 1 0.00075636 0.00141474
619 1 16.5011 6.58862 0 1.00791 2 0 0.0545346 1 -0.00474348 -0.00383694
669 1 17.5 6.59079 0 1.0115 2 0 0.057032 1 -0.000815744 -0.0103778
719 1 16.9992 7.4513 0 1.0104 2 0 0.0641328 1 -0.00174847 0.00738162
720 1 18.0044 7.4475 0 1.00384 2 0 0.0670317 1 0.00893087 0.00423265
620 1 18.5077 6.58797 0 1.00047 2 0 0.0593425 1 -0.00201181 0.000334553
621 1 19.5121 6.58459 0 1.01086 2 0 0.0614724 1 -0.00403013 -0.00590589
670 1 19.018 7.44341 0 1.01205 2 0 0.0697417 1 -0.000786874 0.00808017
671 1 20.0176 7.44481 0 1.01101 2 0 0.0723012 1 -0.00916548 0.00646949
622 1 20.5093 6.58064 0 1.02282 2 0 0.0634907 1 0.00477509 0.00614155
623 1 21.51 6.58658 0 1.01715 2 0 0.0653323 1 -0.0058959 0.00309017
672 1 21.0153 7.44649 0 1.01032 2 0 0.0746393 1 -0.00908841 0.00260125
673 1 22.0121 7.4538 0 1.00705 2 0 0.0767392 1 -0.00668393 -0.00295184
624 1 22.5078 6.59098 0 1.00933 2 0 0.0669749 1 -0.00485939 0.00261966
674 1 23.0049 7.45722 0 1.01197 2 0 0.078739 1 0.00384721 0.00967015
625 1 23.503 6.59696 0 1.01358 2 0 0.0685506 1 0.00688724 -0.00685701
626 1 24.4992 6.60057 0 1.01095 2 0 0.0700081 1 0.00241488 -0.00503767
675 1 24.001 7.46433 0 1.00974 2 0 0.0805835 1 0.0071298 -0.00460743
676 1 24.9994 7.46813 0 1.01754 2 0 0.0822867 1 -0.00131086 -0.00302718
578 1 26.4975 6.59867 0 1.0136 2 0 0.0726215 1 -0.00306361 0.00345835
628 1 25.9963 7.4688 0 1.00647 2 0 0.0838507 1 -0.00388398 -0.00136138
627 1 25.4952 6.60187 0 1.0116 2 0 0.071369 1 0.0100274 -0.00339476
629 1 27.495 6.59689 0 1.00585 2 0 0.0738285 1 -0.00252891 0.00266043
679 1 27.9875 7.46681 0 1.01276 2 0 0.0867839 1 -0.00264633 -0.00722189
678 1 26.9916 7.46957 0 1.01987 2 0 0.0853693 1 0.00105709 -0.00402052
630 1 28.4904 6.5964 0 1.00031 2 0 0.0750061 1 2.58217e-05 -0.00374301
631 1 29.4868 6.59749 0 1.01679 2 0 0.0760782 1 -0.00786538 -0.0103731
680 1 28.9842 7.46114 0 1.0041 2 0 0.0881515 1 0.00516145 0.00850762
681 1 29.9816 7.45852 0 1.0067 2 0 0.0894173 1 0.00510562 0.0145065
682 1 30.4818 6.59427 0 1.0233 2 0 0.07701 1 0.0128347 -0.000665954
633 1 31.4822 6.59565 0 1.00197 2 0 0.0778828 1 -0.00251809 0.000152203
732 1 30.979 7.45882 0 1.02086 2 0 0.0905462 1 0.00711057 0.00613453
683 1 31.9829 7.46309 0 1.00602 2 0 0.0915967 1 -0.00551776 -0.00963998
684 1 32.4799 6.59554 0 1.01173 2 0 0.0787105 1 0.00492998 0.000379855
734 1 32.9821 7.45893 0 1.01306 2 0 0.0926201 1 -0.000398117 -0.00185179
634 1 33.4807 6.59232 0 1.00318 2 0 0.0795203 1 0.00275034 0.00932148
635 1 34.4845 6.59284 0 1.01335 2 0 0.0802931 1 0.00145583 0.00396611
685 1 33.9817 7.4566 0 1.01182 2 0 0.0935906 1 0.00169082 0.000555069
686 1 34.988 7.45447 0 1.01566 2 0 0.0944949 1 0.000391372 0.00633474
636 1 35.4855 6.59131 0 1.01343 2 0 0.080939 1 0.00394076 -0.0062129
637 1 36.4909 6.59089 0 0.995425 2 0 0.0814765 1 0.00250925 -0.0043679