ITEM: TIMESTEP
13000
ITEM: NUMBER OF ATOMS
15950
ITEM: BOX BOUNDS pp pp pp
0.0000000000000000e+00 1.0000000000000000e+02
-5.0000000000000000e+00 2.0000000000000000e+02
-5.0000000000000000e-01 5.0000000000000000e-01
ITEM: ATOMS id type x y z c_rho c_phase c_nbond c_temp f_rheo_chi_chi fx fy
1 2 0 -5 0 1 2 8 6.87333e-12 1 0 0
2 2 1 -5 0 1 2 8 1.15363e-11 1 0 0
51 2 0 -4 0 1 2 8 6.04768e-11 1 0 0
52 2 1 -4 0 1 2 8 1.06445e-10 1 0 0
3 2 2 -5 0 1 2 8 2.79919e-11 1 0 0
4 2 3 -5 0 1 2 8 6.16379e-11 1 0 0
53 2 2 -4 0 1 2 8 2.73884e-10 1 0 0
54 2 3 -4 0 1 2 8 6.28687e-10 1 0 0
5 2 4 -5 0 1 2 7 1.17393e-10 1 0 0
55 2 4 -4 0 1 2 8 1.22022e-09 1 0 0
6 2 5 -5 0 1 2 6 1.9603e-10 1 0 0
7 2 6 -5 0 1 2 5 2.82045e-10 1 0 0
56 2 5 -4 0 1 2 8 2.02048e-09 1 0 0
57 2 6 -4 0 1 2 8 2.90689e-09 1 0 0
8 2 7 -5 0 1 2 5 3.59575e-10 1 0 0
9 2 8 -5 0 1 2 5 4.20641e-10 1 0 0
58 2 7 -4 0 1 2 8 3.72875e-09 1 0 0
59 2 8 -4 0 1 2 8 4.37777e-09 1 0 0
10 2 9 -5 0 1 2 5 4.62235e-10 1 0 0
60 2 9 -4 0 1 2 8 4.81896e-09 1 0 0
11 2 10 -5 0 1 2 5 4.87287e-10 1 0 0
12 2 11 -5 0 1 2 5 5.02512e-10 1 0 0
61 2 10 -4 0 1 2 8 5.08287e-09 1 0 0
62 2 11 -4 0 1 2 8 5.24067e-09 1 0 0
13 2 12 -5 0 1 2 5 5.15675e-10 1 0 0
14 2 13 -5 0 1 2 5 5.31462e-10 1 0 0
63 2 12 -4 0 1 2 8 5.37817e-09 1 0 0
64 2 13 -4 0 1 2 8 5.54926e-09 1 0 0
15 2 14 -5 0 1 2 5 5.48247e-10 1 0 0
65 2 14 -4 0 1 2 8 5.73248e-09 1 0 0
16 2 15 -5 0 1 2 5 5.61036e-10 1 0 0
17 2 16 -5 0 1 2 5 5.6799e-10 1 0 0
66 2 15 -4 0 1 2 8 5.86627e-09 1 0 0
67 2 16 -4 0 1 2 8 5.93201e-09 1 0 0
18 2 17 -5 0 1 2 5 5.71765e-10 1 0 0
19 2 18 -5 0 1 2 5 5.74635e-10 1 0 0
68 2 17 -4 0 1 2 8 5.96763e-09 1 0 0
69 2 18 -4 0 1 2 8 6.0031e-09 1 0 0
20 2 19 -5 0 1 2 5 5.74774e-10 1 0 0
70 2 19 -4 0 1 2 8 6.01515e-09 1 0 0
21 2 20 -5 0 1 2 5 5.68215e-10 1 0 0
22 2 21 -5 0 1 2 5 5.53595e-10 1 0 0
71 2 20 -4 0 1 2 8 5.95354e-09 1 0 0
72 2 21 -4 0 1 2 8 5.79918e-09 1 0 0
23 2 22 -5 0 1 2 5 5.34259e-10 1 0 0
24 2 23 -5 0 1 2 5 5.16282e-10 1 0 0
73 2 22 -4 0 1 2 8 5.58845e-09 1 0 0
74 2 23 -4 0 1 2 8 5.38903e-09 1 0 0
25 2 24 -5 0 1 2 5 5.05324e-10 1 0 0
75 2 24 -4 0 1 2 8 5.26566e-09 1 0 0
26 2 25 -5 0 1 2 5 5.04452e-10 1 0 0
27 2 26 -5 0 1 2 5 5.13048e-10 1 0 0
76 2 25 -4 0 1 2 8 5.25648e-09 1 0 0
77 2 26 -4 0 1 2 8 5.35563e-09 1 0 0
28 2 27 -5 0 1 2 5 5.27537e-10 1 0 0
29 2 28 -5 0 1 2 5 5.44218e-10 1 0 0
78 2 27 -4 0 1 2 8 5.51818e-09 1 0 0
79 2 28 -4 0 1 2 8 5.69726e-09 1 0 0
30 2 29 -5 0 1 2 5 5.61433e-10 1 0 0
80 2 29 -4 0 1 2 8 5.87588e-09 1 0 0
31 2 30 -5 0 1 2 5 5.78335e-10 1 0 0
32 2 31 -5 0 1 2 5 5.92258e-10 1 0 0
81 2 30 -4 0 1 2 8 6.05192e-09 1 0 0
82 2 31 -4 0 1 2 8 6.20023e-09 1 0 0
33 2 32 -5 0 1 2 5 5.99272e-10 1 0 0
34 2 33 -5 0 1 2 5 5.98059e-10 1 0 0
83 2 32 -4 0 1 2 8 6.27504e-09 1 0 0
84 2 33 -4 0 1 2 8 6.25841e-09 1 0 0
35 2 34 -5 0 1 2 5 5.91999e-10 1 0 0
85 2 34 -4 0 1 2 8 6.18919e-09 1 0 0
36 2 35 -5 0 1 2 5 5.86064e-10 1 0 0
37 2 36 -5 0 1 2 5 5.822e-10 1 0 0
86 2 35 -4 0 1 2 8 6.12609e-09 1 0 0
87 2 36 -4 0 1 2 8 6.09023e-09 1 0 0
38 2 37 -5 0 1 2 5 5.78711e-10 1 0 0
39 2 38 -5 0 1 2 5 5.73132e-10 1 0 0
88 2 37 -4 0 1 2 8 6.0591e-09 1 0 0
89 2 38 -4 0 1 2 8 6.0026e-09 1 0 0
40 2 39 -5 0 1 2 5 5.64512e-10 1 0 0
90 2 39 -4 0 1 2 8 5.90875e-09 1 0 0
41 2 40 -5 0 1 2 5 5.53939e-10 1 0 0
42 2 41 -5 0 1 2 5 5.44449e-10 1 0 0
91 2 40 -4 0 1 2 8 5.78851e-09 1 0 0
92 2 41 -4 0 1 2 8 5.67605e-09 1 0 0
43 2 42 -5 0 1 2 5 5.4037e-10 1 0 0
44 2 43 -5 0 1 2 5 5.45006e-10 1 0 0
93 2 42 -4 0 1 2 8 5.62301e-09 1 0 0
94 2 43 -4 0 1 2 8 5.67117e-09 1 0 0
45 2 44 -5 0 1 2 5 5.57225e-10 1 0 0
95 2 44 -4 0 1 2 8 5.8103e-09 1 0 0
46 2 45 -5 0 1 2 5 5.7032e-10 1 0 0
47 2 46 -5 0 1 2 5 5.76043e-10 1 0 0
96 2 45 -4 0 1 2 8 5.96224e-09 1 0 0
97 2 46 -4 0 1 2 8 6.02908e-09 1 0 0
48 2 47 -5 0 1 2 5 5.71095e-10 1 0 0
49 2 48 -5 0 1 2 5 5.59538e-10 1 0 0
98 2 47 -4 0 1 2 8 5.97239e-09 1 0 0
99 2 48 -4 0 1 2 8 5.8413e-09 1 0 0
50 2 49 -5 0 1 2 5 5.49049e-10 1 0 0
100 2 49 -4 0 1 2 8 5.72578e-09 1 0 0
101 2 0 -3 0 1 2 8 4.81722e-10 1 0 0
102 2 1 -3 0 1 2 8 8.95305e-10 1 0 0
151 2 0 -2 0 1 2 8 3.4236e-09 1 0 0
152 2 1 -2 0 1 2 8 6.77073e-09 1 0 0
103 2 2 -3 0 1 2 8 2.45986e-09 1 0 0
104 2 3 -3 0 1 2 8 5.9258e-09 1 0 0
153 2 2 -2 0 1 2 8 2.00211e-08 1 0 0
154 2 3 -2 0 1 2 8 5.0973e-08 1 0 0
105 2 4 -3 0 1 2 8 1.19018e-08 1 0 0
155 2 4 -2 0 1 2 8 1.06575e-07 1 0 0
106 2 5 -3 0 1 2 8 2.01286e-08 1 0 0
107 2 6 -3 0 1 2 8 2.9334e-08 1 0 0
156 2 5 -2 0 1 2 8 1.84977e-07 1 0 0
157 2 6 -2 0 1 2 8 2.73572e-07 1 0 0
108 2 7 -3 0 1 2 8 3.79021e-08 1 0 0
109 2 8 -3 0 1 2 8 4.46667e-08 1 0 0
158 2 7 -2 0 1 2 8 3.56254e-07 1 0 0
159 2 8 -2 0 1 2 8 4.21556e-07 1 0 0
110 2 9 -3 0 1 2 8 4.92574e-08 1 0 0
160 2 9 -2 0 1 2 8 4.65889e-07 1 0 0
111 2 10 -3 0 1 2 8 5.19901e-08 1 0 0
112 2 11 -3 0 1 2 8 5.35976e-08 1 0 0
161 2 10 -2 0 1 2 8 4.92304e-07 1 0 0
162 2 11 -2 0 1 2 8 5.07658e-07 1 0 0
113 2 12 -3 0 1 2 8 5.50068e-08 1 0 0
114 2 13 -3 0 1 2 8 5.68365e-08 1 0 0
163 2 12 -2 0 1 2 8 5.21132e-07 1 0 0
164 2 13 -2 0 1 2 8 5.39406e-07 1 0 0
115 2 14 -3 0 1 2 8 5.88102e-08 1 0 0
165 2 14 -2 0 1 2 8 5.5921e-07 1 0 0
116 2 15 -3 0 1 2 8 6.01732e-08 1 0 0
117 2 16 -3 0 1 2 8 6.0748e-08 1 0 0
166 2 15 -2 0 1 2 8 5.71924e-07 1 0 0
167 2 16 -2 0 1 2 8 5.76127e-07 1 0 0
118 2 17 -3 0 1 2 8 6.10596e-08 1 0 0
119 2 18 -3 0 1 2 8 6.14904e-08 1 0 0
168 2 17 -2 0 1 2 8 5.78445e-07 1 0 0
169 2 18 -2 0 1 2 8 5.83313e-07 1 0 0
120 2 19 -3 0 1 2 8 6.17465e-08 1 0 0
170 2 19 -2 0 1 2 8 5.87269e-07 1 0 0
121 2 20 -3 0 1 2 8 6.1205e-08 1 0 0
122 2 21 -3 0 1 2 8 5.96154e-08 1 0 0
171 2 20 -2 0 1 2 8 5.83207e-07 1 0 0
172 2 21 -2 0 1 2 8 5.68197e-07 1 0 0
123 2 22 -3 0 1 2 8 5.73679e-08 1 0 0
124 2 23 -3 0 1 2 8 5.51958e-08 1 0 0
173 2 22 -2 0 1 2 8 5.46131e-07 1 0 0
174 2 23 -2 0 1 2 8 5.24238e-07 1 0 0
125 2 24 -3 0 1 2 8 5.3822e-08 1 0 0
175 2 24 -2 0 1 2 8 5.09926e-07 1 0 0
126 2 25 -3 0 1 2 8 5.37199e-08 1 0 0
127 2 26 -3 0 1 2 8 5.4848e-08 1 0 0
176 2 25 -2 0 1 2 8 5.08772e-07 1 0 0
177 2 26 -2 0 1 2 8 5.20736e-07 1 0 0
128 2 27 -3 0 1 2 8 5.66486e-08 1 0 0
129 2 28 -3 0 1 2 8 5.85315e-08 1 0 0
178 2 27 -2 0 1 2 8 5.39368e-07 1 0 0
179 2 28 -2 0 1 2 8 5.57675e-07 1 0 0
130 2 29 -3 0 1 2 8 6.03281e-08 1 0 0
180 2 29 -2 0 1 2 8 5.74111e-07 1 0 0
131 2 30 -3 0 1 2 8 6.21111e-08 1 0 0
132 2 31 -3 0 1 2 8 6.3663e-08 1 0 0
181 2 30 -2 0 1 2 8 5.90586e-07 1 0 0
182 2 31 -2 0 1 2 8 6.05603e-07 1 0 0
133 2 32 -3 0 1 2 8 6.4453e-08 1 0 0
134 2 33 -3 0 1 2 8 6.42367e-08 1 0 0
183 2 32 -2 0 1 2 8 6.13409e-07 1 0 0
184 2 33 -2 0 1 2 8 6.10896e-07 1 0 0
135 2 34 -3 0 1 2 8 6.3454e-08 1 0 0
185 2 34 -2 0 1 2 8 6.02667e-07 1 0 0
136 2 35 -3 0 1 2 8 6.27934e-08 1 0 0
137 2 36 -3 0 1 2 8 6.24809e-08 1 0 0
186 2 35 -2 0 1 2 8 5.96255e-07 1 0 0
187 2 36 -2 0 1 2 8 5.93903e-07 1 0 0
138 2 37 -3 0 1 2 8 6.22266e-08 1 0 0
139 2 38 -3 0 1 2 8 6.16735e-08 1 0 0
188 2 37 -2 0 1 2 8 5.92208e-07 1 0 0
189 2 38 -2 0 1 2 8 5.873e-07 1 0 0
140 2 39 -3 0 1 2 8 6.06751e-08 1 0 0
190 2 39 -2 0 1 2 8 5.77513e-07 1 0 0
141 2 40 -3 0 1 2 8 5.9333e-08 1 0 0
142 2 41 -3 0 1 2 8 5.80218e-08 1 0 0
191 2 40 -2 0 1 2 8 5.63618e-07 1 0 0
192 2 41 -2 0 1 2 8 5.49386e-07 1 0 0
143 2 42 -3 0 1 2 8 5.73486e-08 1 0 0
144 2 43 -3 0 1 2 8 5.7834e-08 1 0 0
193 2 42 -2 0 1 2 8 5.41484e-07 1 0 0
194 2 43 -2 0 1 2 8 5.45932e-07 1 0 0
145 2 44 -3 0 1 2 8 5.93972e-08 1 0 0
195 2 44 -2 0 1 2 8 5.62262e-07 1 0 0
146 2 45 -3 0 1 2 8 6.11383e-08 1 0 0
147 2 46 -3 0 1 2 8 6.19078e-08 1 0 0
196 2 45 -2 0 1 2 8 5.80828e-07 1 0 0
197 2 46 -2 0 1 2 8 5.89063e-07 1 0 0
148 2 47 -3 0 1 2 8 6.12652e-08 1 0 0
149 2 48 -3 0 1 2 8 5.9797e-08 1 0 0
198 2 47 -2 0 1 2 8 5.82298e-07 1 0 0
199 2 48 -2 0 1 2 8 5.67038e-07 1 0 0
150 2 49 -3 0 1 2 8 5.85392e-08 1 0 0
200 2 49 -2 0 1 2 8 5.54299e-07 1 0 0
201 2 0 -1 0 1 2 8 2.13287e-08 1 0 0
202 2 1 -1 0 1 2 8 4.52493e-08 1 0 0
203 2 2 -1 0 1 2 8 1.45279e-07 1 0 0
204 2 3 -1 0 1 2 8 3.94269e-07 1 0 0
205 2 4 -1 0 1 2 8 8.64038e-07 1 0 0
206 2 5 -1 0 1 2 8 1.54528e-06 1 0 0
207 2 6 -1 0 1 2 8 2.32285e-06 1 0 0
208 2 7 -1 0 1 2 8 3.05014e-06 1 0 0
209 2 8 -1 0 1 2 8 3.62531e-06 1 0 0
210 2 9 -1 0 1 2 8 4.01703e-06 1 0 0
211 2 10 -1 0 1 2 8 4.25262e-06 1 0 0
212 2 11 -1 0 1 2 8 4.38924e-06 1 0 0
213 2 12 -1 0 1 2 8 4.50815e-06 1 0 0
214 2 13 -1 0 1 2 8 4.6764e-06 1 0 0
215 2 14 -1 0 1 2 8 4.8591e-06 1 0 0
216 2 15 -1 0 1 2 8 4.9657e-06 1 0 0
217 2 16 -1 0 1 2 8 4.98799e-06 1 0 0
218 2 17 -1 0 1 2 8 5.00141e-06 1 0 0
219 2 18 -1 0 1 2 8 5.05192e-06 1 0 0
220 2 19 -1 0 1 2 8 5.10207e-06 1 0 0
221 2 20 -1 0 1 2 8 5.0784e-06 1 0 0
222 2 21 -1 0 1 2 8 4.95079e-06 1 0 0
223 2 22 -1 0 1 2 8 4.75512e-06 1 0 0
224 2 23 -1 0 1 2 8 4.55454e-06 1 0 0
225 2 24 -1 0 1 2 8 4.41705e-06 1 0 0
226 2 25 -1 0 1 2 8 4.40412e-06 1 0 0
227 2 26 -1 0 1 2 8 4.52076e-06 1 0 0
228 2 27 -1 0 1 2 8 4.69827e-06 1 0 0
229 2 28 -1 0 1 2 8 4.86024e-06 1 0 0
230 2 29 -1 0 1 2 8 4.99368e-06 1 0 0
231 2 30 -1 0 1 2 8 5.12946e-06 1 0 0
232 2 31 -1 0 1 2 8 5.26163e-06 1 0 0
233 2 32 -1 0 1 2 8 5.33284e-06 1 0 0
234 2 33 -1 0 1 2 8 5.30702e-06 1 0 0
235 2 34 -1 0 1 2 8 5.22781e-06 1 0 0
236 2 35 -1 0 1 2 8 5.17103e-06 1 0 0
237 2 36 -1 0 1 2 8 5.15691e-06 1 0 0
238 2 37 -1 0 1 2 8 5.14949e-06 1 0 0
239 2 38 -1 0 1 2 8 5.11106e-06 1 0 0
240 2 39 -1 0 1 2 8 5.02429e-06 1 0 0
241 2 40 -1 0 1 2 8 4.89297e-06 1 0 0
242 2 41 -1 0 1 2 8 4.75122e-06 1 0 0
243 2 42 -1 0 1 2 8 4.66661e-06 1 0 0
244 2 43 -1 0 1 2 8 4.70269e-06 1 0 0
245 2 44 -1 0 1 2 8 4.85887e-06 1 0 0
246 2 45 -1 0 1 2 8 5.04021e-06 1 0 0
247 2 46 -1 0 1 2 8 5.12078e-06 1 0 0
248 2 47 -1 0 1 2 8 5.05573e-06 1 0 0
249 2 48 -1 0 1 2 8 4.91104e-06 1 0 0
250 2 49 -1 0 1 2 8 4.79288e-06 1 0 0
251 2 0 0 0 1 2 8 1.14028e-07 1 0 0
252 2 1 0 0 1 2 8 2.61475e-07 1 0 0
301 2 0 1 0 1 2 8 5.10578e-07 1 0 0
302 2 1 1 0 1 2 8 1.2716e-06 1 0 0
253 2 2 0 0 1 2 8 9.19952e-07 1 0 0
254 2 3 0 0 1 2 8 2.68894e-06 1 0 0
303 2 2 1 0 1 2 8 4.94277e-06 1 0 0
304 2 3 1 0 1 2 8 1.57406e-05 1 0 0
255 2 4 0 0 1 2 8 6.23252e-06 1 0 0
305 2 4 1 0 1 2 8 3.90339e-05 1 0 0
256 2 5 0 0 1 2 8 1.15471e-05 1 0 0
257 2 6 0 0 1 2 8 1.76712e-05 1 0 0
306 2 5 1 0 1 2 8 7.5508e-05 1 0 0
307 2 6 1 0 1 2 8 0.000117888 1 0 0
258 2 7 0 0 1 2 8 2.34053e-05 1 0 0
259 2 8 0 0 1 2 8 2.79522e-05 1 0 0
308 2 7 1 0 1 2 8 0.000157478 1 0 0
309 2 8 1 0 1 2 8 0.000189033 1 0 0
260 2 9 0 0 1 2 8 3.107e-05 1 0 0
310 2 9 1 0 1 2 8 0.000210933 1 0 0
261 2 10 0 0 1 2 8 3.29847e-05 1 0 0
262 2 11 0 0 1 2 8 3.41095e-05 1 0 0
311 2 10 1 0 1 2 8 0.000224878 1 0 0
312 2 11 1 0 1 2 8 0.000233406 1 0 0
263 2 12 0 0 1 2 8 3.50701e-05 1 0 0
264 2 13 0 0 1 2 8 3.6478e-05 1 0 0
313 2 12 1 0 1 2 8 0.000240399 1 0 0
314 2 13 1 0 1 2 8 0.000250907 1 0 0
265 2 14 0 0 1 2 8 3.80032e-05 1 0 0
315 2 14 1 0 1 2 8 0.000262227 1 0 0
266 2 15 0 0 1 2 8 3.8791e-05 1 0 0
267 2 16 0 0 1 2 8 3.88268e-05 1 0 0
316 2 15 1 0 1 2 8 0.000267229 1 0 0
317 2 16 1 0 1 2 8 0.000266351 1 0 0
268 2 17 0 0 1 2 8 3.88717e-05 1 0 0
269 2 18 0 0 1 2 8 3.93459e-05 1 0 0
318 2 17 1 0 1 2 8 0.000266246 1 0 0
319 2 18 1 0 1 2 8 0.000270185 1 0 0
270 2 19 0 0 1 2 8 3.98823e-05 1 0 0
320 2 19 1 0 1 2 8 0.000275019 1 0 0
271 2 20 0 0 1 2 8 3.98051e-05 1 0 0
272 2 21 0 0 1 2 8 3.88489e-05 1 0 0
321 2 20 1 0 1 2 8 0.000275329 1 0 0
322 2 21 1 0 1 2 8 0.000269193 1 0 0
273 2 22 0 0 1 2 8 3.73178e-05 1 0 0
274 2 23 0 0 1 2 8 3.5683e-05 1 0 0
323 2 22 1 0 1 2 8 0.000258986 1 0 0
324 2 23 1 0 1 2 8 0.000247515 1 0 0
275 2 24 0 0 1 2 8 3.44875e-05 1 0 0
325 2 24 1 0 1 2 8 0.000238317 1 0 0
276 2 25 0 0 1 2 8 3.43504e-05 1 0 0
277 2 26 0 0 1 2 8 3.53767e-05 1 0 0
326 2 25 1 0 1 2 8 0.000237027 1 0 0
327 2 26 1 0 1 2 8 0.000244999 1 0 0
278 2 27 0 0 1 2 8 3.69077e-05 1 0 0
279 2 28 0 0 1 2 8 3.81874e-05 1 0 0
328 2 27 1 0 1 2 8 0.000256641 1 0 0
329 2 28 1 0 1 2 8 0.000265434 1 0 0
280 2 29 0 0 1 2 8 3.91172e-05 1 0 0
330 2 29 1 0 1 2 8 0.000270675 1 0 0
281 2 30 0 0 1 2 8 4.00859e-05 1 0 0
282 2 31 0 0 1 2 8 4.11241e-05 1 0 0
331 2 30 1 0 1 2 8 0.000276385 1 0 0
332 2 31 1 0 1 2 8 0.000283461 1 0 0
283 2 32 0 0 1 2 8 4.17148e-05 1 0 0
284 2 33 0 0 1 2 8 4.14831e-05 1 0 0
333 2 32 1 0 1 2 8 0.000287813 1 0 0
334 2 33 1 0 1 2 8 0.000286049 1 0 0
285 2 34 0 0 1 2 8 4.07986e-05 1 0 0
335 2 34 1 0 1 2 8 0.000280879 1 0 0
286 2 35 0 0 1 2 8 4.03492e-05 1 0 0
287 2 36 0 0 1 2 8 4.02963e-05 1 0 0
336 2 35 1 0 1 2 8 0.000277804 1 0 0
337 2 36 1 0 1 2 8 0.000277915 1 0 0
288 2 37 0 0 1 2 8 4.03042e-05 1 0 0
289 2 38 0 0 1 2 8 4.00487e-05 1 0 0
338 2 37 1 0 1 2 8 0.000278488 1 0 0
339 2 38 1 0 1 2 8 0.000277151 1 0 0
290 2 39 0 0 1 2 8 3.93681e-05 1 0 0
340 2 39 1 0 1 2 8 0.000272575 1 0 0
291 2 40 0 0 1 2 8 3.82555e-05 1 0 0
292 2 41 0 0 1 2 8 3.69818e-05 1 0 0
341 2 40 1 0 1 2 8 0.000264364 1 0 0
342 2 41 1 0 1 2 8 0.000254276 1 0 0
293 2 42 0 0 1 2 8 3.61686e-05 1 0 0
294 2 43 0 0 1 2 8 3.64185e-05 1 0 0
343 2 42 1 0 1 2 8 0.000247425 1 0 0
344 2 43 1 0 1 2 8 0.000248801 1 0 0
295 2 44 0 0 1 2 8 3.77615e-05 1 0 0
345 2 44 1 0 1 2 8 0.000258918 1 0 0
296 2 45 0 0 1 2 8 3.93539e-05 1 0 0
297 2 46 0 0 1 2 8 4.00604e-05 1 0 0
346 2 45 1 0 1 2 8 0.000271162 1 0 0
347 2 46 1 0 1 2 8 0.000276554 1 0 0
298 2 47 0 0 1 2 8 3.95001e-05 1 0 0
299 2 48 0 0 1 2 8 3.82737e-05 1 0 0
348 2 47 1 0 1 2 8 0.000272331 1 0 0
349 2 48 1 0 1 2 8 0.000263307 1 0 0
300 2 49 0 0 1 2 8 3.7287e-05 1 0 0
350 2 49 1 0 1 2 8 0.000256061 1 0 0
351 2 0 2 0 1 2 8 1.86694e-06 1 0 0
352 2 1 2 0 1 2 8 5.04524e-06 1 0 0
401 2 0 3 0 1 2 8 5.46019e-06 1 0 0
402 2 1 3 0 1 2 8 1.58709e-05 1 0 0
353 2 2 2 0 1 2 8 2.17431e-05 1 0 0
354 2 3 2 0 1 2 8 7.6113e-05 1 0 0
403 2 2 3 0 1 2 8 7.50912e-05 1 0 0
404 2 3 3 0 1 2 8 0.000289762 1 0 0
355 2 4 2 0 1 2 8 0.000204876 1 0 0
405 2 4 3 0 1 2 8 0.000848143 1 0 0
356 2 5 2 0 1 2 8 0.000418566 1 0 0
357 2 6 2 0 1 2 8 0.000667608 1 0 0
406 2 5 3 0 1 2 8 0.00187561 1 0 0
407 2 6 3 0 1 2 8 0.00307673 1 0 0
358 2 7 2 0 1 2 8 0.000898068 1 0 0
359 2 8 2 0 1 2 8 0.00108374 1 0 0
408 2 7 3 0 1 2 8 0.00414421 1 0 0
409 2 8 3 0 1 2 8 0.0050288 1 0 0
360 2 9 2 0 1 2 8 0.00121521 1 0 0
410 2 9 3 0 1 2 8 0.00568133 1 0 0
361 2 10 2 0 1 2 8 0.00130354 1 0 0
362 2 11 2 0 1 2 8 0.00136131 1 0 0
411 2 10 3 0 1 2 8 0.00615113 1 0 0
412 2 11 3 0 1 2 8 0.00649815 1 0 0
363 2 12 2 0 1 2 8 0.00140687 1 0 0
364 2 13 2 0 1 2 8 0.00147447 1 0 0
413 2 12 3 0 1 2 8 0.00675484 1 0 0
414 2 13 3 0 1 2 8 0.00711656 1 0 0
365 2 14 2 0 1 2 8 0.00154609 1 0 0
415 2 14 3 0 1 2 8 0.00749253 1 0 0
366 2 15 2 0 1 2 8 0.00157292 1 0 0
367 2 16 2 0 1 2 8 0.00156092 1 0 0
416 2 15 3 0 1 2 8 0.00761496 1 0 0
417 2 16 3 0 1 2 8 0.0075364 1 0 0
368 2 17 2 0 1 2 8 0.00155804 1 0 0
369 2 18 2 0 1 2 8 0.00158625 1 0 0
418 2 17 3 0 1 2 8 0.00752459 1 0 0
419 2 18 3 0 1 2 8 0.00769084 1 0 0
370 2 19 2 0 1 2 8 0.00162184 1 0 0
420 2 19 3 0 1 2 8 0.00789751 1 0 0
371 2 20 2 0 1 2 8 0.00162878 1 0 0
372 2 21 2 0 1 2 8 0.0015967 1 0 0
421 2 20 3 0 1 2 8 0.00795322 1 0 0
422 2 21 3 0 1 2 8 0.00782673 1 0 0
373 2 22 2 0 1 2 8 0.00154214 1 0 0
374 2 23 2 0 1 2 8 0.00147643 1 0 0
423 2 22 3 0 1 2 8 0.00761949 1 0 0
424 2 23 3 0 1 2 8 0.0073434 1 0 0
375 2 24 2 0 1 2 8 0.00141703 1 0 0
425 2 24 3 0 1 2 8 0.00703572 1 0 0
376 2 25 2 0 1 2 8 0.00140686 1 0 0
377 2 26 2 0 1 2 8 0.00145868 1 0 0
426 2 25 3 0 1 2 8 0.00697786 1 0 0
427 2 26 3 0 1 2 8 0.00724256 1 0 0
378 2 27 2 0 1 2 8 0.00153356 1 0 0
379 2 28 2 0 1 2 8 0.0015837 1 0 0
428 2 27 3 0 1 2 8 0.00761836 1 0 0
429 2 28 3 0 1 2 8 0.00784111 1 0 0
380 2 29 2 0 1 2 8 0.00160484 1 0 0
430 2 29 3 0 1 2 8 0.00787717 1 0 0
381 2 30 2 0 1 2 8 0.00163003 1 0 0
382 2 31 2 0 1 2 8 0.0016701 1 0 0
431 2 30 3 0 1 2 8 0.0079445 1 0 0
432 2 31 3 0 1 2 8 0.00811763 1 0 0
383 2 32 2 0 1 2 8 0.00169732 1 0 0
384 2 33 2 0 1 2 8 0.00168649 1 0 0
433 2 32 3 0 1 2 8 0.00825371 1 0 0
434 2 33 3 0 1 2 8 0.00820675 1 0 0
385 2 34 2 0 1 2 8 0.00165418 1 0 0
435 2 34 3 0 1 2 8 0.00805177 1 0 0
386 2 35 2 0 1 2 8 0.00163712 1 0 0
387 2 36 2 0 1 2 8 0.00164105 1 0 0
436 2 35 3 0 1 2 8 0.00798578 1 0 0
437 2 36 3 0 1 2 8 0.00802749 1 0 0
388 2 37 2 0 1 2 8 0.00164797 1 0 0
389 2 38 2 0 1 2 8 0.0016433 1 0 0
438 2 37 3 0 1 2 8 0.00808016 1 0 0
439 2 38 3 0 1 2 8 0.00807714 1 0 0
390 2 39 2 0 1 2 8 0.00161827 1 0 0
440 2 39 3 0 1 2 8 0.00797412 1 0 0
391 2 40 2 0 1 2 8 0.00156776 1 0 0
392 2 41 2 0 1 2 8 0.0015002 1 0 0
441 2 40 3 0 1 2 8 0.00773873 1 0 0
442 2 41 3 0 1 2 8 0.00737864 1 0 0
393 2 42 2 0 1 2 8 0.00145173 1 0 0
394 2 43 2 0 1 2 8 0.00145686 1 0 0
443 2 42 3 0 1 2 8 0.00710933 1 0 0
444 2 43 3 0 1 2 8 0.00711332 1 0 0
395 2 44 2 0 1 2 8 0.00152074 1 0 0
445 2 44 3 0 1 2 8 0.00742878 1 0 0
396 2 45 2 0 1 2 8 0.00159958 1 0 0
397 2 46 2 0 1 2 8 0.00163359 1 0 0
446 2 45 3 0 1 2 8 0.00782446 1 0 0
447 2 46 3 0 1 2 8 0.00798765 1 0 0
398 2 47 2 0 1 2 8 0.00160699 1 0 0
399 2 48 2 0 1 2 8 0.00155198 1 0 0
448 2 47 3 0 1 2 8 0.00785334 1 0 0
449 2 48 3 0 1 2 8 0.00759724 1 0 0
400 2 49 2 0 1 2 8 0.00150703 1 0 0
450 2 49 3 0 1 2 8 0.00737071 1 0 0
451 2 0 4 0 1 2 8 1.26478e-05 1 0 0
452 2 1 4 0 1 2 8 3.8968e-05 1 0 0
453 2 2 4 0 1 2 8 0.000198796 1 0 0
454 2 3 4 0 1 2 8 0.000822026 1 0 0
455 2 4 4 0 1 2 7 0.00252728 1 0 0
456 2 5 4 0 1 2 6 0.00620305 1 0 0
457 2 6 4 0 1 2 5 0.010192 1 0 0
506 1 5.49927 4.86176 0 1.0006 2 0 0.0152393 1 -0.00146425 0.00634469
507 1 6.49992 4.87174 0 1.02569 2 0 0.0202404 1 -0.0127034 -0.00368383
458 2 7 4 0 1 2 5 0.0135257 1 0 0
459 2 8 4 0 1 2 5 0.0164951 1 0 0
508 1 7.49456 4.87336 0 1.03193 2 0 0.0251621 1 0.013658 -0.00529266
460 2 9 4 0 1 2 5 0.0188107 1 0 0
510 1 8.50168 4.86794 0 1.01036 2 0 0.0297355 1 -0.00971881 -0.00312323
511 1 9.49774 4.8624 0 1.00136 2 0 0.0338969 1 0.0111457 0.00896614
461 2 10 4 0 1 2 5 0.0206276 1 0 0
462 2 11 4 0 1 2 5 0.0221132 1 0 0
512 1 10.5015 4.86596 0 1.01573 2 0 0.0377331 1 0.0018551 -0.00581625
513 1 11.5007 4.86519 0 1.01534 2 0 0.0412902 1 0.00352969 -0.00247583
463 2 12 4 0 1 2 5 0.0233281 1 0 0
464 2 13 4 0 1 2 5 0.0247092 1 0 0
514 1 12.5083 4.86534 0 1.01802 2 0 0.0445158 1 -0.00716471 0.00823594
465 2 14 4 0 1 2 5 0.0260177 1 0 0
515 1 13.5071 4.87462 0 1.02031 2 0 0.0474222 1 -0.000252853 -0.0137519
516 1 14.5068 4.86463 0 1.0096 2 0 0.0498162 1 -0.0197605 0.00791581
466 2 15 4 0 1 2 5 0.0265551 1 0 0
467 2 16 4 0 1 2 5 0.0263756 1 0 0
518 1 16.4986 4.86428 0 1.02515 2 0 0.0529798 1 0.00277278 -0.00561029
517 1 15.499 4.86274 0 1.02614 2 0 0.0515505 1 0.0159079 0.00976767
468 2 17 4 0 1 2 5 0.0263627 1 0 0
469 2 18 4 0 1 2 5 0.0271014 1 0 0
519 1 17.5016 4.86332 0 1.0239 2 0 0.0543344 1 -0.000706715 -0.00267973
470 2 19 4 0 1 2 5 0.027869 1 0 0
520 1 18.5006 4.86211 0 1.00577 2 0 0.0555646 1 0.00074201 0.00889331
521 1 19.4995 4.86525 0 1.00453 2 0 0.0564641 1 0.00384776 -0.00682452
471 2 20 4 0 1 2 5 0.0281063 1 0 0
472 2 21 4 0 1 2 5 0.0278288 1 0 0
523 1 21.5004 4.86577 0 1.02268 2 0 0.0570431 1 -0.00363965 -0.0100886
522 1 20.5007 4.86355 0 1.0139 2 0 0.0569045 1 -0.00148964 -0.00154148
473 2 22 4 0 1 2 5 0.0274571 1 0 0
474 2 23 4 0 1 2 5 0.0267902 1 0 0
524 1 22.4977 4.86598 0 1.01383 2 0 0.0569384 1 0.001394 -0.00652877
475 2 24 4 0 1 2 5 0.0258656 1 0 0
525 1 23.4977 4.86511 0 1.03669 2 0 0.0566073 1 -0.00130176 -0.00699604
526 1 24.5022 4.86281 0 1.04245 2 0 0.0564828 1 -0.0051791 -0.00596028
476 2 25 4 0 1 2 5 0.0256614 1 0 0
477 2 26 4 0 1 2 5 0.0264232 1 0 0
528 1 26.4996 4.86418 0 1.04147 2 0 0.0574167 1 -0.00228069 0.0004164
527 1 25.5018 4.86416 0 1.03798 2 0 0.0568224 1 -0.00809826 -0.00722409
478 2 27 4 0 1 2 5 0.0276567 1 0 0
479 2 28 4 0 1 2 5 0.028236 1 0 0
529 1 27.4977 4.86157 0 1.0019 2 0 0.0578631 1 0.00513231 0.0113344
480 2 29 4 0 1 2 5 0.0281278 1 0 0
531 1 29.5009 4.86802 0 1.01679 2 0 0.0580322 1 -0.00423198 -0.00808957
530 1 28.4986 4.86197 0 1.02091 2 0 0.0579963 1 -0.00208716 0.00594409
481 2 30 4 0 1 2 5 0.0280927 1 0 0
482 2 31 4 0 1 2 5 0.028571 1 0 0
533 1 31.5011 4.86514 0 1.004 2 0 0.0586704 1 0.00722294 -0.00534865
532 1 30.5047 4.86309 0 1.0182 2 0 0.058254 1 -0.0110875 -0.0042912
483 2 32 4 0 1 2 5 0.0289925 1 0 0
484 2 33 4 0 1 2 5 0.0288985 1 0 0
534 1 32.4993 4.8653 0 1.00171 2 0 0.0588788 1 0.00425107 -0.00419322
485 2 34 4 0 1 2 5 0.0284903 1 0 0
535 1 33.4993 4.86255 0 1.00275 2 0 0.0587724 1 0.00122314 0.00596747
536 1 34.4982 4.86263 0 1.0237 2 0 0.0585952 1 -0.00222469 0.0091279
486 2 35 4 0 1 2 5 0.0283963 1 0 0
487 2 36 4 0 1 2 5 0.0286144 1 0 0
538 1 36.4977 4.86662 0 1.01227 2 0 0.0590835 1 0.000239114 -0.0136792
537 1 35.4952 4.86095 0 1.0067 2 0 0.0587816 1 0.0116384 0.0138024
488 2 37 4 0 1 2 5 0.0288758 1 0 0
489 2 38 4 0 1 2 5 0.028915 1 0 0
539 1 37.503 4.86587 0 1.00174 2 0 0.0591799 1 -0.0049757 -0.00629466
490 2 39 4 0 1 2 5 0.0286595 1 0 0
541 1 39.5041 4.86494 0 1.00168 2 0 0.0585942 1 -0.00372777 0.0051745
540 1 38.5042 4.86681 0 1.01715 2 0 0.0590116 1 -0.000286655 0.000166504
491 2 40 4 0 1 2 5 0.0279778 1 0 0
492 2 41 4 0 1 2 5 0.0267376 1 0 0
542 1 40.5037 4.86648 0 1.01016 2 0 0.0580178 1 -0.00534884 -0.00166301
543 1 41.5001 4.86865 0 1.03252 2 0 0.0573834 1 0.00314723 -0.00420677
493 2 42 4 0 1 2 5 0.0257962 1 0 0
494 2 43 4 0 1 2 5 0.0257387 1 0 0
544 1 42.4978 4.86728 0 1.0319 2 0 0.057089 1 -0.00224042 -0.00466927
495 2 44 4 0 1 2 5 0.0267182 1 0 0
545 1 43.4958 4.86405 0 1.03659 2 0 0.0571683 1 0.00760993 0.00257086
546 1 44.498 4.86615 0 1.01001 2 0 0.0574673 1 -0.0042772 -0.00734183
496 2 45 4 0 1 2 5 0.0279714 1 0 0
497 2 46 4 0 1 2 5 0.0284237 1 0 0
548 1 46.4949 4.86135 0 1.00807 2 0 0.0578247 1 0.0141947 0.011814
547 1 45.4985 4.86517 0 1.00173 2 0 0.0577305 1 -0.00311801 -0.0134086
498 2 47 4 0 1 2 5 0.0280043 1 0 0
499 2 48 4 0 1 2 5 0.0272674 1 0 0
549 1 47.4955 4.86487 0 1.02093 2 0 0.0575156 1 0.00217118 0.00376807
500 2 49 4 0 1 2 5 0.0265401 1 0 0
550 1 48.5021 4.86556 0 1.02225 2 0 0.0571411 1 -0.00141583 -0.000100197
8501 1 49.5022 4.86292 0 1.06187 2 0 0.0569856 1 -0.00419292 0.00302801
501 2 0 5 0 1 2 8 2.34122e-05 1 0 0
502 2 1 5 0 1 2 8 7.51818e-05 1 0 0
551 2 0 6 0 1 2 8 3.584e-05 1 0 0
552 2 1 6 0 1 2 8 0.000118099 1 0 0
503 2 2 5 0 1 2 8 0.000402241 1 0 0
504 2 3 5 0 1 2 8 0.00175515 1 0 0
553 2 2 6 0 1 2 8 0.000644562 1 0 0
554 2 3 6 0 1 2 8 0.00285632 1 0 0
505 2 4 5 0 1 2 6 0.00581088 1 0 0
555 2 4 6 0 1 2 5 0.00937846 1 0 0
556 1 4.95395 5.69931 0 1.02426 2 0 0.0170456 1 -0.00062566 0.000910926
557 1 5.96907 5.74117 0 1.00456 2 0 0.0246493 1 0.00282711 0.00524212
558 1 6.99681 5.73716 0 1.00032 2 0 0.0314386 1 -0.00219921 0.00669442
509 1 8.00057 5.73896 0 1.00999 2 0 0.0380822 1 0.00446699 -0.00773616
560 1 9.0037 5.73071 0 1.01571 2 0 0.0443893 1 0.00082699 0.00480166
561 1 10.0037 5.72855 0 1.04128 2 0 0.0504626 1 -0.00411416 0.00707987
562 1 11.01 5.73329 0 1.02468 2 0 0.056113 1 -0.00571243 -0.000425316
563 1 12.007 5.73134 0 1.00884 2 0 0.0612748 1 0.0048689 -6.84575e-05
565 1 13.0064 5.737 0 1.01555 2 0 0.0660017 1 -0.00285061 0.00295311
566 1 14.0073 5.7347 0 1.01485 2 0 0.0701122 1 -0.000424097 0.00837552
567 1 15.0047 5.73267 0 1.00349 2 0 0.0734359 1 0.00408371 -5.69237e-05
568 1 16.0041 5.72955 0 1.02492 2 0 0.0761808 1 -0.00704844 0.00256583
569 1 18.002 5.72709 0 1.01386 2 0 0.0804567 1 0.000184645 0.00242749
618 1 17.0026 5.72475 0 1.00786 2 0 0.0785129 1 0.000210567 0.0125345
570 1 19.0033 5.72968 0 1.00562 2 0 0.0820297 1 -0.00919197 -0.00311642
571 1 20.0021 5.72749 0 1.00943 2 0 0.0831953 1 -0.000601076 0.00202449
572 1 20.9998 5.72711 0 1.02492 2 0 0.0840037 1 -0.00316935 0.0079153
573 1 21.9955 5.73177 0 1.00977 2 0 0.0842752 1 0.00877986 -0.00500573
574 1 22.9948 5.72797 0 1.00488 2 0 0.0841424 1 0.00686196 0.00246979
575 1 24.0006 5.72401 0 1.01237 2 0 0.0840287 1 -0.00370415 0.00797262
576 1 24.9974 5.72513 0 1.01087 2 0 0.0844007 1 -4.38694e-05 0.00614382
577 1 25.9946 5.72835 0 1.01133 2 0 0.0850932 1 0.00772028 -0.00353019
579 1 26.9925 5.73088 0 1.01129 2 0 0.085543 1 0.0075717 -0.00923485
580 1 27.9942 5.72824 0 1.02117 2 0 0.0857167 1 -0.00814468 -0.00590151
581 1 28.9913 5.72815 0 1.01861 2 0 0.0856413 1 0.00950885 -0.00262118
632 1 30.0067 5.72555 0 1.0167 2 0 0.085631 1 -0.010302 0.00952303
582 1 31.0024 5.72658 0 1.0143 2 0 0.0861168 1 0.0105137 0.00850144
583 1 32.004 5.73182 0 1.0088 2 0 0.0866315 1 -0.0049546 -0.00517839
584 1 33.0024 5.72755 0 1.00514 2 0 0.0866921 1 0.000206201 0.00173145
585 1 33.9998 5.72916 0 1.02197 2 0 0.0865082 1 0.00641715 -0.00596781
586 1 34.9986 5.72814 0 1.02669 2 0 0.0866387 1 0.00180438 0.00159507
587 1 35.9993 5.72884 0 1.01702 2 0 0.0871297 1 -0.00686882 -0.00407422
588 1 36.9974 5.72756 0 1.01798 2 0 0.0873495 1 0.00802838 -0.000272297
589 1 37.9999 5.72875 0 1.01656 2 0 0.0871198 1 0.0018843 -0.00239445
590 1 39.0047 5.73553 0 1.01208 2 0 0.0867082 1 0.00175995 -0.0117864
591 1 40.008 5.73228 0 1.01334 2 0 0.0863435 1 -0.0162237 0.000587112
592 1 41.002 5.73415 0 1.02633 2 0 0.086106 1 0.00225556 0.00246873
594 1 42.9979 5.73014 0 1.01497 2 0 0.0854731 1 -0.00683816 0.00634998
593 1 41.9979 5.73482 0 1.02837 2 0 0.0858031 1 0.00963458 0.000854531
595 1 43.9936 5.72975 0 1.01694 2 0 0.0851728 1 0.00384809 -0.00787894
596 1 45 5.7251 0 1.01116 2 0 0.0849796 1 0.000318811 0.0114037
597 1 45.9983 5.72757 0 1.01212 2 0 0.0854544 1 0.00377015 0.00810241
598 1 46.9976 5.73569 0 1.00861 2 0 0.0850579 1 0.00272472 -0.00388011
599 1 47.9979 5.72829 0 1.02545 2 0 0.0847951 1 -0.000326048 0.00201778
600 1 49.0072 5.72775 0 1.00476 2 0 0.0846955 1 0.00206286 -0.0066582
601 2 0 7 0 1 2 8 4.77014e-05 1 0 0
602 2 1 7 0 1 2 8 0.000159697 1 0 0
651 2 0 8 0 1 2 8 5.75576e-05 1 0 0
652 2 1 8 0 1 2 8 0.000194753 1 0 0
603 2 2 7 0 1 2 8 0.00088156 1 0 0
604 2 3 7 0 1 2 8 0.00395444 1 0 0
653 2 2 8 0 1 2 8 0.00108673 1 0 0
654 2 3 8 0 1 2 8 0.00498721 1 0 0
605 2 4 7 0 1 2 5 0.0128464 1 0 0
655 2 4 8 0 1 2 5 0.016151 1 0 0
656 1 4.90912 7.48445 0 1.01253 2 0 0.0245677 1 0 -5e-05
606 1 5.39944 6.60827 0 1.01839 2 0 0.0262757 1 0 -5e-05
607 1 6.4507 6.61797 0 1.01626 2 0 0.0356142 1 0 -5e-05
657 1 5.93582 7.48284 0 1.02523 2 0 0.0369819 1 0 -5e-05
608 1 7.50033 6.59971 0 1.01581 2 0 0.044431 1 -0.00322238 0.00976823
609 1 7.99917 7.46817 0 1.00447 2 0 0.0590457 1 -0.00382958 -0.00638797
658 1 6.98082 7.46816 0 1.00499 2 0 0.0483646 1 -0.00436308 -0.00751185
559 1 8.50559 6.6032 0 1.01669 2 0 0.0529197 1 -0.00400959 -0.00682612
610 1 9.51003 6.5982 0 1.00382 2 0 0.0611265 1 -0.00316708 -0.0100564
661 1 9.01278 7.46034 0 1.00906 2 0 0.0694192 1 -0.00199919 0.0052593
612 1 10.0094 7.46332 0 1.00002 2 0 0.0794539 1 -0.00317597 0.00185408
611 1 10.5067 6.59381 0 1.00368 2 0 0.0690349 1 0.00200153 0.00521122
564 1 11.5058 6.60214 0 1.01095 2 0 0.0763604 1 0.00105646 -0.00363476
613 1 11.0038 7.46613 0 1.00877 2 0 0.0891208 1 0.00886583 0.000192723
614 1 12.5062 6.60646 0 1.01882 2 0 0.0830857 1 -0.00257497 -0.0107714
665 1 13.0049 7.46813 0 1.00809 2 0 0.106146 1 -0.00290363 0.000764534
664 1 12.0027 7.4684 0 1.0022 2 0 0.0981349 1 0.0016529 0.00539402
615 1 13.5068 6.60148 0 1.00601 2 0 0.0890279 1 0.000356228 0.00148558
616 1 14.5065 6.60094 0 1.00878 2 0 0.0939367 1 -0.0014637 0.00030184
666 1 14.0009 7.47061 0 0.997531 2 0 0.11288 1 0.0130762 -0.00904974
667 1 15.0017 7.47068 0 1.00922 2 0 0.118424 1 0.00199755 -0.00502273
617 1 15.5054 6.60152 0 1.01132 2 0 0.098057 1 -0.00333395 -7.97115e-06
668 1 16.0044 7.46947 0 1.01232 2 0 0.12309 1 -0.00623181 5.81021e-05
619 1 16.5027 6.59418 0 1.00791 2 0 0.10152 1 -0.00277986 -0.0101967
669 1 17.5014 6.59229 0 1.0115 2 0 0.104458 1 0.000958701 -0.0127155
719 1 17.0011 7.45218 0 1.0104 2 0 0.127156 1 0.000627045 0.0133534
720 1 17.9995 7.4564 0 1.00384 2 0 0.130315 1 0.00918944 -0.0086054
620 1 18.4997 6.59275 0 1.00047 2 0 0.106893 1 0.00575669 -0.000606951
621 1 19.5031 6.59088 0 1.01086 2 0 0.108944 1 0.00488502 0.00450956
670 1 19.0069 7.45394 0 1.01205 2 0 0.133035 1 -0.00374381 -0.00199796
671 1 20.0039 7.46152 0 1.01101 2 0 0.136067 1 0.00285274 -0.00483542
622 1 20.5025 6.59267 0 1.02282 2 0 0.110653 1 -0.00722646 0.00390355
623 1 21.4989 6.59717 0 1.01715 2 0 0.111643 1 0.00346914 0.00161013
672 1 21.0009 7.46412 0 1.01032 2 0 0.138457 0.999998 0.00370434 -0.00194309
673 1 22.0006 7.46092 0 1.00705 2 0 0.139445 1 -0.0010356 -0.0101735
624 1 22.4987 6.59236 0 1.00933 2 0 0.111568 1 -0.00589645 0.000807342
674 1 22.9991 7.45125 0 1.01197 2 1 0.138217 0.999999 0.000293879 0.00159132
625 1 23.5021 6.58816 0 1.01358 2 0 0.11079 1 -0.0139908 0.00341173
626 1 24.4953 6.5919 0 1.01095 2 0 0.110418 1 0.0087851 -0.00175731
675 1 23.9949 7.45752 0 1.00974 2 0 0.136154 0.999828 0.00624086 0.00140619
676 1 24.9936 7.45673 0 1.01754 2 0 0.137376 0.999918 -0.00926544 -0.00902123
578 1 26.4928 6.59204 0 1.0136 2 0 0.113184 1 -0.00383838 0.00879918
628 1 25.9901 7.46153 0 1.00647 2 0 0.140262 0.999997 0.008866 -0.00331496
627 1 25.4933 6.58872 0 1.0116 2 0 0.111935 1 0.00273931 0.0145184
629 1 27.4921 6.59252 0 1.00585 2 0 0.113739 1 0.00490308 -0.00170024
679 1 27.9962 7.45357 0 1.01276 2 0 0.142703 1 -0.00431357 0.00513677
678 1 26.993 7.45546 0 1.01987 2 0 0.141317 1 0.00103614 0.00552193
630 1 28.4916 6.59095 0 1.00031 2 0 0.113661 1 0.00720518 0.00311708
631 1 29.4993 6.58673 0 1.01679 2 0 0.112948 1 0.00503929 -0.00341573
680 1 29.0049 7.45147 0 1.0041 2 0 0.142029 0.999981 -0.0107472 0.00371856
681 1 30.0007 7.45109 0 1.0067 2 0 0.141202 0.999885 0.00647684 -0.0115845
682 1 30.5042 6.59014 0 1.0233 2 0 0.113247 1 -0.00114589 -0.000545335
633 1 31.5042 6.5951 0 1.00197 2 0 0.114775 1 0.00073618 -0.0012494
732 1 30.9999 7.45495 0 1.02086 2 0 0.142822 0.999994 0.00149279 0.0110389
683 1 32.0103 7.45835 0 1.00602 2 0 0.145315 1 0.00131221 -0.00943277
684 1 32.5077 6.59293 0 1.01173 2 0 0.115515 1 -0.00212302 0.00644765
734 1 33.0128 7.46119 0 1.01306 2 0 0.145066 0.999987 -0.00648086 -0.00116136
634 1 33.5061 6.59448 0 1.00318 2 0 0.114894 1 -0.00227287 0.00161088
635 1 34.5037 6.60115 0 1.01335 2 0 0.114271 1 0.00109029 -0.00349336
685 1 34.0092 7.47356 0 1.01182 2 0 0.143083 0.999998 -0.00416829 0.00013518
686 1 35.0035 7.46502 0 1.01566 2 0 0.143509 1 0.00804455 -0.00290381
636 1 35.503 6.59293 0 1.01343 2 0 0.11526 1 -0.00832508 0.00619011