ITEM: TIMESTEP
48500
ITEM: NUMBER OF ATOMS
15950
ITEM: BOX BOUNDS pp pp pp
0.0000000000000000e+00 1.0000000000000000e+02
-5.0000000000000000e+00 2.0000000000000000e+02
-5.0000000000000000e-01 5.0000000000000000e-01
ITEM: ATOMS id type x y z c_rho c_phase c_nbond c_temp f_rheo_chi_chi fx fy
1 2 0 -5 0 1 2 8 6.8612e-08 1 0 0
2 2 1 -5 0 1 2 8 8.69426e-08 1 0 0
51 2 0 -4 0 1 2 8 2.69864e-07 1 0 0
52 2 1 -4 0 1 2 8 3.47367e-07 1 0 0
3 2 2 -5 0 1 2 8 1.47055e-07 1 0 0
4 2 3 -5 0 1 2 8 2.54575e-07 1 0 0
53 2 2 -4 0 1 2 8 6.02801e-07 1 0 0
54 2 3 -4 0 1 2 8 1.05955e-06 1 0 0
5 2 4 -5 0 1 2 7 4.22973e-07 1 0 0
55 2 4 -4 0 1 2 8 1.73056e-06 1 0 0
6 2 5 -5 0 1 2 6 6.76398e-07 1 0 0
7 2 6 -5 0 1 2 5 9.56847e-07 1 0 0
56 2 5 -4 0 1 2 8 2.59332e-06 1 0 0
57 2 6 -4 0 1 2 8 3.56042e-06 1 0 0
8 2 7 -5 0 1 2 5 1.21803e-06 1 0 0
9 2 8 -5 0 1 2 5 1.45588e-06 1 0 0
58 2 7 -4 0 1 2 8 4.53242e-06 1 0 0
59 2 8 -4 0 1 2 8 5.42838e-06 1 0 0
10 2 9 -5 0 1 2 5 1.65989e-06 1 0 0
60 2 9 -4 0 1 2 8 6.19925e-06 1 0 0
11 2 10 -5 0 1 2 5 1.82736e-06 1 0 0
12 2 11 -5 0 1 2 5 1.96282e-06 1 0 0
61 2 10 -4 0 1 2 8 6.83454e-06 1 0 0
62 2 11 -4 0 1 2 8 7.35171e-06 1 0 0
13 2 12 -5 0 1 2 5 2.07336e-06 1 0 0
14 2 13 -5 0 1 2 5 2.16424e-06 1 0 0
63 2 12 -4 0 1 2 8 7.77719e-06 1 0 0
64 2 13 -4 0 1 2 8 8.12957e-06 1 0 0
15 2 14 -5 0 1 2 5 2.23752e-06 1 0 0
65 2 14 -4 0 1 2 8 8.41471e-06 1 0 0
16 2 15 -5 0 1 2 5 2.29406e-06 1 0 0
17 2 16 -5 0 1 2 5 2.33616e-06 1 0 0
66 2 15 -4 0 1 2 8 8.63486e-06 1 0 0
67 2 16 -4 0 1 2 8 8.79956e-06 1 0 0
18 2 17 -5 0 1 2 5 2.36726e-06 1 0 0
19 2 18 -5 0 1 2 5 2.38906e-06 1 0 0
68 2 17 -4 0 1 2 8 8.92414e-06 1 0 0
69 2 18 -4 0 1 2 8 9.01651e-06 1 0 0
20 2 19 -5 0 1 2 5 2.39963e-06 1 0 0
70 2 19 -4 0 1 2 8 9.06878e-06 1 0 0
21 2 20 -5 0 1 2 5 2.39526e-06 1 0 0
22 2 21 -5 0 1 2 5 2.37478e-06 1 0 0
71 2 20 -4 0 1 2 8 9.06486e-06 1 0 0
72 2 21 -4 0 1 2 8 8.99839e-06 1 0 0
23 2 22 -5 0 1 2 5 2.34298e-06 1 0 0
24 2 23 -5 0 1 2 5 2.31035e-06 1 0 0
73 2 22 -4 0 1 2 8 8.88625e-06 1 0 0
74 2 23 -4 0 1 2 8 8.76825e-06 1 0 0
25 2 24 -5 0 1 2 5 2.28947e-06 1 0 0
75 2 24 -4 0 1 2 8 8.69296e-06 1 0 0
26 2 25 -5 0 1 2 5 2.28949e-06 1 0 0
27 2 26 -5 0 1 2 5 2.31203e-06 1 0 0
76 2 25 -4 0 1 2 8 8.69626e-06 1 0 0
77 2 26 -4 0 1 2 8 8.78429e-06 1 0 0
28 2 27 -5 0 1 2 5 2.35117e-06 1 0 0
29 2 28 -5 0 1 2 5 2.39749e-06 1 0 0
78 2 27 -4 0 1 2 8 8.93309e-06 1 0 0
79 2 28 -4 0 1 2 8 9.1056e-06 1 0 0
30 2 29 -5 0 1 2 5 2.44272e-06 1 0 0
80 2 29 -4 0 1 2 8 9.27108e-06 1 0 0
31 2 30 -5 0 1 2 5 2.48155e-06 1 0 0
32 2 31 -5 0 1 2 5 2.51075e-06 1 0 0
81 2 30 -4 0 1 2 8 9.41178e-06 1 0 0
82 2 31 -4 0 1 2 8 9.51749e-06 1 0 0
33 2 32 -5 0 1 2 5 2.52834e-06 1 0 0
34 2 33 -5 0 1 2 5 2.53441e-06 1 0 0
83 2 32 -4 0 1 2 8 9.58129e-06 1 0 0
84 2 33 -4 0 1 2 8 9.60314e-06 1 0 0
35 2 34 -5 0 1 2 5 2.53168e-06 1 0 0
85 2 34 -4 0 1 2 8 9.59335e-06 1 0 0
36 2 35 -5 0 1 2 5 2.5239e-06 1 0 0
37 2 36 -5 0 1 2 5 2.513e-06 1 0 0
86 2 35 -4 0 1 2 8 9.5667e-06 1 0 0
87 2 36 -4 0 1 2 8 9.53052e-06 1 0 0
38 2 37 -5 0 1 2 5 2.49767e-06 1 0 0
39 2 38 -5 0 1 2 5 2.47488e-06 1 0 0
88 2 37 -4 0 1 2 8 9.47863e-06 1 0 0
89 2 38 -4 0 1 2 8 9.39764e-06 1 0 0
40 2 39 -5 0 1 2 5 2.44347e-06 1 0 0
90 2 39 -4 0 1 2 8 9.28126e-06 1 0 0
41 2 40 -5 0 1 2 5 2.40715e-06 1 0 0
42 2 41 -5 0 1 2 5 2.37463e-06 1 0 0
91 2 40 -4 0 1 2 8 9.14268e-06 1 0 0
92 2 41 -4 0 1 2 8 9.01595e-06 1 0 0
43 2 42 -5 0 1 2 5 2.35599e-06 1 0 0
44 2 43 -5 0 1 2 5 2.35675e-06 1 0 0
93 2 42 -4 0 1 2 8 8.94185e-06 1 0 0
94 2 43 -4 0 1 2 8 8.94374e-06 1 0 0
45 2 44 -5 0 1 2 5 2.37353e-06 1 0 0
95 2 44 -4 0 1 2 8 9.0092e-06 1 0 0
46 2 45 -5 0 1 2 5 2.39513e-06 1 0 0
47 2 46 -5 0 1 2 5 2.40922e-06 1 0 0
96 2 45 -4 0 1 2 8 9.09382e-06 1 0 0
97 2 46 -4 0 1 2 8 9.14813e-06 1 0 0
48 2 47 -5 0 1 2 5 2.41001e-06 1 0 0
49 2 48 -5 0 1 2 5 2.40142e-06 1 0 0
98 2 47 -4 0 1 2 8 9.1492e-06 1 0 0
99 2 48 -4 0 1 2 8 9.1132e-06 1 0 0
50 2 49 -5 0 1 2 5 2.39343e-06 1 0 0
100 2 49 -4 0 1 2 8 9.08054e-06 1 0 0
101 2 0 -3 0 1 2 8 9.78155e-07 1 0 0
102 2 1 -3 0 1 2 8 1.28078e-06 1 0 0
151 2 0 -2 0 1 2 8 3.24331e-06 1 0 0
152 2 1 -2 0 1 2 8 4.3242e-06 1 0 0
103 2 2 -3 0 1 2 8 2.28584e-06 1 0 0
104 2 3 -3 0 1 2 8 4.10353e-06 1 0 0
153 2 2 -2 0 1 2 8 7.94634e-06 1 0 0
154 2 3 -2 0 1 2 8 1.4594e-05 1 0 0
105 2 4 -3 0 1 2 8 6.78709e-06 1 0 0
155 2 4 -2 0 1 2 8 2.45395e-05 1 0 0
106 2 5 -3 0 1 2 8 1.02185e-05 1 0 0
107 2 6 -3 0 1 2 8 1.40892e-05 1 0 0
156 2 5 -2 0 1 2 8 3.73632e-05 1 0 0
157 2 6 -2 0 1 2 8 5.18727e-05 1 0 0
108 2 7 -3 0 1 2 8 1.80005e-05 1 0 0
109 2 8 -3 0 1 2 8 2.16073e-05 1 0 0
158 2 7 -2 0 1 2 8 6.65279e-05 1 0 0
159 2 8 -2 0 1 2 8 8.00274e-05 1 0 0
110 2 9 -3 0 1 2 8 2.47121e-05 1 0 0
160 2 9 -2 0 1 2 8 9.16591e-05 1 0 0
111 2 10 -3 0 1 2 8 2.72784e-05 1 0 0
112 2 11 -3 0 1 2 8 2.93807e-05 1 0 0
161 2 10 -2 0 1 2 8 0.000101315 1 0 0
162 2 11 -2 0 1 2 8 0.000109287 1 0 0
113 2 12 -3 0 1 2 8 3.1126e-05 1 0 0
114 2 13 -3 0 1 2 8 3.25843e-05 1 0 0
163 2 12 -2 0 1 2 8 0.000115975 1 0 0
164 2 13 -2 0 1 2 8 0.00012162 1 0 0
115 2 14 -3 0 1 2 8 3.37702e-05 1 0 0
165 2 14 -2 0 1 2 8 0.00012624 1 0 0
116 2 15 -3 0 1 2 8 3.4686e-05 1 0 0
117 2 16 -3 0 1 2 8 3.53739e-05 1 0 0
166 2 15 -2 0 1 2 8 0.000129814 1 0 0
167 2 16 -2 0 1 2 8 0.000132514 1 0 0
118 2 17 -3 0 1 2 8 3.59067e-05 1 0 0
119 2 18 -3 0 1 2 8 3.63237e-05 1 0 0
168 2 17 -2 0 1 2 8 0.000134658 1 0 0
169 2 18 -2 0 1 2 8 0.000136422 1 0 0
120 2 19 -3 0 1 2 8 3.65893e-05 1 0 0
170 2 19 -2 0 1 2 8 0.000137657 1 0 0
121 2 20 -3 0 1 2 8 3.66283e-05 1 0 0
122 2 21 -3 0 1 2 8 3.64059e-05 1 0 0
171 2 20 -2 0 1 2 8 0.000138041 1 0 0
172 2 21 -2 0 1 2 8 0.000137413 1 0 0
123 2 22 -3 0 1 2 8 3.5986e-05 1 0 0
124 2 23 -3 0 1 2 8 3.55301e-05 1 0 0
173 2 22 -2 0 1 2 8 0.000135997 1 0 0
174 2 23 -2 0 1 2 8 0.000134396 1 0 0
125 2 24 -3 0 1 2 8 3.52402e-05 1 0 0
175 2 24 -2 0 1 2 8 0.000133386 1 0 0
126 2 25 -3 0 1 2 8 3.52682e-05 1 0 0
127 2 26 -3 0 1 2 8 3.56392e-05 1 0 0
176 2 25 -2 0 1 2 8 0.000133564 1 0 0
177 2 26 -2 0 1 2 8 0.000135029 1 0 0
128 2 27 -3 0 1 2 8 3.62481e-05 1 0 0
129 2 28 -3 0 1 2 8 3.69368e-05 1 0 0
178 2 27 -2 0 1 2 8 0.000137351 1 0 0
179 2 28 -2 0 1 2 8 0.000139905 1 0 0
130 2 29 -3 0 1 2 8 3.75833e-05 1 0 0
180 2 29 -2 0 1 2 8 0.000142243 1 0 0
131 2 30 -3 0 1 2 8 3.81274e-05 1 0 0
132 2 31 -3 0 1 2 8 3.85373e-05 1 0 0
181 2 30 -2 0 1 2 8 0.000144192 1 0 0
182 2 31 -2 0 1 2 8 0.000145672 1 0 0
133 2 32 -3 0 1 2 8 3.87859e-05 1 0 0
134 2 33 -3 0 1 2 8 3.88699e-05 1 0 0
183 2 32 -2 0 1 2 8 0.000146582 1 0 0
184 2 33 -2 0 1 2 8 0.000146891 1 0 0
135 2 34 -3 0 1 2 8 3.88317e-05 1 0 0
185 2 34 -2 0 1 2 8 0.00014676 1 0 0
136 2 35 -3 0 1 2 8 3.87352e-05 1 0 0
137 2 36 -3 0 1 2 8 3.86113e-05 1 0 0
186 2 35 -2 0 1 2 8 0.000146447 1 0 0
187 2 36 -2 0 1 2 8 0.000146074 1 0 0
138 2 37 -3 0 1 2 8 3.84298e-05 1 0 0
139 2 38 -3 0 1 2 8 3.81273e-05 1 0 0
188 2 37 -2 0 1 2 8 0.00014551 1 0 0
189 2 38 -2 0 1 2 8 0.000144481 1 0 0
140 2 39 -3 0 1 2 8 3.76692e-05 1 0 0
190 2 39 -2 0 1 2 8 0.000142825 1 0 0
141 2 40 -3 0 1 2 8 3.7105e-05 1 0 0
142 2 41 -3 0 1 2 8 3.65768e-05 1 0 0
191 2 40 -2 0 1 2 8 0.000140706 1 0 0
192 2 41 -2 0 1 2 8 0.000138673 1 0 0
143 2 42 -3 0 1 2 8 3.62622e-05 1 0 0
144 2 43 -3 0 1 2 8 3.62678e-05 1 0 0
193 2 42 -2 0 1 2 8 0.000137438 1 0 0
194 2 43 -2 0 1 2 8 0.00013745 1 0 0
145 2 44 -3 0 1 2 8 3.6545e-05 1 0 0
195 2 44 -2 0 1 2 8 0.000138536 1 0 0
146 2 45 -3 0 1 2 8 3.69032e-05 1 0 0
147 2 46 -3 0 1 2 8 3.71277e-05 1 0 0
196 2 45 -2 0 1 2 8 0.000139937 1 0 0
197 2 46 -2 0 1 2 8 0.000140792 1 0 0
148 2 47 -3 0 1 2 8 3.71203e-05 1 0 0
149 2 48 -3 0 1 2 8 3.69543e-05 1 0 0
198 2 47 -2 0 1 2 8 0.000140713 1 0 0
199 2 48 -2 0 1 2 8 0.000140007 1 0 0
150 2 49 -3 0 1 2 8 3.68072e-05 1 0 0
200 2 49 -2 0 1 2 8 0.000139394 1 0 0
201 2 0 -1 0 1 2 8 9.76213e-06 1 0 0
202 2 1 -1 0 1 2 8 1.32585e-05 1 0 0
203 2 2 -1 0 1 2 8 2.50884e-05 1 0 0
204 2 3 -1 0 1 2 8 4.71532e-05 1 0 0
205 2 4 -1 0 1 2 8 8.06573e-05 1 0 0
206 2 5 -1 0 1 2 8 0.000124245 1 0 0
207 2 6 -1 0 1 2 8 0.00017367 1 0 0
208 2 7 -1 0 1 2 8 0.000223499 1 0 0
209 2 8 -1 0 1 2 8 0.000269332 1 0 0
210 2 9 -1 0 1 2 8 0.000308907 1 0 0
211 2 10 -1 0 1 2 8 0.000341972 1 0 0
212 2 11 -1 0 1 2 8 0.000369547 1 0 0
213 2 12 -1 0 1 2 8 0.000392959 1 0 0
214 2 13 -1 0 1 2 8 0.000412953 1 0 0
215 2 14 -1 0 1 2 8 0.000429448 1 0 0
216 2 15 -1 0 1 2 8 0.000442266 1 0 0
217 2 16 -1 0 1 2 8 0.000452038 1 0 0
218 2 17 -1 0 1 2 8 0.000460009 1 0 0
219 2 18 -1 0 1 2 8 0.000466869 1 0 0
220 2 19 -1 0 1 2 8 0.000472047 1 0 0
221 2 20 -1 0 1 2 8 0.00047432 1 0 0
222 2 21 -1 0 1 2 8 0.000473054 1 0 0
223 2 22 -1 0 1 2 8 0.000468964 1 0 0
224 2 23 -1 0 1 2 8 0.000464069 1 0 0
225 2 24 -1 0 1 2 8 0.000461034 1 0 0
226 2 25 -1 0 1 2 8 0.000461981 1 0 0
227 2 26 -1 0 1 2 8 0.000467273 1 0 0
228 2 27 -1 0 1 2 8 0.000475343 1 0 0
229 2 28 -1 0 1 2 8 0.000483931 1 0 0
230 2 29 -1 0 1 2 8 0.000491573 1 0 0
231 2 30 -1 0 1 2 8 0.000497886 1 0 0
232 2 31 -1 0 1 2 8 0.000502763 1 0 0
233 2 32 -1 0 1 2 8 0.000505836 1 0 0
234 2 33 -1 0 1 2 8 0.000506918 1 0 0
235 2 34 -1 0 1 2 8 0.000506553 1 0 0
236 2 35 -1 0 1 2 8 0.000505693 1 0 0
237 2 36 -1 0 1 2 8 0.000504783 1 0 0
238 2 37 -1 0 1 2 8 0.000503305 1 0 0
239 2 38 -1 0 1 2 8 0.000500226 1 0 0
240 2 39 -1 0 1 2 8 0.000494882 1 0 0
241 2 40 -1 0 1 2 8 0.000487756 1 0 0
242 2 41 -1 0 1 2 8 0.000480725 1 0 0
243 2 42 -1 0 1 2 8 0.000476362 1 0 0
244 2 43 -1 0 1 2 8 0.000476371 1 0 0
245 2 44 -1 0 1 2 8 0.000480201 1 0 0
246 2 45 -1 0 1 2 8 0.000485129 1 0 0
247 2 46 -1 0 1 2 8 0.000488045 1 0 0
248 2 47 -1 0 1 2 8 0.000487579 1 0 0
249 2 48 -1 0 1 2 8 0.000484884 1 0 0
250 2 49 -1 0 1 2 8 0.000482594 1 0 0
251 2 0 0 0 1 2 8 2.6472e-05 1 0 0
252 2 1 0 0 1 2 8 3.66071e-05 1 0 0
301 2 0 1 0 1 2 8 6.42455e-05 1 0 0
302 2 1 1 0 1 2 8 9.03063e-05 1 0 0
253 2 2 0 0 1 2 8 7.12261e-05 1 0 0
254 2 3 0 0 1 2 8 0.000136883 1 0 0
303 2 2 1 0 1 2 8 0.000179999 1 0 0
304 2 3 1 0 1 2 8 0.000352684 1 0 0
255 2 4 0 0 1 2 8 0.000238167 1 0 0
305 2 4 1 0 1 2 8 0.000623365 1 0 0
256 2 5 0 0 1 2 8 0.000371149 1 0 0
257 2 6 0 0 1 2 8 0.000522012 1 0 0
306 2 5 1 0 1 2 8 0.000982183 1 0 0
307 2 6 1 0 1 2 8 0.00138818 1 0 0
258 2 7 0 0 1 2 8 0.000673486 1 0 0
259 2 8 0 0 1 2 8 0.000812554 1 0 0
308 2 7 1 0 1 2 8 0.00179242 1 0 0
309 2 8 1 0 1 2 8 0.00216265 1 0 0
260 2 9 0 0 1 2 8 0.000933106 1 0 0
310 2 9 1 0 1 2 8 0.0024858 1 0 0
261 2 10 0 0 1 2 8 0.00103477 1 0 0
262 2 11 0 0 1 2 8 0.00112064 1 0 0
311 2 10 1 0 1 2 8 0.00276194 1 0 0
312 2 11 1 0 1 2 8 0.00299889 1 0 0
263 2 12 0 0 1 2 8 0.00119455 1 0 0
264 2 13 0 0 1 2 8 0.00125852 1 0 0
313 2 12 1 0 1 2 8 0.00320609 1 0 0
314 2 13 1 0 1 2 8 0.00338807 1 0 0
265 2 14 0 0 1 2 8 0.00131185 1 0 0
315 2 14 1 0 1 2 8 0.00354196 1 0 0
266 2 15 0 0 1 2 8 0.00135366 1 0 0
267 2 16 0 0 1 2 8 0.00138598 1 0 0
316 2 15 1 0 1 2 8 0.00366436 1 0 0
317 2 16 1 0 1 2 8 0.00376095 1 0 0
268 2 17 0 0 1 2 8 0.00141309 1 0 0
269 2 18 0 0 1 2 8 0.00143734 1 0 0
318 2 17 1 0 1 2 8 0.00384438 1 0 0
319 2 18 1 0 1 2 8 0.0039213 1 0 0
270 2 19 0 0 1 2 8 0.00145675 1 0 0
320 2 19 1 0 1 2 8 0.00398558 1 0 0
271 2 20 0 0 1 2 8 0.00146724 1 0 0
272 2 21 0 0 1 2 8 0.00146676 1 0 0
321 2 20 1 0 1 2 8 0.00402563 1 0 0
322 2 21 1 0 1 2 8 0.00403621 1 0 0
273 2 22 0 0 1 2 8 0.00145739 1 0 0
274 2 23 0 0 1 2 8 0.00144499 1 0 0
323 2 22 1 0 1 2 8 0.00402275 1 0 0
324 2 23 1 0 1 2 8 0.00399964 1 0 0
275 2 24 0 0 1 2 8 0.0014376 1 0 0
325 2 24 1 0 1 2 8 0.00398743 1 0 0
276 2 25 0 0 1 2 8 0.00144194 1 0 0
277 2 26 0 0 1 2 8 0.00145925 1 0 0
326 2 25 1 0 1 2 8 0.00400467 1 0 0
327 2 26 1 0 1 2 8 0.00405533 1 0 0
278 2 27 0 0 1 2 8 0.00148448 1 0 0
279 2 28 0 0 1 2 8 0.00151036 1 0 0
328 2 27 1 0 1 2 8 0.00412531 1 0 0
329 2 28 1 0 1 2 8 0.00419431 1 0 0
280 2 29 0 0 1 2 8 0.00153265 1 0 0
330 2 29 1 0 1 2 8 0.00425173 1 0 0
281 2 30 0 0 1 2 8 0.00155097 1 0 0
282 2 31 0 0 1 2 8 0.00156552 1 0 0
331 2 30 1 0 1 2 8 0.00429896 1 0 0
332 2 31 1 0 1 2 8 0.00433809 1 0 0
283 2 32 0 0 1 2 8 0.00157506 1 0 0
284 2 33 0 0 1 2 8 0.00157868 1 0 0
333 2 32 1 0 1 2 8 0.00436528 1 0 0
334 2 33 1 0 1 2 8 0.00437679 1 0 0
285 2 34 0 0 1 2 8 0.001578 1 0 0
335 2 34 1 0 1 2 8 0.00437688 1 0 0
286 2 35 0 0 1 2 8 0.00157618 1 0 0
287 2 36 0 0 1 2 8 0.00157468 1 0 0
336 2 35 1 0 1 2 8 0.00437491 1 0 0
337 2 36 1 0 1 2 8 0.00437497 1 0 0
288 2 37 0 0 1 2 8 0.0015717 1 0 0
289 2 38 0 0 1 2 8 0.00156385 1 0 0
338 2 37 1 0 1 2 8 0.00437172 1 0 0
339 2 38 1 0 1 2 8 0.00435557 1 0 0
290 2 39 0 0 1 2 8 0.00154883 1 0 0
340 2 39 1 0 1 2 8 0.00432008 1 0 0
291 2 40 0 0 1 2 8 0.00152781 1 0 0
292 2 41 0 0 1 2 8 0.00150641 1 0 0
341 2 40 1 0 1 2 8 0.00426737 1 0 0
342 2 41 1 0 1 2 8 0.00421159 1 0 0
293 2 42 0 0 1 2 8 0.00149282 1 0 0
294 2 43 0 0 1 2 8 0.00149275 1 0 0
343 2 42 1 0 1 2 8 0.00417527 1 0 0
344 2 43 1 0 1 2 8 0.004175 1 0 0
295 2 44 0 0 1 2 8 0.0015047 1 0 0
345 2 44 1 0 1 2 8 0.00420735 1 0 0
296 2 45 0 0 1 2 8 0.00152002 1 0 0
297 2 46 0 0 1 2 8 0.00152877 1 0 0
346 2 45 1 0 1 2 8 0.00424855 1 0 0
347 2 46 1 0 1 2 8 0.00427109 1 0 0
298 2 47 0 0 1 2 8 0.00152669 1 0 0
299 2 48 0 0 1 2 8 0.00151766 1 0 0
348 2 47 1 0 1 2 8 0.00426381 1 0 0
349 2 48 1 0 1 2 8 0.00423792 1 0 0
300 2 49 0 0 1 2 8 0.00151014 1 0 0
350 2 49 1 0 1 2 8 0.00421683 1 0 0
351 2 0 2 0 1 2 8 0.000138928 1 0 0
352 2 1 2 0 1 2 8 0.000197928 1 0 0
401 2 0 3 0 1 2 8 0.000267426 1 0 0
402 2 1 3 0 1 2 8 0.000384909 1 0 0
353 2 2 2 0 1 2 8 0.000401494 1 0 0
354 2 3 2 0 1 2 8 0.000796541 1 0 0
403 2 2 3 0 1 2 8 0.000787865 1 0 0
404 2 3 3 0 1 2 8 0.0015631 1 0 0
355 2 4 2 0 1 2 8 0.00142431 1 0 0
405 2 4 3 0 1 2 8 0.00279123 1 0 0
356 2 5 2 0 1 2 8 0.00226644 1 0 0
357 2 6 2 0 1 2 8 0.00321088 1 0 0
406 2 5 3 0 1 2 8 0.00448947 1 0 0
407 2 6 3 0 1 2 8 0.00635699 1 0 0
358 2 7 2 0 1 2 8 0.00413511 1 0 0
359 2 8 2 0 1 2 8 0.00497936 1 0 0
408 2 7 3 0 1 2 8 0.00810341 1 0 0
409 2 8 3 0 1 2 8 0.00970391 1 0 0
360 2 9 2 0 1 2 8 0.00572505 1 0 0
410 2 9 3 0 1 2 8 0.0111478 1 0 0
361 2 10 2 0 1 2 8 0.00637389 1 0 0
362 2 11 2 0 1 2 8 0.00694175 1 0 0
411 2 10 3 0 1 2 8 0.012433 1 0 0
412 2 11 3 0 1 2 8 0.013586 1 0 0
363 2 12 2 0 1 2 8 0.00744724 1 0 0
364 2 13 2 0 1 2 8 0.00789855 1 0 0
413 2 12 3 0 1 2 8 0.0146341 1 0 0
414 2 13 3 0 1 2 8 0.0155864 1 0 0
365 2 14 2 0 1 2 8 0.00828737 1 0 0
415 2 14 3 0 1 2 8 0.0164283 1 0 0
366 2 15 2 0 1 2 8 0.00860368 1 0 0
367 2 16 2 0 1 2 8 0.00886065 1 0 0
416 2 15 3 0 1 2 8 0.017135 1 0 0
417 2 16 3 0 1 2 8 0.0177309 1 0 0
368 2 17 2 0 1 2 8 0.00908918 1 0 0
369 2 18 2 0 1 2 8 0.00930439 1 0 0
418 2 17 3 0 1 2 8 0.0182775 1 0 0
419 2 18 3 0 1 2 8 0.0187995 1 0 0
370 2 19 2 0 1 2 8 0.0094897 1 0 0
420 2 19 3 0 1 2 8 0.0192584 1 0 0
371 2 20 2 0 1 2 8 0.00961777 1 0 0
372 2 21 2 0 1 2 8 0.00967931 1 0 0
421 2 20 3 0 1 2 8 0.0196005 1 0 0
422 2 21 3 0 1 2 8 0.0198215 1 0 0
373 2 22 2 0 1 2 8 0.00968739 1 0 0
374 2 23 2 0 1 2 8 0.0096696 1 0 0
423 2 22 3 0 1 2 8 0.0199534 1 0 0
424 2 23 3 0 1 2 8 0.0200266 1 0 0
375 2 24 2 0 1 2 8 0.00966864 1 0 0
425 2 24 3 0 1 2 8 0.0201074 1 0 0
376 2 25 2 0 1 2 8 0.00972795 1 0 0
377 2 26 2 0 1 2 8 0.00985851 1 0 0
426 2 25 3 0 1 2 8 0.0202838 1 0 0
427 2 26 3 0 1 2 8 0.0205765 1 0 0
378 2 27 2 0 1 2 8 0.0100285 1 0 0
379 2 28 2 0 1 2 8 0.0101893 1 0 0
428 2 27 3 0 1 2 8 0.020937 1 0 0
429 2 28 3 0 1 2 8 0.0212643 1 0 0
380 2 29 2 0 1 2 8 0.0103187 1 0 0
430 2 29 3 0 1 2 8 0.0215183 1 0 0
381 2 30 2 0 1 2 8 0.0104267 1 0 0
382 2 31 2 0 1 2 8 0.0105216 1 0 0
431 2 30 3 0 1 2 8 0.0217401 1 0 0
432 2 31 3 0 1 2 8 0.0219499 1 0 0
383 2 32 2 0 1 2 8 0.0105926 1 0 0
384 2 33 2 0 1 2 8 0.010627 1 0 0
433 2 32 3 0 1 2 8 0.0221207 1 0 0
434 2 33 3 0 1 2 8 0.0222162 1 0 0
385 2 34 2 0 1 2 8 0.0106344 1 0 0
435 2 34 3 0 1 2 8 0.0222512 1 0 0
386 2 35 2 0 1 2 8 0.0106394 1 0 0
387 2 36 2 0 1 2 8 0.0106518 1 0 0
436 2 35 3 0 1 2 8 0.0222892 1 0 0
437 2 36 3 0 1 2 8 0.0223491 1 0 0
388 2 37 2 0 1 2 8 0.0106574 1 0 0
389 2 38 2 0 1 2 8 0.0106341 1 0 0
438 2 37 3 0 1 2 8 0.0223935 1 0 0
439 2 38 3 0 1 2 8 0.0223825 1 0 0
390 2 39 2 0 1 2 8 0.0105679 1 0 0
440 2 39 3 0 1 2 8 0.0222999 1 0 0
391 2 40 2 0 1 2 8 0.0104612 1 0 0
392 2 41 2 0 1 2 8 0.0103417 1 0 0
441 2 40 3 0 1 2 8 0.0221443 1 0 0
442 2 41 3 0 1 2 8 0.0219453 1 0 0
393 2 42 2 0 1 2 8 0.0102617 1 0 0
394 2 43 2 0 1 2 8 0.0102619 1 0 0
443 2 42 3 0 1 2 8 0.0218085 1 0 0
444 2 43 3 0 1 2 8 0.0218152 1 0 0
395 2 44 2 0 1 2 8 0.0103362 1 0 0
445 2 44 3 0 1 2 8 0.0219587 1 0 0
396 2 45 2 0 1 2 8 0.0104297 1 0 0
397 2 46 2 0 1 2 8 0.0104784 1 0 0
446 2 45 3 0 1 2 8 0.0221372 1 0 0
447 2 46 3 0 1 2 8 0.0222239 1 0 0
398 2 47 2 0 1 2 8 0.0104585 1 0 0
399 2 48 2 0 1 2 8 0.0103976 1 0 0
448 2 47 3 0 1 2 8 0.0221828 1 0 0
449 2 48 3 0 1 2 8 0.0220735 1 0 0
400 2 49 2 0 1 2 8 0.0103491 1 0 0
450 2 49 3 0 1 2 8 0.0219836 1 0 0
451 2 0 4 0 1 2 8 0.000459775 1 0 0
452 2 1 4 0 1 2 8 0.000666926 1 0 0
453 2 2 4 0 1 2 8 0.00136905 1 0 0
454 2 3 4 0 1 2 8 0.00267838 1 0 0
455 2 4 4 0 1 2 7 0.00461004 1 0 0
456 2 5 4 0 1 2 6 0.00752272 1 0 0
457 2 6 4 0 1 2 5 0.0104425 1 0 0
506 1 5.49427 4.86891 0 1.0006 2 0 0.0120221 1 -0.00230423 -0.00493154
507 1 6.49429 4.86684 0 1.02569 2 0 0.0147147 1 -0.00136133 -0.00235496
458 2 7 4 0 1 2 5 0.0129737 1 0 0
459 2 8 4 0 1 2 5 0.0153742 1 0 0
508 1 7.4965 4.86639 0 1.03193 2 0 0.0174046 1 0.00210282 0.00121427
460 2 9 4 0 1 2 5 0.0175997 1 0 0
510 1 8.49808 4.86493 0 1.01036 2 0 0.0200074 1 0.0012703 0.00249286
511 1 9.49799 4.86466 0 1.00136 2 0 0.0224699 1 0.000679831 -0.0022975
461 2 10 4 0 1 2 5 0.0196348 1 0 0
462 2 11 4 0 1 2 5 0.0215243 1 0 0
512 1 10.4985 4.86397 0 1.01573 2 0 0.0248367 1 0.000855233 0.00249395
513 1 11.4987 4.86361 0 1.01534 2 0 0.0270989 1 0.00185645 0.00623659
463 2 12 4 0 1 2 5 0.0232823 1 0 0
464 2 13 4 0 1 2 5 0.024906 1 0 0
514 1 12.5014 4.86451 0 1.01802 2 0 0.0292264 1 -0.00109171 0.00152036
465 2 14 4 0 1 2 5 0.0263871 1 0 0
515 1 13.501 4.86639 0 1.02031 2 0 0.0312247 1 0.000462838 -0.0018825
516 1 14.5003 4.86487 0 1.0096 2 0 0.0330778 1 -0.00069657 0.00341099
466 2 15 4 0 1 2 5 0.0276825 1 0 0
467 2 16 4 0 1 2 5 0.0288246 1 0 0
518 1 16.4999 4.8651 0 1.02515 2 0 0.0363906 1 -0.00192966 -0.00174526
517 1 15.4994 4.86484 0 1.02614 2 0 0.0347815 1 0.00216174 0.0031632
468 2 17 4 0 1 2 5 0.0299014 1 0 0
469 2 18 4 0 1 2 5 0.0309293 1 0 0
519 1 17.5004 4.86339 0 1.0239 2 0 0.0378943 1 -0.0037864 0.00199933
470 2 19 4 0 1 2 5 0.0318463 1 0 0
520 1 18.5016 4.86492 0 1.00577 2 0 0.0392774 1 -0.00174958 -0.00242717
521 1 19.501 4.86206 0 1.00453 2 0 0.0405095 1 0.00297665 0.00609052
471 2 20 4 0 1 2 5 0.0325784 1 0 0
472 2 21 4 0 1 2 5 0.0331503 1 0 0
523 1 21.5026 4.8624 0 1.02268 2 0 0.0426122 1 0.000951753 0.0046664
522 1 20.5014 4.86216 0 1.0139 2 0 0.0415994 1 0.000893872 0.00269238
473 2 22 4 0 1 2 5 0.0336303 1 0 0
474 2 23 4 0 1 2 5 0.0340067 1 0 0
524 1 22.5065 4.86343 0 1.01383 2 0 0.0435493 1 -0.013355 0.0009415
475 2 24 4 0 1 2 5 0.0343434 1 0 0
525 1 23.5028 4.86335 0 1.03669 2 0 0.0443884 1 0.00677464 0.00124859
526 1 24.5041 4.86513 0 1.04245 2 0 0.0451988 1 -0.0012527 -0.0021416
476 2 25 4 0 1 2 5 0.0347782 1 0 0
477 2 26 4 0 1 2 5 0.0353293 1 0 0
528 1 26.4995 4.8644 0 1.04147 2 0 0.0468193 1 0.0117196 0.000781132
527 1 25.504 4.86599 0 1.03798 2 0 0.0460117 1 -0.0132097 -0.00486613
478 2 27 4 0 1 2 5 0.0359647 1 0 0
479 2 28 4 0 1 2 5 0.0365245 1 0 0
529 1 27.5004 4.86621 0 1.0019 2 0 0.0475774 1 -0.00212239 -0.00703557
480 2 29 4 0 1 2 5 0.0369607 1 0 0
531 1 29.5014 4.86575 0 1.01679 2 0 0.0489009 1 -0.00721384 -0.00134227
530 1 28.5013 4.86675 0 1.02091 2 0 0.0482665 1 -0.00068748 -0.00323787
481 2 30 4 0 1 2 5 0.0373667 1 0 0
482 2 31 4 0 1 2 5 0.0377697 1 0 0
533 1 31.5001 4.86373 0 1.004 2 0 0.0500164 1 -0.0104715 0.0067966
532 1 30.4991 4.86464 0 1.0182 2 0 0.0494836 1 0.00462811 0.00251791
483 2 32 4 0 1 2 5 0.0381231 1 0 0
484 2 33 4 0 1 2 5 0.0383509 1 0 0
534 1 32.495 4.86529 0 1.00171 2 0 0.0504802 1 0.0155096 0.000919572
485 2 34 4 0 1 2 5 0.0384617 1 0 0
535 1 33.4975 4.86484 0 1.00275 2 0 0.0508282 1 -0.00270495 0.00148324
536 1 34.4957 4.86475 0 1.0237 2 0 0.0511116 1 0.00430058 0.00122396
486 2 35 4 0 1 2 5 0.0385915 1 0 0
487 2 36 4 0 1 2 5 0.0387677 1 0 0
538 1 36.4987 4.86512 0 1.01227 2 0 0.051688 1 -0.0026508 -0.00781469
537 1 35.4992 4.86302 0 1.0067 2 0 0.0514191 1 -0.00279325 0.00432592
488 2 37 4 0 1 2 5 0.0389064 1 0 0
489 2 38 4 0 1 2 5 0.0389594 1 0 0
539 1 37.4976 4.86123 0 1.00174 2 0 0.0519015 1 0.000647138 0.0145359
490 2 39 4 0 1 2 5 0.0389346 1 0 0
541 1 39.4963 4.86365 0 1.00168 2 0 0.0521324 1 0.00697603 0.00152281
540 1 38.4956 4.86529 0 1.01715 2 0 0.0520379 1 0.00371199 -0.000528242
491 2 40 4 0 1 2 5 0.0388214 1 0 0
492 2 41 4 0 1 2 5 0.0386066 1 0 0
542 1 40.4995 4.8647 0 1.01016 2 0 0.052177 1 -0.0020582 -0.00055623
543 1 41.4996 4.86939 0 1.03252 2 0 0.052216 1 -0.00592671 -0.0131841
493 2 42 4 0 1 2 5 0.0384642 1 0 0
494 2 43 4 0 1 2 5 0.0385063 1 0 0
544 1 42.4954 4.86924 0 1.0319 2 0 0.0523433 1 0.00410046 -0.00743736
495 2 44 4 0 1 2 5 0.0387227 1 0 0
545 1 43.4976 4.86173 0 1.03659 2 0 0.0524959 1 0.00119631 0.010749
546 1 44.5015 4.8644 0 1.01001 2 0 0.052669 1 -0.00147783 0.0048604
496 2 45 4 0 1 2 5 0.0389885 1 0 0
497 2 46 4 0 1 2 5 0.0391149 1 0 0
548 1 46.504 4.87337 0 1.00807 2 0 0.0529499 1 -0.0115378 -0.0212976
547 1 45.5023 4.86669 0 1.00173 2 0 0.0528369 1 -0.00184506 -0.0013181
498 2 47 4 0 1 2 5 0.0390714 1 0 0
499 2 48 4 0 1 2 5 0.0389524 1 0 0
549 1 47.5001 4.86684 0 1.02093 2 0 0.052987 1 0.00681352 -0.000103622
500 2 49 4 0 1 2 5 0.0388509 1 0 0
550 1 48.4995 4.86831 0 1.02225 2 0 0.0530532 1 -0.000538789 -0.00292519
8501 1 49.5004 4.87195 0 1.06187 2 0 0.0531258 1 1.96107e-06 -0.00844339
501 2 0 5 0 1 2 8 0.000711665 1 0 0
502 2 1 5 0 1 2 8 0.0010389 1 0 0
551 2 0 6 0 1 2 8 0.00100404 1 0 0
552 2 1 6 0 1 2 8 0.0014739 1 0 0
503 2 2 5 0 1 2 8 0.00213403 1 0 0
504 2 3 5 0 1 2 8 0.00412833 1 0 0
553 2 2 6 0 1 2 8 0.00302651 1 0 0
554 2 3 6 0 1 2 8 0.00579568 1 0 0
505 2 4 5 0 1 2 6 0.00696875 1 0 0
555 2 4 6 0 1 2 5 0.00948409 1 0 0
556 1 4.96539 5.71733 0 1.02426 2 0 0.0126908 1 -0.000252803 0.000355544
557 1 5.98868 5.7348 0 1.00456 2 0 0.0161247 1 0.00157696 0.00262169
558 1 6.99303 5.7296 0 1.00032 2 0 0.0190692 1 0.00141445 0.00477203
509 1 7.99641 5.73282 0 1.00999 2 0 0.0220416 1 -0.000710061 -0.00127694
560 1 8.99889 5.72996 0 1.01571 2 0 0.0249245 1 -0.00730215 -0.00231983
561 1 9.99696 5.72826 0 1.04128 2 0 0.027737 1 0.00573428 0.00570426
562 1 10.9981 5.72868 0 1.02468 2 0 0.0304554 1 -0.0016608 -0.00107932
563 1 12.0008 5.72859 0 1.00884 2 0 0.0330449 1 -0.00366652 -0.000549769
565 1 13.0005 5.73069 0 1.01555 2 0 0.0355329 1 -0.00280156 -0.00163761
566 1 14.0006 5.73331 0 1.01485 2 0 0.0378962 1 0.00153123 -0.00522055
567 1 15.0011 5.73549 0 1.00349 2 0 0.0401132 1 -0.000385382 -0.00950799
568 1 15.9995 5.73059 0 1.02492 2 0 0.0422275 1 0.00295292 2.40691e-05
569 1 17.9984 5.7267 0 1.01386 2 0 0.0460623 1 0.00743627 0.000193275
618 1 16.9992 5.72882 0 1.00786 2 0 0.0442231 1 0.00320879 6.57082e-05
570 1 19.0056 5.72718 0 1.00562 2 0 0.0477478 1 -0.00239727 -0.00564078
571 1 20.0046 5.72583 0 1.00943 2 0 0.0493157 1 0.000630645 -0.00112976
572 1 21.0039 5.72515 0 1.02492 2 0 0.0508158 1 0.00213398 0.00352824
573 1 22.0059 5.72655 0 1.00977 2 0 0.0522136 1 -0.00714188 -0.0018356
574 1 23.005 5.72721 0 1.00488 2 0 0.0535151 1 -0.000272345 0.0051935
575 1 24.0039 5.72772 0 1.01237 2 0 0.0547475 1 0.00161987 0.00148942
576 1 25.0033 5.73036 0 1.01087 2 0 0.0558995 1 -0.00158148 -0.00478648
577 1 26.0017 5.72906 0 1.01133 2 0 0.0569751 1 0.000638879 0.00306455
579 1 27.0006 5.73119 0 1.01129 2 0 0.0579534 1 0.000200781 -0.00648797
580 1 27.9979 5.73016 0 1.02117 2 0 0.0588968 1 0.00731068 0.00105971
581 1 28.9996 5.73228 0 1.01861 2 0 0.0597612 1 -0.00309141 -0.00356903
632 1 29.9971 5.73228 0 1.0167 2 0 0.0605294 1 0.00762368 -0.00372674
582 1 30.9992 5.72956 0 1.0143 2 0 0.0612275 1 -0.00181404 -0.00215065
583 1 31.9989 5.73086 0 1.0088 2 0 0.0618597 1 -0.0085482 6.30211e-05
584 1 32.9958 5.73065 0 1.00514 2 0 0.062427 1 0.000375344 -0.000524273
585 1 33.9929 5.73193 0 1.02197 2 0 0.0629535 1 0.00486985 -0.00137105
586 1 34.9958 5.72787 0 1.02669 2 0 0.0634091 1 0.00273344 0.00389503
587 1 35.9961 5.72762 0 1.01702 2 0 0.0638205 1 -0.00250322 0.00439781
588 1 36.9953 5.7281 0 1.01798 2 0 0.064159 1 0.00115532 0.00563194
589 1 37.9929 5.73089 0 1.01656 2 0 0.0644196 1 0.00787776 -0.00967847
590 1 38.9974 5.72665 0 1.01208 2 0 0.0646522 1 -0.0016296 0.0109364
591 1 39.9967 5.73024 0 1.01334 2 0 0.0648854 1 -0.00396398 -0.0106126
592 1 40.9978 5.72869 0 1.02633 2 0 0.065178 1 -0.0110845 0.0076492
594 1 42.9961 5.72998 0 1.01497 2 0 0.0656225 1 -0.00185441 -0.00787448
593 1 41.995 5.73514 0 1.02837 2 0 0.0654524 1 0.00447231 -0.00918561
595 1 43.996 5.72732 0 1.01694 2 0 0.0657353 1 -0.00811416 0.00033072
596 1 44.9908 5.73666 0 1.01116 2 0 0.0658564 1 0.0109837 -0.0160773
597 1 46.0005 5.73225 0 1.01212 2 0 0.0660486 1 -0.0109093 0.00639317
598 1 46.9975 5.73398 0 1.00861 2 0 0.066224 1 0.0135315 0.0116655
599 1 47.9966 5.73497 0 1.02545 2 0 0.0663859 1 0.0019723 -0.000552608
600 1 48.9988 5.73283 0 1.00476 2 0 0.0665624 1 -0.00269099 0.0079054
10701 1 49.6677 45.5824 0 1.00172 0 0 0.466523 1 7.00386e-05 1.07947e-05
601 2 0 7 0 1 2 8 0.00131051 1 0 0
602 2 1 7 0 1 2 8 0.0019346 1 0 0
651 2 0 8 0 1 2 8 0.00160538 1 0 0
652 2 1 8 0 1 2 8 0.0023843 1 0 0
603 2 2 7 0 1 2 8 0.0039765 1 0 0
604 2 3 7 0 1 2 8 0.00758017 1 0 0
653 2 2 8 0 1 2 8 0.00491403 1 0 0
654 2 3 8 0 1 2 8 0.00937371 1 0 0
605 2 4 7 0 1 2 5 0.0121702 1 0 0
655 2 4 8 0 1 2 5 0.014769 1 0 0
656 1 4.92328 7.45663 0 1.01253 2 0 0.0170181 1 -0.00231795 0.0007183
606 1 5.438 6.60201 0 1.01839 2 0 0.0169364 1 0.00242146 -0.00407056
607 1 6.46964 6.60997 0 1.01626 2 0 0.0203988 1 -0.000799414 -0.00120778
657 1 5.93436 7.5018 0 1.02523 2 0 0.0211924 1 -0.00106905 -0.00167615
608 1 7.48971 6.59596 0 1.01581 2 0 0.0237469 1 -0.000694558 -0.00124241
609 1 7.98807 7.46058 0 1.00447 2 0 0.0286773 1 0.00133501 0.00230585
658 1 6.98017 7.46742 0 1.00499 2 0 0.0250746 1 -0.000837703 -0.00157066
559 1 8.49694 6.59771 0 1.01669 2 0 0.0270219 1 -0.00262764 -0.00142855
610 1 9.49604 6.59436 0 1.00382 2 0 0.0302613 1 0.00841532 -0.00175583
661 1 9.00171 7.45923 0 1.00906 2 0 0.032313 1 -0.00287931 -0.00100107
612 1 10.0001 7.45949 0 1.00002 2 0 0.0358721 1 -0.00538501 -0.000341283
611 1 10.4968 6.59534 0 1.00368 2 0 0.0334083 1 -0.000252133 -0.00726349
564 1 11.4955 6.59334 0 1.01095 2 0 0.0364562 1 0.00597115 0.00274794
613 1 10.9979 7.45973 0 1.00877 2 0 0.0393845 1 0.00152449 -0.00185346
614 1 12.4967 6.59503 0 1.01882 2 0 0.0394162 1 0.000687407 -0.00265694
665 1 12.9944 7.45995 0 1.00809 2 0 0.046169 1 0.00492954 0.000387534
664 1 11.9968 7.45981 0 1.0022 2 0 0.0428228 1 -0.00288562 0.000519653
615 1 13.4981 6.59526 0 1.00601 2 0 0.042276 1 -0.00282132 0.00289484
616 1 14.5024 6.59748 0 1.00878 2 0 0.0449873 1 -0.00553549 0.0032872
666 1 13.9957 7.45916 0 0.997531 2 0 0.0493821 1 0.00049509 0.00222588
667 1 15.0007 7.46153 0 1.00922 2 0 0.0524839 1 -0.000678239 0.00283599
617 1 15.5036 6.59851 0 1.01132 2 0 0.047589 1 -0.000741332 -0.00385808
668 1 16.0067 7.45953 0 1.01232 2 0 0.0554714 1 -0.00266784 0.00171408
619 1 16.504 6.5952 0 1.00791 2 0 0.0500807 1 -0.00191435 -0.00596583
669 1 17.5053 6.59104 0 1.0115 2 0 0.0524307 1 -0.00424232 0.00455266
719 1 17.0071 7.45633 0 1.0104 2 0 0.0583218 1 -0.000892026 -0.000961922
720 1 18.0093 7.45363 0 1.00384 2 0 0.0610177 1 -0.00119295 -0.00141697
620 1 18.5058 6.58802 0 1.00047 2 0 0.054615 1 -0.00290543 0.0034444
621 1 19.5073 6.58879 0 1.01086 2 0 0.0566711 1 0.0037799 0.00356115
670 1 19.01 7.4507 0 1.01205 2 0 0.0635779 1 -0.00454218 0.00592588
671 1 20.0117 7.45404 0 1.01101 2 0 0.0660207 1 -0.00668207 0.00179819
622 1 20.5072 6.58983 0 1.02282 2 0 0.0586401 1 0.00133306 -0.00102453
623 1 21.507 6.59318 0 1.01715 2 0 0.0604896 1 -0.00598904 -0.0101619
672 1 21.0094 7.45627 0 1.01032 2 0 0.0683165 1 -0.00372096 0.0012307
673 1 22.0064 7.45702 0 1.00705 2 0 0.0704377 1 0.00510127 0.00104317
624 1 22.5032 6.59048 0 1.00933 2 0 0.0621747 1 0.0103207 0.00550535
674 1 23.0057 7.45474 0 1.01197 2 0 0.0724452 1 -0.00331762 0.00319924
625 1 23.5057 6.59143 0 1.01358 2 0 0.0637853 1 -0.00449166 0.000478605
626 1 24.5038 6.59381 0 1.01095 2 0 0.0652986 1 0.00068177 -0.00340726
675 1 24.0045 7.45651 0 1.00974 2 0 0.0743481 1 -0.00470991 0.00361459
676 1 25.0018 7.45951 0 1.01754 2 0 0.0761128 1 0.00837065 -0.00113601
578 1 26.501 6.59214 0 1.0136 2 0 0.0680207 1 0.000892659 0.0114741
628 1 26.0018 7.46073 0 1.00647 2 0 0.0777564 1 -0.00612295 -0.00375735
627 1 25.5026 6.59402 0 1.0116 2 0 0.066709 1 0.00022383 0.00630095
629 1 27.5011 6.59668 0 1.00585 2 0 0.0692442 1 -0.00856321 -0.00782726
679 1 28.0011 7.45976 0 1.01276 2 0 0.0807226 1 -0.00729871 0.00356109
678 1 26.9997 7.45803 0 1.01987 2 0 0.0792937 1 0.00156031 0.00699447
630 1 28.497 6.59463 0 1.00031 2 0 0.0704212 1 0.0101478 9.29974e-05
631 1 29.4994 6.59683 0 1.01679 2 0 0.0714611 1 -0.00448558 -0.00381466
680 1 28.9992 7.45842 0 1.0041 2 0 0.0820754 1 -0.00120585 0.00740058
681 1 29.9982 7.46091 0 1.0067 2 0 0.083292 1 -0.00735723 0.00286723
682 1 30.497 6.59681 0 1.0233 2 0 0.0723774 1 0.00349277 -0.0090759
633 1 31.4966 6.59457 0 1.00197 2 0 0.073192 1 -0.00251214 -0.000365592
732 1 30.9949 7.45903 0 1.02086 2 0 0.0843483 1 0.00426386 0.00508756
683 1 31.9927 7.4598 0 1.00602 2 0 0.0852885 1 0.00386023 0.00711049
684 1 32.4955 6.5972 0 1.01173 2 0 0.0739378 1 -0.00370747 -0.00176069
734 1 32.9918 7.46437 0 1.01306 2 0 0.0861638 1 0.00263403 -0.00550117
634 1 33.4914 6.5986 0 1.00318 2 0 0.0746442 1 0.00583036 -0.00541357
635 1 34.4959 6.59372 0 1.01335 2 0 0.0753085 1 -0.00564046 0.00324058
685 1 33.9915 7.46094 0 1.01182 2 0 0.0869849 1 -0.000727671 0.000531918
686 1 34.9888 7.46326 0 1.01566 2 0 0.0877209 1 0.00941282 -0.00544138
636 1 35.4923 6.59742 0 1.01343 2 0 0.075886 1 0.00452715 -0.00454813