ITEM: TIMESTEP
4500
ITEM: NUMBER OF ATOMS
15950
ITEM: BOX BOUNDS pp pp pp
0.0000000000000000e+00 1.0000000000000000e+02
-5.0000000000000000e+00 2.0000000000000000e+02
-5.0000000000000000e-01 5.0000000000000000e-01
ITEM: ATOMS id type x y z c_rho c_phase c_nbond c_temp f_rheo_chi_chi fx fy
1 2 0 -5 0 1 2 8 4.47072e-15 1 0 0
2 2 1 -5 0 1 2 8 9.91501e-15 1 0 0
51 2 0 -4 0 1 2 8 7.07194e-14 1 0 0
52 2 1 -4 0 1 2 8 1.69141e-13 1 0 0
3 2 2 -5 0 1 2 8 3.08943e-14 1 0 0
4 2 3 -5 0 1 2 8 7.95466e-14 1 0 0
53 2 2 -4 0 1 2 8 5.71636e-13 1 0 0
54 2 3 -4 0 1 2 8 1.56223e-12 1 0 0
5 2 4 -5 0 1 2 7 1.64922e-13 1 0 0
55 2 4 -4 0 1 2 8 3.36152e-12 1 0 0
6 2 5 -5 0 1 2 6 2.8079e-13 1 0 0
7 2 6 -5 0 1 2 5 3.9857e-13 1 0 0
56 2 5 -4 0 1 2 8 5.803e-12 1 0 0
57 2 6 -4 0 1 2 8 8.30891e-12 1 0 0
8 2 7 -5 0 1 2 5 4.91077e-13 1 0 0
9 2 8 -5 0 1 2 5 5.48857e-13 1 0 0
58 2 7 -4 0 1 2 8 1.03003e-11 1 0 0
59 2 8 -4 0 1 2 8 1.15416e-11 1 0 0
10 2 9 -5 0 1 2 5 5.77584e-13 1 0 0
60 2 9 -4 0 1 2 8 1.21547e-11 1 0 0
11 2 10 -5 0 1 2 5 5.89228e-13 1 0 0
12 2 11 -5 0 1 2 5 5.93906e-13 1 0 0
61 2 10 -4 0 1 2 8 1.23981e-11 1 0 0
62 2 11 -4 0 1 2 8 1.2477e-11 1 0 0
13 2 12 -5 0 1 2 5 6.01124e-13 1 0 0
14 2 13 -5 0 1 2 5 6.18388e-13 1 0 0
63 2 12 -4 0 1 2 8 1.26058e-11 1 0 0
64 2 13 -4 0 1 2 8 1.29894e-11 1 0 0
15 2 14 -5 0 1 2 5 6.4126e-13 1 0 0
65 2 14 -4 0 1 2 8 1.35279e-11 1 0 0
16 2 15 -5 0 1 2 5 6.56456e-13 1 0 0
17 2 16 -5 0 1 2 5 6.59233e-13 1 0 0
66 2 15 -4 0 1 2 8 1.38814e-11 1 0 0
67 2 16 -4 0 1 2 8 1.3933e-11 1 0 0
18 2 17 -5 0 1 2 5 6.58008e-13 1 0 0
19 2 18 -5 0 1 2 5 6.60395e-13 1 0 0
68 2 17 -4 0 1 2 8 1.38987e-11 1 0 0
69 2 18 -4 0 1 2 8 1.39643e-11 1 0 0
20 2 19 -5 0 1 2 5 6.62622e-13 1 0 0
70 2 19 -4 0 1 2 8 1.40346e-11 1 0 0
21 2 20 -5 0 1 2 5 6.55002e-13 1 0 0
22 2 21 -5 0 1 2 5 6.34893e-13 1 0 0
71 2 20 -4 0 1 2 8 1.38734e-11 1 0 0
72 2 21 -4 0 1 2 8 1.34164e-11 1 0 0
23 2 22 -5 0 1 2 5 6.1049e-13 1 0 0
24 2 23 -5 0 1 2 5 5.91655e-13 1 0 0
73 2 22 -4 0 1 2 8 1.28634e-11 1 0 0
74 2 23 -4 0 1 2 8 1.24477e-11 1 0 0
25 2 24 -5 0 1 2 5 5.81857e-13 1 0 0
75 2 24 -4 0 1 2 8 1.22417e-11 1 0 0
26 2 25 -5 0 1 2 5 5.80216e-13 1 0 0
27 2 26 -5 0 1 2 5 5.85696e-13 1 0 0
76 2 25 -4 0 1 2 8 1.22184e-11 1 0 0
77 2 26 -4 0 1 2 8 1.2351e-11 1 0 0
28 2 27 -5 0 1 2 5 5.97126e-13 1 0 0
29 2 28 -5 0 1 2 5 6.13191e-13 1 0 0
78 2 27 -4 0 1 2 8 1.26053e-11 1 0 0
79 2 28 -4 0 1 2 8 1.29445e-11 1 0 0
30 2 29 -5 0 1 2 5 6.34251e-13 1 0 0
80 2 29 -4 0 1 2 8 1.3387e-11 1 0 0
31 2 30 -5 0 1 2 5 6.5991e-13 1 0 0
32 2 31 -5 0 1 2 5 6.83485e-13 1 0 0
81 2 30 -4 0 1 2 8 1.39435e-11 1 0 0
82 2 31 -4 0 1 2 8 1.44653e-11 1 0 0
33 2 32 -5 0 1 2 5 6.94392e-13 1 0 0
34 2 33 -5 0 1 2 5 6.88614e-13 1 0 0
83 2 32 -4 0 1 2 8 1.46999e-11 1 0 0
84 2 33 -4 0 1 2 8 1.45495e-11 1 0 0
35 2 34 -5 0 1 2 5 6.74473e-13 1 0 0
85 2 34 -4 0 1 2 8 1.42197e-11 1 0 0
36 2 35 -5 0 1 2 5 6.63606e-13 1 0 0
37 2 36 -5 0 1 2 5 6.58613e-13 1 0 0
86 2 35 -4 0 1 2 8 1.39925e-11 1 0 0
87 2 36 -4 0 1 2 8 1.391e-11 1 0 0
38 2 37 -5 0 1 2 5 6.54751e-13 1 0 0
39 2 38 -5 0 1 2 5 6.48771e-13 1 0 0
88 2 37 -4 0 1 2 8 1.38389e-11 1 0 0
89 2 38 -4 0 1 2 8 1.37058e-11 1 0 0
40 2 39 -5 0 1 2 5 6.40867e-13 1 0 0
90 2 39 -4 0 1 2 8 1.35287e-11 1 0 0
41 2 40 -5 0 1 2 5 6.31946e-13 1 0 0
42 2 41 -5 0 1 2 5 6.22959e-13 1 0 0
91 2 40 -4 0 1 2 8 1.33362e-11 1 0 0
92 2 41 -4 0 1 2 8 1.31447e-11 1 0 0
43 2 42 -5 0 1 2 5 6.17511e-13 1 0 0
44 2 43 -5 0 1 2 5 6.22186e-13 1 0 0
93 2 42 -4 0 1 2 8 1.30258e-11 1 0 0
94 2 43 -4 0 1 2 8 1.3127e-11 1 0 0
45 2 44 -5 0 1 2 5 6.39944e-13 1 0 0
95 2 44 -4 0 1 2 8 1.35283e-11 1 0 0
46 2 45 -5 0 1 2 5 6.61905e-13 1 0 0
47 2 46 -5 0 1 2 5 6.71688e-13 1 0 0
96 2 45 -4 0 1 2 8 1.40319e-11 1 0 0
97 2 46 -4 0 1 2 8 1.42531e-11 1 0 0
48 2 47 -5 0 1 2 5 6.61675e-13 1 0 0
49 2 48 -5 0 1 2 5 6.39915e-13 1 0 0
98 2 47 -4 0 1 2 8 1.40196e-11 1 0 0
99 2 48 -4 0 1 2 8 1.35334e-11 1 0 0
50 2 49 -5 0 1 2 5 6.19677e-13 1 0 0
100 2 49 -4 0 1 2 8 1.30988e-11 1 0 0
101 2 0 -3 0 1 2 8 1.00147e-12 1 0 0
102 2 1 -3 0 1 2 8 2.61252e-12 1 0 0
151 2 0 -2 0 1 2 8 1.24604e-11 1 0 0
152 2 1 -2 0 1 2 8 3.59018e-11 1 0 0
103 2 2 -3 0 1 2 8 9.68416e-12 1 0 0
104 2 3 -3 0 1 2 8 2.83711e-11 1 0 0
153 2 2 -2 0 1 2 8 1.48011e-10 1 0 0
154 2 3 -2 0 1 2 8 4.70678e-10 1 0 0
105 2 4 -3 0 1 2 8 6.40945e-11 1 0 0
155 2 4 -2 0 1 2 8 1.12617e-09 1 0 0
106 2 5 -3 0 1 2 8 1.13893e-10 1 0 0
107 2 6 -3 0 1 2 8 1.65537e-10 1 0 0
156 2 5 -2 0 1 2 8 2.06978e-09 1 0 0
157 2 6 -2 0 1 2 8 3.05898e-09 1 0 0
108 2 7 -3 0 1 2 8 2.06728e-10 1 0 0
109 2 8 -3 0 1 2 8 2.32387e-10 1 0 0
158 2 7 -2 0 1 2 8 3.85237e-09 1 0 0
159 2 8 -2 0 1 2 8 4.34915e-09 1 0 0
110 2 9 -3 0 1 2 8 2.4498e-10 1 0 0
160 2 9 -2 0 1 2 8 4.59281e-09 1 0 0
111 2 10 -3 0 1 2 8 2.49942e-10 1 0 0
112 2 11 -3 0 1 2 8 2.5109e-10 1 0 0
161 2 10 -2 0 1 2 8 4.6885e-09 1 0 0
162 2 11 -2 0 1 2 8 4.70048e-09 1 0 0
113 2 12 -3 0 1 2 8 2.52936e-10 1 0 0
114 2 13 -3 0 1 2 8 2.61093e-10 1 0 0
163 2 12 -2 0 1 2 8 4.71795e-09 1 0 0
164 2 13 -2 0 1 2 8 4.87881e-09 1 0 0
115 2 14 -3 0 1 2 8 2.73383e-10 1 0 0
165 2 14 -2 0 1 2 8 5.13795e-09 1 0 0
116 2 15 -3 0 1 2 8 2.81227e-10 1 0 0
117 2 16 -3 0 1 2 8 2.81954e-10 1 0 0
166 2 15 -2 0 1 2 8 5.2971e-09 1 0 0
167 2 16 -2 0 1 2 8 5.30208e-09 1 0 0
118 2 17 -3 0 1 2 8 2.81028e-10 1 0 0
119 2 18 -3 0 1 2 8 2.82735e-10 1 0 0
168 2 17 -2 0 1 2 8 5.28005e-09 1 0 0
169 2 18 -2 0 1 2 8 5.3208e-09 1 0 0
120 2 19 -3 0 1 2 8 2.84758e-10 1 0 0
170 2 19 -2 0 1 2 8 5.372e-09 1 0 0
121 2 20 -3 0 1 2 8 2.81547e-10 1 0 0
122 2 21 -3 0 1 2 8 2.71567e-10 1 0 0
171 2 20 -2 0 1 2 8 5.31391e-09 1 0 0
172 2 21 -2 0 1 2 8 5.1123e-09 1 0 0
123 2 22 -3 0 1 2 8 2.59503e-10 1 0 0
124 2 23 -3 0 1 2 8 2.50656e-10 1 0 0
173 2 22 -2 0 1 2 8 4.86821e-09 1 0 0
174 2 23 -2 0 1 2 8 4.69288e-09 1 0 0
125 2 24 -3 0 1 2 8 2.46451e-10 1 0 0
175 2 24 -2 0 1 2 8 4.61254e-09 1 0 0
126 2 25 -3 0 1 2 8 2.46255e-10 1 0 0
127 2 26 -3 0 1 2 8 2.49449e-10 1 0 0
176 2 25 -2 0 1 2 8 4.61462e-09 1 0 0
177 2 26 -2 0 1 2 8 4.68681e-09 1 0 0
128 2 27 -3 0 1 2 8 2.55015e-10 1 0 0
129 2 28 -3 0 1 2 8 2.61889e-10 1 0 0
178 2 27 -2 0 1 2 8 4.80202e-09 1 0 0
179 2 28 -2 0 1 2 8 4.93119e-09 1 0 0
130 2 29 -3 0 1 2 8 2.7071e-10 1 0 0
180 2 29 -2 0 1 2 8 5.09216e-09 1 0 0
131 2 30 -3 0 1 2 8 2.82271e-10 1 0 0
132 2 31 -3 0 1 2 8 2.93377e-10 1 0 0
181 2 30 -2 0 1 2 8 5.31372e-09 1 0 0
182 2 31 -2 0 1 2 8 5.5332e-09 1 0 0
133 2 32 -3 0 1 2 8 2.98259e-10 1 0 0
134 2 33 -3 0 1 2 8 2.94559e-10 1 0 0
183 2 32 -2 0 1 2 8 5.62857e-09 1 0 0
184 2 33 -2 0 1 2 8 5.54637e-09 1 0 0
135 2 34 -3 0 1 2 8 2.87142e-10 1 0 0
185 2 34 -2 0 1 2 8 5.39222e-09 1 0 0
136 2 35 -3 0 1 2 8 2.82683e-10 1 0 0
137 2 36 -3 0 1 2 8 2.81643e-10 1 0 0
186 2 35 -2 0 1 2 8 5.31254e-09 1 0 0
187 2 36 -2 0 1 2 8 5.30718e-09 1 0 0
138 2 37 -3 0 1 2 8 2.80455e-10 1 0 0
139 2 38 -3 0 1 2 8 2.7761e-10 1 0 0
188 2 37 -2 0 1 2 8 5.29037e-09 1 0 0
189 2 38 -2 0 1 2 8 5.23359e-09 1 0 0
140 2 39 -3 0 1 2 8 2.73791e-10 1 0 0
190 2 39 -2 0 1 2 8 5.15634e-09 1 0 0
141 2 40 -3 0 1 2 8 2.69767e-10 1 0 0
142 2 41 -3 0 1 2 8 2.65777e-10 1 0 0
191 2 40 -2 0 1 2 8 5.07653e-09 1 0 0
192 2 41 -2 0 1 2 8 4.99726e-09 1 0 0
143 2 42 -3 0 1 2 8 2.63179e-10 1 0 0
144 2 43 -3 0 1 2 8 2.65173e-10 1 0 0
193 2 42 -2 0 1 2 8 4.94294e-09 1 0 0
194 2 43 -2 0 1 2 8 4.97775e-09 1 0 0
145 2 44 -3 0 1 2 8 2.73848e-10 1 0 0
195 2 44 -2 0 1 2 8 5.15141e-09 1 0 0
146 2 45 -3 0 1 2 8 2.84976e-10 1 0 0
147 2 46 -3 0 1 2 8 2.89763e-10 1 0 0
196 2 45 -2 0 1 2 8 5.37985e-09 1 0 0
197 2 46 -2 0 1 2 8 5.47586e-09 1 0 0
148 2 47 -3 0 1 2 8 2.84442e-10 1 0 0
149 2 48 -3 0 1 2 8 2.73982e-10 1 0 0
198 2 47 -2 0 1 2 8 5.36296e-09 1 0 0
199 2 48 -2 0 1 2 8 5.15367e-09 1 0 0
150 2 49 -3 0 1 2 8 2.65071e-10 1 0 0
200 2 49 -2 0 1 2 8 4.98448e-09 1 0 0
201 2 0 -1 0 1 2 8 1.32974e-10 1 0 0
202 2 1 -1 0 1 2 8 4.29187e-10 1 0 0
203 2 2 -1 0 1 2 8 2.00033e-09 1 0 0
204 2 3 -1 0 1 2 8 7.01348e-09 1 0 0
205 2 4 -1 0 1 2 8 1.7991e-08 1 0 0
206 2 5 -1 0 1 2 8 3.44345e-08 1 0 0
207 2 6 -1 0 1 2 8 5.18739e-08 1 0 0
208 2 7 -1 0 1 2 8 6.602e-08 1 0 0
209 2 8 -1 0 1 2 8 7.49845e-08 1 0 0
210 2 9 -1 0 1 2 8 7.9366e-08 1 0 0
211 2 10 -1 0 1 2 8 8.11454e-08 1 0 0
212 2 11 -1 0 1 2 8 8.12214e-08 1 0 0
213 2 12 -1 0 1 2 8 8.10251e-08 1 0 0
214 2 13 -1 0 1 2 8 8.39805e-08 1 0 0
215 2 14 -1 0 1 2 8 8.91598e-08 1 0 0
216 2 15 -1 0 1 2 8 9.20944e-08 1 0 0
217 2 16 -1 0 1 2 8 9.19098e-08 1 0 0
218 2 17 -1 0 1 2 8 9.14421e-08 1 0 0
219 2 18 -1 0 1 2 8 9.23279e-08 1 0 0
220 2 19 -1 0 1 2 8 9.35044e-08 1 0 0
221 2 20 -1 0 1 2 8 9.25806e-08 1 0 0
222 2 21 -1 0 1 2 8 8.88061e-08 1 0 0
223 2 22 -1 0 1 2 8 8.42216e-08 1 0 0
224 2 23 -1 0 1 2 8 8.09706e-08 1 0 0
225 2 24 -1 0 1 2 8 7.94622e-08 1 0 0
226 2 25 -1 0 1 2 8 7.96149e-08 1 0 0
227 2 26 -1 0 1 2 8 8.12127e-08 1 0 0
228 2 27 -1 0 1 2 8 8.35169e-08 1 0 0
229 2 28 -1 0 1 2 8 8.57765e-08 1 0 0
230 2 29 -1 0 1 2 8 8.84122e-08 1 0 0
231 2 30 -1 0 1 2 8 9.23211e-08 1 0 0
232 2 31 -1 0 1 2 8 9.63278e-08 1 0 0
233 2 32 -1 0 1 2 8 9.8086e-08 1 0 0
234 2 33 -1 0 1 2 8 9.64208e-08 1 0 0
235 2 34 -1 0 1 2 8 9.34173e-08 1 0 0
236 2 35 -1 0 1 2 8 9.21519e-08 1 0 0
237 2 36 -1 0 1 2 8 9.23877e-08 1 0 0
238 2 37 -1 0 1 2 8 9.21934e-08 1 0 0
239 2 38 -1 0 1 2 8 9.11619e-08 1 0 0
240 2 39 -1 0 1 2 8 8.97211e-08 1 0 0
241 2 40 -1 0 1 2 8 8.82355e-08 1 0 0
242 2 41 -1 0 1 2 8 8.67103e-08 1 0 0
243 2 42 -1 0 1 2 8 8.5608e-08 1 0 0
244 2 43 -1 0 1 2 8 8.61134e-08 1 0 0
245 2 44 -1 0 1 2 8 8.93411e-08 1 0 0
246 2 45 -1 0 1 2 8 9.37192e-08 1 0 0
247 2 46 -1 0 1 2 8 9.54954e-08 1 0 0
248 2 47 -1 0 1 2 8 9.32203e-08 1 0 0
249 2 48 -1 0 1 2 8 8.93341e-08 1 0 0
250 2 49 -1 0 1 2 8 8.63821e-08 1 0 0
251 2 0 0 0 1 2 8 1.18194e-09 1 0 0
252 2 1 0 0 1 2 8 4.32612e-09 1 0 0
301 2 0 1 0 1 2 8 8.4173e-09 1 0 0
302 2 1 1 0 1 2 8 3.5304e-08 1 0 0
253 2 2 0 0 1 2 8 2.32458e-08 1 0 0
254 2 3 0 0 1 2 8 9.18807e-08 1 0 0
303 2 2 1 0 1 2 8 2.23641e-07 1 0 0
304 2 3 1 0 1 2 8 1.02209e-06 1 0 0
255 2 4 0 0 1 2 8 2.56728e-07 1 0 0
305 2 4 1 0 1 2 8 3.18218e-06 1 0 0
256 2 5 0 0 1 2 8 5.15233e-07 1 0 0
257 2 6 0 0 1 2 8 7.92267e-07 1 0 0
306 2 5 1 0 1 2 8 6.79335e-06 1 0 0
307 2 6 1 0 1 2 8 1.06997e-05 1 0 0
258 2 7 0 0 1 2 8 1.02e-06 1 0 0
259 2 8 0 0 1 2 8 1.1678e-06 1 0 0
308 2 7 1 0 1 2 8 1.40055e-05 1 0 0
309 2 8 1 0 1 2 8 1.62321e-05 1 0 0
260 2 9 0 0 1 2 8 1.24053e-06 1 0 0
310 2 9 1 0 1 2 8 1.73191e-05 1 0 0
261 2 10 0 0 1 2 8 1.27096e-06 1 0 0
262 2 11 0 0 1 2 8 1.26982e-06 1 0 0
311 2 10 1 0 1 2 8 1.78215e-05 1 0 0
312 2 11 1 0 1 2 8 1.78381e-05 1 0 0
263 2 12 0 0 1 2 8 1.25925e-06 1 0 0
264 2 13 0 0 1 2 8 1.30832e-06 1 0 0
313 2 12 1 0 1 2 8 1.74674e-05 1 0 0
314 2 13 1 0 1 2 8 1.82347e-05 1 0 0
265 2 14 0 0 1 2 8 1.39924e-06 1 0 0
315 2 14 1 0 1 2 8 1.97652e-05 1 0 0
266 2 15 0 0 1 2 8 1.44616e-06 1 0 0
267 2 16 0 0 1 2 8 1.43785e-06 1 0 0
316 2 15 1 0 1 2 8 2.03869e-05 1 0 0
317 2 16 1 0 1 2 8 2.01327e-05 1 0 0
268 2 17 0 0 1 2 8 1.42939e-06 1 0 0
269 2 18 0 0 1 2 8 1.44679e-06 1 0 0
318 2 17 1 0 1 2 8 2.00152e-05 1 0 0
319 2 18 1 0 1 2 8 2.03076e-05 1 0 0
270 2 19 0 0 1 2 8 1.4704e-06 1 0 0
320 2 19 1 0 1 2 8 2.07365e-05 1 0 0
271 2 20 0 0 1 2 8 1.45795e-06 1 0 0
272 2 21 0 0 1 2 8 1.39511e-06 1 0 0
321 2 20 1 0 1 2 8 2.06193e-05 1 0 0
322 2 21 1 0 1 2 8 1.96714e-05 1 0 0
273 2 22 0 0 1 2 8 1.31824e-06 1 0 0
274 2 23 0 0 1 2 8 1.2638e-06 1 0 0
323 2 22 1 0 1 2 8 1.85101e-05 1 0 0
324 2 23 1 0 1 2 8 1.76706e-05 1 0 0
275 2 24 0 0 1 2 8 1.23779e-06 1 0 0
325 2 24 1 0 1 2 8 1.71766e-05 1 0 0
276 2 25 0 0 1 2 8 1.24141e-06 1 0 0
277 2 26 0 0 1 2 8 1.27247e-06 1 0 0
326 2 25 1 0 1 2 8 1.72406e-05 1 0 0
327 2 26 1 0 1 2 8 1.78483e-05 1 0 0
278 2 27 0 0 1 2 8 1.31492e-06 1 0 0
279 2 28 0 0 1 2 8 1.35059e-06 1 0 0
328 2 27 1 0 1 2 8 1.86012e-05 1 0 0
329 2 28 1 0 1 2 8 1.91271e-05 1 0 0
280 2 29 0 0 1 2 8 1.38794e-06 1 0 0
330 2 29 1 0 1 2 8 1.95471e-05 1 0 0
281 2 30 0 0 1 2 8 1.44862e-06 1 0 0
282 2 31 0 0 1 2 8 1.51443e-06 1 0 0
331 2 30 1 0 1 2 8 2.03854e-05 1 0 0
332 2 31 1 0 1 2 8 2.13487e-05 1 0 0
283 2 32 0 0 1 2 8 1.54444e-06 1 0 0
284 2 33 0 0 1 2 8 1.51523e-06 1 0 0
333 2 32 1 0 1 2 8 2.18365e-05 1 0 0
334 2 33 1 0 1 2 8 2.13872e-05 1 0 0
285 2 34 0 0 1 2 8 1.46318e-06 1 0 0
335 2 34 1 0 1 2 8 2.05427e-05 1 0 0
286 2 35 0 0 1 2 8 1.44539e-06 1 0 0
287 2 36 0 0 1 2 8 1.45445e-06 1 0 0
336 2 35 1 0 1 2 8 2.03322e-05 1 0 0
337 2 36 1 0 1 2 8 2.05644e-05 1 0 0
288 2 37 0 0 1 2 8 1.45332e-06 1 0 0
289 2 38 0 0 1 2 8 1.43652e-06 1 0 0
338 2 37 1 0 1 2 8 2.05635e-05 1 0 0
339 2 38 1 0 1 2 8 2.03374e-05 1 0 0
290 2 39 0 0 1 2 8 1.41212e-06 1 0 0
340 2 39 1 0 1 2 8 1.99733e-05 1 0 0
291 2 40 0 0 1 2 8 1.38608e-06 1 0 0
292 2 41 0 0 1 2 8 1.35825e-06 1 0 0
341 2 40 1 0 1 2 8 1.95589e-05 1 0 0
342 2 41 1 0 1 2 8 1.90577e-05 1 0 0
293 2 42 0 0 1 2 8 1.33737e-06 1 0 0
294 2 43 0 0 1 2 8 1.34333e-06 1 0 0
343 2 42 1 0 1 2 8 1.86845e-05 1 0 0
344 2 43 1 0 1 2 8 1.8724e-05 1 0 0
295 2 44 0 0 1 2 8 1.3976e-06 1 0 0
345 2 44 1 0 1 2 8 1.95729e-05 1 0 0
296 2 45 0 0 1 2 8 1.47344e-06 1 0 0
297 2 46 0 0 1 2 8 1.50316e-06 1 0 0
346 2 45 1 0 1 2 8 2.0784e-05 1 0 0
347 2 46 1 0 1 2 8 2.12348e-05 1 0 0
298 2 47 0 0 1 2 8 1.46229e-06 1 0 0
299 2 48 0 0 1 2 8 1.39697e-06 1 0 0
348 2 47 1 0 1 2 8 2.05438e-05 1 0 0
349 2 48 1 0 1 2 8 1.95542e-05 1 0 0
300 2 49 0 0 1 2 8 1.35031e-06 1 0 0
350 2 49 1 0 1 2 8 1.88871e-05 1 0 0
351 2 0 2 0 1 2 8 4.57818e-08 1 0 0
352 2 1 2 0 1 2 8 2.21915e-07 1 0 0
401 2 0 3 0 1 2 8 1.8178e-07 1 0 0
402 2 1 3 0 1 2 8 1.00001e-06 1 0 0
353 2 2 2 0 1 2 8 1.6733e-06 1 0 0
354 2 3 2 0 1 2 8 9.19753e-06 1 0 0
403 2 2 3 0 1 2 8 9.04218e-06 1 0 0
404 2 3 3 0 1 2 8 6.18949e-05 1 0 0
355 2 4 2 0 1 2 8 3.31139e-05 1 0 0
405 2 4 3 0 1 2 8 0.000265911 1 0 0
356 2 5 2 0 1 2 8 7.62961e-05 1 0 0
357 2 6 2 0 1 2 8 0.000123047 1 0 0
406 2 5 3 0 1 2 8 0.000684611 1 0 0
407 2 6 3 0 1 2 8 0.00114419 1 0 0
358 2 7 2 0 1 2 8 0.000163312 1 0 0
359 2 8 2 0 1 2 8 0.000192079 1 0 0
408 2 7 3 0 1 2 8 0.00157092 1 0 0
409 2 8 3 0 1 2 8 0.00189434 1 0 0
360 2 9 2 0 1 2 8 0.000206348 1 0 0
410 2 9 3 0 1 2 8 0.0020607 1 0 0
361 2 10 2 0 1 2 8 0.000213289 1 0 0
362 2 11 2 0 1 2 8 0.00021355 1 0 0
411 2 10 3 0 1 2 8 0.00214802 1 0 0
412 2 11 3 0 1 2 8 0.00219271 1 0 0
363 2 12 2 0 1 2 8 0.000208183 1 0 0
364 2 13 2 0 1 2 8 0.000218228 1 0 0
413 2 12 3 0 1 2 8 0.00208896 1 0 0
414 2 13 3 0 1 2 8 0.00221987 1 0 0
365 2 14 2 0 1 2 8 0.000237762 1 0 0
415 2 14 3 0 1 2 8 0.00247636 1 0 0
366 2 15 2 0 1 2 8 0.000244118 1 0 0
367 2 16 2 0 1 2 8 0.000239261 1 0 0
416 2 15 3 0 1 2 8 0.00250168 1 0 0
417 2 16 3 0 1 2 8 0.00241671 1 0 0
368 2 17 2 0 1 2 8 0.000237746 1 0 0
369 2 18 2 0 1 2 8 0.000242326 1 0 0
418 2 17 3 0 1 2 8 0.00240992 1 0 0
419 2 18 3 0 1 2 8 0.00246197 1 0 0
370 2 19 2 0 1 2 8 0.000248823 1 0 0
420 2 19 3 0 1 2 8 0.00255097 1 0 0
371 2 20 2 0 1 2 8 0.000248228 1 0 0
372 2 21 2 0 1 2 8 0.00023662 1 0 0
421 2 20 3 0 1 2 8 0.00256431 1 0 0
422 2 21 3 0 1 2 8 0.00244057 1 0 0
373 2 22 2 0 1 2 8 0.000222328 1 0 0
374 2 23 2 0 1 2 8 0.000211436 1 0 0
423 2 22 3 0 1 2 8 0.0022963 1 0 0
424 2 23 3 0 1 2 8 0.00217319 1 0 0
375 2 24 2 0 1 2 8 0.000204003 1 0 0
425 2 24 3 0 1 2 8 0.00201562 1 0 0
376 2 25 2 0 1 2 8 0.000204049 1 0 0
377 2 26 2 0 1 2 8 0.000212761 1 0 0
426 2 25 3 0 1 2 8 0.00199974 1 0 0
427 2 26 3 0 1 2 8 0.00215054 1 0 0
378 2 27 2 0 1 2 8 0.000224392 1 0 0
379 2 28 2 0 1 2 8 0.000231073 1 0 0
428 2 27 3 0 1 2 8 0.00231685 1 0 0
429 2 28 3 0 1 2 8 0.00240374 1 0 0
380 2 29 2 0 1 2 8 0.000234281 1 0 0
430 2 29 3 0 1 2 8 0.00240061 1 0 0
381 2 30 2 0 1 2 8 0.000243041 1 0 0
382 2 31 2 0 1 2 8 0.000255181 1 0 0
431 2 30 3 0 1 2 8 0.0024729 1 0 0
432 2 31 3 0 1 2 8 0.00259902 1 0 0
383 2 32 2 0 1 2 8 0.000262197 1 0 0
384 2 33 2 0 1 2 8 0.000256741 1 0 0
433 2 32 3 0 1 2 8 0.00269669 1 0 0
434 2 33 3 0 1 2 8 0.00264144 1 0 0
385 2 34 2 0 1 2 8 0.000245675 1 0 0
435 2 34 3 0 1 2 8 0.00250186 1 0 0
386 2 35 2 0 1 2 8 0.000243361 1 0 0
387 2 36 2 0 1 2 8 0.000246892 1 0 0
436 2 35 3 0 1 2 8 0.00247866 1 0 0
437 2 36 3 0 1 2 8 0.002529 1 0 0
388 2 37 2 0 1 2 8 0.000247444 1 0 0
389 2 38 2 0 1 2 8 0.000244933 1 0 0
438 2 37 3 0 1 2 8 0.0025319 1 0 0
439 2 38 3 0 1 2 8 0.00251855 1 0 0
390 2 39 2 0 1 2 8 0.000240361 1 0 0
440 2 39 3 0 1 2 8 0.00247384 1 0 0
391 2 40 2 0 1 2 8 0.000234279 1 0 0
392 2 41 2 0 1 2 8 0.000226155 1 0 0
441 2 40 3 0 1 2 8 0.0024043 1 0 0
442 2 41 3 0 1 2 8 0.0022761 1 0 0
393 2 42 2 0 1 2 8 0.000220239 1 0 0
394 2 43 2 0 1 2 8 0.000220297 1 0 0
443 2 42 3 0 1 2 8 0.00219301 1 0 0
444 2 43 3 0 1 2 8 0.00218993 1 0 0
395 2 44 2 0 1 2 8 0.000231788 1 0 0
445 2 44 3 0 1 2 8 0.00234064 1 0 0
396 2 45 2 0 1 2 8 0.000248365 1 0 0
397 2 46 2 0 1 2 8 0.000254307 1 0 0
446 2 45 3 0 1 2 8 0.0025456 1 0 0
447 2 46 3 0 1 2 8 0.00261652 1 0 0
398 2 47 2 0 1 2 8 0.00024495 1 0 0
399 2 48 2 0 1 2 8 0.000232032 1 0 0
448 2 47 3 0 1 2 8 0.00250012 1 0 0
449 2 48 3 0 1 2 8 0.00236193 1 0 0
400 2 49 2 0 1 2 8 0.000223593 1 0 0
450 2 49 3 0 1 2 8 0.00226115 1 0 0
451 2 0 4 0 1 2 8 5.13365e-07 1 0 0
452 2 1 4 0 1 2 8 3.10712e-06 1 0 0
453 2 2 4 0 1 2 8 3.23446e-05 1 0 0
454 2 3 4 0 1 2 8 0.000262031 1 0 0
455 2 4 4 0 1 2 7 0.00152086 1 0 0
456 2 5 4 0 1 2 6 0.00464292 1 0 0
457 2 6 4 0 1 2 5 0.00788028 1 0 0
458 2 7 4 0 1 2 5 0.0106553 1 0 0
459 2 8 4 0 1 2 5 0.0130644 1 0 0
508 1 7.49096 4.8746 0 1.03193 2 0 0.0381977 1 0.0106423 0.000295472
460 2 9 4 0 1 2 5 0.0142865 1 0 0
510 1 8.48759 4.86196 0 1.01036 2 0 0.0445729 1 0.0159144 0.0165983
511 1 9.49713 4.86968 0 1.00136 2 0 0.0483195 1 -0.00488345 -0.00974027
461 2 10 4 0 1 2 5 0.0149703 1 0 0
462 2 11 4 0 1 2 5 0.0152182 1 0 0
512 1 10.5024 4.87998 0 1.01573 2 0 0.0520457 1 -0.00199763 -2.71617e-05
513 1 11.5013 4.86856 0 1.01534 2 0 0.0538733 1 -0.000145521 -0.000121306
463 2 12 4 0 1 2 5 0.0151227 1 0 0
464 2 13 4 0 1 2 5 0.0160768 1 0 0
514 1 12.5 4.89114 0 1.01802 2 0 0.0570129 1 -0.00943656 0.000417515
465 2 14 4 0 1 2 5 0.017328 1 0 0
515 1 13.4935 4.85519 0 1.02031 2 0 0.0591476 1 0.00360724 0.00314666
516 1 14.4962 4.8705 0 1.0096 2 0 0.0630455 1 0 -5e-05
466 2 15 4 0 1 2 5 0.0174416 1 0 0
467 2 16 4 0 1 2 5 0.0165879 1 0 0
518 1 16.4973 4.89487 0 1.02515 2 0 0.0536557 1 0 -5e-05
517 1 15.4966 4.87415 0 1.02614 2 0 0.0605764 1 0 -5e-05
468 2 17 4 0 1 2 5 0.0161845 1 0 0
469 2 18 4 0 1 2 5 0.0170621 1 0 0
519 1 17.4977 4.86383 0 1.0239 2 1 0.0516814 1 -0.000341825 -0.00248798
470 2 19 4 0 1 2 5 0.0179044 1 0 0
520 1 18.497 4.86692 0 1.00577 2 0 0.058046 1 -0.00512848 0.000264272
521 1 19.493 4.86202 0 1.00453 2 0 0.0607947 1 0.00333541 -0.00174829
471 2 20 4 0 1 2 5 0.0180252 1 0 0
472 2 21 4 0 1 2 5 0.0172923 1 0 0
522 1 20.4912 4.86294 0 1.0139 2 0 0.061658 1 0.00356101 -0.00246024
523 1 21.4916 4.86498 0 1.02268 2 0 0.063066 1 -0.00241192 0.000116877
473 2 22 4 0 1 2 5 0.0165132 1 0 0
474 2 23 4 0 1 2 5 0.0155843 1 0 0
524 1 22.49 4.86467 0 1.01383 2 0 0.0632234 1 -0.010538 0.00301676
475 2 24 4 0 1 2 5 0.0142645 1 0 0
525 1 23.482 4.88053 0 1.03669 2 0 0.0571884 1 0.016962 -0.00184831
476 2 25 4 0 1 2 5 0.0136499 1 0 0
477 2 26 4 0 1 2 5 0.0144218 1 0 0
528 1 26.5299 4.9181 0 1.04147 2 0 0.0566197 0.999599 -3.85209e-05 -0.00013145
527 1 25.529 4.88917 0 1.03798 2 1 0.0482194 1 0.000300305 -0.000729569
478 2 27 4 0 1 2 5 0.0163383 1 0 0
479 2 28 4 0 1 2 5 0.0170936 1 0 0
529 1 27.5348 4.88368 0 1.0019 2 0 0.0638143 0.99789 -0.00346543 -0.000289779
480 2 29 4 0 1 2 5 0.0167604 1 0 0
531 1 29.5337 4.88979 0 1.01679 2 0 0.0661618 0.999863 7.35377e-06 -6.18882e-05
530 1 28.5329 4.87483 0 1.02091 2 0 0.0651012 0.998416 0.00270571 0.00177105
481 2 30 4 0 1 2 5 0.0167443 1 0 0
482 2 31 4 0 1 2 5 0.0179267 1 0 0
532 1 30.5355 4.89124 0 1.0182 2 0 0.0675226 1 -0.00251569 -0.00431354
533 1 31.5355 4.88215 0 1.004 2 0 0.0687025 0.999995 -0.00135209 0.00258778
483 2 32 4 0 1 2 5 0.018764 1 0 0
484 2 33 4 0 1 2 5 0.018375 1 0 0
534 1 32.5355 4.88474 0 1.00171 2 0 0.0670491 0.999993 -0.00307391 -0.00298831
485 2 34 4 0 1 2 5 0.0174173 1 0 0
535 1 33.5361 4.8841 0 1.00275 2 0 0.0635942 0.999999 -0.00522498 -0.00354671
536 1 34.5324 4.88862 0 1.0237 2 0 0.0611803 1 -0.000905385 -0.00120511
486 2 35 4 0 1 2 5 0.0171527 1 0 0
487 2 36 4 0 1 2 5 0.0173057 1 0 0
537 1 35.5279 4.87987 0 1.0067 2 0 0.0607746 1 -0.000615069 0.00248917
538 1 36.5238 4.87405 0 1.01227 2 0 0.0611843 1 0.000174436 0.000775921
488 2 37 4 0 1 2 5 0.017568 1 0 0
489 2 38 4 0 1 2 5 0.0175335 1 0 0
539 1 37.5201 4.88785 0 1.00174 2 0 0.0624045 1 0.00322838 0.000128557
490 2 39 4 0 1 2 5 0.0172726 1 0 0
541 1 39.5126 4.86311 0 1.00168 2 0 0.0631037 1 0.00647251 -0.0010339
540 1 38.518 4.86691 0 1.01715 2 0 0.063901 1 -0.0145905 0.0140364
491 2 40 4 0 1 2 5 0.0165984 1 0 0
492 2 41 4 0 1 2 5 0.0150783 1 0 0
542 1 40.5113 4.86862 0 1.01016 2 0 0.0601596 0.999947 0.00135917 0.000702216
543 1 41.5194 4.89004 0 1.03252 2 0 0.0570961 0.999939 -0.0237682 -0.000193049
493 2 42 4 0 1 2 5 0.0141708 1 0 0
494 2 43 4 0 1 2 5 0.014201 1 0 0
544 1 42.5075 4.89526 0 1.0319 2 0 0.0590838 0.999992 0.000546108 0.00114756
495 2 44 4 0 1 2 5 0.0155871 1 0 0
545 1 43.4948 4.84956 0 1.03659 2 0 0.0660733 1 0.0213759 0.047594
546 1 44.4904 4.88713 0 1.01001 2 0 0.0733153 1 -0.00133269 -0.0494071
496 2 45 4 0 1 2 5 0.0175152 1 0 0
497 2 46 4 0 1 2 5 0.0181057 1 0 0
547 1 45.5161 4.87732 0 1.00173 2 0 0.0692224 1 0 -5e-05
548 1 46.5227 4.91165 0 1.00807 2 0 0.0660188 1 -0.0035716 -0.000159165
498 2 47 4 0 1 2 5 0.0173015 1 0 0
499 2 48 4 0 1 2 5 0.016227 1 0 0
549 1 47.5204 4.94215 0 1.02093 2 0 0.0651962 1 0.0016246 0.000181951
500 2 49 4 0 1 2 5 0.0152897 1 0 0
550 1 48.5174 4.87924 0 1.02225 2 0 0.0641488 0.999988 -0.0248716 -0.00120832
8501 1 49.5031 4.91719 0 1.06187 2 0 0.0588673 0.999998 0.0246306 0.000750123
501 2 0 5 0 1 2 8 1.04222e-06 1 0 0
502 2 1 5 0 1 2 8 6.72975e-06 1 0 0
551 2 0 6 0 1 2 8 1.61723e-06 1 0 0
552 2 1 6 0 1 2 8 1.08557e-05 1 0 0
503 2 2 5 0 1 2 8 7.54096e-05 1 0 0
504 2 3 5 0 1 2 8 0.000679838 1 0 0
553 2 2 6 0 1 2 8 0.00012449 1 0 0
554 2 3 6 0 1 2 8 0.00116576 1 0 0
505 2 4 5 0 1 2 6 0.00463156 1 0 0
555 2 4 6 0 1 2 5 0.0079884 1 0 0
556 1 4.99629 6.00507 0 1.02426 2 0 0.0277971 1 -0.0113176 0.00664325
506 1 5.05597 5.0052 0 1.0006 2 0 0.0173584 1 0 -5e-05
507 1 6.49983 4.85931 0 1.02569 2 0 0.0302906 1 -0.00356876 0.00142473
557 1 5.92687 5.66488 0 1.00456 2 0 0.0397167 1 -0.00436672 0.00854995
558 1 6.91233 5.80701 0 1.00032 2 0 0.0565561 1 0.00872509 0.00120835
509 1 7.94254 5.78475 0 1.00999 2 0 0.0697684 1 -0.00144416 -0.00199959
560 1 8.9421 5.76067 0 1.01571 2 0 0.0802454 1 0.000305568 -5.73615e-05
561 1 9.94472 5.75782 0 1.04128 2 1 0.0864576 0.999983 -6.16388e-05 -0.000437297
562 1 10.9603 5.80207 0 1.02468 2 0 0.0919463 0.999972 1.76345e-06 -5.86888e-05
563 1 11.9812 5.75031 0 1.00884 2 0 0.0960353 1 -0.0105861 -0.0018303
565 1 12.962 5.91525 0 1.01555 2 1 0.107933 0.999599 -0.00410726 -0.000185786
566 1 13.9372 5.73352 0 1.01485 2 1 0.108043 0.99872 0.0078626 -0.00222695
567 1 14.9611 5.76452 0 1.00349 2 0 0.11265 0.997992 4.67205e-07 -0.00013488
568 1 15.9745 5.76346 0 1.02492 2 0 0.11263 0.999541 5.89675e-07 -0.000134869
569 1 17.9933 5.73014 0 1.01386 2 1 0.100688 0.999965 -0.00172635 -0.00328658
570 1 18.9884 5.77568 0 1.00562 2 0 0.103566 0.999754 0.0017068 0.00057845
571 1 19.9841 5.72404 0 1.00943 2 1 0.104308 0.999447 0.00246542 0.00213469
572 1 20.9823 5.72524 0 1.02492 2 2 0.106475 0.999793 0.000899808 -0.000787707
573 1 21.9757 5.73467 0 1.00977 2 1 0.113462 0.999652 0.000286472 0.00104858
574 1 22.9691 5.73758 0 1.00488 2 3 0.119754 0.996887 0.00132381 -0.00371745
526 1 24.4813 4.93944 0 1.04245 2 1 0.0523735 1 -0.000451461 -0.00302998
577 1 25.5796 6.61563 0 1.01133 2 3 0.233851 0.875862 -9.32139e-05 -0.00229867
579 1 27.0636 5.76402 0 1.01129 2 1 0.11976 0.911516 -0.00134772 -0.00178664
580 1 28.0608 5.7482 0 1.02117 2 1 0.11514 0.867731 0.00121006 0.00032878
581 1 29.056 5.76866 0 1.01861 2 1 0.114322 0.943767 0.00112853 -0.00147705
582 1 31.0425 5.75034 0 1.0143 2 1 0.115199 0.992291 0.00364075 0.00221394
632 1 30.0493 5.83267 0 1.0167 2 0 0.117082 0.995061 0.00254724 0.000934462
583 1 32.0397 5.75549 0 1.0088 2 0 0.115024 0.98431 0.0010081 -0.000428282
584 1 33.0375 5.74676 0 1.00514 2 1 0.110217 0.987401 -0.00524691 0.00111138
585 1 34.0662 5.77248 0 1.02197 2 1 0.105628 0.997471 -0.00686107 -0.0062375
586 1 35.0792 5.77847 0 1.02669 2 2 0.105793 0.999721 -0.000146218 -0.000484814
587 1 36.0875 5.76946 0 1.01702 2 2 0.107159 0.999811 -0.00427398 0.00811333
588 1 37.112 5.80453 0 1.01798 2 2 0.111505 0.999527 0.00159071 0.012537
589 1 38.1065 5.79242 0 1.01656 2 1 0.113461 0.999654 0.0102054 0.00655676
590 1 39.1202 5.77342 0 1.01208 2 1 0.114945 0.999466 0.00626027 -0.00205255
591 1 40.1191 5.78544 0 1.01334 2 1 0.113802 0.983417 0.00116344 -0.00295705
592 1 41.0871 6.04298 0 1.02633 2 0 0.155725 0.860301 -0.000539388 -0.00279261
594 1 43.2249 6.42061 0 1.01497 2 0 0.204776 0.819846 0.00151578 -0.00481416
593 1 42.33 5.97221 0 1.02837 2 0 0.190263 0.926319 0.000298544 -0.00148248
596 1 44.9929 5.73065 0 1.01116 2 0 0.134231 0.999895 0.0519793 0.0306413
595 1 44.01 5.7522 0 1.01694 2 0 0.158151 0.997789 -0.0432856 0.0186714
597 1 46.0794 5.97828 0 1.01212 2 0 0.138039 0.999062 -0.000670644 -0.000136048
598 1 47.0737 6.08194 0 1.00861 2 0 0.14671 0.996357 0.000633123 6.60313e-05
599 1 48.089 5.78777 0 1.02545 2 0 0.120676 0.987968 -0.000238678 -0.000780984
600 1 49.1257 5.86427 0 1.00476 2 0 0.120396 0.975211 1.53224e-05 -0.000236667
601 2 0 7 0 1 2 8 2.10392e-06 1 0 0
602 2 1 7 0 1 2 8 1.44168e-05 1 0 0
651 2 0 8 0 1 2 8 2.44352e-06 1 0 0
652 2 1 8 0 1 2 8 1.67617e-05 1 0 0
603 2 2 7 0 1 2 8 0.000167234 1 0 0
604 2 3 7 0 1 2 8 0.00160304 1 0 0
653 2 2 8 0 1 2 8 0.000196663 1 0 0
654 2 3 8 0 1 2 8 0.00193552 1 0 0
605 2 4 7 0 1 2 5 0.0108396 1 0 0
655 2 4 8 0 1 2 5 0.0131449 1 0 0
606 1 5.12095 7.00911 0 1.01839 2 0 0.0399709 1 0.00103726 -0.00925493
607 1 6.2508 6.60985 0 1.01626 2 0 0.0625162 1 0.00068554 0.0019498
657 1 5.95157 7.61994 0 1.02523 2 0 0.0702921 1 -0.0261882 0.000886431
608 1 7.43245 6.70471 0 1.01581 2 0 0.0903968 1 0 -5e-05
609 1 8.02418 7.55009 0 1.00447 2 0 0.132488 0.999587 -0.00414372 0.00876833
658 1 6.93852 7.58465 0 1.00499 2 0 0.102444 1 0.0261882 -0.000986431
559 1 8.44486 6.64812 0 1.01669 2 1 0.107644 0.99996 0.00176719 -0.0113796
610 1 9.39615 6.9974 0 1.00382 2 0 0.147339 0.972482 -0.00041801 -0.000652792
611 1 10.4016 6.6465 0 1.00368 2 0 0.14421 0.97724 0.000734329 0.000818258
612 1 10.8318 7.57827 0 1.00002 2 4 0.218954 0.707423 -0.00187968 0.00220771
613 1 11.6569 7.70814 0 1.00877 2 3 0.234045 0.741529 -0.00122448 -0.000247204
564 1 12.0967 6.75703 0 1.01095 2 1 0.16987 0.99166 -0.000827021 -0.00180293
614 1 12.6428 7.65236 0 1.01882 2 5 0.247695 0.645434 -0.00198292 -0.00242421
615 1 13.4989 7.05037 0 1.00601 2 2 0.220295 0.755055 -0.00190198 -0.00170059
616 1 14.3925 6.61493 0 1.00878 2 1 0.176747 0.876357 0.00203293 0.00110655
666 1 14.5396 7.94335 0 1.0054 0 0 0.283984 0.71254 0.00110745 0.00195796
617 1 15.4526 7.13764 0 1.01132 2 2 0.23646 0.608943 0.00271582 0.00492786
618 1 16.3207 7.01225 0 1.00786 2 3 0.237283 0.723032 0.00249718 -0.00285866
667 1 15.4701 8.33533 0 1.00518 0 0 0.299622 0.858632 0.00158701 0.00118668
668 1 16.4267 8.20688 0 1.0091 0 0 0.299042 0.797818 0.00190386 0.000232229
619 1 17.2561 6.90303 0 1.00791 2 4 0.232426 0.78928 0.00256401 -0.000951305
669 1 17.2339 8.29059 0 1.01447 0 0 0.303927 0.813014 0.000710943 0.00034002
620 1 18.3129 7.39118 0 1.00047 2 2 0.242036 0.553372 0.00194061 -0.00136357
670 1 18.9442 8.59837 0 1.01685 0 0 0.31703 0.912421 0.000912721 0.00049625
671 1 19.8374 8.12074 0 1.01033 0 0 0.305395 0.806014 0.000568434 0.00142738
621 1 19.5114 6.7823 0 1.01086 2 2 0.204548 0.83814 0.000255456 -0.00223746
622 1 20.7588 7.10264 0 1.02282 2 2 0.237461 0.611871 0.0026322 -0.000719485
672 1 20.7579 8.31144 0 1.00459 0 0 0.310103 0.849993 0.000917588 0.000195745
673 1 21.7083 8.202 0 1.00621 0 0 0.305896 0.769528 0.000323576 0.000603024
623 1 21.7573 7.07431 0 1.01715 2 2 0.238633 0.680751 0.000352615 -0.000192927
624 1 22.7223 7.00469 0 1.00933 2 6 0.240546 0.642686 0.00119748 -0.000871055
674 1 22.6111 8.31088 0 1.00824 0 0 0.314613 0.864426 0.000292569 0.000598015
575 1 23.8337 6.64439 0 1.01237 2 3 0.233083 0.747442 0.000782779 0.00148948
576 1 24.7431 6.66775 0 1.01087 2 7 0.244323 0.789598 0.000395136 -0.00237877
625 1 23.5822 7.82785 0 1.01152 0 0 0.301754 0.719174 0.00138249 0.000425879
626 1 24.5613 8.01247 0 1.00968 0 0 0.313733 0.851154 0.00170397 0.000444138
578 1 26.4329 6.89527 0 1.0136 2 3 0.238573 0.546451 2.28788e-05 0.000890991
627 1 25.4054 8.24315 0 1.00856 0 0 0.319888 0.915743 0.00111986 -6.43398e-05
628 1 26.6635 8.10835 0 1.00921 0 0 0.308659 0.876899 0.000802108 -0.000725143
629 1 27.6079 7.10386 0 1.00047 0 0 0.253383 0.667865 0.000735893 -0.000638283
679 1 27.8155 8.17135 0 1.00147 0 0 0.309471 0.983421 0.00120549 -0.000793115
630 1 28.3851 7.1434 0 0.996657 0 0 0.251273 0.647125 0.000818679 -0.00136145
631 1 29.4079 6.92577 0 1.01679 2 2 0.220374 0.544551 0.000235296 -0.00205745
681 1 29.7856 8.25053 0 0.993563 0 0 0.314452 0.829501 0.000496848 -0.0014433
680 1 28.703 8.2724 0 0.996858 0 0 0.314468 0.952499 0.00110145 -0.00120194
682 1 30.5359 7.1599 0 1.0233 2 2 0.235621 0.568996 -0.00017401 -0.00105807
633 1 31.6879 6.69204 0 1.00197 2 0 0.186374 0.673417 -0.000596676 -0.000440932
634 1 33.0146 6.74834 0 1.00318 2 0 0.192237 0.623856 -0.00108251 -0.00179837
683 1 31.6343 7.6377 0 0.998165 0 0 0.268673 0.576118 -0.000240642 -0.000804044
684 1 32.777 7.61016 0 1.00279 0 0 0.26966 0.624063 -0.00188512 -0.000144643
635 1 34.3005 7.06542 0 1.01335 2 3 0.231676 0.641814 -0.0115783 6.11221e-05
685 1 33.7273 8.12411 0 1.0069 0 0 0.303853 0.810545 -0.00314925 -0.000593851
686 1 34.9109 8.27154 0 1.00975 0 0 0.307619 0.750235 -0.00302681 -0.000296681
636 1 35.2829 7.15898 0 1.01343 2 6 0.240291 0.699948 -0.00676569 0.00222596
637 1 36.1366 7.23069 0 0.995425 2 7 0.246937 0.6731 -0.0102946 0.00528089