ITEM: TIMESTEP
2500
ITEM: NUMBER OF ATOMS
15950
ITEM: BOX BOUNDS pp pp pp
0.0000000000000000e+00 1.0000000000000000e+02
-5.0000000000000000e+00 2.0000000000000000e+02
-5.0000000000000000e-01 5.0000000000000000e-01
ITEM: ATOMS id type x y z c_rho c_phase c_nbond c_temp f_rheo_chi_chi fx fy
1 2 0 -5 0 1 2 8 9.50611e-17 1 0 0
2 2 1 -5 0 1 2 8 2.50754e-16 1 0 0
51 2 0 -4 0 1 2 8 2.03546e-15 1 0 0
52 2 1 -4 0 1 2 8 5.88638e-15 1 0 0
3 2 2 -5 0 1 2 8 8.8444e-16 1 0 0
4 2 3 -5 0 1 2 8 2.45859e-15 1 0 0
53 2 2 -4 0 1 2 8 2.28145e-14 1 0 0
54 2 3 -4 0 1 2 8 6.79617e-14 1 0 0
5 2 4 -5 0 1 2 7 5.30867e-15 1 0 0
55 2 4 -4 0 1 2 8 1.5337e-13 1 0 0
6 2 5 -5 0 1 2 6 9.10823e-15 1 0 0
7 2 6 -5 0 1 2 5 1.2761e-14 1 0 0
56 2 5 -4 0 1 2 8 2.68467e-13 1 0 0
57 2 6 -4 0 1 2 8 3.7976e-13 1 0 0
8 2 7 -5 0 1 2 5 1.53186e-14 1 0 0
9 2 8 -5 0 1 2 5 1.65991e-14 1 0 0
58 2 7 -4 0 1 2 8 4.57714e-13 1 0 0
59 2 8 -4 0 1 2 8 4.96164e-13 1 0 0
10 2 9 -5 0 1 2 5 1.70243e-14 1 0 0
60 2 9 -4 0 1 2 8 5.08683e-13 1 0 0
11 2 10 -5 0 1 2 5 1.71215e-14 1 0 0
12 2 11 -5 0 1 2 5 1.71568e-14 1 0 0
61 2 10 -4 0 1 2 8 5.11765e-13 1 0 0
62 2 11 -4 0 1 2 8 5.12673e-13 1 0 0
13 2 12 -5 0 1 2 5 1.7294e-14 1 0 0
14 2 13 -5 0 1 2 5 1.77201e-14 1 0 0
63 2 12 -4 0 1 2 8 5.16309e-13 1 0 0
64 2 13 -4 0 1 2 8 5.30292e-13 1 0 0
15 2 14 -5 0 1 2 5 1.82872e-14 1 0 0
65 2 14 -4 0 1 2 8 5.50162e-13 1 0 0
16 2 15 -5 0 1 2 5 1.85435e-14 1 0 0
17 2 16 -5 0 1 2 5 1.83652e-14 1 0 0
66 2 15 -4 0 1 2 8 5.59607e-13 1 0 0
67 2 16 -4 0 1 2 8 5.53864e-13 1 0 0
18 2 17 -5 0 1 2 5 1.8153e-14 1 0 0
19 2 18 -5 0 1 2 5 1.82446e-14 1 0 0
68 2 17 -4 0 1 2 8 5.46831e-13 1 0 0
69 2 18 -4 0 1 2 8 5.50045e-13 1 0 0
20 2 19 -5 0 1 2 5 1.84652e-14 1 0 0
70 2 19 -4 0 1 2 8 5.57557e-13 1 0 0
21 2 20 -5 0 1 2 5 1.8376e-14 1 0 0
22 2 21 -5 0 1 2 5 1.78416e-14 1 0 0
71 2 20 -4 0 1 2 8 5.54587e-13 1 0 0
72 2 21 -4 0 1 2 8 5.36815e-13 1 0 0
23 2 22 -5 0 1 2 5 1.71724e-14 1 0 0
24 2 23 -5 0 1 2 5 1.66923e-14 1 0 0
73 2 22 -4 0 1 2 8 5.15236e-13 1 0 0
74 2 23 -4 0 1 2 8 5.00815e-13 1 0 0
25 2 24 -5 0 1 2 5 1.64297e-14 1 0 0
75 2 24 -4 0 1 2 8 4.93612e-13 1 0 0
26 2 25 -5 0 1 2 5 1.63187e-14 1 0 0
27 2 26 -5 0 1 2 5 1.64088e-14 1 0 0
76 2 25 -4 0 1 2 8 4.9051e-13 1 0 0
77 2 26 -4 0 1 2 8 4.93051e-13 1 0 0
28 2 27 -5 0 1 2 5 1.67369e-14 1 0 0
29 2 28 -5 0 1 2 5 1.72133e-14 1 0 0
78 2 27 -4 0 1 2 8 5.02681e-13 1 0 0
79 2 28 -4 0 1 2 8 5.16525e-13 1 0 0
30 2 29 -5 0 1 2 5 1.77946e-14 1 0 0
80 2 29 -4 0 1 2 8 5.33681e-13 1 0 0
31 2 30 -5 0 1 2 5 1.85335e-14 1 0 0
32 2 31 -5 0 1 2 5 1.92951e-14 1 0 0
81 2 30 -4 0 1 2 8 5.56644e-13 1 0 0
82 2 31 -4 0 1 2 8 5.80892e-13 1 0 0
33 2 32 -5 0 1 2 5 1.97134e-14 1 0 0
34 2 33 -5 0 1 2 5 1.95683e-14 1 0 0
83 2 32 -4 0 1 2 8 5.93756e-13 1 0 0
84 2 33 -4 0 1 2 8 5.87769e-13 1 0 0
35 2 34 -5 0 1 2 5 1.91043e-14 1 0 0
85 2 34 -4 0 1 2 8 5.71914e-13 1 0 0
36 2 35 -5 0 1 2 5 1.87438e-14 1 0 0
37 2 36 -5 0 1 2 5 1.85977e-14 1 0 0
86 2 35 -4 0 1 2 8 5.60871e-13 1 0 0
87 2 36 -4 0 1 2 8 5.57171e-13 1 0 0
38 2 37 -5 0 1 2 5 1.85275e-14 1 0 0
39 2 38 -5 0 1 2 5 1.84394e-14 1 0 0
88 2 37 -4 0 1 2 8 5.5499e-13 1 0 0
89 2 38 -4 0 1 2 8 5.51553e-13 1 0 0
40 2 39 -5 0 1 2 5 1.82938e-14 1 0 0
90 2 39 -4 0 1 2 8 5.46636e-13 1 0 0
41 2 40 -5 0 1 2 5 1.80322e-14 1 0 0
42 2 41 -5 0 1 2 5 1.76162e-14 1 0 0
91 2 40 -4 0 1 2 8 5.39141e-13 1 0 0
92 2 41 -4 0 1 2 8 5.27614e-13 1 0 0
43 2 42 -5 0 1 2 5 1.71928e-14 1 0 0
44 2 43 -5 0 1 2 5 1.71118e-14 1 0 0
93 2 42 -4 0 1 2 8 5.15703e-13 1 0 0
94 2 43 -4 0 1 2 8 5.13887e-13 1 0 0
45 2 44 -5 0 1 2 5 1.76149e-14 1 0 0
95 2 44 -4 0 1 2 8 5.30394e-13 1 0 0
46 2 45 -5 0 1 2 5 1.84129e-14 1 0 0
47 2 46 -5 0 1 2 5 1.88079e-14 1 0 0
96 2 45 -4 0 1 2 8 5.56435e-13 1 0 0
97 2 46 -4 0 1 2 8 5.69125e-13 1 0 0
48 2 47 -5 0 1 2 5 1.8441e-14 1 0 0
49 2 48 -5 0 1 2 5 1.76432e-14 1 0 0
98 2 47 -4 0 1 2 8 5.57044e-13 1 0 0
99 2 48 -4 0 1 2 8 5.31929e-13 1 0 0
50 2 49 -5 0 1 2 5 1.69296e-14 1 0 0
100 2 49 -4 0 1 2 8 5.1022e-13 1 0 0
101 2 0 -3 0 1 2 8 3.87556e-14 1 0 0
102 2 1 -3 0 1 2 8 1.24424e-13 1 0 0
151 2 0 -2 0 1 2 8 6.42018e-13 1 0 0
152 2 1 -2 0 1 2 8 2.32242e-12 1 0 0
103 2 2 -3 0 1 2 8 5.37129e-13 1 0 0
104 2 3 -3 0 1 2 8 1.73811e-12 1 0 0
153 2 2 -2 0 1 2 8 1.13806e-11 1 0 0
154 2 3 -2 0 1 2 8 4.05898e-11 1 0 0
105 2 4 -3 0 1 2 8 4.15688e-12 1 0 0
155 2 4 -2 0 1 2 8 1.03626e-10 1 0 0
106 2 5 -3 0 1 2 8 7.52318e-12 1 0 0
107 2 6 -3 0 1 2 8 1.07999e-11 1 0 0
156 2 5 -2 0 1 2 8 1.94385e-10 1 0 0
157 2 6 -2 0 1 2 8 2.83381e-10 1 0 0
108 2 7 -3 0 1 2 8 1.30828e-11 1 0 0
109 2 8 -3 0 1 2 8 1.41872e-11 1 0 0
158 2 7 -2 0 1 2 8 3.45341e-10 1 0 0
159 2 8 -2 0 1 2 8 3.75308e-10 1 0 0
110 2 9 -3 0 1 2 8 1.45345e-11 1 0 0
160 2 9 -2 0 1 2 8 3.84761e-10 1 0 0
111 2 10 -3 0 1 2 8 1.46407e-11 1 0 0
112 2 11 -3 0 1 2 8 1.46685e-11 1 0 0
161 2 10 -2 0 1 2 8 3.88005e-10 1 0 0
162 2 11 -2 0 1 2 8 3.8844e-10 1 0 0
113 2 12 -3 0 1 2 8 1.47285e-11 1 0 0
114 2 13 -3 0 1 2 8 1.51658e-11 1 0 0
163 2 12 -2 0 1 2 8 3.88892e-10 1 0 0
164 2 13 -2 0 1 2 8 4.01375e-10 1 0 0
115 2 14 -3 0 1 2 8 1.58592e-11 1 0 0
165 2 14 -2 0 1 2 8 4.22689e-10 1 0 0
116 2 15 -3 0 1 2 8 1.62006e-11 1 0 0
117 2 16 -3 0 1 2 8 1.60099e-11 1 0 0
166 2 15 -2 0 1 2 8 4.33404e-10 1 0 0
167 2 16 -2 0 1 2 8 4.27877e-10 1 0 0
118 2 17 -3 0 1 2 8 1.57808e-11 1 0 0
119 2 18 -3 0 1 2 8 1.58945e-11 1 0 0
168 2 17 -2 0 1 2 8 4.21349e-10 1 0 0
169 2 18 -2 0 1 2 8 4.24949e-10 1 0 0
120 2 19 -3 0 1 2 8 1.61498e-11 1 0 0
170 2 19 -2 0 1 2 8 4.32627e-10 1 0 0
121 2 20 -3 0 1 2 8 1.60562e-11 1 0 0
122 2 21 -3 0 1 2 8 1.54733e-11 1 0 0
171 2 20 -2 0 1 2 8 4.2994e-10 1 0 0
172 2 21 -2 0 1 2 8 4.12783e-10 1 0 0
123 2 22 -3 0 1 2 8 1.4788e-11 1 0 0
124 2 23 -3 0 1 2 8 1.43671e-11 1 0 0
173 2 22 -2 0 1 2 8 3.93056e-10 1 0 0
174 2 23 -2 0 1 2 8 3.81807e-10 1 0 0
125 2 24 -3 0 1 2 8 1.41756e-11 1 0 0
175 2 24 -2 0 1 2 8 3.7737e-10 1 0 0
126 2 25 -3 0 1 2 8 1.40907e-11 1 0 0
127 2 26 -3 0 1 2 8 1.41657e-11 1 0 0
176 2 25 -2 0 1 2 8 3.75423e-10 1 0 0
177 2 26 -2 0 1 2 8 3.77426e-10 1 0 0
128 2 27 -3 0 1 2 8 1.44502e-11 1 0 0
129 2 28 -3 0 1 2 8 1.48428e-11 1 0 0
178 2 27 -2 0 1 2 8 3.84875e-10 1 0 0
179 2 28 -2 0 1 2 8 3.94753e-10 1 0 0
130 2 29 -3 0 1 2 8 1.53266e-11 1 0 0
180 2 29 -2 0 1 2 8 4.07205e-10 1 0 0
131 2 30 -3 0 1 2 8 1.60233e-11 1 0 0
132 2 31 -3 0 1 2 8 1.6777e-11 1 0 0
181 2 30 -2 0 1 2 8 4.26526e-10 1 0 0
182 2 31 -2 0 1 2 8 4.47872e-10 1 0 0
133 2 32 -3 0 1 2 8 1.71637e-11 1 0 0
134 2 33 -3 0 1 2 8 1.69287e-11 1 0 0
183 2 32 -2 0 1 2 8 4.58429e-10 1 0 0
184 2 33 -2 0 1 2 8 4.50555e-10 1 0 0
135 2 34 -3 0 1 2 8 1.63949e-11 1 0 0
185 2 34 -2 0 1 2 8 4.34568e-10 1 0 0
136 2 35 -3 0 1 2 8 1.6079e-11 1 0 0
137 2 36 -3 0 1 2 8 1.60096e-11 1 0 0
186 2 35 -2 0 1 2 8 4.26477e-10 1 0 0
187 2 36 -2 0 1 2 8 4.25777e-10 1 0 0
138 2 37 -3 0 1 2 8 1.59444e-11 1 0 0
139 2 38 -3 0 1 2 8 1.58196e-11 1 0 0
188 2 37 -2 0 1 2 8 4.24018e-10 1 0 0
189 2 38 -2 0 1 2 8 4.19796e-10 1 0 0
140 2 39 -3 0 1 2 8 1.5659e-11 1 0 0
190 2 39 -2 0 1 2 8 4.1478e-10 1 0 0
141 2 40 -3 0 1 2 8 1.54559e-11 1 0 0
142 2 41 -3 0 1 2 8 1.5152e-11 1 0 0
191 2 40 -2 0 1 2 8 4.09592e-10 1 0 0
192 2 41 -2 0 1 2 8 4.02482e-10 1 0 0
143 2 42 -3 0 1 2 8 1.48287e-11 1 0 0
144 2 43 -3 0 1 2 8 1.47869e-11 1 0 0
193 2 42 -2 0 1 2 8 3.94749e-10 1 0 0
194 2 43 -2 0 1 2 8 3.93996e-10 1 0 0
145 2 44 -3 0 1 2 8 1.53082e-11 1 0 0
195 2 44 -2 0 1 2 8 4.08798e-10 1 0 0
146 2 45 -3 0 1 2 8 1.61382e-11 1 0 0
147 2 46 -3 0 1 2 8 1.65316e-11 1 0 0
196 2 45 -2 0 1 2 8 4.32611e-10 1 0 0
197 2 46 -2 0 1 2 8 4.43696e-10 1 0 0
148 2 47 -3 0 1 2 8 1.61309e-11 1 0 0
149 2 48 -3 0 1 2 8 1.53641e-11 1 0 0
198 2 47 -2 0 1 2 8 4.31965e-10 1 0 0
199 2 48 -2 0 1 2 8 4.10802e-10 1 0 0
150 2 49 -3 0 1 2 8 1.4736e-11 1 0 0
200 2 49 -2 0 1 2 8 3.94246e-10 1 0 0
201 2 0 -1 0 1 2 8 9.02493e-12 1 0 0
202 2 1 -1 0 1 2 8 3.73488e-11 1 0 0
203 2 2 -1 0 1 2 8 2.11544e-10 1 0 0
204 2 3 -1 0 1 2 8 8.49472e-10 1 0 0
205 2 4 -1 0 1 2 8 2.36333e-09 1 0 0
206 2 5 -1 0 1 2 8 4.6551e-09 1 0 0
207 2 6 -1 0 1 2 8 6.9189e-09 1 0 0
208 2 7 -1 0 1 2 8 8.50635e-09 1 0 0
209 2 8 -1 0 1 2 8 9.27585e-09 1 0 0
210 2 9 -1 0 1 2 8 9.50555e-09 1 0 0
211 2 10 -1 0 1 2 8 9.61445e-09 1 0 0
212 2 11 -1 0 1 2 8 9.63437e-09 1 0 0
213 2 12 -1 0 1 2 8 9.55618e-09 1 0 0
214 2 13 -1 0 1 2 8 9.89171e-09 1 0 0
215 2 14 -1 0 1 2 8 1.05589e-08 1 0 0
216 2 15 -1 0 1 2 8 1.08886e-08 1 0 0
217 2 16 -1 0 1 2 8 1.07164e-08 1 0 0
218 2 17 -1 0 1 2 8 1.05384e-08 1 0 0
219 2 18 -1 0 1 2 8 1.06504e-08 1 0 0
220 2 19 -1 0 1 2 8 1.08784e-08 1 0 0
221 2 20 -1 0 1 2 8 1.08088e-08 1 0 0
222 2 21 -1 0 1 2 8 1.03153e-08 1 0 0
223 2 22 -1 0 1 2 8 9.75939e-09 1 0 0
224 2 23 -1 0 1 2 8 9.46688e-09 1 0 0
225 2 24 -1 0 1 2 8 9.35767e-09 1 0 0
226 2 25 -1 0 1 2 8 9.31712e-09 1 0 0
227 2 26 -1 0 1 2 8 9.38556e-09 1 0 0
228 2 27 -1 0 1 2 8 9.59005e-09 1 0 0
229 2 28 -1 0 1 2 8 9.83316e-09 1 0 0
230 2 29 -1 0 1 2 8 1.01284e-08 1 0 0
231 2 30 -1 0 1 2 8 1.06507e-08 1 0 0
232 2 31 -1 0 1 2 8 1.12267e-08 1 0 0
233 2 32 -1 0 1 2 8 1.15046e-08 1 0 0
234 2 33 -1 0 1 2 8 1.12503e-08 1 0 0
235 2 34 -1 0 1 2 8 1.0776e-08 1 0 0
236 2 35 -1 0 1 2 8 1.05969e-08 1 0 0
237 2 36 -1 0 1 2 8 1.06337e-08 1 0 0
238 2 37 -1 0 1 2 8 1.05851e-08 1 0 0
239 2 38 -1 0 1 2 8 1.04592e-08 1 0 0
240 2 39 -1 0 1 2 8 1.03139e-08 1 0 0
241 2 40 -1 0 1 2 8 1.01944e-08 1 0 0
242 2 41 -1 0 1 2 8 1.00362e-08 1 0 0
243 2 42 -1 0 1 2 8 9.85921e-09 1 0 0
244 2 43 -1 0 1 2 8 9.83708e-09 1 0 0
245 2 44 -1 0 1 2 8 1.02362e-08 1 0 0
246 2 45 -1 0 1 2 8 1.08981e-08 1 0 0
247 2 46 -1 0 1 2 8 1.11943e-08 1 0 0
248 2 47 -1 0 1 2 8 1.08432e-08 1 0 0
249 2 48 -1 0 1 2 8 1.02868e-08 1 0 0
250 2 49 -1 0 1 2 8 9.88522e-09 1 0 0
251 2 0 0 0 1 2 8 1.04477e-10 1 0 0
252 2 1 0 0 1 2 8 4.97679e-10 1 0 0
301 2 0 1 0 1 2 8 9.47507e-10 1 0 0
302 2 1 1 0 1 2 8 5.29767e-09 1 0 0
253 2 2 0 0 1 2 8 3.35595e-09 1 0 0
254 2 3 0 0 1 2 8 1.56285e-08 1 0 0
303 2 2 1 0 1 2 8 4.33553e-08 1 0 0
304 2 3 1 0 1 2 8 2.41173e-07 1 0 0
255 2 4 0 0 1 2 8 4.80122e-08 1 0 0
305 2 4 1 0 1 2 8 8.52149e-07 1 0 0
256 2 5 0 0 1 2 8 9.94602e-08 1 0 0
257 2 6 0 0 1 2 8 1.50633e-07 1 0 0
306 2 5 1 0 1 2 8 1.91314e-06 1 0 0
307 2 6 1 0 1 2 8 2.9697e-06 1 0 0
258 2 7 0 0 1 2 8 1.8693e-07 1 0 0
259 2 8 0 0 1 2 8 2.05281e-07 1 0 0
308 2 7 1 0 1 2 8 3.75738e-06 1 0 0
309 2 8 1 0 1 2 8 4.18287e-06 1 0 0
260 2 9 0 0 1 2 8 2.11008e-07 1 0 0
310 2 9 1 0 1 2 8 4.29429e-06 1 0 0
261 2 10 0 0 1 2 8 2.13781e-07 1 0 0
262 2 11 0 0 1 2 8 2.13751e-07 1 0 0
311 2 10 1 0 1 2 8 4.37018e-06 1 0 0
312 2 11 1 0 1 2 8 4.3932e-06 1 0 0
263 2 12 0 0 1 2 8 2.10733e-07 1 0 0
264 2 13 0 0 1 2 8 2.18646e-07 1 0 0
313 2 12 1 0 1 2 8 4.20802e-06 1 0 0
314 2 13 1 0 1 2 8 4.39389e-06 1 0 0
265 2 14 0 0 1 2 8 2.35378e-07 1 0 0
315 2 14 1 0 1 2 8 4.86385e-06 1 0 0
266 2 15 0 0 1 2 8 2.43526e-07 1 0 0
267 2 16 0 0 1 2 8 2.39331e-07 1 0 0
316 2 15 1 0 1 2 8 5.05854e-06 1 0 0
317 2 16 1 0 1 2 8 4.93645e-06 1 0 0
268 2 17 0 0 1 2 8 2.35406e-07 1 0 0
269 2 18 0 0 1 2 8 2.38397e-07 1 0 0
318 2 17 1 0 1 2 8 4.86084e-06 1 0 0
319 2 18 1 0 1 2 8 4.93463e-06 1 0 0
270 2 19 0 0 1 2 8 2.44033e-07 1 0 0
320 2 19 1 0 1 2 8 5.07231e-06 1 0 0
271 2 20 0 0 1 2 8 2.42469e-07 1 0 0
272 2 21 0 0 1 2 8 2.30551e-07 1 0 0
321 2 20 1 0 1 2 8 5.04325e-06 1 0 0
322 2 21 1 0 1 2 8 4.75875e-06 1 0 0
273 2 22 0 0 1 2 8 2.17238e-07 1 0 0
274 2 23 0 0 1 2 8 2.10598e-07 1 0 0
323 2 22 1 0 1 2 8 4.44381e-06 1 0 0
324 2 23 1 0 1 2 8 4.29034e-06 1 0 0
275 2 24 0 0 1 2 8 2.08556e-07 1 0 0
325 2 24 1 0 1 2 8 4.22368e-06 1 0 0
276 2 25 0 0 1 2 8 2.0798e-07 1 0 0
277 2 26 0 0 1 2 8 2.09751e-07 1 0 0
326 2 25 1 0 1 2 8 4.22851e-06 1 0 0
327 2 26 1 0 1 2 8 4.30523e-06 1 0 0
278 2 27 0 0 1 2 8 2.14369e-07 1 0 0
279 2 28 0 0 1 2 8 2.1924e-07 1 0 0
328 2 27 1 0 1 2 8 4.42543e-06 1 0 0
329 2 28 1 0 1 2 8 4.52797e-06 1 0 0
280 2 29 0 0 1 2 8 2.25348e-07 1 0 0
330 2 29 1 0 1 2 8 4.63341e-06 1 0 0
281 2 30 0 0 1 2 8 2.37389e-07 1 0 0
282 2 31 0 0 1 2 8 2.50834e-07 1 0 0
331 2 30 1 0 1 2 8 4.91714e-06 1 0 0
332 2 31 1 0 1 2 8 5.20468e-06 1 0 0
283 2 32 0 0 1 2 8 2.5715e-07 1 0 0
284 2 33 0 0 1 2 8 2.50508e-07 1 0 0
333 2 32 1 0 1 2 8 5.34311e-06 1 0 0
334 2 33 1 0 1 2 8 5.17588e-06 1 0 0
285 2 34 0 0 1 2 8 2.38889e-07 1 0 0
335 2 34 1 0 1 2 8 4.88131e-06 1 0 0
286 2 35 0 0 1 2 8 2.35531e-07 1 0 0
287 2 36 0 0 1 2 8 2.37448e-07 1 0 0
336 2 35 1 0 1 2 8 4.84192e-06 1 0 0
337 2 36 1 0 1 2 8 4.93289e-06 1 0 0
288 2 37 0 0 1 2 8 2.36413e-07 1 0 0
289 2 38 0 0 1 2 8 2.32983e-07 1 0 0
338 2 37 1 0 1 2 8 4.90218e-06 1 0 0
339 2 38 1 0 1 2 8 4.82915e-06 1 0 0
290 2 39 0 0 1 2 8 2.29143e-07 1 0 0
340 2 39 1 0 1 2 8 4.73922e-06 1 0 0
291 2 40 0 0 1 2 8 2.26449e-07 1 0 0
292 2 41 0 0 1 2 8 2.23466e-07 1 0 0
341 2 40 1 0 1 2 8 4.69073e-06 1 0 0
342 2 41 1 0 1 2 8 4.6255e-06 1 0 0
293 2 42 0 0 1 2 8 2.20097e-07 1 0 0
294 2 43 0 0 1 2 8 2.19614e-07 1 0 0
343 2 42 1 0 1 2 8 4.56166e-06 1 0 0
344 2 43 1 0 1 2 8 4.53499e-06 1 0 0
295 2 44 0 0 1 2 8 2.28818e-07 1 0 0
345 2 44 1 0 1 2 8 4.7399e-06 1 0 0
296 2 45 0 0 1 2 8 2.44523e-07 1 0 0
297 2 46 0 0 1 2 8 2.51419e-07 1 0 0
346 2 45 1 0 1 2 8 5.10352e-06 1 0 0
347 2 46 1 0 1 2 8 5.25394e-06 1 0 0
298 2 47 0 0 1 2 8 2.42925e-07 1 0 0
299 2 48 0 0 1 2 8 2.30281e-07 1 0 0
348 2 47 1 0 1 2 8 5.03095e-06 1 0 0
349 2 48 1 0 1 2 8 4.76146e-06 1 0 0
300 2 49 0 0 1 2 8 2.21674e-07 1 0 0
350 2 49 1 0 1 2 8 4.59609e-06 1 0 0
351 2 0 2 0 1 2 8 6.39009e-09 1 0 0
352 2 1 2 0 1 2 8 4.24057e-08 1 0 0
401 2 0 3 0 1 2 8 2.98118e-08 1 0 0
402 2 1 3 0 1 2 8 2.30296e-07 1 0 0
353 2 2 2 0 1 2 8 4.21545e-07 1 0 0
354 2 3 2 0 1 2 8 3.00977e-06 1 0 0
403 2 2 3 0 1 2 8 2.9177e-06 1 0 0
404 2 3 3 0 1 2 8 2.67555e-05 1 0 0
355 2 4 2 0 1 2 8 1.26896e-05 1 0 0
405 2 4 3 0 1 2 8 0.000144487 1 0 0
356 2 5 2 0 1 2 8 3.08333e-05 1 0 0
357 2 6 2 0 1 2 8 4.8827e-05 1 0 0
406 2 5 3 0 1 2 8 0.000414748 1 0 0
407 2 6 3 0 1 2 8 0.00067217 1 0 0
358 2 7 2 0 1 2 8 6.25606e-05 1 0 0
359 2 8 2 0 1 2 8 7.0963e-05 1 0 0
408 2 7 3 0 1 2 8 0.000913236 1 0 0
409 2 8 3 0 1 2 8 0.00108634 1 0 0
360 2 9 2 0 1 2 8 7.35097e-05 1 0 0
410 2 9 3 0 1 2 8 0.0011233 1 0 0
361 2 10 2 0 1 2 8 7.48393e-05 1 0 0
362 2 11 2 0 1 2 8 7.46273e-05 1 0 0
411 2 10 3 0 1 2 8 0.00114415 1 0 0
412 2 11 3 0 1 2 8 0.00117119 1 0 0
363 2 12 2 0 1 2 8 7.11624e-05 1 0 0
364 2 13 2 0 1 2 8 7.45068e-05 1 0 0
413 2 12 3 0 1 2 8 0.00100688 1 0 0
414 2 13 3 0 1 2 8 0.00108686 1 0 0
365 2 14 2 0 1 2 8 8.26831e-05 1 0 0
415 2 14 3 0 1 2 8 0.00131105 1 0 0
366 2 15 2 0 1 2 8 8.58391e-05 1 0 0
367 2 16 2 0 1 2 8 8.3634e-05 1 0 0
416 2 15 3 0 1 2 8 0.00132918 1 0 0
417 2 16 3 0 1 2 8 0.00127694 1 0 0
368 2 17 2 0 1 2 8 8.26498e-05 1 0 0
369 2 18 2 0 1 2 8 8.41746e-05 1 0 0
418 2 17 3 0 1 2 8 0.00128625 1 0 0
419 2 18 3 0 1 2 8 0.00130042 1 0 0
370 2 19 2 0 1 2 8 8.67106e-05 1 0 0
420 2 19 3 0 1 2 8 0.00134628 1 0 0
371 2 20 2 0 1 2 8 8.62975e-05 1 0 0
372 2 21 2 0 1 2 8 8.13214e-05 1 0 0
421 2 20 3 0 1 2 8 0.00134737 1 0 0
422 2 21 3 0 1 2 8 0.00125063 1 0 0
373 2 22 2 0 1 2 8 7.58404e-05 1 0 0
374 2 23 2 0 1 2 8 7.31849e-05 1 0 0
423 2 22 3 0 1 2 8 0.00115983 1 0 0
424 2 23 3 0 1 2 8 0.00110873 1 0 0
375 2 24 2 0 1 2 8 7.22884e-05 1 0 0
425 2 24 3 0 1 2 8 0.00105612 1 0 0
376 2 25 2 0 1 2 8 7.24812e-05 1 0 0
377 2 26 2 0 1 2 8 7.39233e-05 1 0 0
426 2 25 3 0 1 2 9 0.00108544 1 0 0
427 2 26 3 0 1 2 8 0.00115593 1 0 0
378 2 27 2 0 1 2 8 7.62012e-05 1 0 0
379 2 28 2 0 1 2 8 7.76293e-05 1 0 0
428 2 27 3 0 1 2 8 0.00121122 1 0 0
429 2 28 3 0 1 2 8 0.00124169 1 0 0
380 2 29 2 0 1 2 8 7.90526e-05 1 0 0
430 2 29 3 0 1 2 8 0.0012439 1 0 0
381 2 30 2 0 1 2 8 8.36936e-05 1 0 0
382 2 31 2 0 1 2 8 8.86176e-05 1 0 0
431 2 30 3 0 1 2 8 0.00133203 1 0 0
432 2 31 3 0 1 2 8 0.00140018 1 0 0
383 2 32 2 0 1 2 8 9.10604e-05 1 0 0
384 2 33 2 0 1 2 8 8.81006e-05 1 0 0
433 2 32 3 0 1 2 8 0.00144177 1 0 0
434 2 33 3 0 1 2 8 0.001396 1 0 0
385 2 34 2 0 1 2 8 8.29317e-05 1 0 0
435 2 34 3 0 1 2 8 0.00129237 1 0 0
386 2 35 2 0 1 2 8 8.26221e-05 1 0 0
387 2 36 2 0 1 2 8 8.45859e-05 1 0 0
436 2 35 3 0 1 2 8 0.00130009 1 0 0
437 2 36 3 0 1 2 8 0.00135629 1 0 0
388 2 37 2 0 1 2 8 8.42228e-05 1 0 0
389 2 38 2 0 1 2 8 8.27563e-05 1 0 0
438 2 37 3 0 1 2 8 0.00134143 1 0 0
439 2 38 3 0 1 2 8 0.00132868 1 0 0
390 2 39 2 0 1 2 8 8.09999e-05 1 0 0
440 2 39 3 0 1 2 8 0.00130112 1 0 0
391 2 40 2 0 1 2 8 7.99423e-05 1 0 0
392 2 41 2 0 1 2 8 7.87729e-05 1 0 0
441 2 40 3 0 1 2 8 0.00128659 1 0 0
442 2 41 3 0 1 2 8 0.00124863 1 0 0
393 2 42 2 0 1 2 8 7.77578e-05 1 0 0
394 2 43 2 0 1 2 8 7.71723e-05 1 0 0
443 2 42 3 0 1 2 8 0.00123144 1 0 0
444 2 43 3 0 1 2 8 0.00120742 1 0 0
395 2 44 2 0 1 2 8 8.06608e-05 1 0 0
445 2 44 3 0 1 2 8 0.00127187 1 0 0
396 2 45 2 0 1 2 8 8.71289e-05 1 0 0
397 2 46 2 0 1 2 8 8.97596e-05 1 0 0
446 2 45 3 0 1 2 8 0.00138181 1 0 0
447 2 46 3 0 1 2 8 0.00141991 1 0 0
398 2 47 2 0 1 2 8 8.58518e-05 1 0 0
399 2 48 2 0 1 2 8 8.11851e-05 1 0 0
448 2 47 3 0 1 2 8 0.00133582 1 0 0
449 2 48 3 0 1 2 8 0.00126682 1 0 0
400 2 49 2 0 1 2 8 7.84889e-05 1 0 0
450 2 49 3 0 1 2 8 0.00122345 1 0 0
451 2 0 4 0 1 2 8 9.25763e-08 1 0 0
452 2 1 4 0 1 2 8 8.07573e-07 1 0 0
453 2 2 4 0 1 2 8 1.21258e-05 1 0 0
454 2 3 4 0 1 2 8 0.000139305 1 0 0
455 2 4 4 0 1 2 7 0.00119296 1 0 0
456 2 5 4 0 1 2 6 0.00404501 1 0 0
457 2 6 4 0 1 2 5 0.00659604 1 0 0
458 2 7 4 0 1 2 5 0.00872019 1 0 0
459 2 8 4 0 1 2 5 0.0107725 1 0 0
508 1 7.20504 4.97693 0 1.03193 2 0 0.0562415 1 0.00118526 0.00339416
460 2 9 4 0 1 2 5 0.0114705 1 0 0
510 1 8.21613 4.96108 0 1.01036 2 0 0.0658582 0.999999 0.00647997 0.028765
511 1 9.45502 4.87937 0 1.00136 2 0 0.0677731 0.999372 0.0210241 -0.00224765
461 2 10 4 0 1 2 5 0.0117517 1 0 0
462 2 11 4 0 1 2 5 0.0115551 1 0 0
463 2 12 4 0 1 2 5 0.0107921 1 0 0
464 2 13 4 0 1 2 5 0.0114705 1 0 0
465 2 14 4 0 1 2 5 0.0126556 1 0 0
515 1 13.4972 4.85993 0 1.02031 2 1 0.0842469 0.999837 0.00275258 0.0078471
466 2 15 4 0 1 2 5 0.0127192 1 0 0
467 2 16 4 0 1 2 5 0.0121516 1 0 0
518 1 16.4261 4.90222 0 1.02515 2 1 0.0784781 0.999469 0.0201773 -0.00883089
468 2 17 4 0 1 2 5 0.0122714 1 0 0
469 2 18 4 0 1 2 5 0.012638 1 0 0
519 1 17.4997 4.85817 0 1.0239 2 1 0.075305 0.999639 0.0101786 0.0116713
470 2 19 4 0 1 2 5 0.0131496 1 0 0
520 1 18.4712 5.17514 0 1.00577 2 0 0.103948 0.991953 -0.00239847 -0.0114879
521 1 19.4419 4.90656 0 1.00453 2 0 0.0841577 0.994586 -0.0247292 -0.0137669
471 2 20 4 0 1 2 5 0.0132446 1 0 0
472 2 21 4 0 1 2 5 0.0124238 1 0 0
473 2 22 4 0 1 2 5 0.0116581 1 0 0
474 2 23 4 0 1 2 5 0.0112513 0.999977 0 0
475 2 24 4 0 1 2 5 0.0111008 0.999892 0 0
476 2 25 4 0 1 2 5 0.0110554 0.999896 0 0
477 2 26 4 0 1 2 5 0.0113876 0.999736 0 0
528 1 26.4926 4.86756 0 1.04147 2 0 0.0766935 0.967025 0.00715013 -0.00341049
527 1 25.4957 4.86125 0 1.03798 2 0 0.0653715 0.937482 -0.00178594 0.00934176
478 2 27 4 0 1 2 5 0.0122828 0.999968 0 0
479 2 28 4 0 1 2 5 0.0125654 1 0 0
529 1 27.4925 4.86888 0 1.0019 2 0 0.0856348 0.993834 -0.00414975 -0.00261874
480 2 29 4 0 1 2 5 0.0123826 0.999997 0 0
531 1 29.4966 4.87007 0 1.01679 2 0 0.0782359 0.983542 0.00341466 -0.00687676
481 2 30 4 0 1 2 5 0.0127564 0.999995 0 0
482 2 31 4 0 1 2 5 0.0135306 0.999996 0 0
532 1 30.4971 4.86452 0 1.0182 2 0 0.0769773 0.983885 8.43729e-05 -0.000678437
533 1 31.4991 4.86402 0 1.004 2 0 0.0865822 0.984948 0.00384425 -0.0010973
483 2 32 4 0 1 2 5 0.0141074 0.999981 0 0
484 2 33 4 0 1 2 5 0.0138152 0.999989 0 0
534 1 32.5003 4.86362 0 1.00171 2 0 0.0882314 0.984915 -0.000684198 0.00569456
485 2 34 4 0 1 2 5 0.0129939 1 0 0
535 1 33.4998 4.86591 0 1.00275 2 0 0.0854851 0.989841 0.00170001 -0.000883052
536 1 34.5008 4.86524 0 1.0237 2 0 0.0815086 0.997135 0.00142317 -0.0044316
486 2 35 4 0 1 2 5 0.0130111 1 0 0
487 2 36 4 0 1 2 5 0.0133514 1 0 0
537 1 35.5 4.86379 0 1.0067 2 1 0.0793825 0.998593 0.00254177 -0.00391363
538 1 36.5006 4.8645 0 1.01227 2 0 0.0805519 0.998136 -0.00644611 0.00130936
488 2 37 4 0 1 2 5 0.0134732 1 0 0
489 2 38 4 0 1 2 5 0.0132941 1 0 0
539 1 37.4986 4.86438 0 1.00174 2 0 0.0820029 0.996126 0.00294452 0.000364262
490 2 39 4 0 1 2 5 0.013012 1 0 0
541 1 39.499 4.86593 0 1.00168 2 0 0.0798791 0.995554 0.00081208 0.000609215
540 1 38.4982 4.8646 0 1.01715 2 0 0.0821747 0.994402 0.000964681 -0.00191763
491 2 40 4 0 1 2 5 0.0126662 1 0 0
492 2 41 4 0 1 2 5 0.0119838 0.999992 0 0
542 1 40.4995 4.86526 0 1.01016 2 0 0.0729961 0.997917 0.00152161 0.000359629
543 1 41.5 4.86344 0 1.03252 2 1 0.0640746 0.970565 0.000886829 -0.00013461
493 2 42 4 0 1 2 5 0.0116456 0.999709 0 0
494 2 43 4 0 1 2 5 0.0114177 0.999506 0 0
544 1 42.4998 4.86446 0 1.0319 2 0 0.063807 0.915077 -0.00185142 -0.00025019
495 2 44 4 0 1 2 5 0.0120867 0.999854 0 0
545 1 43.4987 4.86393 0 1.03659 2 0 0.0683153 0.935043 0.000129909 0.00139332
546 1 44.4966 4.86269 0 1.01001 2 1 0.0737965 0.985638 0.00105434 -9.71557e-05
496 2 45 4 0 1 2 5 0.0132257 1 0 0
497 2 46 4 0 1 2 5 0.0136291 0.999999 0 0
547 1 45.5007 4.86572 0 1.00173 2 0 0.0768006 0.991588 -0.000843533 -0.000198144
548 1 46.5114 4.89053 0 1.00807 2 0 0.076137 0.994566 6.37373e-05 -0.000292346
498 2 47 4 0 1 2 5 0.0128879 1 0 0
499 2 48 4 0 1 2 5 0.0120207 1 0 0
549 1 47.5112 4.87418 0 1.02093 2 2 0.0691009 0.99974 -3.00927e-07 1.80047e-05
500 2 49 4 0 1 2 5 0.011551 1 0 0
550 1 48.5089 4.87043 0 1.02225 2 2 0.0630373 0.99669 -0.000247788 -6.72411e-05
8501 1 49.5045 4.85745 0 1.06187 2 2 0.0589937 0.990875 -0.000464197 0.000148662
501 2 0 5 0 1 2 8 1.94578e-07 1 0 0
502 2 1 5 0 1 2 8 1.84615e-06 1 0 0
551 2 0 6 0 1 2 8 2.99891e-07 1 0 0
552 2 1 6 0 1 2 8 2.97933e-06 1 0 0
503 2 2 5 0 1 2 8 2.9848e-05 1 0 0
504 2 3 5 0 1 2 8 0.000398895 1 0 0
553 2 2 6 0 1 2 8 4.90405e-05 1 0 0
554 2 3 6 0 1 2 8 0.000681807 1 0 0
506 1 5.00676 4.99633 0 1.0006 2 0 0.0234887 1 4.94395e-05 0.00724035
505 2 4 5 0 1 2 6 0.00396954 1 0 0
555 2 4 6 0 1 2 5 0.00673442 1 0 0
556 1 4.90768 6.51172 0 1.02426 2 0 0.0416675 1 0 -5e-05
507 1 6.20526 4.97658 0 1.02569 2 0 0.0427522 1 0.000388053 0.00399625
557 1 5.66146 5.81907 0 1.00456 2 0 0.0569947 1 0 -5e-05
558 1 6.57797 6.29477 0 1.00032 2 0 0.109869 0.996398 -0.00556186 -0.00432196
509 1 7.5234 5.92771 0 1.00999 2 0 0.116728 0.991773 0.00380485 -0.025076
561 1 9.9884 5.73845 0 1.04128 2 0 0.122334 0.903186 -0.000585067 -0.00865662
560 1 8.93418 5.7198 0 1.01571 2 0 0.116952 0.973018 -0.0129761 0.0177391
512 1 10.5047 4.85546 0 1.01573 2 0 0.0742469 0.999159 -0.01126 0.0209983
513 1 11.6085 4.91929 0 1.01534 2 0 0.0889024 0.999925 0.0186241 -0.0242294
562 1 11.0182 5.7059 0 1.02468 2 0 0.137788 0.942556 -0.0112383 0.0320685
514 1 12.5825 5.3069 0 1.01802 2 0 0.131067 0.998714 -5.32233e-06 -0.000217321
563 1 11.9331 6.10952 0 1.00884 2 0 0.18985 0.881943 -0.00849438 -0.00742092
564 1 12.8127 6.57658 0 1.01095 2 1 0.233677 0.616176 0.00732359 -0.0027436
516 1 14.4999 4.85722 0 1.0096 2 0 0.0836373 0.998963 0.000165426 0.0261374
565 1 13.5123 5.85459 0 1.01555 2 0 0.167401 0.925565 -0.000828781 0.00665117
566 1 14.5202 5.87482 0 1.01485 2 0 0.164931 0.847099 -0.00184618 -0.00797915
517 1 15.4655 5.12576 0 1.02614 2 0 0.110861 0.99544 -0.0267116 0.00554389
567 1 15.4777 6.15893 0 1.00349 2 1 0.210724 0.707624 -0.00222376 -0.00205461
568 1 16.4386 6.12951 0 1.02492 2 2 0.213818 0.705513 -0.000472136 0.00240244
569 1 17.7087 5.8798 0 1.01386 2 1 0.160997 0.865358 0.00752933 0.00274439
570 1 18.6732 6.14888 0 1.00562 2 0 0.191178 0.692107 -0.00159911 0.00800041
571 1 19.6674 5.87408 0 1.00943 2 0 0.164692 0.779168 0.0025536 0.00838834
522 1 20.4315 4.91905 0 1.0139 2 0 0.0874832 0.996777 0.0216921 -1.7623e-05
523 1 21.4358 5.09127 0 1.02268 2 0 0.0964775 0.998194 -0.0139203 0.000402878
572 1 20.8 5.89331 0 1.02492 2 0 0.161821 0.843608 0.000392241 -0.00692945
524 1 22.4276 5.04232 0 1.01383 2 0 0.0869691 0.993392 0.0135722 -0.00116907
573 1 21.7869 6.05269 0 1.00977 2 0 0.17498 0.85196 -0.00315974 -0.00469375
574 1 22.7703 6.22241 0 1.00488 2 0 0.216287 0.579563 -0.000577183 -0.00097523
525 1 23.4499 4.90372 0 1.03669 2 0 0.0749633 0.963251 -0.00108627 -0.00376546
526 1 24.4502 5.0073 0 1.04245 2 1 0.0754171 0.896567 -0.00431692 0.00219787
578 1 26.0555 6.47625 0 1.0001 0 0 0.263545 0.77634 0.00207161 -0.000574807
577 1 25.2871 6.58945 0 1.00441 0 0 0.282859 0.940794 0.00118126 -0.000483627
579 1 26.966 5.74577 0 1.01129 2 0 0.163945 0.703769 0.00270801 0.000845163
530 1 28.4911 4.8666 0 1.02091 2 0 0.0868599 0.992956 0.00217961 -0.00434104
581 1 28.9892 5.72764 0 1.01861 2 0 0.166457 0.722835 0.00611412 0.0083286
580 1 27.9918 5.73211 0 1.02117 2 0 0.160565 0.811637 -0.00416206 -0.000519428
582 1 30.9993 5.72619 0 1.0143 2 0 0.161786 0.704213 -0.000383445 0.00654085
583 1 32.0001 5.7288 0 1.0088 2 0 0.15814 0.741395 -0.00298412 -0.000693969
584 1 32.9986 5.73043 0 1.00514 2 0 0.155015 0.754662 0.00274581 0.000736889
585 1 34.0053 5.72966 0 1.02197 2 0 0.148582 0.8179 -0.00277371 0.000487421
586 1 35.0067 5.72992 0 1.02669 2 0 0.146184 0.865616 -0.00273171 -0.000154785
587 1 36.0309 5.97862 0 1.01702 2 1 0.175036 0.739086 -2.34261e-05 0.000130546
588 1 36.9984 5.72972 0 1.01798 2 0 0.148122 0.848952 -0.000180962 -0.0006842
589 1 37.9969 5.72894 0 1.01656 2 0 0.148008 0.813088 0.000527574 0.000958688
590 1 38.9951 5.72945 0 1.01208 2 1 0.147843 0.804632 -4.75147e-05 0.000546368
591 1 40.0027 5.73191 0 1.01334 2 0 0.146309 0.861386 -0.000397915 -0.000586398
592 1 41.0108 6.21504 0 1.02633 2 2 0.215786 0.467787 0.00024759 -0.000157147
593 1 42.1213 6.49862 0 0.998184 0 0 0.263183 0.780526 0.000271125 0.000439975
594 1 42.8003 6.43558 0 0.998289 0 0 0.261763 0.890706 5.27897e-05 0.000612449
595 1 43.513 6.48814 0 0.999002 0 0 0.259249 0.788052 -0.000106691 0.000601773
596 1 44.4401 5.85911 0 1.01116 2 0 0.174606 0.581401 -0.000209479 -0.000238068
597 1 45.697 5.84574 0 1.01212 2 2 0.170873 0.700869 4.74392e-05 -0.00063531
598 1 46.7947 6.05813 0 1.00861 2 3 0.195463 0.696375 -0.000577804 -0.000407985
599 1 47.8492 6.23683 0 1.02545 2 2 0.222842 0.74353 8.44088e-05 -0.000146062
600 1 48.7352 6.35809 0 1.00476 2 6 0.2471 0.485559 -0.000237574 4.02772e-05
8551 1 49.4203 6.82197 0 1.0078 0 0 0.287223 0.479076 -0.000433753 -0.000138012
601 2 0 7 0 1 2 8 3.81895e-07 1 0 0
602 2 1 7 0 1 2 8 3.88276e-06 1 0 0
651 2 0 8 0 1 2 8 4.32211e-07 1 0 0
652 2 1 8 0 1 2 8 4.35042e-06 1 0 0
603 2 2 7 0 1 2 8 6.45303e-05 1 0 0
604 2 3 7 0 1 2 8 0.000932186 1 0 0
653 2 2 8 0 1 2 8 7.31617e-05 1 0 0
654 2 3 8 0 1 2 8 0.00111313 1 0 0
605 2 4 7 0 1 2 5 0.00895402 1 0 0
606 1 5.37747 7.40416 0 1.01839 2 0 0.0812397 0.998395 -0.0320519 -0.0452569
655 2 4 8 0 1 2 5 0.0106381 1 0 0
607 1 6.37249 7.30972 0 1.01626 2 0 0.13215 0.930222 0.00040919 -0.00105809
559 1 8.36195 6.54117 0 1.01669 2 0 0.169952 0.778139 -0.00345331 -0.00598592
608 1 7.36695 6.90356 0 1.01581 2 0 0.161802 0.814554 0.000510372 0.0264576
609 1 8.19266 7.78662 0 1.00043 0 0 0.251155 0.720404 -0.000450979 0.00120548
610 1 9.42743 7.63952 0 1.00716 0 0 0.293365 0.9355 -0.00137022 0.00148476
611 1 10.1174 7.1578 0 1.01056 0 0 0.286207 0.85987 -0.00102902 0.000506594
612 1 10.8548 7.46023 0 1.00532 0 0 0.311291 0.944264 6.54344e-05 0.000301142
613 1 11.8292 7.59706 0 1.00765 0 0 0.325676 0.870057 0.0012731 -0.000587114
614 1 12.9029 7.70775 0 1.00711 0 0 0.331959 0.844164 0.000532422 -0.00226828
615 1 13.8921 7.39932 0 1.00934 0 0 0.32573 0.837766 -0.000453119 -0.00025162
616 1 14.706 7.1607 0 1.01079 0 0 0.314557 0.761009 -0.000760128 0.000105818
617 1 15.5862 7.39234 0 1.00462 0 0 0.325545 0.835662 -0.000318397 -0.000164126
618 1 16.5134 7.33406 0 1.00006 0 0 0.325319 0.823979 0.000454424 0.000504094
619 1 17.4455 7.33042 0 0.998378 0 0 0.323353 0.863787 0.001019 0.000475168
620 1 18.529 7.27937 0 1.0023 0 0 0.305823 0.798482 0.000826608 2.00249e-05
670 1 18.8085 8.10203 0 1.00292 0 0 0.352941 0.991782 0.000476811 -0.000628253
671 1 19.7428 7.9935 0 1.00412 0 0 0.34855 0.992938 3.72705e-05 -0.000921419
621 1 19.6531 6.93936 0 1.00721 0 0 0.273439 0.638001 0.000789713 -0.00108912
622 1 20.6544 7.29458 0 1.00535 0 0 0.31431 0.869493 -0.000216415 -0.00157321
672 1 20.7072 8.13859 0 1.00433 0 0 0.359088 0.997665 -0.000182594 -0.000555502
623 1 21.6454 7.42617 0 1.00591 0 0 0.332405 0.854797 -0.000597686 -0.00123201
624 1 22.8071 7.68078 0 1.00539 0 0 0.350531 0.925437 -0.000148188 -0.000373493
575 1 23.78 6.56361 0 1.0113 0 0 0.271513 0.702722 -0.0013139 -0.000779515
576 1 24.5881 6.64587 0 1.0077 0 0 0.286535 0.940341 0.000261504 -0.000326769
625 1 23.8153 7.79738 0 1.00566 0 0 0.35095 0.989068 0.000292248 -0.000493756
626 1 24.6945 7.7572 0 1.00528 0 0 0.344898 0.999721 0.000550539 -0.000533794
627 1 25.6062 7.71114 0 1.00412 0 0 0.341533 0.999492 0.000848246 -0.000317912
628 1 26.4749 7.46377 0 1.00205 0 0 0.331605 0.982368 0.00121865 -8.55846e-05
629 1 27.3247 7.03393 0 1.00037 0 0 0.30402 0.842726 0.00127324 0.000208991
679 1 27.8138 7.87438 0 1.00215 0 0 0.353686 0.995929 0.00103802 -1.73772e-05
630 1 28.3557 6.95074 0 1.00044 0 0 0.296803 0.793755 0.000870371 0.00115773
631 1 29.4736 6.74324 0 0.999133 0 0 0.290502 0.784712 0.00114227 0.00181782
681 1 29.7848 7.63966 0 1.00043 0 0 0.346139 0.99443 0.000560316 -0.000371208
680 1 28.8074 7.79187 0 1.0013 0 0 0.352219 0.993972 0.000907058 4.61522e-05
632 1 30.4468 6.75545 0 0.998217 0 0 0.290196 0.79868 -7.81499e-05 0.000754911
682 1 30.8032 7.61554 0 1.00045 0 0 0.342489 0.988119 -0.000296733 -0.000449005
633 1 31.7871 6.67725 0 0.999085 0 0 0.255103 0.60111 -0.000701899 0.000221279
634 1 33.0483 6.71731 0 0.998404 0 0 0.253033 0.625477 -0.000103337 -0.000261148
683 1 31.8143 7.61401 0 1.00101 0 0 0.334956 0.982598 -0.000550882 -0.000426101
684 1 32.7915 7.65872 0 1.00114 0 0 0.33344 0.985849 -0.000444637 -0.000370813
635 1 34.0867 7.07881 0 0.999316 0 0 0.294179 0.849273 -0.000287106 -0.00049175
685 1 33.7258 7.93202 0 1.00188 0 0 0.348517 0.997187 -0.000318595 -0.00030411
686 1 34.777 8.03121 0 1.00198 0 0 0.353379 0.998235 -7.26217e-05 -0.000156803
636 1 35.0405 7.1184 0 0.999799 0 0 0.300458 0.839533 -0.00017814 -0.00034562
637 1 36.0223 7.25212 0 0.999332 0 0 0.308879 0.866232 0.000292088 0.000128766
687 1 35.8186 8.11026 0 1.00184 0 0 0.355968 0.997033 0.000213627 0.000109966