ITEM: TIMESTEP
37500
ITEM: NUMBER OF ATOMS
15950
ITEM: BOX BOUNDS pp pp pp
0.0000000000000000e+00 1.0000000000000000e+02
-5.0000000000000000e+00 2.0000000000000000e+02
-5.0000000000000000e-01 5.0000000000000000e-01
ITEM: ATOMS id type x y z c_rho c_phase c_nbond c_temp f_rheo_chi_chi fx fy
1 2 0 -5 0 1 2 8 1.21916e-08 1 0 0
2 2 1 -5 0 1 2 8 1.6219e-08 1 0 0
51 2 0 -4 0 1 2 8 5.63778e-08 1 0 0
52 2 1 -4 0 1 2 8 7.66172e-08 1 0 0
3 2 2 -5 0 1 2 8 2.95817e-08 1 0 0
4 2 3 -5 0 1 2 8 5.4018e-08 1 0 0
53 2 2 -4 0 1 2 8 1.44422e-07 1 0 0
54 2 3 -4 0 1 2 8 2.69411e-07 1 0 0
5 2 4 -5 0 1 2 7 9.25612e-08 1 0 0
55 2 4 -4 0 1 2 8 4.57703e-07 1 0 0
6 2 5 -5 0 1 2 6 1.49603e-07 1 0 0
7 2 6 -5 0 1 2 5 2.12862e-07 1 0 0
56 2 5 -4 0 1 2 8 7.02857e-07 1 0 0
57 2 6 -4 0 1 2 8 9.78391e-07 1 0 0
8 2 7 -5 0 1 2 5 2.71964e-07 1 0 0
9 2 8 -5 0 1 2 5 3.24646e-07 1 0 0
58 2 7 -4 0 1 2 8 1.25245e-06 1 0 0
59 2 8 -4 0 1 2 8 1.49889e-06 1 0 0
10 2 9 -5 0 1 2 5 3.68239e-07 1 0 0
60 2 9 -4 0 1 2 8 1.70319e-06 1 0 0
11 2 10 -5 0 1 2 5 4.0252e-07 1 0 0
12 2 11 -5 0 1 2 5 4.29277e-07 1 0 0
61 2 10 -4 0 1 2 8 1.86437e-06 1 0 0
62 2 11 -4 0 1 2 8 1.99095e-06 1 0 0
13 2 12 -5 0 1 2 5 4.50868e-07 1 0 0
14 2 13 -5 0 1 2 5 4.6883e-07 1 0 0
63 2 12 -4 0 1 2 8 2.09397e-06 1 0 0
64 2 13 -4 0 1 2 8 2.1803e-06 1 0 0
15 2 14 -5 0 1 2 5 4.83427e-07 1 0 0
65 2 14 -4 0 1 2 8 2.25045e-06 1 0 0
16 2 15 -5 0 1 2 5 4.94437e-07 1 0 0
17 2 16 -5 0 1 2 5 5.0223e-07 1 0 0
66 2 15 -4 0 1 2 8 2.30288e-06 1 0 0
67 2 16 -4 0 1 2 8 2.33972e-06 1 0 0
18 2 17 -5 0 1 2 5 5.0778e-07 1 0 0
19 2 18 -5 0 1 2 5 5.11618e-07 1 0 0
68 2 17 -4 0 1 2 8 2.36664e-06 1 0 0
69 2 18 -4 0 1 2 8 2.38682e-06 1 0 0
20 2 19 -5 0 1 2 5 5.13085e-07 1 0 0
70 2 19 -4 0 1 2 8 2.3969e-06 1 0 0
21 2 20 -5 0 1 2 5 5.10885e-07 1 0 0
22 2 21 -5 0 1 2 5 5.0447e-07 1 0 0
71 2 20 -4 0 1 2 8 2.38986e-06 1 0 0
72 2 21 -4 0 1 2 8 2.36231e-06 1 0 0
23 2 22 -5 0 1 2 5 4.95033e-07 1 0 0
24 2 23 -5 0 1 2 5 4.85432e-07 1 0 0
73 2 22 -4 0 1 2 8 2.31949e-06 1 0 0
74 2 23 -4 0 1 2 8 2.27495e-06 1 0 0
25 2 24 -5 0 1 2 5 4.79108e-07 1 0 0
75 2 24 -4 0 1 2 8 2.24543e-06 1 0 0
26 2 25 -5 0 1 2 5 4.78538e-07 1 0 0
27 2 26 -5 0 1 2 5 4.84051e-07 1 0 0
76 2 25 -4 0 1 2 8 2.24323e-06 1 0 0
77 2 26 -4 0 1 2 8 2.26996e-06 1 0 0
28 2 27 -5 0 1 2 5 4.93873e-07 1 0 0
29 2 28 -5 0 1 2 5 5.05398e-07 1 0 0
78 2 27 -4 0 1 2 8 2.31651e-06 1 0 0
79 2 28 -4 0 1 2 8 2.36984e-06 1 0 0
30 2 29 -5 0 1 2 5 5.16556e-07 1 0 0
80 2 29 -4 0 1 2 8 2.42033e-06 1 0 0
31 2 30 -5 0 1 2 5 5.26152e-07 1 0 0
32 2 31 -5 0 1 2 5 5.33366e-07 1 0 0
81 2 30 -4 0 1 2 8 2.46329e-06 1 0 0
82 2 31 -4 0 1 2 8 2.49565e-06 1 0 0
33 2 32 -5 0 1 2 5 5.37517e-07 1 0 0
34 2 33 -5 0 1 2 5 5.38509e-07 1 0 0
83 2 32 -4 0 1 2 8 2.51422e-06 1 0 0
84 2 33 -4 0 1 2 8 2.5183e-06 1 0 0
35 2 34 -5 0 1 2 5 5.37189e-07 1 0 0
85 2 34 -4 0 1 2 8 2.51193e-06 1 0 0
36 2 35 -5 0 1 2 5 5.34835e-07 1 0 0
37 2 36 -5 0 1 2 5 5.32133e-07 1 0 0
86 2 35 -4 0 1 2 8 2.50147e-06 1 0 0
87 2 36 -4 0 1 2 8 2.49022e-06 1 0 0
38 2 37 -5 0 1 2 5 5.28684e-07 1 0 0
39 2 38 -5 0 1 2 5 5.235e-07 1 0 0
88 2 37 -4 0 1 2 8 2.47584e-06 1 0 0
89 2 38 -4 0 1 2 8 2.45293e-06 1 0 0
40 2 39 -5 0 1 2 5 5.16056e-07 1 0 0
90 2 39 -4 0 1 2 8 2.4183e-06 1 0 0
41 2 40 -5 0 1 2 5 5.07181e-07 1 0 0
42 2 41 -5 0 1 2 5 4.99163e-07 1 0 0
91 2 40 -4 0 1 2 8 2.37557e-06 1 0 0
92 2 41 -4 0 1 2 8 2.33595e-06 1 0 0
43 2 42 -5 0 1 2 5 4.948e-07 1 0 0
44 2 43 -5 0 1 2 5 4.95697e-07 1 0 0
93 2 42 -4 0 1 2 8 2.31373e-06 1 0 0
94 2 43 -4 0 1 2 8 2.31754e-06 1 0 0
45 2 44 -5 0 1 2 5 5.0092e-07 1 0 0
95 2 44 -4 0 1 2 8 2.34315e-06 1 0 0
46 2 45 -5 0 1 2 5 5.0722e-07 1 0 0
47 2 46 -5 0 1 2 5 5.10995e-07 1 0 0
96 2 45 -4 0 1 2 8 2.37432e-06 1 0 0
97 2 46 -4 0 1 2 8 2.39284e-06 1 0 0
48 2 47 -5 0 1 2 5 5.10636e-07 1 0 0
49 2 48 -5 0 1 2 5 5.07448e-07 1 0 0
98 2 47 -4 0 1 2 8 2.39062e-06 1 0 0
99 2 48 -4 0 1 2 8 2.3744e-06 1 0 0
50 2 49 -5 0 1 2 5 5.04504e-07 1 0 0
100 2 49 -4 0 1 2 8 2.35976e-06 1 0 0
101 2 0 -3 0 1 2 8 2.39183e-07 1 0 0
102 2 1 -3 0 1 2 8 3.32794e-07 1 0 0
151 2 0 -2 0 1 2 8 9.22715e-07 1 0 0
152 2 1 -2 0 1 2 8 1.31704e-06 1 0 0
103 2 2 -3 0 1 2 8 6.50354e-07 1 0 0
104 2 3 -3 0 1 2 8 1.24631e-06 1 0 0
153 2 2 -2 0 1 2 8 2.67431e-06 1 0 0
154 2 3 -2 0 1 2 8 5.27736e-06 1 0 0
105 2 4 -3 0 1 2 8 2.15501e-06 1 0 0
155 2 4 -2 0 1 2 8 9.32303e-06 1 0 0
106 2 5 -3 0 1 2 8 3.33913e-06 1 0 0
107 2 6 -3 0 1 2 8 4.67947e-06 1 0 0
156 2 5 -2 0 1 2 8 1.46586e-05 1 0 0
157 2 6 -2 0 1 2 8 2.0726e-05 1 0 0
108 2 7 -3 0 1 2 8 6.01829e-06 1 0 0
109 2 8 -3 0 1 2 8 7.22176e-06 1 0 0
158 2 7 -2 0 1 2 8 2.67856e-05 1 0 0
159 2 8 -2 0 1 2 8 3.22262e-05 1 0 0
110 2 9 -3 0 1 2 8 8.21947e-06 1 0 0
160 2 9 -2 0 1 2 8 3.67406e-05 1 0 0
111 2 10 -3 0 1 2 8 9.00855e-06 1 0 0
112 2 11 -3 0 1 2 8 9.63207e-06 1 0 0
161 2 10 -2 0 1 2 8 4.03265e-05 1 0 0
162 2 11 -2 0 1 2 8 4.31832e-05 1 0 0
113 2 12 -3 0 1 2 8 1.01446e-05 1 0 0
114 2 13 -3 0 1 2 8 1.05782e-05 1 0 0
163 2 12 -2 0 1 2 8 4.55582e-05 1 0 0
164 2 13 -2 0 1 2 8 4.75893e-05 1 0 0
115 2 14 -3 0 1 2 8 1.09312e-05 1 0 0
165 2 14 -2 0 1 2 8 4.92472e-05 1 0 0
116 2 15 -3 0 1 2 8 1.11923e-05 1 0 0
117 2 16 -3 0 1 2 8 1.13741e-05 1 0 0
166 2 15 -2 0 1 2 8 5.04622e-05 1 0 0
167 2 16 -2 0 1 2 8 5.13003e-05 1 0 0
118 2 17 -3 0 1 2 8 1.15105e-05 1 0 0
119 2 18 -3 0 1 2 8 1.16213e-05 1 0 0
168 2 17 -2 0 1 2 8 5.19487e-05 1 0 0
169 2 18 -2 0 1 2 8 5.2517e-05 1 0 0
120 2 19 -3 0 1 2 8 1.1688e-05 1 0 0
170 2 19 -2 0 1 2 8 5.29103e-05 1 0 0
121 2 20 -3 0 1 2 8 1.1671e-05 1 0 0
122 2 21 -3 0 1 2 8 1.15493e-05 1 0 0
171 2 20 -2 0 1 2 8 5.29234e-05 1 0 0
172 2 21 -2 0 1 2 8 5.2444e-05 1 0 0
123 2 22 -3 0 1 2 8 1.1347e-05 1 0 0
124 2 23 -3 0 1 2 8 1.11312e-05 1 0 0
173 2 22 -2 0 1 2 8 5.15742e-05 1 0 0
174 2 23 -2 0 1 2 8 5.06179e-05 1 0 0
125 2 24 -3 0 1 2 8 1.09871e-05 1 0 0
175 2 24 -2 0 1 2 8 4.99736e-05 1 0 0
126 2 25 -3 0 1 2 8 1.0979e-05 1 0 0
127 2 26 -3 0 1 2 8 1.11154e-05 1 0 0
176 2 25 -2 0 1 2 8 4.99537e-05 1 0 0
177 2 26 -2 0 1 2 8 5.0601e-05 1 0 0
128 2 27 -3 0 1 2 8 1.13469e-05 1 0 0
129 2 28 -3 0 1 2 8 1.16045e-05 1 0 0
178 2 27 -2 0 1 2 8 5.16682e-05 1 0 0
179 2 28 -2 0 1 2 8 5.28161e-05 1 0 0
130 2 29 -3 0 1 2 8 1.18419e-05 1 0 0
180 2 29 -2 0 1 2 8 5.3839e-05 1 0 0
131 2 30 -3 0 1 2 8 1.20417e-05 1 0 0
132 2 31 -3 0 1 2 8 1.21932e-05 1 0 0
181 2 30 -2 0 1 2 8 5.46907e-05 1 0 0
182 2 31 -2 0 1 2 8 5.53458e-05 1 0 0
133 2 32 -3 0 1 2 8 1.22804e-05 1 0 0
134 2 33 -3 0 1 2 8 1.22976e-05 1 0 0
183 2 32 -2 0 1 2 8 5.57272e-05 1 0 0
184 2 33 -2 0 1 2 8 5.57951e-05 1 0 0
135 2 34 -3 0 1 2 8 1.2265e-05 1 0 0
185 2 34 -2 0 1 2 8 5.56436e-05 1 0 0
136 2 35 -3 0 1 2 8 1.22166e-05 1 0 0
137 2 36 -3 0 1 2 8 1.21692e-05 1 0 0
186 2 35 -2 0 1 2 8 5.54391e-05 1 0 0
187 2 36 -2 0 1 2 8 5.52635e-05 1 0 0
138 2 37 -3 0 1 2 8 1.21089e-05 1 0 0
139 2 38 -3 0 1 2 8 1.20051e-05 1 0 0
188 2 37 -2 0 1 2 8 5.50417e-05 1 0 0
189 2 38 -2 0 1 2 8 5.46148e-05 1 0 0
140 2 39 -3 0 1 2 8 1.1838e-05 1 0 0
190 2 39 -2 0 1 2 8 5.38761e-05 1 0 0
141 2 40 -3 0 1 2 8 1.16237e-05 1 0 0
142 2 41 -3 0 1 2 8 1.14193e-05 1 0 0
191 2 40 -2 0 1 2 8 5.28873e-05 1 0 0
192 2 41 -2 0 1 2 8 5.19163e-05 1 0 0
143 2 42 -3 0 1 2 8 1.13014e-05 1 0 0
144 2 43 -3 0 1 2 8 1.13184e-05 1 0 0
193 2 42 -2 0 1 2 8 5.13387e-05 1 0 0
194 2 43 -2 0 1 2 8 5.1407e-05 1 0 0
145 2 44 -3 0 1 2 8 1.14507e-05 1 0 0
195 2 44 -2 0 1 2 8 5.20369e-05 1 0 0
146 2 45 -3 0 1 2 8 1.16128e-05 1 0 0
147 2 46 -3 0 1 2 8 1.17077e-05 1 0 0
196 2 45 -2 0 1 2 8 5.28131e-05 1 0 0
197 2 46 -2 0 1 2 8 5.32591e-05 1 0 0
148 2 47 -3 0 1 2 8 1.16927e-05 1 0 0
149 2 48 -3 0 1 2 8 1.16046e-05 1 0 0
198 2 47 -2 0 1 2 8 5.31684e-05 1 0 0
199 2 48 -2 0 1 2 8 5.2726e-05 1 0 0
150 2 49 -3 0 1 2 8 1.15268e-05 1 0 0
200 2 49 -2 0 1 2 8 5.23433e-05 1 0 0
201 2 0 -1 0 1 2 8 3.20561e-06 1 0 0
202 2 1 -1 0 1 2 8 4.70068e-06 1 0 0
203 2 2 -1 0 1 2 8 9.93153e-06 1 0 0
204 2 3 -1 0 1 2 8 2.02131e-05 1 0 0
205 2 4 -1 0 1 2 8 3.6544e-05 1 0 0
206 2 5 -1 0 1 2 8 5.83687e-05 1 0 0
207 2 6 -1 0 1 2 8 8.32862e-05 1 0 0
208 2 7 -1 0 1 2 8 0.000108136 1 0 0
209 2 8 -1 0 1 2 8 0.000130416 1 0 0
210 2 9 -1 0 1 2 8 0.000148949 1 0 0
211 2 10 -1 0 1 2 8 0.000163777 1 0 0
212 2 11 -1 0 1 2 8 0.000175716 1 0 0
213 2 12 -1 0 1 2 8 0.000185769 1 0 0
214 2 13 -1 0 1 2 8 0.00019447 1 0 0
215 2 14 -1 0 1 2 8 0.000201605 1 0 0
216 2 15 -1 0 1 2 8 0.000206796 1 0 0
217 2 16 -1 0 1 2 8 0.000210359 1 0 0
218 2 17 -1 0 1 2 8 0.00021321 1 0 0
219 2 18 -1 0 1 2 8 0.000215886 1 0 0
220 2 19 -1 0 1 2 8 0.000217941 1 0 0
221 2 20 -1 0 1 2 8 0.000218426 1 0 0
222 2 21 -1 0 1 2 8 0.000216823 1 0 0
223 2 22 -1 0 1 2 8 0.000213528 1 0 0
224 2 23 -1 0 1 2 8 0.000209767 1 0 0
225 2 24 -1 0 1 2 8 0.000207206 1 0 0
226 2 25 -1 0 1 2 8 0.000207221 1 0 0
227 2 26 -1 0 1 2 8 0.00021002 1 0 0
228 2 27 -1 0 1 2 8 0.000214484 1 0 0
229 2 28 -1 0 1 2 8 0.000219099 1 0 0
230 2 29 -1 0 1 2 8 0.000223046 1 0 0
231 2 30 -1 0 1 2 8 0.000226296 1 0 0
232 2 31 -1 0 1 2 8 0.000228859 1 0 0
233 2 32 -1 0 1 2 8 0.000230389 1 0 0
234 2 33 -1 0 1 2 8 0.000230646 1 0 0
235 2 34 -1 0 1 2 8 0.00023002 1 0 0
236 2 35 -1 0 1 2 8 0.00022926 1 0 0
237 2 36 -1 0 1 2 8 0.00022872 1 0 0
238 2 37 -1 0 1 2 8 0.000228042 1 0 0
239 2 38 -1 0 1 2 8 0.000226497 1 0 0
240 2 39 -1 0 1 2 8 0.000223578 1 0 0
241 2 40 -1 0 1 2 8 0.000219485 1 0 0
242 2 41 -1 0 1 2 8 0.000215334 1 0 0
243 2 42 -1 0 1 2 8 0.000212787 1 0 0
244 2 43 -1 0 1 2 8 0.000213019 1 0 0
245 2 44 -1 0 1 2 8 0.000215718 1 0 0
246 2 45 -1 0 1 2 8 0.00021906 1 0 0
247 2 46 -1 0 1 2 8 0.000220937 1 0 0
248 2 47 -1 0 1 2 8 0.000220452 1 0 0
249 2 48 -1 0 1 2 8 0.000218449 1 0 0
250 2 49 -1 0 1 2 8 0.000216746 1 0 0
251 2 0 0 0 1 2 8 9.92843e-06 1 0 0
252 2 1 0 0 1 2 8 1.49638e-05 1 0 0
301 2 0 1 0 1 2 8 2.71528e-05 1 0 0
302 2 1 1 0 1 2 8 4.20148e-05 1 0 0
253 2 2 0 0 1 2 8 3.28928e-05 1 0 0
254 2 3 0 0 1 2 8 6.90916e-05 1 0 0
303 2 2 1 0 1 2 8 9.5829e-05 1 0 0
304 2 3 1 0 1 2 8 0.000207441 1 0 0
255 2 4 0 0 1 2 8 0.000128004 1 0 0
305 2 4 1 0 1 2 8 0.000393942 1 0 0
256 2 5 0 0 1 2 8 0.000207884 1 0 0
257 2 6 0 0 1 2 8 0.000299322 1 0 0
306 2 5 1 0 1 2 8 0.000650992 1 0 0
307 2 6 1 0 1 2 8 0.000945189 1 0 0
258 2 7 0 0 1 2 8 0.000390175 1 0 0
259 2 8 0 0 1 2 8 0.000471514 1 0 0
308 2 7 1 0 1 2 8 0.00123516 1 0 0
309 2 8 1 0 1 2 8 0.00149438 1 0 0
260 2 9 0 0 1 2 8 0.000539505 1 0 0
310 2 9 1 0 1 2 8 0.00171297 1 0 0
261 2 10 0 0 1 2 8 0.000594496 1 0 0
262 2 11 0 0 1 2 8 0.000639396 1 0 0
311 2 10 1 0 1 2 8 0.00189259 1 0 0
312 2 11 1 0 1 2 8 0.00204189 1 0 0
263 2 12 0 0 1 2 8 0.000677741 1 0 0
264 2 13 0 0 1 2 8 0.000711364 1 0 0
313 2 12 1 0 1 2 8 0.00217138 1 0 0
314 2 13 1 0 1 2 8 0.00228651 1 0 0
265 2 14 0 0 1 2 8 0.00073913 1 0 0
315 2 14 1 0 1 2 8 0.00238264 1 0 0
266 2 15 0 0 1 2 8 0.000759291 1 0 0
267 2 16 0 0 1 2 8 0.000773162 1 0 0
316 2 15 1 0 1 2 8 0.00245292 1 0 0
317 2 16 1 0 1 2 8 0.00250204 1 0 0
268 2 17 0 0 1 2 8 0.000784686 1 0 0
269 2 18 0 0 1 2 8 0.000796125 1 0 0
318 2 17 1 0 1 2 8 0.00254447 1 0 0
319 2 18 1 0 1 2 8 0.00258823 1 0 0
270 2 19 0 0 1 2 8 0.000805587 1 0 0
320 2 19 1 0 1 2 8 0.00262622 1 0 0
271 2 20 0 0 1 2 8 0.000809229 1 0 0
272 2 21 0 0 1 2 8 0.000805045 1 0 0
321 2 20 1 0 1 2 8 0.00264512 1 0 0
322 2 21 1 0 1 2 8 0.00263876 1 0 0
273 2 22 0 0 1 2 8 0.000794443 1 0 0
274 2 23 0 0 1 2 8 0.000781707 1 0 0
323 2 22 1 0 1 2 8 0.00261174 1 0 0
324 2 23 1 0 1 2 8 0.00257651 1 0 0
275 2 24 0 0 1 2 8 0.000772926 1 0 0
325 2 24 1 0 1 2 8 0.00255184 1 0 0
276 2 25 0 0 1 2 8 0.000773496 1 0 0
277 2 26 0 0 1 2 8 0.000784363 1 0 0
326 2 25 1 0 1 2 8 0.00255616 1 0 0
327 2 26 1 0 1 2 8 0.00259336 1 0 0
278 2 27 0 0 1 2 8 0.000801058 1 0 0
279 2 28 0 0 1 2 8 0.000817543 1 0 0
328 2 27 1 0 1 2 8 0.00264813 1 0 0
329 2 28 1 0 1 2 8 0.00269951 1 0 0
280 2 29 0 0 1 2 8 0.000830947 1 0 0
330 2 29 1 0 1 2 8 0.00273881 1 0 0
281 2 30 0 0 1 2 8 0.000841876 1 0 0
282 2 31 0 0 1 2 8 0.00085085 1 0 0
331 2 30 1 0 1 2 8 0.00277067 1 0 0
332 2 31 1 0 1 2 8 0.00279847 1 0 0
283 2 32 0 0 1 2 8 0.000856436 1 0 0
284 2 33 0 0 1 2 8 0.0008574 1 0 0
333 2 32 1 0 1 2 8 0.00281691 1 0 0
334 2 33 1 0 1 2 8 0.00282061 1 0 0
285 2 34 0 0 1 2 8 0.000855175 1 0 0
335 2 34 1 0 1 2 8 0.0028141 1 0 0
286 2 35 0 0 1 2 8 0.00085277 1 0 0
287 2 36 0 0 1 2 8 0.000851547 1 0 0
336 2 35 1 0 1 2 8 0.00280802 1 0 0
337 2 36 1 0 1 2 8 0.0028069 1 0 0
288 2 37 0 0 1 2 8 0.000849987 1 0 0
289 2 38 0 0 1 2 8 0.000845199 1 0 0
338 2 37 1 0 1 2 8 0.00280511 1 0 0
339 2 38 1 0 1 2 8 0.00279294 1 0 0
290 2 39 0 0 1 2 8 0.000835117 1 0 0
340 2 39 1 0 1 2 8 0.00276347 1 0 0
291 2 40 0 0 1 2 8 0.000820233 1 0 0
292 2 41 0 0 1 2 8 0.000804597 1 0 0
341 2 40 1 0 1 2 8 0.00271736 1 0 0
342 2 41 1 0 1 2 8 0.00266687 1 0 0
293 2 42 0 0 1 2 8 0.000794679 1 0 0
294 2 43 0 0 1 2 8 0.000795317 1 0 0
343 2 42 1 0 1 2 8 0.0026337 1 0 0
344 2 43 1 0 1 2 8 0.00263496 1 0 0
295 2 44 0 0 1 2 8 0.000805513 1 0 0
345 2 44 1 0 1 2 8 0.00266807 1 0 0
296 2 45 0 0 1 2 8 0.000818195 1 0 0
297 2 46 0 0 1 2 8 0.000825105 1 0 0
346 2 45 1 0 1 2 8 0.00270933 1 0 0
347 2 46 1 0 1 2 8 0.00273091 1 0 0
298 2 47 0 0 1 2 8 0.000822853 1 0 0
299 2 48 0 0 1 2 8 0.000814833 1 0 0
348 2 47 1 0 1 2 8 0.00272198 1 0 0
349 2 48 1 0 1 2 8 0.00269439 1 0 0
300 2 49 0 0 1 2 8 0.000808131 1 0 0
350 2 49 1 0 1 2 8 0.00267169 1 0 0
351 2 0 2 0 1 2 8 6.50749e-05 1 0 0
352 2 1 2 0 1 2 8 0.000103076 1 0 0
401 2 0 3 0 1 2 8 0.000136145 1 0 0
402 2 1 3 0 1 2 8 0.000219884 1 0 0
353 2 2 2 0 1 2 8 0.000242405 1 0 0
354 2 3 2 0 1 2 8 0.000537431 1 0 0
403 2 2 3 0 1 2 8 0.000528168 1 0 0
404 2 3 3 0 1 2 8 0.00118334 1 0 0
355 2 4 2 0 1 2 8 0.00104331 1 0 0
405 2 4 3 0 1 2 8 0.0023157 1 0 0
356 2 5 2 0 1 2 8 0.00175486 1 0 0
357 2 6 2 0 1 2 8 0.00256417 1 0 0
406 2 5 3 0 1 2 8 0.0039735 1 0 0
407 2 6 3 0 1 2 8 0.00582867 1 0 0
358 2 7 2 0 1 2 8 0.00334846 1 0 0
359 2 8 2 0 1 2 8 0.00404912 1 0 0
408 2 7 3 0 1 2 8 0.00754608 1 0 0
409 2 8 3 0 1 2 8 0.00909246 1 0 0
360 2 9 2 0 1 2 8 0.00464906 1 0 0
410 2 9 3 0 1 2 8 0.0104527 1 0 0
361 2 10 2 0 1 2 8 0.00515309 1 0 0
362 2 11 2 0 1 2 8 0.00558176 1 0 0
411 2 10 3 0 1 2 8 0.0116283 1 0 0
412 2 11 3 0 1 2 8 0.0126585 1 0 0
363 2 12 2 0 1 2 8 0.00595997 1 0 0
364 2 13 2 0 1 2 8 0.00630101 1 0 0
413 2 12 3 0 1 2 8 0.0135861 1 0 0
414 2 13 3 0 1 2 8 0.0144335 1 0 0
365 2 14 2 0 1 2 8 0.00659047 1 0 0
415 2 14 3 0 1 2 8 0.0151713 1 0 0
366 2 15 2 0 1 2 8 0.0068066 1 0 0
367 2 16 2 0 1 2 8 0.00696304 1 0 0
416 2 15 3 0 1 2 8 0.0157448 1 0 0
417 2 16 3 0 1 2 8 0.0161846 1 0 0
368 2 17 2 0 1 2 8 0.00710333 1 0 0
369 2 18 2 0 1 2 8 0.00725022 1 0 0
418 2 17 3 0 1 2 8 0.0165928 1 0 0
419 2 18 3 0 1 2 8 0.0170167 1 0 0
370 2 19 2 0 1 2 8 0.00738095 1 0 0
420 2 19 3 0 1 2 8 0.0173962 1 0 0
371 2 20 2 0 1 2 8 0.00745753 1 0 0
372 2 21 2 0 1 2 8 0.0074664 1 0 0
421 2 20 3 0 1 2 8 0.017645 1 0 0
422 2 21 3 0 1 2 8 0.0177506 1 0 0
373 2 22 2 0 1 2 8 0.00742149 1 0 0
374 2 23 2 0 1 2 8 0.00735052 1 0 0
423 2 22 3 0 1 2 8 0.0177542 1 0 0
424 2 23 3 0 1 2 8 0.0176903 1 0 0
375 2 24 2 0 1 2 8 0.00729996 1 0 0
425 2 24 3 0 1 2 8 0.0176427 1 0 0
376 2 25 2 0 1 2 8 0.00732274 1 0 0
377 2 26 2 0 1 2 8 0.00743228 1 0 0
426 2 25 3 0 1 2 8 0.0177379 1 0 0
427 2 26 3 0 1 2 8 0.0180067 1 0 0
378 2 27 2 0 1 2 8 0.00758599 1 0 0
379 2 28 2 0 1 2 8 0.00772267 1 0 0
428 2 27 3 0 1 2 8 0.0183679 1 0 0
429 2 28 3 0 1 2 8 0.0186733 1 0 0
380 2 29 2 0 1 2 8 0.00782029 1 0 0
430 2 29 3 0 1 2 8 0.0188754 1 0 0
381 2 30 2 0 1 2 8 0.00789984 1 0 0
382 2 31 2 0 1 2 8 0.00797532 1 0 0
431 2 30 3 0 1 2 8 0.0190477 1 0 0
432 2 31 3 0 1 2 8 0.0192278 1 0 0
383 2 32 2 0 1 2 8 0.00802985 1 0 0
384 2 33 2 0 1 2 8 0.008044 1 0 0
433 2 32 3 0 1 2 8 0.019372 1 0 0
434 2 33 3 0 1 2 8 0.0194235 1 0 0
385 2 34 2 0 1 2 8 0.00802971 1 0 0
435 2 34 3 0 1 2 8 0.0194046 1 0 0
386 2 35 2 0 1 2 8 0.0080195 1 0 0
387 2 36 2 0 1 2 8 0.00802566 1 0 0
436 2 35 3 0 1 2 8 0.019404 1 0 0
437 2 36 3 0 1 2 8 0.0194473 1 0 0
388 2 37 2 0 1 2 8 0.00803029 1 0 0
389 2 38 2 0 1 2 8 0.00800693 1 0 0
438 2 37 3 0 1 2 8 0.019483 1 0 0
439 2 38 3 0 1 2 8 0.0194564 1 0 0
390 2 39 2 0 1 2 8 0.00793788 1 0 0
440 2 39 3 0 1 2 8 0.019341 1 0 0
391 2 40 2 0 1 2 8 0.00782202 1 0 0
392 2 41 2 0 1 2 8 0.00768811 1 0 0
441 2 40 3 0 1 2 8 0.0191281 1 0 0
442 2 41 3 0 1 2 8 0.0188535 1 0 0
393 2 42 2 0 1 2 8 0.00759671 1 0 0
394 2 43 2 0 1 2 8 0.00759803 1 0 0
443 2 42 3 0 1 2 8 0.0186593 1 0 0
444 2 43 3 0 1 2 8 0.0186595 1 0 0
395 2 44 2 0 1 2 8 0.00768697 1 0 0
445 2 44 3 0 1 2 8 0.0188484 1 0 0
396 2 45 2 0 1 2 8 0.00779772 1 0 0
397 2 46 2 0 1 2 8 0.00785229 1 0 0
446 2 45 3 0 1 2 8 0.0190839 1 0 0
447 2 46 3 0 1 2 8 0.0191883 1 0 0
398 2 47 2 0 1 2 8 0.00782316 1 0 0
399 2 48 2 0 1 2 8 0.00774504 1 0 0
448 2 47 3 0 1 2 8 0.0191137 1 0 0
449 2 48 3 0 1 2 8 0.0189451 1 0 0
400 2 49 2 0 1 2 8 0.00768165 1 0 0
450 2 49 3 0 1 2 8 0.0188055 1 0 0
451 2 0 4 0 1 2 8 0.000249021 1 0 0
452 2 1 4 0 1 2 8 0.000408565 1 0 0
453 2 2 4 0 1 2 8 0.000994575 1 0 0
454 2 3 4 0 1 2 8 0.00221511 1 0 0
455 2 4 4 0 1 2 7 0.00418722 1 0 0
456 2 5 4 0 1 2 6 0.00734349 1 0 0
457 2 6 4 0 1 2 5 0.0105589 1 0 0
506 1 5.49322 4.86989 0 1.0006 2 0 0.0123962 1 1.25226e-05 -2.79139e-05
507 1 6.49417 4.8656 0 1.02569 2 0 0.0154159 1 0.000577702 0.000933103
458 2 7 4 0 1 2 5 0.013326 1 0 0
459 2 8 4 0 1 2 5 0.0159223 1 0 0
508 1 7.49825 4.86418 0 1.03193 2 0 0.0184635 1 -0.00725439 7.17967e-05
460 2 9 4 0 1 2 5 0.0182877 1 0 0
510 1 8.49527 4.86568 0 1.01036 2 0 0.0213733 1 0.00810639 0.00377477
511 1 9.49782 4.86402 0 1.00136 2 0 0.024091 1 0.000125978 -0.000522959
461 2 10 4 0 1 2 5 0.0204061 1 0 0
462 2 11 4 0 1 2 5 0.0223427 1 0 0
512 1 10.4991 4.86561 0 1.01573 2 0 0.0266826 1 0.00103242 -0.00764383
513 1 11.4992 4.86491 0 1.01534 2 0 0.0291469 1 -0.00224106 -0.00294412
463 2 12 4 0 1 2 5 0.0241292 1 0 0
464 2 13 4 0 1 2 5 0.025776 1 0 0
514 1 12.498 4.86358 0 1.01802 2 0 0.0314493 1 0.0040016 0.00200184
465 2 14 4 0 1 2 5 0.0272574 1 0 0
515 1 13.4987 4.86427 0 1.02031 2 0 0.0335962 1 0.000907793 -0.00117453
516 1 14.4992 4.86371 0 1.0096 2 0 0.035563 1 -0.000603007 0.00335664
466 2 15 4 0 1 2 5 0.0284869 1 0 0
467 2 16 4 0 1 2 5 0.0295063 1 0 0
518 1 16.4993 4.86379 0 1.02515 2 0 0.0389804 1 0.000557525 -0.00170462
517 1 15.4992 4.86423 0 1.02614 2 0 0.0373326 1 -0.000609568 -0.00171906
468 2 17 4 0 1 2 5 0.0304729 1 0 0
469 2 18 4 0 1 2 5 0.0314367 1 0 0
519 1 17.5006 4.86482 0 1.0239 2 0 0.0405225 1 0.000946281 -0.00566388
470 2 19 4 0 1 2 5 0.0322954 1 0 0
520 1 18.5005 4.86379 0 1.00577 2 0 0.0419305 1 -0.00247542 0.00148949
521 1 19.5016 4.86327 0 1.00453 2 0 0.0431633 1 -0.0038918 0.000511397
471 2 20 4 0 1 2 5 0.0329203 1 0 0
472 2 21 4 0 1 2 5 0.0333342 1 0 0
523 1 21.5022 4.86185 0 1.02268 2 0 0.0451536 1 0.00107761 6.85085e-05
522 1 20.5028 4.86154 0 1.0139 2 0 0.0442111 1 -0.00124627 0.00148099
473 2 22 4 0 1 2 5 0.0336338 1 0 0
474 2 23 4 0 1 2 5 0.0338044 1 0 0
524 1 22.5024 4.86187 0 1.01383 2 0 0.0459977 1 -7.28277e-05 -0.00144953
475 2 24 4 0 1 2 5 0.0339366 1 0 0
525 1 23.5018 4.86178 0 1.03669 2 0 0.0467331 1 0.00264893 -0.000935602
526 1 24.5018 4.86167 0 1.04245 2 0 0.0474449 1 0.00103235 0.00114955
476 2 25 4 0 1 2 5 0.0342438 1 0 0
477 2 26 4 0 1 2 5 0.0347603 1 0 0
528 1 26.5034 4.86143 0 1.04147 2 0 0.048958 1 -0.00213544 0.00194952
527 1 25.5028 4.8622 0 1.03798 2 0 0.0481897 1 -0.00259225 -0.000956021
478 2 27 4 0 1 2 5 0.0354109 1 0 0
479 2 28 4 0 1 2 5 0.0359476 1 0 0
529 1 27.5032 4.86226 0 1.0019 2 0 0.0496795 1 -0.00238379 -0.00142927
480 2 29 4 0 1 2 5 0.0363055 1 0 0
531 1 29.5013 4.86202 0 1.01679 2 0 0.0508945 1 0.00149812 0.00030951
530 1 28.5018 4.86218 0 1.02091 2 0 0.0503235 1 0.00181142 -0.000861704
481 2 30 4 0 1 2 5 0.0366358 1 0 0
482 2 31 4 0 1 2 5 0.0369949 1 0 0
533 1 31.5019 4.86225 0 1.004 2 0 0.0519241 1 -0.000846925 -0.00303865
532 1 30.5024 4.86228 0 1.0182 2 0 0.0514259 1 -0.00295588 -0.00228673
483 2 32 4 0 1 2 5 0.0373091 1 0 0
484 2 33 4 0 1 2 5 0.0374669 1 0 0
534 1 32.502 4.86128 0 1.00171 2 0 0.0523318 1 -0.00141148 0.00145701
485 2 34 4 0 1 2 5 0.0374846 1 0 0
535 1 33.5024 4.86296 0 1.00275 2 0 0.0526203 1 -0.00405367 -0.00492277
536 1 34.5016 4.86208 0 1.0237 2 0 0.0528451 1 0.000510367 0.00190112
486 2 35 4 0 1 2 5 0.0375489 1 0 0
487 2 36 4 0 1 2 5 0.037697 1 0 0
538 1 36.5015 4.86314 0 1.01227 2 0 0.0533532 1 0.00013504 -0.00335678
537 1 35.5017 4.8619 0 1.0067 2 0 0.0531027 1 -0.00188105 0.00154624
488 2 37 4 0 1 2 5 0.0378148 1 0 0
489 2 38 4 0 1 2 5 0.0378289 1 0 0
539 1 37.5013 4.86291 0 1.00174 2 0 0.0535191 1 -0.000260222 0.00043451
490 2 39 4 0 1 2 5 0.0377365 1 0 0
541 1 39.5014 4.86306 0 1.00168 2 0 0.0536209 1 -0.000831541 0.00108865
540 1 38.5019 4.86341 0 1.01715 2 0 0.0536123 1 -0.00262478 0.000424499
491 2 40 4 0 1 2 5 0.0375169 1 0 0
492 2 41 4 0 1 2 5 0.0371578 1 0 0
542 1 40.5005 4.86391 0 1.01016 2 0 0.0535654 1 0.00161897 -0.00460113
543 1 41.5008 4.86232 0 1.03252 2 0 0.0535158 1 -0.00112213 0.0045058
493 2 42 4 0 1 2 5 0.0369029 1 0 0
494 2 43 4 0 1 2 5 0.0369204 1 0 0
544 1 42.5005 4.86317 0 1.0319 2 0 0.053565 1 -0.00325976 0.000413098
495 2 44 4 0 1 2 5 0.0371997 1 0 0
545 1 43.4988 4.86303 0 1.03659 2 0 0.0536986 1 0.00535043 0.000997934
546 1 44.499 4.86313 0 1.01001 2 0 0.053871 1 0.00193811 0.00115958
496 2 45 4 0 1 2 5 0.037547 1 0 0
497 2 46 4 0 1 2 5 0.0376854 1 0 0
548 1 46.4999 4.86432 0 1.00807 2 0 0.0541593 1 -0.000811065 -0.00499671
547 1 45.5006 4.86294 0 1.00173 2 0 0.0540543 1 -0.00371242 0.0026352
498 2 47 4 0 1 2 5 0.0375712 1 0 0
499 2 48 4 0 1 2 5 0.0373488 1 0 0
549 1 47.499 4.864 0 1.02093 2 0 0.0541716 1 0.00191209 -0.00407677
500 2 49 4 0 1 2 5 0.0371649 1 0 0
550 1 48.4991 4.86269 0 1.02225 2 0 0.0542164 1 -0.000301443 0.00103851
8501 1 49.4987 4.8621 0 1.06187 2 0 0.0543169 1 0.00310895 0.00263146
501 2 0 5 0 1 2 8 0.000401534 1 0 0
502 2 1 5 0 1 2 8 0.00066703 1 0 0
551 2 0 6 0 1 2 8 0.00057973 1 0 0
552 2 1 6 0 1 2 8 0.000972365 1 0 0
503 2 2 5 0 1 2 8 0.00163734 1 0 0
504 2 3 5 0 1 2 8 0.0036319 1 0 0
553 2 2 6 0 1 2 8 0.00239612 1 0 0
554 2 3 6 0 1 2 8 0.00527978 1 0 0
505 2 4 5 0 1 2 6 0.00676555 1 0 0
555 2 4 6 0 1 2 5 0.00953053 1 0 0
556 1 4.96044 5.72281 0 1.02426 2 0 0.0132516 1 0.000691797 -0.000249658
557 1 5.98199 5.74244 0 1.00456 2 0 0.0170623 1 -0.0019402 -0.00426329
558 1 6.98634 5.733 0 1.00032 2 0 0.0204937 1 0.00164192 0.00289485
509 1 7.99056 5.73103 0 1.00999 2 0 0.0239591 1 0.00132777 -0.000990563
560 1 8.99836 5.72938 0 1.01571 2 0 0.0272404 1 -0.00476552 -0.000263508
561 1 9.99688 5.72723 0 1.04128 2 0 0.0304344 1 0.00394525 0.00630202
562 1 10.9987 5.72903 0 1.02468 2 0 0.0335133 1 0.0017233 -0.000547375
563 1 11.999 5.72853 0 1.00884 2 0 0.0364284 1 -0.00470129 0.000762883
565 1 12.9978 5.7279 0 1.01555 2 0 0.0392171 1 0.000723717 0.00263243
566 1 13.9976 5.72851 0 1.01485 2 0 0.0418425 1 0.00216068 -0.00225194
567 1 14.9983 5.72824 0 1.00349 2 0 0.0442827 1 0.000143865 -0.00232344
568 1 15.9992 5.72703 0 1.02492 2 0 0.0465877 1 0.00190801 0.00208955
569 1 18 5.72905 0 1.01386 2 0 0.0507053 1 0.00249027 -0.00417787
618 1 17.0001 5.72651 0 1.00786 2 0 0.048737 1 -0.00334656 0.00400394
570 1 19 5.72709 0 1.00562 2 0 0.0524897 1 0.00175237 -0.00112953
571 1 20.0052 5.72337 0 1.00943 2 0 0.0541109 1 0.0015782 0.00406502
572 1 21.0047 5.72397 0 1.02492 2 0 0.0556342 1 0.00132321 -0.000242967
573 1 22.0056 5.72304 0 1.00977 2 0 0.0570221 1 -0.00100027 0.00130032
574 1 23.0056 5.7235 0 1.00488 2 0 0.0582857 1 -0.00418549 0.000482119
575 1 24.0045 5.72369 0 1.01237 2 0 0.0594737 1 -0.000528573 0.000107841
576 1 25.0035 5.72434 0 1.01087 2 0 0.0605708 1 0.00120033 -0.00343904
577 1 26.0047 5.7232 0 1.01133 2 0 0.0615897 1 6.50695e-05 0.000234393
579 1 27.0053 5.72348 0 1.01129 2 0 0.0625195 1 -0.0015876 0.00298232
580 1 28.0048 5.72485 0 1.02117 2 0 0.0634109 1 -0.00338425 -0.00102433
581 1 29.0033 5.72421 0 1.01861 2 0 0.0642377 1 0.00393666 -5.37388e-05
632 1 30.0033 5.72412 0 1.0167 2 0 0.0649342 1 -0.000762936 -0.00251263
582 1 31.0026 5.72392 0 1.0143 2 0 0.0655846 1 0.0025166 0.00109425
583 1 32.0026 5.72307 0 1.0088 2 0 0.0661691 1 -0.000777167 0.00359106
584 1 33.0014 5.72378 0 1.00514 2 0 0.0666913 1 0.00273944 0.00146878
585 1 34.0018 5.72462 0 1.02197 2 0 0.0671834 1 0.00216761 0.000671573
586 1 35.0025 5.72458 0 1.02669 2 0 0.0676014 1 -0.00137714 -0.000287459
587 1 36.0017 5.72452 0 1.01702 2 0 0.0679834 1 0.00230332 0.00139786
588 1 37.0017 5.72582 0 1.01798 2 0 0.068285 1 2.75964e-05 -0.000806268
589 1 38.0013 5.72641 0 1.01656 2 0 0.068503 1 0.00165593 -0.000115882
590 1 39.003 5.72657 0 1.01208 2 0 0.0686572 1 -0.00243072 -0.000166251
591 1 40.002 5.72703 0 1.01334 2 0 0.0688028 1 -0.00263343 -0.00216149
592 1 41.0011 5.72608 0 1.02633 2 0 0.0690175 1 0.00320638 0.000846907
594 1 43.0001 5.72669 0 1.01497 2 0 0.0693155 1 -0.000117947 0.000112832
593 1 42.0005 5.72657 0 1.02837 2 0 0.069207 1 0.00107682 -0.000470265
595 1 43.9995 5.72645 0 1.01694 2 0 0.0693643 1 -9.68507e-05 -0.000224563
596 1 44.9993 5.72701 0 1.01116 2 0 0.0694527 1 2.82377e-05 -0.0067838
597 1 45.999 5.72674 0 1.01212 2 0 0.0696493 1 0.00148937 -7.0232e-05
598 1 46.999 5.72723 0 1.00861 2 0 0.0698327 1 0.000832886 -0.000195803
599 1 47.9992 5.72598 0 1.02545 2 0 0.0700196 1 0.00166535 0.000571502
600 1 48.9998 5.72511 0 1.00476 2 0 0.0702394 1 -0.00194046 0.00221261
8551 1 49.9994 5.72539 0 0.994864 2 0 0.0703162 1 -0.00163844 0.00040894
601 2 0 7 0 1 2 8 0.000764616 1 0 0
602 2 1 7 0 1 2 8 0.00129335 1 0 0
651 2 0 8 0 1 2 8 0.000938844 1 0 0
652 2 1 8 0 1 2 8 0.00160143 1 0 0
603 2 2 7 0 1 2 8 0.00319872 1 0 0
604 2 3 7 0 1 2 8 0.00703364 1 0 0
653 2 2 8 0 1 2 8 0.00397991 1 0 0
654 2 3 8 0 1 2 8 0.0087867 1 0 0
605 2 4 7 0 1 2 5 0.012454 1 0 0
655 2 4 8 0 1 2 5 0.0152723 1 0 0
656 1 4.87635 7.49109 0 1.01253 2 0 0.0179103 1 -0.00116183 -8.0328e-05
606 1 5.39582 6.63015 0 1.01839 2 0 0.0179211 1 0 -5e-05
607 1 6.39929 6.64865 0 1.01626 2 0 0.0219627 1 0.000387752 0.00202518
657 1 5.87542 7.51717 0 1.02523 2 0 0.0227909 1 0.000770382 -0.000544056
608 1 7.49011 6.59567 0 1.01581 2 0 0.0261297 1 0.000125286 -0.00427414
609 1 7.98452 7.46237 0 1.00447 2 0 0.0319723 1 0.00389465 -0.000676388
658 1 6.98605 7.45677 0 1.00499 2 0 0.0276457 1 -0.00392483 0.00558809
559 1 8.49218 6.59298 0 1.01669 2 0 0.0299074 1 0.00182966 0.00311289
610 1 9.49942 6.59311 0 1.00382 2 0 0.0336636 1 -0.000159343 -0.00715175
661 1 8.9994 7.45378 0 1.00906 2 0 0.0362579 1 -0.00514771 0.00281657
612 1 9.9974 7.45768 0 1.00002 2 0 0.0404774 1 0.00440508 -0.00575534
611 1 10.4981 6.59192 0 1.00368 2 0 0.0373264 1 -0.00266522 0.00117112
564 1 11.4975 6.59368 0 1.01095 2 0 0.0408584 1 -0.00151476 -0.00603128
613 1 10.9961 7.45654 0 1.00877 2 0 0.0446365 1 0.00254962 0.00472857
614 1 12.4959 6.59274 0 1.01882 2 0 0.0442696 1 0.00568474 0.00168524
665 1 12.9975 7.45629 0 1.00809 2 0 0.0526049 1 -0.00309981 -0.00297553
664 1 11.9952 7.45734 0 1.0022 2 0 0.0486848 1 0.00227444 0.00206202
615 1 13.4975 6.59223 0 1.00601 2 0 0.0475493 1 -0.00260769 -0.00376743
616 1 14.4985 6.59204 0 1.00878 2 0 0.0506337 1 -0.000366162 -0.00226369
666 1 13.9967 7.45412 0 0.997531 2 0 0.0563498 1 0.000646053 0.00708842
667 1 14.9996 7.45452 0 1.00922 2 0 0.0599378 1 -0.000488602 -0.000662628
617 1 15.5001 6.59049 0 1.01132 2 0 0.0535699 1 -0.00186979 0.00266979
668 1 15.9994 7.45466 0 1.01232 2 0 0.0633632 1 -0.00241544 -0.000883629
619 1 16.4996 6.59142 0 1.00791 2 0 0.0563576 1 -0.00203831 -0.00409617
669 1 17.4977 6.59057 0 1.0115 2 0 0.0589622 1 0.00339641 0.00300719
719 1 16.9991 7.45551 0 1.0104 2 0 0.0666083 1 -0.0003085 -0.000289445
720 1 17.9995 7.45292 0 1.00384 2 0 0.0696644 1 -0.00211214 0.00468825
620 1 18.5021 6.59164 0 1.00047 2 0 0.0613697 1 -0.000619201 -0.00273141
621 1 19.5086 6.58581 0 1.01086 2 0 0.0635892 1 0.000255503 -0.0010617
670 1 19.0126 7.44801 0 1.01205 2 0 0.0725188 1 -0.000890167 0.000735818
671 1 20.0121 7.44751 0 1.01101 2 0 0.0751961 1 0.00108218 0.00102393
622 1 20.5084 6.5864 0 1.02282 2 0 0.0656883 1 4.47638e-05 -0.00445614
623 1 21.5089 6.58537 0 1.01715 2 0 0.0676013 1 -0.00379285 -0.000377094
672 1 21.0121 7.44755 0 1.01032 2 0 0.0776475 1 -0.000482141 0.000626216
673 1 22.0116 7.44744 0 1.00705 2 0 0.0798609 1 -0.00283401 0.00378608
624 1 22.5071 6.58518 0 1.00933 2 0 0.0693067 1 0.00420861 0.00046356
674 1 23.0102 7.44793 0 1.01197 2 0 0.0819003 1 -0.00156309 -0.00129854
625 1 23.5061 6.58572 0 1.01358 2 0 0.0709078 1 0.00237384 0.000853447
626 1 24.5051 6.5863 0 1.01095 2 0 0.0723965 1 0.00305837 -0.00202227
675 1 24.0091 7.44837 0 1.00974 2 0 0.0838098 1 0.000370146 -0.00147786
676 1 25.0086 7.44721 0 1.01754 2 0 0.0855449 1 -0.000395313 0.00273226
578 1 26.5054 6.58498 0 1.0136 2 0 0.075019 1 0.00475113 0.00198546
628 1 26.0089 7.44699 0 1.00647 2 0 0.08713 1 -0.00298036 0.00297599
627 1 25.5059 6.58507 0 1.0116 2 0 0.073763 1 0.000809042 0.00143533
629 1 27.506 6.58681 0 1.00585 2 0 0.0762021 1 -6.23031e-05 -0.00389535
679 1 28.007 7.44865 0 1.01276 2 0 0.0900084 1 0.00311074 -0.00257725
678 1 27.0085 7.44823 0 1.01987 2 0 0.088615 1 -0.00427258 -0.0022275
630 1 28.5063 6.58652 0 1.00031 2 0 0.077334 1 -0.00149037 0.00131168
631 1 29.5061 6.58594 0 1.01679 2 0 0.078333 1 -0.00465256 0.00085557
680 1 29.0073 7.44827 0 1.0041 2 0 0.0913059 1 -0.000647868 -0.00130048
681 1 30.0068 7.44798 0 1.0067 2 0 0.0924891 1 -0.00102318 0.00089357
682 1 30.5047 6.58606 0 1.0233 2 0 0.0791842 1 0.00232466 -0.000447783
633 1 31.5043 6.58575 0 1.00197 2 0 0.0799515 1 -0.00124235 0.00113411
732 1 31.0057 7.44824 0 1.02086 2 0 0.0935077 1 0.00311527 -0.00166668
683 1 32.0051 7.44891 0 1.00602 2 0 0.0944131 1 0.000490011 -0.00196965
684 1 32.5029 6.58635 0 1.01173 2 0 0.080664 1 0.00180492 -4.1726e-05
734 1 33.0051 7.44894 0 1.01306 2 0 0.0952725 1 -0.00201992 -0.000640113
634 1 33.5021 6.58624 0 1.00318 2 0 0.0813509 1 0.00307754 0.000939719
635 1 34.5027 6.58685 0 1.01335 2 0 0.081999 1 0.0010742 -0.00119991
685 1 34.0044 7.44892 0 1.01182 2 0 0.096081 1 -0.00165235 -0.000261763
686 1 35.0034 7.44947 0 1.01566 2 0 0.0968152 1 0.00259727 -0.00160517