ITEM: TIMESTEP
28500
ITEM: NUMBER OF ATOMS
15950
ITEM: BOX BOUNDS pp pp pp
0.0000000000000000e+00 1.0000000000000000e+02
-5.0000000000000000e+00 2.0000000000000000e+02
-5.0000000000000000e-01 5.0000000000000000e-01
ITEM: ATOMS id type x y z c_rho c_phase c_nbond c_temp f_rheo_chi_chi fx fy
1 2 0 -5 0 1 2 8 1.81475e-09 1 0 0
2 2 1 -5 0 1 2 8 2.55178e-09 1 0 0
51 2 0 -4 0 1 2 8 9.95946e-09 1 0 0
52 2 1 -4 0 1 2 8 1.43987e-08 1 0 0
3 2 2 -5 0 1 2 8 5.03173e-09 1 0 0
4 2 3 -5 0 1 2 8 9.68908e-09 1 0 0
53 2 2 -4 0 1 2 8 2.95597e-08 1 0 0
54 2 3 -4 0 1 2 8 5.84918e-08 1 0 0
5 2 4 -5 0 1 2 7 1.7114e-08 1 0 0
55 2 4 -4 0 1 2 8 1.03295e-07 1 0 0
6 2 5 -5 0 1 2 6 2.79384e-08 1 0 0
7 2 6 -5 0 1 2 5 3.99514e-08 1 0 0
56 2 5 -4 0 1 2 8 1.62384e-07 1 0 0
57 2 6 -4 0 1 2 8 2.28843e-07 1 0 0
8 2 7 -5 0 1 2 5 5.11573e-08 1 0 0
9 2 8 -5 0 1 2 5 6.08843e-08 1 0 0
58 2 7 -4 0 1 2 8 2.9405e-07 1 0 0
59 2 8 -4 0 1 2 8 3.50997e-07 1 0 0
10 2 9 -5 0 1 2 5 6.85913e-08 1 0 0
60 2 9 -4 0 1 2 8 3.96153e-07 1 0 0
11 2 10 -5 0 1 2 5 7.43322e-08 1 0 0
12 2 11 -5 0 1 2 5 7.8615e-08 1 0 0
61 2 10 -4 0 1 2 8 4.29854e-07 1 0 0
62 2 11 -4 0 1 2 8 4.5512e-07 1 0 0
13 2 12 -5 0 1 2 5 8.20595e-08 1 0 0
14 2 13 -5 0 1 2 5 8.504e-08 1 0 0
63 2 12 -4 0 1 2 8 4.75628e-07 1 0 0
64 2 13 -4 0 1 2 8 4.93522e-07 1 0 0
15 2 14 -5 0 1 2 5 8.75474e-08 1 0 0
65 2 14 -4 0 1 2 8 5.08525e-07 1 0 0
16 2 15 -5 0 1 2 5 8.94148e-08 1 0 0
17 2 16 -5 0 1 2 5 9.06574e-08 1 0 0
66 2 15 -4 0 1 2 8 5.19457e-07 1 0 0
67 2 16 -4 0 1 2 8 5.26529e-07 1 0 0
18 2 17 -5 0 1 2 5 9.15028e-08 1 0 0
19 2 18 -5 0 1 2 5 9.20924e-08 1 0 0
68 2 17 -4 0 1 2 8 5.31467e-07 1 0 0
69 2 18 -4 0 1 2 8 5.35349e-07 1 0 0
20 2 19 -5 0 1 2 5 9.22579e-08 1 0 0
70 2 19 -4 0 1 2 8 5.37072e-07 1 0 0
21 2 20 -5 0 1 2 5 9.16616e-08 1 0 0
22 2 21 -5 0 1 2 5 9.01499e-08 1 0 0
71 2 20 -4 0 1 2 8 5.34325e-07 1 0 0
72 2 21 -4 0 1 2 8 5.25948e-07 1 0 0
23 2 22 -5 0 1 2 5 8.79861e-08 1 0 0
24 2 23 -5 0 1 2 5 8.58072e-08 1 0 0
73 2 22 -4 0 1 2 8 5.13399e-07 1 0 0
74 2 23 -4 0 1 2 8 5.0049e-07 1 0 0
25 2 24 -5 0 1 2 5 8.43678e-08 1 0 0
75 2 24 -4 0 1 2 8 4.9187e-07 1 0 0
26 2 25 -5 0 1 2 5 8.41975e-08 1 0 0
27 2 26 -5 0 1 2 5 8.53403e-08 1 0 0
76 2 25 -4 0 1 2 8 4.90911e-07 1 0 0
77 2 26 -4 0 1 2 8 4.97904e-07 1 0 0
28 2 27 -5 0 1 2 5 8.73765e-08 1 0 0
29 2 28 -5 0 1 2 5 8.97373e-08 1 0 0
78 2 27 -4 0 1 2 8 5.10099e-07 1 0 0
79 2 28 -4 0 1 2 8 5.23842e-07 1 0 0
30 2 29 -5 0 1 2 5 9.2019e-08 1 0 0
80 2 29 -4 0 1 2 8 5.36773e-07 1 0 0
31 2 30 -5 0 1 2 5 9.40123e-08 1 0 0
32 2 31 -5 0 1 2 5 9.55335e-08 1 0 0
81 2 30 -4 0 1 2 8 5.47966e-07 1 0 0
82 2 31 -4 0 1 2 8 5.56567e-07 1 0 0
33 2 32 -5 0 1 2 5 9.63779e-08 1 0 0
34 2 33 -5 0 1 2 5 9.64902e-08 1 0 0
83 2 32 -4 0 1 2 8 5.61328e-07 1 0 0
84 2 33 -4 0 1 2 8 5.61801e-07 1 0 0
35 2 34 -5 0 1 2 5 9.609e-08 1 0 0
85 2 34 -4 0 1 2 8 5.59319e-07 1 0 0
36 2 35 -5 0 1 2 5 9.55238e-08 1 0 0
37 2 36 -5 0 1 2 5 9.49765e-08 1 0 0
86 2 35 -4 0 1 2 8 5.56076e-07 1 0 0
87 2 36 -4 0 1 2 8 5.53203e-07 1 0 0
38 2 37 -5 0 1 2 5 9.43486e-08 1 0 0
39 2 38 -5 0 1 2 5 9.33944e-08 1 0 0
88 2 37 -4 0 1 2 8 5.49966e-07 1 0 0
89 2 38 -4 0 1 2 8 5.44686e-07 1 0 0
40 2 39 -5 0 1 2 5 9.19711e-08 1 0 0
90 2 39 -4 0 1 2 8 5.36316e-07 1 0 0
41 2 40 -5 0 1 2 5 9.02297e-08 1 0 0
42 2 41 -5 0 1 2 5 8.86465e-08 1 0 0
91 2 40 -4 0 1 2 8 5.25664e-07 1 0 0
92 2 41 -4 0 1 2 8 5.15676e-07 1 0 0
43 2 42 -5 0 1 2 5 8.78324e-08 1 0 0
44 2 43 -5 0 1 2 5 8.81569e-08 1 0 0
93 2 42 -4 0 1 2 8 5.10312e-07 1 0 0
94 2 43 -4 0 1 2 8 5.12106e-07 1 0 0
45 2 44 -5 0 1 2 5 8.94177e-08 1 0 0
95 2 44 -4 0 1 2 8 5.19922e-07 1 0 0
46 2 45 -5 0 1 2 5 9.08646e-08 1 0 0
47 2 46 -5 0 1 2 5 9.16589e-08 1 0 0
96 2 45 -4 0 1 2 8 5.29016e-07 1 0 0
97 2 46 -4 0 1 2 8 5.34005e-07 1 0 0
48 2 47 -5 0 1 2 5 9.14417e-08 1 0 0
49 2 48 -5 0 1 2 5 9.05529e-08 1 0 0
98 2 47 -4 0 1 2 8 5.326e-07 1 0 0
99 2 48 -4 0 1 2 8 5.27003e-07 1 0 0
50 2 49 -5 0 1 2 5 8.97391e-08 1 0 0
100 2 49 -4 0 1 2 8 5.21996e-07 1 0 0
101 2 0 -3 0 1 2 8 4.99411e-08 1 0 0
102 2 1 -3 0 1 2 8 7.44832e-08 1 0 0
151 2 0 -2 0 1 2 8 2.26434e-07 1 0 0
152 2 1 -2 0 1 2 8 3.49531e-07 1 0 0
103 2 2 -3 0 1 2 8 1.59842e-07 1 0 0
104 2 3 -3 0 1 2 8 3.26845e-07 1 0 0
153 2 2 -2 0 1 2 8 7.86948e-07 1 0 0
154 2 3 -2 0 1 2 8 1.66854e-06 1 0 0
105 2 4 -3 0 1 2 8 5.9033e-07 1 0 0
155 2 4 -2 0 1 2 8 3.09502e-06 1 0 0
106 2 5 -3 0 1 2 8 9.40052e-07 1 0 0
107 2 6 -3 0 1 2 8 1.33652e-06 1 0 0
156 2 5 -2 0 1 2 8 5.01819e-06 1 0 0
157 2 6 -2 0 1 2 8 7.21195e-06 1 0 0
108 2 7 -3 0 1 2 8 1.72692e-06 1 0 0
109 2 8 -3 0 1 2 8 2.0676e-06 1 0 0
158 2 7 -2 0 1 2 8 9.37261e-06 1 0 0
159 2 8 -2 0 1 2 8 1.1256e-05 1 0 0
110 2 9 -3 0 1 2 8 2.33761e-06 1 0 0
160 2 9 -2 0 1 2 8 1.27498e-05 1 0 0
111 2 10 -3 0 1 2 8 2.53946e-06 1 0 0
112 2 11 -3 0 1 2 8 2.69158e-06 1 0 0
161 2 10 -2 0 1 2 8 1.38713e-05 1 0 0
162 2 11 -2 0 1 2 8 1.4723e-05 1 0 0
113 2 12 -3 0 1 2 8 2.81638e-06 1 0 0
114 2 13 -3 0 1 2 8 2.92653e-06 1 0 0
163 2 12 -2 0 1 2 8 1.54299e-05 1 0 0
164 2 13 -2 0 1 2 8 1.60617e-05 1 0 0
115 2 14 -3 0 1 2 8 3.01875e-06 1 0 0
165 2 14 -2 0 1 2 8 1.65901e-05 1 0 0
116 2 15 -3 0 1 2 8 3.08428e-06 1 0 0
117 2 16 -3 0 1 2 8 3.12516e-06 1 0 0
166 2 15 -2 0 1 2 8 1.69555e-05 1 0 0
167 2 16 -2 0 1 2 8 1.71741e-05 1 0 0
118 2 17 -3 0 1 2 8 3.15457e-06 1 0 0
119 2 18 -3 0 1 2 8 3.18075e-06 1 0 0
168 2 17 -2 0 1 2 8 1.73374e-05 1 0 0
169 2 18 -2 0 1 2 8 1.75019e-05 1 0 0
120 2 19 -3 0 1 2 8 3.19615e-06 1 0 0
170 2 19 -2 0 1 2 8 1.76194e-05 1 0 0
121 2 20 -3 0 1 2 8 3.18463e-06 1 0 0
122 2 21 -3 0 1 2 8 3.13764e-06 1 0 0
171 2 20 -2 0 1 2 8 1.75867e-05 1 0 0
172 2 21 -2 0 1 2 8 1.73482e-05 1 0 0
123 2 22 -3 0 1 2 8 3.06346e-06 1 0 0
124 2 23 -3 0 1 2 8 2.9853e-06 1 0 0
173 2 22 -2 0 1 2 8 1.69476e-05 1 0 0
174 2 23 -2 0 1 2 8 1.65137e-05 1 0 0
125 2 24 -3 0 1 2 8 2.93244e-06 1 0 0
175 2 24 -2 0 1 2 8 1.62154e-05 1 0 0
126 2 25 -3 0 1 2 8 2.92696e-06 1 0 0
127 2 26 -3 0 1 2 8 2.97097e-06 1 0 0
176 2 25 -2 0 1 2 8 1.6187e-05 1 0 0
177 2 26 -2 0 1 2 8 1.64438e-05 1 0 0
128 2 27 -3 0 1 2 8 3.04589e-06 1 0 0
129 2 28 -3 0 1 2 8 3.12746e-06 1 0 0
178 2 27 -2 0 1 2 8 1.68695e-05 1 0 0
179 2 28 -2 0 1 2 8 1.73145e-05 1 0 0
130 2 29 -3 0 1 2 8 3.2017e-06 1 0 0
180 2 29 -2 0 1 2 8 1.77028e-05 1 0 0
131 2 30 -3 0 1 2 8 3.2654e-06 1 0 0
132 2 31 -3 0 1 2 8 3.31505e-06 1 0 0
181 2 30 -2 0 1 2 8 1.80329e-05 1 0 0
182 2 31 -2 0 1 2 8 1.82965e-05 1 0 0
133 2 32 -3 0 1 2 8 3.34261e-06 1 0 0
134 2 33 -3 0 1 2 8 3.34428e-06 1 0 0
183 2 32 -2 0 1 2 8 1.84445e-05 1 0 0
184 2 33 -2 0 1 2 8 1.8448e-05 1 0 0
135 2 34 -3 0 1 2 8 3.32841e-06 1 0 0
185 2 34 -2 0 1 2 8 1.83548e-05 1 0 0
136 2 35 -3 0 1 2 8 3.30942e-06 1 0 0
137 2 36 -3 0 1 2 8 3.2945e-06 1 0 0
186 2 35 -2 0 1 2 8 1.82532e-05 1 0 0
187 2 36 -2 0 1 2 8 1.81852e-05 1 0 0
138 2 37 -3 0 1 2 8 3.27822e-06 1 0 0
139 2 38 -3 0 1 2 8 3.24894e-06 1 0 0
188 2 37 -2 0 1 2 8 1.81146e-05 1 0 0
189 2 38 -2 0 1 2 8 1.7968e-05 1 0 0
140 2 39 -3 0 1 2 8 3.19899e-06 1 0 0
190 2 39 -2 0 1 2 8 1.7695e-05 1 0 0
141 2 40 -3 0 1 2 8 3.13258e-06 1 0 0
142 2 41 -3 0 1 2 8 3.06824e-06 1 0 0
191 2 40 -2 0 1 2 8 1.73143e-05 1 0 0
192 2 41 -2 0 1 2 8 1.69324e-05 1 0 0
143 2 42 -3 0 1 2 8 3.03221e-06 1 0 0
144 2 43 -3 0 1 2 8 3.0423e-06 1 0 0
193 2 42 -2 0 1 2 8 1.67095e-05 1 0 0
194 2 43 -2 0 1 2 8 1.67603e-05 1 0 0
145 2 44 -3 0 1 2 8 3.09211e-06 1 0 0
195 2 44 -2 0 1 2 8 1.70528e-05 1 0 0
146 2 45 -3 0 1 2 8 3.15076e-06 1 0 0
147 2 46 -3 0 1 2 8 3.18274e-06 1 0 0
196 2 45 -2 0 1 2 8 1.74013e-05 1 0 0
197 2 46 -2 0 1 2 8 1.75896e-05 1 0 0
148 2 47 -3 0 1 2 8 3.17308e-06 1 0 0
149 2 48 -3 0 1 2 8 3.13652e-06 1 0 0
198 2 47 -2 0 1 2 8 1.75277e-05 1 0 0
199 2 48 -2 0 1 2 8 1.73068e-05 1 0 0
150 2 49 -3 0 1 2 8 3.10451e-06 1 0 0
200 2 49 -2 0 1 2 8 1.71172e-05 1 0 0
201 2 0 -1 0 1 2 8 9.17369e-07 1 0 0
202 2 1 -1 0 1 2 8 1.46994e-06 1 0 0
203 2 2 -1 0 1 2 8 3.4829e-06 1 0 0
204 2 3 -1 0 1 2 8 7.68201e-06 1 0 0
205 2 4 -1 0 1 2 8 1.46783e-05 1 0 0
206 2 5 -1 0 1 2 8 2.42789e-05 1 0 0
207 2 6 -1 0 1 2 8 3.52939e-05 1 0 0
208 2 7 -1 0 1 2 8 4.61323e-05 1 0 0
209 2 8 -1 0 1 2 8 5.55691e-05 1 0 0
210 2 9 -1 0 1 2 8 6.30759e-05 1 0 0
211 2 10 -1 0 1 2 8 6.87559e-05 1 0 0
212 2 11 -1 0 1 2 8 7.31163e-05 1 0 0
213 2 12 -1 0 1 2 8 7.67821e-05 1 0 0
214 2 13 -1 0 1 2 8 8.01004e-05 1 0 0
215 2 14 -1 0 1 2 8 8.28758e-05 1 0 0
216 2 15 -1 0 1 2 8 8.47423e-05 1 0 0
217 2 16 -1 0 1 2 8 8.5812e-05 1 0 0
218 2 17 -1 0 1 2 8 8.66502e-05 1 0 0
219 2 18 -1 0 1 2 8 8.75994e-05 1 0 0
220 2 19 -1 0 1 2 8 8.83758e-05 1 0 0
221 2 20 -1 0 1 2 8 8.83894e-05 1 0 0
222 2 21 -1 0 1 2 8 8.73268e-05 1 0 0
223 2 22 -1 0 1 2 8 8.54003e-05 1 0 0
224 2 23 -1 0 1 2 8 8.32452e-05 1 0 0
225 2 24 -1 0 1 2 8 8.17304e-05 1 0 0
226 2 25 -1 0 1 2 8 8.1602e-05 1 0 0
227 2 26 -1 0 1 2 8 8.29638e-05 1 0 0
228 2 27 -1 0 1 2 8 8.51593e-05 1 0 0
229 2 28 -1 0 1 2 8 8.73449e-05 1 0 0
230 2 29 -1 0 1 2 8 8.91504e-05 1 0 0
231 2 30 -1 0 1 2 8 9.0671e-05 1 0 0
232 2 31 -1 0 1 2 8 9.19321e-05 1 0 0
233 2 32 -1 0 1 2 8 9.26598e-05 1 0 0
234 2 33 -1 0 1 2 8 9.26541e-05 1 0 0
235 2 34 -1 0 1 2 8 9.21634e-05 1 0 0
236 2 35 -1 0 1 2 8 9.16785e-05 1 0 0
237 2 36 -1 0 1 2 8 9.14217e-05 1 0 0
238 2 37 -1 0 1 2 8 9.11764e-05 1 0 0
239 2 38 -1 0 1 2 8 9.05314e-05 1 0 0
240 2 39 -1 0 1 2 8 8.91958e-05 1 0 0
241 2 40 -1 0 1 2 8 8.72326e-05 1 0 0
242 2 41 -1 0 1 2 8 8.51882e-05 1 0 0
243 2 42 -1 0 1 2 8 8.39431e-05 1 0 0
244 2 43 -1 0 1 2 8 8.4165e-05 1 0 0
245 2 44 -1 0 1 2 8 8.57143e-05 1 0 0
246 2 45 -1 0 1 2 8 8.75815e-05 1 0 0
247 2 46 -1 0 1 2 8 8.85761e-05 1 0 0
248 2 47 -1 0 1 2 8 8.82152e-05 1 0 0
249 2 48 -1 0 1 2 8 8.7008e-05 1 0 0
250 2 49 -1 0 1 2 8 8.59884e-05 1 0 0
251 2 0 0 0 1 2 8 3.27837e-06 1 0 0
252 2 1 0 0 1 2 8 5.46311e-06 1 0 0
301 2 0 1 0 1 2 8 1.02e-05 1 0 0
302 2 1 1 0 1 2 8 1.76761e-05 1 0 0
253 2 2 0 0 1 2 8 1.36481e-05 1 0 0
254 2 3 0 0 1 2 8 3.14025e-05 1 0 0
303 2 2 1 0 1 2 8 4.65222e-05 1 0 0
304 2 3 1 0 1 2 8 0.000111775 1 0 0
255 2 4 0 0 1 2 8 6.20052e-05 1 0 0
305 2 4 1 0 1 2 8 0.000228698 1 0 0
256 2 5 0 0 1 2 8 0.000104856 1 0 0
257 2 6 0 0 1 2 8 0.000154254 1 0 0
306 2 5 1 0 1 2 8 0.000396401 1 0 0
307 2 6 1 0 1 2 8 0.000590206 1 0 0
258 2 7 0 0 1 2 8 0.000202708 1 0 0
259 2 8 0 0 1 2 8 0.000244853 1 0 0
308 2 7 1 0 1 2 8 0.000778876 1 0 0
309 2 8 1 0 1 2 8 0.000942908 1 0 0
260 2 9 0 0 1 2 8 0.000278579 1 0 0
310 2 9 1 0 1 2 8 0.00107558 1 0 0
261 2 10 0 0 1 2 8 0.000304427 1 0 0
262 2 11 0 0 1 2 8 0.000324568 1 0 0
311 2 10 1 0 1 2 8 0.00117925 1 0 0
312 2 11 1 0 1 2 8 0.00126169 1 0 0
263 2 12 0 0 1 2 8 0.000341725 1 0 0
264 2 13 0 0 1 2 8 0.000357456 1 0 0
313 2 12 1 0 1 2 8 0.00133284 1 0 0
314 2 13 1 0 1 2 8 0.00139885 1 0 0
265 2 14 0 0 1 2 8 0.000370639 1 0 0
315 2 14 1 0 1 2 8 0.00145447 1 0 0
266 2 15 0 0 1 2 8 0.000379296 1 0 0
267 2 16 0 0 1 2 8 0.000384077 1 0 0
316 2 15 1 0 1 2 8 0.00149051 1 0 0
317 2 16 1 0 1 2 8 0.00151014 1 0 0
268 2 17 0 0 1 2 8 0.000388052 1 0 0
269 2 18 0 0 1 2 8 0.000393016 1 0 0
318 2 17 1 0 1 2 8 0.00152756 1 0 0
319 2 18 1 0 1 2 8 0.00155074 1 0 0
270 2 19 0 0 1 2 8 0.000397467 1 0 0
320 2 19 1 0 1 2 8 0.00157265 1 0 0
271 2 20 0 0 1 2 8 0.000398431 1 0 0
272 2 21 0 0 1 2 8 0.000394428 1 0 0
321 2 20 1 0 1 2 8 0.00158047 1 0 0
322 2 21 1 0 1 2 8 0.00156859 1 0 0
273 2 22 0 0 1 2 8 0.000386406 1 0 0
274 2 23 0 0 1 2 8 0.000377063 1 0 0
323 2 22 1 0 1 2 8 0.00154096 1 0 0
324 2 23 1 0 1 2 8 0.00150697 1 0 0
275 2 24 0 0 1 2 8 0.000370299 1 0 0
325 2 24 1 0 1 2 8 0.00148133 1 0 0
276 2 25 0 0 1 2 8 0.00036982 1 0 0
277 2 26 0 0 1 2 8 0.000376277 1 0 0
326 2 25 1 0 1 2 8 0.00148011 1 0 0
327 2 26 1 0 1 2 8 0.00150686 1 0 0
278 2 27 0 0 1 2 8 0.000386378 1 0 0
279 2 28 0 0 1 2 8 0.000395873 1 0 0
328 2 27 1 0 1 2 8 0.0015474 1 0 0
329 2 28 1 0 1 2 8 0.00158307 1 0 0
280 2 29 0 0 1 2 8 0.00040317 1 0 0
330 2 29 1 0 1 2 8 0.00160794 1 0 0
281 2 30 0 0 1 2 8 0.000409257 1 0 0
282 2 31 0 0 1 2 8 0.000414616 1 0 0
331 2 30 1 0 1 2 8 0.00162853 1 0 0
332 2 31 1 0 1 2 8 0.00164838 1 0 0
283 2 32 0 0 1 2 8 0.000417851 1 0 0
284 2 33 0 0 1 2 8 0.000417763 1 0 0
333 2 32 1 0 1 2 8 0.00166122 1 0 0
334 2 33 1 0 1 2 8 0.00166092 1 0 0
285 2 34 0 0 1 2 8 0.000415495 1 0 0
335 2 34 1 0 1 2 8 0.00165199 1 0 0
286 2 35 0 0 1 2 8 0.000413485 1 0 0
287 2 36 0 0 1 2 8 0.00041277 1 0 0
336 2 35 1 0 1 2 8 0.00164505 1 0 0
337 2 36 1 0 1 2 8 0.0016442 1 0 0
288 2 37 0 0 1 2 8 0.000412205 1 0 0
289 2 38 0 0 1 2 8 0.000409783 1 0 0
338 2 37 1 0 1 2 8 0.00164418 1 0 0
339 2 38 1 0 1 2 8 0.00163673 1 0 0
290 2 39 0 0 1 2 8 0.000404059 1 0 0
340 2 39 1 0 1 2 8 0.0016159 1 0 0
291 2 40 0 0 1 2 8 0.000395142 1 0 0
292 2 41 0 0 1 2 8 0.000385468 1 0 0
341 2 40 1 0 1 2 8 0.0015813 1 0 0
342 2 41 1 0 1 2 8 0.00154197 1 0 0
293 2 42 0 0 1 2 8 0.000379319 1 0 0
294 2 43 0 0 1 2 8 0.000380124 1 0 0
343 2 42 1 0 1 2 8 0.00151586 1 0 0
344 2 43 1 0 1 2 8 0.00151811 1 0 0
295 2 44 0 0 1 2 8 0.00038738 1 0 0
345 2 44 1 0 1 2 8 0.00154733 1 0 0
296 2 45 0 0 1 2 8 0.000396216 1 0 0
297 2 46 0 0 1 2 8 0.000400826 1 0 0
346 2 45 1 0 1 2 8 0.00158321 1 0 0
347 2 46 1 0 1 2 8 0.00160135 1 0 0
298 2 47 0 0 1 2 8 0.000398944 1 0 0
299 2 48 0 0 1 2 8 0.000393091 1 0 0
348 2 47 1 0 1 2 8 0.00159276 1 0 0
349 2 48 1 0 1 2 8 0.0015683 1 0 0
300 2 49 0 0 1 2 8 0.000388212 1 0 0
350 2 49 1 0 1 2 8 0.00154807 1 0 0
351 2 0 2 0 1 2 8 2.73132e-05 1 0 0
352 2 1 2 0 1 2 8 4.909e-05 1 0 0
401 2 0 3 0 1 2 8 6.24716e-05 1 0 0
402 2 1 3 0 1 2 8 0.000115899 1 0 0
353 2 2 2 0 1 2 8 0.000135422 1 0 0
354 2 3 2 0 1 2 8 0.000338354 1 0 0
403 2 2 3 0 1 2 8 0.000331811 1 0 0
404 2 3 3 0 1 2 8 0.000851084 1 0 0
355 2 4 2 0 1 2 8 0.000717483 1 0 0
405 2 4 3 0 1 2 8 0.00184593 1 0 0
356 2 5 2 0 1 2 8 0.00127822 1 0 0
357 2 6 2 0 1 2 8 0.0019242 1 0 0
406 2 5 3 0 1 2 8 0.00339958 1 0 0
407 2 6 3 0 1 2 8 0.0051693 1 0 0
358 2 7 2 0 1 2 8 0.00254284 1 0 0
359 2 8 2 0 1 2 8 0.00308155 1 0 0
408 2 7 3 0 1 2 8 0.00678768 1 0 0
409 2 8 3 0 1 2 8 0.00821539 1 0 0
360 2 9 2 0 1 2 8 0.00352536 1 0 0
410 2 9 3 0 1 2 8 0.00943036 1 0 0
361 2 10 2 0 1 2 8 0.00388177 1 0 0
362 2 11 2 0 1 2 8 0.00417307 1 0 0
411 2 10 3 0 1 2 8 0.010441 1 0 0
412 2 11 3 0 1 2 8 0.0112988 1 0 0
363 2 12 2 0 1 2 8 0.00442784 1 0 0
364 2 13 2 0 1 2 8 0.0046664 1 0 0
413 2 12 3 0 1 2 8 0.0120609 1 0 0
414 2 13 3 0 1 2 8 0.0127766 1 0 0
365 2 14 2 0 1 2 8 0.0048695 1 0 0
415 2 14 3 0 1 2 8 0.0133981 1 0 0
366 2 15 2 0 1 2 8 0.00500221 1 0 0
367 2 16 2 0 1 2 8 0.00507678 1 0 0
416 2 15 3 0 1 2 8 0.0138228 1 0 0
417 2 16 3 0 1 2 8 0.0140862 1 0 0
368 2 17 2 0 1 2 8 0.00514706 1 0 0
369 2 18 2 0 1 2 8 0.00524154 1 0 0
418 2 17 3 0 1 2 8 0.0143445 1 0 0
419 2 18 3 0 1 2 8 0.0146733 1 0 0
370 2 19 2 0 1 2 8 0.0053324 1 0 0
420 2 19 3 0 1 2 8 0.0149844 1 0 0
371 2 20 2 0 1 2 8 0.00537417 1 0 0
372 2 21 2 0 1 2 8 0.00535152 1 0 0
421 2 20 3 0 1 2 8 0.0151519 1 0 0
422 2 21 3 0 1 2 8 0.0151562 1 0 0
373 2 22 2 0 1 2 8 0.00527968 1 0 0
374 2 23 2 0 1 2 8 0.005183 1 0 0
423 2 22 3 0 1 2 8 0.0150519 1 0 0
424 2 23 3 0 1 2 8 0.0148713 1 0 0
375 2 24 2 0 1 2 8 0.00510551 1 0 0
425 2 24 3 0 1 2 8 0.0147079 1 0 0
376 2 25 2 0 1 2 8 0.00510581 1 0 0
377 2 26 2 0 1 2 8 0.00519953 1 0 0
426 2 25 3 0 1 2 8 0.0147358 1 0 0
427 2 26 3 0 1 2 8 0.0149999 1 0 0
378 2 27 2 0 1 2 8 0.00533684 1 0 0
379 2 28 2 0 1 2 8 0.00544928 1 0 0
428 2 27 3 0 1 2 8 0.0153779 1 0 0
429 2 28 3 0 1 2 8 0.0156671 1 0 0
380 2 29 2 0 1 2 8 0.00551825 1 0 0
430 2 29 3 0 1 2 8 0.015817 1 0 0
381 2 30 2 0 1 2 8 0.0055753 1 0 0
382 2 31 2 0 1 2 8 0.005638 1 0 0
431 2 30 3 0 1 2 8 0.0159463 1 0 0
432 2 31 3 0 1 2 8 0.0161131 1 0 0
383 2 32 2 0 1 2 8 0.00568262 1 0 0
384 2 33 2 0 1 2 8 0.00568335 1 0 0
433 2 32 3 0 1 2 8 0.0162471 1 0 0
434 2 33 3 0 1 2 8 0.016263 1 0 0
385 2 34 2 0 1 2 8 0.00565498 1 0 0
435 2 34 3 0 1 2 8 0.0161949 1 0 0
386 2 35 2 0 1 2 8 0.00563649 1 0 0
387 2 36 2 0 1 2 8 0.00564101 1 0 0
436 2 35 3 0 1 2 8 0.0161641 1 0 0
437 2 36 3 0 1 2 8 0.0162011 1 0 0
388 2 37 2 0 1 2 8 0.00564816 1 0 0
389 2 38 2 0 1 2 8 0.00563042 1 0 0
438 2 37 3 0 1 2 8 0.0162388 1 0 0
439 2 38 3 0 1 2 8 0.0162087 1 0 0
390 2 39 2 0 1 2 8 0.00556905 1 0 0
440 2 39 3 0 1 2 8 0.0160747 1 0 0
391 2 40 2 0 1 2 8 0.00545976 1 0 0
392 2 41 2 0 1 2 8 0.00532826 1 0 0
441 2 40 3 0 1 2 8 0.0158192 1 0 0
442 2 41 3 0 1 2 8 0.0154799 1 0 0
393 2 42 2 0 1 2 8 0.00523709 1 0 0
394 2 43 2 0 1 2 8 0.00524112 1 0 0
443 2 42 3 0 1 2 8 0.0152353 1 0 0
444 2 43 3 0 1 2 8 0.015236 1 0 0
395 2 44 2 0 1 2 8 0.00533796 1 0 0
445 2 44 3 0 1 2 8 0.0154825 1 0 0
396 2 45 2 0 1 2 8 0.00545753 1 0 0
397 2 46 2 0 1 2 8 0.00551491 1 0 0
446 2 45 3 0 1 2 8 0.0157889 1 0 0
447 2 46 3 0 1 2 8 0.0159209 1 0 0
398 2 47 2 0 1 2 8 0.00548198 1 0 0
399 2 48 2 0 1 2 8 0.00539753 1 0 0
448 2 47 3 0 1 2 8 0.0158188 1 0 0
449 2 48 3 0 1 2 8 0.0155961 1 0 0
400 2 49 2 0 1 2 8 0.00532782 1 0 0
450 2 49 3 0 1 2 8 0.015406 1 0 0
451 2 0 4 0 1 2 8 0.000121924 1 0 0
452 2 1 4 0 1 2 8 0.000232177 1 0 0
453 2 2 4 0 1 2 8 0.000683139 1 0 0
454 2 3 4 0 1 2 8 0.00176573 1 0 0
455 2 4 4 0 1 2 7 0.00372956 1 0 0
456 2 5 4 0 1 2 6 0.00711439 1 0 0
457 2 6 4 0 1 2 5 0.01063 1 0 0
506 1 5.49413 4.86819 0 1.0006 2 0 0.0129711 1 -0.0100357 0.000868504
507 1 6.48869 4.88255 0 1.02569 2 0 0.0164017 1 0.0091527 -0.00757718
458 2 7 4 0 1 2 5 0.0136288 1 0 0
459 2 8 4 0 1 2 5 0.016407 1 0 0
508 1 7.49542 4.87107 0 1.03193 2 0 0.0198093 1 0 -5e-05
460 2 9 4 0 1 2 5 0.0188759 1 0 0
510 1 8.49758 4.86858 0 1.01036 2 0 0.0230655 1 -0.007072 -8.26768e-05
511 1 9.49399 4.87319 0 1.00136 2 0 0.0260773 1 0.00511639 -0.0109681
461 2 10 4 0 1 2 5 0.0210267 1 0 0
462 2 11 4 0 1 2 5 0.0229513 1 0 0
512 1 10.4953 4.86665 0 1.01573 2 0 0.0289363 1 -0.00104041 -0.0018278
513 1 11.5005 4.86395 0 1.01534 2 0 0.0316405 1 -0.00894671 0.00617397
463 2 12 4 0 1 2 5 0.0247047 1 0 0
464 2 13 4 0 1 2 5 0.0263356 1 0 0
514 1 12.4963 4.86578 0 1.01802 2 0 0.0341546 1 0.0106648 0.00323887
465 2 14 4 0 1 2 5 0.0277881 1 0 0
515 1 13.4996 4.86639 0 1.02031 2 0 0.0364657 1 -0.000786052 -0.0014007
516 1 14.5023 4.86553 0 1.0096 2 0 0.0385556 1 -0.00145255 -0.001293
466 2 15 4 0 1 2 5 0.0288888 1 0 0
467 2 16 4 0 1 2 5 0.0296891 1 0 0
518 1 16.5027 4.86662 0 1.02515 2 0 0.0420277 1 -0.00152982 -0.0042674
517 1 15.503 4.86415 0 1.02614 2 0 0.0403749 1 -0.00105045 0.00121565
468 2 17 4 0 1 2 5 0.0304686 1 0 0
469 2 18 4 0 1 2 5 0.0313469 1 0 0
519 1 17.502 4.86786 0 1.0239 2 0 0.0435551 1 0.00868147 -0.0127703
470 2 19 4 0 1 2 5 0.0321435 1 0 0
520 1 18.5051 4.86391 0 1.00577 2 0 0.0449486 1 -0.0153726 0.0074822
521 1 19.4996 4.86409 0 1.00453 2 0 0.0461494 1 0.0108573 0.0057994
471 2 20 4 0 1 2 5 0.0326439 1 0 0
472 2 21 4 0 1 2 5 0.0328692 1 0 0
523 1 21.4984 4.86393 0 1.02268 2 0 0.0479203 1 0.00558821 0.00263021
522 1 20.4993 4.86257 0 1.0139 2 0 0.0471069 1 0.00334464 0.00335562
473 2 22 4 0 1 2 5 0.0329625 1 0 0
474 2 23 4 0 1 2 5 0.0328926 1 0 0
524 1 22.499 4.86856 0 1.01383 2 0 0.0485936 1 -0.00528354 -0.00114838
475 2 24 4 0 1 2 5 0.032777 1 0 0
525 1 23.496 4.87633 0 1.03669 2 0 0.0492124 1 0.00748434 -0.00553132
526 1 24.5043 4.8671 0 1.04245 2 0 0.0497251 1 -0.00693405 0.00205362
476 2 25 4 0 1 2 5 0.0329543 1 0 0
477 2 26 4 0 1 2 5 0.0334888 1 0 0
528 1 26.4991 4.86686 0 1.04147 2 0 0.0511228 1 0.00518528 -0.0010776
527 1 25.5014 4.8631 0 1.03798 2 0 0.0504072 1 -0.000755942 0.00774127
478 2 27 4 0 1 2 5 0.0342279 1 0 0
479 2 28 4 0 1 2 5 0.0347741 1 0 0
529 1 27.5005 4.86603 0 1.0019 2 0 0.0517873 1 -0.0074192 -0.00528121
480 2 29 4 0 1 2 5 0.0350473 1 0 0
531 1 29.4994 4.864 0 1.01679 2 0 0.0528046 1 -0.00481561 0.00597271
530 1 28.4984 4.86537 0 1.02091 2 0 0.0523429 1 0.00731604 -0.000549381
481 2 30 4 0 1 2 5 0.035302 1 0 0
482 2 31 4 0 1 2 5 0.0356508 1 0 0
533 1 31.5022 4.86513 0 1.004 2 0 0.0536506 1 -0.00794553 -0.00662219
532 1 30.4967 4.86512 0 1.0182 2 0 0.0532354 1 0.00709675 -0.00209724
483 2 32 4 0 1 2 5 0.0359607 1 0 0
484 2 33 4 0 1 2 5 0.0360561 1 0 0
534 1 32.5008 4.86544 0 1.00171 2 0 0.053939 1 -0.0108799 -0.00997456
485 2 34 4 0 1 2 5 0.035973 1 0 0
535 1 33.4971 4.86243 0 1.00275 2 0 0.0540981 1 0.00874977 0.00798496
536 1 34.4975 4.86562 0 1.0237 2 0 0.0542357 1 0.0024886 0.00125044
486 2 35 4 0 1 2 5 0.0359773 1 0 0
487 2 36 4 0 1 2 5 0.0361123 1 0 0
538 1 36.4981 4.86808 0 1.01227 2 0 0.0547267 1 0.00797817 -2.88209e-05
537 1 35.5022 4.86544 0 1.0067 2 0 0.0544498 1 -0.00954895 0.00265939
488 2 37 4 0 1 2 5 0.0362214 1 0 0
489 2 38 4 0 1 2 5 0.0361973 1 0 0
539 1 37.5008 4.86601 0 1.00174 2 0 0.054909 1 -0.000212839 0.000315458
490 2 39 4 0 1 2 5 0.0360264 1 0 0
541 1 39.5126 4.87186 0 1.00168 2 0 0.0549148 1 -0.0185902 0.00193207
540 1 38.5099 4.87335 0 1.01715 2 0 0.0549955 1 0 -5e-05
491 2 40 4 0 1 2 5 0.0356712 1 0 0
492 2 41 4 0 1 2 5 0.0351145 1 0 0
542 1 40.5039 4.87515 0 1.01016 2 0 0.0547912 1 0.00570904 -0.00127881
543 1 41.4985 4.87383 0 1.03252 2 0 0.0545489 1 0.00869662 -0.00382086
493 2 42 4 0 1 2 5 0.0347065 1 0 0
494 2 43 4 0 1 2 5 0.0346996 1 0 0
544 1 42.4962 4.86637 0 1.0319 2 0 0.0544911 1 0.00602941 0.00266417
495 2 44 4 0 1 2 5 0.0350922 1 0 0
545 1 43.5146 4.87166 0 1.03659 2 0 0.0546289 1 -0.0149459 0.0040547
546 1 44.5084 4.87098 0 1.01001 2 0 0.0547306 1 0.0110525 -0.000545806
496 2 45 4 0 1 2 5 0.0355848 1 0 0
497 2 46 4 0 1 2 5 0.0357604 1 0 0
548 1 46.5133 4.87863 0 1.00807 2 0 0.055201 1 -0.0108544 -0.00103882
547 1 45.5078 4.86866 0 1.00173 2 0 0.0549302 1 -0.000209328 0.00266751
498 2 47 4 0 1 2 5 0.0355581 1 0 0
499 2 48 4 0 1 2 5 0.0351905 1 0 0
549 1 47.5082 4.87588 0 1.02093 2 0 0.0550254 1 -0.000118951 -3.06563e-05
500 2 49 4 0 1 2 5 0.0348739 1 0 0
550 1 48.5029 4.87131 0 1.02225 2 0 0.0546808 1 0.0104046 -9.77825e-05
8501 1 49.5069 4.86694 0 1.06187 2 0 0.0548856 1 -0.0076914 -0.00105833
501 2 0 5 0 1 2 8 0.000204772 1 0 0
502 2 1 5 0 1 2 8 0.000397809 1 0 0
551 2 0 6 0 1 2 8 0.000301836 1 0 0
552 2 1 6 0 1 2 8 0.000594786 1 0 0
503 2 2 5 0 1 2 8 0.0011919 1 0 0
504 2 3 5 0 1 2 8 0.00310435 1 0 0
553 2 2 6 0 1 2 8 0.00179764 1 0 0
554 2 3 6 0 1 2 8 0.00467537 1 0 0
505 2 4 5 0 1 2 6 0.00653975 1 0 0
555 2 4 6 0 1 2 5 0.0095694 1 0 0
556 1 4.95551 5.71248 0 1.02426 2 0 0.0139953 1 0.00416367 -0.00130288
557 1 5.97989 5.74178 0 1.00456 2 0 0.0185008 1 0.0027957 -0.00290266
558 1 6.98087 5.74961 0 1.00032 2 0 0.0224873 1 0.00377334 0.00377478
509 1 7.98615 5.74757 0 1.00999 2 0 0.0264792 1 0.00133532 -0.00237187
560 1 8.99434 5.73689 0 1.01571 2 0 0.0303194 1 -0.00310374 0.00374841
561 1 9.99389 5.73462 0 1.04128 2 0 0.0340311 1 0.00388054 0.00710715
562 1 10.9933 5.73056 0 1.02468 2 0 0.0375801 1 0.00401775 0.00487009
563 1 11.9974 5.73222 0 1.00884 2 0 0.040938 1 -0.00356204 -0.000709872
565 1 12.9954 5.73939 0 1.01555 2 0 0.0441563 1 0.00428767 -0.00791122
566 1 14.0022 5.73002 0 1.01485 2 0 0.0470884 1 -0.00446935 -0.00345707
567 1 15.0052 5.72863 0 1.00349 2 0 0.0497831 1 -0.00187127 -0.00210671
568 1 16.0061 5.73268 0 1.02492 2 0 0.0523121 1 0.00343214 -0.00650239
569 1 18.0057 5.73172 0 1.01386 2 0 0.0566435 1 -0.00329983 -2.66322e-05
618 1 17.0069 5.72835 0 1.00786 2 0 0.0545942 1 -0.00828927 0.0153298
570 1 19.0027 5.73487 0 1.00562 2 0 0.0584513 1 0.0111443 -0.0121274
571 1 20.005 5.72727 0 1.00943 2 0 0.0600861 1 -0.0090628 0.00484652
572 1 21.0019 5.72957 0 1.02492 2 0 0.0615894 1 0.000969678 0.00356195
573 1 22.0002 5.73459 0 1.00977 2 0 0.0628827 1 -0.00187436 0.000991384
574 1 22.998 5.74067 0 1.00488 2 0 0.0640883 1 -0.00190453 0.0041235
575 1 23.996 5.74143 0 1.01237 2 0 0.0651202 1 0.000802867 -0.00548064
576 1 24.9998 5.73729 0 1.01087 2 0 0.0661114 1 -0.00404737 -0.0022633
577 1 25.9971 5.73101 0 1.01133 2 0 0.0670161 1 0.00688445 -0.00098788
579 1 27.0024 5.73294 0 1.01129 2 0 0.0678338 1 -0.00506911 -0.0153112
580 1 27.9986 5.72957 0 1.02117 2 0 0.0686113 1 0.00385883 0.00358813
581 1 28.9945 5.73517 0 1.01861 2 0 0.0693087 1 0.0131673 -0.00923745
632 1 30.0003 5.73159 0 1.0167 2 0 0.0698389 1 -0.00797026 -0.00247281
582 1 30.9984 5.72766 0 1.0143 2 0 0.0702842 1 0.00237639 0.00567554
583 1 31.9973 5.72878 0 1.0088 2 0 0.0706799 1 -0.00372702 0.00383405
584 1 32.9909 5.73005 0 1.00514 2 0 0.0710155 1 0.0245382 0.000672155
585 1 33.994 5.72859 0 1.02197 2 0 0.0713429 1 0.000615722 0.00405593
586 1 34.9998 5.73168 0 1.02669 2 0 0.0717143 1 -0.00412977 -5.98487e-05
587 1 35.9977 5.73406 0 1.01702 2 0 0.0721786 1 0.00802714 -0.00686521
588 1 37.0058 5.73474 0 1.01798 2 0 0.0724922 1 0.000798424 -0.00142836
589 1 38.0081 5.74441 0 1.01656 2 0 0.0728428 1 0.00834006 -0.01475
590 1 39.0106 5.75223 0 1.01208 2 0 0.0729753 1 0.00109705 -0.0038692
591 1 40.01 5.76026 0 1.01334 2 0 0.0730864 1 -0.0111003 0.000202874
592 1 41.0038 5.74042 0 1.02633 2 0 0.0731647 1 -0.00166322 0.0046637
594 1 42.9947 5.74605 0 1.01497 2 0 0.0734529 1 0.00563181 -7.82209e-05
593 1 41.9975 5.75105 0 1.02837 2 0 0.0732388 1 0.00683731 0.000111592
595 1 44.0061 5.74398 0 1.01694 2 0 0.0731972 1 -0.00349318 -3.26713e-05
596 1 45.0044 5.73903 0 1.01116 2 0 0.0729511 1 0.00377331 0.000422985
597 1 46.0089 5.76348 0 1.01212 2 0 0.0730985 1 -0.0159399 0.000150874
598 1 47.001 5.75098 0 1.00861 2 0 0.0730059 1 0.0135815 0.000647983
599 1 47.9987 5.79134 0 1.02545 2 0 0.0735001 1 0.00292709 6.84031e-05
600 1 49.0021 5.74517 0 1.00476 2 0 0.0732609 1 -0.00147628 -3.13405e-05
2700 1 49.0274 44.8406 0 1.00251 0 0 0.495133 1 -0.000105366 -0.00013641
601 2 0 7 0 1 2 8 0.000400987 1 0 0
602 2 1 7 0 1 2 8 0.000799128 1 0 0
651 2 0 8 0 1 2 8 0.000491995 1 0 0
652 2 1 8 0 1 2 8 0.000990769 1 0 0
603 2 2 7 0 1 2 8 0.00243067 1 0 0
604 2 3 7 0 1 2 8 0.00632982 1 0 0
653 2 2 8 0 1 2 8 0.0030348 1 0 0
654 2 3 8 0 1 2 8 0.00796993 1 0 0
605 2 4 7 0 1 2 5 0.01272 1 0 0
655 2 4 8 0 1 2 5 0.0157436 1 0 0
656 1 4.91143 7.43115 0 1.01253 2 0 0.0192771 1 -4.07028e-06 -0.00420648
606 1 5.44786 6.58426 0 1.01839 2 0 0.0196448 1 -0.00383417 0.00602145
607 1 6.47793 6.61301 0 1.01626 2 0 0.0244586 1 -0.00081147 0.00134303
657 1 5.93869 7.45774 0 1.02523 2 0 0.0254436 1 0 -5e-05
608 1 7.48828 6.61328 0 1.01581 2 0 0.0292116 1 0.00187022 -0.0122857
609 1 7.99302 7.47358 0 1.00447 2 0 0.0365264 1 0.00646966 -0.00140581
658 1 6.99456 7.4761 0 1.00499 2 0 0.0311299 1 -0.0072258 0.0072536
559 1 8.49599 6.60786 0 1.01669 2 0 0.0338344 1 -0.00418357 -0.00726594
610 1 9.49669 6.60449 0 1.00382 2 0 0.0383454 1 7.03871e-05 -0.00117109
661 1 8.99548 7.46939 0 1.00906 2 0 0.0417816 1 0.00557719 0.00473348
612 1 9.99888 7.46892 0 1.00002 2 0 0.0469291 1 0.00164017 -0.00775995
611 1 10.4999 6.60209 0 1.00368 2 0 0.0427285 1 -0.00265106 -0.00465927
564 1 11.5009 6.59965 0 1.01095 2 0 0.0469479 1 -0.000540568 0.000894496
613 1 10.9972 7.46664 0 1.00877 2 0 0.052013 1 0.00600813 0.00455162
614 1 12.5012 6.60583 0 1.01882 2 0 0.0510212 1 -0.00444566 0.000852306
665 1 12.9994 7.47059 0 1.00809 2 0 0.0617241 1 -0.00271839 -0.000468861
664 1 11.9977 7.47361 0 1.0022 2 0 0.0569747 1 0 -5e-05
615 1 13.5035 6.59829 0 1.00601 2 0 0.0548698 1 0.00117275 0.00351554
616 1 14.503 6.59094 0 1.00878 2 0 0.0584221 1 0.00281964 0.0104985
666 1 13.9981 7.46932 0 0.997531 2 0 0.0662049 1 0.000604334 -0.00330337
667 1 15.0046 7.45639 0 1.00922 2 0 0.0704216 1 -0.00125612 0.00212093
617 1 15.5048 6.59191 0 1.01132 2 0 0.0617813 1 -0.00140082 0.0114008
668 1 16.0062 7.46008 0 1.01232 2 0 0.0743851 1 -0.00145621 0.00245174
619 1 16.5086 6.59707 0 1.00791 2 0 0.0648969 1 0.00163695 -0.00224081
669 1 17.5119 6.60152 0 1.0115 2 0 0.067742 1 -0.0085936 -0.00522589
719 1 17.0078 7.46516 0 1.0104 2 0 0.078058 1 -0.000798214 -0.001386
720 1 18.0157 7.46188 0 1.00384 2 0 0.0814628 1 -0.0155884 0.0133574
620 1 18.5091 6.59749 0 1.00047 2 0 0.0702918 1 0.000676218 -0.00361279
621 1 19.5107 6.59528 0 1.01086 2 0 0.072642 1 -0.00352216 0.0026068
670 1 19.0088 7.45973 0 1.01205 2 0 0.0845935 1 0.0128775 0.005707
671 1 20.0063 7.47683 0 1.01101 2 0 0.0875051 1 0.00594959 -0.00837583
622 1 20.5088 6.60469 0 1.02282 2 0 0.0748241 1 -0.0105463 -0.00353965
623 1 21.5028 6.60236 0 1.01715 2 0 0.0767121 1 0.00447481 -0.000171831
672 1 21.0046 7.47081 0 1.01032 2 0 0.0900267 1 -0.000465754 0.00343121
673 1 22.0016 7.47918 0 1.00705 2 0 0.0923451 1 -0.00133485 0.00354669
624 1 22.4989 6.61443 0 1.00933 2 0 0.0784134 1 0.00232718 -0.00412361
674 1 22.9993 7.48072 0 1.01197 2 0 0.0943115 1 0.00747167 -0.00567187
625 1 23.4949 6.60916 0 1.01358 2 0 0.0799139 1 0.0030065 -0.00823474
626 1 24.4988 6.60125 0 1.01095 2 0 0.0813315 1 -0.00106462 0.00237489
675 1 23.999 7.46731 0 1.00974 2 0 0.0962164 1 0.0039607 0.00636213
676 1 24.9998 7.46238 0 1.01754 2 0 0.0978749 1 0.00495777 0.00445512
578 1 26.504 6.59321 0 1.0136 2 0 0.0836924 1 -0.00427203 0.0101843
628 1 26.0042 7.46666 0 1.00647 2 0 0.0993975 1 -0.00113029 -0.00781764
627 1 25.506 6.60023 0 1.0116 2 0 0.0825553 1 -0.00578828 0.00153468
629 1 27.503 6.59517 0 1.00585 2 0 0.0847662 1 -0.00167957 0.00828391
679 1 27.998 7.46301 0 1.01276 2 0 0.102059 1 0.00980073 -0.00234442
678 1 27.0015 7.4709 0 1.01987 2 0 0.100759 1 0.00109812 -0.0118358
630 1 28.5012 6.59886 0 1.00031 2 0 0.0857807 1 -0.0110551 -0.00350591
631 1 29.5002 6.59871 0 1.01679 2 0 0.0865551 1 0.00189415 -0.0187579
680 1 29.0001 7.45714 0 1.0041 2 0 0.103111 1 0.0017343 0.0207512
681 1 29.9997 7.45999 0 1.0067 2 0 0.103927 1 0.00548639 0.00689443
682 1 30.4991 6.59496 0 1.0233 2 0 0.0871049 1 0.00620852 0.00291027
633 1 31.5012 6.59388 0 1.00197 2 0 0.0875528 1 -0.00185447 -0.000365728
732 1 31.0048 7.45968 0 1.02086 2 0 0.104451 1 -0.0117742 -0.00687721
683 1 32.0028 7.45781 0 1.00602 2 0 0.104803 1 -0.00788949 0.00254643
684 1 32.5021 6.59579 0 1.01173 2 0 0.0878994 1 -0.00815691 0.00313377
734 1 32.9999 7.46624 0 1.01306 2 0 0.105055 1 0.00621731 -0.0164524
634 1 33.4988 6.59966 0 1.00318 2 0 0.0882917 1 0.00648051 -8.56915e-05
635 1 34.5008 6.60218 0 1.01335 2 0 0.0887849 1 0.00275027 -0.00806719
685 1 34.0173 7.47326 0 1.01182 2 0 0.105503 1 -0.0130721 0.00661425
686 1 35.0126 7.46028 0 1.01566 2 0 0.106239 1 -0.0180582 0.00898299
636 1 35.5039 6.59892 0 1.01343 2 0 0.089433 1 0.0042883 -0.00757586
637 1 36.5063 6.59986 0 0.995425 2 0 0.0899156 1 -0.00359852 -0.00288774