ITEM: TIMESTEP
33000
ITEM: NUMBER OF ATOMS
15950
ITEM: BOX BOUNDS pp pp pp
0.0000000000000000e+00 1.0000000000000000e+02
-5.0000000000000000e+00 2.0000000000000000e+02
-5.0000000000000000e-01 5.0000000000000000e-01
ITEM: ATOMS id type x y z c_rho c_phase c_nbond c_temp f_rheo_chi_chi fx fy
1 2 0 -5 0 1 2 8 5.05144e-09 1 0 0
2 2 1 -5 0 1 2 8 6.89289e-09 1 0 0
51 2 0 -4 0 1 2 8 2.53061e-08 1 0 0
52 2 1 -4 0 1 2 8 3.53797e-08 1 0 0
3 2 2 -5 0 1 2 8 1.30417e-08 1 0 0
4 2 3 -5 0 1 2 8 2.44227e-08 1 0 0
53 2 2 -4 0 1 2 8 6.94242e-08 1 0 0
54 2 3 -4 0 1 2 8 1.33188e-07 1 0 0
5 2 4 -5 0 1 2 7 4.24578e-08 1 0 0
55 2 4 -4 0 1 2 8 2.30488e-07 1 0 0
6 2 5 -5 0 1 2 6 6.89534e-08 1 0 0
7 2 6 -5 0 1 2 5 9.83547e-08 1 0 0
56 2 5 -4 0 1 2 8 3.57951e-07 1 0 0
57 2 6 -4 0 1 2 8 5.01302e-07 1 0 0
8 2 7 -5 0 1 2 5 1.25821e-07 1 0 0
9 2 8 -5 0 1 2 5 1.50014e-07 1 0 0
58 2 7 -4 0 1 2 8 6.43029e-07 1 0 0
59 2 8 -4 0 1 2 8 7.6879e-07 1 0 0
10 2 9 -5 0 1 2 5 1.69645e-07 1 0 0
60 2 9 -4 0 1 2 8 8.70974e-07 1 0 0
11 2 10 -5 0 1 2 5 1.84715e-07 1 0 0
12 2 11 -5 0 1 2 5 1.96245e-07 1 0 0
61 2 10 -4 0 1 2 8 9.4963e-07 1 0 0
62 2 11 -4 0 1 2 8 1.01016e-06 1 0 0
13 2 12 -5 0 1 2 5 2.05523e-07 1 0 0
14 2 13 -5 0 1 2 5 2.13354e-07 1 0 0
63 2 12 -4 0 1 2 8 1.0593e-06 1 0 0
64 2 13 -4 0 1 2 8 1.10108e-06 1 0 0
15 2 14 -5 0 1 2 5 2.19797e-07 1 0 0
65 2 14 -4 0 1 2 8 1.1354e-06 1 0 0
16 2 15 -5 0 1 2 5 2.24619e-07 1 0 0
17 2 16 -5 0 1 2 5 2.27939e-07 1 0 0
66 2 15 -4 0 1 2 8 1.16071e-06 1 0 0
67 2 16 -4 0 1 2 8 1.17785e-06 1 0 0
18 2 17 -5 0 1 2 5 2.30256e-07 1 0 0
19 2 18 -5 0 1 2 5 2.3186e-07 1 0 0
68 2 17 -4 0 1 2 8 1.19013e-06 1 0 0
69 2 18 -4 0 1 2 8 1.19951e-06 1 0 0
20 2 19 -5 0 1 2 5 2.32395e-07 1 0 0
70 2 19 -4 0 1 2 8 1.20392e-06 1 0 0
21 2 20 -5 0 1 2 5 2.31153e-07 1 0 0
22 2 21 -5 0 1 2 5 2.27817e-07 1 0 0
71 2 20 -4 0 1 2 8 1.19911e-06 1 0 0
72 2 21 -4 0 1 2 8 1.18292e-06 1 0 0
23 2 22 -5 0 1 2 5 2.22979e-07 1 0 0
24 2 23 -5 0 1 2 5 2.18078e-07 1 0 0
73 2 22 -4 0 1 2 8 1.15826e-06 1 0 0
74 2 23 -4 0 1 2 8 1.13273e-06 1 0 0
25 2 24 -5 0 1 2 5 2.14838e-07 1 0 0
75 2 24 -4 0 1 2 8 1.1157e-06 1 0 0
26 2 25 -5 0 1 2 5 2.14487e-07 1 0 0
27 2 26 -5 0 1 2 5 2.17161e-07 1 0 0
76 2 25 -4 0 1 2 8 1.11403e-06 1 0 0
77 2 26 -4 0 1 2 8 1.12849e-06 1 0 0
28 2 27 -5 0 1 2 5 2.21937e-07 1 0 0
29 2 28 -5 0 1 2 5 2.27511e-07 1 0 0
78 2 27 -4 0 1 2 8 1.15374e-06 1 0 0
79 2 28 -4 0 1 2 8 1.18246e-06 1 0 0
30 2 29 -5 0 1 2 5 2.32897e-07 1 0 0
80 2 29 -4 0 1 2 8 1.20954e-06 1 0 0
31 2 30 -5 0 1 2 5 2.37554e-07 1 0 0
32 2 31 -5 0 1 2 5 2.41075e-07 1 0 0
81 2 30 -4 0 1 2 8 1.23272e-06 1 0 0
82 2 31 -4 0 1 2 8 1.2503e-06 1 0 0
33 2 32 -5 0 1 2 5 2.43064e-07 1 0 0
34 2 33 -5 0 1 2 5 2.43439e-07 1 0 0
83 2 32 -4 0 1 2 8 1.26021e-06 1 0 0
84 2 33 -4 0 1 2 8 1.26182e-06 1 0 0
35 2 34 -5 0 1 2 5 2.42658e-07 1 0 0
85 2 34 -4 0 1 2 8 1.25756e-06 1 0 0
36 2 35 -5 0 1 2 5 2.41426e-07 1 0 0
37 2 36 -5 0 1 2 5 2.40126e-07 1 0 0
86 2 35 -4 0 1 2 8 1.25138e-06 1 0 0
87 2 36 -4 0 1 2 8 1.24535e-06 1 0 0
38 2 37 -5 0 1 2 5 2.38548e-07 1 0 0
39 2 38 -5 0 1 2 5 2.36162e-07 1 0 0
88 2 37 -4 0 1 2 8 1.23807e-06 1 0 0
89 2 38 -4 0 1 2 8 1.22636e-06 1 0 0
40 2 39 -5 0 1 2 5 2.32673e-07 1 0 0
90 2 39 -4 0 1 2 8 1.20823e-06 1 0 0
41 2 40 -5 0 1 2 5 2.28457e-07 1 0 0
42 2 41 -5 0 1 2 5 2.24635e-07 1 0 0
91 2 40 -4 0 1 2 8 1.18551e-06 1 0 0
92 2 41 -4 0 1 2 8 1.16432e-06 1 0 0
43 2 42 -5 0 1 2 5 2.22609e-07 1 0 0
44 2 43 -5 0 1 2 5 2.23202e-07 1 0 0
93 2 42 -4 0 1 2 8 1.15268e-06 1 0 0
94 2 43 -4 0 1 2 8 1.15554e-06 1 0 0
45 2 44 -5 0 1 2 5 2.25947e-07 1 0 0
95 2 44 -4 0 1 2 8 1.17058e-06 1 0 0
46 2 45 -5 0 1 2 5 2.29177e-07 1 0 0
47 2 46 -5 0 1 2 5 2.31035e-07 1 0 0
96 2 45 -4 0 1 2 8 1.18847e-06 1 0 0
97 2 46 -4 0 1 2 8 1.19871e-06 1 0 0
48 2 47 -5 0 1 2 5 2.30709e-07 1 0 0
49 2 48 -5 0 1 2 5 2.2891e-07 1 0 0
98 2 47 -4 0 1 2 8 1.19673e-06 1 0 0
99 2 48 -4 0 1 2 8 1.18663e-06 1 0 0
50 2 49 -5 0 1 2 5 2.27255e-07 1 0 0
100 2 49 -4 0 1 2 8 1.17754e-06 1 0 0
101 2 0 -3 0 1 2 8 1.16079e-07 1 0 0
102 2 1 -3 0 1 2 8 1.66728e-07 1 0 0
151 2 0 -2 0 1 2 8 4.82854e-07 1 0 0
152 2 1 -2 0 1 2 8 7.1435e-07 1 0 0
103 2 2 -3 0 1 2 8 3.40507e-07 1 0 0
104 2 3 -3 0 1 2 8 6.72955e-07 1 0 0
153 2 2 -2 0 1 2 8 1.52276e-06 1 0 0
154 2 3 -2 0 1 2 8 3.10905e-06 1 0 0
105 2 4 -3 0 1 2 8 1.18805e-06 1 0 0
155 2 4 -2 0 1 2 8 5.62154e-06 1 0 0
106 2 5 -3 0 1 2 8 1.86525e-06 1 0 0
107 2 6 -3 0 1 2 8 2.63257e-06 1 0 0
156 2 5 -2 0 1 2 8 8.97036e-06 1 0 0
157 2 6 -2 0 1 2 8 1.27853e-05 1 0 0
108 2 7 -3 0 1 2 8 3.39413e-06 1 0 0
109 2 8 -3 0 1 2 8 4.06951e-06 1 0 0
158 2 7 -2 0 1 2 8 1.65717e-05 1 0 0
159 2 8 -2 0 1 2 8 1.99256e-05 1 0 0
110 2 9 -3 0 1 2 8 4.61815e-06 1 0 0
160 2 9 -2 0 1 2 8 2.26524e-05 1 0 0
111 2 10 -3 0 1 2 8 5.04138e-06 1 0 0
112 2 11 -3 0 1 2 8 5.36898e-06 1 0 0
161 2 10 -2 0 1 2 8 2.4765e-05 1 0 0
162 2 11 -2 0 1 2 8 2.64134e-05 1 0 0
113 2 12 -3 0 1 2 8 5.6377e-06 1 0 0
114 2 13 -3 0 1 2 8 5.86856e-06 1 0 0
163 2 12 -2 0 1 2 8 2.77814e-05 1 0 0
164 2 13 -2 0 1 2 8 2.89701e-05 1 0 0
115 2 14 -3 0 1 2 8 6.0582e-06 1 0 0
165 2 14 -2 0 1 2 8 2.99475e-05 1 0 0
116 2 15 -3 0 1 2 8 6.1957e-06 1 0 0
117 2 16 -3 0 1 2 8 6.28697e-06 1 0 0
166 2 15 -2 0 1 2 8 3.06441e-05 1 0 0
167 2 16 -2 0 1 2 8 3.10967e-05 1 0 0
118 2 17 -3 0 1 2 8 6.35424e-06 1 0 0
119 2 18 -3 0 1 2 8 6.41091e-06 1 0 0
168 2 17 -2 0 1 2 8 3.14416e-05 1 0 0
169 2 18 -2 0 1 2 8 3.17612e-05 1 0 0
120 2 19 -3 0 1 2 8 6.44449e-06 1 0 0
170 2 19 -2 0 1 2 8 3.19844e-05 1 0 0
121 2 20 -3 0 1 2 8 6.42832e-06 1 0 0
122 2 21 -3 0 1 2 8 6.34811e-06 1 0 0
171 2 20 -2 0 1 2 8 3.19591e-05 1 0 0
172 2 21 -2 0 1 2 8 3.16015e-05 1 0 0
123 2 22 -3 0 1 2 8 6.21854e-06 1 0 0
124 2 23 -3 0 1 2 8 6.08108e-06 1 0 0
173 2 22 -2 0 1 2 8 3.09806e-05 1 0 0
174 2 23 -2 0 1 2 8 3.03028e-05 1 0 0
125 2 24 -3 0 1 2 8 5.98844e-06 1 0 0
175 2 24 -2 0 1 2 8 2.98402e-05 1 0 0
126 2 25 -3 0 1 2 8 5.98049e-06 1 0 0
127 2 26 -3 0 1 2 8 6.06177e-06 1 0 0
176 2 25 -2 0 1 2 8 2.98076e-05 1 0 0
177 2 26 -2 0 1 2 8 3.02319e-05 1 0 0
128 2 27 -3 0 1 2 8 6.20035e-06 1 0 0
129 2 28 -3 0 1 2 8 6.35304e-06 1 0 0
178 2 27 -2 0 1 2 8 3.09357e-05 1 0 0
179 2 28 -2 0 1 2 8 3.16828e-05 1 0 0
130 2 29 -3 0 1 2 8 6.49273e-06 1 0 0
180 2 29 -2 0 1 2 8 3.23412e-05 1 0 0
131 2 30 -3 0 1 2 8 6.61109e-06 1 0 0
132 2 31 -3 0 1 2 8 6.70183e-06 1 0 0
181 2 30 -2 0 1 2 8 3.28932e-05 1 0 0
182 2 31 -2 0 1 2 8 3.33243e-05 1 0 0
133 2 32 -3 0 1 2 8 6.75306e-06 1 0 0
134 2 33 -3 0 1 2 8 6.75978e-06 1 0 0
183 2 32 -2 0 1 2 8 3.35706e-05 1 0 0
184 2 33 -2 0 1 2 8 3.35959e-05 1 0 0
135 2 34 -3 0 1 2 8 6.73557e-06 1 0 0
185 2 34 -2 0 1 2 8 3.34698e-05 1 0 0
136 2 35 -3 0 1 2 8 6.70358e-06 1 0 0
137 2 36 -3 0 1 2 8 6.67551e-06 1 0 0
186 2 35 -2 0 1 2 8 3.33187e-05 1 0 0
187 2 36 -2 0 1 2 8 3.3204e-05 1 0 0
138 2 37 -3 0 1 2 8 6.64231e-06 1 0 0
139 2 38 -3 0 1 2 8 6.58394e-06 1 0 0
188 2 37 -2 0 1 2 8 3.30719e-05 1 0 0
189 2 38 -2 0 1 2 8 3.28088e-05 1 0 0
140 2 39 -3 0 1 2 8 6.48734e-06 1 0 0
190 2 39 -2 0 1 2 8 3.23372e-05 1 0 0
141 2 40 -3 0 1 2 8 6.36114e-06 1 0 0
142 2 41 -3 0 1 2 8 6.23985e-06 1 0 0
191 2 40 -2 0 1 2 8 3.16927e-05 1 0 0
192 2 41 -2 0 1 2 8 3.10532e-05 1 0 0
143 2 42 -3 0 1 2 8 6.17082e-06 1 0 0
144 2 43 -3 0 1 2 8 6.18513e-06 1 0 0
193 2 42 -2 0 1 2 8 3.06762e-05 1 0 0
194 2 43 -2 0 1 2 8 3.07402e-05 1 0 0
145 2 44 -3 0 1 2 8 6.27083e-06 1 0 0
195 2 44 -2 0 1 2 8 3.11902e-05 1 0 0
146 2 45 -3 0 1 2 8 6.37374e-06 1 0 0
147 2 46 -3 0 1 2 8 6.43203e-06 1 0 0
196 2 45 -2 0 1 2 8 3.17354e-05 1 0 0
197 2 46 -2 0 1 2 8 3.20398e-05 1 0 0
148 2 47 -3 0 1 2 8 6.41904e-06 1 0 0
149 2 48 -3 0 1 2 8 6.35926e-06 1 0 0
198 2 47 -2 0 1 2 8 3.19607e-05 1 0 0
199 2 48 -2 0 1 2 8 3.16338e-05 1 0 0
150 2 49 -3 0 1 2 8 6.3067e-06 1 0 0
200 2 49 -2 0 1 2 8 3.13519e-05 1 0 0
201 2 0 -1 0 1 2 8 1.80206e-06 1 0 0
202 2 1 -1 0 1 2 8 2.7518e-06 1 0 0
203 2 2 -1 0 1 2 8 6.13589e-06 1 0 0
204 2 3 -1 0 1 2 8 1.29723e-05 1 0 0
205 2 4 -1 0 1 2 8 2.40773e-05 1 0 0
206 2 5 -1 0 1 2 8 3.91077e-05 1 0 0
207 2 6 -1 0 1 2 8 5.63133e-05 1 0 0
208 2 7 -1 0 1 2 8 7.33689e-05 1 0 0
209 2 8 -1 0 1 2 8 8.84575e-05 1 0 0
210 2 9 -1 0 1 2 8 0.000100757 1 0 0
211 2 10 -1 0 1 2 8 0.000110358 1 0 0
212 2 11 -1 0 1 2 8 0.000117932 1 0 0
213 2 12 -1 0 1 2 8 0.000124298 1 0 0
214 2 13 -1 0 1 2 8 0.000129898 1 0 0
215 2 14 -1 0 1 2 8 0.000134514 1 0 0
216 2 15 -1 0 1 2 8 0.000137753 1 0 0
217 2 16 -1 0 1 2 8 0.000139818 1 0 0
218 2 17 -1 0 1 2 8 0.000141455 1 0 0
219 2 18 -1 0 1 2 8 0.000143109 1 0 0
220 2 19 -1 0 1 2 8 0.00014441 1 0 0
221 2 20 -1 0 1 2 8 0.000144582 1 0 0
222 2 21 -1 0 1 2 8 0.000143201 1 0 0
223 2 22 -1 0 1 2 8 0.000140564 1 0 0
224 2 23 -1 0 1 2 8 0.000137584 1 0 0
225 2 24 -1 0 1 2 8 0.000135517 1 0 0
226 2 25 -1 0 1 2 8 0.000135414 1 0 0
227 2 26 -1 0 1 2 8 0.00013743 1 0 0
228 2 27 -1 0 1 2 8 0.000140672 1 0 0
229 2 28 -1 0 1 2 8 0.000143966 1 0 0
230 2 29 -1 0 1 2 8 0.000146734 1 0 0
231 2 30 -1 0 1 2 8 0.00014903 1 0 0
232 2 31 -1 0 1 2 8 0.000150879 1 0 0
233 2 32 -1 0 1 2 8 0.000151962 1 0 0
234 2 33 -1 0 1 2 8 0.000152051 1 0 0
235 2 34 -1 0 1 2 8 0.000151465 1 0 0
236 2 35 -1 0 1 2 8 0.000150831 1 0 0
237 2 36 -1 0 1 2 8 0.000150443 1 0 0
238 2 37 -1 0 1 2 8 0.000150012 1 0 0
239 2 38 -1 0 1 2 8 0.000148968 1 0 0
240 2 39 -1 0 1 2 8 0.000146909 1 0 0
241 2 40 -1 0 1 2 8 0.000143953 1 0 0
242 2 41 -1 0 1 2 8 0.000140917 1 0 0
243 2 42 -1 0 1 2 8 0.000139061 1 0 0
244 2 43 -1 0 1 2 8 0.000139307 1 0 0
245 2 44 -1 0 1 2 8 0.000141435 1 0 0
246 2 45 -1 0 1 2 8 0.000144034 1 0 0
247 2 46 -1 0 1 2 8 0.000145459 1 0 0
248 2 47 -1 0 1 2 8 0.000145024 1 0 0
249 2 48 -1 0 1 2 8 0.000143409 1 0 0
250 2 49 -1 0 1 2 8 0.000142039 1 0 0
251 2 0 0 0 1 2 8 5.9658e-06 1 0 0
252 2 1 0 0 1 2 8 9.41299e-06 1 0 0
301 2 0 1 0 1 2 8 1.73246e-05 1 0 0
302 2 1 1 0 1 2 8 2.82251e-05 1 0 0
253 2 2 0 0 1 2 8 2.19715e-05 1 0 0
254 2 3 0 0 1 2 8 4.81771e-05 1 0 0
303 2 2 1 0 1 2 8 6.88355e-05 1 0 0
304 2 3 1 0 1 2 8 0.000156476 1 0 0
255 2 4 0 0 1 2 8 9.19879e-05 1 0 0
305 2 4 1 0 1 2 8 0.000307769 1 0 0
256 2 5 0 0 1 2 8 0.000152312 1 0 0
257 2 6 0 0 1 2 8 0.000221618 1 0 0
306 2 5 1 0 1 2 8 0.000520281 1 0 0
307 2 6 1 0 1 2 8 0.000764697 1 0 0
258 2 7 0 0 1 2 8 0.000290083 1 0 0
259 2 8 0 0 1 2 8 0.000350573 1 0 0
308 2 7 1 0 1 2 8 0.00100426 1 0 0
309 2 8 1 0 1 2 8 0.0012157 1 0 0
260 2 9 0 0 1 2 8 0.000400151 1 0 0
310 2 9 1 0 1 2 8 0.00139068 1 0 0
261 2 10 0 0 1 2 8 0.000439306 1 0 0
262 2 11 0 0 1 2 8 0.000470642 1 0 0
311 2 10 1 0 1 2 8 0.0015313 1 0 0
312 2 11 1 0 1 2 8 0.00164598 1 0 0
263 2 12 0 0 1 2 8 0.000497351 1 0 0
264 2 13 0 0 1 2 8 0.00052115 1 0 0
313 2 12 1 0 1 2 8 0.00174519 1 0 0
314 2 13 1 0 1 2 8 0.00183474 1 0 0
265 2 14 0 0 1 2 8 0.00054086 1 0 0
315 2 14 1 0 1 2 8 0.00190954 1 0 0
266 2 15 0 0 1 2 8 0.000554542 1 0 0
267 2 16 0 0 1 2 8 0.000563176 1 0 0
316 2 15 1 0 1 2 8 0.00196144 1 0 0
317 2 16 1 0 1 2 8 0.00199442 1 0 0
268 2 17 0 0 1 2 8 0.000570336 1 0 0
269 2 18 0 0 1 2 8 0.000578103 1 0 0
318 2 17 1 0 1 2 8 0.00202312 1 0 0
319 2 18 1 0 1 2 8 0.00205572 1 0 0
270 2 19 0 0 1 2 8 0.000584741 1 0 0
320 2 19 1 0 1 2 8 0.00208503 1 0 0
271 2 20 0 0 1 2 8 0.000586764 1 0 0
272 2 21 0 0 1 2 8 0.000582379 1 0 0
321 2 20 1 0 1 2 8 0.00209767 1 0 0
322 2 21 1 0 1 2 8 0.00208757 1 0 0
273 2 22 0 0 1 2 8 0.000572754 1 0 0
274 2 23 0 0 1 2 8 0.000561393 1 0 0
323 2 22 1 0 1 2 8 0.002059 1 0 0
324 2 23 1 0 1 2 8 0.00202304 1 0 0
275 2 24 0 0 1 2 8 0.000553335 1 0 0
325 2 24 1 0 1 2 8 0.00199675 1 0 0
276 2 25 0 0 1 2 8 0.000553189 1 0 0
277 2 26 0 0 1 2 8 0.00056176 1 0 0
326 2 25 1 0 1 2 8 0.00199772 1 0 0
327 2 26 1 0 1 2 8 0.00202971 1 0 0
278 2 27 0 0 1 2 8 0.000575093 1 0 0
279 2 28 0 0 1 2 8 0.000587965 1 0 0
328 2 27 1 0 1 2 8 0.00207765 1 0 0
329 2 28 1 0 1 2 8 0.00212132 1 0 0
280 2 29 0 0 1 2 8 0.000598146 1 0 0
330 2 29 1 0 1 2 8 0.0021533 1 0 0
281 2 30 0 0 1 2 8 0.000606501 1 0 0
282 2 31 0 0 1 2 8 0.000613566 1 0 0
331 2 30 1 0 1 2 8 0.00217935 1 0 0
332 2 31 1 0 1 2 8 0.00220305 1 0 0
283 2 32 0 0 1 2 8 0.000617891 1 0 0
284 2 33 0 0 1 2 8 0.000618215 1 0 0
333 2 32 1 0 1 2 8 0.00221856 1 0 0
334 2 33 1 0 1 2 8 0.00221998 1 0 0
285 2 34 0 0 1 2 8 0.00061584 1 0 0
335 2 34 1 0 1 2 8 0.00221187 1 0 0
286 2 35 0 0 1 2 8 0.000613549 1 0 0
287 2 36 0 0 1 2 8 0.000612571 1 0 0
336 2 35 1 0 1 2 8 0.00220507 1 0 0
337 2 36 1 0 1 2 8 0.00220399 1 0 0
288 2 37 0 0 1 2 8 0.000611558 1 0 0
289 2 38 0 0 1 2 8 0.000608018 1 0 0
338 2 37 1 0 1 2 8 0.00220311 1 0 0
339 2 38 1 0 1 2 8 0.00219323 1 0 0
290 2 39 0 0 1 2 8 0.00060015 1 0 0
340 2 39 1 0 1 2 8 0.00216774 1 0 0
291 2 40 0 0 1 2 8 0.000588228 1 0 0
292 2 41 0 0 1 2 8 0.000575509 1 0 0
341 2 40 1 0 1 2 8 0.00212673 1 0 0
342 2 41 1 0 1 2 8 0.00208102 1 0 0
293 2 42 0 0 1 2 8 0.000567436 1 0 0
294 2 43 0 0 1 2 8 0.000568216 1 0 0
343 2 42 1 0 1 2 8 0.00205085 1 0 0
344 2 43 1 0 1 2 8 0.00205271 1 0 0
295 2 44 0 0 1 2 8 0.000577099 1 0 0
345 2 44 1 0 1 2 8 0.00208455 1 0 0
296 2 45 0 0 1 2 8 0.000588026 1 0 0
297 2 46 0 0 1 2 8 0.000593862 1 0 0
346 2 45 1 0 1 2 8 0.00212392 1 0 0
347 2 46 1 0 1 2 8 0.00214419 1 0 0
298 2 47 0 0 1 2 8 0.000591742 1 0 0
299 2 48 0 0 1 2 8 0.000584675 1 0 0
348 2 47 1 0 1 2 8 0.00213523 1 0 0
349 2 48 1 0 1 2 8 0.00210861 1 0 0
300 2 49 0 0 1 2 8 0.000578771 1 0 0
350 2 49 1 0 1 2 8 0.00208663 1 0 0
351 2 0 2 0 1 2 8 4.37205e-05 1 0 0
352 2 1 2 0 1 2 8 7.33393e-05 1 0 0
401 2 0 3 0 1 2 8 9.5354e-05 1 0 0
402 2 1 3 0 1 2 8 0.000163987 1 0 0
353 2 2 2 0 1 2 8 0.000185782 1 0 0
354 2 3 2 0 1 2 8 0.000435456 1 0 0
403 2 2 3 0 1 2 8 0.000427308 1 0 0
404 2 3 3 0 1 2 8 0.00101897 1 0 0
355 2 4 2 0 1 2 8 0.000880899 1 0 0
405 2 4 3 0 1 2 8 0.00209082 1 0 0
356 2 5 2 0 1 2 8 0.00152244 1 0 0
357 2 6 2 0 1 2 8 0.00225677 1 0 0
406 2 5 3 0 1 2 8 0.00370771 1 0 0
407 2 6 3 0 1 2 8 0.00553264 1 0 0
358 2 7 2 0 1 2 8 0.00296456 1 0 0
359 2 8 2 0 1 2 8 0.0035895 1 0 0
408 2 7 3 0 1 2 8 0.00721257 1 0 0
409 2 8 3 0 1 2 8 0.00871103 1 0 0
360 2 9 2 0 1 2 8 0.00411546 1 0 0
410 2 9 3 0 1 2 8 0.0100101 1 0 0
361 2 10 2 0 1 2 8 0.00454858 1 0 0
362 2 11 2 0 1 2 8 0.00491067 1 0 0
411 2 10 3 0 1 2 8 0.011114 1 0 0
412 2 11 3 0 1 2 8 0.012068 1 0 0
363 2 12 2 0 1 2 8 0.00522888 1 0 0
364 2 13 2 0 1 2 8 0.00551963 1 0 0
413 2 12 3 0 1 2 8 0.0129224 1 0 0
414 2 13 3 0 1 2 8 0.0137102 1 0 0
365 2 14 2 0 1 2 8 0.00576594 1 0 0
415 2 14 3 0 1 2 8 0.0143935 1 0 0
366 2 15 2 0 1 2 8 0.00593978 1 0 0
367 2 16 2 0 1 2 8 0.00605431 1 0 0
416 2 15 3 0 1 2 8 0.0148973 1 0 0
417 2 16 3 0 1 2 8 0.0152546 1 0 0
368 2 17 2 0 1 2 8 0.00615856 1 0 0
369 2 18 2 0 1 2 8 0.00627841 1 0 0
418 2 17 3 0 1 2 8 0.0155919 1 0 0
419 2 18 3 0 1 2 8 0.0159696 1 0 0
370 2 19 2 0 1 2 8 0.00638844 1 0 0
420 2 19 3 0 1 2 8 0.016315 1 0 0
371 2 20 2 0 1 2 8 0.0064465 1 0 0
372 2 21 2 0 1 2 8 0.00643782 1 0 0
421 2 20 3 0 1 2 8 0.0165234 1 0 0
422 2 21 3 0 1 2 8 0.0165788 1 0 0
373 2 22 2 0 1 2 8 0.00637689 1 0 0
374 2 23 2 0 1 2 8 0.00629024 1 0 0
423 2 22 3 0 1 2 8 0.0165281 1 0 0
424 2 23 3 0 1 2 8 0.0164056 1 0 0
375 2 24 2 0 1 2 8 0.00622402 1 0 0
425 2 24 3 0 1 2 8 0.0163012 1 0 0
376 2 25 2 0 1 2 8 0.00623452 1 0 0
377 2 26 2 0 1 2 8 0.00633632 1 0 0
426 2 25 3 0 1 2 8 0.0163629 1 0 0
427 2 26 3 0 1 2 8 0.016628 1 0 0
378 2 27 2 0 1 2 8 0.00648272 1 0 0
379 2 28 2 0 1 2 8 0.00660811 1 0 0
428 2 27 3 0 1 2 8 0.0169963 1 0 0
429 2 28 3 0 1 2 8 0.0172941 1 0 0
380 2 29 2 0 1 2 8 0.00669172 1 0 0
430 2 29 3 0 1 2 8 0.0174717 1 0 0
381 2 30 2 0 1 2 8 0.00675989 1 0 0
382 2 31 2 0 1 2 8 0.0068287 1 0 0
431 2 30 3 0 1 2 8 0.0176228 1 0 0
432 2 31 3 0 1 2 8 0.0177948 1 0 0
383 2 32 2 0 1 2 8 0.00687798 1 0 0
384 2 33 2 0 1 2 8 0.006885 1 0 0
433 2 32 3 0 1 2 8 0.0179327 1 0 0
434 2 33 3 0 1 2 8 0.0179664 1 0 0
385 2 34 2 0 1 2 8 0.00686308 1 0 0
435 2 34 3 0 1 2 8 0.0179231 1 0 0
386 2 35 2 0 1 2 8 0.00684812 1 0 0
387 2 36 2 0 1 2 8 0.00685309 1 0 0
436 2 35 3 0 1 2 8 0.0179066 1 0 0
437 2 36 3 0 1 2 8 0.0179453 1 0 0
388 2 37 2 0 1 2 8 0.00685872 1 0 0
389 2 38 2 0 1 2 8 0.00683755 1 0 0
438 2 37 3 0 1 2 8 0.0179806 1 0 0
439 2 38 3 0 1 2 8 0.0179504 1 0 0
390 2 39 2 0 1 2 8 0.00677097 1 0 0
440 2 39 3 0 1 2 8 0.0178235 1 0 0
391 2 40 2 0 1 2 8 0.00665627 1 0 0
392 2 41 2 0 1 2 8 0.00652127 1 0 0
441 2 40 3 0 1 2 8 0.0175871 1 0 0
442 2 41 3 0 1 2 8 0.0172785 1 0 0
393 2 42 2 0 1 2 8 0.00642844 1 0 0
394 2 43 2 0 1 2 8 0.00643102 1 0 0
443 2 42 3 0 1 2 8 0.0170579 1 0 0
444 2 43 3 0 1 2 8 0.0170569 1 0 0
395 2 44 2 0 1 2 8 0.00652501 1 0 0
445 2 44 3 0 1 2 8 0.0172715 1 0 0
396 2 45 2 0 1 2 8 0.00664151 1 0 0
397 2 46 2 0 1 2 8 0.00669809 1 0 0
446 2 45 3 0 1 2 8 0.0175389 1 0 0
447 2 46 3 0 1 2 8 0.0176547 1 0 0
398 2 47 2 0 1 2 8 0.00666649 1 0 0
399 2 48 2 0 1 2 8 0.00658382 1 0 0
448 2 47 3 0 1 2 8 0.0175652 1 0 0
449 2 48 3 0 1 2 8 0.0173692 1 0 0
400 2 49 2 0 1 2 8 0.00651616 1 0 0
450 2 49 3 0 1 2 8 0.0172054 1 0 0
451 2 0 4 0 1 2 8 0.000179804 1 0 0
452 2 1 4 0 1 2 8 0.000315585 1 0 0
453 2 2 4 0 1 2 8 0.000838574 1 0 0
454 2 3 4 0 1 2 8 0.00199918 1 0 0
455 2 4 4 0 1 2 7 0.00397397 1 0 0
456 2 5 4 0 1 2 6 0.00724222 1 0 0
457 2 6 4 0 1 2 5 0.0106018 1 0 0
506 1 5.4955 4.86567 0 1.0006 2 0 0.0126504 1 0.00281051 -0.00197916
507 1 6.49688 4.86319 0 1.02569 2 0 0.0158515 1 -0.00318353 -0.00363465
458 2 7 4 0 1 2 5 0.0134816 1 0 0
459 2 8 4 0 1 2 5 0.016168 1 0 0
508 1 7.49772 4.86057 0 1.03193 2 0 0.0190881 1 -0.00576903 0.00386465
460 2 9 4 0 1 2 5 0.0185895 1 0 0
510 1 8.49714 4.86281 0 1.01036 2 0 0.0221772 1 -0.00750112 0.00477032
511 1 9.49278 4.8683 0 1.00136 2 0 0.0250411 1 0.00248644 -0.0138245
461 2 10 4 0 1 2 5 0.0207321 1 0 0
462 2 11 4 0 1 2 5 0.0226732 1 0 0
512 1 10.4932 4.86344 0 1.01573 2 0 0.0277583 1 0.00105137 -0.00332042
513 1 11.497 4.86449 0 1.01534 2 0 0.0303366 1 -0.00893556 -0.00636889
463 2 12 4 0 1 2 5 0.0244551 1 0 0
464 2 13 4 0 1 2 5 0.0261017 1 0 0
514 1 12.4943 4.86376 0 1.01802 2 0 0.0327402 1 0.00162138 -0.00659002
465 2 14 4 0 1 2 5 0.0275751 1 0 0
515 1 13.4948 4.86141 0 1.02031 2 0 0.0349746 1 -0.00745647 0.0028927
516 1 14.4917 4.85994 0 1.0096 2 0 0.0370083 1 0.0137531 0.00607895
466 2 15 4 0 1 2 5 0.0287541 1 0 0
467 2 16 4 0 1 2 5 0.0296854 1 0 0
518 1 16.4967 4.85769 0 1.02515 2 0 0.0404721 1 -0.0018234 0.0152315
517 1 15.4968 4.86019 0 1.02614 2 0 0.0388126 1 -0.00185022 -0.000488722
468 2 17 4 0 1 2 5 0.0305766 1 0 0
469 2 18 4 0 1 2 5 0.031505 1 0 0
519 1 17.4993 4.86162 0 1.0239 2 0 0.0420241 1 -0.00032504 0.00548464
470 2 19 4 0 1 2 5 0.0323373 1 0 0
520 1 18.4986 4.85964 0 1.00577 2 0 0.0434294 1 -0.00691581 0.0126197
521 1 19.4954 4.86343 0 1.00453 2 0 0.0446364 1 0.00705481 -0.0177448
471 2 20 4 0 1 2 5 0.032908 1 0 0
472 2 21 4 0 1 2 5 0.0332392 1 0 0
523 1 21.4967 4.8659 0 1.02268 2 0 0.0464741 1 -0.000922867 -0.0119725
522 1 20.4939 4.86316 0 1.0139 2 0 0.0456167 1 0.0144667 -0.00341274
473 2 22 4 0 1 2 5 0.0334472 1 0 0
474 2 23 4 0 1 2 5 0.0335106 1 0 0
524 1 22.5019 4.86291 0 1.01383 2 0 0.0472145 1 -0.00509184 0.00365077
475 2 24 4 0 1 2 5 0.0335335 1 0 0
525 1 23.5023 4.87051 0 1.03669 2 0 0.0478402 1 -0.00936974 -0.0143282
526 1 24.4987 4.86616 0 1.04245 2 0 0.0484457 1 0.00993621 -0.00307002
476 2 25 4 0 1 2 5 0.033781 1 0 0
477 2 26 4 0 1 2 5 0.0342993 1 0 0
528 1 26.5002 4.863 0 1.04147 2 0 0.0498025 1 0.00843896 0.00893383
527 1 25.5044 4.86707 0 1.03798 2 0 0.0490994 1 -0.00986208 0.0022219
478 2 27 4 0 1 2 5 0.0349817 1 0 0
479 2 28 4 0 1 2 5 0.0355179 1 0 0
529 1 27.5015 4.86756 0 1.0019 2 0 0.0504878 1 -0.00115496 -4.66269e-05
480 2 29 4 0 1 2 5 0.0358351 1 0 0
531 1 29.5008 4.86218 0 1.01679 2 0 0.0516048 1 -0.000355721 0.0109435
530 1 28.5009 4.86464 0 1.02091 2 0 0.0510818 1 1.19118e-05 0.00407632
481 2 30 4 0 1 2 5 0.0361276 1 0 0
482 2 31 4 0 1 2 5 0.0364744 1 0 0
533 1 31.5029 4.86511 0 1.004 2 0 0.0525802 1 -0.012929 -0.00175724
532 1 30.5014 4.86559 0 1.0182 2 0 0.0521072 1 -0.00149071 -0.00747632
483 2 32 4 0 1 2 5 0.0367792 1 0 0
484 2 33 4 0 1 2 5 0.0369032 1 0 0
534 1 32.4984 4.86629 0 1.00171 2 0 0.0529523 1 0.00820255 -0.00719874
485 2 34 4 0 1 2 5 0.0368703 1 0 0
535 1 33.4981 4.86339 0 1.00275 2 0 0.0532098 1 -0.000178909 0.00157851
536 1 34.5005 4.86208 0 1.0237 2 0 0.0534064 1 -0.00133177 0.00544502
486 2 35 4 0 1 2 5 0.0369012 1 0 0
487 2 36 4 0 1 2 5 0.0370374 1 0 0
538 1 36.4973 4.8634 0 1.01227 2 0 0.0539054 1 0.00590544 -0.00295686
537 1 35.5008 4.86355 0 1.0067 2 0 0.0536524 1 -0.0108243 -0.00167293
488 2 37 4 0 1 2 5 0.0371454 1 0 0
489 2 38 4 0 1 2 5 0.0371371 1 0 0
539 1 37.4968 4.8634 0 1.00174 2 0 0.0540782 1 0.00117339 -0.00242849
490 2 39 4 0 1 2 5 0.0370049 1 0 0
541 1 39.4999 4.8615 0 1.00168 2 0 0.054174 1 0.00160565 -0.00313688
540 1 38.4983 4.86093 0 1.01715 2 0 0.0541752 1 0.00289339 0.00201735
491 2 40 4 0 1 2 5 0.0367197 1 0 0
492 2 41 4 0 1 2 5 0.0362679 1 0 0
542 1 40.5014 4.86013 0 1.01016 2 0 0.054093 1 -0.00165476 0.00449984
543 1 41.5007 4.86151 0 1.03252 2 0 0.0540133 1 0.00168446 0.000384248
493 2 42 4 0 1 2 5 0.0359394 1 0 0
494 2 43 4 0 1 2 5 0.0359385 1 0 0
544 1 42.5004 4.86301 0 1.0319 2 0 0.0540393 1 0.00383906 -0.0040233
495 2 44 4 0 1 2 5 0.0362563 1 0 0
545 1 43.5009 4.86386 0 1.03659 2 0 0.054161 1 0.00116041 -0.00562924
546 1 44.5019 4.86244 0 1.01001 2 0 0.0543356 1 0.00102602 0.00129509
496 2 45 4 0 1 2 5 0.0366551 1 0 0
497 2 46 4 0 1 2 5 0.036799 1 0 0
548 1 46.5035 4.86275 0 1.00807 2 0 0.0546059 1 -0.000336858 -0.00183371
547 1 45.502 4.86274 0 1.00173 2 0 0.0545162 1 0.00245315 -0.00127469
498 2 47 4 0 1 2 5 0.0366383 1 0 0
499 2 48 4 0 1 2 5 0.0363512 1 0 0
549 1 47.5032 4.86212 0 1.02093 2 0 0.0545894 1 -0.00097405 -0.00108056
500 2 49 4 0 1 2 5 0.0361147 1 0 0
550 1 48.5031 4.86121 0 1.02225 2 0 0.0546017 1 -0.000493588 0.0046635
8501 1 49.5034 4.86201 0 1.06187 2 0 0.0546875 1 -0.00120168 0.000407764
501 2 0 5 0 1 2 8 0.000295602 1 0 0
502 2 1 5 0 1 2 8 0.000527118 1 0 0
551 2 0 6 0 1 2 8 0.000431148 1 0 0
552 2 1 6 0 1 2 8 0.000777929 1 0 0
503 2 2 5 0 1 2 8 0.00141861 1 0 0
504 2 3 5 0 1 2 8 0.00338504 1 0 0
553 2 2 6 0 1 2 8 0.00210645 1 0 0
554 2 3 6 0 1 2 8 0.00500455 1 0 0
505 2 4 5 0 1 2 6 0.00666177 1 0 0
555 2 4 6 0 1 2 5 0.00955442 1 0 0
556 1 4.95395 5.70417 0 1.02426 2 0 0.0135346 1 -0.00373392 0.00206444
557 1 5.95064 5.75401 0 1.00456 2 0 0.0176761 1 0.00318244 -0.00161211
558 1 6.95698 5.74354 0 1.00032 2 0 0.0213778 1 0.00304985 0.00675409
509 1 7.98029 5.72821 0 1.00999 2 0 0.0251433 1 0.010482 0.00348273
560 1 8.98833 5.73072 0 1.01571 2 0 0.0286732 1 0.00132205 0.000983904
561 1 9.99 5.72593 0 1.04128 2 0 0.0321011 1 0.00392228 0.010193
562 1 10.9879 5.7257 0 1.02468 2 0 0.0353935 1 0.00460278 -0.000693271
563 1 11.9891 5.72749 0 1.00884 2 0 0.0385059 1 -0.00264453 -0.0129243
565 1 12.9864 5.72453 0 1.01555 2 0 0.0414859 1 0.00898642 -0.00810584
566 1 13.9913 5.72223 0 1.01485 2 0 0.0442787 1 0.00111003 0.00234932
567 1 14.9926 5.72074 0 1.00349 2 0 0.0468586 1 -0.00449926 -0.00564518
568 1 15.9914 5.72057 0 1.02492 2 0 0.0492749 1 0.010901 0.00511795
569 1 17.9989 5.72553 0 1.01386 2 0 0.0535019 1 0.00133898 -0.0140555
618 1 16.9916 5.72049 0 1.00786 2 0 0.0514953 1 0.00152283 0.00052
570 1 18.9974 5.72238 0 1.00562 2 0 0.0552811 1 -0.00439997 0.00995013
571 1 19.9938 5.72133 0 1.00943 2 0 0.0568865 1 0.0119963 0.0169197
572 1 20.9951 5.72749 0 1.02492 2 0 0.0583337 1 0.00567399 -0.0125591
573 1 21.9963 5.72568 0 1.00977 2 0 0.0596418 1 0.0028951 0.000408939
574 1 22.9953 5.72898 0 1.00488 2 0 0.0607794 1 0.00536918 0.000548457
575 1 24.0013 5.73105 0 1.01237 2 0 0.0618206 1 -0.0017879 0.01263
576 1 24.999 5.73241 0 1.01087 2 0 0.0627704 1 0.00614229 -0.00810195
577 1 25.9974 5.74132 0 1.01133 2 0 0.0636876 1 0.00447389 -0.00646432
579 1 27.001 5.734 0 1.01129 2 0 0.0644808 1 0 -5e-05
580 1 28.0064 5.73563 0 1.02117 2 0 0.0652793 1 -0.00363854 -0.00438286
581 1 29.0033 5.72937 0 1.01861 2 0 0.0660467 1 0.00343034 0.000328232
632 1 30.0021 5.72915 0 1.0167 2 0 0.0667021 1 -0.00217565 0.00285196
582 1 31.0006 5.72878 0 1.0143 2 0 0.0673082 1 0.00202319 0.00643394
583 1 31.9991 5.73063 0 1.0088 2 0 0.0678458 1 0.000911494 0.0051121
584 1 32.9984 5.72894 0 1.00514 2 0 0.0683375 1 0.00407337 -0.00345784
585 1 33.9988 5.72551 0 1.02197 2 0 0.0688094 1 0.00118872 0.00655307
586 1 34.9982 5.7268 0 1.02669 2 0 0.0692161 1 -0.00227396 -0.00149456
587 1 35.9968 5.72709 0 1.01702 2 0 0.0696017 1 -0.00239763 -0.00310561
588 1 36.9941 5.72614 0 1.01798 2 0 0.0699348 1 0.00998058 -0.00231209
589 1 37.9996 5.72265 0 1.01656 2 0 0.0701893 1 -0.00189778 0.00151391
590 1 39.0009 5.72169 0 1.01208 2 0 0.0703797 1 0.000269944 0.00202788
591 1 40.0021 5.72158 0 1.01334 2 0 0.0705546 1 -0.00121754 0.00347742
592 1 41.0012 5.72254 0 1.02633 2 0 0.0707913 1 0.00201621 -0.000198074
594 1 43.0025 5.72557 0 1.01497 2 0 0.0710775 1 -0.00307743 -0.00156421
593 1 42.0018 5.72345 0 1.02837 2 0 0.070987 1 -0.00284166 0.00132943
595 1 44.0044 5.72506 0 1.01694 2 0 0.0710968 1 -0.00158544 -0.00398853
596 1 45.0059 5.72476 0 1.01116 2 0 0.0711595 1 -0.00138811 -0.00432923
597 1 46.007 5.72476 0 1.01212 2 0 0.0713381 1 0.000262338 -0.00402201
598 1 47.0072 5.72502 0 1.00861 2 0 0.0715095 1 -0.00639242 -0.00291804
599 1 48.0052 5.7239 0 1.02545 2 0 0.0716814 1 0.0041908 0.000163108
600 1 49.0064 5.72342 0 1.00476 2 0 0.0718845 1 -0.0048706 0.00508661
2748 1 46.8179 45.362 0 1.00726 0 0 0.490895 1 -8.55803e-05 0.000174997
601 2 0 7 0 1 2 8 0.000570849 1 0 0
602 2 1 7 0 1 2 8 0.00104015 1 0 0
651 2 0 8 0 1 2 8 0.000700962 1 0 0
652 2 1 8 0 1 2 8 0.00128932 1 0 0
603 2 2 7 0 1 2 8 0.00283041 1 0 0
604 2 3 7 0 1 2 8 0.00672098 1 0 0
653 2 2 8 0 1 2 8 0.00352914 1 0 0
654 2 3 8 0 1 2 8 0.00842993 1 0 0
605 2 4 7 0 1 2 5 0.0125908 1 0 0
655 2 4 8 0 1 2 5 0.0155055 1 0 0
656 1 4.87727 7.4916 0 1.01253 2 0 0.0185363 1 0 -5e-05
606 1 5.40742 6.60082 0 1.01839 2 0 0.0186181 1 0 -5e-05
607 1 6.40967 6.63923 0 1.01626 2 0 0.0230475 1 0.00117212 0.00295571
657 1 5.88603 7.49433 0 1.02523 2 0 0.0239313 1 0 -5e-05
608 1 7.48268 6.59061 0 1.01581 2 0 0.0275556 1 0.00188292 0.00704422
609 1 7.98496 7.45527 0 1.00447 2 0 0.0340655 1 -0.00426919 0.000840898
658 1 6.98604 7.45489 0 1.00499 2 0 0.0292579 1 -0.0115942 -0.00637108
559 1 8.48263 6.59195 0 1.01669 2 0 0.0317307 1 0.00309262 -0.00245724
610 1 9.49409 6.59136 0 1.00382 2 0 0.0358153 1 -0.0141357 0.00591857
661 1 8.988 7.45497 0 1.00906 2 0 0.0387963 1 0.00131943 -0.00231887
612 1 9.98799 7.45986 0 1.00002 2 0 0.043392 1 -0.00501935 -0.00122724
611 1 10.4878 6.59125 0 1.00368 2 0 0.0397884 1 0.00745956 -0.00163107
564 1 11.4862 6.58584 0 1.01095 2 0 0.0436177 1 0.00120823 0.0154424
613 1 10.9858 7.45496 0 1.00877 2 0 0.0479458 1 0.00196023 5.32316e-05
614 1 12.4859 6.58543 0 1.01882 2 0 0.0473201 1 -0.00355735 0.00937869
665 1 12.9833 7.44468 0 1.00809 2 0 0.0566907 1 -0.00295842 0.00221833
664 1 11.9846 7.45033 0 1.0022 2 0 0.0523861 1 -0.000490787 -0.00378454
615 1 13.4848 6.58107 0 1.00601 2 0 0.0508725 1 0.00168524 0.00477845
616 1 14.4915 6.58229 0 1.00878 2 0 0.0541963 1 -0.00585682 0.00538399
666 1 13.9813 7.44001 0 0.997531 2 0 0.0607824 1 0.00956237 0.00798656
667 1 14.99 7.44542 0 1.00922 2 0 0.0646848 1 -0.0147482 0.000284213
617 1 15.4884 6.58172 0 1.01132 2 0 0.0573446 1 0.00699588 0.000882935
668 1 15.9849 7.44271 0 1.01232 2 0 0.0683725 1 0.0100133 0.00664515
619 1 16.4927 6.58359 0 1.00791 2 0 0.0602996 1 -0.00603403 -0.00713546
669 1 17.4931 6.58057 0 1.0115 2 0 0.0630153 1 -0.00578426 0.0103078
719 1 16.9892 7.44362 0 1.0104 2 0 0.0718242 1 -0.00395468 -0.00674074
720 1 17.9927 7.44191 0 1.00384 2 0 0.0749894 1 0.000670433 0.00558508
620 1 18.501 6.58572 0 1.00047 2 0 0.0654646 1 -0.00214913 -0.00135367
621 1 19.5001 6.58627 0 1.01086 2 0 0.0676897 1 -0.0113454 -0.00485217
670 1 18.9967 7.44887 0 1.01205 2 0 0.077897 1 -0.00461837 -0.000547434
671 1 19.9952 7.44808 0 1.01101 2 0 0.0805702 1 0.00322936 0.0058817
622 1 20.4978 6.58433 0 1.02282 2 0 0.0697612 1 -0.0037206 0.0156466
623 1 21.498 6.58994 0 1.01715 2 0 0.0715717 1 -0.00904764 -0.000291607
672 1 20.9943 7.452 0 1.01032 2 0 0.082951 1 -0.00644649 -0.0055514
673 1 21.9933 7.45575 0 1.00705 2 0 0.08501 1 -0.000436365 -0.00441067
624 1 22.4943 6.58928 0 1.00933 2 0 0.0731519 1 0.00539887 0.0130744
674 1 22.9935 7.46071 0 1.01197 2 0 0.0868714 1 -0.00419991 -0.00828332
625 1 23.4941 6.59412 0 1.01358 2 0 0.0745796 1 0.00108707 0.000961767
626 1 24.5034 6.59564 0 1.01095 2 0 0.0758911 1 -0.00582117 0.00641094
675 1 23.9952 7.45855 0 1.00974 2 0 0.0885105 1 -0.00560718 0.00127386
676 1 24.992 7.4669 0 1.01754 2 0 0.0899942 1 -0.00129637 -0.00209939
578 1 26.4949 6.60747 0 1.0136 2 0 0.078131 1 0.0136979 -0.00580969
628 1 25.9882 7.46939 0 1.00647 2 0 0.0913665 1 0.0122251 0.00916834
627 1 25.5031 6.60772 0 1.0116 2 0 0.077067 1 -0.029815 -0.0158243
629 1 27.5088 6.60021 0 1.00585 2 0 0.0791993 1 -0.00409774 0.00158132
679 1 28.0081 7.46485 0 1.01276 2 0 0.0938623 1 -0.00878183 -0.00593423
678 1 27.0024 7.46405 0 1.01987 2 0 0.0926433 1 -0.00177694 -0.00574847
630 1 28.5097 6.60316 0 1.00031 2 0 0.0802156 1 -0.00540641 -0.014473
631 1 29.5083 6.59783 0 1.01679 2 0 0.0811267 1 -0.00994975 -0.000536841
680 1 29.0035 7.46633 0 1.0041 2 0 0.0950463 1 0.0109015 -0.00380403
681 1 30.002 7.46621 0 1.0067 2 0 0.096143 1 0.00402803 -0.00896019
682 1 30.5028 6.59797 0 1.0233 2 0 0.0819254 1 0.00895821 -5.22146e-05
633 1 31.5018 6.59981 0 1.00197 2 0 0.0826364 1 0.000502463 -0.00274633
732 1 31.0007 7.46524 0 1.02086 2 0 0.0971193 1 -0.00590386 -0.00327523
683 1 31.9974 7.46659 0 1.00602 2 0 0.0979974 1 0.00339401 -0.00937157
684 1 32.5018 6.59367 0 1.01173 2 0 0.0833117 1 -0.00717333 0.00476396
734 1 32.9948 7.46216 0 1.01306 2 0 0.0988146 1 0.0040589 -0.00431164
634 1 33.4997 6.59132 0 1.00318 2 0 0.0839721 1 0.00261997 0.00136064
635 1 34.4991 6.59187 0 1.01335 2 0 0.0846036 1 -0.00716396 -0.00420778
685 1 33.9969 7.45627 0 1.01182 2 0 0.0995756 1 -0.00162946 -0.0018102
686 1 34.9991 7.45397 0 1.01566 2 0 0.100292 1 -0.0123669 -0.00306351
636 1 35.497 6.59008 0 1.01343 2 0 0.0851511 1 6.296e-05 -0.00287075