ITEM: TIMESTEP
17500
ITEM: NUMBER OF ATOMS
15950
ITEM: BOX BOUNDS pp pp pp
0.0000000000000000e+00 1.0000000000000000e+02
-5.0000000000000000e+00 2.0000000000000000e+02
-5.0000000000000000e-01 5.0000000000000000e-01
ITEM: ATOMS id type x y z c_rho c_phase c_nbond c_temp f_rheo_chi_chi fx fy
1 2 0 -5 0 1 2 8 5.70141e-11 1 0 0
2 2 1 -5 0 1 2 8 8.92021e-11 1 0 0
51 2 0 -4 0 1 2 8 4.21069e-10 1 0 0
52 2 1 -4 0 1 2 8 6.85611e-10 1 0 0
3 2 2 -5 0 1 2 8 2.00599e-10 1 0 0
4 2 3 -5 0 1 2 8 4.209e-10 1 0 0
53 2 2 -4 0 1 2 8 1.62425e-09 1 0 0
54 2 3 -4 0 1 2 8 3.53453e-09 1 0 0
5 2 4 -5 0 1 2 7 7.80386e-10 1 0 0
55 2 4 -4 0 1 2 8 6.6354e-09 1 0 0
6 2 5 -5 0 1 2 6 1.29326e-09 1 0 0
7 2 6 -5 0 1 2 5 1.85937e-09 1 0 0
56 2 5 -4 0 1 2 8 1.08004e-08 1 0 0
57 2 6 -4 0 1 2 8 1.54574e-08 1 0 0
8 2 7 -5 0 1 2 5 2.37924e-09 1 0 0
9 2 8 -5 0 1 2 5 2.80586e-09 1 0 0
58 2 7 -4 0 1 2 8 1.98856e-08 1 0 0
59 2 8 -4 0 1 2 8 2.35316e-08 1 0 0
10 2 9 -5 0 1 2 5 3.11503e-09 1 0 0
60 2 9 -4 0 1 2 8 2.61712e-08 1 0 0
11 2 10 -5 0 1 2 5 3.31896e-09 1 0 0
12 2 11 -5 0 1 2 5 3.45519e-09 1 0 0
61 2 10 -4 0 1 2 8 2.79079e-08 1 0 0
62 2 11 -4 0 1 2 8 2.90648e-08 1 0 0
13 2 12 -5 0 1 2 5 3.56762e-09 1 0 0
14 2 13 -5 0 1 2 5 3.68201e-09 1 0 0
63 2 12 -4 0 1 2 8 3.00282e-08 1 0 0
64 2 13 -4 0 1 2 8 3.10273e-08 1 0 0
15 2 14 -5 0 1 2 5 3.79169e-09 1 0 0
65 2 14 -4 0 1 2 8 3.19839e-08 1 0 0
16 2 15 -5 0 1 2 5 3.87421e-09 1 0 0
17 2 16 -5 0 1 2 5 3.9229e-09 1 0 0
66 2 15 -4 0 1 2 8 3.26756e-08 1 0 0
67 2 16 -4 0 1 2 8 3.30535e-08 1 0 0
18 2 17 -5 0 1 2 5 3.95235e-09 1 0 0
19 2 18 -5 0 1 2 5 3.97384e-09 1 0 0
68 2 17 -4 0 1 2 8 3.32857e-08 1 0 0
69 2 18 -4 0 1 2 8 3.34952e-08 1 0 0
20 2 19 -5 0 1 2 5 3.97656e-09 1 0 0
70 2 19 -4 0 1 2 8 3.35736e-08 1 0 0
21 2 20 -5 0 1 2 5 3.93789e-09 1 0 0
22 2 21 -5 0 1 2 5 3.84875e-09 1 0 0
71 2 20 -4 0 1 2 8 3.32912e-08 1 0 0
72 2 21 -4 0 1 2 8 3.25466e-08 1 0 0
23 2 22 -5 0 1 2 5 3.72667e-09 1 0 0
24 2 23 -5 0 1 2 5 3.60842e-09 1 0 0
73 2 22 -4 0 1 2 8 3.1488e-08 1 0 0
74 2 23 -4 0 1 2 8 3.04413e-08 1 0 0
25 2 24 -5 0 1 2 5 3.53299e-09 1 0 0
75 2 24 -4 0 1 2 8 2.97636e-08 1 0 0
26 2 25 -5 0 1 2 5 3.52496e-09 1 0 0
27 2 26 -5 0 1 2 5 3.58312e-09 1 0 0
76 2 25 -4 0 1 2 8 2.96934e-08 1 0 0
77 2 26 -4 0 1 2 8 3.02252e-08 1 0 0
28 2 27 -5 0 1 2 5 3.68358e-09 1 0 0
29 2 28 -5 0 1 2 5 3.79857e-09 1 0 0
78 2 27 -4 0 1 2 8 3.11224e-08 1 0 0
79 2 28 -4 0 1 2 8 3.21114e-08 1 0 0
30 2 29 -5 0 1 2 5 3.91258e-09 1 0 0
80 2 29 -4 0 1 2 8 3.30607e-08 1 0 0
31 2 30 -5 0 1 2 5 4.0185e-09 1 0 0
32 2 31 -5 0 1 2 5 4.10315e-09 1 0 0
81 2 30 -4 0 1 2 8 3.39404e-08 1 0 0
82 2 31 -4 0 1 2 8 3.4656e-08 1 0 0
33 2 32 -5 0 1 2 5 4.14764e-09 1 0 0
34 2 33 -5 0 1 2 5 4.14548e-09 1 0 0
83 2 32 -4 0 1 2 8 3.50322e-08 1 0 0
84 2 33 -4 0 1 2 8 3.49964e-08 1 0 0
35 2 34 -5 0 1 2 5 4.11367e-09 1 0 0
85 2 34 -4 0 1 2 8 3.47038e-08 1 0 0
36 2 35 -5 0 1 2 5 4.07851e-09 1 0 0
37 2 36 -5 0 1 2 5 4.05215e-09 1 0 0
86 2 35 -4 0 1 2 8 3.44025e-08 1 0 0
87 2 36 -4 0 1 2 8 3.42008e-08 1 0 0
38 2 37 -5 0 1 2 5 4.02657e-09 1 0 0
39 2 38 -5 0 1 2 5 3.98668e-09 1 0 0
88 2 37 -4 0 1 2 8 3.40132e-08 1 0 0
89 2 38 -4 0 1 2 8 3.36898e-08 1 0 0
40 2 39 -5 0 1 2 5 3.92477e-09 1 0 0
90 2 39 -4 0 1 2 8 3.31506e-08 1 0 0
41 2 40 -5 0 1 2 5 3.84772e-09 1 0 0
42 2 41 -5 0 1 2 5 3.77785e-09 1 0 0
91 2 40 -4 0 1 2 8 3.24492e-08 1 0 0
92 2 41 -4 0 1 2 8 3.17883e-08 1 0 0
43 2 42 -5 0 1 2 5 3.74572e-09 1 0 0
44 2 43 -5 0 1 2 5 3.77213e-09 1 0 0
93 2 42 -4 0 1 2 8 3.14614e-08 1 0 0
94 2 43 -4 0 1 2 8 3.16809e-08 1 0 0
45 2 44 -5 0 1 2 5 3.8476e-09 1 0 0
95 2 44 -4 0 1 2 8 3.23721e-08 1 0 0
46 2 45 -5 0 1 2 5 3.92949e-09 1 0 0
47 2 46 -5 0 1 2 5 3.96808e-09 1 0 0
96 2 45 -4 0 1 2 8 3.31357e-08 1 0 0
97 2 46 -4 0 1 2 8 3.34985e-08 1 0 0
48 2 47 -5 0 1 2 5 3.94332e-09 1 0 0
49 2 48 -5 0 1 2 5 3.87839e-09 1 0 0
98 2 47 -4 0 1 2 8 3.32716e-08 1 0 0
99 2 48 -4 0 1 2 8 3.26782e-08 1 0 0
50 2 49 -5 0 1 2 5 3.81944e-09 1 0 0
100 2 49 -4 0 1 2 8 3.21531e-08 1 0 0
101 2 0 -3 0 1 2 8 2.82428e-09 1 0 0
102 2 1 -3 0 1 2 8 4.8125e-09 1 0 0
151 2 0 -2 0 1 2 8 1.6981e-08 1 0 0
152 2 1 -2 0 1 2 8 3.04636e-08 1 0 0
103 2 2 -3 0 1 2 8 1.20811e-08 1 0 0
104 2 3 -3 0 1 2 8 2.74333e-08 1 0 0
153 2 2 -2 0 1 2 8 8.1544e-08 1 0 0
154 2 3 -2 0 1 2 8 1.9431e-07 1 0 0
105 2 4 -3 0 1 2 8 5.3073e-08 1 0 0
155 2 4 -2 0 1 2 8 3.89416e-07 1 0 0
106 2 5 -3 0 1 2 8 8.79925e-08 1 0 0
107 2 6 -3 0 1 2 8 1.27402e-07 1 0 0
156 2 5 -2 0 1 2 8 6.60821e-07 1 0 0
157 2 6 -2 0 1 2 8 9.6976e-07 1 0 0
108 2 7 -3 0 1 2 8 1.65004e-07 1 0 0
109 2 8 -3 0 1 2 8 1.95942e-07 1 0 0
158 2 7 -2 0 1 2 8 1.26495e-06 1 0 0
159 2 8 -2 0 1 2 8 1.50769e-06 1 0 0
110 2 9 -3 0 1 2 8 2.18311e-07 1 0 0
160 2 9 -2 0 1 2 8 1.68331e-06 1 0 0
111 2 10 -3 0 1 2 8 2.33008e-07 1 0 0
112 2 11 -3 0 1 2 8 2.42773e-07 1 0 0
161 2 10 -2 0 1 2 8 1.79901e-06 1 0 0
162 2 11 -2 0 1 2 8 1.87599e-06 1 0 0
113 2 12 -3 0 1 2 8 2.50988e-07 1 0 0
114 2 13 -3 0 1 2 8 2.59703e-07 1 0 0
163 2 12 -2 0 1 2 8 1.94132e-06 1 0 0
164 2 13 -2 0 1 2 8 2.01224e-06 1 0 0
115 2 14 -3 0 1 2 8 2.68044e-07 1 0 0
165 2 14 -2 0 1 2 8 2.07997e-06 1 0 0
116 2 15 -3 0 1 2 8 2.73781e-07 1 0 0
117 2 16 -3 0 1 2 8 2.76589e-07 1 0 0
166 2 15 -2 0 1 2 8 2.12377e-06 1 0 0
167 2 16 -2 0 1 2 8 2.14205e-06 1 0 0
118 2 17 -3 0 1 2 8 2.78354e-07 1 0 0
119 2 18 -3 0 1 2 8 2.80387e-07 1 0 0
168 2 17 -2 0 1 2 8 2.15406e-06 1 0 0
169 2 18 -2 0 1 2 8 2.17243e-06 1 0 0
120 2 19 -3 0 1 2 8 2.81596e-07 1 0 0
170 2 19 -2 0 1 2 8 2.18685e-06 1 0 0
121 2 20 -3 0 1 2 8 2.79667e-07 1 0 0
122 2 21 -3 0 1 2 8 2.73531e-07 1 0 0
171 2 20 -2 0 1 2 8 2.17597e-06 1 0 0
172 2 21 -2 0 1 2 8 2.1298e-06 1 0 0
123 2 22 -3 0 1 2 8 2.64443e-07 1 0 0
124 2 23 -3 0 1 2 8 2.55246e-07 1 0 0
173 2 22 -2 0 1 2 8 2.0582e-06 1 0 0
174 2 23 -2 0 1 2 8 1.98377e-06 1 0 0
125 2 24 -3 0 1 2 8 2.49173e-07 1 0 0
175 2 24 -2 0 1 2 8 1.93326e-06 1 0 0
126 2 25 -3 0 1 2 8 2.4855e-07 1 0 0
127 2 26 -3 0 1 2 8 2.53405e-07 1 0 0
176 2 25 -2 0 1 2 8 1.92798e-06 1 0 0
177 2 26 -2 0 1 2 8 1.96915e-06 1 0 0
128 2 27 -3 0 1 2 8 2.61397e-07 1 0 0
129 2 28 -3 0 1 2 8 2.6982e-07 1 0 0
178 2 27 -2 0 1 2 8 2.03528e-06 1 0 0
179 2 28 -2 0 1 2 8 2.10134e-06 1 0 0
130 2 29 -3 0 1 2 8 2.77577e-07 1 0 0
180 2 29 -2 0 1 2 8 2.1589e-06 1 0 0
131 2 30 -3 0 1 2 8 2.84763e-07 1 0 0
132 2 31 -3 0 1 2 8 2.9077e-07 1 0 0
181 2 30 -2 0 1 2 8 2.21228e-06 1 0 0
182 2 31 -2 0 1 2 8 2.25873e-06 1 0 0
133 2 32 -3 0 1 2 8 2.93948e-07 1 0 0
134 2 33 -3 0 1 2 8 2.93485e-07 1 0 0
183 2 32 -2 0 1 2 8 2.28373e-06 1 0 0
184 2 33 -2 0 1 2 8 2.27882e-06 1 0 0
135 2 34 -3 0 1 2 8 2.90789e-07 1 0 0
185 2 34 -2 0 1 2 8 2.25586e-06 1 0 0
136 2 35 -3 0 1 2 8 2.88217e-07 1 0 0
137 2 36 -3 0 1 2 8 2.86738e-07 1 0 0
186 2 35 -2 0 1 2 8 2.23563e-06 1 0 0
187 2 36 -2 0 1 2 8 2.22613e-06 1 0 0
138 2 37 -3 0 1 2 8 2.85451e-07 1 0 0
139 2 38 -3 0 1 2 8 2.82896e-07 1 0 0
188 2 37 -2 0 1 2 8 2.21878e-06 1 0 0
189 2 38 -2 0 1 2 8 2.20056e-06 1 0 0
140 2 39 -3 0 1 2 8 2.78258e-07 1 0 0
190 2 39 -2 0 1 2 8 2.16394e-06 1 0 0
141 2 40 -3 0 1 2 8 2.71925e-07 1 0 0
142 2 41 -3 0 1 2 8 2.65712e-07 1 0 0
191 2 40 -2 0 1 2 8 2.11114e-06 1 0 0
192 2 41 -2 0 1 2 8 2.05705e-06 1 0 0
143 2 42 -3 0 1 2 8 2.62424e-07 1 0 0
144 2 43 -3 0 1 2 8 2.64214e-07 1 0 0
193 2 42 -2 0 1 2 8 2.0265e-06 1 0 0
194 2 43 -2 0 1 2 8 2.03968e-06 1 0 0
145 2 44 -3 0 1 2 8 2.70528e-07 1 0 0
195 2 44 -2 0 1 2 8 2.09305e-06 1 0 0
146 2 45 -3 0 1 2 8 2.77632e-07 1 0 0
147 2 46 -3 0 1 2 8 2.81022e-07 1 0 0
196 2 45 -2 0 1 2 8 2.15424e-06 1 0 0
197 2 46 -2 0 1 2 8 2.18351e-06 1 0 0
148 2 47 -3 0 1 2 8 2.78931e-07 1 0 0
149 2 48 -3 0 1 2 8 2.73503e-07 1 0 0
198 2 47 -2 0 1 2 8 2.16562e-06 1 0 0
199 2 48 -2 0 1 2 8 2.11966e-06 1 0 0
150 2 49 -3 0 1 2 8 2.68816e-07 1 0 0
200 2 49 -2 0 1 2 8 2.08084e-06 1 0 0
201 2 0 -1 0 1 2 8 9.01082e-08 1 0 0
202 2 1 -1 0 1 2 8 1.71229e-07 1 0 0
203 2 2 -1 0 1 2 8 4.91961e-07 1 0 0
204 2 3 -1 0 1 2 8 1.23823e-06 1 0 0
205 2 4 -1 0 1 2 8 2.58474e-06 1 0 0
206 2 5 -1 0 1 2 8 4.50431e-06 1 0 0
207 2 6 -1 0 1 2 8 6.70817e-06 1 0 0
208 2 7 -1 0 1 2 8 8.81512e-06 1 0 0
209 2 8 -1 0 1 2 8 1.05475e-05 1 0 0
210 2 9 -1 0 1 2 8 1.18051e-05 1 0 0
211 2 10 -1 0 1 2 8 1.26411e-05 1 0 0
212 2 11 -1 0 1 2 8 1.32013e-05 1 0 0
213 2 12 -1 0 1 2 8 1.36799e-05 1 0 0
214 2 13 -1 0 1 2 8 1.42105e-05 1 0 0
215 2 14 -1 0 1 2 8 1.47155e-05 1 0 0
216 2 15 -1 0 1 2 8 1.50184e-05 1 0 0
217 2 16 -1 0 1 2 8 1.51178e-05 1 0 0
218 2 17 -1 0 1 2 8 1.51895e-05 1 0 0
219 2 18 -1 0 1 2 8 1.53418e-05 1 0 0
220 2 19 -1 0 1 2 8 1.54853e-05 1 0 0
221 2 20 -1 0 1 2 8 1.54424e-05 1 0 0
222 2 21 -1 0 1 2 8 1.51317e-05 1 0 0
223 2 22 -1 0 1 2 8 1.46249e-05 1 0 0
224 2 23 -1 0 1 2 8 1.40807e-05 1 0 0
225 2 24 -1 0 1 2 8 1.36976e-05 1 0 0
226 2 25 -1 0 1 2 8 1.36552e-05 1 0 0
227 2 26 -1 0 1 2 8 1.39741e-05 1 0 0
228 2 27 -1 0 1 2 8 1.44742e-05 1 0 0
229 2 28 -1 0 1 2 8 1.49425e-05 1 0 0
230 2 29 -1 0 1 2 8 1.53208e-05 1 0 0
231 2 30 -1 0 1 2 8 1.56727e-05 1 0 0
232 2 31 -1 0 1 2 8 1.59976e-05 1 0 0
233 2 32 -1 0 1 2 8 1.61782e-05 1 0 0
234 2 33 -1 0 1 2 8 1.61345e-05 1 0 0
235 2 34 -1 0 1 2 8 1.59568e-05 1 0 0
236 2 35 -1 0 1 2 8 1.58131e-05 1 0 0
237 2 36 -1 0 1 2 8 1.57631e-05 1 0 0
238 2 37 -1 0 1 2 8 1.5733e-05 1 0 0
239 2 38 -1 0 1 2 8 1.56191e-05 1 0 0
240 2 39 -1 0 1 2 8 1.53588e-05 1 0 0
241 2 40 -1 0 1 2 8 1.49597e-05 1 0 0
242 2 41 -1 0 1 2 8 1.4531e-05 1 0 0
243 2 42 -1 0 1 2 8 1.42732e-05 1 0 0
244 2 43 -1 0 1 2 8 1.43582e-05 1 0 0
245 2 44 -1 0 1 2 8 1.47684e-05 1 0 0
246 2 45 -1 0 1 2 8 1.52476e-05 1 0 0
247 2 46 -1 0 1 2 8 1.54767e-05 1 0 0
248 2 47 -1 0 1 2 8 1.53371e-05 1 0 0
249 2 48 -1 0 1 2 8 1.49834e-05 1 0 0
250 2 49 -1 0 1 2 8 1.46902e-05 1 0 0
251 2 0 0 0 1 2 8 4.14421e-07 1 0 0
252 2 1 0 0 1 2 8 8.38551e-07 1 0 0
301 2 0 1 0 1 2 8 1.61931e-06 1 0 0
302 2 1 1 0 1 2 8 3.49872e-06 1 0 0
253 2 2 0 0 1 2 8 2.60223e-06 1 0 0
254 2 3 0 0 1 2 8 6.96925e-06 1 0 0
303 2 2 1 0 1 2 8 1.17773e-05 1 0 0
304 2 3 1 0 1 2 8 3.38031e-05 1 0 0
255 2 4 0 0 1 2 8 1.52571e-05 1 0 0
305 2 4 1 0 1 2 8 7.82453e-05 1 0 0
256 2 5 0 0 1 2 8 2.74219e-05 1 0 0
257 2 6 0 0 1 2 8 4.15e-05 1 0 0
306 2 5 1 0 1 2 8 0.000145917 1 0 0
307 2 6 1 0 1 2 8 0.000224738 1 0 0
258 2 7 0 0 1 2 8 5.49422e-05 1 0 0
259 2 8 0 0 1 2 8 6.60028e-05 1 0 0
308 2 7 1 0 1 2 8 0.000299596 1 0 0
309 2 8 1 0 1 2 8 0.000361338 1 0 0
260 2 9 0 0 1 2 8 7.40888e-05 1 0 0
310 2 9 1 0 1 2 8 0.000407055 1 0 0
261 2 10 0 0 1 2 8 7.95593e-05 1 0 0
262 2 11 0 0 1 2 8 8.32828e-05 1 0 0
311 2 10 1 0 1 2 8 0.000438879 1 0 0
312 2 11 1 0 1 2 8 0.000461171 1 0 0
263 2 12 0 0 1 2 8 8.64711e-05 1 0 0
264 2 13 0 0 1 2 8 9.00698e-05 1 0 0
313 2 12 1 0 1 2 8 0.00048017 1 0 0
314 2 13 1 0 1 2 8 0.000501851 1 0 0
265 2 14 0 0 1 2 8 9.3478e-05 1 0 0
315 2 14 1 0 1 2 8 0.000522282 1 0 0
266 2 15 0 0 1 2 8 9.53521e-05 1 0 0
267 2 16 0 0 1 2 8 9.5767e-05 1 0 0
316 2 15 1 0 1 2 8 0.000532523 1 0 0
317 2 16 1 0 1 2 8 0.000533616 1 0 0
268 2 17 0 0 1 2 8 9.61387e-05 1 0 0
269 2 18 0 0 1 2 8 9.72811e-05 1 0 0
318 2 17 1 0 1 2 8 0.000535365 1 0 0
319 2 18 1 0 1 2 8 0.000542976 1 0 0
270 2 19 0 0 1 2 8 9.84941e-05 1 0 0
320 2 19 1 0 1 2 8 0.000551635 1 0 0
271 2 20 0 0 1 2 8 9.84685e-05 1 0 0
272 2 21 0 0 1 2 8 9.66413e-05 1 0 0
321 2 20 1 0 1 2 8 0.000553001 1 0 0
322 2 21 1 0 1 2 8 0.000543924 1 0 0
273 2 22 0 0 1 2 8 9.3495e-05 1 0 0
274 2 23 0 0 1 2 8 8.99818e-05 1 0 0
323 2 22 1 0 1 2 8 0.000527411 1 0 0
324 2 23 1 0 1 2 8 0.000508044 1 0 0
275 2 24 0 0 1 2 8 8.73806e-05 1 0 0
325 2 24 1 0 1 2 8 0.000492652 1 0 0
276 2 25 0 0 1 2 8 8.70651e-05 1 0 0
277 2 26 0 0 1 2 8 8.92805e-05 1 0 0
326 2 25 1 0 1 2 8 0.000490559 1 0 0
327 2 26 1 0 1 2 8 0.000503994 1 0 0
278 2 27 0 0 1 2 8 9.2673e-05 1 0 0
279 2 28 0 0 1 2 8 9.56162e-05 1 0 0
328 2 27 1 0 1 2 8 0.00052411 1 0 0
329 2 28 1 0 1 2 8 0.000540057 1 0 0
280 2 29 0 0 1 2 8 9.77495e-05 1 0 0
330 2 29 1 0 1 2 8 0.000549868 1 0 0
281 2 30 0 0 1 2 8 9.97486e-05 1 0 0
282 2 31 0 0 1 2 8 0.000101766 1 0 0
331 2 30 1 0 1 2 8 0.00055922 1 0 0
332 2 31 1 0 1 2 8 0.000570049 1 0 0
283 2 32 0 0 1 2 8 0.000102946 1 0 0
284 2 33 0 0 1 2 8 0.000102619 1 0 0
333 2 32 1 0 1 2 8 0.000576872 1 0 0
334 2 33 1 0 1 2 8 0.000574859 1 0 0
285 2 34 0 0 1 2 8 0.000101396 1 0 0
335 2 34 1 0 1 2 8 0.000567596 1 0 0
286 2 35 0 0 1 2 8 0.000100496 1 0 0
287 2 36 0 0 1 2 8 0.000100312 1 0 0
336 2 35 1 0 1 2 8 0.000562814 1 0 0
337 2 36 1 0 1 2 8 0.000562696 1 0 0
288 2 37 0 0 1 2 8 0.000100282 1 0 0
289 2 38 0 0 1 2 8 9.96813e-05 1 0 0
338 2 37 1 0 1 2 8 0.000563538 1 0 0
339 2 38 1 0 1 2 8 0.000561026 1 0 0
290 2 39 0 0 1 2 8 9.80526e-05 1 0 0
340 2 39 1 0 1 2 8 0.000552338 1 0 0
291 2 40 0 0 1 2 8 9.53703e-05 1 0 0
292 2 41 0 0 1 2 8 9.23345e-05 1 0 0
341 2 40 1 0 1 2 8 0.000536791 1 0 0
342 2 41 1 0 1 2 8 0.000518091 1 0 0
293 2 42 0 0 1 2 8 9.03959e-05 1 0 0
294 2 43 0 0 1 2 8 9.08576e-05 1 0 0
343 2 42 1 0 1 2 8 0.000505447 1 0 0
344 2 43 1 0 1 2 8 0.000507408 1 0 0
295 2 44 0 0 1 2 8 9.36688e-05 1 0 0
345 2 44 1 0 1 2 8 0.000524127 1 0 0
296 2 45 0 0 1 2 8 9.7015e-05 1 0 0
297 2 46 0 0 1 2 8 9.86057e-05 1 0 0
346 2 45 1 0 1 2 8 0.000544386 1 0 0
347 2 46 1 0 1 2 8 0.000553879 1 0 0
298 2 47 0 0 1 2 8 9.76302e-05 1 0 0
299 2 48 0 0 1 2 8 9.52072e-05 1 0 0
348 2 47 1 0 1 2 8 0.000547917 1 0 0
349 2 48 1 0 1 2 8 0.000533557 1 0 0
300 2 49 0 0 1 2 8 9.32233e-05 1 0 0
350 2 49 1 0 1 2 8 0.000521824 1 0 0
351 2 0 2 0 1 2 8 5.27109e-06 1 0 0
352 2 1 2 0 1 2 8 1.21392e-05 1 0 0
401 2 0 3 0 1 2 8 1.40758e-05 1 0 0
402 2 1 3 0 1 2 8 3.43148e-05 1 0 0
353 2 2 2 0 1 2 8 4.43029e-05 1 0 0
354 2 3 2 0 1 2 8 0.000136672 1 0 0
403 2 2 3 0 1 2 8 0.000134427 1 0 0
404 2 3 3 0 1 2 8 0.000443101 1 0 0
355 2 4 2 0 1 2 8 0.000337308 1 0 0
405 2 4 3 0 1 2 8 0.00115942 1 0 0
356 2 5 2 0 1 2 8 0.000658179 1 0 0
357 2 6 2 0 1 2 8 0.00103244 1 0 0
406 2 5 3 0 1 2 8 0.00240732 1 0 0
407 2 6 3 0 1 2 8 0.00386107 1 0 0
358 2 7 2 0 1 2 8 0.00138313 1 0 0
359 2 8 2 0 1 2 8 0.00167427 1 0 0
408 2 7 3 0 1 2 8 0.0051632 1 0 0
409 2 8 3 0 1 2 8 0.00626854 1 0 0
360 2 9 2 0 1 2 8 0.00189453 1 0 0
410 2 9 3 0 1 2 8 0.0071382 1 0 0
361 2 10 2 0 1 2 8 0.00205438 1 0 0
362 2 11 2 0 1 2 8 0.00217144 1 0 0
411 2 10 3 0 1 2 8 0.00780377 1 0 0
412 2 11 3 0 1 2 8 0.00832674 1 0 0
363 2 12 2 0 1 2 8 0.00227043 1 0 0
364 2 13 2 0 1 2 8 0.0023829 1 0 0
413 2 12 3 0 1 2 8 0.00876321 1 0 0
414 2 13 3 0 1 2 8 0.0092452 1 0 0
365 2 14 2 0 1 2 8 0.00248816 1 0 0
415 2 14 3 0 1 2 8 0.00969448 1 0 0
366 2 15 2 0 1 2 8 0.00253725 1 0 0
367 2 16 2 0 1 2 8 0.0025382 1 0 0
416 2 15 3 0 1 2 8 0.00990255 1 0 0
417 2 16 3 0 1 2 8 0.00991289 1 0 0
368 2 17 2 0 1 2 8 0.00254672 1 0 0
369 2 18 2 0 1 2 8 0.00259056 1 0 0
418 2 17 3 0 1 2 8 0.00996753 1 0 0
419 2 18 3 0 1 2 8 0.0101786 1 0 0
370 2 19 2 0 1 2 8 0.00264134 1 0 0
420 2 19 3 0 1 2 8 0.0104149 1 0 0
371 2 20 2 0 1 2 8 0.0026552 1 0 0
372 2 21 2 0 1 2 8 0.00261924 1 0 0
421 2 20 3 0 1 2 8 0.0104956 1 0 0
422 2 21 3 0 1 2 8 0.0103936 1 0 0
373 2 22 2 0 1 2 8 0.00255042 1 0 0
374 2 23 2 0 1 2 8 0.00246411 1 0 0
423 2 22 3 0 1 2 8 0.0101938 1 0 0
424 2 23 3 0 1 2 8 0.00991441 1 0 0
375 2 24 2 0 1 2 8 0.00238848 1 0 0
425 2 24 3 0 1 2 8 0.00962643 1 0 0
376 2 25 2 0 1 2 8 0.00237684 1 0 0
377 2 26 2 0 1 2 8 0.00244475 1 0 0
426 2 25 3 0 1 2 8 0.00958108 1 0 0
427 2 26 3 0 1 2 8 0.00984796 1 0 0
378 2 27 2 0 1 2 8 0.00254477 1 0 0
379 2 28 2 0 1 2 8 0.00261613 1 0 0
428 2 27 3 0 1 2 8 0.0102397 1 0 0
429 2 28 3 0 1 2 8 0.0104903 1 0 0
380 2 29 2 0 1 2 8 0.0026497 1 0 0
430 2 29 3 0 1 2 8 0.010558 1 0 0
381 2 30 2 0 1 2 8 0.00268289 1 0 0
382 2 31 2 0 1 2 8 0.00273116 1 0 0
431 2 30 3 0 1 2 8 0.0106364 1 0 0
432 2 31 3 0 1 2 8 0.0108045 1 0 0
383 2 32 2 0 1 2 8 0.00276479 1 0 0
384 2 33 2 0 1 2 8 0.00275518 1 0 0
433 2 32 3 0 1 2 8 0.0109389 1 0 0
434 2 33 3 0 1 2 8 0.0109084 1 0 0
385 2 34 2 0 1 2 8 0.00271976 1 0 0
435 2 34 3 0 1 2 8 0.0107752 1 0 0
386 2 35 2 0 1 2 8 0.00269955 1 0 0
387 2 36 2 0 1 2 8 0.00270409 1 0 0
436 2 35 3 0 1 2 8 0.0107149 1 0 0
437 2 36 3 0 1 2 8 0.0107557 1 0 0
388 2 37 2 0 1 2 8 0.00271317 1 0 0
389 2 38 2 0 1 2 8 0.00270576 1 0 0
438 2 37 3 0 1 2 8 0.0108078 1 0 0
439 2 38 3 0 1 2 8 0.0107949 1 0 0
390 2 39 2 0 1 2 8 0.00266814 1 0 0
440 2 39 3 0 1 2 8 0.0106723 1 0 0
391 2 40 2 0 1 2 8 0.00259401 1 0 0
392 2 41 2 0 1 2 8 0.00249812 1 0 0
441 2 40 3 0 1 2 8 0.0104082 1 0 0
442 2 41 3 0 1 2 8 0.0100259 1 0 0
393 2 42 2 0 1 2 8 0.0024298 1 0 0
394 2 43 2 0 1 2 8 0.00243536 1 0 0
443 2 42 3 0 1 2 8 0.00974299 1 0 0
444 2 43 3 0 1 2 8 0.00974797 1 0 0
395 2 44 2 0 1 2 8 0.0025179 1 0 0
445 2 44 3 0 1 2 8 0.0100637 1 0 0
396 2 45 2 0 1 2 8 0.00261954 1 0 0
397 2 46 2 0 1 2 8 0.00266575 1 0 0
446 2 45 3 0 1 2 8 0.0104575 1 0 0
447 2 46 3 0 1 2 8 0.0106248 1 0 0
398 2 47 2 0 1 2 8 0.00263515 1 0 0
399 2 48 2 0 1 2 8 0.00256487 1 0 0
448 2 47 3 0 1 2 8 0.0104982 1 0 0
449 2 48 3 0 1 2 8 0.0102355 1 0 0
400 2 49 2 0 1 2 8 0.00250662 1 0 0
450 2 49 3 0 1 2 8 0.0100034 1 0 0
451 2 0 4 0 1 2 8 3.06404e-05 1 0 0
452 2 1 4 0 1 2 8 7.82411e-05 1 0 0
453 2 2 4 0 1 2 8 0.000324343 1 0 0
454 2 3 4 0 1 2 8 0.00111644 1 0 0
455 2 4 4 0 1 2 7 0.00294993 1 0 0
456 2 5 4 0 1 2 6 0.00660056 1 0 0
457 2 6 4 0 1 2 5 0.0105195 1 0 0
506 1 5.49696 4.86059 0 1.0006 2 0 0.0141211 1 -0.00159037 0.0162862
507 1 6.49458 4.8736 0 1.02569 2 0 0.0183761 1 0.0021711 2.27698e-05
458 2 7 4 0 1 2 5 0.0138127 1 0 0
459 2 8 4 0 1 2 5 0.0167896 1 0 0
508 1 7.49338 4.86827 0 1.03193 2 0 0.0225686 1 -0.00209589 -0.00564652
460 2 9 4 0 1 2 5 0.01926 1 0 0
510 1 8.49269 4.86526 0 1.01036 2 0 0.026529 1 0.00399011 0.00457101
511 1 9.49468 4.85997 0 1.00136 2 0 0.0301222 1 0.00526272 0.0179896
461 2 10 4 0 1 2 5 0.0212848 1 0 0
462 2 11 4 0 1 2 5 0.023007 1 0 0
512 1 10.5006 4.86068 0 1.01573 2 0 0.0334535 1 -0.00964411 0.0142756
513 1 11.4967 4.86665 0 1.01534 2 0 0.0365454 1 0.0127714 -0.0043138
463 2 12 4 0 1 2 5 0.0245026 1 0 0
464 2 13 4 0 1 2 5 0.026006 1 0 0
514 1 12.5014 4.86603 0 1.01802 2 0 0.0393918 1 -0.00515828 -7.44195e-05
465 2 14 4 0 1 2 5 0.0273655 1 0 0
515 1 13.4996 4.86581 0 1.02031 2 0 0.0420359 1 0.00342685 0.000196637
516 1 14.4992 4.86447 0 1.0096 2 0 0.044264 1 0.00173201 0.00460239
466 2 15 4 0 1 2 5 0.028125 1 0 0
467 2 16 4 0 1 2 5 0.0283431 1 0 0
518 1 16.4976 4.86202 0 1.02515 2 0 0.0473752 1 0.0132798 0.0118239
517 1 15.5038 4.87257 0 1.02614 2 0 0.0459766 1 -0.0138174 -0.00302007
468 2 17 4 0 1 2 5 0.0286457 1 0 0
469 2 18 4 0 1 2 5 0.0293933 1 0 0
519 1 17.4971 4.86408 0 1.0239 2 0 0.048729 1 0.00021216 -0.00085534
470 2 19 4 0 1 2 5 0.0301286 1 0 0
520 1 18.4991 4.8641 0 1.00577 2 0 0.049934 1 -0.0108282 -2.11324e-05
521 1 19.4948 4.863 0 1.00453 2 0 0.0509157 1 0.0180534 0.00117394
471 2 20 4 0 1 2 5 0.0304284 1 0 0
472 2 21 4 0 1 2 5 0.030308 1 0 0
523 1 21.4987 4.86343 0 1.02268 2 0 0.0520822 1 0.00048035 0.00630436
522 1 20.4971 4.86442 0 1.0139 2 0 0.05162 1 0.00290042 0.00499404
473 2 22 4 0 1 2 5 0.0300544 1 0 0
474 2 23 4 0 1 2 5 0.0295565 1 0 0
524 1 22.5008 4.86799 0 1.01383 2 0 0.0523243 1 -0.00450678 -0.012281
475 2 24 4 0 1 2 5 0.0289246 1 0 0
525 1 23.4951 4.86859 0 1.03669 2 0 0.0523842 1 0.0118251 0.000336434
526 1 24.4971 4.86586 0 1.04245 2 0 0.0526011 1 -0.0156716 0.00272016
476 2 25 4 0 1 2 5 0.0288541 1 0 0
477 2 26 4 0 1 2 5 0.0295067 1 0 0
528 1 26.4879 4.87824 0 1.04147 2 0 0.0539451 1 -0.000511536 -0.0050324
527 1 25.4884 4.86516 0 1.03798 2 0 0.0534265 1 0.0227459 0.0112834
478 2 27 4 0 1 2 5 0.0305225 1 0 0
479 2 28 4 0 1 2 5 0.0310921 1 0 0
529 1 27.4946 4.86467 0 1.0019 2 0 0.0548239 1 0.00382314 0.00663423
480 2 29 4 0 1 2 5 0.0311429 1 0 0
531 1 29.4964 4.86241 0 1.01679 2 0 0.0552979 1 0.0028252 0.00959835
530 1 28.4946 4.86166 0 1.02091 2 0 0.0551736 1 0.00534559 0.0130855
481 2 30 4 0 1 2 5 0.031217 1 0 0
482 2 31 4 0 1 2 5 0.031604 1 0 0
533 1 31.4973 4.86033 0 1.004 2 0 0.0554057 1 0.00642926 0.0170689
532 1 30.4993 4.86475 0 1.0182 2 0 0.0553074 1 -0.00806153 -0.00478598
483 2 32 4 0 1 2 5 0.0319503 1 0 0
484 2 33 4 0 1 2 5 0.0319164 1 0 0
534 1 32.5021 4.86786 0 1.00171 2 0 0.0555045 1 3.92409e-05 -0.00441266
485 2 34 4 0 1 2 5 0.0316218 1 0 0
535 1 33.5008 4.86678 0 1.00275 2 0 0.0555029 1 0.0039608 -0.00257524
536 1 34.5083 4.86409 0 1.0237 2 0 0.0555156 1 -0.0183668 0.00999586
486 2 35 4 0 1 2 5 0.0315368 1 0 0
487 2 36 4 0 1 2 5 0.0316909 1 0 0
538 1 36.4975 4.87528 0 1.01227 2 0 0.0558242 1 0.00338384 9.44288e-06
537 1 35.5019 4.87072 0 1.0067 2 0 0.0556289 1 0.00377464 -6.25388e-06
488 2 37 4 0 1 2 5 0.03185 1 0 0
489 2 38 4 0 1 2 5 0.0318216 1 0 0
539 1 37.4948 4.87179 0 1.00174 2 0 0.0558775 1 0.00430116 -0.00156615
490 2 39 4 0 1 2 5 0.0315672 1 0 0
541 1 39.4986 4.86111 0 1.00168 2 0 0.0556886 1 0.00599332 0.005649
540 1 38.4947 4.86592 0 1.01715 2 0 0.0558181 1 -0.000315798 -0.00247618
491 2 40 4 0 1 2 5 0.0310005 1 0 0
492 2 41 4 0 1 2 5 0.0300527 1 0 0
542 1 40.4981 4.86922 0 1.01016 2 0 0.0553863 1 0.00356053 -0.00480735
543 1 41.5019 4.87572 0 1.03252 2 0 0.0551551 1 -0.00796753 7.51151e-08
493 2 42 4 0 1 2 5 0.0293518 1 0 0
494 2 43 4 0 1 2 5 0.0293463 1 0 0
544 1 42.498 4.86946 0 1.0319 2 0 0.0549726 1 0.00323567 -0.000111347
495 2 44 4 0 1 2 5 0.0301025 1 0 0
545 1 43.4956 4.87184 0 1.03659 2 0 0.0551318 1 0.00473185 -3.87285e-05
546 1 44.497 4.86615 0 1.01001 2 0 0.0554937 1 0.00138653 0.00236641
496 2 45 4 0 1 2 5 0.0310501 1 0 0
497 2 46 4 0 1 2 5 0.0313979 1 0 0
548 1 46.504 4.87346 0 1.00807 2 0 0.0559111 1 -0.00021389 -4.93573e-05
547 1 45.4996 4.86816 0 1.00173 2 0 0.055832 1 0 -5e-05
498 2 47 4 0 1 2 5 0.0310628 1 0 0
499 2 48 4 0 1 2 5 0.0304467 1 0 0
549 1 47.5039 4.87045 0 1.02093 2 0 0.0553378 1 -0.00224676 -5.77552e-05
500 2 49 4 0 1 2 5 0.0298647 1 0 0
550 1 48.5027 4.87334 0 1.02225 2 0 0.0549396 1 -0.00892897 -0.0115096
8501 1 49.5002 4.86402 0 1.06187 2 0 0.0546999 1 -0.00912447 0.0025289
501 2 0 5 0 1 2 8 5.4847e-05 1 0 0
502 2 1 5 0 1 2 8 0.000144862 1 0 0
551 2 0 6 0 1 2 8 8.30471e-05 1 0 0
552 2 1 6 0 1 2 8 0.000224183 1 0 0
503 2 2 5 0 1 2 8 0.00062308 1 0 0
504 2 3 5 0 1 2 8 0.00222288 1 0 0
553 2 2 6 0 1 2 8 0.000980178 1 0 0
554 2 3 6 0 1 2 8 0.00352961 1 0 0
505 2 4 5 0 1 2 6 0.00611169 1 0 0
555 2 4 6 0 1 2 5 0.00954068 1 0 0
556 1 4.9575 5.70848 0 1.02426 2 0 0.0155987 1 -0.00039193 -0.000783434
557 1 5.98108 5.73891 0 1.00456 2 0 0.0215692 1 -0.00135134 -6.34057e-05
558 1 6.98036 5.74883 0 1.00032 2 0 0.0269014 1 -0.000704748 -0.00346755
509 1 7.98434 5.73423 0 1.00999 2 0 0.0322268 1 0.00495175 0.00706225
560 1 8.9853 5.7336 0 1.01571 2 0 0.0372805 1 -7.99736e-05 -0.00123197
561 1 9.99903 5.72866 0 1.04128 2 0 0.042125 1 -0.0105146 -0.0120932
562 1 10.9962 5.72821 0 1.02468 2 0 0.0466735 1 0.00299223 0.00767094
563 1 12.0008 5.7345 0 1.00884 2 0 0.0508564 1 -0.00421687 -0.00537677
565 1 13.0002 5.73191 0 1.01555 2 0 0.0549013 1 0.00168334 0.0016319
566 1 14.0049 5.73774 0 1.01485 2 0 0.0584628 1 -0.0179428 -0.000160324
567 1 14.9961 5.74383 0 1.00349 2 0 0.0615254 1 0.0155072 -0.00603206
568 1 15.9996 5.7389 0 1.02492 2 0 0.0640966 1 0.00424586 -0.0150457
569 1 17.9939 5.72758 0 1.01386 2 0 0.068057 1 0.0202786 0.00361984
618 1 17.0012 5.73265 0 1.00786 2 0 0.0662178 1 -0.0148259 2.58531e-05
570 1 18.9991 5.72633 0 1.00562 2 0 0.069577 1 -0.00640747 0.00798153
571 1 19.9948 5.73047 0 1.00943 2 0 0.0709585 1 0.00837567 -1.52259e-05
572 1 21.0003 5.74216 0 1.02492 2 0 0.0722816 1 0.00152701 -0.00849313
573 1 22.0019 5.72672 0 1.00977 2 0 0.0733038 1 -0.0196867 0.0132934
574 1 22.995 5.74593 0 1.00488 2 0 0.0737221 1 0.0106865 -0.0191197
575 1 23.9883 5.7402 0 1.01237 2 0 0.0744362 1 0.015519 -0.00363219
576 1 24.9904 5.76525 0 1.01087 2 0 0.0755388 1 0.00691817 -0.0123797
577 1 25.9934 5.7466 0 1.01133 2 0 0.0763578 1 -0.00759378 0.00127248
579 1 26.9899 5.74063 0 1.01129 2 0 0.0769775 1 0.00577282 -0.00202454
580 1 27.9946 5.73186 0 1.02117 2 0 0.0776787 1 -0.00298505 -0.00528255
581 1 28.998 5.73064 0 1.01861 2 0 0.0779039 1 -0.0152824 -0.0132194
632 1 29.9941 5.72887 0 1.0167 2 0 0.0776207 1 0.00578007 -0.00517345
582 1 30.9968 5.72652 0 1.0143 2 0 0.0772992 1 0.000641762 0.00106852
583 1 31.9976 5.72839 0 1.0088 2 0 0.0772146 1 -0.00172483 -0.00699706
584 1 33.0055 5.73384 0 1.00514 2 0 0.0774357 1 -0.00916976 -0.00663323
585 1 34.0017 5.73287 0 1.02197 2 0 0.0777063 1 0.00455015 -7.75557e-05
586 1 35.0002 5.73989 0 1.02669 2 0 0.0779615 1 -0.00863469 -0.0045772
587 1 35.9957 5.74393 0 1.01702 2 0 0.078299 1 -0.00499467 -0.000220692
588 1 36.9885 5.75863 0 1.01798 2 0 0.0785586 1 0.0110955 -0.0045298
589 1 37.9994 5.73414 0 1.01656 2 0 0.0786289 1 -0.00298395 -0.00343962
590 1 39.0026 5.72301 0 1.01208 2 0 0.0786993 1 -0.000646848 0.0140705
591 1 40.0039 5.73531 0 1.01334 2 0 0.0786484 1 -0.00634594 0.00401989
592 1 41.0018 5.74274 0 1.02633 2 0 0.0788297 1 0.00245555 -4.77277e-05
594 1 43.0002 5.74352 0 1.01497 2 0 0.0787306 1 -0.0128322 -0.000299151
593 1 42.0009 5.76042 0 1.02837 2 0 0.0787995 1 0.0006272 -6.62827e-06
595 1 43.9933 5.76036 0 1.01694 2 0 0.0789561 1 0.0137646 0.000183383
596 1 44.9936 5.75355 0 1.01116 2 0 0.0789813 1 -0.00988791 -1.31001e-05
597 1 45.9886 5.74984 0 1.01212 2 0 0.0790766 1 0.00879697 -0.00192271
598 1 47.0033 5.74527 0 1.00861 2 0 0.0788767 1 -0.00600483 -0.000270772
599 1 48.0002 5.74201 0 1.02545 2 0 0.0781385 1 -0.00246241 -0.00317374
600 1 48.9967 5.73513 0 1.00476 2 0 0.077571 1 0.00689534 0.0114371
9751 1 49.8499 28.2151 0 1.00371 0 0 0.483212 1 -8.98159e-06 -0.000442212
601 2 0 7 0 1 2 8 0.000110759 1 0 0
602 2 1 7 0 1 2 8 0.000303437 1 0 0
651 2 0 8 0 1 2 8 0.000134768 1 0 0
652 2 1 8 0 1 2 8 0.000373571 1 0 0
603 2 2 7 0 1 2 8 0.00134028 1 0 0
604 2 3 7 0 1 2 8 0.00486724 1 0 0
653 2 2 8 0 1 2 8 0.00166677 1 0 0
654 2 3 8 0 1 2 8 0.0061603 1 0 0
605 2 4 7 0 1 2 5 0.0129724 1 0 0
655 2 4 8 0 1 2 5 0.0162428 1 0 0
656 1 4.87906 7.48421 0 1.01253 2 0 0.021934 1 1.20386e-06 -0.00467511
606 1 5.42861 6.59008 0 1.01839 2 0 0.0231007 1 0.00039193 0.000683434
607 1 6.45366 6.62086 0 1.01626 2 0 0.0298737 1 0 -5e-05
657 1 5.93175 7.4751 0 1.02523 2 0 0.0311267 1 0 -5e-05
608 1 7.49335 6.60485 0 1.01581 2 0 0.0366132 1 0.00159763 0.00419389
609 1 7.99852 7.47378 0 1.00447 2 0 0.0473487 1 -0.00227201 -0.00904936
658 1 6.98982 7.46968 0 1.00499 2 0 0.0395154 1 0.00397492 -0.0183857
559 1 8.49425 6.60433 0 1.01669 2 0 0.0431041 1 -0.00646169 -0.00982955
610 1 9.49539 6.5914 0 1.00382 2 0 0.0493624 1 -0.00555401 0.00513833
661 1 8.99887 7.46056 0 1.00906 2 0 0.054999 1 0.0100447 0.00336288
612 1 10.0051 7.45982 0 1.00002 2 0 0.0624046 1 -0.0177756 0.00099368
611 1 10.4921 6.59177 0 1.00368 2 0 0.0554107 1 0.0170058 0.00215877
564 1 11.5016 6.60144 0 1.01095 2 0 0.0610702 1 -0.00957177 -0.0146334
613 1 10.9964 7.45613 0 1.00877 2 0 0.0695525 1 0.0119736 0.00343594
614 1 12.4936 6.6012 0 1.01882 2 0 0.0666851 1 0.0188475 0.00527607
665 1 12.993 7.48116 0 1.00809 2 0 0.083428 1 0.00340239 -1.19684e-05
664 1 11.9948 7.47 0 1.0022 2 0 0.0767821 1 0.000747435 0.00200455
615 1 13.4978 6.61295 0 1.00601 2 0 0.0716918 1 -0.00187129 -4.36901e-05
616 1 14.4968 6.60958 0 1.00878 2 0 0.0759186 1 -0.0023326 -0.00526317
666 1 13.9985 7.47997 0 0.997531 2 0 0.0894139 1 0.00105077 -0.00338103
667 1 14.998 7.47077 0 1.00922 2 0 0.0945455 1 0.0115127 -0.00653226
617 1 15.5056 6.60089 0 1.01132 2 0 0.0797979 1 -0.0128342 0.0137287
668 1 15.9999 7.46847 0 1.01232 2 0 0.0990214 1 0.0090993 -0.0109058
619 1 16.5017 6.59913 0 1.00791 2 0 0.0830458 1 0.0119097 0.00676219
669 1 17.5066 6.59891 0 1.0115 2 0 0.0856805 1 -0.0116979 -0.00434912
719 1 17.0084 7.47131 0 1.0104 2 0 0.10275 1 -0.0125262 -0.00265823
720 1 18.0028 7.46228 0 1.00384 2 0 0.105553 1 0.00395449 0.00347352
620 1 18.5036 6.59131 0 1.00047 2 0 0.0878552 1 -0.00145655 0.0053215
621 1 19.5014 6.6017 0 1.01086 2 0 0.0898349 1 0.000383381 -0.00320656
670 1 18.9983 7.46424 0 1.01205 2 0 0.107772 1 0.0135471 -0.0166201
671 1 20.004 7.46574 0 1.01101 2 0 0.110245 1 -0.0088363 -0.00181029
622 1 20.499 6.60369 0 1.02282 2 0 0.0919002 1 0.00297035 -0.0126492
623 1 21.508 6.60182 0 1.01715 2 0 0.0938405 1 0.00318136 0.000327651
672 1 21.002 7.46267 0 1.01032 2 0 0.113531 1 0.0041903 0.00532901
673 1 22.0092 7.47096 0 1.00705 2 0 0.116019 1 0.000241006 -0.000366884
624 1 22.5103 6.6076 0 1.00933 2 0 0.0949501 1 -0.00908993 0.0162081
674 1 23.0109 7.4915 0 1.01197 2 0 0.117433 1 0 -5e-05
625 1 23.5125 6.61753 0 1.01358 2 0 0.0957965 1 -0.01805 0.00323488
626 1 24.5047 6.63097 0 1.01095 2 0 0.09696 1 0.00559055 0.0125067
675 1 24.0112 7.52541 0 1.00974 2 0 0.118555 1 -0.00435144 -0.00274643
676 1 25.0081 7.51954 0 1.01754 2 0 0.119629 1 -0.00492478 -0.0045921
578 1 26.4954 6.62615 0 1.0136 2 0 0.0990762 1 0.000845599 -0.00272151
628 1 26.0038 7.49501 0 1.00647 2 0 0.121142 1 0.00324039 -0.00302319
627 1 25.5028 6.6287 0 1.0116 2 0 0.0980017 1 -0.0111207 -2.04023e-05
629 1 27.4875 6.60432 0 1.00585 2 0 0.100227 1 0.0188537 0.00525323
679 1 28.0011 7.47925 0 1.01276 2 0 0.123986 1 9.59619e-05 -0.002138
678 1 27.0044 7.49097 0 1.01987 2 0 0.122634 1 -0.010249 -0.00675534
630 1 28.4886 6.59779 0 1.00031 2 0 0.100835 1 0.00098058 0.00180781
631 1 29.4904 6.59218 0 1.01679 2 0 0.100664 1 0.0129168 0.0036652
680 1 28.9983 7.45586 0 1.0041 2 0 0.124196 1 0.00114509 0.0135275
681 1 29.9986 7.46044 0 1.0067 2 0 0.123159 1 -0.0049628 0.00108408
682 1 30.4929 6.59188 0 1.0233 2 0 0.0996428 1 0.00329253 0.0034501
633 1 31.4949 6.58862 0 1.00197 2 0 0.0987136 1 -0.00117354 0.00969231
732 1 30.9964 7.45518 0 1.02086 2 0 0.120874 1 -0.00301644 0.00142004
683 1 31.9925 7.45363 0 1.00602 2 0 0.120655 1 -0.00200804 -0.00727527
684 1 32.4964 6.59173 0 1.01173 2 0 0.0991028 1 -0.0010119 0.0011251
734 1 32.9912 7.45734 0 1.01306 2 0 0.121702 1 -0.0107149 0.000736604
634 1 33.4992 6.6002 0 1.00318 2 0 0.0997561 1 -0.00837097 -0.0015695
635 1 34.4917 6.61383 0 1.01335 2 0 0.10028 1 0.0118058 -0.00458188
685 1 33.9874 7.4742 0 1.01182 2 0 0.122299 1 -0.0147931 0.00383077
686 1 34.9777 7.49342 0 1.01566 2 0 0.123538 1 0.0115562 0.000371185
636 1 35.4888 6.6095 0 1.01343 2 0 0.100877 1 0.00836267 0.00443577