ITEM: TIMESTEP
13500
ITEM: NUMBER OF ATOMS
15950
ITEM: BOX BOUNDS pp pp pp
0.0000000000000000e+00 1.0000000000000000e+02
-5.0000000000000000e+00 2.0000000000000000e+02
-5.0000000000000000e-01 5.0000000000000000e-01
ITEM: ATOMS id type x y z c_rho c_phase c_nbond c_temp f_rheo_chi_chi fx fy
1 2 0 -5 0 1 2 8 8.98544e-12 1 0 0
2 2 1 -5 0 1 2 8 1.49442e-11 1 0 0
51 2 0 -4 0 1 2 8 7.73429e-11 1 0 0
52 2 1 -4 0 1 2 8 1.34763e-10 1 0 0
3 2 2 -5 0 1 2 8 3.59181e-11 1 0 0
4 2 3 -5 0 1 2 8 7.86186e-11 1 0 0
53 2 2 -4 0 1 2 8 3.43185e-10 1 0 0
54 2 3 -4 0 1 2 8 7.82556e-10 1 0 0
5 2 4 -5 0 1 2 7 1.49238e-10 1 0 0
55 2 4 -4 0 1 2 8 1.51266e-09 1 0 0
6 2 5 -5 0 1 2 6 2.48982e-10 1 0 0
7 2 6 -5 0 1 2 5 3.5824e-10 1 0 0
56 2 5 -4 0 1 2 8 2.49966e-09 1 0 0
57 2 6 -4 0 1 2 8 3.59453e-09 1 0 0
8 2 7 -5 0 1 2 5 4.56997e-10 1 0 0
9 2 8 -5 0 1 2 5 5.35217e-10 1 0 0
58 2 7 -4 0 1 2 8 4.61327e-09 1 0 0
59 2 8 -4 0 1 2 8 5.42231e-09 1 0 0
10 2 9 -5 0 1 2 5 5.88936e-10 1 0 0
60 2 9 -4 0 1 2 8 5.97689e-09 1 0 0
11 2 10 -5 0 1 2 5 6.21687e-10 1 0 0
12 2 11 -5 0 1 2 5 6.41859e-10 1 0 0
61 2 10 -4 0 1 2 8 6.31291e-09 1 0 0
62 2 11 -4 0 1 2 8 6.51701e-09 1 0 0
13 2 12 -5 0 1 2 5 6.59165e-10 1 0 0
14 2 13 -5 0 1 2 5 6.7944e-10 1 0 0
63 2 12 -4 0 1 2 8 6.69351e-09 1 0 0
64 2 13 -4 0 1 2 8 6.9074e-09 1 0 0
15 2 14 -5 0 1 2 5 7.00713e-10 1 0 0
65 2 14 -4 0 1 2 8 7.13314e-09 1 0 0
16 2 15 -5 0 1 2 5 7.16902e-10 1 0 0
17 2 16 -5 0 1 2 5 7.25804e-10 1 0 0
66 2 15 -4 0 1 2 8 7.29777e-09 1 0 0
67 2 16 -4 0 1 2 8 7.37979e-09 1 0 0
18 2 17 -5 0 1 2 5 7.30714e-10 1 0 0
19 2 18 -5 0 1 2 5 7.34421e-10 1 0 0
68 2 17 -4 0 1 2 8 7.42507e-09 1 0 0
69 2 18 -4 0 1 2 8 7.46953e-09 1 0 0
20 2 19 -5 0 1 2 5 7.34632e-10 1 0 0
70 2 19 -4 0 1 2 8 7.4848e-09 1 0 0
21 2 20 -5 0 1 2 5 7.26392e-10 1 0 0
22 2 21 -5 0 1 2 5 7.07963e-10 1 0 0
71 2 20 -4 0 1 2 8 7.40979e-09 1 0 0
72 2 21 -4 0 1 2 8 7.22083e-09 1 0 0
23 2 22 -5 0 1 2 5 6.83476e-10 1 0 0
24 2 23 -5 0 1 2 5 6.60575e-10 1 0 0
73 2 22 -4 0 1 2 8 6.96142e-09 1 0 0
74 2 23 -4 0 1 2 8 6.71434e-09 1 0 0
25 2 24 -5 0 1 2 5 6.4652e-10 1 0 0
75 2 24 -4 0 1 2 8 6.56041e-09 1 0 0
26 2 25 -5 0 1 2 5 6.45348e-10 1 0 0
27 2 26 -5 0 1 2 5 6.56344e-10 1 0 0
76 2 25 -4 0 1 2 8 6.54826e-09 1 0 0
77 2 26 -4 0 1 2 8 6.67147e-09 1 0 0
28 2 27 -5 0 1 2 5 6.74934e-10 1 0 0
29 2 28 -5 0 1 2 5 6.96301e-10 1 0 0
78 2 27 -4 0 1 2 8 6.87422e-09 1 0 0
79 2 28 -4 0 1 2 8 7.09742e-09 1 0 0
30 2 29 -5 0 1 2 5 7.18215e-10 1 0 0
80 2 29 -4 0 1 2 8 7.31867e-09 1 0 0
31 2 30 -5 0 1 2 5 7.39566e-10 1 0 0
32 2 31 -5 0 1 2 5 7.5709e-10 1 0 0
81 2 30 -4 0 1 2 8 7.53489e-09 1 0 0
82 2 31 -4 0 1 2 8 7.71627e-09 1 0 0
33 2 32 -5 0 1 2 5 7.65969e-10 1 0 0
34 2 33 -5 0 1 2 5 7.64583e-10 1 0 0
83 2 32 -4 0 1 2 8 7.80832e-09 1 0 0
84 2 33 -4 0 1 2 8 7.78944e-09 1 0 0
35 2 34 -5 0 1 2 5 7.57086e-10 1 0 0
85 2 34 -4 0 1 2 8 7.70607e-09 1 0 0
36 2 35 -5 0 1 2 5 7.49636e-10 1 0 0
37 2 36 -5 0 1 2 5 7.447e-10 1 0 0
86 2 35 -4 0 1 2 8 7.6289e-09 1 0 0
87 2 36 -4 0 1 2 8 7.58413e-09 1 0 0
38 2 37 -5 0 1 2 5 7.4021e-10 1 0 0
39 2 38 -5 0 1 2 5 7.33051e-10 1 0 0
88 2 37 -4 0 1 2 8 7.54502e-09 1 0 0
89 2 38 -4 0 1 2 8 7.47453e-09 1 0 0
40 2 39 -5 0 1 2 5 7.2197e-10 1 0 0
90 2 39 -4 0 1 2 8 7.35717e-09 1 0 0
41 2 40 -5 0 1 2 5 7.08336e-10 1 0 0
42 2 41 -5 0 1 2 5 6.96079e-10 1 0 0
91 2 40 -4 0 1 2 8 7.20631e-09 1 0 0
92 2 41 -4 0 1 2 8 7.06502e-09 1 0 0
43 2 42 -5 0 1 2 5 6.90769e-10 1 0 0
44 2 43 -5 0 1 2 5 6.96583e-10 1 0 0
93 2 42 -4 0 1 2 8 6.99802e-09 1 0 0
94 2 43 -4 0 1 2 8 7.0568e-09 1 0 0
45 2 44 -5 0 1 2 5 7.12016e-10 1 0 0
95 2 44 -4 0 1 2 8 7.2279e-09 1 0 0
46 2 45 -5 0 1 2 5 7.28564e-10 1 0 0
47 2 46 -5 0 1 2 5 7.35854e-10 1 0 0
96 2 45 -4 0 1 2 8 7.41482e-09 1 0 0
97 2 46 -4 0 1 2 8 7.49775e-09 1 0 0
48 2 47 -5 0 1 2 5 7.2974e-10 1 0 0
49 2 48 -5 0 1 2 5 7.15302e-10 1 0 0
98 2 47 -4 0 1 2 8 7.42965e-09 1 0 0
99 2 48 -4 0 1 2 8 7.27022e-09 1 0 0
50 2 49 -5 0 1 2 5 7.02203e-10 1 0 0
100 2 49 -4 0 1 2 8 7.12966e-09 1 0 0
101 2 0 -3 0 1 2 8 6.02919e-10 1 0 0
102 2 1 -3 0 1 2 8 1.10802e-09 1 0 0
151 2 0 -2 0 1 2 8 4.1959e-09 1 0 0
152 2 1 -2 0 1 2 8 8.19416e-09 1 0 0
103 2 2 -3 0 1 2 8 3.01016e-09 1 0 0
104 2 3 -3 0 1 2 8 7.19833e-09 1 0 0
153 2 2 -2 0 1 2 8 2.39307e-08 1 0 0
154 2 3 -2 0 1 2 8 6.04258e-08 1 0 0
105 2 4 -3 0 1 2 8 1.43912e-08 1 0 0
155 2 4 -2 0 1 2 8 1.25681e-07 1 0 0
106 2 5 -3 0 1 2 8 2.42817e-08 1 0 0
107 2 6 -3 0 1 2 8 3.5364e-08 1 0 0
156 2 5 -2 0 1 2 8 2.17559e-07 1 0 0
157 2 6 -2 0 1 2 8 3.21508e-07 1 0 0
108 2 7 -3 0 1 2 8 4.57149e-08 1 0 0
109 2 8 -3 0 1 2 8 5.39325e-08 1 0 0
158 2 7 -2 0 1 2 8 4.18837e-07 1 0 0
159 2 8 -2 0 1 2 8 4.96125e-07 1 0 0
110 2 9 -3 0 1 2 8 5.95562e-08 1 0 0
160 2 9 -2 0 1 2 8 5.49039e-07 1 0 0
111 2 10 -3 0 1 2 8 6.29488e-08 1 0 0
112 2 11 -3 0 1 2 8 6.4981e-08 1 0 0
161 2 10 -2 0 1 2 8 5.80998e-07 1 0 0
162 2 11 -2 0 1 2 8 5.99961e-07 1 0 0
113 2 12 -3 0 1 2 8 6.67505e-08 1 0 0
114 2 13 -3 0 1 2 8 6.89803e-08 1 0 0
163 2 12 -2 0 1 2 8 6.16515e-07 1 0 0
164 2 13 -2 0 1 2 8 6.3822e-07 1 0 0
115 2 14 -3 0 1 2 8 7.13476e-08 1 0 0
165 2 14 -2 0 1 2 8 6.61344e-07 1 0 0
116 2 15 -3 0 1 2 8 7.29808e-08 1 0 0
117 2 16 -3 0 1 2 8 7.36827e-08 1 0 0
166 2 15 -2 0 1 2 8 6.76188e-07 1 0 0
167 2 16 -2 0 1 2 8 6.81238e-07 1 0 0
118 2 17 -3 0 1 2 8 7.40718e-08 1 0 0
119 2 18 -3 0 1 2 8 7.45966e-08 1 0 0
168 2 17 -2 0 1 2 8 6.84102e-07 1 0 0
169 2 18 -2 0 1 2 8 6.89868e-07 1 0 0
120 2 19 -3 0 1 2 8 7.49087e-08 1 0 0
170 2 19 -2 0 1 2 8 6.94537e-07 1 0 0
121 2 20 -3 0 1 2 8 7.42698e-08 1 0 0
122 2 21 -3 0 1 2 8 7.23775e-08 1 0 0
171 2 20 -2 0 1 2 8 6.89908e-07 1 0 0
172 2 21 -2 0 1 2 8 6.72541e-07 1 0 0
123 2 22 -3 0 1 2 8 6.96848e-08 1 0 0
124 2 23 -3 0 1 2 8 6.70645e-08 1 0 0
173 2 22 -2 0 1 2 8 6.46823e-07 1 0 0
174 2 23 -2 0 1 2 8 6.21124e-07 1 0 0
125 2 24 -3 0 1 2 8 6.53956e-08 1 0 0
175 2 24 -2 0 1 2 8 6.04219e-07 1 0 0
126 2 25 -3 0 1 2 8 6.52639e-08 1 0 0
127 2 26 -3 0 1 2 8 6.66275e-08 1 0 0
176 2 25 -2 0 1 2 8 6.02784e-07 1 0 0
177 2 26 -2 0 1 2 8 6.16846e-07 1 0 0
128 2 27 -3 0 1 2 8 6.88132e-08 1 0 0
129 2 28 -3 0 1 2 8 7.10993e-08 1 0 0
178 2 27 -2 0 1 2 8 6.38839e-07 1 0 0
179 2 28 -2 0 1 2 8 6.60479e-07 1 0 0
130 2 29 -3 0 1 2 8 7.32677e-08 1 0 0
180 2 29 -2 0 1 2 8 6.79804e-07 1 0 0
131 2 30 -3 0 1 2 8 7.53995e-08 1 0 0
132 2 31 -3 0 1 2 8 7.72462e-08 1 0 0
181 2 30 -2 0 1 2 8 6.98969e-07 1 0 0
182 2 31 -2 0 1 2 8 7.16345e-07 1 0 0
133 2 32 -3 0 1 2 8 7.81917e-08 1 0 0
134 2 33 -3 0 1 2 8 7.7949e-08 1 0 0
183 2 32 -2 0 1 2 8 7.25425e-07 1 0 0
184 2 33 -2 0 1 2 8 7.22654e-07 1 0 0
135 2 34 -3 0 1 2 8 7.70299e-08 1 0 0
185 2 34 -2 0 1 2 8 7.13237e-07 1 0 0
136 2 35 -3 0 1 2 8 7.62418e-08 1 0 0
137 2 36 -3 0 1 2 8 7.58591e-08 1 0 0
186 2 35 -2 0 1 2 8 7.05779e-07 1 0 0
187 2 36 -2 0 1 2 8 7.02945e-07 1 0 0
138 2 37 -3 0 1 2 8 7.55464e-08 1 0 0
139 2 38 -3 0 1 2 8 7.48749e-08 1 0 0
188 2 37 -2 0 1 2 8 7.00899e-07 1 0 0
189 2 38 -2 0 1 2 8 6.95104e-07 1 0 0
140 2 39 -3 0 1 2 8 7.3659e-08 1 0 0
190 2 39 -2 0 1 2 8 6.83503e-07 1 0 0
141 2 40 -3 0 1 2 8 7.20188e-08 1 0 0
142 2 41 -3 0 1 2 8 7.04146e-08 1 0 0
191 2 40 -2 0 1 2 8 6.66972e-07 1 0 0
192 2 41 -2 0 1 2 8 6.50028e-07 1 0 0
143 2 42 -3 0 1 2 8 6.95883e-08 1 0 0
144 2 43 -3 0 1 2 8 7.01657e-08 1 0 0
193 2 42 -2 0 1 2 8 6.40606e-07 1 0 0
194 2 43 -2 0 1 2 8 6.45755e-07 1 0 0
145 2 44 -3 0 1 2 8 7.20394e-08 1 0 0
195 2 44 -2 0 1 2 8 6.64823e-07 1 0 0
146 2 45 -3 0 1 2 8 7.41271e-08 1 0 0
147 2 46 -3 0 1 2 8 7.50581e-08 1 0 0
196 2 45 -2 0 1 2 8 6.86505e-07 1 0 0
197 2 46 -2 0 1 2 8 6.96211e-07 1 0 0
148 2 47 -3 0 1 2 8 7.43062e-08 1 0 0
149 2 48 -3 0 1 2 8 7.25653e-08 1 0 0
198 2 47 -2 0 1 2 8 6.88505e-07 1 0 0
199 2 48 -2 0 1 2 8 6.7087e-07 1 0 0
150 2 49 -3 0 1 2 8 7.10722e-08 1 0 0
200 2 49 -2 0 1 2 8 6.56125e-07 1 0 0
201 2 0 -1 0 1 2 8 2.56183e-08 1 0 0
202 2 1 -1 0 1 2 8 5.35829e-08 1 0 0
203 2 2 -1 0 1 2 8 1.69664e-07 1 0 0
204 2 3 -1 0 1 2 8 4.56134e-07 1 0 0
205 2 4 -1 0 1 2 8 9.93635e-07 1 0 0
206 2 5 -1 0 1 2 8 1.77161e-06 1 0 0
207 2 6 -1 0 1 2 8 2.66052e-06 1 0 0
208 2 7 -1 0 1 2 8 3.49447e-06 1 0 0
209 2 8 -1 0 1 2 8 4.15742e-06 1 0 0
210 2 9 -1 0 1 2 8 4.61275e-06 1 0 0
211 2 10 -1 0 1 2 8 4.89035e-06 1 0 0
212 2 11 -1 0 1 2 8 5.05497e-06 1 0 0
213 2 12 -1 0 1 2 8 5.19789e-06 1 0 0
214 2 13 -1 0 1 2 8 5.39262e-06 1 0 0
215 2 14 -1 0 1 2 8 5.60024e-06 1 0 0
216 2 15 -1 0 1 2 8 5.7216e-06 1 0 0
217 2 16 -1 0 1 2 8 5.7485e-06 1 0 0
218 2 17 -1 0 1 2 8 5.76527e-06 1 0 0
219 2 18 -1 0 1 2 8 5.8234e-06 1 0 0
220 2 19 -1 0 1 2 8 5.88083e-06 1 0 0
221 2 20 -1 0 1 2 8 5.85502e-06 1 0 0
222 2 21 -1 0 1 2 8 5.71162e-06 1 0 0
223 2 22 -1 0 1 2 8 5.48992e-06 1 0 0
224 2 23 -1 0 1 2 8 5.26103e-06 1 0 0
225 2 24 -1 0 1 2 8 5.10336e-06 1 0 0
226 2 25 -1 0 1 2 8 5.08802e-06 1 0 0
227 2 26 -1 0 1 2 8 5.22121e-06 1 0 0
228 2 27 -1 0 1 2 8 5.42475e-06 1 0 0
229 2 28 -1 0 1 2 8 5.61098e-06 1 0 0
230 2 29 -1 0 1 2 8 5.76376e-06 1 0 0
231 2 30 -1 0 1 2 8 5.91732e-06 1 0 0
232 2 31 -1 0 1 2 8 6.06592e-06 1 0 0
233 2 32 -1 0 1 2 8 6.14636e-06 1 0 0
234 2 33 -1 0 1 2 8 6.11844e-06 1 0 0
235 2 34 -1 0 1 2 8 6.03021e-06 1 0 0
236 2 35 -1 0 1 2 8 5.96591e-06 1 0 0
237 2 36 -1 0 1 2 8 5.94904e-06 1 0 0
238 2 37 -1 0 1 2 8 5.94013e-06 1 0 0
239 2 38 -1 0 1 2 8 5.89605e-06 1 0 0
240 2 39 -1 0 1 2 8 5.79601e-06 1 0 0
241 2 40 -1 0 1 2 8 5.64403e-06 1 0 0
242 2 41 -1 0 1 2 8 5.48001e-06 1 0 0
243 2 42 -1 0 1 2 8 5.38204e-06 1 0 0
244 2 43 -1 0 1 2 8 5.42264e-06 1 0 0
245 2 44 -1 0 1 2 8 5.60012e-06 1 0 0
246 2 45 -1 0 1 2 8 5.80616e-06 1 0 0
247 2 46 -1 0 1 2 8 5.89857e-06 1 0 0
248 2 47 -1 0 1 2 8 5.82645e-06 1 0 0
249 2 48 -1 0 1 2 8 5.66361e-06 1 0 0
250 2 49 -1 0 1 2 8 5.53032e-06 1 0 0
251 2 0 0 0 1 2 8 1.34392e-07 1 0 0
252 2 1 0 0 1 2 8 3.03248e-07 1 0 0
301 2 0 1 0 1 2 8 5.91523e-07 1 0 0
302 2 1 1 0 1 2 8 1.44654e-06 1 0 0
253 2 2 0 0 1 2 8 1.0503e-06 1 0 0
254 2 3 0 0 1 2 8 3.03652e-06 1 0 0
303 2 2 1 0 1 2 8 5.52229e-06 1 0 0
304 2 3 1 0 1 2 8 1.7358e-05 1 0 0
255 2 4 0 0 1 2 8 6.98871e-06 1 0 0
305 2 4 1 0 1 2 8 4.26801e-05 1 0 0
256 2 5 0 0 1 2 8 1.29016e-05 1 0 0
257 2 6 0 0 1 2 8 1.97212e-05 1 0 0
306 2 5 1 0 1 2 8 8.22041e-05 1 0 0
307 2 6 1 0 1 2 8 0.000128158 1 0 0
258 2 7 0 0 1 2 8 2.61234e-05 1 0 0
259 2 8 0 0 1 2 8 3.1225e-05 1 0 0
308 2 7 1 0 1 2 8 0.00017118 1 0 0
309 2 8 1 0 1 2 8 0.000205623 1 0 0
260 2 9 0 0 1 2 8 3.47531e-05 1 0 0
310 2 9 1 0 1 2 8 0.000229737 1 0 0
261 2 10 0 0 1 2 8 3.69485e-05 1 0 0
262 2 11 0 0 1 2 8 3.82683e-05 1 0 0
311 2 10 1 0 1 2 8 0.00024528 1 0 0
312 2 11 1 0 1 2 8 0.000254987 1 0 0
263 2 12 0 0 1 2 8 3.93969e-05 1 0 0
264 2 13 0 0 1 2 8 4.0984e-05 1 0 0
313 2 12 1 0 1 2 8 0.000263012 1 0 0
314 2 13 1 0 1 2 8 0.000274543 1 0 0
265 2 14 0 0 1 2 8 4.26711e-05 1 0 0
315 2 14 1 0 1 2 8 0.000286727 1 0 0
266 2 15 0 0 1 2 8 4.35471e-05 1 0 0
267 2 16 0 0 1 2 8 4.3603e-05 1 0 0
316 2 15 1 0 1 2 8 0.00029218 1 0 0
317 2 16 1 0 1 2 8 0.000291394 1 0 0
268 2 17 0 0 1 2 8 4.36663e-05 1 0 0
269 2 18 0 0 1 2 8 4.41965e-05 1 0 0
318 2 17 1 0 1 2 8 0.000291394 1 0 0
319 2 18 1 0 1 2 8 0.000295676 1 0 0
270 2 19 0 0 1 2 8 4.47928e-05 1 0 0
320 2 19 1 0 1 2 8 0.000300892 1 0 0
271 2 20 0 0 1 2 8 4.47163e-05 1 0 0
272 2 21 0 0 1 2 8 4.36738e-05 1 0 0
321 2 20 1 0 1 2 8 0.000301286 1 0 0
322 2 21 1 0 1 2 8 0.000294804 1 0 0
273 2 22 0 0 1 2 8 4.19887e-05 1 0 0
274 2 23 0 0 1 2 8 4.01769e-05 1 0 0
323 2 22 1 0 1 2 8 0.000283904 1 0 0
324 2 23 1 0 1 2 8 0.000271573 1 0 0
275 2 24 0 0 1 2 8 3.88482e-05 1 0 0
325 2 24 1 0 1 2 8 0.000261687 1 0 0
276 2 25 0 0 1 2 8 3.86934e-05 1 0 0
277 2 26 0 0 1 2 8 3.9831e-05 1 0 0
326 2 25 1 0 1 2 8 0.000260297 1 0 0
327 2 26 1 0 1 2 8 0.000268858 1 0 0
278 2 27 0 0 1 2 8 4.15341e-05 1 0 0
279 2 28 0 0 1 2 8 4.29636e-05 1 0 0
328 2 27 1 0 1 2 8 0.000281405 1 0 0
329 2 28 1 0 1 2 8 0.000290933 1 0 0
280 2 29 0 0 1 2 8 4.40001e-05 1 0 0
330 2 29 1 0 1 2 8 0.000296622 1 0 0
281 2 30 0 0 1 2 8 4.50641e-05 1 0 0
282 2 31 0 0 1 2 8 4.61975e-05 1 0 0
331 2 30 1 0 1 2 8 0.000302707 1 0 0
332 2 31 1 0 1 2 8 0.0003102 1 0 0
283 2 32 0 0 1 2 8 4.68449e-05 1 0 0
284 2 33 0 0 1 2 8 4.66001e-05 1 0 0
333 2 32 1 0 1 2 8 0.000314824 1 0 0
334 2 33 1 0 1 2 8 0.000313009 1 0 0
285 2 34 0 0 1 2 8 4.58587e-05 1 0 0
335 2 34 1 0 1 2 8 0.000307576 1 0 0
286 2 35 0 0 1 2 8 4.53641e-05 1 0 0
287 2 36 0 0 1 2 8 4.52996e-05 1 0 0
336 2 35 1 0 1 2 8 0.000304297 1 0 0
337 2 36 1 0 1 2 8 0.000304384 1 0 0
288 2 37 0 0 1 2 8 4.53058e-05 1 0 0
289 2 38 0 0 1 2 8 4.50215e-05 1 0 0
338 2 37 1 0 1 2 8 0.000304996 1 0 0
339 2 38 1 0 1 2 8 0.000303554 1 0 0
290 2 39 0 0 1 2 8 4.42587e-05 1 0 0
340 2 39 1 0 1 2 8 0.000298574 1 0 0
291 2 40 0 0 1 2 8 4.3008e-05 1 0 0
292 2 41 0 0 1 2 8 4.15772e-05 1 0 0
341 2 40 1 0 1 2 8 0.000289619 1 0 0
342 2 41 1 0 1 2 8 0.00027864 1 0 0
293 2 42 0 0 1 2 8 4.06638e-05 1 0 0
294 2 43 0 0 1 2 8 4.09365e-05 1 0 0
343 2 42 1 0 1 2 8 0.000271187 1 0 0
344 2 43 1 0 1 2 8 0.00027264 1 0 0
295 2 44 0 0 1 2 8 4.24199e-05 1 0 0
345 2 44 1 0 1 2 8 0.000283485 1 0 0
296 2 45 0 0 1 2 8 4.41785e-05 1 0 0
297 2 46 0 0 1 2 8 4.49658e-05 1 0 0
346 2 45 1 0 1 2 8 0.000296607 1 0 0
347 2 46 1 0 1 2 8 0.000302434 1 0 0
298 2 47 0 0 1 2 8 4.43613e-05 1 0 0
299 2 48 0 0 1 2 8 4.30177e-05 1 0 0
348 2 47 1 0 1 2 8 0.000298002 1 0 0
349 2 48 1 0 1 2 8 0.000288384 1 0 0
300 2 49 0 0 1 2 8 4.19339e-05 1 0 0
350 2 49 1 0 1 2 8 0.000280641 1 0 0
351 2 0 2 0 1 2 8 2.13149e-06 1 0 0
352 2 1 2 0 1 2 8 5.64309e-06 1 0 0
401 2 0 3 0 1 2 8 6.16327e-06 1 0 0
402 2 1 3 0 1 2 8 1.7515e-05 1 0 0
353 2 2 2 0 1 2 8 2.38163e-05 1 0 0
354 2 3 2 0 1 2 8 8.20501e-05 1 0 0
403 2 2 3 0 1 2 8 8.0919e-05 1 0 0
404 2 3 3 0 1 2 8 0.000306014 1 0 0
355 2 4 2 0 1 2 8 0.00021849 1 0 0
405 2 4 3 0 1 2 8 0.00088321 1 0 0
356 2 5 2 0 1 2 8 0.000443962 1 0 0
357 2 6 2 0 1 2 8 0.000706861 1 0 0
406 2 5 3 0 1 2 8 0.00193864 1 0 0
407 2 6 3 0 1 2 8 0.00317251 1 0 0
358 2 7 2 0 1 2 8 0.000950521 1 0 0
359 2 8 2 0 1 2 8 0.00114758 1 0 0
408 2 7 3 0 1 2 8 0.00426976 1 0 0
409 2 8 3 0 1 2 8 0.00518187 1 0 0
360 2 9 2 0 1 2 8 0.0012884 1 0 0
410 2 9 3 0 1 2 8 0.00586086 1 0 0
361 2 10 2 0 1 2 8 0.00138401 1 0 0
362 2 11 2 0 1 2 8 0.00144763 1 0 0
411 2 10 3 0 1 2 8 0.00635377 1 0 0
412 2 11 3 0 1 2 8 0.00672102 1 0 0
363 2 12 2 0 1 2 8 0.00149848 1 0 0
364 2 13 2 0 1 2 8 0.00157068 1 0 0
413 2 12 3 0 1 2 8 0.00699892 1 0 0
414 2 13 3 0 1 2 8 0.00737473 1 0 0
365 2 14 2 0 1 2 8 0.00164579 1 0 0
415 2 14 3 0 1 2 8 0.00775891 1 0 0
366 2 15 2 0 1 2 8 0.00167466 1 0 0
367 2 16 2 0 1 2 8 0.00166346 1 0 0
416 2 15 3 0 1 2 8 0.00789049 1 0 0
417 2 16 3 0 1 2 8 0.00782054 1 0 0
368 2 17 2 0 1 2 8 0.00166136 1 0 0
369 2 18 2 0 1 2 8 0.00169117 1 0 0
418 2 17 3 0 1 2 8 0.00781491 1 0 0
419 2 18 3 0 1 2 8 0.00798622 1 0 0
370 2 19 2 0 1 2 8 0.00172846 1 0 0
420 2 19 3 0 1 2 8 0.00819661 1 0 0
371 2 20 2 0 1 2 8 0.00173607 1 0 0
372 2 21 2 0 1 2 8 0.00170331 1 0 0
421 2 20 3 0 1 2 8 0.00825495 1 0 0
422 2 21 3 0 1 2 8 0.00813069 1 0 0
373 2 22 2 0 1 2 8 0.00164685 1 0 0
374 2 23 2 0 1 2 8 0.00157843 1 0 0
423 2 22 3 0 1 2 8 0.00792334 1 0 0
424 2 23 3 0 1 2 8 0.00764506 1 0 0
375 2 24 2 0 1 2 8 0.00151678 1 0 0
425 2 24 3 0 1 2 8 0.00733794 1 0 0
376 2 25 2 0 1 2 8 0.00150628 1 0 0
377 2 26 2 0 1 2 8 0.00156013 1 0 0
426 2 25 3 0 1 2 8 0.00728051 1 0 0
427 2 26 3 0 1 2 8 0.0075456 1 0 0
378 2 27 2 0 1 2 8 0.00163817 1 0 0
379 2 28 2 0 1 2 8 0.00169078 1 0 0
428 2 27 3 0 1 2 8 0.00792423 1 0 0
429 2 28 3 0 1 2 8 0.00815027 1 0 0
380 2 29 2 0 1 2 8 0.00171319 1 0 0
430 2 29 3 0 1 2 8 0.00818908 1 0 0
381 2 30 2 0 1 2 8 0.00173922 1 0 0
382 2 31 2 0 1 2 8 0.00178035 1 0 0
431 2 30 3 0 1 2 8 0.00825685 1 0 0
432 2 31 3 0 1 2 8 0.00842946 1 0 0
383 2 32 2 0 1 2 8 0.0018084 1 0 0
384 2 33 2 0 1 2 8 0.00179759 1 0 0
433 2 32 3 0 1 2 8 0.00856561 1 0 0
434 2 33 3 0 1 2 8 0.0085205 1 0 0
385 2 34 2 0 1 2 8 0.0017647 1 0 0
435 2 34 3 0 1 2 8 0.00836777 1 0 0
386 2 35 2 0 1 2 8 0.00174716 1 0 0
387 2 36 2 0 1 2 8 0.0017512 1 0 0
436 2 35 3 0 1 2 8 0.00830245 1 0 0
437 2 36 3 0 1 2 8 0.00834474 1 0 0
388 2 37 2 0 1 2 8 0.00175848 1 0 0
389 2 38 2 0 1 2 8 0.00175362 1 0 0
438 2 37 3 0 1 2 8 0.00839841 1 0 0
439 2 38 3 0 1 2 8 0.00839485 1 0 0
390 2 39 2 0 1 2 8 0.00172718 1 0 0
440 2 39 3 0 1 2 8 0.00828931 1 0 0
391 2 40 2 0 1 2 8 0.00167387 1 0 0
392 2 41 2 0 1 2 8 0.00160279 1 0 0
441 2 40 3 0 1 2 8 0.0080491 1 0 0
442 2 41 3 0 1 2 8 0.00768405 1 0 0
393 2 42 2 0 1 2 8 0.0015518 1 0 0
394 2 43 2 0 1 2 8 0.00155701 1 0 0
443 2 42 3 0 1 2 8 0.00741103 1 0 0
444 2 43 3 0 1 2 8 0.00741471 1 0 0
395 2 44 2 0 1 2 8 0.00162337 1 0 0
445 2 44 3 0 1 2 8 0.00773149 1 0 0
396 2 45 2 0 1 2 8 0.00170524 1 0 0
397 2 46 2 0 1 2 8 0.00174082 1 0 0
446 2 45 3 0 1 2 8 0.00812882 1 0 0
447 2 46 3 0 1 2 8 0.00829358 1 0 0
398 2 47 2 0 1 2 8 0.00171364 1 0 0
399 2 48 2 0 1 2 8 0.00165663 1 0 0
448 2 47 3 0 1 2 8 0.00816012 1 0 0
449 2 48 3 0 1 2 8 0.00790221 1 0 0
400 2 49 2 0 1 2 8 0.00160992 1 0 0
450 2 49 3 0 1 2 8 0.00767381 1 0 0
451 2 0 4 0 1 2 8 1.41667e-05 1 0 0
452 2 1 4 0 1 2 8 4.26121e-05 1 0 0
453 2 2 4 0 1 2 8 0.000211762 1 0 0
454 2 3 4 0 1 2 8 0.000855275 1 0 0
455 2 4 4 0 1 2 7 0.00257786 1 0 0
456 2 5 4 0 1 2 6 0.00625698 1 0 0
457 2 6 4 0 1 2 5 0.0102459 1 0 0
506 1 5.4903 4.8677 0 1.0006 2 0 0.0151055 1 0.0020226 0.00362463
507 1 6.49652 4.86205 0 1.02569 2 0 0.0199844 1 0.000993799 0.00575643
458 2 7 4 0 1 2 5 0.0135812 1 0 0
459 2 8 4 0 1 2 5 0.0165585 1 0 0
508 1 7.49848 4.86407 0 1.03193 2 0 0.0248732 1 -0.0026247 -0.00729514
460 2 9 4 0 1 2 5 0.0189019 1 0 0
510 1 8.50093 4.86497 0 1.01036 2 0 0.0294649 1 -0.00615688 -0.00753294
511 1 9.5013 4.86318 0 1.00136 2 0 0.0335818 1 -0.00867278 6.55502e-05
461 2 10 4 0 1 2 5 0.020752 1 0 0
462 2 11 4 0 1 2 5 0.0222741 1 0 0
512 1 10.4981 4.86547 0 1.01573 2 0 0.0373643 1 0.00674009 -0.00284834
513 1 11.496 4.86528 0 1.01534 2 0 0.0408702 1 0.0033677 0.00125464
463 2 12 4 0 1 2 5 0.0235321 1 0 0
464 2 13 4 0 1 2 5 0.0249338 1 0 0
514 1 12.4933 4.8638 0 1.01802 2 0 0.0440304 1 0.0117923 0.00711398
465 2 14 4 0 1 2 5 0.026252 1 0 0
515 1 13.4963 4.86441 0 1.02031 2 0 0.0468503 1 0.00324077 0.00559462
516 1 14.5004 4.86455 0 1.0096 2 0 0.0491667 1 -0.00762388 -0.00149271
466 2 15 4 0 1 2 5 0.0268212 1 0 0
467 2 16 4 0 1 2 5 0.0266959 1 0 0
518 1 16.4986 4.8633 0 1.02515 2 0 0.0522881 1 0.00216993 -5.47653e-05
517 1 15.4977 4.86147 0 1.02614 2 0 0.0508921 1 0.00506818 0.00915776
468 2 17 4 0 1 2 5 0.0267261 1 0 0
469 2 18 4 0 1 2 5 0.0274655 1 0 0
519 1 17.501 4.86253 0 1.0239 2 0 0.0536001 1 -0.0130785 0.0022298
470 2 19 4 0 1 2 5 0.0282285 1 0 0
520 1 18.4974 4.86445 0 1.00577 2 0 0.054823 1 0.0104265 -0.0012638
521 1 19.4986 4.86578 0 1.00453 2 0 0.0557395 1 -0.00136956 -0.00264723
471 2 20 4 0 1 2 5 0.0284727 1 0 0
472 2 21 4 0 1 2 5 0.0282141 1 0 0
523 1 21.4974 4.86439 0 1.02268 2 0 0.056443 1 0.00637339 -0.00369519
522 1 20.499 4.8637 0 1.0139 2 0 0.0562431 1 -0.000828675 0.00157384
473 2 22 4 0 1 2 5 0.0278547 1 0 0
474 2 23 4 0 1 2 5 0.0272048 1 0 0
524 1 22.4998 4.86277 0 1.01383 2 0 0.0563877 1 -0.00141442 0.00615436
475 2 24 4 0 1 2 5 0.0263134 1 0 0
525 1 23.4989 4.8625 0 1.03669 2 0 0.0560896 1 0.00664995 0.000633342
526 1 24.5011 4.86323 0 1.04245 2 0 0.055975 1 0.0021992 -0.00392562
476 2 25 4 0 1 2 5 0.0261214 1 0 0
477 2 26 4 0 1 2 5 0.0268629 1 0 0
528 1 26.5016 4.86396 0 1.04147 2 0 0.057134 1 -0.00504083 -0.00176368
527 1 25.5008 4.86451 0 1.03798 2 0 0.056386 1 0.00171052 -0.00826443
478 2 27 4 0 1 2 5 0.0280614 1 0 0
479 2 28 4 0 1 2 5 0.028634 1 0 0
529 1 27.5001 4.86209 0 1.0019 2 0 0.0577858 1 -0.00216526 0.00704399
480 2 29 4 0 1 2 5 0.0285422 1 0 0
531 1 29.4978 4.86257 0 1.01679 2 0 0.0583236 1 0.00456838 0.0102612
530 1 28.499 4.86474 0 1.02091 2 0 0.0581482 1 0.00196972 -0.00155853
481 2 30 4 0 1 2 5 0.02852 1 0 0
482 2 31 4 0 1 2 5 0.0289866 1 0 0
533 1 31.4986 4.8619 0 1.004 2 0 0.0590042 1 0.00326406 0.0106834
532 1 30.499 4.86407 0 1.0182 2 0 0.0585948 1 -0.00145839 -0.00142345
483 2 32 4 0 1 2 5 0.0293998 1 0 0
484 2 33 4 0 1 2 5 0.0293145 1 0 0
534 1 32.5011 4.86621 0 1.00171 2 0 0.0592944 1 -0.00115283 -0.00344233
485 2 34 4 0 1 2 5 0.0289205 1 0 0
535 1 33.502 4.86539 0 1.00275 2 0 0.0592812 1 -0.00732603 -0.00496279
536 1 34.4997 4.86307 0 1.0237 2 0 0.0591754 1 0.00244372 0.00666249
486 2 35 4 0 1 2 5 0.0288276 1 0 0
487 2 36 4 0 1 2 5 0.02904 1 0 0
538 1 36.5012 4.86275 0 1.01227 2 0 0.0592403 1 -0.00455812 0.00206129
537 1 35.499 4.86565 0 1.0067 2 0 0.0592062 1 0.000581267 -0.00743722
488 2 37 4 0 1 2 5 0.0292909 1 0 0
489 2 38 4 0 1 2 5 0.0293226 1 0 0
539 1 37.5001 4.86478 0 1.00174 2 0 0.0590764 1 0.00284405 -0.00910046
490 2 39 4 0 1 2 5 0.029066 1 0 0
541 1 39.5038 4.86283 0 1.00168 2 0 0.0582347 1 -0.00408418 0.00222863
540 1 38.5028 4.86272 0 1.01715 2 0 0.0587401 1 -0.00283887 0.00489325
491 2 40 4 0 1 2 5 0.0283955 1 0 0
492 2 41 4 0 1 2 5 0.0271885 1 0 0
542 1 40.5052 4.86496 0 1.01016 2 0 0.0576002 1 -0.00655003 -0.0020768
543 1 41.5029 4.86513 0 1.03252 2 0 0.0570043 1 0.00118094 0.000782751
493 2 42 4 0 1 2 5 0.0262726 1 0 0
494 2 43 4 0 1 2 5 0.0262169 1 0 0
544 1 42.5026 4.86621 0 1.0319 2 0 0.0567477 1 0.000536448 -0.00114997
495 2 44 4 0 1 2 5 0.0271627 1 0 0
545 1 43.5021 4.86447 0 1.03659 2 0 0.0569032 1 -0.00560881 0.00171944
546 1 44.5008 4.86407 0 1.01001 2 0 0.0572627 1 0.00264855 -0.00148781
496 2 45 4 0 1 2 5 0.0283734 1 0 0
497 2 46 4 0 1 2 5 0.028813 1 0 0
548 1 46.4979 4.86342 0 1.00807 2 0 0.0575336 1 0.00702393 0.000667496
547 1 45.501 4.86267 0 1.00173 2 0 0.057565 1 -0.00894932 0.00726073
498 2 47 4 0 1 2 5 0.0284072 1 0 0
499 2 48 4 0 1 2 5 0.0276878 1 0 0
549 1 47.4987 4.86212 0 1.02093 2 0 0.0571825 1 -0.000983861 0.00285156
500 2 49 4 0 1 2 5 0.0269809 1 0 0
550 1 48.4986 4.86341 0 1.02225 2 0 0.056879 1 0.00137197 -0.00512654
8501 1 49.4992 4.86281 0 1.06187 2 0 0.0568409 1 0.00538982 0.000492668
501 2 0 5 0 1 2 8 2.61178e-05 1 0 0
502 2 1 5 0 1 2 8 8.18043e-05 1 0 0
551 2 0 6 0 1 2 8 3.99343e-05 1 0 0
552 2 1 6 0 1 2 8 0.000128286 1 0 0
503 2 2 5 0 1 2 8 0.000425792 1 0 0
504 2 3 5 0 1 2 8 0.0018107 1 0 0
553 2 2 6 0 1 2 8 0.000680886 1 0 0
554 2 3 6 0 1 2 8 0.00293833 1 0 0
505 2 4 5 0 1 2 6 0.00585137 1 0 0
555 2 4 6 0 1 2 5 0.00940704 1 0 0
556 1 4.96297 5.71971 0 1.02426 2 0 0.0168884 1 -0.0011864 -0.00214185
557 1 5.99749 5.72804 0 1.00456 2 0 0.0242435 1 -0.00825532 -0.00277215
558 1 6.99454 5.72587 0 1.00032 2 0 0.0308614 1 0.000954375 0.00059056
509 1 7.99354 5.72614 0 1.00999 2 0 0.0375144 1 0.004519 0.00185428
560 1 8.99898 5.72559 0 1.01571 2 0 0.043741 1 -0.000935327 0.00898181
561 1 9.99783 5.72783 0 1.04128 2 0 0.0496262 1 0.00519798 0.00491793
562 1 11.0003 5.7316 0 1.02468 2 0 0.0551324 1 -0.00554523 -0.00439755
563 1 11.9991 5.7318 0 1.00884 2 0 0.0601484 1 -0.00464978 -0.00309554
565 1 12.9968 5.73122 0 1.01555 2 0 0.0646882 1 0.00531611 -0.00145404
566 1 14.0003 5.7296 0 1.01485 2 0 0.0686328 1 -0.00745815 -0.00414574
567 1 14.9985 5.72861 0 1.00349 2 0 0.0718399 1 0.000763771 0.00112513
568 1 15.9968 5.72508 0 1.02492 2 0 0.0745531 1 -0.000134403 0.0084456
569 1 17.9947 5.72672 0 1.01386 2 0 0.078709 1 0.00121422 -0.000662274
618 1 16.9952 5.729 0 1.00786 2 0 0.0768189 1 0.00140056 -0.00654034
570 1 18.9954 5.72987 0 1.00562 2 0 0.0802898 1 0.00587724 -0.00728774
571 1 20.0005 5.72799 0 1.00943 2 0 0.0815357 1 0.000567817 0.00366041
572 1 20.9995 5.72846 0 1.02492 2 0 0.0823992 1 -0.000284588 -0.000941095
573 1 21.999 5.72696 0 1.00977 2 0 0.0827427 1 0.000579987 -0.00561097
574 1 23.0034 5.72576 0 1.00488 2 0 0.0826484 1 -0.00428842 -0.00272985
575 1 24.0037 5.72451 0 1.01237 2 0 0.0825126 1 -0.00714892 0.000978832
576 1 25.0028 5.72639 0 1.01087 2 0 0.0829384 1 -0.00277678 0.00245067
577 1 26.0009 5.72728 0 1.01133 2 0 0.0838533 1 0.00100531 0.00645633
579 1 26.9993 5.72838 0 1.01129 2 0 0.0847109 1 0.00321102 -0.00213097
580 1 27.9967 5.72705 0 1.02117 2 0 0.085404 1 0.0087622 0.00302063
581 1 28.9993 5.72937 0 1.01861 2 0 0.0858023 1 -0.00117962 -0.00412058
632 1 30.001 5.72979 0 1.0167 2 0 0.0859538 1 -0.00666401 -0.00113626
582 1 30.9987 5.7269 0 1.0143 2 0 0.0863148 1 0.00850938 0.000472328
583 1 31.9978 5.72946 0 1.0088 2 0 0.0867603 1 0.00296693 -0.00231147
584 1 33.0024 5.72966 0 1.00514 2 0 0.0870213 1 -0.00568778 0.00417131
585 1 34 5.72943 0 1.02197 2 0 0.0871722 1 0.00295629 0.000313961
586 1 34.9977 5.72886 0 1.02669 2 0 0.0872411 1 0.00309546 -0.0010975
587 1 36.001 5.72675 0 1.01702 2 0 0.0872068 1 0.000818606 0.000496259
588 1 37.0002 5.72611 0 1.01798 2 0 0.0868462 1 0.00410572 0.00196957
589 1 38.0014 5.72631 0 1.01656 2 0 0.0862346 1 0.00422041 -0.000865945
590 1 39.0037 5.72661 0 1.01208 2 0 0.0855941 1 -0.000151918 -0.00332553
591 1 40.0034 5.72644 0 1.01334 2 0 0.0850809 1 0.000711234 0.00347074
592 1 41.003 5.73038 0 1.02633 2 0 0.0847924 1 0.00304822 -0.00505289
594 1 43.0043 5.73209 0 1.01497 2 0 0.0844491 1 -0.00201969 -0.00817935
593 1 42.0025 5.7302 0 1.02837 2 0 0.08456 1 -4.15579e-05 -0.0011664
595 1 44.0026 5.7283 0 1.01694 2 0 0.084367 1 -0.00214572 0.00398764
596 1 45.0004 5.72832 0 1.01116 2 0 0.0843072 1 0.0032429 0.00160614
597 1 45.9986 5.72827 0 1.01212 2 0 0.0842867 1 -0.000182918 -0.000226882
598 1 46.9981 5.72617 0 1.00861 2 0 0.0840723 1 0.000422019 0.00398502
599 1 47.9976 5.72455 0 1.02545 2 0 0.0838057 1 -0.00147997 0.00230234
600 1 49.0009 5.72381 0 1.00476 2 0 0.0836675 1 -0.00156107 0.0137857
601 2 0 7 0 1 2 8 5.31723e-05 1 0 0
602 2 1 7 0 1 2 8 0.000173524 1 0 0
651 2 0 8 0 1 2 8 6.42334e-05 1 0 0
652 2 1 8 0 1 2 8 0.000211908 1 0 0
603 2 2 7 0 1 2 8 0.000931426 1 0 0
604 2 3 7 0 1 2 8 0.00406692 1 0 0
653 2 2 8 0 1 2 8 0.00114977 1 0 0
654 2 3 8 0 1 2 8 0.0051334 1 0 0
605 2 4 7 0 1 2 5 0.0128767 1 0 0
655 2 4 8 0 1 2 5 0.0161849 1 0 0
656 1 4.90073 7.4381 0 1.01253 2 0 0.0241872 1 0 -5e-05
606 1 5.45571 6.5885 0 1.01839 2 0 0.0260048 1 0.0011864 0.00204185
607 1 6.46423 6.60873 0 1.01626 2 0 0.034781 1 -0.000745601 -0.000399883
657 1 5.94394 7.4857 0 1.02523 2 0 0.0361728 1 -7.12204e-05 -0.000159431
608 1 7.4907 6.58912 0 1.01581 2 0 0.0436683 1 -0.00170097 0.00120067
609 1 7.98851 7.45096 0 1.00447 2 0 0.0578883 1 0.00453409 0.00876137
658 1 6.98961 7.45529 0 1.00499 2 0 0.0475023 1 -0.00136655 0.000950562
559 1 8.49172 6.58853 0 1.01669 2 0 0.0519746 1 0.00325085 0.000397001
610 1 9.49718 6.58991 0 1.00382 2 0 0.059954 1 0.00032037 0.00773358
661 1 8.992 7.45174 0 1.00906 2 0 0.0679061 1 0.00254314 0.000568427
612 1 9.99611 7.45732 0 1.00002 2 0 0.0774374 1 -0.00580442 -0.00668094
611 1 10.4978 6.59436 0 1.00368 2 0 0.0674963 1 -0.00505732 -0.00809292
564 1 11.4974 6.596 0 1.01095 2 0 0.0745043 1 0.00289882 0.00487581
613 1 10.9925 7.45829 0 1.00877 2 0 0.0865422 1 0.0114466 0.00807324
614 1 12.4971 6.59645 0 1.01882 2 0 0.0809499 1 0.000564179 0.00294421
665 1 12.993 7.46336 0 1.00809 2 0 0.102825 1 0.00162818 -0.000835312
664 1 11.9941 7.4646 0 1.0022 2 0 0.0950721 1 -0.00597018 -0.00693495
615 1 13.497 6.59736 0 1.00601 2 0 0.086676 1 -0.00746296 -0.000249618
616 1 14.4932 6.59613 0 1.00878 2 0 0.0915309 1 0.0106406 0.00539731
666 1 13.9947 7.46456 0 0.997531 2 0 0.109532 1 -0.00190527 -0.000666195
667 1 14.9939 7.47171 0 1.00922 2 0 0.115201 1 -0.00055768 -0.00141476
617 1 15.4931 6.59543 0 1.01132 2 0 0.0954704 1 -0.00534889 -0.00926515
668 1 15.9922 7.45358 0 1.01232 2 0 0.119525 1 0.00122883 0.00853562
619 1 16.4938 6.59238 0 1.00791 2 0 0.0988704 1 -0.00102506 -0.00812364
669 1 17.495 6.59033 0 1.0115 2 0 0.101703 1 -0.00809255 0.00180355
719 1 16.9924 7.45547 0 1.0104 2 0 0.123313 1 0.00451763 -0.00641998
720 1 17.9925 7.45164 0 1.00384 2 0 0.126555 1 -0.00303599 0.010843
620 1 18.4927 6.58844 0 1.00047 2 0 0.104096 1 0.0012479 0.0034401
621 1 19.5012 6.59166 0 1.01086 2 0 0.106255 1 -0.00345615 0.00228893
670 1 18.9889 7.4504 0 1.01205 2 0 0.129541 1 0.00725913 -0.000284968
671 1 20.0018 7.45533 0 1.01101 2 0 0.132719 1 0.00204804 0.00267549
622 1 20.5026 6.59361 0 1.02282 2 0 0.107954 1 -0.00144191 -0.00174515
623 1 21.5014 6.59126 0 1.01715 2 0 0.108943 1 -0.00128592 0.00272999
672 1 21.0024 7.46036 0 1.01032 2 0 0.134905 1 0 -5e-05
673 1 22.0032 7.45289 0 1.00705 2 0 0.135072 1 -0.00326498 -0.00237052
624 1 22.5016 6.58698 0 1.00933 2 0 0.108815 1 -0.00391701 0.00139944
674 1 23.002 7.44648 0 1.01197 2 1 0.133293 0.999993 0.00510745 3.91229e-05
625 1 23.5033 6.58745 0 1.01358 2 0 0.107958 1 0.00146382 -0.00186353
626 1 24.5016 6.58774 0 1.01095 2 0 0.10768 1 -0.00117169 0.00643572
675 1 24.001 7.45259 0 1.00974 2 0 0.131557 0.999737 -0.00081261 0.00297932
676 1 24.9985 7.45267 0 1.01754 2 0 0.133393 0.999894 -0.00330121 0.000244845
578 1 26.5017 6.59213 0 1.0136 2 0 0.111068 1 0.00258581 -0.00692863
628 1 26.004 7.45174 0 1.00647 2 0 0.136334 0.999997 -0.00944428 0.0110385
627 1 25.5002 6.59245 0 1.0116 2 0 0.109389 1 0.00380656 -0.0111479
629 1 27.5015 6.59246 0 1.00585 2 0 0.112401 1 -0.00857389 0.000451134
679 1 28.0001 7.45714 0 1.01276 2 0 0.140652 1 -0.00694316 0.00296748
678 1 27.0016 7.45696 0 1.01987 2 0 0.137996 1 -0.000840309 -0.002154
630 1 28.4985 6.59415 0 1.00031 2 0 0.113508 1 0.00551898 -0.00786094
631 1 29.4976 6.59313 0 1.01679 2 0 0.113894 1 0.000867301 -0.00105303
680 1 28.9977 7.45858 0 1.0041 2 0 0.142033 0.999941 0.00293351 -0.0123795
681 1 29.9993 7.45417 0 1.0067 2 0 0.141514 0.999474 -3.41806e-05 0.00229843
682 1 30.5046 6.59224 0 1.0233 2 0 0.11401 1 -0.00571117 0.00501679
633 1 31.503 6.59599 0 1.00197 2 0 0.114545 1 -0.000768779 -0.00253912
732 1 31.002 7.45854 0 1.02086 2 0 0.141633 0.999784 -0.0137974 -0.00383251
683 1 31.9971 7.46423 0 1.00602 2 0 0.143183 0.999995 0.0140526 -0.00491912
684 1 32.5012 6.59711 0 1.01173 2 0 0.115085 1 0.00179146 -0.00302372
734 1 33.0066 7.45797 0 1.01306 2 0 0.143304 0.999974 -0.000287832 0.0024779
634 1 33.502 6.59501 0 1.00318 2 0 0.115166 1 -0.000682423 -0.00495341
635 1 34.4995 6.59442 0 1.01335 2 0 0.115322 1 0.00637099 -0.00798451
685 1 34.0055 7.45909 0 1.01182 2 0 0.142162 0.999959 -0.0030584 0.00218536
686 1 35.0038 7.45472 0 1.01566 2 0 0.143175 0.999997 0.00615321 0.00478652