ITEM: TIMESTEP
11000
ITEM: NUMBER OF ATOMS
15950
ITEM: BOX BOUNDS pp pp pp
0.0000000000000000e+00 1.0000000000000000e+02
-5.0000000000000000e+00 2.0000000000000000e+02
-5.0000000000000000e-01 5.0000000000000000e-01
ITEM: ATOMS id type x y z c_rho c_phase c_nbond c_temp f_rheo_chi_chi fx fy
1 2 0 -5 0 1 2 8 2.10724e-12 1 0 0
2 2 1 -5 0 1 2 8 3.68531e-12 1 0 0
51 2 0 -4 0 1 2 8 2.04155e-11 1 0 0
52 2 1 -4 0 1 2 8 3.76052e-11 1 0 0
3 2 2 -5 0 1 2 8 9.32137e-12 1 0 0
4 2 3 -5 0 1 2 8 2.10691e-11 1 0 0
53 2 2 -4 0 1 2 8 1.01223e-10 1 0 0
54 2 3 -4 0 1 2 8 2.39178e-10 1 0 0
5 2 4 -5 0 1 2 7 4.07092e-11 1 0 0
55 2 4 -4 0 1 2 8 4.7251e-10 1 0 0
6 2 5 -5 0 1 2 6 6.82369e-11 1 0 0
7 2 6 -5 0 1 2 5 9.81256e-11 1 0 0
56 2 5 -4 0 1 2 8 7.89007e-10 1 0 0
57 2 6 -4 0 1 2 8 1.13693e-09 1 0 0
8 2 7 -5 0 1 2 5 1.24691e-10 1 0 0
9 2 8 -5 0 1 2 5 1.45073e-10 1 0 0
58 2 7 -4 0 1 2 8 1.45407e-09 1 0 0
59 2 8 -4 0 1 2 8 1.69797e-09 1 0 0
10 2 9 -5 0 1 2 5 1.58439e-10 1 0 0
60 2 9 -4 0 1 2 8 1.85754e-09 1 0 0
11 2 10 -5 0 1 2 5 1.66051e-10 1 0 0
12 2 11 -5 0 1 2 5 1.7039e-10 1 0 0
61 2 10 -4 0 1 2 8 1.9475e-09 1 0 0
62 2 11 -4 0 1 2 8 1.99731e-09 1 0 0
13 2 12 -5 0 1 2 5 1.74303e-10 1 0 0
14 2 13 -5 0 1 2 5 1.79551e-10 1 0 0
63 2 12 -4 0 1 2 8 2.04251e-09 1 0 0
64 2 13 -4 0 1 2 8 2.10648e-09 1 0 0
15 2 14 -5 0 1 2 5 1.85455e-10 1 0 0
65 2 14 -4 0 1 2 8 2.17947e-09 1 0 0
16 2 15 -5 0 1 2 5 1.89964e-10 1 0 0
17 2 16 -5 0 1 2 5 1.92284e-10 1 0 0
66 2 15 -4 0 1 2 8 2.23297e-09 1 0 0
67 2 16 -4 0 1 2 8 2.25758e-09 1 0 0
18 2 17 -5 0 1 2 5 1.93446e-10 1 0 0
19 2 18 -5 0 1 2 5 1.94371e-10 1 0 0
68 2 17 -4 0 1 2 8 2.2697e-09 1 0 0
69 2 18 -4 0 1 2 8 2.28273e-09 1 0 0
20 2 19 -5 0 1 2 5 1.94391e-10 1 0 0
70 2 19 -4 0 1 2 8 2.28705e-09 1 0 0
21 2 20 -5 0 1 2 5 1.92023e-10 1 0 0
22 2 21 -5 0 1 2 5 1.86802e-10 1 0 0
71 2 20 -4 0 1 2 8 2.26154e-09 1 0 0
72 2 21 -4 0 1 2 8 2.19892e-09 1 0 0
23 2 22 -5 0 1 2 5 1.80038e-10 1 0 0
24 2 23 -5 0 1 2 5 1.73926e-10 1 0 0
73 2 22 -4 0 1 2 8 2.11552e-09 1 0 0
74 2 23 -4 0 1 2 8 2.03906e-09 1 0 0
25 2 24 -5 0 1 2 5 1.70319e-10 1 0 0
75 2 24 -4 0 1 2 8 1.99342e-09 1 0 0
26 2 25 -5 0 1 2 5 1.70093e-10 1 0 0
27 2 26 -5 0 1 2 5 1.72947e-10 1 0 0
76 2 25 -4 0 1 2 8 1.991e-09 1 0 0
77 2 26 -4 0 1 2 8 2.02839e-09 1 0 0
28 2 27 -5 0 1 2 5 1.77708e-10 1 0 0
29 2 28 -5 0 1 2 5 1.83253e-10 1 0 0
78 2 27 -4 0 1 2 8 2.08876e-09 1 0 0
79 2 28 -4 0 1 2 8 2.15574e-09 1 0 0
30 2 29 -5 0 1 2 5 1.8916e-10 1 0 0
80 2 29 -4 0 1 2 8 2.22474e-09 1 0 0
31 2 30 -5 0 1 2 5 1.95168e-10 1 0 0
32 2 31 -5 0 1 2 5 2.00195e-10 1 0 0
81 2 30 -4 0 1 2 8 2.29547e-09 1 0 0
82 2 31 -4 0 1 2 8 2.35609e-09 1 0 0
33 2 32 -5 0 1 2 5 2.02659e-10 1 0 0
34 2 33 -5 0 1 2 5 2.02042e-10 1 0 0
83 2 32 -4 0 1 2 8 2.38582e-09 1 0 0
84 2 33 -4 0 1 2 8 2.37682e-09 1 0 0
35 2 34 -5 0 1 2 5 1.9969e-10 1 0 0
85 2 34 -4 0 1 2 8 2.34664e-09 1 0 0
36 2 35 -5 0 1 2 5 1.97524e-10 1 0 0
37 2 36 -5 0 1 2 5 1.96215e-10 1 0 0
86 2 35 -4 0 1 2 8 2.32086e-09 1 0 0
87 2 36 -4 0 1 2 8 2.30751e-09 1 0 0
38 2 37 -5 0 1 2 5 1.95066e-10 1 0 0
39 2 38 -5 0 1 2 5 1.93204e-10 1 0 0
88 2 37 -4 0 1 2 8 2.29612e-09 1 0 0
89 2 38 -4 0 1 2 8 2.27478e-09 1 0 0
40 2 39 -5 0 1 2 5 1.90371e-10 1 0 0
90 2 39 -4 0 1 2 8 2.23997e-09 1 0 0
41 2 40 -5 0 1 2 5 1.86955e-10 1 0 0
42 2 41 -5 0 1 2 5 1.8391e-10 1 0 0
91 2 40 -4 0 1 2 8 2.19625e-09 1 0 0
92 2 41 -4 0 1 2 8 2.15565e-09 1 0 0
43 2 42 -5 0 1 2 5 1.82641e-10 1 0 0
44 2 43 -5 0 1 2 5 1.84317e-10 1 0 0
93 2 42 -4 0 1 2 8 2.13686e-09 1 0 0
94 2 43 -4 0 1 2 8 2.15643e-09 1 0 0
45 2 44 -5 0 1 2 5 1.88646e-10 1 0 0
95 2 44 -4 0 1 2 8 2.21174e-09 1 0 0
46 2 45 -5 0 1 2 5 1.93296e-10 1 0 0
47 2 46 -5 0 1 2 5 1.95271e-10 1 0 0
96 2 45 -4 0 1 2 8 2.27228e-09 1 0 0
97 2 46 -4 0 1 2 8 2.29807e-09 1 0 0
48 2 47 -5 0 1 2 5 1.93365e-10 1 0 0
49 2 48 -5 0 1 2 5 1.89081e-10 1 0 0
98 2 47 -4 0 1 2 8 2.2734e-09 1 0 0
99 2 48 -4 0 1 2 8 2.21884e-09 1 0 0
50 2 49 -5 0 1 2 5 1.85185e-10 1 0 0
100 2 49 -4 0 1 2 8 2.17079e-09 1 0 0
101 2 0 -3 0 1 2 8 1.78748e-10 1 0 0
102 2 1 -3 0 1 2 8 3.4944e-10 1 0 0
151 2 0 -2 0 1 2 8 1.39291e-09 1 0 0
152 2 1 -2 0 1 2 8 2.91494e-09 1 0 0
103 2 2 -3 0 1 2 8 1.00864e-09 1 0 0
104 2 3 -3 0 1 2 8 2.50921e-09 1 0 0
153 2 2 -2 0 1 2 8 9.10173e-09 1 0 0
154 2 3 -2 0 1 2 8 2.40256e-08 1 0 0
105 2 4 -3 0 1 2 8 5.14127e-09 1 0 0
155 2 4 -2 0 1 2 8 5.1383e-08 1 0 0
106 2 5 -3 0 1 2 8 8.78056e-09 1 0 0
107 2 6 -3 0 1 2 8 1.28236e-08 1 0 0
156 2 5 -2 0 1 2 8 9.01854e-08 1 0 0
157 2 6 -2 0 1 2 8 1.33746e-07 1 0 0
108 2 7 -3 0 1 2 8 1.65247e-08 1 0 0
109 2 8 -3 0 1 2 8 1.93716e-08 1 0 0
158 2 7 -2 0 1 2 8 1.73761e-07 1 0 0
159 2 8 -2 0 1 2 8 2.04577e-07 1 0 0
110 2 9 -3 0 1 2 8 2.12306e-08 1 0 0
160 2 9 -2 0 1 2 8 2.24707e-07 1 0 0
111 2 10 -3 0 1 2 8 2.22712e-08 1 0 0
112 2 11 -3 0 1 2 8 2.28297e-08 1 0 0
161 2 10 -2 0 1 2 8 2.35967e-07 1 0 0
162 2 11 -2 0 1 2 8 2.41852e-07 1 0 0
113 2 12 -3 0 1 2 8 2.33376e-08 1 0 0
114 2 13 -3 0 1 2 8 2.41025e-08 1 0 0
163 2 12 -2 0 1 2 8 2.47162e-07 1 0 0
164 2 13 -2 0 1 2 8 2.55707e-07 1 0 0
115 2 14 -3 0 1 2 8 2.49877e-08 1 0 0
165 2 14 -2 0 1 2 8 2.6571e-07 1 0 0
116 2 15 -3 0 1 2 8 2.56014e-08 1 0 0
117 2 16 -3 0 1 2 8 2.58393e-08 1 0 0
166 2 15 -2 0 1 2 8 2.72148e-07 1 0 0
167 2 16 -2 0 1 2 8 2.74028e-07 1 0 0
118 2 17 -3 0 1 2 8 2.5954e-08 1 0 0
119 2 18 -3 0 1 2 8 2.61332e-08 1 0 0
168 2 17 -2 0 1 2 8 2.74915e-07 1 0 0
169 2 18 -2 0 1 2 8 2.7721e-07 1 0 0
120 2 19 -3 0 1 2 8 2.62405e-08 1 0 0
170 2 19 -2 0 1 2 8 2.79103e-07 1 0 0
121 2 20 -3 0 1 2 8 2.59833e-08 1 0 0
122 2 21 -3 0 1 2 8 2.52541e-08 1 0 0
171 2 20 -2 0 1 2 8 2.76859e-07 1 0 0
172 2 21 -2 0 1 2 8 2.69056e-07 1 0 0
123 2 22 -3 0 1 2 8 2.42528e-08 1 0 0
124 2 23 -3 0 1 2 8 2.33179e-08 1 0 0
173 2 22 -2 0 1 2 8 2.57965e-07 1 0 0
174 2 23 -2 0 1 2 8 2.47355e-07 1 0 0
125 2 24 -3 0 1 2 8 2.27476e-08 1 0 0
175 2 24 -2 0 1 2 8 2.40651e-07 1 0 0
126 2 25 -3 0 1 2 8 2.27188e-08 1 0 0
127 2 26 -3 0 1 2 8 2.31992e-08 1 0 0
176 2 25 -2 0 1 2 8 2.40266e-07 1 0 0
177 2 26 -2 0 1 2 8 2.46029e-07 1 0 0
128 2 27 -3 0 1 2 8 2.39521e-08 1 0 0
129 2 28 -3 0 1 2 8 2.47411e-08 1 0 0
178 2 27 -2 0 1 2 8 2.5483e-07 1 0 0
179 2 28 -2 0 1 2 8 2.63446e-07 1 0 0
130 2 29 -3 0 1 2 8 2.55181e-08 1 0 0
180 2 29 -2 0 1 2 8 2.71417e-07 1 0 0
131 2 30 -3 0 1 2 8 2.6324e-08 1 0 0
132 2 31 -3 0 1 2 8 2.70388e-08 1 0 0
181 2 30 -2 0 1 2 8 2.79813e-07 1 0 0
182 2 31 -2 0 1 2 8 2.87626e-07 1 0 0
133 2 32 -3 0 1 2 8 2.73926e-08 1 0 0
134 2 33 -3 0 1 2 8 2.7267e-08 1 0 0
183 2 32 -2 0 1 2 8 2.9158e-07 1 0 0
184 2 33 -2 0 1 2 8 2.89996e-07 1 0 0
135 2 34 -3 0 1 2 8 2.6886e-08 1 0 0
185 2 34 -2 0 1 2 8 2.85513e-07 1 0 0
136 2 35 -3 0 1 2 8 2.65859e-08 1 0 0
137 2 36 -3 0 1 2 8 2.64602e-08 1 0 0
186 2 35 -2 0 1 2 8 2.8227e-07 1 0 0
187 2 36 -2 0 1 2 8 2.81272e-07 1 0 0
138 2 37 -3 0 1 2 8 2.63579e-08 1 0 0
139 2 38 -3 0 1 2 8 2.61224e-08 1 0 0
188 2 37 -2 0 1 2 8 2.80533e-07 1 0 0
189 2 38 -2 0 1 2 8 2.78167e-07 1 0 0
140 2 39 -3 0 1 2 8 2.57064e-08 1 0 0
190 2 39 -2 0 1 2 8 2.73579e-07 1 0 0
141 2 40 -3 0 1 2 8 2.51597e-08 1 0 0
142 2 41 -3 0 1 2 8 2.46287e-08 1 0 0
191 2 40 -2 0 1 2 8 2.67219e-07 1 0 0
192 2 41 -2 0 1 2 8 2.60734e-07 1 0 0
143 2 42 -3 0 1 2 8 2.43589e-08 1 0 0
144 2 43 -3 0 1 2 8 2.45793e-08 1 0 0
193 2 42 -2 0 1 2 8 2.57148e-07 1 0 0
194 2 43 -2 0 1 2 8 2.59413e-07 1 0 0
145 2 44 -3 0 1 2 8 2.52732e-08 1 0 0
195 2 44 -2 0 1 2 8 2.67531e-07 1 0 0
146 2 45 -3 0 1 2 8 2.60483e-08 1 0 0
147 2 46 -3 0 1 2 8 2.6379e-08 1 0 0
196 2 45 -2 0 1 2 8 2.76792e-07 1 0 0
197 2 46 -2 0 1 2 8 2.80747e-07 1 0 0
148 2 47 -3 0 1 2 8 2.60648e-08 1 0 0
149 2 48 -3 0 1 2 8 2.53824e-08 1 0 0
198 2 47 -2 0 1 2 8 2.77023e-07 1 0 0
199 2 48 -2 0 1 2 8 2.69085e-07 1 0 0
150 2 49 -3 0 1 2 8 2.48002e-08 1 0 0
200 2 49 -2 0 1 2 8 2.62509e-07 1 0 0
201 2 0 -1 0 1 2 8 9.48042e-09 1 0 0
202 2 1 -1 0 1 2 8 2.14338e-08 1 0 0
203 2 2 -1 0 1 2 8 7.31283e-08 1 0 0
204 2 3 -1 0 1 2 8 2.06822e-07 1 0 0
205 2 4 -1 0 1 2 8 4.65215e-07 1 0 0
206 2 5 -1 0 1 2 8 8.42807e-07 1 0 0
207 2 6 -1 0 1 2 8 1.27129e-06 1 0 0
208 2 7 -1 0 1 2 8 1.66629e-06 1 0 0
209 2 8 -1 0 1 2 8 1.97125e-06 1 0 0
210 2 9 -1 0 1 2 8 2.17104e-06 1 0 0
211 2 10 -1 0 1 2 8 2.28387e-06 1 0 0
212 2 11 -1 0 1 2 8 2.34202e-06 1 0 0
213 2 12 -1 0 1 2 8 2.39314e-06 1 0 0
214 2 13 -1 0 1 2 8 2.48129e-06 1 0 0
215 2 14 -1 0 1 2 8 2.58535e-06 1 0 0
216 2 15 -1 0 1 2 8 2.64587e-06 1 0 0
217 2 16 -1 0 1 2 8 2.65567e-06 1 0 0
218 2 17 -1 0 1 2 8 2.66034e-06 1 0 0
219 2 18 -1 0 1 2 8 2.68735e-06 1 0 0
220 2 19 -1 0 1 2 8 2.71465e-06 1 0 0
221 2 20 -1 0 1 2 8 2.69894e-06 1 0 0
222 2 21 -1 0 1 2 8 2.62352e-06 1 0 0
223 2 22 -1 0 1 2 8 2.51223e-06 1 0 0
224 2 23 -1 0 1 2 8 2.40229e-06 1 0 0
225 2 24 -1 0 1 2 8 2.32902e-06 1 0 0
226 2 25 -1 0 1 2 8 2.32354e-06 1 0 0
227 2 26 -1 0 1 2 8 2.38732e-06 1 0 0
228 2 27 -1 0 1 2 8 2.4825e-06 1 0 0
229 2 28 -1 0 1 2 8 2.5685e-06 1 0 0
230 2 29 -1 0 1 2 8 2.64119e-06 1 0 0
231 2 30 -1 0 1 2 8 2.71951e-06 1 0 0
232 2 31 -1 0 1 2 8 2.79743e-06 1 0 0
233 2 32 -1 0 1 2 8 2.83841e-06 1 0 0
234 2 33 -1 0 1 2 8 2.82057e-06 1 0 0
235 2 34 -1 0 1 2 8 2.7721e-06 1 0 0
236 2 35 -1 0 1 2 8 2.73998e-06 1 0 0
237 2 36 -1 0 1 2 8 2.73407e-06 1 0 0
238 2 37 -1 0 1 2 8 2.73079e-06 1 0 0
239 2 38 -1 0 1 2 8 2.70971e-06 1 0 0
240 2 39 -1 0 1 2 8 2.66383e-06 1 0 0
241 2 40 -1 0 1 2 8 2.59603e-06 1 0 0
242 2 41 -1 0 1 2 8 2.523e-06 1 0 0
243 2 42 -1 0 1 2 8 2.47942e-06 1 0 0
244 2 43 -1 0 1 2 8 2.50016e-06 1 0 0
245 2 44 -1 0 1 2 8 2.58751e-06 1 0 0
246 2 45 -1 0 1 2 8 2.6893e-06 1 0 0
247 2 46 -1 0 1 2 8 2.73276e-06 1 0 0
248 2 47 -1 0 1 2 8 2.69234e-06 1 0 0
249 2 48 -1 0 1 2 8 2.60785e-06 1 0 0
250 2 49 -1 0 1 2 8 2.53958e-06 1 0 0
251 2 0 0 0 1 2 8 5.50801e-08 1 0 0
252 2 1 0 0 1 2 8 1.35722e-07 1 0 0
301 2 0 1 0 1 2 8 2.65956e-07 1 0 0
302 2 1 1 0 1 2 8 7.18501e-07 1 0 0
253 2 2 0 0 1 2 8 5.11516e-07 1 0 0
254 2 3 0 0 1 2 8 1.56873e-06 1 0 0
303 2 2 1 0 1 2 8 3.02282e-06 1 0 0
304 2 3 1 0 1 2 8 1.01949e-05 1 0 0
255 2 4 0 0 1 2 8 3.74917e-06 1 0 0
305 2 4 1 0 1 2 8 2.62342e-05 1 0 0
256 2 5 0 0 1 2 8 7.05177e-06 1 0 0
257 2 6 0 0 1 2 8 1.08382e-05 1 0 0
306 2 5 1 0 1 2 8 5.1679e-05 1 0 0
307 2 6 1 0 1 2 8 8.11203e-05 1 0 0
258 2 7 0 0 1 2 8 1.43386e-05 1 0 0
259 2 8 0 0 1 2 8 1.7053e-05 1 0 0
308 2 7 1 0 1 2 8 0.000108349 1 0 0
309 2 8 1 0 1 2 8 0.000129616 1 0 0
260 2 9 0 0 1 2 8 1.88425e-05 1 0 0
310 2 9 1 0 1 2 8 0.000143788 1 0 0
261 2 10 0 0 1 2 8 1.98764e-05 1 0 0
262 2 11 0 0 1 2 8 2.04134e-05 1 0 0
311 2 10 1 0 1 2 8 0.000152321 1 0 0
312 2 11 1 0 1 2 8 0.000156987 1 0 0
263 2 12 0 0 1 2 8 2.08652e-05 1 0 0
264 2 13 0 0 1 2 8 2.1693e-05 1 0 0
313 2 12 1 0 1 2 8 0.000160591 1 0 0
314 2 13 1 0 1 2 8 0.000167546 1 0 0
265 2 14 0 0 1 2 8 2.26721e-05 1 0 0
315 2 14 1 0 1 2 8 0.000175756 1 0 0
266 2 15 0 0 1 2 8 2.31705e-05 1 0 0
267 2 16 0 0 1 2 8 2.31603e-05 1 0 0
316 2 15 1 0 1 2 8 0.000179225 1 0 0
317 2 16 1 0 1 2 8 0.000178221 1 0 0
268 2 17 0 0 1 2 8 2.31602e-05 1 0 0
269 2 18 0 0 1 2 8 2.34481e-05 1 0 0
318 2 17 1 0 1 2 8 0.000177886 1 0 0
319 2 18 1 0 1 2 8 0.000180599 1 0 0
270 2 19 0 0 1 2 8 2.37806e-05 1 0 0
320 2 19 1 0 1 2 8 0.000184019 1 0 0
271 2 20 0 0 1 2 8 2.37089e-05 1 0 0
272 2 21 0 0 1 2 8 2.30643e-05 1 0 0
321 2 20 1 0 1 2 8 0.000184069 1 0 0
322 2 21 1 0 1 2 8 0.00017932 1 0 0
273 2 22 0 0 1 2 8 2.20753e-05 1 0 0
274 2 23 0 0 1 2 8 2.10569e-05 1 0 0
323 2 22 1 0 1 2 8 0.000171794 1 0 0
324 2 23 1 0 1 2 8 0.000163622 1 0 0
275 2 24 0 0 1 2 8 2.0326e-05 1 0 0
325 2 24 1 0 1 2 8 0.000157086 1 0 0
276 2 25 0 0 1 2 8 2.02511e-05 1 0 0
277 2 26 0 0 1 2 8 2.08903e-05 1 0 0
326 2 25 1 0 1 2 8 0.0001562 1 0 0
327 2 26 1 0 1 2 8 0.00016191 1 0 0
278 2 27 0 0 1 2 8 2.18276e-05 1 0 0
279 2 28 0 0 1 2 8 2.25983e-05 1 0 0
328 2 27 1 0 1 2 8 0.000170109 1 0 0
329 2 28 1 0 1 2 8 0.000176163 1 0 0
280 2 29 0 0 1 2 8 2.3168e-05 1 0 0
330 2 29 1 0 1 2 8 0.000179771 1 0 0
281 2 30 0 0 1 2 8 2.3803e-05 1 0 0
282 2 31 0 0 1 2 8 2.44994e-05 1 0 0
331 2 30 1 0 1 2 8 0.000184055 1 0 0
332 2 31 1 0 1 2 8 0.000189478 1 0 0
283 2 32 0 0 1 2 8 2.48875e-05 1 0 0
284 2 33 0 0 1 2 8 2.47105e-05 1 0 0
333 2 32 1 0 1 2 8 0.000192758 1 0 0
334 2 33 1 0 1 2 8 0.000191252 1 0 0
285 2 34 0 0 1 2 8 2.42378e-05 1 0 0
335 2 34 1 0 1 2 8 0.000187185 1 0 0
286 2 35 0 0 1 2 8 2.39512e-05 1 0 0
287 2 36 0 0 1 2 8 2.39366e-05 1 0 0
336 2 35 1 0 1 2 8 0.000184942 1 0 0
337 2 36 1 0 1 2 8 0.000185154 1 0 0
288 2 37 0 0 1 2 8 2.39467e-05 1 0 0
289 2 38 0 0 1 2 8 2.37863e-05 1 0 0
338 2 37 1 0 1 2 8 0.00018557 1 0 0
339 2 38 1 0 1 2 8 0.000184603 1 0 0
290 2 39 0 0 1 2 8 2.33791e-05 1 0 0
340 2 39 1 0 1 2 8 0.000181491 1 0 0
291 2 40 0 0 1 2 8 2.27276e-05 1 0 0
292 2 41 0 0 1 2 8 2.1981e-05 1 0 0
341 2 40 1 0 1 2 8 0.000176001 1 0 0
342 2 41 1 0 1 2 8 0.000169209 1 0 0
293 2 42 0 0 1 2 8 2.15037e-05 1 0 0
294 2 43 0 0 1 2 8 2.16678e-05 1 0 0
343 2 42 1 0 1 2 8 0.000164594 1 0 0
344 2 43 1 0 1 2 8 0.00016564 1 0 0
295 2 44 0 0 1 2 8 2.25175e-05 1 0 0
345 2 44 1 0 1 2 8 0.000172938 1 0 0
296 2 45 0 0 1 2 8 2.35291e-05 1 0 0
297 2 46 0 0 1 2 8 2.39601e-05 1 0 0
346 2 45 1 0 1 2 8 0.000181804 1 0 0
347 2 46 1 0 1 2 8 0.000185561 1 0 0
298 2 47 0 0 1 2 8 2.35664e-05 1 0 0
299 2 48 0 0 1 2 8 2.27597e-05 1 0 0
348 2 47 1 0 1 2 8 0.000182202 1 0 0
349 2 48 1 0 1 2 8 0.000175495 1 0 0
300 2 49 0 0 1 2 8 2.21189e-05 1 0 0
350 2 49 1 0 1 2 8 0.00017018 1 0 0
351 2 0 2 0 1 2 8 1.03707e-06 1 0 0
352 2 1 2 0 1 2 8 3.07105e-06 1 0 0
401 2 0 3 0 1 2 8 3.18845e-06 1 0 0
402 2 1 3 0 1 2 8 1.02459e-05 1 0 0
353 2 2 2 0 1 2 8 1.45081e-05 1 0 0
354 2 3 2 0 1 2 8 5.44943e-05 1 0 0
403 2 2 3 0 1 2 8 5.38384e-05 1 0 0
404 2 3 3 0 1 2 8 0.000227277 1 0 0
355 2 4 2 0 1 2 8 0.000153732 1 0 0
405 2 4 3 0 1 2 8 0.000707459 1 0 0
356 2 5 2 0 1 2 8 0.000321289 1 0 0
357 2 6 2 0 1 2 8 0.000515868 1 0 0
406 2 5 3 0 1 2 8 0.00161431 1 0 0
407 2 6 3 0 1 2 8 0.00267292 1 0 0
358 2 7 2 0 1 2 8 0.000694706 1 0 0
359 2 8 2 0 1 2 8 0.000836325 1 0 0
408 2 7 3 0 1 2 8 0.0036122 1 0 0
409 2 8 3 0 1 2 8 0.00437905 1 0 0
360 2 9 2 0 1 2 8 0.000932382 1 0 0
410 2 9 3 0 1 2 8 0.00492033 1 0 0
361 2 10 2 0 1 2 8 0.000993833 1 0 0
362 2 11 2 0 1 2 8 0.00103051 1 0 0
411 2 10 3 0 1 2 8 0.00529578 1 0 0
412 2 11 3 0 1 2 8 0.00556265 1 0 0
363 2 12 2 0 1 2 8 0.00105699 1 0 0
364 2 13 2 0 1 2 8 0.0011074 1 0 0
413 2 12 3 0 1 2 8 0.00573295 1 0 0
414 2 13 3 0 1 2 8 0.00603835 1 0 0
365 2 14 2 0 1 2 8 0.00116569 1 0 0
415 2 14 3 0 1 2 8 0.00638355 1 0 0
366 2 15 2 0 1 2 8 0.00118554 1 0 0
367 2 16 2 0 1 2 8 0.00117202 1 0 0
416 2 15 3 0 1 2 8 0.00647308 1 0 0
417 2 16 3 0 1 2 8 0.00636662 1 0 0
368 2 17 2 0 1 2 8 0.0011673 1 0 0
369 2 18 2 0 1 2 8 0.00118942 1 0 0
418 2 17 3 0 1 2 8 0.00633593 1 0 0
419 2 18 3 0 1 2 8 0.00648215 1 0 0
370 2 19 2 0 1 2 8 0.00121815 1 0 0
420 2 19 3 0 1 2 8 0.00667242 1 0 0
371 2 20 2 0 1 2 8 0.0012227 1 0 0
372 2 21 2 0 1 2 8 0.00119398 1 0 0
421 2 20 3 0 1 2 8 0.00671766 1 0 0
422 2 21 3 0 1 2 8 0.00658321 1 0 0
373 2 22 2 0 1 2 8 0.00114775 1 0 0
374 2 23 2 0 1 2 8 0.00109379 1 0 0
423 2 22 3 0 1 2 8 0.00637781 1 0 0
424 2 23 3 0 1 2 8 0.0061146 1 0 0
375 2 24 2 0 1 2 8 0.00104451 1 0 0
425 2 24 3 0 1 2 8 0.00580895 1 0 0
376 2 25 2 0 1 2 8 0.00103591 1 0 0
377 2 26 2 0 1 2 8 0.00107878 1 0 0
426 2 25 3 0 1 2 8 0.0057516 1 0 0
427 2 26 3 0 1 2 8 0.00601221 1 0 0
378 2 27 2 0 1 2 8 0.00114002 1 0 0
379 2 28 2 0 1 2 8 0.00117984 1 0 0
428 2 27 3 0 1 2 8 0.0063715 1 0 0
429 2 28 3 0 1 2 8 0.00657947 1 0 0
380 2 29 2 0 1 2 8 0.00119602 1 0 0
430 2 29 3 0 1 2 8 0.00660657 1 0 0
381 2 30 2 0 1 2 8 0.00121775 1 0 0
382 2 31 2 0 1 2 8 0.00125307 1 0 0
431 2 30 3 0 1 2 8 0.00667488 1 0 0
432 2 31 3 0 1 2 8 0.00685014 1 0 0
383 2 32 2 0 1 2 8 0.00127665 1 0 0
384 2 33 2 0 1 2 8 0.00126612 1 0 0
433 2 32 3 0 1 2 8 0.00698534 1 0 0
434 2 33 3 0 1 2 8 0.0069308 1 0 0
385 2 34 2 0 1 2 8 0.00123689 1 0 0
435 2 34 3 0 1 2 8 0.00676615 1 0 0
386 2 35 2 0 1 2 8 0.00122226 1 0 0
387 2 36 2 0 1 2 8 0.00122585 1 0 0
436 2 35 3 0 1 2 8 0.00669598 1 0 0
437 2 36 3 0 1 2 8 0.00673297 1 0 0
388 2 37 2 0 1 2 8 0.0012312 1 0 0
389 2 38 2 0 1 2 8 0.00122722 1 0 0
438 2 37 3 0 1 2 8 0.0067788 1 0 0
439 2 38 3 0 1 2 8 0.00677622 1 0 0
390 2 39 2 0 1 2 8 0.00120774 1 0 0
440 2 39 3 0 1 2 8 0.00668362 1 0 0
391 2 40 2 0 1 2 8 0.00116876 1 0 0
392 2 41 2 0 1 2 8 0.0011159 1 0 0
441 2 40 3 0 1 2 8 0.00647189 1 0 0
442 2 41 3 0 1 2 8 0.00613918 1 0 0
393 2 42 2 0 1 2 8 0.00107804 1 0 0
394 2 43 2 0 1 2 8 0.00108272 1 0 0
443 2 42 3 0 1 2 8 0.00589072 1 0 0
444 2 43 3 0 1 2 8 0.00589531 1 0 0
395 2 44 2 0 1 2 8 0.00113569 1 0 0
445 2 44 3 0 1 2 8 0.00619885 1 0 0
396 2 45 2 0 1 2 8 0.00120133 1 0 0
397 2 46 2 0 1 2 8 0.00122869 1 0 0
446 2 45 3 0 1 2 8 0.00658034 1 0 0
447 2 46 3 0 1 2 8 0.00673411 1 0 0
398 2 47 2 0 1 2 8 0.00120483 1 0 0
399 2 48 2 0 1 2 8 0.00115853 1 0 0
448 2 47 3 0 1 2 8 0.00659791 1 0 0
449 2 48 3 0 1 2 8 0.00635377 1 0 0
400 2 49 2 0 1 2 8 0.00112113 1 0 0
450 2 49 3 0 1 2 8 0.00614014 1 0 0
451 2 0 4 0 1 2 8 7.63742e-06 1 0 0
452 2 1 4 0 1 2 8 2.61786e-05 1 0 0
453 2 2 4 0 1 2 8 0.000149898 1 0 0
454 2 3 4 0 1 2 8 0.000688327 1 0 0
455 2 4 4 0 1 2 7 0.00231629 1 0 0
456 2 5 4 0 1 2 6 0.00596253 1 0 0
457 2 6 4 0 1 2 5 0.00993016 1 0 0
506 1 5.48295 4.87258 0 1.0006 2 0 0.0156534 1 -0.00251273 0.00142453
507 1 6.48117 4.885 0 1.02569 2 0 0.0209137 1 0.00112157 -0.00404637
458 2 7 4 0 1 2 5 0.013245 1 0 0
459 2 8 4 0 1 2 5 0.0161723 1 0 0
508 1 7.48431 4.87635 0 1.03193 2 0 0.0260844 1 -0.000206231 -0.000431763
460 2 9 4 0 1 2 5 0.0183543 1 0 0
510 1 8.48539 4.88004 0 1.01036 2 0 0.0309395 1 -0.00986468 -0.00656996
511 1 9.48218 4.86936 0 1.00136 2 0 0.0352412 1 0.00935247 0.005247
461 2 10 4 0 1 2 5 0.0200188 1 0 0
462 2 11 4 0 1 2 5 0.0213432 1 0 0
512 1 10.4826 4.87068 0 1.01573 2 0 0.0391788 1 -0.00924045 -0.00605808
513 1 11.4797 4.87171 0 1.01534 2 0 0.0426473 1 0.000207844 -0.00500938
463 2 12 4 0 1 2 5 0.0223658 1 0 0
464 2 13 4 0 1 2 5 0.0236627 1 0 0
514 1 12.4782 4.86775 0 1.01802 2 0 0.0456706 1 0.0052612 0.0047652
465 2 14 4 0 1 2 5 0.0249378 1 0 0
515 1 13.4813 4.86915 0 1.02031 2 0 0.0483404 1 -0.00225216 -0.00777584
516 1 14.4961 4.86324 0 1.0096 2 0 0.0504075 1 -0.000136167 0.0083597
466 2 15 4 0 1 2 5 0.0253434 1 0 0
467 2 16 4 0 1 2 5 0.02493 1 0 0
518 1 16.4945 4.86326 0 1.02515 2 0 0.0525736 1 0.00168517 0.00899747
517 1 15.4941 4.86684 0 1.02614 2 0 0.051688 1 0.00335007 -0.0011754
468 2 17 4 0 1 2 5 0.0247316 1 0 0
469 2 18 4 0 1 2 5 0.0254763 1 0 0
519 1 17.4927 4.86387 0 1.0239 2 0 0.0535171 1 0.0122688 0.00339082
470 2 19 4 0 1 2 5 0.0262641 1 0 0
520 1 18.4997 4.86391 0 1.00577 2 0 0.055006 1 -0.000702545 0.00452419
521 1 19.5016 4.86209 0 1.00453 2 0 0.056599 1 -0.00429023 0.00938554
471 2 20 4 0 1 2 5 0.0264689 1 0 0
472 2 21 4 0 1 2 5 0.0260972 1 0 0
523 1 21.4968 4.8682 0 1.02268 2 0 0.0583761 1 0.00366763 -0.0134889
522 1 20.4997 4.86412 0 1.0139 2 0 0.0576579 1 -7.38787e-05 0.00344792
473 2 22 4 0 1 2 5 0.0256517 1 0 0
474 2 23 4 0 1 2 5 0.0248969 1 0 0
524 1 22.4978 4.86434 0 1.01383 2 0 0.0585686 1 0.00124233 -0.00856386
475 2 24 4 0 1 2 5 0.0238227 1 0 0
525 1 23.5 4.86063 0 1.03669 2 0 0.0580996 1 0.00302407 0.00623807
526 1 24.4999 4.86012 0 1.04245 2 0 0.057518 1 0.00476471 0.00758673
476 2 25 4 0 1 2 5 0.0235757 1 0 0
477 2 26 4 0 1 2 5 0.0244505 1 0 0
528 1 26.4991 4.86257 0 1.04147 2 0 0.0574073 1 0.00401541 -0.00251509
527 1 25.5018 4.86153 0 1.03798 2 0 0.0572871 1 -0.00500432 0.00374873
478 2 27 4 0 1 2 5 0.0258731 1 0 0
479 2 28 4 0 1 2 5 0.0265164 1 0 0
529 1 27.4992 4.86121 0 1.0019 2 0 0.0575749 1 -0.00049126 0.00396009
480 2 29 4 0 1 2 5 0.0263677 1 0 0
531 1 29.4966 4.86091 0 1.01679 2 0 0.0575678 1 0.00548387 0.00736958
530 1 28.4991 4.86165 0 1.02091 2 0 0.0576271 1 -0.00651799 -0.000130355
481 2 30 4 0 1 2 5 0.0263058 1 0 0
482 2 31 4 0 1 2 5 0.0268659 1 0 0
533 1 31.5004 4.86285 0 1.004 2 0 0.0576084 1 -0.00145326 0.00289282
532 1 30.495 4.86567 0 1.0182 2 0 0.0575164 1 0.00872632 -0.0103568
483 2 32 4 0 1 2 5 0.0273316 1 0 0
484 2 33 4 0 1 2 5 0.0271734 1 0 0
534 1 32.5006 4.86305 0 1.00171 2 0 0.0578633 1 -0.00786046 -0.00486715
485 2 34 4 0 1 2 5 0.0266554 1 0 0
535 1 33.4991 4.86388 0 1.00275 2 0 0.058272 1 0.00367024 -0.00143904
536 1 34.4986 4.86472 0 1.0237 2 0 0.0590005 1 -0.000624173 0.000769181
486 2 35 4 0 1 2 5 0.0265088 1 0 0
487 2 36 4 0 1 2 5 0.0267118 1 0 0
538 1 36.5004 4.86396 0 1.01227 2 0 0.0606407 1 -0.00205469 -0.00462414
537 1 35.4979 4.86335 0 1.0067 2 0 0.0598764 1 0.00518274 0.00370446
488 2 37 4 0 1 2 5 0.0269885 1 0 0
489 2 38 4 0 1 2 5 0.0270349 1 0 0
539 1 37.5 4.86252 0 1.00174 2 0 0.0610191 1 -0.000411836 -0.00386018
490 2 39 4 0 1 2 5 0.0267662 1 0 0
541 1 39.5001 4.86416 0 1.00168 2 0 0.0607517 1 0.00024072 -0.00617017
540 1 38.5022 4.8622 0 1.01715 2 0 0.0610622 1 -0.00666853 0.00355528
491 2 40 4 0 1 2 5 0.0260292 1 0 0
492 2 41 4 0 1 2 5 0.0246429 1 0 0
542 1 40.499 4.86391 0 1.01016 2 0 0.0601235 1 -0.00539988 -0.00458965
543 1 41.4964 4.86191 0 1.03252 2 0 0.059437 1 0.00448976 0.00519389
493 2 42 4 0 1 2 5 0.0235911 1 0 0
494 2 43 4 0 1 2 5 0.0235169 1 0 0
544 1 42.498 4.86366 0 1.0319 2 0 0.0591326 1 -6.80304e-05 -0.00706627
495 2 44 4 0 1 2 5 0.0246271 1 0 0
545 1 43.4999 4.86461 0 1.03659 2 0 0.0593742 1 -0.00105687 -0.00127242
546 1 44.4997 4.86164 0 1.01001 2 0 0.0599272 1 -0.00523373 0.00994803
496 2 45 4 0 1 2 5 0.0260523 1 0 0
497 2 46 4 0 1 2 5 0.0265501 1 0 0
548 1 46.4976 4.86395 0 1.00807 2 0 0.0603081 1 3.73962e-06 -0.0044876
547 1 45.4974 4.86509 0 1.00173 2 0 0.0603502 1 0.00524947 -0.0109921
498 2 47 4 0 1 2 5 0.0260666 1 0 0
499 2 48 4 0 1 2 5 0.0252631 1 0 0
549 1 47.5075 4.86767 0 1.02093 2 0 0.0597063 1 -0.024347 -0.0101599
500 2 49 4 0 1 2 5 0.024479 1 0 0
550 1 48.4997 4.86724 0 1.02225 2 0 0.0589739 1 0.0152002 -5.86779e-05
8501 1 49.4994 4.87007 0 1.06187 2 0 0.0582467 1 -0.00933183 -0.00662486
501 2 0 5 0 1 2 8 1.43838e-05 1 0 0
502 2 1 5 0 1 2 8 5.15884e-05 1 0 0
551 2 0 6 0 1 2 8 2.21216e-05 1 0 0
552 2 1 6 0 1 2 8 8.15845e-05 1 0 0
503 2 2 5 0 1 2 8 0.000311514 1 0 0
504 2 3 5 0 1 2 8 0.0015241 1 0 0
553 2 2 6 0 1 2 8 0.000503319 1 0 0
554 2 3 6 0 1 2 8 0.0025092 1 0 0
505 2 4 5 0 1 2 6 0.00563271 1 0 0
555 2 4 6 0 1 2 5 0.00924164 1 0 0
556 1 4.96816 5.74451 0 1.02426 2 0 0.017779 1 -0.0056777 -6.07597e-05
557 1 5.96546 5.7464 0 1.00456 2 0 0.0259325 1 -0.000173808 -0.00720331
558 1 6.96422 5.75792 0 1.00032 2 0 0.033142 1 -0.00562002 0.00300191
509 1 7.95949 5.75599 0 1.00999 2 0 0.040428 1 0.00826186 -0.00130579
560 1 8.95923 5.75639 0 1.01571 2 0 0.0473248 1 -0.00361295 0.00513838
561 1 9.95573 5.74695 0 1.04128 2 0 0.053698 1 0.00194633 -0.00236411
562 1 10.954 5.74382 0 1.02468 2 0 0.0595461 1 0.00487521 0.00335778
563 1 11.9721 5.73282 0 1.00884 2 0 0.064548 1 0.000525148 0.000833603
565 1 12.9733 5.72907 0 1.01555 2 0 0.0689301 1 -0.000818176 0.00286893
566 1 13.9778 5.72607 0 1.01485 2 0 0.0725128 1 0.00125395 0.00212206
567 1 14.9922 5.73254 0 1.00349 2 0 0.0752794 1 0.00230572 -0.00933664
568 1 15.992 5.73075 0 1.02492 2 0 0.0771122 1 0.00673656 -0.00111215
569 1 18.0023 5.73649 0 1.01386 2 0 0.0799617 1 0 -5e-05
618 1 17.0017 5.73116 0 1.00786 2 0 0.0781519 1 0.00399518 -0.00701065
570 1 19.0026 5.72714 0 1.00562 2 0 0.0828101 1 -0.00281159 0.00395593
571 1 20.0013 5.72958 0 1.00943 2 0 0.0855531 1 -0.00174817 0.00218421
572 1 20.9998 5.7326 0 1.02492 2 0 0.087643 1 -0.00147295 0.0044006
573 1 21.9992 5.72716 0 1.00977 2 0 0.089016 1 -0.00172554 0.00708062
574 1 23.0022 5.72274 0 1.00488 2 0 0.0891031 1 0.0072071 -0.00275538
575 1 24.0043 5.7228 0 1.01237 2 0 0.0883973 1 -0.00413041 0.000111205
576 1 25.0028 5.72364 0 1.01087 2 0 0.0875971 1 -0.000722358 0.000957676
577 1 26.0004 5.72634 0 1.01133 2 0 0.0870592 1 -0.00308528 -5.11295e-05
579 1 26.9979 5.72372 0 1.01129 2 0 0.0865513 1 0.00456908 0.00698705
580 1 27.9976 5.72397 0 1.02117 2 0 0.0863412 1 -0.00236393 0.00106659
581 1 28.9956 5.72376 0 1.01861 2 0 0.0864871 1 0.00632657 0.00289842
632 1 29.9954 5.72517 0 1.0167 2 0 0.0863435 1 -0.00366683 -0.00175749
582 1 30.9984 5.72618 0 1.0143 2 0 0.0860099 1 -0.000134951 -0.00119228
583 1 31.9998 5.72648 0 1.0088 2 0 0.0859213 1 -0.00753312 0.00728494
584 1 32.9958 5.72494 0 1.00514 2 0 0.0863816 1 0.0135905 0.0112371
585 1 33.9964 5.72925 0 1.02197 2 0 0.0881443 1 0.00441783 -0.00526564
586 1 34.9998 5.72818 0 1.02669 2 0 0.0899606 1 -0.000344846 -0.00273614
587 1 36.0008 5.72707 0 1.01702 2 0 0.09139 1 -0.00445617 0.00173688
588 1 37.0014 5.72536 0 1.01798 2 0 0.0921939 1 -0.00741825 0.00406819
589 1 37.9987 5.72389 0 1.01656 2 0 0.0924907 1 0.00872133 0.00399887
590 1 38.9996 5.72681 0 1.01208 2 0 0.0924587 1 -0.00695852 -0.00129405
591 1 39.997 5.72727 0 1.01334 2 0 0.0922139 1 0.000762319 -0.00160762
592 1 40.9938 5.72714 0 1.02633 2 0 0.0918957 1 0.00866731 -0.00170463
594 1 42.9942 5.72602 0 1.01497 2 0 0.091259 1 -0.000211419 -0.00524877
593 1 41.9948 5.72426 0 1.02837 2 0 0.0914653 1 -0.00375695 0.00349547
595 1 44.0006 5.72791 0 1.01694 2 0 0.0914356 1 -0.0037787 -0.00307608
596 1 44.9974 5.72708 0 1.01116 2 0 0.0916919 1 0.00254088 0.00530115
597 1 45.9955 5.72658 0 1.01212 2 0 0.0918019 1 0.00136841 0.0022277
598 1 46.9961 5.72596 0 1.00861 2 0 0.0916682 1 -0.000937169 -0.00351897
599 1 47.9962 5.7319 0 1.02545 2 0 0.0912793 1 0.00997808 0.00718512
600 1 48.9963 5.73576 0 1.00476 2 0 0.0904915 1 -0.0108373 -5.87353e-05
601 2 0 7 0 1 2 8 2.93776e-05 1 0 0
602 2 1 7 0 1 2 8 0.000110126 1 0 0
651 2 0 8 0 1 2 8 3.5257e-05 1 0 0
652 2 1 8 0 1 2 8 0.00013342 1 0 0
603 2 2 7 0 1 2 8 0.000687286 1 0 0
604 2 3 7 0 1 2 8 0.00347507 1 0 0
653 2 2 8 0 1 2 8 0.000841557 1 0 0
654 2 3 8 0 1 2 8 0.00436122 1 0 0
605 2 4 7 0 1 2 5 0.0126874 1 0 0
655 2 4 8 0 1 2 5 0.0159456 1 0 0
656 1 4.86372 7.49352 0 1.01253 2 0 0.0259827 1 0.00921234 -0.00188402
606 1 5.41039 6.65603 0 1.01839 2 0 0.0280381 1 0 -5e-05
607 1 6.42448 6.62813 0 1.01626 2 0 0.0378447 1 0.00408622 0.00810347
657 1 5.87647 7.54622 0 1.02523 2 0 0.0397688 1 0 -5e-05
608 1 7.45491 6.62857 0 1.01581 2 0 0.0475132 1 0.000580743 0.000980437
609 1 7.9348 7.51386 0 1.00447 2 0 0.0647337 1 0 -5e-05
658 1 6.93352 7.48738 0 1.00499 2 0 0.0523522 1 0.00314954 -0.00193203
559 1 8.45555 6.6232 0 1.01669 2 0 0.0572276 1 -0.00936228 0.00153487
610 1 9.45037 6.62649 0 1.00382 2 0 0.0662558 1 0.00108329 -0.0133329
661 1 8.94454 7.49727 0 1.00906 2 0 0.0763205 1 0 -5e-05
612 1 9.9533 7.48091 0 1.00002 2 0 0.087125 1 0.00473695 0.00795965
611 1 10.4496 6.61159 0 1.00368 2 0 0.0744679 1 -0.00165825 -0.0049083
564 1 11.4549 6.60223 0 1.01095 2 0 0.0818756 1 -0.000150946 -0.000658725
613 1 10.9536 7.4673 0 1.00877 2 0 0.0970079 1 -0.00181821 -0.00234363
614 1 12.4638 6.59487 0 1.01882 2 0 0.0882874 1 0.00374069 -0.0111992
665 1 12.9642 7.45028 0 1.00809 2 0 0.11362 1 8.60321e-05 0.00534425
664 1 11.9645 7.45537 0 1.0022 2 0 0.105898 1 -0.00499532 0.00727839
615 1 13.4682 6.59124 0 1.00601 2 0 0.0938152 1 0.00505173 -0.00521255
616 1 14.4751 6.58381 0 1.00878 2 0 0.0979712 1 -0.00714635 0.00148324
666 1 13.9728 7.44885 0 0.997531 2 0 0.120103 1 -0.00334077 0.00123813
667 1 14.9707 7.43878 0 1.00922 2 0 0.124343 1 -0.00719976 0.00212183
617 1 15.4957 6.59482 0 1.01132 2 0 0.101105 1 -0.00174543 -0.0119502
668 1 16.0045 7.44879 0 1.01232 2 0 0.127494 1 0.00591327 0.0113145
619 1 16.51 6.59332 0 1.00791 2 0 0.102319 1 -0.00481401 0.00140229
669 1 17.502 6.70242 0 1.0115 2 0 0.105222 1 0.00396395 0.000385927
719 1 17.032 7.59451 0 1.0104 2 0 0.131685 1 -5.6457e-08 -5.0256e-05
720 1 18.0151 7.78506 0 1.00384 2 0 0.146194 0.999912 1.61502e-06 -6.34331e-05
620 1 18.4994 6.62435 0 1.00047 2 0 0.107875 1 -0.00762799 0.000100116
621 1 19.4954 6.60475 0 1.01086 2 0 0.111835 1 0.00191564 -0.0102533
670 1 18.99 7.54864 0 1.01205 2 0 0.139834 0.999999 -0.00067416 3.5084e-06
671 1 19.9865 7.46915 0 1.01101 2 1 0.142983 0.998451 -0.00310387 -0.00471854
622 1 20.5019 6.60628 0 1.02282 2 0 0.116292 1 -0.000616119 -4.46459e-05
623 1 21.5016 6.59718 0 1.01715 2 0 0.119368 0.999999 -0.00710587 -0.0127597
672 1 20.9817 7.53182 0 1.01032 2 0 0.151882 0.987132 0.00558148 -0.000691481
673 1 22.0161 7.4455 0 1.00705 2 0 0.152917 0.990698 0.00368522 -0.000804705
624 1 22.5091 6.58256 0 1.00933 2 0 0.120429 1 -0.00433594 0.0119476
674 1 23.012 7.45216 0 1.01197 2 0 0.152247 0.996344 0.00547545 -0.00473422
625 1 23.5062 6.58465 0 1.01358 2 0 0.119291 1 0.00132486 0.00560776
626 1 24.5052 6.58643 0 1.01095 2 0 0.117171 1 0.00381234 -0.00226505
675 1 24.0098 7.44714 0 1.00974 2 1 0.148102 0.999705 -0.00568601 0.000722288
676 1 25.0057 7.45332 0 1.01754 2 1 0.146419 0.996409 -0.00370863 0.00106898
578 1 26.4988 6.58969 0 1.0136 2 0 0.115911 0.999997 0.00859209 0.0018123
628 1 26.0039 7.45824 0 1.00647 2 0 0.147563 0.988689 -0.00172847 -0.00149565
627 1 25.5038 6.59289 0 1.0116 2 0 0.116747 0.999997 -0.00334502 -0.00891517
629 1 27.4976 6.58684 0 1.00585 2 0 0.114596 1 -0.00196419 -0.00285173
679 1 27.9942 7.44912 0 1.01276 2 1 0.144393 0.998314 0.00605732 0.000784978
678 1 27.0005 7.45221 0 1.01987 2 0 0.145949 0.996091 -0.00166689 -0.00371105
630 1 28.4969 6.58728 0 1.00031 2 0 0.114806 1 0.000764399 0.0057114
631 1 29.4956 6.58644 0 1.01679 2 0 0.115847 1 -0.00184374 4.65906e-06
680 1 29.0021 7.45086 0 1.0041 2 1 0.14698 0.996855 -0.00481373 -0.000636812
681 1 29.9976 7.44851 0 1.0067 2 0 0.147618 0.985491 0.00645006 -0.00262884
682 1 30.493 6.58721 0 1.0233 2 0 0.115529 0.99982 0.0137045 -0.000187791
633 1 31.4925 6.59162 0 1.00197 2 0 0.115016 0.999656 0.000395006 -0.00078268
732 1 30.9997 7.4646 0 1.02086 2 0 0.148471 0.950695 -0.000198223 -0.00473035
683 1 32.0013 7.44802 0 1.00602 2 0 0.145426 0.980475 -0.00463144 0.00511072
684 1 32.5058 6.59421 0 1.01173 2 0 0.114852 0.999995 -0.000873218 -0.0104955
734 1 33.012 7.56614 0 1.01306 2 0 0.150469 0.995963 -0.000313266 -0.000423685
634 1 33.5022 6.59405 0 1.00318 2 0 0.116755 1 -0.00148636 0.00478951
635 1 34.5004 6.5916 0 1.01335 2 0 0.119987 1 0.000660027 0.000318736
685 1 34.0058 7.45664 0 1.01182 2 1 0.151403 0.993672 -0.00738485 -0.00439475