ITEM: TIMESTEP
30000
ITEM: NUMBER OF ATOMS
15950
ITEM: BOX BOUNDS pp pp pp
0.0000000000000000e+00 1.0000000000000000e+02
-5.0000000000000000e+00 2.0000000000000000e+02
-5.0000000000000000e-01 5.0000000000000000e-01
ITEM: ATOMS id type x y z c_rho c_phase c_nbond c_temp f_rheo_chi_chi fx fy
1 2 0 -5 0 1 2 8 2.59997e-09 1 0 0
2 2 1 -5 0 1 2 8 3.6173e-09 1 0 0
51 2 0 -4 0 1 2 8 1.38218e-08 1 0 0
52 2 1 -4 0 1 2 8 1.97473e-08 1 0 0
3 2 2 -5 0 1 2 8 7.03109e-09 1 0 0
4 2 3 -5 0 1 2 8 1.34093e-08 1 0 0
53 2 2 -4 0 1 2 8 3.99087e-08 1 0 0
54 2 3 -4 0 1 2 8 7.81306e-08 1 0 0
5 2 4 -5 0 1 2 7 2.35555e-08 1 0 0
55 2 4 -4 0 1 2 8 1.37016e-07 1 0 0
6 2 5 -5 0 1 2 6 3.83858e-08 1 0 0
7 2 6 -5 0 1 2 5 5.48451e-08 1 0 0
56 2 5 -4 0 1 2 8 2.14499e-07 1 0 0
57 2 6 -4 0 1 2 8 3.01651e-07 1 0 0
8 2 7 -5 0 1 2 5 7.02089e-08 1 0 0
9 2 8 -5 0 1 2 5 8.36152e-08 1 0 0
58 2 7 -4 0 1 2 8 3.87398e-07 1 0 0
59 2 8 -4 0 1 2 8 4.62707e-07 1 0 0
10 2 9 -5 0 1 2 5 9.4328e-08 1 0 0
60 2 9 -4 0 1 2 8 5.22945e-07 1 0 0
11 2 10 -5 0 1 2 5 1.02395e-07 1 0 0
12 2 11 -5 0 1 2 5 1.08469e-07 1 0 0
61 2 10 -4 0 1 2 8 5.68406e-07 1 0 0
62 2 11 -4 0 1 2 8 6.02814e-07 1 0 0
13 2 12 -5 0 1 2 5 1.13352e-07 1 0 0
14 2 13 -5 0 1 2 5 1.17537e-07 1 0 0
63 2 12 -4 0 1 2 8 6.30734e-07 1 0 0
64 2 13 -4 0 1 2 8 6.54849e-07 1 0 0
15 2 14 -5 0 1 2 5 1.21027e-07 1 0 0
65 2 14 -4 0 1 2 8 6.74902e-07 1 0 0
16 2 15 -5 0 1 2 5 1.23629e-07 1 0 0
17 2 16 -5 0 1 2 5 1.25382e-07 1 0 0
66 2 15 -4 0 1 2 8 6.89567e-07 1 0 0
67 2 16 -4 0 1 2 8 6.99213e-07 1 0 0
18 2 17 -5 0 1 2 5 1.26585e-07 1 0 0
19 2 18 -5 0 1 2 5 1.27422e-07 1 0 0
68 2 17 -4 0 1 2 8 7.06011e-07 1 0 0
69 2 18 -4 0 1 2 8 7.11296e-07 1 0 0
20 2 19 -5 0 1 2 5 1.27672e-07 1 0 0
70 2 19 -4 0 1 2 8 7.13689e-07 1 0 0
21 2 20 -5 0 1 2 5 1.26896e-07 1 0 0
22 2 21 -5 0 1 2 5 1.24893e-07 1 0 0
71 2 20 -4 0 1 2 8 7.1031e-07 1 0 0
72 2 21 -4 0 1 2 8 6.99709e-07 1 0 0
23 2 22 -5 0 1 2 5 1.22014e-07 1 0 0
24 2 23 -5 0 1 2 5 1.19108e-07 1 0 0
73 2 22 -4 0 1 2 8 6.83741e-07 1 0 0
74 2 23 -4 0 1 2 8 6.67274e-07 1 0 0
25 2 24 -5 0 1 2 5 1.17187e-07 1 0 0
75 2 24 -4 0 1 2 8 6.56277e-07 1 0 0
26 2 25 -5 0 1 2 5 1.16964e-07 1 0 0
27 2 26 -5 0 1 2 5 1.18507e-07 1 0 0
76 2 25 -4 0 1 2 8 6.55091e-07 1 0 0
77 2 26 -4 0 1 2 8 6.64129e-07 1 0 0
28 2 27 -5 0 1 2 5 1.21259e-07 1 0 0
29 2 28 -5 0 1 2 5 1.24457e-07 1 0 0
78 2 27 -4 0 1 2 8 6.79913e-07 1 0 0
79 2 28 -4 0 1 2 8 6.97755e-07 1 0 0
30 2 29 -5 0 1 2 5 1.27547e-07 1 0 0
80 2 29 -4 0 1 2 8 7.1455e-07 1 0 0
31 2 30 -5 0 1 2 5 1.30235e-07 1 0 0
32 2 31 -5 0 1 2 5 1.32279e-07 1 0 0
81 2 30 -4 0 1 2 8 7.29022e-07 1 0 0
82 2 31 -4 0 1 2 8 7.4009e-07 1 0 0
33 2 32 -5 0 1 2 5 1.33421e-07 1 0 0
34 2 33 -5 0 1 2 5 1.33594e-07 1 0 0
83 2 32 -4 0 1 2 8 7.46252e-07 1 0 0
84 2 33 -4 0 1 2 8 7.46997e-07 1 0 0
35 2 34 -5 0 1 2 5 1.33085e-07 1 0 0
85 2 34 -4 0 1 2 8 7.43977e-07 1 0 0
36 2 35 -5 0 1 2 5 1.32339e-07 1 0 0
37 2 36 -5 0 1 2 5 1.31596e-07 1 0 0
86 2 35 -4 0 1 2 8 7.39896e-07 1 0 0
87 2 36 -4 0 1 2 8 7.36157e-07 1 0 0
38 2 37 -5 0 1 2 5 1.30727e-07 1 0 0
39 2 38 -5 0 1 2 5 1.29408e-07 1 0 0
88 2 37 -4 0 1 2 8 7.31848e-07 1 0 0
89 2 38 -4 0 1 2 8 7.24849e-07 1 0 0
40 2 39 -5 0 1 2 5 1.27454e-07 1 0 0
90 2 39 -4 0 1 2 8 7.13843e-07 1 0 0
41 2 40 -5 0 1 2 5 1.25074e-07 1 0 0
42 2 41 -5 0 1 2 5 1.22911e-07 1 0 0
91 2 40 -4 0 1 2 8 6.99906e-07 1 0 0
92 2 41 -4 0 1 2 8 6.86861e-07 1 0 0
43 2 42 -5 0 1 2 5 1.21787e-07 1 0 0
44 2 43 -5 0 1 2 5 1.22192e-07 1 0 0
93 2 42 -4 0 1 2 8 6.79797e-07 1 0 0
94 2 43 -4 0 1 2 8 6.81937e-07 1 0 0
45 2 44 -5 0 1 2 5 1.23855e-07 1 0 0
95 2 44 -4 0 1 2 8 6.91811e-07 1 0 0
46 2 45 -5 0 1 2 5 1.25779e-07 1 0 0
47 2 46 -5 0 1 2 5 1.26853e-07 1 0 0
96 2 45 -4 0 1 2 8 7.03386e-07 1 0 0
97 2 46 -4 0 1 2 8 7.09831e-07 1 0 0
48 2 47 -5 0 1 2 5 1.26597e-07 1 0 0
49 2 48 -5 0 1 2 5 1.25453e-07 1 0 0
98 2 47 -4 0 1 2 8 7.08221e-07 1 0 0
99 2 48 -4 0 1 2 8 7.01301e-07 1 0 0
50 2 49 -5 0 1 2 5 1.24404e-07 1 0 0
100 2 49 -4 0 1 2 8 6.951e-07 1 0 0
101 2 0 -3 0 1 2 8 6.71858e-08 1 0 0
102 2 1 -3 0 1 2 8 9.8878e-08 1 0 0
151 2 0 -2 0 1 2 8 2.95588e-07 1 0 0
152 2 1 -2 0 1 2 8 4.49478e-07 1 0 0
103 2 2 -3 0 1 2 8 2.08574e-07 1 0 0
104 2 3 -3 0 1 2 8 4.21504e-07 1 0 0
153 2 2 -2 0 1 2 8 9.92938e-07 1 0 0
154 2 3 -2 0 1 2 8 2.07799e-06 1 0 0
105 2 4 -3 0 1 2 8 7.55341e-07 1 0 0
155 2 4 -2 0 1 2 8 3.8207e-06 1 0 0
106 2 5 -3 0 1 2 8 1.197e-06 1 0 0
107 2 6 -3 0 1 2 8 1.69765e-06 1 0 0
156 2 5 -2 0 1 2 8 6.16107e-06 1 0 0
157 2 6 -2 0 1 2 8 8.82973e-06 1 0 0
108 2 7 -3 0 1 2 8 2.19203e-06 1 0 0
109 2 8 -3 0 1 2 8 2.62592e-06 1 0 0
158 2 7 -2 0 1 2 8 1.14654e-05 1 0 0
159 2 8 -2 0 1 2 8 1.37759e-05 1 0 0
110 2 9 -3 0 1 2 8 2.97285e-06 1 0 0
160 2 9 -2 0 1 2 8 1.56247e-05 1 0 0
111 2 10 -3 0 1 2 8 3.23516e-06 1 0 0
112 2 11 -3 0 1 2 8 3.43478e-06 1 0 0
161 2 10 -2 0 1 2 8 1.70286e-05 1 0 0
162 2 11 -2 0 1 2 8 1.81054e-05 1 0 0
113 2 12 -3 0 1 2 8 3.59849e-06 1 0 0
114 2 13 -3 0 1 2 8 3.74145e-06 1 0 0
163 2 12 -2 0 1 2 8 1.89989e-05 1 0 0
164 2 13 -2 0 1 2 8 1.97886e-05 1 0 0
115 2 14 -3 0 1 2 8 3.86021e-06 1 0 0
165 2 14 -2 0 1 2 8 2.04443e-05 1 0 0
116 2 15 -3 0 1 2 8 3.94516e-06 1 0 0
117 2 16 -3 0 1 2 8 3.99937e-06 1 0 0
166 2 15 -2 0 1 2 8 2.09024e-05 1 0 0
167 2 16 -2 0 1 2 8 2.1185e-05 1 0 0
118 2 17 -3 0 1 2 8 4.03871e-06 1 0 0
119 2 18 -3 0 1 2 8 4.07302e-06 1 0 0
168 2 17 -2 0 1 2 8 2.13977e-05 1 0 0
169 2 18 -2 0 1 2 8 2.16053e-05 1 0 0
120 2 19 -3 0 1 2 8 4.09323e-06 1 0 0
170 2 19 -2 0 1 2 8 2.17522e-05 1 0 0
121 2 20 -3 0 1 2 8 4.08e-06 1 0 0
122 2 21 -3 0 1 2 8 4.02301e-06 1 0 0
171 2 20 -2 0 1 2 8 2.17197e-05 1 0 0
172 2 21 -2 0 1 2 8 2.1443e-05 1 0 0
123 2 22 -3 0 1 2 8 3.9324e-06 1 0 0
124 2 23 -3 0 1 2 8 3.83668e-06 1 0 0
173 2 22 -2 0 1 2 8 2.09734e-05 1 0 0
174 2 23 -2 0 1 2 8 2.04635e-05 1 0 0
125 2 24 -3 0 1 2 8 3.77198e-06 1 0 0
175 2 24 -2 0 1 2 8 2.01135e-05 1 0 0
126 2 25 -3 0 1 2 8 3.76558e-06 1 0 0
127 2 26 -3 0 1 2 8 3.82027e-06 1 0 0
176 2 25 -2 0 1 2 8 2.00826e-05 1 0 0
177 2 26 -2 0 1 2 8 2.03894e-05 1 0 0
128 2 27 -3 0 1 2 8 3.91347e-06 1 0 0
129 2 28 -3 0 1 2 8 4.01537e-06 1 0 0
178 2 27 -2 0 1 2 8 2.08986e-05 1 0 0
179 2 28 -2 0 1 2 8 2.14337e-05 1 0 0
130 2 29 -3 0 1 2 8 4.10825e-06 1 0 0
180 2 29 -2 0 1 2 8 2.1902e-05 1 0 0
131 2 30 -3 0 1 2 8 4.18754e-06 1 0 0
132 2 31 -3 0 1 2 8 4.24896e-06 1 0 0
181 2 30 -2 0 1 2 8 2.22979e-05 1 0 0
182 2 31 -2 0 1 2 8 2.26114e-05 1 0 0
133 2 32 -3 0 1 2 8 4.28324e-06 1 0 0
134 2 33 -3 0 1 2 8 4.28615e-06 1 0 0
183 2 32 -2 0 1 2 8 2.27886e-05 1 0 0
184 2 33 -2 0 1 2 8 2.27975e-05 1 0 0
135 2 34 -3 0 1 2 8 4.26759e-06 1 0 0
185 2 34 -2 0 1 2 8 2.2693e-05 1 0 0
136 2 35 -3 0 1 2 8 4.2447e-06 1 0 0
137 2 36 -3 0 1 2 8 4.22602e-06 1 0 0
186 2 35 -2 0 1 2 8 2.25756e-05 1 0 0
187 2 36 -2 0 1 2 8 2.24937e-05 1 0 0
138 2 37 -3 0 1 2 8 4.20506e-06 1 0 0
139 2 38 -3 0 1 2 8 4.16767e-06 1 0 0
188 2 37 -2 0 1 2 8 2.24054e-05 1 0 0
189 2 38 -2 0 1 2 8 2.22249e-05 1 0 0
140 2 39 -3 0 1 2 8 4.10453e-06 1 0 0
190 2 39 -2 0 1 2 8 2.18932e-05 1 0 0
141 2 40 -3 0 1 2 8 4.02107e-06 1 0 0
142 2 41 -3 0 1 2 8 3.94042e-06 1 0 0
191 2 40 -2 0 1 2 8 2.14337e-05 1 0 0
192 2 41 -2 0 1 2 8 2.09743e-05 1 0 0
143 2 42 -3 0 1 2 8 3.895e-06 1 0 0
144 2 43 -3 0 1 2 8 3.90655e-06 1 0 0
193 2 42 -2 0 1 2 8 2.07053e-05 1 0 0
194 2 43 -2 0 1 2 8 2.07611e-05 1 0 0
145 2 44 -3 0 1 2 8 3.96707e-06 1 0 0
195 2 44 -2 0 1 2 8 2.11029e-05 1 0 0
146 2 45 -3 0 1 2 8 4.03881e-06 1 0 0
147 2 46 -3 0 1 2 8 4.07845e-06 1 0 0
196 2 45 -2 0 1 2 8 2.15125e-05 1 0 0
197 2 46 -2 0 1 2 8 2.17363e-05 1 0 0
148 2 47 -3 0 1 2 8 4.0676e-06 1 0 0
149 2 48 -3 0 1 2 8 4.02395e-06 1 0 0
198 2 47 -2 0 1 2 8 2.16683e-05 1 0 0
199 2 48 -2 0 1 2 8 2.14136e-05 1 0 0
150 2 49 -3 0 1 2 8 3.98568e-06 1 0 0
200 2 49 -2 0 1 2 8 2.11947e-05 1 0 0
201 2 0 -1 0 1 2 8 1.16366e-06 1 0 0
202 2 1 -1 0 1 2 8 1.8331e-06 1 0 0
203 2 2 -1 0 1 2 8 4.25263e-06 1 0 0
204 2 3 -1 0 1 2 8 9.2432e-06 1 0 0
205 2 4 -1 0 1 2 8 1.74852e-05 1 0 0
206 2 5 -1 0 1 2 8 2.87419e-05 1 0 0
207 2 6 -1 0 1 2 8 4.16481e-05 1 0 0
208 2 7 -1 0 1 2 8 5.43811e-05 1 0 0
209 2 8 -1 0 1 2 8 6.55301e-05 1 0 0
210 2 9 -1 0 1 2 8 7.44767e-05 1 0 0
211 2 10 -1 0 1 2 8 8.13228e-05 1 0 0
212 2 11 -1 0 1 2 8 8.66312e-05 1 0 0
213 2 12 -1 0 1 2 8 9.10927e-05 1 0 0
214 2 13 -1 0 1 2 8 9.50855e-05 1 0 0
215 2 14 -1 0 1 2 8 9.84041e-05 1 0 0
216 2 15 -1 0 1 2 8 0.000100669 1 0 0
217 2 16 -1 0 1 2 8 0.000102021 1 0 0
218 2 17 -1 0 1 2 8 0.000103084 1 0 0
219 2 18 -1 0 1 2 8 0.000104237 1 0 0
220 2 19 -1 0 1 2 8 0.000105167 1 0 0
221 2 20 -1 0 1 2 8 0.000105219 1 0 0
222 2 21 -1 0 1 2 8 0.000104045 1 0 0
223 2 22 -1 0 1 2 8 0.000101881 1 0 0
224 2 23 -1 0 1 2 8 9.94531e-05 1 0 0
225 2 24 -1 0 1 2 8 9.77525e-05 1 0 0
226 2 25 -1 0 1 2 8 9.76251e-05 1 0 0
227 2 26 -1 0 1 2 8 9.91902e-05 1 0 0
228 2 27 -1 0 1 2 8 0.000101714 1 0 0
229 2 28 -1 0 1 2 8 0.000104244 1 0 0
230 2 29 -1 0 1 2 8 0.000106346 1 0 0
231 2 30 -1 0 1 2 8 0.000108105 1 0 0
232 2 31 -1 0 1 2 8 0.000109548 1 0 0
233 2 32 -1 0 1 2 8 0.000110385 1 0 0
234 2 33 -1 0 1 2 8 0.000110404 1 0 0
235 2 34 -1 0 1 2 8 0.000109877 1 0 0
236 2 35 -1 0 1 2 8 0.000109341 1 0 0
237 2 36 -1 0 1 2 8 0.000109043 1 0 0
238 2 37 -1 0 1 2 8 0.000108742 1 0 0
239 2 38 -1 0 1 2 8 0.000107977 1 0 0
240 2 39 -1 0 1 2 8 0.000106417 1 0 0
241 2 40 -1 0 1 2 8 0.000104142 1 0 0
242 2 41 -1 0 1 2 8 0.000101784 1 0 0
243 2 42 -1 0 1 2 8 0.000100346 1 0 0
244 2 43 -1 0 1 2 8 0.00010058 1 0 0
245 2 44 -1 0 1 2 8 0.00010232 1 0 0
246 2 45 -1 0 1 2 8 0.000104427 1 0 0
247 2 46 -1 0 1 2 8 0.00010556 1 0 0
248 2 47 -1 0 1 2 8 0.000105172 1 0 0
249 2 48 -1 0 1 2 8 0.000103829 1 0 0
250 2 49 -1 0 1 2 8 0.000102693 1 0 0
251 2 0 0 0 1 2 8 4.04877e-06 1 0 0
252 2 1 0 0 1 2 8 6.61764e-06 1 0 0
301 2 0 1 0 1 2 8 1.22966e-05 1 0 0
302 2 1 1 0 1 2 8 2.08479e-05 1 0 0
253 2 2 0 0 1 2 8 1.61461e-05 1 0 0
254 2 3 0 0 1 2 8 3.65346e-05 1 0 0
303 2 2 1 0 1 2 8 5.34315e-05 1 0 0
304 2 3 1 0 1 2 8 0.000125924 1 0 0
255 2 4 0 0 1 2 8 7.13059e-05 1 0 0
305 2 4 1 0 1 2 8 0.000254141 1 0 0
256 2 5 0 0 1 2 8 0.000119714 1 0 0
257 2 6 0 0 1 2 8 0.000175459 1 0 0
306 2 5 1 0 1 2 8 0.000436726 1 0 0
307 2 6 1 0 1 2 8 0.000647399 1 0 0
258 2 7 0 0 1 2 8 0.000230277 1 0 0
259 2 8 0 0 1 2 8 0.000278222 1 0 0
308 2 7 1 0 1 2 8 0.000852988 1 0 0
309 2 8 1 0 1 2 8 0.00103268 1 0 0
260 2 9 0 0 1 2 8 0.000316917 1 0 0
310 2 9 1 0 1 2 8 0.00117922 1 0 0
261 2 10 0 0 1 2 8 0.000346898 1 0 0
262 2 11 0 0 1 2 8 0.000370491 1 0 0
311 2 10 1 0 1 2 8 0.00129488 1 0 0
312 2 11 1 0 1 2 8 0.00138772 1 0 0
263 2 12 0 0 1 2 8 0.000390589 1 0 0
264 2 13 0 0 1 2 8 0.000408808 1 0 0
313 2 12 1 0 1 2 8 0.00146791 1 0 0
314 2 13 1 0 1 2 8 0.0015415 1 0 0
265 2 14 0 0 1 2 8 0.000423995 1 0 0
315 2 14 1 0 1 2 8 0.00160324 1 0 0
266 2 15 0 0 1 2 8 0.000434168 1 0 0
267 2 16 0 0 1 2 8 0.000440082 1 0 0
316 2 15 1 0 1 2 8 0.00164426 1 0 0
317 2 16 1 0 1 2 8 0.00166799 1 0 0
268 2 17 0 0 1 2 8 0.000444992 1 0 0
269 2 18 0 0 1 2 8 0.000450799 1 0 0
318 2 17 1 0 1 2 8 0.00168888 1 0 0
319 2 18 1 0 1 2 8 0.001715 1 0 0
270 2 19 0 0 1 2 8 0.000455913 1 0 0
320 2 19 1 0 1 2 8 0.00173924 1 0 0
271 2 20 0 0 1 2 8 0.000457175 1 0 0
272 2 21 0 0 1 2 8 0.00045299 1 0 0
321 2 20 1 0 1 2 8 0.00174851 1 0 0
322 2 21 1 0 1 2 8 0.001737 1 0 0
273 2 22 0 0 1 2 8 0.000444379 1 0 0
274 2 23 0 0 1 2 8 0.000434307 1 0 0
323 2 22 1 0 1 2 8 0.00170878 1 0 0
324 2 23 1 0 1 2 8 0.00167383 1 0 0
275 2 24 0 0 1 2 8 0.000427059 1 0 0
325 2 24 1 0 1 2 8 0.00164772 1 0 0
276 2 25 0 0 1 2 8 0.000426654 1 0 0
277 2 26 0 0 1 2 8 0.000433795 1 0 0
326 2 25 1 0 1 2 8 0.00164711 1 0 0
327 2 26 1 0 1 2 8 0.00167561 1 0 0
278 2 27 0 0 1 2 8 0.000444954 1 0 0
279 2 28 0 0 1 2 8 0.000455543 1 0 0
328 2 27 1 0 1 2 8 0.00171869 1 0 0
329 2 28 1 0 1 2 8 0.00175705 1 0 0
280 2 29 0 0 1 2 8 0.000463759 1 0 0
330 2 29 1 0 1 2 8 0.00178426 1 0 0
281 2 30 0 0 1 2 8 0.000470566 1 0 0
282 2 31 0 0 1 2 8 0.000476471 1 0 0
331 2 30 1 0 1 2 8 0.00180662 1 0 0
332 2 31 1 0 1 2 8 0.00182773 1 0 0
283 2 32 0 0 1 2 8 0.000480052 1 0 0
284 2 33 0 0 1 2 8 0.000480077 1 0 0
333 2 32 1 0 1 2 8 0.00184144 1 0 0
334 2 33 1 0 1 2 8 0.00184164 1 0 0
285 2 34 0 0 1 2 8 0.000477747 1 0 0
335 2 34 1 0 1 2 8 0.0018329 1 0 0
286 2 35 0 0 1 2 8 0.000475627 1 0 0
287 2 36 0 0 1 2 8 0.000474825 1 0 0
336 2 35 1 0 1 2 8 0.00182594 1 0 0
337 2 36 1 0 1 2 8 0.001825 1 0 0
288 2 37 0 0 1 2 8 0.000474124 1 0 0
289 2 38 0 0 1 2 8 0.000471348 1 0 0
338 2 37 1 0 1 2 8 0.00182471 1 0 0
339 2 38 1 0 1 2 8 0.00181645 1 0 0
290 2 39 0 0 1 2 8 0.000464926 1 0 0
340 2 39 1 0 1 2 8 0.00179401 1 0 0
291 2 40 0 0 1 2 8 0.000455015 1 0 0
292 2 41 0 0 1 2 8 0.000444323 1 0 0
341 2 40 1 0 1 2 8 0.00175714 1 0 0
342 2 41 1 0 1 2 8 0.00171551 1 0 0
293 2 42 0 0 1 2 8 0.00043753 1 0 0
294 2 43 0 0 1 2 8 0.00043834 1 0 0
343 2 42 1 0 1 2 8 0.00168793 1 0 0
344 2 43 1 0 1 2 8 0.00169008 1 0 0
295 2 44 0 0 1 2 8 0.000446168 1 0 0
345 2 44 1 0 1 2 8 0.00172034 1 0 0
296 2 45 0 0 1 2 8 0.000455731 1 0 0
297 2 46 0 0 1 2 8 0.000460763 1 0 0
346 2 45 1 0 1 2 8 0.00175758 1 0 0
347 2 46 1 0 1 2 8 0.00177653 1 0 0
298 2 47 0 0 1 2 8 0.00045879 1 0 0
299 2 48 0 0 1 2 8 0.000452508 1 0 0
348 2 47 1 0 1 2 8 0.00176778 1 0 0
349 2 48 1 0 1 2 8 0.00174245 1 0 0
300 2 49 0 0 1 2 8 0.000447266 1 0 0
350 2 49 1 0 1 2 8 0.00172152 1 0 0
351 2 0 2 0 1 2 8 3.22516e-05 1 0 0
352 2 1 2 0 1 2 8 5.65627e-05 1 0 0
401 2 0 3 0 1 2 8 7.25518e-05 1 0 0
402 2 1 3 0 1 2 8 0.000131021 1 0 0
353 2 2 2 0 1 2 8 0.000151454 1 0 0
354 2 3 2 0 1 2 8 0.000370048 1 0 0
403 2 2 3 0 1 2 8 0.000362931 1 0 0
404 2 3 3 0 1 2 8 0.000907323 1 0 0
355 2 4 2 0 1 2 8 0.000771892 1 0 0
405 2 4 3 0 1 2 8 0.00192987 1 0 0
356 2 5 2 0 1 2 8 0.00136078 1 0 0
357 2 6 2 0 1 2 8 0.00203775 1 0 0
406 2 5 3 0 1 2 8 0.00350751 1 0 0
407 2 6 3 0 1 2 8 0.00529888 1 0 0
358 2 7 2 0 1 2 8 0.00268754 1 0 0
359 2 8 2 0 1 2 8 0.00325615 1 0 0
408 2 7 3 0 1 2 8 0.00694085 1 0 0
409 2 8 3 0 1 2 8 0.00839505 1 0 0
360 2 9 2 0 1 2 8 0.0037282 1 0 0
410 2 9 3 0 1 2 8 0.00964092 1 0 0
361 2 10 2 0 1 2 8 0.00411074 1 0 0
362 2 11 2 0 1 2 8 0.004426 1 0 0
411 2 10 3 0 1 2 8 0.0106852 1 0 0
412 2 11 3 0 1 2 8 0.0115774 1 0 0
363 2 12 2 0 1 2 8 0.00470221 1 0 0
364 2 13 2 0 1 2 8 0.00495831 1 0 0
413 2 12 3 0 1 2 8 0.0123724 1 0 0
414 2 13 3 0 1 2 8 0.0131134 1 0 0
365 2 14 2 0 1 2 8 0.00517574 1 0 0
415 2 14 3 0 1 2 8 0.0137561 1 0 0
366 2 15 2 0 1 2 8 0.00532192 1 0 0
367 2 16 2 0 1 2 8 0.00540945 1 0 0
416 2 15 3 0 1 2 8 0.014208 1 0 0
417 2 16 3 0 1 2 8 0.0145038 1 0 0
368 2 17 2 0 1 2 8 0.00549071 1 0 0
369 2 18 2 0 1 2 8 0.00559341 1 0 0
418 2 17 3 0 1 2 8 0.014789 1 0 0
419 2 18 3 0 1 2 8 0.0151341 1 0 0
370 2 19 2 0 1 2 8 0.00569046 1 0 0
420 2 19 3 0 1 2 8 0.0154565 1 0 0
371 2 20 2 0 1 2 8 0.00573737 1 0 0
372 2 21 2 0 1 2 8 0.0057189 1 0 0
421 2 20 3 0 1 2 8 0.0156374 1 0 0
422 2 21 3 0 1 2 8 0.0156586 1 0 0
373 2 22 2 0 1 2 8 0.00565003 1 0 0
374 2 23 2 0 1 2 8 0.00555594 1 0 0
423 2 22 3 0 1 2 8 0.0155719 1 0 0
424 2 23 3 0 1 2 8 0.0154103 1 0 0
375 2 24 2 0 1 2 8 0.0054816 1 0 0
425 2 24 3 0 1 2 8 0.0152668 1 0 0
376 2 25 2 0 1 2 8 0.00548502 1 0 0
377 2 26 2 0 1 2 8 0.0055815 1 0 0
426 2 25 3 0 1 2 8 0.015306 1 0 0
427 2 26 3 0 1 2 8 0.0155702 1 0 0
378 2 27 2 0 1 2 8 0.00572211 1 0 0
379 2 28 2 0 1 2 8 0.00583908 1 0 0
428 2 27 3 0 1 2 8 0.0159448 1 0 0
429 2 28 3 0 1 2 8 0.016237 1 0 0
380 2 29 2 0 1 2 8 0.005913 1 0 0
430 2 29 3 0 1 2 8 0.0163964 1 0 0
381 2 30 2 0 1 2 8 0.00597372 1 0 0
382 2 31 2 0 1 2 8 0.00603842 1 0 0
431 2 30 3 0 1 2 8 0.0165327 1 0 0
432 2 31 3 0 1 2 8 0.0167007 1 0 0
383 2 32 2 0 1 2 8 0.00608456 1 0 0
384 2 33 2 0 1 2 8 0.00608731 1 0 0
433 2 32 3 0 1 2 8 0.0168354 1 0 0
434 2 33 3 0 1 2 8 0.0168568 1 0 0
385 2 34 2 0 1 2 8 0.00606094 1 0 0
435 2 34 3 0 1 2 8 0.0167969 1 0 0
386 2 35 2 0 1 2 8 0.0060435 1 0 0
387 2 36 2 0 1 2 8 0.00604811 1 0 0
436 2 35 3 0 1 2 8 0.0167706 1 0 0
437 2 36 3 0 1 2 8 0.0168079 1 0 0
388 2 37 2 0 1 2 8 0.00605474 1 0 0
389 2 38 2 0 1 2 8 0.00603574 1 0 0
438 2 37 3 0 1 2 8 0.0168445 1 0 0
439 2 38 3 0 1 2 8 0.0168141 1 0 0
390 2 39 2 0 1 2 8 0.00597233 1 0 0
440 2 39 3 0 1 2 8 0.016682 1 0 0
391 2 40 2 0 1 2 8 0.00586073 1 0 0
392 2 41 2 0 1 2 8 0.00572749 1 0 0
441 2 40 3 0 1 2 8 0.0164323 1 0 0
442 2 41 3 0 1 2 8 0.0161026 1 0 0
393 2 42 2 0 1 2 8 0.00563539 1 0 0
394 2 43 2 0 1 2 8 0.00563896 1 0 0
443 2 42 3 0 1 2 8 0.0158657 1 0 0
444 2 43 3 0 1 2 8 0.0158657 1 0 0
395 2 44 2 0 1 2 8 0.00573522 1 0 0
445 2 44 3 0 1 2 8 0.0161009 1 0 0
396 2 45 2 0 1 2 8 0.00585422 1 0 0
397 2 46 2 0 1 2 8 0.00591156 1 0 0
446 2 45 3 0 1 2 8 0.0163936 1 0 0
447 2 46 3 0 1 2 8 0.0165198 1 0 0
398 2 47 2 0 1 2 8 0.00587895 1 0 0
399 2 48 2 0 1 2 8 0.00579473 1 0 0
448 2 47 3 0 1 2 8 0.0164214 1 0 0
449 2 48 3 0 1 2 8 0.0162074 1 0 0
400 2 49 2 0 1 2 8 0.00572537 1 0 0
450 2 49 3 0 1 2 8 0.0160266 1 0 0
451 2 0 4 0 1 2 8 0.000139912 1 0 0
452 2 1 4 0 1 2 8 0.000258819 1 0 0
453 2 2 4 0 1 2 8 0.000734752 1 0 0
454 2 3 4 0 1 2 8 0.00184558 1 0 0
455 2 4 4 0 1 2 7 0.00381495 1 0 0
456 2 5 4 0 1 2 6 0.00716095 1 0 0
457 2 6 4 0 1 2 5 0.010623 1 0 0
506 1 5.49203 4.86852 0 1.0006 2 0 0.0128771 1 0.00098333 0.00166264
507 1 6.49582 4.8652 0 1.02569 2 0 0.0162195 1 -0.00138794 -0.00267143
458 2 7 4 0 1 2 5 0.0135802 1 0 0
459 2 8 4 0 1 2 5 0.0163267 1 0 0
508 1 7.49734 4.86743 0 1.03193 2 0 0.0195457 1 -0.00492073 -0.0085903
460 2 9 4 0 1 2 5 0.0187806 1 0 0
510 1 8.49978 4.86539 0 1.01036 2 0 0.0227275 1 -0.00449718 -0.000834787
511 1 9.49816 4.86453 0 1.00136 2 0 0.0256849 1 0.00500087 0.00440253
461 2 10 4 0 1 2 5 0.0209303 1 0 0
462 2 11 4 0 1 2 5 0.0228624 1 0 0
512 1 10.4998 4.8654 0 1.01573 2 0 0.0284897 1 0.000895435 -0.00214002
513 1 11.5014 4.86449 0 1.01534 2 0 0.0311445 1 -0.00332056 0.00454504
463 2 12 4 0 1 2 5 0.0246274 1 0 0
464 2 13 4 0 1 2 5 0.0262644 1 0 0
514 1 12.5004 4.86533 0 1.01802 2 0 0.0336191 1 -0.00215289 -0.000406745
465 2 14 4 0 1 2 5 0.0277243 1 0 0
515 1 13.4993 4.86595 0 1.02031 2 0 0.0359219 1 0.00292644 -0.00175842
516 1 14.5014 4.8645 0 1.0096 2 0 0.0379964 1 -0.00224692 0.00309785
466 2 15 4 0 1 2 5 0.0288537 1 0 0
467 2 16 4 0 1 2 5 0.0297021 1 0 0
518 1 16.4989 4.86826 0 1.02515 2 0 0.0415109 1 0.00605349 -4.03457e-05
517 1 15.5021 4.86692 0 1.02614 2 0 0.0398268 1 -0.00723222 -0.001402
468 2 17 4 0 1 2 5 0.0305224 1 0 0
469 2 18 4 0 1 2 5 0.0314179 1 0 0
519 1 17.4987 4.86534 0 1.0239 2 0 0.0430756 1 -0.00078037 -0.00205237
470 2 19 4 0 1 2 5 0.0322264 1 0 0
520 1 18.5017 4.86769 0 1.00577 2 0 0.0445195 1 -0.0024791 -0.00216362
521 1 19.5011 4.86597 0 1.00453 2 0 0.0457476 1 -0.00432311 -0.0020134
471 2 20 4 0 1 2 5 0.0327521 1 0 0
472 2 21 4 0 1 2 5 0.0330159 1 0 0
523 1 21.5006 4.86398 0 1.02268 2 0 0.0476295 1 -0.00168311 0.00569972
522 1 20.4994 4.86405 0 1.0139 2 0 0.0467558 1 0.00276793 0.0039771
473 2 22 4 0 1 2 5 0.033151 1 0 0
474 2 23 4 0 1 2 5 0.0331302 1 0 0
524 1 22.5 4.86577 0 1.01383 2 0 0.0484003 1 -0.000581503 -0.00257308
475 2 24 4 0 1 2 5 0.0330664 1 0 0
525 1 23.5013 4.8659 0 1.03669 2 0 0.0490401 1 -0.00360637 0.00129752
526 1 24.4999 4.86771 0 1.04245 2 0 0.0496314 1 7.69319e-05 -0.00487753
476 2 25 4 0 1 2 5 0.0332704 1 0 0
477 2 26 4 0 1 2 5 0.0337989 1 0 0
528 1 26.5 4.86571 0 1.04147 2 0 0.0510285 1 0.00350174 -0.000355755
527 1 25.5042 4.86931 0 1.03798 2 0 0.0503209 1 -0.00953708 -0.001968
478 2 27 4 0 1 2 5 0.0345162 1 0 0
479 2 28 4 0 1 2 5 0.0350573 1 0 0
529 1 27.4979 4.86863 0 1.0019 2 0 0.0516879 1 0.00678552 -0.00442742
480 2 29 4 0 1 2 5 0.0353441 1 0 0
531 1 29.4989 4.86798 0 1.01679 2 0 0.0526925 1 -0.000201972 -0.000323736
530 1 28.4989 4.86706 0 1.02091 2 0 0.0522292 1 0 -5e-05
481 2 30 4 0 1 2 5 0.0356084 1 0 0
482 2 31 4 0 1 2 5 0.0359505 1 0 0
533 1 31.4982 4.87014 0 1.004 2 0 0.0534149 1 -0.00131316 -0.00418299
532 1 30.4988 4.86688 0 1.0182 2 0 0.0530346 1 3.61349e-05 -0.0013631
483 2 32 4 0 1 2 5 0.0362517 1 0 0
484 2 33 4 0 1 2 5 0.0363513 1 0 0
534 1 32.4987 4.8631 0 1.00171 2 0 0.0537064 1 -0.00360468 0.00646583
485 2 34 4 0 1 2 5 0.0362822 1 0 0
535 1 33.4969 4.86968 0 1.00275 2 0 0.05384 1 0.00240828 -0.00711798
536 1 34.4948 4.86753 0 1.0237 2 0 0.0539568 1 0.00485624 -0.00167546
486 2 35 4 0 1 2 5 0.0362936 1 0 0
487 2 36 4 0 1 2 5 0.0364279 1 0 0
538 1 36.4985 4.86643 0 1.01227 2 0 0.0543576 1 0.00423745 -0.00601209
537 1 35.4934 4.86723 0 1.0067 2 0 0.0541551 1 0.00800222 -0.00145985
488 2 37 4 0 1 2 5 0.0365361 1 0 0
489 2 38 4 0 1 2 5 0.0365175 1 0 0
539 1 37.4987 4.86626 0 1.00174 2 0 0.0544855 1 -0.00677083 0.000753347
490 2 39 4 0 1 2 5 0.0363604 1 0 0
541 1 39.4963 4.87091 0 1.00168 2 0 0.0544486 1 -0.00255424 -0.00445381
540 1 38.495 4.86684 0 1.01715 2 0 0.0545425 1 0.00902405 0.00308604
491 2 40 4 0 1 2 5 0.0360296 1 0 0
492 2 41 4 0 1 2 5 0.0355091 1 0 0
542 1 40.4987 4.86861 0 1.01016 2 0 0.0542657 1 -0.00515453 -0.00894454
543 1 41.5015 4.86059 0 1.03252 2 0 0.0540833 1 -0.00168287 0.0163026
493 2 42 4 0 1 2 5 0.0351273 1 0 0
494 2 43 4 0 1 2 5 0.0351188 1 0 0
544 1 42.5014 4.86231 0 1.0319 2 0 0.0540083 1 -0.00193276 0.00982193
495 2 44 4 0 1 2 5 0.035478 1 0 0
545 1 43.5037 4.86249 0 1.03659 2 0 0.0540488 1 -0.00560462 0.00686541
546 1 44.5038 4.8635 0 1.01001 2 0 0.054075 1 -0.00804283 0.00217301
496 2 45 4 0 1 2 5 0.0359276 1 0 0
497 2 46 4 0 1 2 5 0.0360803 1 0 0
548 1 46.4995 4.86424 0 1.00807 2 0 0.0539256 1 -0.000337943 0.00534299
547 1 45.5002 4.86482 0 1.00173 2 0 0.0541143 1 0.0071948 0.000903405
498 2 47 4 0 1 2 5 0.035882 1 0 0
499 2 48 4 0 1 2 5 0.0355422 1 0 0
549 1 47.4984 4.8686 0 1.02093 2 0 0.0536058 1 0.00212575 -0.000248514
500 2 49 4 0 1 2 5 0.0352615 1 0 0
550 1 48.5036 4.86801 0 1.02225 2 0 0.0536082 1 -0.00820415 7.98807e-05
8501 1 49.4995 4.86579 0 1.06187 2 0 0.0538677 1 0.00695653 -0.00209783
501 2 0 5 0 1 2 8 0.000233261 1 0 0
502 2 1 5 0 1 2 8 0.000439565 1 0 0
551 2 0 6 0 1 2 8 0.000342609 1 0 0
552 2 1 6 0 1 2 8 0.000654321 1 0 0
503 2 2 5 0 1 2 8 0.00126826 1 0 0
504 2 3 5 0 1 2 8 0.0032021 1 0 0
553 2 2 6 0 1 2 8 0.00190266 1 0 0
554 2 3 6 0 1 2 8 0.00479173 1 0 0
505 2 4 5 0 1 2 6 0.00658299 1 0 0
555 2 4 6 0 1 2 5 0.00956287 1 0 0
556 1 4.95863 5.71502 0 1.02426 2 0 0.0138172 1 0 -5e-05
557 1 5.97838 5.74137 0 1.00456 2 0 0.018234 1 -0.00147593 -0.00271276
558 1 6.98087 5.73479 0 1.00032 2 0 0.0220934 1 0.00296489 0.00537335
509 1 7.99403 5.72957 0 1.00999 2 0 0.0259638 1 0.00185592 0.00317432
560 1 8.99717 5.73114 0 1.01571 2 0 0.0296897 1 0.0010871 -0.000733625
561 1 10.0015 5.73066 0 1.04128 2 0 0.0332899 1 -0.00610767 -0.00547814
562 1 11.0004 5.73018 0 1.02468 2 0 0.0367506 1 -0.00231465 -0.00445498
563 1 11.9983 5.73267 0 1.00884 2 0 0.0400191 1 0.00550036 -0.00521371
565 1 12.9988 5.73068 0 1.01555 2 0 0.0431348 1 0.000564962 0.00382927
566 1 13.9999 5.73102 0 1.01485 2 0 0.0460609 1 -0.00128422 -8.33409e-05
567 1 14.9991 5.73089 0 1.00349 2 0 0.0487463 1 0.00101257 0.00184582
568 1 15.9985 5.73409 0 1.02492 2 0 0.0512583 1 -0.00314602 0.00133512
569 1 17.9945 5.73107 0 1.01386 2 0 0.0556894 1 0.0051661 0.00386563
618 1 16.996 5.73609 0 1.00786 2 0 0.0535905 1 0.00197603 -0.00033502
570 1 18.9985 5.73417 0 1.00562 2 0 0.0575675 1 0.000504188 -0.00921198
571 1 19.9973 5.73221 0 1.00943 2 0 0.0592623 1 0.00165579 -0.00837089
572 1 20.9992 5.72891 0 1.02492 2 0 0.0608315 1 8.82948e-05 0.00229974
573 1 21.9988 5.73528 0 1.00977 2 0 0.0622121 1 -0.00145675 -0.000205154
574 1 22.9978 5.7309 0 1.00488 2 0 0.0634511 1 -0.00322344 -0.000262114
575 1 23.9951 5.7364 0 1.01237 2 0 0.0645843 1 0.00314469 -0.00521334
576 1 24.9932 5.73439 0 1.01087 2 0 0.0655831 1 0.00230566 -0.00268679
577 1 25.997 5.73819 0 1.01133 2 0 0.0665457 1 0.00192548 -0.00590908
579 1 26.9982 5.73196 0 1.01129 2 0 0.0673214 1 -0.00185266 0.0055358
580 1 27.9982 5.73468 0 1.02117 2 0 0.0680676 1 -0.000119206 -0.00389141
581 1 28.9991 5.73388 0 1.01861 2 0 0.0687285 1 -0.0013504 -0.00186716
632 1 30.0011 5.73339 0 1.0167 2 0 0.0692273 1 -0.00554724 0.00124302
582 1 30.9987 5.73675 0 1.0143 2 0 0.0695993 1 0.00148387 -0.00934002
583 1 31.9972 5.73402 0 1.0088 2 0 0.069984 1 -0.000373625 0.00410039
584 1 32.9943 5.7302 0 1.00514 2 0 0.0703152 1 0.00302233 0.0073984
585 1 33.9994 5.73358 0 1.02197 2 0 0.0706331 1 0.00381885 -0.00445687
586 1 35.0015 5.73438 0 1.02669 2 0 0.0709509 1 -0.00478845 0.0021829
587 1 36.0016 5.72977 0 1.01702 2 0 0.0712235 1 -0.00383463 0.00661224
588 1 37.0036 5.74449 0 1.01798 2 0 0.0715596 1 -0.012939 -0.00232923
589 1 37.9963 5.73859 0 1.01656 2 0 0.0716516 1 0.00619696 -0.00136311
590 1 38.9927 5.73539 0 1.01208 2 0 0.0717348 1 0.00740923 -7.38151e-05
591 1 39.9967 5.73376 0 1.01334 2 0 0.0717566 1 -0.00216729 -0.00381936
592 1 40.9975 5.72938 0 1.02633 2 0 0.0718683 1 -0.000577676 -0.00107946
594 1 43.0017 5.72722 0 1.01497 2 0 0.0718135 1 -0.00210617 -0.00331379
593 1 42.0001 5.72834 0 1.02837 2 0 0.0718733 1 -0.00160364 -0.00571374
595 1 44.004 5.72602 0 1.01694 2 0 0.0716379 1 -0.00107135 0.00876212
596 1 45.0071 5.73297 0 1.01116 2 0 0.0713834 1 -0.0148405 0.000610694
597 1 46.001 5.7342 0 1.01212 2 0 0.0711051 1 0.005171 -8.15845e-05
598 1 46.9975 5.74084 0 1.00861 2 0 0.0706918 1 0.00700706 -3.30515e-06
599 1 47.9982 5.73458 0 1.02545 2 0 0.0703856 1 -0.0025859 -0.0045271
600 1 48.9997 5.73738 0 1.00476 2 0 0.0709522 1 -0.00157478 -0.0137632
10701 1 49.9405 45.8224 0 1.00281 0 0 0.49456 1 3.60271e-05 -8.48242e-05
601 2 0 7 0 1 2 8 0.000454674 1 0 0
602 2 1 7 0 1 2 8 0.000877756 1 0 0
651 2 0 8 0 1 2 8 0.000558076 1 0 0
652 2 1 8 0 1 2 8 0.00108831 1 0 0
603 2 2 7 0 1 2 8 0.00256742 1 0 0
604 2 3 7 0 1 2 8 0.00646906 1 0 0
653 2 2 8 0 1 2 8 0.00320446 1 0 0
654 2 3 8 0 1 2 8 0.00813543 1 0 0
605 2 4 7 0 1 2 5 0.0126718 1 0 0
655 2 4 8 0 1 2 5 0.0156619 1 0 0
656 1 4.91484 7.46146 0 1.01253 2 0 0.0190811 1 0 -5e-05
606 1 5.44252 6.59416 0 1.01839 2 0 0.0193197 1 0 -5e-05
607 1 6.4627 6.61357 0 1.01626 2 0 0.0239993 1 0.00185804 0.00337607
657 1 5.92601 7.4807 0 1.02523 2 0 0.0249486 1 0 -5e-05
608 1 7.48655 6.59613 0 1.01581 2 0 0.028568 1 0.00295347 -0.00700996
609 1 7.99295 7.45646 0 1.00447 2 0 0.0355913 1 -0.00386811 0.00351504
658 1 6.99226 7.46141 0 1.00499 2 0 0.0304449 1 -0.00608181 0.00148369
559 1 8.49185 6.5932 0 1.01669 2 0 0.0330239 1 0.00464056 0.000380891
610 1 9.49972 6.59429 0 1.00382 2 0 0.0373918 1 -0.00118971 -0.0100061
661 1 8.99815 7.45472 0 1.00906 2 0 0.0406684 1 0.00109702 0.000519486
612 1 9.99903 7.45601 0 1.00002 2 0 0.045614 1 0.00126597 0.0107092
611 1 10.4991 6.59404 0 1.00368 2 0 0.0416176 1 0.00314879 0.00201148
564 1 11.4971 6.59566 0 1.01095 2 0 0.045693 1 0.00343539 0.00461515
613 1 10.9987 7.46209 0 1.00877 2 0 0.0505003 1 -0.00385874 -0.00570875
614 1 12.4985 6.59745 0 1.01882 2 0 0.0496184 1 -0.000805183 -0.0111852
665 1 12.9963 7.45952 0 1.00809 2 0 0.0598539 1 0.00552759 0.00772688
664 1 11.998 7.45996 0 1.0022 2 0 0.0552577 1 -0.00530167 0.00392727
615 1 13.4991 6.59647 0 1.00601 2 0 0.0533823 1 -0.00153463 -0.00180798
616 1 14.4978 6.5977 0 1.00878 2 0 0.0569021 1 -0.00122784 -4.74433e-05
666 1 13.9974 7.46368 0 0.997531 2 0 0.0642178 1 -0.00331829 -0.00354317
667 1 14.9947 7.46504 0 1.00922 2 0 0.0683765 1 0.00591425 -0.00475659
617 1 15.4959 6.59976 0 1.01132 2 0 0.0602218 1 0.0016096 -0.00274685
668 1 15.9945 7.46478 0 1.01232 2 0 0.0723127 1 0.00223773 0.0018895
619 1 16.4956 6.60288 0 1.00791 2 0 0.0633461 1 0.00302456 -0.00645216
669 1 17.4972 6.60122 0 1.0115 2 0 0.0662255 1 -0.00167246 -0.00294478
719 1 16.9966 7.46751 0 1.0104 2 0 0.076002 1 0.00112717 0.00018024
720 1 17.9966 7.46546 0 1.00384 2 0 0.0794273 1 0.000914362 0.00135586
620 1 18.4977 6.59507 0 1.00047 2 0 0.0688598 1 -0.00399181 0.00721419
621 1 19.4992 6.59698 0 1.01086 2 0 0.0712728 1 -0.00945751 0.00509473
670 1 18.9982 7.46244 0 1.01205 2 0 0.0826075 1 -0.00272206 -5.04531e-05
671 1 19.9968 7.4626 0 1.01101 2 0 0.085548 1 -0.00016522 0.0025716
622 1 20.495 6.59441 0 1.02282 2 0 0.0735183 1 0.0102991 0.00764306
623 1 21.4937 6.604 0 1.01715 2 0 0.0755382 1 0.0023821 -0.00159167
672 1 20.9946 7.46949 0 1.01032 2 0 0.0882112 1 0.00447891 -0.00013073
673 1 21.996 7.46948 0 1.00705 2 0 0.0905522 1 -0.00724683 0.000515323
624 1 22.4932 6.60441 0 1.00933 2 0 0.077273 1 -0.00226574 -0.00936167
674 1 22.9945 7.46598 0 1.01197 2 0 0.0926265 1 0.00460046 0.00553123
625 1 23.492 6.59792 0 1.01358 2 0 0.0788666 1 0.00175799 0.00747313
626 1 24.4919 6.60353 0 1.01095 2 0 0.0802921 1 -0.00221006 -0.000641571
675 1 23.9936 7.46981 0 1.00974 2 0 0.0945138 1 0.00110127 0.000976362
676 1 24.9964 7.46648 0 1.01754 2 0 0.096166 1 -0.000574156 -0.000184043
578 1 26.4983 6.6013 0 1.0136 2 0 0.0826849 1 0.00793281 -0.00930819
628 1 25.9995 7.45974 0 1.00647 2 0 0.0975762 1 -0.0075124 0.0124419
627 1 25.4902 6.59719 0 1.0116 2 0 0.0815658 1 0.00515183 0.0115221
629 1 27.4977 6.59919 0 1.00585 2 0 0.0836673 1 -0.0050519 0.0017452
679 1 27.9925 7.47118 0 1.01276 2 0 0.0999796 1 0.0135634 -0.00130974
678 1 26.9993 7.46807 0 1.01987 2 0 0.0988668 1 -0.0116496 -0.00338757
630 1 28.4951 6.60116 0 1.00031 2 0 0.0845666 1 0.00359264 0.00199246
631 1 29.4937 6.60159 0 1.01679 2 0 0.0853231 1 0.00249243 -0.000487122
680 1 28.9921 7.47232 0 1.0041 2 0 0.100996 1 0.0011216 -0.000591111
681 1 29.9987 7.463 0 1.0067 2 0 0.101839 1 -0.013914 0.000899939
682 1 30.4996 6.60043 0 1.0233 2 0 0.0858704 1 -0.00729017 -0.00104574
633 1 31.4962 6.60091 0 1.00197 2 0 0.0863113 1 0.00608949 0.00488048
732 1 30.994 7.46903 0 1.02086 2 0 0.102523 1 0.00891916 -0.000592501
683 1 31.993 7.46953 0 1.00602 2 0 0.103113 1 0.00202563 -4.89949e-05
684 1 32.4945 6.60236 0 1.01173 2 0 0.0867576 1 -0.000247847 -0.00656266
734 1 32.9936 7.46456 0 1.01306 2 0 0.103692 1 0.00377282 0.00646777
634 1 33.4987 6.59315 0 1.00318 2 0 0.0872447 1 -0.0102462 0.0100144
635 1 34.496 6.60256 0 1.01335 2 0 0.0876884 1 0.00803884 -0.0107294
685 1 33.9939 7.46223 0 1.01182 2 0 0.104248 1 -0.00449699 0.00764943
686 1 34.9953 7.46694 0 1.01566 2 0 0.104778 1 0.00175036 0.00297991
636 1 35.5024 6.59785 0 1.01343 2 0 0.0881164 1 -0.00792202 0.00294539