ITEM: TIMESTEP
9000
ITEM: NUMBER OF ATOMS
15950
ITEM: BOX BOUNDS pp pp pp
0.0000000000000000e+00 1.0000000000000000e+02
-5.0000000000000000e+00 2.0000000000000000e+02
-5.0000000000000000e-01 5.0000000000000000e-01
ITEM: ATOMS id type x y z c_rho c_phase c_nbond c_temp f_rheo_chi_chi fx fy
1 2 0 -5 0 1 2 8 5.14657e-13 1 0 0
2 2 1 -5 0 1 2 8 9.47035e-13 1 0 0
51 2 0 -4 0 1 2 8 5.58633e-12 1 0 0
52 2 1 -4 0 1 2 8 1.08841e-11 1 0 0
3 2 2 -5 0 1 2 8 2.51525e-12 1 0 0
4 2 3 -5 0 1 2 8 5.86191e-12 1 0 0
53 2 2 -4 0 1 2 8 3.08947e-11 1 0 0
54 2 3 -4 0 1 2 8 7.55235e-11 1 0 0
5 2 4 -5 0 1 2 7 1.15173e-11 1 0 0
55 2 4 -4 0 1 2 8 1.52285e-10 1 0 0
6 2 5 -5 0 1 2 6 1.93852e-11 1 0 0
7 2 6 -5 0 1 2 5 2.78333e-11 1 0 0
56 2 5 -4 0 1 2 8 2.56602e-10 1 0 0
57 2 6 -4 0 1 2 8 3.69971e-10 1 0 0
8 2 7 -5 0 1 2 5 3.51891e-11 1 0 0
9 2 8 -5 0 1 2 5 4.06357e-11 1 0 0
58 2 7 -4 0 1 2 8 4.7089e-10 1 0 0
59 2 8 -4 0 1 2 8 5.45773e-10 1 0 0
10 2 9 -5 0 1 2 5 4.40361e-11 1 0 0
60 2 9 -4 0 1 2 8 5.92384e-10 1 0 0
11 2 10 -5 0 1 2 5 4.58395e-11 1 0 0
12 2 11 -5 0 1 2 5 4.67828e-11 1 0 0
61 2 10 -4 0 1 2 8 6.16757e-10 1 0 0
62 2 11 -4 0 1 2 8 6.28845e-10 1 0 0
13 2 12 -5 0 1 2 5 4.76964e-11 1 0 0
14 2 13 -5 0 1 2 5 4.91141e-11 1 0 0
63 2 12 -4 0 1 2 8 6.40619e-10 1 0 0
64 2 13 -4 0 1 2 8 6.60457e-10 1 0 0
15 2 14 -5 0 1 2 5 5.08077e-11 1 0 0
65 2 14 -4 0 1 2 8 6.84736e-10 1 0 0
16 2 15 -5 0 1 2 5 5.20944e-11 1 0 0
17 2 16 -5 0 1 2 5 5.2702e-11 1 0 0
66 2 15 -4 0 1 2 8 7.02498e-10 1 0 0
67 2 16 -4 0 1 2 8 7.09922e-10 1 0 0
18 2 17 -5 0 1 2 5 5.2969e-11 1 0 0
19 2 18 -5 0 1 2 5 5.32058e-11 1 0 0
68 2 17 -4 0 1 2 8 7.1305e-10 1 0 0
69 2 18 -4 0 1 2 8 7.16956e-10 1 0 0
20 2 19 -5 0 1 2 5 5.32135e-11 1 0 0
70 2 19 -4 0 1 2 8 7.1833e-10 1 0 0
21 2 20 -5 0 1 2 5 5.25305e-11 1 0 0
22 2 21 -5 0 1 2 5 5.10265e-11 1 0 0
71 2 20 -4 0 1 2 8 7.09697e-10 1 0 0
72 2 21 -4 0 1 2 8 6.88744e-10 1 0 0
23 2 22 -5 0 1 2 5 4.91229e-11 1 0 0
24 2 23 -5 0 1 2 5 4.74652e-11 1 0 0
73 2 22 -4 0 1 2 8 6.61646e-10 1 0 0
74 2 23 -4 0 1 2 8 6.37856e-10 1 0 0
25 2 24 -5 0 1 2 5 4.65268e-11 1 0 0
75 2 24 -4 0 1 2 8 6.24343e-10 1 0 0
26 2 25 -5 0 1 2 5 4.64813e-11 1 0 0
27 2 26 -5 0 1 2 5 4.72202e-11 1 0 0
76 2 25 -4 0 1 2 8 6.23964e-10 1 0 0
77 2 26 -4 0 1 2 8 6.35207e-10 1 0 0
28 2 27 -5 0 1 2 5 4.84502e-11 1 0 0
29 2 28 -5 0 1 2 5 4.9917e-11 1 0 0
78 2 27 -4 0 1 2 8 6.53163e-10 1 0 0
79 2 28 -4 0 1 2 8 6.73455e-10 1 0 0
30 2 29 -5 0 1 2 5 5.15545e-11 1 0 0
80 2 29 -4 0 1 2 8 6.95404e-10 1 0 0
31 2 30 -5 0 1 2 5 5.32955e-11 1 0 0
32 2 31 -5 0 1 2 5 5.4779e-11 1 0 0
81 2 30 -4 0 1 2 8 7.19046e-10 1 0 0
82 2 31 -4 0 1 2 8 7.39696e-10 1 0 0
33 2 32 -5 0 1 2 5 5.54821e-11 1 0 0
34 2 33 -5 0 1 2 5 5.52387e-11 1 0 0
83 2 32 -4 0 1 2 8 7.49455e-10 1 0 0
84 2 33 -4 0 1 2 8 7.45492e-10 1 0 0
35 2 34 -5 0 1 2 5 5.4489e-11 1 0 0
85 2 34 -4 0 1 2 8 7.34464e-10 1 0 0
36 2 35 -5 0 1 2 5 5.38415e-11 1 0 0
37 2 36 -5 0 1 2 5 5.34817e-11 1 0 0
86 2 35 -4 0 1 2 8 7.25696e-10 1 0 0
87 2 36 -4 0 1 2 8 7.21618e-10 1 0 0
38 2 37 -5 0 1 2 5 5.31731e-11 1 0 0
39 2 38 -5 0 1 2 5 5.26679e-11 1 0 0
88 2 37 -4 0 1 2 8 7.1814e-10 1 0 0
89 2 38 -4 0 1 2 8 7.11426e-10 1 0 0
40 2 39 -5 0 1 2 5 5.19212e-11 1 0 0
90 2 39 -4 0 1 2 8 7.00862e-10 1 0 0
41 2 40 -5 0 1 2 5 5.10455e-11 1 0 0
42 2 41 -5 0 1 2 5 5.02706e-11 1 0 0
91 2 40 -4 0 1 2 8 6.88038e-10 1 0 0
92 2 41 -4 0 1 2 8 6.76231e-10 1 0 0
43 2 42 -5 0 1 2 5 4.99527e-11 1 0 0
44 2 43 -5 0 1 2 5 5.04338e-11 1 0 0
93 2 42 -4 0 1 2 8 6.70815e-10 1 0 0
94 2 43 -4 0 1 2 8 6.77234e-10 1 0 0
45 2 44 -5 0 1 2 5 5.16765e-11 1 0 0
95 2 44 -4 0 1 2 8 6.95356e-10 1 0 0
46 2 45 -5 0 1 2 5 5.30274e-11 1 0 0
47 2 46 -5 0 1 2 5 5.3592e-11 1 0 0
96 2 45 -4 0 1 2 8 7.15435e-10 1 0 0
97 2 46 -4 0 1 2 8 7.23803e-10 1 0 0
48 2 47 -5 0 1 2 5 5.30022e-11 1 0 0
49 2 48 -5 0 1 2 5 5.17113e-11 1 0 0
98 2 47 -4 0 1 2 8 7.15007e-10 1 0 0
99 2 48 -4 0 1 2 8 6.96224e-10 1 0 0
50 2 49 -5 0 1 2 5 5.05316e-11 1 0 0
100 2 49 -4 0 1 2 8 6.79666e-10 1 0 0
101 2 0 -3 0 1 2 8 5.46864e-11 1 0 0
102 2 1 -3 0 1 2 8 1.13778e-10 1 0 0
151 2 0 -2 0 1 2 8 4.75083e-10 1 0 0
152 2 1 -2 0 1 2 8 1.0657e-09 1 0 0
103 2 2 -3 0 1 2 8 3.48067e-10 1 0 0
104 2 3 -3 0 1 2 8 8.99316e-10 1 0 0
153 2 2 -2 0 1 2 8 3.5483e-09 1 0 0
154 2 3 -2 0 1 2 8 9.77535e-09 1 0 0
105 2 4 -3 0 1 2 8 1.88581e-09 1 0 0
155 2 4 -2 0 1 2 8 2.14648e-08 1 0 0
106 2 5 -3 0 1 2 8 3.25505e-09 1 0 0
107 2 6 -3 0 1 2 8 4.75943e-09 1 0 0
156 2 5 -2 0 1 2 8 3.81361e-08 1 0 0
157 2 6 -2 0 1 2 8 5.66565e-08 1 0 0
108 2 7 -3 0 1 2 8 6.1049e-09 1 0 0
109 2 8 -3 0 1 2 8 7.104e-09 1 0 0
158 2 7 -2 0 1 2 8 7.32959e-08 1 0 0
159 2 8 -2 0 1 2 8 8.56814e-08 1 0 0
110 2 9 -3 0 1 2 8 7.72459e-09 1 0 0
160 2 9 -2 0 1 2 8 9.33772e-08 1 0 0
111 2 10 -3 0 1 2 8 8.04576e-09 1 0 0
112 2 11 -3 0 1 2 8 8.19583e-09 1 0 0
161 2 10 -2 0 1 2 8 9.73495e-08 1 0 0
162 2 11 -2 0 1 2 8 9.91002e-08 1 0 0
113 2 12 -3 0 1 2 8 8.34113e-09 1 0 0
114 2 13 -3 0 1 2 8 8.61173e-09 1 0 0
163 2 12 -2 0 1 2 8 1.00753e-07 1 0 0
164 2 13 -2 0 1 2 8 1.04202e-07 1 0 0
115 2 14 -3 0 1 2 8 8.95118e-09 1 0 0
165 2 14 -2 0 1 2 8 1.08624e-07 1 0 0
116 2 15 -3 0 1 2 8 9.18673e-09 1 0 0
117 2 16 -3 0 1 2 8 9.26819e-09 1 0 0
166 2 15 -2 0 1 2 8 1.1148e-07 1 0 0
167 2 16 -2 0 1 2 8 1.12197e-07 1 0 0
118 2 17 -3 0 1 2 8 9.30033e-09 1 0 0
119 2 18 -3 0 1 2 8 9.36267e-09 1 0 0
168 2 17 -2 0 1 2 8 1.12448e-07 1 0 0
169 2 18 -2 0 1 2 8 1.13373e-07 1 0 0
120 2 19 -3 0 1 2 8 9.4014e-09 1 0 0
170 2 19 -2 0 1 2 8 1.14155e-07 1 0 0
121 2 20 -3 0 1 2 8 9.29913e-09 1 0 0
122 2 21 -3 0 1 2 8 9.01699e-09 1 0 0
171 2 20 -2 0 1 2 8 1.1309e-07 1 0 0
172 2 21 -2 0 1 2 8 1.09589e-07 1 0 0
123 2 22 -3 0 1 2 8 8.6431e-09 1 0 0
124 2 23 -3 0 1 2 8 8.31068e-09 1 0 0
173 2 22 -2 0 1 2 8 1.04817e-07 1 0 0
174 2 23 -2 0 1 2 8 1.00491e-07 1 0 0
125 2 24 -3 0 1 2 8 8.11879e-09 1 0 0
175 2 24 -2 0 1 2 8 9.79092e-08 1 0 0
126 2 25 -3 0 1 2 8 8.11551e-09 1 0 0
127 2 26 -3 0 1 2 8 8.28256e-09 1 0 0
176 2 25 -2 0 1 2 8 9.78578e-08 1 0 0
177 2 26 -2 0 1 2 8 1.00178e-07 1 0 0
128 2 27 -3 0 1 2 8 8.53956e-09 1 0 0
129 2 28 -3 0 1 2 8 8.81205e-09 1 0 0
178 2 27 -2 0 1 2 8 1.03641e-07 1 0 0
179 2 28 -2 0 1 2 8 1.07044e-07 1 0 0
130 2 29 -3 0 1 2 8 9.09418e-09 1 0 0
180 2 29 -2 0 1 2 8 1.10352e-07 1 0 0
131 2 30 -3 0 1 2 8 9.40351e-09 1 0 0
132 2 31 -3 0 1 2 8 9.68319e-09 1 0 0
181 2 30 -2 0 1 2 8 1.14064e-07 1 0 0
182 2 31 -2 0 1 2 8 1.17584e-07 1 0 0
133 2 32 -3 0 1 2 8 9.81633e-09 1 0 0
134 2 33 -3 0 1 2 8 9.75474e-09 1 0 0
183 2 32 -2 0 1 2 8 1.19296e-07 1 0 0
184 2 33 -2 0 1 2 8 1.18426e-07 1 0 0
135 2 34 -3 0 1 2 8 9.59613e-09 1 0 0
185 2 34 -2 0 1 2 8 1.16299e-07 1 0 0
136 2 35 -3 0 1 2 8 9.48094e-09 1 0 0
137 2 36 -3 0 1 2 8 9.43961e-09 1 0 0
186 2 35 -2 0 1 2 8 1.14894e-07 1 0 0
187 2 36 -2 0 1 2 8 1.14561e-07 1 0 0
138 2 37 -3 0 1 2 8 9.40447e-09 1 0 0
139 2 38 -3 0 1 2 8 9.31867e-09 1 0 0
188 2 37 -2 0 1 2 8 1.14279e-07 1 0 0
189 2 38 -2 0 1 2 8 1.13276e-07 1 0 0
140 2 39 -3 0 1 2 8 9.17391e-09 1 0 0
190 2 39 -2 0 1 2 8 1.1144e-07 1 0 0
141 2 40 -3 0 1 2 8 8.99102e-09 1 0 0
142 2 41 -3 0 1 2 8 8.81506e-09 1 0 0
191 2 40 -2 0 1 2 8 1.09006e-07 1 0 0
192 2 41 -2 0 1 2 8 1.06547e-07 1 0 0
143 2 42 -3 0 1 2 8 8.72567e-09 1 0 0
144 2 43 -3 0 1 2 8 8.80767e-09 1 0 0
193 2 42 -2 0 1 2 8 1.05179e-07 1 0 0
194 2 43 -2 0 1 2 8 1.06136e-07 1 0 0
145 2 44 -3 0 1 2 8 9.06575e-09 1 0 0
195 2 44 -2 0 1 2 8 1.09571e-07 1 0 0
146 2 45 -3 0 1 2 8 9.35778e-09 1 0 0
147 2 46 -3 0 1 2 8 9.47895e-09 1 0 0
196 2 45 -2 0 1 2 8 1.13544e-07 1 0 0
197 2 46 -2 0 1 2 8 1.15184e-07 1 0 0
148 2 47 -3 0 1 2 8 9.35047e-09 1 0 0
149 2 48 -3 0 1 2 8 9.0835e-09 1 0 0
198 2 47 -2 0 1 2 8 1.13433e-07 1 0 0
199 2 48 -2 0 1 2 8 1.09894e-07 1 0 0
150 2 49 -3 0 1 2 8 8.8566e-09 1 0 0
200 2 49 -2 0 1 2 8 1.06991e-07 1 0 0
201 2 0 -1 0 1 2 8 3.58973e-09 1 0 0
202 2 1 -1 0 1 2 8 8.77279e-09 1 0 0
203 2 2 -1 0 1 2 8 3.21592e-08 1 0 0
204 2 3 -1 0 1 2 8 9.55152e-08 1 0 0
205 2 4 -1 0 1 2 8 2.21488e-07 1 0 0
206 2 5 -1 0 1 2 8 4.06974e-07 1 0 0
207 2 6 -1 0 1 2 8 6.1542e-07 1 0 0
208 2 7 -1 0 1 2 8 8.03711e-07 1 0 0
209 2 8 -1 0 1 2 8 9.44485e-07 1 0 0
210 2 9 -1 0 1 2 8 1.0322e-06 1 0 0
211 2 10 -1 0 1 2 8 1.07792e-06 1 0 0
212 2 11 -1 0 1 2 8 1.09727e-06 1 0 0
213 2 12 -1 0 1 2 8 1.11432e-06 1 0 0
214 2 13 -1 0 1 2 8 1.15498e-06 1 0 0
215 2 14 -1 0 1 2 8 1.20815e-06 1 0 0
216 2 15 -1 0 1 2 8 1.23914e-06 1 0 0
217 2 16 -1 0 1 2 8 1.24283e-06 1 0 0
218 2 17 -1 0 1 2 8 1.24372e-06 1 0 0
219 2 18 -1 0 1 2 8 1.25632e-06 1 0 0
220 2 19 -1 0 1 2 8 1.26931e-06 1 0 0
221 2 20 -1 0 1 2 8 1.26014e-06 1 0 0
222 2 21 -1 0 1 2 8 1.22072e-06 1 0 0
223 2 22 -1 0 1 2 8 1.16532e-06 1 0 0
224 2 23 -1 0 1 2 8 1.11363e-06 1 0 0
225 2 24 -1 0 1 2 8 1.0809e-06 1 0 0
226 2 25 -1 0 1 2 8 1.07963e-06 1 0 0
227 2 26 -1 0 1 2 8 1.10951e-06 1 0 0
228 2 27 -1 0 1 2 8 1.15296e-06 1 0 0
229 2 28 -1 0 1 2 8 1.19201e-06 1 0 0
230 2 29 -1 0 1 2 8 1.22658e-06 1 0 0
231 2 30 -1 0 1 2 8 1.26665e-06 1 0 0
232 2 31 -1 0 1 2 8 1.30723e-06 1 0 0
233 2 32 -1 0 1 2 8 1.32779e-06 1 0 0
234 2 33 -1 0 1 2 8 1.31676e-06 1 0 0
235 2 34 -1 0 1 2 8 1.29043e-06 1 0 0
236 2 35 -1 0 1 2 8 1.27471e-06 1 0 0
237 2 36 -1 0 1 2 8 1.27317e-06 1 0 0
238 2 37 -1 0 1 2 8 1.27186e-06 1 0 0
239 2 38 -1 0 1 2 8 1.2614e-06 1 0 0
240 2 39 -1 0 1 2 8 1.24024e-06 1 0 0
241 2 40 -1 0 1 2 8 1.21042e-06 1 0 0
242 2 41 -1 0 1 2 8 1.17853e-06 1 0 0
243 2 42 -1 0 1 2 8 1.15933e-06 1 0 0
244 2 43 -1 0 1 2 8 1.16934e-06 1 0 0
245 2 44 -1 0 1 2 8 1.21162e-06 1 0 0
246 2 45 -1 0 1 2 8 1.26159e-06 1 0 0
247 2 46 -1 0 1 2 8 1.28207e-06 1 0 0
248 2 47 -1 0 1 2 8 1.26008e-06 1 0 0
249 2 48 -1 0 1 2 8 1.21697e-06 1 0 0
250 2 49 -1 0 1 2 8 1.1827e-06 1 0 0
251 2 0 0 0 1 2 8 2.30126e-08 1 0 0
252 2 1 0 0 1 2 8 6.18977e-08 1 0 0
301 2 0 1 0 1 2 8 1.21521e-07 1 0 0
302 2 1 1 0 1 2 8 3.62315e-07 1 0 0
253 2 2 0 0 1 2 8 2.53051e-07 1 0 0
254 2 3 0 0 1 2 8 8.2173e-07 1 0 0
303 2 2 1 0 1 2 8 1.67411e-06 1 0 0
304 2 3 1 0 1 2 8 6.04579e-06 1 0 0
255 2 4 0 0 1 2 8 2.03558e-06 1 0 0
305 2 4 1 0 1 2 8 1.6245e-05 1 0 0
256 2 5 0 0 1 2 8 3.89268e-06 1 0 0
257 2 6 0 0 1 2 8 6.00281e-06 1 0 0
306 2 5 1 0 1 2 8 3.26442e-05 1 0 0
307 2 6 1 0 1 2 8 5.14664e-05 1 0 0
258 2 7 0 0 1 2 8 7.91922e-06 1 0 0
259 2 8 0 0 1 2 8 9.36254e-06 1 0 0
308 2 7 1 0 1 2 8 6.86434e-05 1 0 0
309 2 8 1 0 1 2 8 8.17201e-05 1 0 0
260 2 9 0 0 1 2 8 1.0267e-05 1 0 0
310 2 9 1 0 1 2 8 8.99832e-05 1 0 0
261 2 10 0 0 1 2 8 1.07503e-05 1 0 0
262 2 11 0 0 1 2 8 1.09532e-05 1 0 0
311 2 10 1 0 1 2 8 9.46158e-05 1 0 0
312 2 11 1 0 1 2 8 9.67102e-05 1 0 0
263 2 12 0 0 1 2 8 1.11141e-05 1 0 0
264 2 13 0 0 1 2 8 1.15514e-05 1 0 0
313 2 12 1 0 1 2 8 9.80543e-05 1 0 0
314 2 13 1 0 1 2 8 0.000102286 1 0 0
265 2 14 0 0 1 2 8 1.2129e-05 1 0 0
315 2 14 1 0 1 2 8 0.000107906 1 0 0
266 2 15 0 0 1 2 8 1.24219e-05 1 0 0
267 2 16 0 0 1 2 8 1.24014e-05 1 0 0
316 2 15 1 0 1 2 8 0.000110207 1 0 0
317 2 16 1 0 1 2 8 0.000109348 1 0 0
268 2 17 0 0 1 2 8 1.23869e-05 1 0 0
269 2 18 0 0 1 2 8 1.25428e-05 1 0 0
318 2 17 1 0 1 2 8 0.000108998 1 0 0
319 2 18 1 0 1 2 8 0.000110704 1 0 0
270 2 19 0 0 1 2 8 1.27259e-05 1 0 0
320 2 19 1 0 1 2 8 0.000112907 1 0 0
271 2 20 0 0 1 2 8 1.26689e-05 1 0 0
272 2 21 0 0 1 2 8 1.22752e-05 1 0 0
321 2 20 1 0 1 2 8 0.000112801 1 0 0
322 2 21 1 0 1 2 8 0.000109395 1 0 0
273 2 22 0 0 1 2 8 1.17032e-05 1 0 0
274 2 23 0 0 1 2 8 1.11473e-05 1 0 0
323 2 22 1 0 1 2 8 0.000104306 1 0 0
324 2 23 1 0 1 2 8 9.90792e-05 1 0 0
275 2 24 0 0 1 2 8 1.07642e-05 1 0 0
325 2 24 1 0 1 2 8 9.49599e-05 1 0 0
276 2 25 0 0 1 2 8 1.07353e-05 1 0 0
277 2 26 0 0 1 2 8 1.10841e-05 1 0 0
326 2 25 1 0 1 2 8 9.44605e-05 1 0 0
327 2 26 1 0 1 2 8 9.81409e-05 1 0 0
278 2 27 0 0 1 2 8 1.15841e-05 1 0 0
279 2 28 0 0 1 2 8 1.19892e-05 1 0 0
328 2 27 1 0 1 2 8 0.000103302 1 0 0
329 2 28 1 0 1 2 8 0.000107027 1 0 0
280 2 29 0 0 1 2 8 1.23003e-05 1 0 0
330 2 29 1 0 1 2 8 0.00010929 1 0 0
281 2 30 0 0 1 2 8 1.26784e-05 1 0 0
282 2 31 0 0 1 2 8 1.30997e-05 1 0 0
331 2 30 1 0 1 2 8 0.000112292 1 0 0
332 2 31 1 0 1 2 8 0.000116125 1 0 0
283 2 32 0 0 1 2 8 1.33269e-05 1 0 0
284 2 33 0 0 1 2 8 1.32035e-05 1 0 0
333 2 32 1 0 1 2 8 0.000118388 1 0 0
334 2 33 1 0 1 2 8 0.000117198 1 0 0
285 2 34 0 0 1 2 8 1.29087e-05 1 0 0
335 2 34 1 0 1 2 8 0.000114257 1 0 0
286 2 35 0 0 1 2 8 1.27492e-05 1 0 0
287 2 36 0 0 1 2 8 1.27573e-05 1 0 0
336 2 35 1 0 1 2 8 0.000112819 1 0 0
337 2 36 1 0 1 2 8 0.00011312 1 0 0
288 2 37 0 0 1 2 8 1.2765e-05 1 0 0
289 2 38 0 0 1 2 8 1.26711e-05 1 0 0
338 2 37 1 0 1 2 8 0.000113388 1 0 0
339 2 38 1 0 1 2 8 0.000112717 1 0 0
290 2 39 0 0 1 2 8 1.24539e-05 1 0 0
340 2 39 1 0 1 2 8 0.000110792 1 0 0
291 2 40 0 0 1 2 8 1.21226e-05 1 0 0
292 2 41 0 0 1 2 8 1.17445e-05 1 0 0
341 2 40 1 0 1 2 8 0.000107539 1 0 0
342 2 41 1 0 1 2 8 0.000103499 1 0 0
293 2 42 0 0 1 2 8 1.15011e-05 1 0 0
294 2 43 0 0 1 2 8 1.15927e-05 1 0 0
343 2 42 1 0 1 2 8 0.000100749 1 0 0
344 2 43 1 0 1 2 8 0.000101443 1 0 0
295 2 44 0 0 1 2 8 1.20662e-05 1 0 0
345 2 44 1 0 1 2 8 0.000106183 1 0 0
296 2 45 0 0 1 2 8 1.26377e-05 1 0 0
297 2 46 0 0 1 2 8 1.28702e-05 1 0 0
346 2 45 1 0 1 2 8 0.00011201 1 0 0
347 2 46 1 0 1 2 8 0.00011436 1 0 0
298 2 47 0 0 1 2 8 1.26216e-05 1 0 0
299 2 48 0 0 1 2 8 1.21479e-05 1 0 0
348 2 47 1 0 1 2 8 0.00011188 1 0 0
349 2 48 1 0 1 2 8 0.000107317 1 0 0
300 2 49 0 0 1 2 8 1.17793e-05 1 0 0
350 2 49 1 0 1 2 8 0.000103778 1 0 0
351 2 0 2 0 1 2 8 5.11427e-07 1 0 0
352 2 1 2 0 1 2 8 1.69183e-06 1 0 0
401 2 0 3 0 1 2 8 1.66794e-06 1 0 0
402 2 1 3 0 1 2 8 6.05046e-06 1 0 0
353 2 2 2 0 1 2 8 8.91043e-06 1 0 0
354 2 3 2 0 1 2 8 3.6417e-05 1 0 0
403 2 2 3 0 1 2 8 3.60154e-05 1 0 0
404 2 3 3 0 1 2 8 0.000169485 1 0 0
355 2 4 2 0 1 2 8 0.000108536 1 0 0
405 2 4 3 0 1 2 8 0.000567135 1 0 0
356 2 5 2 0 1 2 8 0.000232456 1 0 0
357 2 6 2 0 1 2 8 0.000375249 1 0 0
406 2 5 3 0 1 2 8 0.00133805 1 0 0
407 2 6 3 0 1 2 8 0.00223266 1 0 0
358 2 7 2 0 1 2 8 0.000505378 1 0 0
359 2 8 2 0 1 2 8 0.000606297 1 0 0
408 2 7 3 0 1 2 8 0.00302783 1 0 0
409 2 8 3 0 1 2 8 0.00366439 1 0 0
360 2 9 2 0 1 2 8 0.000670915 1 0 0
410 2 9 3 0 1 2 8 0.00408628 1 0 0
361 2 10 2 0 1 2 8 0.000709674 1 0 0
362 2 11 2 0 1 2 8 0.000729461 1 0 0
411 2 10 3 0 1 2 8 0.00436502 1 0 0
412 2 11 3 0 1 2 8 0.00455351 1 0 0
363 2 12 2 0 1 2 8 0.000740726 1 0 0
364 2 13 2 0 1 2 8 0.000776053 1 0 0
413 2 12 3 0 1 2 8 0.00463557 1 0 0
414 2 13 3 0 1 2 8 0.00488368 1 0 0
365 2 14 2 0 1 2 8 0.000821844 1 0 0
415 2 14 3 0 1 2 8 0.00519997 1 0 0
366 2 15 2 0 1 2 8 0.000836246 1 0 0
367 2 16 2 0 1 2 8 0.00082356 1 0 0
416 2 15 3 0 1 2 8 0.0052636 1 0 0
417 2 16 3 0 1 2 8 0.00514384 1 0 0
368 2 17 2 0 1 2 8 0.000818679 1 0 0
369 2 18 2 0 1 2 8 0.000835068 1 0 0
418 2 17 3 0 1 2 8 0.00510673 1 0 0
419 2 18 3 0 1 2 8 0.00523288 1 0 0
370 2 19 2 0 1 2 8 0.000856925 1 0 0
420 2 19 3 0 1 2 8 0.00540414 1 0 0
371 2 20 2 0 1 2 8 0.000859646 1 0 0
372 2 21 2 0 1 2 8 0.00083546 1 0 0
421 2 20 3 0 1 2 8 0.00544138 1 0 0
422 2 21 3 0 1 2 8 0.00530472 1 0 0
373 2 22 2 0 1 2 8 0.000798702 1 0 0
374 2 23 2 0 1 2 8 0.000757845 1 0 0
423 2 22 3 0 1 2 8 0.00510893 1 0 0
424 2 23 3 0 1 2 8 0.00486964 1 0 0
375 2 24 2 0 1 2 8 0.00072032 1 0 0
425 2 24 3 0 1 2 8 0.00457499 1 0 0
376 2 25 2 0 1 2 8 0.000713635 1 0 0
377 2 26 2 0 1 2 8 0.000746185 1 0 0
426 2 25 3 0 1 2 8 0.0045208 1 0 0
427 2 26 3 0 1 2 8 0.00476958 1 0 0
378 2 27 2 0 1 2 8 0.000792205 1 0 0
379 2 28 2 0 1 2 8 0.000821199 1 0 0
428 2 27 3 0 1 2 8 0.005097 1 0 0
429 2 28 3 0 1 2 8 0.0052816 1 0 0
380 2 29 2 0 1 2 8 0.000832716 1 0 0
430 2 29 3 0 1 2 8 0.00529917 1 0 0
381 2 30 2 0 1 2 8 0.000850778 1 0 0
382 2 31 2 0 1 2 8 0.000880254 1 0 0
431 2 30 3 0 1 2 8 0.00536975 1 0 0
432 2 31 3 0 1 2 8 0.00554426 1 0 0
383 2 32 2 0 1 2 8 0.000899549 1 0 0
384 2 33 2 0 1 2 8 0.000890031 1 0 0
433 2 32 3 0 1 2 8 0.00567665 1 0 0
434 2 33 3 0 1 2 8 0.00561803 1 0 0
385 2 34 2 0 1 2 8 0.000865372 1 0 0
435 2 34 3 0 1 2 8 0.00545041 1 0 0
386 2 35 2 0 1 2 8 0.000854269 1 0 0
387 2 36 2 0 1 2 8 0.000857979 1 0 0
436 2 35 3 0 1 2 8 0.00538114 1 0 0
437 2 36 3 0 1 2 8 0.00541378 1 0 0
388 2 37 2 0 1 2 8 0.000861839 1 0 0
389 2 38 2 0 1 2 8 0.000858467 1 0 0
438 2 37 3 0 1 2 8 0.00544954 1 0 0
439 2 38 3 0 1 2 8 0.00544644 1 0 0
390 2 39 2 0 1 2 8 0.000844401 1 0 0
440 2 39 3 0 1 2 8 0.00536682 1 0 0
391 2 40 2 0 1 2 8 0.000817041 1 0 0
392 2 41 2 0 1 2 8 0.000779539 1 0 0
441 2 40 3 0 1 2 8 0.00518731 1 0 0
442 2 41 3 0 1 2 8 0.00489531 1 0 0
393 2 42 2 0 1 2 8 0.000752895 1 0 0
394 2 43 2 0 1 2 8 0.000756853 1 0 0
443 2 42 3 0 1 2 8 0.0046793 1 0 0
444 2 43 3 0 1 2 8 0.00468552 1 0 0
395 2 44 2 0 1 2 8 0.000797519 1 0 0
445 2 44 3 0 1 2 8 0.00496755 1 0 0
396 2 45 2 0 1 2 8 0.000848362 1 0 0
397 2 46 2 0 1 2 8 0.000868602 1 0 0
446 2 45 3 0 1 2 8 0.00532275 1 0 0
447 2 46 3 0 1 2 8 0.00546323 1 0 0
398 2 47 2 0 1 2 8 0.000848108 1 0 0
399 2 48 2 0 1 2 8 0.000811338 1 0 0
448 2 47 3 0 1 2 8 0.00532995 1 0 0
449 2 48 3 0 1 2 8 0.00510676 1 0 0
400 2 49 2 0 1 2 8 0.000782133 1 0 0
450 2 49 3 0 1 2 8 0.00491325 1 0 0
451 2 0 4 0 1 2 8 4.15445e-06 1 0 0
452 2 1 4 0 1 2 8 1.61902e-05 1 0 0
453 2 2 4 0 1 2 8 0.000106345 1 0 0
454 2 3 4 0 1 2 8 0.000554287 1 0 0
455 2 4 4 0 1 2 7 0.00208986 1 0 0
456 2 5 4 0 1 2 6 0.00565997 1 0 0
457 2 6 4 0 1 2 5 0.00953895 1 0 0
506 1 5.48705 4.87542 0 1.0006 2 0 0.017001 1 -0.00595697 -0.00250881
507 1 6.48468 4.87661 0 1.02569 2 0 0.0232027 1 -0.00397927 -0.000200539
458 2 7 4 0 1 2 5 0.0127885 1 0 0
459 2 8 4 0 1 2 5 0.0156278 1 0 0
508 1 7.48033 4.89465 0 1.03193 2 0 0.0294846 1 0.00861339 0.000106064
460 2 9 4 0 1 2 5 0.0176021 1 0 0
510 1 8.49188 4.86627 0 1.01036 2 0 0.0350186 1 0.00378215 0.00661091
511 1 9.49243 4.86731 0 1.00136 2 0 0.040284 1 0.000532646 0.000851118
461 2 10 4 0 1 2 5 0.019044 1 0 0
462 2 11 4 0 1 2 5 0.0201433 1 0 0
512 1 10.4933 4.86169 0 1.01573 2 0 0.044903 1 0.0036275 0.0076422
513 1 11.4947 4.86266 0 1.01534 2 0 0.0490341 1 -0.00262015 0.00121486
463 2 12 4 0 1 2 5 0.0209126 1 0 0
464 2 13 4 0 1 2 5 0.0221109 1 0 0
514 1 12.4933 4.86269 0 1.01802 2 0 0.0525458 1 0.0135481 -0.00316206
465 2 14 4 0 1 2 5 0.0233728 1 0 0
515 1 13.4969 4.862 0 1.02031 2 0 0.0554686 1 -0.000519365 0.00336224
516 1 14.4964 4.8639 0 1.0096 2 0 0.0575471 1 0.00543966 -0.00655253
466 2 15 4 0 1 2 5 0.0236703 1 0 0
467 2 16 4 0 1 2 5 0.0230418 1 0 0
518 1 16.501 4.86391 0 1.02515 2 0 0.0589746 1 -0.0078896 -8.71719e-05
517 1 15.4984 4.86329 0 1.02614 2 0 0.0585872 1 0.000457634 0.00382113
468 2 17 4 0 1 2 5 0.0226807 1 0 0
469 2 18 4 0 1 2 5 0.0234783 1 0 0
519 1 17.4989 4.86407 0 1.0239 2 0 0.0590808 1 0.00262601 0.00588622
470 2 19 4 0 1 2 5 0.0243073 1 0 0
520 1 18.4975 4.86309 0 1.00577 2 0 0.0588715 1 0.00525636 0.00880561
521 1 19.5006 4.86305 0 1.00453 2 0 0.0582049 1 -0.00375533 -0.000251209
471 2 20 4 0 1 2 5 0.0244837 1 0 0
472 2 21 4 0 1 2 5 0.0240046 1 0 0
523 1 21.4977 4.86776 0 1.02268 2 0 0.0580582 1 0.00607348 -0.00532906
522 1 20.5022 4.86922 0 1.0139 2 0 0.0574354 1 -0.00241 -0.0126606
473 2 22 4 0 1 2 5 0.0234735 1 0 0
474 2 23 4 0 1 2 5 0.0226216 1 0 0
524 1 22.4994 4.8664 0 1.01383 2 0 0.0578612 1 -0.000605094 -0.00298323
475 2 24 4 0 1 2 5 0.0213773 1 0 0
525 1 23.4982 4.86449 0 1.03669 2 0 0.0568363 1 0.0013539 -0.000197972
526 1 24.4984 4.8612 0 1.04245 2 0 0.0572058 1 -0.00352493 0.0145375
476 2 25 4 0 1 2 5 0.0210951 1 0 0
477 2 26 4 0 1 2 5 0.0221223 1 0 0
528 1 26.4986 4.86432 0 1.04147 2 0 0.0595346 1 0.00144901 0.00508086
527 1 25.4958 4.86563 0 1.03798 2 0 0.0582998 1 0.00760404 0.0042401
478 2 27 4 0 1 2 5 0.023778 1 0 0
479 2 28 4 0 1 2 5 0.0244844 1 0 0
529 1 27.501 4.86547 0 1.0019 2 0 0.0604158 1 0.000787378 -0.00147994
480 2 29 4 0 1 2 5 0.0242809 1 0 0
531 1 29.5085 4.86937 0 1.01679 2 0 0.0602012 1 -0.0105473 -0.00425976
530 1 28.5092 4.86696 0 1.02091 2 0 0.0606035 1 -0.00481065 0.00591369
481 2 30 4 0 1 2 5 0.0242089 1 0 0
482 2 31 4 0 1 2 5 0.0249181 1 0 0
533 1 31.5022 4.86383 0 1.004 2 0 0.0594354 1 0.00254041 0.0044238
532 1 30.504 4.86377 0 1.0182 2 0 0.0596177 1 0.00153529 0.00667502
483 2 32 4 0 1 2 5 0.0254685 1 0 0
484 2 33 4 0 1 2 5 0.0252378 1 0 0
534 1 32.5041 4.86743 0 1.00171 2 0 0.0596139 1 -0.00212081 -0.0160524
485 2 34 4 0 1 2 5 0.0245693 1 0 0
535 1 33.5056 4.86621 0 1.00275 2 0 0.0598393 1 0.00078518 -0.00130072
536 1 34.513 4.86924 0 1.0237 2 0 0.0600178 1 -0.0078214 0.00331036
486 2 35 4 0 1 2 5 0.0243168 1 0 0
487 2 36 4 0 1 2 5 0.0244391 1 0 0
538 1 36.5029 4.87795 0 1.01227 2 0 0.0619067 1 0.0104416 -0.00458105
537 1 35.5101 4.8761 0 1.0067 2 0 0.0609608 1 -0.00834843 -3.56703e-05
488 2 37 4 0 1 2 5 0.0246821 1 0 0
489 2 38 4 0 1 2 5 0.0247116 1 0 0
539 1 37.5022 4.8656 0 1.00174 2 0 0.0623549 1 -0.0271893 0.00228877
490 2 39 4 0 1 2 5 0.0244205 1 0 0
541 1 39.5011 4.86593 0 1.00168 2 0 0.0618809 1 0.00245333 -0.0043891
540 1 38.4889 4.87408 0 1.01715 2 0 0.0621877 1 0.0378638 -0.019366
491 2 40 4 0 1 2 5 0.0236137 1 0 0
492 2 41 4 0 1 2 5 0.0220404 1 0 0
542 1 40.5075 4.8675 0 1.01016 2 0 0.0617013 1 0.00208115 -0.00368542
543 1 41.518 4.86647 0 1.03252 2 0 0.0608622 1 -0.0162692 0.00590258
493 2 42 4 0 1 2 5 0.0208504 1 0 0
494 2 43 4 0 1 2 5 0.0207566 1 0 0
544 1 42.5114 4.87283 0 1.0319 2 0 0.0595954 1 0.00995214 -2.49783e-05
495 2 44 4 0 1 2 5 0.02204 1 0 0
545 1 43.5097 4.89165 0 1.03659 2 0 0.0598202 1 -0.00585104 -0.000274309
546 1 44.5048 4.92309 0 1.01001 2 0 0.0595374 1 0.0120118 -0.00502696
496 2 45 4 0 1 2 5 0.0236978 1 0 0
497 2 46 4 0 1 2 5 0.0242881 1 0 0
547 1 45.5105 4.92159 0 1.00173 2 0 0.0595413 1 -0.0116192 0.000490191
548 1 46.5035 4.87542 0 1.00807 2 0 0.0570405 1 0.005709 -0.000618601
498 2 47 4 0 1 2 5 0.0237861 1 0 0
499 2 48 4 0 1 2 5 0.0229753 1 0 0
549 1 47.5006 4.88021 0 1.02093 2 0 0.0562181 1 -0.00834944 2.85965e-06
500 2 49 4 0 1 2 5 0.0221704 1 0 0
550 1 48.4936 4.87851 0 1.02225 2 0 0.0564009 1 0.011701 -0.00445117
8501 1 49.5027 4.86294 0 1.06187 2 0 0.0570218 1 -0.00763274 0.000364667
501 2 0 5 0 1 2 8 7.97713e-06 1 0 0
502 2 1 5 0 1 2 8 3.26708e-05 1 0 0
551 2 0 6 0 1 2 8 1.2321e-05 1 0 0
552 2 1 6 0 1 2 8 5.20174e-05 1 0 0
503 2 2 5 0 1 2 8 0.000227678 1 0 0
504 2 3 5 0 1 2 8 0.00127826 1 0 0
553 2 2 6 0 1 2 8 0.000370858 1 0 0
554 2 3 6 0 1 2 8 0.00212975 1 0 0
505 2 4 5 0 1 2 6 0.00541137 1 0 0
555 2 4 6 0 1 2 5 0.00903133 1 0 0
556 1 4.96112 5.75128 0 1.02426 2 0 0.0198244 1 0.0134679 -0.0035973
557 1 5.961 5.75439 0 1.00456 2 0 0.0294652 1 0.00155999 0.00240403
558 1 6.97445 5.76904 0 1.00032 2 0 0.038712 1 0 -5e-05
509 1 7.97911 5.77484 0 1.00999 2 0 0.0478154 1 -0.00463123 9.44497e-05
560 1 8.97634 5.74374 0 1.01571 2 0 0.056328 1 0.00307996 -0.00291204
561 1 9.98136 5.73726 0 1.04128 2 0 0.0646428 1 0.00205724 0.00361039
562 1 10.9878 5.72754 0 1.02468 2 0 0.0718675 1 0.00295713 0.00512859
563 1 11.9953 5.72256 0 1.00884 2 0 0.0781353 1 -0.00317856 0.0164241
565 1 12.9952 5.72561 0 1.01555 2 0 0.0832571 1 -0.00350629 -0.00221115
566 1 13.9954 5.72455 0 1.01485 2 0 0.0871462 1 -0.0015529 0.0120019
567 1 14.9953 5.72668 0 1.00349 2 0 0.0896505 1 0.00485902 -0.00322594
568 1 15.9979 5.72752 0 1.02492 2 0 0.0911239 1 -0.00663199 -0.000247443
569 1 17.9966 5.73767 0 1.01386 2 0 0.0908114 1 0.00202019 -0.00351538
618 1 16.9952 5.7296 0 1.00786 2 0 0.0913953 1 0.00985632 0.00329641
570 1 19.0005 5.72777 0 1.00562 2 0 0.0899598 1 -0.00589369 -0.000639894
571 1 19.9988 5.72529 0 1.00943 2 0 0.0885674 1 0.00214968 0.0118682
572 1 20.9974 5.73758 0 1.02492 2 0 0.0897007 1 0.00123067 -0.00225434
573 1 21.9983 5.72987 0 1.00977 2 0 0.0912375 1 0.00269653 0.00579376
574 1 23.0014 5.73347 0 1.00488 2 0 0.0904508 0.999999 -0.0123792 -0.00120543
575 1 23.9949 5.72927 0 1.01237 2 0 0.0902702 1 0.0134287 0.000539788
577 1 25.9978 5.73169 0 1.01133 2 0 0.09272 1 0.00542437 -0.00401398
576 1 24.9994 5.73746 0 1.01087 2 0 0.0913206 1 0.00284875 -0.0165865
579 1 27.0102 5.73469 0 1.01129 2 0 0.0937994 1 0.00128788 -0.00610736
580 1 28.0131 5.73482 0 1.02117 2 0 0.0941516 1 -0.00148148 -0.00473268
581 1 29.011 5.73568 0 1.01861 2 0 0.093515 1 -0.00417413 0.00171769
632 1 30.0073 5.73289 0 1.0167 2 0 0.0924991 1 0.0124497 -0.0016882
582 1 31.0067 5.73101 0 1.0143 2 0 0.0903255 1 -0.00244659 0.000802134
583 1 32.0051 5.72892 0 1.0088 2 0 0.0897965 1 -0.00140285 0.00313206
584 1 33.0037 5.72723 0 1.00514 2 0 0.0905149 1 0.00468638 0.00247424
585 1 34.0173 5.73575 0 1.02197 2 0 0.091819 1 0.00818005 -0.0135915
586 1 35.0193 5.76413 0 1.02669 2 0 0.0952681 1 -0.0205888 0.000271542
587 1 36.009 5.74868 0 1.01702 2 0 0.0951319 1 0.0201237 -0.000366331
588 1 37.0087 5.73748 0 1.01798 2 0 0.096669 1 -0.0062967 0.00452931
589 1 38.004 5.73617 0 1.01656 2 0 0.0969194 1 0.00211791 0.0127798
590 1 39.009 5.7329 0 1.01208 2 0 0.0958498 1 -0.00309555 0.00540385
591 1 40.0145 5.73251 0 1.01334 2 0 0.0963645 1 -0.00586649 0.00538066
592 1 41.0232 5.72988 0 1.02633 2 0 0.0972096 1 -0.0161821 0.00614161
594 1 43.0047 5.78758 0 1.01497 2 0 0.096405 1 0.0169852 -0.00707831
593 1 42.0167 5.7566 0 1.02837 2 0 0.0971443 1 -0.0107945 -0.00044412
595 1 44.0039 5.78504 0 1.01694 2 0 0.0955576 1 0.0066044 -0.00865445
596 1 45.0071 5.81181 0 1.01116 2 0 0.0943239 1 -0.00450382 -0.00537632
597 1 46.0031 5.79584 0 1.01212 2 0 0.0920288 1 -0.000164412 0.000157253
598 1 46.9983 5.75374 0 1.00861 2 0 0.0864178 1 0.00705326 -0.00165255
599 1 48.0022 5.76039 0 1.02545 2 0 0.0855216 1 -0.00702819 -0.00509924
600 1 48.9969 5.73958 0 1.00476 2 0 0.0871228 1 0.00213244 -0.00320456
2650 1 49.0373 45.4369 0 1.00547 0 0 0.499999 1 -0.00010407 -0.000281423
601 2 0 7 0 1 2 8 1.63064e-05 1 0 0
602 2 1 7 0 1 2 8 7.00146e-05 1 0 0
651 2 0 8 0 1 2 8 1.94357e-05 1 0 0
652 2 1 8 0 1 2 8 8.40981e-05 1 0 0
603 2 2 7 0 1 2 8 0.000504898 1 0 0
604 2 3 7 0 1 2 8 0.00294584 1 0 0
653 2 2 8 0 1 2 8 0.000612642 1 0 0
654 2 3 8 0 1 2 8 0.0036639 1 0 0
605 2 4 7 0 1 2 5 0.0123961 1 0 0
655 2 4 8 0 1 2 5 0.0154854 1 0 0
656 1 4.88324 7.47846 0 1.01253 2 0 0.0284303 1 0 -5e-05
606 1 5.4568 6.62745 0 1.01839 2 0 0.0319681 1 -0.00173774 -5.42287e-05
607 1 6.45592 6.62988 0 1.01626 2 0 0.0442534 1 0.00173774 -4.57713e-05
657 1 5.85085 7.73635 0 1.02523 2 0 0.0469029 1 0 -5e-05
608 1 7.47273 6.64784 0 1.01581 2 0 0.0567757 1 -0.00583444 -0.0109014
609 1 7.94336 7.52315 0 1.00447 2 0 0.0778933 1 0.00226628 0.010732
658 1 6.94558 7.51068 0 1.00499 2 0 0.061713 1 -0.00430052 -0.000103768
559 1 8.47416 6.6481 0 1.01669 2 0 0.0691814 1 -0.00435975 0.000112927
610 1 9.4713 6.61084 0 1.00382 2 0 0.0806999 1 0.00170731 0.00250656
661 1 8.93939 7.53874 0 1.00906 2 0 0.0931444 1 0.00786868 7.31322e-05
612 1 9.95512 7.48684 0 1.00002 2 0 0.107096 1 -0.00292669 -0.00550273
611 1 10.4692 6.61039 0 1.00368 2 0 0.0915973 1 0.00185997 -0.00422629
564 1 11.4708 6.60442 0 1.01095 2 0 0.100838 1 -0.00196534 -0.0033401
613 1 10.9576 7.48026 0 1.00877 2 0 0.119862 1 0.00224673 0.00396919
614 1 12.4868 6.59133 0 1.01882 2 0 0.108621 1 -6.01628e-05 -0.000110494
665 1 12.9834 7.45709 0 1.00809 2 0 0.13904 1 -0.00130568 -0.0048317
664 1 11.9826 7.46125 0 1.0022 2 0 0.130347 1 0.00047395 -0.0051118
615 1 13.491 6.58919 0 1.00601 2 0 0.114663 1 0.00284879 0.00491405
616 1 14.4965 6.58894 0 1.00878 2 0 0.119009 1 -0.0194766 0.00142205
666 1 13.9887 7.45503 0 0.997531 2 0 0.145264 0.999967 0.000145088 -0.00597957
617 1 15.4901 6.59341 0 1.01132 2 0 0.121588 1 0.0193348 -0.00468834
667 1 14.9902 7.45402 0 1.00922 2 0 0.149429 0.997243 -0.00533005 0.00682929
668 1 15.9929 7.47068 0 1.01232 2 0 0.152636 0.994237 -0.00843436 -0.0060649
619 1 16.4936 6.59323 0 1.00791 2 0 0.122668 1 -0.000629567 0.00317956
669 1 17.494 6.59986 0 1.0115 2 0 0.123229 0.999998 -0.00138834 0.00234188
719 1 16.9869 7.461 0 1.0104 2 0 0.158044 0.994527 0.0121708 0.00267547
620 1 18.5063 6.60258 0 1.00047 2 0 0.123652 1 -0.00318955 -9.08481e-06
621 1 19.5046 6.58977 0 1.01086 2 2 0.122823 0.999876 -0.00103822 -0.00380373
671 1 19.4296 7.58627 0 1.01101 2 0 0.168059 0.954524 -0.000968662 -0.000814011
670 1 18.4268 7.60237 0 1.01205 2 0 0.169 0.984013 0.00630848 -0.00597135
622 1 20.4826 6.85006 0 1.02282 2 0 0.141509 0.998225 2.11757e-05 -0.00029309
623 1 21.5042 6.59773 0 1.01715 2 0 0.12879 0.998075 -0.00876656 0.00493101
672 1 20.6528 8.31282 0 1.01032 2 1 0.226011 0.499795 0.00316236 -0.00451217
673 1 21.3426 7.58606 0 1.00705 2 0 0.17892 0.88924 -0.00166673 -0.00289885
624 1 22.4997 6.59772 0 1.00933 2 0 0.128482 0.991275 0.00827435 0.000413214
674 1 22.3424 7.58514 0 1.01197 2 0 0.181369 0.735487 -0.000325057 -0.0072717
625 1 23.4998 6.71363 0 1.01358 2 0 0.141549 0.993318 0.000155274 -0.000419617
626 1 24.4955 6.59218 0 1.01095 2 0 0.127966 0.999907 -0.00795544 0.00160526
675 1 23.6568 7.71134 0 1.00974 2 0 0.198174 0.763955 0.00212942 -0.00280419
676 1 24.648 7.5725 0 1.01754 2 0 0.176314 0.94135 -0.0048286 0.00493141
578 1 26.5114 6.59659 0 1.0136 2 0 0.126616 0.999202 -0.00246259 0.000692303
628 1 26.0102 7.45878 0 1.00647 2 1 0.162849 0.957037 0.00351678 0.00138428
627 1 25.5041 6.59866 0 1.0116 2 0 0.126371 0.999969 -0.00243359 0.00358804
629 1 27.5134 6.59752 0 1.00585 2 0 0.127328 0.997433 -0.00158385 -0.00266074
679 1 28.0084 7.46341 0 1.01276 2 1 0.164954 0.897315 0.00703162 0.00252015
678 1 27.0135 7.46025 0 1.01987 2 0 0.161676 0.887778 -0.0134935 0.00192748
630 1 28.5174 6.60699 0 1.00031 2 0 0.127891 0.998749 0.00380461 -0.00646992
631 1 29.5199 6.60193 0 1.01679 2 0 0.127868 0.999996 -0.0167709 0.00636376
680 1 29.0272 7.67476 0 1.0041 2 0 0.179794 0.967531 0.000528374 -0.000338485
681 1 30.0162 7.47825 0 1.0067 2 0 0.166568 0.997742 -1.53312e-05 -0.000168644
682 1 30.5134 6.60007 0 1.0233 2 0 0.124642 1 0.00735801 0.00120758
633 1 31.5108 6.59535 0 1.00197 2 1 0.120239 1 0.00346323 -0.00154068
732 1 30.819 8.07932 0 1.02086 2 3 0.189478 0.916804 -0.000986647 -0.00158874
683 1 31.6892 7.58018 0 1.00602 2 0 0.161445 0.996592 1.1734e-06 -0.000172104
684 1 32.5099 6.59257 0 1.01173 2 0 0.120482 1 -0.00447052 0.00490034
734 1 32.7888 7.5521 0 1.01306 2 1 0.159046 0.992857 -0.00535218 -0.00458413
634 1 33.5087 6.58573 0 1.00318 2 0 0.122287 1 -0.00630699 0.013693
635 1 34.5121 6.63813 0 1.01335 2 0 0.126375 1 0 -5e-05