ITEM: TIMESTEP
5500
ITEM: NUMBER OF ATOMS
15950
ITEM: BOX BOUNDS pp pp pp
0.0000000000000000e+00 1.0000000000000000e+02
-5.0000000000000000e+00 2.0000000000000000e+02
-5.0000000000000000e-01 5.0000000000000000e-01
ITEM: ATOMS id type x y z c_rho c_phase c_nbond c_temp f_rheo_chi_chi fx fy
1 2 0 -5 0 1 2 8 1.72792e-14 1 0 0
2 2 1 -5 0 1 2 8 3.62409e-14 1 0 0
51 2 0 -4 0 1 2 8 2.45683e-13 1 0 0
52 2 1 -4 0 1 2 8 5.52762e-13 1 0 0
3 2 2 -5 0 1 2 8 1.07979e-13 1 0 0
4 2 3 -5 0 1 2 8 2.7038e-13 1 0 0
53 2 2 -4 0 1 2 8 1.77864e-12 1 0 0
54 2 3 -4 0 1 2 8 4.71096e-12 1 0 0
5 2 4 -5 0 1 2 7 5.52262e-13 1 0 0
55 2 4 -4 0 1 2 8 9.95668e-12 1 0 0
6 2 5 -5 0 1 2 6 9.37471e-13 1 0 0
7 2 6 -5 0 1 2 5 1.33613e-12 1 0 0
56 2 5 -4 0 1 2 8 1.70848e-11 1 0 0
57 2 6 -4 0 1 2 8 2.45406e-11 1 0 0
8 2 7 -5 0 1 2 5 1.66029e-12 1 0 0
9 2 8 -5 0 1 2 5 1.87489e-12 1 0 0
58 2 7 -4 0 1 2 8 3.06941e-11 1 0 0
59 2 8 -4 0 1 2 8 3.47681e-11 1 0 0
10 2 9 -5 0 1 2 5 1.99041e-12 1 0 0
60 2 9 -4 0 1 2 8 3.69499e-11 1 0 0
11 2 10 -5 0 1 2 5 2.04128e-12 1 0 0
12 2 11 -5 0 1 2 5 2.06281e-12 1 0 0
61 2 10 -4 0 1 2 8 3.78892e-11 1 0 0
62 2 11 -4 0 1 2 8 3.8227e-11 1 0 0
13 2 12 -5 0 1 2 5 2.09093e-12 1 0 0
14 2 13 -5 0 1 2 5 2.15194e-12 1 0 0
63 2 12 -4 0 1 2 8 3.86817e-11 1 0 0
64 2 13 -4 0 1 2 8 3.98685e-11 1 0 0
15 2 14 -5 0 1 2 5 2.23171e-12 1 0 0
65 2 14 -4 0 1 2 8 4.14994e-11 1 0 0
16 2 15 -5 0 1 2 5 2.28808e-12 1 0 0
17 2 16 -5 0 1 2 5 2.30511e-12 1 0 0
66 2 15 -4 0 1 2 8 4.2627e-11 1 0 0
67 2 16 -4 0 1 2 8 4.29161e-11 1 0 0
18 2 17 -5 0 1 2 5 2.30688e-12 1 0 0
19 2 18 -5 0 1 2 5 2.31555e-12 1 0 0
68 2 17 -4 0 1 2 8 4.29242e-11 1 0 0
69 2 18 -4 0 1 2 8 4.31322e-11 1 0 0
20 2 19 -5 0 1 2 5 2.31972e-12 1 0 0
70 2 19 -4 0 1 2 8 4.32828e-11 1 0 0
21 2 20 -5 0 1 2 5 2.2906e-12 1 0 0
22 2 21 -5 0 1 2 5 2.22055e-12 1 0 0
71 2 20 -4 0 1 2 8 4.27495e-11 1 0 0
72 2 21 -4 0 1 2 8 4.13628e-11 1 0 0
23 2 22 -5 0 1 2 5 2.13515e-12 1 0 0
24 2 23 -5 0 1 2 5 2.06706e-12 1 0 0
73 2 22 -4 0 1 2 8 3.9664e-11 1 0 0
74 2 23 -4 0 1 2 8 3.833e-11 1 0 0
25 2 24 -5 0 1 2 5 2.0313e-12 1 0 0
75 2 24 -4 0 1 2 8 3.76525e-11 1 0 0
26 2 25 -5 0 1 2 5 2.02765e-12 1 0 0
27 2 26 -5 0 1 2 5 2.05108e-12 1 0 0
76 2 25 -4 0 1 2 8 3.76199e-11 1 0 0
77 2 26 -4 0 1 2 8 3.81238e-11 1 0 0
28 2 27 -5 0 1 2 5 2.09448e-12 1 0 0
29 2 28 -5 0 1 2 5 2.15232e-12 1 0 0
78 2 27 -4 0 1 2 8 3.89893e-11 1 0 0
79 2 28 -4 0 1 2 8 4.00763e-11 1 0 0
30 2 29 -5 0 1 2 5 2.22557e-12 1 0 0
80 2 29 -4 0 1 2 8 4.14322e-11 1 0 0
31 2 30 -5 0 1 2 5 2.31188e-12 1 0 0
32 2 31 -5 0 1 2 5 2.38908e-12 1 0 0
81 2 30 -4 0 1 2 8 4.30726e-11 1 0 0
82 2 31 -4 0 1 2 8 4.4572e-11 1 0 0
33 2 32 -5 0 1 2 5 2.4242e-12 1 0 0
34 2 33 -5 0 1 2 5 2.40598e-12 1 0 0
83 2 32 -4 0 1 2 8 4.52398e-11 1 0 0
84 2 33 -4 0 1 2 8 4.4829e-11 1 0 0
35 2 34 -5 0 1 2 5 2.36119e-12 1 0 0
85 2 34 -4 0 1 2 8 4.39145e-11 1 0 0
36 2 35 -5 0 1 2 5 2.32622e-12 1 0 0
37 2 36 -5 0 1 2 5 2.3095e-12 1 0 0
86 2 35 -4 0 1 2 8 4.32709e-11 1 0 0
87 2 36 -4 0 1 2 8 4.30267e-11 1 0 0
38 2 37 -5 0 1 2 5 2.29594e-12 1 0 0
39 2 38 -5 0 1 2 5 2.27429e-12 1 0 0
88 2 37 -4 0 1 2 8 4.28125e-11 1 0 0
89 2 38 -4 0 1 2 8 4.23985e-11 1 0 0
40 2 39 -5 0 1 2 5 2.24506e-12 1 0 0
90 2 39 -4 0 1 2 8 4.18236e-11 1 0 0
41 2 40 -5 0 1 2 5 2.21266e-12 1 0 0
42 2 41 -5 0 1 2 5 2.1826e-12 1 0 0
91 2 40 -4 0 1 2 8 4.11905e-11 1 0 0
92 2 41 -4 0 1 2 8 4.05974e-11 1 0 0
43 2 42 -5 0 1 2 5 2.16766e-12 1 0 0
44 2 43 -5 0 1 2 5 2.1873e-12 1 0 0
93 2 42 -4 0 1 2 8 4.02842e-11 1 0 0
94 2 43 -4 0 1 2 8 4.06486e-11 1 0 0
45 2 44 -5 0 1 2 5 2.24739e-12 1 0 0
95 2 44 -4 0 1 2 8 4.18439e-11 1 0 0
46 2 45 -5 0 1 2 5 2.31789e-12 1 0 0
47 2 46 -5 0 1 2 5 2.34834e-12 1 0 0
96 2 45 -4 0 1 2 8 4.32714e-11 1 0 0
97 2 46 -4 0 1 2 8 4.38797e-11 1 0 0
48 2 47 -5 0 1 2 5 2.31613e-12 1 0 0
49 2 48 -5 0 1 2 5 2.2464e-12 1 0 0
98 2 47 -4 0 1 2 8 4.32156e-11 1 0 0
99 2 48 -4 0 1 2 8 4.18349e-11 1 0 0
50 2 49 -5 0 1 2 5 2.18163e-12 1 0 0
100 2 49 -4 0 1 2 8 4.06033e-11 1 0 0
101 2 0 -3 0 1 2 8 3.1342e-12 1 0 0
102 2 1 -3 0 1 2 8 7.64468e-12 1 0 0
151 2 0 -2 0 1 2 8 3.52331e-11 1 0 0
152 2 1 -2 0 1 2 8 9.42729e-11 1 0 0
103 2 2 -3 0 1 2 8 2.68423e-11 1 0 0
104 2 3 -3 0 1 2 8 7.58939e-11 1 0 0
153 2 2 -2 0 1 2 8 3.65787e-10 1 0 0
154 2 3 -2 0 1 2 8 1.11666e-09 1 0 0
105 2 4 -3 0 1 2 8 1.67932e-10 1 0 0
155 2 4 -2 0 1 2 8 2.60833e-09 1 0 0
106 2 5 -3 0 1 2 8 2.96206e-10 1 0 0
107 2 6 -3 0 1 2 8 4.3184e-10 1 0 0
156 2 5 -2 0 1 2 8 4.75243e-09 1 0 0
157 2 6 -2 0 1 2 8 7.0453e-09 1 0 0
108 2 7 -3 0 1 2 8 5.443e-10 1 0 0
109 2 8 -3 0 1 2 8 6.18814e-10 1 0 0
158 2 7 -2 0 1 2 8 8.95783e-09 1 0 0
159 2 8 -2 0 1 2 8 1.02314e-08 1 0 0
110 2 9 -3 0 1 2 8 6.5856e-10 1 0 0
160 2 9 -2 0 1 2 8 1.09107e-08 1 0 0
111 2 10 -3 0 1 2 8 6.75431e-10 1 0 0
112 2 11 -3 0 1 2 8 6.80263e-10 1 0 0
161 2 10 -2 0 1 2 8 1.11974e-08 1 0 0
162 2 11 -2 0 1 2 8 1.12571e-08 1 0 0
113 2 12 -3 0 1 2 8 6.86639e-10 1 0 0
114 2 13 -3 0 1 2 8 7.08834e-10 1 0 0
163 2 12 -2 0 1 2 8 1.1328e-08 1 0 0
164 2 13 -2 0 1 2 8 1.17144e-08 1 0 0
115 2 14 -3 0 1 2 8 7.41125e-10 1 0 0
165 2 14 -2 0 1 2 8 1.23083e-08 1 0 0
116 2 15 -3 0 1 2 8 7.62627e-10 1 0 0
117 2 16 -3 0 1 2 8 7.66818e-10 1 0 0
166 2 15 -2 0 1 2 8 1.2684e-08 1 0 0
167 2 16 -2 0 1 2 8 1.2729e-08 1 0 0
118 2 17 -3 0 1 2 8 7.66341e-10 1 0 0
119 2 18 -3 0 1 2 8 7.71072e-10 1 0 0
168 2 17 -2 0 1 2 8 1.27088e-08 1 0 0
169 2 18 -2 0 1 2 8 1.28081e-08 1 0 0
120 2 19 -3 0 1 2 8 7.75407e-10 1 0 0
170 2 19 -2 0 1 2 8 1.29131e-08 1 0 0
121 2 20 -3 0 1 2 8 7.66231e-10 1 0 0
122 2 21 -3 0 1 2 8 7.39846e-10 1 0 0
171 2 20 -2 0 1 2 8 1.27706e-08 1 0 0
172 2 21 -2 0 1 2 8 1.23056e-08 1 0 0
123 2 22 -3 0 1 2 8 7.07311e-10 1 0 0
124 2 23 -3 0 1 2 8 6.82074e-10 1 0 0
173 2 22 -2 0 1 2 8 1.17271e-08 1 0 0
174 2 23 -2 0 1 2 8 1.12813e-08 1 0 0
125 2 24 -3 0 1 2 8 6.69541e-10 1 0 0
175 2 24 -2 0 1 2 8 1.10617e-08 1 0 0
126 2 25 -3 0 1 2 8 6.69646e-10 1 0 0
127 2 26 -3 0 1 2 8 6.80274e-10 1 0 0
176 2 25 -2 0 1 2 8 1.10743e-08 1 0 0
177 2 26 -2 0 1 2 8 1.12845e-08 1 0 0
128 2 27 -3 0 1 2 8 6.97187e-10 1 0 0
129 2 28 -3 0 1 2 8 7.1683e-10 1 0 0
178 2 27 -2 0 1 2 8 1.15977e-08 1 0 0
179 2 28 -2 0 1 2 8 1.19281e-08 1 0 0
130 2 29 -3 0 1 2 8 7.40669e-10 1 0 0
180 2 29 -2 0 1 2 8 1.23112e-08 1 0 0
131 2 30 -3 0 1 2 8 7.70511e-10 1 0 0
132 2 31 -3 0 1 2 8 7.98567e-10 1 0 0
181 2 30 -2 0 1 2 8 1.28114e-08 1 0 0
182 2 31 -2 0 1 2 8 1.32998e-08 1 0 0
133 2 32 -3 0 1 2 8 8.10915e-10 1 0 0
134 2 33 -3 0 1 2 8 8.0215e-10 1 0 0
183 2 32 -2 0 1 2 8 1.35152e-08 1 0 0
184 2 33 -2 0 1 2 8 1.33454e-08 1 0 0
135 2 34 -3 0 1 2 8 7.84116e-10 1 0 0
185 2 34 -2 0 1 2 8 1.30149e-08 1 0 0
136 2 35 -3 0 1 2 8 7.72894e-10 1 0 0
137 2 36 -3 0 1 2 8 7.70056e-10 1 0 0
186 2 35 -2 0 1 2 8 1.28355e-08 1 0 0
187 2 36 -2 0 1 2 8 1.28184e-08 1 0 0
138 2 37 -3 0 1 2 8 7.67016e-10 1 0 0
139 2 38 -3 0 1 2 8 7.59405e-10 1 0 0
188 2 37 -2 0 1 2 8 1.2783e-08 1 0 0
189 2 38 -2 0 1 2 8 1.26529e-08 1 0 0
140 2 39 -3 0 1 2 8 7.48504e-10 1 0 0
190 2 39 -2 0 1 2 8 1.24597e-08 1 0 0
141 2 40 -3 0 1 2 8 7.36484e-10 1 0 0
142 2 41 -3 0 1 2 8 7.2499e-10 1 0 0
191 2 40 -2 0 1 2 8 1.22439e-08 1 0 0
192 2 41 -2 0 1 2 8 1.20315e-08 1 0 0
143 2 42 -3 0 1 2 8 7.1843e-10 1 0 0
144 2 43 -3 0 1 2 8 7.24696e-10 1 0 0
193 2 42 -2 0 1 2 8 1.19004e-08 1 0 0
194 2 43 -2 0 1 2 8 1.1997e-08 1 0 0
145 2 44 -3 0 1 2 8 7.47572e-10 1 0 0
195 2 44 -2 0 1 2 8 1.24048e-08 1 0 0
146 2 45 -3 0 1 2 8 7.75516e-10 1 0 0
147 2 46 -3 0 1 2 8 7.87208e-10 1 0 0
196 2 45 -2 0 1 2 8 1.29155e-08 1 0 0
197 2 46 -2 0 1 2 8 1.31248e-08 1 0 0
148 2 47 -3 0 1 2 8 7.73856e-10 1 0 0
149 2 48 -3 0 1 2 8 7.47453e-10 1 0 0
198 2 47 -2 0 1 2 8 1.28739e-08 1 0 0
199 2 48 -2 0 1 2 8 1.24029e-08 1 0 0
150 2 49 -3 0 1 2 8 7.2498e-10 1 0 0
200 2 49 -2 0 1 2 8 1.20219e-08 1 0 0
201 2 0 -1 0 1 2 8 3.41077e-10 1 0 0
202 2 1 -1 0 1 2 8 1.01435e-09 1 0 0
203 2 2 -1 0 1 2 8 4.41532e-09 1 0 0
204 2 3 -1 0 1 2 8 1.47625e-08 1 0 0
205 2 4 -1 0 1 2 8 3.6798e-08 1 0 0
206 2 5 -1 0 1 2 8 6.9672e-08 1 0 0
207 2 6 -1 0 1 2 8 1.05254e-07 1 0 0
208 2 7 -1 0 1 2 8 1.35235e-07 1 0 0
209 2 8 -1 0 1 2 8 1.55406e-07 1 0 0
210 2 9 -1 0 1 2 8 1.66173e-07 1 0 0
211 2 10 -1 0 1 2 8 1.70804e-07 1 0 0
212 2 11 -1 0 1 2 8 1.7148e-07 1 0 0
213 2 12 -1 0 1 2 8 1.7178e-07 1 0 0
214 2 13 -1 0 1 2 8 1.78032e-07 1 0 0
215 2 14 -1 0 1 2 8 1.88259e-07 1 0 0
216 2 15 -1 0 1 2 8 1.94176e-07 1 0 0
217 2 16 -1 0 1 2 8 1.94253e-07 1 0 0
218 2 17 -1 0 1 2 8 1.93733e-07 1 0 0
219 2 18 -1 0 1 2 8 1.95633e-07 1 0 0
220 2 19 -1 0 1 2 8 1.97871e-07 1 0 0
221 2 20 -1 0 1 2 8 1.95945e-07 1 0 0
222 2 21 -1 0 1 2 8 1.88409e-07 1 0 0
223 2 22 -1 0 1 2 8 1.7893e-07 1 0 0
224 2 23 -1 0 1 2 8 1.71605e-07 1 0 0
225 2 24 -1 0 1 2 8 1.6786e-07 1 0 0
226 2 25 -1 0 1 2 8 1.68193e-07 1 0 0
227 2 26 -1 0 1 2 8 1.7215e-07 1 0 0
228 2 27 -1 0 1 2 8 1.77671e-07 1 0 0
229 2 28 -1 0 1 2 8 1.82823e-07 1 0 0
230 2 29 -1 0 1 2 8 1.88326e-07 1 0 0
231 2 30 -1 0 1 2 8 1.95973e-07 1 0 0
232 2 31 -1 0 1 2 8 2.03805e-07 1 0 0
233 2 32 -1 0 1 2 8 2.07352e-07 1 0 0
234 2 33 -1 0 1 2 8 2.04372e-07 1 0 0
235 2 34 -1 0 1 2 8 1.9873e-07 1 0 0
236 2 35 -1 0 1 2 8 1.9614e-07 1 0 0
237 2 36 -1 0 1 2 8 1.96452e-07 1 0 0
238 2 37 -1 0 1 2 8 1.96154e-07 1 0 0
239 2 38 -1 0 1 2 8 1.94135e-07 1 0 0
240 2 39 -1 0 1 2 8 1.90991e-07 1 0 0
241 2 40 -1 0 1 2 8 1.87371e-07 1 0 0
242 2 41 -1 0 1 2 8 1.83624e-07 1 0 0
243 2 42 -1 0 1 2 8 1.81141e-07 1 0 0
244 2 43 -1 0 1 2 8 1.82433e-07 1 0 0
245 2 44 -1 0 1 2 8 1.89188e-07 1 0 0
246 2 45 -1 0 1 2 8 1.97885e-07 1 0 0
247 2 46 -1 0 1 2 8 2.01349e-07 1 0 0
248 2 47 -1 0 1 2 8 1.96927e-07 1 0 0
249 2 48 -1 0 1 2 8 1.89152e-07 1 0 0
250 2 49 -1 0 1 2 8 1.83199e-07 1 0 0
251 2 0 0 0 1 2 8 2.76348e-09 1 0 0
252 2 1 0 0 1 2 8 9.24822e-09 1 0 0
301 2 0 1 0 1 2 8 1.80771e-08 1 0 0
302 2 1 1 0 1 2 8 6.87165e-08 1 0 0
253 2 2 0 0 1 2 8 4.59592e-08 1 0 0
254 2 3 0 0 1 2 8 1.71619e-07 1 0 0
303 2 2 1 0 1 2 8 3.97807e-07 1 0 0
304 2 3 1 0 1 2 8 1.69847e-06 1 0 0
255 2 4 0 0 1 2 8 4.63312e-07 1 0 0
305 2 4 1 0 1 2 8 5.06601e-06 1 0 0
256 2 5 0 0 1 2 8 9.17994e-07 1 0 0
257 2 6 0 0 1 2 8 1.41569e-06 1 0 0
306 2 5 1 0 1 2 8 1.06317e-05 1 0 0
307 2 6 1 0 1 2 8 1.67907e-05 1 0 0
258 2 7 0 0 1 2 8 1.84004e-06 1 0 0
259 2 8 0 0 1 2 8 2.13088e-06 1 0 0
308 2 7 1 0 1 2 8 2.2158e-05 1 0 0
309 2 8 1 0 1 2 8 2.59404e-05 1 0 0
260 2 9 0 0 1 2 8 2.28708e-06 1 0 0
310 2 9 1 0 1 2 8 2.79725e-05 1 0 0
261 2 10 0 0 1 2 8 2.35623e-06 1 0 0
262 2 11 0 0 1 2 8 2.36303e-06 1 0 0
311 2 10 1 0 1 2 8 2.8938e-05 1 0 0
312 2 11 1 0 1 2 8 2.90779e-05 1 0 0
263 2 12 0 0 1 2 8 2.35648e-06 1 0 0
264 2 13 0 0 1 2 8 2.44849e-06 1 0 0
313 2 12 1 0 1 2 8 2.87659e-05 1 0 0
314 2 13 1 0 1 2 8 3.00195e-05 1 0 0
265 2 14 0 0 1 2 8 2.60544e-06 1 0 0
315 2 14 1 0 1 2 8 3.22583e-05 1 0 0
266 2 15 0 0 1 2 8 2.68654e-06 1 0 0
267 2 16 0 0 1 2 8 2.67607e-06 1 0 0
316 2 15 1 0 1 2 8 3.31687e-05 1 0 0
317 2 16 1 0 1 2 8 3.28081e-05 1 0 0
268 2 17 0 0 1 2 8 2.6657e-06 1 0 0
269 2 18 0 0 1 2 8 2.69873e-06 1 0 0
318 2 17 1 0 1 2 8 3.26516e-05 1 0 0
319 2 18 1 0 1 2 8 3.31512e-05 1 0 0
270 2 19 0 0 1 2 8 2.74023e-06 1 0 0
320 2 19 1 0 1 2 8 3.38348e-05 1 0 0
271 2 20 0 0 1 2 8 2.71867e-06 1 0 0
272 2 21 0 0 1 2 8 2.60963e-06 1 0 0
321 2 20 1 0 1 2 8 3.36747e-05 1 0 0
322 2 21 1 0 1 2 8 3.22691e-05 1 0 0
273 2 22 0 0 1 2 8 2.47051e-06 1 0 0
274 2 23 0 0 1 2 8 2.36129e-06 1 0 0
323 2 22 1 0 1 2 8 3.04615e-05 1 0 0
324 2 23 1 0 1 2 8 2.89868e-05 1 0 0
275 2 24 0 0 1 2 8 2.30152e-06 1 0 0
325 2 24 1 0 1 2 8 2.80048e-05 1 0 0
276 2 25 0 0 1 2 8 2.30613e-06 1 0 0
277 2 26 0 0 1 2 8 2.3727e-06 1 0 0
326 2 25 1 0 1 2 8 2.80263e-05 1 0 0
327 2 26 1 0 1 2 8 2.90981e-05 1 0 0
278 2 27 0 0 1 2 8 2.46286e-06 1 0 0
279 2 28 0 0 1 2 8 2.53607e-06 1 0 0
328 2 27 1 0 1 2 8 3.04762e-05 1 0 0
329 2 28 1 0 1 2 8 3.14363e-05 1 0 0
280 2 29 0 0 1 2 8 2.60432e-06 1 0 0
330 2 29 1 0 1 2 8 3.21164e-05 1 0 0
281 2 30 0 0 1 2 8 2.70724e-06 1 0 0
282 2 31 0 0 1 2 8 2.82075e-06 1 0 0
331 2 30 1 0 1 2 8 3.33247e-05 1 0 0
332 2 31 1 0 1 2 8 3.47878e-05 1 0 0
283 2 32 0 0 1 2 8 2.87511e-06 1 0 0
284 2 33 0 0 1 2 8 2.82936e-06 1 0 0
333 2 32 1 0 1 2 8 3.55713e-05 1 0 0
334 2 33 1 0 1 2 8 3.49593e-05 1 0 0
285 2 34 0 0 1 2 8 2.74264e-06 1 0 0
335 2 34 1 0 1 2 8 3.37293e-05 1 0 0
286 2 35 0 0 1 2 8 2.70892e-06 1 0 0
287 2 36 0 0 1 2 8 2.72159e-06 1 0 0
336 2 35 1 0 1 2 8 3.33396e-05 1 0 0
337 2 36 1 0 1 2 8 3.3624e-05 1 0 0
288 2 37 0 0 1 2 8 2.72147e-06 1 0 0
289 2 38 0 0 1 2 8 2.69365e-06 1 0 0
338 2 37 1 0 1 2 8 3.36644e-05 1 0 0
339 2 38 1 0 1 2 8 3.3351e-05 1 0 0
290 2 39 0 0 1 2 8 2.64751e-06 1 0 0
340 2 39 1 0 1 2 8 3.27615e-05 1 0 0
291 2 40 0 0 1 2 8 2.59115e-06 1 0 0
292 2 41 0 0 1 2 8 2.5292e-06 1 0 0
341 2 40 1 0 1 2 8 3.19768e-05 1 0 0
342 2 41 1 0 1 2 8 3.10134e-05 1 0 0
293 2 42 0 0 1 2 8 2.48591e-06 1 0 0
294 2 43 0 0 1 2 8 2.50065e-06 1 0 0
343 2 42 1 0 1 2 8 3.03263e-05 1 0 0
344 2 43 1 0 1 2 8 3.04587e-05 1 0 0
295 2 44 0 0 1 2 8 2.60286e-06 1 0 0
345 2 44 1 0 1 2 8 3.18838e-05 1 0 0
296 2 45 0 0 1 2 8 2.73786e-06 1 0 0
297 2 46 0 0 1 2 8 2.79015e-06 1 0 0
346 2 45 1 0 1 2 8 3.3796e-05 1 0 0
347 2 46 1 0 1 2 8 3.45099e-05 1 0 0
298 2 47 0 0 1 2 8 2.72001e-06 1 0 0
299 2 48 0 0 1 2 8 2.60346e-06 1 0 0
348 2 47 1 0 1 2 8 3.34886e-05 1 0 0
349 2 48 1 0 1 2 8 3.19243e-05 1 0 0
300 2 49 0 0 1 2 8 2.51862e-06 1 0 0
350 2 49 1 0 1 2 8 3.08224e-05 1 0 0
351 2 0 2 0 1 2 8 9.13713e-08 1 0 0
352 2 1 2 0 1 2 8 3.96854e-07 1 0 0
401 2 0 3 0 1 2 8 3.43046e-07 1 0 0
402 2 1 3 0 1 2 8 1.67499e-06 1 0 0
353 2 2 2 0 1 2 8 2.70602e-06 1 0 0
354 2 3 2 0 1 2 8 1.36363e-05 1 0 0
403 2 2 3 0 1 2 8 1.34531e-05 1 0 0
404 2 3 3 0 1 2 8 8.27443e-05 1 0 0
355 2 4 2 0 1 2 8 4.64384e-05 1 0 0
405 2 4 3 0 1 2 8 0.000330052 1 0 0
356 2 5 2 0 1 2 8 0.000104824 1 0 0
357 2 6 2 0 1 2 8 0.000169645 1 0 0
406 2 5 3 0 1 2 8 0.000828265 1 0 0
407 2 6 3 0 1 2 8 0.00138862 1 0 0
358 2 7 2 0 1 2 8 0.000226932 1 0 0
359 2 8 2 0 1 2 8 0.000269105 1 0 0
408 2 7 3 0 1 2 8 0.00190496 1 0 0
409 2 8 3 0 1 2 8 0.00230207 1 0 0
360 2 9 2 0 1 2 8 0.000291964 1 0 0
410 2 9 3 0 1 2 8 0.00252194 1 0 0
361 2 10 2 0 1 2 8 0.000303512 1 0 0
362 2 11 2 0 1 2 8 0.000305628 1 0 0
411 2 10 3 0 1 2 8 0.00264183 1 0 0
412 2 11 3 0 1 2 8 0.00270954 1 0 0
363 2 12 2 0 1 2 8 0.000301525 1 0 0
364 2 13 2 0 1 2 8 0.000316078 1 0 0
413 2 12 3 0 1 2 8 0.00264565 1 0 0
414 2 13 3 0 1 2 8 0.00280287 1 0 0
365 2 14 2 0 1 2 8 0.000341337 1 0 0
415 2 14 3 0 1 2 8 0.00307272 1 0 0
366 2 15 2 0 1 2 8 0.000349206 1 0 0
367 2 16 2 0 1 2 8 0.00034237 1 0 0
416 2 15 3 0 1 2 8 0.00309956 1 0 0
417 2 16 3 0 1 2 8 0.00299003 1 0 0
368 2 17 2 0 1 2 8 0.000340035 1 0 0
369 2 18 2 0 1 2 8 0.000346939 1 0 0
418 2 17 3 0 1 2 8 0.00296432 1 0 0
419 2 18 3 0 1 2 8 0.00303421 1 0 0
370 2 19 2 0 1 2 8 0.00035639 1 0 0
420 2 19 3 0 1 2 8 0.00314825 1 0 0
371 2 20 2 0 1 2 8 0.000356083 1 0 0
372 2 21 2 0 1 2 8 0.000341243 1 0 0
421 2 20 3 0 1 2 8 0.00317004 1 0 0
422 2 21 3 0 1 2 8 0.00304028 1 0 0
373 2 22 2 0 1 2 8 0.000321981 1 0 0
374 2 23 2 0 1 2 8 0.000305058 1 0 0
423 2 22 3 0 1 2 8 0.00288087 1 0 0
424 2 23 3 0 1 2 8 0.00272439 1 0 0
375 2 24 2 0 1 2 8 0.000291571 1 0 0
425 2 24 3 0 1 2 8 0.0024966 1 0 0
376 2 25 2 0 1 2 8 0.000290205 1 0 0
377 2 26 2 0 1 2 8 0.000303711 1 0 0
426 2 25 3 0 1 2 8 0.00245562 1 0 0
427 2 26 3 0 1 2 8 0.00264065 1 0 0
378 2 27 2 0 1 2 8 0.000322285 1 0 0
379 2 28 2 0 1 2 8 0.000333295 1 0 0
428 2 27 3 0 1 2 8 0.00285445 1 0 0
429 2 28 3 0 1 2 8 0.00297614 1 0 0
380 2 29 2 0 1 2 8 0.000337995 1 0 0
430 2 29 3 0 1 2 8 0.00298594 1 0 0
381 2 30 2 0 1 2 8 0.000348882 1 0 0
382 2 31 2 0 1 2 8 0.000365211 1 0 0
431 2 30 3 0 1 2 8 0.00306409 1 0 0
432 2 31 3 0 1 2 8 0.00321548 1 0 0
383 2 32 2 0 1 2 8 0.000375148 1 0 0
384 2 33 2 0 1 2 8 0.000368501 1 0 0
433 2 32 3 0 1 2 8 0.0033317 1 0 0
434 2 33 3 0 1 2 8 0.00327649 1 0 0
385 2 34 2 0 1 2 8 0.000354025 1 0 0
435 2 34 3 0 1 2 8 0.00312436 1 0 0
386 2 35 2 0 1 2 8 0.00034988 1 0 0
387 2 36 2 0 1 2 8 0.000353737 1 0 0
436 2 35 3 0 1 2 8 0.0030832 1 0 0
437 2 36 3 0 1 2 8 0.00312525 1 0 0
388 2 37 2 0 1 2 8 0.000354992 1 0 0
389 2 38 2 0 1 2 8 0.000352224 1 0 0
438 2 37 3 0 1 2 8 0.00314172 1 0 0
439 2 38 3 0 1 2 8 0.00313576 1 0 0
390 2 39 2 0 1 2 8 0.00034598 1 0 0
440 2 39 3 0 1 2 8 0.00308563 1 0 0
391 2 40 2 0 1 2 8 0.000336265 1 0 0
392 2 41 2 0 1 2 8 0.000322954 1 0 0
441 2 40 3 0 1 2 8 0.00299564 1 0 0
442 2 41 3 0 1 2 8 0.00283282 1 0 0
393 2 42 2 0 1 2 8 0.000313491 1 0 0
394 2 43 2 0 1 2 8 0.000314525 1 0 0
443 2 42 3 0 1 2 8 0.00272435 1 0 0
444 2 43 3 0 1 2 8 0.00273212 1 0 0
395 2 44 2 0 1 2 8 0.000331895 1 0 0
445 2 44 3 0 1 2 8 0.00292352 1 0 0
396 2 45 2 0 1 2 8 0.000355355 1 0 0
397 2 46 2 0 1 2 8 0.000363812 1 0 0
446 2 45 3 0 1 2 8 0.00317007 1 0 0
447 2 46 3 0 1 2 8 0.00325477 1 0 0
398 2 47 2 0 1 2 8 0.000351579 1 0 0
399 2 48 2 0 1 2 8 0.000333496 1 0 0
448 2 47 3 0 1 2 8 0.00312469 1 0 0
449 2 48 3 0 1 2 8 0.00295537 1 0 0
400 2 49 2 0 1 2 8 0.000320752 1 0 0
450 2 49 3 0 1 2 8 0.00282004 1 0 0
451 2 0 4 0 1 2 8 9.35603e-07 1 0 0
452 2 1 4 0 1 2 8 4.9904e-06 1 0 0
453 2 2 4 0 1 2 8 4.55951e-05 1 0 0
454 2 3 4 0 1 2 8 0.000325065 1 0 0
455 2 4 4 0 1 2 7 0.00165347 1 0 0
456 2 5 4 0 1 2 6 0.0048914 1 0 0
457 2 6 4 0 1 2 5 0.00833358 1 0 0
506 1 5.50695 4.92207 0 1.0006 2 0 0.0198114 1 -0.00186257 5.59792e-05
458 2 7 4 0 1 2 5 0.0112888 1 0 0
459 2 8 4 0 1 2 5 0.0138209 1 0 0
460 2 9 4 0 1 2 5 0.0152261 1 0 0
461 2 10 4 0 1 2 5 0.0160823 1 0 0
462 2 11 4 0 1 2 5 0.0165756 1 0 0
463 2 12 4 0 1 2 5 0.0167352 1 0 0
464 2 13 4 0 1 2 5 0.0177594 1 0 0
465 2 14 4 0 1 2 5 0.0190028 1 0 0
515 1 13.4945 4.8623 0 1.02031 2 0 0.0632945 1 0.00542164 0.0109846
516 1 14.4982 4.87962 0 1.0096 2 0 0.0654393 1 0 -5e-05
466 2 15 4 0 1 2 5 0.0190873 1 0 0
467 2 16 4 0 1 2 5 0.0180953 1 0 0
468 2 17 4 0 1 2 5 0.0174354 1 0 0
469 2 18 4 0 1 2 5 0.0182879 1 0 0
519 1 17.502 4.87368 0 1.0239 2 0 0.0585159 1 0.0100078 -0.000151058
470 2 19 4 0 1 2 5 0.0192017 1 0 0
520 1 18.5093 4.86383 0 1.00577 2 0 0.0597449 1 -0.00281849 -0.00111637
521 1 19.5076 4.86215 0 1.00453 2 0 0.0626802 1 -0.00366668 0.012286
471 2 20 4 0 1 2 5 0.0194768 1 0 0
472 2 21 4 0 1 2 5 0.0189067 1 0 0
523 1 21.5125 4.87024 0 1.02268 2 0 0.064317 1 0.0127717 -0.00763794
473 2 22 4 0 1 2 5 0.0182357 1 0 0
474 2 23 4 0 1 2 5 0.0172563 1 0 0
524 1 22.5115 4.87384 0 1.01383 2 0 0.0661037 1 0.00188152 -4.32251e-05
475 2 24 4 0 1 2 5 0.0155691 1 0 0
525 1 23.5133 4.87182 0 1.03669 2 0 0.0678324 0.999999 -0.00152969 0.00268949
476 2 25 4 0 1 2 5 0.0149161 1 0 0
477 2 26 4 0 1 2 5 0.0159222 1 0 0
478 2 27 4 0 1 2 5 0.0178795 1 0 0
479 2 28 4 0 1 2 5 0.0186776 1 0 0
529 1 27.3335 4.93254 0 1.0019 2 0 0.0778873 1 0.0066661 0.0185921
480 2 29 4 0 1 2 5 0.0184546 1 0 0
531 1 29.4202 4.89599 0 1.01679 2 0 0.0704895 1 -0.00406637 -0.00131944
481 2 30 4 0 1 2 5 0.0184722 1 0 0
482 2 31 4 0 1 2 5 0.0196185 1 0 0
533 1 31.4974 4.87043 0 1.004 2 0 0.0670431 1 -0.00302958 -4.13606e-05
483 2 32 4 0 1 2 5 0.0204432 1 0 0
484 2 33 4 0 1 2 5 0.0201161 1 0 0
534 1 32.4959 4.86758 0 1.00171 2 0 0.0648591 1 -0.00580918 -0.00618856
485 2 34 4 0 1 2 5 0.0192123 1 0 0
486 2 35 4 0 1 2 5 0.0189037 1 0 0
487 2 36 4 0 1 2 5 0.019011 1 0 0
537 1 35.4969 4.8687 0 1.0067 2 0 0.0681364 1 -0.000891741 -0.0220937
488 2 37 4 0 1 2 5 0.0192877 1 0 0
489 2 38 4 0 1 2 5 0.0193192 1 0 0
490 2 39 4 0 1 2 5 0.0190838 1 0 0
541 1 39.498 4.86139 0 1.00168 2 0 0.0652179 1 0.00256252 0.013896
540 1 38.5002 4.86591 0 1.01715 2 0 0.0668131 1 -0.0100923 -0.00956345
491 2 40 4 0 1 2 5 0.0183897 1 0 0
492 2 41 4 0 1 2 5 0.0169143 1 0 0
542 1 40.4961 4.86416 0 1.01016 2 0 0.0617625 0.999823 -6.96517e-05 -0.0065761
543 1 41.4983 4.86579 0 1.03252 2 0 0.0574645 0.999261 0.00609958 -0.00711014
493 2 42 4 0 1 2 5 0.0160336 1 0 0
494 2 43 4 0 1 2 5 0.0161093 1 0 0
544 1 42.5024 4.87751 0 1.0319 2 0 0.0554821 0.999451 0.00448187 -0.00817376
495 2 44 4 0 1 2 5 0.0175987 1 0 0
545 1 43.5023 4.87132 0 1.03659 2 0 0.0564857 0.999887 -0.00226807 -0.00362821
546 1 44.502 4.86453 0 1.01001 2 0 0.0605409 1 -0.00388247 0.00234889
496 2 45 4 0 1 2 5 0.0195079 1 0 0
497 2 46 4 0 1 2 5 0.0200627 1 0 0
547 1 45.5015 4.86845 0 1.00173 2 0 0.0631709 1 0.00526462 -0.0102653
548 1 46.5037 4.86133 0 1.00807 2 0 0.0636949 1 -0.0179047 0.0105137
498 2 47 4 0 1 2 5 0.0192529 1 0 0
499 2 48 4 0 1 2 5 0.018122 1 0 0
549 1 47.4977 4.86322 0 1.02093 2 0 0.0629988 1 0.0140017 0.00335558
500 2 49 4 0 1 2 5 0.0170429 1 0 0
550 1 48.496 4.86364 0 1.02225 2 0 0.0619815 1 0.00691233 0.00638853
8501 1 49.5053 4.86579 0 1.06187 2 0 0.0592309 0.999993 -0.00487704 0.0042849
501 2 0 5 0 1 2 8 1.87235e-06 1 0 0
502 2 1 5 0 1 2 8 1.0604e-05 1 0 0
551 2 0 6 0 1 2 8 2.90608e-06 1 0 0
552 2 1 6 0 1 2 8 1.7069e-05 1 0 0
503 2 2 5 0 1 2 8 0.000103975 1 0 0
504 2 3 5 0 1 2 8 0.000815679 1 0 0
553 2 2 6 0 1 2 8 0.000171395 1 0 0
554 2 3 6 0 1 2 8 0.00139205 1 0 0
505 2 4 5 0 1 2 6 0.0048398 1 0 0
555 2 4 6 0 1 2 5 0.00832942 1 0 0
556 1 4.98204 5.835 0 1.02426 2 0 0.02505 1 0.00823235 -0.0014332
507 1 6.50437 4.86532 0 1.02569 2 0 0.0264092 1 -0.000933788 0.00472617
557 1 6.03689 5.79047 0 1.00456 2 0 0.0374071 1 0 -5e-05
508 1 7.50449 4.8724 0 1.03193 2 0 0.032157 1 0 -5e-05
558 1 7.06133 5.7786 0 1.00032 2 0 0.0475612 1 0 -5e-05
509 1 8.08939 5.88409 0 1.00999 2 0 0.0602285 1 0 -5e-05
510 1 8.50402 4.9387 0 1.01036 2 0 0.0375961 1 -0.021036 0.00137239
511 1 9.49116 4.87196 0 1.00136 2 0 0.0415679 1 0.0213722 -0.00277937
560 1 9.24221 5.83978 0 1.01571 2 0 0.0712343 1 -0.000336192 0.00125698
512 1 10.4988 4.8714 0 1.01573 2 0 0.0472861 1 -0.00843711 -0.000149517
513 1 11.4946 4.87039 0 1.01534 2 0 0.0547266 1 -0.00332795 -0.00300845
561 1 10.0895 6.38451 0 1.04128 2 0 0.101218 1 -0.00217734 -0.00572786
562 1 10.978 5.74904 0 1.02468 2 0 0.0863631 1 -0.00414826 -0.0102612
514 1 12.4894 4.88489 0 1.01802 2 0 0.0598097 1 0.0087638 -0.00824553
563 1 11.9794 5.74312 0 1.00884 2 0 0.0945973 0.999982 -0.00690179 -0.00939851
565 1 12.98 5.75272 0 1.01555 2 0 0.101167 0.998501 0.000728874 0.00531531
566 1 13.9788 5.74006 0 1.01485 2 0 0.107014 0.998212 0.0023565 -0.000252075
518 1 16.5071 4.88373 0 1.02515 2 0 0.0604382 1 0.00137422 -0.0147186
517 1 15.5096 4.87087 0 1.02614 2 0 0.0640706 1 -0.00527645 0.000842582
567 1 15.0192 5.74358 0 1.00349 2 0 0.108987 0.998546 -0.00638488 -0.0110094
568 1 16.1017 5.78893 0 1.02492 2 0 0.109245 0.993459 -0.021082 0.0067189
569 1 18.0214 5.72849 0 1.01386 2 1 0.105366 0.998662 -0.0027241 0.00135934
570 1 19.0259 5.75795 0 1.00562 2 0 0.1152 0.998551 -0.0151667 0.000359924
571 1 20.0178 5.72833 0 1.00943 2 0 0.107331 0.996619 0.0044483 0.0175122
522 1 20.5177 4.87445 0 1.0139 2 0 0.0634388 1 -0.00203923 -0.017491
572 1 21.0246 5.73531 0 1.02492 2 0 0.105332 0.999093 -0.0124318 0.0132294
573 1 22.021 5.75344 0 1.00977 2 0 0.108422 0.999136 0.00325253 -0.00700798
574 1 23.0175 5.74076 0 1.00488 2 0 0.113548 0.993264 0.00331587 -0.0033338
526 1 24.3196 5.50569 0 1.04245 2 0 0.108113 0.997946 -0.0052566 -0.00793572
528 1 26.2703 4.95804 0 1.04147 2 0 0.07832 0.999996 0.00783325 -4.93568e-05
527 1 25.1736 4.98103 0 1.03798 2 0 0.0774815 1 -0.00783118 -0.00594432
577 1 25.7364 5.79782 0 1.01133 2 0 0.125815 0.989431 0.0186138 0.0115649
579 1 26.8252 5.80215 0 1.01129 2 0 0.130516 0.99134 -0.00723276 -0.0155795
580 1 27.8466 5.8505 0 1.02117 2 0 0.132182 0.98921 -0.000123301 -0.00132263
530 1 28.3428 4.9327 0 1.02091 2 0 0.0730515 1 0.00113624 0.00708033
581 1 28.9022 5.75818 0 1.01861 2 0 0.118449 0.993904 0.00325734 0.0040804
632 1 29.9531 5.72796 0 1.0167 2 0 0.112361 0.997303 0.0140532 0.00325825
532 1 30.4921 4.87318 0 1.0182 2 0 0.0680686 1 -0.00598683 -0.0103999
582 1 30.9898 5.73354 0 1.0143 2 1 0.111779 0.999796 0.0022457 -0.00152511
583 1 31.9897 5.77789 0 1.0088 2 2 0.108552 0.999996 0.000587943 0.00280151
584 1 32.9976 5.72762 0 1.00514 2 1 0.10646 0.99878 -0.00508464 -0.00153784
535 1 33.4933 4.86499 0 1.00275 2 0 0.0667562 1 0.0146414 -0.00188308
536 1 34.4984 4.86303 0 1.0237 2 0 0.0681641 1 -0.00130042 0.00896369
585 1 33.9978 5.72882 0 1.02197 2 0 0.111854 0.995443 -3.67195e-05 -0.000711162
586 1 35.004 5.73048 0 1.02669 2 0 0.112933 0.99616 -0.0218925 0.00921701
538 1 36.4941 4.87044 0 1.01227 2 0 0.0674475 1 0.0127761 -0.0124833
587 1 35.9959 5.72918 0 1.01702 2 0 0.11321 0.998758 0.0181481 0.0131255
539 1 37.4942 4.86668 0 1.00174 2 0 0.0675741 1 -0.00138567 -0.00240347
588 1 36.9953 5.73869 0 1.01798 2 0 0.113551 0.997526 -0.00668886 -0.00617754
589 1 37.9921 5.72971 0 1.01656 2 0 0.11338 0.995953 0.00822222 0.00580861
590 1 38.9912 5.73063 0 1.01208 2 0 0.111122 0.997329 0.00625636 0.00438803
591 1 39.9932 5.73092 0 1.01334 2 0 0.108017 0.992276 -0.000362174 -0.000599139
592 1 40.9936 5.72328 0 1.02633 2 0 0.101374 0.944613 0.00102498 0.0169453
594 1 43.0062 5.75722 0 1.01497 2 0 0.0920155 0.929658 -0.000355287 -0.00313228
593 1 41.9974 5.73525 0 1.02837 2 0 0.0954987 0.905229 -0.00460044 0.000128719
596 1 45.0021 5.7291 0 1.01116 2 0 0.100041 0.998941 -0.00405805 0.010607
595 1 44.0053 5.7332 0 1.01694 2 0 0.0937699 0.985279 -0.00765192 -0.0067507
597 1 45.9988 5.73498 0 1.01212 2 0 0.101652 0.999048 0.00406218 -0.00434367
598 1 46.9999 5.72711 0 1.00861 2 0 0.101436 0.999404 -0.00963528 -0.00390959
599 1 47.999 5.73281 0 1.02545 2 0 0.102367 0.999774 0.00553278 -0.00743498
600 1 48.9987 5.72762 0 1.00476 2 0 0.112186 0.993403 -0.00465248 -0.00725969
601 2 0 7 0 1 2 8 3.80277e-06 1 0 0
602 2 1 7 0 1 2 8 2.27731e-05 1 0 0
651 2 0 8 0 1 2 8 4.45163e-06 1 0 0
652 2 1 8 0 1 2 8 2.6749e-05 1 0 0
603 2 2 7 0 1 2 8 0.000231279 1 0 0
604 2 3 7 0 1 2 8 0.00191169 1 0 0
653 2 2 8 0 1 2 8 0.000274568 1 0 0
654 2 3 8 0 1 2 8 0.00231669 1 0 0
605 2 4 7 0 1 2 5 0.0113497 1 0 0
655 2 4 8 0 1 2 5 0.0138498 1 0 0
606 1 5.49424 6.70221 0 1.01839 2 0 0.0434948 1 0.00136761 -0.00192725
656 1 4.9061 7.50953 0 1.01253 2 0 0.0371794 1 -0.0138067 -0.00187233
607 1 6.52827 6.66708 0 1.01626 2 0 0.0584422 1 -0.000673294 -0.000140782
657 1 5.8586 7.79282 0 1.02523 2 0 0.0648693 1 -0.0045357 0.00623524
608 1 7.51896 6.80066 0 1.01581 2 0 0.0747815 1 -0.00248076 -0.000299896
609 1 8.69865 7.95005 0 1.00447 2 0 0.1332 1 -7.81361e-09 -5.00071e-05
658 1 6.83889 7.64349 0 1.00499 2 0 0.0831334 1 -0.000726017 -0.0286918
559 1 8.51157 6.90787 0 1.01669 2 0 0.0963205 1 -0.0195471 -0.00646743
610 1 9.45868 7.18982 0 1.00382 2 0 0.122028 0.999999 0.00863666 -0.00806453
661 1 9.83478 8.10852 0 1.00906 2 0 0.161858 0.990462 0.00511746 0.0133123
611 1 10.4464 7.31535 0 1.00368 2 0 0.142283 0.991999 0.0103742 0.00645497
612 1 10.82 8.31219 0 1.00002 2 0 0.19126 0.742998 -0.00423377 -0.00258062
564 1 11.3534 6.67 0 1.01095 2 0 0.12872 0.994188 0.00410792 0.00995421
613 1 11.7952 7.57005 0 1.00877 2 0 0.184867 0.689649 -0.00286644 -0.00635379
614 1 12.386 6.64783 0 1.01882 2 0 0.13759 0.95345 0.00568744 0.0126558
615 1 13.4863 6.61842 0 1.00601 2 1 0.149899 0.884769 -0.00287407 -0.00547939
616 1 14.494 6.59972 0 1.00878 2 1 0.157379 0.931075 -0.000386241 0.000498363
666 1 14.4836 7.73544 0 0.997531 2 3 0.248497 0.250457 -0.00277224 -0.002072
665 1 13.5814 7.91495 0 1.00298 0 0 0.254991 0.618276 0.0012676 0.00117367
617 1 15.5214 6.60104 0 1.01132 2 1 0.159839 0.839996 0.00294386 0.00851778
618 1 17.0647 6.02351 0 1.00786 2 0 0.139268 0.980928 0.0167493 0.00317135
619 1 17.5142 7.01793 0 1.00791 2 1 0.214961 0.567835 -0.00176941 0.00268559
620 1 18.6329 7.04961 0 1.00047 2 0 0.208307 0.680267 0.00359001 -0.00281511
621 1 19.5532 6.62634 0 1.01086 2 0 0.164531 0.862373 -0.00973321 -0.00248116
671 1 19.9739 7.83217 0 1.00163 0 0 0.277562 0.716418 0.000136408 -0.00133924
622 1 20.5483 6.63191 0 1.02282 2 0 0.15553 0.864859 0.0106981 -0.00528591
623 1 21.5757 6.64416 0 1.01715 2 0 0.154908 0.90019 -0.00590695 0.00223847
624 1 22.5742 6.65968 0 1.00933 2 0 0.168162 0.816113 0.00376592 -0.00180608
575 1 23.785 6.37808 0 1.01237 2 0 0.158405 0.84359 0.00292745 0.00141626
576 1 24.8936 6.31884 0 1.01087 2 0 0.15826 0.879876 -0.0102932 0.0135029
625 1 23.463 7.69069 0 0.995462 0 0 0.286341 0.807126 4.3208e-05 6.86545e-05
578 1 26.2606 6.64926 0 1.0136 2 0 0.185052 0.743236 -0.0055755 -0.00750922
628 1 26.3313 7.73352 0 1.00684 0 0 0.283208 0.737623 -6.61048e-05 0.000470077
629 1 27.2574 6.69421 0 1.00585 2 0 0.191657 0.772995 0.00903549 0.00718204
630 1 28.2495 6.8218 0 1.00031 2 0 0.209668 0.654029 -0.00113056 -0.00071946
631 1 29.4582 6.59051 0 1.01679 2 0 0.166828 0.822722 -0.0142138 -0.000823534
682 1 30.4533 6.58897 0 1.0233 2 1 0.158568 0.917092 0.000665001 -0.00682938
633 1 31.4491 6.65299 0 1.00197 2 2 0.168175 0.970178 0.000136584 0.00148367
683 1 31.5633 7.53366 0 1.00602 2 5 0.245695 0.547011 -0.000354399 0.00143903
684 1 32.7835 7.4454 0 1.01173 2 6 0.243086 0.499824 0.0017541 1.97108e-05
634 1 33.4606 6.60786 0 1.00318 2 1 0.16712 0.870401 0.00410528 0.00693599
635 1 34.5115 6.59896 0 1.01335 2 1 0.163017 0.817282 -0.00116182 -0.00902832
685 1 33.9038 7.82544 0 1.0096 0 0 0.27098 0.666216 0.000267173 0.000127257
636 1 35.5072 6.59598 0 1.01343 2 0 0.16666 0.869651 0.00522211 0.00302914
637 1 36.3387 7.15726 0 0.995425 2 0 0.218037 0.581252 -0.000260546 -0.002867
638 1 37.2318 6.7073 0 1.00947 2 0 0.181039 0.808525 -7.4612e-05 5.5892e-06
639 1 38.2342 6.70111 0 1.00618 2 0 0.177307 0.772427 -8.10908e-05 -0.0061795
689 1 38.1998 7.84384 0 1.00913 0 0 0.274947 0.742217 -0.00034766 -2.79292e-06
640 1 39.2364 6.69734 0 1.01834 2 0 0.173197 0.807626 -0.00606612 -0.00315115
690 1 39.1341 7.99601 0 1.00799 0 0 0.288859 0.831395 -0.000149206 -3.83483e-05
641 1 40.2326 6.7019 0 1.00947 2 0 0.178652 0.689935 0.00255271 -0.00598862
642 1 41.2998 7.23165 0 1.01135 0 0 0.255579 0.733803 0.000521145 0.000178325
643 1 42.1717 7.26893 0 1.00853 0 0 0.272544 0.903195 0.000882258 9.36999e-05
644 1 43.003 7.37147 0 1.00643 0 0 0.283621 0.902852 0.000593656 0.000629705
645 1 43.7942 7.80496 0 1.00608 0 0 0.29764 0.913179 6.05668e-05 0.00110592
646 1 44.4999 6.59618 0 1.0312 2 0 0.149205 0.816061 0.00449576 -0.00127837
696 1 45.0149 8.14686 0 1.00553 0 0 0.306917 0.925532 0.000125804 0.000704202