ITEM: TIMESTEP
500
ITEM: NUMBER OF ATOMS
15950
ITEM: BOX BOUNDS pp pp pp
0.0000000000000000e+00 1.0000000000000000e+02
-5.0000000000000000e+00 2.0000000000000000e+02
-5.0000000000000000e-01 5.0000000000000000e-01
ITEM: ATOMS id type x y z c_rho c_phase c_nbond c_temp f_rheo_chi_chi fx fy
1 2 0 -5 0 1 2 8 5.10907e-21 1 0 0
2 2 1 -5 0 1 2 8 2.26778e-20 1 0 0
51 2 0 -4 0 1 2 8 2.39939e-19 1 0 0
52 2 1 -4 0 1 2 8 1.23474e-18 1 0 0
3 2 2 -5 0 1 2 8 1.07112e-19 1 0 0
4 2 3 -5 0 1 2 8 3.54557e-19 1 0 0
53 2 2 -4 0 1 2 8 6.44196e-18 1 0 0
54 2 3 -4 0 1 2 8 2.2546e-17 1 0 0
5 2 4 -5 0 1 2 7 8.32701e-19 1 0 0
55 2 4 -4 0 1 2 8 5.45116e-17 1 0 0
6 2 5 -5 0 1 2 6 1.43835e-18 1 0 0
7 2 6 -5 0 1 2 5 1.93222e-18 1 0 0
56 2 5 -4 0 1 2 8 9.5409e-17 1 0 0
57 2 6 -4 0 1 2 8 1.28998e-16 1 0 0
8 2 7 -5 0 1 2 5 2.17381e-18 1 0 0
9 2 8 -5 0 1 2 5 2.19693e-18 1 0 0
58 2 7 -4 0 1 2 8 1.45677e-16 1 0 0
59 2 8 -4 0 1 2 8 1.4765e-16 1 0 0
10 2 9 -5 0 1 2 5 2.12445e-18 1 0 0
60 2 9 -4 0 1 2 8 1.43043e-16 1 0 0
11 2 10 -5 0 1 2 5 2.0632e-18 1 0 0
12 2 11 -5 0 1 2 5 2.03175e-18 1 0 0
61 2 10 -4 0 1 2 8 1.38945e-16 1 0 0
62 2 11 -4 0 1 2 8 1.36788e-16 1 0 0
13 2 12 -5 0 1 2 5 2.01049e-18 1 0 0
14 2 13 -5 0 1 2 5 2.02391e-18 1 0 0
63 2 12 -4 0 1 2 8 1.355e-16 1 0 0
64 2 13 -4 0 1 2 8 1.36664e-16 1 0 0
15 2 14 -5 0 1 2 5 2.06337e-18 1 0 0
65 2 14 -4 0 1 2 8 1.39542e-16 1 0 0
16 2 15 -5 0 1 2 5 2.0481e-18 1 0 0
17 2 16 -5 0 1 2 5 1.9553e-18 1 0 0
66 2 15 -4 0 1 2 8 1.38613e-16 1 0 0
67 2 16 -4 0 1 2 8 1.32361e-16 1 0 0
18 2 17 -5 0 1 2 5 1.89301e-18 1 0 0
19 2 18 -5 0 1 2 5 1.94415e-18 1 0 0
68 2 17 -4 0 1 2 8 1.2808e-16 1 0 0
69 2 18 -4 0 1 2 8 1.31415e-16 1 0 0
20 2 19 -5 0 1 2 5 2.04908e-18 1 0 0
70 2 19 -4 0 1 2 8 1.38399e-16 1 0 0
21 2 20 -5 0 1 2 5 2.08418e-18 1 0 0
22 2 21 -5 0 1 2 5 2.01391e-18 1 0 0
71 2 20 -4 0 1 2 8 1.40775e-16 1 0 0
72 2 21 -4 0 1 2 8 1.36174e-16 1 0 0
23 2 22 -5 0 1 2 5 1.9061e-18 1 0 0
24 2 23 -5 0 1 2 5 1.81477e-18 1 0 0
73 2 22 -4 0 1 2 8 1.29159e-16 1 0 0
74 2 23 -4 0 1 2 8 1.23412e-16 1 0 0
25 2 24 -5 0 1 2 5 1.73746e-18 1 0 0
75 2 24 -4 0 1 2 8 1.18665e-16 1 0 0
26 2 25 -5 0 1 2 5 1.68486e-18 1 0 0
27 2 26 -5 0 1 2 5 1.70541e-18 1 0 0
76 2 25 -4 0 1 2 8 1.15315e-16 1 0 0
77 2 26 -4 0 1 2 8 1.16468e-16 1 0 0
28 2 27 -5 0 1 2 5 1.8127e-18 1 0 0
29 2 28 -5 0 1 2 5 1.93765e-18 1 0 0
78 2 27 -4 0 1 2 8 1.23149e-16 1 0 0
79 2 28 -4 0 1 2 8 1.30965e-16 1 0 0
30 2 29 -5 0 1 2 5 2.02104e-18 1 0 0
80 2 29 -4 0 1 2 8 1.362e-16 1 0 0
31 2 30 -5 0 1 2 5 2.10147e-18 1 0 0
32 2 31 -5 0 1 2 5 2.21854e-18 1 0 0
81 2 30 -4 0 1 2 8 1.41419e-16 1 0 0
82 2 31 -4 0 1 2 8 1.49132e-16 1 0 0
33 2 32 -5 0 1 2 5 2.32669e-18 1 0 0
34 2 33 -5 0 1 2 5 2.34909e-18 1 0 0
83 2 32 -4 0 1 2 8 1.56135e-16 1 0 0
84 2 33 -4 0 1 2 8 1.57317e-16 1 0 0
35 2 34 -5 0 1 2 5 2.29338e-18 1 0 0
85 2 34 -4 0 1 2 8 1.53413e-16 1 0 0
36 2 35 -5 0 1 2 5 2.23834e-18 1 0 0
37 2 36 -5 0 1 2 5 2.22492e-18 1 0 0
86 2 35 -4 0 1 2 8 1.49797e-16 1 0 0
87 2 36 -4 0 1 2 8 1.49027e-16 1 0 0
38 2 37 -5 0 1 2 5 2.24769e-18 1 0 0
39 2 38 -5 0 1 2 5 2.29451e-18 1 0 0
88 2 37 -4 0 1 2 8 1.50515e-16 1 0 0
89 2 38 -4 0 1 2 8 1.53454e-16 1 0 0
40 2 39 -5 0 1 2 5 2.32859e-18 1 0 0
90 2 39 -4 0 1 2 8 1.5567e-16 1 0 0
41 2 40 -5 0 1 2 5 2.29069e-18 1 0 0
42 2 41 -5 0 1 2 5 2.14021e-18 1 0 0
91 2 40 -4 0 1 2 8 1.53398e-16 1 0 0
92 2 41 -4 0 1 2 8 1.43892e-16 1 0 0
43 2 42 -5 0 1 2 5 1.93225e-18 1 0 0
44 2 43 -5 0 1 2 5 1.80225e-18 1 0 0
93 2 42 -4 0 1 2 8 1.30508e-16 1 0 0
94 2 43 -4 0 1 2 8 1.22004e-16 1 0 0
45 2 44 -5 0 1 2 5 1.85301e-18 1 0 0
95 2 44 -4 0 1 2 8 1.25378e-16 1 0 0
46 2 45 -5 0 1 2 5 2.03124e-18 1 0 0
47 2 46 -5 0 1 2 5 2.13866e-18 1 0 0
96 2 45 -4 0 1 2 8 1.37304e-16 1 0 0
97 2 46 -4 0 1 2 8 1.44564e-16 1 0 0
48 2 47 -5 0 1 2 5 2.0586e-18 1 0 0
49 2 48 -5 0 1 2 5 1.88943e-18 1 0 0
98 2 47 -4 0 1 2 8 1.39343e-16 1 0 0
99 2 48 -4 0 1 2 8 1.28197e-16 1 0 0
50 2 49 -5 0 1 2 5 1.7709e-18 1 0 0
100 2 49 -4 0 1 2 8 1.20411e-16 1 0 0
101 2 0 -3 0 1 2 8 9.50996e-18 1 0 0
102 2 1 -3 0 1 2 8 5.82367e-17 1 0 0
151 2 0 -2 0 1 2 8 3.18424e-16 1 0 0
152 2 1 -2 0 1 2 8 2.4543e-15 1 0 0
103 2 2 -3 0 1 2 8 3.71499e-16 1 0 0
104 2 3 -3 0 1 2 8 1.53679e-15 1 0 0
153 2 2 -2 0 1 2 8 1.83199e-14 1 0 0
154 2 3 -2 0 1 2 8 8.20442e-14 1 0 0
105 2 4 -3 0 1 2 8 4.16841e-15 1 0 0
155 2 4 -2 0 1 2 8 2.30832e-13 1 0 0
106 2 5 -3 0 1 2 8 7.73272e-15 1 0 0
107 2 6 -3 0 1 2 8 1.06061e-14 1 0 0
156 2 5 -2 0 1 2 8 4.35241e-13 1 0 0
157 2 6 -2 0 1 2 8 6.02004e-13 1 0 0
108 2 7 -3 0 1 2 8 1.19415e-14 1 0 0
109 2 8 -3 0 1 2 8 1.19901e-14 1 0 0
158 2 7 -2 0 1 2 8 6.81806e-13 1 0 0
159 2 8 -2 0 1 2 8 6.88926e-13 1 0 0
110 2 9 -3 0 1 2 8 1.15091e-14 1 0 0
160 2 9 -2 0 1 2 8 6.64386e-13 1 0 0
111 2 10 -3 0 1 2 8 1.1201e-14 1 0 0
112 2 11 -3 0 1 2 8 1.11059e-14 1 0 0
161 2 10 -2 0 1 2 8 6.46498e-13 1 0 0
162 2 11 -2 0 1 2 8 6.39781e-13 1 0 0
113 2 12 -3 0 1 2 8 1.09451e-14 1 0 0
114 2 13 -3 0 1 2 8 1.10235e-14 1 0 0
163 2 12 -2 0 1 2 8 6.32061e-13 1 0 0
164 2 13 -2 0 1 2 8 6.38514e-13 1 0 0
115 2 14 -3 0 1 2 8 1.13773e-14 1 0 0
165 2 14 -2 0 1 2 8 6.59411e-13 1 0 0
116 2 15 -3 0 1 2 8 1.13523e-14 1 0 0
117 2 16 -3 0 1 2 8 1.06743e-14 1 0 0
166 2 15 -2 0 1 2 8 6.58178e-13 1 0 0
167 2 16 -2 0 1 2 8 6.20586e-13 1 0 0
118 2 17 -3 0 1 2 8 1.02104e-14 1 0 0
119 2 18 -3 0 1 2 8 1.05724e-14 1 0 0
168 2 17 -2 0 1 2 8 5.94292e-13 1 0 0
169 2 18 -2 0 1 2 8 6.1356e-13 1 0 0
120 2 19 -3 0 1 2 8 1.13175e-14 1 0 0
170 2 19 -2 0 1 2 8 6.54165e-13 1 0 0
121 2 20 -3 0 1 2 8 1.15487e-14 1 0 0
122 2 21 -3 0 1 2 8 1.10579e-14 1 0 0
171 2 20 -2 0 1 2 8 6.67126e-13 1 0 0
172 2 21 -2 0 1 2 8 6.40716e-13 1 0 0
123 2 22 -3 0 1 2 8 1.04138e-14 1 0 0
124 2 23 -3 0 1 2 8 9.96411e-15 1 0 0
173 2 22 -2 0 1 2 8 6.05833e-13 1 0 0
174 2 23 -2 0 1 2 8 5.82629e-13 1 0 0
125 2 24 -3 0 1 2 8 9.5559e-15 1 0 0
175 2 24 -2 0 1 2 8 5.62914e-13 1 0 0
126 2 25 -3 0 1 2 8 9.19813e-15 1 0 0
127 2 26 -3 0 1 2 8 9.26459e-15 1 0 0
176 2 25 -2 0 1 2 8 5.44542e-13 1 0 0
177 2 26 -2 0 1 2 8 5.46863e-13 1 0 0
128 2 27 -3 0 1 2 8 9.9301e-15 1 0 0
129 2 28 -3 0 1 2 8 1.06865e-14 1 0 0
178 2 27 -2 0 1 2 8 5.80194e-13 1 0 0
179 2 28 -2 0 1 2 8 6.18332e-13 1 0 0
130 2 29 -3 0 1 2 8 1.10463e-14 1 0 0
180 2 29 -2 0 1 2 8 6.37185e-13 1 0 0
131 2 30 -3 0 1 2 8 1.14106e-14 1 0 0
132 2 31 -3 0 1 2 8 1.21046e-14 1 0 0
181 2 30 -2 0 1 2 8 6.57626e-13 1 0 0
182 2 31 -2 0 1 2 8 6.96121e-13 1 0 0
133 2 32 -3 0 1 2 8 1.28024e-14 1 0 0
134 2 33 -3 0 1 2 8 1.28978e-14 1 0 0
183 2 32 -2 0 1 2 8 7.33289e-13 1 0 0
184 2 33 -2 0 1 2 8 7.3632e-13 1 0 0
135 2 34 -3 0 1 2 8 1.24664e-14 1 0 0
185 2 34 -2 0 1 2 8 7.11341e-13 1 0 0
136 2 35 -3 0 1 2 8 1.21324e-14 1 0 0
137 2 36 -3 0 1 2 8 1.20841e-14 1 0 0
186 2 35 -2 0 1 2 8 6.93503e-13 1 0 0
187 2 36 -2 0 1 2 8 6.91818e-13 1 0 0
138 2 37 -3 0 1 2 8 1.21969e-14 1 0 0
139 2 38 -3 0 1 2 8 1.24775e-14 1 0 0
188 2 37 -2 0 1 2 8 6.97944e-13 1 0 0
189 2 38 -2 0 1 2 8 7.11749e-13 1 0 0
140 2 39 -3 0 1 2 8 1.27236e-14 1 0 0
190 2 39 -2 0 1 2 8 7.24392e-13 1 0 0
141 2 40 -3 0 1 2 8 1.25996e-14 1 0 0
142 2 41 -3 0 1 2 8 1.17465e-14 1 0 0
191 2 40 -2 0 1 2 8 7.18493e-13 1 0 0
192 2 41 -2 0 1 2 8 6.74768e-13 1 0 0
143 2 42 -3 0 1 2 8 1.04742e-14 1 0 0
144 2 43 -3 0 1 2 8 9.64202e-15 1 0 0
193 2 42 -2 0 1 2 8 6.07994e-13 1 0 0
194 2 43 -2 0 1 2 8 5.62936e-13 1 0 0
145 2 44 -3 0 1 2 8 9.97284e-15 1 0 0
195 2 44 -2 0 1 2 8 5.80677e-13 1 0 0
146 2 45 -3 0 1 2 8 1.12258e-14 1 0 0
147 2 46 -3 0 1 2 8 1.19831e-14 1 0 0
196 2 45 -2 0 1 2 8 6.49623e-13 1 0 0
197 2 46 -2 0 1 2 8 6.91828e-13 1 0 0
148 2 47 -3 0 1 2 8 1.13798e-14 1 0 0
149 2 48 -3 0 1 2 8 1.02792e-14 1 0 0
198 2 47 -2 0 1 2 8 6.59734e-13 1 0 0
199 2 48 -2 0 1 2 8 6.00018e-13 1 0 0
150 2 49 -3 0 1 2 8 9.62595e-15 1 0 0
200 2 49 -2 0 1 2 8 5.641e-13 1 0 0
201 2 0 -1 0 1 2 8 9.26989e-15 1 0 0
202 2 1 -1 0 1 2 8 7.95828e-14 1 0 0
203 2 2 -1 0 1 2 8 7.77457e-13 1 0 0
204 2 3 -1 0 1 2 8 4.54087e-12 1 0 0
205 2 4 -1 0 1 2 8 1.54168e-11 1 0 0
206 2 5 -1 0 1 2 8 3.18966e-11 1 0 0
207 2 6 -1 0 1 2 8 4.48619e-11 1 0 0
208 2 7 -1 0 1 2 8 5.06863e-11 1 0 0
209 2 8 -1 0 1 2 8 5.06824e-11 1 0 0
210 2 9 -1 0 1 2 8 4.82471e-11 1 0 0
211 2 10 -1 0 1 2 8 4.71851e-11 1 0 0
212 2 11 -1 0 1 2 8 4.74765e-11 1 0 0
213 2 12 -1 0 1 2 8 4.63281e-11 1 0 0
214 2 13 -1 0 1 2 8 4.66196e-11 1 0 0
215 2 14 -1 0 1 2 8 4.89678e-11 1 0 0
216 2 15 -1 0 1 2 8 4.93777e-11 1 0 0
217 2 16 -1 0 1 2 8 4.5372e-11 1 0 0
218 2 17 -1 0 1 2 8 4.2778e-11 1 0 0
219 2 18 -1 0 1 2 8 4.47405e-11 1 0 0
220 2 19 -1 0 1 2 8 4.88304e-11 1 0 0
221 2 20 -1 0 1 2 8 4.9984e-11 1 0 0
222 2 21 -1 0 1 2 8 4.71998e-11 1 0 0
223 2 22 -1 0 1 2 8 4.42113e-11 1 0 0
224 2 23 -1 0 1 2 8 4.27697e-11 1 0 0
225 2 24 -1 0 1 2 8 4.12314e-11 1 0 0
226 2 25 -1 0 1 2 8 3.93406e-11 1 0 0
227 2 26 -1 0 1 2 8 3.92536e-11 1 0 0
228 2 27 -1 0 1 2 8 4.2461e-11 1 0 0
229 2 28 -1 0 1 2 8 4.61695e-11 1 0 0
230 2 29 -1 0 1 2 8 4.68951e-11 1 0 0
231 2 30 -1 0 1 2 8 4.80569e-11 1 0 0
232 2 31 -1 0 1 2 8 5.12722e-11 1 0 0
233 2 32 -1 0 1 2 8 5.49033e-11 1 0 0
234 2 33 -1 0 1 2 8 5.5104e-11 1 0 0
235 2 34 -1 0 1 2 8 5.24427e-11 1 0 0
236 2 35 -1 0 1 2 8 5.10288e-11 1 0 0
237 2 36 -1 0 1 2 8 5.10998e-11 1 0 0
238 2 37 -1 0 1 2 8 5.13034e-11 1 0 0
239 2 38 -1 0 1 2 8 5.26231e-11 1 0 0
240 2 39 -1 0 1 2 8 5.37773e-11 1 0 0
241 2 40 -1 0 1 2 8 5.38336e-11 1 0 0
242 2 41 -1 0 1 2 8 5.01286e-11 1 0 0
243 2 42 -1 0 1 2 8 4.4222e-11 1 0 0
244 2 43 -1 0 1 2 8 4.01482e-11 1 0 0
245 2 44 -1 0 1 2 8 4.16303e-11 1 0 0
246 2 45 -1 0 1 2 8 4.84704e-11 1 0 0
247 2 46 -1 0 1 2 8 5.27128e-11 1 0 0
248 2 47 -1 0 1 2 8 4.89631e-11 1 0 0
249 2 48 -1 0 1 2 8 4.34319e-11 1 0 0
250 2 49 -1 0 1 2 8 4.09523e-11 1 0 0
251 2 0 0 0 1 2 8 2.03301e-13 1 0 0
252 2 1 0 0 1 2 8 2.14681e-12 1 0 0
301 2 0 1 0 1 2 8 3.45868e-12 1 0 0
302 2 1 1 0 1 2 8 4.76847e-11 1 0 0
253 2 2 0 0 1 2 8 2.8497e-11 1 0 0
254 2 3 0 0 1 2 8 1.90808e-10 1 0 0
303 2 2 1 0 1 2 8 6.88232e-10 1 0 0
304 2 3 1 0 1 2 8 7.23502e-09 1 0 0
255 2 4 0 0 1 2 8 6.79937e-10 1 0 0
305 2 4 1 0 1 2 8 3.66982e-08 1 0 0
256 2 5 0 0 1 2 8 1.43053e-09 1 0 0
257 2 6 0 0 1 2 8 2.0332e-09 1 0 0
306 2 5 1 0 1 2 8 9.17419e-08 1 0 0
307 2 6 1 0 1 2 8 1.32378e-07 1 0 0
258 2 7 0 0 1 2 8 2.31744e-09 1 0 0
259 2 8 0 0 1 2 8 2.34742e-09 1 0 0
308 2 7 1 0 1 2 8 1.50999e-07 1 0 0
309 2 8 1 0 1 2 8 1.50581e-07 1 0 0
260 2 9 0 0 1 2 8 2.25842e-09 1 0 0
310 2 9 1 0 1 2 8 1.41913e-07 1 0 0
261 2 10 0 0 1 2 8 2.20476e-09 1 0 0
262 2 11 0 0 1 2 8 2.20126e-09 1 0 0
311 2 10 1 0 1 2 8 1.40149e-07 1 0 0
312 2 11 1 0 1 2 8 1.45806e-07 1 0 0
263 2 12 0 0 1 2 8 2.16331e-09 1 0 0
264 2 13 0 0 1 2 8 2.18957e-09 1 0 0
313 2 12 1 0 1 2 8 1.38512e-07 1 0 0
314 2 13 1 0 1 2 8 1.39721e-07 1 0 0
265 2 14 0 0 1 2 8 2.29404e-09 1 0 0
315 2 14 1 0 1 2 8 1.50228e-07 1 0 0
266 2 15 0 0 1 2 8 2.30874e-09 1 0 0
267 2 16 0 0 1 2 8 2.14229e-09 1 0 0
316 2 15 1 0 1 2 8 1.5495e-07 1 0 0
317 2 16 1 0 1 2 8 1.37118e-07 1 0 0
268 2 17 0 0 1 2 8 2.0302e-09 1 0 0
269 2 18 0 0 1 2 8 2.10783e-09 1 0 0
318 2 17 1 0 1 2 8 1.27963e-07 1 0 0
319 2 18 1 0 1 2 8 1.3479e-07 1 0 0
270 2 19 0 0 1 2 8 2.27402e-09 1 0 0
320 2 19 1 0 1 2 8 1.5045e-07 1 0 0
271 2 20 0 0 1 2 8 2.32378e-09 1 0 0
272 2 21 0 0 1 2 8 2.21229e-09 1 0 0
321 2 20 1 0 1 2 8 1.54662e-07 1 0 0
322 2 21 1 0 1 2 8 1.4294e-07 1 0 0
273 2 22 0 0 1 2 8 2.08775e-09 1 0 0
274 2 23 0 0 1 2 8 2.03191e-09 1 0 0
323 2 22 1 0 1 2 8 1.32802e-07 1 0 0
324 2 23 1 0 1 2 8 1.31238e-07 1 0 0
275 2 24 0 0 1 2 8 1.985e-09 1 0 0
325 2 24 1 0 1 2 8 1.28322e-07 1 0 0
276 2 25 0 0 1 2 8 1.91532e-09 1 0 0
277 2 26 0 0 1 2 8 1.90486e-09 1 0 0
326 2 25 1 0 1 2 8 1.21669e-07 1 0 0
327 2 26 1 0 1 2 8 1.19369e-07 1 0 0
278 2 27 0 0 1 2 8 2.01943e-09 1 0 0
279 2 28 0 0 1 2 8 2.15117e-09 1 0 0
328 2 27 1 0 1 2 8 1.29689e-07 1 0 0
329 2 28 1 0 1 2 8 1.43588e-07 1 0 0
280 2 29 0 0 1 2 8 2.18302e-09 1 0 0
330 2 29 1 0 1 2 8 1.40191e-07 1 0 0
281 2 30 0 0 1 2 8 2.23893e-09 1 0 0
282 2 31 0 0 1 2 8 2.37863e-09 1 0 0
331 2 30 1 0 1 2 8 1.43351e-07 1 0 0
332 2 31 1 0 1 2 8 1.53577e-07 1 0 0
283 2 32 0 0 1 2 8 2.52326e-09 1 0 0
284 2 33 0 0 1 2 8 2.51813e-09 1 0 0
333 2 32 1 0 1 2 8 1.67728e-07 1 0 0
334 2 33 1 0 1 2 8 1.67029e-07 1 0 0
285 2 34 0 0 1 2 8 2.40045e-09 1 0 0
335 2 34 1 0 1 2 8 1.54686e-07 1 0 0
286 2 35 0 0 1 2 8 2.34553e-09 1 0 0
287 2 36 0 0 1 2 8 2.35397e-09 1 0 0
336 2 35 1 0 1 2 8 1.51763e-07 1 0 0
337 2 36 1 0 1 2 8 1.53895e-07 1 0 0
288 2 37 0 0 1 2 8 2.36365e-09 1 0 0
289 2 38 0 0 1 2 8 2.40667e-09 1 0 0
338 2 37 1 0 1 2 8 1.51508e-07 1 0 0
339 2 38 1 0 1 2 8 1.57155e-07 1 0 0
290 2 39 0 0 1 2 8 2.44873e-09 1 0 0
340 2 39 1 0 1 2 8 1.58876e-07 1 0 0
291 2 40 0 0 1 2 8 2.45153e-09 1 0 0
292 2 41 0 0 1 2 8 2.31423e-09 1 0 0
341 2 40 1 0 1 2 8 1.62462e-07 1 0 0
342 2 41 1 0 1 2 8 1.50715e-07 1 0 0
293 2 42 0 0 1 2 8 2.08765e-09 1 0 0
294 2 43 0 0 1 2 8 1.9199e-09 1 0 0
343 2 42 1 0 1 2 8 1.32849e-07 1 0 0
344 2 43 1 0 1 2 8 1.19842e-07 1 0 0
295 2 44 0 0 1 2 8 1.97775e-09 1 0 0
345 2 44 1 0 1 2 8 1.23602e-07 1 0 0
296 2 45 0 0 1 2 8 2.26192e-09 1 0 0
297 2 46 0 0 1 2 8 2.44018e-09 1 0 0
346 2 45 1 0 1 2 8 1.49583e-07 1 0 0
347 2 46 1 0 1 2 8 1.66915e-07 1 0 0
298 2 47 0 0 1 2 8 2.29281e-09 1 0 0
299 2 48 0 0 1 2 8 2.06751e-09 1 0 0
348 2 47 1 0 1 2 8 1.49339e-07 1 0 0
349 2 48 1 0 1 2 8 1.30195e-07 1 0 0
300 2 49 0 0 1 2 8 1.95993e-09 1 0 0
350 2 49 1 0 1 2 8 1.25978e-07 1 0 0
351 2 0 2 0 1 2 8 4.48658e-11 1 0 0
352 2 1 2 0 1 2 8 6.52339e-10 1 0 0
401 2 0 3 0 1 2 8 3.06557e-10 1 0 0
402 2 1 3 0 1 2 8 6.32435e-09 1 0 0
353 2 2 2 0 1 2 8 1.37376e-08 1 0 0
354 2 3 2 0 1 2 8 2.10061e-07 1 0 0
403 2 2 3 0 1 2 8 1.93184e-07 1 0 0
404 2 3 3 0 1 2 8 2.98977e-06 1 0 0
355 2 4 2 0 1 2 8 1.1565e-06 1 0 0
405 2 4 3 0 1 2 8 3.90375e-05 1 0 0
356 2 5 2 0 1 2 8 2.92757e-06 1 0 0
357 2 6 2 0 1 2 8 4.29027e-06 1 0 0
406 2 5 3 0 1 2 8 0.000151737 1 0 0
407 2 6 3 0 1 2 8 0.000225132 1 0 0
358 2 7 2 0 1 2 8 4.94876e-06 1 0 0
359 2 8 2 0 1 2 8 5.07641e-06 1 0 0
408 2 7 3 0 1 2 8 0.000263097 1 0 0
409 2 8 3 0 1 2 8 0.000249854 1 0 0
360 2 9 2 0 1 2 8 4.9039e-06 1 0 0
410 2 9 3 0 1 2 8 0.000230969 1 0 0
361 2 10 2 0 1 2 8 4.81054e-06 1 0 0
362 2 11 2 0 1 2 8 4.85616e-06 1 0 0
411 2 10 3 0 1 2 8 0.000238954 1 0 0
412 2 11 3 0 1 2 8 0.000271533 1 0 0
363 2 12 2 0 1 2 8 4.73131e-06 1 0 0
364 2 13 2 0 1 2 8 4.82691e-06 1 0 0
413 2 12 3 0 1 2 8 0.00023115 1 0 0
414 2 13 3 0 1 2 8 0.000243089 1 0 0
365 2 14 2 0 1 2 8 5.12967e-06 1 0 0
415 2 14 3 0 1 2 8 0.000273564 1 0 0
366 2 15 2 0 1 2 8 5.23237e-06 1 0 0
367 2 16 2 0 1 2 8 4.77442e-06 1 0 0
416 2 15 3 0 1 2 8 0.000295691 1 0 0
417 2 16 3 0 1 2 8 0.000247227 1 0 0
368 2 17 2 0 1 2 8 4.5153e-06 1 0 0
369 2 18 2 0 1 2 8 4.67877e-06 1 0 0
418 2 17 3 0 1 2 8 0.000234316 1 0 0
419 2 18 3 0 1 2 8 0.000242081 1 0 0
370 2 19 2 0 1 2 8 5.06663e-06 1 0 0
420 2 19 3 0 1 2 8 0.000276211 1 0 0
371 2 20 2 0 1 2 8 5.18597e-06 1 0 0
372 2 21 2 0 1 2 8 4.90058e-06 1 0 0
421 2 20 3 0 1 2 8 0.000287016 1 0 0
422 2 21 3 0 1 2 8 0.000254562 1 0 0
373 2 22 2 0 1 2 8 4.62301e-06 1 0 0
374 2 23 2 0 1 2 8 4.58214e-06 1 0 0
423 2 22 3 0 1 2 8 0.000226891 1 0 0
424 2 23 3 0 1 2 8 0.000235288 1 0 0
375 2 24 2 0 1 2 8 4.59809e-06 1 0 0
425 2 24 3 0 1 2 9 0.000242316 1 0 0
376 2 25 2 0 1 2 8 4.4667e-06 1 0 0
377 2 26 2 0 1 2 8 4.37562e-06 1 0 0
426 2 25 3 0 1 2 9 0.00023068 1 0 0
427 2 26 3 0 1 2 8 0.000217532 1 0 0
378 2 27 2 0 1 2 8 4.57015e-06 1 0 0
379 2 28 2 0 1 2 8 4.81015e-06 1 0 0
428 2 27 3 0 1 2 8 0.000233277 1 0 0
429 2 28 3 0 1 2 8 0.000270387 1 0 0
380 2 29 2 0 1 2 8 4.75852e-06 1 0 0
430 2 29 3 0 1 2 8 0.000235373 1 0 0
381 2 30 2 0 1 2 8 4.88001e-06 1 0 0
382 2 31 2 0 1 2 8 5.18674e-06 1 0 0
431 2 30 3 0 1 2 8 0.00025527 1 0 0
432 2 31 3 0 1 2 8 0.000271371 1 0 0
383 2 32 2 0 1 2 8 5.53332e-06 1 0 0
384 2 33 2 0 1 2 8 5.45078e-06 1 0 0
433 2 32 3 0 1 2 8 0.000306307 1 0 0
434 2 33 3 0 1 2 8 0.000296655 1 0 0
385 2 34 2 0 1 2 8 5.09389e-06 1 0 0
435 2 34 3 0 1 2 8 0.000254681 1 0 0
386 2 35 2 0 1 2 8 5.04092e-06 1 0 0
387 2 36 2 0 1 2 8 5.11621e-06 1 0 0
436 2 35 3 0 1 2 9 0.000263915 1 0 0
437 2 36 3 0 1 2 8 0.000275357 1 0 0
388 2 37 2 0 1 2 8 5.06958e-06 1 0 0
389 2 38 2 0 1 2 8 5.14804e-06 1 0 0
438 2 37 3 0 1 2 8 0.000249845 1 0 0
439 2 38 3 0 1 2 8 0.000277691 1 0 0
390 2 39 2 0 1 2 8 5.1752e-06 1 0 0
440 2 39 3 0 1 2 8 0.000260739 1 0 0
391 2 40 2 0 1 2 8 5.24892e-06 1 0 0
392 2 41 2 0 1 2 8 5.01301e-06 1 0 0
441 2 40 3 0 1 2 8 0.000282645 1 0 0
442 2 41 3 0 1 2 8 0.000254468 1 0 0
393 2 42 2 0 1 2 8 4.63854e-06 1 0 0
394 2 43 2 0 1 2 8 4.29355e-06 1 0 0
443 2 42 3 0 1 2 8 0.000236786 1 0 0
444 2 43 3 0 1 2 8 0.000214136 1 0 0
395 2 44 2 0 1 2 8 4.37231e-06 1 0 0
445 2 44 3 0 1 2 8 0.000224839 1 0 0
396 2 45 2 0 1 2 8 5.05901e-06 1 0 0
397 2 46 2 0 1 2 8 5.51187e-06 1 0 0
446 2 45 3 0 1 2 8 0.000276054 1 0 0
447 2 46 3 0 1 2 8 0.000315086 1 0 0
398 2 47 2 0 1 2 8 5.09695e-06 1 0 0
399 2 48 2 0 1 2 8 4.61667e-06 1 0 0
448 2 47 3 0 1 2 8 0.000263444 1 0 0
449 2 48 3 0 1 2 8 0.000231187 1 0 0
400 2 49 2 0 1 2 8 4.47623e-06 1 0 0
450 2 49 3 0 1 2 8 0.000235183 1 0 0
451 2 0 4 0 1 2 8 1.13601e-09 1 0 0
452 2 1 4 0 1 2 8 3.09131e-08 1 0 0
453 2 2 4 0 1 2 8 1.02504e-06 1 0 0
454 2 3 4 0 1 2 8 3.36114e-05 1 0 0
455 2 4 4 0 1 2 7 0.000686684 1 0 0
506 1 5.01283 5.11423 0 1.0006 2 0 0.0799733 0.929983 -0.00145083 -0.00189151
456 2 5 4 0 1 2 6 0.00262948 0.999157 0 0
457 2 6 4 0 1 2 5 0.00401407 0.995948 0 0
458 2 7 4 0 1 2 6 0.00471245 0.998452 0 0
459 2 8 4 0 1 2 5 0.00497096 0.999845 0 0
508 1 7.0516 4.99161 0 1.03193 2 0 0.156748 0.854661 0.0206259 -0.0138983
460 2 9 4 0 1 2 5 0.00494674 0.999279 0 0
461 2 10 4 0 1 2 5 0.00493201 0.998787 0 0
462 2 11 4 0 1 2 5 0.00483575 0.999021 0 0
512 1 10.7258 4.94135 0 1.01573 2 2 0.169805 0.861894 -0.0104209 0.00289508
463 2 12 4 0 1 2 6 0.00473786 0.997228 0 0
464 2 13 4 0 1 2 5 0.00500964 0.99874 0 0
465 2 14 4 0 1 2 5 0.00531778 0.998032 0 0
466 2 15 4 0 1 2 5 0.00548539 0.996917 0 0
467 2 16 4 0 1 2 5 0.00507157 0.994881 0 0
468 2 17 4 0 1 2 5 0.00496229 0.99208 0 0
469 2 18 4 0 1 2 5 0.00497382 0.99404 0 0
470 2 19 4 0 1 2 5 0.00519824 0.993646 0 0
471 2 20 4 0 1 2 5 0.00530339 0.994023 0 0
472 2 21 4 0 1 2 5 0.00506208 0.998553 0 0
473 2 22 4 0 1 2 5 0.00479279 0.999683 0 0
474 2 23 4 0 1 2 5 0.00482776 0.999523 0 0
475 2 24 4 0 1 2 5 0.00523437 0.999624 0 0
476 2 25 4 0 1 2 5 0.00524786 0.999184 0 0
477 2 26 4 0 1 2 5 0.00502338 0.999418 0 0
478 2 27 4 0 1 2 5 0.0049905 0.999533 0 0
479 2 28 4 0 1 2 5 0.00488461 0.999395 0 0
529 1 27.8939 4.99243 0 1.0019 2 1 0.175412 0.883038 -1.20865e-06 -0.0051046
480 2 29 4 0 1 2 5 0.0047332 0.999819 0 0
481 2 30 4 0 1 2 5 0.00500554 0.998631 0 0
482 2 31 4 0 1 2 5 0.00525257 0.996864 0 0
483 2 32 4 0 1 2 5 0.00551981 0.994639 0 0
484 2 33 4 0 1 2 5 0.00523178 0.994818 0 0
485 2 34 4 0 1 2 5 0.00475326 0.998787 0 0
486 2 35 4 0 1 2 5 0.00495123 0.997704 0 0
487 2 36 4 0 1 2 5 0.00508505 0.998406 0 0
488 2 37 4 0 1 2 5 0.00491829 0.998919 0 0
489 2 38 4 0 1 2 5 0.00491187 0.999624 0 0
539 1 37.9682 4.99228 0 1.00174 2 2 0.166217 0.905769 0.00223077 0.00555477
490 2 39 4 0 1 2 5 0.00471478 0.999993 0 0
491 2 40 4 0 1 2 5 0.00479314 0.999994 0 0
492 2 41 4 0 1 2 5 0.00475302 0.999995 0 0
541 1 39.4206 4.94787 0 1.00168 2 0 0.148268 0.975704 0.000483476 -0.000260171
493 2 42 4 0 1 2 5 0.00492145 0.999837 0 0
494 2 43 4 0 1 2 5 0.00470849 0.999695 0 0
495 2 44 4 0 1 2 5 0.00472743 0.999373 0 0
496 2 45 4 0 1 2 5 0.00522368 0.998357 0 0
497 2 46 4 0 1 2 5 0.00552482 0.998077 0 0
547 1 45.8367 4.98621 0 1.00173 2 1 0.17525 0.812622 0.0047825 -0.0017013
498 2 47 4 0 1 2 5 0.00521687 0.998325 0 0
499 2 48 4 0 1 2 5 0.00497365 0.999092 0 0
500 2 49 4 0 1 2 5 0.00501207 0.999449 0 0
501 2 0 5 0 1 2 8 2.50571e-09 1 0 0
502 2 1 5 0 1 2 8 7.99974e-08 1 0 0
551 2 0 6 0 1 2 8 3.74413e-09 1 0 0
552 2 1 6 0 1 2 8 1.28093e-07 1 0 0
503 2 2 5 0 1 2 8 2.64452e-06 1 0 0
504 2 3 5 0 1 2 8 0.000127194 1 0 0
553 2 2 6 0 1 2 8 4.16986e-06 1 0 0
554 2 3 6 0 1 2 8 0.000225989 1 0 0
505 2 4 5 0 1 2 6 0.0024631 0.999006 0 0
555 2 4 6 0 1 2 5 0.00395853 0.994429 0 0
556 1 4.99484 6.13178 0 1.02426 2 2 0.120434 0.783602 0.0056026 0.000129421
507 1 6.07105 4.97611 0 1.02569 2 2 0.129848 0.820707 -0.00526951 -0.00766607
557 1 6.04351 6.10156 0 1.02001 0 0 0.305833 0.394042 0.000163033 0.00546213
509 1 7.88169 5.52562 0 1.00999 2 0 0.229544 0.600832 0.0123461 -0.0099229
558 1 7.02066 6.42402 0 1.03296 0 0 0.350597 0.763764 -0.00156009 0.00370632
559 1 8.15398 6.6237 0 1.02461 0 0 0.364064 0.788774 0.00289448 0.00201969
510 1 8.85213 5.3197 0 1.01036 2 2 0.237761 0.699128 -0.00749745 -0.00361863
511 1 9.79906 5.27352 0 1.00136 2 1 0.228877 0.669056 -0.0115651 0.0052292
560 1 9.17075 6.40154 0 1.00456 0 0 0.360242 0.714643 -0.000876231 0.00291301
561 1 10.0816 6.32517 0 1.00661 0 0 0.36946 0.749099 -0.00231942 0.00513891
562 1 10.9721 6.45982 0 1.01274 0 0 0.385505 0.843253 0.000485875 0.00744037
513 1 11.8165 5.33504 0 1.01534 2 3 0.231191 0.586543 -0.00704208 0.000382464
514 1 12.8192 5.29361 0 1.01802 2 3 0.22889 0.639292 -0.00690175 0.000814462
563 1 12.0614 6.19138 0 1.02226 0 0 0.350451 0.592529 0.00178863 0.00522733
564 1 13.1991 6.43295 0 1.01767 0 0 0.374539 0.820205 0.00212587 0.00439291
515 1 13.8256 4.97369 0 1.02031 2 1 0.182229 0.824544 -0.00665732 0.00548773
516 1 14.8071 4.95468 0 1.0096 2 3 0.188102 0.80379 -0.00259859 0.0425872
565 1 14.1581 6.24924 0 1.01326 0 0 0.376602 0.811059 -5.33243e-05 0.00471094
566 1 15.1249 6.19522 0 1.01222 0 0 0.376789 0.805231 -0.00189828 0.0053107
517 1 15.7931 4.95785 0 1.02614 2 2 0.189351 0.763615 -0.00114992 0.0203106
567 1 16.1405 6.14489 0 1.01619 0 0 0.369109 0.794154 -0.00274027 0.0066905
518 1 16.888 4.95695 0 1.02515 2 4 0.206741 0.718987 0.000890792 0.0479638
519 1 17.8905 4.95678 0 1.0239 2 2 0.205754 0.733588 0.00237976 0.0538384
568 1 17.0323 6.01556 0 1.01523 0 0 0.358902 0.720498 -0.000522155 0.00936966
569 1 17.9302 6.16597 0 1.01542 0 0 0.375153 0.803558 0.00262918 0.00593224
520 1 18.9794 4.99973 0 1.00577 2 3 0.192436 0.715187 0.00418851 -0.0117789
570 1 18.8739 6.08254 0 1.02212 0 0 0.35931 0.734248 0.00521046 -0.000826968
521 1 19.9742 4.99764 0 1.00453 2 1 0.183361 0.74083 0.00475078 -0.0070857
522 1 21.0584 5.08324 0 1.0139 2 2 0.191896 0.802837 0.00351712 -0.00597906
571 1 19.9335 6.05325 0 1.01889 0 0 0.357656 0.684952 0.00482468 -0.00201649
572 1 20.8986 6.46597 0 1.00888 0 0 0.391534 0.848753 0.00301222 -0.00383497
523 1 21.9726 5.43213 0 1.02268 2 3 0.237457 0.614137 0.00334834 -0.00514164
524 1 23.0143 5.04141 0 1.01383 2 2 0.204891 0.852241 0.00284432 -0.00245971
573 1 22.0559 6.48857 0 0.999227 0 0 0.376969 0.781024 0.00047771 -0.00449924
574 1 23.1299 6.42726 0 0.988148 0 0 0.372837 0.827525 -0.000202258 -0.00385068
525 1 24.0271 5.08007 0 1.03669 2 3 0.201917 0.833776 -0.000853293 -0.000444409
526 1 24.9432 5.08227 0 1.04245 2 2 0.208339 0.812655 -0.00514718 -0.00110499
575 1 24.1182 6.5174 0 0.991613 0 0 0.379759 0.891445 -0.000798046 -0.00306543
576 1 24.998 6.36921 0 0.991033 0 0 0.360973 0.81256 -0.000963296 -0.0034354
527 1 25.9259 5.22566 0 1.03798 2 2 0.221417 0.724836 0.000121425 -0.00456093
577 1 25.9209 6.43769 0 0.990063 0 0 0.366905 0.825901 -0.000926432 -0.00387828
528 1 26.9089 5.12504 0 1.04147 2 1 0.212705 0.804686 0.00122582 -0.00560926
578 1 26.8848 6.46595 0 0.990488 0 0 0.377164 0.846566 -0.00103016 -0.00390439
579 1 27.89 6.39179 0 1.00162 0 0 0.376858 0.746158 -0.000101734 -0.00518692
530 1 28.7304 5.52778 0 1.02091 2 1 0.237487 0.582499 0.00140504 -0.0103479
580 1 28.9978 6.66935 0 1.02101 0 0 0.393381 0.848253 -0.0013395 -0.00433288
531 1 29.6698 4.99893 0 1.01679 2 0 0.189509 0.853718 -0.00058396 -0.00863937
532 1 30.7531 4.98403 0 1.0182 2 1 0.188998 0.777621 0.00211181 -0.0145163
581 1 30.0444 6.35394 0 1.02183 0 0 0.379169 0.831792 0.00201441 -0.00230565
582 1 30.8679 6.22998 0 1.01567 0 0 0.376516 0.818943 0.00373921 0.000931708
533 1 31.7523 4.99833 0 1.004 2 0 0.18511 0.737474 0.000828626 -0.00741283
534 1 32.7726 4.97285 0 1.00171 2 0 0.177968 0.758992 0.00241313 -0.00876153
583 1 31.7812 6.15802 0 1.01532 0 0 0.370056 0.776367 0.0027269 0.00304852
584 1 32.7303 6.05689 0 1.01977 0 0 0.348639 0.64647 0.00089579 0.00536449
535 1 33.828 5.33602 0 1.00275 2 1 0.224208 0.597349 -0.00127967 0.000887076
585 1 33.8631 6.49303 0 1.0002 0 0 0.379127 0.819607 -0.00124929 0.00206005
536 1 34.905 5.05271 0 1.0237 2 3 0.189103 0.764067 -0.00163461 -0.0010552
537 1 35.9493 5.0047 0 1.0067 2 0 0.185634 0.794455 0.000100667 -0.00664112
586 1 34.9842 6.22655 0 1.00447 0 0 0.36341 0.74731 -0.00287486 0.0022384
587 1 35.8205 6.33581 0 1.00694 0 0 0.380259 0.836214 -0.00213659 0.0013458
538 1 36.9721 5.22314 0 1.01227 2 2 0.22649 0.693371 -0.00051256 -0.000795007
588 1 36.7574 6.33114 0 1.00311 0 0 0.377571 0.78408 0.000335062 0.000875362
589 1 37.7362 6.44547 0 1.00972 0 0 0.373725 0.719691 0.00277622 0.000669579
540 1 38.7309 5.75883 0 1.01715 2 2 0.240838 0.571775 0.00428803 -0.00618164
590 1 39.035 6.96263 0 1.00807 0 0 0.408107 0.875148 0.000621333 0.000564521
591 1 40.146 6.76017 0 1.00495 0 0 0.407741 0.890662 -0.00135826 0.00118248
542 1 40.8017 5.52037 0 1.01016 2 2 0.227504 0.632835 -0.00870773 -0.00157152
592 1 41.115 6.8388 0 1.00316 0 0 0.415824 0.917781 -0.00303617 -0.00140429
543 1 41.595 4.91622 0 1.03252 2 0 0.173344 0.94925 0.00461796 -0.0064868
544 1 42.7766 5.29198 0 1.0319 2 2 0.22228 0.678986 -0.00310684 -0.00218581
593 1 42.1222 6.53692 0 0.99723 0 0 0.390388 0.862921 -0.00250628 -0.00216134
594 1 43.1016 6.49065 0 0.9928 0 0 0.385515 0.856691 -0.000556562 -0.00231155
545 1 43.7869 4.97093 0 1.03659 2 2 0.18156 0.869553 0.00454914 -0.00129888
595 1 43.9887 6.47714 0 0.997274 0 0 0.3906 0.897331 0.000960773 -0.00182017
546 1 44.8027 4.98828 0 1.01001 2 0 0.180141 0.821401 -0.000960196 -0.00320886
596 1 44.8808 6.29522 0 1.00192 0 0 0.383092 0.838857 0.00196943 -0.00157191
597 1 45.8515 6.26077 0 1.00412 0 0 0.378651 0.783847 0.00226616 -0.000382479
548 1 46.8029 5.23563 0 1.00807 2 1 0.211943 0.651501 0.0010449 -0.000506695
549 1 47.8574 4.98086 0 1.02093 2 2 0.191594 0.835065 0.00137728 0.0128019
598 1 46.9372 6.28276 0 0.999313 0 0 0.373517 0.76332 0.000809193 0.000151155
599 1 47.8862 6.39036 0 0.992097 0 0 0.379712 0.840799 -0.000210058 0.00104943
550 1 48.9123 5.26312 0 1.02225 2 0 0.221867 0.697141 -0.00413285 -0.000806578
600 1 48.8426 6.41532 0 0.990456 0 0 0.373824 0.813495 -0.000358115 0.000154491
8501 1 49.8808 5.02281 0 1.06187 2 2 0.199473 0.880546 0.00305929 -0.00464497
8551 1 49.8353 6.56545 0 0.993228 0 0 0.38816 0.869344 0.000522631 -0.000430678
601 2 0 7 0 1 2 8 4.49246e-09 1 0 0
602 2 1 7 0 1 2 8 1.54431e-07 1 0 0
651 2 0 8 0 1 2 8 4.78642e-09 1 0 0
652 2 1 8 0 1 2 8 1.53702e-07 1 0 0
603 2 2 7 0 1 2 8 5.0145e-06 1 0 0
604 2 3 7 0 1 2 8 0.000279046 1 0 0
653 2 2 8 0 1 2 8 5.07401e-06 1 0 0
654 2 3 8 0 1 2 8 0.000275382 1 0 0
605 2 4 7 0 1 2 6 0.0048335 0.995496 0 0
606 1 4.99039 7.13274 0 1.01839 2 0 0.152701 0.769331 -0.0109476 -0.0060903
655 2 4 8 0 1 2 5 0.00495742 0.99747 0 0
656 1 4.99849 8.12897 0 1.01253 2 1 0.171066 0.802667 -0.00717702 0.00482371
607 1 6.15549 7.26661 0 1.01166 0 0 0.351408 0.739101 -0.00126565 0.00126148
657 1 6.29276 8.20545 0 1.01005 0 0 0.373366 0.779998 -0.00383945 0.000715977
608 1 7.20114 7.3979 0 1.01113 0 0 0.40331 0.989679 -0.000210365 0.00126459
609 1 8.21109 7.51011 0 1.00811 0 0 0.424797 0.993031 0.00315265 -0.000521691
658 1 7.28961 8.33779 0 1.00835 0 0 0.425592 0.995708 0.000416704 0.000436011
659 1 8.28761 8.41036 0 1.00645 0 0 0.452475 1 0.00322225 -0.000833842
610 1 9.19084 7.47681 0 0.999747 0 0 0.434465 0.995798 0.00291089 -0.00143233
660 1 9.24925 8.41521 0 1.00251 0 0 0.465796 1 0.00360712 -0.00198515
661 1 10.2388 8.32126 0 0.998844 0 0 0.470177 1 0.00232763 -0.00164608
611 1 10.162 7.36312 0 0.996729 0 0 0.436287 0.995975 0.00141341 -0.000795129
612 1 11.2009 7.32482 0 1.00022 0 0 0.438814 0.995041 0.000262763 0.00159647
662 1 11.2423 8.2406 0 0.998008 0 0 0.471174 1 0.000896259 0.000271447
613 1 12.2721 7.29095 0 1.00323 0 0 0.436116 0.988858 0.000276152 0.00322494
614 1 13.3057 7.22793 0 1.00295 0 0 0.432347 0.992354 0.000157533 0.00293467
663 1 12.2733 8.17459 0 0.998663 0 0 0.470883 1 -0.000332868 0.00202093
664 1 13.3237 8.15157 0 0.999234 0 0 0.470472 1 -0.000940609 0.00222683
615 1 14.3139 7.12609 0 1.00214 0 0 0.43217 0.995868 -0.00118535 0.0028894
616 1 15.2392 7.15332 0 1.00346 0 0 0.437617 0.997144 -0.00248742 0.00320559
665 1 14.2989 8.09184 0 1.00013 0 0 0.469621 1 -0.00161915 0.00178195
617 1 16.149 7.12075 0 1.00629 0 0 0.436382 0.99664 -0.0029176 0.00393724
666 1 15.2635 8.12611 0 1.00261 0 0 0.472469 1 -0.0023171 0.00119329
667 1 16.1969 8.13758 0 1.0055 0 0 0.473645 1 -0.00283024 0.000860725
618 1 17.0576 7.14738 0 1.00758 0 0 0.438297 0.997012 -0.00193048 0.00369432
619 1 18.037 7.11201 0 1.00963 0 0 0.438407 0.996123 0.000151608 0.0030441
668 1 17.1791 8.10558 0 1.00784 0 0 0.473368 1 -0.0026768 0.000648441
669 1 18.1346 8.03401 0 1.00938 0 0 0.471811 1 -0.00192841 0.00119112
620 1 19.0222 7.09858 0 1.01183 0 0 0.439108 0.994759 0.0016895 0.001116
670 1 19.0682 8.10754 0 1.01048 0 0 0.474669 1 -0.000849109 0.000736883
671 1 20.0195 8.09446 0 1.01034 0 0 0.472716 1 0.000120018 -0.000439929
621 1 19.9667 7.06275 0 1.01004 0 0 0.435551 0.992913 0.00229445 -0.00129164
622 1 20.9105 7.26501 0 1.00711 0 0 0.440469 0.994401 0.00185172 -0.00228331
672 1 21.0048 8.15236 0 1.00973 0 0 0.471444 1 0.000647245 -0.00128698
623 1 21.9669 7.33779 0 1.00488 0 0 0.439001 0.989855 0.000491311 -0.00289281
624 1 23.0319 7.32277 0 1.00242 0 0 0.436211 0.996087 -0.000323757 -0.00285672
673 1 22.054 8.21608 0 1.0101 0 0 0.472106 0.999997 0.000732305 -0.0018575
674 1 23.0058 8.265 0 1.01124 0 0 0.473207 1 0.000610378 -0.00185429
625 1 24.026 7.35751 0 1.00351 0 0 0.434376 0.998424 -0.000444971 -0.00220698
675 1 24.0257 8.26919 0 1.01237 0 0 0.472092 1 0.000513217 -0.00132809
626 1 25.0437 7.30013 0 1.00309 0 0 0.428834 0.996676 -0.000424906 -0.00190473
627 1 26.0062 7.38291 0 1.00336 0 0 0.433845 0.997055 -0.000884369 -0.00159906