ITEM: TIMESTEP
18000
ITEM: NUMBER OF ATOMS
15950
ITEM: BOX BOUNDS pp pp pp
0.0000000000000000e+00 1.0000000000000000e+02
-5.0000000000000000e+00 2.0000000000000000e+02
-5.0000000000000000e-01 5.0000000000000000e-01
ITEM: ATOMS id type x y z c_rho c_phase c_nbond c_temp f_rheo_chi_chi fx fy
1 2 0 -5 0 1 2 8 6.96945e-11 1 0 0
2 2 1 -5 0 1 2 8 1.0834e-10 1 0 0
51 2 0 -4 0 1 2 8 5.06124e-10 1 0 0
52 2 1 -4 0 1 2 8 8.18215e-10 1 0 0
3 2 2 -5 0 1 2 8 2.41851e-10 1 0 0
4 2 3 -5 0 1 2 8 5.05071e-10 1 0 0
53 2 2 -4 0 1 2 8 1.92296e-09 1 0 0
54 2 3 -4 0 1 2 8 4.16281e-09 1 0 0
5 2 4 -5 0 1 2 7 9.33977e-10 1 0 0
55 2 4 -4 0 1 2 8 7.78915e-09 1 0 0
6 2 5 -5 0 1 2 6 1.54659e-09 1 0 0
7 2 6 -5 0 1 2 5 2.22319e-09 1 0 0
56 2 5 -4 0 1 2 8 1.26559e-08 1 0 0
57 2 6 -4 0 1 2 8 1.81009e-08 1 0 0
8 2 7 -5 0 1 2 5 2.84539e-09 1 0 0
9 2 8 -5 0 1 2 5 3.35782e-09 1 0 0
58 2 7 -4 0 1 2 8 2.32893e-08 1 0 0
59 2 8 -4 0 1 2 8 2.75771e-08 1 0 0
10 2 9 -5 0 1 2 5 3.73126e-09 1 0 0
60 2 9 -4 0 1 2 8 3.06989e-08 1 0 0
11 2 10 -5 0 1 2 5 3.97953e-09 1 0 0
12 2 11 -5 0 1 2 5 4.14668e-09 1 0 0
61 2 10 -4 0 1 2 8 3.27701e-08 1 0 0
62 2 11 -4 0 1 2 8 3.41616e-08 1 0 0
13 2 12 -5 0 1 2 5 4.28422e-09 1 0 0
14 2 13 -5 0 1 2 5 4.42236e-09 1 0 0
63 2 12 -4 0 1 2 8 3.53171e-08 1 0 0
64 2 13 -4 0 1 2 8 3.64986e-08 1 0 0
15 2 14 -5 0 1 2 5 4.55357e-09 1 0 0
65 2 14 -4 0 1 2 8 3.76187e-08 1 0 0
16 2 15 -5 0 1 2 5 4.65216e-09 1 0 0
17 2 16 -5 0 1 2 5 4.71075e-09 1 0 0
66 2 15 -4 0 1 2 8 3.84281e-08 1 0 0
67 2 16 -4 0 1 2 8 3.88747e-08 1 0 0
18 2 17 -5 0 1 2 5 4.7465e-09 1 0 0
19 2 18 -5 0 1 2 5 4.7725e-09 1 0 0
68 2 17 -4 0 1 2 8 3.91517e-08 1 0 0
69 2 18 -4 0 1 2 8 3.93995e-08 1 0 0
20 2 19 -5 0 1 2 5 4.776e-09 1 0 0
70 2 19 -4 0 1 2 8 3.94932e-08 1 0 0
21 2 20 -5 0 1 2 5 4.73039e-09 1 0 0
22 2 21 -5 0 1 2 5 4.62483e-09 1 0 0
71 2 20 -4 0 1 2 8 3.91682e-08 1 0 0
72 2 21 -4 0 1 2 8 3.83062e-08 1 0 0
23 2 22 -5 0 1 2 5 4.47984e-09 1 0 0
24 2 23 -5 0 1 2 5 4.33894e-09 1 0 0
73 2 22 -4 0 1 2 8 3.70767e-08 1 0 0
74 2 23 -4 0 1 2 8 3.58568e-08 1 0 0
25 2 24 -5 0 1 2 5 4.24876e-09 1 0 0
75 2 24 -4 0 1 2 8 3.50644e-08 1 0 0
26 2 25 -5 0 1 2 5 4.23899e-09 1 0 0
27 2 26 -5 0 1 2 5 4.30846e-09 1 0 0
76 2 25 -4 0 1 2 8 3.49809e-08 1 0 0
77 2 26 -4 0 1 2 8 3.56019e-08 1 0 0
28 2 27 -5 0 1 2 5 4.42874e-09 1 0 0
29 2 28 -5 0 1 2 5 4.56643e-09 1 0 0
78 2 27 -4 0 1 2 8 3.66525e-08 1 0 0
79 2 28 -4 0 1 2 8 3.78113e-08 1 0 0
30 2 29 -5 0 1 2 5 4.70258e-09 1 0 0
80 2 29 -4 0 1 2 8 3.89208e-08 1 0 0
31 2 30 -5 0 1 2 5 4.82848e-09 1 0 0
32 2 31 -5 0 1 2 5 4.92881e-09 1 0 0
81 2 30 -4 0 1 2 8 3.99438e-08 1 0 0
82 2 31 -4 0 1 2 8 4.0773e-08 1 0 0
33 2 32 -5 0 1 2 5 4.98173e-09 1 0 0
34 2 33 -5 0 1 2 5 4.97973e-09 1 0 0
83 2 32 -4 0 1 2 8 4.12103e-08 1 0 0
84 2 33 -4 0 1 2 8 4.11737e-08 1 0 0
35 2 34 -5 0 1 2 5 4.94261e-09 1 0 0
85 2 34 -4 0 1 2 8 4.08395e-08 1 0 0
36 2 35 -5 0 1 2 5 4.90109e-09 1 0 0
37 2 36 -5 0 1 2 5 4.86952e-09 1 0 0
86 2 35 -4 0 1 2 8 4.04912e-08 1 0 0
87 2 36 -4 0 1 2 8 4.02545e-08 1 0 0
38 2 37 -5 0 1 2 5 4.83864e-09 1 0 0
39 2 38 -5 0 1 2 5 4.79057e-09 1 0 0
88 2 37 -4 0 1 2 8 4.00323e-08 1 0 0
89 2 38 -4 0 1 2 8 3.96509e-08 1 0 0
40 2 39 -5 0 1 2 5 4.71605e-09 1 0 0
90 2 39 -4 0 1 2 8 3.90159e-08 1 0 0
41 2 40 -5 0 1 2 5 4.62328e-09 1 0 0
42 2 41 -5 0 1 2 5 4.53909e-09 1 0 0
91 2 40 -4 0 1 2 8 3.81896e-08 1 0 0
92 2 41 -4 0 1 2 8 3.74108e-08 1 0 0
43 2 42 -5 0 1 2 5 4.50012e-09 1 0 0
44 2 43 -5 0 1 2 5 4.53107e-09 1 0 0
93 2 42 -4 0 1 2 8 3.70237e-08 1 0 0
94 2 43 -4 0 1 2 8 3.72753e-08 1 0 0
45 2 44 -5 0 1 2 5 4.62049e-09 1 0 0
95 2 44 -4 0 1 2 8 3.80768e-08 1 0 0
46 2 45 -5 0 1 2 5 4.71772e-09 1 0 0
47 2 46 -5 0 1 2 5 4.76393e-09 1 0 0
96 2 45 -4 0 1 2 8 3.89641e-08 1 0 0
97 2 46 -4 0 1 2 8 3.93891e-08 1 0 0
48 2 47 -5 0 1 2 5 4.73531e-09 1 0 0
49 2 48 -5 0 1 2 5 4.65914e-09 1 0 0
98 2 47 -4 0 1 2 8 3.91325e-08 1 0 0
99 2 48 -4 0 1 2 8 3.84508e-08 1 0 0
50 2 49 -5 0 1 2 5 4.58997e-09 1 0 0
100 2 49 -4 0 1 2 8 3.78473e-08 1 0 0
101 2 0 -3 0 1 2 8 3.33915e-09 1 0 0
102 2 1 -3 0 1 2 8 5.64442e-09 1 0 0
151 2 0 -2 0 1 2 8 1.97569e-08 1 0 0
152 2 1 -2 0 1 2 8 3.51252e-08 1 0 0
103 2 2 -3 0 1 2 8 1.40461e-08 1 0 0
104 2 3 -3 0 1 2 8 3.17124e-08 1 0 0
153 2 2 -2 0 1 2 8 9.31194e-08 1 0 0
154 2 3 -2 0 1 2 8 2.2047e-07 1 0 0
105 2 4 -3 0 1 2 8 6.11246e-08 1 0 0
155 2 4 -2 0 1 2 8 4.40001e-07 1 0 0
106 2 5 -3 0 1 2 8 1.01133e-07 1 0 0
107 2 6 -3 0 1 2 8 1.46312e-07 1 0 0
156 2 5 -2 0 1 2 8 7.44922e-07 1 0 0
157 2 6 -2 0 1 2 8 1.09216e-06 1 0 0
108 2 7 -3 0 1 2 8 1.89509e-07 1 0 0
109 2 8 -3 0 1 2 8 2.25179e-07 1 0 0
158 2 7 -2 0 1 2 8 1.42461e-06 1 0 0
159 2 8 -2 0 1 2 8 1.69897e-06 1 0 0
110 2 9 -3 0 1 2 8 2.51118e-07 1 0 0
160 2 9 -2 0 1 2 8 1.89861e-06 1 0 0
111 2 10 -3 0 1 2 8 2.68307e-07 1 0 0
112 2 11 -3 0 1 2 8 2.79836e-07 1 0 0
161 2 10 -2 0 1 2 8 2.03129e-06 1 0 0
162 2 11 -2 0 1 2 8 2.12046e-06 1 0 0
113 2 12 -3 0 1 2 8 2.89507e-07 1 0 0
114 2 13 -3 0 1 2 8 2.99613e-07 1 0 0
163 2 12 -2 0 1 2 8 2.19596e-06 1 0 0
164 2 13 -2 0 1 2 8 2.27659e-06 1 0 0
115 2 14 -3 0 1 2 8 3.09185e-07 1 0 0
165 2 14 -2 0 1 2 8 2.35278e-06 1 0 0
116 2 15 -3 0 1 2 8 3.15772e-07 1 0 0
117 2 16 -3 0 1 2 8 3.19042e-07 1 0 0
166 2 15 -2 0 1 2 8 2.40213e-06 1 0 0
167 2 16 -2 0 1 2 8 2.42321e-06 1 0 0
118 2 17 -3 0 1 2 8 3.2112e-07 1 0 0
119 2 18 -3 0 1 2 8 3.23476e-07 1 0 0
168 2 17 -2 0 1 2 8 2.43722e-06 1 0 0
169 2 18 -2 0 1 2 8 2.45806e-06 1 0 0
120 2 19 -3 0 1 2 8 3.24875e-07 1 0 0
170 2 19 -2 0 1 2 8 2.47433e-06 1 0 0
121 2 20 -3 0 1 2 8 3.22709e-07 1 0 0
122 2 21 -3 0 1 2 8 3.15757e-07 1 0 0
171 2 20 -2 0 1 2 8 2.46247e-06 1 0 0
172 2 21 -2 0 1 2 8 2.41129e-06 1 0 0
123 2 22 -3 0 1 2 8 3.05419e-07 1 0 0
124 2 23 -3 0 1 2 8 2.94923e-07 1 0 0
173 2 22 -2 0 1 2 8 2.33156e-06 1 0 0
174 2 23 -2 0 1 2 8 2.24839e-06 1 0 0
125 2 24 -3 0 1 2 8 2.87972e-07 1 0 0
175 2 24 -2 0 1 2 8 2.19183e-06 1 0 0
126 2 25 -3 0 1 2 8 2.87247e-07 1 0 0
127 2 26 -3 0 1 2 8 2.92798e-07 1 0 0
176 2 25 -2 0 1 2 8 2.18584e-06 1 0 0
177 2 26 -2 0 1 2 8 2.23191e-06 1 0 0
128 2 27 -3 0 1 2 8 3.01961e-07 1 0 0
129 2 28 -3 0 1 2 8 3.11631e-07 1 0 0
178 2 27 -2 0 1 2 8 2.30612e-06 1 0 0
179 2 28 -2 0 1 2 8 2.3804e-06 1 0 0
130 2 29 -3 0 1 2 8 3.20517e-07 1 0 0
180 2 29 -2 0 1 2 8 2.44502e-06 1 0 0
131 2 30 -3 0 1 2 8 3.28702e-07 1 0 0
132 2 31 -3 0 1 2 8 3.35515e-07 1 0 0
181 2 30 -2 0 1 2 8 2.50456e-06 1 0 0
182 2 31 -2 0 1 2 8 2.55612e-06 1 0 0
133 2 32 -3 0 1 2 8 3.39132e-07 1 0 0
134 2 33 -3 0 1 2 8 3.38646e-07 1 0 0
183 2 32 -2 0 1 2 8 2.58395e-06 1 0 0
184 2 33 -2 0 1 2 8 2.57882e-06 1 0 0
135 2 34 -3 0 1 2 8 3.35628e-07 1 0 0
185 2 34 -2 0 1 2 8 2.55363e-06 1 0 0
136 2 35 -3 0 1 2 8 3.32716e-07 1 0 0
137 2 36 -3 0 1 2 8 3.3101e-07 1 0 0
186 2 35 -2 0 1 2 8 2.5312e-06 1 0 0
187 2 36 -2 0 1 2 8 2.52045e-06 1 0 0
138 2 37 -3 0 1 2 8 3.29512e-07 1 0 0
139 2 38 -3 0 1 2 8 3.2656e-07 1 0 0
188 2 37 -2 0 1 2 8 2.51202e-06 1 0 0
189 2 38 -2 0 1 2 8 2.4914e-06 1 0 0
140 2 39 -3 0 1 2 8 3.21209e-07 1 0 0
190 2 39 -2 0 1 2 8 2.45002e-06 1 0 0
141 2 40 -3 0 1 2 8 3.13902e-07 1 0 0
142 2 41 -3 0 1 2 8 3.06733e-07 1 0 0
191 2 40 -2 0 1 2 8 2.39037e-06 1 0 0
192 2 41 -2 0 1 2 8 2.32928e-06 1 0 0
143 2 42 -3 0 1 2 8 3.02926e-07 1 0 0
144 2 43 -3 0 1 2 8 3.04936e-07 1 0 0
193 2 42 -2 0 1 2 8 2.29471e-06 1 0 0
194 2 43 -2 0 1 2 8 2.3092e-06 1 0 0
145 2 44 -3 0 1 2 8 3.12112e-07 1 0 0
195 2 44 -2 0 1 2 8 2.36862e-06 1 0 0
146 2 45 -3 0 1 2 8 3.20199e-07 1 0 0
147 2 46 -3 0 1 2 8 3.2409e-07 1 0 0
196 2 45 -2 0 1 2 8 2.43684e-06 1 0 0
197 2 46 -2 0 1 2 8 2.46973e-06 1 0 0
148 2 47 -3 0 1 2 8 3.21769e-07 1 0 0
149 2 48 -3 0 1 2 8 3.15653e-07 1 0 0
198 2 47 -2 0 1 2 8 2.45025e-06 1 0 0
199 2 48 -2 0 1 2 8 2.39946e-06 1 0 0
150 2 49 -3 0 1 2 8 3.10369e-07 1 0 0
200 2 49 -2 0 1 2 8 2.35653e-06 1 0 0
201 2 0 -1 0 1 2 8 1.03237e-07 1 0 0
202 2 1 -1 0 1 2 8 1.94182e-07 1 0 0
203 2 2 -1 0 1 2 8 5.51942e-07 1 0 0
204 2 3 -1 0 1 2 8 1.37909e-06 1 0 0
205 2 4 -1 0 1 2 8 2.865e-06 1 0 0
206 2 5 -1 0 1 2 8 4.97937e-06 1 0 0
207 2 6 -1 0 1 2 8 7.40758e-06 1 0 0
208 2 7 -1 0 1 2 8 9.73336e-06 1 0 0
209 2 8 -1 0 1 2 8 1.16524e-05 1 0 0
210 2 9 -1 0 1 2 8 1.30534e-05 1 0 0
211 2 10 -1 0 1 2 8 1.39929e-05 1 0 0
212 2 11 -1 0 1 2 8 1.46292e-05 1 0 0
213 2 12 -1 0 1 2 8 1.51718e-05 1 0 0
214 2 13 -1 0 1 2 8 1.57632e-05 1 0 0
215 2 14 -1 0 1 2 8 1.63199e-05 1 0 0
216 2 15 -1 0 1 2 8 1.66553e-05 1 0 0
217 2 16 -1 0 1 2 8 1.67699e-05 1 0 0
218 2 17 -1 0 1 2 8 1.68532e-05 1 0 0
219 2 18 -1 0 1 2 8 1.70223e-05 1 0 0
220 2 19 -1 0 1 2 8 1.71806e-05 1 0 0
221 2 20 -1 0 1 2 8 1.71359e-05 1 0 0
222 2 21 -1 0 1 2 8 1.67992e-05 1 0 0
223 2 22 -1 0 1 2 8 1.62469e-05 1 0 0
224 2 23 -1 0 1 2 8 1.5652e-05 1 0 0
225 2 24 -1 0 1 2 8 1.52326e-05 1 0 0
226 2 25 -1 0 1 2 8 1.51859e-05 1 0 0
227 2 26 -1 0 1 2 8 1.55351e-05 1 0 0
228 2 27 -1 0 1 2 8 1.60839e-05 1 0 0
229 2 28 -1 0 1 2 8 1.65994e-05 1 0 0
230 2 29 -1 0 1 2 8 1.70156e-05 1 0 0
231 2 30 -1 0 1 2 8 1.73999e-05 1 0 0
232 2 31 -1 0 1 2 8 1.77528e-05 1 0 0
233 2 32 -1 0 1 2 8 1.79493e-05 1 0 0
234 2 33 -1 0 1 2 8 1.79041e-05 1 0 0
235 2 34 -1 0 1 2 8 1.77133e-05 1 0 0
236 2 35 -1 0 1 2 8 1.75574e-05 1 0 0
237 2 36 -1 0 1 2 8 1.75018e-05 1 0 0
238 2 37 -1 0 1 2 8 1.74676e-05 1 0 0
239 2 38 -1 0 1 2 8 1.73414e-05 1 0 0
240 2 39 -1 0 1 2 8 1.70534e-05 1 0 0
241 2 40 -1 0 1 2 8 1.66121e-05 1 0 0
242 2 41 -1 0 1 2 8 1.61386e-05 1 0 0
243 2 42 -1 0 1 2 8 1.58536e-05 1 0 0
244 2 43 -1 0 1 2 8 1.5945e-05 1 0 0
245 2 44 -1 0 1 2 8 1.63921e-05 1 0 0
246 2 45 -1 0 1 2 8 1.6915e-05 1 0 0
247 2 46 -1 0 1 2 8 1.71668e-05 1 0 0
248 2 47 -1 0 1 2 8 1.70177e-05 1 0 0
249 2 48 -1 0 1 2 8 1.66346e-05 1 0 0
250 2 49 -1 0 1 2 8 1.63167e-05 1 0 0
251 2 0 0 0 1 2 8 4.68007e-07 1 0 0
252 2 1 0 0 1 2 8 9.36029e-07 1 0 0
301 2 0 1 0 1 2 8 1.80502e-06 1 0 0
302 2 1 1 0 1 2 8 3.8487e-06 1 0 0
253 2 2 0 0 1 2 8 2.86968e-06 1 0 0
254 2 3 0 0 1 2 8 7.62081e-06 1 0 0
303 2 2 1 0 1 2 8 1.2777e-05 1 0 0
304 2 3 1 0 1 2 8 3.63074e-05 1 0 0
255 2 4 0 0 1 2 8 1.659e-05 1 0 0
305 2 4 1 0 1 2 8 8.34754e-05 1 0 0
256 2 5 0 0 1 2 8 2.97244e-05 1 0 0
257 2 6 0 0 1 2 8 4.49265e-05 1 0 0
306 2 5 1 0 1 2 8 0.000155083 1 0 0
307 2 6 1 0 1 2 8 0.000238484 1 0 0
258 2 7 0 0 1 2 8 5.94667e-05 1 0 0
259 2 8 0 0 1 2 8 7.1471e-05 1 0 0
308 2 7 1 0 1 2 8 0.000317809 1 0 0
309 2 8 1 0 1 2 8 0.000383442 1 0 0
260 2 9 0 0 1 2 8 8.02971e-05 1 0 0
310 2 9 1 0 1 2 8 0.000432317 1 0 0
261 2 10 0 0 1 2 8 8.63184e-05 1 0 0
262 2 11 0 0 1 2 8 9.04605e-05 1 0 0
311 2 10 1 0 1 2 8 0.000466602 1 0 0
312 2 11 1 0 1 2 8 0.000490856 1 0 0
263 2 12 0 0 1 2 8 9.40062e-05 1 0 0
264 2 13 0 0 1 2 8 9.7936e-05 1 0 0
313 2 12 1 0 1 2 8 0.000511561 1 0 0
314 2 13 1 0 1 2 8 0.000534754 1 0 0
265 2 14 0 0 1 2 8 0.000101618 1 0 0
315 2 14 1 0 1 2 8 0.000556387 1 0 0
266 2 15 0 0 1 2 8 0.00010366 1 0 0
267 2 16 0 0 1 2 8 0.000104152 1 0 0
316 2 15 1 0 1 2 8 0.000567387 1 0 0
317 2 16 1 0 1 2 8 0.000568877 1 0 0
268 2 17 0 0 1 2 8 0.000104588 1 0 0
269 2 18 0 0 1 2 8 0.00010583 1 0 0
318 2 17 1 0 1 2 8 0.000570975 1 0 0
319 2 18 1 0 1 2 8 0.000579081 1 0 0
270 2 19 0 0 1 2 8 0.000107139 1 0 0
320 2 19 1 0 1 2 8 0.000588217 1 0 0
271 2 20 0 0 1 2 8 0.000107127 1 0 0
272 2 21 0 0 1 2 8 0.000105193 1 0 0
321 2 20 1 0 1 2 8 0.000589745 1 0 0
322 2 21 1 0 1 2 8 0.000580377 1 0 0
273 2 22 0 0 1 2 8 0.00010184 1 0 0
274 2 23 0 0 1 2 8 9.80835e-05 1 0 0
323 2 22 1 0 1 2 8 0.000563179 1 0 0
324 2 23 1 0 1 2 8 0.000542945 1 0 0
275 2 24 0 0 1 2 8 9.53021e-05 1 0 0
325 2 24 1 0 1 2 8 0.000526891 1 0 0
276 2 25 0 0 1 2 8 9.49657e-05 1 0 0
277 2 26 0 0 1 2 8 9.73373e-05 1 0 0
326 2 25 1 0 1 2 8 0.000524733 1 0 0
327 2 26 1 0 1 2 8 0.000538786 1 0 0
278 2 27 0 0 1 2 8 0.000100977 1 0 0
279 2 28 0 0 1 2 8 0.000104147 1 0 0
328 2 27 1 0 1 2 8 0.000559869 1 0 0
329 2 28 1 0 1 2 8 0.000576671 1 0 0
280 2 29 0 0 1 2 8 0.000106448 1 0 0
330 2 29 1 0 1 2 8 0.00058706 1 0 0
281 2 30 0 0 1 2 8 0.000108585 1 0 0
282 2 31 0 0 1 2 8 0.000110728 1 0 0
331 2 30 1 0 1 2 8 0.000596852 1 0 0
332 2 31 1 0 1 2 8 0.000608095 1 0 0
283 2 32 0 0 1 2 8 0.000111983 1 0 0
284 2 33 0 0 1 2 8 0.00011165 1 0 0
333 2 32 1 0 1 2 8 0.000615192 1 0 0
334 2 33 1 0 1 2 8 0.000613183 1 0 0
285 2 34 0 0 1 2 8 0.000110366 1 0 0
335 2 34 1 0 1 2 8 0.00060573 1 0 0
286 2 35 0 0 1 2 8 0.000109412 1 0 0
287 2 36 0 0 1 2 8 0.00010921 1 0 0
336 2 35 1 0 1 2 8 0.00060078 1 0 0
337 2 36 1 0 1 2 8 0.000600634 1 0 0
288 2 37 0 0 1 2 8 0.000109171 1 0 0
289 2 38 0 0 1 2 8 0.000108519 1 0 0
338 2 37 1 0 1 2 8 0.000601487 1 0 0
339 2 38 1 0 1 2 8 0.000598811 1 0 0
290 2 39 0 0 1 2 8 0.000106755 1 0 0
340 2 39 1 0 1 2 8 0.00058961 1 0 0
291 2 40 0 0 1 2 8 0.000103855 1 0 0
292 2 41 0 0 1 2 8 0.000100578 1 0 0
341 2 40 1 0 1 2 8 0.000573184 1 0 0
342 2 41 1 0 1 2 8 0.000553479 1 0 0
293 2 42 0 0 1 2 8 9.8486e-05 1 0 0
294 2 43 0 0 1 2 8 9.89709e-05 1 0 0
343 2 42 1 0 1 2 8 0.000540166 1 0 0
344 2 43 1 0 1 2 8 0.000542179 1 0 0
295 2 44 0 0 1 2 8 0.000101969 1 0 0
345 2 44 1 0 1 2 8 0.000559615 1 0 0
296 2 45 0 0 1 2 8 0.000105541 1 0 0
297 2 46 0 0 1 2 8 0.00010725 1 0 0
346 2 45 1 0 1 2 8 0.000580752 1 0 0
347 2 46 1 0 1 2 8 0.00059071 1 0 0
298 2 47 0 0 1 2 8 0.000106227 1 0 0
299 2 48 0 0 1 2 8 0.000103655 1 0 0
348 2 47 1 0 1 2 8 0.000584578 1 0 0
349 2 48 1 0 1 2 8 0.000569644 1 0 0
300 2 49 0 0 1 2 8 0.000101547 1 0 0
350 2 49 1 0 1 2 8 0.000557426 1 0 0
351 2 0 2 0 1 2 8 5.8105e-06 1 0 0
352 2 1 2 0 1 2 8 1.31836e-05 1 0 0
401 2 0 3 0 1 2 8 1.53809e-05 1 0 0
402 2 1 3 0 1 2 8 3.68863e-05 1 0 0
353 2 2 2 0 1 2 8 4.73538e-05 1 0 0
354 2 3 2 0 1 2 8 0.000144332 1 0 0
403 2 2 3 0 1 2 8 0.00014192 1 0 0
404 2 3 3 0 1 2 8 0.000460944 1 0 0
355 2 4 2 0 1 2 8 0.000353211 1 0 0
405 2 4 3 0 1 2 8 0.00119317 1 0 0
356 2 5 2 0 1 2 8 0.000685949 1 0 0
357 2 6 2 0 1 2 8 0.00107394 1 0 0
406 2 5 3 0 1 2 8 0.00246142 1 0 0
407 2 6 3 0 1 2 8 0.00393764 1 0 0
358 2 7 2 0 1 2 8 0.00143795 1 0 0
359 2 8 2 0 1 2 8 0.001741 1 0 0
408 2 7 3 0 1 2 8 0.00526123 1 0 0
409 2 8 3 0 1 2 8 0.00638731 1 0 0
360 2 9 2 0 1 2 8 0.00197156 1 0 0
410 2 9 3 0 1 2 8 0.00727804 1 0 0
361 2 10 2 0 1 2 8 0.00214 1 0 0
362 2 11 2 0 1 2 8 0.00226439 1 0 0
411 2 10 3 0 1 2 8 0.00796339 1 0 0
412 2 11 3 0 1 2 8 0.0085047 1 0 0
363 2 12 2 0 1 2 8 0.00236995 1 0 0
364 2 13 2 0 1 2 8 0.00248778 1 0 0
413 2 12 3 0 1 2 8 0.00895944 1 0 0
414 2 13 3 0 1 2 8 0.00945382 1 0 0
365 2 14 2 0 1 2 8 0.00259706 1 0 0
415 2 14 3 0 1 2 8 0.00991117 1 0 0
366 2 15 2 0 1 2 8 0.00264914 1 0 0
367 2 16 2 0 1 2 8 0.00265227 1 0 0
416 2 15 3 0 1 2 8 0.0101292 1 0 0
417 2 16 3 0 1 2 8 0.0101507 1 0 0
368 2 17 2 0 1 2 8 0.00266263 1 0 0
369 2 18 2 0 1 2 8 0.00270837 1 0 0
418 2 17 3 0 1 2 8 0.0102138 1 0 0
419 2 18 3 0 1 2 8 0.01043 1 0 0
370 2 19 2 0 1 2 8 0.00276083 1 0 0
420 2 19 3 0 1 2 8 0.0106694 1 0 0
371 2 20 2 0 1 2 8 0.0027756 1 0 0
372 2 21 2 0 1 2 8 0.00273953 1 0 0
421 2 20 3 0 1 2 8 0.0107535 1 0 0
422 2 21 3 0 1 2 8 0.0106551 1 0 0
373 2 22 2 0 1 2 8 0.00266956 1 0 0
374 2 23 2 0 1 2 8 0.00258153 1 0 0
423 2 22 3 0 1 2 8 0.0104576 1 0 0
424 2 23 3 0 1 2 8 0.0101799 1 0 0
375 2 24 2 0 1 2 8 0.00250468 1 0 0
425 2 24 3 0 1 2 8 0.00989568 1 0 0
376 2 25 2 0 1 2 8 0.0024931 1 0 0
377 2 26 2 0 1 2 8 0.00256252 1 0 0
426 2 25 3 0 1 2 8 0.00985267 1 0 0
427 2 26 3 0 1 2 8 0.0101193 1 0 0
378 2 27 2 0 1 2 8 0.00266492 1 0 0
379 2 28 2 0 1 2 8 0.00273847 1 0 0
428 2 27 3 0 1 2 8 0.0105113 1 0 0
429 2 28 3 0 1 2 8 0.0107643 1 0 0
380 2 29 2 0 1 2 8 0.00277354 1 0 0
430 2 29 3 0 1 2 8 0.0108356 1 0 0
381 2 30 2 0 1 2 8 0.00280768 1 0 0
382 2 31 2 0 1 2 8 0.0028567 1 0 0
431 2 30 3 0 1 2 8 0.0109154 1 0 0
432 2 31 3 0 1 2 8 0.0110824 1 0 0
383 2 32 2 0 1 2 8 0.0028909 1 0 0
384 2 33 2 0 1 2 8 0.00288155 1 0 0
433 2 32 3 0 1 2 8 0.011216 1 0 0
434 2 33 3 0 1 2 8 0.0111872 1 0 0
385 2 34 2 0 1 2 8 0.00284603 1 0 0
435 2 34 3 0 1 2 8 0.0110566 1 0 0
386 2 35 2 0 1 2 8 0.00282562 1 0 0
387 2 36 2 0 1 2 8 0.00283019 1 0 0
436 2 35 3 0 1 2 8 0.0109973 1 0 0
437 2 36 3 0 1 2 8 0.011038 1 0 0
388 2 37 2 0 1 2 8 0.00283935 1 0 0
389 2 38 2 0 1 2 8 0.00283154 1 0 0
438 2 37 3 0 1 2 8 0.0110897 1 0 0
439 2 38 3 0 1 2 8 0.0110759 1 0 0
390 2 39 2 0 1 2 8 0.00279258 1 0 0
440 2 39 3 0 1 2 8 0.010952 1 0 0
391 2 40 2 0 1 2 8 0.00271614 1 0 0
392 2 41 2 0 1 2 8 0.00261762 1 0 0
441 2 40 3 0 1 2 8 0.0106865 1 0 0
442 2 41 3 0 1 2 8 0.0103041 1 0 0
393 2 42 2 0 1 2 8 0.00254752 1 0 0
394 2 43 2 0 1 2 8 0.00255312 1 0 0
443 2 42 3 0 1 2 8 0.0100216 1 0 0
444 2 43 3 0 1 2 8 0.0100267 1 0 0
395 2 44 2 0 1 2 8 0.00263725 1 0 0
445 2 44 3 0 1 2 8 0.0103409 1 0 0
396 2 45 2 0 1 2 8 0.00274083 1 0 0
397 2 46 2 0 1 2 8 0.00278813 1 0 0
446 2 45 3 0 1 2 8 0.0107326 1 0 0
447 2 46 3 0 1 2 8 0.0108995 1 0 0
398 2 47 2 0 1 2 8 0.00275723 1 0 0
399 2 48 2 0 1 2 8 0.00268563 1 0 0
448 2 47 3 0 1 2 8 0.010774 1 0 0
449 2 48 3 0 1 2 8 0.0105115 1 0 0
400 2 49 2 0 1 2 8 0.00262623 1 0 0
450 2 49 3 0 1 2 8 0.0102801 1 0 0
451 2 0 4 0 1 2 8 3.3279e-05 1 0 0
452 2 1 4 0 1 2 8 8.34987e-05 1 0 0
453 2 2 4 0 1 2 8 0.00033936 1 0 0
454 2 3 4 0 1 2 8 0.0011483 1 0 0
455 2 4 4 0 1 2 7 0.00299238 1 0 0
456 2 5 4 0 1 2 6 0.00663402 1 0 0
457 2 6 4 0 1 2 5 0.0105372 1 0 0
506 1 5.49221 4.86736 0 1.0006 2 0 0.0140299 1 -0.00256289 -0.00920987
507 1 6.49264 4.86672 0 1.02569 2 0 0.0182052 1 -0.00172443 -0.00310743
458 2 7 4 0 1 2 5 0.0138188 1 0 0
459 2 8 4 0 1 2 5 0.016789 1 0 0
508 1 7.49604 4.86321 0 1.03193 2 0 0.0223651 1 -0.00829977 -0.00215308
460 2 9 4 0 1 2 5 0.0192662 1 0 0
510 1 8.49289 4.86099 0 1.01036 2 0 0.0262924 1 0.00712861 -0.00232605
511 1 9.49333 4.86168 0 1.00136 2 0 0.0298558 1 0.00539704 -0.00806746
461 2 10 4 0 1 2 5 0.0213044 1 0 0
462 2 11 4 0 1 2 5 0.023044 1 0 0
512 1 10.4976 4.86451 0 1.01573 2 0 0.0331806 1 -0.00597928 -0.0117936
513 1 11.4977 4.8607 0 1.01534 2 0 0.0362868 1 0.00420307 0.00389386
463 2 12 4 0 1 2 5 0.0245613 1 0 0
464 2 13 4 0 1 2 5 0.0260747 1 0 0
514 1 12.4978 4.86456 0 1.01802 2 0 0.0391321 1 0.0085537 -0.0118584
465 2 14 4 0 1 2 5 0.0274398 1 0 0
515 1 13.5034 4.86624 0 1.02031 2 0 0.0417441 1 -0.0056707 -0.000321411
516 1 14.5004 4.86899 0 1.0096 2 0 0.0439781 1 0.0104611 -0.0100713
466 2 15 4 0 1 2 5 0.028221 1 0 0
467 2 16 4 0 1 2 5 0.0284765 1 0 0
518 1 16.4992 4.86262 0 1.02515 2 0 0.0472214 1 0.000327562 0.00591396
517 1 15.5003 4.86834 0 1.02614 2 0 0.0457246 1 0.000153139 -0.0118103
468 2 17 4 0 1 2 5 0.0288085 1 0 0
469 2 18 4 0 1 2 5 0.0295597 1 0 0
519 1 17.4999 4.86522 0 1.0239 2 0 0.0486192 1 0.00355998 -0.0104213
470 2 19 4 0 1 2 5 0.0302947 1 0 0
520 1 18.4998 4.86187 0 1.00577 2 0 0.0498726 1 0.000399072 0.0123017
521 1 19.501 4.86506 0 1.00453 2 0 0.0508976 1 0.000432511 0.000457947
471 2 20 4 0 1 2 5 0.030604 1 0 0
472 2 21 4 0 1 2 5 0.0305028 1 0 0
523 1 21.5018 4.86343 0 1.02268 2 0 0.0521315 1 0.00872647 0.00510045
522 1 20.5078 4.86764 0 1.0139 2 0 0.0516135 1 -0.0163847 0.000950572
473 2 22 4 0 1 2 5 0.0302662 1 0 0
474 2 23 4 0 1 2 5 0.0297896 1 0 0
524 1 22.5039 4.86466 0 1.01383 2 0 0.0525329 1 -0.0045115 0.00365438
475 2 24 4 0 1 2 5 0.0291875 1 0 0
525 1 23.5036 4.86768 0 1.03669 2 0 0.0527108 1 -0.00754445 -0.00996761
526 1 24.5028 4.86959 0 1.04245 2 0 0.0530123 1 -0.00478744 -0.00903714
476 2 25 4 0 1 2 5 0.0291308 1 0 0
477 2 26 4 0 1 2 5 0.0297725 1 0 0
528 1 26.5 4.86646 0 1.04147 2 0 0.0542917 1 0.00276617 -0.00272884
527 1 25.5013 4.86637 0 1.03798 2 0 0.0535528 1 0.000765936 -0.000612721
478 2 27 4 0 1 2 5 0.0307665 1 0 0
479 2 28 4 0 1 2 5 0.031332 1 0 0
529 1 27.4997 4.86472 0 1.0019 2 0 0.0548892 1 0.00532861 -0.00372263
480 2 29 4 0 1 2 5 0.0313931 1 0 0
531 1 29.5023 4.86882 0 1.01679 2 0 0.0554404 1 -0.00480725 -0.000928606
530 1 28.4997 4.86637 0 1.02091 2 0 0.055258 1 -0.000665146 -0.00120457
481 2 30 4 0 1 2 5 0.0314721 1 0 0
482 2 31 4 0 1 2 5 0.0318468 1 0 0
533 1 31.496 4.86449 0 1.004 2 0 0.0556969 1 0.0142233 -0.00155506
532 1 30.4998 4.86317 0 1.0182 2 0 0.055554 1 -0.00306503 0.00772017
483 2 32 4 0 1 2 5 0.0321826 1 0 0
484 2 33 4 0 1 2 5 0.0321524 1 0 0
534 1 32.4982 4.8634 0 1.00171 2 0 0.0558188 1 0.000356616 -0.00388353
485 2 34 4 0 1 2 5 0.0318691 1 0 0
535 1 33.5007 4.86637 0 1.00275 2 0 0.0558305 1 -0.000158138 -0.0221155
536 1 34.4998 4.86516 0 1.0237 2 0 0.0558648 1 0.00358861 -0.00913123
486 2 35 4 0 1 2 5 0.0317889 1 0 0
487 2 36 4 0 1 2 5 0.0319428 1 0 0
538 1 36.5027 4.86295 0 1.01227 2 0 0.0564838 1 0.00136914 0.00675139
537 1 35.5049 4.86252 0 1.0067 2 0 0.0561229 1 -0.00506491 0.00278483
488 2 37 4 0 1 2 5 0.0321001 1 0 0
489 2 38 4 0 1 2 5 0.0320738 1 0 0
539 1 37.5017 4.86356 0 1.00174 2 0 0.056677 1 0.0055089 -0.0028411
490 2 39 4 0 1 2 5 0.0318254 1 0 0
541 1 39.5039 4.8666 0 1.00168 2 0 0.0564154 1 -0.00990355 -0.00592056
540 1 38.5034 4.85778 0 1.01715 2 0 0.0566523 1 -0.00274427 0.0235448
491 2 40 4 0 1 2 5 0.0312713 1 0 0
492 2 41 4 0 1 2 5 0.0303483 1 0 0
542 1 40.5 4.86936 0 1.01016 2 0 0.0560095 1 0.00924255 -0.00422172
543 1 41.5027 4.86767 0 1.03252 2 0 0.0555944 1 -0.00399329 -4.17673e-05
493 2 42 4 0 1 2 5 0.029666 1 0 0
494 2 43 4 0 1 2 5 0.0296614 1 0 0
544 1 42.5007 4.86561 0 1.0319 2 0 0.055425 1 0.00326229 0.00120918
495 2 44 4 0 1 2 5 0.0303945 1 0 0
545 1 43.501 4.86548 0 1.03659 2 0 0.0555501 1 -0.00046501 -0.000576857
546 1 44.5046 4.86556 0 1.01001 2 0 0.055791 1 -0.0101132 -0.0017393
496 2 45 4 0 1 2 5 0.0313127 1 0 0
497 2 46 4 0 1 2 5 0.0316496 1 0 0
548 1 46.5036 4.86587 0 1.00807 2 0 0.0557448 1 -0.00988711 -0.00930722
547 1 45.502 4.86258 0 1.00173 2 0 0.0559419 1 0.00322737 0.0102998
498 2 47 4 0 1 2 5 0.031321 1 0 0
499 2 48 4 0 1 2 5 0.0307153 1 0 0
549 1 47.4995 4.86849 0 1.02093 2 0 0.0552383 1 0.0103879 -0.0101773
500 2 49 4 0 1 2 5 0.0301461 1 0 0
550 1 48.5001 4.86441 0 1.02225 2 0 0.0547598 1 0.00146394 0.000828311
8501 1 49.5003 4.86308 0 1.06187 2 0 0.0546181 1 0.00104616 -0.00286936
501 2 0 5 0 1 2 8 5.93692e-05 1 0 0
502 2 1 5 0 1 2 8 0.000153958 1 0 0
551 2 0 6 0 1 2 8 8.97836e-05 1 0 0
552 2 1 6 0 1 2 8 0.000237869 1 0 0
503 2 2 5 0 1 2 8 0.000648543 1 0 0
504 2 3 5 0 1 2 8 0.00227043 1 0 0
553 2 2 6 0 1 2 8 0.00101818 1 0 0
554 2 3 6 0 1 2 8 0.00359568 1 0 0
505 2 4 5 0 1 2 6 0.00613732 1 0 0
555 2 4 6 0 1 2 5 0.00954743 1 0 0
556 1 4.95631 5.71013 0 1.02426 2 0 0.0154053 1 -2.75192e-05 0.00173289
557 1 5.98296 5.73085 0 1.00456 2 0 0.0213195 1 0.00664586 0.0116434
558 1 6.98337 5.73251 0 1.00032 2 0 0.0265387 1 -0.00124267 -0.00186079
509 1 7.99236 5.72443 0 1.00999 2 0 0.0318064 1 -0.00767183 0.00164956
560 1 8.98996 5.71944 0 1.01571 2 0 0.0367753 1 -0.00290067 0.0164717
561 1 9.98674 5.72348 0 1.04128 2 0 0.0415437 1 0.0151056 -0.000552595
562 1 10.9966 5.72106 0 1.02468 2 0 0.0460908 1 -0.00380365 0.00854928
563 1 11.9997 5.7227 0 1.00884 2 0 0.0503172 1 -0.00717457 0.00372004
565 1 12.9993 5.72802 0 1.01555 2 0 0.0542365 1 -0.00182672 -0.0109995
566 1 14.0056 5.73186 0 1.01485 2 0 0.0577907 1 -0.00720468 -0.00407002
567 1 15.0048 5.73194 0 1.00349 2 0 0.0608314 1 -0.00313985 -0.000992107
568 1 16.0018 5.73071 0 1.02492 2 0 0.063497 1 0.00832508 -0.000522779
569 1 18.0003 5.72891 0 1.01386 2 0 0.067772 1 0.00815965 -0.00740216
618 1 17.0004 5.72518 0 1.00786 2 0 0.0658075 1 9.77267e-05 0.0122673
570 1 19.0015 5.72978 0 1.00562 2 0 0.0694559 1 0.000738099 -0.0013297
571 1 20.0016 5.73352 0 1.00943 2 0 0.0708889 1 -0.00810065 -0.0106127
572 1 20.9985 5.73676 0 1.02492 2 0 0.072127 1 0.00796084 -0.0041029
573 1 21.9981 5.72987 0 1.00977 2 0 0.0731022 1 0.000828195 -0.000620996
574 1 22.9992 5.73222 0 1.00488 2 0 0.0738449 1 -0.00321582 -0.00211354
575 1 23.9965 5.73088 0 1.01237 2 0 0.07455 1 0.0110132 0.0111196
576 1 25.0012 5.73161 0 1.01087 2 0 0.0753748 1 0.00580768 0.00392236
577 1 26.0019 5.73218 0 1.01133 2 0 0.0762881 1 0.00335073 -0.00587329
579 1 27.0053 5.72899 0 1.01129 2 0 0.0770987 1 -0.0137336 0.00810913
580 1 28.0003 5.73298 0 1.02117 2 0 0.0776545 1 0.00710766 -0.00508432
581 1 28.9985 5.73229 0 1.01861 2 0 0.0779758 1 0.00962462 -0.00984337
632 1 29.9981 5.73703 0 1.0167 2 0 0.0779772 1 0.00367514 -0.0254575
582 1 31 5.7286 0 1.0143 2 0 0.0779282 1 -6.70463e-05 0.00149521
583 1 32.0002 5.72746 0 1.0088 2 0 0.0779571 1 -0.00777973 -0.00301674
584 1 32.9999 5.72373 0 1.00514 2 0 0.0781029 1 -0.000209061 0.0147519
585 1 34 5.72646 0 1.02197 2 0 0.0784282 1 0.00501818 0.0106264
586 1 35.0064 5.72436 0 1.02669 2 0 0.0788285 1 -0.00175672 0.0119183
587 1 36.0088 5.73094 0 1.01702 2 0 0.0793853 1 -0.00042392 -0.0101207
588 1 37.0075 5.72631 0 1.01798 2 0 0.0798295 1 -0.00304841 0.00821432
589 1 38.0079 5.72572 0 1.01656 2 0 0.0799902 1 -0.0115234 0.000537475
590 1 39.0021 5.72928 0 1.01208 2 0 0.0799358 1 0.0051937 -0.000458538
591 1 39.9988 5.73238 0 1.01334 2 0 0.0797841 1 0.00969459 0.00109388
592 1 40.9978 5.73614 0 1.02633 2 0 0.0796907 1 0.00346511 -0.00132375
594 1 43.0023 5.73119 0 1.01497 2 0 0.0793894 1 0.00273054 0.00152049
593 1 42.0041 5.73568 0 1.02837 2 0 0.0795141 1 -0.00682153 -0.00554319
595 1 44.0031 5.72984 0 1.01694 2 0 0.0792341 1 -0.00158802 0.00193429
596 1 45.0025 5.72945 0 1.01116 2 0 0.0790935 1 0.00414302 0.00504285
597 1 46.0058 5.72897 0 1.01212 2 0 0.0787886 1 -0.0184133 0.00155673
598 1 46.9998 5.72989 0 1.00861 2 0 0.0781865 1 0.00931921 0.00943406
599 1 48.0035 5.73022 0 1.02545 2 0 0.0774026 1 -0.00464901 -0.0014793
600 1 49.005 5.72713 0 1.00476 2 0 0.0769769 1 -0.0147868 -0.00112343
9751 1 49.6712 28.1469 0 1.00254 0 0 0.481838 1 6.5535e-05 7.9118e-05
601 2 0 7 0 1 2 8 0.000119749 1 0 0
602 2 1 7 0 1 2 8 0.000321932 1 0 0
651 2 0 8 0 1 2 8 0.000145807 1 0 0
652 2 1 8 0 1 2 8 0.000396623 1 0 0
603 2 2 7 0 1 2 8 0.00139188 1 0 0
604 2 3 7 0 1 2 8 0.00495507 1 0 0
653 2 2 8 0 1 2 8 0.00173195 1 0 0
654 2 3 8 0 1 2 8 0.00627154 1 0 0
605 2 4 7 0 1 2 5 0.0129685 1 0 0
655 2 4 8 0 1 2 5 0.0162288 1 0 0
656 1 4.87923 7.47814 0 1.01253 2 0 0.0217444 1 -0.00706163 -0.000184916
606 1 5.39676 6.61642 0 1.01839 2 0 0.0226891 1 0 -5e-05
607 1 6.39919 6.64114 0 1.01626 2 0 0.0293682 1 -0.00276626 -0.00387021
657 1 5.87553 7.49717 0 1.02523 2 0 0.0305042 1 0.00706163 8.49165e-05
608 1 7.48729 6.58942 0 1.01581 2 0 0.0361515 1 0.00549631 -0.00404653
609 1 7.98354 7.45264 0 1.00447 2 0 0.0465568 1 -0.000327812 -0.00312704
658 1 6.98431 7.4492 0 1.00499 2 0 0.0389422 1 -0.00632618 0.00381987
559 1 8.48725 6.58537 0 1.01669 2 0 0.0424208 1 0.000244515 0.00455632
610 1 9.48604 6.58333 0 1.00382 2 0 0.0486012 1 0.0011354 0.00841398
661 1 8.98605 7.44707 0 1.00906 2 0 0.0540489 1 0.00127739 0.00709449
612 1 9.98741 7.44623 0 1.00002 2 0 0.0614333 1 -0.00704687 -0.00619288
611 1 10.4907 6.58421 0 1.00368 2 0 0.0545678 1 -0.00207713 -0.010066
564 1 11.492 6.58023 0 1.01095 2 0 0.0602622 1 -0.00163205 0.00916323
613 1 10.9876 7.44462 0 1.00877 2 0 0.0686464 1 -0.00619714 0.00709892
614 1 12.4937 6.58674 0 1.01882 2 0 0.0656101 1 -0.00548394 -0.00291431
665 1 12.9827 7.44955 0 1.00809 2 0 0.0819892 1 0.012101 0.00755575
664 1 11.9824 7.44434 0 1.0022 2 0 0.0755732 1 0.0126797 0.00941262
615 1 13.4971 6.58848 0 1.00601 2 0 0.0705412 1 -0.00926875 -0.00330538
616 1 14.5064 6.59283 0 1.00878 2 0 0.0749293 1 -0.00729526 0.00289295
666 1 13.9875 7.44693 0 0.997531 2 0 0.0877832 1 0.0107582 0.0210715
667 1 15.0005 7.45446 0 1.00922 2 0 0.0929786 1 0.00727152 0.0108333
617 1 15.5068 6.59657 0 1.01132 2 0 0.0787851 1 -0.00309309 -0.00938131
668 1 16.0024 7.45991 0 1.01232 2 0 0.0975567 1 -0.00130151 -0.0021485
619 1 16.5089 6.59507 0 1.00791 2 0 0.0821895 1 -0.00985223 -0.00592344
669 1 17.5065 6.5915 0 1.0115 2 0 0.0851532 1 -0.0091874 0.0104649
719 1 17.0066 7.4576 0 1.0104 2 0 0.101622 1 0.005867 0.00232649
720 1 18.0059 7.4615 0 1.00384 2 0 0.105208 1 0.00955009 -0.0159967
620 1 18.5026 6.59398 0 1.00047 2 0 0.0876714 1 0.00174659 0.00297836
621 1 19.5004 6.59647 0 1.01086 2 0 0.0899599 1 -0.00696585 0.00352142
670 1 19.0055 7.46608 0 1.01205 2 0 0.108516 1 -0.0124073 -0.0039001
671 1 19.9978 7.46404 0 1.01101 2 0 0.111433 1 0.0133277 0.00101583
622 1 20.4957 6.59836 0 1.02282 2 0 0.0919601 1 0.0122078 0.00876285
623 1 21.5026 6.5982 0 1.01715 2 0 0.0934701 1 -0.00612884 -0.00610743
672 1 21.0048 7.46003 0 1.01032 2 0 0.113684 1 -0.00931019 0.00772464
673 1 22.0023 7.46335 0 1.00705 2 0 0.115047 1 -0.001362 -0.00605856
624 1 22.4968 6.59489 0 1.00933 2 0 0.0944713 1 0.0122353 0.004384
674 1 22.999 7.46209 0 1.01197 2 0 0.11552 1 0.0102642 -0.00876065
625 1 23.4991 6.59773 0 1.01358 2 0 0.0952464 1 0.000903823 -0.00141748
626 1 24.5009 6.59465 0 1.01095 2 0 0.0962936 1 -0.0024212 0.00412652
675 1 23.9989 7.46337 0 1.00974 2 0 0.116039 1 0.00415444 -0.00540559
676 1 25.0046 7.46143 0 1.01754 2 0 0.11818 1 -0.00537165 -6.0116e-05
578 1 26.5043 6.59715 0 1.0136 2 0 0.0991226 1 0.0023718 -4.46326e-05
628 1 26.0019 7.46331 0 1.00647 2 0 0.120692 1 0.000995282 -0.00866769
627 1 25.5055 6.59489 0 1.0116 2 0 0.0977867 1 -0.00667372 0.00823448
629 1 27.5045 6.59918 0 1.00585 2 0 0.100129 1 -0.00564083 -0.00293614
679 1 28.0084 7.45873 0 1.01276 2 0 0.123499 1 -0.00473464 0.0058972
678 1 27.0035 7.46605 0 1.01987 2 0 0.122409 1 0.00435427 -0.011267
630 1 28.5056 6.59487 0 1.00031 2 0 0.100796 1 -0.00530784 0.00746145
631 1 29.5041 6.59638 0 1.01679 2 0 0.100921 1 -0.00882404 0.00234695
680 1 29.0075 7.46097 0 1.0041 2 0 0.124086 1 -0.0169188 -0.00221374
681 1 30.0012 7.45892 0 1.0067 2 0 0.123889 1 0.00527555 0.00479068
682 1 30.5033 6.59285 0 1.0233 2 0 0.100691 1 -0.0081896 0.00721366
633 1 31.4995 6.59616 0 1.00197 2 0 0.100547 1 0.00759621 -0.00852855
732 1 30.9959 7.45733 0 1.02086 2 0 0.123332 1 0.0135187 0.0119168
683 1 31.998 7.46016 0 1.00602 2 0 0.123969 1 -0.00976504 0.00430897
684 1 32.5009 6.58745 0 1.01173 2 0 0.100815 1 0.00243061 0.0127912
734 1 32.9918 7.46189 0 1.01306 2 0 0.124914 1 0.0122925 -2.86384e-05
634 1 33.5009 6.58892 0 1.00318 2 0 0.101368 1 -0.0037226 0.00599015
635 1 34.5058 6.59179 0 1.01335 2 0 0.101993 1 0.00159361 -0.00499853
685 1 34.0028 7.45348 0 1.01182 2 0 0.125995 1 -0.00191497 0.00433985
686 1 35.0058 7.45706 0 1.01566 2 0 0.126821 1 0.00097967 0.000487569
636 1 35.5093 6.5913 0 1.01343 2 0 0.102773 1 -0.00529479 0.00907143