ITEM: TIMESTEP
34000
ITEM: NUMBER OF ATOMS
15950
ITEM: BOX BOUNDS pp pp pp
0.0000000000000000e+00 1.0000000000000000e+02
-5.0000000000000000e+00 2.0000000000000000e+02
-5.0000000000000000e-01 5.0000000000000000e-01
ITEM: ATOMS id type x y z c_rho c_phase c_nbond c_temp f_rheo_chi_chi fx fy
1 2 0 -5 0 1 2 8 6.21219e-09 1 0 0
2 2 1 -5 0 1 2 8 8.4261e-09 1 0 0
51 2 0 -4 0 1 2 8 3.05459e-08 1 0 0
52 2 1 -4 0 1 2 8 4.24202e-08 1 0 0
3 2 2 -5 0 1 2 8 1.58074e-08 1 0 0
4 2 3 -5 0 1 2 8 2.94306e-08 1 0 0
53 2 2 -4 0 1 2 8 8.24675e-08 1 0 0
54 2 3 -4 0 1 2 8 1.57193e-07 1 0 0
5 2 4 -5 0 1 2 7 5.0994e-08 1 0 0
55 2 4 -4 0 1 2 8 2.70878e-07 1 0 0
6 2 5 -5 0 1 2 6 8.27258e-08 1 0 0
7 2 6 -5 0 1 2 5 1.17934e-07 1 0 0
56 2 5 -4 0 1 2 8 4.19595e-07 1 0 0
57 2 6 -4 0 1 2 8 5.86831e-07 1 0 0
8 2 7 -5 0 1 2 5 1.50829e-07 1 0 0
9 2 8 -5 0 1 2 5 1.79886e-07 1 0 0
58 2 7 -4 0 1 2 8 7.52413e-07 1 0 0
59 2 8 -4 0 1 2 8 8.99808e-07 1 0 0
10 2 9 -5 0 1 2 5 2.03575e-07 1 0 0
60 2 9 -4 0 1 2 8 1.02014e-06 1 0 0
11 2 10 -5 0 1 2 5 2.21865e-07 1 0 0
12 2 11 -5 0 1 2 5 2.35927e-07 1 0 0
61 2 10 -4 0 1 2 8 1.11332e-06 1 0 0
62 2 11 -4 0 1 2 8 1.18538e-06 1 0 0
13 2 12 -5 0 1 2 5 2.47248e-07 1 0 0
14 2 13 -5 0 1 2 5 2.56765e-07 1 0 0
63 2 12 -4 0 1 2 8 1.24391e-06 1 0 0
64 2 13 -4 0 1 2 8 1.29347e-06 1 0 0
15 2 14 -5 0 1 2 5 2.64568e-07 1 0 0
65 2 14 -4 0 1 2 8 1.33405e-06 1 0 0
16 2 15 -5 0 1 2 5 2.70418e-07 1 0 0
17 2 16 -5 0 1 2 5 2.74471e-07 1 0 0
66 2 15 -4 0 1 2 8 1.36407e-06 1 0 0
67 2 16 -4 0 1 2 8 1.38458e-06 1 0 0
18 2 17 -5 0 1 2 5 2.77315e-07 1 0 0
19 2 18 -5 0 1 2 5 2.79282e-07 1 0 0
68 2 17 -4 0 1 2 8 1.39935e-06 1 0 0
69 2 18 -4 0 1 2 8 1.41056e-06 1 0 0
20 2 19 -5 0 1 2 5 2.7996e-07 1 0 0
70 2 19 -4 0 1 2 8 1.41592e-06 1 0 0
21 2 20 -5 0 1 2 5 2.7853e-07 1 0 0
22 2 21 -5 0 1 2 5 2.74631e-07 1 0 0
71 2 20 -4 0 1 2 8 1.41059e-06 1 0 0
72 2 21 -4 0 1 2 8 1.39219e-06 1 0 0
23 2 22 -5 0 1 2 5 2.68959e-07 1 0 0
24 2 23 -5 0 1 2 5 2.63206e-07 1 0 0
73 2 22 -4 0 1 2 8 1.36405e-06 1 0 0
74 2 23 -4 0 1 2 8 1.33487e-06 1 0 0
25 2 24 -5 0 1 2 5 2.59405e-07 1 0 0
75 2 24 -4 0 1 2 8 1.31543e-06 1 0 0
26 2 25 -5 0 1 2 5 2.59005e-07 1 0 0
27 2 26 -5 0 1 2 5 2.62177e-07 1 0 0
76 2 25 -4 0 1 2 8 1.31361e-06 1 0 0
77 2 26 -4 0 1 2 8 1.33032e-06 1 0 0
28 2 27 -5 0 1 2 5 2.6784e-07 1 0 0
29 2 28 -5 0 1 2 5 2.74457e-07 1 0 0
78 2 27 -4 0 1 2 8 1.35951e-06 1 0 0
79 2 28 -4 0 1 2 8 1.39276e-06 1 0 0
30 2 29 -5 0 1 2 5 2.80853e-07 1 0 0
80 2 29 -4 0 1 2 8 1.42414e-06 1 0 0
31 2 30 -5 0 1 2 5 2.86375e-07 1 0 0
32 2 31 -5 0 1 2 5 2.90543e-07 1 0 0
81 2 30 -4 0 1 2 8 1.45095e-06 1 0 0
82 2 31 -4 0 1 2 8 1.47125e-06 1 0 0
33 2 32 -5 0 1 2 5 2.92908e-07 1 0 0
34 2 33 -5 0 1 2 5 2.93381e-07 1 0 0
83 2 32 -4 0 1 2 8 1.48274e-06 1 0 0
84 2 33 -4 0 1 2 8 1.48475e-06 1 0 0
35 2 34 -5 0 1 2 5 2.92492e-07 1 0 0
85 2 34 -4 0 1 2 8 1.48004e-06 1 0 0
36 2 35 -5 0 1 2 5 2.91056e-07 1 0 0
37 2 36 -5 0 1 2 5 2.89511e-07 1 0 0
86 2 35 -4 0 1 2 8 1.47303e-06 1 0 0
87 2 36 -4 0 1 2 8 1.46604e-06 1 0 0
38 2 37 -5 0 1 2 5 2.87612e-07 1 0 0
39 2 38 -5 0 1 2 5 2.84747e-07 1 0 0
88 2 37 -4 0 1 2 8 1.45749e-06 1 0 0
89 2 38 -4 0 1 2 8 1.44376e-06 1 0 0
40 2 39 -5 0 1 2 5 2.80573e-07 1 0 0
90 2 39 -4 0 1 2 8 1.42262e-06 1 0 0
41 2 40 -5 0 1 2 5 2.75545e-07 1 0 0
42 2 41 -5 0 1 2 5 2.7099e-07 1 0 0
91 2 40 -4 0 1 2 8 1.39623e-06 1 0 0
92 2 41 -4 0 1 2 8 1.37164e-06 1 0 0
43 2 42 -5 0 1 2 5 2.6856e-07 1 0 0
44 2 43 -5 0 1 2 5 2.69221e-07 1 0 0
93 2 42 -4 0 1 2 8 1.35806e-06 1 0 0
94 2 43 -4 0 1 2 8 1.36116e-06 1 0 0
45 2 44 -5 0 1 2 5 2.72422e-07 1 0 0
95 2 44 -4 0 1 2 8 1.37825e-06 1 0 0
46 2 45 -5 0 1 2 5 2.76208e-07 1 0 0
47 2 46 -5 0 1 2 5 2.78406e-07 1 0 0
96 2 45 -4 0 1 2 8 1.39867e-06 1 0 0
97 2 46 -4 0 1 2 8 1.41047e-06 1 0 0
48 2 47 -5 0 1 2 5 2.78063e-07 1 0 0
49 2 48 -5 0 1 2 5 2.75998e-07 1 0 0
98 2 47 -4 0 1 2 8 1.40841e-06 1 0 0
99 2 48 -4 0 1 2 8 1.39707e-06 1 0 0
50 2 49 -5 0 1 2 5 2.74098e-07 1 0 0
100 2 49 -4 0 1 2 8 1.38688e-06 1 0 0
101 2 0 -3 0 1 2 8 1.37586e-07 1 0 0
102 2 1 -3 0 1 2 8 1.9614e-07 1 0 0
151 2 0 -2 0 1 2 8 5.62339e-07 1 0 0
152 2 1 -2 0 1 2 8 8.24924e-07 1 0 0
103 2 2 -3 0 1 2 8 3.965e-07 1 0 0
104 2 3 -3 0 1 2 8 7.78071e-07 1 0 0
153 2 2 -2 0 1 2 8 1.73875e-06 1 0 0
154 2 3 -2 0 1 2 8 3.52226e-06 1 0 0
105 2 4 -3 0 1 2 8 1.36708e-06 1 0 0
155 2 4 -2 0 1 2 8 6.33472e-06 1 0 0
106 2 5 -3 0 1 2 8 2.13988e-06 1 0 0
107 2 6 -3 0 1 2 8 3.01536e-06 1 0 0
156 2 5 -2 0 1 2 8 1.00743e-05 1 0 0
157 2 6 -2 0 1 2 8 1.43328e-05 1 0 0
108 2 7 -3 0 1 2 8 3.8856e-06 1 0 0
109 2 8 -3 0 1 2 8 4.65983e-06 1 0 0
158 2 7 -2 0 1 2 8 1.85657e-05 1 0 0
159 2 8 -2 0 1 2 8 2.23272e-05 1 0 0
110 2 9 -3 0 1 2 8 5.29183e-06 1 0 0
160 2 9 -2 0 1 2 8 2.54003e-05 1 0 0
111 2 10 -3 0 1 2 8 5.78231e-06 1 0 0
112 2 11 -3 0 1 2 8 6.16388e-06 1 0 0
161 2 10 -2 0 1 2 8 2.77955e-05 1 0 0
162 2 11 -2 0 1 2 8 2.96741e-05 1 0 0
113 2 12 -3 0 1 2 8 6.47696e-06 1 0 0
114 2 13 -3 0 1 2 8 6.7448e-06 1 0 0
163 2 12 -2 0 1 2 8 3.12333e-05 1 0 0
164 2 13 -2 0 1 2 8 3.25824e-05 1 0 0
115 2 14 -3 0 1 2 8 6.96422e-06 1 0 0
165 2 14 -2 0 1 2 8 3.3689e-05 1 0 0
116 2 15 -3 0 1 2 8 7.12404e-06 1 0 0
117 2 16 -3 0 1 2 8 7.23136e-06 1 0 0
166 2 15 -2 0 1 2 8 3.44828e-05 1 0 0
167 2 16 -2 0 1 2 8 3.50064e-05 1 0 0
118 2 17 -3 0 1 2 8 7.31081e-06 1 0 0
119 2 18 -3 0 1 2 8 7.37711e-06 1 0 0
168 2 17 -2 0 1 2 8 3.54069e-05 1 0 0
169 2 18 -2 0 1 2 8 3.57725e-05 1 0 0
120 2 19 -3 0 1 2 8 7.41652e-06 1 0 0
170 2 19 -2 0 1 2 8 3.60272e-05 1 0 0
121 2 20 -3 0 1 2 8 7.39966e-06 1 0 0
122 2 21 -3 0 1 2 8 7.31084e-06 1 0 0
171 2 20 -2 0 1 2 8 3.6007e-05 1 0 0
172 2 21 -2 0 1 2 8 3.56219e-05 1 0 0
123 2 22 -3 0 1 2 8 7.16652e-06 1 0 0
124 2 23 -3 0 1 2 8 7.01321e-06 1 0 0
173 2 22 -2 0 1 2 8 3.49473e-05 1 0 0
174 2 23 -2 0 1 2 8 3.42098e-05 1 0 0
125 2 24 -3 0 1 2 8 6.91005e-06 1 0 0
175 2 24 -2 0 1 2 8 3.37075e-05 1 0 0
126 2 25 -3 0 1 2 8 6.90177e-06 1 0 0
127 2 26 -3 0 1 2 8 6.99362e-06 1 0 0
176 2 25 -2 0 1 2 8 3.36758e-05 1 0 0
177 2 26 -2 0 1 2 8 3.41447e-05 1 0 0
128 2 27 -3 0 1 2 8 7.15015e-06 1 0 0
129 2 28 -3 0 1 2 8 7.32302e-06 1 0 0
178 2 27 -2 0 1 2 8 3.49218e-05 1 0 0
179 2 28 -2 0 1 2 8 3.57493e-05 1 0 0
130 2 29 -3 0 1 2 8 7.48141e-06 1 0 0
180 2 29 -2 0 1 2 8 3.64803e-05 1 0 0
131 2 30 -3 0 1 2 8 7.61536e-06 1 0 0
132 2 31 -3 0 1 2 8 7.71775e-06 1 0 0
181 2 30 -2 0 1 2 8 3.70919e-05 1 0 0
182 2 31 -2 0 1 2 8 3.75676e-05 1 0 0
133 2 32 -3 0 1 2 8 7.7758e-06 1 0 0
134 2 33 -3 0 1 2 8 7.78428e-06 1 0 0
183 2 32 -2 0 1 2 8 3.78405e-05 1 0 0
184 2 33 -2 0 1 2 8 3.78732e-05 1 0 0
135 2 34 -3 0 1 2 8 7.75815e-06 1 0 0
185 2 34 -2 0 1 2 8 3.77406e-05 1 0 0
136 2 35 -3 0 1 2 8 7.72278e-06 1 0 0
137 2 36 -3 0 1 2 8 7.69098e-06 1 0 0
186 2 35 -2 0 1 2 8 3.75777e-05 1 0 0
187 2 36 -2 0 1 2 8 3.74508e-05 1 0 0
138 2 37 -3 0 1 2 8 7.65274e-06 1 0 0
139 2 38 -3 0 1 2 8 7.5858e-06 1 0 0
188 2 37 -2 0 1 2 8 3.73012e-05 1 0 0
189 2 38 -2 0 1 2 8 3.70059e-05 1 0 0
140 2 39 -3 0 1 2 8 7.47575e-06 1 0 0
190 2 39 -2 0 1 2 8 3.64809e-05 1 0 0
141 2 40 -3 0 1 2 8 7.33256e-06 1 0 0
142 2 41 -3 0 1 2 8 7.19519e-06 1 0 0
191 2 40 -2 0 1 2 8 3.57668e-05 1 0 0
192 2 41 -2 0 1 2 8 3.50599e-05 1 0 0
143 2 42 -3 0 1 2 8 7.11675e-06 1 0 0
144 2 43 -3 0 1 2 8 7.13186e-06 1 0 0
193 2 42 -2 0 1 2 8 3.46422e-05 1 0 0
194 2 43 -2 0 1 2 8 3.47081e-05 1 0 0
145 2 44 -3 0 1 2 8 7.22703e-06 1 0 0
195 2 44 -2 0 1 2 8 3.51965e-05 1 0 0
146 2 45 -3 0 1 2 8 7.34182e-06 1 0 0
147 2 46 -3 0 1 2 8 7.40734e-06 1 0 0
196 2 45 -2 0 1 2 8 3.57905e-05 1 0 0
197 2 46 -2 0 1 2 8 3.61244e-05 1 0 0
148 2 47 -3 0 1 2 8 7.39375e-06 1 0 0
149 2 48 -3 0 1 2 8 7.32807e-06 1 0 0
198 2 47 -2 0 1 2 8 3.60422e-05 1 0 0
199 2 48 -2 0 1 2 8 3.56901e-05 1 0 0
150 2 49 -3 0 1 2 8 7.27026e-06 1 0 0
200 2 49 -2 0 1 2 8 3.53862e-05 1 0 0
201 2 0 -1 0 1 2 8 2.06389e-06 1 0 0
202 2 1 -1 0 1 2 8 3.12153e-06 1 0 0
203 2 2 -1 0 1 2 8 6.87376e-06 1 0 0
204 2 3 -1 0 1 2 8 1.44051e-05 1 0 0
205 2 4 -1 0 1 2 8 2.65752e-05 1 0 0
206 2 5 -1 0 1 2 8 4.29993e-05 1 0 0
207 2 6 -1 0 1 2 8 6.17897e-05 1 0 0
208 2 7 -1 0 1 2 8 8.04432e-05 1 0 0
209 2 8 -1 0 1 2 8 9.69979e-05 1 0 0
210 2 9 -1 0 1 2 8 0.000110558 1 0 0
211 2 10 -1 0 1 2 8 0.000121206 1 0 0
212 2 11 -1 0 1 2 8 0.000129648 1 0 0
213 2 12 -1 0 1 2 8 0.000136746 1 0 0
214 2 13 -1 0 1 2 8 0.000142961 1 0 0
215 2 14 -1 0 1 2 8 0.000148075 1 0 0
216 2 15 -1 0 1 2 8 0.000151695 1 0 0
217 2 16 -1 0 1 2 8 0.000154046 1 0 0
218 2 17 -1 0 1 2 8 0.000155914 1 0 0
219 2 18 -1 0 1 2 8 0.000157765 1 0 0
220 2 19 -1 0 1 2 8 0.000159213 1 0 0
221 2 20 -1 0 1 2 8 0.000159439 1 0 0
222 2 21 -1 0 1 2 8 0.000157997 1 0 0
223 2 22 -1 0 1 2 8 0.000155206 1 0 0
224 2 23 -1 0 1 2 8 0.000152045 1 0 0
225 2 24 -1 0 1 2 8 0.00014986 1 0 0
226 2 25 -1 0 1 2 8 0.000149775 1 0 0
227 2 26 -1 0 1 2 8 0.000151953 1 0 0
228 2 27 -1 0 1 2 8 0.000155452 1 0 0
229 2 28 -1 0 1 2 8 0.000159022 1 0 0
230 2 29 -1 0 1 2 8 0.000162034 1 0 0
231 2 30 -1 0 1 2 8 0.000164526 1 0 0
232 2 31 -1 0 1 2 8 0.000166523 1 0 0
233 2 32 -1 0 1 2 8 0.000167697 1 0 0
234 2 33 -1 0 1 2 8 0.000167816 1 0 0
235 2 34 -1 0 1 2 8 0.000167216 1 0 0
236 2 35 -1 0 1 2 8 0.000166552 1 0 0
237 2 36 -1 0 1 2 8 0.000166131 1 0 0
238 2 37 -1 0 1 2 8 0.00016565 1 0 0
239 2 38 -1 0 1 2 8 0.000164504 1 0 0
240 2 39 -1 0 1 2 8 0.000162264 1 0 0
241 2 40 -1 0 1 2 8 0.000159066 1 0 0
242 2 41 -1 0 1 2 8 0.000155791 1 0 0
243 2 42 -1 0 1 2 8 0.000153787 1 0 0
244 2 43 -1 0 1 2 8 0.000154034 1 0 0
245 2 44 -1 0 1 2 8 0.000156291 1 0 0
246 2 45 -1 0 1 2 8 0.000159056 1 0 0
247 2 46 -1 0 1 2 8 0.00016058 1 0 0
248 2 47 -1 0 1 2 8 0.000160132 1 0 0
249 2 48 -1 0 1 2 8 0.000158427 1 0 0
250 2 49 -1 0 1 2 8 0.000156982 1 0 0
251 2 0 0 0 1 2 8 6.72703e-06 1 0 0
252 2 1 0 0 1 2 8 1.04994e-05 1 0 0
301 2 0 1 0 1 2 8 1.9263e-05 1 0 0
302 2 1 1 0 1 2 8 3.10013e-05 1 0 0
253 2 2 0 0 1 2 8 2.41677e-05 1 0 0
254 2 3 0 0 1 2 8 5.24679e-05 1 0 0
303 2 2 1 0 1 2 8 7.44355e-05 1 0 0
304 2 3 1 0 1 2 8 0.000167293 1 0 0
255 2 4 0 0 1 2 8 9.94848e-05 1 0 0
305 2 4 1 0 1 2 8 0.000326375 1 0 0
256 2 5 0 0 1 2 8 0.000163995 1 0 0
257 2 6 0 0 1 2 8 0.000238052 1 0 0
306 2 5 1 0 1 2 8 0.000548852 1 0 0
307 2 6 1 0 1 2 8 0.000804452 1 0 0
258 2 7 0 0 1 2 8 0.00031131 1 0 0
259 2 8 0 0 1 2 8 0.000376239 1 0 0
308 2 7 1 0 1 2 8 0.00105531 1 0 0
309 2 8 1 0 1 2 8 0.00127739 1 0 0
260 2 9 0 0 1 2 8 0.000429704 1 0 0
310 2 9 1 0 1 2 8 0.001462 1 0 0
261 2 10 0 0 1 2 8 0.000472174 1 0 0
262 2 11 0 0 1 2 8 0.000506329 1 0 0
311 2 10 1 0 1 2 8 0.00161116 1 0 0
312 2 11 1 0 1 2 8 0.00173337 1 0 0
263 2 12 0 0 1 2 8 0.000535451 1 0 0
264 2 13 0 0 1 2 8 0.000561286 1 0 0
313 2 12 1 0 1 2 8 0.00183915 1 0 0
314 2 13 1 0 1 2 8 0.00193424 1 0 0
265 2 14 0 0 1 2 8 0.000582655 1 0 0
315 2 14 1 0 1 2 8 0.00201362 1 0 0
266 2 15 0 0 1 2 8 0.000597651 1 0 0
267 2 16 0 0 1 2 8 0.000607328 1 0 0
316 2 15 1 0 1 2 8 0.0020694 1 0 0
317 2 16 1 0 1 2 8 0.00210574 1 0 0
268 2 17 0 0 1 2 8 0.000615354 1 0 0
269 2 18 0 0 1 2 8 0.00062386 1 0 0
318 2 17 1 0 1 2 8 0.0021373 1 0 0
319 2 18 1 0 1 2 8 0.00217224 1 0 0
270 2 19 0 0 1 2 8 0.000631067 1 0 0
320 2 19 1 0 1 2 8 0.00220337 1 0 0
271 2 20 0 0 1 2 8 0.000633398 1 0 0
272 2 21 0 0 1 2 8 0.000629001 1 0 0
321 2 20 1 0 1 2 8 0.00221727 1 0 0
322 2 21 1 0 1 2 8 0.00220783 1 0 0
273 2 22 0 0 1 2 8 0.000619098 1 0 0
274 2 23 0 0 1 2 8 0.000607368 1 0 0
323 2 22 1 0 1 2 8 0.00217939 1 0 0
324 2 23 1 0 1 2 8 0.00214336 1 0 0
275 2 24 0 0 1 2 8 0.000599094 1 0 0
325 2 24 1 0 1 2 8 0.00211724 1 0 0
276 2 25 0 0 1 2 8 0.000599071 1 0 0
277 2 26 0 0 1 2 8 0.000608137 1 0 0
326 2 25 1 0 1 2 8 0.00211886 1 0 0
327 2 26 1 0 1 2 8 0.002152 1 0 0
278 2 27 0 0 1 2 8 0.000622208 1 0 0
279 2 28 0 0 1 2 8 0.000635866 1 0 0
328 2 27 1 0 1 2 8 0.0022015 1 0 0
329 2 28 1 0 1 2 8 0.00224692 1 0 0
280 2 29 0 0 1 2 8 0.000646737 1 0 0
330 2 29 1 0 1 2 8 0.00228051 1 0 0
281 2 30 0 0 1 2 8 0.000655638 1 0 0
282 2 31 0 0 1 2 8 0.00066311 1 0 0
331 2 30 1 0 1 2 8 0.00230782 1 0 0
332 2 31 1 0 1 2 8 0.00233241 1 0 0
283 2 32 0 0 1 2 8 0.000667699 1 0 0
284 2 33 0 0 1 2 8 0.000668144 1 0 0
333 2 32 1 0 1 2 8 0.00234855 1 0 0
334 2 33 1 0 1 2 8 0.00235042 1 0 0
285 2 34 0 0 1 2 8 0.00066578 1 0 0
335 2 34 1 0 1 2 8 0.00234261 1 0 0
286 2 35 0 0 1 2 8 0.000663447 1 0 0
287 2 36 0 0 1 2 8 0.000662413 1 0 0
336 2 35 1 0 1 2 8 0.00233592 1 0 0
337 2 36 1 0 1 2 8 0.00233481 1 0 0
288 2 37 0 0 1 2 8 0.000661285 1 0 0
289 2 38 0 0 1 2 8 0.000657476 1 0 0
338 2 37 1 0 1 2 8 0.00233372 1 0 0
339 2 38 1 0 1 2 8 0.00232332 1 0 0
290 2 39 0 0 1 2 8 0.000649118 1 0 0
340 2 39 1 0 1 2 8 0.00229688 1 0 0
291 2 40 0 0 1 2 8 0.000636527 1 0 0
292 2 41 0 0 1 2 8 0.000623142 1 0 0
341 2 40 1 0 1 2 8 0.00225461 1 0 0
342 2 41 1 0 1 2 8 0.0022077 1 0 0
293 2 42 0 0 1 2 8 0.000614649 1 0 0
294 2 43 0 0 1 2 8 0.000615407 1 0 0
343 2 42 1 0 1 2 8 0.00217677 1 0 0
344 2 43 1 0 1 2 8 0.00217851 1 0 0
295 2 44 0 0 1 2 8 0.000624611 1 0 0
345 2 44 1 0 1 2 8 0.00221074 1 0 0
296 2 45 0 0 1 2 8 0.000635961 1 0 0
297 2 46 0 0 1 2 8 0.000642051 1 0 0
346 2 45 1 0 1 2 8 0.00225066 1 0 0
347 2 46 1 0 1 2 8 0.00227128 1 0 0
298 2 47 0 0 1 2 8 0.000639892 1 0 0
299 2 48 0 0 1 2 8 0.000632588 1 0 0
348 2 47 1 0 1 2 8 0.00226229 1 0 0
349 2 48 1 0 1 2 8 0.00223536 1 0 0
300 2 49 0 0 1 2 8 0.000626485 1 0 0
350 2 49 1 0 1 2 8 0.00221313 1 0 0
351 2 0 2 0 1 2 8 4.8029e-05 1 0 0
352 2 1 2 0 1 2 8 7.94749e-05 1 0 0
401 2 0 3 0 1 2 8 0.000103739 1 0 0
402 2 1 3 0 1 2 8 0.000175757 1 0 0
353 2 2 2 0 1 2 8 0.000197857 1 0 0
354 2 3 2 0 1 2 8 0.000457768 1 0 0
403 2 2 3 0 1 2 8 0.000449321 1 0 0
404 2 3 3 0 1 2 8 0.00105586 1 0 0
355 2 4 2 0 1 2 8 0.000917169 1 0 0
405 2 4 3 0 1 2 8 0.00214248 1 0 0
356 2 5 2 0 1 2 8 0.00157518 1 0 0
357 2 6 2 0 1 2 8 0.0023273 1 0 0
406 2 5 3 0 1 2 8 0.00377012 1 0 0
407 2 6 3 0 1 2 8 0.00560352 1 0 0
358 2 7 2 0 1 2 8 0.00305316 1 0 0
359 2 8 2 0 1 2 8 0.00369584 1 0 0
408 2 7 3 0 1 2 8 0.00729362 1 0 0
409 2 8 3 0 1 2 8 0.00880456 1 0 0
360 2 9 2 0 1 2 8 0.00423897 1 0 0
410 2 9 3 0 1 2 8 0.0101191 1 0 0
361 2 10 2 0 1 2 8 0.0046884 1 0 0
362 2 11 2 0 1 2 8 0.00506571 1 0 0
411 2 10 3 0 1 2 8 0.0112406 1 0 0
412 2 11 3 0 1 2 8 0.0122132 1 0 0
363 2 12 2 0 1 2 8 0.0053976 1 0 0
364 2 13 2 0 1 2 8 0.00569974 1 0 0
413 2 12 3 0 1 2 8 0.0130854 1 0 0
414 2 13 3 0 1 2 8 0.0138875 1 0 0
365 2 14 2 0 1 2 8 0.00595569 1 0 0
415 2 14 3 0 1 2 8 0.0145836 1 0 0
366 2 15 2 0 1 2 8 0.00613888 1 0 0
367 2 16 2 0 1 2 8 0.00626263 1 0 0
416 2 15 3 0 1 2 8 0.0151038 1 0 0
417 2 16 3 0 1 2 8 0.0154804 1 0 0
368 2 17 2 0 1 2 8 0.00637478 1 0 0
369 2 18 2 0 1 2 8 0.00650053 1 0 0
418 2 17 3 0 1 2 8 0.0158343 1 0 0
419 2 18 3 0 1 2 8 0.0162227 1 0 0
370 2 19 2 0 1 2 8 0.00661505 1 0 0
420 2 19 3 0 1 2 8 0.0165758 1 0 0
371 2 20 2 0 1 2 8 0.00667705 1 0 0
372 2 21 2 0 1 2 8 0.006672 1 0 0
421 2 20 3 0 1 2 8 0.0167934 1 0 0
422 2 21 3 0 1 2 8 0.01686 1 0 0
373 2 22 2 0 1 2 8 0.00661426 1 0 0
374 2 23 2 0 1 2 8 0.00653067 1 0 0
423 2 22 3 0 1 2 8 0.0168214 1 0 0
424 2 23 3 0 1 2 8 0.016712 1 0 0
375 2 24 2 0 1 2 8 0.00646761 1 0 0
425 2 24 3 0 1 2 8 0.0166204 1 0 0
376 2 25 2 0 1 2 8 0.00648068 1 0 0
377 2 26 2 0 1 2 8 0.0065842 1 0 0
426 2 25 3 0 1 2 8 0.0166895 1 0 0
427 2 26 3 0 1 2 8 0.016955 1 0 0
378 2 27 2 0 1 2 8 0.00673234 1 0 0
379 2 28 2 0 1 2 8 0.00686036 1 0 0
428 2 27 3 0 1 2 8 0.0173214 1 0 0
429 2 28 3 0 1 2 8 0.0176208 1 0 0
380 2 29 2 0 1 2 8 0.00694715 1 0 0
430 2 29 3 0 1 2 8 0.017804 1 0 0
381 2 30 2 0 1 2 8 0.00701783 1 0 0
382 2 31 2 0 1 2 8 0.00708808 1 0 0
431 2 30 3 0 1 2 8 0.0179598 1 0 0
432 2 31 3 0 1 2 8 0.0181334 1 0 0
383 2 32 2 0 1 2 8 0.00713847 1 0 0
384 2 33 2 0 1 2 8 0.00714701 1 0 0
433 2 32 3 0 1 2 8 0.0182726 1 0 0
434 2 33 3 0 1 2 8 0.0183103 1 0 0
385 2 34 2 0 1 2 8 0.00712669 1 0 0
435 2 34 3 0 1 2 8 0.0182725 1 0 0
386 2 35 2 0 1 2 8 0.00711269 1 0 0
387 2 36 2 0 1 2 8 0.00711785 1 0 0
436 2 35 3 0 1 2 8 0.0182595 1 0 0
437 2 36 3 0 1 2 8 0.0182992 1 0 0
388 2 37 2 0 1 2 8 0.0071232 1 0 0
389 2 38 2 0 1 2 8 0.00710142 1 0 0
438 2 37 3 0 1 2 8 0.0183344 1 0 0
439 2 38 3 0 1 2 8 0.0183048 1 0 0
390 2 39 2 0 1 2 8 0.00703405 1 0 0
440 2 39 3 0 1 2 8 0.0181801 1 0 0
391 2 40 2 0 1 2 8 0.00691875 1 0 0
392 2 41 2 0 1 2 8 0.00678363 1 0 0
441 2 40 3 0 1 2 8 0.0179487 1 0 0
442 2 41 3 0 1 2 8 0.0176477 1 0 0
393 2 42 2 0 1 2 8 0.00669087 1 0 0
394 2 43 2 0 1 2 8 0.00669314 1 0 0
443 2 42 3 0 1 2 8 0.017433 1 0 0
444 2 43 3 0 1 2 8 0.017432 1 0 0
395 2 44 2 0 1 2 8 0.00678613 1 0 0
445 2 44 3 0 1 2 8 0.0176403 1 0 0
396 2 45 2 0 1 2 8 0.00690151 1 0 0
397 2 46 2 0 1 2 8 0.00695771 1 0 0
446 2 45 3 0 1 2 8 0.0179 1 0 0
447 2 46 3 0 1 2 8 0.0180129 1 0 0
398 2 47 2 0 1 2 8 0.00692656 1 0 0
399 2 48 2 0 1 2 8 0.0068447 1 0 0
448 2 47 3 0 1 2 8 0.0179265 1 0 0
449 2 48 3 0 1 2 8 0.0177366 1 0 0
400 2 49 2 0 1 2 8 0.00677783 1 0 0
450 2 49 3 0 1 2 8 0.0175782 1 0 0
451 2 0 4 0 1 2 8 0.000194234 1 0 0
452 2 1 4 0 1 2 8 0.000335474 1 0 0
453 2 2 4 0 1 2 8 0.000873263 1 0 0
454 2 3 4 0 1 2 8 0.00204863 1 0 0
455 2 4 4 0 1 2 7 0.0040238 1 0 0
456 2 5 4 0 1 2 6 0.00726656 1 0 0
457 2 6 4 0 1 2 5 0.010593 1 0 0
506 1 5.47839 4.87086 0 1.0006 2 0 0.0126151 1 0.00967783 0.004941
507 1 6.48824 4.87884 0 1.02569 2 0 0.0157915 1 -3.57123e-05 -0.000111375
458 2 7 4 0 1 2 5 0.0134472 1 0 0
459 2 8 4 0 1 2 5 0.0161137 1 0 0
508 1 7.49858 4.86324 0 1.03193 2 0 0.0189465 1 0.000909472 0.00730662
460 2 9 4 0 1 2 5 0.0185236 1 0 0
510 1 8.49878 4.86563 0 1.01036 2 0 0.0219639 1 -0.00374539 -0.00171795
511 1 9.4974 4.86689 0 1.00136 2 0 0.0247898 1 0.00517486 -0.00840343
461 2 10 4 0 1 2 5 0.0206621 1 0 0
462 2 11 4 0 1 2 5 0.0226037 1 0 0
512 1 10.5009 4.86163 0 1.01573 2 0 0.0274616 1 -0.000911151 0.0130507
513 1 11.501 4.86322 0 1.01534 2 0 0.0300078 1 0.000365694 0.00598532
463 2 12 4 0 1 2 5 0.0243883 1 0 0
464 2 13 4 0 1 2 5 0.0260361 1 0 0
514 1 12.5014 4.8632 0 1.01802 2 0 0.0323968 1 -0.00162359 0.00817754
465 2 14 4 0 1 2 5 0.0275124 1 0 0
515 1 13.5027 4.86586 0 1.02031 2 0 0.0345905 1 -0.0216701 0.00186959
516 1 14.493 4.86447 0 1.0096 2 0 0.0366264 1 0.026993 0.00442624
466 2 15 4 0 1 2 5 0.0287048 1 0 0
467 2 16 4 0 1 2 5 0.029659 1 0 0
518 1 16.5022 4.86423 0 1.02515 2 0 0.0400729 1 -0.00514491 -0.0086969
517 1 15.5003 4.86494 0 1.02614 2 0 0.0384149 1 -0.00649539 -0.00756896
468 2 17 4 0 1 2 5 0.0305698 1 0 0
469 2 18 4 0 1 2 5 0.0315072 1 0 0
519 1 17.5045 4.86608 0 1.0239 2 0 0.0416202 1 -0.00967014 -0.000137414
470 2 19 4 0 1 2 5 0.0323457 1 0 0
520 1 18.502 4.86479 0 1.00577 2 0 0.0430153 1 0.00261713 0.00273687
521 1 19.5043 4.86845 0 1.00453 2 0 0.0441955 1 -0.00289538 -0.0027472
471 2 20 4 0 1 2 5 0.0329291 1 0 0
472 2 21 4 0 1 2 5 0.0332795 1 0 0
523 1 21.5042 4.86505 0 1.02268 2 0 0.0460423 1 -0.00379486 -0.000291203
522 1 20.5023 4.86545 0 1.0139 2 0 0.0451773 1 0.00219475 0.00282645
473 2 22 4 0 1 2 5 0.0335085 1 0 0
474 2 23 4 0 1 2 5 0.0335966 1 0 0
524 1 22.5022 4.86417 0 1.01383 2 0 0.0467913 1 -0.00381566 0.00546488
475 2 24 4 0 1 2 5 0.0336446 1 0 0
525 1 23.4994 4.86344 0 1.03669 2 0 0.0474197 1 0.00111574 0.00757608
526 1 24.4969 4.86346 0 1.04245 2 0 0.048033 1 0.00942528 0.00547669
476 2 25 4 0 1 2 5 0.0339045 1 0 0
477 2 26 4 0 1 2 5 0.0344197 1 0 0
528 1 26.5049 4.87012 0 1.04147 2 0 0.0494276 1 -0.00057306 -0.00335347
527 1 25.5017 4.8629 0 1.03798 2 0 0.0487009 1 -0.00164974 0.00929776
478 2 27 4 0 1 2 5 0.0350918 1 0 0
479 2 28 4 0 1 2 5 0.0356264 1 0 0
529 1 27.5036 4.86916 0 1.0019 2 0 0.0501144 1 0.00408451 -0.00286907
480 2 29 4 0 1 2 5 0.0359526 1 0 0
531 1 29.5055 4.86374 0 1.01679 2 0 0.0512185 1 -0.00466036 0.0080899
530 1 28.5048 4.86858 0 1.02091 2 0 0.0507116 1 0.00469517 -0.00847607
481 2 30 4 0 1 2 5 0.0362537 1 0 0
482 2 31 4 0 1 2 5 0.0366028 1 0 0
533 1 31.5075 4.86776 0 1.004 2 0 0.0522401 1 0.00529826 -0.00291217
532 1 30.5094 4.87399 0 1.0182 2 0 0.0517233 1 -0.000880116 -0.0155202
483 2 32 4 0 1 2 5 0.0369095 1 0 0
484 2 33 4 0 1 2 5 0.0370416 1 0 0
534 1 32.5078 4.86877 0 1.00171 2 0 0.0526028 1 -0.00827513 -0.00476555
485 2 34 4 0 1 2 5 0.0370212 1 0 0
535 1 33.5024 4.86438 0 1.00275 2 0 0.052862 1 -0.00147783 2.88552e-05
536 1 34.4987 4.86409 0 1.0237 2 0 0.0530661 1 0.0113242 -0.00545174
486 2 35 4 0 1 2 5 0.0370606 1 0 0
487 2 36 4 0 1 2 5 0.0372003 1 0 0
538 1 36.5036 4.87099 0 1.01227 2 0 0.0535869 1 -0.0126463 -0.0135778
537 1 35.5035 4.86418 0 1.0067 2 0 0.0533087 1 -0.00806213 -0.00510757
488 2 37 4 0 1 2 5 0.0373113 1 0 0
489 2 38 4 0 1 2 5 0.0373088 1 0 0
539 1 37.4995 4.86096 0 1.00174 2 0 0.0537692 1 0.00875716 0.014957
490 2 39 4 0 1 2 5 0.0371864 1 0 0
541 1 39.5026 4.86155 0 1.00168 2 0 0.0539176 1 0.0051152 0.00767735
540 1 38.5048 4.86404 0 1.01715 2 0 0.0538738 1 -0.00718725 0.00478787
491 2 40 4 0 1 2 5 0.036918 1 0 0
492 2 41 4 0 1 2 5 0.0364897 1 0 0
542 1 40.5104 4.865 0 1.01016 2 0 0.0538726 1 -0.015779 0.00441195
543 1 41.5038 4.8724 0 1.03252 2 0 0.0538203 1 0.0120636 -0.01681
493 2 42 4 0 1 2 5 0.0361796 1 0 0
494 2 43 4 0 1 2 5 0.0361831 1 0 0
544 1 42.5022 4.86197 0 1.0319 2 0 0.0538863 1 0.00616461 0.00286603
495 2 44 4 0 1 2 5 0.0364904 1 0 0
545 1 43.5089 4.86429 0 1.03659 2 0 0.0540332 1 -0.000348203 0.000760061
546 1 44.5091 4.87253 0 1.01001 2 0 0.0542431 1 -0.00407631 -4.07255e-05
496 2 45 4 0 1 2 5 0.0368754 1 0 0
497 2 46 4 0 1 2 5 0.037017 1 0 0
548 1 46.5014 4.86846 0 1.00807 2 0 0.0544512 1 0.0105102 -7.22714e-05
547 1 45.5071 4.87026 0 1.00173 2 0 0.0543898 1 -0.00724532 -3.8692e-05
498 2 47 4 0 1 2 5 0.0368667 1 0 0
499 2 48 4 0 1 2 5 0.0365946 1 0 0
549 1 47.501 4.87054 0 1.02093 2 0 0.054387 1 0.00127536 -0.00610857
500 2 49 4 0 1 2 5 0.03637 1 0 0
550 1 48.4995 4.86394 0 1.02225 2 0 0.0543717 1 -0.0109036 0.00617571
8501 1 49.4923 4.86828 0 1.06187 2 0 0.0544497 1 0.0161729 0.00318258
501 2 0 5 0 1 2 8 0.000317903 1 0 0
502 2 1 5 0 1 2 8 0.000557388 1 0 0
551 2 0 6 0 1 2 8 0.000462612 1 0 0
552 2 1 6 0 1 2 8 0.000820302 1 0 0
503 2 2 5 0 1 2 8 0.00146796 1 0 0
504 2 3 5 0 1 2 8 0.00344253 1 0 0
553 2 2 6 0 1 2 8 0.0021725 1 0 0
554 2 3 6 0 1 2 8 0.00506985 1 0 0
505 2 4 5 0 1 2 6 0.00668573 1 0 0
555 2 4 6 0 1 2 5 0.00954806 1 0 0
556 1 4.97408 5.73031 0 1.02426 2 0 0.0136088 1 -0.00399126 0.00524313
557 1 5.9771 5.74301 0 1.00456 2 0 0.0176075 1 0 -5e-05
558 1 6.99115 5.74314 0 1.00032 2 0 0.0212096 1 -0.0105203 -0.0042814
509 1 7.98702 5.73523 0 1.00999 2 0 0.0248242 1 0.00296823 -0.00864764
560 1 8.99867 5.7295 0 1.01571 2 0 0.028293 1 -0.00138968 0.0090004
561 1 10.0012 5.72869 0 1.04128 2 0 0.0316541 1 -0.00015482 -0.000331895
562 1 11.0033 5.72902 0 1.02468 2 0 0.0348799 1 -0.00428752 -0.00892568
563 1 12.0021 5.73149 0 1.00884 2 0 0.0379495 1 -0.00660483 -0.00460249
565 1 12.9973 5.73137 0 1.01555 2 0 0.0408894 1 0.0104867 -0.000633955
566 1 14.0011 5.73239 0 1.01485 2 0 0.0436407 1 -0.000714966 0.000539936
567 1 15.0004 5.73567 0 1.00349 2 0 0.0461884 1 -0.00383498 -0.00739122
568 1 15.9982 5.725 0 1.02492 2 0 0.0485526 1 0.00254541 0.0136124
569 1 17.9971 5.73368 0 1.01386 2 0 0.052728 1 0.008521 -0.00867624
618 1 16.9958 5.7275 0 1.00786 2 0 0.0507426 1 0.0140016 0.00323961
570 1 19.0008 5.73095 0 1.00562 2 0 0.0544799 1 -0.00251957 2.96056e-05
571 1 20.0046 5.73391 0 1.00943 2 0 0.05604 1 -0.000856107 -0.00811336
572 1 21.007 5.7292 0 1.02492 2 0 0.0574892 1 -0.00804849 0.0052253
573 1 22.0045 5.7351 0 1.00977 2 0 0.0587938 1 -0.00243348 -0.00352672
574 1 23.0018 5.73166 0 1.00488 2 0 0.059942 1 0.0054075 -6.86536e-05
575 1 24.0062 5.73336 0 1.01237 2 0 0.060962 1 -0.00603722 0.00206641
576 1 25.0037 5.74173 0 1.01087 2 0 0.061954 1 0.00350708 -0.00414417
577 1 26.0023 5.73242 0 1.01133 2 0 0.0628354 1 0.000877737 0.00322972
579 1 27.0141 5.73929 0 1.01129 2 0 0.0636777 1 -0.00181769 0.00236986
580 1 28.0202 5.73758 0 1.02117 2 0 0.0645078 1 -0.00694422 0.000411873
581 1 29.0194 5.73888 0 1.01861 2 0 0.0652528 1 -0.000923222 -0.00830299
632 1 30.0158 5.73683 0 1.0167 2 0 0.0659086 1 -0.000659292 0.00966732
582 1 31.0147 5.73343 0 1.0143 2 0 0.0665666 1 -0.000326898 0.0116803
583 1 32.0138 5.73322 0 1.0088 2 0 0.0671259 1 -0.0048277 0.00733236
584 1 33.0126 5.73933 0 1.00514 2 0 0.067637 1 -0.0179175 0.00021415
585 1 34.0026 5.7271 0 1.02197 2 0 0.06806 1 0.012974 0.0123834
586 1 34.9998 5.72731 0 1.02669 2 0 0.0684573 1 -0.00508472 0.00436749
587 1 35.9939 5.72931 0 1.01702 2 0 0.0688485 1 0.0154838 0.0125587
588 1 36.9998 5.73228 0 1.01798 2 0 0.0692367 1 0.00480643 0.00831393
589 1 38.0052 5.72875 0 1.01656 2 0 0.0695136 1 -0.00134981 0.00228661
590 1 39.0134 5.72991 0 1.01208 2 0 0.0698054 1 -0.00106584 0.00193344
591 1 40.0161 5.73006 0 1.01334 2 0 0.069985 1 -0.00853042 0.00553997
592 1 41.0134 5.73687 0 1.02633 2 0 0.0702423 1 0.00237563 0.00167089
594 1 43.01 5.72456 0 1.01497 2 0 0.0706345 1 -0.00917601 0.00920855
593 1 42.0135 5.72814 0 1.02837 2 0 0.0705131 1 -0.00837752 0.0158075
595 1 44.0046 5.73678 0 1.01694 2 0 0.0707123 1 0.0107538 8.21155e-05
596 1 45.0123 5.7456 0 1.01116 2 0 0.0707739 1 0 -5e-05
597 1 46.0144 5.74268 0 1.01212 2 0 0.070904 1 -0.00360862 -3.73061e-05
598 1 47.0126 5.73917 0 1.00861 2 0 0.0710757 1 -0.00537387 0.004877
599 1 48.0095 5.74332 0 1.02545 2 0 0.0711764 1 0.00618514 -2.42407e-05
600 1 49.0131 5.74596 0 1.00476 2 0 0.0714573 1 -0.0139318 1.43602e-05
601 2 0 7 0 1 2 8 0.000612003 1 0 0
602 2 1 7 0 1 2 8 0.00109556 1 0 0
651 2 0 8 0 1 2 8 0.000751535 1 0 0
652 2 1 8 0 1 2 8 0.00135776 1 0 0
603 2 2 7 0 1 2 8 0.00291498 1 0 0
604 2 3 7 0 1 2 8 0.00679619 1 0 0
653 2 2 8 0 1 2 8 0.00363306 1 0 0
654 2 3 8 0 1 2 8 0.00851663 1 0 0
605 2 4 7 0 1 2 5 0.0125584 1 0 0
655 2 4 8 0 1 2 5 0.0154523 1 0 0
656 1 4.88184 7.4622 0 1.01253 2 0 0.0184885 1 0.00649307 0.00588673
606 1 5.42367 6.62304 0 1.01839 2 0 0.0187026 1 0.00163111 -0.00113095
607 1 6.4413 6.63116 0 1.01626 2 0 0.0229098 1 0 -5e-05
657 1 5.89254 7.54071 0 1.02523 2 0 0.0238645 1 0 -5e-05
608 1 7.49077 6.60642 0 1.01581 2 0 0.0271526 1 -0.00301957 -0.00651409
609 1 7.99519 7.46313 0 1.00447 2 0 0.0335259 1 0.00692001 -0.00427006
658 1 6.98692 7.46974 0 1.00499 2 0 0.0288535 1 -0.00290185 -0.0035037
559 1 8.49268 6.59168 0 1.01669 2 0 0.0312429 1 0.00526731 0.0099462
610 1 9.49979 6.59734 0 1.00382 2 0 0.0352303 1 0.000793884 -0.00900671
661 1 8.99736 7.45855 0 1.00906 2 0 0.0381168 1 -0.000230995 -0.0006065
612 1 9.9971 7.46241 0 1.00002 2 0 0.0426307 1 -0.00248979 -0.0104051
611 1 10.5029 6.5915 0 1.00368 2 0 0.0391246 1 -0.0145526 -0.00136474
564 1 11.4988 6.59354 0 1.01095 2 0 0.0429016 1 0.00641343 0.00304462
613 1 10.9929 7.45689 0 1.00877 2 0 0.0470981 1 0.0163029 0.00499018
614 1 12.4995 6.59804 0 1.01882 2 0 0.0465381 1 0.0036224 -0.00578545
665 1 13.0067 7.45897 0 1.00809 2 0 0.0556611 1 -0.00628215 0.00686059
664 1 11.9957 7.45723 0 1.0022 2 0 0.05147 1 -0.00145743 0.0113232
615 1 13.5014 6.59574 0 1.00601 2 0 0.0500027 1 0.00270542 -0.00481393
616 1 14.5014 6.60012 0 1.00878 2 0 0.0532742 1 0.00576353 -0.0101648
666 1 14.0089 7.46172 0 0.997531 2 0 0.0596424 1 -0.0154047 0.00716735
667 1 15.0068 7.46412 0 1.00922 2 0 0.0634264 1 -0.00432359 -0.00109526
617 1 15.5015 6.59824 0 1.01132 2 0 0.056348 1 -0.00876908 -0.0110819
668 1 16.0052 7.45512 0 1.01232 2 0 0.067012 1 -0.00536094 0.0188839
619 1 16.4977 6.59039 0 1.00791 2 0 0.0592175 1 0.00965558 -0.000782895
669 1 17.4983 6.5924 0 1.0115 2 0 0.061865 1 -0.0100734 0.0116165
719 1 17 7.46001 0 1.0104 2 0 0.0703619 1 0.00687333 -0.00197584
720 1 17.9991 7.46099 0 1.00384 2 0 0.0734341 1 -0.0092997 0.00168764
620 1 18.4966 6.59938 0 1.00047 2 0 0.0642725 1 0.00646003 -0.0118831
621 1 19.5003 6.59522 0 1.01086 2 0 0.0664722 1 -0.00305354 0.00121103
670 1 18.9971 7.46234 0 1.01205 2 0 0.076292 1 0.00767485 -0.00229111
671 1 19.9965 7.46009 0 1.01101 2 0 0.0789166 1 0.00876476 -0.00314669
622 1 20.5034 6.59708 0 1.02282 2 0 0.0684938 1 -0.00393421 0.000335437
623 1 21.5013 6.59933 0 1.01715 2 0 0.0703147 1 0.00418551 -0.00074537
672 1 20.998 7.46297 0 1.01032 2 0 0.0812691 1 0.0024081 0.00558873
673 1 21.9982 7.46899 0 1.00705 2 0 0.0833561 1 -0.00257235 -6.58165e-05
624 1 22.5011 6.60069 0 1.00933 2 0 0.0718842 1 -0.00137462 0.00346773
674 1 22.9969 7.47513 0 1.01197 2 0 0.0852404 1 0.00223391 -0.00116359
625 1 23.4992 6.60273 0 1.01358 2 0 0.0733189 1 0.00381734 -4.22031e-05
626 1 24.5104 6.60927 0 1.01095 2 0 0.0746279 1 -0.00114174 -0.00323128
675 1 24.0059 7.47006 0 1.00974 2 0 0.0869577 1 -0.00155384 0.00258218
676 1 25.0126 7.47227 0 1.01754 2 0 0.0884653 1 -0.00634849 -0.00800263
578 1 26.5111 6.60771 0 1.0136 2 0 0.0769426 1 0.00309444 -0.0118202
628 1 26.0117 7.46834 0 1.00647 2 0 0.0898336 1 -0.0061293 0.00339599
627 1 25.5104 6.60334 0 1.0116 2 0 0.0758317 1 0.000188774 0.000264553
629 1 27.5205 6.60132 0 1.00585 2 0 0.0779733 1 0.000753734 -0.000564384
679 1 28.022 7.46755 0 1.01276 2 0 0.0923973 1 -0.00270267 -0.00479959
678 1 27.022 7.46524 0 1.01987 2 0 0.0911563 1 -0.00077357 0.00769045
630 1 28.5206 6.60023 0 1.00031 2 0 0.079042 1 -0.00209382 0.0128656
631 1 29.5224 6.60626 0 1.01679 2 0 0.07997 1 -0.0028111 -0.0120413
680 1 29.0296 7.4682 0 1.0041 2 0 0.0936338 1 -0.0217322 0.012331
681 1 30.0224 7.4747 0 1.0067 2 0 0.0948381 1 -0.0058971 0.00854808
682 1 30.5176 6.61167 0 1.0233 2 0 0.0808649 1 -0.00527631 -0.00851931
633 1 31.5076 6.60332 0 1.00197 2 0 0.0815936 1 0.0124719 -1.68795e-05
732 1 31.0145 7.48665 0 1.02086 2 0 0.0958683 1 0.00117581 -0.00842726
683 1 32.0061 7.47913 0 1.00602 2 0 0.0967462 1 0.00255423 -0.000200781
684 1 32.5039 6.60681 0 1.01173 2 0 0.0822621 1 0.00447157 -3.9773e-05
734 1 32.9991 7.48085 0 1.01306 2 0 0.0975626 1 0.0152563 -0.00206252
634 1 33.5023 6.61208 0 1.00318 2 0 0.0829393 1 -0.00504332 -0.0059081
635 1 34.4999 6.60522 0 1.01335 2 0 0.0835 1 -0.00660184 -0.000284863
685 1 34.0023 7.47414 0 1.01182 2 0 0.0982564 1 -0.00871887 0.00568388
686 1 34.9961 7.48828 0 1.01566 2 0 0.099015 1 0.0041261 -0.00321675
636 1 35.4941 6.62303 0 1.01343 2 0 0.0841008 1 -0.00720023 -0.0268793
637 1 36.4911 6.60762 0 0.995425 2 0 0.0846046 1 0.0056119 -0.00861966
687 1 35.9947 7.47306 0 1.00809 2 0 0.0997216 1 0.0110244 0.0223108