ITEM: TIMESTEP
6000
ITEM: NUMBER OF ATOMS
15950
ITEM: BOX BOUNDS pp pp pp
0.0000000000000000e+00 1.0000000000000000e+02
-5.0000000000000000e+00 2.0000000000000000e+02
-5.0000000000000000e-01 5.0000000000000000e-01
ITEM: ATOMS id type x y z c_rho c_phase c_nbond c_temp f_rheo_chi_chi fx fy
1 2 0 -5 0 1 2 8 3.12348e-14 1 0 0
2 2 1 -5 0 1 2 8 6.39747e-14 1 0 0
51 2 0 -4 0 1 2 8 4.23798e-13 1 0 0
52 2 1 -4 0 1 2 8 9.28999e-13 1 0 0
3 2 2 -5 0 1 2 8 1.86875e-13 1 0 0
4 2 3 -5 0 1 2 8 4.62197e-13 1 0 0
53 2 2 -4 0 1 2 8 2.92526e-12 1 0 0
54 2 3 -4 0 1 2 8 7.64145e-12 1 0 0
5 2 4 -5 0 1 2 7 9.37813e-13 1 0 0
55 2 4 -4 0 1 2 8 1.60216e-11 1 0 0
6 2 5 -5 0 1 2 6 1.58978e-12 1 0 0
7 2 6 -5 0 1 2 5 2.26948e-12 1 0 0
56 2 5 -4 0 1 2 8 2.74136e-11 1 0 0
57 2 6 -4 0 1 2 8 3.94211e-11 1 0 0
8 2 7 -5 0 1 2 5 2.82989e-12 1 0 0
9 2 8 -5 0 1 2 5 3.20945e-12 1 0 0
58 2 7 -4 0 1 2 8 4.94832e-11 1 0 0
59 2 8 -4 0 1 2 8 5.63026e-11 1 0 0
10 2 9 -5 0 1 2 5 3.42001e-12 1 0 0
60 2 9 -4 0 1 2 8 6.00684e-11 1 0 0
11 2 10 -5 0 1 2 5 3.51593e-12 1 0 0
12 2 11 -5 0 1 2 5 3.55787e-12 1 0 0
61 2 10 -4 0 1 2 8 6.17468e-11 1 0 0
62 2 11 -4 0 1 2 8 6.23853e-11 1 0 0
13 2 12 -5 0 1 2 5 3.60915e-12 1 0 0
14 2 13 -5 0 1 2 5 3.71487e-12 1 0 0
63 2 12 -4 0 1 2 8 6.31828e-11 1 0 0
64 2 13 -4 0 1 2 8 6.51243e-11 1 0 0
15 2 14 -5 0 1 2 5 3.8518e-12 1 0 0
65 2 14 -4 0 1 2 8 6.77561e-11 1 0 0
16 2 15 -5 0 1 2 5 3.95054e-12 1 0 0
17 2 16 -5 0 1 2 5 3.98434e-12 1 0 0
66 2 15 -4 0 1 2 8 6.96061e-11 1 0 0
67 2 16 -4 0 1 2 8 7.01503e-11 1 0 0
18 2 17 -5 0 1 2 5 3.9913e-12 1 0 0
19 2 18 -5 0 1 2 5 4.00671e-12 1 0 0
68 2 17 -4 0 1 2 8 7.02322e-11 1 0 0
69 2 18 -4 0 1 2 8 7.05791e-11 1 0 0
20 2 19 -5 0 1 2 5 4.01193e-12 1 0 0
70 2 19 -4 0 1 2 8 7.07911e-11 1 0 0
21 2 20 -5 0 1 2 5 3.96045e-12 1 0 0
22 2 21 -5 0 1 2 5 3.84003e-12 1 0 0
71 2 20 -4 0 1 2 8 6.99066e-11 1 0 0
72 2 21 -4 0 1 2 8 6.76629e-11 1 0 0
23 2 22 -5 0 1 2 5 3.69262e-12 1 0 0
24 2 23 -5 0 1 2 5 3.57336e-12 1 0 0
73 2 22 -4 0 1 2 8 6.48946e-11 1 0 0
74 2 23 -4 0 1 2 8 6.26787e-11 1 0 0
25 2 24 -5 0 1 2 5 3.51022e-12 1 0 0
75 2 24 -4 0 1 2 8 6.15359e-11 1 0 0
26 2 25 -5 0 1 2 5 3.50511e-12 1 0 0
27 2 26 -5 0 1 2 5 3.54882e-12 1 0 0
76 2 25 -4 0 1 2 8 6.15008e-11 1 0 0
77 2 26 -4 0 1 2 8 6.23886e-11 1 0 0
28 2 27 -5 0 1 2 5 3.62693e-12 1 0 0
29 2 28 -5 0 1 2 5 3.72858e-12 1 0 0
78 2 27 -4 0 1 2 8 6.38687e-11 1 0 0
79 2 28 -4 0 1 2 8 6.56825e-11 1 0 0
30 2 29 -5 0 1 2 5 3.85475e-12 1 0 0
80 2 29 -4 0 1 2 8 6.78911e-11 1 0 0
31 2 30 -5 0 1 2 5 4.001e-12 1 0 0
32 2 31 -5 0 1 2 5 4.13052e-12 1 0 0
81 2 30 -4 0 1 2 8 7.05132e-11 1 0 0
82 2 31 -4 0 1 2 8 7.28882e-11 1 0 0
33 2 32 -5 0 1 2 5 4.18942e-12 1 0 0
34 2 33 -5 0 1 2 5 4.15991e-12 1 0 0
83 2 32 -4 0 1 2 8 7.39498e-11 1 0 0
84 2 33 -4 0 1 2 8 7.33235e-11 1 0 0
35 2 34 -5 0 1 2 5 4.08616e-12 1 0 0
85 2 34 -4 0 1 2 8 7.19021e-11 1 0 0
36 2 35 -5 0 1 2 5 4.02792e-12 1 0 0
37 2 36 -5 0 1 2 5 3.99951e-12 1 0 0
86 2 35 -4 0 1 2 8 7.08872e-11 1 0 0
87 2 36 -4 0 1 2 8 7.04918e-11 1 0 0
38 2 37 -5 0 1 2 5 3.97615e-12 1 0 0
39 2 38 -5 0 1 2 5 3.93846e-12 1 0 0
88 2 37 -4 0 1 2 8 7.01453e-11 1 0 0
89 2 38 -4 0 1 2 8 6.94697e-11 1 0 0
40 2 39 -5 0 1 2 5 3.88684e-12 1 0 0
90 2 39 -4 0 1 2 8 6.85106e-11 1 0 0
41 2 40 -5 0 1 2 5 3.82945e-12 1 0 0
42 2 41 -5 0 1 2 5 3.77731e-12 1 0 0
91 2 40 -4 0 1 2 8 6.74392e-11 1 0 0
92 2 41 -4 0 1 2 8 6.64481e-11 1 0 0
43 2 42 -5 0 1 2 5 3.75312e-12 1 0 0
44 2 43 -5 0 1 2 5 3.78845e-12 1 0 0
93 2 42 -4 0 1 2 8 6.59505e-11 1 0 0
94 2 43 -4 0 1 2 8 6.65671e-11 1 0 0
45 2 44 -5 0 1 2 5 3.8906e-12 1 0 0
95 2 44 -4 0 1 2 8 6.84912e-11 1 0 0
46 2 45 -5 0 1 2 5 4.00825e-12 1 0 0
47 2 46 -5 0 1 2 5 4.05848e-12 1 0 0
96 2 45 -4 0 1 2 8 7.07482e-11 1 0 0
97 2 46 -4 0 1 2 8 7.16999e-11 1 0 0
48 2 47 -5 0 1 2 5 4.00475e-12 1 0 0
49 2 48 -5 0 1 2 5 3.88863e-12 1 0 0
98 2 47 -4 0 1 2 8 7.06515e-11 1 0 0
99 2 48 -4 0 1 2 8 6.8471e-11 1 0 0
50 2 49 -5 0 1 2 5 3.78099e-12 1 0 0
100 2 49 -4 0 1 2 8 6.65301e-11 1 0 0
101 2 0 -3 0 1 2 8 5.164e-12 1 0 0
102 2 1 -3 0 1 2 8 1.22394e-11 1 0 0
151 2 0 -2 0 1 2 8 5.55177e-11 1 0 0
152 2 1 -2 0 1 2 8 1.43914e-10 1 0 0
103 2 2 -3 0 1 2 8 4.19621e-11 1 0 0
104 2 3 -3 0 1 2 8 1.16804e-10 1 0 0
153 2 2 -2 0 1 2 8 5.43746e-10 1 0 0
154 2 3 -2 0 1 2 8 1.63046e-09 1 0 0
105 2 4 -3 0 1 2 8 2.56086e-10 1 0 0
155 2 4 -2 0 1 2 8 3.76816e-09 1 0 0
106 2 5 -3 0 1 2 8 4.50145e-10 1 0 0
107 2 6 -3 0 1 2 8 6.56949e-10 1 0 0
156 2 5 -2 0 1 2 8 6.83805e-09 1 0 0
157 2 6 -2 0 1 2 8 1.01471e-08 1 0 0
108 2 7 -3 0 1 2 8 8.31082e-10 1 0 0
109 2 8 -3 0 1 2 8 9.49224e-10 1 0 0
158 2 7 -2 0 1 2 8 1.295e-08 1 0 0
159 2 8 -2 0 1 2 8 1.48606e-08 1 0 0
110 2 9 -3 0 1 2 8 1.01425e-09 1 0 0
160 2 9 -2 0 1 2 8 1.59125e-08 1 0 0
111 2 10 -3 0 1 2 8 1.0428e-09 1 0 0
112 2 11 -3 0 1 2 8 1.05183e-09 1 0 0
161 2 10 -2 0 1 2 8 1.63717e-08 1 0 0
162 2 11 -2 0 1 2 8 1.6486e-08 1 0 0
113 2 12 -3 0 1 2 8 1.06288e-09 1 0 0
114 2 13 -3 0 1 2 8 1.09723e-09 1 0 0
163 2 12 -2 0 1 2 8 1.66139e-08 1 0 0
164 2 13 -2 0 1 2 8 1.71803e-08 1 0 0
115 2 14 -3 0 1 2 8 1.14623e-09 1 0 0
165 2 14 -2 0 1 2 8 1.80289e-08 1 0 0
116 2 15 -3 0 1 2 8 1.1793e-09 1 0 0
117 2 16 -3 0 1 2 8 1.18691e-09 1 0 0
166 2 15 -2 0 1 2 8 1.85704e-08 1 0 0
167 2 16 -2 0 1 2 8 1.86518e-08 1 0 0
118 2 17 -3 0 1 2 8 1.18731e-09 1 0 0
119 2 18 -3 0 1 2 8 1.19474e-09 1 0 0
168 2 17 -2 0 1 2 8 1.86393e-08 1 0 0
169 2 18 -2 0 1 2 8 1.87863e-08 1 0 0
120 2 19 -3 0 1 2 8 1.2009e-09 1 0 0
170 2 19 -2 0 1 2 8 1.89324e-08 1 0 0
121 2 20 -3 0 1 2 8 1.18662e-09 1 0 0
122 2 21 -3 0 1 2 8 1.14642e-09 1 0 0
171 2 20 -2 0 1 2 8 1.8725e-08 1 0 0
172 2 21 -2 0 1 2 8 1.80581e-08 1 0 0
123 2 22 -3 0 1 2 8 1.09633e-09 1 0 0
124 2 23 -3 0 1 2 8 1.05652e-09 1 0 0
173 2 22 -2 0 1 2 8 1.72167e-08 1 0 0
174 2 23 -2 0 1 2 8 1.65487e-08 1 0 0
125 2 24 -3 0 1 2 8 1.03628e-09 1 0 0
175 2 24 -2 0 1 2 8 1.6208e-08 1 0 0
126 2 25 -3 0 1 2 8 1.03664e-09 1 0 0
127 2 26 -3 0 1 2 8 1.05426e-09 1 0 0
176 2 25 -2 0 1 2 8 1.62266e-08 1 0 0
177 2 26 -2 0 1 2 8 1.65546e-08 1 0 0
128 2 27 -3 0 1 2 8 1.08172e-09 1 0 0
129 2 28 -3 0 1 2 8 1.11289e-09 1 0 0
178 2 27 -2 0 1 2 8 1.70373e-08 1 0 0
179 2 28 -2 0 1 2 8 1.75359e-08 1 0 0
130 2 29 -3 0 1 2 8 1.14964e-09 1 0 0
180 2 29 -2 0 1 2 8 1.80949e-08 1 0 0
131 2 30 -3 0 1 2 8 1.19467e-09 1 0 0
132 2 31 -3 0 1 2 8 1.23668e-09 1 0 0
181 2 30 -2 0 1 2 8 1.88068e-08 1 0 0
182 2 31 -2 0 1 2 8 1.94985e-08 1 0 0
133 2 32 -3 0 1 2 8 1.25533e-09 1 0 0
134 2 33 -3 0 1 2 8 1.24273e-09 1 0 0
183 2 32 -2 0 1 2 8 1.98077e-08 1 0 0
184 2 33 -2 0 1 2 8 1.95775e-08 1 0 0
135 2 34 -3 0 1 2 8 1.21623e-09 1 0 0
185 2 34 -2 0 1 2 8 1.91176e-08 1 0 0
136 2 35 -3 0 1 2 8 1.1994e-09 1 0 0
137 2 36 -3 0 1 2 8 1.19492e-09 1 0 0
186 2 35 -2 0 1 2 8 1.88608e-08 1 0 0
187 2 36 -2 0 1 2 8 1.88315e-08 1 0 0
138 2 37 -3 0 1 2 8 1.19032e-09 1 0 0
139 2 38 -3 0 1 2 8 1.17868e-09 1 0 0
188 2 37 -2 0 1 2 8 1.87819e-08 1 0 0
189 2 38 -2 0 1 2 8 1.85957e-08 1 0 0
140 2 39 -3 0 1 2 8 1.16148e-09 1 0 0
190 2 39 -2 0 1 2 8 1.83081e-08 1 0 0
141 2 40 -3 0 1 2 8 1.14204e-09 1 0 0
142 2 41 -3 0 1 2 8 1.12354e-09 1 0 0
191 2 40 -2 0 1 2 8 1.79754e-08 1 0 0
192 2 41 -2 0 1 2 8 1.76471e-08 1 0 0
143 2 42 -3 0 1 2 8 1.11339e-09 1 0 0
144 2 43 -3 0 1 2 8 1.12343e-09 1 0 0
193 2 42 -2 0 1 2 8 1.74507e-08 1 0 0
194 2 43 -2 0 1 2 8 1.75981e-08 1 0 0
145 2 44 -3 0 1 2 8 1.15839e-09 1 0 0
195 2 44 -2 0 1 2 8 1.81908e-08 1 0 0
146 2 45 -3 0 1 2 8 1.20034e-09 1 0 0
147 2 46 -3 0 1 2 8 1.21774e-09 1 0 0
196 2 45 -2 0 1 2 8 1.89198e-08 1 0 0
197 2 46 -2 0 1 2 8 1.92165e-08 1 0 0
148 2 47 -3 0 1 2 8 1.19779e-09 1 0 0
149 2 48 -3 0 1 2 8 1.15818e-09 1 0 0
198 2 47 -2 0 1 2 8 1.88615e-08 1 0 0
199 2 48 -2 0 1 2 8 1.81899e-08 1 0 0
150 2 49 -3 0 1 2 8 1.1245e-09 1 0 0
200 2 49 -2 0 1 2 8 1.76462e-08 1 0 0
201 2 0 -1 0 1 2 8 5.14887e-10 1 0 0
202 2 1 -1 0 1 2 8 1.47837e-09 1 0 0
203 2 2 -1 0 1 2 8 6.24534e-09 1 0 0
204 2 3 -1 0 1 2 8 2.04521e-08 1 0 0
205 2 4 -1 0 1 2 8 5.03433e-08 1 0 0
206 2 5 -1 0 1 2 8 9.48516e-08 1 0 0
207 2 6 -1 0 1 2 8 1.43414e-07 1 0 0
208 2 7 -1 0 1 2 8 1.84937e-07 1 0 0
209 2 8 -1 0 1 2 8 2.13508e-07 1 0 0
210 2 9 -1 0 1 2 8 2.29261e-07 1 0 0
211 2 10 -1 0 1 2 8 2.36245e-07 1 0 0
212 2 11 -1 0 1 2 8 2.37614e-07 1 0 0
213 2 12 -1 0 1 2 8 2.38534e-07 1 0 0
214 2 13 -1 0 1 2 8 2.47207e-07 1 0 0
215 2 14 -1 0 1 2 8 2.60914e-07 1 0 0
216 2 15 -1 0 1 2 8 2.68886e-07 1 0 0
217 2 16 -1 0 1 2 8 2.69189e-07 1 0 0
218 2 17 -1 0 1 2 8 2.68688e-07 1 0 0
219 2 18 -1 0 1 2 8 2.71344e-07 1 0 0
220 2 19 -1 0 1 2 8 2.7435e-07 1 0 0
221 2 20 -1 0 1 2 8 2.71745e-07 1 0 0
222 2 21 -1 0 1 2 8 2.61597e-07 1 0 0
223 2 22 -1 0 1 2 8 2.48609e-07 1 0 0
224 2 23 -1 0 1 2 8 2.38203e-07 1 0 0
225 2 24 -1 0 1 2 8 2.32645e-07 1 0 0
226 2 25 -1 0 1 2 8 2.33031e-07 1 0 0
227 2 26 -1 0 1 2 8 2.38795e-07 1 0 0
228 2 27 -1 0 1 2 8 2.46832e-07 1 0 0
229 2 28 -1 0 1 2 8 2.54226e-07 1 0 0
230 2 29 -1 0 1 2 8 2.61821e-07 1 0 0
231 2 30 -1 0 1 2 8 2.72057e-07 1 0 0
232 2 31 -1 0 1 2 8 2.82543e-07 1 0 0
233 2 32 -1 0 1 2 8 2.87382e-07 1 0 0
234 2 33 -1 0 1 2 8 2.83577e-07 1 0 0
235 2 34 -1 0 1 2 8 2.76155e-07 1 0 0
236 2 35 -1 0 1 2 8 2.72593e-07 1 0 0
237 2 36 -1 0 1 2 8 2.72895e-07 1 0 0
238 2 37 -1 0 1 2 8 2.72532e-07 1 0 0
239 2 38 -1 0 1 2 8 2.69838e-07 1 0 0
240 2 39 -1 0 1 2 8 2.65431e-07 1 0 0
241 2 40 -1 0 1 2 8 2.60128e-07 1 0 0
242 2 41 -1 0 1 2 8 2.54606e-07 1 0 0
243 2 42 -1 0 1 2 8 2.51043e-07 1 0 0
244 2 43 -1 0 1 2 8 2.52942e-07 1 0 0
245 2 44 -1 0 1 2 8 2.62284e-07 1 0 0
246 2 45 -1 0 1 2 8 2.74074e-07 1 0 0
247 2 46 -1 0 1 2 8 2.78757e-07 1 0 0
248 2 47 -1 0 1 2 8 2.72857e-07 1 0 0
249 2 48 -1 0 1 2 8 2.62328e-07 1 0 0
250 2 49 -1 0 1 2 8 2.54223e-07 1 0 0
251 2 0 0 0 1 2 8 4.00562e-09 1 0 0
252 2 1 0 0 1 2 8 1.28951e-08 1 0 0
301 2 0 1 0 1 2 8 2.52446e-08 1 0 0
302 2 1 1 0 1 2 8 9.19409e-08 1 0 0
253 2 2 0 0 1 2 8 6.19338e-08 1 0 0
254 2 3 0 0 1 2 8 2.25633e-07 1 0 0
303 2 2 1 0 1 2 8 5.117e-07 1 0 0
304 2 3 1 0 1 2 8 2.12104e-06 1 0 0
255 2 4 0 0 1 2 8 6.00021e-07 1 0 0
305 2 4 1 0 1 2 8 6.21048e-06 1 0 0
256 2 5 0 0 1 2 8 1.18195e-06 1 0 0
257 2 6 0 0 1 2 8 1.8242e-06 1 0 0
306 2 5 1 0 1 2 8 1.29375e-05 1 0 0
307 2 6 1 0 1 2 8 2.04446e-05 1 0 0
258 2 7 0 0 1 2 8 2.37941e-06 1 0 0
259 2 8 0 0 1 2 8 2.76772e-06 1 0 0
308 2 7 1 0 1 2 8 2.70555e-05 1 0 0
309 2 8 1 0 1 2 8 3.1791e-05 1 0 0
260 2 9 0 0 1 2 8 2.98304e-06 1 0 0
310 2 9 1 0 1 2 8 3.44232e-05 1 0 0
261 2 10 0 0 1 2 8 3.08122e-06 1 0 0
262 2 11 0 0 1 2 8 3.09683e-06 1 0 0
311 2 10 1 0 1 2 8 3.57034e-05 1 0 0
312 2 11 1 0 1 2 8 3.59626e-05 1 0 0
263 2 12 0 0 1 2 8 3.0969e-06 1 0 0
264 2 13 0 0 1 2 8 3.21789e-06 1 0 0
313 2 12 1 0 1 2 8 3.5738e-05 1 0 0
314 2 13 1 0 1 2 8 3.72915e-05 1 0 0
265 2 14 0 0 1 2 8 3.41603e-06 1 0 0
315 2 14 1 0 1 2 8 3.99275e-05 1 0 0
266 2 15 0 0 1 2 8 3.51817e-06 1 0 0
267 2 16 0 0 1 2 8 3.50629e-06 1 0 0
316 2 15 1 0 1 2 8 4.0997e-05 1 0 0
317 2 16 1 0 1 2 8 4.05686e-05 1 0 0
268 2 17 0 0 1 2 8 3.49485e-06 1 0 0
269 2 18 0 0 1 2 8 3.53844e-06 1 0 0
318 2 17 1 0 1 2 8 4.03822e-05 1 0 0
319 2 18 1 0 1 2 8 4.10056e-05 1 0 0
270 2 19 0 0 1 2 8 3.59202e-06 1 0 0
320 2 19 1 0 1 2 8 4.18464e-05 1 0 0
271 2 20 0 0 1 2 8 3.56533e-06 1 0 0
272 2 21 0 0 1 2 8 3.42746e-06 1 0 0
321 2 20 1 0 1 2 8 4.16729e-05 1 0 0
322 2 21 1 0 1 2 8 4.00156e-05 1 0 0
273 2 22 0 0 1 2 8 3.2479e-06 1 0 0
274 2 23 0 0 1 2 8 3.10072e-06 1 0 0
323 2 22 1 0 1 2 8 3.78324e-05 1 0 0
324 2 23 1 0 1 2 8 3.59591e-05 1 0 0
275 2 24 0 0 1 2 8 3.01567e-06 1 0 0
325 2 24 1 0 1 2 8 3.4647e-05 1 0 0
276 2 25 0 0 1 2 8 3.01938e-06 1 0 0
277 2 26 0 0 1 2 8 3.11036e-06 1 0 0
326 2 25 1 0 1 2 8 3.46206e-05 1 0 0
327 2 26 1 0 1 2 8 3.59767e-05 1 0 0
278 2 27 0 0 1 2 8 3.23435e-06 1 0 0
279 2 28 0 0 1 2 8 3.33436e-06 1 0 0
328 2 27 1 0 1 2 8 3.77505e-05 1 0 0
329 2 28 1 0 1 2 8 3.89918e-05 1 0 0
280 2 29 0 0 1 2 8 3.4235e-06 1 0 0
330 2 29 1 0 1 2 8 3.98378e-05 1 0 0
281 2 30 0 0 1 2 8 3.55309e-06 1 0 0
282 2 31 0 0 1 2 8 3.69689e-06 1 0 0
331 2 30 1 0 1 2 8 4.12612e-05 1 0 0
332 2 31 1 0 1 2 8 4.30139e-05 1 0 0
283 2 32 0 0 1 2 8 3.76739e-06 1 0 0
284 2 33 0 0 1 2 8 3.71221e-06 1 0 0
333 2 32 1 0 1 2 8 4.3973e-05 1 0 0
334 2 33 1 0 1 2 8 4.32794e-05 1 0 0
285 2 34 0 0 1 2 8 3.60401e-06 1 0 0
335 2 34 1 0 1 2 8 4.18361e-05 1 0 0
286 2 35 0 0 1 2 8 3.55928e-06 1 0 0
287 2 36 0 0 1 2 8 3.57325e-06 1 0 0
336 2 35 1 0 1 2 8 4.13346e-05 1 0 0
337 2 36 1 0 1 2 8 4.1637e-05 1 0 0
288 2 37 0 0 1 2 8 3.57393e-06 1 0 0
289 2 38 0 0 1 2 8 3.53951e-06 1 0 0
338 2 37 1 0 1 2 8 4.17037e-05 1 0 0
339 2 38 1 0 1 2 8 4.13464e-05 1 0 0
290 2 39 0 0 1 2 8 3.47883e-06 1 0 0
340 2 39 1 0 1 2 8 4.06213e-05 1 0 0
291 2 40 0 0 1 2 8 3.40087e-06 1 0 0
292 2 41 0 0 1 2 8 3.31434e-06 1 0 0
341 2 40 1 0 1 2 8 3.96003e-05 1 0 0
342 2 41 1 0 1 2 8 3.8342e-05 1 0 0
293 2 42 0 0 1 2 8 3.25523e-06 1 0 0
294 2 43 0 0 1 2 8 3.27646e-06 1 0 0
343 2 42 1 0 1 2 8 3.74581e-05 1 0 0
344 2 43 1 0 1 2 8 3.76539e-05 1 0 0
295 2 44 0 0 1 2 8 3.41116e-06 1 0 0
345 2 44 1 0 1 2 8 3.9434e-05 1 0 0
296 2 45 0 0 1 2 8 3.58525e-06 1 0 0
297 2 46 0 0 1 2 8 3.65273e-06 1 0 0
346 2 45 1 0 1 2 8 4.17688e-05 1 0 0
347 2 46 1 0 1 2 8 4.26455e-05 1 0 0
298 2 47 0 0 1 2 8 3.56426e-06 1 0 0
299 2 48 0 0 1 2 8 3.4143e-06 1 0 0
348 2 47 1 0 1 2 8 4.14377e-05 1 0 0
349 2 48 1 0 1 2 8 3.9531e-05 1 0 0
300 2 49 0 0 1 2 8 3.30391e-06 1 0 0
350 2 49 1 0 1 2 8 3.81613e-05 1 0 0
351 2 0 2 0 1 2 8 1.23584e-07 1 0 0
352 2 1 2 0 1 2 8 5.11661e-07 1 0 0
401 2 0 3 0 1 2 8 4.52759e-07 1 0 0
402 2 1 3 0 1 2 8 2.09827e-06 1 0 0
353 2 2 2 0 1 2 8 3.33678e-06 1 0 0
354 2 3 2 0 1 2 8 1.61974e-05 1 0 0
403 2 2 3 0 1 2 8 1.59963e-05 1 0 0
404 2 3 3 0 1 2 8 9.38607e-05 1 0 0
355 2 4 2 0 1 2 8 5.38616e-05 1 0 0
405 2 4 3 0 1 2 8 0.00036273 1 0 0
356 2 5 2 0 1 2 8 0.000120499 1 0 0
357 2 6 2 0 1 2 8 0.000195144 1 0 0
406 2 5 3 0 1 2 8 0.000901629 1 0 0
407 2 6 3 0 1 2 8 0.00151164 1 0 0
358 2 7 2 0 1 2 8 0.000261637 1 0 0
359 2 8 2 0 1 2 8 0.000311092 1 0 0
408 2 7 3 0 1 2 8 0.00206704 1 0 0
409 2 8 3 0 1 2 8 0.00249512 1 0 0
360 2 9 2 0 1 2 8 0.000338802 1 0 0
410 2 9 3 0 1 2 8 0.00273788 1 0 0
361 2 10 2 0 1 2 8 0.000353207 1 0 0
362 2 11 2 0 1 2 8 0.000356863 1 0 0
411 2 10 3 0 1 2 8 0.00288256 1 0 0
412 2 11 3 0 1 2 8 0.0029731 1 0 0
363 2 12 2 0 1 2 8 0.00035401 1 0 0
364 2 13 2 0 1 2 8 0.000371103 1 0 0
413 2 12 3 0 1 2 8 0.00293136 1 0 0
414 2 13 3 0 1 2 8 0.00310238 1 0 0
365 2 14 2 0 1 2 8 0.000399243 1 0 0
415 2 14 3 0 1 2 8 0.00337963 1 0 0
366 2 15 2 0 1 2 8 0.00040785 1 0 0
367 2 16 2 0 1 2 8 0.000399899 1 0 0
416 2 15 3 0 1 2 8 0.00340981 1 0 0
417 2 16 3 0 1 2 8 0.00329351 1 0 0
368 2 17 2 0 1 2 8 0.000396976 1 0 0
369 2 18 2 0 1 2 8 0.000405036 1 0 0
418 2 17 3 0 1 2 8 0.00326218 1 0 0
419 2 18 3 0 1 2 8 0.003341 1 0 0
370 2 19 2 0 1 2 8 0.000416094 1 0 0
420 2 19 3 0 1 2 8 0.00346543 1 0 0
371 2 20 2 0 1 2 8 0.000416092 1 0 0
372 2 21 2 0 1 2 8 0.000399781 1 0 0
421 2 20 3 0 1 2 8 0.00349052 1 0 0
422 2 21 3 0 1 2 8 0.0033592 1 0 0
373 2 22 2 0 1 2 8 0.000378033 1 0 0
374 2 23 2 0 1 2 8 0.000357777 1 0 0
423 2 22 3 0 1 2 8 0.00319369 1 0 0
424 2 23 3 0 1 2 8 0.00302255 1 0 0
375 2 24 2 0 1 2 8 0.000340692 1 0 0
425 2 24 3 0 1 2 8 0.00276805 1 0 0
376 2 25 2 0 1 2 8 0.000338402 1 0 0
377 2 26 2 0 1 2 8 0.000354556 1 0 0
426 2 25 3 0 1 2 8 0.00272007 1 0 0
427 2 26 3 0 1 2 8 0.00292379 1 0 0
378 2 27 2 0 1 2 8 0.000376922 1 0 0
379 2 28 2 0 1 2 8 0.000390355 1 0 0
428 2 27 3 0 1 2 8 0.00316144 1 0 0
429 2 28 3 0 1 2 8 0.00329528 1 0 0
380 2 29 2 0 1 2 8 0.000395982 1 0 0
430 2 29 3 0 1 2 8 0.00330546 1 0 0
381 2 30 2 0 1 2 8 0.000408029 1 0 0
382 2 31 2 0 1 2 8 0.000426499 1 0 0
431 2 30 3 0 1 2 8 0.00338249 1 0 0
432 2 31 3 0 1 2 8 0.00353883 1 0 0
383 2 32 2 0 1 2 8 0.000437939 1 0 0
384 2 33 2 0 1 2 8 0.000430823 1 0 0
433 2 32 3 0 1 2 8 0.00365587 1 0 0
434 2 33 3 0 1 2 8 0.00360055 1 0 0
385 2 34 2 0 1 2 8 0.000414774 1 0 0
435 2 34 3 0 1 2 8 0.00344987 1 0 0
386 2 35 2 0 1 2 8 0.000409687 1 0 0
387 2 36 2 0 1 2 8 0.000413622 1 0 0
436 2 35 3 0 1 2 8 0.00340712 1 0 0
437 2 36 3 0 1 2 8 0.00344858 1 0 0
388 2 37 2 0 1 2 8 0.000415252 1 0 0
389 2 38 2 0 1 2 8 0.000412406 1 0 0
438 2 37 3 0 1 2 8 0.00346825 1 0 0
439 2 38 3 0 1 2 8 0.00346298 1 0 0
390 2 39 2 0 1 2 8 0.000405249 1 0 0
440 2 39 3 0 1 2 8 0.0034084 1 0 0
391 2 40 2 0 1 2 8 0.000393485 1 0 0
392 2 41 2 0 1 2 8 0.000377319 1 0 0
441 2 40 3 0 1 2 8 0.00330423 1 0 0
442 2 41 3 0 1 2 8 0.00312117 1 0 0
393 2 42 2 0 1 2 8 0.000365919 1 0 0
394 2 43 2 0 1 2 8 0.000367508 1 0 0
443 2 42 3 0 1 2 8 0.0029973 1 0 0
444 2 43 3 0 1 2 8 0.00300676 1 0 0
395 2 44 2 0 1 2 8 0.000388044 1 0 0
445 2 44 3 0 1 2 8 0.00321483 1 0 0
396 2 45 2 0 1 2 8 0.000415163 1 0 0
397 2 46 2 0 1 2 8 0.000425013 1 0 0
446 2 45 3 0 1 2 8 0.00348106 1 0 0
447 2 46 3 0 1 2 8 0.00357402 1 0 0
398 2 47 2 0 1 2 8 0.000411348 1 0 0
399 2 48 2 0 1 2 8 0.000390521 1 0 0
448 2 47 3 0 1 2 8 0.00344016 1 0 0
449 2 48 3 0 1 2 8 0.00325811 1 0 0
400 2 49 2 0 1 2 8 0.000375409 1 0 0
450 2 49 3 0 1 2 8 0.00310857 1 0 0
451 2 0 4 0 1 2 8 1.21583e-06 1 0 0
452 2 1 4 0 1 2 8 6.13697e-06 1 0 0
453 2 2 4 0 1 2 8 5.29377e-05 1 0 0
454 2 3 4 0 1 2 8 0.000356964 1 0 0
455 2 4 4 0 1 2 7 0.00171681 1 0 0
456 2 5 4 0 1 2 6 0.00501517 1 0 0
457 2 6 4 0 1 2 5 0.00853253 1 0 0
506 1 5.49311 4.87693 0 1.0006 2 0 0.0183507 1 -0.00692844 -8.33745e-05
458 2 7 4 0 1 2 5 0.0115193 1 0 0
459 2 8 4 0 1 2 5 0.0140699 1 0 0
460 2 9 4 0 1 2 5 0.0155217 1 0 0
461 2 10 4 0 1 2 5 0.0164782 1 0 0
462 2 11 4 0 1 2 5 0.0171603 1 0 0
463 2 12 4 0 1 2 5 0.0174691 1 0 0
464 2 13 4 0 1 2 5 0.0185388 1 0 0
465 2 14 4 0 1 2 5 0.0197964 1 0 0
515 1 13.4953 4.86183 0 1.02031 2 0 0.0581387 1 -0.00231264 0.00629716
516 1 14.4922 4.86405 0 1.0096 2 0 0.0603562 1 0.00587822 -0.000623939
466 2 15 4 0 1 2 5 0.0199046 1 0 0
467 2 16 4 0 1 2 5 0.0189311 1 0 0
468 2 17 4 0 1 2 5 0.0182881 1 0 0
469 2 18 4 0 1 2 5 0.0191568 1 0 0
519 1 17.4984 4.86458 0 1.0239 2 0 0.0611778 1 -0.00980752 -0.00406003
470 2 19 4 0 1 2 5 0.0200842 1 0 0
520 1 18.495 4.86003 0 1.00577 2 0 0.0643582 1 0.0127188 0.00405146
521 1 19.5007 4.86419 0 1.00453 2 0 0.0656653 1 -0.00456612 -0.00623321
471 2 20 4 0 1 2 5 0.0203596 1 0 0
472 2 21 4 0 1 2 5 0.0198146 1 0 0
523 1 21.5007 4.86264 0 1.02268 2 0 0.0661545 1 -0.00718852 0.00695542
473 2 22 4 0 1 2 5 0.0191799 1 0 0
474 2 23 4 0 1 2 5 0.0182367 1 0 0
524 1 22.4971 4.86926 0 1.01383 2 0 0.0673457 0.999761 0.00704316 -4.1388e-05
475 2 24 4 0 1 2 5 0.0165689 1 0 0
525 1 23.4975 4.86074 0 1.03669 2 0 0.0693144 0.997905 0.00244018 0.0153667
476 2 25 4 0 1 2 5 0.0159704 1 0 0
477 2 26 4 0 1 2 5 0.0170375 1 0 0
478 2 27 4 0 1 2 5 0.018984 1 0 0
479 2 28 4 0 1 2 5 0.0197609 1 0 0
529 1 27.4999 4.86293 0 1.0019 2 0 0.0729883 0.999998 0.00742871 0.00919135
480 2 29 4 0 1 2 5 0.0194976 1 0 0
531 1 29.5081 4.87124 0 1.01679 2 0 0.068682 1 -0.00254091 -0.00937649
481 2 30 4 0 1 2 5 0.0194587 1 0 0
482 2 31 4 0 1 2 5 0.0204919 1 0 0
533 1 31.5052 4.86157 0 1.004 2 0 0.0644188 1 -0.013388 0.013408
483 2 32 4 0 1 2 5 0.0212271 1 0 0
484 2 33 4 0 1 2 5 0.0209251 1 0 0
534 1 32.5012 4.86469 0 1.00171 2 0 0.0640197 1 0.000392699 0.00408789
485 2 34 4 0 1 2 5 0.0201161 1 0 0
486 2 35 4 0 1 2 5 0.0198567 1 0 0
487 2 36 4 0 1 2 5 0.0199728 1 0 0
537 1 35.4993 4.86604 0 1.0067 2 0 0.0662236 1 0.00241344 -0.00342367
488 2 37 4 0 1 2 5 0.020247 1 0 0
489 2 38 4 0 1 2 5 0.0202856 1 0 0
490 2 39 4 0 1 2 5 0.0200358 1 0 0
541 1 39.4985 4.86372 0 1.00168 2 0 0.066132 1 0.00271069 0.00306126
540 1 38.4987 4.86421 0 1.01715 2 0 0.0678339 1 0.00114493 0.00502377
491 2 40 4 0 1 2 5 0.0192997 1 0 0
492 2 41 4 0 1 2 5 0.0177789 1 0 0
542 1 40.4979 4.86543 0 1.01016 2 0 0.0622874 1 0.00535743 -0.00172869
543 1 41.4983 4.86443 0 1.03252 2 0 0.0565 0.999901 0.000383727 0.00245676
493 2 42 4 0 1 2 5 0.0168338 1 0 0
494 2 43 4 0 1 2 5 0.0168802 1 0 0
544 1 42.4988 4.86397 0 1.0319 2 0 0.053067 0.999554 0.0029812 -0.00120865
495 2 44 4 0 1 2 5 0.0183498 1 0 0
545 1 43.4977 4.86319 0 1.03659 2 0 0.0534237 0.999814 0.00400314 0.00235842
546 1 44.5007 4.86407 0 1.01001 2 0 0.0566777 0.999999 -0.00598295 -0.00501783
496 2 45 4 0 1 2 5 0.0202425 1 0 0
497 2 46 4 0 1 2 5 0.0208125 1 0 0
547 1 45.4986 4.86349 0 1.00173 2 0 0.0588448 1 0.0028067 0.00181389
548 1 46.4987 4.86399 0 1.00807 2 0 0.0593391 1 -0.00204437 0.0023779
498 2 47 4 0 1 2 5 0.0200412 1 0 0
499 2 48 4 0 1 2 5 0.0189367 1 0 0
549 1 47.498 4.86475 0 1.02093 2 0 0.0587933 1 0.00136198 0.000510615
500 2 49 4 0 1 2 5 0.0178356 1 0 0
550 1 48.4996 4.87001 0 1.02225 2 0 0.0577923 1 -0.00227701 -0.00907733
8501 1 49.5015 4.86991 0 1.06187 2 0 0.0549355 1 -0.00458666 -0.00243737
501 2 0 5 0 1 2 8 2.41696e-06 1 0 0
502 2 1 5 0 1 2 8 1.29291e-05 1 0 0
551 2 0 6 0 1 2 8 3.75027e-06 1 0 0
552 2 1 6 0 1 2 8 2.07841e-05 1 0 0
503 2 2 5 0 1 2 8 0.000119496 1 0 0
504 2 3 5 0 1 2 8 0.000883442 1 0 0
553 2 2 6 0 1 2 8 0.000196747 1 0 0
554 2 3 6 0 1 2 8 0.00150232 1 0 0
505 2 4 5 0 1 2 6 0.00493462 1 0 0
555 2 4 6 0 1 2 5 0.00846161 1 0 0
556 1 4.96443 5.73102 0 1.02426 2 0 0.0215902 1 -0.0234844 -0.000955332
507 1 6.48965 4.88173 0 1.02569 2 0 0.0254242 1 0.00692844 -1.66255e-05
557 1 5.95196 5.76909 0 1.00456 2 0 0.0339218 1 0.0234844 0.000855332
508 1 7.50561 4.88609 0 1.03193 2 0 0.0316366 1 0 -5e-05
558 1 7.02831 5.81852 0 1.00032 2 0 0.045527 1 -0.0174065 0.000373845
509 1 8.0197 5.79438 0 1.00999 2 0 0.0562348 1 0.0174065 -0.000473845
510 1 8.51421 4.89539 0 1.01036 2 0 0.0376307 1 0 -5e-05
511 1 9.50111 5.06624 0 1.00136 2 0 0.0487575 1 0.0120949 -0.0214136
560 1 9.01447 5.92581 0 1.01571 2 0 0.0755739 1 -0.0120949 0.0213136
512 1 10.4859 4.8612 0 1.01573 2 0 0.0474997 1 -8.28143e-05 0.000426442
513 1 11.5025 4.86414 0 1.01534 2 0 0.051838 1 -0.0157304 -0.0081681
561 1 10.0158 5.96157 0 1.04128 2 0 0.090948 1 -0.00233213 0.000542222
562 1 10.9839 5.71574 0 1.02468 2 0 0.0822857 1 0.000882214 0.000465804
514 1 12.4968 4.86798 0 1.01802 2 0 0.0551142 1 0.00845621 1.18374e-05
563 1 11.9838 5.73501 0 1.00884 2 0 0.0865192 1 -0.00413414 -0.000574034
565 1 12.9809 5.75914 0 1.01555 2 0 0.0916183 1 0.00497344 -0.000461877
566 1 13.9879 5.72796 0 1.01485 2 0 0.0961819 1 -0.00158878 -0.00547112
518 1 16.4985 4.86836 0 1.02515 2 0 0.0592165 1 0.00186615 -0.000942281
517 1 15.4993 4.86189 0 1.02614 2 0 0.0605106 1 0.000651393 0.00982281
567 1 14.9931 5.72256 0 1.00349 2 0 0.0987171 1 -0.0016407 0.00161037
568 1 15.9974 5.73314 0 1.02492 2 1 0.0978704 0.999964 -0.0014847 -0.00416722
569 1 18.0002 5.72387 0 1.01386 2 1 0.105689 0.99559 -0.0098601 -0.00589678
570 1 18.9924 5.72368 0 1.00562 2 0 0.10695 0.995453 0.0146945 0.00268529
571 1 19.993 5.72852 0 1.00943 2 0 0.1066 0.994856 0.00466634 -0.00254155
522 1 20.5018 4.86533 0 1.0139 2 0 0.0657039 1 -0.00879975 -0.00626484
572 1 20.9976 5.72782 0 1.02492 2 0 0.106404 0.998071 -0.00772753 0.00359128
573 1 21.9897 5.73295 0 1.00977 2 0 0.109215 0.993018 0.0139498 -0.0172582
574 1 22.9993 5.73478 0 1.00488 2 0 0.113706 0.9363 -0.00224095 -0.0066168
526 1 24.4981 4.87364 0 1.04245 2 0 0.0728152 0.996661 0.00762466 -0.0139331
528 1 26.5036 4.8679 0 1.04147 2 0 0.0722572 0.99999 -0.00716844 -0.00183387
527 1 25.5044 4.87495 0 1.03798 2 0 0.0711274 0.99917 -0.00731362 -0.0103434
577 1 26.0028 5.73522 0 1.01133 2 0 0.118071 0.962472 0.0132513 0.00745501
579 1 27.0046 5.73196 0 1.01129 2 0 0.120901 0.990109 0.00494232 -0.00524835
580 1 28.0097 5.72652 0 1.02117 2 0 0.119852 0.99082 -0.00494562 0.00743708
530 1 28.503 4.86687 0 1.02091 2 0 0.0715418 1 0.00788282 -0.0137865
581 1 29.0179 5.73669 0 1.01861 2 0 0.114844 0.994881 -0.00536712 0.00621081
632 1 30.0172 5.73506 0 1.0167 2 0 0.108254 0.997743 -0.00849651 -0.0040372
532 1 30.5041 4.8639 0 1.0182 2 0 0.0657828 1 0.00593386 0.00314894
582 1 31.0103 5.78003 0 1.0143 2 0 0.105859 0.999836 0.00790902 -0.00545018
583 1 32.0057 5.73632 0 1.0088 2 0 0.103954 0.99999 0.00367089 -0.0213431
584 1 32.999 5.73227 0 1.00514 2 0 0.106169 0.997769 0.0135102 -0.000213855
535 1 33.4979 4.8639 0 1.00275 2 0 0.0649146 1 0.00861199 0.00631364
536 1 34.5001 4.86569 0 1.0237 2 0 0.0660912 1 -0.0017726 0.000956852
585 1 34.0028 5.73906 0 1.02197 2 0 0.108079 0.99294 -0.00593668 -0.0110839
586 1 35.0073 5.73403 0 1.02669 2 0 0.109003 0.994623 -0.00601433 -0.000648387
538 1 36.4984 4.86401 0 1.01227 2 0 0.0659443 1 0.00054935 0.000818407
587 1 36.0065 5.73125 0 1.01702 2 0 0.108857 0.995387 -0.00824325 -0.00178939
539 1 37.4956 4.86863 0 1.00174 2 0 0.0674657 1 0.00881575 -0.0133444
588 1 37.0012 5.73175 0 1.01798 2 0 0.110039 0.992945 -0.00174641 0.00484781
589 1 37.9989 5.73011 0 1.01656 2 0 0.111675 0.992255 0.00361832 -0.00200894
590 1 39.0013 5.72878 0 1.01208 2 0 0.109812 0.995321 -0.00908136 -0.00148555
591 1 39.9992 5.72934 0 1.01334 2 0 0.105804 0.998497 -0.00137192 -0.00109257
592 1 41.0027 5.73434 0 1.02633 2 1 0.0988056 0.994236 0.00129429 0.00129516
594 1 43.0003 5.72897 0 1.01497 2 0 0.0866725 0.932242 -0.000871423 2.78022e-05
593 1 42.0017 5.72699 0 1.02837 2 1 0.09023 0.949674 -0.00239389 -6.77536e-05
596 1 44.9966 5.72815 0 1.01116 2 0 0.0922553 0.999042 0.00529967 0.000147047
595 1 43.999 5.72618 0 1.01694 2 0 0.0879413 0.981461 -0.00290356 0.00550666
597 1 45.9943 5.72841 0 1.01212 2 0 0.09351 0.999235 0.00284904 0.000886484
598 1 46.9922 5.73133 0 1.00861 2 0 0.0935371 0.999367 0.00718852 -0.00492256
599 1 47.9939 5.731 0 1.02545 2 0 0.0941922 0.999811 0.000386941 0.0056828
600 1 48.9982 5.7324 0 1.00476 2 0 0.102608 0.999998 -0.00305159 0.000472219
601 2 0 7 0 1 2 8 4.91874e-06 1 0 0
602 2 1 7 0 1 2 8 2.77786e-05 1 0 0
651 2 0 8 0 1 2 8 5.77714e-06 1 0 0
652 2 1 8 0 1 2 8 3.27624e-05 1 0 0
603 2 2 7 0 1 2 8 0.000265938 1 0 0
604 2 3 7 0 1 2 8 0.00206585 1 0 0
653 2 2 8 0 1 2 8 0.000316893 1 0 0
654 2 3 8 0 1 2 8 0.00250739 1 0 0
605 2 4 7 0 1 2 5 0.0115432 1 0 0
655 2 4 8 0 1 2 5 0.0140977 1 0 0
606 1 5.41223 6.64487 0 1.01839 2 0 0.0365569 1 0.00414156 -0.00692145
656 1 4.89805 7.49797 0 1.01253 2 0 0.0323065 1 -0.0044688 0.00592519
607 1 6.43901 6.66081 0 1.01626 2 0 0.0531591 1 0 -5e-05
657 1 5.98262 7.61888 0 1.02523 2 0 0.0571965 1 0 -5e-05
608 1 7.53696 6.68124 0 1.01581 2 0 0.0709756 1 0.00555833 -0.00837616
609 1 7.9415 7.79329 0 1.00447 2 0 0.118273 1 0.00327128 0.000922677
658 1 6.98454 7.50875 0 1.00499 2 0 0.0816175 1 -0.00870448 -0.00224781
559 1 8.51412 6.92405 0 1.01669 2 0 0.0972757 1 0 -5e-05
610 1 9.53141 6.8368 0 1.00382 2 0 0.117316 1 -0.000152426 -0.00101279
661 1 9.68771 7.82401 0 1.00906 2 1 0.161655 0.999744 0.011545 -0.00987257
611 1 10.4986 7.13992 0 1.00368 2 0 0.143367 0.999972 -1.04501e-06 -5.19844e-05
612 1 10.6566 8.17272 0 1.00002 2 2 0.190987 0.965212 0.00256939 -0.000357937
564 1 11.3636 6.62746 0 1.01095 2 0 0.123157 1 0.00352732 0.00253823
613 1 11.5956 7.58947 0 1.00877 2 2 0.175003 0.984494 -0.00174083 0.00252411
614 1 12.3626 6.65507 0 1.01882 2 2 0.124587 0.999969 -0.00244574 -0.00161911
615 1 13.3811 6.67528 0 1.00601 2 1 0.135038 0.999127 0.000315922 0.00020767
616 1 14.3883 6.63739 0 1.00878 2 1 0.144117 0.996929 -0.00163767 0.00438044
666 1 14.3646 7.75021 0 0.997531 2 3 0.230762 0.704823 0.000497188 -0.0005406
665 1 13.4137 8.04348 0 1.00809 2 2 0.238117 0.655329 -0.000430619 0.00203286
617 1 15.4691 6.59467 0 1.01132 2 2 0.150585 0.997142 0.000923567 0.00246552
618 1 16.9929 5.91571 0 1.00786 2 1 0.112406 0.992447 -0.00057427 0.000790798
619 1 17.2632 6.89327 0 1.00791 2 3 0.192699 0.71369 -0.000636062 0.00272202
620 1 18.4555 6.6098 0 1.00047 2 0 0.162252 0.808496 0.00293875 0.00435382
621 1 19.4883 6.58848 0 1.01086 2 0 0.155803 0.808614 -0.000602966 0.00333586
671 1 19.7528 7.75129 0 1.00874 0 0 0.261161 0.748435 0.000532202 0.000843312
622 1 20.4951 6.58919 0 1.02282 2 0 0.151122 0.847619 0.00138544 0.0022128
623 1 21.4949 6.59714 0 1.01715 2 0 0.153363 0.85153 -0.0180932 0.00105061
624 1 22.4884 6.59166 0 1.00933 2 0 0.168435 0.69318 0.0139781 0.0123839
575 1 23.9975 5.73057 0 1.01237 2 0 0.122881 0.849413 -0.00498723 0.00426192
576 1 25.0061 5.74705 0 1.01087 2 0 0.124511 0.869579 -0.00520195 -0.00515237
625 1 23.5316 7.11023 0 1.00955 0 0 0.251495 0.703534 2.24842e-07 0.00183171
578 1 26.517 6.60064 0 1.0136 2 0 0.178903 0.680309 -0.000423828 -0.00410949
628 1 26.2019 7.60502 0 1.00929 0 0 0.271062 0.778871 -0.00162024 -8.70685e-06
629 1 27.5171 6.59264 0 1.00585 2 0 0.172235 0.776571 -0.0157949 0.000740609
630 1 28.5111 6.59709 0 1.00031 2 0 0.168322 0.785202 0.0105871 -0.0028128
631 1 29.5261 6.602 0 1.01679 2 0 0.157846 0.834417 -0.00273358 -0.000833518
682 1 30.5672 6.67264 0 1.0233 2 0 0.150078 0.921214 -3.08081e-05 0.000415349
633 1 31.5761 6.62628 0 1.00197 2 0 0.154458 0.988445 -0.00871033 -0.00481127
683 1 31.5259 7.61248 0 1.00602 2 0 0.230283 0.583684 -0.000313217 0.00992389
684 1 32.5157 7.02406 0 1.01173 2 0 0.199975 0.835134 -0.000270309 -0.00234369
634 1 33.438 6.63414 0 1.00318 2 0 0.160912 0.833417 -0.00116279 -0.00397627
635 1 34.5022 6.59857 0 1.01335 2 0 0.157647 0.794384 0.00551402 0.00240333
685 1 33.8713 7.73717 0 1.00575 0 0 0.255195 0.691935 0.00119714 -0.000480895
636 1 35.5108 6.59552 0 1.01343 2 0 0.161023 0.822024 -0.00155857 0.00443567
637 1 36.4526 6.96522 0 0.995425 2 0 0.196942 0.580612 -1.34085e-05 -8.92441e-05
638 1 37.499 6.59654 0 1.00947 2 0 0.164022 0.784846 -4.85939e-05 -0.00176419
639 1 38.4981 6.59293 0 1.00618 2 0 0.15982 0.797841 0.00277886 0.00199462
689 1 38.3236 7.74234 0 1.00502 0 0 0.251151 0.73745 0.000209214 -0.000343246
640 1 39.4969 6.59414 0 1.01834 2 0 0.154485 0.848359 0.00408816 -0.000853075
690 1 39.2625 7.92546 0 1.00402 0 0 0.269357 0.842106 -8.46697e-05 -0.000490307
641 1 40.4958 6.59383 0 1.00947 2 1 0.155326 0.906122 -0.00438266 0.000413278
642 1 41.4025 7.33029 0 1.00827 2 3 0.242247 0.272705 -0.000135551 0.000486821
643 1 42.3191 7.2848 0 1.00567 0 0 0.252328 0.631202 0.000138898 0.00044218
644 1 43.1417 7.34208 0 1.00513 0 0 0.25755 0.844994 -0.000192937 6.73064e-05
645 1 43.8408 7.88333 0 1.00464 0 0 0.284709 0.926989 -0.000365219 -0.000254708
646 1 44.4982 6.59192 0 1.0312 2 0 0.139079 0.816557 -0.00429259 -0.00260326