ITEM: TIMESTEP
44000
ITEM: NUMBER OF ATOMS
15950
ITEM: BOX BOUNDS pp pp pp
0.0000000000000000e+00 1.0000000000000000e+02
-5.0000000000000000e+00 2.0000000000000000e+02
-5.0000000000000000e-01 5.0000000000000000e-01
ITEM: ATOMS id type x y z c_rho c_phase c_nbond c_temp f_rheo_chi_chi fx fy
1 2 0 -5 0 1 2 8 3.59683e-08 1 0 0
2 2 1 -5 0 1 2 8 4.64064e-08 1 0 0
51 2 0 -4 0 1 2 8 1.50419e-07 1 0 0
52 2 1 -4 0 1 2 8 1.97548e-07 1 0 0
3 2 2 -5 0 1 2 8 8.07822e-08 1 0 0
4 2 3 -5 0 1 2 8 1.42761e-07 1 0 0
53 2 2 -4 0 1 2 8 3.53805e-07 1 0 0
54 2 3 -4 0 1 2 8 6.3636e-07 1 0 0
5 2 4 -5 0 1 2 7 2.40051e-07 1 0 0
55 2 4 -4 0 1 2 8 1.05535e-06 1 0 0
6 2 5 -5 0 1 2 6 3.85492e-07 1 0 0
7 2 6 -5 0 1 2 5 5.46592e-07 1 0 0
56 2 5 -4 0 1 2 8 1.59661e-06 1 0 0
57 2 6 -4 0 1 2 8 2.20407e-06 1 0 0
8 2 7 -5 0 1 2 5 6.96884e-07 1 0 0
9 2 8 -5 0 1 2 5 8.32704e-07 1 0 0
58 2 7 -4 0 1 2 8 2.81237e-06 1 0 0
59 2 8 -4 0 1 2 8 3.36802e-06 1 0 0
10 2 9 -5 0 1 2 5 9.47693e-07 1 0 0
60 2 9 -4 0 1 2 8 3.83967e-06 1 0 0
11 2 10 -5 0 1 2 5 1.04064e-06 1 0 0
12 2 11 -5 0 1 2 5 1.11485e-06 1 0 0
61 2 10 -4 0 1 2 8 4.22232e-06 1 0 0
62 2 11 -4 0 1 2 8 4.52982e-06 1 0 0
13 2 12 -5 0 1 2 5 1.17511e-06 1 0 0
14 2 13 -5 0 1 2 5 1.22476e-06 1 0 0
63 2 12 -4 0 1 2 8 4.78157e-06 1 0 0
64 2 13 -4 0 1 2 8 4.99048e-06 1 0 0
15 2 14 -5 0 1 2 5 1.26481e-06 1 0 0
65 2 14 -4 0 1 2 8 5.15939e-06 1 0 0
16 2 15 -5 0 1 2 5 1.29542e-06 1 0 0
17 2 16 -5 0 1 2 5 1.3178e-06 1 0 0
66 2 15 -4 0 1 2 8 5.28813e-06 1 0 0
67 2 16 -4 0 1 2 8 5.38236e-06 1 0 0
18 2 17 -5 0 1 2 5 1.33411e-06 1 0 0
19 2 18 -5 0 1 2 5 1.34546e-06 1 0 0
68 2 17 -4 0 1 2 8 5.45274e-06 1 0 0
69 2 18 -4 0 1 2 8 5.50495e-06 1 0 0
20 2 19 -5 0 1 2 5 1.35051e-06 1 0 0
70 2 19 -4 0 1 2 8 5.5331e-06 1 0 0
21 2 20 -5 0 1 2 5 1.34671e-06 1 0 0
22 2 21 -5 0 1 2 5 1.3331e-06 1 0 0
71 2 20 -4 0 1 2 8 5.5251e-06 1 0 0
72 2 21 -4 0 1 2 8 5.4756e-06 1 0 0
23 2 22 -5 0 1 2 5 1.31252e-06 1 0 0
24 2 23 -5 0 1 2 5 1.29149e-06 1 0 0
73 2 22 -4 0 1 2 8 5.3955e-06 1 0 0
74 2 23 -4 0 1 2 8 5.31165e-06 1 0 0
25 2 24 -5 0 1 2 5 1.27782e-06 1 0 0
75 2 24 -4 0 1 2 8 5.25707e-06 1 0 0
26 2 25 -5 0 1 2 5 1.27719e-06 1 0 0
27 2 26 -5 0 1 2 5 1.29052e-06 1 0 0
76 2 25 -4 0 1 2 8 5.2561e-06 1 0 0
77 2 26 -4 0 1 2 8 5.31252e-06 1 0 0
28 2 27 -5 0 1 2 5 1.31396e-06 1 0 0
29 2 28 -5 0 1 2 5 1.34164e-06 1 0 0
78 2 27 -4 0 1 2 8 5.40939e-06 1 0 0
79 2 28 -4 0 1 2 8 5.52128e-06 1 0 0
30 2 29 -5 0 1 2 5 1.36856e-06 1 0 0
80 2 29 -4 0 1 2 8 5.62803e-06 1 0 0
31 2 30 -5 0 1 2 5 1.39166e-06 1 0 0
32 2 31 -5 0 1 2 5 1.40899e-06 1 0 0
81 2 30 -4 0 1 2 8 5.71866e-06 1 0 0
82 2 31 -4 0 1 2 8 5.78665e-06 1 0 0
33 2 32 -5 0 1 2 5 1.41923e-06 1 0 0
34 2 33 -5 0 1 2 5 1.42235e-06 1 0 0
83 2 32 -4 0 1 2 8 5.82683e-06 1 0 0
84 2 33 -4 0 1 2 8 5.83869e-06 1 0 0
35 2 34 -5 0 1 2 5 1.42011e-06 1 0 0
85 2 34 -4 0 1 2 8 5.82957e-06 1 0 0
36 2 35 -5 0 1 2 5 1.41506e-06 1 0 0
37 2 36 -5 0 1 2 5 1.40855e-06 1 0 0
86 2 35 -4 0 1 2 8 5.81043e-06 1 0 0
87 2 36 -4 0 1 2 8 5.78682e-06 1 0 0
38 2 37 -5 0 1 2 5 1.3997e-06 1 0 0
39 2 38 -5 0 1 2 5 1.3865e-06 1 0 0
88 2 37 -4 0 1 2 8 5.7544e-06 1 0 0
89 2 38 -4 0 1 2 8 5.7034e-06 1 0 0
40 2 39 -5 0 1 2 5 1.36802e-06 1 0 0
90 2 39 -4 0 1 2 8 5.6287e-06 1 0 0
41 2 40 -5 0 1 2 5 1.34639e-06 1 0 0
42 2 41 -5 0 1 2 5 1.32695e-06 1 0 0
91 2 40 -4 0 1 2 8 5.53849e-06 1 0 0
92 2 41 -4 0 1 2 8 5.45555e-06 1 0 0
43 2 42 -5 0 1 2 5 1.31603e-06 1 0 0
44 2 43 -5 0 1 2 5 1.31714e-06 1 0 0
93 2 42 -4 0 1 2 8 5.40783e-06 1 0 0
94 2 43 -4 0 1 2 8 5.41167e-06 1 0 0
45 2 44 -5 0 1 2 5 1.32817e-06 1 0 0
95 2 44 -4 0 1 2 8 5.45864e-06 1 0 0
46 2 45 -5 0 1 2 5 1.34199e-06 1 0 0
47 2 46 -5 0 1 2 5 1.35071e-06 1 0 0
96 2 45 -4 0 1 2 8 5.51782e-06 1 0 0
97 2 46 -4 0 1 2 8 5.55468e-06 1 0 0
48 2 47 -5 0 1 2 5 1.35071e-06 1 0 0
49 2 48 -5 0 1 2 5 1.34463e-06 1 0 0
98 2 47 -4 0 1 2 8 5.55348e-06 1 0 0
99 2 48 -4 0 1 2 8 5.52609e-06 1 0 0
50 2 49 -5 0 1 2 5 1.33899e-06 1 0 0
100 2 49 -4 0 1 2 8 5.50128e-06 1 0 0
101 2 0 -3 0 1 2 8 5.78672e-07 1 0 0
102 2 1 -3 0 1 2 8 7.74902e-07 1 0 0
151 2 0 -2 0 1 2 8 2.03168e-06 1 0 0
152 2 1 -2 0 1 2 8 2.77775e-06 1 0 0
103 2 2 -3 0 1 2 8 1.43169e-06 1 0 0
104 2 3 -3 0 1 2 8 2.63588e-06 1 0 0
153 2 2 -2 0 1 2 8 5.3024e-06 1 0 0
154 2 3 -2 0 1 2 8 1.00118e-05 1 0 0
105 2 4 -3 0 1 2 8 4.43543e-06 1 0 0
155 2 4 -2 0 1 2 8 1.71594e-05 1 0 0
106 2 5 -3 0 1 2 8 6.75328e-06 1 0 0
107 2 6 -3 0 1 2 8 9.37179e-06 1 0 0
156 2 5 -2 0 1 2 8 2.64559e-05 1 0 0
157 2 6 -2 0 1 2 8 3.69968e-05 1 0 0
108 2 7 -3 0 1 2 8 1.20068e-05 1 0 0
109 2 8 -3 0 1 2 8 1.44139e-05 1 0 0
158 2 7 -2 0 1 2 8 4.76002e-05 1 0 0
159 2 8 -2 0 1 2 8 5.72758e-05 1 0 0
110 2 9 -3 0 1 2 8 1.64578e-05 1 0 0
160 2 9 -2 0 1 2 8 6.54987e-05 1 0 0
111 2 10 -3 0 1 2 8 1.81206e-05 1 0 0
112 2 11 -3 0 1 2 8 1.94653e-05 1 0 0
161 2 10 -2 0 1 2 8 7.22179e-05 1 0 0
162 2 11 -2 0 1 2 8 7.76952e-05 1 0 0
113 2 12 -3 0 1 2 8 2.05765e-05 1 0 0
114 2 13 -3 0 1 2 8 2.15071e-05 1 0 0
163 2 12 -2 0 1 2 8 8.22707e-05 1 0 0
164 2 13 -2 0 1 2 8 8.61422e-05 1 0 0
115 2 14 -3 0 1 2 8 2.22623e-05 1 0 0
165 2 14 -2 0 1 2 8 8.93001e-05 1 0 0
116 2 15 -3 0 1 2 8 2.28362e-05 1 0 0
117 2 16 -3 0 1 2 8 2.32561e-05 1 0 0
166 2 15 -2 0 1 2 8 9.16951e-05 1 0 0
167 2 16 -2 0 1 2 8 9.34505e-05 1 0 0
118 2 17 -3 0 1 2 8 2.35776e-05 1 0 0
119 2 18 -3 0 1 2 8 2.38316e-05 1 0 0
168 2 17 -2 0 1 2 8 9.48313e-05 1 0 0
169 2 18 -2 0 1 2 8 9.59871e-05 1 0 0
120 2 19 -3 0 1 2 8 2.39894e-05 1 0 0
170 2 19 -2 0 1 2 8 9.67889e-05 1 0 0
121 2 20 -3 0 1 2 8 2.39903e-05 1 0 0
122 2 21 -3 0 1 2 8 2.38041e-05 1 0 0
171 2 20 -2 0 1 2 8 9.69582e-05 1 0 0
172 2 21 -2 0 1 2 8 9.63476e-05 1 0 0
123 2 22 -3 0 1 2 8 2.34752e-05 1 0 0
124 2 23 -3 0 1 2 8 2.31211e-05 1 0 0
173 2 22 -2 0 1 2 8 9.51244e-05 1 0 0
174 2 23 -2 0 1 2 8 9.37612e-05 1 0 0
125 2 24 -3 0 1 2 8 2.28902e-05 1 0 0
175 2 24 -2 0 1 2 8 9.28712e-05 1 0 0
126 2 25 -3 0 1 2 8 2.28939e-05 1 0 0
127 2 26 -3 0 1 2 8 2.31493e-05 1 0 0
176 2 25 -2 0 1 2 8 9.29295e-05 1 0 0
177 2 26 -2 0 1 2 8 9.4009e-05 1 0 0
128 2 27 -3 0 1 2 8 2.35759e-05 1 0 0
129 2 28 -3 0 1 2 8 2.40558e-05 1 0 0
178 2 27 -2 0 1 2 8 9.57549e-05 1 0 0
179 2 28 -2 0 1 2 8 9.76608e-05 1 0 0
130 2 29 -3 0 1 2 8 2.45029e-05 1 0 0
180 2 29 -2 0 1 2 8 9.93872e-05 1 0 0
131 2 30 -3 0 1 2 8 2.48785e-05 1 0 0
132 2 31 -3 0 1 2 8 2.51614e-05 1 0 0
181 2 30 -2 0 1 2 8 0.000100822 1 0 0
182 2 31 -2 0 1 2 8 0.000101914 1 0 0
133 2 32 -3 0 1 2 8 2.53291e-05 1 0 0
134 2 33 -3 0 1 2 8 2.53767e-05 1 0 0
183 2 32 -2 0 1 2 8 0.000102569 1 0 0
184 2 33 -2 0 1 2 8 0.000102751 1 0 0
135 2 34 -3 0 1 2 8 2.53366e-05 1 0 0
185 2 34 -2 0 1 2 8 0.000102593 1 0 0
136 2 35 -3 0 1 2 8 2.52601e-05 1 0 0
137 2 36 -3 0 1 2 8 2.51725e-05 1 0 0
186 2 35 -2 0 1 2 8 0.000102316 1 0 0
187 2 36 -2 0 1 2 8 0.000102031 1 0 0
138 2 37 -3 0 1 2 8 2.50509e-05 1 0 0
139 2 38 -3 0 1 2 8 2.48458e-05 1 0 0
188 2 37 -2 0 1 2 8 0.000101626 1 0 0
189 2 38 -2 0 1 2 8 0.000100876 1 0 0
140 2 39 -3 0 1 2 8 2.45281e-05 1 0 0
190 2 39 -2 0 1 2 8 9.9636e-05 1 0 0
141 2 40 -3 0 1 2 8 2.41304e-05 1 0 0
142 2 41 -3 0 1 2 8 2.37555e-05 1 0 0
191 2 40 -2 0 1 2 8 9.80215e-05 1 0 0
192 2 41 -2 0 1 2 8 9.64582e-05 1 0 0
143 2 42 -3 0 1 2 8 2.35349e-05 1 0 0
144 2 43 -3 0 1 2 8 2.35495e-05 1 0 0
193 2 42 -2 0 1 2 8 9.55166e-05 1 0 0
194 2 43 -2 0 1 2 8 9.55653e-05 1 0 0
145 2 44 -3 0 1 2 8 2.37639e-05 1 0 0
195 2 44 -2 0 1 2 8 9.64692e-05 1 0 0
146 2 45 -3 0 1 2 8 2.40348e-05 1 0 0
147 2 46 -3 0 1 2 8 2.42e-05 1 0 0
196 2 45 -2 0 1 2 8 9.76126e-05 1 0 0
197 2 46 -2 0 1 2 8 9.82939e-05 1 0 0
148 2 47 -3 0 1 2 8 2.41868e-05 1 0 0
149 2 48 -3 0 1 2 8 2.40527e-05 1 0 0
198 2 47 -2 0 1 2 8 9.82018e-05 1 0 0
199 2 48 -2 0 1 2 8 9.75949e-05 1 0 0
150 2 49 -3 0 1 2 8 2.39339e-05 1 0 0
200 2 49 -2 0 1 2 8 9.70687e-05 1 0 0
201 2 0 -1 0 1 2 8 6.45512e-06 1 0 0
202 2 1 -1 0 1 2 8 9.01777e-06 1 0 0
203 2 2 -1 0 1 2 8 1.77944e-05 1 0 0
204 2 3 -1 0 1 2 8 3.44836e-05 1 0 0
205 2 4 -1 0 1 2 8 6.02578e-05 1 0 0
206 2 5 -1 0 1 2 8 9.4137e-05 1 0 0
207 2 6 -1 0 1 2 8 0.000132661 1 0 0
208 2 7 -1 0 1 2 8 0.000171348 1 0 0
209 2 8 -1 0 1 2 8 0.0002066 1 0 0
210 2 9 -1 0 1 2 8 0.000236626 1 0 0
211 2 10 -1 0 1 2 8 0.000261327 1 0 0
212 2 11 -1 0 1 2 8 0.000281672 1 0 0
213 2 12 -1 0 1 2 8 0.000298879 1 0 0
214 2 13 -1 0 1 2 8 0.00031361 1 0 0
215 2 14 -1 0 1 2 8 0.000325709 1 0 0
216 2 15 -1 0 1 2 8 0.000334893 1 0 0
217 2 16 -1 0 1 2 8 0.00034166 1 0 0
218 2 17 -1 0 1 2 8 0.000347139 1 0 0
219 2 18 -1 0 1 2 8 0.000351972 1 0 0
220 2 19 -1 0 1 2 8 0.000355624 1 0 0
221 2 20 -1 0 1 2 8 0.000356957 1 0 0
222 2 21 -1 0 1 2 8 0.00035536 1 0 0
223 2 22 -1 0 1 2 8 0.000351404 1 0 0
224 2 23 -1 0 1 2 8 0.000346788 1 0 0
225 2 24 -1 0 1 2 8 0.00034378 1 0 0
226 2 25 -1 0 1 2 8 0.000344212 1 0 0
227 2 26 -1 0 1 2 8 0.00034838 1 0 0
228 2 27 -1 0 1 2 8 0.000354878 1 0 0
229 2 28 -1 0 1 2 8 0.000361726 1 0 0
230 2 29 -1 0 1 2 8 0.000367726 1 0 0
231 2 30 -1 0 1 2 8 0.000372665 1 0 0
232 2 31 -1 0 1 2 8 0.000376495 1 0 0
233 2 32 -1 0 1 2 8 0.000378852 1 0 0
234 2 33 -1 0 1 2 8 0.000379516 1 0 0
235 2 34 -1 0 1 2 8 0.000378973 1 0 0
236 2 35 -1 0 1 2 8 0.000378109 1 0 0
237 2 36 -1 0 1 2 8 0.000377341 1 0 0
238 2 37 -1 0 1 2 8 0.000376213 1 0 0
239 2 38 -1 0 1 2 8 0.000373798 1 0 0
240 2 39 -1 0 1 2 8 0.000369476 1 0 0
241 2 40 -1 0 1 2 8 0.0003636 1 0 0
242 2 41 -1 0 1 2 8 0.000357742 1 0 0
243 2 42 -1 0 1 2 8 0.000354124 1 0 0
244 2 43 -1 0 1 2 8 0.000354257 1 0 0
245 2 44 -1 0 1 2 8 0.000357683 1 0 0
246 2 45 -1 0 1 2 8 0.000362022 1 0 0
247 2 46 -1 0 1 2 8 0.000364535 1 0 0
248 2 47 -1 0 1 2 8 0.000364034 1 0 0
249 2 48 -1 0 1 2 8 0.000361566 1 0 0
250 2 49 -1 0 1 2 8 0.000359466 1 0 0
251 2 0 0 0 1 2 8 1.84028e-05 1 0 0
252 2 1 0 0 1 2 8 2.6264e-05 1 0 0
301 2 0 1 0 1 2 8 4.67146e-05 1 0 0
302 2 1 1 0 1 2 8 6.80064e-05 1 0 0
253 2 2 0 0 1 2 8 5.35206e-05 1 0 0
254 2 3 0 0 1 2 8 0.000106415 1 0 0
303 2 2 1 0 1 2 8 0.000142628 1 0 0
304 2 3 1 0 1 2 8 0.000290246 1 0 0
255 2 4 0 0 1 2 8 0.000189664 1 0 0
305 2 4 1 0 1 2 8 0.000527205 1 0 0
256 2 5 0 0 1 2 8 0.000300318 1 0 0
257 2 6 0 0 1 2 8 0.000426306 1 0 0
306 2 5 1 0 1 2 8 0.000845995 1 0 0
307 2 6 1 0 1 2 8 0.00120834 1 0 0
258 2 7 0 0 1 2 8 0.000552329 1 0 0
259 2 8 0 0 1 2 8 0.000666964 1 0 0
308 2 7 1 0 1 2 8 0.00156781 1 0 0
309 2 8 1 0 1 2 8 0.00189411 1 0 0
260 2 9 0 0 1 2 8 0.000765026 1 0 0
310 2 9 1 0 1 2 8 0.00217537 1 0 0
261 2 10 0 0 1 2 8 0.0008465 1 0 0
262 2 11 0 0 1 2 8 0.000914494 1 0 0
311 2 10 1 0 1 2 8 0.00241239 1 0 0
312 2 11 1 0 1 2 8 0.0026135 1 0 0
263 2 12 0 0 1 2 8 0.000972814 1 0 0
264 2 13 0 0 1 2 8 0.0010234 1 0 0
313 2 12 1 0 1 2 8 0.00278874 1 0 0
314 2 13 1 0 1 2 8 0.00294299 1 0 0
265 2 14 0 0 1 2 8 0.00106535 1 0 0
315 2 14 1 0 1 2 8 0.00307259 1 0 0
266 2 15 0 0 1 2 8 0.00109737 1 0 0
267 2 16 0 0 1 2 8 0.00112123 1 0 0
316 2 15 1 0 1 2 8 0.00317277 1 0 0
317 2 16 1 0 1 2 8 0.00324891 1 0 0
268 2 17 0 0 1 2 8 0.00114115 1 0 0
269 2 18 0 0 1 2 8 0.00115951 1 0 0
318 2 17 1 0 1 2 8 0.00331457 1 0 0
319 2 18 1 0 1 2 8 0.00337706 1 0 0
270 2 19 0 0 1 2 8 0.00117431 1 0 0
320 2 19 1 0 1 2 8 0.00342978 1 0 0
271 2 20 0 0 1 2 8 0.00118147 1 0 0
272 2 21 0 0 1 2 8 0.00117887 1 0 0
321 2 20 1 0 1 2 8 0.00346024 1 0 0
322 2 21 1 0 1 2 8 0.00346264 1 0 0
273 2 22 0 0 1 2 8 0.00116832 1 0 0
274 2 23 0 0 1 2 8 0.00115509 1 0 0
323 2 22 1 0 1 2 8 0.00344208 1 0 0
324 2 23 1 0 1 2 8 0.00341239 1 0 0
275 2 24 0 0 1 2 8 0.00114655 1 0 0
325 2 24 1 0 1 2 8 0.00339375 1 0 0
276 2 25 0 0 1 2 8 0.00114897 1 0 0
277 2 26 0 0 1 2 8 0.00116349 1 0 0
326 2 25 1 0 1 2 8 0.00340494 1 0 0
327 2 26 1 0 1 2 8 0.00344989 1 0 0
278 2 27 0 0 1 2 8 0.00118518 1 0 0
279 2 28 0 0 1 2 8 0.00120714 1 0 0
328 2 27 1 0 1 2 8 0.0035138 1 0 0
329 2 28 1 0 1 2 8 0.00357575 1 0 0
280 2 29 0 0 1 2 8 0.00122566 1 0 0
330 2 29 1 0 1 2 8 0.00362576 1 0 0
281 2 30 0 0 1 2 8 0.00124078 1 0 0
282 2 31 0 0 1 2 8 0.00125289 1 0 0
331 2 30 1 0 1 2 8 0.00366653 1 0 0
332 2 31 1 0 1 2 8 0.00370078 1 0 0
283 2 32 0 0 1 2 8 0.00126065 1 0 0
284 2 33 0 0 1 2 8 0.00126298 1 0 0
333 2 32 1 0 1 2 8 0.00372409 1 0 0
334 2 33 1 0 1 2 8 0.00373203 1 0 0
285 2 34 0 0 1 2 8 0.00126146 1 0 0
335 2 34 1 0 1 2 8 0.00372899 1 0 0
286 2 35 0 0 1 2 8 0.00125925 1 0 0
287 2 36 0 0 1 2 8 0.00125778 1 0 0
336 2 35 1 0 1 2 8 0.00372497 1 0 0
337 2 36 1 0 1 2 8 0.00372429 1 0 0
288 2 37 0 0 1 2 8 0.00125536 1 0 0
289 2 38 0 0 1 2 8 0.00124872 1 0 0
338 2 37 1 0 1 2 8 0.00372143 1 0 0
339 2 38 1 0 1 2 8 0.00370656 1 0 0
290 2 39 0 0 1 2 8 0.00123557 1 0 0
340 2 39 1 0 1 2 8 0.00367287 1 0 0
291 2 40 0 0 1 2 8 0.00121681 1 0 0
292 2 41 0 0 1 2 8 0.00119748 1 0 0
341 2 40 1 0 1 2 8 0.0036219 1 0 0
342 2 41 1 0 1 2 8 0.00356728 1 0 0
293 2 42 0 0 1 2 8 0.00118522 1 0 0
294 2 43 0 0 1 2 8 0.00118549 1 0 0
343 2 42 1 0 1 2 8 0.00353159 1 0 0
344 2 43 1 0 1 2 8 0.00353191 1 0 0
295 2 44 0 0 1 2 8 0.00119696 1 0 0
345 2 44 1 0 1 2 8 0.00356506 1 0 0
296 2 45 0 0 1 2 8 0.00121148 1 0 0
297 2 46 0 0 1 2 8 0.0012196 1 0 0
346 2 45 1 0 1 2 8 0.00360689 1 0 0
347 2 46 1 0 1 2 8 0.00362932 1 0 0
298 2 47 0 0 1 2 8 0.00121737 1 0 0
299 2 48 0 0 1 2 8 0.00120852 1 0 0
348 2 47 1 0 1 2 8 0.00362111 1 0 0
349 2 48 1 0 1 2 8 0.00359395 1 0 0
300 2 49 0 0 1 2 8 0.00120114 1 0 0
350 2 49 1 0 1 2 8 0.00357172 1 0 0
351 2 0 2 0 1 2 8 0.000105 1 0 0
352 2 1 2 0 1 2 8 0.000155466 1 0 0
401 2 0 3 0 1 2 8 0.000208564 1 0 0
402 2 1 3 0 1 2 8 0.000312975 1 0 0
353 2 2 2 0 1 2 8 0.000333369 1 0 0
354 2 3 2 0 1 2 8 0.000689664 1 0 0
403 2 2 3 0 1 2 8 0.000680087 1 0 0
404 2 3 3 0 1 2 8 0.00141189 1 0 0
355 2 4 2 0 1 2 8 0.00127192 1 0 0
405 2 4 3 0 1 2 8 0.00260839 1 0 0
356 2 5 2 0 1 2 8 0.00206699 1 0 0
357 2 6 2 0 1 2 8 0.00296354 1 0 0
406 2 5 3 0 1 2 8 0.00429788 1 0 0
407 2 6 3 0 1 2 8 0.00616802 1 0 0
358 2 7 2 0 1 2 8 0.00383784 1 0 0
359 2 8 2 0 1 2 8 0.00462999 1 0 0
408 2 7 3 0 1 2 8 0.00791058 1 0 0
409 2 8 3 0 1 2 8 0.00949718 1 0 0
360 2 9 2 0 1 2 8 0.00532187 1 0 0
410 2 9 3 0 1 2 8 0.0109157 1 0 0
361 2 10 2 0 1 2 8 0.00591642 1 0 0
362 2 11 2 0 1 2 8 0.00643158 1 0 0
411 2 10 3 0 1 2 8 0.0121652 1 0 0
412 2 11 3 0 1 2 8 0.0132771 1 0 0
363 2 12 2 0 1 2 8 0.00688851 1 0 0
364 2 13 2 0 1 2 8 0.00729712 1 0 0
413 2 12 3 0 1 2 8 0.0142843 1 0 0
414 2 13 3 0 1 2 8 0.0151997 1 0 0
365 2 14 2 0 1 2 8 0.00764671 1 0 0
415 2 14 3 0 1 2 8 0.0160036 1 0 0
366 2 15 2 0 1 2 8 0.00792314 1 0 0
367 2 16 2 0 1 2 8 0.00813995 1 0 0
416 2 15 3 0 1 2 8 0.0166617 1 0 0
417 2 16 3 0 1 2 8 0.0172009 1 0 0
368 2 17 2 0 1 2 8 0.00833294 1 0 0
369 2 18 2 0 1 2 8 0.00852018 1 0 0
418 2 17 3 0 1 2 8 0.0176965 1 0 0
419 2 18 3 0 1 2 8 0.0181809 1 0 0
370 2 19 2 0 1 2 8 0.00868272 1 0 0
420 2 19 3 0 1 2 8 0.0186081 1 0 0
371 2 20 2 0 1 2 8 0.00878894 1 0 0
372 2 21 2 0 1 2 8 0.00882771 1 0 0
421 2 20 3 0 1 2 8 0.0189132 1 0 0
422 2 21 3 0 1 2 8 0.0190887 1 0 0
373 2 22 2 0 1 2 8 0.00881238 1 0 0
374 2 23 2 0 1 2 8 0.008771 1 0 0
423 2 22 3 0 1 2 8 0.0191696 1 0 0
424 2 23 3 0 1 2 8 0.0191885 1 0 0
375 2 24 2 0 1 2 8 0.00874837 1 0 0
425 2 24 3 0 1 2 8 0.019219 1 0 0
376 2 25 2 0 1 2 8 0.00879182 1 0 0
377 2 26 2 0 1 2 8 0.00891325 1 0 0
426 2 25 3 0 1 2 8 0.0193627 1 0 0
427 2 26 3 0 1 2 8 0.0196435 1 0 0
378 2 27 2 0 1 2 8 0.00907647 1 0 0
379 2 28 2 0 1 2 8 0.00922775 1 0 0
428 2 27 3 0 1 2 8 0.0200017 1 0 0
429 2 28 3 0 1 2 8 0.0203196 1 0 0
380 2 29 2 0 1 2 8 0.00934456 1 0 0
430 2 29 3 0 1 2 8 0.0205538 1 0 0
381 2 30 2 0 1 2 8 0.00944087 1 0 0
382 2 31 2 0 1 2 8 0.0095273 1 0 0
431 2 30 3 0 1 2 8 0.0207563 1 0 0
432 2 31 3 0 1 2 8 0.0209531 1 0 0
383 2 32 2 0 1 2 8 0.00959093 1 0 0
384 2 33 2 0 1 2 8 0.00961664 1 0 0
433 2 32 3 0 1 2 8 0.0211122 1 0 0
434 2 33 3 0 1 2 8 0.0211902 1 0 0
385 2 34 2 0 1 2 8 0.00961477 1 0 0
435 2 34 3 0 1 2 8 0.0212042 1 0 0
386 2 35 2 0 1 2 8 0.00961303 1 0 0
387 2 36 2 0 1 2 8 0.00962235 1 0 0
436 2 35 3 0 1 2 8 0.0212268 1 0 0
437 2 36 3 0 1 2 8 0.0212794 1 0 0
388 2 37 2 0 1 2 8 0.00962691 1 0 0
389 2 38 2 0 1 2 8 0.00960269 1 0 0
438 2 37 3 0 1 2 8 0.0213192 1 0 0
439 2 38 3 0 1 2 8 0.0213008 1 0 0
390 2 39 2 0 1 2 8 0.00953409 1 0 0
440 2 39 3 0 1 2 8 0.0212042 1 0 0
391 2 40 2 0 1 2 8 0.00942205 1 0 0
392 2 41 2 0 1 2 8 0.00929525 1 0 0
441 2 40 3 0 1 2 8 0.0210254 1 0 0
442 2 41 3 0 1 2 8 0.0207968 1 0 0
393 2 42 2 0 1 2 8 0.00920965 1 0 0
394 2 43 2 0 1 2 8 0.00920997 1 0 0
443 2 42 3 0 1 2 8 0.0206377 1 0 0
444 2 43 3 0 1 2 8 0.020641 1 0 0
395 2 44 2 0 1 2 8 0.00929026 1 0 0
445 2 44 3 0 1 2 8 0.0208 1 0 0
396 2 45 2 0 1 2 8 0.0093909 1 0 0
397 2 46 2 0 1 2 8 0.00944194 1 0 0
446 2 45 3 0 1 2 8 0.020998 1 0 0
447 2 46 3 0 1 2 8 0.0210904 1 0 0
398 2 47 2 0 1 2 8 0.0094179 1 0 0
399 2 48 2 0 1 2 8 0.00934938 1 0 0
448 2 47 3 0 1 2 8 0.0210365 1 0 0
449 2 48 3 0 1 2 8 0.020905 1 0 0
400 2 49 2 0 1 2 8 0.00929439 1 0 0
450 2 49 3 0 1 2 8 0.0207969 1 0 0
451 2 0 4 0 1 2 8 0.000367097 1 0 0
452 2 1 4 0 1 2 8 0.000556712 1 0 0
453 2 2 4 0 1 2 8 0.00121761 1 0 0
454 2 3 4 0 1 2 8 0.00249899 1 0 0
455 2 4 4 0 1 2 7 0.00445126 1 0 0
456 2 5 4 0 1 2 6 0.00745858 1 0 0
457 2 6 4 0 1 2 5 0.0104906 1 0 0
506 1 5.49443 4.86882 0 1.0006 2 0 0.0121424 1 -0.00564243 -0.00420713
507 1 6.49271 4.86894 0 1.02569 2 0 0.0149374 1 0.00102391 -0.00211974
458 2 7 4 0 1 2 5 0.0131112 1 0 0
459 2 8 4 0 1 2 5 0.0155856 1 0 0
508 1 7.49207 4.86749 0 1.03193 2 0 0.0177666 1 0.000781008 -0.000777054
460 2 9 4 0 1 2 5 0.0178662 1 0 0
510 1 8.49639 4.86306 0 1.01036 2 0 0.0204897 1 0.00192794 0.00595583
511 1 9.49833 4.86197 0 1.00136 2 0 0.0230413 1 -0.00195095 0.00712364
461 2 10 4 0 1 2 5 0.0199369 1 0 0
462 2 11 4 0 1 2 5 0.021849 1 0 0
512 1 10.4974 4.86311 0 1.01573 2 0 0.0254831 1 0.00235927 -1.59977e-05
513 1 11.4982 4.86263 0 1.01534 2 0 0.0278137 1 -0.00253446 0.00391328
463 2 12 4 0 1 2 5 0.0236224 1 0 0
464 2 13 4 0 1 2 5 0.0252576 1 0 0
514 1 12.4977 4.86414 0 1.01802 2 0 0.0299977 1 0.000441486 -0.0017592
465 2 14 4 0 1 2 5 0.0267408 1 0 0
515 1 13.4982 4.8643 0 1.02031 2 0 0.0320447 1 5.89907e-05 -0.00371571
516 1 14.4991 4.86389 0 1.0096 2 0 0.0339342 1 -0.00196476 -0.00249219
466 2 15 4 0 1 2 5 0.0280158 1 0 0
467 2 16 4 0 1 2 5 0.0291186 1 0 0
518 1 16.4998 4.86393 0 1.02515 2 0 0.0372753 1 -0.00266626 -0.00613456
517 1 15.499 4.86242 0 1.02614 2 0 0.0356583 1 -0.00183787 0.00527284
468 2 17 4 0 1 2 5 0.0301589 1 0 0
469 2 18 4 0 1 2 5 0.0311631 1 0 0
519 1 17.4999 4.86191 0 1.0239 2 0 0.0387902 1 -0.00431453 0.00477555
470 2 19 4 0 1 2 5 0.0320569 1 0 0
520 1 18.4988 4.86397 0 1.00577 2 0 0.0401802 1 0.00223862 -0.00517574
521 1 19.5004 4.86341 0 1.00453 2 0 0.0414162 1 0.000905788 0.0010577
471 2 20 4 0 1 2 5 0.0327486 1 0 0
472 2 21 4 0 1 2 5 0.0332621 1 0 0
523 1 21.5019 4.86404 0 1.02268 2 0 0.0434832 1 -0.00348691 -0.00493401
522 1 20.5012 4.86344 0 1.0139 2 0 0.0424914 1 -0.000216707 -0.0027529
473 2 22 4 0 1 2 5 0.0336751 1 0 0
474 2 23 4 0 1 2 5 0.0339759 1 0 0
524 1 22.5007 4.86289 0 1.01383 2 0 0.0443871 1 0.00337908 -0.00116573
475 2 24 4 0 1 2 5 0.0342388 1 0 0
525 1 23.5017 4.8626 0 1.03669 2 0 0.0451954 1 -0.00134374 -0.0018107
526 1 24.5013 4.86202 0 1.04245 2 0 0.0459766 1 0.000388503 0.00122068
476 2 25 4 0 1 2 5 0.0346258 1 0 0
477 2 26 4 0 1 2 5 0.0351599 1 0 0
528 1 26.5016 4.86359 0 1.04147 2 0 0.0475724 1 -0.000182871 -0.00353838
527 1 25.5022 4.86311 0 1.03798 2 0 0.0467721 1 -0.00103985 -0.0034977
478 2 27 4 0 1 2 5 0.0357956 1 0 0
479 2 28 4 0 1 2 5 0.0363453 1 0 0
529 1 27.5005 4.8631 0 1.0019 2 0 0.0483276 1 0.00321207 -0.00149338
480 2 29 4 0 1 2 5 0.0367549 1 0 0
531 1 29.501 4.86295 0 1.01679 2 0 0.0496417 1 0.00258894 8.20805e-05
530 1 28.5021 4.86229 0 1.02091 2 0 0.0490163 1 -0.00287384 0.00361435
481 2 30 4 0 1 2 5 0.0371355 1 0 0
482 2 31 4 0 1 2 5 0.0375231 1 0 0
533 1 31.5022 4.862 0 1.004 2 0 0.0507631 1 -0.00255579 0.00132811
532 1 30.5019 4.86254 0 1.0182 2 0 0.0502214 1 -0.00019944 -0.000239475
483 2 32 4 0 1 2 5 0.0378632 1 0 0
484 2 33 4 0 1 2 5 0.0380682 1 0 0
534 1 32.5015 4.86237 0 1.00171 2 0 0.0512173 1 0.00220668 -8.83187e-06
485 2 34 4 0 1 2 5 0.0381486 1 0 0
535 1 33.5026 4.86226 0 1.00275 2 0 0.0515584 1 -0.00336688 -0.00128772
536 1 34.5017 4.86165 0 1.0237 2 0 0.0518351 1 0.00258276 0.000549227
486 2 35 4 0 1 2 5 0.0382572 1 0 0
487 2 36 4 0 1 2 5 0.0384247 1 0 0
538 1 36.5019 4.86231 0 1.01227 2 0 0.0524119 1 -3.38861e-06 -0.0027907
537 1 35.5027 4.86123 0 1.0067 2 0 0.0521301 1 -0.00217162 0.00257654
488 2 37 4 0 1 2 5 0.0385559 1 0 0
489 2 38 4 0 1 2 5 0.038594 1 0 0
539 1 37.5016 4.86163 0 1.00174 2 0 0.0526115 1 -0.000777424 -1.91029e-05
490 2 39 4 0 1 2 5 0.0385433 1 0 0
541 1 39.5022 4.86178 0 1.00168 2 0 0.0528083 1 0.00115069 -0.000303222
540 1 38.5012 4.86213 0 1.01715 2 0 0.0527463 1 0.00276545 -0.000666525
491 2 40 4 0 1 2 5 0.0383897 1 0 0
492 2 41 4 0 1 2 5 0.0381218 1 0 0
542 1 40.5037 4.8619 0 1.01016 2 0 0.0528153 1 -0.00204103 -2.38801e-06
543 1 41.5031 4.86279 0 1.03252 2 0 0.052826 1 -2.88309e-05 -0.00230616
493 2 42 4 0 1 2 5 0.0379373 1 0 0
494 2 43 4 0 1 2 5 0.0379672 1 0 0
544 1 42.5027 4.86279 0 1.0319 2 0 0.0529151 1 -7.25926e-05 -0.000650094
495 2 44 4 0 1 2 5 0.038201 1 0 0
545 1 43.5023 4.86272 0 1.03659 2 0 0.053062 1 -0.000907938 0.000163345
546 1 44.5015 4.86296 0 1.01001 2 0 0.0532378 1 0.00145142 -0.00148791
496 2 45 4 0 1 2 5 0.0384908 1 0 0
497 2 46 4 0 1 2 5 0.0386196 1 0 0
548 1 46.5007 4.86316 0 1.00807 2 0 0.0535371 1 0.00262196 -0.00181563
547 1 45.5012 4.86279 0 1.00173 2 0 0.0534185 1 0.000742786 -0.000314635
498 2 47 4 0 1 2 5 0.0385521 1 0 0
499 2 48 4 0 1 2 5 0.0383985 1 0 0
549 1 47.501 4.86339 0 1.02093 2 0 0.0535783 1 -0.000535093 -0.00162525
500 2 49 4 0 1 2 5 0.0382706 1 0 0
550 1 48.501 4.86259 0 1.02225 2 0 0.0536381 1 -0.00168334 0.000506285
8501 1 49.5003 4.86227 0 1.06187 2 0 0.0537344 1 0.00155604 0.000694301
501 2 0 5 0 1 2 8 0.000577222 1 0 0
502 2 1 5 0 1 2 8 0.000882854 1 0 0
551 2 0 6 0 1 2 8 0.00082184 1 0 0
552 2 1 6 0 1 2 8 0.00126588 1 0 0
503 2 2 5 0 1 2 8 0.00193739 1 0 0
504 2 3 5 0 1 2 8 0.00394068 1 0 0
553 2 2 6 0 1 2 8 0.00278122 1 0 0
554 2 3 6 0 1 2 8 0.00560613 1 0 0
505 2 4 5 0 1 2 6 0.00689203 1 0 0
555 2 4 6 0 1 2 5 0.00949959 1 0 0
556 1 4.96488 5.72033 0 1.02426 2 0 0.0129196 1 -0.000772315 -7.18404e-05
557 1 5.9641 5.74859 0 1.00456 2 0 0.0164003 1 0.00229295 0.00255483
558 1 6.98002 5.73961 0 1.00032 2 0 0.019538 1 -0.00217868 -0.00345749
509 1 7.99389 5.72886 0 1.00999 2 0 0.0227272 1 0.000535224 0.000835957
560 1 8.99718 5.72673 0 1.01571 2 0 0.0257286 1 -0.0024264 0.00150712
561 1 9.99603 5.72659 0 1.04128 2 0 0.0286566 1 -0.00125347 0.00337612
562 1 10.9948 5.72664 0 1.02468 2 0 0.0314864 1 0.002622 0.00366074
563 1 11.9938 5.72705 0 1.00884 2 0 0.0341783 1 0.00238528 -0.00100795
565 1 12.996 5.72713 0 1.01555 2 0 0.0367616 1 0.000119591 0.00111117
566 1 13.9969 5.72715 0 1.01485 2 0 0.0392054 1 -0.00275837 0.000902095
567 1 14.9963 5.72712 0 1.00349 2 0 0.0414903 1 0.00163161 -0.000238292
568 1 15.997 5.72588 0 1.02492 2 0 0.043666 1 -0.00169038 0.00080346
569 1 17.997 5.72579 0 1.01386 2 0 0.0475873 1 -0.00144888 -0.00236617
618 1 16.9976 5.7254 0 1.00786 2 0 0.0457033 1 -0.000633353 9.53386e-05
570 1 18.9989 5.72554 0 1.00562 2 0 0.0493168 1 3.81272e-05 0.000400981
571 1 20.003 5.72645 0 1.00943 2 0 0.050906 1 -0.00501424 -0.00448161
572 1 21.002 5.72602 0 1.02492 2 0 0.0524198 1 0.001264 -0.00232743
573 1 22.0035 5.72603 0 1.00977 2 0 0.0538218 1 0.00100862 -0.0024764
574 1 23.0033 5.7249 0 1.00488 2 0 0.0551167 1 -0.000485039 -0.00159993
575 1 24.0027 5.72464 0 1.01237 2 0 0.0563482 1 0.0029844 0.00210708
576 1 25.003 5.72406 0 1.01087 2 0 0.0574954 1 0.00141835 0.00244373
577 1 26.0035 5.72583 0 1.01133 2 0 0.0585687 1 0.000695835 -0.00204177
579 1 27.0031 5.72639 0 1.01129 2 0 0.0595517 1 0.000229367 -0.00095768
580 1 28.0026 5.72537 0 1.02117 2 0 0.0604984 1 0.00266593 -0.000549296
581 1 29.0028 5.72612 0 1.01861 2 0 0.0613789 1 -0.00126877 -0.0028035
632 1 30.0038 5.72516 0 1.0167 2 0 0.0621421 1 -0.00291271 -0.000513671
582 1 31.004 5.72478 0 1.0143 2 0 0.06285 1 -0.00270152 0.000697011
583 1 32.0033 5.72452 0 1.0088 2 0 0.0634888 1 -0.00118297 0.00124408
584 1 33.0042 5.72445 0 1.00514 2 0 0.064061 1 -0.00273027 -0.00225686
585 1 34.0044 5.72361 0 1.02197 2 0 0.0645949 1 -0.00161734 0.00172124
586 1 35.0046 5.72328 0 1.02669 2 0 0.065055 1 -0.00249896 0.00243034
587 1 36.0036 5.72403 0 1.01702 2 0 0.0654738 1 0.00116874 -0.000845314
588 1 37.0032 5.72355 0 1.01798 2 0 0.065815 1 -0.000115364 -0.000407598
589 1 38.0028 5.72325 0 1.01656 2 0 0.066081 1 0.00150928 0.00146001
590 1 39.0054 5.72334 0 1.01208 2 0 0.0662873 1 -0.000569696 -0.000960591
591 1 40.0058 5.72335 0 1.01334 2 0 0.0664869 1 -0.000597083 -8.9641e-05
592 1 41.0053 5.72456 0 1.02633 2 0 0.0667534 1 0.00136407 -2.06929e-05
594 1 43.0046 5.72577 0 1.01497 2 0 0.067147 1 0.000545606 -0.00127431
593 1 42.0051 5.72525 0 1.02837 2 0 0.0669902 1 0.000697448 -0.000677321
595 1 44.004 5.7256 0 1.01694 2 0 0.0672402 1 0.000214099 0.000192616
596 1 45.0035 5.72554 0 1.01116 2 0 0.0673618 1 0.000432949 0.000497264
597 1 46.0031 5.72568 0 1.01212 2 0 0.0675709 1 -0.00186326 0.00159011
598 1 47.002 5.72644 0 1.00861 2 0 0.0677684 1 0.00221358 -0.00243202
599 1 48.0023 5.72585 0 1.02545 2 0 0.0679567 1 -0.00113287 -0.000571006
600 1 49.0017 5.72528 0 1.00476 2 0 0.0681556 1 -0.000278462 -0.000327983
601 2 0 7 0 1 2 8 0.00107739 1 0 0
602 2 1 7 0 1 2 8 0.00167061 1 0 0
651 2 0 8 0 1 2 8 0.00132144 1 0 0
652 2 1 8 0 1 2 8 0.00206337 1 0 0
603 2 2 7 0 1 2 8 0.00367777 1 0 0
604 2 3 7 0 1 2 8 0.00738525 1 0 0
653 2 2 8 0 1 2 8 0.00455837 1 0 0
654 2 3 8 0 1 2 8 0.00917081 1 0 0
605 2 4 7 0 1 2 5 0.0122741 1 0 0
655 2 4 8 0 1 2 5 0.0149598 1 0 0
656 1 4.86853 7.4985 0 1.01253 2 0 0.0172733 1 0 -5e-05
606 1 5.38647 6.63788 0 1.01839 2 0 0.0172038 1 0 -5e-05
607 1 6.38813 6.65291 0 1.01626 2 0 0.0208476 1 -0.00187949 -0.00185787
657 1 5.87179 7.53146 0 1.02523 2 0 0.0216775 1 0 -5e-05
608 1 7.49016 6.59471 0 1.01581 2 0 0.0246271 1 0.000991305 0.00142793
609 1 7.98885 7.45756 0 1.00447 2 0 0.0298611 1 0.00251029 0.00306726
658 1 6.97499 7.45956 0 1.00499 2 0 0.025979 1 -7.07434e-05 -0.00110728
559 1 8.49323 6.59226 0 1.01669 2 0 0.0280399 1 0.000808978 0.00136274
610 1 9.49504 6.59253 0 1.00382 2 0 0.0314178 1 -0.00213501 -0.00650592
661 1 8.99467 7.45539 0 1.00906 2 0 0.0336731 1 -0.00047521 0.000311339
612 1 9.99274 7.45707 0 1.00002 2 0 0.0374154 1 0.00635903 -0.00111389
611 1 10.4933 6.59203 0 1.00368 2 0 0.0347156 1 0.00335134 -0.00234579
564 1 11.4938 6.5916 0 1.01095 2 0 0.0379106 1 -0.00411311 -0.00186289
613 1 10.9922 7.45566 0 1.00877 2 0 0.0411132 1 0.00210104 0.000925215
614 1 12.4927 6.5896 0 1.01882 2 0 0.0410082 1 0.00257113 0.00524049
665 1 12.9906 7.45462 0 1.00809 2 0 0.0482565 1 0.00311956 0.00229025
664 1 11.9921 7.45535 0 1.0022 2 0 0.0447344 1 -0.00010627 0.00113621
615 1 13.4936 6.591 0 1.00601 2 0 0.0440006 1 -0.000148228 0.000552498
616 1 14.4929 6.59091 0 1.00878 2 0 0.0468253 1 0.000588071 -0.000220004
666 1 13.9908 7.45583 0 0.997531 2 0 0.0516376 1 -0.000845585 -0.00263575
667 1 14.9909 7.45317 0 1.00922 2 0 0.0548874 1 -0.000678688 -0.00122563
617 1 15.4951 6.58958 0 1.01132 2 0 0.0495318 1 -0.00216144 -0.000217087
668 1 15.9911 7.45232 0 1.01232 2 0 0.0580144 1 0.00304306 -0.000421595
619 1 16.4952 6.58863 0 1.00791 2 0 0.0521164 1 -0.00363186 0.000796832
669 1 17.4943 6.58783 0 1.0115 2 0 0.0545443 1 -0.000148978 0.000312309
719 1 16.9921 7.45128 0 1.0104 2 0 0.0609948 1 0.0039294 -0.00221589
720 1 17.9925 7.44854 0 1.00384 2 0 0.0638201 1 0.00224275 -0.00138393
620 1 18.4954 6.58663 0 1.00047 2 0 0.056818 1 0.000327133 0.00216398
621 1 19.4997 6.58683 0 1.01086 2 0 0.0589433 1 -0.000242062 -0.00246826
670 1 18.9968 7.44672 0 1.01205 2 0 0.0665039 1 0.00396917 0.00237758
671 1 20.0003 7.44735 0 1.01101 2 0 0.0690531 1 0.00232139 0.0017384
622 1 20.5026 6.58793 0 1.02282 2 0 0.0609726 1 0.00026126 -0.00177506
623 1 21.5044 6.58655 0 1.01715 2 0 0.0628531 1 -0.000569166 0.00264514
672 1 21.0044 7.44773 0 1.01032 2 0 0.0714228 1 0.00125943 0.000216026
673 1 22.0048 7.44884 0 1.00705 2 0 0.0736082 1 0.00196969 -0.000251857
624 1 22.5062 6.58726 0 1.00933 2 0 0.0645654 1 -0.00543707 0.000924378
674 1 23.0048 7.44985 0 1.01197 2 0 0.075659 1 0.000743703 -0.000192377
625 1 23.5046 6.58729 0 1.01358 2 0 0.0661926 1 0.000992246 -0.000835974
626 1 24.5067 6.58669 0 1.01095 2 0 0.067727 1 -0.00283617 0.00200847
675 1 24.0059 7.44829 0 1.00974 2 0 0.0776072 1 0.00230676 0.00378847
676 1 25.0073 7.45054 0 1.01754 2 0 0.0794081 1 0.000117055 -0.00363443
578 1 26.5049 6.58857 0 1.0136 2 0 0.0704715 1 0.00215343 -0.000684111
628 1 26.0072 7.45086 0 1.00647 2 0 0.0810722 1 -0.00526229 0.000908971
627 1 25.5061 6.58699 0 1.0116 2 0 0.0691491 1 -0.00383294 0.0044321
629 1 27.5056 6.58872 0 1.00585 2 0 0.0717202 1 -0.00302144 0.000290921
679 1 28.006 7.45222 0 1.01276 2 0 0.0841101 1 0.000924301 -0.00170181
678 1 27.0064 7.45102 0 1.01987 2 0 0.08264 1 0.000104459 0.0005515
630 1 28.5041 6.58879 0 1.00031 2 0 0.0729116 1 0.00165011 -0.000345725
631 1 29.5038 6.58818 0 1.01679 2 0 0.0739715 1 0.00150454 -0.000414975
680 1 29.006 7.45145 0 1.0041 2 0 0.0854752 1 -0.000484264 -0.000113146
681 1 30.0049 7.45092 0 1.0067 2 0 0.0867162 1 0.00307104 0.00216673
682 1 30.5035 6.58732 0 1.0233 2 0 0.0748913 1 0.00251511 0.00316053
633 1 31.5038 6.5878 0 1.00197 2 0 0.0757182 1 0.000928347 -0.000613958
732 1 31.0049 7.45071 0 1.02086 2 0 0.0877899 1 0.00103068 -0.00104632
683 1 32.0063 7.44958 0 1.00602 2 0 0.088737 1 -0.00257853 0.000181662
684 1 32.5038 6.58632 0 1.01173 2 0 0.0764788 1 0.000495813 -4.01332e-06
734 1 33.0054 7.44785 0 1.01306 2 0 0.0896241 1 0.000644096 0.00182531
634 1 33.5045 6.58561 0 1.00318 2 0 0.0772046 1 0.00116051 0.00135599
635 1 34.5048 6.58544 0 1.01335 2 0 0.077881 1 0.00284418 0.000807141
685 1 34.0063 7.44704 0 1.01182 2 0 0.0904474 1 -0.000676637 0.000897665
686 1 35.0082 7.44744 0 1.01566 2 0 0.0911926 1 -0.00220363 0.000979212
636 1 35.5063 6.58619 0 1.01343 2 0 0.0784561 1 -0.00138015 -0.00152699