ITEM: TIMESTEP
12000
ITEM: NUMBER OF ATOMS
15950
ITEM: BOX BOUNDS pp pp pp
0.0000000000000000e+00 1.0000000000000000e+02
-5.0000000000000000e+00 2.0000000000000000e+02
-5.0000000000000000e-01 5.0000000000000000e-01
ITEM: ATOMS id type x y z c_rho c_phase c_nbond c_temp f_rheo_chi_chi fx fy
1 2 0 -5 0 1 2 8 3.89747e-12 1 0 0
2 2 1 -5 0 1 2 8 6.67079e-12 1 0 0
51 2 0 -4 0 1 2 8 3.59192e-11 1 0 0
52 2 1 -4 0 1 2 8 6.46046e-11 1 0 0
3 2 2 -5 0 1 2 8 1.65132e-11 1 0 0
4 2 3 -5 0 1 2 8 3.68231e-11 1 0 0
53 2 2 -4 0 1 2 8 1.69878e-10 1 0 0
54 2 3 -4 0 1 2 8 3.95427e-10 1 0 0
5 2 4 -5 0 1 2 7 7.0621e-11 1 0 0
55 2 4 -4 0 1 2 8 7.74082e-10 1 0 0
6 2 5 -5 0 1 2 6 1.18147e-10 1 0 0
7 2 6 -5 0 1 2 5 1.69959e-10 1 0 0
56 2 5 -4 0 1 2 8 1.28706e-09 1 0 0
57 2 6 -4 0 1 2 8 1.85333e-09 1 0 0
8 2 7 -5 0 1 2 5 2.16363e-10 1 0 0
9 2 8 -5 0 1 2 5 2.52468e-10 1 0 0
58 2 7 -4 0 1 2 8 2.37424e-09 1 0 0
59 2 8 -4 0 1 2 8 2.78055e-09 1 0 0
10 2 9 -5 0 1 2 5 2.76625e-10 1 0 0
60 2 9 -4 0 1 2 8 3.05181e-09 1 0 0
11 2 10 -5 0 1 2 5 2.90795e-10 1 0 0
12 2 11 -5 0 1 2 5 2.99155e-10 1 0 0
61 2 10 -4 0 1 2 8 3.20961e-09 1 0 0
62 2 11 -4 0 1 2 8 3.30069e-09 1 0 0
13 2 12 -5 0 1 2 5 3.06517e-10 1 0 0
14 2 13 -5 0 1 2 5 3.15819e-10 1 0 0
63 2 12 -4 0 1 2 8 3.38148e-09 1 0 0
64 2 13 -4 0 1 2 8 3.48816e-09 1 0 0
15 2 14 -5 0 1 2 5 3.25986e-10 1 0 0
65 2 14 -4 0 1 2 8 3.60598e-09 1 0 0
16 2 15 -5 0 1 2 5 3.33746e-10 1 0 0
17 2 16 -5 0 1 2 5 3.3786e-10 1 0 0
66 2 15 -4 0 1 2 8 3.69219e-09 1 0 0
67 2 16 -4 0 1 2 8 3.73328e-09 1 0 0
18 2 17 -5 0 1 2 5 3.40014e-10 1 0 0
19 2 18 -5 0 1 2 5 3.41682e-10 1 0 0
68 2 17 -4 0 1 2 8 3.75462e-09 1 0 0
69 2 18 -4 0 1 2 8 3.77657e-09 1 0 0
20 2 19 -5 0 1 2 5 3.41738e-10 1 0 0
70 2 19 -4 0 1 2 8 3.78391e-09 1 0 0
21 2 20 -5 0 1 2 5 3.37704e-10 1 0 0
22 2 21 -5 0 1 2 5 3.2877e-10 1 0 0
71 2 20 -4 0 1 2 8 3.74343e-09 1 0 0
72 2 21 -4 0 1 2 8 3.64312e-09 1 0 0
23 2 22 -5 0 1 2 5 3.1707e-10 1 0 0
24 2 23 -5 0 1 2 5 3.06336e-10 1 0 0
73 2 22 -4 0 1 2 8 3.50779e-09 1 0 0
74 2 23 -4 0 1 2 8 3.38158e-09 1 0 0
25 2 24 -5 0 1 2 5 2.9989e-10 1 0 0
75 2 24 -4 0 1 2 8 3.30476e-09 1 0 0
26 2 25 -5 0 1 2 5 2.9943e-10 1 0 0
27 2 26 -5 0 1 2 5 3.04511e-10 1 0 0
76 2 25 -4 0 1 2 8 3.29981e-09 1 0 0
77 2 26 -4 0 1 2 8 3.36211e-09 1 0 0
28 2 27 -5 0 1 2 5 3.13028e-10 1 0 0
29 2 28 -5 0 1 2 5 3.22879e-10 1 0 0
78 2 27 -4 0 1 2 8 3.46349e-09 1 0 0
79 2 28 -4 0 1 2 8 3.57546e-09 1 0 0
30 2 29 -5 0 1 2 5 3.33192e-10 1 0 0
80 2 29 -4 0 1 2 8 3.68877e-09 1 0 0
31 2 30 -5 0 1 2 5 3.43487e-10 1 0 0
32 2 31 -5 0 1 2 5 3.52033e-10 1 0 0
81 2 30 -4 0 1 2 8 3.80253e-09 1 0 0
82 2 31 -4 0 1 2 8 3.89919e-09 1 0 0
33 2 32 -5 0 1 2 5 3.56283e-10 1 0 0
34 2 33 -5 0 1 2 5 3.55393e-10 1 0 0
83 2 32 -4 0 1 2 8 3.94731e-09 1 0 0
84 2 33 -4 0 1 2 8 3.93479e-09 1 0 0
35 2 34 -5 0 1 2 5 3.51539e-10 1 0 0
85 2 34 -4 0 1 2 8 3.88824e-09 1 0 0
36 2 35 -5 0 1 2 5 3.47877e-10 1 0 0
37 2 36 -5 0 1 2 5 3.45578e-10 1 0 0
86 2 35 -4 0 1 2 8 3.84711e-09 1 0 0
87 2 36 -4 0 1 2 8 3.82477e-09 1 0 0
38 2 37 -5 0 1 2 5 3.43532e-10 1 0 0
39 2 38 -5 0 1 2 5 3.40238e-10 1 0 0
88 2 37 -4 0 1 2 8 3.80556e-09 1 0 0
89 2 38 -4 0 1 2 8 3.77016e-09 1 0 0
40 2 39 -5 0 1 2 5 3.3518e-10 1 0 0
90 2 39 -4 0 1 2 8 3.71179e-09 1 0 0
41 2 40 -5 0 1 2 5 3.29022e-10 1 0 0
42 2 41 -5 0 1 2 5 3.23514e-10 1 0 0
91 2 40 -4 0 1 2 8 3.63765e-09 1 0 0
92 2 41 -4 0 1 2 8 3.56851e-09 1 0 0
43 2 42 -5 0 1 2 5 3.21183e-10 1 0 0
44 2 43 -5 0 1 2 5 3.24039e-10 1 0 0
93 2 42 -4 0 1 2 8 3.53624e-09 1 0 0
94 2 43 -4 0 1 2 8 3.56763e-09 1 0 0
45 2 44 -5 0 1 2 5 3.31476e-10 1 0 0
95 2 44 -4 0 1 2 8 3.65717e-09 1 0 0
46 2 45 -5 0 1 2 5 3.39447e-10 1 0 0
47 2 46 -5 0 1 2 5 3.42878e-10 1 0 0
96 2 45 -4 0 1 2 8 3.75497e-09 1 0 0
97 2 46 -4 0 1 2 8 3.79728e-09 1 0 0
48 2 47 -5 0 1 2 5 3.39736e-10 1 0 0
49 2 48 -5 0 1 2 5 3.32542e-10 1 0 0
98 2 47 -4 0 1 2 8 3.75909e-09 1 0 0
99 2 48 -4 0 1 2 8 3.6728e-09 1 0 0
50 2 49 -5 0 1 2 5 3.26009e-10 1 0 0
100 2 49 -4 0 1 2 8 3.5968e-09 1 0 0
101 2 0 -3 0 1 2 8 2.9943e-10 1 0 0
102 2 1 -3 0 1 2 8 5.70065e-10 1 0 0
151 2 0 -2 0 1 2 8 2.22445e-09 1 0 0
152 2 1 -2 0 1 2 8 4.51934e-09 1 0 0
103 2 2 -3 0 1 2 8 1.6039e-09 1 0 0
104 2 3 -3 0 1 2 8 3.9241e-09 1 0 0
153 2 2 -2 0 1 2 8 1.37185e-08 1 0 0
154 2 3 -2 0 1 2 8 3.55397e-08 1 0 0
105 2 4 -3 0 1 2 8 7.95789e-09 1 0 0
155 2 4 -2 0 1 2 8 7.51237e-08 1 0 0
106 2 5 -3 0 1 2 8 1.35234e-08 1 0 0
107 2 6 -3 0 1 2 8 1.97309e-08 1 0 0
156 2 5 -2 0 1 2 8 1.31105e-07 1 0 0
157 2 6 -2 0 1 2 8 1.94181e-07 1 0 0
108 2 7 -3 0 1 2 8 2.54644e-08 1 0 0
109 2 8 -3 0 1 2 8 2.99364e-08 1 0 0
158 2 7 -2 0 1 2 8 2.52619e-07 1 0 0
159 2 8 -2 0 1 2 8 2.98231e-07 1 0 0
110 2 9 -3 0 1 2 8 3.29165e-08 1 0 0
160 2 9 -2 0 1 2 8 3.28639e-07 1 0 0
111 2 10 -3 0 1 2 8 3.46399e-08 1 0 0
112 2 11 -3 0 1 2 8 3.56125e-08 1 0 0
161 2 10 -2 0 1 2 8 3.46226e-07 1 0 0
162 2 11 -2 0 1 2 8 3.55974e-07 1 0 0
113 2 12 -3 0 1 2 8 3.64788e-08 1 0 0
114 2 13 -3 0 1 2 8 3.76827e-08 1 0 0
163 2 12 -2 0 1 2 8 3.64635e-07 1 0 0
164 2 13 -2 0 1 2 8 3.77325e-07 1 0 0
115 2 14 -3 0 1 2 8 3.90261e-08 1 0 0
165 2 14 -2 0 1 2 8 3.91594e-07 1 0 0
116 2 15 -3 0 1 2 8 3.99555e-08 1 0 0
117 2 16 -3 0 1 2 8 4.03322e-08 1 0 0
166 2 15 -2 0 1 2 8 4.00762e-07 1 0 0
167 2 16 -2 0 1 2 8 4.03618e-07 1 0 0
118 2 17 -3 0 1 2 8 4.0526e-08 1 0 0
119 2 18 -3 0 1 2 8 4.08092e-08 1 0 0
168 2 17 -2 0 1 2 8 4.05089e-07 1 0 0
169 2 18 -2 0 1 2 8 4.08487e-07 1 0 0
120 2 19 -3 0 1 2 8 4.09778e-08 1 0 0
170 2 19 -2 0 1 2 8 4.11267e-07 1 0 0
121 2 20 -3 0 1 2 8 4.05978e-08 1 0 0
122 2 21 -3 0 1 2 8 3.95019e-08 1 0 0
171 2 20 -2 0 1 2 8 4.08201e-07 1 0 0
172 2 21 -2 0 1 2 8 3.97212e-07 1 0 0
123 2 22 -3 0 1 2 8 3.79738e-08 1 0 0
124 2 23 -3 0 1 2 8 3.652e-08 1 0 0
173 2 22 -2 0 1 2 8 3.81312e-07 1 0 0
174 2 23 -2 0 1 2 8 3.65794e-07 1 0 0
125 2 24 -3 0 1 2 8 3.56152e-08 1 0 0
175 2 24 -2 0 1 2 8 3.558e-07 1 0 0
126 2 25 -3 0 1 2 8 3.55578e-08 1 0 0
127 2 26 -3 0 1 2 8 3.63093e-08 1 0 0
176 2 25 -2 0 1 2 8 3.55096e-07 1 0 0
177 2 26 -2 0 1 2 8 3.63553e-07 1 0 0
128 2 27 -3 0 1 2 8 3.74984e-08 1 0 0
129 2 28 -3 0 1 2 8 3.87421e-08 1 0 0
178 2 27 -2 0 1 2 8 3.76601e-07 1 0 0
179 2 28 -2 0 1 2 8 3.89392e-07 1 0 0
130 2 29 -3 0 1 2 8 3.99456e-08 1 0 0
180 2 29 -2 0 1 2 8 4.01027e-07 1 0 0
131 2 30 -3 0 1 2 8 4.11651e-08 1 0 0
132 2 31 -3 0 1 2 8 4.22365e-08 1 0 0
181 2 30 -2 0 1 2 8 4.12966e-07 1 0 0
182 2 31 -2 0 1 2 8 4.23962e-07 1 0 0
133 2 32 -3 0 1 2 8 4.2775e-08 1 0 0
134 2 33 -3 0 1 2 8 4.26072e-08 1 0 0
183 2 32 -2 0 1 2 8 4.29608e-07 1 0 0
184 2 33 -2 0 1 2 8 4.27584e-07 1 0 0
135 2 34 -3 0 1 2 8 4.2052e-08 1 0 0
185 2 34 -2 0 1 2 8 4.21421e-07 1 0 0
136 2 35 -3 0 1 2 8 4.15987e-08 1 0 0
137 2 36 -3 0 1 2 8 4.13962e-08 1 0 0
186 2 35 -2 0 1 2 8 4.16784e-07 1 0 0
187 2 36 -2 0 1 2 8 4.15214e-07 1 0 0
138 2 37 -3 0 1 2 8 4.1232e-08 1 0 0
139 2 38 -3 0 1 2 8 4.08651e-08 1 0 0
188 2 37 -2 0 1 2 8 4.14078e-07 1 0 0
189 2 38 -2 0 1 2 8 4.10622e-07 1 0 0
140 2 39 -3 0 1 2 8 4.02084e-08 1 0 0
190 2 39 -2 0 1 2 8 4.03809e-07 1 0 0
141 2 40 -3 0 1 2 8 3.93339e-08 1 0 0
142 2 41 -3 0 1 2 8 3.84818e-08 1 0 0
191 2 40 -2 0 1 2 8 3.94231e-07 1 0 0
192 2 41 -2 0 1 2 8 3.84438e-07 1 0 0
143 2 42 -3 0 1 2 8 3.80468e-08 1 0 0
144 2 43 -3 0 1 2 8 3.83808e-08 1 0 0
193 2 42 -2 0 1 2 8 3.79016e-07 1 0 0
194 2 43 -2 0 1 2 8 3.82252e-07 1 0 0
145 2 44 -3 0 1 2 8 3.9442e-08 1 0 0
195 2 44 -2 0 1 2 8 3.93963e-07 1 0 0
146 2 45 -3 0 1 2 8 4.06247e-08 1 0 0
147 2 46 -3 0 1 2 8 4.1138e-08 1 0 0
196 2 45 -2 0 1 2 8 4.07288e-07 1 0 0
197 2 46 -2 0 1 2 8 4.13087e-07 1 0 0
148 2 47 -3 0 1 2 8 4.06801e-08 1 0 0
149 2 48 -3 0 1 2 8 3.96608e-08 1 0 0
198 2 47 -2 0 1 2 8 4.07985e-07 1 0 0
199 2 48 -2 0 1 2 8 3.96799e-07 1 0 0
150 2 49 -3 0 1 2 8 3.87893e-08 1 0 0
200 2 49 -2 0 1 2 8 3.87495e-07 1 0 0
201 2 0 -1 0 1 2 8 1.44605e-08 1 0 0
202 2 1 -1 0 1 2 8 3.16231e-08 1 0 0
203 2 2 -1 0 1 2 8 1.04544e-07 1 0 0
204 2 3 -1 0 1 2 8 2.89406e-07 1 0 0
205 2 4 -1 0 1 2 8 6.42261e-07 1 0 0
206 2 5 -1 0 1 2 8 1.15593e-06 1 0 0
207 2 6 -1 0 1 2 8 1.74073e-06 1 0 0
208 2 7 -1 0 1 2 8 2.28406e-06 1 0 0
209 2 8 -1 0 1 2 8 2.70893e-06 1 0 0
210 2 9 -1 0 1 2 8 2.99304e-06 1 0 0
211 2 10 -1 0 1 2 8 3.15893e-06 1 0 0
212 2 11 -1 0 1 2 8 3.25022e-06 1 0 0
213 2 12 -1 0 1 2 8 3.33009e-06 1 0 0
214 2 13 -1 0 1 2 8 3.4535e-06 1 0 0
215 2 14 -1 0 1 2 8 3.59293e-06 1 0 0
216 2 15 -1 0 1 2 8 3.67409e-06 1 0 0
217 2 16 -1 0 1 2 8 3.6891e-06 1 0 0
218 2 17 -1 0 1 2 8 3.69733e-06 1 0 0
219 2 18 -1 0 1 2 8 3.73478e-06 1 0 0
220 2 19 -1 0 1 2 8 3.77232e-06 1 0 0
221 2 20 -1 0 1 2 8 3.75277e-06 1 0 0
222 2 21 -1 0 1 2 8 3.6534e-06 1 0 0
223 2 22 -1 0 1 2 8 3.50376e-06 1 0 0
224 2 23 -1 0 1 2 8 3.35289e-06 1 0 0
225 2 24 -1 0 1 2 8 3.25071e-06 1 0 0
226 2 25 -1 0 1 2 8 3.24194e-06 1 0 0
227 2 26 -1 0 1 2 8 3.32957e-06 1 0 0
228 2 27 -1 0 1 2 8 3.46172e-06 1 0 0
229 2 28 -1 0 1 2 8 3.58166e-06 1 0 0
230 2 29 -1 0 1 2 8 3.68157e-06 1 0 0
231 2 30 -1 0 1 2 8 3.78599e-06 1 0 0
232 2 31 -1 0 1 2 8 3.88879e-06 1 0 0
233 2 32 -1 0 1 2 8 3.94359e-06 1 0 0
234 2 33 -1 0 1 2 8 3.92185e-06 1 0 0
235 2 34 -1 0 1 2 8 3.8591e-06 1 0 0
236 2 35 -1 0 1 2 8 3.81573e-06 1 0 0
237 2 36 -1 0 1 2 8 3.80625e-06 1 0 0
238 2 37 -1 0 1 2 8 3.80123e-06 1 0 0
239 2 38 -1 0 1 2 8 3.77245e-06 1 0 0
240 2 39 -1 0 1 2 8 3.70844e-06 1 0 0
241 2 40 -1 0 1 2 8 3.61249e-06 1 0 0
242 2 41 -1 0 1 2 8 3.50899e-06 1 0 0
243 2 42 -1 0 1 2 8 3.44725e-06 1 0 0
244 2 43 -1 0 1 2 8 3.47509e-06 1 0 0
245 2 44 -1 0 1 2 8 3.59368e-06 1 0 0
246 2 45 -1 0 1 2 8 3.73149e-06 1 0 0
247 2 46 -1 0 1 2 8 3.79154e-06 1 0 0
248 2 47 -1 0 1 2 8 3.73955e-06 1 0 0
249 2 48 -1 0 1 2 8 3.62742e-06 1 0 0
250 2 49 -1 0 1 2 8 3.5363e-06 1 0 0
251 2 0 0 0 1 2 8 8.04634e-08 1 0 0
252 2 1 0 0 1 2 8 1.90953e-07 1 0 0
301 2 0 1 0 1 2 8 3.73587e-07 1 0 0
302 2 1 1 0 1 2 8 9.67305e-07 1 0 0
253 2 2 0 0 1 2 8 6.94442e-07 1 0 0
254 2 3 0 0 1 2 8 2.07723e-06 1 0 0
303 2 2 1 0 1 2 8 3.90579e-06 1 0 0
304 2 3 1 0 1 2 8 1.27859e-05 1 0 0
255 2 4 0 0 1 2 8 4.88639e-06 1 0 0
305 2 4 1 0 1 2 8 3.2278e-05 1 0 0
256 2 5 0 0 1 2 8 9.12028e-06 1 0 0
257 2 6 0 0 1 2 8 1.39885e-05 1 0 0
306 2 5 1 0 1 2 8 6.29982e-05 1 0 0
307 2 6 1 0 1 2 8 9.86309e-05 1 0 0
258 2 7 0 0 1 2 8 1.85198e-05 1 0 0
259 2 8 0 0 1 2 8 2.20754e-05 1 0 0
308 2 7 1 0 1 2 8 0.000131761 1 0 0
309 2 8 1 0 1 2 8 0.000157915 1 0 0
260 2 9 0 0 1 2 8 2.44687e-05 1 0 0
310 2 9 1 0 1 2 8 0.000175724 1 0 0
261 2 10 0 0 1 2 8 2.58969e-05 1 0 0
262 2 11 0 0 1 2 8 2.66916e-05 1 0 0
311 2 10 1 0 1 2 8 0.000186769 1 0 0
312 2 11 1 0 1 2 8 0.000193198 1 0 0
263 2 12 0 0 1 2 8 2.73668e-05 1 0 0
264 2 13 0 0 1 2 8 2.84585e-05 1 0 0
313 2 12 1 0 1 2 8 0.00019835 1 0 0
314 2 13 1 0 1 2 8 0.000206975 1 0 0
265 2 14 0 0 1 2 8 2.96912e-05 1 0 0
315 2 14 1 0 1 2 8 0.000216673 1 0 0
266 2 15 0 0 1 2 8 3.03224e-05 1 0 0
267 2 16 0 0 1 2 8 3.03292e-05 1 0 0
316 2 15 1 0 1 2 8 0.000220856 1 0 0
317 2 16 1 0 1 2 8 0.000219872 1 0 0
268 2 17 0 0 1 2 8 3.03466e-05 1 0 0
269 2 18 0 0 1 2 8 3.07203e-05 1 0 0
318 2 17 1 0 1 2 8 0.000219617 1 0 0
319 2 18 1 0 1 2 8 0.000222915 1 0 0
270 2 19 0 0 1 2 8 3.11478e-05 1 0 0
320 2 19 1 0 1 2 8 0.000227019 1 0 0
271 2 20 0 0 1 2 8 3.10718e-05 1 0 0
272 2 21 0 0 1 2 8 3.02784e-05 1 0 0
321 2 20 1 0 1 2 8 0.000227185 1 0 0
322 2 21 1 0 1 2 8 0.000221743 1 0 0
273 2 22 0 0 1 2 8 2.90335e-05 1 0 0
274 2 23 0 0 1 2 8 2.77256e-05 1 0 0
323 2 22 1 0 1 2 8 0.000212898 1 0 0
324 2 23 1 0 1 2 8 0.000203109 1 0 0
275 2 24 0 0 1 2 8 2.67766e-05 1 0 0
325 2 24 1 0 1 2 8 0.000195264 1 0 0
276 2 25 0 0 1 2 8 2.66724e-05 1 0 0
277 2 26 0 0 1 2 8 2.74933e-05 1 0 0
326 2 25 1 0 1 2 8 0.000194176 1 0 0
327 2 26 1 0 1 2 8 0.000200995 1 0 0
278 2 27 0 0 1 2 8 2.87082e-05 1 0 0
279 2 28 0 0 1 2 8 2.97153e-05 1 0 0
328 2 27 1 0 1 2 8 0.000210877 1 0 0
329 2 28 1 0 1 2 8 0.000218256 1 0 0
280 2 29 0 0 1 2 8 3.04519e-05 1 0 0
330 2 29 1 0 1 2 8 0.000222648 1 0 0
281 2 30 0 0 1 2 8 3.12441e-05 1 0 0
282 2 31 0 0 1 2 8 3.21035e-05 1 0 0
331 2 30 1 0 1 2 8 0.000227629 1 0 0
332 2 31 1 0 1 2 8 0.000233874 1 0 0
283 2 32 0 0 1 2 8 3.2588e-05 1 0 0
284 2 33 0 0 1 2 8 3.23834e-05 1 0 0
333 2 32 1 0 1 2 8 0.000237686 1 0 0
334 2 33 1 0 1 2 8 0.000236041 1 0 0
285 2 34 0 0 1 2 8 3.18082e-05 1 0 0
335 2 34 1 0 1 2 8 0.000231413 1 0 0
286 2 35 0 0 1 2 8 3.14441e-05 1 0 0
287 2 36 0 0 1 2 8 3.14121e-05 1 0 0
336 2 35 1 0 1 2 8 0.000228752 1 0 0
337 2 36 1 0 1 2 8 0.000228914 1 0 0
288 2 37 0 0 1 2 8 3.14219e-05 1 0 0
289 2 38 0 0 1 2 8 3.12178e-05 1 0 0
338 2 37 1 0 1 2 8 0.000229407 1 0 0
339 2 38 1 0 1 2 8 0.000228265 1 0 0
290 2 39 0 0 1 2 8 3.06848e-05 1 0 0
340 2 39 1 0 1 2 8 0.000224453 1 0 0
291 2 40 0 0 1 2 8 2.9821e-05 1 0 0
292 2 41 0 0 1 2 8 2.8831e-05 1 0 0
341 2 40 1 0 1 2 8 0.000217657 1 0 0
342 2 41 1 0 1 2 8 0.000209275 1 0 0
293 2 42 0 0 1 2 8 2.81988e-05 1 0 0
294 2 43 0 0 1 2 8 2.84045e-05 1 0 0
343 2 42 1 0 1 2 8 0.000203581 1 0 0
344 2 43 1 0 1 2 8 0.000204796 1 0 0
295 2 44 0 0 1 2 8 2.94868e-05 1 0 0
345 2 44 1 0 1 2 8 0.00021348 1 0 0
296 2 45 0 0 1 2 8 3.07717e-05 1 0 0
297 2 46 0 0 1 2 8 3.13308e-05 1 0 0
346 2 45 1 0 1 2 8 0.000224003 1 0 0
347 2 46 1 0 1 2 8 0.000228553 1 0 0
298 2 47 0 0 1 2 8 3.0856e-05 1 0 0
299 2 48 0 0 1 2 8 2.98497e-05 1 0 0
348 2 47 1 0 1 2 8 0.000224758 1 0 0
349 2 48 1 0 1 2 8 0.000216907 1 0 0
300 2 49 0 0 1 2 8 2.90447e-05 1 0 0
350 2 49 1 0 1 2 8 0.000210641 1 0 0
351 2 0 2 0 1 2 8 1.40891e-06 1 0 0
352 2 1 2 0 1 2 8 3.97763e-06 1 0 0
401 2 0 3 0 1 2 8 4.22084e-06 1 0 0
402 2 1 3 0 1 2 8 1.28716e-05 1 0 0
353 2 2 2 0 1 2 8 1.79158e-05 1 0 0
354 2 3 2 0 1 2 8 6.48716e-05 1 0 0
403 2 2 3 0 1 2 8 6.4047e-05 1 0 0
404 2 3 3 0 1 2 8 0.000257989 1 0 0
355 2 4 2 0 1 2 8 0.000178615 1 0 0
405 2 4 3 0 1 2 8 0.000777832 1 0 0
356 2 5 2 0 1 2 8 0.000369006 1 0 0
357 2 6 2 0 1 2 8 0.000590582 1 0 0
406 2 5 3 0 1 2 8 0.0017467 1 0 0
407 2 6 3 0 1 2 8 0.00287887 1 0 0
358 2 7 2 0 1 2 8 0.000794956 1 0 0
359 2 8 2 0 1 2 8 0.00095826 1 0 0
408 2 7 3 0 1 2 8 0.00388406 1 0 0
409 2 8 3 0 1 2 8 0.00471137 1 0 0
360 2 9 2 0 1 2 8 0.0010716 1 0 0
410 2 9 3 0 1 2 8 0.00530943 1 0 0
361 2 10 2 0 1 2 8 0.00114602 1 0 0
362 2 11 2 0 1 2 8 0.00119277 1 0 0
411 2 10 3 0 1 2 8 0.00573244 1 0 0
412 2 11 3 0 1 2 8 0.00603923 1 0 0
363 2 12 2 0 1 2 8 0.00122835 1 0 0
364 2 13 2 0 1 2 8 0.00128711 1 0 0
413 2 12 3 0 1 2 8 0.00625302 1 0 0
414 2 13 3 0 1 2 8 0.00658648 1 0 0
365 2 14 2 0 1 2 8 0.00135194 1 0 0
415 2 14 3 0 1 2 8 0.00694639 1 0 0
366 2 15 2 0 1 2 8 0.00137506 1 0 0
367 2 16 2 0 1 2 8 0.00136196 1 0 0
416 2 15 3 0 1 2 8 0.00705127 1 0 0
417 2 16 3 0 1 2 8 0.00695707 1 0 0
368 2 17 2 0 1 2 8 0.00135792 1 0 0
369 2 18 2 0 1 2 8 0.00138303 1 0 0
418 2 17 3 0 1 2 8 0.00693419 1 0 0
419 2 18 3 0 1 2 8 0.0070901 1 0 0
370 2 19 2 0 1 2 8 0.0014152 1 0 0
420 2 19 3 0 1 2 8 0.00728882 1 0 0
371 2 20 2 0 1 2 8 0.00142089 1 0 0
372 2 21 2 0 1 2 8 0.00139036 1 0 0
421 2 20 3 0 1 2 8 0.00733948 1 0 0
422 2 21 3 0 1 2 8 0.00720937 1 0 0
373 2 22 2 0 1 2 8 0.00133981 1 0 0
374 2 23 2 0 1 2 8 0.00127978 1 0 0
423 2 22 3 0 1 2 8 0.00700333 1 0 0
424 2 23 3 0 1 2 8 0.00673308 1 0 0
375 2 24 2 0 1 2 8 0.00122523 1 0 0
425 2 24 3 0 1 2 8 0.00642556 1 0 0
376 2 25 2 0 1 2 8 0.00121579 1 0 0
377 2 26 2 0 1 2 8 0.00126329 1 0 0
426 2 25 3 0 1 2 8 0.00636748 1 0 0
427 2 26 3 0 1 2 8 0.00663089 1 0 0
378 2 27 2 0 1 2 8 0.00133157 1 0 0
379 2 28 2 0 1 2 8 0.00137663 1 0 0
428 2 27 3 0 1 2 8 0.00699967 1 0 0
429 2 28 3 0 1 2 8 0.00721556 1 0 0
380 2 29 2 0 1 2 8 0.00139528 1 0 0
430 2 29 3 0 1 2 8 0.00724695 1 0 0
381 2 30 2 0 1 2 8 0.00141877 1 0 0
382 2 31 2 0 1 2 8 0.00145659 1 0 0
431 2 30 3 0 1 2 8 0.00731448 1 0 0
432 2 31 3 0 1 2 8 0.00748904 1 0 0
383 2 32 2 0 1 2 8 0.00148206 1 0 0
384 2 33 2 0 1 2 8 0.00147127 1 0 0
433 2 32 3 0 1 2 8 0.00762495 1 0 0
434 2 33 3 0 1 2 8 0.00757425 1 0 0
385 2 34 2 0 1 2 8 0.00144032 1 0 0
435 2 34 3 0 1 2 8 0.00741456 1 0 0
386 2 35 2 0 1 2 8 0.00142435 1 0 0
387 2 36 2 0 1 2 8 0.00142808 1 0 0
436 2 35 3 0 1 2 8 0.00734675 1 0 0
437 2 36 3 0 1 2 8 0.00738645 1 0 0
388 2 37 2 0 1 2 8 0.00143422 1 0 0
389 2 38 2 0 1 2 8 0.00142992 1 0 0
438 2 37 3 0 1 2 8 0.00743609 1 0 0
439 2 38 3 0 1 2 8 0.00743348 1 0 0
390 2 39 2 0 1 2 8 0.00140767 1 0 0
440 2 39 3 0 1 2 8 0.00733548 1 0 0
391 2 40 2 0 1 2 8 0.00136289 1 0 0
392 2 41 2 0 1 2 8 0.00130256 1 0 0
441 2 40 3 0 1 2 8 0.00711101 1 0 0
442 2 41 3 0 1 2 8 0.00676297 1 0 0
393 2 42 2 0 1 2 8 0.0012593 1 0 0
394 2 43 2 0 1 2 8 0.00126422 1 0 0
443 2 42 3 0 1 2 8 0.00650279 1 0 0
444 2 43 3 0 1 2 8 0.00650714 1 0 0
395 2 44 2 0 1 2 8 0.00132283 1 0 0
445 2 44 3 0 1 2 8 0.00681782 1 0 0
396 2 45 2 0 1 2 8 0.00139528 1 0 0
397 2 46 2 0 1 2 8 0.00142603 1 0 0
446 2 45 3 0 1 2 8 0.00720787 1 0 0
447 2 46 3 0 1 2 8 0.00736689 1 0 0
398 2 47 2 0 1 2 8 0.00140071 1 0 0
399 2 48 2 0 1 2 8 0.00134992 1 0 0
448 2 47 3 0 1 2 8 0.00723117 1 0 0
449 2 48 3 0 1 2 8 0.00698013 1 0 0
400 2 49 2 0 1 2 8 0.00130865 1 0 0
450 2 49 3 0 1 2 8 0.00675946 1 0 0
451 2 0 4 0 1 2 8 9.93648e-06 1 0 0
452 2 1 4 0 1 2 8 3.22176e-05 1 0 0
453 2 2 4 0 1 2 8 0.00017373 1 0 0
454 2 3 4 0 1 2 8 0.000755289 1 0 0
455 2 4 4 0 1 2 7 0.0024232 1 0 0
456 2 5 4 0 1 2 6 0.00608623 1 0 0
457 2 6 4 0 1 2 5 0.0100674 1 0 0
506 1 5.47314 4.88004 0 1.0006 2 0 0.0154396 1 0.000788804 0.00141718
507 1 6.48126 4.87604 0 1.02569 2 0 0.0206148 1 -0.0024467 -0.00423224
458 2 7 4 0 1 2 5 0.0133938 1 0 0
459 2 8 4 0 1 2 5 0.0163458 1 0 0
508 1 7.48694 4.87767 0 1.03193 2 0 0.0256532 1 -0.00599105 -0.0144985
460 2 9 4 0 1 2 5 0.0186009 1 0 0
510 1 8.48997 4.87073 0 1.01036 2 0 0.0303262 1 -0.00228168 -0.00387154
511 1 9.49768 4.87225 0 1.00136 2 0 0.0344715 1 0.00159519 -0.015852
461 2 10 4 0 1 2 5 0.0203467 1 0 0
462 2 11 4 0 1 2 5 0.0217554 1 0 0
512 1 10.5005 4.86513 0 1.01573 2 0 0.0382704 1 0.00402613 -0.00526848
513 1 11.5034 4.86581 0 1.01534 2 0 0.0417179 1 -0.00237923 -0.0141341
463 2 12 4 0 1 2 5 0.0228775 1 0 0
464 2 13 4 0 1 2 5 0.0242144 1 0 0
514 1 12.5041 4.86266 0 1.01802 2 0 0.0448281 1 -0.00948677 0.00443447
465 2 14 4 0 1 2 5 0.0255003 1 0 0
515 1 13.5026 4.86312 0 1.02031 2 0 0.0476815 1 0.00445952 0.00138173
516 1 14.5029 4.86552 0 1.0096 2 0 0.0500831 1 -0.00425581 0.00321404
466 2 15 4 0 1 2 5 0.0259673 1 0 0
467 2 16 4 0 1 2 5 0.0256691 1 0 0
518 1 16.5097 4.85898 0 1.02515 2 0 0.0532808 1 -0.0244105 0.021268
517 1 15.5017 4.86564 0 1.02614 2 0 0.0518624 1 0.00385074 -0.00263973
468 2 17 4 0 1 2 5 0.0255608 1 0 0
469 2 18 4 0 1 2 5 0.026297 1 0 0
519 1 17.5024 4.86383 0 1.0239 2 0 0.0546253 1 0.00198202 0.00649377
470 2 19 4 0 1 2 5 0.027074 1 0 0
520 1 18.4973 4.86637 0 1.00577 2 0 0.0558771 1 0.0106769 0.00067214
521 1 19.502 4.8665 0 1.00453 2 0 0.0567822 1 -0.00755343 -0.00659522
471 2 20 4 0 1 2 5 0.0273001 1 0 0
472 2 21 4 0 1 2 5 0.0269885 1 0 0
523 1 21.4966 4.86412 0 1.02268 2 0 0.0572177 1 0.00481877 -0.00509701
522 1 20.5006 4.86531 0 1.0139 2 0 0.0571782 1 -0.00605136 0.00208286
473 2 22 4 0 1 2 5 0.0265955 1 0 0
474 2 23 4 0 1 2 5 0.0258949 1 0 0
524 1 22.4964 4.86455 0 1.01383 2 0 0.0572665 1 0.00025287 -0.00696239
475 2 24 4 0 1 2 5 0.0249 1 0 0
525 1 23.5029 4.86624 0 1.03669 2 0 0.0570443 1 -0.0122009 -0.00304956
526 1 24.497 4.86494 0 1.04245 2 0 0.0568834 1 0.00936245 0.00171537
476 2 25 4 0 1 2 5 0.0246718 1 0 0
477 2 26 4 0 1 2 5 0.0254837 1 0 0
528 1 26.4938 4.86192 0 1.04147 2 0 0.0574466 1 0.00204034 -0.000302856
527 1 25.4953 4.86665 0 1.03798 2 0 0.0571786 1 0.00198906 0.0030665
478 2 27 4 0 1 2 5 0.0268033 1 0 0
479 2 28 4 0 1 2 5 0.0274103 1 0 0
529 1 27.4998 4.86067 0 1.0019 2 0 0.0579067 1 -0.00346125 0.00253472
480 2 29 4 0 1 2 5 0.0272804 1 0 0
531 1 29.5009 4.86546 0 1.01679 2 0 0.0576674 1 3.77676e-05 -0.00281741
530 1 28.4979 4.86341 0 1.02091 2 0 0.0579284 1 0.00751299 -0.00273621
481 2 30 4 0 1 2 5 0.0272292 1 0 0
482 2 31 4 0 1 2 5 0.0277428 1 0 0
533 1 31.4938 4.86355 0 1.004 2 0 0.0575508 1 0.0169255 0.00615822
532 1 30.5004 4.8685 0 1.0182 2 0 0.0573909 1 -0.00985833 -0.00451221
483 2 32 4 0 1 2 5 0.0281856 1 0 0
484 2 33 4 0 1 2 5 0.0280683 1 0 0
534 1 32.4952 4.86071 0 1.00171 2 0 0.058059 1 0.00291179 0.00400896
485 2 34 4 0 1 2 5 0.0276195 1 0 0
535 1 33.5017 4.85998 0 1.00275 2 0 0.0586024 1 -0.00991804 0.0049094
536 1 34.5014 4.86322 0 1.0237 2 0 0.0590126 1 -0.0019395 -0.00741957
486 2 35 4 0 1 2 5 0.0275118 1 0 0
487 2 36 4 0 1 2 5 0.0277303 1 0 0
538 1 36.5001 4.86219 0 1.01227 2 0 0.0599158 1 -0.00111391 -0.000179144
537 1 35.5006 4.86207 0 1.0067 2 0 0.0594763 1 0.00133367 0.000298085
488 2 37 4 0 1 2 5 0.0280033 1 0 0
489 2 38 4 0 1 2 5 0.0280487 1 0 0
539 1 37.4991 4.86267 0 1.00174 2 0 0.060101 1 0.00626702 0.000586367
490 2 39 4 0 1 2 5 0.0277886 1 0 0
541 1 39.4992 4.86088 0 1.00168 2 0 0.0596458 1 0.0036531 0.00676072
540 1 38.5004 4.86224 0 1.01715 2 0 0.0600112 1 -0.0090671 0.000288194
491 2 40 4 0 1 2 5 0.0270804 1 0 0
492 2 41 4 0 1 2 5 0.0257692 1 0 0
542 1 40.4999 4.863 0 1.01016 2 0 0.0590291 1 0.00436632 -0.00435484
543 1 41.5008 4.86286 0 1.03252 2 0 0.0584476 1 -0.00384655 0.00050013
493 2 42 4 0 1 2 5 0.024775 1 0 0
494 2 43 4 0 1 2 5 0.0247117 1 0 0
544 1 42.4973 4.86622 0 1.0319 2 0 0.0582323 1 0.00878881 -0.00424707
495 2 44 4 0 1 2 5 0.0257552 1 0 0
545 1 43.4959 4.86429 0 1.03659 2 0 0.0585496 1 -0.00143348 -0.00331912
546 1 44.4948 4.86245 0 1.01001 2 0 0.0591529 1 0.00776539 -0.00129266
496 2 45 4 0 1 2 5 0.0270907 1 0 0
497 2 46 4 0 1 2 5 0.0275633 1 0 0
548 1 46.5029 4.86136 0 1.00807 2 0 0.0596026 1 -0.00112625 -0.00378205
547 1 45.4985 4.86323 0 1.00173 2 0 0.0596024 1 -0.00144312 0.00327915
498 2 47 4 0 1 2 5 0.0271109 1 0 0
499 2 48 4 0 1 2 5 0.0263407 1 0 0
549 1 47.4995 4.86112 0 1.02093 2 0 0.0593116 1 0.0121817 0.00394178
500 2 49 4 0 1 2 5 0.0255853 1 0 0
550 1 48.499 4.86223 0 1.02225 2 0 0.0589677 1 -0.00285912 0.00234086
8501 1 49.4955 4.86187 0 1.06187 2 0 0.0586186 1 -0.00160022 0.00345056
501 2 0 5 0 1 2 8 1.85487e-05 1 0 0
502 2 1 5 0 1 2 8 6.28029e-05 1 0 0
551 2 0 6 0 1 2 8 2.84616e-05 1 0 0
552 2 1 6 0 1 2 8 9.89854e-05 1 0 0
503 2 2 5 0 1 2 8 0.000356131 1 0 0
504 2 3 5 0 1 2 8 0.00164142 1 0 0
553 2 2 6 0 1 2 8 0.000573042 1 0 0
554 2 3 6 0 1 2 8 0.00268677 1 0 0
505 2 4 5 0 1 2 6 0.00572428 1 0 0
555 2 4 6 0 1 2 5 0.00931521 1 0 0
556 1 4.96794 5.74419 0 1.02426 2 0 0.0173381 1 -0.0191896 -0.0124537
557 1 5.96136 5.75358 0 1.00456 2 0 0.0253027 1 0.00910971 -0.00646659
558 1 6.98102 5.7389 0 1.00032 2 0 0.032433 1 -0.000796996 0.00281037
509 1 7.98525 5.73627 0 1.00999 2 0 0.0393503 1 0.0148327 -0.000931539
560 1 8.99477 5.73037 0 1.01571 2 0 0.0457717 1 -0.00117964 0.00481413
561 1 10.006 5.72904 0 1.04128 2 0 0.0517615 1 -0.00361273 0.00925898
562 1 11.0108 5.73051 0 1.02468 2 0 0.0573161 1 -0.027526 -0.00200417
563 1 12.0015 5.72684 0 1.00884 2 0 0.0623213 1 0.0239652 0.00757507
565 1 13.0043 5.72524 0 1.01555 2 0 0.0669176 1 -0.00895574 0.00179949
566 1 14.0034 5.73244 0 1.01485 2 0 0.0710564 1 -0.00339664 -0.0254114
567 1 15.0071 5.73174 0 1.00349 2 0 0.0746145 1 -0.00590494 -0.00869858
568 1 16.0056 5.73287 0 1.02492 2 0 0.0776312 1 -0.00139022 -6.25082e-05
569 1 17.9971 5.73542 0 1.01386 2 0 0.082054 1 0.00937725 -0.00456837
618 1 17.0034 5.73651 0 1.00786 2 0 0.0800255 1 -0.00848501 -2.00503e-05
570 1 18.9966 5.73203 0 1.00562 2 0 0.0837499 1 -0.0184404 -0.0106567
571 1 19.9899 5.73448 0 1.00943 2 0 0.085015 1 0.0176697 0.00754967
572 1 20.9913 5.73958 0 1.02492 2 0 0.0856855 1 0.000199559 -0.000392346
573 1 21.9917 5.72567 0 1.00977 2 0 0.0855948 1 -0.00559901 -0.0030297
574 1 22.9949 5.72548 0 1.00488 2 0 0.0857487 1 0.004251 0.00482677
575 1 23.9983 5.73361 0 1.01237 2 0 0.0857974 1 -0.0149223 -0.00478709
576 1 24.9919 5.73231 0 1.01087 2 0 0.0860553 1 0.00719694 -0.0094794
577 1 25.9944 5.73612 0 1.01133 2 0 0.0866812 1 0.00370556 -0.00630854
579 1 26.9946 5.71909 0 1.01129 2 0 0.0861743 1 -0.00458267 0.00523353
580 1 27.9965 5.72417 0 1.02117 2 0 0.0862742 1 -0.000477181 0.0124971
581 1 28.9976 5.72706 0 1.01861 2 0 0.0859025 1 -0.00583675 -0.00285542
632 1 30.0002 5.73141 0 1.0167 2 0 0.0851572 1 -0.00223194 0.00516642
582 1 31.0004 5.73989 0 1.0143 2 0 0.0846018 1 -0.00508029 2.41679e-05
583 1 31.9977 5.72533 0 1.0088 2 0 0.0850152 1 -0.00491697 0.0070948
584 1 32.9931 5.72274 0 1.00514 2 0 0.0861682 1 0.00899161 -0.000357081
585 1 33.9961 5.72063 0 1.02197 2 0 0.0874007 1 0.00141149 0.0093718
586 1 35.0015 5.72413 0 1.02669 2 0 0.0883204 1 0.00651459 0.00148606
587 1 36.0008 5.72481 0 1.01702 2 0 0.0890841 1 0.00367275 0.00338097
588 1 37.0001 5.72427 0 1.01798 2 0 0.0893926 1 -0.00879783 0.00658416
589 1 37.9975 5.72832 0 1.01656 2 0 0.0893756 1 0.00615295 -0.0144288
590 1 38.9974 5.72269 0 1.01208 2 0 0.0891422 1 0.000235305 0.00337612
591 1 40.0015 5.72297 0 1.01334 2 0 0.0888477 1 -0.00192672 0.00726676
592 1 41.0031 5.72521 0 1.02633 2 0 0.088714 1 -0.00576089 0.00133259
594 1 42.997 5.73752 0 1.01497 2 0 0.0887529 1 -0.000657975 -0.00203215
593 1 41.999 5.72905 0 1.02837 2 0 0.0886288 1 0.00583265 0.000268448
595 1 43.9952 5.72453 0 1.01694 2 0 0.0887736 1 -0.00656164 0.00466417
596 1 44.9925 5.72591 0 1.01116 2 0 0.0889972 1 0.00914303 -0.0111589
597 1 46.0087 5.7199 0 1.01212 2 0 0.0890445 1 -0.00301642 0.00512699
598 1 47.0067 5.72415 0 1.00861 2 0 0.0890303 1 -0.00548257 0.00261465
599 1 48.0027 5.72605 0 1.02545 2 0 0.0889975 1 0.00458799 -0.00121224
600 1 49.0007 5.72564 0 1.00476 2 0 0.0888015 1 -0.0128547 0.00723515
2700 1 48.9831 45.7523 0 1.0082 0 0 0.499988 1 0.00029401 0.00021396
601 2 0 7 0 1 2 8 3.7844e-05 1 0 0
602 2 1 7 0 1 2 8 0.000133749 1 0 0
651 2 0 8 0 1 2 8 4.55477e-05 1 0 0
652 2 1 8 0 1 2 8 0.000162611 1 0 0
603 2 2 7 0 1 2 8 0.000783248 1 0 0
604 2 3 7 0 1 2 8 0.00372162 1 0 0
653 2 2 8 0 1 2 8 0.00096256 1 0 0
654 2 3 8 0 1 2 8 0.00468388 1 0 0
605 2 4 7 0 1 2 5 0.0127792 1 0 0
655 2 4 8 0 1 2 5 0.0160701 1 0 0
656 1 4.8739 7.47573 0 1.01253 2 0 0.0250845 1 0.00878122 0.00473026
606 1 5.42229 6.62743 0 1.01839 2 0 0.0273274 1 0.00631793 0.012232
607 1 6.45828 6.61721 0 1.01626 2 0 0.0369582 1 0.00269901 0.00480779
657 1 5.96039 7.49026 0 1.02523 2 0 0.0388455 1 0 -5e-05
608 1 7.49044 6.59664 0 1.01581 2 0 0.0463409 1 -0.00321754 0.0140671
609 1 7.99515 7.46377 0 1.00447 2 0 0.0620513 1 0.00631145 -0.0127421
658 1 6.99232 7.46149 0 1.00499 2 0 0.0507943 1 -0.0040751 -0.000503527
559 1 8.50013 6.5956 0 1.01669 2 0 0.0551068 1 -0.00589035 0.00588935
610 1 9.49889 6.59138 0 1.00382 2 0 0.06338 1 0.00476373 0.00380425
661 1 8.99891 7.46385 0 1.00906 2 0 0.0726667 1 -0.00163703 -0.0203577
612 1 9.9975 7.45938 0 1.00002 2 0 0.0825482 1 0.00293323 -0.00948354
611 1 10.505 6.59222 0 1.00368 2 0 0.0710293 1 -0.00215629 -0.00119739
564 1 11.5051 6.59389 0 1.01095 2 0 0.0781494 1 -0.013201 -0.00398283
613 1 10.9967 7.45803 0 1.00877 2 0 0.0918663 1 0.0059287 0.00753749
614 1 12.5005 6.59317 0 1.01882 2 0 0.0847803 1 -0.00378779 -0.0175829
665 1 12.9978 7.45188 0 1.00809 2 0 0.10889 1 -0.00466714 0.0135748
664 1 11.9978 7.4545 0 1.0022 2 0 0.100742 1 0.00548137 0.0190217
615 1 13.4964 6.58898 0 1.00601 2 0 0.0907064 1 0.00549527 0.000435603
616 1 14.4995 6.58911 0 1.00878 2 0 0.095982 1 0.00882457 0.0163825
666 1 13.9947 7.44758 0 0.997531 2 0 0.115998 1 0.00900631 0.0192183
667 1 15.0073 7.4624 0 1.00922 2 0 0.122561 1 -0.0188925 -0.000785822
617 1 15.4987 6.59788 0 1.01132 2 0 0.100717 1 0.00811348 -0.00233115
668 1 16.0016 7.47354 0 1.01232 2 0 0.128308 1 0.00158804 0.000325102
619 1 16.4973 6.60867 0 1.00791 2 0 0.104738 1 -0.00299429 -0.00550858
669 1 17.4929 6.60998 0 1.0115 2 0 0.107693 1 -0.00020968 -0.0102077
719 1 16.9968 7.47588 0 1.0104 2 0 0.132621 1 0.00737012 -0.00137603
720 1 17.9953 7.47017 0 1.00384 2 0 0.135754 1 -0.0090182 0.00992069
620 1 18.4892 6.60294 0 1.00047 2 0 0.110195 1 0.000492313 0.00106106
621 1 19.4836 6.59774 0 1.01086 2 0 0.11292 1 0.0149019 0.00642729
670 1 18.9883 7.47042 0 1.01205 2 0 0.139076 1 0.000540953 -0.00351057
671 1 19.9826 7.46088 0 1.01101 2 0 0.143264 1 0.000931201 0.0105097
622 1 20.4878 6.60334 0 1.02282 2 0 0.114738 1 0.00469841 -0.00802166
623 1 21.488 6.61999 0 1.01715 2 0 0.115103 1 -0.00214878 2.84832e-05
672 1 20.9773 7.49054 0 1.01032 2 0 0.144996 1 0.0123501 -0.00985771
673 1 21.9756 7.49768 0 1.00705 2 0 0.144369 1 -0.00253987 0.000281744
624 1 22.4863 6.58353 0 1.00933 2 0 0.114179 1 -0.00116177 0.00249514
674 1 22.9713 7.44564 0 1.01197 2 1 0.14216 1 0.00618718 -0.000757226
625 1 23.4881 6.59351 0 1.01358 2 0 0.113841 1 -0.00182186 -0.00269874
626 1 24.4847 6.60311 0 1.01095 2 0 0.113706 1 0.00966155 0.00522223
675 1 23.9806 7.47369 0 1.00974 2 0 0.141043 0.999944 -0.00536499 -0.000690253
676 1 24.9777 7.47227 0 1.01754 2 0 0.144221 0.999975 -0.00329164 -0.00491737
578 1 26.4879 6.61309 0 1.0136 2 0 0.116654 1 -0.00726233 -0.00197289
628 1 25.974 7.4695 0 1.00647 2 0 0.14631 0.999602 -0.00516404 -0.00163733
627 1 25.4867 6.59351 0 1.0116 2 0 0.115085 1 0.00307526 0.0180105
629 1 27.4831 6.58245 0 1.00585 2 0 0.114467 1 0.0054948 -0.00437709
679 1 27.9611 7.44901 0 1.01276 2 1 0.142745 0.999892 -0.00187132 0.00185787
678 1 26.9683 7.51544 0 1.01987 2 0 0.147463 0.99833 -0.000272189 0.000855492
630 1 28.4825 6.5977 0 1.00031 2 0 0.114077 1 0.00325777 -0.00225876
631 1 29.4847 6.59369 0 1.01679 2 0 0.11344 1 0.00249043 0.00404514
680 1 28.9555 7.51565 0 1.0041 2 0 0.145066 1 0.00277807 0.000562925
681 1 29.9527 7.47335 0 1.0067 2 1 0.142301 1 0.00660234 -0.00339658
682 1 30.4941 6.61824 0 1.0233 2 0 0.111592 1 -0.00178588 -3.53591e-05
633 1 31.4932 6.61005 0 1.00197 2 0 0.110973 1 -0.00701619 -0.00239803
732 1 30.9574 7.50937 0 1.02086 2 1 0.138726 1 5.40281e-06 -6.44852e-05
683 1 31.9575 7.49421 0 1.00602 2 1 0.139394 1 -0.00348946 -0.00385288
684 1 32.4894 6.602 0 1.01173 2 0 0.113179 1 0.00439149 -0.00532741
734 1 33.0052 7.45522 0 1.01306 2 0 0.143255 1 -0.000491942 0.00274609
634 1 33.4946 6.58254 0 1.00318 2 0 0.114836 1 -0.0046824 0.00186564
635 1 34.4992 6.58021 0 1.01335 2 0 0.11658 1 0.0001337 -0.00805673
685 1 34.0025 7.43672 0 1.01182 2 0 0.144839 1 -0.00452421 0.00809602
686 1 34.9995 7.43879 0 1.01566 2 0 0.147043 1 0.00118889 0.0127886