ITEM: TIMESTEP
42500
ITEM: NUMBER OF ATOMS
15950
ITEM: BOX BOUNDS pp pp pp
0.0000000000000000e+00 1.0000000000000000e+02
-5.0000000000000000e+00 2.0000000000000000e+02
-5.0000000000000000e-01 5.0000000000000000e-01
ITEM: ATOMS id type x y z c_rho c_phase c_nbond c_temp f_rheo_chi_chi fx fy
1 2 0 -5 0 1 2 8 2.85034e-08 1 0 0
2 2 1 -5 0 1 2 8 3.70164e-08 1 0 0
51 2 0 -4 0 1 2 8 1.21833e-07 1 0 0
52 2 1 -4 0 1 2 8 1.61177e-07 1 0 0
3 2 2 -5 0 1 2 8 6.50964e-08 1 0 0
4 2 3 -5 0 1 2 8 1.15875e-07 1 0 0
53 2 2 -4 0 1 2 8 2.9191e-07 1 0 0
54 2 3 -4 0 1 2 8 5.29279e-07 1 0 0
5 2 4 -5 0 1 2 7 1.95657e-07 1 0 0
55 2 4 -4 0 1 2 8 8.82455e-07 1 0 0
6 2 5 -5 0 1 2 6 3.14654e-07 1 0 0
7 2 6 -5 0 1 2 5 4.46503e-07 1 0 0
56 2 5 -4 0 1 2 8 1.33948e-06 1 0 0
57 2 6 -4 0 1 2 8 1.85258e-06 1 0 0
8 2 7 -5 0 1 2 5 5.69564e-07 1 0 0
9 2 8 -5 0 1 2 5 6.80456e-07 1 0 0
58 2 7 -4 0 1 2 8 2.36569e-06 1 0 0
59 2 8 -4 0 1 2 8 2.83283e-06 1 0 0
10 2 9 -5 0 1 2 5 7.7389e-07 1 0 0
60 2 9 -4 0 1 2 8 3.22738e-06 1 0 0
11 2 10 -5 0 1 2 5 8.48981e-07 1 0 0
12 2 11 -5 0 1 2 5 9.08654e-07 1 0 0
61 2 10 -4 0 1 2 8 3.54562e-06 1 0 0
62 2 11 -4 0 1 2 8 3.80014e-06 1 0 0
13 2 12 -5 0 1 2 5 9.5703e-07 1 0 0
14 2 13 -5 0 1 2 5 9.96943e-07 1 0 0
63 2 12 -4 0 1 2 8 4.0082e-06 1 0 0
64 2 13 -4 0 1 2 8 4.18109e-06 1 0 0
15 2 14 -5 0 1 2 5 1.02917e-06 1 0 0
65 2 14 -4 0 1 2 8 4.32093e-06 1 0 0
16 2 15 -5 0 1 2 5 1.05372e-06 1 0 0
17 2 16 -5 0 1 2 5 1.07155e-06 1 0 0
66 2 15 -4 0 1 2 8 4.42704e-06 1 0 0
67 2 16 -4 0 1 2 8 4.50407e-06 1 0 0
18 2 17 -5 0 1 2 5 1.08448e-06 1 0 0
19 2 18 -5 0 1 2 5 1.09346e-06 1 0 0
68 2 17 -4 0 1 2 8 4.56133e-06 1 0 0
69 2 18 -4 0 1 2 8 4.60386e-06 1 0 0
20 2 19 -5 0 1 2 5 1.09734e-06 1 0 0
70 2 19 -4 0 1 2 8 4.62641e-06 1 0 0
21 2 20 -5 0 1 2 5 1.09388e-06 1 0 0
22 2 21 -5 0 1 2 5 1.08223e-06 1 0 0
71 2 20 -4 0 1 2 8 4.61814e-06 1 0 0
72 2 21 -4 0 1 2 8 4.57414e-06 1 0 0
23 2 22 -5 0 1 2 5 1.06475e-06 1 0 0
24 2 23 -5 0 1 2 5 1.0469e-06 1 0 0
73 2 22 -4 0 1 2 8 4.50372e-06 1 0 0
74 2 23 -4 0 1 2 8 4.43013e-06 1 0 0
25 2 24 -5 0 1 2 5 1.03525e-06 1 0 0
75 2 24 -4 0 1 2 8 4.38197e-06 1 0 0
26 2 25 -5 0 1 2 5 1.03457e-06 1 0 0
27 2 26 -5 0 1 2 5 1.04559e-06 1 0 0
76 2 25 -4 0 1 2 8 4.38034e-06 1 0 0
77 2 26 -4 0 1 2 8 4.42841e-06 1 0 0
28 2 27 -5 0 1 2 5 1.06506e-06 1 0 0
29 2 28 -5 0 1 2 5 1.08802e-06 1 0 0
78 2 27 -4 0 1 2 8 4.51128e-06 1 0 0
79 2 28 -4 0 1 2 8 4.60686e-06 1 0 0
30 2 29 -5 0 1 2 5 1.11033e-06 1 0 0
80 2 29 -4 0 1 2 8 4.69787e-06 1 0 0
31 2 30 -5 0 1 2 5 1.12946e-06 1 0 0
32 2 31 -5 0 1 2 5 1.14382e-06 1 0 0
81 2 30 -4 0 1 2 8 4.77514e-06 1 0 0
82 2 31 -4 0 1 2 8 4.83313e-06 1 0 0
33 2 32 -5 0 1 2 5 1.15226e-06 1 0 0
34 2 33 -5 0 1 2 5 1.1547e-06 1 0 0
83 2 32 -4 0 1 2 8 4.86716e-06 1 0 0
84 2 33 -4 0 1 2 8 4.87664e-06 1 0 0
35 2 34 -5 0 1 2 5 1.15267e-06 1 0 0
85 2 34 -4 0 1 2 8 4.86804e-06 1 0 0
36 2 35 -5 0 1 2 5 1.14838e-06 1 0 0
37 2 36 -5 0 1 2 5 1.14297e-06 1 0 0
86 2 35 -4 0 1 2 8 4.85115e-06 1 0 0
87 2 36 -4 0 1 2 8 4.83097e-06 1 0 0
38 2 37 -5 0 1 2 5 1.13574e-06 1 0 0
39 2 38 -5 0 1 2 5 1.12492e-06 1 0 0
88 2 37 -4 0 1 2 8 4.80368e-06 1 0 0
89 2 38 -4 0 1 2 8 4.76063e-06 1 0 0
40 2 39 -5 0 1 2 5 1.10969e-06 1 0 0
90 2 39 -4 0 1 2 8 4.69714e-06 1 0 0
41 2 40 -5 0 1 2 5 1.09178e-06 1 0 0
42 2 41 -5 0 1 2 5 1.07568e-06 1 0 0
91 2 40 -4 0 1 2 8 4.62011e-06 1 0 0
92 2 41 -4 0 1 2 8 4.54915e-06 1 0 0
43 2 42 -5 0 1 2 5 1.06669e-06 1 0 0
44 2 43 -5 0 1 2 5 1.0678e-06 1 0 0
93 2 42 -4 0 1 2 8 4.50854e-06 1 0 0
94 2 43 -4 0 1 2 8 4.51261e-06 1 0 0
45 2 44 -5 0 1 2 5 1.07724e-06 1 0 0
95 2 44 -4 0 1 2 8 4.55404e-06 1 0 0
46 2 45 -5 0 1 2 5 1.08895e-06 1 0 0
47 2 46 -5 0 1 2 5 1.09626e-06 1 0 0
96 2 45 -4 0 1 2 8 4.60581e-06 1 0 0
97 2 46 -4 0 1 2 8 4.63773e-06 1 0 0
48 2 47 -5 0 1 2 5 1.09611e-06 1 0 0
49 2 48 -5 0 1 2 5 1.09079e-06 1 0 0
98 2 47 -4 0 1 2 8 4.63609e-06 1 0 0
99 2 48 -4 0 1 2 8 4.61147e-06 1 0 0
50 2 49 -5 0 1 2 5 1.08585e-06 1 0 0
100 2 49 -4 0 1 2 8 4.58918e-06 1 0 0
101 2 0 -3 0 1 2 8 4.78759e-07 1 0 0
102 2 1 -3 0 1 2 8 6.46362e-07 1 0 0
151 2 0 -2 0 1 2 8 1.71557e-06 1 0 0
152 2 1 -2 0 1 2 8 2.36715e-06 1 0 0
103 2 2 -3 0 1 2 8 1.20893e-06 1 0 0
104 2 3 -3 0 1 2 8 2.24553e-06 1 0 0
153 2 2 -2 0 1 2 8 4.57996e-06 1 0 0
154 2 3 -2 0 1 2 8 8.73217e-06 1 0 0
105 2 4 -3 0 1 2 8 3.80138e-06 1 0 0
155 2 4 -2 0 1 2 8 1.50667e-05 1 0 0
106 2 5 -3 0 1 2 8 5.8105e-06 1 0 0
107 2 6 -3 0 1 2 8 8.08132e-06 1 0 0
156 2 5 -2 0 1 2 8 2.33308e-05 1 0 0
157 2 6 -2 0 1 2 8 3.27077e-05 1 0 0
108 2 7 -3 0 1 2 8 1.03629e-05 1 0 0
109 2 8 -3 0 1 2 8 1.244e-05 1 0 0
158 2 7 -2 0 1 2 8 4.2126e-05 1 0 0
159 2 8 -2 0 1 2 8 5.06906e-05 1 0 0
110 2 9 -3 0 1 2 8 1.41948e-05 1 0 0
160 2 9 -2 0 1 2 8 5.79326e-05 1 0 0
111 2 10 -3 0 1 2 8 1.56141e-05 1 0 0
112 2 11 -3 0 1 2 8 1.67564e-05 1 0 0
161 2 10 -2 0 1 2 8 6.38156e-05 1 0 0
162 2 11 -2 0 1 2 8 6.85886e-05 1 0 0
113 2 12 -3 0 1 2 8 1.7699e-05 1 0 0
114 2 13 -3 0 1 2 8 1.84896e-05 1 0 0
163 2 12 -2 0 1 2 8 7.25706e-05 1 0 0
164 2 13 -2 0 1 2 8 7.59452e-05 1 0 0
115 2 14 -3 0 1 2 8 1.91311e-05 1 0 0
165 2 14 -2 0 1 2 8 7.86964e-05 1 0 0
116 2 15 -3 0 1 2 8 1.96157e-05 1 0 0
117 2 16 -3 0 1 2 8 1.99668e-05 1 0 0
166 2 15 -2 0 1 2 8 8.07676e-05 1 0 0
167 2 16 -2 0 1 2 8 8.22678e-05 1 0 0
118 2 17 -3 0 1 2 8 2.02345e-05 1 0 0
119 2 18 -3 0 1 2 8 2.04469e-05 1 0 0
168 2 17 -2 0 1 2 8 8.34436e-05 1 0 0
169 2 18 -2 0 1 2 8 8.44358e-05 1 0 0
120 2 19 -3 0 1 2 8 2.05778e-05 1 0 0
170 2 19 -2 0 1 2 8 8.51228e-05 1 0 0
121 2 20 -3 0 1 2 8 2.05715e-05 1 0 0
122 2 21 -3 0 1 2 8 2.03998e-05 1 0 0
171 2 20 -2 0 1 2 8 8.52422e-05 1 0 0
172 2 21 -2 0 1 2 8 8.46534e-05 1 0 0
123 2 22 -3 0 1 2 8 2.01015e-05 1 0 0
124 2 23 -3 0 1 2 8 1.9781e-05 1 0 0
173 2 22 -2 0 1 2 8 8.35069e-05 1 0 0
174 2 23 -2 0 1 2 8 8.22337e-05 1 0 0
125 2 24 -3 0 1 2 8 1.95706e-05 1 0 0
175 2 24 -2 0 1 2 8 8.13952e-05 1 0 0
126 2 25 -3 0 1 2 8 1.95697e-05 1 0 0
127 2 26 -3 0 1 2 8 1.9793e-05 1 0 0
176 2 25 -2 0 1 2 8 8.14271e-05 1 0 0
177 2 26 -2 0 1 2 8 8.23945e-05 1 0 0
128 2 27 -3 0 1 2 8 2.01676e-05 1 0 0
129 2 28 -3 0 1 2 8 2.05882e-05 1 0 0
178 2 27 -2 0 1 2 8 8.39675e-05 1 0 0
179 2 28 -2 0 1 2 8 8.56797e-05 1 0 0
130 2 29 -3 0 1 2 8 2.09791e-05 1 0 0
180 2 29 -2 0 1 2 8 8.72249e-05 1 0 0
131 2 30 -3 0 1 2 8 2.13073e-05 1 0 0
132 2 31 -3 0 1 2 8 2.15548e-05 1 0 0
181 2 30 -2 0 1 2 8 8.85087e-05 1 0 0
182 2 31 -2 0 1 2 8 8.94872e-05 1 0 0
133 2 32 -3 0 1 2 8 2.17005e-05 1 0 0
134 2 33 -3 0 1 2 8 2.1739e-05 1 0 0
183 2 32 -2 0 1 2 8 9.00703e-05 1 0 0
184 2 33 -2 0 1 2 8 9.02193e-05 1 0 0
135 2 34 -3 0 1 2 8 2.16998e-05 1 0 0
185 2 34 -2 0 1 2 8 9.0058e-05 1 0 0
136 2 35 -3 0 1 2 8 2.16301e-05 1 0 0
137 2 36 -3 0 1 2 8 2.15531e-05 1 0 0
186 2 35 -2 0 1 2 8 8.9797e-05 1 0 0
187 2 36 -2 0 1 2 8 8.95384e-05 1 0 0
138 2 37 -3 0 1 2 8 2.14482e-05 1 0 0
139 2 38 -3 0 1 2 8 2.12704e-05 1 0 0
188 2 37 -2 0 1 2 8 8.91818e-05 1 0 0
189 2 38 -2 0 1 2 8 8.85152e-05 1 0 0
140 2 39 -3 0 1 2 8 2.09929e-05 1 0 0
190 2 39 -2 0 1 2 8 8.74019e-05 1 0 0
141 2 40 -3 0 1 2 8 2.06436e-05 1 0 0
142 2 41 -3 0 1 2 8 2.03134e-05 1 0 0
191 2 40 -2 0 1 2 8 8.59437e-05 1 0 0
192 2 41 -2 0 1 2 8 8.45274e-05 1 0 0
143 2 42 -3 0 1 2 8 2.012e-05 1 0 0
144 2 43 -3 0 1 2 8 2.01361e-05 1 0 0
193 2 42 -2 0 1 2 8 8.36768e-05 1 0 0
194 2 43 -2 0 1 2 8 8.37332e-05 1 0 0
145 2 44 -3 0 1 2 8 2.03304e-05 1 0 0
195 2 44 -2 0 1 2 8 8.45741e-05 1 0 0
146 2 45 -3 0 1 2 8 2.05741e-05 1 0 0
147 2 46 -3 0 1 2 8 2.07214e-05 1 0 0
196 2 45 -2 0 1 2 8 8.56311e-05 1 0 0
197 2 46 -2 0 1 2 8 8.62559e-05 1 0 0
148 2 47 -3 0 1 2 8 2.07071e-05 1 0 0
149 2 48 -3 0 1 2 8 2.05838e-05 1 0 0
198 2 47 -2 0 1 2 8 8.61622e-05 1 0 0
199 2 48 -2 0 1 2 8 8.55918e-05 1 0 0
150 2 49 -3 0 1 2 8 2.04747e-05 1 0 0
200 2 49 -2 0 1 2 8 8.50973e-05 1 0 0
201 2 0 -1 0 1 2 8 5.55721e-06 1 0 0
202 2 1 -1 0 1 2 8 7.84375e-06 1 0 0
203 2 2 -1 0 1 2 8 1.57099e-05 1 0 0
204 2 3 -1 0 1 2 8 3.07738e-05 1 0 0
205 2 4 -1 0 1 2 8 5.41797e-05 1 0 0
206 2 5 -1 0 1 2 8 8.5058e-05 1 0 0
207 2 6 -1 0 1 2 8 0.000120203 1 0 0
208 2 7 -1 0 1 2 8 0.000155445 1 0 0
209 2 8 -1 0 1 2 8 0.000187448 1 0 0
210 2 9 -1 0 1 2 8 0.000214571 1 0 0
211 2 10 -1 0 1 2 8 0.000236755 1 0 0
212 2 11 -1 0 1 2 8 0.000254942 1 0 0
213 2 12 -1 0 1 2 8 0.000270305 1 0 0
214 2 13 -1 0 1 2 8 0.000283479 1 0 0
215 2 14 -1 0 1 2 8 0.000294288 1 0 0
216 2 15 -1 0 1 2 8 0.000302422 1 0 0
217 2 16 -1 0 1 2 8 0.000308332 1 0 0
218 2 17 -1 0 1 2 8 0.000313106 1 0 0
219 2 18 -1 0 1 2 8 0.000317363 1 0 0
220 2 19 -1 0 1 2 8 0.000320587 1 0 0
221 2 20 -1 0 1 2 8 0.000321676 1 0 0
222 2 21 -1 0 1 2 8 0.000320033 1 0 0
223 2 22 -1 0 1 2 8 0.000316187 1 0 0
224 2 23 -1 0 1 2 8 0.000311727 1 0 0
225 2 24 -1 0 1 2 8 0.000308785 1 0 0
226 2 25 -1 0 1 2 8 0.00030909 1 0 0
227 2 26 -1 0 1 2 8 0.000312917 1 0 0
228 2 27 -1 0 1 2 8 0.000318919 1 0 0
229 2 28 -1 0 1 2 8 0.00032522 1 0 0
230 2 29 -1 0 1 2 8 0.000330712 1 0 0
231 2 30 -1 0 1 2 8 0.000335229 1 0 0
232 2 31 -1 0 1 2 8 0.000338742 1 0 0
233 2 32 -1 0 1 2 8 0.000340887 1 0 0
234 2 33 -1 0 1 2 8 0.000341438 1 0 0
235 2 34 -1 0 1 2 8 0.000340859 1 0 0
236 2 35 -1 0 1 2 8 0.000340008 1 0 0
237 2 36 -1 0 1 2 8 0.000339292 1 0 0
238 2 37 -1 0 1 2 8 0.000338276 1 0 0
239 2 38 -1 0 1 2 8 0.000336073 1 0 0
240 2 39 -1 0 1 2 8 0.000332086 1 0 0
241 2 40 -1 0 1 2 8 0.000326629 1 0 0
242 2 41 -1 0 1 2 8 0.000321168 1 0 0
243 2 42 -1 0 1 2 8 0.0003178 1 0 0
244 2 43 -1 0 1 2 8 0.000317964 1 0 0
245 2 44 -1 0 1 2 8 0.000321236 1 0 0
246 2 45 -1 0 1 2 8 0.000325358 1 0 0
247 2 46 -1 0 1 2 8 0.000327729 1 0 0
248 2 47 -1 0 1 2 8 0.000327226 1 0 0
249 2 48 -1 0 1 2 8 0.000324851 1 0 0
250 2 49 -1 0 1 2 8 0.000322832 1 0 0
251 2 0 0 0 1 2 8 1.61294e-05 1 0 0
252 2 1 0 0 1 2 8 2.3287e-05 1 0 0
301 2 0 1 0 1 2 8 4.16084e-05 1 0 0
302 2 1 1 0 1 2 8 6.13583e-05 1 0 0
253 2 2 0 0 1 2 8 4.82423e-05 1 0 0
254 2 3 0 0 1 2 8 9.70798e-05 1 0 0
303 2 2 1 0 1 2 8 0.000131047 1 0 0
304 2 3 1 0 1 2 8 0.000270292 1 0 0
255 2 4 0 0 1 2 8 0.000174501 1 0 0
305 2 4 1 0 1 2 8 0.000495745 1 0 0
256 2 5 0 0 1 2 8 0.000277858 1 0 0
257 2 6 0 0 1 2 8 0.000395683 1 0 0
306 2 5 1 0 1 2 8 0.000800657 1 0 0
307 2 6 1 0 1 2 8 0.00114777 1 0 0
258 2 7 0 0 1 2 8 0.000513376 1 0 0
259 2 8 0 0 1 2 8 0.000620072 1 0 0
308 2 7 1 0 1 2 8 0.00149166 1 0 0
309 2 8 1 0 1 2 8 0.00180281 1 0 0
260 2 9 0 0 1 2 8 0.0007109 1 0 0
310 2 9 1 0 1 2 8 0.00206977 1 0 0
261 2 10 0 0 1 2 8 0.000785943 1 0 0
262 2 11 0 0 1 2 8 0.00084829 1 0 0
311 2 10 1 0 1 2 8 0.00229357 1 0 0
312 2 11 1 0 1 2 8 0.00248267 1 0 0
263 2 12 0 0 1 2 8 0.000901706 1 0 0
264 2 13 0 0 1 2 8 0.000948115 1 0 0
313 2 12 1 0 1 2 8 0.00264725 1 0 0
314 2 13 1 0 1 2 8 0.00279233 1 0 0
265 2 14 0 0 1 2 8 0.000986541 1 0 0
315 2 14 1 0 1 2 8 0.002914 1 0 0
266 2 15 0 0 1 2 8 0.00101557 1 0 0
267 2 16 0 0 1 2 8 0.00103688 1 0 0
316 2 15 1 0 1 2 8 0.003007 1 0 0
317 2 16 1 0 1 2 8 0.00307659 1 0 0
268 2 17 0 0 1 2 8 0.00105465 1 0 0
269 2 18 0 0 1 2 8 0.00107124 1 0 0
318 2 17 1 0 1 2 8 0.0031366 1 0 0
319 2 18 1 0 1 2 8 0.00319452 1 0 0
270 2 19 0 0 1 2 8 0.00108467 1 0 0
320 2 19 1 0 1 2 8 0.00324363 1 0 0
271 2 20 0 0 1 2 8 0.00109089 1 0 0
272 2 21 0 0 1 2 8 0.00108778 1 0 0
321 2 20 1 0 1 2 8 0.00327117 1 0 0
322 2 21 1 0 1 2 8 0.00327121 1 0 0
273 2 22 0 0 1 2 8 0.00107704 1 0 0
274 2 23 0 0 1 2 8 0.00106375 1 0 0
323 2 22 1 0 1 2 8 0.00324874 1 0 0
324 2 23 1 0 1 2 8 0.00321733 1 0 0
275 2 24 0 0 1 2 8 0.00105501 1 0 0
325 2 24 1 0 1 2 8 0.00319694 1 0 0
276 2 25 0 0 1 2 8 0.00105691 1 0 0
277 2 26 0 0 1 2 8 0.00107055 1 0 0
326 2 25 1 0 1 2 8 0.00320634 1 0 0
327 2 26 1 0 1 2 8 0.00324946 1 0 0
278 2 27 0 0 1 2 8 0.00109107 1 0 0
279 2 28 0 0 1 2 8 0.00111175 1 0 0
328 2 27 1 0 1 2 8 0.00331131 1 0 0
329 2 28 1 0 1 2 8 0.00337088 1 0 0
280 2 29 0 0 1 2 8 0.00112905 1 0 0
330 2 29 1 0 1 2 8 0.00341841 1 0 0
281 2 30 0 0 1 2 8 0.00114316 1 0 0
282 2 31 0 0 1 2 8 0.0011545 1 0 0
331 2 30 1 0 1 2 8 0.00345708 1 0 0
332 2 31 1 0 1 2 8 0.00348977 1 0 0
283 2 32 0 0 1 2 8 0.00116172 1 0 0
284 2 33 0 0 1 2 8 0.00116369 1 0 0
333 2 32 1 0 1 2 8 0.00351188 1 0 0
334 2 33 1 0 1 2 8 0.00351875 1 0 0
285 2 34 0 0 1 2 8 0.00116196 1 0 0
335 2 34 1 0 1 2 8 0.0035148 1 0 0
286 2 35 0 0 1 2 8 0.00115966 1 0 0
287 2 36 0 0 1 2 8 0.00115823 1 0 0
336 2 35 1 0 1 2 8 0.0035102 1 0 0
337 2 36 1 0 1 2 8 0.00350936 1 0 0
288 2 37 0 0 1 2 8 0.00115601 1 0 0
289 2 38 0 0 1 2 8 0.00114979 1 0 0
338 2 37 1 0 1 2 8 0.0035067 1 0 0
339 2 38 1 0 1 2 8 0.00349237 1 0 0
290 2 39 0 0 1 2 8 0.00113732 1 0 0
340 2 39 1 0 1 2 8 0.00345949 1 0 0
291 2 40 0 0 1 2 8 0.0011194 1 0 0
292 2 41 0 0 1 2 8 0.00110085 1 0 0
341 2 40 1 0 1 2 8 0.00340938 1 0 0
342 2 41 1 0 1 2 8 0.00335545 1 0 0
293 2 42 0 0 1 2 8 0.00108909 1 0 0
294 2 43 0 0 1 2 8 0.00108945 1 0 0
343 2 42 1 0 1 2 8 0.00332016 1 0 0
344 2 43 1 0 1 2 8 0.00332069 1 0 0
295 2 44 0 0 1 2 8 0.00110069 1 0 0
345 2 44 1 0 1 2 8 0.00335398 1 0 0
296 2 45 0 0 1 2 8 0.00111486 1 0 0
297 2 46 0 0 1 2 8 0.00112274 1 0 0
346 2 45 1 0 1 2 8 0.00339586 1 0 0
347 2 46 1 0 1 2 8 0.00341818 1 0 0
298 2 47 0 0 1 2 8 0.00112048 1 0 0
299 2 48 0 0 1 2 8 0.00111177 1 0 0
348 2 47 1 0 1 2 8 0.00340974 1 0 0
349 2 48 1 0 1 2 8 0.00338231 1 0 0
300 2 49 0 0 1 2 8 0.00110449 1 0 0
350 2 49 1 0 1 2 8 0.00335983 1 0 0
351 2 0 2 0 1 2 8 9.48285e-05 1 0 0
352 2 1 2 0 1 2 8 0.000142414 1 0 0
401 2 0 3 0 1 2 8 0.000190487 1 0 0
402 2 1 3 0 1 2 8 0.000290295 1 0 0
353 2 2 2 0 1 2 8 0.000311531 1 0 0
354 2 3 2 0 1 2 8 0.00065421 1 0 0
403 2 2 3 0 1 2 8 0.000644547 1 0 0
404 2 3 3 0 1 2 8 0.00136018 1 0 0
355 2 4 2 0 1 2 8 0.00121998 1 0 0
405 2 4 3 0 1 2 8 0.00254398 1 0 0
356 2 5 2 0 1 2 8 0.00199749 1 0 0
357 2 6 2 0 1 2 8 0.00287594 1 0 0
406 2 5 3 0 1 2 8 0.00422847 1 0 0
407 2 6 3 0 1 2 8 0.00609749 1 0 0
358 2 7 2 0 1 2 8 0.00373146 1 0 0
359 2 8 2 0 1 2 8 0.00450427 1 0 0
408 2 7 3 0 1 2 8 0.00783665 1 0 0
409 2 8 3 0 1 2 8 0.00941646 1 0 0
360 2 9 2 0 1 2 8 0.00517648 1 0 0
410 2 9 3 0 1 2 8 0.0108241 1 0 0
361 2 10 2 0 1 2 8 0.00575142 1 0 0
362 2 11 2 0 1 2 8 0.0062477 1 0 0
411 2 10 3 0 1 2 8 0.0120592 1 0 0
412 2 11 3 0 1 2 8 0.0131548 1 0 0
363 2 12 2 0 1 2 8 0.00668737 1 0 0
364 2 13 2 0 1 2 8 0.00708099 1 0 0
413 2 12 3 0 1 2 8 0.014146 1 0 0
414 2 13 3 0 1 2 8 0.0150475 1 0 0
365 2 14 2 0 1 2 8 0.00741703 1 0 0
415 2 14 3 0 1 2 8 0.0158374 1 0 0
366 2 15 2 0 1 2 8 0.00767977 1 0 0
367 2 16 2 0 1 2 8 0.00788283 1 0 0
416 2 15 3 0 1 2 8 0.0164777 1 0 0
417 2 16 3 0 1 2 8 0.0169959 1 0 0
368 2 17 2 0 1 2 8 0.00806375 1 0 0
369 2 18 2 0 1 2 8 0.00824163 1 0 0
418 2 17 3 0 1 2 8 0.0174729 1 0 0
419 2 18 3 0 1 2 8 0.0179441 1 0 0
370 2 19 2 0 1 2 8 0.00839669 1 0 0
420 2 19 3 0 1 2 8 0.0183606 1 0 0
371 2 20 2 0 1 2 8 0.00849584 1 0 0
372 2 21 2 0 1 2 8 0.00852735 1 0 0
421 2 20 3 0 1 2 8 0.0186531 1 0 0
422 2 21 3 0 1 2 8 0.0188128 1 0 0
373 2 22 2 0 1 2 8 0.00850467 1 0 0
374 2 23 2 0 1 2 8 0.00845591 1 0 0
423 2 22 3 0 1 2 8 0.0188763 1 0 0
424 2 23 3 0 1 2 8 0.0188765 1 0 0
375 2 24 2 0 1 2 8 0.00842642 1 0 0
425 2 24 3 0 1 2 8 0.0188894 1 0 0
376 2 25 2 0 1 2 8 0.00846484 1 0 0
377 2 26 2 0 1 2 8 0.00858341 1 0 0
426 2 25 3 0 1 2 8 0.019022 1 0 0
427 2 26 3 0 1 2 8 0.0192995 1 0 0
378 2 27 2 0 1 2 8 0.00874445 1 0 0
379 2 28 2 0 1 2 8 0.00889248 1 0 0
428 2 27 3 0 1 2 8 0.0196577 1 0 0
429 2 28 3 0 1 2 8 0.0199725 1 0 0
380 2 29 2 0 1 2 8 0.00900496 1 0 0
430 2 29 3 0 1 2 8 0.0201997 1 0 0
381 2 30 2 0 1 2 8 0.00909738 1 0 0
382 2 31 2 0 1 2 8 0.00918114 1 0 0
431 2 30 3 0 1 2 8 0.0203953 1 0 0
432 2 31 3 0 1 2 8 0.020588 1 0 0
383 2 32 2 0 1 2 8 0.00924249 1 0 0
384 2 33 2 0 1 2 8 0.00926541 1 0 0
433 2 32 3 0 1 2 8 0.0207432 1 0 0
434 2 33 3 0 1 2 8 0.0208149 1 0 0
385 2 34 2 0 1 2 8 0.00926055 1 0 0
435 2 34 3 0 1 2 8 0.0208215 1 0 0
386 2 35 2 0 1 2 8 0.00925671 1 0 0
387 2 36 2 0 1 2 8 0.00926514 1 0 0
436 2 35 3 0 1 2 8 0.0208386 1 0 0
437 2 36 3 0 1 2 8 0.0208887 1 0 0
388 2 37 2 0 1 2 8 0.00926956 1 0 0
389 2 38 2 0 1 2 8 0.00924531 1 0 0
438 2 37 3 0 1 2 8 0.0209272 1 0 0
439 2 38 3 0 1 2 8 0.0209066 1 0 0
390 2 39 2 0 1 2 8 0.00917625 1 0 0
440 2 39 3 0 1 2 8 0.0208054 1 0 0
391 2 40 2 0 1 2 8 0.00906287 1 0 0
392 2 41 2 0 1 2 8 0.00893401 1 0 0
441 2 40 3 0 1 2 8 0.0206187 1 0 0
442 2 41 3 0 1 2 8 0.0203799 1 0 0
393 2 42 2 0 1 2 8 0.00884679 1 0 0
394 2 43 2 0 1 2 8 0.00884727 1 0 0
443 2 42 3 0 1 2 8 0.020213 1 0 0
444 2 43 3 0 1 2 8 0.0202155 1 0 0
395 2 44 2 0 1 2 8 0.0089296 1 0 0
445 2 44 3 0 1 2 8 0.0203805 1 0 0
396 2 45 2 0 1 2 8 0.00903265 1 0 0
397 2 46 2 0 1 2 8 0.00908452 1 0 0
446 2 45 3 0 1 2 8 0.0205863 1 0 0
447 2 46 3 0 1 2 8 0.0206811 1 0 0
398 2 47 2 0 1 2 8 0.0090592 1 0 0
399 2 48 2 0 1 2 8 0.00898826 1 0 0
448 2 47 3 0 1 2 8 0.0206226 1 0 0
449 2 48 3 0 1 2 8 0.020483 1 0 0
400 2 49 2 0 1 2 8 0.00893119 1 0 0
450 2 49 3 0 1 2 8 0.0203682 1 0 0
451 2 0 4 0 1 2 8 0.000338094 1 0 0
452 2 1 4 0 1 2 8 0.000521258 1 0 0
453 2 2 4 0 1 2 8 0.00116653 1 0 0
454 2 3 4 0 1 2 8 0.00243622 1 0 0
455 2 4 4 0 1 2 7 0.00439428 1 0 0
456 2 5 4 0 1 2 6 0.00743452 1 0 0
457 2 6 4 0 1 2 5 0.0105064 1 0 0
506 1 5.4945 4.86856 0 1.0006 2 0 0.0122193 1 0.000534085 0.000888097
507 1 6.49944 4.8649 0 1.02569 2 0 0.0150624 1 -0.00654203 -0.00364839
458 2 7 4 0 1 2 5 0.0131593 1 0 0
459 2 8 4 0 1 2 5 0.0156609 1 0 0
508 1 7.4979 4.86385 0 1.03193 2 0 0.0179168 1 -0.00105606 0.00109333
460 2 9 4 0 1 2 5 0.017961 1 0 0
510 1 8.49629 4.86402 0 1.01036 2 0 0.0206636 1 0.00563645 0.00433649
511 1 9.4952 4.86652 0 1.00136 2 0 0.0232469 1 0.00350446 0.00230854
461 2 10 4 0 1 2 5 0.0200435 1 0 0
462 2 11 4 0 1 2 5 0.0219625 1 0 0
512 1 10.4966 4.86473 0 1.01573 2 0 0.0257215 1 -0.00122561 -0.000384243
513 1 11.4961 4.8636 0 1.01534 2 0 0.0280793 1 -0.000480543 0.00698071
463 2 12 4 0 1 2 5 0.0237405 1 0 0
464 2 13 4 0 1 2 5 0.0253794 1 0 0
514 1 12.4934 4.86638 0 1.01802 2 0 0.0302868 1 0.005714 -0.00136079
465 2 14 4 0 1 2 5 0.0268631 1 0 0
515 1 13.4985 4.86431 0 1.02031 2 0 0.0323497 1 -0.0031534 -0.00302647
516 1 14.5001 4.86518 0 1.0096 2 0 0.0342512 1 -0.00210201 0.000617706
466 2 15 4 0 1 2 5 0.0281301 1 0 0
467 2 16 4 0 1 2 5 0.0292174 1 0 0
518 1 16.4981 4.86581 0 1.02515 2 0 0.0375952 1 0.00363025 -0.00143766
517 1 15.4997 4.86615 0 1.02614 2 0 0.035979 1 -0.00263768 -0.00426264
468 2 17 4 0 1 2 5 0.0302438 1 0 0
469 2 18 4 0 1 2 5 0.03124 1 0 0
519 1 17.5 4.8627 0 1.0239 2 0 0.0391021 1 -0.00270708 0.00993175
470 2 19 4 0 1 2 5 0.0321263 1 0 0
520 1 18.4986 4.86715 0 1.00577 2 0 0.0404846 1 -0.00352258 -0.00846361
521 1 19.4963 4.86438 0 1.00453 2 0 0.0417005 1 0.00590648 -0.00295414
471 2 20 4 0 1 2 5 0.0328038 1 0 0
472 2 21 4 0 1 2 5 0.033296 1 0 0
523 1 21.4993 4.86238 0 1.02268 2 0 0.0437307 1 -0.00549626 0.00250466
522 1 20.496 4.86358 0 1.0139 2 0 0.0427653 1 0.0035756 0.00300451
473 2 22 4 0 1 2 5 0.0336846 1 0 0
474 2 23 4 0 1 2 5 0.0339575 1 0 0
524 1 22.4971 4.86188 0 1.01383 2 0 0.0446183 1 0.00831285 0.0105125
475 2 24 4 0 1 2 5 0.0341928 1 0 0
525 1 23.4983 4.8632 0 1.03669 2 0 0.0454069 1 -0.00235497 -0.00270476
526 1 24.4973 4.864 0 1.04245 2 0 0.0461608 1 0.00414656 -0.00470938
476 2 25 4 0 1 2 5 0.0345625 1 0 0
477 2 26 4 0 1 2 5 0.0350915 1 0 0
528 1 26.4946 4.86402 0 1.04147 2 0 0.0477163 1 0.0107383 0.00773913
527 1 25.4977 4.86482 0 1.03798 2 0 0.0469389 1 -0.00446903 0.00113202
478 2 27 4 0 1 2 5 0.0357288 1 0 0
479 2 28 4 0 1 2 5 0.0362751 1 0 0
529 1 27.4972 4.86326 0 1.0019 2 0 0.0484542 1 0.00178551 0.00677535
480 2 29 4 0 1 2 5 0.0366739 1 0 0
531 1 29.4996 4.86534 0 1.01679 2 0 0.0497443 1 -0.00437854 -0.0014907
530 1 28.4971 4.86703 0 1.02091 2 0 0.0491294 1 0.00185337 -0.00694424
481 2 30 4 0 1 2 5 0.037044 1 0 0
482 2 31 4 0 1 2 5 0.0374249 1 0 0
533 1 31.4992 4.86284 0 1.004 2 0 0.0508538 1 -0.000560434 0.00697503
532 1 30.4982 4.86157 0 1.0182 2 0 0.0503219 1 0.00247318 0.00967278
483 2 32 4 0 1 2 5 0.0377589 1 0 0
484 2 33 4 0 1 2 5 0.0379535 1 0 0
534 1 32.4994 4.86431 0 1.00171 2 0 0.0513214 1 -0.00410987 -0.000915514
485 2 34 4 0 1 2 5 0.0380205 1 0 0
535 1 33.4987 4.86565 0 1.00275 2 0 0.0516734 1 -0.00275819 -0.00720567
536 1 34.5005 4.86354 0 1.0237 2 0 0.0519571 1 -0.00721836 0.00140116
486 2 35 4 0 1 2 5 0.0381195 1 0 0
487 2 36 4 0 1 2 5 0.0382823 1 0 0
538 1 36.4963 4.86628 0 1.01227 2 0 0.0525328 1 0.00177229 0.000668814
537 1 35.4988 4.86353 0 1.0067 2 0 0.0522531 1 -0.00288684 0.0032636
488 2 37 4 0 1 2 5 0.0384099 1 0 0
489 2 38 4 0 1 2 5 0.0384422 1 0 0
539 1 37.4944 4.86761 0 1.00174 2 0 0.0527499 1 0.00507496 0.00236359
490 2 39 4 0 1 2 5 0.0383817 1 0 0
541 1 39.5021 4.86467 0 1.00168 2 0 0.0529202 1 -0.00630302 -0.00698595
540 1 38.499 4.86648 0 1.01715 2 0 0.0528711 1 -0.00484616 -0.00835936
491 2 40 4 0 1 2 5 0.0382132 1 0 0
492 2 41 4 0 1 2 5 0.0379255 1 0 0
542 1 40.5 4.86342 0 1.01016 2 0 0.052909 1 0.00123707 0.00292696
543 1 41.5028 4.86471 0 1.03252 2 0 0.0529015 1 -0.00903424 0.00158678
493 2 42 4 0 1 2 5 0.0377253 1 0 0
494 2 43 4 0 1 2 5 0.0377515 1 0 0
544 1 42.5003 4.86551 0 1.0319 2 0 0.0529716 1 -0.00149777 0.00147778
495 2 44 4 0 1 2 5 0.037993 1 0 0
545 1 43.4972 4.8671 0 1.03659 2 0 0.0531028 1 0.00621789 -0.00103204
546 1 44.4975 4.86535 0 1.01001 2 0 0.0532672 1 0.00182261 0.00312025
496 2 45 4 0 1 2 5 0.0382929 1 0 0
497 2 46 4 0 1 2 5 0.0384231 1 0 0
548 1 46.498 4.8661 0 1.00807 2 0 0.0535442 1 0.00810766 -0.000335301
547 1 45.5012 4.86962 0 1.00173 2 0 0.0534559 1 -0.0069923 -0.00765719
498 2 47 4 0 1 2 5 0.0383461 1 0 0
499 2 48 4 0 1 2 5 0.0381787 1 0 0
549 1 47.4978 4.86476 0 1.02093 2 0 0.053573 1 -0.000769281 -0.00207651
500 2 49 4 0 1 2 5 0.0380398 1 0 0
550 1 48.4996 4.86429 0 1.02225 2 0 0.0536193 1 -0.00371039 -0.00976831
8501 1 49.4986 4.86396 0 1.06187 2 0 0.0537096 1 0.00242612 -0.00816147
501 2 0 5 0 1 2 8 0.000534569 1 0 0
502 2 1 5 0 1 2 8 0.000831891 1 0 0
551 2 0 6 0 1 2 8 0.000763505 1 0 0
552 2 1 6 0 1 2 8 0.00119721 1 0 0
503 2 2 5 0 1 2 8 0.00186985 1 0 0
504 2 3 5 0 1 2 8 0.0038738 1 0 0
553 2 2 6 0 1 2 8 0.00269572 1 0 0
554 2 3 6 0 1 2 8 0.00553712 1 0 0
505 2 4 5 0 1 2 6 0.00686458 1 0 0
555 2 4 6 0 1 2 5 0.00950576 1 0 0
556 1 4.9661 5.7294 0 1.02426 2 0 0.013044 1 0 -5e-05
557 1 5.98553 5.73973 0 1.00456 2 0 0.0165882 1 0 -5e-05
558 1 6.99195 5.73057 0 1.00032 2 0 0.0197535 1 0.00246118 0.00431308
509 1 7.99485 5.72801 0 1.00999 2 0 0.0229491 1 0.000914226 0.0071207
560 1 8.99428 5.73254 0 1.01571 2 0 0.0260119 1 -0.00307369 -0.00883754
561 1 9.99279 5.73324 0 1.04128 2 0 0.0289966 1 -0.00385088 -0.00916548
562 1 10.9894 5.73141 0 1.02468 2 0 0.0318831 1 0.0116673 -0.000348651
563 1 11.9927 5.73134 0 1.00884 2 0 0.0346206 1 -0.00218065 -0.00705284
565 1 12.9939 5.72841 0 1.01555 2 0 0.0372412 1 0.00152339 0.0053947
566 1 13.9931 5.72809 0 1.01485 2 0 0.0397141 1 0.00616483 0.00785765
567 1 14.999 5.7306 0 1.00349 2 0 0.0420213 1 -0.00355008 -0.0033423
568 1 15.9983 5.73125 0 1.02492 2 0 0.0442079 1 -0.00276564 -0.0041058
569 1 17.9979 5.73083 0 1.01386 2 0 0.0481283 1 -0.00385775 -0.00416335
618 1 16.997 5.73091 0 1.00786 2 0 0.04625 1 0.00212538 -0.0083276
570 1 18.9983 5.72965 0 1.00562 2 0 0.0498409 1 -0.0055312 -0.0012471
571 1 19.9944 5.72771 0 1.00943 2 0 0.0514169 1 0.0123654 0.0031644
572 1 20.9986 5.72625 0 1.02492 2 0 0.0529214 1 -0.00315456 0.0031271
573 1 21.9964 5.72626 0 1.00977 2 0 0.0543025 1 0.00627525 0.00658898
574 1 22.9992 5.72717 0 1.00488 2 0 0.0555833 1 -0.011717 -0.000630026
575 1 23.9958 5.72582 0 1.01237 2 0 0.0567847 1 0.00492555 0.0121324
576 1 24.994 5.72808 0 1.01087 2 0 0.0579075 1 0.00394923 0.00370843
577 1 25.992 5.73295 0 1.01133 2 0 0.0589613 1 0.00357353 -0.0087853
579 1 26.9936 5.73089 0 1.01129 2 0 0.0599204 1 0.00352602 -0.00614129
580 1 27.9959 5.7291 0 1.02117 2 0 0.0608204 1 -0.00341781 0.00627769
581 1 28.9952 5.73222 0 1.01861 2 0 0.0616869 1 0.00209273 0.00256044
632 1 29.9948 5.73184 0 1.0167 2 0 0.0624395 1 -0.00229225 -0.001002
582 1 30.9935 5.72792 0 1.0143 2 0 0.0631478 1 -0.00188367 0.00352128
583 1 31.9902 5.73236 0 1.0088 2 0 0.0638001 1 0.00483402 -0.00276739
584 1 32.9932 5.72988 0 1.00514 2 0 0.0644017 1 0.00127089 -0.000835084
585 1 33.9925 5.72934 0 1.02197 2 0 0.0649791 1 0.00364207 0.00594814
586 1 34.992 5.7305 0 1.02669 2 0 0.0654662 1 -0.00987089 -0.00135501
587 1 35.9869 5.73358 0 1.01702 2 0 0.0659035 1 0.0120608 0.00272273
588 1 36.9925 5.73309 0 1.01798 2 0 0.0662465 1 -0.00248971 -0.00583094
589 1 37.9967 5.73295 0 1.01656 2 0 0.0665241 1 -0.00473298 -0.00834761
590 1 39.0002 5.72611 0 1.01208 2 0 0.0667082 1 -0.00131278 0.01368
591 1 39.9986 5.72889 0 1.01334 2 0 0.066903 1 0.00070406 0.000218797
592 1 40.9972 5.72786 0 1.02633 2 0 0.0671535 1 0.00408956 0.00243431
594 1 42.9977 5.73312 0 1.01497 2 0 0.0675037 1 -0.00163861 -0.00260125
593 1 41.999 5.73114 0 1.02837 2 0 0.0673635 1 -0.00147064 -0.000295032
595 1 43.9967 5.7325 0 1.01694 2 0 0.0675569 1 0.00380217 -0.000417806
596 1 45.0002 5.73279 0 1.01116 2 0 0.0676779 1 -0.00816931 -0.00749768
597 1 46.0013 5.73275 0 1.01212 2 0 0.0678807 1 0.0031194 0.00109389
598 1 47.0016 5.73298 0 1.00861 2 0 0.0680231 1 -0.00718914 -0.00284368
599 1 47.9989 5.72621 0 1.02545 2 0 0.0681875 1 0.00316215 0.0112652
600 1 48.9976 5.72512 0 1.00476 2 0 0.0683716 1 0.0041939 0.0157177
10701 1 49.8617 45.4475 0 1.00371 0 0 0.47805 1 -2.27211e-05 -3.82355e-05
601 2 0 7 0 1 2 8 0.00100235 1 0 0
602 2 1 7 0 1 2 8 0.00158287 1 0 0
651 2 0 8 0 1 2 8 0.00122982 1 0 0
652 2 1 8 0 1 2 8 0.00195628 1 0 0
603 2 2 7 0 1 2 8 0.00357249 1 0 0
604 2 3 7 0 1 2 8 0.00731281 1 0 0
653 2 2 8 0 1 2 8 0.00443207 1 0 0
654 2 3 8 0 1 2 8 0.00909314 1 0 0
605 2 4 7 0 1 2 5 0.0123128 1 0 0
655 2 4 8 0 1 2 5 0.0150276 1 0 0
656 1 4.88983 7.46311 0 1.01253 2 0 0.0174254 1 0 -5e-05
606 1 5.42831 6.61932 0 1.01839 2 0 0.0175125 1 -0.00198378 -0.00364002
607 1 6.43219 6.64005 0 1.01626 2 0 0.0211607 1 -0.00323744 -0.00670328
657 1 5.91097 7.49279 0 1.02523 2 0 0.0219822 1 0.00136685 0.00454935
608 1 7.491 6.59544 0 1.01581 2 0 0.0248759 1 0.00138749 0.00155616
609 1 7.99312 7.45983 0 1.00447 2 0 0.0302591 1 0.000943409 0.00336283
658 1 6.99424 7.46306 0 1.00499 2 0 0.0263135 1 -0.000394758 -0.00131236
559 1 8.49328 6.59576 0 1.01669 2 0 0.0283806 1 -0.0032792 -0.00192085
610 1 9.49246 6.59595 0 1.00382 2 0 0.0318396 1 0.00378514 0.00532627
661 1 8.99411 7.45973 0 1.00906 2 0 0.0341665 1 0.00356852 -0.00156314
612 1 9.99486 7.46127 0 1.00002 2 0 0.0380074 1 -0.00307878 -0.000759967
611 1 10.4919 6.59604 0 1.00368 2 0 0.0352201 1 0.00119469 0.00132883
564 1 11.4919 6.59513 0 1.01095 2 0 0.0384887 1 0.00229335 -0.0015825
613 1 10.9931 7.45823 0 1.00877 2 0 0.0418036 1 0.00263441 0.010041
614 1 12.4922 6.59389 0 1.01882 2 0 0.0416499 1 0.000735569 0.00121354
665 1 12.9915 7.4574 0 1.00809 2 0 0.0491114 1 0.000769677 0.00235248
664 1 11.9929 7.46136 0 1.0022 2 0 0.0455117 1 -0.00495994 -0.00776446
615 1 13.4937 6.59456 0 1.00601 2 0 0.0446871 1 -0.00274966 -0.0106601
616 1 14.4947 6.59307 0 1.00878 2 0 0.0475518 1 -0.00222995 -0.00431503
666 1 13.992 7.45637 0 0.997531 2 0 0.0525456 1 0.00344674 0.0094551
667 1 14.9943 7.45652 0 1.00922 2 0 0.0558383 1 -0.000762654 0.0082895
617 1 15.4961 6.59477 0 1.01132 2 0 0.0502846 1 0.00192238 -0.00276956
668 1 15.9948 7.45811 0 1.01232 2 0 0.0589929 1 -0.00406059 -0.00188344
619 1 16.4967 6.59429 0 1.00791 2 0 0.0528845 1 -0.00740551 -0.00112794
669 1 17.4944 6.59378 0 1.0115 2 0 0.0553143 1 0.00953665 0.00281271
719 1 16.9935 7.45623 0 1.0104 2 0 0.0619861 1 0.00564848 0.00129807
720 1 17.997 7.45757 0 1.00384 2 0 0.0647994 1 -0.000248634 -0.00738965
620 1 18.4991 6.59257 0 1.00047 2 0 0.0575755 1 -0.00623739 0.00453913
621 1 19.4978 6.5931 0 1.01086 2 0 0.0596884 1 0.00578321 0.00320241
670 1 18.9972 7.45556 0 1.01205 2 0 0.0674747 1 -0.00502232 0.000390174
671 1 20.0029 7.45682 0 1.01101 2 0 0.0700081 1 -0.0132716 -0.000158511
622 1 20.5009 6.59206 0 1.02282 2 0 0.0617068 1 -0.00604828 -0.00306974
623 1 21.4979 6.59418 0 1.01715 2 0 0.0635788 1 0.00147363 -0.00612517
672 1 20.9985 7.45843 0 1.01032 2 0 0.0723758 1 0.00742658 -0.0026142
673 1 21.9995 7.45731 0 1.00705 2 0 0.0745405 1 -0.00532485 0.00125273
624 1 22.4956 6.59208 0 1.00933 2 0 0.0652671 1 0.00758403 -0.00369877
674 1 22.9978 7.45792 0 1.01197 2 0 0.0765644 1 -0.000467107 0.00263929
625 1 23.4954 6.59245 0 1.01358 2 0 0.0668741 1 0.00241514 0.0001886
626 1 24.4947 6.59248 0 1.01095 2 0 0.0683749 1 -0.00086355 -0.00118802
675 1 23.9967 7.4569 0 1.00974 2 0 0.0784806 1 -0.00775804 0.00527505
676 1 24.9926 7.46168 0 1.01754 2 0 0.08024 1 0.00657559 0.00129363
578 1 26.4944 6.59331 0 1.0136 2 0 0.0710554 1 0.000200611 0.0124236
628 1 25.992 7.46081 0 1.00647 2 0 0.0818567 1 0.00352265 0.00427144
627 1 25.4933 6.59693 0 1.0116 2 0 0.0697686 1 -0.00119943 -0.00159002
629 1 27.4949 6.59659 0 1.00585 2 0 0.0722599 1 -0.00219353 -0.00141758
679 1 27.9935 7.46539 0 1.01276 2 0 0.0847876 1 -0.00382905 -4.99997e-05
678 1 26.9931 7.46066 0 1.01987 2 0 0.0833585 1 -0.000792763 0.00131503
630 1 28.4935 6.59744 0 1.00031 2 0 0.0734019 1 0.00298629 -4.74531e-05
631 1 29.4944 6.59845 0 1.01679 2 0 0.0744459 1 -0.00237359 0.000332305
680 1 28.9916 7.46539 0 1.0041 2 0 0.0861047 1 -0.00365215 -8.80744e-05
681 1 29.9878 7.47046 0 1.0067 2 0 0.0873221 1 0.00161451 -0.00209536
682 1 30.4931 6.59586 0 1.0233 2 0 0.0753598 1 -0.000293803 0.00280879
633 1 31.4908 6.60206 0 1.00197 2 0 0.0762263 1 0.00151525 -0.0053112
732 1 30.9855 7.46517 0 1.02086 2 0 0.0884204 1 0.00554513 0.00149359
683 1 31.9892 7.46545 0 1.00602 2 0 0.0894518 1 0.000268584 0.000424017
684 1 32.4923 6.59368 0 1.01173 2 0 0.0770135 1 -0.00875194 0.00769175
734 1 32.9892 7.46168 0 1.01306 2 0 0.0904221 1 -0.00798179 0.000548827
634 1 33.4872 6.59654 0 1.00318 2 0 0.0777998 1 0.0104632 -5.62996e-05
635 1 34.4855 6.59749 0 1.01335 2 0 0.0785508 1 -0.00164953 -0.00642449
685 1 33.9869 7.46197 0 1.01182 2 0 0.0913262 1 -0.0104155 0.00105614
686 1 34.981 7.46225 0 1.01566 2 0 0.0921859 1 0.0174714 0.00132489
636 1 35.4827 6.59697 0 1.01343 2 0 0.0791694 1 0.00701427 0.00343519
637 1 36.4899 6.59713 0 0.995425 2 0 0.0796925 1 -0.0017886 -0.00174398