ITEM: TIMESTEP
43500
ITEM: NUMBER OF ATOMS
15950
ITEM: BOX BOUNDS pp pp pp
0.0000000000000000e+00 1.0000000000000000e+02
-5.0000000000000000e+00 2.0000000000000000e+02
-5.0000000000000000e-01 5.0000000000000000e-01
ITEM: ATOMS id type x y z c_rho c_phase c_nbond c_temp f_rheo_chi_chi fx fy
1 2 0 -5 0 1 2 8 3.33192e-08 1 0 0
2 2 1 -5 0 1 2 8 4.3081e-08 1 0 0
51 2 0 -4 0 1 2 8 1.40347e-07 1 0 0
52 2 1 -4 0 1 2 8 1.84762e-07 1 0 0
3 2 2 -5 0 1 2 8 7.52459e-08 1 0 0
4 2 3 -5 0 1 2 8 1.33295e-07 1 0 0
53 2 2 -4 0 1 2 8 3.32128e-07 1 0 0
54 2 3 -4 0 1 2 8 5.98965e-07 1 0 0
5 2 4 -5 0 1 2 7 2.24443e-07 1 0 0
55 2 4 -4 0 1 2 8 9.95082e-07 1 0 0
6 2 5 -5 0 1 2 6 3.60601e-07 1 0 0
7 2 6 -5 0 1 2 5 5.11433e-07 1 0 0
56 2 5 -4 0 1 2 8 1.50709e-06 1 0 0
57 2 6 -4 0 1 2 8 2.08178e-06 1 0 0
8 2 7 -5 0 1 2 5 6.52168e-07 1 0 0
9 2 8 -5 0 1 2 5 7.79233e-07 1 0 0
58 2 7 -4 0 1 2 8 2.65701e-06 1 0 0
59 2 8 -4 0 1 2 8 3.18189e-06 1 0 0
10 2 9 -5 0 1 2 5 8.8664e-07 1 0 0
60 2 9 -4 0 1 2 8 3.62669e-06 1 0 0
11 2 10 -5 0 1 2 5 9.73294e-07 1 0 0
12 2 11 -5 0 1 2 5 1.04238e-06 1 0 0
61 2 10 -4 0 1 2 8 3.98687e-06 1 0 0
62 2 11 -4 0 1 2 8 4.27585e-06 1 0 0
13 2 12 -5 0 1 2 5 1.09844e-06 1 0 0
14 2 13 -5 0 1 2 5 1.14465e-06 1 0 0
63 2 12 -4 0 1 2 8 4.51233e-06 1 0 0
64 2 13 -4 0 1 2 8 4.70864e-06 1 0 0
15 2 14 -5 0 1 2 5 1.18193e-06 1 0 0
65 2 14 -4 0 1 2 8 4.86738e-06 1 0 0
16 2 15 -5 0 1 2 5 1.2104e-06 1 0 0
17 2 16 -5 0 1 2 5 1.23117e-06 1 0 0
66 2 15 -4 0 1 2 8 4.98819e-06 1 0 0
67 2 16 -4 0 1 2 8 5.07638e-06 1 0 0
18 2 17 -5 0 1 2 5 1.24628e-06 1 0 0
19 2 18 -5 0 1 2 5 1.25679e-06 1 0 0
68 2 17 -4 0 1 2 8 5.14215e-06 1 0 0
69 2 18 -4 0 1 2 8 5.19095e-06 1 0 0
20 2 19 -5 0 1 2 5 1.26142e-06 1 0 0
70 2 19 -4 0 1 2 8 5.21712e-06 1 0 0
21 2 20 -5 0 1 2 5 1.25773e-06 1 0 0
22 2 21 -5 0 1 2 5 1.24479e-06 1 0 0
71 2 20 -4 0 1 2 8 5.20898e-06 1 0 0
72 2 21 -4 0 1 2 8 5.16133e-06 1 0 0
23 2 22 -5 0 1 2 5 1.22528e-06 1 0 0
24 2 23 -5 0 1 2 5 1.20535e-06 1 0 0
73 2 22 -4 0 1 2 8 5.08452e-06 1 0 0
74 2 23 -4 0 1 2 8 5.00417e-06 1 0 0
25 2 24 -5 0 1 2 5 1.19238e-06 1 0 0
75 2 24 -4 0 1 2 8 4.95176e-06 1 0 0
26 2 25 -5 0 1 2 5 1.19172e-06 1 0 0
27 2 26 -5 0 1 2 5 1.20424e-06 1 0 0
76 2 25 -4 0 1 2 8 4.95054e-06 1 0 0
77 2 26 -4 0 1 2 8 5.00406e-06 1 0 0
28 2 27 -5 0 1 2 5 1.2263e-06 1 0 0
29 2 28 -5 0 1 2 5 1.25233e-06 1 0 0
78 2 27 -4 0 1 2 8 5.0961e-06 1 0 0
79 2 28 -4 0 1 2 8 5.20235e-06 1 0 0
30 2 29 -5 0 1 2 5 1.27764e-06 1 0 0
80 2 29 -4 0 1 2 8 5.30365e-06 1 0 0
31 2 30 -5 0 1 2 5 1.29935e-06 1 0 0
32 2 31 -5 0 1 2 5 1.31564e-06 1 0 0
81 2 30 -4 0 1 2 8 5.38965e-06 1 0 0
82 2 31 -4 0 1 2 8 5.45418e-06 1 0 0
33 2 32 -5 0 1 2 5 1.32525e-06 1 0 0
34 2 33 -5 0 1 2 5 1.32813e-06 1 0 0
83 2 32 -4 0 1 2 8 5.49223e-06 1 0 0
84 2 33 -4 0 1 2 8 5.50324e-06 1 0 0
35 2 34 -5 0 1 2 5 1.32596e-06 1 0 0
85 2 34 -4 0 1 2 8 5.49429e-06 1 0 0
36 2 35 -5 0 1 2 5 1.32117e-06 1 0 0
37 2 36 -5 0 1 2 5 1.31504e-06 1 0 0
86 2 35 -4 0 1 2 8 5.47591e-06 1 0 0
87 2 36 -4 0 1 2 8 5.45348e-06 1 0 0
38 2 37 -5 0 1 2 5 1.30676e-06 1 0 0
39 2 38 -5 0 1 2 5 1.29439e-06 1 0 0
88 2 37 -4 0 1 2 8 5.42285e-06 1 0 0
89 2 38 -4 0 1 2 8 5.3746e-06 1 0 0
40 2 39 -5 0 1 2 5 1.27705e-06 1 0 0
90 2 39 -4 0 1 2 8 5.30378e-06 1 0 0
41 2 40 -5 0 1 2 5 1.25672e-06 1 0 0
42 2 41 -5 0 1 2 5 1.23845e-06 1 0 0
91 2 40 -4 0 1 2 8 5.21812e-06 1 0 0
92 2 41 -4 0 1 2 8 5.13932e-06 1 0 0
43 2 42 -5 0 1 2 5 1.2282e-06 1 0 0
44 2 43 -5 0 1 2 5 1.22932e-06 1 0 0
93 2 42 -4 0 1 2 8 5.09406e-06 1 0 0
94 2 43 -4 0 1 2 8 5.09799e-06 1 0 0
45 2 44 -5 0 1 2 5 1.2398e-06 1 0 0
95 2 44 -4 0 1 2 8 5.14307e-06 1 0 0
46 2 45 -5 0 1 2 5 1.25289e-06 1 0 0
47 2 46 -5 0 1 2 5 1.26112e-06 1 0 0
96 2 45 -4 0 1 2 8 5.19972e-06 1 0 0
97 2 46 -4 0 1 2 8 5.23489e-06 1 0 0
48 2 47 -5 0 1 2 5 1.26107e-06 1 0 0
49 2 48 -5 0 1 2 5 1.25524e-06 1 0 0
98 2 47 -4 0 1 2 8 5.23352e-06 1 0 0
99 2 48 -4 0 1 2 8 5.20706e-06 1 0 0
50 2 49 -5 0 1 2 5 1.24984e-06 1 0 0
100 2 49 -4 0 1 2 8 5.1831e-06 1 0 0
101 2 0 -3 0 1 2 8 5.43715e-07 1 0 0
102 2 1 -3 0 1 2 8 7.30045e-07 1 0 0
151 2 0 -2 0 1 2 8 1.92184e-06 1 0 0
152 2 1 -2 0 1 2 8 2.63548e-06 1 0 0
103 2 2 -3 0 1 2 8 1.35428e-06 1 0 0
104 2 3 -3 0 1 2 8 2.50065e-06 1 0 0
153 2 2 -2 0 1 2 8 5.05325e-06 1 0 0
154 2 3 -2 0 1 2 8 9.57204e-06 1 0 0
105 2 4 -3 0 1 2 8 4.21626e-06 1 0 0
155 2 4 -2 0 1 2 8 1.6442e-05 1 0 0
106 2 5 -3 0 1 2 8 6.42787e-06 1 0 0
107 2 6 -3 0 1 2 8 8.92677e-06 1 0 0
156 2 5 -2 0 1 2 8 2.53864e-05 1 0 0
157 2 6 -2 0 1 2 8 3.55305e-05 1 0 0
108 2 7 -3 0 1 2 8 1.14401e-05 1 0 0
109 2 8 -3 0 1 2 8 1.37335e-05 1 0 0
158 2 7 -2 0 1 2 8 4.57297e-05 1 0 0
159 2 8 -2 0 1 2 8 5.50259e-05 1 0 0
110 2 9 -3 0 1 2 8 1.56776e-05 1 0 0
160 2 9 -2 0 1 2 8 6.29133e-05 1 0 0
111 2 10 -3 0 1 2 8 1.72563e-05 1 0 0
112 2 11 -3 0 1 2 8 1.85308e-05 1 0 0
161 2 10 -2 0 1 2 8 6.93459e-05 1 0 0
162 2 11 -2 0 1 2 8 7.45815e-05 1 0 0
113 2 12 -3 0 1 2 8 1.95837e-05 1 0 0
114 2 13 -3 0 1 2 8 2.04657e-05 1 0 0
163 2 12 -2 0 1 2 8 7.89533e-05 1 0 0
164 2 13 -2 0 1 2 8 8.26541e-05 1 0 0
115 2 14 -3 0 1 2 8 2.11815e-05 1 0 0
165 2 14 -2 0 1 2 8 8.56721e-05 1 0 0
116 2 15 -3 0 1 2 8 2.17243e-05 1 0 0
117 2 16 -3 0 1 2 8 2.21202e-05 1 0 0
166 2 15 -2 0 1 2 8 8.79555e-05 1 0 0
167 2 16 -2 0 1 2 8 8.96227e-05 1 0 0
118 2 17 -3 0 1 2 8 2.2423e-05 1 0 0
119 2 18 -3 0 1 2 8 2.26625e-05 1 0 0
168 2 17 -2 0 1 2 8 9.09326e-05 1 0 0
169 2 18 -2 0 1 2 8 9.20318e-05 1 0 0
120 2 19 -3 0 1 2 8 2.28109e-05 1 0 0
170 2 19 -2 0 1 2 8 9.27938e-05 1 0 0
121 2 20 -3 0 1 2 8 2.28091e-05 1 0 0
122 2 21 -3 0 1 2 8 2.26277e-05 1 0 0
171 2 20 -2 0 1 2 8 9.29454e-05 1 0 0
172 2 21 -2 0 1 2 8 9.23414e-05 1 0 0
123 2 22 -3 0 1 2 8 2.2309e-05 1 0 0
124 2 23 -3 0 1 2 8 2.19662e-05 1 0 0
173 2 22 -2 0 1 2 8 9.11432e-05 1 0 0
174 2 23 -2 0 1 2 8 8.98095e-05 1 0 0
125 2 24 -3 0 1 2 8 2.17421e-05 1 0 0
175 2 24 -2 0 1 2 8 8.89362e-05 1 0 0
126 2 25 -3 0 1 2 8 2.17441e-05 1 0 0
127 2 26 -3 0 1 2 8 2.19885e-05 1 0 0
176 2 25 -2 0 1 2 8 8.8985e-05 1 0 0
177 2 26 -2 0 1 2 8 9.00263e-05 1 0 0
128 2 27 -3 0 1 2 8 2.23972e-05 1 0 0
129 2 28 -3 0 1 2 8 2.28569e-05 1 0 0
178 2 27 -2 0 1 2 8 9.17135e-05 1 0 0
179 2 28 -2 0 1 2 8 9.35536e-05 1 0 0
130 2 29 -3 0 1 2 8 2.32846e-05 1 0 0
180 2 29 -2 0 1 2 8 9.52183e-05 1 0 0
131 2 30 -3 0 1 2 8 2.3644e-05 1 0 0
132 2 31 -3 0 1 2 8 2.39147e-05 1 0 0
181 2 30 -2 0 1 2 8 9.66017e-05 1 0 0
182 2 31 -2 0 1 2 8 9.76549e-05 1 0 0
133 2 32 -3 0 1 2 8 2.40748e-05 1 0 0
134 2 33 -3 0 1 2 8 2.41192e-05 1 0 0
183 2 32 -2 0 1 2 8 9.82856e-05 1 0 0
184 2 33 -2 0 1 2 8 9.84561e-05 1 0 0
135 2 34 -3 0 1 2 8 2.40794e-05 1 0 0
185 2 34 -2 0 1 2 8 9.82962e-05 1 0 0
136 2 35 -3 0 1 2 8 2.40051e-05 1 0 0
137 2 36 -3 0 1 2 8 2.39212e-05 1 0 0
186 2 35 -2 0 1 2 8 9.80249e-05 1 0 0
187 2 36 -2 0 1 2 8 9.77483e-05 1 0 0
138 2 37 -3 0 1 2 8 2.38053e-05 1 0 0
139 2 38 -3 0 1 2 8 2.36096e-05 1 0 0
188 2 37 -2 0 1 2 8 9.73603e-05 1 0 0
189 2 38 -2 0 1 2 8 9.66386e-05 1 0 0
140 2 39 -3 0 1 2 8 2.33056e-05 1 0 0
190 2 39 -2 0 1 2 8 9.54413e-05 1 0 0
141 2 40 -3 0 1 2 8 2.29245e-05 1 0 0
142 2 41 -3 0 1 2 8 2.25648e-05 1 0 0
191 2 40 -2 0 1 2 8 9.38797e-05 1 0 0
192 2 41 -2 0 1 2 8 9.2366e-05 1 0 0
143 2 42 -3 0 1 2 8 2.23535e-05 1 0 0
144 2 43 -3 0 1 2 8 2.23687e-05 1 0 0
193 2 42 -2 0 1 2 8 9.14551e-05 1 0 0
194 2 43 -2 0 1 2 8 9.15066e-05 1 0 0
145 2 44 -3 0 1 2 8 2.25764e-05 1 0 0
195 2 44 -2 0 1 2 8 9.23896e-05 1 0 0
146 2 45 -3 0 1 2 8 2.2838e-05 1 0 0
147 2 46 -3 0 1 2 8 2.29972e-05 1 0 0
196 2 45 -2 0 1 2 8 9.35041e-05 1 0 0
197 2 46 -2 0 1 2 8 9.41665e-05 1 0 0
148 2 47 -3 0 1 2 8 2.29836e-05 1 0 0
149 2 48 -3 0 1 2 8 2.28531e-05 1 0 0
198 2 47 -2 0 1 2 8 9.40737e-05 1 0 0
199 2 48 -2 0 1 2 8 9.34789e-05 1 0 0
150 2 49 -3 0 1 2 8 2.27375e-05 1 0 0
200 2 49 -2 0 1 2 8 9.29631e-05 1 0 0
201 2 0 -1 0 1 2 8 6.14512e-06 1 0 0
202 2 1 -1 0 1 2 8 8.61376e-06 1 0 0
203 2 2 -1 0 1 2 8 1.70808e-05 1 0 0
204 2 3 -1 0 1 2 8 3.32187e-05 1 0 0
205 2 4 -1 0 1 2 8 5.81914e-05 1 0 0
206 2 5 -1 0 1 2 8 9.10565e-05 1 0 0
207 2 6 -1 0 1 2 8 0.000128439 1 0 0
208 2 7 -1 0 1 2 8 0.000165962 1 0 0
209 2 8 -1 0 1 2 8 0.000200115 1 0 0
210 2 9 -1 0 1 2 8 0.000229157 1 0 0
211 2 10 -1 0 1 2 8 0.000253004 1 0 0
212 2 11 -1 0 1 2 8 0.000272615 1 0 0
213 2 12 -1 0 1 2 8 0.000289194 1 0 0
214 2 13 -1 0 1 2 8 0.000303395 1 0 0
215 2 14 -1 0 1 2 8 0.000315055 1 0 0
216 2 15 -1 0 1 2 8 0.00032388 1 0 0
217 2 16 -1 0 1 2 8 0.000330353 1 0 0
218 2 17 -1 0 1 2 8 0.000335591 1 0 0
219 2 18 -1 0 1 2 8 0.000340226 1 0 0
220 2 19 -1 0 1 2 8 0.000343731 1 0 0
221 2 20 -1 0 1 2 8 0.000344979 1 0 0
222 2 21 -1 0 1 2 8 0.000343363 1 0 0
223 2 22 -1 0 1 2 8 0.000339441 1 0 0
224 2 23 -1 0 1 2 8 0.000334874 1 0 0
225 2 24 -1 0 1 2 8 0.000331885 1 0 0
226 2 25 -1 0 1 2 8 0.000332272 1 0 0
227 2 26 -1 0 1 2 8 0.000336325 1 0 0
228 2 27 -1 0 1 2 8 0.000342655 1 0 0
229 2 28 -1 0 1 2 8 0.000349319 1 0 0
230 2 29 -1 0 1 2 8 0.000355148 1 0 0
231 2 30 -1 0 1 2 8 0.000359944 1 0 0
232 2 31 -1 0 1 2 8 0.000363667 1 0 0
233 2 32 -1 0 1 2 8 0.000365951 1 0 0
234 2 33 -1 0 1 2 8 0.000366576 1 0 0
235 2 34 -1 0 1 2 8 0.00036602 1 0 0
236 2 35 -1 0 1 2 8 0.00036516 1 0 0
237 2 36 -1 0 1 2 8 0.000364409 1 0 0
238 2 37 -1 0 1 2 8 0.000363319 1 0 0
239 2 38 -1 0 1 2 8 0.000360975 1 0 0
240 2 39 -1 0 1 2 8 0.000356765 1 0 0
241 2 40 -1 0 1 2 8 0.000351029 1 0 0
242 2 41 -1 0 1 2 8 0.000345303 1 0 0
243 2 42 -1 0 1 2 8 0.000341769 1 0 0
244 2 43 -1 0 1 2 8 0.000341912 1 0 0
245 2 44 -1 0 1 2 8 0.000345289 1 0 0
246 2 45 -1 0 1 2 8 0.000349556 1 0 0
247 2 46 -1 0 1 2 8 0.000352022 1 0 0
248 2 47 -1 0 1 2 8 0.00035152 1 0 0
249 2 48 -1 0 1 2 8 0.000349082 1 0 0
250 2 49 -1 0 1 2 8 0.000347008 1 0 0
251 2 0 0 0 1 2 8 1.76227e-05 1 0 0
252 2 1 0 0 1 2 8 2.52462e-05 1 0 0
301 2 0 1 0 1 2 8 4.49721e-05 1 0 0
302 2 1 1 0 1 2 8 6.57468e-05 1 0 0
253 2 2 0 0 1 2 8 5.17265e-05 1 0 0
254 2 3 0 0 1 2 8 0.000103256 1 0 0
303 2 2 1 0 1 2 8 0.000138717 1 0 0
304 2 3 1 0 1 2 8 0.000283543 1 0 0
255 2 4 0 0 1 2 8 0.00018455 1 0 0
305 2 4 1 0 1 2 8 0.00051668 1 0 0
256 2 5 0 0 1 2 8 0.000292762 1 0 0
257 2 6 0 0 1 2 8 0.00041602 1 0 0
306 2 5 1 0 1 2 8 0.000830871 1 0 0
307 2 6 1 0 1 2 8 0.00118817 1 0 0
258 2 7 0 0 1 2 8 0.000539255 1 0 0
259 2 8 0 0 1 2 8 0.00065123 1 0 0
308 2 7 1 0 1 2 8 0.00154249 1 0 0
309 2 8 1 0 1 2 8 0.00186376 1 0 0
260 2 9 0 0 1 2 8 0.000746864 1 0 0
310 2 9 1 0 1 2 8 0.00214027 1 0 0
261 2 10 0 0 1 2 8 0.000826176 1 0 0
262 2 11 0 0 1 2 8 0.000892268 1 0 0
311 2 10 1 0 1 2 8 0.00237289 1 0 0
312 2 11 1 0 1 2 8 0.00257 1 0 0
263 2 12 0 0 1 2 8 0.000948935 1 0 0
264 2 13 0 0 1 2 8 0.000998115 1 0 0
313 2 12 1 0 1 2 8 0.00274169 1 0 0
314 2 13 1 0 1 2 8 0.00289287 1 0 0
265 2 14 0 0 1 2 8 0.00103887 1 0 0
315 2 14 1 0 1 2 8 0.00301982 1 0 0
266 2 15 0 0 1 2 8 0.00106988 1 0 0
267 2 16 0 0 1 2 8 0.00109287 1 0 0
316 2 15 1 0 1 2 8 0.00311758 1 0 0
317 2 16 1 0 1 2 8 0.00319153 1 0 0
268 2 17 0 0 1 2 8 0.00111206 1 0 0
269 2 18 0 0 1 2 8 0.00112982 1 0 0
318 2 17 1 0 1 2 8 0.00325528 1 0 0
319 2 18 1 0 1 2 8 0.00331624 1 0 0
270 2 19 0 0 1 2 8 0.00114415 1 0 0
320 2 19 1 0 1 2 8 0.00336774 1 0 0
271 2 20 0 0 1 2 8 0.00115099 1 0 0
272 2 21 0 0 1 2 8 0.00114821 1 0 0
321 2 20 1 0 1 2 8 0.00339721 1 0 0
322 2 21 1 0 1 2 8 0.0033988 1 0 0
273 2 22 0 0 1 2 8 0.00113758 1 0 0
274 2 23 0 0 1 2 8 0.00112433 1 0 0
323 2 22 1 0 1 2 8 0.00337758 1 0 0
324 2 23 1 0 1 2 8 0.00334729 1 0 0
275 2 24 0 0 1 2 8 0.00111571 1 0 0
325 2 24 1 0 1 2 8 0.00332805 1 0 0
276 2 25 0 0 1 2 8 0.00111795 1 0 0
277 2 26 0 0 1 2 8 0.00113217 1 0 0
326 2 25 1 0 1 2 8 0.00333862 1 0 0
327 2 26 1 0 1 2 8 0.00338296 1 0 0
278 2 27 0 0 1 2 8 0.00115347 1 0 0
279 2 28 0 0 1 2 8 0.00117501 1 0 0
328 2 27 1 0 1 2 8 0.00344618 1 0 0
329 2 28 1 0 1 2 8 0.00350734 1 0 0
280 2 29 0 0 1 2 8 0.00119311 1 0 0
330 2 29 1 0 1 2 8 0.00355653 1 0 0
281 2 30 0 0 1 2 8 0.0012079 1 0 0
282 2 31 0 0 1 2 8 0.00121974 1 0 0
331 2 30 1 0 1 2 8 0.0035966 1 0 0
332 2 31 1 0 1 2 8 0.00363032 1 0 0
283 2 32 0 0 1 2 8 0.00122732 1 0 0
284 2 33 0 0 1 2 8 0.00122953 1 0 0
333 2 32 1 0 1 2 8 0.00365322 1 0 0
334 2 33 1 0 1 2 8 0.0036608 1 0 0
285 2 34 0 0 1 2 8 0.00122794 1 0 0
335 2 34 1 0 1 2 8 0.00365745 1 0 0
286 2 35 0 0 1 2 8 0.00122569 1 0 0
287 2 36 0 0 1 2 8 0.00122424 1 0 0
336 2 35 1 0 1 2 8 0.00365323 1 0 0
337 2 36 1 0 1 2 8 0.0036525 1 0 0
288 2 37 0 0 1 2 8 0.00122188 1 0 0
289 2 38 0 0 1 2 8 0.00121538 1 0 0
338 2 37 1 0 1 2 8 0.0036497 1 0 0
339 2 38 1 0 1 2 8 0.00363501 1 0 0
290 2 39 0 0 1 2 8 0.00120246 1 0 0
340 2 39 1 0 1 2 8 0.00360157 1 0 0
291 2 40 0 0 1 2 8 0.00118397 1 0 0
292 2 41 0 0 1 2 8 0.0011649 1 0 0
341 2 40 1 0 1 2 8 0.00355087 1 0 0
342 2 41 1 0 1 2 8 0.00349646 1 0 0
293 2 42 0 0 1 2 8 0.0011528 1 0 0
294 2 43 0 0 1 2 8 0.0011531 1 0 0
343 2 42 1 0 1 2 8 0.00346089 1 0 0
344 2 43 1 0 1 2 8 0.00346129 1 0 0
295 2 44 0 0 1 2 8 0.0011645 1 0 0
345 2 44 1 0 1 2 8 0.00349449 1 0 0
296 2 45 0 0 1 2 8 0.0011789 1 0 0
297 2 46 0 0 1 2 8 0.00118695 1 0 0
346 2 45 1 0 1 2 8 0.00353635 1 0 0
347 2 46 1 0 1 2 8 0.00355874 1 0 0
298 2 47 0 0 1 2 8 0.00118471 1 0 0
299 2 48 0 0 1 2 8 0.0011759 1 0 0
348 2 47 1 0 1 2 8 0.00355045 1 0 0
349 2 48 1 0 1 2 8 0.00352319 1 0 0
300 2 49 0 0 1 2 8 0.00116855 1 0 0
350 2 49 1 0 1 2 8 0.00350087 1 0 0
351 2 0 2 0 1 2 8 0.000101546 1 0 0
352 2 1 2 0 1 2 8 0.000151053 1 0 0
401 2 0 3 0 1 2 8 0.00020245 1 0 0
402 2 1 3 0 1 2 8 0.000305339 1 0 0
353 2 2 2 0 1 2 8 0.000326038 1 0 0
354 2 3 2 0 1 2 8 0.000677831 1 0 0
403 2 2 3 0 1 2 8 0.000668215 1 0 0
404 2 3 3 0 1 2 8 0.00139473 1 0 0
355 2 4 2 0 1 2 8 0.00125467 1 0 0
405 2 4 3 0 1 2 8 0.00258712 1 0 0
356 2 5 2 0 1 2 8 0.00204399 1 0 0
357 2 6 2 0 1 2 8 0.00293463 1 0 0
406 2 5 3 0 1 2 8 0.00427506 1 0 0
407 2 6 3 0 1 2 8 0.00614492 1 0 0
358 2 7 2 0 1 2 8 0.0038028 1 0 0
359 2 8 2 0 1 2 8 0.00458862 1 0 0
408 2 7 3 0 1 2 8 0.00788648 1 0 0
409 2 8 3 0 1 2 8 0.00947097 1 0 0
360 2 9 2 0 1 2 8 0.00527404 1 0 0
410 2 9 3 0 1 2 8 0.0108861 1 0 0
361 2 10 2 0 1 2 8 0.00586214 1 0 0
362 2 11 2 0 1 2 8 0.00637108 1 0 0
411 2 10 3 0 1 2 8 0.0121309 1 0 0
412 2 11 3 0 1 2 8 0.0132375 1 0 0
363 2 12 2 0 1 2 8 0.00682232 1 0 0
364 2 13 2 0 1 2 8 0.00722597 1 0 0
413 2 12 3 0 1 2 8 0.0142395 1 0 0
414 2 13 3 0 1 2 8 0.0151504 1 0 0
365 2 14 2 0 1 2 8 0.00757107 1 0 0
415 2 14 3 0 1 2 8 0.0159497 1 0 0
366 2 15 2 0 1 2 8 0.00784296 1 0 0
367 2 16 2 0 1 2 8 0.0080552 1 0 0
416 2 15 3 0 1 2 8 0.0166019 1 0 0
417 2 16 3 0 1 2 8 0.0171343 1 0 0
368 2 17 2 0 1 2 8 0.00824418 1 0 0
369 2 18 2 0 1 2 8 0.0084283 1 0 0
418 2 17 3 0 1 2 8 0.0176237 1 0 0
419 2 18 3 0 1 2 8 0.0181037 1 0 0
370 2 19 2 0 1 2 8 0.00858833 1 0 0
420 2 19 3 0 1 2 8 0.0185275 1 0 0
371 2 20 2 0 1 2 8 0.00869219 1 0 0
372 2 21 2 0 1 2 8 0.00872852 1 0 0
421 2 20 3 0 1 2 8 0.0188283 1 0 0
422 2 21 3 0 1 2 8 0.0189985 1 0 0
373 2 22 2 0 1 2 8 0.00871071 1 0 0
374 2 23 2 0 1 2 8 0.00866684 1 0 0
423 2 22 3 0 1 2 8 0.0190736 1 0 0
424 2 23 3 0 1 2 8 0.0190863 1 0 0
375 2 24 2 0 1 2 8 0.00864189 1 0 0
425 2 24 3 0 1 2 8 0.019111 1 0 0
376 2 25 2 0 1 2 8 0.00868366 1 0 0
377 2 26 2 0 1 2 8 0.00880412 1 0 0
426 2 25 3 0 1 2 8 0.019251 1 0 0
427 2 26 3 0 1 2 8 0.0195307 1 0 0
378 2 27 2 0 1 2 8 0.00896661 1 0 0
379 2 28 2 0 1 2 8 0.00911682 1 0 0
428 2 27 3 0 1 2 8 0.0198888 1 0 0
429 2 28 3 0 1 2 8 0.0202056 1 0 0
380 2 29 2 0 1 2 8 0.00923219 1 0 0
430 2 29 3 0 1 2 8 0.0204376 1 0 0
381 2 30 2 0 1 2 8 0.0093272 1 0 0
382 2 31 2 0 1 2 8 0.00941273 1 0 0
431 2 30 3 0 1 2 8 0.0206378 1 0 0
432 2 31 3 0 1 2 8 0.0208332 1 0 0
383 2 32 2 0 1 2 8 0.00947559 1 0 0
384 2 33 2 0 1 2 8 0.00950036 1 0 0
433 2 32 3 0 1 2 8 0.0209909 1 0 0
434 2 33 3 0 1 2 8 0.0210668 1 0 0
385 2 34 2 0 1 2 8 0.00949749 1 0 0
435 2 34 3 0 1 2 8 0.0210784 1 0 0
386 2 35 2 0 1 2 8 0.00949504 1 0 0
387 2 36 2 0 1 2 8 0.00950405 1 0 0
436 2 35 3 0 1 2 8 0.0210992 1 0 0
437 2 36 3 0 1 2 8 0.0211509 1 0 0
388 2 37 2 0 1 2 8 0.00950856 1 0 0
389 2 38 2 0 1 2 8 0.00948431 1 0 0
438 2 37 3 0 1 2 8 0.0211903 1 0 0
439 2 38 3 0 1 2 8 0.0211711 1 0 0
390 2 39 2 0 1 2 8 0.00941553 1 0 0
440 2 39 3 0 1 2 8 0.021073 1 0 0
391 2 40 2 0 1 2 8 0.00930301 1 0 0
392 2 41 2 0 1 2 8 0.00917551 1 0 0
441 2 40 3 0 1 2 8 0.0208915 1 0 0
442 2 41 3 0 1 2 8 0.0206596 1 0 0
393 2 42 2 0 1 2 8 0.00908935 1 0 0
394 2 43 2 0 1 2 8 0.00908972 1 0 0
443 2 42 3 0 1 2 8 0.0204978 1 0 0
444 2 43 3 0 1 2 8 0.0205009 1 0 0
395 2 44 2 0 1 2 8 0.00917069 1 0 0
445 2 44 3 0 1 2 8 0.0206618 1 0 0
396 2 45 2 0 1 2 8 0.00927213 1 0 0
397 2 46 2 0 1 2 8 0.00932345 1 0 0
446 2 45 3 0 1 2 8 0.0208624 1 0 0
447 2 46 3 0 1 2 8 0.0209555 1 0 0
398 2 47 2 0 1 2 8 0.00929897 1 0 0
399 2 48 2 0 1 2 8 0.00922964 1 0 0
448 2 47 3 0 1 2 8 0.0209001 1 0 0
449 2 48 3 0 1 2 8 0.020766 1 0 0
400 2 49 2 0 1 2 8 0.00917395 1 0 0
450 2 49 3 0 1 2 8 0.0206556 1 0 0
451 2 0 4 0 1 2 8 0.000357319 1 0 0
452 2 1 4 0 1 2 8 0.000544817 1 0 0
453 2 2 4 0 1 2 8 0.00120061 1 0 0
454 2 3 4 0 1 2 8 0.00247824 1 0 0
455 2 4 4 0 1 2 7 0.00443253 1 0 0
456 2 5 4 0 1 2 6 0.0074507 1 0 0
457 2 6 4 0 1 2 5 0.0104958 1 0 0
506 1 5.49687 4.86431 0 1.0006 2 0 0.0122031 1 0.00166332 0.00126585
507 1 6.49751 4.8654 0 1.02569 2 0 0.0150262 1 -0.00263489 0.000977176
458 2 7 4 0 1 2 5 0.013127 1 0 0
459 2 8 4 0 1 2 5 0.0156104 1 0 0
508 1 7.4959 4.86372 0 1.03193 2 0 0.0178306 1 0.00460369 0.00600663
460 2 9 4 0 1 2 5 0.0178975 1 0 0
510 1 8.49484 4.86446 0 1.01036 2 0 0.0205455 1 0.00601574 0.00676007
511 1 9.49711 4.86537 0 1.00136 2 0 0.0231083 1 0.00186042 0.0031913
461 2 10 4 0 1 2 5 0.0199721 1 0 0
462 2 11 4 0 1 2 5 0.0218865 1 0 0
512 1 10.4991 4.8652 0 1.01573 2 0 0.025561 1 -0.000940539 -0.000268787
513 1 11.4977 4.865 0 1.01534 2 0 0.0279007 1 0.00228745 -0.00252397
463 2 12 4 0 1 2 5 0.0236615 1 0 0
464 2 13 4 0 1 2 5 0.0252979 1 0 0
514 1 12.4975 4.86451 0 1.01802 2 0 0.0300911 1 0.00354403 -0.0030825
465 2 14 4 0 1 2 5 0.0267812 1 0 0
515 1 13.498 4.86399 0 1.02031 2 0 0.0321434 1 0.00114018 -0.00177404
516 1 14.4996 4.86372 0 1.0096 2 0 0.0340364 1 -0.00728502 -0.00154225
466 2 15 4 0 1 2 5 0.0280536 1 0 0
467 2 16 4 0 1 2 5 0.0291513 1 0 0
518 1 16.4984 4.86369 0 1.02515 2 0 0.037376 1 0.00244006 -0.00486294
517 1 15.4971 4.86264 0 1.02614 2 0 0.0357609 1 0.00654231 0.00336817
468 2 17 4 0 1 2 5 0.030187 1 0 0
469 2 18 4 0 1 2 5 0.0311885 1 0 0
519 1 17.4992 4.86132 0 1.0239 2 0 0.0388907 1 0.00119479 0.00621761
470 2 19 4 0 1 2 5 0.0320797 1 0 0
520 1 18.5008 4.8626 0 1.00577 2 0 0.0402782 1 -0.00350599 -0.00178177
521 1 19.4995 4.86284 0 1.00453 2 0 0.0415065 1 0.00424728 -0.00179968
471 2 20 4 0 1 2 5 0.0327665 1 0 0
472 2 21 4 0 1 2 5 0.0332728 1 0 0
523 1 21.5041 4.86273 0 1.02268 2 0 0.0435611 1 -0.00611526 -0.00302177
522 1 20.4992 4.86297 0 1.0139 2 0 0.0425775 1 0.00376372 -0.0018748
473 2 22 4 0 1 2 5 0.0336776 1 0 0
474 2 23 4 0 1 2 5 0.0339692 1 0 0
524 1 22.5023 4.86292 0 1.01383 2 0 0.0444574 1 0.00215144 -0.00299005
475 2 24 4 0 1 2 5 0.034223 1 0 0
525 1 23.501 4.86205 0 1.03669 2 0 0.0452563 1 0.00341285 0.00419575
526 1 24.5008 4.86216 0 1.04245 2 0 0.0460275 1 0.00406363 0.00230138
476 2 25 4 0 1 2 5 0.0346043 1 0 0
477 2 26 4 0 1 2 5 0.0351364 1 0 0
528 1 26.5013 4.86299 0 1.04147 2 0 0.0476097 1 0.00318129 9.32509e-05
527 1 25.5017 4.86295 0 1.03798 2 0 0.0468142 1 0.000333348 -0.00168653
478 2 27 4 0 1 2 5 0.0357725 1 0 0
479 2 28 4 0 1 2 5 0.0363209 1 0 0
529 1 27.5035 4.86386 0 1.0019 2 0 0.0483592 1 -0.00195715 -0.000718785
480 2 29 4 0 1 2 5 0.0367269 1 0 0
531 1 29.5019 4.86471 0 1.01679 2 0 0.0496629 1 0.00112378 -0.00453598
530 1 28.5027 4.86415 0 1.02091 2 0 0.0490421 1 0.000254947 0.000447335
481 2 30 4 0 1 2 5 0.0371041 1 0 0
482 2 31 4 0 1 2 5 0.0374895 1 0 0
533 1 31.5003 4.86252 0 1.004 2 0 0.0507854 1 0.00481461 0.00536319
532 1 30.5016 4.86349 0 1.0182 2 0 0.050242 1 -0.00239805 0.00184693
483 2 32 4 0 1 2 5 0.0378278 1 0 0
484 2 33 4 0 1 2 5 0.0380295 1 0 0
534 1 32.5004 4.86241 0 1.00171 2 0 0.0512429 1 -0.00314592 0.00474255
485 2 34 4 0 1 2 5 0.0381056 1 0 0
535 1 33.4982 4.86351 0 1.00275 2 0 0.0515884 1 0.00840331 -0.00125323
536 1 34.4995 4.86336 0 1.0237 2 0 0.0518712 1 0.00186881 0.000116973
486 2 35 4 0 1 2 5 0.0382112 1 0 0
487 2 36 4 0 1 2 5 0.0383772 1 0 0
538 1 36.5 4.86298 0 1.01227 2 0 0.0524565 1 0.00343989 0.000662417
537 1 35.5006 4.86264 0 1.0067 2 0 0.0521718 1 -0.002212 0.00187001
488 2 37 4 0 1 2 5 0.0385073 1 0 0
489 2 38 4 0 1 2 5 0.0385434 1 0 0
539 1 37.4999 4.86266 0 1.00174 2 0 0.05266 1 0.00159576 -0.000632434
490 2 39 4 0 1 2 5 0.0384894 1 0 0
541 1 39.5015 4.86235 0 1.00168 2 0 0.0528564 1 0.00139961 0.00251452
540 1 38.5018 4.86303 0 1.01715 2 0 0.0527944 1 -0.00105906 -0.00268342
491 2 40 4 0 1 2 5 0.0383308 1 0 0
492 2 41 4 0 1 2 5 0.0380564 1 0 0
542 1 40.5024 4.86295 0 1.01016 2 0 0.0528592 1 -0.000245443 0.001242
543 1 41.5022 4.86216 0 1.03252 2 0 0.0528661 1 0.00180751 0.00509605
493 2 42 4 0 1 2 5 0.0378667 1 0 0
494 2 43 4 0 1 2 5 0.0378953 1 0 0
544 1 42.5026 4.86364 0 1.0319 2 0 0.0529507 1 0.000760679 0.0001665
495 2 44 4 0 1 2 5 0.0381316 1 0 0
545 1 43.5032 4.86437 0 1.03659 2 0 0.0530951 1 -0.0062969 -0.00571917
546 1 44.5015 4.86359 0 1.01001 2 0 0.0532675 1 0.00528034 6.4481e-05
496 2 45 4 0 1 2 5 0.0384245 1 0 0
497 2 46 4 0 1 2 5 0.0385536 1 0 0
548 1 46.501 4.86315 0 1.00807 2 0 0.0535617 1 0.00153159 0.0036916
547 1 45.5013 4.86325 0 1.00173 2 0 0.0534471 1 0.000209616 0.00386622
498 2 47 4 0 1 2 5 0.038483 1 0 0
499 2 48 4 0 1 2 5 0.038325 1 0 0
549 1 47.5009 4.86384 0 1.02093 2 0 0.0535962 1 -0.000206222 -0.00131944
500 2 49 4 0 1 2 5 0.0381935 1 0 0
550 1 48.5003 4.86381 0 1.02225 2 0 0.0536532 1 -5.23595e-05 -6.58521e-05
8501 1 49.5 4.86262 0 1.06187 2 0 0.0537471 1 0.00220974 0.0041421
501 2 0 5 0 1 2 8 0.000562875 1 0 0
502 2 1 5 0 1 2 8 0.0008658 1 0 0
551 2 0 6 0 1 2 8 0.000802248 1 0 0
552 2 1 6 0 1 2 8 0.00124294 1 0 0
503 2 2 5 0 1 2 8 0.00191499 1 0 0
504 2 3 5 0 1 2 8 0.00391865 1 0 0
553 2 2 6 0 1 2 8 0.00275294 1 0 0
554 2 3 6 0 1 2 8 0.00558349 1 0 0
505 2 4 5 0 1 2 6 0.00688305 1 0 0
555 2 4 6 0 1 2 5 0.00950125 1 0 0
556 1 4.95646 5.70519 0 1.02426 2 0 0.0128891 1 -0.000465336 0.000674058
557 1 5.98926 5.73254 0 1.00456 2 0 0.0165549 1 -0.000989496 -0.00172428
558 1 6.99007 5.73431 0 1.00032 2 0 0.0196546 1 -0.000272755 -0.00451782
509 1 7.99229 5.7312 0 1.00999 2 0 0.0227717 1 -9.08091e-05 -0.00467405
560 1 8.9955 5.73061 0 1.01571 2 0 0.0258129 1 -0.000655572 -0.00217483
561 1 9.99926 5.72999 0 1.04128 2 0 0.0287671 1 -0.00312724 -0.00642828
562 1 10.9989 5.73085 0 1.02468 2 0 0.0316159 1 -0.00329022 -0.00927921
563 1 11.9979 5.72785 0 1.00884 2 0 0.0343226 1 -0.000149978 0.00347913
565 1 12.9981 5.72804 0 1.01555 2 0 0.0369152 1 -0.00334165 0.00130995
566 1 13.9974 5.72719 0 1.01485 2 0 0.0393692 1 -0.00171849 -0.000752054
567 1 14.9967 5.72708 0 1.00349 2 0 0.0416599 1 0.00184065 -0.0022093
568 1 15.998 5.72503 0 1.02492 2 0 0.043838 1 -0.00329659 0.00757594
569 1 18.0003 5.72431 0 1.01386 2 0 0.0477621 1 -0.00221893 0.00144048
618 1 17.0003 5.72518 0 1.00786 2 0 0.0458788 1 -0.000232598 -0.003865
570 1 19.0006 5.72474 0 1.00562 2 0 0.0494811 1 0.0019203 0.00189043
571 1 20.0013 5.72506 0 1.00943 2 0 0.0510685 1 0.000526397 0.00113432
572 1 21.0043 5.72382 0 1.02492 2 0 0.0525759 1 0.00011406 0.000977302
573 1 22.0053 5.72455 0 1.00977 2 0 0.0539709 1 -0.00253064 0.00153478
574 1 23.004 5.72591 0 1.00488 2 0 0.0552579 1 0.00363398 -0.00605502
575 1 24.0046 5.72476 0 1.01237 2 0 0.0564781 1 -0.000321556 0.00252292
576 1 25.0047 5.72542 0 1.01087 2 0 0.0576133 1 -0.00463178 -0.00209577
577 1 26.0043 5.72553 0 1.01133 2 0 0.0586759 1 0.0024361 0.00228279
579 1 27.0047 5.72624 0 1.01129 2 0 0.0596495 1 6.60201e-05 0.000294235
580 1 28.0052 5.72846 0 1.02117 2 0 0.0605869 1 -0.000605964 -0.00581971
581 1 29.0051 5.72855 0 1.01861 2 0 0.061463 1 -0.00442681 7.37963e-05
632 1 30.0037 5.7281 0 1.0167 2 0 0.0622232 1 0.00136912 0.000224255
582 1 31.0036 5.72721 0 1.0143 2 0 0.0629343 1 -0.00302638 -0.000160431
583 1 32.0028 5.72691 0 1.0088 2 0 0.0635804 1 -0.0037358 -0.00246539
584 1 33.001 5.72695 0 1.00514 2 0 0.0641618 1 0.000416113 0.00228411
585 1 34.0005 5.72657 0 1.02197 2 0 0.0647097 1 0.000275552 0.00393335
586 1 35.0013 5.7265 0 1.02669 2 0 0.0651837 1 -0.000583115 -0.000745148
587 1 36.0011 5.72548 0 1.01702 2 0 0.065614 1 0.000957073 0.000451645
588 1 37.0027 5.72598 0 1.01798 2 0 0.0659636 1 -0.000948012 -0.00359122
589 1 38.0021 5.72462 0 1.01656 2 0 0.0662319 1 0.00116704 0.00343787
590 1 39.0031 5.72515 0 1.01208 2 0 0.0664438 1 -0.000190661 -0.00243648
591 1 40.0036 5.72565 0 1.01334 2 0 0.066645 1 -0.00143715 -0.00234857
592 1 41.0057 5.72585 0 1.02633 2 0 0.0669099 1 0.000161794 -0.00208556
594 1 43.0052 5.7278 0 1.01497 2 0 0.0672967 1 -0.00517556 -0.00248495
593 1 42.0052 5.72693 0 1.02837 2 0 0.067143 1 -0.002334 -0.00174237
595 1 44.0038 5.72654 0 1.01694 2 0 0.0673833 1 0.00249701 0.00528331
596 1 45.0037 5.72798 0 1.01116 2 0 0.067499 1 -0.00221893 -0.00350732
597 1 46.0034 5.72777 0 1.01212 2 0 0.0677027 1 -0.00199349 0.000660567
598 1 47.003 5.72753 0 1.00861 2 0 0.0678903 1 -0.0066339 0.000682855
599 1 48.001 5.72815 0 1.02545 2 0 0.0680733 1 0.00274321 -0.00213509
600 1 49.0016 5.72676 0 1.00476 2 0 0.06827 1 -0.0026925 0.00212391
601 2 0 7 0 1 2 8 0.00105221 1 0 0
602 2 1 7 0 1 2 8 0.00164134 1 0 0
651 2 0 8 0 1 2 8 0.00129071 1 0 0
652 2 1 8 0 1 2 8 0.00202766 1 0 0
603 2 2 7 0 1 2 8 0.00364301 1 0 0
604 2 3 7 0 1 2 8 0.00736143 1 0 0
653 2 2 8 0 1 2 8 0.00451673 1 0 0
654 2 3 8 0 1 2 8 0.00914526 1 0 0
605 2 4 7 0 1 2 5 0.0122856 1 0 0
655 2 4 8 0 1 2 5 0.0149813 1 0 0
656 1 4.89815 7.476 0 1.01253 2 0 0.0173069 1 0 -5e-05
606 1 5.4561 6.5936 0 1.01839 2 0 0.0174174 1 0 -5e-05
607 1 6.48645 6.59688 0 1.01626 2 0 0.0211049 1 0.000392341 0.00476498
657 1 5.9354 7.47282 0 1.02523 2 0 0.0218882 1 0 -5e-05
608 1 7.49257 6.5959 0 1.01581 2 0 0.0246226 1 0.00204419 -0.00385585
609 1 7.9921 7.45907 0 1.00447 2 0 0.0299311 1 0.00425875 0.00334314
658 1 6.99252 7.45793 0 1.00499 2 0 0.0260501 1 -0.00472071 0.00498115
559 1 8.49279 6.59473 0 1.01669 2 0 0.0281072 1 0.00227636 0.00105278
610 1 9.49872 6.59368 0 1.00382 2 0 0.0315467 1 -0.00154027 -0.00279991
661 1 8.99901 7.4566 0 1.00906 2 0 0.0338004 1 -0.00326943 -3.1758e-05
612 1 9.99693 7.45906 0 1.00002 2 0 0.037593 1 0.00541467 0.0012815
611 1 10.4977 6.59322 0 1.00368 2 0 0.0348778 1 0.00159287 0.00860982
564 1 11.4974 6.59317 0 1.01095 2 0 0.0380958 1 -0.00190644 0.00348167
613 1 10.9965 7.45906 0 1.00877 2 0 0.0413281 1 -0.00325041 -0.00220169
614 1 12.4955 6.59201 0 1.01882 2 0 0.0412129 1 0.00461807 0.0030856
665 1 12.9952 7.45653 0 1.00809 2 0 0.0485243 1 -0.00342982 -0.00375
664 1 11.9951 7.45788 0 1.0022 2 0 0.0449777 1 0.00230702 -0.0020158
615 1 13.4965 6.59221 0 1.00601 2 0 0.0442186 1 -0.0042765 -0.00502819
616 1 14.4954 6.58999 0 1.00878 2 0 0.0470588 1 0.00330878 0.00421868
666 1 13.9949 7.45358 0 0.997531 2 0 0.0519227 1 -0.000964628 0.00337287
667 1 14.9964 7.45368 0 1.00922 2 0 0.0551931 1 -0.00427214 -0.00021335
617 1 15.4949 6.58937 0 1.01132 2 0 0.0497706 1 0.0034299 -0.00333364
668 1 15.9969 7.44983 0 1.01232 2 0 0.0583248 1 0.00234144 0.00203553
619 1 16.5003 6.58725 0 1.00791 2 0 0.0523617 1 -0.00627434 0.00167234
669 1 17.4988 6.58721 0 1.0115 2 0 0.0547955 1 0.00356184 -0.000712269
719 1 16.9987 7.4504 0 1.0104 2 0 0.0613163 1 0.000281249 -0.000453859
720 1 18 7.44785 0 1.00384 2 0 0.0641421 1 0.00364667 0.00273685
620 1 18.5019 6.58627 0 1.00047 2 0 0.057062 1 -0.00173646 0.00250876
621 1 19.503 6.58708 0 1.01086 2 0 0.0591814 1 0.00200701 -0.000654879
670 1 19.0044 7.44755 0 1.01205 2 0 0.0668192 1 0.0021596 0.00342204
671 1 20.0091 7.44823 0 1.01101 2 0 0.0693626 1 -0.00066292 -0.00162197
622 1 20.5062 6.58611 0 1.02282 2 0 0.0612053 1 0.00110843 -0.000357277
623 1 21.5075 6.58616 0 1.01715 2 0 0.0630818 1 -0.00329321 0.00270745
672 1 21.0088 7.44909 0 1.01032 2 0 0.0717298 1 0.00128181 -0.00165474
673 1 22.0097 7.44911 0 1.00705 2 0 0.0739082 1 -0.00369029 0.00608769
624 1 22.5066 6.58697 0 1.00933 2 0 0.064785 1 0.00153012 0.0031944
674 1 23.0083 7.45048 0 1.01197 2 0 0.0759451 1 0.00131647 -0.00259567
625 1 23.5062 6.58719 0 1.01358 2 0 0.0664015 1 0.00126954 0.00269335
626 1 24.5068 6.58893 0 1.01095 2 0 0.0679204 1 -0.000364268 -0.00446172
675 1 24.0081 7.44987 0 1.00974 2 0 0.0778783 1 0.000782946 0.00284761
676 1 25.0099 7.45169 0 1.01754 2 0 0.0796608 1 -0.000685096 -0.00235149
578 1 26.5073 6.58954 0 1.0136 2 0 0.0706362 1 -0.00121145 -0.00280706
628 1 26.0095 7.45166 0 1.00647 2 0 0.0813072 1 -0.00251671 0.000801487
627 1 25.506 6.58728 0 1.0116 2 0 0.0693295 1 0.0030485 0.00728869
629 1 27.5067 6.59042 0 1.00585 2 0 0.0718703 1 -0.00192044 0.00245796
679 1 28.0084 7.45548 0 1.01276 2 0 0.0843141 1 -0.00196161 -0.00347824
678 1 27.0086 7.4536 0 1.01987 2 0 0.0828558 1 0.00128995 0.000357692
630 1 28.5053 6.59185 0 1.00031 2 0 0.0730557 1 0.0050029 7.24188e-05
631 1 29.5053 6.59314 0 1.01679 2 0 0.0741116 1 0.000933373 -0.00572999
680 1 29.0078 7.45524 0 1.0041 2 0 0.085675 1 -0.00310303 0.00279328
681 1 30.0065 7.45683 0 1.0067 2 0 0.0869186 1 0.00284964 -0.00377903
682 1 30.5045 6.59157 0 1.0233 2 0 0.0750341 1 0.000328675 0.00045225
633 1 31.5038 6.59082 0 1.00197 2 0 0.0758716 1 -0.00162305 -0.00161954
732 1 31.0061 7.45464 0 1.02086 2 0 0.0880037 1 -0.00498747 0.0035154
683 1 32.0045 7.45403 0 1.00602 2 0 0.0889693 1 -0.001202 0.00605381
684 1 32.5021 6.59132 0 1.01173 2 0 0.0766466 1 0.00417237 -0.00334671
734 1 33.0028 7.45516 0 1.01306 2 0 0.089876 1 0.00370018 0.000117317
634 1 33.5012 6.59136 0 1.00318 2 0 0.0773886 1 0.00294596 -0.00247884
635 1 34.5027 6.59063 0 1.01335 2 0 0.0780873 1 -0.00102333 -0.00280782
685 1 34.0038 7.45427 0 1.01182 2 0 0.090724 1 -0.00066941 -0.000580228
686 1 35.0057 7.45267 0 1.01566 2 0 0.0914948 1 -0.00386358 -0.00151527
636 1 35.5039 6.58886 0 1.01343 2 0 0.0786818 1 -0.00221171 -0.00078816
637 1 36.5042 6.58724 0 0.995425 2 0 0.0791798 1 -0.0028617 0.00319427