ITEM: TIMESTEP
27500
ITEM: NUMBER OF ATOMS
15950
ITEM: BOX BOUNDS pp pp pp
0.0000000000000000e+00 1.0000000000000000e+02
-5.0000000000000000e+00 2.0000000000000000e+02
-5.0000000000000000e-01 5.0000000000000000e-01
ITEM: ATOMS id type x y z c_rho c_phase c_nbond c_temp f_rheo_chi_chi fx fy
1 2 0 -5 0 1 2 8 1.41174e-09 1 0 0
2 2 1 -5 0 1 2 8 1.99996e-09 1 0 0
51 2 0 -4 0 1 2 8 7.92085e-09 1 0 0
52 2 1 -4 0 1 2 8 1.15472e-08 1 0 0
3 2 2 -5 0 1 2 8 3.983e-09 1 0 0
4 2 3 -5 0 1 2 8 7.72068e-09 1 0 0
53 2 2 -4 0 1 2 8 2.39644e-08 1 0 0
54 2 3 -4 0 1 2 8 4.77702e-08 1 0 0
5 2 4 -5 0 1 2 7 1.36888e-08 1 0 0
55 2 4 -4 0 1 2 8 8.47665e-08 1 0 0
6 2 5 -5 0 1 2 6 2.23739e-08 1 0 0
7 2 6 -5 0 1 2 5 3.20119e-08 1 0 0
56 2 5 -4 0 1 2 8 1.33636e-07 1 0 0
57 2 6 -4 0 1 2 8 1.88595e-07 1 0 0
8 2 7 -5 0 1 2 5 4.09973e-08 1 0 0
9 2 8 -5 0 1 2 5 4.87678e-08 1 0 0
58 2 7 -4 0 1 2 8 2.42414e-07 1 0 0
59 2 8 -4 0 1 2 8 2.89227e-07 1 0 0
10 2 9 -5 0 1 2 5 5.48877e-08 1 0 0
60 2 9 -4 0 1 2 8 3.26119e-07 1 0 0
11 2 10 -5 0 1 2 5 5.94111e-08 1 0 0
12 2 11 -5 0 1 2 5 6.27634e-08 1 0 0
61 2 10 -4 0 1 2 8 3.53434e-07 1 0 0
62 2 11 -4 0 1 2 8 3.73772e-07 1 0 0
13 2 12 -5 0 1 2 5 6.54605e-08 1 0 0
14 2 13 -5 0 1 2 5 6.78121e-08 1 0 0
63 2 12 -4 0 1 2 8 3.90287e-07 1 0 0
64 2 13 -4 0 1 2 8 4.04811e-07 1 0 0
15 2 14 -5 0 1 2 5 6.98036e-08 1 0 0
65 2 14 -4 0 1 2 8 4.17068e-07 1 0 0
16 2 15 -5 0 1 2 5 7.12861e-08 1 0 0
17 2 16 -5 0 1 2 5 7.22642e-08 1 0 0
66 2 15 -4 0 1 2 8 4.25978e-07 1 0 0
67 2 16 -4 0 1 2 8 4.31675e-07 1 0 0
18 2 17 -5 0 1 2 5 7.29252e-08 1 0 0
19 2 18 -5 0 1 2 5 7.33872e-08 1 0 0
68 2 17 -4 0 1 2 8 4.35625e-07 1 0 0
69 2 18 -4 0 1 2 8 4.38757e-07 1 0 0
20 2 19 -5 0 1 2 5 7.35113e-08 1 0 0
70 2 19 -4 0 1 2 8 4.40128e-07 1 0 0
21 2 20 -5 0 1 2 5 7.30171e-08 1 0 0
22 2 21 -5 0 1 2 5 7.17772e-08 1 0 0
71 2 20 -4 0 1 2 8 4.37763e-07 1 0 0
72 2 21 -4 0 1 2 8 4.30672e-07 1 0 0
23 2 22 -5 0 1 2 5 7.00078e-08 1 0 0
24 2 23 -5 0 1 2 5 6.82292e-08 1 0 0
73 2 22 -4 0 1 2 8 4.20091e-07 1 0 0
74 2 23 -4 0 1 2 8 4.09224e-07 1 0 0
25 2 24 -5 0 1 2 5 6.70553e-08 1 0 0
75 2 24 -4 0 1 2 8 4.01972e-07 1 0 0
26 2 25 -5 0 1 2 5 6.69151e-08 1 0 0
27 2 26 -5 0 1 2 5 6.7841e-08 1 0 0
76 2 25 -4 0 1 2 8 4.01152e-07 1 0 0
77 2 26 -4 0 1 2 8 4.06992e-07 1 0 0
28 2 27 -5 0 1 2 5 6.94887e-08 1 0 0
29 2 28 -5 0 1 2 5 7.13963e-08 1 0 0
78 2 27 -4 0 1 2 8 4.17162e-07 1 0 0
79 2 28 -4 0 1 2 8 4.28598e-07 1 0 0
30 2 29 -5 0 1 2 5 7.32407e-08 1 0 0
80 2 29 -4 0 1 2 8 4.39359e-07 1 0 0
31 2 30 -5 0 1 2 5 7.48571e-08 1 0 0
32 2 31 -5 0 1 2 5 7.6094e-08 1 0 0
81 2 30 -4 0 1 2 8 4.48705e-07 1 0 0
82 2 31 -4 0 1 2 8 4.55912e-07 1 0 0
33 2 32 -5 0 1 2 5 7.67779e-08 1 0 0
34 2 33 -5 0 1 2 5 7.68597e-08 1 0 0
83 2 32 -4 0 1 2 8 4.59886e-07 1 0 0
84 2 33 -4 0 1 2 8 4.60222e-07 1 0 0
35 2 34 -5 0 1 2 5 7.65227e-08 1 0 0
85 2 34 -4 0 1 2 8 4.58066e-07 1 0 0
36 2 35 -5 0 1 2 5 7.60565e-08 1 0 0
37 2 36 -5 0 1 2 5 7.56149e-08 1 0 0
86 2 35 -4 0 1 2 8 4.5531e-07 1 0 0
87 2 36 -4 0 1 2 8 4.52923e-07 1 0 0
38 2 37 -5 0 1 2 5 7.51151e-08 1 0 0
39 2 38 -5 0 1 2 5 7.43544e-08 1 0 0
88 2 37 -4 0 1 2 8 4.50276e-07 1 0 0
89 2 38 -4 0 1 2 8 4.45945e-07 1 0 0
40 2 39 -5 0 1 2 5 7.3215e-08 1 0 0
90 2 39 -4 0 1 2 8 4.39042e-07 1 0 0
41 2 40 -5 0 1 2 5 7.18172e-08 1 0 0
42 2 41 -5 0 1 2 5 7.05458e-08 1 0 0
91 2 40 -4 0 1 2 8 4.30227e-07 1 0 0
92 2 41 -4 0 1 2 8 4.21954e-07 1 0 0
43 2 42 -5 0 1 2 5 6.98971e-08 1 0 0
44 2 43 -5 0 1 2 5 7.01733e-08 1 0 0
93 2 42 -4 0 1 2 8 4.17536e-07 1 0 0
94 2 43 -4 0 1 2 8 4.19112e-07 1 0 0
45 2 44 -5 0 1 2 5 7.12103e-08 1 0 0
95 2 44 -4 0 1 2 8 4.25736e-07 1 0 0
46 2 45 -5 0 1 2 5 7.2394e-08 1 0 0
47 2 46 -5 0 1 2 5 7.30363e-08 1 0 0
96 2 45 -4 0 1 2 8 4.33404e-07 1 0 0
97 2 46 -4 0 1 2 8 4.37566e-07 1 0 0
48 2 47 -5 0 1 2 5 7.28447e-08 1 0 0
49 2 48 -5 0 1 2 5 7.21013e-08 1 0 0
98 2 47 -4 0 1 2 8 4.36299e-07 1 0 0
99 2 48 -4 0 1 2 8 4.31486e-07 1 0 0
50 2 49 -5 0 1 2 5 7.14214e-08 1 0 0
100 2 49 -4 0 1 2 8 4.27185e-07 1 0 0
101 2 0 -3 0 1 2 8 4.05865e-08 1 0 0
102 2 1 -3 0 1 2 8 6.11001e-08 1 0 0
151 2 0 -2 0 1 2 8 1.87912e-07 1 0 0
152 2 1 -2 0 1 2 8 2.93145e-07 1 0 0
103 2 2 -3 0 1 2 8 1.32691e-07 1 0 0
104 2 3 -3 0 1 2 8 2.73533e-07 1 0 0
153 2 2 -2 0 1 2 8 6.68723e-07 1 0 0
154 2 3 -2 0 1 2 8 1.43068e-06 1 0 0
105 2 4 -3 0 1 2 8 4.96714e-07 1 0 0
155 2 4 -2 0 1 2 8 2.66992e-06 1 0 0
106 2 5 -3 0 1 2 8 7.93595e-07 1 0 0
107 2 6 -3 0 1 2 8 1.13017e-06 1 0 0
156 2 5 -2 0 1 2 8 4.34511e-06 1 0 0
157 2 6 -2 0 1 2 8 6.25637e-06 1 0 0
108 2 7 -3 0 1 2 8 1.46091e-06 1 0 0
109 2 8 -3 0 1 2 8 1.74837e-06 1 0 0
158 2 7 -2 0 1 2 8 8.13511e-06 1 0 0
159 2 8 -2 0 1 2 8 9.76615e-06 1 0 0
110 2 9 -3 0 1 2 8 1.97479e-06 1 0 0
160 2 9 -2 0 1 2 8 1.10519e-05 1 0 0
111 2 10 -3 0 1 2 8 2.14268e-06 1 0 0
112 2 11 -3 0 1 2 8 2.26832e-06 1 0 0
161 2 10 -2 0 1 2 8 1.20092e-05 1 0 0
162 2 11 -2 0 1 2 8 1.2731e-05 1 0 0
113 2 12 -3 0 1 2 8 2.37143e-06 1 0 0
114 2 13 -3 0 1 2 8 2.4632e-06 1 0 0
163 2 12 -2 0 1 2 8 1.33304e-05 1 0 0
164 2 13 -2 0 1 2 8 1.38707e-05 1 0 0
115 2 14 -3 0 1 2 8 2.54052e-06 1 0 0
165 2 14 -2 0 1 2 8 1.43252e-05 1 0 0
116 2 15 -3 0 1 2 8 2.59521e-06 1 0 0
117 2 16 -3 0 1 2 8 2.62878e-06 1 0 0
166 2 15 -2 0 1 2 8 1.46373e-05 1 0 0
167 2 16 -2 0 1 2 8 1.48199e-05 1 0 0
118 2 17 -3 0 1 2 8 2.65277e-06 1 0 0
119 2 18 -3 0 1 2 8 2.67446e-06 1 0 0
168 2 17 -2 0 1 2 8 1.49555e-05 1 0 0
169 2 18 -2 0 1 2 8 1.50955e-05 1 0 0
120 2 19 -3 0 1 2 8 2.68722e-06 1 0 0
170 2 19 -2 0 1 2 8 1.51961e-05 1 0 0
121 2 20 -3 0 1 2 8 2.67686e-06 1 0 0
122 2 21 -3 0 1 2 8 2.63589e-06 1 0 0
171 2 20 -2 0 1 2 8 1.51642e-05 1 0 0
172 2 21 -2 0 1 2 8 1.49499e-05 1 0 0
123 2 22 -3 0 1 2 8 2.57154e-06 1 0 0
124 2 23 -3 0 1 2 8 2.50388e-06 1 0 0
173 2 22 -2 0 1 2 8 1.45923e-05 1 0 0
174 2 23 -2 0 1 2 8 1.42059e-05 1 0 0
125 2 24 -3 0 1 2 8 2.45812e-06 1 0 0
175 2 24 -2 0 1 2 8 1.39399e-05 1 0 0
126 2 25 -3 0 1 2 8 2.45326e-06 1 0 0
127 2 26 -3 0 1 2 8 2.49103e-06 1 0 0
176 2 25 -2 0 1 2 8 1.39137e-05 1 0 0
177 2 26 -2 0 1 2 8 1.41401e-05 1 0 0
128 2 27 -3 0 1 2 8 2.55525e-06 1 0 0
129 2 28 -3 0 1 2 8 2.62497e-06 1 0 0
178 2 27 -2 0 1 2 8 1.45153e-05 1 0 0
179 2 28 -2 0 1 2 8 1.49059e-05 1 0 0
130 2 29 -3 0 1 2 8 2.68838e-06 1 0 0
180 2 29 -2 0 1 2 8 1.52461e-05 1 0 0
131 2 30 -3 0 1 2 8 2.743e-06 1 0 0
132 2 31 -3 0 1 2 8 2.78576e-06 1 0 0
181 2 30 -2 0 1 2 8 1.55366e-05 1 0 0
182 2 31 -2 0 1 2 8 1.57699e-05 1 0 0
133 2 32 -3 0 1 2 8 2.80941e-06 1 0 0
134 2 33 -3 0 1 2 8 2.81046e-06 1 0 0
183 2 32 -2 0 1 2 8 1.59005e-05 1 0 0
184 2 33 -2 0 1 2 8 1.59012e-05 1 0 0
135 2 34 -3 0 1 2 8 2.79628e-06 1 0 0
185 2 34 -2 0 1 2 8 1.58156e-05 1 0 0
136 2 35 -3 0 1 2 8 2.77967e-06 1 0 0
137 2 36 -3 0 1 2 8 2.76694e-06 1 0 0
186 2 35 -2 0 1 2 8 1.5724e-05 1 0 0
187 2 36 -2 0 1 2 8 1.56644e-05 1 0 0
138 2 37 -3 0 1 2 8 2.75332e-06 1 0 0
139 2 38 -3 0 1 2 8 2.72866e-06 1 0 0
188 2 37 -2 0 1 2 8 1.56041e-05 1 0 0
189 2 38 -2 0 1 2 8 1.54774e-05 1 0 0
140 2 39 -3 0 1 2 8 2.68632e-06 1 0 0
190 2 39 -2 0 1 2 8 1.52396e-05 1 0 0
141 2 40 -3 0 1 2 8 2.62981e-06 1 0 0
142 2 41 -3 0 1 2 8 2.57498e-06 1 0 0
191 2 40 -2 0 1 2 8 1.49065e-05 1 0 0
192 2 41 -2 0 1 2 8 1.45715e-05 1 0 0
143 2 42 -3 0 1 2 8 2.54439e-06 1 0 0
144 2 43 -3 0 1 2 8 2.55351e-06 1 0 0
193 2 42 -2 0 1 2 8 1.43764e-05 1 0 0
194 2 43 -2 0 1 2 8 1.44237e-05 1 0 0
145 2 44 -3 0 1 2 8 2.59687e-06 1 0 0
195 2 44 -2 0 1 2 8 1.46853e-05 1 0 0
146 2 45 -3 0 1 2 8 2.64771e-06 1 0 0
147 2 46 -3 0 1 2 8 2.67517e-06 1 0 0
196 2 45 -2 0 1 2 8 1.4996e-05 1 0 0
197 2 46 -2 0 1 2 8 1.51623e-05 1 0 0
148 2 47 -3 0 1 2 8 2.66631e-06 1 0 0
149 2 48 -3 0 1 2 8 2.6341e-06 1 0 0
198 2 47 -2 0 1 2 8 1.51047e-05 1 0 0
199 2 48 -2 0 1 2 8 1.49053e-05 1 0 0
150 2 49 -3 0 1 2 8 2.60593e-06 1 0 0
200 2 49 -2 0 1 2 8 1.47342e-05 1 0 0
201 2 0 -1 0 1 2 8 7.76649e-07 1 0 0
202 2 1 -1 0 1 2 8 1.25945e-06 1 0 0
203 2 2 -1 0 1 2 8 3.02807e-06 1 0 0
204 2 3 -1 0 1 2 8 6.74675e-06 1 0 0
205 2 4 -1 0 1 2 8 1.29805e-05 1 0 0
206 2 5 -1 0 1 2 8 2.15622e-05 1 0 0
207 2 6 -1 0 1 2 8 3.14123e-05 1 0 0
208 2 7 -1 0 1 2 8 4.10863e-05 1 0 0
209 2 8 -1 0 1 2 8 4.94757e-05 1 0 0
210 2 9 -1 0 1 2 8 5.61085e-05 1 0 0
211 2 10 -1 0 1 2 8 6.10867e-05 1 0 0
212 2 11 -1 0 1 2 8 6.48804e-05 1 0 0
213 2 12 -1 0 1 2 8 6.80709e-05 1 0 0
214 2 13 -1 0 1 2 8 7.09847e-05 1 0 0
215 2 14 -1 0 1 2 8 7.34343e-05 1 0 0
216 2 15 -1 0 1 2 8 7.50651e-05 1 0 0
217 2 16 -1 0 1 2 8 7.5972e-05 1 0 0
218 2 17 -1 0 1 2 8 7.66803e-05 1 0 0
219 2 18 -1 0 1 2 8 7.75095e-05 1 0 0
220 2 19 -1 0 1 2 8 7.81949e-05 1 0 0
221 2 20 -1 0 1 2 8 7.81887e-05 1 0 0
222 2 21 -1 0 1 2 8 7.72022e-05 1 0 0
223 2 22 -1 0 1 2 8 7.54314e-05 1 0 0
224 2 23 -1 0 1 2 8 7.34549e-05 1 0 0
225 2 24 -1 0 1 2 8 7.20628e-05 1 0 0
226 2 25 -1 0 1 2 8 7.19369e-05 1 0 0
227 2 26 -1 0 1 2 8 7.31713e-05 1 0 0
228 2 27 -1 0 1 2 8 7.51602e-05 1 0 0
229 2 28 -1 0 1 2 8 7.71304e-05 1 0 0
230 2 29 -1 0 1 2 8 7.87523e-05 1 0 0
231 2 30 -1 0 1 2 8 8.01248e-05 1 0 0
232 2 31 -1 0 1 2 8 8.1272e-05 1 0 0
233 2 32 -1 0 1 2 8 8.19318e-05 1 0 0
234 2 33 -1 0 1 2 8 8.19133e-05 1 0 0
235 2 34 -1 0 1 2 8 8.14489e-05 1 0 0
236 2 35 -1 0 1 2 8 8.09983e-05 1 0 0
237 2 36 -1 0 1 2 8 8.07674e-05 1 0 0
238 2 37 -1 0 1 2 8 8.05549e-05 1 0 0
239 2 38 -1 0 1 2 8 7.99834e-05 1 0 0
240 2 39 -1 0 1 2 8 7.87873e-05 1 0 0
241 2 40 -1 0 1 2 8 7.70199e-05 1 0 0
242 2 41 -1 0 1 2 8 7.51738e-05 1 0 0
243 2 42 -1 0 1 2 8 7.40503e-05 1 0 0
244 2 43 -1 0 1 2 8 7.42628e-05 1 0 0
245 2 44 -1 0 1 2 8 7.56874e-05 1 0 0
246 2 45 -1 0 1 2 8 7.73993e-05 1 0 0
247 2 46 -1 0 1 2 8 7.83046e-05 1 0 0
248 2 47 -1 0 1 2 8 7.79626e-05 1 0 0
249 2 48 -1 0 1 2 8 7.68451e-05 1 0 0
250 2 49 -1 0 1 2 8 7.59024e-05 1 0 0
251 2 0 0 0 1 2 8 2.82764e-06 1 0 0
252 2 1 0 0 1 2 8 4.7766e-06 1 0 0
301 2 0 1 0 1 2 8 8.9467e-06 1 0 0
302 2 1 1 0 1 2 8 1.5745e-05 1 0 0
253 2 2 0 0 1 2 8 1.21299e-05 1 0 0
254 2 3 0 0 1 2 8 2.82337e-05 1 0 0
303 2 2 1 0 1 2 8 4.2211e-05 1 0 0
304 2 3 1 0 1 2 8 0.000102781 1 0 0
255 2 4 0 0 1 2 8 5.61961e-05 1 0 0
305 2 4 1 0 1 2 8 0.000212297 1 0 0
256 2 5 0 0 1 2 8 9.55039e-05 1 0 0
257 2 6 0 0 1 2 8 0.000140849 1 0 0
306 2 5 1 0 1 2 8 0.00037015 1 0 0
307 2 6 1 0 1 2 8 0.000552758 1 0 0
258 2 7 0 0 1 2 8 0.000185247 1 0 0
259 2 8 0 0 1 2 8 0.000223715 1 0 0
308 2 7 1 0 1 2 8 0.000730223 1 0 0
309 2 8 1 0 1 2 8 0.000883939 1 0 0
260 2 9 0 0 1 2 8 0.000254313 1 0 0
310 2 9 1 0 1 2 8 0.00100755 1 0 0
261 2 10 0 0 1 2 8 0.000277581 1 0 0
262 2 11 0 0 1 2 8 0.000295582 1 0 0
311 2 10 1 0 1 2 8 0.00110343 1 0 0
312 2 11 1 0 1 2 8 0.00117916 1 0 0
263 2 12 0 0 1 2 8 0.000310917 1 0 0
264 2 13 0 0 1 2 8 0.000325102 1 0 0
313 2 12 1 0 1 2 8 0.00124449 1 0 0
314 2 13 1 0 1 2 8 0.00130563 1 0 0
265 2 14 0 0 1 2 8 0.000337043 1 0 0
315 2 14 1 0 1 2 8 0.00135733 1 0 0
266 2 15 0 0 1 2 8 0.000344776 1 0 0
267 2 16 0 0 1 2 8 0.000348883 1 0 0
316 2 15 1 0 1 2 8 0.00139024 1 0 0
317 2 16 1 0 1 2 8 0.00140732 1 0 0
268 2 17 0 0 1 2 8 0.000352301 1 0 0
269 2 18 0 0 1 2 8 0.000356753 1 0 0
318 2 17 1 0 1 2 8 0.00142261 1 0 0
319 2 18 1 0 1 2 8 0.00144394 1 0 0
270 2 19 0 0 1 2 8 0.000360795 1 0 0
320 2 19 1 0 1 2 8 0.00146438 1 0 0
271 2 20 0 0 1 2 8 0.000361589 1 0 0
272 2 21 0 0 1 2 8 0.000357731 1 0 0
321 2 20 1 0 1 2 8 0.00147132 1 0 0
322 2 21 1 0 1 2 8 0.0014593 1 0 0
273 2 22 0 0 1 2 8 0.000350127 1 0 0
274 2 23 0 0 1 2 8 0.000341294 1 0 0
323 2 22 1 0 1 2 8 0.00143221 1 0 0
324 2 23 1 0 1 2 8 0.00139901 1 0 0
275 2 24 0 0 1 2 8 0.000334876 1 0 0
325 2 24 1 0 1 2 8 0.00137382 1 0 0
276 2 25 0 0 1 2 8 0.000334365 1 0 0
277 2 26 0 0 1 2 8 0.000340379 1 0 0
326 2 25 1 0 1 2 8 0.00137228 1 0 0
327 2 26 1 0 1 2 8 0.00139786 1 0 0
278 2 27 0 0 1 2 8 0.000349787 1 0 0
279 2 28 0 0 1 2 8 0.000358574 1 0 0
328 2 27 1 0 1 2 8 0.00143666 1 0 0
329 2 28 1 0 1 2 8 0.00147052 1 0 0
280 2 29 0 0 1 2 8 0.000365284 1 0 0
330 2 29 1 0 1 2 8 0.00149387 1 0 0
281 2 30 0 0 1 2 8 0.000370912 1 0 0
282 2 31 0 0 1 2 8 0.000375918 1 0 0
331 2 30 1 0 1 2 8 0.00151331 1 0 0
332 2 31 1 0 1 2 8 0.00153232 1 0 0
283 2 32 0 0 1 2 8 0.000378932 1 0 0
284 2 33 0 0 1 2 8 0.000378782 1 0 0
333 2 32 1 0 1 2 8 0.00154459 1 0 0
334 2 33 1 0 1 2 8 0.00154399 1 0 0
285 2 34 0 0 1 2 8 0.000376568 1 0 0
335 2 34 1 0 1 2 8 0.00153499 1 0 0
286 2 35 0 0 1 2 8 0.00037464 1 0 0
287 2 36 0 0 1 2 8 0.000373982 1 0 0
336 2 35 1 0 1 2 8 0.0015281 1 0 0
337 2 36 1 0 1 2 8 0.00152732 1 0 0
288 2 37 0 0 1 2 8 0.000373499 1 0 0
289 2 38 0 0 1 2 8 0.000371301 1 0 0
338 2 37 1 0 1 2 8 0.00152747 1 0 0
339 2 38 1 0 1 2 8 0.00152055 1 0 0
290 2 39 0 0 1 2 8 0.00036603 1 0 0
340 2 39 1 0 1 2 8 0.00150081 1 0 0
291 2 40 0 0 1 2 8 0.000357767 1 0 0
292 2 41 0 0 1 2 8 0.000348767 1 0 0
341 2 40 1 0 1 2 8 0.0014678 1 0 0
342 2 41 1 0 1 2 8 0.00143009 1 0 0
293 2 42 0 0 1 2 8 0.000343044 1 0 0
294 2 43 0 0 1 2 8 0.000343839 1 0 0
343 2 42 1 0 1 2 8 0.00140502 1 0 0
344 2 43 1 0 1 2 8 0.00140732 1 0 0
295 2 44 0 0 1 2 8 0.000350702 1 0 0
345 2 44 1 0 1 2 8 0.00143575 1 0 0
296 2 45 0 0 1 2 8 0.000359039 1 0 0
297 2 46 0 0 1 2 8 0.000363364 1 0 0
346 2 45 1 0 1 2 8 0.00147061 1 0 0
347 2 46 1 0 1 2 8 0.00148816 1 0 0
298 2 47 0 0 1 2 8 0.000361547 1 0 0
299 2 48 0 0 1 2 8 0.000355992 1 0 0
348 2 47 1 0 1 2 8 0.00147971 1 0 0
349 2 48 1 0 1 2 8 0.00145589 1 0 0
300 2 49 0 0 1 2 8 0.000351365 1 0 0
350 2 49 1 0 1 2 8 0.0014362 1 0 0
351 2 0 2 0 1 2 8 2.43054e-05 1 0 0
352 2 1 2 0 1 2 8 4.44452e-05 1 0 0
401 2 0 3 0 1 2 8 5.62372e-05 1 0 0
402 2 1 3 0 1 2 8 0.000106335 1 0 0
353 2 2 2 0 1 2 8 0.000125178 1 0 0
354 2 3 2 0 1 2 8 0.000317659 1 0 0
403 2 2 3 0 1 2 8 0.000311513 1 0 0
404 2 3 3 0 1 2 8 0.000813503 1 0 0
355 2 4 2 0 1 2 8 0.000681333 1 0 0
405 2 4 3 0 1 2 8 0.00178867 1 0 0
356 2 5 2 0 1 2 8 0.00122262 1 0 0
357 2 6 2 0 1 2 8 0.00184708 1 0 0
406 2 5 3 0 1 2 8 0.00332452 1 0 0
407 2 6 3 0 1 2 8 0.00507778 1 0 0
358 2 7 2 0 1 2 8 0.00244415 1 0 0
359 2 8 2 0 1 2 8 0.0029623 1 0 0
408 2 7 3 0 1 2 8 0.00667845 1 0 0
409 2 8 3 0 1 2 8 0.00808652 1 0 0
360 2 9 2 0 1 2 8 0.00338685 1 0 0
410 2 9 3 0 1 2 8 0.00927898 1 0 0
361 2 10 2 0 1 2 8 0.0037256 1 0 0
362 2 11 2 0 1 2 8 0.00400078 1 0 0
411 2 10 3 0 1 2 8 0.0102656 1 0 0
412 2 11 3 0 1 2 8 0.011099 1 0 0
363 2 12 2 0 1 2 8 0.00424114 1 0 0
364 2 13 2 0 1 2 8 0.00446796 1 0 0
413 2 12 3 0 1 2 8 0.0118378 1 0 0
414 2 13 3 0 1 2 8 0.0125358 1 0 0
365 2 14 2 0 1 2 8 0.00466156 1 0 0
415 2 14 3 0 1 2 8 0.0131427 1 0 0
366 2 15 2 0 1 2 8 0.00478547 1 0 0
367 2 16 2 0 1 2 8 0.00485165 1 0 0
416 2 15 3 0 1 2 8 0.0135487 1 0 0
417 2 16 3 0 1 2 8 0.0137901 1 0 0
368 2 17 2 0 1 2 8 0.00491486 1 0 0
369 2 18 2 0 1 2 8 0.005004 1 0 0
418 2 17 3 0 1 2 8 0.01403 1 0 0
419 2 18 3 0 1 2 8 0.0143478 1 0 0
370 2 19 2 0 1 2 8 0.00509084 1 0 0
420 2 19 3 0 1 2 8 0.0146518 1 0 0
371 2 20 2 0 1 2 8 0.00512935 1 0 0
372 2 21 2 0 1 2 8 0.00510419 1 0 0
421 2 20 3 0 1 2 8 0.0148107 1 0 0
422 2 21 3 0 1 2 8 0.0148041 1 0 0
373 2 22 2 0 1 2 8 0.00503076 1 0 0
374 2 23 2 0 1 2 8 0.00493282 1 0 0
423 2 22 3 0 1 2 8 0.0146888 1 0 0
424 2 23 3 0 1 2 8 0.0144963 1 0 0
375 2 24 2 0 1 2 8 0.00485359 1 0 0
425 2 24 3 0 1 2 8 0.0143199 1 0 0
376 2 25 2 0 1 2 8 0.00485198 1 0 0
377 2 26 2 0 1 2 8 0.0049438 1 0 0
426 2 25 3 0 1 2 8 0.0143404 1 0 0
427 2 26 3 0 1 2 8 0.0146048 1 0 0
378 2 27 2 0 1 2 8 0.00507874 1 0 0
379 2 28 2 0 1 2 8 0.00518802 1 0 0
428 2 27 3 0 1 2 8 0.0149849 1 0 0
429 2 28 3 0 1 2 8 0.0152714 1 0 0
380 2 29 2 0 1 2 8 0.00525368 1 0 0
430 2 29 3 0 1 2 8 0.0154141 1 0 0
381 2 30 2 0 1 2 8 0.0053083 1 0 0
382 2 31 2 0 1 2 8 0.00536969 1 0 0
431 2 30 3 0 1 2 8 0.015538 1 0 0
432 2 31 3 0 1 2 8 0.0157037 1 0 0
383 2 32 2 0 1 2 8 0.00541331 1 0 0
384 2 33 2 0 1 2 8 0.00541276 1 0 0
433 2 32 3 0 1 2 8 0.015837 1 0 0
434 2 33 3 0 1 2 8 0.0158485 1 0 0
385 2 34 2 0 1 2 8 0.00538313 1 0 0
435 2 34 3 0 1 2 8 0.0157743 1 0 0
386 2 35 2 0 1 2 8 0.00536404 1 0 0
387 2 36 2 0 1 2 8 0.00536852 1 0 0
436 2 35 3 0 1 2 8 0.01574 1 0 0
437 2 36 3 0 1 2 8 0.0157767 1 0 0
388 2 37 2 0 1 2 8 0.00537604 1 0 0
389 2 38 2 0 1 2 8 0.00535919 1 0 0
438 2 37 3 0 1 2 8 0.0158152 1 0 0
439 2 38 3 0 1 2 8 0.0157854 1 0 0
390 2 39 2 0 1 2 8 0.00529936 1 0 0
440 2 39 3 0 1 2 8 0.0156504 1 0 0
391 2 40 2 0 1 2 8 0.00519192 1 0 0
392 2 41 2 0 1 2 8 0.00506192 1 0 0
441 2 40 3 0 1 2 8 0.0153913 1 0 0
442 2 41 3 0 1 2 8 0.0150455 1 0 0
393 2 42 2 0 1 2 8 0.0049716 1 0 0
394 2 43 2 0 1 2 8 0.00497591 1 0 0
443 2 42 3 0 1 2 8 0.0147958 1 0 0
444 2 43 3 0 1 2 8 0.0147971 1 0 0
395 2 44 2 0 1 2 8 0.00507288 1 0 0
445 2 44 3 0 1 2 8 0.015051 1 0 0
396 2 45 2 0 1 2 8 0.00519251 1 0 0
397 2 46 2 0 1 2 8 0.00524974 1 0 0
446 2 45 3 0 1 2 8 0.0153664 1 0 0
447 2 46 3 0 1 2 8 0.0155024 1 0 0
398 2 47 2 0 1 2 8 0.00521665 1 0 0
399 2 48 2 0 1 2 8 0.0051323 1 0 0
448 2 47 3 0 1 2 8 0.0153975 1 0 0
449 2 48 3 0 1 2 8 0.0151688 1 0 0
400 2 49 2 0 1 2 8 0.00506258 1 0 0
450 2 49 3 0 1 2 8 0.014973 1 0 0
451 2 0 4 0 1 2 8 0.00011067 1 0 0
452 2 1 4 0 1 2 8 0.000215101 1 0 0
453 2 2 4 0 1 2 8 0.000648911 1 0 0
454 2 3 4 0 1 2 8 0.00171135 1 0 0
455 2 4 4 0 1 2 7 0.00367032 1 0 0
456 2 5 4 0 1 2 6 0.00708141 1 0 0
457 2 6 4 0 1 2 5 0.0106334 1 0 0
506 1 5.49291 4.86678 0 1.0006 2 0 0.013037 1 -0.00151074 -0.00469892
507 1 6.48756 4.86851 0 1.02569 2 0 0.0165025 1 0.0116083 0.00190301
458 2 7 4 0 1 2 5 0.0136598 1 0 0
459 2 8 4 0 1 2 5 0.0164588 1 0 0
508 1 7.50299 4.86677 0 1.03193 2 0 0.0199942 1 -0.0030564 -0.00248082
460 2 9 4 0 1 2 5 0.0189363 1 0 0
510 1 8.50337 4.86291 0 1.01036 2 0 0.0233088 1 -0.00806145 0.0092833
511 1 9.50101 4.86574 0 1.00136 2 0 0.0263708 1 -0.00217803 -0.00940245
461 2 10 4 0 1 2 5 0.0210861 1 0 0
462 2 11 4 0 1 2 5 0.0230042 1 0 0
512 1 10.5013 4.86296 0 1.01573 2 0 0.0292655 1 -0.00444043 0.00623348
513 1 11.5005 4.86763 0 1.01534 2 0 0.0320008 1 -0.00453465 -0.00606511
463 2 12 4 0 1 2 5 0.0247477 1 0 0
464 2 13 4 0 1 2 5 0.0263733 1 0 0
514 1 12.4992 4.86471 0 1.01802 2 0 0.0345395 1 -0.00538623 0.00381592
465 2 14 4 0 1 2 5 0.0278201 1 0 0
515 1 13.4948 4.86912 0 1.02031 2 0 0.0368923 1 0.00962557 -0.00887291
516 1 14.4954 4.86529 0 1.0096 2 0 0.038989 1 -0.00199199 -0.00345913
466 2 15 4 0 1 2 5 0.0289001 1 0 0
467 2 16 4 0 1 2 5 0.0296658 1 0 0
518 1 16.4951 4.86379 0 1.02515 2 0 0.0424544 1 0.00257459 0.00752329
517 1 15.4954 4.8646 0 1.02614 2 0 0.0408117 1 0.0016564 0.000921566
468 2 17 4 0 1 2 5 0.0304168 1 0 0
469 2 18 4 0 1 2 5 0.0312843 1 0 0
519 1 17.4939 4.86424 0 1.0239 2 0 0.0440009 1 0.00320844 0.00284312
470 2 19 4 0 1 2 5 0.0320747 1 0 0
520 1 18.4936 4.86125 0 1.00577 2 0 0.0453841 1 0.00216315 0.0106527
521 1 19.4919 4.86492 0 1.00453 2 0 0.0465425 1 0.00848405 -0.0117378
471 2 20 4 0 1 2 5 0.0325607 1 0 0
472 2 21 4 0 1 2 5 0.0327622 1 0 0
523 1 21.4972 4.86427 0 1.02268 2 0 0.0482525 1 0.0100648 -0.00764521
522 1 20.4953 4.86372 0 1.0139 2 0 0.0474659 1 0.00835674 -0.0120505
473 2 22 4 0 1 2 5 0.03283 1 0 0
474 2 23 4 0 1 2 5 0.0327296 1 0 0
524 1 22.5018 4.86366 0 1.01383 2 0 0.0488916 1 -0.00336846 -4.78378e-05
475 2 24 4 0 1 2 5 0.0325809 1 0 0
525 1 23.5017 4.86206 0 1.03669 2 0 0.0493935 1 -0.00600969 0.00493573
526 1 24.5015 4.8608 0 1.04245 2 0 0.0498824 1 -0.00238071 0.0155178
476 2 25 4 0 1 2 5 0.0327435 1 0 0
477 2 26 4 0 1 2 5 0.0332851 1 0 0
528 1 26.5031 4.8595 0 1.04147 2 0 0.0511245 1 -0.0158897 0.0171188
527 1 25.5009 4.86258 0 1.03798 2 0 0.0504699 1 0.000238592 0.0101008
478 2 27 4 0 1 2 5 0.0340399 1 0 0
479 2 28 4 0 1 2 5 0.0345866 1 0 0
529 1 27.4974 4.86015 0 1.0019 2 0 0.0517851 1 0.0125349 0.0150129
480 2 29 4 0 1 2 5 0.0348446 1 0 0
531 1 29.5015 4.86499 0 1.01679 2 0 0.0528671 1 -0.00799249 0.0020358
530 1 28.4974 4.86622 0 1.02091 2 0 0.0523643 1 -0.00125586 -0.00818397
481 2 30 4 0 1 2 5 0.0350861 1 0 0
482 2 31 4 0 1 2 5 0.0354338 1 0 0
533 1 31.4992 4.87331 0 1.004 2 0 0.0538527 1 -0.0020897 -0.00330665
532 1 30.4986 4.87336 0 1.0182 2 0 0.0533899 1 0.00904419 -0.00557191
483 2 32 4 0 1 2 5 0.035744 1 0 0
484 2 33 4 0 1 2 5 0.0358306 1 0 0
534 1 32.499 4.86188 0 1.00171 2 0 0.0542558 1 -0.00496715 0.0124106
485 2 34 4 0 1 2 5 0.0357321 1 0 0
535 1 33.4959 4.8706 0 1.00275 2 0 0.0545158 1 0.00137382 -0.0135114
536 1 34.4939 4.86845 0 1.0237 2 0 0.0547438 1 -0.00615149 -0.00152816
486 2 35 4 0 1 2 5 0.0357263 1 0 0
487 2 36 4 0 1 2 5 0.0358578 1 0 0
538 1 36.4895 4.859 0 1.01227 2 0 0.0553052 1 0.00184517 0.0060322
537 1 35.4893 4.8641 0 1.0067 2 0 0.0550244 1 0.0096551 0.000729133
488 2 37 4 0 1 2 5 0.0359641 1 0 0
489 2 38 4 0 1 2 5 0.0359338 1 0 0
539 1 37.4952 4.85969 0 1.00174 2 0 0.0554771 1 -0.00108974 0.00687784
490 2 39 4 0 1 2 5 0.0357517 1 0 0
541 1 39.4947 4.8608 0 1.00168 2 0 0.0554482 1 0.00422736 0.00667387
540 1 38.4967 4.86034 0 1.01715 2 0 0.0555271 1 -0.00212674 0.00873301
491 2 40 4 0 1 2 5 0.0353782 1 0 0
492 2 41 4 0 1 2 5 0.0347938 1 0 0
542 1 40.4976 4.86185 0 1.01016 2 0 0.0552639 1 -0.000422376 0.00562979
543 1 41.4968 4.86181 0 1.03252 2 0 0.0550706 1 -0.00326551 0.00812243
493 2 42 4 0 1 2 5 0.0343661 1 0 0
494 2 43 4 0 1 2 5 0.0343596 1 0 0
544 1 42.4941 4.86603 0 1.0319 2 0 0.0550177 1 0.0078816 -6.93817e-05
495 2 44 4 0 1 2 5 0.0347739 1 0 0
545 1 43.4971 4.86281 0 1.03659 2 0 0.0550918 1 -0.00128855 0.00231303
546 1 44.4977 4.86177 0 1.01001 2 0 0.0552423 1 0.00242192 0.000843121
496 2 45 4 0 1 2 5 0.0352928 1 0 0
497 2 46 4 0 1 2 5 0.0354777 1 0 0
548 1 46.5019 4.86421 0 1.00807 2 0 0.0554234 1 -0.00021032 -0.00278253
547 1 45.501 4.86153 0 1.00173 2 0 0.0553931 1 0.00643673 0.000570171
498 2 47 4 0 1 2 5 0.0352638 1 0 0
499 2 48 4 0 1 2 5 0.0348754 1 0 0
549 1 47.5016 4.86473 0 1.02093 2 0 0.0553221 1 -0.00302718 0.00174778
500 2 49 4 0 1 2 5 0.0345384 1 0 0
550 1 48.5007 4.86475 0 1.02225 2 0 0.0552661 1 -0.00379697 0.00227024
8501 1 49.4988 4.865 0 1.06187 2 0 0.0553133 1 0.00333548 -0.00163784
501 2 0 5 0 1 2 8 0.000186812 1 0 0
502 2 1 5 0 1 2 8 0.000370796 1 0 0
551 2 0 6 0 1 2 8 0.000276021 1 0 0
552 2 1 6 0 1 2 8 0.000556054 1 0 0
503 2 2 5 0 1 2 8 0.00114062 1 0 0
504 2 3 5 0 1 2 8 0.00303667 1 0 0
553 2 2 6 0 1 2 8 0.00172651 1 0 0
554 2 3 6 0 1 2 8 0.00459342 1 0 0
505 2 4 5 0 1 2 6 0.00650993 1 0 0
555 2 4 6 0 1 2 5 0.00957331 1 0 0
556 1 4.94747 5.69817 0 1.02426 2 0 0.0140437 1 0.000869579 -0.000661836
557 1 5.97367 5.74747 0 1.00456 2 0 0.0186363 1 -0.000799771 -0.001597
558 1 6.99101 5.7292 0 1.00032 2 0 0.0227561 1 -0.000560516 -0.0011547
509 1 7.9966 5.73391 0 1.00999 2 0 0.0268823 1 -0.00213229 -0.00368652
560 1 8.99759 5.73238 0 1.01571 2 0 0.0307821 1 -0.00691324 -0.00825291
561 1 9.99605 5.72747 0 1.04128 2 0 0.0345654 1 0.00576052 0.00999045
562 1 10.9942 5.73114 0 1.02468 2 0 0.0381924 1 0.00492681 -0.00860612
563 1 11.9978 5.73115 0 1.00884 2 0 0.0416031 1 0.000436786 -0.00182991
565 1 12.9962 5.73248 0 1.01555 2 0 0.0448451 1 -0.00955888 -0.000933576
566 1 13.993 5.73369 0 1.01485 2 0 0.0478638 1 0.00417767 -0.00179478
567 1 14.9919 5.7277 0 1.00349 2 0 0.050603 1 0.00108077 0.00783091
568 1 15.9899 5.73123 0 1.02492 2 0 0.0531375 1 0.0033522 -0.00351993
569 1 17.9936 5.72708 0 1.01386 2 0 0.0574878 1 0.000653104 -0.00318764
618 1 16.995 5.73083 0 1.00786 2 0 0.0554291 1 -0.00536729 -0.00848139
570 1 18.9936 5.72493 0 1.00562 2 0 0.0592825 1 -0.00967041 0.000866409
571 1 19.9966 5.72165 0 1.00943 2 0 0.060863 1 -0.00513649 0.0173353
572 1 20.9995 5.72319 0 1.02492 2 0 0.0623028 1 -0.00788485 0.0114229
573 1 22.0011 5.7279 0 1.00977 2 0 0.06354 1 -0.0198323 -0.00939273
574 1 22.995 5.73032 0 1.00488 2 0 0.0646078 1 0.0114063 -0.0125247
575 1 23.9957 5.72706 0 1.01237 2 0 0.0655544 1 0.00352778 0.00567905
576 1 24.9952 5.73132 0 1.01087 2 0 0.0663826 1 -0.00237012 -0.00741618
577 1 25.9912 5.73495 0 1.01133 2 0 0.067161 1 0.00628604 -0.0100103
579 1 26.9967 5.72773 0 1.01129 2 0 0.0678758 1 -0.00333917 -0.00767912
580 1 27.9923 5.72737 0 1.02117 2 0 0.0686452 1 0.0141611 -0.00441491
581 1 28.9926 5.73021 0 1.01861 2 0 0.0694217 1 0.00414222 0.00717685
632 1 29.9954 5.73389 0 1.0167 2 0 0.0700956 1 -0.00128679 0.00402644
582 1 30.9975 5.73994 0 1.0143 2 0 0.0707495 1 -0.00381129 -0.0090344
583 1 31.9948 5.73974 0 1.0088 2 0 0.0713186 1 0.00620788 0.00198221
584 1 32.9939 5.73135 0 1.00514 2 0 0.0717983 1 -0.00958626 0.00442784
585 1 33.9905 5.73475 0 1.02197 2 0 0.072339 1 0.0043377 0.000176828
586 1 34.9873 5.73614 0 1.02669 2 0 0.0728423 1 0.00217768 -0.0147442
587 1 35.9853 5.72475 0 1.01702 2 0 0.0733387 1 0.00424465 0.00630412
588 1 36.9837 5.71842 0 1.01798 2 0 0.0737091 1 0.00708352 0.00821469
589 1 37.9906 5.72092 0 1.01656 2 0 0.0739393 1 0.00343793 0.0116083
590 1 38.9922 5.72535 0 1.01208 2 0 0.0740426 1 -0.00159222 -0.00327595
591 1 39.9915 5.72279 0 1.01334 2 0 0.0741065 1 0.00650791 0.00730343
592 1 40.9923 5.72794 0 1.02633 2 0 0.0742341 1 0.00043148 -0.00386115
594 1 42.9957 5.72916 0 1.01497 2 0 0.0742751 1 -0.0015995 -0.0047986
593 1 41.9905 5.72855 0 1.02837 2 0 0.0743037 1 0.00390812 0.00162741
595 1 43.9977 5.72371 0 1.01694 2 0 0.074157 1 0.00265388 0.00539129
596 1 45.0036 5.72038 0 1.01116 2 0 0.0740985 1 -0.00574702 0.0186824
597 1 46.0027 5.7266 0 1.01212 2 0 0.0741786 1 -0.00109173 -0.00299652
598 1 47.0005 5.72974 0 1.00861 2 0 0.0742367 1 0.00548345 -0.00380381
599 1 48.0002 5.73057 0 1.02545 2 0 0.0743229 1 -0.00237628 -0.00480426
600 1 48.9991 5.73069 0 1.00476 2 0 0.0744783 1 -0.000739767 -0.00397572
2698 1 46.9614 44.6862 0 1.00563 0 0 0.495585 1 -5.54111e-05 0.000137592
601 2 0 7 0 1 2 8 0.000366933 1 0 0
602 2 1 7 0 1 2 8 0.000747827 1 0 0
651 2 0 8 0 1 2 8 0.000450065 1 0 0
652 2 1 8 0 1 2 8 0.000927059 1 0 0
603 2 2 7 0 1 2 8 0.00233759 1 0 0
604 2 3 7 0 1 2 8 0.00623043 1 0 0
653 2 2 8 0 1 2 8 0.00291902 1 0 0
654 2 3 8 0 1 2 8 0.00785088 1 0 0
605 2 4 7 0 1 2 5 0.0127522 1 0 0
655 2 4 8 0 1 2 5 0.0157986 1 0 0
656 1 4.89121 7.45269 0 1.01253 2 0 0.0193955 1 -0.000691854 0.000224868
606 1 5.40023 6.58548 0 1.01839 2 0 0.0196489 1 0.00348136 0.00677275
607 1 6.43251 6.635 0 1.01626 2 0 0.0247037 1 -0.00112467 -0.00137248
657 1 5.8883 7.51894 0 1.02523 2 0 0.0255987 1 0.00141855 4.42559e-05
608 1 7.48509 6.59462 0 1.01581 2 0 0.0297681 1 0.00348334 0.00605141
609 1 7.98812 7.46295 0 1.00447 2 0 0.0372134 1 -0.00205202 -0.00490949
658 1 6.98854 7.46409 0 1.00499 2 0 0.0317295 1 -0.00220084 -0.00974961
559 1 8.49453 6.59611 0 1.01669 2 0 0.0344446 1 0.00126339 0.00372458
610 1 9.49714 6.59373 0 1.00382 2 0 0.0390632 1 0.00513402 0.00415544
661 1 8.99753 7.45735 0 1.00906 2 0 0.0426138 1 -0.000687559 -0.00022043
612 1 9.99449 7.46456 0 1.00002 2 0 0.0479277 1 -0.00274398 -0.0119534
611 1 10.4966 6.59496 0 1.00368 2 0 0.0435604 1 -0.00682954 0.00317365
564 1 11.4948 6.59271 0 1.01095 2 0 0.0478623 1 0.00216912 0.0100794
613 1 10.9906 7.463 0 1.00877 2 0 0.0531461 1 0.00968052 -0.00241815
614 1 12.4935 6.59714 0 1.01882 2 0 0.0519873 1 -0.000950766 0.0037239
665 1 12.989 7.46602 0 1.00809 2 0 0.0630629 1 -0.00162002 -0.00771025
664 1 11.991 7.46659 0 1.0022 2 0 0.0582064 1 -0.00274663 -0.00686366
615 1 13.4906 6.59775 0 1.00601 2 0 0.0559301 1 0.00623202 0.00522612
616 1 14.4899 6.59849 0 1.00878 2 0 0.0595733 1 -0.00568129 -0.00406759
666 1 13.9884 7.46393 0 0.997531 2 0 0.0676477 1 -0.00353492 -0.00421096
667 1 14.9873 7.46023 0 1.00922 2 0 0.0719492 1 0.00543094 0.00757045
617 1 15.4874 6.595 0 1.01132 2 0 0.0629652 1 0.00487884 0.000164175
668 1 15.9884 7.45924 0 1.01232 2 0 0.0759638 1 0.00141447 -0.00966276
619 1 16.4904 6.59287 0 1.00791 2 0 0.0661137 1 -0.00023411 0.0035574
669 1 17.4913 6.59458 0 1.0115 2 0 0.0689653 1 0.00794862 -0.000842038
719 1 16.991 7.45556 0 1.0104 2 0 0.0796626 1 -0.00619669 0.00376175
720 1 17.9949 7.46029 0 1.00384 2 0 0.08304 1 -0.0164574 -0.0159204
620 1 18.4915 6.58861 0 1.00047 2 0 0.0715189 1 -0.00356623 0.00651055
621 1 19.4887 6.58625 0 1.01086 2 0 0.073833 1 0.00244939 0.00629441
670 1 18.9878 7.45432 0 1.01205 2 0 0.0861107 1 0.00858947 -0.00724961
671 1 19.9871 7.44992 0 1.01101 2 0 0.0889237 1 -0.00876092 0.00880927
622 1 20.4854 6.59028 0 1.02282 2 0 0.0759272 1 0.0147664 -0.00800342
623 1 21.489 6.59029 0 1.01715 2 0 0.0777499 1 0.00183556 0.00308044
672 1 20.9858 7.45439 0 1.01032 2 0 0.0913911 1 -0.00278094 -0.00919902
673 1 21.9895 7.45328 0 1.00705 2 0 0.0934838 1 -0.00708886 -0.00495549
624 1 22.4925 6.59118 0 1.00933 2 0 0.0792699 1 -0.00237991 0.00235631
674 1 22.9892 7.45124 0 1.01197 2 0 0.0952573 1 -0.00201163 0.0115585
625 1 23.4921 6.59024 0 1.01358 2 0 0.0806025 1 0.00574304 0.000592353
626 1 24.4968 6.59346 0 1.01095 2 0 0.0817369 1 -0.00975819 0.00348237
675 1 23.9875 7.45398 0 1.00974 2 0 0.0967894 1 0.00860902 0.00569536
676 1 24.9875 7.46243 0 1.01754 2 0 0.0980269 1 0.00758895 -0.00591597
578 1 26.5015 6.59083 0 1.0136 2 0 0.0836397 1 -0.00958728 0.00672844
628 1 26.0025 7.46253 0 1.00647 2 0 0.0990537 1 -0.00726849 -0.00126508
627 1 25.495 6.60053 0 1.0116 2 0 0.0827589 1 0.00131097 0.00387454
629 1 27.4996 6.59122 0 1.00585 2 0 0.0845792 1 -0.00207369 0.00641969
679 1 27.9989 7.46879 0 1.01276 2 0 0.101167 1 -0.0136472 -0.0011056
678 1 26.9984 7.45342 0 1.01987 2 0 0.100029 1 0.00991372 0.0123591
630 1 28.4978 6.60046 0 1.00031 2 0 0.0856345 1 -0.00437655 -0.000826219
631 1 29.494 6.59755 0 1.01679 2 0 0.0866468 1 0.00616211 0.00225999
680 1 28.9924 7.46901 0 1.0041 2 0 0.102616 1 0.0113979 -0.00290171
681 1 29.9956 7.46555 0 1.0067 2 0 0.10401 1 -0.00609818 -0.00625988
682 1 30.4964 6.60147 0 1.0233 2 0 0.0875404 1 -0.00458839 0.00347281
633 1 31.4951 6.60512 0 1.00197 2 0 0.0882791 1 0.0065244 -0.000305478
732 1 30.9961 7.4685 0 1.02086 2 0 0.105059 1 -0.00429629 0.00477732
683 1 31.9953 7.47435 0 1.00602 2 0 0.105767 1 -0.00641071 -0.00261051
684 1 32.4964 6.60672 0 1.01173 2 0 0.0889211 1 -0.0122672 5.13112e-05
734 1 32.9906 7.47764 0 1.01306 2 0 0.106338 1 -0.000502358 -0.00463912
634 1 33.4902 6.59851 0 1.00318 2 0 0.0895603 1 0.00777589 0.000815967
635 1 34.4895 6.59865 0 1.01335 2 0 0.0903698 1 -0.0113268 0.0101226
685 1 33.987 7.46394 0 1.01182 2 0 0.107039 1 0.00577703 0.00356214
686 1 34.9852 7.46638 0 1.01566 2 0 0.108237 1 -0.00273615 -0.00544803
636 1 35.4843 6.59679 0 1.01343 2 0 0.0911204 1 0.00415853 0.000630177