ITEM: TIMESTEP
41000
ITEM: NUMBER OF ATOMS
15950
ITEM: BOX BOUNDS pp pp pp
0.0000000000000000e+00 1.0000000000000000e+02
-5.0000000000000000e+00 2.0000000000000000e+02
-5.0000000000000000e-01 5.0000000000000000e-01
ITEM: ATOMS id type x y z c_rho c_phase c_nbond c_temp f_rheo_chi_chi fx fy
1 2 0 -5 0 1 2 8 2.23704e-08 1 0 0
2 2 1 -5 0 1 2 8 2.92511e-08 1 0 0
51 2 0 -4 0 1 2 8 9.78058e-08 1 0 0
52 2 1 -4 0 1 2 8 1.30381e-07 1 0 0
3 2 2 -5 0 1 2 8 5.19843e-08 1 0 0
4 2 3 -5 0 1 2 8 9.32231e-08 1 0 0
53 2 2 -4 0 1 2 8 2.38875e-07 1 0 0
54 2 3 -4 0 1 2 8 4.36712e-07 1 0 0
5 2 4 -5 0 1 2 7 1.58084e-07 1 0 0
55 2 4 -4 0 1 2 8 7.32113e-07 1 0 0
6 2 5 -5 0 1 2 6 2.54603e-07 1 0 0
7 2 6 -5 0 1 2 5 3.61578e-07 1 0 0
56 2 5 -4 0 1 2 8 1.11505e-06 1 0 0
57 2 6 -4 0 1 2 8 1.54512e-06 1 0 0
8 2 7 -5 0 1 2 5 4.61461e-07 1 0 0
9 2 8 -5 0 1 2 5 5.51195e-07 1 0 0
58 2 7 -4 0 1 2 8 1.97456e-06 1 0 0
59 2 8 -4 0 1 2 8 2.36416e-06 1 0 0
10 2 9 -5 0 1 2 5 6.26419e-07 1 0 0
60 2 9 -4 0 1 2 8 2.69151e-06 1 0 0
11 2 10 -5 0 1 2 5 6.86509e-07 1 0 0
12 2 11 -5 0 1 2 5 7.34022e-07 1 0 0
61 2 10 -4 0 1 2 8 2.95391e-06 1 0 0
62 2 11 -4 0 1 2 8 3.16271e-06 1 0 0
13 2 12 -5 0 1 2 5 7.72482e-07 1 0 0
14 2 13 -5 0 1 2 5 8.04272e-07 1 0 0
63 2 12 -4 0 1 2 8 3.33316e-06 1 0 0
64 2 13 -4 0 1 2 8 3.47505e-06 1 0 0
15 2 14 -5 0 1 2 5 8.29973e-07 1 0 0
65 2 14 -4 0 1 2 8 3.58991e-06 1 0 0
16 2 15 -5 0 1 2 5 8.49494e-07 1 0 0
17 2 16 -5 0 1 2 5 8.63568e-07 1 0 0
66 2 15 -4 0 1 2 8 3.67668e-06 1 0 0
67 2 16 -4 0 1 2 8 3.7391e-06 1 0 0
18 2 17 -5 0 1 2 5 8.73724e-07 1 0 0
19 2 18 -5 0 1 2 5 8.80763e-07 1 0 0
68 2 17 -4 0 1 2 8 3.78528e-06 1 0 0
69 2 18 -4 0 1 2 8 3.81965e-06 1 0 0
20 2 19 -5 0 1 2 5 8.83701e-07 1 0 0
70 2 19 -4 0 1 2 8 3.83755e-06 1 0 0
21 2 20 -5 0 1 2 5 8.80619e-07 1 0 0
22 2 21 -5 0 1 2 5 8.70752e-07 1 0 0
71 2 20 -4 0 1 2 8 3.82937e-06 1 0 0
72 2 21 -4 0 1 2 8 3.79066e-06 1 0 0
23 2 22 -5 0 1 2 5 8.56042e-07 1 0 0
24 2 23 -5 0 1 2 5 8.41037e-07 1 0 0
73 2 22 -4 0 1 2 8 3.72931e-06 1 0 0
74 2 23 -4 0 1 2 8 3.66529e-06 1 0 0
25 2 24 -5 0 1 2 5 8.31213e-07 1 0 0
75 2 24 -4 0 1 2 8 3.6232e-06 1 0 0
26 2 25 -5 0 1 2 5 8.30533e-07 1 0 0
27 2 26 -5 0 1 2 5 8.39581e-07 1 0 0
76 2 25 -4 0 1 2 8 3.62119e-06 1 0 0
77 2 26 -4 0 1 2 8 3.66186e-06 1 0 0
28 2 27 -5 0 1 2 5 8.55615e-07 1 0 0
29 2 28 -5 0 1 2 5 8.74495e-07 1 0 0
78 2 27 -4 0 1 2 8 3.73224e-06 1 0 0
79 2 28 -4 0 1 2 8 3.81327e-06 1 0 0
30 2 29 -5 0 1 2 5 8.92818e-07 1 0 0
80 2 29 -4 0 1 2 8 3.89028e-06 1 0 0
31 2 30 -5 0 1 2 5 9.08545e-07 1 0 0
32 2 31 -5 0 1 2 5 9.20347e-07 1 0 0
81 2 30 -4 0 1 2 8 3.95569e-06 1 0 0
82 2 31 -4 0 1 2 8 4.00481e-06 1 0 0
33 2 32 -5 0 1 2 5 9.27235e-07 1 0 0
34 2 33 -5 0 1 2 5 9.2913e-07 1 0 0
83 2 32 -4 0 1 2 8 4.03344e-06 1 0 0
84 2 33 -4 0 1 2 8 4.04092e-06 1 0 0
35 2 34 -5 0 1 2 5 9.27318e-07 1 0 0
85 2 34 -4 0 1 2 8 4.03293e-06 1 0 0
36 2 35 -5 0 1 2 5 9.2369e-07 1 0 0
37 2 36 -5 0 1 2 5 9.1925e-07 1 0 0
86 2 35 -4 0 1 2 8 4.01815e-06 1 0 0
87 2 36 -4 0 1 2 8 4.00103e-06 1 0 0
38 2 37 -5 0 1 2 5 9.13384e-07 1 0 0
39 2 38 -5 0 1 2 5 9.04601e-07 1 0 0
88 2 37 -4 0 1 2 8 3.97826e-06 1 0 0
89 2 38 -4 0 1 2 8 3.94224e-06 1 0 0
40 2 39 -5 0 1 2 5 8.92165e-07 1 0 0
90 2 39 -4 0 1 2 8 3.88873e-06 1 0 0
41 2 40 -5 0 1 2 5 8.77486e-07 1 0 0
42 2 41 -5 0 1 2 5 8.64262e-07 1 0 0
91 2 40 -4 0 1 2 8 3.82348e-06 1 0 0
92 2 41 -4 0 1 2 8 3.76326e-06 1 0 0
43 2 42 -5 0 1 2 5 8.56936e-07 1 0 0
44 2 43 -5 0 1 2 5 8.58014e-07 1 0 0
93 2 42 -4 0 1 2 8 3.72901e-06 1 0 0
94 2 43 -4 0 1 2 8 3.73313e-06 1 0 0
45 2 44 -5 0 1 2 5 8.66011e-07 1 0 0
95 2 44 -4 0 1 2 8 3.76938e-06 1 0 0
46 2 45 -5 0 1 2 5 8.7585e-07 1 0 0
47 2 46 -5 0 1 2 5 8.81918e-07 1 0 0
96 2 45 -4 0 1 2 8 3.81431e-06 1 0 0
97 2 46 -4 0 1 2 8 3.84172e-06 1 0 0
48 2 47 -5 0 1 2 5 8.81666e-07 1 0 0
49 2 48 -5 0 1 2 5 8.77046e-07 1 0 0
98 2 47 -4 0 1 2 8 3.83978e-06 1 0 0
99 2 48 -4 0 1 2 8 3.81782e-06 1 0 0
50 2 49 -5 0 1 2 5 8.72767e-07 1 0 0
100 2 49 -4 0 1 2 8 3.79796e-06 1 0 0
101 2 0 -3 0 1 2 8 3.92889e-07 1 0 0
102 2 1 -3 0 1 2 8 5.34982e-07 1 0 0
151 2 0 -2 0 1 2 8 1.43799e-06 1 0 0
152 2 1 -2 0 1 2 8 2.00328e-06 1 0 0
103 2 2 -3 0 1 2 8 1.01336e-06 1 0 0
104 2 3 -3 0 1 2 8 1.8994e-06 1 0 0
153 2 2 -2 0 1 2 8 3.93031e-06 1 0 0
154 2 3 -2 0 1 2 8 7.56875e-06 1 0 0
105 2 4 -3 0 1 2 8 3.23533e-06 1 0 0
155 2 4 -2 0 1 2 8 1.31492e-05 1 0 0
106 2 5 -3 0 1 2 8 4.96501e-06 1 0 0
107 2 6 -3 0 1 2 8 6.9209e-06 1 0 0
156 2 5 -2 0 1 2 8 2.04524e-05 1 0 0
157 2 6 -2 0 1 2 8 2.87447e-05 1 0 0
108 2 7 -3 0 1 2 8 8.88283e-06 1 0 0
109 2 8 -3 0 1 2 8 1.06626e-05 1 0 0
158 2 7 -2 0 1 2 8 3.70604e-05 1 0 0
159 2 8 -2 0 1 2 8 4.45951e-05 1 0 0
110 2 9 -3 0 1 2 8 1.21582e-05 1 0 0
160 2 9 -2 0 1 2 8 5.09325e-05 1 0 0
111 2 10 -3 0 1 2 8 1.33603e-05 1 0 0
112 2 11 -3 0 1 2 8 1.43228e-05 1 0 0
161 2 10 -2 0 1 2 8 5.60486e-05 1 0 0
162 2 11 -2 0 1 2 8 6.01784e-05 1 0 0
113 2 12 -3 0 1 2 8 1.51161e-05 1 0 0
114 2 13 -3 0 1 2 8 1.57827e-05 1 0 0
163 2 12 -2 0 1 2 8 6.36199e-05 1 0 0
164 2 13 -2 0 1 2 8 6.65423e-05 1 0 0
115 2 14 -3 0 1 2 8 1.63238e-05 1 0 0
165 2 14 -2 0 1 2 8 6.89243e-05 1 0 0
116 2 15 -3 0 1 2 8 1.67301e-05 1 0 0
117 2 16 -3 0 1 2 8 1.70213e-05 1 0 0
166 2 15 -2 0 1 2 8 7.0704e-05 1 0 0
167 2 16 -2 0 1 2 8 7.19762e-05 1 0 0
118 2 17 -3 0 1 2 8 1.72423e-05 1 0 0
119 2 18 -3 0 1 2 8 1.74187e-05 1 0 0
168 2 17 -2 0 1 2 8 7.29698e-05 1 0 0
169 2 18 -2 0 1 2 8 7.38161e-05 1 0 0
120 2 19 -3 0 1 2 8 1.75266e-05 1 0 0
170 2 19 -2 0 1 2 8 7.44014e-05 1 0 0
121 2 20 -3 0 1 2 8 1.75152e-05 1 0 0
122 2 21 -3 0 1 2 8 1.73584e-05 1 0 0
171 2 20 -2 0 1 2 8 7.44799e-05 1 0 0
172 2 21 -2 0 1 2 8 7.3919e-05 1 0 0
123 2 22 -3 0 1 2 8 1.70901e-05 1 0 0
124 2 23 -3 0 1 2 8 1.68025e-05 1 0 0
173 2 22 -2 0 1 2 8 7.2853e-05 1 0 0
174 2 23 -2 0 1 2 8 7.16733e-05 1 0 0
125 2 24 -3 0 1 2 8 1.66125e-05 1 0 0
175 2 24 -2 0 1 2 8 7.08901e-05 1 0 0
126 2 25 -3 0 1 2 8 1.66083e-05 1 0 0
127 2 26 -3 0 1 2 8 1.68023e-05 1 0 0
176 2 25 -2 0 1 2 8 7.09011e-05 1 0 0
177 2 26 -2 0 1 2 8 7.1764e-05 1 0 0
128 2 27 -3 0 1 2 8 1.71293e-05 1 0 0
129 2 28 -3 0 1 2 8 1.74956e-05 1 0 0
178 2 27 -2 0 1 2 8 7.31739e-05 1 0 0
179 2 28 -2 0 1 2 8 7.47037e-05 1 0 0
130 2 29 -3 0 1 2 8 1.7835e-05 1 0 0
180 2 29 -2 0 1 2 8 7.6079e-05 1 0 0
131 2 30 -3 0 1 2 8 1.81201e-05 1 0 0
132 2 31 -3 0 1 2 8 1.83353e-05 1 0 0
181 2 30 -2 0 1 2 8 7.72218e-05 1 0 0
182 2 31 -2 0 1 2 8 7.80946e-05 1 0 0
133 2 32 -3 0 1 2 8 1.84611e-05 1 0 0
134 2 33 -3 0 1 2 8 1.84919e-05 1 0 0
183 2 32 -2 0 1 2 8 7.86109e-05 1 0 0
184 2 33 -2 0 1 2 8 7.87312e-05 1 0 0
135 2 34 -3 0 1 2 8 1.84543e-05 1 0 0
185 2 34 -2 0 1 2 8 7.85702e-05 1 0 0
136 2 35 -3 0 1 2 8 1.83911e-05 1 0 0
137 2 36 -3 0 1 2 8 1.83239e-05 1 0 0
186 2 35 -2 0 1 2 8 7.83253e-05 1 0 0
187 2 36 -2 0 1 2 8 7.80931e-05 1 0 0
138 2 37 -3 0 1 2 8 1.82342e-05 1 0 0
139 2 38 -3 0 1 2 8 1.80814e-05 1 0 0
188 2 37 -2 0 1 2 8 7.77809e-05 1 0 0
189 2 38 -2 0 1 2 8 7.71924e-05 1 0 0
140 2 39 -3 0 1 2 8 1.78407e-05 1 0 0
190 2 39 -2 0 1 2 8 7.61996e-05 1 0 0
141 2 40 -3 0 1 2 8 1.75361e-05 1 0 0
142 2 41 -3 0 1 2 8 1.72475e-05 1 0 0
191 2 40 -2 0 1 2 8 7.48911e-05 1 0 0
192 2 41 -2 0 1 2 8 7.3616e-05 1 0 0
143 2 42 -3 0 1 2 8 1.70792e-05 1 0 0
144 2 43 -3 0 1 2 8 1.70962e-05 1 0 0
193 2 42 -2 0 1 2 8 7.28523e-05 1 0 0
194 2 43 -2 0 1 2 8 7.29145e-05 1 0 0
145 2 44 -3 0 1 2 8 1.7271e-05 1 0 0
195 2 44 -2 0 1 2 8 7.36918e-05 1 0 0
146 2 45 -3 0 1 2 8 1.74885e-05 1 0 0
147 2 46 -3 0 1 2 8 1.76189e-05 1 0 0
196 2 45 -2 0 1 2 8 7.46631e-05 1 0 0
197 2 46 -2 0 1 2 8 7.52325e-05 1 0 0
148 2 47 -3 0 1 2 8 1.7604e-05 1 0 0
149 2 48 -3 0 1 2 8 1.74915e-05 1 0 0
198 2 47 -2 0 1 2 8 7.51383e-05 1 0 0
199 2 48 -2 0 1 2 8 7.46055e-05 1 0 0
150 2 49 -3 0 1 2 8 1.7392e-05 1 0 0
200 2 49 -2 0 1 2 8 7.4144e-05 1 0 0
201 2 0 -1 0 1 2 8 4.75246e-06 1 0 0
202 2 1 -1 0 1 2 8 6.78072e-06 1 0 0
203 2 2 -1 0 1 2 8 1.37915e-05 1 0 0
204 2 3 -1 0 1 2 8 2.73168e-05 1 0 0
205 2 4 -1 0 1 2 8 4.84652e-05 1 0 0
206 2 5 -1 0 1 2 8 7.64701e-05 1 0 0
207 2 6 -1 0 1 2 8 0.000108375 1 0 0
208 2 7 -1 0 1 2 8 0.000140318 1 0 0
209 2 8 -1 0 1 2 8 0.000169221 1 0 0
210 2 9 -1 0 1 2 8 0.000193589 1 0 0
211 2 10 -1 0 1 2 8 0.000213397 1 0 0
212 2 11 -1 0 1 2 8 0.000229555 1 0 0
213 2 12 -1 0 1 2 8 0.000243191 1 0 0
214 2 13 -1 0 1 2 8 0.000254907 1 0 0
215 2 14 -1 0 1 2 8 0.000264514 1 0 0
216 2 15 -1 0 1 2 8 0.000271675 1 0 0
217 2 16 -1 0 1 2 8 0.000276801 1 0 0
218 2 17 -1 0 1 2 8 0.00028093 1 0 0
219 2 18 -1 0 1 2 8 0.000284659 1 0 0
220 2 19 -1 0 1 2 8 0.000287492 1 0 0
221 2 20 -1 0 1 2 8 0.000288367 1 0 0
222 2 21 -1 0 1 2 8 0.000286707 1 0 0
223 2 22 -1 0 1 2 8 0.000283 1 0 0
224 2 23 -1 0 1 2 8 0.000278723 1 0 0
225 2 24 -1 0 1 2 8 0.000275871 1 0 0
226 2 25 -1 0 1 2 8 0.000276068 1 0 0
227 2 26 -1 0 1 2 8 0.000279569 1 0 0
228 2 27 -1 0 1 2 8 0.000285091 1 0 0
229 2 28 -1 0 1 2 8 0.000290864 1 0 0
230 2 29 -1 0 1 2 8 0.000295868 1 0 0
231 2 30 -1 0 1 2 8 0.000299982 1 0 0
232 2 31 -1 0 1 2 8 0.000303193 1 0 0
233 2 32 -1 0 1 2 8 0.000305139 1 0 0
234 2 33 -1 0 1 2 8 0.000305588 1 0 0
235 2 34 -1 0 1 2 8 0.000304984 1 0 0
236 2 35 -1 0 1 2 8 0.000304154 1 0 0
237 2 36 -1 0 1 2 8 0.000303491 1 0 0
238 2 37 -1 0 1 2 8 0.000302581 1 0 0
239 2 38 -1 0 1 2 8 0.000300585 1 0 0
240 2 39 -1 0 1 2 8 0.000296927 1 0 0
241 2 40 -1 0 1 2 8 0.000291886 1 0 0
242 2 41 -1 0 1 2 8 0.000286822 1 0 0
243 2 42 -1 0 1 2 8 0.000283703 1 0 0
244 2 43 -1 0 1 2 8 0.000283894 1 0 0
245 2 44 -1 0 1 2 8 0.000287003 1 0 0
246 2 45 -1 0 1 2 8 0.000290899 1 0 0
247 2 46 -1 0 1 2 8 0.000293125 1 0 0
248 2 47 -1 0 1 2 8 0.000292622 1 0 0
249 2 48 -1 0 1 2 8 0.000290351 1 0 0
250 2 49 -1 0 1 2 8 0.000288419 1 0 0
251 2 0 0 0 1 2 8 1.40527e-05 1 0 0
252 2 1 0 0 1 2 8 2.05365e-05 1 0 0
301 2 0 1 0 1 2 8 3.68627e-05 1 0 0
302 2 1 1 0 1 2 8 5.51019e-05 1 0 0
253 2 2 0 0 1 2 8 4.32759e-05 1 0 0
254 2 3 0 0 1 2 8 8.81714e-05 1 0 0
303 2 2 1 0 1 2 8 0.000119926 1 0 0
304 2 3 1 0 1 2 8 0.000250819 1 0 0
255 2 4 0 0 1 2 8 0.00015988 1 0 0
305 2 4 1 0 1 2 8 0.000464665 1 0 0
256 2 5 0 0 1 2 8 0.000256043 1 0 0
257 2 6 0 0 1 2 8 0.000365802 1 0 0
306 2 5 1 0 1 2 8 0.00075546 1 0 0
307 2 6 1 0 1 2 8 0.00108703 1 0 0
258 2 7 0 0 1 2 8 0.000475276 1 0 0
259 2 8 0 0 1 2 8 0.000574169 1 0 0
308 2 7 1 0 1 2 8 0.00141505 1 0 0
309 2 8 1 0 1 2 8 0.00171082 1 0 0
260 2 9 0 0 1 2 8 0.000657924 1 0 0
310 2 9 1 0 1 2 8 0.00196336 1 0 0
261 2 10 0 0 1 2 8 0.000726715 1 0 0
262 2 11 0 0 1 2 8 0.000783594 1 0 0
311 2 10 1 0 1 2 8 0.0021739 1 0 0
312 2 11 1 0 1 2 8 0.00235099 1 0 0
263 2 12 0 0 1 2 8 0.000832274 1 0 0
264 2 13 0 0 1 2 8 0.000874655 1 0 0
313 2 12 1 0 1 2 8 0.00250496 1 0 0
314 2 13 1 0 1 2 8 0.00264093 1 0 0
265 2 14 0 0 1 2 8 0.000909703 1 0 0
315 2 14 1 0 1 2 8 0.00275477 1 0 0
266 2 15 0 0 1 2 8 0.000935896 1 0 0
267 2 16 0 0 1 2 8 0.000954798 1 0 0
316 2 15 1 0 1 2 8 0.00284075 1 0 0
317 2 16 1 0 1 2 8 0.00290397 1 0 0
268 2 17 0 0 1 2 8 0.000970542 1 0 0
269 2 18 0 0 1 2 8 0.000985468 1 0 0
318 2 17 1 0 1 2 8 0.00295848 1 0 0
319 2 18 1 0 1 2 8 0.00301198 1 0 0
270 2 19 0 0 1 2 8 0.000997612 1 0 0
320 2 19 1 0 1 2 8 0.00305759 1 0 0
271 2 20 0 0 1 2 8 0.00100296 1 0 0
272 2 21 0 0 1 2 8 0.00099943 1 0 0
321 2 20 1 0 1 2 8 0.00308236 1 0 0
322 2 21 1 0 1 2 8 0.00308024 1 0 0
273 2 22 0 0 1 2 8 0.000988618 1 0 0
274 2 23 0 0 1 2 8 0.000975379 1 0 0
323 2 22 1 0 1 2 8 0.00305611 1 0 0
324 2 23 1 0 1 2 8 0.00302323 1 0 0
275 2 24 0 0 1 2 8 0.000966524 1 0 0
325 2 24 1 0 1 2 8 0.0030013 1 0 0
276 2 25 0 0 1 2 8 0.000967962 1 0 0
277 2 26 0 0 1 2 8 0.000980745 1 0 0
326 2 25 1 0 1 2 8 0.00300903 1 0 0
327 2 26 1 0 1 2 8 0.00305035 1 0 0
278 2 27 0 0 1 2 8 0.00100011 1 0 0
279 2 28 0 0 1 2 8 0.00101952 1 0 0
328 2 27 1 0 1 2 8 0.00311012 1 0 0
329 2 28 1 0 1 2 8 0.00316726 1 0 0
280 2 29 0 0 1 2 8 0.00103561 1 0 0
330 2 29 1 0 1 2 8 0.00321233 1 0 0
281 2 30 0 0 1 2 8 0.00104874 1 0 0
282 2 31 0 0 1 2 8 0.00105934 1 0 0
331 2 30 1 0 1 2 8 0.00324892 1 0 0
332 2 31 1 0 1 2 8 0.0032801 1 0 0
283 2 32 0 0 1 2 8 0.00106604 1 0 0
284 2 33 0 0 1 2 8 0.00106768 1 0 0
333 2 32 1 0 1 2 8 0.00330106 1 0 0
334 2 33 1 0 1 2 8 0.0033069 1 0 0
285 2 34 0 0 1 2 8 0.00106576 1 0 0
335 2 34 1 0 1 2 8 0.0033021 1 0 0
286 2 35 0 0 1 2 8 0.0010634 1 0 0
287 2 36 0 0 1 2 8 0.00106202 1 0 0
336 2 35 1 0 1 2 8 0.00329699 1 0 0
337 2 36 1 0 1 2 8 0.00329602 1 0 0
288 2 37 0 0 1 2 8 0.00106 1 0 0
289 2 38 0 0 1 2 8 0.00105421 1 0 0
338 2 37 1 0 1 2 8 0.0032936 1 0 0
339 2 38 1 0 1 2 8 0.00327987 1 0 0
290 2 39 0 0 1 2 8 0.00104244 1 0 0
340 2 39 1 0 1 2 8 0.00324789 1 0 0
291 2 40 0 0 1 2 8 0.00102539 1 0 0
292 2 41 0 0 1 2 8 0.00100767 1 0 0
341 2 40 1 0 1 2 8 0.0031988 1 0 0
342 2 41 1 0 1 2 8 0.0031457 1 0 0
293 2 42 0 0 1 2 8 0.000996434 1 0 0
294 2 43 0 0 1 2 8 0.000996893 1 0 0
343 2 42 1 0 1 2 8 0.00311092 1 0 0
344 2 43 1 0 1 2 8 0.00311167 1 0 0
295 2 44 0 0 1 2 8 0.00100787 1 0 0
345 2 44 1 0 1 2 8 0.00314502 1 0 0
296 2 45 0 0 1 2 8 0.00102164 1 0 0
297 2 46 0 0 1 2 8 0.00102926 1 0 0
346 2 45 1 0 1 2 8 0.00318685 1 0 0
347 2 46 1 0 1 2 8 0.00320901 1 0 0
298 2 47 0 0 1 2 8 0.00102698 1 0 0
299 2 48 0 0 1 2 8 0.00101843 1 0 0
348 2 47 1 0 1 2 8 0.00320037 1 0 0
349 2 48 1 0 1 2 8 0.00317277 1 0 0
300 2 49 0 0 1 2 8 0.00101129 1 0 0
350 2 49 1 0 1 2 8 0.00315013 1 0 0
351 2 0 2 0 1 2 8 8.5231e-05 1 0 0
352 2 1 2 0 1 2 8 0.000129932 1 0 0
401 2 0 3 0 1 2 8 0.000173215 1 0 0
402 2 1 3 0 1 2 8 0.000268311 1 0 0
353 2 2 2 0 1 2 8 0.000290175 1 0 0
354 2 3 2 0 1 2 8 0.000618912 1 0 0
403 2 2 3 0 1 2 8 0.000609262 1 0 0
404 2 3 3 0 1 2 8 0.00130783 1 0 0
355 2 4 2 0 1 2 8 0.00116752 1 0 0
405 2 4 3 0 1 2 8 0.00247774 1 0 0
356 2 5 2 0 1 2 8 0.00192647 1 0 0
357 2 6 2 0 1 2 8 0.00278564 1 0 0
406 2 5 3 0 1 2 8 0.00415594 1 0 0
407 2 6 3 0 1 2 8 0.0060226 1 0 0
358 2 7 2 0 1 2 8 0.00362122 1 0 0
359 2 8 2 0 1 2 8 0.00437366 1 0 0
408 2 7 3 0 1 2 8 0.00775713 1 0 0
409 2 8 3 0 1 2 8 0.00932879 1 0 0
360 2 9 2 0 1 2 8 0.00502527 1 0 0
410 2 9 3 0 1 2 8 0.0107242 1 0 0
361 2 10 2 0 1 2 8 0.00557984 1 0 0
362 2 11 2 0 1 2 8 0.00605659 1 0 0
411 2 10 3 0 1 2 8 0.0119434 1 0 0
412 2 11 3 0 1 2 8 0.0130214 1 0 0
363 2 12 2 0 1 2 8 0.00647844 1 0 0
364 2 13 2 0 1 2 8 0.00685669 1 0 0
413 2 12 3 0 1 2 8 0.0139955 1 0 0
414 2 13 3 0 1 2 8 0.014882 1 0 0
365 2 14 2 0 1 2 8 0.00717897 1 0 0
415 2 14 3 0 1 2 8 0.0156573 1 0 0
366 2 15 2 0 1 2 8 0.00742786 1 0 0
367 2 16 2 0 1 2 8 0.00761703 1 0 0
416 2 15 3 0 1 2 8 0.0162788 1 0 0
417 2 16 3 0 1 2 8 0.0167749 1 0 0
368 2 17 2 0 1 2 8 0.00778578 1 0 0
369 2 18 2 0 1 2 8 0.00795432 1 0 0
418 2 17 3 0 1 2 8 0.0172325 1 0 0
419 2 18 3 0 1 2 8 0.01769 1 0 0
370 2 19 2 0 1 2 8 0.00810196 1 0 0
420 2 19 3 0 1 2 8 0.0180957 1 0 0
371 2 20 2 0 1 2 8 0.00819417 1 0 0
372 2 21 2 0 1 2 8 0.00821861 1 0 0
421 2 20 3 0 1 2 8 0.0183754 1 0 0
422 2 21 3 0 1 2 8 0.0185193 1 0 0
373 2 22 2 0 1 2 8 0.00818887 1 0 0
374 2 23 2 0 1 2 8 0.00813303 1 0 0
423 2 22 3 0 1 2 8 0.018565 1 0 0
424 2 23 3 0 1 2 8 0.0185463 1 0 0
375 2 24 2 0 1 2 8 0.00809689 1 0 0
425 2 24 3 0 1 2 8 0.0185416 1 0 0
376 2 25 2 0 1 2 8 0.00813043 1 0 0
377 2 26 2 0 1 2 8 0.00824622 1 0 0
426 2 25 3 0 1 2 8 0.0186631 1 0 0
427 2 26 3 0 1 2 8 0.0189375 1 0 0
378 2 27 2 0 1 2 8 0.00840509 1 0 0
379 2 28 2 0 1 2 8 0.0085498 1 0 0
428 2 27 3 0 1 2 8 0.0192961 1 0 0
429 2 28 3 0 1 2 8 0.0196081 1 0 0
380 2 29 2 0 1 2 8 0.00865789 1 0 0
430 2 29 3 0 1 2 8 0.019828 1 0 0
381 2 30 2 0 1 2 8 0.00874643 1 0 0
382 2 31 2 0 1 2 8 0.00882761 1 0 0
431 2 30 3 0 1 2 8 0.0200167 1 0 0
432 2 31 3 0 1 2 8 0.0202054 1 0 0
383 2 32 2 0 1 2 8 0.00888679 1 0 0
384 2 33 2 0 1 2 8 0.00890699 1 0 0
433 2 32 3 0 1 2 8 0.0203571 1 0 0
434 2 33 3 0 1 2 8 0.0204228 1 0 0
385 2 34 2 0 1 2 8 0.00889922 1 0 0
435 2 34 3 0 1 2 8 0.0204218 1 0 0
386 2 35 2 0 1 2 8 0.00889336 1 0 0
387 2 36 2 0 1 2 8 0.008901 1 0 0
436 2 35 3 0 1 2 8 0.0204336 1 0 0
437 2 36 3 0 1 2 8 0.0204814 1 0 0
388 2 37 2 0 1 2 8 0.00890537 1 0 0
389 2 38 2 0 1 2 8 0.00888123 1 0 0
438 2 37 3 0 1 2 8 0.0205188 1 0 0
439 2 38 3 0 1 2 8 0.0204962 1 0 0
390 2 39 2 0 1 2 8 0.00881191 1 0 0
440 2 39 3 0 1 2 8 0.0203905 1 0 0
391 2 40 2 0 1 2 8 0.00869745 1 0 0
392 2 41 2 0 1 2 8 0.00856675 1 0 0
441 2 40 3 0 1 2 8 0.0201959 1 0 0
442 2 41 3 0 1 2 8 0.0199466 1 0 0
393 2 42 2 0 1 2 8 0.00847808 1 0 0
394 2 43 2 0 1 2 8 0.00847876 1 0 0
443 2 42 3 0 1 2 8 0.0197718 1 0 0
444 2 43 3 0 1 2 8 0.0197736 1 0 0
395 2 44 2 0 1 2 8 0.00856314 1 0 0
445 2 44 3 0 1 2 8 0.0199453 1 0 0
396 2 45 2 0 1 2 8 0.00866858 1 0 0
397 2 46 2 0 1 2 8 0.00872128 1 0 0
446 2 45 3 0 1 2 8 0.0201594 1 0 0
447 2 46 3 0 1 2 8 0.0202569 1 0 0
398 2 47 2 0 1 2 8 0.00869472 1 0 0
399 2 48 2 0 1 2 8 0.00862146 1 0 0
448 2 47 3 0 1 2 8 0.0201936 1 0 0
449 2 48 3 0 1 2 8 0.0200456 1 0 0
400 2 49 2 0 1 2 8 0.00856237 1 0 0
450 2 49 3 0 1 2 8 0.0199238 1 0 0
451 2 0 4 0 1 2 8 0.000310111 1 0 0
452 2 1 4 0 1 2 8 0.000486524 1 0 0
453 2 2 4 0 1 2 8 0.00111519 1 0 0
454 2 3 4 0 1 2 8 0.00237185 1 0 0
455 2 4 4 0 1 2 7 0.00433521 1 0 0
456 2 5 4 0 1 2 6 0.00740913 1 0 0
457 2 6 4 0 1 2 5 0.0105223 1 0 0
506 1 5.48291 4.87663 0 1.0006 2 0 0.0122789 1 0.000390782 -0.00283754
507 1 6.48687 4.87335 0 1.02569 2 0 0.0151873 1 -0.00142619 -0.00254382
458 2 7 4 0 1 2 5 0.0132088 1 0 0
459 2 8 4 0 1 2 5 0.0157388 1 0 0
508 1 7.49593 4.86714 0 1.03193 2 0 0.018079 1 -0.00145551 -0.000644747
460 2 9 4 0 1 2 5 0.0180591 1 0 0
510 1 8.49537 4.86607 0 1.01036 2 0 0.0208659 1 0.000796821 -0.000598313
511 1 9.4963 4.87019 0 1.00136 2 0 0.0234896 1 0.000762298 -0.00417232
461 2 10 4 0 1 2 5 0.0201536 1 0 0
462 2 11 4 0 1 2 5 0.0220797 1 0 0
512 1 10.4993 4.86532 0 1.01573 2 0 0.025995 1 0.00296714 -0.00186978
513 1 11.5024 4.8647 0 1.01534 2 0 0.0283828 1 -0.000804793 -0.00215276
463 2 12 4 0 1 2 5 0.0238621 1 0 0
464 2 13 4 0 1 2 5 0.0255047 1 0 0
514 1 12.5014 4.86556 0 1.01802 2 0 0.0306145 1 -0.00323378 0.000286336
465 2 14 4 0 1 2 5 0.026989 1 0 0
515 1 13.4989 4.86625 0 1.02031 2 0 0.0327001 1 0.00751923 -0.00304709
516 1 14.5032 4.86652 0 1.0096 2 0 0.0346208 1 -0.011299 -0.00286288
466 2 15 4 0 1 2 5 0.0282469 1 0 0
467 2 16 4 0 1 2 5 0.0293171 1 0 0
518 1 16.499 4.86412 0 1.02515 2 0 0.0379785 1 0.00102898 0.00564009
517 1 15.4984 4.86437 0 1.02614 2 0 0.0363565 1 0.01242 0.0032758
468 2 17 4 0 1 2 5 0.0303284 1 0 0
469 2 18 4 0 1 2 5 0.0313165 1 0 0
519 1 17.5033 4.86694 0 1.0239 2 0 0.0394972 1 -0.0023505 -0.00526892
470 2 19 4 0 1 2 5 0.0321958 1 0 0
520 1 18.5024 4.86281 0 1.00577 2 0 0.0408808 1 0.000910034 0.0068563
521 1 19.503 4.86328 0 1.00453 2 0 0.0420916 1 -0.00134348 -0.00433977
471 2 20 4 0 1 2 5 0.0328592 1 0 0
472 2 21 4 0 1 2 5 0.0333301 1 0 0
523 1 21.4998 4.86308 0 1.02268 2 0 0.0440905 1 0.00449872 -0.00318323
522 1 20.5046 4.86337 0 1.0139 2 0 0.0431388 1 -0.0128545 -0.0102687
473 2 22 4 0 1 2 5 0.0336941 1 0 0
474 2 23 4 0 1 2 5 0.0339387 1 0 0
524 1 22.496 4.8613 0 1.01383 2 0 0.0449519 1 0.0133971 0.00985413
475 2 24 4 0 1 2 5 0.0341452 1 0 0
525 1 23.4957 4.86567 0 1.03669 2 0 0.0457135 1 0.00376451 -0.0146783
526 1 24.4977 4.86374 0 1.04245 2 0 0.046453 1 0.00199313 -0.00318723
476 2 25 4 0 1 2 5 0.0344971 1 0 0
477 2 26 4 0 1 2 5 0.0350218 1 0 0
528 1 26.4959 4.86617 0 1.04147 2 0 0.0480117 1 0.000474305 -0.000725339
527 1 25.4968 4.86799 0 1.03798 2 0 0.0472243 1 0.00102683 -0.0143669
478 2 27 4 0 1 2 5 0.0356619 1 0 0
479 2 28 4 0 1 2 5 0.0362051 1 0 0
529 1 27.4955 4.86619 0 1.0019 2 0 0.0487592 1 0.00087617 1.16263e-05
480 2 29 4 0 1 2 5 0.036593 1 0 0
531 1 29.5007 4.86489 0 1.01679 2 0 0.0500461 1 -0.00226717 0.00335572
530 1 28.4966 4.86264 0 1.02091 2 0 0.049435 1 0.00340198 0.0101568
481 2 30 4 0 1 2 5 0.0369526 1 0 0
482 2 31 4 0 1 2 5 0.0373276 1 0 0
533 1 31.502 4.86643 0 1.004 2 0 0.0511689 1 0.00252212 -0.00672287
532 1 30.4999 4.86746 0 1.0182 2 0 0.0506231 1 -0.000952345 -0.00435112
483 2 32 4 0 1 2 5 0.0376561 1 0 0
484 2 33 4 0 1 2 5 0.0378406 1 0 0
534 1 32.5014 4.86265 0 1.00171 2 0 0.0516194 1 0.000402808 0.00776147
485 2 34 4 0 1 2 5 0.0378938 1 0 0
535 1 33.5009 4.86178 0 1.00275 2 0 0.0519588 1 0.00578691 0.000213346
536 1 34.5067 4.86132 0 1.0237 2 0 0.0522295 1 -0.00332202 0.0034696
486 2 35 4 0 1 2 5 0.0379828 1 0 0
487 2 36 4 0 1 2 5 0.0381412 1 0 0
538 1 36.5057 4.86544 0 1.01227 2 0 0.0527864 1 -0.00437693 -0.00907775
537 1 35.5053 4.86169 0 1.0067 2 0 0.0525198 1 0.0057741 -0.00156577
488 2 37 4 0 1 2 5 0.0382654 1 0 0
489 2 38 4 0 1 2 5 0.0382914 1 0 0
539 1 37.5016 4.86337 0 1.00174 2 0 0.0529748 1 0.0158294 -0.00867579
490 2 39 4 0 1 2 5 0.038221 1 0 0
541 1 39.5068 4.85909 0 1.00168 2 0 0.0530908 1 -0.0238358 0.0157346
540 1 38.5073 4.86196 0 1.01715 2 0 0.0530788 1 -0.0058772 0.00590917
491 2 40 4 0 1 2 5 0.0380377 1 0 0
492 2 41 4 0 1 2 5 0.0377297 1 0 0
542 1 40.4965 4.86018 0 1.01016 2 0 0.0530441 1 0.0273154 0.0122297
543 1 41.5015 4.86206 0 1.03252 2 0 0.053005 1 -0.00086824 0.0107574
493 2 42 4 0 1 2 5 0.0375138 1 0 0
494 2 43 4 0 1 2 5 0.0375371 1 0 0
544 1 42.5086 4.87024 0 1.0319 2 0 0.053061 1 -0.0113862 -0.000143874
495 2 44 4 0 1 2 5 0.0377883 1 0 0
545 1 43.5035 4.86503 0 1.03659 2 0 0.0531845 1 0.00755013 0.00439305
546 1 44.5046 4.87201 0 1.01001 2 0 0.053324 1 0.00147537 -0.00260192
496 2 45 4 0 1 2 5 0.0381008 1 0 0
497 2 46 4 0 1 2 5 0.0382339 1 0 0
548 1 46.5053 4.87438 0 1.00807 2 0 0.0535543 1 0.00783299 -0.000111616
547 1 45.5092 4.88221 0 1.00173 2 0 0.0535162 1 -0.0051961 -0.0111089
498 2 47 4 0 1 2 5 0.038148 1 0 0
499 2 48 4 0 1 2 5 0.0379669 1 0 0
549 1 47.5059 4.87508 0 1.02093 2 0 0.0535738 1 -0.0107609 -0.00888926
500 2 49 4 0 1 2 5 0.0378171 1 0 0
550 1 48.5005 4.86326 0 1.02225 2 0 0.0535698 1 0.00117023 0.00805167
8501 1 49.4959 4.86801 0 1.06187 2 0 0.0536497 1 0.0127606 -0.00539604
501 2 0 5 0 1 2 8 0.000493122 1 0 0
502 2 1 5 0 1 2 8 0.000781564 1 0 0
551 2 0 6 0 1 2 8 0.000706557 1 0 0
552 2 1 6 0 1 2 8 0.00112902 1 0 0
503 2 2 5 0 1 2 8 0.00180128 1 0 0
504 2 3 5 0 1 2 8 0.0038045 1 0 0
553 2 2 6 0 1 2 8 0.00260824 1 0 0
554 2 3 6 0 1 2 8 0.00546466 1 0 0
505 2 4 5 0 1 2 6 0.00683685 1 0 0
555 2 4 6 0 1 2 5 0.00951379 1 0 0
556 1 4.96197 5.72908 0 1.02426 2 0 0.0130842 1 0.000139757 0.00129116
557 1 5.97179 5.74824 0 1.00456 2 0 0.0167562 1 -0.000293312 -0.000520962
558 1 6.98189 5.74046 0 1.00032 2 0 0.0199839 1 0.00153132 0.0026324
509 1 7.99169 5.73398 0 1.00999 2 0 0.0232276 1 -9.77546e-05 -0.00061243
560 1 8.99131 5.73147 0 1.01571 2 0 0.026361 1 0.00173167 0.00713854
561 1 10.0034 5.7311 0 1.04128 2 0 0.0294061 1 0.00255313 -0.00176505
562 1 11.0051 5.72815 0 1.02468 2 0 0.0323397 1 -0.00869991 0.0060942
563 1 12.0025 5.7312 0 1.00884 2 0 0.0351205 1 0.00426252 0.00150878
565 1 13.0039 5.73276 0 1.01555 2 0 0.0377893 1 0.000108303 -0.00108425
566 1 14.0044 5.73176 0 1.01485 2 0 0.0403028 1 -0.00354687 -0.00218157
567 1 15.002 5.73143 0 1.00349 2 0 0.042644 1 0.00440654 -0.00178248
568 1 16.0018 5.73186 0 1.02492 2 0 0.044858 1 0.00395219 -0.00657859
569 1 18.0062 5.7292 0 1.01386 2 0 0.048819 1 -0.00098026 -0.00347924
618 1 17.0022 5.72987 0 1.00786 2 0 0.0469231 1 -0.00150352 -0.00371079
570 1 19.0086 5.72741 0 1.00562 2 0 0.0505319 1 -0.0118562 -0.00663748
571 1 20.0071 5.72382 0 1.00943 2 0 0.0521028 1 -0.0074693 0.00792516
572 1 21.0024 5.72551 0 1.02492 2 0 0.0535808 1 0.0039364 0.0129369
573 1 21.9993 5.72648 0 1.00977 2 0 0.0549463 1 0.00625012 0.0084386
574 1 23.0009 5.72797 0 1.00488 2 0 0.0562049 1 -0.0184283 -0.000272327
575 1 23.9971 5.72515 0 1.01237 2 0 0.0573945 1 0.00954638 0.00765454
576 1 24.9961 5.72832 0 1.01087 2 0 0.0585069 1 0.000288077 -0.00281677
577 1 25.994 5.73124 0 1.01133 2 0 0.0595493 1 0.0045077 -0.0118865
579 1 26.9903 5.73272 0 1.01129 2 0 0.0605193 1 0.0149038 -0.0118956
580 1 27.9927 5.73138 0 1.02117 2 0 0.0614504 1 -0.00182162 -0.00675231
581 1 28.9958 5.73207 0 1.01861 2 0 0.0623164 1 -0.00681393 -0.0135702
632 1 29.9946 5.73888 0 1.0167 2 0 0.0630922 1 0.00238168 -0.0232024
582 1 31.0038 5.7283 0 1.0143 2 0 0.0637959 1 -3.19959e-05 0.00542452
583 1 32.0079 5.73083 0 1.0088 2 0 0.0644626 1 0.000416383 -0.00935227
584 1 33.0106 5.72591 0 1.00514 2 0 0.065062 1 -0.00688041 -0.00405934
585 1 34.0093 5.72209 0 1.02197 2 0 0.0656 1 0.00204737 0.00029829
586 1 35.0152 5.72379 0 1.02669 2 0 0.0660757 1 -0.00641573 -0.00340712
587 1 36.0147 5.7278 0 1.01702 2 0 0.0664825 1 -0.00835186 -0.0184334
588 1 37.0142 5.72566 0 1.01798 2 0 0.0668395 1 -0.0153161 0.0107015
589 1 38.0111 5.72664 0 1.01656 2 0 0.0670885 1 0.00519334 -0.00075386
590 1 39.0117 5.72463 0 1.01208 2 0 0.0672658 1 -0.00514471 0.000334725
591 1 40.0099 5.73031 0 1.01334 2 0 0.0673932 1 0.00968907 -0.0105371
592 1 41.01 5.73211 0 1.02633 2 0 0.067646 1 -0.0102143 -0.0117717
594 1 43.0036 5.73835 0 1.01497 2 0 0.0679152 1 0.00735502 -0.00514947
593 1 42.0051 5.73473 0 1.02837 2 0 0.0677834 1 0.00833728 -0.0136732
595 1 44.0048 5.73644 0 1.01694 2 0 0.067952 1 0.000107243 -0.000260714
596 1 45.0105 5.74375 0 1.01116 2 0 0.0680034 1 -0.0136721 0.00524353
597 1 46.0052 5.74834 0 1.01212 2 0 0.068133 1 0.0169538 -0.00450939
598 1 47.0091 5.73992 0 1.00861 2 0 0.0682541 1 -0.00363121 0.00448965
599 1 48.0086 5.73661 0 1.02545 2 0 0.0683964 1 -0.00732803 -0.00537684
600 1 49.0059 5.73585 0 1.00476 2 0 0.0685244 1 0.00737801 -0.00448599
601 2 0 7 0 1 2 8 0.000928899 1 0 0
602 2 1 7 0 1 2 8 0.00149543 1 0 0
651 2 0 8 0 1 2 8 0.00114003 1 0 0
652 2 1 8 0 1 2 8 0.00184935 1 0 0
603 2 2 7 0 1 2 8 0.00346413 1 0 0
604 2 3 7 0 1 2 8 0.00723559 1 0 0
653 2 2 8 0 1 2 8 0.00430157 1 0 0
654 2 3 8 0 1 2 8 0.00900973 1 0 0
605 2 4 7 0 1 2 5 0.0123554 1 0 0
655 2 4 8 0 1 2 5 0.0151002 1 0 0
656 1 4.9241 7.46793 0 1.01253 2 0 0.0176217 1 0 -5e-05
606 1 5.44623 6.60817 0 1.01839 2 0 0.0176676 1 0 -5e-05
607 1 6.47254 6.61276 0 1.01626 2 0 0.0214397 1 0.000206977 0.000369327
657 1 5.94259 7.48821 0 1.02523 2 0 0.0222973 1 0 -5e-05
608 1 7.49369 6.60058 0 1.01581 2 0 0.0251881 1 -0.0043644 -0.00201115
609 1 7.9922 7.46577 0 1.00447 2 0 0.0307248 1 0.000151824 -0.00185584
658 1 6.99286 7.46593 0 1.00499 2 0 0.0266435 1 -0.00431049 -0.00475329
559 1 8.4924 6.59818 0 1.01669 2 0 0.0288015 1 0.00380998 0.00207777
610 1 9.50316 6.59231 0 1.00382 2 0 0.0323548 1 -0.000778882 0.00123576
661 1 9.00614 7.45625 0 1.00906 2 0 0.0347759 1 0.000328611 -0.000604301
612 1 10.0067 7.46166 0 1.00002 2 0 0.038706 1 0.000995904 -0.00178827
611 1 10.5061 6.59553 0 1.00368 2 0 0.0358191 1 -0.000742829 -0.000323249
564 1 11.5056 6.59942 0 1.01095 2 0 0.0391439 1 0.00290328 -0.00634544
613 1 11.0087 7.46304 0 1.00877 2 0 0.0425754 1 -0.00849635 0.0050588
614 1 12.5047 6.5964 0 1.01882 2 0 0.0423588 1 -0.000708907 0.00418889
665 1 13.0074 7.46149 0 1.00809 2 0 0.0500376 1 -0.00821774 0.0017049
664 1 12.0058 7.47116 0 1.0022 2 0 0.0463679 1 0.0068867 -0.00601761
615 1 13.5073 6.59654 0 1.00601 2 0 0.0454627 1 -0.00673202 -0.000244377
616 1 14.5054 6.59767 0 1.00878 2 0 0.0483836 1 -0.00392155 -0.00123321
666 1 14.0038 7.46244 0 0.997531 2 0 0.053558 1 0.00873906 0.00366848
667 1 15.0063 7.46099 0 1.00922 2 0 0.0569269 1 -0.00198224 0.00491373
617 1 15.5032 6.59446 0 1.01132 2 0 0.0511663 1 0.00254756 0.00511173
668 1 16.0049 7.4578 0 1.01232 2 0 0.0601417 1 0.00263771 0.00156749
619 1 16.5059 6.59531 0 1.00791 2 0 0.053813 1 -0.00304942 -0.00264801
669 1 17.505 6.59216 0 1.0115 2 0 0.0562763 1 2.63316e-06 0.000274785
719 1 17.0078 7.4585 0 1.0104 2 0 0.0631919 1 -0.00239686 -0.00554529
720 1 18.0059 7.45469 0 1.00384 2 0 0.0660445 1 0.00333276 -0.00190065
620 1 18.5076 6.59057 0 1.00047 2 0 0.0585504 1 -0.00253587 -0.000372545
621 1 19.5078 6.58661 0 1.01086 2 0 0.0606716 1 -0.00506329 0.00987365
670 1 19.0087 7.45061 0 1.01205 2 0 0.0687255 1 -0.00665739 0.0036805
671 1 20.0027 7.45386 0 1.01101 2 0 0.0712592 1 0.0121486 -0.0039021
622 1 20.5033 6.59087 0 1.02282 2 0 0.0626759 1 0.00248167 -0.0030009
623 1 21.4996 6.5927 0 1.01715 2 0 0.0645242 1 0.00859789 -0.00311149
672 1 21 7.45714 0 1.01032 2 0 0.0736093 1 0.0102442 -0.00434115
673 1 22.0031 7.45597 0 1.00705 2 0 0.0757551 1 -0.00149167 0.00129471
624 1 22.4995 6.5925 0 1.00933 2 0 0.066202 1 0.00192569 -0.00846553
674 1 23.0033 7.45467 0 1.01197 2 0 0.0777523 1 -0.000799244 -0.00172676
625 1 23.4994 6.58862 0 1.01358 2 0 0.067779 1 0.00428129 0.0118971
626 1 24.4996 6.58882 0 1.01095 2 0 0.0692682 1 -0.0054073 0.00657585
675 1 24.0055 7.45427 0 1.00974 2 0 0.0796499 1 -0.00813853 -0.00106893
676 1 25.0033 7.45251 0 1.01754 2 0 0.0813914 1 -0.00791218 0.00556626
578 1 26.4948 6.59294 0 1.0136 2 0 0.0719313 1 -0.00180677 0.00619457
628 1 25.9986 7.45637 0 1.00647 2 0 0.0830044 1 0.00725251 -0.00452796
627 1 25.4982 6.59137 0 1.0116 2 0 0.0706395 1 -0.00361897 0.0020968
629 1 27.4918 6.59564 0 1.00585 2 0 0.0731618 1 0.00477886 -0.0192999
679 1 27.9955 7.45163 0 1.01276 2 0 0.0860005 1 -0.00248406 0.00502145
678 1 26.9955 7.45541 0 1.01987 2 0 0.0845356 1 -0.00113743 0.00286181
630 1 28.4904 6.59298 0 1.00031 2 0 0.0743424 1 0.00927201 -0.0122891
631 1 29.49 6.59435 0 1.01679 2 0 0.0754248 1 0.00360767 -0.0192556
680 1 28.9982 7.44885 0 1.0041 2 0 0.0873974 1 -0.00734522 0.00583112
681 1 29.9992 7.44334 0 1.0067 2 0 0.0886283 1 -0.00102922 0.0101999
682 1 30.5044 6.59123 0 1.0233 2 0 0.0763464 1 0.00521074 -0.0135545
633 1 31.5071 6.59132 0 1.00197 2 0 0.077196 1 -0.00498376 -0.0182088
732 1 31.0046 7.44766 0 1.02086 2 0 0.0897462 1 0.00843378 -0.012753
683 1 32.0141 7.44322 0 1.00602 2 0 0.0907484 1 0.000905523 0.00386679
684 1 32.5166 6.58885 0 1.01173 2 0 0.0780148 1 -0.00582909 -0.016754
734 1 33.0173 7.44368 0 1.01306 2 0 0.0917117 1 0.0017618 0.00966921
634 1 33.5154 6.58528 0 1.00318 2 0 0.0787873 1 0.00263515 -0.00651354
635 1 34.5162 6.58302 0 1.01335 2 0 0.0794929 1 -0.00700351 -0.0062862
685 1 34.0172 7.44419 0 1.01182 2 0 0.0926013 1 -0.0035719 0.00564487
686 1 35.0146 7.4428 0 1.01566 2 0 0.0933674 1 -0.00255266 0.0129999
636 1 35.5163 6.58457 0 1.01343 2 0 0.0800789 1 -0.0156107 0.0117652
637 1 36.5082 6.58696 0 0.995425 2 0 0.0806508 1 0.0247456 0.0182794
687 1 36.0085 7.45554 0 1.00809 2 0 0.094173 1 0.012266 0.000107271