ITEM: TIMESTEP
43000
ITEM: NUMBER OF ATOMS
15950
ITEM: BOX BOUNDS pp pp pp
0.0000000000000000e+00 1.0000000000000000e+02
-5.0000000000000000e+00 2.0000000000000000e+02
-5.0000000000000000e-01 5.0000000000000000e-01
ITEM: ATOMS id type x y z c_rho c_phase c_nbond c_temp f_rheo_chi_chi fx fy
1 2 0 -5 0 1 2 8 3.08335e-08 1 0 0
2 2 1 -5 0 1 2 8 3.99541e-08 1 0 0
51 2 0 -4 0 1 2 8 1.30826e-07 1 0 0
52 2 1 -4 0 1 2 8 1.72647e-07 1 0 0
3 2 2 -5 0 1 2 8 7.00218e-08 1 0 0
4 2 3 -5 0 1 2 8 1.2434e-07 1 0 0
53 2 2 -4 0 1 2 8 3.11509e-07 1 0 0
54 2 3 -4 0 1 2 8 5.63289e-07 1 0 0
5 2 4 -5 0 1 2 7 2.09656e-07 1 0 0
55 2 4 -4 0 1 2 8 9.37478e-07 1 0 0
6 2 5 -5 0 1 2 6 3.37005e-07 1 0 0
7 2 6 -5 0 1 2 5 4.78092e-07 1 0 0
56 2 5 -4 0 1 2 8 1.42142e-06 1 0 0
57 2 6 -4 0 1 2 8 1.96467e-06 1 0 0
8 2 7 -5 0 1 2 5 6.09757e-07 1 0 0
9 2 8 -5 0 1 2 5 7.28518e-07 1 0 0
58 2 7 -4 0 1 2 8 2.50818e-06 1 0 0
59 2 8 -4 0 1 2 8 3.00356e-06 1 0 0
10 2 9 -5 0 1 2 5 8.28745e-07 1 0 0
60 2 9 -4 0 1 2 8 3.42267e-06 1 0 0
11 2 10 -5 0 1 2 5 9.09452e-07 1 0 0
12 2 11 -5 0 1 2 5 9.73692e-07 1 0 0
61 2 10 -4 0 1 2 8 3.76139e-06 1 0 0
62 2 11 -4 0 1 2 8 4.03273e-06 1 0 0
13 2 12 -5 0 1 2 5 1.0258e-06 1 0 0
14 2 13 -5 0 1 2 5 1.06876e-06 1 0 0
63 2 12 -4 0 1 2 8 4.25465e-06 1 0 0
64 2 13 -4 0 1 2 8 4.43896e-06 1 0 0
15 2 14 -5 0 1 2 5 1.10344e-06 1 0 0
65 2 14 -4 0 1 2 8 4.58801e-06 1 0 0
16 2 15 -5 0 1 2 5 1.1299e-06 1 0 0
17 2 16 -5 0 1 2 5 1.14915e-06 1 0 0
66 2 15 -4 0 1 2 8 4.70129e-06 1 0 0
67 2 16 -4 0 1 2 8 4.78374e-06 1 0 0
18 2 17 -5 0 1 2 5 1.16313e-06 1 0 0
19 2 18 -5 0 1 2 5 1.17285e-06 1 0 0
68 2 17 -4 0 1 2 8 4.84514e-06 1 0 0
69 2 18 -4 0 1 2 8 4.89072e-06 1 0 0
20 2 19 -5 0 1 2 5 1.17709e-06 1 0 0
70 2 19 -4 0 1 2 8 4.91502e-06 1 0 0
21 2 20 -5 0 1 2 5 1.17351e-06 1 0 0
22 2 21 -5 0 1 2 5 1.16123e-06 1 0 0
71 2 20 -4 0 1 2 8 4.9068e-06 1 0 0
72 2 21 -4 0 1 2 8 4.86098e-06 1 0 0
23 2 22 -5 0 1 2 5 1.14275e-06 1 0 0
24 2 23 -5 0 1 2 5 1.12388e-06 1 0 0
73 2 22 -4 0 1 2 8 4.7874e-06 1 0 0
74 2 23 -4 0 1 2 8 4.71046e-06 1 0 0
25 2 24 -5 0 1 2 5 1.11158e-06 1 0 0
75 2 24 -4 0 1 2 8 4.6602e-06 1 0 0
26 2 25 -5 0 1 2 5 1.11091e-06 1 0 0
27 2 26 -5 0 1 2 5 1.12266e-06 1 0 0
76 2 25 -4 0 1 2 8 4.65876e-06 1 0 0
77 2 26 -4 0 1 2 8 4.7095e-06 1 0 0
28 2 27 -5 0 1 2 5 1.1434e-06 1 0 0
29 2 28 -5 0 1 2 5 1.16785e-06 1 0 0
78 2 27 -4 0 1 2 8 4.79687e-06 1 0 0
79 2 28 -4 0 1 2 8 4.89768e-06 1 0 0
30 2 29 -5 0 1 2 5 1.19162e-06 1 0 0
80 2 29 -4 0 1 2 8 4.99374e-06 1 0 0
31 2 30 -5 0 1 2 5 1.21202e-06 1 0 0
32 2 31 -5 0 1 2 5 1.22732e-06 1 0 0
81 2 30 -4 0 1 2 8 5.07529e-06 1 0 0
82 2 31 -4 0 1 2 8 5.13649e-06 1 0 0
33 2 32 -5 0 1 2 5 1.23632e-06 1 0 0
34 2 33 -5 0 1 2 5 1.23898e-06 1 0 0
83 2 32 -4 0 1 2 8 5.17248e-06 1 0 0
84 2 33 -4 0 1 2 8 5.18271e-06 1 0 0
35 2 34 -5 0 1 2 5 1.23688e-06 1 0 0
85 2 34 -4 0 1 2 8 5.17392e-06 1 0 0
36 2 35 -5 0 1 2 5 1.23234e-06 1 0 0
37 2 36 -5 0 1 2 5 1.22658e-06 1 0 0
86 2 35 -4 0 1 2 8 5.15629e-06 1 0 0
87 2 36 -4 0 1 2 8 5.13501e-06 1 0 0
38 2 37 -5 0 1 2 5 1.21884e-06 1 0 0
39 2 38 -5 0 1 2 5 1.20727e-06 1 0 0
88 2 37 -4 0 1 2 8 5.10608e-06 1 0 0
89 2 38 -4 0 1 2 8 5.06049e-06 1 0 0
40 2 39 -5 0 1 2 5 1.19101e-06 1 0 0
90 2 39 -4 0 1 2 8 4.99341e-06 1 0 0
41 2 40 -5 0 1 2 5 1.17192e-06 1 0 0
42 2 41 -5 0 1 2 5 1.15475e-06 1 0 0
91 2 40 -4 0 1 2 8 4.91214e-06 1 0 0
92 2 41 -4 0 1 2 8 4.83732e-06 1 0 0
43 2 42 -5 0 1 2 5 1.14515e-06 1 0 0
44 2 43 -5 0 1 2 5 1.14627e-06 1 0 0
93 2 42 -4 0 1 2 8 4.79444e-06 1 0 0
94 2 43 -4 0 1 2 8 4.79844e-06 1 0 0
45 2 44 -5 0 1 2 5 1.15622e-06 1 0 0
95 2 44 -4 0 1 2 8 4.84168e-06 1 0 0
46 2 45 -5 0 1 2 5 1.16861e-06 1 0 0
47 2 46 -5 0 1 2 5 1.17637e-06 1 0 0
96 2 45 -4 0 1 2 8 4.89586e-06 1 0 0
97 2 46 -4 0 1 2 8 4.92938e-06 1 0 0
48 2 47 -5 0 1 2 5 1.17626e-06 1 0 0
49 2 48 -5 0 1 2 5 1.17069e-06 1 0 0
98 2 47 -4 0 1 2 8 4.92787e-06 1 0 0
99 2 48 -4 0 1 2 8 4.90233e-06 1 0 0
50 2 49 -5 0 1 2 5 1.16553e-06 1 0 0
100 2 49 -4 0 1 2 8 4.87921e-06 1 0 0
101 2 0 -3 0 1 2 8 5.1043e-07 1 0 0
102 2 1 -3 0 1 2 8 6.87219e-07 1 0 0
151 2 0 -2 0 1 2 8 1.81651e-06 1 0 0
152 2 1 -2 0 1 2 8 2.49865e-06 1 0 0
103 2 2 -3 0 1 2 8 1.28006e-06 1 0 0
104 2 3 -3 0 1 2 8 2.37057e-06 1 0 0
153 2 2 -2 0 1 2 8 4.81248e-06 1 0 0
154 2 3 -2 0 1 2 8 9.14556e-06 1 0 0
105 2 4 -3 0 1 2 8 4.00496e-06 1 0 0
155 2 4 -2 0 1 2 8 1.57445e-05 1 0 0
106 2 5 -3 0 1 2 8 6.11368e-06 1 0 0
107 2 6 -3 0 1 2 8 8.49669e-06 1 0 0
156 2 5 -2 0 1 2 8 2.43448e-05 1 0 0
157 2 6 -2 0 1 2 8 3.41008e-05 1 0 0
108 2 7 -3 0 1 2 8 1.08923e-05 1 0 0
109 2 8 -3 0 1 2 8 1.30757e-05 1 0 0
158 2 7 -2 0 1 2 8 4.3905e-05 1 0 0
159 2 8 -2 0 1 2 8 5.28309e-05 1 0 0
110 2 9 -3 0 1 2 8 1.49235e-05 1 0 0
160 2 9 -2 0 1 2 8 6.03913e-05 1 0 0
111 2 10 -3 0 1 2 8 1.64209e-05 1 0 0
112 2 11 -3 0 1 2 8 1.76281e-05 1 0 0
161 2 10 -2 0 1 2 8 6.65453e-05 1 0 0
162 2 11 -2 0 1 2 8 7.15461e-05 1 0 0
113 2 12 -3 0 1 2 8 1.86247e-05 1 0 0
114 2 13 -3 0 1 2 8 1.94601e-05 1 0 0
163 2 12 -2 0 1 2 8 7.57201e-05 1 0 0
164 2 13 -2 0 1 2 8 7.92553e-05 1 0 0
115 2 14 -3 0 1 2 8 2.0138e-05 1 0 0
165 2 14 -2 0 1 2 8 8.21377e-05 1 0 0
116 2 15 -3 0 1 2 8 2.06511e-05 1 0 0
117 2 16 -3 0 1 2 8 2.1024e-05 1 0 0
166 2 15 -2 0 1 2 8 8.43133e-05 1 0 0
167 2 16 -2 0 1 2 8 8.58954e-05 1 0 0
118 2 17 -3 0 1 2 8 2.13089e-05 1 0 0
119 2 18 -3 0 1 2 8 2.15345e-05 1 0 0
168 2 17 -2 0 1 2 8 8.71369e-05 1 0 0
169 2 18 -2 0 1 2 8 8.81816e-05 1 0 0
120 2 19 -3 0 1 2 8 2.16739e-05 1 0 0
170 2 19 -2 0 1 2 8 8.89054e-05 1 0 0
121 2 20 -3 0 1 2 8 2.16698e-05 1 0 0
122 2 21 -3 0 1 2 8 2.14932e-05 1 0 0
171 2 20 -2 0 1 2 8 8.90403e-05 1 0 0
172 2 21 -2 0 1 2 8 8.84436e-05 1 0 0
123 2 22 -3 0 1 2 8 2.11847e-05 1 0 0
124 2 23 -3 0 1 2 8 2.08531e-05 1 0 0
173 2 22 -2 0 1 2 8 8.7271e-05 1 0 0
174 2 23 -2 0 1 2 8 8.59674e-05 1 0 0
125 2 24 -3 0 1 2 8 2.06358e-05 1 0 0
175 2 24 -2 0 1 2 8 8.51112e-05 1 0 0
126 2 25 -3 0 1 2 8 2.06363e-05 1 0 0
127 2 26 -3 0 1 2 8 2.087e-05 1 0 0
176 2 25 -2 0 1 2 8 8.51512e-05 1 0 0
177 2 26 -2 0 1 2 8 8.61551e-05 1 0 0
128 2 27 -3 0 1 2 8 2.12614e-05 1 0 0
129 2 28 -3 0 1 2 8 2.17013e-05 1 0 0
178 2 27 -2 0 1 2 8 8.77847e-05 1 0 0
179 2 28 -2 0 1 2 8 8.95603e-05 1 0 0
130 2 29 -3 0 1 2 8 2.21103e-05 1 0 0
180 2 29 -2 0 1 2 8 9.11646e-05 1 0 0
131 2 30 -3 0 1 2 8 2.24539e-05 1 0 0
132 2 31 -3 0 1 2 8 2.27128e-05 1 0 0
181 2 30 -2 0 1 2 8 9.24976e-05 1 0 0
182 2 31 -2 0 1 2 8 9.3513e-05 1 0 0
133 2 32 -3 0 1 2 8 2.28656e-05 1 0 0
134 2 33 -3 0 1 2 8 2.2907e-05 1 0 0
183 2 32 -2 0 1 2 8 9.41196e-05 1 0 0
184 2 33 -2 0 1 2 8 9.42791e-05 1 0 0
135 2 34 -3 0 1 2 8 2.28674e-05 1 0 0
185 2 34 -2 0 1 2 8 9.41184e-05 1 0 0
136 2 35 -3 0 1 2 8 2.27954e-05 1 0 0
137 2 36 -3 0 1 2 8 2.2715e-05 1 0 0
186 2 35 -2 0 1 2 8 9.38521e-05 1 0 0
187 2 36 -2 0 1 2 8 9.35846e-05 1 0 0
138 2 37 -3 0 1 2 8 2.26047e-05 1 0 0
139 2 38 -3 0 1 2 8 2.24181e-05 1 0 0
188 2 37 -2 0 1 2 8 9.32125e-05 1 0 0
189 2 38 -2 0 1 2 8 9.25186e-05 1 0 0
140 2 39 -3 0 1 2 8 2.21275e-05 1 0 0
190 2 39 -2 0 1 2 8 9.13636e-05 1 0 0
141 2 40 -3 0 1 2 8 2.17625e-05 1 0 0
142 2 41 -3 0 1 2 8 2.14178e-05 1 0 0
191 2 40 -2 0 1 2 8 8.98541e-05 1 0 0
192 2 41 -2 0 1 2 8 8.83895e-05 1 0 0
143 2 42 -3 0 1 2 8 2.12156e-05 1 0 0
144 2 43 -3 0 1 2 8 2.12312e-05 1 0 0
193 2 42 -2 0 1 2 8 8.75089e-05 1 0 0
194 2 43 -2 0 1 2 8 8.7563e-05 1 0 0
145 2 44 -3 0 1 2 8 2.14322e-05 1 0 0
195 2 44 -2 0 1 2 8 8.84249e-05 1 0 0
146 2 45 -3 0 1 2 8 2.16848e-05 1 0 0
147 2 46 -3 0 1 2 8 2.1838e-05 1 0 0
196 2 45 -2 0 1 2 8 8.95107e-05 1 0 0
197 2 46 -2 0 1 2 8 9.01542e-05 1 0 0
148 2 47 -3 0 1 2 8 2.1824e-05 1 0 0
149 2 48 -3 0 1 2 8 2.16971e-05 1 0 0
198 2 47 -2 0 1 2 8 9.00609e-05 1 0 0
199 2 48 -2 0 1 2 8 8.94782e-05 1 0 0
150 2 49 -3 0 1 2 8 2.15848e-05 1 0 0
200 2 49 -2 0 1 2 8 8.89731e-05 1 0 0
201 2 0 -1 0 1 2 8 5.84589e-06 1 0 0
202 2 1 -1 0 1 2 8 8.22248e-06 1 0 0
203 2 2 -1 0 1 2 8 1.63861e-05 1 0 0
204 2 3 -1 0 1 2 8 3.19822e-05 1 0 0
205 2 4 -1 0 1 2 8 5.61654e-05 1 0 0
206 2 5 -1 0 1 2 8 8.80301e-05 1 0 0
207 2 6 -1 0 1 2 8 0.000124286 1 0 0
208 2 7 -1 0 1 2 8 0.000160661 1 0 0
209 2 8 -1 0 1 2 8 0.000193731 1 0 0
210 2 9 -1 0 1 2 8 0.000221805 1 0 0
211 2 10 -1 0 1 2 8 0.000244812 1 0 0
212 2 11 -1 0 1 2 8 0.000263704 1 0 0
213 2 12 -1 0 1 2 8 0.000279669 1 0 0
214 2 13 -1 0 1 2 8 0.000293351 1 0 0
215 2 14 -1 0 1 2 8 0.000304581 1 0 0
216 2 15 -1 0 1 2 8 0.000313055 1 0 0
217 2 16 -1 0 1 2 8 0.000319244 1 0 0
218 2 17 -1 0 1 2 8 0.000324246 1 0 0
219 2 18 -1 0 1 2 8 0.000328689 1 0 0
220 2 19 -1 0 1 2 8 0.000332052 1 0 0
221 2 20 -1 0 1 2 8 0.000333218 1 0 0
222 2 21 -1 0 1 2 8 0.000331587 1 0 0
223 2 22 -1 0 1 2 8 0.000327702 1 0 0
224 2 23 -1 0 1 2 8 0.000323187 1 0 0
225 2 24 -1 0 1 2 8 0.00032022 1 0 0
226 2 25 -1 0 1 2 8 0.000320564 1 0 0
227 2 26 -1 0 1 2 8 0.000324503 1 0 0
228 2 27 -1 0 1 2 8 0.000330669 1 0 0
229 2 28 -1 0 1 2 8 0.000337151 1 0 0
230 2 29 -1 0 1 2 8 0.00034281 1 0 0
231 2 30 -1 0 1 2 8 0.000347465 1 0 0
232 2 31 -1 0 1 2 8 0.000351082 1 0 0
233 2 32 -1 0 1 2 8 0.000353296 1 0 0
234 2 33 -1 0 1 2 8 0.000353884 1 0 0
235 2 34 -1 0 1 2 8 0.000353315 1 0 0
236 2 35 -1 0 1 2 8 0.000352459 1 0 0
237 2 36 -1 0 1 2 8 0.000351726 1 0 0
238 2 37 -1 0 1 2 8 0.000350673 1 0 0
239 2 38 -1 0 1 2 8 0.0003484 1 0 0
240 2 39 -1 0 1 2 8 0.000344302 1 0 0
241 2 40 -1 0 1 2 8 0.000338705 1 0 0
242 2 41 -1 0 1 2 8 0.000333112 1 0 0
243 2 42 -1 0 1 2 8 0.000329661 1 0 0
244 2 43 -1 0 1 2 8 0.000329815 1 0 0
245 2 44 -1 0 1 2 8 0.00033314 1 0 0
246 2 45 -1 0 1 2 8 0.000337335 1 0 0
247 2 46 -1 0 1 2 8 0.000339753 1 0 0
248 2 47 -1 0 1 2 8 0.00033925 1 0 0
249 2 48 -1 0 1 2 8 0.000336843 1 0 0
250 2 49 -1 0 1 2 8 0.000334797 1 0 0
251 2 0 0 0 1 2 8 1.6865e-05 1 0 0
252 2 1 0 0 1 2 8 2.42539e-05 1 0 0
301 2 0 1 0 1 2 8 4.32701e-05 1 0 0
302 2 1 1 0 1 2 8 6.35307e-05 1 0 0
253 2 2 0 0 1 2 8 4.99671e-05 1 0 0
254 2 3 0 0 1 2 8 0.000100145 1 0 0
303 2 2 1 0 1 2 8 0.000134857 1 0 0
304 2 3 1 0 1 2 8 0.000276892 1 0 0
255 2 4 0 0 1 2 8 0.000179496 1 0 0
305 2 4 1 0 1 2 8 0.000506192 1 0 0
256 2 5 0 0 1 2 8 0.000285275 1 0 0
257 2 6 0 0 1 2 8 0.000405811 1 0 0
306 2 5 1 0 1 2 8 0.000815758 1 0 0
307 2 6 1 0 1 2 8 0.00116798 1 0 0
258 2 7 0 0 1 2 8 0.00052627 1 0 0
259 2 8 0 0 1 2 8 0.000635598 1 0 0
308 2 7 1 0 1 2 8 0.0015171 1 0 0
309 2 8 1 0 1 2 8 0.00183333 1 0 0
260 2 9 0 0 1 2 8 0.00072882 1 0 0
310 2 9 1 0 1 2 8 0.00210507 1 0 0
261 2 10 0 0 1 2 8 0.000805988 1 0 0
262 2 11 0 0 1 2 8 0.000870198 1 0 0
311 2 10 1 0 1 2 8 0.00233328 1 0 0
312 2 11 1 0 1 2 8 0.00252638 1 0 0
263 2 12 0 0 1 2 8 0.000925231 1 0 0
264 2 13 0 0 1 2 8 0.000973017 1 0 0
313 2 12 1 0 1 2 8 0.00269452 1 0 0
314 2 13 1 0 1 2 8 0.00284265 1 0 0
265 2 14 0 0 1 2 8 0.0010126 1 0 0
315 2 14 1 0 1 2 8 0.00296695 1 0 0
266 2 15 0 0 1 2 8 0.00104261 1 0 0
267 2 16 0 0 1 2 8 0.00106475 1 0 0
316 2 15 1 0 1 2 8 0.00306232 1 0 0
317 2 16 1 0 1 2 8 0.00313408 1 0 0
268 2 17 0 0 1 2 8 0.00108323 1 0 0
269 2 18 0 0 1 2 8 0.0011004 1 0 0
318 2 17 1 0 1 2 8 0.00319596 1 0 0
319 2 18 1 0 1 2 8 0.00325539 1 0 0
270 2 19 0 0 1 2 8 0.00111427 1 0 0
320 2 19 1 0 1 2 8 0.00330568 1 0 0
271 2 20 0 0 1 2 8 0.00112079 1 0 0
272 2 21 0 0 1 2 8 0.00111785 1 0 0
321 2 20 1 0 1 2 8 0.00333418 1 0 0
322 2 21 1 0 1 2 8 0.00333499 1 0 0
273 2 22 0 0 1 2 8 0.00110716 1 0 0
274 2 23 0 0 1 2 8 0.00109388 1 0 0
323 2 22 1 0 1 2 8 0.00331313 1 0 0
324 2 23 1 0 1 2 8 0.00328226 1 0 0
275 2 24 0 0 1 2 8 0.00108519 1 0 0
325 2 24 1 0 1 2 8 0.00326244 1 0 0
276 2 25 0 0 1 2 8 0.00108726 1 0 0
277 2 26 0 0 1 2 8 0.00110119 1 0 0
326 2 25 1 0 1 2 8 0.00327242 1 0 0
327 2 26 1 0 1 2 8 0.00331614 1 0 0
278 2 27 0 0 1 2 8 0.0011221 1 0 0
279 2 28 0 0 1 2 8 0.00114321 1 0 0
328 2 27 1 0 1 2 8 0.00337868 1 0 0
329 2 28 1 0 1 2 8 0.00343905 1 0 0
280 2 29 0 0 1 2 8 0.00116091 1 0 0
330 2 29 1 0 1 2 8 0.00348741 1 0 0
281 2 30 0 0 1 2 8 0.00117535 1 0 0
282 2 31 0 0 1 2 8 0.00118695 1 0 0
331 2 30 1 0 1 2 8 0.00352677 1 0 0
332 2 31 1 0 1 2 8 0.00355998 1 0 0
283 2 32 0 0 1 2 8 0.00119434 1 0 0
284 2 33 0 0 1 2 8 0.00119643 1 0 0
333 2 32 1 0 1 2 8 0.00358249 1 0 0
334 2 33 1 0 1 2 8 0.0035897 1 0 0
285 2 34 0 0 1 2 8 0.00119477 1 0 0
335 2 34 1 0 1 2 8 0.00358605 1 0 0
286 2 35 0 0 1 2 8 0.00119249 1 0 0
287 2 36 0 0 1 2 8 0.00119105 1 0 0
336 2 35 1 0 1 2 8 0.00358164 1 0 0
337 2 36 1 0 1 2 8 0.00358085 1 0 0
288 2 37 0 0 1 2 8 0.00118876 1 0 0
289 2 38 0 0 1 2 8 0.0011824 1 0 0
338 2 37 1 0 1 2 8 0.00357811 1 0 0
339 2 38 1 0 1 2 8 0.0035636 1 0 0
290 2 39 0 0 1 2 8 0.00116971 1 0 0
340 2 39 1 0 1 2 8 0.00353044 1 0 0
291 2 40 0 0 1 2 8 0.0011515 1 0 0
292 2 41 0 0 1 2 8 0.00113269 1 0 0
341 2 40 1 0 1 2 8 0.00348003 1 0 0
342 2 41 1 0 1 2 8 0.00342585 1 0 0
293 2 42 0 0 1 2 8 0.00112075 1 0 0
294 2 43 0 0 1 2 8 0.00112109 1 0 0
343 2 42 1 0 1 2 8 0.00339041 1 0 0
344 2 43 1 0 1 2 8 0.00339087 1 0 0
295 2 44 0 0 1 2 8 0.00113241 1 0 0
345 2 44 1 0 1 2 8 0.00342412 1 0 0
296 2 45 0 0 1 2 8 0.0011467 1 0 0
297 2 46 0 0 1 2 8 0.00115466 1 0 0
346 2 45 1 0 1 2 8 0.003466 1 0 0
347 2 46 1 0 1 2 8 0.00348836 1 0 0
298 2 47 0 0 1 2 8 0.00115241 1 0 0
299 2 48 0 0 1 2 8 0.00114365 1 0 0
348 2 47 1 0 1 2 8 0.00347999 1 0 0
349 2 48 1 0 1 2 8 0.00345264 1 0 0
300 2 49 0 0 1 2 8 0.00113633 1 0 0
350 2 49 1 0 1 2 8 0.00343024 1 0 0
351 2 0 2 0 1 2 8 9.81554e-05 1 0 0
352 2 1 2 0 1 2 8 0.000146702 1 0 0
401 2 0 3 0 1 2 8 0.000196424 1 0 0
402 2 1 3 0 1 2 8 0.000297779 1 0 0
353 2 2 2 0 1 2 8 0.000318758 1 0 0
354 2 3 2 0 1 2 8 0.000666013 1 0 0
403 2 2 3 0 1 2 8 0.000656368 1 0 0
404 2 3 3 0 1 2 8 0.00137749 1 0 0
355 2 4 2 0 1 2 8 0.00123736 1 0 0
405 2 4 3 0 1 2 8 0.00256565 1 0 0
356 2 5 2 0 1 2 8 0.00202083 1 0 0
357 2 6 2 0 1 2 8 0.00290543 1 0 0
406 2 5 3 0 1 2 8 0.00425195 1 0 0
407 2 6 3 0 1 2 8 0.00612147 1 0 0
358 2 7 2 0 1 2 8 0.00376734 1 0 0
359 2 8 2 0 1 2 8 0.00454672 1 0 0
408 2 7 3 0 1 2 8 0.0078619 1 0 0
409 2 8 3 0 1 2 8 0.00944412 1 0 0
360 2 9 2 0 1 2 8 0.00522558 1 0 0
410 2 9 3 0 1 2 8 0.0108556 1 0 0
361 2 10 2 0 1 2 8 0.00580714 1 0 0
362 2 11 2 0 1 2 8 0.00630979 1 0 0
411 2 10 3 0 1 2 8 0.0120956 1 0 0
412 2 11 3 0 1 2 8 0.0131968 1 0 0
363 2 12 2 0 1 2 8 0.00675527 1 0 0
364 2 13 2 0 1 2 8 0.00715393 1 0 0
413 2 12 3 0 1 2 8 0.0141934 1 0 0
414 2 13 3 0 1 2 8 0.0150996 1 0 0
365 2 14 2 0 1 2 8 0.00749451 1 0 0
415 2 14 3 0 1 2 8 0.0158943 1 0 0
366 2 15 2 0 1 2 8 0.00776183 1 0 0
367 2 16 2 0 1 2 8 0.0079695 1 0 0
416 2 15 3 0 1 2 8 0.0165406 1 0 0
417 2 16 3 0 1 2 8 0.017066 1 0 0
368 2 17 2 0 1 2 8 0.00815445 1 0 0
369 2 18 2 0 1 2 8 0.00833545 1 0 0
418 2 17 3 0 1 2 8 0.0175492 1 0 0
419 2 18 3 0 1 2 8 0.0180248 1 0 0
370 2 19 2 0 1 2 8 0.00849299 1 0 0
420 2 19 3 0 1 2 8 0.018445 1 0 0
371 2 20 2 0 1 2 8 0.00859449 1 0 0
372 2 21 2 0 1 2 8 0.0086284 1 0 0
421 2 20 3 0 1 2 8 0.0187416 1 0 0
422 2 21 3 0 1 2 8 0.0189066 1 0 0
373 2 22 2 0 1 2 8 0.00860814 1 0 0
374 2 23 2 0 1 2 8 0.00856181 1 0 0
423 2 22 3 0 1 2 8 0.0189758 1 0 0
424 2 23 3 0 1 2 8 0.0189823 1 0 0
375 2 24 2 0 1 2 8 0.00853458 1 0 0
425 2 24 3 0 1 2 8 0.0190012 1 0 0
376 2 25 2 0 1 2 8 0.00857466 1 0 0
377 2 26 2 0 1 2 8 0.00869417 1 0 0
426 2 25 3 0 1 2 8 0.0191375 1 0 0
427 2 26 3 0 1 2 8 0.019416 1 0 0
378 2 27 2 0 1 2 8 0.00885594 1 0 0
379 2 28 2 0 1 2 8 0.00900506 1 0 0
428 2 27 3 0 1 2 8 0.0197742 1 0 0
429 2 28 3 0 1 2 8 0.02009 1 0 0
380 2 29 2 0 1 2 8 0.00911899 1 0 0
430 2 29 3 0 1 2 8 0.0203196 1 0 0
381 2 30 2 0 1 2 8 0.0092127 1 0 0
382 2 31 2 0 1 2 8 0.00929735 1 0 0
431 2 30 3 0 1 2 8 0.0205175 1 0 0
432 2 31 3 0 1 2 8 0.0207115 1 0 0
383 2 32 2 0 1 2 8 0.00935944 1 0 0
384 2 33 2 0 1 2 8 0.00938329 1 0 0
433 2 32 3 0 1 2 8 0.020868 1 0 0
434 2 33 3 0 1 2 8 0.0209418 1 0 0
385 2 34 2 0 1 2 8 0.00937941 1 0 0
435 2 34 3 0 1 2 8 0.0209509 1 0 0
386 2 35 2 0 1 2 8 0.00937627 1 0 0
387 2 36 2 0 1 2 8 0.00938498 1 0 0
436 2 35 3 0 1 2 8 0.0209698 1 0 0
437 2 36 3 0 1 2 8 0.0210207 1 0 0
388 2 37 2 0 1 2 8 0.00938944 1 0 0
389 2 38 2 0 1 2 8 0.00936518 1 0 0
438 2 37 3 0 1 2 8 0.0210596 1 0 0
439 2 38 3 0 1 2 8 0.0210397 1 0 0
390 2 39 2 0 1 2 8 0.00929625 1 0 0
440 2 39 3 0 1 2 8 0.02094 1 0 0
391 2 40 2 0 1 2 8 0.00918329 1 0 0
392 2 41 2 0 1 2 8 0.00905509 1 0 0
441 2 40 3 0 1 2 8 0.0207559 1 0 0
442 2 41 3 0 1 2 8 0.0205206 1 0 0
393 2 42 2 0 1 2 8 0.0089684 1 0 0
394 2 43 2 0 1 2 8 0.00896882 1 0 0
443 2 42 3 0 1 2 8 0.0203563 1 0 0
444 2 43 3 0 1 2 8 0.020359 1 0 0
395 2 44 2 0 1 2 8 0.00905047 1 0 0
445 2 44 3 0 1 2 8 0.020522 1 0 0
396 2 45 2 0 1 2 8 0.00915272 1 0 0
397 2 46 2 0 1 2 8 0.00920431 1 0 0
446 2 45 3 0 1 2 8 0.0207251 1 0 0
447 2 46 3 0 1 2 8 0.0208191 1 0 0
398 2 47 2 0 1 2 8 0.00917941 1 0 0
399 2 48 2 0 1 2 8 0.00910926 1 0 0
448 2 47 3 0 1 2 8 0.0207621 1 0 0
449 2 48 3 0 1 2 8 0.0206253 1 0 0
400 2 49 2 0 1 2 8 0.00905288 1 0 0
450 2 49 3 0 1 2 8 0.0205127 1 0 0
451 2 0 4 0 1 2 8 0.000347651 1 0 0
452 2 1 4 0 1 2 8 0.000532998 1 0 0
453 2 2 4 0 1 2 8 0.00118359 1 0 0
454 2 3 4 0 1 2 8 0.00245732 1 0 0
455 2 4 4 0 1 2 7 0.00441351 1 0 0
456 2 5 4 0 1 2 6 0.00744266 1 0 0
457 2 6 4 0 1 2 5 0.010501 1 0 0
506 1 5.47418 4.87879 0 1.0006 2 0 0.0121787 1 0.000205682 0.00051568
507 1 6.47833 4.87398 0 1.02569 2 0 0.0150318 1 0.00373793 -0.00232404
458 2 7 4 0 1 2 5 0.0131429 1 0 0
459 2 8 4 0 1 2 5 0.0156355 1 0 0
508 1 7.49437 4.86969 0 1.03193 2 0 0.01788 1 -0.00139853 -0.00246053
460 2 9 4 0 1 2 5 0.0179291 1 0 0
510 1 8.49451 4.86603 0 1.01036 2 0 0.0206107 1 0.0017197 0.00300041
511 1 9.49657 4.86519 0 1.00136 2 0 0.0231834 1 0.00498352 -0.00195874
461 2 10 4 0 1 2 5 0.0200076 1 0 0
462 2 11 4 0 1 2 5 0.0219244 1 0 0
512 1 10.5015 4.86332 0 1.01573 2 0 0.0256433 1 -0.00842475 0.00426548
513 1 11.4991 4.86505 0 1.01534 2 0 0.0279935 1 0.00324034 -0.00354781
463 2 12 4 0 1 2 5 0.0237008 1 0 0
464 2 13 4 0 1 2 5 0.0253385 1 0 0
514 1 12.4994 4.86445 0 1.01802 2 0 0.0301898 1 -0.00193332 -0.00512777
465 2 14 4 0 1 2 5 0.026822 1 0 0
515 1 13.4994 4.86339 0 1.02031 2 0 0.0322489 1 -0.00519034 -0.00146076
516 1 14.497 4.86306 0 1.0096 2 0 0.0341443 1 0.00550672 0.00207002
466 2 15 4 0 1 2 5 0.0280917 1 0 0
467 2 16 4 0 1 2 5 0.0291843 1 0 0
518 1 16.4959 4.86447 0 1.02515 2 0 0.0374843 1 0.00585724 -0.0066288
517 1 15.498 4.86356 0 1.02614 2 0 0.0358699 1 -0.00488516 -0.0022476
468 2 17 4 0 1 2 5 0.0302153 1 0 0
469 2 18 4 0 1 2 5 0.0312141 1 0 0
519 1 17.4968 4.86429 0 1.0239 2 0 0.0389962 1 0.00385953 -0.00573584
470 2 19 4 0 1 2 5 0.0321028 1 0 0
520 1 18.4984 4.86295 0 1.00577 2 0 0.0403803 1 0.000134566 0.00127139
521 1 19.4999 4.86392 0 1.00453 2 0 0.0416016 1 -0.00296707 -0.00373441
471 2 20 4 0 1 2 5 0.0327847 1 0 0
472 2 21 4 0 1 2 5 0.033284 1 0 0
523 1 21.4998 4.86638 0 1.02268 2 0 0.0436418 1 0.00705605 -0.0123957
522 1 20.5016 4.86348 0 1.0139 2 0 0.0426684 1 -0.00585374 0.00101489
473 2 22 4 0 1 2 5 0.0336806 1 0 0
474 2 23 4 0 1 2 5 0.0339631 1 0 0
524 1 22.502 4.86317 0 1.01383 2 0 0.0445337 1 -0.00723067 -0.00122385
475 2 24 4 0 1 2 5 0.0342076 1 0 0
525 1 23.5008 4.86352 0 1.03669 2 0 0.0453222 1 0.0019063 0.00148046
526 1 24.5014 4.86332 0 1.04245 2 0 0.0460883 1 -0.00303894 0.00376133
476 2 25 4 0 1 2 5 0.0345832 1 0 0
477 2 26 4 0 1 2 5 0.0351137 1 0 0
528 1 26.5019 4.86323 0 1.04147 2 0 0.047654 1 -0.00230246 0.00351846
527 1 25.5001 4.86384 0 1.03798 2 0 0.0468684 1 0.00642914 -0.0011204
478 2 27 4 0 1 2 5 0.0357504 1 0 0
479 2 28 4 0 1 2 5 0.0362977 1 0 0
529 1 27.5004 4.86425 0 1.0019 2 0 0.0484021 1 -0.000894254 -0.00104996
480 2 29 4 0 1 2 5 0.0367002 1 0 0
531 1 29.5008 4.86431 0 1.01679 2 0 0.0496944 1 0.00114002 -0.00236092
530 1 28.5036 4.86369 0 1.02091 2 0 0.0490769 1 -0.0111249 -0.000194646
481 2 30 4 0 1 2 5 0.0370739 1 0 0
482 2 31 4 0 1 2 5 0.0374571 1 0 0
533 1 31.5034 4.86384 0 1.004 2 0 0.0508165 1 -0.00573106 -0.00111824
532 1 30.4992 4.8642 0 1.0182 2 0 0.0502705 1 0.00638 -0.00815149
483 2 32 4 0 1 2 5 0.0377932 1 0 0
484 2 33 4 0 1 2 5 0.0379914 1 0 0
534 1 32.5022 4.86332 0 1.00171 2 0 0.0512808 1 -0.00150879 -0.000399032
485 2 34 4 0 1 2 5 0.0380631 1 0 0
535 1 33.5038 4.86366 0 1.00275 2 0 0.0516277 1 -0.00952978 0.00149252
536 1 34.5004 4.8646 0 1.0237 2 0 0.0519144 1 0.00994113 -0.00177308
486 2 35 4 0 1 2 5 0.0381654 1 0 0
487 2 36 4 0 1 2 5 0.0383298 1 0 0
538 1 36.504 4.86229 0 1.01227 2 0 0.0525062 1 -0.00498994 0.00561422
537 1 35.5008 4.86486 0 1.0067 2 0 0.052219 1 -4.87908e-05 -0.00341623
488 2 37 4 0 1 2 5 0.0384586 1 0 0
489 2 38 4 0 1 2 5 0.0384928 1 0 0
539 1 37.5031 4.86281 0 1.00174 2 0 0.0527102 1 -0.000306187 0.00770355
490 2 39 4 0 1 2 5 0.0384355 1 0 0
541 1 39.5026 4.86383 0 1.00168 2 0 0.0528942 1 -0.00360709 0.00372813
540 1 38.5029 4.86383 0 1.01715 2 0 0.052837 1 -0.00603954 0.00158972
491 2 40 4 0 1 2 5 0.0382719 1 0 0
492 2 41 4 0 1 2 5 0.0379909 1 0 0
542 1 40.5012 4.86471 0 1.01016 2 0 0.0528929 1 0.0023521 -0.00182518
543 1 41.5023 4.86255 0 1.03252 2 0 0.0528906 1 -0.00381008 0.0077893
493 2 42 4 0 1 2 5 0.0377959 1 0 0
494 2 43 4 0 1 2 5 0.0378232 1 0 0
544 1 42.5024 4.86235 0 1.0319 2 0 0.0529653 1 -0.00313343 0.00707628
495 2 44 4 0 1 2 5 0.0380619 1 0 0
545 1 43.5015 4.86388 0 1.03659 2 0 0.0531021 1 0.00233581 -0.00365218
546 1 44.5044 4.86423 0 1.01001 2 0 0.053274 1 -0.00581437 -0.000625049
496 2 45 4 0 1 2 5 0.0383581 1 0 0
497 2 46 4 0 1 2 5 0.0384877 1 0 0
548 1 46.5016 4.86565 0 1.00807 2 0 0.0535648 1 0.000952517 -0.00361034
547 1 45.5029 4.86433 0 1.00173 2 0 0.0534532 1 -0.00335835 0.00140865
498 2 47 4 0 1 2 5 0.038414 1 0 0
499 2 48 4 0 1 2 5 0.0382514 1 0 0
549 1 47.5022 4.86468 0 1.02093 2 0 0.0535902 1 -0.00189613 -0.00599963
500 2 49 4 0 1 2 5 0.0381163 1 0 0
550 1 48.5018 4.86237 0 1.02225 2 0 0.0536475 1 -0.00378033 0.00626654
8501 1 49.5004 4.86344 0 1.06187 2 0 0.0537383 1 0.00253153 0.00340174
501 2 0 5 0 1 2 8 0.000548656 1 0 0
502 2 1 5 0 1 2 8 0.000848811 1 0 0
551 2 0 6 0 1 2 8 0.000782802 1 0 0
552 2 1 6 0 1 2 8 0.00122005 1 0 0
503 2 2 5 0 1 2 8 0.00189247 1 0 0
504 2 3 5 0 1 2 8 0.00389637 1 0 0
553 2 2 6 0 1 2 8 0.00272444 1 0 0
554 2 3 6 0 1 2 8 0.00556049 1 0 0
505 2 4 5 0 1 2 6 0.00687389 1 0 0
555 2 4 6 0 1 2 5 0.00950364 1 0 0
556 1 4.9692 5.74209 0 1.02426 2 0 0.0129872 1 0 -5e-05
557 1 5.98189 5.739 0 1.00456 2 0 0.0165211 1 -0.00186184 0.00584656
558 1 6.98377 5.73407 0 1.00032 2 0 0.0197054 1 -6.09751e-05 -0.000151247
509 1 7.9955 5.73345 0 1.00999 2 0 0.0228788 1 0.00174335 -0.0029265
560 1 8.99834 5.72869 0 1.01571 2 0 0.0259225 1 -0.00599828 0.00393319
561 1 9.99723 5.73027 0 1.04128 2 0 0.0288893 1 0.00432776 -0.00344741
562 1 10.9973 5.72923 0 1.02468 2 0 0.0317508 1 0.00111028 0.00347775
563 1 11.9983 5.72803 0 1.00884 2 0 0.0344729 1 -0.000830493 0.00388901
565 1 12.9984 5.72629 0 1.01555 2 0 0.0370769 1 -0.0045071 0.00754501
566 1 13.9961 5.7276 0 1.01485 2 0 0.03954 1 0.00356088 -0.00215126
567 1 14.9955 5.72642 0 1.00349 2 0 0.0418389 1 0.000293179 -0.00136018
568 1 15.9948 5.72678 0 1.02492 2 0 0.044023 1 -0.000610688 0.002621
569 1 17.9974 5.72667 0 1.01386 2 0 0.0479421 1 -0.00315867 -0.00141262
618 1 16.9956 5.7255 0 1.00786 2 0 0.0460641 1 -0.00228859 0.00835915
570 1 18.9966 5.72655 0 1.00562 2 0 0.0496563 1 0.00195463 0.00287891
571 1 19.9982 5.72579 0 1.00943 2 0 0.0512375 1 0.000964456 0.000813364
572 1 21.0012 5.72707 0 1.02492 2 0 0.0527389 1 -0.00502133 -0.000188404
573 1 22.0032 5.72838 0 1.00977 2 0 0.0541259 1 -0.0111796 -0.00541334
574 1 22.9987 5.72604 0 1.00488 2 0 0.0554097 1 0.0128124 0.00508835
575 1 24.0015 5.72748 0 1.01237 2 0 0.0566193 1 -0.00104484 -0.00254212
576 1 25.0037 5.72709 0 1.01087 2 0 0.0577479 1 -0.00573567 0.0027795
577 1 26.0041 5.72731 0 1.01133 2 0 0.0587954 1 -0.0113817 0.00218754
579 1 27.0005 5.73287 0 1.01129 2 0 0.0597608 1 0.00456557 -0.0148688
580 1 27.9999 5.72626 0 1.02117 2 0 0.060689 1 0.00417437 0.00469476
581 1 29.0006 5.72796 0 1.01861 2 0 0.0615517 1 0.000232157 0.00072161
632 1 30.003 5.72641 0 1.0167 2 0 0.0623095 1 -0.00306425 0.00727834
582 1 31.0012 5.72603 0 1.0143 2 0 0.0630233 1 0.00447672 0.00583509
583 1 32.0027 5.72771 0 1.0088 2 0 0.0636793 1 -0.00285595 -0.00432609
584 1 33.0017 5.7259 0 1.00514 2 0 0.0642747 1 0.000487052 0.00464003
585 1 34.0038 5.72857 0 1.02197 2 0 0.0648353 1 -0.00685275 -0.0078887
586 1 35.0029 5.72938 0 1.02669 2 0 0.0653226 1 -0.00184224 -0.0061764
587 1 36.0051 5.72655 0 1.01702 2 0 0.0657616 1 -0.00609639 0.00315495
588 1 37.003 5.72757 0 1.01798 2 0 0.0661164 1 0.00456041 0.000590345
589 1 38.0023 5.72952 0 1.01656 2 0 0.0663898 1 -0.00123091 -0.00789048
590 1 39.0014 5.72738 0 1.01208 2 0 0.0665938 1 0.00528876 0.00339348
591 1 40.003 5.72958 0 1.01334 2 0 0.0667934 1 -0.00356981 -0.0024482
592 1 41.0013 5.72909 0 1.02633 2 0 0.0670464 1 0.00503185 -0.00277718
594 1 43.004 5.72684 0 1.01497 2 0 0.0674147 1 -0.00332784 0.00514312
593 1 42.0027 5.72664 0 1.02837 2 0 0.0672687 1 -0.00104365 -0.000690367
595 1 44.0033 5.72669 0 1.01694 2 0 0.0674855 1 0.000306688 0.00490179
596 1 45.0026 5.72944 0 1.01116 2 0 0.0675999 1 0.00147487 -4.76285e-05
597 1 46.001 5.72977 0 1.01212 2 0 0.0677961 1 0.00146676 -0.00392865
598 1 47.0043 5.72801 0 1.00861 2 0 0.0679777 1 -0.00496784 0.00601554
599 1 48.0031 5.72747 0 1.02545 2 0 0.0681506 1 -0.00263606 0.00589323
600 1 49.0002 5.72792 0 1.00476 2 0 0.0683445 1 0.00547745 0.00376319
10701 1 49.8413 45.3445 0 1.00423 0 0 0.477163 1 6.49078e-05 -2.19059e-06
601 2 0 7 0 1 2 8 0.00102719 1 0 0
602 2 1 7 0 1 2 8 0.00161209 1 0 0
651 2 0 8 0 1 2 8 0.00126016 1 0 0
652 2 1 8 0 1 2 8 0.00199196 1 0 0
603 2 2 7 0 1 2 8 0.00360792 1 0 0
604 2 3 7 0 1 2 8 0.00733734 1 0 0
653 2 2 8 0 1 2 8 0.00447463 1 0 0
654 2 3 8 0 1 2 8 0.00911955 1 0 0
605 2 4 7 0 1 2 5 0.0122995 1 0 0
655 2 4 8 0 1 2 5 0.0150047 1 0 0
656 1 4.8799 7.48162 0 1.01253 2 0 0.0173969 1 0 -5e-05
606 1 5.43413 6.6384 0 1.01839 2 0 0.0174433 1 0 -5e-05
607 1 6.48606 6.60216 0 1.01626 2 0 0.0211448 1 -0.00252983 -0.00445198
657 1 5.88887 7.53824 0 1.02523 2 0 0.0219174 1 -0.000358129 -0.000527099
608 1 7.48942 6.59399 0 1.01581 2 0 0.0247548 1 0.0007732 0.00708834
609 1 7.98582 7.4623 0 1.00447 2 0 0.030106 1 0 -5e-05
658 1 6.98367 7.46618 0 1.00499 2 0 0.0261966 1 0.00291619 0.00501345
559 1 8.4937 6.59893 0 1.01669 2 0 0.028263 1 0.000503003 0.000850147
610 1 9.49672 6.59365 0 1.00382 2 0 0.0317009 1 -0.000316739 0.00646972
661 1 8.99879 7.46101 0 1.00906 2 0 0.0339984 1 0.00358294 -0.00627291
612 1 9.99941 7.46102 0 1.00002 2 0 0.0378018 1 -0.00348688 -0.00243297
611 1 10.498 6.59538 0 1.00368 2 0 0.0350519 1 -0.0013555 -0.00172069
564 1 11.4969 6.59477 0 1.01095 2 0 0.0382896 1 0.00227952 -0.00494209
613 1 10.999 7.4602 0 1.00877 2 0 0.0415595 1 -0.00257606 -0.00364578
614 1 12.4971 6.59205 0 1.01882 2 0 0.0414274 1 -0.00181425 -0.00177954
665 1 12.9979 7.45474 0 1.00809 2 0 0.0488064 1 -0.00532996 0.00761589
664 1 11.9983 7.45781 0 1.0022 2 0 0.0452352 1 0.000487718 -0.000237472
615 1 13.4958 6.59157 0 1.00601 2 0 0.0444489 1 0.00508597 -7.53752e-06
616 1 14.4952 6.58993 0 1.00878 2 0 0.0473015 1 -0.00243716 0.00979076
666 1 13.9961 7.45772 0 0.997531 2 0 0.0522287 1 0.00160909 -0.00510671
667 1 14.9948 7.45682 0 1.00922 2 0 0.0555122 1 -0.00496277 -0.00423048
617 1 15.4926 6.59038 0 1.01132 2 0 0.0500255 1 0.00464469 0.00286519
668 1 15.9931 7.45405 0 1.01232 2 0 0.0586569 1 -0.00051358 0.00242507
619 1 16.4916 6.58975 0 1.00791 2 0 0.0526218 1 0.00618956 -0.000352738
669 1 17.4935 6.58902 0 1.0115 2 0 0.0550534 1 0.00170232 0.00124261
719 1 16.9926 7.45264 0 1.0104 2 0 0.0616492 1 -0.000804757 0.00409296
720 1 17.9914 7.45394 0 1.00384 2 0 0.0644671 1 0.00576292 -0.0054819
620 1 18.4938 6.59025 0 1.00047 2 0 0.0573124 1 0.000636949 0.000283702
621 1 19.4978 6.58952 0 1.01086 2 0 0.0594302 1 -0.00210248 -0.00166892
670 1 18.9941 7.45201 0 1.01205 2 0 0.0671405 1 0.00463749 0.00413714
671 1 19.9957 7.45271 0 1.01101 2 0 0.0696829 1 0.00373143 0.000778308
622 1 20.4977 6.58782 0 1.02282 2 0 0.0614476 1 -0.000638715 0.00851523
623 1 21.498 6.58944 0 1.01715 2 0 0.0633214 1 0.00507392 0.00786248
672 1 20.9969 7.45252 0 1.01032 2 0 0.0720441 1 -0.000452249 -0.00110743
673 1 21.9987 7.45507 0 1.00705 2 0 0.0742164 1 0.00224738 -0.00771461
624 1 22.5009 6.59056 0 1.00933 2 0 0.0650139 1 -0.000984772 0.009798
674 1 23.0021 7.4547 0 1.01197 2 0 0.076239 1 -0.00515737 0.00232994
625 1 23.4998 6.59039 0 1.01358 2 0 0.0666214 1 0.00396205 0.000135315
626 1 24.5007 6.59082 0 1.01095 2 0 0.068128 1 0.00271345 0.00336963
675 1 24.0012 7.45571 0 1.00974 2 0 0.0781583 1 0.00202904 -0.00315088
676 1 25.0004 7.45746 0 1.01754 2 0 0.0799218 1 0.000663116 -3.09043e-05
578 1 26.4994 6.59411 0 1.0136 2 0 0.0708119 1 -0.0016001 0.00126706
628 1 26.0003 7.4588 0 1.00647 2 0 0.0815474 1 0.00107675 -0.00425336
627 1 25.5003 6.59172 0 1.0116 2 0 0.0695209 1 0.00216379 0.00440777
629 1 27.5021 6.59217 0 1.00585 2 0 0.0720289 1 0.00115416 0.00251094
679 1 28.0009 7.45728 0 1.01276 2 0 0.084501 1 0.00253253 0.000712939
678 1 27.0028 7.45479 0 1.01987 2 0 0.0830706 1 -0.0052276 0.00896388
630 1 28.4998 6.59135 0 1.00031 2 0 0.0731962 1 -9.37155e-06 -0.00353722
631 1 29.5037 6.58911 0 1.01679 2 0 0.0742458 1 -0.00218253 0.00568273
680 1 29.0002 7.45249 0 1.0041 2 0 0.0858455 1 0.00310051 0.00558703
681 1 30 7.45488 0 1.0067 2 0 0.0870803 1 -0.0044699 -0.00710389
682 1 30.5038 6.5925 0 1.0233 2 0 0.0751686 1 -0.00904237 -0.0118578
633 1 31.5025 6.5907 0 1.00197 2 0 0.0760176 1 -0.00936127 -0.00368866
732 1 30.9997 7.45337 0 1.02086 2 0 0.0881746 1 0.00363305 0.00706985
683 1 31.9996 7.45423 0 1.00602 2 0 0.0891707 1 -0.00052482 0.00209459
684 1 32.4986 6.59175 0 1.01173 2 0 0.0768137 1 0.0137001 -0.0026509
734 1 33.0012 7.45431 0 1.01306 2 0 0.0901154 1 -0.00184297 -0.00198995
634 1 33.5008 6.58928 0 1.00318 2 0 0.0775851 1 -0.00340323 0.00666975
635 1 34.4992 6.59043 0 1.01335 2 0 0.0783097 1 0.00972717 0.00876194
685 1 34.0013 7.45402 0 1.01182 2 0 0.0910081 1 -0.00095162 -0.00154252
686 1 35.0027 7.4543 0 1.01566 2 0 0.0918166 1 -0.00300296 -0.00186015
636 1 35.5032 6.59126 0 1.01343 2 0 0.0789254 1 0.00308485 -0.00233476
637 1 36.5034 6.59167 0 0.995425 2 0 0.0794384 1 -1.12704e-05 -0.00165124