ITEM: TIMESTEP
16500
ITEM: NUMBER OF ATOMS
15950
ITEM: BOX BOUNDS pp pp pp
0.0000000000000000e+00 1.0000000000000000e+02
-5.0000000000000000e+00 2.0000000000000000e+02
-5.0000000000000000e-01 5.0000000000000000e-01
ITEM: ATOMS id type x y z c_rho c_phase c_nbond c_temp f_rheo_chi_chi fx fy
1 2 0 -5 0 1 2 8 3.74825e-11 1 0 0
2 2 1 -5 0 1 2 8 5.94465e-11 1 0 0
51 2 0 -4 0 1 2 8 2.86693e-10 1 0 0
52 2 1 -4 0 1 2 8 4.7391e-10 1 0 0
3 2 2 -5 0 1 2 8 1.35742e-10 1 0 0
4 2 3 -5 0 1 2 8 2.87609e-10 1 0 0
53 2 2 -4 0 1 2 8 1.14151e-09 1 0 0
54 2 3 -4 0 1 2 8 2.511e-09 1 0 0
5 2 4 -5 0 1 2 7 5.3617e-10 1 0 0
55 2 4 -4 0 1 2 8 4.74608e-09 1 0 0
6 2 5 -5 0 1 2 6 8.89966e-10 1 0 0
7 2 6 -5 0 1 2 5 1.27993e-09 1 0 0
56 2 5 -4 0 1 2 8 7.75324e-09 1 0 0
57 2 6 -4 0 1 2 8 1.11107e-08 1 0 0
8 2 7 -5 0 1 2 5 1.63694e-09 1 0 0
9 2 8 -5 0 1 2 5 1.92768e-09 1 0 0
58 2 7 -4 0 1 2 8 1.42886e-08 1 0 0
59 2 8 -4 0 1 2 8 1.68848e-08 1 0 0
10 2 9 -5 0 1 2 5 2.13592e-09 1 0 0
60 2 9 -4 0 1 2 8 1.8742e-08 1 0 0
11 2 10 -5 0 1 2 5 2.27095e-09 1 0 0
12 2 11 -5 0 1 2 5 2.35965e-09 1 0 0
61 2 10 -4 0 1 2 8 1.99424e-08 1 0 0
62 2 11 -4 0 1 2 8 2.07272e-08 1 0 0
13 2 12 -5 0 1 2 5 2.43335e-09 1 0 0
14 2 13 -5 0 1 2 5 2.51053e-09 1 0 0
63 2 12 -4 0 1 2 8 2.13852e-08 1 0 0
64 2 13 -4 0 1 2 8 2.20891e-08 1 0 0
15 2 14 -5 0 1 2 5 2.58601e-09 1 0 0
65 2 14 -4 0 1 2 8 2.27776e-08 1 0 0
16 2 15 -5 0 1 2 5 2.64297e-09 1 0 0
17 2 16 -5 0 1 2 5 2.67607e-09 1 0 0
66 2 15 -4 0 1 2 8 2.32763e-08 1 0 0
67 2 16 -4 0 1 2 8 2.35431e-08 1 0 0
18 2 17 -5 0 1 2 5 2.69571e-09 1 0 0
19 2 18 -5 0 1 2 5 2.71014e-09 1 0 0
68 2 17 -4 0 1 2 8 2.37036e-08 1 0 0
69 2 18 -4 0 1 2 8 2.38511e-08 1 0 0
20 2 19 -5 0 1 2 5 2.71172e-09 1 0 0
70 2 19 -4 0 1 2 8 2.39052e-08 1 0 0
21 2 20 -5 0 1 2 5 2.68439e-09 1 0 0
22 2 21 -5 0 1 2 5 2.62186e-09 1 0 0
71 2 20 -4 0 1 2 8 2.36952e-08 1 0 0
72 2 21 -4 0 1 2 8 2.31476e-08 1 0 0
23 2 22 -5 0 1 2 5 2.53678e-09 1 0 0
24 2 23 -5 0 1 2 5 2.45494e-09 1 0 0
73 2 22 -4 0 1 2 8 2.23749e-08 1 0 0
74 2 23 -4 0 1 2 8 2.16166e-08 1 0 0
25 2 24 -5 0 1 2 5 2.40313e-09 1 0 0
75 2 24 -4 0 1 2 8 2.1129e-08 1 0 0
26 2 25 -5 0 1 2 5 2.39784e-09 1 0 0
27 2 26 -5 0 1 2 5 2.43789e-09 1 0 0
76 2 25 -4 0 1 2 8 2.10808e-08 1 0 0
77 2 26 -4 0 1 2 8 2.14644e-08 1 0 0
28 2 27 -5 0 1 2 5 2.50672e-09 1 0 0
29 2 28 -5 0 1 2 5 2.5855e-09 1 0 0
78 2 27 -4 0 1 2 8 2.21082e-08 1 0 0
79 2 28 -4 0 1 2 8 2.2817e-08 1 0 0
30 2 29 -5 0 1 2 5 2.66411e-09 1 0 0
80 2 29 -4 0 1 2 8 2.35013e-08 1 0 0
31 2 30 -5 0 1 2 5 2.73787e-09 1 0 0
32 2 31 -5 0 1 2 5 2.79719e-09 1 0 0
81 2 30 -4 0 1 2 8 2.41425e-08 1 0 0
82 2 31 -4 0 1 2 8 2.4668e-08 1 0 0
33 2 32 -5 0 1 2 5 2.82812e-09 1 0 0
34 2 33 -5 0 1 2 5 2.8259e-09 1 0 0
83 2 32 -4 0 1 2 8 2.49421e-08 1 0 0
84 2 33 -4 0 1 2 8 2.49096e-08 1 0 0
35 2 34 -5 0 1 2 5 2.8029e-09 1 0 0
85 2 34 -4 0 1 2 8 2.46884e-08 1 0 0
36 2 35 -5 0 1 2 5 2.77811e-09 1 0 0
37 2 36 -5 0 1 2 5 2.76003e-09 1 0 0
86 2 35 -4 0 1 2 8 2.44663e-08 1 0 0
87 2 36 -4 0 1 2 8 2.43223e-08 1 0 0
38 2 37 -5 0 1 2 5 2.74279e-09 1 0 0
39 2 38 -5 0 1 2 5 2.71577e-09 1 0 0
88 2 37 -4 0 1 2 8 2.41906e-08 1 0 0
89 2 38 -4 0 1 2 8 2.39616e-08 1 0 0
40 2 39 -5 0 1 2 5 2.67378e-09 1 0 0
90 2 39 -4 0 1 2 8 2.35791e-08 1 0 0
41 2 40 -5 0 1 2 5 2.6216e-09 1 0 0
42 2 41 -5 0 1 2 5 2.57435e-09 1 0 0
91 2 40 -4 0 1 2 8 2.3082e-08 1 0 0
92 2 41 -4 0 1 2 8 2.2614e-08 1 0 0
43 2 42 -5 0 1 2 5 2.55292e-09 1 0 0
44 2 43 -5 0 1 2 5 2.57181e-09 1 0 0
93 2 42 -4 0 1 2 8 2.23848e-08 1 0 0
94 2 43 -4 0 1 2 8 2.25491e-08 1 0 0
45 2 44 -5 0 1 2 5 2.62465e-09 1 0 0
95 2 44 -4 0 1 2 8 2.30551e-08 1 0 0
46 2 45 -5 0 1 2 5 2.68177e-09 1 0 0
47 2 46 -5 0 1 2 5 2.70824e-09 1 0 0
96 2 45 -4 0 1 2 8 2.36121e-08 1 0 0
97 2 46 -4 0 1 2 8 2.38723e-08 1 0 0
48 2 47 -5 0 1 2 5 2.69003e-09 1 0 0
49 2 48 -5 0 1 2 5 2.64363e-09 1 0 0
98 2 47 -4 0 1 2 8 2.36979e-08 1 0 0
99 2 48 -4 0 1 2 8 2.32549e-08 1 0 0
50 2 49 -5 0 1 2 5 2.60153e-09 1 0 0
100 2 49 -4 0 1 2 8 2.28633e-08 1 0 0
101 2 0 -3 0 1 2 8 1.99022e-09 1 0 0
102 2 1 -3 0 1 2 8 3.44896e-09 1 0 0
151 2 0 -2 0 1 2 8 1.23731e-08 1 0 0
152 2 1 -2 0 1 2 8 2.2622e-08 1 0 0
103 2 2 -3 0 1 2 8 8.8167e-09 1 0 0
104 2 3 -3 0 1 2 8 2.02609e-08 1 0 0
153 2 2 -2 0 1 2 8 6.17783e-08 1 0 0
154 2 3 -2 0 1 2 8 1.49188e-07 1 0 0
105 2 4 -3 0 1 2 8 3.94978e-08 1 0 0
155 2 4 -2 0 1 2 8 3.01578e-07 1 0 0
106 2 5 -3 0 1 2 8 6.5761e-08 1 0 0
107 2 6 -3 0 1 2 8 9.53628e-08 1 0 0
156 2 5 -2 0 1 2 8 5.14203e-07 1 0 0
157 2 6 -2 0 1 2 8 7.55982e-07 1 0 0
108 2 7 -3 0 1 2 8 1.2348e-07 1 0 0
109 2 8 -3 0 1 2 8 1.46435e-07 1 0 0
158 2 7 -2 0 1 2 8 9.86013e-07 1 0 0
159 2 8 -2 0 1 2 8 1.17373e-06 1 0 0
110 2 9 -3 0 1 2 8 1.62833e-07 1 0 0
160 2 9 -2 0 1 2 8 1.30791e-06 1 0 0
111 2 10 -3 0 1 2 8 1.73411e-07 1 0 0
112 2 11 -3 0 1 2 8 1.80296e-07 1 0 0
161 2 10 -2 0 1 2 8 1.39468e-06 1 0 0
162 2 11 -2 0 1 2 8 1.45113e-06 1 0 0
113 2 12 -3 0 1 2 8 1.86124e-07 1 0 0
114 2 13 -3 0 1 2 8 1.9252e-07 1 0 0
163 2 12 -2 0 1 2 8 1.49929e-06 1 0 0
164 2 13 -2 0 1 2 8 1.55353e-06 1 0 0
115 2 14 -3 0 1 2 8 1.9878e-07 1 0 0
165 2 14 -2 0 1 2 8 1.60653e-06 1 0 0
116 2 15 -3 0 1 2 8 2.03086e-07 1 0 0
117 2 16 -3 0 1 2 8 2.0513e-07 1 0 0
166 2 15 -2 0 1 2 8 1.6407e-06 1 0 0
167 2 16 -2 0 1 2 8 1.6543e-06 1 0 0
118 2 17 -3 0 1 2 8 2.06385e-07 1 0 0
119 2 18 -3 0 1 2 8 2.07881e-07 1 0 0
168 2 17 -2 0 1 2 8 1.663e-06 1 0 0
169 2 18 -2 0 1 2 8 1.67713e-06 1 0 0
120 2 19 -3 0 1 2 8 2.08771e-07 1 0 0
170 2 19 -2 0 1 2 8 1.68832e-06 1 0 0
121 2 20 -3 0 1 2 8 2.07261e-07 1 0 0
122 2 21 -3 0 1 2 8 2.02543e-07 1 0 0
171 2 20 -2 0 1 2 8 1.67928e-06 1 0 0
172 2 21 -2 0 1 2 8 1.64213e-06 1 0 0
123 2 22 -3 0 1 2 8 1.95614e-07 1 0 0
124 2 23 -3 0 1 2 8 1.88656e-07 1 0 0
173 2 22 -2 0 1 2 8 1.58508e-06 1 0 0
174 2 23 -2 0 1 2 8 1.52622e-06 1 0 0
125 2 24 -3 0 1 2 8 1.84091e-07 1 0 0
175 2 24 -2 0 1 2 8 1.4865e-06 1 0 0
126 2 25 -3 0 1 2 8 1.83642e-07 1 0 0
127 2 26 -3 0 1 2 8 1.87302e-07 1 0 0
176 2 25 -2 0 1 2 8 1.48247e-06 1 0 0
177 2 26 -2 0 1 2 8 1.51493e-06 1 0 0
128 2 27 -3 0 1 2 8 1.93293e-07 1 0 0
129 2 28 -3 0 1 2 8 1.99591e-07 1 0 0
178 2 27 -2 0 1 2 8 1.56677e-06 1 0 0
179 2 28 -2 0 1 2 8 1.61835e-06 1 0 0
130 2 29 -3 0 1 2 8 2.05421e-07 1 0 0
180 2 29 -2 0 1 2 8 1.66346e-06 1 0 0
131 2 30 -3 0 1 2 8 2.1089e-07 1 0 0
132 2 31 -3 0 1 2 8 2.155e-07 1 0 0
181 2 30 -2 0 1 2 8 1.70589e-06 1 0 0
182 2 31 -2 0 1 2 8 1.74318e-06 1 0 0
133 2 32 -3 0 1 2 8 2.17924e-07 1 0 0
134 2 33 -3 0 1 2 8 2.17511e-07 1 0 0
183 2 32 -2 0 1 2 8 1.76314e-06 1 0 0
184 2 33 -2 0 1 2 8 1.75874e-06 1 0 0
135 2 34 -3 0 1 2 8 2.15388e-07 1 0 0
185 2 34 -2 0 1 2 8 1.73985e-06 1 0 0
136 2 35 -3 0 1 2 8 2.1341e-07 1 0 0
137 2 36 -3 0 1 2 8 2.12313e-07 1 0 0
186 2 35 -2 0 1 2 8 1.72361e-06 1 0 0
187 2 36 -2 0 1 2 8 1.71631e-06 1 0 0
138 2 37 -3 0 1 2 8 2.11377e-07 1 0 0
139 2 38 -3 0 1 2 8 2.09489e-07 1 0 0
188 2 37 -2 0 1 2 8 1.71079e-06 1 0 0
189 2 38 -2 0 1 2 8 1.69673e-06 1 0 0
140 2 39 -3 0 1 2 8 2.06056e-07 1 0 0
190 2 39 -2 0 1 2 8 1.66841e-06 1 0 0
141 2 40 -3 0 1 2 8 2.01371e-07 1 0 0
142 2 41 -3 0 1 2 8 1.96775e-07 1 0 0
191 2 40 -2 0 1 2 8 1.62761e-06 1 0 0
192 2 41 -2 0 1 2 8 1.58577e-06 1 0 0
143 2 42 -3 0 1 2 8 1.94359e-07 1 0 0
144 2 43 -3 0 1 2 8 1.95758e-07 1 0 0
193 2 42 -2 0 1 2 8 1.56223e-06 1 0 0
194 2 43 -2 0 1 2 8 1.573e-06 1 0 0
145 2 44 -3 0 1 2 8 2.00578e-07 1 0 0
195 2 44 -2 0 1 2 8 1.61553e-06 1 0 0
146 2 45 -3 0 1 2 8 2.05983e-07 1 0 0
147 2 46 -3 0 1 2 8 2.08522e-07 1 0 0
196 2 45 -2 0 1 2 8 1.66414e-06 1 0 0
197 2 46 -2 0 1 2 8 1.68705e-06 1 0 0
148 2 47 -3 0 1 2 8 2.06847e-07 1 0 0
149 2 48 -3 0 1 2 8 2.02628e-07 1 0 0
198 2 47 -2 0 1 2 8 1.67213e-06 1 0 0
199 2 48 -2 0 1 2 8 1.63492e-06 1 0 0
150 2 49 -3 0 1 2 8 1.98991e-07 1 0 0
200 2 49 -2 0 1 2 8 1.60355e-06 1 0 0
201 2 0 -1 0 1 2 8 6.77945e-08 1 0 0
202 2 1 -1 0 1 2 8 1.31623e-07 1 0 0
203 2 2 -1 0 1 2 8 3.86707e-07 1 0 0
204 2 3 -1 0 1 2 8 9.88181e-07 1 0 0
205 2 4 -1 0 1 2 8 2.08329e-06 1 0 0
206 2 5 -1 0 1 2 8 3.65034e-06 1 0 0
207 2 6 -1 0 1 2 8 5.44815e-06 1 0 0
208 2 7 -1 0 1 2 8 7.16003e-06 1 0 0
209 2 8 -1 0 1 2 8 8.55722e-06 1 0 0
210 2 9 -1 0 1 2 8 9.55921e-06 1 0 0
211 2 10 -1 0 1 2 8 1.02131e-05 1 0 0
212 2 11 -1 0 1 2 8 1.0641e-05 1 0 0
213 2 12 -1 0 1 2 8 1.10078e-05 1 0 0
214 2 13 -1 0 1 2 8 1.14309e-05 1 0 0
215 2 14 -1 0 1 2 8 1.18431e-05 1 0 0
216 2 15 -1 0 1 2 8 1.20883e-05 1 0 0
217 2 16 -1 0 1 2 8 1.21621e-05 1 0 0
218 2 17 -1 0 1 2 8 1.22142e-05 1 0 0
219 2 18 -1 0 1 2 8 1.23366e-05 1 0 0
220 2 19 -1 0 1 2 8 1.24535e-05 1 0 0
221 2 20 -1 0 1 2 8 1.24146e-05 1 0 0
222 2 21 -1 0 1 2 8 1.21525e-05 1 0 0
223 2 22 -1 0 1 2 8 1.17301e-05 1 0 0
224 2 23 -1 0 1 2 8 1.12799e-05 1 0 0
225 2 24 -1 0 1 2 8 1.0964e-05 1 0 0
226 2 25 -1 0 1 2 8 1.09295e-05 1 0 0
227 2 26 -1 0 1 2 8 1.11928e-05 1 0 0
228 2 27 -1 0 1 2 8 1.16033e-05 1 0 0
229 2 28 -1 0 1 2 8 1.19856e-05 1 0 0
230 2 29 -1 0 1 2 8 1.22948e-05 1 0 0
231 2 30 -1 0 1 2 8 1.25872e-05 1 0 0
232 2 31 -1 0 1 2 8 1.28603e-05 1 0 0
233 2 32 -1 0 1 2 8 1.30113e-05 1 0 0
234 2 33 -1 0 1 2 8 1.29711e-05 1 0 0
235 2 34 -1 0 1 2 8 1.28184e-05 1 0 0
236 2 35 -1 0 1 2 8 1.26977e-05 1 0 0
237 2 36 -1 0 1 2 8 1.26579e-05 1 0 0
238 2 37 -1 0 1 2 8 1.26349e-05 1 0 0
239 2 38 -1 0 1 2 8 1.25431e-05 1 0 0
240 2 39 -1 0 1 2 8 1.23327e-05 1 0 0
241 2 40 -1 0 1 2 8 1.201e-05 1 0 0
242 2 41 -1 0 1 2 8 1.16628e-05 1 0 0
243 2 42 -1 0 1 2 8 1.14544e-05 1 0 0
244 2 43 -1 0 1 2 8 1.15271e-05 1 0 0
245 2 44 -1 0 1 2 8 1.18687e-05 1 0 0
246 2 45 -1 0 1 2 8 1.22667e-05 1 0 0
247 2 46 -1 0 1 2 8 1.24543e-05 1 0 0
248 2 47 -1 0 1 2 8 1.23332e-05 1 0 0
249 2 48 -1 0 1 2 8 1.20347e-05 1 0 0
250 2 49 -1 0 1 2 8 1.17879e-05 1 0 0
251 2 0 0 0 1 2 8 3.21303e-07 1 0 0
252 2 1 0 0 1 2 8 6.66211e-07 1 0 0
301 2 0 1 0 1 2 8 1.29002e-06 1 0 0
302 2 1 1 0 1 2 8 2.86577e-06 1 0 0
253 2 2 0 0 1 2 8 2.1202e-06 1 0 0
254 2 3 0 0 1 2 8 5.77885e-06 1 0 0
303 2 2 1 0 1 2 8 9.92884e-06 1 0 0
304 2 3 1 0 1 2 8 2.90966e-05 1 0 0
255 2 4 0 0 1 2 8 1.27988e-05 1 0 0
305 2 4 1 0 1 2 8 6.82999e-05 1 0 0
256 2 5 0 0 1 2 8 2.31511e-05 1 0 0
257 2 6 0 0 1 2 8 3.51267e-05 1 0 0
306 2 5 1 0 1 2 8 0.000128356 1 0 0
307 2 6 1 0 1 2 8 0.000198307 1 0 0
258 2 7 0 0 1 2 8 4.65199e-05 1 0 0
259 2 8 0 0 1 2 8 5.58283e-05 1 0 0
308 2 7 1 0 1 2 8 0.00026453 1 0 0
309 2 8 1 0 1 2 8 0.000318789 1 0 0
260 2 9 0 0 1 2 8 6.25512e-05 1 0 0
310 2 9 1 0 1 2 8 0.000358482 1 0 0
261 2 10 0 0 1 2 8 6.7019e-05 1 0 0
262 2 11 0 0 1 2 8 6.99886e-05 1 0 0
311 2 10 1 0 1 2 8 0.000385662 1 0 0
312 2 11 1 0 1 2 8 0.000404284 1 0 0
263 2 12 0 0 1 2 8 7.25326e-05 1 0 0
264 2 13 0 0 1 2 8 7.55249e-05 1 0 0
313 2 12 1 0 1 2 8 0.00042009 1 0 0
314 2 13 1 0 1 2 8 0.000438907 1 0 0
265 2 14 0 0 1 2 8 7.84264e-05 1 0 0
315 2 14 1 0 1 2 8 0.00045705 1 0 0
266 2 15 0 0 1 2 8 7.99962e-05 1 0 0
267 2 16 0 0 1 2 8 8.02815e-05 1 0 0
316 2 15 1 0 1 2 8 0.000465885 1 0 0
317 2 16 1 0 1 2 8 0.000466297 1 0 0
268 2 17 0 0 1 2 8 8.05437e-05 1 0 0
269 2 18 0 0 1 2 8 8.15034e-05 1 0 0
318 2 17 1 0 1 2 8 0.000467441 1 0 0
319 2 18 1 0 1 2 8 0.000474118 1 0 0
270 2 19 0 0 1 2 8 8.25384e-05 1 0 0
320 2 19 1 0 1 2 8 0.000481853 1 0 0
271 2 20 0 0 1 2 8 8.24912e-05 1 0 0
272 2 21 0 0 1 2 8 8.08729e-05 1 0 0
321 2 20 1 0 1 2 8 0.000482923 1 0 0
322 2 21 1 0 1 2 8 0.000474454 1 0 0
273 2 22 0 0 1 2 8 7.81261e-05 1 0 0
274 2 23 0 0 1 2 8 7.5081e-05 1 0 0
323 2 22 1 0 1 2 8 0.000459333 1 0 0
324 2 23 1 0 1 2 8 0.000441721 1 0 0
275 2 24 0 0 1 2 8 7.2828e-05 1 0 0
325 2 24 1 0 1 2 8 0.000427682 1 0 0
276 2 25 0 0 1 2 8 7.25544e-05 1 0 0
277 2 26 0 0 1 2 8 7.44711e-05 1 0 0
326 2 25 1 0 1 2 8 0.000425738 1 0 0
327 2 26 1 0 1 2 8 0.000437938 1 0 0
278 2 27 0 0 1 2 8 7.73922e-05 1 0 0
279 2 28 0 0 1 2 8 7.99058e-05 1 0 0
328 2 27 1 0 1 2 8 0.000456126 1 0 0
329 2 28 1 0 1 2 8 0.000470392 1 0 0
280 2 29 0 0 1 2 8 8.1724e-05 1 0 0
330 2 29 1 0 1 2 8 0.000479087 1 0 0
281 2 30 0 0 1 2 8 8.34608e-05 1 0 0
282 2 31 0 0 1 2 8 8.5238e-05 1 0 0
331 2 30 1 0 1 2 8 0.000487578 1 0 0
332 2 31 1 0 1 2 8 0.000497576 1 0 0
283 2 32 0 0 1 2 8 8.62723e-05 1 0 0
284 2 33 0 0 1 2 8 8.59608e-05 1 0 0
333 2 32 1 0 1 2 8 0.000503849 1 0 0
334 2 33 1 0 1 2 8 0.000501849 1 0 0
285 2 34 0 0 1 2 8 8.48605e-05 1 0 0
335 2 34 1 0 1 2 8 0.000494992 1 0 0
286 2 35 0 0 1 2 8 8.40674e-05 1 0 0
287 2 36 0 0 1 2 8 8.39174e-05 1 0 0
336 2 35 1 0 1 2 8 0.00049056 1 0 0
337 2 36 1 0 1 2 8 0.000490498 1 0 0
288 2 37 0 0 1 2 8 8.39015e-05 1 0 0
289 2 38 0 0 1 2 8 8.33952e-05 1 0 0
338 2 37 1 0 1 2 8 0.000491304 1 0 0
339 2 38 1 0 1 2 8 0.000489101 1 0 0
290 2 39 0 0 1 2 8 8.2018e-05 1 0 0
340 2 39 1 0 1 2 8 0.000481409 1 0 0
291 2 40 0 0 1 2 8 7.97466e-05 1 0 0
292 2 41 0 0 1 2 8 7.71675e-05 1 0 0
341 2 40 1 0 1 2 8 0.000467593 1 0 0
342 2 41 1 0 1 2 8 0.00045089 1 0 0
293 2 42 0 0 1 2 8 7.55206e-05 1 0 0
294 2 43 0 0 1 2 8 7.59351e-05 1 0 0
343 2 42 1 0 1 2 8 0.00043958 1 0 0
344 2 43 1 0 1 2 8 0.000441431 1 0 0
295 2 44 0 0 1 2 8 7.83844e-05 1 0 0
345 2 44 1 0 1 2 8 0.000456696 1 0 0
296 2 45 0 0 1 2 8 8.12951e-05 1 0 0
297 2 46 0 0 1 2 8 8.26608e-05 1 0 0
346 2 45 1 0 1 2 8 0.000475179 1 0 0
347 2 46 1 0 1 2 8 0.000483741 1 0 0
298 2 47 0 0 1 2 8 8.17794e-05 1 0 0
299 2 48 0 0 1 2 8 7.96464e-05 1 0 0
348 2 47 1 0 1 2 8 0.000478134 1 0 0
349 2 48 1 0 1 2 8 0.000464941 1 0 0
300 2 49 0 0 1 2 8 7.79052e-05 1 0 0
350 2 49 1 0 1 2 8 0.000454192 1 0 0
351 2 0 2 0 1 2 8 4.29777e-06 1 0 0
352 2 1 2 0 1 2 8 1.02122e-05 1 0 0
401 2 0 3 0 1 2 8 1.16877e-05 1 0 0
402 2 1 3 0 1 2 8 2.94914e-05 1 0 0
353 2 2 2 0 1 2 8 3.85277e-05 1 0 0
354 2 3 2 0 1 2 8 0.000121882 1 0 0
403 2 2 3 0 1 2 8 0.000119953 1 0 0
404 2 3 3 0 1 2 8 0.000407817 1 0 0
355 2 4 2 0 1 2 8 0.000306128 1 0 0
405 2 4 3 0 1 2 8 0.0010913 1 0 0
356 2 5 2 0 1 2 8 0.000603153 1 0 0
357 2 6 2 0 1 2 8 0.00094973 1 0 0
406 2 5 3 0 1 2 8 0.00229618 1 0 0
407 2 6 3 0 1 2 8 0.00370189 1 0 0
358 2 7 2 0 1 2 8 0.00127366 1 0 0
359 2 8 2 0 1 2 8 0.00154101 1 0 0
408 2 7 3 0 1 2 8 0.00495839 1 0 0
409 2 8 3 0 1 2 8 0.00602001 1 0 0
360 2 9 2 0 1 2 8 0.00174083 1 0 0
410 2 9 3 0 1 2 8 0.00684571 1 0 0
361 2 10 2 0 1 2 8 0.00188379 1 0 0
362 2 11 2 0 1 2 8 0.00198656 1 0 0
411 2 10 3 0 1 2 8 0.00747053 1 0 0
412 2 11 3 0 1 2 8 0.00795608 1 0 0
363 2 12 2 0 1 2 8 0.00207271 1 0 0
364 2 13 2 0 1 2 8 0.00217463 1 0 0
413 2 12 3 0 1 2 8 0.00835516 1 0 0
414 2 13 3 0 1 2 8 0.00881193 1 0 0
365 2 14 2 0 1 2 8 0.00227202 1 0 0
415 2 14 3 0 1 2 8 0.00924523 1 0 0
366 2 15 2 0 1 2 8 0.00231544 1 0 0
367 2 16 2 0 1 2 8 0.00231244 1 0 0
416 2 15 3 0 1 2 8 0.0094337 1 0 0
417 2 16 3 0 1 2 8 0.00942235 1 0 0
368 2 17 2 0 1 2 8 0.00231761 1 0 0
369 2 18 2 0 1 2 8 0.00235774 1 0 0
418 2 17 3 0 1 2 8 0.00946067 1 0 0
419 2 18 3 0 1 2 8 0.00966226 1 0 0
370 2 19 2 0 1 2 8 0.00240516 1 0 0
420 2 19 3 0 1 2 8 0.00989257 1 0 0
371 2 20 2 0 1 2 8 0.00241731 1 0 0
372 2 21 2 0 1 2 8 0.00238177 1 0 0
421 2 20 3 0 1 2 8 0.00996734 1 0 0
422 2 21 3 0 1 2 8 0.00985879 1 0 0
373 2 22 2 0 1 2 8 0.00231553 1 0 0
374 2 23 2 0 1 2 8 0.00223301 1 0 0
423 2 22 3 0 1 2 8 0.00965518 1 0 0
424 2 23 3 0 1 2 8 0.00937284 1 0 0
375 2 24 2 0 1 2 8 0.00216017 1 0 0
425 2 24 3 0 1 2 8 0.00907757 1 0 0
376 2 25 2 0 1 2 8 0.00214855 1 0 0
377 2 26 2 0 1 2 8 0.00221327 1 0 0
426 2 25 3 0 1 2 8 0.00902848 1 0 0
427 2 26 3 0 1 2 8 0.00929565 1 0 0
378 2 27 2 0 1 2 8 0.0023083 1 0 0
379 2 28 2 0 1 2 8 0.00237515 1 0 0
428 2 27 3 0 1 2 8 0.00968597 1 0 0
429 2 28 3 0 1 2 8 0.00993162 1 0 0
380 2 29 2 0 1 2 8 0.00240577 1 0 0
430 2 29 3 0 1 2 8 0.00999199 1 0 0
381 2 30 2 0 1 2 8 0.0024371 1 0 0
382 2 31 2 0 1 2 8 0.00248377 1 0 0
431 2 30 3 0 1 2 8 0.0100671 1 0 0
432 2 31 3 0 1 2 8 0.0102364 1 0 0
383 2 32 2 0 1 2 8 0.00251616 1 0 0
384 2 33 2 0 1 2 8 0.00250611 1 0 0
433 2 32 3 0 1 2 8 0.0103717 1 0 0
434 2 33 3 0 1 2 8 0.0103376 1 0 0
385 2 34 2 0 1 2 8 0.00247101 1 0 0
435 2 34 3 0 1 2 8 0.010199 1 0 0
386 2 35 2 0 1 2 8 0.00245129 1 0 0
387 2 36 2 0 1 2 8 0.00245578 1 0 0
436 2 35 3 0 1 2 8 0.0101372 1 0 0
437 2 36 3 0 1 2 8 0.0101787 1 0 0
388 2 37 2 0 1 2 8 0.0024646 1 0 0
389 2 38 2 0 1 2 8 0.00245796 1 0 0
438 2 37 3 0 1 2 8 0.010232 1 0 0
439 2 38 3 0 1 2 8 0.0102214 1 0 0
390 2 39 2 0 1 2 8 0.00242309 1 0 0
440 2 39 3 0 1 2 8 0.0101018 1 0 0
391 2 40 2 0 1 2 8 0.0023538 1 0 0
392 2 41 2 0 1 2 8 0.00226349 1 0 0
441 2 40 3 0 1 2 8 0.00984112 1 0 0
442 2 41 3 0 1 2 8 0.00945971 1 0 0
393 2 42 2 0 1 2 8 0.00219898 1 0 0
394 2 43 2 0 1 2 8 0.00220446 1 0 0
443 2 42 3 0 1 2 8 0.00917652 1 0 0
444 2 43 3 0 1 2 8 0.00918076 1 0 0
395 2 44 2 0 1 2 8 0.00228353 1 0 0
445 2 44 3 0 1 2 8 0.00949836 1 0 0
396 2 45 2 0 1 2 8 0.00238095 1 0 0
397 2 46 2 0 1 2 8 0.00242482 1 0 0
446 2 45 3 0 1 2 8 0.00989505 1 0 0
447 2 46 3 0 1 2 8 0.0100628 1 0 0
398 2 47 2 0 1 2 8 0.00239489 1 0 0
399 2 48 2 0 1 2 8 0.00232748 1 0 0
448 2 47 3 0 1 2 8 0.00993432 1 0 0
449 2 48 3 0 1 2 8 0.00967147 1 0 0
400 2 49 2 0 1 2 8 0.0022717 1 0 0
450 2 49 3 0 1 2 8 0.00943916 1 0 0
451 2 0 4 0 1 2 8 2.57636e-05 1 0 0
452 2 1 4 0 1 2 8 6.82579e-05 1 0 0
453 2 2 4 0 1 2 8 0.000294876 1 0 0
454 2 3 4 0 1 2 8 0.00105212 1 0 0
455 2 4 4 0 1 2 7 0.00286225 1 0 0
456 2 5 4 0 1 2 6 0.00652838 1 0 0
457 2 6 4 0 1 2 5 0.0104762 1 0 0
506 1 5.49127 4.86581 0 1.0006 2 0 0.0143189 1 0.00851899 -0.0117789
507 1 6.49582 4.86903 0 1.02569 2 0 0.0187658 1 -0.0128252 -0.00863272
458 2 7 4 0 1 2 5 0.0137893 1 0 0
459 2 8 4 0 1 2 5 0.0167763 1 0 0
508 1 7.49172 4.86388 0 1.03193 2 0 0.0231276 1 -0.00518869 0.000485489
460 2 9 4 0 1 2 5 0.0192285 1 0 0
510 1 8.48484 4.87037 0 1.01036 2 0 0.027221 1 0.0152125 0.00296835
511 1 9.50042 4.86006 0 1.00136 2 0 0.0309013 1 -0.0111361 0.00622979
461 2 10 4 0 1 2 5 0.0212221 1 0 0
462 2 11 4 0 1 2 5 0.0229064 1 0 0
512 1 10.4984 4.85729 0 1.01573 2 0 0.0343007 1 -0.00465224 0.0174784
513 1 11.4935 4.86364 0 1.01534 2 0 0.0374465 1 0.0162127 -0.00847863
463 2 12 4 0 1 2 5 0.0243566 1 0 0
464 2 13 4 0 1 2 5 0.0258413 1 0 0
514 1 12.4999 4.86402 0 1.01802 2 0 0.0402949 1 -0.00380501 -0.000889191
465 2 14 4 0 1 2 5 0.0271929 1 0 0
515 1 13.5012 4.86337 0 1.02031 2 0 0.0428472 1 -0.00729408 0.00342436
516 1 14.4994 4.86311 0 1.0096 2 0 0.0449915 1 0.00217909 0.0087202
466 2 15 4 0 1 2 5 0.0279104 1 0 0
467 2 16 4 0 1 2 5 0.0280523 1 0 0
518 1 16.496 4.86776 0 1.02515 2 0 0.0480128 1 0.00106259 -0.00149619
517 1 15.4984 4.86981 0 1.02614 2 0 0.0466636 1 -0.00274612 -2.69138e-05
468 2 17 4 0 1 2 5 0.0282952 1 0 0
469 2 18 4 0 1 2 5 0.0290395 1 0 0
519 1 17.4946 4.86781 0 1.0239 2 0 0.0493112 1 0.0038842 0.00176532
470 2 19 4 0 1 2 5 0.0297787 1 0 0
520 1 18.4951 4.86546 0 1.00577 2 0 0.0504897 1 -0.00531285 -0.00607724
521 1 19.4942 4.8678 0 1.00453 2 0 0.051524 1 0.00229265 0.000635882
471 2 20 4 0 1 2 5 0.0300611 1 0 0
472 2 21 4 0 1 2 5 0.0299027 1 0 0
523 1 21.5017 4.86458 0 1.02268 2 0 0.0526349 1 -0.00280305 -0.00486591
522 1 20.4967 4.86581 0 1.0139 2 0 0.0521723 1 -0.00288339 -0.00495425
473 2 22 4 0 1 2 5 0.0296153 1 0 0
474 2 23 4 0 1 2 5 0.0290725 1 0 0
524 1 22.5026 4.86289 0 1.01383 2 0 0.0529299 1 -0.00419663 0.00474625
475 2 24 4 0 1 2 5 0.0283772 1 0 0
525 1 23.5004 4.86453 0 1.03669 2 0 0.0530467 1 -0.000164938 0.00441729
526 1 24.4985 4.86712 0 1.04245 2 0 0.0532824 1 -0.000170732 -0.00176821
476 2 25 4 0 1 2 5 0.0282805 1 0 0
477 2 26 4 0 1 2 5 0.0289561 1 0 0
528 1 26.4988 4.86669 0 1.04147 2 0 0.0546526 1 -0.00169292 -0.00234273
527 1 25.4959 4.86717 0 1.03798 2 0 0.0538506 1 0.00944675 -0.00396035
478 2 27 4 0 1 2 5 0.0300168 1 0 0
479 2 28 4 0 1 2 5 0.0305941 1 0 0
529 1 27.4986 4.86275 0 1.0019 2 0 0.0553773 1 -0.00322313 0.00676211
480 2 29 4 0 1 2 5 0.0306196 1 0 0
531 1 29.4985 4.86124 0 1.01679 2 0 0.0560743 1 -0.0020758 0.00144171
530 1 28.497 4.86433 0 1.02091 2 0 0.0558355 1 0.00466618 -0.00524507
481 2 30 4 0 1 2 5 0.0306777 1 0 0
482 2 31 4 0 1 2 5 0.0310864 1 0 0
533 1 31.5043 4.86101 0 1.004 2 0 0.0564496 1 3.91103e-05 0.00572296
532 1 30.5022 4.86341 0 1.0182 2 0 0.0562536 1 -0.00163177 -0.0072709
483 2 32 4 0 1 2 5 0.0314518 1 0 0
484 2 33 4 0 1 2 5 0.0314084 1 0 0
534 1 32.5038 4.86387 0 1.00171 2 0 0.0565752 1 -0.00396385 -0.00243895
485 2 34 4 0 1 2 5 0.0310893 1 0 0
535 1 33.5018 4.86353 0 1.00275 2 0 0.0565553 1 0.00587325 0.000848496
536 1 34.502 4.86404 0 1.0237 2 0 0.0565288 1 -0.00105959 -0.000214755
486 2 35 4 0 1 2 5 0.0309979 1 0 0
487 2 36 4 0 1 2 5 0.0311611 1 0 0
538 1 36.5026 4.86456 0 1.01227 2 0 0.0566738 1 -0.00405725 -0.0031835
537 1 35.5014 4.86368 0 1.0067 2 0 0.0566237 1 0.00104683 0.00201925
488 2 37 4 0 1 2 5 0.0313358 1 0 0
489 2 38 4 0 1 2 5 0.0313137 1 0 0
539 1 37.5019 4.8634 0 1.00174 2 0 0.0565476 1 -0.00432456 0.00352754
490 2 39 4 0 1 2 5 0.0310497 1 0 0
541 1 39.5013 4.86283 0 1.00168 2 0 0.0559835 1 -0.00234555 0.00148592
540 1 38.5004 4.86391 0 1.01715 2 0 0.0563047 1 0.00436599 -0.00221479
491 2 40 4 0 1 2 5 0.0304511 1 0 0
492 2 41 4 0 1 2 5 0.0294401 1 0 0
542 1 40.5009 4.86363 0 1.01016 2 0 0.0556487 1 0.000979464 -0.00416967
543 1 41.5008 4.86287 0 1.03252 2 0 0.0554167 1 0.00220977 0.000242427
493 2 42 4 0 1 2 5 0.0286888 1 0 0
494 2 43 4 0 1 2 5 0.0286726 1 0 0
544 1 42.5021 4.8635 0 1.0319 2 0 0.0555125 1 -0.00166222 -0.00021431
495 2 44 4 0 1 2 5 0.0294709 1 0 0
545 1 43.501 4.86433 0 1.03659 2 0 0.0558911 1 0.000847974 -0.000554665
546 1 44.4999 4.8644 0 1.01001 2 0 0.056399 1 0.00269698 0.000369089
496 2 45 4 0 1 2 5 0.0304749 1 0 0
497 2 46 4 0 1 2 5 0.0308429 1 0 0
548 1 46.4992 4.86427 0 1.00807 2 0 0.056809 1 0.00271829 0.00176238
547 1 45.4998 4.86496 0 1.00173 2 0 0.0567977 1 -0.00155972 -0.00457786
498 2 47 4 0 1 2 5 0.030494 1 0 0
499 2 48 4 0 1 2 5 0.029858 1 0 0
549 1 47.4998 4.86521 0 1.02093 2 0 0.0563988 1 -0.00316102 -0.00397726
500 2 49 4 0 1 2 5 0.0292527 1 0 0
550 1 48.4988 4.86372 0 1.02225 2 0 0.0559068 1 0.0011591 0.00395514
8501 1 49.4986 4.86363 0 1.06187 2 0 0.0556483 1 -0.000513638 0.000831297
501 2 0 5 0 1 2 8 4.64387e-05 1 0 0
502 2 1 5 0 1 2 8 0.000127459 1 0 0
551 2 0 6 0 1 2 8 7.0489e-05 1 0 0
552 2 1 6 0 1 2 8 0.000197899 1 0 0
503 2 2 5 0 1 2 8 0.000572571 1 0 0
504 2 3 5 0 1 2 8 0.00212515 1 0 0
553 2 2 6 0 1 2 8 0.000904383 1 0 0
554 2 3 6 0 1 2 8 0.00339257 1 0 0
505 2 4 5 0 1 2 6 0.00605657 1 0 0
555 2 4 6 0 1 2 5 0.00952511 1 0 0
556 1 4.96833 5.70944 0 1.02426 2 0 0.0157463 1 -0.00792602 0.0127365
557 1 5.98352 5.73175 0 1.00456 2 0 0.0221146 1 -0.0101628 0.00241525
558 1 6.97768 5.73957 0 1.00032 2 0 0.0278285 1 0.00313113 -0.00811873
509 1 7.97569 5.73263 0 1.00999 2 0 0.0333981 1 0.00611585 0.00420067
560 1 8.99893 5.72566 0 1.01571 2 0 0.0386959 1 -0.00690989 -0.00785574
561 1 9.99763 5.72013 0 1.04128 2 0 0.0436923 1 -0.00520169 0.00879356
562 1 10.9934 5.7231 0 1.02468 2 0 0.0483607 1 -0.0041943 0.0142447
563 1 11.9886 5.72719 0 1.00884 2 0 0.052646 1 0.00943485 -5.8779e-05
565 1 12.9921 5.72995 0 1.01555 2 0 0.056566 1 -0.00547632 -0.017576
566 1 13.9963 5.72916 0 1.01485 2 0 0.0600129 1 -0.00737117 -0.000743247
567 1 14.9928 5.73333 0 1.00349 2 0 0.062922 1 0.00333862 -0.00271548
568 1 15.9902 5.74059 0 1.02492 2 0 0.0654546 1 0.0071386 -0.00879086
569 1 17.988 5.73747 0 1.01386 2 0 0.0694321 1 0.00495856 0.000179404
618 1 16.9926 5.73423 0 1.00786 2 0 0.067593 1 -0.00850298 0.00085566
570 1 18.9859 5.72947 0 1.00562 2 0 0.0709233 1 0.000678118 -0.00623864
571 1 19.9912 5.73432 0 1.00943 2 0 0.0724068 1 -0.0033253 -0.00853949
572 1 20.9977 5.72594 0 1.02492 2 0 0.073657 1 0.000123725 0.00561337
573 1 22.0032 5.72604 0 1.00977 2 0 0.0746062 1 0.000820864 0.00267124
574 1 23.0011 5.73123 0 1.00488 2 0 0.0753203 1 0.00769771 -0.00629133
575 1 24.0017 5.73386 0 1.01237 2 0 0.0759003 1 -0.00374716 -0.00309566
576 1 25.0035 5.73375 0 1.01087 2 0 0.0766664 1 -0.0103457 0.00493925
577 1 25.9997 5.73346 0 1.01133 2 0 0.0775611 1 0.00549048 -0.00353732
579 1 26.9997 5.73061 0 1.01129 2 0 0.0783829 1 -0.003415 -0.00413594
580 1 27.9969 5.72775 0 1.02117 2 0 0.0790846 1 0.00687336 0.00255064
581 1 28.9985 5.72508 0 1.01861 2 0 0.0795551 1 -0.00278786 0.00120697
632 1 29.9977 5.72139 0 1.0167 2 0 0.0795692 1 -0.0003724 0.00567288
582 1 31.0065 5.72225 0 1.0143 2 0 0.0795333 1 0.00349286 0.00473892
583 1 32.0055 5.72626 0 1.0088 2 0 0.0795954 1 0.000493939 -0.00362514
584 1 33.0057 5.72742 0 1.00514 2 0 0.0797093 1 -0.00278236 0.000437841
585 1 34.0045 5.7282 0 1.02197 2 0 0.0799458 1 -0.00339718 -0.000826622
586 1 35.0034 5.72854 0 1.02669 2 0 0.0802214 1 0.000780305 -0.000371513
587 1 36.0025 5.72804 0 1.01702 2 0 0.0803782 1 -0.00148361 0.00207136
588 1 37.0019 5.72837 0 1.01798 2 0 0.0801505 1 0.000199682 -0.000772034
589 1 38.0024 5.72733 0 1.01656 2 0 0.0797133 1 -0.000154749 0.00402959
590 1 39.0024 5.72688 0 1.01208 2 0 0.0793181 1 8.77467e-06 -0.00130882
591 1 40.0019 5.72575 0 1.01334 2 0 0.0792199 1 -0.000706293 0.000983848
592 1 41.0028 5.72546 0 1.02633 2 0 0.0794517 1 0.000905431 -0.000363411
594 1 43.0026 5.72824 0 1.01497 2 0 0.0803017 1 0.000627289 3.64175e-05
593 1 42.0032 5.72602 0 1.02837 2 0 0.0798892 1 -0.00201045 0.000371078
595 1 44.0013 5.72944 0 1.01694 2 0 0.0806296 1 -0.00118025 -0.00199942
596 1 45.0002 5.72909 0 1.01116 2 0 0.0809384 1 -0.00166007 -0.000768603
597 1 45.9989 5.72847 0 1.01212 2 0 0.0811483 1 0.00389044 -0.00130688
598 1 46.9992 5.72962 0 1.00861 2 0 0.0809207 1 -0.00188133 -0.00388688
599 1 47.9977 5.72953 0 1.02545 2 0 0.0802809 1 0.00473183 0.00023253
600 1 48.9978 5.72838 0 1.00476 2 0 0.0796252 1 -0.00227388 -0.000548742
601 2 0 7 0 1 2 8 9.39933e-05 1 0 0
602 2 1 7 0 1 2 8 0.000267884 1 0 0
651 2 0 8 0 1 2 8 0.000114197 1 0 0
652 2 1 8 0 1 2 8 0.000329272 1 0 0
603 2 2 7 0 1 2 8 0.00123713 1 0 0
604 2 3 7 0 1 2 8 0.00468449 1 0 0
653 2 2 8 0 1 2 8 0.00153638 1 0 0
654 2 3 8 0 1 2 8 0.00592743 1 0 0
605 2 4 7 0 1 2 5 0.0129776 1 0 0
655 2 4 8 0 1 2 5 0.0162631 1 0 0
656 1 4.9122 7.44352 0 1.01253 2 0 0.0223395 1 0 -5e-05
606 1 5.45908 6.59079 0 1.01839 2 0 0.0234802 1 -0.00170067 -8.14728e-05
607 1 6.45807 6.60928 0 1.01626 2 0 0.030987 1 -0.00414572 -0.00971777
657 1 5.92536 7.48799 0 1.02523 2 0 0.0320812 1 0 -5e-05
608 1 7.46221 6.60327 0 1.01581 2 0 0.0380788 1 0.00547931 0.00704031
609 1 7.98763 7.4486 0 1.00447 2 0 0.049432 1 -0.0103495 0.0138647
658 1 6.95839 7.46592 0 1.00499 2 0 0.0409969 1 0.00432756 0.0111305
559 1 8.48603 6.58889 0 1.01669 2 0 0.0449678 1 0.00251239 -0.0178326
610 1 9.48756 6.59065 0 1.00382 2 0 0.0515708 1 0.00708106 -0.00408123
661 1 8.98316 7.44854 0 1.00906 2 0 0.0575721 1 0.0117542 0.0125005
612 1 9.98678 7.45257 0 1.00002 2 0 0.0653748 1 -0.00612777 -0.0125567
611 1 10.4874 6.58734 0 1.00368 2 0 0.0577971 1 0.000840542 0.00179331
564 1 11.4867 6.59344 0 1.01095 2 0 0.0636408 1 -0.00674429 -0.025048
613 1 10.9836 7.45272 0 1.00877 2 0 0.0728772 1 -0.00557588 -0.000260635
614 1 12.4856 6.58961 0 1.01882 2 0 0.0690562 1 -0.00573373 0.011845
665 1 12.9848 7.45653 0 1.00809 2 0 0.086469 1 -0.0128822 -0.0124109
664 1 11.9786 7.45222 0 1.0022 2 0 0.0799485 1 0.0256381 0.0079274
615 1 13.4805 6.58913 0 1.00601 2 0 0.0739661 1 0.0228384 0.0188481
616 1 14.4896 6.5957 0 1.00878 2 0 0.0781848 1 0.000961687 0.00328647
666 1 13.9814 7.45568 0 0.997531 2 0 0.092205 1 0.00984095 -0.00540311
667 1 14.984 7.46319 0 1.00922 2 0 0.0971146 1 0.00292336 -0.00655291
617 1 15.4947 6.60515 0 1.01132 2 0 0.0817935 1 -0.00786456 0.00162908
668 1 15.9913 7.47188 0 1.01232 2 0 0.10127 1 -0.0117146 -0.00194013
619 1 16.4923 6.60362 0 1.00791 2 0 0.0849636 1 -0.0125553 0.0026105
669 1 17.4829 6.60489 0 1.0115 2 0 0.0876879 1 0.0149227 0.00127227
719 1 16.9859 7.47737 0 1.0104 2 0 0.105058 1 0.00659177 -0.0015659
720 1 17.9833 7.47896 0 1.00384 2 0 0.108187 1 -0.00320784 0.00027647
620 1 18.4805 6.61151 0 1.00047 2 0 0.0900504 1 -0.00863017 -0.00671096
621 1 19.4754 6.59003 0 1.01086 2 0 0.0920711 1 0.00846299 0.00103522
670 1 18.9793 7.47382 0 1.01205 2 0 0.110986 1 -0.00123793 -0.0109177
671 1 19.9774 7.44334 0 1.01101 2 0 0.114001 1 -0.00161352 -0.00213648
622 1 20.4971 6.59106 0 1.02282 2 0 0.0943689 1 0.00422641 0.00271244
623 1 21.5017 6.58625 0 1.01715 2 0 0.0961396 1 -0.00139649 0.0125314
672 1 20.9999 7.45285 0 1.01032 2 0 0.117079 1 -0.0115171 -0.0095789
673 1 21.9912 7.46122 0 1.00705 2 0 0.119503 1 0.0159756 -0.00220079
624 1 22.5018 6.59348 0 1.00933 2 0 0.0973953 1 -0.00743027 0.00618559
674 1 22.9974 7.46445 0 1.01197 2 0 0.120783 1 0.00259442 -0.00446984
625 1 23.4999 6.60054 0 1.01358 2 0 0.0981171 1 0.00436658 -0.000990438
626 1 24.5003 6.59745 0 1.01095 2 0 0.0985236 1 0.00141923 0.00388777
675 1 23.9979 7.4704 0 1.00974 2 0 0.120783 1 -0.00296704 -3.30814e-05
676 1 24.9964 7.46471 0 1.01754 2 0 0.120928 1 -0.00662262 -0.0101901
578 1 26.5023 6.59562 0 1.0136 2 0 0.101123 1 0.0048746 -0.00331239
628 1 26.0152 7.46186 0 1.00647 2 0 0.123428 1 -0.0113444 0.00763779
627 1 25.5028 6.60444 0 1.0116 2 0 0.0998716 1 -0.000377366 -0.00507108
629 1 27.5014 6.59391 0 1.00585 2 0 0.101976 1 0.00352913 -0.000335942
679 1 28.0075 7.4689 0 1.01276 2 0 0.126166 1 0.00484051 9.64415e-06
678 1 27.0103 7.4607 0 1.01987 2 0 0.124793 1 0.00335374 0.00063843
630 1 28.5007 6.59121 0 1.00031 2 0 0.102955 1 -0.00198229 0.0021933
631 1 29.4994 6.58603 0 1.01679 2 0 0.103029 1 0.000791618 -0.00409952
680 1 29.007 7.45368 0 1.0041 2 0 0.126545 1 -0.00386273 0.00119088
681 1 30.0065 7.44088 0 1.0067 2 0 0.125344 1 -0.00432526 0.00308034
682 1 30.5032 6.57871 0 1.0233 2 0 0.102372 1 -0.000188097 0.00489178
633 1 31.5068 6.58814 0 1.00197 2 0 0.102338 1 -0.000894295 -0.0041448
732 1 30.9991 7.44311 0 1.02086 2 0 0.124123 1 0.00138869 -0.00390426
683 1 32.008 7.4523 0 1.00602 2 0 0.124561 1 -0.00300965 -0.00270452
684 1 32.5062 6.58973 0 1.01173 2 0 0.102489 1 -1.66735e-05 0.00140487
734 1 33.0046 7.45605 0 1.01306 2 0 0.124828 1 -0.000718315 -0.00188213
634 1 33.5046 6.59268 0 1.00318 2 0 0.102785 1 0.00266972 -0.00188876
635 1 34.5039 6.5923 0 1.01335 2 0 0.103351 1 -0.00189141 0.0029291
685 1 34.0035 7.45769 0 1.01182 2 0 0.124912 1 0.00186716 0.00301706
686 1 35.0029 7.45648 0 1.01566 2 0 0.126424 1 -0.00109484 0.00584347
636 1 35.5032 6.59391 0 1.01343 2 0 0.103988 1 0.000388655 -0.00300817