ITEM: TIMESTEP
36000
ITEM: NUMBER OF ATOMS
15950
ITEM: BOX BOUNDS pp pp pp
0.0000000000000000e+00 1.0000000000000000e+02
-5.0000000000000000e+00 2.0000000000000000e+02
-5.0000000000000000e-01 5.0000000000000000e-01
ITEM: ATOMS id type x y z c_rho c_phase c_nbond c_temp f_rheo_chi_chi fx fy
1 2 0 -5 0 1 2 8 9.21424e-09 1 0 0
2 2 1 -5 0 1 2 8 1.23568e-08 1 0 0
51 2 0 -4 0 1 2 8 4.37146e-08 1 0 0
52 2 1 -4 0 1 2 8 5.99425e-08 1 0 0
3 2 2 -5 0 1 2 8 2.28045e-08 1 0 0
4 2 3 -5 0 1 2 8 4.19829e-08 1 0 0
53 2 2 -4 0 1 2 8 1.14459e-07 1 0 0
54 2 3 -4 0 1 2 8 2.15458e-07 1 0 0
5 2 4 -5 0 1 2 7 7.22758e-08 1 0 0
55 2 4 -4 0 1 2 8 3.68236e-07 1 0 0
6 2 5 -5 0 1 2 6 1.16999e-07 1 0 0
7 2 6 -5 0 1 2 5 1.6661e-07 1 0 0
56 2 5 -4 0 1 2 8 5.67545e-07 1 0 0
57 2 6 -4 0 1 2 8 7.91611e-07 1 0 0
8 2 7 -5 0 1 2 5 2.12963e-07 1 0 0
9 2 8 -5 0 1 2 5 2.54129e-07 1 0 0
58 2 7 -4 0 1 2 8 1.01406e-06 1 0 0
59 2 8 -4 0 1 2 8 1.21326e-06 1 0 0
10 2 9 -5 0 1 2 5 2.87984e-07 1 0 0
60 2 9 -4 0 1 2 8 1.37736e-06 1 0 0
11 2 10 -5 0 1 2 5 3.14409e-07 1 0 0
12 2 11 -5 0 1 2 5 3.34907e-07 1 0 0
61 2 10 -4 0 1 2 8 1.50584e-06 1 0 0
62 2 11 -4 0 1 2 8 1.60611e-06 1 0 0
13 2 12 -5 0 1 2 5 3.51429e-07 1 0 0
14 2 13 -5 0 1 2 5 3.65228e-07 1 0 0
63 2 12 -4 0 1 2 8 1.68763e-06 1 0 0
64 2 13 -4 0 1 2 8 1.75622e-06 1 0 0
15 2 14 -5 0 1 2 5 3.76479e-07 1 0 0
65 2 14 -4 0 1 2 8 1.8121e-06 1 0 0
16 2 15 -5 0 1 2 5 3.84941e-07 1 0 0
17 2 16 -5 0 1 2 5 3.90879e-07 1 0 0
66 2 15 -4 0 1 2 8 1.85368e-06 1 0 0
67 2 16 -4 0 1 2 8 1.88256e-06 1 0 0
18 2 17 -5 0 1 2 5 3.95082e-07 1 0 0
19 2 18 -5 0 1 2 5 3.97987e-07 1 0 0
68 2 17 -4 0 1 2 8 1.90354e-06 1 0 0
69 2 18 -4 0 1 2 8 1.91935e-06 1 0 0
20 2 19 -5 0 1 2 5 3.99052e-07 1 0 0
70 2 19 -4 0 1 2 8 1.92709e-06 1 0 0
21 2 20 -5 0 1 2 5 3.97203e-07 1 0 0
22 2 21 -5 0 1 2 5 3.91974e-07 1 0 0
71 2 20 -4 0 1 2 8 1.92076e-06 1 0 0
72 2 21 -4 0 1 2 8 1.89739e-06 1 0 0
23 2 22 -5 0 1 2 5 3.84321e-07 1 0 0
24 2 23 -5 0 1 2 5 3.76545e-07 1 0 0
73 2 22 -4 0 1 2 8 1.86134e-06 1 0 0
74 2 23 -4 0 1 2 8 1.82389e-06 1 0 0
25 2 24 -5 0 1 2 5 3.71414e-07 1 0 0
75 2 24 -4 0 1 2 8 1.799e-06 1 0 0
26 2 25 -5 0 1 2 5 3.70915e-07 1 0 0
27 2 26 -5 0 1 2 5 3.75299e-07 1 0 0
76 2 25 -4 0 1 2 8 1.79692e-06 1 0 0
77 2 26 -4 0 1 2 8 1.81892e-06 1 0 0
28 2 27 -5 0 1 2 5 3.8312e-07 1 0 0
29 2 28 -5 0 1 2 5 3.92281e-07 1 0 0
78 2 27 -4 0 1 2 8 1.85731e-06 1 0 0
79 2 28 -4 0 1 2 8 1.90118e-06 1 0 0
30 2 29 -5 0 1 2 5 4.01143e-07 1 0 0
80 2 29 -4 0 1 2 8 1.94265e-06 1 0 0
31 2 30 -5 0 1 2 5 4.08775e-07 1 0 0
32 2 31 -5 0 1 2 5 4.14521e-07 1 0 0
81 2 30 -4 0 1 2 8 1.978e-06 1 0 0
82 2 31 -4 0 1 2 8 2.00467e-06 1 0 0
33 2 32 -5 0 1 2 5 4.17807e-07 1 0 0
34 2 33 -5 0 1 2 5 4.18538e-07 1 0 0
83 2 32 -4 0 1 2 8 2.01989e-06 1 0 0
84 2 33 -4 0 1 2 8 2.02294e-06 1 0 0
35 2 34 -5 0 1 2 5 4.17413e-07 1 0 0
85 2 34 -4 0 1 2 8 2.01729e-06 1 0 0
36 2 35 -5 0 1 2 5 4.15493e-07 1 0 0
37 2 36 -5 0 1 2 5 4.13349e-07 1 0 0
86 2 35 -4 0 1 2 8 2.00842e-06 1 0 0
87 2 36 -4 0 1 2 8 1.99917e-06 1 0 0
38 2 37 -5 0 1 2 5 4.10655e-07 1 0 0
39 2 38 -5 0 1 2 5 4.06598e-07 1 0 0
88 2 37 -4 0 1 2 8 1.98757e-06 1 0 0
89 2 38 -4 0 1 2 8 1.96902e-06 1 0 0
40 2 39 -5 0 1 2 5 4.00738e-07 1 0 0
90 2 39 -4 0 1 2 8 1.94078e-06 1 0 0
41 2 40 -5 0 1 2 5 3.93721e-07 1 0 0
42 2 41 -5 0 1 2 5 3.87373e-07 1 0 0
91 2 40 -4 0 1 2 8 1.90575e-06 1 0 0
92 2 41 -4 0 1 2 8 1.8732e-06 1 0 0
43 2 42 -5 0 1 2 5 3.83947e-07 1 0 0
44 2 43 -5 0 1 2 5 3.84745e-07 1 0 0
93 2 42 -4 0 1 2 8 1.85507e-06 1 0 0
94 2 43 -4 0 1 2 8 1.8586e-06 1 0 0
45 2 44 -5 0 1 2 5 3.89016e-07 1 0 0
95 2 44 -4 0 1 2 8 1.8803e-06 1 0 0
46 2 45 -5 0 1 2 5 3.94124e-07 1 0 0
47 2 46 -5 0 1 2 5 3.97144e-07 1 0 0
96 2 45 -4 0 1 2 8 1.9065e-06 1 0 0
97 2 46 -4 0 1 2 8 1.92189e-06 1 0 0
48 2 47 -5 0 1 2 5 3.96781e-07 1 0 0
49 2 48 -5 0 1 2 5 3.94112e-07 1 0 0
98 2 47 -4 0 1 2 8 1.9197e-06 1 0 0
99 2 48 -4 0 1 2 8 1.90568e-06 1 0 0
50 2 49 -5 0 1 2 5 3.91651e-07 1 0 0
100 2 49 -4 0 1 2 8 1.89305e-06 1 0 0
101 2 0 -3 0 1 2 8 1.90146e-07 1 0 0
102 2 1 -3 0 1 2 8 2.67237e-07 1 0 0
151 2 0 -2 0 1 2 8 7.51416e-07 1 0 0
152 2 1 -2 0 1 2 8 1.08474e-06 1 0 0
103 2 2 -3 0 1 2 8 5.29688e-07 1 0 0
104 2 3 -3 0 1 2 8 1.02523e-06 1 0 0
153 2 2 -2 0 1 2 8 2.23726e-06 1 0 0
154 2 3 -2 0 1 2 8 4.46372e-06 1 0 0
105 2 4 -3 0 1 2 8 1.78471e-06 1 0 0
155 2 4 -2 0 1 2 8 7.94511e-06 1 0 0
106 2 5 -3 0 1 2 8 2.77723e-06 1 0 0
107 2 6 -3 0 1 2 8 3.90113e-06 1 0 0
156 2 5 -2 0 1 2 8 1.25523e-05 1 0 0
157 2 6 -2 0 1 2 8 1.77947e-05 1 0 0
108 2 7 -3 0 1 2 8 5.02151e-06 1 0 0
109 2 8 -3 0 1 2 8 6.02435e-06 1 0 0
158 2 7 -2 0 1 2 8 2.30202e-05 1 0 0
159 2 8 -2 0 1 2 8 2.76919e-05 1 0 0
110 2 9 -3 0 1 2 8 6.85044e-06 1 0 0
160 2 9 -2 0 1 2 8 3.15436e-05 1 0 0
111 2 10 -3 0 1 2 8 7.49876e-06 1 0 0
112 2 11 -3 0 1 2 8 8.00781e-06 1 0 0
161 2 10 -2 0 1 2 8 3.45796e-05 1 0 0
162 2 11 -2 0 1 2 8 3.69829e-05 1 0 0
113 2 12 -3 0 1 2 8 8.42589e-06 1 0 0
114 2 13 -3 0 1 2 8 8.78106e-06 1 0 0
163 2 12 -2 0 1 2 8 3.89793e-05 1 0 0
164 2 13 -2 0 1 2 8 4.06941e-05 1 0 0
115 2 14 -3 0 1 2 8 9.0708e-06 1 0 0
165 2 14 -2 0 1 2 8 4.2096e-05 1 0 0
116 2 15 -3 0 1 2 8 9.28375e-06 1 0 0
117 2 16 -3 0 1 2 8 9.42982e-06 1 0 0
166 2 15 -2 0 1 2 8 4.31142e-05 1 0 0
167 2 16 -2 0 1 2 8 4.38042e-05 1 0 0
118 2 17 -3 0 1 2 8 9.53885e-06 1 0 0
119 2 18 -3 0 1 2 8 9.62835e-06 1 0 0
168 2 17 -2 0 1 2 8 4.43354e-05 1 0 0
169 2 18 -2 0 1 2 8 4.48085e-05 1 0 0
120 2 19 -3 0 1 2 8 9.68191e-06 1 0 0
170 2 19 -2 0 1 2 8 4.51366e-05 1 0 0
121 2 20 -3 0 1 2 8 9.66443e-06 1 0 0
122 2 21 -3 0 1 2 8 9.55727e-06 1 0 0
171 2 20 -2 0 1 2 8 4.51322e-05 1 0 0
172 2 21 -2 0 1 2 8 4.46924e-05 1 0 0
123 2 22 -3 0 1 2 8 9.38098e-06 1 0 0
124 2 23 -3 0 1 2 8 9.19322e-06 1 0 0
173 2 22 -2 0 1 2 8 4.39071e-05 1 0 0
174 2 23 -2 0 1 2 8 4.3046e-05 1 0 0
125 2 24 -3 0 1 2 8 9.06739e-06 1 0 0
175 2 24 -2 0 1 2 8 4.24629e-05 1 0 0
126 2 25 -3 0 1 2 8 9.0589e-06 1 0 0
127 2 26 -3 0 1 2 8 9.1747e-06 1 0 0
176 2 25 -2 0 1 2 8 4.24361e-05 1 0 0
177 2 26 -2 0 1 2 8 4.30025e-05 1 0 0
128 2 27 -3 0 1 2 8 9.37168e-06 1 0 0
129 2 28 -3 0 1 2 8 9.59021e-06 1 0 0
178 2 27 -2 0 1 2 8 4.39389e-05 1 0 0
179 2 28 -2 0 1 2 8 4.4942e-05 1 0 0
130 2 29 -3 0 1 2 8 9.79105e-06 1 0 0
180 2 29 -2 0 1 2 8 4.58325e-05 1 0 0
131 2 30 -3 0 1 2 8 9.96039e-06 1 0 0
132 2 31 -3 0 1 2 8 1.00892e-05 1 0 0
181 2 30 -2 0 1 2 8 4.65752e-05 1 0 0
182 2 31 -2 0 1 2 8 4.7149e-05 1 0 0
133 2 32 -3 0 1 2 8 1.01628e-05 1 0 0
134 2 33 -3 0 1 2 8 1.01758e-05 1 0 0
183 2 32 -2 0 1 2 8 4.74808e-05 1 0 0
184 2 33 -2 0 1 2 8 4.75317e-05 1 0 0
135 2 34 -3 0 1 2 8 1.01459e-05 1 0 0
185 2 34 -2 0 1 2 8 4.73874e-05 1 0 0
136 2 35 -3 0 1 2 8 1.01032e-05 1 0 0
137 2 36 -3 0 1 2 8 1.0063e-05 1 0 0
186 2 35 -2 0 1 2 8 4.72008e-05 1 0 0
187 2 36 -2 0 1 2 8 4.7047e-05 1 0 0
138 2 37 -3 0 1 2 8 1.00131e-05 1 0 0
139 2 38 -3 0 1 2 8 9.92642e-06 1 0 0
188 2 37 -2 0 1 2 8 4.68584e-05 1 0 0
189 2 38 -2 0 1 2 8 4.64915e-05 1 0 0
140 2 39 -3 0 1 2 8 9.78575e-06 1 0 0
190 2 39 -2 0 1 2 8 4.58495e-05 1 0 0
141 2 40 -3 0 1 2 8 9.60418e-06 1 0 0
142 2 41 -3 0 1 2 8 9.43063e-06 1 0 0
191 2 40 -2 0 1 2 8 4.49842e-05 1 0 0
192 2 41 -2 0 1 2 8 4.41316e-05 1 0 0
143 2 42 -3 0 1 2 8 9.33088e-06 1 0 0
144 2 43 -3 0 1 2 8 9.34731e-06 1 0 0
193 2 42 -2 0 1 2 8 4.36258e-05 1 0 0
194 2 43 -2 0 1 2 8 4.3694e-05 1 0 0
145 2 44 -3 0 1 2 8 9.46297e-06 1 0 0
195 2 44 -2 0 1 2 8 4.42622e-05 1 0 0
146 2 45 -3 0 1 2 8 9.60371e-06 1 0 0
147 2 46 -3 0 1 2 8 9.68523e-06 1 0 0
196 2 45 -2 0 1 2 8 4.49584e-05 1 0 0
197 2 46 -2 0 1 2 8 4.53547e-05 1 0 0
148 2 47 -3 0 1 2 8 9.6707e-06 1 0 0
149 2 48 -3 0 1 2 8 9.5925e-06 1 0 0
198 2 47 -2 0 1 2 8 4.52671e-05 1 0 0
199 2 48 -2 0 1 2 8 4.48637e-05 1 0 0
150 2 49 -3 0 1 2 8 9.52357e-06 1 0 0
200 2 49 -2 0 1 2 8 4.4515e-05 1 0 0
201 2 0 -1 0 1 2 8 2.67089e-06 1 0 0
202 2 1 -1 0 1 2 8 3.96694e-06 1 0 0
203 2 2 -1 0 1 2 8 8.52751e-06 1 0 0
204 2 3 -1 0 1 2 8 1.75697e-05 1 0 0
205 2 4 -1 0 1 2 8 3.20355e-05 1 0 0
206 2 5 -1 0 1 2 8 5.14474e-05 1 0 0
207 2 6 -1 0 1 2 8 7.36302e-05 1 0 0
208 2 7 -1 0 1 2 8 9.57107e-05 1 0 0
209 2 8 -1 0 1 2 8 0.000115425 1 0 0
210 2 9 -1 0 1 2 8 0.00013172 1 0 0
211 2 10 -1 0 1 2 8 0.000144658 1 0 0
212 2 11 -1 0 1 2 8 0.00015501 1 0 0
213 2 12 -1 0 1 2 8 0.000163721 1 0 0
214 2 13 -1 0 1 2 8 0.000171293 1 0 0
215 2 14 -1 0 1 2 8 0.000177508 1 0 0
216 2 15 -1 0 1 2 8 0.000181978 1 0 0
217 2 16 -1 0 1 2 8 0.000184981 1 0 0
218 2 17 -1 0 1 2 8 0.000187376 1 0 0
219 2 18 -1 0 1 2 8 0.000189672 1 0 0
220 2 19 -1 0 1 2 8 0.000191447 1 0 0
221 2 20 -1 0 1 2 8 0.000191807 1 0 0
222 2 21 -1 0 1 2 8 0.000190263 1 0 0
223 2 22 -1 0 1 2 8 0.000187175 1 0 0
224 2 23 -1 0 1 2 8 0.000183663 1 0 0
225 2 24 -1 0 1 2 8 0.000181255 1 0 0
226 2 25 -1 0 1 2 8 0.000181219 1 0 0
227 2 26 -1 0 1 2 8 0.000183742 1 0 0
228 2 27 -1 0 1 2 8 0.00018778 1 0 0
229 2 28 -1 0 1 2 8 0.000191933 1 0 0
230 2 29 -1 0 1 2 8 0.000195464 1 0 0
231 2 30 -1 0 1 2 8 0.000198376 1 0 0
232 2 31 -1 0 1 2 8 0.000200687 1 0 0
233 2 32 -1 0 1 2 8 0.000202057 1 0 0
234 2 33 -1 0 1 2 8 0.000202248 1 0 0
235 2 34 -1 0 1 2 8 0.000201628 1 0 0
236 2 35 -1 0 1 2 8 0.000200907 1 0 0
237 2 36 -1 0 1 2 8 0.000200419 1 0 0
238 2 37 -1 0 1 2 8 0.000199829 1 0 0
239 2 38 -1 0 1 2 8 0.000198462 1 0 0
240 2 39 -1 0 1 2 8 0.000195843 1 0 0
241 2 40 -1 0 1 2 8 0.000192141 1 0 0
242 2 41 -1 0 1 2 8 0.000188372 1 0 0
243 2 42 -1 0 1 2 8 0.000186062 1 0 0
244 2 43 -1 0 1 2 8 0.000186304 1 0 0
245 2 44 -1 0 1 2 8 0.000188816 1 0 0
246 2 45 -1 0 1 2 8 0.000191913 1 0 0
247 2 46 -1 0 1 2 8 0.000193638 1 0 0
248 2 47 -1 0 1 2 8 0.000193167 1 0 0
249 2 48 -1 0 1 2 8 0.000191289 1 0 0
250 2 49 -1 0 1 2 8 0.000189694 1 0 0
251 2 0 0 0 1 2 8 8.44996e-06 1 0 0
252 2 1 0 0 1 2 8 1.29207e-05 1 0 0
301 2 0 1 0 1 2 8 2.35559e-05 1 0 0
302 2 1 1 0 1 2 8 3.70447e-05 1 0 0
253 2 2 0 0 1 2 8 2.89533e-05 1 0 0
254 2 3 0 0 1 2 8 6.16626e-05 1 0 0
303 2 2 1 0 1 2 8 8.63223e-05 1 0 0
304 2 3 1 0 1 2 8 0.000189813 1 0 0
255 2 4 0 0 1 2 8 0.000115355 1 0 0
305 2 4 1 0 1 2 8 0.000364549 1 0 0
256 2 5 0 0 1 2 8 0.000188521 1 0 0
257 2 6 0 0 1 2 8 0.000272377 1 0 0
306 2 5 1 0 1 2 8 0.000606859 1 0 0
307 2 6 1 0 1 2 8 0.000884638 1 0 0
258 2 7 0 0 1 2 8 0.000355545 1 0 0
259 2 8 0 0 1 2 8 0.000429695 1 0 0
308 2 7 1 0 1 2 8 0.00115795 1 0 0
309 2 8 1 0 1 2 8 0.00140129 1 0 0
260 2 9 0 0 1 2 8 0.000491294 1 0 0
310 2 9 1 0 1 2 8 0.00160529 1 0 0
261 2 10 0 0 1 2 8 0.00054075 1 0 0
262 2 11 0 0 1 2 8 0.000580884 1 0 0
311 2 10 1 0 1 2 8 0.00177176 1 0 0
312 2 11 1 0 1 2 8 0.00190934 1 0 0
263 2 12 0 0 1 2 8 0.000615133 1 0 0
264 2 13 0 0 1 2 8 0.000645294 1 0 0
313 2 12 1 0 1 2 8 0.00202856 1 0 0
314 2 13 1 0 1 2 8 0.00213498 1 0 0
265 2 14 0 0 1 2 8 0.000670207 1 0 0
315 2 14 1 0 1 2 8 0.00222379 1 0 0
266 2 15 0 0 1 2 8 0.000688047 1 0 0
267 2 16 0 0 1 2 8 0.000700017 1 0 0
316 2 15 1 0 1 2 8 0.0022877 1 0 0
317 2 16 1 0 1 2 8 0.00233116 1 0 0
268 2 17 0 0 1 2 8 0.000709953 1 0 0
269 2 18 0 0 1 2 8 0.000720067 1 0 0
318 2 17 1 0 1 2 8 0.00236877 1 0 0
319 2 18 1 0 1 2 8 0.00240863 1 0 0
270 2 19 0 0 1 2 8 0.000728513 1 0 0
320 2 19 1 0 1 2 8 0.00244359 1 0 0
271 2 20 0 0 1 2 8 0.000731546 1 0 0
272 2 21 0 0 1 2 8 0.000727221 1 0 0
321 2 20 1 0 1 2 8 0.00246024 1 0 0
322 2 21 1 0 1 2 8 0.00245242 1 0 0
273 2 22 0 0 1 2 8 0.000716862 1 0 0
274 2 23 0 0 1 2 8 0.0007045 1 0 0
323 2 22 1 0 1 2 8 0.0024246 1 0 0
324 2 23 1 0 1 2 8 0.00238883 1 0 0
275 2 24 0 0 1 2 8 0.000695887 1 0 0
325 2 24 1 0 1 2 8 0.00236338 1 0 0
276 2 25 0 0 1 2 8 0.000696171 1 0 0
277 2 26 0 0 1 2 8 0.000706252 1 0 0
326 2 25 1 0 1 2 8 0.00236646 1 0 0
327 2 26 1 0 1 2 8 0.00240192 1 0 0
278 2 27 0 0 1 2 8 0.000721817 1 0 0
279 2 28 0 0 1 2 8 0.000737076 1 0 0
328 2 27 1 0 1 2 8 0.00245447 1 0 0
329 2 28 1 0 1 2 8 0.00250331 1 0 0
280 2 29 0 0 1 2 8 0.000749373 1 0 0
330 2 29 1 0 1 2 8 0.00254016 1 0 0
281 2 30 0 0 1 2 8 0.000759412 1 0 0
282 2 31 0 0 1 2 8 0.000767726 1 0 0
331 2 30 1 0 1 2 8 0.00257005 1 0 0
332 2 31 1 0 1 2 8 0.00259645 1 0 0
283 2 32 0 0 1 2 8 0.000772872 1 0 0
284 2 33 0 0 1 2 8 0.000773595 1 0 0
333 2 32 1 0 1 2 8 0.00261388 1 0 0
334 2 33 1 0 1 2 8 0.00261675 1 0 0
285 2 34 0 0 1 2 8 0.00077129 1 0 0
335 2 34 1 0 1 2 8 0.00260963 1 0 0
286 2 35 0 0 1 2 8 0.000768902 1 0 0
287 2 36 0 0 1 2 8 0.000767757 1 0 0
336 2 35 1 0 1 2 8 0.00260325 1 0 0
337 2 36 1 0 1 2 8 0.00260211 1 0 0
288 2 37 0 0 1 2 8 0.000766387 1 0 0
289 2 38 0 0 1 2 8 0.000762025 1 0 0
338 2 37 1 0 1 2 8 0.00260062 1 0 0
339 2 38 1 0 1 2 8 0.00258919 1 0 0
290 2 39 0 0 1 2 8 0.00075268 1 0 0
340 2 39 1 0 1 2 8 0.00256095 1 0 0
291 2 40 0 0 1 2 8 0.000738768 1 0 0
292 2 41 0 0 1 2 8 0.000724079 1 0 0
341 2 40 1 0 1 2 8 0.00251638 1 0 0
342 2 41 1 0 1 2 8 0.00246731 1 0 0
293 2 42 0 0 1 2 8 0.000714761 1 0 0
294 2 43 0 0 1 2 8 0.000715459 1 0 0
343 2 42 1 0 1 2 8 0.00243502 1 0 0
344 2 43 1 0 1 2 8 0.0024365 1 0 0
295 2 44 0 0 1 2 8 0.000725256 1 0 0
345 2 44 1 0 1 2 8 0.00246931 1 0 0
296 2 45 0 0 1 2 8 0.000737395 1 0 0
297 2 46 0 0 1 2 8 0.000743967 1 0 0
346 2 45 1 0 1 2 8 0.0025101 1 0 0
347 2 46 1 0 1 2 8 0.00253132 1 0 0
298 2 47 0 0 1 2 8 0.000741746 1 0 0
299 2 48 0 0 1 2 8 0.000734011 1 0 0
348 2 47 1 0 1 2 8 0.00252234 1 0 0
349 2 48 1 0 1 2 8 0.00249495 1 0 0
300 2 49 0 0 1 2 8 0.000727547 1 0 0
350 2 49 1 0 1 2 8 0.00247238 1 0 0
351 2 0 2 0 1 2 8 5.73918e-05 1 0 0
352 2 1 2 0 1 2 8 9.25579e-05 1 0 0
401 2 0 3 0 1 2 8 0.000121677 1 0 0
402 2 1 3 0 1 2 8 0.000200425 1 0 0
353 2 2 2 0 1 2 8 0.000222893 1 0 0
354 2 3 2 0 1 2 8 0.000503021 1 0 0
403 2 2 3 0 1 2 8 0.00049406 1 0 0
404 2 3 3 0 1 2 8 0.00112904 1 0 0
355 2 4 2 0 1 2 8 0.00098944 1 0 0
405 2 4 3 0 1 2 8 0.00224288 1 0 0
356 2 5 2 0 1 2 8 0.00167882 1 0 0
357 2 6 2 0 1 2 8 0.00246456 1 0 0
406 2 5 3 0 1 2 8 0.00388909 1 0 0
407 2 6 3 0 1 2 8 0.00573634 1 0 0
358 2 7 2 0 1 2 8 0.00322471 1 0 0
359 2 8 2 0 1 2 8 0.0039013 1 0 0
408 2 7 3 0 1 2 8 0.00744345 1 0 0
409 2 8 3 0 1 2 8 0.00897604 1 0 0
360 2 9 2 0 1 2 8 0.00447752 1 0 0
410 2 9 3 0 1 2 8 0.0103181 1 0 0
361 2 10 2 0 1 2 8 0.00495864 1 0 0
362 2 11 2 0 1 2 8 0.00536567 1 0 0
411 2 10 3 0 1 2 8 0.0114719 1 0 0
412 2 11 3 0 1 2 8 0.0124787 1 0 0
363 2 12 2 0 1 2 8 0.00572435 1 0 0
364 2 13 2 0 1 2 8 0.00604891 1 0 0
413 2 12 3 0 1 2 8 0.0133838 1 0 0
414 2 13 3 0 1 2 8 0.0142126 1 0 0
365 2 14 2 0 1 2 8 0.00632407 1 0 0
415 2 14 3 0 1 2 8 0.014933 1 0 0
366 2 15 2 0 1 2 8 0.00652608 1 0 0
367 2 16 2 0 1 2 8 0.00666846 1 0 0
416 2 15 3 0 1 2 8 0.0154844 1 0 0
417 2 16 3 0 1 2 8 0.015898 1 0 0
368 2 17 2 0 1 2 8 0.00679662 1 0 0
369 2 18 2 0 1 2 8 0.00693437 1 0 0
418 2 17 3 0 1 2 8 0.0162835 1 0 0
419 2 18 3 0 1 2 8 0.0166923 1 0 0
370 2 19 2 0 1 2 8 0.00705806 1 0 0
420 2 19 3 0 1 2 8 0.0170605 1 0 0
371 2 20 2 0 1 2 8 0.00712825 1 0 0
372 2 21 2 0 1 2 8 0.00713094 1 0 0
421 2 20 3 0 1 2 8 0.0172957 1 0 0
422 2 21 3 0 1 2 8 0.0173845 1 0 0
373 2 22 2 0 1 2 8 0.00708022 1 0 0
374 2 23 2 0 1 2 8 0.0070035 1 0 0
423 2 22 3 0 1 2 8 0.0173698 1 0 0
424 2 23 3 0 1 2 8 0.0172862 1 0 0
375 2 24 2 0 1 2 8 0.00694732 1 0 0
425 2 24 3 0 1 2 8 0.0172197 1 0 0
376 2 25 2 0 1 2 8 0.0069658 1 0 0
377 2 26 2 0 1 2 8 0.00707275 1 0 0
426 2 25 3 0 1 2 8 0.0173036 1 0 0
427 2 26 3 0 1 2 8 0.0175706 1 0 0
378 2 27 2 0 1 2 8 0.00722415 1 0 0
379 2 28 2 0 1 2 8 0.00735721 1 0 0
428 2 27 3 0 1 2 8 0.0179337 1 0 0
429 2 28 3 0 1 2 8 0.0182364 1 0 0
380 2 29 2 0 1 2 8 0.00745023 1 0 0
430 2 29 3 0 1 2 8 0.0184305 1 0 0
381 2 30 2 0 1 2 8 0.00752597 1 0 0
382 2 31 2 0 1 2 8 0.00759915 1 0 0
431 2 30 3 0 1 2 8 0.0185957 1 0 0
432 2 31 3 0 1 2 8 0.0187728 1 0 0
383 2 32 2 0 1 2 8 0.00765185 1 0 0
384 2 33 2 0 1 2 8 0.00766354 1 0 0
433 2 32 3 0 1 2 8 0.0189143 1 0 0
434 2 33 3 0 1 2 8 0.0189598 1 0 0
385 2 34 2 0 1 2 8 0.00764661 1 0 0
435 2 34 3 0 1 2 8 0.018933 1 0 0
386 2 35 2 0 1 2 8 0.00763469 1 0 0
387 2 36 2 0 1 2 8 0.00764036 1 0 0
436 2 35 3 0 1 2 8 0.0189272 1 0 0
437 2 36 3 0 1 2 8 0.018969 1 0 0
388 2 37 2 0 1 2 8 0.00764525 1 0 0
389 2 38 2 0 1 2 8 0.00762246 1 0 0
438 2 37 3 0 1 2 8 0.0190043 1 0 0
439 2 38 3 0 1 2 8 0.0189763 1 0 0
390 2 39 2 0 1 2 8 0.00755395 1 0 0
440 2 39 3 0 1 2 8 0.0188569 1 0 0
391 2 40 2 0 1 2 8 0.00743805 1 0 0
392 2 41 2 0 1 2 8 0.00730334 1 0 0
441 2 40 3 0 1 2 8 0.0186361 1 0 0
442 2 41 3 0 1 2 8 0.0183503 1 0 0
393 2 42 2 0 1 2 8 0.00721116 1 0 0
394 2 43 2 0 1 2 8 0.00721285 1 0 0
443 2 42 3 0 1 2 8 0.0181473 1 0 0
444 2 43 3 0 1 2 8 0.0181469 1 0 0
395 2 44 2 0 1 2 8 0.00730361 1 0 0
445 2 44 3 0 1 2 8 0.0183438 1 0 0
396 2 45 2 0 1 2 8 0.00741645 1 0 0
397 2 46 2 0 1 2 8 0.00747176 1 0 0
446 2 45 3 0 1 2 8 0.0185892 1 0 0
447 2 46 3 0 1 2 8 0.0186972 1 0 0
398 2 47 2 0 1 2 8 0.00744169 1 0 0
399 2 48 2 0 1 2 8 0.0073618 1 0 0
448 2 47 3 0 1 2 8 0.0186176 1 0 0
449 2 48 3 0 1 2 8 0.01844 1 0 0
400 2 49 2 0 1 2 8 0.0072968 1 0 0
450 2 49 3 0 1 2 8 0.0182924 1 0 0
451 2 0 4 0 1 2 8 0.000224741 1 0 0
452 2 1 4 0 1 2 8 0.000376604 1 0 0
453 2 2 4 0 1 2 8 0.000942632 1 0 0
454 2 3 4 0 1 2 8 0.002145 1 0 0
455 2 4 4 0 1 2 7 0.00411932 1 0 0
456 2 5 4 0 1 2 6 0.00731226 1 0 0
457 2 6 4 0 1 2 5 0.0105743 1 0 0
506 1 5.49338 4.8684 0 1.0006 2 0 0.0125017 1 -0.00223161 -0.00393817
507 1 6.49474 4.87348 0 1.02569 2 0 0.0155745 1 3.70501e-05 -0.00660944
458 2 7 4 0 1 2 5 0.0133782 1 0 0
459 2 8 4 0 1 2 5 0.0160039 1 0 0
508 1 7.4964 4.86736 0 1.03193 2 0 0.0186499 1 0.00063638 0.00106194
460 2 9 4 0 1 2 5 0.0183883 1 0 0
510 1 8.50112 4.86752 0 1.01036 2 0 0.0216082 1 -0.00131353 -5.06645e-05
511 1 9.50047 4.86802 0 1.00136 2 0 0.0243767 1 -0.00254425 -0.00728707
461 2 10 4 0 1 2 5 0.0205159 1 0 0
462 2 11 4 0 1 2 5 0.0224553 1 0 0
512 1 10.4971 4.8642 0 1.01573 2 0 0.027006 1 0.0100542 0.000284849
513 1 11.4988 4.86362 0 1.01534 2 0 0.0294991 1 0.000389529 -0.00103735
463 2 12 4 0 1 2 5 0.0242419 1 0 0
464 2 13 4 0 1 2 5 0.0258895 1 0 0
514 1 12.4983 4.8623 0 1.01802 2 0 0.031829 1 0.00403865 0.00876339
465 2 14 4 0 1 2 5 0.0273689 1 0 0
515 1 13.5 4.86343 0 1.02031 2 0 0.0339949 1 -0.00240991 0.00337164
516 1 14.4985 4.86559 0 1.0096 2 0 0.0359687 1 0.00469551 -0.00627595
466 2 15 4 0 1 2 5 0.0285836 1 0 0
467 2 16 4 0 1 2 5 0.0295768 1 0 0
518 1 16.4981 4.86278 0 1.02515 2 0 0.0393766 1 0.00530779 0.00176876
517 1 15.4997 4.86444 0 1.02614 2 0 0.0377403 1 -0.0035096 -0.00367047
468 2 17 4 0 1 2 5 0.0305205 1 0 0
469 2 18 4 0 1 2 5 0.0314723 1 0 0
519 1 17.4985 4.86188 0 1.0239 2 0 0.0409069 1 0.00406724 0.0048115
470 2 19 4 0 1 2 5 0.0323209 1 0 0
520 1 18.5029 4.86594 0 1.00577 2 0 0.0423002 1 -0.00920973 -0.0114364
521 1 19.5008 4.86215 0 1.00453 2 0 0.0435113 1 0.00392427 0.00092532
471 2 20 4 0 1 2 5 0.0329266 1 0 0
472 2 21 4 0 1 2 5 0.0333121 1 0 0
523 1 21.5019 4.86468 0 1.02268 2 0 0.0454462 1 -0.00461865 -0.00439039
522 1 20.5025 4.86421 0 1.0139 2 0 0.0445332 1 -0.00441364 -0.00882717
473 2 22 4 0 1 2 5 0.0335803 1 0 0
474 2 23 4 0 1 2 5 0.0337146 1 0 0
524 1 22.4993 4.86326 0 1.01383 2 0 0.0462592 1 0.00622749 0.00362385
475 2 24 4 0 1 2 5 0.0338101 1 0 0
525 1 23.5026 4.8658 0 1.03669 2 0 0.0469581 1 -0.00731639 -0.00780113
526 1 24.5001 4.86381 0 1.04245 2 0 0.0476345 1 0.00590699 -0.00466536
476 2 25 4 0 1 2 5 0.0340958 1 0 0
477 2 26 4 0 1 2 5 0.0346095 1 0 0
528 1 26.4994 4.86382 0 1.04147 2 0 0.0491172 1 -0.00389331 0.000683643
527 1 25.5008 4.86617 0 1.03798 2 0 0.0483625 1 -0.00153976 -0.013131
478 2 27 4 0 1 2 5 0.0352668 1 0 0
479 2 28 4 0 1 2 5 0.0358014 1 0 0
529 1 27.4972 4.86352 0 1.0019 2 0 0.0498314 1 0.00804695 0.00177492
480 2 29 4 0 1 2 5 0.0361459 1 0 0
531 1 29.499 4.86276 0 1.01679 2 0 0.0510226 1 0.000382429 0.00860028
530 1 28.5006 4.86383 0 1.02091 2 0 0.0504615 1 -0.00778982 -0.000755732
481 2 30 4 0 1 2 5 0.0364638 1 0 0
482 2 31 4 0 1 2 5 0.0368179 1 0 0
533 1 31.4941 4.86277 0 1.004 2 0 0.052044 1 0.0144841 0.00469079
532 1 30.4969 4.86626 0 1.0182 2 0 0.0515492 1 0.00105416 -0.00684946
483 2 32 4 0 1 2 5 0.0371281 1 0 0
484 2 33 4 0 1 2 5 0.0372754 1 0 0
534 1 32.4987 4.86268 0 1.00171 2 0 0.0524469 1 0.00168561 0.00662344
485 2 34 4 0 1 2 5 0.0372781 1 0 0
535 1 33.5008 4.86507 0 1.00275 2 0 0.0527256 1 -0.00411715 -0.00168099
536 1 34.4993 4.86407 0 1.0237 2 0 0.0529329 1 0.00196957 0.00307401
486 2 35 4 0 1 2 5 0.0373328 1 0 0
487 2 36 4 0 1 2 5 0.0374779 1 0 0
538 1 36.4999 4.86615 0 1.01227 2 0 0.0534465 1 -0.000771861 -0.00700473
537 1 35.5011 4.86571 0 1.0067 2 0 0.0531946 1 -0.00320601 -0.0073578
488 2 37 4 0 1 2 5 0.0375938 1 0 0
489 2 38 4 0 1 2 5 0.0376022 1 0 0
539 1 37.4986 4.86544 0 1.00174 2 0 0.0536331 1 -0.00506509 -0.00284479
490 2 39 4 0 1 2 5 0.0374988 1 0 0
541 1 39.4984 4.86473 0 1.00168 2 0 0.0537639 1 0.00631199 -0.00610396
540 1 38.4956 4.86521 0 1.01715 2 0 0.0537399 1 0.00693451 0.00153629
491 2 40 4 0 1 2 5 0.0372604 1 0 0
492 2 41 4 0 1 2 5 0.0368744 1 0 0
542 1 40.4984 4.86375 0 1.01016 2 0 0.0537216 1 0.0055722 1.42745e-05
543 1 41.501 4.86509 0 1.03252 2 0 0.0536879 1 -0.00896799 -0.00527464
493 2 42 4 0 1 2 5 0.0365982 1 0 0
494 2 43 4 0 1 2 5 0.0366109 1 0 0
544 1 42.498 4.86379 0 1.0319 2 0 0.0537455 1 0.00198101 -0.00104598
495 2 44 4 0 1 2 5 0.0369026 1 0 0
545 1 43.4955 4.86271 0 1.03659 2 0 0.0538954 1 0.0104548 0.00481381
546 1 44.5017 4.86445 0 1.01001 2 0 0.0540892 1 -0.00588473 -0.0024644
496 2 45 4 0 1 2 5 0.0372659 1 0 0
497 2 46 4 0 1 2 5 0.0374062 1 0 0
548 1 46.5 4.86076 0 1.00807 2 0 0.0543898 1 0.00254088 0.0157384
547 1 45.5013 4.86458 0 1.00173 2 0 0.0542826 1 -0.00768023 -0.00368178
498 2 47 4 0 1 2 5 0.0372779 1 0 0
499 2 48 4 0 1 2 5 0.0370357 1 0 0
549 1 47.5 4.86486 0 1.02093 2 0 0.0543941 1 -0.0106456 -0.0067422
500 2 49 4 0 1 2 5 0.0368353 1 0 0
550 1 48.4976 4.86427 0 1.02225 2 0 0.054421 1 0.0111801 -0.00226619
8501 1 49.5007 4.8654 0 1.06187 2 0 0.0545149 1 -0.000703629 -0.00171467
501 2 0 5 0 1 2 8 0.000364662 1 0 0
502 2 1 5 0 1 2 8 0.000619377 1 0 0
551 2 0 6 0 1 2 8 0.000528258 1 0 0
552 2 1 6 0 1 2 8 0.000906541 1 0 0
503 2 2 5 0 1 2 8 0.0015654 1 0 0
504 2 3 5 0 1 2 8 0.00355298 1 0 0
553 2 2 6 0 1 2 8 0.00230172 1 0 0
554 2 3 6 0 1 2 8 0.00519323 1 0 0
505 2 4 5 0 1 2 6 0.00673273 1 0 0
555 2 4 6 0 1 2 5 0.0095377 1 0 0
556 1 4.96044 5.72058 0 1.02426 2 0 0.0133262 1 -0.000458811 -0.000870479
557 1 5.98809 5.73345 0 1.00456 2 0 0.0172822 1 0.00152852 0.00922997
558 1 6.98831 5.741 0 1.00032 2 0 0.0207637 1 -0.00121668 -0.00203002
509 1 7.99592 5.73406 0 1.00999 2 0 0.0242855 1 -0.00128547 -0.00227676
560 1 9.00397 5.73198 0 1.01571 2 0 0.0276688 1 -0.00611095 0.00422155
561 1 10.0032 5.73169 0 1.04128 2 0 0.0309304 1 -0.00574988 -0.00261479
562 1 10.9997 5.72734 0 1.02468 2 0 0.0340686 1 0.00417018 0.00622836
563 1 11.9989 5.72703 0 1.00884 2 0 0.0370378 1 0.00233519 0.00280267
565 1 13.0006 5.72791 0 1.01555 2 0 0.0398703 1 -0.00282731 -0.000329912
566 1 13.9991 5.72893 0 1.01485 2 0 0.0425293 1 -0.00187589 -0.00392795
567 1 14.9999 5.72831 0 1.00349 2 0 0.0449915 1 0.00123575 0.000624509
568 1 16 5.72702 0 1.02492 2 0 0.0473113 1 -0.00126024 0.00639815
569 1 17.9986 5.7268 0 1.01386 2 0 0.0514107 1 0.00273185 -0.00883641
618 1 17.0005 5.72511 0 1.00786 2 0 0.0494537 1 -0.00665178 0.00700322
570 1 19.0027 5.72538 0 1.00562 2 0 0.0531804 1 -0.00357843 0.0101974
571 1 20.0009 5.72494 0 1.00943 2 0 0.0547793 1 0.00490527 0.00549466
572 1 21.0003 5.72641 0 1.02492 2 0 0.0562792 1 0.00258956 0.00887496
573 1 22.0015 5.72869 0 1.00977 2 0 0.0576395 1 -0.00283564 -0.00264755
574 1 23.0002 5.72749 0 1.00488 2 0 0.0588728 1 0.000691799 -0.00184878
575 1 24.0033 5.72743 0 1.01237 2 0 0.0600338 1 -0.00763535 0.00459066
576 1 25.0004 5.72653 0 1.01087 2 0 0.0611108 1 -0.00019071 0.0100613
577 1 25.9992 5.72953 0 1.01133 2 0 0.0621142 1 -0.00187484 -0.00561401
579 1 26.9974 5.72728 0 1.01129 2 0 0.0630214 1 0.00280057 0.00468409
580 1 27.9971 5.72818 0 1.02117 2 0 0.0639007 1 0.000606639 -0.000791048
581 1 28.9971 5.72698 0 1.01861 2 0 0.0647047 1 0.00386792 0.00368247
632 1 29.9982 5.72921 0 1.0167 2 0 0.0653945 1 -0.00235497 -0.00282637
582 1 30.9996 5.72844 0 1.0143 2 0 0.0660326 1 0.00242783 0.00130381
583 1 31.9997 5.72796 0 1.0088 2 0 0.0666147 1 -0.00284039 -0.00128275
584 1 32.9979 5.72823 0 1.00514 2 0 0.0671276 1 0.00170171 0.00313113
585 1 33.9971 5.73143 0 1.02197 2 0 0.0676134 1 0.0021219 -0.00585404
586 1 34.9997 5.72809 0 1.02669 2 0 0.0680187 1 -0.00173683 0.00687022
587 1 35.9993 5.72978 0 1.01702 2 0 0.0684114 1 -0.00749547 0.00101867
588 1 36.9965 5.73155 0 1.01798 2 0 0.0687338 1 -0.000979952 -0.000549657
589 1 37.9924 5.73181 0 1.01656 2 0 0.0689852 1 0.0127644 -0.00414979
590 1 39.0007 5.72595 0 1.01208 2 0 0.0691702 1 -0.0036183 0.0119336
591 1 40.0027 5.72774 0 1.01334 2 0 0.0693734 1 -0.00349637 0.00301119
592 1 41.0024 5.73033 0 1.02633 2 0 0.0696104 1 -0.0121151 -0.00592815
594 1 42.9968 5.72726 0 1.01497 2 0 0.069973 1 0.00324313 0.00613673
593 1 41.9989 5.72845 0 1.02837 2 0 0.0698406 1 0.00162212 0.00372884
595 1 43.9964 5.72704 0 1.01694 2 0 0.0700648 1 -0.000152314 -0.000587983
596 1 44.9967 5.72892 0 1.01116 2 0 0.0701603 1 0.00189789 0.00198561
597 1 45.996 5.72836 0 1.01212 2 0 0.0703781 1 0.00482036 0.00623414
598 1 46.9959 5.72956 0 1.00861 2 0 0.0705551 1 -0.0036592 -0.00666087
599 1 47.9976 5.72547 0 1.02545 2 0 0.0707321 1 0.0015389 0.0158949
600 1 48.9991 5.72932 0 1.00476 2 0 0.0709376 1 -0.00288136 -0.0055969
601 2 0 7 0 1 2 8 0.000697654 1 0 0
602 2 1 7 0 1 2 8 0.00120793 1 0 0
651 2 0 8 0 1 2 8 0.000856706 1 0 0
652 2 1 8 0 1 2 8 0.00149632 1 0 0
603 2 2 7 0 1 2 8 0.00307943 1 0 0
604 2 3 7 0 1 2 8 0.00693673 1 0 0
653 2 2 8 0 1 2 8 0.00383443 1 0 0
654 2 3 8 0 1 2 8 0.0086775 1 0 0
605 2 4 7 0 1 2 5 0.0124979 1 0 0
655 2 4 8 0 1 2 5 0.0153492 1 0 0
656 1 4.89462 7.44499 0 1.01253 2 0 0.0180727 1 0.00147143 0.000681899
606 1 5.44828 6.59298 0 1.01839 2 0 0.0182588 1 0.000458811 0.000770479
607 1 6.45205 6.62319 0 1.01626 2 0 0.0223626 1 0 -5e-05
657 1 5.89302 7.52896 0 1.02523 2 0 0.0232535 1 0 -5e-05
608 1 7.49235 6.60114 0 1.01581 2 0 0.0264763 1 0.000807885 0.0013044
609 1 7.99448 7.46331 0 1.00447 2 0 0.0325932 1 0.00188216 -0.000275962
658 1 6.98852 7.4689 0 1.00499 2 0 0.0281044 1 0.000390158 -0.00839203
559 1 8.49524 6.59901 0 1.01669 2 0 0.0304327 1 0.00126026 -0.00167399
610 1 9.50512 6.59612 0 1.00382 2 0 0.0343057 1 -0.00416631 -0.000711562
661 1 9.00371 7.45879 0 1.00906 2 0 0.037027 1 0.00068193 0.000880273
612 1 10.0032 7.46142 0 1.00002 2 0 0.04135 1 0.00228233 0.00161584
611 1 10.5034 6.59581 0 1.00368 2 0 0.0380542 1 -0.000313466 0.00118225
564 1 11.5008 6.59312 0 1.01095 2 0 0.0416673 1 0.000417644 -0.00155109
613 1 11.004 7.46077 0 1.00877 2 0 0.0456119 1 -0.00638749 -0.00288277
614 1 12.4996 6.59134 0 1.01882 2 0 0.0451521 1 0.00322646 0.00226709
665 1 12.9994 7.45853 0 1.00809 2 0 0.0537813 1 0.000614494 -0.000362089
664 1 12.0017 7.45682 0 1.0022 2 0 0.0497649 1 -0.000824968 0.0035465
615 1 13.5003 6.59413 0 1.00601 2 0 0.0484947 1 -0.00852222 -0.00611805
616 1 14.4981 6.59046 0 1.00878 2 0 0.0516322 1 0.00296418 0.0102506
666 1 13.9981 7.45703 0 0.997531 2 0 0.0576091 1 0.00123907 0.00515672
667 1 14.9952 7.45707 0 1.00922 2 0 0.0612584 1 0.00727398 0.000677662
617 1 15.4968 6.59463 0 1.01132 2 0 0.0545989 1 0.00480442 -0.00410017
668 1 15.9983 7.45811 0 1.01232 2 0 0.0647251 1 -0.00227098 -0.00450547
619 1 16.4977 6.59249 0 1.00791 2 0 0.0574088 1 -0.000735387 -0.00355767
669 1 17.5009 6.58928 0 1.0115 2 0 0.0600132 1 -0.00702602 0.00453086
719 1 17.0012 7.45309 0 1.0104 2 0 0.0680062 1 0.00328613 0.00373184
720 1 18.0016 7.45374 0 1.00384 2 0 0.0710557 1 0.00121268 -0.00618077
620 1 18.4983 6.58835 0 1.00047 2 0 0.0624025 1 0.0107712 0.00373135
621 1 19.5026 6.5882 0 1.01086 2 0 0.0646235 1 -0.00271827 0.0048091
670 1 19.0018 7.45227 0 1.01205 2 0 0.0739127 1 -0.000141731 -0.00514893
671 1 20.001 7.45273 0 1.01101 2 0 0.076605 1 0.00209512 0.00300065
622 1 20.5019 6.59199 0 1.02282 2 0 0.0667063 1 -0.00201472 -0.0101033
623 1 21.5001 6.5913 0 1.01715 2 0 0.0686046 1 0.00720684 -0.00242158
672 1 21.0034 7.45388 0 1.01032 2 0 0.0790697 1 0.000314346 0.00586815
673 1 22.0063 7.45433 0 1.00705 2 0 0.081282 1 -0.0170044 0.00463754
624 1 22.5013 6.59166 0 1.00933 2 0 0.0702903 1 0.0021805 -0.00553512
674 1 23.0017 7.45432 0 1.01197 2 0 0.0833209 1 0.010318 0.00197112
625 1 23.5007 6.59027 0 1.01358 2 0 0.0718746 1 -0.000634252 0.00115167
626 1 24.4988 6.59257 0 1.01095 2 0 0.0733506 1 0.00627953 -0.00710409
675 1 24.0017 7.45443 0 1.00974 2 0 0.0852364 1 -0.0103502 0.00557506
676 1 24.997 7.45728 0 1.01754 2 0 0.0869772 1 0.0101666 0.00228401
578 1 26.4958 6.59156 0 1.0136 2 0 0.0759491 1 0.00446996 0.00963369
628 1 25.9963 7.45953 0 1.00647 2 0 0.0885628 1 -0.00128328 -0.00990769
627 1 25.497 6.59266 0 1.0116 2 0 0.0747045 1 0.00254533 0.00301636
629 1 27.4948 6.59274 0 1.00585 2 0 0.077102 1 0.00190896 -0.00358958
679 1 27.9937 7.4561 0 1.01276 2 0 0.0913936 1 0.00738258 -0.00522527
678 1 26.9951 7.4577 0 1.01987 2 0 0.0900203 1 -0.00142406 -0.000333298
630 1 28.498 6.59187 0 1.00031 2 0 0.0782213 1 -0.00404544 -4.56704e-06
631 1 29.4975 6.59144 0 1.01679 2 0 0.0791981 1 -0.00158403 0.00376011
680 1 28.9956 7.45589 0 1.0041 2 0 0.0926718 1 0.00520418 0.000771191
681 1 30.0008 7.45387 0 1.0067 2 0 0.0938195 1 -0.00388904 0.00243646
682 1 30.5014 6.59103 0 1.0233 2 0 0.0800337 1 -0.00178285 0.00160934
633 1 31.5015 6.59286 0 1.00197 2 0 0.0807684 1 -0.00158183 -0.00162931
732 1 31.0006 7.45467 0 1.02086 2 0 0.0947886 1 0.000998418 0.0073712
683 1 32.0017 7.45937 0 1.00602 2 0 0.095641 1 -0.00996318 -0.00102301
684 1 32.4998 6.59597 0 1.01173 2 0 0.0814568 1 -0.00037623 -0.0131169
734 1 33.0002 7.45691 0 1.01306 2 0 0.0964579 1 -0.00141507 0.0150464
634 1 33.4986 6.59598 0 1.00318 2 0 0.0821381 1 0.000139543 -0.00798885
635 1 34.4963 6.59455 0 1.01335 2 0 0.0827714 1 0.00635088 0.00241776
685 1 33.9989 7.46035 0 1.01182 2 0 0.097221 1 -0.00944321 -0.0042549
686 1 34.9956 7.46105 0 1.01566 2 0 0.0979358 1 0.00751933 -0.00152503
636 1 35.495 6.59688 0 1.01343 2 0 0.0832971 1 0.00154593 -0.00379135
637 1 36.4937 6.5947 0 0.995425 2 0 0.0837584 1 0.00401081 0.0059581