ITEM: TIMESTEP
36500
ITEM: NUMBER OF ATOMS
15950
ITEM: BOX BOUNDS pp pp pp
0.0000000000000000e+00 1.0000000000000000e+02
-5.0000000000000000e+00 2.0000000000000000e+02
-5.0000000000000000e-01 5.0000000000000000e-01
ITEM: ATOMS id type x y z c_rho c_phase c_nbond c_temp f_rheo_chi_chi fx fy
1 2 0 -5 0 1 2 8 1.01301e-08 1 0 0
2 2 1 -5 0 1 2 8 1.35481e-08 1 0 0
51 2 0 -4 0 1 2 8 4.76458e-08 1 0 0
52 2 1 -4 0 1 2 8 6.5135e-08 1 0 0
3 2 2 -5 0 1 2 8 2.4904e-08 1 0 0
4 2 3 -5 0 1 2 8 4.57224e-08 1 0 0
53 2 2 -4 0 1 2 8 1.23833e-07 1 0 0
54 2 3 -4 0 1 2 8 2.32396e-07 1 0 0
5 2 4 -5 0 1 2 7 7.85898e-08 1 0 0
55 2 4 -4 0 1 2 8 3.96386e-07 1 0 0
6 2 5 -5 0 1 2 6 1.27154e-07 1 0 0
7 2 6 -5 0 1 2 5 1.8102e-07 1 0 0
56 2 5 -4 0 1 2 8 6.1018e-07 1 0 0
57 2 6 -4 0 1 2 8 8.50509e-07 1 0 0
8 2 7 -5 0 1 2 5 2.31349e-07 1 0 0
9 2 8 -5 0 1 2 5 2.76102e-07 1 0 0
58 2 7 -4 0 1 2 8 1.08926e-06 1 0 0
59 2 8 -4 0 1 2 8 1.30336e-06 1 0 0
10 2 9 -5 0 1 2 5 3.12984e-07 1 0 0
60 2 9 -4 0 1 2 8 1.48011e-06 1 0 0
11 2 10 -5 0 1 2 5 3.41845e-07 1 0 0
12 2 11 -5 0 1 2 5 3.6428e-07 1 0 0
61 2 10 -4 0 1 2 8 1.61886e-06 1 0 0
62 2 11 -4 0 1 2 8 1.72737e-06 1 0 0
13 2 12 -5 0 1 2 5 3.8237e-07 1 0 0
14 2 13 -5 0 1 2 5 3.97457e-07 1 0 0
63 2 12 -4 0 1 2 8 1.81562e-06 1 0 0
64 2 13 -4 0 1 2 8 1.88977e-06 1 0 0
15 2 14 -5 0 1 2 5 4.09743e-07 1 0 0
65 2 14 -4 0 1 2 8 1.95012e-06 1 0 0
16 2 15 -5 0 1 2 5 4.18993e-07 1 0 0
17 2 16 -5 0 1 2 5 4.25503e-07 1 0 0
66 2 15 -4 0 1 2 8 1.99508e-06 1 0 0
67 2 16 -4 0 1 2 8 2.02645e-06 1 0 0
18 2 17 -5 0 1 2 5 4.3012e-07 1 0 0
19 2 18 -5 0 1 2 5 4.33312e-07 1 0 0
68 2 17 -4 0 1 2 8 2.04927e-06 1 0 0
69 2 18 -4 0 1 2 8 2.06645e-06 1 0 0
20 2 19 -5 0 1 2 5 4.34499e-07 1 0 0
70 2 19 -4 0 1 2 8 2.07491e-06 1 0 0
21 2 20 -5 0 1 2 5 4.32536e-07 1 0 0
22 2 21 -5 0 1 2 5 4.2693e-07 1 0 0
71 2 20 -4 0 1 2 8 2.06833e-06 1 0 0
72 2 21 -4 0 1 2 8 2.04361e-06 1 0 0
23 2 22 -5 0 1 2 5 4.18712e-07 1 0 0
24 2 23 -5 0 1 2 5 4.10358e-07 1 0 0
73 2 22 -4 0 1 2 8 2.00538e-06 1 0 0
74 2 23 -4 0 1 2 8 1.96566e-06 1 0 0
25 2 24 -5 0 1 2 5 4.04849e-07 1 0 0
75 2 24 -4 0 1 2 8 1.93928e-06 1 0 0
26 2 25 -5 0 1 2 5 4.04326e-07 1 0 0
27 2 26 -5 0 1 2 5 4.09064e-07 1 0 0
76 2 25 -4 0 1 2 8 1.93715e-06 1 0 0
77 2 26 -4 0 1 2 8 1.96065e-06 1 0 0
28 2 27 -5 0 1 2 5 4.17513e-07 1 0 0
29 2 28 -5 0 1 2 5 4.27415e-07 1 0 0
78 2 27 -4 0 1 2 8 2.00163e-06 1 0 0
79 2 28 -4 0 1 2 8 2.0485e-06 1 0 0
30 2 29 -5 0 1 2 5 4.36997e-07 1 0 0
80 2 29 -4 0 1 2 8 2.09284e-06 1 0 0
31 2 30 -5 0 1 2 5 4.45245e-07 1 0 0
32 2 31 -5 0 1 2 5 4.51451e-07 1 0 0
81 2 30 -4 0 1 2 8 2.1306e-06 1 0 0
82 2 31 -4 0 1 2 8 2.15908e-06 1 0 0
33 2 32 -5 0 1 2 5 4.55007e-07 1 0 0
34 2 33 -5 0 1 2 5 4.55818e-07 1 0 0
83 2 32 -4 0 1 2 8 2.17536e-06 1 0 0
84 2 33 -4 0 1 2 8 2.17873e-06 1 0 0
35 2 34 -5 0 1 2 5 4.5463e-07 1 0 0
85 2 34 -4 0 1 2 8 2.17284e-06 1 0 0
36 2 35 -5 0 1 2 5 4.52572e-07 1 0 0
37 2 36 -5 0 1 2 5 4.50253e-07 1 0 0
86 2 35 -4 0 1 2 8 2.16345e-06 1 0 0
87 2 36 -4 0 1 2 8 2.15357e-06 1 0 0
38 2 37 -5 0 1 2 5 4.47324e-07 1 0 0
39 2 38 -5 0 1 2 5 4.42915e-07 1 0 0
88 2 37 -4 0 1 2 8 2.14109e-06 1 0 0
89 2 38 -4 0 1 2 8 2.12117e-06 1 0 0
40 2 39 -5 0 1 2 5 4.3656e-07 1 0 0
90 2 39 -4 0 1 2 8 2.0909e-06 1 0 0
41 2 40 -5 0 1 2 5 4.28961e-07 1 0 0
42 2 41 -5 0 1 2 5 4.2209e-07 1 0 0
91 2 40 -4 0 1 2 8 2.05342e-06 1 0 0
92 2 41 -4 0 1 2 8 2.01863e-06 1 0 0
43 2 42 -5 0 1 2 5 4.18371e-07 1 0 0
44 2 43 -5 0 1 2 5 4.19202e-07 1 0 0
93 2 42 -4 0 1 2 8 1.9992e-06 1 0 0
94 2 43 -4 0 1 2 8 2.00283e-06 1 0 0
45 2 44 -5 0 1 2 5 4.23776e-07 1 0 0
95 2 44 -4 0 1 2 8 2.02579e-06 1 0 0
46 2 45 -5 0 1 2 5 4.29261e-07 1 0 0
47 2 46 -5 0 1 2 5 4.32519e-07 1 0 0
96 2 45 -4 0 1 2 8 2.05359e-06 1 0 0
97 2 46 -4 0 1 2 8 2.06998e-06 1 0 0
48 2 47 -5 0 1 2 5 4.32155e-07 1 0 0
49 2 48 -5 0 1 2 5 4.29319e-07 1 0 0
98 2 47 -4 0 1 2 8 2.06777e-06 1 0 0
99 2 48 -4 0 1 2 8 2.05303e-06 1 0 0
50 2 49 -5 0 1 2 5 4.26703e-07 1 0 0
100 2 49 -4 0 1 2 8 2.03975e-06 1 0 0
101 2 0 -3 0 1 2 8 2.05506e-07 1 0 0
102 2 1 -3 0 1 2 8 2.87842e-07 1 0 0
151 2 0 -2 0 1 2 8 8.05535e-07 1 0 0
152 2 1 -2 0 1 2 8 1.15841e-06 1 0 0
103 2 2 -3 0 1 2 8 5.67811e-07 1 0 0
104 2 3 -3 0 1 2 8 1.09534e-06 1 0 0
153 2 2 -2 0 1 2 8 2.37667e-06 1 0 0
154 2 3 -2 0 1 2 8 4.72433e-06 1 0 0
105 2 4 -3 0 1 2 8 1.90244e-06 1 0 0
155 2 4 -2 0 1 2 8 8.38774e-06 1 0 0
106 2 5 -3 0 1 2 8 2.95618e-06 1 0 0
107 2 6 -3 0 1 2 8 4.14925e-06 1 0 0
156 2 5 -2 0 1 2 8 1.32302e-05 1 0 0
157 2 6 -2 0 1 2 8 1.87392e-05 1 0 0
108 2 7 -3 0 1 2 8 5.3394e-06 1 0 0
109 2 8 -3 0 1 2 8 6.40622e-06 1 0 0
158 2 7 -2 0 1 2 8 2.42341e-05 1 0 0
159 2 8 -2 0 1 2 8 2.91538e-05 1 0 0
110 2 9 -3 0 1 2 8 7.28693e-06 1 0 0
160 2 9 -2 0 1 2 8 3.32187e-05 1 0 0
111 2 10 -3 0 1 2 8 7.97993e-06 1 0 0
112 2 11 -3 0 1 2 8 8.52526e-06 1 0 0
161 2 10 -2 0 1 2 8 3.64312e-05 1 0 0
162 2 11 -2 0 1 2 8 3.89797e-05 1 0 0
113 2 12 -3 0 1 2 8 8.97324e-06 1 0 0
114 2 13 -3 0 1 2 8 9.35327e-06 1 0 0
163 2 12 -2 0 1 2 8 4.10974e-05 1 0 0
164 2 13 -2 0 1 2 8 4.29134e-05 1 0 0
115 2 14 -3 0 1 2 8 9.66302e-06 1 0 0
165 2 14 -2 0 1 2 8 4.43973e-05 1 0 0
116 2 15 -3 0 1 2 8 9.89119e-06 1 0 0
117 2 16 -3 0 1 2 8 1.00485e-05 1 0 0
166 2 15 -2 0 1 2 8 4.54783e-05 1 0 0
167 2 16 -2 0 1 2 8 4.62153e-05 1 0 0
118 2 17 -3 0 1 2 8 1.01661e-05 1 0 0
119 2 18 -3 0 1 2 8 1.02623e-05 1 0 0
168 2 17 -2 0 1 2 8 4.67837e-05 1 0 0
169 2 18 -2 0 1 2 8 4.7287e-05 1 0 0
120 2 19 -3 0 1 2 8 1.032e-05 1 0 0
170 2 19 -2 0 1 2 8 4.76358e-05 1 0 0
121 2 20 -3 0 1 2 8 1.03026e-05 1 0 0
122 2 21 -3 0 1 2 8 1.01906e-05 1 0 0
171 2 20 -2 0 1 2 8 4.76367e-05 1 0 0
172 2 21 -2 0 1 2 8 4.71835e-05 1 0 0
123 2 22 -3 0 1 2 8 1.00058e-05 1 0 0
124 2 23 -3 0 1 2 8 9.80894e-06 1 0 0
173 2 22 -2 0 1 2 8 4.63701e-05 1 0 0
174 2 23 -2 0 1 2 8 4.54774e-05 1 0 0
125 2 24 -3 0 1 2 8 9.67712e-06 1 0 0
175 2 24 -2 0 1 2 8 4.48739e-05 1 0 0
126 2 25 -3 0 1 2 8 9.66871e-06 1 0 0
127 2 26 -3 0 1 2 8 9.79111e-06 1 0 0
176 2 25 -2 0 1 2 8 4.48491e-05 1 0 0
177 2 26 -2 0 1 2 8 4.54417e-05 1 0 0
128 2 27 -3 0 1 2 8 9.99919e-06 1 0 0
129 2 28 -3 0 1 2 8 1.02303e-05 1 0 0
178 2 27 -2 0 1 2 8 4.64206e-05 1 0 0
179 2 28 -2 0 1 2 8 4.74708e-05 1 0 0
130 2 29 -3 0 1 2 8 1.04428e-05 1 0 0
180 2 29 -2 0 1 2 8 4.84042e-05 1 0 0
131 2 30 -3 0 1 2 8 1.06219e-05 1 0 0
132 2 31 -3 0 1 2 8 1.0758e-05 1 0 0
181 2 30 -2 0 1 2 8 4.91821e-05 1 0 0
182 2 31 -2 0 1 2 8 4.97823e-05 1 0 0
133 2 32 -3 0 1 2 8 1.0836e-05 1 0 0
134 2 33 -3 0 1 2 8 1.08502e-05 1 0 0
183 2 32 -2 0 1 2 8 5.01301e-05 1 0 0
184 2 33 -2 0 1 2 8 5.01863e-05 1 0 0
135 2 34 -3 0 1 2 8 1.08195e-05 1 0 0
185 2 34 -2 0 1 2 8 5.00394e-05 1 0 0
136 2 35 -3 0 1 2 8 1.07749e-05 1 0 0
137 2 36 -3 0 1 2 8 1.07324e-05 1 0 0
186 2 35 -2 0 1 2 8 4.98469e-05 1 0 0
187 2 36 -2 0 1 2 8 4.9686e-05 1 0 0
138 2 37 -3 0 1 2 8 1.06792e-05 1 0 0
139 2 38 -3 0 1 2 8 1.0587e-05 1 0 0
188 2 37 -2 0 1 2 8 4.94867e-05 1 0 0
189 2 38 -2 0 1 2 8 4.91004e-05 1 0 0
140 2 39 -3 0 1 2 8 1.04379e-05 1 0 0
190 2 39 -2 0 1 2 8 4.8427e-05 1 0 0
141 2 40 -3 0 1 2 8 1.02458e-05 1 0 0
142 2 41 -3 0 1 2 8 1.00623e-05 1 0 0
191 2 40 -2 0 1 2 8 4.75215e-05 1 0 0
192 2 41 -2 0 1 2 8 4.66302e-05 1 0 0
143 2 42 -3 0 1 2 8 9.95671e-06 1 0 0
144 2 43 -3 0 1 2 8 9.97338e-06 1 0 0
193 2 42 -2 0 1 2 8 4.61011e-05 1 0 0
194 2 43 -2 0 1 2 8 4.61694e-05 1 0 0
145 2 44 -3 0 1 2 8 1.00945e-05 1 0 0
195 2 44 -2 0 1 2 8 4.6758e-05 1 0 0
146 2 45 -3 0 1 2 8 1.02422e-05 1 0 0
147 2 46 -3 0 1 2 8 1.0328e-05 1 0 0
196 2 45 -2 0 1 2 8 4.74806e-05 1 0 0
197 2 46 -2 0 1 2 8 4.78933e-05 1 0 0
148 2 47 -3 0 1 2 8 1.03133e-05 1 0 0
149 2 48 -3 0 1 2 8 1.02318e-05 1 0 0
198 2 47 -2 0 1 2 8 4.78045e-05 1 0 0
199 2 48 -2 0 1 2 8 4.73881e-05 1 0 0
150 2 49 -3 0 1 2 8 1.016e-05 1 0 0
200 2 49 -2 0 1 2 8 4.70281e-05 1 0 0
201 2 0 -1 0 1 2 8 2.84121e-06 1 0 0
202 2 1 -1 0 1 2 8 4.20166e-06 1 0 0
203 2 2 -1 0 1 2 8 8.97952e-06 1 0 0
204 2 3 -1 0 1 2 8 1.84247e-05 1 0 0
205 2 4 -1 0 1 2 8 3.34987e-05 1 0 0
206 2 5 -1 0 1 2 8 5.36986e-05 1 0 0
207 2 6 -1 0 1 2 8 7.67752e-05 1 0 0
208 2 7 -1 0 1 2 8 9.976e-05 1 0 0
209 2 8 -1 0 1 2 8 0.000120311 1 0 0
210 2 9 -1 0 1 2 8 0.000137335 1 0 0
211 2 10 -1 0 1 2 8 0.000150886 1 0 0
212 2 11 -1 0 1 2 8 0.000161752 1 0 0
213 2 12 -1 0 1 2 8 0.000170898 1 0 0
214 2 13 -1 0 1 2 8 0.000178836 1 0 0
215 2 14 -1 0 1 2 8 0.000185348 1 0 0
216 2 15 -1 0 1 2 8 0.000190051 1 0 0
217 2 16 -1 0 1 2 8 0.000193233 1 0 0
218 2 17 -1 0 1 2 8 0.000195774 1 0 0
219 2 18 -1 0 1 2 8 0.000198192 1 0 0
220 2 19 -1 0 1 2 8 0.000200057 1 0 0
221 2 20 -1 0 1 2 8 0.000200456 1 0 0
222 2 21 -1 0 1 2 8 0.00019889 1 0 0
223 2 22 -1 0 1 2 8 0.000195732 1 0 0
224 2 23 -1 0 1 2 8 0.000192136 1 0 0
225 2 24 -1 0 1 2 8 0.000189675 1 0 0
226 2 25 -1 0 1 2 8 0.000189654 1 0 0
227 2 26 -1 0 1 2 8 0.000192267 1 0 0
228 2 27 -1 0 1 2 8 0.000196446 1 0 0
229 2 28 -1 0 1 2 8 0.00020075 1 0 0
230 2 29 -1 0 1 2 8 0.000204417 1 0 0
231 2 30 -1 0 1 2 8 0.00020744 1 0 0
232 2 31 -1 0 1 2 8 0.000209833 1 0 0
233 2 32 -1 0 1 2 8 0.000211255 1 0 0
234 2 33 -1 0 1 2 8 0.000211467 1 0 0
235 2 34 -1 0 1 2 8 0.000210845 1 0 0
236 2 35 -1 0 1 2 8 0.00021011 1 0 0
237 2 36 -1 0 1 2 8 0.000209605 1 0 0
238 2 37 -1 0 1 2 8 0.000208986 1 0 0
239 2 38 -1 0 1 2 8 0.000207561 1 0 0
240 2 39 -1 0 1 2 8 0.000204843 1 0 0
241 2 40 -1 0 1 2 8 0.000201012 1 0 0
242 2 41 -1 0 1 2 8 0.000197117 1 0 0
243 2 42 -1 0 1 2 8 0.000194729 1 0 0
244 2 43 -1 0 1 2 8 0.000194968 1 0 0
245 2 44 -1 0 1 2 8 0.000197542 1 0 0
246 2 45 -1 0 1 2 8 0.000200722 1 0 0
247 2 46 -1 0 1 2 8 0.000202497 1 0 0
248 2 47 -1 0 1 2 8 0.000202021 1 0 0
249 2 48 -1 0 1 2 8 0.000200101 1 0 0
250 2 49 -1 0 1 2 8 0.000198469 1 0 0
251 2 0 0 0 1 2 8 8.92448e-06 1 0 0
252 2 1 0 0 1 2 8 1.35796e-05 1 0 0
301 2 0 1 0 1 2 8 2.47183e-05 1 0 0
302 2 1 1 0 1 2 8 3.86593e-05 1 0 0
253 2 2 0 0 1 2 8 3.02329e-05 1 0 0
254 2 3 0 0 1 2 8 6.40885e-05 1 0 0
303 2 2 1 0 1 2 8 8.94354e-05 1 0 0
304 2 3 1 0 1 2 8 0.000195621 1 0 0
255 2 4 0 0 1 2 8 0.000119502 1 0 0
305 2 4 1 0 1 2 8 0.000374278 1 0 0
256 2 5 0 0 1 2 8 0.000194886 1 0 0
257 2 6 0 0 1 2 8 0.000281248 1 0 0
306 2 5 1 0 1 2 8 0.000621517 1 0 0
307 2 6 1 0 1 2 8 0.000904791 1 0 0
258 2 7 0 0 1 2 8 0.000366956 1 0 0
259 2 8 0 0 1 2 8 0.000443477 1 0 0
308 2 7 1 0 1 2 8 0.00118368 1 0 0
309 2 8 1 0 1 2 8 0.00143232 1 0 0
260 2 9 0 0 1 2 8 0.00050718 1 0 0
310 2 9 1 0 1 2 8 0.00164118 1 0 0
261 2 10 0 0 1 2 8 0.000558454 1 0 0
262 2 11 0 0 1 2 8 0.00060015 1 0 0
311 2 10 1 0 1 2 8 0.00181202 1 0 0
312 2 11 1 0 1 2 8 0.00195349 1 0 0
263 2 12 0 0 1 2 8 0.000635742 1 0 0
264 2 13 0 0 1 2 8 0.000667036 1 0 0
313 2 12 1 0 1 2 8 0.00207612 1 0 0
314 2 13 1 0 1 2 8 0.00218542 1 0 0
265 2 14 0 0 1 2 8 0.000692882 1 0 0
315 2 14 1 0 1 2 8 0.00227665 1 0 0
266 2 15 0 0 1 2 8 0.000711478 1 0 0
267 2 16 0 0 1 2 8 0.000724065 1 0 0
316 2 15 1 0 1 2 8 0.00234266 1 0 0
317 2 16 1 0 1 2 8 0.00238798 1 0 0
268 2 17 0 0 1 2 8 0.000734515 1 0 0
269 2 18 0 0 1 2 8 0.000745059 1 0 0
318 2 17 1 0 1 2 8 0.00242717 1 0 0
319 2 18 1 0 1 2 8 0.00246831 1 0 0
270 2 19 0 0 1 2 8 0.000753835 1 0 0
320 2 19 1 0 1 2 8 0.00250426 1 0 0
271 2 20 0 0 1 2 8 0.000757063 1 0 0
272 2 21 0 0 1 2 8 0.000752777 1 0 0
321 2 20 1 0 1 2 8 0.00252165 1 0 0
322 2 21 1 0 1 2 8 0.00251429 1 0 0
273 2 22 0 0 1 2 8 0.000742327 1 0 0
274 2 23 0 0 1 2 8 0.000729831 1 0 0
323 2 22 1 0 1 2 8 0.00248671 1 0 0
324 2 23 1 0 1 2 8 0.00245108 1 0 0
275 2 24 0 0 1 2 8 0.000721153 1 0 0
325 2 24 1 0 1 2 8 0.00242587 1 0 0
276 2 25 0 0 1 2 8 0.000721526 1 0 0
277 2 26 0 0 1 2 8 0.000731868 1 0 0
326 2 25 1 0 1 2 8 0.00242935 1 0 0
327 2 26 1 0 1 2 8 0.00246538 1 0 0
278 2 27 0 0 1 2 8 0.000747808 1 0 0
279 2 28 0 0 1 2 8 0.000763474 1 0 0
328 2 27 1 0 1 2 8 0.00251868 1 0 0
329 2 28 1 0 1 2 8 0.00256837 1 0 0
280 2 29 0 0 1 2 8 0.000776136 1 0 0
330 2 29 1 0 1 2 8 0.00260604 1 0 0
281 2 30 0 0 1 2 8 0.000786469 1 0 0
282 2 31 0 0 1 2 8 0.000795 1 0 0
331 2 30 1 0 1 2 8 0.00263658 1 0 0
332 2 31 1 0 1 2 8 0.00266344 1 0 0
283 2 32 0 0 1 2 8 0.00080029 1 0 0
284 2 33 0 0 1 2 8 0.000801091 1 0 0
333 2 32 1 0 1 2 8 0.00268121 1 0 0
334 2 33 1 0 1 2 8 0.00268435 1 0 0
285 2 34 0 0 1 2 8 0.000798809 1 0 0
335 2 34 1 0 1 2 8 0.00267742 1 0 0
286 2 35 0 0 1 2 8 0.000796413 1 0 0
287 2 36 0 0 1 2 8 0.000795241 1 0 0
336 2 35 1 0 1 2 8 0.00267113 1 0 0
337 2 36 1 0 1 2 8 0.00267 1 0 0
288 2 37 0 0 1 2 8 0.000793809 1 0 0
289 2 38 0 0 1 2 8 0.000789305 1 0 0
338 2 37 1 0 1 2 8 0.0026684 1 0 0
339 2 38 1 0 1 2 8 0.00265672 1 0 0
290 2 39 0 0 1 2 8 0.000779714 1 0 0
340 2 39 1 0 1 2 8 0.00262807 1 0 0
291 2 40 0 0 1 2 8 0.000765476 1 0 0
292 2 41 0 0 1 2 8 0.000750468 1 0 0
341 2 40 1 0 1 2 8 0.00258297 1 0 0
342 2 41 1 0 1 2 8 0.0025334 1 0 0
293 2 42 0 0 1 2 8 0.000740948 1 0 0
294 2 43 0 0 1 2 8 0.000741627 1 0 0
343 2 42 1 0 1 2 8 0.0025008 1 0 0
344 2 43 1 0 1 2 8 0.00250221 1 0 0
295 2 44 0 0 1 2 8 0.000751561 1 0 0
345 2 44 1 0 1 2 8 0.00253514 1 0 0
296 2 45 0 0 1 2 8 0.000763887 1 0 0
297 2 46 0 0 1 2 8 0.000770574 1 0 0
346 2 45 1 0 1 2 8 0.0025761 1 0 0
347 2 46 1 0 1 2 8 0.00259745 1 0 0
298 2 47 0 0 1 2 8 0.000768341 1 0 0
299 2 48 0 0 1 2 8 0.000760507 1 0 0
348 2 47 1 0 1 2 8 0.00258847 1 0 0
349 2 48 1 0 1 2 8 0.002561 1 0 0
300 2 49 0 0 1 2 8 0.00075396 1 0 0
350 2 49 1 0 1 2 8 0.00253838 1 0 0
351 2 0 2 0 1 2 8 5.98895e-05 1 0 0
352 2 1 2 0 1 2 8 9.59969e-05 1 0 0
401 2 0 3 0 1 2 8 0.000126403 1 0 0
402 2 1 3 0 1 2 8 0.000206822 1 0 0
353 2 2 2 0 1 2 8 0.000229329 1 0 0
354 2 3 2 0 1 2 8 0.00051445 1 0 0
403 2 2 3 0 1 2 8 0.00050538 1 0 0
404 2 3 3 0 1 2 8 0.0011472 1 0 0
355 2 4 2 0 1 2 8 0.00100743 1 0 0
405 2 4 3 0 1 2 8 0.00226739 1 0 0
356 2 5 2 0 1 2 8 0.00170433 1 0 0
357 2 6 2 0 1 2 8 0.00249808 1 0 0
406 2 5 3 0 1 2 8 0.00391765 1 0 0
407 2 6 3 0 1 2 8 0.00576772 1 0 0
358 2 7 2 0 1 2 8 0.00326643 1 0 0
359 2 8 2 0 1 2 8 0.00395117 1 0 0
408 2 7 3 0 1 2 8 0.00747851 1 0 0
409 2 8 3 0 1 2 8 0.00901592 1 0 0
360 2 9 2 0 1 2 8 0.0045354 1 0 0
410 2 9 3 0 1 2 8 0.0103643 1 0 0
361 2 10 2 0 1 2 8 0.00502424 1 0 0
362 2 11 2 0 1 2 8 0.00543855 1 0 0
411 2 10 3 0 1 2 8 0.0115256 1 0 0
412 2 11 3 0 1 2 8 0.0125404 1 0 0
363 2 12 2 0 1 2 8 0.00580379 1 0 0
364 2 13 2 0 1 2 8 0.00613388 1 0 0
413 2 12 3 0 1 2 8 0.0134532 1 0 0
414 2 13 3 0 1 2 8 0.0142884 1 0 0
365 2 14 2 0 1 2 8 0.00641381 1 0 0
415 2 14 3 0 1 2 8 0.0150147 1 0 0
366 2 15 2 0 1 2 8 0.00662053 1 0 0
367 2 16 2 0 1 2 8 0.00676759 1 0 0
416 2 15 3 0 1 2 8 0.0155735 1 0 0
417 2 16 3 0 1 2 8 0.015996 1 0 0
368 2 17 2 0 1 2 8 0.00689979 1 0 0
369 2 18 2 0 1 2 8 0.00704058 1 0 0
418 2 17 3 0 1 2 8 0.0163892 1 0 0
419 2 18 3 0 1 2 8 0.0168031 1 0 0
370 2 19 2 0 1 2 8 0.0071666 1 0 0
420 2 19 3 0 1 2 8 0.017175 1 0 0
371 2 20 2 0 1 2 8 0.00723889 1 0 0
372 2 21 2 0 1 2 8 0.00724361 1 0 0
421 2 20 3 0 1 2 8 0.0174147 1 0 0
422 2 21 3 0 1 2 8 0.0175091 1 0 0
373 2 22 2 0 1 2 8 0.00719477 1 0 0
374 2 23 2 0 1 2 8 0.00711992 1 0 0
423 2 22 3 0 1 2 8 0.0175005 1 0 0
424 2 23 3 0 1 2 8 0.0174234 1 0 0
375 2 24 2 0 1 2 8 0.00706557 1 0 0
425 2 24 3 0 1 2 8 0.0173632 1 0 0
376 2 25 2 0 1 2 8 0.00708546 1 0 0
377 2 26 2 0 1 2 8 0.00719327 1 0 0
426 2 25 3 0 1 2 8 0.0174509 1 0 0
427 2 26 3 0 1 2 8 0.0177184 1 0 0
378 2 27 2 0 1 2 8 0.00734545 1 0 0
379 2 28 2 0 1 2 8 0.00747972 1 0 0
428 2 27 3 0 1 2 8 0.0180808 1 0 0
429 2 28 3 0 1 2 8 0.0183844 1 0 0
380 2 29 2 0 1 2 8 0.00757429 1 0 0
430 2 29 3 0 1 2 8 0.0185812 1 0 0
381 2 30 2 0 1 2 8 0.00765129 1 0 0
382 2 31 2 0 1 2 8 0.00772523 1 0 0
431 2 30 3 0 1 2 8 0.0187488 1 0 0
432 2 31 3 0 1 2 8 0.0189268 1 0 0
383 2 32 2 0 1 2 8 0.00777853 1 0 0
384 2 33 2 0 1 2 8 0.00779104 1 0 0
433 2 32 3 0 1 2 8 0.0190692 1 0 0
434 2 33 3 0 1 2 8 0.0191167 1 0 0
385 2 34 2 0 1 2 8 0.00777497 1 0 0
435 2 34 3 0 1 2 8 0.0190926 1 0 0
386 2 35 2 0 1 2 8 0.00776361 1 0 0
387 2 36 2 0 1 2 8 0.00776944 1 0 0
436 2 35 3 0 1 2 8 0.0190885 1 0 0
437 2 36 3 0 1 2 8 0.0191308 1 0 0
388 2 37 2 0 1 2 8 0.00777423 1 0 0
389 2 38 2 0 1 2 8 0.00775124 1 0 0
438 2 37 3 0 1 2 8 0.0191662 1 0 0
439 2 38 3 0 1 2 8 0.0191387 1 0 0
390 2 39 2 0 1 2 8 0.00768251 1 0 0
440 2 39 3 0 1 2 8 0.0190206 1 0 0
391 2 40 2 0 1 2 8 0.00756659 1 0 0
392 2 41 2 0 1 2 8 0.0074321 1 0 0
441 2 40 3 0 1 2 8 0.0188024 1 0 0
442 2 41 3 0 1 2 8 0.0185204 1 0 0
393 2 42 2 0 1 2 8 0.00734015 1 0 0
394 2 43 2 0 1 2 8 0.00734171 1 0 0
443 2 42 3 0 1 2 8 0.0183204 1 0 0
444 2 43 3 0 1 2 8 0.0183202 1 0 0
395 2 44 2 0 1 2 8 0.00743187 1 0 0
445 2 44 3 0 1 2 8 0.0185144 1 0 0
396 2 45 2 0 1 2 8 0.00754404 1 0 0
397 2 46 2 0 1 2 8 0.0075991 1 0 0
446 2 45 3 0 1 2 8 0.0187564 1 0 0
447 2 46 3 0 1 2 8 0.0188631 1 0 0
398 2 47 2 0 1 2 8 0.00756933 1 0 0
399 2 48 2 0 1 2 8 0.00749001 1 0 0
448 2 47 3 0 1 2 8 0.0187852 1 0 0
449 2 48 3 0 1 2 8 0.0186106 1 0 0
400 2 49 2 0 1 2 8 0.00742553 1 0 0
450 2 49 3 0 1 2 8 0.0184657 1 0 0
451 2 0 4 0 1 2 8 0.000232703 1 0 0
452 2 1 4 0 1 2 8 0.000387155 1 0 0
453 2 2 4 0 1 2 8 0.000959958 1 0 0
454 2 3 4 0 1 2 8 0.00216857 1 0 0
455 2 4 4 0 1 2 7 0.00414227 1 0 0
456 2 5 4 0 1 2 6 0.00732283 1 0 0
457 2 6 4 0 1 2 5 0.0105692 1 0 0
506 1 5.48229 4.87419 0 1.0006 2 0 0.0124822 1 0.00175313 -0.00266913
507 1 6.49001 4.87072 0 1.02569 2 0 0.0155488 1 -0.00124857 -0.00242333
458 2 7 4 0 1 2 5 0.0133608 1 0 0
459 2 8 4 0 1 2 5 0.0159765 1 0 0
508 1 7.49245 4.86866 0 1.03193 2 0 0.0185971 1 -0.00214244 -0.00381474
460 2 9 4 0 1 2 5 0.0183547 1 0 0
510 1 8.49351 4.86572 0 1.01036 2 0 0.0215427 1 0.00188764 0.00329557
511 1 9.4959 4.86424 0 1.00136 2 0 0.0242852 1 0.00188962 0.00326017
461 2 10 4 0 1 2 5 0.0204794 1 0 0
462 2 11 4 0 1 2 5 0.0224181 1 0 0
512 1 10.4983 4.86517 0 1.01573 2 0 0.0268964 1 -0.00162857 -0.00231317
513 1 11.4978 4.86415 0 1.01534 2 0 0.0293809 1 -4.04632e-05 -0.00100575
463 2 12 4 0 1 2 5 0.0242048 1 0 0
464 2 13 4 0 1 2 5 0.0258522 1 0 0
514 1 12.4975 4.86279 0 1.01802 2 0 0.0317001 1 -8.98995e-05 0.00350662
465 2 14 4 0 1 2 5 0.0273323 1 0 0
515 1 13.497 4.86483 0 1.02031 2 0 0.0338602 1 0.00522819 -0.00420364
516 1 14.5007 4.86376 0 1.0096 2 0 0.0358327 1 -0.00202007 0.00365144
466 2 15 4 0 1 2 5 0.028552 1 0 0
467 2 16 4 0 1 2 5 0.0295542 1 0 0
518 1 16.5003 4.86419 0 1.02515 2 0 0.0392477 1 -0.00281386 0.00110207
517 1 15.5007 4.86428 0 1.02614 2 0 0.0376051 1 -0.00298958 -0.000581451
468 2 17 4 0 1 2 5 0.0305057 1 0 0
469 2 18 4 0 1 2 5 0.0314614 1 0 0
519 1 17.4998 4.86418 0 1.0239 2 0 0.0407838 1 0.00197698 -0.00129677
470 2 19 4 0 1 2 5 0.0323132 1 0 0
520 1 18.5009 4.86302 0 1.00577 2 0 0.0421866 1 -0.00269271 0.00335034
521 1 19.5001 4.86433 0 1.00453 2 0 0.0434072 1 0.000734325 -0.00614035
471 2 20 4 0 1 2 5 0.0329252 1 0 0
472 2 21 4 0 1 2 5 0.0333201 1 0 0
523 1 21.4998 4.8645 0 1.02268 2 0 0.0453679 1 0.00321441 -0.00836336
522 1 20.5003 4.86327 0 1.0139 2 0 0.0444419 1 -0.000818948 0.00011456
473 2 22 4 0 1 2 5 0.0335988 1 0 0
474 2 23 4 0 1 2 5 0.0337452 1 0 0
524 1 22.501 4.86373 0 1.01383 2 0 0.0461953 1 -0.0020467 0.000982724
475 2 24 4 0 1 2 5 0.0338531 1 0 0
525 1 23.4998 4.86287 0 1.03669 2 0 0.046914 1 0.0021833 0.00610184
526 1 24.4994 4.86481 0 1.04245 2 0 0.0476114 1 0.00221735 -0.00553356
476 2 25 4 0 1 2 5 0.0341459 1 0 0
477 2 26 4 0 1 2 5 0.0346604 1 0 0
528 1 26.4994 4.86329 0 1.04147 2 0 0.0491051 1 -0.000902253 0.00172338
527 1 25.4999 4.86335 0 1.03798 2 0 0.0483457 1 -0.000282518 0.00460699
478 2 27 4 0 1 2 5 0.0353152 1 0 0
479 2 28 4 0 1 2 5 0.0358503 1 0 0
529 1 27.4981 4.86455 0 1.0019 2 0 0.0498208 1 0.00488431 -0.00568307
480 2 29 4 0 1 2 5 0.0361994 1 0 0
531 1 29.4991 4.86286 0 1.01679 2 0 0.0510193 1 1.95664e-05 0.0023561
530 1 28.4983 4.8622 0 1.02091 2 0 0.0504575 1 0.00136169 0.00395516
481 2 30 4 0 1 2 5 0.0365215 1 0 0
482 2 31 4 0 1 2 5 0.0368772 1 0 0
533 1 31.4995 4.86342 0 1.004 2 0 0.0520276 1 -0.000470113 0.00319627
532 1 30.4997 4.86237 0 1.0182 2 0 0.0515405 1 4.18632e-05 0.00656736
483 2 32 4 0 1 2 5 0.0371888 1 0 0
484 2 33 4 0 1 2 5 0.0373396 1 0 0
534 1 32.4991 4.86329 0 1.00171 2 0 0.0524319 1 0.00392951 0.00341974
485 2 34 4 0 1 2 5 0.0373475 1 0 0
535 1 33.5005 4.86382 0 1.00275 2 0 0.0527099 1 -0.000267951 -0.00562599
536 1 34.5003 4.86298 0 1.0237 2 0 0.0529258 1 -0.00692222 -0.00142456
486 2 35 4 0 1 2 5 0.0374055 1 0 0
487 2 36 4 0 1 2 5 0.0375518 1 0 0
538 1 36.4992 4.86032 0 1.01227 2 0 0.0534333 1 -0.00377679 0.0060166
537 1 35.4972 4.86192 0 1.0067 2 0 0.0531824 1 0.00972414 0.000488163
488 2 37 4 0 1 2 5 0.0376685 1 0 0
489 2 38 4 0 1 2 5 0.037679 1 0 0
539 1 37.4976 4.86172 0 1.00174 2 0 0.0536068 1 0.00524547 0.00213917
490 2 39 4 0 1 2 5 0.0375796 1 0 0
541 1 39.4988 4.86315 0 1.00168 2 0 0.0537255 1 -0.00353466 7.4332e-05
540 1 38.4977 4.86205 0 1.01715 2 0 0.0537074 1 0.00392937 0.00220896
491 2 40 4 0 1 2 5 0.0373479 1 0 0
492 2 41 4 0 1 2 5 0.0369714 1 0 0
542 1 40.4968 4.86598 0 1.01016 2 0 0.0536793 1 0.00605602 -0.00341211
543 1 41.4992 4.86776 0 1.03252 2 0 0.0536378 1 -0.000164791 -0.00722775
493 2 42 4 0 1 2 5 0.0367027 1 0 0
494 2 43 4 0 1 2 5 0.0367172 1 0 0
544 1 42.4991 4.86925 0 1.0319 2 0 0.0536973 1 0.0021864 -0.00616178
495 2 44 4 0 1 2 5 0.0370048 1 0 0
545 1 43.5007 4.86743 0 1.03659 2 0 0.0538407 1 -0.0001664 -0.00561743
546 1 44.5014 4.8665 0 1.01001 2 0 0.0540261 1 0.00148114 -0.00916408
496 2 45 4 0 1 2 5 0.0373626 1 0 0
497 2 46 4 0 1 2 5 0.0375024 1 0 0
548 1 46.5058 4.86223 0 1.00807 2 0 0.0543152 1 -0.0040632 0.00252098
547 1 45.5035 4.86434 0 1.00173 2 0 0.0542118 1 -0.00374557 -0.00600354
498 2 47 4 0 1 2 5 0.037379 1 0 0
499 2 48 4 0 1 2 5 0.0371434 1 0 0
549 1 47.5058 4.86101 0 1.02093 2 0 0.054322 1 -0.00834404 0.00571196
500 2 49 4 0 1 2 5 0.0369486 1 0 0
550 1 48.5043 4.85911 0 1.02225 2 0 0.0543584 1 0.00231642 0.0095277
8501 1 49.5042 4.86025 0 1.06187 2 0 0.0544549 1 -0.00463576 0.00605174
501 2 0 5 0 1 2 8 0.000376785 1 0 0
502 2 1 5 0 1 2 8 0.000635156 1 0 0
551 2 0 6 0 1 2 8 0.00054521 1 0 0
552 2 1 6 0 1 2 8 0.000928382 1 0 0
503 2 2 5 0 1 2 8 0.00158949 1 0 0
504 2 3 5 0 1 2 8 0.00357959 1 0 0
553 2 2 6 0 1 2 8 0.00233343 1 0 0
554 2 3 6 0 1 2 8 0.00522255 1 0 0
505 2 4 5 0 1 2 6 0.00674355 1 0 0
555 2 4 6 0 1 2 5 0.00953461 1 0 0
556 1 4.96453 5.72782 0 1.02426 2 0 0.0133862 1 -0.00424644 0.00265021
557 1 5.96301 5.74935 0 1.00456 2 0 0.0172545 1 0.00374616 0.00215968
558 1 6.96431 5.74861 0 1.00032 2 0 0.0207061 1 -0.000592066 -0.000586091
509 1 7.98466 5.73493 0 1.00999 2 0 0.0242033 1 0.00230948 0.00406509
560 1 8.99253 5.73044 0 1.01571 2 0 0.0275385 1 0.0015979 0.00271884
561 1 9.99495 5.7289 0 1.04128 2 0 0.0307684 1 0.00235399 -0.0020334
562 1 10.997 5.729 0 1.02468 2 0 0.0338791 1 -0.00257482 5.29548e-05
563 1 11.9963 5.72738 0 1.00884 2 0 0.0368276 1 0.00169529 0.00168574
565 1 12.9959 5.72634 0 1.01555 2 0 0.0396447 1 0.00191561 0.00795637
566 1 13.9984 5.72823 0 1.01485 2 0 0.0422952 1 0.00163566 -0.000966439
567 1 14.9997 5.72854 0 1.00349 2 0 0.0447521 1 -0.00702044 -0.00106114
568 1 15.9973 5.7296 0 1.02492 2 0 0.0470689 1 0.00497474 -0.00393202
569 1 18.0013 5.72747 0 1.01386 2 0 0.0511866 1 -0.000167535 -0.00410336
618 1 16.9998 5.72756 0 1.00786 2 0 0.0492199 1 -0.00199372 0.000823964
570 1 19.0005 5.72735 0 1.00562 2 0 0.0529643 1 0.0012964 -0.00166382
571 1 19.9999 5.72618 0 1.00943 2 0 0.0545815 1 0.0055151 -0.000966458
572 1 21.0016 5.72604 0 1.02492 2 0 0.0560958 1 -0.00184366 0.00343638
573 1 22.0007 5.72692 0 1.00977 2 0 0.057475 1 0.00352902 -0.000401063
574 1 23.0014 5.72833 0 1.00488 2 0 0.0587299 1 -0.000850177 -0.004343
575 1 24.0003 5.72786 0 1.01237 2 0 0.0599088 1 -0.00167648 -0.000322969
576 1 25 5.72789 0 1.01087 2 0 0.0609945 1 0.00083543 -1.06329e-05
577 1 26.0009 5.72807 0 1.01133 2 0 0.0620054 1 -0.00571244 -0.000162155
579 1 26.9989 5.72744 0 1.01129 2 0 0.0629247 1 0.000643544 0.00098669
580 1 27.9996 5.72664 0 1.02117 2 0 0.0638056 1 -0.00402115 -0.000507125
581 1 28.9975 5.72604 0 1.01861 2 0 0.0646194 1 0.00452849 -0.00125182
632 1 29.9986 5.72632 0 1.0167 2 0 0.065302 1 0.001576 -0.00025413
582 1 30.9986 5.72758 0 1.0143 2 0 0.0659339 1 0.00104101 -0.00175413
583 1 32.0003 5.72727 0 1.0088 2 0 0.0665058 1 0.00122266 -0.000701709
584 1 33.0028 5.7268 0 1.00514 2 0 0.067016 1 -0.00734774 -0.0034068
585 1 34.0007 5.72599 0 1.02197 2 0 0.0674925 1 0.00445355 -0.00125779
586 1 35.0001 5.7254 0 1.02669 2 0 0.0679047 1 -0.00420561 -0.000246605
587 1 35.9987 5.72338 0 1.01702 2 0 0.068285 1 -0.00281402 0.00554751
588 1 36.9962 5.72343 0 1.01798 2 0 0.0685919 1 0.00750673 0.00612042
589 1 37.9979 5.72401 0 1.01656 2 0 0.0688241 1 -0.000925206 0.00590487
590 1 38.9973 5.72602 0 1.01208 2 0 0.0689996 1 -0.00425524 -0.00175561
591 1 39.9945 5.7283 0 1.01334 2 0 0.0691691 1 0.0083112 -0.00322321
592 1 40.9971 5.7301 0 1.02633 2 0 0.0694215 1 -0.00066925 -0.0080756
594 1 43.0021 5.73253 0 1.01497 2 0 0.0697676 1 -0.00274423 -0.0141773
593 1 41.9986 5.73188 0 1.02837 2 0 0.069633 1 -0.00111595 -0.00436444
595 1 44.0038 5.7297 0 1.01694 2 0 0.0698287 1 -0.00256236 -0.00350469
596 1 45.0054 5.72801 0 1.01116 2 0 0.0699237 1 -0.00160784 -0.000206416
597 1 46.0062 5.72463 0 1.01212 2 0 0.070114 1 -0.00142857 0.00217214
598 1 47.008 5.72507 0 1.00861 2 0 0.0702955 1 -0.00276149 -0.00639165
599 1 48.0094 5.72205 0 1.02545 2 0 0.070477 1 -0.00822088 0.00537128
600 1 49.0076 5.72189 0 1.00476 2 0 0.0706905 1 -0.00313338 0.00693593
10701 1 49.8416 45.4953 0 1.00464 0 0 0.487419 1 9.76958e-05 8.19765e-05
601 2 0 7 0 1 2 8 0.000719726 1 0 0
602 2 1 7 0 1 2 8 0.00123631 1 0 0
651 2 0 8 0 1 2 8 0.000883789 1 0 0
652 2 1 8 0 1 2 8 0.00153126 1 0 0
603 2 2 7 0 1 2 8 0.00311957 1 0 0
604 2 3 7 0 1 2 8 0.00696961 1 0 0
653 2 2 8 0 1 2 8 0.00388345 1 0 0
654 2 3 8 0 1 2 8 0.00871475 1 0 0
605 2 4 7 0 1 2 5 0.0124821 1 0 0
655 2 4 8 0 1 2 5 0.0153231 1 0 0
656 1 4.89189 7.47267 0 1.01253 2 0 0.0180856 1 0 -5e-05
606 1 5.44467 6.60669 0 1.01839 2 0 0.0182591 1 0 -5e-05
607 1 6.46047 6.6165 0 1.01626 2 0 0.0223196 1 -0.00269287 -0.00437905
657 1 5.89312 7.51332 0 1.02523 2 0 0.0231812 1 0 -5e-05
608 1 7.48304 6.60053 0 1.01581 2 0 0.0263669 1 0.00254077 -0.00205948
609 1 7.98511 7.46314 0 1.00447 2 0 0.0323992 1 -0.00117863 -0.000508255
658 1 6.98411 7.46511 0 1.00499 2 0 0.0279856 1 0.00066254 0.00695049
559 1 8.48652 6.59841 0 1.01669 2 0 0.030277 1 -0.00268726 -0.00594839
610 1 9.49728 6.59389 0 1.00382 2 0 0.0340962 1 -0.00612349 -0.00657041
661 1 8.99525 7.45436 0 1.00906 2 0 0.0367713 1 0.00268914 0.0100517
612 1 9.9952 7.45872 0 1.00002 2 0 0.0410448 1 -0.00193983 -0.000696872
611 1 10.4944 6.594 0 1.00368 2 0 0.0378065 1 0.00574758 -0.00541235
564 1 11.4955 6.59226 0 1.01095 2 0 0.0413862 1 0.000104693 0.00207684
613 1 10.9939 7.45728 0 1.00877 2 0 0.0452611 1 0.00461018 0.00357835
614 1 12.4964 6.59077 0 1.01882 2 0 0.0448441 1 -0.00132136 0.00335488
665 1 12.9934 7.45638 0 1.00809 2 0 0.0533589 1 0.00105256 -0.00211993
664 1 11.9945 7.45598 0 1.0022 2 0 0.0493749 1 -0.000272471 0.00338985
615 1 13.4977 6.59235 0 1.00601 2 0 0.0481644 1 -0.00585942 -0.00579679
616 1 14.4979 6.59332 0 1.00878 2 0 0.0512852 1 -0.00648781 -0.00710984
666 1 13.9934 7.45552 0 0.997531 2 0 0.0571611 1 0.00117537 0.0057058
667 1 14.9934 7.45705 0 1.00922 2 0 0.0608002 1 0.00053724 -0.000336176
617 1 15.4958 6.59336 0 1.01132 2 0 0.0542515 1 0.00206397 -0.00205962
668 1 15.9964 7.45375 0 1.01232 2 0 0.0642727 1 -0.000153266 0.00550697
619 1 16.498 6.59131 0 1.00791 2 0 0.0570602 1 0.00267248 0.000288339
669 1 17.5009 6.5892 0 1.0115 2 0 0.0596723 1 -7.33221e-05 0.00412274
719 1 17.0016 7.45302 0 1.0104 2 0 0.0675494 1 -0.00185762 -0.000985039
720 1 18.0031 7.45154 0 1.00384 2 0 0.0706155 1 -0.00150551 0.00429197
620 1 18.5026 6.59048 0 1.00047 2 0 0.0620789 1 0.000127481 -0.00339753
621 1 19.5044 6.58895 0 1.01086 2 0 0.0643072 1 -0.00481863 0.00394463
670 1 19.0049 7.45182 0 1.01205 2 0 0.0734841 1 0.00158678 -0.00262909
671 1 20.0048 7.45287 0 1.01101 2 0 0.0761839 1 -0.000399531 -0.00467541
622 1 20.5029 6.58857 0 1.02282 2 0 0.0664085 1 0.00098313 0.00217543
623 1 21.5025 6.59011 0 1.01715 2 0 0.0683244 1 -0.00165856 -0.00133135
672 1 21.0035 7.45236 0 1.01032 2 0 0.0786583 1 0.000942009 0.00181377
673 1 22.0032 7.45401 0 1.00705 2 0 0.0808865 1 5.35256e-05 -0.00116074
624 1 22.5012 6.59058 0 1.00933 2 0 0.070029 1 0.00389095 0.00193054
674 1 23.0021 7.45539 0 1.01197 2 0 0.082938 1 0.00197413 -0.000873974
625 1 23.5011 6.59263 0 1.01358 2 0 0.0716279 1 -0.0019143 -0.00301741
626 1 24.4992 6.59181 0 1.01095 2 0 0.0731151 1 0.00554516 0.0013856
675 1 24.0011 7.45688 0 1.00974 2 0 0.0848599 1 0.000337684 -0.00149154
676 1 24.9998 7.45614 0 1.01754 2 0 0.0866027 1 0.00309763 0.000113028
578 1 26.5001 6.59277 0 1.0136 2 0 0.0757248 1 -0.00160375 -0.00622147
628 1 26.0005 7.45528 0 1.00647 2 0 0.0881932 1 -0.00513759 0.00424509
627 1 25.4991 6.59196 0 1.0116 2 0 0.0744767 1 0.00144662 -0.000875782
629 1 27.4989 6.58975 0 1.00585 2 0 0.0768979 1 -0.00152752 0.00278945
679 1 27.9975 7.45222 0 1.01276 2 0 0.0910438 1 -0.000448987 0.006612
678 1 26.999 7.45592 0 1.01987 2 0 0.0896658 1 -0.00120761 -0.00251106
630 1 28.4985 6.5902 0 1.00031 2 0 0.078015 1 -0.000744355 -0.00269634
631 1 29.4975 6.58918 0 1.01679 2 0 0.0789907 1 0.000490981 -0.000346185
680 1 28.997 7.45318 0 1.0041 2 0 0.0923122 1 -0.0026036 -0.00262104
681 1 29.9957 7.4524 0 1.0067 2 0 0.0934556 1 0.00236591 0.00175486
682 1 30.4979 6.59078 0 1.0233 2 0 0.0798171 1 -0.000105316 -0.00207681
633 1 31.5017 6.59036 0 1.00197 2 0 0.0805573 1 -0.00131095 0.00376768
732 1 30.9993 7.45329 0 1.02086 2 0 0.0944299 1 0.00276636 -0.00233817
683 1 32.0061 7.45293 0 1.00602 2 0 0.0952926 1 -0.00717115 0.00130428
684 1 32.5041 6.58988 0 1.01173 2 0 0.0812424 1 -0.00294088 -0.00373135
734 1 33.0042 7.45255 0 1.01306 2 0 0.0961028 1 0.00168804 0.00132972
634 1 33.5034 6.58919 0 1.00318 2 0 0.0819062 1 -0.00470522 0.00377658
635 1 34.5003 6.58887 0 1.01335 2 0 0.082532 1 0.00105042 0.00160084
685 1 34.0031 7.45337 0 1.01182 2 0 0.0968699 1 -0.0011584 0.000368075
686 1 35.0001 7.45321 0 1.01566 2 0 0.0975695 1 0.00639308 -0.00139594
636 1 35.4969 6.58782 0 1.01343 2 0 0.0830648 1 0.0123409 0.00362758