ITEM: TIMESTEP
15000
ITEM: NUMBER OF ATOMS
15950
ITEM: BOX BOUNDS pp pp pp
0.0000000000000000e+00 1.0000000000000000e+02
-5.0000000000000000e+00 2.0000000000000000e+02
-5.0000000000000000e-01 5.0000000000000000e-01
ITEM: ATOMS id type x y z c_rho c_phase c_nbond c_temp f_rheo_chi_chi fx fy
1 2 0 -5 0 1 2 8 1.90091e-11 1 0 0
2 2 1 -5 0 1 2 8 3.08294e-11 1 0 0
51 2 0 -4 0 1 2 8 1.53826e-10 1 0 0
52 2 1 -4 0 1 2 8 2.60658e-10 1 0 0
3 2 2 -5 0 1 2 8 7.21424e-11 1 0 0
4 2 3 -5 0 1 2 8 1.55256e-10 1 0 0
53 2 2 -4 0 1 2 8 6.44785e-10 1 0 0
54 2 3 -4 0 1 2 8 1.443e-09 1 0 0
5 2 4 -5 0 1 2 7 2.91958e-10 1 0 0
55 2 4 -4 0 1 2 8 2.75703e-09 1 0 0
6 2 5 -5 0 1 2 6 4.85818e-10 1 0 0
7 2 6 -5 0 1 2 5 6.98926e-10 1 0 0
56 2 5 -4 0 1 2 8 4.52932e-09 1 0 0
57 2 6 -4 0 1 2 8 6.50253e-09 1 0 0
8 2 7 -5 0 1 2 5 8.92928e-10 1 0 0
9 2 8 -5 0 1 2 5 1.0489e-09 1 0 0
58 2 7 -4 0 1 2 8 8.35574e-09 1 0 0
59 2 8 -4 0 1 2 8 9.85e-09 1 0 0
10 2 9 -5 0 1 2 5 1.15845e-09 1 0 0
60 2 9 -4 0 1 2 8 1.08978e-08 1 0 0
11 2 10 -5 0 1 2 5 1.22748e-09 1 0 0
12 2 11 -5 0 1 2 5 1.27153e-09 1 0 0
61 2 10 -4 0 1 2 8 1.15552e-08 1 0 0
62 2 11 -4 0 1 2 8 1.19709e-08 1 0 0
13 2 12 -5 0 1 2 5 1.30862e-09 1 0 0
14 2 13 -5 0 1 2 5 1.34947e-09 1 0 0
63 2 12 -4 0 1 2 8 1.23241e-08 1 0 0
64 2 13 -4 0 1 2 8 1.27236e-08 1 0 0
15 2 14 -5 0 1 2 5 1.39077e-09 1 0 0
65 2 14 -4 0 1 2 8 1.31285e-08 1 0 0
16 2 15 -5 0 1 2 5 1.42208e-09 1 0 0
17 2 16 -5 0 1 2 5 1.43981e-09 1 0 0
66 2 15 -4 0 1 2 8 1.34227e-08 1 0 0
67 2 16 -4 0 1 2 8 1.35749e-08 1 0 0
18 2 17 -5 0 1 2 5 1.45e-09 1 0 0
19 2 18 -5 0 1 2 5 1.45756e-09 1 0 0
68 2 17 -4 0 1 2 8 1.36631e-08 1 0 0
69 2 18 -4 0 1 2 8 1.37465e-08 1 0 0
20 2 19 -5 0 1 2 5 1.45819e-09 1 0 0
70 2 19 -4 0 1 2 8 1.37762e-08 1 0 0
21 2 20 -5 0 1 2 5 1.44268e-09 1 0 0
22 2 21 -5 0 1 2 5 1.40761e-09 1 0 0
71 2 20 -4 0 1 2 8 1.36469e-08 1 0 0
72 2 21 -4 0 1 2 8 1.33157e-08 1 0 0
23 2 22 -5 0 1 2 5 1.3604e-09 1 0 0
24 2 23 -5 0 1 2 5 1.31556e-09 1 0 0
73 2 22 -4 0 1 2 8 1.28541e-08 1 0 0
74 2 23 -4 0 1 2 8 1.24071e-08 1 0 0
25 2 24 -5 0 1 2 5 1.28756e-09 1 0 0
75 2 24 -4 0 1 2 8 1.21236e-08 1 0 0
26 2 25 -5 0 1 2 5 1.28494e-09 1 0 0
27 2 26 -5 0 1 2 5 1.3067e-09 1 0 0
76 2 25 -4 0 1 2 8 1.2098e-08 1 0 0
77 2 26 -4 0 1 2 8 1.23227e-08 1 0 0
28 2 27 -5 0 1 2 5 1.34379e-09 1 0 0
29 2 28 -5 0 1 2 5 1.3863e-09 1 0 0
78 2 27 -4 0 1 2 8 1.26962e-08 1 0 0
79 2 28 -4 0 1 2 8 1.3107e-08 1 0 0
30 2 29 -5 0 1 2 5 1.42921e-09 1 0 0
80 2 29 -4 0 1 2 8 1.35081e-08 1 0 0
31 2 30 -5 0 1 2 5 1.47018e-09 1 0 0
32 2 31 -5 0 1 2 5 1.50345e-09 1 0 0
81 2 30 -4 0 1 2 8 1.38913e-08 1 0 0
82 2 31 -4 0 1 2 8 1.42089e-08 1 0 0
33 2 32 -5 0 1 2 5 1.52058e-09 1 0 0
34 2 33 -5 0 1 2 5 1.51868e-09 1 0 0
83 2 32 -4 0 1 2 8 1.43726e-08 1 0 0
84 2 33 -4 0 1 2 8 1.43466e-08 1 0 0
35 2 34 -5 0 1 2 5 1.50514e-09 1 0 0
85 2 34 -4 0 1 2 8 1.4207e-08 1 0 0
36 2 35 -5 0 1 2 5 1.49111e-09 1 0 0
37 2 36 -5 0 1 2 5 1.48134e-09 1 0 0
86 2 35 -4 0 1 2 8 1.40721e-08 1 0 0
87 2 36 -4 0 1 2 8 1.39892e-08 1 0 0
38 2 37 -5 0 1 2 5 1.47224e-09 1 0 0
39 2 38 -5 0 1 2 5 1.45787e-09 1 0 0
88 2 37 -4 0 1 2 8 1.39152e-08 1 0 0
89 2 38 -4 0 1 2 8 1.37844e-08 1 0 0
40 2 39 -5 0 1 2 5 1.43555e-09 1 0 0
90 2 39 -4 0 1 2 8 1.35657e-08 1 0 0
41 2 40 -5 0 1 2 5 1.4079e-09 1 0 0
42 2 41 -5 0 1 2 5 1.38294e-09 1 0 0
91 2 40 -4 0 1 2 8 1.32827e-08 1 0 0
92 2 41 -4 0 1 2 8 1.30167e-08 1 0 0
43 2 42 -5 0 1 2 5 1.37187e-09 1 0 0
44 2 43 -5 0 1 2 5 1.38273e-09 1 0 0
93 2 42 -4 0 1 2 8 1.28886e-08 1 0 0
94 2 43 -4 0 1 2 8 1.29901e-08 1 0 0
45 2 44 -5 0 1 2 5 1.41226e-09 1 0 0
95 2 44 -4 0 1 2 8 1.32935e-08 1 0 0
46 2 45 -5 0 1 2 5 1.44402e-09 1 0 0
47 2 46 -5 0 1 2 5 1.45837e-09 1 0 0
96 2 45 -4 0 1 2 8 1.3626e-08 1 0 0
97 2 46 -4 0 1 2 8 1.37774e-08 1 0 0
48 2 47 -5 0 1 2 5 1.44744e-09 1 0 0
49 2 48 -5 0 1 2 5 1.42069e-09 1 0 0
98 2 47 -4 0 1 2 8 1.36649e-08 1 0 0
99 2 48 -4 0 1 2 8 1.33911e-08 1 0 0
50 2 49 -5 0 1 2 5 1.39642e-09 1 0 0
100 2 49 -4 0 1 2 8 1.31493e-08 1 0 0
101 2 0 -3 0 1 2 8 1.1286e-09 1 0 0
102 2 1 -3 0 1 2 8 2.01066e-09 1 0 0
151 2 0 -2 0 1 2 8 7.40439e-09 1 0 0
152 2 1 -2 0 1 2 8 1.39649e-08 1 0 0
103 2 2 -3 0 1 2 8 5.29167e-09 1 0 0
104 2 3 -3 0 1 2 8 1.23944e-08 1 0 0
153 2 2 -2 0 1 2 8 3.93802e-08 1 0 0
154 2 3 -2 0 1 2 8 9.71504e-08 1 0 0
105 2 4 -3 0 1 2 8 2.44573e-08 1 0 0
155 2 4 -2 0 1 2 8 1.99097e-07 1 0 0
106 2 5 -3 0 1 2 8 4.09858e-08 1 0 0
107 2 6 -3 0 1 2 8 5.95687e-08 1 0 0
156 2 5 -2 0 1 2 8 3.41987e-07 1 0 0
157 2 6 -2 0 1 2 8 5.04129e-07 1 0 0
108 2 7 -3 0 1 2 8 7.70847e-08 1 0 0
109 2 8 -3 0 1 2 8 9.12005e-08 1 0 0
158 2 7 -2 0 1 2 8 6.57269e-07 1 0 0
159 2 8 -2 0 1 2 8 7.80666e-07 1 0 0
110 2 9 -3 0 1 2 8 1.01084e-07 1 0 0
160 2 9 -2 0 1 2 8 8.6711e-07 1 0 0
111 2 10 -3 0 1 2 8 1.07265e-07 1 0 0
112 2 11 -3 0 1 2 8 1.11143e-07 1 0 0
161 2 10 -2 0 1 2 8 9.21274e-07 1 0 0
162 2 11 -2 0 1 2 8 9.55116e-07 1 0 0
113 2 12 -3 0 1 2 8 1.14465e-07 1 0 0
114 2 13 -3 0 1 2 8 1.18341e-07 1 0 0
163 2 12 -2 0 1 2 8 9.84276e-07 1 0 0
164 2 13 -2 0 1 2 8 1.01938e-06 1 0 0
115 2 14 -3 0 1 2 8 1.22281e-07 1 0 0
165 2 14 -2 0 1 2 8 1.05508e-06 1 0 0
116 2 15 -3 0 1 2 8 1.24993e-07 1 0 0
117 2 16 -3 0 1 2 8 1.26221e-07 1 0 0
166 2 15 -2 0 1 2 8 1.07803e-06 1 0 0
167 2 16 -2 0 1 2 8 1.08649e-06 1 0 0
118 2 17 -3 0 1 2 8 1.26942e-07 1 0 0
119 2 18 -3 0 1 2 8 1.27852e-07 1 0 0
168 2 17 -2 0 1 2 8 1.09164e-06 1 0 0
169 2 18 -2 0 1 2 8 1.10087e-06 1 0 0
120 2 19 -3 0 1 2 8 1.28393e-07 1 0 0
170 2 19 -2 0 1 2 8 1.10827e-06 1 0 0
121 2 20 -3 0 1 2 8 1.27385e-07 1 0 0
122 2 21 -3 0 1 2 8 1.24319e-07 1 0 0
171 2 20 -2 0 1 2 8 1.10166e-06 1 0 0
172 2 21 -2 0 1 2 8 1.07568e-06 1 0 0
123 2 22 -3 0 1 2 8 1.1988e-07 1 0 0
124 2 23 -3 0 1 2 8 1.15484e-07 1 0 0
173 2 22 -2 0 1 2 8 1.03645e-06 1 0 0
174 2 23 -2 0 1 2 8 9.96535e-07 1 0 0
125 2 24 -3 0 1 2 8 1.12636e-07 1 0 0
175 2 24 -2 0 1 2 8 9.69882e-07 1 0 0
126 2 25 -3 0 1 2 8 1.12379e-07 1 0 0
127 2 26 -3 0 1 2 8 1.14679e-07 1 0 0
176 2 25 -2 0 1 2 8 9.67356e-07 1 0 0
177 2 26 -2 0 1 2 8 9.8928e-07 1 0 0
128 2 27 -3 0 1 2 8 1.18408e-07 1 0 0
129 2 28 -3 0 1 2 8 1.22316e-07 1 0 0
178 2 27 -2 0 1 2 8 1.02396e-06 1 0 0
179 2 28 -2 0 1 2 8 1.05826e-06 1 0 0
130 2 29 -3 0 1 2 8 1.25971e-07 1 0 0
180 2 29 -2 0 1 2 8 1.08851e-06 1 0 0
131 2 30 -3 0 1 2 8 1.29473e-07 1 0 0
132 2 31 -3 0 1 2 8 1.32465e-07 1 0 0
181 2 30 -2 0 1 2 8 1.11766e-06 1 0 0
182 2 31 -2 0 1 2 8 1.14368e-06 1 0 0
133 2 32 -3 0 1 2 8 1.3402e-07 1 0 0
134 2 33 -3 0 1 2 8 1.33693e-07 1 0 0
183 2 32 -2 0 1 2 8 1.15745e-06 1 0 0
184 2 33 -2 0 1 2 8 1.15387e-06 1 0 0
135 2 34 -3 0 1 2 8 1.3226e-07 1 0 0
185 2 34 -2 0 1 2 8 1.14023e-06 1 0 0
136 2 35 -3 0 1 2 8 1.30977e-07 1 0 0
137 2 36 -3 0 1 2 8 1.30308e-07 1 0 0
186 2 35 -2 0 1 2 8 1.12895e-06 1 0 0
187 2 36 -2 0 1 2 8 1.12425e-06 1 0 0
138 2 37 -3 0 1 2 8 1.29752e-07 1 0 0
139 2 38 -3 0 1 2 8 1.28596e-07 1 0 0
188 2 37 -2 0 1 2 8 1.12079e-06 1 0 0
189 2 38 -2 0 1 2 8 1.11157e-06 1 0 0
140 2 39 -3 0 1 2 8 1.26494e-07 1 0 0
190 2 39 -2 0 1 2 8 1.09298e-06 1 0 0
141 2 40 -3 0 1 2 8 1.23637e-07 1 0 0
142 2 41 -3 0 1 2 8 1.20837e-07 1 0 0
191 2 40 -2 0 1 2 8 1.06629e-06 1 0 0
192 2 41 -2 0 1 2 8 1.03892e-06 1 0 0
143 2 42 -3 0 1 2 8 1.1938e-07 1 0 0
144 2 43 -3 0 1 2 8 1.20307e-07 1 0 0
193 2 42 -2 0 1 2 8 1.02361e-06 1 0 0
194 2 43 -2 0 1 2 8 1.03127e-06 1 0 0
145 2 44 -3 0 1 2 8 1.23397e-07 1 0 0
195 2 44 -2 0 1 2 8 1.06046e-06 1 0 0
146 2 45 -3 0 1 2 8 1.26849e-07 1 0 0
147 2 46 -3 0 1 2 8 1.28429e-07 1 0 0
196 2 45 -2 0 1 2 8 1.09373e-06 1 0 0
197 2 46 -2 0 1 2 8 1.10902e-06 1 0 0
148 2 47 -3 0 1 2 8 1.27276e-07 1 0 0
149 2 48 -3 0 1 2 8 1.24492e-07 1 0 0
198 2 47 -2 0 1 2 8 1.09804e-06 1 0 0
199 2 48 -2 0 1 2 8 1.07181e-06 1 0 0
150 2 49 -3 0 1 2 8 1.22097e-07 1 0 0
200 2 49 -2 0 1 2 8 1.04978e-06 1 0 0
201 2 0 -1 0 1 2 8 4.27193e-08 1 0 0
202 2 1 -1 0 1 2 8 8.59052e-08 1 0 0
203 2 2 -1 0 1 2 8 2.61586e-07 1 0 0
204 2 3 -1 0 1 2 8 6.84876e-07 1 0 0
205 2 4 -1 0 1 2 8 1.46677e-06 1 0 0
206 2 5 -1 0 1 2 8 2.592e-06 1 0 0
207 2 6 -1 0 1 2 8 3.88082e-06 1 0 0
208 2 7 -1 0 1 2 8 5.09973e-06 1 0 0
209 2 8 -1 0 1 2 8 6.08243e-06 1 0 0
210 2 9 -1 0 1 2 8 6.7731e-06 1 0 0
211 2 10 -1 0 1 2 8 7.20989e-06 1 0 0
212 2 11 -1 0 1 2 8 7.48372e-06 1 0 0
213 2 12 -1 0 1 2 8 7.71982e-06 1 0 0
214 2 13 -1 0 1 2 8 8.01258e-06 1 0 0
215 2 14 -1 0 1 2 8 8.30982e-06 1 0 0
216 2 15 -1 0 1 2 8 8.48483e-06 1 0 0
217 2 16 -1 0 1 2 8 8.53047e-06 1 0 0
218 2 17 -1 0 1 2 8 8.56115e-06 1 0 0
219 2 18 -1 0 1 2 8 8.64712e-06 1 0 0
220 2 19 -1 0 1 2 8 8.73068e-06 1 0 0
221 2 20 -1 0 1 2 8 8.69828e-06 1 0 0
222 2 21 -1 0 1 2 8 8.50071e-06 1 0 0
223 2 22 -1 0 1 2 8 8.18835e-06 1 0 0
224 2 23 -1 0 1 2 8 7.86003e-06 1 0 0
225 2 24 -1 0 1 2 8 7.63133e-06 1 0 0
226 2 25 -1 0 1 2 8 7.60743e-06 1 0 0
227 2 26 -1 0 1 2 8 7.7989e-06 1 0 0
228 2 27 -1 0 1 2 8 8.09471e-06 1 0 0
229 2 28 -1 0 1 2 8 8.36771e-06 1 0 0
230 2 29 -1 0 1 2 8 8.58965e-06 1 0 0
231 2 30 -1 0 1 2 8 8.80546e-06 1 0 0
232 2 31 -1 0 1 2 8 9.01065e-06 1 0 0
233 2 32 -1 0 1 2 8 9.12306e-06 1 0 0
234 2 33 -1 0 1 2 8 9.08884e-06 1 0 0
235 2 34 -1 0 1 2 8 8.97048e-06 1 0 0
236 2 35 -1 0 1 2 8 8.88034e-06 1 0 0
237 2 36 -1 0 1 2 8 8.85345e-06 1 0 0
238 2 37 -1 0 1 2 8 8.83871e-06 1 0 0
239 2 38 -1 0 1 2 8 8.77395e-06 1 0 0
240 2 39 -1 0 1 2 8 8.62567e-06 1 0 0
241 2 40 -1 0 1 2 8 8.39886e-06 1 0 0
242 2 41 -1 0 1 2 8 8.15429e-06 1 0 0
243 2 42 -1 0 1 2 8 8.00788e-06 1 0 0
244 2 43 -1 0 1 2 8 8.06355e-06 1 0 0
245 2 44 -1 0 1 2 8 8.3152e-06 1 0 0
246 2 45 -1 0 1 2 8 8.60772e-06 1 0 0
247 2 46 -1 0 1 2 8 8.74239e-06 1 0 0
248 2 47 -1 0 1 2 8 8.64708e-06 1 0 0
249 2 48 -1 0 1 2 8 8.42211e-06 1 0 0
250 2 49 -1 0 1 2 8 8.23694e-06 1 0 0
251 2 0 0 0 1 2 8 2.12504e-07 1 0 0
252 2 1 0 0 1 2 8 4.58572e-07 1 0 0
301 2 0 1 0 1 2 8 8.91389e-07 1 0 0
302 2 1 1 0 1 2 8 2.07217e-06 1 0 0
253 2 2 0 0 1 2 8 1.51963e-06 1 0 0
254 2 3 0 0 1 2 8 4.26022e-06 1 0 0
303 2 2 1 0 1 2 8 7.51966e-06 1 0 0
304 2 3 1 0 1 2 8 2.27859e-05 1 0 0
255 2 4 0 0 1 2 8 9.61126e-06 1 0 0
305 2 4 1 0 1 2 8 5.46915e-05 1 0 0
256 2 5 0 0 1 2 8 1.7559e-05 1 0 0
257 2 6 0 0 1 2 8 2.67429e-05 1 0 0
306 2 5 1 0 1 2 8 0.000104023 1 0 0
307 2 6 1 0 1 2 8 0.000161452 1 0 0
258 2 7 0 0 1 2 8 3.54268e-05 1 0 0
259 2 8 0 0 1 2 8 4.24391e-05 1 0 0
308 2 7 1 0 1 2 8 0.000215537 1 0 0
309 2 8 1 0 1 2 8 0.000259372 1 0 0
260 2 9 0 0 1 2 8 4.74024e-05 1 0 0
310 2 9 1 0 1 2 8 0.000290794 1 0 0
261 2 10 0 0 1 2 8 5.06022e-05 1 0 0
262 2 11 0 0 1 2 8 5.26384e-05 1 0 0
311 2 10 1 0 1 2 8 0.000311717 1 0 0
312 2 11 1 0 1 2 8 0.000325486 1 0 0
263 2 12 0 0 1 2 8 5.43828e-05 1 0 0
264 2 13 0 0 1 2 8 5.65986e-05 1 0 0
313 2 12 1 0 1 2 8 0.000337062 1 0 0
314 2 13 1 0 1 2 8 0.000351989 1 0 0
265 2 14 0 0 1 2 8 5.88384e-05 1 0 0
315 2 14 1 0 1 2 8 0.000366984 1 0 0
266 2 15 0 0 1 2 8 6.00235e-05 1 0 0
267 2 16 0 0 1 2 8 6.01678e-05 1 0 0
316 2 15 1 0 1 2 8 0.000373978 1 0 0
317 2 16 1 0 1 2 8 0.000373643 1 0 0
268 2 17 0 0 1 2 8 6.03093e-05 1 0 0
269 2 18 0 0 1 2 8 6.10333e-05 1 0 0
318 2 17 1 0 1 2 8 0.000374097 1 0 0
319 2 18 1 0 1 2 8 0.000379502 1 0 0
270 2 19 0 0 1 2 8 6.18316e-05 1 0 0
320 2 19 1 0 1 2 8 0.00038593 1 0 0
271 2 20 0 0 1 2 8 6.17638e-05 1 0 0
272 2 21 0 0 1 2 8 6.04445e-05 1 0 0
321 2 20 1 0 1 2 8 0.000386623 1 0 0
322 2 21 1 0 1 2 8 0.000379124 1 0 0
273 2 22 0 0 1 2 8 5.82565e-05 1 0 0
274 2 23 0 0 1 2 8 5.58629e-05 1 0 0
323 2 22 1 0 1 2 8 0.000366118 1 0 0
324 2 23 1 0 1 2 8 0.000351159 1 0 0
275 2 24 0 0 1 2 8 5.40971e-05 1 0 0
325 2 24 1 0 1 2 8 0.000339191 1 0 0
276 2 25 0 0 1 2 8 5.3885e-05 1 0 0
277 2 26 0 0 1 2 8 5.53891e-05 1 0 0
326 2 25 1 0 1 2 8 0.00033751 1 0 0
327 2 26 1 0 1 2 8 0.000347872 1 0 0
278 2 27 0 0 1 2 8 5.76628e-05 1 0 0
279 2 28 0 0 1 2 8 5.95951e-05 1 0 0
328 2 27 1 0 1 2 8 0.000363203 1 0 0
329 2 28 1 0 1 2 8 0.000375036 1 0 0
280 2 29 0 0 1 2 8 6.09919e-05 1 0 0
330 2 29 1 0 1 2 8 0.000382162 1 0 0
281 2 30 0 0 1 2 8 6.23708e-05 1 0 0
282 2 31 0 0 1 2 8 6.3811e-05 1 0 0
331 2 30 1 0 1 2 8 0.000389416 1 0 0
332 2 31 1 0 1 2 8 0.000398162 1 0 0
283 2 32 0 0 1 2 8 6.46422e-05 1 0 0
284 2 33 0 0 1 2 8 6.43609e-05 1 0 0
333 2 32 1 0 1 2 8 0.000403609 1 0 0
334 2 33 1 0 1 2 8 0.000401674 1 0 0
285 2 34 0 0 1 2 8 6.34429e-05 1 0 0
335 2 34 1 0 1 2 8 0.000395493 1 0 0
286 2 35 0 0 1 2 8 6.2804e-05 1 0 0
287 2 36 0 0 1 2 8 6.27e-05 1 0 0
336 2 35 1 0 1 2 8 0.000391621 1 0 0
337 2 36 1 0 1 2 8 0.000391636 1 0 0
288 2 37 0 0 1 2 8 6.26984e-05 1 0 0
289 2 38 0 0 1 2 8 6.23141e-05 1 0 0
338 2 37 1 0 1 2 8 0.000392358 1 0 0
339 2 38 1 0 1 2 8 0.000390565 1 0 0
290 2 39 0 0 1 2 8 6.12703e-05 1 0 0
340 2 39 1 0 1 2 8 0.000384287 1 0 0
291 2 40 0 0 1 2 8 5.95499e-05 1 0 0
292 2 41 0 0 1 2 8 5.75882e-05 1 0 0
341 2 40 1 0 1 2 8 0.000372977 1 0 0
342 2 41 1 0 1 2 8 0.000359203 1 0 0
293 2 42 0 0 1 2 8 5.63357e-05 1 0 0
294 2 43 0 0 1 2 8 5.66789e-05 1 0 0
343 2 42 1 0 1 2 8 0.000349862 1 0 0
344 2 43 1 0 1 2 8 0.000351527 1 0 0
295 2 44 0 0 1 2 8 5.86205e-05 1 0 0
345 2 44 1 0 1 2 8 0.000364582 1 0 0
296 2 45 0 0 1 2 8 6.09236e-05 1 0 0
297 2 46 0 0 1 2 8 6.19809e-05 1 0 0
346 2 45 1 0 1 2 8 0.000380377 1 0 0
347 2 46 1 0 1 2 8 0.000387553 1 0 0
298 2 47 0 0 1 2 8 6.12398e-05 1 0 0
299 2 48 0 0 1 2 8 5.95186e-05 1 0 0
348 2 47 1 0 1 2 8 0.000382515 1 0 0
349 2 48 1 0 1 2 8 0.000371104 1 0 0
300 2 49 0 0 1 2 8 5.8121e-05 1 0 0
350 2 49 1 0 1 2 8 0.000361855 1 0 0
351 2 0 2 0 1 2 8 3.08285e-06 1 0 0
352 2 1 2 0 1 2 8 7.70941e-06 1 0 0
401 2 0 3 0 1 2 8 8.63296e-06 1 0 0
402 2 1 3 0 1 2 8 2.30432e-05 1 0 0
353 2 2 2 0 1 2 8 3.06829e-05 1 0 0
354 2 3 2 0 1 2 8 0.000101086 1 0 0
403 2 2 3 0 1 2 8 9.95858e-05 1 0 0
404 2 3 3 0 1 2 8 0.000356071 1 0 0
355 2 4 2 0 1 2 8 0.000261111 1 0 0
405 2 4 3 0 1 2 8 0.000987856 1 0 0
356 2 5 2 0 1 2 8 0.000522264 1 0 0
357 2 6 2 0 1 2 8 0.000826997 1 0 0
406 2 5 3 0 1 2 8 0.00212186 1 0 0
407 2 6 3 0 1 2 8 0.00344688 1 0 0
358 2 7 2 0 1 2 8 0.00111066 1 0 0
359 2 8 2 0 1 2 8 0.00134255 1 0 0
408 2 7 3 0 1 2 8 0.00462797 1 0 0
409 2 8 3 0 1 2 8 0.00561827 1 0 0
360 2 9 2 0 1 2 8 0.00151233 1 0 0
410 2 9 3 0 1 2 8 0.0063733 1 0 0
361 2 10 2 0 1 2 8 0.0016309 1 0 0
362 2 11 2 0 1 2 8 0.00171331 1 0 0
411 2 10 3 0 1 2 8 0.00693382 1 0 0
412 2 11 3 0 1 2 8 0.00736116 1 0 0
363 2 12 2 0 1 2 8 0.00178112 1 0 0
364 2 13 2 0 1 2 8 0.00186777 1 0 0
413 2 12 3 0 1 2 8 0.00770125 1 0 0
414 2 13 3 0 1 2 8 0.00811854 1 0 0
365 2 14 2 0 1 2 8 0.00195375 1 0 0
415 2 14 3 0 1 2 8 0.00852752 1 0 0
366 2 15 2 0 1 2 8 0.00198941 1 0 0
367 2 16 2 0 1 2 8 0.00198161 1 0 0
416 2 15 3 0 1 2 8 0.00868716 1 0 0
417 2 16 3 0 1 2 8 0.00864516 1 0 0
368 2 17 2 0 1 2 8 0.0019826 1 0 0
369 2 18 2 0 1 2 8 0.00201742 1 0 0
418 2 17 3 0 1 2 8 0.00866024 1 0 0
419 2 18 3 0 1 2 8 0.00884674 1 0 0
370 2 19 2 0 1 2 8 0.0020598 1 0 0
420 2 19 3 0 1 2 8 0.00906764 1 0 0
371 2 20 2 0 1 2 8 0.00206956 1 0 0
372 2 21 2 0 1 2 8 0.00203513 1 0 0
421 2 20 3 0 1 2 8 0.00913418 1 0 0
422 2 21 3 0 1 2 8 0.00901725 1 0 0
373 2 22 2 0 1 2 8 0.00197343 1 0 0
374 2 23 2 0 1 2 8 0.00189749 1 0 0
423 2 22 3 0 1 2 8 0.00881075 1 0 0
424 2 23 3 0 1 2 8 0.00852849 1 0 0
375 2 24 2 0 1 2 8 0.00182972 1 0 0
425 2 24 3 0 1 2 8 0.00822551 1 0 0
376 2 25 2 0 1 2 8 0.00181847 1 0 0
377 2 26 2 0 1 2 8 0.00187802 1 0 0
426 2 25 3 0 1 2 8 0.00817113 1 0 0
427 2 26 3 0 1 2 8 0.0084374 1 0 0
378 2 27 2 0 1 2 8 0.00196493 1 0 0
379 2 28 2 0 1 2 8 0.00202479 1 0 0
428 2 27 3 0 1 2 8 0.00882293 1 0 0
429 2 28 3 0 1 2 8 0.00905892 1 0 0
380 2 29 2 0 1 2 8 0.00205117 1 0 0
430 2 29 3 0 1 2 8 0.00910768 1 0 0
381 2 30 2 0 1 2 8 0.00207979 1 0 0
382 2 31 2 0 1 2 8 0.00212384 1 0 0
431 2 30 3 0 1 2 8 0.00917836 1 0 0
432 2 31 3 0 1 2 8 0.00934941 1 0 0
383 2 32 2 0 1 2 8 0.00215417 1 0 0
384 2 33 2 0 1 2 8 0.00214362 1 0 0
433 2 32 3 0 1 2 8 0.0094854 1 0 0
434 2 33 3 0 1 2 8 0.00944591 1 0 0
385 2 34 2 0 1 2 8 0.00210937 1 0 0
435 2 34 3 0 1 2 8 0.00930023 1 0 0
386 2 35 2 0 1 2 8 0.00209061 1 0 0
387 2 36 2 0 1 2 8 0.00209493 1 0 0
436 2 35 3 0 1 2 8 0.00923672 1 0 0
437 2 36 3 0 1 2 8 0.00927904 1 0 0
388 2 37 2 0 1 2 8 0.00210313 1 0 0
389 2 38 2 0 1 2 8 0.0020975 1 0 0
438 2 37 3 0 1 2 8 0.00933317 1 0 0
439 2 38 3 0 1 2 8 0.00932634 1 0 0
390 2 39 2 0 1 2 8 0.00206684 1 0 0
440 2 39 3 0 1 2 8 0.00921316 1 0 0
391 2 40 2 0 1 2 8 0.00200531 1 0 0
392 2 41 2 0 1 2 8 0.00192418 1 0 0
441 2 40 3 0 1 2 8 0.00896075 1 0 0
442 2 41 3 0 1 2 8 0.0085847 1 0 0
393 2 42 2 0 1 2 8 0.00186606 1 0 0
394 2 43 2 0 1 2 8 0.00187142 1 0 0
443 2 42 3 0 1 2 8 0.00830408 1 0 0
444 2 43 3 0 1 2 8 0.00830743 1 0 0
395 2 44 2 0 1 2 8 0.00194459 1 0 0
445 2 44 3 0 1 2 8 0.00862587 1 0 0
396 2 45 2 0 1 2 8 0.00203479 1 0 0
397 2 46 2 0 1 2 8 0.00207476 1 0 0
446 2 45 3 0 1 2 8 0.0090246 1 0 0
447 2 46 3 0 1 2 8 0.00919159 1 0 0
398 2 47 2 0 1 2 8 0.00204607 1 0 0
399 2 48 2 0 1 2 8 0.00198352 1 0 0
448 2 47 3 0 1 2 8 0.00906016 1 0 0
449 2 48 3 0 1 2 8 0.00879836 1 0 0
400 2 49 2 0 1 2 8 0.00193196 1 0 0
450 2 49 3 0 1 2 8 0.0085667 1 0 0
451 2 0 4 0 1 2 8 1.94157e-05 1 0 0
452 2 1 4 0 1 2 8 5.46249e-05 1 0 0
453 2 2 4 0 1 2 8 0.000252247 1 0 0
454 2 3 4 0 1 2 8 0.000954341 1 0 0
455 2 4 4 0 1 2 7 0.00272396 1 0 0
456 2 5 4 0 1 2 6 0.00640352 1 0 0
457 2 6 4 0 1 2 5 0.0103821 1 0 0
506 1 5.48623 4.87059 0 1.0006 2 0 0.0146647 1 0.00131204 0.00237794
507 1 6.48715 4.87002 0 1.02569 2 0 0.019311 1 0.000642807 0.00124748
458 2 7 4 0 1 2 5 0.0137138 1 0 0
459 2 8 4 0 1 2 5 0.0167031 1 0 0
508 1 7.49516 4.86625 0 1.03193 2 0 0.0239768 1 0.000116837 0.000150512
460 2 9 4 0 1 2 5 0.0191121 1 0 0
510 1 8.49646 4.86563 0 1.01036 2 0 0.0283159 1 0.000850115 0.00145573
511 1 9.49779 4.86439 0 1.00136 2 0 0.032206 1 -0.000252573 -0.00104874
461 2 10 4 0 1 2 5 0.0210454 1 0 0
462 2 11 4 0 1 2 5 0.0226602 1 0 0
512 1 10.4979 4.86398 0 1.01573 2 0 0.0357823 1 0.000985235 -0.00035866
513 1 11.4987 4.86376 0 1.01534 2 0 0.0390771 1 -0.000451359 -0.0013024
463 2 12 4 0 1 2 5 0.0240281 1 0 0
464 2 13 4 0 1 2 5 0.0254797 1 0 0
514 1 12.4993 4.86499 0 1.01802 2 0 0.0420549 1 0.000812041 -0.00244251
465 2 14 4 0 1 2 5 0.0268201 1 0 0
515 1 13.499 4.86494 0 1.02031 2 0 0.0447015 1 0.000629122 -0.00212593
516 1 14.4988 4.86463 0 1.0096 2 0 0.046888 1 0.000123649 -9.70065e-05
466 2 15 4 0 1 2 5 0.0274707 1 0 0
467 2 16 4 0 1 2 5 0.027489 1 0 0
518 1 16.4975 4.86446 0 1.02515 2 0 0.0498371 1 0.000519293 -0.00118697
517 1 15.4983 4.86471 0 1.02614 2 0 0.048521 1 0.000274596 -0.000247173
468 2 17 4 0 1 2 5 0.0276337 1 0 0
469 2 18 4 0 1 2 5 0.0283752 1 0 0
519 1 17.4968 4.86338 0 1.0239 2 0 0.0510663 1 0.00109841 0.00122291
470 2 19 4 0 1 2 5 0.0291261 1 0 0
520 1 18.4969 4.86266 0 1.00577 2 0 0.0522318 1 -0.000802212 0.000921287
521 1 19.4981 4.863 0 1.00453 2 0 0.0531547 1 -0.000386406 -0.000444962
471 2 20 4 0 1 2 5 0.0293902 1 0 0
472 2 21 4 0 1 2 5 0.029183 1 0 0
523 1 21.5005 4.86254 0 1.02268 2 0 0.0538921 1 0.000966692 0.000929298
522 1 20.4986 4.86357 0 1.0139 2 0 0.0536723 1 0.000791042 -0.00151441
473 2 22 4 0 1 2 5 0.0288582 1 0 0
474 2 23 4 0 1 2 5 0.0282593 1 0 0
524 1 22.5011 4.86371 0 1.01383 2 0 0.0538903 1 -0.00100158 -0.00122209
475 2 24 4 0 1 2 5 0.0274668 1 0 0
525 1 23.5004 4.86404 0 1.03669 2 0 0.0537556 1 -0.000111636 0.000253732
526 1 24.4999 4.86443 0 1.04245 2 0 0.053876 1 -0.000112419 0.000139844
476 2 25 4 0 1 2 5 0.0273207 1 0 0
477 2 26 4 0 1 2 5 0.0280232 1 0 0
528 1 26.499 4.86404 0 1.04147 2 0 0.055485 1 0.000267254 0.00183409
527 1 25.4992 4.86459 0 1.03798 2 0 0.0545189 1 0.00162593 -0.000680736
478 2 27 4 0 1 2 5 0.0291449 1 0 0
479 2 28 4 0 1 2 5 0.029718 1 0 0
529 1 27.4992 4.86424 0 1.0019 2 0 0.0563539 1 -0.00118877 -0.000853556
480 2 29 4 0 1 2 5 0.0296871 1 0 0
531 1 29.4996 4.8643 0 1.01679 2 0 0.0571978 1 -2.64927e-05 -0.000648467
530 1 28.4991 4.86399 0 1.02091 2 0 0.0568994 1 0.00105103 0.000100872
481 2 30 4 0 1 2 5 0.0297083 1 0 0
482 2 31 4 0 1 2 5 0.0301445 1 0 0
533 1 31.5005 4.86278 0 1.004 2 0 0.0578373 1 0.000440883 0.00126046
532 1 30.5009 4.86295 0 1.0182 2 0 0.0574607 1 0.000852306 -0.000279012
483 2 32 4 0 1 2 5 0.030533 1 0 0
484 2 33 4 0 1 2 5 0.03047 1 0 0
534 1 32.5 4.86247 0 1.00171 2 0 0.0580996 1 -0.00131263 0.000940802
485 2 34 4 0 1 2 5 0.0301142 1 0 0
535 1 33.4996 4.86211 0 1.00275 2 0 0.0580947 1 0.00205945 0.00141445
536 1 34.5007 4.86254 0 1.0237 2 0 0.0579667 1 -0.000222535 -0.000395676
486 2 35 4 0 1 2 5 0.0300195 1 0 0
487 2 36 4 0 1 2 5 0.0302028 1 0 0
538 1 36.5008 4.86295 0 1.01227 2 0 0.057883 1 -0.00307306 0.000837197
537 1 35.5005 4.86258 0 1.0067 2 0 0.0579336 1 -0.000285379 0.0016101
488 2 37 4 0 1 2 5 0.0304091 1 0 0
489 2 38 4 0 1 2 5 0.0304082 1 0 0
539 1 37.5002 4.86362 0 1.00174 2 0 0.0576519 1 -0.00056013 -0.00124234
490 2 39 4 0 1 2 5 0.0301429 1 0 0
541 1 39.4994 4.86345 0 1.00168 2 0 0.056852 1 0.000290205 -0.0023393
540 1 38.4996 4.86341 0 1.01715 2 0 0.0572908 1 -0.00048185 -0.000672019
491 2 40 4 0 1 2 5 0.0295049 1 0 0
492 2 41 4 0 1 2 5 0.0283965 1 0 0
542 1 40.4998 4.86318 0 1.01016 2 0 0.056393 1 -0.00338308 -0.000478079
543 1 41.499 4.86275 0 1.03252 2 0 0.056076 1 0.000190285 0.00192319
493 2 42 4 0 1 2 5 0.0275619 1 0 0
494 2 43 4 0 1 2 5 0.0275222 1 0 0
544 1 42.4985 4.86252 0 1.0319 2 0 0.0561196 1 -0.00180466 0.0020447
495 2 44 4 0 1 2 5 0.0283849 1 0 0
545 1 43.4975 4.86245 0 1.03659 2 0 0.0564678 1 0.00271247 0.000492197
546 1 44.4983 4.86276 0 1.01001 2 0 0.0569002 1 -0.00171523 -0.000560765
496 2 45 4 0 1 2 5 0.0294804 1 0 0
497 2 46 4 0 1 2 5 0.0298764 1 0 0
548 1 46.5003 4.86384 0 1.00807 2 0 0.0569881 1 -0.000195361 0.00226624
547 1 45.5008 4.8649 0 1.00173 2 0 0.0571722 1 -0.00271816 -0.0028907
498 2 47 4 0 1 2 5 0.0294962 1 0 0
499 2 48 4 0 1 2 5 0.0288185 1 0 0
549 1 47.4996 4.86519 0 1.02093 2 0 0.0565093 1 0.000440166 -0.00342607
500 2 49 4 0 1 2 5 0.0281666 1 0 0
550 1 48.4996 4.86436 0 1.02225 2 0 0.0561939 1 -0.00273611 0.00113196
8501 1 49.499 4.86529 0 1.06187 2 0 0.0562872 1 -0.00208556 -0.00544479
501 2 0 5 0 1 2 8 3.5381e-05 1 0 0
502 2 1 5 0 1 2 8 0.000103379 1 0 0
551 2 0 6 0 1 2 8 5.39021e-05 1 0 0
552 2 1 6 0 1 2 8 0.00016131 1 0 0
503 2 2 5 0 1 2 8 0.00049814 1 0 0
504 2 3 5 0 1 2 8 0.00197184 1 0 0
553 2 2 6 0 1 2 8 0.000791654 1 0 0
554 2 3 6 0 1 2 8 0.00317338 1 0 0
505 2 4 5 0 1 2 6 0.00596086 1 0 0
555 2 4 6 0 1 2 5 0.0094767 1 0 0
556 1 4.96472 5.7265 0 1.02426 2 0 0.0162922 1 0 -5e-05
557 1 5.9846 5.73588 0 1.00456 2 0 0.0230877 1 -0.000351652 -0.0015796
558 1 6.98937 5.73228 0 1.00032 2 0 0.0292248 1 0.000132938 0.000124532
509 1 7.98998 5.73285 0 1.00999 2 0 0.0353982 1 0.00072077 0.0012785
560 1 8.99742 5.72966 0 1.01571 2 0 0.0411086 1 -0.00195068 -0.00124513
561 1 9.9966 5.72772 0 1.04128 2 0 0.0465099 1 0.0036017 0.000716922
562 1 10.9975 5.72746 0 1.02468 2 0 0.05154 1 -0.0023881 -0.00173767
563 1 11.9967 5.72724 0 1.00884 2 0 0.0561064 1 0.00178731 -0.000913332
565 1 12.9992 5.7297 0 1.01555 2 0 0.0602613 1 -0.000590752 -0.00326954
566 1 13.9984 5.72912 0 1.01485 2 0 0.0638551 1 0.000403283 0.0028172
567 1 14.9978 5.72966 0 1.00349 2 0 0.0668158 1 0.000291389 -0.00322759
568 1 15.997 5.72954 0 1.02492 2 0 0.0692722 1 0.000692596 -0.00370956
569 1 17.9945 5.72658 0 1.01386 2 0 0.0730129 1 0.00116324 0.000608626
618 1 16.9955 5.72839 0 1.00786 2 0 0.0713004 1 0.00353858 0.000445101
570 1 18.9942 5.7249 0 1.00562 2 0 0.0745228 1 -0.000459276 0.000561566
571 1 19.9963 5.72562 0 1.00943 2 0 0.0757917 1 0.00127898 0.000108384
572 1 21.0011 5.72487 0 1.02492 2 0 0.0766511 1 0.00010746 0.0012592
573 1 22.0008 5.72607 0 1.00977 2 0 0.0770036 1 -0.00154517 0.00082987
574 1 23.0005 5.72818 0 1.00488 2 0 0.0770749 1 -0.000952308 -0.000512858
575 1 23.9996 5.72873 0 1.01237 2 0 0.077312 1 0.00183895 0.000159196
576 1 24.9994 5.7292 0 1.01087 2 0 0.0781562 1 -0.00118666 -7.88296e-05
577 1 25.9987 5.72914 0 1.01133 2 0 0.0794814 1 -0.000662854 -0.00095294
579 1 26.998 5.72865 0 1.01129 2 0 0.0807293 1 0.00146771 -0.00101517
580 1 27.9983 5.72762 0 1.02117 2 0 0.0817326 1 -4.47624e-05 0.00316589
581 1 28.9988 5.72815 0 1.01861 2 0 0.0823275 1 -0.000170268 -0.000151389
632 1 30.0036 5.72585 0 1.0167 2 0 0.082439 1 -0.000106346 -0.000241276
582 1 31.0024 5.72648 0 1.0143 2 0 0.0827058 1 0.000904685 0.000342938
583 1 32.0006 5.72652 0 1.0088 2 0 0.0831903 1 0.000197706 -0.000526026
584 1 33 5.72435 0 1.00514 2 0 0.0835106 1 0.000361514 0.00298789
585 1 34.0009 5.72456 0 1.02197 2 0 0.0836447 1 -0.00128999 0.000481754
586 1 35.0003 5.72574 0 1.02669 2 0 0.0836711 1 0.00156411 -0.000254577
587 1 35.9996 5.72607 0 1.01702 2 0 0.0835829 1 0.00238417 0.00104037
588 1 36.9992 5.72656 0 1.01798 2 0 0.0831859 1 -0.000402495 0.00203698
589 1 37.9991 5.72721 0 1.01656 2 0 0.0825431 1 -0.00134336 -0.00146163
590 1 38.9987 5.72622 0 1.01208 2 0 0.081936 1 -0.00019725 0.00263507
591 1 39.9981 5.72639 0 1.01334 2 0 0.0816076 1 0.00144398 0.0015354
592 1 40.9978 5.7262 0 1.02633 2 0 0.081696 1 -0.00101385 0.00124069
594 1 42.9965 5.72542 0 1.01497 2 0 0.082438 1 -0.00205921 0.00249439
593 1 41.9972 5.72646 0 1.02837 2 0 0.0820383 1 -0.000614637 -0.00229169
595 1 43.9952 5.72555 0 1.01694 2 0 0.0827011 1 0.00389725 0.000184431
596 1 44.9944 5.72558 0 1.01116 2 0 0.0827625 1 0.00270868 0.00255223
597 1 46.0008 5.72837 0 1.01212 2 0 0.0826283 1 -0.00203346 0.00484786
598 1 46.9989 5.72962 0 1.00861 2 0 0.0820051 1 0.00174948 -0.00358355
599 1 47.9979 5.72942 0 1.02545 2 0 0.0814538 1 0.00691494 -0.00181809
600 1 48.9975 5.72903 0 1.00476 2 0 0.0816813 1 0.00152949 0.00367217
601 2 0 7 0 1 2 8 7.18366e-05 1 0 0
602 2 1 7 0 1 2 8 0.000218318 1 0 0
651 2 0 8 0 1 2 8 8.70501e-05 1 0 0
652 2 1 8 0 1 2 8 0.000267571 1 0 0
603 2 2 7 0 1 2 8 0.00108319 1 0 0
604 2 3 7 0 1 2 8 0.00438799 1 0 0
653 2 2 8 0 1 2 8 0.00134169 1 0 0
654 2 3 8 0 1 2 8 0.00554748 1 0 0
605 2 4 7 0 1 2 5 0.0129451 1 0 0
655 2 4 8 0 1 2 5 0.0162488 1 0 0
656 1 4.87916 7.49529 0 1.01253 2 0 0.0232322 1 -0.000238243 0.000348968
606 1 5.39174 6.63692 0 1.01839 2 0 0.0244981 1 -0.00228064 -0.000475414
607 1 6.39043 6.64741 0 1.01626 2 0 0.0325959 1 0.00327777 0.00257871
657 1 5.89304 7.52298 0 1.02523 2 0 0.0338401 1 -0.00100212 -0.00141208
608 1 7.48592 6.59792 0 1.01581 2 0 0.0409292 1 0.000644843 0.00113761
609 1 7.99278 7.45837 0 1.00447 2 0 0.0535883 1 0.000609466 -0.00352581
658 1 6.97504 7.45761 0 1.00499 2 0 0.0442996 1 0.0017733 -0.00212161
559 1 8.49576 6.59395 0 1.01669 2 0 0.0483586 1 -0.00179783 -0.000836578
610 1 9.49902 6.59275 0 1.00382 2 0 0.0555289 1 -0.00389873 -0.000395447
661 1 8.99814 7.45574 0 1.00906 2 0 0.0624801 1 0.000878787 -0.000169288
612 1 9.99718 7.45773 0 1.00002 2 0 0.0710119 1 0.00174854 0.00139037
611 1 10.497 6.5915 0 1.00368 2 0 0.0623301 1 9.05849e-05 0.000837616
564 1 11.4963 6.59032 0 1.01095 2 0 0.0686331 1 -0.00186399 0.00447708
613 1 10.9957 7.4552 0 1.00877 2 0 0.079168 1 6.8129e-05 0.000243716
614 1 12.4951 6.59038 0 1.01882 2 0 0.0744068 1 0.00284662 0.00441672
665 1 12.993 7.4555 0 1.00809 2 0 0.0935867 1 0.00253893 -0.000844729
664 1 11.9948 7.45449 0 1.0022 2 0 0.0867487 1 -0.00334038 0.00224035
615 1 13.4978 6.59461 0 1.00601 2 0 0.0795699 1 0.0020978 -0.00283337
616 1 14.4986 6.59367 0 1.00878 2 0 0.0838911 1 -0.00151027 0.000967752
666 1 13.9989 7.45834 0 0.997531 2 0 0.0995093 1 -0.0011903 -0.00181775
667 1 14.9983 7.45828 0 1.00922 2 0 0.104389 1 0.000277722 7.25963e-05
617 1 15.4983 6.59332 0 1.01132 2 0 0.0874697 1 -0.00434333 0.00287348
668 1 15.9973 7.45786 0 1.01232 2 0 0.108242 1 -5.97336e-05 0.00402108
619 1 16.4968 6.59366 0 1.00791 2 0 0.0904047 1 0.000744738 -0.00183973
669 1 17.4956 6.5927 0 1.0115 2 0 0.0928491 1 -0.00293464 -0.00229921
719 1 16.9956 7.45776 0 1.0104 2 0 0.111268 1 0.00275473 0.000351544
720 1 17.9951 7.45629 0 1.00384 2 0 0.114045 1 0.00189192 0.00057474
620 1 18.4932 6.58939 0 1.00047 2 0 0.0949907 1 0.000804412 -0.00210474
621 1 19.4925 6.58614 0 1.01086 2 0 0.0971682 1 0.000999748 -0.000928805
670 1 18.9934 7.44925 0 1.01205 2 0 0.117118 1 -0.00282419 0.00168677
671 1 19.9926 7.44584 0 1.01101 2 0 0.120128 1 -0.00090265 -0.00148186
622 1 20.4995 6.58607 0 1.02282 2 0 0.0989481 1 -0.000872823 0.00343766
623 1 21.4998 6.58913 0 1.01715 2 0 0.0997993 1 0.00106812 -0.00043343
672 1 20.9984 7.44972 0 1.01032 2 0 0.121979 1 -0.000577013 0.000589381
673 1 21.9979 7.4557 0 1.00705 2 0 0.122324 1 -0.00130513 -0.00096639
624 1 22.4984 6.59061 0 1.00933 2 0 0.099769 1 0.000229099 0.000890494
674 1 22.9961 7.45404 0 1.01197 2 0 0.121067 1 -0.000832045 0.00141974
625 1 23.4994 6.59306 0 1.01358 2 0 0.0994185 1 0.000905192 -0.00128736
626 1 24.4989 6.59351 0 1.01095 2 0 0.0998191 1 -0.00062167 0.00124691
675 1 23.9985 7.45851 0 1.00974 2 0 0.120248 1 -0.000636892 0.00138549
676 1 24.9976 7.45887 0 1.01754 2 0 0.123071 1 0.000646603 0.00106679
578 1 26.4979 6.59322 0 1.0136 2 0 0.104294 1 -0.000174572 0.000425907
628 1 25.9977 7.45847 0 1.00647 2 0 0.126658 1 -0.000268503 -0.000892263
627 1 25.4983 6.59422 0 1.0116 2 0 0.102095 1 0.000380284 -0.00124173
629 1 27.4979 6.59253 0 1.00585 2 0 0.105975 1 -0.000772488 -0.00188477
679 1 27.9969 7.45601 0 1.01276 2 0 0.131327 1 0.0006295 0.000176977
678 1 26.9971 7.45688 0 1.01987 2 0 0.128857 1 0.000548389 0.000454673
630 1 28.4977 6.59191 0 1.00031 2 0 0.107172 1 -0.000587886 -0.000796799
631 1 29.5066 6.5875 0 1.01679 2 0 0.107262 1 0.00135497 -0.000760769
680 1 29.0106 7.44757 0 1.0041 2 0 0.131903 1 -0.000162775 0.000173376
681 1 30.0081 7.45222 0 1.0067 2 0 0.130505 1 0.00144867 0.000730004
682 1 30.5055 6.5899 0 1.0233 2 0 0.1071 1 -0.00301726 5.26705e-05
633 1 31.5022 6.59223 0 1.00197 2 0 0.107812 1 0.000912614 -0.00272873
732 1 31.0059 7.48292 0 1.02086 2 0 0.131347 1 -0.000500679 0.000175912
683 1 32.0034 7.45415 0 1.00602 2 0 0.13312 1 0.000633191 -0.000250793
684 1 32.5013 6.58857 0 1.01173 2 0 0.108685 1 -0.000551964 0.000860411
734 1 33.0032 7.44963 0 1.01306 2 0 0.133947 1 0.000983884 -0.000499086
634 1 33.5005 6.58651 0 1.00318 2 0 0.108985 1 0.00298539 0.000867076
635 1 34.5005 6.58805 0 1.01335 2 0 0.109185 1 0.00147101 -0.00117047
685 1 34.0016 7.44953 0 1.01182 2 0 0.133308 1 -0.00136273 0.00127949