ITEM: TIMESTEP
25500
ITEM: NUMBER OF ATOMS
15950
ITEM: BOX BOUNDS pp pp pp
0.0000000000000000e+00 1.0000000000000000e+02
-5.0000000000000000e+00 2.0000000000000000e+02
-5.0000000000000000e-01 5.0000000000000000e-01
ITEM: ATOMS id type x y z c_rho c_phase c_nbond c_temp f_rheo_chi_chi fx fy
1 2 0 -5 0 1 2 8 8.28764e-10 1 0 0
2 2 1 -5 0 1 2 8 1.19297e-09 1 0 0
51 2 0 -4 0 1 2 8 4.87156e-09 1 0 0
52 2 1 -4 0 1 2 8 7.22947e-09 1 0 0
3 2 2 -5 0 1 2 8 2.42588e-09 1 0 0
4 2 3 -5 0 1 2 8 4.76779e-09 1 0 0
53 2 2 -4 0 1 2 8 1.53488e-08 1 0 0
54 2 3 -4 0 1 2 8 3.10686e-08 1 0 0
5 2 4 -5 0 1 2 7 8.51992e-09 1 0 0
55 2 4 -4 0 1 2 8 5.56821e-08 1 0 0
6 2 5 -5 0 1 2 6 1.39605e-08 1 0 0
7 2 6 -5 0 1 2 5 1.99962e-08 1 0 0
56 2 5 -4 0 1 2 8 8.82993e-08 1 0 0
57 2 6 -4 0 1 2 8 1.24968e-07 1 0 0
8 2 7 -5 0 1 2 5 2.56146e-08 1 0 0
9 2 8 -5 0 1 2 5 3.04344e-08 1 0 0
58 2 7 -4 0 1 2 8 1.60721e-07 1 0 0
59 2 8 -4 0 1 2 8 1.91554e-07 1 0 0
10 2 9 -5 0 1 2 5 3.41814e-08 1 0 0
60 2 9 -4 0 1 2 8 2.15532e-07 1 0 0
11 2 10 -5 0 1 2 5 3.69043e-08 1 0 0
12 2 11 -5 0 1 2 5 3.88929e-08 1 0 0
61 2 10 -4 0 1 2 8 2.32976e-07 1 0 0
62 2 11 -4 0 1 2 8 2.45769e-07 1 0 0
13 2 12 -5 0 1 2 5 4.04951e-08 1 0 0
14 2 13 -5 0 1 2 5 4.19176e-08 1 0 0
63 2 12 -4 0 1 2 8 2.56172e-07 1 0 0
64 2 13 -4 0 1 2 8 2.65496e-07 1 0 0
15 2 14 -5 0 1 2 5 4.31416e-08 1 0 0
65 2 14 -4 0 1 2 8 2.73487e-07 1 0 0
16 2 15 -5 0 1 2 5 4.40524e-08 1 0 0
17 2 16 -5 0 1 2 5 4.46425e-08 1 0 0
66 2 15 -4 0 1 2 8 2.79275e-07 1 0 0
67 2 16 -4 0 1 2 8 2.82882e-07 1 0 0
18 2 17 -5 0 1 2 5 4.50353e-08 1 0 0
19 2 18 -5 0 1 2 5 4.53115e-08 1 0 0
68 2 17 -4 0 1 2 8 2.85344e-07 1 0 0
69 2 18 -4 0 1 2 8 2.87334e-07 1 0 0
20 2 19 -5 0 1 2 5 4.53787e-08 1 0 0
70 2 19 -4 0 1 2 8 2.88182e-07 1 0 0
21 2 20 -5 0 1 2 5 4.50493e-08 1 0 0
22 2 21 -5 0 1 2 5 4.42387e-08 1 0 0
71 2 20 -4 0 1 2 8 2.86479e-07 1 0 0
72 2 21 -4 0 1 2 8 2.81528e-07 1 0 0
23 2 22 -5 0 1 2 5 4.3089e-08 1 0 0
24 2 23 -5 0 1 2 5 4.19383e-08 1 0 0
73 2 22 -4 0 1 2 8 2.74197e-07 1 0 0
74 2 23 -4 0 1 2 8 2.667e-07 1 0 0
25 2 24 -5 0 1 2 5 4.11811e-08 1 0 0
75 2 24 -4 0 1 2 8 2.61707e-07 1 0 0
26 2 25 -5 0 1 2 5 4.10898e-08 1 0 0
27 2 26 -5 0 1 2 5 4.16807e-08 1 0 0
76 2 25 -4 0 1 2 8 2.61132e-07 1 0 0
77 2 26 -4 0 1 2 8 2.65103e-07 1 0 0
28 2 27 -5 0 1 2 5 4.27287e-08 1 0 0
29 2 28 -5 0 1 2 5 4.39384e-08 1 0 0
78 2 27 -4 0 1 2 8 2.71994e-07 1 0 0
79 2 28 -4 0 1 2 8 2.7971e-07 1 0 0
30 2 29 -5 0 1 2 5 4.51101e-08 1 0 0
80 2 29 -4 0 1 2 8 2.86975e-07 1 0 0
31 2 30 -5 0 1 2 5 4.61444e-08 1 0 0
32 2 31 -5 0 1 2 5 4.69409e-08 1 0 0
81 2 30 -4 0 1 2 8 2.93336e-07 1 0 0
82 2 31 -4 0 1 2 8 2.98281e-07 1 0 0
33 2 32 -5 0 1 2 5 4.73777e-08 1 0 0
34 2 33 -5 0 1 2 5 4.74177e-08 1 0 0
83 2 32 -4 0 1 2 8 3.00985e-07 1 0 0
84 2 33 -4 0 1 2 8 3.01131e-07 1 0 0
35 2 34 -5 0 1 2 5 4.71855e-08 1 0 0
85 2 34 -4 0 1 2 8 2.99548e-07 1 0 0
36 2 35 -5 0 1 2 5 4.6878e-08 1 0 0
37 2 36 -5 0 1 2 5 4.65987e-08 1 0 0
86 2 35 -4 0 1 2 8 2.97607e-07 1 0 0
87 2 36 -4 0 1 2 8 2.96001e-07 1 0 0
38 2 37 -5 0 1 2 5 4.62914e-08 1 0 0
39 2 38 -5 0 1 2 5 4.58223e-08 1 0 0
88 2 37 -4 0 1 2 8 2.94279e-07 1 0 0
89 2 38 -4 0 1 2 8 2.91442e-07 1 0 0
40 2 39 -5 0 1 2 5 4.51136e-08 1 0 0
90 2 39 -4 0 1 2 8 2.86871e-07 1 0 0
41 2 40 -5 0 1 2 5 4.42398e-08 1 0 0
42 2 41 -5 0 1 2 5 4.34445e-08 1 0 0
91 2 40 -4 0 1 2 8 2.80999e-07 1 0 0
92 2 41 -4 0 1 2 8 2.75477e-07 1 0 0
43 2 42 -5 0 1 2 5 4.30454e-08 1 0 0
44 2 43 -5 0 1 2 5 4.32389e-08 1 0 0
93 2 42 -4 0 1 2 8 2.72565e-07 1 0 0
94 2 43 -4 0 1 2 8 2.73744e-07 1 0 0
45 2 44 -5 0 1 2 5 4.39204e-08 1 0 0
95 2 44 -4 0 1 2 8 2.78378e-07 1 0 0
46 2 45 -5 0 1 2 5 4.469e-08 1 0 0
47 2 46 -5 0 1 2 5 4.50977e-08 1 0 0
96 2 45 -4 0 1 2 8 2.83689e-07 1 0 0
97 2 46 -4 0 1 2 8 2.86509e-07 1 0 0
48 2 47 -5 0 1 2 5 4.49541e-08 1 0 0
49 2 48 -5 0 1 2 5 4.44486e-08 1 0 0
98 2 47 -4 0 1 2 8 2.85511e-07 1 0 0
99 2 48 -4 0 1 2 8 2.82041e-07 1 0 0
50 2 49 -5 0 1 2 5 4.39871e-08 1 0 0
100 2 49 -4 0 1 2 8 2.78946e-07 1 0 0
101 2 0 -3 0 1 2 8 2.61254e-08 1 0 0
102 2 1 -3 0 1 2 8 4.01237e-08 1 0 0
151 2 0 -2 0 1 2 8 1.26415e-07 1 0 0
152 2 1 -2 0 1 2 8 2.01711e-07 1 0 0
103 2 2 -3 0 1 2 8 8.93366e-08 1 0 0
104 2 3 -3 0 1 2 8 1.87296e-07 1 0 0
153 2 2 -2 0 1 2 8 4.72981e-07 1 0 0
154 2 3 -2 0 1 2 8 1.03107e-06 1 0 0
105 2 4 -3 0 1 2 8 3.43945e-07 1 0 0
155 2 4 -2 0 1 2 8 1.94854e-06 1 0 0
106 2 5 -3 0 1 2 8 5.53267e-07 1 0 0
107 2 6 -3 0 1 2 8 7.90539e-07 1 0 0
156 2 5 -2 0 1 2 8 3.19552e-06 1 0 0
157 2 6 -2 0 1 2 8 4.61858e-06 1 0 0
108 2 7 -3 0 1 2 8 1.02268e-06 1 0 0
109 2 8 -3 0 1 2 8 1.2227e-06 1 0 0
158 2 7 -2 0 1 2 8 6.01148e-06 1 0 0
159 2 8 -2 0 1 2 8 7.21037e-06 1 0 0
110 2 9 -3 0 1 2 8 1.37815e-06 1 0 0
160 2 9 -2 0 1 2 8 8.14285e-06 1 0 0
111 2 10 -3 0 1 2 8 1.49138e-06 1 0 0
112 2 11 -3 0 1 2 8 1.57477e-06 1 0 0
161 2 10 -2 0 1 2 8 8.8248e-06 1 0 0
162 2 11 -2 0 1 2 8 9.33057e-06 1 0 0
113 2 12 -3 0 1 2 8 1.64332e-06 1 0 0
114 2 13 -3 0 1 2 8 1.70557e-06 1 0 0
163 2 12 -2 0 1 2 8 9.75127e-06 1 0 0
164 2 13 -2 0 1 2 8 1.01384e-05 1 0 0
115 2 14 -3 0 1 2 8 1.7588e-06 1 0 0
165 2 14 -2 0 1 2 8 1.04688e-05 1 0 0
116 2 15 -3 0 1 2 8 1.79614e-06 1 0 0
117 2 16 -3 0 1 2 8 1.81827e-06 1 0 0
166 2 15 -2 0 1 2 8 1.06925e-05 1 0 0
167 2 16 -2 0 1 2 8 1.0817e-05 1 0 0
118 2 17 -3 0 1 2 8 1.83383e-06 1 0 0
119 2 18 -3 0 1 2 8 1.84841e-06 1 0 0
168 2 17 -2 0 1 2 8 1.09083e-05 1 0 0
169 2 18 -2 0 1 2 8 1.10078e-05 1 0 0
120 2 19 -3 0 1 2 8 1.85699e-06 1 0 0
170 2 19 -2 0 1 2 8 1.10804e-05 1 0 0
121 2 20 -3 0 1 2 8 1.84886e-06 1 0 0
122 2 21 -3 0 1 2 8 1.81845e-06 1 0 0
171 2 20 -2 0 1 2 8 1.10516e-05 1 0 0
172 2 21 -2 0 1 2 8 1.08822e-05 1 0 0
123 2 22 -3 0 1 2 8 1.77115e-06 1 0 0
124 2 23 -3 0 1 2 8 1.72164e-06 1 0 0
173 2 22 -2 0 1 2 8 1.06031e-05 1 0 0
174 2 23 -2 0 1 2 8 1.0303e-05 1 0 0
125 2 24 -3 0 1 2 8 1.68818e-06 1 0 0
175 2 24 -2 0 1 2 8 1.00963e-05 1 0 0
126 2 25 -3 0 1 2 8 1.6845e-06 1 0 0
127 2 26 -3 0 1 2 8 1.71172e-06 1 0 0
176 2 25 -2 0 1 2 8 1.00746e-05 1 0 0
177 2 26 -2 0 1 2 8 1.02475e-05 1 0 0
128 2 27 -3 0 1 2 8 1.75784e-06 1 0 0
129 2 28 -3 0 1 2 8 1.80762e-06 1 0 0
178 2 27 -2 0 1 2 8 1.05331e-05 1 0 0
179 2 28 -2 0 1 2 8 1.08282e-05 1 0 0
130 2 29 -3 0 1 2 8 1.85285e-06 1 0 0
180 2 29 -2 0 1 2 8 1.10843e-05 1 0 0
131 2 30 -3 0 1 2 8 1.89217e-06 1 0 0
132 2 31 -3 0 1 2 8 1.92327e-06 1 0 0
181 2 30 -2 0 1 2 8 1.13054e-05 1 0 0
182 2 31 -2 0 1 2 8 1.14852e-05 1 0 0
133 2 32 -3 0 1 2 8 1.94034e-06 1 0 0
134 2 33 -3 0 1 2 8 1.94053e-06 1 0 0
183 2 32 -2 0 1 2 8 1.15852e-05 1 0 0
184 2 33 -2 0 1 2 8 1.1582e-05 1 0 0
135 2 34 -3 0 1 2 8 1.92948e-06 1 0 0
185 2 34 -2 0 1 2 8 1.15112e-05 1 0 0
136 2 35 -3 0 1 2 8 1.91705e-06 1 0 0
137 2 36 -3 0 1 2 8 1.90799e-06 1 0 0
186 2 35 -2 0 1 2 8 1.14383e-05 1 0 0
187 2 36 -2 0 1 2 8 1.13935e-05 1 0 0
138 2 37 -3 0 1 2 8 1.89869e-06 1 0 0
139 2 38 -3 0 1 2 8 1.88162e-06 1 0 0
188 2 37 -2 0 1 2 8 1.13505e-05 1 0 0
189 2 38 -2 0 1 2 8 1.12579e-05 1 0 0
140 2 39 -3 0 1 2 8 1.85193e-06 1 0 0
190 2 39 -2 0 1 2 8 1.10812e-05 1 0 0
141 2 40 -3 0 1 2 8 1.81201e-06 1 0 0
142 2 41 -3 0 1 2 8 1.77315e-06 1 0 0
191 2 40 -2 0 1 2 8 1.08316e-05 1 0 0
192 2 41 -2 0 1 2 8 1.05795e-05 1 0 0
143 2 42 -3 0 1 2 8 1.75166e-06 1 0 0
144 2 43 -3 0 1 2 8 1.7589e-06 1 0 0
193 2 42 -2 0 1 2 8 1.04334e-05 1 0 0
194 2 43 -2 0 1 2 8 1.04732e-05 1 0 0
145 2 44 -3 0 1 2 8 1.791e-06 1 0 0
195 2 44 -2 0 1 2 8 1.06783e-05 1 0 0
146 2 45 -3 0 1 2 8 1.82832e-06 1 0 0
147 2 46 -3 0 1 2 8 1.84808e-06 1 0 0
196 2 45 -2 0 1 2 8 1.09201e-05 1 0 0
197 2 46 -2 0 1 2 8 1.10472e-05 1 0 0
148 2 47 -3 0 1 2 8 1.84083e-06 1 0 0
149 2 48 -3 0 1 2 8 1.81636e-06 1 0 0
198 2 47 -2 0 1 2 8 1.09982e-05 1 0 0
199 2 48 -2 0 1 2 8 1.08387e-05 1 0 0
150 2 49 -3 0 1 2 8 1.79502e-06 1 0 0
200 2 49 -2 0 1 2 8 1.07022e-05 1 0 0
201 2 0 -1 0 1 2 8 5.44959e-07 1 0 0
202 2 1 -1 0 1 2 8 9.0666e-07 1 0 0
203 2 2 -1 0 1 2 8 2.24765e-06 1 0 0
204 2 3 -1 0 1 2 8 5.11489e-06 1 0 0
205 2 4 -1 0 1 2 8 9.98316e-06 1 0 0
206 2 5 -1 0 1 2 8 1.67292e-05 1 0 0
207 2 6 -1 0 1 2 8 2.44779e-05 1 0 0
208 2 7 -1 0 1 2 8 3.20569e-05 1 0 0
209 2 8 -1 0 1 2 8 3.8574e-05 1 0 0
210 2 9 -1 0 1 2 8 4.36583e-05 1 0 0
211 2 10 -1 0 1 2 8 4.7407e-05 1 0 0
212 2 11 -1 0 1 2 8 5.02169e-05 1 0 0
213 2 12 -1 0 1 2 8 5.25829e-05 1 0 0
214 2 13 -1 0 1 2 8 5.47902e-05 1 0 0
215 2 14 -1 0 1 2 8 5.66705e-05 1 0 0
216 2 15 -1 0 1 2 8 5.78961e-05 1 0 0
217 2 16 -1 0 1 2 8 5.85322e-05 1 0 0
218 2 17 -1 0 1 2 8 5.90253e-05 1 0 0
219 2 18 -1 0 1 2 8 5.96485e-05 1 0 0
220 2 19 -1 0 1 2 8 6.01758e-05 1 0 0
221 2 20 -1 0 1 2 8 6.01425e-05 1 0 0
222 2 21 -1 0 1 2 8 5.93084e-05 1 0 0
223 2 22 -1 0 1 2 8 5.78391e-05 1 0 0
224 2 23 -1 0 1 2 8 5.62071e-05 1 0 0
225 2 24 -1 0 1 2 8 5.50541e-05 1 0 0
226 2 25 -1 0 1 2 8 5.49392e-05 1 0 0
227 2 26 -1 0 1 2 8 5.59381e-05 1 0 0
228 2 27 -1 0 1 2 8 5.75441e-05 1 0 0
229 2 28 -1 0 1 2 8 5.91186e-05 1 0 0
230 2 29 -1 0 1 2 8 6.04062e-05 1 0 0
231 2 30 -1 0 1 2 8 6.15086e-05 1 0 0
232 2 31 -1 0 1 2 8 6.24457e-05 1 0 0
233 2 32 -1 0 1 2 8 6.29814e-05 1 0 0
234 2 33 -1 0 1 2 8 6.29444e-05 1 0 0
235 2 34 -1 0 1 2 8 6.25362e-05 1 0 0
236 2 35 -1 0 1 2 8 6.21538e-05 1 0 0
237 2 36 -1 0 1 2 8 6.19707e-05 1 0 0
238 2 37 -1 0 1 2 8 6.18147e-05 1 0 0
239 2 38 -1 0 1 2 8 6.13742e-05 1 0 0
240 2 39 -1 0 1 2 8 6.04321e-05 1 0 0
241 2 40 -1 0 1 2 8 5.9026e-05 1 0 0
242 2 41 -1 0 1 2 8 5.75482e-05 1 0 0
243 2 42 -1 0 1 2 8 5.66505e-05 1 0 0
244 2 43 -1 0 1 2 8 5.68409e-05 1 0 0
245 2 44 -1 0 1 2 8 5.80247e-05 1 0 0
246 2 45 -1 0 1 2 8 5.94389e-05 1 0 0
247 2 46 -1 0 1 2 8 6.01752e-05 1 0 0
248 2 47 -1 0 1 2 8 5.98727e-05 1 0 0
249 2 48 -1 0 1 2 8 5.89307e-05 1 0 0
250 2 49 -1 0 1 2 8 5.81378e-05 1 0 0
251 2 0 0 0 1 2 8 2.06365e-06 1 0 0
252 2 1 0 0 1 2 8 3.58909e-06 1 0 0
301 2 0 1 0 1 2 8 6.76525e-06 1 0 0
302 2 1 1 0 1 2 8 1.23059e-05 1 0 0
253 2 2 0 0 1 2 8 9.43294e-06 1 0 0
254 2 3 0 0 1 2 8 2.24935e-05 1 0 0
303 2 2 1 0 1 2 8 3.42954e-05 1 0 0
304 2 3 1 0 1 2 8 8.58847e-05 1 0 0
255 2 4 0 0 1 2 8 4.55241e-05 1 0 0
305 2 4 1 0 1 2 8 0.000180946 1 0 0
256 2 5 0 0 1 2 8 7.81613e-05 1 0 0
257 2 6 0 0 1 2 8 0.000115858 1 0 0
306 2 5 1 0 1 2 8 0.000319362 1 0 0
307 2 6 1 0 1 2 8 0.000479796 1 0 0
258 2 7 0 0 1 2 8 0.000152625 1 0 0
259 2 8 0 0 1 2 8 0.000184218 1 0 0
308 2 7 1 0 1 2 8 0.000635139 1 0 0
309 2 8 1 0 1 2 8 0.000768629 1 0 0
260 2 9 0 0 1 2 8 0.00020902 1 0 0
310 2 9 1 0 1 2 8 0.000874628 1 0 0
261 2 10 0 0 1 2 8 0.000227561 1 0 0
262 2 11 0 0 1 2 8 0.000241673 1 0 0
311 2 10 1 0 1 2 8 0.000955551 1 0 0
312 2 11 1 0 1 2 8 0.00101849 1 0 0
263 2 12 0 0 1 2 8 0.000253699 1 0 0
264 2 13 0 0 1 2 8 0.000265066 1 0 0
313 2 12 1 0 1 2 8 0.00107272 1 0 0
314 2 13 1 0 1 2 8 0.00112455 1 0 0
265 2 14 0 0 1 2 8 0.000274747 1 0 0
315 2 14 1 0 1 2 8 0.00116882 1 0 0
266 2 15 0 0 1 2 8 0.000280833 1 0 0
267 2 16 0 0 1 2 8 0.000283777 1 0 0
316 2 15 1 0 1 2 8 0.00119592 1 0 0
317 2 16 1 0 1 2 8 0.00120843 1 0 0
268 2 17 0 0 1 2 8 0.000286238 1 0 0
269 2 18 0 0 1 2 8 0.000289775 1 0 0
318 2 17 1 0 1 2 8 0.00121987 1 0 0
319 2 18 1 0 1 2 8 0.00123777 1 0 0
270 2 19 0 0 1 2 8 0.000293077 1 0 0
320 2 19 1 0 1 2 8 0.00125543 1 0 0
271 2 20 0 0 1 2 8 0.000293589 1 0 0
272 2 21 0 0 1 2 8 0.000290074 1 0 0
321 2 20 1 0 1 2 8 0.00126081 1 0 0
322 2 21 1 0 1 2 8 0.00124879 1 0 0
273 2 22 0 0 1 2 8 0.000283346 1 0 0
274 2 23 0 0 1 2 8 0.000275576 1 0 0
323 2 22 1 0 1 2 8 0.0012231 1 0 0
324 2 23 1 0 1 2 8 0.00119188 1 0 0
275 2 24 0 0 1 2 8 0.000269894 1 0 0
325 2 24 1 0 1 2 8 0.00116792 1 0 0
276 2 25 0 0 1 2 8 0.000269359 1 0 0
277 2 26 0 0 1 2 8 0.000274515 1 0 0
326 2 25 1 0 1 2 8 0.00116589 1 0 0
327 2 26 1 0 1 2 8 0.00118909 1 0 0
278 2 27 0 0 1 2 8 0.000282575 1 0 0
279 2 28 0 0 1 2 8 0.000290002 1 0 0
328 2 27 1 0 1 2 8 0.00122434 1 0 0
329 2 28 1 0 1 2 8 0.00125457 1 0 0
280 2 29 0 0 1 2 8 0.000295603 1 0 0
330 2 29 1 0 1 2 8 0.00127493 1 0 0
281 2 30 0 0 1 2 8 0.000300363 1 0 0
282 2 31 0 0 1 2 8 0.000304693 1 0 0
331 2 30 1 0 1 2 8 0.00129215 1 0 0
332 2 31 1 0 1 2 8 0.00130951 1 0 0
283 2 32 0 0 1 2 8 0.000307286 1 0 0
284 2 33 0 0 1 2 8 0.000307039 1 0 0
333 2 32 1 0 1 2 8 0.00132067 1 0 0
334 2 33 1 0 1 2 8 0.00131955 1 0 0
285 2 34 0 0 1 2 8 0.000304965 1 0 0
335 2 34 1 0 1 2 8 0.00131055 1 0 0
286 2 35 0 0 1 2 8 0.000303218 1 0 0
287 2 36 0 0 1 2 8 0.00030267 1 0 0
336 2 35 1 0 1 2 8 0.00130385 1 0 0
337 2 36 1 0 1 2 8 0.00130321 1 0 0
288 2 37 0 0 1 2 8 0.000302331 1 0 0
289 2 38 0 0 1 2 8 0.000300547 1 0 0
338 2 37 1 0 1 2 8 0.00130365 1 0 0
339 2 38 1 0 1 2 8 0.00129776 1 0 0
290 2 39 0 0 1 2 8 0.000296144 1 0 0
340 2 39 1 0 1 2 8 0.00128027 1 0 0
291 2 40 0 0 1 2 8 0.000289156 1 0 0
292 2 41 0 0 1 2 8 0.000281486 1 0 0
341 2 40 1 0 1 2 8 0.00125056 1 0 0
342 2 41 1 0 1 2 8 0.0012163 1 0 0
293 2 42 0 0 1 2 8 0.000276603 1 0 0
294 2 43 0 0 1 2 8 0.000277363 1 0 0
343 2 42 1 0 1 2 8 0.00119345 1 0 0
344 2 43 1 0 1 2 8 0.0011958 1 0 0
295 2 44 0 0 1 2 8 0.000283414 1 0 0
345 2 44 1 0 1 2 8 0.00122243 1 0 0
296 2 45 0 0 1 2 8 0.000290733 1 0 0
297 2 46 0 0 1 2 8 0.000294482 1 0 0
346 2 45 1 0 1 2 8 0.00125499 1 0 0
347 2 46 1 0 1 2 8 0.00127122 1 0 0
298 2 47 0 0 1 2 8 0.000292808 1 0 0
299 2 48 0 0 1 2 8 0.00028787 1 0 0
348 2 47 1 0 1 2 8 0.00126311 1 0 0
349 2 48 1 0 1 2 8 0.00124077 1 0 0
300 2 49 0 0 1 2 8 0.000283765 1 0 0
350 2 49 1 0 1 2 8 0.00122231 1 0 0
351 2 0 2 0 1 2 8 1.89475e-05 1 0 0
352 2 1 2 0 1 2 8 3.59559e-05 1 0 0
401 2 0 3 0 1 2 8 4.49193e-05 1 0 0
402 2 1 3 0 1 2 8 8.84723e-05 1 0 0
353 2 2 2 0 1 2 8 0.000105796 1 0 0
354 2 3 2 0 1 2 8 0.000277438 1 0 0
403 2 2 3 0 1 2 8 0.000272107 1 0 0
404 2 3 3 0 1 2 8 0.000738278 1 0 0
355 2 4 2 0 1 2 8 0.000609532 1 0 0
405 2 4 3 0 1 2 8 0.001671 1 0 0
356 2 5 2 0 1 2 8 0.00111034 1 0 0
357 2 6 2 0 1 2 8 0.00168969 1 0 0
406 2 5 3 0 1 2 8 0.00316621 1 0 0
407 2 6 3 0 1 2 8 0.00488052 1 0 0
358 2 7 2 0 1 2 8 0.00224174 1 0 0
359 2 8 2 0 1 2 8 0.00271736 1 0 0
408 2 7 3 0 1 2 8 0.00644021 1 0 0
409 2 8 3 0 1 2 8 0.00780418 1 0 0
360 2 9 2 0 1 2 8 0.00310245 1 0 0
410 2 9 3 0 1 2 8 0.00894703 1 0 0
361 2 10 2 0 1 2 8 0.00340539 1 0 0
362 2 11 2 0 1 2 8 0.00364815 1 0 0
411 2 10 3 0 1 2 8 0.00988137 1 0 0
412 2 11 3 0 1 2 8 0.0106624 1 0 0
363 2 12 2 0 1 2 8 0.00385954 1 0 0
364 2 13 2 0 1 2 8 0.00406287 1 0 0
413 2 12 3 0 1 2 8 0.0113508 1 0 0
414 2 13 3 0 1 2 8 0.012011 1 0 0
365 2 14 2 0 1 2 8 0.00423773 1 0 0
415 2 14 3 0 1 2 8 0.0125877 1 0 0
366 2 15 2 0 1 2 8 0.00434457 1 0 0
367 2 16 2 0 1 2 8 0.00439473 1 0 0
416 2 15 3 0 1 2 8 0.0129553 1 0 0
417 2 16 3 0 1 2 8 0.0131511 1 0 0
368 2 17 2 0 1 2 8 0.00444445 1 0 0
369 2 18 2 0 1 2 8 0.00452332 1 0 0
418 2 17 3 0 1 2 8 0.0133533 1 0 0
419 2 18 3 0 1 2 8 0.013649 1 0 0
370 2 19 2 0 1 2 8 0.00460235 1 0 0
420 2 19 3 0 1 2 8 0.0139383 1 0 0
371 2 20 2 0 1 2 8 0.00463475 1 0 0
372 2 21 2 0 1 2 8 0.00460527 1 0 0
421 2 20 3 0 1 2 8 0.0140797 1 0 0
422 2 21 3 0 1 2 8 0.0140513 1 0 0
373 2 22 2 0 1 2 8 0.00452968 1 0 0
374 2 23 2 0 1 2 8 0.00443038 1 0 0
423 2 22 3 0 1 2 8 0.0139142 1 0 0
424 2 23 3 0 1 2 8 0.0136982 1 0 0
375 2 24 2 0 1 2 8 0.00434867 1 0 0
425 2 24 3 0 1 2 8 0.0134961 1 0 0
376 2 25 2 0 1 2 8 0.00434364 1 0 0
377 2 26 2 0 1 2 8 0.00443147 1 0 0
426 2 25 3 0 1 2 8 0.0135019 1 0 0
427 2 26 3 0 1 2 8 0.0137667 1 0 0
378 2 27 2 0 1 2 8 0.00456119 1 0 0
379 2 28 2 0 1 2 8 0.00466385 1 0 0
428 2 27 3 0 1 2 8 0.014151 1 0 0
429 2 28 3 0 1 2 8 0.0144323 1 0 0
380 2 29 2 0 1 2 8 0.00472288 1 0 0
430 2 29 3 0 1 2 8 0.0145607 1 0 0
381 2 30 2 0 1 2 8 0.00477281 1 0 0
382 2 31 2 0 1 2 8 0.00483164 1 0 0
431 2 30 3 0 1 2 8 0.0146742 1 0 0
432 2 31 3 0 1 2 8 0.0148384 1 0 0
383 2 32 2 0 1 2 8 0.00487333 1 0 0
384 2 33 2 0 1 2 8 0.00487039 1 0 0
433 2 32 3 0 1 2 8 0.0149706 1 0 0
434 2 33 3 0 1 2 8 0.0149735 1 0 0
385 2 34 2 0 1 2 8 0.00483858 1 0 0
435 2 34 3 0 1 2 8 0.0148875 1 0 0
386 2 35 2 0 1 2 8 0.00481853 1 0 0
387 2 36 2 0 1 2 8 0.00482304 1 0 0
436 2 35 3 0 1 2 8 0.0148472 1 0 0
437 2 36 3 0 1 2 8 0.0148839 1 0 0
388 2 37 2 0 1 2 8 0.00483127 1 0 0
389 2 38 2 0 1 2 8 0.00481635 1 0 0
438 2 37 3 0 1 2 8 0.0149246 1 0 0
439 2 38 3 0 1 2 8 0.0148965 1 0 0
390 2 39 2 0 1 2 8 0.00476003 1 0 0
440 2 39 3 0 1 2 8 0.0147605 1 0 0
391 2 40 2 0 1 2 8 0.00465707 1 0 0
392 2 41 2 0 1 2 8 0.00453101 1 0 0
441 2 40 3 0 1 2 8 0.0144956 1 0 0
442 2 41 3 0 1 2 8 0.0141378 1 0 0
393 2 42 2 0 1 2 8 0.00444302 1 0 0
394 2 43 2 0 1 2 8 0.00444783 1 0 0
443 2 42 3 0 1 2 8 0.0138784 1 0 0
444 2 43 3 0 1 2 8 0.0138806 1 0 0
395 2 44 2 0 1 2 8 0.00454436 1 0 0
445 2 44 3 0 1 2 8 0.0141488 1 0 0
396 2 45 2 0 1 2 8 0.00466332 1 0 0
397 2 46 2 0 1 2 8 0.00471984 1 0 0
446 2 45 3 0 1 2 8 0.014482 1 0 0
447 2 46 3 0 1 2 8 0.0146251 1 0 0
398 2 47 2 0 1 2 8 0.00468664 1 0 0
399 2 48 2 0 1 2 8 0.00460312 1 0 0
448 2 47 3 0 1 2 8 0.0145146 1 0 0
449 2 48 3 0 1 2 8 0.0142752 1 0 0
400 2 49 2 0 1 2 8 0.00453393 1 0 0
450 2 49 3 0 1 2 8 0.014069 1 0 0
451 2 0 4 0 1 2 8 8.99467e-05 1 0 0
452 2 1 4 0 1 2 8 0.00018267 1 0 0
453 2 2 4 0 1 2 8 0.000581051 1 0 0
454 2 3 4 0 1 2 8 0.00159978 1 0 0
455 2 4 4 0 1 2 7 0.00354535 1 0 0
456 2 5 4 0 1 2 6 0.00700828 1 0 0
457 2 6 4 0 1 2 5 0.0106344 1 0 0
506 1 5.48223 4.874 0 1.0006 2 0 0.0131377 1 -0.000468324 -0.000879817
507 1 6.49292 4.86744 0 1.02569 2 0 0.0167278 1 0.00227054 0.00394567
458 2 7 4 0 1 2 5 0.0137162 1 0 0
459 2 8 4 0 1 2 5 0.0165555 1 0 0
508 1 7.49344 4.86568 0 1.03193 2 0 0.0203429 1 0.00212626 0.00373527
460 2 9 4 0 1 2 5 0.0190462 1 0 0
510 1 8.49575 4.86326 0 1.01036 2 0 0.0237665 1 0.00547208 0.00607972
511 1 9.49809 4.86657 0 1.00136 2 0 0.0269236 1 0.00492684 -0.00688702
461 2 10 4 0 1 2 5 0.0211881 1 0 0
462 2 11 4 0 1 2 5 0.0230854 1 0 0
512 1 10.5 4.86417 0 1.01573 2 0 0.0298994 1 -0.00162192 0.0033191
513 1 11.4988 4.86671 0 1.01534 2 0 0.0327138 1 0.00530318 -0.0048108
463 2 12 4 0 1 2 5 0.0248011 1 0 0
464 2 13 4 0 1 2 5 0.0264111 1 0 0
514 1 12.5003 4.86636 0 1.01802 2 0 0.0353213 1 -0.00429442 -0.00198648
465 2 14 4 0 1 2 5 0.0278432 1 0 0
515 1 13.4987 4.86326 0 1.02031 2 0 0.0377341 1 0.00252998 0.00485595
516 1 14.4997 4.86506 0 1.0096 2 0 0.0398816 1 -0.00922474 -0.00796123
466 2 15 4 0 1 2 5 0.0288751 1 0 0
467 2 16 4 0 1 2 5 0.029561 1 0 0
518 1 16.4969 4.86468 0 1.02515 2 0 0.0434129 1 -0.007124 -0.00908481
517 1 15.4967 4.86406 0 1.02614 2 0 0.0417385 1 0.0059373 -0.000795306
468 2 17 4 0 1 2 5 0.0302459 1 0 0
469 2 18 4 0 1 2 5 0.03109 1 0 0
519 1 17.4946 4.86247 0 1.0239 2 0 0.0449648 1 0.00430996 0.000678122
470 2 19 4 0 1 2 5 0.031867 1 0 0
520 1 18.4952 4.86042 0 1.00577 2 0 0.0463702 1 -0.00264074 0.00713799
521 1 19.4942 4.85859 0 1.00453 2 0 0.047543 1 0.0058219 0.0146916
471 2 20 4 0 1 2 5 0.0323202 1 0 0
472 2 21 4 0 1 2 5 0.0324683 1 0 0
523 1 21.4989 4.86156 0 1.02268 2 0 0.0492147 1 0.00264759 0.00012918
522 1 20.4989 4.85948 0 1.0139 2 0 0.0484604 1 -0.00113256 0.00722497
473 2 22 4 0 1 2 5 0.0324795 1 0 0
474 2 23 4 0 1 2 5 0.0323112 1 0 0
524 1 22.501 4.86234 0 1.01383 2 0 0.0498537 1 -0.00426989 0.00562031
475 2 24 4 0 1 2 5 0.0320887 1 0 0
525 1 23.5003 4.86256 0 1.03669 2 0 0.0503561 1 -0.00268601 0.00918772
526 1 24.4988 4.86248 0 1.04245 2 0 0.050854 1 -0.00499735 0.00351814
476 2 25 4 0 1 2 5 0.032218 1 0 0
477 2 26 4 0 1 2 5 0.0327774 1 0 0
528 1 26.4958 4.8621 0 1.04147 2 0 0.0521552 1 0.0021362 -0.000669698
527 1 25.4963 4.86234 0 1.03798 2 0 0.0514653 1 0.00422938 0.000373752
478 2 27 4 0 1 2 5 0.0335714 1 0 0
479 2 28 4 0 1 2 5 0.0341237 1 0 0
529 1 27.4969 4.86325 0 1.0019 2 0 0.0528112 1 -0.00280091 -0.000710596
480 2 29 4 0 1 2 5 0.0343511 1 0 0
531 1 29.4947 4.86352 0 1.01679 2 0 0.0538322 1 0.00446146 0.00113148
530 1 28.4959 4.86167 0 1.02091 2 0 0.0533615 1 0.00236569 0.00710559
481 2 30 4 0 1 2 5 0.0345647 1 0 0
482 2 31 4 0 1 2 5 0.0349102 1 0 0
533 1 31.4961 4.86364 0 1.004 2 0 0.0547154 1 0.00510997 -0.00240107
532 1 30.4976 4.86266 0 1.0182 2 0 0.0542756 1 -0.00323757 0.00548886
483 2 32 4 0 1 2 5 0.0352197 1 0 0
484 2 33 4 0 1 2 5 0.0352847 1 0 0
534 1 32.4982 4.8627 0 1.00171 2 0 0.0550482 1 -0.00509837 0.00277937
485 2 34 4 0 1 2 5 0.0351522 1 0 0
535 1 33.4966 4.86476 0 1.00275 2 0 0.055235 1 0.00741352 -0.00173191
536 1 34.5018 4.86616 0 1.0237 2 0 0.0553536 1 0.00223329 -0.0075267
486 2 35 4 0 1 2 5 0.0351263 1 0 0
487 2 36 4 0 1 2 5 0.0352522 1 0 0
538 1 36.501 4.86441 0 1.01227 2 0 0.0557368 1 -0.00114853 0.00482033
537 1 35.5018 4.86454 0 1.0067 2 0 0.0555439 1 -0.00359226 0.00252818
488 2 37 4 0 1 2 5 0.035356 1 0 0
489 2 38 4 0 1 2 5 0.035315 1 0 0
539 1 37.5002 4.86212 0 1.00174 2 0 0.0558104 1 -0.00482169 0.00603812
490 2 39 4 0 1 2 5 0.0351108 1 0 0
541 1 39.499 4.86364 0 1.00168 2 0 0.0556791 1 -0.00114803 -0.00356422
540 1 38.4987 4.86328 0 1.01715 2 0 0.0558051 1 -4.23606e-05 -0.00288835
491 2 40 4 0 1 2 5 0.0346988 1 0 0
492 2 41 4 0 1 2 5 0.034056 1 0 0
542 1 40.4983 4.86393 0 1.01016 2 0 0.0554518 1 0.00544105 0.000952066
543 1 41.4987 4.86503 0 1.03252 2 0 0.0552406 1 0.00162844 -0.006668
493 2 42 4 0 1 2 5 0.0335851 1 0 0
494 2 43 4 0 1 2 5 0.0335778 1 0 0
544 1 42.5012 4.86416 0 1.0319 2 0 0.0551984 1 -0.00392974 -0.00308734
495 2 44 4 0 1 2 5 0.0340389 1 0 0
545 1 43.4997 4.86344 0 1.03659 2 0 0.0553184 1 0.00485195 0.00352011
546 1 44.4993 4.8637 0 1.01001 2 0 0.055498 1 0.00393242 0.000765711
496 2 45 4 0 1 2 5 0.0346143 1 0 0
497 2 46 4 0 1 2 5 0.0348159 1 0 0
548 1 46.5003 4.86232 0 1.00807 2 0 0.0557073 1 -0.00301881 0.00602686
547 1 45.5001 4.86394 0 1.00173 2 0 0.0556776 1 0.000749608 -0.00366091
498 2 47 4 0 1 2 5 0.0345749 1 0 0
499 2 48 4 0 1 2 5 0.0341416 1 0 0
549 1 47.4984 4.86256 0 1.02093 2 0 0.0555817 1 0.00382804 0.00362541
500 2 49 4 0 1 2 5 0.0337622 1 0 0
550 1 48.498 4.86289 0 1.02225 2 0 0.0555063 1 0.00362387 -0.00128778
8501 1 49.4983 4.86256 0 1.06187 2 0 0.055556 1 -0.000398979 0.00106173
501 2 0 5 0 1 2 8 0.000153431 1 0 0
502 2 1 5 0 1 2 8 0.000318898 1 0 0
551 2 0 6 0 1 2 8 0.000227795 1 0 0
552 2 1 6 0 1 2 8 0.000481136 1 0 0
503 2 2 5 0 1 2 8 0.00103733 1 0 0
504 2 3 5 0 1 2 8 0.00289459 1 0 0
553 2 2 6 0 1 2 8 0.00158176 1 0 0
554 2 3 6 0 1 2 8 0.00441827 1 0 0
505 2 4 5 0 1 2 6 0.00644455 1 0 0
555 2 4 6 0 1 2 5 0.00957856 1 0 0
556 1 4.9583 5.72574 0 1.02426 2 0 0.0142327 1 0.00618331 -0.00180279
557 1 5.97003 5.74435 0 1.00456 2 0 0.0189549 1 0.000840575 0.00114601
558 1 6.98557 5.73786 0 1.00032 2 0 0.0232658 1 -0.00184657 -0.00317468
509 1 7.99653 5.72833 0 1.00999 2 0 0.0275946 1 0.000156861 0.00445864
560 1 8.9987 5.72785 0 1.01571 2 0 0.0316903 1 -0.00290445 0.000450314
561 1 10.0029 5.73062 0 1.04128 2 0 0.0356446 1 -0.00821057 -0.00871587
562 1 10.9998 5.73013 0 1.02468 2 0 0.0394332 1 0.00502968 0.00233094
563 1 12.0005 5.73285 0 1.00884 2 0 0.0430022 1 -0.0105848 -0.00284471
565 1 12.9951 5.73406 0 1.01555 2 0 0.0463966 1 0.00918078 -0.0027818
566 1 13.9968 5.72799 0 1.01485 2 0 0.0495446 1 -0.00580663 0.00300897
567 1 14.9943 5.72845 0 1.00349 2 0 0.0523976 1 0.00670026 0.00507495
568 1 15.994 5.72749 0 1.02492 2 0 0.055024 1 -0.00494472 0.00394773
569 1 17.9905 5.72443 0 1.01386 2 0 0.0595132 1 0.00578016 -0.00107432
618 1 16.9912 5.72642 0 1.00786 2 0 0.0574075 1 0.00808078 0.00604113
570 1 18.992 5.72188 0 1.00562 2 0 0.0613416 1 0.00128284 0.000366989
571 1 19.9953 5.72055 0 1.00943 2 0 0.0629309 1 -0.00242288 -0.000803168
572 1 20.9971 5.72125 0 1.02492 2 0 0.0643558 1 -0.00264391 0.00463265
573 1 21.9968 5.72533 0 1.00977 2 0 0.0656069 1 0.000647572 -0.00438338
574 1 22.9976 5.72734 0 1.00488 2 0 0.0666947 1 -0.00375683 -0.00416617
575 1 23.9952 5.73073 0 1.01237 2 0 0.0676944 1 0.00271681 -0.0106215
576 1 24.9948 5.7261 0 1.01087 2 0 0.0685954 1 -0.00325284 -0.000878538
577 1 25.9935 5.72439 0 1.01133 2 0 0.0694315 1 0.000691744 0.00584723
579 1 26.9909 5.72516 0 1.01129 2 0 0.0701817 1 0.0069722 0.00425341
580 1 27.9942 5.72544 0 1.02117 2 0 0.070933 1 -0.00395993 0.00413879
581 1 28.9921 5.72725 0 1.01861 2 0 0.0716462 1 0.00449962 -0.00549893
632 1 29.9925 5.72677 0 1.0167 2 0 0.0722286 1 0.00374122 -0.000420399
582 1 30.9953 5.72702 0 1.0143 2 0 0.0727906 1 -0.00291158 -0.0027342
583 1 31.9946 5.72635 0 1.0088 2 0 0.0732753 1 0.00337351 0.00118357
584 1 32.9943 5.72646 0 1.00514 2 0 0.0737044 1 -0.00322316 0.0018525
585 1 34.0008 5.72699 0 1.02197 2 0 0.0741273 1 -0.00351592 0.00784581
586 1 35.0026 5.73052 0 1.02669 2 0 0.0744815 1 -0.00758118 -0.00452807
587 1 36 5.73087 0 1.01702 2 0 0.0748031 1 0.00384845 0.00100031
588 1 36.9989 5.73294 0 1.01798 2 0 0.0750205 1 -0.00368618 -0.000889587
589 1 37.9963 5.72664 0 1.01656 2 0 0.0750587 1 0.00199795 -0.000691636
590 1 38.9959 5.72474 0 1.01208 2 0 0.0750935 1 -0.00250924 0.00162761
591 1 39.9976 5.72646 0 1.01334 2 0 0.0751246 1 0.00142869 0.000448741
592 1 41.0001 5.72849 0 1.02633 2 0 0.0752417 1 -0.00387421 -0.00353814
594 1 43.0011 5.72753 0 1.01497 2 0 0.0753545 1 0.00201504 0.000567731
593 1 42.0007 5.7269 0 1.02837 2 0 0.0753372 1 0.00106975 0.00202844
595 1 44.0022 5.72791 0 1.01694 2 0 0.0752706 1 0.000344448 -0.00462633
596 1 45.0022 5.72741 0 1.01116 2 0 0.075246 1 -0.00422452 -0.00102919
597 1 46.0012 5.72656 0 1.01212 2 0 0.0753281 1 0.000709896 0.00100516
598 1 46.9997 5.72762 0 1.00861 2 0 0.0753742 1 0.000745637 -0.00398095
599 1 47.9991 5.72543 0 1.02545 2 0 0.0754452 1 -0.00231899 0.00325739
600 1 48.9984 5.72571 0 1.00476 2 0 0.0756042 1 -0.00123097 0.000156297
10501 1 49.9489 41.8754 0 1.00798 0 0 0.495808 1 -0.000238619 -0.000199396
601 2 0 7 0 1 2 8 0.000303181 1 0 0
602 2 1 7 0 1 2 8 0.000648265 1 0 0
651 2 0 8 0 1 2 8 0.000371554 1 0 0
652 2 1 8 0 1 2 8 0.00080327 1 0 0
603 2 2 7 0 1 2 8 0.00214702 1 0 0
604 2 3 7 0 1 2 8 0.00601524 1 0 0
653 2 2 8 0 1 2 8 0.00268129 1 0 0
654 2 3 8 0 1 2 8 0.00758981 1 0 0
605 2 4 7 0 1 2 5 0.0128134 1 0 0
655 2 4 8 0 1 2 5 0.0159029 1 0 0
656 1 4.87868 7.48197 0 1.01253 2 0 0.0196789 1 0 -5e-05
606 1 5.41663 6.61694 0 1.01839 2 0 0.0200573 1 -0.00180892 -8.80143e-05
607 1 6.4155 6.63793 0 1.01626 2 0 0.0252776 1 0.00169821 0.0006089
657 1 5.88931 7.51354 0 1.02523 2 0 0.0262233 1 0 -5e-05
608 1 7.4934 6.5972 0 1.01581 2 0 0.0306792 1 -0.000632172 -0.00504153
609 1 7.98823 7.46207 0 1.00447 2 0 0.0386 1 0.000734495 0.00145679
658 1 6.98601 7.45765 0 1.00499 2 0 0.0327364 1 -0.00123832 0.00106922
559 1 8.50188 6.59243 0 1.01669 2 0 0.0356354 1 -0.010772 -0.00125256
610 1 9.49969 6.5918 0 1.00382 2 0 0.0405187 1 0.00626927 0.00109954
661 1 9.00095 7.4549 0 1.00906 2 0 0.0443699 1 0.00250288 0.00569142
612 1 10.0017 7.45668 0 1.00002 2 0 0.0499789 1 -0.00280991 0.00367162
611 1 10.4997 6.59441 0 1.00368 2 0 0.0452468 1 0.00399344 0.0013409
564 1 11.4986 6.59673 0 1.01095 2 0 0.0497953 1 -0.00486118 0.00158301
613 1 11.0013 7.46429 0 1.00877 2 0 0.0555341 1 0.00129346 -0.00391566
614 1 12.4955 6.60095 0 1.01882 2 0 0.0541841 1 0.00504 -0.00598699
665 1 12.9974 7.4632 0 1.00809 2 0 0.0661166 1 -0.00118706 0.000546606
664 1 12.0005 7.4677 0 1.0022 2 0 0.0609875 1 -0.00884692 -0.001177
615 1 13.4947 6.59716 0 1.00601 2 0 0.0583334 1 0.00220466 0.000255023
616 1 14.4937 6.5941 0 1.00878 2 0 0.0621653 1 -0.00131752 -0.00305107
666 1 13.9949 7.46171 0 0.997531 2 0 0.0709652 1 -0.000189907 -0.00107598
667 1 14.9926 7.45696 0 1.00922 2 0 0.0755152 1 0.00142779 0.00817316
617 1 15.4928 6.5928 0 1.01132 2 0 0.0657331 1 0.000546654 -0.00225387
668 1 15.9901 7.45802 0 1.01232 2 0 0.0797339 1 -0.00655707 -0.00556659
619 1 16.4913 6.59209 0 1.00791 2 0 0.0690208 1 -9.25157e-05 -0.00398772
669 1 17.4922 6.5886 0 1.0115 2 0 0.0719744 1 -0.00716539 -0.00160509
719 1 16.986 7.45535 0 1.0104 2 0 0.0835846 1 0.00781067 0.00107948
720 1 17.9854 7.45141 0 1.00384 2 0 0.0870176 1 0.0039344 0.00315117
620 1 18.4915 6.58556 0 1.00047 2 0 0.07458 1 -0.000417008 0.00331228
621 1 19.4914 6.58262 0 1.01086 2 0 0.0768786 1 -0.000877227 0.00314742
670 1 18.9857 7.4508 0 1.01205 2 0 0.0900921 1 0.00262619 0.00456442
671 1 19.9877 7.44577 0 1.01101 2 0 0.0928321 1 0.00140136 0.00236373
622 1 20.4933 6.58264 0 1.02282 2 0 0.0789727 1 -0.00419795 0.00767432
623 1 21.491 6.58583 0 1.01715 2 0 0.0807866 1 0.00703316 0.00131239
672 1 20.9901 7.44813 0 1.01032 2 0 0.095234 1 -0.00909937 -0.00318009
673 1 21.9892 7.44981 0 1.00705 2 0 0.0972874 1 -0.0018265 0.000504098
624 1 22.4928 6.58871 0 1.00933 2 0 0.0823317 1 0.00355562 0.00443669
674 1 22.9919 7.45424 0 1.01197 2 0 0.0991433 1 -0.00636583 -0.000808643
625 1 23.4925 6.59244 0 1.01358 2 0 0.0837378 1 0.00164988 -0.0011593
626 1 24.4955 6.59154 0 1.01095 2 0 0.0850051 1 -0.00304313 0.00465578
675 1 23.9925 7.45495 0 1.00974 2 0 0.10081 1 -0.00897007 -0.00186298
676 1 24.9892 7.45912 0 1.01754 2 0 0.102234 1 0.00197854 -0.0109788
578 1 26.4902 6.59058 0 1.0136 2 0 0.0871122 1 0.00121255 -0.0049337
628 1 25.9881 7.45453 0 1.00647 2 0 0.103449 1 0.00260161 -0.00223127
627 1 25.4927 6.58766 0 1.0116 2 0 0.0861137 1 0.0019701 0.00924071
629 1 27.4892 6.58875 0 1.00585 2 0 0.0880586 1 0.00281278 -0.00346492
679 1 27.9885 7.45104 0 1.01276 2 0 0.105706 1 -0.00634887 0.00341886
678 1 26.9888 7.45302 0 1.01987 2 0 0.104586 1 -0.0026419 0.00122899
630 1 28.4908 6.58968 0 1.00031 2 0 0.0890516 1 -0.00134658 -0.00396463
631 1 29.491 6.58961 0 1.01679 2 0 0.0899476 1 -0.00282316 -0.00157981
680 1 28.9869 7.45207 0 1.0041 2 0 0.106903 1 0.00569743 4.18417e-05
681 1 29.9888 7.45055 0 1.0067 2 0 0.108077 1 -0.00030755 0.00720151
682 1 30.4939 6.59006 0 1.0233 2 0 0.090721 1 -0.00457482 -0.00457008
633 1 31.4925 6.58982 0 1.00197 2 0 0.0913892 1 0.006806 0.00109003
732 1 30.9924 7.45247 0 1.02086 2 0 0.109075 1 -0.00864522 0.00395105
683 1 31.9897 7.4554 0 1.00602 2 0 0.109884 1 0.00242951 -0.00275748
684 1 32.4925 6.59128 0 1.01173 2 0 0.0919906 1 -0.0100958 -0.00299426
734 1 32.9892 7.45503 0 1.01306 2 0 0.110584 1 -0.00681254 0.00150331
634 1 33.4883 6.58996 0 1.00318 2 0 0.0925844 1 0.00863301 -0.0042154
635 1 34.4985 6.59362 0 1.01335 2 0 0.0932101 1 -0.0030741 -0.00770604
685 1 33.9862 7.44984 0 1.01182 2 0 0.111294 1 0.00573755 0.0068995
686 1 34.9942 7.45828 0 1.01566 2 0 0.112132 1 0.000591905 0.00223459
636 1 35.4974 6.59537 0 1.01343 2 0 0.0937311 1 0.00385793 -0.000585468