ITEM: TIMESTEP
49500
ITEM: NUMBER OF ATOMS
15950
ITEM: BOX BOUNDS pp pp pp
0.0000000000000000e+00 1.0000000000000000e+02
-5.0000000000000000e+00 2.0000000000000000e+02
-5.0000000000000000e-01 5.0000000000000000e-01
ITEM: ATOMS id type x y z c_rho c_phase c_nbond c_temp f_rheo_chi_chi fx fy
1 2 0 -5 0 1 2 8 7.84442e-08 1 0 0
2 2 1 -5 0 1 2 8 9.90334e-08 1 0 0
51 2 0 -4 0 1 2 8 3.04595e-07 1 0 0
52 2 1 -4 0 1 2 8 3.90456e-07 1 0 0
3 2 2 -5 0 1 2 8 1.66495e-07 1 0 0
4 2 3 -5 0 1 2 8 2.86966e-07 1 0 0
53 2 2 -4 0 1 2 8 6.73087e-07 1 0 0
54 2 3 -4 0 1 2 8 1.17732e-06 1 0 0
5 2 4 -5 0 1 2 7 4.75573e-07 1 0 0
55 2 4 -4 0 1 2 8 1.91666e-06 1 0 0
6 2 5 -5 0 1 2 6 7.59823e-07 1 0 0
7 2 6 -5 0 1 2 5 1.07432e-06 1 0 0
56 2 5 -4 0 1 2 8 2.86636e-06 1 0 0
57 2 6 -4 0 1 2 8 3.93062e-06 1 0 0
8 2 7 -5 0 1 2 5 1.36708e-06 1 0 0
9 2 8 -5 0 1 2 5 1.63409e-06 1 0 0
58 2 7 -4 0 1 2 8 5.00105e-06 1 0 0
59 2 8 -4 0 1 2 8 5.98956e-06 1 0 0
10 2 9 -5 0 1 2 5 1.86373e-06 1 0 0
60 2 9 -4 0 1 2 8 6.8424e-06 1 0 0
11 2 10 -5 0 1 2 5 2.05282e-06 1 0 0
12 2 11 -5 0 1 2 5 2.20617e-06 1 0 0
61 2 10 -4 0 1 2 8 7.54747e-06 1 0 0
62 2 11 -4 0 1 2 8 8.12295e-06 1 0 0
13 2 12 -5 0 1 2 5 2.33146e-06 1 0 0
14 2 13 -5 0 1 2 5 2.43446e-06 1 0 0
63 2 12 -4 0 1 2 8 8.59696e-06 1 0 0
64 2 13 -4 0 1 2 8 8.98948e-06 1 0 0
15 2 14 -5 0 1 2 5 2.51752e-06 1 0 0
65 2 14 -4 0 1 2 8 9.30727e-06 1 0 0
16 2 15 -5 0 1 2 5 2.58175e-06 1 0 0
17 2 16 -5 0 1 2 5 2.62975e-06 1 0 0
66 2 15 -4 0 1 2 8 9.55329e-06 1 0 0
67 2 16 -4 0 1 2 8 9.73815e-06 1 0 0
18 2 17 -5 0 1 2 5 2.6653e-06 1 0 0
19 2 18 -5 0 1 2 5 2.69028e-06 1 0 0
68 2 17 -4 0 1 2 8 9.87834e-06 1 0 0
69 2 18 -4 0 1 2 8 9.98233e-06 1 0 0
20 2 19 -5 0 1 2 5 2.70259e-06 1 0 0
70 2 19 -4 0 1 2 8 1.00418e-05 1 0 0
21 2 20 -5 0 1 2 5 2.69825e-06 1 0 0
22 2 21 -5 0 1 2 5 2.67609e-06 1 0 0
71 2 20 -4 0 1 2 8 1.00397e-05 1 0 0
72 2 21 -4 0 1 2 8 9.96955e-06 1 0 0
23 2 22 -5 0 1 2 5 2.6414e-06 1 0 0
24 2 23 -5 0 1 2 5 2.60578e-06 1 0 0
73 2 22 -4 0 1 2 8 9.84986e-06 1 0 0
74 2 23 -4 0 1 2 8 9.72374e-06 1 0 0
25 2 24 -5 0 1 2 5 2.58309e-06 1 0 0
75 2 24 -4 0 1 2 8 9.64372e-06 1 0 0
26 2 25 -5 0 1 2 5 2.5834e-06 1 0 0
27 2 26 -5 0 1 2 5 2.60855e-06 1 0 0
76 2 25 -4 0 1 2 8 9.64859e-06 1 0 0
77 2 26 -4 0 1 2 8 9.74514e-06 1 0 0
28 2 27 -5 0 1 2 5 2.65205e-06 1 0 0
29 2 28 -5 0 1 2 5 2.70355e-06 1 0 0
78 2 27 -4 0 1 2 8 9.9077e-06 1 0 0
79 2 28 -4 0 1 2 8 1.00962e-05 1 0 0
30 2 29 -5 0 1 2 5 2.75388e-06 1 0 0
80 2 29 -4 0 1 2 8 1.02773e-05 1 0 0
31 2 30 -5 0 1 2 5 2.79712e-06 1 0 0
32 2 31 -5 0 1 2 5 2.82965e-06 1 0 0
81 2 30 -4 0 1 2 8 1.04314e-05 1 0 0
82 2 31 -4 0 1 2 8 1.05472e-05 1 0 0
33 2 32 -5 0 1 2 5 2.84933e-06 1 0 0
34 2 33 -5 0 1 2 5 2.8563e-06 1 0 0
83 2 32 -4 0 1 2 8 1.06175e-05 1 0 0
84 2 33 -4 0 1 2 8 1.06422e-05 1 0 0
35 2 34 -5 0 1 2 5 2.85351e-06 1 0 0
85 2 34 -4 0 1 2 8 1.06325e-05 1 0 0
36 2 35 -5 0 1 2 5 2.84501e-06 1 0 0
37 2 36 -5 0 1 2 5 2.83291e-06 1 0 0
86 2 35 -4 0 1 2 8 1.06041e-05 1 0 0
87 2 36 -4 0 1 2 8 1.05646e-05 1 0 0
38 2 37 -5 0 1 2 5 2.81574e-06 1 0 0
39 2 38 -5 0 1 2 5 2.79025e-06 1 0 0
88 2 37 -4 0 1 2 8 1.05075e-05 1 0 0
89 2 38 -4 0 1 2 8 1.04185e-05 1 0 0
40 2 39 -5 0 1 2 5 2.75525e-06 1 0 0
90 2 39 -4 0 1 2 8 1.02911e-05 1 0 0
41 2 40 -5 0 1 2 5 2.71486e-06 1 0 0
42 2 41 -5 0 1 2 5 2.67872e-06 1 0 0
91 2 40 -4 0 1 2 8 1.01399e-05 1 0 0
92 2 41 -4 0 1 2 8 1.00018e-05 1 0 0
43 2 42 -5 0 1 2 5 2.65792e-06 1 0 0
44 2 43 -5 0 1 2 5 2.65851e-06 1 0 0
93 2 42 -4 0 1 2 8 9.92074e-06 1 0 0
94 2 43 -4 0 1 2 8 9.92187e-06 1 0 0
45 2 44 -5 0 1 2 5 2.67676e-06 1 0 0
95 2 44 -4 0 1 2 8 9.99177e-06 1 0 0
46 2 45 -5 0 1 2 5 2.7004e-06 1 0 0
47 2 46 -5 0 1 2 5 2.71593e-06 1 0 0
96 2 45 -4 0 1 2 8 1.00827e-05 1 0 0
97 2 46 -4 0 1 2 8 1.01414e-05 1 0 0
48 2 47 -5 0 1 2 5 2.71699e-06 1 0 0
49 2 48 -5 0 1 2 5 2.70781e-06 1 0 0
98 2 47 -4 0 1 2 8 1.01432e-05 1 0 0
99 2 48 -4 0 1 2 8 1.01052e-05 1 0 0
50 2 49 -5 0 1 2 5 2.69926e-06 1 0 0
100 2 49 -4 0 1 2 8 1.00708e-05 1 0 0
101 2 0 -3 0 1 2 8 1.09037e-06 1 0 0
102 2 1 -3 0 1 2 8 1.42113e-06 1 0 0
151 2 0 -2 0 1 2 8 3.57241e-06 1 0 0
152 2 1 -2 0 1 2 8 4.73845e-06 1 0 0
103 2 2 -3 0 1 2 8 2.51793e-06 1 0 0
104 2 3 -3 0 1 2 8 4.49597e-06 1 0 0
153 2 2 -2 0 1 2 8 8.63826e-06 1 0 0
154 2 3 -2 0 1 2 8 1.57716e-05 1 0 0
105 2 4 -3 0 1 2 8 7.40889e-06 1 0 0
155 2 4 -2 0 1 2 8 2.64122e-05 1 0 0
106 2 5 -3 0 1 2 8 1.11278e-05 1 0 0
107 2 6 -3 0 1 2 8 1.53215e-05 1 0 0
156 2 5 -2 0 1 2 8 4.01068e-05 1 0 0
157 2 6 -2 0 1 2 8 5.55945e-05 1 0 0
108 2 7 -3 0 1 2 8 1.95627e-05 1 0 0
109 2 8 -3 0 1 2 8 2.34813e-05 1 0 0
158 2 7 -2 0 1 2 8 7.12504e-05 1 0 0
159 2 8 -2 0 1 2 8 8.56998e-05 1 0 0
110 2 9 -3 0 1 2 8 2.68639e-05 1 0 0
160 2 9 -2 0 1 2 8 9.81849e-05 1 0 0
111 2 10 -3 0 1 2 8 2.96688e-05 1 0 0
112 2 11 -3 0 1 2 8 3.19725e-05 1 0 0
161 2 10 -2 0 1 2 8 0.000108582 1 0 0
162 2 11 -2 0 1 2 8 0.000117188 1 0 0
113 2 12 -3 0 1 2 8 3.3887e-05 1 0 0
114 2 13 -3 0 1 2 8 3.54866e-05 1 0 0
163 2 12 -2 0 1 2 8 0.000124415 1 0 0
164 2 13 -2 0 1 2 8 0.000130515 1 0 0
115 2 14 -3 0 1 2 8 3.67883e-05 1 0 0
165 2 14 -2 0 1 2 8 0.000135511 1 0 0
116 2 15 -3 0 1 2 8 3.7797e-05 1 0 0
117 2 16 -3 0 1 2 8 3.85585e-05 1 0 0
166 2 15 -2 0 1 2 8 0.000139392 1 0 0
167 2 16 -2 0 1 2 8 0.000142341 1 0 0
118 2 17 -3 0 1 2 8 3.91497e-05 1 0 0
119 2 18 -3 0 1 2 8 3.96118e-05 1 0 0
168 2 17 -2 0 1 2 8 0.000144687 1 0 0
169 2 18 -2 0 1 2 8 0.000146613 1 0 0
120 2 19 -3 0 1 2 8 3.99079e-05 1 0 0
170 2 19 -2 0 1 2 8 0.000147964 1 0 0
121 2 20 -3 0 1 2 8 3.99595e-05 1 0 0
122 2 21 -3 0 1 2 8 3.97313e-05 1 0 0
171 2 20 -2 0 1 2 8 0.000148411 1 0 0
172 2 21 -2 0 1 2 8 0.000147791 1 0 0
123 2 22 -3 0 1 2 8 3.9292e-05 1 0 0
124 2 23 -3 0 1 2 8 3.88141e-05 1 0 0
173 2 22 -2 0 1 2 8 0.000146342 1 0 0
174 2 23 -2 0 1 2 8 0.000144698 1 0 0
125 2 24 -3 0 1 2 8 3.85124e-05 1 0 0
175 2 24 -2 0 1 2 8 0.000143671 1 0 0
126 2 25 -3 0 1 2 8 3.85483e-05 1 0 0
127 2 26 -3 0 1 2 8 3.89493e-05 1 0 0
176 2 25 -2 0 1 2 8 0.000143885 1 0 0
177 2 26 -2 0 1 2 8 0.000145445 1 0 0
128 2 27 -3 0 1 2 8 3.96044e-05 1 0 0
129 2 28 -3 0 1 2 8 4.0346e-05 1 0 0
178 2 27 -2 0 1 2 8 0.000147908 1 0 0
179 2 28 -2 0 1 2 8 0.000150619 1 0 0
130 2 29 -3 0 1 2 8 4.10433e-05 1 0 0
180 2 29 -2 0 1 2 8 0.000153107 1 0 0
131 2 30 -3 0 1 2 8 4.16305e-05 1 0 0
132 2 31 -3 0 1 2 8 4.20732e-05 1 0 0
181 2 30 -2 0 1 2 8 0.000155182 1 0 0
182 2 31 -2 0 1 2 8 0.000156759 1 0 0
133 2 32 -3 0 1 2 8 4.2343e-05 1 0 0
134 2 33 -3 0 1 2 8 4.24373e-05 1 0 0
183 2 32 -2 0 1 2 8 0.000157733 1 0 0
184 2 33 -2 0 1 2 8 0.000158077 1 0 0
135 2 34 -3 0 1 2 8 4.24006e-05 1 0 0
185 2 34 -2 0 1 2 8 0.000157957 1 0 0
136 2 35 -3 0 1 2 8 4.22999e-05 1 0 0
137 2 36 -3 0 1 2 8 4.2167e-05 1 0 0
186 2 35 -2 0 1 2 8 0.000157638 1 0 0
187 2 36 -2 0 1 2 8 0.000157245 1 0 0
138 2 37 -3 0 1 2 8 4.19702e-05 1 0 0
139 2 38 -3 0 1 2 8 4.16429e-05 1 0 0
188 2 37 -2 0 1 2 8 0.000156642 1 0 0
189 2 38 -2 0 1 2 8 0.000155546 1 0 0
140 2 39 -3 0 1 2 8 4.11498e-05 1 0 0
190 2 39 -2 0 1 2 8 0.000153791 1 0 0
141 2 40 -3 0 1 2 8 4.05443e-05 1 0 0
142 2 41 -3 0 1 2 8 3.99783e-05 1 0 0
191 2 40 -2 0 1 2 8 0.000151555 1 0 0
192 2 41 -2 0 1 2 8 0.000149412 1 0 0
143 2 42 -3 0 1 2 8 3.96402e-05 1 0 0
144 2 43 -3 0 1 2 8 3.96429e-05 1 0 0
193 2 42 -2 0 1 2 8 0.000148108 1 0 0
194 2 43 -2 0 1 2 8 0.00014811 1 0 0
145 2 44 -3 0 1 2 8 3.99343e-05 1 0 0
195 2 44 -2 0 1 2 8 0.000149234 1 0 0
146 2 45 -3 0 1 2 8 4.03127e-05 1 0 0
147 2 46 -3 0 1 2 8 4.05514e-05 1 0 0
196 2 45 -2 0 1 2 8 0.000150691 1 0 0
197 2 46 -2 0 1 2 8 0.000151585 1 0 0
148 2 47 -3 0 1 2 8 4.0546e-05 1 0 0
149 2 48 -3 0 1 2 8 4.03731e-05 1 0 0
198 2 47 -2 0 1 2 8 0.000151511 1 0 0
199 2 48 -2 0 1 2 8 0.000150785 1 0 0
150 2 49 -3 0 1 2 8 4.02201e-05 1 0 0
200 2 49 -2 0 1 2 8 0.000150155 1 0 0
201 2 0 -1 0 1 2 8 1.06319e-05 1 0 0
202 2 1 -1 0 1 2 8 1.43568e-05 1 0 0
203 2 2 -1 0 1 2 8 2.69287e-05 1 0 0
204 2 3 -1 0 1 2 8 5.02849e-05 1 0 0
205 2 4 -1 0 1 2 8 8.56256e-05 1 0 0
206 2 5 -1 0 1 2 8 0.000131503 1 0 0
207 2 6 -1 0 1 2 8 0.000183493 1 0 0
208 2 7 -1 0 1 2 8 0.000235948 1 0 0
209 2 8 -1 0 1 2 8 0.00028429 1 0 0
210 2 9 -1 0 1 2 8 0.000326148 1 0 0
211 2 10 -1 0 1 2 8 0.000361229 1 0 0
212 2 11 -1 0 1 2 8 0.000390558 1 0 0
213 2 12 -1 0 1 2 8 0.000415483 1 0 0
214 2 13 -1 0 1 2 8 0.000436766 1 0 0
215 2 14 -1 0 1 2 8 0.000454345 1 0 0
216 2 15 -1 0 1 2 8 0.000468069 1 0 0
217 2 16 -1 0 1 2 8 0.000478598 1 0 0
218 2 17 -1 0 1 2 8 0.000487201 1 0 0
219 2 18 -1 0 1 2 8 0.000494576 1 0 0
220 2 19 -1 0 1 2 8 0.000500144 1 0 0
221 2 20 -1 0 1 2 8 0.00050267 1 0 0
222 2 21 -1 0 1 2 8 0.000501522 1 0 0
223 2 22 -1 0 1 2 8 0.000497447 1 0 0
224 2 23 -1 0 1 2 8 0.000492535 1 0 0
225 2 24 -1 0 1 2 8 0.000489532 1 0 0
226 2 25 -1 0 1 2 8 0.000490623 1 0 0
227 2 26 -1 0 1 2 8 0.000496185 1 0 0
228 2 27 -1 0 1 2 8 0.000504622 1 0 0
229 2 28 -1 0 1 2 8 0.000513616 1 0 0
230 2 29 -1 0 1 2 8 0.000521645 1 0 0
231 2 30 -1 0 1 2 8 0.000528286 1 0 0
232 2 31 -1 0 1 2 8 0.000533415 1 0 0
233 2 32 -1 0 1 2 8 0.000536664 1 0 0
234 2 33 -1 0 1 2 8 0.000537856 1 0 0
235 2 34 -1 0 1 2 8 0.000537545 1 0 0
236 2 35 -1 0 1 2 8 0.000536698 1 0 0
237 2 36 -1 0 1 2 8 0.000535759 1 0 0
238 2 37 -1 0 1 2 8 0.000534201 1 0 0
239 2 38 -1 0 1 2 8 0.000530971 1 0 0
240 2 39 -1 0 1 2 8 0.0005254 1 0 0
241 2 40 -1 0 1 2 8 0.000518001 1 0 0
242 2 41 -1 0 1 2 8 0.000510716 1 0 0
243 2 42 -1 0 1 2 8 0.000506191 1 0 0
244 2 43 -1 0 1 2 8 0.000506168 1 0 0
245 2 44 -1 0 1 2 8 0.000510074 1 0 0
246 2 45 -1 0 1 2 8 0.00051512 1 0 0
247 2 46 -1 0 1 2 8 0.00051812 1 0 0
248 2 47 -1 0 1 2 8 0.000517667 1 0 0
249 2 48 -1 0 1 2 8 0.000514934 1 0 0
250 2 49 -1 0 1 2 8 0.000512613 1 0 0
251 2 0 0 0 1 2 8 2.85314e-05 1 0 0
252 2 1 0 0 1 2 8 3.92018e-05 1 0 0
301 2 0 1 0 1 2 8 6.85986e-05 1 0 0
302 2 1 1 0 1 2 8 9.57402e-05 1 0 0
253 2 2 0 0 1 2 8 7.55398e-05 1 0 0
254 2 3 0 0 1 2 8 0.000144135 1 0 0
303 2 2 1 0 1 2 8 0.000188814 1 0 0
304 2 3 1 0 1 2 8 0.000367027 1 0 0
255 2 4 0 0 1 2 8 0.000249514 1 0 0
305 2 4 1 0 1 2 8 0.000645008 1 0 0
256 2 5 0 0 1 2 8 0.000387516 1 0 0
257 2 6 0 0 1 2 8 0.000543951 1 0 0
306 2 5 1 0 1 2 8 0.00101237 1 0 0
307 2 6 1 0 1 2 8 0.00142763 1 0 0
258 2 7 0 0 1 2 8 0.000701138 1 0 0
259 2 8 0 0 1 2 8 0.000845726 1 0 0
308 2 7 1 0 1 2 8 0.0018414 1 0 0
309 2 8 1 0 1 2 8 0.00222105 1 0 0
260 2 9 0 0 1 2 8 0.000971401 1 0 0
310 2 9 1 0 1 2 8 0.00255326 1 0 0
261 2 10 0 0 1 2 8 0.00107771 1 0 0
262 2 11 0 0 1 2 8 0.00116771 1 0 0
311 2 10 1 0 1 2 8 0.00283794 1 0 0
312 2 11 1 0 1 2 8 0.00308277 1 0 0
263 2 12 0 0 1 2 8 0.00124525 1 0 0
264 2 13 0 0 1 2 8 0.00131234 1 0 0
313 2 12 1 0 1 2 8 0.00329702 1 0 0
314 2 13 1 0 1 2 8 0.00348518 1 0 0
265 2 14 0 0 1 2 8 0.00136836 1 0 0
315 2 14 1 0 1 2 8 0.00364454 1 0 0
266 2 15 0 0 1 2 8 0.00141249 1 0 0
267 2 16 0 0 1 2 8 0.00144684 1 0 0
316 2 15 1 0 1 2 8 0.00377198 1 0 0
317 2 16 1 0 1 2 8 0.00387325 1 0 0
268 2 17 0 0 1 2 8 0.00147569 1 0 0
269 2 18 0 0 1 2 8 0.00150138 1 0 0
318 2 17 1 0 1 2 8 0.00396075 1 0 0
319 2 18 1 0 1 2 8 0.00404101 1 0 0
270 2 19 0 0 1 2 8 0.00152191 1 0 0
320 2 19 1 0 1 2 8 0.00410799 1 0 0
271 2 20 0 0 1 2 8 0.00153325 1 0 0
272 2 21 0 0 1 2 8 0.00153336 1 0 0
321 2 20 1 0 1 2 8 0.00415034 1 0 0
322 2 21 1 0 1 2 8 0.00416295 1 0 0
273 2 22 0 0 1 2 8 0.00152438 1 0 0
274 2 23 0 0 1 2 8 0.0015123 1 0 0
323 2 22 1 0 1 2 8 0.00415132 1 0 0
324 2 23 1 0 1 2 8 0.00412994 1 0 0
275 2 24 0 0 1 2 8 0.00150528 1 0 0
325 2 24 1 0 1 2 8 0.00411938 1 0 0
276 2 25 0 0 1 2 8 0.00151012 1 0 0
277 2 26 0 0 1 2 8 0.00152809 1 0 0
326 2 25 1 0 1 2 8 0.00413811 1 0 0
327 2 26 1 0 1 2 8 0.00419008 1 0 0
278 2 27 0 0 1 2 8 0.00155411 1 0 0
279 2 28 0 0 1 2 8 0.00158087 1 0 0
328 2 27 1 0 1 2 8 0.00426141 1 0 0
329 2 28 1 0 1 2 8 0.00433194 1 0 0
280 2 29 0 0 1 2 8 0.00160403 1 0 0
330 2 29 1 0 1 2 8 0.00439101 1 0 0
281 2 30 0 0 1 2 8 0.00162309 1 0 0
282 2 31 0 0 1 2 8 0.00163821 1 0 0
331 2 30 1 0 1 2 8 0.0044397 1 0 0
332 2 31 1 0 1 2 8 0.00447996 1 0 0
283 2 32 0 0 1 2 8 0.00164818 1 0 0
284 2 33 0 0 1 2 8 0.00165211 1 0 0
333 2 32 1 0 1 2 8 0.00450807 1 0 0
334 2 33 1 0 1 2 8 0.00452044 1 0 0
285 2 34 0 0 1 2 8 0.00165166 1 0 0
335 2 34 1 0 1 2 8 0.00452129 1 0 0
286 2 35 0 0 1 2 8 0.00164997 1 0 0
287 2 36 0 0 1 2 8 0.00164847 1 0 0
336 2 35 1 0 1 2 8 0.00451984 1 0 0
337 2 36 1 0 1 2 8 0.00452012 1 0 0
288 2 37 0 0 1 2 8 0.00164538 1 0 0
289 2 38 0 0 1 2 8 0.00163728 1 0 0
338 2 37 1 0 1 2 8 0.00451682 1 0 0
339 2 38 1 0 1 2 8 0.00450047 1 0 0
290 2 39 0 0 1 2 8 0.00162187 1 0 0
340 2 39 1 0 1 2 8 0.0044647 1 0 0
291 2 40 0 0 1 2 8 0.00160041 1 0 0
292 2 41 0 0 1 2 8 0.00157861 1 0 0
341 2 40 1 0 1 2 8 0.00441177 1 0 0
342 2 41 1 0 1 2 8 0.0043559 1 0 0
293 2 42 0 0 1 2 8 0.00156476 1 0 0
294 2 43 0 0 1 2 8 0.00156462 1 0 0
343 2 42 1 0 1 2 8 0.00431954 1 0 0
344 2 43 1 0 1 2 8 0.00431917 1 0 0
295 2 44 0 0 1 2 8 0.00157664 1 0 0
345 2 44 1 0 1 2 8 0.00435128 1 0 0
296 2 45 0 0 1 2 8 0.00159209 1 0 0
297 2 46 0 0 1 2 8 0.00160095 1 0 0
346 2 45 1 0 1 2 8 0.00439226 1 0 0
347 2 46 1 0 1 2 8 0.0044148 1 0 0
298 2 47 0 0 1 2 8 0.00159893 1 0 0
299 2 48 0 0 1 2 8 0.00158989 1 0 0
348 2 47 1 0 1 2 8 0.00440775 1 0 0
349 2 48 1 0 1 2 8 0.00438224 1 0 0
300 2 49 0 0 1 2 8 0.00158238 1 0 0
350 2 49 1 0 1 2 8 0.00436146 1 0 0
351 2 0 2 0 1 2 8 0.000147152 1 0 0
352 2 1 2 0 1 2 8 0.000208015 1 0 0
401 2 0 3 0 1 2 8 0.000281409 1 0 0
402 2 1 3 0 1 2 8 0.000401634 1 0 0
353 2 2 2 0 1 2 8 0.000417111 1 0 0
354 2 3 2 0 1 2 8 0.000820328 1 0 0
403 2 2 3 0 1 2 8 0.00081199 1 0 0
404 2 3 3 0 1 2 8 0.0015959 1 0 0
355 2 4 2 0 1 2 8 0.00145743 1 0 0
405 2 4 3 0 1 2 8 0.00282989 1 0 0
356 2 5 2 0 1 2 8 0.00230896 1 0 0
357 2 6 2 0 1 2 8 0.00326283 1 0 0
406 2 5 3 0 1 2 8 0.00452899 1 0 0
407 2 6 3 0 1 2 8 0.00639493 1 0 0
358 2 7 2 0 1 2 8 0.00419694 1 0 0
359 2 8 2 0 1 2 8 0.00505165 1 0 0
408 2 7 3 0 1 2 8 0.0081411 1 0 0
409 2 8 3 0 1 2 8 0.0097435 1 0 0
360 2 9 2 0 1 2 8 0.00580828 1 0 0
410 2 9 3 0 1 2 8 0.0111918 1 0 0
361 2 10 2 0 1 2 8 0.00646828 1 0 0
362 2 11 2 0 1 2 8 0.00704708 1 0 0
411 2 10 3 0 1 2 8 0.0124834 1 0 0
412 2 11 3 0 1 2 8 0.0136442 1 0 0
363 2 12 2 0 1 2 8 0.00756269 1 0 0
364 2 13 2 0 1 2 8 0.00802303 1 0 0
413 2 12 3 0 1 2 8 0.0147002 1 0 0
414 2 13 3 0 1 2 8 0.0156597 1 0 0
365 2 14 2 0 1 2 8 0.00842025 1 0 0
415 2 14 3 0 1 2 8 0.0165092 1 0 0
366 2 15 2 0 1 2 8 0.00874515 1 0 0
367 2 16 2 0 1 2 8 0.00901078 1 0 0
416 2 15 3 0 1 2 8 0.0172257 1 0 0
417 2 16 3 0 1 2 8 0.017833 1 0 0
368 2 17 2 0 1 2 8 0.00924702 1 0 0
369 2 18 2 0 1 2 8 0.0094684 1 0 0
418 2 17 3 0 1 2 8 0.01839 1 0 0
419 2 18 3 0 1 2 8 0.0189199 1 0 0
370 2 19 2 0 1 2 8 0.00965882 1 0 0
420 2 19 3 0 1 2 8 0.0193855 1 0 0
371 2 20 2 0 1 2 8 0.00979184 1 0 0
372 2 21 2 0 1 2 8 0.00985858 1 0 0
421 2 20 3 0 1 2 8 0.0197355 1 0 0
422 2 21 3 0 1 2 8 0.0199662 1 0 0
373 2 22 2 0 1 2 8 0.00987208 1 0 0
374 2 23 2 0 1 2 8 0.00985975 1 0 0
423 2 22 3 0 1 2 8 0.020109 1 0 0
424 2 23 3 0 1 2 8 0.0201937 1 0 0
375 2 24 2 0 1 2 8 0.00986378 1 0 0
425 2 24 3 0 1 2 8 0.0202852 1 0 0
376 2 25 2 0 1 2 8 0.00992674 1 0 0
377 2 26 2 0 1 2 8 0.0100594 1 0 0
426 2 25 3 0 1 2 8 0.0204687 1 0 0
427 2 26 3 0 1 2 8 0.0207642 1 0 0
378 2 27 2 0 1 2 8 0.0102309 1 0 0
379 2 28 2 0 1 2 8 0.0103938 1 0 0
428 2 27 3 0 1 2 8 0.0211256 1 0 0
429 2 28 3 0 1 2 8 0.0214551 1 0 0
380 2 29 2 0 1 2 8 0.010526 1 0 0
430 2 29 3 0 1 2 8 0.0217133 1 0 0
381 2 30 2 0 1 2 8 0.0106366 1 0 0
382 2 31 2 0 1 2 8 0.0107334 1 0 0
431 2 30 3 0 1 2 8 0.0219392 1 0 0
432 2 31 3 0 1 2 8 0.0221518 1 0 0
383 2 32 2 0 1 2 8 0.0108061 1 0 0
384 2 33 2 0 1 2 8 0.0108426 1 0 0
433 2 32 3 0 1 2 8 0.0223253 1 0 0
434 2 33 3 0 1 2 8 0.0224247 1 0 0
385 2 34 2 0 1 2 8 0.010852 1 0 0
435 2 34 3 0 1 2 8 0.0224641 1 0 0
386 2 35 2 0 1 2 8 0.0108585 1 0 0
387 2 36 2 0 1 2 8 0.0108718 1 0 0
436 2 35 3 0 1 2 8 0.0225054 1 0 0
437 2 36 3 0 1 2 8 0.022567 1 0 0
388 2 37 2 0 1 2 8 0.0108777 1 0 0
389 2 38 2 0 1 2 8 0.0108547 1 0 0
438 2 37 3 0 1 2 8 0.0226125 1 0 0
439 2 38 3 0 1 2 8 0.0226033 1 0 0
390 2 39 2 0 1 2 8 0.0107893 1 0 0
440 2 39 3 0 1 2 8 0.0225239 1 0 0
391 2 40 2 0 1 2 8 0.0106839 1 0 0
392 2 41 2 0 1 2 8 0.0105663 1 0 0
441 2 40 3 0 1 2 8 0.0223734 1 0 0
442 2 41 3 0 1 2 8 0.0221806 1 0 0
393 2 42 2 0 1 2 8 0.0104876 1 0 0
394 2 43 2 0 1 2 8 0.0104879 1 0 0
443 2 42 3 0 1 2 8 0.0220487 1 0 0
444 2 43 3 0 1 2 8 0.0220564 1 0 0
395 2 44 2 0 1 2 8 0.0105609 1 0 0
445 2 44 3 0 1 2 8 0.0221969 1 0 0
396 2 45 2 0 1 2 8 0.0106529 1 0 0
397 2 46 2 0 1 2 8 0.0107012 1 0 0
446 2 45 3 0 1 2 8 0.0223717 1 0 0
447 2 46 3 0 1 2 8 0.0224573 1 0 0
398 2 47 2 0 1 2 8 0.0106822 1 0 0
399 2 48 2 0 1 2 8 0.010623 1 0 0
448 2 47 3 0 1 2 8 0.0224189 1 0 0
449 2 48 3 0 1 2 8 0.0223141 1 0 0
400 2 49 2 0 1 2 8 0.0105759 1 0 0
450 2 49 3 0 1 2 8 0.0222278 1 0 0
451 2 0 4 0 1 2 8 0.00048144 1 0 0
452 2 1 4 0 1 2 8 0.000692118 1 0 0
453 2 2 4 0 1 2 8 0.0014023 1 0 0
454 2 3 4 0 1 2 8 0.00271653 1 0 0
455 2 4 4 0 1 2 7 0.004643 1 0 0
456 2 5 4 0 1 2 6 0.00753609 1 0 0
457 2 6 4 0 1 2 5 0.010433 1 0 0
506 1 5.48711 4.87261 0 1.0006 2 0 0.0119584 1 0.00158667 -0.000546079
507 1 6.49358 4.86704 0 1.02569 2 0 0.0146232 1 -9.60464e-05 -0.000151151
458 2 7 4 0 1 2 5 0.012945 1 0 0
459 2 8 4 0 1 2 5 0.0153295 1 0 0
508 1 7.49943 4.86509 0 1.03193 2 0 0.0173145 1 -0.00130933 -0.000501135
460 2 9 4 0 1 2 5 0.017543 1 0 0
510 1 8.49977 4.86493 0 1.01036 2 0 0.0199096 1 0.00022474 0.00322688
511 1 9.50041 4.86512 0 1.00136 2 0 0.022355 1 -0.0024836 -0.000926254
461 2 10 4 0 1 2 5 0.0195701 1 0 0
462 2 11 4 0 1 2 5 0.0214544 1 0 0
512 1 10.5009 4.86337 0 1.01573 2 0 0.0247029 1 -0.00193088 0.0055473
513 1 11.5002 4.86481 0 1.01534 2 0 0.0269488 1 9.15828e-05 -0.00289153
463 2 12 4 0 1 2 5 0.0232084 1 0 0
464 2 13 4 0 1 2 5 0.0248293 1 0 0
514 1 12.5 4.86412 0 1.01802 2 0 0.0290617 1 0.00164626 0.00271774
465 2 14 4 0 1 2 5 0.0263094 1 0 0
515 1 13.5003 4.86401 0 1.02031 2 0 0.0310483 1 -0.00196853 0.00164601
516 1 14.5003 4.86476 0 1.0096 2 0 0.0328921 1 -0.00180516 -0.00276847
466 2 15 4 0 1 2 5 0.0276081 1 0 0
467 2 16 4 0 1 2 5 0.028757 1 0 0
518 1 16.5003 4.86442 0 1.02515 2 0 0.0361884 1 0.00237276 -0.000876486
517 1 15.5019 4.86485 0 1.02614 2 0 0.0345885 1 -0.00643404 -0.00547242
468 2 17 4 0 1 2 5 0.0298403 1 0 0
469 2 18 4 0 1 2 5 0.0308724 1 0 0
519 1 17.5003 4.86232 0 1.0239 2 0 0.0376907 1 -0.00117368 0.00578941
470 2 19 4 0 1 2 5 0.0317938 1 0 0
520 1 18.5002 4.86349 0 1.00577 2 0 0.0390696 1 0.000642862 -0.00329926
521 1 19.5012 4.86358 0 1.00453 2 0 0.0403047 1 -0.00188916 0.00327474
471 2 20 4 0 1 2 5 0.0325335 1 0 0
472 2 21 4 0 1 2 5 0.0331166 1 0 0
523 1 21.5028 4.8628 0 1.02268 2 0 0.042421 1 -0.00477426 -0.000880365
522 1 20.5029 4.86279 0 1.0139 2 0 0.0414008 1 -0.00162802 0.000847686
473 2 22 4 0 1 2 5 0.0336095 1 0 0
474 2 23 4 0 1 2 5 0.0340006 1 0 0
524 1 22.502 4.86197 0 1.01383 2 0 0.0433632 1 0.00101304 0.0029811
475 2 24 4 0 1 2 5 0.0343517 1 0 0
525 1 23.5017 4.86243 0 1.03669 2 0 0.044217 1 0.0010053 -0.00129232
526 1 24.5022 4.86313 0 1.04245 2 0 0.0450376 1 0.0011297 -0.00180171
476 2 25 4 0 1 2 5 0.0347961 1 0 0
477 2 26 4 0 1 2 5 0.0353509 1 0 0
528 1 26.5016 4.86425 0 1.04147 2 0 0.0466753 1 0.000931411 -0.00506748
527 1 25.5021 4.86362 0 1.03798 2 0 0.0458588 1 0.000127684 -0.00156063
478 2 27 4 0 1 2 5 0.0359867 1 0 0
479 2 28 4 0 1 2 5 0.0365486 1 0 0
529 1 27.5016 4.86293 0 1.0019 2 0 0.0474422 1 -6.33397e-05 0.000540259
480 2 29 4 0 1 2 5 0.0369903 1 0 0
531 1 29.5017 4.86256 0 1.01679 2 0 0.0487906 1 -0.00218465 0.00694577
530 1 28.5009 4.86347 0 1.02091 2 0 0.0481473 1 0.00356765 -0.000745813
481 2 30 4 0 1 2 5 0.0374017 1 0 0
482 2 31 4 0 1 2 5 0.037808 1 0 0
533 1 31.5004 4.86482 0 1.004 2 0 0.0499405 1 0.00158447 -0.00592297
532 1 30.5011 4.86261 0 1.0182 2 0 0.0493876 1 -5.58252e-05 0.00600064
483 2 32 4 0 1 2 5 0.0381644 1 0 0
484 2 33 4 0 1 2 5 0.0383972 1 0 0
534 1 32.502 4.86517 0 1.00171 2 0 0.0504113 1 -0.00527434 -0.00326093
485 2 34 4 0 1 2 5 0.0385144 1 0 0
535 1 33.5004 4.86383 0 1.00275 2 0 0.0507708 1 0.00480529 0.00291613
536 1 34.5013 4.86379 0 1.0237 2 0 0.0510695 1 -0.00286285 0.00548172
486 2 35 4 0 1 2 5 0.0386491 1 0 0
487 2 36 4 0 1 2 5 0.0388276 1 0 0
538 1 36.4999 4.86321 0 1.01227 2 0 0.0516689 1 0.0011716 0.000820618
537 1 35.5009 4.86466 0 1.0067 2 0 0.0513757 1 -0.00147881 -0.00271521
488 2 37 4 0 1 2 5 0.0389683 1 0 0
489 2 38 4 0 1 2 5 0.0390248 1 0 0
539 1 37.4997 4.86266 0 1.00174 2 0 0.0518844 1 0.00174523 0.0017219
490 2 39 4 0 1 2 5 0.0390056 1 0 0
541 1 39.4993 4.86387 0 1.00168 2 0 0.0521335 1 0.00141382 -0.000744911
540 1 38.4999 4.86337 0 1.01715 2 0 0.0520389 1 6.94534e-05 0.00238588
491 2 40 4 0 1 2 5 0.0389005 1 0 0
492 2 41 4 0 1 2 5 0.0386965 1 0 0
542 1 40.4999 4.86381 0 1.01016 2 0 0.0521764 1 0.00249833 0.00184728
543 1 41.5006 4.86414 0 1.03252 2 0 0.0522225 1 0.000508765 0.0023779
493 2 42 4 0 1 2 5 0.0385629 1 0 0
494 2 43 4 0 1 2 5 0.0386079 1 0 0
544 1 42.501 4.86373 0 1.0319 2 0 0.0523341 1 -0.00485952 0.00400623
495 2 44 4 0 1 2 5 0.0388213 1 0 0
545 1 43.4998 4.8637 0 1.03659 2 0 0.052489 1 0.00270153 0.00313688
546 1 44.4998 4.86459 0 1.01001 2 0 0.0526596 1 -0.00328505 -0.00238344
496 2 45 4 0 1 2 5 0.0390826 1 0 0
497 2 46 4 0 1 2 5 0.0392086 1 0 0
548 1 46.4986 4.86435 0 1.00807 2 0 0.0529565 1 0.00191515 0.000345405
547 1 45.4984 4.86408 0 1.00173 2 0 0.0528354 1 0.00594113 0.00293749
498 2 47 4 0 1 2 5 0.0391695 1 0 0
499 2 48 4 0 1 2 5 0.0390569 1 0 0
549 1 47.499 4.86432 0 1.02093 2 0 0.0530032 1 -0.00172406 -0.00114121
500 2 49 4 0 1 2 5 0.03896 1 0 0
550 1 48.4995 4.86481 0 1.02225 2 0 0.0530663 1 -0.00135513 -0.00807748
8501 1 49.4987 4.86495 0 1.06187 2 0 0.0531516 1 0.00224815 -0.0041882
501 2 0 5 0 1 2 8 0.000742723 1 0 0
502 2 1 5 0 1 2 8 0.00107411 1 0 0
551 2 0 6 0 1 2 8 0.00104579 1 0 0
552 2 1 6 0 1 2 8 0.00152039 1 0 0
503 2 2 5 0 1 2 8 0.00217654 1 0 0
504 2 3 5 0 1 2 8 0.00416751 1 0 0
553 2 2 6 0 1 2 8 0.00307885 1 0 0
554 2 3 6 0 1 2 8 0.00583443 1 0 0
505 2 4 5 0 1 2 6 0.0069846 1 0 0
555 2 4 6 0 1 2 5 0.00948107 1 0 0
556 1 4.97291 5.72919 0 1.02426 2 0 0.0127174 1 -0.000965635 0.00155861
557 1 5.99052 5.73743 0 1.00456 2 0 0.0159814 1 -0.00213567 -0.00484602
558 1 6.99316 5.73054 0 1.00032 2 0 0.0189316 1 -0.0016765 -0.00297895
509 1 7.99708 5.73027 0 1.00999 2 0 0.0219246 1 0.000108668 0.000124413
560 1 8.99982 5.73103 0 1.01571 2 0 0.024771 1 -0.00295022 -0.00511613
561 1 10.001 5.72846 0 1.04128 2 0 0.0275504 1 0.000212074 -0.000917679
562 1 11.0003 5.72919 0 1.02468 2 0 0.0302381 1 -0.000239042 -0.00172902
563 1 11.9999 5.7284 0 1.00884 2 0 0.0328016 1 0.00122995 0.00309533
565 1 13.0004 5.72962 0 1.01555 2 0 0.0352661 1 -0.00496841 -0.00471653
566 1 13.9987 5.72852 0 1.01485 2 0 0.0376069 1 0.00599811 -5.08873e-05
567 1 15.0003 5.7278 0 1.00349 2 0 0.0398042 1 -0.00218489 0.00168218
568 1 15.9996 5.72839 0 1.02492 2 0 0.0419033 1 0.0038712 0.0014015
569 1 18.0007 5.72588 0 1.01386 2 0 0.04571 1 -0.00459102 0.00165084
618 1 17.0014 5.72768 0 1.00786 2 0 0.043879 1 -0.00358578 -0.00149281
570 1 18.9986 5.72717 0 1.00562 2 0 0.0473916 1 0.00979614 -0.00268519
571 1 20.0044 5.72599 0 1.00943 2 0 0.0489582 1 -0.0013846 -0.00482433
572 1 21.0038 5.72612 0 1.02492 2 0 0.0504569 1 0.00217778 -0.00420125
573 1 22.0036 5.72467 0 1.00977 2 0 0.0518584 1 0.00301791 -0.000445741
574 1 23.0045 5.72474 0 1.00488 2 0 0.053162 1 -0.00188408 0.000799857
575 1 24.0037 5.7245 0 1.01237 2 0 0.0544086 1 0.0021422 0.00313881
576 1 25.0045 5.72632 0 1.01087 2 0 0.0555693 1 0.00109366 -0.00078588
577 1 26.0042 5.72739 0 1.01133 2 0 0.0566558 1 -0.000934343 -0.00320904
579 1 27.0043 5.72612 0 1.01129 2 0 0.0576538 1 -0.000566181 0.00583288
580 1 28.0036 5.72645 0 1.02117 2 0 0.0586098 1 -0.00256078 0.00186921
581 1 29.0025 5.7276 0 1.01861 2 0 0.0595022 1 0.00201479 -0.00520301
632 1 30.0026 5.72732 0 1.0167 2 0 0.0602811 1 -0.00153824 0.000738834
582 1 31.0014 5.72783 0 1.0143 2 0 0.0610023 1 0.000171845 0.0012806
583 1 32.0001 5.72827 0 1.0088 2 0 0.0616567 1 0.00397215 0.00155741
584 1 33.0024 5.72861 0 1.00514 2 0 0.0622403 1 0.000829522 0.00321926
585 1 34.0023 5.73089 0 1.02197 2 0 0.062788 1 -0.00106334 -0.00679969
586 1 35.0018 5.72873 0 1.02669 2 0 0.0632592 1 -0.00158072 0.0014337
587 1 36.0019 5.7281 0 1.01702 2 0 0.0636874 1 -0.0040122 0.000938179
588 1 37.0008 5.72595 0 1.01798 2 0 0.0640459 1 -0.000115633 0.00749206
589 1 37.9995 5.72666 0 1.01656 2 0 0.0643272 1 0.00214759 0.00358884
590 1 39 5.72818 0 1.01208 2 0 0.0645617 1 -0.00199076 -7.28975e-05
591 1 39.9999 5.72688 0 1.01334 2 0 0.0647862 1 -0.000288168 0.00627919
592 1 41.0012 5.72886 0 1.02633 2 0 0.0650723 1 -0.00599121 -0.00650447
594 1 43 5.72841 0 1.01497 2 0 0.065504 1 0.000332493 -0.00504127
593 1 42 5.73004 0 1.02837 2 0 0.0653296 1 0.00244507 -0.0118295
595 1 43.9996 5.72876 0 1.01694 2 0 0.0656086 1 -0.00255487 -0.00215022
596 1 44.9989 5.72846 0 1.01116 2 0 0.0657344 1 0.00339866 -0.00320265
597 1 46 5.72929 0 1.01212 2 0 0.065937 1 -0.0046308 -0.00685191
598 1 46.9982 5.72937 0 1.00861 2 0 0.0661156 1 0.00144674 -0.00714639
599 1 47.999 5.72676 0 1.02545 2 0 0.0662856 1 -0.00574662 0.00613251
600 1 48.9972 5.72811 0 1.00476 2 0 0.0664578 1 0.00845934 0.00341863
601 2 0 7 0 1 2 8 0.00136367 1 0 0
602 2 1 7 0 1 2 8 0.00199323 1 0 0
651 2 0 8 0 1 2 8 0.00166997 1 0 0
652 2 1 8 0 1 2 8 0.00245532 1 0 0
603 2 2 7 0 1 2 8 0.00403958 1 0 0
604 2 3 7 0 1 2 8 0.00761885 1 0 0
653 2 2 8 0 1 2 8 0.0049886 1 0 0
654 2 3 8 0 1 2 8 0.00941312 1 0 0
605 2 4 7 0 1 2 5 0.0121486 1 0 0
655 2 4 8 0 1 2 5 0.0147301 1 0 0
656 1 4.86807 7.49554 0 1.01253 2 0 0.0168312 1 0.000769263 0.000389133
606 1 5.39329 6.63928 0 1.01839 2 0 0.0167955 1 -0.000866738 -0.00163074
607 1 6.39624 6.64855 0 1.01626 2 0 0.0201525 1 0.000286082 0.0021855
657 1 5.87364 7.51533 0 1.02523 2 0 0.020913 1 0.000866738 0.00153074
608 1 7.49026 6.59354 0 1.01581 2 0 0.0236549 1 0.00337665 0.00579099
609 1 7.98251 7.46318 0 1.00447 2 0 0.0285256 1 -0.00115002 -0.00185753
658 1 6.98087 7.45789 0 1.00499 2 0 0.0249334 1 0.000771598 0.000609939
559 1 8.49304 6.59656 0 1.01669 2 0 0.0268577 1 0.000367086 0.000675099
610 1 9.50158 6.59265 0 1.00382 2 0 0.0300359 1 -0.000601265 0.000708618
661 1 9.00222 7.45561 0 1.00906 2 0 0.0320771 1 -0.00366058 -0.000945348
612 1 9.99945 7.45826 0 1.00002 2 0 0.0355657 1 0.00646708 -0.00313096
611 1 10.5 6.5933 0 1.00368 2 0 0.0331372 1 0.00209992 0.00103761
564 1 11.5001 6.59366 0 1.01095 2 0 0.0361464 1 -0.00141536 -0.00117266
613 1 10.9996 7.4575 0 1.00877 2 0 0.0390217 1 -0.00152665 0.00441485
614 1 12.4989 6.59369 0 1.01882 2 0 0.0390693 1 0.000669227 -0.00292926
665 1 12.9981 7.45697 0 1.00809 2 0 0.0457077 1 0.00194556 -0.0011745
664 1 11.9992 7.4588 0 1.0022 2 0 0.04241 1 -0.00374935 -0.00143063
615 1 13.5006 6.59275 0 1.00601 2 0 0.0418949 1 -0.00308249 0.00287402
616 1 14.5004 6.59271 0 1.00878 2 0 0.0445753 1 -0.0038671 -0.0045949
666 1 13.999 7.45634 0 0.997531 2 0 0.0488792 1 0.00146905 -4.66032e-05
667 1 14.9984 7.45639 0 1.00922 2 0 0.0519361 1 0.000705167 0.000550842
617 1 15.4992 6.5916 0 1.01132 2 0 0.0471471 1 0.000660678 0.0023866
668 1 15.9978 7.45539 0 1.01232 2 0 0.0548817 1 0.00227906 -0.00154877
619 1 16.5 6.59226 0 1.00791 2 0 0.0496127 1 0.00173915 -0.000129231
669 1 17.5014 6.58992 0 1.0115 2 0 0.0519368 1 0.00100615 0.00406464
719 1 17.0041 7.45496 0 1.0104 2 0 0.0577024 1 -0.00167853 -0.00191259
720 1 18.0039 7.45354 0 1.00384 2 0 0.060379 1 -0.00160929 -0.00163559
620 1 18.5006 6.58934 0 1.00047 2 0 0.0541146 1 0.00122531 0.00298009
621 1 19.5062 6.58782 0 1.01086 2 0 0.0561601 1 -0.00139882 -0.00230841
670 1 19.0078 7.44926 0 1.01205 2 0 0.0629264 1 -0.00194551 0.00188465
671 1 20.0088 7.45024 0 1.01101 2 0 0.0653576 1 0.000307366 0.00101243
622 1 20.5058 6.58779 0 1.02282 2 0 0.0581286 1 0.00170231 0.00216983
623 1 21.5077 6.58718 0 1.01715 2 0 0.0599707 1 -0.00399303 0.000354776
672 1 21.01 7.44924 0 1.01032 2 0 0.0676451 1 -0.00290489 0.000883999
673 1 22.0089 7.44943 0 1.00705 2 0 0.0697678 1 0.00358523 0.00247103
624 1 22.506 6.58698 0 1.00933 2 0 0.0616597 1 0.00476806 0.00108807
674 1 23.0085 7.45052 0 1.01197 2 0 0.0717734 1 -0.000571588 -0.000987477
625 1 23.5069 6.58754 0 1.01358 2 0 0.0632741 1 -0.00187487 0.000436461
626 1 24.5066 6.58752 0 1.01095 2 0 0.0648043 1 -0.00213788 0.0029732
675 1 24.0077 7.45078 0 1.00974 2 0 0.0736881 1 -0.00214566 0.00179823
676 1 25.0049 7.4526 0 1.01754 2 0 0.0754716 1 0.00711249 -0.00358381
578 1 26.5052 6.58969 0 1.0136 2 0 0.0675526 1 0.00553403 0.00383315
628 1 26.0073 7.45373 0 1.00647 2 0 0.0771263 1 0.000427594 0.000292326
627 1 25.5067 6.59044 0 1.0116 2 0 0.0662273 1 -0.00573882 -0.000137524
629 1 27.5061 6.591 0 1.00585 2 0 0.0688047 1 -0.00720678 -0.00324509
679 1 28.006 7.455 0 1.01276 2 0 0.0801575 1 0.0009539 0.0021308
678 1 27.0069 7.45444 0 1.01987 2 0 0.078688 1 -0.00337614 -0.000869334
630 1 28.5033 6.59094 0 1.00031 2 0 0.07 1 0.00533282 0.00143828
631 1 29.5024 6.59093 0 1.01679 2 0 0.0710693 1 0.00427185 0.0011813
680 1 29.0056 7.45533 0 1.0041 2 0 0.0815288 1 -0.00634917 -0.000750433
681 1 30.0033 7.45558 0 1.0067 2 0 0.0827779 1 0.00584001 -0.000425395
682 1 30.5044 6.5924 0 1.0233 2 0 0.0720039 1 -0.00646891 -0.000386292
633 1 31.5022 6.59329 0 1.00197 2 0 0.0728485 1 0.00277173 0.000490985
732 1 31.0031 7.45791 0 1.02086 2 0 0.0838735 1 -0.000967153 -0.00457668
683 1 32.004 7.45823 0 1.00602 2 0 0.0848453 1 -0.00691166 -0.00383583
684 1 32.5014 6.59219 0 1.01173 2 0 0.0736228 1 0.00174488 0.00154122
734 1 33.0013 7.45762 0 1.01306 2 0 0.0857531 1 0.00354206 -0.00128323
634 1 33.5017 6.59438 0 1.00318 2 0 0.0743601 1 -0.000792722 -0.00254326
635 1 34.5023 6.5946 0 1.01335 2 0 0.0750514 1 -0.0010423 -0.00469268
685 1 34.0021 7.45822 0 1.01182 2 0 0.0866019 1 0.00037236 0.00038373
686 1 35.0028 7.45671 0 1.01566 2 0 0.087373 1 -0.00621356 0.00524977
636 1 35.5015 6.59306 0 1.01343 2 0 0.0756388 1 0.0025283 -0.00515944
637 1 36.5018 6.59143 0 0.995425 2 0 0.0761393 1 -0.00195512 0.00387468