ITEM: TIMESTEP
24500
ITEM: NUMBER OF ATOMS
15950
ITEM: BOX BOUNDS pp pp pp
0.0000000000000000e+00 1.0000000000000000e+02
-5.0000000000000000e+00 2.0000000000000000e+02
-5.0000000000000000e-01 5.0000000000000000e-01
ITEM: ATOMS id type x y z c_rho c_phase c_nbond c_temp f_rheo_chi_chi fx fy
1 2 0 -5 0 1 2 8 6.24465e-10 1 0 0
2 2 1 -5 0 1 2 8 9.06614e-10 1 0 0
51 2 0 -4 0 1 2 8 3.76198e-09 1 0 0
52 2 1 -4 0 1 2 8 5.63636e-09 1 0 0
3 2 2 -5 0 1 2 8 1.86388e-09 1 0 0
4 2 3 -5 0 1 2 8 3.6898e-09 1 0 0
53 2 2 -4 0 1 2 8 1.21103e-08 1 0 0
54 2 3 -4 0 1 2 8 2.47102e-08 1 0 0
5 2 4 -5 0 1 2 7 6.62062e-09 1 0 0
55 2 4 -4 0 1 2 8 4.45166e-08 1 0 0
6 2 5 -5 0 1 2 6 1.08624e-08 1 0 0
7 2 6 -5 0 1 2 5 1.5567e-08 1 0 0
56 2 5 -4 0 1 2 8 7.08066e-08 1 0 0
57 2 6 -4 0 1 2 8 1.00354e-07 1 0 0
8 2 7 -5 0 1 2 5 1.99422e-08 1 0 0
9 2 8 -5 0 1 2 5 2.3679e-08 1 0 0
58 2 7 -4 0 1 2 8 1.29095e-07 1 0 0
59 2 8 -4 0 1 2 8 1.53766e-07 1 0 0
10 2 9 -5 0 1 2 5 2.65638e-08 1 0 0
60 2 9 -4 0 1 2 8 1.72814e-07 1 0 0
11 2 10 -5 0 1 2 5 2.86406e-08 1 0 0
12 2 11 -5 0 1 2 5 3.01451e-08 1 0 0
61 2 10 -4 0 1 2 8 1.8654e-07 1 0 0
62 2 11 -4 0 1 2 8 1.9652e-07 1 0 0
13 2 12 -5 0 1 2 5 3.13587e-08 1 0 0
14 2 13 -5 0 1 2 5 3.24478e-08 1 0 0
63 2 12 -4 0 1 2 8 2.04645e-07 1 0 0
64 2 13 -4 0 1 2 8 2.1201e-07 1 0 0
15 2 14 -5 0 1 2 5 3.33937e-08 1 0 0
65 2 14 -4 0 1 2 8 2.18382e-07 1 0 0
16 2 15 -5 0 1 2 5 3.40977e-08 1 0 0
17 2 16 -5 0 1 2 5 3.45495e-08 1 0 0
66 2 15 -4 0 1 2 8 2.22989e-07 1 0 0
67 2 16 -4 0 1 2 8 2.25821e-07 1 0 0
18 2 17 -5 0 1 2 5 3.48476e-08 1 0 0
19 2 18 -5 0 1 2 5 3.5058e-08 1 0 0
68 2 17 -4 0 1 2 8 2.27737e-07 1 0 0
69 2 18 -4 0 1 2 8 2.29302e-07 1 0 0
20 2 19 -5 0 1 2 5 3.51064e-08 1 0 0
70 2 19 -4 0 1 2 8 2.2996e-07 1 0 0
21 2 20 -5 0 1 2 5 3.48418e-08 1 0 0
22 2 21 -5 0 1 2 5 3.41966e-08 1 0 0
71 2 20 -4 0 1 2 8 2.28537e-07 1 0 0
72 2 21 -4 0 1 2 8 2.24459e-07 1 0 0
23 2 22 -5 0 1 2 5 3.32844e-08 1 0 0
24 2 23 -5 0 1 2 5 3.23738e-08 1 0 0
73 2 22 -4 0 1 2 8 2.18443e-07 1 0 0
74 2 23 -4 0 1 2 8 2.12307e-07 1 0 0
25 2 24 -5 0 1 2 5 3.17757e-08 1 0 0
75 2 24 -4 0 1 2 8 2.08227e-07 1 0 0
26 2 25 -5 0 1 2 5 3.17036e-08 1 0 0
27 2 26 -5 0 1 2 5 3.21683e-08 1 0 0
76 2 25 -4 0 1 2 8 2.07755e-07 1 0 0
77 2 26 -4 0 1 2 8 2.10984e-07 1 0 0
28 2 27 -5 0 1 2 5 3.29908e-08 1 0 0
29 2 28 -5 0 1 2 5 3.39388e-08 1 0 0
78 2 27 -4 0 1 2 8 2.16575e-07 1 0 0
79 2 28 -4 0 1 2 8 2.22823e-07 1 0 0
30 2 29 -5 0 1 2 5 3.48581e-08 1 0 0
80 2 29 -4 0 1 2 8 2.28709e-07 1 0 0
31 2 30 -5 0 1 2 5 3.56732e-08 1 0 0
32 2 31 -5 0 1 2 5 3.63031e-08 1 0 0
81 2 30 -4 0 1 2 8 2.33887e-07 1 0 0
82 2 31 -4 0 1 2 8 2.3793e-07 1 0 0
33 2 32 -5 0 1 2 5 3.6647e-08 1 0 0
34 2 33 -5 0 1 2 5 3.66735e-08 1 0 0
83 2 32 -4 0 1 2 8 2.40133e-07 1 0 0
84 2 33 -4 0 1 2 8 2.40216e-07 1 0 0
35 2 34 -5 0 1 2 5 3.64837e-08 1 0 0
85 2 34 -4 0 1 2 8 2.38878e-07 1 0 0
36 2 35 -5 0 1 2 5 3.62378e-08 1 0 0
37 2 36 -5 0 1 2 5 3.60192e-08 1 0 0
86 2 35 -4 0 1 2 8 2.37272e-07 1 0 0
87 2 36 -4 0 1 2 8 2.35974e-07 1 0 0
38 2 37 -5 0 1 2 5 3.57822e-08 1 0 0
39 2 38 -5 0 1 2 5 3.54198e-08 1 0 0
88 2 37 -4 0 1 2 8 2.34606e-07 1 0 0
89 2 38 -4 0 1 2 8 2.32344e-07 1 0 0
40 2 39 -5 0 1 2 5 3.48699e-08 1 0 0
90 2 39 -4 0 1 2 8 2.28679e-07 1 0 0
41 2 40 -5 0 1 2 5 3.41905e-08 1 0 0
42 2 41 -5 0 1 2 5 3.35721e-08 1 0 0
91 2 40 -4 0 1 2 8 2.23959e-07 1 0 0
92 2 41 -4 0 1 2 8 2.19516e-07 1 0 0
43 2 42 -5 0 1 2 5 3.32645e-08 1 0 0
44 2 43 -5 0 1 2 5 3.34236e-08 1 0 0
93 2 42 -4 0 1 2 8 2.17188e-07 1 0 0
94 2 43 -4 0 1 2 8 2.18192e-07 1 0 0
45 2 44 -5 0 1 2 5 3.39673e-08 1 0 0
95 2 44 -4 0 1 2 8 2.22011e-07 1 0 0
46 2 45 -5 0 1 2 5 3.45781e-08 1 0 0
47 2 46 -5 0 1 2 5 3.48975e-08 1 0 0
96 2 45 -4 0 1 2 8 2.26369e-07 1 0 0
97 2 46 -4 0 1 2 8 2.28655e-07 1 0 0
48 2 47 -5 0 1 2 5 3.47757e-08 1 0 0
49 2 48 -5 0 1 2 5 3.43653e-08 1 0 0
98 2 47 -4 0 1 2 8 2.27784e-07 1 0 0
99 2 48 -4 0 1 2 8 2.24879e-07 1 0 0
50 2 49 -5 0 1 2 5 3.39909e-08 1 0 0
100 2 49 -4 0 1 2 8 2.2229e-07 1 0 0
101 2 0 -3 0 1 2 8 2.0666e-08 1 0 0
102 2 1 -3 0 1 2 8 3.20808e-08 1 0 0
151 2 0 -2 0 1 2 8 1.02358e-07 1 0 0
152 2 1 -2 0 1 2 8 1.6531e-07 1 0 0
103 2 2 -3 0 1 2 8 7.23698e-08 1 0 0
104 2 3 -3 0 1 2 8 1.53068e-07 1 0 0
153 2 2 -2 0 1 2 8 3.93267e-07 1 0 0
154 2 3 -2 0 1 2 8 8.65741e-07 1 0 0
105 2 4 -3 0 1 2 8 2.82732e-07 1 0 0
155 2 4 -2 0 1 2 8 1.64686e-06 1 0 0
106 2 5 -3 0 1 2 8 4.56395e-07 1 0 0
107 2 6 -3 0 1 2 8 6.53214e-07 1 0 0
156 2 5 -2 0 1 2 8 2.71146e-06 1 0 0
157 2 6 -2 0 1 2 8 3.92644e-06 1 0 0
108 2 7 -3 0 1 2 8 8.4531e-07 1 0 0
109 2 8 -3 0 1 2 8 1.01006e-06 1 0 0
158 2 7 -2 0 1 2 8 5.11291e-06 1 0 0
159 2 8 -2 0 1 2 8 6.1294e-06 1 0 0
110 2 9 -3 0 1 2 8 1.13717e-06 1 0 0
160 2 9 -2 0 1 2 8 6.91429e-06 1 0 0
111 2 10 -3 0 1 2 8 1.22886e-06 1 0 0
112 2 11 -3 0 1 2 8 1.29578e-06 1 0 0
161 2 10 -2 0 1 2 8 7.48264e-06 1 0 0
162 2 11 -2 0 1 2 8 7.90028e-06 1 0 0
113 2 12 -3 0 1 2 8 1.35086e-06 1 0 0
114 2 13 -3 0 1 2 8 1.40147e-06 1 0 0
163 2 12 -2 0 1 2 8 8.24806e-06 1 0 0
164 2 13 -2 0 1 2 8 8.57215e-06 1 0 0
115 2 14 -3 0 1 2 8 1.44515e-06 1 0 0
165 2 14 -2 0 1 2 8 8.85111e-06 1 0 0
116 2 15 -3 0 1 2 8 1.47568e-06 1 0 0
117 2 16 -3 0 1 2 8 1.49341e-06 1 0 0
166 2 15 -2 0 1 2 8 9.03869e-06 1 0 0
167 2 16 -2 0 1 2 8 9.14027e-06 1 0 0
118 2 17 -3 0 1 2 8 1.50577e-06 1 0 0
119 2 18 -3 0 1 2 8 1.51759e-06 1 0 0
168 2 17 -2 0 1 2 8 9.21413e-06 1 0 0
169 2 18 -2 0 1 2 8 9.2972e-06 1 0 0
120 2 19 -3 0 1 2 8 1.52455e-06 1 0 0
170 2 19 -2 0 1 2 8 9.3583e-06 1 0 0
121 2 20 -3 0 1 2 8 1.51746e-06 1 0 0
122 2 21 -3 0 1 2 8 1.49159e-06 1 0 0
171 2 20 -2 0 1 2 8 9.33158e-06 1 0 0
172 2 21 -2 0 1 2 8 9.1826e-06 1 0 0
123 2 22 -3 0 1 2 8 1.45156e-06 1 0 0
124 2 23 -3 0 1 2 8 1.40976e-06 1 0 0
173 2 22 -2 0 1 2 8 8.93889e-06 1 0 0
174 2 23 -2 0 1 2 8 8.67745e-06 1 0 0
125 2 24 -3 0 1 2 8 1.38154e-06 1 0 0
175 2 24 -2 0 1 2 8 8.49738e-06 1 0 0
126 2 25 -3 0 1 2 8 1.37841e-06 1 0 0
127 2 26 -3 0 1 2 8 1.40123e-06 1 0 0
176 2 25 -2 0 1 2 8 8.47817e-06 1 0 0
177 2 26 -2 0 1 2 8 8.6277e-06 1 0 0
128 2 27 -3 0 1 2 8 1.43982e-06 1 0 0
129 2 28 -3 0 1 2 8 1.48134e-06 1 0 0
178 2 27 -2 0 1 2 8 8.87415e-06 1 0 0
179 2 28 -2 0 1 2 8 9.12771e-06 1 0 0
130 2 29 -3 0 1 2 8 1.51908e-06 1 0 0
180 2 29 -2 0 1 2 8 9.34763e-06 1 0 0
131 2 30 -3 0 1 2 8 1.55205e-06 1 0 0
132 2 31 -3 0 1 2 8 1.57828e-06 1 0 0
181 2 30 -2 0 1 2 8 9.53852e-06 1 0 0
182 2 31 -2 0 1 2 8 9.69491e-06 1 0 0
133 2 32 -3 0 1 2 8 1.59262e-06 1 0 0
134 2 33 -3 0 1 2 8 1.59253e-06 1 0 0
183 2 32 -2 0 1 2 8 9.7816e-06 1 0 0
184 2 33 -2 0 1 2 8 9.77722e-06 1 0 0
135 2 34 -3 0 1 2 8 1.58291e-06 1 0 0
185 2 34 -2 0 1 2 8 9.7136e-06 1 0 0
136 2 35 -3 0 1 2 8 1.57229e-06 1 0 0
137 2 36 -3 0 1 2 8 1.56475e-06 1 0 0
186 2 35 -2 0 1 2 8 9.64927e-06 1 0 0
187 2 36 -2 0 1 2 8 9.6109e-06 1 0 0
138 2 37 -3 0 1 2 8 1.55716e-06 1 0 0
139 2 38 -3 0 1 2 8 1.54315e-06 1 0 0
188 2 37 -2 0 1 2 8 9.57499e-06 1 0 0
189 2 38 -2 0 1 2 8 9.49676e-06 1 0 0
140 2 39 -3 0 1 2 8 1.51861e-06 1 0 0
190 2 39 -2 0 1 2 8 9.34623e-06 1 0 0
141 2 40 -3 0 1 2 8 1.48552e-06 1 0 0
142 2 41 -3 0 1 2 8 1.45325e-06 1 0 0
191 2 40 -2 0 1 2 8 9.13275e-06 1 0 0
192 2 41 -2 0 1 2 8 8.91664e-06 1 0 0
143 2 42 -3 0 1 2 8 1.43549e-06 1 0 0
144 2 43 -3 0 1 2 8 1.44184e-06 1 0 0
193 2 42 -2 0 1 2 8 8.79171e-06 1 0 0
194 2 43 -2 0 1 2 8 8.82778e-06 1 0 0
145 2 44 -3 0 1 2 8 1.46911e-06 1 0 0
195 2 44 -2 0 1 2 8 9.00736e-06 1 0 0
146 2 45 -3 0 1 2 8 1.50068e-06 1 0 0
147 2 46 -3 0 1 2 8 1.51721e-06 1 0 0
196 2 45 -2 0 1 2 8 9.21824e-06 1 0 0
197 2 46 -2 0 1 2 8 9.32811e-06 1 0 0
148 2 47 -3 0 1 2 8 1.51074e-06 1 0 0
149 2 48 -3 0 1 2 8 1.48968e-06 1 0 0
198 2 47 -2 0 1 2 8 9.2834e-06 1 0 0
199 2 48 -2 0 1 2 8 9.14224e-06 1 0 0
150 2 49 -3 0 1 2 8 1.47133e-06 1 0 0
200 2 49 -2 0 1 2 8 9.02162e-06 1 0 0
201 2 0 -1 0 1 2 8 4.51186e-07 1 0 0
202 2 1 -1 0 1 2 8 7.6102e-07 1 0 0
203 2 2 -1 0 1 2 8 1.91719e-06 1 0 0
204 2 3 -1 0 1 2 8 4.4114e-06 1 0 0
205 2 4 -1 0 1 2 8 8.67476e-06 1 0 0
206 2 5 -1 0 1 2 8 1.46025e-05 1 0 0
207 2 6 -1 0 1 2 8 2.14131e-05 1 0 0
208 2 7 -1 0 1 2 8 2.80599e-05 1 0 0
209 2 8 -1 0 1 2 8 3.37492e-05 1 0 0
210 2 9 -1 0 1 2 8 3.81558e-05 1 0 0
211 2 10 -1 0 1 2 8 4.13732e-05 1 0 0
212 2 11 -1 0 1 2 8 4.37622e-05 1 0 0
213 2 12 -1 0 1 2 8 4.57756e-05 1 0 0
214 2 13 -1 0 1 2 8 4.76783e-05 1 0 0
215 2 14 -1 0 1 2 8 4.93125e-05 1 0 0
216 2 15 -1 0 1 2 8 5.03662e-05 1 0 0
217 2 16 -1 0 1 2 8 5.08917e-05 1 0 0
218 2 17 -1 0 1 2 8 5.12973e-05 1 0 0
219 2 18 -1 0 1 2 8 5.18332e-05 1 0 0
220 2 19 -1 0 1 2 8 5.22923e-05 1 0 0
221 2 20 -1 0 1 2 8 5.22507e-05 1 0 0
222 2 21 -1 0 1 2 8 5.14914e-05 1 0 0
223 2 22 -1 0 1 2 8 5.01662e-05 1 0 0
224 2 23 -1 0 1 2 8 4.86982e-05 1 0 0
225 2 24 -1 0 1 2 8 4.76599e-05 1 0 0
226 2 25 -1 0 1 2 8 4.75528e-05 1 0 0
227 2 26 -1 0 1 2 8 4.84437e-05 1 0 0
228 2 27 -1 0 1 2 8 4.98737e-05 1 0 0
229 2 28 -1 0 1 2 8 5.12682e-05 1 0 0
230 2 29 -1 0 1 2 8 5.24052e-05 1 0 0
231 2 30 -1 0 1 2 8 5.33853e-05 1 0 0
232 2 31 -1 0 1 2 8 5.42261e-05 1 0 0
233 2 32 -1 0 1 2 8 5.47053e-05 1 0 0
234 2 33 -1 0 1 2 8 5.46623e-05 1 0 0
235 2 34 -1 0 1 2 8 5.42835e-05 1 0 0
236 2 35 -1 0 1 2 8 5.39346e-05 1 0 0
237 2 36 -1 0 1 2 8 5.37733e-05 1 0 0
238 2 37 -1 0 1 2 8 5.36412e-05 1 0 0
239 2 38 -1 0 1 2 8 5.32583e-05 1 0 0
240 2 39 -1 0 1 2 8 5.24305e-05 1 0 0
241 2 40 -1 0 1 2 8 5.11892e-05 1 0 0
242 2 41 -1 0 1 2 8 4.98806e-05 1 0 0
243 2 42 -1 0 1 2 8 4.90864e-05 1 0 0
244 2 43 -1 0 1 2 8 4.92646e-05 1 0 0
245 2 44 -1 0 1 2 8 5.03333e-05 1 0 0
246 2 45 -1 0 1 2 8 5.16063e-05 1 0 0
247 2 46 -1 0 1 2 8 5.22636e-05 1 0 0
248 2 47 -1 0 1 2 8 5.19816e-05 1 0 0
249 2 48 -1 0 1 2 8 5.11243e-05 1 0 0
250 2 49 -1 0 1 2 8 5.04039e-05 1 0 0
251 2 0 0 0 1 2 8 1.74445e-06 1 0 0
252 2 1 0 0 1 2 8 3.08171e-06 1 0 0
301 2 0 1 0 1 2 8 5.82719e-06 1 0 0
302 2 1 1 0 1 2 8 1.07893e-05 1 0 0
253 2 2 0 0 1 2 8 8.24708e-06 1 0 0
254 2 3 0 0 1 2 8 1.99168e-05 1 0 0
303 2 2 1 0 1 2 8 3.06893e-05 1 0 0
304 2 3 1 0 1 2 8 7.7998e-05 1 0 0
255 2 4 0 0 1 2 8 4.06618e-05 1 0 0
305 2 4 1 0 1 2 8 0.000166044 1 0 0
256 2 5 0 0 1 2 8 7.0182e-05 1 0 0
257 2 6 0 0 1 2 8 0.000104298 1 0 0
306 2 5 1 0 1 2 8 0.000294917 1 0 0
307 2 6 1 0 1 2 8 0.000444424 1 0 0
258 2 7 0 0 1 2 8 0.000137502 1 0 0
259 2 8 0 0 1 2 8 0.000165906 1 0 0
308 2 7 1 0 1 2 8 0.000588902 1 0 0
309 2 8 1 0 1 2 8 0.000712529 1 0 0
260 2 9 0 0 1 2 8 0.000188048 1 0 0
310 2 9 1 0 1 2 8 0.000810025 1 0 0
261 2 10 0 0 1 2 8 0.000204445 1 0 0
262 2 11 0 0 1 2 8 0.000216809 1 0 0
311 2 10 1 0 1 2 8 0.000883806 1 0 0
312 2 11 1 0 1 2 8 0.000940687 1 0 0
263 2 12 0 0 1 2 8 0.000227349 1 0 0
264 2 13 0 0 1 2 8 0.000237442 1 0 0
313 2 12 1 0 1 2 8 0.000989676 1 0 0
314 2 13 1 0 1 2 8 0.00103709 1 0 0
265 2 14 0 0 1 2 8 0.000246102 1 0 0
315 2 14 1 0 1 2 8 0.00107785 1 0 0
266 2 15 0 0 1 2 8 0.000251463 1 0 0
267 2 16 0 0 1 2 8 0.000253915 1 0 0
316 2 15 1 0 1 2 8 0.00110229 1 0 0
317 2 16 1 0 1 2 8 0.00111277 1 0 0
268 2 17 0 0 1 2 8 0.00025597 1 0 0
269 2 18 0 0 1 2 8 0.000259103 1 0 0
318 2 17 1 0 1 2 8 0.00112249 1 0 0
319 2 18 1 0 1 2 8 0.00113881 1 0 0
270 2 19 0 0 1 2 8 0.000262071 1 0 0
320 2 19 1 0 1 2 8 0.00115518 1 0 0
271 2 20 0 0 1 2 8 0.000262469 1 0 0
272 2 21 0 0 1 2 8 0.000259145 1 0 0
321 2 20 1 0 1 2 8 0.00115987 1 0 0
322 2 21 1 0 1 2 8 0.00114797 1 0 0
273 2 22 0 0 1 2 8 0.000252871 1 0 0
274 2 23 0 0 1 2 8 0.000245646 1 0 0
323 2 22 1 0 1 2 8 0.00112315 1 0 0
324 2 23 1 0 1 2 8 0.00109309 1 0 0
275 2 24 0 0 1 2 8 0.000240348 1 0 0
325 2 24 1 0 1 2 8 0.00106991 1 0 0
276 2 25 0 0 1 2 8 0.000239818 1 0 0
277 2 26 0 0 1 2 8 0.000244561 1 0 0
326 2 25 1 0 1 2 8 0.00106771 1 0 0
327 2 26 1 0 1 2 8 0.00108971 1 0 0
278 2 27 0 0 1 2 8 0.000251968 1 0 0
279 2 28 0 0 1 2 8 0.000258746 1 0 0
328 2 27 1 0 1 2 8 0.00112314 1 0 0
329 2 28 1 0 1 2 8 0.00115155 1 0 0
280 2 29 0 0 1 2 8 0.000263826 1 0 0
330 2 29 1 0 1 2 8 0.00117046 1 0 0
281 2 30 0 0 1 2 8 0.000268178 1 0 0
282 2 31 0 0 1 2 8 0.000272184 1 0 0
331 2 30 1 0 1 2 8 0.0011866 1 0 0
332 2 31 1 0 1 2 8 0.00120315 1 0 0
283 2 32 0 0 1 2 8 0.000274577 1 0 0
284 2 33 0 0 1 2 8 0.000274295 1 0 0
333 2 32 1 0 1 2 8 0.00121376 1 0 0
334 2 33 1 0 1 2 8 0.00121243 1 0 0
285 2 34 0 0 1 2 8 0.000272305 1 0 0
335 2 34 1 0 1 2 8 0.00120348 1 0 0
286 2 35 0 0 1 2 8 0.000270655 1 0 0
287 2 36 0 0 1 2 8 0.000270161 1 0 0
336 2 35 1 0 1 2 8 0.00119693 1 0 0
337 2 36 1 0 1 2 8 0.00119636 1 0 0
288 2 37 0 0 1 2 8 0.000269882 1 0 0
289 2 38 0 0 1 2 8 0.000268289 1 0 0
338 2 37 1 0 1 2 8 0.00119692 1 0 0
339 2 38 1 0 1 2 8 0.00119153 1 0 0
290 2 39 0 0 1 2 8 0.000264297 1 0 0
340 2 39 1 0 1 2 8 0.00117517 1 0 0
291 2 40 0 0 1 2 8 0.000257927 1 0 0
292 2 41 0 0 1 2 8 0.000250905 1 0 0
341 2 40 1 0 1 2 8 0.00114718 1 0 0
342 2 41 1 0 1 2 8 0.00111473 1 0 0
293 2 42 0 0 1 2 8 0.000246433 1 0 0
294 2 43 0 0 1 2 8 0.000247168 1 0 0
343 2 42 1 0 1 2 8 0.00109305 1 0 0
344 2 43 1 0 1 2 8 0.00109541 1 0 0
295 2 44 0 0 1 2 8 0.000252805 1 0 0
345 2 44 1 0 1 2 8 0.00112103 1 0 0
296 2 45 0 0 1 2 8 0.000259609 1 0 0
297 2 46 0 0 1 2 8 0.000263069 1 0 0
346 2 45 1 0 1 2 8 0.00115231 1 0 0
347 2 46 1 0 1 2 8 0.00116781 1 0 0
298 2 47 0 0 1 2 8 0.000261474 1 0 0
299 2 48 0 0 1 2 8 0.000256851 1 0 0
348 2 47 1 0 1 2 8 0.0011599 1 0 0
349 2 48 1 0 1 2 8 0.00113838 1 0 0
300 2 49 0 0 1 2 8 0.000253013 1 0 0
350 2 49 1 0 1 2 8 0.00112062 1 0 0
351 2 0 2 0 1 2 8 1.65854e-05 1 0 0
352 2 1 2 0 1 2 8 3.21063e-05 1 0 0
401 2 0 3 0 1 2 8 3.9827e-05 1 0 0
402 2 1 3 0 1 2 8 8.01824e-05 1 0 0
353 2 2 2 0 1 2 8 9.66778e-05 1 0 0
354 2 3 2 0 1 2 8 0.00025797 1 0 0
403 2 2 3 0 1 2 8 0.000253051 1 0 0
404 2 3 3 0 1 2 8 0.000700708 1 0 0
355 2 4 2 0 1 2 8 0.000573977 1 0 0
405 2 4 3 0 1 2 8 0.0016106 1 0 0
356 2 5 2 0 1 2 8 0.00105378 1 0 0
357 2 6 2 0 1 2 8 0.00160955 1 0 0
406 2 5 3 0 1 2 8 0.00308289 1 0 0
407 2 6 3 0 1 2 8 0.00477452 1 0 0
358 2 7 2 0 1 2 8 0.0021382 1 0 0
359 2 8 2 0 1 2 8 0.00259188 1 0 0
408 2 7 3 0 1 2 8 0.00631079 1 0 0
409 2 8 3 0 1 2 8 0.00765008 1 0 0
360 2 9 2 0 1 2 8 0.00295682 1 0 0
410 2 9 3 0 1 2 8 0.00876571 1 0 0
361 2 10 2 0 1 2 8 0.0032417 1 0 0
362 2 11 2 0 1 2 8 0.00346823 1 0 0
411 2 10 3 0 1 2 8 0.00967189 1 0 0
412 2 11 3 0 1 2 8 0.010425 1 0 0
363 2 12 2 0 1 2 8 0.00366513 1 0 0
364 2 13 2 0 1 2 8 0.00385676 1 0 0
413 2 12 3 0 1 2 8 0.0110865 1 0 0
414 2 13 3 0 1 2 8 0.0117268 1 0 0
365 2 14 2 0 1 2 8 0.0040224 1 0 0
415 2 14 3 0 1 2 8 0.012288 1 0 0
366 2 15 2 0 1 2 8 0.00412103 1 0 0
367 2 16 2 0 1 2 8 0.00416362 1 0 0
416 2 15 3 0 1 2 8 0.0126359 1 0 0
417 2 16 3 0 1 2 8 0.0128084 1 0 0
368 2 17 2 0 1 2 8 0.004207 1 0 0
369 2 18 2 0 1 2 8 0.00428095 1 0 0
418 2 17 3 0 1 2 8 0.0129916 1 0 0
419 2 18 3 0 1 2 8 0.0132761 1 0 0
370 2 19 2 0 1 2 8 0.00435621 1 0 0
420 2 19 3 0 1 2 8 0.0135582 1 0 0
371 2 20 2 0 1 2 8 0.00438577 1 0 0
372 2 21 2 0 1 2 8 0.00435451 1 0 0
421 2 20 3 0 1 2 8 0.0136909 1 0 0
422 2 21 3 0 1 2 8 0.0136517 1 0 0
373 2 22 2 0 1 2 8 0.00427839 1 0 0
374 2 23 2 0 1 2 8 0.00417905 1 0 0
423 2 22 3 0 1 2 8 0.0135042 1 0 0
424 2 23 3 0 1 2 8 0.0132771 1 0 0
375 2 24 2 0 1 2 8 0.00409663 1 0 0
425 2 24 3 0 1 2 8 0.0130623 1 0 0
376 2 25 2 0 1 2 8 0.00409013 1 0 0
377 2 26 2 0 1 2 8 0.00417585 1 0 0
426 2 25 3 0 1 2 8 0.0130607 1 0 0
427 2 26 3 0 1 2 8 0.0133258 1 0 0
378 2 27 2 0 1 2 8 0.00430268 1 0 0
379 2 28 2 0 1 2 8 0.00440186 1 0 0
428 2 27 3 0 1 2 8 0.0137121 1 0 0
429 2 28 3 0 1 2 8 0.0139905 1 0 0
380 2 29 2 0 1 2 8 0.00445759 1 0 0
430 2 29 3 0 1 2 8 0.0141116 1 0 0
381 2 30 2 0 1 2 8 0.00450523 1 0 0
382 2 31 2 0 1 2 8 0.0045628 1 0 0
431 2 30 3 0 1 2 8 0.0142201 1 0 0
432 2 31 3 0 1 2 8 0.014384 1 0 0
383 2 32 2 0 1 2 8 0.00460354 1 0 0
384 2 33 2 0 1 2 8 0.0045995 1 0 0
433 2 32 3 0 1 2 8 0.0145159 1 0 0
434 2 33 3 0 1 2 8 0.0145147 1 0 0
385 2 34 2 0 1 2 8 0.00456675 1 0 0
435 2 34 3 0 1 2 8 0.0144228 1 0 0
386 2 35 2 0 1 2 8 0.00454635 1 0 0
387 2 36 2 0 1 2 8 0.0045509 1 0 0
436 2 35 3 0 1 2 8 0.0143798 1 0 0
437 2 36 3 0 1 2 8 0.0144169 1 0 0
388 2 37 2 0 1 2 8 0.00455946 1 0 0
389 2 38 2 0 1 2 8 0.00454553 1 0 0
438 2 37 3 0 1 2 8 0.014459 1 0 0
439 2 38 3 0 1 2 8 0.0144323 1 0 0
390 2 39 2 0 1 2 8 0.00449117 1 0 0
440 2 39 3 0 1 2 8 0.0142967 1 0 0
391 2 40 2 0 1 2 8 0.00439086 1 0 0
392 2 41 2 0 1 2 8 0.00426727 1 0 0
441 2 40 3 0 1 2 8 0.0140296 1 0 0
442 2 41 3 0 1 2 8 0.0136665 1 0 0
393 2 42 2 0 1 2 8 0.00418079 1 0 0
394 2 43 2 0 1 2 8 0.0041858 1 0 0
443 2 42 3 0 1 2 8 0.0134023 1 0 0
444 2 43 3 0 1 2 8 0.0134049 1 0 0
395 2 44 2 0 1 2 8 0.00428174 1 0 0
445 2 44 3 0 1 2 8 0.01368 1 0 0
396 2 45 2 0 1 2 8 0.00439993 1 0 0
397 2 46 2 0 1 2 8 0.00445586 1 0 0
446 2 45 3 0 1 2 8 0.014022 1 0 0
447 2 46 3 0 1 2 8 0.0141686 1 0 0
398 2 47 2 0 1 2 8 0.00442272 1 0 0
399 2 48 2 0 1 2 8 0.00433996 1 0 0
448 2 47 3 0 1 2 8 0.0140554 1 0 0
449 2 48 3 0 1 2 8 0.0138112 1 0 0
400 2 49 2 0 1 2 8 0.00427134 1 0 0
450 2 49 3 0 1 2 8 0.0136002 1 0 0
451 2 0 4 0 1 2 8 8.0481e-05 1 0 0
452 2 1 4 0 1 2 8 0.000167349 1 0 0
453 2 2 4 0 1 2 8 0.000547498 1 0 0
454 2 3 4 0 1 2 8 0.00154259 1 0 0
455 2 4 4 0 1 2 7 0.00348011 1 0 0
456 2 5 4 0 1 2 6 0.00697001 1 0 0
457 2 6 4 0 1 2 5 0.0106345 1 0 0
506 1 5.48996 4.86829 0 1.0006 2 0 0.0132456 1 -0.00341316 -0.00155362
507 1 6.48779 4.87034 0 1.02569 2 0 0.0168846 1 0.00151507 -0.00499871
458 2 7 4 0 1 2 5 0.0137441 1 0 0
459 2 8 4 0 1 2 5 0.0166031 1 0 0
508 1 7.49633 4.86448 0 1.03193 2 0 0.0205527 1 -0.0034283 -0.00370876
460 2 9 4 0 1 2 5 0.0190987 1 0 0
510 1 8.49567 4.86522 0 1.01036 2 0 0.0240227 1 0.00282735 -0.00151514
511 1 9.50121 4.86442 0 1.00136 2 0 0.0272149 1 -0.00696087 -0.00459356
461 2 10 4 0 1 2 5 0.0212344 1 0 0
462 2 11 4 0 1 2 5 0.0231186 1 0 0
512 1 10.4989 4.86409 0 1.01573 2 0 0.0302222 1 0.00531924 0.00220878
513 1 11.4995 4.865 0 1.01534 2 0 0.033063 1 -0.00265357 -0.000248493
463 2 12 4 0 1 2 5 0.024817 1 0 0
464 2 13 4 0 1 2 5 0.0264169 1 0 0
514 1 12.4989 4.86543 0 1.01802 2 0 0.0356975 1 -0.00109174 -0.00418738
465 2 14 4 0 1 2 5 0.0278396 1 0 0
515 1 13.4995 4.86398 0 1.02031 2 0 0.0381302 1 -0.0032677 0.00293562
516 1 14.4986 4.86312 0 1.0096 2 0 0.0403081 1 -0.000493335 0.00543274
466 2 15 4 0 1 2 5 0.028843 1 0 0
467 2 16 4 0 1 2 5 0.0294825 1 0 0
518 1 16.4992 4.86489 0 1.02515 2 0 0.0438621 1 0.000399344 0.00266801
517 1 15.4976 4.86596 0 1.02614 2 0 0.0421779 1 0.00160691 -0.000743845
468 2 17 4 0 1 2 5 0.0301287 1 0 0
469 2 18 4 0 1 2 5 0.0309585 1 0 0
519 1 17.5014 4.86372 0 1.0239 2 0 0.0454419 1 -0.0010072 0.00603678
470 2 19 4 0 1 2 5 0.0317271 1 0 0
520 1 18.5014 4.86364 0 1.00577 2 0 0.0468717 1 -0.00315305 0.00539352
521 1 19.501 4.86629 0 1.00453 2 0 0.048073 1 -0.00500807 -0.00359526
471 2 20 4 0 1 2 5 0.0321611 1 0 0
472 2 21 4 0 1 2 5 0.0322786 1 0 0
523 1 21.4994 4.86376 0 1.02268 2 0 0.0497956 1 -0.000502762 0.00420952
522 1 20.4985 4.86395 0 1.0139 2 0 0.0490025 1 0.00420008 0.00198527
473 2 22 4 0 1 2 5 0.0322576 1 0 0
474 2 23 4 0 1 2 5 0.032051 1 0 0
524 1 22.4985 4.86413 0 1.01383 2 0 0.0504503 1 0.000187454 0.000284258
475 2 24 4 0 1 2 5 0.0317861 1 0 0
525 1 23.4986 4.8646 0 1.03669 2 0 0.0509755 1 -0.00063952 -1.85826e-05
526 1 24.4988 4.86519 0 1.04245 2 0 0.0515007 1 8.39753e-05 -0.00416482
476 2 25 4 0 1 2 5 0.0318955 1 0 0
477 2 26 4 0 1 2 5 0.0324647 1 0 0
528 1 26.499 4.86371 0 1.04147 2 0 0.0528519 1 7.20783e-05 0.00438866
527 1 25.4984 4.86339 0 1.03798 2 0 0.0521406 1 0.00150548 0.00645472
478 2 27 4 0 1 2 5 0.0332812 1 0 0
479 2 28 4 0 1 2 5 0.0338373 1 0 0
529 1 27.5004 4.86417 0 1.0019 2 0 0.0535192 1 -0.00195806 0.00248086
480 2 29 4 0 1 2 5 0.034049 1 0 0
531 1 29.5001 4.86434 0 1.01679 2 0 0.0544909 1 0.00140007 -0.00197309
530 1 28.5003 4.86422 0 1.02091 2 0 0.0540525 1 0.00201914 -0.00117971
481 2 30 4 0 1 2 5 0.0342489 1 0 0
482 2 31 4 0 1 2 5 0.034596 1 0 0
533 1 31.5 4.86445 0 1.004 2 0 0.0552999 1 -0.000879654 -0.00394953
532 1 30.5004 4.86445 0 1.0182 2 0 0.0548998 1 -0.0015179 -0.00304096
483 2 32 4 0 1 2 5 0.0349082 1 0 0
484 2 33 4 0 1 2 5 0.0349643 1 0 0
534 1 32.4991 4.86368 0 1.00171 2 0 0.0555966 1 0.00393691 0.00316877
485 2 34 4 0 1 2 5 0.0348161 1 0 0
535 1 33.5002 4.86331 0 1.00275 2 0 0.0557348 1 -0.00039733 0.00580541
536 1 34.5014 4.86386 0 1.0237 2 0 0.0558071 1 -0.000171646 -0.000536837
486 2 35 4 0 1 2 5 0.0347829 1 0 0
487 2 36 4 0 1 2 5 0.0349098 1 0 0
538 1 36.5008 4.86448 0 1.01227 2 0 0.0561036 1 0.000862 0.000338547
537 1 35.5021 4.86439 0 1.0067 2 0 0.05595 1 -0.00502006 0.00066168
488 2 37 4 0 1 2 5 0.0350162 1 0 0
489 2 38 4 0 1 2 5 0.0349734 1 0 0
539 1 37.5007 4.86459 0 1.00174 2 0 0.0561503 1 0.00044221 0.000466864
490 2 39 4 0 1 2 5 0.034761 1 0 0
541 1 39.5005 4.86402 0 1.00168 2 0 0.0559255 1 -0.00206621 -0.00236792
540 1 38.5004 4.86512 0 1.01715 2 0 0.0560976 1 -0.00309506 -0.0066633
491 2 40 4 0 1 2 5 0.0343305 1 0 0
492 2 41 4 0 1 2 5 0.0336557 1 0 0
542 1 40.5016 4.86438 0 1.01016 2 0 0.0556722 1 -0.0024283 -0.000237961
543 1 41.5008 4.86281 0 1.03252 2 0 0.0554546 1 0.00163253 0.00639388
493 2 42 4 0 1 2 5 0.0331596 1 0 0
494 2 43 4 0 1 2 5 0.0331498 1 0 0
544 1 42.5017 4.86459 0 1.0319 2 0 0.0554102 1 -0.00355923 -0.0034494
495 2 44 4 0 1 2 5 0.0336352 1 0 0
545 1 43.5005 4.86435 0 1.03659 2 0 0.0555312 1 0.00121811 -0.000972371
546 1 44.4997 4.86372 0 1.01001 2 0 0.0557207 1 0.00302452 0.0029504
496 2 45 4 0 1 2 5 0.0342413 1 0 0
497 2 46 4 0 1 2 5 0.0344522 1 0 0
548 1 46.5017 4.86467 0 1.00807 2 0 0.0558717 1 -0.00334562 -0.000823481
547 1 45.5008 4.86492 0 1.00173 2 0 0.0558824 1 -0.000824368 -0.00420877
498 2 47 4 0 1 2 5 0.0341968 1 0 0
499 2 48 4 0 1 2 5 0.0337403 1 0 0
549 1 47.5013 4.8642 0 1.02093 2 0 0.0556925 1 -0.00387255 0.00267723
500 2 49 4 0 1 2 5 0.033339 1 0 0
550 1 48.5004 4.86438 0 1.02225 2 0 0.0555558 1 0.000709333 0.00166304
8501 1 49.5002 4.86388 0 1.06187 2 0 0.0555414 1 -0.0011238 0.00202575
501 2 0 5 0 1 2 8 0.000138033 1 0 0
502 2 1 5 0 1 2 8 0.000294083 1 0 0
551 2 0 6 0 1 2 8 0.000205434 1 0 0
552 2 1 6 0 1 2 8 0.000445065 1 0 0
503 2 2 5 0 1 2 8 0.000985415 1 0 0
504 2 3 5 0 1 2 8 0.00282019 1 0 0
553 2 2 6 0 1 2 8 0.00150824 1 0 0
554 2 3 6 0 1 2 8 0.00432453 1 0 0
505 2 4 5 0 1 2 6 0.00641138 1 0 0
555 2 4 6 0 1 2 5 0.00957952 1 0 0
556 1 4.96273 5.71705 0 1.02426 2 0 0.0143594 1 -0.000872527 0.00135461
557 1 5.96454 5.74504 0 1.00456 2 0 0.0192072 1 -0.00130211 -0.00289849
558 1 6.97886 5.73555 0 1.00032 2 0 0.0235931 1 0.00292743 0.00530623
509 1 7.99126 5.72729 0 1.00999 2 0 0.0279946 1 0.00569311 0.00838244
560 1 8.99876 5.72652 0 1.01571 2 0 0.0321641 1 7.28076e-05 0.00356642
561 1 9.99782 5.72865 0 1.04128 2 0 0.0361936 1 0.0031985 0.00113938
562 1 10.997 5.72968 0 1.02468 2 0 0.0400539 1 -0.00202574 4.53866e-05
563 1 11.9946 5.7317 0 1.00884 2 0 0.0436924 1 0.00144233 -0.00329996
565 1 12.9929 5.73097 0 1.01555 2 0 0.0471445 1 0.00534347 0.00185131
566 1 13.9948 5.7306 0 1.01485 2 0 0.0503507 1 -0.00441664 -0.0029885
567 1 14.9934 5.72993 0 1.00349 2 0 0.0532691 1 0.00340128 -6.46532e-05
568 1 15.9959 5.731 0 1.02492 2 0 0.0559701 1 -0.00135288 -0.00638629
569 1 17.9991 5.73111 0 1.01386 2 0 0.0605989 1 0.00615025 -0.00639775
618 1 17.0014 5.7292 0 1.00786 2 0 0.0584177 1 -0.0085154 -0.00519134
570 1 18.9988 5.73001 0 1.00562 2 0 0.062501 1 -0.000365718 0.00287257
571 1 19.9984 5.73217 0 1.00943 2 0 0.0641713 1 0.00113891 -0.00370402
572 1 20.9978 5.72759 0 1.02492 2 0 0.0656628 1 0.00130858 0.00520468
573 1 21.9974 5.73051 0 1.00977 2 0 0.0669815 1 -0.00606848 -0.0048088
574 1 22.9953 5.72849 0 1.00488 2 0 0.0681342 1 0.00778984 -0.0018471
575 1 23.9977 5.72854 0 1.01237 2 0 0.069206 1 -0.00360182 -0.00087664
576 1 24.9974 5.72962 0 1.01087 2 0 0.0701713 1 0.00238865 -0.00180825
577 1 25.9979 5.72878 0 1.01133 2 0 0.0710531 1 0.000314317 0.000497076
579 1 26.9984 5.72876 0 1.01129 2 0 0.0718231 1 0.00136371 -0.000284001
580 1 28.002 5.72755 0 1.02117 2 0 0.0725634 1 0.00101353 -0.000551513
581 1 29.002 5.72857 0 1.01861 2 0 0.0732337 1 -0.00279302 0.00077654
632 1 30.0006 5.72831 0 1.0167 2 0 0.0737559 1 0.00292336 0.00267566
582 1 31.0004 5.72762 0 1.0143 2 0 0.0742272 1 0.000344026 0.0043119
583 1 31.9996 5.728 0 1.0088 2 0 0.0746463 1 0.00471932 0.00225692
584 1 33 5.72862 0 1.00514 2 0 0.0749995 1 -0.000878234 -0.00513254
585 1 34.0021 5.72728 0 1.02197 2 0 0.075339 1 -0.00382852 0.00515398
586 1 35.0009 5.72849 0 1.02669 2 0 0.0756071 1 0.00305456 0.00372237
587 1 36.001 5.72949 0 1.01702 2 0 0.0758423 1 -0.00167003 0.000567614
588 1 37.0008 5.7288 0 1.01798 2 0 0.0759685 1 -0.000443639 0.00304916
589 1 38.0007 5.72996 0 1.01656 2 0 0.0759848 1 -0.00421405 -0.00510127
590 1 38.9988 5.72718 0 1.01208 2 0 0.0759268 1 0.00734817 0.00535883
591 1 39.9993 5.72707 0 1.01334 2 0 0.0758808 1 0.00218278 0.0028056
592 1 41.0028 5.72832 0 1.02633 2 0 0.0759841 1 -0.00314549 0.000288074
594 1 43.0015 5.72841 0 1.01497 2 0 0.0761305 1 0.00149568 0.00328606
593 1 42.0018 5.72782 0 1.02837 2 0 0.0760954 1 0.00119441 -0.0015997
595 1 44.0011 5.7286 0 1.01694 2 0 0.0760763 1 -0.000753759 0.00121537
596 1 45.0008 5.72848 0 1.01116 2 0 0.0760234 1 -0.00177042 0.00103629
597 1 46.0002 5.72873 0 1.01212 2 0 0.0760466 1 0.00140614 0.00263791
598 1 46.9993 5.72998 0 1.00861 2 0 0.0760069 1 0.00364675 -0.00693291
599 1 48 5.72918 0 1.02545 2 0 0.0759717 1 0.000431383 -0.0029948
600 1 49.0005 5.72913 0 1.00476 2 0 0.0760212 1 -0.0026543 -0.00248727
8551 1 49.9995 5.72843 0 0.994864 2 0 0.0759761 1 0.00239586 -0.000445853
601 2 0 7 0 1 2 8 0.000273559 1 0 0
602 2 1 7 0 1 2 8 0.000600172 1 0 0
651 2 0 8 0 1 2 8 0.000335073 1 0 0
652 2 1 8 0 1 2 8 0.000743412 1 0 0
603 2 2 7 0 1 2 8 0.00204968 1 0 0
604 2 3 7 0 1 2 8 0.00589732 1 0 0
653 2 2 8 0 1 2 8 0.00255953 1 0 0
654 2 3 8 0 1 2 8 0.00744599 1 0 0
605 2 4 7 0 1 2 5 0.0128391 1 0 0
655 2 4 8 0 1 2 5 0.0159545 1 0 0
656 1 4.88109 7.47398 0 1.01253 2 0 0.0199088 1 0 -5e-05
606 1 5.41518 6.6141 0 1.01839 2 0 0.0203754 1 0 -5e-05
607 1 6.41816 6.63109 0 1.01626 2 0 0.0256835 1 0.000679164 0.00297672
657 1 5.89951 7.50149 0 1.02523 2 0 0.0266436 1 0 -5e-05
608 1 7.49161 6.59166 0 1.01581 2 0 0.0311649 1 -0.00170011 0.00255576
609 1 7.9957 7.45276 0 1.00447 2 0 0.0392643 1 -0.000581043 0.00409603
658 1 6.97931 7.45506 0 1.00499 2 0 0.0332519 1 -9.27569e-05 -0.00114037
559 1 8.49914 6.59031 0 1.01669 2 0 0.036237 1 -0.00651493 -0.00420952
610 1 9.49779 6.59251 0 1.00382 2 0 0.0412438 1 -0.00203214 -0.00208241
661 1 8.99556 7.45478 0 1.00906 2 0 0.0451887 1 -0.00286343 0.00528843
612 1 9.99244 7.45999 0 1.00002 2 0 0.0510039 1 0.00691464 -0.00126806
611 1 10.4957 6.59424 0 1.00368 2 0 0.0460995 1 -0.000393861 -0.00075866
564 1 11.4943 6.59656 0 1.01095 2 0 0.0507638 1 -0.0029682 -0.00483277
613 1 10.9923 7.45943 0 1.00877 2 0 0.056726 1 -0.00210095 0.00608177
614 1 12.492 6.59591 0 1.01882 2 0 0.0552445 1 0.00349403 0.00253812
665 1 12.9897 7.46106 0 1.00809 2 0 0.0675997 1 -0.00420248 -0.000474405
664 1 11.9906 7.46177 0 1.0022 2 0 0.0622736 1 0.00331786 0.00185078
615 1 13.4911 6.59588 0 1.00601 2 0 0.0594957 1 0.0010781 -0.00159429
616 1 14.4916 6.59445 0 1.00878 2 0 0.0634344 1 -0.000112758 0.000983488
666 1 13.987 7.46114 0 0.997531 2 0 0.0725867 1 0.00268113 -0.00581913
667 1 14.9874 7.45912 0 1.00922 2 0 0.0773069 1 0.00130212 -0.00226119
617 1 15.4934 6.59423 0 1.01132 2 0 0.0671263 1 -0.00342141 -0.00194846
668 1 15.9914 7.45703 0 1.01232 2 0 0.0817325 1 0.000445642 0.00380105
619 1 16.4956 6.59236 0 1.00791 2 0 0.0705485 1 0.00131703 0.00214884
669 1 17.4976 6.59303 0 1.0115 2 0 0.0736417 1 -0.000824756 0.00827844
719 1 16.9905 7.45794 0 1.0104 2 0 0.0858033 1 -0.000193976 0.000607624
720 1 17.9894 7.46169 0 1.00384 2 0 0.0894697 1 0.0047685 -0.00359446
620 1 18.4984 6.59653 0 1.00047 2 0 0.0763813 1 -0.000290132 -0.000574861
621 1 19.4984 6.596 0 1.01086 2 0 0.078837 1 -0.00904537 0.000545804
670 1 18.9934 7.46405 0 1.01205 2 0 0.0927548 1 -0.00226598 -0.00357276
671 1 19.9933 7.46294 0 1.01101 2 0 0.0957106 1 0.001976 0.00299711
622 1 20.4956 6.59793 0 1.02282 2 0 0.0810495 1 -0.00132751 -0.00312169
623 1 21.493 6.59585 0 1.01715 2 0 0.0829615 1 0.00634822 -0.000609804
672 1 20.9935 7.46125 0 1.01032 2 0 0.0982317 1 0.00328744 0.00607617
673 1 21.9943 7.46258 0 1.00705 2 0 0.100389 1 -0.00215067 -0.00219686
624 1 22.4975 6.59284 0 1.00933 2 0 0.0845968 1 -0.00486914 0.00857038
674 1 22.9938 7.46012 0 1.01197 2 0 0.10236 1 -0.00237803 -0.00534749
625 1 23.4951 6.59261 0 1.01358 2 0 0.0861082 1 0.00153985 -0.000596478
626 1 24.4941 6.59201 0 1.01095 2 0 0.0874785 1 0.00389272 0.0043207
675 1 23.9937 7.45657 0 1.00974 2 0 0.104179 1 0.00154079 0.00284656
676 1 24.9933 7.45631 0 1.01754 2 0 0.105735 1 0.00346467 0.000281674
578 1 26.4987 6.5938 0 1.0136 2 0 0.0897177 1 0.00129225 -0.000600581
628 1 25.9987 7.4577 0 1.00647 2 0 0.107039 1 -0.00281774 -0.00615844
627 1 25.497 6.59397 0 1.0116 2 0 0.0886691 1 0.00148671 -0.000975678
629 1 27.5045 6.59063 0 1.00585 2 0 0.0906652 1 -0.00502719 0.0023463
679 1 28.0051 7.45638 0 1.01276 2 0 0.109292 1 0.00404501 0.000453301
678 1 27.0079 7.45524 0 1.01987 2 0 0.108182 1 -0.00454105 -0.00469664
630 1 28.5022 6.59214 0 1.00031 2 0 0.0916186 1 0.00663094 0.000565949
631 1 29.5027 6.5937 0 1.01679 2 0 0.0924321 1 -0.000551592 0.00237443
680 1 29.0044 7.46006 0 1.0041 2 0 0.110391 1 0.00402694 -0.00574944
681 1 30.0049 7.45873 0 1.0067 2 0 0.111397 1 -0.00106082 -0.00135114
682 1 30.5027 6.5927 0 1.0233 2 0 0.0930768 1 -0.00245125 0.00222903
633 1 31.5018 6.59219 0 1.00197 2 0 0.093615 1 -0.00154749 0.00105444
732 1 31.0044 7.45777 0 1.02086 2 0 0.112203 1 -0.0055766 0.000404362
683 1 32.0013 7.45747 0 1.00602 2 0 0.11281 1 0.00852303 -0.00103087
684 1 32.5008 6.59327 0 1.01173 2 0 0.0940989 1 -0.000798464 -0.00392071
734 1 33.002 7.45624 0 1.01306 2 0 0.113351 1 -0.00284878 0.00350818
634 1 33.5002 6.59175 0 1.00318 2 0 0.0945895 1 0.00511543 0.000658335
635 1 34.5014 6.59443 0 1.01335 2 0 0.0950951 1 0.00047526 -0.00633867
685 1 34.0013 7.45697 0 1.01182 2 0 0.113959 1 0.00204253 -0.00256856
686 1 35.002 7.459 0 1.01566 2 0 0.114624 1 -6.18392e-05 0.00261641
636 1 35.5008 6.59521 0 1.01343 2 0 0.0954865 1 0.00111779 -0.00632664