ITEM: TIMESTEP
8500
ITEM: NUMBER OF ATOMS
15950
ITEM: BOX BOUNDS pp pp pp
0.0000000000000000e+00 1.0000000000000000e+02
-5.0000000000000000e+00 2.0000000000000000e+02
-5.0000000000000000e-01 5.0000000000000000e-01
ITEM: ATOMS id type x y z c_rho c_phase c_nbond c_temp f_rheo_chi_chi fx fy
1 2 0 -5 0 1 2 8 3.45333e-13 1 0 0
2 2 1 -5 0 1 2 8 6.44903e-13 1 0 0
51 2 0 -4 0 1 2 8 3.8702e-12 1 0 0
52 2 1 -4 0 1 2 8 7.66417e-12 1 0 0
3 2 2 -5 0 1 2 8 1.73644e-12 1 0 0
4 2 3 -5 0 1 2 8 4.08169e-12 1 0 0
53 2 2 -4 0 1 2 8 2.20817e-11 1 0 0
54 2 3 -4 0 1 2 8 5.44967e-11 1 0 0
5 2 4 -5 0 1 2 7 8.05711e-12 1 0 0
55 2 4 -4 0 1 2 8 1.10513e-10 1 0 0
6 2 5 -5 0 1 2 6 1.35761e-11 1 0 0
7 2 6 -5 0 1 2 5 1.94806e-11 1 0 0
56 2 5 -4 0 1 2 8 1.86661e-10 1 0 0
57 2 6 -4 0 1 2 8 2.69109e-10 1 0 0
8 2 7 -5 0 1 2 5 2.45878e-11 1 0 0
9 2 8 -5 0 1 2 5 2.83278e-11 1 0 0
58 2 7 -4 0 1 2 8 3.41955e-10 1 0 0
59 2 8 -4 0 1 2 8 3.95408e-10 1 0 0
10 2 9 -5 0 1 2 5 3.0628e-11 1 0 0
60 2 9 -4 0 1 2 8 4.28181e-10 1 0 0
11 2 10 -5 0 1 2 5 3.18228e-11 1 0 0
12 2 11 -5 0 1 2 5 3.24319e-11 1 0 0
61 2 10 -4 0 1 2 8 4.44944e-10 1 0 0
62 2 11 -4 0 1 2 8 4.52974e-10 1 0 0
13 2 12 -5 0 1 2 5 3.30369e-11 1 0 0
14 2 13 -5 0 1 2 5 3.40163e-11 1 0 0
63 2 12 -4 0 1 2 8 4.60998e-10 1 0 0
64 2 13 -4 0 1 2 8 4.75246e-10 1 0 0
15 2 14 -5 0 1 2 5 3.5204e-11 1 0 0
65 2 14 -4 0 1 2 8 4.93e-10 1 0 0
16 2 15 -5 0 1 2 5 3.6103e-11 1 0 0
17 2 16 -5 0 1 2 5 3.65149e-11 1 0 0
66 2 15 -4 0 1 2 8 5.05957e-10 1 0 0
67 2 16 -4 0 1 2 8 5.11197e-10 1 0 0
18 2 17 -5 0 1 2 5 3.66872e-11 1 0 0
19 2 18 -5 0 1 2 5 3.68479e-11 1 0 0
68 2 17 -4 0 1 2 8 5.13277e-10 1 0 0
69 2 18 -4 0 1 2 8 5.16049e-10 1 0 0
20 2 19 -5 0 1 2 5 3.68556e-11 1 0 0
70 2 19 -4 0 1 2 8 5.17067e-10 1 0 0
21 2 20 -5 0 1 2 5 3.63783e-11 1 0 0
22 2 21 -5 0 1 2 5 3.53243e-11 1 0 0
71 2 20 -4 0 1 2 8 5.10759e-10 1 0 0
72 2 21 -4 0 1 2 8 4.95446e-10 1 0 0
23 2 22 -5 0 1 2 5 3.39981e-11 1 0 0
24 2 23 -5 0 1 2 5 3.28556e-11 1 0 0
73 2 22 -4 0 1 2 8 4.75797e-10 1 0 0
74 2 23 -4 0 1 2 8 4.58768e-10 1 0 0
25 2 24 -5 0 1 2 5 3.22163e-11 1 0 0
75 2 24 -4 0 1 2 8 4.49238e-10 1 0 0
26 2 25 -5 0 1 2 5 3.21862e-11 1 0 0
27 2 26 -5 0 1 2 5 3.26862e-11 1 0 0
76 2 25 -4 0 1 2 8 4.49022e-10 1 0 0
77 2 26 -4 0 1 2 8 4.56958e-10 1 0 0
28 2 27 -5 0 1 2 5 3.35207e-11 1 0 0
29 2 28 -5 0 1 2 5 3.4525e-11 1 0 0
78 2 27 -4 0 1 2 8 4.69622e-10 1 0 0
79 2 28 -4 0 1 2 8 4.84045e-10 1 0 0
30 2 29 -5 0 1 2 5 3.56627e-11 1 0 0
80 2 29 -4 0 1 2 8 4.99891e-10 1 0 0
31 2 30 -5 0 1 2 5 3.68879e-11 1 0 0
32 2 31 -5 0 1 2 5 3.79371e-11 1 0 0
81 2 30 -4 0 1 2 8 5.17206e-10 1 0 0
82 2 31 -4 0 1 2 8 5.32405e-10 1 0 0
33 2 32 -5 0 1 2 5 3.84301e-11 1 0 0
34 2 33 -5 0 1 2 5 3.82464e-11 1 0 0
83 2 32 -4 0 1 2 8 5.39515e-10 1 0 0
84 2 33 -4 0 1 2 8 5.36418e-10 1 0 0
35 2 34 -5 0 1 2 5 3.77055e-11 1 0 0
85 2 34 -4 0 1 2 8 5.28149e-10 1 0 0
36 2 35 -5 0 1 2 5 3.72458e-11 1 0 0
37 2 36 -5 0 1 2 5 3.69959e-11 1 0 0
86 2 35 -4 0 1 2 8 5.21696e-10 1 0 0
87 2 36 -4 0 1 2 8 5.18781e-10 1 0 0
38 2 37 -5 0 1 2 5 3.67826e-11 1 0 0
39 2 38 -5 0 1 2 5 3.64332e-11 1 0 0
88 2 37 -4 0 1 2 8 5.16287e-10 1 0 0
89 2 38 -4 0 1 2 8 5.11443e-10 1 0 0
40 2 39 -5 0 1 2 5 3.59219e-11 1 0 0
90 2 39 -4 0 1 2 8 5.03919e-10 1 0 0
41 2 40 -5 0 1 2 5 3.53275e-11 1 0 0
42 2 41 -5 0 1 2 5 3.48019e-11 1 0 0
91 2 40 -4 0 1 2 8 4.94887e-10 1 0 0
92 2 41 -4 0 1 2 8 4.86589e-10 1 0 0
43 2 42 -5 0 1 2 5 3.4586e-11 1 0 0
44 2 43 -5 0 1 2 5 3.49216e-11 1 0 0
93 2 42 -4 0 1 2 8 4.82774e-10 1 0 0
94 2 43 -4 0 1 2 8 4.87423e-10 1 0 0
45 2 44 -5 0 1 2 5 3.57933e-11 1 0 0
95 2 44 -4 0 1 2 8 5.00609e-10 1 0 0
46 2 45 -5 0 1 2 5 3.6746e-11 1 0 0
47 2 46 -5 0 1 2 5 3.71437e-11 1 0 0
96 2 45 -4 0 1 2 8 5.15299e-10 1 0 0
97 2 46 -4 0 1 2 8 5.21405e-10 1 0 0
48 2 47 -5 0 1 2 5 3.67226e-11 1 0 0
49 2 48 -5 0 1 2 5 3.58054e-11 1 0 0
98 2 47 -4 0 1 2 8 5.14875e-10 1 0 0
99 2 48 -4 0 1 2 8 5.01026e-10 1 0 0
50 2 49 -5 0 1 2 5 3.49656e-11 1 0 0
100 2 49 -4 0 1 2 8 4.88807e-10 1 0 0
101 2 0 -3 0 1 2 8 3.90947e-11 1 0 0
102 2 1 -3 0 1 2 8 8.28177e-11 1 0 0
151 2 0 -2 0 1 2 8 3.50175e-10 1 0 0
152 2 1 -2 0 1 2 8 8.01426e-10 1 0 0
103 2 2 -3 0 1 2 8 2.57529e-10 1 0 0
104 2 3 -3 0 1 2 8 6.72521e-10 1 0 0
153 2 2 -2 0 1 2 8 2.71707e-09 1 0 0
154 2 3 -2 0 1 2 8 7.57624e-09 1 0 0
105 2 4 -3 0 1 2 8 1.41936e-09 1 0 0
155 2 4 -2 0 1 2 8 1.67591e-08 1 0 0
106 2 5 -3 0 1 2 8 2.45682e-09 1 0 0
107 2 6 -3 0 1 2 8 3.59251e-09 1 0 0
156 2 5 -2 0 1 2 8 2.98723e-08 1 0 0
157 2 6 -2 0 1 2 8 4.43887e-08 1 0 0
108 2 7 -3 0 1 2 8 4.60077e-09 1 0 0
109 2 8 -3 0 1 2 8 5.34127e-09 1 0 0
158 2 7 -2 0 1 2 8 5.73387e-08 1 0 0
159 2 8 -2 0 1 2 8 6.68759e-08 1 0 0
110 2 9 -3 0 1 2 8 5.7943e-09 1 0 0
160 2 9 -2 0 1 2 8 7.27127e-08 1 0 0
111 2 10 -3 0 1 2 8 6.02342e-09 1 0 0
112 2 11 -3 0 1 2 8 6.12566e-09 1 0 0
161 2 10 -2 0 1 2 8 7.56552e-08 1 0 0
162 2 11 -2 0 1 2 8 7.68771e-08 1 0 0
113 2 12 -3 0 1 2 8 6.22697e-09 1 0 0
114 2 13 -3 0 1 2 8 6.42865e-09 1 0 0
163 2 12 -2 0 1 2 8 7.80496e-08 1 0 0
164 2 13 -2 0 1 2 8 8.07167e-08 1 0 0
115 2 14 -3 0 1 2 8 6.68711e-09 1 0 0
165 2 14 -2 0 1 2 8 8.42231e-08 1 0 0
116 2 15 -3 0 1 2 8 6.86627e-09 1 0 0
117 2 16 -3 0 1 2 8 6.92591e-09 1 0 0
166 2 15 -2 0 1 2 8 8.64883e-08 1 0 0
167 2 16 -2 0 1 2 8 8.70297e-08 1 0 0
118 2 17 -3 0 1 2 8 6.94766e-09 1 0 0
119 2 18 -3 0 1 2 8 6.9938e-09 1 0 0
168 2 17 -2 0 1 2 8 8.71974e-08 1 0 0
169 2 18 -2 0 1 2 8 8.79109e-08 1 0 0
120 2 19 -3 0 1 2 8 7.02309e-09 1 0 0
170 2 19 -2 0 1 2 8 8.8521e-08 1 0 0
121 2 20 -3 0 1 2 8 6.94492e-09 1 0 0
122 2 21 -3 0 1 2 8 6.73011e-09 1 0 0
171 2 20 -2 0 1 2 8 8.76665e-08 1 0 0
172 2 21 -2 0 1 2 8 8.48869e-08 1 0 0
123 2 22 -3 0 1 2 8 6.44822e-09 1 0 0
124 2 23 -3 0 1 2 8 6.20136e-09 1 0 0
173 2 22 -2 0 1 2 8 8.11436e-08 1 0 0
174 2 23 -2 0 1 2 8 7.78077e-08 1 0 0
125 2 24 -3 0 1 2 8 6.06134e-09 1 0 0
175 2 24 -2 0 1 2 8 7.58551e-08 1 0 0
126 2 25 -3 0 1 2 8 6.06025e-09 1 0 0
127 2 26 -3 0 1 2 8 6.18311e-09 1 0 0
176 2 25 -2 0 1 2 8 7.584e-08 1 0 0
177 2 26 -2 0 1 2 8 7.76193e-08 1 0 0
128 2 27 -3 0 1 2 8 6.37143e-09 1 0 0
129 2 28 -3 0 1 2 8 6.57223e-09 1 0 0
178 2 27 -2 0 1 2 8 8.02585e-08 1 0 0
179 2 28 -2 0 1 2 8 8.28605e-08 1 0 0
130 2 29 -3 0 1 2 8 6.7836e-09 1 0 0
180 2 29 -2 0 1 2 8 8.54333e-08 1 0 0
131 2 30 -3 0 1 2 8 7.01911e-09 1 0 0
132 2 31 -3 0 1 2 8 7.23305e-09 1 0 0
181 2 30 -2 0 1 2 8 8.83731e-08 1 0 0
182 2 31 -2 0 1 2 8 9.11731e-08 1 0 0
133 2 32 -3 0 1 2 8 7.33374e-09 1 0 0
134 2 33 -3 0 1 2 8 7.28395e-09 1 0 0
183 2 32 -2 0 1 2 8 9.25186e-08 1 0 0
184 2 33 -2 0 1 2 8 9.17906e-08 1 0 0
135 2 34 -3 0 1 2 8 7.16057e-09 1 0 0
185 2 34 -2 0 1 2 8 9.00737e-08 1 0 0
136 2 35 -3 0 1 2 8 7.0729e-09 1 0 0
137 2 36 -3 0 1 2 8 7.04283e-09 1 0 0
186 2 35 -2 0 1 2 8 8.89686e-08 1 0 0
187 2 36 -2 0 1 2 8 8.87284e-08 1 0 0
138 2 37 -3 0 1 2 8 7.01673e-09 1 0 0
139 2 38 -3 0 1 2 8 6.95217e-09 1 0 0
188 2 37 -2 0 1 2 8 8.85117e-08 1 0 0
189 2 38 -2 0 1 2 8 8.77231e-08 1 0 0
140 2 39 -3 0 1 2 8 6.84501e-09 1 0 0
190 2 39 -2 0 1 2 8 8.63095e-08 1 0 0
141 2 40 -3 0 1 2 8 6.71144e-09 1 0 0
142 2 41 -3 0 1 2 8 6.58331e-09 1 0 0
191 2 40 -2 0 1 2 8 8.4464e-08 1 0 0
192 2 41 -2 0 1 2 8 8.26056e-08 1 0 0
143 2 42 -3 0 1 2 8 6.51799e-09 1 0 0
144 2 43 -3 0 1 2 8 6.57946e-09 1 0 0
193 2 42 -2 0 1 2 8 8.15672e-08 1 0 0
194 2 43 -2 0 1 2 8 8.23093e-08 1 0 0
145 2 44 -3 0 1 2 8 6.77395e-09 1 0 0
195 2 44 -2 0 1 2 8 8.49922e-08 1 0 0
146 2 45 -3 0 1 2 8 6.9953e-09 1 0 0
147 2 46 -3 0 1 2 8 7.08673e-09 1 0 0
196 2 45 -2 0 1 2 8 8.81133e-08 1 0 0
197 2 46 -2 0 1 2 8 8.9393e-08 1 0 0
148 2 47 -3 0 1 2 8 6.98764e-09 1 0 0
149 2 48 -3 0 1 2 8 6.78368e-09 1 0 0
198 2 47 -2 0 1 2 8 8.79885e-08 1 0 0
199 2 48 -2 0 1 2 8 8.51861e-08 1 0 0
150 2 49 -3 0 1 2 8 6.61046e-09 1 0 0
200 2 49 -2 0 1 2 8 8.28934e-08 1 0 0
201 2 0 -1 0 1 2 8 2.72486e-09 1 0 0
202 2 1 -1 0 1 2 8 6.81022e-09 1 0 0
203 2 2 -1 0 1 2 8 2.54753e-08 1 0 0
204 2 3 -1 0 1 2 8 7.67193e-08 1 0 0
205 2 4 -1 0 1 2 8 1.79429e-07 1 0 0
206 2 5 -1 0 1 2 8 3.30944e-07 1 0 0
207 2 6 -1 0 1 2 8 5.00645e-07 1 0 0
208 2 7 -1 0 1 2 8 6.52942e-07 1 0 0
209 2 8 -1 0 1 2 8 7.65672e-07 1 0 0
210 2 9 -1 0 1 2 8 8.34852e-07 1 0 0
211 2 10 -1 0 1 2 8 8.70082e-07 1 0 0
212 2 11 -1 0 1 2 8 8.83957e-07 1 0 0
213 2 12 -1 0 1 2 8 8.96134e-07 1 0 0
214 2 13 -1 0 1 2 8 9.28787e-07 1 0 0
215 2 14 -1 0 1 2 8 9.72724e-07 1 0 0
216 2 15 -1 0 1 2 8 9.98351e-07 1 0 0
217 2 16 -1 0 1 2 8 1.00114e-06 1 0 0
218 2 17 -1 0 1 2 8 1.00155e-06 1 0 0
219 2 18 -1 0 1 2 8 1.01168e-06 1 0 0
220 2 19 -1 0 1 2 8 1.02218e-06 1 0 0
221 2 20 -1 0 1 2 8 1.01439e-06 1 0 0
222 2 21 -1 0 1 2 8 9.81716e-07 1 0 0
223 2 22 -1 0 1 2 8 9.36439e-07 1 0 0
224 2 23 -1 0 1 2 8 8.94981e-07 1 0 0
225 2 24 -1 0 1 2 8 8.69214e-07 1 0 0
226 2 25 -1 0 1 2 8 8.68552e-07 1 0 0
227 2 26 -1 0 1 2 8 8.92478e-07 1 0 0
228 2 27 -1 0 1 2 8 9.26999e-07 1 0 0
229 2 28 -1 0 1 2 8 9.58025e-07 1 0 0
230 2 29 -1 0 1 2 8 9.85951e-07 1 0 0
231 2 30 -1 0 1 2 8 1.01902e-06 1 0 0
232 2 31 -1 0 1 2 8 1.05262e-06 1 0 0
233 2 32 -1 0 1 2 8 1.06944e-06 1 0 0
234 2 33 -1 0 1 2 8 1.05988e-06 1 0 0
235 2 34 -1 0 1 2 8 1.03781e-06 1 0 0
236 2 35 -1 0 1 2 8 1.02503e-06 1 0 0
237 2 36 -1 0 1 2 8 1.02411e-06 1 0 0
238 2 37 -1 0 1 2 8 1.02307e-06 1 0 0
239 2 38 -1 0 1 2 8 1.01446e-06 1 0 0
240 2 39 -1 0 1 2 8 9.97497e-07 1 0 0
241 2 40 -1 0 1 2 8 9.73997e-07 1 0 0
242 2 41 -1 0 1 2 8 9.48943e-07 1 0 0
243 2 42 -1 0 1 2 8 9.33787e-07 1 0 0
244 2 43 -1 0 1 2 8 9.41818e-07 1 0 0
245 2 44 -1 0 1 2 8 9.76066e-07 1 0 0
246 2 45 -1 0 1 2 8 1.0168e-06 1 0 0
247 2 46 -1 0 1 2 8 1.03334e-06 1 0 0
248 2 47 -1 0 1 2 8 1.01497e-06 1 0 0
249 2 48 -1 0 1 2 8 9.79544e-07 1 0 0
250 2 49 -1 0 1 2 8 9.51508e-07 1 0 0
251 2 0 0 0 1 2 8 1.79591e-08 1 0 0
252 2 1 0 0 1 2 8 4.9536e-08 1 0 0
301 2 0 1 0 1 2 8 9.72614e-08 1 0 0
302 2 1 1 0 1 2 8 2.98277e-07 1 0 0
253 2 2 0 0 1 2 8 2.07215e-07 1 0 0
254 2 3 0 0 1 2 8 6.83898e-07 1 0 0
303 2 2 1 0 1 2 8 1.4152e-06 1 0 0
304 2 3 1 0 1 2 8 5.21105e-06 1 0 0
255 2 4 0 0 1 2 8 1.71132e-06 1 0 0
305 2 4 1 0 1 2 8 1.41735e-05 1 0 0
256 2 5 0 0 1 2 8 3.28721e-06 1 0 0
257 2 6 0 0 1 2 8 5.07212e-06 1 0 0
306 2 5 1 0 1 2 8 2.86343e-05 1 0 0
307 2 6 1 0 1 2 8 4.51827e-05 1 0 0
258 2 7 0 0 1 2 8 6.68396e-06 1 0 0
259 2 8 0 0 1 2 8 7.88707e-06 1 0 0
308 2 7 1 0 1 2 8 6.02222e-05 1 0 0
309 2 8 1 0 1 2 8 7.15847e-05 1 0 0
260 2 9 0 0 1 2 8 8.62952e-06 1 0 0
310 2 9 1 0 1 2 8 7.86501e-05 1 0 0
261 2 10 0 0 1 2 8 9.01734e-06 1 0 0
262 2 11 0 0 1 2 8 9.16765e-06 1 0 0
311 2 10 1 0 1 2 8 8.25302e-05 1 0 0
312 2 11 1 0 1 2 8 8.41658e-05 1 0 0
263 2 12 0 0 1 2 8 9.28281e-06 1 0 0
264 2 13 0 0 1 2 8 9.6475e-06 1 0 0
313 2 12 1 0 1 2 8 8.51086e-05 1 0 0
314 2 13 1 0 1 2 8 8.87829e-05 1 0 0
265 2 14 0 0 1 2 8 1.01446e-05 1 0 0
315 2 14 1 0 1 2 8 9.38317e-05 1 0 0
266 2 15 0 0 1 2 8 1.03969e-05 1 0 0
267 2 16 0 0 1 2 8 1.0377e-05 1 0 0
316 2 15 1 0 1 2 8 9.58885e-05 1 0 0
317 2 16 1 0 1 2 8 9.50925e-05 1 0 0
268 2 17 0 0 1 2 8 1.03617e-05 1 0 0
269 2 18 0 0 1 2 8 1.04922e-05 1 0 0
318 2 17 1 0 1 2 8 9.47588e-05 1 0 0
319 2 18 1 0 1 2 8 9.62458e-05 1 0 0
270 2 19 0 0 1 2 8 1.06461e-05 1 0 0
320 2 19 1 0 1 2 8 9.81774e-05 1 0 0
271 2 20 0 0 1 2 8 1.05936e-05 1 0 0
272 2 21 0 0 1 2 8 1.02525e-05 1 0 0
321 2 20 1 0 1 2 8 9.80452e-05 1 0 0
322 2 21 1 0 1 2 8 9.49552e-05 1 0 0
273 2 22 0 0 1 2 8 9.7649e-06 1 0 0
274 2 23 0 0 1 2 8 9.30033e-06 1 0 0
323 2 22 1 0 1 2 8 9.04206e-05 1 0 0
324 2 23 1 0 1 2 8 8.58539e-05 1 0 0
275 2 24 0 0 1 2 8 8.98534e-06 1 0 0
325 2 24 1 0 1 2 8 8.22822e-05 1 0 0
276 2 25 0 0 1 2 8 8.96503e-06 1 0 0
277 2 26 0 0 1 2 8 9.2566e-06 1 0 0
326 2 25 1 0 1 2 8 8.18742e-05 1 0 0
327 2 26 1 0 1 2 8 8.50999e-05 1 0 0
278 2 27 0 0 1 2 8 9.67149e-06 1 0 0
279 2 28 0 0 1 2 8 1.00066e-05 1 0 0
328 2 27 1 0 1 2 8 8.95879e-05 1 0 0
329 2 28 1 0 1 2 8 9.28098e-05 1 0 0
280 2 29 0 0 1 2 8 1.0268e-05 1 0 0
330 2 29 1 0 1 2 8 9.47862e-05 1 0 0
281 2 30 0 0 1 2 8 1.05936e-05 1 0 0
282 2 31 0 0 1 2 8 1.09571e-05 1 0 0
331 2 30 1 0 1 2 8 9.74935e-05 1 0 0
332 2 31 1 0 1 2 8 0.000100948 1 0 0
283 2 32 0 0 1 2 8 1.1151e-05 1 0 0
284 2 33 0 0 1 2 8 1.10403e-05 1 0 0
333 2 32 1 0 1 2 8 0.000102971 1 0 0
334 2 33 1 0 1 2 8 0.000101864 1 0 0
285 2 34 0 0 1 2 8 1.07835e-05 1 0 0
335 2 34 1 0 1 2 8 9.91946e-05 1 0 0
286 2 35 0 0 1 2 8 1.06495e-05 1 0 0
287 2 36 0 0 1 2 8 1.06607e-05 1 0 0
336 2 35 1 0 1 2 8 9.79423e-05 1 0 0
337 2 36 1 0 1 2 8 9.82563e-05 1 0 0
288 2 37 0 0 1 2 8 1.06672e-05 1 0 0
289 2 38 0 0 1 2 8 1.05861e-05 1 0 0
338 2 37 1 0 1 2 8 9.84893e-05 1 0 0
339 2 38 1 0 1 2 8 9.78802e-05 1 0 0
290 2 39 0 0 1 2 8 1.04047e-05 1 0 0
340 2 39 1 0 1 2 8 9.62045e-05 1 0 0
291 2 40 0 0 1 2 8 1.01329e-05 1 0 0
292 2 41 0 0 1 2 8 9.8235e-06 1 0 0
341 2 40 1 0 1 2 8 9.34217e-05 1 0 0
342 2 41 1 0 1 2 8 8.99667e-05 1 0 0
293 2 42 0 0 1 2 8 9.62349e-06 1 0 0
294 2 43 0 0 1 2 8 9.6998e-06 1 0 0
343 2 42 1 0 1 2 8 8.76118e-05 1 0 0
344 2 43 1 0 1 2 8 8.82154e-05 1 0 0
295 2 44 0 0 1 2 8 1.00983e-05 1 0 0
345 2 44 1 0 1 2 8 9.23746e-05 1 0 0
296 2 45 0 0 1 2 8 1.05822e-05 1 0 0
297 2 46 0 0 1 2 8 1.07769e-05 1 0 0
346 2 45 1 0 1 2 8 9.7515e-05 1 0 0
347 2 46 1 0 1 2 8 9.95595e-05 1 0 0
298 2 47 0 0 1 2 8 1.05603e-05 1 0 0
299 2 48 0 0 1 2 8 1.01554e-05 1 0 0
348 2 47 1 0 1 2 8 9.72984e-05 1 0 0
349 2 48 1 0 1 2 8 9.32324e-05 1 0 0
300 2 49 0 0 1 2 8 9.84269e-06 1 0 0
350 2 49 1 0 1 2 8 9.01054e-05 1 0 0
351 2 0 2 0 1 2 8 4.18247e-07 1 0 0
352 2 1 2 0 1 2 8 1.42806e-06 1 0 0
401 2 0 3 0 1 2 8 1.38691e-06 1 0 0
402 2 1 3 0 1 2 8 5.20808e-06 1 0 0
353 2 2 2 0 1 2 8 7.75525e-06 1 0 0
354 2 3 2 0 1 2 8 3.24681e-05 1 0 0
403 2 2 3 0 1 2 8 3.21135e-05 1 0 0
404 2 3 3 0 1 2 8 0.00015589 1 0 0
355 2 4 2 0 1 2 8 9.82739e-05 1 0 0
405 2 4 3 0 1 2 8 0.000532348 1 0 0
356 2 5 2 0 1 2 8 0.000211853 1 0 0
357 2 6 2 0 1 2 8 0.000342351 1 0 0
406 2 5 3 0 1 2 8 0.00126686 1 0 0
407 2 6 3 0 1 2 8 0.0021171 1 0 0
358 2 7 2 0 1 2 8 0.000460974 1 0 0
359 2 8 2 0 1 2 8 0.000552435 1 0 0
408 2 7 3 0 1 2 8 0.00287356 1 0 0
409 2 8 3 0 1 2 8 0.00347555 1 0 0
360 2 9 2 0 1 2 8 0.000609989 1 0 0
410 2 9 3 0 1 2 8 0.00386668 1 0 0
361 2 10 2 0 1 2 8 0.000643853 1 0 0
362 2 11 2 0 1 2 8 0.000660173 1 0 0
411 2 10 3 0 1 2 8 0.00412143 1 0 0
412 2 11 3 0 1 2 8 0.00429112 1 0 0
363 2 12 2 0 1 2 8 0.000668336 1 0 0
364 2 13 2 0 1 2 8 0.000700264 1 0 0
413 2 12 3 0 1 2 8 0.00435103 1 0 0
414 2 13 3 0 1 2 8 0.00458498 1 0 0
365 2 14 2 0 1 2 8 0.00074304 1 0 0
415 2 14 3 0 1 2 8 0.00489425 1 0 0
366 2 15 2 0 1 2 8 0.000756284 1 0 0
367 2 16 2 0 1 2 8 0.000744114 1 0 0
416 2 15 3 0 1 2 8 0.00495209 1 0 0
417 2 16 3 0 1 2 8 0.00483108 1 0 0
368 2 17 2 0 1 2 8 0.00073938 1 0 0
369 2 18 2 0 1 2 8 0.000754329 1 0 0
418 2 17 3 0 1 2 8 0.00479404 1 0 0
419 2 18 3 0 1 2 8 0.00491515 1 0 0
370 2 19 2 0 1 2 8 0.000774401 1 0 0
420 2 19 3 0 1 2 8 0.00508205 1 0 0
371 2 20 2 0 1 2 8 0.000776682 1 0 0
372 2 21 2 0 1 2 8 0.00075375 1 0 0
421 2 20 3 0 1 2 8 0.00511909 1 0 0
422 2 21 3 0 1 2 8 0.00498365 1 0 0
373 2 22 2 0 1 2 8 0.000719469 1 0 0
374 2 23 2 0 1 2 8 0.000682022 1 0 0
423 2 22 3 0 1 2 8 0.0047919 1 0 0
424 2 23 3 0 1 2 8 0.00456138 1 0 0
375 2 24 2 0 1 2 8 0.000647669 1 0 0
425 2 24 3 0 1 2 8 0.00427112 1 0 0
376 2 25 2 0 1 2 8 0.000641538 1 0 0
377 2 26 2 0 1 2 8 0.000671358 1 0 0
426 2 25 3 0 1 2 8 0.00421704 1 0 0
427 2 26 3 0 1 2 8 0.00445995 1 0 0
378 2 27 2 0 1 2 8 0.000713424 1 0 0
379 2 28 2 0 1 2 8 0.000739719 1 0 0
428 2 27 3 0 1 2 8 0.00477551 1 0 0
429 2 28 3 0 1 2 8 0.0049522 1 0 0
380 2 29 2 0 1 2 8 0.000750151 1 0 0
430 2 29 3 0 1 2 8 0.0049673 1 0 0
381 2 30 2 0 1 2 8 0.000767255 1 0 0
382 2 31 2 0 1 2 8 0.00079508 1 0 0
431 2 30 3 0 1 2 8 0.0050384 1 0 0
432 2 31 3 0 1 2 8 0.0052112 1 0 0
383 2 32 2 0 1 2 8 0.000813185 1 0 0
384 2 33 2 0 1 2 8 0.000804015 1 0 0
433 2 32 3 0 1 2 8 0.00534167 1 0 0
434 2 33 3 0 1 2 8 0.00528243 1 0 0
385 2 34 2 0 1 2 8 0.000780692 1 0 0
435 2 34 3 0 1 2 8 0.0051158 1 0 0
386 2 35 2 0 1 2 8 0.000770595 1 0 0
387 2 36 2 0 1 2 8 0.000774386 1 0 0
436 2 35 3 0 1 2 8 0.00504881 1 0 0
437 2 36 3 0 1 2 8 0.00508176 1 0 0
388 2 37 2 0 1 2 8 0.000777896 1 0 0
389 2 38 2 0 1 2 8 0.000774661 1 0 0
438 2 37 3 0 1 2 8 0.00511564 1 0 0
439 2 38 3 0 1 2 8 0.00511303 1 0 0
390 2 39 2 0 1 2 8 0.000761893 1 0 0
440 2 39 3 0 1 2 8 0.00503711 1 0 0
391 2 40 2 0 1 2 8 0.000737395 1 0 0
392 2 41 2 0 1 2 8 0.000703755 1 0 0
441 2 40 3 0 1 2 8 0.00486695 1 0 0
442 2 41 3 0 1 2 8 0.00458818 1 0 0
393 2 42 2 0 1 2 8 0.000679928 1 0 0
394 2 43 2 0 1 2 8 0.000683616 1 0 0
443 2 42 3 0 1 2 8 0.00438363 1 0 0
444 2 43 3 0 1 2 8 0.00439254 1 0 0
395 2 44 2 0 1 2 8 0.000720966 1 0 0
445 2 44 3 0 1 2 8 0.00466957 1 0 0
396 2 45 2 0 1 2 8 0.000767856 1 0 0
397 2 46 2 0 1 2 8 0.000786238 1 0 0
446 2 45 3 0 1 2 8 0.00501731 1 0 0
447 2 46 3 0 1 2 8 0.00515216 1 0 0
398 2 47 2 0 1 2 8 0.000766659 1 0 0
399 2 48 2 0 1 2 8 0.000732362 1 0 0
448 2 47 3 0 1 2 8 0.00501712 1 0 0
449 2 48 3 0 1 2 8 0.00479835 1 0 0
400 2 49 2 0 1 2 8 0.000705315 1 0 0
450 2 49 3 0 1 2 8 0.00460865 1 0 0
451 2 0 4 0 1 2 8 3.49233e-06 1 0 0
452 2 1 4 0 1 2 8 1.41165e-05 1 0 0
453 2 2 4 0 1 2 8 9.63928e-05 1 0 0
454 2 3 4 0 1 2 8 0.000520936 1 0 0
455 2 4 4 0 1 2 7 0.0020304 1 0 0
456 2 5 4 0 1 2 6 0.00556896 1 0 0
457 2 6 4 0 1 2 5 0.00940547 1 0 0
506 1 5.48901 4.86793 0 1.0006 2 0 0.0170914 1 0.0036855 0.00649125
507 1 6.48958 4.87367 0 1.02569 2 0 0.0236442 1 -0.00896001 3.4792e-05
458 2 7 4 0 1 2 5 0.0126195 1 0 0
459 2 8 4 0 1 2 5 0.0154166 1 0 0
508 1 7.48492 4.86425 0 1.03193 2 0 0.0301395 1 0.00519108 0.00460276
460 2 9 4 0 1 2 5 0.0173156 1 0 0
510 1 8.48178 4.86993 0 1.01036 2 0 0.0362521 1 -0.00644869 -0.0215028
511 1 9.47636 4.8666 0 1.00136 2 0 0.0416764 1 0.0284347 0.00750142
461 2 10 4 0 1 2 5 0.0186824 1 0 0
462 2 11 4 0 1 2 5 0.0197089 1 0 0
512 1 10.4916 4.86191 0 1.01573 2 0 0.0465605 1 -0.0199994 0.00391192
513 1 11.4806 4.86947 0 1.01534 2 0 0.0506779 1 0.0235896 -0.0157585
463 2 12 4 0 1 2 5 0.0203986 1 0 0
464 2 13 4 0 1 2 5 0.0215657 1 0 0
514 1 12.4833 4.87874 0 1.01802 2 0 0.0541592 1 -0.000413796 -0.020321
465 2 14 4 0 1 2 5 0.0228224 1 0 0
515 1 13.4845 4.86646 0 1.02031 2 0 0.0570742 1 0.0134576 0.00212097
516 1 14.4972 4.86598 0 1.0096 2 0 0.0587771 1 -4.47851e-05 -0.000977167
466 2 15 4 0 1 2 5 0.0230916 1 0 0
467 2 16 4 0 1 2 5 0.0224091 1 0 0
518 1 16.5026 4.8666 0 1.02515 2 0 0.059994 1 -0.000799263 0.0013426
517 1 15.4954 4.87699 0 1.02614 2 0 0.0596253 1 0.00625024 -0.00478083
468 2 17 4 0 1 2 5 0.0220136 1 0 0
469 2 18 4 0 1 2 5 0.0228502 1 0 0
519 1 17.5057 4.86083 0 1.0239 2 0 0.0602205 1 -0.00552647 0.0152507
470 2 19 4 0 1 2 5 0.0237274 1 0 0
520 1 18.5076 4.86172 0 1.00577 2 0 0.0599342 1 -0.014084 0.0109388
521 1 19.5037 4.8616 0 1.00453 2 0 0.0586121 1 0.00436428 0.0104188
471 2 20 4 0 1 2 5 0.0239365 1 0 0
472 2 21 4 0 1 2 5 0.0234475 1 0 0
523 1 21.4988 4.86632 0 1.02268 2 0 0.0564611 1 0.00648949 -0.00483717
522 1 20.5036 4.86182 0 1.0139 2 0 0.0563183 1 -0.00555243 -0.0010277
473 2 22 4 0 1 2 5 0.0228996 1 0 0
474 2 23 4 0 1 2 5 0.0220397 1 0 0
524 1 22.4985 4.86286 0 1.01383 2 0 0.0575995 1 -0.00282673 0.00940192
475 2 24 4 0 1 2 5 0.0207507 1 0 0
525 1 23.4961 4.86573 0 1.03669 2 0 0.057334 1 0.00700955 0.00379882
526 1 24.4975 4.86555 0 1.04245 2 0 0.0576095 1 0.000404846 0.000643647
476 2 25 4 0 1 2 5 0.0204326 1 0 0
477 2 26 4 0 1 2 5 0.0214747 1 0 0
528 1 26.498 4.86341 0 1.04147 2 0 0.0600147 1 0.00612479 -0.00456367
527 1 25.5012 4.86318 0 1.03798 2 0 0.0587084 1 -0.0101112 0.00430097
478 2 27 4 0 1 2 5 0.0231729 1 0 0
479 2 28 4 0 1 2 5 0.0238801 1 0 0
529 1 27.5014 4.86659 0 1.0019 2 0 0.0614439 1 -0.00176645 -0.00462477
480 2 29 4 0 1 2 5 0.023654 1 0 0
531 1 29.5001 4.86318 0 1.01679 2 0 0.0622533 1 -0.00234864 0.00850354
530 1 28.4991 4.86369 0 1.02091 2 0 0.0621841 1 0.00381219 0.00413006
481 2 30 4 0 1 2 5 0.0235779 1 0 0
482 2 31 4 0 1 2 5 0.0243267 1 0 0
533 1 31.4958 4.86326 0 1.004 2 0 0.0615462 1 0.00790699 0.00377013
532 1 30.4989 4.86332 0 1.0182 2 0 0.061769 1 -0.00726286 0.000553541
483 2 32 4 0 1 2 5 0.0248956 1 0 0
484 2 33 4 0 1 2 5 0.0246427 1 0 0
534 1 32.4969 4.86307 0 1.00171 2 0 0.0617736 1 0.000294628 -0.00177777
485 2 34 4 0 1 2 5 0.0239395 1 0 0
535 1 33.5001 4.8625 0 1.00275 2 0 0.0621486 1 -0.00248905 0.00637629
536 1 34.5021 4.8662 0 1.0237 2 0 0.0626718 1 -0.00831661 -0.00588247
486 2 35 4 0 1 2 5 0.0236713 1 0 0
487 2 36 4 0 1 2 5 0.0237755 1 0 0
538 1 36.5006 4.86378 0 1.01227 2 0 0.0640038 1 -0.00349699 0.0066895
537 1 35.5004 4.86627 0 1.0067 2 0 0.0634263 1 0.000894265 -0.00442642
488 2 37 4 0 1 2 5 0.0240158 1 0 0
489 2 38 4 0 1 2 5 0.0240489 1 0 0
539 1 37.4992 4.86113 0 1.00174 2 0 0.0640513 1 -0.00796154 0.0117938
490 2 39 4 0 1 2 5 0.0237522 1 0 0
541 1 39.4901 4.86488 0 1.00168 2 0 0.0637896 1 0.00405386 -0.00337595
540 1 38.4941 4.86727 0 1.01715 2 0 0.0637856 1 0.00427691 -0.000432449
491 2 40 4 0 1 2 5 0.0229161 1 0 0
492 2 41 4 0 1 2 5 0.0212876 1 0 0
542 1 40.4892 4.86209 0 1.01016 2 0 0.0640171 1 0.0130654 0.0110203
543 1 41.4989 4.86826 0 1.03252 2 0 0.0637702 1 0.00136728 -0.00236141
493 2 42 4 0 1 2 5 0.0200797 1 0 0
494 2 43 4 0 1 2 5 0.0200174 1 0 0
544 1 42.5016 4.86764 0 1.0319 2 0 0.0624644 1 0.00114872 -0.00220216
495 2 44 4 0 1 2 5 0.0213899 1 0 0
545 1 43.5057 4.87211 0 1.03659 2 0 0.061212 1 -0.00262594 -0.0112765
546 1 44.5059 4.86808 0 1.01001 2 0 0.060025 1 -0.00114651 0.00196436
496 2 45 4 0 1 2 5 0.023148 1 0 0
497 2 46 4 0 1 2 5 0.0237766 1 0 0
547 1 45.5077 4.87152 0 1.00173 2 0 0.0586704 1 -0.00994127 1.1004e-05
548 1 46.5025 4.86542 0 1.00807 2 0 0.0577753 1 -0.00352058 -0.00710793
498 2 47 4 0 1 2 5 0.0232526 1 0 0
499 2 48 4 0 1 2 5 0.0224089 1 0 0
549 1 47.4997 4.86126 0 1.02093 2 0 0.0577248 1 0.00826864 0.0103274
500 2 49 4 0 1 2 5 0.0215586 1 0 0
550 1 48.5024 4.86239 0 1.02225 2 0 0.0582639 1 0.00416938 -0.000495585
8501 1 49.5043 4.86749 0 1.06187 2 0 0.0592289 1 -0.00361681 -0.00344794
501 2 0 5 0 1 2 8 6.74102e-06 1 0 0
502 2 1 5 0 1 2 8 2.86703e-05 1 0 0
551 2 0 6 0 1 2 8 1.0422e-05 1 0 0
552 2 1 6 0 1 2 8 4.57248e-05 1 0 0
503 2 2 5 0 1 2 8 0.000208033 1 0 0
504 2 3 5 0 1 2 8 0.00121465 1 0 0
553 2 2 6 0 1 2 8 0.000339531 1 0 0
554 2 3 6 0 1 2 8 0.00202972 1 0 0
505 2 4 5 0 1 2 6 0.00534518 1 0 0
555 2 4 6 0 1 2 5 0.00895646 1 0 0
556 1 4.96799 5.74446 0 1.02426 2 0 0.0194947 1 -0.0105613 -0.000223169
557 1 5.96253 5.76077 0 1.00456 2 0 0.0301448 1 0.00409759 -0.0113725
558 1 6.98252 5.74576 0 1.00032 2 0 0.0400967 1 -0.0122717 -0.00539788
509 1 7.97775 5.72737 0 1.00999 2 0 0.0500061 1 0.00638816 0.018072
560 1 8.97637 5.72471 0 1.01571 2 0 0.0594318 1 0.00778317 0.0322899
561 1 9.97789 5.73424 0 1.04128 2 0 0.0680314 1 -0.0056645 -0.0105839
562 1 10.979 5.72855 0 1.02468 2 0 0.0756339 1 -0.018866 0.0185104
563 1 11.9691 5.72956 0 1.00884 2 0 0.0818713 1 0.0159844 0.0151491
565 1 12.995 5.73104 0 1.01555 2 0 0.0872269 1 -0.00125038 0.021345
566 1 13.9943 5.72804 0 1.01485 2 0 0.0910539 1 -0.000597293 0.00337435
567 1 14.9976 5.74112 0 1.00349 2 0 0.0933295 1 0.00135725 -0.00221056
568 1 15.9978 5.74983 0 1.02492 2 0 0.0948123 1 -0.00109212 -0.001835
569 1 18.016 5.73132 0 1.01386 2 0 0.0951368 1 -0.0129699 0.00184669
618 1 17.0093 5.73362 0 1.00786 2 0 0.0955688 1 0.00277676 -0.00496877
570 1 19.0098 5.72993 0 1.00562 2 0 0.0930464 1 -0.000328476 -0.0169999
571 1 20.0105 5.72286 0 1.00943 2 0 0.0904365 1 0.00403547 -0.00463261
572 1 21.0099 5.93225 0 1.02492 2 0 0.102467 1 -0.0100825 0.000767158
573 1 21.9855 5.7363 0 1.00977 2 0 0.0921768 1 0.0118078 0.0023149
574 1 22.9957 5.73492 0 1.00488 2 0 0.0901836 1 0.00202085 -0.00869822
575 1 23.9942 5.73338 0 1.01237 2 0 0.0892481 1 -0.000353946 -0.00311154
577 1 25.9994 5.72751 0 1.01133 2 0 0.0931846 1 -0.00877956 0.00826719
576 1 24.9934 5.73252 0 1.01087 2 0 0.09085 1 0.00128074 -0.00748929
579 1 26.995 5.72559 0 1.01129 2 0 0.0946042 1 0.0039474 0.00550312
580 1 27.9937 5.74035 0 1.02117 2 0 0.0966804 1 -0.00166886 -0.00283326
581 1 28.9907 5.73269 0 1.01861 2 0 0.0976356 1 0.00275551 -0.0056447
632 1 29.9932 5.73357 0 1.0167 2 0 0.0966787 1 -0.0058682 -0.00788801
582 1 30.9925 5.72797 0 1.0143 2 0 0.0942266 1 0.00173296 0.000641528
583 1 31.9956 5.72645 0 1.0088 2 0 0.0938285 1 -0.0066238 -0.00268125
584 1 32.9935 5.7259 0 1.00514 2 0 0.0949512 1 0.00429271 9.76886e-08
585 1 33.9957 5.72836 0 1.02197 2 0 0.0966323 1 -0.00555903 -0.00468784
586 1 34.9943 5.73185 0 1.02669 2 0 0.0988122 1 0.00481183 0.000437548
587 1 35.9957 5.73212 0 1.01702 2 0 0.10039 1 0.00123415 -0.0043459
588 1 36.9969 5.73217 0 1.01798 2 0 0.100736 1 -0.0182896 -0.0107292
589 1 37.9909 5.73016 0 1.01656 2 0 0.100039 1 0.00986664 0.00351614
590 1 38.9898 5.73462 0 1.01208 2 0 0.0993569 1 -0.0121144 -0.0151958
591 1 39.987 5.72392 0 1.01334 2 0 0.100856 0.999999 0.0066634 0.0104504
592 1 40.9905 5.72778 0 1.02633 2 0 0.102956 1 -0.0164151 -0.0239945
594 1 43.0016 5.73357 0 1.01497 2 0 0.0993574 1 -0.00291524 0.00330503
593 1 42.0026 5.73288 0 1.02837 2 0 0.102744 1 -0.000109444 -0.00303649
595 1 44.0001 5.73612 0 1.01694 2 0 0.0963568 1 0.007614 0.00790278
596 1 45.0089 5.73998 0 1.01116 2 0 0.0921231 1 -0.00507066 -0.000107729
597 1 46.0063 5.75134 0 1.01212 2 0 0.0897904 1 -0.00466268 0.000260805
598 1 47.0012 5.72547 0 1.00861 2 0 0.0880572 1 0.00443514 -0.00149285
599 1 48.0068 5.72336 0 1.02545 2 0 0.0891474 1 -0.00309408 0.00227253
600 1 49.0073 5.732 0 1.00476 2 0 0.0914517 1 -0.00609876 0.00172046
2650 1 49.0184 45.5491 0 1.00658 0 0 0.5 1 0.000224621 -3.82046e-05
601 2 0 7 0 1 2 8 1.37777e-05 1 0 0
602 2 1 7 0 1 2 8 6.14888e-05 1 0 0
651 2 0 8 0 1 2 8 1.63888e-05 1 0 0
652 2 1 8 0 1 2 8 7.36701e-05 1 0 0
603 2 2 7 0 1 2 8 0.000461795 1 0 0
604 2 3 7 0 1 2 8 0.00280522 1 0 0
653 2 2 8 0 1 2 8 0.000558841 1 0 0
654 2 3 8 0 1 2 8 0.00347786 1 0 0
605 2 4 7 0 1 2 5 0.0122877 1 0 0
655 2 4 8 0 1 2 5 0.0153187 1 0 0
656 1 4.89608 7.47866 0 1.01253 2 0 0.0293294 1 -0.00228847 0.000957593
606 1 5.444 6.64467 0 1.01839 2 0 0.0321398 1 0.00235481 -0.00363421
607 1 6.44948 6.62679 0 1.01626 2 0 0.0460835 1 0.00646374 0.0114456
657 1 5.93093 7.63429 0 1.02523 2 0 0.0497479 1 0 -5e-05
608 1 7.45255 6.62486 0 1.01581 2 0 0.0596257 1 -0.0118103 -0.0100381
609 1 7.94482 7.48502 0 1.00447 2 0 0.0826038 1 -0.00308078 0.0155367
658 1 6.93193 7.50307 0 1.00499 2 0 0.0654151 1 0.00531092 -0.0133141
559 1 8.44961 6.60804 0 1.01669 2 0 0.0731717 1 -0.00776287 0.00145318
610 1 9.44219 6.60861 0 1.00382 2 0 0.0859497 1 0.0122901 -0.00356828
661 1 8.93899 7.48666 0 1.00906 2 0 0.0988696 1 0.0120125 -3.01241e-05
612 1 9.94769 7.46816 0 1.00002 2 0 0.114231 1 -0.0059696 0.0112641
611 1 10.4486 6.60963 0 1.00368 2 0 0.0972551 1 0.00746893 -0.00787034
564 1 11.4678 6.60158 0 1.01095 2 0 0.107006 1 -0.00426178 -0.0074256
613 1 10.957 7.46579 0 1.00877 2 0 0.127959 1 -0.000345803 -0.000806332
614 1 12.4703 6.58666 0 1.01882 2 0 0.115185 1 0.0048373 0.00820598
665 1 12.9724 7.44848 0 1.00809 2 0 0.149459 1 -0.00569927 0.0120987
664 1 11.966 7.46384 0 1.0022 2 0 0.139708 1 0.00407542 0.00700916
615 1 13.4945 6.60288 0 1.00601 2 0 0.121973 1 -0.00770899 -0.0204698
616 1 14.49 6.59812 0 1.00878 2 0 0.126456 1 0.00464731 0.00683817
666 1 13.9858 7.46754 0 0.997531 2 0 0.156764 0.999811 0.00161603 -0.00616839
617 1 15.4922 6.61325 0 1.01132 2 0 0.129206 0.999981 -0.00240873 -0.0106069
667 1 14.9841 7.47225 0 1.00922 2 0 0.161752 0.992764 -7.82458e-05 0.00100731
668 1 16.0073 7.4653 0 1.01232 2 1 0.165233 0.985751 0.00537353 -0.0124387
619 1 16.5191 6.60195 0 1.00791 2 0 0.130587 0.999997 -0.0111901 -0.00505672
669 1 17.5178 6.60398 0 1.0115 2 0 0.132792 0.999997 0.00356918 -0.00209254
719 1 17.0112 7.46482 0 1.0104 2 1 0.170389 0.992057 0.00401848 0.00155501
620 1 18.5175 6.60205 0 1.00047 2 0 0.131496 1 0.00623075 -0.0146854
621 1 19.5166 6.57954 0 1.01086 2 2 0.125139 0.999975 0.00634554 0.00819517
671 1 19.0872 7.47801 0 1.01101 2 0 0.173692 0.982752 -0.00314343 0.00643253
670 1 18.0877 7.49608 0 1.01205 2 1 0.176641 0.987737 -0.00102504 0.00780785
622 1 20.4789 6.98964 0 1.02282 2 0 0.142211 0.99804 2.22764e-05 -0.000300206
623 1 21.5063 6.79957 0 1.01715 2 0 0.146751 0.996402 0.000569084 0.000836755
672 1 20.5274 8.38208 0 1.01032 2 1 0.240415 0.493665 -0.00311307 0.00666743
673 1 21.3207 7.78342 0 1.00705 2 0 0.203835 0.841051 0.0101515 -0.00802937
624 1 22.4961 6.59536 0 1.00933 2 1 0.129209 0.997658 -0.00677947 0.00200149
674 1 22.306 7.5758 0 1.01197 2 0 0.186548 0.84037 -0.000310625 -0.000861248
625 1 23.5008 6.80187 0 1.01358 2 0 0.129294 0.998737 4.39593e-05 -0.000128829
626 1 24.4948 6.59701 0 1.01095 2 1 0.123723 0.999996 -0.00279614 0.00118984
675 1 23.4422 8.22422 0 1.00974 2 1 0.237163 0.558888 0.000265675 0.00183034
676 1 24.4271 7.62036 0 1.01754 2 0 0.203292 0.960936 -8.81665e-06 -0.000924524
578 1 26.4861 6.72427 0 1.0136 2 0 0.133526 0.999345 0.00119897 4.73797e-05
628 1 25.8605 7.52317 0 1.00647 2 1 0.17646 0.979921 -0.00443495 -0.00282178
627 1 25.4954 6.59332 0 1.0116 2 0 0.126654 1 0.00155643 0.00392772
629 1 27.4789 6.59576 0 1.00585 2 0 0.131382 0.997098 0.00109839 0.0045051
679 1 27.7112 7.56532 0 1.01276 2 1 0.183814 0.833361 -0.00132033 -0.00525989
678 1 26.7768 7.91539 0 1.01987 2 0 0.204578 0.755637 -0.000784723 -0.00114697
630 1 28.4821 6.62193 0 1.00031 2 0 0.133809 0.997549 -0.00230832 -5.1203e-05
631 1 29.4807 6.59893 0 1.01679 2 1 0.133876 0.999967 0.00595545 0.000395892
680 1 28.9619 7.51522 0 1.0041 2 1 0.179284 0.96118 0.000275102 0.00157676
681 1 29.9603 7.47866 0 1.0067 2 2 0.175 0.993968 -0.000438071 3.37188e-05
682 1 30.4859 6.59862 0 1.0233 2 0 0.130083 1 0.00446819 0.00779574
633 1 31.4926 6.5894 0 1.00197 2 1 0.125573 1 -0.000923324 -0.000368367
732 1 30.7731 8.05907 0 1.02086 2 3 0.204902 0.872539 -0.00142297 -0.000774823
683 1 31.6822 7.63523 0 1.00602 2 0 0.171855 0.986853 2.81576e-05 -0.000374464
684 1 32.4886 6.5912 0 1.01173 2 0 0.126154 1 0.00811996 0.00271098
734 1 32.8058 7.53671 0 1.01306 2 1 0.164665 0.992527 -0.00711555 -0.00253557
634 1 33.4872 6.59044 0 1.00318 2 0 0.128897 0.999963 0.00549401 0.00238614