ITEM: TIMESTEP
30500
ITEM: NUMBER OF ATOMS
15950
ITEM: BOX BOUNDS pp pp pp
0.0000000000000000e+00 1.0000000000000000e+02
-5.0000000000000000e+00 2.0000000000000000e+02
-5.0000000000000000e-01 5.0000000000000000e-01
ITEM: ATOMS id type x y z c_rho c_phase c_nbond c_temp f_rheo_chi_chi fx fy
1 2 0 -5 0 1 2 8 2.9185e-09 1 0 0
2 2 1 -5 0 1 2 8 4.0467e-09 1 0 0
51 2 0 -4 0 1 2 8 1.53565e-08 1 0 0
52 2 1 -4 0 1 2 8 2.18569e-08 1 0 0
3 2 2 -5 0 1 2 8 7.82925e-09 1 0 0
4 2 3 -5 0 1 2 8 1.48848e-08 1 0 0
53 2 2 -4 0 1 2 8 4.39483e-08 1 0 0
54 2 3 -4 0 1 2 8 8.57405e-08 1 0 0
5 2 4 -5 0 1 2 7 2.61008e-08 1 0 0
55 2 4 -4 0 1 2 8 1.5002e-07 1 0 0
6 2 5 -5 0 1 2 6 4.2509e-08 1 0 0
7 2 6 -5 0 1 2 5 6.07192e-08 1 0 0
56 2 5 -4 0 1 2 8 2.34536e-07 1 0 0
57 2 6 -4 0 1 2 8 3.29599e-07 1 0 0
8 2 7 -5 0 1 2 5 7.77206e-08 1 0 0
9 2 8 -5 0 1 2 5 9.25804e-08 1 0 0
58 2 7 -4 0 1 2 8 4.23211e-07 1 0 0
59 2 8 -4 0 1 2 8 5.05576e-07 1 0 0
10 2 9 -5 0 1 2 5 1.04487e-07 1 0 0
60 2 9 -4 0 1 2 8 5.71639e-07 1 0 0
11 2 10 -5 0 1 2 5 1.13484e-07 1 0 0
12 2 11 -5 0 1 2 5 1.20276e-07 1 0 0
61 2 10 -4 0 1 2 8 6.21673e-07 1 0 0
62 2 11 -4 0 1 2 8 6.59655e-07 1 0 0
13 2 12 -5 0 1 2 5 1.25739e-07 1 0 0
14 2 13 -5 0 1 2 5 1.30406e-07 1 0 0
63 2 12 -4 0 1 2 8 6.90474e-07 1 0 0
64 2 13 -4 0 1 2 8 7.17013e-07 1 0 0
15 2 14 -5 0 1 2 5 1.34288e-07 1 0 0
65 2 14 -4 0 1 2 8 7.39029e-07 1 0 0
16 2 15 -5 0 1 2 5 1.37184e-07 1 0 0
17 2 16 -5 0 1 2 5 1.39142e-07 1 0 0
66 2 15 -4 0 1 2 8 7.5515e-07 1 0 0
67 2 16 -4 0 1 2 8 7.65809e-07 1 0 0
18 2 17 -5 0 1 2 5 1.4049e-07 1 0 0
19 2 18 -5 0 1 2 5 1.41427e-07 1 0 0
68 2 17 -4 0 1 2 8 7.73344e-07 1 0 0
69 2 18 -4 0 1 2 8 7.79182e-07 1 0 0
20 2 19 -5 0 1 2 5 1.41712e-07 1 0 0
70 2 19 -4 0 1 2 8 7.81843e-07 1 0 0
21 2 20 -5 0 1 2 5 1.40868e-07 1 0 0
22 2 21 -5 0 1 2 5 1.38678e-07 1 0 0
71 2 20 -4 0 1 2 8 7.78238e-07 1 0 0
72 2 21 -4 0 1 2 8 7.66814e-07 1 0 0
23 2 22 -5 0 1 2 5 1.35524e-07 1 0 0
24 2 23 -5 0 1 2 5 1.32338e-07 1 0 0
73 2 22 -4 0 1 2 8 7.49574e-07 1 0 0
74 2 23 -4 0 1 2 8 7.31783e-07 1 0 0
25 2 24 -5 0 1 2 5 1.30232e-07 1 0 0
75 2 24 -4 0 1 2 8 7.19902e-07 1 0 0
26 2 25 -5 0 1 2 5 1.2999e-07 1 0 0
27 2 26 -5 0 1 2 5 1.31688e-07 1 0 0
76 2 25 -4 0 1 2 8 7.18636e-07 1 0 0
77 2 26 -4 0 1 2 8 7.28448e-07 1 0 0
28 2 27 -5 0 1 2 5 1.34719e-07 1 0 0
29 2 28 -5 0 1 2 5 1.38244e-07 1 0 0
78 2 27 -4 0 1 2 8 7.45587e-07 1 0 0
79 2 28 -4 0 1 2 8 7.64981e-07 1 0 0
30 2 29 -5 0 1 2 5 1.41648e-07 1 0 0
80 2 29 -4 0 1 2 8 7.8324e-07 1 0 0
31 2 30 -5 0 1 2 5 1.44607e-07 1 0 0
32 2 31 -5 0 1 2 5 1.46855e-07 1 0 0
81 2 30 -4 0 1 2 8 7.98954e-07 1 0 0
82 2 31 -4 0 1 2 8 8.10953e-07 1 0 0
33 2 32 -5 0 1 2 5 1.48112e-07 1 0 0
34 2 33 -5 0 1 2 5 1.48311e-07 1 0 0
83 2 32 -4 0 1 2 8 8.17648e-07 1 0 0
84 2 33 -4 0 1 2 8 8.18504e-07 1 0 0
35 2 34 -5 0 1 2 5 1.47762e-07 1 0 0
85 2 34 -4 0 1 2 8 8.15291e-07 1 0 0
36 2 35 -5 0 1 2 5 1.46947e-07 1 0 0
37 2 36 -5 0 1 2 5 1.46128e-07 1 0 0
86 2 35 -4 0 1 2 8 8.10901e-07 1 0 0
87 2 36 -4 0 1 2 8 8.06835e-07 1 0 0
38 2 37 -5 0 1 2 5 1.45163e-07 1 0 0
39 2 38 -5 0 1 2 5 1.43701e-07 1 0 0
88 2 37 -4 0 1 2 8 8.02112e-07 1 0 0
89 2 38 -4 0 1 2 8 7.94452e-07 1 0 0
40 2 39 -5 0 1 2 5 1.41538e-07 1 0 0
90 2 39 -4 0 1 2 8 7.82441e-07 1 0 0
41 2 40 -5 0 1 2 5 1.38907e-07 1 0 0
42 2 41 -5 0 1 2 5 1.36517e-07 1 0 0
91 2 40 -4 0 1 2 8 7.67256e-07 1 0 0
92 2 41 -4 0 1 2 8 7.53051e-07 1 0 0
43 2 42 -5 0 1 2 5 1.35271e-07 1 0 0
44 2 43 -5 0 1 2 5 1.35705e-07 1 0 0
93 2 42 -4 0 1 2 8 7.45338e-07 1 0 0
94 2 43 -4 0 1 2 8 7.47598e-07 1 0 0
45 2 44 -5 0 1 2 5 1.37522e-07 1 0 0
95 2 44 -4 0 1 2 8 7.58233e-07 1 0 0
46 2 45 -5 0 1 2 5 1.39629e-07 1 0 0
47 2 46 -5 0 1 2 5 1.40811e-07 1 0 0
96 2 45 -4 0 1 2 8 7.7073e-07 1 0 0
97 2 46 -4 0 1 2 8 7.77724e-07 1 0 0
48 2 47 -5 0 1 2 5 1.40542e-07 1 0 0
49 2 48 -5 0 1 2 5 1.39303e-07 1 0 0
98 2 47 -4 0 1 2 8 7.76047e-07 1 0 0
99 2 48 -4 0 1 2 8 7.68646e-07 1 0 0
50 2 49 -5 0 1 2 5 1.38167e-07 1 0 0
100 2 49 -4 0 1 2 8 7.62011e-07 1 0 0
101 2 0 -3 0 1 2 8 7.39002e-08 1 0 0
102 2 1 -3 0 1 2 8 1.08298e-07 1 0 0
151 2 0 -2 0 1 2 8 3.21986e-07 1 0 0
152 2 1 -2 0 1 2 8 4.87272e-07 1 0 0
103 2 2 -3 0 1 2 8 2.27174e-07 1 0 0
104 2 3 -3 0 1 2 8 4.5734e-07 1 0 0
153 2 2 -2 0 1 2 8 1.06983e-06 1 0 0
154 2 3 -2 0 1 2 8 2.22943e-06 1 0 0
105 2 4 -3 0 1 2 8 8.17464e-07 1 0 0
155 2 4 -2 0 1 2 8 4.0874e-06 1 0 0
106 2 5 -3 0 1 2 8 1.29339e-06 1 0 0
107 2 6 -3 0 1 2 8 1.83286e-06 1 0 0
156 2 5 -2 0 1 2 8 6.57937e-06 1 0 0
157 2 6 -2 0 1 2 8 9.42048e-06 1 0 0
108 2 7 -3 0 1 2 8 2.36605e-06 1 0 0
109 2 8 -3 0 1 2 8 2.83487e-06 1 0 0
158 2 7 -2 0 1 2 8 1.22289e-05 1 0 0
159 2 8 -2 0 1 2 8 1.46953e-05 1 0 0
110 2 9 -3 0 1 2 8 3.21076e-06 1 0 0
160 2 9 -2 0 1 2 8 1.66745e-05 1 0 0
111 2 10 -3 0 1 2 8 3.49598e-06 1 0 0
112 2 11 -3 0 1 2 8 3.71372e-06 1 0 0
161 2 10 -2 0 1 2 8 1.81828e-05 1 0 0
162 2 11 -2 0 1 2 8 1.93432e-05 1 0 0
113 2 12 -3 0 1 2 8 3.89226e-06 1 0 0
114 2 13 -3 0 1 2 8 4.04769e-06 1 0 0
163 2 12 -2 0 1 2 8 2.0306e-05 1 0 0
164 2 13 -2 0 1 2 8 2.11541e-05 1 0 0
115 2 14 -3 0 1 2 8 4.17652e-06 1 0 0
165 2 14 -2 0 1 2 8 2.18571e-05 1 0 0
116 2 15 -3 0 1 2 8 4.26888e-06 1 0 0
117 2 16 -3 0 1 2 8 4.32823e-06 1 0 0
166 2 15 -2 0 1 2 8 2.23498e-05 1 0 0
167 2 16 -2 0 1 2 8 2.26566e-05 1 0 0
118 2 17 -3 0 1 2 8 4.37143e-06 1 0 0
119 2 18 -3 0 1 2 8 4.40886e-06 1 0 0
168 2 17 -2 0 1 2 8 2.28881e-05 1 0 0
169 2 18 -2 0 1 2 8 2.31118e-05 1 0 0
120 2 19 -3 0 1 2 8 4.43092e-06 1 0 0
170 2 19 -2 0 1 2 8 2.32697e-05 1 0 0
121 2 20 -3 0 1 2 8 4.41714e-06 1 0 0
122 2 21 -3 0 1 2 8 4.35658e-06 1 0 0
171 2 20 -2 0 1 2 8 2.32377e-05 1 0 0
172 2 21 -2 0 1 2 8 2.29479e-05 1 0 0
123 2 22 -3 0 1 2 8 4.26003e-06 1 0 0
124 2 23 -3 0 1 2 8 4.15797e-06 1 0 0
173 2 22 -2 0 1 2 8 2.24542e-05 1 0 0
174 2 23 -2 0 1 2 8 2.19177e-05 1 0 0
125 2 24 -3 0 1 2 8 4.08901e-06 1 0 0
175 2 24 -2 0 1 2 8 2.15497e-05 1 0 0
126 2 25 -3 0 1 2 8 4.08231e-06 1 0 0
127 2 26 -3 0 1 2 8 4.14093e-06 1 0 0
176 2 25 -2 0 1 2 8 2.15182e-05 1 0 0
177 2 26 -2 0 1 2 8 2.18429e-05 1 0 0
128 2 27 -3 0 1 2 8 4.24085e-06 1 0 0
129 2 28 -3 0 1 2 8 4.35025e-06 1 0 0
178 2 27 -2 0 1 2 8 2.23819e-05 1 0 0
179 2 28 -2 0 1 2 8 2.29494e-05 1 0 0
130 2 29 -3 0 1 2 8 4.45002e-06 1 0 0
180 2 29 -2 0 1 2 8 2.34466e-05 1 0 0
131 2 30 -3 0 1 2 8 4.53507e-06 1 0 0
132 2 31 -3 0 1 2 8 4.60082e-06 1 0 0
181 2 30 -2 0 1 2 8 2.38662e-05 1 0 0
182 2 31 -2 0 1 2 8 2.41977e-05 1 0 0
133 2 32 -3 0 1 2 8 4.63759e-06 1 0 0
134 2 33 -3 0 1 2 8 4.64099e-06 1 0 0
183 2 32 -2 0 1 2 8 2.43852e-05 1 0 0
184 2 33 -2 0 1 2 8 2.43964e-05 1 0 0
135 2 34 -3 0 1 2 8 4.62152e-06 1 0 0
185 2 34 -2 0 1 2 8 2.42882e-05 1 0 0
136 2 35 -3 0 1 2 8 4.59722e-06 1 0 0
137 2 36 -3 0 1 2 8 4.57715e-06 1 0 0
186 2 35 -2 0 1 2 8 2.41653e-05 1 0 0
187 2 36 -2 0 1 2 8 2.40784e-05 1 0 0
138 2 37 -3 0 1 2 8 4.55444e-06 1 0 0
139 2 38 -3 0 1 2 8 4.51401e-06 1 0 0
188 2 37 -2 0 1 2 8 2.39836e-05 1 0 0
189 2 38 -2 0 1 2 8 2.37908e-05 1 0 0
140 2 39 -3 0 1 2 8 4.44597e-06 1 0 0
190 2 39 -2 0 1 2 8 2.34378e-05 1 0 0
141 2 40 -3 0 1 2 8 4.35621e-06 1 0 0
142 2 41 -3 0 1 2 8 4.26955e-06 1 0 0
191 2 40 -2 0 1 2 8 2.295e-05 1 0 0
192 2 41 -2 0 1 2 8 2.2463e-05 1 0 0
143 2 42 -3 0 1 2 8 4.22065e-06 1 0 0
144 2 43 -3 0 1 2 8 4.23268e-06 1 0 0
193 2 42 -2 0 1 2 8 2.21774e-05 1 0 0
194 2 43 -2 0 1 2 8 2.22348e-05 1 0 0
145 2 44 -3 0 1 2 8 4.29706e-06 1 0 0
195 2 44 -2 0 1 2 8 2.25938e-05 1 0 0
146 2 45 -3 0 1 2 8 4.37353e-06 1 0 0
147 2 46 -3 0 1 2 8 4.41596e-06 1 0 0
196 2 45 -2 0 1 2 8 2.30247e-05 1 0 0
197 2 46 -2 0 1 2 8 2.32611e-05 1 0 0
148 2 47 -3 0 1 2 8 4.40473e-06 1 0 0
149 2 48 -3 0 1 2 8 4.35857e-06 1 0 0
198 2 47 -2 0 1 2 8 2.31911e-05 1 0 0
199 2 48 -2 0 1 2 8 2.29249e-05 1 0 0
150 2 49 -3 0 1 2 8 4.31807e-06 1 0 0
200 2 49 -2 0 1 2 8 2.26957e-05 1 0 0
201 2 0 -1 0 1 2 8 1.25591e-06 1 0 0
202 2 1 -1 0 1 2 8 1.96766e-06 1 0 0
203 2 2 -1 0 1 2 8 4.53372e-06 1 0 0
204 2 3 -1 0 1 2 8 9.80734e-06 1 0 0
205 2 4 -1 0 1 2 8 1.8492e-05 1 0 0
206 2 5 -1 0 1 2 8 3.0335e-05 1 0 0
207 2 6 -1 0 1 2 8 4.391e-05 1 0 0
208 2 7 -1 0 1 2 8 5.7314e-05 1 0 0
209 2 8 -1 0 1 2 8 6.90718e-05 1 0 0
210 2 9 -1 0 1 2 8 7.85331e-05 1 0 0
211 2 10 -1 0 1 2 8 8.57987e-05 1 0 0
212 2 11 -1 0 1 2 8 9.145e-05 1 0 0
213 2 12 -1 0 1 2 8 9.61994e-05 1 0 0
214 2 13 -1 0 1 2 8 0.000100436 1 0 0
215 2 14 -1 0 1 2 8 0.000103951 1 0 0
216 2 15 -1 0 1 2 8 0.000106361 1 0 0
217 2 16 -1 0 1 2 8 0.000107817 1 0 0
218 2 17 -1 0 1 2 8 0.000108965 1 0 0
219 2 18 -1 0 1 2 8 0.000110192 1 0 0
220 2 19 -1 0 1 2 8 0.000111177 1 0 0
221 2 20 -1 0 1 2 8 0.000111246 1 0 0
222 2 21 -1 0 1 2 8 0.000110035 1 0 0
223 2 22 -1 0 1 2 8 0.000107792 1 0 0
224 2 23 -1 0 1 2 8 0.000105272 1 0 0
225 2 24 -1 0 1 2 8 0.000103509 1 0 0
226 2 25 -1 0 1 2 8 0.000103384 1 0 0
227 2 26 -1 0 1 2 8 0.00010502 1 0 0
228 2 27 -1 0 1 2 8 0.000107657 1 0 0
229 2 28 -1 0 1 2 8 0.000110308 1 0 0
230 2 29 -1 0 1 2 8 0.000112514 1 0 0
231 2 30 -1 0 1 2 8 0.000114357 1 0 0
232 2 31 -1 0 1 2 8 0.000115864 1 0 0
233 2 32 -1 0 1 2 8 0.00011674 1 0 0
234 2 33 -1 0 1 2 8 0.000116768 1 0 0
235 2 34 -1 0 1 2 8 0.00011623 1 0 0
236 2 35 -1 0 1 2 8 0.000115677 1 0 0
237 2 36 -1 0 1 2 8 0.000115364 1 0 0
238 2 37 -1 0 1 2 8 0.000115044 1 0 0
239 2 38 -1 0 1 2 8 0.000114236 1 0 0
240 2 39 -1 0 1 2 8 0.000112597 1 0 0
241 2 40 -1 0 1 2 8 0.000110214 1 0 0
242 2 41 -1 0 1 2 8 0.000107748 1 0 0
243 2 42 -1 0 1 2 8 0.000106243 1 0 0
244 2 43 -1 0 1 2 8 0.00010648 1 0 0
245 2 44 -1 0 1 2 8 0.000108284 1 0 0
246 2 45 -1 0 1 2 8 0.000110472 1 0 0
247 2 46 -1 0 1 2 8 0.000111653 1 0 0
248 2 47 -1 0 1 2 8 0.000111256 1 0 0
249 2 48 -1 0 1 2 8 0.000109868 1 0 0
250 2 49 -1 0 1 2 8 0.000108692 1 0 0
251 2 0 0 0 1 2 8 4.3322e-06 1 0 0
252 2 1 0 0 1 2 8 7.03727e-06 1 0 0
301 2 0 1 0 1 2 8 1.30556e-05 1 0 0
302 2 1 1 0 1 2 8 2.19804e-05 1 0 0
253 2 2 0 0 1 2 8 1.70392e-05 1 0 0
254 2 3 0 0 1 2 8 3.83471e-05 1 0 0
303 2 2 1 0 1 2 8 5.58524e-05 1 0 0
304 2 3 1 0 1 2 8 0.000130811 1 0 0
255 2 4 0 0 1 2 8 7.45616e-05 1 0 0
305 2 4 1 0 1 2 8 0.000262835 1 0 0
256 2 5 0 0 1 2 8 0.000124885 1 0 0
257 2 6 0 0 1 2 8 0.000182812 1 0 0
306 2 5 1 0 1 2 8 0.000450399 1 0 0
307 2 6 1 0 1 2 8 0.000666704 1 0 0
258 2 7 0 0 1 2 8 0.000239822 1 0 0
259 2 8 0 0 1 2 8 0.000289773 1 0 0
308 2 7 1 0 1 2 8 0.000877951 1 0 0
309 2 8 1 0 1 2 8 0.0010629 1 0 0
260 2 9 0 0 1 2 8 0.000330197 1 0 0
310 2 9 1 0 1 2 8 0.00121412 1 0 0
261 2 10 0 0 1 2 8 0.000361624 1 0 0
262 2 11 0 0 1 2 8 0.000386431 1 0 0
311 2 10 1 0 1 2 8 0.00133386 1 0 0
312 2 11 1 0 1 2 8 0.00143026 1 0 0
263 2 12 0 0 1 2 8 0.000407564 1 0 0
264 2 13 0 0 1 2 8 0.000426657 1 0 0
313 2 12 1 0 1 2 8 0.00151353 1 0 0
314 2 13 1 0 1 2 8 0.00158971 1 0 0
265 2 14 0 0 1 2 8 0.00044255 1 0 0
315 2 14 1 0 1 2 8 0.00165356 1 0 0
266 2 15 0 0 1 2 8 0.000453263 1 0 0
267 2 16 0 0 1 2 8 0.000459589 1 0 0
316 2 15 1 0 1 2 8 0.0016963 1 0 0
317 2 16 1 0 1 2 8 0.00172148 1 0 0
268 2 17 0 0 1 2 8 0.000464838 1 0 0
269 2 18 0 0 1 2 8 0.000470946 1 0 0
318 2 17 1 0 1 2 8 0.00174359 1 0 0
319 2 18 1 0 1 2 8 0.00177073 1 0 0
270 2 19 0 0 1 2 8 0.000476295 1 0 0
320 2 19 1 0 1 2 8 0.00179578 1 0 0
271 2 20 0 0 1 2 8 0.000477668 1 0 0
272 2 21 0 0 1 2 8 0.000473434 1 0 0
321 2 20 1 0 1 2 8 0.00180557 1 0 0
322 2 21 1 0 1 2 8 0.00179423 1 0 0
273 2 22 0 0 1 2 8 0.000464638 1 0 0
274 2 23 0 0 1 2 8 0.000454333 1 0 0
323 2 22 1 0 1 2 8 0.00176588 1 0 0
324 2 23 1 0 1 2 8 0.00173068 1 0 0
275 2 24 0 0 1 2 8 0.000446935 1 0 0
325 2 24 1 0 1 2 8 0.00170447 1 0 0
276 2 25 0 0 1 2 8 0.000446563 1 0 0
277 2 26 0 0 1 2 8 0.000453936 1 0 0
326 2 25 1 0 1 2 8 0.00170408 1 0 0
327 2 26 1 0 1 2 8 0.00173317 1 0 0
278 2 27 0 0 1 2 8 0.000465453 1 0 0
279 2 28 0 0 1 2 8 0.000476414 1 0 0
328 2 27 1 0 1 2 8 0.00177707 1 0 0
329 2 28 1 0 1 2 8 0.00181633 1 0 0
280 2 29 0 0 1 2 8 0.000484945 1 0 0
330 2 29 1 0 1 2 8 0.00184432 1 0 0
281 2 30 0 0 1 2 8 0.000492001 1 0 0
282 2 31 0 0 1 2 8 0.000498093 1 0 0
331 2 30 1 0 1 2 8 0.00186729 1 0 0
332 2 31 1 0 1 2 8 0.00188882 1 0 0
283 2 32 0 0 1 2 8 0.000501793 1 0 0
284 2 33 0 0 1 2 8 0.000501862 1 0 0
333 2 32 1 0 1 2 8 0.00190282 1 0 0
334 2 33 1 0 1 2 8 0.00190321 1 0 0
285 2 34 0 0 1 2 8 0.000499516 1 0 0
335 2 34 1 0 1 2 8 0.00189456 1 0 0
286 2 35 0 0 1 2 8 0.000497363 1 0 0
287 2 36 0 0 1 2 8 0.000496531 1 0 0
336 2 35 1 0 1 2 8 0.0018876 1 0 0
337 2 36 1 0 1 2 8 0.00188663 1 0 0
288 2 37 0 0 1 2 8 0.000495782 1 0 0
289 2 38 0 0 1 2 8 0.000492884 1 0 0
338 2 37 1 0 1 2 8 0.00188625 1 0 0
339 2 38 1 0 1 2 8 0.00187772 1 0 0
290 2 39 0 0 1 2 8 0.000486225 1 0 0
340 2 39 1 0 1 2 8 0.00185475 1 0 0
291 2 40 0 0 1 2 8 0.000475979 1 0 0
292 2 41 0 0 1 2 8 0.000464948 1 0 0
341 2 40 1 0 1 2 8 0.00181715 1 0 0
342 2 41 1 0 1 2 8 0.00177479 1 0 0
293 2 42 0 0 1 2 8 0.000457941 1 0 0
294 2 43 0 0 1 2 8 0.00045875 1 0 0
343 2 42 1 0 1 2 8 0.00174675 1 0 0
344 2 43 1 0 1 2 8 0.00174886 1 0 0
295 2 44 0 0 1 2 8 0.000466762 1 0 0
345 2 44 1 0 1 2 8 0.00177943 1 0 0
296 2 45 0 0 1 2 8 0.000476562 1 0 0
297 2 46 0 0 1 2 8 0.000481732 1 0 0
346 2 45 1 0 1 2 8 0.00181708 1 0 0
347 2 46 1 0 1 2 8 0.00183627 1 0 0
298 2 47 0 0 1 2 8 0.000479731 1 0 0
299 2 48 0 0 1 2 8 0.000473311 1 0 0
348 2 47 1 0 1 2 8 0.00182747 1 0 0
349 2 48 1 0 1 2 8 0.0018019 1 0 0
300 2 49 0 0 1 2 8 0.000467952 1 0 0
350 2 49 1 0 1 2 8 0.00178076 1 0 0
351 2 0 2 0 1 2 8 3.4014e-05 1 0 0
352 2 1 2 0 1 2 8 5.9189e-05 1 0 0
401 2 0 3 0 1 2 8 7.61072e-05 1 0 0
402 2 1 3 0 1 2 8 0.000136266 1 0 0
353 2 2 2 0 1 2 8 0.00015697 1 0 0
354 2 3 2 0 1 2 8 0.000380773 1 0 0
403 2 2 3 0 1 2 8 0.000373472 1 0 0
404 2 3 3 0 1 2 8 0.000926018 1 0 0
355 2 4 2 0 1 2 8 0.000790057 1 0 0
405 2 4 3 0 1 2 8 0.00195734 1 0 0
356 2 5 2 0 1 2 8 0.00138806 1 0 0
357 2 6 2 0 1 2 8 0.00207501 1 0 0
406 2 5 3 0 1 2 8 0.00354223 1 0 0
407 2 6 3 0 1 2 8 0.00533993 1 0 0
358 2 7 2 0 1 2 8 0.00273487 1 0 0
359 2 8 2 0 1 2 8 0.00331319 1 0 0
408 2 7 3 0 1 2 8 0.00698904 1 0 0
409 2 8 3 0 1 2 8 0.00845145 1 0 0
360 2 9 2 0 1 2 8 0.00379447 1 0 0
410 2 9 3 0 1 2 8 0.00970698 1 0 0
361 2 10 2 0 1 2 8 0.0041856 1 0 0
362 2 11 2 0 1 2 8 0.00450877 1 0 0
411 2 10 3 0 1 2 8 0.0107619 1 0 0
412 2 11 3 0 1 2 8 0.011665 1 0 0
363 2 12 2 0 1 2 8 0.00479207 1 0 0
364 2 13 2 0 1 2 8 0.00505399 1 0 0
413 2 12 3 0 1 2 8 0.0124704 1 0 0
414 2 13 3 0 1 2 8 0.0132196 1 0 0
365 2 14 2 0 1 2 8 0.00527622 1 0 0
415 2 14 3 0 1 2 8 0.0138692 1 0 0
366 2 15 2 0 1 2 8 0.00542695 1 0 0
367 2 16 2 0 1 2 8 0.00551889 1 0 0
416 2 15 3 0 1 2 8 0.01433 1 0 0
417 2 16 3 0 1 2 8 0.0146364 1 0 0
368 2 17 2 0 1 2 8 0.0056039 1 0 0
369 2 18 2 0 1 2 8 0.00570939 1 0 0
418 2 17 3 0 1 2 8 0.0149305 1 0 0
419 2 18 3 0 1 2 8 0.0152811 1 0 0
370 2 19 2 0 1 2 8 0.00580855 1 0 0
420 2 19 3 0 1 2 8 0.0156073 1 0 0
371 2 20 2 0 1 2 8 0.00585724 1 0 0
372 2 21 2 0 1 2 8 0.00584027 1 0 0
421 2 20 3 0 1 2 8 0.0157928 1 0 0
422 2 21 3 0 1 2 8 0.0158197 1 0 0
373 2 22 2 0 1 2 8 0.00577254 1 0 0
374 2 23 2 0 1 2 8 0.0056795 1 0 0
423 2 22 3 0 1 2 8 0.015739 1 0 0
424 2 23 3 0 1 2 8 0.015584 1 0 0
375 2 24 2 0 1 2 8 0.00560636 1 0 0
425 2 24 3 0 1 2 8 0.015447 1 0 0
376 2 25 2 0 1 2 8 0.00561088 1 0 0
377 2 26 2 0 1 2 8 0.00570826 1 0 0
426 2 25 3 0 1 2 8 0.01549 1 0 0
427 2 26 3 0 1 2 8 0.0157543 1 0 0
378 2 27 2 0 1 2 8 0.0058499 1 0 0
379 2 28 2 0 1 2 8 0.00596834 1 0 0
428 2 27 3 0 1 2 8 0.0161278 1 0 0
429 2 28 3 0 1 2 8 0.016421 1 0 0
380 2 29 2 0 1 2 8 0.00604389 1 0 0
430 2 29 3 0 1 2 8 0.0165835 1 0 0
381 2 30 2 0 1 2 8 0.00610584 1 0 0
382 2 31 2 0 1 2 8 0.00617121 1 0 0
431 2 30 3 0 1 2 8 0.0167223 1 0 0
432 2 31 3 0 1 2 8 0.0168907 1 0 0
383 2 32 2 0 1 2 8 0.00621785 1 0 0
384 2 33 2 0 1 2 8 0.00622128 1 0 0
433 2 32 3 0 1 2 8 0.0170257 1 0 0
434 2 33 3 0 1 2 8 0.0170491 1 0 0
385 2 34 2 0 1 2 8 0.00619562 1 0 0
435 2 34 3 0 1 2 8 0.0169918 1 0 0
386 2 35 2 0 1 2 8 0.00617855 1 0 0
387 2 36 2 0 1 2 8 0.00618321 1 0 0
436 2 35 3 0 1 2 8 0.0169671 1 0 0
437 2 36 3 0 1 2 8 0.0170045 1 0 0
388 2 37 2 0 1 2 8 0.00618966 1 0 0
389 2 38 2 0 1 2 8 0.00617027 1 0 0
438 2 37 3 0 1 2 8 0.0170408 1 0 0
439 2 38 3 0 1 2 8 0.0170103 1 0 0
390 2 39 2 0 1 2 8 0.00610625 1 0 0
440 2 39 3 0 1 2 8 0.016879 1 0 0
391 2 40 2 0 1 2 8 0.005994 1 0 0
392 2 41 2 0 1 2 8 0.00586031 1 0 0
441 2 40 3 0 1 2 8 0.0166314 1 0 0
442 2 41 3 0 1 2 8 0.0163052 1 0 0
393 2 42 2 0 1 2 8 0.00576798 1 0 0
394 2 43 2 0 1 2 8 0.0057714 1 0 0
443 2 42 3 0 1 2 8 0.0160709 1 0 0
444 2 43 3 0 1 2 8 0.0160706 1 0 0
395 2 44 2 0 1 2 8 0.00586737 1 0 0
445 2 44 3 0 1 2 8 0.0163021 1 0 0
396 2 45 2 0 1 2 8 0.00598605 1 0 0
397 2 46 2 0 1 2 8 0.00604332 1 0 0
446 2 45 3 0 1 2 8 0.0165903 1 0 0
447 2 46 3 0 1 2 8 0.0167145 1 0 0
398 2 47 2 0 1 2 8 0.00601085 1 0 0
399 2 48 2 0 1 2 8 0.00592678 1 0 0
448 2 47 3 0 1 2 8 0.0166174 1 0 0
449 2 48 3 0 1 2 8 0.0164063 1 0 0
400 2 49 2 0 1 2 8 0.00585762 1 0 0
450 2 49 3 0 1 2 8 0.0162283 1 0 0
451 2 0 4 0 1 2 8 0.000146201 1 0 0
452 2 1 4 0 1 2 8 0.000267965 1 0 0
453 2 2 4 0 1 2 8 0.000752012 1 0 0
454 2 3 4 0 1 2 8 0.00187173 1 0 0
455 2 4 4 0 1 2 7 0.00384246 1 0 0
456 2 5 4 0 1 2 6 0.00717542 1 0 0
457 2 6 4 0 1 2 5 0.01062 1 0 0
506 1 5.48563 4.87016 0 1.0006 2 0 0.0128541 1 0.00274112 0.00489758
507 1 6.48793 4.87198 0 1.02569 2 0 0.0161723 1 -0.00249249 -0.00429987
458 2 7 4 0 1 2 5 0.0135637 1 0 0
459 2 8 4 0 1 2 5 0.0162997 1 0 0
508 1 7.49296 4.86642 0 1.03193 2 0 0.0194752 1 0.000812564 0.00142945
460 2 9 4 0 1 2 5 0.0187483 1 0 0
510 1 8.49813 4.86404 0 1.01036 2 0 0.0226375 1 0.0018726 0.00594417
511 1 9.49846 4.86387 0 1.00136 2 0 0.0255715 1 -0.000745623 0.00243226
461 2 10 4 0 1 2 5 0.0208971 1 0 0
462 2 11 4 0 1 2 5 0.0228311 1 0 0
512 1 10.4987 4.86445 0 1.01573 2 0 0.0283604 1 -5.70699e-05 -0.00196335
513 1 11.5016 4.86362 0 1.01534 2 0 0.0310043 1 -0.00361715 0.00101988
463 2 12 4 0 1 2 5 0.0245994 1 0 0
464 2 13 4 0 1 2 5 0.0262382 1 0 0
514 1 12.5024 4.86503 0 1.01802 2 0 0.0334679 1 -0.00778857 -0.00375844
465 2 14 4 0 1 2 5 0.0277006 1 0 0
515 1 13.5003 4.86438 0 1.02031 2 0 0.035755 1 -0.00209198 -8.13419e-05
516 1 14.4986 4.86325 0 1.0096 2 0 0.0378266 1 0.00295557 0.00526794
466 2 15 4 0 1 2 5 0.0288392 1 0 0
467 2 16 4 0 1 2 5 0.0297029 1 0 0
518 1 16.5013 4.86466 0 1.02515 2 0 0.0413452 1 -0.00291229 -0.00184022
517 1 15.4987 4.86415 0 1.02614 2 0 0.0396589 1 -0.000495682 0.00164518
468 2 17 4 0 1 2 5 0.0305363 1 0 0
469 2 18 4 0 1 2 5 0.0314378 1 0 0
519 1 17.501 4.86444 0 1.0239 2 0 0.0429244 1 -0.00263464 -0.00305865
470 2 19 4 0 1 2 5 0.0322508 1 0 0
520 1 18.5004 4.86327 0 1.00577 2 0 0.0443619 1 -0.00470173 0.00375671
521 1 19.4978 4.86489 0 1.00453 2 0 0.0455956 1 0.00980522 -0.00190028
471 2 20 4 0 1 2 5 0.032785 1 0 0
472 2 21 4 0 1 2 5 0.0330615 1 0 0
523 1 21.4986 4.86333 0 1.02268 2 0 0.0474967 1 0.001354 0.00485976
522 1 20.4998 4.86575 0 1.0139 2 0 0.0466115 1 -0.00229175 -0.00294776
473 2 22 4 0 1 2 5 0.0332103 1 0 0
474 2 23 4 0 1 2 5 0.0332052 1 0 0
524 1 22.4982 4.86404 0 1.01383 2 0 0.0482589 1 0.00200883 0.00311305
475 2 24 4 0 1 2 5 0.0331577 1 0 0
525 1 23.4974 4.86418 0 1.03669 2 0 0.0488901 1 0.00412682 0.00532333
526 1 24.498 4.86528 0 1.04245 2 0 0.0494992 1 -0.000449079 0.000540107
476 2 25 4 0 1 2 5 0.0333699 1 0 0
477 2 26 4 0 1 2 5 0.0338967 1 0 0
528 1 26.4978 4.86354 0 1.04147 2 0 0.0508806 1 -0.000310828 0.00303808
527 1 25.4976 4.86514 0 1.03798 2 0 0.0501758 1 0.00267451 0.00112266
478 2 27 4 0 1 2 5 0.0346076 1 0 0
479 2 28 4 0 1 2 5 0.0351473 1 0 0
529 1 27.4984 4.86303 0 1.0019 2 0 0.0515369 1 -0.00334452 0.00338661
480 2 29 4 0 1 2 5 0.0354387 1 0 0
531 1 29.4976 4.86303 0 1.01679 2 0 0.0525567 1 -0.00259333 0.00036607
530 1 28.4976 4.86441 0 1.02091 2 0 0.052093 1 0.00267783 -0.0024854
481 2 30 4 0 1 2 5 0.0357068 1 0 0
482 2 31 4 0 1 2 5 0.0360479 1 0 0
533 1 31.4992 4.86556 0 1.004 2 0 0.0533954 1 0.00638761 -0.0060864
532 1 30.5017 4.86359 0 1.0182 2 0 0.052989 1 -0.00615103 -0.00131708
483 2 32 4 0 1 2 5 0.0363479 1 0 0
484 2 33 4 0 1 2 5 0.0364502 1 0 0
534 1 32.4991 4.86298 0 1.00171 2 0 0.0537169 1 -0.0025349 0.0041483
485 2 34 4 0 1 2 5 0.0363863 1 0 0
535 1 33.4981 4.86333 0 1.00275 2 0 0.0539014 1 0.00595456 0.00324707
536 1 34.5006 4.86461 0 1.0237 2 0 0.0540302 1 0.000560008 0.000814153
486 2 35 4 0 1 2 5 0.0364002 1 0 0
487 2 36 4 0 1 2 5 0.0365343 1 0 0
538 1 36.4992 4.864 0 1.01227 2 0 0.0544082 1 0.00595008 0.00123889
537 1 35.5009 4.86784 0 1.0067 2 0 0.0542065 1 -0.00531499 -0.0190292
488 2 37 4 0 1 2 5 0.036642 1 0 0
489 2 38 4 0 1 2 5 0.0366248 1 0 0
539 1 37.4988 4.86363 0 1.00174 2 0 0.0545174 1 0.00122885 0.00418495
490 2 39 4 0 1 2 5 0.0364715 1 0 0
541 1 39.4993 4.86456 0 1.00168 2 0 0.054463 1 0.000841638 -0.00231525
540 1 38.4995 4.86458 0 1.01715 2 0 0.0545406 1 -0.00229539 -0.00591635
491 2 40 4 0 1 2 5 0.036148 1 0 0
492 2 41 4 0 1 2 5 0.0356392 1 0 0
542 1 40.5007 4.86636 0 1.01016 2 0 0.0543003 1 -0.0023333 -0.0106588
543 1 41.5005 4.86283 0 1.03252 2 0 0.0541293 1 -0.00181428 0.00324555
493 2 42 4 0 1 2 5 0.035266 1 0 0
494 2 43 4 0 1 2 5 0.0352573 1 0 0
544 1 42.5025 4.86239 0 1.0319 2 0 0.0540823 1 -0.00720568 0.00639681
495 2 44 4 0 1 2 5 0.0356069 1 0 0
545 1 43.4994 4.86284 0 1.03659 2 0 0.0541458 1 0.00666477 0.00296099
546 1 44.4997 4.86223 0 1.01001 2 0 0.0542717 1 -0.000281555 0.00444145
496 2 45 4 0 1 2 5 0.0360445 1 0 0
497 2 46 4 0 1 2 5 0.0361925 1 0 0
548 1 46.5016 4.86342 0 1.00807 2 0 0.0544699 1 -0.000648221 0.00359636
547 1 45.4995 4.86644 0 1.00173 2 0 0.0544175 1 0.00296634 -0.00526385
498 2 47 4 0 1 2 5 0.0359982 1 0 0
499 2 48 4 0 1 2 5 0.0356664 1 0 0
549 1 47.5008 4.86522 0 1.02093 2 0 0.0544125 1 -0.00358659 -0.00564518
500 2 49 4 0 1 2 5 0.0353944 1 0 0
550 1 48.5003 4.86507 0 1.02225 2 0 0.0544004 1 0.00127577 -0.00290045
8501 1 49.5016 4.86156 0 1.06187 2 0 0.0544787 1 -0.00310576 0.0123428
501 2 0 5 0 1 2 8 0.000243162 1 0 0
502 2 1 5 0 1 2 8 0.000453796 1 0 0
551 2 0 6 0 1 2 8 0.000356731 1 0 0
552 2 1 6 0 1 2 8 0.000674523 1 0 0
503 2 2 5 0 1 2 8 0.00129354 1 0 0
504 2 3 5 0 1 2 8 0.00323363 1 0 0
553 2 2 6 0 1 2 8 0.0019372 1 0 0
554 2 3 6 0 1 2 8 0.0048289 1 0 0
505 2 4 5 0 1 2 6 0.00659635 1 0 0
555 2 4 6 0 1 2 5 0.00956049 1 0 0
556 1 4.96389 5.72738 0 1.02426 2 0 0.0138676 1 0 -5e-05
557 1 5.9841 5.7363 0 1.00456 2 0 0.0181668 1 -0.000202444 -0.000495031
558 1 6.98798 5.73424 0 1.00032 2 0 0.0219772 1 0.00306028 0.00522941
509 1 7.99112 5.73087 0 1.00999 2 0 0.025826 1 0.00116172 0.00192514
560 1 8.99518 5.73183 0 1.01571 2 0 0.0295158 1 -0.000704458 -0.0020193
561 1 9.99704 5.72808 0 1.04128 2 0 0.033079 1 0.000396023 0.00479379
562 1 10.999 5.72729 0 1.02468 2 0 0.0365095 1 -0.00222348 -0.00137455
563 1 11.9994 5.72763 0 1.00884 2 0 0.0397543 1 -0.00364491 -0.000942856
565 1 12.9987 5.72994 0 1.01555 2 0 0.0428486 1 -0.000966331 -0.0067409
566 1 13.9962 5.72953 0 1.01485 2 0 0.0457512 1 0.00599428 0.000529708
567 1 14.9964 5.72858 0 1.00349 2 0 0.0484216 1 4.59681e-05 -0.00651303
568 1 15.9987 5.72788 0 1.02492 2 0 0.05093 1 -0.000428509 0.00126087
569 1 18.0002 5.72777 0 1.01386 2 0 0.0553436 1 -0.00148505 0.00319903
618 1 17.0008 5.7283 0 1.00786 2 0 0.0532397 1 -0.00421823 0.000813309
570 1 18.9991 5.72847 0 1.00562 2 0 0.0572214 1 -0.0030351 0.00169806
571 1 19.9988 5.72991 0 1.00943 2 0 0.0589084 1 0.000121471 -0.00368485
572 1 20.9994 5.73083 0 1.02492 2 0 0.060465 1 -0.00495415 -0.00391097
573 1 21.9972 5.72803 0 1.00977 2 0 0.0618465 1 0.0014699 0.00477117
574 1 22.9957 5.73111 0 1.00488 2 0 0.0630618 1 0.00391554 -0.00616553
575 1 23.996 5.73093 0 1.01237 2 0 0.0641747 1 -0.00326791 -0.00571468
576 1 24.9972 5.73024 0 1.01087 2 0 0.0651749 1 -0.00698786 -0.00088739
577 1 25.9944 5.73216 0 1.01133 2 0 0.066093 1 0.00521239 -0.00741171
579 1 26.996 5.72772 0 1.01129 2 0 0.0668858 1 -0.00110992 0.00152373
580 1 27.995 5.72738 0 1.02117 2 0 0.0676418 1 0.00226788 0.00514394
581 1 28.994 5.72921 0 1.01861 2 0 0.0683233 1 0.000647603 -0.00940302
632 1 29.9971 5.72374 0 1.0167 2 0 0.0688631 1 0.00232634 0.0114937
582 1 30.9991 5.7286 0 1.0143 2 0 0.0693663 1 -0.000578605 -0.000832412
583 1 32.0001 5.72904 0 1.0088 2 0 0.0698078 1 -0.00336498 -0.00496865
584 1 32.9984 5.72672 0 1.00514 2 0 0.0702076 1 0.0068003 0.00214837
585 1 33.9995 5.72817 0 1.02197 2 0 0.0705663 1 -0.000685916 -0.00739542
586 1 35.0022 5.72929 0 1.02669 2 0 0.0708693 1 -0.0111985 -0.000764947
587 1 35.9997 5.72733 0 1.01702 2 0 0.0711504 1 0.0103004 0.00668693
588 1 36.9997 5.72956 0 1.01798 2 0 0.0713527 1 0.000878426 -0.008459
589 1 37.9989 5.72828 0 1.01656 2 0 0.0714849 1 -0.00395931 -0.000883004
590 1 38.997 5.72718 0 1.01208 2 0 0.0715536 1 0.00856681 0.00593271
591 1 39.9986 5.72865 0 1.01334 2 0 0.071605 1 -0.00129337 0.00434954
592 1 41.0006 5.72778 0 1.02633 2 0 0.0717179 1 0.000748605 0.00456029
594 1 43.0018 5.7282 0 1.01497 2 0 0.0717832 1 -0.00689182 -0.00851237
593 1 42.0013 5.7253 0 1.02837 2 0 0.0718019 1 0.00146597 0.00208596
595 1 43.9998 5.7263 0 1.01694 2 0 0.0717112 1 -0.00185659 0.00194063
596 1 44.9967 5.72748 0 1.01116 2 0 0.0717142 1 0.00781873 0.000138475
597 1 46.0054 5.72887 0 1.01212 2 0 0.071862 1 -0.0121683 -0.00375101
598 1 47.0003 5.73017 0 1.00861 2 0 0.0720261 1 0.00880208 -0.00676643
599 1 47.9988 5.72787 0 1.02545 2 0 0.0721879 1 0.0108254 0.000157734
600 1 49.0033 5.72789 0 1.00476 2 0 0.0723792 1 -0.00738965 0.00109654
2700 1 49.0426 44.5971 0 1.00311 0 0 0.493366 1 -2.25177e-05 9.06713e-05
601 2 0 7 0 1 2 8 0.000473241 1 0 0
602 2 1 7 0 1 2 8 0.000904375 1 0 0
651 2 0 8 0 1 2 8 0.000580923 1 0 0
652 2 1 8 0 1 2 8 0.0011213 1 0 0
603 2 2 7 0 1 2 8 0.00261222 1 0 0
604 2 3 7 0 1 2 8 0.00651335 1 0 0
653 2 2 8 0 1 2 8 0.00325993 1 0 0
654 2 3 8 0 1 2 8 0.00818755 1 0 0
605 2 4 7 0 1 2 5 0.0126564 1 0 0
655 2 4 8 0 1 2 5 0.0156345 1 0 0
656 1 4.90098 7.46491 0 1.01253 2 0 0.0189095 1 0 -5e-05
606 1 5.45579 6.59971 0 1.01839 2 0 0.0192851 1 0 -5e-05
607 1 6.46012 6.6147 0 1.01626 2 0 0.0238289 1 0.000865996 0.00154801
657 1 5.91752 7.4956 0 1.02523 2 0 0.0247572 1 0 -5e-05
608 1 7.49227 6.59754 0 1.01581 2 0 0.0284059 1 -0.00279496 -0.00186444
609 1 7.98594 7.46576 0 1.00447 2 0 0.0353182 1 0.00680069 -0.00224877
658 1 6.99002 7.463 0 1.00499 2 0 0.0302655 1 -0.00892752 -0.00135262
559 1 8.49141 6.59541 0 1.01669 2 0 0.0327975 1 0.00059201 -0.00123144
610 1 9.49847 6.59488 0 1.00382 2 0 0.0371154 1 -0.00247903 -0.00556076
661 1 8.99533 7.45676 0 1.00906 2 0 0.040331 1 0.00300413 0.00182508
612 1 9.99904 7.45811 0 1.00002 2 0 0.0452105 1 -0.00670296 -0.00130456
611 1 10.4968 6.59342 0 1.00368 2 0 0.0412933 1 -0.000174854 -0.00852769
564 1 11.4953 6.59066 0 1.01095 2 0 0.0453204 1 0.00821599 0.00382888
613 1 10.9972 7.45539 0 1.00877 2 0 0.0500318 1 0.00496891 0.00852802
614 1 12.4962 6.59067 0 1.01882 2 0 0.0492117 1 -0.000472236 0.0101872
665 1 12.9963 7.45722 0 1.00809 2 0 0.0592894 1 -0.00500386 0.000592859
664 1 11.997 7.45532 0 1.0022 2 0 0.0547373 1 -0.00327506 0.000982851
615 1 13.4947 6.59439 0 1.00601 2 0 0.0529403 1 0.00774916 -0.00300715
616 1 14.497 6.59248 0 1.00878 2 0 0.0564296 1 -0.0055378 0.00424184
666 1 13.9953 7.45802 0 0.997531 2 0 0.0636209 1 0.00235003 -0.00787123
667 1 14.9956 7.45716 0 1.00922 2 0 0.067741 1 -0.00174315 -0.00199754
617 1 15.4951 6.59123 0 1.01132 2 0 0.0597301 1 0.00544361 0.00359317
668 1 15.9944 7.45574 0 1.01232 2 0 0.0716463 1 0.00103442 0.00248211
619 1 16.4968 6.59289 0 1.00791 2 0 0.0628353 1 -0.00114117 -0.00744948
669 1 17.4969 6.59253 0 1.0115 2 0 0.0657001 1 0.00487132 -0.000448432
719 1 16.9954 7.45444 0 1.0104 2 0 0.0753099 1 -0.00267199 0.00900881
720 1 17.9943 7.459 0 1.00384 2 0 0.0787033 1 0.00447475 -0.00456745
620 1 18.4966 6.59347 0 1.00047 2 0 0.068315 1 0.00195912 0.0028427
621 1 19.4965 6.59238 0 1.01086 2 0 0.0707156 1 0.000835878 0.00754288
670 1 18.9958 7.45952 0 1.01205 2 0 0.081851 1 0.000831621 -0.00875754
671 1 19.9948 7.45857 0 1.01101 2 0 0.0847653 1 0.00400385 -0.00220949
622 1 20.4975 6.5948 0 1.02282 2 0 0.0729415 1 -0.00260908 -0.00386477
623 1 21.4978 6.59493 0 1.01715 2 0 0.0749261 1 -0.00189029 0.000203923
672 1 20.9947 7.45776 0 1.01032 2 0 0.0873793 1 0.0030574 0.00904208
673 1 21.9947 7.46149 0 1.00705 2 0 0.089654 1 0.000783665 0.00119882
624 1 22.4956 6.59462 0 1.00933 2 0 0.0766277 1 -0.00217742 0.00242834
674 1 22.9954 7.45957 0 1.01197 2 0 0.0916697 1 -0.0037746 0.00433691
625 1 23.4938 6.59625 0 1.01358 2 0 0.0781744 1 0.00810933 -0.0033323
626 1 24.494 6.59426 0 1.01095 2 0 0.0795731 1 0.00338111 0.00528678
675 1 23.9956 7.46073 0 1.00974 2 0 0.0934892 1 -0.00196003 -0.00445849
676 1 24.9953 7.46088 0 1.01754 2 0 0.095064 1 -0.00348849 -0.00117473
578 1 26.4955 6.59411 0 1.0136 2 0 0.0818866 1 0.000345423 0.00185091
628 1 25.9943 7.46042 0 1.00647 2 0 0.0964335 1 0.00203923 0.000209117
627 1 25.4939 6.59561 0 1.0116 2 0 0.0808 1 0.000994228 0.00352537
629 1 27.4951 6.5924 0 1.00585 2 0 0.0828877 1 -0.00122903 0.00226471
679 1 27.9937 7.45782 0 1.01276 2 0 0.0988323 1 -0.00069395 -0.00182097
678 1 26.9947 7.45843 0 1.01987 2 0 0.0976822 1 -0.000408203 0.00251109
630 1 28.4944 6.59307 0 1.00031 2 0 0.0838306 1 -0.00377794 -0.00443689
631 1 29.4947 6.58769 0 1.01679 2 0 0.0846448 1 0.00579054 0.0113645
680 1 28.995 7.45367 0 1.0041 2 0 0.0999012 1 -0.000318239 0.00383993
681 1 29.9935 7.45441 0 1.0067 2 0 0.100887 1 0.00390638 -0.00185765
682 1 30.496 6.58994 0 1.0233 2 0 0.0853091 1 -0.00317289 0.00272697
633 1 31.4985 6.59186 0 1.00197 2 0 0.0859027 1 0.00205542 -0.00310795
732 1 30.9983 7.45327 0 1.02086 2 0 0.101721 1 -0.0063869 0.00233593
683 1 31.9995 7.45436 0 1.00602 2 0 0.102471 1 0.00273931 -0.000351833
684 1 32.5017 6.59058 0 1.01173 2 0 0.0864596 1 -0.000449384 0.00825165
734 1 33.0016 7.45552 0 1.01306 2 0 0.103164 1 -0.000513189 -0.0045738
634 1 33.5018 6.59166 0 1.00318 2 0 0.0869852 1 -0.0119407 -0.0050369
635 1 34.4989 6.59144 0 1.01335 2 0 0.0874743 1 0.008938 -0.00450495
685 1 34.0006 7.45325 0 1.01182 2 0 0.103772 1 9.48717e-05 0.011646
686 1 35.0027 7.45233 0 1.01566 2 0 0.104278 1 -0.00278094 0.0060769
636 1 35.5023 6.59104 0 1.01343 2 0 0.0878581 1 0.000441836 0.00462822