ITEM: TIMESTEP
49000
ITEM: NUMBER OF ATOMS
15950
ITEM: BOX BOUNDS pp pp pp
0.0000000000000000e+00 1.0000000000000000e+02
-5.0000000000000000e+00 2.0000000000000000e+02
-5.0000000000000000e-01 5.0000000000000000e-01
ITEM: ATOMS id type x y z c_rho c_phase c_nbond c_temp f_rheo_chi_chi fx fy
1 2 0 -5 0 1 2 8 7.33934e-08 1 0 0
2 2 1 -5 0 1 2 8 9.28279e-08 1 0 0
51 2 0 -4 0 1 2 8 2.86811e-07 1 0 0
52 2 1 -4 0 1 2 8 3.68415e-07 1 0 0
3 2 2 -5 0 1 2 8 1.56533e-07 1 0 0
4 2 3 -5 0 1 2 8 2.70386e-07 1 0 0
53 2 2 -4 0 1 2 8 6.37195e-07 1 0 0
54 2 3 -4 0 1 2 8 1.11726e-06 1 0 0
5 2 4 -5 0 1 2 7 4.48667e-07 1 0 0
55 2 4 -4 0 1 2 8 1.82183e-06 1 0 0
6 2 5 -5 0 1 2 6 7.17161e-07 1 0 0
7 2 6 -5 0 1 2 5 1.01425e-06 1 0 0
56 2 5 -4 0 1 2 8 2.72731e-06 1 0 0
57 2 6 -4 0 1 2 8 3.74216e-06 1 0 0
8 2 7 -5 0 1 2 5 1.29088e-06 1 0 0
9 2 8 -5 0 1 2 5 1.54298e-06 1 0 0
58 2 7 -4 0 1 2 8 4.76252e-06 1 0 0
59 2 8 -4 0 1 2 8 5.70393e-06 1 0 0
10 2 9 -5 0 1 2 5 1.75951e-06 1 0 0
60 2 9 -4 0 1 2 8 6.51502e-06 1 0 0
11 2 10 -5 0 1 2 5 1.93753e-06 1 0 0
12 2 11 -5 0 1 2 5 2.08172e-06 1 0 0
61 2 10 -4 0 1 2 8 7.18453e-06 1 0 0
62 2 11 -4 0 1 2 8 7.73028e-06 1 0 0
13 2 12 -5 0 1 2 5 2.19945e-06 1 0 0
14 2 13 -5 0 1 2 5 2.29624e-06 1 0 0
63 2 12 -4 0 1 2 8 8.17954e-06 1 0 0
64 2 13 -4 0 1 2 8 8.55157e-06 1 0 0
15 2 14 -5 0 1 2 5 2.37429e-06 1 0 0
65 2 14 -4 0 1 2 8 8.8527e-06 1 0 0
16 2 15 -5 0 1 2 5 2.43457e-06 1 0 0
17 2 16 -5 0 1 2 5 2.47954e-06 1 0 0
66 2 15 -4 0 1 2 8 9.0855e-06 1 0 0
67 2 16 -4 0 1 2 8 9.26006e-06 1 0 0
18 2 17 -5 0 1 2 5 2.51281e-06 1 0 0
19 2 18 -5 0 1 2 5 2.53615e-06 1 0 0
68 2 17 -4 0 1 2 8 9.39226e-06 1 0 0
69 2 18 -4 0 1 2 8 9.4903e-06 1 0 0
20 2 19 -5 0 1 2 5 2.54757e-06 1 0 0
70 2 19 -4 0 1 2 8 9.54607e-06 1 0 0
21 2 20 -5 0 1 2 5 2.5432e-06 1 0 0
22 2 21 -5 0 1 2 5 2.52189e-06 1 0 0
71 2 20 -4 0 1 2 8 9.54301e-06 1 0 0
72 2 21 -4 0 1 2 8 9.4747e-06 1 0 0
23 2 22 -5 0 1 2 5 2.48865e-06 1 0 0
24 2 23 -5 0 1 2 5 2.45455e-06 1 0 0
73 2 22 -4 0 1 2 8 9.3588e-06 1 0 0
74 2 23 -4 0 1 2 8 9.23675e-06 1 0 0
25 2 24 -5 0 1 2 5 2.43277e-06 1 0 0
75 2 24 -4 0 1 2 8 9.1591e-06 1 0 0
26 2 25 -5 0 1 2 5 2.43293e-06 1 0 0
27 2 26 -5 0 1 2 5 2.45675e-06 1 0 0
76 2 25 -4 0 1 2 8 9.16315e-06 1 0 0
77 2 26 -4 0 1 2 8 9.25536e-06 1 0 0
28 2 27 -5 0 1 2 5 2.49803e-06 1 0 0
29 2 28 -5 0 1 2 5 2.54688e-06 1 0 0
78 2 27 -4 0 1 2 8 9.41094e-06 1 0 0
79 2 28 -4 0 1 2 8 9.59135e-06 1 0 0
30 2 29 -5 0 1 2 5 2.59461e-06 1 0 0
80 2 29 -4 0 1 2 8 9.76451e-06 1 0 0
31 2 30 -5 0 1 2 5 2.6356e-06 1 0 0
32 2 31 -5 0 1 2 5 2.66643e-06 1 0 0
81 2 30 -4 0 1 2 8 9.91178e-06 1 0 0
82 2 31 -4 0 1 2 8 1.00225e-05 1 0 0
33 2 32 -5 0 1 2 5 2.68504e-06 1 0 0
34 2 33 -5 0 1 2 5 2.69155e-06 1 0 0
83 2 32 -4 0 1 2 8 1.00894e-05 1 0 0
84 2 33 -4 0 1 2 8 1.01127e-05 1 0 0
35 2 34 -5 0 1 2 5 2.68878e-06 1 0 0
85 2 34 -4 0 1 2 8 1.01029e-05 1 0 0
36 2 35 -5 0 1 2 5 2.68065e-06 1 0 0
37 2 36 -5 0 1 2 5 2.66916e-06 1 0 0
86 2 35 -4 0 1 2 8 1.00754e-05 1 0 0
87 2 36 -4 0 1 2 8 1.00376e-05 1 0 0
38 2 37 -5 0 1 2 5 2.65293e-06 1 0 0
39 2 38 -5 0 1 2 5 2.62882e-06 1 0 0
88 2 37 -4 0 1 2 8 9.98315e-06 1 0 0
89 2 38 -4 0 1 2 8 9.89821e-06 1 0 0
40 2 39 -5 0 1 2 5 2.59565e-06 1 0 0
90 2 39 -4 0 1 2 8 9.77641e-06 1 0 0
41 2 40 -5 0 1 2 5 2.55734e-06 1 0 0
42 2 41 -5 0 1 2 5 2.52304e-06 1 0 0
91 2 40 -4 0 1 2 8 9.6316e-06 1 0 0
92 2 41 -4 0 1 2 8 9.49924e-06 1 0 0
43 2 42 -5 0 1 2 5 2.50334e-06 1 0 0
44 2 43 -5 0 1 2 5 2.50402e-06 1 0 0
93 2 42 -4 0 1 2 8 9.42172e-06 1 0 0
94 2 43 -4 0 1 2 8 9.42326e-06 1 0 0
45 2 44 -5 0 1 2 5 2.52153e-06 1 0 0
95 2 44 -4 0 1 2 8 9.49092e-06 1 0 0
46 2 45 -5 0 1 2 5 2.54414e-06 1 0 0
47 2 46 -5 0 1 2 5 2.55893e-06 1 0 0
96 2 45 -4 0 1 2 8 9.57865e-06 1 0 0
97 2 46 -4 0 1 2 8 9.63514e-06 1 0 0
48 2 47 -5 0 1 2 5 2.55985e-06 1 0 0
49 2 48 -5 0 1 2 5 2.55097e-06 1 0 0
98 2 47 -4 0 1 2 8 9.63656e-06 1 0 0
99 2 48 -4 0 1 2 8 9.59959e-06 1 0 0
50 2 49 -5 0 1 2 5 2.5427e-06 1 0 0
100 2 49 -4 0 1 2 8 9.56606e-06 1 0 0
101 2 0 -3 0 1 2 8 1.03309e-06 1 0 0
102 2 1 -3 0 1 2 8 1.34957e-06 1 0 0
151 2 0 -2 0 1 2 8 3.40494e-06 1 0 0
152 2 1 -2 0 1 2 8 4.52791e-06 1 0 0
103 2 2 -3 0 1 2 8 2.39982e-06 1 0 0
104 2 3 -3 0 1 2 8 4.29655e-06 1 0 0
153 2 2 -2 0 1 2 8 8.28732e-06 1 0 0
154 2 3 -2 0 1 2 8 1.51753e-05 1 0 0
105 2 4 -3 0 1 2 8 7.09324e-06 1 0 0
155 2 4 -2 0 1 2 8 2.54651e-05 1 0 0
106 2 5 -3 0 1 2 8 1.06665e-05 1 0 0
107 2 6 -3 0 1 2 8 1.46966e-05 1 0 0
156 2 5 -2 0 1 2 8 3.87202e-05 1 0 0
157 2 6 -2 0 1 2 8 5.37145e-05 1 0 0
108 2 7 -3 0 1 2 8 1.87707e-05 1 0 0
109 2 8 -3 0 1 2 8 2.25313e-05 1 0 0
158 2 7 -2 0 1 2 8 6.88655e-05 1 0 0
159 2 8 -2 0 1 2 8 8.28355e-05 1 0 0
110 2 9 -3 0 1 2 8 2.5773e-05 1 0 0
160 2 9 -2 0 1 2 8 9.48895e-05 1 0 0
111 2 10 -3 0 1 2 8 2.84568e-05 1 0 0
112 2 11 -3 0 1 2 8 3.06582e-05 1 0 0
161 2 10 -2 0 1 2 8 0.000104912 1 0 0
162 2 11 -2 0 1 2 8 0.000113197 1 0 0
113 2 12 -3 0 1 2 8 3.24868e-05 1 0 0
114 2 13 -3 0 1 2 8 3.40146e-05 1 0 0
163 2 12 -2 0 1 2 8 0.000120151 1 0 0
164 2 13 -2 0 1 2 8 0.000126021 1 0 0
115 2 14 -3 0 1 2 8 3.52574e-05 1 0 0
165 2 14 -2 0 1 2 8 0.000130827 1 0 0
116 2 15 -3 0 1 2 8 3.62188e-05 1 0 0
117 2 16 -3 0 1 2 8 3.69428e-05 1 0 0
166 2 15 -2 0 1 2 8 0.000134552 1 0 0
167 2 16 -2 0 1 2 8 0.000137374 1 0 0
118 2 17 -3 0 1 2 8 3.75043e-05 1 0 0
119 2 18 -3 0 1 2 8 3.79434e-05 1 0 0
168 2 17 -2 0 1 2 8 0.000139618 1 0 0
169 2 18 -2 0 1 2 8 0.000141462 1 0 0
120 2 19 -3 0 1 2 8 3.82239e-05 1 0 0
170 2 19 -2 0 1 2 8 0.000142754 1 0 0
121 2 20 -3 0 1 2 8 3.8269e-05 1 0 0
122 2 21 -3 0 1 2 8 3.80436e-05 1 0 0
171 2 20 -2 0 1 2 8 0.000143169 1 0 0
172 2 21 -2 0 1 2 8 0.000142544 1 0 0
123 2 22 -3 0 1 2 8 3.76139e-05 1 0 0
124 2 23 -3 0 1 2 8 3.71469e-05 1 0 0
173 2 22 -2 0 1 2 8 0.000141111 1 0 0
174 2 23 -2 0 1 2 8 0.000139488 1 0 0
125 2 24 -3 0 1 2 8 3.6851e-05 1 0 0
175 2 24 -2 0 1 2 8 0.000138469 1 0 0
126 2 25 -3 0 1 2 8 3.68829e-05 1 0 0
127 2 26 -3 0 1 2 8 3.72686e-05 1 0 0
176 2 25 -2 0 1 2 8 0.000138665 1 0 0
177 2 26 -2 0 1 2 8 0.000140176 1 0 0
128 2 27 -3 0 1 2 8 3.79004e-05 1 0 0
129 2 28 -3 0 1 2 8 3.86152e-05 1 0 0
178 2 27 -2 0 1 2 8 0.000142569 1 0 0
179 2 28 -2 0 1 2 8 0.0001452 1 0 0
130 2 29 -3 0 1 2 8 3.92868e-05 1 0 0
180 2 29 -2 0 1 2 8 0.000147613 1 0 0
131 2 30 -3 0 1 2 8 3.98522e-05 1 0 0
132 2 31 -3 0 1 2 8 4.02783e-05 1 0 0
181 2 30 -2 0 1 2 8 0.000149624 1 0 0
182 2 31 -2 0 1 2 8 0.000151152 1 0 0
133 2 32 -3 0 1 2 8 4.05374e-05 1 0 0
134 2 33 -3 0 1 2 8 4.06264e-05 1 0 0
183 2 32 -2 0 1 2 8 0.000152094 1 0 0
184 2 33 -2 0 1 2 8 0.00015242 1 0 0
135 2 34 -3 0 1 2 8 4.05889e-05 1 0 0
185 2 34 -2 0 1 2 8 0.000152294 1 0 0
136 2 35 -3 0 1 2 8 4.04902e-05 1 0 0
137 2 36 -3 0 1 2 8 4.03619e-05 1 0 0
186 2 35 -2 0 1 2 8 0.000151978 1 0 0
187 2 36 -2 0 1 2 8 0.000151596 1 0 0
138 2 37 -3 0 1 2 8 4.01728e-05 1 0 0
139 2 38 -3 0 1 2 8 3.98581e-05 1 0 0
188 2 37 -2 0 1 2 8 0.000151012 1 0 0
189 2 38 -2 0 1 2 8 0.00014995 1 0 0
140 2 39 -3 0 1 2 8 3.93827e-05 1 0 0
190 2 39 -2 0 1 2 8 0.000148244 1 0 0
141 2 40 -3 0 1 2 8 3.8798e-05 1 0 0
142 2 41 -3 0 1 2 8 3.82511e-05 1 0 0
191 2 40 -2 0 1 2 8 0.000146067 1 0 0
192 2 41 -2 0 1 2 8 0.000143979 1 0 0
143 2 42 -3 0 1 2 8 3.79248e-05 1 0 0
144 2 43 -3 0 1 2 8 3.7929e-05 1 0 0
193 2 42 -2 0 1 2 8 0.00014271 1 0 0
194 2 43 -2 0 1 2 8 0.000142717 1 0 0
145 2 44 -3 0 1 2 8 3.82133e-05 1 0 0
195 2 44 -2 0 1 2 8 0.000143823 1 0 0
146 2 45 -3 0 1 2 8 3.85816e-05 1 0 0
147 2 46 -3 0 1 2 8 3.88131e-05 1 0 0
196 2 45 -2 0 1 2 8 0.000145252 1 0 0
197 2 46 -2 0 1 2 8 0.000146126 1 0 0
148 2 47 -3 0 1 2 8 3.88067e-05 1 0 0
149 2 48 -3 0 1 2 8 3.86373e-05 1 0 0
198 2 47 -2 0 1 2 8 0.000146049 1 0 0
199 2 48 -2 0 1 2 8 0.000145333 1 0 0
150 2 49 -3 0 1 2 8 3.84872e-05 1 0 0
200 2 49 -2 0 1 2 8 0.000144712 1 0 0
201 2 0 -1 0 1 2 8 1.01906e-05 1 0 0
202 2 1 -1 0 1 2 8 1.38003e-05 1 0 0
203 2 2 -1 0 1 2 8 2.59984e-05 1 0 0
204 2 3 -1 0 1 2 8 4.87046e-05 1 0 0
205 2 4 -1 0 1 2 8 8.31219e-05 1 0 0
206 2 5 -1 0 1 2 8 0.000127849 1 0 0
207 2 6 -1 0 1 2 8 0.00017855 1 0 0
208 2 7 -1 0 1 2 8 0.000229686 1 0 0
209 2 8 -1 0 1 2 8 0.000276767 1 0 0
210 2 9 -1 0 1 2 8 0.000317476 1 0 0
211 2 10 -1 0 1 2 8 0.000351542 1 0 0
212 2 11 -1 0 1 2 8 0.000379988 1 0 0
213 2 12 -1 0 1 2 8 0.00040415 1 0 0
214 2 13 -1 0 1 2 8 0.000424784 1 0 0
215 2 14 -1 0 1 2 8 0.000441816 1 0 0
216 2 15 -1 0 1 2 8 0.000455083 1 0 0
217 2 16 -1 0 1 2 8 0.000465229 1 0 0
218 2 17 -1 0 1 2 8 0.000473512 1 0 0
219 2 18 -1 0 1 2 8 0.000480627 1 0 0
220 2 19 -1 0 1 2 8 0.000485997 1 0 0
221 2 20 -1 0 1 2 8 0.000488395 1 0 0
222 2 21 -1 0 1 2 8 0.000487185 1 0 0
223 2 22 -1 0 1 2 8 0.000483101 1 0 0
224 2 23 -1 0 1 2 8 0.000478195 1 0 0
225 2 24 -1 0 1 2 8 0.000475174 1 0 0
226 2 25 -1 0 1 2 8 0.000476191 1 0 0
227 2 26 -1 0 1 2 8 0.000481618 1 0 0
228 2 27 -1 0 1 2 8 0.000489871 1 0 0
229 2 28 -1 0 1 2 8 0.000498661 1 0 0
230 2 29 -1 0 1 2 8 0.000506495 1 0 0
231 2 30 -1 0 1 2 8 0.000512972 1 0 0
232 2 31 -1 0 1 2 8 0.000517973 1 0 0
233 2 32 -1 0 1 2 8 0.000521134 1 0 0
234 2 33 -1 0 1 2 8 0.000522269 1 0 0
235 2 34 -1 0 1 2 8 0.000521931 1 0 0
236 2 35 -1 0 1 2 8 0.000521077 1 0 0
237 2 36 -1 0 1 2 8 0.000520152 1 0 0
238 2 37 -1 0 1 2 8 0.000518634 1 0 0
239 2 38 -1 0 1 2 8 0.00051548 1 0 0
240 2 39 -1 0 1 2 8 0.000510022 1 0 0
241 2 40 -1 0 1 2 8 0.000502759 1 0 0
242 2 41 -1 0 1 2 8 0.000495601 1 0 0
243 2 42 -1 0 1 2 8 0.000491157 1 0 0
244 2 43 -1 0 1 2 8 0.00049115 1 0 0
245 2 44 -1 0 1 2 8 0.000495019 1 0 0
246 2 45 -1 0 1 2 8 0.000500007 1 0 0
247 2 46 -1 0 1 2 8 0.000502965 1 0 0
248 2 47 -1 0 1 2 8 0.000502505 1 0 0
249 2 48 -1 0 1 2 8 0.000499791 1 0 0
250 2 49 -1 0 1 2 8 0.000497484 1 0 0
251 2 0 0 0 1 2 8 2.74892e-05 1 0 0
252 2 1 0 0 1 2 8 3.78908e-05 1 0 0
301 2 0 1 0 1 2 8 6.64011e-05 1 0 0
302 2 1 1 0 1 2 8 9.30016e-05 1 0 0
253 2 2 0 0 1 2 8 7.33658e-05 1 0 0
254 2 3 0 0 1 2 8 0.000140488 1 0 0
303 2 2 1 0 1 2 8 0.000184384 1 0 0
304 2 3 1 0 1 2 8 0.000359836 1 0 0
255 2 4 0 0 1 2 8 0.000243816 1 0 0
305 2 4 1 0 1 2 8 0.000634177 1 0 0
256 2 5 0 0 1 2 8 0.000379307 1 0 0
257 2 6 0 0 1 2 8 0.000532954 1 0 0
306 2 5 1 0 1 2 8 0.000997284 1 0 0
307 2 6 1 0 1 2 8 0.00140793 1 0 0
258 2 7 0 0 1 2 8 0.000687283 1 0 0
259 2 8 0 0 1 2 8 0.000829109 1 0 0
308 2 7 1 0 1 2 8 0.00181696 1 0 0
309 2 8 1 0 1 2 8 0.00219191 1 0 0
260 2 9 0 0 1 2 8 0.000952217 1 0 0
310 2 9 1 0 1 2 8 0.0025196 1 0 0
261 2 10 0 0 1 2 8 0.0010562 1 0 0
262 2 11 0 0 1 2 8 0.00114412 1 0 0
311 2 10 1 0 1 2 8 0.00280002 1 0 0
312 2 11 1 0 1 2 8 0.00304092 1 0 0
263 2 12 0 0 1 2 8 0.00121985 1 0 0
264 2 13 0 0 1 2 8 0.00128537 1 0 0
313 2 12 1 0 1 2 8 0.00325165 1 0 0
314 2 13 1 0 1 2 8 0.00343671 1 0 0
265 2 14 0 0 1 2 8 0.00134004 1 0 0
315 2 14 1 0 1 2 8 0.00359334 1 0 0
266 2 15 0 0 1 2 8 0.001383 1 0 0
267 2 16 0 0 1 2 8 0.00141633 1 0 0
316 2 15 1 0 1 2 8 0.00371826 1 0 0
317 2 16 1 0 1 2 8 0.00381718 1 0 0
268 2 17 0 0 1 2 8 0.0014443 1 0 0
269 2 18 0 0 1 2 8 0.00146927 1 0 0
318 2 17 1 0 1 2 8 0.00390264 1 0 0
319 2 18 1 0 1 2 8 0.00398122 1 0 0
270 2 19 0 0 1 2 8 0.00148923 1 0 0
320 2 19 1 0 1 2 8 0.00404685 1 0 0
271 2 20 0 0 1 2 8 0.00150014 1 0 0
272 2 21 0 0 1 2 8 0.00149995 1 0 0
321 2 20 1 0 1 2 8 0.00408804 1 0 0
322 2 21 1 0 1 2 8 0.00409963 1 0 0
273 2 22 0 0 1 2 8 0.00149077 1 0 0
274 2 23 0 0 1 2 8 0.00147852 1 0 0
323 2 22 1 0 1 2 8 0.00408707 1 0 0
324 2 23 1 0 1 2 8 0.00406482 1 0 0
275 2 24 0 0 1 2 8 0.00147131 1 0 0
325 2 24 1 0 1 2 8 0.00405343 1 0 0
276 2 25 0 0 1 2 8 0.0014759 1 0 0
277 2 26 0 0 1 2 8 0.00149354 1 0 0
326 2 25 1 0 1 2 8 0.0040714 1 0 0
327 2 26 1 0 1 2 8 0.00412271 1 0 0
278 2 27 0 0 1 2 8 0.00151916 1 0 0
279 2 28 0 0 1 2 8 0.00154548 1 0 0
328 2 27 1 0 1 2 8 0.00419337 1 0 0
329 2 28 1 0 1 2 8 0.00426314 1 0 0
280 2 29 0 0 1 2 8 0.00156821 1 0 0
330 2 29 1 0 1 2 8 0.00432138 1 0 0
281 2 30 0 0 1 2 8 0.0015869 1 0 0
282 2 31 0 0 1 2 8 0.00160173 1 0 0
331 2 30 1 0 1 2 8 0.00436934 1 0 0
332 2 31 1 0 1 2 8 0.00440903 1 0 0
283 2 32 0 0 1 2 8 0.00161149 1 0 0
284 2 33 0 0 1 2 8 0.00161526 1 0 0
333 2 32 1 0 1 2 8 0.00443668 1 0 0
334 2 33 1 0 1 2 8 0.00444862 1 0 0
285 2 34 0 0 1 2 8 0.00161469 1 0 0
335 2 34 1 0 1 2 8 0.00444908 1 0 0
286 2 35 0 0 1 2 8 0.00161294 1 0 0
287 2 36 0 0 1 2 8 0.00161143 1 0 0
336 2 35 1 0 1 2 8 0.00444737 1 0 0
337 2 36 1 0 1 2 8 0.00444754 1 0 0
288 2 37 0 0 1 2 8 0.0016084 1 0 0
289 2 38 0 0 1 2 8 0.00160042 1 0 0
338 2 37 1 0 1 2 8 0.00444426 1 0 0
339 2 38 1 0 1 2 8 0.00442801 1 0 0
290 2 39 0 0 1 2 8 0.0015852 1 0 0
340 2 39 1 0 1 2 8 0.00439237 1 0 0
291 2 40 0 0 1 2 8 0.00156396 1 0 0
292 2 41 0 0 1 2 8 0.00154236 1 0 0
341 2 40 1 0 1 2 8 0.00433954 1 0 0
342 2 41 1 0 1 2 8 0.00428372 1 0 0
293 2 42 0 0 1 2 8 0.00152864 1 0 0
294 2 43 0 0 1 2 8 0.00152853 1 0 0
343 2 42 1 0 1 2 8 0.00424737 1 0 0
344 2 43 1 0 1 2 8 0.00424705 1 0 0
295 2 44 0 0 1 2 8 0.00154052 1 0 0
345 2 44 1 0 1 2 8 0.00427928 1 0 0
296 2 45 0 0 1 2 8 0.00155591 1 0 0
297 2 46 0 0 1 2 8 0.00156471 1 0 0
346 2 45 1 0 1 2 8 0.00432038 1 0 0
347 2 46 1 0 1 2 8 0.00434291 1 0 0
298 2 47 0 0 1 2 8 0.00156266 1 0 0
299 2 48 0 0 1 2 8 0.00155363 1 0 0
348 2 47 1 0 1 2 8 0.00433575 1 0 0
349 2 48 1 0 1 2 8 0.00431004 1 0 0
300 2 49 0 0 1 2 8 0.00154611 1 0 0
350 2 49 1 0 1 2 8 0.00428911 1 0 0
351 2 0 2 0 1 2 8 0.000143009 1 0 0
352 2 1 2 0 1 2 8 0.000202943 1 0 0
401 2 0 3 0 1 2 8 0.000274378 1 0 0
402 2 1 3 0 1 2 8 0.00039324 1 0 0
353 2 2 2 0 1 2 8 0.000409282 1 0 0
354 2 3 2 0 1 2 8 0.000808435 1 0 0
403 2 2 3 0 1 2 8 0.000799921 1 0 0
404 2 3 3 0 1 2 8 0.00157954 1 0 0
355 2 4 2 0 1 2 8 0.0014409 1 0 0
405 2 4 3 0 1 2 8 0.00281064 1 0 0
356 2 5 2 0 1 2 8 0.00228778 1 0 0
357 2 6 2 0 1 2 8 0.00323699 1 0 0
406 2 5 3 0 1 2 8 0.00450936 1 0 0
407 2 6 3 0 1 2 8 0.00637614 1 0 0
358 2 7 2 0 1 2 8 0.00416621 1 0 0
359 2 8 2 0 1 2 8 0.00501574 1 0 0
408 2 7 3 0 1 2 8 0.00812247 1 0 0
409 2 8 3 0 1 2 8 0.00972396 1 0 0
360 2 9 2 0 1 2 8 0.00576695 1 0 0
410 2 9 3 0 1 2 8 0.0111701 1 0 0
361 2 10 2 0 1 2 8 0.0064214 1 0 0
362 2 11 2 0 1 2 8 0.00699477 1 0 0
411 2 10 3 0 1 2 8 0.0124586 1 0 0
412 2 11 3 0 1 2 8 0.0136155 1 0 0
363 2 12 2 0 1 2 8 0.00750535 1 0 0
364 2 13 2 0 1 2 8 0.00796119 1 0 0
413 2 12 3 0 1 2 8 0.0146676 1 0 0
414 2 13 3 0 1 2 8 0.0156236 1 0 0
365 2 14 2 0 1 2 8 0.00835423 1 0 0
415 2 14 3 0 1 2 8 0.0164693 1 0 0
366 2 15 2 0 1 2 8 0.00867485 1 0 0
367 2 16 2 0 1 2 8 0.00893616 1 0 0
416 2 15 3 0 1 2 8 0.0171809 1 0 0
417 2 16 3 0 1 2 8 0.0177826 1 0 0
368 2 17 2 0 1 2 8 0.00916856 1 0 0
369 2 18 2 0 1 2 8 0.00938685 1 0 0
418 2 17 3 0 1 2 8 0.0183344 1 0 0
419 2 18 3 0 1 2 8 0.0188604 1 0 0
370 2 19 2 0 1 2 8 0.00957472 1 0 0
420 2 19 3 0 1 2 8 0.0193226 1 0 0
371 2 20 2 0 1 2 8 0.00970526 1 0 0
372 2 21 2 0 1 2 8 0.00976939 1 0 0
421 2 20 3 0 1 2 8 0.0196687 1 0 0
422 2 21 3 0 1 2 8 0.0198946 1 0 0
373 2 22 2 0 1 2 8 0.00978018 1 0 0
374 2 23 2 0 1 2 8 0.00976511 1 0 0
423 2 22 3 0 1 2 8 0.0200319 1 0 0
424 2 23 3 0 1 2 8 0.0201109 1 0 0
375 2 24 2 0 1 2 8 0.00976664 1 0 0
425 2 24 3 0 1 2 8 0.020197 1 0 0
376 2 25 2 0 1 2 8 0.00982777 1 0 0
377 2 26 2 0 1 2 8 0.00995939 1 0 0
426 2 25 3 0 1 2 8 0.020377 1 0 0
427 2 26 3 0 1 2 8 0.0206711 1 0 0
378 2 27 2 0 1 2 8 0.0101301 1 0 0
379 2 28 2 0 1 2 8 0.010292 1 0 0
428 2 27 3 0 1 2 8 0.021032 1 0 0
429 2 28 3 0 1 2 8 0.0213604 1 0 0
380 2 29 2 0 1 2 8 0.0104228 1 0 0
430 2 29 3 0 1 2 8 0.0216165 1 0 0
381 2 30 2 0 1 2 8 0.010532 1 0 0
382 2 31 2 0 1 2 8 0.0106279 1 0 0
431 2 30 3 0 1 2 8 0.0218404 1 0 0
432 2 31 3 0 1 2 8 0.0220516 1 0 0
383 2 32 2 0 1 2 8 0.0106997 1 0 0
384 2 33 2 0 1 2 8 0.0107352 1 0 0
433 2 32 3 0 1 2 8 0.0222237 1 0 0
434 2 33 3 0 1 2 8 0.0223212 1 0 0
385 2 34 2 0 1 2 8 0.0107436 1 0 0
435 2 34 3 0 1 2 8 0.0223584 1 0 0
386 2 35 2 0 1 2 8 0.0107493 1 0 0
387 2 36 2 0 1 2 8 0.0107622 1 0 0
436 2 35 3 0 1 2 8 0.022398 1 0 0
437 2 36 3 0 1 2 8 0.0224588 1 0 0
388 2 37 2 0 1 2 8 0.0107679 1 0 0
389 2 38 2 0 1 2 8 0.0107448 1 0 0
438 2 37 3 0 1 2 8 0.0225037 1 0 0
439 2 38 3 0 1 2 8 0.0224936 1 0 0
390 2 39 2 0 1 2 8 0.010679 1 0 0
440 2 39 3 0 1 2 8 0.0224126 1 0 0
391 2 40 2 0 1 2 8 0.0105729 1 0 0
392 2 41 2 0 1 2 8 0.0104544 1 0 0
441 2 40 3 0 1 2 8 0.0222595 1 0 0
442 2 41 3 0 1 2 8 0.0220636 1 0 0
393 2 42 2 0 1 2 8 0.010375 1 0 0
394 2 43 2 0 1 2 8 0.0103753 1 0 0
443 2 42 3 0 1 2 8 0.0219293 1 0 0
444 2 43 3 0 1 2 8 0.0219365 1 0 0
395 2 44 2 0 1 2 8 0.0104489 1 0 0
445 2 44 3 0 1 2 8 0.0220785 1 0 0
396 2 45 2 0 1 2 8 0.0105417 1 0 0
397 2 46 2 0 1 2 8 0.0105901 1 0 0
446 2 45 3 0 1 2 8 0.0222551 1 0 0
447 2 46 3 0 1 2 8 0.0223412 1 0 0
398 2 47 2 0 1 2 8 0.0105707 1 0 0
399 2 48 2 0 1 2 8 0.0105107 1 0 0
448 2 47 3 0 1 2 8 0.0223014 1 0 0
449 2 48 3 0 1 2 8 0.0221945 1 0 0
400 2 49 2 0 1 2 8 0.0104629 1 0 0
450 2 49 3 0 1 2 8 0.0221063 1 0 0
451 2 0 4 0 1 2 8 0.000470562 1 0 0
452 2 1 4 0 1 2 8 0.000679493 1 0 0
453 2 2 4 0 1 2 8 0.00138569 1 0 0
454 2 3 4 0 1 2 8 0.00269753 1 0 0
455 2 4 4 0 1 2 7 0.00462656 1 0 0
456 2 5 4 0 1 2 6 0.00752948 1 0 0
457 2 6 4 0 1 2 5 0.010438 1 0 0
506 1 5.47976 4.87206 0 1.0006 2 0 0.0120031 1 0.0047616 -0.0020423
507 1 6.48056 4.87245 0 1.02569 2 0 0.0146776 1 0.00101897 0.00199387
458 2 7 4 0 1 2 5 0.0129595 1 0 0
459 2 8 4 0 1 2 5 0.0153518 1 0 0
508 1 7.4867 4.87056 0 1.03193 2 0 0.0173557 1 0.00130262 0.00238105
460 2 9 4 0 1 2 5 0.0175713 1 0 0
510 1 8.49834 4.86518 0 1.01036 2 0 0.0199577 1 0.000432582 0.000700458
511 1 9.50098 4.86513 0 1.00136 2 0 0.0224074 1 -0.00428114 -0.00176085
461 2 10 4 0 1 2 5 0.0196023 1 0 0
462 2 11 4 0 1 2 5 0.0214892 1 0 0
512 1 10.5006 4.86486 0 1.01573 2 0 0.0247638 1 -0.00360143 -0.00210355
513 1 11.4994 4.86298 0 1.01534 2 0 0.0270203 1 0.00284615 0.00256246
463 2 12 4 0 1 2 5 0.0232452 1 0 0
464 2 13 4 0 1 2 5 0.0248675 1 0 0
514 1 12.5001 4.8651 0 1.01802 2 0 0.0291403 1 -0.00291927 -0.00456851
465 2 14 4 0 1 2 5 0.0263481 1 0 0
515 1 13.4981 4.86541 0 1.02031 2 0 0.0311335 1 0.00655228 -0.00344927
516 1 14.4993 4.86488 0 1.0096 2 0 0.0329822 1 0.000916258 -0.00232412
466 2 15 4 0 1 2 5 0.0276452 1 0 0
467 2 16 4 0 1 2 5 0.0287908 1 0 0
518 1 16.4999 4.86245 0 1.02515 2 0 0.0362873 1 0.001983 0.00863946
517 1 15.5003 4.86279 0 1.02614 2 0 0.0346844 1 -0.00108905 0.00470721
468 2 17 4 0 1 2 5 0.0298709 1 0 0
469 2 18 4 0 1 2 5 0.0309009 1 0 0
519 1 17.5016 4.86592 0 1.0239 2 0 0.0377901 1 -0.00323917 -0.00324287
470 2 19 4 0 1 2 5 0.0318201 1 0 0
520 1 18.5005 4.86555 0 1.00577 2 0 0.0391704 1 0.00166189 -0.00418015
521 1 19.5006 4.86361 0 1.00453 2 0 0.0404031 1 0.00209847 -0.000421912
471 2 20 4 0 1 2 5 0.032556 1 0 0
472 2 21 4 0 1 2 5 0.0331335 1 0 0
523 1 21.5031 4.86315 0 1.02268 2 0 0.0425132 1 0.00359049 -0.00147239
522 1 20.505 4.86251 0 1.0139 2 0 0.0414961 1 -0.00763102 0.000489699
473 2 22 4 0 1 2 5 0.0336199 1 0 0
474 2 23 4 0 1 2 5 0.0340037 1 0 0
524 1 22.5022 4.86244 0 1.01383 2 0 0.0434512 1 0.00449547 0.00223615
475 2 24 4 0 1 2 5 0.0343477 1 0 0
525 1 23.5022 4.8638 0 1.03669 2 0 0.044298 1 0.000136958 0.00257582
526 1 24.5038 4.86416 0 1.04245 2 0 0.0451112 1 -0.00112627 -0.00261642
476 2 25 4 0 1 2 5 0.0347872 1 0 0
477 2 26 4 0 1 2 5 0.0353401 1 0 0
528 1 26.5012 4.86481 0 1.04147 2 0 0.0467403 1 0.00847981 -0.000750668
527 1 25.5048 4.86505 0 1.03798 2 0 0.0459274 1 -0.00758047 0.000263064
478 2 27 4 0 1 2 5 0.0359757 1 0 0
479 2 28 4 0 1 2 5 0.0365364 1 0 0
529 1 27.5013 4.86346 0 1.0019 2 0 0.0475029 1 0.000570533 0.00443459
480 2 29 4 0 1 2 5 0.0369753 1 0 0
531 1 29.5015 4.86448 0 1.01679 2 0 0.0488406 1 -0.0039429 -0.00259861
530 1 28.5016 4.86494 0 1.02091 2 0 0.0482018 1 0.000345117 -0.00632109
481 2 30 4 0 1 2 5 0.037384 1 0 0
482 2 31 4 0 1 2 5 0.0377885 1 0 0
533 1 31.4995 4.86432 0 1.004 2 0 0.0499797 1 0.0025288 0.00104712
532 1 30.4989 4.86266 0 1.0182 2 0 0.0494343 1 0.00984259 0.00405632
483 2 32 4 0 1 2 5 0.0381434 1 0 0
484 2 33 4 0 1 2 5 0.0383736 1 0 0
534 1 32.5 4.86319 0 1.00171 2 0 0.0504389 1 0.00153144 0.00569439
485 2 34 4 0 1 2 5 0.0384876 1 0 0
535 1 33.5009 4.86325 0 1.00275 2 0 0.0507963 1 -0.0050684 0.0034358
536 1 34.5003 4.86273 0 1.0237 2 0 0.0510839 1 -0.00471957 0.00290211
486 2 35 4 0 1 2 5 0.0386198 1 0 0
487 2 36 4 0 1 2 5 0.038797 1 0 0
538 1 36.5006 4.86423 0 1.01227 2 0 0.0516787 1 -0.00652051 -0.00134649
537 1 35.4978 4.86188 0 1.0067 2 0 0.051392 1 0.010112 0.00702365
488 2 37 4 0 1 2 5 0.0389367 1 0 0
489 2 38 4 0 1 2 5 0.0389913 1 0 0
539 1 37.4978 4.8628 0 1.00174 2 0 0.0518917 1 0.00779016 0.00656927
490 2 39 4 0 1 2 5 0.0389693 1 0 0
541 1 39.4983 4.86385 0 1.00168 2 0 0.0521346 1 0.00569138 -0.00469946
540 1 38.4969 4.86544 0 1.01715 2 0 0.0520428 1 0.00472836 -0.00632536
491 2 40 4 0 1 2 5 0.0388601 1 0 0
492 2 41 4 0 1 2 5 0.0386507 1 0 0
542 1 40.4998 4.86274 0 1.01016 2 0 0.0521746 1 0.00084311 0.000166799
543 1 41.4994 4.86076 0 1.03252 2 0 0.0522264 1 0.00382793 0.00391514
493 2 42 4 0 1 2 5 0.0385128 1 0 0
494 2 43 4 0 1 2 5 0.0385564 1 0 0
544 1 42.5033 4.8616 0 1.0319 2 0 0.0523293 1 -0.00544413 0.00635273
495 2 44 4 0 1 2 5 0.0387713 1 0 0
545 1 43.5018 4.86675 0 1.03659 2 0 0.0524766 1 0.00349211 -0.0131391
546 1 44.5026 4.86654 0 1.01001 2 0 0.0526474 1 -0.00519279 -0.00675207
496 2 45 4 0 1 2 5 0.0390348 1 0 0
497 2 46 4 0 1 2 5 0.039161 1 0 0
548 1 46.5006 4.86337 0 1.00807 2 0 0.0529453 1 0.00011055 0.000848777
547 1 45.5005 4.86316 0 1.00173 2 0 0.0528316 1 0.00396666 0.00542944
498 2 47 4 0 1 2 5 0.0391196 1 0 0
499 2 48 4 0 1 2 5 0.0390038 1 0 0
549 1 47.5047 4.86325 0 1.02093 2 0 0.0529955 1 -0.0132146 -0.000854747
500 2 49 4 0 1 2 5 0.0389045 1 0 0
550 1 48.502 4.86574 0 1.02225 2 0 0.0530585 1 0.00281127 -0.00721949
8501 1 49.5003 4.86479 0 1.06187 2 0 0.0531397 1 -0.00101588 0.00138118
501 2 0 5 0 1 2 8 0.000727144 1 0 0
502 2 1 5 0 1 2 8 0.00105649 1 0 0
551 2 0 6 0 1 2 8 0.00102487 1 0 0
552 2 1 6 0 1 2 8 0.00149713 1 0 0
503 2 2 5 0 1 2 8 0.00215534 1 0 0
504 2 3 5 0 1 2 8 0.00414799 1 0 0
553 2 2 6 0 1 2 8 0.00305277 1 0 0
554 2 3 6 0 1 2 8 0.00581511 1 0 0
505 2 4 5 0 1 2 6 0.00697639 1 0 0
555 2 4 6 0 1 2 5 0.00948172 1 0 0
556 1 4.96825 5.72782 0 1.02426 2 0 0.0127738 1 -0.00309502 0.00512792
557 1 5.97174 5.73935 0 1.00456 2 0 0.0160651 1 2.07819e-05 -0.000286662
558 1 6.97615 5.73778 0 1.00032 2 0 0.0189984 1 0.00227389 0.00395235
509 1 7.99111 5.73257 0 1.00999 2 0 0.0219798 1 -6.82887e-06 -6.05154e-05
560 1 8.99678 5.73081 0 1.01571 2 0 0.0248397 1 0.00117405 -0.00326863
561 1 9.99943 5.72912 0 1.04128 2 0 0.0276295 1 0.00351653 0.000526077
562 1 11.0011 5.72798 0 1.02468 2 0 0.0303404 1 -0.00459167 0.00493652
563 1 11.9987 5.72713 0 1.00884 2 0 0.0329187 1 0.00380409 0.00735133
565 1 12.9996 5.72968 0 1.01555 2 0 0.0353951 1 0.000203275 0.00406257
566 1 13.9998 5.72913 0 1.01485 2 0 0.0377484 1 -0.0010181 -3.3716e-05
567 1 15.0015 5.72787 0 1.00349 2 0 0.0399535 1 -0.0024935 0.00464084
568 1 16.0002 5.72723 0 1.02492 2 0 0.0420666 1 0.00222669 0.00368822
569 1 18.0015 5.7303 0 1.01386 2 0 0.0458821 1 0.000203198 -0.000402297
618 1 16.9996 5.72934 0 1.00786 2 0 0.0440475 1 0.00154464 -0.0047758
570 1 19.0042 5.72758 0 1.00562 2 0 0.0475683 1 -0.00223408 0.00794067
571 1 20.0065 5.72527 0 1.00943 2 0 0.0491309 1 -0.000971354 0.00164847
572 1 21.0064 5.72511 0 1.02492 2 0 0.0506292 1 0.00167744 0.00495726
573 1 22.0075 5.72595 0 1.00977 2 0 0.0520289 1 -0.00547128 0.00298508
574 1 23.0051 5.72882 0 1.00488 2 0 0.0533335 1 0.00619854 -0.00240962
575 1 24.0079 5.72828 0 1.01237 2 0 0.0545695 1 -0.00703778 0.000513102
576 1 25.0052 5.7279 0 1.01087 2 0 0.0557221 1 0.00569441 0.00417384
577 1 26.0056 5.73047 0 1.01133 2 0 0.0568 1 -0.00118728 -0.000769281
579 1 27.0059 5.73001 0 1.01129 2 0 0.0577959 1 -0.00416041 -0.00270776
580 1 28.0059 5.72887 0 1.02117 2 0 0.0587422 1 -0.0085406 0.00154729
581 1 29.0037 5.72795 0 1.01861 2 0 0.0596289 1 0.00544573 0.00339778
632 1 30.0043 5.72782 0 1.0167 2 0 0.0603994 1 -0.00147728 0.0036253
582 1 31.0038 5.73034 0 1.0143 2 0 0.0611105 1 -0.00483077 -0.00307297
583 1 32.0022 5.7286 0 1.0088 2 0 0.0617481 1 0.00150876 -0.00600673
584 1 33.0013 5.73008 0 1.00514 2 0 0.0623239 1 -0.0032383 -0.00904475
585 1 33.9998 5.72674 0 1.02197 2 0 0.0628622 1 0.00540142 0.00543005
586 1 35.0005 5.72585 0 1.02669 2 0 0.0633301 1 4.61925e-05 0.00838709
587 1 36.0013 5.72869 0 1.01702 2 0 0.0637543 1 -0.00595366 -0.00383559
588 1 37 5.72808 0 1.01798 2 0 0.0641048 1 0.00140905 -0.00242751
589 1 37.999 5.72886 0 1.01656 2 0 0.0643835 1 0.00221491 -0.000391124
590 1 39.0019 5.72589 0 1.01208 2 0 0.0646157 1 -0.000258562 0.00851239
591 1 40.0023 5.72612 0 1.01334 2 0 0.0648427 1 -0.00134625 0.00431552
592 1 41.004 5.72413 0 1.02633 2 0 0.0651278 1 -0.00764946 0.00836579
594 1 43.0007 5.72724 0 1.01497 2 0 0.0655463 1 0.00215587 0.00164122
593 1 42.0007 5.72342 0 1.02837 2 0 0.0653799 1 0.0102331 0.00150763
595 1 44.0012 5.72903 0 1.01694 2 0 0.0656529 1 0.00560915 0.00246316
596 1 45.0031 5.72955 0 1.01116 2 0 0.0657814 1 -0.000862569 0.00566467
597 1 46.0019 5.72745 0 1.01212 2 0 0.0659854 1 0.00249499 0.00246806
598 1 47.0022 5.72655 0 1.00861 2 0 0.0661788 1 -0.00405085 -0.00166848
599 1 48.0008 5.72668 0 1.02545 2 0 0.0663454 1 0.00944483 0.00278166
600 1 49.0016 5.73003 0 1.00476 2 0 0.0665123 1 0.00447499 -0.00198632
10701 1 49.69 45.4793 0 1.00429 0 0 0.465479 1 -0.000105921 -6.22343e-05
601 2 0 7 0 1 2 8 0.00133704 1 0 0
602 2 1 7 0 1 2 8 0.00196392 1 0 0
651 2 0 8 0 1 2 8 0.00163762 1 0 0
652 2 1 8 0 1 2 8 0.00241983 1 0 0
603 2 2 7 0 1 2 8 0.00400818 1 0 0
604 2 3 7 0 1 2 8 0.00759944 1 0 0
653 2 2 8 0 1 2 8 0.00495151 1 0 0
654 2 3 8 0 1 2 8 0.00939344 1 0 0
605 2 4 7 0 1 2 5 0.0121582 1 0 0
655 2 4 8 0 1 2 5 0.014749 1 0 0
656 1 4.90675 7.48101 0 1.01253 2 0 0.0169529 1 0 -5e-05
606 1 5.42503 6.62243 0 1.01839 2 0 0.016911 1 0 -5e-05
607 1 6.44397 6.61746 0 1.01626 2 0 0.0202929 1 0.000428489 0.00142089
657 1 5.90614 7.5162 0 1.02523 2 0 0.0210921 1 -0.00028265 -0.000448588
608 1 7.48641 6.5972 0 1.01581 2 0 0.02368 1 -0.00264158 -0.00457199
609 1 7.99024 7.45739 0 1.00447 2 0 0.028583 1 0.00316001 0.00534517
658 1 6.97794 7.4603 0 1.00499 2 0 0.0249729 1 0.000658407 0.000775531
559 1 8.49572 6.59445 0 1.01669 2 0 0.026925 1 -0.0015407 0.00257746
610 1 9.50063 6.59291 0 1.00382 2 0 0.0301234 1 0.00134707 -0.000624074
661 1 9.00158 7.4556 0 1.00906 2 0 0.032158 1 0.00102473 0.00155324
612 1 10.0013 7.45744 0 1.00002 2 0 0.0356966 1 -0.00421601 0.00396808
611 1 10.5012 6.59343 0 1.00368 2 0 0.0332585 1 -0.00140245 -0.00116683
564 1 11.4995 6.59417 0 1.01095 2 0 0.0362938 1 -0.000997771 -0.00105797
613 1 10.9991 7.46077 0 1.00877 2 0 0.0391951 1 0.00242975 -0.00440669
614 1 12.4977 6.59324 0 1.01882 2 0 0.0392374 1 0.00364065 0.00141502
665 1 12.9972 7.45987 0 1.00809 2 0 0.0459349 1 0.00207989 -0.00566581
664 1 11.9989 7.45913 0 1.0022 2 0 0.0426104 1 -0.00472189 -0.000191618
615 1 13.5012 6.59451 0 1.00601 2 0 0.0420816 1 -0.00474772 -0.000290399
616 1 14.5002 6.59301 0 1.00878 2 0 0.0447785 1 0.00126086 -0.00217011
666 1 14.0007 7.45898 0 0.997531 2 0 0.0491296 1 -0.00285673 0.00128616
667 1 14.9991 7.45651 0 1.00922 2 0 0.0522085 1 0.00387094 0.00625258
617 1 15.5017 6.59361 0 1.01132 2 0 0.0473642 1 -0.000829183 -0.00477281
668 1 16.0011 7.45782 0 1.01232 2 0 0.0551718 1 0.00271683 0.00139257
619 1 16.5019 6.59334 0 1.00791 2 0 0.0498463 1 -0.00481774 0.00330123
669 1 17.5004 6.59361 0 1.0115 2 0 0.052178 1 0.00236821 0.00106151
719 1 17.0025 7.45942 0 1.0104 2 0 0.0580068 1 -0.00104237 -0.000676949
720 1 18.0026 7.45714 0 1.00384 2 0 0.0606892 1 0.00123756 -0.000893403
620 1 18.5039 6.59327 0 1.00047 2 0 0.0543602 1 0.000835679 -0.00242826
621 1 19.5095 6.59002 0 1.01086 2 0 0.0564093 1 -0.00148784 -0.0040409
670 1 19.0107 7.4533 0 1.01205 2 0 0.0632445 1 0.00513868 -0.00565182
671 1 20.0124 7.45167 0 1.01101 2 0 0.065676 1 0.00496233 -0.000626749
622 1 20.5103 6.58814 0 1.02282 2 0 0.0583743 1 -0.00225129 0.000839797
623 1 21.5129 6.59082 0 1.01715 2 0 0.0602183 1 -0.00022555 -0.00394119
672 1 21.0136 7.45037 0 1.01032 2 0 0.0679656 1 6.95969e-05 0.00540832
673 1 22.0153 7.45913 0 1.00705 2 0 0.070099 1 -0.00178448 -0.00295006
624 1 22.5116 6.59435 0 1.00933 2 0 0.0619119 1 -0.00123989 -0.000117564
674 1 23.014 7.458 0 1.01197 2 0 0.0720956 1 8.49989e-05 0.000815833
625 1 23.5105 6.59258 0 1.01358 2 0 0.0635184 1 -0.00332469 0.000845478
626 1 24.5081 6.59354 0 1.01095 2 0 0.0650388 1 0.00397447 -0.000519674
675 1 24.0122 7.45892 0 1.00974 2 0 0.0740075 1 0.00420135 -0.00197762
676 1 25.012 7.45953 0 1.01754 2 0 0.0757766 1 -0.0084464 -0.00146648
578 1 26.5057 6.59534 0 1.0136 2 0 0.0677795 1 0.00499295 -0.0117986
628 1 26.0104 7.45763 0 1.00647 2 0 0.0774333 1 -0.0082504 0.0101145
627 1 25.5069 6.5948 0 1.0116 2 0 0.0664591 1 0.000626976 -0.00447578
629 1 27.5054 6.59298 0 1.00585 2 0 0.0690202 1 0.00269756 0.0029575
679 1 28.0051 7.45813 0 1.01276 2 0 0.0804421 1 0.00594786 -0.00219495
678 1 27.0066 7.45778 0 1.01987 2 0 0.0789835 1 0.00621254 0.0066401
630 1 28.5068 6.59254 0 1.00031 2 0 0.0702032 1 -0.00461961 0.00335275
631 1 29.5063 6.59238 0 1.01679 2 0 0.071262 1 -0.0046445 0.00124816
680 1 29.0055 7.45649 0 1.0041 2 0 0.081789 1 0.00251235 0.00310601
681 1 30.0053 7.45865 0 1.0067 2 0 0.0830238 1 -0.00149289 -0.00247673
682 1 30.504 6.59452 0 1.0233 2 0 0.0721776 1 0.004271 -0.00265149
633 1 31.5055 6.5928 0 1.00197 2 0 0.0730071 1 -0.0123688 0.00528097
732 1 31.0061 7.45826 0 1.02086 2 0 0.0841061 1 -0.00515187 -0.00353719
683 1 32.0034 7.4582 0 1.00602 2 0 0.0850682 1 0.00441023 0.0011314
684 1 32.5002 6.59357 0 1.01173 2 0 0.0737753 1 0.0119086 -0.00164504
734 1 33.0031 7.45594 0 1.01306 2 0 0.0859609 1 -0.00179191 0.00301165
634 1 33.501 6.59217 0 1.00318 2 0 0.0744948 1 0.00476528 0.00171112
635 1 34.5021 6.59203 0 1.01335 2 0 0.0751734 1 0.000204063 -0.000396724
685 1 34.0019 7.45692 0 1.01182 2 0 0.0867939 1 0.00566248 -0.00340761
686 1 35.0034 7.45764 0 1.01566 2 0 0.0875661 1 -0.00215282 -0.00156245
636 1 35.5022 6.59392 0 1.01343 2 0 0.0757684 1 -0.00356239 -0.00808373
637 1 36.5013 6.59154 0 0.995425 2 0 0.07626 1 -0.00225824 0.00259297