ITEM: TIMESTEP
45000
ITEM: NUMBER OF ATOMS
15950
ITEM: BOX BOUNDS pp pp pp
0.0000000000000000e+00 1.0000000000000000e+02
-5.0000000000000000e+00 2.0000000000000000e+02
-5.0000000000000000e-01 5.0000000000000000e-01
ITEM: ATOMS id type x y z c_rho c_phase c_nbond c_temp f_rheo_chi_chi fx fy
1 2 0 -5 0 1 2 8 4.17899e-08 1 0 0
2 2 1 -5 0 1 2 8 5.36913e-08 1 0 0
51 2 0 -4 0 1 2 8 1.72309e-07 1 0 0
52 2 1 -4 0 1 2 8 2.25237e-07 1 0 0
3 2 2 -5 0 1 2 8 9.2847e-08 1 0 0
4 2 3 -5 0 1 2 8 1.63311e-07 1 0 0
53 2 2 -4 0 1 2 8 4.00478e-07 1 0 0
54 2 3 -4 0 1 2 8 7.16531e-07 1 0 0
5 2 4 -5 0 1 2 7 2.73856e-07 1 0 0
55 2 4 -4 0 1 2 8 1.18417e-06 1 0 0
6 2 5 -5 0 1 2 6 4.39362e-07 1 0 0
7 2 6 -5 0 1 2 5 6.22649e-07 1 0 0
56 2 5 -4 0 1 2 8 1.78762e-06 1 0 0
57 2 6 -4 0 1 2 8 2.4647e-06 1 0 0
8 2 7 -5 0 1 2 5 7.93582e-07 1 0 0
9 2 8 -5 0 1 2 5 9.48336e-07 1 0 0
58 2 7 -4 0 1 2 8 3.14331e-06 1 0 0
59 2 8 -4 0 1 2 8 3.7645e-06 1 0 0
10 2 9 -5 0 1 2 5 1.07976e-06 1 0 0
60 2 9 -4 0 1 2 8 4.29347e-06 1 0 0
11 2 10 -5 0 1 2 5 1.18637e-06 1 0 0
12 2 11 -5 0 1 2 5 1.27176e-06 1 0 0
61 2 10 -4 0 1 2 8 4.72421e-06 1 0 0
62 2 11 -4 0 1 2 8 5.07142e-06 1 0 0
13 2 12 -5 0 1 2 5 1.34117e-06 1 0 0
14 2 13 -5 0 1 2 5 1.39831e-06 1 0 0
63 2 12 -4 0 1 2 8 5.35597e-06 1 0 0
64 2 13 -4 0 1 2 8 5.59194e-06 1 0 0
15 2 14 -5 0 1 2 5 1.44439e-06 1 0 0
65 2 14 -4 0 1 2 8 5.78271e-06 1 0 0
16 2 15 -5 0 1 2 5 1.47969e-06 1 0 0
17 2 16 -5 0 1 2 5 1.5056e-06 1 0 0
66 2 15 -4 0 1 2 8 5.92855e-06 1 0 0
67 2 16 -4 0 1 2 8 6.03586e-06 1 0 0
18 2 17 -5 0 1 2 5 1.52455e-06 1 0 0
19 2 18 -5 0 1 2 5 1.53775e-06 1 0 0
68 2 17 -4 0 1 2 8 6.11623e-06 1 0 0
69 2 18 -4 0 1 2 8 6.17584e-06 1 0 0
20 2 19 -5 0 1 2 5 1.54375e-06 1 0 0
70 2 19 -4 0 1 2 8 6.20833e-06 1 0 0
21 2 20 -5 0 1 2 5 1.53975e-06 1 0 0
22 2 21 -5 0 1 2 5 1.52474e-06 1 0 0
71 2 20 -4 0 1 2 8 6.20076e-06 1 0 0
72 2 21 -4 0 1 2 8 6.1475e-06 1 0 0
23 2 22 -5 0 1 2 5 1.50192e-06 1 0 0
24 2 23 -5 0 1 2 5 1.47857e-06 1 0 0
73 2 22 -4 0 1 2 8 6.06063e-06 1 0 0
74 2 23 -4 0 1 2 8 5.9696e-06 1 0 0
25 2 24 -5 0 1 2 5 1.46345e-06 1 0 0
75 2 24 -4 0 1 2 8 5.91058e-06 1 0 0
26 2 25 -5 0 1 2 5 1.46289e-06 1 0 0
27 2 26 -5 0 1 2 5 1.47794e-06 1 0 0
76 2 25 -4 0 1 2 8 5.91022e-06 1 0 0
77 2 26 -4 0 1 2 8 5.97278e-06 1 0 0
28 2 27 -5 0 1 2 5 1.50436e-06 1 0 0
29 2 28 -5 0 1 2 5 1.53557e-06 1 0 0
78 2 27 -4 0 1 2 8 6.07986e-06 1 0 0
79 2 28 -4 0 1 2 8 6.20367e-06 1 0 0
30 2 29 -5 0 1 2 5 1.56595e-06 1 0 0
80 2 29 -4 0 1 2 8 6.32192e-06 1 0 0
31 2 30 -5 0 1 2 5 1.59202e-06 1 0 0
32 2 31 -5 0 1 2 5 1.61158e-06 1 0 0
81 2 30 -4 0 1 2 8 6.42234e-06 1 0 0
82 2 31 -4 0 1 2 8 6.49768e-06 1 0 0
33 2 32 -5 0 1 2 5 1.6232e-06 1 0 0
34 2 33 -5 0 1 2 5 1.62684e-06 1 0 0
83 2 32 -4 0 1 2 8 6.54241e-06 1 0 0
84 2 33 -4 0 1 2 8 6.5561e-06 1 0 0
35 2 34 -5 0 1 2 5 1.62447e-06 1 0 0
85 2 34 -4 0 1 2 8 6.5467e-06 1 0 0
36 2 35 -5 0 1 2 5 1.61888e-06 1 0 0
37 2 36 -5 0 1 2 5 1.61153e-06 1 0 0
86 2 35 -4 0 1 2 8 6.52598e-06 1 0 0
87 2 36 -4 0 1 2 8 6.49988e-06 1 0 0
38 2 37 -5 0 1 2 5 1.60147e-06 1 0 0
39 2 38 -5 0 1 2 5 1.58647e-06 1 0 0
88 2 37 -4 0 1 2 8 6.46368e-06 1 0 0
89 2 38 -4 0 1 2 8 6.40683e-06 1 0 0
40 2 39 -5 0 1 2 5 1.56555e-06 1 0 0
90 2 39 -4 0 1 2 8 6.32393e-06 1 0 0
41 2 40 -5 0 1 2 5 1.54113e-06 1 0 0
42 2 41 -5 0 1 2 5 1.5192e-06 1 0 0
91 2 40 -4 0 1 2 8 6.22414e-06 1 0 0
92 2 41 -4 0 1 2 8 6.13251e-06 1 0 0
43 2 42 -5 0 1 2 5 1.50682e-06 1 0 0
44 2 43 -5 0 1 2 5 1.50791e-06 1 0 0
93 2 42 -4 0 1 2 8 6.0796e-06 1 0 0
94 2 43 -4 0 1 2 8 6.08318e-06 1 0 0
45 2 44 -5 0 1 2 5 1.52009e-06 1 0 0
95 2 44 -4 0 1 2 8 6.13403e-06 1 0 0
46 2 45 -5 0 1 2 5 1.53545e-06 1 0 0
47 2 46 -5 0 1 2 5 1.54521e-06 1 0 0
96 2 45 -4 0 1 2 8 6.19845e-06 1 0 0
97 2 46 -4 0 1 2 8 6.23885e-06 1 0 0
48 2 47 -5 0 1 2 5 1.54534e-06 1 0 0
49 2 48 -5 0 1 2 5 1.53873e-06 1 0 0
98 2 47 -4 0 1 2 8 6.23802e-06 1 0 0
99 2 48 -4 0 1 2 8 6.20874e-06 1 0 0
50 2 49 -5 0 1 2 5 1.53259e-06 1 0 0
100 2 49 -4 0 1 2 8 6.18222e-06 1 0 0
101 2 0 -3 0 1 2 8 6.53828e-07 1 0 0
102 2 1 -3 0 1 2 8 8.70965e-07 1 0 0
151 2 0 -2 0 1 2 8 2.2654e-06 1 0 0
152 2 1 -2 0 1 2 8 3.07914e-06 1 0 0
103 2 2 -3 0 1 2 8 1.59641e-06 1 0 0
104 2 3 -3 0 1 2 8 2.92223e-06 1 0 0
153 2 2 -2 0 1 2 8 5.82646e-06 1 0 0
154 2 3 -2 0 1 2 8 1.09318e-05 1 0 0
105 2 4 -3 0 1 2 8 4.89798e-06 1 0 0
155 2 4 -2 0 1 2 8 1.86546e-05 1 0 0
106 2 5 -3 0 1 2 8 7.43852e-06 1 0 0
107 2 6 -3 0 1 2 8 1.03077e-05 1 0 0
156 2 5 -2 0 1 2 8 2.86792e-05 1 0 0
157 2 6 -2 0 1 2 8 4.00403e-05 1 0 0
108 2 7 -3 0 1 2 8 1.31977e-05 1 0 0
109 2 8 -3 0 1 2 8 1.58437e-05 1 0 0
158 2 7 -2 0 1 2 8 5.14798e-05 1 0 0
159 2 8 -2 0 1 2 8 6.19414e-05 1 0 0
110 2 9 -3 0 1 2 8 1.80976e-05 1 0 0
160 2 9 -2 0 1 2 8 7.08611e-05 1 0 0
111 2 10 -3 0 1 2 8 1.99382e-05 1 0 0
112 2 11 -3 0 1 2 8 2.14311e-05 1 0 0
161 2 10 -2 0 1 2 8 7.81769e-05 1 0 0
162 2 11 -2 0 1 2 8 8.41586e-05 1 0 0
113 2 12 -3 0 1 2 8 2.26661e-05 1 0 0
114 2 13 -3 0 1 2 8 2.36996e-05 1 0 0
163 2 12 -2 0 1 2 8 8.91599e-05 1 0 0
164 2 13 -2 0 1 2 8 9.33883e-05 1 0 0
115 2 14 -3 0 1 2 8 2.45384e-05 1 0 0
165 2 14 -2 0 1 2 8 9.68391e-05 1 0 0
116 2 15 -3 0 1 2 8 2.51782e-05 1 0 0
117 2 16 -3 0 1 2 8 2.56494e-05 1 0 0
166 2 15 -2 0 1 2 8 9.94685e-05 1 0 0
167 2 16 -2 0 1 2 8 0.00010141 1 0 0
118 2 17 -3 0 1 2 8 2.60112e-05 1 0 0
119 2 18 -3 0 1 2 8 2.62961e-05 1 0 0
168 2 17 -2 0 1 2 8 0.000102941 1 0 0
169 2 18 -2 0 1 2 8 0.000104216 1 0 0
120 2 19 -3 0 1 2 8 2.64741e-05 1 0 0
170 2 19 -2 0 1 2 8 0.000105102 1 0 0
121 2 20 -3 0 1 2 8 2.64812e-05 1 0 0
122 2 21 -3 0 1 2 8 2.62859e-05 1 0 0
171 2 20 -2 0 1 2 8 0.00010531 1 0 0
172 2 21 -2 0 1 2 8 0.000104689 1 0 0
123 2 22 -3 0 1 2 8 2.59365e-05 1 0 0
124 2 23 -3 0 1 2 8 2.55598e-05 1 0 0
173 2 22 -2 0 1 2 8 0.000103417 1 0 0
174 2 23 -2 0 1 2 8 0.000101997 1 0 0
125 2 24 -3 0 1 2 8 2.53152e-05 1 0 0
175 2 24 -2 0 1 2 8 0.000101075 1 0 0
126 2 25 -3 0 1 2 8 2.53229e-05 1 0 0
127 2 26 -3 0 1 2 8 2.56014e-05 1 0 0
176 2 25 -2 0 1 2 8 0.000101155 1 0 0
177 2 26 -2 0 1 2 8 0.000102313 1 0 0
128 2 27 -3 0 1 2 8 2.6065e-05 1 0 0
129 2 28 -3 0 1 2 8 2.65873e-05 1 0 0
178 2 27 -2 0 1 2 8 0.00010418 1 0 0
179 2 28 -2 0 1 2 8 0.000106221 1 0 0
130 2 29 -3 0 1 2 8 2.70747e-05 1 0 0
180 2 29 -2 0 1 2 8 0.000108074 1 0 0
131 2 30 -3 0 1 2 8 2.74841e-05 1 0 0
132 2 31 -3 0 1 2 8 2.77925e-05 1 0 0
181 2 30 -2 0 1 2 8 0.000109616 1 0 0
182 2 31 -2 0 1 2 8 0.000110787 1 0 0
133 2 32 -3 0 1 2 8 2.79763e-05 1 0 0
134 2 33 -3 0 1 2 8 2.80307e-05 1 0 0
183 2 32 -2 0 1 2 8 0.000111494 1 0 0
184 2 33 -2 0 1 2 8 0.000111701 1 0 0
135 2 34 -3 0 1 2 8 2.79904e-05 1 0 0
185 2 34 -2 0 1 2 8 0.000111546 1 0 0
136 2 35 -3 0 1 2 8 2.79094e-05 1 0 0
137 2 36 -3 0 1 2 8 2.78143e-05 1 0 0
186 2 35 -2 0 1 2 8 0.00011126 1 0 0
187 2 36 -2 0 1 2 8 0.000110955 1 0 0
138 2 37 -3 0 1 2 8 2.76806e-05 1 0 0
139 2 38 -3 0 1 2 8 2.74558e-05 1 0 0
188 2 37 -2 0 1 2 8 0.000110518 1 0 0
189 2 38 -2 0 1 2 8 0.000109709 1 0 0
140 2 39 -3 0 1 2 8 2.71095e-05 1 0 0
190 2 39 -2 0 1 2 8 0.000108381 1 0 0
141 2 40 -3 0 1 2 8 2.66776e-05 1 0 0
142 2 41 -3 0 1 2 8 2.6271e-05 1 0 0
191 2 40 -2 0 1 2 8 0.000106659 1 0 0
192 2 41 -2 0 1 2 8 0.000104994 1 0 0
143 2 42 -3 0 1 2 8 2.60312e-05 1 0 0
144 2 43 -3 0 1 2 8 2.60444e-05 1 0 0
193 2 42 -2 0 1 2 8 0.00010399 1 0 0
194 2 43 -2 0 1 2 8 0.000104032 1 0 0
145 2 44 -3 0 1 2 8 2.62725e-05 1 0 0
195 2 44 -2 0 1 2 8 0.000104978 1 0 0
146 2 45 -3 0 1 2 8 2.65621e-05 1 0 0
147 2 46 -3 0 1 2 8 2.67399e-05 1 0 0
196 2 45 -2 0 1 2 8 0.000106179 1 0 0
197 2 46 -2 0 1 2 8 0.000106898 1 0 0
148 2 47 -3 0 1 2 8 2.67275e-05 1 0 0
149 2 48 -3 0 1 2 8 2.65862e-05 1 0 0
198 2 47 -2 0 1 2 8 0.000106808 1 0 0
199 2 48 -2 0 1 2 8 0.000106178 1 0 0
150 2 49 -3 0 1 2 8 2.6461e-05 1 0 0
200 2 49 -2 0 1 2 8 0.000105631 1 0 0
201 2 0 -1 0 1 2 8 7.1082e-06 1 0 0
202 2 1 -1 0 1 2 8 9.86477e-06 1 0 0
203 2 2 -1 0 1 2 8 1.92786e-05 1 0 0
204 2 3 -1 0 1 2 8 3.70986e-05 1 0 0
205 2 4 -1 0 1 2 8 6.45114e-05 1 0 0
206 2 5 -1 0 1 2 8 0.000100459 1 0 0
207 2 6 -1 0 1 2 8 0.00014131 1 0 0
208 2 7 -1 0 1 2 8 0.000182371 1 0 0
209 2 8 -1 0 1 2 8 0.000219869 1 0 0
210 2 9 -1 0 1 2 8 0.000251911 1 0 0
211 2 10 -1 0 1 2 8 0.000278366 1 0 0
212 2 11 -1 0 1 2 8 0.000300221 1 0 0
213 2 12 -1 0 1 2 8 0.00031872 1 0 0
214 2 13 -1 0 1 2 8 0.000334544 1 0 0
215 2 14 -1 0 1 2 8 0.000347552 1 0 0
216 2 15 -1 0 1 2 8 0.000357481 1 0 0
217 2 16 -1 0 1 2 8 0.000364859 1 0 0
218 2 17 -1 0 1 2 8 0.000370843 1 0 0
219 2 18 -1 0 1 2 8 0.000376086 1 0 0
220 2 19 -1 0 1 2 8 0.000380046 1 0 0
221 2 20 -1 0 1 2 8 0.00038156 1 0 0
222 2 21 -1 0 1 2 8 0.00038001 1 0 0
223 2 22 -1 0 1 2 8 0.000375998 1 0 0
224 2 23 -1 0 1 2 8 0.000371294 1 0 0
225 2 24 -1 0 1 2 8 0.000368257 1 0 0
226 2 25 -1 0 1 2 8 0.000368785 1 0 0
227 2 26 -1 0 1 2 8 0.000373191 1 0 0
228 2 27 -1 0 1 2 8 0.000380026 1 0 0
229 2 28 -1 0 1 2 8 0.000387248 1 0 0
230 2 29 -1 0 1 2 8 0.000393599 1 0 0
231 2 30 -1 0 1 2 8 0.000398829 1 0 0
232 2 31 -1 0 1 2 8 0.000402879 1 0 0
233 2 32 -1 0 1 2 8 0.000405385 1 0 0
234 2 33 -1 0 1 2 8 0.000406131 1 0 0
235 2 34 -1 0 1 2 8 0.000405619 1 0 0
236 2 35 -1 0 1 2 8 0.000404749 1 0 0
237 2 36 -1 0 1 2 8 0.000403948 1 0 0
238 2 37 -1 0 1 2 8 0.000402744 1 0 0
239 2 38 -1 0 1 2 8 0.000400184 1 0 0
240 2 39 -1 0 1 2 8 0.000395636 1 0 0
241 2 40 -1 0 1 2 8 0.000389481 1 0 0
242 2 41 -1 0 1 2 8 0.00038336 1 0 0
243 2 42 -1 0 1 2 8 0.000379575 1 0 0
244 2 43 -1 0 1 2 8 0.000379684 1 0 0
245 2 44 -1 0 1 2 8 0.000383208 1 0 0
246 2 45 -1 0 1 2 8 0.000387685 1 0 0
247 2 46 -1 0 1 2 8 0.000390292 1 0 0
248 2 47 -1 0 1 2 8 0.000389795 1 0 0
249 2 48 -1 0 1 2 8 0.000387269 1 0 0
250 2 49 -1 0 1 2 8 0.00038512 1 0 0
251 2 0 0 0 1 2 8 2.00312e-05 1 0 0
252 2 1 0 0 1 2 8 2.83773e-05 1 0 0
301 2 0 1 0 1 2 8 5.03217e-05 1 0 0
302 2 1 1 0 1 2 8 7.26567e-05 1 0 0
253 2 2 0 0 1 2 8 5.72129e-05 1 0 0
254 2 3 0 0 1 2 8 0.000112871 1 0 0
303 2 2 1 0 1 2 8 0.000150597 1 0 0
304 2 3 1 0 1 2 8 0.000303801 1 0 0
255 2 4 0 0 1 2 8 0.000200062 1 0 0
305 2 4 1 0 1 2 8 0.000548365 1 0 0
256 2 5 0 0 1 2 8 0.000315629 1 0 0
257 2 6 0 0 1 2 8 0.000447102 1 0 0
306 2 5 1 0 1 2 8 0.000876263 1 0 0
307 2 6 1 0 1 2 8 0.00124858 1 0 0
258 2 7 0 0 1 2 8 0.00057873 1 0 0
259 2 8 0 0 1 2 8 0.000698723 1 0 0
308 2 7 1 0 1 2 8 0.00161826 1 0 0
309 2 8 1 0 1 2 8 0.00195453 1 0 0
260 2 9 0 0 1 2 8 0.000801689 1 0 0
310 2 9 1 0 1 2 8 0.00224524 1 0 0
261 2 10 0 0 1 2 8 0.000887541 1 0 0
262 2 11 0 0 1 2 8 0.000959392 1 0 0
311 2 10 1 0 1 2 8 0.00249103 1 0 0
312 2 11 1 0 1 2 8 0.00270015 1 0 0
263 2 12 0 0 1 2 8 0.00102107 1 0 0
264 2 13 0 0 1 2 8 0.00107453 1 0 0
313 2 12 1 0 1 2 8 0.0028825 1 0 0
314 2 13 1 0 1 2 8 0.00304289 1 0 0
265 2 14 0 0 1 2 8 0.0011189 1 0 0
315 2 14 1 0 1 2 8 0.00317784 1 0 0
266 2 15 0 0 1 2 8 0.00115299 1 0 0
267 2 16 0 0 1 2 8 0.00117862 1 0 0
316 2 15 1 0 1 2 8 0.00328287 1 0 0
317 2 16 1 0 1 2 8 0.00336346 1 0 0
268 2 17 0 0 1 2 8 0.00120005 1 0 0
269 2 18 0 0 1 2 8 0.00121964 1 0 0
318 2 17 1 0 1 2 8 0.00343296 1 0 0
319 2 18 1 0 1 2 8 0.00349857 1 0 0
270 2 19 0 0 1 2 8 0.0012354 1 0 0
320 2 19 1 0 1 2 8 0.00355377 1 0 0
271 2 20 0 0 1 2 8 0.00124323 1 0 0
272 2 21 0 0 1 2 8 0.00124104 1 0 0
321 2 20 1 0 1 2 8 0.00358626 1 0 0
322 2 21 1 0 1 2 8 0.00359034 1 0 0
273 2 22 0 0 1 2 8 0.00123066 1 0 0
274 2 23 0 0 1 2 8 0.00121753 1 0 0
323 2 22 1 0 1 2 8 0.00357118 1 0 0
324 2 23 1 0 1 2 8 0.00354277 1 0 0
275 2 24 0 0 1 2 8 0.00120917 1 0 0
325 2 24 1 0 1 2 8 0.00352541 1 0 0
276 2 25 0 0 1 2 8 0.00121197 1 0 0
277 2 26 0 0 1 2 8 0.0012271 1 0 0
326 2 25 1 0 1 2 8 0.00353786 1 0 0
327 2 26 1 0 1 2 8 0.00358404 1 0 0
278 2 27 0 0 1 2 8 0.00124956 1 0 0
279 2 28 0 0 1 2 8 0.00127239 1 0 0
328 2 27 1 0 1 2 8 0.00364931 1 0 0
329 2 28 1 0 1 2 8 0.00371285 1 0 0
280 2 29 0 0 1 2 8 0.00129173 1 0 0
330 2 29 1 0 1 2 8 0.00376451 1 0 0
281 2 30 0 0 1 2 8 0.00130755 1 0 0
282 2 31 0 0 1 2 8 0.00132017 1 0 0
331 2 30 1 0 1 2 8 0.0038067 1 0 0
332 2 31 1 0 1 2 8 0.003842 1 0 0
283 2 32 0 0 1 2 8 0.00132831 1 0 0
284 2 33 0 0 1 2 8 0.00133091 1 0 0
333 2 32 1 0 1 2 8 0.00386613 1 0 0
334 2 33 1 0 1 2 8 0.00387482 1 0 0
285 2 34 0 0 1 2 8 0.00132955 1 0 0
335 2 34 1 0 1 2 8 0.00387243 1 0 0
286 2 35 0 0 1 2 8 0.0013274 1 0 0
287 2 36 0 0 1 2 8 0.00132591 1 0 0
336 2 35 1 0 1 2 8 0.00386883 1 0 0
337 2 36 1 0 1 2 8 0.00386828 1 0 0
288 2 37 0 0 1 2 8 0.00132337 1 0 0
289 2 38 0 0 1 2 8 0.00131644 1 0 0
338 2 37 1 0 1 2 8 0.0038653 1 0 0
339 2 38 1 0 1 2 8 0.00385011 1 0 0
290 2 39 0 0 1 2 8 0.00130286 1 0 0
340 2 39 1 0 1 2 8 0.00381593 1 0 0
291 2 40 0 0 1 2 8 0.00128357 1 0 0
292 2 41 0 0 1 2 8 0.00126374 1 0 0
341 2 40 1 0 1 2 8 0.00376447 1 0 0
342 2 41 1 0 1 2 8 0.00370948 1 0 0
293 2 42 0 0 1 2 8 0.00125116 1 0 0
294 2 43 0 0 1 2 8 0.00125135 1 0 0
343 2 42 1 0 1 2 8 0.00367357 1 0 0
344 2 43 1 0 1 2 8 0.00367376 1 0 0
295 2 44 0 0 1 2 8 0.00126296 1 0 0
345 2 44 1 0 1 2 8 0.00370677 1 0 0
296 2 45 0 0 1 2 8 0.00127769 1 0 0
297 2 46 0 0 1 2 8 0.00128597 1 0 0
346 2 45 1 0 1 2 8 0.00374852 1 0 0
347 2 46 1 0 1 2 8 0.003771 1 0 0
298 2 47 0 0 1 2 8 0.00128376 1 0 0
299 2 48 0 0 1 2 8 0.00127484 1 0 0
348 2 47 1 0 1 2 8 0.00376297 1 0 0
349 2 48 1 0 1 2 8 0.00373603 1 0 0
300 2 49 0 0 1 2 8 0.00126741 1 0 0
350 2 49 1 0 1 2 8 0.003714 1 0 0
351 2 0 2 0 1 2 8 0.0001121 1 0 0
352 2 1 2 0 1 2 8 0.000164479 1 0 0
401 2 0 3 0 1 2 8 0.000221053 1 0 0
402 2 1 3 0 1 2 8 0.000328468 1 0 0
353 2 2 2 0 1 2 8 0.000348182 1 0 0
354 2 3 2 0 1 2 8 0.000713364 1 0 0
403 2 2 3 0 1 2 8 0.000703903 1 0 0
404 2 3 3 0 1 2 8 0.00144601 1 0 0
355 2 4 2 0 1 2 8 0.00130624 1 0 0
405 2 4 3 0 1 2 8 0.00265032 1 0 0
356 2 5 2 0 1 2 8 0.00211248 1 0 0
357 2 6 2 0 1 2 8 0.00302048 1 0 0
406 2 5 3 0 1 2 8 0.00434256 1 0 0
407 2 6 3 0 1 2 8 0.00621295 1 0 0
358 2 7 2 0 1 2 8 0.00390669 1 0 0
359 2 8 2 0 1 2 8 0.00471116 1 0 0
408 2 7 3 0 1 2 8 0.00795715 1 0 0
409 2 8 3 0 1 2 8 0.0095476 1 0 0
360 2 9 2 0 1 2 8 0.00541566 1 0 0
410 2 9 3 0 1 2 8 0.0109726 1 0 0
361 2 10 2 0 1 2 8 0.00602286 1 0 0
362 2 11 2 0 1 2 8 0.00655023 1 0 0
411 2 10 3 0 1 2 8 0.012231 1 0 0
412 2 11 3 0 1 2 8 0.0133529 1 0 0
363 2 12 2 0 1 2 8 0.00701837 1 0 0
364 2 13 2 0 1 2 8 0.00743677 1 0 0
413 2 12 3 0 1 2 8 0.0143701 1 0 0
414 2 13 3 0 1 2 8 0.0152943 1 0 0
365 2 14 2 0 1 2 8 0.00779527 1 0 0
415 2 14 3 0 1 2 8 0.0161072 1 0 0
366 2 15 2 0 1 2 8 0.00808072 1 0 0
367 2 16 2 0 1 2 8 0.00830661 1 0 0
416 2 15 3 0 1 2 8 0.0167768 1 0 0
417 2 16 3 0 1 2 8 0.0173294 1 0 0
368 2 17 2 0 1 2 8 0.00850759 1 0 0
369 2 18 2 0 1 2 8 0.00870106 1 0 0
418 2 17 3 0 1 2 8 0.0178369 1 0 0
419 2 18 3 0 1 2 8 0.0183299 1 0 0
370 2 19 2 0 1 2 8 0.00886862 1 0 0
420 2 19 3 0 1 2 8 0.0187644 1 0 0
371 2 20 2 0 1 2 8 0.00897963 1 0 0
372 2 21 2 0 1 2 8 0.00902334 1 0 0
421 2 20 3 0 1 2 8 0.0190779 1 0 0
422 2 21 3 0 1 2 8 0.0192638 1 0 0
373 2 22 2 0 1 2 8 0.00901304 1 0 0
374 2 23 2 0 1 2 8 0.00897673 1 0 0
423 2 22 3 0 1 2 8 0.0193563 1 0 0
424 2 23 3 0 1 2 8 0.0193875 1 0 0
375 2 24 2 0 1 2 8 0.00895879 1 0 0
425 2 24 3 0 1 2 8 0.0194295 1 0 0
376 2 25 2 0 1 2 8 0.00900567 1 0 0
377 2 26 2 0 1 2 8 0.00912906 1 0 0
426 2 25 3 0 1 2 8 0.0195806 1 0 0
427 2 26 3 0 1 2 8 0.0198639 1 0 0
378 2 27 2 0 1 2 8 0.00929374 1 0 0
379 2 28 2 0 1 2 8 0.00944717 1 0 0
428 2 27 3 0 1 2 8 0.0202223 1 0 0
429 2 28 3 0 1 2 8 0.0205423 1 0 0
380 2 29 2 0 1 2 8 0.00956683 1 0 0
430 2 29 3 0 1 2 8 0.0207812 1 0 0
381 2 30 2 0 1 2 8 0.00966573 1 0 0
382 2 31 2 0 1 2 8 0.009754 1 0 0
431 2 30 3 0 1 2 8 0.0209881 1 0 0
432 2 31 3 0 1 2 8 0.0211878 1 0 0
383 2 32 2 0 1 2 8 0.00981919 1 0 0
384 2 33 2 0 1 2 8 0.00984681 1 0 0
433 2 32 3 0 1 2 8 0.0213495 1 0 0
434 2 33 3 0 1 2 8 0.0214315 1 0 0
385 2 34 2 0 1 2 8 0.00984696 1 0 0
435 2 34 3 0 1 2 8 0.0214504 1 0 0
386 2 35 2 0 1 2 8 0.00984667 1 0 0
387 2 36 2 0 1 2 8 0.00985663 1 0 0
436 2 35 3 0 1 2 8 0.0214765 1 0 0
437 2 36 3 0 1 2 8 0.0215307 1 0 0
388 2 37 2 0 1 2 8 0.00986134 1 0 0
389 2 38 2 0 1 2 8 0.00983722 1 0 0
438 2 37 3 0 1 2 8 0.0215715 1 0 0
439 2 38 3 0 1 2 8 0.0215547 1 0 0
390 2 39 2 0 1 2 8 0.00976904 1 0 0
440 2 39 3 0 1 2 8 0.0214613 1 0 0
391 2 40 2 0 1 2 8 0.00965801 1 0 0
392 2 41 2 0 1 2 8 0.00953271 1 0 0
441 2 40 3 0 1 2 8 0.0212877 1 0 0
442 2 41 3 0 1 2 8 0.0210659 1 0 0
393 2 42 2 0 1 2 8 0.00944826 1 0 0
394 2 43 2 0 1 2 8 0.00944851 1 0 0
443 2 42 3 0 1 2 8 0.0209118 1 0 0
444 2 43 3 0 1 2 8 0.0209158 1 0 0
395 2 44 2 0 1 2 8 0.00952743 1 0 0
445 2 44 3 0 1 2 8 0.021071 1 0 0
396 2 45 2 0 1 2 8 0.00962647 1 0 0
397 2 46 2 0 1 2 8 0.00967697 1 0 0
446 2 45 3 0 1 2 8 0.0212643 1 0 0
447 2 46 3 0 1 2 8 0.0213553 1 0 0
398 2 47 2 0 1 2 8 0.00965382 1 0 0
399 2 48 2 0 1 2 8 0.00958696 1 0 0
448 2 47 3 0 1 2 8 0.0213043 1 0 0
449 2 48 3 0 1 2 8 0.021178 1 0 0
400 2 49 2 0 1 2 8 0.00953338 1 0 0
450 2 49 3 0 1 2 8 0.0210742 1 0 0
451 2 0 4 0 1 2 8 0.000386976 1 0 0
452 2 1 4 0 1 2 8 0.000580725 1 0 0
453 2 2 4 0 1 2 8 0.0012515 1 0 0
454 2 3 4 0 1 2 8 0.00253999 1 0 0
455 2 4 4 0 1 2 7 0.004488 1 0 0
456 2 5 4 0 1 2 6 0.00747339 1 0 0
457 2 6 4 0 1 2 5 0.0104796 1 0 0
506 1 5.4927 4.86845 0 1.0006 2 0 0.0120872 1 0.00151145 0.00261412
507 1 6.49295 4.86753 0 1.02569 2 0 0.0148615 1 -3.97995e-05 -5.93671e-05
458 2 7 4 0 1 2 5 0.0130797 1 0 0
459 2 8 4 0 1 2 5 0.015537 1 0 0
508 1 7.49315 4.86705 0 1.03193 2 0 0.0176757 1 0.000322713 -0.00112381
460 2 9 4 0 1 2 5 0.017805 1 0 0
510 1 8.49735 4.86448 0 1.01036 2 0 0.0203802 1 0.00166831 -0.000404495
511 1 9.4979 4.86423 0 1.00136 2 0 0.022911 1 -0.00018811 -0.00192626
461 2 10 4 0 1 2 5 0.0198678 1 0 0
462 2 11 4 0 1 2 5 0.021775 1 0 0
512 1 10.4993 4.86365 0 1.01573 2 0 0.0253345 1 -0.00203653 -0.00130725
513 1 11.4995 4.86325 0 1.01534 2 0 0.0276488 1 -0.00551341 -0.00171657
463 2 12 4 0 1 2 5 0.0235452 1 0 0
464 2 13 4 0 1 2 5 0.025178 1 0 0
514 1 12.4982 4.86319 0 1.01802 2 0 0.0298201 1 -0.00125731 -0.00230242
465 2 14 4 0 1 2 5 0.0266608 1 0 0
515 1 13.4969 4.86308 0 1.02031 2 0 0.0318566 1 0.000405063 -0.00341973
516 1 14.4974 4.86148 0 1.0096 2 0 0.0337409 1 -0.00398795 0.00175382
466 2 15 4 0 1 2 5 0.0279411 1 0 0
467 2 16 4 0 1 2 5 0.0290537 1 0 0
518 1 16.4959 4.86076 0 1.02515 2 0 0.0370825 1 7.90446e-06 -0.00043989
517 1 15.4968 4.86091 0 1.02614 2 0 0.0354637 1 -0.00245326 0.000819773
468 2 17 4 0 1 2 5 0.0301031 1 0 0
469 2 18 4 0 1 2 5 0.031113 1 0 0
519 1 17.4955 4.85928 0 1.0239 2 0 0.038602 1 0.00165852 0.00289859
470 2 19 4 0 1 2 5 0.0320124 1 0 0
520 1 18.497 4.85937 0 1.00577 2 0 0.0399969 1 -0.00107138 0.000427015
521 1 19.4968 4.85907 0 1.00453 2 0 0.0412375 1 0.00165946 0.00163288
471 2 20 4 0 1 2 5 0.032714 1 0 0
472 2 21 4 0 1 2 5 0.0332419 1 0 0
523 1 21.4985 4.85864 0 1.02268 2 0 0.0433306 1 -3.31981e-05 0.0023046
522 1 20.4983 4.85943 0 1.0139 2 0 0.0423266 1 0.000519384 -0.000686207
473 2 22 4 0 1 2 5 0.0336711 1 0 0
474 2 23 4 0 1 2 5 0.0339902 1 0 0
524 1 22.4992 4.8587 0 1.01383 2 0 0.044249 1 0.00112642 0.000250821
475 2 24 4 0 1 2 5 0.0342709 1 0 0
525 1 23.5019 4.86001 0 1.03669 2 0 0.0450736 1 -0.00122039 -0.000681934
526 1 24.5017 4.85945 0 1.04245 2 0 0.0458698 1 -0.000159355 -0.000216963
476 2 25 4 0 1 2 5 0.0346695 1 0 0
477 2 26 4 0 1 2 5 0.0352076 1 0 0
528 1 26.5023 4.85879 0 1.04147 2 0 0.0474833 1 -2.22732e-05 0.00217512
527 1 25.5014 4.85885 0 1.03798 2 0 0.046675 1 0.000556092 0.000704011
478 2 27 4 0 1 2 5 0.0358432 1 0 0
479 2 28 4 0 1 2 5 0.0363955 1 0 0
529 1 27.5022 4.85982 0 1.0019 2 0 0.0482439 1 -0.000109717 -0.000643582
480 2 29 4 0 1 2 5 0.036812 1 0 0
531 1 29.5013 4.86031 0 1.01679 2 0 0.0495634 1 0.000592863 0.000860051
530 1 28.5021 4.86001 0 1.02091 2 0 0.0489368 1 -0.00116485 0.000362478
481 2 30 4 0 1 2 5 0.0371992 1 0 0
482 2 31 4 0 1 2 5 0.0375907 1 0 0
533 1 31.5006 4.86114 0 1.004 2 0 0.0506808 1 0.0025432 -0.00178742
532 1 30.5012 4.86091 0 1.0182 2 0 0.0501426 1 0.000197833 -0.00109621
483 2 32 4 0 1 2 5 0.0379343 1 0 0
484 2 33 4 0 1 2 5 0.038145 1 0 0
534 1 32.5004 4.86163 0 1.00171 2 0 0.0511321 1 0.00190043 -0.000795785
485 2 34 4 0 1 2 5 0.0382329 1 0 0
535 1 33.5011 4.86196 0 1.00275 2 0 0.0514691 1 -0.000656195 -0.00137402
536 1 34.5011 4.86176 0 1.0237 2 0 0.0517436 1 -0.000499065 0.00133044
486 2 35 4 0 1 2 5 0.0383469 1 0 0
487 2 36 4 0 1 2 5 0.0385168 1 0 0
538 1 36.5018 4.86239 0 1.01227 2 0 0.0523094 1 -0.00119809 -0.00115037
537 1 35.5015 4.86175 0 1.0067 2 0 0.0520343 1 -0.000238223 0.00092254
488 2 37 4 0 1 2 5 0.03865 1 0 0
489 2 38 4 0 1 2 5 0.0386917 1 0 0
539 1 37.5017 4.86256 0 1.00174 2 0 0.0525069 1 -0.0041349 -0.00148959
490 2 39 4 0 1 2 5 0.0386473 1 0 0
541 1 39.5015 4.86272 0 1.00168 2 0 0.0527007 1 -0.000931419 -0.00141323
540 1 38.5007 4.86216 0 1.01715 2 0 0.0526381 1 0.00235452 0.000732185
491 2 40 4 0 1 2 5 0.0385035 1 0 0
492 2 41 4 0 1 2 5 0.0382483 1 0 0
542 1 40.5016 4.86203 0 1.01016 2 0 0.0527097 1 -0.00206256 0.00180096
543 1 41.501 4.86229 0 1.03252 2 0 0.0527225 1 0.00275202 -0.000368085
493 2 42 4 0 1 2 5 0.0380736 1 0 0
494 2 43 4 0 1 2 5 0.0381063 1 0 0
544 1 42.5014 4.86252 0 1.0319 2 0 0.0528127 1 -0.000377168 -0.000709609
495 2 44 4 0 1 2 5 0.0383357 1 0 0
545 1 43.5013 4.86265 0 1.03659 2 0 0.0529601 1 0.000464328 -0.000632562
546 1 44.5018 4.86281 0 1.01001 2 0 0.0531342 1 -0.000939658 -0.000785945
496 2 45 4 0 1 2 5 0.0386196 1 0 0
497 2 46 4 0 1 2 5 0.0387481 1 0 0
548 1 46.5015 4.86207 0 1.00807 2 0 0.0534395 1 -0.00386688 0.00307778
547 1 45.5018 4.86255 0 1.00173 2 0 0.0533172 1 -0.00218643 0.000100911
498 2 47 4 0 1 2 5 0.0386868 1 0 0
499 2 48 4 0 1 2 5 0.038542 1 0 0
549 1 47.5003 4.86226 0 1.02093 2 0 0.0534844 1 0.000610848 -0.000193642
500 2 49 4 0 1 2 5 0.038421 1 0 0
550 1 48.4999 4.86171 0 1.02225 2 0 0.0535511 1 -0.000244938 0.00187894
8501 1 49.4999 4.86177 0 1.06187 2 0 0.0536496 1 -0.00129793 0.00111424
501 2 0 5 0 1 2 8 0.00060629 1 0 0
502 2 1 5 0 1 2 8 0.000917149 1 0 0
551 2 0 6 0 1 2 8 0.000861443 1 0 0
552 2 1 6 0 1 2 8 0.00131187 1 0 0
503 2 2 5 0 1 2 8 0.00198185 1 0 0
504 2 3 5 0 1 2 8 0.00398407 1 0 0
553 2 2 6 0 1 2 8 0.00283715 1 0 0
554 2 3 6 0 1 2 8 0.00565052 1 0 0
505 2 4 5 0 1 2 6 0.00690957 1 0 0
555 2 4 6 0 1 2 5 0.00949616 1 0 0
556 1 4.95979 5.71555 0 1.02426 2 0 0.0127618 1 0 -5e-05
557 1 5.98958 5.73696 0 1.00456 2 0 0.0162973 1 -0.000686391 -0.00166062
558 1 6.99176 5.73169 0 1.00032 2 0 0.0194107 1 -0.000346747 0.00113599
509 1 7.99578 5.72851 0 1.00999 2 0 0.0225696 1 0.000462789 0.00228472
560 1 8.99688 5.72855 0 1.01571 2 0 0.0255476 1 -0.000612797 -0.00169962
561 1 9.99694 5.72705 0 1.04128 2 0 0.0284445 1 0.00164531 -0.0026356
562 1 10.9972 5.72652 0 1.02468 2 0 0.0312466 1 -0.00267545 -0.000163206
563 1 11.9958 5.72619 0 1.00884 2 0 0.0339143 1 -0.00227316 0.000257884
565 1 12.9938 5.72626 0 1.01555 2 0 0.0364753 1 0.00383593 -0.00279633
566 1 13.9932 5.7242 0 1.01485 2 0 0.0389023 1 0.00402718 1.36196e-05
567 1 14.9931 5.72297 0 1.00349 2 0 0.0411764 1 -0.00126904 -0.000730627
568 1 15.992 5.72187 0 1.02492 2 0 0.0433434 1 0.0030948 0.000105031
569 1 17.993 5.71872 0 1.01386 2 0 0.0472623 1 -0.00013308 0.00182895
618 1 16.993 5.72031 0 1.00786 2 0 0.0453786 1 0.00129042 0.00148411
570 1 18.9943 5.71831 0 1.00562 2 0 0.0489887 1 0.000877955 0.00140678
571 1 19.9961 5.71804 0 1.00943 2 0 0.0505885 1 -0.00187682 0.00170302
572 1 20.9976 5.71839 0 1.02492 2 0 0.052111 1 -0.000417501 0.000141436
573 1 21.9987 5.71702 0 1.00977 2 0 0.0535257 1 -0.000178512 0.00357494
574 1 22.9993 5.71762 0 1.00488 2 0 0.0548334 1 -0.00115682 -0.000834012
575 1 24.0041 5.71917 0 1.01237 2 0 0.0560801 1 -0.00178282 0.000197507
576 1 25.0039 5.71863 0 1.01087 2 0 0.0572452 1 -0.00189873 0.000479103
577 1 26.0033 5.71757 0 1.01133 2 0 0.0583267 1 0.000172437 0.00298875
579 1 27.0034 5.71901 0 1.01129 2 0 0.0593199 1 -5.57566e-05 7.08774e-05
580 1 28.0037 5.71978 0 1.02117 2 0 0.0602689 1 -0.0026159 0.000687307
581 1 29.0025 5.72115 0 1.01861 2 0 0.061153 1 0.00286514 -0.00168477
632 1 30.0023 5.72082 0 1.0167 2 0 0.0619131 1 -2.82388e-05 0.0022564
582 1 31.0029 5.72178 0 1.0143 2 0 0.0626143 1 -0.00403798 0.000699794
583 1 32.0014 5.72254 0 1.0088 2 0 0.0632454 1 0.00405728 0.000157113
584 1 33.0014 5.72346 0 1.00514 2 0 0.0638082 1 0.000297673 -0.00124715
585 1 34.0012 5.72364 0 1.02197 2 0 0.0643324 1 0.00189735 -0.000173728
586 1 35.0024 5.72365 0 1.02669 2 0 0.0647839 1 -0.000254004 0.00062505
587 1 36.0022 5.72413 0 1.01702 2 0 0.0651916 1 -0.00149498 -2.9243e-05
588 1 37.0018 5.72494 0 1.01798 2 0 0.0655255 1 0.000793006 -0.00210082
589 1 38.0014 5.72453 0 1.01656 2 0 0.0657813 1 0.000698216 0.00205443
590 1 39.0014 5.72465 0 1.01208 2 0 0.0659808 1 -0.000438968 -0.000229508
591 1 40.0024 5.72474 0 1.01334 2 0 0.0661754 1 0.00110559 -0.00143064
592 1 41.0031 5.7242 0 1.02633 2 0 0.0664344 1 -0.00205768 0.00157572
594 1 43.0026 5.72484 0 1.01497 2 0 0.0668234 1 8.37119e-05 0.000790203
593 1 42.0028 5.72494 0 1.02837 2 0 0.0666672 1 -0.00102939 -0.00204678
595 1 44.0027 5.7253 0 1.01694 2 0 0.0669169 1 -0.000499665 0.000103871
596 1 45.0025 5.72552 0 1.01116 2 0 0.0670415 1 -0.00235798 -0.000489323
597 1 46.0015 5.72536 0 1.01212 2 0 0.0672556 1 0.00126612 -0.000566537
598 1 47.0008 5.72534 0 1.00861 2 0 0.067452 1 -0.00216776 -0.00133613
599 1 47.9995 5.72442 0 1.02545 2 0 0.0676446 1 0.00251227 0.00110341
600 1 48.9993 5.72383 0 1.00476 2 0 0.067846 1 -0.000889651 0.00125481
601 2 0 7 0 1 2 8 0.00112822 1 0 0
602 2 1 7 0 1 2 8 0.00172922 1 0 0
651 2 0 8 0 1 2 8 0.00138344 1 0 0
652 2 1 8 0 1 2 8 0.00213479 1 0 0
603 2 2 7 0 1 2 8 0.00374632 1 0 0
604 2 3 7 0 1 2 8 0.00743184 1 0 0
653 2 2 8 0 1 2 8 0.00464036 1 0 0
654 2 3 8 0 1 2 8 0.00922015 1 0 0
605 2 4 7 0 1 2 5 0.0122517 1 0 0
655 2 4 8 0 1 2 5 0.0149168 1 0 0
656 1 4.87111 7.49218 0 1.01253 2 0 0.017158 1 0 -5e-05
606 1 5.37883 6.62438 0 1.01839 2 0 0.0169907 1 0 -5e-05
607 1 6.38129 6.6561 0 1.01626 2 0 0.020673 1 0.000201851 0.000919729
657 1 5.87827 7.5204 0 1.02523 2 0 0.0215124 1 0 -5e-05
608 1 7.49497 6.59351 0 1.01581 2 0 0.0244683 1 -0.000608296 0.00046325
609 1 7.98444 7.46299 0 1.00447 2 0 0.0296465 1 -0.000693639 -0.000931465
658 1 6.98413 7.45346 0 1.00499 2 0 0.0258063 1 -0.00132439 -0.00262018
559 1 8.49569 6.59257 0 1.01669 2 0 0.0278291 1 -0.00213502 0.000235723
610 1 9.49815 6.5907 0 1.00382 2 0 0.031157 1 -0.00440009 0.000827377
661 1 8.99846 7.45386 0 1.00906 2 0 0.0333876 1 -0.000492228 0.00148079
612 1 9.99634 7.45525 0 1.00002 2 0 0.0370606 1 0.000465767 0.00141834
611 1 10.4957 6.59013 0 1.00368 2 0 0.0344124 1 0.00210848 0.00173152
564 1 11.4939 6.5901 0 1.01095 2 0 0.0375706 1 -0.000238623 -0.00183919
613 1 10.9939 7.45451 0 1.00877 2 0 0.0407096 1 -0.0011401 0.00123718
614 1 12.4921 6.58869 0 1.01882 2 0 0.040637 1 0.00409659 0.00195314
665 1 12.9905 7.4509 0 1.00809 2 0 0.0477721 1 0.00103896 -0.00248133
664 1 11.9919 7.45236 0 1.0022 2 0 0.0442878 1 -3.95331e-05 0.00309372
615 1 13.4924 6.58731 0 1.00601 2 0 0.043599 1 -0.00312792 0.000837165
616 1 14.4916 6.58571 0 1.00878 2 0 0.0464024 1 -0.00225443 -0.00132374
666 1 13.9899 7.44846 0 0.997531 2 0 0.05112 1 0.000286605 0.00181731
667 1 14.9895 7.44656 0 1.00922 2 0 0.0543425 1 -3.74962e-05 -0.000380949
617 1 15.4902 6.58373 0 1.01132 2 0 0.0490908 1 0.00256999 0.000934352
668 1 15.9896 7.44346 0 1.01232 2 0 0.0574445 1 -0.00151582 0.00168723
619 1 16.4909 6.58132 0 1.00791 2 0 0.0516634 1 -4.60468e-05 0.00180717
669 1 17.4916 6.58022 0 1.0115 2 0 0.0540863 1 0.000525937 -0.000824495
719 1 16.9902 7.44116 0 1.0104 2 0 0.0604104 1 -0.000653114 0.00116129
720 1 17.9911 7.43968 0 1.00384 2 0 0.0632221 1 -0.000692363 -0.000794762
620 1 18.4923 6.57776 0 1.00047 2 0 0.0563509 1 -0.0010177 0.00404091
621 1 19.4927 6.57762 0 1.01086 2 0 0.0584753 1 0.000678681 -0.000161339
670 1 18.9911 7.43781 0 1.01205 2 0 0.0658945 1 0.000443418 -0.0017687
671 1 19.9923 7.4366 0 1.01101 2 0 0.0684369 1 0.000221504 -0.00295497
622 1 20.4944 6.57709 0 1.02282 2 0 0.0605083 1 -0.000257898 -0.000115887
623 1 21.4979 6.57649 0 1.01715 2 0 0.0624003 1 -0.00111652 0.00122071
672 1 20.994 7.4352 0 1.01032 2 0 0.0708116 1 0.000452569 -0.000643755
673 1 21.9959 7.43579 0 1.00705 2 0 0.073004 1 0.00122575 -0.00286852
624 1 22.4986 6.57673 0 1.00933 2 0 0.0641246 1 -0.00248071 -0.000863399
674 1 22.9985 7.43474 0 1.01197 2 0 0.0750646 1 -0.000307376 -0.00118177
625 1 23.4995 6.57563 0 1.01358 2 0 0.0657618 1 0.000602546 0.00237817
626 1 24.5048 6.57849 0 1.01095 2 0 0.0673112 1 -0.000812205 -0.00156183
675 1 23.9998 7.43472 0 1.00974 2 0 0.0770201 1 -0.00177822 0.00196497
676 1 25.0037 7.43797 0 1.01754 2 0 0.078832 1 0.0011191 -0.00120211
578 1 26.5037 6.57771 0 1.0136 2 0 0.070084 1 0.00221858 0.00226912
628 1 26.0049 7.43744 0 1.00647 2 0 0.0805213 1 -0.00065352 0.00114205
627 1 25.5046 6.57802 0 1.0116 2 0 0.0687546 1 -0.00242928 0.000722437
629 1 27.5042 6.57945 0 1.00585 2 0 0.0713348 1 -0.00023937 0.000593237
679 1 28.005 7.44077 0 1.01276 2 0 0.083552 1 -0.000739093 0.000425895
678 1 27.0046 7.43859 0 1.01987 2 0 0.0820854 1 0.000780571 0.00112817
630 1 28.5035 6.58067 0 1.00031 2 0 0.0725266 1 0.00184817 0.00175567
631 1 29.5038 6.58195 0 1.01679 2 0 0.0735825 1 -0.00137912 -0.00027411
680 1 29.0039 7.44218 0 1.0041 2 0 0.0849081 1 0.00481164 0.000403505
681 1 30.004 7.44329 0 1.0067 2 0 0.0861355 1 0.000342862 0.000846694
682 1 30.503 6.58196 0 1.0233 2 0 0.0744935 1 0.00144005 0.0020856
633 1 31.503 6.58324 0 1.00197 2 0 0.0753084 1 -0.00099045 0.00208295
732 1 31.0035 7.444 0 1.02086 2 0 0.0871952 1 0.00119846 0.000494894
683 1 32.0033 7.44534 0 1.00602 2 0 0.088128 1 0.000837389 0.000207179
684 1 32.5024 6.58449 0 1.01173 2 0 0.0760565 1 0.000924305 -0.000792881
734 1 33.0027 7.44649 0 1.01306 2 0 0.0889991 1 0.00199616 -0.000240331
634 1 33.5025 6.58533 0 1.00318 2 0 0.076768 1 -0.000369619 -0.000382512
635 1 34.5027 6.58535 0 1.01335 2 0 0.0774316 1 -0.00110475 -0.000417608
685 1 34.0029 7.44724 0 1.01182 2 0 0.0898103 1 -0.000743381 -0.00175754
686 1 35.0026 7.44749 0 1.01566 2 0 0.0905448 1 -0.000668251 0.00145916
636 1 35.5024 6.5865 0 1.01343 2 0 0.0779937 1 0.000368812 -0.00273567