ITEM: TIMESTEP
47000
ITEM: NUMBER OF ATOMS
15950
ITEM: BOX BOUNDS pp pp pp
0.0000000000000000e+00 1.0000000000000000e+02
-5.0000000000000000e+00 2.0000000000000000e+02
-5.0000000000000000e-01 5.0000000000000000e-01
ITEM: ATOMS id type x y z c_rho c_phase c_nbond c_temp f_rheo_chi_chi fx fy
1 2 0 -5 0 1 2 8 5.57744e-08 1 0 0
2 2 1 -5 0 1 2 8 7.10834e-08 1 0 0
51 2 0 -4 0 1 2 8 2.23755e-07 1 0 0
52 2 1 -4 0 1 2 8 2.89871e-07 1 0 0
3 2 2 -5 0 1 2 8 1.21354e-07 1 0 0
4 2 3 -5 0 1 2 8 2.11498e-07 1 0 0
53 2 2 -4 0 1 2 8 5.08187e-07 1 0 0
54 2 3 -4 0 1 2 8 8.99962e-07 1 0 0
5 2 4 -5 0 1 2 7 3.52774e-07 1 0 0
55 2 4 -4 0 1 2 8 1.47722e-06 1 0 0
6 2 5 -5 0 1 2 6 5.64917e-07 1 0 0
7 2 6 -5 0 1 2 5 7.99755e-07 1 0 0
56 2 5 -4 0 1 2 8 2.22057e-06 1 0 0
57 2 6 -4 0 1 2 8 3.05416e-06 1 0 0
8 2 7 -5 0 1 2 5 1.0186e-06 1 0 0
9 2 8 -5 0 1 2 5 1.21741e-06 1 0 0
58 2 7 -4 0 1 2 8 3.89102e-06 1 0 0
59 2 8 -4 0 1 2 8 4.66019e-06 1 0 0
10 2 9 -5 0 1 2 5 1.38724e-06 1 0 0
60 2 9 -4 0 1 2 8 5.31913e-06 1 0 0
11 2 10 -5 0 1 2 5 1.52596e-06 1 0 0
12 2 11 -5 0 1 2 5 1.63771e-06 1 0 0
61 2 10 -4 0 1 2 8 5.8595e-06 1 0 0
62 2 11 -4 0 1 2 8 6.29759e-06 1 0 0
13 2 12 -5 0 1 2 5 1.72875e-06 1 0 0
14 2 13 -5 0 1 2 5 1.80363e-06 1 0 0
63 2 12 -4 0 1 2 8 6.65742e-06 1 0 0
64 2 13 -4 0 1 2 8 6.95553e-06 1 0 0
15 2 14 -5 0 1 2 5 1.86399e-06 1 0 0
65 2 14 -4 0 1 2 8 7.19662e-06 1 0 0
16 2 15 -5 0 1 2 5 1.91042e-06 1 0 0
17 2 16 -5 0 1 2 5 1.94479e-06 1 0 0
66 2 15 -4 0 1 2 8 7.38198e-06 1 0 0
67 2 16 -4 0 1 2 8 7.51971e-06 1 0 0
18 2 17 -5 0 1 2 5 1.97008e-06 1 0 0
19 2 18 -5 0 1 2 5 1.98775e-06 1 0 0
68 2 17 -4 0 1 2 8 7.62347e-06 1 0 0
69 2 18 -4 0 1 2 8 7.70038e-06 1 0 0
20 2 19 -5 0 1 2 5 1.9961e-06 1 0 0
70 2 19 -4 0 1 2 8 7.74323e-06 1 0 0
21 2 20 -5 0 1 2 5 1.9918e-06 1 0 0
22 2 21 -5 0 1 2 5 1.97376e-06 1 0 0
71 2 20 -4 0 1 2 8 7.73727e-06 1 0 0
72 2 21 -4 0 1 2 8 7.67643e-06 1 0 0
23 2 22 -5 0 1 2 5 1.94602e-06 1 0 0
24 2 23 -5 0 1 2 5 1.9176e-06 1 0 0
73 2 22 -4 0 1 2 8 7.57538e-06 1 0 0
74 2 23 -4 0 1 2 8 7.46925e-06 1 0 0
25 2 24 -5 0 1 2 5 1.8993e-06 1 0 0
75 2 24 -4 0 1 2 8 7.40103e-06 1 0 0
26 2 25 -5 0 1 2 5 1.899e-06 1 0 0
27 2 26 -5 0 1 2 5 1.91804e-06 1 0 0
76 2 25 -4 0 1 2 8 7.40244e-06 1 0 0
77 2 26 -4 0 1 2 8 7.47876e-06 1 0 0
28 2 27 -5 0 1 2 5 1.95127e-06 1 0 0
29 2 28 -5 0 1 2 5 1.99056e-06 1 0 0
78 2 27 -4 0 1 2 8 7.6085e-06 1 0 0
79 2 28 -4 0 1 2 8 7.75876e-06 1 0 0
30 2 29 -5 0 1 2 5 2.02887e-06 1 0 0
80 2 29 -4 0 1 2 8 7.90263e-06 1 0 0
31 2 30 -5 0 1 2 5 2.06176e-06 1 0 0
32 2 31 -5 0 1 2 5 2.08646e-06 1 0 0
81 2 30 -4 0 1 2 8 8.02487e-06 1 0 0
82 2 31 -4 0 1 2 8 8.11664e-06 1 0 0
33 2 32 -5 0 1 2 5 2.10124e-06 1 0 0
34 2 33 -5 0 1 2 5 2.10615e-06 1 0 0
83 2 32 -4 0 1 2 8 8.17163e-06 1 0 0
84 2 33 -4 0 1 2 8 8.18962e-06 1 0 0
35 2 34 -5 0 1 2 5 2.10355e-06 1 0 0
85 2 34 -4 0 1 2 8 8.17986e-06 1 0 0
36 2 35 -5 0 1 2 5 2.09677e-06 1 0 0
37 2 36 -5 0 1 2 5 2.08752e-06 1 0 0
86 2 35 -4 0 1 2 8 8.15583e-06 1 0 0
87 2 36 -4 0 1 2 8 8.12424e-06 1 0 0
38 2 37 -5 0 1 2 5 2.07465e-06 1 0 0
39 2 38 -5 0 1 2 5 2.0555e-06 1 0 0
88 2 37 -4 0 1 2 8 8.07955e-06 1 0 0
89 2 38 -4 0 1 2 8 8.00963e-06 1 0 0
40 2 39 -5 0 1 2 5 2.02898e-06 1 0 0
90 2 39 -4 0 1 2 8 7.90853e-06 1 0 0
41 2 40 -5 0 1 2 5 1.99818e-06 1 0 0
42 2 41 -5 0 1 2 5 1.97057e-06 1 0 0
91 2 40 -4 0 1 2 8 7.7876e-06 1 0 0
92 2 41 -4 0 1 2 8 7.67682e-06 1 0 0
43 2 42 -5 0 1 2 5 1.95485e-06 1 0 0
44 2 43 -5 0 1 2 5 1.9558e-06 1 0 0
93 2 42 -4 0 1 2 8 7.61239e-06 1 0 0
94 2 43 -4 0 1 2 8 7.61518e-06 1 0 0
45 2 44 -5 0 1 2 5 1.97051e-06 1 0 0
95 2 44 -4 0 1 2 8 7.67419e-06 1 0 0
46 2 45 -5 0 1 2 5 1.98926e-06 1 0 0
47 2 46 -5 0 1 2 5 2.00136e-06 1 0 0
96 2 45 -4 0 1 2 8 7.7498e-06 1 0 0
97 2 46 -4 0 1 2 8 7.79787e-06 1 0 0
48 2 47 -5 0 1 2 5 2.00182e-06 1 0 0
49 2 48 -5 0 1 2 5 1.99411e-06 1 0 0
98 2 47 -4 0 1 2 8 7.798e-06 1 0 0
99 2 48 -4 0 1 2 8 7.76489e-06 1 0 0
50 2 49 -5 0 1 2 5 1.98693e-06 1 0 0
100 2 49 -4 0 1 2 8 7.73487e-06 1 0 0
101 2 0 -3 0 1 2 8 8.26755e-07 1 0 0
102 2 1 -3 0 1 2 8 1.09032e-06 1 0 0
151 2 0 -2 0 1 2 8 2.7923e-06 1 0 0
152 2 1 -2 0 1 2 8 3.75285e-06 1 0 0
103 2 2 -3 0 1 2 8 1.96783e-06 1 0 0
104 2 3 -3 0 1 2 8 3.56178e-06 1 0 0
153 2 2 -2 0 1 2 8 6.9817e-06 1 0 0
154 2 3 -2 0 1 2 8 1.29383e-05 1 0 0
105 2 4 -3 0 1 2 8 5.92422e-06 1 0 0
155 2 4 -2 0 1 2 8 2.18914e-05 1 0 0
106 2 5 -3 0 1 2 8 8.95214e-06 1 0 0
107 2 6 -3 0 1 2 8 1.23694e-05 1 0 0
156 2 5 -2 0 1 2 8 3.34678e-05 1 0 0
157 2 6 -2 0 1 2 8 4.65753e-05 1 0 0
108 2 7 -3 0 1 2 8 1.58181e-05 1 0 0
109 2 8 -3 0 1 2 8 1.89887e-05 1 0 0
158 2 7 -2 0 1 2 8 5.97974e-05 1 0 0
159 2 8 -2 0 1 2 8 7.19403e-05 1 0 0
110 2 9 -3 0 1 2 8 2.17062e-05 1 0 0
160 2 9 -2 0 1 2 8 8.23574e-05 1 0 0
111 2 10 -3 0 1 2 8 2.39411e-05 1 0 0
112 2 11 -3 0 1 2 8 2.57645e-05 1 0 0
161 2 10 -2 0 1 2 8 9.0962e-05 1 0 0
162 2 11 -2 0 1 2 8 9.80377e-05 1 0 0
113 2 12 -3 0 1 2 8 2.72758e-05 1 0 0
114 2 13 -3 0 1 2 8 2.85392e-05 1 0 0
163 2 12 -2 0 1 2 8 0.000103965 1 0 0
164 2 13 -2 0 1 2 8 0.00010897 1 0 0
115 2 14 -3 0 1 2 8 2.95656e-05 1 0 0
165 2 14 -2 0 1 2 8 0.000113061 1 0 0
116 2 15 -3 0 1 2 8 3.03542e-05 1 0 0
117 2 16 -3 0 1 2 8 3.09417e-05 1 0 0
166 2 15 -2 0 1 2 8 0.000116206 1 0 0
167 2 16 -2 0 1 2 8 0.00011856 1 0 0
118 2 17 -3 0 1 2 8 3.13951e-05 1 0 0
119 2 18 -3 0 1 2 8 3.17508e-05 1 0 0
168 2 17 -2 0 1 2 8 0.000120424 1 0 0
169 2 18 -2 0 1 2 8 0.000121964 1 0 0
120 2 19 -3 0 1 2 8 3.19755e-05 1 0 0
170 2 19 -2 0 1 2 8 0.000123039 1 0 0
121 2 20 -3 0 1 2 8 3.19986e-05 1 0 0
122 2 21 -3 0 1 2 8 3.17867e-05 1 0 0
171 2 20 -2 0 1 2 8 0.00012334 1 0 0
172 2 21 -2 0 1 2 8 0.000122708 1 0 0
123 2 22 -3 0 1 2 8 3.13966e-05 1 0 0
124 2 23 -3 0 1 2 8 3.09744e-05 1 0 0
173 2 22 -2 0 1 2 8 0.000121349 1 0 0
174 2 23 -2 0 1 2 8 0.000119821 1 0 0
125 2 24 -3 0 1 2 8 3.07033e-05 1 0 0
175 2 24 -2 0 1 2 8 0.000118844 1 0 0
126 2 25 -3 0 1 2 8 3.07213e-05 1 0 0
127 2 26 -3 0 1 2 8 3.10504e-05 1 0 0
176 2 25 -2 0 1 2 8 0.000118975 1 0 0
177 2 26 -2 0 1 2 8 0.000120302 1 0 0
128 2 27 -3 0 1 2 8 3.15939e-05 1 0 0
129 2 28 -3 0 1 2 8 3.22078e-05 1 0 0
178 2 27 -2 0 1 2 8 0.000122423 1 0 0
179 2 28 -2 0 1 2 8 0.00012475 1 0 0
130 2 29 -3 0 1 2 8 3.27826e-05 1 0 0
180 2 29 -2 0 1 2 8 0.000126873 1 0 0
131 2 30 -3 0 1 2 8 3.32659e-05 1 0 0
132 2 31 -3 0 1 2 8 3.36299e-05 1 0 0
181 2 30 -2 0 1 2 8 0.00012864 1 0 0
182 2 31 -2 0 1 2 8 0.000129982 1 0 0
133 2 32 -3 0 1 2 8 3.3849e-05 1 0 0
134 2 33 -3 0 1 2 8 3.39191e-05 1 0 0
183 2 32 -2 0 1 2 8 0.000130801 1 0 0
184 2 33 -2 0 1 2 8 0.000131063 1 0 0
135 2 34 -3 0 1 2 8 3.38794e-05 1 0 0
185 2 34 -2 0 1 2 8 0.000130919 1 0 0
136 2 35 -3 0 1 2 8 3.37894e-05 1 0 0
137 2 36 -3 0 1 2 8 3.36784e-05 1 0 0
186 2 35 -2 0 1 2 8 0.000130616 1 0 0
187 2 36 -2 0 1 2 8 0.000130273 1 0 0
138 2 37 -3 0 1 2 8 3.35185e-05 1 0 0
139 2 38 -3 0 1 2 8 3.32509e-05 1 0 0
188 2 37 -2 0 1 2 8 0.000129765 1 0 0
189 2 38 -2 0 1 2 8 0.000128833 1 0 0
140 2 39 -3 0 1 2 8 3.2843e-05 1 0 0
190 2 39 -2 0 1 2 8 0.000127321 1 0 0
141 2 40 -3 0 1 2 8 3.23378e-05 1 0 0
142 2 41 -3 0 1 2 8 3.18638e-05 1 0 0
191 2 40 -2 0 1 2 8 0.000125376 1 0 0
192 2 41 -2 0 1 2 8 0.000123503 1 0 0
143 2 42 -3 0 1 2 8 3.15825e-05 1 0 0
144 2 43 -3 0 1 2 8 3.1592e-05 1 0 0
193 2 42 -2 0 1 2 8 0.000122369 1 0 0
194 2 43 -2 0 1 2 8 0.000122396 1 0 0
145 2 44 -3 0 1 2 8 3.1848e-05 1 0 0
195 2 44 -2 0 1 2 8 0.000123423 1 0 0
146 2 45 -3 0 1 2 8 3.21763e-05 1 0 0
147 2 46 -3 0 1 2 8 3.23802e-05 1 0 0
196 2 45 -2 0 1 2 8 0.000124739 1 0 0
197 2 46 -2 0 1 2 8 0.000125535 1 0 0
148 2 47 -3 0 1 2 8 3.23704e-05 1 0 0
149 2 48 -3 0 1 2 8 3.22148e-05 1 0 0
198 2 47 -2 0 1 2 8 0.000125451 1 0 0
199 2 48 -2 0 1 2 8 0.000124775 1 0 0
150 2 49 -3 0 1 2 8 3.20769e-05 1 0 0
200 2 49 -2 0 1 2 8 0.00012419 1 0 0
201 2 0 -1 0 1 2 8 8.55226e-06 1 0 0
202 2 1 -1 0 1 2 8 1.17201e-05 1 0 0
203 2 2 -1 0 1 2 8 2.24796e-05 1 0 0
204 2 3 -1 0 1 2 8 4.26717e-05 1 0 0
205 2 4 -1 0 1 2 8 7.34993e-05 1 0 0
206 2 5 -1 0 1 2 8 0.000113739 1 0 0
207 2 6 -1 0 1 2 8 0.000159411 1 0 0
208 2 7 -1 0 1 2 8 0.000205398 1 0 0
209 2 8 -1 0 1 2 8 0.000247571 1 0 0
210 2 9 -1 0 1 2 8 0.000283829 1 0 0
211 2 10 -1 0 1 2 8 0.000313974 1 0 0
212 2 11 -1 0 1 2 8 0.000339016 1 0 0
213 2 12 -1 0 1 2 8 0.000360249 1 0 0
214 2 13 -1 0 1 2 8 0.000378391 1 0 0
215 2 14 -1 0 1 2 8 0.000393333 1 0 0
216 2 15 -1 0 1 2 8 0.000404859 1 0 0
217 2 16 -1 0 1 2 8 0.000413556 1 0 0
218 2 17 -1 0 1 2 8 0.000420633 1 0 0
219 2 18 -1 0 1 2 8 0.000426766 1 0 0
220 2 19 -1 0 1 2 8 0.000431394 1 0 0
221 2 20 -1 0 1 2 8 0.000433317 1 0 0
222 2 21 -1 0 1 2 8 0.000431906 1 0 0
223 2 22 -1 0 1 2 8 0.000427825 1 0 0
224 2 23 -1 0 1 2 8 0.000422989 1 0 0
225 2 24 -1 0 1 2 8 0.000419932 1 0 0
226 2 25 -1 0 1 2 8 0.000420684 1 0 0
227 2 26 -1 0 1 2 8 0.000425585 1 0 0
228 2 27 -1 0 1 2 8 0.000433116 1 0 0
229 2 28 -1 0 1 2 8 0.000441108 1 0 0
230 2 29 -1 0 1 2 8 0.000448184 1 0 0
231 2 30 -1 0 1 2 8 0.000454021 1 0 0
232 2 31 -1 0 1 2 8 0.000458533 1 0 0
233 2 32 -1 0 1 2 8 0.000461354 1 0 0
234 2 33 -1 0 1 2 8 0.000462283 1 0 0
235 2 34 -1 0 1 2 8 0.000461846 1 0 0
236 2 35 -1 0 1 2 8 0.000460977 1 0 0
237 2 36 -1 0 1 2 8 0.000460112 1 0 0
238 2 37 -1 0 1 2 8 0.000458752 1 0 0
239 2 38 -1 0 1 2 8 0.000455898 1 0 0
240 2 39 -1 0 1 2 8 0.000450895 1 0 0
241 2 40 -1 0 1 2 8 0.000444183 1 0 0
242 2 41 -1 0 1 2 8 0.000437539 1 0 0
243 2 42 -1 0 1 2 8 0.000433422 1 0 0
244 2 43 -1 0 1 2 8 0.000433477 1 0 0
245 2 44 -1 0 1 2 8 0.000437183 1 0 0
246 2 45 -1 0 1 2 8 0.000441925 1 0 0
247 2 46 -1 0 1 2 8 0.000444711 1 0 0
248 2 47 -1 0 1 2 8 0.000444229 1 0 0
249 2 48 -1 0 1 2 8 0.0004416 1 0 0
250 2 49 -1 0 1 2 8 0.000439365 1 0 0
251 2 0 0 0 1 2 8 2.35677e-05 1 0 0
252 2 1 0 0 1 2 8 3.29193e-05 1 0 0
301 2 0 1 0 1 2 8 5.80292e-05 1 0 0
302 2 1 1 0 1 2 8 8.24808e-05 1 0 0
253 2 2 0 0 1 2 8 6.50133e-05 1 0 0
254 2 3 0 0 1 2 8 0.000126327 1 0 0
303 2 2 1 0 1 2 8 0.000167117 1 0 0
304 2 3 1 0 1 2 8 0.000331473 1 0 0
255 2 4 0 0 1 2 8 0.000221521 1 0 0
305 2 4 1 0 1 2 8 0.000591063 1 0 0
256 2 5 0 0 1 2 8 0.000347004 1 0 0
257 2 6 0 0 1 2 8 0.000489529 1 0 0
306 2 5 1 0 1 2 8 0.000936818 1 0 0
307 2 6 1 0 1 2 8 0.00132861 1 0 0
258 2 7 0 0 1 2 8 0.000632463 1 0 0
259 2 8 0 0 1 2 8 0.000763303 1 0 0
308 2 7 1 0 1 2 8 0.00171827 1 0 0
309 2 8 1 0 1 2 8 0.00207413 1 0 0
260 2 9 0 0 1 2 8 0.000876245 1 0 0
310 2 9 1 0 1 2 8 0.00238351 1 0 0
261 2 10 0 0 1 2 8 0.000971047 1 0 0
262 2 11 0 0 1 2 8 0.00105082 1 0 0
311 2 10 1 0 1 2 8 0.00264672 1 0 0
312 2 11 1 0 1 2 8 0.00287179 1 0 0
263 2 12 0 0 1 2 8 0.0011194 1 0 0
264 2 13 0 0 1 2 8 0.00117877 1 0 0
313 2 12 1 0 1 2 8 0.00306836 1 0 0
314 2 13 1 0 1 2 8 0.00324108 1 0 0
265 2 14 0 0 1 2 8 0.00122818 1 0 0
315 2 14 1 0 1 2 8 0.00338681 1 0 0
266 2 15 0 0 1 2 8 0.0012666 1 0 0
267 2 16 0 0 1 2 8 0.00129596 1 0 0
316 2 15 1 0 1 2 8 0.0035017 1 0 0
317 2 16 1 0 1 2 8 0.00359136 1 0 0
268 2 17 0 0 1 2 8 0.00132056 1 0 0
269 2 18 0 0 1 2 8 0.00134275 1 0 0
318 2 17 1 0 1 2 8 0.00366875 1 0 0
319 2 18 1 0 1 2 8 0.00374075 1 0 0
270 2 19 0 0 1 2 8 0.00136054 1 0 0
320 2 19 1 0 1 2 8 0.00380106 1 0 0
271 2 20 0 0 1 2 8 0.00136983 1 0 0
272 2 21 0 0 1 2 8 0.00136855 1 0 0
321 2 20 1 0 1 2 8 0.00383778 1 0 0
322 2 21 1 0 1 2 8 0.00384546 1 0 0
273 2 22 0 0 1 2 8 0.00135867 1 0 0
274 2 23 0 0 1 2 8 0.00134589 1 0 0
323 2 22 1 0 1 2 8 0.00382941 1 0 0
324 2 23 1 0 1 2 8 0.00380388 1 0 0
275 2 24 0 0 1 2 8 0.00133802 1 0 0
325 2 24 1 0 1 2 8 0.00378935 1 0 0
276 2 25 0 0 1 2 8 0.00134166 1 0 0
277 2 26 0 0 1 2 8 0.00135802 1 0 0
326 2 25 1 0 1 2 8 0.00380445 1 0 0
327 2 26 1 0 1 2 8 0.00385317 1 0 0
278 2 27 0 0 1 2 8 0.00138206 1 0 0
279 2 28 0 0 1 2 8 0.00140662 1 0 0
328 2 27 1 0 1 2 8 0.00392114 1 0 0
329 2 28 1 0 1 2 8 0.00398781 1 0 0
280 2 29 0 0 1 2 8 0.00142764 1 0 0
330 2 29 1 0 1 2 8 0.00404276 1 0 0
281 2 30 0 0 1 2 8 0.00144487 1 0 0
282 2 31 0 0 1 2 8 0.00145858 1 0 0
331 2 30 1 0 1 2 8 0.00408782 1 0 0
332 2 31 1 0 1 2 8 0.00412528 1 0 0
283 2 32 0 0 1 2 8 0.0014675 1 0 0
284 2 33 0 0 1 2 8 0.00147066 1 0 0
333 2 32 1 0 1 2 8 0.00415113 1 0 0
334 2 33 1 0 1 2 8 0.00416139 1 0 0
285 2 34 0 0 1 2 8 0.00146967 1 0 0
335 2 34 1 0 1 2 8 0.00416038 1 0 0
286 2 35 0 0 1 2 8 0.00146769 1 0 0
287 2 36 0 0 1 2 8 0.00146619 1 0 0
336 2 35 1 0 1 2 8 0.00415767 1 0 0
337 2 36 1 0 1 2 8 0.00415745 1 0 0
288 2 37 0 0 1 2 8 0.00146339 1 0 0
289 2 38 0 0 1 2 8 0.00145592 1 0 0
338 2 37 1 0 1 2 8 0.00415428 1 0 0
339 2 38 1 0 1 2 8 0.00413851 1 0 0
290 2 39 0 0 1 2 8 0.0014415 1 0 0
340 2 39 1 0 1 2 8 0.00410351 1 0 0
291 2 40 0 0 1 2 8 0.00142119 1 0 0
292 2 41 0 0 1 2 8 0.00140043 1 0 0
341 2 40 1 0 1 2 8 0.00405124 1 0 0
342 2 41 1 0 1 2 8 0.00399571 1 0 0
293 2 42 0 0 1 2 8 0.00138725 1 0 0
294 2 43 0 0 1 2 8 0.0013873 1 0 0
343 2 42 1 0 1 2 8 0.00395951 1 0 0
344 2 43 1 0 1 2 8 0.00395943 1 0 0
295 2 44 0 0 1 2 8 0.00139913 1 0 0
345 2 44 1 0 1 2 8 0.00399209 1 0 0
296 2 45 0 0 1 2 8 0.00141422 1 0 0
297 2 46 0 0 1 2 8 0.00142278 1 0 0
346 2 45 1 0 1 2 8 0.00403357 1 0 0
347 2 46 1 0 1 2 8 0.00405611 1 0 0
298 2 47 0 0 1 2 8 0.00142064 1 0 0
299 2 48 0 0 1 2 8 0.00141163 1 0 0
348 2 47 1 0 1 2 8 0.00404848 1 0 0
349 2 48 1 0 1 2 8 0.00402209 1 0 0
300 2 49 0 0 1 2 8 0.00140413 1 0 0
350 2 49 1 0 1 2 8 0.00400056 1 0 0
351 2 0 2 0 1 2 8 0.000127055 1 0 0
352 2 1 2 0 1 2 8 0.000183235 1 0 0
401 2 0 3 0 1 2 8 0.000247055 1 0 0
402 2 1 3 0 1 2 8 0.00036031 1 0 0
353 2 2 2 0 1 2 8 0.000378379 1 0 0
354 2 3 2 0 1 2 8 0.000760867 1 0 0
403 2 2 3 0 1 2 8 0.00075178 1 0 0
404 2 3 3 0 1 2 8 0.00151336 1 0 0
355 2 4 2 0 1 2 8 0.00137411 1 0 0
405 2 4 3 0 1 2 8 0.00273193 1 0 0
356 2 5 2 0 1 2 8 0.00220145 1 0 0
357 2 6 2 0 1 2 8 0.00313095 1 0 0
406 2 5 3 0 1 2 8 0.0044282 1 0 0
407 2 6 3 0 1 2 8 0.00629755 1 0 0
358 2 7 2 0 1 2 8 0.00403955 1 0 0
359 2 8 2 0 1 2 8 0.00486737 1 0 0
408 2 7 3 0 1 2 8 0.00804367 1 0 0
409 2 8 3 0 1 2 8 0.00964053 1 0 0
360 2 9 2 0 1 2 8 0.00559597 1 0 0
410 2 9 3 0 1 2 8 0.0110771 1 0 0
361 2 10 2 0 1 2 8 0.00622745 1 0 0
362 2 11 2 0 1 2 8 0.0067784 1 0 0
411 2 10 3 0 1 2 8 0.0123515 1 0 0
412 2 11 3 0 1 2 8 0.013492 1 0 0
363 2 12 2 0 1 2 8 0.00726824 1 0 0
364 2 13 2 0 1 2 8 0.00770569 1 0 0
413 2 12 3 0 1 2 8 0.0145276 1 0 0
414 2 13 3 0 1 2 8 0.0154685 1 0 0
365 2 14 2 0 1 2 8 0.00808169 1 0 0
415 2 14 3 0 1 2 8 0.0162983 1 0 0
366 2 15 2 0 1 2 8 0.00838492 1 0 0
367 2 16 2 0 1 2 8 0.00862871 1 0 0
416 2 15 3 0 1 2 8 0.0169897 1 0 0
417 2 16 3 0 1 2 8 0.0175678 1 0 0
368 2 17 2 0 1 2 8 0.00884553 1 0 0
369 2 18 2 0 1 2 8 0.00905145 1 0 0
418 2 17 3 0 1 2 8 0.0180982 1 0 0
419 2 18 3 0 1 2 8 0.0186081 1 0 0
370 2 19 2 0 1 2 8 0.00922912 1 0 0
420 2 19 3 0 1 2 8 0.0190566 1 0 0
371 2 20 2 0 1 2 8 0.00934983 1 0 0
372 2 21 2 0 1 2 8 0.00940364 1 0 0
421 2 20 3 0 1 2 8 0.0193866 1 0 0
422 2 21 3 0 1 2 8 0.0195929 1 0 0
373 2 22 2 0 1 2 8 0.00940372 1 0 0
374 2 23 2 0 1 2 8 0.00937786 1 0 0
423 2 22 3 0 1 2 8 0.0197082 1 0 0
424 2 23 3 0 1 2 8 0.0197637 1 0 0
375 2 24 2 0 1 2 8 0.00936953 1 0 0
425 2 24 3 0 1 2 8 0.0198282 1 0 0
376 2 25 2 0 1 2 8 0.00942344 1 0 0
377 2 26 2 0 1 2 8 0.00955087 1 0 0
426 2 25 3 0 1 2 8 0.0199939 1 0 0
427 2 26 3 0 1 2 8 0.0202824 1 0 0
378 2 27 2 0 1 2 8 0.00971853 1 0 0
379 2 28 2 0 1 2 8 0.0098762 1 0 0
428 2 27 3 0 1 2 8 0.0206419 1 0 0
429 2 28 3 0 1 2 8 0.0209661 1 0 0
380 2 29 2 0 1 2 8 0.0100015 1 0 0
430 2 29 3 0 1 2 8 0.0212138 1 0 0
381 2 30 2 0 1 2 8 0.0101056 1 0 0
382 2 31 2 0 1 2 8 0.0101976 1 0 0
431 2 30 3 0 1 2 8 0.0214294 1 0 0
432 2 31 3 0 1 2 8 0.0216348 1 0 0
383 2 32 2 0 1 2 8 0.010266 1 0 0
384 2 33 2 0 1 2 8 0.0102976 1 0 0
433 2 32 3 0 1 2 8 0.0218018 1 0 0
434 2 33 3 0 1 2 8 0.0218917 1 0 0
385 2 34 2 0 1 2 8 0.0103018 1 0 0
435 2 34 3 0 1 2 8 0.02192 1 0 0
386 2 35 2 0 1 2 8 0.0103045 1 0 0
387 2 36 2 0 1 2 8 0.0103158 1 0 0
436 2 35 3 0 1 2 8 0.021953 1 0 0
437 2 36 3 0 1 2 8 0.0220105 1 0 0
388 2 37 2 0 1 2 8 0.010321 1 0 0
389 2 38 2 0 1 2 8 0.0102972 1 0 0
438 2 37 3 0 1 2 8 0.0220532 1 0 0
439 2 38 3 0 1 2 8 0.0220397 1 0 0
390 2 39 2 0 1 2 8 0.0102301 1 0 0
440 2 39 3 0 1 2 8 0.0219524 1 0 0
391 2 40 2 0 1 2 8 0.0101214 1 0 0
392 2 41 2 0 1 2 8 0.00999933 1 0 0
441 2 40 3 0 1 2 8 0.0217891 1 0 0
442 2 41 3 0 1 2 8 0.0215804 1 0 0
393 2 42 2 0 1 2 8 0.00991734 1 0 0
394 2 43 2 0 1 2 8 0.00991752 1 0 0
443 2 42 3 0 1 2 8 0.0214363 1 0 0
444 2 43 3 0 1 2 8 0.0214418 1 0 0
395 2 44 2 0 1 2 8 0.00999377 1 0 0
445 2 44 3 0 1 2 8 0.0215902 1 0 0
396 2 45 2 0 1 2 8 0.0100896 1 0 0
397 2 46 2 0 1 2 8 0.0101391 1 0 0
446 2 45 3 0 1 2 8 0.0217748 1 0 0
447 2 46 3 0 1 2 8 0.0218632 1 0 0
398 2 47 2 0 1 2 8 0.0101178 1 0 0
399 2 48 2 0 1 2 8 0.0100543 1 0 0
448 2 47 3 0 1 2 8 0.021818 1 0 0
449 2 48 3 0 1 2 8 0.0217017 1 0 0
400 2 49 2 0 1 2 8 0.0100036 1 0 0
450 2 49 3 0 1 2 8 0.0216062 1 0 0
451 2 0 4 0 1 2 8 0.000427982 1 0 0
452 2 1 4 0 1 2 8 0.000629592 1 0 0
453 2 2 4 0 1 2 8 0.00131888 1 0 0
454 2 3 4 0 1 2 8 0.00262001 1 0 0
455 2 4 4 0 1 2 7 0.00455891 1 0 0
456 2 5 4 0 1 2 6 0.00750193 1 0 0
457 2 6 4 0 1 2 5 0.0104577 1 0 0
506 1 5.48728 4.87051 0 1.0006 2 0 0.0120485 1 0.0028189 -0.00342753
507 1 6.48815 4.87052 0 1.02569 2 0 0.0147756 1 -0.00109668 -0.00185755
458 2 7 4 0 1 2 5 0.013018 1 0 0
459 2 8 4 0 1 2 5 0.0154428 1 0 0
508 1 7.49149 4.86669 0 1.03193 2 0 0.0175111 1 0.000791411 0.00139052
460 2 9 4 0 1 2 5 0.0176868 1 0 0
510 1 8.49524 4.8632 0 1.01036 2 0 0.0201558 1 0.00202297 0.00529992
511 1 9.49475 4.865 0 1.00136 2 0 0.0226535 1 0.00169984 0.00131783
461 2 10 4 0 1 2 5 0.0197338 1 0 0
462 2 11 4 0 1 2 5 0.0216312 1 0 0
512 1 10.4985 4.86375 0 1.01573 2 0 0.0250482 1 0.00160106 0.0011289
513 1 11.4985 4.86452 0 1.01534 2 0 0.0273348 1 0.00189346 0.0023407
463 2 12 4 0 1 2 5 0.0233947 1 0 0
464 2 13 4 0 1 2 5 0.0250226 1 0 0
514 1 12.4981 4.86516 0 1.01802 2 0 0.0294802 1 0.00246976 0.000884015
465 2 14 4 0 1 2 5 0.0265047 1 0 0
515 1 13.501 4.86441 0 1.02031 2 0 0.0314981 1 -0.00588643 0.00369615
516 1 14.4988 4.86395 0 1.0096 2 0 0.033368 1 0.00189689 8.42567e-05
466 2 15 4 0 1 2 5 0.0277944 1 0 0
467 2 16 4 0 1 2 5 0.0289251 1 0 0
518 1 16.5003 4.86365 0 1.02515 2 0 0.0366953 1 -0.00148773 0.00166258
517 1 15.5001 4.862 0 1.02614 2 0 0.0350825 1 -9.22155e-05 0.00579318
468 2 17 4 0 1 2 5 0.0299911 1 0 0
469 2 18 4 0 1 2 5 0.0310119 1 0 0
519 1 17.5022 4.86535 0 1.0239 2 0 0.0382098 1 -0.00471134 0.00153524
470 2 19 4 0 1 2 5 0.031922 1 0 0
520 1 18.501 4.86435 0 1.00577 2 0 0.0395982 1 -0.00305865 0.00102409
521 1 19.5 4.86332 0 1.00453 2 0 0.0408388 1 0.00413277 0.00126293
471 2 20 4 0 1 2 5 0.0326419 1 0 0
472 2 21 4 0 1 2 5 0.0331963 1 0 0
523 1 21.5047 4.86558 0 1.02268 2 0 0.0429431 1 -0.00728791 -0.0101339
522 1 20.5004 4.86462 0 1.0139 2 0 0.0419326 1 0.00229228 -0.00710005
473 2 22 4 0 1 2 5 0.033656 1 0 0
474 2 23 4 0 1 2 5 0.0340095 1 0 0
524 1 22.5022 4.86574 0 1.01383 2 0 0.0438756 1 0.00821389 -0.0102327
475 2 24 4 0 1 2 5 0.0343238 1 0 0
525 1 23.502 4.86358 0 1.03669 2 0 0.0447051 1 -0.00308578 0.00434869
526 1 24.5004 4.86294 0 1.04245 2 0 0.0455029 1 0.00607648 0.000967421
476 2 25 4 0 1 2 5 0.0347442 1 0 0
477 2 26 4 0 1 2 5 0.0352901 1 0 0
528 1 26.5039 4.86627 0 1.04147 2 0 0.0471297 1 -0.00547434 -0.00592011
527 1 25.4998 4.8628 0 1.03798 2 0 0.0463176 1 0.00552306 0.00146823
478 2 27 4 0 1 2 5 0.0359258 1 0 0
479 2 28 4 0 1 2 5 0.0364829 1 0 0
529 1 27.5015 4.86656 0 1.0019 2 0 0.0478937 1 0.00638455 -0.00909516
480 2 29 4 0 1 2 5 0.0369115 1 0 0
531 1 29.5012 4.86609 0 1.01679 2 0 0.0492087 1 -0.000991476 4.45493e-05
530 1 28.5023 4.86392 0 1.02091 2 0 0.0485733 1 -0.00326221 0.00421055
481 2 30 4 0 1 2 5 0.0373103 1 0 0
482 2 31 4 0 1 2 5 0.0377089 1 0 0
533 1 31.5035 4.87008 0 1.004 2 0 0.0503036 1 -0.00676601 -0.00691912
532 1 30.4996 4.86982 0 1.0182 2 0 0.0497737 1 0.00629126 -0.00565783
483 2 32 4 0 1 2 5 0.0380586 1 0 0
484 2 33 4 0 1 2 5 0.0382798 1 0 0
534 1 32.5022 4.86603 0 1.00171 2 0 0.0507571 1 0.00510718 -0.00490112
485 2 34 4 0 1 2 5 0.0383815 1 0 0
535 1 33.502 4.86578 0 1.00275 2 0 0.051107 1 -0.00205755 -0.000166146
536 1 34.5043 4.8665 0 1.0237 2 0 0.0513959 1 -0.00235553 -0.00929504
486 2 35 4 0 1 2 5 0.0385051 1 0 0
487 2 36 4 0 1 2 5 0.038679 1 0 0
538 1 36.5012 4.86421 0 1.01227 2 0 0.0519712 1 0.00322629 0.00537331
537 1 35.5036 4.8661 0 1.0067 2 0 0.0516907 1 -0.00255276 -0.00730745
488 2 37 4 0 1 2 5 0.0388154 1 0 0
489 2 38 4 0 1 2 5 0.0388637 1 0 0
539 1 37.5009 4.86798 0 1.00174 2 0 0.0521782 1 0.00124805 -0.00192122
490 2 39 4 0 1 2 5 0.0388306 1 0 0
541 1 39.4989 4.87158 0 1.00168 2 0 0.0523891 1 0.00333918 -0.00282672
540 1 38.5008 4.87272 0 1.01715 2 0 0.052328 1 -0.00499556 -0.00267925
491 2 40 4 0 1 2 5 0.0387042 1 0 0
492 2 41 4 0 1 2 5 0.0384722 1 0 0
542 1 40.4979 4.86853 0 1.01016 2 0 0.0524446 1 -0.00025632 -0.000173867
543 1 41.4968 4.86351 0 1.03252 2 0 0.0524576 1 0.00536056 0.00740152
493 2 42 4 0 1 2 5 0.038316 1 0 0
494 2 43 4 0 1 2 5 0.0383541 1 0 0
544 1 42.4993 4.86441 0 1.0319 2 0 0.0525402 1 0.000675513 0.00475194
495 2 44 4 0 1 2 5 0.038576 1 0 0
545 1 43.5017 4.87355 0 1.03659 2 0 0.0527001 1 -0.00841726 3.05656e-05
546 1 44.4975 4.86402 0 1.01001 2 0 0.0528606 1 0.00737379 0.00588142
496 2 45 4 0 1 2 5 0.0388496 1 0 0
497 2 46 4 0 1 2 5 0.0389773 1 0 0
548 1 46.4975 4.86746 0 1.00807 2 0 0.0531741 1 0.00195407 -0.0033539
547 1 45.4957 4.8625 0 1.00173 2 0 0.053041 1 0.00792018 0.0105001
498 2 47 4 0 1 2 5 0.0389271 1 0 0
499 2 48 4 0 1 2 5 0.0387987 1 0 0
549 1 47.4988 4.8643 0 1.02093 2 0 0.0532332 1 0.000686461 -0.00519268
500 2 49 4 0 1 2 5 0.0386906 1 0 0
550 1 48.4986 4.86509 0 1.02225 2 0 0.0532978 1 0.006472 -0.00680354
8501 1 49.5029 4.86442 0 1.06187 2 0 0.0534013 1 -0.00842874 -0.000897202
501 2 0 5 0 1 2 8 0.000665844 1 0 0
502 2 1 5 0 1 2 8 0.000986421 1 0 0
551 2 0 6 0 1 2 8 0.000942216 1 0 0
552 2 1 6 0 1 2 8 0.0014043 1 0 0
503 2 2 5 0 1 2 8 0.00206946 1 0 0
504 2 3 5 0 1 2 8 0.00406783 1 0 0
553 2 2 6 0 1 2 8 0.00294655 1 0 0
554 2 3 6 0 1 2 8 0.00573533 1 0 0
505 2 4 5 0 1 2 6 0.0069437 1 0 0
555 2 4 6 0 1 2 5 0.00948973 1 0 0
556 1 4.97122 5.72433 0 1.02426 2 0 0.0127681 1 -0.00853859 0.00383694
557 1 5.96795 5.74512 0 1.00456 2 0 0.0161735 1 0.00420442 -0.00286232
558 1 6.98624 5.73419 0 1.00032 2 0 0.0192077 1 0.0026606 0.00455735
509 1 7.98678 5.73214 0 1.00999 2 0 0.0222445 1 -0.00299147 -0.00348958
560 1 8.98629 5.73233 0 1.01571 2 0 0.02518 1 0.00301711 -0.00808866
561 1 9.99681 5.72671 0 1.04128 2 0 0.0280357 1 -0.000569406 0.00421892
562 1 10.9974 5.72873 0 1.02468 2 0 0.0307912 1 0.000918308 -0.00376944
563 1 11.9982 5.73049 0 1.00884 2 0 0.0334171 1 -8.76167e-05 -0.00403968
565 1 12.9988 5.73018 0 1.01555 2 0 0.0359385 1 -0.00336006 -0.00175349
566 1 13.9973 5.73183 0 1.01485 2 0 0.0383362 1 0.00454452 -0.00321662
567 1 14.9995 5.72558 0 1.00349 2 0 0.0405817 1 -0.00201438 0.00811422
568 1 15.9979 5.7272 0 1.02492 2 0 0.0427232 1 0.00381602 0.00100207
569 1 18.0013 5.73099 0 1.01386 2 0 0.0466067 1 -0.00085694 -0.0149273
618 1 16.9974 5.7288 0 1.00786 2 0 0.0447373 1 0.00229609 -0.00369405
570 1 19.0022 5.72712 0 1.00562 2 0 0.0483122 1 -0.00212013 0.00388974
571 1 20.0028 5.72667 0 1.00943 2 0 0.0499006 1 0.000736345 0.0010268
572 1 21.0043 5.72617 0 1.02492 2 0 0.0514057 1 0.00463082 -0.00371109
573 1 22.0052 5.72663 0 1.00977 2 0 0.0528206 1 0.00209944 0.00753305
574 1 23.0044 5.72907 0 1.00488 2 0 0.0541215 1 0.00401812 -0.000423657
575 1 24.0088 5.72836 0 1.01237 2 0 0.0553611 1 -0.00795477 0.00251569
576 1 25.0064 5.72749 0 1.01087 2 0 0.0565155 1 -0.00628881 0.00194831
577 1 26.0017 5.72737 0 1.01133 2 0 0.0576017 1 0.00813806 0.0030738
579 1 27.0041 5.72989 0 1.01129 2 0 0.0585924 1 0.00115021 0.00280766
580 1 28.0034 5.72927 0 1.02117 2 0 0.0595134 1 0.00309636 0.00316875
581 1 29.0073 5.73508 0 1.01861 2 0 0.0603948 1 -0.00113162 -0.002718
632 1 30.008 5.73698 0 1.0167 2 0 0.0611547 1 -0.00152724 0.00271602
582 1 31.0083 5.73939 0 1.0143 2 0 0.0618532 1 -0.00556629 -0.00302366
583 1 32.0063 5.72996 0 1.0088 2 0 0.0624843 1 0.00484707 0.0108295
584 1 33.0059 5.73813 0 1.00514 2 0 0.063039 1 0.00236162 -0.0117898
585 1 34.0052 5.72847 0 1.02197 2 0 0.0635758 1 -0.00147385 0.00901793
586 1 35.0053 5.72833 0 1.02669 2 0 0.0640256 1 -0.00701502 0.0111953
587 1 36.002 5.73107 0 1.01702 2 0 0.0644299 1 0.00659265 -0.0030851
588 1 37.0062 5.73579 0 1.01798 2 0 0.0647826 1 -0.00845424 -0.000904611
589 1 38.0028 5.74122 0 1.01656 2 0 0.0650409 1 0.00311081 3.40302e-06
590 1 39.0009 5.73692 0 1.01208 2 0 0.0652471 1 -0.000850884 0.00532108
591 1 39.9986 5.74271 0 1.01334 2 0 0.0654771 1 0.00305675 -1.18516e-05
592 1 40.9978 5.7345 0 1.02633 2 0 0.0657595 1 -0.00476409 3.20762e-05
594 1 42.9936 5.74534 0 1.01497 2 0 0.066155 1 0.00267842 -0.00612776
593 1 41.9947 5.74 0 1.02837 2 0 0.0660312 1 0.00415683 -2.6691e-05
595 1 43.9945 5.74441 0 1.01694 2 0 0.0662674 1 -0.00456866 -0.00621902
596 1 44.9939 5.7323 0 1.01116 2 0 0.0663871 1 0.000746798 -0.000509984
597 1 45.9947 5.72969 0 1.01212 2 0 0.0665994 1 -0.00343523 0.000732791
598 1 47.0053 5.73078 0 1.00861 2 0 0.0667919 1 -0.0136972 -0.00616808
599 1 48.0002 5.72605 0 1.02545 2 0 0.0669792 1 0.00298508 0.0140854
600 1 48.9976 5.73129 0 1.00476 2 0 0.0671694 1 0.00171712 0.000626341
10351 1 49.8668 38.6914 0 1.00427 0 0 0.450577 1 0.000458354 -0.000142311
601 2 0 7 0 1 2 8 0.00123161 1 0 0
602 2 1 7 0 1 2 8 0.00184658 1 0 0
651 2 0 8 0 1 2 8 0.00150941 1 0 0
652 2 1 8 0 1 2 8 0.00227751 1 0 0
603 2 2 7 0 1 2 8 0.00387967 1 0 0
604 2 3 7 0 1 2 8 0.00751934 1 0 0
653 2 2 8 0 1 2 8 0.00479921 1 0 0
654 2 3 8 0 1 2 8 0.00931133 1 0 0
605 2 4 7 0 1 2 5 0.0122063 1 0 0
655 2 4 8 0 1 2 5 0.0148321 1 0 0
656 1 4.8783 7.48402 0 1.01253 2 0 0.0170441 1 0 -5e-05
606 1 5.42194 6.62431 0 1.01839 2 0 0.0170492 1 0 -5e-05
607 1 6.47717 6.60136 0 1.01626 2 0 0.0205333 1 0.00343267 0.0057021
657 1 5.88562 7.51651 0 1.02523 2 0 0.0212686 1 0 -5e-05
608 1 7.48188 6.60232 0 1.01581 2 0 0.023985 1 -0.0018143 -0.00316805
609 1 7.98259 7.46545 0 1.00447 2 0 0.0290364 1 1.46988e-05 -0.000400448
658 1 6.97757 7.46667 0 1.00499 2 0 0.0253201 1 0.000519613 0.000488502
559 1 8.48496 6.59366 0 1.01669 2 0 0.0273364 1 -0.000123967 0.0115346
610 1 9.49357 6.59057 0 1.00382 2 0 0.0306267 1 0.000225855 0.000888278
661 1 8.99047 7.45472 0 1.00906 2 0 0.0327381 1 0.00420827 -0.00572858
612 1 9.99382 7.45338 0 1.00002 2 0 0.0363619 1 0.00101434 0.00366809
611 1 10.4962 6.59106 0 1.00368 2 0 0.0338314 1 0.000703476 0.00392658
564 1 11.4959 6.59319 0 1.01095 2 0 0.0369319 1 -0.00110235 0.0031345
613 1 10.9927 7.4595 0 1.00877 2 0 0.0399474 1 0.000223352 -0.0106179
614 1 12.4977 6.59517 0 1.01882 2 0 0.0399428 1 -0.00387086 -0.00379588
665 1 12.9934 7.45927 0 1.00809 2 0 0.0468683 1 0.00116462 0.00455616
664 1 11.9924 7.45888 0 1.0022 2 0 0.0434528 1 0.00256537 -0.00420631
615 1 13.4972 6.59582 0 1.00601 2 0 0.0428492 1 -0.00291362 -0.00235839
616 1 14.4992 6.59586 0 1.00878 2 0 0.0456122 1 -0.00254097 -0.00111308
666 1 13.992 7.46043 0 0.997531 2 0 0.0501439 1 0.00628866 0.00261739
667 1 14.9978 7.46105 0 1.00922 2 0 0.053308 1 -0.00429389 -0.00686395
617 1 15.4982 6.59166 0 1.01132 2 0 0.0482548 1 -0.00348643 -0.00125561
668 1 15.9964 7.45553 0 1.01232 2 0 0.056348 1 0.00034866 0.00411743
619 1 16.4974 6.59281 0 1.00791 2 0 0.0507859 1 0.0014529 -0.00293198
669 1 17.4987 6.59106 0 1.0115 2 0 0.053173 1 -0.0014345 0.003085
719 1 17.0002 7.45534 0 1.0104 2 0 0.0592615 1 -0.00678328 -0.00401735
720 1 17.9987 7.45432 0 1.00384 2 0 0.0620074 1 0.00318318 0.0015941
620 1 18.5005 6.59119 0 1.00047 2 0 0.0554057 1 0.00339179 0.0031589
621 1 19.5054 6.58878 0 1.01086 2 0 0.0574937 1 0.000858858 0.00498046
670 1 19.0058 7.45081 0 1.01205 2 0 0.0646314 1 0.00314605 0.00448203
671 1 20.014 7.44937 0 1.01101 2 0 0.0671161 1 -0.0060613 -0.0054753
622 1 20.5116 6.58734 0 1.02282 2 0 0.0595006 1 -0.00803407 0.00430679
623 1 21.5095 6.58854 0 1.01715 2 0 0.0613658 1 0.0050073 0.000459725
672 1 21.0145 7.45059 0 1.01032 2 0 0.0694454 1 -0.00351369 0.0035484
673 1 22.0128 7.45655 0 1.00705 2 0 0.0715925 1 0.0012321 0.00369898
624 1 22.5102 6.59493 0 1.00933 2 0 0.0630628 1 0.000962958 -0.00368426
674 1 23.015 7.46077 0 1.01197 2 0 0.073625 1 -0.00102437 -0.00665793
625 1 23.5096 6.59199 0 1.01358 2 0 0.0646749 1 -0.000889148 0.00380316
626 1 24.5104 6.59253 0 1.01095 2 0 0.0662054 1 -0.0114007 0.00504088
675 1 24.0151 7.46041 0 1.00974 2 0 0.0755522 1 -0.00282415 -0.00372792
676 1 25.0126 7.46014 0 1.01754 2 0 0.0773233 1 0.00433156 0.0009957
578 1 26.5049 6.59176 0 1.0136 2 0 0.0689524 1 -0.000410505 0.00243538
628 1 26.0135 7.45978 0 1.00647 2 0 0.0789843 1 -0.00907063 0.00184514
627 1 25.5054 6.59365 0 1.0116 2 0 0.0676282 1 0.0109158 -0.00213926
629 1 27.5065 6.59571 0 1.00585 2 0 0.0701695 1 -4.97796e-05 3.6873e-05
679 1 28.0087 7.4674 0 1.01276 2 0 0.0819723 1 -0.00321746 -0.01129
678 1 27.0095 7.46217 0 1.01987 2 0 0.0805116 1 0.00534399 0.0019017
630 1 28.507 6.60012 0 1.00031 2 0 0.0713589 1 -0.00471636 -0.00362823
631 1 29.5063 6.60012 0 1.01679 2 0 0.0723982 1 0.00163005 -0.000112749
680 1 29.0058 7.46369 0 1.0041 2 0 0.0833098 1 0.00207428 0.00684224
681 1 30.0031 7.46663 0 1.0067 2 0 0.0845235 1 0.00492992 0.00458024
682 1 30.511 6.60695 0 1.0233 2 0 0.0733239 1 0.00144654 -0.00249509
633 1 31.5153 6.59937 0 1.00197 2 0 0.0741502 1 -0.00250477 0.00210216
732 1 31.022 7.46703 0 1.02086 2 0 0.0855829 1 -0.0122163 -0.00474956
683 1 32.0192 7.46893 0 1.00602 2 0 0.0864952 1 0.000403161 0.00067014
684 1 32.513 6.60264 0 1.01173 2 0 0.0748994 1 -0.000802647 0.00341064
734 1 33.0197 7.46895 0 1.01306 2 0 0.0873445 1 -0.00493757 -0.00232283
634 1 33.5112 6.59885 0 1.00318 2 0 0.0756119 1 -0.00173127 0.00217441
635 1 34.5073 6.59458 0 1.01335 2 0 0.0762501 1 0.00347226 -0.00506604
685 1 34.0185 7.46275 0 1.01182 2 0 0.0881466 1 -0.00843262 0.00626604
686 1 35.0149 7.46539 0 1.01566 2 0 0.0888972 1 -0.00933687 0.00618521
636 1 35.5038 6.59718 0 1.01343 2 0 0.0768124 1 -0.00196582 -0.00489625
637 1 36.4979 6.59638 0 0.995425 2 0 0.077288 1 0.0129758 0.00540646