ITEM: TIMESTEP
42000
ITEM: NUMBER OF ATOMS
15950
ITEM: BOX BOUNDS pp pp pp
0.0000000000000000e+00 1.0000000000000000e+02
-5.0000000000000000e+00 2.0000000000000000e+02
-5.0000000000000000e-01 5.0000000000000000e-01
ITEM: ATOMS id type x y z c_rho c_phase c_nbond c_temp f_rheo_chi_chi fx fy
1 2 0 -5 0 1 2 8 2.6321e-08 1 0 0
2 2 1 -5 0 1 2 8 3.42591e-08 1 0 0
51 2 0 -4 0 1 2 8 1.13346e-07 1 0 0
52 2 1 -4 0 1 2 8 1.50326e-07 1 0 0
3 2 2 -5 0 1 2 8 6.04568e-08 1 0 0
4 2 3 -5 0 1 2 8 1.0788e-07 1 0 0
53 2 2 -4 0 1 2 8 2.73294e-07 1 0 0
54 2 3 -4 0 1 2 8 4.96881e-07 1 0 0
5 2 4 -5 0 1 2 7 1.82415e-07 1 0 0
55 2 4 -4 0 1 2 8 8.29937e-07 1 0 0
6 2 5 -5 0 1 2 6 2.93502e-07 1 0 0
7 2 6 -5 0 1 2 5 4.16598e-07 1 0 0
56 2 5 -4 0 1 2 8 1.26118e-06 1 0 0
57 2 6 -4 0 1 2 8 1.74539e-06 1 0 0
8 2 7 -5 0 1 2 5 5.31505e-07 1 0 0
9 2 8 -5 0 1 2 5 6.34947e-07 1 0 0
58 2 7 -4 0 1 2 8 2.22936e-06 1 0 0
59 2 8 -4 0 1 2 8 2.66948e-06 1 0 0
10 2 9 -5 0 1 2 5 7.2196e-07 1 0 0
60 2 9 -4 0 1 2 8 3.04058e-06 1 0 0
11 2 10 -5 0 1 2 5 7.9175e-07 1 0 0
12 2 11 -5 0 1 2 5 8.47121e-07 1 0 0
61 2 10 -4 0 1 2 8 3.33929e-06 1 0 0
62 2 11 -4 0 1 2 8 3.5778e-06 1 0 0
13 2 12 -5 0 1 2 5 8.91986e-07 1 0 0
14 2 13 -5 0 1 2 5 9.29023e-07 1 0 0
63 2 12 -4 0 1 2 8 3.77268e-06 1 0 0
64 2 13 -4 0 1 2 8 3.9347e-06 1 0 0
15 2 14 -5 0 1 2 5 9.58938e-07 1 0 0
65 2 14 -4 0 1 2 8 4.06578e-06 1 0 0
16 2 15 -5 0 1 2 5 9.81706e-07 1 0 0
17 2 16 -5 0 1 2 5 9.98201e-07 1 0 0
66 2 15 -4 0 1 2 8 4.1651e-06 1 0 0
67 2 16 -4 0 1 2 8 4.23698e-06 1 0 0
18 2 17 -5 0 1 2 5 1.01015e-06 1 0 0
19 2 18 -5 0 1 2 5 1.01843e-06 1 0 0
68 2 17 -4 0 1 2 8 4.29033e-06 1 0 0
69 2 18 -4 0 1 2 8 4.32999e-06 1 0 0
20 2 19 -5 0 1 2 5 1.02197e-06 1 0 0
70 2 19 -4 0 1 2 8 4.35088e-06 1 0 0
21 2 20 -5 0 1 2 5 1.01864e-06 1 0 0
22 2 21 -5 0 1 2 5 1.0076e-06 1 0 0
71 2 20 -4 0 1 2 8 4.34261e-06 1 0 0
72 2 21 -4 0 1 2 8 4.3004e-06 1 0 0
23 2 22 -5 0 1 2 5 9.9108e-07 1 0 0
24 2 23 -5 0 1 2 5 9.74214e-07 1 0 0
73 2 22 -4 0 1 2 8 4.23308e-06 1 0 0
74 2 23 -4 0 1 2 8 4.16275e-06 1 0 0
25 2 24 -5 0 1 2 5 9.63197e-07 1 0 0
75 2 24 -4 0 1 2 8 4.11666e-06 1 0 0
26 2 25 -5 0 1 2 5 9.62512e-07 1 0 0
27 2 26 -5 0 1 2 5 9.72843e-07 1 0 0
76 2 25 -4 0 1 2 8 4.11488e-06 1 0 0
77 2 26 -4 0 1 2 8 4.16037e-06 1 0 0
28 2 27 -5 0 1 2 5 9.91111e-07 1 0 0
29 2 28 -5 0 1 2 5 1.01264e-06 1 0 0
78 2 27 -4 0 1 2 8 4.23892e-06 1 0 0
79 2 28 -4 0 1 2 8 4.32946e-06 1 0 0
30 2 29 -5 0 1 2 5 1.03355e-06 1 0 0
80 2 29 -4 0 1 2 8 4.41562e-06 1 0 0
31 2 30 -5 0 1 2 5 1.05149e-06 1 0 0
32 2 31 -5 0 1 2 5 1.06496e-06 1 0 0
81 2 30 -4 0 1 2 8 4.48878e-06 1 0 0
82 2 31 -4 0 1 2 8 4.54368e-06 1 0 0
33 2 32 -5 0 1 2 5 1.07285e-06 1 0 0
34 2 33 -5 0 1 2 5 1.0751e-06 1 0 0
83 2 32 -4 0 1 2 8 4.57583e-06 1 0 0
84 2 33 -4 0 1 2 8 4.5846e-06 1 0 0
35 2 34 -5 0 1 2 5 1.07314e-06 1 0 0
85 2 34 -4 0 1 2 8 4.5762e-06 1 0 0
36 2 35 -5 0 1 2 5 1.06907e-06 1 0 0
37 2 36 -5 0 1 2 5 1.06401e-06 1 0 0
86 2 35 -4 0 1 2 8 4.56003e-06 1 0 0
87 2 36 -4 0 1 2 8 4.54091e-06 1 0 0
38 2 37 -5 0 1 2 5 1.05725e-06 1 0 0
39 2 38 -5 0 1 2 5 1.04715e-06 1 0 0
88 2 37 -4 0 1 2 8 4.51519e-06 1 0 0
89 2 38 -4 0 1 2 8 4.47459e-06 1 0 0
40 2 39 -5 0 1 2 5 1.0329e-06 1 0 0
90 2 39 -4 0 1 2 8 4.41456e-06 1 0 0
41 2 40 -5 0 1 2 5 1.01613e-06 1 0 0
42 2 41 -5 0 1 2 5 1.00103e-06 1 0 0
91 2 40 -4 0 1 2 8 4.3416e-06 1 0 0
92 2 41 -4 0 1 2 8 4.27436e-06 1 0 0
43 2 42 -5 0 1 2 5 9.92621e-07 1 0 0
44 2 43 -5 0 1 2 5 9.93728e-07 1 0 0
93 2 42 -4 0 1 2 8 4.23595e-06 1 0 0
94 2 43 -4 0 1 2 8 4.24005e-06 1 0 0
45 2 44 -5 0 1 2 5 1.00267e-06 1 0 0
95 2 44 -4 0 1 2 8 4.27972e-06 1 0 0
46 2 45 -5 0 1 2 5 1.01373e-06 1 0 0
47 2 46 -5 0 1 2 5 1.02061e-06 1 0 0
96 2 45 -4 0 1 2 8 4.32915e-06 1 0 0
97 2 46 -4 0 1 2 8 4.35951e-06 1 0 0
48 2 47 -5 0 1 2 5 1.02042e-06 1 0 0
49 2 48 -5 0 1 2 5 1.01534e-06 1 0 0
98 2 47 -4 0 1 2 8 4.35776e-06 1 0 0
99 2 48 -4 0 1 2 8 4.33404e-06 1 0 0
50 2 49 -5 0 1 2 5 1.01062e-06 1 0 0
100 2 49 -4 0 1 2 8 4.31257e-06 1 0 0
101 2 0 -3 0 1 2 8 4.48648e-07 1 0 0
102 2 1 -3 0 1 2 8 6.07411e-07 1 0 0
151 2 0 -2 0 1 2 8 1.61892e-06 1 0 0
152 2 1 -2 0 1 2 8 2.24083e-06 1 0 0
103 2 2 -3 0 1 2 8 1.14083e-06 1 0 0
104 2 3 -3 0 1 2 8 2.12539e-06 1 0 0
153 2 2 -2 0 1 2 8 4.35552e-06 1 0 0
154 2 3 -2 0 1 2 8 8.3317e-06 1 0 0
105 2 4 -3 0 1 2 8 3.60535e-06 1 0 0
155 2 4 -2 0 1 2 8 1.44083e-05 1 0 0
106 2 5 -3 0 1 2 8 5.51813e-06 1 0 0
107 2 6 -3 0 1 2 8 7.6804e-06 1 0 0
156 2 5 -2 0 1 2 8 2.23442e-05 1 0 0
157 2 6 -2 0 1 2 8 3.13508e-05 1 0 0
108 2 7 -3 0 1 2 8 9.85175e-06 1 0 0
109 2 8 -3 0 1 2 8 1.18262e-05 1 0 0
158 2 7 -2 0 1 2 8 4.03924e-05 1 0 0
159 2 8 -2 0 1 2 8 4.86047e-05 1 0 0
110 2 9 -3 0 1 2 8 1.34914e-05 1 0 0
160 2 9 -2 0 1 2 8 5.55368e-05 1 0 0
111 2 10 -3 0 1 2 8 1.48354e-05 1 0 0
112 2 11 -3 0 1 2 8 1.59153e-05 1 0 0
161 2 10 -2 0 1 2 8 6.11565e-05 1 0 0
162 2 11 -2 0 1 2 8 6.57084e-05 1 0 0
113 2 12 -3 0 1 2 8 1.68061e-05 1 0 0
114 2 13 -3 0 1 2 8 1.75536e-05 1 0 0
163 2 12 -2 0 1 2 8 6.95045e-05 1 0 0
164 2 13 -2 0 1 2 8 7.27235e-05 1 0 0
115 2 14 -3 0 1 2 8 1.81602e-05 1 0 0
165 2 14 -2 0 1 2 8 7.53474e-05 1 0 0
116 2 15 -3 0 1 2 8 1.86176e-05 1 0 0
117 2 16 -3 0 1 2 8 1.89477e-05 1 0 0
166 2 15 -2 0 1 2 8 7.7318e-05 1 0 0
167 2 16 -2 0 1 2 8 7.87392e-05 1 0 0
118 2 17 -3 0 1 2 8 1.91991e-05 1 0 0
119 2 18 -3 0 1 2 8 1.93989e-05 1 0 0
168 2 17 -2 0 1 2 8 7.98519e-05 1 0 0
169 2 18 -2 0 1 2 8 8.07935e-05 1 0 0
120 2 19 -3 0 1 2 8 1.95218e-05 1 0 0
170 2 19 -2 0 1 2 8 8.14452e-05 1 0 0
121 2 20 -3 0 1 2 8 1.95136e-05 1 0 0
122 2 21 -3 0 1 2 8 1.93467e-05 1 0 0
171 2 20 -2 0 1 2 8 8.155e-05 1 0 0
172 2 21 -2 0 1 2 8 8.09699e-05 1 0 0
123 2 22 -3 0 1 2 8 1.90585e-05 1 0 0
124 2 23 -3 0 1 2 8 1.87491e-05 1 0 0
173 2 22 -2 0 1 2 8 7.98499e-05 1 0 0
174 2 23 -2 0 1 2 8 7.86076e-05 1 0 0
125 2 24 -3 0 1 2 8 1.85455e-05 1 0 0
175 2 24 -2 0 1 2 8 7.77871e-05 1 0 0
126 2 25 -3 0 1 2 8 1.85434e-05 1 0 0
127 2 26 -3 0 1 2 8 1.87566e-05 1 0 0
176 2 25 -2 0 1 2 8 7.78114e-05 1 0 0
177 2 26 -2 0 1 2 8 7.87431e-05 1 0 0
128 2 27 -3 0 1 2 8 1.91149e-05 1 0 0
129 2 28 -3 0 1 2 8 1.95168e-05 1 0 0
178 2 27 -2 0 1 2 8 8.02607e-05 1 0 0
179 2 28 -2 0 1 2 8 8.19109e-05 1 0 0
130 2 29 -3 0 1 2 8 1.989e-05 1 0 0
180 2 29 -2 0 1 2 8 8.33981e-05 1 0 0
131 2 30 -3 0 1 2 8 2.02034e-05 1 0 0
132 2 31 -3 0 1 2 8 2.04398e-05 1 0 0
181 2 30 -2 0 1 2 8 8.46339e-05 1 0 0
182 2 31 -2 0 1 2 8 8.55763e-05 1 0 0
133 2 32 -3 0 1 2 8 2.05786e-05 1 0 0
134 2 33 -3 0 1 2 8 2.06144e-05 1 0 0
183 2 32 -2 0 1 2 8 8.61365e-05 1 0 0
184 2 33 -2 0 1 2 8 8.62755e-05 1 0 0
135 2 34 -3 0 1 2 8 2.05757e-05 1 0 0
185 2 34 -2 0 1 2 8 8.6114e-05 1 0 0
136 2 35 -3 0 1 2 8 2.05082e-05 1 0 0
137 2 36 -3 0 1 2 8 2.04345e-05 1 0 0
186 2 35 -2 0 1 2 8 8.58582e-05 1 0 0
187 2 36 -2 0 1 2 8 8.56086e-05 1 0 0
138 2 37 -3 0 1 2 8 2.03349e-05 1 0 0
139 2 38 -3 0 1 2 8 2.01657e-05 1 0 0
188 2 37 -2 0 1 2 8 8.52672e-05 1 0 0
189 2 38 -2 0 1 2 8 8.46271e-05 1 0 0
140 2 39 -3 0 1 2 8 1.99008e-05 1 0 0
190 2 39 -2 0 1 2 8 8.35548e-05 1 0 0
141 2 40 -3 0 1 2 8 1.95668e-05 1 0 0
142 2 41 -3 0 1 2 8 1.92509e-05 1 0 0
191 2 40 -2 0 1 2 8 8.21473e-05 1 0 0
192 2 41 -2 0 1 2 8 8.07787e-05 1 0 0
143 2 42 -3 0 1 2 8 1.9066e-05 1 0 0
144 2 43 -3 0 1 2 8 1.90825e-05 1 0 0
193 2 42 -2 0 1 2 8 7.99575e-05 1 0 0
194 2 43 -2 0 1 2 8 8.00161e-05 1 0 0
145 2 44 -3 0 1 2 8 1.92702e-05 1 0 0
195 2 44 -2 0 1 2 8 8.08358e-05 1 0 0
146 2 45 -3 0 1 2 8 1.95051e-05 1 0 0
147 2 46 -3 0 1 2 8 1.96466e-05 1 0 0
196 2 45 -2 0 1 2 8 8.18641e-05 1 0 0
197 2 46 -2 0 1 2 8 8.24703e-05 1 0 0
148 2 47 -3 0 1 2 8 1.96321e-05 1 0 0
149 2 48 -3 0 1 2 8 1.95124e-05 1 0 0
198 2 47 -2 0 1 2 8 8.23763e-05 1 0 0
199 2 48 -2 0 1 2 8 8.18183e-05 1 0 0
150 2 49 -3 0 1 2 8 1.94065e-05 1 0 0
200 2 49 -2 0 1 2 8 8.13348e-05 1 0 0
201 2 0 -1 0 1 2 8 5.27888e-06 1 0 0
202 2 1 -1 0 1 2 8 7.47734e-06 1 0 0
203 2 2 -1 0 1 2 8 1.50523e-05 1 0 0
204 2 3 -1 0 1 2 8 2.95936e-05 1 0 0
205 2 4 -1 0 1 2 8 5.22344e-05 1 0 0
206 2 5 -1 0 1 2 8 8.21405e-05 1 0 0
207 2 6 -1 0 1 2 8 0.00011619 1 0 0
208 2 7 -1 0 1 2 8 0.000150316 1 0 0
209 2 8 -1 0 1 2 8 0.000181269 1 0 0
210 2 9 -1 0 1 2 8 0.000207456 1 0 0
211 2 10 -1 0 1 2 8 0.000228832 1 0 0
212 2 11 -1 0 1 2 8 0.000246328 1 0 0
213 2 12 -1 0 1 2 8 0.000261103 1 0 0
214 2 13 -1 0 1 2 8 0.00027378 1 0 0
215 2 14 -1 0 1 2 8 0.000284179 1 0 0
216 2 15 -1 0 1 2 8 0.000291979 1 0 0
217 2 16 -1 0 1 2 8 0.000297621 1 0 0
218 2 17 -1 0 1 2 8 0.000302173 1 0 0
219 2 18 -1 0 1 2 8 0.000306249 1 0 0
220 2 19 -1 0 1 2 8 0.000309338 1 0 0
221 2 20 -1 0 1 2 8 0.000310352 1 0 0
222 2 21 -1 0 1 2 8 0.000308701 1 0 0
223 2 22 -1 0 1 2 8 0.000304898 1 0 0
224 2 23 -1 0 1 2 8 0.000300497 1 0 0
225 2 24 -1 0 1 2 8 0.000297582 1 0 0
226 2 25 -1 0 1 2 8 0.000297849 1 0 0
227 2 26 -1 0 1 2 8 0.000301565 1 0 0
228 2 27 -1 0 1 2 8 0.000307405 1 0 0
229 2 28 -1 0 1 2 8 0.000313529 1 0 0
230 2 29 -1 0 1 2 8 0.000318856 1 0 0
231 2 30 -1 0 1 2 8 0.000323236 1 0 0
232 2 31 -1 0 1 2 8 0.000326646 1 0 0
233 2 32 -1 0 1 2 8 0.000328724 1 0 0
234 2 33 -1 0 1 2 8 0.00032924 1 0 0
235 2 34 -1 0 1 2 8 0.000328651 1 0 0
236 2 35 -1 0 1 2 8 0.000327806 1 0 0
237 2 36 -1 0 1 2 8 0.000327108 1 0 0
238 2 37 -1 0 1 2 8 0.000326128 1 0 0
239 2 38 -1 0 1 2 8 0.000323995 1 0 0
240 2 39 -1 0 1 2 8 0.000320118 1 0 0
241 2 40 -1 0 1 2 8 0.0003148 1 0 0
242 2 41 -1 0 1 2 8 0.000309471 1 0 0
243 2 42 -1 0 1 2 8 0.000306187 1 0 0
244 2 43 -1 0 1 2 8 0.00030636 1 0 0
245 2 44 -1 0 1 2 8 0.000309579 1 0 0
246 2 45 -1 0 1 2 8 0.000313627 1 0 0
247 2 46 -1 0 1 2 8 0.000315949 1 0 0
248 2 47 -1 0 1 2 8 0.000315446 1 0 0
249 2 48 -1 0 1 2 8 0.000313105 1 0 0
250 2 49 -1 0 1 2 8 0.000311114 1 0 0
251 2 0 0 0 1 2 8 1.54157e-05 1 0 0
252 2 1 0 0 1 2 8 2.23453e-05 1 0 0
301 2 0 1 0 1 2 8 3.99867e-05 1 0 0
302 2 1 1 0 1 2 8 5.92294e-05 1 0 0
253 2 2 0 0 1 2 8 4.65522e-05 1 0 0
254 2 3 0 0 1 2 8 9.40625e-05 1 0 0
303 2 2 1 0 1 2 8 0.000127288 1 0 0
304 2 3 1 0 1 2 8 0.000263746 1 0 0
255 2 4 0 0 1 2 8 0.000169566 1 0 0
305 2 4 1 0 1 2 8 0.00048534 1 0 0
256 2 5 0 0 1 2 8 0.000270513 1 0 0
257 2 6 0 0 1 2 8 0.000385637 1 0 0
306 2 5 1 0 1 2 8 0.000785572 1 0 0
307 2 6 1 0 1 2 8 0.00112754 1 0 0
258 2 7 0 0 1 2 8 0.000500577 1 0 0
259 2 8 0 0 1 2 8 0.000604656 1 0 0
308 2 7 1 0 1 2 8 0.00146617 1 0 0
309 2 8 1 0 1 2 8 0.00177222 1 0 0
260 2 9 0 0 1 2 8 0.000693107 1 0 0
310 2 9 1 0 1 2 8 0.00203438 1 0 0
261 2 10 0 0 1 2 8 0.000766046 1 0 0
262 2 11 0 0 1 2 8 0.000826549 1 0 0
311 2 10 1 0 1 2 8 0.00225376 1 0 0
312 2 11 1 0 1 2 8 0.00243886 1 0 0
263 2 12 0 0 1 2 8 0.000878368 1 0 0
264 2 13 0 0 1 2 8 0.000923417 1 0 0
313 2 12 1 0 1 2 8 0.0025999 1 0 0
314 2 13 1 0 1 2 8 0.00274193 1 0 0
265 2 14 0 0 1 2 8 0.0009607 1 0 0
315 2 14 1 0 1 2 8 0.00286098 1 0 0
266 2 15 0 0 1 2 8 0.000988769 1 0 0
267 2 16 0 0 1 2 8 0.00100926 1 0 0
316 2 15 1 0 1 2 8 0.00295162 1 0 0
317 2 16 1 0 1 2 8 0.00301907 1 0 0
268 2 17 0 0 1 2 8 0.00102634 1 0 0
269 2 18 0 0 1 2 8 0.00104236 1 0 0
318 2 17 1 0 1 2 8 0.00307722 1 0 0
319 2 18 1 0 1 2 8 0.00313366 1 0 0
270 2 19 0 0 1 2 8 0.00105536 1 0 0
320 2 19 1 0 1 2 8 0.00318158 1 0 0
271 2 20 0 0 1 2 8 0.00106127 1 0 0
272 2 21 0 0 1 2 8 0.00105801 1 0 0
321 2 20 1 0 1 2 8 0.00320818 1 0 0
322 2 21 1 0 1 2 8 0.00320749 1 0 0
273 2 22 0 0 1 2 8 0.00104724 1 0 0
274 2 23 0 0 1 2 8 0.00103396 1 0 0
323 2 22 1 0 1 2 8 0.00318443 1 0 0
324 2 23 1 0 1 2 8 0.0031525 1 0 0
275 2 24 0 0 1 2 8 0.00102517 1 0 0
325 2 24 1 0 1 2 8 0.00313158 1 0 0
276 2 25 0 0 1 2 8 0.00102691 1 0 0
277 2 26 0 0 1 2 8 0.00104026 1 0 0
326 2 25 1 0 1 2 8 0.00314041 1 0 0
327 2 26 1 0 1 2 8 0.00318292 1 0 0
278 2 27 0 0 1 2 8 0.0010604 1 0 0
279 2 28 0 0 1 2 8 0.00108065 1 0 0
328 2 27 1 0 1 2 8 0.00324408 1 0 0
329 2 28 1 0 1 2 8 0.00330284 1 0 0
280 2 29 0 0 1 2 8 0.00109754 1 0 0
330 2 29 1 0 1 2 8 0.00334955 1 0 0
281 2 30 0 0 1 2 8 0.00111132 1 0 0
282 2 31 0 0 1 2 8 0.00112241 1 0 0
331 2 30 1 0 1 2 8 0.00338753 1 0 0
332 2 31 1 0 1 2 8 0.00341971 1 0 0
283 2 32 0 0 1 2 8 0.00112946 1 0 0
284 2 33 0 0 1 2 8 0.00113131 1 0 0
333 2 32 1 0 1 2 8 0.00344144 1 0 0
334 2 33 1 0 1 2 8 0.00344795 1 0 0
285 2 34 0 0 1 2 8 0.00112951 1 0 0
335 2 34 1 0 1 2 8 0.00344371 1 0 0
286 2 35 0 0 1 2 8 0.00112719 1 0 0
287 2 36 0 0 1 2 8 0.00112578 1 0 0
336 2 35 1 0 1 2 8 0.00343894 1 0 0
337 2 36 1 0 1 2 8 0.00343805 1 0 0
288 2 37 0 0 1 2 8 0.00112363 1 0 0
289 2 38 0 0 1 2 8 0.00111755 1 0 0
338 2 37 1 0 1 2 8 0.00343546 1 0 0
339 2 38 1 0 1 2 8 0.00342133 1 0 0
290 2 39 0 0 1 2 8 0.00110531 1 0 0
340 2 39 1 0 1 2 8 0.00338874 1 0 0
291 2 40 0 0 1 2 8 0.00108767 1 0 0
292 2 41 0 0 1 2 8 0.0010694 1 0 0
341 2 40 1 0 1 2 8 0.00333895 1 0 0
342 2 41 1 0 1 2 8 0.00328528 1 0 0
293 2 42 0 0 1 2 8 0.00105781 1 0 0
294 2 43 0 0 1 2 8 0.00105821 1 0 0
343 2 42 1 0 1 2 8 0.00325014 1 0 0
344 2 43 1 0 1 2 8 0.00325075 1 0 0
295 2 44 0 0 1 2 8 0.00106936 1 0 0
345 2 44 1 0 1 2 8 0.00328407 1 0 0
296 2 45 0 0 1 2 8 0.0010834 1 0 0
297 2 46 0 0 1 2 8 0.0010912 1 0 0
346 2 45 1 0 1 2 8 0.00332595 1 0 0
347 2 46 1 0 1 2 8 0.00334822 1 0 0
298 2 47 0 0 1 2 8 0.00108893 1 0 0
299 2 48 0 0 1 2 8 0.00108027 1 0 0
348 2 47 1 0 1 2 8 0.00333971 1 0 0
349 2 48 1 0 1 2 8 0.00331221 1 0 0
300 2 49 0 0 1 2 8 0.00107303 1 0 0
350 2 49 1 0 1 2 8 0.00328967 1 0 0
351 2 0 2 0 1 2 8 9.15654e-05 1 0 0
352 2 1 2 0 1 2 8 0.00013819 1 0 0
401 2 0 3 0 1 2 8 0.000184639 1 0 0
402 2 1 3 0 1 2 8 0.000282888 1 0 0
353 2 2 2 0 1 2 8 0.000304357 1 0 0
354 2 3 2 0 1 2 8 0.000642425 1 0 0
403 2 2 3 0 1 2 8 0.000632755 1 0 0
404 2 3 3 0 1 2 8 0.0013428 1 0 0
355 2 4 2 0 1 2 8 0.00120255 1 0 0
405 2 4 3 0 1 2 8 0.00252211 1 0 0
356 2 5 2 0 1 2 8 0.00197399 1 0 0
357 2 6 2 0 1 2 8 0.00284614 1 0 0
406 2 5 3 0 1 2 8 0.00420464 1 0 0
407 2 6 3 0 1 2 8 0.006073 1 0 0
358 2 7 2 0 1 2 8 0.00369514 1 0 0
359 2 8 2 0 1 2 8 0.00446129 1 0 0
408 2 7 3 0 1 2 8 0.00781076 1 0 0
409 2 8 3 0 1 2 8 0.00938802 1 0 0
360 2 9 2 0 1 2 8 0.00512673 1 0 0
410 2 9 3 0 1 2 8 0.0107918 1 0 0
361 2 10 2 0 1 2 8 0.00569497 1 0 0
362 2 11 2 0 1 2 8 0.00618481 1 0 0
411 2 10 3 0 1 2 8 0.0120217 1 0 0
412 2 11 3 0 1 2 8 0.0131116 1 0 0
363 2 12 2 0 1 2 8 0.0066186 1 0 0
364 2 13 2 0 1 2 8 0.00700714 1 0 0
413 2 12 3 0 1 2 8 0.0140973 1 0 0
414 2 13 3 0 1 2 8 0.0149938 1 0 0
365 2 14 2 0 1 2 8 0.00733862 1 0 0
415 2 14 3 0 1 2 8 0.015779 1 0 0
366 2 15 2 0 1 2 8 0.00759675 1 0 0
367 2 16 2 0 1 2 8 0.0077952 1 0 0
416 2 15 3 0 1 2 8 0.0164131 1 0 0
417 2 16 3 0 1 2 8 0.0169242 1 0 0
368 2 17 2 0 1 2 8 0.00797207 1 0 0
369 2 18 2 0 1 2 8 0.00814684 1 0 0
418 2 17 3 0 1 2 8 0.0173948 1 0 0
419 2 18 3 0 1 2 8 0.0178615 1 0 0
370 2 19 2 0 1 2 8 0.00829941 1 0 0
420 2 19 3 0 1 2 8 0.0182745 1 0 0
371 2 20 2 0 1 2 8 0.00839624 1 0 0
372 2 21 2 0 1 2 8 0.00842537 1 0 0
421 2 20 3 0 1 2 8 0.0185627 1 0 0
422 2 21 3 0 1 2 8 0.0187172 1 0 0
373 2 22 2 0 1 2 8 0.00840031 1 0 0
374 2 23 2 0 1 2 8 0.00834915 1 0 0
423 2 22 3 0 1 2 8 0.0187747 1 0 0
424 2 23 3 0 1 2 8 0.0187686 1 0 0
375 2 24 2 0 1 2 8 0.00831741 1 0 0
425 2 24 3 0 1 2 8 0.0187757 1 0 0
376 2 25 2 0 1 2 8 0.00835419 1 0 0
377 2 26 2 0 1 2 8 0.00847182 1 0 0
426 2 25 3 0 1 2 8 0.0189046 1 0 0
427 2 26 3 0 1 2 8 0.0191811 1 0 0
378 2 27 2 0 1 2 8 0.00863214 1 0 0
379 2 28 2 0 1 2 8 0.00877908 1 0 0
428 2 27 3 0 1 2 8 0.0195393 1 0 0
429 2 28 3 0 1 2 8 0.0198532 1 0 0
380 2 29 2 0 1 2 8 0.0088901 1 0 0
430 2 29 3 0 1 2 8 0.020078 1 0 0
381 2 30 2 0 1 2 8 0.00898122 1 0 0
382 2 31 2 0 1 2 8 0.00906411 1 0 0
431 2 30 3 0 1 2 8 0.0202714 1 0 0
432 2 31 3 0 1 2 8 0.0204627 1 0 0
383 2 32 2 0 1 2 8 0.00912473 1 0 0
384 2 33 2 0 1 2 8 0.00914673 1 0 0
433 2 32 3 0 1 2 8 0.0206166 1 0 0
434 2 33 3 0 1 2 8 0.0206862 1 0 0
385 2 34 2 0 1 2 8 0.0091409 1 0 0
435 2 34 3 0 1 2 8 0.0206903 1 0 0
386 2 35 2 0 1 2 8 0.00913637 1 0 0
387 2 36 2 0 1 2 8 0.00914453 1 0 0
436 2 35 3 0 1 2 8 0.0207056 1 0 0
437 2 36 3 0 1 2 8 0.0207549 1 0 0
388 2 37 2 0 1 2 8 0.00914892 1 0 0
389 2 38 2 0 1 2 8 0.00912469 1 0 0
438 2 37 3 0 1 2 8 0.020793 1 0 0
439 2 38 3 0 1 2 8 0.0207717 1 0 0
390 2 39 2 0 1 2 8 0.00905552 1 0 0
440 2 39 3 0 1 2 8 0.020669 1 0 0
391 2 40 2 0 1 2 8 0.00894175 1 0 0
392 2 41 2 0 1 2 8 0.00881225 1 0 0
441 2 40 3 0 1 2 8 0.0204797 1 0 0
442 2 41 3 0 1 2 8 0.0202375 1 0 0
393 2 42 2 0 1 2 8 0.00872453 1 0 0
394 2 43 2 0 1 2 8 0.00872507 1 0 0
443 2 42 3 0 1 2 8 0.0200679 1 0 0
444 2 43 3 0 1 2 8 0.0200701 1 0 0
395 2 44 2 0 1 2 8 0.00880809 1 0 0
445 2 44 3 0 1 2 8 0.0202372 1 0 0
396 2 45 2 0 1 2 8 0.00891194 1 0 0
397 2 46 2 0 1 2 8 0.00896409 1 0 0
446 2 45 3 0 1 2 8 0.0204457 1 0 0
447 2 46 3 0 1 2 8 0.0205414 1 0 0
398 2 47 2 0 1 2 8 0.00893834 1 0 0
399 2 48 2 0 1 2 8 0.00886662 1 0 0
448 2 47 3 0 1 2 8 0.0204813 1 0 0
449 2 48 3 0 1 2 8 0.020339 1 0 0
400 2 49 2 0 1 2 8 0.00880887 1 0 0
450 2 49 3 0 1 2 8 0.0202219 1 0 0
451 2 0 4 0 1 2 8 0.000328651 1 0 0
452 2 1 4 0 1 2 8 0.000509598 1 0 0
453 2 2 4 0 1 2 8 0.00114944 1 0 0
454 2 3 4 0 1 2 8 0.00241494 1 0 0
455 2 4 4 0 1 2 7 0.00437488 1 0 0
456 2 5 4 0 1 2 6 0.0074262 1 0 0
457 2 6 4 0 1 2 5 0.0105116 1 0 0
506 1 5.4967 4.86671 0 1.0006 2 0 0.012239 1 -0.00218563 -0.00406082
507 1 6.49819 4.8683 0 1.02569 2 0 0.0151084 1 -0.0128771 -8.78575e-05
458 2 7 4 0 1 2 5 0.0131757 1 0 0
459 2 8 4 0 1 2 5 0.0156866 1 0 0
508 1 7.49178 4.87122 0 1.03193 2 0 0.0179656 1 0.0113874 -0.00252424
460 2 9 4 0 1 2 5 0.0179934 1 0 0
510 1 8.50145 4.86501 0 1.01036 2 0 0.0207266 1 -0.0035579 0.00191832
511 1 9.50008 4.86473 0 1.00136 2 0 0.0233206 1 0.00260995 9.21475e-05
461 2 10 4 0 1 2 5 0.0200799 1 0 0
462 2 11 4 0 1 2 5 0.0220013 1 0 0
512 1 10.501 4.86458 0 1.01573 2 0 0.0257979 1 -0.00260319 -0.00217431
513 1 11.4984 4.86361 0 1.01534 2 0 0.0281641 1 0.00757749 0.00609163
463 2 12 4 0 1 2 5 0.0237807 1 0 0
464 2 13 4 0 1 2 5 0.0254208 1 0 0
514 1 12.5094 4.86507 0 1.01802 2 0 0.030384 1 -0.0156083 -0.00083043
465 2 14 4 0 1 2 5 0.0269048 1 0 0
515 1 13.5042 4.86592 0 1.02031 2 0 0.0324604 1 0.00767637 -0.00230122
516 1 14.5021 4.86521 0 1.0096 2 0 0.0343644 1 0.00202206 0.002772
466 2 15 4 0 1 2 5 0.028169 1 0 0
467 2 16 4 0 1 2 5 0.029251 1 0 0
518 1 16.4981 4.86298 0 1.02515 2 0 0.0377103 1 0.0073237 0.00899882
517 1 15.5019 4.86519 0 1.02614 2 0 0.0360883 1 -0.00532366 -0.00287264
468 2 17 4 0 1 2 5 0.0302727 1 0 0
469 2 18 4 0 1 2 5 0.0312663 1 0 0
519 1 17.4971 4.86604 0 1.0239 2 0 0.0392206 1 0.00668803 -0.00328519
470 2 19 4 0 1 2 5 0.0321503 1 0 0
520 1 18.5 4.86579 0 1.00577 2 0 0.040604 1 -3.13037e-05 2.35416e-05
521 1 19.4998 4.86621 0 1.00453 2 0 0.0418162 1 -0.00543794 -0.000610384
471 2 20 4 0 1 2 5 0.0328231 1 0 0
472 2 21 4 0 1 2 5 0.0333083 1 0 0
523 1 21.4959 4.86621 0 1.02268 2 0 0.043844 1 0.00296983 -0.00484939
522 1 20.4971 4.86639 0 1.0139 2 0 0.042871 1 0.00335183 -0.00410401
473 2 22 4 0 1 2 5 0.0336887 1 0 0
474 2 23 4 0 1 2 5 0.0339522 1 0 0
524 1 22.5004 4.86421 0 1.01383 2 0 0.0447139 1 -0.00717124 0.00022012
475 2 24 4 0 1 2 5 0.034178 1 0 0
525 1 23.4985 4.8672 0 1.03669 2 0 0.0454993 1 0.00160195 -0.00983207
526 1 24.4976 4.86293 0 1.04245 2 0 0.046261 1 0.00350454 0.00829688
476 2 25 4 0 1 2 5 0.0345419 1 0 0
477 2 26 4 0 1 2 5 0.0350694 1 0 0
528 1 26.4981 4.86568 0 1.04147 2 0 0.0478133 1 0.00928226 -0.00908188
527 1 25.4995 4.86475 0 1.03798 2 0 0.0470245 1 0.00128655 -0.00259517
478 2 27 4 0 1 2 5 0.0357077 1 0 0
479 2 28 4 0 1 2 5 0.0362531 1 0 0
529 1 27.5032 4.86344 0 1.0019 2 0 0.0485589 1 0.000594193 0.0011812
480 2 29 4 0 1 2 5 0.0366485 1 0 0
531 1 29.504 4.86879 0 1.01679 2 0 0.0498225 1 -0.005518 -0.00665472
530 1 28.5053 4.86628 0 1.02091 2 0 0.0492243 1 -0.00387128 0.00141698
481 2 30 4 0 1 2 5 0.0370151 1 0 0
482 2 31 4 0 1 2 5 0.0373938 1 0 0
533 1 31.4982 4.86448 0 1.004 2 0 0.0509299 1 0.00379527 0.00379053
532 1 30.4994 4.86872 0 1.0182 2 0 0.0503922 1 0.00764781 -0.00171189
483 2 32 4 0 1 2 5 0.0377255 1 0 0
484 2 33 4 0 1 2 5 0.0379162 1 0 0
534 1 32.4987 4.86241 0 1.00171 2 0 0.0513962 1 9.02412e-05 0.0086366
485 2 34 4 0 1 2 5 0.0379784 1 0 0
535 1 33.5016 4.86412 0 1.00275 2 0 0.0517345 1 -0.00794533 0.00566101
536 1 34.4985 4.86434 0 1.0237 2 0 0.0520083 1 0.00657319 0.00293983
486 2 35 4 0 1 2 5 0.038074 1 0 0
487 2 36 4 0 1 2 5 0.0382352 1 0 0
538 1 36.5 4.8621 0 1.01227 2 0 0.0525975 1 0.00385638 0.00505545
537 1 35.4996 4.85984 0 1.0067 2 0 0.0523029 1 -0.00100162 0.0158227
488 2 37 4 0 1 2 5 0.0383617 1 0 0
489 2 38 4 0 1 2 5 0.0383921 1 0 0
539 1 37.5057 4.8658 0 1.00174 2 0 0.0527873 1 -0.0106836 -0.00147345
490 2 39 4 0 1 2 5 0.0383285 1 0 0
541 1 39.4988 4.86333 0 1.00168 2 0 0.0529579 1 -0.0064787 0.00718271
540 1 38.5018 4.86616 0 1.01715 2 0 0.0529121 1 -0.000731852 -0.0064202
491 2 40 4 0 1 2 5 0.0381551 1 0 0
492 2 41 4 0 1 2 5 0.0378606 1 0 0
542 1 40.4916 4.86966 0 1.01016 2 0 0.0529298 1 0.0224822 -0.0108689
543 1 41.495 4.86765 0 1.03252 2 0 0.0529157 1 0.00314436 -0.00186596
493 2 42 4 0 1 2 5 0.0376552 1 0 0
494 2 43 4 0 1 2 5 0.0376799 1 0 0
544 1 42.5035 4.86424 0 1.0319 2 0 0.0529876 1 -0.00881382 0.00567368
495 2 44 4 0 1 2 5 0.037924 1 0 0
545 1 43.5008 4.86762 0 1.03659 2 0 0.053135 1 0.00220101 -0.00574103
546 1 44.5047 4.86579 0 1.01001 2 0 0.0532955 1 -0.00652051 0.000395912
496 2 45 4 0 1 2 5 0.0382278 1 0 0
497 2 46 4 0 1 2 5 0.0383587 1 0 0
548 1 46.5015 4.86587 0 1.00807 2 0 0.0535365 1 -0.00326321 0.00147105
547 1 45.5037 4.86599 0 1.00173 2 0 0.0534563 1 -0.00247044 7.28777e-05
498 2 47 4 0 1 2 5 0.0382786 1 0 0
499 2 48 4 0 1 2 5 0.0381066 1 0 0
549 1 47.4982 4.86578 0 1.02093 2 0 0.0535396 1 0.00361977 -0.00193954
500 2 49 4 0 1 2 5 0.037964 1 0 0
550 1 48.4972 4.86734 0 1.02225 2 0 0.0535886 1 0.00520103 -0.00923366
8501 1 49.4959 4.86729 0 1.06187 2 0 0.0536797 1 0.000252001 -0.00306176
501 2 0 5 0 1 2 8 0.000520615 1 0 0
502 2 1 5 0 1 2 8 0.000815041 1 0 0
551 2 0 6 0 1 2 8 0.000744363 1 0 0
552 2 1 6 0 1 2 8 0.00117442 1 0 0
503 2 2 5 0 1 2 8 0.00184711 1 0 0
504 2 3 5 0 1 2 8 0.003851 1 0 0
553 2 2 6 0 1 2 8 0.00266679 1 0 0
554 2 3 6 0 1 2 8 0.00551338 1 0 0
505 2 4 5 0 1 2 6 0.00685553 1 0 0
555 2 4 6 0 1 2 5 0.0095084 1 0 0
556 1 4.97173 5.72388 0 1.02426 2 0 0.0130628 1 0 -5e-05
557 1 5.97951 5.73862 0 1.00456 2 0 0.0166441 1 -0.000143474 0.00575848
558 1 6.9778 5.74714 0 1.00032 2 0 0.0198233 1 3.1715e-05 -0.00555126
509 1 8.00109 5.73011 0 1.00999 2 0 0.0230262 1 -0.000360314 0.00140447
560 1 9.00291 5.73114 0 1.01571 2 0 0.0261191 1 -0.00333816 -0.00210383
561 1 10.0033 5.72759 0 1.04128 2 0 0.0291186 1 -0.0050832 0.0069899
562 1 11.0017 5.73079 0 1.02468 2 0 0.0320149 1 0.00333768 -0.00475381
563 1 12.0064 5.72573 0 1.00884 2 0 0.0347759 1 -0.00326603 0.00338528
565 1 13.0068 5.72937 0 1.01555 2 0 0.037409 1 0.000311709 0.00441125
566 1 14.0054 5.73292 0 1.01485 2 0 0.0398907 1 0.00428027 -0.00257613
567 1 15.0063 5.73002 0 1.00349 2 0 0.0422077 1 -0.00558869 0.00563234
568 1 16.0051 5.73353 0 1.02492 2 0 0.0444034 1 -0.00564816 -0.00311529
569 1 18.0044 5.73392 0 1.01386 2 0 0.0483379 1 -0.00777617 -0.0019473
618 1 17.0011 5.73051 0 1.00786 2 0 0.0464585 1 0.00667525 0.00251313
570 1 19.001 5.73418 0 1.00562 2 0 0.0500442 1 0.0057647 -0.00416875
571 1 19.9993 5.73218 0 1.00943 2 0 0.0516189 1 -0.00375439 0.00275481
572 1 20.9961 5.73042 0 1.02492 2 0 0.0531253 1 0.00320282 0.00619151
573 1 21.9945 5.72954 0 1.00977 2 0 0.054499 1 0.00716853 -4.67509e-06
574 1 22.9964 5.72908 0 1.00488 2 0 0.0557768 1 0.00211414 0.0064955
575 1 23.9984 5.72968 0 1.01237 2 0 0.0569985 1 0.00310432 0.00530538
576 1 24.9999 5.72699 0 1.01087 2 0 0.0581281 1 -0.00294739 0.00702993
577 1 26.0038 5.72808 0 1.01133 2 0 0.059171 1 -0.00577428 0.0105332
579 1 27.0058 5.72667 0 1.01129 2 0 0.0601213 1 -0.00415877 0.00572665
580 1 28.006 5.73108 0 1.02117 2 0 0.0610219 1 -0.0062079 -0.0036388
581 1 29.0047 5.73243 0 1.01861 2 0 0.0618739 1 -0.00996588 -0.00201077
632 1 30.0013 5.7347 0 1.0167 2 0 0.0626138 1 0.00694509 -0.000961966
582 1 30.9997 5.7351 0 1.0143 2 0 0.0633069 1 0.00315187 -0.00796747
583 1 31.9989 5.72959 0 1.0088 2 0 0.0639585 1 -0.00151075 0.000689908
584 1 32.9972 5.7279 0 1.00514 2 0 0.0645724 1 0.00472161 0.00205355
585 1 34.0021 5.73417 0 1.02197 2 0 0.0651382 1 -0.000490151 -0.0112427
586 1 35.0016 5.72721 0 1.02669 2 0 0.0656228 1 -0.00353447 -0.00354887
587 1 36.0003 5.72395 0 1.01702 2 0 0.0660773 1 1.21408e-05 0.00890178
588 1 37.0021 5.72744 0 1.01798 2 0 0.0664046 1 -0.00414514 -0.000416579
589 1 38.003 5.73124 0 1.01656 2 0 0.0666593 1 -0.00795083 -0.00396206
590 1 39.0001 5.72962 0 1.01208 2 0 0.0668495 1 0.00489346 0.0047849
591 1 39.9981 5.73097 0 1.01334 2 0 0.0670341 1 -0.00248605 0.0115031
592 1 41 5.73413 0 1.02633 2 0 0.0672536 1 -0.00235642 0.00215658
594 1 42.9989 5.73558 0 1.01497 2 0 0.0676312 1 0.00825792 -0.00555947
593 1 42.0017 5.73227 0 1.02837 2 0 0.0674923 1 -0.00515386 -0.00233677
595 1 44.001 5.72964 0 1.01694 2 0 0.0677007 1 0.00324566 0.00577654
596 1 45.0036 5.72989 0 1.01116 2 0 0.0677787 1 -0.00261816 0.00684811
597 1 46.0021 5.73666 0 1.01212 2 0 0.0679325 1 -0.00265332 -0.00694343
598 1 47.0005 5.73577 0 1.00861 2 0 0.068093 1 0.000378239 -0.0025148
599 1 47.9996 5.72842 0 1.02545 2 0 0.0682311 1 -0.00531806 0.013375
600 1 48.9978 5.73395 0 1.00476 2 0 0.0684086 1 -0.00705728 0.000737833
601 2 0 7 0 1 2 8 0.00097768 1 0 0
602 2 1 7 0 1 2 8 0.00155368 1 0 0
651 2 0 8 0 1 2 8 0.00119967 1 0 0
652 2 1 8 0 1 2 8 0.00192061 1 0 0
603 2 2 7 0 1 2 8 0.00353672 1 0 0
604 2 3 7 0 1 2 8 0.00728766 1 0 0
653 2 2 8 0 1 2 8 0.00438904 1 0 0
654 2 3 8 0 1 2 8 0.00906625 1 0 0
605 2 4 7 0 1 2 5 0.012327 1 0 0
655 2 4 8 0 1 2 5 0.0150521 1 0 0
656 1 4.89814 7.43841 0 1.01253 2 0 0.0173894 1 -0.00245592 0.00564297
606 1 5.45441 6.61123 0 1.01839 2 0 0.0175686 1 0.00348928 -0.00523855
607 1 6.47226 6.61266 0 1.01626 2 0 0.021265 1 0 -5e-05
657 1 5.95761 7.47857 0 1.02523 2 0 0.0220586 1 0 -5e-05
608 1 7.49359 6.60009 0 1.01581 2 0 0.0249163 1 0.00184791 0.00292148
609 1 7.99763 7.46204 0 1.00447 2 0 0.0303557 1 0.00272145 0.000305836
658 1 6.98692 7.47029 0 1.00499 2 0 0.0263147 1 0 -5e-05
559 1 8.49583 6.59773 0 1.01669 2 0 0.0284894 1 0.0036026 -0.0020367
610 1 9.50472 6.59353 0 1.00382 2 0 0.0319961 1 0.000802318 0.000952838
661 1 9.00843 7.45889 0 1.00906 2 0 0.0343313 1 -0.00189464 -0.000726453
612 1 10.0073 7.46049 0 1.00002 2 0 0.0382064 1 0.00112623 -0.0014055
611 1 10.5031 6.59525 0 1.00368 2 0 0.0353931 1 0.00377715 -0.0011937
564 1 11.5077 6.59185 0 1.01095 2 0 0.0386815 1 -0.00134106 0.00311264
613 1 11.0067 7.4598 0 1.00877 2 0 0.0420362 1 -0.00300935 -0.00493854
614 1 12.5066 6.59093 0 1.01882 2 0 0.0418702 1 -0.00232248 0.00755038
665 1 13.0036 7.46452 0 1.00809 2 0 0.0494066 1 0.00110671 -0.00314862
664 1 12.0033 7.46224 0 1.0022 2 0 0.0457732 1 0.0081159 -0.00211437
615 1 13.506 6.59742 0 1.00601 2 0 0.0449214 1 -0.000341724 0.00275931
616 1 14.5064 6.60144 0 1.00878 2 0 0.0478096 1 -0.00234269 -0.000139296
666 1 14.0032 7.4656 0 0.997531 2 0 0.0528662 1 0.00488418 -0.00737595
667 1 15.0069 7.46763 0 1.00922 2 0 0.0561921 1 0.00260852 -0.00456484
617 1 15.5052 6.59842 0 1.01132 2 0 0.050556 1 0.000527005 0.000155352
668 1 16.0071 7.46232 0 1.01232 2 0 0.059355 1 -0.000522379 0.00388001
619 1 16.5067 6.5977 0 1.00791 2 0 0.0531772 1 -0.00300548 0.00203203
669 1 17.505 6.59981 0 1.0115 2 0 0.055614 1 0.00214899 -0.00323446
719 1 17.0083 7.46549 0 1.0104 2 0 0.0623599 1 -0.00699554 0.00285041
720 1 18.0059 7.46493 0 1.00384 2 0 0.0651794 1 0.000657762 0.000322745
620 1 18.5038 6.59911 0 1.00047 2 0 0.0578713 1 0.00227536 0.00369614
621 1 19.5042 6.60183 0 1.01086 2 0 0.0599862 1 -0.00613789 -0.00488786
670 1 19.0036 7.46527 0 1.01205 2 0 0.0678482 1 0.00406045 0.000331009
671 1 20.0047 7.46655 0 1.01101 2 0 0.070386 1 0.00129372 -0.00491134
622 1 20.5006 6.60036 0 1.02282 2 0 0.0620076 1 0.00337136 -0.00330893
623 1 21.4977 6.59521 0 1.01715 2 0 0.0638644 1 0.00319023 0.00145059
672 1 21.0056 7.46422 0 1.01032 2 0 0.072756 1 -0.00521453 0.000506092
673 1 22.0031 7.46222 0 1.00705 2 0 0.0749195 1 0.00432749 0.000989851
624 1 22.4966 6.59316 0 1.00933 2 0 0.0655538 1 0.00208664 0.00372322
674 1 23.0038 7.4667 0 1.01197 2 0 0.0769793 1 0.00127521 -0.00226343
625 1 23.4999 6.59663 0 1.01358 2 0 0.0671791 1 0 -5e-05
626 1 24.5028 6.5958 0 1.01095 2 0 0.0686856 1 -0.000937082 -0.00716416
675 1 24.0051 7.46001 0 1.00974 2 0 0.0788892 1 -0.00827287 0.00469487
676 1 25.0023 7.46053 0 1.01754 2 0 0.0806494 1 0.00548645 0.00476131
578 1 26.5053 6.59336 0 1.0136 2 0 0.071353 1 -0.0107312 -0.00633938
628 1 26.0029 7.45877 0 1.00647 2 0 0.0822421 1 -0.00317583 0.00182628
627 1 25.5016 6.59643 0 1.0116 2 0 0.070084 1 0.00175877 -0.00791829
629 1 27.5018 6.594 0 1.00585 2 0 0.0725446 1 0.00599613 0.000120485
679 1 28.0011 7.46124 0 1.01276 2 0 0.0851687 1 -0.00196147 0.00334494
678 1 27.0008 7.45785 0 1.01987 2 0 0.0837523 1 0.00649783 0.00861859
630 1 28.5003 6.59705 0 1.00031 2 0 0.0736933 1 0.0072969 0.00151089
631 1 29.5002 6.5967 0 1.01679 2 0 0.0747245 1 0.00196907 0.00985195
680 1 29.0061 7.465 0 1.0041 2 0 0.0864491 1 -0.00431244 0.00108599
681 1 30.0045 7.46034 0 1.0067 2 0 0.0876533 1 -0.00628974 0.00328005
682 1 30.5035 6.59973 0 1.0233 2 0 0.0756152 1 -0.00359959 -0.00355751
633 1 31.5006 6.59887 0 1.00197 2 0 0.0764563 1 0.00552117 0.00213792
732 1 31.0039 7.46652 0 1.02086 2 0 0.0887425 1 -0.000276974 -0.013022
683 1 32.0018 7.46636 0 1.00602 2 0 0.089761 1 0.00605486 -0.00581538
684 1 32.4997 6.59692 0 1.01173 2 0 0.0772666 1 -0.000772931 -0.00458571
734 1 33.0014 7.45898 0 1.01306 2 0 0.0907734 1 -0.000444949 0.00880851
634 1 33.4999 6.59496 0 1.00318 2 0 0.0780741 1 -0.00547135 0.000453114
635 1 34.4979 6.59903 0 1.01335 2 0 0.0788392 1 0.0074771 -0.00763569
685 1 34.0008 7.45974 0 1.01182 2 0 0.0917048 1 -0.00724198 0.0061539
686 1 35.0045 7.45957 0 1.01566 2 0 0.0925608 1 -0.00874588 0.00387148
636 1 35.4959 6.59277 0 1.01343 2 0 0.0794509 1 0.0106684 -0.000693899
637 1 36.4979 6.59609 0 0.995425 2 0 0.0799601 1 -0.00178156 -0.00495289
687 1 36.0005 7.46301 0 1.00809 2 0 0.0932494 1 -0.00176569 -0.00745425