ITEM: TIMESTEP
8000
ITEM: NUMBER OF ATOMS
15950
ITEM: BOX BOUNDS pp pp pp
0.0000000000000000e+00 1.0000000000000000e+02
-5.0000000000000000e+00 2.0000000000000000e+02
-5.0000000000000000e-01 5.0000000000000000e-01
ITEM: ATOMS id type x y z c_rho c_phase c_nbond c_temp f_rheo_chi_chi fx fy
1 2 0 -5 0 1 2 8 2.26482e-13 1 0 0
2 2 1 -5 0 1 2 8 4.29678e-13 1 0 0
51 2 0 -4 0 1 2 8 2.62528e-12 1 0 0
52 2 1 -4 0 1 2 8 5.29002e-12 1 0 0
3 2 2 -5 0 1 2 8 1.17375e-12 1 0 0
4 2 3 -5 0 1 2 8 2.78403e-12 1 0 0
53 2 2 -4 0 1 2 8 1.54827e-11 1 0 0
54 2 3 -4 0 1 2 8 3.85967e-11 1 0 0
5 2 4 -5 0 1 2 7 5.52257e-12 1 0 0
55 2 4 -4 0 1 2 8 7.87374e-11 1 0 0
6 2 5 -5 0 1 2 6 9.31593e-12 1 0 0
7 2 6 -5 0 1 2 5 1.33579e-11 1 0 0
56 2 5 -4 0 1 2 8 1.33317e-10 1 0 0
57 2 6 -4 0 1 2 8 1.92165e-10 1 0 0
8 2 7 -5 0 1 2 5 1.68282e-11 1 0 0
9 2 8 -5 0 1 2 5 1.93387e-11 1 0 0
58 2 7 -4 0 1 2 8 2.4373e-10 1 0 0
59 2 8 -4 0 1 2 8 2.81103e-10 1 0 0
10 2 9 -5 0 1 2 5 2.08577e-11 1 0 0
60 2 9 -4 0 1 2 8 3.03641e-10 1 0 0
11 2 10 -5 0 1 2 5 2.16292e-11 1 0 0
12 2 11 -5 0 1 2 5 2.20117e-11 1 0 0
61 2 10 -4 0 1 2 8 3.14899e-10 1 0 0
62 2 11 -4 0 1 2 8 3.20089e-10 1 0 0
13 2 12 -5 0 1 2 5 2.24031e-11 1 0 0
14 2 13 -5 0 1 2 5 2.30657e-11 1 0 0
63 2 12 -4 0 1 2 8 3.25435e-10 1 0 0
64 2 13 -4 0 1 2 8 3.35477e-10 1 0 0
15 2 14 -5 0 1 2 5 2.38812e-11 1 0 0
65 2 14 -4 0 1 2 8 3.48216e-10 1 0 0
16 2 15 -5 0 1 2 5 2.44951e-11 1 0 0
17 2 16 -5 0 1 2 5 2.47666e-11 1 0 0
66 2 15 -4 0 1 2 8 3.57481e-10 1 0 0
67 2 16 -4 0 1 2 8 3.61084e-10 1 0 0
18 2 17 -5 0 1 2 5 2.48733e-11 1 0 0
19 2 18 -5 0 1 2 5 2.49799e-11 1 0 0
68 2 17 -4 0 1 2 8 3.6241e-10 1 0 0
69 2 18 -4 0 1 2 8 3.64337e-10 1 0 0
20 2 19 -5 0 1 2 5 2.49876e-11 1 0 0
70 2 19 -4 0 1 2 8 3.65089e-10 1 0 0
21 2 20 -5 0 1 2 5 2.46619e-11 1 0 0
22 2 21 -5 0 1 2 5 2.39392e-11 1 0 0
71 2 20 -4 0 1 2 8 3.60578e-10 1 0 0
72 2 21 -4 0 1 2 8 3.49604e-10 1 0 0
23 2 22 -5 0 1 2 5 2.30352e-11 1 0 0
24 2 23 -5 0 1 2 5 2.22653e-11 1 0 0
73 2 22 -4 0 1 2 8 3.35636e-10 1 0 0
74 2 23 -4 0 1 2 8 3.23696e-10 1 0 0
25 2 24 -5 0 1 2 5 2.18394e-11 1 0 0
75 2 24 -4 0 1 2 8 3.17119e-10 1 0 0
26 2 25 -5 0 1 2 5 2.18192e-11 1 0 0
27 2 26 -5 0 1 2 5 2.21487e-11 1 0 0
76 2 25 -4 0 1 2 8 3.16998e-10 1 0 0
77 2 26 -4 0 1 2 8 3.22464e-10 1 0 0
28 2 27 -5 0 1 2 5 2.27013e-11 1 0 0
29 2 28 -5 0 1 2 5 2.33737e-11 1 0 0
78 2 27 -4 0 1 2 8 3.31196e-10 1 0 0
79 2 28 -4 0 1 2 8 3.41236e-10 1 0 0
30 2 29 -5 0 1 2 5 2.41476e-11 1 0 0
80 2 29 -4 0 1 2 8 3.5246e-10 1 0 0
31 2 30 -5 0 1 2 5 2.49922e-11 1 0 0
32 2 31 -5 0 1 2 5 2.57195e-11 1 0 0
81 2 30 -4 0 1 2 8 3.64909e-10 1 0 0
82 2 31 -4 0 1 2 8 3.75895e-10 1 0 0
33 2 32 -5 0 1 2 5 2.60583e-11 1 0 0
34 2 33 -5 0 1 2 5 2.59229e-11 1 0 0
83 2 32 -4 0 1 2 8 3.80981e-10 1 0 0
84 2 33 -4 0 1 2 8 3.78609e-10 1 0 0
35 2 34 -5 0 1 2 5 2.55404e-11 1 0 0
85 2 34 -4 0 1 2 8 3.72519e-10 1 0 0
36 2 35 -5 0 1 2 5 2.52204e-11 1 0 0
37 2 36 -5 0 1 2 5 2.50502e-11 1 0 0
86 2 35 -4 0 1 2 8 3.67854e-10 1 0 0
87 2 36 -4 0 1 2 8 3.65808e-10 1 0 0
38 2 37 -5 0 1 2 5 2.49059e-11 1 0 0
39 2 38 -5 0 1 2 5 2.46693e-11 1 0 0
88 2 37 -4 0 1 2 8 3.64051e-10 1 0 0
89 2 38 -4 0 1 2 8 3.60621e-10 1 0 0
40 2 39 -5 0 1 2 5 2.43269e-11 1 0 0
90 2 39 -4 0 1 2 8 3.55369e-10 1 0 0
41 2 40 -5 0 1 2 5 2.39326e-11 1 0 0
42 2 41 -5 0 1 2 5 2.35838e-11 1 0 0
91 2 40 -4 0 1 2 8 3.49143e-10 1 0 0
92 2 41 -4 0 1 2 8 3.43433e-10 1 0 0
43 2 42 -5 0 1 2 5 2.34396e-11 1 0 0
44 2 43 -5 0 1 2 5 2.36682e-11 1 0 0
93 2 42 -4 0 1 2 8 3.40795e-10 1 0 0
94 2 43 -4 0 1 2 8 3.44088e-10 1 0 0
45 2 44 -5 0 1 2 5 2.4267e-11 1 0 0
95 2 44 -4 0 1 2 8 3.53503e-10 1 0 0
46 2 45 -5 0 1 2 5 2.49259e-11 1 0 0
47 2 46 -5 0 1 2 5 2.52011e-11 1 0 0
96 2 45 -4 0 1 2 8 3.64063e-10 1 0 0
97 2 46 -4 0 1 2 8 3.68447e-10 1 0 0
48 2 47 -5 0 1 2 5 2.49068e-11 1 0 0
49 2 48 -5 0 1 2 5 2.42682e-11 1 0 0
98 2 47 -4 0 1 2 8 3.63692e-10 1 0 0
99 2 48 -4 0 1 2 8 3.53668e-10 1 0 0
50 2 49 -5 0 1 2 5 2.36821e-11 1 0 0
100 2 49 -4 0 1 2 8 3.44812e-10 1 0 0
101 2 0 -3 0 1 2 8 2.74117e-11 1 0 0
102 2 1 -3 0 1 2 8 5.9197e-11 1 0 0
151 2 0 -2 0 1 2 8 2.53573e-10 1 0 0
152 2 1 -2 0 1 2 8 5.92891e-10 1 0 0
103 2 2 -3 0 1 2 8 1.87278e-10 1 0 0
104 2 3 -3 0 1 2 8 4.94599e-10 1 0 0
153 2 2 -2 0 1 2 8 2.0488e-09 1 0 0
154 2 3 -2 0 1 2 8 5.78618e-09 1 0 0
105 2 4 -3 0 1 2 8 1.05095e-09 1 0 0
155 2 4 -2 0 1 2 8 1.28991e-08 1 0 0
106 2 5 -3 0 1 2 8 1.82439e-09 1 0 0
107 2 6 -3 0 1 2 8 2.66758e-09 1 0 0
156 2 5 -2 0 1 2 8 2.3069e-08 1 0 0
157 2 6 -2 0 1 2 8 3.42822e-08 1 0 0
108 2 7 -3 0 1 2 8 3.41002e-09 1 0 0
109 2 8 -3 0 1 2 8 3.94868e-09 1 0 0
158 2 7 -2 0 1 2 8 4.42063e-08 1 0 0
159 2 8 -2 0 1 2 8 5.1429e-08 1 0 0
110 2 9 -3 0 1 2 8 4.27278e-09 1 0 0
160 2 9 -2 0 1 2 8 5.57765e-08 1 0 0
111 2 10 -3 0 1 2 8 4.43271e-09 1 0 0
112 2 11 -3 0 1 2 8 4.50045e-09 1 0 0
161 2 10 -2 0 1 2 8 5.79135e-08 1 0 0
162 2 11 -2 0 1 2 8 5.87414e-08 1 0 0
113 2 12 -3 0 1 2 8 4.56944e-09 1 0 0
114 2 13 -3 0 1 2 8 4.71725e-09 1 0 0
163 2 12 -2 0 1 2 8 5.95513e-08 1 0 0
164 2 13 -2 0 1 2 8 6.15837e-08 1 0 0
115 2 14 -3 0 1 2 8 4.91083e-09 1 0 0
165 2 14 -2 0 1 2 8 6.43247e-08 1 0 0
116 2 15 -3 0 1 2 8 5.04475e-09 1 0 0
117 2 16 -3 0 1 2 8 5.08737e-09 1 0 0
166 2 15 -2 0 1 2 8 6.60953e-08 1 0 0
167 2 16 -2 0 1 2 8 6.64956e-08 1 0 0
118 2 17 -3 0 1 2 8 5.10142e-09 1 0 0
119 2 18 -3 0 1 2 8 5.13496e-09 1 0 0
168 2 17 -2 0 1 2 8 6.66e-08 1 0 0
169 2 18 -2 0 1 2 8 6.71417e-08 1 0 0
120 2 19 -3 0 1 2 8 5.15687e-09 1 0 0
170 2 19 -2 0 1 2 8 6.76123e-08 1 0 0
121 2 20 -3 0 1 2 8 5.09827e-09 1 0 0
122 2 21 -3 0 1 2 8 4.93755e-09 1 0 0
171 2 20 -2 0 1 2 8 6.6938e-08 1 0 0
172 2 21 -2 0 1 2 8 6.47646e-08 1 0 0
123 2 22 -3 0 1 2 8 4.72876e-09 1 0 0
124 2 23 -3 0 1 2 8 4.54889e-09 1 0 0
173 2 22 -2 0 1 2 8 6.18737e-08 1 0 0
174 2 23 -2 0 1 2 8 5.93458e-08 1 0 0
125 2 24 -3 0 1 2 8 4.44881e-09 1 0 0
175 2 24 -2 0 1 2 8 5.78983e-08 1 0 0
126 2 25 -3 0 1 2 8 4.44894e-09 1 0 0
127 2 26 -3 0 1 2 8 4.53734e-09 1 0 0
176 2 25 -2 0 1 2 8 5.79061e-08 1 0 0
177 2 26 -2 0 1 2 8 5.9244e-08 1 0 0
128 2 27 -3 0 1 2 8 4.67249e-09 1 0 0
129 2 28 -3 0 1 2 8 4.81766e-09 1 0 0
178 2 27 -2 0 1 2 8 6.12177e-08 1 0 0
179 2 28 -2 0 1 2 8 6.31724e-08 1 0 0
130 2 29 -3 0 1 2 8 4.9733e-09 1 0 0
180 2 29 -2 0 1 2 8 6.51429e-08 1 0 0
131 2 30 -3 0 1 2 8 5.14971e-09 1 0 0
132 2 31 -3 0 1 2 8 5.31074e-09 1 0 0
181 2 30 -2 0 1 2 8 6.74386e-08 1 0 0
182 2 31 -2 0 1 2 8 6.96342e-08 1 0 0
133 2 32 -3 0 1 2 8 5.38562e-09 1 0 0
134 2 33 -3 0 1 2 8 5.34605e-09 1 0 0
183 2 32 -2 0 1 2 8 7.06753e-08 1 0 0
184 2 33 -2 0 1 2 8 7.00748e-08 1 0 0
135 2 34 -3 0 1 2 8 5.25158e-09 1 0 0
185 2 34 -2 0 1 2 8 6.8708e-08 1 0 0
136 2 35 -3 0 1 2 8 5.18593e-09 1 0 0
137 2 36 -3 0 1 2 8 5.16446e-09 1 0 0
186 2 35 -2 0 1 2 8 6.78515e-08 1 0 0
187 2 36 -2 0 1 2 8 6.76826e-08 1 0 0
138 2 37 -3 0 1 2 8 5.14534e-09 1 0 0
139 2 38 -3 0 1 2 8 5.09754e-09 1 0 0
188 2 37 -2 0 1 2 8 6.75176e-08 1 0 0
189 2 38 -2 0 1 2 8 6.69056e-08 1 0 0
140 2 39 -3 0 1 2 8 5.01962e-09 1 0 0
190 2 39 -2 0 1 2 8 6.58342e-08 1 0 0
141 2 40 -3 0 1 2 8 4.92402e-09 1 0 0
142 2 41 -3 0 1 2 8 4.83256e-09 1 0 0
191 2 40 -2 0 1 2 8 6.44604e-08 1 0 0
192 2 41 -2 0 1 2 8 6.3082e-08 1 0 0
143 2 42 -3 0 1 2 8 4.78567e-09 1 0 0
144 2 43 -3 0 1 2 8 4.83081e-09 1 0 0
193 2 42 -2 0 1 2 8 6.23067e-08 1 0 0
194 2 43 -2 0 1 2 8 6.28713e-08 1 0 0
145 2 44 -3 0 1 2 8 4.9749e-09 1 0 0
195 2 44 -2 0 1 2 8 6.49339e-08 1 0 0
146 2 45 -3 0 1 2 8 5.14003e-09 1 0 0
147 2 46 -3 0 1 2 8 5.20803e-09 1 0 0
196 2 45 -2 0 1 2 8 6.73512e-08 1 0 0
197 2 46 -2 0 1 2 8 6.83372e-08 1 0 0
148 2 47 -3 0 1 2 8 5.13292e-09 1 0 0
149 2 48 -3 0 1 2 8 4.97969e-09 1 0 0
198 2 47 -2 0 1 2 8 6.72283e-08 1 0 0
199 2 48 -2 0 1 2 8 6.5042e-08 1 0 0
150 2 49 -3 0 1 2 8 4.8496e-09 1 0 0
200 2 49 -2 0 1 2 8 6.32579e-08 1 0 0
201 2 0 -1 0 1 2 8 2.03528e-09 1 0 0
202 2 1 -1 0 1 2 8 5.20981e-09 1 0 0
203 2 2 -1 0 1 2 8 1.99097e-08 1 0 0
204 2 3 -1 0 1 2 8 6.08438e-08 1 0 0
205 2 4 -1 0 1 2 8 1.43587e-07 1 0 0
206 2 5 -1 0 1 2 8 2.65876e-07 1 0 0
207 2 6 -1 0 1 2 8 4.02318e-07 1 0 0
208 2 7 -1 0 1 2 8 5.23875e-07 1 0 0
209 2 8 -1 0 1 2 8 6.12857e-07 1 0 0
210 2 9 -1 0 1 2 8 6.66557e-07 1 0 0
211 2 10 -1 0 1 2 8 6.93233e-07 1 0 0
212 2 11 -1 0 1 2 8 7.02877e-07 1 0 0
213 2 12 -1 0 1 2 8 7.11268e-07 1 0 0
214 2 13 -1 0 1 2 8 7.37153e-07 1 0 0
215 2 14 -1 0 1 2 8 7.73043e-07 1 0 0
216 2 15 -1 0 1 2 8 7.93993e-07 1 0 0
217 2 16 -1 0 1 2 8 7.96042e-07 1 0 0
218 2 17 -1 0 1 2 8 7.96111e-07 1 0 0
219 2 18 -1 0 1 2 8 8.04134e-07 1 0 0
220 2 19 -1 0 1 2 8 8.12533e-07 1 0 0
221 2 20 -1 0 1 2 8 8.06007e-07 1 0 0
222 2 21 -1 0 1 2 8 7.79271e-07 1 0 0
223 2 22 -1 0 1 2 8 7.42761e-07 1 0 0
224 2 23 -1 0 1 2 8 7.10029e-07 1 0 0
225 2 24 -1 0 1 2 8 6.90127e-07 1 0 0
226 2 25 -1 0 1 2 8 6.89918e-07 1 0 0
227 2 26 -1 0 1 2 8 7.08756e-07 1 0 0
228 2 27 -1 0 1 2 8 7.35721e-07 1 0 0
229 2 28 -1 0 1 2 8 7.5998e-07 1 0 0
230 2 29 -1 0 1 2 8 7.82238e-07 1 0 0
231 2 30 -1 0 1 2 8 8.09201e-07 1 0 0
232 2 31 -1 0 1 2 8 8.3668e-07 1 0 0
233 2 32 -1 0 1 2 8 8.50251e-07 1 0 0
234 2 33 -1 0 1 2 8 8.42052e-07 1 0 0
235 2 34 -1 0 1 2 8 8.23767e-07 1 0 0
236 2 35 -1 0 1 2 8 8.13523e-07 1 0 0
237 2 36 -1 0 1 2 8 8.13067e-07 1 0 0
238 2 37 -1 0 1 2 8 8.12234e-07 1 0 0
239 2 38 -1 0 1 2 8 8.0522e-07 1 0 0
240 2 39 -1 0 1 2 8 7.91801e-07 1 0 0
241 2 40 -1 0 1 2 8 7.73584e-07 1 0 0
242 2 41 -1 0 1 2 8 7.54231e-07 1 0 0
243 2 42 -1 0 1 2 8 7.42442e-07 1 0 0
244 2 43 -1 0 1 2 8 7.48768e-07 1 0 0
245 2 44 -1 0 1 2 8 7.76124e-07 1 0 0
246 2 45 -1 0 1 2 8 8.0891e-07 1 0 0
247 2 46 -1 0 1 2 8 8.22125e-07 1 0 0
248 2 47 -1 0 1 2 8 8.06988e-07 1 0 0
249 2 48 -1 0 1 2 8 7.78253e-07 1 0 0
250 2 49 -1 0 1 2 8 7.55635e-07 1 0 0
251 2 0 0 0 1 2 8 1.38122e-08 1 0 0
252 2 1 0 0 1 2 8 3.91312e-08 1 0 0
301 2 0 1 0 1 2 8 7.68255e-08 1 0 0
302 2 1 1 0 1 2 8 2.42763e-07 1 0 0
253 2 2 0 0 1 2 8 1.67709e-07 1 0 0
254 2 3 0 0 1 2 8 5.63113e-07 1 0 0
303 2 2 1 0 1 2 8 1.18451e-06 1 0 0
304 2 3 1 0 1 2 8 4.45238e-06 1 0 0
255 2 4 0 0 1 2 8 1.42418e-06 1 0 0
305 2 4 1 0 1 2 8 1.22667e-05 1 0 0
256 2 5 0 0 1 2 8 2.74831e-06 1 0 0
257 2 6 0 0 1 2 8 4.24253e-06 1 0 0
306 2 5 1 0 1 2 8 2.492e-05 1 0 0
307 2 6 1 0 1 2 8 3.93497e-05 1 0 0
258 2 7 0 0 1 2 8 5.58322e-06 1 0 0
259 2 8 0 0 1 2 8 6.57406e-06 1 0 0
308 2 7 1 0 1 2 8 5.24033e-05 1 0 0
309 2 8 1 0 1 2 8 6.21837e-05 1 0 0
260 2 9 0 0 1 2 8 7.17533e-06 1 0 0
310 2 9 1 0 1 2 8 6.81593e-05 1 0 0
261 2 10 0 0 1 2 8 7.48187e-06 1 0 0
262 2 11 0 0 1 2 8 7.58965e-06 1 0 0
311 2 10 1 0 1 2 8 7.13697e-05 1 0 0
312 2 11 1 0 1 2 8 7.26133e-05 1 0 0
263 2 12 0 0 1 2 8 7.66786e-06 1 0 0
264 2 13 0 0 1 2 8 7.9687e-06 1 0 0
313 2 12 1 0 1 2 8 7.32146e-05 1 0 0
314 2 13 1 0 1 2 8 7.63773e-05 1 0 0
265 2 14 0 0 1 2 8 8.39261e-06 1 0 0
315 2 14 1 0 1 2 8 8.08851e-05 1 0 0
266 2 15 0 0 1 2 8 8.60825e-06 1 0 0
267 2 16 0 0 1 2 8 8.58942e-06 1 0 0
316 2 15 1 0 1 2 8 8.27144e-05 1 0 0
317 2 16 1 0 1 2 8 8.19874e-05 1 0 0
268 2 17 0 0 1 2 8 8.57421e-06 1 0 0
269 2 18 0 0 1 2 8 8.68213e-06 1 0 0
318 2 17 1 0 1 2 8 8.16767e-05 1 0 0
319 2 18 1 0 1 2 8 8.2959e-05 1 0 0
270 2 19 0 0 1 2 8 8.81003e-06 1 0 0
320 2 19 1 0 1 2 8 8.46346e-05 1 0 0
271 2 20 0 0 1 2 8 8.76226e-06 1 0 0
272 2 21 0 0 1 2 8 8.46982e-06 1 0 0
321 2 20 1 0 1 2 8 8.44805e-05 1 0 0
322 2 21 1 0 1 2 8 8.16976e-05 1 0 0
273 2 22 0 0 1 2 8 8.05876e-06 1 0 0
274 2 23 0 0 1 2 8 7.67588e-06 1 0 0
323 2 22 1 0 1 2 8 7.76917e-05 1 0 0
324 2 23 1 0 1 2 8 7.37484e-05 1 0 0
275 2 24 0 0 1 2 8 7.42146e-06 1 0 0
325 2 24 1 0 1 2 8 7.0697e-05 1 0 0
276 2 25 0 0 1 2 8 7.4086e-06 1 0 0
277 2 26 0 0 1 2 8 7.64885e-06 1 0 0
326 2 25 1 0 1 2 8 7.03771e-05 1 0 0
327 2 26 1 0 1 2 8 7.31735e-05 1 0 0
278 2 27 0 0 1 2 8 7.98803e-06 1 0 0
279 2 28 0 0 1 2 8 8.26135e-06 1 0 0
328 2 27 1 0 1 2 8 7.70291e-05 1 0 0
329 2 28 1 0 1 2 8 7.97823e-05 1 0 0
280 2 29 0 0 1 2 8 8.47832e-06 1 0 0
330 2 29 1 0 1 2 8 8.14927e-05 1 0 0
281 2 30 0 0 1 2 8 8.756e-06 1 0 0
282 2 31 0 0 1 2 8 9.06643e-06 1 0 0
331 2 30 1 0 1 2 8 8.39178e-05 1 0 0
332 2 31 1 0 1 2 8 8.70046e-05 1 0 0
283 2 32 0 0 1 2 8 9.22991e-06 1 0 0
284 2 33 0 0 1 2 8 9.1313e-06 1 0 0
333 2 32 1 0 1 2 8 8.87945e-05 1 0 0
334 2 33 1 0 1 2 8 8.77714e-05 1 0 0
285 2 34 0 0 1 2 8 8.90982e-06 1 0 0
335 2 34 1 0 1 2 8 8.53675e-05 1 0 0
286 2 35 0 0 1 2 8 8.7986e-06 1 0 0
287 2 36 0 0 1 2 8 8.81198e-06 1 0 0
336 2 35 1 0 1 2 8 8.42904e-05 1 0 0
337 2 36 1 0 1 2 8 8.46133e-05 1 0 0
288 2 37 0 0 1 2 8 8.81726e-06 1 0 0
289 2 38 0 0 1 2 8 8.74757e-06 1 0 0
338 2 37 1 0 1 2 8 8.48105e-05 1 0 0
339 2 38 1 0 1 2 8 8.42586e-05 1 0 0
290 2 39 0 0 1 2 8 8.59771e-06 1 0 0
340 2 39 1 0 1 2 8 8.28121e-05 1 0 0
291 2 40 0 0 1 2 8 8.37791e-06 1 0 0
292 2 41 0 0 1 2 8 8.12847e-06 1 0 0
341 2 40 1 0 1 2 8 8.0462e-05 1 0 0
342 2 41 1 0 1 2 8 7.75456e-05 1 0 0
293 2 42 0 0 1 2 8 7.96632e-06 1 0 0
294 2 43 0 0 1 2 8 8.02867e-06 1 0 0
343 2 42 1 0 1 2 8 7.55536e-05 1 0 0
344 2 43 1 0 1 2 8 7.60678e-05 1 0 0
295 2 44 0 0 1 2 8 8.35981e-06 1 0 0
345 2 44 1 0 1 2 8 7.96753e-05 1 0 0
296 2 45 0 0 1 2 8 8.76508e-06 1 0 0
297 2 46 0 0 1 2 8 8.92634e-06 1 0 0
346 2 45 1 0 1 2 8 8.41653e-05 1 0 0
347 2 46 1 0 1 2 8 8.59261e-05 1 0 0
298 2 47 0 0 1 2 8 8.73983e-06 1 0 0
299 2 48 0 0 1 2 8 8.39795e-06 1 0 0
348 2 47 1 0 1 2 8 8.38826e-05 1 0 0
349 2 48 1 0 1 2 8 8.02964e-05 1 0 0
300 2 49 0 0 1 2 8 8.13595e-06 1 0 0
350 2 49 1 0 1 2 8 7.75653e-05 1 0 0
351 2 0 2 0 1 2 8 3.37976e-07 1 0 0
352 2 1 2 0 1 2 8 1.1934e-06 1 0 0
401 2 0 3 0 1 2 8 1.14057e-06 1 0 0
402 2 1 3 0 1 2 8 4.4431e-06 1 0 0
353 2 2 2 0 1 2 8 6.69382e-06 1 0 0
354 2 3 2 0 1 2 8 2.87503e-05 1 0 0
403 2 2 3 0 1 2 8 2.84368e-05 1 0 0
404 2 3 3 0 1 2 8 0.00014267 1 0 0
355 2 4 2 0 1 2 8 8.84549e-05 1 0 0
405 2 4 3 0 1 2 8 0.000497788 1 0 0
356 2 5 2 0 1 2 8 0.000191975 1 0 0
357 2 6 2 0 1 2 8 0.000310508 1 0 0
406 2 5 3 0 1 2 8 0.00119472 1 0 0
407 2 6 3 0 1 2 8 0.00199915 1 0 0
358 2 7 2 0 1 2 8 0.000417954 1 0 0
359 2 8 2 0 1 2 8 0.000500295 1 0 0
408 2 7 3 0 1 2 8 0.00271656 1 0 0
409 2 8 3 0 1 2 8 0.00328435 1 0 0
360 2 9 2 0 1 2 8 0.000551142 1 0 0
410 2 9 3 0 1 2 8 0.00364496 1 0 0
361 2 10 2 0 1 2 8 0.000580448 1 0 0
362 2 11 2 0 1 2 8 0.000593611 1 0 0
411 2 10 3 0 1 2 8 0.00387632 1 0 0
412 2 11 3 0 1 2 8 0.0040286 1 0 0
363 2 12 2 0 1 2 8 0.000598961 1 0 0
364 2 13 2 0 1 2 8 0.000627627 1 0 0
413 2 12 3 0 1 2 8 0.00406769 1 0 0
414 2 13 3 0 1 2 8 0.00429008 1 0 0
365 2 14 2 0 1 2 8 0.000667415 1 0 0
415 2 14 3 0 1 2 8 0.00459317 1 0 0
366 2 15 2 0 1 2 8 0.000679578 1 0 0
367 2 16 2 0 1 2 8 0.000668039 1 0 0
416 2 15 3 0 1 2 8 0.00464432 1 0 0
417 2 16 3 0 1 2 8 0.00452236 1 0 0
368 2 17 2 0 1 2 8 0.000663526 1 0 0
369 2 18 2 0 1 2 8 0.000677031 1 0 0
418 2 17 3 0 1 2 8 0.00448493 1 0 0
419 2 18 3 0 1 2 8 0.00459884 1 0 0
370 2 19 2 0 1 2 8 0.000695272 1 0 0
420 2 19 3 0 1 2 8 0.00476028 1 0 0
371 2 20 2 0 1 2 8 0.000697075 1 0 0
372 2 21 2 0 1 2 8 0.000675403 1 0 0
421 2 20 3 0 1 2 8 0.00479844 1 0 0
422 2 21 3 0 1 2 8 0.00466406 1 0 0
373 2 22 2 0 1 2 8 0.000643629 1 0 0
374 2 23 2 0 1 2 8 0.000609637 1 0 0
423 2 22 3 0 1 2 8 0.00447499 1 0 0
424 2 23 3 0 1 2 8 0.00425394 1 0 0
375 2 24 2 0 1 2 8 0.00057856 1 0 0
425 2 24 3 0 1 2 8 0.00396785 1 0 0
376 2 25 2 0 1 2 8 0.000573044 1 0 0
377 2 26 2 0 1 2 8 0.000600117 1 0 0
426 2 25 3 0 1 2 8 0.00391318 1 0 0
427 2 26 3 0 1 2 8 0.00414926 1 0 0
378 2 27 2 0 1 2 8 0.00063822 1 0 0
379 2 28 2 0 1 2 8 0.00066186 1 0 0
428 2 27 3 0 1 2 8 0.00445144 1 0 0
429 2 28 3 0 1 2 8 0.00461962 1 0 0
380 2 29 2 0 1 2 8 0.000671262 1 0 0
430 2 29 3 0 1 2 8 0.00463215 1 0 0
381 2 30 2 0 1 2 8 0.000687402 1 0 0
382 2 31 2 0 1 2 8 0.000713509 1 0 0
431 2 30 3 0 1 2 8 0.00470373 1 0 0
432 2 31 3 0 1 2 8 0.00487456 1 0 0
383 2 32 2 0 1 2 8 0.000730385 1 0 0
384 2 33 2 0 1 2 8 0.000721603 1 0 0
433 2 32 3 0 1 2 8 0.00500306 1 0 0
434 2 33 3 0 1 2 8 0.00494373 1 0 0
385 2 34 2 0 1 2 8 0.000699686 1 0 0
435 2 34 3 0 1 2 8 0.00477875 1 0 0
386 2 35 2 0 1 2 8 0.000690628 1 0 0
387 2 36 2 0 1 2 8 0.000694501 1 0 0
436 2 35 3 0 1 2 8 0.00471436 1 0 0
437 2 36 3 0 1 2 8 0.00474766 1 0 0
388 2 37 2 0 1 2 8 0.000697651 1 0 0
389 2 38 2 0 1 2 8 0.000694529 1 0 0
438 2 37 3 0 1 2 8 0.0047795 1 0 0
439 2 38 3 0 1 2 8 0.00477734 1 0 0
390 2 39 2 0 1 2 8 0.000683024 1 0 0
440 2 39 3 0 1 2 8 0.00470587 1 0 0
391 2 40 2 0 1 2 8 0.00066135 1 0 0
392 2 41 2 0 1 2 8 0.000631547 1 0 0
441 2 40 3 0 1 2 8 0.00454668 1 0 0
442 2 41 3 0 1 2 8 0.00428298 1 0 0
393 2 42 2 0 1 2 8 0.000610503 1 0 0
394 2 43 2 0 1 2 8 0.000613852 1 0 0
443 2 42 3 0 1 2 8 0.00409039 1 0 0
444 2 43 3 0 1 2 8 0.00409987 1 0 0
395 2 44 2 0 1 2 8 0.000647766 1 0 0
445 2 44 3 0 1 2 8 0.00436927 1 0 0
396 2 45 2 0 1 2 8 0.000690586 1 0 0
397 2 46 2 0 1 2 8 0.000707083 1 0 0
446 2 45 3 0 1 2 8 0.00470751 1 0 0
447 2 46 3 0 1 2 8 0.00483731 1 0 0
398 2 47 2 0 1 2 8 0.000688481 1 0 0
399 2 48 2 0 1 2 8 0.000656736 1 0 0
448 2 47 3 0 1 2 8 0.00470217 1 0 0
449 2 48 3 0 1 2 8 0.00448811 1 0 0
400 2 49 2 0 1 2 8 0.000631941 1 0 0
450 2 49 3 0 1 2 8 0.00430222 1 0 0
451 2 0 4 0 1 2 8 2.90511e-06 1 0 0
452 2 1 4 0 1 2 8 1.22069e-05 1 0 0
453 2 2 4 0 1 2 8 8.68433e-05 1 0 0
454 2 3 4 0 1 2 8 0.000487681 1 0 0
455 2 4 4 0 1 2 7 0.001969 1 0 0
456 2 5 4 0 1 2 6 0.00546951 1 0 0
457 2 6 4 0 1 2 5 0.00925734 1 0 0
506 1 5.48977 4.85706 0 1.0006 2 0 0.0176034 1 0.019868 0.0131897
507 1 6.49334 4.86274 0 1.02569 2 0 0.0241328 1 0.00621907 0.0108259
458 2 7 4 0 1 2 5 0.0124325 1 0 0
459 2 8 4 0 1 2 5 0.0151828 1 0 0
508 1 7.50026 4.87267 0 1.03193 2 0 0.03066 1 -0.00728932 -0.000294781
460 2 9 4 0 1 2 5 0.0169985 1 0 0
510 1 8.49607 4.90611 0 1.01036 2 0 0.0371551 1 0.00728932 0.000194781
511 1 9.49929 4.87896 0 1.00136 2 0 0.0431894 1 -0.00808416 -0.000336453
461 2 10 4 0 1 2 5 0.0182853 1 0 0
462 2 11 4 0 1 2 5 0.0192432 1 0 0
512 1 10.4946 4.91423 0 1.01573 2 0 0.047844 1 0.00508866 -0.00540666
513 1 11.5077 4.87036 0 1.01534 2 0 0.051711 1 -0.00326782 1.78908e-05
463 2 12 4 0 1 2 5 0.0198614 1 0 0
464 2 13 4 0 1 2 5 0.021015 1 0 0
514 1 12.5059 4.88504 0 1.01802 2 0 0.0551545 1 -0.00130313 0.000120844
465 2 14 4 0 1 2 5 0.0222816 1 0 0
515 1 13.5033 4.85765 0 1.02031 2 0 0.0576133 1 -0.0154994 0.0144334
516 1 14.4982 4.86247 0 1.0096 2 0 0.0591733 1 0.00362026 -0.0016487
466 2 15 4 0 1 2 5 0.0225246 1 0 0
467 2 16 4 0 1 2 5 0.0217836 1 0 0
518 1 16.4927 4.86545 0 1.02515 2 0 0.0595803 1 -0.00475108 0.00445746
517 1 15.4973 4.8569 0 1.02614 2 0 0.0596923 1 -0.0120036 0.0136251
468 2 17 4 0 1 2 5 0.0213484 1 0 0
469 2 18 4 0 1 2 5 0.0222094 1 0 0
519 1 17.4844 4.87542 0 1.0239 2 0 0.059404 1 0.013222 0.000161949
470 2 19 4 0 1 2 5 0.0231279 1 0 0
520 1 18.4827 4.86076 0 1.00577 2 0 0.0600353 1 0.00128481 -0.00313468
521 1 19.4973 4.86943 0 1.00453 2 0 0.0606534 1 -0.00421288 -0.00274117
471 2 20 4 0 1 2 5 0.0233909 1 0 0
472 2 21 4 0 1 2 5 0.02292 1 0 0
523 1 21.4944 4.86585 0 1.02268 2 0 0.0593603 1 -0.0111876 -0.00049336
522 1 20.4943 4.87529 0 1.0139 2 0 0.0600357 1 0.00586676 -1.54779e-05
473 2 22 4 0 1 2 5 0.0223296 1 0 0
474 2 23 4 0 1 2 5 0.0214331 1 0 0
524 1 22.4888 4.87748 0 1.01383 2 0 0.0589701 1 0.0143074 -0.00540288
475 2 24 4 0 1 2 5 0.0200693 1 0 0
525 1 23.4907 4.89684 0 1.03669 2 0 0.0588715 1 0 -5e-05
526 1 24.4999 4.86679 0 1.04245 2 0 0.0591692 1 0 -5e-05
476 2 25 4 0 1 2 5 0.0197024 1 0 0
477 2 26 4 0 1 2 5 0.0207543 1 0 0
528 1 26.5069 4.86242 0 1.04147 2 0 0.0614428 1 -0.00497308 -0.00490481
527 1 25.5047 4.8614 0 1.03798 2 0 0.0600499 1 -0.000625492 0.00368596
478 2 27 4 0 1 2 5 0.0224936 1 0 0
479 2 28 4 0 1 2 5 0.0231975 1 0 0
529 1 27.5031 4.86369 0 1.0019 2 0 0.0628895 1 0.00941519 -0.00149934
480 2 29 4 0 1 2 5 0.0229405 1 0 0
531 1 29.502 4.86517 0 1.01679 2 0 0.0638073 1 0.00289892 -0.0013351
530 1 28.5033 4.86076 0 1.02091 2 0 0.0635416 1 0.00216155 0.00176832
481 2 30 4 0 1 2 5 0.0228551 1 0 0
482 2 31 4 0 1 2 5 0.0236483 1 0 0
533 1 31.5026 4.8609 0 1.004 2 0 0.063178 1 0.00144521 0.00286479
532 1 30.5028 4.86197 0 1.0182 2 0 0.0633806 1 -0.000697889 0.00134969
483 2 32 4 0 1 2 5 0.0242414 1 0 0
484 2 33 4 0 1 2 5 0.0239699 1 0 0
534 1 32.504 4.86303 0 1.00171 2 0 0.0632389 1 -0.00085319 -0.00564579
485 2 34 4 0 1 2 5 0.0232343 1 0 0
535 1 33.5038 4.86235 0 1.00275 2 0 0.0629937 1 -0.00109868 0.00378186
536 1 34.5027 4.86529 0 1.0237 2 0 0.0625857 1 0.000716355 -0.00322403
486 2 35 4 0 1 2 5 0.0229501 1 0 0
487 2 36 4 0 1 2 5 0.0230407 1 0 0
538 1 36.5023 4.86182 0 1.01227 2 0 0.0639247 1 -0.00341659 0.00381949
488 2 37 4 0 1 2 5 0.023281 1 0 0
489 2 38 4 0 1 2 5 0.0233204 1 0 0
539 1 37.5018 4.86015 0 1.00174 2 0 0.0641405 1 0.00184469 0.0048997
490 2 39 4 0 1 2 5 0.0230233 1 0 0
541 1 39.5019 4.86178 0 1.00168 2 0 0.0621438 1 -0.0025278 -0.00631187
540 1 38.5017 4.86209 0 1.01715 2 0 0.0634847 1 -0.001243 -0.00470885
491 2 40 4 0 1 2 5 0.0221631 1 0 0
492 2 41 4 0 1 2 5 0.0204812 1 0 0
542 1 40.5087 4.86715 0 1.01016 2 0 0.0599658 1 0.000734073 -0.00456762
543 1 41.5077 4.8702 0 1.03252 2 0 0.0570444 1 -0.00832331 -0.00743007
493 2 42 4 0 1 2 5 0.0192543 1 0 0
494 2 43 4 0 1 2 5 0.0192154 1 0 0
544 1 42.5003 4.86582 0 1.0319 2 0 0.0556425 1 0.00967573 -0.00702131
495 2 44 4 0 1 2 5 0.0206786 1 0 0
545 1 43.503 4.86106 0 1.03659 2 0 0.0556772 1 -0.0122314 -0.000283635
546 1 44.5025 4.8629 0 1.01001 2 0 0.0561744 1 -0.00795435 0.00697636
496 2 45 4 0 1 2 5 0.0225482 1 0 0
497 2 46 4 0 1 2 5 0.0232251 1 0 0
547 1 45.4997 4.86442 0 1.00173 2 0 0.056556 1 0.00487183 0.00396373
548 1 46.4994 4.86464 0 1.00807 2 0 0.056781 1 -0.00378019 -0.00626014
498 2 47 4 0 1 2 5 0.0226801 1 0 0
499 2 48 4 0 1 2 5 0.0217898 1 0 0
549 1 47.5025 4.86321 0 1.02093 2 0 0.0573296 1 -0.00906633 0.00600316
500 2 49 4 0 1 2 5 0.0208719 1 0 0
550 1 48.4985 4.86941 0 1.02225 2 0 0.0587291 1 0.00514419 -0.00149168
8501 1 49.4967 4.86592 0 1.06187 2 0 0.0604577 1 2.89213e-05 -0.00621425
501 2 0 5 0 1 2 8 5.63811e-06 1 0 0
502 2 1 5 0 1 2 8 2.49582e-05 1 0 0
551 2 0 6 0 1 2 8 8.72478e-06 1 0 0
552 2 1 6 0 1 2 8 3.98711e-05 1 0 0
503 2 2 5 0 1 2 8 0.000188986 1 0 0
504 2 3 5 0 1 2 8 0.00114964 1 0 0
553 2 2 6 0 1 2 8 0.000309046 1 0 0
554 2 3 6 0 1 2 8 0.00192746 1 0 0
505 2 4 5 0 1 2 6 0.00527052 1 0 0
555 2 4 6 0 1 2 5 0.00887274 1 0 0
556 1 4.93689 5.67951 0 1.02426 2 0 0.0201671 1 0.00941748 0.00762574
557 1 5.93901 5.75445 0 1.00456 2 0 0.0312229 1 -0.0063549 -0.000107573
558 1 6.93573 5.76348 0 1.00032 2 0 0.0413601 1 0.00595681 -0.000726764
509 1 7.96522 5.76821 0 1.00999 2 0 0.0516535 1 -0.00432602 -0.000167614
560 1 8.96267 5.79533 0 1.01571 2 0 0.0618872 1 -0.0184826 -0.016433
561 1 9.95579 5.7779 0 1.04128 2 0 0.0717662 1 0.0135869 -0.000330544
562 1 10.9619 5.79468 0 1.02468 2 0 0.0794454 1 -0.00201704 0.00573892
563 1 11.959 5.76568 0 1.00884 2 0 0.0853091 1 0.00501254 -0.0001958
565 1 12.9793 5.7711 0 1.01555 2 0 0.0897597 1 -0.00522164 -0.00918239
566 1 13.981 5.72907 0 1.01485 2 0 0.0915417 1 1.33063e-05 0.000434162
567 1 14.9821 5.72964 0 1.00349 2 0 0.0927959 1 -0.010451 -0.00642712
568 1 15.9788 5.72427 0 1.02492 2 0 0.0939229 1 0.00564137 0.00285966
569 1 17.977 5.74673 0 1.01386 2 0 0.093687 1 -0.0164737 -0.00598987
618 1 16.9774 5.73838 0 1.00786 2 0 0.093292 1 0.0113462 -0.0109149
570 1 18.9696 5.71702 0 1.00562 2 0 0.0943461 1 0.00798174 0.0120107
571 1 19.963 5.75635 0 1.00943 2 0 0.0940561 1 0.0115615 0.000407708
572 1 20.9686 5.76651 0 1.02492 2 0 0.0925872 1 -0.00440161 -0.00949614
573 1 21.9816 5.7356 0 1.00977 2 0 0.0928205 1 -0.00935672 -0.00388292
574 1 22.9786 5.79313 0 1.00488 2 0 0.0948564 1 0.00278832 0.000110916
575 1 24.0155 5.76065 0 1.01237 2 0 0.0958672 1 -0.00487618 0.000118172
577 1 26.0134 5.72139 0 1.01133 2 0 0.0964791 1 0.000505618 0.000436642
576 1 25.0124 5.72626 0 1.01087 2 0 0.0947232 1 0.00422599 -1.13797e-06
579 1 27.0215 5.73459 0 1.01129 2 0 0.0985584 1 -0.00949698 -0.00564533
580 1 28.0152 5.72436 0 1.02117 2 0 0.0996828 0.999999 0.000441848 0.00766112
581 1 29.0113 5.73375 0 1.01861 2 0 0.101446 0.999985 0.00477122 -0.00173001
632 1 30.0095 5.72671 0 1.0167 2 0 0.100498 1 -0.000102634 -0.000839778
582 1 31.0072 5.72335 0 1.0143 2 0 0.0979777 1 -0.00353319 -0.00198267
583 1 32.0057 5.72303 0 1.0088 2 0 0.0981484 1 0.00534564 -0.00561862
584 1 33.0062 5.72509 0 1.00514 2 0 0.0988711 0.999999 -0.00383878 -0.00181274
585 1 34.0054 5.72837 0 1.02197 2 0 0.0986079 0.999983 -0.00312738 1.12573e-05
537 1 35.5012 4.86409 0 1.0067 2 0 0.0630565 1 -0.00165227 -0.000503938
586 1 35.0028 5.74556 0 1.02669 2 0 0.0987888 1 0.00530624 -0.000761641
587 1 36.0026 5.72512 0 1.01702 2 0 0.100749 1 -0.00268635 0.00413701
588 1 37.0058 5.72284 0 1.01798 2 0 0.102153 0.999988 -0.000777072 -0.000442193
589 1 38.0027 5.72312 0 1.01656 2 0 0.101415 1 0.00365466 0.000760353
590 1 39.0025 5.72226 0 1.01208 2 0 0.0995461 0.999999 -0.00401489 0.00130163
640 1 39.5007 6.58365 0 1.01834 2 0 0.137998 0.991225 -0.000466868 0.00338803
591 1 40.001 5.72172 0 1.01334 2 0 0.0991548 1 0.00176089 0.00677784
592 1 41.04 5.74919 0 1.02633 2 0 0.102261 0.999996 -0.00168186 0.00394188
641 1 40.496 6.58559 0 1.00947 2 0 0.143478 0.996267 0.00435467 -0.00119757
594 1 42.9995 5.72715 0 1.01497 2 0 0.0953821 0.999869 -0.0104357 0.00243363
593 1 42.0215 5.94195 0 1.02837 2 0 0.113952 0.998567 0.00207512 -0.0035315
595 1 43.9928 5.72295 0 1.01694 2 0 0.0913537 1 0.00822936 -0.00469311
596 1 44.9899 5.73484 0 1.01116 2 0 0.0888991 1 0.0052465 -0.00272932
597 1 45.9994 5.73009 0 1.01212 2 0 0.0879635 1 -0.00312915 0.000520396
598 1 46.998 5.72507 0 1.00861 2 0 0.0881194 1 0.0013501 0.00292863
599 1 47.9968 5.7334 0 1.02545 2 0 0.0908714 1 0.00149259 0.00147332
600 1 48.9975 5.73612 0 1.00476 2 0 0.0953298 1 -0.00241825 -0.00165685
2600 1 48.9278 44.7064 0 1.00728 0 0 0.5 1 4.66187e-05 8.88643e-05
601 2 0 7 0 1 2 8 1.15198e-05 1 0 0
602 2 1 7 0 1 2 8 5.35638e-05 1 0 0
651 2 0 8 0 1 2 8 1.36734e-05 1 0 0
652 2 1 8 0 1 2 8 6.40013e-05 1 0 0
603 2 2 7 0 1 2 8 0.000419888 1 0 0
604 2 3 7 0 1 2 8 0.0026617 1 0 0
653 2 2 8 0 1 2 8 0.000506692 1 0 0
654 2 3 8 0 1 2 8 0.00328807 1 0 0
605 2 4 7 0 1 2 5 0.0121644 1 0 0
655 2 4 8 0 1 2 5 0.0151111 1 0 0
656 1 4.88849 7.48111 0 1.01253 2 0 0.0298204 1 0 -5e-05
606 1 5.38518 6.59252 0 1.01839 2 0 0.0332981 1 0 -5e-05
607 1 6.38386 6.65519 0 1.01626 2 0 0.0477042 1 0 -5e-05
657 1 5.91855 7.70982 0 1.02523 2 0 0.0510889 1 0 -5e-05
608 1 7.41211 6.64224 0 1.01581 2 0 0.0619523 1 0.000398087 0.000684337
609 1 7.91046 7.53327 0 1.00447 2 0 0.0865616 1 0 -5e-05
658 1 6.90595 7.51368 0 1.00499 2 0 0.067434 1 0 -5e-05
559 1 8.42536 6.66345 0 1.01669 2 0 0.0764747 1 0 -5e-05
610 1 9.43947 6.663 0 1.00382 2 0 0.0906597 1 0.00653627 0.016714
661 1 8.92014 7.54146 0 1.00906 2 0 0.104661 1 0 -5e-05
660 1 8.41186 8.43163 0 0.999698 2 0 0.114374 1 0 -5e-05
611 1 10.4382 6.65383 0 1.00368 2 0 0.103865 1 0.0020058 -0.00127858
612 1 9.92353 7.54607 0 1.00002 2 0 0.123319 1 -0.0247319 -0.0217615
564 1 11.4774 6.70729 0 1.01095 2 0 0.114214 1 0.0039528 -0.00585823
613 1 10.9168 7.53107 0 1.00877 2 0 0.139417 1 0.0108202 0.00679113
614 1 12.4761 6.65527 0 1.01882 2 0 0.120559 1 -0.0057567 6.94422e-05
665 1 13.0768 7.66229 0 1.00809 2 0 0.158034 1 -0.0120562 0.00202924
664 1 12.0632 7.5759 0 1.0022 2 0 0.150878 1 0 -5e-05
615 1 13.473 6.63459 0 1.00601 2 0 0.123703 1 0.0109783 0.00896295
616 1 14.4749 6.59186 0 1.00878 2 0 0.124905 1 0.00691009 -0.00076098
666 1 14.0564 7.49334 0 0.997531 2 1 0.160485 0.999995 0.00797328 -0.0104578
617 1 15.4728 6.58854 0 1.01132 2 0 0.128589 1 0.00484143 0.0186844
667 1 15.0518 7.78055 0 1.00922 2 1 0.180761 0.991633 -0.00379733 0.0049126
668 1 16.0138 7.47243 0 1.01232 2 0 0.172032 0.988039 -0.00606092 0.00511722
619 1 16.4677 6.58962 0 1.00791 2 0 0.130107 0.999989 -0.00230914 0.00762042
669 1 17.4369 6.79775 0 1.0115 2 1 0.139207 0.999435 0.000689207 -0.00053599
620 1 18.4173 6.64064 0 1.00047 2 0 0.132476 0.995626 -0.00851602 -0.00128045
621 1 19.4048 6.60761 0 1.01086 2 2 0.132091 0.993402 0.00834629 -0.004192
671 1 19.6736 7.75069 0 1.01101 2 2 0.204209 0.723267 -0.000163524 0.00114176
670 1 18.6735 7.60406 0 1.01205 2 0 0.189756 0.821137 -0.000607496 -0.000376079
622 1 20.3953 6.66269 0 1.02282 2 1 0.12918 0.998607 0.00374459 0.00282879
623 1 21.3888 6.66826 0 1.01715 2 1 0.129633 0.999943 0.000447681 0.00269957
672 1 20.679 8.22362 0 1.01032 2 5 0.241214 0.603989 0.00162217 0.00144851
673 1 21.5991 8.0873 0 1.00705 2 2 0.237676 0.709088 0.00114981 -0.00161058
624 1 22.3784 6.64469 0 1.00933 2 2 0.135295 0.999392 -0.00595736 -0.00567013
674 1 22.5132 7.68902 0 1.01197 2 2 0.217051 0.856508 0.00445579 0.000380603
625 1 23.5789 6.68769 0 1.01358 2 3 0.141223 0.999596 -0.00121915 0.00131467
626 1 24.5633 6.6145 0 1.01095 2 2 0.132569 0.999962 0.00481465 0.000584643
675 1 23.4794 8.09246 0 1.00974 2 6 0.246057 0.600331 0.00209159 -0.00137379
676 1 24.5665 7.92608 0 1.01754 2 3 0.230276 0.794739 0.00467658 0.00510311
578 1 26.547 6.60576 0 1.0136 2 1 0.137522 0.999962 -0.00973295 -0.00324081
628 1 26.0944 7.48822 0 1.00647 2 1 0.191108 0.980611 0.000518548 0.00273866
627 1 25.554 6.59878 0 1.0116 2 2 0.133608 0.999996 0.00524213 0.00175713
629 1 27.5343 6.5972 0 1.00585 2 0 0.136902 0.996979 0.00379192 -0.0137093
679 1 27.6989 7.57386 0 1.01276 2 0 0.192776 0.788927 0.00392036 0.00750407
678 1 26.892 8.15967 0 1.01987 2 1 0.227759 0.65087 -0.0182939 -0.017485
630 1 28.5269 6.60466 0 1.00031 2 0 0.139533 0.985423 -0.00150243 -0.00230174
631 1 29.5225 6.59448 0 1.01679 2 0 0.140575 0.988323 -0.00598346 0.00363032
681 1 30.0271 7.45768 0 1.0067 2 0 0.183891 0.824406 0.00275933 -0.000378567
680 1 29.031 7.46321 0 1.0041 2 0 0.187517 0.710554 -0.0046979 0.00349049
682 1 30.5166 6.59071 0 1.0233 2 0 0.135437 0.997165 0.000998848 -0.00189926
633 1 31.5108 6.58174 0 1.00197 2 2 0.131855 0.999974 -0.00173189 -0.00255882
683 1 31.9662 7.47461 0 1.00602 2 1 0.176209 0.984142 3.92127e-05 5.03197e-05
732 1 30.8206 8.06308 0 1.02086 2 2 0.219403 0.648475 0.000217035 0.00184466
684 1 32.5055 6.58659 0 1.01173 2 1 0.134449 0.999156 -0.00421403 -0.00394267
734 1 32.9775 7.45904 0 1.01306 2 1 0.174408 0.899669 -4.72308e-05 0.00214384