ITEM: TIMESTEP
0
ITEM: NUMBER OF ATOMS
15950
ITEM: BOX BOUNDS pp pp pp
0.0000000000000000e+00 1.0000000000000000e+02
-5.0000000000000000e+00 2.0000000000000000e+02
-5.0000000000000000e-01 5.0000000000000000e-01
ITEM: ATOMS id type x y z c_rho c_phase c_nbond c_temp f_rheo_chi_chi fx fy
1 2 0 -5 0 1 0 0 0 1 0 0
2 2 1 -5 0 1 0 0 0 1 0 0
51 2 0 -4 0 1 0 0 0 1 0 0
52 2 1 -4 0 1 0 0 0 1 0 0
3 2 2 -5 0 1 0 0 0 1 0 0
4 2 3 -5 0 1 0 0 0 1 0 0
53 2 2 -4 0 1 0 0 0 1 0 0
54 2 3 -4 0 1 0 0 0 1 0 0
5 2 4 -5 0 1 0 0 0 1 0 0
55 2 4 -4 0 1 0 0 0 1 0 0
6 2 5 -5 0 1 0 0 0 1 0 0
7 2 6 -5 0 1 0 0 0 1 0 0
56 2 5 -4 0 1 0 0 0 1 0 0
57 2 6 -4 0 1 0 0 0 1 0 0
8 2 7 -5 0 1 0 0 0 1 0 0
9 2 8 -5 0 1 0 0 0 1 0 0
58 2 7 -4 0 1 0 0 0 1 0 0
59 2 8 -4 0 1 0 0 0 1 0 0
10 2 9 -5 0 1 0 0 0 1 0 0
60 2 9 -4 0 1 0 0 0 1 0 0
11 2 10 -5 0 1 0 0 0 1 0 0
12 2 11 -5 0 1 0 0 0 1 0 0
61 2 10 -4 0 1 0 0 0 1 0 0
62 2 11 -4 0 1 0 0 0 1 0 0
13 2 12 -5 0 1 0 0 0 1 0 0
14 2 13 -5 0 1 0 0 0 1 0 0
63 2 12 -4 0 1 0 0 0 1 0 0
64 2 13 -4 0 1 0 0 0 1 0 0
15 2 14 -5 0 1 0 0 0 1 0 0
65 2 14 -4 0 1 0 0 0 1 0 0
16 2 15 -5 0 1 0 0 0 1 0 0
17 2 16 -5 0 1 0 0 0 1 0 0
66 2 15 -4 0 1 0 0 0 1 0 0
67 2 16 -4 0 1 0 0 0 1 0 0
18 2 17 -5 0 1 0 0 0 1 0 0
19 2 18 -5 0 1 0 0 0 1 0 0
68 2 17 -4 0 1 0 0 0 1 0 0
69 2 18 -4 0 1 0 0 0 1 0 0
20 2 19 -5 0 1 0 0 0 1 0 0
70 2 19 -4 0 1 0 0 0 1 0 0
21 2 20 -5 0 1 0 0 0 1 0 0
22 2 21 -5 0 1 0 0 0 1 0 0
71 2 20 -4 0 1 0 0 0 1 0 0
72 2 21 -4 0 1 0 0 0 1 0 0
23 2 22 -5 0 1 0 0 0 1 0 0
24 2 23 -5 0 1 0 0 0 1 0 0
73 2 22 -4 0 1 0 0 0 1 0 0
74 2 23 -4 0 1 0 0 0 1 0 0
25 2 24 -5 0 1 0 0 0 1 0 0
75 2 24 -4 0 1 0 0 0 1 0 0
26 2 25 -5 0 1 0 0 0 1 0 0
27 2 26 -5 0 1 0 0 0 1 0 0
76 2 25 -4 0 1 0 0 0 1 0 0
77 2 26 -4 0 1 0 0 0 1 0 0
28 2 27 -5 0 1 0 0 0 1 0 0
29 2 28 -5 0 1 0 0 0 1 0 0
78 2 27 -4 0 1 0 0 0 1 0 0
79 2 28 -4 0 1 0 0 0 1 0 0
30 2 29 -5 0 1 0 0 0 1 0 0
80 2 29 -4 0 1 0 0 0 1 0 0
31 2 30 -5 0 1 0 0 0 1 0 0
32 2 31 -5 0 1 0 0 0 1 0 0
81 2 30 -4 0 1 0 0 0 1 0 0
82 2 31 -4 0 1 0 0 0 1 0 0
33 2 32 -5 0 1 0 0 0 1 0 0
34 2 33 -5 0 1 0 0 0 1 0 0
83 2 32 -4 0 1 0 0 0 1 0 0
84 2 33 -4 0 1 0 0 0 1 0 0
35 2 34 -5 0 1 0 0 0 1 0 0
85 2 34 -4 0 1 0 0 0 1 0 0
36 2 35 -5 0 1 0 0 0 1 0 0
37 2 36 -5 0 1 0 0 0 1 0 0
86 2 35 -4 0 1 0 0 0 1 0 0
87 2 36 -4 0 1 0 0 0 1 0 0
38 2 37 -5 0 1 0 0 0 1 0 0
39 2 38 -5 0 1 0 0 0 1 0 0
88 2 37 -4 0 1 0 0 0 1 0 0
89 2 38 -4 0 1 0 0 0 1 0 0
40 2 39 -5 0 1 0 0 0 1 0 0
90 2 39 -4 0 1 0 0 0 1 0 0
41 2 40 -5 0 1 0 0 0 1 0 0
42 2 41 -5 0 1 0 0 0 1 0 0
91 2 40 -4 0 1 0 0 0 1 0 0
92 2 41 -4 0 1 0 0 0 1 0 0
43 2 42 -5 0 1 0 0 0 1 0 0
44 2 43 -5 0 1 0 0 0 1 0 0
93 2 42 -4 0 1 0 0 0 1 0 0
94 2 43 -4 0 1 0 0 0 1 0 0
45 2 44 -5 0 1 0 0 0 1 0 0
95 2 44 -4 0 1 0 0 0 1 0 0
46 2 45 -5 0 1 0 0 0 1 0 0
47 2 46 -5 0 1 0 0 0 1 0 0
96 2 45 -4 0 1 0 0 0 1 0 0
97 2 46 -4 0 1 0 0 0 1 0 0
48 2 47 -5 0 1 0 0 0 1 0 0
49 2 48 -5 0 1 0 0 0 1 0 0
98 2 47 -4 0 1 0 0 0 1 0 0
99 2 48 -4 0 1 0 0 0 1 0 0
50 2 49 -5 0 1 0 0 0 1 0 0
100 2 49 -4 0 1 0 0 0 1 0 0
101 2 0 -3 0 1 0 0 0 1 0 0
102 2 1 -3 0 1 0 0 0 1 0 0
151 2 0 -2 0 1 0 0 0 1 0 0
152 2 1 -2 0 1 0 0 0 1 0 0
103 2 2 -3 0 1 0 0 0 1 0 0
104 2 3 -3 0 1 0 0 0 1 0 0
153 2 2 -2 0 1 0 0 0 1 0 0
154 2 3 -2 0 1 0 0 0 1 0 0
105 2 4 -3 0 1 0 0 0 1 0 0
155 2 4 -2 0 1 0 0 0 1 0 0
106 2 5 -3 0 1 0 0 0 1 0 0
107 2 6 -3 0 1 0 0 0 1 0 0
156 2 5 -2 0 1 0 0 0 1 0 0
157 2 6 -2 0 1 0 0 0 1 0 0
108 2 7 -3 0 1 0 0 0 1 0 0
109 2 8 -3 0 1 0 0 0 1 0 0
158 2 7 -2 0 1 0 0 0 1 0 0
159 2 8 -2 0 1 0 0 0 1 0 0
110 2 9 -3 0 1 0 0 0 1 0 0
160 2 9 -2 0 1 0 0 0 1 0 0
111 2 10 -3 0 1 0 0 0 1 0 0
112 2 11 -3 0 1 0 0 0 1 0 0
161 2 10 -2 0 1 0 0 0 1 0 0
162 2 11 -2 0 1 0 0 0 1 0 0
113 2 12 -3 0 1 0 0 0 1 0 0
114 2 13 -3 0 1 0 0 0 1 0 0
163 2 12 -2 0 1 0 0 0 1 0 0
164 2 13 -2 0 1 0 0 0 1 0 0
115 2 14 -3 0 1 0 0 0 1 0 0
165 2 14 -2 0 1 0 0 0 1 0 0
116 2 15 -3 0 1 0 0 0 1 0 0
117 2 16 -3 0 1 0 0 0 1 0 0
166 2 15 -2 0 1 0 0 0 1 0 0
167 2 16 -2 0 1 0 0 0 1 0 0
118 2 17 -3 0 1 0 0 0 1 0 0
119 2 18 -3 0 1 0 0 0 1 0 0
168 2 17 -2 0 1 0 0 0 1 0 0
169 2 18 -2 0 1 0 0 0 1 0 0
120 2 19 -3 0 1 0 0 0 1 0 0
170 2 19 -2 0 1 0 0 0 1 0 0
121 2 20 -3 0 1 0 0 0 1 0 0
122 2 21 -3 0 1 0 0 0 1 0 0
171 2 20 -2 0 1 0 0 0 1 0 0
172 2 21 -2 0 1 0 0 0 1 0 0
123 2 22 -3 0 1 0 0 0 1 0 0
124 2 23 -3 0 1 0 0 0 1 0 0
173 2 22 -2 0 1 0 0 0 1 0 0
174 2 23 -2 0 1 0 0 0 1 0 0
125 2 24 -3 0 1 0 0 0 1 0 0
175 2 24 -2 0 1 0 0 0 1 0 0
126 2 25 -3 0 1 0 0 0 1 0 0
127 2 26 -3 0 1 0 0 0 1 0 0
176 2 25 -2 0 1 0 0 0 1 0 0
177 2 26 -2 0 1 0 0 0 1 0 0
128 2 27 -3 0 1 0 0 0 1 0 0
129 2 28 -3 0 1 0 0 0 1 0 0
178 2 27 -2 0 1 0 0 0 1 0 0
179 2 28 -2 0 1 0 0 0 1 0 0
130 2 29 -3 0 1 0 0 0 1 0 0
180 2 29 -2 0 1 0 0 0 1 0 0
131 2 30 -3 0 1 0 0 0 1 0 0
132 2 31 -3 0 1 0 0 0 1 0 0
181 2 30 -2 0 1 0 0 0 1 0 0
182 2 31 -2 0 1 0 0 0 1 0 0
133 2 32 -3 0 1 0 0 0 1 0 0
134 2 33 -3 0 1 0 0 0 1 0 0
183 2 32 -2 0 1 0 0 0 1 0 0
184 2 33 -2 0 1 0 0 0 1 0 0
135 2 34 -3 0 1 0 0 0 1 0 0
185 2 34 -2 0 1 0 0 0 1 0 0
136 2 35 -3 0 1 0 0 0 1 0 0
137 2 36 -3 0 1 0 0 0 1 0 0
186 2 35 -2 0 1 0 0 0 1 0 0
187 2 36 -2 0 1 0 0 0 1 0 0
138 2 37 -3 0 1 0 0 0 1 0 0
139 2 38 -3 0 1 0 0 0 1 0 0
188 2 37 -2 0 1 0 0 0 1 0 0
189 2 38 -2 0 1 0 0 0 1 0 0
140 2 39 -3 0 1 0 0 0 1 0 0
190 2 39 -2 0 1 0 0 0 1 0 0
141 2 40 -3 0 1 0 0 0 1 0 0
142 2 41 -3 0 1 0 0 0 1 0 0
191 2 40 -2 0 1 0 0 0 1 0 0
192 2 41 -2 0 1 0 0 0 1 0 0
143 2 42 -3 0 1 0 0 0 1 0 0
144 2 43 -3 0 1 0 0 0 1 0 0
193 2 42 -2 0 1 0 0 0 1 0 0
194 2 43 -2 0 1 0 0 0 1 0 0
145 2 44 -3 0 1 0 0 0 1 0 0
195 2 44 -2 0 1 0 0 0 1 0 0
146 2 45 -3 0 1 0 0 0 1 0 0
147 2 46 -3 0 1 0 0 0 1 0 0
196 2 45 -2 0 1 0 0 0 1 0 0
197 2 46 -2 0 1 0 0 0 1 0 0
148 2 47 -3 0 1 0 0 0 1 0 0
149 2 48 -3 0 1 0 0 0 1 0 0
198 2 47 -2 0 1 0 0 0 1 0 0
199 2 48 -2 0 1 0 0 0 1 0 0
150 2 49 -3 0 1 0 0 0 1 0 0
200 2 49 -2 0 1 0 0 0 1 0 0
201 2 0 -1 0 1 0 0 0 1 0 0
202 2 1 -1 0 1 0 0 0 1 0 0
203 2 2 -1 0 1 0 0 0 1 0 0
204 2 3 -1 0 1 0 0 0 1 0 0
205 2 4 -1 0 1 0 0 0 1 0 0
206 2 5 -1 0 1 0 0 0 1 0 0
207 2 6 -1 0 1 0 0 0 1 0 0
208 2 7 -1 0 1 0 0 0 1 0 0
209 2 8 -1 0 1 0 0 0 1 0 0
210 2 9 -1 0 1 0 0 0 1 0 0
211 2 10 -1 0 1 0 0 0 1 0 0
212 2 11 -1 0 1 0 0 0 1 0 0
213 2 12 -1 0 1 0 0 0 1 0 0
214 2 13 -1 0 1 0 0 0 1 0 0
215 2 14 -1 0 1 0 0 0 1 0 0
216 2 15 -1 0 1 0 0 0 1 0 0
217 2 16 -1 0 1 0 0 0 1 0 0
218 2 17 -1 0 1 0 0 0 1 0 0
219 2 18 -1 0 1 0 0 0 1 0 0
220 2 19 -1 0 1 0 0 0 1 0 0
221 2 20 -1 0 1 0 0 0 1 0 0
222 2 21 -1 0 1 0 0 0 1 0 0
223 2 22 -1 0 1 0 0 0 1 0 0
224 2 23 -1 0 1 0 0 0 1 0 0
225 2 24 -1 0 1 0 0 0 1 0 0
226 2 25 -1 0 1 0 0 0 1 0 0
227 2 26 -1 0 1 0 0 0 1 0 0
228 2 27 -1 0 1 0 0 0 1 0 0
229 2 28 -1 0 1 0 0 0 1 0 0
230 2 29 -1 0 1 0 0 0 1 0 0
231 2 30 -1 0 1 0 0 0 1 0 0
232 2 31 -1 0 1 0 0 0 1 0 0
233 2 32 -1 0 1 0 0 0 1 0 0
234 2 33 -1 0 1 0 0 0 1 0 0
235 2 34 -1 0 1 0 0 0 1 0 0
236 2 35 -1 0 1 0 0 0 1 0 0
237 2 36 -1 0 1 0 0 0 1 0 0
238 2 37 -1 0 1 0 0 0 1 0 0
239 2 38 -1 0 1 0 0 0 1 0 0
240 2 39 -1 0 1 0 0 0 1 0 0
241 2 40 -1 0 1 0 0 0 1 0 0
242 2 41 -1 0 1 0 0 0 1 0 0
243 2 42 -1 0 1 0 0 0 1 0 0
244 2 43 -1 0 1 0 0 0 1 0 0
245 2 44 -1 0 1 0 0 0 1 0 0
246 2 45 -1 0 1 0 0 0 1 0 0
247 2 46 -1 0 1 0 0 0 1 0 0
248 2 47 -1 0 1 0 0 0 1 0 0
249 2 48 -1 0 1 0 0 0 1 0 0
250 2 49 -1 0 1 0 0 0 1 0 0
251 2 0 0 0 1 0 0 0 1 0 0
252 2 1 0 0 1 0 0 0 1 0 0
301 2 0 1 0 1 0 0 0 1 0 0
302 2 1 1 0 1 0 0 0 1 0 0
253 2 2 0 0 1 0 0 0 1 0 0
254 2 3 0 0 1 0 0 0 1 0 0
303 2 2 1 0 1 0 0 0 1 0 0
304 2 3 1 0 1 0 0 0 1 0 0
255 2 4 0 0 1 0 0 0 1 0 0
305 2 4 1 0 1 0 0 0 1 0 0
256 2 5 0 0 1 0 0 0 1 0 0
257 2 6 0 0 1 0 0 0 1 0 0
306 2 5 1 0 1 0 0 0 1 0 0
307 2 6 1 0 1 0 0 0 1 0 0
258 2 7 0 0 1 0 0 0 1 0 0
259 2 8 0 0 1 0 0 0 1 0 0
308 2 7 1 0 1 0 0 0 1 0 0
309 2 8 1 0 1 0 0 0 1 0 0
260 2 9 0 0 1 0 0 0 1 0 0
310 2 9 1 0 1 0 0 0 1 0 0
261 2 10 0 0 1 0 0 0 1 0 0
262 2 11 0 0 1 0 0 0 1 0 0
311 2 10 1 0 1 0 0 0 1 0 0
312 2 11 1 0 1 0 0 0 1 0 0
263 2 12 0 0 1 0 0 0 1 0 0
264 2 13 0 0 1 0 0 0 1 0 0
313 2 12 1 0 1 0 0 0 1 0 0
314 2 13 1 0 1 0 0 0 1 0 0
265 2 14 0 0 1 0 0 0 1 0 0
315 2 14 1 0 1 0 0 0 1 0 0
266 2 15 0 0 1 0 0 0 1 0 0
267 2 16 0 0 1 0 0 0 1 0 0
316 2 15 1 0 1 0 0 0 1 0 0
317 2 16 1 0 1 0 0 0 1 0 0
268 2 17 0 0 1 0 0 0 1 0 0
269 2 18 0 0 1 0 0 0 1 0 0
318 2 17 1 0 1 0 0 0 1 0 0
319 2 18 1 0 1 0 0 0 1 0 0
270 2 19 0 0 1 0 0 0 1 0 0
320 2 19 1 0 1 0 0 0 1 0 0
271 2 20 0 0 1 0 0 0 1 0 0
272 2 21 0 0 1 0 0 0 1 0 0
321 2 20 1 0 1 0 0 0 1 0 0
322 2 21 1 0 1 0 0 0 1 0 0
273 2 22 0 0 1 0 0 0 1 0 0
274 2 23 0 0 1 0 0 0 1 0 0
323 2 22 1 0 1 0 0 0 1 0 0
324 2 23 1 0 1 0 0 0 1 0 0
275 2 24 0 0 1 0 0 0 1 0 0
325 2 24 1 0 1 0 0 0 1 0 0
276 2 25 0 0 1 0 0 0 1 0 0
277 2 26 0 0 1 0 0 0 1 0 0
326 2 25 1 0 1 0 0 0 1 0 0
327 2 26 1 0 1 0 0 0 1 0 0
278 2 27 0 0 1 0 0 0 1 0 0
279 2 28 0 0 1 0 0 0 1 0 0
328 2 27 1 0 1 0 0 0 1 0 0
329 2 28 1 0 1 0 0 0 1 0 0
280 2 29 0 0 1 0 0 0 1 0 0
330 2 29 1 0 1 0 0 0 1 0 0
281 2 30 0 0 1 0 0 0 1 0 0
282 2 31 0 0 1 0 0 0 1 0 0
331 2 30 1 0 1 0 0 0 1 0 0
332 2 31 1 0 1 0 0 0 1 0 0
283 2 32 0 0 1 0 0 0 1 0 0
284 2 33 0 0 1 0 0 0 1 0 0
333 2 32 1 0 1 0 0 0 1 0 0
334 2 33 1 0 1 0 0 0 1 0 0
285 2 34 0 0 1 0 0 0 1 0 0
335 2 34 1 0 1 0 0 0 1 0 0
286 2 35 0 0 1 0 0 0 1 0 0
287 2 36 0 0 1 0 0 0 1 0 0
336 2 35 1 0 1 0 0 0 1 0 0
337 2 36 1 0 1 0 0 0 1 0 0
288 2 37 0 0 1 0 0 0 1 0 0
289 2 38 0 0 1 0 0 0 1 0 0
338 2 37 1 0 1 0 0 0 1 0 0
339 2 38 1 0 1 0 0 0 1 0 0
290 2 39 0 0 1 0 0 0 1 0 0
340 2 39 1 0 1 0 0 0 1 0 0
291 2 40 0 0 1 0 0 0 1 0 0
292 2 41 0 0 1 0 0 0 1 0 0
341 2 40 1 0 1 0 0 0 1 0 0
342 2 41 1 0 1 0 0 0 1 0 0
293 2 42 0 0 1 0 0 0 1 0 0
294 2 43 0 0 1 0 0 0 1 0 0
343 2 42 1 0 1 0 0 0 1 0 0
344 2 43 1 0 1 0 0 0 1 0 0
295 2 44 0 0 1 0 0 0 1 0 0
345 2 44 1 0 1 0 0 0 1 0 0
296 2 45 0 0 1 0 0 0 1 0 0
297 2 46 0 0 1 0 0 0 1 0 0
346 2 45 1 0 1 0 0 0 1 0 0
347 2 46 1 0 1 0 0 0 1 0 0
298 2 47 0 0 1 0 0 0 1 0 0
299 2 48 0 0 1 0 0 0 1 0 0
348 2 47 1 0 1 0 0 0 1 0 0
349 2 48 1 0 1 0 0 0 1 0 0
300 2 49 0 0 1 0 0 0 1 0 0
350 2 49 1 0 1 0 0 0 1 0 0
351 2 0 2 0 1 0 0 0 1 0 0
352 2 1 2 0 1 0 0 0 1 0 0
401 2 0 3 0 1 0 0 0 1 0 0
402 2 1 3 0 1 0 0 0 1 0 0
353 2 2 2 0 1 0 0 0 1 0 0
354 2 3 2 0 1 0 0 0 1 0 0
403 2 2 3 0 1 0 0 0 1 0 0
404 2 3 3 0 1 0 0 0 1 0 0
355 2 4 2 0 1 0 0 0 1 0 0
405 2 4 3 0 1 0 0 0 1 0 0
356 2 5 2 0 1 0 0 0 1 0 0
357 2 6 2 0 1 0 0 0 1 0 0
406 2 5 3 0 1 0 0 0 1 0 0
407 2 6 3 0 1 0 0 0 1 0 0
358 2 7 2 0 1 0 0 0 1 0 0
359 2 8 2 0 1 0 0 0 1 0 0
408 2 7 3 0 1 0 0 0 1 0 0
409 2 8 3 0 1 0 0 0 1 0 0
360 2 9 2 0 1 0 0 0 1 0 0
410 2 9 3 0 1 0 0 0 1 0 0
361 2 10 2 0 1 0 0 0 1 0 0
362 2 11 2 0 1 0 0 0 1 0 0
411 2 10 3 0 1 0 0 0 1 0 0
412 2 11 3 0 1 0 0 0 1 0 0
363 2 12 2 0 1 0 0 0 1 0 0
364 2 13 2 0 1 0 0 0 1 0 0
413 2 12 3 0 1 0 0 0 1 0 0
414 2 13 3 0 1 0 0 0 1 0 0
365 2 14 2 0 1 0 0 0 1 0 0
415 2 14 3 0 1 0 0 0 1 0 0
366 2 15 2 0 1 0 0 0 1 0 0
367 2 16 2 0 1 0 0 0 1 0 0
416 2 15 3 0 1 0 0 0 1 0 0
417 2 16 3 0 1 0 0 0 1 0 0
368 2 17 2 0 1 0 0 0 1 0 0
369 2 18 2 0 1 0 0 0 1 0 0
418 2 17 3 0 1 0 0 0 1 0 0
419 2 18 3 0 1 0 0 0 1 0 0
370 2 19 2 0 1 0 0 0 1 0 0
420 2 19 3 0 1 0 0 0 1 0 0
371 2 20 2 0 1 0 0 0 1 0 0
372 2 21 2 0 1 0 0 0 1 0 0
421 2 20 3 0 1 0 0 0 1 0 0
422 2 21 3 0 1 0 0 0 1 0 0
373 2 22 2 0 1 0 0 0 1 0 0
374 2 23 2 0 1 0 0 0 1 0 0
423 2 22 3 0 1 0 0 0 1 0 0
424 2 23 3 0 1 0 0 0 1 0 0
375 2 24 2 0 1 0 0 0 1 0 0
425 2 24 3 0 1 0 0 0 1 0 0
376 2 25 2 0 1 0 0 0 1 0 0
377 2 26 2 0 1 0 0 0 1 0 0
426 2 25 3 0 1 0 0 0 1 0 0
427 2 26 3 0 1 0 0 0 1 0 0
378 2 27 2 0 1 0 0 0 1 0 0
379 2 28 2 0 1 0 0 0 1 0 0
428 2 27 3 0 1 0 0 0 1 0 0
429 2 28 3 0 1 0 0 0 1 0 0
380 2 29 2 0 1 0 0 0 1 0 0
430 2 29 3 0 1 0 0 0 1 0 0
381 2 30 2 0 1 0 0 0 1 0 0
382 2 31 2 0 1 0 0 0 1 0 0
431 2 30 3 0 1 0 0 0 1 0 0
432 2 31 3 0 1 0 0 0 1 0 0
383 2 32 2 0 1 0 0 0 1 0 0
384 2 33 2 0 1 0 0 0 1 0 0
433 2 32 3 0 1 0 0 0 1 0 0
434 2 33 3 0 1 0 0 0 1 0 0
385 2 34 2 0 1 0 0 0 1 0 0
435 2 34 3 0 1 0 0 0 1 0 0
386 2 35 2 0 1 0 0 0 1 0 0
387 2 36 2 0 1 0 0 0 1 0 0
436 2 35 3 0 1 0 0 0 1 0 0
437 2 36 3 0 1 0 0 0 1 0 0
388 2 37 2 0 1 0 0 0 1 0 0
389 2 38 2 0 1 0 0 0 1 0 0
438 2 37 3 0 1 0 0 0 1 0 0
439 2 38 3 0 1 0 0 0 1 0 0
390 2 39 2 0 1 0 0 0 1 0 0
440 2 39 3 0 1 0 0 0 1 0 0
391 2 40 2 0 1 0 0 0 1 0 0
392 2 41 2 0 1 0 0 0 1 0 0
441 2 40 3 0 1 0 0 0 1 0 0
442 2 41 3 0 1 0 0 0 1 0 0
393 2 42 2 0 1 0 0 0 1 0 0
394 2 43 2 0 1 0 0 0 1 0 0
443 2 42 3 0 1 0 0 0 1 0 0
444 2 43 3 0 1 0 0 0 1 0 0
395 2 44 2 0 1 0 0 0 1 0 0
445 2 44 3 0 1 0 0 0 1 0 0
396 2 45 2 0 1 0 0 0 1 0 0
397 2 46 2 0 1 0 0 0 1 0 0
446 2 45 3 0 1 0 0 0 1 0 0
447 2 46 3 0 1 0 0 0 1 0 0
398 2 47 2 0 1 0 0 0 1 0 0
399 2 48 2 0 1 0 0 0 1 0 0
448 2 47 3 0 1 0 0 0 1 0 0
449 2 48 3 0 1 0 0 0 1 0 0
400 2 49 2 0 1 0 0 0 1 0 0
450 2 49 3 0 1 0 0 0 1 0 0
451 2 0 4 0 1 0 0 0 1 0 0
452 2 1 4 0 1 0 0 0 1 0 0
453 2 2 4 0 1 0 0 0 1 0 0
454 2 3 4 0 1 0 0 0 1 0 0
455 2 4 4 0 1 0 0 0 1 0 0
506 1 4.98502 4.90324 0 1 0 0 0.5 1 0 -5e-05
456 2 5 4 0 1 0 0 0 1 0 0
457 2 6 4 0 1 0 0 0 1 0 0
458 2 7 4 0 1 0 0 0 1 0 0
459 2 8 4 0 1 0 0 0 1 0 0
508 1 7.06684 4.91803 0 1 0 0 0.5 1 0 -5e-05
460 2 9 4 0 1 0 0 0 1 0 0
461 2 10 4 0 1 0 0 0 1 0 0
462 2 11 4 0 1 0 0 0 1 0 0
512 1 10.9178 4.90161 0 1 0 0 0.5 1 0 -5e-05
463 2 12 4 0 1 0 0 0 1 0 0
464 2 13 4 0 1 0 0 0 1 0 0
465 2 14 4 0 1 0 0 0 1 0 0
466 2 15 4 0 1 0 0 0 1 0 0
467 2 16 4 0 1 0 0 0 1 0 0
468 2 17 4 0 1 0 0 0 1 0 0
469 2 18 4 0 1 0 0 0 1 0 0
470 2 19 4 0 1 0 0 0 1 0 0
471 2 20 4 0 1 0 0 0 1 0 0
472 2 21 4 0 1 0 0 0 1 0 0
473 2 22 4 0 1 0 0 0 1 0 0
474 2 23 4 0 1 0 0 0 1 0 0
475 2 24 4 0 1 0 0 0 1 0 0
476 2 25 4 0 1 0 0 0 1 0 0
477 2 26 4 0 1 0 0 0 1 0 0
478 2 27 4 0 1 0 0 0 1 0 0
479 2 28 4 0 1 0 0 0 1 0 0
529 1 27.9812 4.90621 0 1 0 0 0.5 1 0 -5e-05
480 2 29 4 0 1 0 0 0 1 0 0
481 2 30 4 0 1 0 0 0 1 0 0
482 2 31 4 0 1 0 0 0 1 0 0
483 2 32 4 0 1 0 0 0 1 0 0
484 2 33 4 0 1 0 0 0 1 0 0
485 2 34 4 0 1 0 0 0 1 0 0
486 2 35 4 0 1 0 0 0 1 0 0
487 2 36 4 0 1 0 0 0 1 0 0
488 2 37 4 0 1 0 0 0 1 0 0
489 2 38 4 0 1 0 0 0 1 0 0
539 1 37.9957 4.90806 0 1 0 0 0.5 1 0 -5e-05
490 2 39 4 0 1 0 0 0 1 0 0
491 2 40 4 0 1 0 0 0 1 0 0
492 2 41 4 0 1 0 0 0 1 0 0
541 1 40.0347 4.90109 0 1 0 0 0.5 1 0 -5e-05
493 2 42 4 0 1 0 0 0 1 0 0
494 2 43 4 0 1 0 0 0 1 0 0
495 2 44 4 0 1 0 0 0 1 0 0
496 2 45 4 0 1 0 0 0 1 0 0
497 2 46 4 0 1 0 0 0 1 0 0
547 1 46.0434 4.90716 0 1 0 0 0.5 1 0 -5e-05
498 2 47 4 0 1 0 0 0 1 0 0
499 2 48 4 0 1 0 0 0 1 0 0
500 2 49 4 0 1 0 0 0 1 0 0
501 2 0 5 0 1 0 0 0 1 0 0
502 2 1 5 0 1 0 0 0 1 0 0
551 2 0 6 0 1 0 0 0 1 0 0
552 2 1 6 0 1 0 0 0 1 0 0
503 2 2 5 0 1 0 0 0 1 0 0
504 2 3 5 0 1 0 0 0 1 0 0
553 2 2 6 0 1 0 0 0 1 0 0
554 2 3 6 0 1 0 0 0 1 0 0
505 2 4 5 0 1 0 0 0 1 0 0
555 2 4 6 0 1 0 0 0 1 0 0
556 1 4.93761 6.0118 0 1 0 0 0.5 1 0 -5e-05
507 1 6.01522 4.9578 0 1 0 0 0.5 1 0 -5e-05
557 1 6.09088 6.03931 0 1 0 0 0.5 1 0 -5e-05
509 1 8.04422 5.00207 0 1 0 0 0.5 1 0 -5e-05
558 1 6.94115 5.96638 0 1 0 0 0.5 1 0 -5e-05
559 1 7.99594 5.91172 0 1 0 0 0.5 1 0 -5e-05
510 1 8.92892 4.98952 0 1 0 0 0.5 1 0 -5e-05
511 1 9.90716 5.08352 0 1 0 0 0.5 1 0 -5e-05
560 1 9.07707 5.98362 0 1 0 0 0.5 1 0 -5e-05
561 1 10.0008 5.97314 0 1 0 0 0.5 1 0 -5e-05
562 1 10.9615 6.04965 0 1 0 0 0.5 1 0 -5e-05
513 1 12.0656 5.04235 0 1 0 0 0.5 1 0 -5e-05
514 1 13.0361 5.00319 0 1 0 0 0.5 1 0 -5e-05
563 1 12.0612 5.90804 0 1 0 0 0.5 1 0 -5e-05
564 1 13.0839 6.05015 0 1 0 0 0.5 1 0 -5e-05
515 1 14.0438 5.0279 0 1 0 0 0.5 1 0 -5e-05
516 1 14.9775 4.92075 0 1 0 0 0.5 1 0 -5e-05
565 1 14.0027 5.96078 0 1 0 0 0.5 1 0 -5e-05
566 1 14.9895 5.91991 0 1 0 0 0.5 1 0 -5e-05
517 1 15.9212 5.06616 0 1 0 0 0.5 1 0 -5e-05
567 1 16.0969 5.95227 0 1 0 0 0.5 1 0 -5e-05
518 1 17.0174 5.03022 0 1 0 0 0.5 1 0 -5e-05
519 1 17.9934 5.04562 0 1 0 0 0.5 1 0 -5e-05
568 1 16.996 5.98421 0 1 0 0 0.5 1 0 -5e-05
569 1 18.0522 6.08952 0 1 0 0 0.5 1 0 -5e-05
520 1 19.0676 4.94919 0 1 0 0 0.5 1 0 -5e-05
570 1 18.9027 5.90881 0 1 0 0 0.5 1 0 -5e-05
521 1 20.0269 4.9618 0 1 0 0 0.5 1 0 -5e-05
522 1 21.0267 5.02112 0 1 0 0 0.5 1 0 -5e-05
571 1 20.0392 5.94803 0 1 0 0 0.5 1 0 -5e-05
572 1 21.021 6.09445 0 1 0 0 0.5 1 0 -5e-05
523 1 21.9548 5.03844 0 1 0 0 0.5 1 0 -5e-05
524 1 23.0642 4.98533 0 1 0 0 0.5 1 0 -5e-05
573 1 22.0622 6.00846 0 1 0 0 0.5 1 0 -5e-05
574 1 23.0156 5.98195 0 1 0 0 0.5 1 0 -5e-05
525 1 24.0868 5.06767 0 1 0 0 0.5 1 0 -5e-05
526 1 24.9474 5.07793 0 1 0 0 0.5 1 0 -5e-05
575 1 24.0079 6.04007 0 1 0 0 0.5 1 0 -5e-05
576 1 24.9168 5.92126 0 1 0 0 0.5 1 0 -5e-05
527 1 25.9984 5.06668 0 1 0 0 0.5 1 0 -5e-05
577 1 26.0571 5.97981 0 1 0 0 0.5 1 0 -5e-05
528 1 26.9438 5.09889 0 1 0 0 0.5 1 0 -5e-05
578 1 26.9823 5.93511 0 1 0 0 0.5 1 0 -5e-05
579 1 28.0469 6.08815 0 1 0 0 0.5 1 0 -5e-05
530 1 29.0407 5.06125 0 1 0 0 0.5 1 0 -5e-05
580 1 29.0452 6.08342 0 1 0 0 0.5 1 0 -5e-05
531 1 30.0293 4.97001 0 1 0 0 0.5 1 0 -5e-05
532 1 31.0478 5.01664 0 1 0 0 0.5 1 0 -5e-05
581 1 30.017 5.98644 0 1 0 0 0.5 1 0 -5e-05
582 1 30.9569 5.99108 0 1 0 0 0.5 1 0 -5e-05
533 1 31.9784 4.9487 0 1 0 0 0.5 1 0 -5e-05
534 1 32.902 4.92719 0 1 0 0 0.5 1 0 -5e-05
583 1 31.9484 5.98558 0 1 0 0 0.5 1 0 -5e-05
584 1 32.958 5.92314 0 1 0 0 0.5 1 0 -5e-05
535 1 33.9716 4.95686 0 1 0 0 0.5 1 0 -5e-05
585 1 34.0115 6.02302 0 1 0 0 0.5 1 0 -5e-05
536 1 35.0691 4.98089 0 1 0 0 0.5 1 0 -5e-05
537 1 36.0896 4.93611 0 1 0 0 0.5 1 0 -5e-05
586 1 35.0643 5.92714 0 1 0 0 0.5 1 0 -5e-05
587 1 35.9332 6.04448 0 1 0 0 0.5 1 0 -5e-05
538 1 37.0456 5.06879 0 1 0 0 0.5 1 0 -5e-05
588 1 36.9131 6.06428 0 1 0 0 0.5 1 0 -5e-05
589 1 38.0416 6.0438 0 1 0 0 0.5 1 0 -5e-05
540 1 39.0323 4.99731 0 1 0 0 0.5 1 0 -5e-05
590 1 39.0453 6.0959 0 1 0 0 0.5 1 0 -5e-05
591 1 39.9124 6.09164 0 1 0 0 0.5 1 0 -5e-05
542 1 41.0183 4.9777 0 1 0 0 0.5 1 0 -5e-05
592 1 40.9994 6.07229 0 1 0 0 0.5 1 0 -5e-05
543 1 42.0483 5.04358 0 1 0 0 0.5 1 0 -5e-05
544 1 42.9214 5.0687 0 1 0 0 0.5 1 0 -5e-05
593 1 41.9696 5.95195 0 1 0 0 0.5 1 0 -5e-05
594 1 43.0625 6.09001 0 1 0 0 0.5 1 0 -5e-05
545 1 44.0707 5.07217 0 1 0 0 0.5 1 0 -5e-05
595 1 44.0591 6.0655 0 1 0 0 0.5 1 0 -5e-05
546 1 45.074 4.98592 0 1 0 0 0.5 1 0 -5e-05
596 1 45.02 5.94739 0 1 0 0 0.5 1 0 -5e-05
597 1 45.986 6.03987 0 1 0 0 0.5 1 0 -5e-05
548 1 46.9208 5.01437 0 1 0 0 0.5 1 0 -5e-05
549 1 47.9752 5.08304 0 1 0 0 0.5 1 0 -5e-05
598 1 46.9893 5.93669 0 1 0 0 0.5 1 0 -5e-05
599 1 47.9067 6.04225 0 1 0 0 0.5 1 0 -5e-05
550 1 48.9356 5.00432 0 1 0 0 0.5 1 0 -5e-05
600 1 48.9007 5.93571 0 1 0 0 0.5 1 0 -5e-05
8501 1 49.9375 5.09117 0 1 0 0 0.5 1 0 -5e-05
8551 1 49.9874 6.07946 0 1 0 0 0.5 1 0 -5e-05
601 2 0 7 0 1 0 0 0 1 0 0
602 2 1 7 0 1 0 0 0 1 0 0
651 2 0 8 0 1 0 0 0 1 0 0
652 2 1 8 0 1 0 0 0 1 0 0
603 2 2 7 0 1 0 0 0 1 0 0
604 2 3 7 0 1 0 0 0 1 0 0
653 2 2 8 0 1 0 0 0 1 0 0
654 2 3 8 0 1 0 0 0 1 0 0
605 2 4 7 0 1 0 0 0 1 0 0
606 1 4.95111 7.0455 0 1 0 0 0.5 1 0 -5e-05
655 2 4 8 0 1 0 0 0 1 0 0
656 1 4.92574 7.97478 0 1 0 0 0.5 1 0 -5e-05
607 1 6.05578 7.08087 0 1 0 0 0.5 1 0 -5e-05
657 1 6.02648 7.90791 0 1 0 0 0.5 1 0 -5e-05
608 1 6.91554 6.95351 0 1 0 0 0.5 1 0 -5e-05
609 1 7.93212 7.06636 0 1 0 0 0.5 1 0 -5e-05
658 1 7.02529 7.9036 0 1 0 0 0.5 1 0 -5e-05
659 1 8.08174 7.97209 0 1 0 0 0.5 1 0 -5e-05
610 1 8.97448 7.06997 0 1 0 0 0.5 1 0 -5e-05
660 1 8.92697 8.04476 0 1 0 0 0.5 1 0 -5e-05
661 1 9.97854 7.98448 0 1 0 0 0.5 1 0 -5e-05
611 1 10.0138 6.98678 0 1 0 0 0.5 1 0 -5e-05
612 1 10.9312 6.9464 0 1 0 0 0.5 1 0 -5e-05
662 1 10.9128 7.93036 0 1 0 0 0.5 1 0 -5e-05
613 1 12.0524 6.97238 0 1 0 0 0.5 1 0 -5e-05
614 1 13.0882 6.90168 0 1 0 0 0.5 1 0 -5e-05
663 1 11.9412 7.93336 0 1 0 0 0.5 1 0 -5e-05
664 1 13.0882 8.04067 0 1 0 0 0.5 1 0 -5e-05
615 1 14.0947 6.95136 0 1 0 0 0.5 1 0 -5e-05
616 1 14.9879 7.08779 0 1 0 0 0.5 1 0 -5e-05
665 1 14.0516 7.96405 0 1 0 0 0.5 1 0 -5e-05
617 1 15.9969 7.04699 0 1 0 0 0.5 1 0 -5e-05
666 1 15.0735 8.08608 0 1 0 0 0.5 1 0 -5e-05
667 1 15.9125 8.08166 0 1 0 0 0.5 1 0 -5e-05
618 1 16.9474 7.08705 0 1 0 0 0.5 1 0 -5e-05
619 1 17.9814 7.06472 0 1 0 0 0.5 1 0 -5e-05
668 1 17.0491 8.03792 0 1 0 0 0.5 1 0 -5e-05
669 1 18.019 7.9159 0 1 0 0 0.5 1 0 -5e-05
620 1 18.951 7.08242 0 1 0 0 0.5 1 0 -5e-05
670 1 18.9359 8.08387 0 1 0 0 0.5 1 0 -5e-05
671 1 19.9884 7.99487 0 1 0 0 0.5 1 0 -5e-05
621 1 20.0979 6.97459 0 1 0 0 0.5 1 0 -5e-05
622 1 20.9269 7.06806 0 1 0 0 0.5 1 0 -5e-05
672 1 20.9769 7.95017 0 1 0 0 0.5 1 0 -5e-05
623 1 21.9005 7.07791 0 1 0 0 0.5 1 0 -5e-05
624 1 22.94 7.00559 0 1 0 0 0.5 1 0 -5e-05
673 1 22.0693 7.97534 0 1 0 0 0.5 1 0 -5e-05
674 1 22.9152 8.08839 0 1 0 0 0.5 1 0 -5e-05
625 1 23.9799 6.98738 0 1 0 0 0.5 1 0 -5e-05
675 1 24.0064 8.0808 0 1 0 0 0.5 1 0 -5e-05
626 1 25.0448 6.95287 0 1 0 0 0.5 1 0 -5e-05
627 1 26.0671 7.02064 0 1 0 0 0.5 1 0 -5e-05
676 1 25.008 7.94907 0 1 0 0 0.5 1 0 -5e-05
677 1 25.9648 8.03361 0 1 0 0 0.5 1 0 -5e-05
628 1 26.9139 6.9316 0 1 0 0 0.5 1 0 -5e-05
629 1 27.9939 6.96903 0 1 0 0 0.5 1 0 -5e-05
678 1 27.0184 7.96423 0 1 0 0 0.5 1 0 -5e-05
679 1 28.0223 8.01505 0 1 0 0 0.5 1 0 -5e-05
630 1 29.0754 7.07719 0 1 0 0 0.5 1 0 -5e-05
631 1 29.954 6.99693 0 1 0 0 0.5 1 0 -5e-05
680 1 29.0113 8.07087 0 1 0 0 0.5 1 0 -5e-05
632 1 31.083 7.00736 0 1 0 0 0.5 1 0 -5e-05
681 1 30.049 7.99355 0 1 0 0 0.5 1 0 -5e-05
682 1 30.9284 8.01172 0 1 0 0 0.5 1 0 -5e-05
633 1 32.0205 6.91915 0 1 0 0 0.5 1 0 -5e-05
634 1 32.9353 7.05053 0 1 0 0 0.5 1 0 -5e-05
683 1 32.0333 7.94702 0 1 0 0 0.5 1 0 -5e-05
684 1 32.9207 8.04647 0 1 0 0 0.5 1 0 -5e-05
635 1 33.9579 7.00816 0 1 0 0 0.5 1 0 -5e-05
685 1 33.9389 7.97581 0 1 0 0 0.5 1 0 -5e-05
686 1 34.9236 8.02118 0 1 0 0 0.5 1 0 -5e-05
636 1 35.0686 6.95195 0 1 0 0 0.5 1 0 -5e-05
637 1 36.0481 6.94583 0 1 0 0 0.5 1 0 -5e-05
687 1 35.9533 8.0787 0 1 0 0 0.5 1 0 -5e-05
638 1 36.989 6.95093 0 1 0 0 0.5 1 0 -5e-05
639 1 37.9022 6.97174 0 1 0 0 0.5 1 0 -5e-05
688 1 36.9109 7.94623 0 1 0 0 0.5 1 0 -5e-05
689 1 37.9727 7.91758 0 1 0 0 0.5 1 0 -5e-05
640 1 38.9974 7.09931 0 1 0 0 0.5 1 0 -5e-05
690 1 38.9507 8.02267 0 1 0 0 0.5 1 0 -5e-05
691 1 39.9406 8.03348 0 1 0 0 0.5 1 0 -5e-05
641 1 40.0986 6.99337 0 1 0 0 0.5 1 0 -5e-05
642 1 40.9628 6.97851 0 1 0 0 0.5 1 0 -5e-05
692 1 41.0509 7.96963 0 1 0 0 0.5 1 0 -5e-05
643 1 41.9097 6.99914 0 1 0 0 0.5 1 0 -5e-05
644 1 42.9002 6.92791 0 1 0 0 0.5 1 0 -5e-05
693 1 42.0382 7.96509 0 1 0 0 0.5 1 0 -5e-05
694 1 42.9092 7.91987 0 1 0 0 0.5 1 0 -5e-05
645 1 44.0481 7.05692 0 1 0 0 0.5 1 0 -5e-05
695 1 43.9942 8.02567 0 1 0 0 0.5 1 0 -5e-05
646 1 45.0783 6.91767 0 1 0 0 0.5 1 0 -5e-05
647 1 46.0822 7.07365 0 1 0 0 0.5 1 0 -5e-05
696 1 45.046 7.90435 0 1 0 0 0.5 1 0 -5e-05
697 1 46.0392 8.02847 0 1 0 0 0.5 1 0 -5e-05
648 1 47.0397 6.93642 0 1 0 0 0.5 1 0 -5e-05
649 1 48.0083 6.99489 0 1 0 0 0.5 1 0 -5e-05
698 1 46.9837 8.03629 0 1 0 0 0.5 1 0 -5e-05
699 1 48.0712 7.94521 0 1 0 0 0.5 1 0 -5e-05
650 1 48.9421 6.97011 0 1 0 0 0.5 1 0 -5e-05
700 1 49.0623 8.05506 0 1 0 0 0.5 1 0 -5e-05
8601 1 49.9612 6.99449 0 1 0 0 0.5 1 0 -5e-05
701 2 0 9 0 1 0 0 0 1 0 0
702 2 1 9 0 1 0 0 0 1 0 0
703 2 2 9 0 1 0 0 0 1 0 0
704 2 3 9 0 1 0 0 0 1 0 0
705 2 4 9 0 1 0 0 0 1 0 0
706 1 5.0424 9.04851 0 1 0 0 0.5 1 0 -5e-05
707 1 6.05284 9.02292 0 1 0 0 0.5 1 0 -5e-05
708 1 7.09405 8.97035 0 1 0 0 0.5 1 0 -5e-05
709 1 7.9507 8.93185 0 1 0 0 0.5 1 0 -5e-05
710 1 9.09192 8.92573 0 1 0 0 0.5 1 0 -5e-05
711 1 9.97453 8.99059 0 1 0 0 0.5 1 0 -5e-05
712 1 10.9687 8.97938 0 1 0 0 0.5 1 0 -5e-05
713 1 11.9906 9.0405 0 1 0 0 0.5 1 0 -5e-05
714 1 13.0498 8.96456 0 1 0 0 0.5 1 0 -5e-05
715 1 13.9954 9.06756 0 1 0 0 0.5 1 0 -5e-05
716 1 15.048 8.92723 0 1 0 0 0.5 1 0 -5e-05
717 1 16.0148 9.04783 0 1 0 0 0.5 1 0 -5e-05
718 1 17.0321 8.93961 0 1 0 0 0.5 1 0 -5e-05
719 1 17.9537 8.97274 0 1 0 0 0.5 1 0 -5e-05
720 1 18.9673 8.90887 0 1 0 0 0.5 1 0 -5e-05
721 1 19.9473 9.06104 0 1 0 0 0.5 1 0 -5e-05
722 1 21.0353 8.93951 0 1 0 0 0.5 1 0 -5e-05
723 1 21.9643 9.04478 0 1 0 0 0.5 1 0 -5e-05
724 1 22.9758 8.91963 0 1 0 0 0.5 1 0 -5e-05
725 1 24.0824 8.914 0 1 0 0 0.5 1 0 -5e-05
726 1 25.0073 8.96229 0 1 0 0 0.5 1 0 -5e-05
727 1 26.0492 8.9533 0 1 0 0 0.5 1 0 -5e-05
728 1 26.9555 9.00515 0 1 0 0 0.5 1 0 -5e-05
729 1 28.0844 8.92875 0 1 0 0 0.5 1 0 -5e-05
730 1 28.9184 8.95642 0 1 0 0 0.5 1 0 -5e-05
731 1 29.9011 9.02504 0 1 0 0 0.5 1 0 -5e-05
732 1 30.9855 8.9761 0 1 0 0 0.5 1 0 -5e-05
733 1 32.0606 9.06079 0 1 0 0 0.5 1 0 -5e-05
734 1 32.9498 8.96494 0 1 0 0 0.5 1 0 -5e-05
735 1 33.9488 9.03629 0 1 0 0 0.5 1 0 -5e-05
736 1 34.9611 8.93518 0 1 0 0 0.5 1 0 -5e-05
737 1 36.0165 8.95123 0 1 0 0 0.5 1 0 -5e-05
738 1 37.0841 8.96417 0 1 0 0 0.5 1 0 -5e-05
739 1 37.9051 9.0884 0 1 0 0 0.5 1 0 -5e-05
740 1 38.952 9.05102 0 1 0 0 0.5 1 0 -5e-05
741 1 40.0994 8.9675 0 1 0 0 0.5 1 0 -5e-05
742 1 40.9042 8.92996 0 1 0 0 0.5 1 0 -5e-05
743 1 42.0221 8.93813 0 1 0 0 0.5 1 0 -5e-05
744 1 43.0647 9.03454 0 1 0 0 0.5 1 0 -5e-05
745 1 43.9024 9.00106 0 1 0 0 0.5 1 0 -5e-05
746 1 45.0616 8.94775 0 1 0 0 0.5 1 0 -5e-05
747 1 45.9078 8.96781 0 1 0 0 0.5 1 0 -5e-05
748 1 47.0268 8.96716 0 1 0 0 0.5 1 0 -5e-05
749 1 47.9216 9.03947 0 1 0 0 0.5 1 0 -5e-05
750 1 49.0124 8.99165 0 1 0 0 0.5 1 0 -5e-05
751 2 0 10 0 1 0 0 0 1 0 0
752 2 1 10 0 1 0 0 0 1 0 0
801 2 0 11 0 1 0 0 0 1 0 0
802 2 1 11 0 1 0 0 0 1 0 0
753 2 2 10 0 1 0 0 0 1 0 0
754 2 3 10 0 1 0 0 0 1 0 0
803 2 2 11 0 1 0 0 0 1 0 0
804 2 3 11 0 1 0 0 0 1 0 0
755 2 4 10 0 1 0 0 0 1 0 0
805 2 4 11 0 1 0 0 0 1 0 0
756 1 5.06247 9.92217 0 1 0 0 0.5 1 0 -5e-05
757 1 5.94622 10.077 0 1 0 0 0.5 1 0 -5e-05
806 1 5.0168 10.9315 0 1 0 0 0.5 1 0 -5e-05
807 1 6.07357 10.9284 0 1 0 0 0.5 1 0 -5e-05
758 1 6.95978 10.0498 0 1 0 0 0.5 1 0 -5e-05
759 1 7.99253 9.90267 0 1 0 0 0.5 1 0 -5e-05
808 1 6.9342 10.904 0 1 0 0 0.5 1 0 -5e-05
809 1 7.93638 10.9977 0 1 0 0 0.5 1 0 -5e-05
760 1 9.01158 10.0508 0 1 0 0 0.5 1 0 -5e-05
810 1 8.91253 10.9285 0 1 0 0 0.5 1 0 -5e-05
811 1 9.92418 10.9029 0 1 0 0 0.5 1 0 -5e-05
761 1 10.0703 10.0574 0 1 0 0 0.5 1 0 -5e-05
762 1 10.9232 10.0619 0 1 0 0 0.5 1 0 -5e-05
812 1 10.9959 10.943 0 1 0 0 0.5 1 0 -5e-05
763 1 12.0808 10.0226 0 1 0 0 0.5 1 0 -5e-05
764 1 13.0479 10.0311 0 1 0 0 0.5 1 0 -5e-05
813 1 12.0135 11.0127 0 1 0 0 0.5 1 0 -5e-05
814 1 13.046 10.9142 0 1 0 0 0.5 1 0 -5e-05
765 1 14.0717 9.9442 0 1 0 0 0.5 1 0 -5e-05
766 1 14.956 9.93234 0 1 0 0 0.5 1 0 -5e-05
815 1 14.0749 11.0909 0 1 0 0 0.5 1 0 -5e-05
816 1 14.9126 10.9555 0 1 0 0 0.5 1 0 -5e-05
767 1 15.955 10.0035 0 1 0 0 0.5 1 0 -5e-05
817 1 16.0054 11.0626 0 1 0 0 0.5 1 0 -5e-05
768 1 17.0463 10.0554 0 1 0 0 0.5 1 0 -5e-05
769 1 17.9672 10.0672 0 1 0 0 0.5 1 0 -5e-05
818 1 17.0971 10.9077 0 1 0 0 0.5 1 0 -5e-05
819 1 18.081 11.0755 0 1 0 0 0.5 1 0 -5e-05
770 1 19.0346 10.0376 0 1 0 0 0.5 1 0 -5e-05
820 1 18.9718 11.0807 0 1 0 0 0.5 1 0 -5e-05
821 1 19.9435 10.9914 0 1 0 0 0.5 1 0 -5e-05
771 1 20.0856 9.91757 0 1 0 0 0.5 1 0 -5e-05
772 1 21.0111 9.99788 0 1 0 0 0.5 1 0 -5e-05
822 1 21.0174 11.0025 0 1 0 0 0.5 1 0 -5e-05
773 1 21.9255 10.0616 0 1 0 0 0.5 1 0 -5e-05
774 1 23.0625 9.98523 0 1 0 0 0.5 1 0 -5e-05
823 1 22.0808 11.0196 0 1 0 0 0.5 1 0 -5e-05
824 1 22.9944 11.0468 0 1 0 0 0.5 1 0 -5e-05
775 1 24.0779 9.99713 0 1 0 0 0.5 1 0 -5e-05
776 1 24.905 9.91435 0 1 0 0 0.5 1 0 -5e-05
825 1 24.0728 10.9383 0 1 0 0 0.5 1 0 -5e-05
777 1 25.9255 10.077 0 1 0 0 0.5 1 0 -5e-05
826 1 25.0012 11.0018 0 1 0 0 0.5 1 0 -5e-05
827 1 26.0443 11.0231 0 1 0 0 0.5 1 0 -5e-05
778 1 27.0848 9.99076 0 1 0 0 0.5 1 0 -5e-05
779 1 28.0876 9.9296 0 1 0 0 0.5 1 0 -5e-05
828 1 26.9374 11.0162 0 1 0 0 0.5 1 0 -5e-05
829 1 27.9764 11.0195 0 1 0 0 0.5 1 0 -5e-05
780 1 29.0171 9.96602 0 1 0 0 0.5 1 0 -5e-05
830 1 28.9635 10.9635 0 1 0 0 0.5 1 0 -5e-05
831 1 29.9498 11.0094 0 1 0 0 0.5 1 0 -5e-05
781 1 30.0241 10.0331 0 1 0 0 0.5 1 0 -5e-05
782 1 31.0858 10.0376 0 1 0 0 0.5 1 0 -5e-05
832 1 30.9584 11.0724 0 1 0 0 0.5 1 0 -5e-05
783 1 32.0309 10.015 0 1 0 0 0.5 1 0 -5e-05
784 1 32.9758 9.98824 0 1 0 0 0.5 1 0 -5e-05
833 1 31.9937 11.0522 0 1 0 0 0.5 1 0 -5e-05
834 1 33.0336 11.0301 0 1 0 0 0.5 1 0 -5e-05
785 1 33.9924 9.93779 0 1 0 0 0.5 1 0 -5e-05
835 1 34.0745 10.9241 0 1 0 0 0.5 1 0 -5e-05
836 1 34.9189 10.9855 0 1 0 0 0.5 1 0 -5e-05
786 1 35.0635 9.95418 0 1 0 0 0.5 1 0 -5e-05
787 1 35.9846 10.0235 0 1 0 0 0.5 1 0 -5e-05
837 1 36.0933 10.9401 0 1 0 0 0.5 1 0 -5e-05
788 1 36.9008 10.0673 0 1 0 0 0.5 1 0 -5e-05
789 1 38.0576 10.009 0 1 0 0 0.5 1 0 -5e-05
838 1 36.9245 11.0394 0 1 0 0 0.5 1 0 -5e-05
839 1 38.0149 10.9377 0 1 0 0 0.5 1 0 -5e-05
790 1 39.0718 9.9507 0 1 0 0 0.5 1 0 -5e-05
791 1 39.9609 10.0568 0 1 0 0 0.5 1 0 -5e-05
840 1 38.905 10.9943 0 1 0 0 0.5 1 0 -5e-05
841 1 39.9185 11.0018 0 1 0 0 0.5 1 0 -5e-05
792 1 40.9552 9.9909 0 1 0 0 0.5 1 0 -5e-05
842 1 40.9708 10.9061 0 1 0 0 0.5 1 0 -5e-05
793 1 42.0352 9.94533 0 1 0 0 0.5 1 0 -5e-05
794 1 43.006 9.92518 0 1 0 0 0.5 1 0 -5e-05
843 1 42.0544 10.932 0 1 0 0 0.5 1 0 -5e-05
844 1 42.9947 10.9157 0 1 0 0 0.5 1 0 -5e-05
795 1 44.0898 9.92032 0 1 0 0 0.5 1 0 -5e-05
796 1 44.9988 9.90584 0 1 0 0 0.5 1 0 -5e-05
845 1 43.9631 11.0779 0 1 0 0 0.5 1 0 -5e-05
846 1 44.9557 10.9269 0 1 0 0 0.5 1 0 -5e-05
797 1 45.9139 9.92562 0 1 0 0 0.5 1 0 -5e-05
847 1 45.9605 11.0255 0 1 0 0 0.5 1 0 -5e-05
798 1 47.0205 9.96321 0 1 0 0 0.5 1 0 -5e-05
799 1 48.0818 10.0173 0 1 0 0 0.5 1 0 -5e-05
848 1 46.9547 10.983 0 1 0 0 0.5 1 0 -5e-05
849 1 48.0788 11.0418 0 1 0 0 0.5 1 0 -5e-05
800 1 49.0506 10.0672 0 1 0 0 0.5 1 0 -5e-05
850 1 48.9779 10.9975 0 1 0 0 0.5 1 0 -5e-05
8751 1 49.9818 9.91951 0 1 0 0 0.5 1 0 -5e-05
8801 1 49.9047 11.0078 0 1 0 0 0.5 1 0 -5e-05
851 2 0 12 0 1 0 0 0 1 0 0
852 2 1 12 0 1 0 0 0 1 0 0
901 2 0 13 0 1 0 0 0 1 0 0
902 2 1 13 0 1 0 0 0 1 0 0
853 2 2 12 0 1 0 0 0 1 0 0
854 2 3 12 0 1 0 0 0 1 0 0
903 2 2 13 0 1 0 0 0 1 0 0
904 2 3 13 0 1 0 0 0 1 0 0
855 2 4 12 0 1 0 0 0 1 0 0
905 2 4 13 0 1 0 0 0 1 0 0
856 1 5.07453 12.0247 0 1 0 0 0.5 1 0 -5e-05
857 1 6.03182 11.9544 0 1 0 0 0.5 1 0 -5e-05
906 1 5.01574 13.0938 0 1 0 0 0.5 1 0 -5e-05
907 1 6.08378 13.0629 0 1 0 0 0.5 1 0 -5e-05
858 1 6.9029 11.9021 0 1 0 0 0.5 1 0 -5e-05
859 1 7.99607 12.0941 0 1 0 0 0.5 1 0 -5e-05
908 1 7.00498 13.078 0 1 0 0 0.5 1 0 -5e-05
909 1 7.90264 13.0925 0 1 0 0 0.5 1 0 -5e-05
860 1 9.04862 12.0272 0 1 0 0 0.5 1 0 -5e-05
910 1 8.93644 12.9136 0 1 0 0 0.5 1 0 -5e-05
861 1 10.0963 12.0028 0 1 0 0 0.5 1 0 -5e-05
862 1 11.0277 11.9535 0 1 0 0 0.5 1 0 -5e-05
911 1 10.0276 12.984 0 1 0 0 0.5 1 0 -5e-05
912 1 10.943 12.9974 0 1 0 0 0.5 1 0 -5e-05