LAMMPS data file via write_data, version 29 Oct 2020, timestep = 21429

6470 atoms
3 atom types

0.0 20.0 xlo xhi
-10.003 20.003 ylo yhi
-0.02 0.02 zlo zhi

Masses

1 0.04
2 0.04
3 0.04

Atoms # rheo

5301 2 1.0 1.0 4 0.0 -10.0 0.0 0 0 0
5302 2 1.0 1.0 4 0.2 -10.0 0.0 0 0 0
5303 2 1.0 1.0 4 0.4 -10.0 0.0 0 0 0
5351 2 1.0 1.0 4 0.0 -9.8 0.0 0 0 0
5352 2 1.0 1.0 4 0.2 -9.8 0.0 0 0 0
5353 2 1.0 1.0 4 0.4 -9.8 0.0 0 0 0
5401 2 1.0 1.0 4 0.0 -9.600000000000001 0.0 0 0 0
5402 2 1.0 1.0 4 0.2 -9.600000000000001 0.0 0 0 0
5403 2 1.0 1.0 4 0.4 -9.600000000000001 0.0 0 0 0
5304 2 1.0 1.0 4 0.6000000000000001 -10.0 0.0 0 0 0
5305 2 1.0 1.0 4 0.8 -10.0 0.0 0 0 0
5354 2 1.0 1.0 4 0.6000000000000001 -9.8 0.0 0 0 0
5355 2 1.0 1.0 4 0.8 -9.8 0.0 0 0 0
5404 2 1.0 1.0 4 0.6000000000000001 -9.600000000000001 0.0 0 0 0
5405 2 1.0 1.0 4 0.8 -9.600000000000001 0.0 0 0 0
5306 2 1.0 1.0 4 1.0 -10.0 0.0 0 0 0
5307 2 1.0 1.0 4 1.2000000000000002 -10.0 0.0 0 0 0
5356 2 1.0 1.0 4 1.0 -9.8 0.0 0 0 0
5357 2 1.0 1.0 4 1.2000000000000002 -9.8 0.0 0 0 0
5406 2 1.0 1.0 4 1.0 -9.600000000000001 0.0 0 0 0
5407 2 1.0 1.0 4 1.2000000000000002 -9.600000000000001 0.0 0 0 0
5308 2 1.0 1.0 4 1.4000000000000001 -10.0 0.0 0 0 0
5309 2 1.0 1.0 4 1.6 -10.0 0.0 0 0 0
5358 2 1.0 1.0 4 1.4000000000000001 -9.8 0.0 0 0 0
5359 2 1.0 1.0 4 1.6 -9.8 0.0 0 0 0
5408 2 1.0 1.0 4 1.4000000000000001 -9.600000000000001 0.0 0 0 0
5409 2 1.0 1.0 4 1.6 -9.600000000000001 0.0 0 0 0
5310 2 1.0 1.0 4 1.8 -10.0 0.0 0 0 0
5311 2 1.0 1.0 4 2.0 -10.0 0.0 0 0 0
5360 2 1.0 1.0 4 1.8 -9.8 0.0 0 0 0
5361 2 1.0 1.0 4 2.0 -9.8 0.0 0 0 0
5410 2 1.0 1.0 4 1.8 -9.600000000000001 0.0 0 0 0
5411 2 1.0 1.0 4 2.0 -9.600000000000001 0.0 0 0 0
5312 2 1.0 1.0 4 2.2 -10.0 0.0 0 0 0
5313 2 1.0 1.0 4 2.4000000000000004 -10.0 0.0 0 0 0
5314 2 1.0 1.0 4 2.6 -10.0 0.0 0 0 0
5362 2 1.0 1.0 4 2.2 -9.8 0.0 0 0 0
5363 2 1.0 1.0 4 2.4000000000000004 -9.8 0.0 0 0 0
5364 2 1.0 1.0 4 2.6 -9.8 0.0 0 0 0
5412 2 1.0 1.0 4 2.2 -9.600000000000001 0.0 0 0 0
5413 2 1.0 1.0 4 2.4000000000000004 -9.600000000000001 0.0 0 0 0
5414 2 1.0 1.0 4 2.6 -9.600000000000001 0.0 0 0 0
5315 2 1.0 1.0 4 2.8000000000000003 -10.0 0.0 0 0 0
5316 2 1.0 1.0 4 3.0 -10.0 0.0 0 0 0
5365 2 1.0 1.0 4 2.8000000000000003 -9.8 0.0 0 0 0
5366 2 1.0 1.0 4 3.0 -9.8 0.0 0 0 0
5415 2 1.0 1.0 4 2.8000000000000003 -9.600000000000001 0.0 0 0 0
5416 2 1.0 1.0 4 3.0 -9.600000000000001 0.0 0 0 0
5317 2 1.0 1.0 4 3.2 -10.0 0.0 0 0 0
5318 2 1.0 1.0 4 3.4000000000000004 -10.0 0.0 0 0 0
5367 2 1.0 1.0 4 3.2 -9.8 0.0 0 0 0
5368 2 1.0 1.0 4 3.4000000000000004 -9.8 0.0 0 0 0
5417 2 1.0 1.0 4 3.2 -9.600000000000001 0.0 0 0 0
5418 2 1.0 1.0 4 3.4000000000000004 -9.600000000000001 0.0 0 0 0
5319 2 1.0 1.0 4 3.6 -10.0 0.0 0 0 0
5320 2 1.0 1.0 4 3.8000000000000003 -10.0 0.0 0 0 0
5369 2 1.0 1.0 4 3.6 -9.8 0.0 0 0 0
5370 2 1.0 1.0 4 3.8000000000000003 -9.8 0.0 0 0 0
5419 2 1.0 1.0 4 3.6 -9.600000000000001 0.0 0 0 0
5420 2 1.0 1.0 4 3.8000000000000003 -9.600000000000001 0.0 0 0 0
5321 2 1.0 1.0 4 4.0 -10.0 0.0 0 0 0
5322 2 1.0 1.0 4 4.2 -10.0 0.0 0 0 0
5371 2 1.0 1.0 4 4.0 -9.8 0.0 0 0 0
5372 2 1.0 1.0 4 4.2 -9.8 0.0 0 0 0
5421 2 1.0 1.0 4 4.0 -9.600000000000001 0.0 0 0 0
5422 2 1.0 1.0 4 4.2 -9.600000000000001 0.0 0 0 0
5323 2 1.0 1.0 4 4.4 -10.0 0.0 0 0 0
5324 2 1.0 1.0 4 4.6000000000000005 -10.0 0.0 0 0 0
5373 2 1.0 1.0 4 4.4 -9.8 0.0 0 0 0
5374 2 1.0 1.0 4 4.6000000000000005 -9.8 0.0 0 0 0
5423 2 1.0 1.0 4 4.4 -9.600000000000001 0.0 0 0 0
5424 2 1.0 1.0 4 4.6000000000000005 -9.600000000000001 0.0 0 0 0
5325 2 1.0 1.0 4 4.800000000000001 -10.0 0.0 0 0 0
5326 2 1.0 1.0 4 5.0 -10.0 0.0 0 0 0
5327 2 1.0 1.0 4 5.2 -10.0 0.0 0 0 0
5375 2 1.0 1.0 4 4.800000000000001 -9.8 0.0 0 0 0
5376 2 1.0 1.0 4 5.0 -9.8 0.0 0 0 0
5377 2 1.0 1.0 4 5.2 -9.8 0.0 0 0 0
5425 2 1.0 1.0 4 4.800000000000001 -9.600000000000001 0.0 0 0 0
5426 2 1.0 1.0 4 5.0 -9.600000000000001 0.0 0 0 0
5427 2 1.0 1.0 4 5.2 -9.600000000000001 0.0 0 0 0
5328 2 1.0 1.0 4 5.4 -10.0 0.0 0 0 0
5329 2 1.0 1.0 4 5.6000000000000005 -10.0 0.0 0 0 0
5378 2 1.0 1.0 4 5.4 -9.8 0.0 0 0 0
5379 2 1.0 1.0 4 5.6000000000000005 -9.8 0.0 0 0 0
5428 2 1.0 1.0 4 5.4 -9.600000000000001 0.0 0 0 0
5429 2 1.0 1.0 4 5.6000000000000005 -9.600000000000001 0.0 0 0 0
5330 2 1.0 1.0 4 5.800000000000001 -10.0 0.0 0 0 0
5331 2 1.0 1.0 4 6.0 -10.0 0.0 0 0 0
5380 2 1.0 1.0 4 5.800000000000001 -9.8 0.0 0 0 0
5381 2 1.0 1.0 4 6.0 -9.8 0.0 0 0 0
5430 2 1.0 1.0 4 5.800000000000001 -9.600000000000001 0.0 0 0 0
5431 2 1.0 1.0 4 6.0 -9.600000000000001 0.0 0 0 0
5332 2 1.0 1.0 4 6.2 -10.0 0.0 0 0 0
5333 2 1.0 1.0 4 6.4 -10.0 0.0 0 0 0
5382 2 1.0 1.0 4 6.2 -9.8 0.0 0 0 0
5383 2 1.0 1.0 4 6.4 -9.8 0.0 0 0 0
5432 2 1.0 1.0 4 6.2 -9.600000000000001 0.0 0 0 0
5433 2 1.0 1.0 4 6.4 -9.600000000000001 0.0 0 0 0
5334 2 1.0 1.0 4 6.6000000000000005 -10.0 0.0 0 0 0
5335 2 1.0 1.0 4 6.800000000000001 -10.0 0.0 0 0 0
5384 2 1.0 1.0 4 6.6000000000000005 -9.8 0.0 0 0 0
5385 2 1.0 1.0 4 6.800000000000001 -9.8 0.0 0 0 0
5434 2 1.0 1.0 4 6.6000000000000005 -9.600000000000001 0.0 0 0 0
5435 2 1.0 1.0 4 6.800000000000001 -9.600000000000001 0.0 0 0 0
5336 2 1.0 1.0 4 7.0 -10.0 0.0 0 0 0
5337 2 1.0 1.0 4 7.2 -10.0 0.0 0 0 0
5386 2 1.0 1.0 4 7.0 -9.8 0.0 0 0 0
5387 2 1.0 1.0 4 7.2 -9.8 0.0 0 0 0
5436 2 1.0 1.0 4 7.0 -9.600000000000001 0.0 0 0 0
5437 2 1.0 1.0 4 7.2 -9.600000000000001 0.0 0 0 0
5338 2 1.0 1.0 4 7.4 -10.0 0.0 0 0 0
5339 2 1.0 1.0 4 7.6000000000000005 -10.0 0.0 0 0 0
5340 2 1.0 1.0 4 7.800000000000001 -10.0 0.0 0 0 0
5388 2 1.0 1.0 4 7.4 -9.8 0.0 0 0 0
5389 2 1.0 1.0 4 7.6000000000000005 -9.8 0.0 0 0 0
5390 2 1.0 1.0 4 7.800000000000001 -9.8 0.0 0 0 0
5438 2 1.0 1.0 4 7.4 -9.600000000000001 0.0 0 0 0
5439 2 1.0 1.0 4 7.6000000000000005 -9.600000000000001 0.0 0 0 0
5440 2 1.0 1.0 4 7.800000000000001 -9.600000000000001 0.0 0 0 0
5341 2 1.0 1.0 4 8.0 -10.0 0.0 0 0 0
5342 2 1.0 1.0 4 8.200000000000001 -10.0 0.0 0 0 0
5391 2 1.0 1.0 4 8.0 -9.8 0.0 0 0 0
5392 2 1.0 1.0 4 8.200000000000001 -9.8 0.0 0 0 0
5441 2 1.0 1.0 4 8.0 -9.600000000000001 0.0 0 0 0
5442 2 1.0 1.0 4 8.200000000000001 -9.600000000000001 0.0 0 0 0
5343 2 1.0 1.0 4 8.4 -10.0 0.0 0 0 0
5344 2 1.0 1.0 4 8.6 -10.0 0.0 0 0 0
5393 2 1.0 1.0 4 8.4 -9.8 0.0 0 0 0
5394 2 1.0 1.0 4 8.6 -9.8 0.0 0 0 0
5443 2 1.0 1.0 4 8.4 -9.600000000000001 0.0 0 0 0
5444 2 1.0 1.0 4 8.6 -9.600000000000001 0.0 0 0 0
5345 2 1.0 1.0 4 8.8 -10.0 0.0 0 0 0
5346 2 1.0 1.0 4 9.0 -10.0 0.0 0 0 0
5395 2 1.0 1.0 4 8.8 -9.8 0.0 0 0 0
5396 2 1.0 1.0 4 9.0 -9.8 0.0 0 0 0
5445 2 1.0 1.0 4 8.8 -9.600000000000001 0.0 0 0 0
5446 2 1.0 1.0 4 9.0 -9.600000000000001 0.0 0 0 0
5347 2 1.0 1.0 4 9.200000000000001 -10.0 0.0 0 0 0
5348 2 1.0 1.0 4 9.4 -10.0 0.0 0 0 0
5397 2 1.0 1.0 4 9.200000000000001 -9.8 0.0 0 0 0
5398 2 1.0 1.0 4 9.4 -9.8 0.0 0 0 0
5447 2 1.0 1.0 4 9.200000000000001 -9.600000000000001 0.0 0 0 0
5448 2 1.0 1.0 4 9.4 -9.600000000000001 0.0 0 0 0
5349 2 1.0 1.0 4 9.600000000000001 -10.0 0.0 0 0 0
5350 2 1.0 1.0 4 9.8 -10.0 0.0 0 0 0
5399 2 1.0 1.0 4 9.600000000000001 -9.8 0.0 0 0 0
5400 2 1.0 1.0 4 9.8 -9.8 0.0 0 0 0
5449 2 1.0 1.0 4 9.600000000000001 -9.600000000000001 0.0 0 0 0
5450 2 1.0 1.0 4 9.8 -9.600000000000001 0.0 0 0 0
5451 2 1.0 1.0 4 0.0 -9.4 0.0 0 0 0
5452 2 1.0 1.0 4 0.2 -9.4 0.0 0 0 0
5453 2 1.0 1.0 4 0.4 -9.4 0.0 0 0 0
5501 2 1.0 1.0 4 0.0 -9.200000000000001 0.0 0 0 0
5502 2 1.0 1.0 4 0.2 -9.200000000000001 0.0 0 0 0
5503 2 1.0 1.0 4 0.4 -9.200000000000001 0.0 0 0 0
5454 2 1.0 1.0 4 0.6000000000000001 -9.4 0.0 0 0 0
5455 2 0.9994768727389792 1.0 4 0.8 -9.4 0.0 0 0 0
5504 2 0.9994268896249021 1.0 4 0.6000000000000001 -9.200000000000001 0.0 0 0 0
5505 2 0.9994267695640082 1.0 4 0.8 -9.200000000000001 0.0 0 0 0
5456 2 0.9994767526780854 1.0 4 1.0 -9.4 0.0 0 0 0
5457 2 0.99947656115727 1.0 4 1.2000000000000002 -9.4 0.0 0 0 0
5506 2 0.9994266200741725 1.0 4 1.0 -9.200000000000001 0.0 0 0 0
5507 2 0.9994262427431945 1.0 4 1.2000000000000002 -9.200000000000001 0.0 0 0 0
5458 2 0.9994754068042994 1.0 4 1.4000000000000001 -9.4 0.0 0 0 0
5459 2 0.9994746461455737 1.0 4 1.6 -9.4 0.0 0 0 0
5508 2 0.9994253988230882 1.0 4 1.4000000000000001 -9.200000000000001 0.0 0 0 0
5509 2 0.9994247481717312 1.0 4 1.6 -9.200000000000001 0.0 0 0 0
5460 2 0.9994745155606204 1.0 4 1.8 -9.4 0.0 0 0 0
5461 2 0.9994745369347282 1.0 4 2.0 -9.4 0.0 0 0 0
5510 2 0.9994246058706129 1.0 4 1.8 -9.200000000000001 0.0 0 0 0
5511 2 0.9994246083554554 1.0 4 2.0 -9.200000000000001 0.0 0 0 0
5462 2 0.9994745903162878 1.0 4 2.2 -9.4 0.0 0 0 0
5463 2 0.9994745951058422 1.0 4 2.4000000000000004 -9.4 0.0 0 0 0
5464 2 0.999474488269234 1.0 4 2.6 -9.4 0.0 0 0 0
5512 2 0.9994246618961563 1.0 4 2.2 -9.200000000000001 0.0 0 0 0
5513 2 0.9994246695032457 1.0 4 2.4000000000000004 -9.200000000000001 0.0 0 0 0
5514 2 0.9994245624407114 1.0 4 2.6 -9.200000000000001 0.0 0 0 0
5465 2 0.9994742166827387 1.0 4 2.8000000000000003 -9.4 0.0 0 0 0
5466 2 0.9994740315719313 1.0 4 3.0 -9.4 0.0 0 0 0
5515 2 0.9994243338346521 1.0 4 2.8000000000000003 -9.200000000000001 0.0 0 0 0
5516 2 0.9994241594400163 1.0 4 3.0 -9.200000000000001 0.0 0 0 0
5467 2 0.999474139214192 1.0 4 3.2 -9.4 0.0 0 0 0
5468 2 0.9994741331981856 1.0 4 3.4000000000000004 -9.4 0.0 0 0 0
5517 2 0.9994242171540311 1.0 4 3.2 -9.200000000000001 0.0 0 0 0
5518 2 0.9994242144504744 1.0 4 3.4000000000000004 -9.200000000000001 0.0 0 0 0
5469 2 0.999473929219253 1.0 4 3.6 -9.4 0.0 0 0 0
5470 2 0.9994736930111254 1.0 4 3.8000000000000003 -9.4 0.0 0 0 0
5519 2 0.9994240342545042 1.0 4 3.6 -9.200000000000001 0.0 0 0 0
5520 2 0.9994238202021338 1.0 4 3.8000000000000003 -9.200000000000001 0.0 0 0 0
5471 2 0.9994735458868872 1.0 4 4.0 -9.4 0.0 0 0 0
5472 2 0.9994733849312627 1.0 4 4.2 -9.4 0.0 0 0 0
5521 2 0.9994236714524793 1.0 4 4.0 -9.200000000000001 0.0 0 0 0
5522 2 0.9994234908852163 1.0 4 4.2 -9.200000000000001 0.0 0 0 0
5473 2 0.9994730756910052 1.0 4 4.4 -9.4 0.0 0 0 0
5474 2 0.9994728745025275 1.0 4 4.6000000000000005 -9.4 0.0 0 0 0
5523 2 0.9994231958152139 1.0 4 4.4 -9.200000000000001 0.0 0 0 0
5524 2 0.9994229956783236 1.0 4 4.6000000000000005 -9.200000000000001 0.0 0 0 0
5475 2 0.9994727620730512 1.0 4 4.800000000000001 -9.4 0.0 0 0 0
5476 2 0.9994724625271049 1.0 4 5.0 -9.4 0.0 0 0 0
5477 2 0.9994721404910946 1.0 4 5.2 -9.4 0.0 0 0 0
5525 2 0.9994228498270787 1.0 4 4.800000000000001 -9.200000000000001 0.0 0 0 0
5526 2 0.999422564882041 1.0 4 5.0 -9.200000000000001 0.0 0 0 0
5527 2 0.9994222143195932 1.0 4 5.2 -9.200000000000001 0.0 0 0 0
5478 2 0.9994716255252946 1.0 4 5.4 -9.4 0.0 0 0 0
5479 2 0.9994713622223161 1.0 4 5.6000000000000005 -9.4 0.0 0 0 0
5528 2 0.999421768498684 1.0 4 5.4 -9.200000000000001 0.0 0 0 0
5529 2 0.9994214665852655 1.0 4 5.6000000000000005 -9.200000000000001 0.0 0 0 0
5480 2 0.9994710547387939 1.0 4 5.800000000000001 -9.4 0.0 0 0 0
5481 2 0.9994705465423932 1.0 4 6.0 -9.4 0.0 0 0 0
5530 2 0.9994211367264884 1.0 4 5.800000000000001 -9.200000000000001 0.0 0 0 0
5531 2 0.999420648866769 1.0 4 6.0 -9.200000000000001 0.0 0 0 0
5482 2 0.999470094961811 1.0 4 6.2 -9.4 0.0 0 0 0
5483 2 0.9994697846485687 1.0 4 6.4 -9.4 0.0 0 0 0
5532 2 0.9994202242305283 1.0 4 6.2 -9.200000000000001 0.0 0 0 0
5533 2 0.9994199026155838 1.0 4 6.4 -9.200000000000001 0.0 0 0 0
5484 2 0.9994694714064863 1.0 4 6.6000000000000005 -9.4 0.0 0 0 0
5485 2 0.9994690849982 1.0 4 6.800000000000001 -9.4 0.0 0 0 0
5534 2 0.9994195560986437 1.0 4 6.6000000000000005 -9.200000000000001 0.0 0 0 0
5535 2 0.9994192166466654 1.0 4 6.800000000000001 -9.200000000000001 0.0 0 0 0
5486 2 0.9994689163392184 1.0 4 7.0 -9.4 0.0 0 0 0
5487 2 0.9994685288212215 1.0 4 7.2 -9.4 0.0 0 0 0
5536 2 0.9994189536226369 1.0 4 7.0 -9.200000000000001 0.0 0 0 0
5537 2 0.9994185822768251 1.0 4 7.2 -9.200000000000001 0.0 0 0 0
5488 2 0.999468209945752 1.0 4 7.4 -9.4 0.0 0 0 0
5489 2 0.9994679118814903 1.0 4 7.6000000000000005 -9.4 0.0 0 0 0
5490 2 0.9994673956066445 1.0 4 7.800000000000001 -9.4 0.0 0 0 0
5538 2 0.9994182721443458 1.0 4 7.4 -9.200000000000001 0.0 0 0 0
5539 2 0.9994179152018889 1.0 4 7.6000000000000005 -9.200000000000001 0.0 0 0 0
5540 2 0.9994175226626396 1.0 4 7.800000000000001 -9.200000000000001 0.0 0 0 0
5491 2 0.999467173324571 1.0 4 8.0 -9.4 0.0 0 0 0
5492 2 0.9994670820774656 1.0 4 8.200000000000001 -9.4 0.0 0 0 0
5541 2 0.9994172980820206 1.0 4 8.0 -9.200000000000001 0.0 0 0 0
5542 2 0.9994171814708066 1.0 4 8.200000000000001 -9.200000000000001 0.0 0 0 0
5493 2 0.9994673200946482 1.0 4 8.4 -9.4 0.0 0 0 0
5494 2 0.9994677207049025 1.0 4 8.6 -9.4 0.0 0 0 0
5543 2 0.9994173533111125 1.0 4 8.4 -9.200000000000001 0.0 0 0 0
5544 2 0.9994178378369512 1.0 4 8.6 -9.200000000000001 0.0 0 0 0
5495 2 0.9994685609509778 1.0 4 8.8 -9.4 0.0 0 0 0
5496 2 0.9994691010739715 1.0 4 9.0 -9.4 0.0 0 0 0
5545 2 0.9994185084885285 1.0 4 8.8 -9.200000000000001 0.0 0 0 0
5546 2 0.9994189114009016 1.0 4 9.0 -9.200000000000001 0.0 0 0 0
5497 2 1.0 1.0 4 9.200000000000001 -9.4 0.0 0 0 0
5498 2 1.0 1.0 4 9.4 -9.4 0.0 0 0 0
5547 2 0.9994190301713055 1.0 4 9.200000000000001 -9.200000000000001 0.0 0 0 0
5548 2 1.0 1.0 4 9.4 -9.200000000000001 0.0 0 0 0
5499 2 1.0 1.0 4 9.600000000000001 -9.4 0.0 0 0 0
5500 2 1.0 1.0 4 9.8 -9.4 0.0 0 0 0
5549 2 1.0 1.0 4 9.600000000000001 -9.200000000000001 0.0 0 0 0
5550 2 1.0 1.0 4 9.8 -9.200000000000001 0.0 0 0 0
3706 2 1.0 1.0 4 0.0 -8.8 0.0 0 0 0
3707 2 1.0 1.0 4 0.2 -8.8 0.0 0 0 0
3708 2 1.0 1.0 4 0.4 -8.8 0.0 0 0 0
5551 2 1.0 1.0 4 0.0 -9.0 0.0 0 0 0
5552 2 1.0 1.0 4 0.2 -9.0 0.0 0 0 0
5553 2 1.0 1.0 4 0.4 -9.0 0.0 0 0 0
3709 2 0.9993266155518019 1.0 4 0.6000000000000001 -8.8 0.0 0 0 0
3710 2 0.9993262976950268 1.0 4 0.8 -8.8 0.0 0 0 0
5554 2 0.999376786449931 1.0 4 0.6000000000000001 -9.0 0.0 0 0 0
5555 2 0.9993766403408989 1.0 4 0.8 -9.0 0.0 0 0 0
1 1 0.9993296198500375 1.0 0 1.1766672906115987 -8.813991768652947 0.0 0 0 0
3711 2 0.9993260547769128 1.0 4 1.0 -8.8 0.0 0 0 0
5556 2 0.9993764276125805 1.0 4 1.0 -9.0 0.0 0 0 0
5557 2 0.999376013047925 1.0 4 1.2000000000000002 -9.0 0.0 0 0 0
2 1 0.9993233776021909 1.0 0 1.3839156439208602 -8.794063667093955 0.0 0 0 0
3 1 0.9993254416837357 1.0 0 1.602308857341534 -8.803393480220562 0.0 0 0 0
5558 2 0.9993752986429761 1.0 4 1.4000000000000001 -9.0 0.0 0 0 0
5559 2 0.9993747761150984 1.0 4 1.6 -9.0 0.0 0 0 0
4 1 0.9993263933291725 1.0 0 1.8005740276179527 -8.807135545510206 0.0 0 0 0
5 1 0.999324893896252 1.0 0 2.0049502981032936 -8.801579975160367 0.0 0 0 0
5560 2 0.9993746548874038 1.0 4 1.8 -9.0 0.0 0 0 0
5561 2 0.9993746481036199 1.0 4 2.0 -9.0 0.0 0 0 0
6 1 0.9993311321368009 1.0 0 2.183471268688176 -8.825984437396436 0.0 0 0 0
7 1 0.9993311506061566 1.0 0 2.392474783182334 -8.82614884108362 0.0 0 0 0
8 1 0.9993304044380937 1.0 0 2.597383367492378 -8.823343903278413 0.0 0 0 0
5562 2 0.9993746846880629 1.0 4 2.2 -9.0 0.0 0 0 0
5563 2 0.9993746917047382 1.0 4 2.4000000000000004 -9.0 0.0 0 0 0
5564 2 0.9993745933914663 1.0 4 2.6 -9.0 0.0 0 0 0
9 1 0.9993263601315551 1.0 0 2.8056310723486924 -8.808139269679437 0.0 0 0 0
10 1 0.9993216200470519 1.0 0 2.9850493634184794 -8.790102740283391 0.0 0 0 0
5565 2 0.9993743790763673 1.0 4 2.8000000000000003 -9.0 0.0 0 0 0
5566 2 0.9993742168936974 1.0 4 3.0 -9.0 0.0 0 0 0
11 1 0.9993258884197053 1.0 0 3.2011537922385758 -8.80678189461977 0.0 0 0 0
12 1 0.9993301440342051 1.0 0 3.3868883888009402 -8.823427073798106 0.0 0 0 0
5567 2 0.999374255908497 1.0 4 3.2 -9.0 0.0 0 0 0
5568 2 0.9993742559430459 1.0 4 3.4000000000000004 -9.0 0.0 0 0 0
13 1 0.9993254221443456 1.0 0 3.618553504630868 -8.805666474370161 0.0 0 0 0
14 1 0.9993234289851082 1.0 0 3.7949226667839584 -8.798423881048832 0.0 0 0 0
5569 2 0.9993740888575768 1.0 4 3.6 -9.0 0.0 0 0 0
5570 2 0.9993738914012309 1.0 4 3.8000000000000003 -9.0 0.0 0 0 0
15 1 0.9993261335147624 1.0 0 4.0031017818870325 -8.809593787765207 0.0 0 0 0
16 1 0.9993259811911387 1.0 0 4.186524127353996 -8.809546155580405 0.0 0 0 0
5571 2 0.9993737381605017 1.0 4 4.0 -9.0 0.0 0 0 0
5572 2 0.9993735458499513 1.0 4 4.2 -9.0 0.0 0 0 0
17 1 0.9993205320099254 1.0 0 4.409887756498604 -8.789373103497145 0.0 0 0 0
18 1 0.9993216180709391 1.0 0 4.596446416689385 -8.79457086153334 0.0 0 0 0
5573 2 0.9993732621287019 1.0 4 4.4 -9.0 0.0 0 0 0
5574 2 0.9993730559625492 1.0 4 4.6000000000000005 -9.0 0.0 0 0 0
19 1 0.9993297204962484 1.0 0 4.78695593829818 -8.826978819394204 0.0 0 0 0
20 1 0.9993261612067253 1.0 0 5.008368223092006 -8.814509473024266 0.0 0 0 0
21 1 0.9993246262091643 1.0 0 5.183637259801058 -8.809498753028722 0.0 0 0 0
5575 2 0.9993728841982369 1.0 4 4.800000000000001 -9.0 0.0 0 0 0
5576 2 0.9993726044743205 1.0 4 5.0 -9.0 0.0 0 0 0
5577 2 0.9993722470977203 1.0 4 5.2 -9.0 0.0 0 0 0
22 1 0.9993188558410832 1.0 0 5.411009522137489 -8.788694692048184 0.0 0 0 0
23 1 0.9993260089844657 1.0 0 5.608158354427744 -8.817812949522757 0.0 0 0 0
5578 2 0.9993718295208691 1.0 4 5.4 -9.0 0.0 0 0 0
5579 2 0.9993715253873164 1.0 4 5.6000000000000005 -9.0 0.0 0 0 0
24 1 0.9993232483795027 1.0 0 5.7940085943206165 -8.80836057360715 0.0 0 0 0
25 1 0.999318024411628 1.0 0 6.0038275730892945 -8.789651139938508 0.0 0 0 0
5580 2 0.9993711735926021 1.0 4 5.800000000000001 -9.0 0.0 0 0 0
5581 2 0.9993707051411705 1.0 4 6.0 -9.0 0.0 0 0 0
26 1 0.9993204394620033 1.0 0 6.212887429442716 -8.800646591283193 0.0 0 0 0
27 1 0.9993190159606753 1.0 0 6.385665336111748 -8.796347463816915 0.0 0 0 0
5582 2 0.9993703006840559 1.0 4 6.2 -9.0 0.0 0 0 0
5583 2 0.9993699774547319 1.0 4 6.4 -9.0 0.0 0 0 0
28 1 0.9993211443998381 1.0 0 6.585909268932596 -8.806138050968801 0.0 0 0 0
29 1 0.9993193394878872 1.0 0 6.793406074151957 -8.800845714935887 0.0 0 0 0
5584 2 0.999369611689704 1.0 4 6.6000000000000005 -9.0 0.0 0 0 0
5585 2 0.9993692605444588 1.0 4 6.800000000000001 -9.0 0.0 0 0 0
30 1 0.9993267305847379 1.0 0 7.0085752290671115 -8.830961651105419 0.0 0 0 0
31 1 0.9993169210140367 1.0 0 7.216883712536853 -8.794502679764724 0.0 0 0 0
5586 2 0.9993689644730576 1.0 4 7.0 -9.0 0.0 0 0 0
5587 2 0.9993685945259646 1.0 4 7.2 -9.0 0.0 0 0 0
32 1 0.9993258562284503 1.0 0 7.401321638361704 -8.830126118138827 0.0 0 0 0
33 1 0.9993166214586509 1.0 0 7.615227002124921 -8.795373420089657 0.0 0 0 0
34 1 0.9993145330648898 1.0 0 7.816679874676079 -8.78797149535936 0.0 0 0 0
5588 2 0.9993682812021295 1.0 4 7.4 -9.0 0.0 0 0 0
5589 2 0.9993679206867232 1.0 4 7.6000000000000005 -9.0 0.0 0 0 0
5590 2 0.9993675980267965 1.0 4 7.800000000000001 -9.0 0.0 0 0 0
35 1 0.9993145421756942 1.0 0 7.988298812692077 -8.78863339954995 0.0 0 0 0
36 1 0.999315046584736 1.0 0 8.195982047803483 -8.791590901590945 0.0 0 0 0
5591 2 0.9993673842750495 1.0 4 8.0 -9.0 0.0 0 0 0
5592 2 0.9993672383445537 1.0 4 8.200000000000001 -9.0 0.0 0 0 0
37 1 0.9993201015489277 1.0 0 8.4065367965598 -8.811763493529355 0.0 0 0 0
38 1 0.9993256693404295 1.0 0 8.600745514698593 -8.832447685161126 0.0 0 0 0
5593 2 0.9993673514908997 1.0 4 8.4 -9.0 0.0 0 0 0
5594 2 0.9993678238086211 1.0 4 8.6 -9.0 0.0 0 0 0
39 1 0.9993192503438282 1.0 0 8.821669284897405 -8.803387659833044 0.0 0 0 0
5595 2 0.9993684062231708 1.0 4 8.8 -9.0 0.0 0 0 0
5596 2 0.9993687253235872 1.0 4 9.0 -9.0 0.0 0 0 0
5901 3 0.9993183944256602 1.0 4 9.0 -8.8 0.0 0 0 0
5597 2 0.9993688644896739 1.0 4 9.200000000000001 -9.0 0.0 0 0 0
5598 2 0.9993689592660258 1.0 4 9.4 -9.0 0.0 0 0 0
5902 3 0.999318534215602 1.0 4 9.200000000000001 -8.8 0.0 0 0 0
5903 3 0.9993187594247104 1.0 4 9.4 -8.8 0.0 0 0 0
5599 2 1.0 1.0 4 9.600000000000001 -9.0 0.0 0 0 0
5600 2 1.0 1.0 4 9.8 -9.0 0.0 0 0 0
5904 3 1.0 1.0 4 9.600000000000001 -8.8 0.0 0 0 0
5905 3 1.0 1.0 4 9.8 -8.8 0.0 0 0 0
3712 2 1.0 1.0 4 0.0 -8.6 0.0 0 0 0
3713 2 1.0 1.0 4 0.2 -8.6 0.0 0 0 0
3714 2 1.0 1.0 4 0.4 -8.6 0.0 0 0 0
3718 2 1.0 1.0 4 0.0 -8.4 0.0 0 0 0
3719 2 1.0 1.0 4 0.2 -8.4 0.0 0 0 0
3720 2 1.0 1.0 4 0.4 -8.4 0.0 0 0 0
3715 2 0.9992755457235563 1.0 4 0.6000000000000001 -8.6 0.0 0 0 0
3716 2 0.9992755560939336 1.0 4 0.8 -8.6 0.0 0 0 0
3721 2 0.9992249662730064 1.0 4 0.6000000000000001 -8.4 0.0 0 0 0
3722 2 0.9992250934206672 1.0 4 0.8 -8.4 0.0 0 0 0
40 1 0.9992750593628028 1.0 0 1.1963135787815562 -8.600149009812258 0.0 0 0 0
79 1 0.9992239335449802 1.0 0 1.181294635089467 -8.395512204183772 0.0 0 0 0
3717 2 0.9992754571447247 1.0 4 1.0 -8.6 0.0 0 0 0
3723 2 0.9992251311655219 1.0 4 1.0 -8.4 0.0 0 0 0
41 1 0.9992750674574371 1.0 0 1.3776749166482813 -8.604445472658625 0.0 0 0 0
42 1 0.9992692533785522 1.0 0 1.6175379641492245 -8.582014172427614 0.0 0 0 0
80 1 0.9992273906526051 1.0 0 1.3920042586943842 -8.414293891121915 0.0 0 0 0
81 1 0.9992212428563032 1.0 0 1.6003546456967706 -8.389496630168273 0.0 0 0 0
43 1 0.9992694506851307 1.0 0 1.8115666929212508 -8.582675707608423 0.0 0 0 0
44 1 0.9992698610211679 1.0 0 2.0147859480093944 -8.584453342756811 0.0 0 0 0
82 1 0.999222659275804 1.0 0 1.783511649349836 -8.394726196158224 0.0 0 0 0
83 1 0.9992234928884881 1.0 0 2.015901116620316 -8.398131424545893 0.0 0 0 0
45 1 0.9992733904764513 1.0 0 2.2180853340910356 -8.599009572372582 0.0 0 0 0
46 1 0.9992701453050258 1.0 0 2.40629770223913 -8.586246662586865 0.0 0 0 0
47 1 0.9992710039588638 1.0 0 2.607487723224322 -8.589892408720479 0.0 0 0 0
84 1 0.9992211923312538 1.0 0 2.2140800161259198 -8.389188392964002 0.0 0 0 0
85 1 0.9992252430630341 1.0 0 2.4036134904661903 -8.405734378259503 0.0 0 0 0
48 1 0.9992753768288494 1.0 0 2.8132125469864486 -8.607683725750757 0.0 0 0 0
49 1 0.9992771497167331 1.0 0 2.9873374896683833 -8.614906283572907 0.0 0 0 0
86 1 0.999221606744801 1.0 0 2.6146984031142386 -8.391375098831896 0.0 0 0 0
87 1 0.9992207064457749 1.0 0 2.8092216027332855 -8.387974059207446 0.0 0 0 0
88 1 0.9992226045544034 1.0 0 3.000718198477884 -8.395831289041483 0.0 0 0 0
50 1 0.9992703328197974 1.0 0 3.1998715794824597 -8.58782542729819 0.0 0 0 0
51 1 0.9992733802202468 1.0 0 3.4083772697969428 -8.600365348600834 0.0 0 0 0
89 1 0.9992185130725121 1.0 0 3.1946824012484796 -8.379670155115424 0.0 0 0 0
90 1 0.9992264267805847 1.0 0 3.4164358927967835 -8.411887353323518 0.0 0 0 0
52 1 0.9992704591138859 1.0 0 3.6061493046594357 -8.589105778502866 0.0 0 0 0
53 1 0.9992691763261649 1.0 0 3.801670220071903 -8.584517704346815 0.0 0 0 0
91 1 0.9992182965825359 1.0 0 3.5807841842035386 -8.379599198746186 0.0 0 0 0
92 1 0.9992180618519833 1.0 0 3.7885147582754914 -8.379214100674917 0.0 0 0 0
54 1 0.9992765936268153 1.0 0 3.9970617084986073 -8.614923414849546 0.0 0 0 0
55 1 0.9992774774466958 1.0 0 4.211212039330576 -8.619171532400552 0.0 0 0 0
93 1 0.9992238767188308 1.0 0 3.987506212112128 -8.403214767808072 0.0 0 0 0
94 1 0.999226430728546 1.0 0 4.199808081034517 -8.414255650410034 0.0 0 0 0
56 1 0.9992695350574774 1.0 0 4.417381212264929 -8.588195234841914 0.0 0 0 0
57 1 0.9992742951475457 1.0 0 4.612519539855727 -8.608255892313583 0.0 0 0 0
95 1 0.9992177292428465 1.0 0 4.398984493405116 -8.380134775697492 0.0 0 0 0
96 1 0.9992193656110383 1.0 0 4.602437462695742 -8.387689575478905 0.0 0 0 0
58 1 0.9992759696330721 1.0 0 4.813748290759547 -8.616174017185173 0.0 0 0 0
59 1 0.9992742113779151 1.0 0 4.989408805409016 -8.610137023351587 0.0 0 0 0
60 1 0.9992682191540971 1.0 0 5.2040544253045855 -8.587364652212482 0.0 0 0 0
97 1 0.9992228585253712 1.0 0 4.804102210759052 -8.402837001477069 0.0 0 0 0
98 1 0.9992225992686564 1.0 0 4.980460483793543 -8.402809441578585 0.0 0 0 0
99 1 0.9992260570608533 1.0 0 5.189808027297977 -8.417955966640173 0.0 0 0 0
61 1 0.999272204030407 1.0 0 5.402257158080694 -8.60466160076825 0.0 0 0 0
62 1 0.9992676183505047 1.0 0 5.598945217581152 -8.587639297590632 0.0 0 0 0
100 1 0.9992192757865493 1.0 0 5.403307108590922 -8.392135100007462 0.0 0 0 0
101 1 0.999221051738678 1.0 0 5.618181808167839 -8.400802638323212 0.0 0 0 0
63 1 0.9992751317752787 1.0 0 5.784352324008949 -8.619112759423972 0.0 0 0 0
64 1 0.999267937801197 1.0 0 5.996873765264438 -8.59192308144504 0.0 0 0 0
102 1 0.9992210970072906 1.0 0 5.796264775525317 -8.402326025281885 0.0 0 0 0
103 1 0.9992202947381875 1.0 0 5.980089895925022 -8.400518004338938 0.0 0 0 0
65 1 0.9992726389080027 1.0 0 6.199840811745217 -8.612267023491098 0.0 0 0 0
66 1 0.9992659695518898 1.0 0 6.389209466059026 -8.586968253297592 0.0 0 0 0
104 1 0.9992198297865648 1.0 0 6.204621261688672 -8.40034522261838 0.0 0 0 0
105 1 0.9992157841375766 1.0 0 6.406003470163774 -8.385637286796003 0.0 0 0 0
67 1 0.9992638864894553 1.0 0 6.599642982837509 -8.580302951686779 0.0 0 0 0
68 1 0.9992707568450027 1.0 0 6.80526637415709 -8.609559072353067 0.0 0 0 0
106 1 0.9992169218832418 1.0 0 6.585549976295202 -8.391628317508932 0.0 0 0 0
107 1 0.9992198090174139 1.0 0 6.781335165946025 -8.404745011525916 0.0 0 0 0
69 1 0.9992636450764047 1.0 0 6.991718071146685 -8.582452855836953 0.0 0 0 0
70 1 0.9992651993020968 1.0 0 7.218407036382474 -8.590262590087006 0.0 0 0 0
108 1 0.9992190377064082 1.0 0 7.012707920894546 -8.403320144482674 0.0 0 0 0
109 1 0.9992161127699515 1.0 0 7.215767237187424 -8.392944731546928 0.0 0 0 0
71 1 0.9992692264520214 1.0 0 7.416813952676846 -8.607580090844545 0.0 0 0 0
72 1 0.9992680295158478 1.0 0 7.60604810521168 -8.60363606555497 0.0 0 0 0
73 1 0.9992684143027577 1.0 0 7.781163990402537 -8.605829544545934 0.0 0 0 0
110 1 0.9992197765853468 1.0 0 7.417947795034085 -8.408895125222088 0.0 0 0 0
111 1 0.9992153046211022 1.0 0 7.619628709971945 -8.391944842984405 0.0 0 0 0
112 1 0.999217936993318 1.0 0 7.801290656235454 -8.403237975750208 0.0 0 0 0
74 1 0.9992667344778524 1.0 0 8.005817400127391 -8.599960408251807 0.0 0 0 0
75 1 0.9992654432503004 1.0 0 8.18325882738666 -8.595650919405694 0.0 0 0 0
113 1 0.9992146176112666 1.0 0 7.9984578166439695 -8.39057737622332 0.0 0 0 0
114 1 0.9992153133274985 1.0 0 8.203832505593075 -8.394302473910985 0.0 0 0 0
76 1 0.9992680966941736 1.0 0 8.388689887216373 -8.607325764780198 0.0 0 0 0
77 1 0.9992646557323627 1.0 0 8.598417604106979 -8.593417714764788 0.0 0 0 0
115 1 0.999218077174724 1.0 0 8.389075443913903 -8.406460609047945 0.0 0 0 0
116 1 0.9992179175649435 1.0 0 8.617449461463734 -8.406457440782832 0.0 0 0 0
78 1 0.9992706949098249 1.0 0 8.801925715126627 -8.612848698992098 0.0 0 0 0
117 1 0.9992218867997611 1.0 0 8.8234216041292 -8.417453187243774 0.0 0 0 0
5906 3 0.9992678628082848 1.0 4 9.0 -8.6 0.0 0 0 0
5911 3 0.9992175118601353 1.0 4 9.0 -8.4 0.0 0 0 0
5907 3 0.9992679075421848 1.0 4 9.200000000000001 -8.6 0.0 0 0 0
5908 3 0.9992678468533516 1.0 4 9.4 -8.6 0.0 0 0 0
5912 3 0.9992174714149172 1.0 4 9.200000000000001 -8.4 0.0 0 0 0
5913 3 0.9992173299296074 1.0 4 9.4 -8.4 0.0 0 0 0
5909 3 1.0 1.0 4 9.600000000000001 -8.6 0.0 0 0 0
5910 3 1.0 1.0 4 9.8 -8.6 0.0 0 0 0
5914 3 1.0 1.0 4 9.600000000000001 -8.4 0.0 0 0 0
5915 3 1.0 1.0 4 9.8 -8.4 0.0 0 0 0
3724 2 1.0 1.0 4 0.0 -8.200000000000001 0.0 0 0 0
3725 2 1.0 1.0 4 0.2 -8.200000000000001 0.0 0 0 0
3726 2 1.0 1.0 4 0.4 -8.200000000000001 0.0 0 0 0
3730 2 1.0 1.0 4 0.0 -8.0 0.0 0 0 0
3731 2 1.0 1.0 4 0.2 -8.0 0.0 0 0 0
3732 2 1.0 1.0 4 0.4 -8.0 0.0 0 0 0
3736 2 1.0 1.0 4 0.0 -7.800000000000001 0.0 0 0 0
3737 2 1.0 1.0 4 0.2 -7.800000000000001 0.0 0 0 0
3738 2 1.0 1.0 4 0.4 -7.800000000000001 0.0 0 0 0
3727 2 0.9991748804053497 1.0 4 0.6000000000000001 -8.200000000000001 0.0 0 0 0
3728 2 0.9991750457464184 1.0 4 0.8 -8.200000000000001 0.0 0 0 0
3733 2 0.9991248135801307 1.0 4 0.6000000000000001 -8.0 0.0 0 0 0
3734 2 0.9991250266120043 1.0 4 0.8 -8.0 0.0 0 0 0
3739 2 0.9990747798048597 1.0 4 0.6000000000000001 -7.800000000000001 0.0 0 0 0
3740 2 0.9990750407102319 1.0 4 0.8 -7.800000000000001 0.0 0 0 0
118 1 0.9991727744987975 1.0 0 1.1813555226999373 -8.190239077188114 0.0 0 0 0
157 1 0.9991252779902308 1.0 0 1.1951026798101074 -8.000317944060974 0.0 0 0 0
196 1 0.9990802611049073 1.0 0 1.1974289864621994 -7.8197804820747665 0.0 0 0 0
3729 2 0.9991751431611556 1.0 4 1.0 -8.200000000000001 0.0 0 0 0
3735 2 0.9991251647574461 1.0 4 1.0 -8.0 0.0 0 0 0
3741 2 0.9990752198559418 1.0 4 1.0 -7.800000000000001 0.0 0 0 0
119 1 0.9991718990126734 1.0 0 1.3912727535882778 -8.19231213855177 0.0 0 0 0
120 1 0.9991762282364822 1.0 0 1.585352509177511 -8.209079348086558 0.0 0 0 0
158 1 0.9991215610698486 1.0 0 1.3863166068692143 -7.990720297643299 0.0 0 0 0
159 1 0.9991203374346951 1.0 0 1.6023809874408261 -7.985410233580797 0.0 0 0 0
121 1 0.9991702062568079 1.0 0 1.815404063273238 -8.184198461879431 0.0 0 0 0
122 1 0.9991743124753101 1.0 0 1.997019485996998 -8.20061068252689 0.0 0 0 0
160 1 0.9991209332434353 1.0 0 1.8107904459751638 -7.9869302357384155 0.0 0 0 0
161 1 0.9991251679382708 1.0 0 1.997227805005527 -8.003754750947046 0.0 0 0 0
200 1 0.9990765436595992 1.0 0 2.0130915451325126 -7.80919159503198 0.0 0 0 0
123 1 0.9991792100843286 1.0 0 2.1848229788827855 -8.220469919753508 0.0 0 0 0
124 1 0.999174980648889 1.0 0 2.4168559306041075 -8.203821650097312 0.0 0 0 0
162 1 0.999128537435174 1.0 0 2.1999166306393025 -8.017498276519706 0.0 0 0 0
163 1 0.9991266859504414 1.0 0 2.387016212016231 -8.010342228146186 0.0 0 0 0
203 1 0.9990752199404926 1.0 0 2.6015902596271774 -7.80466546198762 0.0 0 0 0
164 1 0.9991233740912155 1.0 0 2.6087417367065995 -7.997337479455861 0.0 0 0 0
125 1 0.9991693864602862 1.0 0 2.6115942549298783 -8.181623124495774 0.0 0 0 0
126 1 0.9991777243560608 1.0 0 2.7800064703440546 -8.215248739464446 0.0 0 0 0
127 1 0.9991695408082636 1.0 0 2.9995372385434003 -8.182701819008408 0.0 0 0 0
165 1 0.9991192927811686 1.0 0 2.8080581688434445 -7.98122780168682 0.0 0 0 0
166 1 0.9991229791193158 1.0 0 2.9888297661092125 -7.996223128690232 0.0 0 0 0
204 1 0.9990750468545704 1.0 0 2.790223469686871 -7.804193459559142 0.0 0 0 0
205 1 0.9990743365704102 1.0 0 2.9810054360683327 -7.801616104351268 0.0 0 0 0
128 1 0.9991703884147114 1.0 0 3.208062601235049 -8.186433426198793 0.0 0 0 0
129 1 0.99917044724551 1.0 0 3.414989394914383 -8.187094010111386 0.0 0 0 0
167 1 0.9991276380381607 1.0 0 3.19771859225217 -8.01522283455389 0.0 0 0 0
168 1 0.9991259121528058 1.0 0 3.4061672861796097 -8.008755656836827 0.0 0 0 0
206 1 0.9990770702388692 1.0 0 3.2179018419882275 -7.812988140769804 0.0 0 0 0