ITEM: TIMESTEP
55000
ITEM: NUMBER OF ATOMS
1036
ITEM: BOX BOUNDS ff ff pp
0.0000000000000000e+00 4.4000000000000004e+00
-1.0000000000000000e+01 1.0000000000000000e+01
-2.0000000000000000e-02 2.0000000000000000e-02
ITEM: ATOMS id type x y vx vy fx fy c_den c_phase
1509 2 2 -10 0 0 0 0 1 5
1510 2 2.2 -10 0 0 0 0 1 5
1511 2 2.4 -10 0 0 0 0 1 5
1543 2 2 -9.8 0 0 0 0 1 5
1544 2 2.2 -9.8 0 0 0 0 1 5
1545 2 2.4 -9.8 0 0 0 0 1 5
1577 2 2 -9.6 0 0 0 0 1 5
1578 2 2.2 -9.6 0 0 0 0 1 5
1579 2 2.4 -9.6 0 0 0 0 1 5
1512 2 2.6 -10 0 0 0 0 1 5
1513 2 2.8 -10 0 0 0 0 1 5
1546 2 2.6 -9.8 0 0 0 0 1 5
1547 2 2.8 -9.8 0 0 0 0 1 5
1580 2 2.6 -9.6 0 0 0 0 1 5
1581 2 2.8 -9.6 0 0 0 0 1 5
1645 2 2 -9.2 0 0 0 0 1 5
1646 2 2.2 -9.2 0 0 0 0 1 5
1647 2 2.4 -9.2 0 0 0 0 1 5
1613 2 2.4 -9.4 0 0 0 0 1 5
1612 2 2.2 -9.4 0 0 0 0 1 5
1611 2 2 -9.4 0 0 0 0 1 5
1648 2 2.6 -9.2 0 0 0 0 1 5
1649 2 2.8 -9.2 0 0 0 0 1 5
1615 2 2.8 -9.4 0 0 0 0 1 5
1614 2 2.6 -9.4 0 0 0 0 1 5
1679 2 2 -9 0 0 0 0 1 5
1680 2 2.2 -9 0 0 0 0 1 5
1681 2 2.4 -9 0 0 0 0 1 5
1713 2 2 -8.8 0 0 0 0 1 5
1714 2 2.2 -8.8 0 0 0 0 1 5
1715 2 2.4 -8.8 0 0 0 0 1 5
1682 2 2.6 -9 0 0 0 0 1 5
1683 2 2.8 -9 0 0 0 0 1 5
1716 2 2.6 -8.8 0 0 0 0 1 5
1717 2 2.8 -8.8 0 0 0 0 1 5
1783 2 2.4 -8.4 0 0 0 0 1 5
1782 2 2.2 -8.4 0 0 0 0 1 5
1781 2 2 -8.4 0 0 0 0 1 5
1747 2 2 -8.6 0 0 0 0 1 5
1748 2 2.2 -8.6 0 0 0 0 1 5
1749 2 2.4 -8.6 0 0 0 0 1 5
1785 2 2.8 -8.4 0 0 0 0 1 5
1784 2 2.6 -8.4 0 0 0 0 1 5
1750 2 2.6 -8.6 0 0 0 0 1 5
1751 2 2.8 -8.6 0 0 0 0 1 5
1851 2 2.4 -8 0 0 0 0 1 5
1850 2 2.2 -8 0 0 0 0 1 5
1849 2 2 -8 0 0 0 0 1 5
1817 2 2.4 -8.2 0 0 0 0 1 5
1816 2 2.2 -8.2 0 0 0 0 1 5
1815 2 2 -8.2 0 0 0 0 1 5
1853 2 2.8 -8 0 0 0 0 1 5
1852 2 2.6 -8 0 0 0 0 1 5
1819 2 2.8 -8.2 0 0 0 0 1 5
1818 2 2.6 -8.2 0 0 0 0 1 5
1953 2 2.4 -7.4 0 0 0 0 0.996656 5
1952 2 2.2 -7.4 0 0 0 0 1.00119 5
1951 2 2 -7.4 0 0 0 0 1.00349 5
1919 2 2.4 -7.6 0 0 0 0 1 5
1918 2 2.2 -7.6 0 0 0 0 1 5
1917 2 2 -7.6 0 0 0 0 1 5
1885 2 2.4 -7.8 0 0 0 0 1 5
1884 2 2.2 -7.8 0 0 0 0 1 5
1883 2 2 -7.8 0 0 0 0 1 5
1955 2 2.8 -7.4 0 0 0 0 1.00061 5
1954 2 2.6 -7.4 0 0 0 0 1.00157 5
1921 2 2.8 -7.6 0 0 0 0 1 5
1920 2 2.6 -7.6 0 0 0 0 1 5
1887 2 2.8 -7.8 0 0 0 0 1 5
1886 2 2.6 -7.8 0 0 0 0 1 5
2021 2 2.4 -7 0 0 0 0 0.999591 5
2020 2 2.2 -7 0 0 0 0 1.00064 5
2019 2 2 -7 0 0 0 0 1.00528 5
1987 2 2.4 -7.2 0 0 0 0 0.998835 5
1986 2 2.2 -7.2 0 0 0 0 1.00059 5
1985 2 2 -7.2 0 0 0 0 1.0056 5
2023 2 2.8 -7 0 0 0 0 1.00017 5
2022 2 2.6 -7 0 0 0 0 1.00015 5
1989 2 2.8 -7.2 0 0 0 0 1.00041 5
1988 2 2.6 -7.2 0 0 0 0 1.00017 5
4714 1 2.21892 -6.76661 0.02 0 -0.00268888 -0.000406294 1 2
4716 1 2.23519 -6.57535 0.02 0 0.00041644 0.000601695 1 2
4715 1 2.04751 -6.55076 0.02 0 0.000291876 0.000216058 1 2
4713 1 2.01371 -6.73915 0.02 0 -0.00415593 -0.000741763 1 2
4718 1 2.63309 -6.75043 0.02 0 -0.00287925 -0.000399618 1 2
4720 1 2.63566 -6.56481 0.02 0 0.000131616 0.00035718 1 2
4717 1 2.43461 -6.74572 0.02 0 -0.00239526 -0.000364381 1 2
4719 1 2.42812 -6.56407 0.02 0 0.000171072 0.000322727 1 2
4721 1 2.82654 -6.74604 0.02 0 -0.00270972 -0.000509283 1 2
4625 1 2.65381 -1.03348 0.02 0 0 0 1 2
4643 1 2.5015 -1.46824 0.02 0 0 0 1 2
4723 1 2.84728 -6.56288 0.02 0 0.000137815 0.000476024 1 2
4600 1 2.18964 -0.406124 0.02 0 0 0 1 2
4599 1 2.17136 -0.196512 0.02 0 0 0 1 2
4732 1 2.29165 -6.17475 0.02 0 7.18085e-06 1.44203e-05 1 2
4731 1 2.26276 -6.37801 0.02 0 0.000144092 0.000180353 1 2
4730 1 2.0987 -6.17071 0.02 0 7.57937e-06 8.12023e-06 1 2
4729 1 2.0674 -6.35963 0.02 0 9.90601e-05 7.03891e-05 1 2
4734 1 2.65026 -6.37692 0.02 0 9.11249e-05 0.000135964 1 2
4736 1 2.67755 -6.18093 0.02 0 4.89376e-06 1.19057e-05 1 2
4733 1 2.45762 -6.37882 0.02 0 9.81538e-05 0.000145788 1 2
4735 1 2.48304 -6.18522 0.02 0 6.18836e-06 1.50094e-05 1 2
4626 1 2.65996 -1.24399 0.02 0 0 0 1 2
4640 1 2.68312 -1.45769 0.02 0 0 0 1 2
4739 1 2.87065 -6.16748 0.02 0 3.59903e-06 8.30294e-06 1 2
4737 1 2.83793 -6.37185 0.02 0 8.82517e-05 0.000121414 1 2
4608 1 2.83343 -0.829479 0.02 0 0 0 1 2
4591 1 2.95471 -0.383144 0.02 0 0 0 1 2
4747 1 2.28972 -5.97299 0.02 0 1.63932e-08 5.07045e-08 1 2
4748 1 2.27604 -5.77559 0.02 0 7.80784e-12 2.57792e-11 1 2
4746 1 2.07906 -5.78431 0.02 0 7.47876e-12 1.14784e-11 1 2
4745 1 2.0898 -5.9796 0.02 0 5.67122e-08 7.29916e-08 1 2
4751 1 2.6659 -5.78886 0.02 0 1.24386e-11 5.3092e-11 1 2
4752 1 2.68244 -5.9853 0.02 0 1.71475e-08 7.60791e-08 1 2
4749 1 2.48614 -5.98699 0.02 0 1.84277e-08 8.68819e-08 1 2
4750 1 2.47113 -5.78504 0.02 0 1.00444e-11 4.20461e-11 1 2
4632 1 2.08052 -1.20811 0.02 0 0 0 1 2
4631 1 2.0616 -1.00736 0.02 0 0 0 1 2
4753 1 2.87354 -5.96034 0.02 0 6.01628e-09 2.27733e-08 1 2
4755 1 2.86109 -5.75899 0.02 0 1.28224e-12 8.76555e-12 1 2
4592 1 2.9293 -0.170696 0.02 0 0 0 1 2
4612 1 2.22221 -0.613201 0.02 0 0 0 1 2
4763 1 2.20929 -5.39695 0.02 0 0 0 1 2
4764 1 2.23142 -5.58573 0.02 0 0 0 1 2
4761 1 2.02573 -5.58762 0.02 0 0 0 1 2
4762 1 2.00237 -5.39266 0.02 0 0 0 1 2
4766 1 2.64336 -5.59168 0.02 0 0 0 1 2
4768 1 2.63012 -5.39862 0.02 0 0 0 1 2
4765 1 2.43975 -5.58705 0.02 0 0 0 1 2
4767 1 2.41951 -5.39695 0.02 0 0 0 1 2
4628 1 2.26198 -1.02554 0.02 0 0 0 1 2
4630 1 2.27783 -1.23077 0.02 0 0 0 1 2
4771 1 2.84613 -5.38031 0.02 0 0 0 1 2
4769 1 2.84445 -5.5651 0.02 0 0 0 1 2
4616 1 2.04472 -0.808962 0.02 0 0 0 1 2
4615 1 2.02432 -0.609091 0.02 0 0 0 1 2
4594 1 2.7386 -0.191329 0.02 0 0 0 1 2
4777 1 2.20583 -5.20967 0.02 0 0 0 1 2
4779 1 2.22812 -5.02856 0.02 0 0 0 1 2
4780 1 2.27138 -4.85148 0.02 0 0 0 1 2
4778 1 2.04851 -4.83834 0.02 0 0 0 1 2
4784 1 2.65816 -5.21635 0.02 0 0 0 1 2
4785 1 2.67611 -5.03667 0.02 0 0 0 1 2
4783 1 2.49388 -4.85243 0.02 0 0 0 1 2
4781 1 2.42586 -5.21235 0.02 0 0 0 1 2
4782 1 2.45611 -5.03345 0.02 0 0 0 1 2
4786 1 2.71325 -4.85376 0.02 0 0 0 1 2
4614 1 2.24372 -0.819929 0.02 0 0 0 1 2
4788 1 2.88983 -5.02973 0.02 0 0 0 1 2
4787 1 2.90448 -5.21105 0.02 0 0 0 1 2
4789 1 2.92842 -4.84693 0.02 0 0 0 1 2
4610 1 2.60732 -0.618916 0.02 0 0 0 1 2
4797 1 2.27274 -4.48385 0.02 0 0 0 1 2
4796 1 2.24512 -4.66649 0.02 0 0 0 1 2
4795 1 2.045 -4.462 0.02 0 0 0 1 2
4794 1 2.04067 -4.65017 0.02 0 0 0 1 2
4800 1 2.67376 -4.67305 0.02 0 0 0 1 2
4799 1 2.50933 -4.49172 0.02 0 0 0 1 2
4798 1 2.45368 -4.66888 0.02 0 0 0 1 2
4801 1 2.74606 -4.50233 0.02 0 0 0 1 2
4803 1 2.959 -4.48365 0.02 0 0 0 1 2
4802 1 2.91631 -4.66598 0.02 0 0 0 1 2
4623 1 2.84327 -1.04626 0.02 0 0 0 1 2
4624 1 2.84898 -1.26074 0.02 0 0 0 1 2
4808 1 2.06068 -4.27373 0.02 0 0 0 1 2
4811 1 2.28871 -4.11551 0.02 0 0 0 1 2
4814 1 2.29739 -3.92505 0.02 0 0 0 1 2
4810 1 2.26428 -4.3006 0.02 0 0 0 1 2
4809 1 2.07105 -4.08309 0.02 0 0 0 1 2
4816 1 2.68229 -4.32272 0.02 0 0 0 1 2
4820 1 2.69024 -3.93088 0.02 0 0 0 1 2
4813 1 2.50478 -4.11797 0.02 0 0 0 1 2
4815 1 2.49467 -3.92102 0.02 0 0 0 1 2
4812 1 2.47241 -4.3071 0.02 0 0 0 1 2
4817 1 2.71323 -4.13064 0.02 0 0 0 1 2
4609 1 2.64128 -0.826347 0.02 0 0 0 1 2
4819 1 2.92151 -4.11233 0.02 0 0 0 1 2
4821 1 2.89057 -3.92273 0.02 0 0 0 1 2
4818 1 2.89875 -4.30065 0.02 0 0 0 1 2
4648 1 2.13799 -1.62282 0.02 0 0 0 1 2
4647 1 2.11995 -1.41351 0.02 0 0 0 1 2
4593 1 2.76437 -0.401333 0.02 0 0 0 1 2
4829 1 2.04567 -3.68365 0.02 0 0 0 1 2
4831 1 2.24849 -3.72616 0.02 0 0 0 1 2
4830 1 2.2245 -3.52888 0.02 0 0 0 1 2
4828 1 2.09796 -3.89073 0.02 0 0 0 1 2
4834 1 2.63118 -3.52872 0.02 0 0 0 1 2
4835 1 2.64685 -3.72594 0.02 0 0 0 1 2
4832 1 2.44805 -3.72231 0.02 0 0 0 1 2
4833 1 2.4262 -3.52264 0.02 0 0 0 1 2
4838 1 2.84302 -3.54809 0.02 0 0 0 1 2
4836 1 2.84845 -3.73604 0.02 0 0 0 1 2
4611 1 2.41616 -0.628898 0.02 0 0 0 1 2
4639 1 2.86528 -1.47825 0.02 0 0 0 1 2
4598 1 2.3597 -0.204515 0.02 0 0 0 1 2
4597 1 2.38094 -0.418584 0.02 0 0 0 1 2
4712 1 2.03146 -3.47088 0.02 0 0 0 1 2
4711 1 2.03213 -3.25575 0.02 0 0 0 1 2
4708 1 2.22942 -3.13149 0.02 0 0 0 1 2
4710 1 2.22445 -3.33168 0.02 0 0 0 1 2
4705 1 2.64305 -3.33918 0.02 0 0 0 1 2
4706 1 2.61135 -3.14803 0.02 0 0 0 1 2
4707 1 2.41902 -3.1147 0.02 0 0 0 1 2
4709 1 2.43124 -3.32346 0.02 0 0 0 1 2
4702 1 2.81538 -3.17037 0.02 0 0 0 1 2
4704 1 2.85675 -3.36021 0.02 0 0 0 1 2
4644 1 2.31621 -1.43509 0.02 0 0 0 1 2
4641 1 2.87949 -1.70098 0.02 0 0 0 1 2
4596 1 2.54801 -0.202375 0.02 0 0 0 1 2
4646 1 2.32772 -1.64492 0.02 0 0 0 1 2
4696 1 2.07046 -2.83279 0.02 0 0 0 1 2
4695 1 2.05943 -2.62755 0.02 0 0 0 1 2
4697 1 2.05495 -3.0408 0.02 0 0 0 1 2
4694 1 2.24809 -2.91284 0.02 0 0 0 1 2
4690 1 2.24692 -2.68472 0.02 0 0 0 1 2
4692 1 2.63116 -2.95325 0.02 0 0 0 1 2
4689 1 2.62638 -2.75172 0.02 0 0 0 1 2
4693 1 2.43754 -2.90633 0.02 0 0 0 1 2
4691 1 2.43531 -2.7004 0.02 0 0 0 1 2
4686 1 2.81766 -2.77288 0.02 0 0 0 1 2
4688 1 2.83261 -2.9752 0.02 0 0 0 1 2
4642 1 2.69394 -1.6724 0.02 0 0 0 1 2
4595 1 2.57233 -0.411655 0.02 0 0 0 1 2
4627 1 2.45926 -1.03504 0.02 0 0 0 1 2
4629 1 2.47126 -1.24415 0.02 0 0 0 1 2
4679 1 2.02972 -2.21217 0.02 0 0 0 1 2
4677 1 2.23001 -2.46414 0.02 0 0 0 1 2
4678 1 2.22098 -2.25416 0.02 0 0 0 1 2
4680 1 2.03691 -2.4215 0.02 0 0 0 1 2
4673 1 2.61213 -2.3438 0.02 0 0 0 1 2
4675 1 2.61379 -2.54709 0.02 0 0 0 1 2
4674 1 2.4157 -2.28702 0.02 0 0 0 1 2
4676 1 2.42174 -2.49265 0.02 0 0 0 1 2
4672 1 2.80449 -2.55829 0.02 0 0 0 1 2
4670 1 2.80598 -2.34155 0.02 0 0 0 1 2
4645 1 2.51138 -1.6947 0.02 0 0 0 1 2
4656 1 2.96 -2.153 0.02 0 0 0 1 2
4607 1 2.7964 -0.615255 0.02 0 0 0 1 2
4613 1 2.44318 -0.832632 0.02 0 0 0 1 2
4664 1 2.01302 -2.0009 0.02 0 0 0 1 2
4663 1 2.20619 -2.04609 0.02 0 0 0 1 2
4662 1 2.1794 -1.83614 0.02 0 0 0 1 2
4660 1 2.59085 -2.13736 0.02 0 0 0 1 2
4658 1 2.5567 -1.9211 0.02 0 0 0 1 2
4661 1 2.40078 -2.07835 0.02 0 0 0 1 2
4659 1 2.37091 -1.86398 0.02 0 0 0 1 2
4657 1 2.77441 -2.11748 0.02 0 0 0 1 2
4655 1 2.7347 -1.88565 0.02 0 0 0 1 2
4654 1 2.91121 -1.93371 0.02 0 0 0 1 2
4587 1 2.15073 0.0152087 0.02 0 0 0 1 2
4588 1 2.18566 0.224259 0.02 0 0 0 1 2
4593 1 2.56583 0.243059 0.02 0 0 0 1 2
4592 1 2.52775 0.0146403 0.02 0 0 0 1 2
4589 1 2.37888 0.216003 0.02 0 0 0 1 2
4590 1 2.37364 0.424276 0.02 0 0 0 1 2
4591 1 2.33938 0.00901173 0.02 0 0 0 1 2
4594 1 2.71703 0.0139935 0.02 0 0 0 1 2
4595 1 2.75611 0.213481 0.02 0 0 0 1 2
4596 1 2.75051 0.417667 0.02 0 0 0 1 2
350 2 2.2 9 0 0 0 0 1 5
4598 1 2.91441 0.0415298 0.02 0 0 0 1 2
4597 1 2.94725 0.260252 0.02 0 0 0 1 2
349 2 2 9 0 0 0 0 1 5
4603 1 2.18277 0.434965 0.02 0 0 0 1 2
4604 1 2.1857 0.645737 0.02 0 0 0 1 2
4605 1 2.19334 0.853529 0.02 0 0 0 1 2
4608 1 2.56206 0.465903 0.02 0 0 0 1 2
4609 1 2.56613 0.683296 0.02 0 0 0 1 2
4606 1 2.37812 0.634414 0.02 0 0 0 1 2
4607 1 2.38461 0.848641 0.02 0 0 0 1 2
4613 1 2.76023 0.868113 0.02 0 0 0 1 2
4611 1 2.74772 0.632968 0.02 0 0 0 1 2
4612 1 2.92908 0.689725 0.02 0 0 0 1 2
4610 1 2.93652 0.478881 0.02 0 0 0 1 2
317 2 2.4 8.8 0 0 0 0 1 5
316 2 2.2 8.8 0 0 0 0 1 5
489 2 2.8 9.8 0 0 0 0 1 5
4620 1 2.18121 1.26198 0.02 0 0 0 1 2
4619 1 2.17938 1.05801 0.02 0 0 0 1 2
4625 1 2.55689 1.29997 0.02 0 0 0 1 2
4623 1 2.57307 0.88937 0.02 0 0 0 1 2
4624 1 2.5614 1.09195 0.02 0 0 0 1 2
4621 1 2.37139 1.06422 0.02 0 0 0 1 2
4622 1 2.37002 1.27921 0.02 0 0 0 1 2
4630 1 2.74726 1.30394 0.02 0 0 0 1 2
4626 1 2.75117 1.09204 0.02 0 0 0 1 2
4629 1 2.95124 0.888006 0.02 0 0 0 1 2
4628 1 2.93936 1.29024 0.02 0 0 0 1 2
4627 1 2.94009 1.08696 0.02 0 0 0 1 2
315 2 2 8.8 0 0 0 0 1 5
351 2 2.4 9 0 0 0 0 1 5
250 2 2.6 8.4 0 0 0 0 1 5
4638 1 2.32716 1.48506 0.02 0 0 0 1 2
4637 1 2.13986 1.66141 0.02 0 0 0 1 2
4636 1 2.13356 1.46151 0.02 0 0 0 1 2
4641 1 2.56541 1.70509 0.02 0 0 0 1 2
4640 1 2.52212 1.50668 0.02 0 0 0 1 2
4639 1 2.35224 1.68567 0.02 0 0 0 1 2
4642 1 2.7208 1.50485 0.02 0 0 0 1 2
4643 1 2.77851 1.69224 0.02 0 0 0 1 2
4644 1 2.92653 1.49143 0.02 0 0 0 1 2
80 2 2.6 7.4 0 0 0 0 0.999789 5
251 2 2.8 8.4 0 0 0 0 1 5
419 2 2.4 9.4 0 0 0 0 1 5
4651 1 2.15623 2.04403 0.02 0 0 0 1 2
4650 1 2.17843 1.85478 0.02 0 0 0 1 2
4654 1 2.59824 1.89882 0.02 0 0 0 1 2
4655 1 2.58981 2.09218 0.02 0 0 0 1 2
4652 1 2.38797 1.8791 0.02 0 0 0 1 2
4653 1 2.37618 2.07045 0.02 0 0 0 1 2
4657 1 2.80079 2.07554 0.02 0 0 0 1 2
4656 1 2.8064 1.8822 0.02 0 0 0 1 2
115 2 2.8 7.6 0 0 0 0 1 5
81 2 2.8 7.4 0 0 0 0 1.00648 5
384 2 2.2 9.2 0 0 0 0 1 5
383 2 2 9.2 0 0 0 0 1 5
4670 1 2.24089 2.60767 0.02 0 0 0 1 2
4668 1 2.24401 2.41719 0.02 0 0 0 1 2
4666 1 2.20847 2.22999 0.02 0 0 0 1 2
4664 1 2.02199 2.39441 0.02 0 0 0 1 2
4665 1 2.03548 2.5827 0.02 0 0 0 1 2
4671 1 2.64547 2.28011 0.02 0 0 0 1 2
4673 1 2.66962 2.4728 0.02 0 0 0 1 2
4667 1 2.42837 2.26125 0.02 0 0 0 1 2
4669 1 2.46044 2.45268 0.02 0 0 0 1 2
248 2 2.2 8.4 0 0 0 0 1 5
249 2 2.4 8.4 0 0 0 0 1 5
4674 1 2.87206 2.46162 0.02 0 0 0 1 2
4672 1 2.85346 2.2647 0.02 0 0 0 1 2
488 2 2.6 9.8 0 0 0 0 1 5
455 2 2.8 9.6 0 0 0 0 1 5
4683 1 2.2293 2.80212 0.02 0 0 0 1 2
4681 1 2.20584 2.99882 0.02 0 0 0 1 2
4679 1 2.02237 2.77537 0.02 0 0 0 1 2
4680 1 2.00628 2.96941 0.02 0 0 0 1 2
4686 1 2.65563 2.6637 0.02 0 0 0 1 2
4687 1 2.6352 2.85568 0.02 0 0 0 1 2
4682 1 2.44552 2.64459 0.02 0 0 0 1 2
4684 1 2.43193 2.83916 0.02 0 0 0 1 2
4685 1 2.40362 3.03534 0.02 0 0 0 1 2
4692 1 2.82056 3.04037 0.02 0 0 0 1 2
281 2 2 8.6 0 0 0 0 1 5
4689 1 2.83953 2.85041 0.02 0 0 0 1 2
4688 1 2.86862 2.65746 0.02 0 0 0 1 2
182 2 2.6 8 0 0 0 0 1 5
217 2 2.8 8.2 0 0 0 0 1 5
454 2 2.6 9.6 0 0 0 0 1 5
453 2 2.4 9.6 0 0 0 0 1 5
452 2 2.2 9.6 0 0 0 0 1 5
4699 1 2.00359 3.16915 0.02 0 0 0 1 2
4700 1 2.01265 3.37484 0.02 0 0 0 1 2
4702 1 2.20659 3.40503 0.02 0 0 0 1 2
4701 1 2.20243 3.20054 0.02 0 0 0 1 2
4707 1 2.59374 3.44129 0.02 0 0 0 1 2
4706 1 2.60614 3.24229 0.02 0 0 0 1 2
4705 1 2.60759 3.04792 0.02 0 0 0 1 2
4703 1 2.4025 3.23538 0.02 0 0 0 1 2
4704 1 2.39963 3.43993 0.02 0 0 0 1 2
4709 1 2.79474 3.41402 0.02 0 0 0 1 2
4708 1 2.81605 3.22709 0.02 0 0 0 1 2
114 2 2.6 7.6 0 0 0 0 1 5
148 2 2.6 7.8 0 0 0 0 1 5
418 2 2.2 9.4 0 0 0 0 1 5
385 2 2.4 9.2 0 0 0 0 1 5
4720 1 2.28112 3.8167 0.02 0 0 0 1 2
4718 1 2.2518 3.61296 0.02 0 0 0 1 2
4717 1 2.08339 3.789 0.02 0 0 0 1 2
4716 1 2.05012 3.58294 0.02 0 0 0 1 2
4722 1 2.66031 3.63092 0.02 0 0 0 1 2
4724 1 2.68144 3.82453 0.02 0 0 0 1 2
4719 1 2.45631 3.64472 0.02 0 0 0 1 2
4721 1 2.48024 3.84819 0.02 0 0 0 1 2
4725 1 2.88851 3.78237 0.02 0 0 0 1 2
4723 1 2.86261 3.59356 0.02 0 0 0 1 2
216 2 2.6 8.2 0 0 0 0 1 5
183 2 2.8 8 0 0 0 0 1 5
487 2 2.4 9.8 0 0 0 0 1 5
486 2 2.2 9.8 0 0 0 0 1 5
4732 1 2.11964 4.19723 0.02 0 0 0 1 2
4735 1 2.32233 4.22758 0.02 0 0 0 1 2
4733 1 2.30602 4.02299 0.02 0 0 0 1 2
4731 1 2.11036 3.99507 0.02 0 0 0 1 2
4736 1 2.52097 4.25642 0.02 0 0 0 1 2
4734 1 2.50376 4.0519 0.02 0 0 0 1 2
4739 1 2.71437 4.21997 0.02 0 0 0 1 2
4737 1 2.70249 4.01862 0.02 0 0 0 1 2
4740 1 2.90663 4.16658 0.02 0 0 0 1 2
4738 1 2.90668 3.97069 0.02 0 0 0 1 2
215 2 2.4 8.2 0 0 0 0 1 5
284 2 2.6 8.6 0 0 0 0 1 5
451 2 2 9.6 0 0 0 0 1 5
4745 1 2.15795 4.39304 0.02 0 0 0 1 2
4746 1 2.14558 4.58718 0.02 0 0 0 1 2
4750 1 2.33774 4.64357 0.02 0 0 0 1 2
4747 1 2.11825 4.78246 0.02 0 0 0 1 2
4749 1 2.54473 4.46491 0.02 0 0 0 1 2
4751 1 2.53315 4.66681 0.02 0 0 0 1 2
4748 1 2.35432 4.43607 0.02 0 0 0 1 2
4752 1 2.72865 4.43165 0.02 0 0 0 1 2
4754 1 2.72606 4.65198 0.02 0 0 0 1 2
4755 1 2.90617 4.59842 0.02 0 0 0 1 2
4753 1 2.90768 4.37551 0.02 0 0 0 1 2
214 2 2.2 8.2 0 0 0 0 1 5
213 2 2 8.2 0 0 0 0 1 5
181 2 2.4 8 0 0 0 0 1 5
485 2 2 9.8 0 0 0 0 1 5
420 2 2.6 9.4 0 0 0 0 1 5
4763 1 2.30794 4.84671 0.02 0 0 0 1 2
4765 1 2.27544 5.04711 0.02 0 0 0 1 2
4762 1 2.07057 5.19135 0.02 0 0 0 1 2
4761 1 2.0885 4.9823 0.02 0 0 0 1 2
4769 1 2.67036 5.07323 0.02 0 0 0 1 2
4764 1 2.50405 4.86415 0.02 0 0 0 1 2
4766 1 2.47264 5.05907 0.02 0 0 0 1 2
4767 1 2.69757 4.86501 0.02 0 0 0 1 2
4768 1 2.88516 4.83342 0.02 0 0 0 1 2
4770 1 2.86605 5.04537 0.02 0 0 0 1 2
180 2 2.2 8 0 0 0 0 1 5
318 2 2.6 8.8 0 0 0 0 1 5
386 2 2.6 9.2 0 0 0 0 1 5
4777 1 2.08939 5.40931 0.02 0 0 0 1 2
4778 1 2.05963 5.62531 0.02 0 0 0 1 2
4781 1 2.2826 5.4397 0.02 0 0 0 1 2
4783 1 2.25482 5.63138 0.02 0 0 0 1 2
4780 1 2.26565 5.2438 0.02 0 0 0 1 2
4787 1 2.68887 5.46271 0.02 0 0 0 1 2
4785 1 2.68265 5.27131 0.02 0 0 0 1 2
4790 1 2.68836 5.64708 0.02 0 0 0 1 2
4782 1 2.48502 5.44311 0.02 0 0 0 1 2
4784 1 2.46523 5.62895 0.02 0 0 0 1 2
4779 1 2.47455 5.25264 0.02 0 0 0 1 2
4788 1 2.89301 5.44626 0.02 0 0 0 1 2
4789 1 2.90178 5.64281 0.02 0 0 0 1 2
4786 1 2.88082 5.24663 0.02 0 0 0 1 2
285 2 2.8 8.6 0 0 0 0 1 5
179 2 2 8 0 0 0 0 1 5
149 2 2.8 7.8 0 0 0 0 1 5
387 2 2.8 9.2 0 0 0 0 1 5
421 2 2.8 9.4 0 0 0 0 1 5
417 2 2 9.4 0 0 0 0 1 5
4798 1 2.11992 6.03142 0.02 0 0 0 1 2
4797 1 2.08367 5.83395 0.02 0 0 0 1 2
4801 1 2.31855 6.01246 0.02 0 1.25616e-07 -2.95166e-07 1 2
4799 1 2.2839 5.82225 0.02 0 2.39933e-10 -7.39104e-10 1 2
4800 1 2.49377 5.81132 0.02 0 5.21179e-11 -2.22706e-10 1 2
4802 1 2.51901 5.99766 0.02 0 5.35949e-08 -1.60659e-07 1 2
4805 1 2.72985 6.01262 0.02 0 7.24589e-08 -2.31203e-07 1 2
4803 1 2.7067 5.82959 0.02 0 9.15567e-11 -3.56844e-10 1 2
4804 1 2.91474 5.8373 0.02 0 1.53337e-10 -5.70387e-10 1 2
4806 1 2.94803 6.02674 0.02 0 1.17412e-07 -3.51107e-07 1 2
282 2 2.2 8.6 0 0 0 0 1 5
283 2 2.4 8.6 0 0 0 0 1 5
4811 1 2.12577 6.22219 0.02 0 0 0 1 2
4813 1 2.33353 6.20041 0.02 0 1.37835e-05 -2.42633e-05 1 2
4812 1 2.14419 6.4045 0.02 0 -6.16076e-06 1.20572e-06 1 2
4816 1 2.57112 6.37171 0.02 0 0.000109783 -0.000143513 1 2
4814 1 2.54456 6.1851 0.02 0 7.08228e-06 -1.31913e-05 1 2
4815 1 2.36323 6.37909 0.02 0 0.000177759 -0.000188454 1 2
4819 1 2.77031 6.37702 0.02 0 9.81157e-05 -0.000127174 1 2
4817 1 2.76067 6.19252 0.02 0 6.84238e-06 -1.22669e-05 1 2
112 2 2.2 7.6 0 0 0 0 1 5
4820 1 2.96425 6.40804 0.02 0 0.000140867 -0.000189813 1 2
247 2 2 8.4 0 0 0 0 1 5
319 2 2.8 8.8 0 0 0 0 1 5
4825 1 2.2114 6.76472 0.02 0 -0.00346845 0.00019859 1 2
4826 1 2.15816 6.58449 0.02 0 -0.00127086 0.000206673 1 2
4827 1 2.59621 6.75439 0.02 0 -0.00300839 0.000429419 1 2
4830 1 2.57279 6.55988 0.02 0 0.000277868 -0.000478467 1 2
4828 1 2.40708 6.72909 0.02 0 -0.00190358 0.000246355 1 2
4829 1 2.36117 6.5555 0.02 0 0.000487741 -0.000495476 1 2
4833 1 2.77915 6.5618 0.02 0 0.000156502 -0.00041321 1 2
4832 1 2.7895 6.7412 0.02 0 -0.00272449 0.000425634 1 2
146 2 2.2 7.8 0 0 0 0 1 5
111 2 2 7.6 0 0 0 0 1 5
352 2 2.6 9 0 0 0 0 1 5
353 2 2.8 9 0 0 0 0 1 5
9 2 2 7 0 0 0 0 1.01164 5
10 2 2.2 7 0 0 0 0 1.0034 5
11 2 2.4 7 0 0 0 0 1.00025 5
43 2 2 7.2 0 0 0 0 1.01258 5
44 2 2.2 7.2 0 0 0 0 1.0023 5
45 2 2.4 7.2 0 0 0 0 0.999409 5
12 2 2.6 7 0 0 0 0 1.00026 5
46 2 2.6 7.2 0 0 0 0 1.00051 5
13 2 2.8 7 0 0 0 0 1.00048 5
47 2 2.8 7.2 0 0 0 0 1.00143 5
113 2 2.4 7.6 0 0 0 0 1 5
145 2 2 7.8 0 0 0 0 1 5
79 2 2.4 7.4 0 0 0 0 0.993387 5
77 2 2 7.4 0 0 0 0 1.01255 5
78 2 2.2 7.4 0 0 0 0 1.00068 5
147 2 2.4 7.8 0 0 0 0 1 5
1583 2 3.2 -9.6 0 0 0 0 1 5
1582 2 3 -9.6 0 0 0 0 1 5
1549 2 3.2 -9.8 0 0 0 0 1 5
1548 2 3 -9.8 0 0 0 0 1 5
1515 2 3.2 -10 0 0 0 0 1 5
1514 2 3 -10 0 0 0 0 1 5
1584 2 3.4 -9.6 0 0 0 0 1 5
1550 2 3.4 -9.8 0 0 0 0 1 5
1516 2 3.4 -10 0 0 0 0 1 5
1586 2 3.8 -9.6 0 0 0 0 1 5
1585 2 3.6 -9.6 0 0 0 0 1 5
1552 2 3.8 -9.8 0 0 0 0 1 5
1551 2 3.6 -9.8 0 0 0 0 1 5
1518 2 3.8 -10 0 0 0 0 1 5
1517 2 3.6 -10 0 0 0 0 1 5
1588 2 4.2 -9.6 0 0 0 0 1 5
1587 2 4 -9.6 0 0 0 0 1 5
1554 2 4.2 -9.8 0 0 0 0 1 5
1553 2 4 -9.8 0 0 0 0 1 5
1520 2 4.2 -10 0 0 0 0 1 5
1519 2 4 -10 0 0 0 0 1 5
1616 2 3 -9.4 0 0 0 0 1 5
1617 2 3.2 -9.4 0 0 0 0 1 5
1651 2 3.2 -9.2 0 0 0 0 1 5
1650 2 3 -9.2 0 0 0 0 1 5
1652 2 3.4 -9.2 0 0 0 0 1 5
1618 2 3.4 -9.4 0 0 0 0 1 5
1653 2 3.6 -9.2 0 0 0 0 1 5
1654 2 3.8 -9.2 0 0 0 0 1 5
1620 2 3.8 -9.4 0 0 0 0 1 5
1619 2 3.6 -9.4 0 0 0 0 1 5
1622 2 4.2 -9.4 0 0 0 0 1 5
1655 2 4 -9.2 0 0 0 0 1 5
1656 2 4.2 -9.2 0 0 0 0 1 5
1621 2 4 -9.4 0 0 0 0 1 5
1719 2 3.2 -8.8 0 0 0 0 1 5
1718 2 3 -8.8 0 0 0 0 1 5
1685 2 3.2 -9 0 0 0 0 1 5
1684 2 3 -9 0 0 0 0 1 5
1686 2 3.4 -9 0 0 0 0 1 5
1720 2 3.4 -8.8 0 0 0 0 1 5
1687 2 3.6 -9 0 0 0 0 1 5
1688 2 3.8 -9 0 0 0 0 1 5
1721 2 3.6 -8.8 0 0 0 0 1 5
1722 2 3.8 -8.8 0 0 0 0 1 5
1689 2 4 -9 0 0 0 0 1 5
1690 2 4.2 -9 0 0 0 0 1 5
1723 2 4 -8.8 0 0 0 0 1 5
1724 2 4.2 -8.8 0 0 0 0 1 5
1752 2 3 -8.6 0 0 0 0 1 5
1753 2 3.2 -8.6 0 0 0 0 1 5
1786 2 3 -8.4 0 0 0 0 1 5
1787 2 3.2 -8.4 0 0 0 0 1 5
1754 2 3.4 -8.6 0 0 0 0 1 5
1788 2 3.4 -8.4 0 0 0 0 1 5
1755 2 3.6 -8.6 0 0 0 0 1 5
1756 2 3.8 -8.6 0 0 0 0 1 5
1789 2 3.6 -8.4 0 0 0 0 1 5
1790 2 3.8 -8.4 0 0 0 0 1 5
1757 2 4 -8.6 0 0 0 0 1 5
1758 2 4.2 -8.6 0 0 0 0 1 5
1791 2 4 -8.4 0 0 0 0 1 5
1792 2 4.2 -8.4 0 0 0 0 1 5
1820 2 3 -8.2 0 0 0 0 1 5
1821 2 3.2 -8.2 0 0 0 0 1 5
1854 2 3 -8 0 0 0 0 1 5
1855 2 3.2 -8 0 0 0 0 1 5
1822 2 3.4 -8.2 0 0 0 0 1 5
1856 2 3.4 -8 0 0 0 0 1 5
1823 2 3.6 -8.2 0 0 0 0 1 5
1824 2 3.8 -8.2 0 0 0 0 1 5
1857 2 3.6 -8 0 0 0 0 1 5
1858 2 3.8 -8 0 0 0 0 1 5
1825 2 4 -8.2 0 0 0 0 1 5
1826 2 4.2 -8.2 0 0 0 0 1 5
1859 2 4 -8 0 0 0 0 1 5
1860 2 4.2 -8 0 0 0 0 1 5
1888 2 3 -7.8 0 0 0 0 1 5
1889 2 3.2 -7.8 0 0 0 0 1 5
1922 2 3 -7.6 0 0 0 0 1 5
1923 2 3.2 -7.6 0 0 0 0 1 5
1956 2 3 -7.4 0 0 0 0 1.00144 5
1957 2 3.2 -7.4 0 0 0 0 0.995549 5
1890 2 3.4 -7.8 0 0 0 0 1 5
1924 2 3.4 -7.6 0 0 0 0 1 5
1958 2 3.4 -7.4 0 0 0 0 1.00128 5
1891 2 3.6 -7.8 0 0 0 0 1 5
1892 2 3.8 -7.8 0 0 0 0 1 5
1925 2 3.6 -7.6 0 0 0 0 1 5
1926 2 3.8 -7.6 0 0 0 0 1 5
1959 2 3.6 -7.4 0 0 0 0 0.9903 5
1960 2 3.8 -7.4 0 0 0 0 1.00457 5
1893 2 4 -7.8 0 0 0 0 1 5
1894 2 4.2 -7.8 0 0 0 0 1 5
1927 2 4 -7.6 0 0 0 0 1 5
1928 2 4.2 -7.6 0 0 0 0 1 5
1961 2 4 -7.4 0 0 0 0 0.997558 5
1962 2 4.2 -7.4 0 0 0 0 1.00168 5
1990 2 3 -7.2 0 0 0 0 0.999763 5
1991 2 3.2 -7.2 0 0 0 0 0.998408 5
2024 2 3 -7 0 0 0 0 0.999721 5
2025 2 3.2 -7 0 0 0 0 0.99891 5
1992 2 3.4 -7.2 0 0 0 0 0.997622 5
2026 2 3.4 -7 0 0 0 0 0.996807 5
1993 2 3.6 -7.2 0 0 0 0 0.992803 5
1994 2 3.8 -7.2 0 0 0 0 1.00478 5
2027 2 3.6 -7 0 0 0 0 0.993725 5
2028 2 3.8 -7 0 0 0 0 1.00472 5
1995 2 4 -7.2 0 0 0 0 1.00161 5
1996 2 4.2 -7.2 0 0 0 0 0.999505 5
2029 2 4 -7 0 0 0 0 1.00251 5
2030 2 4.2 -7 0 0 0 0 0.999227 5
4726 1 3.42387 -6.74294 0.02 0 -0.00213032 -0.000337803 1 2
4728 1 3.43569 -6.55023 0.02 0 0.000299718 0.000501174 1 2
4446 1 3.92857 -6.75162 0.0134714 0 -0.00132441 -0.000309076 1 2
4447 1 4.00935 -6.54926 0.0170731 0 -0.000132623 4.70742e-05 1 2
4442 1 4.10659 -6.72835 0.0149186 0 -0.00208816 -0.000453314 1 2
4444 1 4.19624 -6.54477 0.0175989 0 -0.000138818 0.000290756 1 2
4445 1 4.38186 -6.5542 0.0177264 0 -8.05872e-05 0.000505343 1 2
4443 1 4.24153 -6.74203 0.0143063 0 -0.00227807 -0.000347216 1 2
4448 1 4.38493 -6.74133 0.0142077 0 -0.000894382 -8.57987e-05 1 2
4620 1 3.21124 -1.2208 0.02 0 0 0 1 2
4652 1 3.15262 -2.16444 0.02 0 0 0 1 2
4742 1 3.415 -6.35117 0.02 0 0.000108678 0.00013013 1 2
4744 1 3.45311 -6.15293 0.02 0 -1.89934e-06 1.03729e-05 1 2
4463 1 4.02209 -6.35803 0.017746 0 -5.89687e-05 1.83298e-05 1 2
4462 1 4.02682 -6.16727 0.0181756 0 -7.65427e-05 -6.96517e-06 1 2
4458 1 4.22952 -6.35816 0.0178074 0 0.000223185 0.000180042 1 2
4460 1 4.22526 -6.16827 0.0181915 0 0.000104623 3.18473e-05 1 2
4459 1 4.42849 -6.36705 0.0182787 0 -4.9216e-06 0.000304933 1 2
4461 1 4.42892 -6.1805 0.0186463 0 -5.12262e-05 5.17142e-05 1 2
4619 1 3.20522 -0.999003 0.02 0 0 0 1 2
4650 1 3.26427 -1.89427 0.02 0 0 0 1 2
4760 1 3.45855 -5.75702 0.02 0 -1.32813e-06 -3.29242e-07 1 2
4758 1 3.45282 -5.95431 0.02 0 -2.27617e-06 3.10304e-08 1 2
4477 1 4.06799 -5.78448 0.0185607 0 7.54148e-05 1.08551e-05 1 2
4478 1 4.02654 -5.9733 0.0184699 0 -0.000104694 -1.74401e-05 1 2
4476 1 4.28042 -5.79188 0.018733 0 0.00010447 5.20014e-06 1 2
4474 1 4.22792 -5.97613 0.0184464 0 7.55164e-05 5.97428e-06 1 2
4653 1 3.09309 -1.95318 0.02 0 0 0 1 2
4687 1 3.03525 -2.95815 0.02 0 0 0 1 2
4636 1 3.23452 -1.67593 0.02 0 0 0 1 2
4700 1 3.26379 -3.38146 0.02 0 0 0 1 2
4776 1 3.33428 -5.21781 0.02 0 -6.74895e-11 5.02571e-11 1 2
4493 1 4.095 -5.5962 0.0191239 0 3.84768e-05 1.32643e-05 1 2
4492 1 4.12758 -5.4058 0.0199714 0 -0.000171861 -4.64249e-06 1 2
4603 1 3.17077 -0.577099 0.02 0 0 0 1 2
4823 1 3.12564 -4.31213 0.02 0 0 0 1 2
4489 1 4.30421 -5.6044 0.0196412 0 -8.90537e-05 -9.30621e-06 1 2
4490 1 4.33287 -5.41529 0.019995 0 2.06147e-06 -4.05927e-06 1 2
4491 1 4.34207 -5.22133 0.02 0 3.92701e-05 1.56984e-05 1 2
4840 1 3.27163 -3.76644 0.02 0 0 0 1 2
4635 1 3.21886 -1.45199 0.02 0 0 0 1 2
4666 1 3.1973 -2.37813 0.02 0 0 0 1 2
4792 1 3.32273 -5.0319 0.02 0 0 0 1 2
4793 1 3.36845 -4.85434 0.02 0 -4.83164e-13 3.90799e-14 1 2
4505 1 4.13929 -5.2108 0.02 0 -2.12533e-05 -2.10259e-06 1 2
4510 1 4.01048 -4.80548 0.02 0 -5.30343e-09 -1.34577e-09 1 2
4508 1 4.2068 -4.81527 0.02 0 1.6134e-07 3.10774e-07 1 2
4506 1 4.18184 -5.01593 0.02 0 2.38963e-06 2.67694e-06 1 2
4824 1 3.13066 -4.12772 0.02 0 0 0 1 2
4804 1 3.15849 -4.67505 0.02 0 0 0 1 2
4507 1 4.37863 -5.02224 0.02 0 7.27485e-06 6.51643e-06 1 2
4509 1 4.40023 -4.81151 0.02 0 1.05809e-06 8.53615e-07 1 2
4340 1 4.38271 -0.0243134 0.02 0 6.26288e-18 9.77334e-19 1 2
4806 1 3.4004 -4.67763 0.02 0 -2.35907e-12 1.48981e-13 1 2
4807 1 3.36958 -4.50029 0.02 0 -4.70235e-16 -1.58191e-17 1 2
4523 1 4.04674 -4.42187 0.02 0 -1.25694e-10 4.01781e-11 1 2
4525 1 4.04344 -4.60871 0.02 0 -4.19549e-11 2.04982e-10 1 2
4524 1 4.24006 -4.61129 0.02 0 3.1648e-09 7.3414e-09 1 2
4522 1 4.25983 -4.40831 0.02 0 7.51064e-11 1.19361e-10 1 2
4637 1 3.04529 -1.50825 0.02 0 0 0 1 2
4703 1 3.06199 -3.34695 0.02 0 0 0 1 2
4668 1 3.18923 -2.58323 0.02 0 0 0 1 2
4682 1 3.20059 -2.78375 0.02 0 0 0 1 2
4339 1 4.40947 -0.232612 0.02 0 2.72326e-17 5.7244e-19 1 2
4826 1 3.34864 -4.13913 0.02 0 -2.77706e-15 -3.83679e-16 1 2
4825 1 3.36061 -4.31783 0.02 0 -6.39549e-16 -5.86837e-17 1 2
4543 1 4.01095 -4.05469 0.02 0 -1.12291e-10 -5.11399e-11 1 2
4542 1 4.03206 -4.23899 0.02 0 -1.19744e-10 -2.34195e-11 1 2
4539 1 4.23586 -4.20972 0.02 0 7.32155e-11 6.96737e-12 1 2
4540 1 4.21681 -4.01236 0.02 0 1.97806e-10 1.36057e-11 1 2
4541 1 4.42373 -3.99137 0.02 0 -1.26283e-10 5.70687e-14 1 2
4638 1 3.06091 -1.733 0.02 0 0 0 1 2
4684 1 3.24019 -2.98033 0.02 0 0 0 1 2
4699 1 3.22628 -3.17868 0.02 0 0 0 1 2
4841 1 3.26565 -3.57722 0.02 0 -7.31727e-21 8.1406e-21 1 2
4557 1 4.13324 -3.83444 0.02 0 1.9236e-10 8.38465e-12 1 2
4558 1 4.11061 -3.64157 0.02 0 -4.19431e-11 1.39362e-11 1 2
4805 1 3.16597 -4.49409 0.02 0 0 0 1 2
4791 1 3.14545 -4.85207 0.02 0 0 0 1 2
4560 1 4.31638 -3.61938 0.02 0 -9.23932e-11 -8.1242e-13 1 2
4559 1 4.34731 -3.80935 0.02 0 -6.51738e-11 -1.30959e-11 1 2
4342 1 4.00152 -0.140001 0.02 0 -7.2164e-18 -2.9354e-18 1 2
4341 1 4.21183 -0.183256 0.02 0 -1.07159e-17 1.35824e-19 1 2
4698 1 3.42811 -3.18414 0.02 0 -1.44824e-15 4.78171e-16 1 2
4575 1 4.01948 -3.0552 0.02 0 -9.22324e-16 -1.70611e-14 1 2
4572 1 4.11735 -3.4454 0.02 0 -9.69667e-11 -1.61178e-11 1 2
4571 1 4.06245 -3.25437 0.02 0 -1.00212e-11 -2.67603e-12 1 2
4574 1 4.27335 -3.24471 0.02 0 1.29853e-11 1.11761e-11 1 2
4576 1 4.22038 -3.05525 0.02 0 1.73989e-12 2.28996e-12 1 2
4839 1 3.05644 -3.54144 0.02 0 0 0 1 2
4790 1 3.10539 -5.03303 0.02 0 0 0 1 2
4573 1 4.33242 -3.42684 0.02 0 4.55121e-11 1.66495e-11 1 2
4343 1 4.18532 -0.380407 0.02 0 -7.53777e-18 -2.63108e-18 1 2
4827 1 3.29459 -3.95743 0.02 0 0 0 1 2
4681 1 3.38943 -2.76838 0.02 0 -2.13666e-23 0 1 2
4683 1 3.43744 -2.9818 0.02 0 -2.57253e-17 1.68533e-19 1 2
4439 1 4.12125 -2.64892 0.02 0 -1.99404e-15 3.4616e-15 1 2
4441 1 4.18582 -2.85229 0.02 0 1.57613e-13 1.36139e-13 1 2
4588 1 3.14881 -0.370969 0.02 0 0 0 1 2
4437 1 4.4193 -3.02181 0.02 0 -3.56475e-13 2.44589e-12 1 2
4440 1 4.37544 -2.82524 0.02 0 9.67984e-14 1.04717e-13 1 2
4438 1 4.30653 -2.62038 0.02 0 -2.11714e-15 1.18854e-15 1 2
4604 1 3.20154 -0.782001 0.02 0 0 0 1 2
4587 1 3.34713 -0.318944 0.02 0 -1.06558e-25 5.62804e-28 1 2
4667 1 3.37526 -2.54253 0.02 0 -8.88577e-26 -5.87688e-26 1 2
4665 1 3.37016 -2.30904 0.02 0 -4.06338e-22 -3.47298e-23 1 2
4426 1 4.0789 -2.4387 0.02 0 -4.96985e-15 -6.56642e-16 1 2
4424 1 4.03726 -2.20819 0.02 0 -8.46033e-17 -2.92107e-17 1 2
4425 1 4.25444 -2.39988 0.02 0 1.24648e-15 7.3907e-16 1 2
4423 1 4.21616 -2.18323 0.02 0 2.57852e-16 3.9838e-16 1 2
4837 1 3.05874 -3.73478 0.02 0 0 0 1 2
4822 1 3.09279 -3.93179 0.02 0 0 0 1 2
4422 1 4.40522 -2.19833 0.02 0 -9.40006e-17 7.87114e-16 1 2
4741 1 3.21943 -6.36836 0.02 0 9.56415e-05 0.000115683 1 2
4725 1 3.22203 -6.73676 0.02 0 -0.00231043 -0.000510714 1 2
4774 1 3.30177 -5.40162 0.02 0 0 0 1 2
4649 1 3.43882 -1.84906 0.02 0 -1.38052e-19 2.0478e-20 1 2
4651 1 3.32744 -2.1014 0.02 0 0 0 1 2
4406 1 4.02701 -1.98574 0.02 0 -2.25043e-17 -7.75743e-18 1 2
4405 1 4.2162 -1.97392 0.02 0 4.57735e-17 2.61105e-17 1 2
4404 1 4.16372 -1.77757 0.02 0 5.72048e-18 2.33148e-18 1 2
4403 1 4.37763 -1.80384 0.02 0 4.95725e-18 3.51213e-18 1 2
4402 1 4.41402 -1.99908 0.02 0 3.60081e-17 5.16735e-17 1 2
4727 1 3.24608 -6.55608 0.02 0 0.000169487 0.000478325 1 2
4759 1 3.25888 -5.77485 0.02 0 7.42788e-12 2.92211e-11 1 2
4634 1 3.40417 -1.61635 0.02 0 0 0 1 2
4633 1 3.38288 -1.37464 0.02 0 0 0 1 2
4391 1 4.12917 -1.58117 0.02 0 -1.29367e-17 8.82008e-19 1 2
4390 1 4.10883 -1.37585 0.02 0 -2.20082e-18 1.32937e-19 1 2
4773 1 3.25138 -5.5831 0.02 0 0 0 1 2
4388 1 4.30216 -1.42554 0.02 0 -9.13697e-19 6.74671e-19 1 2
4775 1 3.12335 -5.2199 0.02 0 0 0 1 2
4389 1 4.34225 -1.61772 0.02 0 1.09747e-17 6.01029e-19 1 2
4589 1 3.12451 -0.167125 0.02 0 0 0 1 2
4618 1 3.38655 -1.14477 0.02 0 0 0 1 2
4617 1 3.38385 -0.925982 0.02 0 -2.52302e-31 -6.8188e-31 1 2
4377 1 4.13157 -1.17546 0.02 0 -7.69962e-18 -9.62518e-19 1 2
4376 1 4.15539 -0.977961 0.02 0 3.99527e-18 3.93511e-19 1 2
4590 1 3.32764 -0.130901 0.02 0 -2.4598e-25 -2.96949e-31 1 2
4355 1 4.37966 -0.43497 0.02 0 -6.49591e-18 -1.11694e-18 1 2
4357 1 4.3709 -0.839322 0.02 0 -1.93003e-18 -1.54801e-19 1 2
4356 1 4.38078 -0.638546 0.02 0 4.89054e-18 -3.21519e-19 1 2
4743 1 3.26005 -6.17118 0.02 0 4.49449e-06 9.39932e-06 1 2
4374 1 4.35477 -1.03692 0.02 0 6.35165e-18 7.22702e-19 1 2
4375 1 4.32629 -1.23072 0.02 0 2.59133e-18 -3.18392e-19 1 2
4601 1 3.35878 -0.514055 0.02 0 -1.11198e-27 -8.49566e-28 1 2
4602 1 3.38676 -0.71437 0.02 0 -8.81117e-29 -1.23383e-28 1 2
4359 1 4.17542 -0.780303 0.02 0 -2.45746e-18 2.914e-19 1 2
4358 1 4.17876 -0.578615 0.02 0 -7.05224e-18 1.02381e-19 1 2
4757 1 3.25822 -5.97154 0.02 0 1.03699e-08 3.36688e-08 1 2
4724 1 3.04774 -6.56544 0.02 0 0.000117283 0.000449059 1 2