ITEM: TIMESTEP
54000
ITEM: NUMBER OF ATOMS
1182
ITEM: BOX BOUNDS ff ff pp
0.0000000000000000e+00 4.4000000000000004e+00
-1.0000000000000000e+01 1.0000000000000000e+01
-2.0000000000000000e-02 2.0000000000000000e-02
ITEM: ATOMS id type x y vx vy fx fy c_den c_phase
1509 2 2 -10 0 0 0 0 1 5
1510 2 2.2 -10 0 0 0 0 1 5
1511 2 2.4 -10 0 0 0 0 1 5
1543 2 2 -9.8 0 0 0 0 1 5
1544 2 2.2 -9.8 0 0 0 0 1 5
1545 2 2.4 -9.8 0 0 0 0 1 5
1577 2 2 -9.6 0 0 0 0 1 5
1578 2 2.2 -9.6 0 0 0 0 1 5
1579 2 2.4 -9.6 0 0 0 0 1 5
1512 2 2.6 -10 0 0 0 0 1 5
1513 2 2.8 -10 0 0 0 0 1 5
1546 2 2.6 -9.8 0 0 0 0 1 5
1547 2 2.8 -9.8 0 0 0 0 1 5
1580 2 2.6 -9.6 0 0 0 0 1 5
1581 2 2.8 -9.6 0 0 0 0 1 5
1645 2 2 -9.2 0 0 0 0 1 5
1646 2 2.2 -9.2 0 0 0 0 1 5
1647 2 2.4 -9.2 0 0 0 0 1 5
1613 2 2.4 -9.4 0 0 0 0 1 5
1612 2 2.2 -9.4 0 0 0 0 1 5
1611 2 2 -9.4 0 0 0 0 1 5
1648 2 2.6 -9.2 0 0 0 0 1 5
1649 2 2.8 -9.2 0 0 0 0 1 5
1615 2 2.8 -9.4 0 0 0 0 1 5
1614 2 2.6 -9.4 0 0 0 0 1 5
1679 2 2 -9 0 0 0 0 1 5
1680 2 2.2 -9 0 0 0 0 1 5
1681 2 2.4 -9 0 0 0 0 1 5
1713 2 2 -8.8 0 0 0 0 1 5
1714 2 2.2 -8.8 0 0 0 0 1 5
1715 2 2.4 -8.8 0 0 0 0 1 5
1682 2 2.6 -9 0 0 0 0 1 5
1683 2 2.8 -9 0 0 0 0 1 5
1716 2 2.6 -8.8 0 0 0 0 1 5
1717 2 2.8 -8.8 0 0 0 0 1 5
1783 2 2.4 -8.4 0 0 0 0 1 5
1782 2 2.2 -8.4 0 0 0 0 1 5
1781 2 2 -8.4 0 0 0 0 1 5
1747 2 2 -8.6 0 0 0 0 1 5
1748 2 2.2 -8.6 0 0 0 0 1 5
1749 2 2.4 -8.6 0 0 0 0 1 5
1785 2 2.8 -8.4 0 0 0 0 1 5
1784 2 2.6 -8.4 0 0 0 0 1 5
1750 2 2.6 -8.6 0 0 0 0 1 5
1751 2 2.8 -8.6 0 0 0 0 1 5
1851 2 2.4 -8 0 0 0 0 1 5
1850 2 2.2 -8 0 0 0 0 1 5
1849 2 2 -8 0 0 0 0 1 5
1817 2 2.4 -8.2 0 0 0 0 1 5
1816 2 2.2 -8.2 0 0 0 0 1 5
1815 2 2 -8.2 0 0 0 0 1 5
1853 2 2.8 -8 0 0 0 0 1 5
1852 2 2.6 -8 0 0 0 0 1 5
1819 2 2.8 -8.2 0 0 0 0 1 5
1818 2 2.6 -8.2 0 0 0 0 1 5
1953 2 2.4 -7.4 0 0 0 0 1.00055 5
1952 2 2.2 -7.4 0 0 0 0 1.00163 5
1951 2 2 -7.4 0 0 0 0 0.997526 5
1919 2 2.4 -7.6 0 0 0 0 1 5
1918 2 2.2 -7.6 0 0 0 0 1 5
1917 2 2 -7.6 0 0 0 0 1 5
1885 2 2.4 -7.8 0 0 0 0 1 5
1884 2 2.2 -7.8 0 0 0 0 1 5
1883 2 2 -7.8 0 0 0 0 1 5
1955 2 2.8 -7.4 0 0 0 0 0.995548 5
1954 2 2.6 -7.4 0 0 0 0 1.00144 5
1921 2 2.8 -7.6 0 0 0 0 1 5
1920 2 2.6 -7.6 0 0 0 0 1 5
1887 2 2.8 -7.8 0 0 0 0 1 5
1886 2 2.6 -7.8 0 0 0 0 1 5
2021 2 2.4 -7 0 0 0 0 0.999871 5
2020 2 2.2 -7 0 0 0 0 0.999817 5
2019 2 2 -7 0 0 0 0 1.00081 5
1987 2 2.4 -7.2 0 0 0 0 1.00018 5
1986 2 2.2 -7.2 0 0 0 0 0.999779 5
1985 2 2 -7.2 0 0 0 0 0.999832 5
2023 2 2.8 -7 0 0 0 0 0.998912 5
2022 2 2.6 -7 0 0 0 0 0.999661 5
1989 2 2.8 -7.2 0 0 0 0 0.998412 5
1988 2 2.6 -7.2 0 0 0 0 0.999729 5
4718 1 2.23309 -6.75043 0.02 0 -0.00317106 -0.000443652 1 2
4720 1 2.23566 -6.56481 0.02 0 0.000164211 0.000418666 1 2
4717 1 2.03461 -6.74572 0.02 0 -0.00333368 -0.000538651 1 2
4719 1 2.02812 -6.56407 0.02 0 5.06007e-05 0.000305562 1 2
4714 1 1.81892 -6.76661 0.02 0 -0.00292157 -0.000852073 1 2
4716 1 1.83519 -6.57535 0.02 0 -6.49783e-05 0.000196105 1 2
4724 1 2.64774 -6.56544 0.02 0 0.000128529 0.000455874 1 2
4721 1 2.42654 -6.74604 0.02 0 -0.00266455 -0.000519913 1 2
4722 1 2.62585 -6.75916 0.02 0 -0.00305169 -0.000510172 1 2
4723 1 2.44728 -6.56288 0.02 0 0.000183738 0.000513477 1 2
4715 1 1.64751 -6.55076 0.02 0 0.000107117 6.66859e-05 1 2
4615 1 1.62432 -0.609091 0.02 0 0 0 1 2
4727 1 2.84608 -6.55608 0.02 0 0.000170921 0.000478403 1 2
4725 1 2.82203 -6.73676 0.02 0 -0.00230165 -0.000515613 1 2
4734 1 2.25026 -6.37692 0.02 0 9.26451e-05 0.000147618 1 2
4736 1 2.27755 -6.18093 0.02 0 5.01229e-06 1.24993e-05 1 2
4733 1 2.05762 -6.37882 0.02 0 4.98046e-05 0.000116816 1 2
4735 1 2.08304 -6.18522 0.02 0 2.97623e-06 1.08983e-05 1 2
4732 1 1.89165 -6.17475 0.02 0 6.72234e-07 3.37819e-06 1 2
4731 1 1.86276 -6.37801 0.02 0 1.67772e-05 6.24308e-05 1 2
4740 1 2.66488 -6.181 0.02 0 5.05767e-06 1.06688e-05 1 2
4738 1 2.62567 -6.37314 0.02 0 9.81602e-05 0.000127 1 2
4739 1 2.47065 -6.16748 0.02 0 3.88923e-06 8.79614e-06 1 2
4737 1 2.43793 -6.37185 0.02 0 9.6162e-05 0.000131741 1 2
4616 1 1.64472 -0.808962 0.02 0 0 0 1 2
4664 1 1.61302 -2.0009 0.02 0 0 0 1 2
4741 1 2.81943 -6.36836 0.02 0 9.57607e-05 0.00011577 1 2
4743 1 2.86005 -6.17118 0.02 0 4.49665e-06 9.40101e-06 1 2
4751 1 2.2659 -5.78886 0.02 0 1.61215e-11 6.381e-11 1 2
4752 1 2.28244 -5.9853 0.02 0 1.95546e-08 8.35788e-08 1 2
4749 1 2.08614 -5.98699 0.02 0 1.16273e-08 7.92519e-08 1 2
4750 1 2.07113 -5.78504 0.02 0 4.17738e-12 2.9466e-11 1 2
4747 1 1.88972 -5.97299 0.02 0 1.76437e-09 1.2831e-08 1 2
4748 1 1.87604 -5.77559 0.02 0 2.44403e-13 3.89037e-12 1 2
4754 1 2.66435 -5.98631 0.02 0 1.91085e-08 6.42831e-08 1 2
4756 1 2.65968 -5.78722 0.02 0 1.15133e-11 5.69913e-11 1 2
4753 1 2.47354 -5.96034 0.02 0 6.2604e-09 2.32415e-08 1 2
4755 1 2.46109 -5.75899 0.02 0 1.30015e-12 8.82017e-12 1 2
4696 1 1.67046 -2.83279 0.02 0 0 0 1 2
4679 1 1.62972 -2.21217 0.02 0 0 0 1 2
4757 1 2.85822 -5.97154 0.02 0 1.03709e-08 3.36682e-08 1 2
4759 1 2.85888 -5.77485 0.02 0 7.42808e-12 2.92212e-11 1 2
4766 1 2.24336 -5.59168 0.02 0 0 0 1 2
4768 1 2.23012 -5.39862 0.02 0 0 0 1 2
4765 1 2.03975 -5.58705 0.02 0 0 0 1 2
4767 1 2.01951 -5.39695 0.02 0 0 0 1 2
4763 1 1.80929 -5.39695 0.02 0 0 0 1 2
4764 1 1.83142 -5.58573 0.02 0 0 0 1 2
4772 1 2.67537 -5.40096 0.02 0 0 0 1 2
4770 1 2.64579 -5.58955 0.02 0 0 0 1 2
4771 1 2.44613 -5.38031 0.02 0 0 0 1 2
4769 1 2.44445 -5.5651 0.02 0 0 0 1 2
4775 1 2.72335 -5.2199 0.02 0 0 0 1 2
4773 1 2.85138 -5.5831 0.02 0 0 0 1 2
4774 1 2.90177 -5.40162 0.02 0 0 0 1 2
4776 1 2.93428 -5.21781 0.02 0 0 0 1 2
4784 1 2.25816 -5.21635 0.02 0 0 0 1 2
4785 1 2.27611 -5.03667 0.02 0 0 0 1 2
4783 1 2.09388 -4.85243 0.02 0 0 0 1 2
4781 1 2.02586 -5.21235 0.02 0 0 0 1 2
4782 1 2.05611 -5.03345 0.02 0 0 0 1 2
4777 1 1.80583 -5.20967 0.02 0 0 0 1 2
4779 1 1.82812 -5.02856 0.02 0 0 0 1 2
4780 1 1.87138 -4.85148 0.02 0 0 0 1 2
4790 1 2.70539 -5.03303 0.02 0 0 0 1 2
4786 1 2.31325 -4.85376 0.02 0 0 0 1 2
4788 1 2.48983 -5.02973 0.02 0 0 0 1 2
4787 1 2.50448 -5.21105 0.02 0 0 0 1 2
4789 1 2.52842 -4.84693 0.02 0 0 0 1 2
4791 1 2.74545 -4.85207 0.02 0 0 0 1 2
4792 1 2.92273 -5.0319 0.02 0 0 0 1 2
4793 1 2.96845 -4.85434 0.02 0 -3.10151e-15 2.63297e-16 1 2
4800 1 2.27376 -4.67305 0.02 0 0 0 1 2
4799 1 2.10933 -4.49172 0.02 0 0 0 1 2
4798 1 2.05368 -4.66888 0.02 0 0 0 1 2
4797 1 1.87274 -4.48385 0.02 0 0 0 1 2
4796 1 1.84512 -4.66649 0.02 0 0 0 1 2
4801 1 2.34606 -4.50233 0.02 0 0 0 1 2
4803 1 2.559 -4.48365 0.02 0 0 0 1 2
4802 1 2.51631 -4.66598 0.02 0 0 0 1 2
4805 1 2.76597 -4.49409 0.02 0 0 0 1 2
4804 1 2.75849 -4.67505 0.02 0 0 0 1 2
4761 1 1.62573 -5.58762 0.02 0 0 0 1 2
4807 1 2.96958 -4.50029 0.02 0 0 0 1 2
4816 1 2.28229 -4.32272 0.02 0 0 0 1 2
4820 1 2.29024 -3.93088 0.02 0 0 0 1 2
4813 1 2.10478 -4.11797 0.02 0 0 0 1 2
4815 1 2.09467 -3.92102 0.02 0 0 0 1 2
4812 1 2.07241 -4.3071 0.02 0 0 0 1 2
4811 1 1.88871 -4.11551 0.02 0 0 0 1 2
4814 1 1.89739 -3.92505 0.02 0 0 0 1 2
4810 1 1.86428 -4.3006 0.02 0 0 0 1 2
4817 1 2.31323 -4.13064 0.02 0 0 0 1 2
4822 1 2.69279 -3.93179 0.02 0 0 0 1 2
4819 1 2.52151 -4.11233 0.02 0 0 0 1 2
4821 1 2.49057 -3.92273 0.02 0 0 0 1 2
4818 1 2.49875 -4.30065 0.02 0 0 0 1 2
4824 1 2.73066 -4.12772 0.02 0 0 0 1 2
4823 1 2.72564 -4.31213 0.02 0 0 0 1 2
4827 1 2.89459 -3.95743 0.02 0 0 0 1 2
4826 1 2.94864 -4.13913 0.02 0 0 0 1 2
4825 1 2.96061 -4.31783 0.02 0 0 0 1 2
4834 1 2.23118 -3.52872 0.02 0 0 0 1 2
4835 1 2.24685 -3.72594 0.02 0 0 0 1 2
4832 1 2.04805 -3.72231 0.02 0 0 0 1 2
4833 1 2.0262 -3.52264 0.02 0 0 0 1 2
4831 1 1.84849 -3.72616 0.02 0 0 0 1 2
4830 1 1.8245 -3.52888 0.02 0 0 0 1 2
4838 1 2.44302 -3.54809 0.02 0 0 0 1 2
4836 1 2.44845 -3.73604 0.02 0 0 0 1 2
4837 1 2.65874 -3.73478 0.02 0 0 0 1 2
4839 1 2.65644 -3.54144 0.02 0 0 0 1 2
4841 1 2.86565 -3.57722 0.02 0 0 0 1 2
4840 1 2.87163 -3.76644 0.02 0 0 0 1 2
4705 1 2.24305 -3.33918 0.02 0 0 0 1 2
4706 1 2.21135 -3.14803 0.02 0 0 0 1 2
4707 1 2.01902 -3.1147 0.02 0 0 0 1 2
4709 1 2.03124 -3.32346 0.02 0 0 0 1 2
4708 1 1.82942 -3.13149 0.02 0 0 0 1 2
4710 1 1.82445 -3.33168 0.02 0 0 0 1 2
4704 1 2.45675 -3.36021 0.02 0 0 0 1 2
4702 1 2.41538 -3.17037 0.02 0 0 0 1 2
4701 1 2.62109 -3.15337 0.02 0 0 0 1 2
4703 1 2.66199 -3.34695 0.02 0 0 0 1 2
4762 1 1.60237 -5.39266 0.02 0 0 0 1 2
4700 1 2.86379 -3.38146 0.02 0 0 0 1 2
4699 1 2.82628 -3.17868 0.02 0 0 0 1 2
4692 1 2.23116 -2.95325 0.02 0 0 0 1 2
4689 1 2.22638 -2.75172 0.02 0 0 0 1 2
4693 1 2.03754 -2.90633 0.02 0 0 0 1 2
4691 1 2.03531 -2.7004 0.02 0 0 0 1 2
4694 1 1.84809 -2.91284 0.02 0 0 0 1 2
4690 1 1.84692 -2.68472 0.02 0 0 0 1 2
4688 1 2.43261 -2.9752 0.02 0 0 0 1 2
4686 1 2.41766 -2.77288 0.02 0 0 0 1 2
4687 1 2.63525 -2.95815 0.02 0 0 0 1 2
4685 1 2.60692 -2.756 0.02 0 0 0 1 2
4778 1 1.64851 -4.83834 0.02 0 0 0 1 2
4684 1 2.84019 -2.98033 0.02 0 0 0 1 2
4682 1 2.80059 -2.78375 0.02 0 0 0 1 2
4795 1 1.645 -4.462 0.02 0 0 0 1 2
4673 1 2.21213 -2.3438 0.02 0 0 0 1 2
4675 1 2.21379 -2.54709 0.02 0 0 0 1 2
4674 1 2.0157 -2.28702 0.02 0 0 0 1 2
4676 1 2.02174 -2.49265 0.02 0 0 0 1 2
4677 1 1.83001 -2.46414 0.02 0 0 0 1 2
4678 1 1.82098 -2.25416 0.02 0 0 0 1 2
4672 1 2.40449 -2.55829 0.02 0 0 0 1 2
4670 1 2.40598 -2.34155 0.02 0 0 0 1 2
4671 1 2.5945 -2.55237 0.02 0 0 0 1 2
4669 1 2.60313 -2.35355 0.02 0 0 0 1 2
4668 1 2.78923 -2.58323 0.02 0 0 0 1 2
4666 1 2.7973 -2.37813 0.02 0 0 0 1 2
4667 1 2.97526 -2.54253 0.02 0 0 0 1 2
4665 1 2.97016 -2.30904 0.02 0 0 0 1 2
4660 1 2.19085 -2.13736 0.02 0 0 0 1 2
4658 1 2.1567 -1.9211 0.02 0 0 0 1 2
4661 1 2.00078 -2.07835 0.02 0 0 0 1 2
4659 1 1.97091 -1.86398 0.02 0 0 0 1 2
4663 1 1.80619 -2.04609 0.02 0 0 0 1 2
4657 1 2.37441 -2.11748 0.02 0 0 0 1 2
4654 1 2.51121 -1.93371 0.02 0 0 0 1 2
4656 1 2.56 -2.153 0.02 0 0 0 1 2
4655 1 2.3347 -1.88565 0.02 0 0 0 1 2
4653 1 2.69309 -1.95318 0.02 0 0 0 1 2
4652 1 2.75262 -2.16444 0.02 0 0 0 1 2
4794 1 1.64067 -4.65017 0.02 0 0 0 1 2
4650 1 2.86427 -1.89427 0.02 0 0 0 1 2
4651 1 2.92744 -2.1014 0.02 0 0 0 1 2
4640 1 2.28312 -1.45769 0.02 0 0 0 1 2
4643 1 2.1015 -1.46824 0.02 0 0 0 1 2
4645 1 2.11138 -1.6947 0.02 0 0 0 1 2
4646 1 1.92772 -1.64492 0.02 0 0 0 1 2
4644 1 1.91621 -1.43509 0.02 0 0 0 1 2
4641 1 2.47949 -1.70098 0.02 0 0 0 1 2
4637 1 2.64529 -1.50825 0.02 0 0 0 1 2
4639 1 2.46528 -1.47825 0.02 0 0 0 1 2
4638 1 2.66091 -1.733 0.02 0 0 0 1 2
4642 1 2.29394 -1.6724 0.02 0 0 0 1 2
4635 1 2.81886 -1.45199 0.02 0 0 0 1 2
4636 1 2.83452 -1.67593 0.02 0 0 0 1 2
4680 1 1.63691 -2.4215 0.02 0 0 0 1 2
4633 1 2.98288 -1.37464 0.02 0 0 0 1 2
4626 1 2.25996 -1.24399 0.02 0 0 0 1 2
4625 1 2.25381 -1.03348 0.02 0 0 0 1 2
4627 1 2.05926 -1.03504 0.02 0 0 0 1 2
4629 1 2.07126 -1.24415 0.02 0 0 0 1 2
4630 1 1.87783 -1.23077 0.02 0 0 0 1 2
4628 1 1.86198 -1.02554 0.02 0 0 0 1 2
4621 1 2.63471 -1.28045 0.02 0 0 0 1 2
4622 1 2.62709 -1.05121 0.02 0 0 0 1 2
4624 1 2.44898 -1.26074 0.02 0 0 0 1 2
4623 1 2.44327 -1.04626 0.02 0 0 0 1 2
4618 1 2.98655 -1.14477 0.02 0 0 0 1 2
4617 1 2.98385 -0.925982 0.02 0 0 0 1 2
4619 1 2.80522 -0.999003 0.02 0 0 0 1 2
4620 1 2.81124 -1.2208 0.02 0 0 0 1 2
4610 1 2.20732 -0.618916 0.02 0 0 0 1 2
4609 1 2.24128 -0.826347 0.02 0 0 0 1 2
4611 1 2.01616 -0.628898 0.02 0 0 0 1 2
4613 1 2.04318 -0.832632 0.02 0 0 0 1 2
4612 1 1.82221 -0.613201 0.02 0 0 0 1 2
4614 1 1.84372 -0.819929 0.02 0 0 0 1 2
4603 1 2.77077 -0.577099 0.02 0 0 0 1 2
4605 1 2.6183 -0.821662 0.02 0 0 0 1 2
4606 1 2.58218 -0.598796 0.02 0 0 0 1 2
4607 1 2.3964 -0.615255 0.02 0 0 0 1 2
4608 1 2.43343 -0.829479 0.02 0 0 0 1 2
4604 1 2.80154 -0.782001 0.02 0 0 0 1 2
4601 1 2.95878 -0.514055 0.02 0 0 0 1 2
4602 1 2.98676 -0.71437 0.02 0 0 0 1 2
4595 1 2.17233 -0.411655 0.02 0 0 0 1 2
4596 1 2.14801 -0.202375 0.02 0 0 0 1 2
4597 1 1.98094 -0.418584 0.02 0 0 0 1 2
4598 1 1.9597 -0.204515 0.02 0 0 0 1 2
4588 1 2.74881 -0.370969 0.02 0 0 0 1 2
4589 1 2.72451 -0.167125 0.02 0 0 0 1 2
4592 1 2.5293 -0.170696 0.02 0 0 0 1 2
4593 1 2.36437 -0.401333 0.02 0 0 0 1 2
4594 1 2.3386 -0.191329 0.02 0 0 0 1 2
4591 1 2.55471 -0.383144 0.02 0 0 0 1 2
4590 1 2.92764 -0.130901 0.02 0 0 0 1 2
4587 1 2.94713 -0.318944 0.02 0 0 0 1 2
4662 1 1.7794 -1.83614 0.02 0 0 0 1 2
4599 1 1.77136 -0.196512 0.02 0 0 0 1 2
4600 1 1.78964 -0.406124 0.02 0 0 0 1 2
4648 1 1.73799 -1.62282 0.02 0 0 0 1 2
4729 1 1.6674 -6.35963 0.02 0 1.4066e-05 1.18481e-05 1 2
4632 1 1.68052 -1.20811 0.02 0 0 0 1 2
4631 1 1.6616 -1.00736 0.02 0 0 0 1 2
4647 1 1.71995 -1.41351 0.02 0 0 0 1 2
4730 1 1.6987 -6.17071 0.02 0 3.50377e-07 4.04637e-07 1 2
4745 1 1.6898 -5.9796 0.02 0 1.88658e-09 2.44879e-09 1 2
4746 1 1.67906 -5.78431 0.02 0 0 0 1 2
4809 1 1.67105 -4.08309 0.02 0 0 0 1 2
4828 1 1.69796 -3.89073 0.02 0 0 0 1 2
4713 1 1.61371 -6.73915 0.02 0 -0.000439814 -0.000305699 1 2
4697 1 1.65495 -3.0408 0.02 0 0 0 1 2
4711 1 1.63213 -3.25575 0.02 0 0 0 1 2
4712 1 1.63146 -3.47088 0.02 0 0 0 1 2
4829 1 1.64567 -3.68365 0.02 0 0 0 1 2
4695 1 1.65943 -2.62755 0.02 0 0 0 1 2
4808 1 1.66068 -4.27373 0.02 0 0 0 1 2
4593 1 2.16583 0.243059 0.02 0 0 0 1 2
4592 1 2.12775 0.0146403 0.02 0 0 0 1 2
4589 1 1.97888 0.216003 0.02 0 0 0 1 2
4590 1 1.97364 0.424276 0.02 0 0 0 1 2
4591 1 1.93938 0.00901173 0.02 0 0 0 1 2
4601 1 2.71171 0.0351082 0.02 0 0 0 1 2
4598 1 2.51441 0.0415298 0.02 0 0 0 1 2
4597 1 2.54725 0.260252 0.02 0 0 0 1 2
4594 1 2.31703 0.0139935 0.02 0 0 0 1 2
4595 1 2.35611 0.213481 0.02 0 0 0 1 2
4596 1 2.35051 0.417667 0.02 0 0 0 1 2
4599 1 2.74114 0.23525 0.02 0 0 0 1 2
4600 1 2.94333 0.248268 0.02 0 0 0 1 2
4602 1 2.92128 0.0565639 0.02 0 0 0 1 2
4608 1 2.16206 0.465903 0.02 0 0 0 1 2
4609 1 2.16613 0.683296 0.02 0 0 0 1 2
4606 1 1.97812 0.634414 0.02 0 0 0 1 2
4607 1 1.98461 0.848641 0.02 0 0 0 1 2
4612 1 2.52908 0.689725 0.02 0 0 0 1 2
4613 1 2.36023 0.868113 0.02 0 0 0 1 2
4610 1 2.53652 0.478881 0.02 0 0 0 1 2
4611 1 2.34772 0.632968 0.02 0 0 0 1 2
4616 1 2.71972 0.657818 0.02 0 0 0 1 2
4614 1 2.72568 0.442989 0.02 0 0 0 1 2
4615 1 2.92185 0.443638 0.02 0 0 0 1 2
4617 1 2.91163 0.644073 0.02 0 0 0 1 2
4618 1 2.92595 0.852158 0.02 0 0 0 1 2
4625 1 2.15689 1.29997 0.02 0 0 0 1 2
4623 1 2.17307 0.88937 0.02 0 0 0 1 2
4624 1 2.1614 1.09195 0.02 0 0 0 1 2
4621 1 1.97139 1.06422 0.02 0 0 0 1 2
4622 1 1.97002 1.27921 0.02 0 0 0 1 2
4629 1 2.55124 0.888006 0.02 0 0 0 1 2
4628 1 2.53936 1.29024 0.02 0 0 0 1 2
4630 1 2.34726 1.30394 0.02 0 0 0 1 2
4626 1 2.35117 1.09204 0.02 0 0 0 1 2
4627 1 2.54009 1.08696 0.02 0 0 0 1 2
4633 1 2.73274 1.29444 0.02 0 0 0 1 2
4632 1 2.73062 1.08721 0.02 0 0 0 1 2
4631 1 2.74097 0.87288 0.02 0 0 0 1 2
4635 1 2.92688 1.28015 0.02 0 0 0 1 2
4634 1 2.91734 1.07091 0.02 0 0 0 1 2
4641 1 2.16541 1.70509 0.02 0 0 0 1 2
4640 1 2.12212 1.50668 0.02 0 0 0 1 2
4639 1 1.95224 1.68567 0.02 0 0 0 1 2
4638 1 1.92716 1.48506 0.02 0 0 0 1 2
4644 1 2.52653 1.49143 0.02 0 0 0 1 2
4642 1 2.3208 1.50485 0.02 0 0 0 1 2
4643 1 2.37851 1.69224 0.02 0 0 0 1 2
4645 1 2.59146 1.67867 0.02 0 0 0 1 2
4646 1 2.73656 1.49215 0.02 0 0 0 1 2
4648 1 2.94621 1.47698 0.02 0 0 0 1 2
4699 1 1.60359 3.16915 0.02 0 0 0 1 2
4647 1 2.80379 1.67673 0.02 0 0 0 1 2
4654 1 2.19824 1.89882 0.02 0 0 0 1 2
4655 1 2.18981 2.09218 0.02 0 0 0 1 2
4652 1 1.98797 1.8791 0.02 0 0 0 1 2
4653 1 1.97618 2.07045 0.02 0 0 0 1 2
4657 1 2.40079 2.07554 0.02 0 0 0 1 2
4656 1 2.4064 1.8822 0.02 0 0 0 1 2
4659 1 2.61168 2.06194 0.02 0 0 0 1 2
4658 1 2.61513 1.86944 0.02 0 0 0 1 2
4700 1 1.61265 3.37484 0.02 0 0 0 1 2
4778 1 1.65963 5.62531 0.02 0 0 0 1 2
4661 1 2.82112 2.05093 0.02 0 0 0 1 2
4660 1 2.82976 1.86411 0.02 0 0 0 1 2
4671 1 2.24547 2.28011 0.02 0 0 0 1 2
4673 1 2.26962 2.4728 0.02 0 0 0 1 2
4667 1 2.02837 2.26125 0.02 0 0 0 1 2
4669 1 2.06044 2.45268 0.02 0 0 0 1 2
4670 1 1.84089 2.60767 0.02 0 0 0 1 2
4668 1 1.84401 2.41719 0.02 0 0 0 1 2
4666 1 1.80847 2.22999 0.02 0 0 0 1 2
4675 1 2.66033 2.25117 0.02 0 0 0 1 2
4676 1 2.67126 2.44706 0.02 0 0 0 1 2
4674 1 2.47206 2.46162 0.02 0 0 0 1 2
4672 1 2.45346 2.2647 0.02 0 0 0 1 2
4678 1 2.86993 2.42432 0.02 0 0 0 1 2
4677 1 2.87274 2.23351 0.02 0 -7.64571e-31 -7.87505e-31 1 2
4686 1 2.25563 2.6637 0.02 0 0 0 1 2
4687 1 2.2352 2.85568 0.02 0 0 0 1 2
4682 1 2.04552 2.64459 0.02 0 0 0 1 2
4684 1 2.03193 2.83916 0.02 0 0 0 1 2
4685 1 2.00362 3.03534 0.02 0 0 0 1 2
4683 1 1.8293 2.80212 0.02 0 0 0 1 2
4681 1 1.80584 2.99882 0.02 0 0 0 1 2
4692 1 2.42056 3.04037 0.02 0 0 0 1 2
4693 1 2.67922 2.64228 0.02 0 0 0 1 2
4689 1 2.43953 2.85041 0.02 0 0 0 1 2
4688 1 2.46862 2.65746 0.02 0 0 0 1 2
4691 1 2.63615 3.03093 0.02 0 0 0 1 2
4690 1 2.64311 2.83725 0.02 0 0 0 1 2
4694 1 2.88891 2.61868 0.02 0 0 0 1 2
4696 1 2.84902 3.00747 0.02 0 0 0 1 2
4695 1 2.84646 2.81327 0.02 0 0 0 1 2
4732 1 1.71964 4.19723 0.02 0 0 0 1 2
4679 1 1.62237 2.77537 0.02 0 0 0 1 2
4707 1 2.19374 3.44129 0.02 0 0 0 1 2
4706 1 2.20614 3.24229 0.02 0 0 0 1 2
4705 1 2.20759 3.04792 0.02 0 0 0 1 2
4703 1 2.0025 3.23538 0.02 0 0 0 1 2
4704 1 1.99963 3.43993 0.02 0 0 0 1 2
4702 1 1.80659 3.40503 0.02 0 0 0 1 2
4701 1 1.80243 3.20054 0.02 0 0 0 1 2
4709 1 2.39474 3.41402 0.02 0 0 0 1 2
4708 1 2.41605 3.22709 0.02 0 0 0 1 2
4711 1 2.61161 3.41416 0.02 0 0 0 1 2
4710 1 2.62567 3.22198 0.02 0 0 0 1 2
4713 1 2.82023 3.39011 0.02 0 0 0 1 2
4712 1 2.83655 3.19848 0.02 0 0 0 1 2
4680 1 1.60628 2.96941 0.02 0 0 0 1 2
4664 1 1.62199 2.39441 0.02 0 0 0 1 2
4722 1 2.26031 3.63092 0.02 0 0 0 1 2
4724 1 2.28144 3.82453 0.02 0 0 0 1 2
4719 1 2.05631 3.64472 0.02 0 0 0 1 2
4721 1 2.08024 3.84819 0.02 0 0 0 1 2
4720 1 1.88112 3.8167 0.02 0 0 0 1 2
4718 1 1.8518 3.61296 0.02 0 0 0 1 2
4725 1 2.48851 3.78237 0.02 0 0 0 1 2
4723 1 2.46261 3.59356 0.02 0 0 0 1 2
4726 1 2.66761 3.605 0.02 0 0 0 1 2
4727 1 2.70408 3.79564 0.02 0 0 0 1 2
4729 1 2.90867 3.78013 0.02 0 0 0 1 2
4728 1 2.86546 3.58233 0.02 0 0 0 1 2
4717 1 1.68339 3.789 0.02 0 0 0 1 2
4736 1 2.12097 4.25642 0.02 0 0 0 1 2
4734 1 2.10376 4.0519 0.02 0 0 0 1 2
4735 1 1.92233 4.22758 0.02 0 0 0 1 2
4733 1 1.90602 4.02299 0.02 0 0 0 1 2
4739 1 2.31437 4.21997 0.02 0 0 0 1 2
4740 1 2.50663 4.16658 0.02 0 0 0 1 2
4737 1 2.30249 4.01862 0.02 0 0 0 1 2
4738 1 2.50668 3.97069 0.02 0 0 0 1 2
4741 1 2.70507 4.17791 0.02 0 0 0 1 2
4742 1 2.71938 3.98501 0.02 0 0 0 1 2
4743 1 2.92823 3.97931 0.02 0 0 0 1 2
4744 1 2.90369 4.17872 0.02 0 -1.1045e-31 -9.37377e-32 1 2
4749 1 2.14473 4.46491 0.02 0 0 0 1 2
4751 1 2.13315 4.66681 0.02 0 0 0 1 2
4748 1 1.95432 4.43607 0.02 0 0 0 1 2
4750 1 1.93774 4.64357 0.02 0 0 0 1 2
4755 1 2.50617 4.59842 0.02 0 0 0 1 2
4752 1 2.32865 4.43165 0.02 0 0 0 1 2
4753 1 2.50768 4.37551 0.02 0 0 0 1 2
4754 1 2.32606 4.65198 0.02 0 0 0 1 2
4756 1 2.66458 4.78249 0.02 0 0 0 1 2
4757 1 2.69811 4.37631 0.02 0 0 0 1 2
4758 1 2.69542 4.57729 0.02 0 0 0 1 2
4760 1 2.88499 4.60329 0.02 0 0 0 1 2
4759 1 2.89037 4.38771 0.02 0 0 0 1 2
4769 1 2.27036 5.07323 0.02 0 0 0 1 2
4764 1 2.10405 4.86415 0.02 0 0 0 1 2
4766 1 2.07264 5.05907 0.02 0 0 0 1 2
4763 1 1.90794 4.84671 0.02 0 0 0 1 2
4765 1 1.87544 5.04711 0.02 0 0 0 1 2
4768 1 2.48516 4.83342 0.02 0 0 0 1 2
4770 1 2.46605 5.04537 0.02 0 0 0 1 2
4767 1 2.29757 4.86501 0.02 0 0 0 1 2
4771 1 2.65571 5.00509 0.02 0 0 0 1 2
4773 1 2.84383 5.02659 0.02 0 0 0 1 2
4772 1 2.85062 4.81643 0.02 0 0 0 1 2
4665 1 1.63548 2.5827 0.02 0 0 0 1 2
4716 1 1.65012 3.58294 0.02 0 0 0 1 2
4731 1 1.71036 3.99507 0.02 0 0 0 1 2
4787 1 2.28887 5.46271 0.02 0 0 0 1 2
4785 1 2.28265 5.27131 0.02 0 0 0 1 2
4790 1 2.28836 5.64708 0.02 0 0 0 1 2
4782 1 2.08502 5.44311 0.02 0 0 0 1 2
4784 1 2.06523 5.62895 0.02 0 0 0 1 2
4779 1 2.07455 5.25264 0.02 0 0 0 1 2
4781 1 1.8826 5.4397 0.02 0 0 0 1 2
4783 1 1.85482 5.63138 0.02 0 0 0 1 2
4780 1 1.86565 5.2438 0.02 0 0 0 1 2
4788 1 2.49301 5.44626 0.02 0 0 0 1 2
4789 1 2.50178 5.64281 0.02 0 0 0 1 2
4786 1 2.48082 5.24663 0.02 0 0 0 1 2
4793 1 2.70631 5.63775 0.02 0 0 0 1 2
4792 1 2.69262 5.43734 0.02 0 0 0 1 2
4791 1 2.67046 5.2257 0.02 0 0 0 1 2
4796 1 2.90754 5.63177 0.02 0 0 0 1 2
4795 1 2.89222 5.43171 0.02 0 0 0 1 2
4794 1 2.85985 5.23146 0.02 0 0 0 1 2
4800 1 2.09377 5.81132 0.02 0 5.89528e-11 -2.51965e-10 1 2
4802 1 2.11901 5.99766 0.02 0 4.25721e-08 -1.41448e-07 1 2
4801 1 1.91855 6.01246 0.02 0 1.32394e-08 -3.69395e-08 1 2
4799 1 1.8839 5.82225 0.02 0 6.24457e-12 -1.92362e-11 1 2
4805 1 2.32985 6.01262 0.02 0 8.00814e-08 -2.56523e-07 1 2
4804 1 2.51474 5.8373 0.02 0 1.54415e-10 -5.73097e-10 1 2
4806 1 2.54803 6.02674 0.02 0 1.18899e-07 -3.55029e-07 1 2
4803 1 2.3067 5.82959 0.02 0 9.80511e-11 -3.81768e-10 1 2
4807 1 2.71833 5.83416 0.02 0 2.70509e-10 -8.92875e-10 1 2
4809 1 2.75936 6.02306 0.02 0 1.10147e-07 -2.47751e-07 1 2
4810 1 2.97391 6.01525 0.02 0 2.23945e-07 -3.10968e-07 1 2
4808 1 2.9212 5.82955 0.02 0 3.55044e-10 -6.68315e-10 1 2
4816 1 2.17112 6.37171 0.02 0 9.49147e-05 -0.000149125 1 2
4814 1 2.14456 6.1851 0.02 0 5.14556e-06 -1.09235e-05 1 2
4815 1 1.96323 6.37909 0.02 0 6.56645e-05 -0.000123404 1 2
4813 1 1.93353 6.20041 0.02 0 2.50957e-06 -5.18509e-06 1 2
4818 1 2.57383 6.21412 0.02 0 1.03657e-05 -1.79167e-05 1 2
4819 1 2.37031 6.37702 0.02 0 0.000108244 -0.000141486 1 2
4820 1 2.56425 6.40804 0.02 0 0.000145953 -0.000194809 1 2
4817 1 2.36067 6.19252 0.02 0 7.41996e-06 -1.35203e-05 1 2
4823 1 2.75779 6.38682 0.02 0 0.000123503 -0.00016441 1 2
4824 1 2.96697 6.3837 0.02 0 0.000164684 -0.000191318 1 2
4747 1 1.71825 4.78246 0.02 0 0 0 1 2
4821 1 2.79148 6.20568 0.02 0 9.44603e-06 -1.52998e-05 1 2
4827 1 2.19621 6.75439 0.02 0 -0.00326435 0.00047511 1 2
4830 1 2.17279 6.55988 0.02 0 0.000358764 -0.000603403 1 2
4828 1 2.00708 6.72909 0.02 0 -0.00179639 2.5716e-05 1 2
4829 1 1.96117 6.5555 0.02 0 0.000459141 -0.000842605 1 2
4825 1 1.8114 6.76472 0.02 0 -0.0061856 0.00212094 1 2
4833 1 2.37915 6.5618 0.02 0 0.000204893 -0.000464718 1 2
4832 1 2.3895 6.7412 0.02 0 -0.00267511 0.000430553 1 2
4834 1 2.58782 6.59218 0.02 0 3.78695e-05 -0.000368717 1 2
4831 1 2.60621 6.77622 0.02 0 -0.00322794 0.000454301 1 2
4762 1 1.67057 5.19135 0.02 0 0 0 1 2
4836 1 2.81875 6.74923 0.02 0 -0.00244172 0.000508538 1 2
4837 1 2.79086 6.56796 0.02 0 0.00016313 -0.000377904 1 2
4761 1 1.6885 4.9823 0.02 0 0 0 1 2
9 2 2 7 0 0 0 0 1.00131 5
10 2 2.2 7 0 0 0 0 1.00007 5
11 2 2.4 7 0 0 0 0 1.00019 5
43 2 2 7.2 0 0 0 0 1.00065 5
44 2 2.2 7.2 0 0 0 0 1.00031 5
45 2 2.4 7.2 0 0 0 0 1.0012 5
12 2 2.6 7 0 0 0 0 1.0002 5
46 2 2.6 7.2 0 0 0 0 1.00047 5
13 2 2.8 7 0 0 0 0 0.998915 5
47 2 2.8 7.2 0 0 0 0 0.99795 5
113 2 2.4 7.6 0 0 0 0 1 5
145 2 2 7.8 0 0 0 0 1 5
79 2 2.4 7.4 0 0 0 0 1.00646 5
77 2 2 7.4 0 0 0 0 0.995402 5
78 2 2.2 7.4 0 0 0 0 0.99977 5
147 2 2.4 7.8 0 0 0 0 1 5
111 2 2 7.6 0 0 0 0 1 5
146 2 2.2 7.8 0 0 0 0 1 5
112 2 2.2 7.6 0 0 0 0 1 5
148 2 2.6 7.8 0 0 0 0 1 5
114 2 2.6 7.6 0 0 0 0 1 5
81 2 2.8 7.4 0 0 0 0 0.99521 5
115 2 2.8 7.6 0 0 0 0 1 5
80 2 2.6 7.4 0 0 0 0 1.00039 5
149 2 2.8 7.8 0 0 0 0 1 5
179 2 2 8 0 0 0 0 1 5
180 2 2.2 8 0 0 0 0 1 5
181 2 2.4 8 0 0 0 0 1 5
213 2 2 8.2 0 0 0 0 1 5
214 2 2.2 8.2 0 0 0 0 1 5
215 2 2.4 8.2 0 0 0 0 1 5
183 2 2.8 8 0 0 0 0 1 5
216 2 2.6 8.2 0 0 0 0 1 5
217 2 2.8 8.2 0 0 0 0 1 5
182 2 2.6 8 0 0 0 0 1 5
281 2 2 8.6 0 0 0 0 1 5
249 2 2.4 8.4 0 0 0 0 1 5
248 2 2.2 8.4 0 0 0 0 1 5
247 2 2 8.4 0 0 0 0 1 5
283 2 2.4 8.6 0 0 0 0 1 5
282 2 2.2 8.6 0 0 0 0 1 5
285 2 2.8 8.6 0 0 0 0 1 5
284 2 2.6 8.6 0 0 0 0 1 5
251 2 2.8 8.4 0 0 0 0 1 5
250 2 2.6 8.4 0 0 0 0 1 5
351 2 2.4 9 0 0 0 0 1 5
315 2 2 8.8 0 0 0 0 1 5
316 2 2.2 8.8 0 0 0 0 1 5
317 2 2.4 8.8 0 0 0 0 1 5
349 2 2 9 0 0 0 0 1 5
350 2 2.2 9 0 0 0 0 1 5
353 2 2.8 9 0 0 0 0 1 5
352 2 2.6 9 0 0 0 0 1 5
319 2 2.8 8.8 0 0 0 0 1 5
318 2 2.6 8.8 0 0 0 0 1 5
385 2 2.4 9.2 0 0 0 0 1 5
418 2 2.2 9.4 0 0 0 0 1 5
383 2 2 9.2 0 0 0 0 1 5
384 2 2.2 9.2 0 0 0 0 1 5
419 2 2.4 9.4 0 0 0 0 1 5
417 2 2 9.4 0 0 0 0 1 5
421 2 2.8 9.4 0 0 0 0 1 5
387 2 2.8 9.2 0 0 0 0 1 5
386 2 2.6 9.2 0 0 0 0 1 5
420 2 2.6 9.4 0 0 0 0 1 5
485 2 2 9.8 0 0 0 0 1 5
451 2 2 9.6 0 0 0 0 1 5
486 2 2.2 9.8 0 0 0 0 1 5
487 2 2.4 9.8 0 0 0 0 1 5
452 2 2.2 9.6 0 0 0 0 1 5
453 2 2.4 9.6 0 0 0 0 1 5
454 2 2.6 9.6 0 0 0 0 1 5
455 2 2.8 9.6 0 0 0 0 1 5
488 2 2.6 9.8 0 0 0 0 1 5
489 2 2.8 9.8 0 0 0 0 1 5
4587 1 1.75073 0.0152087 0.02 0 0 0 1 2
4826 1 1.75816 6.58449 0.02 0 -0.000134856 2.74955e-05 1 2
4588 1 1.78566 0.224259 0.02 0 0 0 1 2
4812 1 1.74419 6.4045 0.02 0 -8.53244e-08 1.50717e-08 1 2
4603 1 1.78277 0.434965 0.02 0 0 0 1 2
4604 1 1.7857 0.645737 0.02 0 0 0 1 2
4605 1 1.79334 0.853529 0.02 0 0 0 1 2
4619 1 1.77938 1.05801 0.02 0 0 0 1 2
4620 1 1.78121 1.26198 0.02 0 0 0 1 2
4636 1 1.73356 1.46151 0.02 0 0 0 1 2
4637 1 1.73986 1.66141 0.02 0 0 0 1 2
4746 1 1.74558 4.58718 0.02 0 0 0 1 2
4745 1 1.75795 4.39304 0.02 0 0 0 1 2
4650 1 1.77843 1.85478 0.02 0 0 0 1 2
4651 1 1.75623 2.04403 0.02 0 0 0 1 2
4811 1 1.72577 6.22219 0.02 0 0 0 1 2
4797 1 1.68367 5.83395 0.02 0 0 0 1 2
4798 1 1.71992 6.03142 0.02 0 0 0 1 2
4777 1 1.68939 5.40931 0.02 0 0 0 1 2
1583 2 3.2 -9.6 0 0 0 0 1 5
1582 2 3 -9.6 0 0 0 0 1 5
1549 2 3.2 -9.8 0 0 0 0 1 5
1548 2 3 -9.8 0 0 0 0 1 5
1515 2 3.2 -10 0 0 0 0 1 5
1514 2 3 -10 0 0 0 0 1 5
1584 2 3.4 -9.6 0 0 0 0 1 5
1550 2 3.4 -9.8 0 0 0 0 1 5
1516 2 3.4 -10 0 0 0 0 1 5
1586 2 3.8 -9.6 0 0 0 0 1 5
1585 2 3.6 -9.6 0 0 0 0 1 5
1552 2 3.8 -9.8 0 0 0 0 1 5
1551 2 3.6 -9.8 0 0 0 0 1 5
1518 2 3.8 -10 0 0 0 0 1 5
1517 2 3.6 -10 0 0 0 0 1 5
1588 2 4.2 -9.6 0 0 0 0 1 5
1587 2 4 -9.6 0 0 0 0 1 5
1554 2 4.2 -9.8 0 0 0 0 1 5
1553 2 4 -9.8 0 0 0 0 1 5
1520 2 4.2 -10 0 0 0 0 1 5
1519 2 4 -10 0 0 0 0 1 5
1616 2 3 -9.4 0 0 0 0 1 5
1617 2 3.2 -9.4 0 0 0 0 1 5
1651 2 3.2 -9.2 0 0 0 0 1 5
1650 2 3 -9.2 0 0 0 0 1 5
1652 2 3.4 -9.2 0 0 0 0 1 5
1618 2 3.4 -9.4 0 0 0 0 1 5
1653 2 3.6 -9.2 0 0 0 0 1 5
1654 2 3.8 -9.2 0 0 0 0 1 5
1620 2 3.8 -9.4 0 0 0 0 1 5
1619 2 3.6 -9.4 0 0 0 0 1 5
1622 2 4.2 -9.4 0 0 0 0 1 5
1655 2 4 -9.2 0 0 0 0 1 5
1656 2 4.2 -9.2 0 0 0 0 1 5
1621 2 4 -9.4 0 0 0 0 1 5
1719 2 3.2 -8.8 0 0 0 0 1 5
1718 2 3 -8.8 0 0 0 0 1 5
1685 2 3.2 -9 0 0 0 0 1 5
1684 2 3 -9 0 0 0 0 1 5
1686 2 3.4 -9 0 0 0 0 1 5
1720 2 3.4 -8.8 0 0 0 0 1 5
1687 2 3.6 -9 0 0 0 0 1 5
1688 2 3.8 -9 0 0 0 0 1 5
1721 2 3.6 -8.8 0 0 0 0 1 5
1722 2 3.8 -8.8 0 0 0 0 1 5
1689 2 4 -9 0 0 0 0 1 5
1690 2 4.2 -9 0 0 0 0 1 5
1723 2 4 -8.8 0 0 0 0 1 5
1724 2 4.2 -8.8 0 0 0 0 1 5
1752 2 3 -8.6 0 0 0 0 1 5
1753 2 3.2 -8.6 0 0 0 0 1 5
1786 2 3 -8.4 0 0 0 0 1 5
1787 2 3.2 -8.4 0 0 0 0 1 5
1754 2 3.4 -8.6 0 0 0 0 1 5
1788 2 3.4 -8.4 0 0 0 0 1 5
1755 2 3.6 -8.6 0 0 0 0 1 5
1756 2 3.8 -8.6 0 0 0 0 1 5
1789 2 3.6 -8.4 0 0 0 0 1 5
1790 2 3.8 -8.4 0 0 0 0 1 5
1757 2 4 -8.6 0 0 0 0 1 5
1758 2 4.2 -8.6 0 0 0 0 1 5
1791 2 4 -8.4 0 0 0 0 1 5
1792 2 4.2 -8.4 0 0 0 0 1 5
1820 2 3 -8.2 0 0 0 0 1 5
1821 2 3.2 -8.2 0 0 0 0 1 5
1854 2 3 -8 0 0 0 0 1 5
1855 2 3.2 -8 0 0 0 0 1 5
1822 2 3.4 -8.2 0 0 0 0 1 5
1856 2 3.4 -8 0 0 0 0 1 5
1823 2 3.6 -8.2 0 0 0 0 1 5
1824 2 3.8 -8.2 0 0 0 0 1 5
1857 2 3.6 -8 0 0 0 0 1 5
1858 2 3.8 -8 0 0 0 0 1 5
1825 2 4 -8.2 0 0 0 0 1 5
1826 2 4.2 -8.2 0 0 0 0 1 5
1859 2 4 -8 0 0 0 0 1 5
1860 2 4.2 -8 0 0 0 0 1 5
1888 2 3 -7.8 0 0 0 0 1 5
1889 2 3.2 -7.8 0 0 0 0 1 5
1922 2 3 -7.6 0 0 0 0 1 5
1923 2 3.2 -7.6 0 0 0 0 1 5
1956 2 3 -7.4 0 0 0 0 1.00129 5
1957 2 3.2 -7.4 0 0 0 0 0.99027 5
1890 2 3.4 -7.8 0 0 0 0 1 5
1924 2 3.4 -7.6 0 0 0 0 1 5
1958 2 3.4 -7.4 0 0 0 0 1.01343 5
1891 2 3.6 -7.8 0 0 0 0 1 5
1892 2 3.8 -7.8 0 0 0 0 1 5
1925 2 3.6 -7.6 0 0 0 0 1 5
1926 2 3.8 -7.6 0 0 0 0 1 5
1959 2 3.6 -7.4 0 0 0 0 1.00073 5
1960 2 3.8 -7.4 0 0 0 0 0.999501 5
1893 2 4 -7.8 0 0 0 0 1 5
1894 2 4.2 -7.8 0 0 0 0 1 5
1927 2 4 -7.6 0 0 0 0 1 5
1928 2 4.2 -7.6 0 0 0 0 1 5
1961 2 4 -7.4 0 0 0 0 1.00019 5
1962 2 4.2 -7.4 0 0 0 0 1.00145 5
1990 2 3 -7.2 0 0 0 0 0.997625 5
1991 2 3.2 -7.2 0 0 0 0 0.990528 5
2024 2 3 -7 0 0 0 0 0.996791 5
2025 2 3.2 -7 0 0 0 0 0.991726 5
1992 2 3.4 -7.2 0 0 0 0 1.01212 5
2026 2 3.4 -7 0 0 0 0 1.00972 5
1993 2 3.6 -7.2 0 0 0 0 1.00247 5
1994 2 3.8 -7.2 0 0 0 0 0.999684 5
2027 2 3.6 -7 0 0 0 0 1.00342 5
2028 2 3.8 -7 0 0 0 0 1.0005 5
1995 2 4 -7.2 0 0 0 0 1.00198 5
1996 2 4.2 -7.2 0 0 0 0 0.999209 5
2029 2 4 -7 0 0 0 0 1.00142 5
2030 2 4.2 -7 0 0 0 0 0.998657 5
4446 1 3.61144 -6.75162 0.02 0 -0.00406046 -0.000156819 1 2
4447 1 3.62433 -6.54926 0.02 0 -0.000415226 2.15882e-05 1 2
4445 1 4.00689 -6.5542 0.0187963 0 6.35189e-05 0.000441132 1 2
4443 1 3.93979 -6.74203 0.0161565 0 -0.00190941 -0.000425911 1 2
4442 1 3.78733 -6.72835 0.0170667 0 -0.000539276 -4.76626e-05 1 2
4444 1 3.81507 -6.54477 0.0195557 0 7.14761e-05 0.000397629 1 2
4448 1 4.0931 -6.74133 0.0160713 0 -0.00285123 -0.000630722 1 2
4450 1 4.20196 -6.56709 0.019117 0 -0.000237091 0.000452775 1 2
4449 1 4.23397 -6.75491 0.0150143 0 -0.00299663 -0.000431277 1 2
4451 1 4.38946 -6.5739 0.0191669 0 -0.000150748 0.000618362 1 2
4452 1 4.39327 -6.74948 0.0147947 0 -0.00103383 -0.000135271 1 2
4353 1 4.18427 -0.671329 0.02 0 -5.02522e-18 1.94048e-19 1 2
4370 1 4.37813 -1.06298 0.02 0 6.07382e-18 1.01574e-18 1 2
4463 1 3.62579 -6.35803 0.02 0 -3.90529e-05 1.18435e-05 1 2
4462 1 3.62798 -6.16727 0.02 0 -1.53003e-05 9.64287e-07 1 2
4459 1 4.0354 -6.36705 0.0194784 0 9.53854e-05 0.000158147 1 2
4461 1 4.03043 -6.1805 0.019775 0 1.13215e-05 2.09523e-05 1 2
4458 1 3.83443 -6.35816 0.0198166 0 2.94252e-05 0.000131074 1 2
4460 1 3.82663 -6.16827 0.0199266 0 -1.48865e-05 1.11977e-05 1 2
4464 1 4.23118 -6.38798 0.0194479 0 9.43203e-05 0.00022705 1 2
4760 1 3.05855 -5.75702 0.02 0 7.93762e-12 1.44189e-11 1 2
4465 1 4.42947 -6.38895 0.0195193 0 0.000110826 0.000420595 1 2
4466 1 4.24596 -6.20569 0.0197012 0 9.23799e-06 3.44803e-05 1 2
4339 1 4.00947 -0.232612 0.02 0 1.0089e-19 -1.97559e-19 1 2
4343 1 3.78532 -0.380407 0.02 0 -1.73929e-20 1.41216e-20 1 2
4477 1 3.66848 -5.78448 0.02 0 -2.60336e-06 4.07634e-08 1 2
4478 1 3.62715 -5.9733 0.02 0 -6.57718e-06 -3.44682e-07 1 2
4479 1 4.08843 -5.80453 0.0199588 0 -6.42289e-06 5.96421e-07 1 2
4475 1 4.03254 -5.99115 0.0198994 0 -3.7878e-07 2.26562e-06 1 2
4476 1 3.88088 -5.79188 0.0199833 0 -3.11569e-06 5.77512e-07 1 2
4474 1 3.82864 -5.97613 0.0199695 0 -8.54072e-06 -2.03233e-08 1 2
4480 1 4.23382 -6.02123 0.0198498 0 1.0179e-08 1.8982e-06 1 2
4340 1 3.98271 -0.0243134 0.02 0 -1.75913e-18 3.78541e-19 1 2
4482 1 4.28878 -5.83465 0.0199178 0 7.59267e-06 5.29237e-07 1 2
4481 1 4.44022 -6.01537 0.019892 0 -1.38957e-05 6.11545e-06 1 2