ITEM: TIMESTEP
45000
ITEM: NUMBER OF ATOMS
1030
ITEM: BOX BOUNDS ff ff pp
0.0000000000000000e+00 4.4000000000000004e+00
-1.0000000000000000e+01 1.0000000000000000e+01
-2.0000000000000000e-02 2.0000000000000000e-02
ITEM: ATOMS id type x y vx vy fx fy c_den c_phase
1509 2 2 -10 0 0 0 0 1 5
1510 2 2.2 -10 0 0 0 0 1 5
1511 2 2.4 -10 0 0 0 0 1 5
1543 2 2 -9.8 0 0 0 0 1 5
1544 2 2.2 -9.8 0 0 0 0 1 5
1545 2 2.4 -9.8 0 0 0 0 1 5
1577 2 2 -9.6 0 0 0 0 1 5
1578 2 2.2 -9.6 0 0 0 0 1 5
1579 2 2.4 -9.6 0 0 0 0 1 5
1512 2 2.6 -10 0 0 0 0 1 5
1513 2 2.8 -10 0 0 0 0 1 5
1546 2 2.6 -9.8 0 0 0 0 1 5
1547 2 2.8 -9.8 0 0 0 0 1 5
1580 2 2.6 -9.6 0 0 0 0 1 5
1581 2 2.8 -9.6 0 0 0 0 1 5
1645 2 2 -9.2 0 0 0 0 1 5
1646 2 2.2 -9.2 0 0 0 0 1 5
1647 2 2.4 -9.2 0 0 0 0 1 5
1613 2 2.4 -9.4 0 0 0 0 1 5
1612 2 2.2 -9.4 0 0 0 0 1 5
1611 2 2 -9.4 0 0 0 0 1 5
1648 2 2.6 -9.2 0 0 0 0 1 5
1649 2 2.8 -9.2 0 0 0 0 1 5
1615 2 2.8 -9.4 0 0 0 0 1 5
1614 2 2.6 -9.4 0 0 0 0 1 5
1679 2 2 -9 0 0 0 0 1 5
1680 2 2.2 -9 0 0 0 0 1 5
1681 2 2.4 -9 0 0 0 0 1 5
1713 2 2 -8.8 0 0 0 0 1 5
1714 2 2.2 -8.8 0 0 0 0 1 5
1715 2 2.4 -8.8 0 0 0 0 1 5
1682 2 2.6 -9 0 0 0 0 1 5
1683 2 2.8 -9 0 0 0 0 1 5
1716 2 2.6 -8.8 0 0 0 0 1 5
1717 2 2.8 -8.8 0 0 0 0 1 5
1783 2 2.4 -8.4 0 0 0 0 1 5
1782 2 2.2 -8.4 0 0 0 0 1 5
1781 2 2 -8.4 0 0 0 0 1 5
1747 2 2 -8.6 0 0 0 0 1 5
1748 2 2.2 -8.6 0 0 0 0 1 5
1749 2 2.4 -8.6 0 0 0 0 1 5
1785 2 2.8 -8.4 0 0 0 0 1 5
1784 2 2.6 -8.4 0 0 0 0 1 5
1750 2 2.6 -8.6 0 0 0 0 1 5
1751 2 2.8 -8.6 0 0 0 0 1 5
1851 2 2.4 -8 0 0 0 0 1 5
1850 2 2.2 -8 0 0 0 0 1 5
1849 2 2 -8 0 0 0 0 1 5
1817 2 2.4 -8.2 0 0 0 0 1 5
1816 2 2.2 -8.2 0 0 0 0 1 5
1815 2 2 -8.2 0 0 0 0 1 5
1853 2 2.8 -8 0 0 0 0 1 5
1852 2 2.6 -8 0 0 0 0 1 5
1819 2 2.8 -8.2 0 0 0 0 1 5
1818 2 2.6 -8.2 0 0 0 0 1 5
1953 2 2.4 -7.4 0 0 0 0 0.999584 5
1952 2 2.2 -7.4 0 0 0 0 0.999575 5
1951 2 2 -7.4 0 0 0 0 1.01075 5
1919 2 2.4 -7.6 0 0 0 0 1 5
1918 2 2.2 -7.6 0 0 0 0 1 5
1917 2 2 -7.6 0 0 0 0 1 5
1885 2 2.4 -7.8 0 0 0 0 1 5
1884 2 2.2 -7.8 0 0 0 0 1 5
1883 2 2 -7.8 0 0 0 0 1 5
1955 2 2.8 -7.4 0 0 0 0 1.00245 5
1954 2 2.6 -7.4 0 0 0 0 0.999388 5
1921 2 2.8 -7.6 0 0 0 0 1 5
1920 2 2.6 -7.6 0 0 0 0 1 5
1887 2 2.8 -7.8 0 0 0 0 1 5
1886 2 2.6 -7.8 0 0 0 0 1 5
2021 2 2.4 -7 0 0 0 0 1.00023 5
2020 2 2.2 -7 0 0 0 0 1.00353 5
2019 2 2 -7 0 0 0 0 1.01071 5
1987 2 2.4 -7.2 0 0 0 0 0.99982 5
1986 2 2.2 -7.2 0 0 0 0 1.00296 5
1985 2 2 -7.2 0 0 0 0 1.01102 5
2023 2 2.8 -7 0 0 0 0 1.0006 5
2022 2 2.6 -7 0 0 0 0 0.999929 5
1989 2 2.8 -7.2 0 0 0 0 1.00143 5
1988 2 2.6 -7.2 0 0 0 0 0.99983 5
4188 1 2.19102 -6.74338 0.02 0 -0.00321462 -0.000213134 1 2
4189 1 2.14849 -6.5613 0.02 0 -0.000784733 -0.000143111 1 2
4191 1 2.58777 -6.73868 0.02 0 -0.00257114 -0.000445918 1 2
4193 1 2.54944 -6.55789 0.02 0 0.000277764 0.000499021 1 2
4190 1 2.39236 -6.74376 0.02 0 -0.00238701 -0.000369269 1 2
4192 1 2.34494 -6.55905 0.02 0 0.000508718 0.000514101 1 2
4196 1 2.75378 -6.54776 0.02 0 0.00023626 0.000449923 1 2
4194 1 2.78341 -6.73962 0.02 0 -0.00283519 -0.000537224 1 2
4197 1 2.94911 -6.57768 0.02 0 0.000174032 0.000498177 1 2
4086 1 2.36949 -0.0724624 0.02 0 0 0 1 2
4101 1 2.2448 -0.481695 0.02 0 0 0 1 2
4087 1 2.21871 -0.280143 0.02 0 0 0 1 2
4203 1 2.00427 -6.14001 0.02 0 0 0 1 2
4202 1 2.18099 -6.37302 0.02 0 6.61946e-05 5.55166e-05 1 2
4204 1 2.18328 -6.17699 0.02 0 2.73587e-06 6.8156e-06 1 2
4206 1 2.58711 -6.37301 0.02 0 9.6419e-05 0.000136471 1 2
4208 1 2.56489 -6.17868 0.02 0 5.38978e-06 1.05452e-05 1 2
4205 1 2.38614 -6.37279 0.02 0 0.000160869 0.000177064 1 2
4207 1 2.37108 -6.17854 0.02 0 8.86039e-06 1.67887e-05 1 2
4209 1 2.77955 -6.34968 0.02 0 6.75928e-05 0.000103407 1 2
4211 1 2.76258 -6.15582 0.02 0 3.13468e-06 6.37445e-06 1 2
4212 1 2.96296 -6.18703 0.02 0 5.72268e-06 1.16214e-05 1 2
4085 1 2.41319 -0.283804 0.02 0 0 0 1 2
4105 1 2.07151 -0.689049 0.02 0 0 0 1 2
4104 1 2.03826 -0.498796 0.02 0 0 0 1 2
4219 1 2.22005 -5.97061 0.02 0 1.0235e-08 5.47626e-08 1 2
4220 1 2.2297 -5.7563 0.02 0 1.19752e-12 1.0642e-11 1 2
4217 1 2.0393 -5.9255 0.02 0 0 0 1 2
4218 1 2.04518 -5.71264 0.02 0 0 0 1 2
4222 1 2.59762 -5.97288 0.02 0 1.0105e-08 4.85274e-08 1 2
4224 1 2.61915 -5.76461 0.02 0 1.65274e-12 1.29814e-11 1 2
4223 1 2.4212 -5.77886 0.02 0 5.45111e-12 3.24186e-11 1 2
4221 1 2.40843 -5.98028 0.02 0 1.87422e-08 8.08137e-08 1 2
4227 1 2.81955 -5.77335 0.02 0 2.96621e-12 1.39009e-11 1 2
4225 1 2.79175 -5.96398 0.02 0 7.34265e-09 3.55204e-08 1 2
4083 1 2.60971 -0.299114 0.02 0 0 0 1 2
4129 1 2.87138 -1.32789 0.02 0 0 0 1 2
4089 1 2.02243 -0.305215 0.02 0 0 0 1 2
4096 1 2.84727 -0.51103 0.02 0 -1.77973e-25 5.88657e-26 1 2
4235 1 2.28048 -5.54901 0.02 0 0 0 1 2
4236 1 2.30996 -5.33819 0.02 0 0 0 1 2
4234 1 2.12022 -5.3037 0.02 0 0 0 1 2
4233 1 2.09651 -5.50855 0.02 0 0 0 1 2
4238 1 2.66003 -5.56123 0.02 0 0 0 1 2
4239 1 2.49778 -5.36188 0.02 0 0 0 1 2
4237 1 2.4664 -5.57536 0.02 0 0 0 1 2
4240 1 2.69157 -5.36116 0.02 0 0 0 1 2
4116 1 2.49832 -1.0892 0.02 0 0 0 1 2
4111 1 2.68521 -0.914924 0.02 0 0 0 1 2
4088 1 2.17392 -0.0795721 0.02 0 0 0 1 2
4241 1 2.86129 -5.58549 0.02 0 0 0 1 2
4243 1 2.88752 -5.39151 0.02 0 0 0 1 2
4097 1 2.85199 -0.72061 0.02 0 -1.55e-24 2.70735e-26 1 2
4130 1 2.88037 -1.51812 0.02 0 0 0 1 2
4080 1 2.9607 -0.0929741 0.02 0 -4.02808e-28 3.79918e-28 1 2
4251 1 2.33699 -5.12959 0.02 0 0 0 1 2
4249 1 2.14529 -5.10115 0.02 0 0 0 1 2
4250 1 2.16806 -4.90474 0.02 0 0 0 1 2
4254 1 2.57063 -4.95315 0.02 0 0 0 1 2
4253 1 2.5288 -5.15335 0.02 0 0 0 1 2
4252 1 2.37168 -4.92745 0.02 0 0 0 1 2
4255 1 2.72518 -5.16139 0.02 0 0 0 1 2
4256 1 2.76928 -4.96268 0.02 0 0 0 1 2
4258 1 2.96377 -4.99741 0.02 0 0 0 1 2
4257 1 2.91921 -5.1935 0.02 0 0 0 1 2
4131 1 2.85462 -1.70275 0.02 0 0 0 1 2
4084 1 2.56744 -0.0964376 0.02 0 0 0 1 2
4119 1 2.22775 -1.26511 0.02 0 0 0 1 2
4264 1 2.17447 -4.71094 0.02 0 0 0 1 2
4265 1 2.19742 -4.51876 0.02 0 0 0 1 2
4267 1 2.58533 -4.75478 0.02 0 0 0 1 2
4269 1 2.60381 -4.55712 0.02 0 0 0 1 2
4270 1 2.61595 -4.35425 0.02 0 0 0 1 2
4266 1 2.38006 -4.7287 0.02 0 0 0 1 2
4268 1 2.40289 -4.53358 0.02 0 0 0 1 2
4273 1 2.81175 -4.36274 0.02 0 0 0 1 2
4272 1 2.80352 -4.56589 0.02 0 0 0 1 2
4271 1 2.79258 -4.76495 0.02 0 0 0 1 2
4137 1 2.42024 -1.65096 0.02 0 0 0 1 2
4135 1 2.46107 -1.4638 0.02 0 0 0 1 2
4114 1 2.28131 -0.883943 0.02 0 0 0 1 2
4102 1 2.46769 -0.694672 0.02 0 0 0 1 2
4281 1 2.03034 -4.15656 0.02 0 0 0 1 2
4282 1 2.0099 -3.96594 0.02 0 0 0 1 2
4285 1 2.22953 -4.12904 0.02 0 0 0 1 2
4284 1 2.21581 -3.93422 0.02 0 0 0 1 2
4283 1 2.21222 -4.32599 0.02 0 0 0 1 2
4280 1 2.00085 -4.34395 0.02 0 0 0 1 2
4289 1 2.62084 -4.14825 0.02 0 0 0 1 2
4290 1 2.61545 -3.94283 0.02 0 0 0 1 2
4286 1 2.41698 -4.33796 0.02 0 0 0 1 2
4287 1 2.42622 -4.1395 0.02 0 0 0 1 2
4288 1 2.41803 -3.93728 0.02 0 0 0 1 2
4292 1 2.80845 -3.95193 0.02 0 0 0 1 2
4291 1 2.81426 -4.15779 0.02 0 0 0 1 2
4134 1 2.63674 -1.70025 0.02 0 0 0 1 2
4133 1 2.66621 -1.51462 0.02 0 0 0 1 2
4100 1 2.44708 -0.491176 0.02 0 0 0 1 2
4098 1 2.649 -0.499468 0.02 0 0 0 1 2
4300 1 2.17884 -3.5496 0.02 0 0 0 1 2
4299 1 2.18575 -3.74318 0.02 0 0 0 1 2
4303 1 2.58538 -3.74195 0.02 0 0 0 1 2
4304 1 2.58262 -3.54369 0.02 0 0 0 1 2
4301 1 2.3871 -3.73511 0.02 0 0 0 1 2
4302 1 2.3807 -3.53322 0.02 0 0 0 1 2
4306 1 2.78418 -3.54222 0.02 0 0 0 1 2
4305 1 2.78281 -3.74597 0.02 0 0 0 1 2
4132 1 2.66185 -1.32115 0.02 0 0 0 1 2
4138 1 2.20553 -1.64077 0.02 0 0 0 1 2
4112 1 2.88819 -1.13027 0.02 0 -6.10528e-28 -4.51057e-28 1 2
4099 1 2.66192 -0.704063 0.02 0 0 0 1 2
4314 1 2.12353 -3.1616 0.02 0 0 0 1 2
4316 1 2.32831 -3.1386 0.02 0 0 0 1 2
4313 1 2.1723 -3.3537 0.02 0 0 0 1 2
4317 1 2.56468 -3.34465 0.02 0 0 0 1 2
4318 1 2.53503 -3.14456 0.02 0 0 0 1 2
4315 1 2.36801 -3.33242 0.02 0 0 0 1 2
4320 1 2.73641 -3.14248 0.02 0 0 0 1 2
4319 1 2.76118 -3.34102 0.02 0 0 0 1 2
4322 1 2.9383 -3.14374 0.02 0 0 0 1 2
4321 1 2.96017 -3.34061 0.02 0 0 0 1 2
4117 1 2.29109 -1.08101 0.02 0 0 0 1 2
4120 1 2.07315 -0.880388 0.02 0 0 0 1 2
4187 1 2.06018 -2.97151 0.02 0 0 0 1 2
4185 1 2.26595 -2.95471 0.02 0 0 0 1 2
4184 1 2.23087 -2.76671 0.02 0 0 0 1 2
4186 1 2.02069 -2.77829 0.02 0 0 0 1 2
4181 1 2.65599 -2.76974 0.02 0 0 0 1 2
4183 1 2.48477 -2.95552 0.02 0 0 0 1 2
4182 1 2.4438 -2.76904 0.02 0 0 0 1 2
4180 1 2.70625 -2.9526 0.02 0 0 0 1 2
4179 1 2.92647 -2.95253 0.02 0 0 0 1 2
4122 1 2.01522 -1.24645 0.02 0 0 0 1 2
4178 1 2.86945 -2.77054 0.02 0 0 0 1 2
4110 1 2.88188 -0.926908 0.02 0 -1.01464e-24 -3.5784e-25 1 2
4113 1 2.69281 -1.12456 0.02 0 0 0 1 2
4081 1 2.80587 -0.304242 0.02 0 -9.61973e-29 3.54571e-29 1 2
4171 1 2.07445 -2.20346 0.02 0 0 0 1 2
4166 1 2.28228 -2.20619 0.02 0 0 0 1 2
4170 1 2.20767 -2.57686 0.02 0 0 0 1 2
4172 1 2.13456 -2.39263 0.02 0 0 0 1 2
4164 1 2.64063 -2.58308 0.02 0 0 0 1 2
4167 1 2.57397 -2.40325 0.02 0 0 0 1 2
4165 1 2.49689 -2.22235 0.02 0 0 0 1 2
4169 1 2.42119 -2.57956 0.02 0 0 0 1 2
4168 1 2.35187 -2.39382 0.02 0 0 0 1 2
4162 1 2.80783 -2.40871 0.02 0 0 0 1 2
4160 1 2.72513 -2.24618 0.02 0 0 0 1 2
4136 1 2.24867 -1.45465 0.02 0 0 0 1 2
4140 1 2.00231 -1.62788 0.02 0 0 0 1 2
4121 1 2.07688 -1.06698 0.02 0 0 0 1 2
4163 1 2.86543 -2.58621 0.02 0 0 0 1 2
4103 1 2.27109 -0.682318 0.02 0 0 0 1 2
4082 1 2.76433 -0.0965164 0.02 0 0 0 1 2
4154 1 2.07537 -2.01108 0.02 0 0 0 1 2
4152 1 2.29215 -2.01605 0.02 0 0 0 1 2
4150 1 2.25993 -1.82759 0.02 0 0 0 1 2
4153 1 2.04468 -1.82201 0.02 0 0 0 1 2
4146 1 2.68899 -1.88635 0.02 0 0 0 1 2
4151 1 2.5097 -2.03552 0.02 0 0 0 1 2
4149 1 2.47124 -1.8448 0.02 0 0 0 1 2
4148 1 2.73242 -2.06858 0.02 0 0 0 1 2
4147 1 2.94363 -2.06957 0.02 0 0 0 1 2
4145 1 2.90588 -1.88483 0.02 0 0 0 1 2
4118 1 2.4467 -1.27452 0.02 0 0 0 1 2
4115 1 2.48529 -0.893822 0.02 0 0 0 1 2
4139 1 2.03178 -1.43625 0.02 0 0 0 1 2
4077 1 2.33029 0.140437 0.02 0 0 0 1 2
4078 1 2.28917 0.351439 0.02 0 0 0 1 2
4075 1 2.09794 0.322981 0.02 0 0 0 1 2
4076 1 2.13863 0.121934 0.02 0 0 0 1 2
4082 1 2.67587 0.318924 0.02 0 0 0 1 2
4080 1 2.52353 0.109445 0.02 0 0 0 1 2
4079 1 2.48223 0.32238 0.02 0 0 0 1 2
4081 1 2.71835 0.1108 0.02 0 0 0 1 2
282 2 2.2 8.6 0 0 0 0 1 5
4083 1 2.9208 0.103792 0.02 0 0 0 1 2
4084 1 2.87893 0.296989 0.02 0 0 0 1 2
349 2 2 9 0 0 0 0 1 5
489 2 2.8 9.8 0 0 0 0 1 5
4091 1 2.26504 0.559983 0.02 0 0 0 1 2
4092 1 2.25746 0.764451 0.02 0 0 0 1 2
4089 1 2.07469 0.52816 0.02 0 0 0 1 2
4090 1 2.06334 0.737242 0.02 0 0 0 1 2
4095 1 2.65166 0.526829 0.02 0 0 0 1 2
4096 1 2.65783 0.727817 0.02 0 0 0 1 2
4093 1 2.45776 0.537004 0.02 0 0 0 1 2
4094 1 2.45624 0.747367 0.02 0 0 0 1 2
283 2 2.4 8.6 0 0 0 0 1 5
247 2 2 8.4 0 0 0 0 1 5
4098 1 2.8673 0.684385 0.02 0 -3.17122e-24 -9.55758e-25 1 2
4097 1 2.85117 0.491928 0.02 0 -5.46515e-28 -3.48292e-28 1 2
81 2 2.8 7.4 0 0 0 0 1.00163 5
488 2 2.6 9.8 0 0 0 0 1 5
455 2 2.8 9.6 0 0 0 0 1 5
417 2 2 9.4 0 0 0 0 1 5
4108 1 2.26117 0.968169 0.02 0 0 0 1 2
4109 1 2.23822 1.17329 0.02 0 0 0 1 2
4106 1 2.07 0.95141 0.02 0 0 0 1 2
4107 1 2.05611 1.17555 0.02 0 0 0 1 2
4112 1 2.64013 0.935526 0.02 0 0 0 1 2
4113 1 2.61104 1.15576 0.02 0 0 0 1 2
4110 1 2.45195 0.958969 0.02 0 0 0 1 2
4111 1 2.42467 1.17493 0.02 0 0 0 1 2
4115 1 2.79584 1.099 0.02 0 -4.79091e-27 1.21668e-27 1 2
4114 1 2.83166 0.886083 0.02 0 -2.47276e-24 1.11577e-25 1 2
114 2 2.6 7.6 0 0 0 0 1 5
148 2 2.6 7.8 0 0 0 0 1 5
317 2 2.4 8.8 0 0 0 0 1 5
316 2 2.2 8.8 0 0 0 0 1 5
4125 1 2.23364 1.38065 0.02 0 0 0 1 2
4122 1 2.02173 1.63873 0.02 0 0 0 1 2
4123 1 2.04595 1.40367 0.02 0 0 0 1 2
4124 1 2.20032 1.58808 0.02 0 0 0 1 2
4128 1 2.58217 1.59281 0.02 0 0 0 1 2
4129 1 2.61058 1.37266 0.02 0 0 0 1 2
4126 1 2.42384 1.38823 0.02 0 0 0 1 2
4127 1 2.39021 1.59472 0.02 0 0 0 1 2
4130 1 2.7934 1.31158 0.02 0 -7.22527e-29 3.26026e-29 1 2
4134 1 2.77449 1.73592 0.02 0 0 0 1 2
4131 1 2.76848 1.52866 0.02 0 0 0 1 2
149 2 2.8 7.8 0 0 0 0 1 5
4132 1 2.9573 1.51884 0.02 0 -4.90285e-29 5.60885e-29 1 2
315 2 2 8.8 0 0 0 0 1 5
351 2 2.4 9 0 0 0 0 1 5
4141 1 2.21337 1.80296 0.02 0 0 0 1 2
4142 1 2.25762 2.01865 0.02 0 0 0 1 2
4139 1 2.03799 1.86503 0.02 0 0 0 1 2
4140 1 2.07597 2.07346 0.02 0 0 0 1 2
4146 1 2.63749 2.01884 0.02 0 0 0 1 2
4145 1 2.59377 1.80808 0.02 0 0 0 1 2
4144 1 2.44643 2.00471 0.02 0 0 0 1 2
4143 1 2.4017 1.80049 0.02 0 0 0 1 2
4147 1 2.81347 1.93935 0.02 0 0 0 1 2
80 2 2.6 7.4 0 0 0 0 0.997158 5
4148 1 2.82975 2.15472 0.02 0 0 0 1 2
79 2 2.4 7.4 0 0 0 0 1.00216 5
418 2 2.2 9.4 0 0 0 0 1 5
385 2 2.4 9.2 0 0 0 0 1 5
4157 1 2.28215 2.23665 0.02 0 0 0 1 2
4158 1 2.31489 2.4519 0.02 0 0 0 1 2
4156 1 2.12758 2.48051 0.02 0 0 0 1 2
4155 1 2.1001 2.27936 0.02 0 0 0 1 2
4161 1 2.65406 2.2322 0.02 0 0 0 1 2
4162 1 2.68698 2.43845 0.02 0 0 0 1 2
4160 1 2.49888 2.43239 0.02 0 0 0 1 2
4159 1 2.4656 2.21508 0.02 0 0 0 1 2
248 2 2.2 8.4 0 0 0 0 1 5
249 2 2.4 8.4 0 0 0 0 1 5
4163 1 2.86184 2.37575 0.02 0 0 0 1 2
383 2 2 9.2 0 0 0 0 1 5
4170 1 2.12752 2.89132 0.02 0 0 0 1 2
4171 1 2.33431 2.66472 0.02 0 0 0 1 2
4172 1 2.31622 2.87356 0.02 0 0 0 1 2
4169 1 2.14612 2.68252 0.02 0 0 0 1 2
4177 1 2.68129 2.84278 0.02 0 0 0 1 2
4173 1 2.50315 2.89397 0.02 0 0 0 1 2
4174 1 2.51587 2.65796 0.02 0 0 0 1 2
4176 1 2.70137 2.6405 0.02 0 0 0 1 2
281 2 2 8.6 0 0 0 0 1 5
217 2 2.8 8.2 0 0 0 0 1 5
4178 1 2.86985 2.84689 0.02 0 0 0 1 2
4175 1 2.88311 2.60998 0.02 0 0 0 1 2
419 2 2.4 9.4 0 0 0 0 1 5
384 2 2.2 9.2 0 0 0 0 1 5
4185 1 2.01855 3.35595 0.02 0 0 0 1 2
4187 1 2.2041 3.30812 0.02 0 0 0 1 2
4186 1 2.1719 3.09781 0.02 0 0 0 1 2
4191 1 2.58002 3.3474 0.02 0 0 0 1 2
4190 1 2.54327 3.12675 0.02 0 0 0 1 2
4188 1 2.35906 3.08041 0.02 0 0 0 1 2
4189 1 2.39259 3.29354 0.02 0 0 0 1 2
4194 1 2.74889 3.28011 0.02 0 0 0 1 2
4192 1 2.70986 3.05132 0.02 0 0 0 1 2
4195 1 2.92908 3.27341 0.02 0 0 0 1 2
350 2 2.2 9 0 0 0 0 1 5
4193 1 2.89268 3.06864 0.02 0 0 0 1 2
454 2 2.6 9.6 0 0 0 0 1 5
453 2 2.4 9.6 0 0 0 0 1 5
4200 1 2.05366 3.55878 0.02 0 0 0 1 2
4204 1 2.23026 3.74968 0.02 0 0 0 1 2
4202 1 2.23671 3.52209 0.02 0 0 0 1 2
4201 1 2.04186 3.75976 0.02 0 0 0 1 2
4207 1 2.60439 3.76357 0.02 0 0 0 1 2
4206 1 2.60472 3.55939 0.02 0 0 0 1 2
4203 1 2.42047 3.50721 0.02 0 0 0 1 2
4205 1 2.41353 3.71909 0.02 0 0 0 1 2
4210 1 2.79439 3.73884 0.02 0 0 0 1 2
4208 1 2.78356 3.51595 0.02 0 0 0 1 2
4209 1 2.96244 3.47924 0.02 0 0 0 1 2
113 2 2.4 7.6 0 0 0 0 1 5
112 2 2.2 7.6 0 0 0 0 1 5
250 2 2.6 8.4 0 0 0 0 1 5
251 2 2.8 8.4 0 0 0 0 1 5
4218 1 2.06934 3.95522 0.02 0 0 0 1 2
4219 1 2.08104 4.15607 0.02 0 0 0 1 2
4222 1 2.27166 4.19144 0.02 0 0 0 1 2
4220 1 2.25816 3.97523 0.02 0 0 0 1 2
4225 1 2.64965 4.1655 0.02 0 0 0 1 2
4224 1 2.6349 3.96574 0.02 0 0 0 1 2
4223 1 2.45565 4.14189 0.02 0 0 0 1 2
4221 1 2.4397 3.92883 0.02 0 0 0 1 2
4226 1 2.83277 3.9389 0.02 0 0 0 1 2
4228 1 2.89065 4.31663 0.02 0 0 0 1 2
4227 1 2.84872 4.13294 0.02 0 0 0 1 2
216 2 2.6 8.2 0 0 0 0 1 5
284 2 2.6 8.6 0 0 0 0 1 5
318 2 2.6 8.8 0 0 0 0 1 5
452 2 2.2 9.6 0 0 0 0 1 5
4234 1 2.09816 4.36803 0.02 0 0 0 1 2
4235 1 2.12358 4.58004 0.02 0 0 0 1 2
4236 1 2.12781 4.77927 0.02 0 0 0 1 2
4237 1 2.29074 4.39539 0.02 0 0 0 1 2
4239 1 2.32739 4.58754 0.02 0 0 0 1 2
4243 1 2.68088 4.35714 0.02 0 0 0 1 2
4242 1 2.56042 4.75335 0.02 0 0 0 1 2
4240 1 2.52976 4.56063 0.02 0 0 0 1 2
4238 1 2.48088 4.35765 0.02 0 0 0 1 2
4241 1 2.34492 4.77476 0.02 0 0 0 1 2
4244 1 2.73813 4.53888 0.02 0 0 0 1 2
4246 1 2.7728 4.7225 0.02 0 0 0 1 2
4245 1 2.94634 4.49297 0.02 0 0 0 1 2
111 2 2 7.6 0 0 0 0 1 5
285 2 2.8 8.6 0 0 0 0 1 5
319 2 2.8 8.8 0 0 0 0 1 5
4253 1 2.12119 5.14919 0.02 0 0 0 1 2
4252 1 2.13368 4.96928 0.02 0 0 0 1 2
4255 1 2.55785 4.94057 0.02 0 0 0 1 2
4257 1 2.64923 5.10028 0.02 0 0 0 1 2
4256 1 2.38052 5.13246 0.02 0 0 0 1 2
4254 1 2.34154 4.9585 0.02 0 0 0 1 2
4258 1 2.78557 4.90888 0.02 0 0 0 1 2
147 2 2.4 7.8 0 0 0 0 1 5
4260 1 2.89577 5.07085 0.02 0 0 0 1 2
183 2 2.8 8 0 0 0 0 1 5
182 2 2.6 8 0 0 0 0 1 5
352 2 2.6 9 0 0 0 0 1 5
487 2 2.4 9.8 0 0 0 0 1 5
4267 1 2.08984 5.3287 0.02 0 0 0 1 2
4270 1 2.29792 5.30362 0.02 0 0 0 1 2
4268 1 2.15005 5.49934 0.02 0 0 0 1 2
4274 1 2.63352 5.5976 0.02 0 0 0 1 2
4273 1 2.62496 5.41768 0.02 0 0 0 1 2
4269 1 2.5311 5.25975 0.02 0 0 0 1 2
4271 1 2.39474 5.46373 0.02 0 0 0 1 2
4272 1 2.40685 5.64006 0.02 0 0 0 1 2
4275 1 2.79078 5.22991 0.02 0 0 0 1 2
4276 1 2.85493 5.39255 0.02 0 0 0 1 2
4277 1 2.85671 5.57103 0.02 0 0 0 1 2
215 2 2.4 8.2 0 0 0 0 1 5
214 2 2.2 8.2 0 0 0 0 1 5
486 2 2.2 9.8 0 0 0 0 1 5
451 2 2 9.6 0 0 0 0 1 5
4284 1 2.05804 6.0382 0.02 0 0 0 1 2
4285 1 2.2704 6.00123 0.02 0 6.48557e-08 -1.51403e-07 1 2
4283 1 2.17336 5.84238 0.02 0 2.0882e-10 -6.45922e-10 1 2
4282 1 2.17925 5.66804 0.02 0 0 0 1 2
4287 1 2.6185 5.78177 0.02 0 7.04222e-12 -4.42049e-11 1 2
4289 1 2.68332 5.965 0.02 0 8.08109e-09 -2.24202e-08 1 2
4288 1 2.48283 5.99035 0.02 0 3.48386e-08 -9.04566e-08 1 2
4286 1 2.40238 5.81872 0.02 0 5.01364e-11 -1.86262e-10 1 2
4290 1 2.83279 5.75112 0.02 0 1.15974e-12 -6.64602e-12 1 2
213 2 2 8.2 0 0 0 0 1 5
181 2 2.4 8 0 0 0 0 1 5
4292 1 2.88075 5.933 0.02 0 1.91511e-09 -5.26921e-09 1 2
485 2 2 9.8 0 0 0 0 1 5
386 2 2.6 9.2 0 0 0 0 1 5
4300 1 2.32963 6.17676 0.02 0 6.43218e-06 -1.30444e-05 1 2
4301 1 2.33294 6.3623 0.02 0 0.000113226 -0.000166596 1 2
4298 1 2.1173 6.20909 0.02 0 9.93441e-06 -1.1768e-05 1 2
4299 1 2.13177 6.38872 0.02 0 0.000207498 -0.000151131 1 2
4303 1 2.53127 6.36822 0.02 0 8.61985e-05 -0.000154126 1 2
4302 1 2.53267 6.17626 0.02 0 4.72305e-06 -1.15968e-05 1 2
4304 1 2.72268 6.1625 0.02 0 3.44191e-06 -8.85867e-06 1 2
4305 1 2.7277 6.36025 0.02 0 7.63174e-05 -0.000147604 1 2
4307 1 2.91341 6.34544 0.02 0 6.29977e-05 -0.00011821 1 2
4306 1 2.90336 6.13043 0.02 0 1.80804e-06 -4.61024e-06 1 2
180 2 2.2 8 0 0 0 0 1 5
179 2 2 8 0 0 0 0 1 5
387 2 2.8 9.2 0 0 0 0 1 5
421 2 2.8 9.4 0 0 0 0 1 5
4314 1 2.08503 6.56986 0.02 0 0.00026641 -0.000176294 1 2
4313 1 2.04672 6.74726 0.02 0 -0.00388001 0.00061821 1 2
4316 1 2.29055 6.55075 0.02 0 0.000424781 -0.000616735 1 2
4315 1 2.24585 6.73637 0.02 0 -0.00181763 0.000425148 1 2
4320 1 2.68416 6.54827 0.02 0 0.000189848 -0.000558177 1 2
4317 1 2.63501 6.72947 0.02 0 -0.00236284 0.000551546 1 2
4319 1 2.48486 6.55695 0.02 0 0.000191134 -0.00055269 1 2
4318 1 2.44042 6.74615 0.02 0 -0.002791 0.000544895 1 2
4322 1 2.82909 6.74463 0.02 0 -0.00276551 0.000589597 1 2
78 2 2.2 7.4 0 0 0 0 0.998876 5
4323 1 2.87818 6.55266 0.02 0 0.00017645 -0.000549976 1 2
115 2 2.8 7.6 0 0 0 0 1 5
353 2 2.8 9 0 0 0 0 1 5
420 2 2.6 9.4 0 0 0 0 1 5
9 2 2 7 0 0 0 0 1.00532 5
10 2 2.2 7 0 0 0 0 1.00048 5
11 2 2.4 7 0 0 0 0 0.99974 5
43 2 2 7.2 0 0 0 0 1.00461 5
44 2 2.2 7.2 0 0 0 0 0.999839 5
45 2 2.4 7.2 0 0 0 0 0.999799 5
47 2 2.8 7.2 0 0 0 0 1.00111 5
13 2 2.8 7 0 0 0 0 1.00049 5
46 2 2.6 7.2 0 0 0 0 0.999584 5
12 2 2.6 7 0 0 0 0 0.999829 5
146 2 2.2 7.8 0 0 0 0 1 5
145 2 2 7.8 0 0 0 0 1 5
77 2 2 7.4 0 0 0 0 1.00289 5
1583 2 3.2 -9.6 0 0 0 0 1 5
1582 2 3 -9.6 0 0 0 0 1 5
1549 2 3.2 -9.8 0 0 0 0 1 5
1548 2 3 -9.8 0 0 0 0 1 5
1515 2 3.2 -10 0 0 0 0 1 5
1514 2 3 -10 0 0 0 0 1 5
1584 2 3.4 -9.6 0 0 0 0 1 5
1550 2 3.4 -9.8 0 0 0 0 1 5
1516 2 3.4 -10 0 0 0 0 1 5
1586 2 3.8 -9.6 0 0 0 0 1 5
1585 2 3.6 -9.6 0 0 0 0 1 5
1552 2 3.8 -9.8 0 0 0 0 1 5
1551 2 3.6 -9.8 0 0 0 0 1 5
1518 2 3.8 -10 0 0 0 0 1 5
1517 2 3.6 -10 0 0 0 0 1 5
1588 2 4.2 -9.6 0 0 0 0 1 5
1587 2 4 -9.6 0 0 0 0 1 5
1554 2 4.2 -9.8 0 0 0 0 1 5
1553 2 4 -9.8 0 0 0 0 1 5
1520 2 4.2 -10 0 0 0 0 1 5
1519 2 4 -10 0 0 0 0 1 5
1616 2 3 -9.4 0 0 0 0 1 5
1617 2 3.2 -9.4 0 0 0 0 1 5
1651 2 3.2 -9.2 0 0 0 0 1 5
1650 2 3 -9.2 0 0 0 0 1 5
1652 2 3.4 -9.2 0 0 0 0 1 5
1618 2 3.4 -9.4 0 0 0 0 1 5
1653 2 3.6 -9.2 0 0 0 0 1 5
1654 2 3.8 -9.2 0 0 0 0 1 5
1620 2 3.8 -9.4 0 0 0 0 1 5
1619 2 3.6 -9.4 0 0 0 0 1 5
1622 2 4.2 -9.4 0 0 0 0 1 5
1655 2 4 -9.2 0 0 0 0 1 5
1656 2 4.2 -9.2 0 0 0 0 1 5
1621 2 4 -9.4 0 0 0 0 1 5
1719 2 3.2 -8.8 0 0 0 0 1 5
1718 2 3 -8.8 0 0 0 0 1 5
1685 2 3.2 -9 0 0 0 0 1 5
1684 2 3 -9 0 0 0 0 1 5
1686 2 3.4 -9 0 0 0 0 1 5
1720 2 3.4 -8.8 0 0 0 0 1 5
1687 2 3.6 -9 0 0 0 0 1 5
1688 2 3.8 -9 0 0 0 0 1 5
1721 2 3.6 -8.8 0 0 0 0 1 5
1722 2 3.8 -8.8 0 0 0 0 1 5
1689 2 4 -9 0 0 0 0 1 5
1690 2 4.2 -9 0 0 0 0 1 5
1723 2 4 -8.8 0 0 0 0 1 5
1724 2 4.2 -8.8 0 0 0 0 1 5
1752 2 3 -8.6 0 0 0 0 1 5
1753 2 3.2 -8.6 0 0 0 0 1 5
1786 2 3 -8.4 0 0 0 0 1 5
1787 2 3.2 -8.4 0 0 0 0 1 5
1754 2 3.4 -8.6 0 0 0 0 1 5
1788 2 3.4 -8.4 0 0 0 0 1 5
1755 2 3.6 -8.6 0 0 0 0 1 5
1756 2 3.8 -8.6 0 0 0 0 1 5
1789 2 3.6 -8.4 0 0 0 0 1 5
1790 2 3.8 -8.4 0 0 0 0 1 5
1757 2 4 -8.6 0 0 0 0 1 5
1758 2 4.2 -8.6 0 0 0 0 1 5
1791 2 4 -8.4 0 0 0 0 1 5
1792 2 4.2 -8.4 0 0 0 0 1 5
1820 2 3 -8.2 0 0 0 0 1 5
1821 2 3.2 -8.2 0 0 0 0 1 5
1854 2 3 -8 0 0 0 0 1 5
1855 2 3.2 -8 0 0 0 0 1 5
1822 2 3.4 -8.2 0 0 0 0 1 5
1856 2 3.4 -8 0 0 0 0 1 5
1823 2 3.6 -8.2 0 0 0 0 1 5
1824 2 3.8 -8.2 0 0 0 0 1 5
1857 2 3.6 -8 0 0 0 0 1 5
1858 2 3.8 -8 0 0 0 0 1 5
1825 2 4 -8.2 0 0 0 0 1 5
1826 2 4.2 -8.2 0 0 0 0 1 5
1859 2 4 -8 0 0 0 0 1 5
1860 2 4.2 -8 0 0 0 0 1 5
1888 2 3 -7.8 0 0 0 0 1 5
1889 2 3.2 -7.8 0 0 0 0 1 5
1922 2 3 -7.6 0 0 0 0 1 5
1923 2 3.2 -7.6 0 0 0 0 1 5
1956 2 3 -7.4 0 0 0 0 0.99959 5
1957 2 3.2 -7.4 0 0 0 0 0.997345 5
1890 2 3.4 -7.8 0 0 0 0 1 5
1924 2 3.4 -7.6 0 0 0 0 1 5
1958 2 3.4 -7.4 0 0 0 0 0.999624 5
1891 2 3.6 -7.8 0 0 0 0 1 5
1892 2 3.8 -7.8 0 0 0 0 1 5
1925 2 3.6 -7.6 0 0 0 0 1 5
1926 2 3.8 -7.6 0 0 0 0 1 5
1959 2 3.6 -7.4 0 0 0 0 0.988473 5
1960 2 3.8 -7.4 0 0 0 0 1.00034 5
1893 2 4 -7.8 0 0 0 0 1 5
1894 2 4.2 -7.8 0 0 0 0 1 5
1927 2 4 -7.6 0 0 0 0 1 5
1928 2 4.2 -7.6 0 0 0 0 1 5
1961 2 4 -7.4 0 0 0 0 0.999951 5
1962 2 4.2 -7.4 0 0 0 0 0.999955 5
1990 2 3 -7.2 0 0 0 0 0.999881 5
1991 2 3.2 -7.2 0 0 0 0 0.998453 5
2024 2 3 -7 0 0 0 0 0.999976 5
2025 2 3.2 -7 0 0 0 0 0.998923 5
1992 2 3.4 -7.2 0 0 0 0 0.996687 5
2026 2 3.4 -7 0 0 0 0 0.995939 5
1993 2 3.6 -7.2 0 0 0 0 0.988562 5
1994 2 3.8 -7.2 0 0 0 0 0.999974 5
2027 2 3.6 -7 0 0 0 0 0.989002 5
2028 2 3.8 -7 0 0 0 0 0.998901 5
1995 2 4 -7.2 0 0 0 0 0.999926 5
1996 2 4.2 -7.2 0 0 0 0 0.999906 5
2029 2 4 -7 0 0 0 0 0.999809 5
2030 2 4.2 -7 0 0 0 0 0.999869 5
4199 1 3.39327 -6.74024 0.02 0 -0.00172952 -0.00028135 1 2
4201 1 3.34615 -6.56038 0.02 0 0.000462894 0.00063566 1 2
3947 1 4.11958 -6.57221 0.000748881 0 0.000944231 0.000101101 1 2
3945 1 4.00618 -6.74459 0.00072968 0 -0.000142931 -0.000351198 1 2
3948 1 4.31763 -6.57855 0.000743924 0 0.00177618 -5.50462e-05 1 2
3946 1 4.15637 -6.76349 0.000511311 0 -0.000254546 -0.000160477 1 2
3949 1 4.31246 -6.76677 0.000551513 0 2.1476e-05 -1.83094e-05 1 2
4156 1 3.23249 -2.26931 0.02 0 0 0 1 2
4310 1 3.18398 -3.58102 0.02 0 0 0 1 2
4106 1 3.27878 -0.922544 0.02 0 -1.78424e-22 -4.69779e-23 1 2
4214 1 3.35422 -6.37526 0.02 0 0.000121035 0.000166934 1 2
4216 1 3.36527 -6.18666 0.02 0 3.81847e-06 1.52821e-05 1 2
3959 1 4.12233 -6.40575 0.00641431 0 -0.000191865 0.000162143 1 2
3961 1 4.18977 -6.22649 0.0145546 0 -0.00139537 4.18375e-05 1 2
3962 1 4.40829 -6.21801 0.0160151 0 -0.000926584 -1.79493e-05 1 2
3960 1 4.35371 -6.39862 0.00830448 0 0.000515541 -0.000296967 1 2
4295 1 3.19114 -4.21547 0.02 0 0 0 1 2
4296 1 3.17899 -4.00622 0.02 0 0 0 1 2
4230 1 3.43503 -6.01275 0.02 0 -4.45319e-06 9.0096e-07 1 2
4232 1 3.45222 -5.82998 0.02 0 -4.11211e-06 -7.7726e-07 1 2
3976 1 4.06942 -5.83368 0.0145745 0 8.3576e-05 2.37007e-05 1 2
3973 1 4.02851 -6.03328 0.0144121 0 -0.000635334 -0.000206174 1 2
3977 1 4.26387 -5.82876 0.0147658 0 0.000589318 0.000144642 1 2
3974 1 4.22077 -6.03474 0.0145652 0 0.000217308 7.07533e-05 1 2
4126 1 3.07684 -1.32691 0.02 0 -5.35988e-31 -7.77879e-31 1 2
3975 1 4.41328 -6.02704 0.0153025 0 0.00060997 0.000382506 1 2
4276 1 3.19816 -4.63033 0.02 0 0 0 1 2
4107 1 3.28281 -1.12585 0.02 0 -4.14702e-24 -2.22074e-24 1 2
3989 1 4.09395 -5.62887 0.0157089 0 0.000422167 1.4139e-05 1 2
3991 1 4.12155 -5.42296 0.0194883 0 -0.000650425 3.80062e-05 1 2
3993 1 4.1555 -5.22229 0.0199898 0 -0.000126652 -3.97637e-09 1 2
3990 1 4.28628 -5.61698 0.017725 0 -0.000103096 -7.44367e-05 1 2
4142 1 3.12146 -1.90734 0.02 0 0 0 1 2
4144 1 3.16454 -2.09503 0.02 0 0 0 1 2
4127 1 3.09103 -1.52374 0.02 0 0 0 1 2
3992 1 4.31887 -5.40365 0.019871 0 -7.87004e-05 -2.17966e-05 1 2
4077 1 3.16059 -0.115651 0.02 0 -6.8961e-26 9.05597e-26 1 2
3829 1 4.33084 -0.173337 0.02 0 -5.41199e-18 3.73119e-19 1 2
4123 1 3.27861 -1.32772 0.02 0 0 0 1 2
4263 1 3.38243 -4.86294 0.02 0 0 0 1 2
4262 1 3.35412 -5.06154 0.02 0 0 0 1 2
4007 1 4.17275 -5.02463 0.0199999 0 -3.33179e-06 4.76381e-06 1 2
4008 1 4.15755 -4.82859 0.02 0 -2.83191e-07 -7.56362e-09 1 2
4176 1 3.13893 -2.97419 0.02 0 0 0 1 2
4010 1 4.37698 -4.99109 0.02 0 3.19424e-05 2.33794e-05 1 2
4009 1 4.35485 -5.19276 0.0199974 0 0.000101433 6.96055e-05 1 2
4011 1 4.35708 -4.79402 0.02 0 3.27513e-06 2.59549e-06 1 2
4277 1 3.19593 -4.42334 0.02 0 0 0 1 2
4323 1 3.16168 -3.37335 0.02 0 0 0 1 2
4278 1 3.3931 -4.65724 0.02 0 0 0 1 2
4279 1 3.3853 -4.44793 0.02 0 -3.8914e-27 -7.70079e-27 1 2
4023 1 4.13769 -4.42558 0.02 0 -2.31823e-11 -1.38242e-11 1 2
4022 1 4.1824 -4.62705 0.02 0 3.68886e-08 3.3833e-08 1 2
4324 1 3.14164 -3.17081 0.02 0 0 0 1 2
4024 1 4.38574 -4.60119 0.02 0 2.22068e-07 1.77593e-07 1 2
4025 1 4.33362 -4.41435 0.02 0 4.66941e-09 4.8187e-09 1 2
4261 1 3.1897 -4.83706 0.02 0 0 0 1 2
3828 1 4.35128 -0.378772 0.02 0 7.98607e-18 -2.58786e-19 1 2
3830 1 4.14113 -0.162903 0.02 0 -4.01751e-19 4.23454e-19 1 2
4298 1 3.36871 -4.01321 0.02 0 -1.39798e-22 -9.16958e-23 1 2
4297 1 3.37747 -4.23127 0.02 0 -8.06863e-24 -1.03376e-23 1 2
4036 1 4.13721 -4.22232 0.02 0 2.59843e-11 -8.37386e-15 1 2
4038 1 4.17575 -4.02713 0.02 0 -3.0103e-10 3.37614e-11 1 2
4309 1 3.16695 -3.79001 0.02 0 0 0 1 2
4076 1 3.19656 -0.312822 0.02 0 -6.72362e-24 8.49079e-24 1 2
4039 1 4.37724 -4.03552 0.02 0 1.43944e-10 -7.4802e-12 1 2
4037 1 4.34372 -4.22496 0.02 0 2.10562e-10 3.30396e-11 1 2
3831 1 4.16507 -0.39204 0.02 0 -8.87138e-19 6.30572e-20 1 2
4078 1 3.36212 -0.123972 0.02 0 -7.38269e-26 7.56524e-26 1 2
4312 1 3.38742 -3.61121 0.02 0 -1.55522e-16 5.73981e-19 1 2
4311 1 3.36123 -3.80685 0.02 0 -3.8601e-19 -7.35502e-21 1 2
4050 1 4.02504 -3.65388 0.02 0 -2.5707e-13 -1.10402e-13 1 2
4051 1 4.18754 -3.83201 0.02 0 -1.60372e-11 2.976e-12 1 2
4053 1 4.23021 -3.63802 0.02 0 -4.52122e-13 3.47866e-12 1 2
4128 1 3.07482 -1.71679 0.02 0 0 0 1 2
4052 1 4.39295 -3.84076 0.02 0 7.19258e-12 1.07795e-11 1 2
4091 1 3.2331 -0.512922 0.02 0 -1.44772e-22 1.19289e-22 1 2
4093 1 3.23249 -0.718408 0.02 0 -6.2854e-22 1.08738e-22 1 2
4326 1 3.34321 -3.21224 0.02 0 -1.0996e-25 2.35064e-25 1 2
4325 1 3.36285 -3.41282 0.02 0 0 0 1 2
3944 1 4.17781 -3.44445 0.02 0 1.02663e-12 6.78307e-14 1 2
3940 1 4.19074 -3.06197 0.02 0 -2.37753e-12 -2.51863e-13 1 2
3943 1 4.17202 -3.2515 0.02 0 1.00929e-12 1.05193e-13 1 2
3942 1 4.38232 -3.45411 0.02 0 3.61238e-13 1.00722e-12 1 2
3941 1 4.38322 -3.26052 0.02 0 -1.50307e-12 -6.31958e-14 1 2
3939 1 4.40061 -3.06801 0.02 0 4.81586e-13 6.14064e-14 1 2
4229 1 3.21219 -5.98893 0.02 0 2.40836e-08 1.17923e-07 1 2
4231 1 3.23608 -5.81042 0.02 0 3.79783e-11 1.14585e-10 1 2
4198 1 3.19388 -6.73736 0.02 0 -0.00237024 -0.000545519 1 2
4175 1 3.34657 -3.0155 0.02 0 0 0 1 2
3924 1 4.14774 -2.87178 0.02 0 -3.89227e-13 -6.88696e-14 1 2
3921 1 4.11736 -2.67636 0.02 0 -3.75243e-15 -8.42553e-16 1 2
4260 1 3.15552 -5.04121 0.02 0 0 0 1 2
4245 1 3.11044 -5.24105 0.02 0 0 0 1 2
3922 1 4.31966 -2.68115 0.02 0 1.13284e-13 8.77399e-14 1 2
3923 1 4.35651 -2.87607 0.02 0 6.38107e-13 3.34497e-13 1 2
4075 1 3.396 -0.324815 0.02 0 -2.76492e-24 2.79028e-24 1 2
4157 1 3.25878 -2.45109 0.02 0 0 0 1 2
4155 1 3.44529 -2.29025 0.02 0 -3.6306e-21 0 1 2
3909 1 4.0992 -2.47715 0.02 0 -1.71139e-17 -4.15792e-18 1 2
3908 1 4.04466 -2.27621 0.02 0 -4.06863e-18 -1.99862e-20 1 2
3906 1 4.25374 -2.29621 0.02 0 1.98795e-17 1.32717e-16 1 2
4158 1 3.09101 -2.59804 0.02 0 0 0 1 2
4213 1 3.15769 -6.35636 0.02 0 8.19271e-05 0.000112508 1 2
3907 1 4.30702 -2.4854 0.02 0 5.88888e-15 7.13841e-15 1 2
3845 1 4.38341 -0.584138 0.02 0 3.51206e-19 3.56776e-20 1 2
4124 1 3.30176 -1.52274 0.02 0 0 0 1 2
4143 1 3.38256 -2.09418 0.02 0 -4.18943e-26 0 1 2
4141 1 3.33227 -1.90292 0.02 0 0 0 1 2
3894 1 4.18845 -1.91774 0.02 0 -1.68149e-17 -4.45071e-19 1 2
3895 1 4.20238 -2.10566 0.02 0 -1.81259e-17 3.51886e-18 1 2
3892 1 4.41284 -2.12404 0.02 0 3.0332e-17 5.67241e-18 1 2
3891 1 4.40867 -1.93585 0.02 0 -4.7797e-18 3.10981e-19 1 2
3893 1 4.36728 -1.75137 0.02 0 1.57385e-17 2.09052e-18 1 2
4174 1 3.30273 -2.81954 0.02 0 0 0 1 2
4173 1 3.31334 -2.63085 0.02 0 0 0 1 2
4246 1 3.28783 -5.63311 0.02 0 0 0 1 2
3878 1 4.16298 -1.54983 0.02 0 -6.44289e-18 3.02511e-19 1 2
3877 1 4.12061 -1.36587 0.02 0 -1.74678e-18 4.9236e-21 1 2
3879 1 4.14901 -1.73465 0.02 0 3.9548e-18 -6.94399e-21 1 2
4215 1 3.16355 -6.16656 0.02 0 4.02733e-06 8.74504e-06 1 2
3844 1 4.42499 -0.788933 0.02 0 -4.92235e-18 0 1 2
3875 1 4.37699 -1.56384 0.02 0 -3.31302e-18 2.81996e-20 1 2
4200 1 3.14552 -6.55109 0.02 0 0.000243845 0.000467535 1 2
3876 1 4.33978 -1.3795 0.02 0 5.57522e-18 7.48059e-19 1 2
4247 1 3.29118 -5.44493 0.02 0 0 0 1 2
3861 1 4.08812 -0.985548 0.02 0 -5.32349e-18 -7.30856e-19 1 2
3863 1 4.11372 -1.17967 0.02 0 -3.71669e-18 -5.82218e-19 1 2
3860 1 4.29112 -1.00662 0.02 0 7.51566e-18 1.97621e-19 1 2
4125 1 3.28688 -1.7141 0.02 0 0 0 1 2
3847 1 4.00508 -0.560608 0.02 0 -2.82537e-18 -5.33621e-20 1 2
3862 1 4.33515 -1.19427 0.02 0 1.14071e-18 6.07654e-20 1 2
4177 1 3.08693 -2.78378 0.02 0 0 0 1 2
4248 1 3.31033 -5.25341 0.02 0 0 0 1 2
4090 1 3.4264 -0.529585 0.02 0 3.24474e-23 7.57341e-25 1 2
4092 1 3.42755 -0.732771 0.02 0 1.93614e-21 -1.99068e-22 1 2
3846 1 4.19382 -0.609046 0.02 0 2.8559e-18 -9.92801e-20 1 2
3848 1 4.23064 -0.811747 0.02 0 7.77686e-18 1.625e-19 1 2
3849 1 4.03155 -0.774498 0.02 0 -6.13148e-18 -7.17823e-20 1 2
4242 1 3.07101 -5.6254 0.02 0 0 0 1 2
4244 1 3.0846 -5.43659 0.02 0 0 0 1 2
4095 1 3.04153 -0.719476 0.02 0 -1.07856e-22 4.68144e-24 1 2
4094 1 3.03986 -0.508238 0.02 0 -3.25383e-23 1.79424e-23 1 2
4109 1 3.08533 -1.12654 0.02 0 -1.98503e-24 -1.9102e-24 1 2
4108 1 3.07992 -0.924728 0.02 0 -5.8587e-23 -2.71475e-23 1 2
4195 1 2.99313 -6.76082 0.02 0 -0.00310939 -0.000489705 1 2
4210 1 2.96643 -6.38741 0.02 0 0.000102859 0.00015381 1 2
4228 1 3.02181 -5.80768 0.02 0 2.51533e-11 1.90789e-10 1 2