ITEM: TIMESTEP
26000
ITEM: NUMBER OF ATOMS
1415
ITEM: BOX BOUNDS ff ff pp
0.0000000000000000e+00 4.4000000000000004e+00
-1.0000000000000000e+01 1.0000000000000000e+01
-2.0000000000000000e-02 2.0000000000000000e-02
ITEM: ATOMS id type x y vx vy fx fy c_den c_phase
3423 1 0.439867 -6.74606 0.02 0 0 0 1 2
3424 1 0.631906 -6.74071 0.02 0 0 0 1 2
3425 1 0.822119 -6.73853 0.02 0 0 0 1 2
3426 1 0.436833 -6.55135 0.02 0 0 0 1 2
3427 1 0.619803 -6.54387 0.02 0 0 0 1 2
3428 1 0.796394 -6.52885 0.02 0 0 0 1 2
3429 1 1.01073 -6.73888 0.02 0 0 0 1 2
3430 1 1.1972 -6.73265 0.02 0 0 0 1 2
3431 1 0.975772 -6.545 0.02 0 0 0 1 2
3432 1 1.16548 -6.54222 0.02 0 0 0 1 2
3435 1 1.37409 -6.55789 0.02 0 0 0 1 2
3433 1 1.38345 -6.73781 0.02 0 -2.13103e-09 -2.27521e-09 1 2
3355 1 0.840946 -1.06301 0.02 0 0 0 1 2
3354 1 0.825355 -0.879765 0.02 0 0 0 1 2
3322 1 1.25054 -0.380287 0.02 0 0 0 1 2
3321 1 1.24281 -0.191014 0.02 0 0 0 1 2
3439 1 0.473388 -6.12486 0.02 0 0 0 1 2
3440 1 0.450724 -6.34641 0.02 0 0 0 1 2
3441 1 0.626077 -6.3224 0.02 0 0 0 1 2
3442 1 0.801 -6.31438 0.02 0 0 0 1 2
3443 1 0.815707 -6.10319 0.02 0 0 0 1 2
3444 1 0.978088 -6.33691 0.02 0 0 0 1 2
3445 1 1.1594 -6.34124 0.02 0 0 0 1 2
3446 1 0.995939 -6.12551 0.02 0 0 0 1 2
3447 1 1.18309 -6.14134 0.02 0 0 0 1 2
3448 1 1.34549 -6.37765 0.02 0 0 0 1 2
3450 1 1.37231 -6.18839 0.02 0 0 0 1 2
3368 1 1.41704 -1.69819 0.02 0 0 0 1 2
3356 1 0.837968 -1.2477 0.02 0 0 0 1 2
3331 1 0.588502 -0.337865 0.02 0 0 0 1 2
3330 1 0.534512 -0.164303 0.02 0 0 0 1 2
3454 1 0.640577 -6.08372 0.02 0 0 0 1 2
3455 1 0.465214 -5.88435 0.02 0 0 0 1 2
3456 1 0.64154 -5.86482 0.02 0 0 0 1 2
3457 1 0.823296 -5.88612 0.02 0 0 0 1 2
3458 1 0.471525 -5.65275 0.02 0 0 0 1 2
3459 1 0.660397 -5.65753 0.02 0 0 0 1 2
3460 1 0.852934 -5.67751 0.02 0 0 0 1 2
3461 1 1.00759 -5.91883 0.02 0 0 0 1 2
3462 1 1.20013 -5.94538 0.02 0 0 0 1 2
3463 1 1.04518 -5.719 0.02 0 0 0 1 2
3464 1 1.24297 -5.75573 0.02 0 0 0 1 2
3465 1 1.39286 -5.99199 0.02 0 0 0 1 2
3349 1 1.26676 -1.11332 0.02 0 0 0 1 2
3467 1 1.43302 -5.79335 0.02 0 0 0 1 2
3348 1 1.25474 -0.926657 0.02 0 0 0 1 2
3329 1 0.808285 -0.354571 0.02 0 0 0 1 2
3320 1 1.45871 -0.36101 0.02 0 0 0 1 2
3471 1 0.469444 -5.43905 0.02 0 0 0 1 2
3472 1 0.659054 -5.44879 0.02 0 0 0 1 2
3473 1 0.499025 -5.23868 0.02 0 0 0 1 2
3474 1 0.693364 -5.24018 0.02 0 0 0 1 2
3475 1 0.847811 -5.46651 0.02 0 0 0 1 2
3476 1 0.881767 -5.25901 0.02 0 0 0 1 2
3477 1 1.03391 -5.50683 0.02 0 0 0 1 2
3478 1 1.22424 -5.55952 0.02 0 0 0 1 2
3479 1 1.06573 -5.29204 0.02 0 0 0 1 2
3480 1 1.24211 -5.35989 0.02 0 0 0 1 2
3481 1 1.42751 -5.59028 0.02 0 0 0 1 2
3361 1 0.425999 -1.2436 0.02 0 0 0 1 2
3483 1 1.42986 -5.38934 0.02 0 0 0 1 2
3360 1 0.630789 -1.2473 0.02 0 0 0 1 2
3334 1 1.49055 -0.55092 0.02 0 0 0 1 2
3319 1 1.44838 -0.165193 0.02 0 0 0 1 2
3339 1 1.02449 -0.717509 0.02 0 0 0 1 2
3488 1 0.464994 -5.04164 0.02 0 0 0 1 2
3489 1 0.528657 -4.84852 0.02 0 0 0 1 2
3490 1 0.663189 -5.03322 0.02 0 0 0 1 2
3491 1 0.73573 -4.83616 0.02 0 0 0 1 2
3492 1 0.860721 -5.0493 0.02 0 0 0 1 2
3493 1 0.9343 -4.85573 0.02 0 0 0 1 2
3494 1 1.06074 -5.08279 0.02 0 0 0 1 2
3495 1 1.25872 -5.15353 0.02 0 0 0 1 2
3496 1 1.12757 -4.89185 0.02 0 0 0 1 2
3497 1 1.3073 -4.95526 0.02 0 0 0 1 2
3498 1 1.46496 -5.1961 0.02 0 0 0 1 2
3499 1 1.49314 -5.0012 0.02 0 0 0 1 2
3338 1 1.06659 -0.545805 0.02 0 0 0 1 2
3501 1 1.50256 -4.79501 0.02 0 0 0 1 2
3337 1 1.27448 -0.747209 0.02 0 0 0 1 2
3503 1 0.543935 -4.65256 0.02 0 0 0 1 2
3504 1 0.736503 -4.62936 0.02 0 0 0 1 2
3505 1 0.563147 -4.447 0.02 0 0 0 1 2
3506 1 0.758465 -4.42274 0.02 0 0 0 1 2
3507 1 0.928314 -4.6478 0.02 0 0 0 1 2
3508 1 1.12196 -4.68828 0.02 0 0 0 1 2
3509 1 0.952222 -4.44355 0.02 0 0 0 1 2
3510 1 1.14393 -4.48888 0.02 0 0 0 1 2
3511 1 1.31543 -4.73594 0.02 0 0 0 1 2
3512 1 1.33491 -4.52488 0.02 0 0 0 1 2
3366 1 1.46559 -1.5099 0.02 0 0 0 1 2
3336 1 1.27856 -0.566926 0.02 0 0 0 1 2
3515 1 1.51519 -4.35893 0.02 0 0 0 1 2
3343 1 0.552631 -0.692423 0.02 0 0 0 1 2
3517 1 0.57402 -4.23977 0.02 0 0 0 1 2
3518 1 0.76643 -4.21592 0.02 0 0 0 1 2
3519 1 0.555491 -4.03087 0.02 0 0 0 1 2
3520 1 0.751271 -4.01238 0.02 0 0 0 1 2
3521 1 0.958086 -4.23733 0.02 0 0 0 1 2
3522 1 1.14515 -4.28241 0.02 0 0 0 1 2
3523 1 0.950797 -4.03445 0.02 0 0 0 1 2
3524 1 1.14525 -4.07203 0.02 0 0 0 1 2
3525 1 1.33321 -4.31103 0.02 0 0 0 1 2
3526 1 1.33499 -4.1015 0.02 0 0 0 1 2
3365 1 1.47321 -1.31831 0.02 0 0 0 1 2
3342 1 0.607837 -0.518612 0.02 0 0 0 1 2
3341 1 0.782743 -0.701701 0.02 0 0 0 1 2
3359 1 0.407302 -1.05303 0.02 0 0 0 1 2
3326 1 1.03044 -0.366715 0.02 0 0 0 1 2
3532 1 0.526712 -3.823 0.02 0 0 0 1 2
3533 1 0.720966 -3.81161 0.02 0 0 0 1 2
3534 1 0.487125 -3.61902 0.02 0 0 0 1 2
3535 1 0.692926 -3.61431 0.02 0 0 0 1 2
3536 1 0.922514 -3.83683 0.02 0 0 0 1 2
3537 1 1.12502 -3.86495 0.02 0 0 0 1 2
3538 1 0.900241 -3.64041 0.02 0 0 0 1 2
3539 1 1.09887 -3.65783 0.02 0 0 0 1 2
3540 1 1.25902 -3.48357 0.02 0 0 0 1 2
3541 1 1.323 -3.89529 0.02 0 0 0 1 2
3543 1 1.29145 -3.69232 0.02 0 0 0 1 2
3542 1 1.50968 -3.89978 0.02 0 0 0 1 2
3544 1 1.47483 -3.66781 0.02 0 0 0 1 2
3358 1 0.621021 -1.05789 0.02 0 0 0 1 2
3357 1 0.608707 -0.871762 0.02 0 0 0 1 2
3325 1 1.02248 -0.186694 0.02 0 0 0 1 2
3548 1 0.45396 -3.42201 0.02 0 0 0 1 2
3549 1 0.658426 -3.4196 0.02 0 0 0 1 2
3550 1 0.416566 -3.22195 0.02 0 0 0 1 2
3551 1 0.612446 -3.22105 0.02 0 0 0 1 2
3552 1 0.774991 -3.05461 0.02 0 0 0 1 2
3553 1 0.81842 -3.25259 0.02 0 0 0 1 2
3554 1 0.868099 -3.44577 0.02 0 0 0 1 2
3555 1 1.06715 -3.44779 0.02 0 0 0 1 2
3556 1 1.01655 -3.23968 0.02 0 0 0 1 2
3557 1 1.21308 -3.27042 0.02 0 0 0 1 2
3558 1 1.15895 -3.06132 0.02 0 0 0 1 2
3559 1 1.43845 -3.4404 0.02 0 0 0 1 2
3560 1 1.3955 -3.22248 0.02 0 0 0 1 2
3350 1 1.26045 -1.30026 0.02 0 0 0 1 2
3351 1 1.04226 -0.894518 0.02 0 0 0 1 2
3324 1 1.00201 -0.00544743 0.02 0 0 0 1 2
3328 1 0.784055 -0.178949 0.02 0 0 0 1 2
3327 1 0.791879 -0.00100826 0.02 0 0 0 1 2
3419 1 0.719254 -2.61866 0.02 0 0 0 1 2
3420 1 0.746648 -2.8411 0.02 0 0 0 1 2
3421 1 0.55816 -2.8055 0.02 0 0 0 1 2
3422 1 0.583133 -3.01297 0.02 0 0 0 1 2
3410 1 1.30322 -2.63352 0.02 0 0 0 1 2
3412 1 1.3213 -2.82677 0.02 0 0 0 1 2
3413 1 1.35269 -3.02388 0.02 0 0 0 1 2
3414 1 1.10079 -2.64639 0.02 0 0 0 1 2
3415 1 0.90686 -2.61135 0.02 0 0 0 1 2
3416 1 1.12644 -2.85338 0.02 0 0 0 1 2
3417 1 0.93321 -2.81783 0.02 0 0 0 1 2
3418 1 0.964129 -3.02855 0.02 0 0 0 1 2
3340 1 0.841565 -0.532055 0.02 0 0 0 1 2
3347 1 1.47034 -1.12269 0.02 0 0 0 1 2
3409 1 1.51096 -2.66426 0.02 0 0 0 1 2
3323 1 1.21031 -0.00163552 0.02 0 0 0 1 2
3402 1 0.698815 -2.21184 0.02 0 0 0 1 2
3403 1 0.496059 -2.20505 0.02 0 0 0 1 2
3404 1 0.733962 -2.41029 0.02 0 0 0 1 2
3405 1 0.525919 -2.40127 0.02 0 0 0 1 2
3406 1 0.532125 -2.60028 0.02 0 0 0 1 2
3395 1 1.31343 -2.25355 0.02 0 0 0 1 2
3397 1 1.34563 -2.44523 0.02 0 0 0 1 2
3398 1 1.10622 -2.24572 0.02 0 0 0 1 2
3399 1 0.899941 -2.21393 0.02 0 0 0 1 2
3400 1 0.939067 -2.41304 0.02 0 0 0 1 2
3401 1 1.14026 -2.44696 0.02 0 0 0 1 2
3335 1 1.49985 -0.74004 0.02 0 0 0 1 2
3346 1 1.47073 -0.927547 0.02 0 0 0 1 2
3373 1 1.00812 -1.66161 0.02 0 0 0 1 2
3371 1 1.05189 -1.46735 0.02 0 0 0 1 2
3386 1 0.81631 -1.82425 0.02 0 0 0 1 2
3387 1 0.836474 -2.01811 0.02 0 0 0 1 2
3388 1 0.607635 -1.82838 0.02 0 0 0 1 2
3389 1 0.400844 -1.81365 0.02 0 0 0 1 2
3390 1 0.626877 -2.02069 0.02 0 0 0 1 2
3391 1 0.4203 -2.00946 0.02 0 0 0 1 2
3382 1 1.25916 -2.06309 0.02 0 0 0 1 2
3383 1 1.24017 -1.86976 0.02 0 0 0 1 2
3384 1 1.02816 -1.85627 0.02 0 0 0 1 2
3385 1 1.05012 -2.04849 0.02 0 0 0 1 2
3353 1 1.04904 -1.27092 0.02 0 0 0 1 2
3352 1 1.05663 -1.08063 0.02 0 0 0 1 2
3380 1 1.45061 -1.89012 0.02 0 0 0 1 2
3381 1 1.47151 -2.08206 0.02 0 0 0 1 2
3372 1 0.851952 -1.43736 0.02 0 0 0 1 2
3374 1 0.808436 -1.62853 0.02 0 0 0 1 2
3375 1 0.646436 -1.44149 0.02 0 0 0 1 2
3376 1 0.44023 -1.43462 0.02 0 0 0 1 2
3377 1 0.604875 -1.63476 0.02 0 0 0 1 2
3369 1 1.25685 -1.48823 0.02 0 0 0 1 2
3370 1 1.21066 -1.67585 0.02 0 0 0 1 2
3315 1 0.520215 0.204196 0.02 0 0 0 1 2
3316 1 0.596042 0.384557 0.02 0 0 0 1 2
3317 1 0.730866 0.175954 0.02 0 0 0 1 2
3318 1 0.57567 0.0129896 0.02 0 0 0 1 2
3319 1 0.80857 0.345641 0.02 0 0 0 1 2
3320 1 0.965459 0.178308 0.02 0 0 0 1 2
3321 1 1.01065 0.370658 0.02 0 0 0 1 2
3322 1 1.18269 0.191836 0.02 0 0 0 1 2
3323 1 1.20207 0.397128 0.02 0 0 0 1 2
3324 1 1.38401 0.233588 0.02 0 0 0 1 2
3518 1 0.551865 5.7584 0.02 0 0 0 1 2
3524 1 0.955072 5.96059 0.02 0 0 0 1 2
3327 1 1.41074 0.0318079 0.02 0 0 0 1 2
3553 1 1.18433 6.564 0.02 0 0 0 1 2
3552 1 0.987573 6.5425 0.02 0 0 0 1 2
3330 1 0.602537 0.57837 0.02 0 0 0 1 2
3331 1 0.424847 0.789319 0.02 0 0 0 1 2
3332 1 0.627144 0.774756 0.02 0 0 0 1 2
3333 1 0.803955 0.534418 0.02 0 0 0 1 2
3334 1 0.822734 0.729299 0.02 0 0 0 1 2
3335 1 1.00442 0.575485 0.02 0 0 0 1 2
3336 1 1.00538 0.79305 0.02 0 0 0 1 2
3337 1 1.19408 0.609715 0.02 0 0 0 1 2
3338 1 1.19298 0.818836 0.02 0 0 0 1 2
3339 1 1.38807 0.445205 0.02 0 0 0 1 2
3543 1 1.36481 6.37369 0.02 0 0 0 1 2
3341 1 1.38393 0.65202 0.02 0 0 0 1 2
3342 1 1.38281 0.855973 0.02 0 0 0 1 2
3514 1 1.33734 5.57151 0.02 0 0 0 1 2
3551 1 0.797796 6.74497 0.02 0 0 0 1 2
3550 1 0.597707 6.75825 0.02 0 0 0 1 2
3346 1 0.594996 0.975685 0.02 0 0 0 1 2
3347 1 0.559158 1.17683 0.02 0 0 0 1 2
3348 1 0.75506 1.14765 0.02 0 0 0 1 2
3349 1 0.796297 0.936337 0.02 0 0 0 1 2
3350 1 0.983734 1.00126 0.02 0 0 0 1 2
3351 1 0.944134 1.19622 0.02 0 0 0 1 2
3352 1 1.15065 1.20755 0.02 0 0 0 1 2
3353 1 1.1877 1.01873 0.02 0 0 0 1 2
3356 1 1.36789 1.2373 0.02 0 0 0 1 2
3512 1 1.34665 5.36629 0.02 0 0 0 1 2
3355 1 1.39685 1.05207 0.02 0 0 0 1 2
3523 1 1.14613 5.78818 0.02 0 0 0 1 2
3522 1 0.946983 5.76649 0.02 0 0 0 1 2
3549 1 0.793981 6.55802 0.02 0 0 0 1 2
3548 1 0.602724 6.56745 0.02 0 0 0 1 2
3511 1 1.13946 5.59251 0.02 0 0 0 1 2
3362 1 0.571918 1.37483 0.02 0 0 0 1 2
3363 1 0.586553 1.56786 0.02 0 0 0 1 2
3364 1 0.773078 1.36257 0.02 0 0 0 1 2
3365 1 0.797084 1.56248 0.02 0 0 0 1 2
3366 1 0.985867 1.3854 0.02 0 0 0 1 2
3367 1 1.01147 1.56958 0.02 0 0 0 1 2
3368 1 1.20863 1.39229 0.02 0 0 0 1 2
3369 1 1.22878 1.57633 0.02 0 0 0 1 2
3370 1 1.43317 1.41943 0.02 0 0 0 1 2
3371 1 1.451 1.6044 0.02 0 0 0 1 2
3521 1 0.75536 5.96894 0.02 0 0 0 1 2
3540 1 1.17205 6.37171 0.02 0 0 0 1 2
3558 1 1.37998 6.74569 0.02 0 -2.12084e-09 2.18498e-09 1 2
3375 1 0.585693 1.75982 0.02 0 0 0 1 2
3376 1 0.414541 1.94621 0.02 0 0 0 1 2
3377 1 0.636405 1.94221 0.02 0 0 0 1 2
3378 1 0.436651 2.13505 0.02 0 0 0 1 2
3379 1 0.657262 2.12294 0.02 0 0 0 1 2
3380 1 0.79301 1.75845 0.02 0 0 0 1 2
3382 1 0.873274 1.93387 0.02 0 0 0 1 2
3384 1 0.872552 2.11742 0.02 0 0 0 1 2
3381 1 1.0102 1.75526 0.02 0 0 0 1 2
3383 1 1.09747 1.93002 0.02 0 0 0 1 2
3385 1 1.08941 2.11891 0.02 0 0 0 1 2
3386 1 1.23825 1.76097 0.02 0 0 0 1 2
3388 1 1.31346 1.94466 0.02 0 0 0 1 2
3390 1 1.31035 2.13023 0.02 0 0 0 1 2
3387 1 1.46223 1.78884 0.02 0 0 0 1 2
3510 1 0.939757 5.56976 0.02 0 0 0 1 2
3509 1 1.1515 5.39607 0.02 0 0 0 1 2
3539 1 0.97759 6.34999 0.02 0 0 0 1 2
3547 1 0.411438 6.57228 0.02 0 0 0 1 2
3394 1 0.447789 2.3268 0.02 0 0 0 1 2
3395 1 0.65713 2.30854 0.02 0 0 0 1 2
3396 1 0.649222 2.49861 0.02 0 0 0 1 2
3397 1 0.44439 2.52306 0.02 0 0 0 1 2
3398 1 0.870802 2.30393 0.02 0 0 0 1 2
3400 1 0.858413 2.49342 0.02 0 0 0 1 2
3399 1 1.07664 2.31244 0.02 0 0 0 1 2
3401 1 1.06857 2.51007 0.02 0 0 0 1 2
3402 1 1.28047 2.31437 0.02 0 0 0 1 2
3403 1 1.27781 2.50674 0.02 0 0 0 1 2
3404 1 1.4867 2.34981 0.02 0 0 0 1 2
3405 1 1.48443 2.5435 0.02 0 0 0 1 2
3538 1 1.14692 6.17538 0.02 0 0 0 1 2
3537 1 0.954392 6.15436 0.02 0 0 0 1 2
3508 1 0.9458 5.37556 0.02 0 0 0 1 2
3409 1 0.45279 2.71578 0.02 0 0 0 1 2
3410 1 0.664855 2.68963 0.02 0 0 0 1 2
3411 1 0.516509 2.90315 0.02 0 0 0 1 2
3412 1 0.712356 2.88205 0.02 0 0 0 1 2
3413 1 0.875418 2.68675 0.02 0 0 0 1 2
3414 1 1.07869 2.71003 0.02 0 0 0 1 2
3415 1 0.904832 2.89051 0.02 0 0 0 1 2
3416 1 1.09454 2.91807 0.02 0 0 0 1 2
3417 1 1.27805 2.70476 0.02 0 0 0 1 2
3418 1 1.28091 2.91763 0.02 0 0 0 1 2
3419 1 1.47796 2.73889 0.02 0 0 0 1 2
3420 1 1.47241 2.93523 0.02 0 0 0 1 2
3536 1 0.78248 6.36768 0.02 0 0 0 1 2
3535 1 0.586845 6.37308 0.02 0 0 0 1 2
3423 1 0.531281 3.09972 0.02 0 0 0 1 2
3424 1 0.548023 3.29669 0.02 0 0 0 1 2
3425 1 0.725773 3.08945 0.02 0 0 0 1 2
3426 1 0.739979 3.30158 0.02 0 0 0 1 2
3427 1 0.915217 3.10179 0.02 0 0 0 1 2
3428 1 1.098 3.13353 0.02 0 0 0 1 2
3429 1 0.926601 3.31379 0.02 0 0 0 1 2
3430 1 1.0992 3.37425 0.02 0 0 0 1 2
3431 1 1.27462 3.15493 0.02 0 0 0 1 2
3432 1 1.2822 3.36904 0.02 0 0 0 1 2
3433 1 1.4546 3.13401 0.02 0 0 0 1 2
3434 1 1.46731 3.35365 0.02 0 0 0 1 2
3520 1 0.562289 5.96109 0.02 0 0 0 1 2
3534 1 0.767365 6.17056 0.02 0 0 0 1 2
3507 1 0.740566 5.56919 0.02 0 0 0 1 2
3556 1 1.38278 6.56249 0.02 0 3.91479e-13 -8.33604e-11 1 2
3439 1 0.544107 3.49899 0.02 0 0 0 1 2
3440 1 0.528736 3.7084 0.02 0 0 0 1 2
3441 1 0.720206 3.71155 0.02 0 0 0 1 2
3442 1 0.738347 3.50843 0.02 0 0 0 1 2
3443 1 0.925331 3.54104 0.02 0 0 0 1 2
3444 1 1.10961 3.59079 0.02 0 0 0 1 2
3445 1 0.900066 3.76402 0.02 0 0 0 1 2
3446 1 1.08605 3.79492 0.02 0 0 0 1 2
3447 1 1.27789 3.78411 0.02 0 0 0 1 2
3448 1 1.30043 3.57702 0.02 0 0 0 1 2
3449 1 1.48379 3.58135 0.02 0 0 0 1 2
3450 1 1.46452 3.80883 0.02 0 0 0 1 2
3519 1 0.748954 5.76924 0.02 0 0 0 1 2
3533 1 0.583877 6.16841 0.02 0 0 0 1 2
3555 1 1.18086 6.75379 0.02 0 0 0 1 2
3554 1 0.989679 6.73064 0.02 0 0 0 1 2
3455 1 0.679505 3.9149 0.02 0 0 0 1 2
3456 1 0.489082 3.9248 0.02 0 0 0 1 2
3457 1 0.497862 4.14092 0.02 0 0 0 1 2
3458 1 0.686108 4.1269 0.02 0 0 0 1 2
3459 1 0.708286 4.34281 0.02 0 0 0 1 2
3460 1 0.864794 3.97811 0.02 0 0 0 1 2
3462 1 0.87376 4.19164 0.02 0 0 0 1 2
3461 1 1.05961 3.99241 0.02 0 0 0 1 2
3463 1 1.06974 4.19056 0.02 0 0 0 1 2
3464 1 1.26089 3.99109 0.02 0 0 0 1 2
3465 1 1.26958 4.19379 0.02 0 0 0 1 2
3466 1 1.46177 4.01395 0.02 0 0 0 1 2
3467 1 1.47298 4.21067 0.02 0 0 0 1 2
3532 1 0.403196 6.17157 0.02 0 0 0 1 2
3541 1 1.34222 6.17815 0.02 0 0 0 1 2
3470 1 0.516472 4.35424 0.02 0 0 0 1 2
3471 1 0.482913 4.5638 0.02 0 0 0 1 2
3472 1 0.678626 4.54974 0.02 0 0 0 1 2
3473 1 0.487097 4.77037 0.02 0 0 0 1 2
3474 1 0.686859 4.75637 0.02 0 0 0 1 2
3477 1 0.87103 4.59867 0.02 0 0 0 1 2
3475 1 0.900687 4.40013 0.02 0 0 0 1 2
3476 1 1.09743 4.39142 0.02 0 0 0 1 2
3478 1 1.07247 4.59395 0.02 0 0 0 1 2
3479 1 1.2773 4.59645 0.02 0 0 0 1 2
3480 1 1.29157 4.39746 0.02 0 0 0 1 2
3481 1 1.48695 4.40725 0.02 0 0 0 1 2
3482 1 1.49342 4.59721 0.02 0 0 0 1 2
3506 1 0.538687 5.56057 0.02 0 0 0 1 2
3505 1 0.736045 5.3719 0.02 0 0 0 1 2
3528 1 1.3538 5.97788 0.02 0 0 0 1 2
3486 1 0.48974 4.97924 0.02 0 0 0 1 2
3487 1 0.67877 4.96035 0.02 0 0 0 1 2
3488 1 0.525017 5.17867 0.02 0 0 0 1 2
3489 1 0.722213 5.17123 0.02 0 0 0 1 2
3492 1 0.870887 4.98375 0.02 0 0 0 1 2
3490 1 0.898837 4.79151 0.02 0 0 0 1 2
3491 1 1.10938 4.79204 0.02 0 0 0 1 2
3493 1 1.07273 4.99091 0.02 0 0 0 1 2
3494 1 0.920783 5.17948 0.02 0 0 0 1 2
3495 1 1.11743 5.19605 0.02 0 0 0 1 2
3496 1 1.27944 4.97531 0.02 0 0 0 1 2
3498 1 1.3172 4.78818 0.02 0 0 0 1 2
3500 1 1.30802 5.16561 0.02 0 0 0 1 2
3504 1 0.521986 5.36944 0.02 0 0 0 1 2
3499 1 1.5078 4.97417 0.02 0 0 0 1 2
3501 1 1.50361 5.16291 0.02 0 0 0 1 2
3526 1 1.34185 5.77466 0.02 0 0 0 1 2
3525 1 1.15789 5.98164 0.02 0 0 0 1 2
1509 2 2 -10 0 0 0 0 1 5
1510 2 2.2 -10 0 0 0 0 1 5
1511 2 2.4 -10 0 0 0 0 1 5
1543 2 2 -9.8 0 0 0 0 1 5
1544 2 2.2 -9.8 0 0 0 0 1 5
1545 2 2.4 -9.8 0 0 0 0 1 5
1577 2 2 -9.6 0 0 0 0 1 5
1578 2 2.2 -9.6 0 0 0 0 1 5
1579 2 2.4 -9.6 0 0 0 0 1 5
1512 2 2.6 -10 0 0 0 0 1 5
1513 2 2.8 -10 0 0 0 0 1 5
1546 2 2.6 -9.8 0 0 0 0 1 5
1547 2 2.8 -9.8 0 0 0 0 1 5
1580 2 2.6 -9.6 0 0 0 0 1 5
1581 2 2.8 -9.6 0 0 0 0 1 5
1645 2 2 -9.2 0 0 0 0 1 5
1646 2 2.2 -9.2 0 0 0 0 1 5
1647 2 2.4 -9.2 0 0 0 0 1 5
1613 2 2.4 -9.4 0 0 0 0 1 5
1612 2 2.2 -9.4 0 0 0 0 1 5
1611 2 2 -9.4 0 0 0 0 1 5
1648 2 2.6 -9.2 0 0 0 0 1 5
1649 2 2.8 -9.2 0 0 0 0 1 5
1615 2 2.8 -9.4 0 0 0 0 1 5
1614 2 2.6 -9.4 0 0 0 0 1 5
1679 2 2 -9 0 0 0 0 1 5
1680 2 2.2 -9 0 0 0 0 1 5
1681 2 2.4 -9 0 0 0 0 1 5
1713 2 2 -8.8 0 0 0 0 1 5
1714 2 2.2 -8.8 0 0 0 0 1 5
1715 2 2.4 -8.8 0 0 0 0 1 5
1682 2 2.6 -9 0 0 0 0 1 5
1683 2 2.8 -9 0 0 0 0 1 5
1716 2 2.6 -8.8 0 0 0 0 1 5
1717 2 2.8 -8.8 0 0 0 0 1 5
1783 2 2.4 -8.4 0 0 0 0 1 5
1782 2 2.2 -8.4 0 0 0 0 1 5
1781 2 2 -8.4 0 0 0 0 1 5
1747 2 2 -8.6 0 0 0 0 1 5
1748 2 2.2 -8.6 0 0 0 0 1 5
1749 2 2.4 -8.6 0 0 0 0 1 5
1785 2 2.8 -8.4 0 0 0 0 1 5
1784 2 2.6 -8.4 0 0 0 0 1 5
1750 2 2.6 -8.6 0 0 0 0 1 5
1751 2 2.8 -8.6 0 0 0 0 1 5
1851 2 2.4 -8 0 0 0 0 1 5
1850 2 2.2 -8 0 0 0 0 1 5
1849 2 2 -8 0 0 0 0 1 5
1817 2 2.4 -8.2 0 0 0 0 1 5
1816 2 2.2 -8.2 0 0 0 0 1 5
1815 2 2 -8.2 0 0 0 0 1 5
1853 2 2.8 -8 0 0 0 0 1 5
1852 2 2.6 -8 0 0 0 0 1 5
1819 2 2.8 -8.2 0 0 0 0 1 5
1818 2 2.6 -8.2 0 0 0 0 1 5
1953 2 2.4 -7.4 0 0 0 0 1.01083 5
1952 2 2.2 -7.4 0 0 0 0 1 5
1951 2 2 -7.4 0 0 0 0 0.992036 5
1919 2 2.4 -7.6 0 0 0 0 1 5
1918 2 2.2 -7.6 0 0 0 0 1 5
1917 2 2 -7.6 0 0 0 0 1 5
1885 2 2.4 -7.8 0 0 0 0 1 5
1884 2 2.2 -7.8 0 0 0 0 1 5
1883 2 2 -7.8 0 0 0 0 1 5
1955 2 2.8 -7.4 0 0 0 0 0.998753 5
1954 2 2.6 -7.4 0 0 0 0 0.999812 5
1921 2 2.8 -7.6 0 0 0 0 1 5
1920 2 2.6 -7.6 0 0 0 0 1 5
1887 2 2.8 -7.8 0 0 0 0 1 5
1886 2 2.6 -7.8 0 0 0 0 1 5
2021 2 2.4 -7 0 0 0 0 1.00971 5
2020 2 2.2 -7 0 0 0 0 1.00636 5
2019 2 2 -7 0 0 0 0 0.992971 5
1987 2 2.4 -7.2 0 0 0 0 1.01093 5
1986 2 2.2 -7.2 0 0 0 0 1.01203 5
1985 2 2 -7.2 0 0 0 0 0.992121 5
2023 2 2.8 -7 0 0 0 0 1.0004 5
2022 2 2.6 -7 0 0 0 0 1.0031 5
1989 2 2.8 -7.2 0 0 0 0 0.999915 5
1988 2 2.6 -7.2 0 0 0 0 1.00206 5
3176 1 2.6102 -6.56879 0.02 0 0.000270398 0.000130444 1 2
3175 1 2.40952 -6.55978 0.02 0 -0.00166127 -0.00033731 1 2
3174 1 2.59659 -6.75993 0.02 0 -0.0030833 -0.000105003 1 2
3177 1 2.79703 -6.73563 0.02 0 -0.00200537 -0.000265186 1 2
3179 1 2.81296 -6.55292 0.02 0 0.000254013 0.000418358 1 2
3367 1 1.62955 -1.68718 0.02 0 0 0 1 2
3546 1 1.62294 -3.48262 0.02 0 0 0 1 2
3392 1 1.74485 -2.45564 0.02 0 0 0 1 2
3362 1 1.84672 -1.68786 0.02 0 0 0 1 2
3189 1 2.43962 -6.37653 0.02 0 0.000256315 4.21555e-05 1 2
3191 1 2.64012 -6.37813 0.02 0 0.000304346 0.000224808 1 2
3190 1 2.58905 -6.18885 0.02 0 4.55657e-05 3.27014e-05 1 2
3192 1 2.83588 -6.36413 0.02 0 0.000109635 0.000145662 1 2
3194 1 2.79193 -6.1736 0.02 0 8.86825e-06 1.31359e-05 1 2
3545 1 1.65412 -3.7064 0.02 0 0 0 1 2
3317 1 1.64454 -0.133578 0.02 0 0 0 1 2
3563 1 1.81009 -3.47057 0.02 0 0 0 1 2
3547 1 1.83397 -3.69071 0.02 0 0 0 1 2
3204 1 2.57618 -5.99591 0.02 0 5.65029e-07 3.94019e-07 1 2
3205 1 2.58869 -5.79861 0.02 0 2.16586e-10 2.33898e-10 1 2
3206 1 2.78362 -5.9881 0.02 0 3.4394e-08 8.09476e-08 1 2
3208 1 2.79129 -5.80404 0.02 0 4.92123e-11 1.52856e-10 1 2
3484 1 1.6205 -5.42502 0.02 0 0 0 1 2
3482 1 1.62955 -5.62473 0.02 0 0 0 1 2
3315 1 1.84035 -0.144764 0.02 0 0 0 1 2
3316 1 1.85865 -0.348317 0.02 0 0 0 1 2
3220 1 2.43726 -5.38583 0.02 0 -1.59378e-28 -1.02689e-29 1 2
3221 1 2.61352 -5.59899 0.02 0 -3.47496e-26 -1.69871e-26 1 2
3222 1 2.6384 -5.40026 0.02 0 -1.4154e-24 -3.15048e-25 1 2
3219 1 2.41721 -5.58567 0.02 0 0 0 1 2
3223 1 2.81659 -5.61945 0.02 0 -4.87773e-23 -2.34668e-23 1 2
3225 1 2.83976 -5.43257 0.02 0 -6.89072e-22 -2.39562e-22 1 2
3468 1 1.62019 -5.8254 0.02 0 0 0 1 2
3466 1 1.5879 -6.01992 0.02 0 -1.51612e-12 5.30167e-11 1 2
3364 1 1.68272 -1.50576 0.02 0 0 0 1 2
3227 1 2.87921 -5.24437 0.02 0 -4.01399e-21 -6.16223e-22 1 2
3531 1 1.85973 -3.93897 0.02 0 0 0 1 2
3530 1 1.86345 -4.16644 0.02 0 0 0 1 2
3438 1 1.78478 -6.57252 0.02 0 -9.53604e-05 1.28442e-05 1 2
3239 1 2.6754 -5.20589 0.02 0 -1.36618e-23 -1.05673e-24 1 2
3240 1 2.68198 -5.00972 0.02 0 -3.39968e-23 -2.70223e-24 1 2
3241 1 2.72395 -4.82157 0.02 0 -1.07386e-22 5.48822e-25 1 2
3237 1 2.47716 -4.99345 0.02 0 -5.60653e-26 3.97206e-27 1 2
3238 1 2.51037 -4.80394 0.02 0 -2.86506e-25 -2.80451e-27 1 2
3236 1 2.47244 -5.18892 0.02 0 -3.24841e-26 1.30507e-27 1 2
3363 1 1.68459 -1.31904 0.02 0 0 0 1 2
3243 1 2.93024 -4.85503 0.02 0 -1.06567e-20 7.16786e-22 1 2
3242 1 2.88323 -5.04988 0.02 0 -5.94228e-21 -5.41737e-23 1 2
3565 1 1.76515 -3.05966 0.02 0 0 0 1 2
3437 1 1.7805 -6.75403 0.02 0 -0.00125915 -0.000332765 1 2
3254 1 2.68774 -4.62864 0.02 0 -2.76272e-23 4.28989e-24 1 2
3255 1 2.67455 -4.43154 0.02 0 -2.48257e-24 1.18077e-24 1 2
3253 1 2.47256 -4.41611 0.02 0 -6.62192e-28 9.74275e-29 1 2
3252 1 2.4802 -4.61251 0.02 0 -7.84139e-26 -1.22786e-27 1 2
3379 1 1.65894 -1.87261 0.02 0 0 0 1 2
3256 1 2.8944 -4.65561 0.02 0 -4.13902e-21 6.76589e-22 1 2
3257 1 2.8739 -4.4529 0.02 0 -6.53297e-22 3.52464e-22 1 2
3344 1 1.68317 -0.937006 0.02 0 0 0 1 2
3072 1 2.85149 -0.358881 0.02 0 -1.58511e-27 -2.9363e-27 1 2
3564 1 1.77515 -3.263 0.02 0 0 0 1 2
3267 1 2.42688 -4.21847 0.02 0 -8.69714e-35 2.51606e-35 1 2
3269 1 2.63051 -4.23312 0.02 0 -9.18045e-27 7.25797e-27 1 2
3268 1 2.58899 -4.03014 0.02 0 -9.20891e-32 5.33585e-32 1 2
3270 1 2.83385 -4.24787 0.02 0 -1.755e-24 1.90784e-24 1 2
3272 1 2.78495 -4.04595 0.02 0 -1.65509e-29 2.29134e-29 1 2
3087 1 2.69431 -0.565154 0.02 0 -7.49455e-26 1.09539e-26 1 2
3485 1 1.67102 -5.22984 0.02 0 0 0 1 2
3487 1 1.81969 -5.42685 0.02 0 0 0 1 2
3486 1 1.83105 -5.62458 0.02 0 0 0 1 2
3287 1 2.73472 -3.61387 0.02 0 0 0 1 2
3285 1 2.73799 -3.82989 0.02 0 0 0 1 2
3283 1 2.55005 -3.81852 0.02 0 0 0 1 2
3284 1 2.54651 -3.60455 0.02 0 0 0 1 2
3286 1 2.93009 -3.87894 0.02 0 -7.98631e-32 3.21143e-31 1 2
3288 1 2.9279 -3.67917 0.02 0 0 0 1 2
3345 1 1.67226 -1.12914 0.02 0 0 0 1 2
3469 1 1.78612 -6.0226 0.02 0 -1.19166e-09 2.60079e-09 1 2
3453 1 1.77196 -6.21492 0.02 0 7.29381e-08 1.4477e-07 1 2
3452 1 1.77648 -6.39636 0.02 0 3.85163e-06 5.11433e-06 1 2
3300 1 2.52833 -3.17752 0.02 0 0 0 1 2
3299 1 2.52848 -3.39246 0.02 0 0 0 1 2
3303 1 2.71855 -3.1789 0.02 0 0 0 1 2
3302 1 2.71862 -3.39236 0.02 0 0 0 1 2
3378 1 1.68147 -2.0601 0.02 0 0 0 1 2
3301 1 2.90536 -3.47352 0.02 0 -1.32527e-30 -1.82447e-30 1 2
3304 1 2.904 -3.2637 0.02 0 -8.30338e-30 -1.12052e-29 1 2
3393 1 1.71947 -2.25202 0.02 0 0 0 1 2
3074 1 2.42822 -0.114362 0.02 0 0 0 1 2
3071 1 2.62737 -0.152625 0.02 0 -1.14261e-26 -6.7549e-27 1 2
3173 1 2.5098 -2.96044 0.02 0 0 0 1 2
3172 1 2.51048 -2.75075 0.02 0 0 0 1 2
3170 1 2.70397 -2.96783 0.02 0 -2.05409e-28 -7.20193e-29 1 2
3169 1 2.70754 -2.76422 0.02 0 -3.93987e-26 -1.28287e-26 1 2
3171 1 2.89058 -3.04285 0.02 0 -4.27346e-26 -2.73046e-26 1 2
3168 1 2.89875 -2.82939 0.02 0 -6.29933e-24 -3.63853e-24 1 2
3167 1 2.90526 -2.61946 0.02 0 -6.13092e-23 -1.13557e-23 1 2
3408 1 1.72238 -2.85882 0.02 0 0 0 1 2
3407 1 1.71655 -2.65703 0.02 0 0 0 1 2
3073 1 2.65933 -0.356455 0.02 0 -9.11918e-30 4.03592e-30 1 2
3070 1 2.81908 -0.140142 0.02 0 -1.11396e-23 -8.05723e-24 1 2
3156 1 2.50227 -2.34122 0.02 0 0 0 1 2
3154 1 2.7042 -2.36315 0.02 0 -3.63163e-25 9.11341e-27 1 2
3155 1 2.71048 -2.56319 0.02 0 -5.45873e-25 -3.42983e-26 1 2
3157 1 2.5137 -2.54458 0.02 0 0 0 1 2
3529 1 1.68504 -3.93522 0.02 0 0 0 1 2
3153 1 2.90342 -2.41286 0.02 0 -7.74261e-23 4.50034e-24 1 2
3152 1 2.90527 -2.20648 0.02 0 -3.65952e-23 8.81536e-24 1 2
3528 1 1.68725 -4.18255 0.02 0 0 0 1 2
3075 1 2.45649 -0.314496 0.02 0 0 0 1 2
3470 1 1.8107 -5.82321 0.02 0 -9.44826e-12 1.72283e-11 1 2
3138 1 2.67666 -1.96891 0.02 0 -7.44926e-26 -7.02131e-27 1 2
3139 1 2.70555 -2.16607 0.02 0 -1.47305e-25 2.41141e-26 1 2
3136 1 2.68357 -1.77545 0.02 0 -2.81214e-25 -1.36877e-26 1 2
3140 1 2.47706 -1.93796 0.02 0 0 0 1 2
3141 1 2.50094 -2.14214 0.02 0 0 0 1 2
3091 1 2.49749 -0.707446 0.02 0 0 0 1 2
3516 1 1.69678 -4.40594 0.02 0 0 0 1 2
3137 1 2.87801 -2.00032 0.02 0 -1.75957e-23 -4.41092e-24 1 2
3135 1 2.88821 -1.79973 0.02 0 -7.54917e-23 -6.68948e-24 1 2
3514 1 1.70466 -4.62064 0.02 0 0 0 1 2
3502 1 1.69801 -4.82684 0.02 0 0 0 1 2
3121 1 2.50375 -1.31101 0.02 0 0 0 1 2
3120 1 2.68799 -1.58116 0.02 0 -1.94075e-25 3.25674e-26 1 2
3118 1 2.69912 -1.38137 0.02 0 -2.34783e-26 4.46545e-27 1 2
3122 1 2.50029 -1.52107 0.02 0 0 0 1 2
3123 1 2.48126 -1.73196 0.02 0 0 0 1 2
3500 1 1.68545 -5.03037 0.02 0 0 0 1 2
3119 1 2.88723 -1.59823 0.02 0 -5.05837e-23 1.0362e-23 1 2
3332 1 1.69612 -0.543963 0.02 0 0 0 1 2
3088 1 2.88723 -0.792507 0.02 0 -6.57735e-24 -2.34812e-24 1 2
3333 1 1.70927 -0.743731 0.02 0 0 0 1 2
3117 1 2.90301 -1.40049 0.02 0 -1.59353e-23 6.53523e-24 1 2
3107 1 2.49887 -0.907127 0.02 0 0 0 1 2
3108 1 2.5051 -1.10797 0.02 0 0 0 1 2
3104 1 2.6963 -0.97562 0.02 0 -2.89062e-27 -1.45359e-27 1 2
3106 1 2.70173 -1.17986 0.02 0 -4.15345e-30 2.00443e-30 1 2
3318 1 1.65972 -0.340589 0.02 0 0 0 1 2
3105 1 2.90185 -1.20089 0.02 0 -8.0056e-25 6.17516e-25 1 2
3103 1 2.89516 -0.998532 0.02 0 -8.31654e-25 -7.81964e-25 1 2
3086 1 2.884 -0.578435 0.02 0 -3.29652e-24 7.27793e-25 1 2
3090 1 2.49759 -0.511003 0.02 0 0 0 1 2
3089 1 2.6915 -0.771323 0.02 0 -1.15554e-25 -2.0251e-26 1 2
3434 1 1.57755 -6.75088 0.02 0 -6.00763e-05 -4.46408e-05 1 2
3436 1 1.5837 -6.5675 0.02 0 -6.71562e-07 3.05198e-06 1 2
3449 1 1.55177 -6.39041 0.02 0 1.27569e-10 2.5254e-10 1 2
3451 1 1.57124 -6.20886 0.02 0 2.19468e-12 5.91133e-12 1 2
3513 1 1.51765 -4.58327 0.02 0 0 0 1 2
3527 1 1.51779 -4.12694 0.02 0 0 0 1 2
3561 1 1.5845 -3.26538 0.02 0 0 0 1 2
3562 1 1.56321 -3.05797 0.02 0 0 0 1 2
3411 1 1.52273 -2.86136 0.02 0 0 0 1 2
3394 1 1.52284 -2.27334 0.02 0 0 0 1 2
3396 1 1.54663 -2.47108 0.02 0 0 0 1 2
3061 1 2.59255 0.052024 0.02 0 -7.48283e-25 -4.21467e-26 1 2
3060 1 2.58228 0.259957 0.02 0 -3.66605e-24 -7.45136e-26 1 2
3062 1 2.78406 0.0724965 0.02 0 -1.11263e-22 -2.87751e-23 1 2
3063 1 2.77608 0.280002 0.02 0 -3.02364e-22 -4.01815e-23 1 2
3064 1 2.96783 0.23308 0.02 0 -1.0533e-20 -2.4931e-21 1 2
3065 1 2.97447 0.0223507 0.02 0 -3.4465e-21 -1.57538e-21 1 2
3531 1 1.73543 5.95902 0.02 0 1.12773e-11 -4.04993e-11 1 2
3517 1 1.72757 5.54857 0.02 0 0 0 1 2
3075 1 2.56386 0.680704 0.02 0 -2.11179e-24 3.40351e-26 1 2
3074 1 2.57028 0.469286 0.02 0 -4.23122e-24 -7.68638e-26 1 2
3076 1 2.76642 0.481996 0.02 0 -3.59701e-22 9.02329e-26 1 2
3077 1 2.75756 0.685826 0.02 0 -2.01771e-22 1.95016e-23 1 2
3079 1 2.96674 0.438466 0.02 0 -1.76646e-20 -7.94368e-22 1 2
3451 1 1.65072 3.77386 0.02 0 0 0 1 2
3078 1 2.95011 0.641213 0.02 0 -1.30634e-20 1.13265e-21 1 2
3516 1 1.73286 5.34709 0.02 0 0 0 1 2
3545 1 1.73559 6.16206 0.02 0 1.29482e-08 -3.6771e-08 1 2
3093 1 2.62484 1.09277 0.02 0 -4.86174e-25 6.28113e-26 1 2
3095 1 2.65909 1.28998 0.02 0 -8.19541e-26 3.89962e-26 1 2
3090 1 2.45313 1.27685 0.02 0 0 0 1 2
3089 1 2.42728 1.07701 0.02 0 0 0 1 2
3091 1 2.5875 0.88943 0.02 0 -9.05293e-25 -1.05231e-26 1 2
3094 1 2.82025 1.08613 0.02 0 -9.85587e-23 2.97106e-23 1 2
3092 1 2.78802 0.884588 0.02 0 -1.7251e-22 2.68694e-23 1 2
3435 1 1.64111 3.16637 0.02 0 0 0 1 2
3372 1 1.65252 1.43675 0.02 0 0 0 1 2
3096 1 2.86023 1.28632 0.02 0 -1.62619e-23 1.10269e-23 1 2
3454 1 1.84745 3.76181 0.02 0 0 0 1 2
3453 1 1.85816 3.56006 0.02 0 0 0 1 2
3109 1 2.71465 1.48123 0.02 0 -7.07015e-29 6.172e-29 1 2
3108 1 2.54617 1.66421 0.02 0 0 0 1 2
3107 1 2.5065 1.47043 0.02 0 0 0 1 2
3111 1 2.75368 1.67257 0.02 0 -1.46689e-29 1.29057e-29 1 2
3112 1 2.96245 1.6776 0.02 0 -1.72192e-26 2.96773e-26 1 2
3110 1 2.91436 1.48088 0.02 0 -2.87435e-25 3.948e-25 1 2
3546 1 1.74926 6.3604 0.02 0 2.541e-06 -4.73685e-06 1 2
3503 1 1.70704 5.14978 0.02 0 0 0 1 2
454 2 2.6 9.6 0 0 0 0 1 5
3123 1 2.58036 2.04173 0.02 0 0 0 1 2
3122 1 2.57911 1.85191 0.02 0 0 0 1 2
3124 1 2.79861 1.85816 0.02 0 0 0 1 2
3125 1 2.78281 2.04562 0.02 0 0 0 1 2
3358 1 1.59118 1.2563 0.02 0 0 0 1 2
3357 1 1.60811 1.07006 0.02 0 0 0 1 2
3438 1 1.86284 3.35883 0.02 0 0 0 1 2
3437 1 1.83576 3.16435 0.02 0 0 0 1 2
3136 1 2.56013 2.40818 0.02 0 0 0 1 2
3137 1 2.54742 2.58999 0.02 0 0 0 1 2
3138 1 2.58438 2.22821 0.02 0 0 0 1 2
3139 1 2.81699 2.22749 0.02 0 0 0 1 2
3140 1 2.78567 2.4033 0.02 0 0 0 1 2
3141 1 2.77158 2.58381 0.02 0 0 0 1 2
3502 1 1.72021 4.95586 0.02 0 0 0 1 2
3326 1 1.6091 0.0663726 0.02 0 0 0 1 2
3406 1 1.6964 2.36881 0.02 0 0 0 1 2
3408 1 1.73377 2.1774 0.02 0 0 0 1 2
3374 1 1.86392 1.44954 0.02 0 0 0 1 2
3361 1 1.81516 1.26123 0.02 0 0 0 1 2
3157 1 2.71555 2.75989 0.02 0 -1.95091e-31 -2.79502e-31 1 2
3158 1 2.68888 2.94667 0.02 0 -3.88171e-28 -3.53784e-28 1 2
3156 1 2.49219 2.76998 0.02 0 0 0 1 2
3155 1 2.49111 2.9663 0.02 0 -2.51217e-31 -8.56575e-32 1 2
3485 1 1.71676 4.75991 0.02 0 0 0 1 2
3159 1 2.88608 2.94817 0.02 0 -8.74681e-28 -1.87655e-27 1 2
3160 1 2.94371 2.76421 0.02 0 -3.34956e-30 -1.52509e-29 1 2
3393 1 1.75035 1.98498 0.02 0 0 0 1 2
455 2 2.8 9.6 0 0 0 0 1 5
3170 1 2.44796 3.16089 0.02 0 -2.8492e-29 -3.63218e-30 1 2
3174 1 2.66434 3.32717 0.02 0 -5.39111e-26 -1.55389e-26 1 2
3172 1 2.66296 3.13641 0.02 0 -6.58645e-27 -3.13406e-27 1 2
3171 1 2.47188 3.3575 0.02 0 -4.07146e-28 -9.86129e-30 1 2
3484 1 1.70845 4.56764 0.02 0 0 0 1 2
3173 1 2.88969 3.13863 0.02 0 -2.35255e-26 -2.92945e-26 1 2
3175 1 2.86036 3.32702 0.02 0 -2.51031e-25 -1.49402e-25 1 2
3560 1 1.77102 6.55615 0.02 0 -1.55573e-05 -4.87071e-06 1 2
488 2 2.6 9.8 0 0 0 0 1 5
3184 1 2.45443 3.54804 0.02 0 -2.5273e-28 2.09936e-29 1 2
3189 1 2.73001 3.71568 0.02 0 -9.22605e-26 5.13768e-26 1 2
3187 1 2.67454 3.52417 0.02 0 -1.34144e-25 7.53834e-27 1 2
3185 1 2.50811 3.89884 0.02 0 0 0 1 2
3186 1 2.52232 3.71725 0.02 0 -1.14658e-27 2.82495e-28 1 2
3188 1 2.88851 3.51835 0.02 0 -7.71543e-25 6.06288e-26 1 2
3190 1 2.92881 3.70997 0.02 0 -2.0049e-25 2.45356e-25 1 2
3191 1 2.91512 3.90791 0.02 0 -9.3096e-27 2.03727e-26 1 2
3530 1 1.72246 5.75078 0.02 0 0 0 1 2
3483 1 1.68162 4.37403 0.02 0 0 0 1 2
489 2 2.8 9.8 0 0 0 0 1 5
452 2 2.2 9.6 0 0 0 0 1 5
3207 1 2.67967 4.31636 0.02 0 0 0 1 2
3205 1 2.71156 4.11818 0.02 0 0 0 1 2
3204 1 2.7146 3.91662 0.02 0 -2.17906e-27 2.14847e-27 1 2
3202 1 2.51147 4.08785 0.02 0 0 0 1 2
3203 1 2.48197 4.2803 0.02 0 0 0 1 2
3469 1 1.67478 4.17437 0.02 0 0 0 1 2
3206 1 2.90622 4.11088 0.02 0 -6.63471e-30 2.10528e-29 1 2
3208 1 2.87268 4.32326 0.02 0 0 0 1 2
3468 1 1.66486 3.97633 0.02 0 0 0 1 2
3452 1 1.66832 3.56784 0.02 0 0 0 1 2
453 2 2.4 9.6 0 0 0 0 1 5
485 2 2 9.8 0 0 0 0 1 5
3220 1 2.47527 4.48606 0.02 0 0 0 1 2