ITEM: TIMESTEP
10000
ITEM: NUMBER OF ATOMS
1064
ITEM: BOX BOUNDS ff ff pp
0.0000000000000000e+00 4.4000000000000004e+00
-1.0000000000000000e+01 1.0000000000000000e+01
-2.0000000000000000e-02 2.0000000000000000e-02
ITEM: ATOMS id type x y vx vy fx fy c_den c_phase
1509 2 2 -10 0 0 0 0 1 5
1510 2 2.2 -10 0 0 0 0 1 5
1511 2 2.4 -10 0 0 0 0 1 5
1543 2 2 -9.8 0 0 0 0 1 5
1544 2 2.2 -9.8 0 0 0 0 1 5
1545 2 2.4 -9.8 0 0 0 0 1 5
1577 2 2 -9.6 0 0 0 0 1 5
1578 2 2.2 -9.6 0 0 0 0 1 5
1579 2 2.4 -9.6 0 0 0 0 1 5
1512 2 2.6 -10 0 0 0 0 1 5
1513 2 2.8 -10 0 0 0 0 1 5
1546 2 2.6 -9.8 0 0 0 0 1 5
1547 2 2.8 -9.8 0 0 0 0 1 5
1580 2 2.6 -9.6 0 0 0 0 1 5
1581 2 2.8 -9.6 0 0 0 0 1 5
1645 2 2 -9.2 0 0 0 0 1 5
1646 2 2.2 -9.2 0 0 0 0 1 5
1647 2 2.4 -9.2 0 0 0 0 1 5
1613 2 2.4 -9.4 0 0 0 0 1 5
1612 2 2.2 -9.4 0 0 0 0 1 5
1611 2 2 -9.4 0 0 0 0 1 5
1648 2 2.6 -9.2 0 0 0 0 1 5
1649 2 2.8 -9.2 0 0 0 0 1 5
1615 2 2.8 -9.4 0 0 0 0 1 5
1614 2 2.6 -9.4 0 0 0 0 1 5
1679 2 2 -9 0 0 0 0 1 5
1680 2 2.2 -9 0 0 0 0 1 5
1681 2 2.4 -9 0 0 0 0 1 5
1713 2 2 -8.8 0 0 0 0 1 5
1714 2 2.2 -8.8 0 0 0 0 1 5
1715 2 2.4 -8.8 0 0 0 0 1 5
1682 2 2.6 -9 0 0 0 0 1 5
1683 2 2.8 -9 0 0 0 0 1 5
1716 2 2.6 -8.8 0 0 0 0 1 5
1717 2 2.8 -8.8 0 0 0 0 1 5
1783 2 2.4 -8.4 0 0 0 0 1 5
1782 2 2.2 -8.4 0 0 0 0 1 5
1781 2 2 -8.4 0 0 0 0 1 5
1747 2 2 -8.6 0 0 0 0 1 5
1748 2 2.2 -8.6 0 0 0 0 1 5
1749 2 2.4 -8.6 0 0 0 0 1 5
1785 2 2.8 -8.4 0 0 0 0 1 5
1784 2 2.6 -8.4 0 0 0 0 1 5
1750 2 2.6 -8.6 0 0 0 0 1 5
1751 2 2.8 -8.6 0 0 0 0 1 5
1851 2 2.4 -8 0 0 0 0 1 5
1850 2 2.2 -8 0 0 0 0 1 5
1849 2 2 -8 0 0 0 0 1 5
1817 2 2.4 -8.2 0 0 0 0 1 5
1816 2 2.2 -8.2 0 0 0 0 1 5
1815 2 2 -8.2 0 0 0 0 1 5
1853 2 2.8 -8 0 0 0 0 1 5
1852 2 2.6 -8 0 0 0 0 1 5
1819 2 2.8 -8.2 0 0 0 0 1 5
1818 2 2.6 -8.2 0 0 0 0 1 5
1953 2 2.4 -7.4 0 0 0 0 0.998494 5
1952 2 2.2 -7.4 0 0 0 0 1.00071 5
1951 2 2 -7.4 0 0 0 0 1.00124 5
1919 2 2.4 -7.6 0 0 0 0 1 5
1918 2 2.2 -7.6 0 0 0 0 1 5
1917 2 2 -7.6 0 0 0 0 1 5
1885 2 2.4 -7.8 0 0 0 0 1 5
1884 2 2.2 -7.8 0 0 0 0 1 5
1883 2 2 -7.8 0 0 0 0 1 5
1955 2 2.8 -7.4 0 0 0 0 1.00015 5
1954 2 2.6 -7.4 0 0 0 0 1.00117 5
1921 2 2.8 -7.6 0 0 0 0 1 5
1920 2 2.6 -7.6 0 0 0 0 1 5
1887 2 2.8 -7.8 0 0 0 0 1 5
1886 2 2.6 -7.8 0 0 0 0 1 5
2021 2 2.4 -7 0 0 0 0 0.999868 5
2020 2 2.2 -7 0 0 0 0 0.99995 5
2019 2 2 -7 0 0 0 0 1.00473 5
1987 2 2.4 -7.2 0 0 0 0 0.999803 5
1986 2 2.2 -7.2 0 0 0 0 0.999193 5
1985 2 2 -7.2 0 0 0 0 1.00421 5
2023 2 2.8 -7 0 0 0 0 0.999645 5
2022 2 2.6 -7 0 0 0 0 1.00051 5
1989 2 2.8 -7.2 0 0 0 0 0.999242 5
1988 2 2.6 -7.2 0 0 0 0 1.00102 5
2402 1 2.22252 -6.7545 0.02 0 -0.00235421 -0.000448029 1 2
2404 1 2.26221 -6.57021 0.02 0 0.000370603 0.000679597 1 2
2401 1 2.01881 -6.75534 0.02 0 -0.00448733 -0.000610348 1 2
2400 1 2.0458 -6.58047 0.02 0 -0.000102127 0.000144954 1 2
2408 1 2.66466 -6.56659 0.02 0 0.000133044 0.000551743 1 2
2406 1 2.61891 -6.75641 0.02 0 -0.0029508 -0.000603414 1 2
2403 1 2.42134 -6.73795 0.02 0 -0.00236219 -0.000566575 1 2
2405 1 2.46837 -6.55898 0.02 0 0.000196236 0.00059231 1 2
2407 1 2.81568 -6.75355 0.02 0 -0.00294853 -0.000590888 1 2
2350 1 2.16308 -1.66502 0.02 0 0 0 1 2
2327 1 2.68763 -1.12377 0.02 0 0 0 1 2
2409 1 2.86011 -6.56457 0.02 0 0.00011339 0.000550701 1 2
2312 1 2.69512 -0.698459 0.02 0 0 0 1 2
2313 1 2.4951 -0.722022 0.02 0 0 0 1 2
2418 1 2.27494 -6.38721 0.02 0 0.000152425 0.000193176 1 2
2419 1 2.28498 -6.20378 0.02 0 1.07953e-05 1.90687e-05 1 2
2417 1 2.07257 -6.4079 0.02 0 0.000161892 0.000131549 1 2
2416 1 2.06308 -6.2288 0.02 0 8.13008e-06 8.9493e-06 1 2
2422 1 2.6865 -6.37705 0.02 0 9.43211e-05 0.000156702 1 2
2421 1 2.49538 -6.18987 0.02 0 6.20436e-06 1.39651e-05 1 2
2420 1 2.48227 -6.3754 0.02 0 9.67806e-05 0.000158363 1 2
2423 1 2.69877 -6.184 0.02 0 5.46245e-06 1.28762e-05 1 2
2332 1 2.08404 -1.07209 0.02 0 0 0 1 2
2334 1 2.10798 -1.26707 0.02 0 0 0 1 2
2425 1 2.90466 -6.18589 0.02 0 5.83892e-06 1.40483e-05 1 2
2424 1 2.88512 -6.37392 0.02 0 8.92635e-05 0.000150704 1 2
2311 1 2.4919 -0.517524 0.02 0 0 0 1 2
2330 1 2.07797 -0.880323 0.02 0 0 0 1 2
2432 1 2.26415 -6.01867 0.02 0 1.27962e-07 2.51047e-07 1 2
2433 1 2.22834 -5.82533 0.02 0 2.59799e-10 7.60671e-10 1 2
2430 1 2.03864 -5.85696 0.02 0 0 0 1 2
2431 1 2.05859 -6.0486 0.02 0 8.5998e-08 1.41949e-07 1 2
2436 1 2.67975 -5.99131 0.02 0 2.86464e-08 8.72661e-08 1 2
2437 1 2.62801 -5.80594 0.02 0 3.94686e-11 1.54466e-10 1 2
2434 1 2.42406 -5.81429 0.02 0 7.57291e-11 2.93121e-10 1 2
2435 1 2.47217 -6.00318 0.02 0 4.77365e-08 1.14621e-07 1 2
2333 1 2.30789 -1.29234 0.02 0 0 0 1 2
2331 1 2.29024 -1.09279 0.02 0 0 0 1 2
2439 1 2.8866 -5.99936 0.02 0 3.34468e-08 1.18875e-07 1 2
2438 1 2.84787 -5.81645 0.02 0 6.8405e-11 2.30962e-10 1 2
2329 1 2.27733 -0.894216 0.02 0 0 0 1 2
2293 1 2.86935 -0.31991 0.02 0 0 0 1 2
2445 1 2.24448 -5.62334 0.02 0 0 0 1 2
2447 1 2.24464 -5.41999 0.02 0 0 0 1 2
2444 1 2.05006 -5.64953 0.02 0 0 0 1 2
2446 1 2.05136 -5.44144 0.02 0 0 0 1 2
2448 1 2.04191 -5.23262 0.02 0 0 0 1 2
2452 1 2.64476 -5.61413 0.02 0 0 0 1 2
2454 1 2.63505 -5.41546 0.02 0 0 0 1 2
2449 1 2.44364 -5.61653 0.02 0 0 0 1 2
2450 1 2.43984 -5.41725 0.02 0 0 0 1 2
2451 1 2.42118 -5.21795 0.02 0 0 0 1 2
2456 1 2.81468 -5.2373 0.02 0 0 0 1 2
2324 1 2.8857 -1.16744 0.02 0 0 0 1 2
2325 1 2.66575 -0.904502 0.02 0 0 0 1 2
2455 1 2.83268 -5.43551 0.02 0 0 0 1 2
2453 1 2.84388 -5.63003 0.02 0 0 0 1 2
2310 1 2.68878 -0.49582 0.02 0 0 0 1 2
2317 1 2.06699 -0.695724 0.02 0 0 0 1 2
2463 1 2.22809 -5.2099 0.02 0 0 0 1 2
2465 1 2.2078 -4.99268 0.02 0 0 0 1 2
2464 1 2.02368 -5.01823 0.02 0 0 0 1 2
2468 1 2.61743 -5.21275 0.02 0 0 0 1 2
2469 1 2.58605 -5.00858 0.02 0 0 0 1 2
2471 1 2.56794 -4.8102 0.02 0 0 0 1 2
2466 1 2.3947 -5.01454 0.02 0 0 0 1 2
2467 1 2.37447 -4.80046 0.02 0 0 0 1 2
2472 1 2.76821 -4.82078 0.02 0 0 0 1 2
2470 1 2.7779 -5.03372 0.02 0 0 0 1 2
2323 1 2.85248 -0.964751 0.02 0 0 0 1 2
2475 1 2.96099 -4.97252 0.02 0 0 0 1 2
2328 1 2.49247 -1.12903 0.02 0 0 0 1 2
2315 1 2.08983 -0.514518 0.02 0 0 0 1 2
2316 1 2.2894 -0.701356 0.02 0 0 0 1 2
2486 1 2.2534 -4.36807 0.02 0 0 0 1 2
2483 1 2.20429 -4.57054 0.02 0 0 0 1 2
2485 1 2.05398 -4.3673 0.02 0 0 0 1 2
2482 1 2.01371 -4.57803 0.02 0 0 0 1 2
2481 1 2.18583 -4.77962 0.02 0 0 0 1 2
2490 1 2.63921 -4.42856 0.02 0 0 0 1 2
2488 1 2.59215 -4.61794 0.02 0 0 0 1 2
2487 1 2.44868 -4.37825 0.02 0 0 0 1 2
2484 1 2.39623 -4.58634 0.02 0 0 0 1 2
2489 1 2.79931 -4.61468 0.02 0 0 0 1 2
2348 1 2.13326 -1.46594 0.02 0 0 0 1 2
2358 1 2.84728 -2.12962 0.02 0 0 0 1 2
2491 1 2.8355 -4.40519 0.02 0 0 0 1 2
2359 1 2.82527 -1.93408 0.02 0 0 0 1 2
2314 1 2.29334 -0.507391 0.02 0 0 0 1 2
2308 1 2.8811 -0.538324 0.02 0 0 0 1 2
2500 1 2.27621 -4.16298 0.02 0 0 0 1 2
2502 1 2.28853 -3.95576 0.02 0 0 0 1 2
2499 1 2.07962 -4.16107 0.02 0 0 0 1 2
2501 1 2.09712 -3.95057 0.02 0 0 0 1 2
2505 1 2.66521 -4.22906 0.02 0 0 0 1 2
2507 1 2.6685 -4.02536 0.02 0 0 0 1 2
2503 1 2.47246 -4.17021 0.02 0 0 0 1 2
2504 1 2.48146 -3.95995 0.02 0 0 0 1 2
2338 1 2.91346 -1.36505 0.02 0 0 0 1 2
2362 1 2.41473 -1.89697 0.02 0 0 0 1 2
2508 1 2.85628 -3.97051 0.02 0 0 0 1 2
2506 1 2.86044 -4.18899 0.02 0 0 0 1 2
2341 1 2.70897 -1.33421 0.02 0 0 0 1 2
2292 1 2.84679 -0.10337 0.02 0 0 0 1 2
2518 1 2.31004 -3.53709 0.02 0 0 0 1 2
2517 1 2.31094 -3.74794 0.02 0 0 0 1 2
2515 1 2.12072 -3.73477 0.02 0 0 0 1 2
2516 1 2.12242 -3.51789 0.02 0 0 0 1 2
2521 1 2.68615 -3.8147 0.02 0 0 0 1 2
2522 1 2.68407 -3.59192 0.02 0 0 0 1 2
2519 1 2.50262 -3.75053 0.02 0 0 0 1 2
2520 1 2.499 -3.53879 0.02 0 0 0 1 2
2524 1 2.86715 -3.52636 0.02 0 0 0 1 2
2523 1 2.86491 -3.74165 0.02 0 0 0 1 2
2343 1 2.76184 -1.53732 0.02 0 0 0 1 2
2345 1 2.7687 -1.73756 0.02 0 0 0 1 2
2295 1 2.4598 -0.106487 0.02 0 0 0 1 2
2297 1 2.47568 -0.312394 0.02 0 0 0 1 2
2534 1 2.31986 -3.11224 0.02 0 0 0 1 2
2532 1 2.30041 -3.32282 0.02 0 0 0 1 2
2533 1 2.12568 -3.09498 0.02 0 0 0 1 2
2531 1 2.11446 -3.30217 0.02 0 0 0 1 2
2537 1 2.674 -3.36956 0.02 0 0 0 1 2
2535 1 2.48805 -3.3262 0.02 0 0 0 1 2
2536 1 2.5115 -3.11655 0.02 0 0 0 1 2
2538 1 2.69816 -3.15141 0.02 0 0 0 1 2
2540 1 2.89022 -3.11366 0.02 0 0 0 1 2
2539 1 2.8625 -3.31864 0.02 0 0 0 1 2
2347 1 2.34151 -1.4917 0.02 0 0 0 1 2
2349 1 2.36619 -1.68959 0.02 0 0 0 1 2
2294 1 2.65314 -0.094678 0.02 0 0 0 1 2
2296 1 2.67388 -0.295322 0.02 0 0 0 1 2
2395 1 2.32751 -2.7013 0.02 0 0 0 1 2
2397 1 2.31563 -2.9059 0.02 0 0 0 1 2
2398 1 2.11798 -2.89186 0.02 0 0 0 1 2
2396 1 2.12794 -2.69006 0.02 0 0 0 1 2
2394 1 2.51196 -2.90797 0.02 0 0 0 1 2
2393 1 2.5244 -2.70335 0.02 0 0 0 1 2
2392 1 2.70319 -2.93583 0.02 0 0 0 1 2
2391 1 2.71766 -2.7223 0.02 0 0 0 1 2
2390 1 2.89619 -2.9109 0.02 0 0 0 1 2
2326 1 2.47272 -0.927203 0.02 0 0 0 1 2
2342 1 2.50843 -1.32959 0.02 0 0 0 1 2
2389 1 2.91507 -2.71423 0.02 0 0 0 1 2
2301 1 2.06582 -0.329982 0.02 0 0 0 1 2
2298 1 2.26873 -0.102094 0.02 0 0 0 1 2
2382 1 2.0548 -2.27668 0.02 0 0 0 1 2
2384 1 2.28772 -2.49402 0.02 0 0 0 1 2
2381 1 2.24734 -2.27951 0.02 0 0 0 1 2
2383 1 2.0952 -2.48392 0.02 0 0 0 1 2
2378 1 2.68741 -2.51435 0.02 0 0 0 1 2
2377 1 2.64118 -2.31522 0.02 0 0 0 1 2
2379 1 2.48548 -2.50191 0.02 0 0 0 1 2
2380 1 2.44076 -2.30053 0.02 0 0 0 1 2
2376 1 2.84757 -2.32364 0.02 0 0 0 1 2
2375 1 2.88769 -2.51716 0.02 0 0 0 1 2
2346 1 2.56662 -1.7222 0.02 0 0 0 1 2
2344 1 2.55567 -1.52449 0.02 0 0 0 1 2
2300 1 2.27504 -0.308611 0.02 0 0 0 1 2
2299 1 2.07229 -0.141758 0.02 0 0 0 1 2
2309 1 2.88344 -0.757755 0.02 0 0 0 1 2
2367 1 2.0293 -2.07675 0.02 0 0 0 1 2
2365 1 2.01955 -1.87308 0.02 0 0 0 1 2
2366 1 2.23365 -2.07103 0.02 0 0 0 1 2
2364 1 2.21674 -1.86633 0.02 0 0 0 1 2
2361 1 2.64288 -2.11789 0.02 0 0 0 1 2
2360 1 2.61829 -1.92107 0.02 0 0 0 1 2
2363 1 2.43726 -2.09908 0.02 0 0 0 1 2
2287 1 2.27162 0.336851 0.02 0 0 0 1 2
2289 1 2.27101 0.118798 0.02 0 0 0 1 2
2288 1 2.09078 0.0560054 0.02 0 0 0 1 2
2286 1 2.09147 0.270665 0.02 0 0 0 1 2
2290 1 2.64223 0.107583 0.02 0 0 0 1 2
2292 1 2.64669 0.312641 0.02 0 0 0 1 2
2291 1 2.45917 0.320533 0.02 0 0 0 1 2
2293 1 2.45483 0.105539 0.02 0 0 0 1 2
2295 1 2.83107 0.116355 0.02 0 0 0 1 2
2294 1 2.8325 0.337272 0.02 0 0 0 1 2
179 2 2 8 0 0 0 0 1 5
180 2 2.2 8 0 0 0 0 1 5
421 2 2.8 9.4 0 0 0 0 1 5
420 2 2.6 9.4 0 0 0 0 1 5
2304 1 2.00926 0.705152 0.02 0 0 0 1 2
2303 1 2.25477 0.544272 0.02 0 0 0 1 2
2302 1 2.07184 0.488378 0.02 0 0 0 1 2
2305 1 2.19386 0.743507 0.02 0 0 0 1 2
2308 1 2.64547 0.523799 0.02 0 0 0 1 2
2309 1 2.58859 0.730074 0.02 0 0 0 1 2
2307 1 2.45214 0.528996 0.02 0 0 0 1 2
2306 1 2.39076 0.728702 0.02 0 0 0 1 2
2310 1 2.78505 0.744519 0.02 0 0 0 1 2
181 2 2.4 8 0 0 0 0 1 5
213 2 2 8.2 0 0 0 0 1 5
2311 1 2.83594 0.547152 0.02 0 0 0 1 2
387 2 2.8 9.2 0 0 0 0 1 5
386 2 2.6 9.2 0 0 0 0 1 5
2318 1 2.20264 0.941402 0.02 0 0 0 1 2
2319 1 2.18054 1.13505 0.02 0 0 0 1 2
2322 1 2.6125 0.935026 0.02 0 0 0 1 2
2323 1 2.59218 1.13418 0.02 0 0 0 1 2
2320 1 2.41061 0.925911 0.02 0 0 0 1 2
2321 1 2.38814 1.12143 0.02 0 0 0 1 2
2325 1 2.79863 1.13869 0.02 0 0 0 1 2
2324 1 2.81181 0.942347 0.02 0 0 0 1 2
214 2 2.2 8.2 0 0 0 0 1 5
81 2 2.8 7.4 0 0 0 0 0.997811 5
418 2 2.2 9.4 0 0 0 0 1 5
417 2 2 9.4 0 0 0 0 1 5
385 2 2.4 9.2 0 0 0 0 1 5
2337 1 2.31645 1.51418 0.02 0 0 0 1 2
2338 1 2.30696 1.71282 0.02 0 0 0 1 2
2335 1 2.11427 1.52478 0.02 0 0 0 1 2
2336 1 2.10411 1.72167 0.02 0 0 0 1 2
2334 1 2.13653 1.32777 0.02 0 0 0 1 2
2340 1 2.54647 1.32832 0.02 0 0 0 1 2
2341 1 2.52111 1.52127 0.02 0 0 0 1 2
2342 1 2.51039 1.71271 0.02 0 0 0 1 2
2339 1 2.34364 1.31688 0.02 0 0 0 1 2
2343 1 2.71319 1.72513 0.02 0 0 0 1 2
2344 1 2.74934 1.33266 0.02 0 0 0 1 2
2345 1 2.72892 1.52876 0.02 0 0 0 1 2
2347 1 2.93895 1.50616 0.02 0 0 0 1 2
2346 1 2.95805 1.31601 0.02 0 0 0 1 2
2348 1 2.91521 1.69926 0.02 0 0 0 1 2
353 2 2.8 9 0 0 0 0 1 5
352 2 2.6 9 0 0 0 0 1 5
2355 1 2.28225 1.90792 0.02 0 0 0 1 2
2356 1 2.28954 2.10177 0.02 0 0 0 1 2
2353 1 2.07086 1.91195 0.02 0 0 0 1 2
2354 1 2.08281 2.10066 0.02 0 0 0 1 2
2360 1 2.68765 2.11413 0.02 0 0 0 1 2
2358 1 2.48821 2.09299 0.02 0 0 0 1 2
2357 1 2.49392 1.90235 0.02 0 0 0 1 2
2359 1 2.70326 1.92009 0.02 0 0 0 1 2
247 2 2 8.4 0 0 0 0 1 5
2362 1 2.89062 2.09454 0.02 0 0 0 1 2
2361 1 2.90829 1.89614 0.02 0 0 0 1 2
319 2 2.8 8.8 0 0 0 0 1 5
489 2 2.8 9.8 0 0 0 0 1 5
2367 1 2.02367 2.27614 0.02 0 0 0 1 2
2368 1 2.03124 2.4548 0.02 0 0 0 1 2
2370 1 2.26337 2.46684 0.02 0 0 0 1 2
2369 1 2.24983 2.28563 0.02 0 0 0 1 2
2374 1 2.68156 2.48427 0.02 0 0 0 1 2
2371 1 2.48577 2.28195 0.02 0 0 0 1 2
2372 1 2.46701 2.46409 0.02 0 0 0 1 2
2373 1 2.71084 2.30172 0.02 0 0 0 1 2
2376 1 2.91332 2.48033 0.02 0 0 0 1 2
2375 1 2.91994 2.28888 0.02 0 0 0 1 2
318 2 2.6 8.8 0 0 0 0 1 5
350 2 2.2 9 0 0 0 0 1 5
2381 1 1.99967 2.63076 0.02 0 0 0 1 2
2383 1 2.03753 2.80986 0.02 0 0 0 1 2
2385 1 2.28366 2.80866 0.02 0 0 0 1 2
2382 1 2.22106 2.63956 0.02 0 0 0 1 2
2384 1 2.13196 2.97258 0.02 0 0 0 1 2
2389 1 2.55586 2.99621 0.02 0 0 0 1 2
2387 1 2.49678 2.64036 0.02 0 0 0 1 2
2388 1 2.49284 2.8171 0.02 0 0 0 1 2
2386 1 2.3418 2.99988 0.02 0 0 0 1 2
2392 1 2.76695 3.01138 0.02 0 0 0 1 2
2391 1 2.75254 2.65315 0.02 0 0 0 1 2
2390 1 2.71566 2.82876 0.02 0 0 0 1 2
80 2 2.6 7.4 0 0 0 0 0.996437 5
2394 1 2.95394 2.85047 0.02 0 0 0 1 2
149 2 2.8 7.8 0 0 0 0 1 5
351 2 2.4 9 0 0 0 0 1 5
315 2 2 8.8 0 0 0 0 1 5
419 2 2.4 9.4 0 0 0 0 1 5
2403 1 2.18262 3.35953 0.02 0 0 0 1 2
2402 1 2.14451 3.16345 0.02 0 0 0 1 2
2407 1 2.58767 3.38149 0.02 0 0 0 1 2
2406 1 2.55132 3.18701 0.02 0 0 0 1 2
2404 1 2.34949 3.19806 0.02 0 0 0 1 2
2405 1 2.38779 3.39618 0.02 0 0 0 1 2
2409 1 2.79102 3.39844 0.02 0 0 0 1 2
2408 1 2.76034 3.20444 0.02 0 0 0 1 2
148 2 2.6 7.8 0 0 0 0 1 5
114 2 2.6 7.6 0 0 0 0 1 5
384 2 2.2 9.2 0 0 0 0 1 5
383 2 2 9.2 0 0 0 0 1 5
2416 1 2.01859 3.55811 0.02 0 0 0 1 2
2418 1 2.0717 3.7432 0.02 0 0 0 1 2
2419 1 2.28167 3.75439 0.02 0 0 0 1 2
2417 1 2.22667 3.55836 0.02 0 0 0 1 2
2421 1 2.64013 3.57987 0.02 0 0 0 1 2
2422 1 2.49728 3.77943 0.02 0 0 0 1 2
2420 1 2.43705 3.59067 0.02 0 0 0 1 2
2423 1 2.70614 3.7745 0.02 0 0 0 1 2
182 2 2.6 8 0 0 0 0 1 5
2424 1 2.84727 3.59397 0.02 0 0 0 1 2
2426 1 2.91568 3.78488 0.02 0 0 0 1 2
316 2 2.2 8.8 0 0 0 0 1 5
488 2 2.6 9.8 0 0 0 0 1 5
2433 1 2.12382 4.13251 0.02 0 0 0 1 2
2432 1 2.2925 3.95088 0.02 0 0 0 1 2
2434 1 2.32345 4.15098 0.02 0 0 0 1 2
2431 1 2.08975 3.93519 0.02 0 0 0 1 2
2435 1 2.15339 4.33685 0.02 0 0 0 1 2
2438 1 2.52935 4.16123 0.02 0 0 0 1 2
2436 1 2.49698 3.97068 0.02 0 0 0 1 2
2439 1 2.73496 4.17176 0.02 0 0 0 1 2
2437 1 2.70385 3.9719 0.02 0 0 0 1 2
2442 1 2.9385 4.17466 0.02 0 0 0 1 2
2440 1 2.90871 3.97949 0.02 0 0 0 1 2
317 2 2.4 8.8 0 0 0 0 1 5
349 2 2 9 0 0 0 0 1 5
2447 1 2.18722 4.73823 0.02 0 0 0 1 2
2446 1 2.14322 4.54315 0.02 0 0 0 1 2
2455 1 2.58746 4.7499 0.02 0 0 0 1 2
2453 1 2.55378 4.55042 0.02 0 0 0 1 2
2451 1 2.54875 4.3547 0.02 0 0 0 1 2
2448 1 2.34946 4.35183 0.02 0 0 0 1 2
2449 1 2.34714 4.55067 0.02 0 0 0 1 2
2450 1 2.39104 4.7463 0.02 0 0 0 1 2
2452 1 2.74562 4.37884 0.02 0 0 0 1 2
2454 1 2.75479 4.59118 0.02 0 0 0 1 2
2458 1 2.94891 4.57757 0.02 0 0 0 1 2
2456 1 2.94127 4.37456 0.02 0 0 0 1 2
285 2 2.8 8.6 0 0 0 0 1 5
284 2 2.6 8.6 0 0 0 0 1 5
251 2 2.8 8.4 0 0 0 0 1 5
2464 1 2.18233 5.14001 0.02 0 0 0 1 2
2463 1 2.17994 4.93604 0.02 0 0 0 1 2
2468 1 2.57722 4.96189 0.02 0 0 0 1 2
2470 1 2.55679 5.18165 0.02 0 0 0 1 2
2465 1 2.37556 5.1407 0.02 0 0 0 1 2
2466 1 2.38093 4.94279 0.02 0 0 0 1 2
2467 1 2.7653 4.82086 0.02 0 0 0 1 2
2469 1 2.75455 5.04089 0.02 0 0 0 1 2
2471 1 2.94521 4.78906 0.02 0 0 0 1 2
2472 1 2.93927 5.01453 0.02 0 0 0 1 2
183 2 2.8 8 0 0 0 0 1 5
250 2 2.6 8.4 0 0 0 0 1 5
455 2 2.8 9.6 0 0 0 0 1 5
454 2 2.6 9.6 0 0 0 0 1 5
2480 1 2.11674 5.55378 0.02 0 0 0 1 2
2479 1 2.33483 5.34326 0.02 0 0 0 1 2
2481 1 2.30774 5.56701 0.02 0 0 0 1 2
2478 1 2.14895 5.35095 0.02 0 0 0 1 2
2486 1 2.68941 5.64819 0.02 0 0 0 1 2
2485 1 2.49474 5.61046 0.02 0 0 0 1 2
2483 1 2.50935 5.40353 0.02 0 0 0 1 2
2484 1 2.69642 5.45106 0.02 0 0 0 1 2
2482 1 2.72727 5.25393 0.02 0 0 0 1 2
2488 1 2.91273 5.24183 0.02 0 0 0 1 2
2489 1 2.89848 5.44829 0.02 0 0 0 1 2
2487 1 2.88709 5.64948 0.02 0 0 0 1 2
216 2 2.6 8.2 0 0 0 0 1 5
217 2 2.8 8.2 0 0 0 0 1 5
451 2 2 9.6 0 0 0 0 1 5
487 2 2.4 9.8 0 0 0 0 1 5
2496 1 2.07548 5.95702 0.02 0 0 0 1 2
2494 1 2.08914 5.75532 0.02 0 1.57592e-13 -3.70884e-13 1 2
2495 1 2.27295 5.7821 0.02 0 5.47232e-12 -1.32821e-11 1 2
2497 1 2.28316 5.98504 0.02 0 5.77391e-08 -1.71765e-07 1 2
2499 1 2.65628 5.83848 0.02 0 2.09006e-10 -6.79198e-10 1 2
2500 1 2.49103 6.0091 0.02 0 7.42206e-08 -2.28083e-07 1 2
2498 1 2.45964 5.80954 0.02 0 3.03401e-11 -9.72111e-11 1 2
2501 1 2.70203 6.02331 0.02 0 9.62616e-08 -2.59918e-07 1 2
2502 1 2.86873 5.83904 0.02 0 1.94523e-10 -6.20649e-10 1 2
2504 1 2.91132 6.0222 0.02 0 1.01486e-07 -2.65896e-07 1 2
283 2 2.4 8.6 0 0 0 0 1 5
215 2 2.4 8.2 0 0 0 0 1 5
486 2 2.2 9.8 0 0 0 0 1 5
485 2 2 9.8 0 0 0 0 1 5
2510 1 2.08528 6.34367 0.02 0 -5.65635e-08 1.13969e-08 1 2
2508 1 2.08831 6.14981 0.02 0 6.26984e-10 -4.13915e-10 1 2
2509 1 2.2926 6.17564 0.02 0 7.53637e-06 -1.42209e-05 1 2
2511 1 2.28697 6.36341 0.02 0 0.000127857 -0.000157771 1 2
2514 1 2.49141 6.38626 0.02 0 0.000140494 -0.000182002 1 2
2512 1 2.50138 6.1991 0.02 0 9.45902e-06 -1.66342e-05 1 2
2513 1 2.71462 6.20609 0.02 0 8.9743e-06 -1.6161e-05 1 2
2515 1 2.69969 6.38403 0.02 0 0.000111131 -0.000147619 1 2
2516 1 2.92005 6.20958 0.02 0 9.60818e-06 -1.66855e-05 1 2
2518 1 2.92143 6.39243 0.02 0 0.000115307 -0.000147338 1 2
282 2 2.2 8.6 0 0 0 0 1 5
281 2 2 8.6 0 0 0 0 1 5
453 2 2.4 9.6 0 0 0 0 1 5
452 2 2.2 9.6 0 0 0 0 1 5
2525 1 2.33625 6.73857 0.02 0 -0.00221895 0.000292593 1 2
2523 1 2.33095 6.55154 0.02 0 0.000434378 -0.000491561 1 2
2524 1 2.15161 6.73003 0.02 0 -0.00342133 0.000180672 1 2
2522 1 2.13351 6.53654 0.02 0 -0.000415244 9.38943e-05 1 2
2528 1 2.53396 6.76272 0.02 0 -0.00300065 0.000394874 1 2
2526 1 2.52962 6.57346 0.02 0 0.00021154 -0.000412003 1 2
2527 1 2.72488 6.56304 0.02 0 0.000133705 -0.000378413 1 2
2529 1 2.74228 6.74606 0.02 0 -0.00270802 0.000452429 1 2
2532 1 2.92346 6.56971 0.02 0 0.000141859 -0.00043507 1 2
2531 1 2.95223 6.745 0.02 0 -0.00287421 0.000499453 1 2
249 2 2.4 8.4 0 0 0 0 1 5
248 2 2.2 8.4 0 0 0 0 1 5
9 2 2 7 0 0 0 0 1.00932 5
10 2 2.2 7 0 0 0 0 1.00327 5
11 2 2.4 7 0 0 0 0 1.001 5
43 2 2 7.2 0 0 0 0 1.00907 5
44 2 2.2 7.2 0 0 0 0 1.0031 5
45 2 2.4 7.2 0 0 0 0 1.00193 5
12 2 2.6 7 0 0 0 0 0.999634 5
13 2 2.8 7 0 0 0 0 0.999738 5
46 2 2.6 7.2 0 0 0 0 0.999287 5
47 2 2.8 7.2 0 0 0 0 0.999374 5
145 2 2 7.8 0 0 0 0 1 5
146 2 2.2 7.8 0 0 0 0 1 5
147 2 2.4 7.8 0 0 0 0 1 5
113 2 2.4 7.6 0 0 0 0 1 5
112 2 2.2 7.6 0 0 0 0 1 5
111 2 2 7.6 0 0 0 0 1 5
77 2 2 7.4 0 0 0 0 1.00817 5
78 2 2.2 7.4 0 0 0 0 1.00078 5
79 2 2.4 7.4 0 0 0 0 1.00615 5
115 2 2.8 7.6 0 0 0 0 1 5
1583 2 3.2 -9.6 0 0 0 0 1 5
1582 2 3 -9.6 0 0 0 0 1 5
1549 2 3.2 -9.8 0 0 0 0 1 5
1548 2 3 -9.8 0 0 0 0 1 5
1515 2 3.2 -10 0 0 0 0 1 5
1514 2 3 -10 0 0 0 0 1 5
1584 2 3.4 -9.6 0 0 0 0 1 5
1550 2 3.4 -9.8 0 0 0 0 1 5
1516 2 3.4 -10 0 0 0 0 1 5
1586 2 3.8 -9.6 0 0 0 0 1 5
1585 2 3.6 -9.6 0 0 0 0 1 5
1552 2 3.8 -9.8 0 0 0 0 1 5
1551 2 3.6 -9.8 0 0 0 0 1 5
1518 2 3.8 -10 0 0 0 0 1 5
1517 2 3.6 -10 0 0 0 0 1 5
1501 2 4.3996 -10 0.02 0 0 0 1 5
1535 2 4.3996 -9.8 0.02 0 0 0 1 5
1569 2 4.3996 -9.6 0.02 0 0 0 1 5
2353 1 3.18601 -1.77807 0.02 0 0 0 1 2
2355 1 3.23962 -1.97973 0.02 0 0 0 1 2
2512 1 3.24067 -3.99372 0.02 0 0 0 1 2
1588 2 4.2 -9.6 0 0 0 0 1 5
1587 2 4 -9.6 0 0 0 0 1 5
1554 2 4.2 -9.8 0 0 0 0 1 5
1553 2 4 -9.8 0 0 0 0 1 5
1520 2 4.2 -10 0 0 0 0 1 5
1519 2 4 -10 0 0 0 0 1 5
1616 2 3 -9.4 0 0 0 0 1 5
1617 2 3.2 -9.4 0 0 0 0 1 5
1651 2 3.2 -9.2 0 0 0 0 1 5
1650 2 3 -9.2 0 0 0 0 1 5
1652 2 3.4 -9.2 0 0 0 0 1 5
1618 2 3.4 -9.4 0 0 0 0 1 5
1653 2 3.6 -9.2 0 0 0 0 1 5
1654 2 3.8 -9.2 0 0 0 0 1 5
1620 2 3.8 -9.4 0 0 0 0 1 5
1619 2 3.6 -9.4 0 0 0 0 1 5
1603 2 4.3996 -9.4 0.02 0 0 0 1 5
1637 2 4.3996 -9.2 0.02 0 0 0 1 5
2494 1 3.21023 -4.59884 0.02 0 0 0 1 2
2496 1 3.2259 -4.39955 0.02 0 0 0 1 2
1622 2 4.2 -9.4 0 0 0 0 1 5
1655 2 4 -9.2 0 0 0 0 1 5
1656 2 4.2 -9.2 0 0 0 0 1 5
1621 2 4 -9.4 0 0 0 0 1 5
1719 2 3.2 -8.8 0 0 0 0 1 5
1718 2 3 -8.8 0 0 0 0 1 5
1685 2 3.2 -9 0 0 0 0 1 5
1684 2 3 -9 0 0 0 0 1 5
1686 2 3.4 -9 0 0 0 0 1 5
1720 2 3.4 -8.8 0 0 0 0 1 5
1687 2 3.6 -9 0 0 0 0 1 5
1688 2 3.8 -9 0 0 0 0 1 5
1721 2 3.6 -8.8 0 0 0 0 1 5
1722 2 3.8 -8.8 0 0 0 0 1 5
1705 2 4.3996 -8.8 0.02 0 0 0 1 5
1671 2 4.3996 -9 0.02 0 0 0 1 5
2477 1 3.18193 -4.7929 0.02 0 0 0 1 2
2474 1 3.19201 -5.19849 0.02 0 0 0 1 2
1689 2 4 -9 0 0 0 0 1 5
1690 2 4.2 -9 0 0 0 0 1 5
1723 2 4 -8.8 0 0 0 0 1 5
1724 2 4.2 -8.8 0 0 0 0 1 5
1752 2 3 -8.6 0 0 0 0 1 5
1753 2 3.2 -8.6 0 0 0 0 1 5
1786 2 3 -8.4 0 0 0 0 1 5
1787 2 3.2 -8.4 0 0 0 0 1 5
1754 2 3.4 -8.6 0 0 0 0 1 5
1788 2 3.4 -8.4 0 0 0 0 1 5
1755 2 3.6 -8.6 0 0 0 0 1 5
1756 2 3.8 -8.6 0 0 0 0 1 5
1789 2 3.6 -8.4 0 0 0 0 1 5
1790 2 3.8 -8.4 0 0 0 0 1 5
1739 2 4.3996 -8.6 0.02 0 0 0 1 5
1773 2 4.3996 -8.4 0.02 0 0 0 1 5
2458 1 3.22883 -5.61078 0.02 0 0 0 1 2
2460 1 3.21368 -5.40561 0.02 0 0 0 1 2
1757 2 4 -8.6 0 0 0 0 1 5
1758 2 4.2 -8.6 0 0 0 0 1 5
1791 2 4 -8.4 0 0 0 0 1 5
1792 2 4.2 -8.4 0 0 0 0 1 5
1820 2 3 -8.2 0 0 0 0 1 5
1821 2 3.2 -8.2 0 0 0 0 1 5
1854 2 3 -8 0 0 0 0 1 5
1855 2 3.2 -8 0 0 0 0 1 5
1822 2 3.4 -8.2 0 0 0 0 1 5
1856 2 3.4 -8 0 0 0 0 1 5
1823 2 3.6 -8.2 0 0 0 0 1 5
1824 2 3.8 -8.2 0 0 0 0 1 5
1857 2 3.6 -8 0 0 0 0 1 5
1858 2 3.8 -8 0 0 0 0 1 5
1807 2 4.3996 -8.2 0.02 0 0 0 1 5
1841 2 4.3996 -8 0.02 0 0 0 1 5
2289 1 3.22811 -0.131593 0.02 0 0 0 1 2
2411 1 3.21287 -6.75576 0.02 0 -0.00286822 -0.000621538 1 2
1825 2 4 -8.2 0 0 0 0 1 5
1826 2 4.2 -8.2 0 0 0 0 1 5
1859 2 4 -8 0 0 0 0 1 5
1860 2 4.2 -8 0 0 0 0 1 5
1888 2 3 -7.8 0 0 0 0 1 5
1889 2 3.2 -7.8 0 0 0 0 1 5
1922 2 3 -7.6 0 0 0 0 1 5
1923 2 3.2 -7.6 0 0 0 0 1 5
1956 2 3 -7.4 0 0 0 0 0.999925 5
1957 2 3.2 -7.4 0 0 0 0 1.00101 5
1890 2 3.4 -7.8 0 0 0 0 1 5
1924 2 3.4 -7.6 0 0 0 0 1 5
1958 2 3.4 -7.4 0 0 0 0 1.0005 5
1891 2 3.6 -7.8 0 0 0 0 1 5
1892 2 3.8 -7.8 0 0 0 0 1 5
1925 2 3.6 -7.6 0 0 0 0 1 5
1926 2 3.8 -7.6 0 0 0 0 1 5
1959 2 3.6 -7.4 0 0 0 0 0.988896 5
1960 2 3.8 -7.4 0 0 0 0 1.00485 5
1875 2 4.3996 -7.8 0.02 0 0 0 1 5
1909 2 4.3996 -7.6 0.02 0 0 0 1 5
1943 2 4.3996 -7.4 0.02 0 0 0 0.999697 5
2413 1 3.24501 -6.56034 0.02 0 0.000278015 0.000571331 1 2
2441 1 3.29577 -5.99012 0.02 0 1.66199e-08 1.41653e-07 1 2
2288 1 3.2495 -0.32819 0.02 0 0 0 1 2
1893 2 4 -7.8 0 0 0 0 1 5
1894 2 4.2 -7.8 0 0 0 0 1 5
1927 2 4 -7.6 0 0 0 0 1 5
1928 2 4.2 -7.6 0 0 0 0 1 5
1961 2 4 -7.4 0 0 0 0 1.00237 5
1962 2 4.2 -7.4 0 0 0 0 0.997303 5
1990 2 3 -7.2 0 0 0 0 1.00002 5
1991 2 3.2 -7.2 0 0 0 0 1.00101 5
2024 2 3 -7 0 0 0 0 0.999989 5
2025 2 3.2 -7 0 0 0 0 1.0002 5
1992 2 3.4 -7.2 0 0 0 0 0.997188 5
2026 2 3.4 -7 0 0 0 0 0.996533 5
1993 2 3.6 -7.2 0 0 0 0 0.989987 5
1994 2 3.8 -7.2 0 0 0 0 1.00512 5
2027 2 3.6 -7 0 0 0 0 0.99186 5
2028 2 3.8 -7 0 0 0 0 1.00415 5
2011 2 4.3996 -7 0.02 0 0 0 0.998383 5
1977 2 4.3996 -7.2 0.02 0 0 0 0.998664 5
2429 1 3.31568 -6.17861 0.02 0 5.63502e-06 1.92226e-05 1 2
2427 1 3.28522 -6.36822 0.02 0 0.000126364 0.000178145 1 2
1995 2 4 -7.2 0 0 0 0 1.00097 5
1996 2 4.2 -7.2 0 0 0 0 0.998061 5
2029 2 4 -7 0 0 0 0 1.00077 5
2030 2 4.2 -7 0 0 0 0 0.998066 5
2414 1 3.41338 -6.76076 0.02 0 -0.00234955 -0.000513776 1 2
2415 1 3.43714 -6.57482 0.02 0 0.00048882 0.000908438 1 2
2157 1 3.93588 -6.73915 0.0133371 0 -0.00181981 -0.00043224 1 2
2159 1 4.02832 -6.55076 0.0161557 0 -0.000244756 0.000125273 1 2
2158 1 4.08868 -6.76661 0.0130405 0 -0.0023641 -0.000262234 1 2
2160 1 4.205 -6.57535 0.0167259 0 -0.00105586 0.000462861 1 2
2163 1 4.38975 -6.56407 0.016427 0 0.000181254 0.000450086 1 2
2161 1 4.27825 -6.74572 0.0138997 0 -0.00195443 7.09925e-05 1 2
2162 1 4.42026 -6.75043 0.0134472 0 0.00353955 -0.000494465 1 2
2043 1 4.17136 -0.196512 0.02 0 6.90946e-18 1.6656e-18 1 2
2286 1 3.42075 -0.125197 0.02 0 0 0 1 2
2174 1 4.09238 -6.17071 0.016221 0 0.000439629 3.52805e-05 1 2
2173 1 4.05887 -6.35963 0.0165051 0 -7.76998e-05 -2.51545e-05 1 2
2176 1 4.28531 -6.17475 0.0163187 0 0.000661206 -1.23781e-05 1 2
2175 1 4.25243 -6.37801 0.0163126 0 0.000272729 0.000204166 1 2
2357 1 3.05056 -2.1438 0.02 0 0 0 1 2
2374 1 3.08652 -2.54567 0.02 0 0 0 1 2
2319 1 3.25897 -0.9547 0.02 0 0 0 1 2
2320 1 3.27914 -1.16392 0.02 0 0 0 1 2
2189 1 4.08726 -5.9796 0.0194391 0 -0.00079678 9.19501e-05 1 2
2190 1 4.07866 -5.78431 0.0199186 0 -0.000134554 -1.67042e-05 1 2
2192 1 4.27563 -5.77559 0.0199174 0 -5.4767e-05 2.73028e-05 1 2
2191 1 4.28743 -5.97299 0.01885 0 0.000134694 4.73765e-06 1 2
2372 1 3.05639 -2.3414 0.02 0 0 0 1 2
2388 1 3.08776 -2.95758 0.02 0 0 0 1 2
2336 1 3.3152 -1.37324 0.02 0 0 0 1 2
2305 1 3.27413 -0.741933 0.02 0 0 0 1 2
2461 1 3.42206 -5.59358 0.02 0 -8.50833e-08 1.44806e-08 1 2
2462 1 3.4068 -5.38987 0.02 0 -3.88108e-08 -6.98552e-10 1 2
2206 1 4.00231 -5.39266 0.019936 0 -3.47523e-06 -1.91029e-06 1 2
2205 1 4.02552 -5.58762 0.0199096 0 -2.98504e-06 -1.99692e-06 1 2
2207 1 4.20922 -5.39695 0.0199343 0 7.82642e-06 3.24776e-06 1 2
2208 1 4.23123 -5.58573 0.0199246 0 8.98354e-06 2.42504e-05 1 2
2543 1 3.08023 -3.16288 0.02 0 0 0 1 2
2211 1 4.41945 -5.39695 0.0199521 0 -2.27981e-06 9.9318e-06 1 2
2287 1 3.43944 -0.344474 0.02 0 -1.57932e-20 1.07944e-21 1 2
2304 1 3.26144 -0.530511 0.02 0 0 0 1 2
2478 1 3.38917 -5.19128 0.02 0 -1.16039e-09 3.37488e-11 1 2
2480 1 3.39563 -4.80654 0.02 0 -6.6989e-11 5.65524e-12 1 2
2479 1 3.35434 -4.99634 0.02 0 0 0 1 2
2222 1 4.04851 -4.83834 0.0199968 0 -1.11981e-06 -3.04396e-07 1 2
2223 1 4.22812 -5.02856 0.0199941 0 -3.63478e-06 -4.0193e-07 1 2
2221 1 4.20581 -5.20967 0.0199574 0 3.43473e-06 7.23516e-07 1 2
2224 1 4.27138 -4.85148 0.0199979 0 -6.40465e-07 5.09649e-07 1 2
2225 1 4.42586 -5.21235 0.0199894 0 -6.07783e-06 5.58731e-07 1 2
2541 1 3.05472 -3.36362 0.02 0 0 0 1 2
2527 1 3.06099 -3.56777 0.02 0 0 0 1 2
2371 1 3.25988 -2.37639 0.02 0 0 0 1 2
2373 1 3.28355 -2.57643 0.02 0 -1.36067e-18 1.67261e-18 1 2
2337 1 3.11665 -1.36783 0.02 0 0 0 1 2
2497 1 3.41489 -4.61546 0.02 0 -1.98939e-10 1.09292e-11 1 2
2498 1 3.42357 -4.41893 0.02 0 -1.57656e-10 9.50463e-12 1 2
2239 1 4.045 -4.462 0.0199986 0 -8.67282e-08 -2.1294e-08 1 2
2238 1 4.04067 -4.65017 0.0199982 0 -1.78056e-07 -2.67876e-08 1 2
2241 1 4.27274 -4.48385 0.0199986 0 9.5239e-08 6.38498e-08 1 2
2240 1 4.24512 -4.66649 0.0199982 0 4.03683e-07 2.38241e-07 1 2
2339 1 3.16359 -1.57395 0.02 0 0 0 1 2
2525 1 3.05449 -3.77151 0.02 0 0 0 1 2
2306 1 3.07159 -0.574605 0.02 0 0 0 1 2
2370 1 3.25386 -2.17957 0.02 0 0 0 1 2
2513 1 3.45179 -4.22092 0.02 0 -3.74304e-10 1.58281e-11 1 2
2514 1 3.43731 -4.02126 0.02 0 -2.45737e-11 1.0723e-12 1 2
2253 1 4.07105 -4.08309 0.0199993 0 -3.29571e-08 1.24696e-08 1 2
2252 1 4.06068 -4.27373 0.0199987 0 6.82094e-08 5.47274e-09 1 2
2255 1 4.28871 -4.11551 0.0199993 0 3.76618e-08 -1.46391e-08 1 2
2254 1 4.26428 -4.3006 0.0199987 0 1.04969e-07 1.14729e-08 1 2
2509 1 3.0562 -4.17813 0.02 0 0 0 1 2
2386 1 3.11173 -2.75416 0.02 0 0 0 1 2
2511 1 3.04589 -3.97397 0.02 0 0 0 1 2
2258 1 4.29739 -3.92505 0.0199999 0 -7.14566e-08 -1.38762e-09 1 2
2385 1 3.3108 -2.77688 0.02 0 0 0 1 2
2387 1 3.28182 -2.97456 0.02 0 0 0 1 2
2042 1 4.3597 -0.204515 0.02 0 -4.42985e-17 9.46204e-19 1 2
2530 1 3.44947 -3.62798 0.02 0 -6.2455e-11 -1.45204e-12 1 2
2529 1 3.45991 -3.82732 0.02 0 -5.39294e-11 -1.85162e-12 1 2
2273 1 4.04567 -3.68365 0.0199999 0 -5.18206e-09 -2.40629e-09 1 2
2272 1 4.09796 -3.89073 0.0199999 0 -1.11958e-07 -8.08227e-09 1 2
2274 1 4.2245 -3.52888 0.0199999 0 6.04802e-09 4.02875e-09 1 2
2275 1 4.24849 -3.72616 0.0199999 0 1.28427e-08 1.63382e-08 1 2
2277 1 4.4262 -3.52264 0.02 0 -1.31532e-09 7.30031e-09 1 2
2321 1 3.05298 -0.967041 0.02 0 0 0 1 2
2055 1 4.41616 -0.628898 0.02 0 -4.54802e-15 6.48352e-15 1 2
2544 1 3.27114 -3.17954 0.02 0 0 0 1 2
2545 1 3.44587 -3.42199 0.02 0 -5.07106e-11 -8.29668e-13 1 2
2399 1 3.45765 -3.21512 0.02 0 -1.26843e-10 -3.09884e-11 1 2
2155 1 4.03213 -3.25575 0.02 0 -3.04896e-09 -3.5597e-10 1 2
2156 1 4.03146 -3.47088 0.0199999 0 -3.38011e-09 -3.0827e-10 1 2
2154 1 4.22445 -3.33168 0.02 0 2.26164e-09 4.22012e-10 1 2
2152 1 4.22942 -3.13149 0.02 0 3.43234e-09 5.30234e-10 1 2
2307 1 3.08115 -0.773748 0.02 0 0 0 1 2
2151 1 4.41902 -3.1147 0.02 0 -1.53679e-09 2.22433e-12 1 2
2542 1 3.2507 -3.38541 0.02 0 0 0 1 2
2059 1 4.02432 -0.609091 0.02 0 -3.86802e-17 -2.24772e-17 1 2
2139 1 4.05943 -2.62755 0.02 0 -2.53684e-09 -1.98103e-10 1 2
2141 1 4.05495 -3.0408 0.02 0 2.35259e-09 1.57008e-10 1 2
2140 1 4.07046 -2.83279 0.02 0 -3.3469e-09 6.56652e-10 1 2
2138 1 4.24809 -2.91284 0.02 0 2.20514e-09 -6.55799e-10 1 2
2134 1 4.24692 -2.68472 0.02 0 -2.14137e-09 -1.01908e-10 1 2
2457 1 3.03655 -5.60063 0.02 0 0 0 1 2
2291 1 3.05875 -0.365805 0.02 0 0 0 1 2
2060 1 4.04472 -0.808962 0.02 0 -7.00945e-17 -4.44907e-17 1 2
2058 1 4.24372 -0.819929 0.02 0 8.4009e-14 2.47972e-13 1 2
2368 1 3.45499 -2.19767 0.02 0 -3.4124e-12 -9.82907e-14 1 2
2369 1 3.46039 -2.40026 0.02 0 -7.16198e-12 1.82978e-12 1 2
2122 1 4.22098 -2.25416 0.02 0 1.3126e-10 5.99588e-11 1 2
2121 1 4.23001 -2.46414 0.02 0 3.444e-10 3.67991e-10 1 2
2124 1 4.03691 -2.4215 0.02 0 -5.43583e-11 -3.23485e-11 1 2
2123 1 4.02972 -2.21217 0.02 0 -7.75694e-11 -1.22323e-11 1 2
2056 1 4.22221 -0.613201 0.02 0 8.41727e-16 2.49819e-15 1 2
2303 1 3.45992 -0.791499 0.02 0 -3.74037e-18 2.08686e-19 1 2
2120 1 4.42174 -2.49265 0.02 0 -9.0956e-11 5.87905e-10 1 2
2118 1 4.4157 -2.28702 0.02 0 9.87207e-11 1.04625e-10 1 2
2351 1 3.38831 -1.78827 0.02 0 -4.63328e-15 -7.7646e-17 1 2
2352 1 3.4376 -1.99265 0.02 0 -2.10134e-12 -1.89401e-13 1 2
2108 1 4.01302 -2.0009 0.02 0 -3.32207e-11 -4.14445e-11 1 2
2107 1 4.20619 -2.04609 0.02 0 9.19546e-11 5.61611e-12 1 2
2106 1 4.1794 -1.83614 0.02 0 1.6351e-10 8.4476e-12 1 2
2041 1 4.38094 -0.418584 0.02 0 -1.11197e-17 7.53452e-18 1 2
2044 1 4.18964 -0.406124 0.02 0 6.16317e-17 1.01506e-17 1 2
2302 1 3.44775 -0.570425 0.02 0 -7.98493e-19 -1.69507e-20 1 2
2103 1 4.37091 -1.86398 0.02 0 -4.76572e-11 -7.59029e-12 1 2
2476 1 3.15626 -4.99144 0.02 0 0 0 1 2
2105 1 4.40078 -2.07835 0.02 0 -3.66621e-11 8.86794e-12 1 2
2335 1 3.35699 -1.5817 0.02 0 -8.89047e-24 -7.57124e-24 1 2