ITEM: TIMESTEP
5000
ITEM: NUMBER OF ATOMS
1127
ITEM: BOX BOUNDS ff ff pp
0.0000000000000000e+00 4.4000000000000004e+00
-1.0000000000000000e+01 1.0000000000000000e+01
-2.0000000000000000e-02 2.0000000000000000e-02
ITEM: ATOMS id type x y vx vy fx fy c_den c_phase
1502 2 2.5996 -10 0.02 0 0 0 1 5
1536 2 2.5996 -9.8 0.02 0 0 0 1 5
1570 2 2.5996 -9.6 0.02 0 0 0 1 5
1501 2 2.3996 -10 0.02 0 0 0 1 5
1535 2 2.3996 -9.8 0.02 0 0 0 1 5
1569 2 2.3996 -9.6 0.02 0 0 0 1 5
1503 2 2.7996 -10 0.02 0 0 0 1 5
1537 2 2.7996 -9.8 0.02 0 0 0 1 5
1571 2 2.7996 -9.6 0.02 0 0 0 1 5
1509 2 2 -10 0 0 0 0 1 5
1510 2 2.2 -10 0 0 0 0 1 5
1511 2 2.4 -10 0 0 0 0 1 5
1543 2 2 -9.8 0 0 0 0 1 5
1544 2 2.2 -9.8 0 0 0 0 1 5
1545 2 2.4 -9.8 0 0 0 0 1 5
1577 2 2 -9.6 0 0 0 0 1 5
1578 2 2.2 -9.6 0 0 0 0 1 5
1579 2 2.4 -9.6 0 0 0 0 1 5
2105 1 2.40078 -2.07835 0.02 0 0 0 1 2
2107 1 2.20619 -2.04609 0.02 0 0 0 1 2
2106 1 2.1794 -1.83614 0.02 0 0 0 1 2
2044 1 2.18964 -0.406124 0.02 0 0 0 1 2
2043 1 2.17136 -0.196512 0.02 0 0 0 1 2
2108 1 2.01302 -2.0009 0.02 0 0 0 1 2
1512 2 2.6 -10 0 0 0 0 1 5
1513 2 2.8 -10 0 0 0 0 1 5
1546 2 2.6 -9.8 0 0 0 0 1 5
1547 2 2.8 -9.8 0 0 0 0 1 5
1580 2 2.6 -9.6 0 0 0 0 1 5
1581 2 2.8 -9.6 0 0 0 0 1 5
1603 2 2.3996 -9.4 0.02 0 0 0 1 5
1637 2 2.3996 -9.2 0.02 0 0 0 1 5
1638 2 2.5996 -9.2 0.02 0 0 0 1 5
1604 2 2.5996 -9.4 0.02 0 0 0 1 5
1639 2 2.7996 -9.2 0.02 0 0 0 1 5
1605 2 2.7996 -9.4 0.02 0 0 0 1 5
1645 2 2 -9.2 0 0 0 0 1 5
1646 2 2.2 -9.2 0 0 0 0 1 5
1647 2 2.4 -9.2 0 0 0 0 1 5
1613 2 2.4 -9.4 0 0 0 0 1 5
1612 2 2.2 -9.4 0 0 0 0 1 5
1611 2 2 -9.4 0 0 0 0 1 5
2072 1 2.26198 -1.02554 0.02 0 0 0 1 2
2069 1 2.65381 -1.03348 0.02 0 0 0 1 2
2114 1 2.80598 -2.34155 0.02 0 0 0 1 2
2052 1 2.83343 -0.829479 0.02 0 0 0 1 2
1648 2 2.6 -9.2 0 0 0 0 1 5
1649 2 2.8 -9.2 0 0 0 0 1 5
1615 2 2.8 -9.4 0 0 0 0 1 5
1614 2 2.6 -9.4 0 0 0 0 1 5
1705 2 2.3996 -8.8 0.02 0 0 0 1 5
1671 2 2.3996 -9 0.02 0 0 0 1 5
1672 2 2.5996 -9 0.02 0 0 0 1 5
1706 2 2.5996 -8.8 0.02 0 0 0 1 5
1673 2 2.7996 -9 0.02 0 0 0 1 5
1707 2 2.7996 -8.8 0.02 0 0 0 1 5
1679 2 2 -9 0 0 0 0 1 5
1680 2 2.2 -9 0 0 0 0 1 5
1681 2 2.4 -9 0 0 0 0 1 5
1713 2 2 -8.8 0 0 0 0 1 5
1714 2 2.2 -8.8 0 0 0 0 1 5
1715 2 2.4 -8.8 0 0 0 0 1 5
2116 1 2.80449 -2.55829 0.02 0 0 0 1 2
2120 1 2.42174 -2.49265 0.02 0 0 0 1 2
2076 1 2.08052 -1.20811 0.02 0 0 0 1 2
2053 1 2.64128 -0.826347 0.02 0 0 0 1 2
1682 2 2.6 -9 0 0 0 0 1 5
1683 2 2.8 -9 0 0 0 0 1 5
1716 2 2.6 -8.8 0 0 0 0 1 5
1717 2 2.8 -8.8 0 0 0 0 1 5
1739 2 2.3996 -8.6 0.02 0 0 0 1 5
1773 2 2.3996 -8.4 0.02 0 0 0 1 5
1774 2 2.5996 -8.4 0.02 0 0 0 1 5
1740 2 2.5996 -8.6 0.02 0 0 0 1 5
1775 2 2.7996 -8.4 0.02 0 0 0 1 5
1741 2 2.7996 -8.6 0.02 0 0 0 1 5
1783 2 2.4 -8.4 0 0 0 0 1 5
1782 2 2.2 -8.4 0 0 0 0 1 5
1781 2 2 -8.4 0 0 0 0 1 5
1747 2 2 -8.6 0 0 0 0 1 5
1748 2 2.2 -8.6 0 0 0 0 1 5
1749 2 2.4 -8.6 0 0 0 0 1 5
2118 1 2.4157 -2.28702 0.02 0 0 0 1 2
2117 1 2.61213 -2.3438 0.02 0 0 0 1 2
2054 1 2.60732 -0.618916 0.02 0 0 0 1 2
2055 1 2.41616 -0.628898 0.02 0 0 0 1 2
1785 2 2.8 -8.4 0 0 0 0 1 5
1784 2 2.6 -8.4 0 0 0 0 1 5
1750 2 2.6 -8.6 0 0 0 0 1 5
1751 2 2.8 -8.6 0 0 0 0 1 5
1807 2 2.3996 -8.2 0.02 0 0 0 1 5
1841 2 2.3996 -8 0.02 0 0 0 1 5
1842 2 2.5996 -8 0.02 0 0 0 1 5
1808 2 2.5996 -8.2 0.02 0 0 0 1 5
1843 2 2.7996 -8 0.02 0 0 0 1 5
1809 2 2.7996 -8.2 0.02 0 0 0 1 5
1851 2 2.4 -8 0 0 0 0 1 5
1850 2 2.2 -8 0 0 0 0 1 5
1849 2 2 -8 0 0 0 0 1 5
1817 2 2.4 -8.2 0 0 0 0 1 5
1816 2 2.2 -8.2 0 0 0 0 1 5
1815 2 2 -8.2 0 0 0 0 1 5
2119 1 2.61379 -2.54709 0.02 0 0 0 1 2
2122 1 2.22098 -2.25416 0.02 0 0 0 1 2
2057 1 2.44318 -0.832632 0.02 0 0 0 1 2
2051 1 2.7964 -0.615255 0.02 0 0 0 1 2
1853 2 2.8 -8 0 0 0 0 1 5
1852 2 2.6 -8 0 0 0 0 1 5
1819 2 2.8 -8.2 0 0 0 0 1 5
1818 2 2.6 -8.2 0 0 0 0 1 5
1875 2 2.3996 -7.8 0.02 0 0 0 1 5
1909 2 2.3996 -7.6 0.02 0 0 0 1 5
1943 2 2.3996 -7.4 0.02 0 0 0 0.997419 5
1944 2 2.5996 -7.4 0.02 0 0 0 1.00062 5
1910 2 2.5996 -7.6 0.02 0 0 0 1 5
1876 2 2.5996 -7.8 0.02 0 0 0 1 5
1945 2 2.7996 -7.4 0.02 0 0 0 1.00024 5
1911 2 2.7996 -7.6 0.02 0 0 0 1 5
1877 2 2.7996 -7.8 0.02 0 0 0 1 5
1953 2 2.4 -7.4 0 0 0 0 0.997439 5
1952 2 2.2 -7.4 0 0 0 0 1.00082 5
1951 2 2 -7.4 0 0 0 0 1.00254 5
1919 2 2.4 -7.6 0 0 0 0 1 5
1918 2 2.2 -7.6 0 0 0 0 1 5
1917 2 2 -7.6 0 0 0 0 1 5
1885 2 2.4 -7.8 0 0 0 0 1 5
1884 2 2.2 -7.8 0 0 0 0 1 5
1883 2 2 -7.8 0 0 0 0 1 5
2121 1 2.23001 -2.46414 0.02 0 0 0 1 2
2124 1 2.03691 -2.4215 0.02 0 0 0 1 2
2123 1 2.02972 -2.21217 0.02 0 0 0 1 2
2056 1 2.22221 -0.613201 0.02 0 0 0 1 2
2058 1 2.24372 -0.819929 0.02 0 0 0 1 2
2060 1 2.04472 -0.808962 0.02 0 0 0 1 2
1955 2 2.8 -7.4 0 0 0 0 1.00024 5
1954 2 2.6 -7.4 0 0 0 0 1.00061 5
1921 2 2.8 -7.6 0 0 0 0 1 5
1920 2 2.6 -7.6 0 0 0 0 1 5
1887 2 2.8 -7.8 0 0 0 0 1 5
1886 2 2.6 -7.8 0 0 0 0 1 5
1977 2 2.3996 -7.2 0.02 0 0 0 0.998365 5
2011 2 2.3996 -7 0.02 0 0 0 0.998692 5
2012 2 2.5996 -7 0.02 0 0 0 0.999682 5
1978 2 2.5996 -7.2 0.02 0 0 0 0.999787 5
2013 2 2.7996 -7 0.02 0 0 0 0.999996 5
1979 2 2.7996 -7.2 0.02 0 0 0 1.00011 5
2021 2 2.4 -7 0 0 0 0 0.998694 5
2020 2 2.2 -7 0 0 0 0 0.999354 5
2019 2 2 -7 0 0 0 0 1.00368 5
1987 2 2.4 -7.2 0 0 0 0 0.998367 5
1986 2 2.2 -7.2 0 0 0 0 0.999596 5
1985 2 2 -7.2 0 0 0 0 1.00396 5
2070 1 2.65996 -1.24399 0.02 0 0 0 1 2
2071 1 2.45926 -1.03504 0.02 0 0 0 1 2
2059 1 2.02432 -0.609091 0.02 0 0 0 1 2
2067 1 2.84327 -1.04626 0.02 0 0 0 1 2
2023 2 2.8 -7 0 0 0 0 0.999997 5
2022 2 2.6 -7 0 0 0 0 0.999683 5
1989 2 2.8 -7.2 0 0 0 0 1.00011 5
1988 2 2.6 -7.2 0 0 0 0 0.999788 5
2157 1 2.01371 -6.73915 0.02 0 -0.00450659 -0.00075995 1 2
2160 1 2.23519 -6.57535 0.02 0 0.000469939 0.000529292 1 2
2158 1 2.21892 -6.76661 0.02 0 -0.00154363 -0.000493298 1 2
2159 1 2.04751 -6.55076 0.02 0 0.000256204 0.000195491 1 2
2162 1 2.63309 -6.75043 0.02 0 -0.00108012 -0.000194735 1 2
2164 1 2.63566 -6.56481 0.02 0 3.29495e-05 0.000148151 1 2
2161 1 2.43461 -6.74572 0.02 0 -0.000881272 -0.000265 1 2
2163 1 2.42812 -6.56407 0.02 0 0.000188045 0.000237261 1 2
2165 1 2.82654 -6.74604 0.02 0 -0.0010624 -0.000203733 1 2
2088 1 2.31621 -1.43509 0.02 0 0 0 1 2
2132 1 2.83261 -2.9752 0.02 0 0 0 1 2
2167 1 2.84728 -6.56288 0.02 0 -1.374e-05 0.000156884 1 2
2068 1 2.84898 -1.26074 0.02 0 0 0 1 2
2103 1 2.37091 -1.86398 0.02 0 0 0 1 2
2176 1 2.29165 -6.17475 0.02 0 6.6623e-06 1.287e-05 1 2
2175 1 2.26276 -6.37801 0.02 0 0.000137208 0.000161817 1 2
2173 1 2.0674 -6.35963 0.02 0 9.29638e-05 6.61494e-05 1 2
2174 1 2.0987 -6.17071 0.02 0 7.08953e-06 7.59642e-06 1 2
2178 1 2.65026 -6.37692 0.02 0 5.88779e-05 7.78096e-05 1 2
2180 1 2.67755 -6.18093 0.02 0 3.59015e-06 8.40496e-06 1 2
2177 1 2.45762 -6.37882 0.02 0 8.27565e-05 0.000109114 1 2
2179 1 2.48304 -6.18522 0.02 0 5.1541e-06 1.17327e-05 1 2
2090 1 2.32772 -1.64492 0.02 0 0 0 1 2
2130 1 2.81766 -2.77288 0.02 0 0 0 1 2
2183 1 2.87065 -6.16748 0.02 0 2.49992e-06 5.66602e-06 1 2
2181 1 2.83793 -6.37185 0.02 0 5.08733e-05 6.15288e-05 1 2
2036 1 2.9293 -0.170696 0.02 0 0 0 1 2
2137 1 2.43754 -2.90633 0.02 0 0 0 1 2
2192 1 2.27604 -5.77559 0.02 0 7.37671e-12 2.36337e-11 1 2
2191 1 2.28972 -5.97299 0.02 0 1.51258e-08 4.49552e-08 1 2
2190 1 2.07906 -5.78431 0.02 0 7.08109e-12 1.08681e-11 1 2
2189 1 2.0898 -5.9796 0.02 0 5.29298e-08 6.81147e-08 1 2
2196 1 2.68244 -5.9853 0.02 0 1.29919e-08 5.52297e-08 1 2
2195 1 2.6659 -5.78886 0.02 0 9.87648e-12 4.18479e-11 1 2
2193 1 2.48614 -5.98699 0.02 0 1.49729e-08 6.67239e-08 1 2
2194 1 2.47113 -5.78504 0.02 0 8.58009e-12 3.51041e-11 1 2
2091 1 2.11995 -1.41351 0.02 0 0 0 1 2
2092 1 2.13799 -1.62282 0.02 0 0 0 1 2
2199 1 2.86109 -5.75899 0.02 0 9.95072e-13 6.78124e-12 1 2
2197 1 2.87354 -5.96034 0.02 0 4.55591e-09 1.66947e-08 1 2
2035 1 2.95471 -0.383144 0.02 0 0 0 1 2
2075 1 2.0616 -1.00736 0.02 0 0 0 1 2
2205 1 2.02573 -5.58762 0.02 0 0 0 1 2
2206 1 2.00237 -5.39266 0.02 0 0 0 1 2
2208 1 2.23142 -5.58573 0.02 0 0 0 1 2
2207 1 2.20929 -5.39695 0.02 0 0 0 1 2
2212 1 2.63012 -5.39862 0.02 0 0 0 1 2
2210 1 2.64336 -5.59168 0.02 0 0 0 1 2
2211 1 2.41951 -5.39695 0.02 0 0 0 1 2
2209 1 2.43975 -5.58705 0.02 0 0 0 1 2
2037 1 2.76437 -0.401333 0.02 0 0 0 1 2
2084 1 2.68312 -1.45769 0.02 0 0 0 1 2
2215 1 2.84613 -5.38031 0.02 0 0 0 1 2
2213 1 2.84445 -5.5651 0.02 0 0 0 1 2
2074 1 2.27783 -1.23077 0.02 0 0 0 1 2
2085 1 2.87949 -1.70098 0.02 0 0 0 1 2
2042 1 2.3597 -0.204515 0.02 0 0 0 1 2
2222 1 2.04851 -4.83834 0.02 0 0 0 1 2
2221 1 2.20583 -5.20967 0.02 0 0 0 1 2
2223 1 2.22812 -5.02856 0.02 0 0 0 1 2
2224 1 2.27138 -4.85148 0.02 0 0 0 1 2
2229 1 2.67611 -5.03667 0.02 0 0 0 1 2
2228 1 2.65816 -5.21635 0.02 0 0 0 1 2
2227 1 2.49388 -4.85243 0.02 0 0 0 1 2
2226 1 2.45611 -5.03345 0.02 0 0 0 1 2
2225 1 2.42586 -5.21235 0.02 0 0 0 1 2
2230 1 2.71325 -4.85376 0.02 0 0 0 1 2
2083 1 2.86528 -1.47825 0.02 0 0 0 1 2
2233 1 2.92842 -4.84693 0.02 0 0 0 1 2
2232 1 2.88983 -5.02973 0.02 0 0 0 1 2
2231 1 2.90448 -5.21105 0.02 0 0 0 1 2
2100 1 2.96 -2.153 0.02 0 0 0 1 2
2238 1 2.04067 -4.65017 0.02 0 0 0 1 2
2239 1 2.045 -4.462 0.02 0 0 0 1 2
2241 1 2.27274 -4.48385 0.02 0 0 0 1 2
2240 1 2.24512 -4.66649 0.02 0 0 0 1 2
2244 1 2.67376 -4.67305 0.02 0 0 0 1 2
2243 1 2.50933 -4.49172 0.02 0 0 0 1 2
2242 1 2.45368 -4.66888 0.02 0 0 0 1 2
2245 1 2.74606 -4.50233 0.02 0 0 0 1 2
2247 1 2.959 -4.48365 0.02 0 0 0 1 2
2246 1 2.91631 -4.66598 0.02 0 0 0 1 2
2098 1 2.91121 -1.93371 0.02 0 0 0 1 2
2086 1 2.69394 -1.6724 0.02 0 0 0 1 2
2252 1 2.06068 -4.27373 0.02 0 0 0 1 2
2253 1 2.07105 -4.08309 0.02 0 0 0 1 2
2255 1 2.28871 -4.11551 0.02 0 0 0 1 2
2258 1 2.29739 -3.92505 0.02 0 0 0 1 2
2254 1 2.26428 -4.3006 0.02 0 0 0 1 2
2264 1 2.69024 -3.93088 0.02 0 0 0 1 2
2260 1 2.68229 -4.32272 0.02 0 0 0 1 2
2259 1 2.49467 -3.92102 0.02 0 0 0 1 2
2257 1 2.50478 -4.11797 0.02 0 0 0 1 2
2256 1 2.47241 -4.3071 0.02 0 0 0 1 2
2261 1 2.71323 -4.13064 0.02 0 0 0 1 2
2099 1 2.7347 -1.88565 0.02 0 0 0 1 2
2263 1 2.92151 -4.11233 0.02 0 0 0 1 2
2262 1 2.89875 -4.30065 0.02 0 0 0 1 2
2265 1 2.89057 -3.92273 0.02 0 0 0 1 2
2089 1 2.51138 -1.6947 0.02 0 0 0 1 2
2087 1 2.5015 -1.46824 0.02 0 0 0 1 2
2039 1 2.57233 -0.411655 0.02 0 0 0 1 2
2273 1 2.04567 -3.68365 0.02 0 0 0 1 2
2272 1 2.09796 -3.89073 0.02 0 0 0 1 2
2275 1 2.24849 -3.72616 0.02 0 0 0 1 2
2274 1 2.2245 -3.52888 0.02 0 0 0 1 2
2278 1 2.63118 -3.52872 0.02 0 0 0 1 2
2279 1 2.64685 -3.72594 0.02 0 0 0 1 2
2276 1 2.44805 -3.72231 0.02 0 0 0 1 2
2277 1 2.4262 -3.52264 0.02 0 0 0 1 2
2101 1 2.77441 -2.11748 0.02 0 0 0 1 2
2104 1 2.59085 -2.13736 0.02 0 0 0 1 2
2282 1 2.84302 -3.54809 0.02 0 0 0 1 2
2280 1 2.84845 -3.73604 0.02 0 0 0 1 2
2040 1 2.54801 -0.202375 0.02 0 0 0 1 2
2041 1 2.38094 -0.418584 0.02 0 0 0 1 2
2156 1 2.03146 -3.47088 0.02 0 0 0 1 2
2155 1 2.03213 -3.25575 0.02 0 0 0 1 2
2152 1 2.22942 -3.13149 0.02 0 0 0 1 2
2154 1 2.22445 -3.33168 0.02 0 0 0 1 2
2149 1 2.64305 -3.33918 0.02 0 0 0 1 2
2150 1 2.61135 -3.14803 0.02 0 0 0 1 2
2151 1 2.41902 -3.1147 0.02 0 0 0 1 2
2153 1 2.43124 -3.32346 0.02 0 0 0 1 2
2146 1 2.81538 -3.17037 0.02 0 0 0 1 2
2102 1 2.5567 -1.9211 0.02 0 0 0 1 2
2135 1 2.43531 -2.7004 0.02 0 0 0 1 2
2148 1 2.85675 -3.36021 0.02 0 0 0 1 2
2038 1 2.7386 -0.191329 0.02 0 0 0 1 2
2073 1 2.47126 -1.24415 0.02 0 0 0 1 2
2139 1 2.05943 -2.62755 0.02 0 0 0 1 2
2141 1 2.05495 -3.0408 0.02 0 0 0 1 2
2140 1 2.07046 -2.83279 0.02 0 0 0 1 2
2138 1 2.24809 -2.91284 0.02 0 0 0 1 2
2134 1 2.24692 -2.68472 0.02 0 0 0 1 2
2136 1 2.63116 -2.95325 0.02 0 0 0 1 2
2133 1 2.62638 -2.75172 0.02 0 0 0 1 2
2032 1 2.18566 0.224259 0.02 0 0 0 1 2
2031 1 2.15073 0.0152087 0.02 0 0 0 1 2
2037 1 2.56583 0.243059 0.02 0 0 0 1 2
2036 1 2.52775 0.0146403 0.02 0 0 0 1 2
2033 1 2.37888 0.216003 0.02 0 0 0 1 2
2034 1 2.37364 0.424276 0.02 0 0 0 1 2
2035 1 2.33938 0.00901173 0.02 0 0 0 1 2
2038 1 2.71703 0.0139935 0.02 0 0 0 1 2
2039 1 2.75611 0.213481 0.02 0 0 0 1 2
2040 1 2.75051 0.417667 0.02 0 0 0 1 2
376 2 2.5996 9.2 0.02 0 0 0 1 5
2041 1 2.94725 0.260252 0.02 0 0 0 1 2
2042 1 2.91441 0.0415298 0.02 0 0 0 1 2
318 2 2.6 8.8 0 0 0 0 1 5
2049 1 2.19334 0.853529 0.02 0 0 0 1 2
2048 1 2.1857 0.645737 0.02 0 0 0 1 2
2047 1 2.18277 0.434965 0.02 0 0 0 1 2
2052 1 2.56206 0.465903 0.02 0 0 0 1 2
2053 1 2.56613 0.683296 0.02 0 0 0 1 2
2050 1 2.37812 0.634414 0.02 0 0 0 1 2
2051 1 2.38461 0.848641 0.02 0 0 0 1 2
2055 1 2.74772 0.632968 0.02 0 0 0 1 2
2057 1 2.76023 0.868113 0.02 0 0 0 1 2
2054 1 2.93652 0.478881 0.02 0 0 0 1 2
2056 1 2.92908 0.689725 0.02 0 0 0 1 2
319 2 2.8 8.8 0 0 0 0 1 5
352 2 2.6 9 0 0 0 0 1 5
477 2 2.3996 9.8 0.02 0 0 0 1 5
2064 1 2.18121 1.26198 0.02 0 0 0 1 2
2063 1 2.17938 1.05801 0.02 0 0 0 1 2
2069 1 2.55689 1.29997 0.02 0 0 0 1 2
2067 1 2.57307 0.88937 0.02 0 0 0 1 2
2068 1 2.5614 1.09195 0.02 0 0 0 1 2
2065 1 2.37139 1.06422 0.02 0 0 0 1 2
2066 1 2.37002 1.27921 0.02 0 0 0 1 2
2070 1 2.75117 1.09204 0.02 0 0 0 1 2
2074 1 2.74726 1.30394 0.02 0 0 0 1 2
2071 1 2.94009 1.08696 0.02 0 0 0 1 2
2072 1 2.93936 1.29024 0.02 0 0 0 1 2
2073 1 2.95124 0.888006 0.02 0 0 0 1 2
353 2 2.8 9 0 0 0 0 1 5
410 2 2.5996 9.4 0.02 0 0 0 1 5
409 2 2.3996 9.4 0.02 0 0 0 1 5
2082 1 2.32716 1.48506 0.02 0 0 0 1 2
2081 1 2.13986 1.66141 0.02 0 0 0 1 2
2080 1 2.13356 1.46151 0.02 0 0 0 1 2
2083 1 2.35224 1.68567 0.02 0 0 0 1 2
2085 1 2.56541 1.70509 0.02 0 0 0 1 2
2084 1 2.52212 1.50668 0.02 0 0 0 1 2
2087 1 2.77851 1.69224 0.02 0 0 0 1 2
2086 1 2.7208 1.50485 0.02 0 0 0 1 2
247 2 2 8.4 0 0 0 0 1 5
2088 1 2.92653 1.49143 0.02 0 0 0 1 2
248 2 2.2 8.4 0 0 0 0 1 5
443 2 2.3996 9.6 0.02 0 0 0 1 5
2095 1 2.15623 2.04403 0.02 0 0 0 1 2
2094 1 2.17843 1.85478 0.02 0 0 0 1 2
2097 1 2.37618 2.07045 0.02 0 0 0 1 2
2096 1 2.38797 1.8791 0.02 0 0 0 1 2
2098 1 2.59824 1.89882 0.02 0 0 0 1 2
2099 1 2.58981 2.09218 0.02 0 0 0 1 2
2100 1 2.8064 1.8822 0.02 0 0 0 1 2
2101 1 2.80079 2.07554 0.02 0 0 0 1 2
249 2 2.4 8.4 0 0 0 0 1 5
281 2 2 8.6 0 0 0 0 1 5
445 2 2.7996 9.6 0.02 0 0 0 1 5
479 2 2.7996 9.8 0.02 0 0 0 1 5
2114 1 2.24089 2.60767 0.02 0 0 0 1 2
2112 1 2.24401 2.41719 0.02 0 0 0 1 2
2110 1 2.20847 2.22999 0.02 0 0 0 1 2
2108 1 2.02199 2.39441 0.02 0 0 0 1 2
2109 1 2.03548 2.5827 0.02 0 0 0 1 2
2115 1 2.64547 2.28011 0.02 0 0 0 1 2
2117 1 2.66962 2.4728 0.02 0 0 0 1 2
2111 1 2.42837 2.26125 0.02 0 0 0 1 2
2113 1 2.46044 2.45268 0.02 0 0 0 1 2
350 2 2.2 9 0 0 0 0 1 5
351 2 2.4 9 0 0 0 0 1 5
2116 1 2.85346 2.2647 0.02 0 0 0 1 2
2118 1 2.87206 2.46162 0.02 0 0 0 1 2
487 2 2.4 9.8 0 0 0 0 1 5
489 2 2.8 9.8 0 0 0 0 1 5
2123 1 2.02237 2.77537 0.02 0 0 0 1 2
2127 1 2.2293 2.80212 0.02 0 0 0 1 2
2125 1 2.20584 2.99882 0.02 0 0 0 1 2
2124 1 2.00628 2.96941 0.02 0 0 0 1 2
2130 1 2.65563 2.6637 0.02 0 0 0 1 2
2131 1 2.6352 2.85568 0.02 0 0 0 1 2
2129 1 2.40362 3.03534 0.02 0 0 0 1 2
2126 1 2.44552 2.64459 0.02 0 0 0 1 2
2128 1 2.43193 2.83916 0.02 0 0 0 1 2
2136 1 2.82056 3.04037 0.02 0 0 0 1 2
343 2 2.7996 9 0.02 0 0 0 1 5
309 2 2.7996 8.8 0.02 0 0 0 1 5
341 2 2.3996 9 0.02 0 0 0 1 5
2132 1 2.86862 2.65746 0.02 0 0 0 1 2
2133 1 2.83953 2.85041 0.02 0 0 0 1 2
488 2 2.6 9.8 0 0 0 0 1 5
455 2 2.8 9.6 0 0 0 0 1 5
454 2 2.6 9.6 0 0 0 0 1 5
2143 1 2.00359 3.16915 0.02 0 0 0 1 2
2144 1 2.01265 3.37484 0.02 0 0 0 1 2
2146 1 2.20659 3.40503 0.02 0 0 0 1 2
2145 1 2.20243 3.20054 0.02 0 0 0 1 2
2148 1 2.39963 3.43993 0.02 0 0 0 1 2
2147 1 2.4025 3.23538 0.02 0 0 0 1 2
2149 1 2.60759 3.04792 0.02 0 0 0 1 2
2150 1 2.60614 3.24229 0.02 0 0 0 1 2
2151 1 2.59374 3.44129 0.02 0 0 0 1 2
2152 1 2.81605 3.22709 0.02 0 0 0 1 2
2153 1 2.79474 3.41402 0.02 0 0 0 1 2
282 2 2.2 8.6 0 0 0 0 1 5
283 2 2.4 8.6 0 0 0 0 1 5
386 2 2.6 9.2 0 0 0 0 1 5
387 2 2.8 9.2 0 0 0 0 1 5
2164 1 2.28112 3.8167 0.02 0 0 0 1 2
2162 1 2.2518 3.61296 0.02 0 0 0 1 2
2161 1 2.08339 3.789 0.02 0 0 0 1 2
2160 1 2.05012 3.58294 0.02 0 0 0 1 2
2166 1 2.66031 3.63092 0.02 0 0 0 1 2
2168 1 2.68144 3.82453 0.02 0 0 0 1 2
2163 1 2.45631 3.64472 0.02 0 0 0 1 2
2165 1 2.48024 3.84819 0.02 0 0 0 1 2
307 2 2.3996 8.8 0.02 0 0 0 1 5
308 2 2.5996 8.8 0.02 0 0 0 1 5
2167 1 2.86261 3.59356 0.02 0 0 0 1 2
2169 1 2.88851 3.78237 0.02 0 0 0 1 2
275 2 2.7996 8.6 0.02 0 0 0 1 5
241 2 2.7996 8.4 0.02 0 0 0 1 5
2175 1 2.11036 3.99507 0.02 0 0 0 1 2
2177 1 2.30602 4.02299 0.02 0 0 0 1 2
2179 1 2.32233 4.22758 0.02 0 0 0 1 2
2176 1 2.11964 4.19723 0.02 0 0 0 1 2
2180 1 2.52097 4.25642 0.02 0 0 0 1 2
2178 1 2.50376 4.0519 0.02 0 0 0 1 2
2183 1 2.71437 4.21997 0.02 0 0 0 1 2
2181 1 2.70249 4.01862 0.02 0 0 0 1 2
342 2 2.5996 9 0.02 0 0 0 1 5
2184 1 2.90663 4.16658 0.02 0 0 0 1 2
2182 1 2.90668 3.97069 0.02 0 0 0 1 2
240 2 2.5996 8.4 0.02 0 0 0 1 5
444 2 2.5996 9.6 0.02 0 0 0 1 5
2194 1 2.33774 4.64357 0.02 0 0 0 1 2
2191 1 2.11825 4.78246 0.02 0 0 0 1 2
2189 1 2.15795 4.39304 0.02 0 0 0 1 2
2190 1 2.14558 4.58718 0.02 0 0 0 1 2
2192 1 2.35432 4.43607 0.02 0 0 0 1 2
2195 1 2.53315 4.66681 0.02 0 0 0 1 2
2193 1 2.54473 4.46491 0.02 0 0 0 1 2
2198 1 2.72606 4.65198 0.02 0 0 0 1 2
2196 1 2.72865 4.43165 0.02 0 0 0 1 2
250 2 2.6 8.4 0 0 0 0 1 5
251 2 2.8 8.4 0 0 0 0 1 5
284 2 2.6 8.6 0 0 0 0 1 5
2199 1 2.90617 4.59842 0.02 0 0 0 1 2
2197 1 2.90768 4.37551 0.02 0 0 0 1 2
478 2 2.5996 9.8 0.02 0 0 0 1 5
486 2 2.2 9.8 0 0 0 0 1 5
2207 1 2.30794 4.84671 0.02 0 0 0 1 2
2209 1 2.27544 5.04711 0.02 0 0 0 1 2
2205 1 2.0885 4.9823 0.02 0 0 0 1 2
2206 1 2.07057 5.19135 0.02 0 0 0 1 2
2213 1 2.67036 5.07323 0.02 0 0 0 1 2
2208 1 2.50405 4.86415 0.02 0 0 0 1 2
2210 1 2.47264 5.05907 0.02 0 0 0 1 2
2211 1 2.69757 4.86501 0.02 0 0 0 1 2
285 2 2.8 8.6 0 0 0 0 1 5
2214 1 2.86605 5.04537 0.02 0 0 0 1 2
2212 1 2.88516 4.83342 0.02 0 0 0 1 2
420 2 2.6 9.4 0 0 0 0 1 5
485 2 2 9.8 0 0 0 0 1 5
2222 1 2.05963 5.62531 0.02 0 0 0 1 2
2225 1 2.2826 5.4397 0.02 0 0 0 1 2
2224 1 2.26565 5.2438 0.02 0 0 0 1 2
2227 1 2.25482 5.63138 0.02 0 0 0 1 2
2221 1 2.08939 5.40931 0.02 0 0 0 1 2
2231 1 2.68887 5.46271 0.02 0 0 0 1 2
2229 1 2.68265 5.27131 0.02 0 0 0 1 2
2234 1 2.68836 5.64708 0.02 0 0 0 1 2
2226 1 2.48502 5.44311 0.02 0 0 0 1 2
2223 1 2.47455 5.25264 0.02 0 0 0 1 2
2228 1 2.46523 5.62895 0.02 0 0 0 1 2
315 2 2 8.8 0 0 0 0 1 5
375 2 2.3996 9.2 0.02 0 0 0 1 5
411 2 2.7996 9.4 0.02 0 0 0 1 5
2230 1 2.88082 5.24663 0.02 0 0 0 1 2
2232 1 2.89301 5.44626 0.02 0 0 0 1 2
2233 1 2.90178 5.64281 0.02 0 0 0 1 2
453 2 2.4 9.6 0 0 0 0 1 5
452 2 2.2 9.6 0 0 0 0 1 5
451 2 2 9.6 0 0 0 0 1 5
2243 1 2.2839 5.82225 0.02 0 2.24312e-10 -6.90986e-10 1 2
2245 1 2.31855 6.01246 0.02 0 1.16231e-07 -2.72285e-07 1 2
2241 1 2.08367 5.83395 0.02 0 0 0 1 2
2242 1 2.11992 6.03142 0.02 0 0 0 1 2
2244 1 2.49377 5.81132 0.02 0 4.29991e-11 -1.83734e-10 1 2
2246 1 2.51901 5.99766 0.02 0 4.38271e-08 -1.28623e-07 1 2
2249 1 2.72985 6.01262 0.02 0 5.24751e-08 -1.65977e-07 1 2
2247 1 2.7067 5.82959 0.02 0 7.1945e-11 -2.79928e-10 1 2
2250 1 2.94803 6.02674 0.02 0 8.26164e-08 -2.45448e-07 1 2
2248 1 2.91474 5.8373 0.02 0 1.18677e-10 -4.41266e-10 1 2
316 2 2.2 8.8 0 0 0 0 1 5
317 2 2.4 8.8 0 0 0 0 1 5
2256 1 2.14419 6.4045 0.02 0 -5.96417e-06 1.32952e-06 1 2
2257 1 2.33353 6.20041 0.02 0 1.26609e-05 -2.21998e-05 1 2
2255 1 2.12577 6.22219 0.02 0 0 0 1 2
2259 1 2.36323 6.37909 0.02 0 0.000162057 -0.000166575 1 2
2260 1 2.57112 6.37171 0.02 0 7.96423e-05 -9.09777e-05 1 2
2258 1 2.54456 6.1851 0.02 0 5.70968e-06 -1.01798e-05 1 2
2263 1 2.77031 6.37702 0.02 0 5.75011e-05 -6.53093e-05 1 2
2261 1 2.76067 6.19252 0.02 0 4.85982e-06 -8.52496e-06 1 2
2264 1 2.96425 6.40804 0.02 0 7.37505e-05 -8.8304e-05 1 2
274 2 2.5996 8.6 0.02 0 0 0 1 5
349 2 2 9 0 0 0 0 1 5
421 2 2.8 9.4 0 0 0 0 1 5
2270 1 2.15816 6.58449 0.02 0 -0.00122541 0.000235066 1 2
2269 1 2.2114 6.76472 0.02 0 -0.00273833 0.000463518 1 2
2272 1 2.40708 6.72909 0.02 0 -0.000584641 0.000205697 1 2
2271 1 2.59621 6.75439 0.02 0 -0.00112972 0.000220679 1 2
2274 1 2.57279 6.55988 0.02 0 0.000172454 -0.000246558 1 2
2273 1 2.36117 6.5555 0.02 0 0.000463072 -0.000379973 1 2
2276 1 2.7895 6.7412 0.02 0 -0.00108608 0.000197153 1 2
2277 1 2.77915 6.5618 0.02 0 1.31528e-06 -0.000139097 1 2
273 2 2.3996 8.6 0.02 0 0 0 1 5
239 2 2.3996 8.4 0.02 0 0 0 1 5
217 2 2.8 8.2 0 0 0 0 1 5
216 2 2.6 8.2 0 0 0 0 1 5
36 2 2.5996 7.2 0.02 0 0 0 0.999954 5
2 2 2.5996 7 0.02 0 0 0 0.9997 5
1 2 2.3996 7 0.02 0 0 0 0.999129 5
35 2 2.3996 7.2 0.02 0 0 0 0.998566 5
37 2 2.7996 7.2 0.02 0 0 0 1.00042 5
3 2 2.7996 7 0.02 0 0 0 1.00005 5
9 2 2 7 0 0 0 0 1.00811 5
10 2 2.2 7 0 0 0 0 1.00176 5
11 2 2.4 7 0 0 0 0 0.999129 5
43 2 2 7.2 0 0 0 0 1.0089 5
44 2 2.2 7.2 0 0 0 0 1.00127 5
45 2 2.4 7.2 0 0 0 0 0.998568 5
183 2 2.8 8 0 0 0 0 1 5
182 2 2.6 8 0 0 0 0 1 5
383 2 2 9.2 0 0 0 0 1 5
384 2 2.2 9.2 0 0 0 0 1 5
12 2 2.6 7 0 0 0 0 0.999701 5
13 2 2.8 7 0 0 0 0 1.00005 5
46 2 2.6 7.2 0 0 0 0 0.999954 5
47 2 2.8 7.2 0 0 0 0 1.00042 5
103 2 2.3996 7.6 0.02 0 0 0 1 5
69 2 2.3996 7.4 0.02 0 0 0 0.994899 5
104 2 2.5996 7.6 0.02 0 0 0 1 5
70 2 2.5996 7.4 0.02 0 0 0 0.999925 5
138 2 2.5996 7.8 0.02 0 0 0 1 5
137 2 2.3996 7.8 0.02 0 0 0 1 5
71 2 2.7996 7.4 0.02 0 0 0 1.00235 5
105 2 2.7996 7.6 0.02 0 0 0 1 5
139 2 2.7996 7.8 0.02 0 0 0 1 5
145 2 2 7.8 0 0 0 0 1 5
146 2 2.2 7.8 0 0 0 0 1 5
147 2 2.4 7.8 0 0 0 0 1 5
113 2 2.4 7.6 0 0 0 0 1 5
112 2 2.2 7.6 0 0 0 0 1 5
111 2 2 7.6 0 0 0 0 1 5
77 2 2 7.4 0 0 0 0 1.00891 5
78 2 2.2 7.4 0 0 0 0 1.00048 5
79 2 2.4 7.4 0 0 0 0 0.994938 5
377 2 2.7996 9.2 0.02 0 0 0 1 5
419 2 2.4 9.4 0 0 0 0 1 5
215 2 2.4 8.2 0 0 0 0 1 5
385 2 2.4 9.2 0 0 0 0 1 5
417 2 2 9.4 0 0 0 0 1 5
418 2 2.2 9.4 0 0 0 0 1 5
115 2 2.8 7.6 0 0 0 0 1 5
114 2 2.6 7.6 0 0 0 0 1 5
148 2 2.6 7.8 0 0 0 0 1 5
149 2 2.8 7.8 0 0 0 0 1 5
80 2 2.6 7.4 0 0 0 0 0.999915 5
81 2 2.8 7.4 0 0 0 0 1.00236 5
205 2 2.3996 8.2 0.02 0 0 0 1 5
171 2 2.3996 8 0.02 0 0 0 1 5
206 2 2.5996 8.2 0.02 0 0 0 1 5
172 2 2.5996 8 0.02 0 0 0 1 5
207 2 2.7996 8.2 0.02 0 0 0 1 5
173 2 2.7996 8 0.02 0 0 0 1 5
179 2 2 8 0 0 0 0 1 5
180 2 2.2 8 0 0 0 0 1 5
181 2 2.4 8 0 0 0 0 1 5
213 2 2 8.2 0 0 0 0 1 5
214 2 2.2 8.2 0 0 0 0 1 5
1583 2 3.2 -9.6 0 0 0 0 1 5
1582 2 3 -9.6 0 0 0 0 1 5
1549 2 3.2 -9.8 0 0 0 0 1 5
1548 2 3 -9.8 0 0 0 0 1 5
1515 2 3.2 -10 0 0 0 0 1 5
1514 2 3 -10 0 0 0 0 1 5
1584 2 3.4 -9.6 0 0 0 0 1 5
1550 2 3.4 -9.8 0 0 0 0 1 5
1516 2 3.4 -10 0 0 0 0 1 5
1508 2 3.7996 -10 0.02 0 0 0 1 5
1542 2 3.7996 -9.8 0.02 0 0 0 1 5
1576 2 3.7996 -9.6 0.02 0 0 0 1 5
1507 2 3.5996 -10 0.02 0 0 0 1 5
1541 2 3.5996 -9.8 0.02 0 0 0 1 5
1575 2 3.5996 -9.6 0.02 0 0 0 1 5
1506 2 3.3996 -10 0.02 0 0 0 1 5
1540 2 3.3996 -9.8 0.02 0 0 0 1 5
1574 2 3.3996 -9.6 0.02 0 0 0 1 5
1586 2 3.8 -9.6 0 0 0 0 1 5
1585 2 3.6 -9.6 0 0 0 0 1 5
1552 2 3.8 -9.8 0 0 0 0 1 5
1551 2 3.6 -9.8 0 0 0 0 1 5
1518 2 3.8 -10 0 0 0 0 1 5
1517 2 3.6 -10 0 0 0 0 1 5
1588 2 4.2 -9.6 0 0 0 0 1 5
1587 2 4 -9.6 0 0 0 0 1 5
1554 2 4.2 -9.8 0 0 0 0 1 5
1553 2 4 -9.8 0 0 0 0 1 5
1520 2 4.2 -10 0 0 0 0 1 5
1519 2 4 -10 0 0 0 0 1 5
1616 2 3 -9.4 0 0 0 0 1 5
1617 2 3.2 -9.4 0 0 0 0 1 5
1651 2 3.2 -9.2 0 0 0 0 1 5
1650 2 3 -9.2 0 0 0 0 1 5
1652 2 3.4 -9.2 0 0 0 0 1 5
1618 2 3.4 -9.4 0 0 0 0 1 5
1644 2 3.7996 -9.2 0.02 0 0 0 1 5
1610 2 3.7996 -9.4 0.02 0 0 0 1 5
1643 2 3.5996 -9.2 0.02 0 0 0 1 5
1609 2 3.5996 -9.4 0.02 0 0 0 1 5
1642 2 3.3996 -9.2 0.02 0 0 0 1 5
1608 2 3.3996 -9.4 0.02 0 0 0 1 5
1653 2 3.6 -9.2 0 0 0 0 1 5
1654 2 3.8 -9.2 0 0 0 0 1 5
1620 2 3.8 -9.4 0 0 0 0 1 5
1619 2 3.6 -9.4 0 0 0 0 1 5
1622 2 4.2 -9.4 0 0 0 0 1 5
1655 2 4 -9.2 0 0 0 0 1 5
1656 2 4.2 -9.2 0 0 0 0 1 5
1621 2 4 -9.4 0 0 0 0 1 5
1719 2 3.2 -8.8 0 0 0 0 1 5
1718 2 3 -8.8 0 0 0 0 1 5
1685 2 3.2 -9 0 0 0 0 1 5
1684 2 3 -9 0 0 0 0 1 5
1686 2 3.4 -9 0 0 0 0 1 5
1720 2 3.4 -8.8 0 0 0 0 1 5
1678 2 3.7996 -9 0.02 0 0 0 1 5
1712 2 3.7996 -8.8 0.02 0 0 0 1 5
1677 2 3.5996 -9 0.02 0 0 0 1 5
1711 2 3.5996 -8.8 0.02 0 0 0 1 5
1676 2 3.3996 -9 0.02 0 0 0 1 5
1710 2 3.3996 -8.8 0.02 0 0 0 1 5
1687 2 3.6 -9 0 0 0 0 1 5
1688 2 3.8 -9 0 0 0 0 1 5
1721 2 3.6 -8.8 0 0 0 0 1 5
1722 2 3.8 -8.8 0 0 0 0 1 5
1689 2 4 -9 0 0 0 0 1 5
1690 2 4.2 -9 0 0 0 0 1 5
1723 2 4 -8.8 0 0 0 0 1 5
1724 2 4.2 -8.8 0 0 0 0 1 5
1752 2 3 -8.6 0 0 0 0 1 5
1753 2 3.2 -8.6 0 0 0 0 1 5
1786 2 3 -8.4 0 0 0 0 1 5
1787 2 3.2 -8.4 0 0 0 0 1 5
1754 2 3.4 -8.6 0 0 0 0 1 5
1788 2 3.4 -8.4 0 0 0 0 1 5
1780 2 3.7996 -8.4 0.02 0 0 0 1 5
1746 2 3.7996 -8.6 0.02 0 0 0 1 5
1779 2 3.5996 -8.4 0.02 0 0 0 1 5
1745 2 3.5996 -8.6 0.02 0 0 0 1 5
1778 2 3.3996 -8.4 0.02 0 0 0 1 5
1744 2 3.3996 -8.6 0.02 0 0 0 1 5
1755 2 3.6 -8.6 0 0 0 0 1 5
1756 2 3.8 -8.6 0 0 0 0 1 5
1789 2 3.6 -8.4 0 0 0 0 1 5
1790 2 3.8 -8.4 0 0 0 0 1 5
1757 2 4 -8.6 0 0 0 0 1 5
1758 2 4.2 -8.6 0 0 0 0 1 5
1791 2 4 -8.4 0 0 0 0 1 5
1792 2 4.2 -8.4 0 0 0 0 1 5
1820 2 3 -8.2 0 0 0 0 1 5
1821 2 3.2 -8.2 0 0 0 0 1 5
1854 2 3 -8 0 0 0 0 1 5
1855 2 3.2 -8 0 0 0 0 1 5
1822 2 3.4 -8.2 0 0 0 0 1 5
1856 2 3.4 -8 0 0 0 0 1 5
1848 2 3.7996 -8 0.02 0 0 0 1 5
1814 2 3.7996 -8.2 0.02 0 0 0 1 5
1847 2 3.5996 -8 0.02 0 0 0 1 5
1813 2 3.5996 -8.2 0.02 0 0 0 1 5
1846 2 3.3996 -8 0.02 0 0 0 1 5
1812 2 3.3996 -8.2 0.02 0 0 0 1 5
1823 2 3.6 -8.2 0 0 0 0 1 5
1824 2 3.8 -8.2 0 0 0 0 1 5
1857 2 3.6 -8 0 0 0 0 1 5
1858 2 3.8 -8 0 0 0 0 1 5
1825 2 4 -8.2 0 0 0 0 1 5
1826 2 4.2 -8.2 0 0 0 0 1 5
1859 2 4 -8 0 0 0 0 1 5
1860 2 4.2 -8 0 0 0 0 1 5
1888 2 3 -7.8 0 0 0 0 1 5
1889 2 3.2 -7.8 0 0 0 0 1 5
1922 2 3 -7.6 0 0 0 0 1 5
1923 2 3.2 -7.6 0 0 0 0 1 5
1956 2 3 -7.4 0 0 0 0 1.00056 5
1957 2 3.2 -7.4 0 0 0 0 0.998289 5
1890 2 3.4 -7.8 0 0 0 0 1 5
1924 2 3.4 -7.6 0 0 0 0 1 5
1958 2 3.4 -7.4 0 0 0 0 1.00052 5
1950 2 3.7996 -7.4 0.02 0 0 0 1 5
1916 2 3.7996 -7.6 0.02 0 0 0 1 5
1882 2 3.7996 -7.8 0.02 0 0 0 1 5
1949 2 3.5996 -7.4 0.02 0 0 0 0.996103 5
1915 2 3.5996 -7.6 0.02 0 0 0 1 5
1881 2 3.5996 -7.8 0.02 0 0 0 1 5
1948 2 3.3996 -7.4 0.02 0 0 0 1.00052 5
1914 2 3.3996 -7.6 0.02 0 0 0 1 5
1880 2 3.3996 -7.8 0.02 0 0 0 1 5
1891 2 3.6 -7.8 0 0 0 0 1 5
1892 2 3.8 -7.8 0 0 0 0 1 5
1925 2 3.6 -7.6 0 0 0 0 1 5
1926 2 3.8 -7.6 0 0 0 0 1 5
1959 2 3.6 -7.4 0 0 0 0 0.996094 5
1960 2 3.8 -7.4 0 0 0 0 1 5
1893 2 4 -7.8 0 0 0 0 1 5
1894 2 4.2 -7.8 0 0 0 0 1 5
1927 2 4 -7.6 0 0 0 0 1 5
1928 2 4.2 -7.6 0 0 0 0 1 5
1961 2 4 -7.4 0 0 0 0 1 5
1962 2 4.2 -7.4 0 0 0 0 1 5
1990 2 3 -7.2 0 0 0 0 0.99992 5
1991 2 3.2 -7.2 0 0 0 0 0.999423 5
2024 2 3 -7 0 0 0 0 0.999915 5
2025 2 3.2 -7 0 0 0 0 0.999613 5
1992 2 3.4 -7.2 0 0 0 0 0.998989 5
2026 2 3.4 -7 0 0 0 0 0.998651 5
2018 2 3.7996 -7 0.02 0 0 0 0.991861 5
1984 2 3.7996 -7.2 0.02 0 0 0 0.991668 5
2017 2 3.5996 -7 0.02 0 0 0 0.995898 5
1983 2 3.5996 -7.2 0.02 0 0 0 0.995976 5
2016 2 3.3996 -7 0.02 0 0 0 0.998655 5
1982 2 3.3996 -7.2 0.02 0 0 0 0.998993 5
1993 2 3.6 -7.2 0 0 0 0 0.995969 5
1994 2 3.8 -7.2 0 0 0 0 0.991659 5
2027 2 3.6 -7 0 0 0 0 0.995891 5
2028 2 3.8 -7 0 0 0 0 0.991851 5
1995 2 4 -7.2 0 0 0 0 1 5
1996 2 4.2 -7.2 0 0 0 0 1 5
2029 2 4 -7 0 0 0 0 0.987224 5
2030 2 4.2 -7 0 0 0 0 1 5
2170 1 3.42387 -6.74294 0.02 0 -0.000644743 -0.000162124 1 2
2172 1 3.43569 -6.55023 0.02 0 7.79255e-05 0.000156184 1 2
2186 1 3.415 -6.35117 0.02 0 6.4312e-05 7.085e-05 1 2
2188 1 3.45311 -6.15293 0.02 0 1.50581e-06 7.31903e-06 1 2
2204 1 3.45855 -5.75702 0.02 0 6.53622e-12 1.19865e-11 1 2
2202 1 3.45282 -5.95431 0.02 0 3.23511e-09 2.11727e-08 1 2
2220 1 3.33428 -5.21781 0.02 0 0 0 1 2
2237 1 3.36845 -4.85434 0.02 0 0 0 1 2
2236 1 3.32273 -5.0319 0.02 0 0 0 1 2
2250 1 3.4004 -4.67763 0.02 0 0 0 1 2
2251 1 3.36958 -4.50029 0.02 0 0 0 1 2
2270 1 3.34864 -4.13913 0.02 0 0 0 1 2
2269 1 3.36061 -4.31783 0.02 0 0 0 1 2
2142 1 3.42811 -3.18414 0.02 0 0 0 1 2
2127 1 3.43744 -2.9818 0.02 0 0 0 1 2
2125 1 3.38943 -2.76838 0.02 0 0 0 1 2
2109 1 3.37016 -2.30904 0.02 0 0 0 1 2
2111 1 3.37526 -2.54253 0.02 0 0 0 1 2
2093 1 3.43882 -1.84906 0.02 0 0 0 1 2
2095 1 3.32744 -2.1014 0.02 0 0 0 1 2
2078 1 3.40417 -1.61635 0.02 0 0 0 1 2
2077 1 3.38288 -1.37464 0.02 0 0 0 1 2
2061 1 3.38385 -0.925982 0.02 0 0 0 1 2
2062 1 3.38655 -1.14477 0.02 0 0 0 1 2
2046 1 3.38676 -0.71437 0.02 0 0 0 1 2
2045 1 3.35878 -0.514055 0.02 0 0 0 1 2
2034 1 3.32764 -0.130901 0.02 0 0 0 1 2
2031 1 3.34713 -0.318944 0.02 0 0 0 1 2
2187 1 3.26005 -6.17118 0.02 0 3.09892e-06 6.41171e-06 1 2
2201 1 3.25822 -5.97154 0.02 0 7.59306e-09 2.45507e-08 1 2
2203 1 3.25888 -5.77485 0.02 0 5.80181e-12 2.29908e-11 1 2
2218 1 3.30177 -5.40162 0.02 0 0 0 1 2
2217 1 3.25138 -5.5831 0.02 0 0 0 1 2
2271 1 3.29459 -3.95743 0.02 0 0 0 1 2
2285 1 3.26565 -3.57722 0.02 0 0 0 1 2
2284 1 3.27163 -3.76644 0.02 0 0 0 1 2
2144 1 3.26379 -3.38146 0.02 0 0 0 1 2
2094 1 3.26427 -1.89427 0.02 0 0 0 1 2
1505 2 3.1996 -10 0.02 0 0 0 1 5
1539 2 3.1996 -9.8 0.02 0 0 0 1 5
1573 2 3.1996 -9.6 0.02 0 0 0 1 5
1641 2 3.1996 -9.2 0.02 0 0 0 1 5
1607 2 3.1996 -9.4 0.02 0 0 0 1 5
1675 2 3.1996 -9 0.02 0 0 0 1 5
1709 2 3.1996 -8.8 0.02 0 0 0 1 5
2048 1 3.20154 -0.782001 0.02 0 0 0 1 2
1777 2 3.1996 -8.4 0.02 0 0 0 1 5
1743 2 3.1996 -8.6 0.02 0 0 0 1 5
1845 2 3.1996 -8 0.02 0 0 0 1 5
1811 2 3.1996 -8.2 0.02 0 0 0 1 5
1947 2 3.1996 -7.4 0.02 0 0 0 0.99828 5
1913 2 3.1996 -7.6 0.02 0 0 0 1 5
1879 2 3.1996 -7.8 0.02 0 0 0 1 5
2015 2 3.1996 -7 0.02 0 0 0 0.999613 5
1981 2 3.1996 -7.2 0.02 0 0 0 0.999422 5
2063 1 3.20522 -0.999003 0.02 0 0 0 1 2
2064 1 3.21124 -1.2208 0.02 0 0 0 1 2
2169 1 3.22203 -6.73676 0.02 0 -0.000952425 -0.000224186 1 2
2171 1 3.24608 -6.55608 0.02 0 -8.07242e-06 0.000152376 1 2
2185 1 3.21943 -6.36836 0.02 0 5.53653e-05 6.15382e-05 1 2
2143 1 3.22628 -3.17868 0.02 0 0 0 1 2
2126 1 3.20059 -2.78375 0.02 0 0 0 1 2
2128 1 3.24019 -2.98033 0.02 0 0 0 1 2
2110 1 3.1973 -2.37813 0.02 0 0 0 1 2
2112 1 3.18923 -2.58323 0.02 0 0 0 1 2
2079 1 3.21886 -1.45199 0.02 0 0 0 1 2
2080 1 3.23452 -1.67593 0.02 0 0 0 1 2
2047 1 3.17077 -0.577099 0.02 0 0 0 1 2
2032 1 3.14881 -0.370969 0.02 0 0 0 1 2
2219 1 3.12335 -5.2199 0.02 0 0 0 1 2
2033 1 3.12451 -0.167125 0.02 0 0 0 1 2
2234 1 3.10539 -5.03303 0.02 0 0 0 1 2
2235 1 3.14545 -4.85207 0.02 0 0 0 1 2
2249 1 3.16597 -4.49409 0.02 0 0 0 1 2
2248 1 3.15849 -4.67505 0.02 0 0 0 1 2
2268 1 3.13066 -4.12772 0.02 0 0 0 1 2
2267 1 3.12564 -4.31213 0.02 0 0 0 1 2
2096 1 3.15262 -2.16444 0.02 0 0 0 1 2
2168 1 3.04774 -6.56544 0.02 0 -3.51857e-05 0.000139845 1 2
2184 1 3.06488 -6.181 0.02 0 3.43429e-06 7.18733e-06 1 2
2200 1 3.05968 -5.78722 0.02 0 8.88612e-12 4.4023e-11 1 2
2198 1 3.06435 -5.98631 0.02 0 1.36913e-08 4.56109e-08 1 2
2216 1 3.07537 -5.40096 0.02 0 0 0 1 2