ITEM: TIMESTEP
68000
ITEM: NUMBER OF ATOMS
1301
ITEM: BOX BOUNDS ff ff pp
0.0000000000000000e+00 4.4000000000000004e+00
-1.0000000000000000e+01 1.0000000000000000e+01
-2.0000000000000000e-02 2.0000000000000000e-02
ITEM: ATOMS id type x y vx vy fx fy c_den c_phase
5477 1 1.26046 -6.55585 0.02 0 -4.8324e-13 -1.0772e-13 1 2
5478 1 1.22507 -6.74131 0.02 0 -2.36348e-10 -1.43624e-10 1 2
5479 1 1.42072 -6.73288 0.02 0 -1.34606e-06 -7.5925e-07 1 2
5412 1 1.45952 -1.32969 0.02 0 0 0 1 2
5481 1 1.45902 -6.55059 0.02 0 1.31559e-08 5.65907e-08 1 2
5413 1 1.42519 -1.53436 0.02 0 0 0 1 2
5382 1 1.43191 -0.732508 0.02 0 0 0 1 2
5492 1 1.21885 -6.37194 0.02 0 0 0 1 2
5491 1 1.27481 -6.18665 0.02 0 0 0 1 2
5493 1 1.42683 -6.3674 0.02 0 7.42848e-11 1.38112e-09 1 2
5414 1 1.24036 -1.50843 0.02 0 0 0 1 2
5395 1 1.2414 -0.901014 0.02 0 0 0 1 2
5415 1 1.23631 -1.73208 0.02 0 0 0 1 2
5505 1 1.28513 -5.99723 0.02 0 0 0 1 2
5507 1 1.3343 -5.80658 0.02 0 0 0 1 2
5458 1 1.29829 -2.74803 0.02 0 0 0 1 2
5370 1 1.3232 -0.152884 0.02 0 0 0 1 2
5425 1 1.4288 -1.74 0.02 0 0 0 1 2
5444 1 1.23052 -2.36162 0.02 0 0 0 1 2
5519 1 1.33956 -5.61253 0.02 0 0 0 1 2
5397 1 1.22893 -1.09749 0.02 0 0 0 1 2
5521 1 1.34602 -5.41997 0.02 0 0 0 1 2
5446 1 1.29314 -2.5513 0.02 0 0 0 1 2
5523 1 1.35341 -5.227 0.02 0 0 0 1 2
5381 1 1.39715 -0.539044 0.02 0 0 0 1 2
5475 1 1.41817 -3.31305 0.02 0 0 0 1 2
5533 1 1.32413 -5.03675 0.02 0 0 0 1 2
5474 1 1.35384 -3.12678 0.02 0 0 0 1 2
5398 1 1.26596 -1.29527 0.02 0 0 0 1 2
5536 1 1.3438 -4.84099 0.02 0 0 0 1 2
5460 1 1.35082 -2.93542 0.02 0 0 0 1 2
5383 1 1.22589 -0.705281 0.02 0 0 0 1 2
5443 1 1.43554 -2.33645 0.02 0 0 0 1 2
5546 1 1.30509 -4.65191 0.02 0 0 0 1 2
5548 1 1.30419 -4.4537 0.02 0 0 0 1 2
5476 1 1.21697 -3.32049 0.02 0 0 0 1 2
5430 1 1.22529 -1.94759 0.02 0 0 0 1 2
5369 1 1.34312 -0.347981 0.02 0 0 0 1 2
5396 1 1.4343 -1.12575 0.02 0 0 0 1 2
5394 1 1.44406 -0.929103 0.02 0 0 0 1 2
5561 1 1.24841 -4.26376 0.02 0 0 0 1 2
5563 1 1.23813 -4.07443 0.02 0 0 0 1 2
5562 1 1.45994 -4.25029 0.02 0 0 0 1 2
5564 1 1.46461 -4.07209 0.02 0 0 0 1 2
5429 1 1.41959 -1.94213 0.02 0 0 0 1 2
5431 1 1.41958 -2.14153 0.02 0 0 0 1 2
5575 1 1.20767 -3.89035 0.02 0 0 0 1 2
5577 1 1.22293 -3.70246 0.02 0 0 0 1 2
5576 1 1.42744 -3.89342 0.02 0 0 0 1 2
5578 1 1.43132 -3.70607 0.02 0 0 0 1 2
5579 1 1.40961 -3.51178 0.02 0 0 0 1 2
5432 1 1.22298 -2.15848 0.02 0 0 0 1 2
5359 1 1.31256 0.237385 0.02 0 0 0 1 2
5358 1 1.34756 0.0395651 0.02 0 0 0 1 2
5507 1 1.45743 4.60341 0.02 0 0 0 1 2
5476 1 1.44876 3.81922 0.02 0 0 0 1 2
5473 1 1.27067 3.63127 0.02 0 0 0 1 2
5565 1 1.31637 6.16723 0.02 0 0 0 1 2
5372 1 1.32851 0.437467 0.02 0 0 0 1 2
5373 1 1.34907 0.63279 0.02 0 0 0 1 2
5374 1 1.37119 0.834251 0.02 0 0 0 1 2
5505 1 1.44431 4.4065 0.02 0 0 0 1 2
5521 1 1.27762 5.20376 0.02 0 0 0 1 2
5504 1 1.24631 4.43587 0.02 0 0 0 1 2
5506 1 1.25283 4.63593 0.02 0 0 0 1 2
5567 1 1.32896 6.36128 0.02 0 0 0 1 2
5490 1 1.41865 4.01573 0.02 0 0 0 1 2
5388 1 1.2348 1.27261 0.02 0 0 0 1 2
5387 1 1.39265 1.03793 0.02 0 0 0 1 2
5389 1 1.42028 1.24564 0.02 0 0 0 1 2
5492 1 1.42003 4.21125 0.02 0 0 0 1 2
5519 1 1.27261 5.01451 0.02 0 0 0 1 2
5581 1 1.35672 6.54974 0.02 0 -5.05955e-11 1.21502e-11 1 2
5580 1 1.35826 6.7342 0.02 0 -9.96551e-08 6.49692e-08 1 2
5401 1 1.27326 1.47994 0.02 0 0 0 1 2
5403 1 1.29756 1.69001 0.02 0 0 0 1 2
5402 1 1.45862 1.45902 0.02 0 0 0 1 2
5475 1 1.24577 3.82853 0.02 0 0 0 1 2
5538 1 1.28597 5.58057 0.02 0 0 0 1 2
5536 1 1.24269 5.39256 0.02 0 0 0 1 2
5415 1 1.34359 1.916 0.02 0 0 0 1 2
5416 1 1.3765 2.14432 0.02 0 0 0 1 2
5459 1 1.34434 3.23163 0.02 0 0 0 1 2
5517 1 1.27323 4.82569 0.02 0 0 0 1 2
5460 1 1.31426 3.43426 0.02 0 0 0 1 2
5553 1 1.304 5.96958 0.02 0 0 0 1 2
5429 1 1.21504 2.5326 0.02 0 0 0 1 2
5430 1 1.2304 2.30901 0.02 0 0 0 1 2
5431 1 1.40996 2.36875 0.02 0 0 0 1 2
5432 1 1.39049 2.59423 0.02 0 0 0 1 2
5491 1 1.22114 4.23193 0.02 0 0 0 1 2
5489 1 1.21615 4.02729 0.02 0 0 0 1 2
5551 1 1.27036 5.77175 0.02 0 0 0 1 2
5537 1 1.44946 5.37955 0.02 0 0 0 1 2
5444 1 1.20237 2.76028 0.02 0 0 0 1 2
5445 1 1.38806 2.8109 0.02 0 0 0 1 2
5446 1 1.37587 3.02846 0.02 0 0 0 1 2
1509 2 2 -10 0 0 0 0 1 5
1510 2 2.2 -10 0 0 0 0 1 5
1511 2 2.4 -10 0 0 0 0 1 5
1543 2 2 -9.8 0 0 0 0 1 5
1544 2 2.2 -9.8 0 0 0 0 1 5
1545 2 2.4 -9.8 0 0 0 0 1 5
1577 2 2 -9.6 0 0 0 0 1 5
1578 2 2.2 -9.6 0 0 0 0 1 5
1579 2 2.4 -9.6 0 0 0 0 1 5
1512 2 2.6 -10 0 0 0 0 1 5
1513 2 2.8 -10 0 0 0 0 1 5
1546 2 2.6 -9.8 0 0 0 0 1 5
1547 2 2.8 -9.8 0 0 0 0 1 5
1580 2 2.6 -9.6 0 0 0 0 1 5
1581 2 2.8 -9.6 0 0 0 0 1 5
1645 2 2 -9.2 0 0 0 0 1 5
1646 2 2.2 -9.2 0 0 0 0 1 5
1647 2 2.4 -9.2 0 0 0 0 1 5
1613 2 2.4 -9.4 0 0 0 0 1 5
1612 2 2.2 -9.4 0 0 0 0 1 5
1611 2 2 -9.4 0 0 0 0 1 5
1648 2 2.6 -9.2 0 0 0 0 1 5
1649 2 2.8 -9.2 0 0 0 0 1 5
1615 2 2.8 -9.4 0 0 0 0 1 5
1614 2 2.6 -9.4 0 0 0 0 1 5
1679 2 2 -9 0 0 0 0 1 5
1680 2 2.2 -9 0 0 0 0 1 5
1681 2 2.4 -9 0 0 0 0 1 5
1713 2 2 -8.8 0 0 0 0 1 5
1714 2 2.2 -8.8 0 0 0 0 1 5
1715 2 2.4 -8.8 0 0 0 0 1 5
1682 2 2.6 -9 0 0 0 0 1 5
1683 2 2.8 -9 0 0 0 0 1 5
1716 2 2.6 -8.8 0 0 0 0 1 5
1717 2 2.8 -8.8 0 0 0 0 1 5
1783 2 2.4 -8.4 0 0 0 0 1 5
1782 2 2.2 -8.4 0 0 0 0 1 5
1781 2 2 -8.4 0 0 0 0 1 5
1747 2 2 -8.6 0 0 0 0 1 5
1748 2 2.2 -8.6 0 0 0 0 1 5
1749 2 2.4 -8.6 0 0 0 0 1 5
1785 2 2.8 -8.4 0 0 0 0 1 5
1784 2 2.6 -8.4 0 0 0 0 1 5
1750 2 2.6 -8.6 0 0 0 0 1 5
1751 2 2.8 -8.6 0 0 0 0 1 5
1851 2 2.4 -8 0 0 0 0 1 5
1850 2 2.2 -8 0 0 0 0 1 5
1849 2 2 -8 0 0 0 0 1 5
1817 2 2.4 -8.2 0 0 0 0 1 5
1816 2 2.2 -8.2 0 0 0 0 1 5
1815 2 2 -8.2 0 0 0 0 1 5
1853 2 2.8 -8 0 0 0 0 1 5
1852 2 2.6 -8 0 0 0 0 1 5
1819 2 2.8 -8.2 0 0 0 0 1 5
1818 2 2.6 -8.2 0 0 0 0 1 5
1953 2 2.4 -7.4 0 0 0 0 0.999669 5
1952 2 2.2 -7.4 0 0 0 0 1.00777 5
1951 2 2 -7.4 0 0 0 0 1.0006 5
1919 2 2.4 -7.6 0 0 0 0 1 5
1918 2 2.2 -7.6 0 0 0 0 1 5
1917 2 2 -7.6 0 0 0 0 1 5
1885 2 2.4 -7.8 0 0 0 0 1 5
1884 2 2.2 -7.8 0 0 0 0 1 5
1883 2 2 -7.8 0 0 0 0 1 5
1955 2 2.8 -7.4 0 0 0 0 0.988547 5
1954 2 2.6 -7.4 0 0 0 0 0.999763 5
1921 2 2.8 -7.6 0 0 0 0 1 5
1920 2 2.6 -7.6 0 0 0 0 1 5
1887 2 2.8 -7.8 0 0 0 0 1 5
1886 2 2.6 -7.8 0 0 0 0 1 5
2021 2 2.4 -7 0 0 0 0 1.00008 5
2020 2 2.2 -7 0 0 0 0 1.00029 5
2019 2 2 -7 0 0 0 0 1.00117 5
1987 2 2.4 -7.2 0 0 0 0 1.00098 5
1986 2 2.2 -7.2 0 0 0 0 1.00085 5
1985 2 2 -7.2 0 0 0 0 1.0006 5
2023 2 2.8 -7 0 0 0 0 0.990781 5
2022 2 2.6 -7 0 0 0 0 0.996069 5
1989 2 2.8 -7.2 0 0 0 0 0.988971 5
1988 2 2.6 -7.2 0 0 0 0 0.996412 5
5489 1 2.22933 -6.54144 0.02 0 0.000197534 0.000541431 1 2
5487 1 2.19996 -6.72408 0.02 0 -0.0024525 -0.000490292 1 2
5484 1 2.00919 -6.74316 0.02 0 -0.00347366 -0.000557431 1 2
5486 1 2.03078 -6.54895 0.02 0 5.51678e-05 0.000397606 1 2
5485 1 1.83843 -6.5457 0.02 0 -1.21432e-05 0.000204041 1 2
5602 1 2.63078 -6.57351 0.02 0 4.7216e-05 0.000606396 1 2
5601 1 2.60081 -6.75322 0.02 0 -0.0022856 -0.000541703 1 2
5488 1 2.39257 -6.75776 0.02 0 -0.00281371 -0.000620667 1 2
5490 1 2.43191 -6.57579 0.02 0 0.000212187 0.000597747 1 2
5377 1 1.80324 -0.495489 0.02 0 0 0 1 2
5409 1 1.81626 -1.52623 0.02 0 0 0 1 2
5500 1 2.04468 -6.14239 0.02 0 8.79884e-07 2.71302e-06 1 2
5503 1 2.23258 -6.14707 0.02 0 2.61881e-06 5.49161e-06 1 2
5501 1 2.21451 -6.34864 0.02 0 6.57155e-05 0.000103702 1 2
5498 1 2.02276 -6.34812 0.02 0 3.24444e-05 6.14661e-05 1 2
5497 1 1.83124 -6.35019 0.02 0 4.79958e-06 1.88638e-05 1 2
5499 1 1.85664 -6.14888 0.02 0 9.53748e-08 8.56914e-07 1 2
5604 1 2.6073 -6.19537 0.02 0 1.21729e-05 1.83332e-05 1 2
5603 1 2.622 -6.38957 0.02 0 0.000200663 0.000192901 1 2
5502 1 2.41356 -6.39314 0.02 0 0.000141042 0.000174515 1 2
5504 1 2.41689 -6.20358 0.02 0 9.84522e-06 1.58813e-05 1 2
5591 1 2.58427 -0.16625 0.02 0 0 0 1 2
5590 1 2.59422 -0.352175 0.02 0 0 0 1 2
5515 1 2.25053 -5.9393 0.02 0 1.63806e-09 8.81844e-09 1 2
5517 1 2.27757 -5.73109 0.02 0 1.72794e-13 1.32072e-12 1 2
5514 1 2.09449 -5.71422 0.02 0 5.72409e-14 5.16805e-13 1 2
5512 1 2.06284 -5.93286 0.02 0 4.8939e-10 5.14661e-09 1 2
5513 1 1.91077 -5.73937 0.02 0 2.30041e-14 1.86812e-13 1 2
5511 1 1.87229 -5.94497 0.02 0 2.34439e-10 3.95912e-09 1 2
5606 1 2.6447 -5.77786 0.02 0 1.94405e-12 4.7753e-11 1 2
5605 1 2.62258 -5.98742 0.02 0 3.40656e-08 8.03447e-08 1 2
5516 1 2.43156 -6.00316 0.02 0 6.47497e-08 1.65914e-07 1 2
5518 1 2.45372 -5.79421 0.02 0 1.32557e-11 9.33137e-11 1 2
5362 1 2.37228 -0.00517025 0.02 0 0 0 1 2
5361 1 2.38258 -0.386881 0.02 0 0 0 1 2
5527 1 1.96277 -5.32498 0.02 0 0 0 1 2
5526 1 1.94164 -5.5274 0.02 0 0 0 1 2
5529 1 2.16499 -5.31287 0.02 0 0 0 1 2
5528 1 2.14011 -5.51011 0.02 0 0 0 1 2
5531 1 2.51727 -5.59044 0.02 0 0 0 1 2
5532 1 2.36277 -5.32207 0.02 0 0 0 1 2
5530 1 2.33425 -5.52818 0.02 0 0 0 1 2
5607 1 2.5488 -5.38676 0.02 0 0 0 1 2
5359 1 2.37364 -0.196663 0.02 0 0 0 1 2
5541 1 1.94556 -4.9405 0.02 0 0 0 1 2
5542 1 2.17877 -5.11823 0.02 0 0 0 1 2
5543 1 2.15978 -4.9288 0.02 0 0 0 1 2
5540 1 1.97483 -5.12872 0.02 0 0 0 1 2
5609 1 2.56325 -5.17777 0.02 0 0 0 1 2
5545 1 2.36931 -4.91492 0.02 0 0 0 1 2
5608 1 2.56607 -4.96222 0.02 0 0 0 1 2
5544 1 2.37677 -5.11594 0.02 0 0 0 1 2
5555 1 1.91522 -4.37673 0.02 0 0 0 1 2
5554 1 1.91881 -4.56381 0.02 0 0 0 1 2
5551 1 1.96123 -4.75097 0.02 0 0 0 1 2
5559 1 2.14221 -4.36488 0.02 0 0 0 1 2
5558 1 2.12297 -4.55212 0.02 0 0 0 1 2
5556 1 2.16686 -4.73934 0.02 0 0 0 1 2
5611 1 2.55511 -4.75025 0.02 0 0 0 1 2
5560 1 2.32839 -4.5189 0.02 0 0 0 1 2
5610 1 2.5351 -4.53983 0.02 0 0 0 1 2
5557 1 2.36349 -4.71341 0.02 0 0 0 1 2
5571 1 2.08898 -3.99128 0.02 0 0 0 1 2
5567 1 1.9328 -4.19478 0.02 0 0 0 1 2
5573 1 2.30006 -3.95745 0.02 0 0 0 1 2
5570 1 2.14014 -4.17818 0.02 0 0 0 1 2
5568 1 1.87399 -4.0183 0.02 0 0 0 1 2
5574 1 2.5126 -3.95467 0.02 0 0 0 1 2
5572 1 2.33812 -4.14475 0.02 0 0 0 1 2
5613 1 2.58104 -4.34308 0.02 0 0 0 1 2
5612 1 2.5418 -4.14849 0.02 0 0 0 1 2
5569 1 2.37044 -4.33349 0.02 0 0 0 1 2
5585 1 2.10379 -3.7986 0.02 0 0 0 1 2
5584 1 2.0519 -3.61681 0.02 0 0 0 1 2
5586 1 2.31125 -3.76735 0.02 0 0 0 1 2
5587 1 2.26908 -3.58462 0.02 0 0 0 1 2
5582 1 1.89121 -3.83416 0.02 0 0 0 1 2
5583 1 1.84055 -3.65631 0.02 0 0 0 1 2
5589 1 2.51768 -3.76213 0.02 0 0 0 1 2
5588 1 2.49266 -3.57491 0.02 0 0 0 1 2
5464 1 2.24335 -3.40033 0.02 0 0 0 1 2
5469 1 2.03449 -3.43006 0.02 0 0 0 1 2
5462 1 2.23139 -3.21458 0.02 0 0 0 1 2
5467 1 2.01841 -3.24257 0.02 0 0 0 1 2
5465 1 2.02921 -3.05803 0.02 0 0 0 1 2
5470 1 1.82708 -3.46596 0.02 0 0 0 1 2
5463 1 2.45407 -3.3915 0.02 0 0 0 1 2
5615 1 2.66007 -3.18214 0.02 0 0 0 1 2
5614 1 2.66445 -3.37378 0.02 0 0 0 1 2
5461 1 2.44697 -3.20301 0.02 0 0 0 1 2
5360 1 2.16719 -0.337088 0.02 0 0 0 1 2
5455 1 1.95242 -2.88458 0.02 0 0 0 1 2
5453 1 1.95156 -2.69355 0.02 0 0 0 1 2
5450 1 2.16088 -2.86124 0.02 0 0 0 1 2
5447 1 2.17334 -2.67542 0.02 0 0 0 1 2
5452 1 2.2544 -3.02944 0.02 0 0 0 1 2
5448 1 2.38933 -2.65922 0.02 0 0 0 1 2
5451 1 2.47325 -3.01372 0.02 0 0 0 1 2
5600 1 2.61207 -2.80826 0.02 0 0 0 1 2
5599 1 2.59838 -2.62276 0.02 0 0 0 1 2
5449 1 2.38405 -2.84488 0.02 0 0 0 1 2
5358 1 2.16578 -0.144019 0.02 0 0 0 1 2
5364 1 1.95405 -0.323908 0.02 0 0 0 1 2
5438 1 2.07322 -2.31586 0.02 0 0 0 1 2
5441 1 1.90351 -2.50583 0.02 0 0 0 1 2
5437 1 2.11029 -2.49806 0.02 0 0 0 1 2
5435 1 2.28938 -2.28936 0.02 0 0 0 1 2
5439 1 1.85858 -2.31389 0.02 0 0 0 1 2
5434 1 2.52076 -2.4464 0.02 0 0 0 1 2
5433 1 2.50357 -2.26026 0.02 0 0 0 1 2
5436 1 2.31717 -2.4787 0.02 0 0 0 1 2
5365 1 1.95521 -0.132791 0.02 0 0 0 1 2
5422 1 2.03024 -1.76826 0.02 0 0 0 1 2
5421 1 2.05279 -2.13465 0.02 0 0 0 1 2
5420 1 2.04484 -1.95252 0.02 0 0 0 1 2
5419 1 2.26644 -2.10227 0.02 0 0 0 1 2
5418 1 2.25736 -1.91213 0.02 0 0 0 1 2
5423 1 1.8294 -1.92978 0.02 0 0 0 1 2
5424 1 1.83698 -2.12238 0.02 0 0 0 1 2
5417 1 2.46893 -1.89293 0.02 0 0 0 1 2
5416 1 2.47921 -2.07751 0.02 0 0 0 1 2
5404 1 2.23418 -1.7204 0.02 0 0 0 1 2
5403 1 2.22414 -1.52567 0.02 0 0 0 1 2
5399 1 2.20229 -1.32622 0.02 0 0 0 1 2
5406 1 2.01362 -1.3828 0.02 0 0 0 1 2
5407 1 2.01798 -1.57847 0.02 0 0 0 1 2
5410 1 1.82553 -1.73106 0.02 0 0 0 1 2
5405 1 1.8351 -1.30639 0.02 0 0 0 1 2
5402 1 2.40885 -1.34702 0.02 0 0 0 1 2
5401 1 2.44571 -1.71031 0.02 0 0 0 1 2
5400 1 2.43926 -1.52749 0.02 0 0 0 1 2
5598 1 2.66172 -1.66929 0.02 0 0 0 1 2
5597 1 2.65083 -1.48483 0.02 0 0 0 1 2
5593 1 2.63811 -0.727348 0.02 0 0 0 1 2
5389 1 2.01995 -1.16358 0.02 0 0 0 1 2
5388 1 2.01676 -0.94471 0.02 0 0 0 1 2
5387 1 2.21545 -1.12718 0.02 0 0 0 1 2
5386 1 2.20896 -0.928505 0.02 0 0 0 1 2
5390 1 1.8291 -0.889731 0.02 0 0 0 1 2
5391 1 1.83111 -1.09695 0.02 0 0 0 1 2
5596 1 2.63027 -1.30276 0.02 0 0 0 1 2
5595 1 2.6204 -1.11449 0.02 0 0 0 1 2
5594 1 2.60892 -0.921228 0.02 0 0 0 1 2
5385 1 2.41922 -1.16159 0.02 0 0 0 1 2
5384 1 2.40705 -0.96866 0.02 0 0 0 1 2
5592 1 2.61269 -0.538596 0.02 0 0 0 1 2
5372 1 2.41094 -0.58058 0.02 0 0 0 1 2
5373 1 2.20699 -0.534431 0.02 0 0 0 1 2
5374 1 2.22415 -0.733221 0.02 0 0 0 1 2
5375 1 2.00779 -0.520835 0.02 0 0 0 1 2
5376 1 2.02357 -0.729174 0.02 0 0 0 1 2
5378 1 1.82554 -0.690232 0.02 0 0 0 1 2
5371 1 2.42927 -0.773797 0.02 0 0 0 1 2
5483 1 1.81492 -6.73507 0.02 0 -0.00194745 -0.000548308 1 2
5525 1 1.76086 -5.35484 0.02 0 0 0 1 2
5538 1 1.76972 -5.15865 0.02 0 0 0 1 2
5550 1 1.75489 -4.77054 0.02 0 0 0 1 2
5466 1 1.7977 -3.07923 0.02 0 0 0 1 2
5468 1 1.81687 -3.27108 0.02 0 0 0 1 2
5363 1 1.73925 -0.307971 0.02 0 0 0 1 2
5510 1 1.72 -5.75045 0.02 0 0 0 1 2
5524 1 1.74286 -5.55149 0.02 0 0 0 1 2
5539 1 1.7378 -4.96681 0.02 0 0 0 1 2
5552 1 1.71564 -4.57905 0.02 0 0 0 1 2
5553 1 1.70357 -4.38703 0.02 0 0 0 1 2
5565 1 1.70156 -4.20495 0.02 0 0 0 1 2
5366 1 1.7455 -0.114722 0.02 0 0 0 1 2
5456 1 1.75206 -2.89076 0.02 0 0 0 1 2
5454 1 1.73034 -2.70067 0.02 0 0 0 1 2
5442 1 1.69936 -2.51352 0.02 0 0 0 1 2
5480 1 1.61797 -6.75405 0.02 0 -0.000348454 -0.000177792 1 2
5482 1 1.6478 -6.56092 0.02 0 -7.24633e-07 5.17473e-05 1 2
5411 1 1.61759 -1.55807 0.02 0 0 0 1 2
5408 1 1.65012 -1.35657 0.02 0 0 0 1 2
5380 1 1.62991 -0.727275 0.02 0 0 0 1 2
5494 1 1.63566 -6.36328 0.02 0 1.24809e-07 2.84876e-06 1 2
5496 1 1.6677 -6.16039 0.02 0 5.60454e-09 9.3092e-08 1 2
5509 1 1.67938 -5.95423 0.02 0 1.28856e-11 2.59107e-10 1 2
5566 1 1.66698 -4.02467 0.02 0 0 0 1 2
5426 1 1.62689 -1.75666 0.02 0 0 0 1 2
5427 1 1.62211 -1.95058 0.02 0 0 0 1 2
5428 1 1.62586 -2.14062 0.02 0 0 0 1 2
5393 1 1.63606 -1.14737 0.02 0 0 0 1 2
5580 1 1.63244 -3.65883 0.02 0 0 0 1 2
5581 1 1.65531 -3.84291 0.02 0 0 0 1 2
5471 1 1.61605 -3.27594 0.02 0 0 0 1 2
5440 1 1.64808 -2.328 0.02 0 0 0 1 2
5472 1 1.61653 -3.46983 0.02 0 0 0 1 2
5392 1 1.63954 -0.939246 0.02 0 0 0 1 2
5379 1 1.60136 -0.522502 0.02 0 0 0 1 2
5522 1 1.55453 -5.36883 0.02 0 0 0 1 2
5534 1 1.56166 -5.17716 0.02 0 0 0 1 2
5459 1 1.55116 -2.90063 0.02 0 0 0 1 2
5537 1 1.5512 -4.80092 0.02 0 0 0 1 2
5473 1 1.57393 -3.09032 0.02 0 0 0 1 2
5495 1 1.47642 -6.18267 0.02 0 2.19126e-11 1.97778e-10 1 2
5506 1 1.48698 -5.98398 0.02 0 0 0 1 2
5508 1 1.52809 -5.77274 0.02 0 0 0 1 2
5520 1 1.54142 -5.56602 0.02 0 0 0 1 2
5368 1 1.53932 -0.325939 0.02 0 0 0 1 2
5457 1 1.50997 -2.71402 0.02 0 0 0 1 2
5535 1 1.52862 -4.99135 0.02 0 0 0 1 2
5367 1 1.53496 -0.127069 0.02 0 0 0 1 2
5445 1 1.4942 -2.52318 0.02 0 0 0 1 2
5547 1 1.50976 -4.61708 0.02 0 0 0 1 2
5549 1 1.50644 -4.42822 0.02 0 0 0 1 2
5366 1 1.98972 0.42973 0.02 0 0 0 1 2
5370 1 2.19634 0.421645 0.02 0 0 0 1 2
5365 1 1.93293 0.249339 0.02 0 0 0 1 2
5364 1 1.95625 0.059238 0.02 0 0 0 1 2
5368 1 2.15882 0.234911 0.02 0 0 0 1 2
5367 1 2.16354 0.0474776 0.02 0 0 0 1 2
5371 1 2.39463 0.374789 0.02 0 0 0 1 2
5592 1 2.60011 0.205635 0.02 0 -2.5829e-25 -2.57786e-26 1 2
5593 1 2.59482 0.398851 0.02 0 -1.72392e-24 -8.34817e-26 1 2
5369 1 2.38022 0.183993 0.02 0 0 0 1 2
5591 1 2.58834 0.0193517 0.02 0 0 0 1 2
5449 1 1.75548 2.8148 0.02 0 0 0 1 2
454 2 2.6 9.6 0 0 0 0 1 5
455 2 2.8 9.6 0 0 0 0 1 5
5384 1 2.19101 0.814574 0.02 0 0 0 1 2
5382 1 1.98638 0.813736 0.02 0 0 0 1 2
5380 1 1.96298 0.621671 0.02 0 0 0 1 2
5383 1 2.1704 0.618043 0.02 0 0 0 1 2
5386 1 2.39195 0.778868 0.02 0 0 0 1 2
5595 1 2.58642 0.803749 0.02 0 0 0 1 2
5594 1 2.57338 0.597528 0.02 0 -1.53455e-26 1.0555e-27 1 2
5385 1 2.37377 0.577233 0.02 0 0 0 1 2
5395 1 1.97217 1.21399 0.02 0 0 0 1 2
5394 1 1.9678 1.00984 0.02 0 0 0 1 2
5398 1 2.15431 1.25685 0.02 0 0 0 1 2
5397 1 2.15901 1.02482 0.02 0 0 0 1 2
5596 1 2.5389 1.01621 0.02 0 0 0 1 2
5399 1 2.35172 0.979853 0.02 0 0 0 1 2
5396 1 2.33135 1.18177 0.02 0 0 0 1 2
5400 1 2.50417 1.2549 0.02 0 0 0 1 2
488 2 2.6 9.8 0 0 0 0 1 5
5410 1 2.0299 1.68017 0.02 0 0 0 1 2
5409 1 1.99892 1.42705 0.02 0 0 0 1 2
5411 1 2.16449 1.51908 0.02 0 0 0 1 2
5406 1 1.82519 1.4966 0.02 0 0 0 1 2
5408 1 1.84978 1.7034 0.02 0 0 0 1 2
5413 1 2.31827 1.39909 0.02 0 0 0 1 2
5412 1 2.34844 1.6367 0.02 0 0 0 1 2
5414 1 2.49256 1.49117 0.02 0 0 0 1 2
5435 1 1.7686 2.3479 0.02 0 0 0 1 2
489 2 2.8 9.8 0 0 0 0 1 5
5426 1 2.22196 2.00815 0.02 0 0 0 1 2
5425 1 2.20285 1.76239 0.02 0 0 0 1 2
5422 1 1.90989 2.15869 0.02 0 0 0 1 2
5423 1 2.05412 1.92671 0.02 0 0 0 1 2
5424 1 2.08589 2.16428 0.02 0 0 0 1 2
5420 1 1.87927 1.91786 0.02 0 0 0 1 2
5598 1 2.57432 2.15568 0.02 0 -1.4788e-26 1.74988e-27 1 2
5597 1 2.54569 1.96881 0.02 0 -1.8472e-26 3.48655e-27 1 2
5427 1 2.36984 1.90676 0.02 0 0 0 1 2
5428 1 2.51179 1.74622 0.02 0 0 0 1 2
5393 1 1.79284 1.27811 0.02 0 0 0 1 2
485 2 2 9.8 0 0 0 0 1 5
5439 1 2.24545 2.25701 0.02 0 0 0 1 2
5441 1 2.28501 2.48853 0.02 0 0 0 1 2
5440 1 2.11612 2.41636 0.02 0 0 0 1 2
5438 1 1.93185 2.60407 0.02 0 0 0 1 2
5437 1 1.94113 2.39116 0.02 0 0 0 1 2
5443 1 2.45537 2.43852 0.02 0 0 0 1 2
5442 1 2.40198 2.18531 0.02 0 0 0 1 2
5600 1 2.63229 2.58473 0.02 0 0 0 1 2
5599 1 2.614 2.35157 0.02 0 -2.98398e-26 4.28324e-27 1 2
5454 1 2.2944 2.69905 0.02 0 0 0 1 2
5456 1 2.29577 2.90428 0.02 0 0 0 1 2
5455 1 2.11231 2.88967 0.02 0 0 0 1 2
5451 1 1.91886 3.02303 0.02 0 0 0 1 2
5450 1 1.94205 2.81103 0.02 0 0 0 1 2
5453 1 2.11341 2.65195 0.02 0 0 0 1 2
5601 1 2.64765 2.85855 0.02 0 -3.21451e-23 -8.98113e-24 1 2
5458 1 2.47742 2.90002 0.02 0 0 0 1 2
5457 1 2.47908 2.67941 0.02 0 0 0 1 2
5464 1 1.91875 3.2457 0.02 0 0 0 1 2
5468 1 2.28744 3.10494 0.02 0 0 0 1 2
5470 1 2.29762 3.3043 0.02 0 0 0 1 2
5469 1 2.10268 3.31899 0.02 0 0 0 1 2
5467 1 2.09442 3.1084 0.02 0 0 0 1 2
5466 1 1.89348 3.45689 0.02 0 0 0 1 2
5472 1 2.48794 3.32898 0.02 0 0 0 1 2
5471 1 2.48115 3.11684 0.02 0 0 0 1 2
5392 1 1.77944 1.06131 0.02 0 0 0 1 2
5381 1 1.77989 0.852508 0.02 0 0 0 1 2
451 2 2 9.6 0 0 0 0 1 5
5484 1 2.09832 3.71021 0.02 0 0 0 1 2
5482 1 2.04691 3.89312 0.02 0 0 0 1 2
5481 1 2.08389 3.51782 0.02 0 0 0 1 2
5483 1 2.28276 3.50717 0.02 0 0 0 1 2
5485 1 2.3028 3.71059 0.02 0 0 0 1 2
5486 1 2.25331 3.90715 0.02 0 0 0 1 2
5478 1 1.89048 3.66113 0.02 0 0 0 1 2
5480 1 1.84983 3.85286 0.02 0 0 0 1 2
5488 1 2.50353 3.73255 0.02 0 0 0 1 2
5487 1 2.4791 3.5336 0.02 0 0 0 1 2
486 2 2.2 9.8 0 0 0 0 1 5
487 2 2.4 9.8 0 0 0 0 1 5
5498 1 2.08247 4.25175 0.02 0 0 0 1 2
5497 1 2.06894 4.07529 0.02 0 0 0 1 2
5499 1 2.3023 4.09809 0.02 0 0 0 1 2
5500 1 2.28539 4.28626 0.02 0 0 0 1 2
5496 1 1.85405 4.22757 0.02 0 0 0 1 2
5495 1 1.83977 4.04433 0.02 0 0 0 1 2
5503 1 2.49729 4.29844 0.02 0 0 0 1 2
5502 1 2.52322 4.1095 0.02 0 0 0 1 2
5501 1 2.45855 3.92357 0.02 0 0 0 1 2
5514 1 2.11064 4.59908 0.02 0 0 0 1 2
5512 1 2.06124 4.42752 0.02 0 0 0 1 2
5515 1 2.30784 4.64962 0.02 0 0 0 1 2
5511 1 1.88743 4.59867 0.02 0 0 0 1 2
5509 1 1.84704 4.41346 0.02 0 0 0 1 2
5513 1 2.32732 4.46547 0.02 0 0 0 1 2
5602 1 2.55654 4.48345 0.02 0 0 0 1 2
5516 1 2.51115 4.66964 0.02 0 0 0 1 2
5529 1 2.07611 4.96838 0.02 0 0 0 1 2
5530 1 2.11411 4.78575 0.02 0 0 0 1 2
5533 1 2.09672 5.16103 0.02 0 0 0 1 2
5534 1 2.30793 5.20486 0.02 0 0 0 1 2
5532 1 2.27867 5.01455 0.02 0 0 0 1 2
5523 1 1.89725 4.7851 0.02 0 0 0 1 2
5528 1 1.89138 5.17796 0.02 0 0 0 1 2
5526 1 1.8754 4.97869 0.02 0 0 0 1 2
5531 1 2.33678 4.83739 0.02 0 0 0 1 2
5603 1 2.55027 4.86388 0.02 0 0 0 1 2
5535 1 2.48863 5.04797 0.02 0 0 0 1 2
5543 1 1.91247 5.57105 0.02 0 0 0 1 2
5548 1 2.10475 5.55139 0.02 0 0 0 1 2
5544 1 2.07966 5.35238 0.02 0 0 0 1 2
5549 1 2.29799 5.59013 0.02 0 0 0 1 2
5547 1 2.28758 5.39313 0.02 0 0 0 1 2
5541 1 1.87182 5.37684 0.02 0 0 0 1 2
5550 1 2.5151 5.2439 0.02 0 0 0 1 2
5546 1 2.49407 5.63225 0.02 0 0 0 1 2
5545 1 2.49462 5.43574 0.02 0 0 0 1 2
5564 1 2.27092 5.97994 0.02 0 2.24287e-08 -7.30084e-08 1 2
5563 1 2.2846 5.78679 0.02 0 1.97185e-11 -6.05173e-11 1 2
5559 1 2.07199 5.97404 0.02 0 1.11778e-08 -4.92532e-08 1 2
5562 1 2.09064 5.7632 0.02 0 1.39581e-12 -4.61029e-12 1 2
5558 1 1.87574 5.95868 0.02 0 7.72945e-10 -3.94901e-09 1 2
5556 1 1.8929 5.76692 0.02 0 6.22409e-16 -2.10447e-15 1 2
5560 1 2.48276 6.01418 0.02 0 7.1909e-08 -2.83873e-07 1 2
5561 1 2.48334 5.82701 0.02 0 1.49387e-10 -4.11213e-10 1 2
5572 1 1.90714 6.35456 0.02 0 2.27601e-05 -4.89566e-05 1 2
5576 1 2.26565 6.17515 0.02 0 5.84585e-06 -1.38549e-05 1 2
5578 1 2.29922 6.37779 0.02 0 0.000126888 -0.000180622 1 2
5577 1 2.10577 6.38128 0.02 0 8.06771e-05 -0.000139288 1 2
5573 1 2.07591 6.18301 0.02 0 3.70209e-06 -1.00787e-05 1 2
5570 1 1.88623 6.15467 0.02 0 4.67544e-07 -1.50505e-06 1 2
5574 1 2.46068 6.19848 0.02 0 1.29888e-05 -2.32841e-05 1 2
5575 1 2.49621 6.38483 0.02 0 0.000239038 -0.000232978 1 2
452 2 2.2 9.6 0 0 0 0 1 5
5589 1 2.1326 6.57033 0.02 0 0.000138434 -0.000498885 1 2
5588 1 2.16233 6.75258 0.02 0 -0.00324672 0.000618803 1 2
5586 1 1.94267 6.55435 0.02 0 1.40523e-05 -0.000209089 1 2
5583 1 1.95548 6.75375 0.02 0 -0.00361781 0.000720452 1 2
5604 1 2.53513 6.56585 0.02 0 0.000634903 -0.000734785 1 2
5587 1 2.3716 6.76034 0.02 0 -0.00287499 0.000629609 1 2
5590 1 2.3316 6.57233 0.02 0 0.000262072 -0.000540525 1 2
5605 1 2.57505 6.74335 0.02 0 -0.00185768 0.000293074 1 2
5585 1 1.75692 6.56297 0.02 0 -3.80297e-05 -7.09866e-05 1 2
9 2 2 7 0 0 0 0 1.00147 5
10 2 2.2 7 0 0 0 0 0.999789 5
11 2 2.4 7 0 0 0 0 0.998797 5
43 2 2 7.2 0 0 0 0 1.00119 5
44 2 2.2 7.2 0 0 0 0 0.99999 5
45 2 2.4 7.2 0 0 0 0 0.998879 5
13 2 2.8 7 0 0 0 0 0.990523 5
46 2 2.6 7.2 0 0 0 0 0.994802 5
12 2 2.6 7 0 0 0 0 0.994681 5
47 2 2.8 7.2 0 0 0 0 0.989458 5
147 2 2.4 7.8 0 0 0 0 1 5
78 2 2.2 7.4 0 0 0 0 0.999803 5
77 2 2 7.4 0 0 0 0 0.998062 5
79 2 2.4 7.4 0 0 0 0 0.998319 5
145 2 2 7.8 0 0 0 0 1 5
113 2 2.4 7.6 0 0 0 0 1 5
112 2 2.2 7.6 0 0 0 0 1 5
146 2 2.2 7.8 0 0 0 0 1 5
111 2 2 7.6 0 0 0 0 1 5
115 2 2.8 7.6 0 0 0 0 1 5
81 2 2.8 7.4 0 0 0 0 0.987169 5
114 2 2.6 7.6 0 0 0 0 1 5
148 2 2.6 7.8 0 0 0 0 1 5
80 2 2.6 7.4 0 0 0 0 0.998251 5
149 2 2.8 7.8 0 0 0 0 1 5
179 2 2 8 0 0 0 0 1 5
215 2 2.4 8.2 0 0 0 0 1 5
214 2 2.2 8.2 0 0 0 0 1 5
213 2 2 8.2 0 0 0 0 1 5
181 2 2.4 8 0 0 0 0 1 5
180 2 2.2 8 0 0 0 0 1 5
182 2 2.6 8 0 0 0 0 1 5
217 2 2.8 8.2 0 0 0 0 1 5
216 2 2.6 8.2 0 0 0 0 1 5
183 2 2.8 8 0 0 0 0 1 5
281 2 2 8.6 0 0 0 0 1 5
282 2 2.2 8.6 0 0 0 0 1 5
283 2 2.4 8.6 0 0 0 0 1 5
247 2 2 8.4 0 0 0 0 1 5
248 2 2.2 8.4 0 0 0 0 1 5
249 2 2.4 8.4 0 0 0 0 1 5
250 2 2.6 8.4 0 0 0 0 1 5
251 2 2.8 8.4 0 0 0 0 1 5
284 2 2.6 8.6 0 0 0 0 1 5
285 2 2.8 8.6 0 0 0 0 1 5
350 2 2.2 9 0 0 0 0 1 5
349 2 2 9 0 0 0 0 1 5
317 2 2.4 8.8 0 0 0 0 1 5
316 2 2.2 8.8 0 0 0 0 1 5
315 2 2 8.8 0 0 0 0 1 5
351 2 2.4 9 0 0 0 0 1 5
353 2 2.8 9 0 0 0 0 1 5
318 2 2.6 8.8 0 0 0 0 1 5
319 2 2.8 8.8 0 0 0 0 1 5
352 2 2.6 9 0 0 0 0 1 5
383 2 2 9.2 0 0 0 0 1 5
384 2 2.2 9.2 0 0 0 0 1 5
418 2 2.2 9.4 0 0 0 0 1 5
417 2 2 9.4 0 0 0 0 1 5
419 2 2.4 9.4 0 0 0 0 1 5
385 2 2.4 9.2 0 0 0 0 1 5
420 2 2.6 9.4 0 0 0 0 1 5
421 2 2.8 9.4 0 0 0 0 1 5
387 2 2.8 9.2 0 0 0 0 1 5
386 2 2.6 9.2 0 0 0 0 1 5
453 2 2.4 9.6 0 0 0 0 1 5
5378 1 1.77553 0.459561 0.02 0 0 0 1 2
5379 1 1.75974 0.654789 0.02 0 0 0 1 2
5362 1 1.75115 0.0800426 0.02 0 0 0 1 2
5569 1 1.69732 6.18188 0.02 0 1.51547e-08 -5.22374e-08 1 2
5363 1 1.7193 0.273847 0.02 0 0 0 1 2
5584 1 1.74746 6.74535 0.02 0 -0.0015417 0.000487947 1 2
5419 1 1.70048 1.89594 0.02 0 0 0 1 2
5421 1 1.73617 2.11603 0.02 0 0 0 1 2
5555 1 1.68489 5.77797 0.02 0 0 0 1 2
5436 1 1.75044 2.57915 0.02 0 0 0 1 2
5571 1 1.71122 6.37729 0.02 0 1.58697e-06 -3.48003e-06 1 2
5452 1 1.73274 3.04024 0.02 0 0 0 1 2
5463 1 1.72795 3.24732 0.02 0 0 0 1 2
5465 1 1.6982 3.44591 0.02 0 0 0 1 2
5477 1 1.68366 3.64157 0.02 0 0 0 1 2
5542 1 1.71252 5.58596 0.02 0 0 0 1 2
5524 1 1.68994 4.80312 0.02 0 0 0 1 2
5527 1 1.69064 5.20648 0.02 0 0 0 1 2
5405 1 1.64132 1.44703 0.02 0 0 0 1 2
5407 1 1.66463 1.67125 0.02 0 0 0 1 2
5557 1 1.68291 5.97861 0.02 0 1.9729e-11 -9.08666e-11 1 2
5540 1 1.65954 5.39777 0.02 0 0 0 1 2
5479 1 1.64986 3.83413 0.02 0 0 0 1 2
5494 1 1.63125 4.21785 0.02 0 0 0 1 2
5525 1 1.67937 5.00674 0.02 0 0 0 1 2
5493 1 1.62625 4.02704 0.02 0 0 0 1 2
5510 1 1.66967 4.60699 0.02 0 0 0 1 2
5508 1 1.64508 4.41157 0.02 0 0 0 1 2
5360 1 1.54912 0.0702503 0.02 0 0 0 1 2
5375 1 1.55284 0.447179 0.02 0 0 0 1 2
5376 1 1.5525 0.632799 0.02 0 0 0 1 2
5377 1 1.57378 0.823418 0.02 0 0 0 1 2
5579 1 1.54878 6.74121 0.02 0 -8.40037e-05 3.44663e-05 1 2
5582 1 1.55838 6.5517 0.02 0 1.56879e-07 -3.92382e-06 1 2
5390 1 1.58764 1.02007 0.02 0 0 0 1 2
5391 1 1.60629 1.22846 0.02 0 0 0 1 2
5418 1 1.55391 2.10474 0.02 0 0 0 1 2
5433 1 1.57099 2.53851 0.02 0 0 0 1 2
5434 1 1.58999 2.32008 0.02 0 0 0 1 2
5447 1 1.57618 2.75478 0.02 0 0 0 1 2
5448 1 1.55912 2.9707 0.02 0 0 0 1 2
5361 1 1.50942 0.262486 0.02 0 0 0 1 2
5568 1 1.5178 6.35423 0.02 0 0 0 1 2
5474 1 1.4784 3.6212 0.02 0 0 0 1 2
5404 1 1.48111 1.67485 0.02 0 0 0 1 2
5417 1 1.52084 1.88768 0.02 0 0 0 1 2
5539 1 1.50076 5.56759 0.02 0 0 0 1 2
5520 1 1.47886 4.9907 0.02 0 0 0 1 2
5462 1 1.54038 3.1994 0.02 0 0 0 1 2
5461 1 1.50785 3.41439 0.02 0 0 0 1 2
5518 1 1.48465 4.79587 0.02 0 0 0 1 2
5554 1 1.49327 5.94709 0.02 0 0 0 1 2
5552 1 1.47666 5.75422 0.02 0 0 0 1 2
5566 1 1.50725 6.15029 0.02 0 2.65779e-17 -7.876e-17 1 2
5522 1 1.48667 5.18673 0.02 0 0 0 1 2
1583 2 3.2 -9.6 0 0 0 0 1 5
1582 2 3 -9.6 0 0 0 0 1 5
1549 2 3.2 -9.8 0 0 0 0 1 5
1548 2 3 -9.8 0 0 0 0 1 5
1515 2 3.2 -10 0 0 0 0 1 5
1514 2 3 -10 0 0 0 0 1 5
1584 2 3.4 -9.6 0 0 0 0 1 5
1550 2 3.4 -9.8 0 0 0 0 1 5
1516 2 3.4 -10 0 0 0 0 1 5
1586 2 3.8 -9.6 0 0 0 0 1 5
1585 2 3.6 -9.6 0 0 0 0 1 5
1552 2 3.8 -9.8 0 0 0 0 1 5
1551 2 3.6 -9.8 0 0 0 0 1 5
1518 2 3.8 -10 0 0 0 0 1 5
1517 2 3.6 -10 0 0 0 0 1 5
1588 2 4.2 -9.6 0 0 0 0 1 5
1587 2 4 -9.6 0 0 0 0 1 5
1554 2 4.2 -9.8 0 0 0 0 1 5
1553 2 4 -9.8 0 0 0 0 1 5
1520 2 4.2 -10 0 0 0 0 1 5
1519 2 4 -10 0 0 0 0 1 5
1616 2 3 -9.4 0 0 0 0 1 5
1617 2 3.2 -9.4 0 0 0 0 1 5
1651 2 3.2 -9.2 0 0 0 0 1 5
1650 2 3 -9.2 0 0 0 0 1 5
1652 2 3.4 -9.2 0 0 0 0 1 5
1618 2 3.4 -9.4 0 0 0 0 1 5
1653 2 3.6 -9.2 0 0 0 0 1 5
1654 2 3.8 -9.2 0 0 0 0 1 5
1620 2 3.8 -9.4 0 0 0 0 1 5
1619 2 3.6 -9.4 0 0 0 0 1 5
1622 2 4.2 -9.4 0 0 0 0 1 5
1655 2 4 -9.2 0 0 0 0 1 5
1656 2 4.2 -9.2 0 0 0 0 1 5
1621 2 4 -9.4 0 0 0 0 1 5
1719 2 3.2 -8.8 0 0 0 0 1 5
1718 2 3 -8.8 0 0 0 0 1 5
1685 2 3.2 -9 0 0 0 0 1 5
1684 2 3 -9 0 0 0 0 1 5
1686 2 3.4 -9 0 0 0 0 1 5
1720 2 3.4 -8.8 0 0 0 0 1 5
1687 2 3.6 -9 0 0 0 0 1 5
1688 2 3.8 -9 0 0 0 0 1 5
1721 2 3.6 -8.8 0 0 0 0 1 5
1722 2 3.8 -8.8 0 0 0 0 1 5
1689 2 4 -9 0 0 0 0 1 5
1690 2 4.2 -9 0 0 0 0 1 5
1723 2 4 -8.8 0 0 0 0 1 5
1724 2 4.2 -8.8 0 0 0 0 1 5
1752 2 3 -8.6 0 0 0 0 1 5
1753 2 3.2 -8.6 0 0 0 0 1 5
1786 2 3 -8.4 0 0 0 0 1 5
1787 2 3.2 -8.4 0 0 0 0 1 5
1754 2 3.4 -8.6 0 0 0 0 1 5
1788 2 3.4 -8.4 0 0 0 0 1 5
1755 2 3.6 -8.6 0 0 0 0 1 5
1756 2 3.8 -8.6 0 0 0 0 1 5
1789 2 3.6 -8.4 0 0 0 0 1 5
1790 2 3.8 -8.4 0 0 0 0 1 5
1757 2 4 -8.6 0 0 0 0 1 5
1758 2 4.2 -8.6 0 0 0 0 1 5
1791 2 4 -8.4 0 0 0 0 1 5
1792 2 4.2 -8.4 0 0 0 0 1 5
1820 2 3 -8.2 0 0 0 0 1 5
1821 2 3.2 -8.2 0 0 0 0 1 5
1854 2 3 -8 0 0 0 0 1 5
1855 2 3.2 -8 0 0 0 0 1 5
1822 2 3.4 -8.2 0 0 0 0 1 5
1856 2 3.4 -8 0 0 0 0 1 5
1823 2 3.6 -8.2 0 0 0 0 1 5
1824 2 3.8 -8.2 0 0 0 0 1 5
1857 2 3.6 -8 0 0 0 0 1 5
1858 2 3.8 -8 0 0 0 0 1 5
1825 2 4 -8.2 0 0 0 0 1 5
1826 2 4.2 -8.2 0 0 0 0 1 5
1859 2 4 -8 0 0 0 0 1 5
1860 2 4.2 -8 0 0 0 0 1 5
1888 2 3 -7.8 0 0 0 0 1 5
1889 2 3.2 -7.8 0 0 0 0 1 5
1922 2 3 -7.6 0 0 0 0 1 5
1923 2 3.2 -7.6 0 0 0 0 1 5
1956 2 3 -7.4 0 0 0 0 1.01154 5
1957 2 3.2 -7.4 0 0 0 0 1.00166 5
1890 2 3.4 -7.8 0 0 0 0 1 5
1924 2 3.4 -7.6 0 0 0 0 1 5
1958 2 3.4 -7.4 0 0 0 0 0.99983 5
1891 2 3.6 -7.8 0 0 0 0 1 5
1892 2 3.8 -7.8 0 0 0 0 1 5
1925 2 3.6 -7.6 0 0 0 0 1 5
1926 2 3.8 -7.6 0 0 0 0 1 5
1959 2 3.6 -7.4 0 0 0 0 1.00577 5
1960 2 3.8 -7.4 0 0 0 0 0.99951 5
1893 2 4 -7.8 0 0 0 0 1 5
1894 2 4.2 -7.8 0 0 0 0 1 5
1927 2 4 -7.6 0 0 0 0 1 5
1928 2 4.2 -7.6 0 0 0 0 1 5
1961 2 4 -7.4 0 0 0 0 0.997055 5
1962 2 4.2 -7.4 0 0 0 0 1.00266 5
1990 2 3 -7.2 0 0 0 0 1.0112 5
1991 2 3.2 -7.2 0 0 0 0 1.00448 5
2024 2 3 -7 0 0 0 0 1.00962 5
2025 2 3.2 -7 0 0 0 0 1.00461 5
1992 2 3.4 -7.2 0 0 0 0 0.999503 5
2026 2 3.4 -7 0 0 0 0 1.00017 5
1993 2 3.6 -7.2 0 0 0 0 1.00028 5
1994 2 3.8 -7.2 0 0 0 0 1.00099 5
2027 2 3.6 -7 0 0 0 0 0.999822 5
2028 2 3.8 -7 0 0 0 0 1.0011 5
1995 2 4 -7.2 0 0 0 0 1.00179 5
1996 2 4.2 -7.2 0 0 0 0 1.00016 5
2029 2 4 -7 0 0 0 0 1.00258 5
2030 2 4.2 -7 0 0 0 0 0.999372 5
5220 1 3.61949 -6.55761 0.02 0 -2.76904e-05 0.000461062 1 2
5218 1 3.59364 -6.72967 0.02 0 -0.00256531 -0.000496329 1 2
5217 1 3.40799 -6.57203 0.02 0 0.000267811 0.000424331 1 2
5215 1 3.398 -6.76478 0.02 0 -0.00306063 -0.000300547 1 2
5221 1 3.81585 -6.58151 0.0193842 0 -0.000179126 0.000383348 1 2
5219 1 3.77566 -6.77955 0.015468 0 -0.00203436 -0.000309164 1 2
5222 1 3.95081 -6.76313 0.0155415 0 -0.00260913 -0.000427015 1 2
5224 1 4.00383 -6.58016 0.0186128 0 -0.000222119 0.000401056 1 2
5225 1 4.2002 -6.55034 0.019077 0 -0.000108547 0.000673308 1 2
5223 1 4.12326 -6.73379 0.0164468 0 -0.00359107 -0.000810268 1 2
5214 1 3.20188 -6.75103 0.02 0 -0.00283283 -0.000180351 1 2
5226 1 4.2304 -6.7694 0.0147721 0 -0.00424032 -0.000555101 1 2
5228 1 4.37768 -6.56871 0.0191958 0 0.00137104 0.0017537 1 2
5227 1 4.37655 -6.75794 0.0150977 0 -0.00191164 -3.54574e-05 1 2
5122 1 4.29333 -0.767769 0.02 0 -1.85916e-18 -3.55255e-19 1 2
5236 1 3.67547 -6.19941 0.02 0 -7.53031e-06 2.213e-05 1 2
5234 1 3.62927 -6.38021 0.02 0 5.32847e-05 0.000143782 1 2
5233 1 3.45753 -6.20618 0.02 0 1.12343e-05 2.35548e-05 1 2
5232 1 3.42075 -6.38701 0.02 0 0.000153061 0.000171354 1 2