ITEM: TIMESTEP
2000
ITEM: NUMBER OF ATOMS
1127
ITEM: BOX BOUNDS ff ff pp
0.0000000000000000e+00 4.4000000000000004e+00
-1.0000000000000000e+01 1.0000000000000000e+01
-2.0000000000000000e-02 2.0000000000000000e-02
ITEM: ATOMS id type x y vx vy fx fy c_den c_phase
1501 2 1.1996 -10 0.02 0 0 0 1 5
1535 2 1.1996 -9.8 0.02 0 0 0 1 5
1569 2 1.1996 -9.6 0.02 0 0 0 1 5
1502 2 1.3996 -10 0.02 0 0 0 1 5
2108 1 0.813016 -2.0009 0.02 0 0 0 1 2
1536 2 1.3996 -9.8 0.02 0 0 0 1 5
2119 1 1.41379 -2.54709 0.02 0 0 0 1 2
1570 2 1.3996 -9.6 0.02 0 0 0 1 5
2117 1 1.41213 -2.3438 0.02 0 0 0 1 2
2039 1 1.37233 -0.411655 0.02 0 0 0 1 2
2139 1 0.859427 -2.62755 0.02 0 0 0 1 2
2150 1 1.41135 -3.14803 0.02 0 0 0 1 2
1637 2 1.1996 -9.2 0.02 0 0 0 1 5
1603 2 1.1996 -9.4 0.02 0 0 0 1 5
1638 2 1.3996 -9.2 0.02 0 0 0 1 5
2102 1 1.3567 -1.9211 0.02 0 0 0 1 2
2103 1 1.17091 -1.86398 0.02 0 0 0 1 2
1604 2 1.3996 -9.4 0.02 0 0 0 1 5
2074 1 1.07783 -1.23077 0.02 0 0 0 1 2
2073 1 1.27126 -1.24415 0.02 0 0 0 1 2
1671 2 1.1996 -9 0.02 0 0 0 1 5
1705 2 1.1996 -8.8 0.02 0 0 0 1 5
1672 2 1.3996 -9 0.02 0 0 0 1 5
2122 1 1.02098 -2.25416 0.02 0 0 0 1 2
1706 2 1.3996 -8.8 0.02 0 0 0 1 5
2121 1 1.03001 -2.46414 0.02 0 0 0 1 2
2044 1 0.989643 -0.406124 0.02 0 0 0 1 2
2043 1 0.971357 -0.196512 0.02 0 0 0 1 2
1773 2 1.1996 -8.4 0.02 0 0 0 1 5
1739 2 1.1996 -8.6 0.02 0 0 0 1 5
2120 1 1.22174 -2.49265 0.02 0 0 0 1 2
1774 2 1.3996 -8.4 0.02 0 0 0 1 5
2118 1 1.2157 -2.28702 0.02 0 0 0 1 2
1740 2 1.3996 -8.6 0.02 0 0 0 1 5
2042 1 1.1597 -0.204515 0.02 0 0 0 1 2
2041 1 1.18094 -0.418584 0.02 0 0 0 1 2
1841 2 1.1996 -8 0.02 0 0 0 1 5
1807 2 1.1996 -8.2 0.02 0 0 0 1 5
2124 1 0.836914 -2.4215 0.02 0 0 0 1 2
1842 2 1.3996 -8 0.02 0 0 0 1 5
2123 1 0.829722 -2.21217 0.02 0 0 0 1 2
1808 2 1.3996 -8.2 0.02 0 0 0 1 5
2040 1 1.34801 -0.202375 0.02 0 0 0 1 2
2054 1 1.40732 -0.618916 0.02 0 0 0 1 2
1943 2 1.1996 -7.4 0.02 0 0 0 1 5
1909 2 1.1996 -7.6 0.02 0 0 0 1 5
1875 2 1.1996 -7.8 0.02 0 0 0 1 5
2136 1 1.43116 -2.95325 0.02 0 0 0 1 2
1944 2 1.3996 -7.4 0.02 0 0 0 1 5
2133 1 1.42638 -2.75172 0.02 0 0 0 1 2
1910 2 1.3996 -7.6 0.02 0 0 0 1 5
2069 1 1.45381 -1.03348 0.02 0 0 0 1 2
1876 2 1.3996 -7.8 0.02 0 0 0 1 5
2053 1 1.44128 -0.826347 0.02 0 0 0 1 2
2070 1 1.45996 -1.24399 0.02 0 0 0 1 2
2140 1 0.870456 -2.83279 0.02 0 0 0 1 2
2011 2 1.1996 -7 0.02 0 0 0 1.00001 5
1977 2 1.1996 -7.2 0.02 0 0 0 1 5
2138 1 1.04809 -2.91284 0.02 0 0 0 1 2
2012 2 1.3996 -7 0.02 0 0 0 1.00011 5
2137 1 1.23754 -2.90633 0.02 0 0 0 1 2
1978 2 1.3996 -7.2 0.02 0 0 0 1.00006 5
2058 1 1.04372 -0.819929 0.02 0 0 0 1 2
2057 1 1.24318 -0.832632 0.02 0 0 0 1 2
2157 1 0.813714 -6.73915 0.02 0 -2.06911e-08 5.07958e-08 1 2
2159 1 0.847509 -6.55076 0.02 0 -1.5168e-09 1.20738e-09 1 2
2158 1 1.01892 -6.76661 0.02 0 -3.72493e-07 7.6295e-07 1 2
2160 1 1.03519 -6.57535 0.02 0 -2.42667e-08 4.33541e-08 1 2
2161 1 1.23461 -6.74572 0.02 0 -2.8385e-06 4.22661e-06 1 2
2163 1 1.22812 -6.56407 0.02 0 -1.35476e-07 3.51344e-07 1 2
2162 1 1.43309 -6.75043 0.02 0 -1.05081e-05 1.85138e-05 1 2
2164 1 1.43566 -6.56481 0.02 0 -5.34718e-07 2.02539e-06 1 2
2135 1 1.23531 -2.7004 0.02 0 0 0 1 2
2056 1 1.02221 -0.613201 0.02 0 0 0 1 2
2076 1 0.880517 -1.20811 0.02 0 0 0 1 2
2173 1 0.867402 -6.35963 0.02 0 0 0 1 2
2174 1 0.898697 -6.17071 0.02 0 0 0 1 2
2175 1 1.06276 -6.37801 0.02 0 -6.42814e-12 2.67431e-11 1 2
2176 1 1.09165 -6.17475 0.02 0 0 0 1 2
2177 1 1.25762 -6.37882 0.02 0 -1.02044e-10 5.31039e-10 1 2
2179 1 1.28304 -6.18522 0.02 0 0 0 1 2
2092 1 0.937993 -1.62282 0.02 0 0 0 1 2
2055 1 1.21616 -0.628898 0.02 0 0 0 1 2
2091 1 0.919952 -1.41351 0.02 0 0 0 1 2
2178 1 1.45026 -6.37692 0.02 0 -3.09196e-10 4.16622e-09 1 2
2180 1 1.47755 -6.18093 0.02 0 2.05903e-12 2.68084e-11 1 2
2192 1 1.07604 -5.77559 0.02 0 0 0 1 2
2191 1 1.08972 -5.97299 0.02 0 0 0 1 2
2190 1 0.87906 -5.78431 0.02 0 0 0 1 2
2189 1 0.889805 -5.9796 0.02 0 0 0 1 2
2194 1 1.27113 -5.78504 0.02 0 0 0 1 2
2193 1 1.28614 -5.98699 0.02 0 0 0 1 2
2090 1 1.12772 -1.64492 0.02 0 0 0 1 2
2089 1 1.31138 -1.6947 0.02 0 0 0 1 2
2196 1 1.48244 -5.9853 0.02 0 0 0 1 2
2195 1 1.4659 -5.78886 0.02 0 0 0 1 2
2206 1 0.802373 -5.39266 0.02 0 0 0 1 2
2205 1 0.825729 -5.58762 0.02 0 0 0 1 2
2211 1 1.21951 -5.39695 0.02 0 0 0 1 2
2209 1 1.23975 -5.58705 0.02 0 0 0 1 2
2208 1 1.03142 -5.58573 0.02 0 0 0 1 2
2207 1 1.00929 -5.39695 0.02 0 0 0 1 2
2088 1 1.11621 -1.43509 0.02 0 0 0 1 2
2060 1 0.844718 -0.808962 0.02 0 0 0 1 2
2087 1 1.3015 -1.46824 0.02 0 0 0 1 2
2212 1 1.43012 -5.39862 0.02 0 0 0 1 2
2210 1 1.44336 -5.59168 0.02 0 0 0 1 2
2222 1 0.848509 -4.83834 0.02 0 0 0 1 2
2227 1 1.29388 -4.85243 0.02 0 0 0 1 2
2226 1 1.25611 -5.03345 0.02 0 0 0 1 2
2225 1 1.22586 -5.21235 0.02 0 0 0 1 2
2224 1 1.07138 -4.85148 0.02 0 0 0 1 2
2223 1 1.02812 -5.02856 0.02 0 0 0 1 2
2221 1 1.00583 -5.20967 0.02 0 0 0 1 2
2104 1 1.39085 -2.13736 0.02 0 0 0 1 2
2134 1 1.04692 -2.68472 0.02 0 0 0 1 2
2149 1 1.44305 -3.33918 0.02 0 0 0 1 2
2229 1 1.47611 -5.03667 0.02 0 0 0 1 2
2228 1 1.45816 -5.21635 0.02 0 0 0 1 2
2072 1 1.06198 -1.02554 0.02 0 0 0 1 2
2239 1 0.844998 -4.462 0.02 0 0 0 1 2
2238 1 0.840672 -4.65017 0.02 0 0 0 1 2
2242 1 1.25368 -4.66888 0.02 0 0 0 1 2
2241 1 1.07274 -4.48385 0.02 0 0 0 1 2
2240 1 1.04512 -4.66649 0.02 0 0 0 1 2
2243 1 1.30933 -4.49172 0.02 0 0 0 1 2
2244 1 1.47376 -4.67305 0.02 0 0 0 1 2
2071 1 1.25926 -1.03504 0.02 0 0 0 1 2
2075 1 0.861601 -1.00736 0.02 0 0 0 1 2
2105 1 1.20078 -2.07835 0.02 0 0 0 1 2
2252 1 0.860684 -4.27373 0.02 0 0 0 1 2
2258 1 1.09739 -3.92505 0.02 0 0 0 1 2
2257 1 1.30478 -4.11797 0.02 0 0 0 1 2
2256 1 1.27241 -4.3071 0.02 0 0 0 1 2
2255 1 1.08871 -4.11551 0.02 0 0 0 1 2
2254 1 1.06428 -4.3006 0.02 0 0 0 1 2
2253 1 0.871052 -4.08309 0.02 0 0 0 1 2
2259 1 1.29467 -3.92102 0.02 0 0 0 1 2
2141 1 0.854954 -3.0408 0.02 0 0 0 1 2
2084 1 1.48312 -1.45769 0.02 0 0 0 1 2
2086 1 1.49394 -1.6724 0.02 0 0 0 1 2
2059 1 0.82432 -0.609091 0.02 0 0 0 1 2
2260 1 1.48229 -4.32272 0.02 0 0 0 1 2
2264 1 1.49024 -3.93088 0.02 0 0 0 1 2
2273 1 0.845671 -3.68365 0.02 0 0 0 1 2
2277 1 1.2262 -3.52264 0.02 0 0 0 1 2
2276 1 1.24805 -3.72231 0.02 0 0 0 1 2
2275 1 1.04849 -3.72616 0.02 0 0 0 1 2
2274 1 1.0245 -3.52888 0.02 0 0 0 1 2
2272 1 0.897963 -3.89073 0.02 0 0 0 1 2
2107 1 1.00619 -2.04609 0.02 0 0 0 1 2
2106 1 0.9794 -1.83614 0.02 0 0 0 1 2
2279 1 1.44685 -3.72594 0.02 0 0 0 1 2
2278 1 1.43118 -3.52872 0.02 0 0 0 1 2
2155 1 0.832133 -3.25575 0.02 0 0 0 1 2
2156 1 0.831462 -3.47088 0.02 0 0 0 1 2
2151 1 1.21902 -3.1147 0.02 0 0 0 1 2
2152 1 1.02942 -3.13149 0.02 0 0 0 1 2
2153 1 1.23124 -3.32346 0.02 0 0 0 1 2
2154 1 1.02445 -3.33168 0.02 0 0 0 1 2
2031 1 0.950729 0.0152087 0.02 0 0 0 1 2
2032 1 0.985661 0.224259 0.02 0 0 0 1 2
2033 1 1.17888 0.216003 0.02 0 0 0 1 2
2034 1 1.17364 0.424276 0.02 0 0 0 1 2
2035 1 1.13938 0.00901173 0.02 0 0 0 1 2
2036 1 1.32775 0.0146403 0.02 0 0 0 1 2
2037 1 1.36583 0.243059 0.02 0 0 0 1 2
2258 1 1.34456 6.1851 0.02 0 0 0 1 2
2259 1 1.16323 6.37909 0.02 0 -1.46276e-11 -9.73202e-11 1 2
2257 1 1.13353 6.20041 0.02 0 0 0 1 2
341 2 1.1996 9 0.02 0 0 0 1 5
307 2 1.1996 8.8 0.02 0 0 0 1 5
2047 1 0.982773 0.434965 0.02 0 0 0 1 2
2048 1 0.985701 0.645737 0.02 0 0 0 1 2
2049 1 0.993336 0.853529 0.02 0 0 0 1 2
2050 1 1.17812 0.634414 0.02 0 0 0 1 2
2051 1 1.18461 0.848641 0.02 0 0 0 1 2
2052 1 1.36206 0.465903 0.02 0 0 0 1 2
2053 1 1.36613 0.683296 0.02 0 0 0 1 2
240 2 1.3996 8.4 0.02 0 0 0 1 5
2256 1 0.944189 6.4045 0.02 0 -5.68315e-12 -1.14513e-11 1 2
137 2 1.1996 7.8 0.02 0 0 0 1 5
2255 1 0.925774 6.22219 0.02 0 0 0 1 2
2063 1 0.979383 1.05801 0.02 0 0 0 1 2
2064 1 0.981214 1.26198 0.02 0 0 0 1 2
2065 1 1.17139 1.06422 0.02 0 0 0 1 2
2066 1 1.17002 1.27921 0.02 0 0 0 1 2
2069 1 1.35689 1.29997 0.02 0 0 0 1 2
2067 1 1.37307 0.88937 0.02 0 0 0 1 2
2068 1 1.3614 1.09195 0.02 0 0 0 1 2
172 2 1.3996 8 0.02 0 0 0 1 5
274 2 1.3996 8.6 0.02 0 0 0 1 5
375 2 1.1996 9.2 0.02 0 0 0 1 5
239 2 1.1996 8.4 0.02 0 0 0 1 5
205 2 1.1996 8.2 0.02 0 0 0 1 5
2080 1 0.933559 1.46151 0.02 0 0 0 1 2
2081 1 0.939861 1.66141 0.02 0 0 0 1 2
2082 1 1.12716 1.48506 0.02 0 0 0 1 2
2083 1 1.15224 1.68567 0.02 0 0 0 1 2
2084 1 1.32212 1.50668 0.02 0 0 0 1 2
2085 1 1.36541 1.70509 0.02 0 0 0 1 2
2241 1 0.883669 5.83395 0.02 0 0 0 1 2
36 2 1.3996 7.2 0.02 0 0 0 1.00007 5
273 2 1.1996 8.6 0.02 0 0 0 1 5
444 2 1.3996 9.6 0.02 0 0 0 1 5
2094 1 0.97843 1.85478 0.02 0 0 0 1 2
2095 1 0.956231 2.04403 0.02 0 0 0 1 2
2096 1 1.18797 1.8791 0.02 0 0 0 1 2
2097 1 1.17618 2.07045 0.02 0 0 0 1 2
2098 1 1.39824 1.89882 0.02 0 0 0 1 2
2099 1 1.38981 2.09218 0.02 0 0 0 1 2
2 2 1.3996 7 0.02 0 0 0 1.00011 5
35 2 1.1996 7.2 0.02 0 0 0 1 5
1 2 1.1996 7 0.02 0 0 0 1.00001 5
478 2 1.3996 9.8 0.02 0 0 0 1 5
2108 1 0.821991 2.39441 0.02 0 0 0 1 2
2109 1 0.835484 2.5827 0.02 0 0 0 1 2
2110 1 1.00847 2.22999 0.02 0 0 0 1 2
2111 1 1.22837 2.26125 0.02 0 0 0 1 2
2112 1 1.04401 2.41719 0.02 0 0 0 1 2
2113 1 1.26044 2.45268 0.02 0 0 0 1 2
2114 1 1.04089 2.60767 0.02 0 0 0 1 2
2115 1 1.44547 2.28011 0.02 0 0 0 1 2
2271 1 1.39621 6.75439 0.02 0 -1.0134e-05 -1.7067e-05 1 2
2117 1 1.46962 2.4728 0.02 0 0 0 1 2
308 2 1.3996 8.8 0.02 0 0 0 1 5
2123 1 0.822365 2.77537 0.02 0 0 0 1 2
2124 1 0.806275 2.96941 0.02 0 0 0 1 2
2125 1 1.00584 2.99882 0.02 0 0 0 1 2
2126 1 1.24552 2.64459 0.02 0 0 0 1 2
2127 1 1.0293 2.80212 0.02 0 0 0 1 2
2128 1 1.23193 2.83916 0.02 0 0 0 1 2
2129 1 1.20362 3.03534 0.02 0 0 0 1 2
2130 1 1.45563 2.6637 0.02 0 0 0 1 2
2131 1 1.4352 2.85568 0.02 0 0 0 1 2
409 2 1.1996 9.4 0.02 0 0 0 1 5
2274 1 1.37279 6.55988 0.02 0 -4.16945e-07 -1.31717e-06 1 2
410 2 1.3996 9.4 0.02 0 0 0 1 5
443 2 1.1996 9.6 0.02 0 0 0 1 5
2269 1 1.0114 6.76472 0.02 0 -4.06176e-07 -7.54171e-07 1 2
2143 1 0.803589 3.16915 0.02 0 0 0 1 2
2144 1 0.812647 3.37484 0.02 0 0 0 1 2
2145 1 1.00243 3.20054 0.02 0 0 0 1 2
2146 1 1.00659 3.40503 0.02 0 0 0 1 2
2147 1 1.2025 3.23538 0.02 0 0 0 1 2
2148 1 1.19963 3.43993 0.02 0 0 0 1 2
2149 1 1.40759 3.04792 0.02 0 0 0 1 2
2150 1 1.40614 3.24229 0.02 0 0 0 1 2
2151 1 1.39374 3.44129 0.02 0 0 0 1 2
2270 1 0.958159 6.58449 0.02 0 -1.1297e-08 -1.78333e-08 1 2
2272 1 1.20708 6.72909 0.02 0 -2.10861e-06 -3.24021e-06 1 2
477 2 1.1996 9.8 0.02 0 0 0 1 5
376 2 1.3996 9.2 0.02 0 0 0 1 5
2160 1 0.85012 3.58294 0.02 0 0 0 1 2
2161 1 0.883388 3.789 0.02 0 0 0 1 2
2162 1 1.0518 3.61296 0.02 0 0 0 1 2
2163 1 1.25631 3.64472 0.02 0 0 0 1 2
2164 1 1.08112 3.8167 0.02 0 0 0 1 2
2165 1 1.28024 3.84819 0.02 0 0 0 1 2
2166 1 1.46031 3.63092 0.02 0 0 0 1 2
70 2 1.3996 7.4 0.02 0 0 0 1 5
2168 1 1.48144 3.82453 0.02 0 0 0 1 2
104 2 1.3996 7.6 0.02 0 0 0 1 5
2180 1 1.32097 4.25642 0.02 0 0 0 1 2
2179 1 1.12233 4.22758 0.02 0 0 0 1 2
2175 1 0.910361 3.99507 0.02 0 0 0 1 2
2176 1 0.919636 4.19723 0.02 0 0 0 1 2
2177 1 1.10602 4.02299 0.02 0 0 0 1 2
2178 1 1.30376 4.0519 0.02 0 0 0 1 2
2273 1 1.16117 6.5555 0.02 0 -6.49803e-08 -1.48238e-07 1 2
2242 1 0.919918 6.03142 0.02 0 0 0 1 2
342 2 1.3996 9 0.02 0 0 0 1 5
2243 1 1.0839 5.82225 0.02 0 0 0 1 2
2192 1 1.15432 4.43607 0.02 0 0 0 1 2
2191 1 0.918253 4.78246 0.02 0 0 0 1 2
2190 1 0.945584 4.58718 0.02 0 0 0 1 2
2189 1 0.957946 4.39304 0.02 0 0 0 1 2
2195 1 1.33315 4.66681 0.02 0 0 0 1 2
2194 1 1.13774 4.64357 0.02 0 0 0 1 2
2193 1 1.34473 4.46491 0.02 0 0 0 1 2
2260 1 1.37112 6.37171 0.02 0 -7.16952e-11 -1.03174e-09 1 2
2244 1 1.29377 5.81132 0.02 0 0 0 1 2
206 2 1.3996 8.2 0.02 0 0 0 1 5
2245 1 1.11855 6.01246 0.02 0 0 0 1 2
2210 1 1.27264 5.05907 0.02 0 0 0 1 2
2209 1 1.07544 5.04711 0.02 0 0 0 1 2
2208 1 1.30405 4.86415 0.02 0 0 0 1 2
2207 1 1.10794 4.84671 0.02 0 0 0 1 2
2206 1 0.870568 5.19135 0.02 0 0 0 1 2
2205 1 0.888501 4.9823 0.02 0 0 0 1 2
2246 1 1.31901 5.99766 0.02 0 0 0 1 2
2213 1 1.47036 5.07323 0.02 0 0 0 1 2
171 2 1.1996 8 0.02 0 0 0 1 5
2234 1 1.48836 5.64708 0.02 0 0 0 1 2
2222 1 0.859629 5.62531 0.02 0 0 0 1 2
2228 1 1.26523 5.62895 0.02 0 0 0 1 2
2227 1 1.05482 5.63138 0.02 0 0 0 1 2
2226 1 1.28502 5.44311 0.02 0 0 0 1 2
2225 1 1.0826 5.4397 0.02 0 0 0 1 2
2224 1 1.06565 5.2438 0.02 0 0 0 1 2
2223 1 1.27455 5.25264 0.02 0 0 0 1 2
2221 1 0.889395 5.40931 0.02 0 0 0 1 2
138 2 1.3996 7.8 0.02 0 0 0 1 5
69 2 1.1996 7.4 0.02 0 0 0 1 5
2229 1 1.48265 5.27131 0.02 0 0 0 1 2
103 2 1.1996 7.6 0.02 0 0 0 1 5
2231 1 1.48887 5.46271 0.02 0 0 0 1 2
1506 2 2.1996 -10 0.02 0 0 0 1 5
1540 2 2.1996 -9.8 0.02 0 0 0 1 5
1574 2 2.1996 -9.6 0.02 0 0 0 1 5
1505 2 1.9996 -10 0.02 0 0 0 1 5
1539 2 1.9996 -9.8 0.02 0 0 0 1 5
1573 2 1.9996 -9.6 0.02 0 0 0 1 5
1507 2 2.3996 -10 0.02 0 0 0 1 5
1508 2 2.5996 -10 0.02 0 0 0 1 5
1541 2 2.3996 -9.8 0.02 0 0 0 1 5
1542 2 2.5996 -9.8 0.02 0 0 0 1 5
1575 2 2.3996 -9.6 0.02 0 0 0 1 5
1576 2 2.5996 -9.6 0.02 0 0 0 1 5
1509 2 2 -10 0 0 0 0 1 5
1510 2 2.2 -10 0 0 0 0 1 5
1511 2 2.4 -10 0 0 0 0 1 5
1543 2 2 -9.8 0 0 0 0 1 5
1544 2 2.2 -9.8 0 0 0 0 1 5
1545 2 2.4 -9.8 0 0 0 0 1 5
1577 2 2 -9.6 0 0 0 0 1 5
1578 2 2.2 -9.6 0 0 0 0 1 5
1579 2 2.4 -9.6 0 0 0 0 1 5
1512 2 2.6 -10 0 0 0 0 1 5
1513 2 2.8 -10 0 0 0 0 1 5
1546 2 2.6 -9.8 0 0 0 0 1 5
1547 2 2.8 -9.8 0 0 0 0 1 5
1580 2 2.6 -9.6 0 0 0 0 1 5
1581 2 2.8 -9.6 0 0 0 0 1 5
1642 2 2.1996 -9.2 0.02 0 0 0 1 5
1608 2 2.1996 -9.4 0.02 0 0 0 1 5
1641 2 1.9996 -9.2 0.02 0 0 0 1 5
1607 2 1.9996 -9.4 0.02 0 0 0 1 5
1643 2 2.3996 -9.2 0.02 0 0 0 1 5
1644 2 2.5996 -9.2 0.02 0 0 0 1 5
1610 2 2.5996 -9.4 0.02 0 0 0 1 5
1609 2 2.3996 -9.4 0.02 0 0 0 1 5
1645 2 2 -9.2 0 0 0 0 1 5
1646 2 2.2 -9.2 0 0 0 0 1 5
1647 2 2.4 -9.2 0 0 0 0 1 5
1613 2 2.4 -9.4 0 0 0 0 1 5
1612 2 2.2 -9.4 0 0 0 0 1 5
1611 2 2 -9.4 0 0 0 0 1 5
1648 2 2.6 -9.2 0 0 0 0 1 5
1649 2 2.8 -9.2 0 0 0 0 1 5
1615 2 2.8 -9.4 0 0 0 0 1 5
1614 2 2.6 -9.4 0 0 0 0 1 5
1676 2 2.1996 -9 0.02 0 0 0 1 5
1710 2 2.1996 -8.8 0.02 0 0 0 1 5
1675 2 1.9996 -9 0.02 0 0 0 1 5
1709 2 1.9996 -8.8 0.02 0 0 0 1 5
1677 2 2.3996 -9 0.02 0 0 0 1 5
1678 2 2.5996 -9 0.02 0 0 0 1 5
1712 2 2.5996 -8.8 0.02 0 0 0 1 5
1711 2 2.3996 -8.8 0.02 0 0 0 1 5
1679 2 2 -9 0 0 0 0 1 5
1680 2 2.2 -9 0 0 0 0 1 5
1681 2 2.4 -9 0 0 0 0 1 5
1713 2 2 -8.8 0 0 0 0 1 5
1714 2 2.2 -8.8 0 0 0 0 1 5
1715 2 2.4 -8.8 0 0 0 0 1 5
1682 2 2.6 -9 0 0 0 0 1 5
1683 2 2.8 -9 0 0 0 0 1 5
1716 2 2.6 -8.8 0 0 0 0 1 5
1717 2 2.8 -8.8 0 0 0 0 1 5
1778 2 2.1996 -8.4 0.02 0 0 0 1 5
1744 2 2.1996 -8.6 0.02 0 0 0 1 5
1777 2 1.9996 -8.4 0.02 0 0 0 1 5
1743 2 1.9996 -8.6 0.02 0 0 0 1 5
1780 2 2.5996 -8.4 0.02 0 0 0 1 5
1779 2 2.3996 -8.4 0.02 0 0 0 1 5
1746 2 2.5996 -8.6 0.02 0 0 0 1 5
1745 2 2.3996 -8.6 0.02 0 0 0 1 5
1783 2 2.4 -8.4 0 0 0 0 1 5
1782 2 2.2 -8.4 0 0 0 0 1 5
1781 2 2 -8.4 0 0 0 0 1 5
1747 2 2 -8.6 0 0 0 0 1 5
1748 2 2.2 -8.6 0 0 0 0 1 5
1749 2 2.4 -8.6 0 0 0 0 1 5
1785 2 2.8 -8.4 0 0 0 0 1 5
1784 2 2.6 -8.4 0 0 0 0 1 5
1750 2 2.6 -8.6 0 0 0 0 1 5
1751 2 2.8 -8.6 0 0 0 0 1 5
1846 2 2.1996 -8 0.02 0 0 0 1 5
1812 2 2.1996 -8.2 0.02 0 0 0 1 5
1845 2 1.9996 -8 0.02 0 0 0 1 5
1811 2 1.9996 -8.2 0.02 0 0 0 1 5
1848 2 2.5996 -8 0.02 0 0 0 1 5
1847 2 2.3996 -8 0.02 0 0 0 1 5
1814 2 2.5996 -8.2 0.02 0 0 0 1 5
1813 2 2.3996 -8.2 0.02 0 0 0 1 5
1851 2 2.4 -8 0 0 0 0 1 5
1850 2 2.2 -8 0 0 0 0 1 5
1849 2 2 -8 0 0 0 0 1 5
1817 2 2.4 -8.2 0 0 0 0 1 5
1816 2 2.2 -8.2 0 0 0 0 1 5
1815 2 2 -8.2 0 0 0 0 1 5
1853 2 2.8 -8 0 0 0 0 1 5
1852 2 2.6 -8 0 0 0 0 1 5
1819 2 2.8 -8.2 0 0 0 0 1 5
1818 2 2.6 -8.2 0 0 0 0 1 5
1948 2 2.1996 -7.4 0.02 0 0 0 1.00052 5
1914 2 2.1996 -7.6 0.02 0 0 0 1 5
1880 2 2.1996 -7.8 0.02 0 0 0 1 5
1947 2 1.9996 -7.4 0.02 0 0 0 0.999308 5
1913 2 1.9996 -7.6 0.02 0 0 0 1 5
1879 2 1.9996 -7.8 0.02 0 0 0 1 5
1950 2 2.5996 -7.4 0.02 0 0 0 1 5
1949 2 2.3996 -7.4 0.02 0 0 0 0.996122 5
1916 2 2.5996 -7.6 0.02 0 0 0 1 5
1915 2 2.3996 -7.6 0.02 0 0 0 1 5
1882 2 2.5996 -7.8 0.02 0 0 0 1 5
1881 2 2.3996 -7.8 0.02 0 0 0 1 5
1953 2 2.4 -7.4 0 0 0 0 0.996114 5
1952 2 2.2 -7.4 0 0 0 0 1.00051 5
1951 2 2 -7.4 0 0 0 0 0.999311 5
1919 2 2.4 -7.6 0 0 0 0 1 5
1918 2 2.2 -7.6 0 0 0 0 1 5
1917 2 2 -7.6 0 0 0 0 1 5
1885 2 2.4 -7.8 0 0 0 0 1 5
1884 2 2.2 -7.8 0 0 0 0 1 5
1883 2 2 -7.8 0 0 0 0 1 5
1955 2 2.8 -7.4 0 0 0 0 1 5
1954 2 2.6 -7.4 0 0 0 0 1 5
1921 2 2.8 -7.6 0 0 0 0 1 5
1920 2 2.6 -7.6 0 0 0 0 1 5
1887 2 2.8 -7.8 0 0 0 0 1 5
1886 2 2.6 -7.8 0 0 0 0 1 5
2016 2 2.1996 -7 0.02 0 0 0 0.999028 5
1982 2 2.1996 -7.2 0.02 0 0 0 0.999251 5
2015 2 1.9996 -7 0.02 0 0 0 1.00049 5
1981 2 1.9996 -7.2 0.02 0 0 0 1.00029 5
2018 2 2.5996 -7 0.02 0 0 0 0.991903 5
2017 2 2.3996 -7 0.02 0 0 0 0.996011 5
1984 2 2.5996 -7.2 0.02 0 0 0 0.991709 5
1983 2 2.3996 -7.2 0.02 0 0 0 0.996025 5
2021 2 2.4 -7 0 0 0 0 0.996003 5
2020 2 2.2 -7 0 0 0 0 0.999024 5
2019 2 2 -7 0 0 0 0 1.00049 5
1987 2 2.4 -7.2 0 0 0 0 0.996018 5
1986 2 2.2 -7.2 0 0 0 0 0.999246 5
1985 2 2 -7.2 0 0 0 0 1.00028 5
2023 2 2.8 -7 0 0 0 0 0.987287 5
2022 2 2.6 -7 0 0 0 0 0.991894 5
1989 2 2.8 -7.2 0 0 0 0 1 5
1988 2 2.6 -7.2 0 0 0 0 0.9917 5
2170 1 2.22387 -6.74294 0.02 0 -0.000613192 -0.000123935 1 2
2172 1 2.23569 -6.55023 0.02 0 -2.39028e-05 0.000107887 1 2
2169 1 2.02203 -6.73676 0.02 0 -0.000867885 -0.000139672 1 2
2171 1 2.04608 -6.55608 0.02 0 -0.000111203 6.51381e-05 1 2
2168 1 1.84774 -6.56544 0.02 0 -6.26108e-05 2.57445e-05 1 2
2186 1 2.215 -6.35117 0.02 0 4.06013e-05 5.38568e-05 1 2
2188 1 2.25311 -6.15293 0.02 0 7.57604e-07 6.37246e-06 1 2
2187 1 2.06005 -6.17118 0.02 0 8.61115e-07 2.66308e-06 1 2
2185 1 2.01943 -6.36836 0.02 0 1.26955e-05 1.61425e-05 1 2
2184 1 1.86488 -6.181 0.02 0 7.52761e-08 6.83701e-07 1 2
2202 1 2.25282 -5.95431 0.02 0 2.528e-09 2.0069e-08 1 2
2204 1 2.25855 -5.75702 0.02 0 6.54838e-12 1.2005e-11 1 2
2201 1 2.05822 -5.97154 0.02 0 1.82592e-09 1.24029e-08 1 2
2203 1 2.05888 -5.77485 0.02 0 2.85379e-12 1.73201e-11 1 2
2200 1 1.85968 -5.78722 0.02 0 2.34413e-13 3.28052e-12 1 2
2198 1 1.86435 -5.98631 0.02 0 3.66792e-10 5.55236e-09 1 2
2220 1 2.13428 -5.21781 0.02 0 0 0 1 2
2218 1 2.10177 -5.40162 0.02 0 0 0 1 2
2217 1 2.05138 -5.5831 0.02 0 0 0 1 2
2219 1 1.92335 -5.2199 0.02 0 0 0 1 2
2216 1 1.87537 -5.40096 0.02 0 0 0 1 2
2237 1 2.16845 -4.85434 0.02 0 0 0 1 2
2236 1 2.12273 -5.0319 0.02 0 0 0 1 2
2235 1 1.94545 -4.85207 0.02 0 0 0 1 2
2234 1 1.90539 -5.03303 0.02 0 0 0 1 2
2250 1 2.2004 -4.67763 0.02 0 0 0 1 2
2251 1 2.16958 -4.50029 0.02 0 0 0 1 2
2249 1 1.96597 -4.49409 0.02 0 0 0 1 2
2248 1 1.95849 -4.67505 0.02 0 0 0 1 2
2270 1 2.14864 -4.13913 0.02 0 0 0 1 2
2269 1 2.16061 -4.31783 0.02 0 0 0 1 2
2271 1 2.09459 -3.95743 0.02 0 0 0 1 2
2268 1 1.93066 -4.12772 0.02 0 0 0 1 2
2267 1 1.92564 -4.31213 0.02 0 0 0 1 2
2266 1 1.89279 -3.93179 0.02 0 0 0 1 2
2285 1 2.06565 -3.57722 0.02 0 0 0 1 2
2284 1 2.07163 -3.76644 0.02 0 0 0 1 2
2283 1 1.85644 -3.54144 0.02 0 0 0 1 2
2281 1 1.85874 -3.73478 0.02 0 0 0 1 2
2142 1 2.22811 -3.18414 0.02 0 0 0 1 2
2144 1 2.06379 -3.38146 0.02 0 0 0 1 2
2143 1 2.02628 -3.17868 0.02 0 0 0 1 2
2147 1 1.86199 -3.34695 0.02 0 0 0 1 2
2127 1 2.23744 -2.9818 0.02 0 0 0 1 2
2125 1 2.18943 -2.76838 0.02 0 0 0 1 2
2126 1 2.00059 -2.78375 0.02 0 0 0 1 2
2128 1 2.04019 -2.98033 0.02 0 0 0 1 2
2109 1 2.17016 -2.30904 0.02 0 0 0 1 2
2111 1 2.17526 -2.54253 0.02 0 0 0 1 2
2110 1 1.9973 -2.37813 0.02 0 0 0 1 2
2112 1 1.98923 -2.58323 0.02 0 0 0 1 2
2093 1 2.23882 -1.84906 0.02 0 0 0 1 2
2095 1 2.12744 -2.1014 0.02 0 0 0 1 2
2094 1 2.06427 -1.89427 0.02 0 0 0 1 2
2096 1 1.95262 -2.16444 0.02 0 0 0 1 2
2097 1 1.89309 -1.95318 0.02 0 0 0 1 2
2078 1 2.20417 -1.61635 0.02 0 0 0 1 2
2077 1 2.18288 -1.37464 0.02 0 0 0 1 2
2079 1 2.01886 -1.45199 0.02 0 0 0 1 2
2080 1 2.03452 -1.67593 0.02 0 0 0 1 2
2082 1 1.86091 -1.733 0.02 0 0 0 1 2
2061 1 2.18385 -0.925982 0.02 0 0 0 1 2
2062 1 2.18655 -1.14477 0.02 0 0 0 1 2
2063 1 2.00522 -0.999003 0.02 0 0 0 1 2
2064 1 2.01124 -1.2208 0.02 0 0 0 1 2
2045 1 2.15878 -0.514055 0.02 0 0 0 1 2
2046 1 2.18676 -0.71437 0.02 0 0 0 1 2
2048 1 2.00154 -0.782001 0.02 0 0 0 1 2
2047 1 1.97077 -0.577099 0.02 0 0 0 1 2
2031 1 2.14713 -0.318944 0.02 0 0 0 1 2
2034 1 2.12764 -0.130901 0.02 0 0 0 1 2
2032 1 1.94881 -0.370969 0.02 0 0 0 1 2
2033 1 1.92451 -0.167125 0.02 0 0 0 1 2
1504 2 1.7996 -10 0.02 0 0 0 1 5
1538 2 1.7996 -9.8 0.02 0 0 0 1 5
1572 2 1.7996 -9.6 0.02 0 0 0 1 5
1640 2 1.7996 -9.2 0.02 0 0 0 1 5
1606 2 1.7996 -9.4 0.02 0 0 0 1 5
1674 2 1.7996 -9 0.02 0 0 0 1 5
1708 2 1.7996 -8.8 0.02 0 0 0 1 5
1776 2 1.7996 -8.4 0.02 0 0 0 1 5
1742 2 1.7996 -8.6 0.02 0 0 0 1 5
1844 2 1.7996 -8 0.02 0 0 0 1 5
1810 2 1.7996 -8.2 0.02 0 0 0 1 5
1946 2 1.7996 -7.4 0.02 0 0 0 1.00028 5
1912 2 1.7996 -7.6 0.02 0 0 0 1 5
1878 2 1.7996 -7.8 0.02 0 0 0 1 5
2014 2 1.7996 -7 0.02 0 0 0 1.00089 5
2050 1 1.78218 -0.598796 0.02 0 0 0 1 2
2049 1 1.8183 -0.821662 0.02 0 0 0 1 2
1980 2 1.7996 -7.2 0.02 0 0 0 1.00067 5
2166 1 1.82585 -6.75916 0.02 0 -0.000464273 -1.09502e-05 1 2
2182 1 1.82567 -6.37314 0.02 0 4.79004e-07 7.23262e-07 1 2
2214 1 1.84579 -5.58955 0.02 0 0 0 1 2
2145 1 1.82109 -3.15337 0.02 0 0 0 1 2
2129 1 1.80692 -2.756 0.02 0 0 0 1 2
2131 1 1.83525 -2.95815 0.02 0 0 0 1 2
2113 1 1.80313 -2.35355 0.02 0 0 0 1 2
2115 1 1.7945 -2.55237 0.02 0 0 0 1 2
2081 1 1.84529 -1.50825 0.02 0 0 0 1 2
2066 1 1.82709 -1.05121 0.02 0 0 0 1 2
2065 1 1.83471 -1.28045 0.02 0 0 0 1 2
2036 1 1.7293 -0.170696 0.02 0 0 0 1 2
2035 1 1.75471 -0.383144 0.02 0 0 0 1 2
2233 1 1.72842 -4.84693 0.02 0 0 0 1 2
2247 1 1.759 -4.48365 0.02 0 0 0 1 2
2246 1 1.71631 -4.66598 0.02 0 0 0 1 2
2263 1 1.72151 -4.11233 0.02 0 0 0 1 2
2098 1 1.71121 -1.93371 0.02 0 0 0 1 2
2100 1 1.76 -2.153 0.02 0 0 0 1 2
2167 1 1.64728 -6.56288 0.02 0 -4.00968e-06 7.98316e-06 1 2
2083 1 1.66528 -1.47825 0.02 0 0 0 1 2
2183 1 1.67065 -6.16748 0.02 0 2.70826e-09 4.4376e-08 1 2
2181 1 1.63793 -6.37185 0.02 0 7.4675e-09 2.41572e-07 1 2
2199 1 1.66109 -5.75899 0.02 0 0 0 1 2
2197 1 1.67354 -5.96034 0.02 0 6.64446e-12 1.49462e-10 1 2
2215 1 1.64613 -5.38031 0.02 0 0 0 1 2
2213 1 1.64445 -5.5651 0.02 0 0 0 1 2
2232 1 1.68983 -5.02973 0.02 0 0 0 1 2
2231 1 1.70448 -5.21105 0.02 0 0 0 1 2
2262 1 1.69875 -4.30065 0.02 0 0 0 1 2
2265 1 1.69057 -3.92273 0.02 0 0 0 1 2
2282 1 1.64302 -3.54809 0.02 0 0 0 1 2
2085 1 1.67949 -1.70098 0.02 0 0 0 1 2
2280 1 1.64845 -3.73604 0.02 0 0 0 1 2
2148 1 1.65675 -3.36021 0.02 0 0 0 1 2
2068 1 1.64898 -1.26074 0.02 0 0 0 1 2
2067 1 1.64327 -1.04626 0.02 0 0 0 1 2
1503 2 1.5996 -10 0.02 0 0 0 1 5
1537 2 1.5996 -9.8 0.02 0 0 0 1 5
1571 2 1.5996 -9.6 0.02 0 0 0 1 5
1639 2 1.5996 -9.2 0.02 0 0 0 1 5
2116 1 1.60449 -2.55829 0.02 0 0 0 1 2
1605 2 1.5996 -9.4 0.02 0 0 0 1 5
2114 1 1.60598 -2.34155 0.02 0 0 0 1 2
1673 2 1.5996 -9 0.02 0 0 0 1 5
1707 2 1.5996 -8.8 0.02 0 0 0 1 5
1775 2 1.5996 -8.4 0.02 0 0 0 1 5
1741 2 1.5996 -8.6 0.02 0 0 0 1 5
1843 2 1.5996 -8 0.02 0 0 0 1 5
1809 2 1.5996 -8.2 0.02 0 0 0 1 5
1945 2 1.5996 -7.4 0.02 0 0 0 1.00007 5
1911 2 1.5996 -7.6 0.02 0 0 0 1 5
1877 2 1.5996 -7.8 0.02 0 0 0 1 5
2132 1 1.63261 -2.9752 0.02 0 0 0 1 2
2052 1 1.63343 -0.829479 0.02 0 0 0 1 2
2130 1 1.61766 -2.77288 0.02 0 0 0 1 2
2051 1 1.5964 -0.615255 0.02 0 0 0 1 2
2013 2 1.5996 -7 0.02 0 0 0 1.00057 5
1979 2 1.5996 -7.2 0.02 0 0 0 1.00052 5
2165 1 1.62654 -6.74604 0.02 0 -6.60412e-05 3.47731e-05 1 2
2101 1 1.57441 -2.11748 0.02 0 0 0 1 2
2146 1 1.61538 -3.17037 0.02 0 0 0 1 2
2038 1 1.5386 -0.191329 0.02 0 0 0 1 2
2037 1 1.56437 -0.401333 0.02 0 0 0 1 2
2230 1 1.51325 -4.85376 0.02 0 0 0 1 2
2245 1 1.54606 -4.50233 0.02 0 0 0 1 2
2261 1 1.51323 -4.13064 0.02 0 0 0 1 2
2099 1 1.5347 -1.88565 0.02 0 0 0 1 2
2044 1 2.14333 0.248268 0.02 0 0 0 1 2
2046 1 2.12128 0.0565639 0.02 0 0 0 1 2
2043 1 1.94114 0.23525 0.02 0 0 0 1 2
2045 1 1.91171 0.0351082 0.02 0 0 0 1 2
2059 1 2.12185 0.443638 0.02 0 0 0 1 2
2061 1 2.11163 0.644073 0.02 0 0 0 1 2
2062 1 2.12595 0.852158 0.02 0 0 0 1 2
2058 1 1.92568 0.442989 0.02 0 0 0 1 2
2060 1 1.91972 0.657818 0.02 0 0 0 1 2
2079 1 2.12688 1.28015 0.02 0 0 0 1 2
2078 1 2.11734 1.07091 0.02 0 0 0 1 2
2075 1 1.94097 0.87288 0.02 0 0 0 1 2
2076 1 1.93062 1.08721 0.02 0 0 0 1 2
2077 1 1.93274 1.29444 0.02 0 0 0 1 2
2093 1 2.20953 1.66255 0.02 0 0 0 1 2
2092 1 2.14621 1.47698 0.02 0 0 0 1 2
2091 1 2.00379 1.67673 0.02 0 0 0 1 2
2090 1 1.93656 1.49215 0.02 0 0 0 1 2
2106 1 2.24321 1.85304 0.02 0 0 0 1 2
2107 1 2.23264 2.04473 0.02 0 0 0 1 2
2104 1 2.02976 1.86411 0.02 0 0 0 1 2
2105 1 2.02112 2.05093 0.02 0 0 0 1 2
2121 1 2.07274 2.23351 0.02 0 0 0 1 2
2122 1 2.06993 2.42432 0.02 0 0 0 1 2
2119 1 1.86033 2.25117 0.02 0 0 0 1 2
2120 1 1.87126 2.44706 0.02 0 0 0 1 2
2141 1 2.25033 2.81092 0.02 0 0 0 1 2
2142 1 2.26022 3.00384 0.02 0 0 0 1 2
2138 1 2.08891 2.61868 0.02 0 0 0 1 2
2139 1 2.04646 2.81327 0.02 0 0 0 1 2
2140 1 2.04902 3.00747 0.02 0 0 0 1 2
2137 1 1.87922 2.64228 0.02 0 0 0 1 2
2158 1 2.23105 3.39049 0.02 0 0 0 1 2
2159 1 2.24603 3.19619 0.02 0 0 0 1 2
2156 1 2.03655 3.19848 0.02 0 0 0 1 2
2157 1 2.02023 3.39011 0.02 0 0 0 1 2
2174 1 2.26317 3.59267 0.02 0 0 0 1 2
2172 1 2.06546 3.58233 0.02 0 0 0 1 2
2173 1 2.10867 3.78013 0.02 0 0 0 1 2
2170 1 1.86761 3.605 0.02 0 0 0 1 2
2171 1 1.90408 3.79564 0.02 0 0 0 1 2
2187 1 2.12823 3.97931 0.02 0 0 0 1 2
2188 1 2.10369 4.17872 0.02 0 0 0 1 2
2186 1 1.91938 3.98501 0.02 0 0 0 1 2
2185 1 1.90507 4.17791 0.02 0 0 0 1 2
2203 1 2.09037 4.38771 0.02 0 0 0 1 2
2204 1 2.08499 4.60329 0.02 0 0 0 1 2
2202 1 1.89542 4.57729 0.02 0 0 0 1 2
2201 1 1.89811 4.37631 0.02 0 0 0 1 2
2200 1 1.86458 4.78249 0.02 0 0 0 1 2
2218 1 2.2453 4.80064 0.02 0 0 0 1 2
2219 1 2.23259 5.00179 0.02 0 0 0 1 2
2220 1 2.25036 5.21138 0.02 0 0 0 1 2
2217 1 2.04383 5.02659 0.02 0 0 0 1 2
2216 1 2.05062 4.81643 0.02 0 0 0 1 2
2215 1 1.85571 5.00509 0.02 0 0 0 1 2
2240 1 2.10754 5.63177 0.02 0 0 0 1 2
2239 1 2.09222 5.43171 0.02 0 0 0 1 2
2238 1 2.05985 5.23146 0.02 0 0 0 1 2
2237 1 1.90631 5.63775 0.02 0 0 0 1 2
2236 1 1.89262 5.43734 0.02 0 0 0 1 2
2235 1 1.87046 5.2257 0.02 0 0 0 1 2
2254 1 2.17391 6.01525 0.02 0 1.11255e-07 -1.60718e-07 1 2
2252 1 2.1212 5.82955 0.02 0 2.12075e-10 -3.99617e-10 1 2
2253 1 1.95936 6.02306 0.02 0 8.45111e-09 -2.28648e-08 1 2
2251 1 1.91833 5.83416 0.02 0 9.21137e-12 -3.08468e-11 1 2
2266 1 2.20207 6.20108 0.02 0 5.69554e-06 -1.05003e-05 1 2
2268 1 2.16697 6.3837 0.02 0 4.95286e-05 -6.36072e-05 1 2
2265 1 1.99148 6.20568 0.02 0 9.6022e-07 -1.77455e-06 1 2
2267 1 1.95779 6.38682 0.02 0 9.37655e-06 -1.45414e-05 1 2
2279 1 2.21951 6.74602 0.02 0 -0.000550546 7.53659e-05 1 2
2282 1 2.19407 6.56445 0.02 0 1.14238e-05 -0.00012336 1 2
2281 1 1.99086 6.56796 0.02 0 -0.000128667 -6.45918e-06 1 2
2280 1 2.01875 6.74923 0.02 0 -0.000887747 0.000132533 1 2
6 2 2.1996 7 0.02 0 0 0 0.998911 5
40 2 2.1996 7.2 0.02 0 0 0 0.99901 5
5 2 1.9996 7 0.02 0 0 0 1.0005 5
39 2 1.9996 7.2 0.02 0 0 0 1.00022 5
7 2 2.3996 7 0.02 0 0 0 0.995821 5
8 2 2.5996 7 0.02 0 0 0 0.991636 5
41 2 2.3996 7.2 0.02 0 0 0 0.995861 5
42 2 2.5996 7.2 0.02 0 0 0 0.991546 5
9 2 2 7 0 0 0 0 1.0005 5
10 2 2.2 7 0 0 0 0 0.998906 5
11 2 2.4 7 0 0 0 0 0.995814 5
43 2 2 7.2 0 0 0 0 1.00022 5
44 2 2.2 7.2 0 0 0 0 0.999006 5
45 2 2.4 7.2 0 0 0 0 0.995853 5
12 2 2.6 7 0 0 0 0 0.991626 5
13 2 2.8 7 0 0 0 0 0.987089 5
46 2 2.6 7.2 0 0 0 0 0.991537 5
47 2 2.8 7.2 0 0 0 0 1 5
142 2 2.1996 7.8 0.02 0 0 0 1 5
108 2 2.1996 7.6 0.02 0 0 0 1 5
74 2 2.1996 7.4 0.02 0 0 0 1.00027 5
141 2 1.9996 7.8 0.02 0 0 0 1 5
107 2 1.9996 7.6 0.02 0 0 0 1 5
73 2 1.9996 7.4 0.02 0 0 0 0.999363 5
143 2 2.3996 7.8 0.02 0 0 0 1 5
144 2 2.5996 7.8 0.02 0 0 0 1 5
110 2 2.5996 7.6 0.02 0 0 0 1 5
109 2 2.3996 7.6 0.02 0 0 0 1 5
75 2 2.3996 7.4 0.02 0 0 0 0.995995 5
76 2 2.5996 7.4 0.02 0 0 0 1 5
145 2 2 7.8 0 0 0 0 1 5
146 2 2.2 7.8 0 0 0 0 1 5
147 2 2.4 7.8 0 0 0 0 1 5
113 2 2.4 7.6 0 0 0 0 1 5
112 2 2.2 7.6 0 0 0 0 1 5
111 2 2 7.6 0 0 0 0 1 5
77 2 2 7.4 0 0 0 0 0.999365 5
78 2 2.2 7.4 0 0 0 0 1.00026 5
79 2 2.4 7.4 0 0 0 0 0.995986 5
115 2 2.8 7.6 0 0 0 0 1 5
114 2 2.6 7.6 0 0 0 0 1 5
148 2 2.6 7.8 0 0 0 0 1 5
149 2 2.8 7.8 0 0 0 0 1 5
80 2 2.6 7.4 0 0 0 0 1 5
81 2 2.8 7.4 0 0 0 0 1 5
176 2 2.1996 8 0.02 0 0 0 1 5
210 2 2.1996 8.2 0.02 0 0 0 1 5
175 2 1.9996 8 0.02 0 0 0 1 5
209 2 1.9996 8.2 0.02 0 0 0 1 5
177 2 2.3996 8 0.02 0 0 0 1 5
178 2 2.5996 8 0.02 0 0 0 1 5
212 2 2.5996 8.2 0.02 0 0 0 1 5
211 2 2.3996 8.2 0.02 0 0 0 1 5
179 2 2 8 0 0 0 0 1 5
180 2 2.2 8 0 0 0 0 1 5
181 2 2.4 8 0 0 0 0 1 5
213 2 2 8.2 0 0 0 0 1 5
214 2 2.2 8.2 0 0 0 0 1 5
215 2 2.4 8.2 0 0 0 0 1 5
182 2 2.6 8 0 0 0 0 1 5
183 2 2.8 8 0 0 0 0 1 5
216 2 2.6 8.2 0 0 0 0 1 5
217 2 2.8 8.2 0 0 0 0 1 5
278 2 2.1996 8.6 0.02 0 0 0 1 5
244 2 2.1996 8.4 0.02 0 0 0 1 5
277 2 1.9996 8.6 0.02 0 0 0 1 5
243 2 1.9996 8.4 0.02 0 0 0 1 5
280 2 2.5996 8.6 0.02 0 0 0 1 5
279 2 2.3996 8.6 0.02 0 0 0 1 5
246 2 2.5996 8.4 0.02 0 0 0 1 5
245 2 2.3996 8.4 0.02 0 0 0 1 5
283 2 2.4 8.6 0 0 0 0 1 5
282 2 2.2 8.6 0 0 0 0 1 5
281 2 2 8.6 0 0 0 0 1 5
249 2 2.4 8.4 0 0 0 0 1 5
248 2 2.2 8.4 0 0 0 0 1 5
247 2 2 8.4 0 0 0 0 1 5
285 2 2.8 8.6 0 0 0 0 1 5
284 2 2.6 8.6 0 0 0 0 1 5
251 2 2.8 8.4 0 0 0 0 1 5
250 2 2.6 8.4 0 0 0 0 1 5
346 2 2.1996 9 0.02 0 0 0 1 5
312 2 2.1996 8.8 0.02 0 0 0 1 5
345 2 1.9996 9 0.02 0 0 0 1 5
311 2 1.9996 8.8 0.02 0 0 0 1 5
348 2 2.5996 9 0.02 0 0 0 1 5
347 2 2.3996 9 0.02 0 0 0 1 5
314 2 2.5996 8.8 0.02 0 0 0 1 5
313 2 2.3996 8.8 0.02 0 0 0 1 5
351 2 2.4 9 0 0 0 0 1 5
350 2 2.2 9 0 0 0 0 1 5
349 2 2 9 0 0 0 0 1 5
317 2 2.4 8.8 0 0 0 0 1 5
316 2 2.2 8.8 0 0 0 0 1 5
315 2 2 8.8 0 0 0 0 1 5
353 2 2.8 9 0 0 0 0 1 5
352 2 2.6 9 0 0 0 0 1 5
319 2 2.8 8.8 0 0 0 0 1 5
318 2 2.6 8.8 0 0 0 0 1 5
414 2 2.1996 9.4 0.02 0 0 0 1 5
380 2 2.1996 9.2 0.02 0 0 0 1 5
413 2 1.9996 9.4 0.02 0 0 0 1 5
379 2 1.9996 9.2 0.02 0 0 0 1 5
416 2 2.5996 9.4 0.02 0 0 0 1 5
415 2 2.3996 9.4 0.02 0 0 0 1 5
382 2 2.5996 9.2 0.02 0 0 0 1 5
381 2 2.3996 9.2 0.02 0 0 0 1 5
419 2 2.4 9.4 0 0 0 0 1 5
418 2 2.2 9.4 0 0 0 0 1 5
417 2 2 9.4 0 0 0 0 1 5
385 2 2.4 9.2 0 0 0 0 1 5
384 2 2.2 9.2 0 0 0 0 1 5
383 2 2 9.2 0 0 0 0 1 5
421 2 2.8 9.4 0 0 0 0 1 5
420 2 2.6 9.4 0 0 0 0 1 5
387 2 2.8 9.2 0 0 0 0 1 5
386 2 2.6 9.2 0 0 0 0 1 5
482 2 2.1996 9.8 0.02 0 0 0 1 5
448 2 2.1996 9.6 0.02 0 0 0 1 5
481 2 1.9996 9.8 0.02 0 0 0 1 5
447 2 1.9996 9.6 0.02 0 0 0 1 5
484 2 2.5996 9.8 0.02 0 0 0 1 5
483 2 2.3996 9.8 0.02 0 0 0 1 5
450 2 2.5996 9.6 0.02 0 0 0 1 5
449 2 2.3996 9.6 0.02 0 0 0 1 5
487 2 2.4 9.8 0 0 0 0 1 5
486 2 2.2 9.8 0 0 0 0 1 5