ITEM: TIMESTEP
38000
ITEM: NUMBER OF ATOMS
1293
ITEM: BOX BOUNDS ff ff pp
0.0000000000000000e+00 4.4000000000000004e+00
-1.0000000000000000e+01 1.0000000000000000e+01
-2.0000000000000000e-02 2.0000000000000000e-02
ITEM: ATOMS id type x y vx vy fx fy c_den c_phase
3945 1 1.38573 -6.74459 0.02 0 -2.0298e-06 -1.17933e-06 1 2
3908 1 1.24466 -2.27621 0.02 0 0 0 1 2
3947 1 1.41947 -6.57221 0.02 0 -3.30571e-09 -6.76624e-10 1 2
3861 1 1.28812 -0.985548 0.02 0 0 0 1 2
3879 1 1.34901 -1.73465 0.02 0 0 0 1 2
3831 1 1.36507 -0.39204 0.02 0 0 0 1 2
3959 1 1.37746 -6.40575 0.02 0 -1.08809e-11 -8.31764e-13 1 2
3909 1 1.2992 -2.47715 0.02 0 0 0 1 2
3961 1 1.39885 -6.22649 0.02 0 2.76646e-12 5.50966e-12 1 2
4053 1 1.43021 -3.63802 0.02 0 0 0 1 2
3830 1 1.34113 -0.162903 0.02 0 0 0 1 2
3849 1 1.23155 -0.774498 0.02 0 0 0 1 2
3973 1 1.23506 -6.03328 0.02 0 0 0 1 2
3976 1 1.27429 -5.83368 0.02 0 0 0 1 2
3974 1 1.42673 -6.03474 0.02 0 0 0 1 2
3895 1 1.40238 -2.10566 0.02 0 0 0 1 2
3977 1 1.46843 -5.82876 0.02 0 0 0 1 2
3924 1 1.34774 -2.87178 0.02 0 0 0 1 2
4051 1 1.38754 -3.83201 0.02 0 0 0 1 2
3989 1 1.2974 -5.62887 0.02 0 0 0 1 2
3991 1 1.32226 -5.42296 0.02 0 0 0 1 2
4050 1 1.22504 -3.65388 0.02 0 0 0 1 2
3940 1 1.39074 -3.06197 0.02 0 0 0 1 2
3993 1 1.35553 -5.22229 0.02 0 0 0 1 2
3906 1 1.45374 -2.29621 0.02 0 0 0 1 2
3878 1 1.36298 -1.54983 0.02 0 0 0 1 2
3943 1 1.37202 -3.2515 0.02 0 0 0 1 2
4007 1 1.37275 -5.02463 0.02 0 0 0 1 2
4008 1 1.35755 -4.82859 0.02 0 0 0 1 2
4038 1 1.37575 -4.02713 0.02 0 0 0 1 2
3921 1 1.31736 -2.67636 0.02 0 0 0 1 2
3894 1 1.38845 -1.91774 0.02 0 0 0 1 2
3877 1 1.32061 -1.36587 0.02 0 0 0 1 2
3848 1 1.43064 -0.811747 0.02 0 0 0 1 2
4022 1 1.3824 -4.62705 0.02 0 0 0 1 2
4023 1 1.33769 -4.42558 0.02 0 0 0 1 2
3847 1 1.20508 -0.560608 0.02 0 0 0 1 2
3944 1 1.37781 -3.44445 0.02 0 0 0 1 2
3863 1 1.31372 -1.17967 0.02 0 0 0 1 2
3846 1 1.39382 -0.609046 0.02 0 0 0 1 2
4036 1 1.33721 -4.22232 0.02 0 0 0 1 2
3818 1 1.31961 0.0581515 0.02 0 0 0 1 2
3819 1 1.32049 0.271338 0.02 0 0 0 1 2
4048 1 1.43257 6.38201 0.02 0 6.12672e-10 -6.15484e-09 1 2
3961 1 1.33437 4.11684 0.02 0 0 0 1 2
4045 1 1.40845 6.18323 0.02 0 0 0 1 2
3960 1 1.27925 3.92208 0.02 0 0 0 1 2
3833 1 1.29394 0.476635 0.02 0 0 0 1 2
3834 1 1.27307 0.679911 0.02 0 0 0 1 2
4061 1 1.22163 6.54613 0.02 0 0 0 1 2
3836 1 1.46729 0.655296 0.02 0 0 0 1 2
3837 1 1.42346 0.866201 0.02 0 0 0 1 2
4013 1 1.2845 5.57366 0.02 0 0 0 1 2
4012 1 1.30707 5.38007 0.02 0 0 0 1 2
3850 1 1.22354 0.878538 0.02 0 0 0 1 2
3851 1 1.37553 1.07228 0.02 0 0 0 1 2
3852 1 1.346 1.27862 0.02 0 0 0 1 2
3979 1 1.2085 4.361 0.02 0 0 0 1 2
3980 1 1.24233 4.56926 0.02 0 0 0 1 2
4047 1 1.23965 6.3475 0.02 0 0 0 1 2
4064 1 1.41438 6.5706 0.02 0 -2.99564e-09 -8.23135e-09 1 2
3865 1 1.31451 1.48144 0.02 0 0 0 1 2
3866 1 1.31242 1.68879 0.02 0 0 0 1 2
4060 1 1.20592 6.73619 0.02 0 0 0 1 2
3962 1 1.39499 4.31184 0.02 0 0 0 1 2
4044 1 1.21987 6.14269 0.02 0 0 0 1 2
3946 1 1.39784 3.7045 0.02 0 0 0 1 2
3882 1 1.28971 1.89352 0.02 0 0 0 1 2
3883 1 1.32057 2.10896 0.02 0 0 0 1 2
3944 1 1.34639 3.50414 0.02 0 0 0 1 2
3945 1 1.1998 3.7317 0.02 0 0 0 1 2
3981 1 1.43077 4.51509 0.02 0 0 0 1 2
3996 1 1.33905 5.17829 0.02 0 0 0 1 2
3932 1 1.4372 3.12945 0.02 0 0 0 1 2
3897 1 1.31905 2.31584 0.02 0 0 0 1 2
3898 1 1.34686 2.52459 0.02 0 0 0 1 2
3931 1 1.28036 3.30937 0.02 0 0 0 1 2
3982 1 1.28179 4.76921 0.02 0 0 0 1 2
4030 1 1.44719 5.97745 0.02 0 0 0 1 2
4028 1 1.45861 5.7669 0.02 0 0 0 1 2
3930 1 1.23322 3.11108 0.02 0 0 0 1 2
3912 1 1.21007 2.90933 0.02 0 0 0 1 2
3913 1 1.37619 2.72732 0.02 0 0 0 1 2
3914 1 1.41053 2.92807 0.02 0 0 0 1 2
4029 1 1.25631 5.95148 0.02 0 0 0 1 2
4027 1 1.2555 5.7614 0.02 0 0 0 1 2
4063 1 1.41095 6.75598 0.02 0 -1.78774e-06 1.00567e-06 1 2
3997 1 1.33355 4.96872 0.02 0 0 0 1 2
1509 2 2 -10 0 0 0 0 1 5
1510 2 2.2 -10 0 0 0 0 1 5
1511 2 2.4 -10 0 0 0 0 1 5
1543 2 2 -9.8 0 0 0 0 1 5
1544 2 2.2 -9.8 0 0 0 0 1 5
1545 2 2.4 -9.8 0 0 0 0 1 5
1577 2 2 -9.6 0 0 0 0 1 5
1578 2 2.2 -9.6 0 0 0 0 1 5
1579 2 2.4 -9.6 0 0 0 0 1 5
1512 2 2.6 -10 0 0 0 0 1 5
1513 2 2.8 -10 0 0 0 0 1 5
1546 2 2.6 -9.8 0 0 0 0 1 5
1547 2 2.8 -9.8 0 0 0 0 1 5
1580 2 2.6 -9.6 0 0 0 0 1 5
1581 2 2.8 -9.6 0 0 0 0 1 5
1645 2 2 -9.2 0 0 0 0 1 5
1646 2 2.2 -9.2 0 0 0 0 1 5
1647 2 2.4 -9.2 0 0 0 0 1 5
1613 2 2.4 -9.4 0 0 0 0 1 5
1612 2 2.2 -9.4 0 0 0 0 1 5
1611 2 2 -9.4 0 0 0 0 1 5
1648 2 2.6 -9.2 0 0 0 0 1 5
1649 2 2.8 -9.2 0 0 0 0 1 5
1615 2 2.8 -9.4 0 0 0 0 1 5
1614 2 2.6 -9.4 0 0 0 0 1 5
1679 2 2 -9 0 0 0 0 1 5
1680 2 2.2 -9 0 0 0 0 1 5
1681 2 2.4 -9 0 0 0 0 1 5
1713 2 2 -8.8 0 0 0 0 1 5
1714 2 2.2 -8.8 0 0 0 0 1 5
1715 2 2.4 -8.8 0 0 0 0 1 5
1682 2 2.6 -9 0 0 0 0 1 5
1683 2 2.8 -9 0 0 0 0 1 5
1716 2 2.6 -8.8 0 0 0 0 1 5
1717 2 2.8 -8.8 0 0 0 0 1 5
1783 2 2.4 -8.4 0 0 0 0 1 5
1782 2 2.2 -8.4 0 0 0 0 1 5
1781 2 2 -8.4 0 0 0 0 1 5
1747 2 2 -8.6 0 0 0 0 1 5
1748 2 2.2 -8.6 0 0 0 0 1 5
1749 2 2.4 -8.6 0 0 0 0 1 5
1785 2 2.8 -8.4 0 0 0 0 1 5
1784 2 2.6 -8.4 0 0 0 0 1 5
1750 2 2.6 -8.6 0 0 0 0 1 5
1751 2 2.8 -8.6 0 0 0 0 1 5
1851 2 2.4 -8 0 0 0 0 1 5
1850 2 2.2 -8 0 0 0 0 1 5
1849 2 2 -8 0 0 0 0 1 5
1817 2 2.4 -8.2 0 0 0 0 1 5
1816 2 2.2 -8.2 0 0 0 0 1 5
1815 2 2 -8.2 0 0 0 0 1 5
1853 2 2.8 -8 0 0 0 0 1 5
1852 2 2.6 -8 0 0 0 0 1 5
1819 2 2.8 -8.2 0 0 0 0 1 5
1818 2 2.6 -8.2 0 0 0 0 1 5
1953 2 2.4 -7.4 0 0 0 0 0.999371 5
1952 2 2.2 -7.4 0 0 0 0 1.00547 5
1951 2 2 -7.4 0 0 0 0 0.998546 5
1919 2 2.4 -7.6 0 0 0 0 1 5
1918 2 2.2 -7.6 0 0 0 0 1 5
1917 2 2 -7.6 0 0 0 0 1 5
1885 2 2.4 -7.8 0 0 0 0 1 5
1884 2 2.2 -7.8 0 0 0 0 1 5
1883 2 2 -7.8 0 0 0 0 1 5
1955 2 2.8 -7.4 0 0 0 0 0.98852 5
1954 2 2.6 -7.4 0 0 0 0 0.997164 5
1921 2 2.8 -7.6 0 0 0 0 1 5
1920 2 2.6 -7.6 0 0 0 0 1 5
1887 2 2.8 -7.8 0 0 0 0 1 5
1886 2 2.6 -7.8 0 0 0 0 1 5
2021 2 2.4 -7 0 0 0 0 0.99906 5
2020 2 2.2 -7 0 0 0 0 1.00002 5
2019 2 2 -7 0 0 0 0 1.00073 5
1987 2 2.4 -7.2 0 0 0 0 0.999548 5
1986 2 2.2 -7.2 0 0 0 0 1.00081 5
1985 2 2 -7.2 0 0 0 0 0.999659 5
2023 2 2.8 -7 0 0 0 0 0.987965 5
2022 2 2.6 -7 0 0 0 0 0.994983 5
1989 2 2.8 -7.2 0 0 0 0 0.987989 5
1988 2 2.6 -7.2 0 0 0 0 0.994856 5
3955 1 2.21975 -6.56058 0.02 0 0.000175685 0.000583817 1 2
3953 1 2.1949 -6.7407 0.02 0 -0.00294862 -0.000624285 1 2
3950 1 2.00499 -6.74921 0.02 0 -0.00370439 -0.000616605 1 2
3952 1 2.01786 -6.55859 0.02 0 2.25418e-05 0.000384179 1 2
3958 1 2.59751 -6.55361 0.02 0 0.000185537 0.000344034 1 2
3957 1 2.59368 -6.74592 0.02 0 -0.00179936 -0.000430348 1 2
3954 1 2.38986 -6.76847 0.02 0 -0.00284001 -0.000613471 1 2
3956 1 2.41268 -6.576 0.02 0 0.000220478 0.000529536 1 2
3818 1 2.51652 -0.249702 0.02 0 0 0 1 2
3969 1 2.23347 -6.20222 0.02 0 7.78287e-06 1.6078e-05 1 2
3967 1 2.21061 -6.38259 0.02 0 0.000102827 0.000150013 1 2
3966 1 2.02627 -6.18143 0.02 0 1.92135e-06 5.00914e-06 1 2
3964 1 2.00551 -6.36834 0.02 0 4.17129e-05 6.57698e-05 1 2
3972 1 2.65084 -6.19175 0.02 0 2.8604e-05 3.76269e-05 1 2
3971 1 2.64448 -6.37166 0.02 0 4.15906e-05 0.000228094 1 2
3970 1 2.4422 -6.20607 0.02 0 1.22575e-05 2.20527e-05 1 2
3968 1 2.42428 -6.38716 0.02 0 0.000128199 0.000176684 1 2
3823 1 2.3285 -0.320927 0.02 0 0 0 1 2
3819 1 2.47283 -0.0478893 0.02 0 0 0 1 2
3982 1 2.08004 -5.8133 0.02 0 3.06169e-11 2.13872e-10 1 2
3985 1 2.28959 -5.8406 0.02 0 1.63874e-10 8.13058e-10 1 2
3987 1 2.30378 -5.65807 0.02 0 0 0 1 2
3983 1 2.23824 -6.01828 0.02 0 8.26876e-08 2.6391e-07 1 2
3980 1 2.02538 -5.99456 0.02 0 7.44187e-09 3.59183e-08 1 2
3981 1 1.87007 -5.803 0.02 0 2.60715e-12 2.46576e-11 1 2
3988 1 2.52534 -5.67806 0.02 0 0 0 1 2
3986 1 2.50737 -5.85757 0.02 0 1.04779e-10 1.90361e-09 1 2
3984 1 2.46072 -6.02829 0.02 0 2.02102e-07 4.53092e-07 1 2
4000 1 2.08589 -5.62586 0.02 0 0 0 1 2
3999 1 1.95089 -5.23061 0.02 0 0 0 1 2
3997 1 1.92042 -5.42183 0.02 0 0 0 1 2
4003 1 2.15748 -5.25608 0.02 0 0 0 1 2
4001 1 2.12835 -5.44246 0.02 0 0 0 1 2
3996 1 1.87786 -5.61019 0.02 0 0 0 1 2
4004 1 2.36788 -5.28876 0.02 0 0 0 1 2
4002 1 2.33222 -5.47541 0.02 0 0 0 1 2
4006 1 2.5771 -5.30587 0.02 0 0 0 1 2
4005 1 2.5408 -5.49466 0.02 0 0 0 1 2
4015 1 1.95826 -4.84437 0.02 0 0 0 1 2
4017 1 2.16169 -4.87111 0.02 0 0 0 1 2
4014 1 1.98917 -5.04029 0.02 0 0 0 1 2
4016 1 2.19268 -5.06783 0.02 0 0 0 1 2
4019 1 2.36244 -4.88531 0.02 0 0 0 1 2
4021 1 2.57957 -5.11052 0.02 0 0 0 1 2
4020 1 2.55976 -4.90344 0.02 0 0 0 1 2
4018 1 2.38746 -5.0919 0.02 0 0 0 1 2
4029 1 1.9501 -4.44736 0.02 0 0 0 1 2
4031 1 2.15306 -4.46549 0.02 0 0 0 1 2
4030 1 2.17174 -4.67057 0.02 0 0 0 1 2
4028 1 1.98072 -4.64625 0.02 0 0 0 1 2
4033 1 2.35031 -4.46046 0.02 0 0 0 1 2
4032 1 2.36054 -4.67466 0.02 0 0 0 1 2
4035 1 2.54516 -4.49581 0.02 0 0 0 1 2
4034 1 2.55189 -4.69896 0.02 0 0 0 1 2
4045 1 2.16441 -4.06866 0.02 0 0 0 1 2
4044 1 2.17451 -4.26689 0.02 0 0 0 1 2
4043 1 1.96764 -4.05749 0.02 0 0 0 1 2
4042 1 1.96727 -4.25491 0.02 0 0 0 1 2
4047 1 2.36469 -4.04623 0.02 0 0 0 1 2
4046 1 2.37412 -4.25285 0.02 0 0 0 1 2
4049 1 2.56213 -4.09365 0.02 0 0 0 1 2
4048 1 2.56902 -4.29575 0.02 0 0 0 1 2
4058 1 2.02928 -3.65665 0.02 0 0 0 1 2
4057 1 1.99699 -3.85732 0.02 0 0 0 1 2
4059 1 2.19559 -3.86973 0.02 0 0 0 1 2
4060 1 2.22384 -3.66825 0.02 0 0 0 1 2
4056 1 1.83361 -3.64838 0.02 0 0 0 1 2
4063 1 2.57877 -3.89314 0.02 0 0 0 1 2
4064 1 2.60324 -3.68647 0.02 0 0 0 1 2
4062 1 2.41516 -3.62939 0.02 0 0 0 1 2
4061 1 2.39238 -3.83821 0.02 0 0 0 1 2
3936 1 1.99426 -3.45599 0.02 0 0 0 1 2
3935 1 1.99269 -3.25767 0.02 0 0 0 1 2
3933 1 2.00748 -3.05992 0.02 0 0 0 1 2
3932 1 2.19894 -3.46906 0.02 0 0 0 1 2
3931 1 2.19358 -3.27232 0.02 0 0 0 1 2
3928 1 2.20479 -3.07265 0.02 0 0 0 1 2
3927 1 2.59294 -3.47713 0.02 0 0 0 1 2
3926 1 2.58547 -3.27024 0.02 0 0 0 1 2
3925 1 2.59153 -3.05959 0.02 0 0 0 1 2
3930 1 2.3976 -3.42534 0.02 0 0 0 1 2
3929 1 2.39156 -3.22306 0.02 0 0 0 1 2
3919 1 1.97813 -2.86829 0.02 0 0 0 1 2
3917 1 1.93359 -2.68272 0.02 0 0 0 1 2
3914 1 2.1457 -2.68608 0.02 0 0 0 1 2
3915 1 2.19099 -2.87434 0.02 0 0 0 1 2
3912 1 2.35287 -2.6413 0.02 0 0 0 1 2
3911 1 2.58417 -2.84058 0.02 0 0 0 1 2
3910 1 2.5609 -2.62369 0.02 0 0 0 1 2
3916 1 2.39927 -3.02198 0.02 0 0 0 1 2
3913 1 2.39129 -2.8269 0.02 0 0 0 1 2
3901 1 2.13594 -2.49394 0.02 0 0 0 1 2
3900 1 2.1144 -2.30128 0.02 0 0 0 1 2
3902 1 1.902 -2.30994 0.02 0 0 0 1 2
3903 1 1.92763 -2.49506 0.02 0 0 0 1 2
3898 1 2.31255 -2.25436 0.02 0 0 0 1 2
3899 1 2.33607 -2.44987 0.02 0 0 0 1 2
3897 1 2.53241 -2.42162 0.02 0 0 0 1 2
3896 1 2.50941 -2.21807 0.02 0 0 0 1 2
3821 1 2.13982 -0.395697 0.02 0 0 0 1 2
3886 1 2.05215 -2.118 0.02 0 0 0 1 2
3883 1 2.21616 -1.8738 0.02 0 0 0 1 2
3885 1 2.25715 -2.06621 0.02 0 0 0 1 2
3888 1 2.02329 -1.92667 0.02 0 0 0 1 2
3890 1 1.83064 -2.1371 0.02 0 0 0 1 2
3884 1 2.4559 -2.02337 0.02 0 0 0 1 2
3882 1 2.40777 -1.82483 0.02 0 0 0 1 2
3880 1 2.59234 -1.75658 0.02 0 0 0 1 2
3881 1 2.64122 -1.956 0.02 0 -1.39707e-22 2.81879e-23 1 2
3820 1 2.29039 -0.123525 0.02 0 0 0 1 2
3867 1 2.1668 -1.47817 0.02 0 0 0 1 2
3869 1 2.18283 -1.67801 0.02 0 0 0 1 2
3870 1 1.95905 -1.32082 0.02 0 0 0 1 2
3874 1 1.98852 -1.72907 0.02 0 0 0 1 2
3872 1 1.9728 -1.52383 0.02 0 0 0 1 2
3865 1 2.55878 -1.55154 0.02 0 0 0 1 2
3866 1 2.3559 -1.41185 0.02 0 0 0 1 2
3868 1 2.37414 -1.62017 0.02 0 0 0 1 2
3864 1 2.53513 -1.33541 0.02 0 0 0 1 2
3858 1 1.93539 -1.11965 0.02 0 0 0 1 2
3855 1 2.15218 -1.2746 0.02 0 0 0 1 2
3853 1 2.12305 -1.06612 0.02 0 0 0 1 2
3852 1 2.29908 -0.984807 0.02 0 0 0 1 2
3856 1 1.87112 -0.926641 0.02 0 0 0 1 2
3851 1 2.47336 -0.898944 0.02 0 0 0 1 2
3854 1 2.32965 -1.19935 0.02 0 0 0 1 2
3850 1 2.49896 -1.11672 0.02 0 0 0 1 2
3822 1 2.10493 -0.195535 0.02 0 0 0 1 2
3825 1 1.91947 -0.268647 0.02 0 0 0 1 2
3839 1 2.05424 -0.867583 0.02 0 0 0 1 2
3838 1 2.23159 -0.789936 0.02 0 0 0 1 2
3837 1 2.18281 -0.592202 0.02 0 0 0 1 2
3841 1 1.95332 -0.469224 0.02 0 0 0 1 2
3840 1 1.99669 -0.668099 0.02 0 0 0 1 2
3834 1 2.65915 -0.848233 0.02 0 -1.47973e-22 2.9527e-23 1 2
3833 1 2.60355 -0.650311 0.02 0 -1.63188e-24 -9.0052e-26 1 2
3832 1 2.56406 -0.449534 0.02 0 0 0 1 2
3836 1 2.37231 -0.512167 0.02 0 0 0 1 2
3835 1 2.41111 -0.705365 0.02 0 0 0 1 2
3824 1 1.90477 -0.0631203 0.02 0 0 0 1 2
3949 1 1.80071 -6.76677 0.02 0 -0.00252438 -0.000756931 1 2
3951 1 1.82268 -6.57855 0.02 0 -9.0893e-05 0.000235781 1 2
3963 1 1.80749 -6.38915 0.02 0 4.65886e-06 1.46121e-05 1 2
3965 1 1.82266 -6.18855 0.02 0 1.03056e-07 3.69907e-07 1 2
3979 1 1.81696 -5.99289 0.02 0 2.53404e-10 1.34367e-09 1 2
4012 1 1.78182 -5.02613 0.02 0 0 0 1 2
4013 1 1.75746 -4.82709 0.02 0 0 0 1 2
3843 1 1.81018 -0.730977 0.02 0 0 0 1 2
4026 1 1.78541 -4.62877 0.02 0 0 0 1 2
4040 1 1.75605 -4.24028 0.02 0 0 0 1 2
4041 1 1.77358 -4.04539 0.02 0 0 0 1 2
4055 1 1.79696 -3.84635 0.02 0 0 0 1 2
3842 1 1.7673 -0.527642 0.02 0 0 0 1 2
3934 1 1.80612 -3.062 0.02 0 0 0 1 2
3937 1 1.79012 -3.25733 0.02 0 0 0 1 2
3938 1 1.78831 -3.45244 0.02 0 0 0 1 2
3920 1 1.76533 -2.87093 0.02 0 0 0 1 2
3889 1 1.82163 -1.95147 0.02 0 0 0 1 2
3887 1 1.78462 -1.76484 0.02 0 0 0 1 2
3871 1 1.75808 -1.37784 0.02 0 0 0 1 2
3873 1 1.78021 -1.5728 0.02 0 0 0 1 2
3827 1 1.73274 -0.317833 0.02 0 0 0 1 2
3995 1 1.71407 -5.41859 0.02 0 0 0 1 2
3998 1 1.74937 -5.22191 0.02 0 0 0 1 2
3826 1 1.71433 -0.104643 0.02 0 0 0 1 2
4027 1 1.74329 -4.43103 0.02 0 0 0 1 2
3859 1 1.74439 -1.18336 0.02 0 0 0 1 2
3857 1 1.68816 -0.988747 0.02 0 0 0 1 2
3918 1 1.72381 -2.68142 0.02 0 0 0 1 2
3905 1 1.71765 -2.49051 0.02 0 0 0 1 2
3948 1 1.62426 -6.57855 0.02 0 1.39332e-06 4.81043e-05 1 2
3962 1 1.61696 -6.21801 0.02 0 8.38344e-09 1.0477e-07 1 2
3975 1 1.61904 -6.02704 0.02 0 0 0 1 2
3978 1 1.66359 -5.82346 0.02 0 0 0 1 2
3994 1 1.67924 -5.62036 0.02 0 0 0 1 2
3844 1 1.62499 -0.788933 0.02 0 0 0 1 2
3904 1 1.6738 -2.30636 0.02 0 0 0 1 2
4054 1 1.63406 -3.64771 0.02 0 0 0 1 2
3946 1 1.58756 -6.76349 0.02 0 -0.000262281 -0.000135992 1 2
3960 1 1.60148 -6.39862 0.02 0 1.60948e-07 2.42672e-06 1 2
3891 1 1.60867 -1.93585 0.02 0 0 0 1 2
3892 1 1.61284 -2.12404 0.02 0 0 0 1 2
3828 1 1.55128 -0.378772 0.02 0 0 0 1 2
3923 1 1.55651 -2.87607 0.02 0 0 0 1 2
4009 1 1.55485 -5.19276 0.02 0 0 0 1 2
4010 1 1.57698 -4.99109 0.02 0 0 0 1 2
4011 1 1.55708 -4.79402 0.02 0 0 0 1 2
3875 1 1.57699 -1.56384 0.02 0 0 0 1 2
4024 1 1.58574 -4.60119 0.02 0 0 0 1 2
4037 1 1.54372 -4.22496 0.02 0 0 0 1 2
4039 1 1.57724 -4.03552 0.02 0 0 0 1 2
3845 1 1.58341 -0.584138 0.02 0 0 0 1 2
3942 1 1.58232 -3.45411 0.02 0 0 0 1 2
3941 1 1.58322 -3.26052 0.02 0 0 0 1 2
4052 1 1.59295 -3.84076 0.02 0 0 0 1 2
3939 1 1.60061 -3.06801 0.02 0 0 0 1 2
3893 1 1.56728 -1.75137 0.02 0 0 0 1 2
3862 1 1.53515 -1.19427 0.02 0 0 0 1 2
3829 1 1.53084 -0.173337 0.02 0 0 0 1 2
3922 1 1.51966 -2.68115 0.02 0 0 0 1 2
3990 1 1.48838 -5.61698 0.02 0 0 0 1 2
3992 1 1.51907 -5.40365 0.02 0 0 0 1 2
3907 1 1.50702 -2.4854 0.02 0 0 0 1 2
3876 1 1.53978 -1.3795 0.02 0 0 0 1 2
3860 1 1.49112 -1.00662 0.02 0 0 0 1 2
4025 1 1.53362 -4.41435 0.02 0 0 0 1 2
3828 1 2.27573 0.297915 0.02 0 0 0 1 2
3829 1 2.27756 0.0870193 0.02 0 0 0 1 2
3830 1 2.09125 0.0123139 0.02 0 0 0 1 2
3827 1 2.06492 0.428482 0.02 0 0 0 1 2
3826 1 2.0861 0.221767 0.02 0 0 0 1 2
3824 1 1.89694 0.14424 0.02 0 0 0 1 2
3825 1 1.88508 0.353606 0.02 0 0 0 1 2
3832 1 2.4725 0.353552 0.02 0 0 0 1 2
3831 1 2.46801 0.154943 0.02 0 0 0 1 2
454 2 2.6 9.6 0 0 0 0 1 5
455 2 2.8 9.6 0 0 0 0 1 5
3844 1 2.24667 0.503287 0.02 0 0 0 1 2
3842 1 2.00855 0.841408 0.02 0 0 0 1 2
3843 1 2.04024 0.636197 0.02 0 0 0 1 2
3845 1 2.2225 0.711247 0.02 0 0 0 1 2
3840 1 1.85942 0.56827 0.02 0 0 0 1 2
3841 1 1.82527 0.780362 0.02 0 0 0 1 2
3847 1 2.41847 0.74091 0.02 0 0 0 1 2
3846 1 2.43886 0.546765 0.02 0 0 0 1 2
3848 1 2.64009 0.55315 0.02 0 -4.91337e-28 1.80688e-28 1 2
3849 1 2.61802 0.754952 0.02 0 -2.80419e-28 -5.47025e-29 1 2
488 2 2.6 9.8 0 0 0 0 1 5
489 2 2.8 9.8 0 0 0 0 1 5
485 2 2 9.8 0 0 0 0 1 5
3858 1 1.97214 1.04555 0.02 0 0 0 1 2
3860 1 2.15728 1.11411 0.02 0 0 0 1 2
3857 1 1.93822 1.24909 0.02 0 0 0 1 2
3859 1 2.19322 0.914402 0.02 0 0 0 1 2
3862 1 2.35731 1.12443 0.02 0 0 0 1 2
3861 1 2.39515 0.933529 0.02 0 0 0 1 2
3864 1 2.55682 1.14977 0.02 0 -4.90264e-28 -2.13827e-29 1 2
3863 1 2.59929 0.955365 0.02 0 -5.09982e-26 -7.52914e-27 1 2
451 2 2 9.6 0 0 0 0 1 5
3878 1 2.29315 1.6938 0.02 0 0 0 1 2
3876 1 2.12751 1.51012 0.02 0 0 0 1 2
3874 1 2.13047 1.31259 0.02 0 0 0 1 2
3871 1 1.92769 1.45325 0.02 0 0 0 1 2
3873 1 2.08663 1.70407 0.02 0 0 0 1 2
3872 1 1.89264 1.65109 0.02 0 0 0 1 2
3879 1 2.50518 1.73253 0.02 0 0 0 1 2
3877 1 2.34099 1.50942 0.02 0 0 0 1 2
3875 1 2.33363 1.31735 0.02 0 0 0 1 2
3881 1 2.54895 1.54741 0.02 0 0 0 1 2
3880 1 2.53652 1.34912 0.02 0 0 0 1 2
3893 1 2.30043 1.8863 0.02 0 0 0 1 2
3894 1 2.29139 2.08168 0.02 0 0 0 1 2
3892 1 2.09729 1.90075 0.02 0 0 0 1 2
3888 1 1.8958 1.85706 0.02 0 0 0 1 2
3891 1 2.07739 2.09225 0.02 0 0 0 1 2
3890 1 1.8742 2.0556 0.02 0 0 0 1 2
3896 1 2.51965 2.10998 0.02 0 0 0 1 2
3895 1 2.49936 1.92355 0.02 0 0 0 1 2
486 2 2.2 9.8 0 0 0 0 1 5
487 2 2.4 9.8 0 0 0 0 1 5
3905 1 1.91842 2.44255 0.02 0 0 0 1 2
3907 1 2.12998 2.4568 0.02 0 0 0 1 2
3906 1 2.16224 2.27066 0.02 0 0 0 1 2
3904 1 1.93558 2.25388 0.02 0 0 0 1 2
3909 1 2.34835 2.45162 0.02 0 0 0 1 2
3908 1 2.37754 2.26424 0.02 0 0 0 1 2
3911 1 2.56608 2.46193 0.02 0 -2.44927e-28 1.65344e-29 1 2
3910 1 2.60888 2.28053 0.02 0 -1.32428e-26 1.37384e-27 1 2
452 2 2.2 9.6 0 0 0 0 1 5
453 2 2.4 9.6 0 0 0 0 1 5
3921 1 2.02482 3.00202 0.02 0 0 0 1 2
3920 1 2.02512 2.81234 0.02 0 0 0 1 2
3919 1 1.98042 2.62794 0.02 0 0 0 1 2
3924 1 2.23794 3.00905 0.02 0 0 0 1 2
3923 1 2.24066 2.82233 0.02 0 0 0 1 2
3922 1 2.20319 2.63653 0.02 0 0 0 1 2
3927 1 2.46117 3.00989 0.02 0 0 0 1 2
3929 1 2.66146 2.82685 0.02 0 -3.79018e-24 -8.24781e-25 1 2
3926 1 2.45077 2.82201 0.02 0 0 0 1 2
3925 1 2.41998 2.63402 0.02 0 0 0 1 2
3928 1 2.64112 2.63978 0.02 0 -3.2035e-24 2.67015e-25 1 2
420 2 2.6 9.4 0 0 0 0 1 5
3938 1 2.08988 3.18734 0.02 0 0 0 1 2
3937 1 1.94377 3.35276 0.02 0 0 0 1 2
3939 1 2.16838 3.36887 0.02 0 0 0 1 2
3940 1 2.31249 3.18551 0.02 0 0 0 1 2
3936 1 1.86529 3.17459 0.02 0 0 0 1 2
3941 1 2.38427 3.36398 0.02 0 0 0 1 2
3943 1 2.59316 3.3779 0.02 0 -2.62897e-24 3.54291e-25 1 2
3942 1 2.53682 3.18899 0.02 0 0 0 1 2
421 2 2.8 9.4 0 0 0 0 1 5
3954 1 2.03396 3.72892 0.02 0 0 0 1 2
3953 1 1.96573 3.54201 0.02 0 0 0 1 2
3955 1 2.176 3.56052 0.02 0 0 0 1 2
3956 1 2.26278 3.73891 0.02 0 0 0 1 2
3952 1 1.86442 3.89242 0.02 0 0 0 1 2
3958 1 2.48467 3.72623 0.02 0 0 0 1 2
3957 1 2.39043 3.55293 0.02 0 0 0 1 2
3959 1 2.62412 3.56471 0.02 0 -3.88947e-24 -4.60886e-25 1 2
3969 1 1.9882 4.28555 0.02 0 0 0 1 2
3973 1 2.13826 4.11917 0.02 0 0 0 1 2
3970 1 2.06726 3.92225 0.02 0 0 0 1 2
3967 1 1.92524 4.09157 0.02 0 0 0 1 2
3972 1 2.26907 3.93074 0.02 0 0 0 1 2
3975 1 2.1919 4.32136 0.02 0 0 0 1 2
3971 1 2.47641 3.91626 0.02 0 0 0 1 2
3974 1 2.34743 4.11587 0.02 0 0 0 1 2
3976 1 2.38823 4.31238 0.02 0 0 0 1 2
3978 1 2.58333 4.30473 0.02 0 0 0 1 2
3977 1 2.55331 4.10482 0.02 0 0 0 1 2
3988 1 2.02164 4.48471 0.02 0 0 0 1 2
3989 1 2.06024 4.6878 0.02 0 0 0 1 2
3992 1 2.24427 4.75966 0.02 0 0 0 1 2
3990 1 2.21827 4.5335 0.02 0 0 0 1 2
3987 1 1.87406 4.73178 0.02 0 0 0 1 2
3985 1 1.8286 4.52537 0.02 0 0 0 1 2
3993 1 2.42411 4.73345 0.02 0 0 0 1 2
3991 1 2.4061 4.51831 0.02 0 0 0 1 2
3994 1 2.59589 4.51124 0.02 0 0 0 1 2
3995 1 2.60938 4.72035 0.02 0 0 0 1 2
4004 1 2.0761 4.89802 0.02 0 0 0 1 2
4005 1 2.06497 5.13092 0.02 0 0 0 1 2
4002 1 1.89915 4.95411 0.02 0 0 0 1 2
4006 1 2.23813 4.99884 0.02 0 0 0 1 2
4008 1 2.23451 5.21573 0.02 0 0 0 1 2
4003 1 1.8896 5.18161 0.02 0 0 0 1 2
4009 1 2.41686 5.21515 0.02 0 0 0 1 2
4007 1 2.41147 4.96807 0.02 0 0 0 1 2
4011 1 2.58939 5.14926 0.02 0 0 0 1 2
4010 1 2.58575 4.93068 0.02 0 0 0 1 2
4021 1 2.05747 5.61574 0.02 0 0 0 1 2
4020 1 2.05428 5.3707 0.02 0 0 0 1 2
4024 1 2.24302 5.63052 0.02 0 0 0 1 2
4022 1 2.2293 5.4263 0.02 0 0 0 1 2
4018 1 1.87432 5.39802 0.02 0 0 0 1 2
4019 1 1.87229 5.60227 0.02 0 0 0 1 2
4023 1 2.41578 5.44482 0.02 0 0 0 1 2
4025 1 2.58942 5.36979 0.02 0 0 0 1 2
4026 1 2.60962 5.58605 0.02 0 0 0 1 2
4040 1 2.2079 6.02609 0.02 0 1.33249e-07 -4.17254e-07 1 2
4038 1 2.23868 5.83202 0.02 0 2.05669e-10 -5.88636e-10 1 2
4036 1 2.01246 6.03374 0.02 0 5.34065e-08 -1.53312e-07 1 2
4034 1 2.04009 5.83143 0.02 0 3.73268e-11 -1.20898e-10 1 2
4033 1 1.84783 5.80575 0.02 0 5.12664e-13 -1.71471e-11 1 2
4043 1 2.62576 5.99016 0.02 0 5.89493e-08 -1.36548e-07 1 2
4042 1 2.64076 5.79369 0.02 0 5.13426e-11 -1.13121e-10 1 2
4037 1 2.43223 5.65885 0.02 0 0 0 1 2
4039 1 2.44372 5.85364 0.02 0 4.98369e-10 -1.2521e-09 1 2
4041 1 2.41105 6.038 0.02 0 1.8699e-07 -5.43584e-07 1 2
387 2 2.8 9.2 0 0 0 0 1 5
386 2 2.6 9.2 0 0 0 0 1 5
4054 1 2.22097 6.21556 0.02 0 1.08055e-05 -2.33421e-05 1 2
4053 1 2.03881 6.40823 0.02 0 7.44242e-05 -0.000140747 1 2
4051 1 2.00829 6.22574 0.02 0 4.916e-06 -1.02175e-05 1 2
4056 1 2.25164 6.39628 0.02 0 0.000134956 -0.000179358 1 2
4052 1 1.83143 6.39542 0.02 0 8.64323e-06 -3.62431e-05 1 2
4059 1 2.6649 6.35552 0.02 0 -5.24371e-05 -0.000247487 1 2
4058 1 2.65537 6.17183 0.02 0 7.54488e-06 -1.37991e-05 1 2
4057 1 2.46401 6.39197 0.02 0 0.000117233 -0.000176736 1 2
4055 1 2.44131 6.21544 0.02 0 1.21359e-05 -2.26723e-05 1 2
418 2 2.2 9.4 0 0 0 0 1 5
417 2 2 9.4 0 0 0 0 1 5
4069 1 2.06256 6.58197 0.02 0 -2.07395e-05 -0.000686566 1 2
4066 1 2.01424 6.75189 0.02 0 -0.00361391 0.000864069 1 2
4071 1 2.22925 6.7635 0.02 0 -0.00340485 0.000635803 1 2
4072 1 2.26725 6.5775 0.02 0 8.77661e-05 -0.000553373 1 2
4068 1 1.83266 6.57318 0.02 0 -7.86114e-05 -0.000222624 1 2
4073 1 2.47453 6.56733 0.02 0 8.42976e-05 -0.000577996 1 2
4070 1 2.4332 6.74129 0.02 0 -0.00202399 0.000464647 1 2
4074 1 2.62676 6.74069 0.02 0 -0.00179469 0.00028742 1 2
384 2 2.2 9.2 0 0 0 0 1 5
419 2 2.4 9.4 0 0 0 0 1 5
9 2 2 7 0 0 0 0 1.00139 5
10 2 2.2 7 0 0 0 0 0.999456 5
11 2 2.4 7 0 0 0 0 0.998576 5
43 2 2 7.2 0 0 0 0 1.00144 5
44 2 2.2 7.2 0 0 0 0 0.999439 5
45 2 2.4 7.2 0 0 0 0 0.997929 5
47 2 2.8 7.2 0 0 0 0 0.990769 5
13 2 2.8 7 0 0 0 0 0.991221 5
46 2 2.6 7.2 0 0 0 0 0.997007 5
12 2 2.6 7 0 0 0 0 0.996307 5
77 2 2 7.4 0 0 0 0 1.001 5
145 2 2 7.8 0 0 0 0 1 5
146 2 2.2 7.8 0 0 0 0 1 5
79 2 2.4 7.4 0 0 0 0 0.995138 5
113 2 2.4 7.6 0 0 0 0 1 5
112 2 2.2 7.6 0 0 0 0 1 5
111 2 2 7.6 0 0 0 0 1 5
147 2 2.4 7.8 0 0 0 0 1 5
78 2 2.2 7.4 0 0 0 0 1.00174 5
115 2 2.8 7.6 0 0 0 0 1 5
81 2 2.8 7.4 0 0 0 0 0.99091 5
114 2 2.6 7.6 0 0 0 0 1 5
148 2 2.6 7.8 0 0 0 0 1 5
149 2 2.8 7.8 0 0 0 0 1 5
80 2 2.6 7.4 0 0 0 0 1.00104 5
215 2 2.4 8.2 0 0 0 0 1 5
214 2 2.2 8.2 0 0 0 0 1 5
213 2 2 8.2 0 0 0 0 1 5
181 2 2.4 8 0 0 0 0 1 5
180 2 2.2 8 0 0 0 0 1 5
179 2 2 8 0 0 0 0 1 5
217 2 2.8 8.2 0 0 0 0 1 5
216 2 2.6 8.2 0 0 0 0 1 5
183 2 2.8 8 0 0 0 0 1 5
182 2 2.6 8 0 0 0 0 1 5
282 2 2.2 8.6 0 0 0 0 1 5
283 2 2.4 8.6 0 0 0 0 1 5
247 2 2 8.4 0 0 0 0 1 5
248 2 2.2 8.4 0 0 0 0 1 5
249 2 2.4 8.4 0 0 0 0 1 5
281 2 2 8.6 0 0 0 0 1 5
250 2 2.6 8.4 0 0 0 0 1 5
251 2 2.8 8.4 0 0 0 0 1 5
284 2 2.6 8.6 0 0 0 0 1 5
285 2 2.8 8.6 0 0 0 0 1 5
351 2 2.4 9 0 0 0 0 1 5
350 2 2.2 9 0 0 0 0 1 5
349 2 2 9 0 0 0 0 1 5
317 2 2.4 8.8 0 0 0 0 1 5
316 2 2.2 8.8 0 0 0 0 1 5
315 2 2 8.8 0 0 0 0 1 5
353 2 2.8 9 0 0 0 0 1 5
318 2 2.6 8.8 0 0 0 0 1 5
319 2 2.8 8.8 0 0 0 0 1 5
352 2 2.6 9 0 0 0 0 1 5
383 2 2 9.2 0 0 0 0 1 5
385 2 2.4 9.2 0 0 0 0 1 5
3855 1 1.78709 0.987355 0.02 0 0 0 1 2
3903 1 1.7599 2.60106 0.02 0 0 0 1 2
3917 1 1.80539 2.79067 0.02 0 0 0 1 2
3918 1 1.81862 2.98307 0.02 0 0 0 1 2
3950 1 1.75673 3.51237 0.02 0 0 0 1 2
4067 1 1.8136 6.75198 0.02 0 -0.00246393 0.000660695 1 2
3951 1 1.80765 3.70319 0.02 0 0 0 1 2
3968 1 1.79243 4.32461 0.02 0 0 0 1 2
4050 1 1.79909 6.20704 0.02 0 1.73733e-07 -4.3167e-07 1 2
4035 1 1.82218 6.01133 0.02 0 6.12276e-10 -1.61498e-09 1 2
3822 1 1.703 0.10449 0.02 0 0 0 1 2
3823 1 1.69706 0.316871 0.02 0 0 0 1 2
3856 1 1.74803 1.19029 0.02 0 0 0 1 2
3869 1 1.73222 1.39328 0.02 0 0 0 1 2
3870 1 1.70038 1.59163 0.02 0 0 0 1 2
3887 1 1.70194 1.79638 0.02 0 0 0 1 2
3901 1 1.72088 2.20644 0.02 0 0 0 1 2
3902 1 1.7152 2.40235 0.02 0 0 0 1 2
3935 1 1.70627 3.32877 0.02 0 0 0 1 2
3966 1 1.73134 4.12896 0.02 0 0 0 1 2
4000 1 1.71398 4.94053 0.02 0 0 0 1 2
4001 1 1.70778 5.14856 0.02 0 0 0 1 2
4016 1 1.68985 5.35518 0.02 0 0 0 1 2
4049 1 1.62895 6.36713 0.02 0 7.13142e-08 -2.2451e-06 1 2
3838 1 1.64036 0.740464 0.02 0 0 0 1 2
4017 1 1.68045 5.56236 0.02 0 0 0 1 2
3839 1 1.67395 0.527935 0.02 0 0 0 1 2
4032 1 1.65572 5.7628 0.02 0 0 0 1 2
3889 1 1.6785 1.99756 0.02 0 0 0 1 2
4031 1 1.63716 5.96394 0.02 0 5.26666e-12 -1.57374e-10 1 2
4065 1 1.61629 6.55738 0.02 0 -2.81756e-06 5.70901e-08 1 2
3916 1 1.61364 2.94837 0.02 0 0 0 1 2
4062 1 1.61672 6.74289 0.02 0 -0.000302433 8.92111e-05 1 2
3934 1 1.64555 3.14301 0.02 0 0 0 1 2
3965 1 1.67227 3.92769 0.02 0 0 0 1 2
3986 1 1.68036 4.73412 0.02 0 0 0 1 2
3984 1 1.63097 4.53266 0.02 0 0 0 1 2
3853 1 1.55552 1.15445 0.02 0 0 0 1 2
3854 1 1.5988 0.94982 0.02 0 0 0 1 2
3900 1 1.54953 2.56123 0.02 0 0 0 1 2
3915 1 1.58623 2.75552 0.02 0 0 0 1 2
4046 1 1.60153 6.16667 0.02 0 1.27662e-11 -3.92613e-11 1 2
3948 1 1.55168 3.52476 0.02 0 0 0 1 2
3964 1 1.59254 4.32724 0.02 0 0 0 1 2
3949 1 1.60452 3.72431 0.02 0 0 0 1 2
3820 1 1.51248 0.0324508 0.02 0 0 0 1 2
3821 1 1.51359 0.238999 0.02 0 0 0 1 2
4014 1 1.50141 5.34701 0.02 0 0 0 1 2
3835 1 1.4931 0.447051 0.02 0 0 0 1 2
3867 1 1.50357 1.5575 0.02 0 0 0 1 2
3868 1 1.53331 1.35841 0.02 0 0 0 1 2
4015 1 1.48494 5.55932 0.02 0 0 0 1 2
3963 1 1.53328 4.11699 0.02 0 0 0 1 2
3947 1 1.47472 3.90666 0.02 0 0 0 1 2
3884 1 1.50398 1.7605 0.02 0 0 0 1 2
3885 1 1.48083 1.95782 0.02 0 0 0 1 2
3886 1 1.51841 2.16205 0.02 0 0 0 1 2
3983 1 1.47597 4.71589 0.02 0 0 0 1 2
3998 1 1.52161 4.91452 0.02 0 0 0 1 2
3933 1 1.49169 3.32658 0.02 0 0 0 1 2
3899 1 1.51414 2.36092 0.02 0 0 0 1 2
3999 1 1.52227 5.12546 0.02 0 0 0 1 2
1583 2 3.2 -9.6 0 0 0 0 1 5
1582 2 3 -9.6 0 0 0 0 1 5
1549 2 3.2 -9.8 0 0 0 0 1 5
1548 2 3 -9.8 0 0 0 0 1 5
1515 2 3.2 -10 0 0 0 0 1 5
1514 2 3 -10 0 0 0 0 1 5
1584 2 3.4 -9.6 0 0 0 0 1 5
1550 2 3.4 -9.8 0 0 0 0 1 5
1516 2 3.4 -10 0 0 0 0 1 5
1586 2 3.8 -9.6 0 0 0 0 1 5
1585 2 3.6 -9.6 0 0 0 0 1 5
1552 2 3.8 -9.8 0 0 0 0 1 5
1551 2 3.6 -9.8 0 0 0 0 1 5
1518 2 3.8 -10 0 0 0 0 1 5
1517 2 3.6 -10 0 0 0 0 1 5
1588 2 4.2 -9.6 0 0 0 0 1 5
1587 2 4 -9.6 0 0 0 0 1 5
1554 2 4.2 -9.8 0 0 0 0 1 5
1553 2 4 -9.8 0 0 0 0 1 5
1520 2 4.2 -10 0 0 0 0 1 5
1519 2 4 -10 0 0 0 0 1 5
1616 2 3 -9.4 0 0 0 0 1 5
1617 2 3.2 -9.4 0 0 0 0 1 5
1651 2 3.2 -9.2 0 0 0 0 1 5
1650 2 3 -9.2 0 0 0 0 1 5
1652 2 3.4 -9.2 0 0 0 0 1 5
1618 2 3.4 -9.4 0 0 0 0 1 5
1653 2 3.6 -9.2 0 0 0 0 1 5
1654 2 3.8 -9.2 0 0 0 0 1 5
1620 2 3.8 -9.4 0 0 0 0 1 5
1619 2 3.6 -9.4 0 0 0 0 1 5
1622 2 4.2 -9.4 0 0 0 0 1 5
1655 2 4 -9.2 0 0 0 0 1 5
1656 2 4.2 -9.2 0 0 0 0 1 5
1621 2 4 -9.4 0 0 0 0 1 5
1719 2 3.2 -8.8 0 0 0 0 1 5
1718 2 3 -8.8 0 0 0 0 1 5
1685 2 3.2 -9 0 0 0 0 1 5
1684 2 3 -9 0 0 0 0 1 5
1686 2 3.4 -9 0 0 0 0 1 5
1720 2 3.4 -8.8 0 0 0 0 1 5
1687 2 3.6 -9 0 0 0 0 1 5
1688 2 3.8 -9 0 0 0 0 1 5
1721 2 3.6 -8.8 0 0 0 0 1 5
1722 2 3.8 -8.8 0 0 0 0 1 5
1689 2 4 -9 0 0 0 0 1 5
1690 2 4.2 -9 0 0 0 0 1 5
1723 2 4 -8.8 0 0 0 0 1 5
1724 2 4.2 -8.8 0 0 0 0 1 5
1752 2 3 -8.6 0 0 0 0 1 5
1753 2 3.2 -8.6 0 0 0 0 1 5
1786 2 3 -8.4 0 0 0 0 1 5
1787 2 3.2 -8.4 0 0 0 0 1 5
1754 2 3.4 -8.6 0 0 0 0 1 5
1788 2 3.4 -8.4 0 0 0 0 1 5
1755 2 3.6 -8.6 0 0 0 0 1 5
1756 2 3.8 -8.6 0 0 0 0 1 5
1789 2 3.6 -8.4 0 0 0 0 1 5
1790 2 3.8 -8.4 0 0 0 0 1 5
1757 2 4 -8.6 0 0 0 0 1 5
1758 2 4.2 -8.6 0 0 0 0 1 5
1791 2 4 -8.4 0 0 0 0 1 5
1792 2 4.2 -8.4 0 0 0 0 1 5
1820 2 3 -8.2 0 0 0 0 1 5
1821 2 3.2 -8.2 0 0 0 0 1 5
1854 2 3 -8 0 0 0 0 1 5
1855 2 3.2 -8 0 0 0 0 1 5
1822 2 3.4 -8.2 0 0 0 0 1 5
1856 2 3.4 -8 0 0 0 0 1 5
1823 2 3.6 -8.2 0 0 0 0 1 5
1824 2 3.8 -8.2 0 0 0 0 1 5
1857 2 3.6 -8 0 0 0 0 1 5
1858 2 3.8 -8 0 0 0 0 1 5
1825 2 4 -8.2 0 0 0 0 1 5
1826 2 4.2 -8.2 0 0 0 0 1 5
1859 2 4 -8 0 0 0 0 1 5
1860 2 4.2 -8 0 0 0 0 1 5
1888 2 3 -7.8 0 0 0 0 1 5
1889 2 3.2 -7.8 0 0 0 0 1 5
1922 2 3 -7.6 0 0 0 0 1 5
1923 2 3.2 -7.6 0 0 0 0 1 5
1956 2 3 -7.4 0 0 0 0 1 5
1957 2 3.2 -7.4 0 0 0 0 1.01203 5
1890 2 3.4 -7.8 0 0 0 0 1 5
1924 2 3.4 -7.6 0 0 0 0 1 5
1958 2 3.4 -7.4 0 0 0 0 1.00065 5
1891 2 3.6 -7.8 0 0 0 0 1 5
1892 2 3.8 -7.8 0 0 0 0 1 5
1925 2 3.6 -7.6 0 0 0 0 1 5
1926 2 3.8 -7.6 0 0 0 0 1 5
1959 2 3.6 -7.4 0 0 0 0 0.998607 5
1960 2 3.8 -7.4 0 0 0 0 0.998841 5
1893 2 4 -7.8 0 0 0 0 1 5
1894 2 4.2 -7.8 0 0 0 0 1 5
1927 2 4 -7.6 0 0 0 0 1 5
1928 2 4.2 -7.6 0 0 0 0 1 5
1961 2 4 -7.4 0 0 0 0 0.999353 5
1962 2 4.2 -7.4 0 0 0 0 1.00076 5
1990 2 3 -7.2 0 0 0 0 1.00839 5
1991 2 3.2 -7.2 0 0 0 0 1.01204 5
2024 2 3 -7 0 0 0 0 1.00273 5
2025 2 3.2 -7 0 0 0 0 1.01013 5
1992 2 3.4 -7.2 0 0 0 0 1.00305 5
2026 2 3.4 -7 0 0 0 0 1.00377 5
1993 2 3.6 -7.2 0 0 0 0 0.998761 5
1994 2 3.8 -7.2 0 0 0 0 0.999556 5
2027 2 3.6 -7 0 0 0 0 0.999903 5
2028 2 3.8 -7 0 0 0 0 1.00007 5
1995 2 4 -7.2 0 0 0 0 1.00131 5
1996 2 4.2 -7.2 0 0 0 0 1.00087 5
2029 2 4 -7 0 0 0 0 1.0016 5
2030 2 4.2 -7 0 0 0 0 1.00045 5
3626 1 3.63028 -6.75274 0.02 0 -0.00329038 -0.000304947 1 2
3628 1 3.63801 -6.56746 0.02 0 2.43456e-05 0.000298417 1 2
3625 1 3.43438 -6.58688 0.02 0 0.000286371 0.000237361 1 2
3623 1 3.41134 -6.76992 0.02 0 -0.00288957 -0.000157678 1 2
3629 1 3.83417 -6.55685 0.0195912 0 -3.51336e-05 0.00036442 1 2
3738 1 4.02567 -6.55697 0.0189858 0 6.59623e-06 0.000418026 1 2
3736 1 3.97484 -6.74787 0.0161367 0 -0.00231225 -0.000401807 1 2
3627 1 3.81749 -6.73947 0.0168658 0 -0.00132577 -0.000210495 1 2
3739 1 4.21981 -6.5555 0.0192132 0 -8.69571e-05 0.00054466 1 2
3737 1 4.12952 -6.7403 0.0165029 0 -0.00339394 -0.000486702 1 2
3573 1 3.77335 -0.71216 0.02 0 2.2548e-19 -6.08088e-19 1 2
3740 1 4.27633 -6.74105 0.0164228 0 -0.00336592 0.000260571 1 2
3624 1 3.22318 -6.58073 0.02 0 -0.00205087 -0.000348862 1 2
3741 1 4.39611 -6.75011 0.0161352 0 -0.00326526 0.000321861 1 2
3635 1 3.70528 -6.19565 0.0199943 0 -1.71451e-07 2.11261e-05 1 2
3634 1 3.6666 -6.37967 0.02 0 8.4108e-05 0.000159945 1 2
3633 1 3.49303 -6.21248 0.02 0 2.50624e-05 4.06675e-05 1 2
3632 1 3.46334 -6.40373 0.02 0 0.00033945 0.00030305 1 2
3746 1 4.13835 -6.18388 0.0199419 0 -2.10897e-05 2.55021e-05 1 2