ITEM: TIMESTEP
67000
ITEM: NUMBER OF ATOMS
1389
ITEM: BOX BOUNDS ff ff pp
0.0000000000000000e+00 4.4000000000000004e+00
-1.0000000000000000e+01 1.0000000000000000e+01
-2.0000000000000000e-02 2.0000000000000000e-02
ITEM: ATOMS id type x y vx vy fx fy c_den c_phase
5477 1 0.860462 -6.55585 0.02 0 0 0 1 2
5478 1 0.825071 -6.74131 0.02 0 0 0 1 2
5479 1 1.02072 -6.73288 0.02 0 0 0 1 2
5480 1 1.21797 -6.75405 0.02 0 -1.00902e-10 -5.05121e-11 1 2
5481 1 1.05902 -6.55059 0.02 0 0 0 1 2
5482 1 1.2478 -6.56092 0.02 0 -6.71863e-14 -2.87505e-14 1 2
5483 1 1.41492 -6.73507 0.02 0 -1.01486e-06 -6.25838e-07 1 2
5409 1 1.41626 -1.52623 0.02 0 0 0 1 2
5485 1 1.43843 -6.5457 0.02 0 2.16433e-09 2.75023e-08 1 2
5410 1 1.42553 -1.73106 0.02 0 0 0 1 2
5378 1 1.42554 -0.690232 0.02 0 0 0 1 2
5405 1 1.4351 -1.30639 0.02 0 0 0 1 2
5492 1 0.818852 -6.37194 0.02 0 0 0 1 2
5491 1 0.874807 -6.18665 0.02 0 0 0 1 2
5493 1 1.02683 -6.3674 0.02 0 0 0 1 2
5494 1 1.23566 -6.36328 0.02 0 0 0 1 2
5495 1 1.07642 -6.18267 0.02 0 0 0 1 2
5496 1 1.2677 -6.16039 0.02 0 0 0 1 2
5497 1 1.43124 -6.35019 0.02 0 8.43447e-11 2.02614e-09 1 2
5366 1 1.3455 -0.114722 0.02 0 0 0 1 2
5499 1 1.45664 -6.14888 0.02 0 2.19445e-12 3.0363e-11 1 2
5391 1 1.43111 -1.09695 0.02 0 0 0 1 2
5398 1 0.865964 -1.29527 0.02 0 0 0 1 2
5377 1 1.40324 -0.495489 0.02 0 0 0 1 2
5505 1 0.88513 -5.99723 0.02 0 0 0 1 2
5506 1 1.08698 -5.98398 0.02 0 0 0 1 2
5507 1 0.934299 -5.80658 0.02 0 0 0 1 2
5508 1 1.12809 -5.77274 0.02 0 0 0 1 2
5509 1 1.27938 -5.95423 0.02 0 0 0 1 2
5510 1 1.32 -5.75045 0.02 0 0 0 1 2
5511 1 1.47229 -5.94497 0.02 0 0 0 1 2
5392 1 1.23954 -0.939246 0.02 0 0 0 1 2
5423 1 1.4294 -1.92978 0.02 0 0 0 1 2
5393 1 1.23606 -1.14737 0.02 0 0 0 1 2
5519 1 0.939556 -5.61253 0.02 0 0 0 1 2
5520 1 1.14142 -5.56602 0.02 0 0 0 1 2
5521 1 0.946015 -5.41997 0.02 0 0 0 1 2
5522 1 1.15453 -5.36883 0.02 0 0 0 1 2
5523 1 0.953406 -5.227 0.02 0 0 0 1 2
5524 1 1.34286 -5.55149 0.02 0 0 0 1 2
5525 1 1.36086 -5.35484 0.02 0 0 0 1 2
5424 1 1.43698 -2.12238 0.02 0 0 0 1 2
5431 1 1.01958 -2.14153 0.02 0 0 0 1 2
5379 1 1.20136 -0.522502 0.02 0 0 0 1 2
5380 1 1.22991 -0.727275 0.02 0 0 0 1 2
5533 1 0.924125 -5.03675 0.02 0 0 0 1 2
5534 1 1.16166 -5.17716 0.02 0 0 0 1 2
5535 1 1.12862 -4.99135 0.02 0 0 0 1 2
5536 1 0.943795 -4.84099 0.02 0 0 0 1 2
5537 1 1.1512 -4.80092 0.02 0 0 0 1 2
5539 1 1.3378 -4.96681 0.02 0 0 0 1 2
5538 1 1.36972 -5.15865 0.02 0 0 0 1 2
5370 1 0.923199 -0.152884 0.02 0 0 0 1 2
5429 1 1.01959 -1.94213 0.02 0 0 0 1 2
5381 1 0.997146 -0.539044 0.02 0 0 0 1 2
5369 1 0.943124 -0.347981 0.02 0 0 0 1 2
5546 1 0.905095 -4.65191 0.02 0 0 0 1 2
5547 1 1.10976 -4.61708 0.02 0 0 0 1 2
5548 1 0.904194 -4.4537 0.02 0 0 0 1 2
5549 1 1.10644 -4.42822 0.02 0 0 0 1 2
5550 1 1.35489 -4.77054 0.02 0 0 0 1 2
5552 1 1.31564 -4.57905 0.02 0 0 0 1 2
5553 1 1.30357 -4.38703 0.02 0 0 0 1 2
5428 1 1.22586 -2.14062 0.02 0 0 0 1 2
5427 1 1.22211 -1.95058 0.02 0 0 0 1 2
5426 1 1.22689 -1.75666 0.02 0 0 0 1 2
5382 1 1.03191 -0.732508 0.02 0 0 0 1 2
5383 1 0.825891 -0.705281 0.02 0 0 0 1 2
5367 1 1.13496 -0.127069 0.02 0 0 0 1 2
5561 1 0.848415 -4.26376 0.02 0 0 0 1 2
5563 1 0.838129 -4.07443 0.02 0 0 0 1 2
5562 1 1.05994 -4.25029 0.02 0 0 0 1 2
5564 1 1.06461 -4.07209 0.02 0 0 0 1 2
5566 1 1.26698 -4.02467 0.02 0 0 0 1 2
5565 1 1.30156 -4.20495 0.02 0 0 0 1 2
5425 1 1.0288 -1.74 0.02 0 0 0 1 2
5568 1 1.47399 -4.0183 0.02 0 0 0 1 2
5413 1 1.02519 -1.53436 0.02 0 0 0 1 2
5394 1 1.04406 -0.929103 0.02 0 0 0 1 2
5575 1 0.807669 -3.89035 0.02 0 0 0 1 2
5577 1 0.822928 -3.70246 0.02 0 0 0 1 2
5576 1 1.02744 -3.89342 0.02 0 0 0 1 2
5578 1 1.03132 -3.70607 0.02 0 0 0 1 2
5579 1 1.00961 -3.51178 0.02 0 0 0 1 2
5580 1 1.23244 -3.65883 0.02 0 0 0 1 2
5581 1 1.25531 -3.84291 0.02 0 0 0 1 2
5582 1 1.49121 -3.83416 0.02 0 0 0 1 2
5583 1 1.44055 -3.65631 0.02 0 0 0 1 2
5396 1 1.0343 -1.12575 0.02 0 0 0 1 2
5395 1 0.841402 -0.901014 0.02 0 0 0 1 2
5476 1 0.816974 -3.32049 0.02 0 0 0 1 2
5471 1 1.21605 -3.27594 0.02 0 0 0 1 2
5472 1 1.21653 -3.46983 0.02 0 0 0 1 2
5473 1 1.17393 -3.09032 0.02 0 0 0 1 2
5474 1 0.953844 -3.12678 0.02 0 0 0 1 2
5475 1 1.01817 -3.31305 0.02 0 0 0 1 2
5408 1 1.25012 -1.35657 0.02 0 0 0 1 2
5466 1 1.3977 -3.07923 0.02 0 0 0 1 2
5411 1 1.21759 -1.55807 0.02 0 0 0 1 2
5468 1 1.41687 -3.27108 0.02 0 0 0 1 2
5412 1 1.05952 -1.32969 0.02 0 0 0 1 2
5470 1 1.42708 -3.46596 0.02 0 0 0 1 2
5368 1 1.13932 -0.325939 0.02 0 0 0 1 2
5363 1 1.33925 -0.307971 0.02 0 0 0 1 2
5457 1 1.10997 -2.71402 0.02 0 0 0 1 2
5458 1 0.898288 -2.74803 0.02 0 0 0 1 2
5459 1 1.15116 -2.90063 0.02 0 0 0 1 2
5460 1 0.950817 -2.93542 0.02 0 0 0 1 2
5454 1 1.33034 -2.70067 0.02 0 0 0 1 2
5456 1 1.35206 -2.89076 0.02 0 0 0 1 2
5414 1 0.840357 -1.50843 0.02 0 0 0 1 2
5415 1 0.836313 -1.73208 0.02 0 0 0 1 2
5432 1 0.822981 -2.15848 0.02 0 0 0 1 2
5430 1 0.825295 -1.94759 0.02 0 0 0 1 2
5444 1 0.830524 -2.36162 0.02 0 0 0 1 2
5440 1 1.24808 -2.328 0.02 0 0 0 1 2
5443 1 1.03554 -2.33645 0.02 0 0 0 1 2
5445 1 1.0942 -2.52318 0.02 0 0 0 1 2
5446 1 0.893137 -2.5513 0.02 0 0 0 1 2
5442 1 1.29936 -2.51352 0.02 0 0 0 1 2
5390 1 1.4291 -0.889731 0.02 0 0 0 1 2
5397 1 0.828931 -1.09749 0.02 0 0 0 1 2
5439 1 1.45858 -2.31389 0.02 0 0 0 1 2
5358 1 0.94756 0.0395651 0.02 0 0 0 1 2
5359 1 0.912564 0.237385 0.02 0 0 0 1 2
5360 1 1.14912 0.0702503 0.02 0 0 0 1 2
5361 1 1.10942 0.262486 0.02 0 0 0 1 2
5362 1 1.35115 0.0800426 0.02 0 0 0 1 2
5363 1 1.3193 0.273847 0.02 0 0 0 1 2
5528 1 1.49138 5.17796 0.02 0 0 0 1 2
5537 1 1.04946 5.37955 0.02 0 0 0 1 2
5538 1 0.885966 5.58057 0.02 0 0 0 1 2
5580 1 0.958264 6.7342 0.02 0 0 0 1 2
5581 1 0.95672 6.54974 0.02 0 0 0 1 2
5568 1 1.1178 6.35423 0.02 0 0 0 1 2
5372 1 0.928513 0.437467 0.02 0 0 0 1 2
5373 1 0.949068 0.63279 0.02 0 0 0 1 2
5374 1 0.971188 0.834251 0.02 0 0 0 1 2
5375 1 1.15284 0.447179 0.02 0 0 0 1 2
5376 1 1.1525 0.632799 0.02 0 0 0 1 2
5377 1 1.17378 0.823418 0.02 0 0 0 1 2
5378 1 1.37553 0.459561 0.02 0 0 0 1 2
5379 1 1.35974 0.654789 0.02 0 0 0 1 2
5542 1 1.31252 5.58596 0.02 0 0 0 1 2
5381 1 1.37989 0.852508 0.02 0 0 0 1 2
5539 1 1.10076 5.56759 0.02 0 0 0 1 2
5582 1 1.15838 6.5517 0.02 0 0 0 1 2
5525 1 1.27937 5.00674 0.02 0 0 0 1 2
5388 1 0.834798 1.27261 0.02 0 0 0 1 2
5387 1 0.992647 1.03793 0.02 0 0 0 1 2
5389 1 1.02028 1.24564 0.02 0 0 0 1 2
5390 1 1.18764 1.02007 0.02 0 0 0 1 2
5391 1 1.20629 1.22846 0.02 0 0 0 1 2
5392 1 1.37944 1.06131 0.02 0 0 0 1 2
5393 1 1.39284 1.27811 0.02 0 0 0 1 2
5540 1 1.25954 5.39777 0.02 0 0 0 1 2
5536 1 0.84269 5.39256 0.02 0 0 0 1 2
5584 1 1.34746 6.74535 0.02 0 -2.46568e-08 1.30123e-08 1 2
5585 1 1.35692 6.56297 0.02 0 -1.30236e-10 4.90739e-11 1 2
5401 1 0.873257 1.47994 0.02 0 0 0 1 2
5402 1 1.05862 1.45902 0.02 0 0 0 1 2
5403 1 0.897556 1.69001 0.02 0 0 0 1 2
5404 1 1.08111 1.67485 0.02 0 0 0 1 2
5405 1 1.24132 1.44703 0.02 0 0 0 1 2
5407 1 1.26463 1.67125 0.02 0 0 0 1 2
5406 1 1.42519 1.4966 0.02 0 0 0 1 2
5408 1 1.44978 1.7034 0.02 0 0 0 1 2
5522 1 1.08667 5.18673 0.02 0 0 0 1 2
5526 1 1.4754 4.97869 0.02 0 0 0 1 2
5570 1 1.48623 6.15467 0.02 0 0 0 1 2
5415 1 0.943588 1.916 0.02 0 0 0 1 2
5416 1 0.976503 2.14432 0.02 0 0 0 1 2
5417 1 1.12084 1.88768 0.02 0 0 0 1 2
5418 1 1.15391 2.10474 0.02 0 0 0 1 2
5419 1 1.30048 1.89594 0.02 0 0 0 1 2
5421 1 1.33617 2.11603 0.02 0 0 0 1 2
5420 1 1.47927 1.91786 0.02 0 0 0 1 2
5521 1 0.877616 5.20376 0.02 0 0 0 1 2
5569 1 1.29732 6.18188 0.02 0 0 0 1 2
5571 1 1.31122 6.37729 0.02 0 0 0 1 2
5520 1 1.07886 4.9907 0.02 0 0 0 1 2
5558 1 1.47574 5.95868 0.02 0 0 0 1 2
5429 1 0.815041 2.5326 0.02 0 0 0 1 2
5430 1 0.830402 2.30901 0.02 0 0 0 1 2
5431 1 1.00996 2.36875 0.02 0 0 0 1 2
5432 1 0.990493 2.59423 0.02 0 0 0 1 2
5433 1 1.17099 2.53851 0.02 0 0 0 1 2
5434 1 1.18999 2.32008 0.02 0 0 0 1 2
5436 1 1.35044 2.57915 0.02 0 0 0 1 2
5435 1 1.3686 2.3479 0.02 0 0 0 1 2
5519 1 0.872612 5.01451 0.02 0 0 0 1 2
5518 1 1.08465 4.79587 0.02 0 0 0 1 2
5556 1 1.4929 5.76692 0.02 0 0 0 1 2
5579 1 1.14878 6.74121 0.02 0 -1.62377e-16 1.9159e-16 1 2
5444 1 0.802368 2.76028 0.02 0 0 0 1 2
5445 1 0.988056 2.8109 0.02 0 0 0 1 2
5446 1 0.975871 3.02846 0.02 0 0 0 1 2
5447 1 1.17618 2.75478 0.02 0 0 0 1 2
5448 1 1.15912 2.9707 0.02 0 0 0 1 2
5449 1 1.35548 2.8148 0.02 0 0 0 1 2
5452 1 1.33274 3.04024 0.02 0 0 0 1 2
5517 1 0.873233 4.82569 0.02 0 0 0 1 2
5524 1 1.28994 4.80312 0.02 0 0 0 1 2
5565 1 0.916373 6.16723 0.02 0 0 0 1 2
5566 1 1.10725 6.15029 0.02 0 0 0 1 2
5459 1 0.944343 3.23163 0.02 0 0 0 1 2
5460 1 0.914262 3.43426 0.02 0 0 0 1 2
5461 1 1.10785 3.41439 0.02 0 0 0 1 2
5462 1 1.14038 3.1994 0.02 0 0 0 1 2
5463 1 1.32795 3.24732 0.02 0 0 0 1 2
5465 1 1.2982 3.44591 0.02 0 0 0 1 2
5527 1 1.29064 5.20648 0.02 0 0 0 1 2
5466 1 1.49348 3.45689 0.02 0 0 0 1 2
5553 1 0.903995 5.96958 0.02 0 0 0 1 2
5554 1 1.09327 5.94709 0.02 0 0 0 1 2
5475 1 0.845769 3.82853 0.02 0 0 0 1 2
5473 1 0.870671 3.63127 0.02 0 0 0 1 2
5474 1 1.0784 3.6212 0.02 0 0 0 1 2
5476 1 1.04876 3.81922 0.02 0 0 0 1 2
5477 1 1.28366 3.64157 0.02 0 0 0 1 2
5479 1 1.24986 3.83413 0.02 0 0 0 1 2
5478 1 1.49048 3.66113 0.02 0 0 0 1 2
5480 1 1.44983 3.85286 0.02 0 0 0 1 2
5555 1 1.28489 5.77797 0.02 0 0 0 1 2
5551 1 0.870364 5.77175 0.02 0 0 0 1 2
5557 1 1.28291 5.97861 0.02 0 0 0 1 2
5489 1 0.816155 4.02729 0.02 0 0 0 1 2
5491 1 0.821142 4.23193 0.02 0 0 0 1 2
5490 1 1.01865 4.01573 0.02 0 0 0 1 2
5492 1 1.02003 4.21125 0.02 0 0 0 1 2
5493 1 1.22625 4.02704 0.02 0 0 0 1 2
5494 1 1.23125 4.21785 0.02 0 0 0 1 2
5495 1 1.43977 4.04433 0.02 0 0 0 1 2
5496 1 1.45405 4.22757 0.02 0 0 0 1 2
5552 1 1.07666 5.75422 0.02 0 0 0 1 2
5567 1 0.928962 6.36128 0.02 0 0 0 1 2
5504 1 0.846311 4.43587 0.02 0 0 0 1 2
5506 1 0.852825 4.63593 0.02 0 0 0 1 2
5505 1 1.04431 4.4065 0.02 0 0 0 1 2
5507 1 1.05743 4.60341 0.02 0 0 0 1 2
5508 1 1.24508 4.41157 0.02 0 0 0 1 2
5510 1 1.26967 4.60699 0.02 0 0 0 1 2
5509 1 1.44704 4.41346 0.02 0 0 0 1 2
5511 1 1.48743 4.59867 0.02 0 0 0 1 2
5541 1 1.47182 5.37684 0.02 0 0 0 1 2
1509 2 2 -10 0 0 0 0 1 5
1510 2 2.2 -10 0 0 0 0 1 5
1511 2 2.4 -10 0 0 0 0 1 5
1543 2 2 -9.8 0 0 0 0 1 5
1544 2 2.2 -9.8 0 0 0 0 1 5
1545 2 2.4 -9.8 0 0 0 0 1 5
1577 2 2 -9.6 0 0 0 0 1 5
1578 2 2.2 -9.6 0 0 0 0 1 5
1579 2 2.4 -9.6 0 0 0 0 1 5
1512 2 2.6 -10 0 0 0 0 1 5
1513 2 2.8 -10 0 0 0 0 1 5
1546 2 2.6 -9.8 0 0 0 0 1 5
1547 2 2.8 -9.8 0 0 0 0 1 5
1580 2 2.6 -9.6 0 0 0 0 1 5
1581 2 2.8 -9.6 0 0 0 0 1 5
1645 2 2 -9.2 0 0 0 0 1 5
1646 2 2.2 -9.2 0 0 0 0 1 5
1647 2 2.4 -9.2 0 0 0 0 1 5
1613 2 2.4 -9.4 0 0 0 0 1 5
1612 2 2.2 -9.4 0 0 0 0 1 5
1611 2 2 -9.4 0 0 0 0 1 5
1648 2 2.6 -9.2 0 0 0 0 1 5
1649 2 2.8 -9.2 0 0 0 0 1 5
1615 2 2.8 -9.4 0 0 0 0 1 5
1614 2 2.6 -9.4 0 0 0 0 1 5
1679 2 2 -9 0 0 0 0 1 5
1680 2 2.2 -9 0 0 0 0 1 5
1681 2 2.4 -9 0 0 0 0 1 5
1713 2 2 -8.8 0 0 0 0 1 5
1714 2 2.2 -8.8 0 0 0 0 1 5
1715 2 2.4 -8.8 0 0 0 0 1 5
1682 2 2.6 -9 0 0 0 0 1 5
1683 2 2.8 -9 0 0 0 0 1 5
1716 2 2.6 -8.8 0 0 0 0 1 5
1717 2 2.8 -8.8 0 0 0 0 1 5
1783 2 2.4 -8.4 0 0 0 0 1 5
1782 2 2.2 -8.4 0 0 0 0 1 5
1781 2 2 -8.4 0 0 0 0 1 5
1747 2 2 -8.6 0 0 0 0 1 5
1748 2 2.2 -8.6 0 0 0 0 1 5
1749 2 2.4 -8.6 0 0 0 0 1 5
1785 2 2.8 -8.4 0 0 0 0 1 5
1784 2 2.6 -8.4 0 0 0 0 1 5
1750 2 2.6 -8.6 0 0 0 0 1 5
1751 2 2.8 -8.6 0 0 0 0 1 5
1851 2 2.4 -8 0 0 0 0 1 5
1850 2 2.2 -8 0 0 0 0 1 5
1849 2 2 -8 0 0 0 0 1 5
1817 2 2.4 -8.2 0 0 0 0 1 5
1816 2 2.2 -8.2 0 0 0 0 1 5
1815 2 2 -8.2 0 0 0 0 1 5
1853 2 2.8 -8 0 0 0 0 1 5
1852 2 2.6 -8 0 0 0 0 1 5
1819 2 2.8 -8.2 0 0 0 0 1 5
1818 2 2.6 -8.2 0 0 0 0 1 5
1953 2 2.4 -7.4 0 0 0 0 0.987666 5
1952 2 2.2 -7.4 0 0 0 0 0.999709 5
1951 2 2 -7.4 0 0 0 0 0.999588 5
1919 2 2.4 -7.6 0 0 0 0 1 5
1918 2 2.2 -7.6 0 0 0 0 1 5
1917 2 2 -7.6 0 0 0 0 1 5
1885 2 2.4 -7.8 0 0 0 0 1 5
1884 2 2.2 -7.8 0 0 0 0 1 5
1883 2 2 -7.8 0 0 0 0 1 5
1955 2 2.8 -7.4 0 0 0 0 1.00163 5
1954 2 2.6 -7.4 0 0 0 0 1.01152 5
1921 2 2.8 -7.6 0 0 0 0 1 5
1920 2 2.6 -7.6 0 0 0 0 1 5
1887 2 2.8 -7.8 0 0 0 0 1 5
1886 2 2.6 -7.8 0 0 0 0 1 5
2021 2 2.4 -7 0 0 0 0 0.989779 5
2020 2 2.2 -7 0 0 0 0 0.995494 5
2019 2 2 -7 0 0 0 0 1.00148 5
1987 2 2.4 -7.2 0 0 0 0 0.988021 5
1986 2 2.2 -7.2 0 0 0 0 0.995708 5
1985 2 2 -7.2 0 0 0 0 1.00176 5
2023 2 2.8 -7 0 0 0 0 1.00447 5
2022 2 2.6 -7 0 0 0 0 1.00945 5
1989 2 2.8 -7.2 0 0 0 0 1.0044 5
1988 2 2.6 -7.2 0 0 0 0 1.01112 5
5602 1 2.23078 -6.57351 0.02 0 5.74306e-05 0.000686241 1 2
5601 1 2.20081 -6.75322 0.02 0 -0.00242998 -0.000580909 1 2
5488 1 1.99257 -6.75776 0.02 0 -0.00351487 -0.000837228 1 2
5490 1 2.03191 -6.57579 0.02 0 -3.39284e-05 0.000530994 1 2
5216 1 2.80738 -6.56461 0.02 0 -0.000521738 -5.57507e-05 1 2
5214 1 2.80188 -6.75103 0.02 0 -0.00290374 -0.000183493 1 2
5422 1 1.63024 -1.76826 0.02 0 0 0 1 2
5389 1 1.61995 -1.16358 0.02 0 0 0 1 2
5373 1 1.80699 -0.534431 0.02 0 0 0 1 2
5374 1 1.82415 -0.733221 0.02 0 0 0 1 2
5604 1 2.2073 -6.19537 0.02 0 1.04141e-05 1.8164e-05 1 2
5603 1 2.222 -6.38957 0.02 0 0.000191569 0.000204642 1 2
5502 1 2.01356 -6.39314 0.02 0 6.39582e-05 0.000108122 1 2
5504 1 2.01689 -6.20358 0.02 0 3.28491e-06 6.23637e-06 1 2
5230 1 2.82264 -6.37867 0.02 0 5.41213e-05 4.14351e-05 1 2
5388 1 1.61676 -0.94471 0.02 0 0 0 1 2
5421 1 1.65279 -2.13465 0.02 0 0 0 1 2
5231 1 2.82863 -6.19455 0.02 0 4.63076e-06 5.30759e-06 1 2
5387 1 1.81545 -1.12718 0.02 0 0 0 1 2
5420 1 1.64484 -1.95252 0.02 0 0 0 1 2
5606 1 2.2447 -5.77786 0.02 0 4.37057e-12 5.17375e-11 1 2
5605 1 2.22258 -5.98742 0.02 0 3.96677e-08 9.15499e-08 1 2
5516 1 2.03156 -6.00316 0.02 0 2.2763e-08 6.78259e-08 1 2
5518 1 2.05372 -5.79421 0.02 0 9.07011e-12 1.02588e-10 1 2
5515 1 1.85053 -5.9393 0.02 0 1.01975e-10 2.15446e-09 1 2
5517 1 1.87757 -5.73109 0.02 0 4.42299e-15 3.81807e-14 1 2
5438 1 1.67322 -2.31586 0.02 0 0 0 1 2
5585 1 1.70379 -3.7986 0.02 0 0 0 1 2
5246 1 2.83677 -6.01156 0.02 0 7.45138e-08 1.3211e-07 1 2
5247 1 2.84941 -5.82135 0.02 0 9.86713e-11 1.9364e-10 1 2
5584 1 1.6519 -3.61681 0.02 0 0 0 1 2
5115 1 2.82551 -0.183937 0.02 0 -1.71979e-30 3.18527e-31 1 2
5531 1 2.11727 -5.59044 0.02 0 0 0 1 2
5532 1 1.96277 -5.32207 0.02 0 0 0 1 2
5530 1 1.93425 -5.52818 0.02 0 0 0 1 2
5607 1 2.1488 -5.38676 0.02 0 0 0 1 2
5571 1 1.68898 -3.99128 0.02 0 0 0 1 2
5514 1 1.69449 -5.71422 0.02 0 0 0 1 2
5262 1 2.90314 -5.41693 0.02 0 0 0 1 2
5261 1 2.88773 -5.62226 0.02 0 0 0 1 2
5116 1 2.83203 -0.374342 0.02 0 -2.0989e-24 4.74188e-26 1 2
5359 1 1.97364 -0.196663 0.02 0 0 0 1 2
5609 1 2.16325 -5.17777 0.02 0 0 0 1 2
5545 1 1.96931 -4.91492 0.02 0 0 0 1 2
5608 1 2.16607 -4.96222 0.02 0 0 0 1 2
5544 1 1.97677 -5.11594 0.02 0 0 0 1 2
5512 1 1.66284 -5.93286 0.02 0 3.98101e-12 7.50541e-11 1 2
5500 1 1.64468 -6.14239 0.02 0 1.53899e-09 3.30885e-08 1 2
5277 1 2.90148 -5.00595 0.02 0 0 0 1 2
5278 1 2.90615 -4.79264 0.02 0 0 0 1 2
5276 1 2.89506 -5.21247 0.02 0 0 0 1 2
5361 1 1.98258 -0.386881 0.02 0 0 0 1 2
5362 1 1.97228 -0.00517025 0.02 0 0 0 1 2
5590 1 2.19422 -0.352175 0.02 0 0 0 1 2
5611 1 2.15511 -4.75025 0.02 0 0 0 1 2
5560 1 1.92839 -4.5189 0.02 0 0 0 1 2
5610 1 2.1351 -4.53983 0.02 0 0 0 1 2
5557 1 1.96349 -4.71341 0.02 0 0 0 1 2
5404 1 1.83418 -1.7204 0.02 0 0 0 1 2
5437 1 1.71029 -2.49806 0.02 0 0 0 1 2
5450 1 1.76088 -2.86124 0.02 0 0 0 1 2
5296 1 2.93102 -4.56671 0.02 0 0 0 1 2
5591 1 2.18427 -0.16625 0.02 0 0 0 1 2
5403 1 1.82414 -1.52567 0.02 0 0 0 1 2
5574 1 2.1126 -3.95467 0.02 0 0 0 1 2
5572 1 1.93812 -4.14475 0.02 0 0 0 1 2
5613 1 2.18104 -4.34308 0.02 0 0 0 1 2
5612 1 2.1418 -4.14849 0.02 0 0 0 1 2
5569 1 1.97044 -4.33349 0.02 0 0 0 1 2
5573 1 1.90006 -3.95745 0.02 0 0 0 1 2
5447 1 1.77334 -2.67542 0.02 0 0 0 1 2
5570 1 1.74014 -4.17818 0.02 0 0 0 1 2
5312 1 2.94598 -4.33566 0.02 0 0 0 1 2
5313 1 2.93352 -4.11035 0.02 0 0 0 1 2
5464 1 1.84335 -3.40033 0.02 0 0 0 1 2
5589 1 2.11768 -3.76213 0.02 0 0 0 1 2
5588 1 2.09266 -3.57491 0.02 0 0 0 1 2
5586 1 1.91125 -3.76735 0.02 0 0 0 1 2
5587 1 1.86908 -3.58462 0.02 0 0 0 1 2
5329 1 2.92661 -3.90146 0.02 0 -5.69268e-31 -3.7713e-31 1 2
5469 1 1.63449 -3.43006 0.02 0 0 0 1 2
5331 1 2.94432 -3.50919 0.02 0 -3.5425e-27 3.39778e-26 1 2
5559 1 1.74221 -4.36488 0.02 0 0 0 1 2
5558 1 1.72297 -4.55212 0.02 0 0 0 1 2
5463 1 2.05407 -3.3915 0.02 0 0 0 1 2
5615 1 2.26007 -3.18214 0.02 0 0 0 1 2
5614 1 2.26445 -3.37378 0.02 0 0 0 1 2
5461 1 2.04697 -3.20301 0.02 0 0 0 1 2
5345 1 2.88039 -3.13344 0.02 0 -3.4511e-23 -1.68155e-23 1 2
5344 1 2.90401 -3.32091 0.02 0 -4.56916e-28 -4.80857e-28 1 2
5462 1 1.83139 -3.21458 0.02 0 0 0 1 2
5556 1 1.76686 -4.73934 0.02 0 0 0 1 2
5133 1 2.88264 -0.755088 0.02 0 -5.92793e-25 -1.47727e-25 1 2
5448 1 1.98933 -2.65922 0.02 0 0 0 1 2
5451 1 2.07325 -3.01372 0.02 0 0 0 1 2
5600 1 2.21207 -2.80826 0.02 0 0 0 1 2
5599 1 2.19838 -2.62276 0.02 0 0 0 1 2
5449 1 1.98405 -2.84488 0.02 0 0 0 1 2
5452 1 1.8544 -3.02944 0.02 0 0 0 1 2
5212 1 2.85828 -2.75815 0.02 0 -1.91304e-21 -2.64014e-22 1 2
5213 1 2.88448 -2.94538 0.02 0 -6.52398e-22 -1.97763e-22 1 2
5542 1 1.77877 -5.11823 0.02 0 0 0 1 2
5503 1 1.83258 -6.14707 0.02 0 4.82779e-08 3.50323e-07 1 2
5132 1 2.85204 -0.565146 0.02 0 -7.63608e-24 -8.66875e-25 1 2
5371 1 2.02927 -0.773797 0.02 0 0 0 1 2
5434 1 2.12076 -2.4464 0.02 0 0 0 1 2
5433 1 2.10357 -2.26026 0.02 0 0 0 1 2
5436 1 1.91717 -2.4787 0.02 0 0 0 1 2
5435 1 1.88938 -2.28936 0.02 0 0 0 1 2
5199 1 2.85503 -2.57124 0.02 0 -4.27672e-21 5.31106e-22 1 2
5501 1 1.81451 -6.34864 0.02 0 4.25767e-06 1.72594e-05 1 2
5467 1 1.61841 -3.24257 0.02 0 0 0 1 2
5198 1 2.93427 -2.22121 0.02 0 -1.3773e-21 4.26411e-22 1 2
5386 1 1.80896 -0.928505 0.02 0 0 0 1 2
5543 1 1.75978 -4.9288 0.02 0 0 0 1 2
5372 1 2.01094 -0.58058 0.02 0 0 0 1 2
5417 1 2.06893 -1.89293 0.02 0 0 0 1 2
5416 1 2.07921 -2.07751 0.02 0 0 0 1 2
5419 1 1.86644 -2.10227 0.02 0 0 0 1 2
5418 1 1.85736 -1.91213 0.02 0 0 0 1 2
5529 1 1.76499 -5.31287 0.02 0 0 0 1 2
5177 1 2.92593 -1.84793 0.02 0 -3.41807e-24 -2.06456e-24 1 2
5178 1 2.91432 -2.03422 0.02 0 -8.26296e-23 4.88146e-23 1 2
5528 1 1.74011 -5.51011 0.02 0 0 0 1 2
5402 1 2.00885 -1.34702 0.02 0 0 0 1 2
5401 1 2.04571 -1.71031 0.02 0 0 0 1 2
5400 1 2.03926 -1.52749 0.02 0 0 0 1 2
5598 1 2.26172 -1.66929 0.02 0 0 0 1 2
5597 1 2.25083 -1.48483 0.02 0 0 0 1 2
5164 1 2.88205 -1.6625 0.02 0 -9.69919e-23 -2.82233e-23 1 2
5163 1 2.90965 -1.47339 0.02 0 -4.23124e-22 -1.95353e-23 1 2
5358 1 1.76578 -0.144019 0.02 0 0 0 1 2
5489 1 1.82933 -6.54144 0.02 0 -5.50621e-06 0.00021234 1 2
5592 1 2.21269 -0.538596 0.02 0 0 0 1 2
5596 1 2.23027 -1.30276 0.02 0 0 0 1 2
5595 1 2.2204 -1.11449 0.02 0 0 0 1 2
5594 1 2.20892 -0.921228 0.02 0 0 0 1 2
5385 1 2.01922 -1.16159 0.02 0 0 0 1 2
5384 1 2.00705 -0.96866 0.02 0 0 0 1 2
5149 1 2.90518 -1.10874 0.02 0 -1.84179e-23 9.05195e-24 1 2
5487 1 1.79996 -6.72408 0.02 0 -0.00170467 -0.000524454 1 2
5360 1 1.76719 -0.337088 0.02 0 0 0 1 2
5399 1 1.80229 -1.32622 0.02 0 0 0 1 2
5150 1 2.88512 -1.28906 0.02 0 -2.16645e-22 3.33625e-23 1 2
5148 1 2.82585 -0.938433 0.02 0 -5.73021e-27 5.56647e-27 1 2
5593 1 2.23811 -0.727348 0.02 0 0 0 1 2
5484 1 1.60919 -6.74316 0.02 0 -0.000272688 -0.000119958 1 2
5406 1 1.61362 -1.3828 0.02 0 0 0 1 2
5407 1 1.61798 -1.57847 0.02 0 0 0 1 2
5486 1 1.63078 -6.54895 0.02 0 -6.20264e-07 2.91775e-05 1 2
5498 1 1.62276 -6.34812 0.02 0 6.03521e-08 1.63689e-06 1 2
5540 1 1.57483 -5.12872 0.02 0 0 0 1 2
5376 1 1.62357 -0.729174 0.02 0 0 0 1 2
5375 1 1.60779 -0.520835 0.02 0 0 0 1 2
5465 1 1.62921 -3.05803 0.02 0 0 0 1 2
5364 1 1.55405 -0.323908 0.02 0 0 0 1 2
5365 1 1.55521 -0.132791 0.02 0 0 0 1 2
5513 1 1.51077 -5.73937 0.02 0 0 0 1 2
5526 1 1.54164 -5.5274 0.02 0 0 0 1 2
5527 1 1.56277 -5.32498 0.02 0 0 0 1 2
5541 1 1.54556 -4.9405 0.02 0 0 0 1 2
5551 1 1.56123 -4.75097 0.02 0 0 0 1 2
5554 1 1.51881 -4.56381 0.02 0 0 0 1 2
5555 1 1.51522 -4.37673 0.02 0 0 0 1 2
5567 1 1.5328 -4.19478 0.02 0 0 0 1 2
5453 1 1.55156 -2.69355 0.02 0 0 0 1 2
5455 1 1.55242 -2.88458 0.02 0 0 0 1 2
5441 1 1.50351 -2.50583 0.02 0 0 0 1 2
5371 1 1.99463 0.374789 0.02 0 0 0 1 2
5592 1 2.20011 0.205635 0.02 0 0 0 1 2
5593 1 2.19482 0.398851 0.02 0 0 0 1 2
5369 1 1.98022 0.183993 0.02 0 0 0 1 2
5591 1 2.18834 0.0193517 0.02 0 0 0 1 2
5104 1 2.80903 0.400532 0.02 0 -7.18621e-23 -7.27358e-24 1 2
5410 1 1.6299 1.68017 0.02 0 0 0 1 2
5529 1 1.67611 4.96838 0.02 0 0 0 1 2
5409 1 1.59892 1.42705 0.02 0 0 0 1 2
5103 1 2.82654 0.20342 0.02 0 -1.28931e-24 -6.44072e-25 1 2
5102 1 2.83008 0.00784958 0.02 0 0 0 1 2
489 2 2.8 9.8 0 0 0 0 1 5
5439 1 1.84545 2.25701 0.02 0 0 0 1 2
5386 1 1.99195 0.778868 0.02 0 0 0 1 2
5595 1 2.18642 0.803749 0.02 0 0 0 1 2
5594 1 2.17338 0.597528 0.02 0 0 0 1 2
5385 1 1.97377 0.577233 0.02 0 0 0 1 2
5395 1 1.57217 1.21399 0.02 0 0 0 1 2
5394 1 1.5678 1.00984 0.02 0 0 0 1 2
5426 1 1.82196 2.00815 0.02 0 0 0 1 2
5425 1 1.80285 1.76239 0.02 0 0 0 1 2
5530 1 1.71411 4.78575 0.02 0 0 0 1 2
5596 1 2.1389 1.01621 0.02 0 0 0 1 2
5399 1 1.95172 0.979853 0.02 0 0 0 1 2
5396 1 1.93135 1.18177 0.02 0 0 0 1 2
5400 1 2.10417 1.2549 0.02 0 0 0 1 2
5514 1 1.71064 4.59908 0.02 0 0 0 1 2
5533 1 1.69672 5.16103 0.02 0 0 0 1 2
5135 1 2.85417 1.23142 0.02 0 -2.39553e-22 -4.80984e-24 1 2
5136 1 2.92092 1.02477 0.02 0 -4.41186e-21 1.61034e-22 1 2
5384 1 1.79101 0.814574 0.02 0 0 0 1 2
488 2 2.6 9.8 0 0 0 0 1 5
5413 1 1.91827 1.39909 0.02 0 0 0 1 2
5412 1 1.94844 1.6367 0.02 0 0 0 1 2
5414 1 2.09256 1.49117 0.02 0 0 0 1 2
5152 1 2.8001 1.6641 0.02 0 -2.76277e-22 -8.0842e-24 1 2
5151 1 2.82387 1.44734 0.02 0 -2.41863e-22 -3.46194e-23 1 2
5382 1 1.58638 0.813736 0.02 0 0 0 1 2
5366 1 1.58972 0.42973 0.02 0 0 0 1 2
5370 1 1.79634 0.421645 0.02 0 0 0 1 2
453 2 2.4 9.6 0 0 0 0 1 5
5598 1 2.17432 2.15568 0.02 0 0 0 1 2
5597 1 2.14569 1.96881 0.02 0 0 0 1 2
5427 1 1.96984 1.90676 0.02 0 0 0 1 2
5428 1 2.11179 1.74622 0.02 0 0 0 1 2
5168 1 2.80657 1.88342 0.02 0 -2.46505e-22 3.37374e-23 1 2
5484 1 1.69832 3.71021 0.02 0 0 0 1 2
5169 1 2.85191 2.12947 0.02 0 -8.98162e-23 2.69105e-23 1 2
5482 1 1.64691 3.89312 0.02 0 0 0 1 2
452 2 2.2 9.6 0 0 0 0 1 5
420 2 2.6 9.4 0 0 0 0 1 5
5443 1 2.05537 2.43852 0.02 0 0 0 1 2
5442 1 2.00198 2.18531 0.02 0 0 0 1 2
5600 1 2.23229 2.58473 0.02 0 0 0 1 2
5599 1 2.214 2.35157 0.02 0 0 0 1 2
5441 1 1.88501 2.48853 0.02 0 0 0 1 2
5548 1 1.70475 5.55139 0.02 0 0 0 1 2
5544 1 1.67966 5.35238 0.02 0 0 0 1 2
5185 1 2.89648 2.38837 0.02 0 -2.32914e-26 2.04926e-26 1 2
421 2 2.8 9.4 0 0 0 0 1 5
455 2 2.8 9.6 0 0 0 0 1 5
5601 1 2.24765 2.85855 0.02 0 0 0 1 2
5458 1 2.07742 2.90002 0.02 0 0 0 1 2
5457 1 2.07908 2.67941 0.02 0 0 0 1 2
5454 1 1.8944 2.69905 0.02 0 0 0 1 2
5456 1 1.89577 2.90428 0.02 0 0 0 1 2
5455 1 1.71231 2.88967 0.02 0 0 0 1 2
5200 1 2.90714 2.61673 0.02 0 0 0 1 2
5201 1 2.95182 2.80835 0.02 0 0 0 1 2
5481 1 1.68389 3.51782 0.02 0 0 0 1 2
387 2 2.8 9.2 0 0 0 0 1 5
454 2 2.6 9.6 0 0 0 0 1 5
5472 1 2.08794 3.32898 0.02 0 0 0 1 2
5471 1 2.08115 3.11684 0.02 0 0 0 1 2
5468 1 1.88744 3.10494 0.02 0 0 0 1 2
5470 1 1.89762 3.3043 0.02 0 0 0 1 2
5217 1 2.81986 3.25923 0.02 0 -9.27401e-23 -1.55856e-23 1 2
5216 1 2.81723 3.0467 0.02 0 -2.73543e-24 -1.29037e-24 1 2
5512 1 1.66124 4.42752 0.02 0 0 0 1 2
5469 1 1.70268 3.31899 0.02 0 0 0 1 2
5218 1 2.85611 3.45817 0.02 0 -4.62503e-22 2.27551e-23 1 2
386 2 2.6 9.2 0 0 0 0 1 5
487 2 2.4 9.8 0 0 0 0 1 5
5488 1 2.10353 3.73255 0.02 0 0 0 1 2
5487 1 2.0791 3.5336 0.02 0 0 0 1 2
5483 1 1.88276 3.50717 0.02 0 0 0 1 2
5485 1 1.9028 3.71059 0.02 0 0 0 1 2
5486 1 1.85331 3.90715 0.02 0 0 0 1 2
5233 1 2.85457 3.65904 0.02 0 -2.8699e-22 4.04469e-23 1 2
5498 1 1.68247 4.25175 0.02 0 0 0 1 2
5497 1 1.66894 4.07529 0.02 0 0 0 1 2
5234 1 2.87802 3.8584 0.02 0 -1.19002e-22 2.01254e-23 1 2
486 2 2.2 9.8 0 0 0 0 1 5
451 2 2 9.6 0 0 0 0 1 5
5503 1 2.09729 4.29844 0.02 0 0 0 1 2
5502 1 2.12322 4.1095 0.02 0 0 0 1 2
5501 1 2.05855 3.92357 0.02 0 0 0 1 2
5499 1 1.9023 4.09809 0.02 0 0 0 1 2
5500 1 1.88539 4.28626 0.02 0 0 0 1 2
5453 1 1.71341 2.65195 0.02 0 0 0 1 2
5440 1 1.71612 2.41636 0.02 0 0 0 1 2
5250 1 2.90869 4.26103 0.02 0 -3.21727e-21 2.09765e-22 1 2
5249 1 2.92816 4.0541 0.02 0 -1.20657e-21 -2.94979e-22 1 2
485 2 2 9.8 0 0 0 0 1 5
5513 1 1.92732 4.46547 0.02 0 0 0 1 2
5602 1 2.15654 4.48345 0.02 0 0 0 1 2
5516 1 2.11115 4.66964 0.02 0 0 0 1 2
5515 1 1.90784 4.64962 0.02 0 0 0 1 2
5589 1 1.7326 6.57033 0.02 0 -2.47424e-05 -2.01946e-05 1 2
5263 1 2.9297 4.67827 0.02 0 -9.10506e-24 5.41564e-24 1 2
5467 1 1.69442 3.1084 0.02 0 0 0 1 2
5588 1 1.76233 6.75258 0.02 0 -0.00182572 0.000638378 1 2
5531 1 1.93678 4.83739 0.02 0 0 0 1 2
5603 1 2.15027 4.86388 0.02 0 0 0 1 2
5535 1 2.08863 5.04797 0.02 0 0 0 1 2
5534 1 1.90793 5.20486 0.02 0 0 0 1 2
5532 1 1.87867 5.01455 0.02 0 0 0 1 2
5280 1 2.93111 5.09763 0.02 0 -8.48812e-33 1.59887e-32 1 2
5411 1 1.76449 1.51908 0.02 0 0 0 1 2
5398 1 1.75431 1.25685 0.02 0 0 0 1 2
5281 1 2.94276 4.89028 0.02 0 -1.6474e-24 1.05778e-24 1 2
5550 1 2.1151 5.2439 0.02 0 0 0 1 2
5546 1 2.09407 5.63225 0.02 0 0 0 1 2
5545 1 2.09462 5.43574 0.02 0 0 0 1 2
5549 1 1.89799 5.59013 0.02 0 0 0 1 2
5547 1 1.88758 5.39313 0.02 0 0 0 1 2
5296 1 2.94746 5.29293 0.02 0 0 0 1 2
5295 1 2.95225 5.4855 0.02 0 0 0 1 2
5397 1 1.75901 1.02482 0.02 0 0 0 1 2
5383 1 1.7704 0.618043 0.02 0 0 0 1 2
5560 1 2.08276 6.01418 0.02 0 4.31443e-08 -2.0709e-07 1 2
5561 1 2.08334 5.82701 0.02 0 9.50127e-11 -2.62995e-10 1 2
5564 1 1.87092 5.97994 0.02 0 1.56947e-09 -6.45319e-09 1 2
5563 1 1.8846 5.78679 0.02 0 3.3782e-15 -1.03688e-14 1 2
5310 1 2.92615 5.67034 0.02 0 -8.54774e-23 1.40593e-23 1 2
5311 1 2.94472 5.85482 0.02 0 4.0326e-10 -6.71413e-10 1 2
5312 1 2.94646 6.03867 0.02 0 1.60059e-08 -2.39659e-08 1 2
5368 1 1.75882 0.234911 0.02 0 0 0 1 2
5367 1 1.76354 0.0474776 0.02 0 0 0 1 2
383 2 2 9.2 0 0 0 0 1 5
5574 1 2.06068 6.19848 0.02 0 5.10609e-06 -1.50094e-05 1 2
5575 1 2.09621 6.38483 0.02 0 0.000149409 -0.000195057 1 2
5576 1 1.86565 6.17515 0.02 0 5.64974e-07 -1.79402e-06 1 2
5578 1 1.89922 6.37779 0.02 0 3.05742e-05 -6.89649e-05 1 2
5326 1 2.88968 6.20677 0.02 0 6.05924e-07 -5.22384e-07 1 2
384 2 2.2 9.2 0 0 0 0 1 5
418 2 2.2 9.4 0 0 0 0 1 5
5327 1 2.91755 6.38119 0.02 0 6.36861e-05 -4.48497e-05 1 2
5604 1 2.13513 6.56585 0.02 0 0.000587441 -0.000806414 1 2
5587 1 1.9716 6.76034 0.02 0 -0.00354693 0.000847125 1 2
5590 1 1.9316 6.57233 0.02 0 5.4645e-05 -0.000322029 1 2
5605 1 2.17505 6.74335 0.02 0 -0.00197234 0.000279693 1 2
5341 1 2.80127 6.77591 0.02 0 -0.00200055 0.000870806 1 2
5340 1 2.95056 6.55864 0.02 0 0.000315688 -0.000231296 1 2
5577 1 1.70577 6.38128 0.02 0 1.93214e-06 -4.77584e-06 1 2
417 2 2 9.4 0 0 0 0 1 5
419 2 2.4 9.4 0 0 0 0 1 5
9 2 2 7 0 0 0 0 1.0004 5
10 2 2.2 7 0 0 0 0 0.99407 5
11 2 2.4 7 0 0 0 0 0.989258 5
43 2 2 7.2 0 0 0 0 1.00003 5
44 2 2.2 7.2 0 0 0 0 0.993998 5
45 2 2.4 7.2 0 0 0 0 0.98824 5
13 2 2.8 7 0 0 0 0 1.00342 5
46 2 2.6 7.2 0 0 0 0 1.0102 5
12 2 2.6 7 0 0 0 0 1.00955 5
47 2 2.8 7.2 0 0 0 0 1.00192 5
147 2 2.4 7.8 0 0 0 0 1 5
78 2 2.2 7.4 0 0 0 0 0.998051 5
77 2 2 7.4 0 0 0 0 0.99802 5
79 2 2.4 7.4 0 0 0 0 0.985912 5
145 2 2 7.8 0 0 0 0 1 5
113 2 2.4 7.6 0 0 0 0 1 5
112 2 2.2 7.6 0 0 0 0 1 5
146 2 2.2 7.8 0 0 0 0 1 5
111 2 2 7.6 0 0 0 0 1 5
115 2 2.8 7.6 0 0 0 0 1 5
81 2 2.8 7.4 0 0 0 0 1.00006 5
114 2 2.6 7.6 0 0 0 0 1 5
148 2 2.6 7.8 0 0 0 0 1 5
80 2 2.6 7.4 0 0 0 0 1.01025 5
149 2 2.8 7.8 0 0 0 0 1 5
179 2 2 8 0 0 0 0 1 5
215 2 2.4 8.2 0 0 0 0 1 5
214 2 2.2 8.2 0 0 0 0 1 5
213 2 2 8.2 0 0 0 0 1 5
181 2 2.4 8 0 0 0 0 1 5
180 2 2.2 8 0 0 0 0 1 5
182 2 2.6 8 0 0 0 0 1 5
217 2 2.8 8.2 0 0 0 0 1 5
216 2 2.6 8.2 0 0 0 0 1 5
183 2 2.8 8 0 0 0 0 1 5
281 2 2 8.6 0 0 0 0 1 5
282 2 2.2 8.6 0 0 0 0 1 5
283 2 2.4 8.6 0 0 0 0 1 5
247 2 2 8.4 0 0 0 0 1 5
248 2 2.2 8.4 0 0 0 0 1 5
249 2 2.4 8.4 0 0 0 0 1 5
250 2 2.6 8.4 0 0 0 0 1 5
251 2 2.8 8.4 0 0 0 0 1 5
284 2 2.6 8.6 0 0 0 0 1 5
285 2 2.8 8.6 0 0 0 0 1 5
350 2 2.2 9 0 0 0 0 1 5
349 2 2 9 0 0 0 0 1 5
317 2 2.4 8.8 0 0 0 0 1 5
316 2 2.2 8.8 0 0 0 0 1 5
315 2 2 8.8 0 0 0 0 1 5
351 2 2.4 9 0 0 0 0 1 5
353 2 2.8 9 0 0 0 0 1 5
318 2 2.6 8.8 0 0 0 0 1 5
319 2 2.8 8.8 0 0 0 0 1 5
352 2 2.6 9 0 0 0 0 1 5
385 2 2.4 9.2 0 0 0 0 1 5
5423 1 1.65412 1.92671 0.02 0 0 0 1 2
5424 1 1.68589 2.16428 0.02 0 0 0 1 2
5573 1 1.67591 6.18301 0.02 0 1.1207e-08 -4.87561e-08 1 2
5562 1 1.69064 5.7632 0.02 0 0 0 1 2
5559 1 1.67199 5.97404 0.02 0 7.10011e-12 -3.25659e-11 1 2
5364 1 1.55625 0.059238 0.02 0 0 0 1 2
5365 1 1.53293 0.249339 0.02 0 0 0 1 2
5583 1 1.55548 6.75375 0.02 0 -0.000114161 5.16415e-05 1 2
5380 1 1.56298 0.621671 0.02 0 0 0 1 2
5586 1 1.54267 6.55435 0.02 0 -1.29749e-07 1.17141e-08 1 2
5523 1 1.49725 4.7851 0.02 0 0 0 1 2
5422 1 1.50989 2.15869 0.02 0 0 0 1 2
5572 1 1.50714 6.35456 0.02 0 0 0 1 2
5437 1 1.54113 2.39116 0.02 0 0 0 1 2
5438 1 1.53185 2.60407 0.02 0 0 0 1 2
5450 1 1.54205 2.81103 0.02 0 0 0 1 2
5451 1 1.51886 3.02303 0.02 0 0 0 1 2
5464 1 1.51875 3.2457 0.02 0 0 0 1 2
5543 1 1.51247 5.57105 0.02 0 0 0 1 2
1583 2 3.2 -9.6 0 0 0 0 1 5
1582 2 3 -9.6 0 0 0 0 1 5
1549 2 3.2 -9.8 0 0 0 0 1 5
1548 2 3 -9.8 0 0 0 0 1 5
1515 2 3.2 -10 0 0 0 0 1 5
1514 2 3 -10 0 0 0 0 1 5
1584 2 3.4 -9.6 0 0 0 0 1 5
1550 2 3.4 -9.8 0 0 0 0 1 5
1516 2 3.4 -10 0 0 0 0 1 5
1586 2 3.8 -9.6 0 0 0 0 1 5
1585 2 3.6 -9.6 0 0 0 0 1 5
1552 2 3.8 -9.8 0 0 0 0 1 5
1551 2 3.6 -9.8 0 0 0 0 1 5
1518 2 3.8 -10 0 0 0 0 1 5
1517 2 3.6 -10 0 0 0 0 1 5
1588 2 4.2 -9.6 0 0 0 0 1 5
1587 2 4 -9.6 0 0 0 0 1 5
1554 2 4.2 -9.8 0 0 0 0 1 5
1553 2 4 -9.8 0 0 0 0 1 5
1520 2 4.2 -10 0 0 0 0 1 5
1519 2 4 -10 0 0 0 0 1 5
1616 2 3 -9.4 0 0 0 0 1 5
1617 2 3.2 -9.4 0 0 0 0 1 5
1651 2 3.2 -9.2 0 0 0 0 1 5
1650 2 3 -9.2 0 0 0 0 1 5
1652 2 3.4 -9.2 0 0 0 0 1 5
1618 2 3.4 -9.4 0 0 0 0 1 5
1653 2 3.6 -9.2 0 0 0 0 1 5
1654 2 3.8 -9.2 0 0 0 0 1 5
1620 2 3.8 -9.4 0 0 0 0 1 5
1619 2 3.6 -9.4 0 0 0 0 1 5
1622 2 4.2 -9.4 0 0 0 0 1 5
1655 2 4 -9.2 0 0 0 0 1 5
1656 2 4.2 -9.2 0 0 0 0 1 5
1621 2 4 -9.4 0 0 0 0 1 5
1719 2 3.2 -8.8 0 0 0 0 1 5
1718 2 3 -8.8 0 0 0 0 1 5
1685 2 3.2 -9 0 0 0 0 1 5
1684 2 3 -9 0 0 0 0 1 5
1686 2 3.4 -9 0 0 0 0 1 5
1720 2 3.4 -8.8 0 0 0 0 1 5
1687 2 3.6 -9 0 0 0 0 1 5
1688 2 3.8 -9 0 0 0 0 1 5
1721 2 3.6 -8.8 0 0 0 0 1 5
1722 2 3.8 -8.8 0 0 0 0 1 5
1689 2 4 -9 0 0 0 0 1 5
1690 2 4.2 -9 0 0 0 0 1 5
1723 2 4 -8.8 0 0 0 0 1 5
1724 2 4.2 -8.8 0 0 0 0 1 5
1752 2 3 -8.6 0 0 0 0 1 5
1753 2 3.2 -8.6 0 0 0 0 1 5