ITEM: TIMESTEP
16000
ITEM: NUMBER OF ATOMS
1426
ITEM: BOX BOUNDS ff ff pp
0.0000000000000000e+00 4.4000000000000004e+00
-1.0000000000000000e+01 1.0000000000000000e+01
-2.0000000000000000e-02 2.0000000000000000e-02
ITEM: ATOMS id type x y vx vy fx fy c_den c_phase
2921 1 0.460462 -6.55585 0.02 0 0 0 1 2
2922 1 0.425071 -6.74131 0.02 0 0 0 1 2
2923 1 0.620718 -6.73288 0.02 0 0 0 1 2
2924 1 0.817965 -6.75405 0.02 0 0 0 1 2
2925 1 0.659024 -6.55059 0.02 0 0 0 1 2
2926 1 0.847803 -6.56092 0.02 0 0 0 1 2
2927 1 1.01492 -6.73507 0.02 0 0 0 1 2
2928 1 1.20919 -6.74316 0.02 0 0 0 1 2
2929 1 1.03843 -6.5457 0.02 0 0 0 1 2
2930 1 1.23078 -6.54895 0.02 0 0 0 1 2
2931 1 1.39996 -6.72408 0.02 0 -1.00977e-08 -9.28375e-09 1 2
2835 1 1.03111 -1.09695 0.02 0 0 0 1 2
2933 1 1.42933 -6.54144 0.02 0 3.51618e-10 2.59028e-09 1 2
2834 1 1.0291 -0.889731 0.02 0 0 0 1 2
2818 1 1.42415 -0.733221 0.02 0 0 0 1 2
2817 1 1.40699 -0.534431 0.02 0 0 0 1 2
2935 1 0.474807 -6.18665 0.02 0 0 0 1 2
2936 1 0.418852 -6.37194 0.02 0 0 0 1 2
2937 1 0.626828 -6.3674 0.02 0 0 0 1 2
2938 1 0.83566 -6.36328 0.02 0 0 0 1 2
2939 1 0.676417 -6.18267 0.02 0 0 0 1 2
2940 1 0.867701 -6.16039 0.02 0 0 0 1 2
2941 1 1.03124 -6.35019 0.02 0 0 0 1 2
2942 1 1.22276 -6.34812 0.02 0 0 0 1 2
2943 1 1.05664 -6.14888 0.02 0 0 0 1 2
2944 1 1.24468 -6.14239 0.02 0 0 0 1 2
2945 1 1.41451 -6.34864 0.02 0 6.97922e-12 1.59518e-10 1 2
2833 1 1.21995 -1.16358 0.02 0 0 0 1 2
2947 1 1.43258 -6.14707 0.02 0 1.68572e-13 2.76368e-12 1 2
2832 1 1.21676 -0.94471 0.02 0 0 0 1 2
2847 1 1.42414 -1.52567 0.02 0 0 0 1 2
2848 1 1.43418 -1.7204 0.02 0 0 0 1 2
2949 1 0.48513 -5.99723 0.02 0 0 0 1 2
2950 1 0.68698 -5.98398 0.02 0 0 0 1 2
2951 1 0.534299 -5.80658 0.02 0 0 0 1 2
2952 1 0.728091 -5.77274 0.02 0 0 0 1 2
2953 1 0.879385 -5.95423 0.02 0 0 0 1 2
2954 1 0.920003 -5.75045 0.02 0 0 0 1 2
2955 1 1.07229 -5.94497 0.02 0 0 0 1 2
2956 1 1.26284 -5.93286 0.02 0 0 0 1 2
2957 1 1.11077 -5.73937 0.02 0 0 0 1 2
2958 1 1.29449 -5.71422 0.02 0 0 0 1 2
2959 1 1.45053 -5.9393 0.02 0 0 0 1 2
2842 1 0.465964 -1.29527 0.02 0 0 0 1 2
2961 1 1.47757 -5.73109 0.02 0 0 0 1 2
2841 1 0.428931 -1.09749 0.02 0 0 0 1 2
2802 1 1.36578 -0.144019 0.02 0 0 0 1 2
2810 1 0.945505 -0.114722 0.02 0 0 0 1 2
2963 1 0.539556 -5.61253 0.02 0 0 0 1 2
2964 1 0.741422 -5.56602 0.02 0 0 0 1 2
2965 1 0.546015 -5.41997 0.02 0 0 0 1 2
2966 1 0.754529 -5.36883 0.02 0 0 0 1 2
2967 1 0.553406 -5.227 0.02 0 0 0 1 2
2968 1 0.942857 -5.55149 0.02 0 0 0 1 2
2969 1 0.960864 -5.35484 0.02 0 0 0 1 2
2970 1 1.14164 -5.5274 0.02 0 0 0 1 2
2971 1 1.16277 -5.32498 0.02 0 0 0 1 2
2972 1 1.34011 -5.51011 0.02 0 0 0 1 2
2973 1 1.36499 -5.31287 0.02 0 0 0 1 2
2814 1 0.523199 -0.152884 0.02 0 0 0 1 2
2826 1 0.631913 -0.732508 0.02 0 0 0 1 2
2843 1 1.40229 -1.32622 0.02 0 0 0 1 2
2840 1 0.634297 -1.12575 0.02 0 0 0 1 2
2977 1 0.524125 -5.03675 0.02 0 0 0 1 2
2978 1 0.761658 -5.17716 0.02 0 0 0 1 2
2979 1 0.728615 -4.99135 0.02 0 0 0 1 2
2980 1 0.543795 -4.84099 0.02 0 0 0 1 2
2981 1 0.751196 -4.80092 0.02 0 0 0 1 2
2982 1 0.969719 -5.15865 0.02 0 0 0 1 2
2983 1 0.937795 -4.96681 0.02 0 0 0 1 2
2984 1 1.17483 -5.12872 0.02 0 0 0 1 2
2985 1 1.14556 -4.9405 0.02 0 0 0 1 2
2987 1 1.35978 -4.9288 0.02 0 0 0 1 2
2986 1 1.37877 -5.11823 0.02 0 0 0 1 2
2854 1 1.02553 -1.73106 0.02 0 0 0 1 2
2853 1 1.01626 -1.52623 0.02 0 0 0 1 2
2839 1 0.441402 -0.901014 0.02 0 0 0 1 2
2822 1 1.02554 -0.690232 0.02 0 0 0 1 2
2990 1 0.505095 -4.65191 0.02 0 0 0 1 2
2991 1 0.709765 -4.61708 0.02 0 0 0 1 2
2992 1 0.504194 -4.4537 0.02 0 0 0 1 2
2993 1 0.706443 -4.42822 0.02 0 0 0 1 2
2994 1 0.954894 -4.77054 0.02 0 0 0 1 2
2995 1 1.16123 -4.75097 0.02 0 0 0 1 2
2996 1 0.915644 -4.57905 0.02 0 0 0 1 2
2997 1 0.903568 -4.38703 0.02 0 0 0 1 2
2998 1 1.11881 -4.56381 0.02 0 0 0 1 2
2999 1 1.11522 -4.37673 0.02 0 0 0 1 2
3000 1 1.36686 -4.73934 0.02 0 0 0 1 2
3002 1 1.32297 -4.55212 0.02 0 0 0 1 2
3003 1 1.34221 -4.36488 0.02 0 0 0 1 2
2851 1 1.21798 -1.57847 0.02 0 0 0 1 2
2850 1 1.21362 -1.3828 0.02 0 0 0 1 2
2821 1 1.00324 -0.495489 0.02 0 0 0 1 2
2820 1 1.22357 -0.729174 0.02 0 0 0 1 2
3005 1 0.448415 -4.26376 0.02 0 0 0 1 2
3006 1 0.659943 -4.25029 0.02 0 0 0 1 2
3007 1 0.438129 -4.07443 0.02 0 0 0 1 2
3008 1 0.66461 -4.07209 0.02 0 0 0 1 2
3010 1 0.866978 -4.02467 0.02 0 0 0 1 2
3009 1 0.901555 -4.20495 0.02 0 0 0 1 2
3011 1 1.1328 -4.19478 0.02 0 0 0 1 2
3012 1 1.07399 -4.0183 0.02 0 0 0 1 2
3014 1 1.34014 -4.17818 0.02 0 0 0 1 2
3015 1 1.28898 -3.99128 0.02 0 0 0 1 2
2849 1 1.0351 -1.30639 0.02 0 0 0 1 2
2859 1 0.436313 -1.73208 0.02 0 0 0 1 2
3017 1 1.50006 -3.95745 0.02 0 0 0 1 2
2825 1 0.597146 -0.539044 0.02 0 0 0 1 2
2819 1 1.20779 -0.520835 0.02 0 0 0 1 2
2827 1 0.425891 -0.705281 0.02 0 0 0 1 2
3019 1 0.407669 -3.89035 0.02 0 0 0 1 2
3020 1 0.627439 -3.89342 0.02 0 0 0 1 2
3021 1 0.422928 -3.70246 0.02 0 0 0 1 2
3022 1 0.63132 -3.70607 0.02 0 0 0 1 2
3023 1 0.60961 -3.51178 0.02 0 0 0 1 2
3024 1 0.832437 -3.65883 0.02 0 0 0 1 2
3025 1 0.855312 -3.84291 0.02 0 0 0 1 2
3026 1 1.09121 -3.83416 0.02 0 0 0 1 2
3027 1 1.04055 -3.65631 0.02 0 0 0 1 2
3028 1 1.2519 -3.61681 0.02 0 0 0 1 2
3029 1 1.30379 -3.7986 0.02 0 0 0 1 2
3030 1 1.51125 -3.76735 0.02 0 0 0 1 2
3031 1 1.46908 -3.58462 0.02 0 0 0 1 2
2824 1 0.829907 -0.727275 0.02 0 0 0 1 2
2823 1 0.801361 -0.522502 0.02 0 0 0 1 2
2915 1 0.816048 -3.27594 0.02 0 0 0 1 2
2916 1 0.816528 -3.46983 0.02 0 0 0 1 2
2917 1 0.773932 -3.09032 0.02 0 0 0 1 2
2918 1 0.553844 -3.12678 0.02 0 0 0 1 2
2919 1 0.618167 -3.31305 0.02 0 0 0 1 2
2920 1 0.416974 -3.32049 0.02 0 0 0 1 2
2909 1 1.22921 -3.05803 0.02 0 0 0 1 2
2910 1 0.997699 -3.07923 0.02 0 0 0 1 2
2911 1 1.21841 -3.24257 0.02 0 0 0 1 2
2912 1 1.01687 -3.27108 0.02 0 0 0 1 2
2913 1 1.23449 -3.43006 0.02 0 0 0 1 2
2914 1 1.02708 -3.46596 0.02 0 0 0 1 2
2838 1 0.644055 -0.929103 0.02 0 0 0 1 2
2906 1 1.43139 -3.21458 0.02 0 0 0 1 2
2837 1 0.836057 -1.14737 0.02 0 0 0 1 2
2908 1 1.44335 -3.40033 0.02 0 0 0 1 2
2809 1 1.15521 -0.132791 0.02 0 0 0 1 2
2808 1 1.15405 -0.323908 0.02 0 0 0 1 2
2901 1 0.709968 -2.71402 0.02 0 0 0 1 2
2902 1 0.498288 -2.74803 0.02 0 0 0 1 2
2903 1 0.751155 -2.90063 0.02 0 0 0 1 2
2904 1 0.550817 -2.93542 0.02 0 0 0 1 2
2891 1 1.37334 -2.67542 0.02 0 0 0 1 2
2894 1 1.36088 -2.86124 0.02 0 0 0 1 2
2897 1 1.15156 -2.69355 0.02 0 0 0 1 2
2898 1 0.930335 -2.70067 0.02 0 0 0 1 2
2899 1 1.15242 -2.88458 0.02 0 0 0 1 2
2900 1 0.95206 -2.89076 0.02 0 0 0 1 2
2836 1 0.839543 -0.939246 0.02 0 0 0 1 2
2858 1 0.440357 -1.50843 0.02 0 0 0 1 2
2811 1 0.734962 -0.127069 0.02 0 0 0 1 2
2896 1 1.4544 -3.02944 0.02 0 0 0 1 2
2807 1 0.93925 -0.307971 0.02 0 0 0 1 2
2804 1 1.36719 -0.337088 0.02 0 0 0 1 2
2884 1 0.848081 -2.328 0.02 0 0 0 1 2
2887 1 0.635544 -2.33645 0.02 0 0 0 1 2
2888 1 0.430524 -2.36162 0.02 0 0 0 1 2
2889 1 0.694201 -2.52318 0.02 0 0 0 1 2
2890 1 0.493137 -2.5513 0.02 0 0 0 1 2
2881 1 1.31029 -2.49806 0.02 0 0 0 1 2
2882 1 1.27322 -2.31586 0.02 0 0 0 1 2
2883 1 1.05858 -2.31389 0.02 0 0 0 1 2
2885 1 1.10351 -2.50583 0.02 0 0 0 1 2
2886 1 0.899356 -2.51352 0.02 0 0 0 1 2
2812 1 0.739324 -0.325939 0.02 0 0 0 1 2
2813 1 0.543124 -0.347981 0.02 0 0 0 1 2
2879 1 1.48938 -2.28936 0.02 0 0 0 1 2
2857 1 0.625195 -1.53436 0.02 0 0 0 1 2
2869 1 0.628801 -1.74 0.02 0 0 0 1 2
2870 1 0.826895 -1.75666 0.02 0 0 0 1 2
2871 1 0.82211 -1.95058 0.02 0 0 0 1 2
2872 1 0.82586 -2.14062 0.02 0 0 0 1 2
2873 1 0.619593 -1.94213 0.02 0 0 0 1 2
2874 1 0.425295 -1.94759 0.02 0 0 0 1 2
2875 1 0.619578 -2.14153 0.02 0 0 0 1 2
2876 1 0.422981 -2.15848 0.02 0 0 0 1 2
2864 1 1.24484 -1.95252 0.02 0 0 0 1 2
2865 1 1.25279 -2.13465 0.02 0 0 0 1 2
2866 1 1.23024 -1.76826 0.02 0 0 0 1 2
2867 1 1.0294 -1.92978 0.02 0 0 0 1 2
2868 1 1.03698 -2.12238 0.02 0 0 0 1 2
2831 1 1.41545 -1.12718 0.02 0 0 0 1 2
2830 1 1.40896 -0.928505 0.02 0 0 0 1 2
2862 1 1.45736 -1.91213 0.02 0 0 0 1 2
2863 1 1.46644 -2.10227 0.02 0 0 0 1 2
2852 1 0.850121 -1.35657 0.02 0 0 0 1 2
2855 1 0.817587 -1.55807 0.02 0 0 0 1 2
2856 1 0.659517 -1.32969 0.02 0 0 0 1 2
2802 1 0.54756 0.0395651 0.02 0 0 0 1 2
2803 1 0.512564 0.237385 0.02 0 0 0 1 2
2804 1 0.749123 0.0702503 0.02 0 0 0 1 2
2805 1 0.709418 0.262486 0.02 0 0 0 1 2
2806 1 0.951151 0.0800426 0.02 0 0 0 1 2
2807 1 0.919302 0.273847 0.02 0 0 0 1 2
2808 1 1.15625 0.059238 0.02 0 0 0 1 2
2809 1 1.13293 0.249339 0.02 0 0 0 1 2
2810 1 1.18972 0.42973 0.02 0 0 0 1 2
2811 1 1.36354 0.0474776 0.02 0 0 0 1 2
2812 1 1.35882 0.234911 0.02 0 0 0 1 2
2996 1 0.676662 5.75422 0.02 0 0 0 1 2
2814 1 1.39634 0.421645 0.02 0 0 0 1 2
3001 1 0.882907 5.97861 0.02 0 0 0 1 2
3033 1 1.3326 6.57033 0.02 0 0 0 1 2
3032 1 1.36233 6.75258 0.02 0 -2.41001e-09 2.66859e-09 1 2
3030 1 1.14267 6.55435 0.02 0 0 0 1 2
2816 1 0.528513 0.437467 0.02 0 0 0 1 2
2817 1 0.549068 0.63279 0.02 0 0 0 1 2
2818 1 0.571188 0.834251 0.02 0 0 0 1 2
2819 1 0.752839 0.447179 0.02 0 0 0 1 2
2820 1 0.752499 0.632799 0.02 0 0 0 1 2
2821 1 0.773779 0.823418 0.02 0 0 0 1 2
2822 1 0.975531 0.459561 0.02 0 0 0 1 2
2823 1 0.959737 0.654789 0.02 0 0 0 1 2
2824 1 1.16298 0.621671 0.02 0 0 0 1 2
2825 1 0.979892 0.852508 0.02 0 0 0 1 2
2826 1 1.18638 0.813736 0.02 0 0 0 1 2
2827 1 1.3704 0.618043 0.02 0 0 0 1 2
2828 1 1.39101 0.814574 0.02 0 0 0 1 2
2995 1 0.470364 5.77175 0.02 0 0 0 1 2
2999 1 0.884892 5.77797 0.02 0 0 0 1 2
3029 1 0.95692 6.56297 0.02 0 0 0 1 2
3028 1 0.947457 6.74535 0.02 0 0 0 1 2
2831 1 0.592647 1.03793 0.02 0 0 0 1 2
2832 1 0.434798 1.27261 0.02 0 0 0 1 2
2833 1 0.620283 1.24564 0.02 0 0 0 1 2
2834 1 0.787636 1.02007 0.02 0 0 0 1 2
2835 1 0.806286 1.22846 0.02 0 0 0 1 2
2836 1 0.97944 1.06131 0.02 0 0 0 1 2
2837 1 0.992836 1.27811 0.02 0 0 0 1 2
2838 1 1.1678 1.00984 0.02 0 0 0 1 2
2839 1 1.17217 1.21399 0.02 0 0 0 1 2
2841 1 1.35901 1.02482 0.02 0 0 0 1 2
2842 1 1.35431 1.25685 0.02 0 0 0 1 2
3000 1 1.0929 5.76692 0.02 0 0 0 1 2
2993 1 1.49799 5.59013 0.02 0 0 0 1 2
3020 1 1.46565 6.17515 0.02 0 1.24962e-14 -6.80021e-14 1 2
3027 1 1.15548 6.75375 0.02 0 0 0 1 2
2845 1 0.473257 1.47994 0.02 0 0 0 1 2
2846 1 0.658615 1.45902 0.02 0 0 0 1 2
2847 1 0.497556 1.69001 0.02 0 0 0 1 2
2848 1 0.681105 1.67485 0.02 0 0 0 1 2
2849 1 0.841316 1.44703 0.02 0 0 0 1 2
2851 1 0.864628 1.67125 0.02 0 0 0 1 2
2850 1 1.02519 1.4966 0.02 0 0 0 1 2
2852 1 1.04978 1.7034 0.02 0 0 0 1 2
2853 1 1.19892 1.42705 0.02 0 0 0 1 2
2854 1 1.2299 1.68017 0.02 0 0 0 1 2
2855 1 1.36449 1.51908 0.02 0 0 0 1 2
2991 1 1.48758 5.39313 0.02 0 0 0 1 2
3002 1 1.07574 5.95868 0.02 0 0 0 1 2
3021 1 1.30577 6.38128 0.02 0 0 0 1 2
2859 1 0.543588 1.916 0.02 0 0 0 1 2
2860 1 0.576503 2.14432 0.02 0 0 0 1 2
2861 1 0.720844 1.88768 0.02 0 0 0 1 2
2862 1 0.753906 2.10474 0.02 0 0 0 1 2
2863 1 0.900482 1.89594 0.02 0 0 0 1 2
2864 1 1.07927 1.91786 0.02 0 0 0 1 2
2865 1 0.936173 2.11603 0.02 0 0 0 1 2
2866 1 1.10989 2.15869 0.02 0 0 0 1 2
2867 1 1.25412 1.92671 0.02 0 0 0 1 2
2868 1 1.28589 2.16428 0.02 0 0 0 1 2
2869 1 1.40285 1.76239 0.02 0 0 0 1 2
2870 1 1.42196 2.00815 0.02 0 0 0 1 2
3003 1 1.27199 5.97404 0.02 0 0 0 1 2
3017 1 1.27591 6.18301 0.02 0 0 0 1 2
3026 1 0.758383 6.5517 0.02 0 0 0 1 2
3025 1 0.55672 6.54974 0.02 0 0 0 1 2
2873 1 0.415041 2.5326 0.02 0 0 0 1 2
2874 1 0.430402 2.30901 0.02 0 0 0 1 2
2875 1 0.609958 2.36875 0.02 0 0 0 1 2
2876 1 0.590493 2.59423 0.02 0 0 0 1 2
2877 1 0.77099 2.53851 0.02 0 0 0 1 2
2878 1 0.789993 2.32008 0.02 0 0 0 1 2
2879 1 0.968599 2.3479 0.02 0 0 0 1 2
2880 1 0.950445 2.57915 0.02 0 0 0 1 2
2881 1 1.14113 2.39116 0.02 0 0 0 1 2
2882 1 1.13185 2.60407 0.02 0 0 0 1 2
2884 1 1.31612 2.41636 0.02 0 0 0 1 2
2883 1 1.44545 2.25701 0.02 0 0 0 1 2
2885 1 1.48501 2.48853 0.02 0 0 0 1 2
2998 1 0.693274 5.94709 0.02 0 0 0 1 2
2997 1 0.503995 5.96958 0.02 0 0 0 1 2
3024 1 0.558264 6.7342 0.02 0 0 0 1 2
2992 1 1.30475 5.55139 0.02 0 0 0 1 2
2888 1 0.402368 2.76028 0.02 0 0 0 1 2
2889 1 0.588056 2.8109 0.02 0 0 0 1 2
2890 1 0.575871 3.02846 0.02 0 0 0 1 2
2891 1 0.776177 2.75478 0.02 0 0 0 1 2
2892 1 0.75912 2.9707 0.02 0 0 0 1 2
2893 1 0.955482 2.8148 0.02 0 0 0 1 2
2894 1 1.14205 2.81103 0.02 0 0 0 1 2
2895 1 1.11886 3.02303 0.02 0 0 0 1 2
2896 1 0.932743 3.04024 0.02 0 0 0 1 2
2897 1 1.31341 2.65195 0.02 0 0 0 1 2
2899 1 1.31231 2.88967 0.02 0 0 0 1 2
2898 1 1.4944 2.69905 0.02 0 0 0 1 2
2900 1 1.49577 2.90428 0.02 0 0 0 1 2
3016 1 1.10714 6.35456 0.02 0 0 0 1 2
3015 1 0.911217 6.37729 0.02 0 0 0 1 2
2988 1 1.27966 5.35238 0.02 0 0 0 1 2
2903 1 0.544343 3.23163 0.02 0 0 0 1 2
2904 1 0.514262 3.43426 0.02 0 0 0 1 2
2905 1 0.707846 3.41439 0.02 0 0 0 1 2
2906 1 0.740375 3.1994 0.02 0 0 0 1 2
2907 1 0.927948 3.24732 0.02 0 0 0 1 2
2908 1 1.11875 3.2457 0.02 0 0 0 1 2
2909 1 0.898201 3.44591 0.02 0 0 0 1 2
2910 1 1.09348 3.45689 0.02 0 0 0 1 2
2911 1 1.29442 3.1084 0.02 0 0 0 1 2
2913 1 1.30268 3.31899 0.02 0 0 0 1 2
2912 1 1.48744 3.10494 0.02 0 0 0 1 2
2914 1 1.49762 3.3043 0.02 0 0 0 1 2
3014 1 1.08623 6.15467 0.02 0 0 0 1 2
3013 1 0.897318 6.18188 0.02 0 0 0 1 2
2917 1 0.470671 3.63127 0.02 0 0 0 1 2
2918 1 0.678403 3.6212 0.02 0 0 0 1 2
2919 1 0.445769 3.82853 0.02 0 0 0 1 2
2920 1 0.648764 3.81922 0.02 0 0 0 1 2
2921 1 0.883655 3.64157 0.02 0 0 0 1 2
2923 1 0.849857 3.83413 0.02 0 0 0 1 2
2922 1 1.09048 3.66113 0.02 0 0 0 1 2
2924 1 1.04983 3.85286 0.02 0 0 0 1 2
2925 1 1.28389 3.51782 0.02 0 0 0 1 2
2926 1 1.24691 3.89312 0.02 0 0 0 1 2
2928 1 1.29832 3.71021 0.02 0 0 0 1 2
2927 1 1.48276 3.50717 0.02 0 0 0 1 2
2929 1 1.5028 3.71059 0.02 0 0 0 1 2
2930 1 1.45331 3.90715 0.02 0 0 0 1 2
3012 1 0.717798 6.35423 0.02 0 0 0 1 2
3011 1 0.528962 6.36128 0.02 0 0 0 1 2
2933 1 0.416155 4.02729 0.02 0 0 0 1 2
2934 1 0.618646 4.01573 0.02 0 0 0 1 2
2935 1 0.421142 4.23193 0.02 0 0 0 1 2
2936 1 0.620026 4.21125 0.02 0 0 0 1 2
2937 1 0.82625 4.02704 0.02 0 0 0 1 2
2938 1 0.831246 4.21785 0.02 0 0 0 1 2
2939 1 1.03977 4.04433 0.02 0 0 0 1 2
2940 1 1.05405 4.22757 0.02 0 0 0 1 2
2941 1 1.26894 4.07529 0.02 0 0 0 1 2
2942 1 1.28247 4.25175 0.02 0 0 0 1 2
2943 1 1.5023 4.09809 0.02 0 0 0 1 2
2944 1 1.48539 4.28626 0.02 0 0 0 1 2
3010 1 0.707249 6.15029 0.02 0 0 0 1 2
3009 1 0.516373 6.16723 0.02 0 0 0 1 2
3008 1 1.47092 5.97994 0.02 0 0 0 1 2
2948 1 0.446311 4.43587 0.02 0 0 0 1 2
2949 1 0.644314 4.4065 0.02 0 0 0 1 2
2950 1 0.452825 4.63593 0.02 0 0 0 1 2
2951 1 0.657428 4.60341 0.02 0 0 0 1 2
2952 1 0.84508 4.41157 0.02 0 0 0 1 2
2954 1 0.869674 4.60699 0.02 0 0 0 1 2
2953 1 1.04704 4.41346 0.02 0 0 0 1 2
2955 1 1.08743 4.59867 0.02 0 0 0 1 2
2956 1 1.26124 4.42752 0.02 0 0 0 1 2
2958 1 1.31064 4.59908 0.02 0 0 0 1 2
2987 1 1.11247 5.57105 0.02 0 0 0 1 2
2959 1 1.50784 4.64962 0.02 0 0 0 1 2
3007 1 1.4846 5.78679 0.02 0 0 0 1 2
3023 1 0.748779 6.74121 0.02 0 0 0 1 2
2961 1 0.473233 4.82569 0.02 0 0 0 1 2
2962 1 0.684649 4.79587 0.02 0 0 0 1 2
2963 1 0.472612 5.01451 0.02 0 0 0 1 2
2964 1 0.678861 4.9907 0.02 0 0 0 1 2
2965 1 0.477616 5.20376 0.02 0 0 0 1 2
2966 1 0.686668 5.18673 0.02 0 0 0 1 2
2969 1 0.879369 5.00674 0.02 0 0 0 1 2
2967 1 1.09725 4.7851 0.02 0 0 0 1 2
2968 1 0.889943 4.80312 0.02 0 0 0 1 2
2970 1 1.0754 4.97869 0.02 0 0 0 1 2
2971 1 0.890642 5.20648 0.02 0 0 0 1 2
2972 1 1.09138 5.17796 0.02 0 0 0 1 2
2973 1 1.27611 4.96838 0.02 0 0 0 1 2
2974 1 1.31411 4.78575 0.02 0 0 0 1 2
2977 1 1.29672 5.16103 0.02 0 0 0 1 2
2986 1 0.912518 5.58596 0.02 0 0 0 1 2
2976 1 1.47867 5.01455 0.02 0 0 0 1 2
2978 1 1.50793 5.20486 0.02 0 0 0 1 2
3006 1 1.29064 5.7632 0.02 0 0 0 1 2
3022 1 1.49922 6.37779 0.02 0 3.68057e-12 -9.3643e-12 1 2
2980 1 0.44269 5.39256 0.02 0 0 0 1 2
2981 1 0.649463 5.37955 0.02 0 0 0 1 2
2982 1 0.485966 5.58057 0.02 0 0 0 1 2
2983 1 0.700763 5.56759 0.02 0 0 0 1 2
2984 1 0.85954 5.39777 0.02 0 0 0 1 2
2985 1 1.07182 5.37684 0.02 0 0 0 1 2
1509 2 2 -10 0 0 0 0 1 5
1510 2 2.2 -10 0 0 0 0 1 5
1511 2 2.4 -10 0 0 0 0 1 5
1543 2 2 -9.8 0 0 0 0 1 5
1544 2 2.2 -9.8 0 0 0 0 1 5
1545 2 2.4 -9.8 0 0 0 0 1 5
1577 2 2 -9.6 0 0 0 0 1 5
1578 2 2.2 -9.6 0 0 0 0 1 5
1579 2 2.4 -9.6 0 0 0 0 1 5
1512 2 2.6 -10 0 0 0 0 1 5
1513 2 2.8 -10 0 0 0 0 1 5
1546 2 2.6 -9.8 0 0 0 0 1 5
1547 2 2.8 -9.8 0 0 0 0 1 5
1580 2 2.6 -9.6 0 0 0 0 1 5
1581 2 2.8 -9.6 0 0 0 0 1 5
1645 2 2 -9.2 0 0 0 0 1 5
1646 2 2.2 -9.2 0 0 0 0 1 5
1647 2 2.4 -9.2 0 0 0 0 1 5
1613 2 2.4 -9.4 0 0 0 0 1 5
1612 2 2.2 -9.4 0 0 0 0 1 5
1611 2 2 -9.4 0 0 0 0 1 5
1648 2 2.6 -9.2 0 0 0 0 1 5
1649 2 2.8 -9.2 0 0 0 0 1 5
1615 2 2.8 -9.4 0 0 0 0 1 5
1614 2 2.6 -9.4 0 0 0 0 1 5
1679 2 2 -9 0 0 0 0 1 5
1680 2 2.2 -9 0 0 0 0 1 5
1681 2 2.4 -9 0 0 0 0 1 5
1713 2 2 -8.8 0 0 0 0 1 5
1714 2 2.2 -8.8 0 0 0 0 1 5
1715 2 2.4 -8.8 0 0 0 0 1 5
1682 2 2.6 -9 0 0 0 0 1 5
1683 2 2.8 -9 0 0 0 0 1 5
1716 2 2.6 -8.8 0 0 0 0 1 5
1717 2 2.8 -8.8 0 0 0 0 1 5
1783 2 2.4 -8.4 0 0 0 0 1 5
1782 2 2.2 -8.4 0 0 0 0 1 5
1781 2 2 -8.4 0 0 0 0 1 5
1747 2 2 -8.6 0 0 0 0 1 5
1748 2 2.2 -8.6 0 0 0 0 1 5
1749 2 2.4 -8.6 0 0 0 0 1 5
1785 2 2.8 -8.4 0 0 0 0 1 5
1784 2 2.6 -8.4 0 0 0 0 1 5
1750 2 2.6 -8.6 0 0 0 0 1 5
1751 2 2.8 -8.6 0 0 0 0 1 5
1851 2 2.4 -8 0 0 0 0 1 5
1850 2 2.2 -8 0 0 0 0 1 5
1849 2 2 -8 0 0 0 0 1 5
1817 2 2.4 -8.2 0 0 0 0 1 5
1816 2 2.2 -8.2 0 0 0 0 1 5
1815 2 2 -8.2 0 0 0 0 1 5
1853 2 2.8 -8 0 0 0 0 1 5
1852 2 2.6 -8 0 0 0 0 1 5
1819 2 2.8 -8.2 0 0 0 0 1 5
1818 2 2.6 -8.2 0 0 0 0 1 5
1953 2 2.4 -7.4 0 0 0 0 1.00163 5
1952 2 2.2 -7.4 0 0 0 0 1.01154 5
1951 2 2 -7.4 0 0 0 0 0.992187 5
1919 2 2.4 -7.6 0 0 0 0 1 5
1918 2 2.2 -7.6 0 0 0 0 1 5
1917 2 2 -7.6 0 0 0 0 1 5
1885 2 2.4 -7.8 0 0 0 0 1 5
1884 2 2.2 -7.8 0 0 0 0 1 5
1883 2 2 -7.8 0 0 0 0 1 5
1955 2 2.8 -7.4 0 0 0 0 1.00853 5
1954 2 2.6 -7.4 0 0 0 0 0.999832 5
1921 2 2.8 -7.6 0 0 0 0 1 5
1920 2 2.6 -7.6 0 0 0 0 1 5
1887 2 2.8 -7.8 0 0 0 0 1 5
1886 2 2.6 -7.8 0 0 0 0 1 5
2021 2 2.4 -7 0 0 0 0 1.00447 5
2020 2 2.2 -7 0 0 0 0 1.0101 5
2019 2 2 -7 0 0 0 0 0.995134 5
1987 2 2.4 -7.2 0 0 0 0 1.0044 5
1986 2 2.2 -7.2 0 0 0 0 1.01136 5
1985 2 2 -7.2 0 0 0 0 0.992959 5
2023 2 2.8 -7 0 0 0 0 1.00034 5
2022 2 2.6 -7 0 0 0 0 0.999949 5
1989 2 2.8 -7.2 0 0 0 0 1.00121 5
1988 2 2.6 -7.2 0 0 0 0 0.999274 5
2661 1 2.60799 -6.57203 0.02 0 0.000270518 0.000424434 1 2
2660 1 2.40738 -6.56461 0.02 0 -0.000519886 -5.43626e-05 1 2
2658 1 2.40188 -6.75103 0.02 0 -0.00285901 -0.00017328 1 2
2659 1 2.598 -6.76478 0.02 0 -0.00302914 -0.000303941 1 2
2664 1 2.81949 -6.55761 0.02 0 0.000141748 0.000490213 1 2
2662 1 2.79364 -6.72967 0.02 0 -0.00218404 -0.000397654 1 2
2846 1 1.60885 -1.34702 0.02 0 0 0 1 2
2845 1 1.64571 -1.71031 0.02 0 0 0 1 2
3037 1 1.83811 -0.727348 0.02 0 0 0 1 2
3036 1 1.81269 -0.538596 0.02 0 0 0 1 2
2676 1 2.62075 -6.38701 0.02 0 0.000156498 0.00017145 1 2
2677 1 2.65753 -6.20618 0.02 0 1.24402e-05 2.3317e-05 1 2
2674 1 2.42264 -6.37867 0.02 0 5.41569e-05 4.14636e-05 1 2
2675 1 2.42863 -6.19455 0.02 0 4.63431e-06 5.31162e-06 1 2
2678 1 2.82927 -6.38021 0.02 0 9.60516e-05 0.000147086 1 2
2844 1 1.63926 -1.52749 0.02 0 0 0 1 2
2861 1 1.66893 -1.89293 0.02 0 0 0 1 2
2680 1 2.87547 -6.19941 0.02 0 7.13908e-06 1.8193e-05 1 2
3040 1 1.83027 -1.30276 0.02 0 0 0 1 2
2860 1 1.67921 -2.07751 0.02 0 0 0 1 2
2692 1 2.64081 -6.02146 0.02 0 1.22242e-07 3.3749e-07 1 2
2693 1 2.65668 -5.82821 0.02 0 1.39925e-10 5.17818e-10 1 2
2690 1 2.43677 -6.01156 0.02 0 7.4568e-08 1.32208e-07 1 2
2691 1 2.44941 -5.82135 0.02 0 9.86814e-11 1.9366e-10 1 2
2892 1 1.58933 -2.65922 0.02 0 0 0 1 2
2878 1 1.72076 -2.4464 0.02 0 0 0 1 2
2694 1 2.84489 -6.01249 0.02 0 5.1815e-08 1.86151e-07 1 2
2696 1 2.8685 -5.82207 0.02 0 6.59745e-11 3.09468e-10 1 2
2877 1 1.70357 -2.26026 0.02 0 0 0 1 2
3039 1 1.8204 -1.11449 0.02 0 0 0 1 2
2707 1 2.67627 -5.62507 0.02 0 0 0 1 2
2708 1 2.69141 -5.40769 0.02 0 0 0 1 2
2706 1 2.50314 -5.41693 0.02 0 0 0 1 2
2705 1 2.48773 -5.62226 0.02 0 0 0 1 2
2895 1 1.67325 -3.01372 0.02 0 0 0 1 2
3033 1 1.71768 -3.76213 0.02 0 0 0 1 2
2709 1 2.86666 -5.62812 0.02 0 0 0 1 2
2710 1 2.87833 -5.42473 0.02 0 0 0 1 2
3038 1 1.80892 -0.921228 0.02 0 0 0 1 2
2555 1 2.85118 -0.150124 0.02 0 -1.45498e-21 -3.47491e-22 1 2
2723 1 2.68436 -5.19237 0.02 0 0 0 1 2
2724 1 2.68794 -4.97876 0.02 0 0 0 1 2
2721 1 2.50148 -5.00595 0.02 0 0 0 1 2
2722 1 2.50615 -4.79264 0.02 0 0 0 1 2
2720 1 2.49506 -5.21247 0.02 0 0 0 1 2
3032 1 1.69266 -3.57491 0.02 0 0 0 1 2
3018 1 1.7126 -3.95467 0.02 0 0 0 1 2
2975 1 1.71727 -5.59044 0.02 0 0 0 1 2
2725 1 2.87194 -5.21301 0.02 0 0 0 1 2
2726 1 2.87599 -5.00124 0.02 0 0 0 1 2
2727 1 2.8799 -4.79077 0.02 0 -1.73037e-38 -5.23209e-38 1 2
3042 1 1.86172 -1.66929 0.02 0 0 0 1 2
3041 1 1.85083 -1.48483 0.02 0 0 0 1 2
2741 1 2.69152 -4.76728 0.02 0 0 0 1 2
2742 1 2.71847 -4.56208 0.02 0 -1.75411e-26 -1.75016e-26 1 2
2745 1 2.72538 -4.3542 0.02 0 -1.31551e-24 -7.38683e-25 1 2
2740 1 2.53102 -4.56671 0.02 0 0 0 1 2
2743 1 2.90699 -4.58159 0.02 0 -4.2899e-26 -1.01457e-25 1 2
2744 1 2.90834 -4.36739 0.02 0 -2.35005e-24 -3.23457e-24 1 2
3035 1 1.78427 -0.16625 0.02 0 0 0 1 2
2557 1 2.85075 -0.340669 0.02 0 -3.63169e-22 -1.43662e-22 1 2
3044 1 1.81207 -2.80826 0.02 0 0 0 1 2
3043 1 1.79838 -2.62276 0.02 0 0 0 1 2
2758 1 2.7193 -4.14028 0.02 0 -1.08145e-23 -3.54661e-24 1 2
2761 1 2.72337 -3.93002 0.02 0 -3.53289e-23 -3.21396e-24 1 2
2756 1 2.54598 -4.33566 0.02 0 -7.22204e-26 -1.22559e-26 1 2
2757 1 2.53352 -4.11035 0.02 0 -4.13034e-25 -3.50638e-26 1 2
3050 1 1.8447 -5.77786 0.02 0 -1.17463e-12 4.74423e-12 1 2
2759 1 2.90752 -4.15041 0.02 0 -2.82716e-23 -1.99748e-23 1 2
2760 1 2.91997 -3.93899 0.02 0 -1.52887e-22 -5.59582e-23 1 2
3049 1 1.82258 -5.98742 0.02 0 1.1404e-10 5.84684e-10 1 2
3048 1 1.8073 -6.19537 0.02 0 8.05588e-08 2.99221e-07 1 2
2560 1 2.43203 -0.374342 0.02 0 -5.3968e-33 -1.2885e-33 1 2
2559 1 2.42551 -0.183937 0.02 0 -2.5376e-28 -1.93481e-29 1 2
2773 1 2.52661 -3.90146 0.02 0 -7.44154e-25 2.3453e-26 1 2
2774 1 2.56233 -3.70395 0.02 0 -1.18387e-24 5.86632e-26 1 2
2775 1 2.54432 -3.50919 0.02 0 -2.56515e-25 -1.26034e-26 1 2
2776 1 2.76267 -3.72787 0.02 0 -7.92206e-23 -3.65554e-25 1 2
2777 1 2.75121 -3.52483 0.02 0 -7.84219e-23 5.15689e-24 1 2
2778 1 2.96004 -3.73352 0.02 0 -2.63177e-21 -1.23252e-21 1 2
2779 1 2.95368 -3.52944 0.02 0 -7.55092e-21 -2.86204e-22 1 2
3057 1 1.78104 -4.34308 0.02 0 0 0 1 2
3056 1 1.7418 -4.14849 0.02 0 0 0 1 2
2789 1 2.48039 -3.13344 0.02 0 0 0 1 2
2788 1 2.50401 -3.32091 0.02 0 -1.26196e-28 6.05187e-30 1 2
2791 1 2.69398 -3.13712 0.02 0 -9.74236e-26 5.77439e-26 1 2
2790 1 2.71727 -3.32802 0.02 0 -8.99454e-24 2.40397e-24 1 2
2792 1 2.92373 -3.32974 0.02 0 -3.22733e-21 6.9886e-22 1 2
2793 1 2.90581 -3.13265 0.02 0 -6.07146e-22 2.17536e-22 1 2
3047 1 1.822 -6.38957 0.02 0 -5.5062e-06 2.50265e-05 1 2
3055 1 1.75511 -4.75025 0.02 0 0 0 1 2
2558 1 2.64088 -0.358137 0.02 0 -3.90735e-25 -8.05426e-26 1 2
2656 1 2.45828 -2.75815 0.02 0 -3.11298e-27 -1.06479e-28 1 2
2657 1 2.48448 -2.94538 0.02 0 -1.49592e-27 -2.76008e-28 1 2
2655 1 2.69896 -2.94882 0.02 0 -4.84092e-24 -1.53729e-24 1 2
2654 1 2.66818 -2.76179 0.02 0 -6.96517e-24 -1.09836e-24 1 2
3046 1 1.83078 -6.57351 0.02 0 -0.00035964 0.00021075 1 2
2653 1 2.90959 -2.93779 0.02 0 -9.86442e-22 -4.74874e-22 1 2
2652 1 2.87313 -2.74438 0.02 0 -1.92214e-21 -3.87259e-22 1 2
3045 1 1.80081 -6.75322 0.02 0 -0.00172042 -0.000439821 1 2
2556 1 2.63826 -0.165014 0.02 0 -1.23243e-24 -1.06605e-25 1 2
2572 1 2.8577 -0.531385 0.02 0 -1.16741e-22 6.27758e-24 1 2
2643 1 2.45503 -2.57124 0.02 0 -2.17816e-26 3.34132e-27 1 2
2640 1 2.67556 -2.57231 0.02 0 -1.77581e-23 -1.53584e-25 1 2
2641 1 2.59847 -2.39668 0.02 0 -1.85291e-24 4.03836e-25 1 2
2642 1 2.53427 -2.22121 0.02 0 -3.17666e-27 6.90454e-28 1 2
2638 1 2.81666 -2.37455 0.02 0 -6.32217e-22 1.17804e-22 1 2
2637 1 2.75424 -2.20027 0.02 0 -5.16017e-23 1.67957e-23 1 2
2636 1 2.97796 -2.1794 0.02 0 -1.60853e-21 8.24847e-22 1 2
2907 1 1.65407 -3.3915 0.02 0 0 0 1 2
2639 1 2.88939 -2.55211 0.02 0 -3.62445e-21 1.19088e-22 1 2
3059 1 1.86007 -3.18214 0.02 0 0 0 1 2
2576 1 2.45204 -0.565146 0.02 0 -2.38382e-32 3.94159e-34 1 2
2577 1 2.48264 -0.755088 0.02 0 -1.03358e-26 9.66306e-28 1 2
3058 1 1.86445 -3.37378 0.02 0 0 0 1 2
2620 1 2.72354 -2.0199 0.02 0 -9.04667e-25 2.08038e-25 1 2
2621 1 2.52593 -1.84793 0.02 0 -1.83269e-28 1.71029e-29 1 2
2622 1 2.51432 -2.03422 0.02 0 -6.71957e-28 -3.54164e-29 1 2
2618 1 2.75434 -1.83786 0.02 0 -5.29576e-25 1.41467e-25 1 2
3054 1 1.7351 -4.53983 0.02 0 0 0 1 2
3053 1 1.76325 -5.17777 0.02 0 0 0 1 2
2617 1 2.97221 -1.8133 0.02 0 -4.44007e-22 1.57985e-23 1 2
2619 1 2.94069 -1.99759 0.02 0 -9.30016e-23 5.46081e-23 1 2
2608 1 2.48205 -1.6625 0.02 0 0 0 1 2
2607 1 2.50965 -1.47339 0.02 0 -1.27313e-28 -2.39898e-29 1 2
2604 1 2.72041 -1.4745 0.02 0 -5.01517e-25 -2.83115e-25 1 2
2606 1 2.68749 -1.66249 0.02 0 -7.90392e-27 9.75574e-28 1 2
2574 1 2.90615 -0.714121 0.02 0 -1.03484e-21 3.48788e-22 1 2
2575 1 2.69314 -0.744506 0.02 0 -6.00741e-24 1.79132e-24 1 2
2573 1 2.65535 -0.55326 0.02 0 -1.95741e-25 8.89634e-26 1 2
3052 1 1.76607 -4.96222 0.02 0 0 0 1 2
2605 1 2.90052 -1.63365 0.02 0 -7.80611e-23 2.11924e-23 1 2
2603 1 2.9241 -1.44213 0.02 0 -2.14142e-22 -1.09074e-22 1 2
2593 1 2.50518 -1.10874 0.02 0 -4.09819e-26 -4.48704e-27 1 2
2587 1 2.64902 -0.932889 0.02 0 -7.40677e-24 9.91661e-25 1 2
2591 1 2.70252 -1.28735 0.02 0 -6.02741e-24 -2.61426e-24 1 2
2589 1 2.73498 -1.10321 0.02 0 -5.10225e-23 -7.13422e-24 1 2
2594 1 2.48512 -1.28906 0.02 0 -8.67292e-28 -5.55701e-29 1 2
2592 1 2.42585 -0.938433 0.02 0 -2.20605e-29 -1.51372e-30 1 2
2586 1 2.87241 -0.897504 0.02 0 -1.22647e-21 9.64845e-23 1 2
2588 1 2.94724 -1.06708 0.02 0 -3.95077e-21 -4.6209e-22 1 2
2590 1 2.92406 -1.2545 0.02 0 -1.08453e-21 -4.40732e-22 1 2
3051 1 1.7488 -5.38676 0.02 0 0 0 1 2
3034 1 1.79422 -0.352175 0.02 0 0 0 1 2
2932 1 1.59257 -6.75776 0.02 0 -0.000111231 -8.60346e-05 1 2
2829 1 1.61922 -1.16159 0.02 0 0 0 1 2
2828 1 1.60705 -0.96866 0.02 0 0 0 1 2
2934 1 1.63191 -6.57579 0.02 0 -9.0188e-08 3.14456e-05 1 2
2946 1 1.61356 -6.39314 0.02 0 9.39871e-08 2.19681e-06 1 2
2948 1 1.61689 -6.20358 0.02 0 1.17096e-09 4.07729e-08 1 2
2960 1 1.63156 -6.00316 0.02 0 0 0 1 2
2962 1 1.65372 -5.79421 0.02 0 0 0 1 2
2816 1 1.61094 -0.58058 0.02 0 0 0 1 2
2815 1 1.62927 -0.773797 0.02 0 0 0 1 2
2905 1 1.64697 -3.20301 0.02 0 0 0 1 2
2806 1 1.57228 -0.00517025 0.02 0 0 0 1 2
2805 1 1.58258 -0.386881 0.02 0 0 0 1 2
2803 1 1.57364 -0.196663 0.02 0 0 0 1 2
2974 1 1.53425 -5.52818 0.02 0 0 0 1 2
2976 1 1.56277 -5.32207 0.02 0 0 0 1 2
2988 1 1.57677 -5.11594 0.02 0 0 0 1 2
2989 1 1.56931 -4.91492 0.02 0 0 0 1 2
3001 1 1.56349 -4.71341 0.02 0 0 0 1 2
3004 1 1.52839 -4.5189 0.02 0 0 0 1 2
3013 1 1.57044 -4.33349 0.02 0 0 0 1 2
3016 1 1.53812 -4.14475 0.02 0 0 0 1 2
2893 1 1.58405 -2.84488 0.02 0 0 0 1 2
2880 1 1.51717 -2.4787 0.02 0 0 0 1 2
2549 1 2.61219 0.420223 0.02 0 -1.2922e-25 2.49188e-26 1 2
2550 1 2.63646 0.0290292 0.02 0 -3.71874e-24 -2.76753e-25 1 2
2552 1 2.63035 0.22482 0.02 0 -3.07601e-24 3.18777e-25 1 2
2547 1 2.42654 0.20342 0.02 0 -3.62966e-28 2.66185e-29 1 2
2548 1 2.40903 0.400532 0.02 0 -9.75652e-34 3.77655e-34 1 2
2546 1 2.43008 0.00784958 0.02 0 -7.51507e-28 -1.71674e-30 1 2
2551 1 2.84326 0.0421228 0.02 0 -1.96846e-21 -2.05032e-23 1 2
2553 1 2.83332 0.24089 0.02 0 -1.11377e-21 2.38879e-22 1 2
2887 1 1.65537 2.43852 0.02 0 0 0 1 2
2886 1 1.60198 2.18531 0.02 0 0 0 1 2
3045 1 1.84765 2.85855 0.02 0 0 0 1 2
3044 1 1.83229 2.58473 0.02 0 0 0 1 2
2564 1 2.57713 0.61472 0.02 0 -4.68799e-26 5.54972e-28 1 2
2565 1 2.56304 0.81746 0.02 0 -8.26168e-26 -1.53024e-26 1 2
2566 1 2.81097 0.443733 0.02 0 -1.71241e-22 7.30158e-23 1 2
2567 1 2.77558 0.64725 0.02 0 -9.23758e-24 2.09652e-24 1 2
2568 1 2.75175 0.853684 0.02 0 -8.26847e-24 -2.97765e-24 1 2
2830 1 1.59195 0.778868 0.02 0 0 0 1 2
2570 1 2.96893 0.70355 0.02 0 -9.17746e-23 1.67501e-23 1 2
3043 1 1.814 2.35157 0.02 0 0 0 1 2
3047 1 1.75027 4.86388 0.02 0 0 0 1 2
2581 1 2.71091 1.05738 0.02 0 -2.47435e-23 -4.90031e-24 1 2
2583 1 2.64682 1.25293 0.02 0 -6.33706e-24 -2.9271e-25 1 2
2579 1 2.45417 1.23142 0.02 0 -9.67339e-27 -1.48237e-27 1 2
2580 1 2.52092 1.02477 0.02 0 -2.47546e-25 -4.73991e-26 1 2
2585 1 2.84198 1.29651 0.02 0 -1.61743e-21 -1.12518e-22 1 2
2815 1 1.59463 0.374789 0.02 0 0 0 1 2
2582 1 2.90076 1.10144 0.02 0 -1.98969e-21 -6.07924e-22 1 2
2584 1 2.94099 0.902173 0.02 0 -6.93573e-22 -4.74734e-22 1 2
2994 1 1.7151 5.2439 0.02 0 0 0 1 2
3046 1 1.75654 4.48345 0.02 0 0 0 1 2
454 2 2.6 9.6 0 0 0 0 1 5
2596 1 2.4001 1.6641 0.02 0 0 0 1 2
2597 1 2.61427 1.45538 0.02 0 -2.16876e-24 -1.02452e-25 1 2
2595 1 2.42387 1.44734 0.02 0 -3.20914e-28 1.01102e-29 1 2
2598 1 2.59153 1.66266 0.02 0 -2.07922e-25 2.17207e-26 1 2
2599 1 2.8051 1.49772 0.02 0 -6.36245e-22 1.12063e-22 1 2
2600 1 2.78579 1.7002 0.02 0 -1.14269e-22 4.36419e-23 1 2
2979 1 1.68863 5.04797 0.02 0 0 0 1 2
2960 1 1.71115 4.66964 0.02 0 0 0 1 2
3048 1 1.73513 6.56585 0.02 0 -1.1044e-05 -1.70363e-05 1 2
3036 1 1.80011 0.205635 0.02 0 0 0 1 2
455 2 2.8 9.6 0 0 0 0 1 5
2616 1 2.62776 2.08216 0.02 0 -3.78388e-27 1.29074e-27 1 2
2612 1 2.40657 1.88342 0.02 0 0 0 1 2
2613 1 2.45191 2.12947 0.02 0 0 0 1 2
2614 1 2.5913 1.87355 0.02 0 -2.5075e-26 6.20481e-27 1 2
2617 1 2.81657 2.11354 0.02 0 -9.52589e-25 5.4591e-25 1 2
2615 1 2.78521 1.90348 0.02 0 -9.40516e-24 4.3531e-24 1 2
2947 1 1.69729 4.29844 0.02 0 0 0 1 2
2946 1 1.72322 4.1095 0.02 0 0 0 1 2
487 2 2.4 9.8 0 0 0 0 1 5
451 2 2 9.6 0 0 0 0 1 5
2631 1 2.66903 2.53955 0.02 0 -4.84109e-25 -8.82901e-26 1 2
2630 1 2.65703 2.29507 0.02 0 -1.05573e-30 -5.08304e-31 1 2
2629 1 2.49648 2.38837 0.02 0 0 0 1 2
2632 1 2.83996 2.33175 0.02 0 -4.7834e-24 -2.26889e-24 1 2
2633 1 2.84299 2.54629 0.02 0 -3.78792e-23 -9.92966e-24 1 2
2945 1 1.65855 3.92357 0.02 0 0 0 1 2
2932 1 1.70353 3.73255 0.02 0 0 0 1 2
452 2 2.2 9.6 0 0 0 0 1 5
386 2 2.6 9.2 0 0 0 0 1 5
2647 1 2.72986 2.80179 0.02 0 -2.49214e-24 5.91843e-25 1 2
2644 1 2.50714 2.61673 0.02 0 0 0 1 2
2645 1 2.55182 2.80835 0.02 0 0 0 1 2
2646 1 2.60009 3.01271 0.02 0 0 0 1 2
2648 1 2.78253 3.02991 0.02 0 -5.37055e-25 -1.64407e-25 1 2
2990 1 1.69407 5.63225 0.02 0 0 0 1 2
2649 1 2.89674 2.74907 0.02 0 -2.08653e-22 2.77705e-23 1 2
2650 1 2.95084 2.96908 0.02 0 -9.29018e-23 2.50787e-23 1 2
3042 1 1.77432 2.15568 0.02 0 0 0 1 2
488 2 2.6 9.8 0 0 0 0 1 5