ITEM: TIMESTEP
57000
ITEM: NUMBER OF ATOMS
1391
ITEM: BOX BOUNDS ff ff pp
0.0000000000000000e+00 4.4000000000000004e+00
-1.0000000000000000e+01 1.0000000000000000e+01
-2.0000000000000000e-02 2.0000000000000000e-02
ITEM: ATOMS id type x y vx vy fx fy c_den c_phase
4956 1 0.845797 -6.58047 0.02 0 0 0 1 2
4957 1 0.818808 -6.75534 0.02 0 0 0 1 2
4958 1 1.02252 -6.7545 0.02 0 0 0 1 2
4959 1 1.22134 -6.73795 0.02 0 0 0 1 2
4960 1 1.06221 -6.57021 0.02 0 0 0 1 2
4961 1 1.26837 -6.55898 0.02 0 -8.19715e-13 -2.77886e-13 1 2
4962 1 1.41891 -6.75641 0.02 0 -2.05923e-06 -1.44463e-06 1 2
4906 1 0.963079 -1.66502 0.02 0 0 0 1 2
4964 1 1.46466 -6.56659 0.02 0 2.29093e-08 1.48253e-07 1 2
4867 1 1.2919 -0.517524 0.02 0 0 0 1 2
4870 1 1.09334 -0.507391 0.02 0 0 0 1 2
4972 1 0.863083 -6.2288 0.02 0 0 0 1 2
4973 1 0.872572 -6.4079 0.02 0 0 0 1 2
4974 1 1.07494 -6.38721 0.02 0 0 0 1 2
4975 1 1.08498 -6.20378 0.02 0 0 0 1 2
4976 1 1.28227 -6.3754 0.02 0 0 0 1 2
4977 1 1.29538 -6.18987 0.02 0 0 0 1 2
4978 1 1.4865 -6.37705 0.02 0 4.10057e-09 2.29202e-08 1 2
4916 1 1.41829 -1.92107 0.02 0 0 0 1 2
4869 1 1.2951 -0.722022 0.02 0 0 0 1 2
4871 1 0.889834 -0.514518 0.02 0 0 0 1 2
4986 1 0.838645 -5.85696 0.02 0 0 0 1 2
4987 1 0.858586 -6.0486 0.02 0 0 0 1 2
4988 1 1.06415 -6.01867 0.02 0 0 0 1 2
4989 1 1.02834 -5.82533 0.02 0 0 0 1 2
4990 1 1.22406 -5.81429 0.02 0 0 0 1 2
4991 1 1.27217 -6.00318 0.02 0 0 0 1 2
4992 1 1.47975 -5.99131 0.02 0 6.6985e-17 2.25878e-15 1 2
4993 1 1.42801 -5.80594 0.02 0 0 0 1 2
4872 1 1.0894 -0.701356 0.02 0 0 0 1 2
4873 1 0.866991 -0.695724 0.02 0 0 0 1 2
5000 1 0.850061 -5.64953 0.02 0 0 0 1 2
5002 1 0.85136 -5.44144 0.02 0 0 0 1 2
5004 1 0.841907 -5.23262 0.02 0 0 0 1 2
5001 1 1.04448 -5.62334 0.02 0 0 0 1 2
5003 1 1.04464 -5.41999 0.02 0 0 0 1 2
5005 1 1.24364 -5.61653 0.02 0 0 0 1 2
5006 1 1.23984 -5.41725 0.02 0 0 0 1 2
5007 1 1.22118 -5.21795 0.02 0 0 0 1 2
5008 1 1.44476 -5.61413 0.02 0 0 0 1 2
4883 1 1.48763 -1.12377 0.02 0 0 0 1 2
5010 1 1.43505 -5.41546 0.02 0 0 0 1 2
4898 1 1.30843 -1.32959 0.02 0 0 0 1 2
4900 1 1.35567 -1.52449 0.02 0 0 0 1 2
4881 1 1.46575 -0.904502 0.02 0 0 0 1 2
4850 1 1.45314 -0.094678 0.02 0 0 0 1 2
5020 1 0.823683 -5.01823 0.02 0 0 0 1 2
5019 1 1.02809 -5.2099 0.02 0 0 0 1 2
5021 1 1.0078 -4.99268 0.02 0 0 0 1 2
5022 1 1.1947 -5.01454 0.02 0 0 0 1 2
5023 1 1.17447 -4.80046 0.02 0 0 0 1 2
5024 1 1.41743 -5.21275 0.02 0 0 0 1 2
5025 1 1.38605 -5.00858 0.02 0 0 0 1 2
4903 1 1.14151 -1.4917 0.02 0 0 0 1 2
5027 1 1.36794 -4.8102 0.02 0 0 0 1 2
4904 1 0.933256 -1.46594 0.02 0 0 0 1 2
4856 1 1.07504 -0.308611 0.02 0 0 0 1 2
4852 1 1.47388 -0.295322 0.02 0 0 0 1 2
5038 1 0.813706 -4.57803 0.02 0 0 0 1 2
5041 1 0.85398 -4.3673 0.02 0 0 0 1 2
5037 1 0.985834 -4.77962 0.02 0 0 0 1 2
5039 1 1.00429 -4.57054 0.02 0 0 0 1 2
5040 1 1.19623 -4.58634 0.02 0 0 0 1 2
5042 1 1.0534 -4.36807 0.02 0 0 0 1 2
5043 1 1.24868 -4.37825 0.02 0 0 0 1 2
5044 1 1.39215 -4.61794 0.02 0 0 0 1 2
4905 1 1.16619 -1.68959 0.02 0 0 0 1 2
5046 1 1.43921 -4.42856 0.02 0 0 0 1 2
4884 1 1.29247 -1.12903 0.02 0 0 0 1 2
4857 1 0.865825 -0.329982 0.02 0 0 0 1 2
4851 1 1.2598 -0.106487 0.02 0 0 0 1 2
4853 1 1.27568 -0.312394 0.02 0 0 0 1 2
5055 1 0.879622 -4.16107 0.02 0 0 0 1 2
5056 1 1.07621 -4.16298 0.02 0 0 0 1 2
5057 1 0.897125 -3.95057 0.02 0 0 0 1 2
5058 1 1.08853 -3.95576 0.02 0 0 0 1 2
5059 1 1.27246 -4.17021 0.02 0 0 0 1 2
5060 1 1.28146 -3.95995 0.02 0 0 0 1 2
5061 1 1.46521 -4.22906 0.02 0 0 0 1 2
4882 1 1.27272 -0.927203 0.02 0 0 0 1 2
5063 1 1.4685 -4.02536 0.02 0 0 0 1 2
4885 1 1.07733 -0.894216 0.02 0 0 0 1 2
4854 1 1.06873 -0.102094 0.02 0 0 0 1 2
5071 1 0.920721 -3.73477 0.02 0 0 0 1 2
5072 1 0.922421 -3.51789 0.02 0 0 0 1 2
5073 1 1.11094 -3.74794 0.02 0 0 0 1 2
5074 1 1.11004 -3.53709 0.02 0 0 0 1 2
5075 1 1.30262 -3.75053 0.02 0 0 0 1 2
5076 1 1.299 -3.53879 0.02 0 0 0 1 2
5077 1 1.48615 -3.8147 0.02 0 0 0 1 2
5078 1 1.48407 -3.59192 0.02 0 0 0 1 2
4886 1 0.877967 -0.880323 0.02 0 0 0 1 2
4887 1 1.09024 -1.09279 0.02 0 0 0 1 2
5087 1 0.91446 -3.30217 0.02 0 0 0 1 2
5088 1 1.10041 -3.32282 0.02 0 0 0 1 2
5089 1 0.925681 -3.09498 0.02 0 0 0 1 2
5090 1 1.11986 -3.11224 0.02 0 0 0 1 2
5091 1 1.28805 -3.3262 0.02 0 0 0 1 2
5092 1 1.3115 -3.11655 0.02 0 0 0 1 2
5093 1 1.474 -3.36956 0.02 0 0 0 1 2
4917 1 1.44288 -2.11789 0.02 0 0 0 1 2
4888 1 0.884043 -1.07209 0.02 0 0 0 1 2
4889 1 1.10789 -1.29234 0.02 0 0 0 1 2
4951 1 1.12751 -2.7013 0.02 0 0 0 1 2
4952 1 0.92794 -2.69006 0.02 0 0 0 1 2
4953 1 1.11563 -2.9059 0.02 0 0 0 1 2
4954 1 0.917975 -2.89186 0.02 0 0 0 1 2
4949 1 1.3244 -2.70335 0.02 0 0 0 1 2
4950 1 1.31196 -2.90797 0.02 0 0 0 1 2
4855 1 0.872287 -0.141758 0.02 0 0 0 1 2
4890 1 0.907976 -1.26707 0.02 0 0 0 1 2
4919 1 1.23726 -2.09908 0.02 0 0 0 1 2
4918 1 1.21473 -1.89697 0.02 0 0 0 1 2
4938 1 0.854803 -2.27668 0.02 0 0 0 1 2
4935 1 1.28548 -2.50191 0.02 0 0 0 1 2
4936 1 1.24076 -2.30053 0.02 0 0 0 1 2
4937 1 1.04734 -2.27951 0.02 0 0 0 1 2
4939 1 0.895201 -2.48392 0.02 0 0 0 1 2
4940 1 1.08772 -2.49402 0.02 0 0 0 1 2
4902 1 1.36662 -1.7222 0.02 0 0 0 1 2
4866 1 1.48878 -0.49582 0.02 0 0 0 1 2
4933 1 1.44118 -2.31522 0.02 0 0 0 1 2
4934 1 1.48741 -2.51435 0.02 0 0 0 1 2
4923 1 0.829304 -2.07675 0.02 0 0 0 1 2
4921 1 0.819554 -1.87308 0.02 0 0 0 1 2
4922 1 1.03365 -2.07103 0.02 0 0 0 1 2
4920 1 1.01674 -1.86633 0.02 0 0 0 1 2
4842 1 0.891474 0.270665 0.02 0 0 0 1 2
4843 1 1.07162 0.336851 0.02 0 0 0 1 2
4844 1 0.890784 0.0560054 0.02 0 0 0 1 2
4845 1 1.07101 0.118798 0.02 0 0 0 1 2
4847 1 1.25917 0.320533 0.02 0 0 0 1 2
4849 1 1.25483 0.105539 0.02 0 0 0 1 2
4846 1 1.44223 0.107583 0.02 0 0 0 1 2
4848 1 1.44669 0.312641 0.02 0 0 0 1 2
5034 1 0.948954 5.35095 0.02 0 0 0 1 2
5035 1 1.13483 5.34326 0.02 0 0 0 1 2
5082 1 1.32962 6.57346 0.02 0 -2.29139e-11 8.30844e-12 1 2
5084 1 1.33396 6.76272 0.02 0 -1.27967e-08 8.34627e-09 1 2
4860 1 0.809259 0.705152 0.02 0 0 0 1 2
4858 1 0.871843 0.488378 0.02 0 0 0 1 2
4859 1 1.05477 0.544272 0.02 0 0 0 1 2
4861 1 0.993856 0.743507 0.02 0 0 0 1 2
4862 1 1.19076 0.728702 0.02 0 0 0 1 2
4863 1 1.25214 0.528996 0.02 0 0 0 1 2
4864 1 1.44547 0.523799 0.02 0 0 0 1 2
4865 1 1.38859 0.730074 0.02 0 0 0 1 2
5036 1 0.91674 5.55378 0.02 0 0 0 1 2
5053 1 1.08316 5.98504 0.02 0 0 0 1 2
5052 1 0.875482 5.95702 0.02 0 0 0 1 2
5020 1 0.982328 5.14001 0.02 0 0 0 1 2
4874 1 1.00264 0.941402 0.02 0 0 0 1 2
4875 1 0.980543 1.13505 0.02 0 0 0 1 2
4876 1 1.21061 0.925911 0.02 0 0 0 1 2
4877 1 1.18814 1.12143 0.02 0 0 0 1 2
4878 1 1.4125 0.935026 0.02 0 0 0 1 2
4879 1 1.39218 1.13418 0.02 0 0 0 1 2
5037 1 1.10774 5.56701 0.02 0 0 0 1 2
5039 1 1.30935 5.40353 0.02 0 0 0 1 2
5078 1 0.933508 6.53654 0.02 0 0 0 1 2
5079 1 1.13095 6.55154 0.02 0 0 0 1 2
4890 1 0.936527 1.32777 0.02 0 0 0 1 2
4891 1 0.914267 1.52478 0.02 0 0 0 1 2
4892 1 0.904107 1.72167 0.02 0 0 0 1 2
4893 1 1.11645 1.51418 0.02 0 0 0 1 2
4894 1 1.10696 1.71282 0.02 0 0 0 1 2
4895 1 1.14364 1.31688 0.02 0 0 0 1 2
4896 1 1.34647 1.32832 0.02 0 0 0 1 2
4897 1 1.32111 1.52127 0.02 0 0 0 1 2
4898 1 1.31039 1.71271 0.02 0 0 0 1 2
5019 1 0.979941 4.93604 0.02 0 0 0 1 2
5021 1 1.17556 5.1407 0.02 0 0 0 1 2
5022 1 1.18093 4.94279 0.02 0 0 0 1 2
5026 1 1.35679 5.18165 0.02 0 0 0 1 2
5051 1 1.07295 5.7821 0.02 0 0 0 1 2
5070 1 1.29141 6.38626 0.02 0 0 0 1 2
4909 1 0.870862 1.91195 0.02 0 0 0 1 2
4910 1 0.88281 2.10066 0.02 0 0 0 1 2
4911 1 1.08225 1.90792 0.02 0 0 0 1 2
4912 1 1.08954 2.10177 0.02 0 0 0 1 2
4914 1 1.28821 2.09299 0.02 0 0 0 1 2
4913 1 1.29392 1.90235 0.02 0 0 0 1 2
5050 1 0.889138 5.75532 0.02 0 0 0 1 2
4916 1 1.48765 2.11413 0.02 0 0 0 1 2
5064 1 0.888312 6.14981 0.02 0 0 0 1 2
5011 1 1.38746 4.7499 0.02 0 0 0 1 2
4923 1 0.823671 2.27614 0.02 0 0 0 1 2
4924 1 0.831245 2.4548 0.02 0 0 0 1 2
4925 1 1.04983 2.28563 0.02 0 0 0 1 2
4926 1 1.06337 2.46684 0.02 0 0 0 1 2
4927 1 1.28577 2.28195 0.02 0 0 0 1 2
4928 1 1.26701 2.46409 0.02 0 0 0 1 2
5009 1 1.35378 4.55042 0.02 0 0 0 1 2
4930 1 1.48156 2.48427 0.02 0 0 0 1 2
5065 1 1.0926 6.17564 0.02 0 0 0 1 2
5066 1 0.885277 6.34367 0.02 0 0 0 1 2
4937 1 0.799669 2.63076 0.02 0 0 0 1 2
4939 1 0.837527 2.80986 0.02 0 0 0 1 2
4938 1 1.02106 2.63956 0.02 0 0 0 1 2
4940 1 0.931961 2.97258 0.02 0 0 0 1 2
4941 1 1.08366 2.80866 0.02 0 0 0 1 2
4942 1 1.1418 2.99988 0.02 0 0 0 1 2
4943 1 1.29678 2.64036 0.02 0 0 0 1 2
4944 1 1.29284 2.8171 0.02 0 0 0 1 2
4945 1 1.35586 2.99621 0.02 0 0 0 1 2
5007 1 1.34875 4.3547 0.02 0 0 0 1 2
5006 1 1.19104 4.7463 0.02 0 0 0 1 2
5041 1 1.29474 5.61046 0.02 0 0 0 1 2
5067 1 1.08697 6.36341 0.02 0 0 0 1 2
5068 1 1.30138 6.1991 0.02 0 0 0 1 2
5042 1 1.48941 5.64819 0.02 0 0 0 1 2
4958 1 0.944505 3.16345 0.02 0 0 0 1 2
4959 1 0.98262 3.35953 0.02 0 0 0 1 2
4960 1 1.14949 3.19806 0.02 0 0 0 1 2
4961 1 1.18779 3.39618 0.02 0 0 0 1 2
4962 1 1.35132 3.18701 0.02 0 0 0 1 2
4963 1 1.38767 3.38149 0.02 0 0 0 1 2
5005 1 1.14714 4.55067 0.02 0 0 0 1 2
5024 1 1.37722 4.96189 0.02 0 0 0 1 2
5080 1 0.951615 6.73003 0.02 0 0 0 1 2
5081 1 1.13625 6.73857 0.02 0 -2.8947e-16 3.03354e-16 1 2
4972 1 0.818592 3.55811 0.02 0 0 0 1 2
4973 1 1.02667 3.55836 0.02 0 0 0 1 2
4974 1 0.871702 3.7432 0.02 0 0 0 1 2
4975 1 1.08167 3.75439 0.02 0 0 0 1 2
4976 1 1.23705 3.59067 0.02 0 0 0 1 2
4978 1 1.29728 3.77943 0.02 0 0 0 1 2
4977 1 1.44013 3.57987 0.02 0 0 0 1 2
5004 1 1.14946 4.35183 0.02 0 0 0 1 2
5054 1 1.25964 5.80954 0.02 0 0 0 1 2
5003 1 0.98722 4.73823 0.02 0 0 0 1 2
4987 1 0.889753 3.93519 0.02 0 0 0 1 2
4988 1 1.0925 3.95088 0.02 0 0 0 1 2
4989 1 0.923819 4.13251 0.02 0 0 0 1 2
4990 1 1.12345 4.15098 0.02 0 0 0 1 2
4991 1 0.953386 4.33685 0.02 0 0 0 1 2
4992 1 1.29698 3.97068 0.02 0 0 0 1 2
4994 1 1.32935 4.16123 0.02 0 0 0 1 2
5002 1 0.943225 4.54315 0.02 0 0 0 1 2
5056 1 1.29103 6.0091 0.02 0 0 0 1 2
5055 1 1.45628 5.83848 0.02 0 0 0 1 2
1509 2 2 -10 0 0 0 0 1 5
1510 2 2.2 -10 0 0 0 0 1 5
1511 2 2.4 -10 0 0 0 0 1 5
1543 2 2 -9.8 0 0 0 0 1 5
1544 2 2.2 -9.8 0 0 0 0 1 5
1545 2 2.4 -9.8 0 0 0 0 1 5
1577 2 2 -9.6 0 0 0 0 1 5
1578 2 2.2 -9.6 0 0 0 0 1 5
1579 2 2.4 -9.6 0 0 0 0 1 5
1512 2 2.6 -10 0 0 0 0 1 5
1513 2 2.8 -10 0 0 0 0 1 5
1546 2 2.6 -9.8 0 0 0 0 1 5
1547 2 2.8 -9.8 0 0 0 0 1 5
1580 2 2.6 -9.6 0 0 0 0 1 5
1581 2 2.8 -9.6 0 0 0 0 1 5
1645 2 2 -9.2 0 0 0 0 1 5
1646 2 2.2 -9.2 0 0 0 0 1 5
1647 2 2.4 -9.2 0 0 0 0 1 5
1613 2 2.4 -9.4 0 0 0 0 1 5
1612 2 2.2 -9.4 0 0 0 0 1 5
1611 2 2 -9.4 0 0 0 0 1 5
1648 2 2.6 -9.2 0 0 0 0 1 5
1649 2 2.8 -9.2 0 0 0 0 1 5
1615 2 2.8 -9.4 0 0 0 0 1 5
1614 2 2.6 -9.4 0 0 0 0 1 5
1679 2 2 -9 0 0 0 0 1 5
1680 2 2.2 -9 0 0 0 0 1 5
1681 2 2.4 -9 0 0 0 0 1 5
1713 2 2 -8.8 0 0 0 0 1 5
1714 2 2.2 -8.8 0 0 0 0 1 5
1715 2 2.4 -8.8 0 0 0 0 1 5
1682 2 2.6 -9 0 0 0 0 1 5
1683 2 2.8 -9 0 0 0 0 1 5
1716 2 2.6 -8.8 0 0 0 0 1 5
1717 2 2.8 -8.8 0 0 0 0 1 5
1783 2 2.4 -8.4 0 0 0 0 1 5
1782 2 2.2 -8.4 0 0 0 0 1 5
1781 2 2 -8.4 0 0 0 0 1 5
1747 2 2 -8.6 0 0 0 0 1 5
1748 2 2.2 -8.6 0 0 0 0 1 5
1749 2 2.4 -8.6 0 0 0 0 1 5
1785 2 2.8 -8.4 0 0 0 0 1 5
1784 2 2.6 -8.4 0 0 0 0 1 5
1750 2 2.6 -8.6 0 0 0 0 1 5
1751 2 2.8 -8.6 0 0 0 0 1 5
1851 2 2.4 -8 0 0 0 0 1 5
1850 2 2.2 -8 0 0 0 0 1 5
1849 2 2 -8 0 0 0 0 1 5
1817 2 2.4 -8.2 0 0 0 0 1 5
1816 2 2.2 -8.2 0 0 0 0 1 5
1815 2 2 -8.2 0 0 0 0 1 5
1853 2 2.8 -8 0 0 0 0 1 5
1852 2 2.6 -8 0 0 0 0 1 5
1819 2 2.8 -8.2 0 0 0 0 1 5
1818 2 2.6 -8.2 0 0 0 0 1 5
1953 2 2.4 -7.4 0 0 0 0 0.988002 5
1952 2 2.2 -7.4 0 0 0 0 1.00049 5
1951 2 2 -7.4 0 0 0 0 1.00121 5
1919 2 2.4 -7.6 0 0 0 0 1 5
1918 2 2.2 -7.6 0 0 0 0 1 5
1917 2 2 -7.6 0 0 0 0 1 5
1885 2 2.4 -7.8 0 0 0 0 1 5
1884 2 2.2 -7.8 0 0 0 0 1 5
1883 2 2 -7.8 0 0 0 0 1 5
1955 2 2.8 -7.4 0 0 0 0 1.00335 5
1954 2 2.6 -7.4 0 0 0 0 1.01168 5
1921 2 2.8 -7.6 0 0 0 0 1 5
1920 2 2.6 -7.6 0 0 0 0 1 5
1887 2 2.8 -7.8 0 0 0 0 1 5
1886 2 2.6 -7.8 0 0 0 0 1 5
2021 2 2.4 -7 0 0 0 0 0.988874 5
2020 2 2.2 -7 0 0 0 0 0.995922 5
2019 2 2 -7 0 0 0 0 1.00156 5
1987 2 2.4 -7.2 0 0 0 0 0.987735 5
1986 2 2.2 -7.2 0 0 0 0 0.996529 5
1985 2 2 -7.2 0 0 0 0 1.00199 5
2023 2 2.8 -7 0 0 0 0 1.00508 5
2022 2 2.6 -7 0 0 0 0 1.00798 5
1989 2 2.8 -7.2 0 0 0 0 1.00538 5
1988 2 2.6 -7.2 0 0 0 0 1.00957 5
4969 1 2.04501 -6.56034 0.02 0 0.000136605 0.000551625 1 2
4967 1 2.01287 -6.75576 0.02 0 -0.00364155 -0.000845894 1 2
4970 1 2.21338 -6.76076 0.02 0 -0.00242207 -0.000575754 1 2
4971 1 2.23714 -6.57482 0.02 0 0.000753924 0.00110021 1 2
4968 1 1.85461 -6.56 0.02 0 -2.43747e-05 0.000334356 1 2
4713 1 2.81371 -6.73915 0.02 0 -0.00247871 -0.000471868 1 2
4901 1 1.5687 -1.73756 0.02 0 0 0 1 2
4865 1 1.68344 -0.757755 0.02 0 0 0 1 2
4715 1 2.84751 -6.55076 0.02 0 0.000148013 0.000153037 1 2
4912 1 1.83493 -1.94749 0.02 0 0 0 1 2
5067 1 1.84589 -3.97397 0.02 0 0 0 1 2
4983 1 2.08522 -6.36822 0.02 0 6.76552e-05 0.000158896 1 2
4985 1 2.11568 -6.17861 0.02 0 -9.18855e-09 1.63263e-05 1 2
4982 1 1.88541 -6.37283 0.02 0 1.82218e-05 7.94676e-05 1 2
4984 1 1.91092 -6.18342 0.02 0 7.91602e-07 4.91451e-06 1 2
4864 1 1.6811 -0.538324 0.02 0 0 0 1 2
4914 1 1.64728 -2.12962 0.02 0 0 0 1 2
4730 1 2.8987 -6.17071 0.02 0 7.28665e-06 7.77841e-06 1 2
4729 1 2.8674 -6.35963 0.02 0 8.5407e-05 5.8749e-05 1 2
4915 1 1.62527 -1.93408 0.02 0 0 0 1 2
5045 1 1.59931 -4.61468 0.02 0 0 0 1 2
4999 1 2.07718 -5.80157 0.02 0 1.10533e-11 5.07789e-11 1 2
4997 1 2.09577 -5.99012 0.02 0 -5.29635e-09 1.25906e-07 1 2
4996 1 1.89084 -5.99235 0.02 0 2.23393e-09 3.19218e-08 1 2
4998 1 1.86418 -5.80089 0.02 0 0 0 1 2
4932 1 1.64757 -2.32364 0.02 0 0 0 1 2
4931 1 1.68769 -2.51716 0.02 0 0 0 1 2
4746 1 2.87906 -5.78431 0.02 0 6.49646e-12 9.97078e-12 1 2
4745 1 2.8898 -5.9796 0.02 0 5.49179e-08 7.07449e-08 1 2
4896 1 1.76647 -1.56022 0.02 0 0 0 1 2
5051 1 1.82973 -4.3802 0.02 0 0 0 1 2
5016 1 2.01368 -5.40561 0.02 0 0 0 1 2
5014 1 2.02883 -5.61078 0.02 0 0 0 1 2
5018 1 2.2068 -5.38987 0.02 0 0 0 1 2
5017 1 2.22206 -5.59358 0.02 0 0 0 1 2
4762 1 2.80237 -5.39266 0.02 0 0 0 1 2
5028 1 1.56821 -4.82078 0.02 0 0 0 1 2
5026 1 1.5779 -5.03372 0.02 0 0 0 1 2
4761 1 2.82573 -5.58762 0.02 0 0 0 1 2
4846 1 1.8355 -0.15 0.02 0 0 0 1 2
5049 1 1.80642 -4.58164 0.02 0 0 0 1 2
5036 1 2.19563 -4.80654 0.02 0 0 0 1 2
5030 1 1.99201 -5.19849 0.02 0 0 0 1 2
5035 1 2.15434 -4.99634 0.02 0 0 0 1 2
5034 1 2.18917 -5.19128 0.02 0 0 0 1 2
5032 1 1.95626 -4.99144 0.02 0 0 0 1 2
5033 1 1.98193 -4.7929 0.02 0 0 0 1 2
5012 1 1.61468 -5.2373 0.02 0 0 0 1 2
5011 1 1.63268 -5.43551 0.02 0 0 0 1 2
4946 1 1.69619 -2.9109 0.02 0 0 0 1 2
4778 1 2.84851 -4.83834 0.02 0 -9.2457e-26 -6.05825e-26 1 2
5029 1 1.79884 -5.1777 0.02 0 0 0 1 2
4847 1 1.85875 -0.365805 0.02 0 0 0 1 2
4843 1 2.23944 -0.344474 0.02 0 0 0 1 2
5052 1 2.0259 -4.39955 0.02 0 0 0 1 2
5050 1 2.01023 -4.59884 0.02 0 0 0 1 2
5054 1 2.22357 -4.41893 0.02 0 0 0 1 2
5053 1 2.21489 -4.61546 0.02 0 0 0 1 2
5096 1 1.69022 -3.11366 0.02 0 0 0 1 2
5095 1 1.6625 -3.31864 0.02 0 0 0 1 2
4795 1 2.845 -4.462 0.02 0 0 0 1 2
4794 1 2.84067 -4.65017 0.02 0 0 0 1 2
4842 1 2.22075 -0.125197 0.02 0 0 0 1 2
4845 1 2.02811 -0.131593 0.02 0 0 0 1 2
5068 1 2.04067 -3.99372 0.02 0 0 0 1 2
5066 1 2.05309 -4.1987 0.02 0 0 0 1 2
5070 1 2.23731 -4.02126 0.02 0 0 0 1 2
5069 1 2.25179 -4.22092 0.02 0 0 0 1 2
5065 1 1.8562 -4.17813 0.02 0 0 0 1 2
4808 1 2.86068 -4.27373 0.02 0 0 0 1 2
5080 1 1.66715 -3.52636 0.02 0 0 0 1 2
5079 1 1.66491 -3.74165 0.02 0 0 0 1 2
5064 1 1.65628 -3.97051 0.02 0 0 0 1 2
4809 1 2.87105 -4.08309 0.02 0 0 0 1 2
4844 1 2.0495 -0.32819 0.02 0 0 0 1 2
5015 1 1.82225 -5.38976 0.02 0 0 0 1 2
5062 1 1.66044 -4.18899 0.02 0 0 0 1 2
5082 1 2.05274 -3.7928 0.02 0 0 0 1 2
5084 1 2.0571 -3.59027 0.02 0 0 0 1 2
5086 1 2.24947 -3.62798 0.02 0 0 0 1 2
5085 1 2.25991 -3.82732 0.02 0 0 0 1 2
5081 1 1.85449 -3.77151 0.02 0 0 0 1 2
5083 1 1.86099 -3.56777 0.02 0 0 0 1 2
4829 1 2.84567 -3.68365 0.02 0 0 0 1 2
4880 1 1.6857 -1.16744 0.02 0 0 0 1 2
4963 1 1.61568 -6.75355 0.02 0 -0.000353481 -0.000178006 1 2
4828 1 2.89796 -3.89073 0.02 0 0 0 1 2
5013 1 1.83655 -5.60063 0.02 0 0 0 1 2
4615 1 2.82432 -0.609091 0.02 0 -9.74223e-22 1.50688e-22 1 2
5098 1 2.0507 -3.38541 0.02 0 0 0 1 2
5100 1 2.07114 -3.17954 0.02 0 0 0 1 2
5101 1 2.24587 -3.42199 0.02 0 0 0 1 2
4955 1 2.25765 -3.21512 0.02 0 0 0 1 2
5097 1 1.85472 -3.36362 0.02 0 0 0 1 2
5099 1 1.88023 -3.16288 0.02 0 0 0 1 2
4712 1 2.83146 -3.47088 0.02 0 0 0 1 2
4711 1 2.83213 -3.25575 0.02 0 -1.83677e-29 -1.17836e-29 1 2
4995 1 1.6866 -5.99936 0.02 0 1.18598e-10 2.27082e-09 1 2
4994 1 1.64787 -5.81645 0.02 0 0 0 1 2
4966 1 1.81439 -6.74256 0.02 0 -0.00227182 -0.000760605 1 2
4860 1 2.06144 -0.530511 0.02 0 0 0 1 2
4943 1 2.08182 -2.97456 0.02 0 0 0 1 2
4941 1 2.1108 -2.77688 0.02 0 0 0 1 2
4942 1 1.91173 -2.75416 0.02 0 0 0 1 2
4944 1 1.88776 -2.95758 0.02 0 0 0 1 2
4696 1 2.87046 -2.83279 0.02 0 -4.55361e-22 -6.50796e-23 1 2
4695 1 2.85943 -2.62755 0.02 0 -1.19986e-21 -1.13268e-22 1 2
4697 1 2.85495 -3.0408 0.02 0 -1.50582e-23 -5.51093e-24 1 2
4879 1 1.65248 -0.964751 0.02 0 0 0 1 2
5047 1 1.6355 -4.40519 0.02 0 0 0 1 2
4861 1 2.07413 -0.741933 0.02 0 0 0 1 2
4858 1 2.24775 -0.570425 0.02 0 0 0 1 2
4926 1 2.05386 -2.17957 0.02 0 0 0 1 2
4929 1 2.08355 -2.57643 0.02 0 0 0 1 2
4927 1 2.05988 -2.37639 0.02 0 0 0 1 2
4925 1 2.26039 -2.40026 0.02 0 0 0 1 2
4924 1 2.25499 -2.19767 0.02 0 0 0 1 2
4928 1 1.85639 -2.3414 0.02 0 0 0 1 2
4930 1 1.88652 -2.54567 0.02 0 0 0 1 2
4679 1 2.82972 -2.21217 0.02 0 -1.55355e-21 -1.26871e-22 1 2
4981 1 1.70466 -6.18589 0.02 0 5.68034e-08 4.08799e-07 1 2
4980 1 1.68512 -6.37392 0.02 0 2.20652e-06 1.18419e-05 1 2
4680 1 2.83691 -2.4215 0.02 0 -1.13755e-21 -7.49402e-23 1 2
4859 1 2.25992 -0.791499 0.02 0 0 0 1 2
4863 1 1.88115 -0.773748 0.02 0 0 0 1 2
4911 1 2.03962 -1.97973 0.02 0 0 0 1 2
4909 1 1.98601 -1.77807 0.02 0 0 0 1 2
4908 1 2.2376 -1.99265 0.02 0 0 0 1 2
4907 1 2.18831 -1.78827 0.02 0 0 0 1 2
4913 1 1.85056 -2.1438 0.02 0 0 0 1 2
4664 1 2.81302 -2.0009 0.02 0 -2.67466e-21 4.75695e-22 1 2
4848 1 1.64679 -0.10337 0.02 0 0 0 1 2
4965 1 1.66011 -6.56457 0.02 0 2.25855e-06 6.95839e-05 1 2
4862 1 1.87159 -0.574605 0.02 0 0 0 1 2
4894 1 1.71346 -1.36505 0.02 0 0 0 1 2
4892 1 2.1152 -1.37324 0.02 0 0 0 1 2
4893 1 1.91665 -1.36783 0.02 0 0 0 1 2
4891 1 2.15699 -1.5817 0.02 0 0 0 1 2
4895 1 1.96359 -1.57395 0.02 0 0 0 1 2
4648 1 2.93799 -1.62282 0.02 0 -3.14152e-21 5.39163e-22 1 2
4647 1 2.91995 -1.41351 0.02 0 -2.76381e-22 9.50726e-23 1 2
4910 1 1.77542 -1.75619 0.02 0 0 0 1 2
4945 1 1.71507 -2.71423 0.02 0 0 0 1 2
4616 1 2.84472 -0.808962 0.02 0 -2.99783e-22 -5.82881e-23 1 2
5048 1 1.77202 -4.77562 0.02 0 0 0 1 2
4874 1 2.25833 -0.996149 0.02 0 0 0 1 2
4875 1 2.05897 -0.9547 0.02 0 0 0 1 2
4876 1 2.07914 -1.16392 0.02 0 0 0 1 2
4878 1 1.88472 -1.16418 0.02 0 0 0 1 2
4877 1 1.85298 -0.967041 0.02 0 0 0 1 2
4632 1 2.88052 -1.20811 0.02 0 -3.26046e-24 -1.51039e-24 1 2
4631 1 2.8616 -1.00736 0.02 0 -5.98791e-23 -1.75102e-23 1 2
4849 1 1.66935 -0.31991 0.02 0 0 0 1 2
5009 1 1.64388 -5.63003 0.02 0 0 0 1 2
5031 1 1.76099 -4.97252 0.02 0 0 0 1 2
4899 1 1.56184 -1.53732 0.02 0 0 0 1 2
4897 1 1.50897 -1.33421 0.02 0 0 0 1 2
4979 1 1.49877 -6.184 0.02 0 3.52642e-11 2.51749e-10 1 2
5094 1 1.49816 -3.15141 0.02 0 0 0 1 2
4868 1 1.49512 -0.698459 0.02 0 0 0 1 2
4947 1 1.51766 -2.7223 0.02 0 0 0 1 2
4948 1 1.50319 -2.93583 0.02 0 0 0 1 2
4855 1 2.00528 0.0658033 0.02 0 0 0 1 2
4854 1 1.99955 0.26968 0.02 0 0 0 1 2
4856 1 2.1986 0.0854231 0.02 0 0 0 1 2
4857 1 2.19343 0.287883 0.02 0 0 0 1 2
4587 1 2.95073 0.0152087 0.02 0 -5.51931e-22 1.46107e-22 1 2
5023 1 1.5653 4.82086 0.02 0 0 0 1 2
4967 1 1.79771 3.4148 0.02 0 0 0 1 2
4966 1 1.77733 3.22764 0.02 0 0 0 1 2
5044 1 1.71273 5.24183 0.02 0 0 0 1 2
4872 1 2.20912 0.484546 0.02 0 0 0 1 2
4871 1 2.01063 0.478725 0.02 0 0 0 1 2
4873 1 2.17485 0.677999 0.02 0 0 0 1 2
4870 1 1.97759 0.691172 0.02 0 0 0 1 2
4965 1 1.59102 3.39844 0.02 0 0 0 1 2
4948 1 1.56695 3.01138 0.02 0 0 0 1 2
4881 1 1.59863 1.13869 0.02 0 0 0 1 2
4883 1 1.81182 1.13047 0.02 0 0 0 1 2
4882 1 1.80684 0.934024 0.02 0 0 0 1 2
4886 1 2.01642 1.1014 0.02 0 0 0 1 2
4884 1 1.99711 0.898345 0.02 0 0 0 1 2
4888 1 2.21192 1.07569 0.02 0 0 0 1 2
4889 1 2.18732 1.27926 0.02 0 0 0 1 2
4887 1 2.19118 0.874366 0.02 0 0 0 1 2
4885 1 1.97783 1.29598 0.02 0 0 0 1 2
4880 1 1.61181 0.942347 0.02 0 0 0 1 2
4866 1 1.58505 0.744519 0.02 0 0 0 1 2
5027 1 1.74521 4.78906 0.02 0 0 0 1 2
5028 1 1.73927 5.01453 0.02 0 0 0 1 2
4908 1 2.15106 1.48068 0.02 0 0 0 1 2
4907 1 2.12232 1.68009 0.02 0 0 0 1 2
4906 1 1.9193 1.67815 0.02 0 0 0 1 2
4905 1 1.9478 1.48571 0.02 0 0 0 1 2
5014 1 1.74891 4.57757 0.02 0 0 0 1 2
4637 1 2.93986 1.66141 0.02 0 -9.17561e-25 -3.86102e-25 1 2
4636 1 2.93356 1.46151 0.02 0 0 0 1 2
5012 1 1.74127 4.37456 0.02 0 0 0 1 2
4922 1 2.10168 2.064 0.02 0 0 0 1 2
4921 1 2.12156 1.87325 0.02 0 0 0 1 2
4919 1 1.91322 1.87263 0.02 0 0 0 1 2
4920 1 1.89384 2.06691 0.02 0 0 0 1 2
4651 1 2.95623 2.04403 0.02 0 -2.95325e-22 -6.83532e-23 1 2
4851 1 1.63107 0.116355 0.02 0 0 0 1 2
4869 1 1.78585 0.729522 0.02 0 0 0 1 2
4868 1 1.82224 0.508407 0.02 0 0 0 1 2
4936 1 2.149 2.43803 0.02 0 0 0 1 2
4935 1 2.13473 2.25155 0.02 0 0 0 1 2
4934 1 1.93089 2.45005 0.02 0 0 0 1 2
4933 1 1.92437 2.25853 0.02 0 0 0 1 2
4664 1 2.82199 2.39441 0.02 0 -1.95027e-23 -2.05302e-24 1 2
5045 1 1.69848 5.44829 0.02 0 0 0 1 2
5043 1 1.68709 5.64948 0.02 0 0 0 1 2
4850 1 1.6325 0.337272 0.02 0 0 0 1 2
4665 1 2.83548 2.5827 0.02 0 -1.32732e-24 3.44058e-25 1 2
4853 1 1.81447 0.0680014 0.02 0 0 0 1 2
489 2 2.8 9.8 0 0 0 0 1 5
4957 1 2.17611 3.00181 0.02 0 0 0 1 2
4956 1 2.19445 2.80981 0.02 0 0 0 1 2
4955 1 2.18792 2.62061 0.02 0 0 0 1 2
4954 1 1.98062 2.82655 0.02 0 0 0 1 2
4953 1 1.96879 3.01719 0.02 0 0 0 1 2
4952 1 1.97412 2.63626 0.02 0 0 0 1 2
4679 1 2.82237 2.77537 0.02 0 -2.24335e-26 -1.31572e-26 1 2
4680 1 2.80628 2.96941 0.02 0 -2.22879e-24 -6.92496e-25 1 2
5072 1 1.72005 6.20958 0.02 0 2.75204e-08 -8.02092e-08 1 2
4903 1 1.73895 1.50616 0.02 0 0 0 1 2
4852 1 1.81253 0.287368 0.02 0 0 0 1 2
386 2 2.6 9.2 0 0 0 0 1 5
488 2 2.6 9.8 0 0 0 0 1 5
4969 1 2.00524 3.40293 0.02 0 0 0 1 2
4968 1 1.99153 3.20956 0.02 0 0 0 1 2
4971 1 2.21062 3.39198 0.02 0 0 0 1 2
4970 1 2.19733 3.19534 0.02 0 0 0 1 2
4699 1 2.80359 3.16915 0.02 0 -4.69204e-23 -3.61361e-24 1 2
4700 1 2.81265 3.37484 0.02 0 -2.25976e-22 2.56631e-24 1 2
4902 1 1.75805 1.31601 0.02 0 0 0 1 2
5088 1 1.72346 6.56971 0.02 0 -2.73919e-05 -1.37536e-05 1 2
387 2 2.8 9.2 0 0 0 0 1 5
421 2 2.8 9.4 0 0 0 0 1 5
4983 1 1.9223 3.78818 0.02 0 0 0 1 2
4986 1 2.25899 3.59134 0.02 0 0 0 1 2
4985 1 2.11987 3.7989 0.02 0 0 0 1 2
4984 1 2.06352 3.59667 0.02 0 0 0 1 2
4981 1 1.85885 3.59964 0.02 0 0 0 1 2
4980 1 1.64727 3.59397 0.02 0 0 0 1 2
5058 1 1.66873 5.83904 0.02 0 0 0 1 2
4717 1 2.88339 3.789 0.02 0 -3.7464e-21 -6.51213e-23 1 2
4716 1 2.85012 3.58294 0.02 0 -8.55368e-22 -2.7928e-24 1 2
455 2 2.8 9.6 0 0 0 0 1 5
454 2 2.6 9.6 0 0 0 0 1 5
5001 1 2.14628 4.19345 0.02 0 0 0 1 2
5000 1 2.12847 3.99767 0.02 0 0 0 1 2
4999 1 1.94333 4.17477 0.02 0 0 0 1 2
4997 1 1.9175 3.98174 0.02 0 0 0 1 2
4732 1 2.91964 4.19723 0.02 0 -1.29674e-20 -2.88612e-22 1 2
4998 1 1.7385 4.17466 0.02 0 0 0 1 2
4996 1 1.70871 3.97949 0.02 0 0 0 1 2
4731 1 2.91036 3.99507 0.02 0 -7.94922e-21 2.33235e-22 1 2
453 2 2.4 9.6 0 0 0 0 1 5
5016 1 1.9306 4.77076 0.02 0 0 0 1 2
5018 1 2.14946 4.58883 0.02 0 0 0 1 2
5017 1 2.14702 4.3903 0.02 0 0 0 1 2
5015 1 1.94919 4.56951 0.02 0 0 0 1 2
5013 1 1.94209 4.37143 0.02 0 0 0 1 2
4745 1 2.95795 4.39304 0.02 0 -4.28456e-20 -4.04902e-21 1 2
4746 1 2.94558 4.58718 0.02 0 -5.72137e-20 -3.0487e-21 1 2
4982 1 1.71568 3.78488 0.02 0 0 0 1 2
4747 1 2.91825 4.78246 0.02 0 -2.9884e-20 1.63931e-21 1 2
5060 1 1.71132 6.0222 0.02 0 2.04833e-11 -5.86751e-11 1 2
5029 1 1.92385 4.97859 0.02 0 0 0 1 2
5033 1 2.10981 5.00813 0.02 0 0 0 1 2
5032 1 2.11865 4.79343 0.02 0 0 0 1 2
5031 1 2.07836 5.21627 0.02 0 0 0 1 2
5030 1 1.89183 5.19178 0.02 0 0 0 1 2
4951 1 1.76799 3.03992 0.02 0 0 0 1 2
4918 1 1.69062 2.09454 0.02 0 0 0 1 2
4762 1 2.87057 5.19135 0.02 0 -3.81099e-22 1.09475e-22 1 2
4761 1 2.8885 4.9823 0.02 0 -5.71351e-21 8.31307e-22 1 2
452 2 2.2 9.6 0 0 0 0 1 5
487 2 2.4 9.8 0 0 0 0 1 5
5049 1 2.11131 5.41416 0.02 0 0 0 1 2
5048 1 2.07224 5.6108 0.02 0 0 0 1 2
5047 1 1.87781 5.60025 0.02 0 0 0 1 2
5046 1 1.90421 5.40185 0.02 0 0 0 1 2
4777 1 2.88939 5.40931 0.02 0 -3.88379e-24 1.8214e-24 1 2
4778 1 2.85963 5.62531 0.02 0 0 0 1 2
4867 1 1.63594 0.547152 0.02 0 0 0 1 2
4917 1 1.70829 1.89614 0.02 0 0 0 1 2
4904 1 1.71521 1.69926 0.02 0 0 0 1 2
486 2 2.2 9.8 0 0 0 0 1 5
451 2 2 9.6 0 0 0 0 1 5
485 2 2 9.8 0 0 0 0 1 5
5062 1 2.09661 5.8067 0.02 0 7.94243e-11 -1.80505e-10 1 2
5063 1 2.10766 6.00258 0.02 0 5.67131e-08 -1.25244e-07 1 2
5061 1 1.90826 5.98727 0.02 0 2.02335e-09 -5.87332e-09 1 2
5059 1 1.88585 5.79748 0.02 0 1.65558e-13 -5.41319e-13 1 2
4798 1 2.91992 6.03142 0.02 0 -4.89295e-30 1.24468e-29 1 2
4797 1 2.88367 5.83395 0.02 0 0 0 1 2
4950 1 1.75394 2.85047 0.02 0 0 0 1 2
5074 1 1.72143 6.39243 0.02 0 1.7961e-06 -3.56692e-06 1 2
420 2 2.6 9.4 0 0 0 0 1 5
5073 1 1.9192 6.1839 0.02 0 8.20397e-07 -1.74769e-06 1 2
5075 1 1.92182 6.38198 0.02 0 3.60099e-05 -6.81867e-05 1 2
5076 1 2.11608 6.20038 0.02 0 9.54356e-06 -1.55627e-05 1 2
5077 1 2.11385 6.40005 0.02 0 0.000174006 -0.00021107 1 2
4811 1 2.92577 6.22219 0.02 0 -1.04561e-23 9.03418e-24 1 2
4949 1 1.76763 2.66497 0.02 0 0 0 1 2
4812 1 2.94419 6.4045 0.02 0 -5.7707e-06 1.1384e-06 1 2
4932 1 1.71332 2.48033 0.02 0 0 0 1 2
5086 1 1.9602 6.76717 0.02 0 -0.00383361 0.000893258 1 2
5090 1 2.17701 6.76409 0.02 0 -0.00178888 0.000283663 1 2
5091 1 2.13813 6.58361 0.02 0 0.000611398 -0.000782094 1 2
5089 1 1.93197 6.57557 0.02 0 7.30144e-06 -0.000278963 1 2
5087 1 1.75223 6.745 0.02 0 -0.00168084 0.000551945 1 2
4826 1 2.95816 6.58449 0.02 0 -0.00124997 0.00019987 1 2
384 2 2.2 9.2 0 0 0 0 1 5
4931 1 1.71994 2.28888 0.02 0 0 0 1 2
9 2 2 7 0 0 0 0 1.00074 5
10 2 2.2 7 0 0 0 0 0.994442 5
11 2 2.4 7 0 0 0 0 0.985528 5
43 2 2 7.2 0 0 0 0 1.00081 5
44 2 2.2 7.2 0 0 0 0 0.994834 5
45 2 2.4 7.2 0 0 0 0 0.985612 5
47 2 2.8 7.2 0 0 0 0 1.01231 5
12 2 2.6 7 0 0 0 0 1.00161 5
46 2 2.6 7.2 0 0 0 0 1.00395 5
13 2 2.8 7 0 0 0 0 1.01141 5
147 2 2.4 7.8 0 0 0 0 1 5
78 2 2.2 7.4 0 0 0 0 0.998428 5
77 2 2 7.4 0 0 0 0 0.998068 5
79 2 2.4 7.4 0 0 0 0 0.98579 5
145 2 2 7.8 0 0 0 0 1 5
113 2 2.4 7.6 0 0 0 0 1 5
112 2 2.2 7.6 0 0 0 0 1 5
146 2 2.2 7.8 0 0 0 0 1 5
111 2 2 7.6 0 0 0 0 1 5
80 2 2.6 7.4 0 0 0 0 1 5
115 2 2.8 7.6 0 0 0 0 1 5
81 2 2.8 7.4 0 0 0 0 1.01228 5
114 2 2.6 7.6 0 0 0 0 1 5
148 2 2.6 7.8 0 0 0 0 1 5
149 2 2.8 7.8 0 0 0 0 1 5
215 2 2.4 8.2 0 0 0 0 1 5
214 2 2.2 8.2 0 0 0 0 1 5
213 2 2 8.2 0 0 0 0 1 5
181 2 2.4 8 0 0 0 0 1 5
180 2 2.2 8 0 0 0 0 1 5
179 2 2 8 0 0 0 0 1 5
182 2 2.6 8 0 0 0 0 1 5
217 2 2.8 8.2 0 0 0 0 1 5
216 2 2.6 8.2 0 0 0 0 1 5
183 2 2.8 8 0 0 0 0 1 5
248 2 2.2 8.4 0 0 0 0 1 5
249 2 2.4 8.4 0 0 0 0 1 5
281 2 2 8.6 0 0 0 0 1 5
282 2 2.2 8.6 0 0 0 0 1 5
283 2 2.4 8.6 0 0 0 0 1 5
247 2 2 8.4 0 0 0 0 1 5
250 2 2.6 8.4 0 0 0 0 1 5
251 2 2.8 8.4 0 0 0 0 1 5
284 2 2.6 8.6 0 0 0 0 1 5
285 2 2.8 8.6 0 0 0 0 1 5
350 2 2.2 9 0 0 0 0 1 5
349 2 2 9 0 0 0 0 1 5
317 2 2.4 8.8 0 0 0 0 1 5
316 2 2.2 8.8 0 0 0 0 1 5
315 2 2 8.8 0 0 0 0 1 5
351 2 2.4 9 0 0 0 0 1 5
318 2 2.6 8.8 0 0 0 0 1 5
319 2 2.8 8.8 0 0 0 0 1 5
352 2 2.6 9 0 0 0 0 1 5
353 2 2.8 9 0 0 0 0 1 5
418 2 2.2 9.4 0 0 0 0 1 5
383 2 2 9.2 0 0 0 0 1 5
417 2 2 9.4 0 0 0 0 1 5
385 2 2.4 9.2 0 0 0 0 1 5
419 2 2.4 9.4 0 0 0 0 1 5
5038 1 1.52727 5.25393 0.02 0 0 0 1 2
5025 1 1.55455 5.04089 0.02 0 0 0 1 2
5083 1 1.52488 6.56304 0.02 0 -7.90252e-08 3.06092e-09 1 2
5085 1 1.54228 6.74606 0.02 0 -7.91454e-05 2.95858e-05 1 2
4899 1 1.51319 1.72513 0.02 0 0 0 1 2
4900 1 1.54934 1.33266 0.02 0 0 0 1 2
4901 1 1.52892 1.52876 0.02 0 0 0 1 2
5071 1 1.49969 6.38403 0.02 0 0 0 1 2
5069 1 1.51462 6.20609 0.02 0 0 0 1 2
4915 1 1.50326 1.92009 0.02 0 0 0 1 2
5040 1 1.49642 5.45106 0.02 0 0 0 1 2
4929 1 1.51084 2.30172 0.02 0 0 0 1 2
5010 1 1.55479 4.59118 0.02 0 0 0 1 2
5008 1 1.54562 4.37884 0.02 0 0 0 1 2
4946 1 1.51566 2.82876 0.02 0 0 0 1 2
4947 1 1.55254 2.65315 0.02 0 0 0 1 2
4964 1 1.56034 3.20444 0.02 0 0 0 1 2
4979 1 1.50614 3.7745 0.02 0 0 0 1 2
5057 1 1.50203 6.02331 0.02 0 0 0 1 2
4993 1 1.50385 3.9719 0.02 0 0 0 1 2
4995 1 1.53496 4.17176 0.02 0 0 0 1 2
1583 2 3.2 -9.6 0 0 0 0 1 5
1582 2 3 -9.6 0 0 0 0 1 5
1549 2 3.2 -9.8 0 0 0 0 1 5
1548 2 3 -9.8 0 0 0 0 1 5
1515 2 3.2 -10 0 0 0 0 1 5
1514 2 3 -10 0 0 0 0 1 5
1584 2 3.4 -9.6 0 0 0 0 1 5
1550 2 3.4 -9.8 0 0 0 0 1 5
1516 2 3.4 -10 0 0 0 0 1 5
1586 2 3.8 -9.6 0 0 0 0 1 5
1585 2 3.6 -9.6 0 0 0 0 1 5
1552 2 3.8 -9.8 0 0 0 0 1 5
1551 2 3.6 -9.8 0 0 0 0 1 5
1518 2 3.8 -10 0 0 0 0 1 5
1517 2 3.6 -10 0 0 0 0 1 5
1588 2 4.2 -9.6 0 0 0 0 1 5
1587 2 4 -9.6 0 0 0 0 1 5
1554 2 4.2 -9.8 0 0 0 0 1 5
1553 2 4 -9.8 0 0 0 0 1 5
1520 2 4.2 -10 0 0 0 0 1 5
1519 2 4 -10 0 0 0 0 1 5
1616 2 3 -9.4 0 0 0 0 1 5
1617 2 3.2 -9.4 0 0 0 0 1 5
1651 2 3.2 -9.2 0 0 0 0 1 5
1650 2 3 -9.2 0 0 0 0 1 5
1652 2 3.4 -9.2 0 0 0 0 1 5
1618 2 3.4 -9.4 0 0 0 0 1 5
1653 2 3.6 -9.2 0 0 0 0 1 5
1654 2 3.8 -9.2 0 0 0 0 1 5
1620 2 3.8 -9.4 0 0 0 0 1 5
1619 2 3.6 -9.4 0 0 0 0 1 5
1622 2 4.2 -9.4 0 0 0 0 1 5
1655 2 4 -9.2 0 0 0 0 1 5
1656 2 4.2 -9.2 0 0 0 0 1 5
1621 2 4 -9.4 0 0 0 0 1 5
1719 2 3.2 -8.8 0 0 0 0 1 5
1718 2 3 -8.8 0 0 0 0 1 5
1685 2 3.2 -9 0 0 0 0 1 5
1684 2 3 -9 0 0 0 0 1 5
1686 2 3.4 -9 0 0 0 0 1 5
1720 2 3.4 -8.8 0 0 0 0 1 5
1687 2 3.6 -9 0 0 0 0 1 5
1688 2 3.8 -9 0 0 0 0 1 5
1721 2 3.6 -8.8 0 0 0 0 1 5
1722 2 3.8 -8.8 0 0 0 0 1 5
1689 2 4 -9 0 0 0 0 1 5
1690 2 4.2 -9 0 0 0 0 1 5
1723 2 4 -8.8 0 0 0 0 1 5
1724 2 4.2 -8.8 0 0 0 0 1 5
1752 2 3 -8.6 0 0 0 0 1 5
1753 2 3.2 -8.6 0 0 0 0 1 5
1786 2 3 -8.4 0 0 0 0 1 5
1787 2 3.2 -8.4 0 0 0 0 1 5
1754 2 3.4 -8.6 0 0 0 0 1 5
1788 2 3.4 -8.4 0 0 0 0 1 5
1755 2 3.6 -8.6 0 0 0 0 1 5
1756 2 3.8 -8.6 0 0 0 0 1 5
1789 2 3.6 -8.4 0 0 0 0 1 5
1790 2 3.8 -8.4 0 0 0 0 1 5
1757 2 4 -8.6 0 0 0 0 1 5
1758 2 4.2 -8.6 0 0 0 0 1 5
1791 2 4 -8.4 0 0 0 0 1 5
1792 2 4.2 -8.4 0 0 0 0 1 5
1820 2 3 -8.2 0 0 0 0 1 5
1821 2 3.2 -8.2 0 0 0 0 1 5
1854 2 3 -8 0 0 0 0 1 5
1855 2 3.2 -8 0 0 0 0 1 5
1822 2 3.4 -8.2 0 0 0 0 1 5
1856 2 3.4 -8 0 0 0 0 1 5