ITEM: TIMESTEP
70000
ITEM: NUMBER OF ATOMS
1029
ITEM: BOX BOUNDS ff ff pp
0.0000000000000000e+00 4.4000000000000004e+00
-1.0000000000000000e+01 1.0000000000000000e+01
-2.0000000000000000e-02 2.0000000000000000e-02
ITEM: ATOMS id type x y vx vy fx fy c_den c_phase
1509 2 2 -10 0 0 0 0 1 5
1510 2 2.2 -10 0 0 0 0 1 5
1511 2 2.4 -10 0 0 0 0 1 5
1543 2 2 -9.8 0 0 0 0 1 5
1544 2 2.2 -9.8 0 0 0 0 1 5
1545 2 2.4 -9.8 0 0 0 0 1 5
1577 2 2 -9.6 0 0 0 0 1 5
1578 2 2.2 -9.6 0 0 0 0 1 5
1579 2 2.4 -9.6 0 0 0 0 1 5
1512 2 2.6 -10 0 0 0 0 1 5
1513 2 2.8 -10 0 0 0 0 1 5
1546 2 2.6 -9.8 0 0 0 0 1 5
1547 2 2.8 -9.8 0 0 0 0 1 5
1580 2 2.6 -9.6 0 0 0 0 1 5
1581 2 2.8 -9.6 0 0 0 0 1 5
1645 2 2 -9.2 0 0 0 0 1 5
1646 2 2.2 -9.2 0 0 0 0 1 5
1647 2 2.4 -9.2 0 0 0 0 1 5
1613 2 2.4 -9.4 0 0 0 0 1 5
1612 2 2.2 -9.4 0 0 0 0 1 5
1611 2 2 -9.4 0 0 0 0 1 5
1648 2 2.6 -9.2 0 0 0 0 1 5
1649 2 2.8 -9.2 0 0 0 0 1 5
1615 2 2.8 -9.4 0 0 0 0 1 5
1614 2 2.6 -9.4 0 0 0 0 1 5
1679 2 2 -9 0 0 0 0 1 5
1680 2 2.2 -9 0 0 0 0 1 5
1681 2 2.4 -9 0 0 0 0 1 5
1713 2 2 -8.8 0 0 0 0 1 5
1714 2 2.2 -8.8 0 0 0 0 1 5
1715 2 2.4 -8.8 0 0 0 0 1 5
1682 2 2.6 -9 0 0 0 0 1 5
1683 2 2.8 -9 0 0 0 0 1 5
1716 2 2.6 -8.8 0 0 0 0 1 5
1717 2 2.8 -8.8 0 0 0 0 1 5
1783 2 2.4 -8.4 0 0 0 0 1 5
1782 2 2.2 -8.4 0 0 0 0 1 5
1781 2 2 -8.4 0 0 0 0 1 5
1747 2 2 -8.6 0 0 0 0 1 5
1748 2 2.2 -8.6 0 0 0 0 1 5
1749 2 2.4 -8.6 0 0 0 0 1 5
1785 2 2.8 -8.4 0 0 0 0 1 5
1784 2 2.6 -8.4 0 0 0 0 1 5
1750 2 2.6 -8.6 0 0 0 0 1 5
1751 2 2.8 -8.6 0 0 0 0 1 5
1851 2 2.4 -8 0 0 0 0 1 5
1850 2 2.2 -8 0 0 0 0 1 5
1849 2 2 -8 0 0 0 0 1 5
1817 2 2.4 -8.2 0 0 0 0 1 5
1816 2 2.2 -8.2 0 0 0 0 1 5
1815 2 2 -8.2 0 0 0 0 1 5
1853 2 2.8 -8 0 0 0 0 1 5
1852 2 2.6 -8 0 0 0 0 1 5
1819 2 2.8 -8.2 0 0 0 0 1 5
1818 2 2.6 -8.2 0 0 0 0 1 5
1953 2 2.4 -7.4 0 0 0 0 1.00105 5
1952 2 2.2 -7.4 0 0 0 0 1.00112 5
1951 2 2 -7.4 0 0 0 0 1.00146 5
1919 2 2.4 -7.6 0 0 0 0 1 5
1918 2 2.2 -7.6 0 0 0 0 1 5
1917 2 2 -7.6 0 0 0 0 1 5
1885 2 2.4 -7.8 0 0 0 0 1 5
1884 2 2.2 -7.8 0 0 0 0 1 5
1883 2 2 -7.8 0 0 0 0 1 5
1955 2 2.8 -7.4 0 0 0 0 1.00051 5
1954 2 2.6 -7.4 0 0 0 0 0.997606 5
1921 2 2.8 -7.6 0 0 0 0 1 5
1920 2 2.6 -7.6 0 0 0 0 1 5
1887 2 2.8 -7.8 0 0 0 0 1 5
1886 2 2.6 -7.8 0 0 0 0 1 5
2021 2 2.4 -7 0 0 0 0 1.0001 5
2020 2 2.2 -7 0 0 0 0 1.00086 5
2019 2 2 -7 0 0 0 0 1.00458 5
1987 2 2.4 -7.2 0 0 0 0 1.0003 5
1986 2 2.2 -7.2 0 0 0 0 1.00087 5
1985 2 2 -7.2 0 0 0 0 1.00374 5
2023 2 2.8 -7 0 0 0 0 0.999732 5
2022 2 2.6 -7 0 0 0 0 0.999568 5
1989 2 2.8 -7.2 0 0 0 0 0.99953 5
1988 2 2.6 -7.2 0 0 0 0 0.999114 5
5479 1 2.22072 -6.73288 0.02 0 -0.00166169 -0.000343004 1 2
5481 1 2.25902 -6.55059 0.02 0 0.000458082 0.000683143 1 2
5478 1 2.02507 -6.74131 0.02 0 -0.004533 -0.000530447 1 2
5477 1 2.06046 -6.55585 0.02 0 5.21097e-05 0.000271462 1 2
5485 1 2.63843 -6.5457 0.02 0 0.000175222 0.000455205 1 2
5483 1 2.61492 -6.73507 0.02 0 -0.0023742 -0.000456195 1 2
5480 1 2.41797 -6.75405 0.02 0 -0.00287996 -0.000480657 1 2
5482 1 2.4478 -6.56092 0.02 0 0.000190571 0.000525987 1 2
5484 1 2.80919 -6.74316 0.02 0 -0.00291776 -0.000453149 1 2
5407 1 2.81798 -1.57847 0.02 0 0 0 1 2
5406 1 2.81362 -1.3828 0.02 0 0 0 1 2
5486 1 2.83078 -6.54895 0.02 0 0.000168193 0.000459588 1 2
5363 1 2.53925 -0.307971 0.02 0 0 0 1 2
5369 1 2.14312 -0.347981 0.02 0 0 0 1 2
5492 1 2.01885 -6.37194 0.02 0 -8.38807e-07 -2.91789e-07 1 2
5495 1 2.27642 -6.18267 0.02 0 7.41322e-06 1.38313e-05 1 2
5493 1 2.22683 -6.3674 0.02 0 0.000132255 0.000149729 1 2
5491 1 2.07481 -6.18665 0.02 0 2.17612e-06 3.59969e-06 1 2
5497 1 2.63124 -6.35019 0.02 0 7.14534e-05 0.000100364 1 2
5499 1 2.65664 -6.14888 0.02 0 2.8779e-06 6.691e-06 1 2
5494 1 2.43566 -6.36328 0.02 0 9.56912e-05 0.000126283 1 2
5496 1 2.4677 -6.16039 0.02 0 3.75529e-06 8.46141e-06 1 2
5498 1 2.82276 -6.34812 0.02 0 6.94175e-05 9.83394e-05 1 2
5500 1 2.84468 -6.14239 0.02 0 2.46194e-06 5.57235e-06 1 2
5408 1 2.45012 -1.35657 0.02 0 0 0 1 2
5411 1 2.41759 -1.55807 0.02 0 0 0 1 2
5367 1 2.33496 -0.127069 0.02 0 0 0 1 2
5370 1 2.1232 -0.152884 0.02 0 0 0 1 2
5506 1 2.28698 -5.98398 0.02 0 3.05021e-08 9.21639e-08 1 2
5508 1 2.32809 -5.77274 0.02 0 6.07381e-12 2.96671e-11 1 2
5505 1 2.08513 -5.99723 0.02 0 5.8619e-08 8.75784e-08 1 2
5507 1 2.1343 -5.80658 0.02 0 2.36744e-10 2.88577e-10 1 2
5511 1 2.67229 -5.94497 0.02 0 2.33786e-09 1.30046e-08 1 2
5510 1 2.52 -5.75045 0.02 0 9.91821e-13 7.2316e-12 1 2
5509 1 2.47938 -5.95423 0.02 0 5.0586e-09 2.00992e-08 1 2
5513 1 2.71077 -5.73937 0.02 0 2.99025e-13 2.40044e-12 1 2
5395 1 2.0414 -0.901014 0.02 0 0 0 1 2
5396 1 2.2343 -1.12575 0.02 0 0 0 1 2
5514 1 2.89449 -5.71422 0.02 0 4.30531e-14 3.87783e-13 1 2
5512 1 2.86284 -5.93286 0.02 0 1.1685e-09 6.349e-09 1 2
5405 1 2.6351 -1.30639 0.02 0 0 0 1 2
5410 1 2.62553 -1.73106 0.02 0 0 0 1 2
5523 1 2.15341 -5.227 0.02 0 0 0 1 2
5519 1 2.13956 -5.61253 0.02 0 0 0 1 2
5521 1 2.14602 -5.41997 0.02 0 0 0 1 2
5525 1 2.56086 -5.35484 0.02 0 0 0 1 2
5524 1 2.54286 -5.55149 0.02 0 0 0 1 2
5522 1 2.35453 -5.36883 0.02 0 0 0 1 2
5520 1 2.34142 -5.56602 0.02 0 0 0 1 2
5527 1 2.76277 -5.32498 0.02 0 0 0 1 2
5526 1 2.74164 -5.5274 0.02 0 0 0 1 2
5409 1 2.61626 -1.52623 0.02 0 0 0 1 2
5528 1 2.94011 -5.51011 0.02 0 0 0 1 2
5383 1 2.02589 -0.705281 0.02 0 0 0 1 2
5382 1 2.23191 -0.732508 0.02 0 0 0 1 2
5533 1 2.12413 -5.03675 0.02 0 0 0 1 2
5535 1 2.32862 -4.99135 0.02 0 0 0 1 2
5536 1 2.1438 -4.84099 0.02 0 0 0 1 2
5538 1 2.56972 -5.15865 0.02 0 0 0 1 2
5539 1 2.5378 -4.96681 0.02 0 0 0 1 2
5534 1 2.36166 -5.17716 0.02 0 0 0 1 2
5537 1 2.3512 -4.80092 0.02 0 0 0 1 2
5541 1 2.74556 -4.9405 0.02 0 0 0 1 2
5540 1 2.77483 -5.12872 0.02 0 0 0 1 2
5415 1 2.03631 -1.73208 0.02 0 0 0 1 2
5543 1 2.95978 -4.9288 0.02 0 0 0 1 2
5381 1 2.19715 -0.539044 0.02 0 0 0 1 2
5376 1 2.82357 -0.729174 0.02 0 0 0 1 2
5547 1 2.30976 -4.61708 0.02 0 0 0 1 2
5549 1 2.30644 -4.42822 0.02 0 0 0 1 2
5546 1 2.10509 -4.65191 0.02 0 0 0 1 2
5548 1 2.10419 -4.4537 0.02 0 0 0 1 2
5550 1 2.55489 -4.77054 0.02 0 0 0 1 2
5552 1 2.51564 -4.57905 0.02 0 0 0 1 2
5553 1 2.50357 -4.38703 0.02 0 0 0 1 2
5555 1 2.71522 -4.37673 0.02 0 0 0 1 2
5554 1 2.71881 -4.56381 0.02 0 0 0 1 2
5551 1 2.76123 -4.75097 0.02 0 0 0 1 2
5559 1 2.94221 -4.36488 0.02 0 0 0 1 2
5558 1 2.92297 -4.55212 0.02 0 0 0 1 2
5413 1 2.22519 -1.53436 0.02 0 0 0 1 2
5412 1 2.25952 -1.32969 0.02 0 0 0 1 2
5414 1 2.04036 -1.50843 0.02 0 0 0 1 2
5564 1 2.26461 -4.07209 0.02 0 0 0 1 2
5562 1 2.25994 -4.25029 0.02 0 0 0 1 2
5563 1 2.03813 -4.07443 0.02 0 0 0 1 2
5561 1 2.04841 -4.26376 0.02 0 0 0 1 2
5568 1 2.67399 -4.0183 0.02 0 0 0 1 2
5565 1 2.50156 -4.20495 0.02 0 0 0 1 2
5566 1 2.46698 -4.02467 0.02 0 0 0 1 2
5567 1 2.7328 -4.19478 0.02 0 0 0 1 2
5571 1 2.88898 -3.99128 0.02 0 0 0 1 2
5394 1 2.24406 -0.929103 0.02 0 0 0 1 2
5570 1 2.94014 -4.17818 0.02 0 0 0 1 2
5388 1 2.81676 -0.94471 0.02 0 0 0 1 2
5389 1 2.81995 -1.16358 0.02 0 0 0 1 2
5366 1 2.5455 -0.114722 0.02 0 0 0 1 2
5579 1 2.20961 -3.51178 0.02 0 0 0 1 2
5578 1 2.23132 -3.70607 0.02 0 0 0 1 2
5576 1 2.22744 -3.89342 0.02 0 0 0 1 2
5575 1 2.00767 -3.89035 0.02 0 0 0 1 2
5577 1 2.02293 -3.70246 0.02 0 0 0 1 2
5583 1 2.64055 -3.65631 0.02 0 0 0 1 2
5580 1 2.43244 -3.65883 0.02 0 0 0 1 2
5581 1 2.45531 -3.84291 0.02 0 0 0 1 2
5582 1 2.69121 -3.83416 0.02 0 0 0 1 2
5585 1 2.90379 -3.7986 0.02 0 0 0 1 2
5584 1 2.8519 -3.61681 0.02 0 0 0 1 2
5392 1 2.43954 -0.939246 0.02 0 0 0 1 2
5397 1 2.02893 -1.09749 0.02 0 0 0 1 2
5368 1 2.33932 -0.325939 0.02 0 0 0 1 2
5474 1 2.15384 -3.12678 0.02 0 0 0 1 2
5475 1 2.21817 -3.31305 0.02 0 0 0 1 2
5476 1 2.01697 -3.32049 0.02 0 0 0 1 2
5470 1 2.62708 -3.46596 0.02 0 0 0 1 2
5466 1 2.5977 -3.07923 0.02 0 0 0 1 2
5468 1 2.61687 -3.27108 0.02 0 0 0 1 2
5471 1 2.41605 -3.27594 0.02 0 0 0 1 2
5472 1 2.41653 -3.46983 0.02 0 0 0 1 2
5473 1 2.37393 -3.09032 0.02 0 0 0 1 2
5467 1 2.81841 -3.24257 0.02 0 0 0 1 2
5398 1 2.06596 -1.29527 0.02 0 0 0 1 2
5469 1 2.83449 -3.43006 0.02 0 0 0 1 2
5380 1 2.42991 -0.727275 0.02 0 0 0 1 2
5465 1 2.82921 -3.05803 0.02 0 0 0 1 2
5393 1 2.43606 -1.14737 0.02 0 0 0 1 2
5391 1 2.63111 -1.09695 0.02 0 0 0 1 2
5460 1 2.15082 -2.93542 0.02 0 0 0 1 2
5457 1 2.30997 -2.71402 0.02 0 0 0 1 2
5458 1 2.09829 -2.74803 0.02 0 0 0 1 2
5456 1 2.55206 -2.89076 0.02 0 0 0 1 2
5454 1 2.53034 -2.70067 0.02 0 0 0 1 2
5459 1 2.35116 -2.90063 0.02 0 0 0 1 2
5455 1 2.75242 -2.88458 0.02 0 0 0 1 2
5453 1 2.75156 -2.69355 0.02 0 0 0 1 2
5450 1 2.96088 -2.86124 0.02 0 0 0 1 2
5420 1 2.84484 -1.95252 0.02 0 0 0 1 2
5377 1 2.60324 -0.495489 0.02 0 0 0 1 2
5375 1 2.80779 -0.520835 0.02 0 0 0 1 2
5365 1 2.75521 -0.132791 0.02 0 0 0 1 2
5379 1 2.40136 -0.522502 0.02 0 0 0 1 2
5444 1 2.03052 -2.36162 0.02 0 0 0 1 2
5446 1 2.09314 -2.5513 0.02 0 0 0 1 2
5445 1 2.2942 -2.52318 0.02 0 0 0 1 2
5443 1 2.23554 -2.33645 0.02 0 0 0 1 2
5439 1 2.65858 -2.31389 0.02 0 0 0 1 2
5442 1 2.49936 -2.51352 0.02 0 0 0 1 2
5440 1 2.44808 -2.328 0.02 0 0 0 1 2
5441 1 2.70351 -2.50583 0.02 0 0 0 1 2
5438 1 2.87322 -2.31586 0.02 0 0 0 1 2
5437 1 2.91029 -2.49806 0.02 0 0 0 1 2
5378 1 2.62554 -0.690232 0.02 0 0 0 1 2
5390 1 2.6291 -0.889731 0.02 0 0 0 1 2
5364 1 2.75405 -0.323908 0.02 0 0 0 1 2
5430 1 2.02529 -1.94759 0.02 0 0 0 1 2
5432 1 2.02298 -2.15848 0.02 0 0 0 1 2
5431 1 2.21958 -2.14153 0.02 0 0 0 1 2
5429 1 2.21959 -1.94213 0.02 0 0 0 1 2
5425 1 2.2288 -1.74 0.02 0 0 0 1 2
5423 1 2.6294 -1.92978 0.02 0 0 0 1 2
5424 1 2.63698 -2.12238 0.02 0 0 0 1 2
5426 1 2.42689 -1.75666 0.02 0 0 0 1 2
5427 1 2.42211 -1.95058 0.02 0 0 0 1 2
5428 1 2.42586 -2.14062 0.02 0 0 0 1 2
5422 1 2.83024 -1.76826 0.02 0 0 0 1 2
5421 1 2.85279 -2.13465 0.02 0 0 0 1 2
5361 1 2.30942 0.262486 0.02 0 0 0 1 2
5358 1 2.14756 0.0395651 0.02 0 0 0 1 2
5359 1 2.11256 0.237385 0.02 0 0 0 1 2
5362 1 2.55115 0.0800426 0.02 0 0 0 1 2
5363 1 2.5193 0.273847 0.02 0 0 0 1 2
5360 1 2.34912 0.0702503 0.02 0 0 0 1 2
5366 1 2.78972 0.42973 0.02 0 0 0 1 2
5365 1 2.73293 0.249339 0.02 0 0 0 1 2
5364 1 2.75625 0.059238 0.02 0 0 0 1 2
115 2 2.8 7.6 0 0 0 0 1 5
5368 1 2.95882 0.234911 0.02 0 0 0 1 2
5367 1 2.96354 0.0474776 0.02 0 0 0 1 2
319 2 2.8 8.8 0 0 0 0 1 5
318 2 2.6 8.8 0 0 0 0 1 5
5373 1 2.14907 0.63279 0.02 0 0 0 1 2
5374 1 2.17119 0.834251 0.02 0 0 0 1 2
5372 1 2.12851 0.437467 0.02 0 0 0 1 2
5381 1 2.57989 0.852508 0.02 0 0 0 1 2
5378 1 2.57553 0.459561 0.02 0 0 0 1 2
5379 1 2.55974 0.654789 0.02 0 0 0 1 2
5375 1 2.35284 0.447179 0.02 0 0 0 1 2
5376 1 2.3525 0.632799 0.02 0 0 0 1 2
5377 1 2.37378 0.823418 0.02 0 0 0 1 2
5382 1 2.78638 0.813736 0.02 0 0 0 1 2
5380 1 2.76298 0.621671 0.02 0 0 0 1 2
111 2 2 7.6 0 0 0 0 1 5
146 2 2.2 7.8 0 0 0 0 1 5
315 2 2 8.8 0 0 0 0 1 5
353 2 2.8 9 0 0 0 0 1 5
5389 1 2.22028 1.24564 0.02 0 0 0 1 2
5388 1 2.0348 1.27261 0.02 0 0 0 1 2
5387 1 2.19265 1.03793 0.02 0 0 0 1 2
5393 1 2.59284 1.27811 0.02 0 0 0 1 2
5392 1 2.57944 1.06131 0.02 0 0 0 1 2
5390 1 2.38764 1.02007 0.02 0 0 0 1 2
5391 1 2.40629 1.22846 0.02 0 0 0 1 2
5395 1 2.77217 1.21399 0.02 0 0 0 1 2
5394 1 2.7678 1.00984 0.02 0 0 0 1 2
5398 1 2.95431 1.25685 0.02 0 0 0 1 2
5397 1 2.95901 1.02482 0.02 0 0 0 1 2
316 2 2.2 8.8 0 0 0 0 1 5
317 2 2.4 8.8 0 0 0 0 1 5
489 2 2.8 9.8 0 0 0 0 1 5
5404 1 2.28111 1.67485 0.02 0 0 0 1 2
5402 1 2.25862 1.45902 0.02 0 0 0 1 2
5403 1 2.09756 1.69001 0.02 0 0 0 1 2
5401 1 2.07326 1.47994 0.02 0 0 0 1 2
5406 1 2.62519 1.4966 0.02 0 0 0 1 2
5408 1 2.64978 1.7034 0.02 0 0 0 1 2
5405 1 2.44132 1.44703 0.02 0 0 0 1 2
5407 1 2.46463 1.67125 0.02 0 0 0 1 2
5409 1 2.79892 1.42705 0.02 0 0 0 1 2
5410 1 2.8299 1.68017 0.02 0 0 0 1 2
5411 1 2.96449 1.51908 0.02 0 0 0 1 2
349 2 2 9 0 0 0 0 1 5
350 2 2.2 9 0 0 0 0 1 5
488 2 2.6 9.8 0 0 0 0 1 5
5417 1 2.32084 1.88768 0.02 0 0 0 1 2
5415 1 2.14359 1.916 0.02 0 0 0 1 2
5416 1 2.1765 2.14432 0.02 0 0 0 1 2
5420 1 2.67927 1.91786 0.02 0 0 0 1 2
5419 1 2.50048 1.89594 0.02 0 0 0 1 2
5421 1 2.53617 2.11603 0.02 0 0 0 1 2
5418 1 2.35391 2.10474 0.02 0 0 0 1 2
5422 1 2.70989 2.15869 0.02 0 0 0 1 2
112 2 2.2 7.6 0 0 0 0 1 5
113 2 2.4 7.6 0 0 0 0 1 5
5423 1 2.85412 1.92671 0.02 0 0 0 1 2
5424 1 2.88589 2.16428 0.02 0 0 0 1 2
285 2 2.8 8.6 0 0 0 0 1 5
455 2 2.8 9.6 0 0 0 0 1 5
5430 1 2.0304 2.30901 0.02 0 0 0 1 2
5429 1 2.01504 2.5326 0.02 0 0 0 1 2
5431 1 2.20996 2.36875 0.02 0 0 0 1 2
5432 1 2.19049 2.59423 0.02 0 0 0 1 2
5435 1 2.5686 2.3479 0.02 0 0 0 1 2
5436 1 2.55044 2.57915 0.02 0 0 0 1 2
5433 1 2.37099 2.53851 0.02 0 0 0 1 2
5434 1 2.38999 2.32008 0.02 0 0 0 1 2
5438 1 2.73185 2.60407 0.02 0 0 0 1 2
5437 1 2.74113 2.39116 0.02 0 0 0 1 2
283 2 2.4 8.6 0 0 0 0 1 5
282 2 2.2 8.6 0 0 0 0 1 5
5440 1 2.91612 2.41636 0.02 0 0 0 1 2
454 2 2.6 9.6 0 0 0 0 1 5
351 2 2.4 9 0 0 0 0 1 5
5444 1 2.00237 2.76028 0.02 0 0 0 1 2
5446 1 2.17587 3.02846 0.02 0 0 0 1 2
5445 1 2.18806 2.8109 0.02 0 0 0 1 2
5449 1 2.55548 2.8148 0.02 0 0 0 1 2
5452 1 2.53274 3.04024 0.02 0 0 0 1 2
5447 1 2.37618 2.75478 0.02 0 0 0 1 2
5448 1 2.35912 2.9707 0.02 0 0 0 1 2
5451 1 2.71886 3.02303 0.02 0 0 0 1 2
5450 1 2.74205 2.81103 0.02 0 0 0 1 2
281 2 2 8.6 0 0 0 0 1 5
183 2 2.8 8 0 0 0 0 1 5
5455 1 2.91231 2.88967 0.02 0 0 0 1 2
5453 1 2.91341 2.65195 0.02 0 0 0 1 2
453 2 2.4 9.6 0 0 0 0 1 5
452 2 2.2 9.6 0 0 0 0 1 5
5461 1 2.30785 3.41439 0.02 0 0 0 1 2
5459 1 2.14434 3.23163 0.02 0 0 0 1 2
5460 1 2.11426 3.43426 0.02 0 0 0 1 2
5463 1 2.52795 3.24732 0.02 0 0 0 1 2
5465 1 2.4982 3.44591 0.02 0 0 0 1 2
5462 1 2.34038 3.1994 0.02 0 0 0 1 2
5464 1 2.71875 3.2457 0.02 0 0 0 1 2
5466 1 2.69348 3.45689 0.02 0 0 0 1 2
216 2 2.6 8.2 0 0 0 0 1 5
217 2 2.8 8.2 0 0 0 0 1 5
5469 1 2.90268 3.31899 0.02 0 0 0 1 2
5467 1 2.89442 3.1084 0.02 0 0 0 1 2
487 2 2.4 9.8 0 0 0 0 1 5
486 2 2.2 9.8 0 0 0 0 1 5
5475 1 2.04577 3.82853 0.02 0 0 0 1 2
5474 1 2.2784 3.6212 0.02 0 0 0 1 2
5476 1 2.24876 3.81922 0.02 0 0 0 1 2
5473 1 2.07067 3.63127 0.02 0 0 0 1 2
5478 1 2.69048 3.66113 0.02 0 0 0 1 2
5480 1 2.64983 3.85286 0.02 0 0 0 1 2
5477 1 2.48366 3.64157 0.02 0 0 0 1 2
5479 1 2.44986 3.83413 0.02 0 0 0 1 2
5484 1 2.89832 3.71021 0.02 0 0 0 1 2
5482 1 2.84691 3.89312 0.02 0 0 0 1 2
5481 1 2.88389 3.51782 0.02 0 0 0 1 2
182 2 2.6 8 0 0 0 0 1 5
180 2 2.2 8 0 0 0 0 1 5
181 2 2.4 8 0 0 0 0 1 5
451 2 2 9.6 0 0 0 0 1 5
485 2 2 9.8 0 0 0 0 1 5
5491 1 2.02114 4.23193 0.02 0 0 0 1 2
5489 1 2.01615 4.02729 0.02 0 0 0 1 2
5490 1 2.21865 4.01573 0.02 0 0 0 1 2
5492 1 2.22003 4.21125 0.02 0 0 0 1 2
5496 1 2.65405 4.22757 0.02 0 0 0 1 2
5495 1 2.63977 4.04433 0.02 0 0 0 1 2
5494 1 2.43125 4.21785 0.02 0 0 0 1 2
5493 1 2.42625 4.02704 0.02 0 0 0 1 2
5498 1 2.88247 4.25175 0.02 0 0 0 1 2
5497 1 2.86894 4.07529 0.02 0 0 0 1 2
213 2 2 8.2 0 0 0 0 1 5
214 2 2.2 8.2 0 0 0 0 1 5
386 2 2.6 9.2 0 0 0 0 1 5
387 2 2.8 9.2 0 0 0 0 1 5
5504 1 2.04631 4.43587 0.02 0 0 0 1 2
5506 1 2.05283 4.63593 0.02 0 0 0 1 2
5507 1 2.25743 4.60341 0.02 0 0 0 1 2
5505 1 2.24431 4.4065 0.02 0 0 0 1 2
5511 1 2.68743 4.59867 0.02 0 0 0 1 2
5509 1 2.64704 4.41346 0.02 0 0 0 1 2
5510 1 2.46967 4.60699 0.02 0 0 0 1 2
5508 1 2.44508 4.41157 0.02 0 0 0 1 2
5514 1 2.91064 4.59908 0.02 0 0 0 1 2
5512 1 2.86124 4.42752 0.02 0 0 0 1 2
284 2 2.6 8.6 0 0 0 0 1 5
251 2 2.8 8.4 0 0 0 0 1 5
421 2 2.8 9.4 0 0 0 0 1 5
5517 1 2.07323 4.82569 0.02 0 0 0 1 2
5520 1 2.27886 4.9907 0.02 0 0 0 1 2
5518 1 2.28465 4.79587 0.02 0 0 0 1 2
5522 1 2.28667 5.18673 0.02 0 0 0 1 2
5519 1 2.07261 5.01451 0.02 0 0 0 1 2
5521 1 2.07762 5.20376 0.02 0 0 0 1 2
5526 1 2.6754 4.97869 0.02 0 0 0 1 2
5524 1 2.48994 4.80312 0.02 0 0 0 1 2
5527 1 2.49064 5.20648 0.02 0 0 0 1 2
5525 1 2.47937 5.00674 0.02 0 0 0 1 2
5523 1 2.69725 4.7851 0.02 0 0 0 1 2
5528 1 2.69138 5.17796 0.02 0 0 0 1 2
5529 1 2.87611 4.96838 0.02 0 0 0 1 2
5530 1 2.91411 4.78575 0.02 0 0 0 1 2
5533 1 2.89672 5.16103 0.02 0 0 0 1 2
250 2 2.6 8.4 0 0 0 0 1 5
215 2 2.4 8.2 0 0 0 0 1 5
249 2 2.4 8.4 0 0 0 0 1 5
420 2 2.6 9.4 0 0 0 0 1 5
5536 1 2.04269 5.39256 0.02 0 0 0 1 2
5538 1 2.08597 5.58057 0.02 0 0 0 1 2
5539 1 2.30076 5.56759 0.02 0 0 0 1 2
5537 1 2.24946 5.37955 0.02 0 0 0 1 2
5541 1 2.67182 5.37684 0.02 0 0 0 1 2
5542 1 2.51252 5.58596 0.02 0 0 0 1 2
5540 1 2.45954 5.39777 0.02 0 0 0 1 2
5543 1 2.71247 5.57105 0.02 0 0 0 1 2
5548 1 2.90475 5.55139 0.02 0 0 0 1 2
5544 1 2.87966 5.35238 0.02 0 0 0 1 2
179 2 2 8 0 0 0 0 1 5
149 2 2.8 7.8 0 0 0 0 1 5
385 2 2.4 9.2 0 0 0 0 1 5
419 2 2.4 9.4 0 0 0 0 1 5
417 2 2 9.4 0 0 0 0 1 5
5554 1 2.29327 5.94709 0.02 0 8.59212e-09 -2.48444e-08 1 2
5552 1 2.27666 5.75422 0.02 0 3.19669e-12 -1.00218e-11 1 2
5553 1 2.104 5.96958 0.02 0 0 0 1 2
5551 1 2.07036 5.77175 0.02 0 0 0 1 2
5558 1 2.67574 5.95868 0.02 0 7.91121e-09 -2.9416e-08 1 2
5555 1 2.48489 5.77797 0.02 0 4.47731e-12 -1.53918e-11 1 2
5557 1 2.48291 5.97861 0.02 0 1.88839e-08 -7.71579e-08 1 2
5556 1 2.6929 5.76692 0.02 0 3.47735e-12 -1.17575e-11 1 2
80 2 2.6 7.4 0 0 0 0 1.00024 5
148 2 2.6 7.8 0 0 0 0 1 5
5559 1 2.87199 5.97404 0.02 0 1.47515e-08 -6.02351e-08 1 2
5562 1 2.89064 5.7632 0.02 0 1.84202e-12 -6.08407e-12 1 2
418 2 2.2 9.4 0 0 0 0 1 5
384 2 2.2 9.2 0 0 0 0 1 5
5568 1 2.3178 6.35423 0.02 0 0.000117526 -0.000142986 1 2
5566 1 2.30725 6.15029 0.02 0 4.41079e-06 -8.99963e-06 1 2
5567 1 2.12896 6.36128 0.02 0 -3.45706e-07 6.42306e-08 1 2
5565 1 2.11637 6.16723 0.02 0 0 0 1 2
5570 1 2.68623 6.15467 0.02 0 3.46336e-06 -8.5901e-06 1 2
5569 1 2.49732 6.18188 0.02 0 6.82992e-06 -1.38376e-05 1 2
5571 1 2.51122 6.37729 0.02 0 0.00012331 -0.000158755 1 2
5572 1 2.70714 6.35456 0.02 0 8.14487e-05 -0.000124981 1 2
114 2 2.6 7.6 0 0 0 0 1 5
81 2 2.8 7.4 0 0 0 0 0.998445 5
5577 1 2.90577 6.38128 0.02 0 0.000103895 -0.000144817 1 2
5573 1 2.87591 6.18301 0.02 0 6.26026e-06 -1.40451e-05 1 2
383 2 2 9.2 0 0 0 0 1 5
352 2 2.6 9 0 0 0 0 1 5
5580 1 2.15826 6.7342 0.02 0 -0.00338983 9.23922e-05 1 2
5581 1 2.15672 6.54974 0.02 0 -0.00050355 9.0165e-05 1 2
5585 1 2.55692 6.56297 0.02 0 0.000186161 -0.000424313 1 2
5584 1 2.54746 6.74535 0.02 0 -0.00265456 0.000437825 1 2
5579 1 2.34878 6.74121 0.02 0 -0.0021914 0.000310886 1 2
5582 1 2.35838 6.5517 0.02 0 0.000407594 -0.000482825 1 2
5586 1 2.74267 6.55435 0.02 0 0.000166769 -0.000356276 1 2
5583 1 2.75548 6.75375 0.02 0 -0.00293559 0.000475415 1 2
5589 1 2.9326 6.57033 0.02 0 0.000139302 -0.00043026 1 2
5588 1 2.96233 6.75258 0.02 0 -0.00287679 0.000529122 1 2
248 2 2.2 8.4 0 0 0 0 1 5
247 2 2 8.4 0 0 0 0 1 5
9 2 2 7 0 0 0 0 1.0096 5
10 2 2.2 7 0 0 0 0 1.00301 5
11 2 2.4 7 0 0 0 0 1.00043 5
43 2 2 7.2 0 0 0 0 1.00942 5
44 2 2.2 7.2 0 0 0 0 1.0026 5
45 2 2.4 7.2 0 0 0 0 1.00057 5
13 2 2.8 7 0 0 0 0 1.00031 5
46 2 2.6 7.2 0 0 0 0 1.00076 5
12 2 2.6 7 0 0 0 0 1.00036 5
47 2 2.8 7.2 0 0 0 0 1.0004 5
147 2 2.4 7.8 0 0 0 0 1 5
78 2 2.2 7.4 0 0 0 0 0.999706 5
77 2 2 7.4 0 0 0 0 1.00869 5
79 2 2.4 7.4 0 0 0 0 0.99917 5
145 2 2 7.8 0 0 0 0 1 5
1583 2 3.2 -9.6 0 0 0 0 1 5
1582 2 3 -9.6 0 0 0 0 1 5
1549 2 3.2 -9.8 0 0 0 0 1 5
1548 2 3 -9.8 0 0 0 0 1 5
1515 2 3.2 -10 0 0 0 0 1 5
1514 2 3 -10 0 0 0 0 1 5
1584 2 3.4 -9.6 0 0 0 0 1 5
1550 2 3.4 -9.8 0 0 0 0 1 5
1516 2 3.4 -10 0 0 0 0 1 5
1586 2 3.8 -9.6 0 0 0 0 1 5
1585 2 3.6 -9.6 0 0 0 0 1 5
1552 2 3.8 -9.8 0 0 0 0 1 5
1551 2 3.6 -9.8 0 0 0 0 1 5
1518 2 3.8 -10 0 0 0 0 1 5
1517 2 3.6 -10 0 0 0 0 1 5
1588 2 4.2 -9.6 0 0 0 0 1 5
1587 2 4 -9.6 0 0 0 0 1 5
1554 2 4.2 -9.8 0 0 0 0 1 5
1553 2 4 -9.8 0 0 0 0 1 5
1520 2 4.2 -10 0 0 0 0 1 5
1519 2 4 -10 0 0 0 0 1 5
1616 2 3 -9.4 0 0 0 0 1 5
1617 2 3.2 -9.4 0 0 0 0 1 5
1651 2 3.2 -9.2 0 0 0 0 1 5
1650 2 3 -9.2 0 0 0 0 1 5
1652 2 3.4 -9.2 0 0 0 0 1 5
1618 2 3.4 -9.4 0 0 0 0 1 5
1653 2 3.6 -9.2 0 0 0 0 1 5
1654 2 3.8 -9.2 0 0 0 0 1 5
1620 2 3.8 -9.4 0 0 0 0 1 5
1619 2 3.6 -9.4 0 0 0 0 1 5
1622 2 4.2 -9.4 0 0 0 0 1 5
1655 2 4 -9.2 0 0 0 0 1 5
1656 2 4.2 -9.2 0 0 0 0 1 5
1621 2 4 -9.4 0 0 0 0 1 5
1719 2 3.2 -8.8 0 0 0 0 1 5
1718 2 3 -8.8 0 0 0 0 1 5
1685 2 3.2 -9 0 0 0 0 1 5
1684 2 3 -9 0 0 0 0 1 5
1686 2 3.4 -9 0 0 0 0 1 5
1720 2 3.4 -8.8 0 0 0 0 1 5
1687 2 3.6 -9 0 0 0 0 1 5
1688 2 3.8 -9 0 0 0 0 1 5
1721 2 3.6 -8.8 0 0 0 0 1 5
1722 2 3.8 -8.8 0 0 0 0 1 5
1689 2 4 -9 0 0 0 0 1 5
1690 2 4.2 -9 0 0 0 0 1 5
1723 2 4 -8.8 0 0 0 0 1 5
1724 2 4.2 -8.8 0 0 0 0 1 5
1752 2 3 -8.6 0 0 0 0 1 5
1753 2 3.2 -8.6 0 0 0 0 1 5
1786 2 3 -8.4 0 0 0 0 1 5
1787 2 3.2 -8.4 0 0 0 0 1 5
1754 2 3.4 -8.6 0 0 0 0 1 5
1788 2 3.4 -8.4 0 0 0 0 1 5
1755 2 3.6 -8.6 0 0 0 0 1 5
1756 2 3.8 -8.6 0 0 0 0 1 5
1789 2 3.6 -8.4 0 0 0 0 1 5
1790 2 3.8 -8.4 0 0 0 0 1 5
1757 2 4 -8.6 0 0 0 0 1 5
1758 2 4.2 -8.6 0 0 0 0 1 5
1791 2 4 -8.4 0 0 0 0 1 5
1792 2 4.2 -8.4 0 0 0 0 1 5
1820 2 3 -8.2 0 0 0 0 1 5
1821 2 3.2 -8.2 0 0 0 0 1 5
1854 2 3 -8 0 0 0 0 1 5
1855 2 3.2 -8 0 0 0 0 1 5
1822 2 3.4 -8.2 0 0 0 0 1 5
1856 2 3.4 -8 0 0 0 0 1 5
1823 2 3.6 -8.2 0 0 0 0 1 5
1824 2 3.8 -8.2 0 0 0 0 1 5
1857 2 3.6 -8 0 0 0 0 1 5
1858 2 3.8 -8 0 0 0 0 1 5
1825 2 4 -8.2 0 0 0 0 1 5
1826 2 4.2 -8.2 0 0 0 0 1 5
1859 2 4 -8 0 0 0 0 1 5
1860 2 4.2 -8 0 0 0 0 1 5
1888 2 3 -7.8 0 0 0 0 1 5
1889 2 3.2 -7.8 0 0 0 0 1 5
1922 2 3 -7.6 0 0 0 0 1 5
1923 2 3.2 -7.6 0 0 0 0 1 5
1956 2 3 -7.4 0 0 0 0 1.00776 5
1957 2 3.2 -7.4 0 0 0 0 0.999672 5
1890 2 3.4 -7.8 0 0 0 0 1 5
1924 2 3.4 -7.6 0 0 0 0 1 5
1958 2 3.4 -7.4 0 0 0 0 0.999765 5
1891 2 3.6 -7.8 0 0 0 0 1 5
1892 2 3.8 -7.8 0 0 0 0 1 5
1925 2 3.6 -7.6 0 0 0 0 1 5
1926 2 3.8 -7.6 0 0 0 0 1 5
1959 2 3.6 -7.4 0 0 0 0 0.988566 5
1960 2 3.8 -7.4 0 0 0 0 1.00545 5
1893 2 4 -7.8 0 0 0 0 1 5
1894 2 4.2 -7.8 0 0 0 0 1 5
1927 2 4 -7.6 0 0 0 0 1 5
1928 2 4.2 -7.6 0 0 0 0 1 5
1961 2 4 -7.4 0 0 0 0 1.00272 5
1962 2 4.2 -7.4 0 0 0 0 1.00302 5
1990 2 3 -7.2 0 0 0 0 1.00124 5
1991 2 3.2 -7.2 0 0 0 0 1.00109 5
2024 2 3 -7 0 0 0 0 1.00057 5
2025 2 3.2 -7 0 0 0 0 1.00028 5
1992 2 3.4 -7.2 0 0 0 0 0.996445 5
2026 2 3.4 -7 0 0 0 0 0.996148 5
1993 2 3.6 -7.2 0 0 0 0 0.991748 5
1994 2 3.8 -7.2 0 0 0 0 1.00766 5
2027 2 3.6 -7 0 0 0 0 0.993756 5
2028 2 3.8 -7 0 0 0 0 1.0072 5
1995 2 4 -7.2 0 0 0 0 1.0028 5
1996 2 4.2 -7.2 0 0 0 0 1.0005 5
2029 2 4 -7 0 0 0 0 1.00358 5
2030 2 4.2 -7 0 0 0 0 1.00004 5
5602 1 3.43078 -6.57351 0.02 0 -2.41166e-06 0.000610974 1 2
5601 1 3.40081 -6.75322 0.02 0 -0.0023751 -0.000492398 1 2
5214 1 3.92566 -6.75103 0.0142003 0 -0.00138282 -0.000312842 1 2
5216 1 3.99272 -6.56461 0.0185826 0 -0.000214656 -7.92727e-06 1 2
5217 1 4.18168 -6.57203 0.0195527 0 -0.000721061 0.000191768 1 2
5215 1 4.07441 -6.76478 0.0142651 0 -0.00263096 -0.000264792 1 2
5220 1 4.38244 -6.55761 0.019729 0 -0.00111072 0.00108035 1 2
5218 1 4.25788 -6.72967 0.016054 0 -0.00376679 -0.000498742 1 2
5384 1 3.20705 -0.96866 0.02 0 0 0 1 2
5219 1 4.33342 -6.77955 0.0127162 0 -0.00251023 -0.000168125 1 2
5436 1 3.11717 -2.4787 0.02 0 0 0 1 2
5418 1 3.05736 -1.91213 0.02 0 0 0 1 2
5604 1 3.4073 -6.19537 0.02 0 1.17939e-05 1.81357e-05 1 2
5603 1 3.422 -6.38957 0.02 0 0.000193751 0.000190116 1 2
5230 1 4.01915 -6.37867 0.0195315 0 -9.78953e-05 4.75763e-05 1 2
5231 1 4.02775 -6.19455 0.019637 0 -3.74795e-05 9.93774e-06 1 2
5233 1 4.25599 -6.20618 0.0196309 0 0.000131337 0.000103045 1 2
5232 1 4.21515 -6.38701 0.019675 0 7.06268e-05 0.000217039 1 2
5419 1 3.06644 -2.10227 0.02 0 0 0 1 2
5234 1 4.4203 -6.38021 0.0196588 0 0.000569775 0.000752611 1 2
5385 1 3.21922 -1.16159 0.02 0 0 0 1 2
5416 1 3.27921 -2.07751 0.02 0 0 0 1 2
5606 1 3.4447 -5.77786 0.02 0 -1.93521e-07 -2.25743e-08 1 2
5605 1 3.42258 -5.98742 0.02 0 -4.62475e-08 8.30143e-08 1 2
5246 1 4.03644 -6.01156 0.0196588 0 -5.98151e-06 1.97198e-06 1 2
5247 1 4.04921 -5.82135 0.019682 0 -9.98963e-06 -4.90406e-06 1 2
5248 1 4.24036 -6.02146 0.0196595 0 2.25851e-05 1.39637e-05 1 2
5249 1 4.25645 -5.82821 0.0196799 0 4.55996e-06 7.3818e-07 1 2
5435 1 3.08938 -2.28936 0.02 0 0 0 1 2
5452 1 3.0544 -3.02944 0.02 0 0 0 1 2
5417 1 3.26893 -1.89293 0.02 0 0 0 1 2
5433 1 3.30357 -2.26026 0.02 0 -1.9738e-25 -1.58373e-25 1 2
5531 1 3.31727 -5.59044 0.02 0 0 0 1 2
5607 1 3.3488 -5.38676 0.02 0 0 0 1 2
5262 1 4.10306 -5.41693 0.0197892 0 2.1194e-05 1.22324e-06 1 2
5261 1 4.08756 -5.62226 0.0196888 0 3.73683e-06 2.17294e-06 1 2
5263 1 4.27611 -5.62507 0.0196999 0 3.77185e-05 1.56172e-06 1 2
5264 1 4.29138 -5.40769 0.0199153 0 -1.87567e-05 -2.23586e-06 1 2
5464 1 3.04335 -3.40033 0.02 0 0 0 1 2
5587 1 3.06908 -3.58462 0.02 0 0 0 1 2
5451 1 3.27325 -3.01372 0.02 0 0 0 1 2
5461 1 3.24697 -3.20301 0.02 0 0 0 1 2
5609 1 3.36325 -5.17777 0.02 0 -3.86621e-14 3.69298e-14 1 2
5608 1 3.36607 -4.96222 0.02 0 0 0 1 2
5277 1 4.10148 -5.00595 0.02 0 -3.07197e-06 -2.6897e-07 1 2
5278 1 4.10615 -4.79264 0.02 0 7.75805e-08 5.44741e-08 1 2
5276 1 4.09506 -5.21247 0.0199988 0 -4.90061e-05 -1.86565e-06 1 2
5279 1 4.28436 -5.19237 0.02 0 1.10027e-05 9.70871e-07 1 2
5280 1 4.28794 -4.97876 0.02 0 8.02094e-06 3.99094e-06 1 2
5573 1 3.10006 -3.95745 0.02 0 0 0 1 2
5517 1 3.07757 -5.73109 0.02 0 1.63701e-13 1.28509e-12 1 2
5515 1 3.05053 -5.9393 0.02 0 1.49912e-09 8.25134e-09 1 2
5463 1 3.25407 -3.3915 0.02 0 0 0 1 2
5588 1 3.29266 -3.57491 0.02 0 0 0 1 2
5574 1 3.3126 -3.95467 0.02 0 0 0 1 2
5611 1 3.35511 -4.75025 0.02 0 0 0 1 2
5610 1 3.3351 -4.53983 0.02 0 0 0 1 2
5296 1 4.13102 -4.56671 0.02 0 1.21906e-08 9.58404e-09 1 2
5297 1 4.29152 -4.76728 0.02 0 7.9613e-07 5.99503e-07 1 2
5362 1 3.17228 -0.00517025 0.02 0 0 0 1 2
5359 1 3.17364 -0.196663 0.02 0 0 0 1 2
5298 1 4.31847 -4.56208 0.02 0 2.14886e-08 3.35403e-08 1 2
5301 1 4.32538 -4.3542 0.02 0 3.01605e-10 2.65878e-10 1 2
5518 1 3.25372 -5.79421 0.02 0 1.31489e-11 9.30246e-11 1 2
5613 1 3.38104 -4.34308 0.02 0 0 0 1 2
5612 1 3.3418 -4.14849 0.02 0 0 0 1 2
5312 1 4.14598 -4.33566 0.02 0 9.03529e-11 5.98351e-11 1 2
5313 1 4.13352 -4.11035 0.02 0 -2.40092e-11 -3.68407e-12 1 2
5586 1 3.11125 -3.76735 0.02 0 0 0 1 2
5569 1 3.17044 -4.33349 0.02 0 0 0 1 2
5314 1 4.3193 -4.14028 0.02 0 2.63242e-13 4.0092e-12 1 2
5317 1 4.32337 -3.93002 0.02 0 5.67788e-12 3.61455e-12 1 2
5132 1 4.05204 -0.565146 0.02 0 1.26629e-17 -2.48444e-18 1 2
5131 1 4.29314 -0.744506 0.02 0 -1.86335e-17 1.59093e-19 1 2
5133 1 4.08264 -0.755088 0.02 0 -3.51729e-17 2.85509e-18 1 2
5589 1 3.31768 -3.76213 0.02 0 0 0 1 2
5329 1 4.12661 -3.90146 0.02 0 -7.42645e-13 -2.71903e-13 1 2
5331 1 4.14432 -3.50919 0.02 0 -3.09503e-14 2.87789e-15 1 2
5330 1 4.16233 -3.70395 0.02 0 -8.16244e-14 1.4765e-13 1 2
5572 1 3.13812 -4.14475 0.02 0 0 0 1 2
5557 1 3.16349 -4.71341 0.02 0 0 0 1 2
5332 1 4.36267 -3.72787 0.02 0 7.71578e-13 7.98705e-13 1 2
5333 1 4.35121 -3.52483 0.02 0 3.56607e-14 5.76616e-14 1 2
5129 1 4.25535 -0.55326 0.02 0 7.96246e-18 -3.15188e-18 1 2
5372 1 3.21094 -0.58058 0.02 0 0 0 1 2
5614 1 3.46445 -3.37378 0.02 0 -7.71133e-19 1.48784e-19 1 2
5615 1 3.46007 -3.18214 0.02 0 -3.11315e-18 -6.50245e-19 1 2
5345 1 4.08039 -3.13344 0.02 0 -1.61407e-16 -2.04786e-17 1 2
5344 1 4.10401 -3.32091 0.02 0 -1.54175e-15 -2.37529e-16 1 2
5347 1 4.29398 -3.13712 0.02 0 8.05964e-16 1.12856e-15 1 2
5560 1 3.12839 -4.5189 0.02 0 0 0 1 2
5545 1 3.16931 -4.91492 0.02 0 0 0 1 2
5346 1 4.31727 -3.32802 0.02 0 7.54872e-15 8.15115e-15 1 2
5112 1 4.23826 -0.165014 0.02 0 -4.26488e-17 -6.52958e-18 1 2
5114 1 4.24088 -0.358137 0.02 0 1.25136e-17 -5.89638e-18 1 2
5600 1 3.41207 -2.80826 0.02 0 -3.42856e-19 2.97552e-20 1 2
5599 1 3.39838 -2.62276 0.02 0 -1.02938e-19 -1.14245e-20 1 2
5213 1 4.08448 -2.94538 0.02 0 -2.48288e-17 -3.24174e-18 1 2
5212 1 4.05828 -2.75815 0.02 0 -4.74303e-17 -3.74573e-17 1 2
5210 1 4.26818 -2.76179 0.02 0 -3.4761e-17 -1.5577e-17 1 2
5530 1 3.13425 -5.52818 0.02 0 0 0 1 2
5371 1 3.22927 -0.773797 0.02 0 0 0 1 2
5211 1 4.29896 -2.94882 0.02 0 6.34504e-17 7.66953e-17 1 2
5116 1 4.03203 -0.374342 0.02 0 -5.47896e-17 6.64165e-18 1 2
5593 1 3.43811 -0.727348 0.02 0 -3.11044e-20 2.47843e-22 1 2
5434 1 3.32076 -2.4464 0.02 0 0 0 1 2
5199 1 4.05503 -2.57124 0.02 0 -3.43204e-17 -2.50523e-16 1 2
5198 1 4.13427 -2.22121 0.02 0 2.17572e-15 -1.07708e-16 1 2
5196 1 4.27556 -2.57231 0.02 0 -3.32794e-16 -9.73419e-17 1 2
5197 1 4.19847 -2.39668 0.02 0 -6.81003e-17 -3.49333e-17 1 2
5194 1 4.41666 -2.37455 0.02 0 7.35178e-16 2.33452e-16 1 2
5400 1 3.23926 -1.52749 0.02 0 0 0 1 2
5516 1 3.23156 -6.00316 0.02 0 6.05708e-08 1.55826e-07 1 2
5193 1 4.35424 -2.20027 0.02 0 1.01869e-15 -4.63734e-16 1 2
5401 1 3.24571 -1.71031 0.02 0 0 0 1 2
5592 1 3.41269 -0.538596 0.02 0 -2.2934e-20 -1.77748e-21 1 2
5177 1 4.12593 -1.84793 0.02 0 -8.20864e-16 -8.4535e-17 1 2
5178 1 4.11432 -2.03422 0.02 0 -1.76901e-15 3.88657e-16 1 2
5402 1 3.20885 -1.34702 0.02 0 0 0 1 2
5532 1 3.16277 -5.32207 0.02 0 0 0 1 2
5176 1 4.32354 -2.0199 0.02 0 -2.39188e-15 1.36949e-16 1 2
5174 1 4.35434 -1.83786 0.02 0 2.97424e-16 3.47664e-16 1 2
5115 1 4.02551 -0.183937 0.02 0 -4.93018e-17 4.01445e-18 1 2
5598 1 3.46172 -1.66929 0.02 0 -1.09512e-19 3.7524e-20 1 2
5597 1 3.45083 -1.48483 0.02 0 -2.72841e-21 1.45047e-22 1 2
5162 1 4.28749 -1.66249 0.02 0 2.51159e-16 1.61445e-16 1 2
5163 1 4.10965 -1.47339 0.02 0 1.38592e-17 3.72647e-18 1 2
5164 1 4.08205 -1.6625 0.02 0 -1.04059e-16 -1.89554e-17 1 2
5591 1 3.38427 -0.16625 0.02 0 -2.71863e-20 -1.49354e-22 1 2
5590 1 3.39422 -0.352175 0.02 0 -2.56729e-20 -1.22334e-21 1 2
5160 1 4.32041 -1.4745 0.02 0 4.38706e-17 2.93475e-17 1 2
5504 1 3.21689 -6.20358 0.02 0 9.27162e-06 1.488e-05 1 2
5449 1 3.18405 -2.84488 0.02 0 0 0 1 2
5594 1 3.40892 -0.921228 0.02 0 -1.27932e-20 2.78682e-22 1 2
5595 1 3.4204 -1.11449 0.02 0 -4.7385e-21 -5.23036e-22 1 2
5596 1 3.43027 -1.30276 0.02 0 -6.41042e-22 -4.12062e-23 1 2
5149 1 4.10518 -1.10874 0.02 0 3.20414e-19 -9.51206e-19 1 2
5150 1 4.08512 -1.28906 0.02 0 -7.1219e-19 1.77704e-18 1 2
5148 1 4.02585 -0.938433 0.02 0 -6.89657e-18 1.77668e-18 1 2
5143 1 4.24902 -0.932889 0.02 0 8.19046e-18 -4.71229e-18 1 2
5502 1 3.21356 -6.39314 0.02 0 0.000130318 0.000161622 1 2
5448 1 3.18933 -2.65922 0.02 0 0 0 1 2
5145 1 4.33498 -1.10321 0.02 0 -4.40741e-18 -1.23271e-18 1 2
5147 1 4.30252 -1.28735 0.02 0 -8.36383e-18 2.19417e-18 1 2
5544 1 3.17677 -5.11594 0.02 0 0 0 1 2
5361 1 3.18258 -0.386881 0.02 0 0 0 1 2
5490 1 3.23191 -6.57579 0.02 0 0.000163489 0.000564312 1 2
5488 1 3.19257 -6.75776 0.02 0 -0.0027932 -0.000597379 1 2
5489 1 3.02933 -6.54144 0.02 0 0.000185668 0.000494082 1 2
5403 1 3.02414 -1.52567 0.02 0 0 0 1 2
5404 1 3.03418 -1.7204 0.02 0 0 0 1 2
5487 1 2.99996 -6.72408 0.02 0 -0.00227469 -0.000453575 1 2