ITEM: TIMESTEP
42000
ITEM: NUMBER OF ATOMS
1384
ITEM: BOX BOUNDS ff ff pp
0.0000000000000000e+00 4.4000000000000004e+00
-1.0000000000000000e+01 1.0000000000000000e+01
-2.0000000000000000e-02 2.0000000000000000e-02
ITEM: ATOMS id type x y vx vy fx fy c_den c_phase
4188 1 0.991017 -6.74338 0.02 0 0 0 1 2
4189 1 0.948493 -6.5613 0.02 0 0 0 1 2
4190 1 1.19236 -6.74376 0.02 0 -6.4699e-15 -7.67342e-15 1 2
4192 1 1.14494 -6.55905 0.02 0 0 0 1 2
4193 1 1.34944 -6.55789 0.02 0 -5.47563e-11 -2.40672e-11 1 2
4191 1 1.38777 -6.73868 0.02 0 -7.4579e-08 -4.31034e-08 1 2
4132 1 1.46185 -1.32115 0.02 0 0 0 1 2
4111 1 1.48521 -0.914924 0.02 0 0 0 1 2
4099 1 1.46192 -0.704063 0.02 0 0 0 1 2
4113 1 1.49281 -1.12456 0.02 0 0 0 1 2
4203 1 0.804265 -6.14001 0.02 0 0 0 1 2
4202 1 0.980991 -6.37302 0.02 0 0 0 1 2
4204 1 0.983278 -6.17699 0.02 0 0 0 1 2
4205 1 1.18614 -6.37279 0.02 0 0 0 1 2
4207 1 1.17108 -6.17854 0.02 0 0 0 1 2
4206 1 1.38711 -6.37301 0.02 0 0 0 1 2
4208 1 1.36489 -6.17868 0.02 0 0 0 1 2
4133 1 1.46621 -1.51462 0.02 0 0 0 1 2
4101 1 1.0448 -0.481695 0.02 0 0 0 1 2
4151 1 1.3097 -2.03552 0.02 0 0 0 1 2
4102 1 1.26769 -0.694672 0.02 0 0 0 1 2
4217 1 0.839299 -5.9255 0.02 0 0 0 1 2
4218 1 0.845178 -5.71264 0.02 0 0 0 1 2
4219 1 1.02005 -5.97061 0.02 0 0 0 1 2
4220 1 1.0297 -5.7563 0.02 0 0 0 1 2
4221 1 1.20843 -5.98028 0.02 0 0 0 1 2
4223 1 1.2212 -5.77886 0.02 0 0 0 1 2
4222 1 1.39762 -5.97288 0.02 0 0 0 1 2
4224 1 1.41915 -5.76461 0.02 0 0 0 1 2
4134 1 1.43674 -1.70025 0.02 0 0 0 1 2
4122 1 0.815215 -1.24645 0.02 0 0 0 1 2
4116 1 1.29832 -1.0892 0.02 0 0 0 1 2
4154 1 0.875366 -2.01108 0.02 0 0 0 1 2
4233 1 0.896512 -5.50855 0.02 0 0 0 1 2
4234 1 0.920222 -5.3037 0.02 0 0 0 1 2
4235 1 1.08048 -5.54901 0.02 0 0 0 1 2
4236 1 1.10996 -5.33819 0.02 0 0 0 1 2
4237 1 1.2664 -5.57536 0.02 0 0 0 1 2
4239 1 1.29778 -5.36188 0.02 0 0 0 1 2
4238 1 1.46003 -5.56123 0.02 0 0 0 1 2
4240 1 1.49157 -5.36116 0.02 0 0 0 1 2
4117 1 1.09109 -1.08101 0.02 0 0 0 1 2
4118 1 1.2467 -1.27452 0.02 0 0 0 1 2
4249 1 0.945294 -5.10115 0.02 0 0 0 1 2
4250 1 0.968064 -4.90474 0.02 0 0 0 1 2
4251 1 1.13699 -5.12959 0.02 0 0 0 1 2
4252 1 1.17168 -4.92745 0.02 0 0 0 1 2
4253 1 1.3288 -5.15335 0.02 0 0 0 1 2
4254 1 1.37063 -4.95315 0.02 0 0 0 1 2
4152 1 1.09215 -2.01605 0.02 0 0 0 1 2
4135 1 1.26107 -1.4638 0.02 0 0 0 1 2
4103 1 1.07109 -0.682318 0.02 0 0 0 1 2
4100 1 1.24708 -0.491176 0.02 0 0 0 1 2
4083 1 1.40971 -0.299114 0.02 0 0 0 1 2
4264 1 0.974473 -4.71094 0.02 0 0 0 1 2
4265 1 0.997419 -4.51876 0.02 0 0 0 1 2
4266 1 1.18006 -4.7287 0.02 0 0 0 1 2
4268 1 1.20289 -4.53358 0.02 0 0 0 1 2
4267 1 1.38533 -4.75478 0.02 0 0 0 1 2
4269 1 1.40381 -4.55712 0.02 0 0 0 1 2
4270 1 1.41595 -4.35425 0.02 0 0 0 1 2
4136 1 1.04867 -1.45465 0.02 0 0 0 1 2
4137 1 1.22024 -1.65096 0.02 0 0 0 1 2
4138 1 1.00553 -1.64077 0.02 0 0 0 1 2
4084 1 1.36744 -0.0964376 0.02 0 0 0 1 2
4085 1 1.21319 -0.283804 0.02 0 0 0 1 2
4280 1 0.800853 -4.34395 0.02 0 0 0 1 2
4281 1 0.830344 -4.15656 0.02 0 0 0 1 2
4282 1 0.809896 -3.96594 0.02 0 0 0 1 2
4283 1 1.01222 -4.32599 0.02 0 0 0 1 2
4284 1 1.01581 -3.93422 0.02 0 0 0 1 2
4285 1 1.02953 -4.12904 0.02 0 0 0 1 2
4286 1 1.21698 -4.33796 0.02 0 0 0 1 2
4287 1 1.22622 -4.1395 0.02 0 0 0 1 2
4288 1 1.21803 -3.93728 0.02 0 0 0 1 2
4289 1 1.42084 -4.14825 0.02 0 0 0 1 2
4290 1 1.41545 -3.94283 0.02 0 0 0 1 2
4139 1 0.831781 -1.43625 0.02 0 0 0 1 2
4140 1 0.802314 -1.62788 0.02 0 0 0 1 2
4086 1 1.16949 -0.0724624 0.02 0 0 0 1 2
4087 1 1.01871 -0.280143 0.02 0 0 0 1 2
4299 1 0.985745 -3.74318 0.02 0 0 0 1 2
4300 1 0.978845 -3.5496 0.02 0 0 0 1 2
4301 1 1.1871 -3.73511 0.02 0 0 0 1 2
4302 1 1.1807 -3.53322 0.02 0 0 0 1 2
4303 1 1.38538 -3.74195 0.02 0 0 0 1 2
4304 1 1.38262 -3.54369 0.02 0 0 0 1 2
4150 1 1.05993 -1.82759 0.02 0 0 0 1 2
4115 1 1.28529 -0.893822 0.02 0 0 0 1 2
4088 1 0.973919 -0.0795721 0.02 0 0 0 1 2
4089 1 0.822433 -0.305215 0.02 0 0 0 1 2
4313 1 0.972298 -3.3537 0.02 0 0 0 1 2
4314 1 0.923533 -3.1616 0.02 0 0 0 1 2
4315 1 1.16801 -3.33242 0.02 0 0 0 1 2
4316 1 1.12831 -3.1386 0.02 0 0 0 1 2
4318 1 1.33503 -3.14456 0.02 0 0 0 1 2
4317 1 1.36468 -3.34465 0.02 0 0 0 1 2
4149 1 1.27124 -1.8448 0.02 0 0 0 1 2
4153 1 0.84468 -1.82201 0.02 0 0 0 1 2
4105 1 0.87151 -0.689049 0.02 0 0 0 1 2
4104 1 0.838258 -0.498796 0.02 0 0 0 1 2
4186 1 0.82069 -2.77829 0.02 0 0 0 1 2
4187 1 0.860179 -2.97151 0.02 0 0 0 1 2
4182 1 1.2438 -2.76904 0.02 0 0 0 1 2
4183 1 1.28477 -2.95552 0.02 0 0 0 1 2
4184 1 1.03087 -2.76671 0.02 0 0 0 1 2
4185 1 1.06595 -2.95471 0.02 0 0 0 1 2
4119 1 1.02775 -1.26511 0.02 0 0 0 1 2
4120 1 0.873148 -0.880388 0.02 0 0 0 1 2
4114 1 1.08131 -0.883943 0.02 0 0 0 1 2
4181 1 1.45599 -2.76974 0.02 0 0 0 1 2
4166 1 1.08228 -2.20619 0.02 0 0 0 1 2
4168 1 1.15187 -2.39382 0.02 0 0 0 1 2
4169 1 1.22119 -2.57956 0.02 0 0 0 1 2
4170 1 1.00767 -2.57686 0.02 0 0 0 1 2
4171 1 0.874453 -2.20346 0.02 0 0 0 1 2
4172 1 0.934559 -2.39263 0.02 0 0 0 1 2
4165 1 1.29689 -2.22235 0.02 0 0 0 1 2
4098 1 1.449 -0.499468 0.02 0 0 0 1 2
4146 1 1.48899 -1.88635 0.02 0 0 0 1 2
4121 1 0.876876 -1.06698 0.02 0 0 0 1 2
4164 1 1.44063 -2.58308 0.02 0 0 0 1 2
4167 1 1.37397 -2.40325 0.02 0 0 0 1 2
4075 1 0.897944 0.322981 0.02 0 0 0 1 2
4076 1 0.938633 0.121934 0.02 0 0 0 1 2
4077 1 1.13029 0.140437 0.02 0 0 0 1 2
4078 1 1.08917 0.351439 0.02 0 0 0 1 2
4079 1 1.28223 0.32238 0.02 0 0 0 1 2
4080 1 1.32353 0.109445 0.02 0 0 0 1 2
4253 1 0.921191 5.14919 0.02 0 0 0 1 2
4082 1 1.47587 0.318924 0.02 0 0 0 1 2
4254 1 1.14154 4.9585 0.02 0 0 0 1 2
4301 1 1.13294 6.3623 0.02 0 0 0 1 2
4090 1 0.863338 0.737242 0.02 0 0 0 1 2
4089 1 0.874685 0.52816 0.02 0 0 0 1 2
4091 1 1.06504 0.559983 0.02 0 0 0 1 2
4092 1 1.05746 0.764451 0.02 0 0 0 1 2
4093 1 1.25776 0.537004 0.02 0 0 0 1 2
4094 1 1.25624 0.747367 0.02 0 0 0 1 2
4095 1 1.45166 0.526829 0.02 0 0 0 1 2
4096 1 1.45783 0.727817 0.02 0 0 0 1 2
4302 1 1.33267 6.17626 0.02 0 0 0 1 2
4303 1 1.33127 6.36822 0.02 0 0 0 1 2
4320 1 1.48416 6.54827 0.02 0 3.03715e-08 -1.57949e-07 1 2
4107 1 0.856113 1.17555 0.02 0 0 0 1 2
4106 1 0.869999 0.95141 0.02 0 0 0 1 2
4108 1 1.06117 0.968169 0.02 0 0 0 1 2
4109 1 1.03822 1.17329 0.02 0 0 0 1 2
4110 1 1.25195 0.958969 0.02 0 0 0 1 2
4111 1 1.22467 1.17493 0.02 0 0 0 1 2
4112 1 1.44013 0.935526 0.02 0 0 0 1 2
4113 1 1.41104 1.15576 0.02 0 0 0 1 2
4274 1 1.43352 5.5976 0.02 0 0 0 1 2
4273 1 1.42496 5.41768 0.02 0 0 0 1 2
4272 1 1.20685 5.64006 0.02 0 0 0 1 2
4287 1 1.4185 5.78177 0.02 0 0 0 1 2
4122 1 0.821728 1.63873 0.02 0 0 0 1 2
4123 1 0.845945 1.40367 0.02 0 0 0 1 2
4124 1 1.00032 1.58808 0.02 0 0 0 1 2
4125 1 1.03364 1.38065 0.02 0 0 0 1 2
4126 1 1.22384 1.38823 0.02 0 0 0 1 2
4127 1 1.19021 1.59472 0.02 0 0 0 1 2
4128 1 1.38217 1.59281 0.02 0 0 0 1 2
4129 1 1.41058 1.37266 0.02 0 0 0 1 2
4269 1 1.3311 5.25975 0.02 0 0 0 1 2
4267 1 0.889836 5.3287 0.02 0 0 0 1 2
4289 1 1.48332 5.965 0.02 0 0 0 1 2
4256 1 1.18052 5.13246 0.02 0 0 0 1 2
4268 1 0.950045 5.49934 0.02 0 0 0 1 2
4139 1 0.837987 1.86503 0.02 0 0 0 1 2
4140 1 0.875974 2.07346 0.02 0 0 0 1 2
4141 1 1.01337 1.80296 0.02 0 0 0 1 2
4142 1 1.05762 2.01865 0.02 0 0 0 1 2
4143 1 1.2017 1.80049 0.02 0 0 0 1 2
4144 1 1.24643 2.00471 0.02 0 0 0 1 2
4145 1 1.39377 1.80808 0.02 0 0 0 1 2
4146 1 1.43749 2.01884 0.02 0 0 0 1 2
4270 1 1.09792 5.30362 0.02 0 0 0 1 2
4271 1 1.19474 5.46373 0.02 0 0 0 1 2
4317 1 1.43501 6.72947 0.02 0 -1.99141e-06 1.08597e-06 1 2
4318 1 1.24042 6.74615 0.02 0 -1.07193e-10 3.77756e-11 1 2
4155 1 0.900098 2.27936 0.02 0 0 0 1 2
4156 1 0.927576 2.48051 0.02 0 0 0 1 2
4157 1 1.08215 2.23665 0.02 0 0 0 1 2
4158 1 1.11489 2.4519 0.02 0 0 0 1 2
4159 1 1.2656 2.21508 0.02 0 0 0 1 2
4160 1 1.29888 2.43239 0.02 0 0 0 1 2
4161 1 1.45406 2.2322 0.02 0 0 0 1 2
4162 1 1.48698 2.43845 0.02 0 0 0 1 2
4255 1 1.35785 4.94057 0.02 0 0 0 1 2
4316 1 1.09055 6.55075 0.02 0 0 0 1 2
4169 1 0.946123 2.68252 0.02 0 0 0 1 2
4170 1 0.927519 2.89132 0.02 0 0 0 1 2
4171 1 1.13431 2.66472 0.02 0 0 0 1 2
4172 1 1.11622 2.87356 0.02 0 0 0 1 2
4173 1 1.30315 2.89397 0.02 0 0 0 1 2
4174 1 1.31587 2.65796 0.02 0 0 0 1 2
4282 1 0.979247 5.66804 0.02 0 0 0 1 2
4315 1 1.04585 6.73637 0.02 0 0 0 1 2
4177 1 1.48129 2.84278 0.02 0 0 0 1 2
4283 1 0.973359 5.84238 0.02 0 0 0 1 2
4185 1 0.818549 3.35595 0.02 0 0 0 1 2
4186 1 0.971901 3.09781 0.02 0 0 0 1 2
4187 1 1.0041 3.30812 0.02 0 0 0 1 2
4188 1 1.15906 3.08041 0.02 0 0 0 1 2
4189 1 1.19259 3.29354 0.02 0 0 0 1 2
4190 1 1.34327 3.12675 0.02 0 0 0 1 2
4191 1 1.38002 3.3474 0.02 0 0 0 1 2
4252 1 0.933683 4.96928 0.02 0 0 0 1 2
4285 1 1.0704 6.00123 0.02 0 0 0 1 2
4300 1 1.12963 6.17676 0.02 0 0 0 1 2
4298 1 0.917299 6.20909 0.02 0 0 0 1 2
4200 1 0.853661 3.55878 0.02 0 0 0 1 2
4201 1 0.84186 3.75976 0.02 0 0 0 1 2
4202 1 1.03671 3.52209 0.02 0 0 0 1 2
4203 1 1.22047 3.50721 0.02 0 0 0 1 2
4204 1 1.03026 3.74968 0.02 0 0 0 1 2
4205 1 1.21353 3.71909 0.02 0 0 0 1 2
4206 1 1.40472 3.55939 0.02 0 0 0 1 2
4207 1 1.40439 3.76357 0.02 0 0 0 1 2
4257 1 1.44923 5.10028 0.02 0 0 0 1 2
4299 1 0.93177 6.38872 0.02 0 0 0 1 2
4284 1 0.858045 6.0382 0.02 0 0 0 1 2
4314 1 0.885032 6.56986 0.02 0 0 0 1 2
4319 1 1.28486 6.55695 0.02 0 -2.00855e-13 7.49859e-14 1 2
4218 1 0.869344 3.95522 0.02 0 0 0 1 2
4219 1 0.881037 4.15607 0.02 0 0 0 1 2
4220 1 1.05816 3.97523 0.02 0 0 0 1 2
4221 1 1.2397 3.92883 0.02 0 0 0 1 2
4222 1 1.07166 4.19144 0.02 0 0 0 1 2
4223 1 1.25565 4.14189 0.02 0 0 0 1 2
4224 1 1.4349 3.96574 0.02 0 0 0 1 2
4225 1 1.44965 4.1655 0.02 0 0 0 1 2
4313 1 0.846716 6.74726 0.02 0 0 0 1 2
4286 1 1.20238 5.81872 0.02 0 0 0 1 2
4288 1 1.28283 5.99035 0.02 0 0 0 1 2
4234 1 0.898161 4.36803 0.02 0 0 0 1 2
4235 1 0.923579 4.58004 0.02 0 0 0 1 2
4236 1 0.927811 4.77927 0.02 0 0 0 1 2
4237 1 1.09074 4.39539 0.02 0 0 0 1 2
4238 1 1.28088 4.35765 0.02 0 0 0 1 2
4239 1 1.12739 4.58754 0.02 0 0 0 1 2
4241 1 1.14492 4.77476 0.02 0 0 0 1 2
4240 1 1.32976 4.56063 0.02 0 0 0 1 2
4242 1 1.36042 4.75335 0.02 0 0 0 1 2
4243 1 1.48088 4.35714 0.02 0 0 0 1 2
1509 2 2 -10 0 0 0 0 1 5
1510 2 2.2 -10 0 0 0 0 1 5
1511 2 2.4 -10 0 0 0 0 1 5
1543 2 2 -9.8 0 0 0 0 1 5
1544 2 2.2 -9.8 0 0 0 0 1 5
1545 2 2.4 -9.8 0 0 0 0 1 5
1577 2 2 -9.6 0 0 0 0 1 5
1578 2 2.2 -9.6 0 0 0 0 1 5
1579 2 2.4 -9.6 0 0 0 0 1 5
1512 2 2.6 -10 0 0 0 0 1 5
1513 2 2.8 -10 0 0 0 0 1 5
1546 2 2.6 -9.8 0 0 0 0 1 5
1547 2 2.8 -9.8 0 0 0 0 1 5
1580 2 2.6 -9.6 0 0 0 0 1 5
1581 2 2.8 -9.6 0 0 0 0 1 5
1645 2 2 -9.2 0 0 0 0 1 5
1646 2 2.2 -9.2 0 0 0 0 1 5
1647 2 2.4 -9.2 0 0 0 0 1 5
1613 2 2.4 -9.4 0 0 0 0 1 5
1612 2 2.2 -9.4 0 0 0 0 1 5
1611 2 2 -9.4 0 0 0 0 1 5
1648 2 2.6 -9.2 0 0 0 0 1 5
1649 2 2.8 -9.2 0 0 0 0 1 5
1615 2 2.8 -9.4 0 0 0 0 1 5
1614 2 2.6 -9.4 0 0 0 0 1 5
1679 2 2 -9 0 0 0 0 1 5
1680 2 2.2 -9 0 0 0 0 1 5
1681 2 2.4 -9 0 0 0 0 1 5
1713 2 2 -8.8 0 0 0 0 1 5
1714 2 2.2 -8.8 0 0 0 0 1 5
1715 2 2.4 -8.8 0 0 0 0 1 5
1682 2 2.6 -9 0 0 0 0 1 5
1683 2 2.8 -9 0 0 0 0 1 5
1716 2 2.6 -8.8 0 0 0 0 1 5
1717 2 2.8 -8.8 0 0 0 0 1 5
1783 2 2.4 -8.4 0 0 0 0 1 5
1782 2 2.2 -8.4 0 0 0 0 1 5
1781 2 2 -8.4 0 0 0 0 1 5
1747 2 2 -8.6 0 0 0 0 1 5
1748 2 2.2 -8.6 0 0 0 0 1 5
1749 2 2.4 -8.6 0 0 0 0 1 5
1785 2 2.8 -8.4 0 0 0 0 1 5
1784 2 2.6 -8.4 0 0 0 0 1 5
1750 2 2.6 -8.6 0 0 0 0 1 5
1751 2 2.8 -8.6 0 0 0 0 1 5
1851 2 2.4 -8 0 0 0 0 1 5
1850 2 2.2 -8 0 0 0 0 1 5
1849 2 2 -8 0 0 0 0 1 5
1817 2 2.4 -8.2 0 0 0 0 1 5
1816 2 2.2 -8.2 0 0 0 0 1 5
1815 2 2 -8.2 0 0 0 0 1 5
1853 2 2.8 -8 0 0 0 0 1 5
1852 2 2.6 -8 0 0 0 0 1 5
1819 2 2.8 -8.2 0 0 0 0 1 5
1818 2 2.6 -8.2 0 0 0 0 1 5
1953 2 2.4 -7.4 0 0 0 0 0.987596 5
1952 2 2.2 -7.4 0 0 0 0 0.999595 5
1951 2 2 -7.4 0 0 0 0 0.997999 5
1919 2 2.4 -7.6 0 0 0 0 1 5
1918 2 2.2 -7.6 0 0 0 0 1 5
1917 2 2 -7.6 0 0 0 0 1 5
1885 2 2.4 -7.8 0 0 0 0 1 5
1884 2 2.2 -7.8 0 0 0 0 1 5
1883 2 2 -7.8 0 0 0 0 1 5
1955 2 2.8 -7.4 0 0 0 0 1.0104 5
1954 2 2.6 -7.4 0 0 0 0 1 5
1921 2 2.8 -7.6 0 0 0 0 1 5
1920 2 2.6 -7.6 0 0 0 0 1 5
1887 2 2.8 -7.8 0 0 0 0 1 5
1886 2 2.6 -7.8 0 0 0 0 1 5
2021 2 2.4 -7 0 0 0 0 0.987167 5
2020 2 2.2 -7 0 0 0 0 0.995677 5
2019 2 2 -7 0 0 0 0 1.00026 5
1987 2 2.4 -7.2 0 0 0 0 0.987412 5
1986 2 2.2 -7.2 0 0 0 0 0.996347 5
1985 2 2 -7.2 0 0 0 0 0.999684 5
2023 2 2.8 -7 0 0 0 0 1.0112 5
2022 2 2.6 -7 0 0 0 0 1.00359 5
1989 2 2.8 -7.2 0 0 0 0 1.01108 5
1988 2 2.6 -7.2 0 0 0 0 1.00832 5
4198 1 1.99388 -6.73736 0.02 0 -0.00312828 -0.000764658 1 2
4200 1 1.94552 -6.55109 0.02 0 0.000123567 0.000404901 1 2
4201 1 2.14615 -6.56038 0.02 0 0.000453541 0.000687629 1 2
4199 1 2.19327 -6.74024 0.02 0 -0.00180173 -0.000271608 1 2
4162 1 1.60783 -2.40871 0.02 0 0 0 1 2
4306 1 1.58418 -3.54222 0.02 0 0 0 1 2
4094 1 1.83986 -0.508238 0.02 0 0 0 1 2
4095 1 1.84153 -0.719476 0.02 0 0 0 1 2
4215 1 1.96355 -6.16656 0.02 0 5.85397e-07 2.57587e-06 1 2
4213 1 1.95769 -6.35636 0.02 0 2.49998e-05 5.82966e-05 1 2
4214 1 2.15422 -6.37526 0.02 0 8.23312e-05 0.000163205 1 2
4216 1 2.16527 -6.18666 0.02 0 1.50368e-06 1.31464e-05 1 2
4305 1 1.58281 -3.74597 0.02 0 0 0 1 2
4292 1 1.60845 -3.95193 0.02 0 0 0 1 2
4161 1 1.8302 -2.4201 0.02 0 0 0 1 2
4159 1 1.78552 -2.24526 0.02 0 0 0 1 2
4232 1 2.25222 -5.82998 0.02 0 5.49728e-10 1.05638e-09 1 2
4230 1 2.23503 -6.01275 0.02 0 -1.59648e-07 5.1417e-07 1 2
4231 1 2.03608 -5.81042 0.02 0 2.10591e-11 9.46584e-11 1 2
4229 1 2.01219 -5.98893 0.02 0 9.17281e-09 8.02501e-08 1 2
3973 1 2.83506 -6.03328 0.02 0 0 0 1 2
4291 1 1.61426 -4.15779 0.02 0 0 0 1 2
4131 1 1.65462 -1.70275 0.02 0 0 0 1 2
3976 1 2.87429 -5.83368 0.02 0 0 0 1 2
4308 1 1.78542 -3.53977 0.02 0 0 0 1 2
4147 1 1.74363 -2.06957 0.02 0 0 0 1 2
4248 1 2.11033 -5.25341 0.02 0 0 0 1 2
4247 1 2.09118 -5.44493 0.02 0 0 0 1 2
4246 1 2.08783 -5.63311 0.02 0 0 0 1 2
4242 1 1.87101 -5.6254 0.02 0 0 0 1 2
4244 1 1.8846 -5.43659 0.02 0 0 0 1 2
4245 1 1.91044 -5.24105 0.02 0 0 0 1 2
4130 1 1.68037 -1.51812 0.02 0 0 0 1 2
4145 1 1.70588 -1.88483 0.02 0 0 0 1 2
3989 1 2.8974 -5.62887 0.02 0 0 0 1 2
3991 1 2.92226 -5.42296 0.02 0 -4.30272e-30 -1.34726e-29 1 2
3993 1 2.95553 -5.22229 0.02 0 -9.12558e-19 -4.39277e-19 1 2
4179 1 1.72647 -2.95253 0.02 0 0 0 1 2
4261 1 1.9897 -4.83706 0.02 0 0 0 1 2
4260 1 1.95552 -5.04121 0.02 0 0 0 1 2
4263 1 2.18243 -4.86294 0.02 0 0 0 1 2
4262 1 2.15412 -5.06154 0.02 0 0 0 1 2
4008 1 2.95755 -4.82859 0.02 0 -2.07507e-21 -4.49157e-22 1 2
4273 1 1.61175 -4.36274 0.02 0 0 0 1 2
4322 1 1.7383 -3.14374 0.02 0 0 0 1 2
4307 1 1.77758 -3.74206 0.02 0 0 0 1 2
4321 1 1.76017 -3.34061 0.02 0 0 0 1 2
4277 1 1.99593 -4.42334 0.02 0 0 0 1 2
4276 1 1.99816 -4.63033 0.02 0 0 0 1 2
4279 1 2.1853 -4.44793 0.02 0 0 0 1 2
4278 1 2.1931 -4.65724 0.02 0 0 0 1 2
4258 1 1.76377 -4.99741 0.02 0 0 0 1 2
4272 1 1.60352 -4.56589 0.02 0 0 0 1 2
4023 1 2.93769 -4.42558 0.02 0 -7.13099e-21 -1.00486e-22 1 2
4294 1 1.79617 -3.95828 0.02 0 0 0 1 2
4295 1 1.99114 -4.21547 0.02 0 0 0 1 2
4298 1 2.16871 -4.01321 0.02 0 0 0 1 2
4296 1 1.97899 -4.00622 0.02 0 0 0 1 2
4297 1 2.17747 -4.23127 0.02 0 0 0 1 2
4271 1 1.59258 -4.76495 0.02 0 0 0 1 2
4036 1 2.93721 -4.22232 0.02 0 -3.5347e-21 5.72183e-22 1 2
4257 1 1.71921 -5.1935 0.02 0 0 0 1 2
4293 1 1.80343 -4.1814 0.02 0 0 0 1 2
4310 1 1.98398 -3.58102 0.02 0 0 0 1 2
4309 1 1.96695 -3.79001 0.02 0 0 0 1 2
4312 1 2.18742 -3.61121 0.02 0 0 0 1 2
4311 1 2.16123 -3.80685 0.02 0 0 0 1 2
4050 1 2.82504 -3.65388 0.02 0 -8.08535e-22 -2.23784e-23 1 2
4256 1 1.56928 -4.96268 0.02 0 0 0 1 2
4081 1 1.60587 -0.304242 0.02 0 0 0 1 2
4275 1 1.80395 -4.39499 0.02 0 0 0 1 2
4274 1 1.80121 -4.60022 0.02 0 0 0 1 2
4324 1 1.94164 -3.17081 0.02 0 0 0 1 2
4323 1 1.96168 -3.37335 0.02 0 0 0 1 2
4326 1 2.14321 -3.21224 0.02 0 0 0 1 2
4325 1 2.16285 -3.41282 0.02 0 0 0 1 2
4227 1 1.61955 -5.77335 0.02 0 0 0 1 2
4225 1 1.59175 -5.96398 0.02 0 1.3238e-12 2.14844e-11 1 2
4209 1 1.57955 -6.34968 0.02 0 2.2431e-09 1.55096e-08 1 2
4259 1 1.79484 -4.80027 0.02 0 0 0 1 2
4228 1 1.82181 -5.80768 0.02 0 5.83357e-13 6.08328e-12 1 2
4079 1 1.79881 -0.298935 0.02 0 0 0 1 2
4176 1 1.93893 -2.97419 0.02 0 0 0 1 2
4175 1 2.14657 -3.0155 0.02 0 0 0 1 2
4173 1 2.11334 -2.63085 0.02 0 0 0 1 2
4174 1 2.10273 -2.81954 0.02 0 0 0 1 2
4177 1 1.88693 -2.78378 0.02 0 0 0 1 2
3924 1 2.94774 -2.87178 0.02 0 -8.81541e-28 2.62712e-27 1 2
4212 1 1.76296 -6.18703 0.02 0 4.37368e-08 4.69872e-07 1 2
3921 1 2.91736 -2.67636 0.02 0 0 0 1 2
4210 1 1.76643 -6.38741 0.02 0 3.89943e-06 1.0924e-05 1 2
4156 1 2.03249 -2.26931 0.02 0 0 0 1 2
4155 1 2.24529 -2.29025 0.02 0 0 0 1 2
4157 1 2.05878 -2.45109 0.02 0 0 0 1 2
4158 1 1.89101 -2.59804 0.02 0 0 0 1 2
3908 1 2.84466 -2.27621 0.02 0 -3.44842e-24 -1.12444e-24 1 2
4080 1 1.7607 -0.0929741 0.02 0 0 0 1 2
4129 1 1.67138 -1.32789 0.02 0 0 0 1 2
3909 1 2.8992 -2.47715 0.02 0 -8.40877e-27 -8.00487e-27 1 2
4194 1 1.58341 -6.73962 0.02 0 -0.000151486 -6.08975e-05 1 2
4144 1 1.96454 -2.09503 0.02 0 0 0 1 2
4142 1 1.92146 -1.90734 0.02 0 0 0 1 2
4143 1 2.18256 -2.09418 0.02 0 0 0 1 2
4141 1 2.13227 -1.90292 0.02 0 0 0 1 2
4197 1 1.74911 -6.57768 0.02 0 -3.03794e-05 2.77895e-05 1 2
4226 1 1.79217 -5.99492 0.02 0 7.29993e-10 9.19689e-09 1 2
4195 1 1.79313 -6.76082 0.02 0 -0.00225368 -0.000771519 1 2
4097 1 1.65199 -0.72061 0.02 0 0 0 1 2
4163 1 1.66543 -2.58621 0.02 0 0 0 1 2
4125 1 2.08688 -1.7141 0.02 0 0 0 1 2
4124 1 2.10176 -1.52274 0.02 0 0 0 1 2
4123 1 2.07861 -1.32772 0.02 0 0 0 1 2
4128 1 1.87482 -1.71679 0.02 0 0 0 1 2
4127 1 1.89103 -1.52374 0.02 0 0 0 1 2
4126 1 1.87684 -1.32691 0.02 0 0 0 1 2
4076 1 1.99656 -0.312822 0.02 0 0 0 1 2
4078 1 2.16212 -0.123972 0.02 0 0 0 1 2
4110 1 1.68188 -0.926908 0.02 0 0 0 1 2
3879 1 2.94901 -1.73465 0.02 0 -1.01655e-20 -7.14545e-22 1 2
3877 1 2.92061 -1.36587 0.02 0 -1.26125e-21 2.13899e-22 1 2
4107 1 2.08281 -1.12585 0.02 0 0 0 1 2
4106 1 2.07878 -0.922544 0.02 0 0 0 1 2
4108 1 1.87992 -0.924728 0.02 0 0 0 1 2
4109 1 1.88533 -1.12654 0.02 0 0 0 1 2
3863 1 2.91372 -1.17967 0.02 0 -1.40288e-22 3.14964e-23 1 2
3861 1 2.88812 -0.985548 0.02 0 -2.40298e-24 9.05398e-25 1 2
4112 1 1.68819 -1.13027 0.02 0 0 0 1 2
3849 1 2.83155 -0.774498 0.02 0 -4.53155e-24 -2.91904e-24 1 2
3830 1 2.94113 -0.162903 0.02 0 -1.07266e-20 -2.17306e-22 1 2
4092 1 2.22755 -0.732771 0.02 0 0 0 1 2
4090 1 2.2264 -0.529585 0.02 0 0 0 1 2
4091 1 2.0331 -0.512922 0.02 0 0 0 1 2
4093 1 2.03249 -0.718408 0.02 0 0 0 1 2
3847 1 2.80508 -0.560608 0.02 0 -2.20979e-22 -2.6519e-23 1 2
4075 1 2.196 -0.324815 0.02 0 0 0 1 2
4077 1 1.96059 -0.115651 0.02 0 0 0 1 2
4178 1 1.66945 -2.77054 0.02 0 0 0 1 2
4243 1 1.68752 -5.39151 0.02 0 0 0 1 2
4096 1 1.64727 -0.51103 0.02 0 0 0 1 2
4241 1 1.66129 -5.58549 0.02 0 0 0 1 2
4196 1 1.55378 -6.54776 0.02 0 -1.33949e-07 -3.47358e-09 1 2
4211 1 1.56258 -6.15582 0.02 0 1.81286e-11 6.95092e-10 1 2
4082 1 1.56433 -0.0965164 0.02 0 0 0 1 2
4255 1 1.52518 -5.16139 0.02 0 0 0 1 2
4148 1 1.53242 -2.06858 0.02 0 0 0 1 2
4319 1 1.56118 -3.34102 0.02 0 0 0 1 2
4320 1 1.53641 -3.14248 0.02 0 0 0 1 2
4180 1 1.50625 -2.9526 0.02 0 0 0 1 2
4160 1 1.52513 -2.24618 0.02 0 0 0 1 2
4088 1 2.11388 0.265214 0.02 0 0 0 1 2
4087 1 2.13828 0.0733289 0.02 0 0 0 1 2
4086 1 1.93334 0.0798153 0.02 0 0 0 1 2
4085 1 1.89487 0.268434 0.02 0 0 0 1 2
4245 1 1.74634 4.49297 0.02 0 0 0 1 2
4209 1 1.76244 3.47924 0.02 0 0 0 1 2
3819 1 2.92049 0.271338 0.02 0 -8.08236e-22 1.44228e-22 1 2
3818 1 2.91961 0.0581515 0.02 0 -4.88057e-21 5.72505e-22 1 2
489 2 2.8 9.8 0 0 0 0 1 5
488 2 2.6 9.8 0 0 0 0 1 5
4103 1 2.08673 0.643349 0.02 0 0 0 1 2
4102 1 2.06819 0.450854 0.02 0 0 0 1 2
4104 1 2.02347 0.835657 0.02 0 0 0 1 2
4105 1 2.22264 0.856492 0.02 0 0 0 1 2
4100 1 1.85837 0.458467 0.02 0 0 0 1 2
4101 1 1.87705 0.651907 0.02 0 0 0 1 2
4276 1 1.65493 5.39255 0.02 0 0 0 1 2
4277 1 1.65671 5.57103 0.02 0 0 0 1 2
4246 1 1.5728 4.7225 0.02 0 0 0 1 2
3834 1 2.87307 0.679911 0.02 0 -1.51422e-22 1.53537e-23 1 2
3833 1 2.89394 0.476635 0.02 0 -4.55635e-22 -5.0233e-23 1 2
4259 1 1.8003 4.85251 0.02 0 0 0 1 2
455 2 2.8 9.6 0 0 0 0 1 5
4119 1 1.96464 1.24594 0.02 0 0 0 1 2
4121 1 2.17083 1.04754 0.02 0 0 0 1 2
4118 1 1.97332 1.03697 0.02 0 0 0 1 2
4120 1 2.16075 1.24317 0.02 0 0 0 1 2
3850 1 2.82354 0.878538 0.02 0 -4.67206e-24 1.78831e-24 1 2
4226 1 1.63277 3.9389 0.02 0 0 0 1 2
3852 1 2.946 1.27862 0.02 0 -5.76782e-25 -1.90626e-25 1 2
4195 1 1.72908 3.27341 0.02 0 0 0 1 2
4247 1 1.79172 4.66944 0.02 0 0 0 1 2
4137 1 1.95084 1.6836 0.02 0 0 0 1 2
4135 1 1.93985 1.46534 0.02 0 0 0 1 2
4138 1 2.13926 1.64119 0.02 0 0 0 1 2
4136 1 2.131 1.43896 0.02 0 0 0 1 2
4307 1 1.71341 6.34544 0.02 0 2.12728e-06 -1.04985e-05 1 2
4133 1 1.76775 1.73443 0.02 0 0 0 1 2
3866 1 2.91242 1.68879 0.02 0 -3.96421e-23 -2.00584e-24 1 2
3865 1 2.91451 1.48144 0.02 0 -5.26689e-23 -8.79034e-24 1 2
454 2 2.6 9.6 0 0 0 0 1 5
4151 1 1.97975 1.90663 0.02 0 0 0 1 2
4154 1 2.17108 2.0813 0.02 0 0 0 1 2
4152 1 2.15407 1.85044 0.02 0 0 0 1 2
4153 1 1.99876 2.14111 0.02 0 0 0 1 2
4132 1 1.7573 1.51884 0.02 0 0 0 1 2
4260 1 1.69577 5.07085 0.02 0 0 0 1 2
4083 1 1.7208 0.103792 0.02 0 0 0 1 2
3882 1 2.88971 1.89352 0.02 0 -2.70235e-23 1.05543e-24 1 2
3883 1 2.92057 2.10896 0.02 0 -6.21067e-24 1.32882e-24 1 2
453 2 2.4 9.6 0 0 0 0 1 5
452 2 2.2 9.6 0 0 0 0 1 5
4168 1 2.18322 2.543 0.02 0 0 0 1 2
4167 1 2.17498 2.30082 0.02 0 0 0 1 2
4166 1 2.02213 2.40528 0.02 0 0 0 1 2
4165 1 1.8639 2.56525 0.02 0 0 0 1 2
384 2 2.2 9.2 0 0 0 0 1 5
3897 1 2.91905 2.31584 0.02 0 -1.41271e-22 -3.6622e-23 1 2
3898 1 2.94686 2.52459 0.02 0 -1.08632e-21 -1.46541e-22 1 2
419 2 2.4 9.4 0 0 0 0 1 5
4182 1 2.02674 2.88566 0.02 0 0 0 1 2
4181 1 2.03028 2.66333 0.02 0 0 0 1 2
4184 1 2.22258 3.00399 0.02 0 0 0 1 2
4183 1 2.20059 2.78633 0.02 0 0 0 1 2
4179 1 1.84771 2.78903 0.02 0 0 0 1 2
4180 1 1.86801 3.0221 0.02 0 0 0 1 2
3912 1 2.81007 2.90933 0.02 0 -7.1669e-23 -8.26943e-24 1 2
4258 1 1.58557 4.90888 0.02 0 0 0 1 2
4210 1 1.59439 3.73884 0.02 0 0 0 1 2
4212 1 1.82708 3.90299 0.02 0 0 0 1 2
4211 1 1.77847 3.69502 0.02 0 0 0 1 2
4197 1 2.04702 3.10488 0.02 0 0 0 1 2
4198 1 2.09037 3.31511 0.02 0 0 0 1 2
4199 1 2.25686 3.2137 0.02 0 0 0 1 2
4196 1 1.90772 3.27626 0.02 0 0 0 1 2
4228 1 1.69065 4.31663 0.02 0 0 0 1 2
4227 1 1.64872 4.13294 0.02 0 0 0 1 2
3930 1 2.83322 3.11108 0.02 0 -9.9904e-25 3.47585e-25 1 2
3931 1 2.88036 3.30937 0.02 0 0 0 1 2
487 2 2.4 9.8 0 0 0 0 1 5
486 2 2.2 9.8 0 0 0 0 1 5
4216 1 2.17345 3.70214 0.02 0 0 0 1 2
4214 1 2.13291 3.51211 0.02 0 0 0 1 2
4215 1 1.97374 3.72904 0.02 0 0 0 1 2
4213 1 1.94337 3.51873 0.02 0 0 0 1 2
4217 1 2.23327 3.88609 0.02 0 0 0 1 2
3945 1 2.7998 3.7317 0.02 0 0 0 1 2
4193 1 1.69268 3.06864 0.02 0 0 0 1 2
4208 1 1.58356 3.51595 0.02 0 0 0 1 2
3944 1 2.94639 3.50414 0.02 0 0 0 1 2
383 2 2 9.2 0 0 0 0 1 5
4164 1 1.84537 2.3554 0.02 0 0 0 1 2
4233 1 2.12625 4.28053 0.02 0 0 0 1 2
4231 1 2.03311 3.92089 0.02 0 0 0 1 2
4232 1 2.07584 4.10382 0.02 0 0 0 1 2
4229 1 1.85378 4.09939 0.02 0 0 0 1 2
4230 1 1.90654 4.28151 0.02 0 0 0 1 2
3960 1 2.87925 3.92208 0.02 0 0 0 1 2
385 2 2.4 9.2 0 0 0 0 1 5
3961 1 2.93437 4.11684 0.02 0 0 0 1 2
4290 1 1.63279 5.75112 0.02 0 0 0 1 2
4150 1 1.81738 2.15552 0.02 0 0 0 1 2
451 2 2 9.6 0 0 0 0 1 5
4250 1 2.01801 4.62814 0.02 0 0 0 1 2
4248 1 1.96182 4.45797 0.02 0 0 0 1 2
4251 1 2.23129 4.62597 0.02 0 0 0 1 2
4249 1 2.20472 4.44559 0.02 0 0 0 1 2
3979 1 2.8085 4.361 0.02 0 0 0 1 2
3982 1 2.88179 4.76921 0.02 0 0 0 1 2
4178 1 1.66985 2.84689 0.02 0 0 0 1 2
4148 1 1.62975 2.15472 0.02 0 0 0 1 2
3980 1 2.84233 4.56926 0.02 0 0 0 1 2
4321 1 1.82797 6.74855 0.02 0 -0.00246506 0.000700875 1 2
485 2 2 9.8 0 0 0 0 1 5
4263 1 2.01803 4.80942 0.02 0 0 0 1 2
4266 1 2.12094 5.1624 0.02 0 0 0 1 2
4265 1 2.10686 4.97839 0.02 0 0 0 1 2
4264 1 2.24828 4.8096 0.02 0 0 0 1 2
4262 1 1.90165 5.01525 0.02 0 0 0 1 2
4261 1 1.87917 5.19782 0.02 0 0 0 1 2
418 2 2.2 9.4 0 0 0 0 1 5
353 2 2.8 9 0 0 0 0 1 5
3996 1 2.93905 5.17829 0.02 0 0 0 1 2
3997 1 2.93355 4.96872 0.02 0 0 0 1 2
386 2 2.6 9.2 0 0 0 0 1 5
4281 1 2.07958 5.52678 0.02 0 0 0 1 2
4280 1 2.08064 5.33932 0.02 0 0 0 1 2
4279 1 1.87402 5.55989 0.02 0 0 0 1 2
4278 1 1.86204 5.37423 0.02 0 0 0 1 2
4012 1 2.90707 5.38007 0.02 0 0 0 1 2
4013 1 2.8845 5.57366 0.02 0 0 0 1 2
4175 1 1.68311 2.60998 0.02 0 0 0 1 2
4163 1 1.66184 2.37575 0.02 0 0 0 1 2
387 2 2.8 9.2 0 0 0 0 1 5
421 2 2.8 9.4 0 0 0 0 1 5
4294 1 2.0601 5.72188 0.02 0 1.08214e-13 -2.442e-13 1 2
4297 1 2.2634 5.98355 0.02 0 3.12392e-08 -1.57658e-07 1 2
4296 1 2.07204 5.92038 0.02 0 3.60807e-10 -2.46538e-09 1 2
4295 1 2.25949 5.78402 0.02 0 1.71232e-11 -1.84317e-11 1 2
4293 1 1.87909 5.94326 0.02 0 9.24921e-11 -1.58857e-09 1 2
4291 1 1.8511 5.74855 0.02 0 0 0 1 2
4027 1 2.8555 5.7614 0.02 0 1.22666e-12 -2.45976e-12 1 2
4029 1 2.85631 5.95148 0.02 0 9.10424e-09 -1.86832e-08 1 2
4306 1 1.70336 6.13043 0.02 0 6.01031e-09 -9.02774e-08 1 2
4292 1 1.68075 5.933 0.02 0 8.98597e-14 -1.65059e-11 1 2
4149 1 1.80224 1.94703 0.02 0 0 0 1 2
420 2 2.6 9.4 0 0 0 0 1 5
4311 1 2.25135 6.18268 0.02 0 -9.42453e-06 -2.65868e-05 1 2
4310 1 2.06833 6.12594 0.02 0 6.02672e-07 -2.71565e-06 1 2
4312 1 2.08089 6.33881 0.02 0 2.3402e-05 -9.72008e-05 1 2
4309 1 1.89649 6.35256 0.02 0 1.26254e-05 -5.86277e-05 1 2
4308 1 1.88569 6.14928 0.02 0 1.3864e-07 -1.16975e-06 1 2
4044 1 2.81987 6.14269 0.02 0 3.81703e-08 -5.39112e-08 1 2
4047 1 2.83965 6.3475 0.02 0 5.17167e-05 -4.16244e-05 1 2
4323 1 1.67818 6.55266 0.02 0 4.56776e-06 -7.46326e-05 1 2
4147 1 1.61347 1.93935 0.02 0 0 0 1 2
4117 1 1.77986 1.29605 0.02 0 0 0 1 2
4116 1 1.78416 1.0759 0.02 0 0 0 1 2
4326 1 2.02554 6.72713 0.02 0 -0.00300751 0.00066398 1 2
4325 1 2.22408 6.77301 0.02 0 -0.0022405 0.000383953 1 2
4327 1 2.05618 6.53901 0.02 0 0.000195451 -0.000533322 1 2
4328 1 2.24185 6.57586 0.02 0 0.00061995 -0.000780116 1 2
4324 1 1.86599 6.55409 0.02 0 -1.17529e-05 -0.00032568 1 2
4060 1 2.80592 6.73619 0.02 0 -0.00286171 0.000311077 1 2
4061 1 2.82163 6.54613 0.02 0 -0.000151332 -3.91382e-05 1 2
4134 1 1.57449 1.73592 0.02 0 0 0 1 2
4131 1 1.56848 1.52866 0.02 0 0 0 1 2
4099 1 1.82554 0.855954 0.02 0 0 0 1 2
417 2 2 9.4 0 0 0 0 1 5
9 2 2 7 0 0 0 0 1.00155 5
10 2 2.2 7 0 0 0 0 0.997794 5
11 2 2.4 7 0 0 0 0 0.990299 5
43 2 2 7.2 0 0 0 0 1.00235 5
44 2 2.2 7.2 0 0 0 0 0.999374 5
45 2 2.4 7.2 0 0 0 0 0.989157 5
47 2 2.8 7.2 0 0 0 0 1.00457 5
13 2 2.8 7 0 0 0 0 1.00458 5
46 2 2.6 7.2 0 0 0 0 1.00712 5
12 2 2.6 7 0 0 0 0 1.00648 5
146 2 2.2 7.8 0 0 0 0 1 5
145 2 2 7.8 0 0 0 0 1 5
77 2 2 7.4 0 0 0 0 1.0078 5
78 2 2.2 7.4 0 0 0 0 1.00149 5
147 2 2.4 7.8 0 0 0 0 1 5
111 2 2 7.6 0 0 0 0 1 5
112 2 2.2 7.6 0 0 0 0 1 5
113 2 2.4 7.6 0 0 0 0 1 5
79 2 2.4 7.4 0 0 0 0 0.989104 5
80 2 2.6 7.4 0 0 0 0 1.01107 5
149 2 2.8 7.8 0 0 0 0 1 5
148 2 2.6 7.8 0 0 0 0 1 5
114 2 2.6 7.6 0 0 0 0 1 5
81 2 2.8 7.4 0 0 0 0 1.00131 5
115 2 2.8 7.6 0 0 0 0 1 5
179 2 2 8 0 0 0 0 1 5
180 2 2.2 8 0 0 0 0 1 5
181 2 2.4 8 0 0 0 0 1 5
213 2 2 8.2 0 0 0 0 1 5
214 2 2.2 8.2 0 0 0 0 1 5
215 2 2.4 8.2 0 0 0 0 1 5
182 2 2.6 8 0 0 0 0 1 5
183 2 2.8 8 0 0 0 0 1 5
216 2 2.6 8.2 0 0 0 0 1 5
217 2 2.8 8.2 0 0 0 0 1 5
281 2 2 8.6 0 0 0 0 1 5
249 2 2.4 8.4 0 0 0 0 1 5
248 2 2.2 8.4 0 0 0 0 1 5
247 2 2 8.4 0 0 0 0 1 5
283 2 2.4 8.6 0 0 0 0 1 5
282 2 2.2 8.6 0 0 0 0 1 5
285 2 2.8 8.6 0 0 0 0 1 5
284 2 2.6 8.6 0 0 0 0 1 5
251 2 2.8 8.4 0 0 0 0 1 5
250 2 2.6 8.4 0 0 0 0 1 5
350 2 2.2 9 0 0 0 0 1 5
351 2 2.4 9 0 0 0 0 1 5
315 2 2 8.8 0 0 0 0 1 5
316 2 2.2 8.8 0 0 0 0 1 5
317 2 2.4 8.8 0 0 0 0 1 5
349 2 2 9 0 0 0 0 1 5
352 2 2.6 9 0 0 0 0 1 5
319 2 2.8 8.8 0 0 0 0 1 5
318 2 2.6 8.8 0 0 0 0 1 5
4084 1 1.67893 0.296989 0.02 0 0 0 1 2
4097 1 1.65117 0.491928 0.02 0 0 0 1 2
4098 1 1.6673 0.684385 0.02 0 0 0 1 2
4114 1 1.63166 0.886083 0.02 0 0 0 1 2
4275 1 1.59078 5.22991 0.02 0 0 0 1 2
4115 1 1.59584 1.099 0.02 0 0 0 1 2
4322 1 1.62909 6.74463 0.02 0 -0.000370449 0.000193064 1 2
4130 1 1.5934 1.31158 0.02 0 0 0 1 2
4081 1 1.51835 0.1108 0.02 0 0 0 1 2
4305 1 1.5277 6.36025 0.02 0 7.6479e-09 -3.10801e-08 1 2
4304 1 1.52268 6.1625 0.02 0 4.84588e-11 -3.25523e-10 1 2
4176 1 1.50137 2.6405 0.02 0 0 0 1 2
4192 1 1.50986 3.05132 0.02 0 0 0 1 2
4194 1 1.54889 3.28011 0.02 0 0 0 1 2
4244 1 1.53813 4.53888 0.02 0 0 0 1 2
1583 2 3.2 -9.6 0 0 0 0 1 5
1582 2 3 -9.6 0 0 0 0 1 5
1549 2 3.2 -9.8 0 0 0 0 1 5
1548 2 3 -9.8 0 0 0 0 1 5
1515 2 3.2 -10 0 0 0 0 1 5
1514 2 3 -10 0 0 0 0 1 5
1584 2 3.4 -9.6 0 0 0 0 1 5
1550 2 3.4 -9.8 0 0 0 0 1 5
1516 2 3.4 -10 0 0 0 0 1 5
1586 2 3.8 -9.6 0 0 0 0 1 5
1585 2 3.6 -9.6 0 0 0 0 1 5
1552 2 3.8 -9.8 0 0 0 0 1 5
1551 2 3.6 -9.8 0 0 0 0 1 5
1518 2 3.8 -10 0 0 0 0 1 5
1517 2 3.6 -10 0 0 0 0 1 5
1588 2 4.2 -9.6 0 0 0 0 1 5
1587 2 4 -9.6 0 0 0 0 1 5
1554 2 4.2 -9.8 0 0 0 0 1 5
1553 2 4 -9.8 0 0 0 0 1 5
1520 2 4.2 -10 0 0 0 0 1 5
1519 2 4 -10 0 0 0 0 1 5
1616 2 3 -9.4 0 0 0 0 1 5
1617 2 3.2 -9.4 0 0 0 0 1 5
1651 2 3.2 -9.2 0 0 0 0 1 5
1650 2 3 -9.2 0 0 0 0 1 5
1652 2 3.4 -9.2 0 0 0 0 1 5
1618 2 3.4 -9.4 0 0 0 0 1 5
1653 2 3.6 -9.2 0 0 0 0 1 5
1654 2 3.8 -9.2 0 0 0 0 1 5
1620 2 3.8 -9.4 0 0 0 0 1 5
1619 2 3.6 -9.4 0 0 0 0 1 5
1622 2 4.2 -9.4 0 0 0 0 1 5
1655 2 4 -9.2 0 0 0 0 1 5
1656 2 4.2 -9.2 0 0 0 0 1 5
1621 2 4 -9.4 0 0 0 0 1 5
1719 2 3.2 -8.8 0 0 0 0 1 5
1718 2 3 -8.8 0 0 0 0 1 5
1685 2 3.2 -9 0 0 0 0 1 5
1684 2 3 -9 0 0 0 0 1 5
1686 2 3.4 -9 0 0 0 0 1 5
1720 2 3.4 -8.8 0 0 0 0 1 5
1687 2 3.6 -9 0 0 0 0 1 5
1688 2 3.8 -9 0 0 0 0 1 5
1721 2 3.6 -8.8 0 0 0 0 1 5
1722 2 3.8 -8.8 0 0 0 0 1 5
1689 2 4 -9 0 0 0 0 1 5
1690 2 4.2 -9 0 0 0 0 1 5
1723 2 4 -8.8 0 0 0 0 1 5
1724 2 4.2 -8.8 0 0 0 0 1 5
1752 2 3 -8.6 0 0 0 0 1 5
1753 2 3.2 -8.6 0 0 0 0 1 5
1786 2 3 -8.4 0 0 0 0 1 5
1787 2 3.2 -8.4 0 0 0 0 1 5
1754 2 3.4 -8.6 0 0 0 0 1 5
1788 2 3.4 -8.4 0 0 0 0 1 5
1755 2 3.6 -8.6 0 0 0 0 1 5
1756 2 3.8 -8.6 0 0 0 0 1 5
1789 2 3.6 -8.4 0 0 0 0 1 5
1790 2 3.8 -8.4 0 0 0 0 1 5
1757 2 4 -8.6 0 0 0 0 1 5
1758 2 4.2 -8.6 0 0 0 0 1 5
1791 2 4 -8.4 0 0 0 0 1 5
1792 2 4.2 -8.4 0 0 0 0 1 5
1820 2 3 -8.2 0 0 0 0 1 5
1821 2 3.2 -8.2 0 0 0 0 1 5
1854 2 3 -8 0 0 0 0 1 5
1855 2 3.2 -8 0 0 0 0 1 5
1822 2 3.4 -8.2 0 0 0 0 1 5
1856 2 3.4 -8 0 0 0 0 1 5
1823 2 3.6 -8.2 0 0 0 0 1 5
1824 2 3.8 -8.2 0 0 0 0 1 5
1857 2 3.6 -8 0 0 0 0 1 5
1858 2 3.8 -8 0 0 0 0 1 5
1825 2 4 -8.2 0 0 0 0 1 5
1826 2 4.2 -8.2 0 0 0 0 1 5
1859 2 4 -8 0 0 0 0 1 5
1860 2 4.2 -8 0 0 0 0 1 5
1888 2 3 -7.8 0 0 0 0 1 5
1889 2 3.2 -7.8 0 0 0 0 1 5