ITEM: TIMESTEP
65000
ITEM: NUMBER OF ATOMS
1028
ITEM: BOX BOUNDS ff ff pp
0.0000000000000000e+00 4.4000000000000004e+00
-1.0000000000000000e+01 1.0000000000000000e+01
-2.0000000000000000e-02 2.0000000000000000e-02
ITEM: ATOMS id type x y vx vy fx fy c_den c_phase
1509 2 2 -10 0 0 0 0 1 5
1510 2 2.2 -10 0 0 0 0 1 5
1511 2 2.4 -10 0 0 0 0 1 5
1543 2 2 -9.8 0 0 0 0 1 5
1544 2 2.2 -9.8 0 0 0 0 1 5
1545 2 2.4 -9.8 0 0 0 0 1 5
1577 2 2 -9.6 0 0 0 0 1 5
1578 2 2.2 -9.6 0 0 0 0 1 5
1579 2 2.4 -9.6 0 0 0 0 1 5
1512 2 2.6 -10 0 0 0 0 1 5
1513 2 2.8 -10 0 0 0 0 1 5
1546 2 2.6 -9.8 0 0 0 0 1 5
1547 2 2.8 -9.8 0 0 0 0 1 5
1580 2 2.6 -9.6 0 0 0 0 1 5
1581 2 2.8 -9.6 0 0 0 0 1 5
1645 2 2 -9.2 0 0 0 0 1 5
1646 2 2.2 -9.2 0 0 0 0 1 5
1647 2 2.4 -9.2 0 0 0 0 1 5
1613 2 2.4 -9.4 0 0 0 0 1 5
1612 2 2.2 -9.4 0 0 0 0 1 5
1611 2 2 -9.4 0 0 0 0 1 5
1648 2 2.6 -9.2 0 0 0 0 1 5
1649 2 2.8 -9.2 0 0 0 0 1 5
1615 2 2.8 -9.4 0 0 0 0 1 5
1614 2 2.6 -9.4 0 0 0 0 1 5
1679 2 2 -9 0 0 0 0 1 5
1680 2 2.2 -9 0 0 0 0 1 5
1681 2 2.4 -9 0 0 0 0 1 5
1713 2 2 -8.8 0 0 0 0 1 5
1714 2 2.2 -8.8 0 0 0 0 1 5
1715 2 2.4 -8.8 0 0 0 0 1 5
1682 2 2.6 -9 0 0 0 0 1 5
1683 2 2.8 -9 0 0 0 0 1 5
1716 2 2.6 -8.8 0 0 0 0 1 5
1717 2 2.8 -8.8 0 0 0 0 1 5
1783 2 2.4 -8.4 0 0 0 0 1 5
1782 2 2.2 -8.4 0 0 0 0 1 5
1781 2 2 -8.4 0 0 0 0 1 5
1747 2 2 -8.6 0 0 0 0 1 5
1748 2 2.2 -8.6 0 0 0 0 1 5
1749 2 2.4 -8.6 0 0 0 0 1 5
1785 2 2.8 -8.4 0 0 0 0 1 5
1784 2 2.6 -8.4 0 0 0 0 1 5
1750 2 2.6 -8.6 0 0 0 0 1 5
1751 2 2.8 -8.6 0 0 0 0 1 5
1851 2 2.4 -8 0 0 0 0 1 5
1850 2 2.2 -8 0 0 0 0 1 5
1849 2 2 -8 0 0 0 0 1 5
1817 2 2.4 -8.2 0 0 0 0 1 5
1816 2 2.2 -8.2 0 0 0 0 1 5
1815 2 2 -8.2 0 0 0 0 1 5
1853 2 2.8 -8 0 0 0 0 1 5
1852 2 2.6 -8 0 0 0 0 1 5
1819 2 2.8 -8.2 0 0 0 0 1 5
1818 2 2.6 -8.2 0 0 0 0 1 5
1953 2 2.4 -7.4 0 0 0 0 1.00845 5
1952 2 2.2 -7.4 0 0 0 0 0.999821 5
1951 2 2 -7.4 0 0 0 0 1.00173 5
1919 2 2.4 -7.6 0 0 0 0 1 5
1918 2 2.2 -7.6 0 0 0 0 1 5
1917 2 2 -7.6 0 0 0 0 1 5
1885 2 2.4 -7.8 0 0 0 0 1 5
1884 2 2.2 -7.8 0 0 0 0 1 5
1883 2 2 -7.8 0 0 0 0 1 5
1955 2 2.8 -7.4 0 0 0 0 0.998436 5
1954 2 2.6 -7.4 0 0 0 0 0.999915 5
1921 2 2.8 -7.6 0 0 0 0 1 5
1920 2 2.6 -7.6 0 0 0 0 1 5
1887 2 2.8 -7.8 0 0 0 0 1 5
1886 2 2.6 -7.8 0 0 0 0 1 5
2021 2 2.4 -7 0 0 0 0 1.00012 5
2020 2 2.2 -7 0 0 0 0 0.999721 5
2019 2 2 -7 0 0 0 0 1.00471 5
1987 2 2.4 -7.2 0 0 0 0 1.001 5
1986 2 2.2 -7.2 0 0 0 0 0.999058 5
1985 2 2 -7.2 0 0 0 0 1.00465 5
2023 2 2.8 -7 0 0 0 0 0.999146 5
2022 2 2.6 -7 0 0 0 0 1.00058 5
1989 2 2.8 -7.2 0 0 0 0 0.997901 5
1988 2 2.6 -7.2 0 0 0 0 1.00111 5
5217 1 2.20799 -6.57203 0.02 0 0.00044394 0.000616135 1 2
5216 1 2.00738 -6.56461 0.02 0 -0.000430546 -5.39402e-05 1 2
5214 1 2.00188 -6.75103 0.02 0 -0.00518341 -0.000597611 1 2
5215 1 2.198 -6.76478 0.02 0 -0.00281869 -0.00035427 1 2
5219 1 2.59776 -6.77955 0.02 0 -0.00317559 -0.000496948 1 2
5221 1 2.61839 -6.58151 0.02 0 4.92477e-05 0.000409189 1 2
5220 1 2.41949 -6.55761 0.02 0 0.000191882 0.000530433 1 2
5218 1 2.39364 -6.72967 0.02 0 -0.00205407 -0.000383626 1 2
5224 1 2.81689 -6.58016 0.02 0 -5.4672e-05 0.000265477 1 2
5222 1 2.81903 -6.76313 0.02 0 -0.00303466 -0.000365468 1 2
5164 1 2.08205 -1.6625 0.02 0 0 0 1 2
5163 1 2.10965 -1.47339 0.02 0 0 0 1 2
5120 1 2.86647 -0.437431 0.02 0 -1.60587e-24 -3.78362e-25 1 2
5123 1 2.89706 -0.642088 0.02 0 -2.9863e-26 -1.87856e-26 1 2
5232 1 2.22075 -6.38701 0.02 0 0.000164079 0.000192482 1 2
5233 1 2.25753 -6.20618 0.02 0 1.19646e-05 2.32092e-05 1 2
5230 1 2.02264 -6.37867 0.02 0 5.99936e-05 4.80529e-05 1 2
5231 1 2.02863 -6.19455 0.02 0 4.78515e-06 5.51325e-06 1 2
5235 1 2.63284 -6.38326 0.02 0 0.000102305 0.000152765 1 2
5237 1 2.67806 -6.18549 0.02 0 5.77343e-06 1.46991e-05 1 2
5234 1 2.42927 -6.38021 0.02 0 0.000101639 0.000154634 1 2
5236 1 2.47547 -6.19941 0.02 0 7.48958e-06 1.87296e-05 1 2
5238 1 2.82577 -6.39432 0.02 0 0.000106314 0.00013048 1 2
5142 1 2.47241 -0.897504 0.02 0 0 0 1 2
5160 1 2.32041 -1.4745 0.02 0 0 0 1 2
5240 1 2.87345 -6.19539 0.02 0 6.93207e-06 1.7505e-05 1 2
5144 1 2.54724 -1.06708 0.02 0 0 0 1 2
5146 1 2.52406 -1.2545 0.02 0 0 0 1 2
5248 1 2.24081 -6.02146 0.02 0 1.24157e-07 3.44252e-07 1 2
5249 1 2.25668 -5.82821 0.02 0 1.64463e-10 5.73548e-10 1 2
5246 1 2.03677 -6.01156 0.02 0 7.67993e-08 1.35321e-07 1 2
5247 1 2.04941 -5.82135 0.02 0 1.18937e-10 2.32623e-10 1 2
5251 1 2.65044 -5.99312 0.02 0 3e-08 9.77534e-08 1 2
5253 1 2.68417 -5.80529 0.02 0 2.88985e-11 1.7939e-10 1 2
5250 1 2.44489 -6.01249 0.02 0 5.44967e-08 1.9191e-07 1 2
5252 1 2.4685 -5.82207 0.02 0 6.74326e-11 3.1284e-10 1 2
5149 1 2.10518 -1.10874 0.02 0 0 0 1 2
5143 1 2.24902 -0.932889 0.02 0 0 0 1 2
5256 1 2.88772 -5.79812 0.02 0 2.4437e-11 1.61403e-10 1 2
5254 1 2.85784 -5.99713 0.02 0 2.44055e-08 1.02478e-07 1 2
5147 1 2.30252 -1.28735 0.02 0 0 0 1 2
5108 1 2.87183 -0.0351019 0.02 0 -1.53329e-25 6.80033e-26 1 2
5263 1 2.27627 -5.62507 0.02 0 0 0 1 2
5264 1 2.29141 -5.40769 0.02 0 0 0 1 2
5262 1 2.10314 -5.41693 0.02 0 0 0 1 2
5261 1 2.08773 -5.62226 0.02 0 0 0 1 2
5267 1 2.66533 -5.61507 0.02 0 0 0 1 2
5268 1 2.67022 -5.41754 0.02 0 0 0 1 2
5265 1 2.46666 -5.62812 0.02 0 0 0 1 2
5266 1 2.47833 -5.42473 0.02 0 0 0 1 2
5145 1 2.33498 -1.10321 0.02 0 0 0 1 2
5150 1 2.08512 -1.28906 0.02 0 0 0 1 2
5271 1 2.86223 -5.39761 0.02 0 0 0 1 2
5269 1 2.86939 -5.5998 0.02 0 0 0 1 2
5107 1 2.85795 -0.234756 0.02 0 -2.11218e-24 2.33921e-25 1 2
5113 1 2.45075 -0.340669 0.02 0 0 0 1 2
5279 1 2.28436 -5.19237 0.02 0 0 0 1 2
5280 1 2.28794 -4.97876 0.02 0 0 0 1 2
5277 1 2.10148 -5.00595 0.02 0 0 0 1 2
5278 1 2.10615 -4.79264 0.02 0 0 0 1 2
5276 1 2.09506 -5.21247 0.02 0 0 0 1 2
5284 1 2.663 -5.21522 0.02 0 0 0 1 2
5285 1 2.66512 -5.00797 0.02 0 0 0 1 2
5286 1 2.66701 -4.79197 0.02 0 0 0 1 2
5281 1 2.47194 -5.21301 0.02 0 0 0 1 2
5282 1 2.47599 -5.00124 0.02 0 0 0 1 2
5283 1 2.4799 -4.79077 0.02 0 0 0 1 2
5148 1 2.02585 -0.938433 0.02 0 0 0 1 2
5139 1 2.74457 -1.04387 0.02 0 0 0 1 2
5289 1 2.85408 -4.98309 0.02 0 0 0 1 2
5287 1 2.85643 -5.19114 0.02 0 0 0 1 2
5126 1 2.7023 -0.853378 0.02 0 0 0 1 2
5124 1 2.70209 -0.65809 0.02 0 0 0 1 2
5111 1 2.45118 -0.150124 0.02 0 0 0 1 2
5297 1 2.29152 -4.76728 0.02 0 0 0 1 2
5298 1 2.31847 -4.56208 0.02 0 0 0 1 2
5301 1 2.32538 -4.3542 0.02 0 0 0 1 2
5296 1 2.13102 -4.56671 0.02 0 0 0 1 2
5299 1 2.50699 -4.58159 0.02 0 0 0 1 2
5300 1 2.50834 -4.36739 0.02 0 0 0 1 2
5304 1 2.6914 -4.56698 0.02 0 0 0 1 2
5307 1 2.87154 -4.35647 0.02 0 0 0 1 2
5305 1 2.87781 -4.56602 0.02 0 0 0 1 2
5141 1 2.7332 -1.24562 0.02 0 0 0 1 2
5157 1 2.92847 -1.64589 0.02 0 -1.31424e-23 4.06745e-24 1 2
5302 1 2.85319 -4.77382 0.02 0 0 0 1 2
5109 1 2.65943 -0.0796097 0.02 0 0 0 1 2
5110 1 2.65734 -0.275458 0.02 0 0 0 1 2
5314 1 2.3193 -4.14028 0.02 0 0 0 1 2
5317 1 2.32337 -3.93002 0.02 0 0 0 1 2
5312 1 2.14598 -4.33566 0.02 0 0 0 1 2
5313 1 2.13352 -4.11035 0.02 0 0 0 1 2
5319 1 2.68857 -4.3411 0.02 0 0 0 1 2
5315 1 2.50752 -4.15041 0.02 0 0 0 1 2
5316 1 2.51997 -3.93899 0.02 0 0 0 1 2
5324 1 2.71804 -3.91968 0.02 0 0 0 1 2
5320 1 2.69548 -4.12554 0.02 0 0 0 1 2
5321 1 2.884 -4.14303 0.02 0 0 0 1 2
5155 1 2.92908 -1.45502 0.02 0 -7.62085e-25 5.23109e-25 1 2
5158 1 2.71633 -1.64028 0.02 0 -1.99269e-31 4.08244e-32 1 2
5129 1 2.25535 -0.55326 0.02 0 0 0 1 2
5323 1 2.91367 -3.93464 0.02 0 0 0 1 2
5112 1 2.23826 -0.165014 0.02 0 0 0 1 2
5114 1 2.24088 -0.358137 0.02 0 0 0 1 2
5329 1 2.12661 -3.90146 0.02 0 0 0 1 2
5330 1 2.16233 -3.70395 0.02 0 0 0 1 2
5331 1 2.14432 -3.50919 0.02 0 0 0 1 2
5334 1 2.56004 -3.73352 0.02 0 0 0 1 2
5335 1 2.55368 -3.52944 0.02 0 0 0 1 2
5332 1 2.36267 -3.72787 0.02 0 0 0 1 2
5333 1 2.35121 -3.52483 0.02 0 0 0 1 2
5337 1 2.75558 -3.51801 0.02 0 0 0 1 2
5336 1 2.75844 -3.71775 0.02 0 0 0 1 2
5338 1 2.95592 -3.73377 0.02 0 0 0 1 2
5339 1 2.95733 -3.53307 0.02 0 0 0 1 2
5131 1 2.29314 -0.744506 0.02 0 0 0 1 2
5133 1 2.08264 -0.755088 0.02 0 0 0 1 2
5345 1 2.08039 -3.13344 0.02 0 0 0 1 2
5344 1 2.10401 -3.32091 0.02 0 0 0 1 2
5347 1 2.29398 -3.13712 0.02 0 0 0 1 2
5346 1 2.31727 -3.32802 0.02 0 0 0 1 2
5348 1 2.52373 -3.32974 0.02 0 0 0 1 2
5349 1 2.50581 -3.13265 0.02 0 0 0 1 2
5351 1 2.71523 -3.13511 0.02 0 0 0 1 2
5350 1 2.73258 -3.32568 0.02 0 0 0 1 2
5353 1 2.92404 -3.14724 0.02 0 0 0 1 2
5352 1 2.94888 -3.33858 0.02 0 0 0 1 2
5132 1 2.05204 -0.565146 0.02 0 0 0 1 2
5156 1 2.72588 -1.44478 0.02 0 0 0 1 2
5212 1 2.05828 -2.75815 0.02 0 0 0 1 2
5213 1 2.08448 -2.94538 0.02 0 0 0 1 2
5211 1 2.29896 -2.94882 0.02 0 0 0 1 2
5210 1 2.26818 -2.76179 0.02 0 0 0 1 2
5206 1 2.67565 -2.74972 0.02 0 0 0 1 2
5209 1 2.50959 -2.93779 0.02 0 0 0 1 2
5208 1 2.47313 -2.74438 0.02 0 0 0 1 2
5207 1 2.72004 -2.9438 0.02 0 0 0 1 2
5204 1 2.87813 -2.76321 0.02 0 -3.59885e-31 -2.30275e-31 1 2
5161 1 2.50052 -1.63365 0.02 0 0 0 1 2
5205 1 2.93232 -2.95514 0.02 0 0 0 1 2
5138 1 2.93929 -1.05563 0.02 0 0 0 1 2
5115 1 2.02551 -0.183937 0.02 0 0 0 1 2
5199 1 2.05503 -2.57124 0.02 0 0 0 1 2
5196 1 2.27556 -2.57231 0.02 0 0 0 1 2
5197 1 2.19847 -2.39668 0.02 0 0 0 1 2
5198 1 2.13427 -2.22121 0.02 0 0 0 1 2
5192 1 2.57796 -2.1794 0.02 0 0 0 1 2
5191 1 2.63091 -2.36322 0.02 0 0 0 1 2
5195 1 2.48939 -2.55211 0.02 0 0 0 1 2
5194 1 2.41666 -2.37455 0.02 0 0 0 1 2
5193 1 2.35424 -2.20027 0.02 0 0 0 1 2
5186 1 2.8011 -2.19311 0.02 0 -3.3309e-25 -2.55553e-26 1 2
5190 1 2.69704 -2.55343 0.02 0 0 0 1 2
5189 1 2.90488 -2.5705 0.02 0 -1.5082e-24 -4.9759e-25 1 2
5188 1 2.84525 -2.37971 0.02 0 -8.87117e-25 -1.64146e-25 1 2
5162 1 2.28749 -1.66249 0.02 0 0 0 1 2
5140 1 2.93285 -1.25908 0.02 0 -1.03974e-33 1.1575e-33 1 2
5159 1 2.5241 -1.44213 0.02 0 0 0 1 2
5116 1 2.03203 -0.374342 0.02 0 0 0 1 2
5125 1 2.91129 -0.850583 0.02 0 0 0 1 2
5128 1 2.4577 -0.531385 0.02 0 0 0 1 2
5176 1 2.32354 -2.0199 0.02 0 0 0 1 2
5177 1 2.12593 -1.84793 0.02 0 0 0 1 2
5178 1 2.11432 -2.03422 0.02 0 0 0 1 2
5173 1 2.57221 -1.8133 0.02 0 0 0 1 2
5175 1 2.54069 -1.99759 0.02 0 0 0 1 2
5174 1 2.35434 -1.83786 0.02 0 0 0 1 2
5170 1 2.78725 -1.82671 0.02 0 -2.92157e-25 2.67971e-27 1 2
5172 1 2.7631 -2.01135 0.02 0 -5.61081e-26 -2.40174e-27 1 2
5127 1 2.66034 -0.469058 0.02 0 0 0 1 2
5130 1 2.50615 -0.714121 0.02 0 0 0 1 2
5105 1 2.21219 0.420223 0.02 0 0 0 1 2
5106 1 2.23646 0.0290292 0.02 0 0 0 1 2
5108 1 2.23035 0.22482 0.02 0 0 0 1 2
5103 1 2.02654 0.20342 0.02 0 0 0 1 2
5104 1 2.00903 0.400532 0.02 0 0 0 1 2
5102 1 2.03008 0.00784958 0.02 0 0 0 1 2
5110 1 2.64246 0.115019 0.02 0 0 0 1 2
5111 1 2.63066 0.311885 0.02 0 0 0 1 2
5107 1 2.44326 0.0421228 0.02 0 0 0 1 2
5109 1 2.43332 0.24089 0.02 0 0 0 1 2
281 2 2 8.6 0 0 0 0 1 5
282 2 2.2 8.6 0 0 0 0 1 5
283 2 2.4 8.6 0 0 0 0 1 5
5113 1 2.84892 0.337657 0.02 0 0 0 1 2
5112 1 2.84702 0.150107 0.02 0 0 0 1 2
489 2 2.8 9.8 0 0 0 0 1 5
488 2 2.6 9.8 0 0 0 0 1 5
455 2 2.8 9.6 0 0 0 0 1 5
5120 1 2.17713 0.61472 0.02 0 0 0 1 2
5121 1 2.16304 0.81746 0.02 0 0 0 1 2
5125 1 2.60138 0.507445 0.02 0 0 0 1 2
5126 1 2.56893 0.70355 0.02 0 0 0 1 2
5122 1 2.41097 0.443733 0.02 0 0 0 1 2
5123 1 2.37558 0.64725 0.02 0 0 0 1 2
5124 1 2.35175 0.853684 0.02 0 0 0 1 2
5127 1 2.80463 0.519094 0.02 0 0 0 1 2
5128 1 2.77217 0.71005 0.02 0 0 0 1 2
179 2 2 8 0 0 0 0 1 5
215 2 2.4 8.2 0 0 0 0 1 5
417 2 2 9.4 0 0 0 0 1 5
485 2 2 9.8 0 0 0 0 1 5
5137 1 2.31091 1.05738 0.02 0 0 0 1 2
5139 1 2.24682 1.25293 0.02 0 0 0 1 2
5135 1 2.05417 1.23142 0.02 0 0 0 1 2
5136 1 2.12092 1.02477 0.02 0 0 0 1 2
5142 1 2.65254 1.2933 0.02 0 0 0 1 2
5138 1 2.50076 1.10144 0.02 0 0 0 1 2
5140 1 2.54099 0.902173 0.02 0 0 0 1 2
5141 1 2.44198 1.29651 0.02 0 0 0 1 2
5144 1 2.70105 1.10115 0.02 0 0 0 1 2
5143 1 2.74079 0.905063 0.02 0 0 0 1 2
247 2 2 8.4 0 0 0 0 1 5
5146 1 2.89763 1.1398 0.02 0 0 0 1 2
5145 1 2.93767 0.949846 0.02 0 0 0 1 2
383 2 2 9.2 0 0 0 0 1 5
454 2 2.6 9.6 0 0 0 0 1 5
5152 1 2.0001 1.6641 0.02 0 0 0 1 2
5153 1 2.21427 1.45538 0.02 0 0 0 1 2
5151 1 2.02387 1.44734 0.02 0 0 0 1 2
5154 1 2.19153 1.66266 0.02 0 0 0 1 2
5157 1 2.5873 1.67923 0.02 0 0 0 1 2
5158 1 2.60792 1.48293 0.02 0 0 0 1 2
5155 1 2.4051 1.49772 0.02 0 0 0 1 2
5156 1 2.38579 1.7002 0.02 0 0 0 1 2
5161 1 2.79194 1.68446 0.02 0 -8.35704e-27 -1.46414e-27 1 2
5160 1 2.82015 1.50145 0.02 0 -3.04043e-32 -1.42386e-32 1 2
248 2 2.2 8.4 0 0 0 0 1 5
182 2 2.6 8 0 0 0 0 1 5
5159 1 2.86663 1.32449 0.02 0 0 0 1 2
214 2 2.2 8.2 0 0 0 0 1 5
420 2 2.6 9.4 0 0 0 0 1 5
453 2 2.4 9.6 0 0 0 0 1 5
452 2 2.2 9.6 0 0 0 0 1 5
5172 1 2.22776 2.08216 0.02 0 0 0 1 2
5168 1 2.00657 1.88342 0.02 0 0 0 1 2
5169 1 2.05191 2.12947 0.02 0 0 0 1 2
5170 1 2.1913 1.87355 0.02 0 0 0 1 2
5174 1 2.58559 1.87619 0.02 0 0 0 1 2
5175 1 2.60293 2.07661 0.02 0 0 0 1 2
5173 1 2.41657 2.11354 0.02 0 0 0 1 2
5171 1 2.38521 1.90348 0.02 0 0 0 1 2
5177 1 2.79647 2.05637 0.02 0 -1.89806e-25 -1.99369e-26 1 2
5176 1 2.80208 1.86922 0.02 0 -1.1661e-25 1.55144e-28 1 2
213 2 2 8.2 0 0 0 0 1 5
181 2 2.4 8 0 0 0 0 1 5
421 2 2.8 9.4 0 0 0 0 1 5
387 2 2.8 9.2 0 0 0 0 1 5
5187 1 2.26903 2.53955 0.02 0 0 0 1 2
5186 1 2.25703 2.29507 0.02 0 0 0 1 2
5185 1 2.09648 2.38837 0.02 0 0 0 1 2
5190 1 2.62037 2.28862 0.02 0 0 0 1 2
5191 1 2.62149 2.51709 0.02 0 0 0 1 2
5188 1 2.43996 2.33175 0.02 0 0 0 1 2
5189 1 2.44299 2.54629 0.02 0 0 0 1 2
5193 1 2.79732 2.45639 0.02 0 -1.36074e-25 2.2261e-26 1 2
5192 1 2.8081 2.25311 0.02 0 -4.95843e-25 7.69054e-27 1 2
180 2 2.2 8 0 0 0 0 1 5
115 2 2.8 7.6 0 0 0 0 1 5
386 2 2.6 9.2 0 0 0 0 1 5
384 2 2.2 9.2 0 0 0 0 1 5
5203 1 2.32986 2.80179 0.02 0 0 0 1 2
5200 1 2.10714 2.61673 0.02 0 0 0 1 2
5201 1 2.15182 2.80835 0.02 0 0 0 1 2
5202 1 2.20009 3.01271 0.02 0 0 0 1 2
5207 1 2.67643 2.73941 0.02 0 0 0 1 2
5205 1 2.49674 2.74907 0.02 0 0 0 1 2
5206 1 2.55084 2.96908 0.02 0 0 0 1 2
5204 1 2.38253 3.02991 0.02 0 0 0 1 2
5208 1 2.73084 2.95073 0.02 0 0 0 1 2
5210 1 2.89805 2.88047 0.02 0 0 0 1 2
5209 1 2.84292 2.66214 0.02 0 -2.60272e-26 1.44332e-26 1 2
81 2 2.8 7.4 0 0 0 0 0.999959 5
217 2 2.8 8.2 0 0 0 0 1 5
418 2 2.2 9.4 0 0 0 0 1 5
487 2 2.4 9.8 0 0 0 0 1 5
5217 1 2.01986 3.25923 0.02 0 0 0 1 2
5221 1 2.25385 3.4397 0.02 0 0 0 1 2
5219 1 2.20614 3.22992 0.02 0 0 0 1 2
5218 1 2.05611 3.45817 0.02 0 0 0 1 2
5216 1 2.01723 3.0467 0.02 0 0 0 1 2
5224 1 2.64055 3.40885 0.02 0 0 0 1 2
5223 1 2.57663 3.20139 0.02 0 0 0 1 2
5222 1 2.45089 3.44286 0.02 0 0 0 1 2
5220 1 2.39461 3.24171 0.02 0 0 0 1 2
5226 1 2.82161 3.35279 0.02 0 0 0 1 2
5225 1 2.75625 3.15582 0.02 0 0 0 1 2
114 2 2.6 7.6 0 0 0 0 1 5
5227 1 2.93785 3.11445 0.02 0 0 0 1 2
318 2 2.6 8.8 0 0 0 0 1 5
419 2 2.4 9.4 0 0 0 0 1 5
5233 1 2.05457 3.65904 0.02 0 0 0 1 2
5237 1 2.28347 3.84484 0.02 0 0 0 1 2
5235 1 2.24831 3.64525 0.02 0 0 0 1 2
5234 1 2.07802 3.8584 0.02 0 0 0 1 2
5239 1 2.64013 3.61791 0.02 0 0 0 1 2
5241 1 2.68862 3.81358 0.02 0 0 0 1 2
5238 1 2.49021 3.84482 0.02 0 0 0 1 2
5236 1 2.4445 3.64778 0.02 0 0 0 1 2
5242 1 2.87915 3.77574 0.02 0 0 0 1 2
148 2 2.6 7.8 0 0 0 0 1 5
5240 1 2.8303 3.56692 0.02 0 0 0 1 2
216 2 2.6 8.2 0 0 0 0 1 5
385 2 2.4 9.2 0 0 0 0 1 5
486 2 2.2 9.8 0 0 0 0 1 5
5253 1 2.30309 4.2461 0.02 0 0 0 1 2
5251 1 2.32596 4.04207 0.02 0 0 0 1 2
5250 1 2.10869 4.26103 0.02 0 0 0 1 2
5249 1 2.12816 4.0541 0.02 0 0 0 1 2
5252 1 2.52184 4.04592 0.02 0 0 0 1 2
5254 1 2.50361 4.24647 0.02 0 0 0 1 2
5257 1 2.70677 4.21783 0.02 0 0 0 1 2
5255 1 2.71417 4.01428 0.02 0 0 0 1 2
183 2 2.8 8 0 0 0 0 1 5
5258 1 2.90998 4.19141 0.02 0 0 0 1 2
5256 1 2.90598 3.98652 0.02 0 0 0 1 2
319 2 2.8 8.8 0 0 0 0 1 5
451 2 2 9.6 0 0 0 0 1 5
5266 1 2.3255 4.64373 0.02 0 0 0 1 2
5263 1 2.1297 4.67827 0.02 0 0 0 1 2
5264 1 2.16203 4.46434 0.02 0 0 0 1 2
5268 1 2.56739 4.43731 0.02 0 0 0 1 2
5267 1 2.52697 4.63595 0.02 0 0 0 1 2
5265 1 2.36274 4.44368 0.02 0 0 0 1 2
5269 1 2.76733 4.4106 0.02 0 0 0 1 2
5271 1 2.72994 4.61454 0.02 0 0 0 1 2
5273 1 2.92739 4.77922 0.02 0 0 0 1 2
5272 1 2.93359 4.58199 0.02 0 0 0 1 2
80 2 2.6 7.4 0 0 0 0 0.993144 5
352 2 2.6 9 0 0 0 0 1 5
353 2 2.8 9 0 0 0 0 1 5
350 2 2.2 9 0 0 0 0 1 5
5280 1 2.13111 5.09763 0.02 0 0 0 1 2
5282 1 2.33181 4.84638 0.02 0 0 0 1 2
5284 1 2.32871 5.05475 0.02 0 0 0 1 2
5281 1 2.14276 4.89028 0.02 0 0 0 1 2
5283 1 2.53029 4.83495 0.02 0 0 0 1 2
5285 1 2.52968 5.03095 0.02 0 0 0 1 2
5287 1 2.73858 5.01149 0.02 0 0 0 1 2
5286 1 2.72997 4.81574 0.02 0 0 0 1 2
5289 1 2.75128 5.20571 0.02 0 0 0 1 2
5288 1 2.94793 4.97452 0.02 0 0 0 1 2
5290 1 2.9539 5.16916 0.02 0 0 0 1 2
349 2 2 9 0 0 0 0 1 5
317 2 2.4 8.8 0 0 0 0 1 5
5296 1 2.14746 5.29293 0.02 0 0 0 1 2
5295 1 2.15225 5.4855 0.02 0 0 0 1 2
5301 1 2.54481 5.62374 0.02 0 0 0 1 2
5300 1 2.54522 5.42278 0.02 0 0 0 1 2
5298 1 2.54764 5.22476 0.02 0 0 0 1 2
5299 1 2.35114 5.46734 0.02 0 0 0 1 2
5297 1 2.34787 5.26002 0.02 0 0 0 1 2
5302 1 2.74605 5.4032 0.02 0 0 0 1 2
5304 1 2.74241 5.60256 0.02 0 0 0 1 2
5303 1 2.94638 5.36919 0.02 0 0 0 1 2
5305 1 2.93556 5.57455 0.02 0 0 0 1 2
316 2 2.2 8.8 0 0 0 0 1 5
315 2 2 8.8 0 0 0 0 1 5
5310 1 2.12615 5.67034 0.02 0 0 0 1 2
5311 1 2.14472 5.85482 0.02 0 4.52114e-10 -7.52754e-10 1 2
5312 1 2.14646 6.03867 0.02 0 1.79686e-08 -2.69046e-08 1 2
5317 1 2.56065 6.01458 0.02 0 6.87109e-08 -1.87406e-07 1 2
5315 1 2.55182 5.82122 0.02 0 6.90236e-11 -2.36075e-10 1 2
5313 1 2.34316 5.66704 0.02 0 0 0 1 2
5316 1 2.35374 6.04612 0.02 0 3.14696e-07 -7.01091e-07 1 2
5314 1 2.35205 5.85877 0.02 0 6.4826e-10 -1.96971e-09 1 2
5318 1 2.75099 5.79945 0.02 0 2.20521e-11 -5.95736e-11 1 2
5320 1 2.76243 5.99317 0.02 0 3.15308e-08 -9.86245e-08 1 2
5319 1 2.9482 5.77898 0.02 0 6.8233e-12 -2.08295e-11 1 2
5321 1 2.95568 5.98486 0.02 0 2.28909e-08 -6.11448e-08 1 2
351 2 2.4 9 0 0 0 0 1 5
250 2 2.6 8.4 0 0 0 0 1 5
5326 1 2.08968 6.20677 0.02 0 8.06227e-07 -6.9507e-07 1 2
5330 1 2.32628 6.40299 0.02 0 0.000176642 -0.000223255 1 2
5328 1 2.32777 6.22473 0.02 0 1.54696e-05 -2.69673e-05 1 2
5327 1 2.11755 6.38119 0.02 0 8.74008e-05 -6.15593e-05 1 2
5331 1 2.53905 6.37972 0.02 0 0.00011661 -0.000152226 1 2
5329 1 2.5483 6.20081 0.02 0 8.67178e-06 -1.55405e-05 1 2
5334 1 2.75608 6.36815 0.02 0 9.16195e-05 -0.000131208 1 2
5332 1 2.75574 6.18323 0.02 0 5.83341e-06 -1.12591e-05 1 2
5333 1 2.95528 6.18731 0.02 0 5.99561e-06 -1.05322e-05 1 2
5335 1 2.95796 6.38264 0.02 0 0.000103048 -0.000140192 1 2
251 2 2.8 8.4 0 0 0 0 1 5
284 2 2.6 8.6 0 0 0 0 1 5
5341 1 2.00127 6.77591 0.02 0 -0.00297172 0.00128961 1 2
5340 1 2.15056 6.55864 0.02 0 0.000539848 -0.000347219 1 2
5342 1 2.2006 6.73547 0.02 0 -0.00157042 0.000461721 1 2
5346 1 2.59226 6.73942 0.02 0 -0.00240056 0.000448159 1 2
5344 1 2.55141 6.55907 0.02 0 0.000207167 -0.000482946 1 2
5345 1 2.40003 6.77117 0.02 0 -0.00336609 0.000511312 1 2
5343 1 2.35787 6.58209 0.02 0 0.000245202 -0.000555839 1 2
5347 1 2.74878 6.55119 0.02 0 0.000236102 -0.000487404 1 2
5349 1 2.77868 6.74047 0.02 0 -0.00281374 0.000527884 1 2
149 2 2.8 7.8 0 0 0 0 1 5
5348 1 2.95339 6.56689 0.02 0 0.000214567 -0.000462427 1 2
285 2 2.8 8.6 0 0 0 0 1 5
249 2 2.4 8.4 0 0 0 0 1 5
9 2 2 7 0 0 0 0 1.00357 5
10 2 2.2 7 0 0 0 0 1.00104 5
11 2 2.4 7 0 0 0 0 1.00005 5
43 2 2 7.2 0 0 0 0 1.00201 5
44 2 2.2 7.2 0 0 0 0 1.00061 5
45 2 2.4 7.2 0 0 0 0 1.00006 5
47 2 2.8 7.2 0 0 0 0 1.00038 5
12 2 2.6 7 0 0 0 0 0.999018 5
46 2 2.6 7.2 0 0 0 0 0.997793 5
13 2 2.8 7 0 0 0 0 1.00005 5
111 2 2 7.6 0 0 0 0 1 5
146 2 2.2 7.8 0 0 0 0 1 5
112 2 2.2 7.6 0 0 0 0 1 5
113 2 2.4 7.6 0 0 0 0 1 5
145 2 2 7.8 0 0 0 0 1 5
79 2 2.4 7.4 0 0 0 0 1 5
77 2 2 7.4 0 0 0 0 1.00006 5
78 2 2.2 7.4 0 0 0 0 0.998487 5
147 2 2.4 7.8 0 0 0 0 1 5
1583 2 3.2 -9.6 0 0 0 0 1 5
1582 2 3 -9.6 0 0 0 0 1 5
1549 2 3.2 -9.8 0 0 0 0 1 5
1548 2 3 -9.8 0 0 0 0 1 5
1515 2 3.2 -10 0 0 0 0 1 5
1514 2 3 -10 0 0 0 0 1 5
1584 2 3.4 -9.6 0 0 0 0 1 5
1550 2 3.4 -9.8 0 0 0 0 1 5
1516 2 3.4 -10 0 0 0 0 1 5
1586 2 3.8 -9.6 0 0 0 0 1 5
1585 2 3.6 -9.6 0 0 0 0 1 5
1552 2 3.8 -9.8 0 0 0 0 1 5
1551 2 3.6 -9.8 0 0 0 0 1 5
1518 2 3.8 -10 0 0 0 0 1 5
1517 2 3.6 -10 0 0 0 0 1 5
1588 2 4.2 -9.6 0 0 0 0 1 5
1587 2 4 -9.6 0 0 0 0 1 5
1554 2 4.2 -9.8 0 0 0 0 1 5
1553 2 4 -9.8 0 0 0 0 1 5
1520 2 4.2 -10 0 0 0 0 1 5
1519 2 4 -10 0 0 0 0 1 5
1616 2 3 -9.4 0 0 0 0 1 5
1617 2 3.2 -9.4 0 0 0 0 1 5
1651 2 3.2 -9.2 0 0 0 0 1 5
1650 2 3 -9.2 0 0 0 0 1 5
1652 2 3.4 -9.2 0 0 0 0 1 5
1618 2 3.4 -9.4 0 0 0 0 1 5
1653 2 3.6 -9.2 0 0 0 0 1 5
1654 2 3.8 -9.2 0 0 0 0 1 5
1620 2 3.8 -9.4 0 0 0 0 1 5
1619 2 3.6 -9.4 0 0 0 0 1 5
1622 2 4.2 -9.4 0 0 0 0 1 5
1655 2 4 -9.2 0 0 0 0 1 5
1656 2 4.2 -9.2 0 0 0 0 1 5
1621 2 4 -9.4 0 0 0 0 1 5
1719 2 3.2 -8.8 0 0 0 0 1 5
1718 2 3 -8.8 0 0 0 0 1 5
1685 2 3.2 -9 0 0 0 0 1 5
1684 2 3 -9 0 0 0 0 1 5
1686 2 3.4 -9 0 0 0 0 1 5
1720 2 3.4 -8.8 0 0 0 0 1 5
1687 2 3.6 -9 0 0 0 0 1 5
1688 2 3.8 -9 0 0 0 0 1 5
1721 2 3.6 -8.8 0 0 0 0 1 5
1722 2 3.8 -8.8 0 0 0 0 1 5
1689 2 4 -9 0 0 0 0 1 5
1690 2 4.2 -9 0 0 0 0 1 5
1723 2 4 -8.8 0 0 0 0 1 5
1724 2 4.2 -8.8 0 0 0 0 1 5
1752 2 3 -8.6 0 0 0 0 1 5
1753 2 3.2 -8.6 0 0 0 0 1 5
1786 2 3 -8.4 0 0 0 0 1 5
1787 2 3.2 -8.4 0 0 0 0 1 5
1754 2 3.4 -8.6 0 0 0 0 1 5
1788 2 3.4 -8.4 0 0 0 0 1 5
1755 2 3.6 -8.6 0 0 0 0 1 5
1756 2 3.8 -8.6 0 0 0 0 1 5
1789 2 3.6 -8.4 0 0 0 0 1 5
1790 2 3.8 -8.4 0 0 0 0 1 5
1757 2 4 -8.6 0 0 0 0 1 5
1758 2 4.2 -8.6 0 0 0 0 1 5
1791 2 4 -8.4 0 0 0 0 1 5
1792 2 4.2 -8.4 0 0 0 0 1 5
1820 2 3 -8.2 0 0 0 0 1 5
1821 2 3.2 -8.2 0 0 0 0 1 5
1854 2 3 -8 0 0 0 0 1 5
1855 2 3.2 -8 0 0 0 0 1 5
1822 2 3.4 -8.2 0 0 0 0 1 5
1856 2 3.4 -8 0 0 0 0 1 5
1823 2 3.6 -8.2 0 0 0 0 1 5
1824 2 3.8 -8.2 0 0 0 0 1 5
1857 2 3.6 -8 0 0 0 0 1 5
1858 2 3.8 -8 0 0 0 0 1 5
1825 2 4 -8.2 0 0 0 0 1 5
1826 2 4.2 -8.2 0 0 0 0 1 5
1859 2 4 -8 0 0 0 0 1 5
1860 2 4.2 -8 0 0 0 0 1 5
1888 2 3 -7.8 0 0 0 0 1 5
1889 2 3.2 -7.8 0 0 0 0 1 5
1922 2 3 -7.6 0 0 0 0 1 5
1923 2 3.2 -7.6 0 0 0 0 1 5
1956 2 3 -7.4 0 0 0 0 0.998778 5
1957 2 3.2 -7.4 0 0 0 0 1.00087 5
1890 2 3.4 -7.8 0 0 0 0 1 5
1924 2 3.4 -7.6 0 0 0 0 1 5
1958 2 3.4 -7.4 0 0 0 0 0.999092 5
1891 2 3.6 -7.8 0 0 0 0 1 5
1892 2 3.8 -7.8 0 0 0 0 1 5
1925 2 3.6 -7.6 0 0 0 0 1 5
1926 2 3.8 -7.6 0 0 0 0 1 5
1959 2 3.6 -7.4 0 0 0 0 0.990027 5
1960 2 3.8 -7.4 0 0 0 0 1.00524 5
1893 2 4 -7.8 0 0 0 0 1 5
1894 2 4.2 -7.8 0 0 0 0 1 5
1927 2 4 -7.6 0 0 0 0 1 5
1928 2 4.2 -7.6 0 0 0 0 1 5
1961 2 4 -7.4 0 0 0 0 1.00033 5
1962 2 4.2 -7.4 0 0 0 0 0.997241 5
1990 2 3 -7.2 0 0 0 0 1.00015 5
1991 2 3.2 -7.2 0 0 0 0 1.00095 5
2024 2 3 -7 0 0 0 0 1.00006 5
2025 2 3.2 -7 0 0 0 0 1.00016 5
1992 2 3.4 -7.2 0 0 0 0 0.99657 5
2026 2 3.4 -7 0 0 0 0 0.996405 5
1993 2 3.6 -7.2 0 0 0 0 0.991688 5
1994 2 3.8 -7.2 0 0 0 0 1.00587 5
2027 2 3.6 -7 0 0 0 0 0.99298 5
2028 2 3.8 -7 0 0 0 0 1.00554 5
1995 2 4 -7.2 0 0 0 0 1.00217 5
1996 2 4.2 -7.2 0 0 0 0 1.00043 5
2029 2 4 -7 0 0 0 0 1.00308 5
2030 2 4.2 -7 0 0 0 0 1.00041 5
5229 1 3.40244 -6.57403 0.02 0 0.000302353 0.000438484 1 2
5227 1 3.42513 -6.75794 0.02 0 -0.00202004 -0.000248973 1 2
4957 1 3.93259 -6.75534 0.0129215 0 -0.00143237 -0.000412505 1 2
4956 1 4.02361 -6.58047 0.0159167 0 -9.62915e-06 -5.16146e-05 1 2
4960 1 4.23237 -6.57021 0.0164184 0 -0.000110868 0.000379496 1 2
4958 1 4.1021 -6.7545 0.0136132 0 -0.00293059 -0.000234918 1 2
5187 1 3.05602 -2.39606 0.02 0 -2.17648e-22 -4.13863e-23 1 2
4959 1 4.27162 -6.73795 0.0141489 0 -0.00207454 0.000256716 1 2
4962 1 4.38912 -6.75641 0.0133294 0 -0.00192732 0.000123595 1 2
5166 1 3.20257 -1.79509 0.02 0 -6.22786e-22 1.28988e-22 1 2
5168 1 3.19721 -1.9925 0.02 0 -1.02439e-21 3.18084e-23 1 2
5243 1 3.42738 -6.38819 0.02 0 0.000107719 0.00018268 1 2
5245 1 3.44995 -6.19007 0.02 0 3.94512e-06 2.37946e-05 1 2
4972 1 4.05874 -6.2288 0.0171231 0 7.16714e-05 2.77547e-05 1 2
4973 1 4.06374 -6.4079 0.0164257 0 8.26788e-05 0.000117756 1 2
4974 1 4.26504 -6.38721 0.0161431 0 0.000594735 0.000255462 1 2
4975 1 4.28057 -6.20378 0.0177317 0 -4.8865e-05 1.44208e-05 1 2
5203 1 3.08557 -2.78166 0.02 0 -2.6576e-24 -2.44372e-24 1 2
5121 1 3.07858 -0.55788 0.02 0 -8.13975e-23 -5.18768e-23 1 2
5134 1 3.31317 -0.980999 0.02 0 -6.40642e-34 -9.56655e-34 1 2
5119 1 3.28548 -0.778283 0.02 0 -3.34821e-24 -5.96978e-24 1 2
5259 1 3.45675 -5.96801 0.02 0 -3.37995e-06 -8.15183e-07 1 2
4986 1 4.03671 -5.85696 0.0185299 0 -1.50351e-07 -1.17342e-06 1 2
4987 1 4.05592 -6.0486 0.0185194 0 -0.000287778 -1.24379e-05 1 2
4988 1 4.26142 -6.01867 0.0185188 0 -7.69049e-05 -8.02624e-06 1 2
4989 1 4.22646 -5.82533 0.018592 0 -5.03206e-06 2.50659e-05 1 2
5322 1 3.0755 -4.14135 0.02 0 0 0 1 2
4990 1 4.42233 -5.81429 0.0185502 0 4.3186e-06 4.93496e-05 1 2
5180 1 3.22047 -2.18617 0.02 0 -1.18323e-21 -7.8879e-24 1 2
5118 1 3.27672 -0.567091 0.02 0 -3.15504e-22 -2.49557e-22 1 2
5275 1 3.45255 -5.35989 0.02 0 -3.44065e-06 2.84428e-07 1 2
5004 1 4.04117 -5.23262 0.0190133 0 -1.42642e-05 -5.10252e-06 1 2
5000 1 4.04865 -5.64953 0.0186957 0 -1.74185e-07 2.51979e-07 1 2
5002 1 4.05035 -5.44144 0.0188563 0 -6.32445e-06 -9.99449e-07 1 2
5001 1 4.24315 -5.62334 0.0186941 0 -2.82231e-06 3.91224e-06 1 2
5003 1 4.24366 -5.41999 0.0188755 0 1.05297e-05 -8.061e-07 1 2
5318 1 3.06039 -4.34635 0.02 0 0 0 1 2
5306 1 3.06759 -4.55533 0.02 0 0 0 1 2
5007 1 4.42057 -5.21795 0.0190759 0 -2.41329e-06 -1.53474e-07 1 2
5292 1 3.24222 -4.98615 0.02 0 0 0 1 2
5182 1 3.25883 -2.38317 0.02 0 -1.3756e-21 -4.49769e-23 1 2
5293 1 3.44388 -4.98078 0.02 0 -1.22947e-06 2.16281e-07 1 2
5295 1 3.43255 -4.78313 0.02 0 -8.97872e-08 -7.30119e-10 1 2
5020 1 4.02314 -5.01823 0.0191584 0 -8.55285e-06 -4.80507e-06 1 2
5019 1 4.22738 -5.2099 0.0190409 0 1.11732e-05 -1.31629e-06 1 2
5021 1 4.20725 -4.99268 0.0191426 0 4.83796e-05 1.35305e-07 1 2
5152 1 3.12977 -1.40796 0.02 0 -5.45946e-24 6.42133e-24 1 2
5022 1 4.39424 -5.01454 0.0191958 0 1.36212e-05 -6.56964e-07 1 2
5023 1 4.37425 -4.80046 0.0195248 0 -2.08275e-05 8.90329e-07 1 2
5294 1 3.23576 -4.78802 0.02 0 0 0 1 2
5242 1 3.21983 -6.37339 0.02 0 0.000101722 0.000131974 1 2
5183 1 3.31236 -2.58029 0.02 0 -4.42513e-22 -1.16214e-22 1 2
5303 1 3.04375 -4.7645 0.02 0 0 0 1 2
5309 1 3.45046 -4.58362 0.02 0 -8.6564e-07 2.21845e-08 1 2
5311 1 3.4495 -4.38719 0.02 0 -2.47029e-07 1.29109e-08 1 2
5038 1 4.01359 -4.57803 0.0196676 0 -1.91554e-05 1.63649e-06 1 2
5041 1 4.0539 -4.3673 0.0197055 0 1.57717e-05 2.99419e-06 1 2
5042 1 4.25333 -4.36807 0.019746 0 1.94806e-05 6.32554e-06 1 2
5039 1 4.20419 -4.57054 0.0196905 0 1.45291e-05 1.17547e-06 1 2
5037 1 4.18557 -4.77962 0.0194616 0 1.10354e-05 -2.15698e-07 1 2
5290 1 3.04598 -4.97307 0.02 0 0 0 1 2
5040 1 4.39617 -4.58634 0.0197969 0 -3.75651e-05 1.78104e-10 1 2
5226 1 3.2136 -6.7694 0.02 0 -0.00288528 -0.000480433 1 2
5228 1 3.21327 -6.56871 0.02 0 0.000207739 0.000377666 1 2
5327 1 3.46538 -4.19435 0.02 0 -1.69194e-07 -3.43646e-08 1 2
5057 1 4.09711 -3.95057 0.0199505 0 -9.37692e-06 1.27182e-06 1 2
5055 1 4.07956 -4.16107 0.0198236 0 3.32796e-06 2.30175e-06 1 2
5056 1 4.27616 -4.16298 0.0198712 0 -2.77795e-06 -1.61883e-06 1 2
5058 1 4.28853 -3.95576 0.0199796 0 -1.3819e-05 -4.89842e-07 1 2
5288 1 3.0536 -5.17698 0.02 0 0 0 1 2
5272 1 3.05451 -5.37873 0.02 0 0 0 1 2
5200 1 3.29587 -2.77955 0.02 0 -1.99012e-23 -1.24973e-23 1 2
5326 1 3.26655 -4.17616 0.02 0 0 0 1 2
5343 1 3.35908 -3.57567 0.02 0 -1.38101e-13 1.32412e-13 1 2
5342 1 3.34832 -3.77646 0.02 0 0 0 1 2
5071 1 4.12072 -3.73477 0.02 0 -1.18783e-05 -9.60947e-07 1 2
5072 1 4.12242 -3.51789 0.02 0 -7.93307e-07 -6.28459e-08 1 2
5154 1 3.13738 -1.60677 0.02 0 -1.17603e-22 7.1803e-23 1 2
5270 1 3.07319 -5.57637 0.02 0 0 0 1 2
5074 1 4.31004 -3.53709 0.02 0 3.50221e-06 1.62341e-06 1 2
5073 1 4.31094 -3.74794 0.02 0 4.03897e-06 1.38381e-06 1 2
5328 1 3.30592 -3.97478 0.02 0 0 0 1 2
5308 1 3.25727 -4.58755 0.02 0 0 0 1 2
5357 1 3.34057 -3.17797 0.02 0 0 0 1 2
5356 1 3.36988 -3.37646 0.02 0 0 0 1 2
5089 1 4.12568 -3.09498 0.02 0 2.37642e-10 2.55462e-10 1 2
5087 1 4.11446 -3.30217 0.02 0 -8.97463e-10 -1.10883e-10 1 2
5106 1 3.06221 -0.358352 0.02 0 -3.48555e-22 -4.8483e-23 1 2
5184 1 3.11138 -2.58908 0.02 0 -1.10418e-22 -5.57308e-23 1 2
5090 1 4.31986 -3.11224 0.02 0 8.97474e-09 1.11889e-08 1 2
5088 1 4.30041 -3.32282 0.02 0 3.03296e-07 2.22202e-07 1 2
5310 1 3.25158 -4.38169 0.02 0 0 0 1 2
5291 1 3.25779 -5.18093 0.02 0 0 0 1 2
5201 1 3.34401 -2.9776 0.02 0 -1.86454e-26 -1.37843e-26 1 2
4954 1 4.11798 -2.89186 0.02 0 3.90273e-13 3.65546e-13 1 2
4952 1 4.12794 -2.69006 0.02 0 2.74967e-15 3.71326e-15 1 2
5137 1 3.12428 -1.20028 0.02 0 -2.53938e-27 4.5285e-27 1 2
5135 1 3.12072 -0.982393 0.02 0 0 0 1 2
4951 1 4.32751 -2.7013 0.02 0 2.12544e-14 2.61357e-14 1 2
4953 1 4.31563 -2.9059 0.02 0 1.62597e-11 2.18544e-11 1 2
5273 1 3.27557 -5.57908 0.02 0 0 0 1 2
5274 1 3.25093 -5.3784 0.02 0 0 0 1 2
5181 1 3.46347 -2.38971 0.02 0 3.50551e-21 -1.85637e-22 1 2
5179 1 3.42069 -2.19044 0.02 0 2.26914e-21 2.45119e-22 1 2
4938 1 4.0548 -2.27668 0.02 0 2.14729e-18 -2.71316e-19 1 2
4939 1 4.0952 -2.48392 0.02 0 -1.74201e-18 4.60632e-19 1 2
4940 1 4.28772 -2.49402 0.02 0 1.23461e-17 1.70696e-17 1 2
4937 1 4.24734 -2.27951 0.02 0 2.59013e-19 -5.21951e-19 1 2
5257 1 3.08762 -5.7706 0.02 0 2.37011e-12 1.71335e-11 1 2
5255 1 3.06135 -5.96557 0.02 0 1.26301e-08 4.54982e-08 1 2
4857 1 4.06582 -0.329982 0.02 0 1.04757e-18 3.55668e-20 1 2
5258 1 3.26333 -5.9826 0.02 0 2.79628e-08 8.55853e-08 1 2
5165 1 3.39667 -1.78013 0.02 0 1.36408e-21 8.46939e-23 1 2
5167 1 3.4052 -1.98573 0.02 0 2.6976e-21 1.29862e-22 1 2
4921 1 4.01955 -1.87308 0.02 0 -4.16552e-18 -2.96444e-18 1 2
4923 1 4.0293 -2.07675 0.02 0 -7.38038e-18 -7.54195e-19 1 2
4922 1 4.23365 -2.07103 0.02 0 -4.20448e-18 -1.02654e-18 1 2
4920 1 4.21674 -1.86633 0.02 0 -3.51324e-18 2.59138e-18 1 2
4918 1 4.41473 -1.89697 0.02 0 9.89619e-18 -2.67737e-19 1 2
5105 1 3.05393 -0.162154 0.02 0 -2.04588e-22 6.36686e-23 1 2
5102 1 3.45153 -0.297234 0.02 0 4.48505e-21 2.47186e-22 1 2
5260 1 3.28445 -5.7827 0.02 0 1.90633e-11 6.34016e-11 1 2
5153 1 3.3433 -1.58039 0.02 0 -3.55399e-23 1.63382e-23 1 2
5151 1 3.32859 -1.38132 0.02 0 -1.56286e-24 1.32666e-24 1 2
4906 1 4.16308 -1.66502 0.02 0 1.0596e-17 1.97361e-18 1 2
4904 1 4.13326 -1.46594 0.02 0 6.91057e-18 -2.7899e-18 1 2
5122 1 3.09333 -0.767769 0.02 0 -7.35559e-25 -9.06592e-25 1 2
5103 1 3.26114 -0.151373 0.02 0 -1.39318e-21 3.71246e-22 1 2
4854 1 4.26873 -0.102094 0.02 0 -2.44132e-19 -2.06603e-20 1 2
4905 1 4.36619 -1.68959 0.02 0 -1.78784e-17 9.89941e-19 1 2
4903 1 4.34151 -1.4917 0.02 0 -2.49111e-17 8.35024e-19 1 2