ITEM: TIMESTEP
1000
ITEM: NUMBER OF ATOMS
1127
ITEM: BOX BOUNDS ff ff pp
0.0000000000000000e+00 4.4000000000000004e+00
-1.0000000000000000e+01 1.0000000000000000e+01
-2.0000000000000000e-02 2.0000000000000000e-02
ITEM: ATOMS id type x y vx vy fx fy c_den c_phase
1501 2 0.7996 -10 0.02 0 0 0 1 5
1535 2 0.7996 -9.8 0.02 0 0 0 1 5
1569 2 0.7996 -9.6 0.02 0 0 0 1 5
1502 2 0.9996 -10 0.02 0 0 0 1 5
1503 2 1.1996 -10 0.02 0 0 0 1 5
1536 2 0.9996 -9.8 0.02 0 0 0 1 5
1537 2 1.1996 -9.8 0.02 0 0 0 1 5
1570 2 0.9996 -9.6 0.02 0 0 0 1 5
1571 2 1.1996 -9.6 0.02 0 0 0 1 5
1504 2 1.3996 -10 0.02 0 0 0 1 5
2232 1 1.28983 -5.02973 0.02 0 0 0 1 2
2242 1 0.853681 -4.66888 0.02 0 0 0 1 2
1538 2 1.3996 -9.8 0.02 0 0 0 1 5
2231 1 1.30448 -5.21105 0.02 0 0 0 1 2
2241 1 0.672741 -4.48385 0.02 0 0 0 1 2
1572 2 1.3996 -9.6 0.02 0 0 0 1 5
2230 1 1.11325 -4.85376 0.02 0 0 0 1 2
2283 1 1.45644 -3.54144 0.02 0 0 0 1 2
1637 2 0.7996 -9.2 0.02 0 0 0 1 5
1603 2 0.7996 -9.4 0.02 0 0 0 1 5
1638 2 0.9996 -9.2 0.02 0 0 0 1 5
1639 2 1.1996 -9.2 0.02 0 0 0 1 5
1605 2 1.1996 -9.4 0.02 0 0 0 1 5
1604 2 0.9996 -9.4 0.02 0 0 0 1 5
1640 2 1.3996 -9.2 0.02 0 0 0 1 5
2229 1 1.07611 -5.03667 0.02 0 0 0 1 2
2282 1 1.24302 -3.54809 0.02 0 0 0 1 2
2281 1 1.45874 -3.73478 0.02 0 0 0 1 2
2228 1 1.05816 -5.21635 0.02 0 0 0 1 2
1606 2 1.3996 -9.4 0.02 0 0 0 1 5
1671 2 0.7996 -9 0.02 0 0 0 1 5
1705 2 0.7996 -8.8 0.02 0 0 0 1 5
1672 2 0.9996 -9 0.02 0 0 0 1 5
1673 2 1.1996 -9 0.02 0 0 0 1 5
1706 2 0.9996 -8.8 0.02 0 0 0 1 5
1707 2 1.1996 -8.8 0.02 0 0 0 1 5
1674 2 1.3996 -9 0.02 0 0 0 1 5
2227 1 0.893885 -4.85243 0.02 0 0 0 1 2
2280 1 1.24845 -3.73604 0.02 0 0 0 1 2
1708 2 1.3996 -8.8 0.02 0 0 0 1 5
2226 1 0.856113 -5.03345 0.02 0 0 0 1 2
2279 1 1.04685 -3.72594 0.02 0 0 0 1 2
1773 2 0.7996 -8.4 0.02 0 0 0 1 5
1739 2 0.7996 -8.6 0.02 0 0 0 1 5
1775 2 1.1996 -8.4 0.02 0 0 0 1 5
1774 2 0.9996 -8.4 0.02 0 0 0 1 5
1741 2 1.1996 -8.6 0.02 0 0 0 1 5
1740 2 0.9996 -8.6 0.02 0 0 0 1 5
2278 1 1.03118 -3.52872 0.02 0 0 0 1 2
2225 1 0.825862 -5.21235 0.02 0 0 0 1 2
1776 2 1.3996 -8.4 0.02 0 0 0 1 5
2277 1 0.826203 -3.52264 0.02 0 0 0 1 2
2224 1 0.671381 -4.85148 0.02 0 0 0 1 2
1742 2 1.3996 -8.6 0.02 0 0 0 1 5
1841 2 0.7996 -8 0.02 0 0 0 1 5
1807 2 0.7996 -8.2 0.02 0 0 0 1 5
1843 2 1.1996 -8 0.02 0 0 0 1 5
1842 2 0.9996 -8 0.02 0 0 0 1 5
1809 2 1.1996 -8.2 0.02 0 0 0 1 5
1808 2 0.9996 -8.2 0.02 0 0 0 1 5
2276 1 0.848047 -3.72231 0.02 0 0 0 1 2
2223 1 0.628122 -5.02856 0.02 0 0 0 1 2
1844 2 1.3996 -8 0.02 0 0 0 1 5
2275 1 0.648495 -3.72616 0.02 0 0 0 1 2
2222 1 0.448509 -4.83834 0.02 0 0 0 1 2
1810 2 1.3996 -8.2 0.02 0 0 0 1 5
1943 2 0.7996 -7.4 0.02 0 0 0 1 5
1909 2 0.7996 -7.6 0.02 0 0 0 1 5
1875 2 0.7996 -7.8 0.02 0 0 0 1 5
1945 2 1.1996 -7.4 0.02 0 0 0 1 5
1944 2 0.9996 -7.4 0.02 0 0 0 1 5
1911 2 1.1996 -7.6 0.02 0 0 0 1 5
1910 2 0.9996 -7.6 0.02 0 0 0 1 5
1877 2 1.1996 -7.8 0.02 0 0 0 1 5
1876 2 0.9996 -7.8 0.02 0 0 0 1 5
2274 1 0.624503 -3.52888 0.02 0 0 0 1 2
2221 1 0.605828 -5.20967 0.02 0 0 0 1 2
1946 2 1.3996 -7.4 0.02 0 0 0 1 5
2273 1 0.445671 -3.68365 0.02 0 0 0 1 2
2244 1 1.07376 -4.67305 0.02 0 0 0 1 2
1912 2 1.3996 -7.6 0.02 0 0 0 1 5
2272 1 0.497963 -3.89073 0.02 0 0 0 1 2
2261 1 1.11323 -4.13064 0.02 0 0 0 1 2
1878 2 1.3996 -7.8 0.02 0 0 0 1 5
2011 2 0.7996 -7 0.02 0 0 0 1 5
1977 2 0.7996 -7.2 0.02 0 0 0 1 5
2013 2 1.1996 -7 0.02 0 0 0 1 5
2012 2 0.9996 -7 0.02 0 0 0 1 5
1979 2 1.1996 -7.2 0.02 0 0 0 1 5
1978 2 0.9996 -7.2 0.02 0 0 0 1 5
2240 1 0.645118 -4.66649 0.02 0 0 0 1 2
2233 1 1.32842 -4.84693 0.02 0 0 0 1 2
2014 2 1.3996 -7 0.02 0 0 0 1.00009 5
2258 1 0.697385 -3.92505 0.02 0 0 0 1 2
2216 1 1.47537 -5.40096 0.02 0 0 0 1 2
1980 2 1.3996 -7.2 0.02 0 0 0 1.00004 5
2257 1 0.904783 -4.11797 0.02 0 0 0 1 2
2200 1 1.45968 -5.78722 0.02 0 0 0 1 2
2199 1 1.26109 -5.75899 0.02 0 0 0 1 2
2256 1 0.872406 -4.3071 0.02 0 0 0 1 2
2035 1 1.35471 -0.383144 0.02 0 0 0 1 2
2036 1 1.3293 -0.170696 0.02 0 0 0 1 2
2037 1 1.16437 -0.401333 0.02 0 0 0 1 2
2038 1 1.1386 -0.191329 0.02 0 0 0 1 2
2039 1 0.972327 -0.411655 0.02 0 0 0 1 2
2040 1 0.948005 -0.202375 0.02 0 0 0 1 2
2041 1 0.780943 -0.418584 0.02 0 0 0 1 2
2042 1 0.759702 -0.204515 0.02 0 0 0 1 2
2043 1 0.571357 -0.196512 0.02 0 0 0 1 2
2044 1 0.589643 -0.406124 0.02 0 0 0 1 2
2255 1 0.688707 -4.11551 0.02 0 0 0 1 2
2254 1 0.664276 -4.3006 0.02 0 0 0 1 2
2198 1 1.46435 -5.98631 0.02 0 0 0 1 2
2215 1 1.24613 -5.38031 0.02 0 0 0 1 2
2049 1 1.4183 -0.821662 0.02 0 0 0 1 2
2050 1 1.38218 -0.598796 0.02 0 0 0 1 2
2051 1 1.1964 -0.615255 0.02 0 0 0 1 2
2052 1 1.23343 -0.829479 0.02 0 0 0 1 2
2053 1 1.04128 -0.826347 0.02 0 0 0 1 2
2054 1 1.00732 -0.618916 0.02 0 0 0 1 2
2055 1 0.816164 -0.628898 0.02 0 0 0 1 2
2056 1 0.62221 -0.613201 0.02 0 0 0 1 2
2057 1 0.843177 -0.832632 0.02 0 0 0 1 2
2058 1 0.643718 -0.819929 0.02 0 0 0 1 2
2059 1 0.42432 -0.609091 0.02 0 0 0 1 2
2060 1 0.444718 -0.808962 0.02 0 0 0 1 2
2253 1 0.471052 -4.08309 0.02 0 0 0 1 2
2252 1 0.460684 -4.27373 0.02 0 0 0 1 2
2214 1 1.44579 -5.58955 0.02 0 0 0 1 2
2213 1 1.24445 -5.5651 0.02 0 0 0 1 2
2065 1 1.43471 -1.28045 0.02 0 0 0 1 2
2066 1 1.42709 -1.05121 0.02 0 0 0 1 2
2067 1 1.24327 -1.04626 0.02 0 0 0 1 2
2068 1 1.24898 -1.26074 0.02 0 0 0 1 2
2069 1 1.05381 -1.03348 0.02 0 0 0 1 2
2070 1 1.05996 -1.24399 0.02 0 0 0 1 2
2071 1 0.859257 -1.03504 0.02 0 0 0 1 2
2072 1 0.661976 -1.02554 0.02 0 0 0 1 2
2073 1 0.871263 -1.24415 0.02 0 0 0 1 2
2074 1 0.677831 -1.23077 0.02 0 0 0 1 2
2075 1 0.461601 -1.00736 0.02 0 0 0 1 2
2076 1 0.480517 -1.20811 0.02 0 0 0 1 2
2259 1 0.894671 -3.92102 0.02 0 0 0 1 2
2197 1 1.27354 -5.96034 0.02 0 0 0 1 2
2212 1 1.03012 -5.39862 0.02 0 0 0 1 2
2211 1 0.819509 -5.39695 0.02 0 0 0 1 2
2081 1 1.44529 -1.50825 0.02 0 0 0 1 2
2082 1 1.46091 -1.733 0.02 0 0 0 1 2
2083 1 1.26528 -1.47825 0.02 0 0 0 1 2
2084 1 1.08312 -1.45769 0.02 0 0 0 1 2
2085 1 1.27949 -1.70098 0.02 0 0 0 1 2
2086 1 1.09394 -1.6724 0.02 0 0 0 1 2
2087 1 0.901497 -1.46824 0.02 0 0 0 1 2
2088 1 0.71621 -1.43509 0.02 0 0 0 1 2
2089 1 0.91138 -1.6947 0.02 0 0 0 1 2
2090 1 0.727722 -1.64492 0.02 0 0 0 1 2
2091 1 0.519952 -1.41351 0.02 0 0 0 1 2
2092 1 0.537993 -1.62282 0.02 0 0 0 1 2
2196 1 1.08244 -5.9853 0.02 0 0 0 1 2
2239 1 0.444998 -4.462 0.02 0 0 0 1 2
2195 1 1.0659 -5.78886 0.02 0 0 0 1 2
2194 1 0.871126 -5.78504 0.02 0 0 0 1 2
2097 1 1.49309 -1.95318 0.02 0 0 0 1 2
2098 1 1.31121 -1.93371 0.02 0 0 0 1 2
2099 1 1.1347 -1.88565 0.02 0 0 0 1 2
2100 1 1.36 -2.153 0.02 0 0 0 1 2
2101 1 1.17441 -2.11748 0.02 0 0 0 1 2
2102 1 0.956704 -1.9211 0.02 0 0 0 1 2
2103 1 0.770908 -1.86398 0.02 0 0 0 1 2
2104 1 0.990854 -2.13736 0.02 0 0 0 1 2
2105 1 0.80078 -2.07835 0.02 0 0 0 1 2
2106 1 0.5794 -1.83614 0.02 0 0 0 1 2
2107 1 0.606187 -2.04609 0.02 0 0 0 1 2
2108 1 0.413016 -2.0009 0.02 0 0 0 1 2
2247 1 1.359 -4.48365 0.02 0 0 0 1 2
2210 1 1.04336 -5.59168 0.02 0 0 0 1 2
2246 1 1.31631 -4.66598 0.02 0 0 0 1 2
2209 1 0.83975 -5.58705 0.02 0 0 0 1 2
2113 1 1.40313 -2.35355 0.02 0 0 0 1 2
2114 1 1.20598 -2.34155 0.02 0 0 0 1 2
2115 1 1.3945 -2.55237 0.02 0 0 0 1 2
2116 1 1.20449 -2.55829 0.02 0 0 0 1 2
2117 1 1.01213 -2.3438 0.02 0 0 0 1 2
2118 1 0.815701 -2.28702 0.02 0 0 0 1 2
2119 1 1.01379 -2.54709 0.02 0 0 0 1 2
2120 1 0.821736 -2.49265 0.02 0 0 0 1 2
2121 1 0.630009 -2.46414 0.02 0 0 0 1 2
2122 1 0.620976 -2.25416 0.02 0 0 0 1 2
2123 1 0.429722 -2.21217 0.02 0 0 0 1 2
2124 1 0.436914 -2.4215 0.02 0 0 0 1 2
2245 1 1.14606 -4.50233 0.02 0 0 0 1 2
2208 1 0.631421 -5.58573 0.02 0 0 0 1 2
2193 1 0.886142 -5.98699 0.02 0 0 0 1 2
2207 1 0.609287 -5.39695 0.02 0 0 0 1 2
2129 1 1.40692 -2.756 0.02 0 0 0 1 2
2130 1 1.21766 -2.77288 0.02 0 0 0 1 2
2131 1 1.43525 -2.95815 0.02 0 0 0 1 2
2132 1 1.23261 -2.9752 0.02 0 0 0 1 2
2133 1 1.02638 -2.75172 0.02 0 0 0 1 2
2134 1 0.646919 -2.68472 0.02 0 0 0 1 2
2135 1 0.835306 -2.7004 0.02 0 0 0 1 2
2136 1 1.03116 -2.95325 0.02 0 0 0 1 2
2137 1 0.837544 -2.90633 0.02 0 0 0 1 2
2138 1 0.648091 -2.91284 0.02 0 0 0 1 2
2139 1 0.459427 -2.62755 0.02 0 0 0 1 2
2140 1 0.470456 -2.83279 0.02 0 0 0 1 2
2141 1 0.454954 -3.0408 0.02 0 0 0 1 2
2266 1 1.49279 -3.93179 0.02 0 0 0 1 2
2206 1 0.402373 -5.39266 0.02 0 0 0 1 2
2238 1 0.440672 -4.65017 0.02 0 0 0 1 2
2145 1 1.42109 -3.15337 0.02 0 0 0 1 2
2146 1 1.21538 -3.17037 0.02 0 0 0 1 2
2147 1 1.46199 -3.34695 0.02 0 0 0 1 2
2148 1 1.25675 -3.36021 0.02 0 0 0 1 2
2149 1 1.04305 -3.33918 0.02 0 0 0 1 2
2150 1 1.01135 -3.14803 0.02 0 0 0 1 2
2151 1 0.819019 -3.1147 0.02 0 0 0 1 2
2152 1 0.629421 -3.13149 0.02 0 0 0 1 2
2153 1 0.83124 -3.32346 0.02 0 0 0 1 2
2154 1 0.624454 -3.33168 0.02 0 0 0 1 2
2155 1 0.432133 -3.25575 0.02 0 0 0 1 2
2156 1 0.431462 -3.47088 0.02 0 0 0 1 2
2157 1 0.413714 -6.73915 0.02 0 -2.60552e-13 7.04301e-14 1 2
2158 1 0.618921 -6.76661 0.02 0 -1.14008e-10 1.16245e-10 1 2
2159 1 0.447509 -6.55076 0.02 0 -3.40946e-16 2.71396e-16 1 2
2160 1 0.635187 -6.57535 0.02 0 -2.97924e-12 3.8994e-12 1 2
2161 1 0.834605 -6.74572 0.02 0 -1.66239e-08 1.32961e-08 1 2
2162 1 1.03309 -6.75043 0.02 0 -3.53959e-07 3.14993e-07 1 2
2163 1 0.828116 -6.56407 0.02 0 -4.51831e-10 6.31253e-10 1 2
2164 1 1.03566 -6.56481 0.02 0 -1.33821e-08 2.45939e-08 1 2
2165 1 1.22654 -6.74604 0.02 0 -2.29141e-06 2.82384e-06 1 2
2166 1 1.42585 -6.75916 0.02 0 -6.56755e-06 1.3112e-05 1 2
2167 1 1.24728 -6.56288 0.02 0 -1.25007e-07 3.23269e-07 1 2
2168 1 1.44774 -6.56544 0.02 0 -3.45463e-07 1.61024e-06 1 2
2205 1 0.425729 -5.58762 0.02 0 0 0 1 2
2265 1 1.29057 -3.92273 0.02 0 0 0 1 2
2260 1 1.08229 -4.32272 0.02 0 0 0 1 2
2264 1 1.09024 -3.93088 0.02 0 0 0 1 2
2173 1 0.467402 -6.35963 0.02 0 0 0 1 2
2174 1 0.498697 -6.17071 0.02 0 0 0 1 2
2175 1 0.662761 -6.37801 0.02 0 -1.44492e-18 6.01132e-18 1 2
2176 1 0.691645 -6.17475 0.02 0 0 0 1 2
2177 1 0.857621 -6.37882 0.02 0 -1.82122e-14 7.84158e-14 1 2
2178 1 1.05026 -6.37692 0.02 0 -3.82111e-12 1.62664e-11 1 2
2179 1 0.883043 -6.18522 0.02 0 0 0 1 2
2180 1 1.07755 -6.18093 0.02 0 0 0 1 2
2181 1 1.23793 -6.37185 0.02 0 -3.24747e-11 1.7933e-10 1 2
2182 1 1.42567 -6.37314 0.02 0 -1.23464e-10 1.36198e-09 1 2
2183 1 1.27065 -6.16748 0.02 0 0 0 1 2
2184 1 1.46488 -6.181 0.02 0 8.58469e-13 1.26152e-11 1 2
2234 1 1.50539 -5.03303 0.02 0 0 0 1 2
2263 1 1.32151 -4.11233 0.02 0 0 0 1 2
2243 1 0.909331 -4.49172 0.02 0 0 0 1 2
2262 1 1.29875 -4.30065 0.02 0 0 0 1 2
2189 1 0.489805 -5.9796 0.02 0 0 0 1 2
2190 1 0.47906 -5.78431 0.02 0 0 0 1 2
2191 1 0.689718 -5.97299 0.02 0 0 0 1 2
2192 1 0.676036 -5.77559 0.02 0 0 0 1 2
1 2 0.7996 7 0.02 0 0 0 1 5
35 2 0.7996 7.2 0.02 0 0 0 1 5
2 2 0.9996 7 0.02 0 0 0 1 5
3 2 1.1996 7 0.02 0 0 0 1.00001 5
36 2 0.9996 7.2 0.02 0 0 0 1 5
37 2 1.1996 7.2 0.02 0 0 0 1 5
4 2 1.3996 7 0.02 0 0 0 1.00009 5
2230 1 1.28082 5.24663 0.02 0 0 0 1 2
2232 1 1.29301 5.44626 0.02 0 0 0 1 2
38 2 1.3996 7.2 0.02 0 0 0 1.00004 5
2229 1 1.08265 5.27131 0.02 0 0 0 1 2
2228 1 0.86523 5.62895 0.02 0 0 0 1 2
137 2 0.7996 7.8 0.02 0 0 0 1 5
103 2 0.7996 7.6 0.02 0 0 0 1 5
69 2 0.7996 7.4 0.02 0 0 0 1 5
138 2 0.9996 7.8 0.02 0 0 0 1 5
139 2 1.1996 7.8 0.02 0 0 0 1 5
105 2 1.1996 7.6 0.02 0 0 0 1 5
104 2 0.9996 7.6 0.02 0 0 0 1 5
70 2 0.9996 7.4 0.02 0 0 0 1 5
71 2 1.1996 7.4 0.02 0 0 0 1 5
140 2 1.3996 7.8 0.02 0 0 0 1 5
2227 1 0.65482 5.63138 0.02 0 0 0 1 2
2226 1 0.885025 5.44311 0.02 0 0 0 1 2
2278 1 1.38782 6.59218 0.02 0 -5.22641e-07 -1.83097e-06 1 2
2225 1 0.682596 5.4397 0.02 0 0 0 1 2
106 2 1.3996 7.6 0.02 0 0 0 1 5
72 2 1.3996 7.4 0.02 0 0 0 1 5
2224 1 0.66565 5.2438 0.02 0 0 0 1 2
2277 1 1.17915 6.5618 0.02 0 -7.17485e-08 -1.72294e-07 1 2
171 2 0.7996 8 0.02 0 0 0 1 5
205 2 0.7996 8.2 0.02 0 0 0 1 5
172 2 0.9996 8 0.02 0 0 0 1 5
173 2 1.1996 8 0.02 0 0 0 1 5
206 2 0.9996 8.2 0.02 0 0 0 1 5
207 2 1.1996 8.2 0.02 0 0 0 1 5
174 2 1.3996 8 0.02 0 0 0 1 5
2223 1 0.874547 5.25264 0.02 0 0 0 1 2
2276 1 1.1895 6.7412 0.02 0 -1.64425e-06 -2.02816e-06 1 2
208 2 1.3996 8.2 0.02 0 0 0 1 5
2222 1 0.459629 5.62531 0.02 0 0 0 1 2
2275 1 1.40621 6.77622 0.02 0 -6.91458e-06 -1.22014e-05 1 2
273 2 0.7996 8.6 0.02 0 0 0 1 5
239 2 0.7996 8.4 0.02 0 0 0 1 5
275 2 1.1996 8.6 0.02 0 0 0 1 5
274 2 0.9996 8.6 0.02 0 0 0 1 5
241 2 1.1996 8.4 0.02 0 0 0 1 5
240 2 0.9996 8.4 0.02 0 0 0 1 5
2274 1 0.972786 6.55988 0.02 0 -5.12544e-09 -9.6767e-09 1 2
2221 1 0.489395 5.40931 0.02 0 0 0 1 2
276 2 1.3996 8.6 0.02 0 0 0 1 5
2273 1 0.761171 6.5555 0.02 0 -6.05425e-11 -7.02729e-11 1 2
2255 1 0.525774 6.22219 0.02 0 0 0 1 2
242 2 1.3996 8.4 0.02 0 0 0 1 5
341 2 0.7996 9 0.02 0 0 0 1 5
307 2 0.7996 8.8 0.02 0 0 0 1 5
343 2 1.1996 9 0.02 0 0 0 1 5
342 2 0.9996 9 0.02 0 0 0 1 5
309 2 1.1996 8.8 0.02 0 0 0 1 5
308 2 0.9996 8.8 0.02 0 0 0 1 5
2272 1 0.807084 6.72909 0.02 0 -1.13096e-08 -9.10283e-09 1 2
2256 1 0.544189 6.4045 0.02 0 -1.1984e-17 -2.41473e-17 1 2
344 2 1.3996 9 0.02 0 0 0 1 5
2271 1 0.99621 6.75439 0.02 0 -2.69403e-07 -2.27377e-07 1 2
2257 1 0.733533 6.20041 0.02 0 0 0 1 2
310 2 1.3996 8.8 0.02 0 0 0 1 5
409 2 0.7996 9.4 0.02 0 0 0 1 5
375 2 0.7996 9.2 0.02 0 0 0 1 5
411 2 1.1996 9.4 0.02 0 0 0 1 5
410 2 0.9996 9.4 0.02 0 0 0 1 5
377 2 1.1996 9.2 0.02 0 0 0 1 5
376 2 0.9996 9.2 0.02 0 0 0 1 5
2270 1 0.558159 6.58449 0.02 0 -7.37908e-13 -4.42032e-13 1 2
2215 1 1.45571 5.00509 0.02 0 0 0 1 2
412 2 1.3996 9.4 0.02 0 0 0 1 5
2269 1 0.611403 6.76472 0.02 0 -1.55553e-10 -5.33115e-11 1 2
2214 1 1.26605 5.04537 0.02 0 0 0 1 2
378 2 1.3996 9.2 0.02 0 0 0 1 5
477 2 0.7996 9.8 0.02 0 0 0 1 5
443 2 0.7996 9.6 0.02 0 0 0 1 5
479 2 1.1996 9.8 0.02 0 0 0 1 5
478 2 0.9996 9.8 0.02 0 0 0 1 5
445 2 1.1996 9.6 0.02 0 0 0 1 5
444 2 0.9996 9.6 0.02 0 0 0 1 5
2247 1 1.1067 5.82959 0.02 0 0 0 1 2
2213 1 1.07036 5.07323 0.02 0 0 0 1 2
480 2 1.3996 9.8 0.02 0 0 0 1 5
2202 1 1.49542 4.57729 0.02 0 0 0 1 2
2212 1 1.28516 4.83342 0.02 0 0 0 1 2
446 2 1.3996 9.6 0.02 0 0 0 1 5
2031 1 0.550729 0.0152087 0.02 0 0 0 1 2
2032 1 0.585661 0.224259 0.02 0 0 0 1 2
2033 1 0.778878 0.216003 0.02 0 0 0 1 2
2034 1 0.773641 0.424276 0.02 0 0 0 1 2
2035 1 0.739384 0.00901173 0.02 0 0 0 1 2
2036 1 0.927746 0.0146403 0.02 0 0 0 1 2
2037 1 0.965831 0.243059 0.02 0 0 0 1 2
2038 1 1.11703 0.0139935 0.02 0 0 0 1 2
2039 1 1.15611 0.213481 0.02 0 0 0 1 2
2040 1 1.15051 0.417667 0.02 0 0 0 1 2
2041 1 1.34725 0.260252 0.02 0 0 0 1 2
2042 1 1.31441 0.0415298 0.02 0 0 0 1 2
2201 1 1.49811 4.37631 0.02 0 0 0 1 2
2200 1 1.46458 4.78249 0.02 0 0 0 1 2
2045 1 1.51171 0.0351082 0.02 0 0 0 1 2
2246 1 0.919015 5.99766 0.02 0 0 0 1 2
2047 1 0.582773 0.434965 0.02 0 0 0 1 2
2048 1 0.585701 0.645737 0.02 0 0 0 1 2
2049 1 0.593336 0.853529 0.02 0 0 0 1 2
2050 1 0.778117 0.634414 0.02 0 0 0 1 2
2051 1 0.784614 0.848641 0.02 0 0 0 1 2
2052 1 0.962063 0.465903 0.02 0 0 0 1 2
2053 1 0.966126 0.683296 0.02 0 0 0 1 2
2054 1 1.33652 0.478881 0.02 0 0 0 1 2
2055 1 1.14772 0.632968 0.02 0 0 0 1 2
2056 1 1.32908 0.689725 0.02 0 0 0 1 2
2057 1 1.16023 0.868113 0.02 0 0 0 1 2
2199 1 1.30617 4.59842 0.02 0 0 0 1 2
2245 1 0.718553 6.01246 0.02 0 0 0 1 2
2198 1 1.12606 4.65198 0.02 0 0 0 1 2
2244 1 0.893766 5.81132 0.02 0 0 0 1 2
2243 1 0.6839 5.82225 0.02 0 0 0 1 2
2063 1 0.579383 1.05801 0.02 0 0 0 1 2
2064 1 0.581214 1.26198 0.02 0 0 0 1 2
2065 1 0.771394 1.06422 0.02 0 0 0 1 2
2066 1 0.770022 1.27921 0.02 0 0 0 1 2
2067 1 0.973067 0.88937 0.02 0 0 0 1 2
2068 1 0.961396 1.09195 0.02 0 0 0 1 2
2069 1 0.956892 1.29997 0.02 0 0 0 1 2
2070 1 1.15117 1.09204 0.02 0 0 0 1 2
2071 1 1.34009 1.08696 0.02 0 0 0 1 2
2072 1 1.33936 1.29024 0.02 0 0 0 1 2
2073 1 1.35124 0.888006 0.02 0 0 0 1 2
2074 1 1.14726 1.30394 0.02 0 0 0 1 2
2197 1 1.30768 4.37551 0.02 0 0 0 1 2
2196 1 1.12865 4.43165 0.02 0 0 0 1 2
2195 1 0.933155 4.66681 0.02 0 0 0 1 2
2242 1 0.519918 6.03142 0.02 0 0 0 1 2
2250 1 1.34803 6.02674 0.02 0 0 0 1 2
2080 1 0.533559 1.46151 0.02 0 0 0 1 2
2081 1 0.539861 1.66141 0.02 0 0 0 1 2
2082 1 0.727162 1.48506 0.02 0 0 0 1 2
2083 1 0.752244 1.68567 0.02 0 0 0 1 2
2084 1 0.922116 1.50668 0.02 0 0 0 1 2
2085 1 0.965412 1.70509 0.02 0 0 0 1 2
2086 1 1.1208 1.50485 0.02 0 0 0 1 2
2087 1 1.17851 1.69224 0.02 0 0 0 1 2
2088 1 1.32653 1.49143 0.02 0 0 0 1 2
2089 1 1.39146 1.67867 0.02 0 0 0 1 2
2194 1 0.737737 4.64357 0.02 0 0 0 1 2
2211 1 1.09757 4.86501 0.02 0 0 0 1 2
2249 1 1.12985 6.01262 0.02 0 0 0 1 2
2210 1 0.872637 5.05907 0.02 0 0 0 1 2
2094 1 0.57843 1.85478 0.02 0 0 0 1 2
2095 1 0.556231 2.04403 0.02 0 0 0 1 2
2096 1 0.787968 1.8791 0.02 0 0 0 1 2
2097 1 0.776183 2.07045 0.02 0 0 0 1 2
2098 1 0.998236 1.89882 0.02 0 0 0 1 2
2099 1 0.989807 2.09218 0.02 0 0 0 1 2
2100 1 1.2064 1.8822 0.02 0 0 0 1 2
2101 1 1.20079 2.07554 0.02 0 0 0 1 2
2102 1 1.41513 1.86944 0.02 0 0 0 1 2
2103 1 1.41168 2.06194 0.02 0 0 0 1 2
2209 1 0.67544 5.04711 0.02 0 0 0 1 2
2208 1 0.90405 4.86415 0.02 0 0 0 1 2
2264 1 1.36425 6.40804 0.02 0 -9.82544e-10 -7.66366e-09 1 2
2263 1 1.17031 6.37702 0.02 0 -1.22002e-11 -9.88417e-11 1 2
2108 1 0.421991 2.39441 0.02 0 0 0 1 2
2109 1 0.435484 2.5827 0.02 0 0 0 1 2
2110 1 0.608467 2.22999 0.02 0 0 0 1 2
2111 1 0.82837 2.26125 0.02 0 0 0 1 2
2112 1 0.644008 2.41719 0.02 0 0 0 1 2
2113 1 0.860437 2.45268 0.02 0 0 0 1 2
2114 1 0.640889 2.60767 0.02 0 0 0 1 2
2115 1 1.04547 2.28011 0.02 0 0 0 1 2
2116 1 1.25346 2.2647 0.02 0 0 0 1 2
2117 1 1.06962 2.4728 0.02 0 0 0 1 2
2118 1 1.27206 2.46162 0.02 0 0 0 1 2
2119 1 1.46033 2.25117 0.02 0 0 0 1 2
2120 1 1.47126 2.44706 0.02 0 0 0 1 2
2241 1 0.483669 5.83395 0.02 0 0 0 1 2
2237 1 1.50631 5.63775 0.02 0 0 0 1 2
2123 1 0.422365 2.77537 0.02 0 0 0 1 2
2124 1 0.406275 2.96941 0.02 0 0 0 1 2
2125 1 0.605837 2.99882 0.02 0 0 0 1 2
2126 1 0.845522 2.64459 0.02 0 0 0 1 2
2127 1 0.629302 2.80212 0.02 0 0 0 1 2
2128 1 0.831926 2.83916 0.02 0 0 0 1 2
2129 1 0.803617 3.03534 0.02 0 0 0 1 2
2130 1 1.05563 2.6637 0.02 0 0 0 1 2
2131 1 1.0352 2.85568 0.02 0 0 0 1 2
2132 1 1.26862 2.65746 0.02 0 0 0 1 2
2133 1 1.23953 2.85041 0.02 0 0 0 1 2
2134 1 1.44311 2.83725 0.02 0 0 0 1 2
2135 1 1.43615 3.03093 0.02 0 0 0 1 2
2136 1 1.22056 3.04037 0.02 0 0 0 1 2
2137 1 1.47922 2.64228 0.02 0 0 0 1 2
2236 1 1.49262 5.43734 0.02 0 0 0 1 2
2207 1 0.707945 4.84671 0.02 0 0 0 1 2
2206 1 0.470568 5.19135 0.02 0 0 0 1 2
2262 1 1.37383 6.21412 0.02 0 0 0 1 2
2261 1 1.16067 6.19252 0.02 0 0 0 1 2
2143 1 0.403589 3.16915 0.02 0 0 0 1 2
2144 1 0.412647 3.37484 0.02 0 0 0 1 2
2145 1 0.602428 3.20054 0.02 0 0 0 1 2
2146 1 0.606585 3.40503 0.02 0 0 0 1 2
2147 1 0.802502 3.23538 0.02 0 0 0 1 2
2148 1 0.79963 3.43993 0.02 0 0 0 1 2
2149 1 1.00759 3.04792 0.02 0 0 0 1 2
2150 1 1.00614 3.24229 0.02 0 0 0 1 2
2151 1 0.993738 3.44129 0.02 0 0 0 1 2
2152 1 1.21605 3.22709 0.02 0 0 0 1 2
2153 1 1.19474 3.41402 0.02 0 0 0 1 2
2154 1 1.42567 3.22198 0.02 0 0 0 1 2
2155 1 1.41161 3.41416 0.02 0 0 0 1 2
2205 1 0.488501 4.9823 0.02 0 0 0 1 2
2231 1 1.08887 5.46271 0.02 0 0 0 1 2
2260 1 0.971122 6.37171 0.02 0 -3.15459e-13 -9.71722e-13 1 2
2259 1 0.763231 6.37909 0.02 0 -1.32803e-15 -3.44189e-15 1 2
2160 1 0.45012 3.58294 0.02 0 0 0 1 2
2161 1 0.483388 3.789 0.02 0 0 0 1 2
2162 1 0.651802 3.61296 0.02 0 0 0 1 2
2163 1 0.856309 3.64472 0.02 0 0 0 1 2
2164 1 0.68112 3.8167 0.02 0 0 0 1 2
2165 1 0.880241 3.84819 0.02 0 0 0 1 2
2166 1 1.06031 3.63092 0.02 0 0 0 1 2
2167 1 1.26261 3.59356 0.02 0 0 0 1 2
2168 1 1.08144 3.82453 0.02 0 0 0 1 2
2169 1 1.28851 3.78237 0.02 0 0 0 1 2
2170 1 1.46761 3.605 0.02 0 0 0 1 2
2171 1 1.50408 3.79564 0.02 0 0 0 1 2
2235 1 1.47046 5.2257 0.02 0 0 0 1 2
2234 1 1.08836 5.64708 0.02 0 0 0 1 2
2258 1 0.944564 6.1851 0.02 0 0 0 1 2
2175 1 0.510361 3.99507 0.02 0 0 0 1 2
2176 1 0.519636 4.19723 0.02 0 0 0 1 2
2177 1 0.706016 4.02299 0.02 0 0 0 1 2
2178 1 0.903765 4.0519 0.02 0 0 0 1 2
2179 1 0.722327 4.22758 0.02 0 0 0 1 2
2180 1 0.920968 4.25642 0.02 0 0 0 1 2
2181 1 1.10249 4.01862 0.02 0 0 0 1 2
2182 1 1.30668 3.97069 0.02 0 0 0 1 2
2183 1 1.11437 4.21997 0.02 0 0 0 1 2
2184 1 1.30663 4.16658 0.02 0 0 0 1 2
2185 1 1.50507 4.17791 0.02 0 0 0 1 2
2193 1 0.944731 4.46491 0.02 0 0 0 1 2
2248 1 1.31474 5.8373 0.02 0 0 0 1 2
2233 1 1.30178 5.64281 0.02 0 0 0 1 2
2189 1 0.557946 4.39304 0.02 0 0 0 1 2
2190 1 0.545584 4.58718 0.02 0 0 0 1 2
2191 1 0.518253 4.78246 0.02 0 0 0 1 2
2192 1 0.754319 4.43607 0.02 0 0 0 1 2
1507 2 1.9996 -10 0.02 0 0 0 1 5
1508 2 2.1996 -10 0.02 0 0 0 1 5
1541 2 1.9996 -9.8 0.02 0 0 0 1 5
1542 2 2.1996 -9.8 0.02 0 0 0 1 5
1575 2 1.9996 -9.6 0.02 0 0 0 1 5
1576 2 2.1996 -9.6 0.02 0 0 0 1 5
1509 2 2 -10 0 0 0 0 1 5
1510 2 2.2 -10 0 0 0 0 1 5
1511 2 2.4 -10 0 0 0 0 1 5
1543 2 2 -9.8 0 0 0 0 1 5
1544 2 2.2 -9.8 0 0 0 0 1 5
1545 2 2.4 -9.8 0 0 0 0 1 5
1577 2 2 -9.6 0 0 0 0 1 5
1578 2 2.2 -9.6 0 0 0 0 1 5
1579 2 2.4 -9.6 0 0 0 0 1 5
1512 2 2.6 -10 0 0 0 0 1 5
1513 2 2.8 -10 0 0 0 0 1 5
1546 2 2.6 -9.8 0 0 0 0 1 5
1547 2 2.8 -9.8 0 0 0 0 1 5
1580 2 2.6 -9.6 0 0 0 0 1 5
1581 2 2.8 -9.6 0 0 0 0 1 5
1643 2 1.9996 -9.2 0.02 0 0 0 1 5
1644 2 2.1996 -9.2 0.02 0 0 0 1 5
1610 2 2.1996 -9.4 0.02 0 0 0 1 5
1609 2 1.9996 -9.4 0.02 0 0 0 1 5
1645 2 2 -9.2 0 0 0 0 1 5
1646 2 2.2 -9.2 0 0 0 0 1 5
1647 2 2.4 -9.2 0 0 0 0 1 5
1613 2 2.4 -9.4 0 0 0 0 1 5
1612 2 2.2 -9.4 0 0 0 0 1 5
1611 2 2 -9.4 0 0 0 0 1 5
1648 2 2.6 -9.2 0 0 0 0 1 5
1649 2 2.8 -9.2 0 0 0 0 1 5
1615 2 2.8 -9.4 0 0 0 0 1 5
1614 2 2.6 -9.4 0 0 0 0 1 5
1677 2 1.9996 -9 0.02 0 0 0 1 5
1678 2 2.1996 -9 0.02 0 0 0 1 5
1712 2 2.1996 -8.8 0.02 0 0 0 1 5
1711 2 1.9996 -8.8 0.02 0 0 0 1 5
1679 2 2 -9 0 0 0 0 1 5
1680 2 2.2 -9 0 0 0 0 1 5
1681 2 2.4 -9 0 0 0 0 1 5
1713 2 2 -8.8 0 0 0 0 1 5
1714 2 2.2 -8.8 0 0 0 0 1 5
1715 2 2.4 -8.8 0 0 0 0 1 5
1682 2 2.6 -9 0 0 0 0 1 5
1683 2 2.8 -9 0 0 0 0 1 5
1716 2 2.6 -8.8 0 0 0 0 1 5
1717 2 2.8 -8.8 0 0 0 0 1 5
1780 2 2.1996 -8.4 0.02 0 0 0 1 5
1779 2 1.9996 -8.4 0.02 0 0 0 1 5
1746 2 2.1996 -8.6 0.02 0 0 0 1 5
1745 2 1.9996 -8.6 0.02 0 0 0 1 5
1783 2 2.4 -8.4 0 0 0 0 1 5
1782 2 2.2 -8.4 0 0 0 0 1 5
1781 2 2 -8.4 0 0 0 0 1 5
1747 2 2 -8.6 0 0 0 0 1 5
1748 2 2.2 -8.6 0 0 0 0 1 5
1749 2 2.4 -8.6 0 0 0 0 1 5
1785 2 2.8 -8.4 0 0 0 0 1 5
1784 2 2.6 -8.4 0 0 0 0 1 5
1750 2 2.6 -8.6 0 0 0 0 1 5
1751 2 2.8 -8.6 0 0 0 0 1 5
1848 2 2.1996 -8 0.02 0 0 0 1 5
1847 2 1.9996 -8 0.02 0 0 0 1 5
1814 2 2.1996 -8.2 0.02 0 0 0 1 5
1813 2 1.9996 -8.2 0.02 0 0 0 1 5
1851 2 2.4 -8 0 0 0 0 1 5
1850 2 2.2 -8 0 0 0 0 1 5
1849 2 2 -8 0 0 0 0 1 5
1817 2 2.4 -8.2 0 0 0 0 1 5
1816 2 2.2 -8.2 0 0 0 0 1 5
1815 2 2 -8.2 0 0 0 0 1 5
1853 2 2.8 -8 0 0 0 0 1 5
1852 2 2.6 -8 0 0 0 0 1 5
1819 2 2.8 -8.2 0 0 0 0 1 5
1818 2 2.6 -8.2 0 0 0 0 1 5
1950 2 2.1996 -7.4 0.02 0 0 0 1 5
1949 2 1.9996 -7.4 0.02 0 0 0 0.998144 5
1916 2 2.1996 -7.6 0.02 0 0 0 1 5
1915 2 1.9996 -7.6 0.02 0 0 0 1 5
1882 2 2.1996 -7.8 0.02 0 0 0 1 5
1881 2 1.9996 -7.8 0.02 0 0 0 1 5
1953 2 2.4 -7.4 0 0 0 0 1 5
1952 2 2.2 -7.4 0 0 0 0 1 5
1951 2 2 -7.4 0 0 0 0 0.998139 5
1919 2 2.4 -7.6 0 0 0 0 1 5
1918 2 2.2 -7.6 0 0 0 0 1 5
1917 2 2 -7.6 0 0 0 0 1 5
1885 2 2.4 -7.8 0 0 0 0 1 5
1884 2 2.2 -7.8 0 0 0 0 1 5
1883 2 2 -7.8 0 0 0 0 1 5
1955 2 2.8 -7.4 0 0 0 0 1 5
1954 2 2.6 -7.4 0 0 0 0 1 5
1921 2 2.8 -7.6 0 0 0 0 1 5
1920 2 2.6 -7.6 0 0 0 0 1 5
1887 2 2.8 -7.8 0 0 0 0 1 5
1886 2 2.6 -7.8 0 0 0 0 1 5
2018 2 2.1996 -7 0.02 0 0 0 0.996133 5
2017 2 1.9996 -7 0.02 0 0 0 0.998355 5
1984 2 2.1996 -7.2 0.02 0 0 0 0.996031 5
1983 2 1.9996 -7.2 0.02 0 0 0 0.998182 5
2021 2 2.4 -7 0 0 0 0 0.993914 5
2020 2 2.2 -7 0 0 0 0 0.996129 5
2019 2 2 -7 0 0 0 0 0.998351 5
1987 2 2.4 -7.2 0 0 0 0 1 5
1986 2 2.2 -7.2 0 0 0 0 0.996027 5
1985 2 2 -7.2 0 0 0 0 0.998177 5
2023 2 2.8 -7 0 0 0 0 1 5
2022 2 2.6 -7 0 0 0 0 1 5
1989 2 2.8 -7.2 0 0 0 0 1 5
1988 2 2.6 -7.2 0 0 0 0 1 5
1506 2 1.7996 -10 0.02 0 0 0 1 5
1540 2 1.7996 -9.8 0.02 0 0 0 1 5
1574 2 1.7996 -9.6 0.02 0 0 0 1 5
1642 2 1.7996 -9.2 0.02 0 0 0 1 5
1608 2 1.7996 -9.4 0.02 0 0 0 1 5
1676 2 1.7996 -9 0.02 0 0 0 1 5
1710 2 1.7996 -8.8 0.02 0 0 0 1 5
1778 2 1.7996 -8.4 0.02 0 0 0 1 5
1744 2 1.7996 -8.6 0.02 0 0 0 1 5
1846 2 1.7996 -8 0.02 0 0 0 1 5
1812 2 1.7996 -8.2 0.02 0 0 0 1 5
1948 2 1.7996 -7.4 0.02 0 0 0 1.00025 5
1914 2 1.7996 -7.6 0.02 0 0 0 1 5
1880 2 1.7996 -7.8 0.02 0 0 0 1 5
2016 2 1.7996 -7 0.02 0 0 0 1.00009 5
1982 2 1.7996 -7.2 0.02 0 0 0 1.00012 5
2078 1 1.80417 -1.61635 0.02 0 0 0 1 2
2093 1 1.83882 -1.84906 0.02 0 0 0 1 2
2127 1 1.83744 -2.9818 0.02 0 0 0 1 2
2142 1 1.82811 -3.18414 0.02 0 0 0 1 2
2170 1 1.82387 -6.74294 0.02 0 -0.000303209 -4.25832e-05 1 2
2172 1 1.83569 -6.55023 0.02 0 -6.77749e-05 3.25361e-06 1 2
2186 1 1.815 -6.35117 0.02 0 3.71552e-07 5.67146e-07 1 2
2188 1 1.85311 -6.15293 0.02 0 -4.60014e-07 6.04548e-07 1 2
2202 1 1.85282 -5.95431 0.02 0 -9.4727e-10 2.67338e-09 1 2
2204 1 1.85855 -5.75702 0.02 0 9.04998e-14 2.42849e-13 1 2
2250 1 1.8004 -4.67763 0.02 0 0 0 1 2
2270 1 1.74864 -4.13913 0.02 0 0 0 1 2
2031 1 1.74713 -0.318944 0.02 0 0 0 1 2
2034 1 1.72764 -0.130901 0.02 0 0 0 1 2
2045 1 1.75878 -0.514055 0.02 0 0 0 1 2
2046 1 1.78676 -0.71437 0.02 0 0 0 1 2
2061 1 1.78385 -0.925982 0.02 0 0 0 1 2
2062 1 1.78655 -1.14477 0.02 0 0 0 1 2
2077 1 1.78288 -1.37464 0.02 0 0 0 1 2
2251 1 1.76958 -4.50029 0.02 0 0 0 1 2
2269 1 1.76061 -4.31783 0.02 0 0 0 1 2
2095 1 1.72744 -2.1014 0.02 0 0 0 1 2
2109 1 1.77016 -2.30904 0.02 0 0 0 1 2
2111 1 1.77526 -2.54253 0.02 0 0 0 1 2
2125 1 1.78943 -2.76838 0.02 0 0 0 1 2
2220 1 1.73428 -5.21781 0.02 0 0 0 1 2
2237 1 1.76845 -4.85434 0.02 0 0 0 1 2
2285 1 1.66565 -3.57722 0.02 0 0 0 1 2
2284 1 1.67163 -3.76644 0.02 0 0 0 1 2
2271 1 1.69459 -3.95743 0.02 0 0 0 1 2
2094 1 1.66427 -1.89427 0.02 0 0 0 1 2
2144 1 1.66379 -3.38146 0.02 0 0 0 1 2
2187 1 1.66005 -6.17118 0.02 0 -5.16999e-10 2.9334e-08 1 2
2201 1 1.65822 -5.97154 0.02 0 4.07551e-13 1.32971e-10 1 2
2236 1 1.72273 -5.0319 0.02 0 0 0 1 2
2203 1 1.65888 -5.77485 0.02 0 0 0 1 2
2218 1 1.70177 -5.40162 0.02 0 0 0 1 2
1505 2 1.5996 -10 0.02 0 0 0 1 5
1539 2 1.5996 -9.8 0.02 0 0 0 1 5
1573 2 1.5996 -9.6 0.02 0 0 0 1 5
1641 2 1.5996 -9.2 0.02 0 0 0 1 5
1607 2 1.5996 -9.4 0.02 0 0 0 1 5
1675 2 1.5996 -9 0.02 0 0 0 1 5
1709 2 1.5996 -8.8 0.02 0 0 0 1 5
1777 2 1.5996 -8.4 0.02 0 0 0 1 5
1743 2 1.5996 -8.6 0.02 0 0 0 1 5
1845 2 1.5996 -8 0.02 0 0 0 1 5
1811 2 1.5996 -8.2 0.02 0 0 0 1 5
1947 2 1.5996 -7.4 0.02 0 0 0 1.00001 5
1913 2 1.5996 -7.6 0.02 0 0 0 1 5
1879 2 1.5996 -7.8 0.02 0 0 0 1 5
2015 2 1.5996 -7 0.02 0 0 0 1.00044 5
1981 2 1.5996 -7.2 0.02 0 0 0 1.00039 5
2217 1 1.65138 -5.5831 0.02 0 0 0 1 2
2048 1 1.60154 -0.782001 0.02 0 0 0 1 2
2063 1 1.60522 -0.999003 0.02 0 0 0 1 2
2064 1 1.61124 -1.2208 0.02 0 0 0 1 2
2079 1 1.61886 -1.45199 0.02 0 0 0 1 2
2080 1 1.63452 -1.67593 0.02 0 0 0 1 2
2110 1 1.5973 -2.37813 0.02 0 0 0 1 2
2112 1 1.58923 -2.58323 0.02 0 0 0 1 2
2126 1 1.60059 -2.78375 0.02 0 0 0 1 2
2128 1 1.64019 -2.98033 0.02 0 0 0 1 2
2143 1 1.62628 -3.17868 0.02 0 0 0 1 2
2169 1 1.62203 -6.73676 0.02 0 -3.74341e-05 8.83579e-06 1 2
2171 1 1.64608 -6.55608 0.02 0 -2.49663e-06 4.44377e-06 1 2
2185 1 1.61943 -6.36836 0.02 0 2.24017e-11 2.95342e-09 1 2
2219 1 1.52335 -5.2199 0.02 0 0 0 1 2
2032 1 1.54881 -0.370969 0.02 0 0 0 1 2
2235 1 1.54545 -4.85207 0.02 0 0 0 1 2
2033 1 1.52451 -0.167125 0.02 0 0 0 1 2
2047 1 1.57077 -0.577099 0.02 0 0 0 1 2
2249 1 1.56597 -4.49409 0.02 0 0 0 1 2
2268 1 1.53066 -4.12772 0.02 0 0 0 1 2
2248 1 1.55849 -4.67505 0.02 0 0 0 1 2
2096 1 1.55262 -2.16444 0.02 0 0 0 1 2
2267 1 1.52564 -4.31213 0.02 0 0 0 1 2
7 2 1.9996 7 0.02 0 0 0 0.998351 5
8 2 2.1996 7 0.02 0 0 0 0.996134 5
41 2 1.9996 7.2 0.02 0 0 0 0.998193 5
42 2 2.1996 7.2 0.02 0 0 0 0.996079 5
9 2 2 7 0 0 0 0 0.998347 5
10 2 2.2 7 0 0 0 0 0.996129 5
11 2 2.4 7 0 0 0 0 0.994012 5
43 2 2 7.2 0 0 0 0 0.998189 5
44 2 2.2 7.2 0 0 0 0 0.996075 5
45 2 2.4 7.2 0 0 0 0 1 5
12 2 2.6 7 0 0 0 0 1 5
13 2 2.8 7 0 0 0 0 1 5
46 2 2.6 7.2 0 0 0 0 1 5
47 2 2.8 7.2 0 0 0 0 1 5
143 2 1.9996 7.8 0.02 0 0 0 1 5
144 2 2.1996 7.8 0.02 0 0 0 1 5
110 2 2.1996 7.6 0.02 0 0 0 1 5
109 2 1.9996 7.6 0.02 0 0 0 1 5
75 2 1.9996 7.4 0.02 0 0 0 0.998142 5
76 2 2.1996 7.4 0.02 0 0 0 1 5
145 2 2 7.8 0 0 0 0 1 5
146 2 2.2 7.8 0 0 0 0 1 5
147 2 2.4 7.8 0 0 0 0 1 5
113 2 2.4 7.6 0 0 0 0 1 5
112 2 2.2 7.6 0 0 0 0 1 5
111 2 2 7.6 0 0 0 0 1 5
77 2 2 7.4 0 0 0 0 0.998138 5
78 2 2.2 7.4 0 0 0 0 1 5
79 2 2.4 7.4 0 0 0 0 1 5
115 2 2.8 7.6 0 0 0 0 1 5
114 2 2.6 7.6 0 0 0 0 1 5
148 2 2.6 7.8 0 0 0 0 1 5
149 2 2.8 7.8 0 0 0 0 1 5
80 2 2.6 7.4 0 0 0 0 1 5
81 2 2.8 7.4 0 0 0 0 1 5
177 2 1.9996 8 0.02 0 0 0 1 5
178 2 2.1996 8 0.02 0 0 0 1 5
212 2 2.1996 8.2 0.02 0 0 0 1 5
211 2 1.9996 8.2 0.02 0 0 0 1 5
179 2 2 8 0 0 0 0 1 5
180 2 2.2 8 0 0 0 0 1 5
181 2 2.4 8 0 0 0 0 1 5
213 2 2 8.2 0 0 0 0 1 5
214 2 2.2 8.2 0 0 0 0 1 5
215 2 2.4 8.2 0 0 0 0 1 5
182 2 2.6 8 0 0 0 0 1 5
183 2 2.8 8 0 0 0 0 1 5
216 2 2.6 8.2 0 0 0 0 1 5
217 2 2.8 8.2 0 0 0 0 1 5
280 2 2.1996 8.6 0.02 0 0 0 1 5
279 2 1.9996 8.6 0.02 0 0 0 1 5
246 2 2.1996 8.4 0.02 0 0 0 1 5
245 2 1.9996 8.4 0.02 0 0 0 1 5
283 2 2.4 8.6 0 0 0 0 1 5
282 2 2.2 8.6 0 0 0 0 1 5
281 2 2 8.6 0 0 0 0 1 5
249 2 2.4 8.4 0 0 0 0 1 5
248 2 2.2 8.4 0 0 0 0 1 5
247 2 2 8.4 0 0 0 0 1 5
285 2 2.8 8.6 0 0 0 0 1 5
284 2 2.6 8.6 0 0 0 0 1 5
251 2 2.8 8.4 0 0 0 0 1 5
250 2 2.6 8.4 0 0 0 0 1 5
348 2 2.1996 9 0.02 0 0 0 1 5
347 2 1.9996 9 0.02 0 0 0 1 5
314 2 2.1996 8.8 0.02 0 0 0 1 5
313 2 1.9996 8.8 0.02 0 0 0 1 5
351 2 2.4 9 0 0 0 0 1 5
350 2 2.2 9 0 0 0 0 1 5
349 2 2 9 0 0 0 0 1 5
317 2 2.4 8.8 0 0 0 0 1 5
316 2 2.2 8.8 0 0 0 0 1 5
315 2 2 8.8 0 0 0 0 1 5
353 2 2.8 9 0 0 0 0 1 5
352 2 2.6 9 0 0 0 0 1 5
319 2 2.8 8.8 0 0 0 0 1 5
318 2 2.6 8.8 0 0 0 0 1 5
416 2 2.1996 9.4 0.02 0 0 0 1 5
415 2 1.9996 9.4 0.02 0 0 0 1 5
382 2 2.1996 9.2 0.02 0 0 0 1 5
381 2 1.9996 9.2 0.02 0 0 0 1 5
419 2 2.4 9.4 0 0 0 0 1 5
418 2 2.2 9.4 0 0 0 0 1 5
417 2 2 9.4 0 0 0 0 1 5
385 2 2.4 9.2 0 0 0 0 1 5
384 2 2.2 9.2 0 0 0 0 1 5
383 2 2 9.2 0 0 0 0 1 5
421 2 2.8 9.4 0 0 0 0 1 5
420 2 2.6 9.4 0 0 0 0 1 5
387 2 2.8 9.2 0 0 0 0 1 5
386 2 2.6 9.2 0 0 0 0 1 5
484 2 2.1996 9.8 0.02 0 0 0 1 5
483 2 1.9996 9.8 0.02 0 0 0 1 5
450 2 2.1996 9.6 0.02 0 0 0 1 5
449 2 1.9996 9.6 0.02 0 0 0 1 5
487 2 2.4 9.8 0 0 0 0 1 5
486 2 2.2 9.8 0 0 0 0 1 5
485 2 2 9.8 0 0 0 0 1 5
453 2 2.4 9.6 0 0 0 0 1 5
452 2 2.2 9.6 0 0 0 0 1 5
451 2 2 9.6 0 0 0 0 1 5
489 2 2.8 9.8 0 0 0 0 1 5
488 2 2.6 9.8 0 0 0 0 1 5
455 2 2.8 9.6 0 0 0 0 1 5
454 2 2.6 9.6 0 0 0 0 1 5