ITEM: TIMESTEP
36000
ITEM: NUMBER OF ATOMS
1405
ITEM: BOX BOUNDS ff ff pp
0.0000000000000000e+00 4.4000000000000004e+00
-1.0000000000000000e+01 1.0000000000000000e+01
-2.0000000000000000e-02 2.0000000000000000e-02
ITEM: ATOMS id type x y vx vy fx fy c_den c_phase
3945 1 0.585728 -6.74459 0.02 0 0 0 1 2
3946 1 0.787558 -6.76349 0.02 0 0 0 1 2
3947 1 0.619474 -6.57221 0.02 0 0 0 1 2
3948 1 0.824265 -6.57855 0.02 0 0 0 1 2
3949 1 1.00071 -6.76677 0.02 0 0 0 1 2
3950 1 1.20499 -6.74921 0.02 0 0 0 1 2
3951 1 1.02268 -6.57855 0.02 0 0 0 1 2
3952 1 1.21786 -6.55859 0.02 0 0 0 1 2
3953 1 1.3949 -6.7407 0.02 0 -1.11086e-08 -1.28791e-08 1 2
3852 1 1.49908 -0.984807 0.02 0 0 0 1 2
3955 1 1.41975 -6.56058 0.02 0 3.43305e-10 3.01052e-09 1 2
3859 1 0.944395 -1.18336 0.02 0 0 0 1 2
3824 1 1.10477 -0.0631203 0.02 0 0 0 1 2
3849 1 0.43155 -0.774498 0.02 0 0 0 1 2
3959 1 0.577463 -6.40575 0.02 0 0 0 1 2
3960 1 0.801483 -6.39862 0.02 0 0 0 1 2
3961 1 0.598846 -6.22649 0.02 0 0 0 1 2
3962 1 0.816962 -6.21801 0.02 0 0 0 1 2
3963 1 1.00749 -6.38915 0.02 0 0 0 1 2
3964 1 1.20551 -6.36834 0.02 0 0 0 1 2
3965 1 1.02266 -6.18855 0.02 0 0 0 1 2
3966 1 1.22627 -6.18143 0.02 0 0 0 1 2
3967 1 1.41061 -6.38259 0.02 0 1.32325e-11 2.79398e-10 1 2
3858 1 1.13539 -1.11965 0.02 0 0 0 1 2
3969 1 1.43347 -6.20222 0.02 0 1.20066e-12 1.59202e-11 1 2
3856 1 1.07112 -0.926641 0.02 0 0 0 1 2
3820 1 1.49039 -0.123525 0.02 0 0 0 1 2
3848 1 0.630644 -0.811747 0.02 0 0 0 1 2
3973 1 0.435064 -6.03328 0.02 0 0 0 1 2
3974 1 0.626731 -6.03474 0.02 0 0 0 1 2
3975 1 0.819041 -6.02704 0.02 0 0 0 1 2
3976 1 0.474285 -5.83368 0.02 0 0 0 1 2
3977 1 0.668426 -5.82876 0.02 0 0 0 1 2
3978 1 0.863594 -5.82346 0.02 0 0 0 1 2
3979 1 1.01696 -5.99289 0.02 0 0 0 1 2
3980 1 1.22538 -5.99456 0.02 0 0 0 1 2
3981 1 1.07007 -5.803 0.02 0 0 0 1 2
3982 1 1.28004 -5.8133 0.02 0 0 0 1 2
3983 1 1.43824 -6.01828 0.02 0 0 0 1 2
3847 1 0.405078 -0.560608 0.02 0 0 0 1 2
3985 1 1.48959 -5.8406 0.02 0 0 0 1 2
3846 1 0.593821 -0.609046 0.02 0 0 0 1 2
3987 1 1.50378 -5.65807 0.02 0 0 0 1 2
3845 1 0.783411 -0.584138 0.02 0 0 0 1 2
3989 1 0.497395 -5.62887 0.02 0 0 0 1 2
3990 1 0.688375 -5.61698 0.02 0 0 0 1 2
3991 1 0.522261 -5.42296 0.02 0 0 0 1 2
3992 1 0.719071 -5.40365 0.02 0 0 0 1 2
3993 1 0.555528 -5.22229 0.02 0 0 0 1 2
3994 1 0.879235 -5.62036 0.02 0 0 0 1 2
3995 1 0.914066 -5.41859 0.02 0 0 0 1 2
3996 1 1.07786 -5.61019 0.02 0 0 0 1 2
3997 1 1.12042 -5.42183 0.02 0 0 0 1 2
3998 1 0.949369 -5.22191 0.02 0 0 0 1 2
3999 1 1.15089 -5.23061 0.02 0 0 0 1 2
4000 1 1.28589 -5.62586 0.02 0 0 0 1 2
4001 1 1.32835 -5.44246 0.02 0 0 0 1 2
4003 1 1.35748 -5.25608 0.02 0 0 0 1 2
3839 1 1.25424 -0.867583 0.02 0 0 0 1 2
3874 1 1.18852 -1.72907 0.02 0 0 0 1 2
3822 1 1.30493 -0.195535 0.02 0 0 0 1 2
3821 1 1.33982 -0.395697 0.02 0 0 0 1 2
4007 1 0.572754 -5.02463 0.02 0 0 0 1 2
4008 1 0.557546 -4.82859 0.02 0 0 0 1 2
4009 1 0.754853 -5.19276 0.02 0 0 0 1 2
4010 1 0.776978 -4.99109 0.02 0 0 0 1 2
4011 1 0.75708 -4.79402 0.02 0 0 0 1 2
4012 1 0.981817 -5.02613 0.02 0 0 0 1 2
4013 1 0.957456 -4.82709 0.02 0 0 0 1 2
4014 1 1.18917 -5.04029 0.02 0 0 0 1 2
4015 1 1.15826 -4.84437 0.02 0 0 0 1 2
4017 1 1.36169 -4.87111 0.02 0 0 0 1 2
4016 1 1.39268 -5.06783 0.02 0 0 0 1 2
3855 1 1.35218 -1.2746 0.02 0 0 0 1 2
3873 1 0.980213 -1.5728 0.02 0 0 0 1 2
3831 1 0.565069 -0.39204 0.02 0 0 0 1 2
3830 1 0.541129 -0.162903 0.02 0 0 0 1 2
4022 1 0.582401 -4.62705 0.02 0 0 0 1 2
4023 1 0.53769 -4.42558 0.02 0 0 0 1 2
4024 1 0.78574 -4.60119 0.02 0 0 0 1 2
4025 1 0.733621 -4.41435 0.02 0 0 0 1 2
4026 1 0.985412 -4.62877 0.02 0 0 0 1 2
4027 1 0.943294 -4.43103 0.02 0 0 0 1 2
4028 1 1.18072 -4.64625 0.02 0 0 0 1 2
4029 1 1.1501 -4.44736 0.02 0 0 0 1 2
4030 1 1.37174 -4.67057 0.02 0 0 0 1 2
4031 1 1.35306 -4.46549 0.02 0 0 0 1 2
3872 1 1.1728 -1.52383 0.02 0 0 0 1 2
3871 1 0.958076 -1.37784 0.02 0 0 0 1 2
3829 1 0.730843 -0.173337 0.02 0 0 0 1 2
3828 1 0.751285 -0.378772 0.02 0 0 0 1 2
4036 1 0.537206 -4.22232 0.02 0 0 0 1 2
4037 1 0.743722 -4.22496 0.02 0 0 0 1 2
4038 1 0.575751 -4.02713 0.02 0 0 0 1 2
4039 1 0.777243 -4.03552 0.02 0 0 0 1 2
4040 1 0.956049 -4.24028 0.02 0 0 0 1 2
4041 1 0.973576 -4.04539 0.02 0 0 0 1 2
4042 1 1.16727 -4.25491 0.02 0 0 0 1 2
4043 1 1.16764 -4.05749 0.02 0 0 0 1 2
4044 1 1.37451 -4.26689 0.02 0 0 0 1 2
4045 1 1.36441 -4.06866 0.02 0 0 0 1 2
3870 1 1.15905 -1.32082 0.02 0 0 0 1 2
3867 1 1.3668 -1.47817 0.02 0 0 0 1 2
3838 1 1.43159 -0.789936 0.02 0 0 0 1 2
3837 1 1.38281 -0.592202 0.02 0 0 0 1 2
4050 1 0.425041 -3.65388 0.02 0 0 0 1 2
4051 1 0.587535 -3.83201 0.02 0 0 0 1 2
4052 1 0.792955 -3.84076 0.02 0 0 0 1 2
4053 1 0.63021 -3.63802 0.02 0 0 0 1 2
4054 1 0.834062 -3.64771 0.02 0 0 0 1 2
4055 1 0.996956 -3.84635 0.02 0 0 0 1 2
4056 1 1.03361 -3.64838 0.02 0 0 0 1 2
4057 1 1.19699 -3.85732 0.02 0 0 0 1 2
4058 1 1.22928 -3.65665 0.02 0 0 0 1 2
4059 1 1.39559 -3.86973 0.02 0 0 0 1 2
4060 1 1.42384 -3.66825 0.02 0 0 0 1 2
3853 1 1.32305 -1.06612 0.02 0 0 0 1 2
3863 1 0.513719 -1.17967 0.02 0 0 0 1 2
3879 1 0.549008 -1.73465 0.02 0 0 0 1 2
3844 1 0.824987 -0.788933 0.02 0 0 0 1 2
3939 1 0.800606 -3.06801 0.02 0 0 0 1 2
3940 1 0.590739 -3.06197 0.02 0 0 0 1 2
3941 1 0.783218 -3.26052 0.02 0 0 0 1 2
3942 1 0.782319 -3.45411 0.02 0 0 0 1 2
3943 1 0.572018 -3.2515 0.02 0 0 0 1 2
3944 1 0.577814 -3.44445 0.02 0 0 0 1 2
3933 1 1.20748 -3.05992 0.02 0 0 0 1 2
3934 1 1.00612 -3.062 0.02 0 0 0 1 2
3935 1 1.19269 -3.25767 0.02 0 0 0 1 2
3936 1 1.19426 -3.45599 0.02 0 0 0 1 2
3937 1 0.990119 -3.25733 0.02 0 0 0 1 2
3938 1 0.988315 -3.45244 0.02 0 0 0 1 2
3862 1 0.735148 -1.19427 0.02 0 0 0 1 2
3825 1 1.11947 -0.268647 0.02 0 0 0 1 2
3826 1 0.914333 -0.104643 0.02 0 0 0 1 2
3928 1 1.40479 -3.07265 0.02 0 0 0 1 2
3861 1 0.488116 -0.985548 0.02 0 0 0 1 2
3860 1 0.691116 -1.00662 0.02 0 0 0 1 2
3931 1 1.39358 -3.27232 0.02 0 0 0 1 2
3932 1 1.39894 -3.46906 0.02 0 0 0 1 2
3921 1 0.51736 -2.67636 0.02 0 0 0 1 2
3922 1 0.719656 -2.68115 0.02 0 0 0 1 2
3923 1 0.756511 -2.87607 0.02 0 0 0 1 2
3924 1 0.547742 -2.87178 0.02 0 0 0 1 2
3914 1 1.3457 -2.68608 0.02 0 0 0 1 2
3917 1 1.13359 -2.68272 0.02 0 0 0 1 2
3918 1 0.923815 -2.68142 0.02 0 0 0 1 2
3919 1 1.17813 -2.86829 0.02 0 0 0 1 2
3920 1 0.965333 -2.87093 0.02 0 0 0 1 2
3843 1 1.01018 -0.730977 0.02 0 0 0 1 2
3842 1 0.967297 -0.527642 0.02 0 0 0 1 2
3878 1 0.562978 -1.54983 0.02 0 0 0 1 2
3857 1 0.888163 -0.988747 0.02 0 0 0 1 2
3915 1 1.39099 -2.87434 0.02 0 0 0 1 2
3869 1 1.38283 -1.67801 0.02 0 0 0 1 2
3904 1 0.873802 -2.30636 0.02 0 0 0 1 2
3906 1 0.653739 -2.29621 0.02 0 0 0 1 2
3907 1 0.707016 -2.4854 0.02 0 0 0 1 2
3908 1 0.444656 -2.27621 0.02 0 0 0 1 2
3909 1 0.499195 -2.47715 0.02 0 0 0 1 2
3900 1 1.3144 -2.30128 0.02 0 0 0 1 2
3901 1 1.33594 -2.49394 0.02 0 0 0 1 2
3902 1 1.102 -2.30994 0.02 0 0 0 1 2
3903 1 1.12763 -2.49506 0.02 0 0 0 1 2
3905 1 0.91765 -2.49051 0.02 0 0 0 1 2
3877 1 0.520609 -1.36587 0.02 0 0 0 1 2
3841 1 1.15332 -0.469224 0.02 0 0 0 1 2
3898 1 1.51255 -2.25436 0.02 0 0 0 1 2
3876 1 0.739781 -1.3795 0.02 0 0 0 1 2
3891 1 0.808675 -1.93585 0.02 0 0 0 1 2
3892 1 0.812838 -2.12404 0.02 0 0 0 1 2
3893 1 0.767279 -1.75137 0.02 0 0 0 1 2
3894 1 0.588455 -1.91774 0.02 0 0 0 1 2
3895 1 0.602381 -2.10566 0.02 0 0 0 1 2
3886 1 1.25215 -2.118 0.02 0 0 0 1 2
3887 1 0.984622 -1.76484 0.02 0 0 0 1 2
3888 1 1.22329 -1.92667 0.02 0 0 0 1 2
3889 1 1.02163 -1.95147 0.02 0 0 0 1 2
3890 1 1.03064 -2.1371 0.02 0 0 0 1 2
3840 1 1.19669 -0.668099 0.02 0 0 0 1 2
3827 1 0.932736 -0.317833 0.02 0 0 0 1 2
3875 1 0.776986 -1.56384 0.02 0 0 0 1 2
3883 1 1.41616 -1.8738 0.02 0 0 0 1 2
3885 1 1.45715 -2.06621 0.02 0 0 0 1 2
3818 1 0.519613 0.0581515 0.02 0 0 0 1 2
3819 1 0.52049 0.271338 0.02 0 0 0 1 2
3820 1 0.712483 0.0324508 0.02 0 0 0 1 2
3821 1 0.713593 0.238999 0.02 0 0 0 1 2
3822 1 0.903005 0.10449 0.02 0 0 0 1 2
3823 1 0.897058 0.316871 0.02 0 0 0 1 2
3824 1 1.09694 0.14424 0.02 0 0 0 1 2
3825 1 1.08508 0.353606 0.02 0 0 0 1 2
3826 1 1.2861 0.221767 0.02 0 0 0 1 2
3827 1 1.26492 0.428482 0.02 0 0 0 1 2
3830 1 1.29125 0.0123139 0.02 0 0 0 1 2
3828 1 1.47573 0.297915 0.02 0 0 0 1 2
3829 1 1.47756 0.0870193 0.02 0 0 0 1 2
4048 1 0.632572 6.38201 0.02 0 0 0 1 2
4047 1 0.439654 6.3475 0.02 0 0 0 1 2
3833 1 0.493938 0.476635 0.02 0 0 0 1 2
3834 1 0.473069 0.679911 0.02 0 0 0 1 2
3835 1 0.693105 0.447051 0.02 0 0 0 1 2
3836 1 0.667294 0.655296 0.02 0 0 0 1 2
3837 1 0.623457 0.866201 0.02 0 0 0 1 2
3838 1 0.840356 0.740464 0.02 0 0 0 1 2
3839 1 0.873947 0.527935 0.02 0 0 0 1 2
3840 1 1.05942 0.56827 0.02 0 0 0 1 2
3841 1 1.02527 0.780362 0.02 0 0 0 1 2
3842 1 1.20855 0.841408 0.02 0 0 0 1 2
3843 1 1.24024 0.636197 0.02 0 0 0 1 2
3844 1 1.44667 0.503287 0.02 0 0 0 1 2
3845 1 1.4225 0.711247 0.02 0 0 0 1 2
4038 1 1.43868 5.83202 0.02 0 0 0 1 2
4036 1 1.21246 6.03374 0.02 0 0 0 1 2
4046 1 0.801534 6.16667 0.02 0 0 0 1 2
4072 1 1.46725 6.5775 0.02 0 2.96999e-08 -2.00592e-07 1 2
3850 1 0.423538 0.878538 0.02 0 0 0 1 2
3851 1 0.575532 1.07228 0.02 0 0 0 1 2
3852 1 0.546005 1.27862 0.02 0 0 0 1 2
3853 1 0.755518 1.15445 0.02 0 0 0 1 2
3854 1 0.798798 0.94982 0.02 0 0 0 1 2
3855 1 0.98709 0.987355 0.02 0 0 0 1 2
3856 1 0.948032 1.19029 0.02 0 0 0 1 2
3857 1 1.13822 1.24909 0.02 0 0 0 1 2
3858 1 1.17214 1.04555 0.02 0 0 0 1 2
3860 1 1.35728 1.11411 0.02 0 0 0 1 2
3859 1 1.39322 0.914402 0.02 0 0 0 1 2
4035 1 1.02218 6.01133 0.02 0 0 0 1 2
4021 1 1.25747 5.61574 0.02 0 0 0 1 2
4071 1 1.42925 6.7635 0.02 0 -5.40809e-07 5.63254e-07 1 2
4060 1 0.405917 6.73619 0.02 0 0 0 1 2
3865 1 0.514507 1.48144 0.02 0 0 0 1 2
3866 1 0.512416 1.68879 0.02 0 0 0 1 2
3867 1 0.703574 1.5575 0.02 0 0 0 1 2
3868 1 0.733311 1.35841 0.02 0 0 0 1 2
3869 1 0.932218 1.39328 0.02 0 0 0 1 2
3870 1 0.900378 1.59163 0.02 0 0 0 1 2
3871 1 1.12769 1.45325 0.02 0 0 0 1 2
3872 1 1.09264 1.65109 0.02 0 0 0 1 2
3873 1 1.28663 1.70407 0.02 0 0 0 1 2
3874 1 1.33047 1.31259 0.02 0 0 0 1 2
3876 1 1.32751 1.51012 0.02 0 0 0 1 2
4020 1 1.25428 5.3707 0.02 0 0 0 1 2
4019 1 1.07229 5.60227 0.02 0 0 0 1 2
3878 1 1.49315 1.6938 0.02 0 0 0 1 2
4045 1 0.608449 6.18323 0.02 0 0 0 1 2
4061 1 0.421632 6.54613 0.02 0 0 0 1 2
4062 1 0.816723 6.74289 0.02 0 0 0 1 2
3882 1 0.489708 1.89352 0.02 0 0 0 1 2
3883 1 0.520571 2.10896 0.02 0 0 0 1 2
3884 1 0.703984 1.7605 0.02 0 0 0 1 2
3885 1 0.680834 1.95782 0.02 0 0 0 1 2
3886 1 0.71841 2.16205 0.02 0 0 0 1 2
3889 1 0.878501 1.99756 0.02 0 0 0 1 2
3887 1 0.901939 1.79638 0.02 0 0 0 1 2
3888 1 1.0958 1.85706 0.02 0 0 0 1 2
3890 1 1.0742 2.0556 0.02 0 0 0 1 2
3891 1 1.27739 2.09225 0.02 0 0 0 1 2
3892 1 1.29729 1.90075 0.02 0 0 0 1 2
3893 1 1.50043 1.8863 0.02 0 0 0 1 2
3894 1 1.49139 2.08168 0.02 0 0 0 1 2
4044 1 0.419867 6.14269 0.02 0 0 0 1 2
4063 1 0.610947 6.75598 0.02 0 0 0 1 2
3897 1 0.519045 2.31584 0.02 0 0 0 1 2
3898 1 0.546863 2.52459 0.02 0 0 0 1 2
3899 1 0.714143 2.36092 0.02 0 0 0 1 2
3900 1 0.749532 2.56123 0.02 0 0 0 1 2
3901 1 0.920878 2.20644 0.02 0 0 0 1 2
3902 1 0.915198 2.40235 0.02 0 0 0 1 2
3903 1 0.959902 2.60106 0.02 0 0 0 1 2
3904 1 1.13558 2.25388 0.02 0 0 0 1 2
3905 1 1.11842 2.44255 0.02 0 0 0 1 2
3906 1 1.36224 2.27066 0.02 0 0 0 1 2
3907 1 1.32998 2.4568 0.02 0 0 0 1 2
4018 1 1.07432 5.39802 0.02 0 0 0 1 2
4016 1 0.889847 5.35518 0.02 0 0 0 1 2
4034 1 1.24009 5.83143 0.02 0 0 0 1 2
4064 1 0.614383 6.5706 0.02 0 0 0 1 2
3912 1 0.410068 2.90933 0.02 0 0 0 1 2
3913 1 0.576193 2.72732 0.02 0 0 0 1 2
3914 1 0.610527 2.92807 0.02 0 0 0 1 2
3915 1 0.786235 2.75552 0.02 0 0 0 1 2
3916 1 0.813639 2.94837 0.02 0 0 0 1 2
3917 1 1.00539 2.79067 0.02 0 0 0 1 2
3918 1 1.01862 2.98307 0.02 0 0 0 1 2
3919 1 1.18042 2.62794 0.02 0 0 0 1 2
3920 1 1.22512 2.81234 0.02 0 0 0 1 2
3921 1 1.22482 3.00202 0.02 0 0 0 1 2
3922 1 1.40319 2.63653 0.02 0 0 0 1 2
3923 1 1.44066 2.82233 0.02 0 0 0 1 2
3924 1 1.43794 3.00905 0.02 0 0 0 1 2
4033 1 1.04783 5.80575 0.02 0 0 0 1 2
4032 1 0.855717 5.7628 0.02 0 0 0 1 2
4031 1 0.837163 5.96394 0.02 0 0 0 1 2
4069 1 1.26256 6.58197 0.02 0 0 0 1 2
4068 1 1.03266 6.57318 0.02 0 0 0 1 2
3930 1 0.433221 3.11108 0.02 0 0 0 1 2
3931 1 0.480365 3.30937 0.02 0 0 0 1 2
3932 1 0.637197 3.12945 0.02 0 0 0 1 2
3933 1 0.691686 3.32658 0.02 0 0 0 1 2
3934 1 0.845545 3.14301 0.02 0 0 0 1 2
3935 1 0.906266 3.32877 0.02 0 0 0 1 2
3936 1 1.06529 3.17459 0.02 0 0 0 1 2
3937 1 1.14377 3.35276 0.02 0 0 0 1 2
3938 1 1.28988 3.18734 0.02 0 0 0 1 2
3939 1 1.36838 3.36887 0.02 0 0 0 1 2
3940 1 1.51249 3.18551 0.02 0 0 0 1 2
4017 1 0.880455 5.56236 0.02 0 0 0 1 2
4056 1 1.45164 6.39628 0.02 0 8.0958e-10 -1.54785e-08 1 2
4030 1 0.647187 5.97745 0.02 0 0 0 1 2
3944 1 0.546391 3.50414 0.02 0 0 0 1 2
3945 1 0.399797 3.7317 0.02 0 0 0 1 2
3946 1 0.597836 3.7045 0.02 0 0 0 1 2
3947 1 0.674724 3.90666 0.02 0 0 0 1 2
3948 1 0.751677 3.52476 0.02 0 0 0 1 2
3949 1 0.804516 3.72431 0.02 0 0 0 1 2
3950 1 0.956727 3.51237 0.02 0 0 0 1 2
3951 1 1.00765 3.70319 0.02 0 0 0 1 2
3952 1 1.06442 3.89242 0.02 0 0 0 1 2
3953 1 1.16573 3.54201 0.02 0 0 0 1 2
3954 1 1.23396 3.72892 0.02 0 0 0 1 2
3955 1 1.376 3.56052 0.02 0 0 0 1 2
3956 1 1.46278 3.73891 0.02 0 0 0 1 2
4029 1 0.456307 5.95148 0.02 0 0 0 1 2
4040 1 1.4079 6.02609 0.02 0 0 0 1 2
4067 1 1.0136 6.75198 0.02 0 0 0 1 2
3960 1 0.479246 3.92208 0.02 0 0 0 1 2
3961 1 0.534374 4.11684 0.02 0 0 0 1 2
3962 1 0.594994 4.31184 0.02 0 0 0 1 2
3963 1 0.733282 4.11699 0.02 0 0 0 1 2
3964 1 0.792536 4.32724 0.02 0 0 0 1 2
3965 1 0.872274 3.92769 0.02 0 0 0 1 2
3966 1 0.931343 4.12896 0.02 0 0 0 1 2
3967 1 1.12524 4.09157 0.02 0 0 0 1 2
3968 1 0.992429 4.32461 0.02 0 0 0 1 2
3969 1 1.1882 4.28555 0.02 0 0 0 1 2
3970 1 1.26726 3.92225 0.02 0 0 0 1 2
3973 1 1.33826 4.11917 0.02 0 0 0 1 2
4028 1 0.658606 5.7669 0.02 0 0 0 1 2
3972 1 1.46907 3.93074 0.02 0 0 0 1 2
4015 1 0.684943 5.55932 0.02 0 0 0 1 2
3975 1 1.3919 4.32136 0.02 0 0 0 1 2
4027 1 0.4555 5.7614 0.02 0 0 0 1 2
4054 1 1.42097 6.21556 0.02 0 0 0 1 2
4053 1 1.23881 6.40823 0.02 0 0 0 1 2
3979 1 0.408502 4.361 0.02 0 0 0 1 2
3980 1 0.442332 4.56926 0.02 0 0 0 1 2
3981 1 0.630773 4.51509 0.02 0 0 0 1 2
3982 1 0.481786 4.76921 0.02 0 0 0 1 2
3983 1 0.675971 4.71589 0.02 0 0 0 1 2
3984 1 0.830973 4.53266 0.02 0 0 0 1 2
3986 1 0.880356 4.73412 0.02 0 0 0 1 2
3985 1 1.0286 4.52537 0.02 0 0 0 1 2
3987 1 1.07406 4.73178 0.02 0 0 0 1 2
3988 1 1.22164 4.48471 0.02 0 0 0 1 2
3989 1 1.26024 4.6878 0.02 0 0 0 1 2
3990 1 1.41827 4.5335 0.02 0 0 0 1 2
4065 1 0.816286 6.55738 0.02 0 0 0 1 2
3992 1 1.44427 4.75966 0.02 0 0 0 1 2
4049 1 0.828948 6.36713 0.02 0 0 0 1 2
4052 1 1.03143 6.39542 0.02 0 0 0 1 2
4066 1 1.21424 6.75189 0.02 0 0 0 1 2
3996 1 0.539052 5.17829 0.02 0 0 0 1 2
3997 1 0.533551 4.96872 0.02 0 0 0 1 2
3998 1 0.721607 4.91452 0.02 0 0 0 1 2
3999 1 0.722266 5.12546 0.02 0 0 0 1 2
4000 1 0.913976 4.94053 0.02 0 0 0 1 2
4001 1 0.907782 5.14856 0.02 0 0 0 1 2
4002 1 1.09915 4.95411 0.02 0 0 0 1 2
4003 1 1.0896 5.18161 0.02 0 0 0 1 2
4004 1 1.2761 4.89802 0.02 0 0 0 1 2
4005 1 1.26497 5.13092 0.02 0 0 0 1 2
4006 1 1.43813 4.99884 0.02 0 0 0 1 2
4024 1 1.44302 5.63052 0.02 0 0 0 1 2
4008 1 1.43451 5.21573 0.02 0 0 0 1 2
4022 1 1.4293 5.4263 0.02 0 0 0 1 2
4051 1 1.20829 6.22574 0.02 0 0 0 1 2
4050 1 0.999085 6.20704 0.02 0 0 0 1 2
4012 1 0.507071 5.38007 0.02 0 0 0 1 2
4013 1 0.484503 5.57366 0.02 0 0 0 1 2
4014 1 0.701409 5.34701 0.02 0 0 0 1 2
1509 2 2 -10 0 0 0 0 1 5
1510 2 2.2 -10 0 0 0 0 1 5
1511 2 2.4 -10 0 0 0 0 1 5
1543 2 2 -9.8 0 0 0 0 1 5
1544 2 2.2 -9.8 0 0 0 0 1 5
1545 2 2.4 -9.8 0 0 0 0 1 5
1577 2 2 -9.6 0 0 0 0 1 5
1578 2 2.2 -9.6 0 0 0 0 1 5
1579 2 2.4 -9.6 0 0 0 0 1 5
1512 2 2.6 -10 0 0 0 0 1 5
1513 2 2.8 -10 0 0 0 0 1 5
1546 2 2.6 -9.8 0 0 0 0 1 5
1547 2 2.8 -9.8 0 0 0 0 1 5
1580 2 2.6 -9.6 0 0 0 0 1 5
1581 2 2.8 -9.6 0 0 0 0 1 5
1645 2 2 -9.2 0 0 0 0 1 5
1646 2 2.2 -9.2 0 0 0 0 1 5
1647 2 2.4 -9.2 0 0 0 0 1 5
1613 2 2.4 -9.4 0 0 0 0 1 5
1612 2 2.2 -9.4 0 0 0 0 1 5
1611 2 2 -9.4 0 0 0 0 1 5
1648 2 2.6 -9.2 0 0 0 0 1 5
1649 2 2.8 -9.2 0 0 0 0 1 5
1615 2 2.8 -9.4 0 0 0 0 1 5
1614 2 2.6 -9.4 0 0 0 0 1 5
1679 2 2 -9 0 0 0 0 1 5
1680 2 2.2 -9 0 0 0 0 1 5
1681 2 2.4 -9 0 0 0 0 1 5
1713 2 2 -8.8 0 0 0 0 1 5
1714 2 2.2 -8.8 0 0 0 0 1 5
1715 2 2.4 -8.8 0 0 0 0 1 5
1682 2 2.6 -9 0 0 0 0 1 5
1683 2 2.8 -9 0 0 0 0 1 5
1716 2 2.6 -8.8 0 0 0 0 1 5
1717 2 2.8 -8.8 0 0 0 0 1 5
1783 2 2.4 -8.4 0 0 0 0 1 5
1782 2 2.2 -8.4 0 0 0 0 1 5
1781 2 2 -8.4 0 0 0 0 1 5
1747 2 2 -8.6 0 0 0 0 1 5
1748 2 2.2 -8.6 0 0 0 0 1 5
1749 2 2.4 -8.6 0 0 0 0 1 5
1785 2 2.8 -8.4 0 0 0 0 1 5
1784 2 2.6 -8.4 0 0 0 0 1 5
1750 2 2.6 -8.6 0 0 0 0 1 5
1751 2 2.8 -8.6 0 0 0 0 1 5
1851 2 2.4 -8 0 0 0 0 1 5
1850 2 2.2 -8 0 0 0 0 1 5
1849 2 2 -8 0 0 0 0 1 5
1817 2 2.4 -8.2 0 0 0 0 1 5
1816 2 2.2 -8.2 0 0 0 0 1 5
1815 2 2 -8.2 0 0 0 0 1 5
1853 2 2.8 -8 0 0 0 0 1 5
1852 2 2.6 -8 0 0 0 0 1 5
1819 2 2.8 -8.2 0 0 0 0 1 5
1818 2 2.6 -8.2 0 0 0 0 1 5
1953 2 2.4 -7.4 0 0 0 0 1.01192 5
1952 2 2.2 -7.4 0 0 0 0 1 5
1951 2 2 -7.4 0 0 0 0 0.992444 5
1919 2 2.4 -7.6 0 0 0 0 1 5
1918 2 2.2 -7.6 0 0 0 0 1 5
1917 2 2 -7.6 0 0 0 0 1 5
1885 2 2.4 -7.8 0 0 0 0 1 5
1884 2 2.2 -7.8 0 0 0 0 1 5
1883 2 2 -7.8 0 0 0 0 1 5
1955 2 2.8 -7.4 0 0 0 0 0.998495 5
1954 2 2.6 -7.4 0 0 0 0 1.00064 5
1921 2 2.8 -7.6 0 0 0 0 1 5
1920 2 2.6 -7.6 0 0 0 0 1 5
1887 2 2.8 -7.8 0 0 0 0 1 5
1886 2 2.6 -7.8 0 0 0 0 1 5
2021 2 2.4 -7 0 0 0 0 1.00996 5
2020 2 2.2 -7 0 0 0 0 1.00499 5
2019 2 2 -7 0 0 0 0 0.993367 5
1987 2 2.4 -7.2 0 0 0 0 1.01192 5
1986 2 2.2 -7.2 0 0 0 0 1.01075 5
1985 2 2 -7.2 0 0 0 0 0.992675 5
2023 2 2.8 -7 0 0 0 0 0.999791 5
2022 2 2.6 -7 0 0 0 0 1.00343 5
1989 2 2.8 -7.2 0 0 0 0 0.998614 5
1988 2 2.6 -7.2 0 0 0 0 1.0028 5
3623 1 2.61134 -6.76992 0.02 0 -0.00288746 -0.000171931 1 2
3625 1 2.63438 -6.58688 0.02 0 0.000260393 0.000230486 1 2
3624 1 2.42318 -6.58073 0.02 0 -0.00206865 -0.000341268 1 2
3626 1 2.83028 -6.75274 0.02 0 -0.00245852 -0.000307812 1 2
3628 1 2.83801 -6.56746 0.02 0 0.000175312 0.000330184 1 2
3884 1 1.6559 -2.02337 0.02 0 0 0 1 2
3882 1 1.60777 -1.82483 0.02 0 0 0 1 2
3834 1 1.85915 -0.848233 0.02 0 0 0 1 2
3833 1 1.80355 -0.650311 0.02 0 0 0 1 2
3630 1 2.4587 -6.40681 0.02 0 0.000294443 0.000148814 1 2
3633 1 2.69303 -6.21248 0.02 0 2.62995e-05 4.04993e-05 1 2
3632 1 2.66334 -6.40373 0.02 0 0.000344125 0.00030281 1 2
3631 1 2.48518 -6.22242 0.02 0 4.1179e-05 3.44928e-05 1 2
3851 1 1.67336 -0.898944 0.02 0 0 0 1 2
3635 1 2.90528 -6.19565 0.02 0 7.48386e-06 1.80253e-05 1 2
3634 1 2.8666 -6.37967 0.02 0 0.000119937 0.000162323 1 2
3865 1 1.75878 -1.55154 0.02 0 0 0 1 2
3568 1 2.87908 -0.0736053 0.02 0 -1.14833e-22 -7.10119e-23 1 2
3638 1 2.72647 -6.01924 0.02 0 1.1792e-07 3.3916e-07 1 2
3636 1 2.52059 -6.03472 0.02 0 8.32389e-07 9.94506e-07 1 2
3637 1 2.55647 -5.84117 0.02 0 1.44717e-09 1.83518e-09 1 2
3639 1 2.7512 -5.81749 0.02 0 8.82587e-11 4.49019e-10 1 2
3640 1 2.93657 -6.01437 0.02 0 7.15812e-08 2.74239e-07 1 2
3641 1 2.94536 -5.82674 0.02 0 7.92649e-11 4.26132e-10 1 2
3864 1 1.73513 -1.33541 0.02 0 0 0 1 2
3880 1 1.79234 -1.75658 0.02 0 0 0 1 2
3644 1 2.5882 -5.23189 0.02 0 -2.54413e-25 4.40304e-26 1 2
3643 1 2.54916 -5.43396 0.02 0 -2.99097e-25 8.58754e-27 1 2
3642 1 2.55449 -5.6389 0.02 0 -2.92264e-26 -4.29646e-27 1 2
3645 1 2.75174 -5.61599 0.02 0 -7.06892e-24 -3.0474e-24 1 2
3646 1 2.74715 -5.4168 0.02 0 -2.31536e-23 1.30184e-25 1 2
3650 1 2.78449 -5.21823 0.02 0 -1.92695e-23 7.10695e-24 1 2
3647 1 2.95636 -5.63481 0.02 0 -2.04372e-22 -1.34239e-22 1 2
3649 1 2.97913 -5.25215 0.02 0 -1.1625e-21 4.43066e-22 1 2
3648 1 2.94697 -5.4444 0.02 0 -1.02806e-21 -1.34324e-22 1 2
3897 1 1.73241 -2.42162 0.02 0 0 0 1 2
3911 1 1.78417 -2.84058 0.02 0 0 0 1 2
3832 1 1.76406 -0.449534 0.02 0 0 0 1 2
3652 1 2.56514 -4.83933 0.02 0 -9.2744e-26 -2.55438e-27 1 2
3651 1 2.56402 -5.03379 0.02 0 -4.47405e-27 -8.01165e-28 1 2
3653 1 2.77511 -5.0226 0.02 0 -1.92478e-24 -6.52099e-25 1 2
3654 1 2.76887 -4.82892 0.02 0 -6.78112e-24 -3.88441e-25 1 2
3655 1 2.98282 -5.05423 0.02 0 -1.11666e-22 9.70429e-23 1 2
3656 1 2.97177 -4.85734 0.02 0 -2.4036e-23 -6.36793e-24 1 2
3910 1 1.7609 -2.62369 0.02 0 0 0 1 2
3927 1 1.79294 -3.47713 0.02 0 0 0 1 2
3657 1 2.56223 -4.64125 0.02 0 -2.42305e-26 2.98037e-27 1 2
3658 1 2.57244 -4.44228 0.02 0 -5.53519e-35 1.52142e-35 1 2
3659 1 2.76836 -4.63613 0.02 0 -3.77872e-24 1.44106e-24 1 2
3660 1 2.77966 -4.44357 0.02 0 -2.72706e-25 2.31232e-25 1 2
3661 1 2.97824 -4.65796 0.02 0 -1.66746e-23 1.27743e-23 1 2
3662 1 2.98079 -4.45934 0.02 0 -7.50118e-24 7.72358e-24 1 2
3926 1 1.78547 -3.27024 0.02 0 0 0 1 2
3925 1 1.79153 -3.05959 0.02 0 0 0 1 2
3663 1 2.55172 -4.23847 0.02 0 0 0 1 2
3664 1 2.55418 -4.02919 0.02 0 0 0 1 2
3665 1 2.74885 -4.24977 0.02 0 -2.83769e-34 3.28725e-34 1 2
3666 1 2.74924 -4.05169 0.02 0 -6.02675e-35 -4.06524e-35 1 2
3667 1 2.95078 -4.25389 0.02 0 -5.13192e-27 1.28568e-26 1 2
3668 1 2.94164 -4.0439 0.02 0 -1.01608e-26 -1.21221e-26 1 2
4063 1 1.77877 -3.89314 0.02 0 0 0 1 2
4049 1 1.76213 -4.09365 0.02 0 0 0 1 2
3850 1 1.69896 -1.11672 0.02 0 0 0 1 2
3669 1 2.54609 -3.81677 0.02 0 0 0 1 2
3670 1 2.55008 -3.5978 0.02 0 0 0 1 2
3672 1 2.73569 -3.64617 0.02 0 -4.55472e-25 -1.66229e-25 1 2
3671 1 2.73759 -3.85087 0.02 0 -2.8902e-27 -9.95782e-28 1 2
3673 1 2.92959 -3.82931 0.02 0 -4.4416e-24 -2.85264e-24 1 2
3674 1 2.92357 -3.61592 0.02 0 -8.28465e-23 -2.83854e-23 1 2
3896 1 1.70941 -2.21807 0.02 0 0 0 1 2
3818 1 1.71652 -0.249702 0.02 0 0 0 1 2
3566 1 2.92455 -0.279581 0.02 0 -1.92315e-22 1.14782e-22 1 2
3988 1 1.72534 -5.67806 0.02 0 0 0 1 2
3622 1 2.53362 -3.3728 0.02 0 0 0 1 2
3620 1 2.71674 -3.43454 0.02 0 -1.87786e-24 -9.49359e-26 1 2
3619 1 2.70279 -3.21574 0.02 0 -2.24755e-25 6.00199e-26 1 2
3621 1 2.52962 -3.14391 0.02 0 0 0 1 2
3986 1 1.70737 -5.85757 0.02 0 0 0 1 2
3618 1 2.90312 -3.40386 0.02 0 -1.5137e-22 -4.29219e-24 1 2
3617 1 2.88217 -3.1875 0.02 0 -2.83791e-23 1.18247e-23 1 2
3984 1 1.66072 -6.02829 0.02 0 2.56752e-10 1.82792e-09 1 2
3881 1 1.84122 -1.956 0.02 0 0 0 1 2
3570 1 2.50247 -0.16898 0.02 0 -1.49184e-41 1.96316e-42 1 2
3613 1 2.69699 -2.97591 0.02 0 0 0 1 2
3612 1 2.67648 -2.72777 0.02 0 0 0 1 2
3614 1 2.49406 -2.72388 0.02 0 0 0 1 2
3615 1 2.51973 -2.92742 0.02 0 0 0 1 2
3819 1 1.67283 -0.0478893 0.02 0 0 0 1 2
3916 1 1.59927 -3.02198 0.02 0 0 0 1 2
3610 1 2.85248 -2.74263 0.02 0 0 0 1 2
3611 1 2.87491 -2.96695 0.02 0 -9.3172e-26 1.01218e-25 1 2
4064 1 1.80324 -3.68647 0.02 0 0 0 1 2
3972 1 1.85084 -6.19175 0.02 0 2.10122e-07 3.72356e-06 1 2
3605 1 2.68516 -2.47537 0.02 0 0 0 1 2
3604 1 2.6436 -2.23608 0.02 0 0 0 1 2
3606 1 2.47502 -2.30563 0.02 0 0 0 1 2
3607 1 2.51319 -2.51928 0.02 0 0 0 1 2
3602 1 2.81757 -2.29317 0.02 0 0 0 1 2
3913 1 1.59129 -2.8269 0.02 0 0 0 1 2
3930 1 1.5976 -3.42534 0.02 0 0 0 1 2
3603 1 2.85825 -2.51656 0.02 0 0 0 1 2
3971 1 1.84448 -6.37166 0.02 0 -3.23655e-05 5.15068e-05 1 2
4048 1 1.76902 -4.29575 0.02 0 0 0 1 2
3569 1 2.73023 -0.279188 0.02 0 -6.77893e-25 2.10845e-25 1 2
3596 1 2.78184 -2.05646 0.02 0 0 0 1 2
3598 1 2.56421 -1.79996 0.02 0 0 0 1 2
3599 1 2.43522 -2.08011 0.02 0 0 0 1 2
3597 1 2.60234 -2.01454 0.02 0 0 0 1 2
3594 1 2.75189 -1.8337 0.02 0 0 0 1 2
3567 1 2.67969 -0.0803597 0.02 0 -6.04367e-25 -1.60351e-25 1 2
3571 1 2.55392 -0.372384 0.02 0 -3.10757e-29 8.19998e-31 1 2
4035 1 1.74516 -4.49581 0.02 0 0 0 1 2
4021 1 1.77957 -5.11052 0.02 0 0 0 1 2
3595 1 2.95644 -2.0475 0.02 0 0 0 1 2
3593 1 2.93343 -1.82247 0.02 0 0 0 1 2
3590 1 2.72298 -1.62077 0.02 0 0 0 1 2
3588 1 2.69372 -1.41162 0.02 0 -4.4963e-27 -2.09683e-27 1 2
3591 1 2.49282 -1.38585 0.02 0 0 0 1 2
3592 1 2.53363 -1.58822 0.02 0 0 0 1 2
3958 1 1.79751 -6.55361 0.02 0 -6.86423e-05 2.41164e-05 1 2
3589 1 2.90586 -1.60129 0.02 0 -9.93892e-27 -1.42364e-26 1 2
3587 1 2.88807 -1.38626 0.02 0 -1.12693e-24 -1.16574e-24 1 2
4020 1 1.75976 -4.90344 0.02 0 0 0 1 2
4006 1 1.7771 -5.30587 0.02 0 0 0 1 2
4005 1 1.7408 -5.49466 0.02 0 0 0 1 2
3581 1 2.82739 -0.952754 0.02 0 -2.41935e-22 -4.65766e-23 1 2
3586 1 2.4776 -1.18097 0.02 0 0 0 1 2
3584 1 2.67132 -1.20827 0.02 0 -3.34805e-25 -1.53081e-25 1 2
3582 1 2.64638 -1.00188 0.02 0 -2.34937e-24 -3.96839e-25 1 2
3585 1 2.4497 -0.97904 0.02 0 0 0 1 2
3929 1 1.59156 -3.22306 0.02 0 0 0 1 2
3583 1 2.85859 -1.17441 0.02 0 -6.76542e-23 -3.59317e-23 1 2
3835 1 1.61111 -0.705365 0.02 0 0 0 1 2
4034 1 1.75189 -4.69896 0.02 0 0 0 1 2
3573 1 2.97335 -0.71216 0.02 0 -6.61166e-21 4.32188e-22 1 2
3575 1 2.79061 -0.721559 0.02 0 -1.87234e-22 8.04422e-24 1 2
3574 1 2.7531 -0.490861 0.02 0 -3.50427e-23 6.14825e-24 1 2
3576 1 2.58996 -0.587345 0.02 0 -6.67548e-25 1.47891e-25 1 2
3577 1 2.61834 -0.796888 0.02 0 -2.05117e-24 1.38686e-26 1 2
3578 1 2.42416 -0.77638 0.02 0 0 0 1 2
3572 1 2.93597 -0.497279 0.02 0 -1.73352e-21 4.88998e-22 1 2
3957 1 1.79368 -6.74592 0.02 0 -0.00129727 -0.000340172 1 2
3954 1 1.58986 -6.76847 0.02 0 -0.000132576 -0.00011626 1 2
3956 1 1.61268 -6.576 0.02 0 -1.84942e-06 1.91576e-05 1 2
3968 1 1.62428 -6.38716 0.02 0 1.70392e-07 3.13224e-06 1 2
3970 1 1.6422 -6.20607 0.02 0 1.69201e-08 1.24907e-07 1 2
4018 1 1.58746 -5.0919 0.02 0 0 0 1 2
4061 1 1.59238 -3.83821 0.02 0 0 0 1 2
4062 1 1.61516 -3.62939 0.02 0 0 0 1 2
3823 1 1.5285 -0.320927 0.02 0 0 0 1 2
4002 1 1.53222 -5.47541 0.02 0 0 0 1 2
4004 1 1.56788 -5.28876 0.02 0 0 0 1 2
4019 1 1.56244 -4.88531 0.02 0 0 0 1 2
4032 1 1.56054 -4.67466 0.02 0 0 0 1 2
4033 1 1.55031 -4.46046 0.02 0 0 0 1 2
4046 1 1.57412 -4.25285 0.02 0 0 0 1 2
4047 1 1.56469 -4.04623 0.02 0 0 0 1 2
3836 1 1.57231 -0.512167 0.02 0 0 0 1 2
3912 1 1.55287 -2.6413 0.02 0 0 0 1 2
3854 1 1.52965 -1.19935 0.02 0 0 0 1 2
3899 1 1.53607 -2.44987 0.02 0 0 0 1 2
3868 1 1.57414 -1.62017 0.02 0 0 0 1 2
3866 1 1.5559 -1.41185 0.02 0 0 0 1 2
3568 1 2.64388 0.117407 0.02 0 -6.80008e-25 -1.08042e-25 1 2
3569 1 2.64061 0.319237 0.02 0 -3.75679e-24 -4.35402e-25 1 2
3567 1 2.45735 0.0361407 0.02 0 -6.96376e-29 -1.70554e-29 1 2
3566 1 2.45131 0.248542 0.02 0 -3.17823e-27 -2.05815e-28 1 2
4023 1 1.61578 5.44482 0.02 0 0 0 1 2
3971 1 1.67641 3.91626 0.02 0 0 0 1 2
3570 1 2.84568 0.124572 0.02 0 -5.2028e-22 -1.79092e-22 1 2
3571 1 2.84655 0.317902 0.02 0 -1.29005e-21 -1.60686e-22 1 2
454 2 2.6 9.6 0 0 0 0 1 5
4059 1 1.8649 6.35552 0.02 0 -3.69629e-05 -4.02026e-05 1 2
3577 1 2.62824 0.518918 0.02 0 -2.68511e-24 1.74896e-25 1 2
3578 1 2.64028 0.70789 0.02 0 -5.45937e-25 6.51241e-26 1 2
3574 1 2.44073 0.462919 0.02 0 -4.75061e-28 3.10533e-29 1 2
3575 1 2.42851 0.669742 0.02 0 -7.41735e-29 -2.09065e-30 1 2
3576 1 2.42836 0.863721 0.02 0 -1.2323e-33 6.9724e-35 1 2
3579 1 2.82645 0.510413 0.02 0 -1.06267e-21 7.64191e-23 1 2
4009 1 1.61686 5.21515 0.02 0 0 0 1 2
3580 1 2.86696 0.693252 0.02 0 -1.15801e-21 3.0785e-22 1 2
3958 1 1.68467 3.72623 0.02 0 0 0 1 2
3927 1 1.66117 3.00989 0.02 0 0 0 1 2
4058 1 1.85537 6.17183 0.02 0 7.30608e-08 -4.65381e-07 1 2
455 2 2.8 9.6 0 0 0 0 1 5
488 2 2.6 9.8 0 0 0 0 1 5
3585 1 2.64925 0.88935 0.02 0 -1.91478e-25 6.38416e-26 1 2
3586 1 2.63633 1.07154 0.02 0 -2.94186e-25 -1.74702e-26 1 2
3582 1 2.42167 1.054 0.02 0 -8.10346e-32 1.0147e-32 1 2
3583 1 2.57449 1.24917 0.02 0 -1.66278e-29 2.92106e-30 1 2
3587 1 2.79975 1.2351 0.02 0 -1.31902e-22 1.76844e-23 1 2
4007 1 1.61147 4.96807 0.02 0 0 0 1 2
4057 1 1.66401 6.39197 0.02 0 -7.52482e-07 -5.84182e-06 1 2
3584 1 2.87121 0.873854 0.02 0 -3.26111e-22 8.18353e-23 1 2
3588 1 2.85688 1.05708 0.02 0 -2.94301e-22 -6.10605e-23 1 2
489 2 2.8 9.8 0 0 0 0 1 5
485 2 2 9.8 0 0 0 0 1 5
3590 1 2.59255 1.43261 0.02 0 -1.20671e-26 -3.27725e-27 1 2
3591 1 2.58914 1.61539 0.02 0 -1.86682e-25 -4.03374e-26 1 2
3593 1 2.8291 1.59427 0.02 0 -2.60702e-22 -5.83216e-23 1 2
3592 1 2.80467 1.41749 0.02 0 -4.08801e-23 9.55218e-24 1 2
3896 1 1.71965 2.10998 0.02 0 0 0 1 2
3993 1 1.62411 4.73345 0.02 0 0 0 1 2
4025 1 1.78942 5.36979 0.02 0 0 0 1 2
4043 1 1.82576 5.99016 0.02 0 8.51632e-10 -2.55112e-09 1 2
451 2 2 9.6 0 0 0 0 1 5
3595 1 2.43915 1.795 0.02 0 -7.25439e-31 -9.11551e-32 1 2
3598 1 2.68732 1.77422 0.02 0 -2.19152e-24 -2.42853e-26 1 2
3599 1 2.71929 2.10225 0.02 0 -5.89675e-24 4.54503e-25 1 2
3597 1 2.61056 1.94073 0.02 0 -1.70802e-25 5.95106e-27 1 2
3596 1 2.48225 2.08906 0.02 0 -7.05417e-28 -4.57582e-29 1 2
3600 1 2.91304 1.75512 0.02 0 -2.58329e-21 -2.48883e-22 1 2
3602 1 2.92948 2.11399 0.02 0 -2.41022e-21 5.87486e-22 1 2
3601 1 2.86885 1.93421 0.02 0 -1.34923e-21 3.54129e-23 1 2
4011 1 1.78939 5.14926 0.02 0 0 0 1 2
3895 1 1.69936 1.92355 0.02 0 0 0 1 2
486 2 2.2 9.8 0 0 0 0 1 5
3603 1 2.43547 2.4591 0.02 0 0 0 1 2
3606 1 2.65603 2.47229 0.02 0 -1.17666e-26 -3.36507e-27 1 2
3605 1 2.66987 2.28594 0.02 0 -1.82731e-25 6.93549e-26 1 2
3604 1 2.46392 2.27317 0.02 0 -1.03209e-32 6.66969e-34 1 2
3879 1 1.70518 1.73253 0.02 0 0 0 1 2
3607 1 2.88602 2.29933 0.02 0 -1.99917e-22 1.07217e-22 1 2
3608 1 2.87089 2.48497 0.02 0 -8.20797e-24 -2.06584e-24 1 2
4073 1 1.67453 6.56733 0.02 0 -1.39895e-05 -4.32819e-05 1 2
487 2 2.4 9.8 0 0 0 0 1 5
3609 1 2.47073 2.64545 0.02 0 0 0 1 2
3612 1 2.69047 2.65627 0.02 0 -1.95857e-24 -6.87337e-25 1 2
3611 1 2.52122 3.00191 0.02 0 -3.82319e-26 -3.40197e-27 1 2
3610 1 2.53183 2.82219 0.02 0 -1.85519e-27 6.27808e-29 1 2
3613 1 2.76059 2.82932 0.02 0 -1.90824e-22 -6.3335e-23 1 2
3614 1 2.76026 3.00882 0.02 0 -5.5465e-22 -3.63209e-23 1 2
3991 1 1.6061 4.51831 0.02 0 0 0 1 2
3976 1 1.58823 4.31238 0.02 0 0 0 1 2
3615 1 2.92304 2.66182 0.02 0 -2.98039e-22 -2.62229e-22 1 2
4042 1 1.84076 5.79369 0.02 0 1.88104e-17 -4.14444e-17 1 2
4010 1 1.78575 4.93068 0.02 0 0 0 1 2
4026 1 1.80962 5.58605 0.02 0 0 0 1 2
3618 1 2.43741 3.36529 0.02 0 -5.55873e-28 -2.5633e-29 1 2
3619 1 2.60476 3.16672 0.02 0 -1.09596e-24 1.26409e-26 1 2
3621 1 2.65586 3.34295 0.02 0 -2.16217e-24 1.28089e-25 1 2
3832 1 1.6725 0.353552 0.02 0 0 0 1 2
3620 1 2.84568 3.17288 0.02 0 -3.66569e-21 9.05083e-23 1 2
3622 1 2.87801 3.35522 0.02 0 -4.22173e-21 8.61227e-22 1 2
3831 1 1.66801 0.154943 0.02 0 0 0 1 2
452 2 2.2 9.6 0 0 0 0 1 5
3624 1 2.52659 3.73126 0.02 0 -1.10553e-28 2.33917e-29 1 2
3623 1 2.49927 3.54263 0.02 0 -2.50917e-27 5.55984e-28 1 2
3625 1 2.72031 3.52106 0.02 0 -9.61673e-24 1.32897e-24 1 2
3626 1 2.72643 3.71117 0.02 0 -2.74105e-24 1.01642e-24 1 2