ITEM: TIMESTEP
33000
ITEM: NUMBER OF ATOMS
1286
ITEM: BOX BOUNDS ff ff pp
0.0000000000000000e+00 4.4000000000000004e+00
-1.0000000000000000e+01 1.0000000000000000e+01
-2.0000000000000000e-02 2.0000000000000000e-02
ITEM: ATOMS id type x y vx vy fx fy c_den c_phase
3624 1 1.22318 -6.58073 0.02 0 -2.21641e-14 -8.88288e-15 1 2
3623 1 1.41134 -6.76992 0.02 0 -4.10413e-06 -4.37674e-06 1 2
3625 1 1.43438 -6.58688 0.02 0 4.1835e-08 1.43308e-07 1 2
3592 1 1.33363 -1.58822 0.02 0 0 0 1 2
3591 1 1.29282 -1.38585 0.02 0 0 0 1 2
3630 1 1.2587 -6.40681 0.02 0 0 0 1 2
3631 1 1.28518 -6.22242 0.02 0 0 0 1 2
3632 1 1.46334 -6.40373 0.02 0 5.49947e-09 2.89779e-08 1 2
3622 1 1.33362 -3.3728 0.02 0 0 0 1 2
3576 1 1.38996 -0.587345 0.02 0 0 0 1 2
3577 1 1.41834 -0.796888 0.02 0 0 0 1 2
3636 1 1.32059 -6.03472 0.02 0 0 0 1 2
3637 1 1.35647 -5.84117 0.02 0 0 0 1 2
3621 1 1.32962 -3.14391 0.02 0 0 0 1 2
3604 1 1.4436 -2.23608 0.02 0 0 0 1 2
3578 1 1.22416 -0.77638 0.02 0 0 0 1 2
3586 1 1.2776 -1.18097 0.02 0 0 0 1 2
3642 1 1.35449 -5.6389 0.02 0 0 0 1 2
3643 1 1.34916 -5.43396 0.02 0 0 0 1 2
3644 1 1.3882 -5.23189 0.02 0 0 0 1 2
3607 1 1.31319 -2.51928 0.02 0 0 0 1 2
3606 1 1.27502 -2.30563 0.02 0 0 0 1 2
3585 1 1.2497 -0.97904 0.02 0 0 0 1 2
3670 1 1.35008 -3.5978 0.02 0 0 0 1 2
3669 1 1.34609 -3.81677 0.02 0 0 0 1 2
3582 1 1.44638 -1.00188 0.02 0 0 0 1 2
3651 1 1.36402 -5.03379 0.02 0 0 0 1 2
3652 1 1.36514 -4.83933 0.02 0 0 0 1 2
3599 1 1.23522 -2.08011 0.02 0 0 0 1 2
3614 1 1.29406 -2.72388 0.02 0 0 0 1 2
3571 1 1.35392 -0.372384 0.02 0 0 0 1 2
3584 1 1.47132 -1.20827 0.02 0 0 0 1 2
3657 1 1.36223 -4.64125 0.02 0 0 0 1 2
3658 1 1.37244 -4.44228 0.02 0 0 0 1 2
3615 1 1.31973 -2.92742 0.02 0 0 0 1 2
3598 1 1.36421 -1.79996 0.02 0 0 0 1 2
3597 1 1.40234 -2.01454 0.02 0 0 0 1 2
3570 1 1.30247 -0.16898 0.02 0 0 0 1 2
3663 1 1.35172 -4.23847 0.02 0 0 0 1 2
3664 1 1.35418 -4.02919 0.02 0 0 0 1 2
3566 1 1.25131 0.248542 0.02 0 0 0 1 2
3567 1 1.25735 0.0361407 0.02 0 0 0 1 2
3568 1 1.44388 0.117407 0.02 0 0 0 1 2
3569 1 1.44061 0.319237 0.02 0 0 0 1 2
3656 1 1.22413 5.75729 0.02 0 0 0 1 2
3657 1 1.22786 5.96719 0.02 0 0 0 1 2
3574 1 1.24073 0.462919 0.02 0 0 0 1 2
3575 1 1.22851 0.669742 0.02 0 0 0 1 2
3576 1 1.22836 0.863721 0.02 0 0 0 1 2
3577 1 1.42824 0.518918 0.02 0 0 0 1 2
3578 1 1.44028 0.70789 0.02 0 0 0 1 2
3659 1 1.41932 5.98183 0.02 0 0 0 1 2
3632 1 1.36371 4.32089 0.02 0 0 0 1 2
3582 1 1.22167 1.054 0.02 0 0 0 1 2
3583 1 1.37449 1.24917 0.02 0 0 0 1 2
3651 1 1.37047 5.56371 0.02 0 0 0 1 2
3585 1 1.44925 0.88935 0.02 0 0 0 1 2
3586 1 1.43633 1.07154 0.02 0 0 0 1 2
3631 1 1.36636 4.11878 0.02 0 0 0 1 2
3650 1 1.35895 5.35448 0.02 0 0 0 1 2
3590 1 1.39255 1.43261 0.02 0 0 0 1 2
3591 1 1.38914 1.61539 0.02 0 0 0 1 2
3630 1 1.34493 3.92393 0.02 0 0 0 1 2
3658 1 1.41257 5.77292 0.02 0 0 0 1 2
3675 1 1.43066 6.56344 0.02 0 2.3453e-09 -2.85666e-08 1 2
3595 1 1.23915 1.795 0.02 0 0 0 1 2
3596 1 1.28225 2.08906 0.02 0 0 0 1 2
3597 1 1.41056 1.94073 0.02 0 0 0 1 2
3624 1 1.32659 3.73126 0.02 0 0 0 1 2
3623 1 1.29927 3.54263 0.02 0 0 0 1 2
3644 1 1.35053 4.93808 0.02 0 0 0 1 2
3666 1 1.43606 6.18478 0.02 0 4.97417e-12 -6.92563e-11 1 2
3645 1 1.36144 5.14618 0.02 0 0 0 1 2
3603 1 1.23547 2.4591 0.02 0 0 0 1 2
3604 1 1.26392 2.27317 0.02 0 0 0 1 2
3605 1 1.46987 2.28594 0.02 0 0 0 1 2
3606 1 1.45603 2.47229 0.02 0 0 0 1 2
3672 1 1.22057 6.75255 0.02 0 -9.67624e-19 8.84504e-19 1 2
3665 1 1.26056 6.37046 0.02 0 0 0 1 2
3609 1 1.27073 2.64545 0.02 0 0 0 1 2
3610 1 1.33183 2.82219 0.02 0 0 0 1 2
3611 1 1.32122 3.00191 0.02 0 0 0 1 2
3639 1 1.37563 4.7331 0.02 0 0 0 1 2
3664 1 1.24272 6.17155 0.02 0 0 0 1 2
3621 1 1.45586 3.34295 0.02 0 0 0 1 2
3667 1 1.46137 6.37889 0.02 0 2.07987e-09 -1.42936e-08 1 2
3673 1 1.2386 6.56326 0.02 0 -8.49025e-13 1.06797e-13 1 2
3674 1 1.42226 6.74797 0.02 0 -2.01348e-06 1.05782e-06 1 2
3618 1 1.23741 3.36529 0.02 0 0 0 1 2
3619 1 1.40476 3.16672 0.02 0 0 0 1 2
3638 1 1.36048 4.52537 0.02 0 0 0 1 2
1509 2 2 -10 0 0 0 0 1 5
1510 2 2.2 -10 0 0 0 0 1 5
1511 2 2.4 -10 0 0 0 0 1 5
1543 2 2 -9.8 0 0 0 0 1 5
1544 2 2.2 -9.8 0 0 0 0 1 5
1545 2 2.4 -9.8 0 0 0 0 1 5
1577 2 2 -9.6 0 0 0 0 1 5
1578 2 2.2 -9.6 0 0 0 0 1 5
1579 2 2.4 -9.6 0 0 0 0 1 5
1512 2 2.6 -10 0 0 0 0 1 5
1513 2 2.8 -10 0 0 0 0 1 5
1546 2 2.6 -9.8 0 0 0 0 1 5
1547 2 2.8 -9.8 0 0 0 0 1 5
1580 2 2.6 -9.6 0 0 0 0 1 5
1581 2 2.8 -9.6 0 0 0 0 1 5
1645 2 2 -9.2 0 0 0 0 1 5
1646 2 2.2 -9.2 0 0 0 0 1 5
1647 2 2.4 -9.2 0 0 0 0 1 5
1613 2 2.4 -9.4 0 0 0 0 1 5
1612 2 2.2 -9.4 0 0 0 0 1 5
1611 2 2 -9.4 0 0 0 0 1 5
1648 2 2.6 -9.2 0 0 0 0 1 5
1649 2 2.8 -9.2 0 0 0 0 1 5
1615 2 2.8 -9.4 0 0 0 0 1 5
1614 2 2.6 -9.4 0 0 0 0 1 5
1679 2 2 -9 0 0 0 0 1 5
1680 2 2.2 -9 0 0 0 0 1 5
1681 2 2.4 -9 0 0 0 0 1 5
1713 2 2 -8.8 0 0 0 0 1 5
1714 2 2.2 -8.8 0 0 0 0 1 5
1715 2 2.4 -8.8 0 0 0 0 1 5
1682 2 2.6 -9 0 0 0 0 1 5
1683 2 2.8 -9 0 0 0 0 1 5
1716 2 2.6 -8.8 0 0 0 0 1 5
1717 2 2.8 -8.8 0 0 0 0 1 5
1783 2 2.4 -8.4 0 0 0 0 1 5
1782 2 2.2 -8.4 0 0 0 0 1 5
1781 2 2 -8.4 0 0 0 0 1 5
1747 2 2 -8.6 0 0 0 0 1 5
1748 2 2.2 -8.6 0 0 0 0 1 5
1749 2 2.4 -8.6 0 0 0 0 1 5
1785 2 2.8 -8.4 0 0 0 0 1 5
1784 2 2.6 -8.4 0 0 0 0 1 5
1750 2 2.6 -8.6 0 0 0 0 1 5
1751 2 2.8 -8.6 0 0 0 0 1 5
1851 2 2.4 -8 0 0 0 0 1 5
1850 2 2.2 -8 0 0 0 0 1 5
1849 2 2 -8 0 0 0 0 1 5
1817 2 2.4 -8.2 0 0 0 0 1 5
1816 2 2.2 -8.2 0 0 0 0 1 5
1815 2 2 -8.2 0 0 0 0 1 5
1853 2 2.8 -8 0 0 0 0 1 5
1852 2 2.6 -8 0 0 0 0 1 5
1819 2 2.8 -8.2 0 0 0 0 1 5
1818 2 2.6 -8.2 0 0 0 0 1 5
1953 2 2.4 -7.4 0 0 0 0 1.00118 5
1952 2 2.2 -7.4 0 0 0 0 0.999858 5
1951 2 2 -7.4 0 0 0 0 1.00245 5
1919 2 2.4 -7.6 0 0 0 0 1 5
1918 2 2.2 -7.6 0 0 0 0 1 5
1917 2 2 -7.6 0 0 0 0 1 5
1885 2 2.4 -7.8 0 0 0 0 1 5
1884 2 2.2 -7.8 0 0 0 0 1 5
1883 2 2 -7.8 0 0 0 0 1 5
1955 2 2.8 -7.4 0 0 0 0 0.989895 5
1954 2 2.6 -7.4 0 0 0 0 1.00141 5
1921 2 2.8 -7.6 0 0 0 0 1 5
1920 2 2.6 -7.6 0 0 0 0 1 5
1887 2 2.8 -7.8 0 0 0 0 1 5
1886 2 2.6 -7.8 0 0 0 0 1 5
2021 2 2.4 -7 0 0 0 0 0.999609 5
2020 2 2.2 -7 0 0 0 0 0.99947 5
2019 2 2 -7 0 0 0 0 1.00155 5
1987 2 2.4 -7.2 0 0 0 0 1.00017 5
1986 2 2.2 -7.2 0 0 0 0 0.999069 5
1985 2 2 -7.2 0 0 0 0 1.00134 5
2023 2 2.8 -7 0 0 0 0 0.990602 5
2022 2 2.6 -7 0 0 0 0 0.997063 5
1989 2 2.8 -7.2 0 0 0 0 0.989693 5
1988 2 2.6 -7.2 0 0 0 0 0.997957 5
3739 1 2.23991 -6.5555 0.02 0 0.000204656 0.000456608 1 2
3737 1 2.23089 -6.7403 0.02 0 -0.00273251 -0.000465742 1 2
3736 1 2.03809 -6.74787 0.02 0 -0.00353359 -0.000506551 1 2
3738 1 2.0365 -6.55697 0.02 0 8.62102e-05 0.000287261 1 2
3627 1 1.8396 -6.73947 0.02 0 -0.00238997 -0.000541571 1 2
3629 1 1.83634 -6.55685 0.02 0 -3.82758e-05 4.97165e-05 1 2
3743 1 2.65906 -6.56898 0.02 0 0.000412786 0.000950917 1 2
3741 1 2.62568 -6.75011 0.02 0 -0.00244113 -0.000630735 1 2
3742 1 2.45064 -6.56028 0.02 0 0.000349824 0.000616958 1 2
3740 1 2.42488 -6.74105 0.02 0 -0.00262152 -0.00059876 1 2
3677 1 2.52643 -0.363371 0.02 0 0 0 1 2
3676 1 2.48456 -0.171225 0.02 0 0 0 1 2
3745 1 2.28363 -6.37473 0.02 0 9.5065e-05 0.000173877 1 2
3744 1 2.07787 -6.36827 0.02 0 5.11677e-05 0.000128149 1 2
3746 1 2.13921 -6.18388 0.02 0 4.16756e-06 1.28911e-05 1 2
3747 1 1.92365 -6.19087 0.02 0 1.33646e-06 5.86469e-06 1 2
3748 1 1.87236 -6.37223 0.02 0 1.10296e-05 5.53335e-05 1 2
3750 1 2.48975 -6.37712 0.02 0 0.000137766 0.000201809 1 2
3751 1 2.53987 -6.18031 0.02 0 2.99731e-06 1.96951e-05 1 2
3749 1 2.34465 -6.19169 0.02 0 7.38481e-06 1.77524e-05 1 2
3675 1 2.65823 -0.0370844 0.02 0 0 0 1 2
3678 1 2.31878 -0.354053 0.02 0 0 0 1 2
3755 1 1.94073 -5.81326 0.02 0 8.69464e-12 7.29468e-11 1 2
3754 1 1.94843 -6.00636 0.02 0 1.87786e-08 9.06992e-08 1 2
3753 1 2.13565 -5.79328 0.02 0 9.20602e-12 7.65001e-11 1 2
3752 1 2.15047 -5.99117 0.02 0 2.85261e-08 1.30099e-07 1 2
3757 1 2.34717 -5.99602 0.02 0 4.11134e-08 1.72462e-07 1 2
3759 1 2.52484 -5.76887 0.02 0 -4.65838e-12 2.50453e-11 1 2
3758 1 2.53794 -5.97428 0.02 0 -1.73435e-09 9.09513e-08 1 2
3756 1 2.3306 -5.79598 0.02 0 1.54981e-11 9.18863e-11 1 2
3681 1 1.87917 -0.0862266 0.02 0 0 0 1 2
3683 1 1.91941 -0.288944 0.02 0 0 0 1 2
3763 1 1.96181 -5.61669 0.02 0 0 0 1 2
3762 1 1.95207 -5.42149 0.02 0 0 0 1 2
3761 1 2.15126 -5.38986 0.02 0 0 0 1 2
3764 1 1.97407 -5.21784 0.02 0 0 0 1 2
3760 1 2.16049 -5.5913 0.02 0 0 0 1 2
3766 1 2.34998 -5.39389 0.02 0 0 0 1 2
3765 1 2.35594 -5.59471 0.02 0 0 0 1 2
3768 1 2.54346 -5.34795 0.02 0 0 0 1 2
3767 1 2.54524 -5.55776 0.02 0 0 0 1 2
3682 1 2.11719 -0.331528 0.02 0 0 0 1 2
3770 1 2.17645 -4.98438 0.02 0 0 0 1 2
3773 1 1.98019 -5.0103 0.02 0 0 0 1 2
3771 1 2.17043 -4.78992 0.02 0 0 0 1 2
3772 1 1.96855 -4.80652 0.02 0 0 0 1 2
3769 1 2.16613 -5.18566 0.02 0 0 0 1 2
3775 1 2.37118 -4.9831 0.02 0 0 0 1 2
3774 1 2.35977 -5.19123 0.02 0 0 0 1 2
3777 1 2.56198 -4.92841 0.02 0 0 0 1 2
3776 1 2.54886 -5.1382 0.02 0 0 0 1 2
3679 1 2.28207 -0.153058 0.02 0 0 0 1 2
3778 1 2.2101 -4.60371 0.02 0 0 0 1 2
3781 1 1.98969 -4.60761 0.02 0 0 0 1 2
3780 1 1.97163 -4.40798 0.02 0 0 0 1 2
3779 1 2.17173 -4.41899 0.02 0 0 0 1 2
3785 1 2.37453 -4.37613 0.02 0 0 0 1 2
3782 1 2.38024 -4.77674 0.02 0 0 0 1 2
3783 1 2.58755 -4.72603 0.02 0 0 0 1 2
3786 1 2.60491 -4.51845 0.02 0 0 0 1 2
3784 1 2.41328 -4.574 0.02 0 0 0 1 2
3788 1 1.95069 -4.21227 0.02 0 0 0 1 2
3790 1 2.12771 -4.03811 0.02 0 0 0 1 2
3789 1 2.16733 -4.2273 0.02 0 0 0 1 2
3787 1 1.93049 -4.01124 0.02 0 0 0 1 2
3793 1 2.36541 -4.17216 0.02 0 0 0 1 2
3792 1 2.31913 -3.97293 0.02 0 0 0 1 2
3794 1 2.55902 -4.12093 0.02 0 0 0 1 2
3791 1 2.57393 -4.31968 0.02 0 0 0 1 2
3795 1 2.51841 -3.92735 0.02 0 0 0 1 2
3800 1 1.91119 -3.59621 0.02 0 0 0 1 2
3796 1 1.92031 -3.80562 0.02 0 0 0 1 2
3797 1 2.11397 -3.83523 0.02 0 0 0 1 2
3799 1 2.27695 -3.55166 0.02 0 0 0 1 2
3801 1 2.29552 -3.76427 0.02 0 0 0 1 2
3798 1 2.09932 -3.62338 0.02 0 0 0 1 2
3803 1 2.46586 -3.52375 0.02 0 0 0 1 2
3802 1 2.4844 -3.73182 0.02 0 0 0 1 2
3680 1 2.08218 -0.126323 0.02 0 0 0 1 2
3807 1 2.23321 -3.13949 0.02 0 0 0 1 2
3806 1 2.052 -3.19077 0.02 0 0 0 1 2
3804 1 2.08118 -3.40602 0.02 0 0 0 1 2
3805 1 2.26496 -3.34347 0.02 0 0 0 1 2
3616 1 1.86594 -3.17336 0.02 0 0 0 1 2
3808 1 1.89087 -3.38537 0.02 0 0 0 1 2
3813 1 2.60411 -3.05434 0.02 0 -6.84667e-25 2.70735e-27 1 2
3812 1 2.42058 -3.10623 0.02 0 0 0 1 2
3811 1 2.64118 -3.25804 0.02 0 -2.11523e-23 -1.51258e-24 1 2
3810 1 2.45564 -3.31355 0.02 0 0 0 1 2
3809 1 2.65331 -3.46296 0.02 0 -1.18287e-23 2.99894e-24 1 2
3573 1 1.77335 -0.71216 0.02 0 0 0 1 2
3686 1 2.35661 -0.751709 0.02 0 0 0 1 2
3734 1 2.22465 -2.92908 0.02 0 0 0 1 2
3735 1 2.04416 -2.96546 0.02 0 0 0 1 2
3732 1 2.20394 -2.71578 0.02 0 0 0 1 2
3733 1 2.02181 -2.7379 0.02 0 0 0 1 2
3609 1 1.85987 -2.9649 0.02 0 0 0 1 2
3608 1 1.83678 -2.76044 0.02 0 0 0 1 2
3730 1 2.59137 -2.84534 0.02 0 0 0 1 2
3728 1 2.57212 -2.63629 0.02 0 0 0 1 2
3731 1 2.40716 -2.89028 0.02 0 0 0 1 2
3729 1 2.3869 -2.67692 0.02 0 0 0 1 2
3727 1 1.9988 -2.50471 0.02 0 0 0 1 2
3726 1 2.17309 -2.49502 0.02 0 0 0 1 2
3724 1 2.13177 -2.25982 0.02 0 0 0 1 2
3725 1 1.9601 -2.29092 0.02 0 0 0 1 2
3721 1 2.31146 -2.25267 0.02 0 0 0 1 2
3600 1 1.83048 -2.54769 0.02 0 0 0 1 2
3723 1 2.34843 -2.46631 0.02 0 0 0 1 2
3722 1 2.52627 -2.42565 0.02 0 0 0 1 2
3720 1 2.49501 -2.21565 0.02 0 0 0 1 2
3716 1 2.08023 -1.79905 0.02 0 0 0 1 2
3718 1 2.09964 -2.03153 0.02 0 0 0 1 2
3717 1 1.90807 -1.80931 0.02 0 0 0 1 2
3715 1 2.25673 -1.81653 0.02 0 0 0 1 2
3714 1 2.27796 -2.03651 0.02 0 0 0 1 2
3719 1 1.92814 -2.05314 0.02 0 0 0 1 2
3711 1 2.43588 -1.78915 0.02 0 0 0 1 2
3713 1 2.45666 -2.00435 0.02 0 0 0 1 2
3712 1 2.6394 -2.00514 0.02 0 -8.00053e-24 1.34461e-24 1 2
3710 1 2.61933 -1.78273 0.02 0 -4.58721e-24 -4.23027e-27 1 2
3580 1 1.80905 -0.924705 0.02 0 0 0 1 2
3595 1 1.75644 -2.0475 0.02 0 0 0 1 2
3705 1 2.23381 -1.59513 0.02 0 0 0 1 2
3708 1 2.0584 -1.55919 0.02 0 0 0 1 2
3706 1 2.06424 -1.33809 0.02 0 0 0 1 2
3704 1 2.25063 -1.37223 0.02 0 0 0 1 2
3707 1 1.876 -1.35274 0.02 0 0 0 1 2
3709 1 1.88286 -1.57733 0.02 0 0 0 1 2
3703 1 2.41593 -1.57383 0.02 0 0 0 1 2
3701 1 2.4407 -1.36153 0.02 0 0 0 1 2
3702 1 2.60455 -1.56828 0.02 0 -1.48595e-25 9.75846e-27 1 2
3700 1 2.63529 -1.36475 0.02 0 -1.94099e-24 1.23935e-25 1 2
3685 1 2.55809 -0.755384 0.02 0 0 0 1 2
3696 1 2.2371 -1.15842 0.02 0 0 0 1 2
3697 1 2.19871 -0.953623 0.02 0 0 0 1 2
3698 1 1.9993 -0.921676 0.02 0 0 0 1 2
3699 1 2.03772 -1.129 0.02 0 0 0 1 2
3579 1 1.84391 -1.13847 0.02 0 0 0 1 2
3694 1 2.62993 -1.15988 0.02 0 -7.02837e-27 4.76502e-28 1 2
3693 1 2.39863 -0.951258 0.02 0 0 0 1 2
3692 1 2.59911 -0.955712 0.02 0 0 0 1 2
3695 1 2.43355 -1.15374 0.02 0 0 0 1 2
3601 1 1.79009 -2.28323 0.02 0 0 0 1 2
3684 1 2.50381 -0.555943 0.02 0 0 0 1 2
3691 1 1.96156 -0.709913 0.02 0 0 0 1 2
3690 1 2.15693 -0.749101 0.02 0 0 0 1 2
3687 1 2.3027 -0.553847 0.02 0 0 0 1 2
3688 1 2.1098 -0.538252 0.02 0 0 0 1 2
3689 1 1.92178 -0.494397 0.02 0 0 0 1 2
3647 1 1.75636 -5.63481 0.02 0 0 0 1 2
3649 1 1.77913 -5.25215 0.02 0 0 0 1 2
3655 1 1.78282 -5.05423 0.02 0 0 0 1 2
3656 1 1.77177 -4.85734 0.02 0 0 0 1 2
3661 1 1.77824 -4.65796 0.02 0 0 0 1 2
3662 1 1.78079 -4.45934 0.02 0 0 0 1 2
3635 1 1.70528 -6.19565 0.02 0 7.8472e-08 4.86476e-07 1 2
3640 1 1.73657 -6.01437 0.02 0 9.80177e-10 5.44281e-09 1 2
3572 1 1.73597 -0.497279 0.02 0 0 0 1 2
3641 1 1.74536 -5.82674 0.02 0 0 0 1 2
3648 1 1.74697 -5.4444 0.02 0 0 0 1 2
3566 1 1.72455 -0.279581 0.02 0 0 0 1 2
3667 1 1.75078 -4.25389 0.02 0 0 0 1 2
3668 1 1.74164 -4.0439 0.02 0 0 0 1 2
3673 1 1.72959 -3.82931 0.02 0 0 0 1 2
3674 1 1.72357 -3.61592 0.02 0 0 0 1 2
3618 1 1.70312 -3.40386 0.02 0 0 0 1 2
3587 1 1.68807 -1.38626 0.02 0 0 0 1 2
3589 1 1.70586 -1.60129 0.02 0 0 0 1 2
3593 1 1.73343 -1.82247 0.02 0 0 0 1 2
3626 1 1.63028 -6.75274 0.02 0 -0.000428333 -0.000150864 1 2
3628 1 1.63801 -6.56746 0.02 0 -5.72247e-06 1.78655e-05 1 2
3634 1 1.6666 -6.37967 0.02 0 9.78115e-07 9.38385e-06 1 2
3581 1 1.62739 -0.952754 0.02 0 0 0 1 2
3568 1 1.67908 -0.0736053 0.02 0 0 0 1 2
3583 1 1.65859 -1.17441 0.02 0 0 0 1 2
3617 1 1.68217 -3.1875 0.02 0 0 0 1 2
3610 1 1.65248 -2.74263 0.02 0 0 0 1 2
3611 1 1.67491 -2.96695 0.02 0 0 0 1 2
3603 1 1.65825 -2.51656 0.02 0 0 0 1 2
3602 1 1.61757 -2.29317 0.02 0 0 0 1 2
3594 1 1.55189 -1.8337 0.02 0 0 0 1 2
3639 1 1.5512 -5.81749 0.02 0 0 0 1 2
3596 1 1.58184 -2.05646 0.02 0 0 0 1 2
3645 1 1.55174 -5.61599 0.02 0 0 0 1 2
3646 1 1.54715 -5.4168 0.02 0 0 0 1 2
3650 1 1.58449 -5.21823 0.02 0 0 0 1 2
3574 1 1.5531 -0.490861 0.02 0 0 0 1 2
3653 1 1.57511 -5.0226 0.02 0 0 0 1 2
3654 1 1.56887 -4.82892 0.02 0 0 0 1 2
3575 1 1.59061 -0.721559 0.02 0 0 0 1 2
3659 1 1.56836 -4.63613 0.02 0 0 0 1 2
3660 1 1.57966 -4.44357 0.02 0 0 0 1 2
3665 1 1.54885 -4.24977 0.02 0 0 0 1 2
3666 1 1.54924 -4.05169 0.02 0 0 0 1 2
3633 1 1.49303 -6.21248 0.02 0 8.89647e-11 5.31782e-10 1 2
3588 1 1.49372 -1.41162 0.02 0 0 0 1 2
3638 1 1.52647 -6.01924 0.02 0 0 0 1 2
3605 1 1.48516 -2.47537 0.02 0 0 0 1 2
3613 1 1.49699 -2.97591 0.02 0 0 0 1 2
3569 1 1.53023 -0.279188 0.02 0 0 0 1 2
3672 1 1.53569 -3.64617 0.02 0 0 0 1 2
3671 1 1.53759 -3.85087 0.02 0 0 0 1 2
3612 1 1.47648 -2.72777 0.02 0 0 0 1 2
3567 1 1.47969 -0.0803597 0.02 0 0 0 1 2
3590 1 1.52298 -1.62077 0.02 0 0 0 1 2
3620 1 1.51674 -3.43454 0.02 0 0 0 1 2
3619 1 1.50279 -3.21574 0.02 0 0 0 1 2
3682 1 2.27545 0.424518 0.02 0 0 0 1 2
3683 1 2.28392 0.239767 0.02 0 0 0 1 2
3684 1 2.25538 0.0483522 0.02 0 0 0 1 2
3681 1 2.07277 0.263441 0.02 0 0 0 1 2
3680 1 2.05292 0.0728882 0.02 0 0 0 1 2
3572 1 1.84994 0.11313 0.02 0 0 0 1 2
3573 1 1.85822 0.304659 0.02 0 0 0 1 2
3687 1 2.45797 0.027076 0.02 0 0 0 1 2
3686 1 2.50804 0.390141 0.02 0 0 0 1 2
3685 1 2.49694 0.209048 0.02 0 0 0 1 2
3688 1 2.04507 0.449729 0.02 0 0 0 1 2
3692 1 2.12756 0.803929 0.02 0 0 0 1 2
3690 1 2.11102 0.621961 0.02 0 0 0 1 2
3689 1 1.89713 0.667725 0.02 0 0 0 1 2
3581 1 1.83079 0.494776 0.02 0 0 0 1 2
3691 1 1.89402 0.847608 0.02 0 0 0 1 2
3696 1 2.58754 0.741419 0.02 0 -1.53722e-24 1.66995e-26 1 2
3694 1 2.53063 0.568264 0.02 0 0 0 1 2
3693 1 2.31995 0.602217 0.02 0 0 0 1 2
3695 1 2.36807 0.778231 0.02 0 0 0 1 2
454 2 2.6 9.6 0 0 0 0 1 5
3700 1 2.31062 0.949962 0.02 0 0 0 1 2
3701 1 2.27811 1.13114 0.02 0 0 0 1 2
3699 1 2.06612 1.17548 0.02 0 0 0 1 2
3698 1 2.08669 0.986432 0.02 0 0 0 1 2
3589 1 1.83437 1.21251 0.02 0 0 0 1 2
3697 1 1.87398 1.03141 0.02 0 0 0 1 2
3704 1 2.52472 1.27633 0.02 0 0 0 1 2
3703 1 2.49135 1.09719 0.02 0 0 0 1 2
3702 1 2.55837 0.923653 0.02 0 -4.32648e-27 -2.31244e-28 1 2
3705 1 2.2839 1.30888 0.02 0 0 0 1 2
3706 1 2.03392 1.35443 0.02 0 0 0 1 2
3710 1 2.14629 1.69123 0.02 0 0 0 1 2
3708 1 1.92832 1.72759 0.02 0 0 0 1 2
3709 1 2.11626 1.51303 0.02 0 0 0 1 2
3707 1 1.88366 1.55601 0.02 0 0 0 1 2
3714 1 2.56613 1.65156 0.02 0 0 0 1 2
3713 1 2.53327 1.4617 0.02 0 0 0 1 2
3711 1 2.32736 1.48195 0.02 0 0 0 1 2
3712 1 2.35935 1.66694 0.02 0 0 0 1 2
3717 1 2.14136 2.05599 0.02 0 0 0 1 2
3716 1 1.93419 2.09036 0.02 0 0 0 1 2
3715 1 1.90404 1.90837 0.02 0 0 0 1 2
3718 1 2.12899 1.87315 0.02 0 0 0 1 2
3721 1 2.55458 1.84173 0.02 0 -1.0066e-30 -2.1676e-32 1 2
3722 1 2.57636 2.02384 0.02 0 -2.11266e-29 1.41058e-30 1 2
3719 1 2.34493 1.8571 0.02 0 0 0 1 2
3720 1 2.35471 2.04436 0.02 0 0 0 1 2
3669 1 1.82 6.16008 0.02 0 5.88081e-08 -1.32335e-07 1 2
455 2 2.8 9.6 0 0 0 0 1 5
3726 1 2.09685 2.42845 0.02 0 0 0 1 2
3723 1 1.90932 2.27783 0.02 0 0 0 1 2
3725 1 2.13298 2.24256 0.02 0 0 0 1 2
3727 1 2.18243 2.59735 0.02 0 0 0 1 2
3724 1 1.88299 2.46478 0.02 0 0 0 1 2
3730 1 2.41071 2.57379 0.02 0 0 0 1 2
3733 1 2.62802 2.54765 0.02 0 -9.12684e-24 -4.06651e-25 1 2
3729 1 2.32021 2.41041 0.02 0 0 0 1 2
3732 1 2.5642 2.37968 0.02 0 -2.86578e-29 2.58914e-30 1 2
3731 1 2.57093 2.20367 0.02 0 -1.38234e-29 -4.78543e-31 1 2
3728 1 2.35437 2.22989 0.02 0 0 0 1 2
488 2 2.6 9.8 0 0 0 0 1 5
489 2 2.8 9.8 0 0 0 0 1 5
3736 1 2.03005 3.00089 0.02 0 0 0 1 2
3735 1 1.9948 2.8168 0.02 0 0 0 1 2
3738 1 2.24458 2.97012 0.02 0 0 0 1 2
3737 1 2.19846 2.78422 0.02 0 0 0 1 2
3734 1 1.95614 2.63585 0.02 0 0 0 1 2
3739 1 2.40113 2.76489 0.02 0 0 0 1 2
3741 1 2.60526 2.73639 0.02 0 -7.19725e-24 -1.80142e-24 1 2
3740 1 2.46224 2.94579 0.02 0 0 0 1 2
452 2 2.2 9.6 0 0 0 0 1 5
3743 1 2.0918 3.17991 0.02 0 0 0 1 2
3746 1 2.30667 3.1495 0.02 0 0 0 1 2
3744 1 1.90912 3.36707 0.02 0 0 0 1 2
3745 1 2.13566 3.36309 0.02 0 0 0 1 2
3742 1 1.87239 3.18752 0.02 0 0 0 1 2
3747 1 2.52412 3.12186 0.02 0 0 0 1 2
3748 1 2.34503 3.33611 0.02 0 0 0 1 2
3749 1 2.55108 3.30852 0.02 0 0 0 1 2
3750 1 1.97746 3.54172 0.02 0 0 0 1 2
3754 1 2.18513 3.55161 0.02 0 0 0 1 2
3753 1 1.949 3.91281 0.02 0 0 0 1 2
3751 1 1.93937 3.72344 0.02 0 0 0 1 2
3752 1 2.15567 3.74323 0.02 0 0 0 1 2
3757 1 2.36866 3.72591 0.02 0 0 0 1 2
3755 1 2.38424 3.52891 0.02 0 0 0 1 2
3758 1 2.56965 3.70801 0.02 0 0 0 1 2
3756 1 2.57907 3.5025 0.02 0 0 0 1 2
3762 1 1.94483 4.30914 0.02 0 0 0 1 2
3760 1 1.94008 4.10894 0.02 0 0 0 1 2
3761 1 2.13522 4.14407 0.02 0 0 0 1 2
3759 1 2.14512 3.94075 0.02 0 0 0 1 2
3768 1 2.52952 4.34147 0.02 0 0 0 1 2
3767 1 2.33484 4.31048 0.02 0 0 0 1 2
3765 1 2.33337 4.11372 0.02 0 0 0 1 2
3764 1 2.34314 3.91869 0.02 0 0 0 1 2
3766 1 2.53063 4.13137 0.02 0 0 0 1 2
3763 1 2.53831 3.91852 0.02 0 0 0 1 2
453 2 2.4 9.6 0 0 0 0 1 5
3770 1 1.9296 4.51034 0.02 0 0 0 1 2
3772 1 1.95668 4.7137 0.02 0 0 0 1 2
3773 1 2.1495 4.77088 0.02 0 0 0 1 2
3771 1 2.12273 4.5587 0.02 0 0 0 1 2
3769 1 2.13821 4.34974 0.02 0 0 0 1 2
3774 1 2.31151 4.51268 0.02 0 0 0 1 2
3777 1 2.5202 4.76373 0.02 0 0 0 1 2
3775 1 2.50094 4.55142 0.02 0 0 0 1 2
3776 1 2.33375 4.72408 0.02 0 0 0 1 2
485 2 2 9.8 0 0 0 0 1 5
451 2 2 9.6 0 0 0 0 1 5
3779 1 2.14622 4.98104 0.02 0 0 0 1 2
3781 1 2.12542 5.19051 0.02 0 0 0 1 2
3780 1 1.9415 5.11544 0.02 0 0 0 1 2
3778 1 1.95389 4.9146 0.02 0 0 0 1 2
3784 1 2.31645 5.1643 0.02 0 0 0 1 2
3782 1 2.33553 4.94548 0.02 0 0 0 1 2
3785 1 2.5096 5.17388 0.02 0 0 0 1 2
3783 1 2.52455 4.97065 0.02 0 0 0 1 2
486 2 2.2 9.8 0 0 0 0 1 5
3787 1 2.12841 5.39758 0.02 0 0 0 1 2
3789 1 2.13701 5.59984 0.02 0 0 0 1 2
3786 1 1.93992 5.32898 0.02 0 0 0 1 2
3788 1 1.9454 5.54493 0.02 0 0 0 1 2
3793 1 2.53007 5.58291 0.02 0 0 0 1 2
3791 1 2.51118 5.37901 0.02 0 0 0 1 2
3790 1 2.3204 5.37889 0.02 0 0 0 1 2
3792 1 2.33318 5.58885 0.02 0 0 0 1 2
3795 1 2.16749 5.79873 0.02 0 2.83909e-11 -1.22701e-10 1 2
3797 1 2.19715 5.99306 0.02 0 3.83517e-08 -1.23139e-07 1 2
3794 1 1.97339 5.76449 0.02 0 7.96991e-13 -3.7296e-12 1 2
3796 1 1.9948 5.97267 0.02 0 4.48087e-09 -1.52629e-08 1 2
3800 1 2.39983 5.99245 0.02 0 4.04557e-08 -1.13239e-07 1 2
3799 1 2.55886 5.78068 0.02 0 2.65257e-11 -7.41021e-11 1 2
3801 1 2.59896 5.97293 0.02 0 3.50488e-08 -5.84938e-08 1 2
3798 1 2.36301 5.79372 0.02 0 2.54533e-11 -1.03581e-10 1 2
3802 1 2.01328 6.17196 0.02 0 1.60809e-06 -3.44929e-06 1 2
3803 1 2.21211 6.18518 0.02 0 5.82543e-06 -1.18124e-05 1 2
3805 1 2.23962 6.37525 0.02 0 9.43321e-05 -0.000141258 1 2
3804 1 2.03959 6.36678 0.02 0 4.11277e-05 -8.21206e-05 1 2
3671 1 1.84502 6.36456 0.02 0 6.34261e-06 -2.81137e-05 1 2
3809 1 2.62771 6.35177 0.02 0 0.000124115 -0.000135145 1 2
3806 1 2.41423 6.18629 0.02 0 7.35639e-06 -1.31133e-05 1 2
3808 1 2.43702 6.37887 0.02 0 0.000116581 -0.000145121 1 2
3807 1 2.61903 6.1625 0.02 0 8.17711e-06 -1.0863e-05 1 2
3663 1 1.79971 5.95318 0.02 0 1.57433e-11 -5.74189e-11 1 2
3810 1 2.03402 6.555 0.02 0 5.79755e-05 -0.000355243 1 2
3812 1 2.02553 6.73939 0.02 0 -0.00327421 0.000561558 1 2
3811 1 2.23597 6.56166 0.02 0 0.000184708 -0.000493122 1 2
3813 1 2.22085 6.74625 0.02 0 -0.00297815 0.000556127 1 2
3676 1 1.82998 6.74883 0.02 0 -0.00240219 0.000494086 1 2
3678 1 1.83091 6.5602 0.02 0 -2.79269e-05 -8.61535e-05 1 2
3814 1 2.43501 6.56866 0.02 0 0.000227712 -0.000495783 1 2
3816 1 2.41743 6.75932 0.02 0 -0.00267715 0.000558184 1 2
3815 1 2.63428 6.5434 0.02 0 0.00012533 -0.00056931 1 2
3817 1 2.61132 6.72759 0.02 0 -0.00194679 0.0005374 1 2
3661 1 1.78487 5.74641 0.02 0 9.7621e-23 -4.85445e-22 1 2
9 2 2 7 0 0 0 0 1.00121 5
10 2 2.2 7 0 0 0 0 1.00029 5
11 2 2.4 7 0 0 0 0 0.998975 5
43 2 2 7.2 0 0 0 0 1.00073 5
44 2 2.2 7.2 0 0 0 0 1.00094 5
45 2 2.4 7.2 0 0 0 0 0.999132 5
47 2 2.8 7.2 0 0 0 0 0.98907 5
13 2 2.8 7 0 0 0 0 0.989118 5
46 2 2.6 7.2 0 0 0 0 0.994827 5
12 2 2.6 7 0 0 0 0 0.99526 5
78 2 2.2 7.4 0 0 0 0 1.00159 5
147 2 2.4 7.8 0 0 0 0 1 5
111 2 2 7.6 0 0 0 0 1 5
112 2 2.2 7.6 0 0 0 0 1 5
113 2 2.4 7.6 0 0 0 0 1 5
79 2 2.4 7.4 0 0 0 0 1.00097 5
146 2 2.2 7.8 0 0 0 0 1 5
145 2 2 7.8 0 0 0 0 1 5
77 2 2 7.4 0 0 0 0 1.00033 5
114 2 2.6 7.6 0 0 0 0 1 5
81 2 2.8 7.4 0 0 0 0 0.99009 5
115 2 2.8 7.6 0 0 0 0 1 5
80 2 2.6 7.4 0 0 0 0 0.992005 5
149 2 2.8 7.8 0 0 0 0 1 5
148 2 2.6 7.8 0 0 0 0 1 5
181 2 2.4 8 0 0 0 0 1 5
213 2 2 8.2 0 0 0 0 1 5
214 2 2.2 8.2 0 0 0 0 1 5
215 2 2.4 8.2 0 0 0 0 1 5
179 2 2 8 0 0 0 0 1 5
180 2 2.2 8 0 0 0 0 1 5
182 2 2.6 8 0 0 0 0 1 5
183 2 2.8 8 0 0 0 0 1 5
216 2 2.6 8.2 0 0 0 0 1 5
217 2 2.8 8.2 0 0 0 0 1 5
283 2 2.4 8.6 0 0 0 0 1 5
282 2 2.2 8.6 0 0 0 0 1 5
281 2 2 8.6 0 0 0 0 1 5
249 2 2.4 8.4 0 0 0 0 1 5
248 2 2.2 8.4 0 0 0 0 1 5
247 2 2 8.4 0 0 0 0 1 5
285 2 2.8 8.6 0 0 0 0 1 5
284 2 2.6 8.6 0 0 0 0 1 5
251 2 2.8 8.4 0 0 0 0 1 5
250 2 2.6 8.4 0 0 0 0 1 5
315 2 2 8.8 0 0 0 0 1 5
316 2 2.2 8.8 0 0 0 0 1 5
317 2 2.4 8.8 0 0 0 0 1 5
349 2 2 9 0 0 0 0 1 5
350 2 2.2 9 0 0 0 0 1 5
351 2 2.4 9 0 0 0 0 1 5
352 2 2.6 9 0 0 0 0 1 5
319 2 2.8 8.8 0 0 0 0 1 5
318 2 2.6 8.8 0 0 0 0 1 5
353 2 2.8 9 0 0 0 0 1 5
384 2 2.2 9.2 0 0 0 0 1 5
419 2 2.4 9.4 0 0 0 0 1 5
385 2 2.4 9.2 0 0 0 0 1 5
383 2 2 9.2 0 0 0 0 1 5
418 2 2.2 9.4 0 0 0 0 1 5
417 2 2 9.4 0 0 0 0 1 5
387 2 2.8 9.2 0 0 0 0 1 5
420 2 2.6 9.4 0 0 0 0 1 5
421 2 2.8 9.4 0 0 0 0 1 5
386 2 2.6 9.2 0 0 0 0 1 5
487 2 2.4 9.8 0 0 0 0 1 5
3594 1 1.81143 1.39351 0.02 0 0 0 1 2
3616 1 1.78312 2.8347 0.02 0 0 0 1 2
3617 1 1.80459 3.0143 0.02 0 0 0 1 2
3643 1 1.76277 4.74783 0.02 0 0 0 1 2
3600 1 1.71304 1.75512 0.02 0 0 0 1 2
3602 1 1.72948 2.11399 0.02 0 0 0 1 2
3607 1 1.68602 2.29933 0.02 0 0 0 1 2
3615 1 1.72304 2.66182 0.02 0 0 0 1 2
3627 1 1.72906 3.71823 0.02 0 0 0 1 2
3629 1 1.75098 3.53048 0.02 0 0 0 1 2
3637 1 1.74988 4.33224 0.02 0 0 0 1 2
3635 1 1.74755 4.12341 0.02 0 0 0 1 2
3633 1 1.74984 3.91581 0.02 0 0 0 1 2
3641 1 1.73933 4.5421 0.02 0 0 0 1 2
3647 1 1.75061 4.94967 0.02 0 0 0 1 2
3649 1 1.74919 5.15223 0.02 0 0 0 1 2
3653 1 1.74571 5.35231 0.02 0 0 0 1 2
3655 1 1.75077 5.54934 0.02 0 0 0 1 2
3570 1 1.64568 0.124572 0.02 0 0 0 1 2
3571 1 1.64655 0.317902 0.02 0 0 0 1 2
3579 1 1.62645 0.510413 0.02 0 0 0 1 2
3580 1 1.66696 0.693252 0.02 0 0 0 1 2
3584 1 1.67121 0.873854 0.02 0 0 0 1 2
3588 1 1.65688 1.05708 0.02 0 0 0 1 2
3593 1 1.6291 1.59427 0.02 0 0 0 1 2
3601 1 1.66885 1.93421 0.02 0 0 0 1 2
3670 1 1.65561 6.39175 0.02 0 5.92843e-07 -8.30237e-06 1 2
3668 1 1.63151 6.19205 0.02 0 1.16381e-10 -1.59745e-08 1 2
3608 1 1.67089 2.48497 0.02 0 0 0 1 2
3677 1 1.62938 6.7702 0.02 0 -0.0005144 0.000198431 1 2
3679 1 1.62892 6.58075 0.02 0 -7.96036e-06 9.82139e-07 1 2
3620 1 1.64568 3.17288 0.02 0 0 0 1 2
3622 1 1.67801 3.35522 0.02 0 0 0 1 2
3654 1 1.55989 5.56899 0.02 0 0 0 1 2
3640 1 1.55031 4.53451 0.02 0 0 0 1 2
3642 1 1.56853 4.74438 0.02 0 0 0 1 2
3652 1 1.55081 5.3574 0.02 0 0 0 1 2
3636 1 1.55768 4.32413 0.02 0 0 0 1 2
3634 1 1.5582 4.11408 0.02 0 0 0 1 2
3587 1 1.59975 1.2351 0.02 0 0 0 1 2
3592 1 1.60467 1.41749 0.02 0 0 0 1 2
3646 1 1.54864 4.94668 0.02 0 0 0 1 2
3660 1 1.60007 5.78227 0.02 0 0 0 1 2
3662 1 1.61102 5.99069 0.02 0 0 0 1 2
3648 1 1.55469 5.14967 0.02 0 0 0 1 2
3613 1 1.56059 2.82932 0.02 0 0 0 1 2
3614 1 1.56026 3.00882 0.02 0 0 0 1 2
3628 1 1.55045 3.90922 0.02 0 0 0 1 2
3598 1 1.48732 1.77422 0.02 0 0 0 1 2
3625 1 1.52031 3.52106 0.02 0 0 0 1 2
3599 1 1.51929 2.10225 0.02 0 0 0 1 2
3612 1 1.49047 2.65627 0.02 0 0 0 1 2
3626 1 1.52643 3.71117 0.02 0 0 0 1 2
1583 2 3.2 -9.6 0 0 0 0 1 5
1582 2 3 -9.6 0 0 0 0 1 5
1549 2 3.2 -9.8 0 0 0 0 1 5
1548 2 3 -9.8 0 0 0 0 1 5
1515 2 3.2 -10 0 0 0 0 1 5
1514 2 3 -10 0 0 0 0 1 5
1584 2 3.4 -9.6 0 0 0 0 1 5
1550 2 3.4 -9.8 0 0 0 0 1 5
1516 2 3.4 -10 0 0 0 0 1 5
1586 2 3.8 -9.6 0 0 0 0 1 5
1585 2 3.6 -9.6 0 0 0 0 1 5
1552 2 3.8 -9.8 0 0 0 0 1 5
1551 2 3.6 -9.8 0 0 0 0 1 5
1518 2 3.8 -10 0 0 0 0 1 5
1517 2 3.6 -10 0 0 0 0 1 5
1588 2 4.2 -9.6 0 0 0 0 1 5
1587 2 4 -9.6 0 0 0 0 1 5
1554 2 4.2 -9.8 0 0 0 0 1 5
1553 2 4 -9.8 0 0 0 0 1 5
1520 2 4.2 -10 0 0 0 0 1 5
1519 2 4 -10 0 0 0 0 1 5
1616 2 3 -9.4 0 0 0 0 1 5
1617 2 3.2 -9.4 0 0 0 0 1 5
1651 2 3.2 -9.2 0 0 0 0 1 5
1650 2 3 -9.2 0 0 0 0 1 5
1652 2 3.4 -9.2 0 0 0 0 1 5
1618 2 3.4 -9.4 0 0 0 0 1 5
1653 2 3.6 -9.2 0 0 0 0 1 5
1654 2 3.8 -9.2 0 0 0 0 1 5
1620 2 3.8 -9.4 0 0 0 0 1 5
1619 2 3.6 -9.4 0 0 0 0 1 5
1622 2 4.2 -9.4 0 0 0 0 1 5
1655 2 4 -9.2 0 0 0 0 1 5
1656 2 4.2 -9.2 0 0 0 0 1 5
1621 2 4 -9.4 0 0 0 0 1 5
1719 2 3.2 -8.8 0 0 0 0 1 5
1718 2 3 -8.8 0 0 0 0 1 5
1685 2 3.2 -9 0 0 0 0 1 5
1684 2 3 -9 0 0 0 0 1 5
1686 2 3.4 -9 0 0 0 0 1 5
1720 2 3.4 -8.8 0 0 0 0 1 5
1687 2 3.6 -9 0 0 0 0 1 5
1688 2 3.8 -9 0 0 0 0 1 5
1721 2 3.6 -8.8 0 0 0 0 1 5
1722 2 3.8 -8.8 0 0 0 0 1 5
1689 2 4 -9 0 0 0 0 1 5
1690 2 4.2 -9 0 0 0 0 1 5
1723 2 4 -8.8 0 0 0 0 1 5
1724 2 4.2 -8.8 0 0 0 0 1 5
1752 2 3 -8.6 0 0 0 0 1 5
1753 2 3.2 -8.6 0 0 0 0 1 5
1786 2 3 -8.4 0 0 0 0 1 5
1787 2 3.2 -8.4 0 0 0 0 1 5
1754 2 3.4 -8.6 0 0 0 0 1 5
1788 2 3.4 -8.4 0 0 0 0 1 5
1755 2 3.6 -8.6 0 0 0 0 1 5
1756 2 3.8 -8.6 0 0 0 0 1 5
1789 2 3.6 -8.4 0 0 0 0 1 5
1790 2 3.8 -8.4 0 0 0 0 1 5
1757 2 4 -8.6 0 0 0 0 1 5
1758 2 4.2 -8.6 0 0 0 0 1 5
1791 2 4 -8.4 0 0 0 0 1 5
1792 2 4.2 -8.4 0 0 0 0 1 5
1820 2 3 -8.2 0 0 0 0 1 5
1821 2 3.2 -8.2 0 0 0 0 1 5
1854 2 3 -8 0 0 0 0 1 5
1855 2 3.2 -8 0 0 0 0 1 5
1822 2 3.4 -8.2 0 0 0 0 1 5
1856 2 3.4 -8 0 0 0 0 1 5
1823 2 3.6 -8.2 0 0 0 0 1 5
1824 2 3.8 -8.2 0 0 0 0 1 5
1857 2 3.6 -8 0 0 0 0 1 5
1858 2 3.8 -8 0 0 0 0 1 5
1825 2 4 -8.2 0 0 0 0 1 5
1826 2 4.2 -8.2 0 0 0 0 1 5
1859 2 4 -8 0 0 0 0 1 5
1860 2 4.2 -8 0 0 0 0 1 5
1888 2 3 -7.8 0 0 0 0 1 5
1889 2 3.2 -7.8 0 0 0 0 1 5
1922 2 3 -7.6 0 0 0 0 1 5
1923 2 3.2 -7.6 0 0 0 0 1 5
1956 2 3 -7.4 0 0 0 0 1.01345 5
1957 2 3.2 -7.4 0 0 0 0 1.00224 5
1890 2 3.4 -7.8 0 0 0 0 1 5
1924 2 3.4 -7.6 0 0 0 0 1 5
1958 2 3.4 -7.4 0 0 0 0 1.00051 5
1891 2 3.6 -7.8 0 0 0 0 1 5
1892 2 3.8 -7.8 0 0 0 0 1 5
1925 2 3.6 -7.6 0 0 0 0 1 5
1926 2 3.8 -7.6 0 0 0 0 1 5
1959 2 3.6 -7.4 0 0 0 0 1.00098 5
1960 2 3.8 -7.4 0 0 0 0 0.999718 5
1893 2 4 -7.8 0 0 0 0 1 5
1894 2 4.2 -7.8 0 0 0 0 1 5
1927 2 4 -7.6 0 0 0 0 1 5
1928 2 4.2 -7.6 0 0 0 0 1 5
1961 2 4 -7.4 0 0 0 0 1.00191 5
1962 2 4.2 -7.4 0 0 0 0 1.00165 5
1990 2 3 -7.2 0 0 0 0 1.0107 5
1991 2 3.2 -7.2 0 0 0 0 1.00444 5
2024 2 3 -7 0 0 0 0 1.00817 5
2025 2 3.2 -7 0 0 0 0 1.00513 5
1992 2 3.4 -7.2 0 0 0 0 1.00011 5
2026 2 3.4 -7 0 0 0 0 1.00081 5
1993 2 3.6 -7.2 0 0 0 0 0.999684 5
1994 2 3.8 -7.2 0 0 0 0 0.999958 5
2027 2 3.6 -7 0 0 0 0 0.999796 5
2028 2 3.8 -7 0 0 0 0 1.00035 5
1995 2 4 -7.2 0 0 0 0 1.00205 5
1996 2 4.2 -7.2 0 0 0 0 0.999474 5
2029 2 4 -7 0 0 0 0 1.00159 5
2030 2 4.2 -7 0 0 0 0 0.998695 5
3431 1 3.77488 -6.545 0.0197801 0 0.000110163 0.000469133 1 2
3425 1 3.62212 -6.73853 0.02 0 -0.00337403 -0.000445846 1 2
3428 1 3.59639 -6.52885 0.02 0 0.000198255 0.000407299 1 2
3424 1 3.43191 -6.74071 0.02 0 -0.00222434 -0.000284522 1 2
3427 1 3.4198 -6.54387 0.02 0 0.000386412 0.000388637 1 2
3433 1 4.092 -6.73781 0.0161947 0 -0.00282014 -0.000597754 1 2
3435 1 4.15511 -6.55789 0.0197443 0 -0.000349878 0.000459732 1 2
3432 1 3.95872 -6.54222 0.0193962 0 -7.29901e-06 0.0003423 1 2
3430 1 3.9483 -6.73265 0.0165458 0 -0.00208208 -0.000316748 1 2
3429 1 3.79306 -6.73888 0.0168944 0 -0.0014325 -0.000237174 1 2
3359 1 3.2073 -1.05303 0.02 0 -6.09735e-21 4.34101e-21 1 2
3437 1 4.35624 -6.75403 0.0136 0 -0.00107411 -6.87855e-05 1 2
3436 1 4.3502 -6.5675 0.0197459 0 -0.00019791 0.000692772 1 2
3434 1 4.22723 -6.75088 0.0148842 0 -0.00308912 -0.000519612 1 2
3327 1 3.59188 -0.00100826 0.02 0 -9.53481e-19 -2.37645e-19 1 2
3444 1 3.77804 -6.33691 0.0199939 0 2.16988e-05 8.30148e-05 1 2
3443 1 3.61571 -6.10319 0.02 0 7.47365e-07 3.48224e-06 1 2
3442 1 3.601 -6.31438 0.02 0 4.55663e-05 7.30951e-05 1 2
3441 1 3.42608 -6.3224 0.02 0 8.30166e-05 8.81569e-05 1 2