ITEM: TIMESTEP
34000
ITEM: NUMBER OF ATOMS
1160
ITEM: BOX BOUNDS ff ff pp
0.0000000000000000e+00 4.4000000000000004e+00
-1.0000000000000000e+01 1.0000000000000000e+01
-2.0000000000000000e-02 2.0000000000000000e-02
ITEM: ATOMS id type x y vx vy fx fy c_den c_phase
1509 2 2 -10 0 0 0 0 1 5
1510 2 2.2 -10 0 0 0 0 1 5
1511 2 2.4 -10 0 0 0 0 1 5
1543 2 2 -9.8 0 0 0 0 1 5
1544 2 2.2 -9.8 0 0 0 0 1 5
1545 2 2.4 -9.8 0 0 0 0 1 5
1577 2 2 -9.6 0 0 0 0 1 5
1578 2 2.2 -9.6 0 0 0 0 1 5
1579 2 2.4 -9.6 0 0 0 0 1 5
1512 2 2.6 -10 0 0 0 0 1 5
1513 2 2.8 -10 0 0 0 0 1 5
1546 2 2.6 -9.8 0 0 0 0 1 5
1547 2 2.8 -9.8 0 0 0 0 1 5
1580 2 2.6 -9.6 0 0 0 0 1 5
1581 2 2.8 -9.6 0 0 0 0 1 5
1645 2 2 -9.2 0 0 0 0 1 5
1646 2 2.2 -9.2 0 0 0 0 1 5
1647 2 2.4 -9.2 0 0 0 0 1 5
1613 2 2.4 -9.4 0 0 0 0 1 5
1612 2 2.2 -9.4 0 0 0 0 1 5
1611 2 2 -9.4 0 0 0 0 1 5
1648 2 2.6 -9.2 0 0 0 0 1 5
1649 2 2.8 -9.2 0 0 0 0 1 5
1615 2 2.8 -9.4 0 0 0 0 1 5
1614 2 2.6 -9.4 0 0 0 0 1 5
1679 2 2 -9 0 0 0 0 1 5
1680 2 2.2 -9 0 0 0 0 1 5
1681 2 2.4 -9 0 0 0 0 1 5
1713 2 2 -8.8 0 0 0 0 1 5
1714 2 2.2 -8.8 0 0 0 0 1 5
1715 2 2.4 -8.8 0 0 0 0 1 5
1682 2 2.6 -9 0 0 0 0 1 5
1683 2 2.8 -9 0 0 0 0 1 5
1716 2 2.6 -8.8 0 0 0 0 1 5
1717 2 2.8 -8.8 0 0 0 0 1 5
1783 2 2.4 -8.4 0 0 0 0 1 5
1782 2 2.2 -8.4 0 0 0 0 1 5
1781 2 2 -8.4 0 0 0 0 1 5
1747 2 2 -8.6 0 0 0 0 1 5
1748 2 2.2 -8.6 0 0 0 0 1 5
1749 2 2.4 -8.6 0 0 0 0 1 5
1785 2 2.8 -8.4 0 0 0 0 1 5
1784 2 2.6 -8.4 0 0 0 0 1 5
1750 2 2.6 -8.6 0 0 0 0 1 5
1751 2 2.8 -8.6 0 0 0 0 1 5
1851 2 2.4 -8 0 0 0 0 1 5
1850 2 2.2 -8 0 0 0 0 1 5
1849 2 2 -8 0 0 0 0 1 5
1817 2 2.4 -8.2 0 0 0 0 1 5
1816 2 2.2 -8.2 0 0 0 0 1 5
1815 2 2 -8.2 0 0 0 0 1 5
1853 2 2.8 -8 0 0 0 0 1 5
1852 2 2.6 -8 0 0 0 0 1 5
1819 2 2.8 -8.2 0 0 0 0 1 5
1818 2 2.6 -8.2 0 0 0 0 1 5
1953 2 2.4 -7.4 0 0 0 0 1.00202 5
1952 2 2.2 -7.4 0 0 0 0 0.998721 5
1951 2 2 -7.4 0 0 0 0 0.999225 5
1919 2 2.4 -7.6 0 0 0 0 1 5
1918 2 2.2 -7.6 0 0 0 0 1 5
1917 2 2 -7.6 0 0 0 0 1 5
1885 2 2.4 -7.8 0 0 0 0 1 5
1884 2 2.2 -7.8 0 0 0 0 1 5
1883 2 2 -7.8 0 0 0 0 1 5
1955 2 2.8 -7.4 0 0 0 0 1.00118 5
1954 2 2.6 -7.4 0 0 0 0 1.00003 5
1921 2 2.8 -7.6 0 0 0 0 1 5
1920 2 2.6 -7.6 0 0 0 0 1 5
1887 2 2.8 -7.8 0 0 0 0 1 5
1886 2 2.6 -7.8 0 0 0 0 1 5
2021 2 2.4 -7 0 0 0 0 0.999939 5
2020 2 2.2 -7 0 0 0 0 0.999455 5
2019 2 2 -7 0 0 0 0 1.00063 5
1987 2 2.4 -7.2 0 0 0 0 1.00013 5
1986 2 2.2 -7.2 0 0 0 0 0.998929 5
1985 2 2 -7.2 0 0 0 0 0.999508 5
2023 2 2.8 -7 0 0 0 0 0.999896 5
2022 2 2.6 -7 0 0 0 0 0.999769 5
1989 2 2.8 -7.2 0 0 0 0 1.00039 5
1988 2 2.6 -7.2 0 0 0 0 0.999515 5
3627 1 2.2396 -6.73947 0.02 0 -0.00256482 -0.000424516 1 2
3629 1 2.23634 -6.55685 0.02 0 0.000202116 0.000382417 1 2
3626 1 2.03028 -6.75274 0.02 0 -0.00282695 -0.000322403 1 2
3628 1 2.03801 -6.56746 0.02 0 0.000221882 0.000575262 1 2
3623 1 1.81134 -6.76992 0.02 0 -0.00459208 -0.00173636 1 2
3625 1 1.83438 -6.58688 0.02 0 -7.71162e-05 0.000346103 1 2
3739 1 2.63991 -6.5555 0.02 0 0.000191058 0.000406401 1 2
3737 1 2.63089 -6.7403 0.02 0 -0.00254944 -0.000445028 1 2
3736 1 2.43809 -6.74787 0.02 0 -0.00291804 -0.000421061 1 2
3738 1 2.4365 -6.55697 0.02 0 0.000214945 0.00038046 1 2
3570 1 1.70247 -0.16898 0.02 0 0 0 1 2
3630 1 1.6587 -6.40681 0.02 0 6.10942e-06 3.07627e-06 1 2
3742 1 2.85064 -6.56028 0.02 0 0.000296928 0.000576763 1 2
3740 1 2.82488 -6.74105 0.02 0 -0.00266102 -0.000587343 1 2
3748 1 2.27236 -6.37223 0.02 0 8.84648e-05 0.000154764 1 2
3635 1 2.10528 -6.19565 0.02 0 4.31623e-06 1.46928e-05 1 2
3634 1 2.0666 -6.37967 0.02 0 6.83113e-05 0.000146979 1 2
3633 1 1.89303 -6.21248 0.02 0 1.69809e-06 8.1318e-06 1 2
3632 1 1.86334 -6.40373 0.02 0 2.21646e-05 0.000107571 1 2
3745 1 2.68363 -6.37473 0.02 0 9.1761e-05 0.000161493 1 2
3744 1 2.47787 -6.36827 0.02 0 8.87946e-05 0.000152648 1 2
3746 1 2.53921 -6.18388 0.02 0 6.06337e-06 1.46762e-05 1 2
3747 1 2.32365 -6.19087 0.02 0 6.94772e-06 1.76888e-05 1 2
3749 1 2.74465 -6.19169 0.02 0 7.05483e-06 1.67553e-05 1 2
3750 1 2.88975 -6.37712 0.02 0 0.000126775 0.000193169 1 2
3751 1 2.93987 -6.18031 0.02 0 2.4706e-06 1.92744e-05 1 2
3640 1 2.13657 -6.01437 0.02 0 5.88297e-08 2.74369e-07 1 2
3641 1 2.14536 -5.82674 0.02 0 8.03593e-11 5.02072e-10 1 2
3639 1 1.9512 -5.81749 0.02 0 3.78497e-11 2.08724e-10 1 2
3638 1 1.92647 -6.01924 0.02 0 2.23717e-08 1.19826e-07 1 2
3755 1 2.34073 -5.81326 0.02 0 4.01529e-11 2.06416e-10 1 2
3754 1 2.34843 -6.00636 0.02 0 6.05264e-08 2.4396e-07 1 2
3753 1 2.53565 -5.79328 0.02 0 1.0896e-11 6.90354e-11 1 2
3752 1 2.55047 -5.99117 0.02 0 3.07887e-08 1.27527e-07 1 2
3757 1 2.74717 -5.99602 0.02 0 3.79866e-08 1.61521e-07 1 2
3756 1 2.7306 -5.79598 0.02 0 1.31897e-11 8.65156e-11 1 2
3759 1 2.92484 -5.76887 0.02 0 -4.68254e-12 2.49971e-11 1 2
3758 1 2.93794 -5.97428 0.02 0 -2.04702e-09 9.04291e-08 1 2
3647 1 2.15636 -5.63481 0.02 0 0 0 1 2
3649 1 2.17913 -5.25215 0.02 0 0 0 1 2
3648 1 2.14697 -5.4444 0.02 0 0 0 1 2
3645 1 1.95174 -5.61599 0.02 0 0 0 1 2
3646 1 1.94715 -5.4168 0.02 0 0 0 1 2
3650 1 1.98449 -5.21823 0.02 0 0 0 1 2
3763 1 2.36181 -5.61669 0.02 0 0 0 1 2
3762 1 2.35207 -5.42149 0.02 0 0 0 1 2
3761 1 2.55126 -5.38986 0.02 0 0 0 1 2
3764 1 2.37407 -5.21784 0.02 0 0 0 1 2
3760 1 2.56049 -5.5913 0.02 0 0 0 1 2
3766 1 2.74998 -5.39389 0.02 0 0 0 1 2
3765 1 2.75594 -5.59471 0.02 0 0 0 1 2
3768 1 2.94346 -5.34795 0.02 0 0 0 1 2
3767 1 2.94524 -5.55776 0.02 0 0 0 1 2
3655 1 2.18282 -5.05423 0.02 0 0 0 1 2
3656 1 2.17177 -4.85734 0.02 0 0 0 1 2
3653 1 1.97511 -5.0226 0.02 0 0 0 1 2
3654 1 1.96887 -4.82892 0.02 0 0 0 1 2
3770 1 2.57645 -4.98438 0.02 0 0 0 1 2
3773 1 2.38019 -5.0103 0.02 0 0 0 1 2
3771 1 2.57043 -4.78992 0.02 0 0 0 1 2
3772 1 2.36855 -4.80652 0.02 0 0 0 1 2
3769 1 2.56613 -5.18566 0.02 0 0 0 1 2
3775 1 2.77118 -4.9831 0.02 0 0 0 1 2
3774 1 2.75977 -5.19123 0.02 0 0 0 1 2
3777 1 2.96198 -4.92841 0.02 0 0 0 1 2
3776 1 2.94886 -5.1382 0.02 0 0 0 1 2
3661 1 2.17824 -4.65796 0.02 0 0 0 1 2
3662 1 2.18079 -4.45934 0.02 0 0 0 1 2
3659 1 1.96836 -4.63613 0.02 0 0 0 1 2
3660 1 1.97966 -4.44357 0.02 0 0 0 1 2
3778 1 2.6101 -4.60371 0.02 0 0 0 1 2
3781 1 2.38969 -4.60761 0.02 0 0 0 1 2
3780 1 2.37163 -4.40798 0.02 0 0 0 1 2
3779 1 2.57173 -4.41899 0.02 0 0 0 1 2
3785 1 2.77453 -4.37613 0.02 0 0 0 1 2
3782 1 2.78024 -4.77674 0.02 0 0 0 1 2
3599 1 1.63522 -2.08011 0.02 0 0 0 1 2
3585 1 1.6497 -0.97904 0.02 0 0 0 1 2
3784 1 2.81328 -4.574 0.02 0 0 0 1 2
3667 1 2.15078 -4.25389 0.02 0 0 0 1 2
3668 1 2.14164 -4.0439 0.02 0 0 0 1 2
3665 1 1.94885 -4.24977 0.02 0 0 0 1 2
3666 1 1.94924 -4.05169 0.02 0 0 0 1 2
3788 1 2.35069 -4.21227 0.02 0 0 0 1 2
3790 1 2.52771 -4.03811 0.02 0 0 0 1 2
3789 1 2.56733 -4.2273 0.02 0 0 0 1 2
3787 1 2.33049 -4.01124 0.02 0 0 0 1 2
3793 1 2.76541 -4.17216 0.02 0 0 0 1 2
3792 1 2.71913 -3.97293 0.02 0 0 0 1 2
3794 1 2.95902 -4.12093 0.02 0 0 0 1 2
3791 1 2.97393 -4.31968 0.02 0 0 0 1 2
3795 1 2.91841 -3.92735 0.02 0 0 0 1 2
3673 1 2.12959 -3.82931 0.02 0 0 0 1 2
3674 1 2.12357 -3.61592 0.02 0 0 0 1 2
3672 1 1.93569 -3.64617 0.02 0 0 0 1 2
3671 1 1.93759 -3.85087 0.02 0 0 0 1 2
3800 1 2.31119 -3.59621 0.02 0 0 0 1 2
3796 1 2.32031 -3.80562 0.02 0 0 0 1 2
3797 1 2.51397 -3.83523 0.02 0 0 0 1 2
3799 1 2.67695 -3.55166 0.02 0 0 0 1 2
3801 1 2.69552 -3.76427 0.02 0 0 0 1 2
3798 1 2.49932 -3.62338 0.02 0 0 0 1 2
3803 1 2.86586 -3.52375 0.02 0 0 0 1 2
3802 1 2.8844 -3.73182 0.02 0 0 0 1 2
3616 1 2.26594 -3.17336 0.02 0 0 0 1 2
3618 1 2.10312 -3.40386 0.02 0 0 0 1 2
3617 1 2.08217 -3.1875 0.02 0 0 0 1 2
3620 1 1.91674 -3.43454 0.02 0 0 0 1 2
3619 1 1.90279 -3.21574 0.02 0 0 0 1 2
3807 1 2.63321 -3.13949 0.02 0 0 0 1 2
3806 1 2.452 -3.19077 0.02 0 0 0 1 2
3804 1 2.48118 -3.40602 0.02 0 0 0 1 2
3805 1 2.66496 -3.34347 0.02 0 0 0 1 2
3808 1 2.29087 -3.38537 0.02 0 0 0 1 2
3578 1 1.62416 -0.77638 0.02 0 0 0 1 2
3812 1 2.82058 -3.10623 0.02 0 0 0 1 2
3624 1 1.62318 -6.58073 0.02 0 -9.51204e-06 -6.08377e-06 1 2
3810 1 2.85564 -3.31355 0.02 0 0 0 1 2
3591 1 1.69282 -1.38585 0.02 0 0 0 1 2
3609 1 2.25987 -2.9649 0.02 0 0 0 1 2
3608 1 2.23678 -2.76044 0.02 0 0 0 1 2
3610 1 2.05248 -2.74263 0.02 0 0 0 1 2
3611 1 2.07491 -2.96695 0.02 0 0 0 1 2
3613 1 1.89699 -2.97591 0.02 0 0 0 1 2
3612 1 1.87648 -2.72777 0.02 0 0 0 1 2
3734 1 2.62465 -2.92908 0.02 0 0 0 1 2
3735 1 2.44416 -2.96546 0.02 0 0 0 1 2
3732 1 2.60394 -2.71578 0.02 0 0 0 1 2
3733 1 2.42181 -2.7379 0.02 0 0 0 1 2
3636 1 1.72059 -6.03472 0.02 0 1.50086e-08 1.87277e-08 1 2
3728 1 2.97212 -2.63629 0.02 0 0 0 1 2
3731 1 2.80716 -2.89028 0.02 0 0 0 1 2
3729 1 2.7869 -2.67692 0.02 0 0 0 1 2
3600 1 2.23048 -2.54769 0.02 0 0 0 1 2
3601 1 2.19009 -2.28323 0.02 0 0 0 1 2
3603 1 2.05825 -2.51656 0.02 0 0 0 1 2
3602 1 2.01757 -2.29317 0.02 0 0 0 1 2
3605 1 1.88516 -2.47537 0.02 0 0 0 1 2
3604 1 1.8436 -2.23608 0.02 0 0 0 1 2
3727 1 2.3988 -2.50471 0.02 0 0 0 1 2
3726 1 2.57309 -2.49502 0.02 0 0 0 1 2
3724 1 2.53177 -2.25982 0.02 0 0 0 1 2
3725 1 2.3601 -2.29092 0.02 0 0 0 1 2
3721 1 2.71146 -2.25267 0.02 0 0 0 1 2
3723 1 2.74843 -2.46631 0.02 0 0 0 1 2
3722 1 2.92627 -2.42565 0.02 0 0 0 1 2
3720 1 2.89501 -2.21565 0.02 0 0 0 1 2
3595 1 2.15644 -2.0475 0.02 0 0 0 1 2
3593 1 2.13343 -1.82247 0.02 0 0 0 1 2
3594 1 1.95189 -1.8337 0.02 0 0 0 1 2
3596 1 1.98184 -2.05646 0.02 0 0 0 1 2
3597 1 1.80234 -2.01454 0.02 0 0 0 1 2
3716 1 2.48023 -1.79905 0.02 0 0 0 1 2
3718 1 2.49964 -2.03153 0.02 0 0 0 1 2
3717 1 2.30807 -1.80931 0.02 0 0 0 1 2
3715 1 2.65673 -1.81653 0.02 0 0 0 1 2
3714 1 2.67796 -2.03651 0.02 0 0 0 1 2
3719 1 2.32814 -2.05314 0.02 0 0 0 1 2
3711 1 2.83588 -1.78915 0.02 0 0 0 1 2
3713 1 2.85666 -2.00435 0.02 0 0 0 1 2
3606 1 1.67502 -2.30563 0.02 0 0 0 1 2
3607 1 1.71319 -2.51928 0.02 0 0 0 1 2
3707 1 2.276 -1.35274 0.02 0 0 0 1 2
3709 1 2.28286 -1.57733 0.02 0 0 0 1 2
3587 1 2.08807 -1.38626 0.02 0 0 0 1 2
3589 1 2.10586 -1.60129 0.02 0 0 0 1 2
3588 1 1.89372 -1.41162 0.02 0 0 0 1 2
3590 1 1.92298 -1.62077 0.02 0 0 0 1 2
3705 1 2.63381 -1.59513 0.02 0 0 0 1 2
3708 1 2.4584 -1.55919 0.02 0 0 0 1 2
3706 1 2.46424 -1.33809 0.02 0 0 0 1 2
3704 1 2.65063 -1.37223 0.02 0 0 0 1 2
3703 1 2.81593 -1.57383 0.02 0 0 0 1 2
3701 1 2.8407 -1.36153 0.02 0 0 0 1 2
3614 1 1.69406 -2.72388 0.02 0 0 0 1 2
3615 1 1.71973 -2.92742 0.02 0 0 0 1 2
3580 1 2.20905 -0.924705 0.02 0 0 0 1 2
3579 1 2.24391 -1.13847 0.02 0 0 0 1 2
3581 1 2.02739 -0.952754 0.02 0 0 0 1 2
3583 1 2.05859 -1.17441 0.02 0 0 0 1 2
3582 1 1.84638 -1.00188 0.02 0 0 0 1 2
3584 1 1.87132 -1.20827 0.02 0 0 0 1 2
3696 1 2.6371 -1.15842 0.02 0 0 0 1 2
3697 1 2.59871 -0.953623 0.02 0 0 0 1 2
3698 1 2.3993 -0.921676 0.02 0 0 0 1 2
3699 1 2.43772 -1.129 0.02 0 0 0 1 2
3621 1 1.72962 -3.14391 0.02 0 0 0 1 2
3693 1 2.79863 -0.951258 0.02 0 0 0 1 2
3631 1 1.68518 -6.22242 0.02 0 8.72153e-07 7.36881e-07 1 2
3695 1 2.83355 -1.15374 0.02 0 0 0 1 2
3573 1 2.17335 -0.71216 0.02 0 0 0 1 2
3572 1 2.13597 -0.497279 0.02 0 0 0 1 2
3574 1 1.9531 -0.490861 0.02 0 0 0 1 2
3575 1 1.99061 -0.721559 0.02 0 0 0 1 2
3577 1 1.81834 -0.796888 0.02 0 0 0 1 2
3686 1 2.75661 -0.751709 0.02 0 0 0 1 2
3691 1 2.36156 -0.709913 0.02 0 0 0 1 2
3690 1 2.55693 -0.749101 0.02 0 0 0 1 2
3687 1 2.7027 -0.553847 0.02 0 0 0 1 2
3688 1 2.5098 -0.538252 0.02 0 0 0 1 2
3689 1 2.32178 -0.494397 0.02 0 0 0 1 2
3685 1 2.95809 -0.755384 0.02 0 0 0 1 2
3684 1 2.90381 -0.555943 0.02 0 0 0 1 2
3681 1 2.27917 -0.0862266 0.02 0 0 0 1 2
3566 1 2.12455 -0.279581 0.02 0 0 0 1 2
3568 1 2.07908 -0.0736053 0.02 0 0 0 1 2
3569 1 1.93023 -0.279188 0.02 0 0 0 1 2
3567 1 1.87969 -0.0803597 0.02 0 0 0 1 2
3678 1 2.71878 -0.354053 0.02 0 0 0 1 2
3683 1 2.31941 -0.288944 0.02 0 0 0 1 2
3682 1 2.51719 -0.331528 0.02 0 0 0 1 2
3679 1 2.68207 -0.153058 0.02 0 0 0 1 2
3680 1 2.48218 -0.126323 0.02 0 0 0 1 2
3677 1 2.92643 -0.363371 0.02 0 0 0 1 2
3676 1 2.88456 -0.171225 0.02 0 0 0 1 2
3586 1 1.6776 -1.18097 0.02 0 0 0 1 2
3637 1 1.75647 -5.84117 0.02 0 1.08447e-13 1.37524e-13 1 2
3571 1 1.75392 -0.372384 0.02 0 0 0 1 2
3642 1 1.75449 -5.6389 0.02 0 0 0 1 2
3643 1 1.74916 -5.43396 0.02 0 0 0 1 2
3576 1 1.78996 -0.587345 0.02 0 0 0 1 2
3644 1 1.7882 -5.23189 0.02 0 0 0 1 2
3651 1 1.76402 -5.03379 0.02 0 0 0 1 2
3652 1 1.76514 -4.83933 0.02 0 0 0 1 2
3592 1 1.73363 -1.58822 0.02 0 0 0 1 2
3658 1 1.77244 -4.44228 0.02 0 0 0 1 2
3598 1 1.76421 -1.79996 0.02 0 0 0 1 2
3657 1 1.76223 -4.64125 0.02 0 0 0 1 2
3664 1 1.75418 -4.02919 0.02 0 0 0 1 2
3663 1 1.75172 -4.23847 0.02 0 0 0 1 2
3670 1 1.75008 -3.5978 0.02 0 0 0 1 2
3669 1 1.74609 -3.81677 0.02 0 0 0 1 2
3622 1 1.73362 -3.3728 0.02 0 0 0 1 2
3572 1 2.24994 0.11313 0.02 0 0 0 1 2
3573 1 2.25822 0.304659 0.02 0 0 0 1 2
3570 1 2.04568 0.124572 0.02 0 0 0 1 2
3571 1 2.04655 0.317902 0.02 0 0 0 1 2
3568 1 1.84388 0.117407 0.02 0 0 0 1 2
3569 1 1.84061 0.319237 0.02 0 0 0 1 2
3682 1 2.67545 0.424518 0.02 0 0 0 1 2
3683 1 2.68392 0.239767 0.02 0 0 0 1 2
3684 1 2.65538 0.0483522 0.02 0 0 0 1 2
3681 1 2.47277 0.263441 0.02 0 0 0 1 2
3680 1 2.45292 0.0728882 0.02 0 0 0 1 2
3687 1 2.85797 0.027076 0.02 0 0 0 1 2
3686 1 2.90804 0.390141 0.02 0 0 0 1 2
3685 1 2.89694 0.209048 0.02 0 0 0 1 2
3581 1 2.23079 0.494776 0.02 0 0 0 1 2
3579 1 2.02645 0.510413 0.02 0 0 0 1 2
3580 1 2.06696 0.693252 0.02 0 0 0 1 2
3577 1 1.82824 0.518918 0.02 0 0 0 1 2
3578 1 1.84028 0.70789 0.02 0 0 0 1 2
3688 1 2.44507 0.449729 0.02 0 0 0 1 2
3692 1 2.52756 0.803929 0.02 0 0 0 1 2
3690 1 2.51102 0.621961 0.02 0 0 0 1 2
3689 1 2.29713 0.667725 0.02 0 0 0 1 2
3691 1 2.29402 0.847608 0.02 0 0 0 1 2
3693 1 2.71995 0.602217 0.02 0 0 0 1 2
3695 1 2.76807 0.778231 0.02 0 0 0 1 2
3567 1 1.65735 0.0361407 0.02 0 0 0 1 2
3694 1 2.93063 0.568264 0.02 0 0 0 1 2
3589 1 2.23437 1.21251 0.02 0 0 0 1 2
3697 1 2.27398 1.03141 0.02 0 0 0 1 2
3584 1 2.07121 0.873854 0.02 0 0 0 1 2
3588 1 2.05688 1.05708 0.02 0 0 0 1 2
3587 1 1.99975 1.2351 0.02 0 0 0 1 2
3585 1 1.84925 0.88935 0.02 0 0 0 1 2
3586 1 1.83633 1.07154 0.02 0 0 0 1 2
3700 1 2.71062 0.949962 0.02 0 0 0 1 2
3701 1 2.67811 1.13114 0.02 0 0 0 1 2
3699 1 2.46612 1.17548 0.02 0 0 0 1 2
3698 1 2.48669 0.986432 0.02 0 0 0 1 2
3704 1 2.92472 1.27633 0.02 0 0 0 1 2
3703 1 2.89135 1.09719 0.02 0 0 0 1 2
3702 1 2.95837 0.923653 0.02 0 0 0 1 2
3707 1 2.28366 1.55601 0.02 0 0 0 1 2
3594 1 2.21143 1.39351 0.02 0 0 0 1 2
3593 1 2.0291 1.59427 0.02 0 0 0 1 2
3592 1 2.00467 1.41749 0.02 0 0 0 1 2
3705 1 2.6839 1.30888 0.02 0 0 0 1 2
3706 1 2.43392 1.35443 0.02 0 0 0 1 2
3710 1 2.54629 1.69123 0.02 0 0 0 1 2
3708 1 2.32832 1.72759 0.02 0 0 0 1 2
3709 1 2.51626 1.51303 0.02 0 0 0 1 2
3711 1 2.72736 1.48195 0.02 0 0 0 1 2
3712 1 2.75935 1.66694 0.02 0 0 0 1 2
3714 1 2.96613 1.65156 0.02 0 0 0 1 2
3713 1 2.93327 1.4617 0.02 0 0 0 1 2
3600 1 2.11304 1.75512 0.02 0 0 0 1 2
3602 1 2.12948 2.11399 0.02 0 0 0 1 2
3601 1 2.06885 1.93421 0.02 0 0 0 1 2
3598 1 1.88732 1.77422 0.02 0 0 0 1 2
3599 1 1.91929 2.10225 0.02 0 0 0 1 2
3597 1 1.81056 1.94073 0.02 0 0 0 1 2
3717 1 2.54136 2.05599 0.02 0 0 0 1 2
3716 1 2.33419 2.09036 0.02 0 0 0 1 2
3715 1 2.30404 1.90837 0.02 0 0 0 1 2
3718 1 2.52899 1.87315 0.02 0 0 0 1 2
3719 1 2.74493 1.8571 0.02 0 0 0 1 2
3720 1 2.75471 2.04436 0.02 0 0 0 1 2
3721 1 2.95458 1.84173 0.02 0 0 0 1 2
3722 1 2.97636 2.02384 0.02 0 0 0 1 2
3724 1 2.28299 2.46478 0.02 0 0 0 1 2
3607 1 2.08602 2.29933 0.02 0 0 0 1 2
3608 1 2.07089 2.48497 0.02 0 0 0 1 2
3606 1 1.85603 2.47229 0.02 0 0 0 1 2
3605 1 1.86987 2.28594 0.02 0 0 0 1 2
3726 1 2.49685 2.42845 0.02 0 0 0 1 2
3723 1 2.30932 2.27783 0.02 0 0 0 1 2
3725 1 2.53298 2.24256 0.02 0 0 0 1 2
3727 1 2.58243 2.59735 0.02 0 0 0 1 2
3729 1 2.72021 2.41041 0.02 0 0 0 1 2
3728 1 2.75437 2.22989 0.02 0 0 0 1 2
3730 1 2.81071 2.57379 0.02 0 0 0 1 2
3574 1 1.64073 0.462919 0.02 0 0 0 1 2
3732 1 2.9642 2.37968 0.02 0 0 0 1 2
3731 1 2.97093 2.20367 0.02 0 0 0 1 2
3616 1 2.18312 2.8347 0.02 0 0 0 1 2
3617 1 2.20459 3.0143 0.02 0 0 0 1 2
3615 1 2.12304 2.66182 0.02 0 0 0 1 2
3613 1 1.96059 2.82932 0.02 0 0 0 1 2
3614 1 1.96026 3.00882 0.02 0 0 0 1 2
3612 1 1.89047 2.65627 0.02 0 0 0 1 2
3736 1 2.43005 3.00089 0.02 0 0 0 1 2
3735 1 2.3948 2.8168 0.02 0 0 0 1 2
3738 1 2.64458 2.97012 0.02 0 0 0 1 2
3737 1 2.59846 2.78422 0.02 0 0 0 1 2
3734 1 2.35614 2.63585 0.02 0 0 0 1 2
3739 1 2.80113 2.76489 0.02 0 0 0 1 2
3575 1 1.62851 0.669742 0.02 0 0 0 1 2
3740 1 2.86224 2.94579 0.02 0 0 0 1 2
3742 1 2.27239 3.18752 0.02 0 0 0 1 2
3620 1 2.04568 3.17288 0.02 0 0 0 1 2
3622 1 2.07801 3.35522 0.02 0 0 0 1 2
3619 1 1.80476 3.16672 0.02 0 0 0 1 2
3621 1 1.85586 3.34295 0.02 0 0 0 1 2
3743 1 2.4918 3.17991 0.02 0 0 0 1 2
3746 1 2.70667 3.1495 0.02 0 0 0 1 2
3744 1 2.30912 3.36707 0.02 0 0 0 1 2
3745 1 2.53566 3.36309 0.02 0 0 0 1 2
3748 1 2.74503 3.33611 0.02 0 0 0 1 2
3747 1 2.92412 3.12186 0.02 0 0 0 1 2
3749 1 2.95108 3.30852 0.02 0 0 0 1 2
3627 1 2.12906 3.71823 0.02 0 0 0 1 2
3629 1 2.15098 3.53048 0.02 0 0 0 1 2
3628 1 1.95045 3.90922 0.02 0 0 0 1 2
3625 1 1.92031 3.52106 0.02 0 0 0 1 2
3626 1 1.92643 3.71117 0.02 0 0 0 1 2
3750 1 2.37746 3.54172 0.02 0 0 0 1 2
3754 1 2.58513 3.55161 0.02 0 0 0 1 2
3753 1 2.349 3.91281 0.02 0 0 0 1 2
3751 1 2.33937 3.72344 0.02 0 0 0 1 2
3752 1 2.55567 3.74323 0.02 0 0 0 1 2
3757 1 2.76866 3.72591 0.02 0 0 0 1 2
3755 1 2.78424 3.52891 0.02 0 0 0 1 2
3758 1 2.96965 3.70801 0.02 0 0 0 1 2
3756 1 2.97907 3.5025 0.02 0 0 0 1 2
3637 1 2.14988 4.33224 0.02 0 0 0 1 2
3635 1 2.14755 4.12341 0.02 0 0 0 1 2
3633 1 2.14984 3.91581 0.02 0 0 0 1 2
3636 1 1.95768 4.32413 0.02 0 0 0 1 2
3634 1 1.9582 4.11408 0.02 0 0 0 1 2
3762 1 2.34483 4.30914 0.02 0 0 0 1 2
3760 1 2.34008 4.10894 0.02 0 0 0 1 2
3761 1 2.53522 4.14407 0.02 0 0 0 1 2
3759 1 2.54512 3.94075 0.02 0 0 0 1 2
3767 1 2.73484 4.31048 0.02 0 0 0 1 2
3765 1 2.73337 4.11372 0.02 0 0 0 1 2
3764 1 2.74314 3.91869 0.02 0 0 0 1 2
3768 1 2.92952 4.34147 0.02 0 0 0 1 2
3766 1 2.93063 4.13137 0.02 0 0 0 1 2
3763 1 2.93831 3.91852 0.02 0 0 0 1 2
3643 1 2.16277 4.74783 0.02 0 0 0 1 2
3641 1 2.13933 4.5421 0.02 0 0 0 1 2
3640 1 1.95031 4.53451 0.02 0 0 0 1 2
3642 1 1.96853 4.74438 0.02 0 0 0 1 2
3770 1 2.3296 4.51034 0.02 0 0 0 1 2
3772 1 2.35668 4.7137 0.02 0 0 0 1 2
3773 1 2.5495 4.77088 0.02 0 0 0 1 2
3771 1 2.52273 4.5587 0.02 0 0 0 1 2
3769 1 2.53821 4.34974 0.02 0 0 0 1 2
3774 1 2.71151 4.51268 0.02 0 0 0 1 2
3776 1 2.73375 4.72408 0.02 0 0 0 1 2
3777 1 2.9202 4.76373 0.02 0 0 0 1 2
3775 1 2.90094 4.55142 0.02 0 0 0 1 2
3647 1 2.15061 4.94967 0.02 0 0 0 1 2
3649 1 2.14919 5.15223 0.02 0 0 0 1 2
3646 1 1.94864 4.94668 0.02 0 0 0 1 2
3648 1 1.95469 5.14967 0.02 0 0 0 1 2
3779 1 2.54622 4.98104 0.02 0 0 0 1 2
3781 1 2.52542 5.19051 0.02 0 0 0 1 2
3780 1 2.3415 5.11544 0.02 0 0 0 1 2
3778 1 2.35389 4.9146 0.02 0 0 0 1 2
3784 1 2.71645 5.1643 0.02 0 0 0 1 2
3782 1 2.73553 4.94548 0.02 0 0 0 1 2
3785 1 2.9096 5.17388 0.02 0 0 0 1 2
3783 1 2.92455 4.97065 0.02 0 0 0 1 2
3653 1 2.14571 5.35231 0.02 0 0 0 1 2
3655 1 2.15077 5.54934 0.02 0 0 0 1 2
3654 1 1.95989 5.56899 0.02 0 0 0 1 2
3652 1 1.95081 5.3574 0.02 0 0 0 1 2
3787 1 2.52841 5.39758 0.02 0 0 0 1 2
3789 1 2.53701 5.59984 0.02 0 0 0 1 2
3786 1 2.33992 5.32898 0.02 0 0 0 1 2
3788 1 2.3454 5.54493 0.02 0 0 0 1 2
3790 1 2.7204 5.37889 0.02 0 0 0 1 2
3792 1 2.73318 5.58885 0.02 0 0 0 1 2
3793 1 2.93007 5.58291 0.02 0 0 0 1 2
3791 1 2.91118 5.37901 0.02 0 0 0 1 2
3663 1 2.19971 5.95318 0.02 0 9.63076e-09 -2.88009e-08 1 2
3661 1 2.18487 5.74641 0.02 0 8.20519e-13 -4.08024e-12 1 2
3660 1 2.00007 5.78227 0.02 0 5.43888e-12 -2.38579e-11 1 2
3662 1 2.01102 5.99069 0.02 0 1.25266e-08 -3.78608e-08 1 2
3659 1 1.81932 5.98183 0.02 0 4.62819e-10 -1.14588e-09 1 2
3658 1 1.81257 5.77292 0.02 0 0 0 1 2
3795 1 2.56749 5.79873 0.02 0 2.23253e-11 -9.39633e-11 1 2
3797 1 2.59715 5.99306 0.02 0 3.64525e-08 -1.15707e-07 1 2
3794 1 2.37339 5.76449 0.02 0 3.70673e-12 -1.7346e-11 1 2
3796 1 2.3948 5.97267 0.02 0 1.80381e-08 -5.05012e-08 1 2
3798 1 2.76301 5.79372 0.02 0 2.47725e-11 -1.0135e-10 1 2
3800 1 2.79983 5.99245 0.02 0 3.77406e-08 -1.05996e-07 1 2
3799 1 2.95886 5.78068 0.02 0 2.65057e-11 -7.40555e-11 1 2
3576 1 1.62836 0.863721 0.02 0 0 0 1 2
3669 1 2.22 6.16008 0.02 0 3.75248e-06 -7.88667e-06 1 2
3671 1 2.24502 6.36456 0.02 0 8.29653e-05 -0.000128914 1 2
3670 1 2.05561 6.39175 0.02 0 6.27582e-05 -0.000144883 1 2
3668 1 2.03151 6.19205 0.02 0 2.63033e-06 -5.45849e-06 1 2
3667 1 1.86137 6.37889 0.02 0 2.27707e-05 -7.38667e-05 1 2
3666 1 1.83606 6.18478 0.02 0 1.94316e-07 -8.41203e-07 1 2
3802 1 2.41328 6.17196 0.02 0 5.26748e-06 -1.03439e-05 1 2
3803 1 2.61211 6.18518 0.02 0 6.33334e-06 -1.19898e-05 1 2
3805 1 2.63962 6.37525 0.02 0 9.51403e-05 -0.000132929 1 2
3804 1 2.43959 6.36678 0.02 0 9.19723e-05 -0.000127384 1 2
3582 1 1.62167 1.054 0.02 0 0 0 1 2
3806 1 2.81423 6.18629 0.02 0 6.8901e-06 -1.22179e-05 1 2
3808 1 2.83702 6.37887 0.02 0 0.000107405 -0.000134467 1 2
3672 1 1.62057 6.75255 0.02 0 -0.000986281 0.000738381 1 2
3676 1 2.22998 6.74883 0.02 0 -0.00283326 0.00040632 1 2
3678 1 2.23091 6.5602 0.02 0 0.00015938 -0.000410382 1 2
3677 1 2.02938 6.7702 0.02 0 -0.00425812 0.000585313 1 2
3679 1 2.02892 6.58075 0.02 0 -4.40343e-05 -0.000285911 1 2
3674 1 1.82226 6.74797 0.02 0 -0.00272546 0.000736531 1 2
3675 1 1.83066 6.56344 0.02 0 2.51685e-05 -0.00018749 1 2
3810 1 2.43402 6.555 0.02 0 0.000212351 -0.000446526 1 2
3812 1 2.42553 6.73939 0.02 0 -0.00253182 0.000464916 1 2
3811 1 2.63597 6.56166 0.02 0 0.00017608 -0.000453223 1 2
3813 1 2.62085 6.74625 0.02 0 -0.0027657 0.000519436 1 2
3814 1 2.83501 6.56866 0.02 0 0.000182361 -0.000457874 1 2
3816 1 2.81743 6.75932 0.02 0 -0.00265765 0.000540415 1 2
3673 1 1.6386 6.56326 0.02 0 0.000102523 -7.17604e-05 1 2
3665 1 1.66056 6.37046 0.02 0 1.61394e-05 -1.61971e-05 1 2
9 2 2 7 0 0 0 0 1.00151 5
10 2 2.2 7 0 0 0 0 0.998298 5
11 2 2.4 7 0 0 0 0 0.999226 5
43 2 2 7.2 0 0 0 0 1.00149 5
44 2 2.2 7.2 0 0 0 0 0.99696 5
45 2 2.4 7.2 0 0 0 0 0.999021 5
47 2 2.8 7.2 0 0 0 0 0.999322 5
13 2 2.8 7 0 0 0 0 0.999241 5
46 2 2.6 7.2 0 0 0 0 1.00119 5
12 2 2.6 7 0 0 0 0 1.00048 5
78 2 2.2 7.4 0 0 0 0 0.994376 5
147 2 2.4 7.8 0 0 0 0 1 5
111 2 2 7.6 0 0 0 0 1 5
112 2 2.2 7.6 0 0 0 0 1 5
113 2 2.4 7.6 0 0 0 0 1 5
79 2 2.4 7.4 0 0 0 0 0.999763 5
146 2 2.2 7.8 0 0 0 0 1 5
145 2 2 7.8 0 0 0 0 1 5
77 2 2 7.4 0 0 0 0 1.00229 5
114 2 2.6 7.6 0 0 0 0 1 5
81 2 2.8 7.4 0 0 0 0 1.00096 5
115 2 2.8 7.6 0 0 0 0 1 5
80 2 2.6 7.4 0 0 0 0 1.00152 5
149 2 2.8 7.8 0 0 0 0 1 5
148 2 2.6 7.8 0 0 0 0 1 5
181 2 2.4 8 0 0 0 0 1 5
213 2 2 8.2 0 0 0 0 1 5
214 2 2.2 8.2 0 0 0 0 1 5
215 2 2.4 8.2 0 0 0 0 1 5
179 2 2 8 0 0 0 0 1 5
180 2 2.2 8 0 0 0 0 1 5
182 2 2.6 8 0 0 0 0 1 5
183 2 2.8 8 0 0 0 0 1 5
216 2 2.6 8.2 0 0 0 0 1 5
217 2 2.8 8.2 0 0 0 0 1 5
283 2 2.4 8.6 0 0 0 0 1 5
282 2 2.2 8.6 0 0 0 0 1 5
281 2 2 8.6 0 0 0 0 1 5
249 2 2.4 8.4 0 0 0 0 1 5
248 2 2.2 8.4 0 0 0 0 1 5
247 2 2 8.4 0 0 0 0 1 5
285 2 2.8 8.6 0 0 0 0 1 5
284 2 2.6 8.6 0 0 0 0 1 5
251 2 2.8 8.4 0 0 0 0 1 5
250 2 2.6 8.4 0 0 0 0 1 5
315 2 2 8.8 0 0 0 0 1 5
316 2 2.2 8.8 0 0 0 0 1 5
317 2 2.4 8.8 0 0 0 0 1 5
349 2 2 9 0 0 0 0 1 5
350 2 2.2 9 0 0 0 0 1 5
351 2 2.4 9 0 0 0 0 1 5
352 2 2.6 9 0 0 0 0 1 5
319 2 2.8 8.8 0 0 0 0 1 5
318 2 2.6 8.8 0 0 0 0 1 5
353 2 2.8 9 0 0 0 0 1 5
384 2 2.2 9.2 0 0 0 0 1 5
419 2 2.4 9.4 0 0 0 0 1 5
385 2 2.4 9.2 0 0 0 0 1 5
383 2 2 9.2 0 0 0 0 1 5
418 2 2.2 9.4 0 0 0 0 1 5
417 2 2 9.4 0 0 0 0 1 5
387 2 2.8 9.2 0 0 0 0 1 5
420 2 2.6 9.4 0 0 0 0 1 5
421 2 2.8 9.4 0 0 0 0 1 5
386 2 2.6 9.2 0 0 0 0 1 5
452 2 2.2 9.6 0 0 0 0 1 5
453 2 2.4 9.6 0 0 0 0 1 5
485 2 2 9.8 0 0 0 0 1 5
451 2 2 9.6 0 0 0 0 1 5
486 2 2.2 9.8 0 0 0 0 1 5
487 2 2.4 9.8 0 0 0 0 1 5
454 2 2.6 9.6 0 0 0 0 1 5
455 2 2.8 9.6 0 0 0 0 1 5
488 2 2.6 9.8 0 0 0 0 1 5
489 2 2.8 9.8 0 0 0 0 1 5
3583 1 1.77449 1.24917 0.02 0 0 0 1 2
3590 1 1.79255 1.43261 0.02 0 0 0 1 2
3591 1 1.78914 1.61539 0.02 0 0 0 1 2
3610 1 1.73183 2.82219 0.02 0 0 0 1 2
3632 1 1.76371 4.32089 0.02 0 0 0 1 2
3631 1 1.76636 4.11878 0.02 0 0 0 1 2
3630 1 1.74493 3.92393 0.02 0 0 0 1 2
3650 1 1.75895 5.35448 0.02 0 0 0 1 2
3651 1 1.77047 5.56371 0.02 0 0 0 1 2
3645 1 1.76144 5.14618 0.02 0 0 0 1 2
3644 1 1.75053 4.93808 0.02 0 0 0 1 2
3639 1 1.77563 4.7331 0.02 0 0 0 1 2
3638 1 1.76048 4.52537 0.02 0 0 0 1 2
3596 1 1.68225 2.08906 0.02 0 0 0 1 2
3604 1 1.66392 2.27317 0.02 0 0 0 1 2
3611 1 1.72122 3.00191 0.02 0 0 0 1 2
3623 1 1.69927 3.54263 0.02 0 0 0 1 2
3624 1 1.72659 3.73126 0.02 0 0 0 1 2
3609 1 1.67073 2.64545 0.02 0 0 0 1 2
3566 1 1.65131 0.248542 0.02 0 0 0 1 2
3664 1 1.64272 6.17155 0.02 0 8.25645e-08 -1.03195e-07 1 2
3618 1 1.63741 3.36529 0.02 0 0 0 1 2
3603 1 1.63547 2.4591 0.02 0 0 0 1 2
3657 1 1.62786 5.96719 0.02 0 0 0 1 2
3656 1 1.62413 5.75729 0.02 0 0 0 1 2
3595 1 1.63915 1.795 0.02 0 0 0 1 2
1583 2 3.2 -9.6 0 0 0 0 1 5
1582 2 3 -9.6 0 0 0 0 1 5
1549 2 3.2 -9.8 0 0 0 0 1 5
1548 2 3 -9.8 0 0 0 0 1 5
1515 2 3.2 -10 0 0 0 0 1 5
1514 2 3 -10 0 0 0 0 1 5
1584 2 3.4 -9.6 0 0 0 0 1 5
1550 2 3.4 -9.8 0 0 0 0 1 5
1516 2 3.4 -10 0 0 0 0 1 5
1586 2 3.8 -9.6 0 0 0 0 1 5
1585 2 3.6 -9.6 0 0 0 0 1 5
1552 2 3.8 -9.8 0 0 0 0 1 5
1551 2 3.6 -9.8 0 0 0 0 1 5
1518 2 3.8 -10 0 0 0 0 1 5
1517 2 3.6 -10 0 0 0 0 1 5
1588 2 4.2 -9.6 0 0 0 0 1 5
1587 2 4 -9.6 0 0 0 0 1 5
1554 2 4.2 -9.8 0 0 0 0 1 5
1553 2 4 -9.8 0 0 0 0 1 5
1520 2 4.2 -10 0 0 0 0 1 5
1519 2 4 -10 0 0 0 0 1 5
1616 2 3 -9.4 0 0 0 0 1 5
1617 2 3.2 -9.4 0 0 0 0 1 5
1651 2 3.2 -9.2 0 0 0 0 1 5
1650 2 3 -9.2 0 0 0 0 1 5
1652 2 3.4 -9.2 0 0 0 0 1 5
1618 2 3.4 -9.4 0 0 0 0 1 5
1653 2 3.6 -9.2 0 0 0 0 1 5
1654 2 3.8 -9.2 0 0 0 0 1 5
1620 2 3.8 -9.4 0 0 0 0 1 5
1619 2 3.6 -9.4 0 0 0 0 1 5
1622 2 4.2 -9.4 0 0 0 0 1 5
1655 2 4 -9.2 0 0 0 0 1 5
1656 2 4.2 -9.2 0 0 0 0 1 5
1621 2 4 -9.4 0 0 0 0 1 5
1719 2 3.2 -8.8 0 0 0 0 1 5
1718 2 3 -8.8 0 0 0 0 1 5
1685 2 3.2 -9 0 0 0 0 1 5
1684 2 3 -9 0 0 0 0 1 5
1686 2 3.4 -9 0 0 0 0 1 5
1720 2 3.4 -8.8 0 0 0 0 1 5
1687 2 3.6 -9 0 0 0 0 1 5
1688 2 3.8 -9 0 0 0 0 1 5
1721 2 3.6 -8.8 0 0 0 0 1 5
1722 2 3.8 -8.8 0 0 0 0 1 5
1689 2 4 -9 0 0 0 0 1 5
1690 2 4.2 -9 0 0 0 0 1 5
1723 2 4 -8.8 0 0 0 0 1 5
1724 2 4.2 -8.8 0 0 0 0 1 5
1752 2 3 -8.6 0 0 0 0 1 5
1753 2 3.2 -8.6 0 0 0 0 1 5
1786 2 3 -8.4 0 0 0 0 1 5
1787 2 3.2 -8.4 0 0 0 0 1 5
1754 2 3.4 -8.6 0 0 0 0 1 5
1788 2 3.4 -8.4 0 0 0 0 1 5
1755 2 3.6 -8.6 0 0 0 0 1 5
1756 2 3.8 -8.6 0 0 0 0 1 5
1789 2 3.6 -8.4 0 0 0 0 1 5
1790 2 3.8 -8.4 0 0 0 0 1 5
1757 2 4 -8.6 0 0 0 0 1 5
1758 2 4.2 -8.6 0 0 0 0 1 5
1791 2 4 -8.4 0 0 0 0 1 5
1792 2 4.2 -8.4 0 0 0 0 1 5
1820 2 3 -8.2 0 0 0 0 1 5
1821 2 3.2 -8.2 0 0 0 0 1 5
1854 2 3 -8 0 0 0 0 1 5
1855 2 3.2 -8 0 0 0 0 1 5
1822 2 3.4 -8.2 0 0 0 0 1 5
1856 2 3.4 -8 0 0 0 0 1 5
1823 2 3.6 -8.2 0 0 0 0 1 5
1824 2 3.8 -8.2 0 0 0 0 1 5
1857 2 3.6 -8 0 0 0 0 1 5
1858 2 3.8 -8 0 0 0 0 1 5
1825 2 4 -8.2 0 0 0 0 1 5
1826 2 4.2 -8.2 0 0 0 0 1 5
1859 2 4 -8 0 0 0 0 1 5
1860 2 4.2 -8 0 0 0 0 1 5
1888 2 3 -7.8 0 0 0 0 1 5
1889 2 3.2 -7.8 0 0 0 0 1 5
1922 2 3 -7.6 0 0 0 0 1 5
1923 2 3.2 -7.6 0 0 0 0 1 5
1956 2 3 -7.4 0 0 0 0 1.00141 5
1957 2 3.2 -7.4 0 0 0 0 0.989898 5
1890 2 3.4 -7.8 0 0 0 0 1 5
1924 2 3.4 -7.6 0 0 0 0 1 5
1958 2 3.4 -7.4 0 0 0 0 1.01545 5
1891 2 3.6 -7.8 0 0 0 0 1 5
1892 2 3.8 -7.8 0 0 0 0 1 5
1925 2 3.6 -7.6 0 0 0 0 1 5
1926 2 3.8 -7.6 0 0 0 0 1 5
1959 2 3.6 -7.4 0 0 0 0 1.00257 5
1960 2 3.8 -7.4 0 0 0 0 0.999348 5
1893 2 4 -7.8 0 0 0 0 1 5
1894 2 4.2 -7.8 0 0 0 0 1 5
1927 2 4 -7.6 0 0 0 0 1 5
1928 2 4.2 -7.6 0 0 0 0 1 5
1961 2 4 -7.4 0 0 0 0 1.00015 5
1962 2 4.2 -7.4 0 0 0 0 0.998167 5
1990 2 3 -7.2 0 0 0 0 0.997989 5
1991 2 3.2 -7.2 0 0 0 0 0.989711 5
2024 2 3 -7 0 0 0 0 0.997127 5
2025 2 3.2 -7 0 0 0 0 0.990703 5
1992 2 3.4 -7.2 0 0 0 0 1.01251 5
2026 2 3.4 -7 0 0 0 0 1.00956 5
1993 2 3.6 -7.2 0 0 0 0 1.00416 5
1994 2 3.8 -7.2 0 0 0 0 0.999605 5
2027 2 3.6 -7 0 0 0 0 1.00467 5
2028 2 3.8 -7 0 0 0 0 1.00038 5
1995 2 4 -7.2 0 0 0 0 1.00062 5
1996 2 4.2 -7.2 0 0 0 0 0.999056 5
2029 2 4 -7 0 0 0 0 1.00067 5
2030 2 4.2 -7 0 0 0 0 0.99885 5
3426 1 3.63683 -6.55135 0.02 0 -0.000542928 -0.000103687 1 2
3423 1 3.63987 -6.74606 0.02 0 -0.00417225 -5.89644e-05 1 2
3431 1 4.15985 -6.545 0.0198391 0 -0.000219242 0.000402765 1 2
3425 1 3.9664 -6.73853 0.0165072 0 -0.00185288 -0.000342638 1 2
3428 1 3.98964 -6.52885 0.0195103 0 6.08921e-05 0.000332382 1 2
3424 1 3.81011 -6.74071 0.0167808 0 -0.000634216 -8.73007e-05 1 2
3427 1 3.81821 -6.54387 0.0197612 0 0.000135249 0.00038828 1 2
3429 1 4.11344 -6.73888 0.016442 0 -0.00265986 -0.00049175 1 2
3433 1 4.38874 -6.73781 0.0157255 0 -0.00113107 -5.83763e-05 1 2
3675 1 3.05823 -0.0370844 0.02 0 -3.89934e-25 -2.16663e-27 1 2
3432 1 4.33907 -6.54222 0.0199159 0 -0.000143422 0.000675992 1 2
3430 1 4.26031 -6.73265 0.016371 0 -0.00244662 -0.000475932 1 2
3743 1 3.05906 -6.56898 0.02 0 0.000368312 0.000932279 1 2
3439 1 3.67339 -6.12486 0.02 0 4.38037e-06 4.55252e-06 1 2
3440 1 3.65072 -6.34641 0.02 0 1.81454e-05 2.09045e-05 1 2
3444 1 4.17478 -6.33691 0.0199998 0 1.65749e-05 0.000112877 1 2
3443 1 4.01545 -6.10319 0.0199991 0 1.84406e-06 9.19012e-06 1 2
3442 1 3.99982 -6.31438 0.0199632 0 2.73949e-05 8.11399e-05 1 2
3441 1 3.82596 -6.3224 0.019993 0 4.86521e-05 8.99402e-05 1 2
3446 1 4.19518 -6.12551 0.0199995 0 6.70279e-06 1.68292e-05 1 2
3361 1 3.626 -1.2436 0.02 0 -1.63258e-18 4.1981e-20 1 2
3360 1 3.83079 -1.2473 0.02 0 1.77677e-18 1.15887e-19 1 2
3445 1 4.35279 -6.34124 0.0199998 0 3.84867e-05 0.00020636 1 2
3447 1 4.3812 -6.14134 0.0199994 0 6.97594e-06 3.50709e-05 1 2
3458 1 3.67153 -5.65275 0.02 0 -7.08871e-09 6.53916e-10 1 2
3455 1 3.66521 -5.88435 0.02 0 2.00905e-09 4.27869e-08 1 2
3460 1 4.05292 -5.67751 0.0199999 0 6.10334e-09 6.29431e-08 1 2
3457 1 4.02325 -5.88612 0.0199997 0 2.35239e-07 7.32883e-07 1 2
3454 1 3.84056 -6.08372 0.0199998 0 4.88239e-07 4.45704e-06 1 2
3456 1 3.84154 -5.86482 0.0199999 0 4.219e-08 1.82493e-07 1 2
3459 1 3.8604 -5.65753 0.02 0 -2.91261e-09 1.59423e-08 1 2
3463 1 4.24516 -5.719 0.0199998 0 7.32947e-08 1.32042e-07 1 2
3461 1 4.20745 -5.91883 0.0199996 0 9.90302e-07 1.77643e-06 1 2
3358 1 3.82102 -1.05789 0.02 0 -1.01665e-18 -1.29944e-19 1 2
3462 1 4.39973 -5.94538 0.0199995 0 1.32756e-06 3.4757e-06 1 2
3464 1 4.44291 -5.75573 0.0199998 0 1.05451e-07 1.77889e-07 1 2
3342 1 3.80784 -0.518612 0.02 0 -7.60168e-19 5.86172e-20 1 2