ITEM: TIMESTEP
61000
ITEM: NUMBER OF ATOMS
1426
ITEM: BOX BOUNDS ff ff pp
0.0000000000000000e+00 4.4000000000000004e+00
-1.0000000000000000e+01 1.0000000000000000e+01
-2.0000000000000000e-02 2.0000000000000000e-02
ITEM: ATOMS id type x y vx vy fx fy c_den c_phase
5214 1 0.401879 -6.75103 0.02 0 0 0 1 2
5215 1 0.598001 -6.76478 0.02 0 0 0 1 2
5216 1 0.407382 -6.56461 0.02 0 0 0 1 2
5217 1 0.607988 -6.57203 0.02 0 0 0 1 2
5218 1 0.793637 -6.72967 0.02 0 0 0 1 2
5220 1 0.819491 -6.55761 0.02 0 0 0 1 2
5219 1 0.997759 -6.77955 0.02 0 0 0 1 2
5221 1 1.01839 -6.58151 0.02 0 0 0 1 2
5222 1 1.21903 -6.76313 0.02 0 0 0 1 2
5224 1 1.21689 -6.58016 0.02 0 0 0 1 2
5223 1 1.41907 -6.73379 0.02 0 -1.09635e-07 -7.08106e-08 1 2
5225 1 1.41931 -6.55034 0.02 0 2.1633e-13 2.12671e-10 1 2
5138 1 1.33929 -1.05563 0.02 0 0 0 1 2
5106 1 1.46221 -0.358352 0.02 0 0 0 1 2
5150 1 0.485124 -1.28906 0.02 0 0 0 1 2
5105 1 1.45393 -0.162154 0.02 0 0 0 1 2
5230 1 0.422645 -6.37867 0.02 0 0 0 1 2
5231 1 0.428631 -6.19455 0.02 0 0 0 1 2
5232 1 0.620749 -6.38701 0.02 0 0 0 1 2
5233 1 0.657533 -6.20618 0.02 0 0 0 1 2
5234 1 0.82927 -6.38021 0.02 0 0 0 1 2
5236 1 0.875467 -6.19941 0.02 0 0 0 1 2
5235 1 1.03284 -6.38326 0.02 0 0 0 1 2
5237 1 1.07806 -6.18549 0.02 0 0 0 1 2
5238 1 1.22577 -6.39432 0.02 0 0 0 1 2
5240 1 1.27345 -6.19539 0.02 0 0 0 1 2
5239 1 1.42216 -6.35838 0.02 0 1.39501e-14 3.04431e-10 1 2
5241 1 1.47049 -6.16162 0.02 0 3.50628e-12 4.24025e-11 1 2
5149 1 0.505178 -1.10874 0.02 0 0 0 1 2
5124 1 1.10209 -0.65809 0.02 0 0 0 1 2
5123 1 1.29706 -0.642088 0.02 0 0 0 1 2
5120 1 1.26647 -0.437431 0.02 0 0 0 1 2
5246 1 0.436774 -6.01156 0.02 0 0 0 1 2
5247 1 0.449411 -5.82135 0.02 0 0 0 1 2
5248 1 0.640808 -6.02146 0.02 0 0 0 1 2
5249 1 0.656679 -5.82821 0.02 0 0 0 1 2
5250 1 0.84489 -6.01249 0.02 0 0 0 1 2
5252 1 0.868504 -5.82207 0.02 0 0 0 1 2
5251 1 1.05044 -5.99312 0.02 0 0 0 1 2
5253 1 1.08417 -5.80529 0.02 0 0 0 1 2
5254 1 1.25784 -5.99713 0.02 0 0 0 1 2
5256 1 1.28772 -5.79812 0.02 0 0 0 1 2
5255 1 1.46135 -5.96557 0.02 0 0 0 1 2
5257 1 1.48762 -5.7706 0.02 0 0 0 1 2
5133 1 0.482636 -0.755088 0.02 0 0 0 1 2
5110 1 1.05734 -0.275458 0.02 0 0 0 1 2
5132 1 0.452044 -0.565146 0.02 0 0 0 1 2
5261 1 0.487735 -5.62226 0.02 0 0 0 1 2
5262 1 0.503143 -5.41693 0.02 0 0 0 1 2
5263 1 0.676272 -5.62507 0.02 0 0 0 1 2
5264 1 0.69141 -5.40769 0.02 0 0 0 1 2
5265 1 0.86666 -5.62812 0.02 0 0 0 1 2
5266 1 0.878332 -5.42473 0.02 0 0 0 1 2
5267 1 1.06533 -5.61507 0.02 0 0 0 1 2
5268 1 1.07022 -5.41754 0.02 0 0 0 1 2
5269 1 1.26939 -5.5998 0.02 0 0 0 1 2
5271 1 1.26223 -5.39761 0.02 0 0 0 1 2
5270 1 1.47319 -5.57637 0.02 0 0 0 1 2
5272 1 1.45451 -5.37873 0.02 0 0 0 1 2
5131 1 0.693143 -0.744506 0.02 0 0 0 1 2
5148 1 0.425847 -0.938433 0.02 0 0 0 1 2
5109 1 1.05943 -0.0796097 0.02 0 0 0 1 2
5276 1 0.495062 -5.21247 0.02 0 0 0 1 2
5277 1 0.501481 -5.00595 0.02 0 0 0 1 2
5278 1 0.506151 -4.79264 0.02 0 0 0 1 2
5279 1 0.684357 -5.19237 0.02 0 0 0 1 2
5280 1 0.687942 -4.97876 0.02 0 0 0 1 2
5281 1 0.871939 -5.21301 0.02 0 0 0 1 2
5282 1 0.875988 -5.00124 0.02 0 0 0 1 2
5283 1 0.879896 -4.79077 0.02 0 0 0 1 2
5284 1 1.063 -5.21522 0.02 0 0 0 1 2
5285 1 1.06512 -5.00797 0.02 0 0 0 1 2
5286 1 1.06701 -4.79197 0.02 0 0 0 1 2
5287 1 1.25643 -5.19114 0.02 0 0 0 1 2
5289 1 1.25408 -4.98309 0.02 0 0 0 1 2
5288 1 1.4536 -5.17698 0.02 0 0 0 1 2
5290 1 1.44598 -4.97307 0.02 0 0 0 1 2
5129 1 0.655347 -0.55326 0.02 0 0 0 1 2
5147 1 0.702523 -1.28735 0.02 0 0 0 1 2
5108 1 1.27183 -0.0351019 0.02 0 0 0 1 2
5145 1 0.734982 -1.10321 0.02 0 0 0 1 2
5107 1 1.25795 -0.234756 0.02 0 0 0 1 2
5296 1 0.531023 -4.56671 0.02 0 0 0 1 2
5297 1 0.691518 -4.76728 0.02 0 0 0 1 2
5298 1 0.718469 -4.56208 0.02 0 0 0 1 2
5301 1 0.725379 -4.3542 0.02 0 0 0 1 2
5299 1 0.906994 -4.58159 0.02 0 0 0 1 2
5300 1 0.908336 -4.36739 0.02 0 0 0 1 2
5302 1 1.25319 -4.77382 0.02 0 0 0 1 2
5304 1 1.0914 -4.56698 0.02 0 0 0 1 2
5305 1 1.27781 -4.56602 0.02 0 0 0 1 2
5307 1 1.27154 -4.35647 0.02 0 0 0 1 2
5303 1 1.44375 -4.7645 0.02 0 0 0 1 2
5306 1 1.46759 -4.55533 0.02 0 0 0 1 2
5128 1 0.857695 -0.531385 0.02 0 0 0 1 2
5116 1 0.432031 -0.374342 0.02 0 0 0 1 2
5143 1 0.649024 -0.932889 0.02 0 0 0 1 2
5115 1 0.425508 -0.183937 0.02 0 0 0 1 2
5312 1 0.545979 -4.33566 0.02 0 0 0 1 2
5313 1 0.533517 -4.11035 0.02 0 0 0 1 2
5314 1 0.719297 -4.14028 0.02 0 0 0 1 2
5317 1 0.723373 -3.93002 0.02 0 0 0 1 2
5315 1 0.907517 -4.15041 0.02 0 0 0 1 2
5316 1 0.919969 -3.93899 0.02 0 0 0 1 2
5319 1 1.08857 -4.3411 0.02 0 0 0 1 2
5320 1 1.09548 -4.12554 0.02 0 0 0 1 2
5321 1 1.284 -4.14303 0.02 0 0 0 1 2
5323 1 1.31367 -3.93464 0.02 0 0 0 1 2
5324 1 1.11804 -3.91968 0.02 0 0 0 1 2
5318 1 1.46039 -4.34635 0.02 0 0 0 1 2
5322 1 1.4755 -4.14135 0.02 0 0 0 1 2
5325 1 1.51128 -3.94175 0.02 0 0 0 1 2
5126 1 1.1023 -0.853378 0.02 0 0 0 1 2
5114 1 0.640885 -0.358137 0.02 0 0 0 1 2
5161 1 0.900525 -1.63365 0.02 0 0 0 1 2
5329 1 0.52661 -3.90146 0.02 0 0 0 1 2
5330 1 0.562327 -3.70395 0.02 0 0 0 1 2
5331 1 0.544324 -3.50919 0.02 0 0 0 1 2
5332 1 0.762672 -3.72787 0.02 0 0 0 1 2
5333 1 0.751209 -3.52483 0.02 0 0 0 1 2
5334 1 0.960035 -3.73352 0.02 0 0 0 1 2
5335 1 0.953684 -3.52944 0.02 0 0 0 1 2
5336 1 1.15844 -3.71775 0.02 0 0 0 1 2
5337 1 1.15558 -3.51801 0.02 0 0 0 1 2
5338 1 1.35592 -3.73377 0.02 0 0 0 1 2
5339 1 1.35733 -3.53307 0.02 0 0 0 1 2
5159 1 0.924097 -1.44213 0.02 0 0 0 1 2
5158 1 1.11633 -1.64028 0.02 0 0 0 1 2
5146 1 0.924061 -1.2545 0.02 0 0 0 1 2
5144 1 0.947243 -1.06708 0.02 0 0 0 1 2
5344 1 0.50401 -3.32091 0.02 0 0 0 1 2
5345 1 0.480387 -3.13344 0.02 0 0 0 1 2
5346 1 0.717272 -3.32802 0.02 0 0 0 1 2
5347 1 0.693976 -3.13712 0.02 0 0 0 1 2
5348 1 0.923735 -3.32974 0.02 0 0 0 1 2
5349 1 0.905806 -3.13265 0.02 0 0 0 1 2
5350 1 1.13258 -3.32568 0.02 0 0 0 1 2
5351 1 1.11523 -3.13511 0.02 0 0 0 1 2
5352 1 1.34888 -3.33858 0.02 0 0 0 1 2
5353 1 1.32404 -3.14724 0.02 0 0 0 1 2
5157 1 1.32847 -1.64589 0.02 0 0 0 1 2
5156 1 1.12588 -1.44478 0.02 0 0 0 1 2
5121 1 1.47858 -0.55788 0.02 0 0 0 1 2
5130 1 0.906148 -0.714121 0.02 0 0 0 1 2
5208 1 0.873132 -2.74438 0.02 0 0 0 1 2
5210 1 0.668182 -2.76179 0.02 0 0 0 1 2
5211 1 0.698956 -2.94882 0.02 0 0 0 1 2
5212 1 0.45828 -2.75815 0.02 0 0 0 1 2
5213 1 0.484477 -2.94538 0.02 0 0 0 1 2
5204 1 1.27813 -2.76321 0.02 0 0 0 1 2
5205 1 1.33232 -2.95514 0.02 0 0 0 1 2
5206 1 1.07565 -2.74972 0.02 0 0 0 1 2
5207 1 1.12004 -2.9438 0.02 0 0 0 1 2
5209 1 0.909591 -2.93779 0.02 0 0 0 1 2
5141 1 1.1332 -1.24562 0.02 0 0 0 1 2
5127 1 1.06034 -0.469058 0.02 0 0 0 1 2
5155 1 1.32908 -1.45502 0.02 0 0 0 1 2
5203 1 1.48557 -2.78166 0.02 0 0 0 1 2
5193 1 0.754244 -2.20027 0.02 0 0 0 1 2
5194 1 0.816656 -2.37455 0.02 0 0 0 1 2
5196 1 0.675564 -2.57231 0.02 0 0 0 1 2
5197 1 0.598472 -2.39668 0.02 0 0 0 1 2
5198 1 0.534273 -2.22121 0.02 0 0 0 1 2
5199 1 0.455026 -2.57124 0.02 0 0 0 1 2
5186 1 1.2011 -2.19311 0.02 0 0 0 1 2
5188 1 1.24525 -2.37971 0.02 0 0 0 1 2
5189 1 1.30488 -2.5705 0.02 0 0 0 1 2
5190 1 1.09704 -2.55343 0.02 0 0 0 1 2
5191 1 1.03091 -2.36322 0.02 0 0 0 1 2
5192 1 0.977959 -2.1794 0.02 0 0 0 1 2
5195 1 0.889389 -2.55211 0.02 0 0 0 1 2
5113 1 0.850752 -0.340669 0.02 0 0 0 1 2
5142 1 0.872412 -0.897504 0.02 0 0 0 1 2
5112 1 0.638265 -0.165014 0.02 0 0 0 1 2
5140 1 1.33285 -1.25908 0.02 0 0 0 1 2
5139 1 1.14457 -1.04387 0.02 0 0 0 1 2
5184 1 1.51138 -2.58908 0.02 0 0 0 1 2
5185 1 1.41604 -2.20415 0.02 0 0 0 1 2
5187 1 1.45602 -2.39606 0.02 0 0 0 1 2
5174 1 0.754335 -1.83786 0.02 0 0 0 1 2
5176 1 0.723537 -2.0199 0.02 0 0 0 1 2
5177 1 0.525931 -1.84793 0.02 0 0 0 1 2
5178 1 0.514324 -2.03422 0.02 0 0 0 1 2
5170 1 1.18725 -1.82671 0.02 0 0 0 1 2
5172 1 1.1631 -2.01135 0.02 0 0 0 1 2
5173 1 0.972206 -1.8133 0.02 0 0 0 1 2
5175 1 0.940693 -1.99759 0.02 0 0 0 1 2
5111 1 0.851182 -0.150124 0.02 0 0 0 1 2
5164 1 0.482049 -1.6625 0.02 0 0 0 1 2
5122 1 1.49333 -0.767769 0.02 0 0 0 1 2
5125 1 1.31129 -0.850583 0.02 0 0 0 1 2
5169 1 1.40184 -1.82556 0.02 0 0 0 1 2
5171 1 1.38408 -2.0155 0.02 0 0 0 1 2
5160 1 0.720406 -1.4745 0.02 0 0 0 1 2
5162 1 0.687494 -1.66249 0.02 0 0 0 1 2
5163 1 0.509653 -1.47339 0.02 0 0 0 1 2
5102 1 0.43008 0.00784958 0.02 0 0 0 1 2
5103 1 0.426542 0.20342 0.02 0 0 0 1 2
5104 1 0.409028 0.400532 0.02 0 0 0 1 2
5105 1 0.612186 0.420223 0.02 0 0 0 1 2
5106 1 0.636457 0.0290292 0.02 0 0 0 1 2
5107 1 0.843264 0.0421228 0.02 0 0 0 1 2
5108 1 0.630352 0.22482 0.02 0 0 0 1 2
5109 1 0.833318 0.24089 0.02 0 0 0 1 2
5110 1 1.04246 0.115019 0.02 0 0 0 1 2
5111 1 1.03066 0.311885 0.02 0 0 0 1 2
5112 1 1.24702 0.150107 0.02 0 0 0 1 2
5113 1 1.24892 0.337657 0.02 0 0 0 1 2
5114 1 1.45129 0.202356 0.02 0 0 0 1 2
5115 1 1.47282 0.387585 0.02 0 0 0 1 2
5116 1 1.50251 0.0241716 0.02 0 0 0 1 2
5329 1 0.948303 6.20081 0.02 0 0 0 1 2
5330 1 0.726279 6.40299 0.02 0 0 0 1 2
5328 1 0.727773 6.22473 0.02 0 0 0 1 2
5120 1 0.577134 0.61472 0.02 0 0 0 1 2
5121 1 0.563039 0.81746 0.02 0 0 0 1 2
5122 1 0.810967 0.443733 0.02 0 0 0 1 2
5123 1 0.775578 0.64725 0.02 0 0 0 1 2
5124 1 0.751751 0.853684 0.02 0 0 0 1 2
5125 1 1.00138 0.507445 0.02 0 0 0 1 2
5126 1 0.968933 0.70355 0.02 0 0 0 1 2
5127 1 1.20463 0.519094 0.02 0 0 0 1 2
5128 1 1.17217 0.71005 0.02 0 0 0 1 2
5129 1 1.36876 0.757192 0.02 0 0 0 1 2
5130 1 1.40422 0.565334 0.02 0 0 0 1 2
5318 1 1.15099 5.79945 0.02 0 0 0 1 2
5311 1 0.544724 5.85482 0.02 0 0 0 1 2
5347 1 1.14878 6.55119 0.02 0 0 0 1 2
5346 1 0.992261 6.73942 0.02 0 0 0 1 2
5135 1 0.454171 1.23142 0.02 0 0 0 1 2
5136 1 0.520923 1.02477 0.02 0 0 0 1 2
5137 1 0.710914 1.05738 0.02 0 0 0 1 2
5139 1 0.646822 1.25293 0.02 0 0 0 1 2
5141 1 0.84198 1.29651 0.02 0 0 0 1 2
5138 1 0.900764 1.10144 0.02 0 0 0 1 2
5140 1 0.940985 0.902173 0.02 0 0 0 1 2
5142 1 1.05254 1.2933 0.02 0 0 0 1 2
5143 1 1.14079 0.905063 0.02 0 0 0 1 2
5144 1 1.10105 1.10115 0.02 0 0 0 1 2
5145 1 1.33767 0.949846 0.02 0 0 0 1 2
5146 1 1.29763 1.1398 0.02 0 0 0 1 2
5147 1 1.50211 1.14393 0.02 0 0 0 1 2
5310 1 0.526151 5.67034 0.02 0 0 0 1 2
5344 1 0.951406 6.55907 0.02 0 0 0 1 2
5327 1 0.517552 6.38119 0.02 0 0 0 1 2
5151 1 0.423865 1.44734 0.02 0 0 0 1 2
5152 1 0.4001 1.6641 0.02 0 0 0 1 2
5153 1 0.614271 1.45538 0.02 0 0 0 1 2
5154 1 0.591525 1.66266 0.02 0 0 0 1 2
5155 1 0.805097 1.49772 0.02 0 0 0 1 2
5156 1 0.785787 1.7002 0.02 0 0 0 1 2
5157 1 0.987297 1.67923 0.02 0 0 0 1 2
5158 1 1.00792 1.48293 0.02 0 0 0 1 2
5159 1 1.26663 1.32449 0.02 0 0 0 1 2
5160 1 1.22015 1.50145 0.02 0 0 0 1 2
5161 1 1.19194 1.68446 0.02 0 0 0 1 2
5162 1 1.44723 1.51302 0.02 0 0 0 1 2
5163 1 1.40086 1.69305 0.02 0 0 0 1 2
5164 1 1.48581 1.33254 0.02 0 0 0 1 2
5326 1 0.489683 6.20677 0.02 0 0 0 1 2
5319 1 1.3482 5.77898 0.02 0 0 0 1 2
5317 1 0.960646 6.01458 0.02 0 0 0 1 2
5168 1 0.406569 1.88342 0.02 0 0 0 1 2
5169 1 0.451909 2.12947 0.02 0 0 0 1 2
5170 1 0.591297 1.87355 0.02 0 0 0 1 2
5171 1 0.785213 1.90348 0.02 0 0 0 1 2
5172 1 0.627759 2.08216 0.02 0 0 0 1 2
5173 1 0.816571 2.11354 0.02 0 0 0 1 2
5174 1 0.985594 1.87619 0.02 0 0 0 1 2
5175 1 1.00293 2.07661 0.02 0 0 0 1 2
5176 1 1.20208 1.86922 0.02 0 0 0 1 2
5177 1 1.19647 2.05637 0.02 0 0 0 1 2
5178 1 1.39501 2.07208 0.02 0 0 0 1 2
5179 1 1.4255 1.88107 0.02 0 0 0 1 2
5315 1 0.951819 5.82122 0.02 0 0 0 1 2
5316 1 0.753736 6.04612 0.02 0 0 0 1 2
5332 1 1.15574 6.18323 0.02 0 0 0 1 2
5345 1 0.80003 6.77117 0.02 0 0 0 1 2
5305 1 1.33556 5.57455 0.02 0 0 0 1 2
5185 1 0.496483 2.38837 0.02 0 0 0 1 2
5186 1 0.657034 2.29507 0.02 0 0 0 1 2
5187 1 0.669035 2.53955 0.02 0 0 0 1 2
5188 1 0.839961 2.33175 0.02 0 0 0 1 2
5189 1 0.842986 2.54629 0.02 0 0 0 1 2
5190 1 1.02037 2.28862 0.02 0 0 0 1 2
5191 1 1.02149 2.51709 0.02 0 0 0 1 2
5192 1 1.2081 2.25311 0.02 0 0 0 1 2
5193 1 1.19732 2.45639 0.02 0 0 0 1 2
5194 1 1.39935 2.27668 0.02 0 0 0 1 2
5195 1 1.38992 2.48301 0.02 0 0 0 1 2
5314 1 0.752051 5.85877 0.02 0 0 0 1 2
5343 1 0.757865 6.58209 0.02 0 0 0 1 2
5304 1 1.14241 5.60256 0.02 0 0 0 1 2
5342 1 0.600601 6.73547 0.02 0 0 0 1 2
5200 1 0.507145 2.61673 0.02 0 0 0 1 2
5201 1 0.551822 2.80835 0.02 0 0 0 1 2
5202 1 0.600094 3.01271 0.02 0 0 0 1 2
5203 1 0.729859 2.80179 0.02 0 0 0 1 2
5204 1 0.782532 3.02991 0.02 0 0 0 1 2
5205 1 0.896742 2.74907 0.02 0 0 0 1 2
5206 1 0.950844 2.96908 0.02 0 0 0 1 2
5207 1 1.07643 2.73941 0.02 0 0 0 1 2
5208 1 1.13084 2.95073 0.02 0 0 0 1 2
5209 1 1.24292 2.66214 0.02 0 0 0 1 2
5210 1 1.29805 2.88047 0.02 0 0 0 1 2
5211 1 1.4311 2.69538 0.02 0 0 0 1 2
5212 1 1.4816 2.91442 0.02 0 0 0 1 2
5313 1 0.743164 5.66704 0.02 0 0 0 1 2
5331 1 0.939051 6.37972 0.02 0 0 0 1 2
5350 1 1.37241 6.74849 0.02 0 -6.68018e-10 7.60766e-10 1 2
5216 1 0.417231 3.0467 0.02 0 0 0 1 2
5217 1 0.419857 3.25923 0.02 0 0 0 1 2
5218 1 0.456112 3.45817 0.02 0 0 0 1 2
5219 1 0.606142 3.22992 0.02 0 0 0 1 2
5220 1 0.794606 3.24171 0.02 0 0 0 1 2
5221 1 0.653849 3.4397 0.02 0 0 0 1 2
5222 1 0.850888 3.44286 0.02 0 0 0 1 2
5223 1 0.976627 3.20139 0.02 0 0 0 1 2
5224 1 1.04055 3.40885 0.02 0 0 0 1 2
5225 1 1.15625 3.15582 0.02 0 0 0 1 2
5226 1 1.22161 3.35279 0.02 0 0 0 1 2
5227 1 1.33785 3.11445 0.02 0 0 0 1 2
5228 1 1.40336 3.34758 0.02 0 0 0 1 2
5303 1 1.34638 5.36919 0.02 0 0 0 1 2
5302 1 1.14605 5.4032 0.02 0 0 0 1 2
5301 1 0.944807 5.62374 0.02 0 0 0 1 2
5341 1 0.401268 6.77591 0.02 0 0 0 1 2
5233 1 0.454567 3.65904 0.02 0 0 0 1 2
5234 1 0.478018 3.8584 0.02 0 0 0 1 2
5235 1 0.64831 3.64525 0.02 0 0 0 1 2
5236 1 0.844504 3.64778 0.02 0 0 0 1 2
5237 1 0.683465 3.84484 0.02 0 0 0 1 2
5238 1 0.890211 3.84482 0.02 0 0 0 1 2
5239 1 1.04013 3.61791 0.02 0 0 0 1 2
5240 1 1.2303 3.56692 0.02 0 0 0 1 2
5241 1 1.08862 3.81358 0.02 0 0 0 1 2
5242 1 1.27915 3.77574 0.02 0 0 0 1 2
5243 1 1.42086 3.57214 0.02 0 0 0 1 2
5244 1 1.47219 3.77951 0.02 0 0 0 1 2
5312 1 0.546456 6.03867 0.02 0 0 0 1 2
5321 1 1.35568 5.98486 0.02 0 0 0 1 2
5349 1 1.17868 6.74047 0.02 0 0 0 1 2
5348 1 1.35339 6.56689 0.02 0 0 0 1 2
5249 1 0.528164 4.0541 0.02 0 0 0 1 2
5250 1 0.508691 4.26103 0.02 0 0 0 1 2
5251 1 0.725957 4.04207 0.02 0 0 0 1 2
5253 1 0.703085 4.2461 0.02 0 0 0 1 2
5252 1 0.921842 4.04592 0.02 0 0 0 1 2
5254 1 0.903606 4.24647 0.02 0 0 0 1 2
5255 1 1.11417 4.01428 0.02 0 0 0 1 2
5256 1 1.30598 3.98652 0.02 0 0 0 1 2
5257 1 1.10677 4.21783 0.02 0 0 0 1 2
5258 1 1.30998 4.19141 0.02 0 0 0 1 2
5259 1 1.50176 3.98166 0.02 0 0 0 1 2
5320 1 1.16243 5.99317 0.02 0 0 0 1 2
5300 1 0.945222 5.42278 0.02 0 0 0 1 2
5340 1 0.550558 6.55864 0.02 0 0 0 1 2
5263 1 0.529698 4.67827 0.02 0 0 0 1 2
5264 1 0.562026 4.46434 0.02 0 0 0 1 2
5265 1 0.762737 4.44368 0.02 0 0 0 1 2
5266 1 0.725495 4.64373 0.02 0 0 0 1 2
5267 1 0.92697 4.63595 0.02 0 0 0 1 2
5268 1 0.967387 4.43731 0.02 0 0 0 1 2
5269 1 1.16733 4.4106 0.02 0 0 0 1 2
5270 1 1.36801 4.38407 0.02 0 0 0 1 2
5271 1 1.12994 4.61454 0.02 0 0 0 1 2
5272 1 1.33359 4.58199 0.02 0 0 0 1 2
5273 1 1.32739 4.77922 0.02 0 0 0 1 2
5298 1 0.947641 5.22476 0.02 0 0 0 1 2
5299 1 0.751139 5.46734 0.02 0 0 0 1 2
5297 1 0.747865 5.26002 0.02 0 0 0 1 2
5296 1 0.547461 5.29293 0.02 0 0 0 1 2
5295 1 0.552248 5.4855 0.02 0 0 0 1 2
5335 1 1.35796 6.38264 0.02 0 0 0 1 2
5280 1 0.531105 5.09763 0.02 0 0 0 1 2
5281 1 0.542758 4.89028 0.02 0 0 0 1 2
5282 1 0.731809 4.84638 0.02 0 0 0 1 2
5284 1 0.728706 5.05475 0.02 0 0 0 1 2
5283 1 0.930289 4.83495 0.02 0 0 0 1 2
5285 1 0.929677 5.03095 0.02 0 0 0 1 2
5286 1 1.12997 4.81574 0.02 0 0 0 1 2
5287 1 1.13858 5.01149 0.02 0 0 0 1 2
5288 1 1.34793 4.97452 0.02 0 0 0 1 2
5289 1 1.15128 5.20571 0.02 0 0 0 1 2
5290 1 1.3539 5.16916 0.02 0 0 0 1 2
5333 1 1.35528 6.18731 0.02 0 0 0 1 2
5334 1 1.15608 6.36815 0.02 0 0 0 1 2
1509 2 2 -10 0 0 0 0 1 5
1510 2 2.2 -10 0 0 0 0 1 5
1511 2 2.4 -10 0 0 0 0 1 5
1543 2 2 -9.8 0 0 0 0 1 5
1544 2 2.2 -9.8 0 0 0 0 1 5
1545 2 2.4 -9.8 0 0 0 0 1 5
1577 2 2 -9.6 0 0 0 0 1 5
1578 2 2.2 -9.6 0 0 0 0 1 5
1579 2 2.4 -9.6 0 0 0 0 1 5
1512 2 2.6 -10 0 0 0 0 1 5
1513 2 2.8 -10 0 0 0 0 1 5
1546 2 2.6 -9.8 0 0 0 0 1 5
1547 2 2.8 -9.8 0 0 0 0 1 5
1580 2 2.6 -9.6 0 0 0 0 1 5
1581 2 2.8 -9.6 0 0 0 0 1 5
1645 2 2 -9.2 0 0 0 0 1 5
1646 2 2.2 -9.2 0 0 0 0 1 5
1647 2 2.4 -9.2 0 0 0 0 1 5
1613 2 2.4 -9.4 0 0 0 0 1 5
1612 2 2.2 -9.4 0 0 0 0 1 5
1611 2 2 -9.4 0 0 0 0 1 5
1648 2 2.6 -9.2 0 0 0 0 1 5
1649 2 2.8 -9.2 0 0 0 0 1 5
1615 2 2.8 -9.4 0 0 0 0 1 5
1614 2 2.6 -9.4 0 0 0 0 1 5
1679 2 2 -9 0 0 0 0 1 5
1680 2 2.2 -9 0 0 0 0 1 5
1681 2 2.4 -9 0 0 0 0 1 5
1713 2 2 -8.8 0 0 0 0 1 5
1714 2 2.2 -8.8 0 0 0 0 1 5
1715 2 2.4 -8.8 0 0 0 0 1 5
1682 2 2.6 -9 0 0 0 0 1 5
1683 2 2.8 -9 0 0 0 0 1 5
1716 2 2.6 -8.8 0 0 0 0 1 5
1717 2 2.8 -8.8 0 0 0 0 1 5
1783 2 2.4 -8.4 0 0 0 0 1 5
1782 2 2.2 -8.4 0 0 0 0 1 5
1781 2 2 -8.4 0 0 0 0 1 5
1747 2 2 -8.6 0 0 0 0 1 5
1748 2 2.2 -8.6 0 0 0 0 1 5
1749 2 2.4 -8.6 0 0 0 0 1 5
1785 2 2.8 -8.4 0 0 0 0 1 5
1784 2 2.6 -8.4 0 0 0 0 1 5
1750 2 2.6 -8.6 0 0 0 0 1 5
1751 2 2.8 -8.6 0 0 0 0 1 5
1851 2 2.4 -8 0 0 0 0 1 5
1850 2 2.2 -8 0 0 0 0 1 5
1849 2 2 -8 0 0 0 0 1 5
1817 2 2.4 -8.2 0 0 0 0 1 5
1816 2 2.2 -8.2 0 0 0 0 1 5
1815 2 2 -8.2 0 0 0 0 1 5
1853 2 2.8 -8 0 0 0 0 1 5
1852 2 2.6 -8 0 0 0 0 1 5
1819 2 2.8 -8.2 0 0 0 0 1 5
1818 2 2.6 -8.2 0 0 0 0 1 5
1953 2 2.4 -7.4 0 0 0 0 1.00113 5
1952 2 2.2 -7.4 0 0 0 0 1.01275 5
1951 2 2 -7.4 0 0 0 0 0.992512 5
1919 2 2.4 -7.6 0 0 0 0 1 5
1918 2 2.2 -7.6 0 0 0 0 1 5
1917 2 2 -7.6 0 0 0 0 1 5
1885 2 2.4 -7.8 0 0 0 0 1 5
1884 2 2.2 -7.8 0 0 0 0 1 5
1883 2 2 -7.8 0 0 0 0 1 5
1955 2 2.8 -7.4 0 0 0 0 0.998605 5
1954 2 2.6 -7.4 0 0 0 0 1.00071 5
1921 2 2.8 -7.6 0 0 0 0 1 5
1920 2 2.6 -7.6 0 0 0 0 1 5
1887 2 2.8 -7.8 0 0 0 0 1 5
1886 2 2.6 -7.8 0 0 0 0 1 5
2021 2 2.4 -7 0 0 0 0 1.00451 5
2020 2 2.2 -7 0 0 0 0 1.0093 5
2019 2 2 -7 0 0 0 0 0.99464 5
1987 2 2.4 -7.2 0 0 0 0 1.00399 5
1986 2 2.2 -7.2 0 0 0 0 1.01101 5
1985 2 2 -7.2 0 0 0 0 0.993058 5
2023 2 2.8 -7 0 0 0 0 1.00005 5
2022 2 2.6 -7 0 0 0 0 1.00017 5
1989 2 2.8 -7.2 0 0 0 0 0.999966 5
1988 2 2.6 -7.2 0 0 0 0 0.999431 5
4958 1 2.62252 -6.7545 0.02 0 -0.00257877 -0.000438694 1 2
4960 1 2.66221 -6.57021 0.02 0 0.00024569 0.000551088 1 2
4957 1 2.41881 -6.75534 0.02 0 -0.00271828 -0.000322564 1 2
4956 1 2.4458 -6.58047 0.02 0 -0.000241613 9.65922e-05 1 2
4959 1 2.82134 -6.73795 0.02 0 -0.00245701 -0.000569501 1 2
5183 1 1.71236 -2.58029 0.02 0 0 0 1 2
5168 1 1.59721 -1.9925 0.02 0 0 0 1 2
4961 1 2.86837 -6.55898 0.02 0 0.000165062 0.000568262 1 2
5117 1 1.86485 -0.711689 0.02 0 0 0 1 2
5167 1 1.8052 -1.98573 0.02 0 0 0 1 2
4974 1 2.67494 -6.38721 0.02 0 0.000142424 0.000176954 1 2
4975 1 2.68498 -6.20378 0.02 0 1.06141e-05 1.87089e-05 1 2
4973 1 2.47257 -6.4079 0.02 0 0.000141804 0.000111749 1 2
4972 1 2.46308 -6.2288 0.02 0 7.47585e-06 8.19308e-06 1 2
5182 1 1.65883 -2.38317 0.02 0 0 0 1 2
4977 1 2.89538 -6.18987 0.02 0 5.9875e-06 1.3615e-05 1 2
4976 1 2.88227 -6.3754 0.02 0 9.31493e-05 0.000153878 1 2
5200 1 1.69587 -2.77955 0.02 0 0 0 1 2
5118 1 1.67672 -0.567091 0.02 0 0 0 1 2
5134 1 1.71317 -0.980999 0.02 0 0 0 1 2
4988 1 2.66415 -6.01867 0.02 0 1.17401e-07 2.32241e-07 1 2
4989 1 2.62834 -5.82533 0.02 0 2.27655e-10 6.66557e-10 1 2
4986 1 2.43864 -5.85696 0.02 0 0 0 1 2
4987 1 2.45859 -6.0486 0.02 0 8.17248e-08 1.35333e-07 1 2
4990 1 2.82406 -5.81429 0.02 0 7.48283e-11 2.89637e-10 1 2
5119 1 1.68548 -0.778283 0.02 0 0 0 1 2
5166 1 1.60257 -1.79509 0.02 0 0 0 1 2
4991 1 2.87217 -6.00318 0.02 0 4.58534e-08 1.10986e-07 1 2
4853 1 2.87568 -0.312394 0.02 0 -9.02732e-24 5.04946e-24 1 2
5165 1 1.79667 -1.78013 0.02 0 0 0 1 2
5001 1 2.64448 -5.62334 0.02 0 0 0 1 2
5003 1 2.64464 -5.41999 0.02 0 0 0 1 2
5000 1 2.45006 -5.64953 0.02 0 0 0 1 2
5002 1 2.45136 -5.44144 0.02 0 0 0 1 2
5004 1 2.44191 -5.23262 0.02 0 0 0 1 2
5005 1 2.84364 -5.61653 0.02 0 0 0 1 2
5006 1 2.83984 -5.41725 0.02 0 0 0 1 2
5007 1 2.82118 -5.21795 0.02 0 0 0 1 2
5180 1 1.62047 -2.18617 0.02 0 0 0 1 2
5310 1 1.65158 -4.38169 0.02 0 0 0 1 2
5181 1 1.86347 -2.38971 0.02 0 0 0 1 2
5179 1 1.82069 -2.19044 0.02 0 0 0 1 2
5327 1 1.86538 -4.19435 0.02 0 0 0 1 2
5019 1 2.62809 -5.2099 0.02 0 0 0 1 2
5021 1 2.6078 -4.99268 0.02 0 0 0 1 2
5020 1 2.42368 -5.01823 0.02 0 0 0 1 2
5022 1 2.7947 -5.01454 0.02 0 0 0 1 2
5023 1 2.77447 -4.80046 0.02 0 0 0 1 2
5294 1 1.63576 -4.78802 0.02 0 0 0 1 2
5292 1 1.64222 -4.98615 0.02 0 0 0 1 2
5027 1 2.96794 -4.8102 0.02 0 0 0 1 2
5153 1 1.7433 -1.58039 0.02 0 0 0 1 2
5151 1 1.72859 -1.38132 0.02 0 0 0 1 2
5042 1 2.6534 -4.36807 0.02 0 0 0 1 2
5039 1 2.60429 -4.57054 0.02 0 0 0 1 2
5041 1 2.45398 -4.3673 0.02 0 0 0 1 2
5038 1 2.41371 -4.57803 0.02 0 0 0 1 2
5037 1 2.58583 -4.77962 0.02 0 0 0 1 2
5040 1 2.79623 -4.58634 0.02 0 0 0 1 2
5274 1 1.65093 -5.3784 0.02 0 0 0 1 2
5242 1 1.61983 -6.37339 0.02 0 -1.79119e-08 7.77523e-07 1 2
5043 1 2.84868 -4.37825 0.02 0 0 0 1 2
5311 1 1.8495 -4.38719 0.02 0 0 0 1 2
5309 1 1.85046 -4.58362 0.02 0 0 0 1 2
5056 1 2.67621 -4.16298 0.02 0 0 0 1 2
5058 1 2.68853 -3.95576 0.02 0 0 0 1 2
5055 1 2.47962 -4.16107 0.02 0 0 0 1 2
5057 1 2.49712 -3.95057 0.02 0 0 0 1 2
5136 1 1.71706 -1.18142 0.02 0 0 0 1 2
5328 1 1.70592 -3.97478 0.02 0 0 0 1 2
5059 1 2.87246 -4.17021 0.02 0 0 0 1 2
5060 1 2.88146 -3.95995 0.02 0 0 0 1 2
5295 1 1.83255 -4.78313 0.02 0 0 0 1 2
5293 1 1.84388 -4.98078 0.02 0 0 0 1 2
5074 1 2.71004 -3.53709 0.02 0 0 0 1 2
5073 1 2.71094 -3.74794 0.02 0 0 0 1 2
5071 1 2.52072 -3.73477 0.02 0 0 0 1 2
5072 1 2.52242 -3.51789 0.02 0 0 0 1 2
5326 1 1.66655 -4.17616 0.02 0 0 0 1 2
5308 1 1.65727 -4.58755 0.02 0 0 0 1 2
5075 1 2.90262 -3.75053 0.02 0 0 0 1 2
5076 1 2.899 -3.53879 0.02 0 0 0 1 2
4851 1 2.8598 -0.106487 0.02 0 -7.44047e-26 7.70202e-26 1 2
5275 1 1.85255 -5.35989 0.02 0 0 0 1 2
5090 1 2.71986 -3.11224 0.02 0 0 0 1 2
5088 1 2.70041 -3.32282 0.02 0 0 0 1 2
5089 1 2.52568 -3.09498 0.02 0 0 0 1 2
5087 1 2.51446 -3.30217 0.02 0 0 0 1 2
5291 1 1.65779 -5.18093 0.02 0 0 0 1 2
5091 1 2.88805 -3.3262 0.02 0 0 0 1 2
5092 1 2.9115 -3.11655 0.02 0 -1.3219e-31 -4.53546e-31 1 2
5273 1 1.67557 -5.57908 0.02 0 0 0 1 2
4855 1 2.47229 -0.141758 0.02 0 0 0 1 2
5102 1 1.85153 -0.297234 0.02 0 0 0 1 2
4951 1 2.72751 -2.7013 0.02 0 0 0 1 2
4953 1 2.71563 -2.9059 0.02 0 0 0 1 2
4954 1 2.51798 -2.89186 0.02 0 0 0 1 2
4952 1 2.52794 -2.69006 0.02 0 0 0 1 2
4950 1 2.91196 -2.90797 0.02 0 0 0 1 2
4949 1 2.9244 -2.70335 0.02 0 0 0 1 2
5260 1 1.68445 -5.7827 0.02 0 0 0 1 2
5258 1 1.66333 -5.9826 0.02 0 6.18118e-11 3.94347e-10 1 2
4856 1 2.67504 -0.308611 0.02 0 -8.20866e-27 2.80583e-27 1 2
4854 1 2.66873 -0.102094 0.02 0 0 0 1 2
4938 1 2.4548 -2.27668 0.02 0 0 0 1 2
4940 1 2.68772 -2.49402 0.02 0 0 0 1 2
4937 1 2.64734 -2.27951 0.02 0 0 0 1 2
4939 1 2.4952 -2.48392 0.02 0 0 0 1 2
4936 1 2.84076 -2.30053 0.02 0 0 0 1 2
5103 1 1.66114 -0.151373 0.02 0 0 0 1 2
5228 1 1.61327 -6.56871 0.02 0 -1.83792e-06 -7.13525e-07 1 2
4935 1 2.88548 -2.50191 0.02 0 0 0 1 2
5259 1 1.85675 -5.96801 0.02 0 2.39809e-09 1.13084e-08 1 2
4857 1 2.46582 -0.329982 0.02 0 0 0 1 2
4919 1 2.83726 -2.09908 0.02 0 0 0 1 2
4918 1 2.81473 -1.89697 0.02 0 0 0 1 2
4923 1 2.4293 -2.07675 0.02 0 0 0 1 2
4921 1 2.41955 -1.87308 0.02 0 0 0 1 2
4922 1 2.63365 -2.07103 0.02 0 0 0 1 2
4920 1 2.61674 -1.86633 0.02 0 0 0 1 2
5245 1 1.84995 -6.19007 0.02 0 -1.4599e-06 2.68072e-06 1 2
5243 1 1.82738 -6.38819 0.02 0 -7.958e-06 2.09586e-05 1 2
5226 1 1.6136 -6.7694 0.02 0 -0.000226286 -0.000135166 1 2
5227 1 1.82513 -6.75794 0.02 0 -0.00159396 -0.000227346 1 2
4906 1 2.56308 -1.66502 0.02 0 0 0 1 2
4904 1 2.53326 -1.46594 0.02 0 0 0 1 2
4903 1 2.74151 -1.4917 0.02 0 0 0 1 2
4905 1 2.76619 -1.68959 0.02 0 0 0 1 2
4900 1 2.95567 -1.52449 0.02 0 -3.89295e-26 -2.76355e-26 1 2
4902 1 2.96662 -1.7222 0.02 0 -3.57073e-31 -1.75837e-30 1 2
5244 1 1.66381 -6.18031 0.02 0 7.93257e-09 9.0118e-08 1 2
5104 1 1.6618 -0.360565 0.02 0 0 0 1 2
5201 1 1.74401 -2.9776 0.02 0 0 0 1 2
5357 1 1.74057 -3.17797 0.02 0 0 0 1 2
4898 1 2.90843 -1.32959 0.02 0 -6.18488e-25 -5.93422e-25 1 2
4888 1 2.48404 -1.07209 0.02 0 0 0 1 2
4890 1 2.50798 -1.26707 0.02 0 0 0 1 2
4886 1 2.47797 -0.880323 0.02 0 0 0 1 2
4889 1 2.70789 -1.29234 0.02 0 -3.96285e-27 -2.16671e-27 1 2
4887 1 2.69024 -1.09279 0.02 0 -1.12705e-25 -2.42926e-26 1 2
4885 1 2.67733 -0.894216 0.02 0 -1.29464e-25 -3.47226e-28 1 2
5356 1 1.76988 -3.37646 0.02 0 0 0 1 2
5229 1 1.80244 -6.57403 0.02 0 -5.15217e-05 2.01764e-05 1 2
4867 1 2.8919 -0.517524 0.02 0 -6.79583e-23 7.6357e-24 1 2
5343 1 1.75908 -3.57567 0.02 0 0 0 1 2
4884 1 2.89247 -1.12903 0.02 0 -2.78093e-23 -9.28362e-24 1 2
4882 1 2.87272 -0.927203 0.02 0 -4.28974e-23 -2.00417e-24 1 2
4873 1 2.46699 -0.695724 0.02 0 0 0 1 2
4871 1 2.48983 -0.514518 0.02 0 0 0 1 2
4872 1 2.6894 -0.701356 0.02 0 -2.46885e-25 -6.45352e-27 1 2
4870 1 2.69334 -0.507391 0.02 0 -3.77598e-25 2.09953e-26 1 2
5342 1 1.74832 -3.77646 0.02 0 0 0 1 2
4869 1 2.8951 -0.722022 0.02 0 -7.94402e-23 -1.98495e-24 1 2
5137 1 1.52428 -1.20028 0.02 0 0 0 1 2
5152 1 1.52977 -1.40796 0.02 0 0 0 1 2
5135 1 1.52072 -0.982393 0.02 0 0 0 1 2
5340 1 1.55375 -3.74421 0.02 0 0 0 1 2
5341 1 1.55888 -3.54584 0.02 0 0 0 1 2
5354 1 1.56444 -3.35298 0.02 0 0 0 1 2
5355 1 1.532 -3.16312 0.02 0 0 0 1 2
5202 1 1.54349 -2.97062 0.02 0 0 0 1 2
5154 1 1.53738 -1.60677 0.02 0 0 0 1 2
4843 1 2.67162 0.336851 0.02 0 0 0 1 2
4845 1 2.67101 0.118798 0.02 0 0 0 1 2
4844 1 2.49078 0.0560054 0.02 0 0 0 1 2
4842 1 2.49147 0.270665 0.02 0 0 0 1 2
5245 1 1.60716 3.54855 0.02 0 0 0 1 2
5213 1 1.61829 2.71345 0.02 0 0 0 1 2
4847 1 2.85917 0.320533 0.02 0 0 0 1 2
4849 1 2.85483 0.105539 0.02 0 0 0 1 2
5248 1 1.85582 3.75162 0.02 0 0 0 1 2
5247 1 1.80065 3.55443 0.02 0 0 0 1 2
4860 1 2.40926 0.705152 0.02 0 0 0 1 2
4859 1 2.65477 0.544272 0.02 0 0 0 1 2
4858 1 2.47184 0.488378 0.02 0 0 0 1 2
4861 1 2.59386 0.743507 0.02 0 0 0 1 2
4862 1 2.79076 0.728702 0.02 0 0 0 1 2
5196 1 1.59148 2.28879 0.02 0 0 0 1 2
5181 1 1.5968 2.09034 0.02 0 0 0 1 2
4863 1 2.85214 0.528996 0.02 0 0 0 1 2
5323 1 1.73547 5.74842 0.02 0 -2.98665e-16 -4.9899e-16 1 2
5215 1 1.81078 2.76365 0.02 0 0 0 1 2
4874 1 2.60264 0.941402 0.02 0 0 0 1 2
4875 1 2.58054 1.13505 0.02 0 -1.41809e-29 -5.35386e-30 1 2
4876 1 2.81061 0.925911 0.02 0 -6.27858e-31 -1.1217e-30 1 2
4877 1 2.78814 1.12143 0.02 0 -5.56841e-26 -6.05963e-26 1 2
5180 1 1.64346 1.90731 0.02 0 0 0 1 2
5167 1 1.61836 1.72508 0.02 0 0 0 1 2
5184 1 1.85003 1.80044 0.02 0 0 0 1 2
5183 1 1.79797 2.16866 0.02 0 0 0 1 2
4893 1 2.71645 1.51418 0.02 0 -4.79918e-24 -1.99891e-24 1 2
4894 1 2.70696 1.71282 0.02 0 -2.24021e-23 -3.84469e-24 1 2
4891 1 2.51427 1.52478 0.02 0 -2.01453e-26 -4.00558e-27 1 2
4892 1 2.50411 1.72167 0.02 0 -1.14731e-25 -1.16686e-26 1 2
4890 1 2.53653 1.32777 0.02 0 -2.37723e-27 -5.45694e-28 1 2
4895 1 2.74364 1.31688 0.02 0 -5.31475e-25 -3.20347e-25 1 2
4896 1 2.94647 1.32832 0.02 0 -6.45653e-23 -6.55033e-23 1 2
4897 1 2.92111 1.52127 0.02 0 -8.37367e-22 -4.23006e-22 1 2
4898 1 2.91039 1.71271 0.02 0 -2.8512e-21 -7.34504e-22 1 2
5309 1 1.7206 5.54369 0.02 0 0 0 1 2
5307 1 1.74756 5.33895 0.02 0 0 0 1 2
5294 1 1.77368 5.14235 0.02 0 0 0 1 2
454 2 2.6 9.6 0 0 0 0 1 5
4911 1 2.68225 1.90792 0.02 0 -2.24349e-23 -1.71923e-24 1 2
4912 1 2.68954 2.10177 0.02 0 -3.84048e-23 1.01035e-24 1 2
4909 1 2.47086 1.91195 0.02 0 -4.36456e-26 -3.55485e-27 1 2
4910 1 2.48281 2.10066 0.02 0 -1.35962e-25 -9.64268e-27 1 2
5260 1 1.69807 3.97181 0.02 0 0 0 1 2
4914 1 2.88821 2.09299 0.02 0 -4.21352e-21 3.42896e-22 1 2
4913 1 2.89392 1.90235 0.02 0 -4.25066e-21 -4.53766e-22 1 2
5246 1 1.66182 3.76289 0.02 0 0 0 1 2
455 2 2.8 9.6 0 0 0 0 1 5
488 2 2.6 9.8 0 0 0 0 1 5
4923 1 2.42367 2.27614 0.02 0 -3.28596e-29 3.6457e-31 1 2
4924 1 2.43124 2.4548 0.02 0 -1.22433e-33 9.09724e-35 1 2
4926 1 2.66337 2.46684 0.02 0 -6.5336e-25 3.31648e-25 1 2
4925 1 2.64983 2.28563 0.02 0 -3.8302e-24 1.16051e-24 1 2
5231 1 1.72146 3.14204 0.02 0 0 0 1 2
4927 1 2.88577 2.28195 0.02 0 -1.37174e-21 6.32731e-22 1 2
4928 1 2.86701 2.46409 0.02 0 -5.30089e-23 4.72735e-23 1 2
5214 1 1.67122 2.93293 0.02 0 0 0 1 2
489 2 2.8 9.8 0 0 0 0 1 5
485 2 2 9.8 0 0 0 0 1 5
4937 1 2.39967 2.63076 0.02 0 0 0 1 2
4939 1 2.43753 2.80986 0.02 0 0 0 1 2
4941 1 2.68366 2.80866 0.02 0 -4.16277e-29 4.70223e-29 1 2
4938 1 2.62106 2.63956 0.02 0 -1.10052e-26 6.89097e-27 1 2
4940 1 2.53196 2.97258 0.02 0 0 0 1 2
4942 1 2.7418 2.99988 0.02 0 0 0 1 2
4945 1 2.95586 2.99621 0.02 0 0 0 1 2
4943 1 2.89678 2.64036 0.02 0 -5.44474e-25 8.51411e-25 1 2
4944 1 2.89284 2.8171 0.02 0 -8.73557e-27 2.06107e-26 1 2
5292 1 1.76947 4.94833 0.02 0 0 0 1 2
5279 1 1.7356 4.75688 0.02 0 0 0 1 2
5325 1 1.72315 5.95808 0.02 0 3.80289e-12 -1.76845e-11 1 2
4959 1 2.58262 3.35953 0.02 0 0 0 1 2
4958 1 2.54451 3.16345 0.02 0 0 0 1 2
4960 1 2.74949 3.19806 0.02 0 0 0 1 2
4961 1 2.78779 3.39618 0.02 0 0 0 1 2
5131 1 1.61401 0.590992 0.02 0 0 0 1 2
4962 1 2.95132 3.18701 0.02 0 0 0 1 2
5337 1 1.73076 6.16495 0.02 0 8.931e-09 -2.57924e-08 1 2
5277 1 1.74183 4.56173 0.02 0 0 0 1 2
4972 1 2.41859 3.55811 0.02 0 0 0 1 2
4974 1 2.4717 3.7432 0.02 0 0 0 1 2
4975 1 2.68167 3.75439 0.02 0 0 0 1 2
4973 1 2.62667 3.55836 0.02 0 0 0 1 2
4976 1 2.83705 3.59067 0.02 0 0 0 1 2
5134 1 1.81689 0.646045 0.02 0 0 0 1 2
4978 1 2.89728 3.77943 0.02 0 -1.9106e-29 -4.55068e-29 1 2
5166 1 1.6667 1.55295 0.02 0 0 0 1 2
5182 1 1.84336 1.98762 0.02 0 0 0 1 2
451 2 2 9.6 0 0 0 0 1 5
4989 1 2.52382 4.13251 0.02 0 0 0 1 2
4988 1 2.6925 3.95088 0.02 0 0 0 1 2
4990 1 2.72345 4.15098 0.02 0 -4.0468e-26 -3.37126e-26 1 2
4987 1 2.48975 3.93519 0.02 0 0 0 1 2
4991 1 2.55339 4.33685 0.02 0 -1.06334e-26 -1.72451e-27 1 2
4994 1 2.92935 4.16123 0.02 0 -6.51127e-23 -4.10397e-23 1 2
4992 1 2.89698 3.97068 0.02 0 -1.35828e-24 -1.2325e-24 1 2
5339 1 1.73318 6.37479 0.02 0 2.18442e-06 -4.07868e-06 1 2
5165 1 1.70339 1.37766 0.02 0 0 0 1 2
486 2 2.2 9.8 0 0 0 0 1 5
5003 1 2.58722 4.73823 0.02 0 -5.91946e-24 -4.24936e-26 1 2
5002 1 2.54322 4.54315 0.02 0 -3.45939e-25 4.04479e-27 1 2
5004 1 2.74946 4.35183 0.02 0 -9.00783e-24 -4.48514e-24 1 2
5005 1 2.74714 4.55067 0.02 0 -7.40846e-23 -1.50729e-23 1 2
5006 1 2.79104 4.7463 0.02 0 -5.71497e-22 -5.93468e-23 1 2
418 2 2.2 9.4 0 0 0 0 1 5
5009 1 2.95378 4.55042 0.02 0 -5.85847e-21 -1.44377e-21 1 2
5007 1 2.94875 4.3547 0.02 0 -1.09382e-21 -6.30114e-22 1 2
5275 1 1.7656 4.36378 0.02 0 0 0 1 2
5262 1 1.72855 4.16938 0.02 0 0 0 1 2