ITEM: TIMESTEP
46000
ITEM: NUMBER OF ATOMS
1417
ITEM: BOX BOUNDS ff ff pp
0.0000000000000000e+00 4.4000000000000004e+00
-1.0000000000000000e+01 1.0000000000000000e+01
-2.0000000000000000e-02 2.0000000000000000e-02
ITEM: ATOMS id type x y vx vy fx fy c_den c_phase
4442 1 0.602209 -6.72835 0.02 0 0 0 1 2
4443 1 0.791121 -6.74203 0.02 0 0 0 1 2
4444 1 0.616818 -6.54477 0.02 0 0 0 1 2
4445 1 0.816891 -6.5542 0.02 0 0 0 1 2
4446 1 0.411442 -6.75162 0.02 0 0 0 1 2
4447 1 0.424333 -6.54926 0.02 0 0 0 1 2
4448 1 0.986408 -6.74133 0.02 0 0 0 1 2
4449 1 1.1931 -6.75491 0.02 0 0 0 1 2
4450 1 1.02421 -6.56709 0.02 0 0 0 1 2
4451 1 1.22813 -6.5739 0.02 0 0 0 1 2
4452 1 1.40731 -6.74948 0.02 0 -9.38823e-08 -9.34647e-08 1 2
4349 1 1.40541 -0.696222 0.02 0 0 0 1 2
4454 1 1.42288 -6.56093 0.02 0 7.03977e-10 1.08931e-08 1 2
4373 1 0.929262 -1.25432 0.02 0 0 0 1 2
4334 1 1.39671 -0.305252 0.02 0 0 0 1 2
4333 1 1.38028 -0.105633 0.02 0 0 0 1 2
4458 1 0.63468 -6.35816 0.02 0 0 0 1 2
4459 1 0.837758 -6.36705 0.02 0 0 0 1 2
4460 1 0.62668 -6.16827 0.02 0 0 0 1 2
4461 1 0.830916 -6.1805 0.02 0 0 0 1 2
4462 1 0.42798 -6.16727 0.02 0 0 0 1 2
4463 1 0.425789 -6.35803 0.02 0 0 0 1 2
4464 1 1.03644 -6.38798 0.02 0 0 0 1 2
4465 1 1.23881 -6.38895 0.02 0 0 0 1 2
4466 1 1.04721 -6.20569 0.02 0 0 0 1 2
4467 1 1.26159 -6.20353 0.02 0 0 0 1 2
4468 1 1.44166 -6.36843 0.02 0 1.99643e-10 2.3169e-09 1 2
4372 1 0.961829 -1.06354 0.02 0 0 0 1 2
4470 1 1.46281 -6.17307 0.02 0 3.03662e-12 3.05002e-11 1 2
4355 1 0.779665 -0.43497 0.02 0 0 0 1 2
4371 1 1.13787 -1.24933 0.02 0 0 0 1 2
4339 1 0.809469 -0.232612 0.02 0 0 0 1 2
4474 1 0.628659 -5.97613 0.02 0 0 0 1 2
4475 1 0.832676 -5.99115 0.02 0 0 0 1 2
4476 1 0.680892 -5.79188 0.02 0 0 0 1 2
4477 1 0.468484 -5.78448 0.02 0 0 0 1 2
4478 1 0.427154 -5.9733 0.02 0 0 0 1 2
4479 1 0.888484 -5.80453 0.02 0 0 0 1 2
4480 1 1.0342 -6.02123 0.02 0 0 0 1 2
4481 1 1.24081 -6.01537 0.02 0 0 0 1 2
4482 1 1.08893 -5.83465 0.02 0 0 0 1 2
4483 1 1.29022 -5.817 0.02 0 0 0 1 2
4484 1 1.44404 -5.97957 0.02 0 0 0 1 2
4370 1 1.17813 -1.06298 0.02 0 0 0 1 2
4486 1 1.49129 -5.78216 0.02 0 0 0 1 2
4367 1 1.39709 -1.07802 0.02 0 0 0 1 2
4369 1 1.17365 -0.870875 0.02 0 0 0 1 2
4489 1 0.704341 -5.6044 0.02 0 0 0 1 2
4490 1 0.732873 -5.41529 0.02 0 0 0 1 2
4491 1 0.742071 -5.22133 0.02 0 0 0 1 2
4492 1 0.527597 -5.4058 0.02 0 0 0 1 2
4493 1 0.495264 -5.5962 0.02 0 0 0 1 2
4494 1 0.909263 -5.60748 0.02 0 0 0 1 2
4495 1 0.933225 -5.40396 0.02 0 0 0 1 2
4496 1 1.10661 -5.63729 0.02 0 0 0 1 2
4497 1 1.12498 -5.43333 0.02 0 0 0 1 2
4498 1 1.12919 -5.22014 0.02 0 0 0 1 2
4499 1 1.30692 -5.61718 0.02 0 0 0 1 2
4500 1 1.31918 -5.4152 0.02 0 0 0 1 2
4501 1 1.5073 -5.58229 0.02 0 0 0 1 2
4357 1 0.770903 -0.839322 0.02 0 0 0 1 2
4503 1 1.5152 -5.38278 0.02 0 0 0 1 2
4368 1 1.35239 -1.25891 0.02 0 0 0 1 2
4505 1 0.539286 -5.2108 0.02 0 0 0 1 2
4506 1 0.581842 -5.01593 0.02 0 0 0 1 2
4507 1 0.778627 -5.02224 0.02 0 0 0 1 2
4508 1 0.606801 -4.81527 0.02 0 0 0 1 2
4509 1 0.800227 -4.81151 0.02 0 0 0 1 2
4510 1 0.410475 -4.80548 0.02 0 0 0 1 2
4511 1 0.940849 -5.19341 0.02 0 0 0 1 2
4512 1 0.967452 -4.97468 0.02 0 0 0 1 2
4513 1 1.15182 -5.00283 0.02 0 0 0 1 2
4515 1 1.32292 -5.21254 0.02 0 0 0 1 2
4516 1 1.34332 -5.012 0.02 0 0 0 1 2
4517 1 1.35679 -4.80991 0.02 0 0 0 1 2
4387 1 0.970033 -1.62905 0.02 0 0 0 1 2
4386 1 0.902158 -1.44746 0.02 0 0 0 1 2
4385 1 1.18723 -1.62676 0.02 0 0 0 1 2
4347 1 1.38415 -0.502385 0.02 0 0 0 1 2
4354 1 0.971028 -0.869466 0.02 0 0 0 1 2
4522 1 0.659828 -4.40831 0.02 0 0 0 1 2
4523 1 0.446745 -4.42187 0.02 0 0 0 1 2
4524 1 0.640057 -4.61129 0.02 0 0 0 1 2
4525 1 0.443436 -4.60871 0.02 0 0 0 1 2
4526 1 0.833268 -4.59713 0.02 0 0 0 1 2
4527 1 0.860915 -4.38967 0.02 0 0 0 1 2
4528 1 0.989235 -4.76001 0.02 0 0 0 1 2
4529 1 1.17331 -4.77678 0.02 0 0 0 1 2
4530 1 1.02586 -4.54848 0.02 0 0 0 1 2
4531 1 1.21218 -4.55111 0.02 0 0 0 1 2
4532 1 1.39006 -4.60301 0.02 0 0 0 1 2
4533 1 1.42934 -4.38599 0.02 0 0 0 1 2
4384 1 1.10845 -1.44186 0.02 0 0 0 1 2
4364 1 1.37737 -0.887841 0.02 0 0 0 1 2
4353 1 0.984269 -0.671329 0.02 0 0 0 1 2
4352 1 0.975304 -0.468318 0.02 0 0 0 1 2
4338 1 0.980634 -0.0512313 0.02 0 0 0 1 2
4539 1 0.635858 -4.20972 0.02 0 0 0 1 2
4540 1 0.616812 -4.01236 0.02 0 0 0 1 2
4541 1 0.823732 -3.99137 0.02 0 0 0 1 2
4542 1 0.43206 -4.23899 0.02 0 0 0 1 2
4543 1 0.410953 -4.05469 0.02 0 0 0 1 2
4544 1 0.834949 -4.19118 0.02 0 0 0 1 2
4545 1 1.05511 -4.3374 0.02 0 0 0 1 2
4546 1 1.24801 -4.33832 0.02 0 0 0 1 2
4547 1 1.02825 -4.13658 0.02 0 0 0 1 2
4548 1 1.02739 -3.94058 0.02 0 0 0 1 2
4549 1 1.22855 -4.13331 0.02 0 0 0 1 2
4550 1 1.23245 -3.93346 0.02 0 0 0 1 2
4551 1 1.42357 -4.1624 0.02 0 0 0 1 2
4552 1 1.42759 -3.94622 0.02 0 0 0 1 2
4377 1 0.531575 -1.17546 0.02 0 0 0 1 2
4376 1 0.555391 -0.977961 0.02 0 0 0 1 2
4337 1 1.00331 -0.262404 0.02 0 0 0 1 2
4336 1 1.17811 -0.0896709 0.02 0 0 0 1 2
4557 1 0.533242 -3.83444 0.02 0 0 0 1 2
4558 1 0.510606 -3.64157 0.02 0 0 0 1 2
4559 1 0.74731 -3.80935 0.02 0 0 0 1 2
4560 1 0.716384 -3.61938 0.02 0 0 0 1 2
4561 1 0.951986 -3.7622 0.02 0 0 0 1 2
4562 1 0.927166 -3.57442 0.02 0 0 0 1 2
4563 1 1.16395 -3.74314 0.02 0 0 0 1 2
4564 1 1.13681 -3.54964 0.02 0 0 0 1 2
4565 1 1.37086 -3.73758 0.02 0 0 0 1 2
4566 1 1.34291 -3.53875 0.02 0 0 0 1 2
4382 1 1.31706 -1.44569 0.02 0 0 0 1 2
4391 1 0.529166 -1.58117 0.02 0 0 0 1 2
4351 1 1.19409 -0.679469 0.02 0 0 0 1 2
4350 1 1.17598 -0.487256 0.02 0 0 0 1 2
4571 1 0.462445 -3.25437 0.02 0 0 0 1 2
4572 1 0.517351 -3.4454 0.02 0 0 0 1 2
4573 1 0.732425 -3.42684 0.02 0 0 0 1 2
4574 1 0.673355 -3.24471 0.02 0 0 0 1 2
4575 1 0.419484 -3.0552 0.02 0 0 0 1 2
4576 1 0.620384 -3.05525 0.02 0 0 0 1 2
4577 1 0.938886 -3.38246 0.02 0 0 0 1 2
4578 1 0.889554 -3.19995 0.02 0 0 0 1 2
4579 1 1.14562 -3.35457 0.02 0 0 0 1 2
4580 1 1.10379 -3.16536 0.02 0 0 0 1 2
4581 1 1.35469 -3.34314 0.02 0 0 0 1 2
4582 1 1.31109 -3.14923 0.02 0 0 0 1 2
4390 1 0.508835 -1.37585 0.02 0 0 0 1 2
4584 1 1.51552 -3.15422 0.02 0 0 0 1 2
4389 1 0.742252 -1.61772 0.02 0 0 0 1 2
4359 1 0.575425 -0.780303 0.02 0 0 0 1 2
4437 1 0.819301 -3.02181 0.02 0 0 0 1 2
4438 1 0.706529 -2.62038 0.02 0 0 0 1 2
4439 1 0.521247 -2.64892 0.02 0 0 0 1 2
4440 1 0.775438 -2.82524 0.02 0 0 0 1 2
4441 1 0.585817 -2.85229 0.02 0 0 0 1 2
4430 1 1.36721 -2.76691 0.02 0 0 0 1 2
4433 1 1.1623 -2.77504 0.02 0 0 0 1 2
4434 1 0.964797 -2.79318 0.02 0 0 0 1 2
4435 1 1.23599 -2.96179 0.02 0 0 0 1 2
4436 1 1.02508 -2.98586 0.02 0 0 0 1 2
4335 1 1.19877 -0.29198 0.02 0 0 0 1 2
4343 1 0.585323 -0.380407 0.02 0 0 0 1 2
4388 1 0.702165 -1.42554 0.02 0 0 0 1 2
4375 1 0.726293 -1.23072 0.02 0 0 0 1 2
4432 1 1.44626 -2.95831 0.02 0 0 0 1 2
4421 1 0.841508 -2.39934 0.02 0 0 0 1 2
4422 1 0.805217 -2.19833 0.02 0 0 0 1 2
4423 1 0.616165 -2.18323 0.02 0 0 0 1 2
4424 1 0.43726 -2.20819 0.02 0 0 0 1 2
4425 1 0.654438 -2.39988 0.02 0 0 0 1 2
4426 1 0.478895 -2.4387 0.02 0 0 0 1 2
4413 1 1.29869 -2.57488 0.02 0 0 0 1 2
4415 1 1.21034 -2.19579 0.02 0 0 0 1 2
4416 1 1.24324 -2.38451 0.02 0 0 0 1 2
4417 1 1.00359 -2.1985 0.02 0 0 0 1 2
4418 1 1.03902 -2.39228 0.02 0 0 0 1 2
4419 1 1.09457 -2.58456 0.02 0 0 0 1 2
4420 1 0.895745 -2.59703 0.02 0 0 0 1 2
4342 1 0.401521 -0.140001 0.02 0 0 0 1 2
4358 1 0.578759 -0.578615 0.02 0 0 0 1 2
4374 1 0.754772 -1.03692 0.02 0 0 0 1 2
4356 1 0.780781 -0.638546 0.02 0 0 0 1 2
4411 1 1.42526 -2.20534 0.02 0 0 0 1 2
4412 1 1.45431 -2.39279 0.02 0 0 0 1 2
4414 1 1.50988 -2.57926 0.02 0 0 0 1 2
4402 1 0.814025 -1.99908 0.02 0 0 0 1 2
4403 1 0.777634 -1.80384 0.02 0 0 0 1 2
4404 1 0.563718 -1.77757 0.02 0 0 0 1 2
4405 1 0.616202 -1.97392 0.02 0 0 0 1 2
4406 1 0.427014 -1.98574 0.02 0 0 0 1 2
4398 1 1.19331 -1.81661 0.02 0 0 0 1 2
4399 1 1.22457 -2.00624 0.02 0 0 0 1 2
4400 1 0.985118 -1.81632 0.02 0 0 0 1 2
4401 1 1.01874 -2.00586 0.02 0 0 0 1 2
4341 1 0.611827 -0.183256 0.02 0 0 0 1 2
4340 1 0.782709 -0.0243134 0.02 0 0 0 1 2
4383 1 1.39991 -1.63123 0.02 0 0 0 1 2
4397 1 1.42773 -2.01502 0.02 0 0 0 1 2
4396 1 1.40267 -1.8232 0.02 0 0 0 1 2
4329 1 0.572665 0.215718 0.02 0 0 0 1 2
4330 1 0.582117 0.410446 0.02 0 0 0 1 2
4331 1 0.580605 0.0181136 0.02 0 0 0 1 2
4332 1 0.773779 0.179162 0.02 0 0 0 1 2
4333 1 0.784845 0.379808 0.02 0 0 0 1 2
4334 1 0.97298 0.154281 0.02 0 0 0 1 2
4335 1 0.984334 0.354554 0.02 0 0 0 1 2
4336 1 1.16808 0.11543 0.02 0 0 0 1 2
4337 1 1.17768 0.32366 0.02 0 0 0 1 2
4338 1 1.36423 0.09354 0.02 0 0 0 1 2
4339 1 1.37114 0.294969 0.02 0 0 0 1 2
4534 1 0.743675 5.77654 0.02 0 0 0 1 2
4533 1 0.5337 5.7758 0.02 0 0 0 1 2
4569 1 1.14771 6.7393 0.02 0 0 0 1 2
4568 1 0.806629 6.54487 0.02 0 0 0 1 2
4344 1 0.529677 0.600763 0.02 0 0 0 1 2
4345 1 0.514411 0.794556 0.02 0 0 0 1 2
4346 1 0.742951 0.577932 0.02 0 0 0 1 2
4347 1 0.723331 0.771232 0.02 0 0 0 1 2
4348 1 0.952655 0.552322 0.02 0 0 0 1 2
4349 1 0.930147 0.745396 0.02 0 0 0 1 2
4350 1 1.15218 0.538528 0.02 0 0 0 1 2
4351 1 1.13073 0.748652 0.02 0 0 0 1 2
4352 1 1.3449 0.49984 0.02 0 0 0 1 2
4353 1 1.32658 0.705228 0.02 0 0 0 1 2
4570 1 0.965129 6.73063 0.02 0 0 0 1 2
4530 1 1.46804 5.44192 0.02 0 0 0 1 2
4567 1 0.612106 6.55691 0.02 0 0 0 1 2
4544 1 1.40317 6.03553 0.02 0 0 0 1 2
4358 1 0.479475 0.991407 0.02 0 0 0 1 2
4359 1 0.531118 1.1823 0.02 0 0 0 1 2
4360 1 0.683921 0.96105 0.02 0 0 0 1 2
4361 1 0.739924 1.14254 0.02 0 0 0 1 2
4362 1 0.901424 0.936412 0.02 0 0 0 1 2
4363 1 0.947217 1.12348 0.02 0 0 0 1 2
4364 1 1.11566 0.950652 0.02 0 0 0 1 2
4365 1 1.1492 1.15042 0.02 0 0 0 1 2
4366 1 1.31768 0.907465 0.02 0 0 0 1 2
4367 1 1.34426 1.10662 0.02 0 0 0 1 2
4571 1 0.998935 6.53483 0.02 0 0 0 1 2
4528 1 1.45863 5.23543 0.02 0 0 0 1 2
4560 1 1.39321 6.40429 0.02 0 0 0 1 2
4531 1 1.32183 5.62877 0.02 0 0 0 1 2
4372 1 0.536035 1.3839 0.02 0 0 0 1 2
4373 1 0.576367 1.58908 0.02 0 0 0 1 2
4374 1 0.730224 1.337 0.02 0 0 0 1 2
4375 1 0.75802 1.53796 0.02 0 0 0 1 2
4376 1 0.932886 1.31769 0.02 0 0 0 1 2
4377 1 0.948627 1.51741 0.02 0 0 0 1 2
4378 1 0.988318 1.72369 0.02 0 0 0 1 2
4379 1 1.13271 1.35396 0.02 0 0 0 1 2
4380 1 1.14329 1.56056 0.02 0 0 0 1 2
4381 1 1.32785 1.31297 0.02 0 0 0 1 2
4382 1 1.32983 1.523 0.02 0 0 0 1 2
4527 1 1.27205 5.42911 0.02 0 0 0 1 2
4384 1 1.51451 1.56316 0.02 0 0 0 1 2
4558 1 1.40647 6.22433 0.02 0 0 0 1 2
4557 1 1.18052 6.37453 0.02 0 0 0 1 2
4387 1 0.439239 1.81475 0.02 0 0 0 1 2
4388 1 0.626511 1.79528 0.02 0 0 0 1 2
4389 1 0.432084 2.02352 0.02 0 0 0 1 2
4390 1 0.622398 2.0128 0.02 0 0 0 1 2
4391 1 0.805486 1.74929 0.02 0 0 0 1 2
4392 1 0.804428 1.97177 0.02 0 0 0 1 2
4393 1 0.98649 1.94201 0.02 0 0 0 1 2
4394 1 1.02899 2.17052 0.02 0 0 0 1 2
4395 1 1.17218 1.7735 0.02 0 0 0 1 2
4396 1 1.17231 1.97746 0.02 0 0 0 1 2
4397 1 1.35347 1.74332 0.02 0 0 0 1 2
4398 1 1.36094 1.97688 0.02 0 0 0 1 2
4526 1 1.25332 5.23268 0.02 0 0 0 1 2
4525 1 1.12111 5.60564 0.02 0 0 0 1 2
4556 1 0.97848 6.33825 0.02 0 0 0 1 2
4566 1 0.409191 6.56644 0.02 0 0 0 1 2
4403 1 0.476118 2.22749 0.02 0 0 0 1 2
4404 1 0.665589 2.22687 0.02 0 0 0 1 2
4405 1 0.492069 2.4293 0.02 0 0 0 1 2
4406 1 0.691629 2.43725 0.02 0 0 0 1 2
4407 1 0.845822 2.18115 0.02 0 0 0 1 2
4408 1 0.87892 2.39251 0.02 0 0 0 1 2
4409 1 1.0653 2.39488 0.02 0 0 0 1 2
4410 1 1.21799 2.17673 0.02 0 0 0 1 2
4411 1 1.25119 2.38468 0.02 0 0 0 1 2
4412 1 1.26473 2.60414 0.02 0 0 0 1 2
4413 1 0.890241 2.60699 0.02 0 0 0 1 2
4414 1 1.40377 2.21278 0.02 0 0 0 1 2
4415 1 1.43355 2.44048 0.02 0 0 0 1 2
4541 1 1.51481 5.66205 0.02 0 0 0 1 2
4542 1 1.3668 5.83482 0.02 0 0 0 1 2
4565 1 0.399658 6.74959 0.02 0 0 0 1 2
4564 1 0.593615 6.74641 0.02 0 0 0 1 2
4420 1 0.513046 2.63014 0.02 0 0 0 1 2
4421 1 0.480901 2.827 0.02 0 0 0 1 2
4422 1 0.683568 2.85207 0.02 0 0 0 1 2
4423 1 0.467896 3.02259 0.02 0 0 0 1 2
4424 1 0.704288 2.64782 0.02 0 0 0 1 2
4426 1 0.878497 2.82491 0.02 0 0 0 1 2
4428 1 0.865054 3.03706 0.02 0 0 0 1 2
4425 1 1.07822 2.6105 0.02 0 0 0 1 2
4427 1 1.0693 2.81867 0.02 0 0 0 1 2
4429 1 1.06001 3.02366 0.02 0 0 0 1 2
4430 1 1.25741 2.82624 0.02 0 0 0 1 2
4431 1 1.45219 2.64989 0.02 0 0 0 1 2
4432 1 1.44683 2.8491 0.02 0 0 0 1 2
4540 1 1.19714 6.00148 0.02 0 0 0 1 2
4539 1 0.994029 5.95144 0.02 0 0 0 1 2
4538 1 1.16638 5.80416 0.02 0 0 0 1 2
4575 1 1.41399 6.57859 0.02 0 0 0 1 2
4437 1 0.6666 3.05042 0.02 0 0 0 1 2
4438 1 0.471932 3.21643 0.02 0 0 0 1 2
4439 1 0.682742 3.24491 0.02 0 0 0 1 2
4440 1 0.448347 3.40474 0.02 0 0 0 1 2
4441 1 0.658462 3.43299 0.02 0 0 0 1 2
4442 1 0.882935 3.2414 0.02 0 0 0 1 2
4444 1 0.877938 3.43516 0.02 0 0 0 1 2
4443 1 1.07678 3.22864 0.02 0 0 0 1 2
4445 1 1.09546 3.42999 0.02 0 0 0 1 2
4446 1 1.25357 3.04434 0.02 0 0 0 1 2
4447 1 1.27004 3.2563 0.02 0 0 0 1 2
4450 1 1.30297 3.45978 0.02 0 0 0 1 2
4448 1 1.44823 3.04529 0.02 0 0 0 1 2
4449 1 1.46337 3.24633 0.02 0 0 0 1 2
4451 1 1.49886 3.45548 0.02 0 0 0 1 2
4537 1 0.952633 5.76251 0.02 0 0 0 1 2
4536 1 0.793209 5.96756 0.02 0 0 0 1 2
4524 1 0.91924 5.57021 0.02 0 0 0 1 2
4574 1 1.34104 6.74258 0.02 0 -1.23447e-12 2.48027e-12 1 2
4456 1 0.475114 3.59391 0.02 0 0 0 1 2
4457 1 0.702717 3.61602 0.02 0 0 0 1 2
4458 1 0.489791 3.7867 0.02 0 0 0 1 2
4459 1 0.683341 3.80814 0.02 0 0 0 1 2
4462 1 0.884717 3.80114 0.02 0 0 0 1 2
4460 1 0.924864 3.61791 0.02 0 0 0 1 2
4461 1 1.13062 3.62564 0.02 0 0 0 1 2
4463 1 1.09767 3.81965 0.02 0 0 0 1 2
4464 1 1.32854 3.66321 0.02 0 0 0 1 2
4466 1 1.29893 3.86068 0.02 0 0 0 1 2
4523 1 1.07475 5.39909 0.02 0 0 0 1 2
4467 1 1.49812 3.87781 0.02 0 0 0 1 2
4555 1 1.19999 6.19133 0.02 0 0 0 1 2
4554 1 0.99671 6.14498 0.02 0 0 0 1 2
4470 1 0.518045 3.99119 0.02 0 0 0 1 2
4471 1 0.719172 4.00404 0.02 0 0 0 1 2
4472 1 0.523925 4.19558 0.02 0 0 0 1 2
4473 1 0.725684 4.19986 0.02 0 0 0 1 2
4474 1 0.925242 3.98731 0.02 0 0 0 1 2
4475 1 1.12973 4.02143 0.02 0 0 0 1 2
4476 1 0.932133 4.17843 0.02 0 0 0 1 2
4477 1 1.12866 4.22398 0.02 0 0 0 1 2
4478 1 1.33307 4.06035 0.02 0 0 0 1 2
4480 1 1.32401 4.25918 0.02 0 0 0 1 2
4522 1 0.873672 5.37633 0.02 0 0 0 1 2
4521 1 0.719628 5.58154 0.02 0 0 0 1 2
4553 1 0.779287 6.35336 0.02 0 0 0 1 2
4563 1 0.78285 6.7398 0.02 0 0 0 1 2
4552 1 0.584275 6.36436 0.02 0 0 0 1 2
4485 1 0.488604 4.39626 0.02 0 0 0 1 2
4486 1 0.691343 4.3972 0.02 0 0 0 1 2
4487 1 0.502704 4.59867 0.02 0 0 0 1 2
4488 1 0.697764 4.60099 0.02 0 0 0 1 2
4491 1 0.887651 4.57457 0.02 0 0 0 1 2
4489 1 0.895368 4.371 0.02 0 0 0 1 2
4490 1 1.09194 4.4219 0.02 0 0 0 1 2
4492 1 1.0771 4.62187 0.02 0 0 0 1 2
4493 1 1.27632 4.65183 0.02 0 0 0 1 2
4494 1 1.29098 4.45476 0.02 0 0 0 1 2
4495 1 1.4947 4.47893 0.02 0 0 0 1 2
4496 1 1.48573 4.66737 0.02 0 0 0 1 2
4551 1 0.794787 6.16131 0.02 0 0 0 1 2
4550 1 0.596111 6.16314 0.02 0 0 0 1 2
4499 1 0.444291 4.79559 0.02 0 0 0 1 2
4500 1 0.645047 4.80019 0.02 0 0 0 1 2
4501 1 0.404333 4.99298 0.02 0 0 0 1 2
4502 1 0.611392 4.99288 0.02 0 0 0 1 2
4503 1 0.427147 5.19263 0.02 0 0 0 1 2
4504 1 0.626074 5.18677 0.02 0 0 0 1 2
4505 1 0.843599 4.78934 0.02 0 0 0 1 2
4506 1 0.823326 4.9913 0.02 0 0 0 1 2
4507 1 0.830817 5.18495 0.02 0 0 0 1 2
4508 1 1.03946 4.81292 0.02 0 0 0 1 2
4509 1 1.03178 5.00598 0.02 0 0 0 1 2
4510 1 1.04288 5.19964 0.02 0 0 0 1 2
4511 1 1.24323 4.84548 0.02 0 0 0 1 2
4512 1 1.23969 5.03984 0.02 0 0 0 1 2
4513 1 1.45439 4.85077 0.02 0 0 0 1 2
4514 1 1.4474 5.03902 0.02 0 0 0 1 2
4535 1 0.591387 5.96439 0.02 0 0 0 1 2
4549 1 0.401621 6.19141 0.02 0 0 0 1 2
4572 1 1.19874 6.55855 0.02 0 0 0 1 2
4518 1 0.476544 5.3891 0.02 0 0 0 1 2
4519 1 0.674207 5.38358 0.02 0 0 0 1 2
4520 1 0.516709 5.58312 0.02 0 0 0 1 2
1509 2 2 -10 0 0 0 0 1 5
1510 2 2.2 -10 0 0 0 0 1 5
1511 2 2.4 -10 0 0 0 0 1 5
1543 2 2 -9.8 0 0 0 0 1 5
1544 2 2.2 -9.8 0 0 0 0 1 5
1545 2 2.4 -9.8 0 0 0 0 1 5
1577 2 2 -9.6 0 0 0 0 1 5
1578 2 2.2 -9.6 0 0 0 0 1 5
1579 2 2.4 -9.6 0 0 0 0 1 5
1512 2 2.6 -10 0 0 0 0 1 5
1513 2 2.8 -10 0 0 0 0 1 5
1546 2 2.6 -9.8 0 0 0 0 1 5
1547 2 2.8 -9.8 0 0 0 0 1 5
1580 2 2.6 -9.6 0 0 0 0 1 5
1581 2 2.8 -9.6 0 0 0 0 1 5
1645 2 2 -9.2 0 0 0 0 1 5
1646 2 2.2 -9.2 0 0 0 0 1 5
1647 2 2.4 -9.2 0 0 0 0 1 5
1613 2 2.4 -9.4 0 0 0 0 1 5
1612 2 2.2 -9.4 0 0 0 0 1 5
1611 2 2 -9.4 0 0 0 0 1 5
1648 2 2.6 -9.2 0 0 0 0 1 5
1649 2 2.8 -9.2 0 0 0 0 1 5
1615 2 2.8 -9.4 0 0 0 0 1 5
1614 2 2.6 -9.4 0 0 0 0 1 5
1679 2 2 -9 0 0 0 0 1 5
1680 2 2.2 -9 0 0 0 0 1 5
1681 2 2.4 -9 0 0 0 0 1 5
1713 2 2 -8.8 0 0 0 0 1 5
1714 2 2.2 -8.8 0 0 0 0 1 5
1715 2 2.4 -8.8 0 0 0 0 1 5
1682 2 2.6 -9 0 0 0 0 1 5
1683 2 2.8 -9 0 0 0 0 1 5
1716 2 2.6 -8.8 0 0 0 0 1 5
1717 2 2.8 -8.8 0 0 0 0 1 5
1783 2 2.4 -8.4 0 0 0 0 1 5
1782 2 2.2 -8.4 0 0 0 0 1 5
1781 2 2 -8.4 0 0 0 0 1 5
1747 2 2 -8.6 0 0 0 0 1 5
1748 2 2.2 -8.6 0 0 0 0 1 5
1749 2 2.4 -8.6 0 0 0 0 1 5
1785 2 2.8 -8.4 0 0 0 0 1 5
1784 2 2.6 -8.4 0 0 0 0 1 5
1750 2 2.6 -8.6 0 0 0 0 1 5
1751 2 2.8 -8.6 0 0 0 0 1 5
1851 2 2.4 -8 0 0 0 0 1 5
1850 2 2.2 -8 0 0 0 0 1 5
1849 2 2 -8 0 0 0 0 1 5
1817 2 2.4 -8.2 0 0 0 0 1 5
1816 2 2.2 -8.2 0 0 0 0 1 5
1815 2 2 -8.2 0 0 0 0 1 5
1853 2 2.8 -8 0 0 0 0 1 5
1852 2 2.6 -8 0 0 0 0 1 5
1819 2 2.8 -8.2 0 0 0 0 1 5
1818 2 2.6 -8.2 0 0 0 0 1 5
1953 2 2.4 -7.4 0 0 0 0 1.0105 5
1952 2 2.2 -7.4 0 0 0 0 1 5
1951 2 2 -7.4 0 0 0 0 0.993279 5
1919 2 2.4 -7.6 0 0 0 0 1 5
1918 2 2.2 -7.6 0 0 0 0 1 5
1917 2 2 -7.6 0 0 0 0 1 5
1885 2 2.4 -7.8 0 0 0 0 1 5
1884 2 2.2 -7.8 0 0 0 0 1 5
1883 2 2 -7.8 0 0 0 0 1 5
1955 2 2.8 -7.4 0 0 0 0 0.999586 5
1954 2 2.6 -7.4 0 0 0 0 0.999586 5
1921 2 2.8 -7.6 0 0 0 0 1 5
1920 2 2.6 -7.6 0 0 0 0 1 5
1887 2 2.8 -7.8 0 0 0 0 1 5
1886 2 2.6 -7.8 0 0 0 0 1 5
2021 2 2.4 -7 0 0 0 0 1.01049 5
2020 2 2.2 -7 0 0 0 0 1.00461 5
2019 2 2 -7 0 0 0 0 0.994137 5
1987 2 2.4 -7.2 0 0 0 0 1.01077 5
1986 2 2.2 -7.2 0 0 0 0 1.0076 5
1985 2 2 -7.2 0 0 0 0 0.993589 5
2023 2 2.8 -7 0 0 0 0 1.00028 5
2022 2 2.6 -7 0 0 0 0 1.00353 5
1989 2 2.8 -7.2 0 0 0 0 0.999875 5
1988 2 2.6 -7.2 0 0 0 0 1.00296 5
4188 1 2.59102 -6.74338 0.02 0 -0.00301722 -0.000192028 1 2
4189 1 2.54849 -6.5613 0.02 0 -0.000781639 -0.000140321 1 2
4190 1 2.79236 -6.74376 0.02 0 -0.00242265 -0.000371028 1 2
4192 1 2.74494 -6.55905 0.02 0 0.000491943 0.000493754 1 2
4381 1 1.60862 -1.62745 0.02 0 0 0 1 2
4193 1 2.94944 -6.55789 0.02 0 0.00026983 0.000493455 1 2
4362 1 1.79127 -1.26615 0.02 0 0 0 1 2
4378 1 1.76142 -1.45478 0.02 0 0 0 1 2
4203 1 2.40427 -6.14001 0.02 0 0 0 1 2
4202 1 2.58099 -6.37302 0.02 0 6.56791e-05 5.50808e-05 1 2
4204 1 2.58328 -6.17699 0.02 0 2.71174e-06 6.75549e-06 1 2
4205 1 2.78614 -6.37279 0.02 0 0.000159262 0.000174459 1 2
4207 1 2.77108 -6.17854 0.02 0 8.81477e-06 1.66975e-05 1 2
4395 1 1.62948 -2.01891 0.02 0 0 0 1 2
4208 1 2.96489 -6.17868 0.02 0 5.3614e-06 1.04966e-05 1 2
4408 1 1.72803 -2.59153 0.02 0 0 0 1 2
4586 1 1.76781 -3.33605 0.02 0 0 0 1 2
4219 1 2.62005 -5.97061 0.02 0 1.01419e-08 5.42623e-08 1 2
4220 1 2.6297 -5.7563 0.02 0 1.17922e-12 1.04794e-11 1 2
4217 1 2.4393 -5.9255 0.02 0 0 0 1 2
4218 1 2.44518 -5.71264 0.02 0 0 0 1 2
4223 1 2.8212 -5.77886 0.02 0 5.38397e-12 3.22367e-11 1 2
4221 1 2.80843 -5.98028 0.02 0 1.85747e-08 8.02917e-08 1 2
4394 1 1.61003 -1.82315 0.02 0 0 0 1 2
4409 1 1.64019 -2.21277 0.02 0 0 0 1 2
4345 1 1.84038 -0.708478 0.02 0 0 0 1 2
4570 1 1.75699 -3.529 0.02 0 0 0 1 2
4235 1 2.68048 -5.54901 0.02 0 0 0 1 2
4236 1 2.70996 -5.33819 0.02 0 0 0 1 2
4234 1 2.52022 -5.3037 0.02 0 0 0 1 2
4233 1 2.49651 -5.50855 0.02 0 0 0 1 2
4410 1 1.66825 -2.40347 0.02 0 0 0 1 2
4239 1 2.89778 -5.36188 0.02 0 -3.05373e-29 -6.20941e-29 1 2
4237 1 2.8664 -5.57536 0.02 0 0 0 1 2
4585 1 1.71601 -3.14203 0.02 0 0 0 1 2
4344 1 1.80186 -0.525463 0.02 0 0 0 1 2
4569 1 1.76926 -3.72582 0.02 0 0 0 1 2
4251 1 2.73699 -5.12959 0.02 0 -5.10683e-26 -3.66286e-26 1 2
4249 1 2.54529 -5.10115 0.02 0 0 0 1 2
4250 1 2.56806 -4.90474 0.02 0 -7.85495e-27 -4.81835e-28 1 2
4252 1 2.77168 -4.92745 0.02 0 -3.06219e-24 -1.25137e-24 1 2
4254 1 2.97063 -4.95315 0.02 0 -2.58173e-22 -1.32152e-22 1 2
4253 1 2.9288 -5.15335 0.02 0 -8.44717e-24 -6.82731e-24 1 2
4537 1 1.77159 -4.57507 0.02 0 0 0 1 2
4536 1 1.74917 -4.78034 0.02 0 0 0 1 2
4361 1 1.82205 -1.07509 0.02 0 0 0 1 2
4264 1 2.57447 -4.71094 0.02 0 -5.5883e-26 -2.25583e-27 1 2
4265 1 2.59742 -4.51876 0.02 0 -2.40225e-25 -1.52611e-26 1 2
4266 1 2.78006 -4.7287 0.02 0 -2.05956e-23 -4.71006e-24 1 2
4268 1 2.80289 -4.53358 0.02 0 -6.07239e-23 4.40476e-24 1 2
4431 1 1.65292 -2.94962 0.02 0 0 0 1 2
4554 1 1.61998 -3.95647 0.02 0 0 0 1 2
4553 1 1.61869 -4.15889 0.02 0 0 0 1 2
4360 1 1.79811 -0.888396 0.02 0 0 0 1 2
4379 1 1.80744 -1.64952 0.02 0 0 0 1 2
4521 1 1.74139 -4.98294 0.02 0 0 0 1 2
4281 1 2.43034 -4.15656 0.02 0 0 0 1 2
4282 1 2.4099 -3.96594 0.02 0 0 0 1 2
4285 1 2.62953 -4.12904 0.02 0 -2.59397e-25 -6.67955e-26 1 2
4284 1 2.61581 -3.93422 0.02 0 -6.40151e-25 7.77962e-26 1 2
4283 1 2.61222 -4.32599 0.02 0 -3.96578e-26 5.14635e-27 1 2
4280 1 2.40085 -4.34395 0.02 0 0 0 1 2
4286 1 2.81698 -4.33796 0.02 0 -3.16797e-23 7.08424e-24 1 2
4287 1 2.82622 -4.1395 0.02 0 -3.06455e-23 -1.01784e-23 1 2
4288 1 2.81803 -3.93728 0.02 0 -6.46851e-23 3.10813e-24 1 2
4535 1 1.61626 -4.36233 0.02 0 0 0 1 2
4365 1 1.61034 -1.08603 0.02 0 0 0 1 2
4393 1 1.83474 -2.04169 0.02 0 0 0 1 2
4392 1 1.81603 -1.84854 0.02 0 0 0 1 2
4300 1 2.57884 -3.5496 0.02 0 -4.00332e-26 -6.46217e-27 1 2
4299 1 2.58575 -3.74318 0.02 0 -1.12767e-26 3.19262e-27 1 2
4301 1 2.7871 -3.73511 0.02 0 -1.33929e-23 6.12366e-24 1 2
4302 1 2.7807 -3.53322 0.02 0 -4.61692e-24 -1.97002e-24 1 2
4346 1 1.59223 -0.515065 0.02 0 0 0 1 2
4304 1 2.98262 -3.54369 0.02 0 -3.50881e-23 -1.68109e-23 1 2
4520 1 1.7313 -5.18123 0.02 0 0 0 1 2
4329 1 1.78492 -0.14686 0.02 0 0 0 1 2
4314 1 2.52353 -3.1616 0.02 0 -6.33264e-26 -9.83843e-27 1 2
4316 1 2.72831 -3.1386 0.02 0 -1.2757e-23 5.78831e-26 1 2
4313 1 2.5723 -3.3537 0.02 0 -2.34089e-25 -3.28826e-26 1 2
4315 1 2.76801 -3.33242 0.02 0 -1.68219e-23 -3.78938e-24 1 2
4317 1 2.96468 -3.34465 0.02 0 -4.92646e-22 -2.52352e-22 1 2
4318 1 2.93503 -3.14456 0.02 0 -1.14744e-21 -6.31949e-24 1 2
4555 1 1.81602 -4.14738 0.02 0 0 0 1 2
4538 1 1.80389 -4.36212 0.02 0 0 0 1 2
4187 1 2.46018 -2.97151 0.02 0 -1.51758e-33 9.05518e-36 1 2
4185 1 2.66595 -2.95471 0.02 0 -9.93053e-25 3.47547e-25 1 2
4184 1 2.63087 -2.76671 0.02 0 -6.27748e-27 4.18738e-27 1 2
4186 1 2.42069 -2.77829 0.02 0 0 0 1 2
4182 1 2.8438 -2.76904 0.02 0 -2.17695e-24 1.93168e-24 1 2
4504 1 1.71329 -5.38236 0.02 0 0 0 1 2
4183 1 2.88477 -2.95552 0.02 0 -2.2587e-22 9.6667e-23 1 2
4502 1 1.70761 -5.58288 0.02 0 0 0 1 2
4084 1 2.96744 -0.0964376 0.02 0 -2.35514e-29 -4.42315e-29 1 2
4485 1 1.64807 -5.98166 0.02 0 2.61786e-11 2.58665e-10 1 2
4171 1 2.47445 -2.20346 0.02 0 -3.99815e-28 -7.54058e-29 1 2
4166 1 2.68228 -2.20619 0.02 0 -2.83666e-24 -8.9193e-25 1 2
4170 1 2.60767 -2.57686 0.02 0 -4.9348e-29 -1.87331e-29 1 2
4172 1 2.53456 -2.39263 0.02 0 -2.0423e-28 -5.02723e-29 1 2
4169 1 2.82119 -2.57956 0.02 0 -1.67772e-25 -1.05033e-25 1 2
4168 1 2.75187 -2.39382 0.02 0 -1.13574e-24 -7.19558e-25 1 2
4332 1 1.59582 -0.318491 0.02 0 0 0 1 2
4167 1 2.97397 -2.40325 0.02 0 -1.11936e-21 -6.23596e-22 1 2
4165 1 2.89689 -2.22235 0.02 0 -1.47556e-21 -4.64066e-22 1 2
4407 1 1.85547 -2.22961 0.02 0 0 0 1 2
4330 1 1.80259 -0.338382 0.02 0 0 0 1 2
4088 1 2.57392 -0.0795721 0.02 0 0 0 1 2
4154 1 2.47537 -2.01108 0.02 0 -7.60291e-27 -9.26051e-28 1 2
4152 1 2.69215 -2.01605 0.02 0 -1.01212e-23 -6.9878e-25 1 2
4150 1 2.65993 -1.82759 0.02 0 -4.01065e-24 1.1055e-26 1 2
4153 1 2.44468 -1.82201 0.02 0 -1.25031e-27 -3.85953e-29 1 2
4089 1 2.42243 -0.305215 0.02 0 0 0 1 2
4488 1 1.85592 -5.94042 0.02 0 1.26132e-09 5.3855e-09 1 2
4149 1 2.87124 -1.8448 0.02 0 -2.26482e-21 1.71119e-22 1 2
4487 1 1.68724 -5.78539 0.02 0 0 0 1 2
4151 1 2.9097 -2.03552 0.02 0 -4.07697e-21 -4.52904e-22 1 2
4139 1 2.43178 -1.43625 0.02 0 0 0 1 2
4137 1 2.82024 -1.65096 0.02 0 -3.93335e-22 9.46306e-23 1 2
4138 1 2.60553 -1.64077 0.02 0 -1.63105e-25 3.95721e-26 1 2
4136 1 2.64867 -1.45465 0.02 0 -8.22522e-26 2.49847e-26 1 2
4140 1 2.40231 -1.62788 0.02 0 0 0 1 2
4085 1 2.81319 -0.283804 0.02 0 -2.08445e-26 2.06393e-26 1 2
4087 1 2.61871 -0.280143 0.02 0 0 0 1 2
4428 1 1.86231 -2.9734 0.02 0 0 0 1 2
4135 1 2.86107 -1.4638 0.02 0 -1.54054e-22 8.35139e-23 1 2
4469 1 1.63781 -6.37843 0.02 0 5.30906e-08 3.19172e-06 1 2
4471 1 1.65694 -6.18053 0.02 0 5.60165e-09 9.23397e-08 1 2
4473 1 1.84542 -6.1381 0.02 0 -4.663e-07 8.80528e-07 1 2
4119 1 2.62775 -1.26511 0.02 0 -2.9497e-31 -5.10356e-32 1 2
4114 1 2.68131 -0.883943 0.02 0 -3.20643e-25 -2.29418e-26 1 2
4117 1 2.69109 -1.08101 0.02 0 -1.19413e-25 -2.84359e-26 1 2
4120 1 2.47315 -0.880388 0.02 0 0 0 1 2
4122 1 2.41522 -1.24645 0.02 0 0 0 1 2
4121 1 2.47688 -1.06698 0.02 0 0 0 1 2
4115 1 2.88529 -0.893822 0.02 0 -5.6408e-23 -1.53257e-24 1 2
4116 1 2.89832 -1.0892 0.02 0 -3.45024e-23 -1.21069e-23 1 2
4472 1 1.83042 -6.34191 0.02 0 -1.13538e-05 1.90023e-05 1 2
4118 1 2.8467 -1.27452 0.02 0 -7.41699e-24 4.12112e-24 1 2
4086 1 2.76949 -0.0724624 0.02 0 0 0 1 2
4457 1 1.81176 -6.54093 0.02 0 -1.40538e-05 1.92928e-05 1 2
4456 1 1.81234 -6.72978 0.02 0 -0.00125143 -0.000241466 1 2
4101 1 2.6448 -0.481695 0.02 0 -3.2088e-27 1.14648e-27 1 2
4105 1 2.47151 -0.689049 0.02 0 0 0 1 2
4104 1 2.43826 -0.498796 0.02 0 0 0 1 2
4103 1 2.67109 -0.682318 0.02 0 -2.88143e-25 1.54433e-26 1 2
4427 1 1.79722 -2.77787 0.02 0 0 0 1 2
4556 1 1.80786 -3.93219 0.02 0 0 0 1 2
4102 1 2.86769 -0.694672 0.02 0 -2.92524e-23 4.31135e-24 1 2
4100 1 2.84708 -0.491176 0.02 0 -5.42711e-24 3.01117e-24 1 2
4455 1 1.61661 -6.56947 0.02 0 -2.25276e-06 2.87731e-06 1 2
4453 1 1.61354 -6.75696 0.02 0 -0.000185464 -0.000120486 1 2
4348 1 1.61788 -0.707188 0.02 0 0 0 1 2
4331 1 1.58201 -0.117902 0.02 0 0 0 1 2
4366 1 1.57862 -1.27068 0.02 0 0 0 1 2
4514 1 1.52581 -5.18545 0.02 0 0 0 1 2
4518 1 1.54265 -4.98686 0.02 0 0 0 1 2
4519 1 1.55174 -4.78311 0.02 0 0 0 1 2
4534 1 1.57985 -4.5737 0.02 0 0 0 1 2
4567 1 1.57191 -3.75222 0.02 0 0 0 1 2
4568 1 1.54937 -3.5508 0.02 0 0 0 1 2
4583 1 1.56211 -3.35206 0.02 0 0 0 1 2
4363 1 1.58543 -0.89668 0.02 0 0 0 1 2
4429 1 1.57778 -2.7644 0.02 0 0 0 1 2
4380 1 1.52977 -1.44814 0.02 0 0 0 1 2
4077 1 2.73029 0.140437 0.02 0 0 0 1 2
4078 1 2.68917 0.351439 0.02 0 0 0 1 2
4075 1 2.49794 0.322981 0.02 0 0 0 1 2
4076 1 2.53863 0.121934 0.02 0 0 0 1 2
4546 1 1.70986 5.68375 0.02 0 0 0 1 2
4080 1 2.92353 0.109445 0.02 0 -1.84869e-30 -3.06784e-30 1 2
4079 1 2.88223 0.32238 0.02 0 0 0 1 2
4532 1 1.66137 5.48151 0.02 0 0 0 1 2
454 2 2.6 9.6 0 0 0 0 1 5
455 2 2.8 9.6 0 0 0 0 1 5
4091 1 2.66504 0.559983 0.02 0 0 0 1 2
4092 1 2.65746 0.764451 0.02 0 -1.96941e-26 -1.0402e-26 1 2
4089 1 2.47469 0.52816 0.02 0 0 0 1 2
4090 1 2.46334 0.737242 0.02 0 0 0 1 2
4515 1 1.64879 5.073 0.02 0 0 0 1 2
4529 1 1.65852 5.27991 0.02 0 0 0 1 2
4093 1 2.85776 0.537004 0.02 0 -8.07351e-28 -1.35032e-27 1 2
4094 1 2.85624 0.747367 0.02 0 -5.34897e-24 -4.46655e-24 1 2
488 2 2.6 9.8 0 0 0 0 1 5
4562 1 1.82152 6.25729 0.02 0 -2.16593e-06 -2.99279e-06 1 2
4108 1 2.66117 0.968169 0.02 0 -1.28636e-24 -3.00374e-25 1 2
4109 1 2.63822 1.17329 0.02 0 -4.59549e-24 -7.8576e-25 1 2
4106 1 2.47 0.95141 0.02 0 0 0 1 2
4107 1 2.45611 1.17555 0.02 0 0 0 1 2
4111 1 2.82467 1.17493 0.02 0 -3.56343e-22 -8.92528e-23 1 2
4453 1 1.65448 3.2854 0.02 0 0 0 1 2
4452 1 1.64126 3.06404 0.02 0 0 0 1 2
4110 1 2.85195 0.958969 0.02 0 -1.17252e-22 -4.47187e-23 1 2
4548 1 1.82508 6.07412 0.02 0 -6.95347e-09 -4.12397e-08 1 2
4517 1 1.84066 5.13401 0.02 0 0 0 1 2
4125 1 2.63364 1.38065 0.02 0 -7.27782e-24 7.69974e-26 1 2
4122 1 2.42173 1.63873 0.02 0 0 0 1 2
4123 1 2.44595 1.40367 0.02 0 0 0 1 2
4124 1 2.60032 1.58808 0.02 0 -1.28864e-24 1.03955e-25 1 2
4126 1 2.82384 1.38823 0.02 0 -5.66994e-22 2.56739e-23 1 2
4127 1 2.79021 1.59472 0.02 0 -1.43635e-22 3.1294e-23 1 2
4128 1 2.98217 1.59281 0.02 0 -5.42584e-21 1.50128e-21 1 2
4576 1 1.61869 6.6016 0.02 0 3.14271e-06 -3.45772e-05 1 2
4455 1 1.84435 3.32961 0.02 0 0 0 1 2
4547 1 1.75809 5.88292 0.02 0 1.86453e-13 -3.68315e-13 1 2
4483 1 1.73102 4.11934 0.02 0 0 0 1 2
4141 1 2.61337 1.80296 0.02 0 -1.01241e-25 4.31601e-26 1 2
4142 1 2.65762 2.01865 0.02 0 0 0 1 2
4139 1 2.43799 1.86503 0.02 0 0 0 1 2
4140 1 2.47597 2.07346 0.02 0 0 0 1 2
4143 1 2.8017 1.80049 0.02 0 -1.62228e-23 1.08789e-23 1 2
4434 1 1.63713 2.83595 0.02 0 0 0 1 2
4433 1 1.63907 2.61128 0.02 0 0 0 1 2
4144 1 2.84643 2.00471 0.02 0 -1.63165e-24 -1.00155e-24 1 2
4454 1 1.82802 3.12166 0.02 0 0 0 1 2
4436 1 1.81209 2.90893 0.02 0 0 0 1 2
4157 1 2.68215 2.23665 0.02 0 -5.34297e-25 -1.073e-25 1 2
4158 1 2.71489 2.4519 0.02 0 -2.11531e-24 2.8008e-25 1 2
4156 1 2.52758 2.48051 0.02 0 -5.30682e-30 -3.46984e-31 1 2
4155 1 2.5001 2.27936 0.02 0 0 0 1 2
4516 1 1.67227 4.88111 0.02 0 0 0 1 2
4498 1 1.69539 4.69355 0.02 0 0 0 1 2
4160 1 2.89888 2.43239 0.02 0 -6.61984e-23 1.03761e-23 1 2
4159 1 2.8656 2.21508 0.02 0 -3.94168e-23 -1.61456e-23 1 2
4577 1 1.79742 6.76411 0.02 0 -0.0017308 0.000571848 1 2
4170 1 2.52752 2.89132 0.02 0 -1.24679e-30 2.4069e-31 1 2
4171 1 2.73431 2.66472 0.02 0 -1.1339e-25 5.48584e-26 1 2
4172 1 2.71622 2.87356 0.02 0 -1.03263e-28 5.45718e-29 1 2
4169 1 2.54612 2.68252 0.02 0 -2.70666e-29 1.41828e-30 1 2
4497 1 1.70561 4.50525 0.02 0 0 0 1 2
4173 1 2.90315 2.89397 0.02 0 -1.81032e-28 2.34791e-28 1 2
4174 1 2.91587 2.65796 0.02 0 -2.42703e-24 2.01862e-24 1 2
4484 1 1.72305 4.31538 0.02 0 0 0 1 2
489 2 2.8 9.8 0 0 0 0 1 5
485 2 2 9.8 0 0 0 0 1 5
4185 1 2.41855 3.35595 0.02 0 0 0 1 2
4187 1 2.6041 3.30812 0.02 0 0 0 1 2
4186 1 2.5719 3.09781 0.02 0 -1.54528e-42 6.81955e-43 1 2
4188 1 2.75906 3.08041 0.02 0 -2.92115e-30 3.33621e-30 1 2
4189 1 2.79259 3.29354 0.02 0 0 0 1 2
4191 1 2.98002 3.3474 0.02 0 0 0 1 2
4190 1 2.94327 3.12675 0.02 0 -1.45037e-30 4.49119e-30 1 2
4419 1 1.79457 2.4405 0.02 0 0 0 1 2
4482 1 1.69476 3.92059 0.02 0 0 0 1 2
451 2 2 9.6 0 0 0 0 1 5
486 2 2.2 9.8 0 0 0 0 1 5
4200 1 2.45366 3.55878 0.02 0 0 0 1 2
4204 1 2.63026 3.74968 0.02 0 0 0 1 2
4202 1 2.63671 3.52209 0.02 0 0 0 1 2
4201 1 2.44186 3.75976 0.02 0 0 0 1 2
4203 1 2.82047 3.50721 0.02 0 0 0 1 2
4205 1 2.81353 3.71909 0.02 0 0 0 1 2
4417 1 1.615 2.3939 0.02 0 0 0 1 2
4416 1 1.58676 2.18797 0.02 0 0 0 1 2
4578 1 1.82055 6.58593 0.02 0 -0.000403262 -0.000134284 1 2