ITEM: TIMESTEP
0
ITEM: NUMBER OF ATOMS
620
ITEM: BOX BOUNDS ff ff pp
0.0000000000000000e+00 4.4000000000000004e+00
-1.0000000000000000e+01 1.0000000000000000e+01
-2.0000000000000000e-02 2.0000000000000000e-02
ITEM: ATOMS id type x y vx vy fx fy c_den c_phase
1501 2 0.4 -10 0 0 0 0 1 5
1535 2 0.4 -9.8 0 0 0 0 1 5
1569 2 0.4 -9.6 0 0 0 0 1 5
1502 2 0.6 -10 0 0 0 0 1 5
1503 2 0.8 -10 0 0 0 0 1 5
1536 2 0.6 -9.8 0 0 0 0 1 5
1537 2 0.8 -9.8 0 0 0 0 1 5
1570 2 0.6 -9.6 0 0 0 0 1 5
1571 2 0.8 -9.6 0 0 0 0 1 5
1504 2 1 -10 0 0 0 0 1 5
1505 2 1.2 -10 0 0 0 0 1 5
1506 2 1.4 -10 0 0 0 0 1 5
1538 2 1 -9.8 0 0 0 0 1 5
1539 2 1.2 -9.8 0 0 0 0 1 5
1540 2 1.4 -9.8 0 0 0 0 1 5
1572 2 1 -9.6 0 0 0 0 1 5
1573 2 1.2 -9.6 0 0 0 0 1 5
1574 2 1.4 -9.6 0 0 0 0 1 5
1637 2 0.4 -9.2 0 0 0 0 1 5
1603 2 0.4 -9.4 0 0 0 0 1 5
1638 2 0.6 -9.2 0 0 0 0 1 5
1639 2 0.8 -9.2 0 0 0 0 1 5
1605 2 0.8 -9.4 0 0 0 0 1 5
1604 2 0.6 -9.4 0 0 0 0 1 5
1640 2 1 -9.2 0 0 0 0 1 5
1641 2 1.2 -9.2 0 0 0 0 1 5
1642 2 1.4 -9.2 0 0 0 0 1 5
1608 2 1.4 -9.4 0 0 0 0 1 5
1607 2 1.2 -9.4 0 0 0 0 1 5
1606 2 1 -9.4 0 0 0 0 1 5
1671 2 0.4 -9 0 0 0 0 1 5
1705 2 0.4 -8.8 0 0 0 0 1 5
1672 2 0.6 -9 0 0 0 0 1 5
1673 2 0.8 -9 0 0 0 0 1 5
1706 2 0.6 -8.8 0 0 0 0 1 5
1707 2 0.8 -8.8 0 0 0 0 1 5
1674 2 1 -9 0 0 0 0 1 5
1675 2 1.2 -9 0 0 0 0 1 5
1676 2 1.4 -9 0 0 0 0 1 5
1708 2 1 -8.8 0 0 0 0 1 5
1709 2 1.2 -8.8 0 0 0 0 1 5
1710 2 1.4 -8.8 0 0 0 0 1 5
1773 2 0.4 -8.4 0 0 0 0 1 5
1739 2 0.4 -8.6 0 0 0 0 1 5
1775 2 0.8 -8.4 0 0 0 0 1 5
1774 2 0.6 -8.4 0 0 0 0 1 5
1741 2 0.8 -8.6 0 0 0 0 1 5
1740 2 0.6 -8.6 0 0 0 0 1 5
1778 2 1.4 -8.4 0 0 0 0 1 5
1777 2 1.2 -8.4 0 0 0 0 1 5
1776 2 1 -8.4 0 0 0 0 1 5
1744 2 1.4 -8.6 0 0 0 0 1 5
1743 2 1.2 -8.6 0 0 0 0 1 5
1742 2 1 -8.6 0 0 0 0 1 5
1841 2 0.4 -8 0 0 0 0 1 5
1807 2 0.4 -8.2 0 0 0 0 1 5
1843 2 0.8 -8 0 0 0 0 1 5
1842 2 0.6 -8 0 0 0 0 1 5
1809 2 0.8 -8.2 0 0 0 0 1 5
1808 2 0.6 -8.2 0 0 0 0 1 5
1846 2 1.4 -8 0 0 0 0 1 5
1845 2 1.2 -8 0 0 0 0 1 5
1844 2 1 -8 0 0 0 0 1 5
1812 2 1.4 -8.2 0 0 0 0 1 5
1811 2 1.2 -8.2 0 0 0 0 1 5
1810 2 1 -8.2 0 0 0 0 1 5
1943 2 0.4 -7.4 0 0 0 0 1 5
1909 2 0.4 -7.6 0 0 0 0 1 5
1875 2 0.4 -7.8 0 0 0 0 1 5
1945 2 0.8 -7.4 0 0 0 0 1 5
1944 2 0.6 -7.4 0 0 0 0 1 5
1911 2 0.8 -7.6 0 0 0 0 1 5
1910 2 0.6 -7.6 0 0 0 0 1 5
1877 2 0.8 -7.8 0 0 0 0 1 5
1876 2 0.6 -7.8 0 0 0 0 1 5
1948 2 1.4 -7.4 0 0 0 0 1 5
1947 2 1.2 -7.4 0 0 0 0 1 5
1946 2 1 -7.4 0 0 0 0 1 5
1914 2 1.4 -7.6 0 0 0 0 1 5
1913 2 1.2 -7.6 0 0 0 0 1 5
1912 2 1 -7.6 0 0 0 0 1 5
1880 2 1.4 -7.8 0 0 0 0 1 5
1879 2 1.2 -7.8 0 0 0 0 1 5
1878 2 1 -7.8 0 0 0 0 1 5
2011 2 0.4 -7 0 0 0 0 1 5
1977 2 0.4 -7.2 0 0 0 0 1 5
2013 2 0.8 -7 0 0 0 0 1 5
2012 2 0.6 -7 0 0 0 0 1 5
1979 2 0.8 -7.2 0 0 0 0 1 5
1978 2 0.6 -7.2 0 0 0 0 1 5
2016 2 1.4 -7 0 0 0 0 1 5
2015 2 1.2 -7 0 0 0 0 1 5
2014 2 1 -7 0 0 0 0 1 5
1982 2 1.4 -7.2 0 0 0 0 1 5
1981 2 1.2 -7.2 0 0 0 0 1 5
1980 2 1 -7.2 0 0 0 0 1 5
1 2 0.4 7 0 0 0 0 1 5
35 2 0.4 7.2 0 0 0 0 1 5
2 2 0.6 7 0 0 0 0 1 5
3 2 0.8 7 0 0 0 0 1 5
36 2 0.6 7.2 0 0 0 0 1 5
37 2 0.8 7.2 0 0 0 0 1 5
4 2 1 7 0 0 0 0 1 5
5 2 1.2 7 0 0 0 0 1 5
6 2 1.4 7 0 0 0 0 1 5
38 2 1 7.2 0 0 0 0 1 5
39 2 1.2 7.2 0 0 0 0 1 5
40 2 1.4 7.2 0 0 0 0 1 5
137 2 0.4 7.8 0 0 0 0 1 5
103 2 0.4 7.6 0 0 0 0 1 5
69 2 0.4 7.4 0 0 0 0 1 5
138 2 0.6 7.8 0 0 0 0 1 5
139 2 0.8 7.8 0 0 0 0 1 5
105 2 0.8 7.6 0 0 0 0 1 5
104 2 0.6 7.6 0 0 0 0 1 5
70 2 0.6 7.4 0 0 0 0 1 5
71 2 0.8 7.4 0 0 0 0 1 5
140 2 1 7.8 0 0 0 0 1 5
141 2 1.2 7.8 0 0 0 0 1 5
142 2 1.4 7.8 0 0 0 0 1 5
108 2 1.4 7.6 0 0 0 0 1 5
107 2 1.2 7.6 0 0 0 0 1 5
106 2 1 7.6 0 0 0 0 1 5
72 2 1 7.4 0 0 0 0 1 5
73 2 1.2 7.4 0 0 0 0 1 5
74 2 1.4 7.4 0 0 0 0 1 5
171 2 0.4 8 0 0 0 0 1 5
205 2 0.4 8.2 0 0 0 0 1 5
172 2 0.6 8 0 0 0 0 1 5
173 2 0.8 8 0 0 0 0 1 5
206 2 0.6 8.2 0 0 0 0 1 5
207 2 0.8 8.2 0 0 0 0 1 5
174 2 1 8 0 0 0 0 1 5
175 2 1.2 8 0 0 0 0 1 5
176 2 1.4 8 0 0 0 0 1 5
208 2 1 8.2 0 0 0 0 1 5
209 2 1.2 8.2 0 0 0 0 1 5
210 2 1.4 8.2 0 0 0 0 1 5
273 2 0.4 8.6 0 0 0 0 1 5
239 2 0.4 8.4 0 0 0 0 1 5
275 2 0.8 8.6 0 0 0 0 1 5
274 2 0.6 8.6 0 0 0 0 1 5
241 2 0.8 8.4 0 0 0 0 1 5
240 2 0.6 8.4 0 0 0 0 1 5
278 2 1.4 8.6 0 0 0 0 1 5
277 2 1.2 8.6 0 0 0 0 1 5
276 2 1 8.6 0 0 0 0 1 5
244 2 1.4 8.4 0 0 0 0 1 5
243 2 1.2 8.4 0 0 0 0 1 5
242 2 1 8.4 0 0 0 0 1 5
341 2 0.4 9 0 0 0 0 1 5
307 2 0.4 8.8 0 0 0 0 1 5
343 2 0.8 9 0 0 0 0 1 5
342 2 0.6 9 0 0 0 0 1 5
309 2 0.8 8.8 0 0 0 0 1 5
308 2 0.6 8.8 0 0 0 0 1 5
346 2 1.4 9 0 0 0 0 1 5
345 2 1.2 9 0 0 0 0 1 5
344 2 1 9 0 0 0 0 1 5
312 2 1.4 8.8 0 0 0 0 1 5
311 2 1.2 8.8 0 0 0 0 1 5
310 2 1 8.8 0 0 0 0 1 5
409 2 0.4 9.4 0 0 0 0 1 5
375 2 0.4 9.2 0 0 0 0 1 5
411 2 0.8 9.4 0 0 0 0 1 5
410 2 0.6 9.4 0 0 0 0 1 5
377 2 0.8 9.2 0 0 0 0 1 5
376 2 0.6 9.2 0 0 0 0 1 5
414 2 1.4 9.4 0 0 0 0 1 5
413 2 1.2 9.4 0 0 0 0 1 5
412 2 1 9.4 0 0 0 0 1 5
380 2 1.4 9.2 0 0 0 0 1 5
379 2 1.2 9.2 0 0 0 0 1 5
378 2 1 9.2 0 0 0 0 1 5
477 2 0.4 9.8 0 0 0 0 1 5
443 2 0.4 9.6 0 0 0 0 1 5
479 2 0.8 9.8 0 0 0 0 1 5
478 2 0.6 9.8 0 0 0 0 1 5
445 2 0.8 9.6 0 0 0 0 1 5
444 2 0.6 9.6 0 0 0 0 1 5
482 2 1.4 9.8 0 0 0 0 1 5
481 2 1.2 9.8 0 0 0 0 1 5
480 2 1 9.8 0 0 0 0 1 5
448 2 1.4 9.6 0 0 0 0 1 5
447 2 1.2 9.6 0 0 0 0 1 5
446 2 1 9.6 0 0 0 0 1 5
1507 2 1.6 -10 0 0 0 0 1 5
1508 2 1.8 -10 0 0 0 0 1 5
1541 2 1.6 -9.8 0 0 0 0 1 5
1542 2 1.8 -9.8 0 0 0 0 1 5
1575 2 1.6 -9.6 0 0 0 0 1 5
1576 2 1.8 -9.6 0 0 0 0 1 5
1509 2 2 -10 0 0 0 0 1 5
1510 2 2.2 -10 0 0 0 0 1 5
1511 2 2.4 -10 0 0 0 0 1 5
1543 2 2 -9.8 0 0 0 0 1 5
1544 2 2.2 -9.8 0 0 0 0 1 5
1545 2 2.4 -9.8 0 0 0 0 1 5
1577 2 2 -9.6 0 0 0 0 1 5
1578 2 2.2 -9.6 0 0 0 0 1 5
1579 2 2.4 -9.6 0 0 0 0 1 5
1512 2 2.6 -10 0 0 0 0 1 5
1513 2 2.8 -10 0 0 0 0 1 5
1546 2 2.6 -9.8 0 0 0 0 1 5
1547 2 2.8 -9.8 0 0 0 0 1 5
1580 2 2.6 -9.6 0 0 0 0 1 5
1581 2 2.8 -9.6 0 0 0 0 1 5
1643 2 1.6 -9.2 0 0 0 0 1 5
1644 2 1.8 -9.2 0 0 0 0 1 5
1610 2 1.8 -9.4 0 0 0 0 1 5
1609 2 1.6 -9.4 0 0 0 0 1 5
1645 2 2 -9.2 0 0 0 0 1 5
1646 2 2.2 -9.2 0 0 0 0 1 5
1647 2 2.4 -9.2 0 0 0 0 1 5
1613 2 2.4 -9.4 0 0 0 0 1 5
1612 2 2.2 -9.4 0 0 0 0 1 5
1611 2 2 -9.4 0 0 0 0 1 5
1648 2 2.6 -9.2 0 0 0 0 1 5
1649 2 2.8 -9.2 0 0 0 0 1 5
1615 2 2.8 -9.4 0 0 0 0 1 5
1614 2 2.6 -9.4 0 0 0 0 1 5
1677 2 1.6 -9 0 0 0 0 1 5
1678 2 1.8 -9 0 0 0 0 1 5
1712 2 1.8 -8.8 0 0 0 0 1 5
1711 2 1.6 -8.8 0 0 0 0 1 5
1679 2 2 -9 0 0 0 0 1 5
1680 2 2.2 -9 0 0 0 0 1 5
1681 2 2.4 -9 0 0 0 0 1 5
1713 2 2 -8.8 0 0 0 0 1 5
1714 2 2.2 -8.8 0 0 0 0 1 5
1715 2 2.4 -8.8 0 0 0 0 1 5
1682 2 2.6 -9 0 0 0 0 1 5
1683 2 2.8 -9 0 0 0 0 1 5
1716 2 2.6 -8.8 0 0 0 0 1 5
1717 2 2.8 -8.8 0 0 0 0 1 5
1780 2 1.8 -8.4 0 0 0 0 1 5
1779 2 1.6 -8.4 0 0 0 0 1 5
1746 2 1.8 -8.6 0 0 0 0 1 5
1745 2 1.6 -8.6 0 0 0 0 1 5
1783 2 2.4 -8.4 0 0 0 0 1 5
1782 2 2.2 -8.4 0 0 0 0 1 5
1781 2 2 -8.4 0 0 0 0 1 5
1747 2 2 -8.6 0 0 0 0 1 5
1748 2 2.2 -8.6 0 0 0 0 1 5
1749 2 2.4 -8.6 0 0 0 0 1 5
1785 2 2.8 -8.4 0 0 0 0 1 5
1784 2 2.6 -8.4 0 0 0 0 1 5
1750 2 2.6 -8.6 0 0 0 0 1 5
1751 2 2.8 -8.6 0 0 0 0 1 5
1848 2 1.8 -8 0 0 0 0 1 5
1847 2 1.6 -8 0 0 0 0 1 5
1814 2 1.8 -8.2 0 0 0 0 1 5
1813 2 1.6 -8.2 0 0 0 0 1 5
1851 2 2.4 -8 0 0 0 0 1 5
1850 2 2.2 -8 0 0 0 0 1 5
1849 2 2 -8 0 0 0 0 1 5
1817 2 2.4 -8.2 0 0 0 0 1 5
1816 2 2.2 -8.2 0 0 0 0 1 5
1815 2 2 -8.2 0 0 0 0 1 5
1853 2 2.8 -8 0 0 0 0 1 5
1852 2 2.6 -8 0 0 0 0 1 5
1819 2 2.8 -8.2 0 0 0 0 1 5
1818 2 2.6 -8.2 0 0 0 0 1 5
1950 2 1.8 -7.4 0 0 0 0 1 5
1949 2 1.6 -7.4 0 0 0 0 1 5
1916 2 1.8 -7.6 0 0 0 0 1 5
1915 2 1.6 -7.6 0 0 0 0 1 5
1882 2 1.8 -7.8 0 0 0 0 1 5
1881 2 1.6 -7.8 0 0 0 0 1 5
1953 2 2.4 -7.4 0 0 0 0 1 5
1952 2 2.2 -7.4 0 0 0 0 1 5
1951 2 2 -7.4 0 0 0 0 1 5
1919 2 2.4 -7.6 0 0 0 0 1 5
1918 2 2.2 -7.6 0 0 0 0 1 5
1917 2 2 -7.6 0 0 0 0 1 5
1885 2 2.4 -7.8 0 0 0 0 1 5
1884 2 2.2 -7.8 0 0 0 0 1 5
1883 2 2 -7.8 0 0 0 0 1 5
1955 2 2.8 -7.4 0 0 0 0 1 5
1954 2 2.6 -7.4 0 0 0 0 1 5
1921 2 2.8 -7.6 0 0 0 0 1 5
1920 2 2.6 -7.6 0 0 0 0 1 5
1887 2 2.8 -7.8 0 0 0 0 1 5
1886 2 2.6 -7.8 0 0 0 0 1 5
2018 2 1.8 -7 0 0 0 0 1 5
2017 2 1.6 -7 0 0 0 0 1 5
1984 2 1.8 -7.2 0 0 0 0 1 5
1983 2 1.6 -7.2 0 0 0 0 1 5
2021 2 2.4 -7 0 0 0 0 1 5
2020 2 2.2 -7 0 0 0 0 1 5
2019 2 2 -7 0 0 0 0 1 5
1987 2 2.4 -7.2 0 0 0 0 1 5
1986 2 2.2 -7.2 0 0 0 0 1 5
1985 2 2 -7.2 0 0 0 0 1 5
2023 2 2.8 -7 0 0 0 0 1 5
2022 2 2.6 -7 0 0 0 0 1 5
1989 2 2.8 -7.2 0 0 0 0 1 5
1988 2 2.6 -7.2 0 0 0 0 1 5
7 2 1.6 7 0 0 0 0 1 5
8 2 1.8 7 0 0 0 0 1 5
41 2 1.6 7.2 0 0 0 0 1 5
42 2 1.8 7.2 0 0 0 0 1 5
9 2 2 7 0 0 0 0 1 5
10 2 2.2 7 0 0 0 0 1 5
11 2 2.4 7 0 0 0 0 1 5
43 2 2 7.2 0 0 0 0 1 5
44 2 2.2 7.2 0 0 0 0 1 5
45 2 2.4 7.2 0 0 0 0 1 5
12 2 2.6 7 0 0 0 0 1 5
13 2 2.8 7 0 0 0 0 1 5
46 2 2.6 7.2 0 0 0 0 1 5
47 2 2.8 7.2 0 0 0 0 1 5
143 2 1.6 7.8 0 0 0 0 1 5
144 2 1.8 7.8 0 0 0 0 1 5
110 2 1.8 7.6 0 0 0 0 1 5
109 2 1.6 7.6 0 0 0 0 1 5
75 2 1.6 7.4 0 0 0 0 1 5
76 2 1.8 7.4 0 0 0 0 1 5
145 2 2 7.8 0 0 0 0 1 5
146 2 2.2 7.8 0 0 0 0 1 5
147 2 2.4 7.8 0 0 0 0 1 5
113 2 2.4 7.6 0 0 0 0 1 5
112 2 2.2 7.6 0 0 0 0 1 5
111 2 2 7.6 0 0 0 0 1 5
77 2 2 7.4 0 0 0 0 1 5
78 2 2.2 7.4 0 0 0 0 1 5
79 2 2.4 7.4 0 0 0 0 1 5
115 2 2.8 7.6 0 0 0 0 1 5
114 2 2.6 7.6 0 0 0 0 1 5
148 2 2.6 7.8 0 0 0 0 1 5
149 2 2.8 7.8 0 0 0 0 1 5
80 2 2.6 7.4 0 0 0 0 1 5
81 2 2.8 7.4 0 0 0 0 1 5
177 2 1.6 8 0 0 0 0 1 5
178 2 1.8 8 0 0 0 0 1 5
212 2 1.8 8.2 0 0 0 0 1 5
211 2 1.6 8.2 0 0 0 0 1 5
179 2 2 8 0 0 0 0 1 5
180 2 2.2 8 0 0 0 0 1 5
181 2 2.4 8 0 0 0 0 1 5
213 2 2 8.2 0 0 0 0 1 5
214 2 2.2 8.2 0 0 0 0 1 5
215 2 2.4 8.2 0 0 0 0 1 5
182 2 2.6 8 0 0 0 0 1 5
183 2 2.8 8 0 0 0 0 1 5
216 2 2.6 8.2 0 0 0 0 1 5
217 2 2.8 8.2 0 0 0 0 1 5
280 2 1.8 8.6 0 0 0 0 1 5
279 2 1.6 8.6 0 0 0 0 1 5
246 2 1.8 8.4 0 0 0 0 1 5
245 2 1.6 8.4 0 0 0 0 1 5
283 2 2.4 8.6 0 0 0 0 1 5
282 2 2.2 8.6 0 0 0 0 1 5
281 2 2 8.6 0 0 0 0 1 5
249 2 2.4 8.4 0 0 0 0 1 5
248 2 2.2 8.4 0 0 0 0 1 5
247 2 2 8.4 0 0 0 0 1 5
285 2 2.8 8.6 0 0 0 0 1 5
284 2 2.6 8.6 0 0 0 0 1 5
251 2 2.8 8.4 0 0 0 0 1 5
250 2 2.6 8.4 0 0 0 0 1 5
348 2 1.8 9 0 0 0 0 1 5
347 2 1.6 9 0 0 0 0 1 5
314 2 1.8 8.8 0 0 0 0 1 5
313 2 1.6 8.8 0 0 0 0 1 5
351 2 2.4 9 0 0 0 0 1 5
350 2 2.2 9 0 0 0 0 1 5
349 2 2 9 0 0 0 0 1 5
317 2 2.4 8.8 0 0 0 0 1 5
316 2 2.2 8.8 0 0 0 0 1 5
315 2 2 8.8 0 0 0 0 1 5
353 2 2.8 9 0 0 0 0 1 5
352 2 2.6 9 0 0 0 0 1 5
319 2 2.8 8.8 0 0 0 0 1 5
318 2 2.6 8.8 0 0 0 0 1 5
416 2 1.8 9.4 0 0 0 0 1 5
415 2 1.6 9.4 0 0 0 0 1 5
382 2 1.8 9.2 0 0 0 0 1 5
381 2 1.6 9.2 0 0 0 0 1 5
419 2 2.4 9.4 0 0 0 0 1 5
418 2 2.2 9.4 0 0 0 0 1 5
417 2 2 9.4 0 0 0 0 1 5
385 2 2.4 9.2 0 0 0 0 1 5
384 2 2.2 9.2 0 0 0 0 1 5
383 2 2 9.2 0 0 0 0 1 5
421 2 2.8 9.4 0 0 0 0 1 5
420 2 2.6 9.4 0 0 0 0 1 5
387 2 2.8 9.2 0 0 0 0 1 5
386 2 2.6 9.2 0 0 0 0 1 5
484 2 1.8 9.8 0 0 0 0 1 5
483 2 1.6 9.8 0 0 0 0 1 5
450 2 1.8 9.6 0 0 0 0 1 5
449 2 1.6 9.6 0 0 0 0 1 5
487 2 2.4 9.8 0 0 0 0 1 5
486 2 2.2 9.8 0 0 0 0 1 5
485 2 2 9.8 0 0 0 0 1 5
453 2 2.4 9.6 0 0 0 0 1 5
452 2 2.2 9.6 0 0 0 0 1 5
451 2 2 9.6 0 0 0 0 1 5
489 2 2.8 9.8 0 0 0 0 1 5
488 2 2.6 9.8 0 0 0 0 1 5
455 2 2.8 9.6 0 0 0 0 1 5
454 2 2.6 9.6 0 0 0 0 1 5
1583 2 3.2 -9.6 0 0 0 0 1 5
1582 2 3 -9.6 0 0 0 0 1 5
1549 2 3.2 -9.8 0 0 0 0 1 5
1548 2 3 -9.8 0 0 0 0 1 5
1515 2 3.2 -10 0 0 0 0 1 5
1514 2 3 -10 0 0 0 0 1 5
1584 2 3.4 -9.6 0 0 0 0 1 5
1550 2 3.4 -9.8 0 0 0 0 1 5
1516 2 3.4 -10 0 0 0 0 1 5
1586 2 3.8 -9.6 0 0 0 0 1 5
1585 2 3.6 -9.6 0 0 0 0 1 5
1552 2 3.8 -9.8 0 0 0 0 1 5
1551 2 3.6 -9.8 0 0 0 0 1 5
1518 2 3.8 -10 0 0 0 0 1 5
1517 2 3.6 -10 0 0 0 0 1 5
1588 2 4.2 -9.6 0 0 0 0 1 5
1587 2 4 -9.6 0 0 0 0 1 5
1554 2 4.2 -9.8 0 0 0 0 1 5
1553 2 4 -9.8 0 0 0 0 1 5
1520 2 4.2 -10 0 0 0 0 1 5
1519 2 4 -10 0 0 0 0 1 5
1616 2 3 -9.4 0 0 0 0 1 5
1617 2 3.2 -9.4 0 0 0 0 1 5
1651 2 3.2 -9.2 0 0 0 0 1 5
1650 2 3 -9.2 0 0 0 0 1 5
1652 2 3.4 -9.2 0 0 0 0 1 5
1618 2 3.4 -9.4 0 0 0 0 1 5
1653 2 3.6 -9.2 0 0 0 0 1 5
1654 2 3.8 -9.2 0 0 0 0 1 5
1620 2 3.8 -9.4 0 0 0 0 1 5
1619 2 3.6 -9.4 0 0 0 0 1 5
1622 2 4.2 -9.4 0 0 0 0 1 5
1655 2 4 -9.2 0 0 0 0 1 5
1656 2 4.2 -9.2 0 0 0 0 1 5
1621 2 4 -9.4 0 0 0 0 1 5
1719 2 3.2 -8.8 0 0 0 0 1 5
1718 2 3 -8.8 0 0 0 0 1 5
1685 2 3.2 -9 0 0 0 0 1 5
1684 2 3 -9 0 0 0 0 1 5
1686 2 3.4 -9 0 0 0 0 1 5
1720 2 3.4 -8.8 0 0 0 0 1 5
1687 2 3.6 -9 0 0 0 0 1 5
1688 2 3.8 -9 0 0 0 0 1 5
1721 2 3.6 -8.8 0 0 0 0 1 5
1722 2 3.8 -8.8 0 0 0 0 1 5
1689 2 4 -9 0 0 0 0 1 5
1690 2 4.2 -9 0 0 0 0 1 5
1723 2 4 -8.8 0 0 0 0 1 5
1724 2 4.2 -8.8 0 0 0 0 1 5
1752 2 3 -8.6 0 0 0 0 1 5
1753 2 3.2 -8.6 0 0 0 0 1 5
1786 2 3 -8.4 0 0 0 0 1 5
1787 2 3.2 -8.4 0 0 0 0 1 5
1754 2 3.4 -8.6 0 0 0 0 1 5
1788 2 3.4 -8.4 0 0 0 0 1 5
1755 2 3.6 -8.6 0 0 0 0 1 5
1756 2 3.8 -8.6 0 0 0 0 1 5
1789 2 3.6 -8.4 0 0 0 0 1 5
1790 2 3.8 -8.4 0 0 0 0 1 5
1757 2 4 -8.6 0 0 0 0 1 5
1758 2 4.2 -8.6 0 0 0 0 1 5
1791 2 4 -8.4 0 0 0 0 1 5
1792 2 4.2 -8.4 0 0 0 0 1 5
1820 2 3 -8.2 0 0 0 0 1 5
1821 2 3.2 -8.2 0 0 0 0 1 5
1854 2 3 -8 0 0 0 0 1 5
1855 2 3.2 -8 0 0 0 0 1 5
1822 2 3.4 -8.2 0 0 0 0 1 5
1856 2 3.4 -8 0 0 0 0 1 5
1823 2 3.6 -8.2 0 0 0 0 1 5
1824 2 3.8 -8.2 0 0 0 0 1 5
1857 2 3.6 -8 0 0 0 0 1 5
1858 2 3.8 -8 0 0 0 0 1 5
1825 2 4 -8.2 0 0 0 0 1 5
1826 2 4.2 -8.2 0 0 0 0 1 5
1859 2 4 -8 0 0 0 0 1 5
1860 2 4.2 -8 0 0 0 0 1 5
1888 2 3 -7.8 0 0 0 0 1 5
1889 2 3.2 -7.8 0 0 0 0 1 5
1922 2 3 -7.6 0 0 0 0 1 5
1923 2 3.2 -7.6 0 0 0 0 1 5
1956 2 3 -7.4 0 0 0 0 1 5
1957 2 3.2 -7.4 0 0 0 0 1 5
1890 2 3.4 -7.8 0 0 0 0 1 5
1924 2 3.4 -7.6 0 0 0 0 1 5
1958 2 3.4 -7.4 0 0 0 0 1 5
1891 2 3.6 -7.8 0 0 0 0 1 5
1892 2 3.8 -7.8 0 0 0 0 1 5
1925 2 3.6 -7.6 0 0 0 0 1 5
1926 2 3.8 -7.6 0 0 0 0 1 5
1959 2 3.6 -7.4 0 0 0 0 1 5
1960 2 3.8 -7.4 0 0 0 0 1 5
1893 2 4 -7.8 0 0 0 0 1 5
1894 2 4.2 -7.8 0 0 0 0 1 5
1927 2 4 -7.6 0 0 0 0 1 5
1928 2 4.2 -7.6 0 0 0 0 1 5
1961 2 4 -7.4 0 0 0 0 1 5
1962 2 4.2 -7.4 0 0 0 0 1 5
1990 2 3 -7.2 0 0 0 0 1 5
1991 2 3.2 -7.2 0 0 0 0 1 5
2024 2 3 -7 0 0 0 0 1 5
2025 2 3.2 -7 0 0 0 0 1 5
1992 2 3.4 -7.2 0 0 0 0 1 5
2026 2 3.4 -7 0 0 0 0 1 5
1993 2 3.6 -7.2 0 0 0 0 1 5
1994 2 3.8 -7.2 0 0 0 0 1 5
2027 2 3.6 -7 0 0 0 0 1 5
2028 2 3.8 -7 0 0 0 0 1 5
1995 2 4 -7.2 0 0 0 0 1 5
1996 2 4.2 -7.2 0 0 0 0 1 5
2029 2 4 -7 0 0 0 0 1 5
2030 2 4.2 -7 0 0 0 0 1 5
49 2 3.2 7.2 0 0 0 0 1 5
48 2 3 7.2 0 0 0 0 1 5
15 2 3.2 7 0 0 0 0 1 5
14 2 3 7 0 0 0 0 1 5
50 2 3.4 7.2 0 0 0 0 1 5
16 2 3.4 7 0 0 0 0 1 5
52 2 3.8 7.2 0 0 0 0 1 5
51 2 3.6 7.2 0 0 0 0 1 5
18 2 3.8 7 0 0 0 0 1 5
17 2 3.6 7 0 0 0 0 1 5
54 2 4.2 7.2 0 0 0 0 1 5
53 2 4 7.2 0 0 0 0 1 5
20 2 4.2 7 0 0 0 0 1 5
19 2 4 7 0 0 0 0 1 5
83 2 3.2 7.4 0 0 0 0 1 5
82 2 3 7.4 0 0 0 0 1 5
151 2 3.2 7.8 0 0 0 0 1 5
150 2 3 7.8 0 0 0 0 1 5
116 2 3 7.6 0 0 0 0 1 5
117 2 3.2 7.6 0 0 0 0 1 5
118 2 3.4 7.6 0 0 0 0 1 5
152 2 3.4 7.8 0 0 0 0 1 5
84 2 3.4 7.4 0 0 0 0 1 5
120 2 3.8 7.6 0 0 0 0 1 5
119 2 3.6 7.6 0 0 0 0 1 5
153 2 3.6 7.8 0 0 0 0 1 5
154 2 3.8 7.8 0 0 0 0 1 5
86 2 3.8 7.4 0 0 0 0 1 5
85 2 3.6 7.4 0 0 0 0 1 5
122 2 4.2 7.6 0 0 0 0 1 5
121 2 4 7.6 0 0 0 0 1 5
155 2 4 7.8 0 0 0 0 1 5
156 2 4.2 7.8 0 0 0 0 1 5
88 2 4.2 7.4 0 0 0 0 1 5
87 2 4 7.4 0 0 0 0 1 5
219 2 3.2 8.2 0 0 0 0 1 5
218 2 3 8.2 0 0 0 0 1 5
185 2 3.2 8 0 0 0 0 1 5
184 2 3 8 0 0 0 0 1 5
186 2 3.4 8 0 0 0 0 1 5
220 2 3.4 8.2 0 0 0 0 1 5
187 2 3.6 8 0 0 0 0 1 5
188 2 3.8 8 0 0 0 0 1 5
221 2 3.6 8.2 0 0 0 0 1 5
222 2 3.8 8.2 0 0 0 0 1 5
189 2 4 8 0 0 0 0 1 5
190 2 4.2 8 0 0 0 0 1 5
223 2 4 8.2 0 0 0 0 1 5
224 2 4.2 8.2 0 0 0 0 1 5
252 2 3 8.4 0 0 0 0 1 5
253 2 3.2 8.4 0 0 0 0 1 5
286 2 3 8.6 0 0 0 0 1 5
287 2 3.2 8.6 0 0 0 0 1 5
254 2 3.4 8.4 0 0 0 0 1 5
288 2 3.4 8.6 0 0 0 0 1 5
255 2 3.6 8.4 0 0 0 0 1 5
256 2 3.8 8.4 0 0 0 0 1 5
289 2 3.6 8.6 0 0 0 0 1 5
290 2 3.8 8.6 0 0 0 0 1 5
257 2 4 8.4 0 0 0 0 1 5
258 2 4.2 8.4 0 0 0 0 1 5
291 2 4 8.6 0 0 0 0 1 5
292 2 4.2 8.6 0 0 0 0 1 5
320 2 3 8.8 0 0 0 0 1 5
321 2 3.2 8.8 0 0 0 0 1 5
354 2 3 9 0 0 0 0 1 5
355 2 3.2 9 0 0 0 0 1 5
322 2 3.4 8.8 0 0 0 0 1 5
356 2 3.4 9 0 0 0 0 1 5
323 2 3.6 8.8 0 0 0 0 1 5
324 2 3.8 8.8 0 0 0 0 1 5
357 2 3.6 9 0 0 0 0 1 5
358 2 3.8 9 0 0 0 0 1 5
325 2 4 8.8 0 0 0 0 1 5
326 2 4.2 8.8 0 0 0 0 1 5
359 2 4 9 0 0 0 0 1 5
360 2 4.2 9 0 0 0 0 1 5
388 2 3 9.2 0 0 0 0 1 5
389 2 3.2 9.2 0 0 0 0 1 5
422 2 3 9.4 0 0 0 0 1 5
423 2 3.2 9.4 0 0 0 0 1 5
390 2 3.4 9.2 0 0 0 0 1 5
424 2 3.4 9.4 0 0 0 0 1 5
391 2 3.6 9.2 0 0 0 0 1 5
392 2 3.8 9.2 0 0 0 0 1 5
425 2 3.6 9.4 0 0 0 0 1 5
426 2 3.8 9.4 0 0 0 0 1 5
393 2 4 9.2 0 0 0 0 1 5
394 2 4.2 9.2 0 0 0 0 1 5
427 2 4 9.4 0 0 0 0 1 5
428 2 4.2 9.4 0 0 0 0 1 5
456 2 3 9.6 0 0 0 0 1 5
457 2 3.2 9.6 0 0 0 0 1 5
490 2 3 9.8 0 0 0 0 1 5
491 2 3.2 9.8 0 0 0 0 1 5
458 2 3.4 9.6 0 0 0 0 1 5
492 2 3.4 9.8 0 0 0 0 1 5
459 2 3.6 9.6 0 0 0 0 1 5
460 2 3.8 9.6 0 0 0 0 1 5
493 2 3.6 9.8 0 0 0 0 1 5
494 2 3.8 9.8 0 0 0 0 1 5
461 2 4 9.6 0 0 0 0 1 5
462 2 4.2 9.6 0 0 0 0 1 5
495 2 4 9.8 0 0 0 0 1 5
496 2 4.2 9.8 0 0 0 0 1 5
