ITEM: TIMESTEP
58000
ITEM: NUMBER OF ATOMS
1300
ITEM: BOX BOUNDS ff ff pp
0.0000000000000000e+00 4.4000000000000004e+00
-1.0000000000000000e+01 1.0000000000000000e+01
-2.0000000000000000e-02 2.0000000000000000e-02
ITEM: ATOMS id type x y vx vy fx fy c_den c_phase
4956 1 1.2458 -6.58047 0.02 0 -1.68845e-13 -2.05924e-14 1 2
4957 1 1.21881 -6.75534 0.02 0 -4.56416e-11 -2.64009e-11 1 2
4958 1 1.42252 -6.7545 0.02 0 -2.58614e-06 -1.52218e-06 1 2
4937 1 1.44734 -2.27951 0.02 0 0 0 1 2
4960 1 1.46221 -6.57021 0.02 0 3.51251e-08 1.81242e-07 1 2
4954 1 1.31798 -2.89186 0.02 0 0 0 1 2
4854 1 1.46873 -0.102094 0.02 0 0 0 1 2
4972 1 1.26308 -6.2288 0.02 0 0 0 1 2
4973 1 1.27257 -6.4079 0.02 0 0 0 1 2
4952 1 1.32794 -2.69006 0.02 0 0 0 1 2
5089 1 1.32568 -3.09498 0.02 0 0 0 1 2
4890 1 1.30798 -1.26707 0.02 0 0 0 1 2
5087 1 1.31446 -3.30217 0.02 0 0 0 1 2
4986 1 1.23864 -5.85696 0.02 0 0 0 1 2
4987 1 1.25859 -6.0486 0.02 0 0 0 1 2
4988 1 1.46415 -6.01867 0.02 0 2.47773e-17 8.83093e-16 1 2
4989 1 1.42834 -5.82533 0.02 0 0 0 1 2
4886 1 1.27797 -0.880323 0.02 0 0 0 1 2
4871 1 1.28983 -0.514518 0.02 0 0 0 1 2
5000 1 1.25006 -5.64953 0.02 0 0 0 1 2
5002 1 1.25136 -5.44144 0.02 0 0 0 1 2
5004 1 1.24191 -5.23262 0.02 0 0 0 1 2
5001 1 1.44448 -5.62334 0.02 0 0 0 1 2
5003 1 1.44464 -5.41999 0.02 0 0 0 1 2
4906 1 1.36308 -1.66502 0.02 0 0 0 1 2
4904 1 1.33326 -1.46594 0.02 0 0 0 1 2
4857 1 1.26582 -0.329982 0.02 0 0 0 1 2
5020 1 1.22368 -5.01823 0.02 0 0 0 1 2
5019 1 1.42809 -5.2099 0.02 0 0 0 1 2
5021 1 1.4078 -4.99268 0.02 0 0 0 1 2
4938 1 1.2548 -2.27668 0.02 0 0 0 1 2
4939 1 1.2952 -2.48392 0.02 0 0 0 1 2
4922 1 1.43365 -2.07103 0.02 0 0 0 1 2
4920 1 1.41674 -1.86633 0.02 0 0 0 1 2
4873 1 1.26699 -0.695724 0.02 0 0 0 1 2
5038 1 1.21371 -4.57803 0.02 0 0 0 1 2
5041 1 1.25398 -4.3673 0.02 0 0 0 1 2
5037 1 1.38583 -4.77962 0.02 0 0 0 1 2
5039 1 1.40429 -4.57054 0.02 0 0 0 1 2
5072 1 1.32242 -3.51789 0.02 0 0 0 1 2
5042 1 1.4534 -4.36807 0.02 0 0 0 1 2
4923 1 1.2293 -2.07675 0.02 0 0 0 1 2
4855 1 1.27229 -0.141758 0.02 0 0 0 1 2
5055 1 1.27962 -4.16107 0.02 0 0 0 1 2
5057 1 1.29712 -3.95057 0.02 0 0 0 1 2
5071 1 1.32072 -3.73477 0.02 0 0 0 1 2
4888 1 1.28404 -1.07209 0.02 0 0 0 1 2
4921 1 1.21955 -1.87308 0.02 0 0 0 1 2
4842 1 1.29147 0.270665 0.02 0 0 0 1 2
4844 1 1.29078 0.0560054 0.02 0 0 0 1 2
4843 1 1.47162 0.336851 0.02 0 0 0 1 2
4845 1 1.47101 0.118798 0.02 0 0 0 1 2
5020 1 1.38233 5.14001 0.02 0 0 0 1 2
5003 1 1.38722 4.73823 0.02 0 0 0 1 2
4860 1 1.20926 0.705152 0.02 0 0 0 1 2
4858 1 1.27184 0.488378 0.02 0 0 0 1 2
4859 1 1.45477 0.544272 0.02 0 0 0 1 2
4861 1 1.39386 0.743507 0.02 0 0 0 1 2
5078 1 1.33351 6.53654 0.02 0 -2.27801e-10 5.40119e-11 1 2
5002 1 1.34322 4.54315 0.02 0 0 0 1 2
5019 1 1.37994 4.93604 0.02 0 0 0 1 2
4874 1 1.40264 0.941402 0.02 0 0 0 1 2
4875 1 1.38054 1.13505 0.02 0 0 0 1 2
4973 1 1.42667 3.55836 0.02 0 0 0 1 2
4974 1 1.2717 3.7432 0.02 0 0 0 1 2
5080 1 1.35161 6.73003 0.02 0 -1.34942e-07 8.56901e-08 1 2
4972 1 1.21859 3.55811 0.02 0 0 0 1 2
4891 1 1.31427 1.52478 0.02 0 0 0 1 2
4892 1 1.30411 1.72167 0.02 0 0 0 1 2
4890 1 1.33653 1.32777 0.02 0 0 0 1 2
5034 1 1.34895 5.35095 0.02 0 0 0 1 2
5036 1 1.31674 5.55378 0.02 0 0 0 1 2
4991 1 1.35339 4.33685 0.02 0 0 0 1 2
4989 1 1.32382 4.13251 0.02 0 0 0 1 2
5066 1 1.28528 6.34367 0.02 0 0 0 1 2
5064 1 1.28831 6.14981 0.02 0 0 0 1 2
4909 1 1.27086 1.91195 0.02 0 0 0 1 2
4910 1 1.28281 2.10066 0.02 0 0 0 1 2
4959 1 1.38262 3.35953 0.02 0 0 0 1 2
4958 1 1.34451 3.16345 0.02 0 0 0 1 2
5052 1 1.27548 5.95702 0.02 0 0 0 1 2
5050 1 1.28914 5.75532 0.02 0 0 0 1 2
4923 1 1.22367 2.27614 0.02 0 0 0 1 2
4924 1 1.23124 2.4548 0.02 0 0 0 1 2
4925 1 1.44983 2.28563 0.02 0 0 0 1 2
4926 1 1.46337 2.46684 0.02 0 0 0 1 2
4938 1 1.42106 2.63956 0.02 0 0 0 1 2
4987 1 1.28975 3.93519 0.02 0 0 0 1 2
4937 1 1.19967 2.63076 0.02 0 0 0 1 2
4939 1 1.23753 2.80986 0.02 0 0 0 1 2
4940 1 1.33196 2.97258 0.02 0 0 0 1 2
1509 2 2 -10 0 0 0 0 1 5
1510 2 2.2 -10 0 0 0 0 1 5
1511 2 2.4 -10 0 0 0 0 1 5
1543 2 2 -9.8 0 0 0 0 1 5
1544 2 2.2 -9.8 0 0 0 0 1 5
1545 2 2.4 -9.8 0 0 0 0 1 5
1577 2 2 -9.6 0 0 0 0 1 5
1578 2 2.2 -9.6 0 0 0 0 1 5
1579 2 2.4 -9.6 0 0 0 0 1 5
1512 2 2.6 -10 0 0 0 0 1 5
1513 2 2.8 -10 0 0 0 0 1 5
1546 2 2.6 -9.8 0 0 0 0 1 5
1547 2 2.8 -9.8 0 0 0 0 1 5
1580 2 2.6 -9.6 0 0 0 0 1 5
1581 2 2.8 -9.6 0 0 0 0 1 5
1645 2 2 -9.2 0 0 0 0 1 5
1646 2 2.2 -9.2 0 0 0 0 1 5
1647 2 2.4 -9.2 0 0 0 0 1 5
1613 2 2.4 -9.4 0 0 0 0 1 5
1612 2 2.2 -9.4 0 0 0 0 1 5
1611 2 2 -9.4 0 0 0 0 1 5
1648 2 2.6 -9.2 0 0 0 0 1 5
1649 2 2.8 -9.2 0 0 0 0 1 5
1615 2 2.8 -9.4 0 0 0 0 1 5
1614 2 2.6 -9.4 0 0 0 0 1 5
1679 2 2 -9 0 0 0 0 1 5
1680 2 2.2 -9 0 0 0 0 1 5
1681 2 2.4 -9 0 0 0 0 1 5
1713 2 2 -8.8 0 0 0 0 1 5
1714 2 2.2 -8.8 0 0 0 0 1 5
1715 2 2.4 -8.8 0 0 0 0 1 5
1682 2 2.6 -9 0 0 0 0 1 5
1683 2 2.8 -9 0 0 0 0 1 5
1716 2 2.6 -8.8 0 0 0 0 1 5
1717 2 2.8 -8.8 0 0 0 0 1 5
1783 2 2.4 -8.4 0 0 0 0 1 5
1782 2 2.2 -8.4 0 0 0 0 1 5
1781 2 2 -8.4 0 0 0 0 1 5
1747 2 2 -8.6 0 0 0 0 1 5
1748 2 2.2 -8.6 0 0 0 0 1 5
1749 2 2.4 -8.6 0 0 0 0 1 5
1785 2 2.8 -8.4 0 0 0 0 1 5
1784 2 2.6 -8.4 0 0 0 0 1 5
1750 2 2.6 -8.6 0 0 0 0 1 5
1751 2 2.8 -8.6 0 0 0 0 1 5
1851 2 2.4 -8 0 0 0 0 1 5
1850 2 2.2 -8 0 0 0 0 1 5
1849 2 2 -8 0 0 0 0 1 5
1817 2 2.4 -8.2 0 0 0 0 1 5
1816 2 2.2 -8.2 0 0 0 0 1 5
1815 2 2 -8.2 0 0 0 0 1 5
1853 2 2.8 -8 0 0 0 0 1 5
1852 2 2.6 -8 0 0 0 0 1 5
1819 2 2.8 -8.2 0 0 0 0 1 5
1818 2 2.6 -8.2 0 0 0 0 1 5
1953 2 2.4 -7.4 0 0 0 0 1.00101 5
1952 2 2.2 -7.4 0 0 0 0 0.999716 5
1951 2 2 -7.4 0 0 0 0 1.00047 5
1919 2 2.4 -7.6 0 0 0 0 1 5
1918 2 2.2 -7.6 0 0 0 0 1 5
1917 2 2 -7.6 0 0 0 0 1 5
1885 2 2.4 -7.8 0 0 0 0 1 5
1884 2 2.2 -7.8 0 0 0 0 1 5
1883 2 2 -7.8 0 0 0 0 1 5
1955 2 2.8 -7.4 0 0 0 0 0.988872 5
1954 2 2.6 -7.4 0 0 0 0 1.0005 5
1921 2 2.8 -7.6 0 0 0 0 1 5
1920 2 2.6 -7.6 0 0 0 0 1 5
1887 2 2.8 -7.8 0 0 0 0 1 5
1886 2 2.6 -7.8 0 0 0 0 1 5
2021 2 2.4 -7 0 0 0 0 0.999884 5
2020 2 2.2 -7 0 0 0 0 0.999481 5
2019 2 2 -7 0 0 0 0 1.00081 5
1987 2 2.4 -7.2 0 0 0 0 1.0008 5
1986 2 2.2 -7.2 0 0 0 0 0.999394 5
1985 2 2 -7.2 0 0 0 0 1.00011 5
2023 2 2.8 -7 0 0 0 0 0.98997 5
2022 2 2.6 -7 0 0 0 0 0.996449 5
1989 2 2.8 -7.2 0 0 0 0 0.988723 5
1988 2 2.6 -7.2 0 0 0 0 0.997151 5
4968 1 2.25461 -6.56 0.02 0 0.000175528 0.00061222 1 2
4963 1 2.01568 -6.75355 0.02 0 -0.00379539 -0.000805818 1 2
4966 1 2.21439 -6.74256 0.02 0 -0.00283408 -0.000669276 1 2
4965 1 2.06011 -6.56457 0.02 0 5.71185e-05 0.000606801 1 2
4964 1 1.86466 -6.56659 0.02 0 -3.77583e-05 0.000398246 1 2
4969 1 2.44501 -6.56034 0.02 0 0.000343908 0.000619825 1 2
4967 1 2.41287 -6.75576 0.02 0 -0.00289698 -0.000654009 1 2
4970 1 2.61338 -6.76076 0.02 0 -0.00229301 -0.000545015 1 2
4971 1 2.63714 -6.57482 0.02 0 0.000639812 0.000944564 1 2
4900 1 1.75567 -1.52449 0.02 0 0 0 1 2
4844 1 2.4495 -0.32819 0.02 0 0 0 1 2
4982 1 2.28541 -6.37283 0.02 0 0.000101807 0.000176212 1 2
4984 1 2.31092 -6.18342 0.02 0 6.47929e-06 1.5817e-05 1 2
4981 1 2.10466 -6.18589 0.02 0 3.36715e-06 1.11952e-05 1 2
4980 1 2.08512 -6.37392 0.02 0 5.9318e-05 0.000140892 1 2
4979 1 1.89877 -6.184 0.02 0 5.00035e-07 3.57792e-06 1 2
4978 1 1.8865 -6.37705 0.02 0 1.67754e-05 7.74148e-05 1 2
4983 1 2.48522 -6.36822 0.02 0 0.000139579 0.000188191 1 2
4985 1 2.51568 -6.17861 0.02 0 6.38107e-06 1.9882e-05 1 2
4845 1 2.42811 -0.131593 0.02 0 0 0 1 2
4996 1 2.29084 -5.99235 0.02 0 2.95679e-08 1.13966e-07 1 2
4998 1 2.26418 -5.80089 0.02 0 3.75939e-11 1.17822e-10 1 2
4995 1 2.0866 -5.99936 0.02 0 1.92314e-08 9.29708e-08 1 2
4994 1 2.04787 -5.81645 0.02 0 3.95105e-11 1.33807e-10 1 2
4992 1 1.87975 -5.99131 0.02 0 1.19113e-09 1.40929e-08 1 2
4993 1 1.82801 -5.80594 0.02 0 0 0 1 2
4999 1 2.47718 -5.80157 0.02 0 2.02012e-11 9.28041e-11 1 2
4997 1 2.49577 -5.99012 0.02 0 1.89981e-08 1.45022e-07 1 2
4842 1 2.62075 -0.125197 0.02 0 0 0 1 2
4843 1 2.63944 -0.344474 0.02 0 0 0 1 2
5012 1 2.01468 -5.2373 0.02 0 0 0 1 2
5011 1 2.03268 -5.43551 0.02 0 0 0 1 2
5015 1 2.22225 -5.38976 0.02 0 0 0 1 2
5013 1 2.23655 -5.60063 0.02 0 0 0 1 2
5009 1 2.04388 -5.63003 0.02 0 0 0 1 2
5008 1 1.84476 -5.61413 0.02 0 0 0 1 2
5010 1 1.83505 -5.41546 0.02 0 0 0 1 2
5016 1 2.41368 -5.40561 0.02 0 0 0 1 2
5014 1 2.42883 -5.61078 0.02 0 0 0 1 2
5018 1 2.6068 -5.38987 0.02 0 0 0 1 2
5017 1 2.62206 -5.59358 0.02 0 0 0 1 2
4902 1 1.76662 -1.7222 0.02 0 0 0 1 2
4852 1 1.87388 -0.295322 0.02 0 0 0 1 2
5028 1 1.96821 -4.82078 0.02 0 0 0 1 2
5026 1 1.9779 -5.03372 0.02 0 0 0 1 2
5029 1 2.19884 -5.1777 0.02 0 0 0 1 2
5031 1 2.16099 -4.97252 0.02 0 0 0 1 2
5036 1 2.59563 -4.80654 0.02 0 0 0 1 2
5030 1 2.39201 -5.19849 0.02 0 0 0 1 2
5035 1 2.55434 -4.99634 0.02 0 0 0 1 2
5034 1 2.58917 -5.19128 0.02 0 0 0 1 2
5032 1 2.35626 -4.99144 0.02 0 0 0 1 2
5033 1 2.38193 -4.7929 0.02 0 0 0 1 2
4850 1 1.85314 -0.094678 0.02 0 0 0 1 2
5045 1 1.99931 -4.61468 0.02 0 0 0 1 2
5051 1 2.22973 -4.3802 0.02 0 0 0 1 2
5049 1 2.20642 -4.58164 0.02 0 0 0 1 2
5047 1 2.0355 -4.40519 0.02 0 0 0 1 2
5048 1 2.17202 -4.77562 0.02 0 0 0 1 2
5046 1 1.83921 -4.42856 0.02 0 0 0 1 2
5052 1 2.4259 -4.39955 0.02 0 0 0 1 2
5050 1 2.41023 -4.59884 0.02 0 0 0 1 2
5054 1 2.62357 -4.41893 0.02 0 0 0 1 2
5053 1 2.61489 -4.61546 0.02 0 0 0 1 2
4849 1 2.06935 -0.31991 0.02 0 0 0 1 2
4848 1 2.04679 -0.10337 0.02 0 0 0 1 2
5067 1 2.24589 -3.97397 0.02 0 0 0 1 2
5065 1 2.2562 -4.17813 0.02 0 0 0 1 2
5064 1 2.05628 -3.97051 0.02 0 0 0 1 2
5062 1 2.06044 -4.18899 0.02 0 0 0 1 2
5061 1 1.86521 -4.22906 0.02 0 0 0 1 2
5063 1 1.8685 -4.02536 0.02 0 0 0 1 2
5068 1 2.44067 -3.99372 0.02 0 0 0 1 2
5066 1 2.45309 -4.1987 0.02 0 0 0 1 2
5070 1 2.63731 -4.02126 0.02 0 -2.94137e-31 -4.98159e-32 1 2
5069 1 2.65179 -4.22092 0.02 0 0 0 1 2
4847 1 2.25875 -0.365805 0.02 0 0 0 1 2
4846 1 2.2355 -0.15 0.02 0 0 0 1 2
5080 1 2.06715 -3.52636 0.02 0 0 0 1 2
5079 1 2.06491 -3.74165 0.02 0 0 0 1 2
5081 1 2.25449 -3.77151 0.02 0 0 0 1 2
5083 1 2.26099 -3.56777 0.02 0 0 0 1 2
5077 1 1.88615 -3.8147 0.02 0 0 0 1 2
5078 1 1.88407 -3.59192 0.02 0 0 0 1 2
5082 1 2.45274 -3.7928 0.02 0 0 0 1 2
5084 1 2.4571 -3.59027 0.02 0 0 0 1 2
5086 1 2.64947 -3.62798 0.02 0 -3.51531e-24 -2.02381e-26 1 2
5085 1 2.65991 -3.82732 0.02 0 -2.77939e-24 -1.62255e-25 1 2
4859 1 2.65992 -0.791499 0.02 0 0 0 1 2
5096 1 2.09022 -3.11366 0.02 0 0 0 1 2
5095 1 2.0625 -3.31864 0.02 0 0 0 1 2
5097 1 2.25472 -3.36362 0.02 0 0 0 1 2
5099 1 2.28023 -3.16288 0.02 0 0 0 1 2
5094 1 1.89816 -3.15141 0.02 0 0 0 1 2
5093 1 1.874 -3.36956 0.02 0 0 0 1 2
5098 1 2.4507 -3.38541 0.02 0 0 0 1 2
5100 1 2.47114 -3.17954 0.02 0 0 0 1 2
5101 1 2.64587 -3.42199 0.02 0 -2.77206e-24 -1.88032e-25 1 2
4955 1 2.65765 -3.21512 0.02 0 -2.61407e-23 -8.08015e-24 1 2
4858 1 2.64775 -0.570425 0.02 0 0 0 1 2
4861 1 2.47413 -0.741933 0.02 0 0 0 1 2
4948 1 1.90319 -2.93583 0.02 0 0 0 1 2
4946 1 2.09619 -2.9109 0.02 0 0 0 1 2
4947 1 1.91766 -2.7223 0.02 0 0 0 1 2
4942 1 2.31173 -2.75416 0.02 0 0 0 1 2
4944 1 2.28776 -2.95758 0.02 0 0 0 1 2
4945 1 2.11507 -2.71423 0.02 0 0 0 1 2
4943 1 2.48182 -2.97456 0.02 0 0 0 1 2
4941 1 2.5108 -2.77688 0.02 0 0 0 1 2
4860 1 2.46144 -0.530511 0.02 0 0 0 1 2
4866 1 1.88878 -0.49582 0.02 0 0 0 1 2
4868 1 1.89512 -0.698459 0.02 0 0 0 1 2
4932 1 2.04757 -2.32364 0.02 0 0 0 1 2
4931 1 2.08769 -2.51716 0.02 0 0 0 1 2
4928 1 2.25639 -2.3414 0.02 0 0 0 1 2
4930 1 2.28652 -2.54567 0.02 0 0 0 1 2
4934 1 1.88741 -2.51435 0.02 0 0 0 1 2
4933 1 1.84118 -2.31522 0.02 0 0 0 1 2
4926 1 2.45386 -2.17957 0.02 0 0 0 1 2
4929 1 2.48355 -2.57643 0.02 0 0 0 1 2
4927 1 2.45988 -2.37639 0.02 0 0 0 1 2
4925 1 2.66039 -2.40026 0.02 0 -3.78399e-25 1.44623e-25 1 2
4924 1 2.65499 -2.19767 0.02 0 0 0 1 2
4862 1 2.27159 -0.574605 0.02 0 0 0 1 2
4863 1 2.28115 -0.773748 0.02 0 0 0 1 2
4912 1 2.23493 -1.94749 0.02 0 0 0 1 2
4914 1 2.04728 -2.12962 0.02 0 0 0 1 2
4915 1 2.02527 -1.93408 0.02 0 0 0 1 2
4913 1 2.25056 -2.1438 0.02 0 0 0 1 2
4910 1 2.17542 -1.75619 0.02 0 0 0 1 2
4917 1 1.84288 -2.11789 0.02 0 0 0 1 2
4911 1 2.43962 -1.97973 0.02 0 0 0 1 2
4909 1 2.38601 -1.77807 0.02 0 0 0 1 2
4908 1 2.6376 -1.99265 0.02 0 0 0 1 2
4907 1 2.58831 -1.78827 0.02 0 0 0 1 2
4916 1 1.81829 -1.92107 0.02 0 0 0 1 2
4901 1 1.9687 -1.73756 0.02 0 0 0 1 2
4896 1 2.16647 -1.56022 0.02 0 0 0 1 2
4894 1 2.11346 -1.36505 0.02 0 0 0 1 2
4899 1 1.96184 -1.53732 0.02 0 0 0 1 2
4897 1 1.90897 -1.33421 0.02 0 0 0 1 2
4892 1 2.5152 -1.37324 0.02 0 0 0 1 2
4893 1 2.31665 -1.36783 0.02 0 0 0 1 2
4891 1 2.55699 -1.5817 0.02 0 0 0 1 2
4895 1 2.36359 -1.57395 0.02 0 0 0 1 2
4880 1 2.0857 -1.16744 0.02 0 0 0 1 2
4879 1 2.05248 -0.964751 0.02 0 0 0 1 2
4878 1 2.28472 -1.16418 0.02 0 0 0 1 2
4877 1 2.25298 -0.967041 0.02 0 0 0 1 2
4883 1 1.88763 -1.12377 0.02 0 0 0 1 2
4881 1 1.86575 -0.904502 0.02 0 0 0 1 2
4874 1 2.65833 -0.996149 0.02 0 0 0 1 2
4875 1 2.45897 -0.9547 0.02 0 0 0 1 2
4876 1 2.47914 -1.16392 0.02 0 0 0 1 2
4864 1 2.0811 -0.538324 0.02 0 0 0 1 2
4865 1 2.08344 -0.757755 0.02 0 0 0 1 2
4962 1 1.81891 -6.75641 0.02 0 -0.00265699 -0.000945643 1 2
5024 1 1.81743 -5.21275 0.02 0 0 0 1 2
5025 1 1.78605 -5.00858 0.02 0 0 0 1 2
5027 1 1.76794 -4.8102 0.02 0 0 0 1 2
5044 1 1.79215 -4.61794 0.02 0 0 0 1 2
4977 1 1.69538 -6.18987 0.02 0 4.52755e-08 4.24633e-07 1 2
5075 1 1.70262 -3.75053 0.02 0 0 0 1 2
4867 1 1.6919 -0.517524 0.02 0 0 0 1 2
5076 1 1.699 -3.53879 0.02 0 0 0 1 2
5091 1 1.68805 -3.3262 0.02 0 0 0 1 2
5092 1 1.7115 -3.11655 0.02 0 0 0 1 2
4950 1 1.71196 -2.90797 0.02 0 0 0 1 2
4949 1 1.7244 -2.70335 0.02 0 0 0 1 2
4935 1 1.68548 -2.50191 0.02 0 0 0 1 2
4884 1 1.69247 -1.12903 0.02 0 0 0 1 2
4898 1 1.70843 -1.32959 0.02 0 0 0 1 2
4869 1 1.6951 -0.722022 0.02 0 0 0 1 2
4959 1 1.62134 -6.73795 0.02 0 -0.000300363 -0.000148848 1 2
4961 1 1.66837 -6.55898 0.02 0 2.39851e-06 6.19622e-05 1 2
4976 1 1.68227 -6.3754 0.02 0 1.79137e-06 1.09849e-05 1 2
4990 1 1.62406 -5.81429 0.02 0 0 0 1 2
4991 1 1.67217 -6.00318 0.02 0 5.33466e-12 4.90962e-10 1 2
5005 1 1.64364 -5.61653 0.02 0 0 0 1 2
5006 1 1.63984 -5.41725 0.02 0 0 0 1 2
5007 1 1.62118 -5.21795 0.02 0 0 0 1 2
4919 1 1.63726 -2.09908 0.02 0 0 0 1 2
4918 1 1.61473 -1.89697 0.02 0 0 0 1 2
4853 1 1.67568 -0.312394 0.02 0 0 0 1 2
4851 1 1.6598 -0.106487 0.02 0 0 0 1 2
5043 1 1.64868 -4.37825 0.02 0 0 0 1 2
5059 1 1.67246 -4.17021 0.02 0 0 0 1 2
5060 1 1.68146 -3.95995 0.02 0 0 0 1 2
4882 1 1.67272 -0.927203 0.02 0 0 0 1 2
4936 1 1.64076 -2.30053 0.02 0 0 0 1 2
4905 1 1.56619 -1.68959 0.02 0 0 0 1 2
5022 1 1.5947 -5.01454 0.02 0 0 0 1 2
5023 1 1.57447 -4.80046 0.02 0 0 0 1 2
5040 1 1.59623 -4.58634 0.02 0 0 0 1 2
4940 1 1.48772 -2.49402 0.02 0 0 0 1 2
4951 1 1.52751 -2.7013 0.02 0 0 0 1 2
4903 1 1.54151 -1.4917 0.02 0 0 0 1 2
4885 1 1.47733 -0.894216 0.02 0 0 0 1 2
4974 1 1.47494 -6.38721 0.02 0 5.22913e-09 2.95745e-08 1 2
4975 1 1.48498 -6.20378 0.02 0 8.81517e-11 6.26554e-10 1 2
4887 1 1.49024 -1.09279 0.02 0 0 0 1 2
4889 1 1.50789 -1.29234 0.02 0 0 0 1 2
5090 1 1.51986 -3.11224 0.02 0 0 0 1 2
5088 1 1.50041 -3.32282 0.02 0 0 0 1 2
4870 1 1.49334 -0.507391 0.02 0 0 0 1 2
4872 1 1.4894 -0.701356 0.02 0 0 0 1 2
4856 1 1.47504 -0.308611 0.02 0 0 0 1 2
4953 1 1.51563 -2.9059 0.02 0 0 0 1 2
5074 1 1.51004 -3.53709 0.02 0 0 0 1 2
5073 1 1.51094 -3.74794 0.02 0 0 0 1 2
5056 1 1.47621 -4.16298 0.02 0 0 0 1 2
5058 1 1.48853 -3.95576 0.02 0 0 0 1 2
4851 1 2.03107 0.116355 0.02 0 0 0 1 2
4850 1 2.0325 0.337272 0.02 0 0 0 1 2
4853 1 2.21447 0.0680014 0.02 0 0 0 1 2
4852 1 2.21253 0.287368 0.02 0 0 0 1 2
4846 1 1.84223 0.107583 0.02 0 0 0 1 2
4848 1 1.84669 0.312641 0.02 0 0 0 1 2
4855 1 2.40528 0.0658033 0.02 0 0 0 1 2
4854 1 2.39955 0.26968 0.02 0 0 0 1 2
4856 1 2.5986 0.0854231 0.02 0 0 0 1 2
4857 1 2.59343 0.287883 0.02 0 0 0 1 2
4866 1 1.98505 0.744519 0.02 0 0 0 1 2
4869 1 2.18585 0.729522 0.02 0 0 0 1 2
4868 1 2.22224 0.508407 0.02 0 0 0 1 2
4867 1 2.03594 0.547152 0.02 0 0 0 1 2
4864 1 1.84547 0.523799 0.02 0 0 0 1 2
4872 1 2.60912 0.484546 0.02 0 0 0 1 2
4871 1 2.41063 0.478725 0.02 0 0 0 1 2
4873 1 2.57485 0.677999 0.02 0 0 0 1 2
4870 1 2.37759 0.691172 0.02 0 0 0 1 2
4881 1 1.99863 1.13869 0.02 0 0 0 1 2
4883 1 2.21182 1.13047 0.02 0 0 0 1 2
4882 1 2.20684 0.934024 0.02 0 0 0 1 2
4880 1 2.01181 0.942347 0.02 0 0 0 1 2
4886 1 2.41642 1.1014 0.02 0 0 0 1 2
4884 1 2.39711 0.898345 0.02 0 0 0 1 2
4888 1 2.61192 1.07569 0.02 0 0 0 1 2
4889 1 2.58732 1.27926 0.02 0 0 0 1 2
4887 1 2.59118 0.874366 0.02 0 0 0 1 2
4885 1 2.37783 1.29598 0.02 0 0 0 1 2
4903 1 2.13895 1.50616 0.02 0 0 0 1 2
4902 1 2.15805 1.31601 0.02 0 0 0 1 2
4904 1 2.11521 1.69926 0.02 0 0 0 1 2
4899 1 1.91319 1.72513 0.02 0 0 0 1 2
4900 1 1.94934 1.33266 0.02 0 0 0 1 2
4901 1 1.92892 1.52876 0.02 0 0 0 1 2
4908 1 2.55106 1.48068 0.02 0 0 0 1 2
4907 1 2.52232 1.68009 0.02 0 0 0 1 2
4906 1 2.3193 1.67815 0.02 0 0 0 1 2
4905 1 2.3478 1.48571 0.02 0 0 0 1 2
4920 1 2.29384 2.06691 0.02 0 0 0 1 2
4918 1 2.09062 2.09454 0.02 0 0 0 1 2
4917 1 2.10829 1.89614 0.02 0 0 0 1 2
4915 1 1.90326 1.92009 0.02 0 0 0 1 2
4916 1 1.88765 2.11413 0.02 0 0 0 1 2
4922 1 2.50168 2.064 0.02 0 0 0 1 2
4921 1 2.52156 1.87325 0.02 0 0 0 1 2
4919 1 2.31322 1.87263 0.02 0 0 0 1 2
4929 1 1.91084 2.30172 0.02 0 0 0 1 2
4932 1 2.11332 2.48033 0.02 0 0 0 1 2
4931 1 2.11994 2.28888 0.02 0 0 0 1 2
4930 1 1.88156 2.48427 0.02 0 0 0 1 2
4936 1 2.549 2.43803 0.02 0 -2.13858e-28 2.41163e-29 1 2
4935 1 2.53473 2.25155 0.02 0 0 0 1 2
4934 1 2.33089 2.45005 0.02 0 0 0 1 2
4933 1 2.32437 2.25853 0.02 0 0 0 1 2
454 2 2.6 9.6 0 0 0 0 1 5
455 2 2.8 9.6 0 0 0 0 1 5
4948 1 1.96695 3.01138 0.02 0 0 0 1 2
4947 1 1.95254 2.65315 0.02 0 0 0 1 2
4946 1 1.91566 2.82876 0.02 0 0 0 1 2
4951 1 2.16799 3.03992 0.02 0 0 0 1 2
4950 1 2.15394 2.85047 0.02 0 0 0 1 2
4949 1 2.16763 2.66497 0.02 0 0 0 1 2
4957 1 2.57611 3.00181 0.02 0 -4.92472e-26 -4.33592e-27 1 2
4956 1 2.59445 2.80981 0.02 0 -6.73109e-26 7.16871e-28 1 2
4955 1 2.58792 2.62061 0.02 0 -2.18165e-26 1.11473e-27 1 2
4954 1 2.38062 2.82655 0.02 0 0 0 1 2
4953 1 2.36879 3.01719 0.02 0 0 0 1 2
4952 1 2.37412 2.63626 0.02 0 0 0 1 2
488 2 2.6 9.8 0 0 0 0 1 5
5024 1 1.77722 4.96189 0.02 0 0 0 1 2
4967 1 2.19771 3.4148 0.02 0 0 0 1 2
4966 1 2.17733 3.22764 0.02 0 0 0 1 2
4965 1 1.99102 3.39844 0.02 0 0 0 1 2
4964 1 1.96034 3.20444 0.02 0 0 0 1 2
4969 1 2.40524 3.40293 0.02 0 0 0 1 2
4968 1 2.39153 3.20956 0.02 0 0 0 1 2
4971 1 2.61062 3.39198 0.02 0 -1.73673e-25 3.23188e-26 1 2
4970 1 2.59733 3.19534 0.02 0 -1.22998e-24 8.10451e-26 1 2
5026 1 1.75679 5.18165 0.02 0 0 0 1 2
5011 1 1.78746 4.7499 0.02 0 0 0 1 2
4979 1 1.90614 3.7745 0.02 0 0 0 1 2
4981 1 2.25885 3.59964 0.02 0 0 0 1 2
4980 1 2.04727 3.59397 0.02 0 0 0 1 2
4982 1 2.11568 3.78488 0.02 0 0 0 1 2
4977 1 1.84013 3.57987 0.02 0 0 0 1 2
4983 1 2.3223 3.78818 0.02 0 0 0 1 2
4986 1 2.65899 3.59134 0.02 0 -3.05861e-29 -5.49773e-31 1 2
4985 1 2.51987 3.7989 0.02 0 0 0 1 2
4984 1 2.46352 3.59667 0.02 0 0 0 1 2
489 2 2.8 9.8 0 0 0 0 1 5
485 2 2 9.8 0 0 0 0 1 5
4995 1 1.93496 4.17176 0.02 0 0 0 1 2
4993 1 1.90385 3.9719 0.02 0 0 0 1 2
4998 1 2.1385 4.17466 0.02 0 0 0 1 2
4996 1 2.10871 3.97949 0.02 0 0 0 1 2
5001 1 2.54628 4.19345 0.02 0 0 0 1 2
5000 1 2.52847 3.99767 0.02 0 0 0 1 2
4999 1 2.34333 4.17477 0.02 0 0 0 1 2
4997 1 2.3175 3.98174 0.02 0 0 0 1 2
5014 1 2.14891 4.57757 0.02 0 0 0 1 2
5012 1 2.14127 4.37456 0.02 0 0 0 1 2
5008 1 1.94562 4.37884 0.02 0 0 0 1 2
5010 1 1.95479 4.59118 0.02 0 0 0 1 2
5016 1 2.3306 4.77076 0.02 0 0 0 1 2
5018 1 2.54946 4.58883 0.02 0 0 0 1 2
5017 1 2.54702 4.3903 0.02 0 0 0 1 2
5015 1 2.34919 4.56951 0.02 0 0 0 1 2
5013 1 2.34209 4.37143 0.02 0 0 0 1 2
5023 1 1.9653 4.82086 0.02 0 0 0 1 2
5027 1 2.14521 4.78906 0.02 0 0 0 1 2
5028 1 2.13927 5.01453 0.02 0 0 0 1 2
5030 1 2.29183 5.19178 0.02 0 0 0 1 2
5025 1 1.95455 5.04089 0.02 0 0 0 1 2
5029 1 2.32385 4.97859 0.02 0 0 0 1 2
5033 1 2.50981 5.00813 0.02 0 0 0 1 2
5032 1 2.51865 4.79343 0.02 0 0 0 1 2
5031 1 2.47836 5.21627 0.02 0 0 0 1 2
451 2 2 9.6 0 0 0 0 1 5
486 2 2.2 9.8 0 0 0 0 1 5
5044 1 2.11273 5.24183 0.02 0 0 0 1 2
5045 1 2.09848 5.44829 0.02 0 0 0 1 2
5043 1 2.08709 5.64948 0.02 0 0 0 1 2
5047 1 2.27781 5.60025 0.02 0 0 0 1 2
5046 1 2.30421 5.40185 0.02 0 0 0 1 2
5040 1 1.89642 5.45106 0.02 0 0 0 1 2
5038 1 1.92727 5.25393 0.02 0 0 0 1 2
5042 1 1.88941 5.64819 0.02 0 0 0 1 2
5049 1 2.51131 5.41416 0.02 0 0 0 1 2
5048 1 2.47224 5.6108 0.02 0 0 0 1 2
487 2 2.4 9.8 0 0 0 0 1 5
452 2 2.2 9.6 0 0 0 0 1 5
5057 1 1.90203 6.02331 0.02 0 9.57216e-09 -2.99624e-08 1 2
5058 1 2.06873 5.83904 0.02 0 1.25221e-10 -4.00967e-10 1 2
5060 1 2.11132 6.0222 0.02 0 7.1908e-08 -1.92902e-07 1 2
5061 1 2.30826 5.98727 0.02 0 3.53196e-08 -8.61354e-08 1 2
5059 1 2.28585 5.79748 0.02 0 3.97682e-11 -1.30029e-10 1 2
5055 1 1.85628 5.83848 0.02 0 1.54804e-14 -5.07118e-14 1 2
5062 1 2.49661 5.8067 0.02 0 9.25846e-11 -2.10413e-10 1 2
5063 1 2.50766 6.00258 0.02 0 7.96015e-08 -1.60075e-07 1 2
453 2 2.4 9.6 0 0 0 0 1 5
5072 1 2.12005 6.20958 0.02 0 6.35577e-06 -1.20488e-05 1 2
5074 1 2.12143 6.39243 0.02 0 9.0677e-05 -0.00013867 1 2
5069 1 1.91462 6.20609 0.02 0 1.07327e-06 -2.34344e-06 1 2
5071 1 1.89969 6.38403 0.02 0 2.7956e-05 -5.77229e-05 1 2
5073 1 2.3192 6.1839 0.02 0 7.17398e-06 -1.27303e-05 1 2
5075 1 2.32182 6.38198 0.02 0 0.000131242 -0.000170121 1 2
5076 1 2.51608 6.20038 0.02 0 1.53259e-05 -2.10325e-05 1 2
5077 1 2.51385 6.40005 0.02 0 0.000247509 -0.000229775 1 2
5088 1 2.12346 6.56971 0.02 0 0.000126863 -0.000472681 1 2
5087 1 2.15223 6.745 0.02 0 -0.00326451 0.000576953 1 2
5083 1 1.92488 6.56304 0.02 0 1.61572e-05 -0.000256308 1 2
5085 1 1.94228 6.74606 0.02 0 -0.00335021 0.000652107 1 2
5086 1 2.3602 6.76717 0.02 0 -0.00296396 0.000573296 1 2
5090 1 2.57701 6.76409 0.02 0 -0.00168938 0.000286181 1 2
5091 1 2.53813 6.58361 0.02 0 0.00060783 -0.000666452 1 2
5089 1 2.33197 6.57557 0.02 0 0.000234746 -0.000510324 1 2
9 2 2 7 0 0 0 0 1.00113 5
10 2 2.2 7 0 0 0 0 1.00056 5
11 2 2.4 7 0 0 0 0 0.99945 5
43 2 2 7.2 0 0 0 0 1.00063 5
44 2 2.2 7.2 0 0 0 0 1.00152 5
45 2 2.4 7.2 0 0 0 0 1.00007 5
47 2 2.8 7.2 0 0 0 0 0.986949 5
12 2 2.6 7 0 0 0 0 0.995198 5
46 2 2.6 7.2 0 0 0 0 0.995649 5
13 2 2.8 7 0 0 0 0 0.986977 5
147 2 2.4 7.8 0 0 0 0 1 5
78 2 2.2 7.4 0 0 0 0 1.00485 5
77 2 2 7.4 0 0 0 0 0.997481 5
79 2 2.4 7.4 0 0 0 0 0.998489 5
145 2 2 7.8 0 0 0 0 1 5
113 2 2.4 7.6 0 0 0 0 1 5
112 2 2.2 7.6 0 0 0 0 1 5
146 2 2.2 7.8 0 0 0 0 1 5
111 2 2 7.6 0 0 0 0 1 5
80 2 2.6 7.4 0 0 0 0 0.998581 5
115 2 2.8 7.6 0 0 0 0 1 5
81 2 2.8 7.4 0 0 0 0 0.987084 5
114 2 2.6 7.6 0 0 0 0 1 5
148 2 2.6 7.8 0 0 0 0 1 5
149 2 2.8 7.8 0 0 0 0 1 5
215 2 2.4 8.2 0 0 0 0 1 5
214 2 2.2 8.2 0 0 0 0 1 5
213 2 2 8.2 0 0 0 0 1 5
181 2 2.4 8 0 0 0 0 1 5
180 2 2.2 8 0 0 0 0 1 5
179 2 2 8 0 0 0 0 1 5
182 2 2.6 8 0 0 0 0 1 5
217 2 2.8 8.2 0 0 0 0 1 5
216 2 2.6 8.2 0 0 0 0 1 5
183 2 2.8 8 0 0 0 0 1 5
248 2 2.2 8.4 0 0 0 0 1 5
249 2 2.4 8.4 0 0 0 0 1 5
281 2 2 8.6 0 0 0 0 1 5
282 2 2.2 8.6 0 0 0 0 1 5
283 2 2.4 8.6 0 0 0 0 1 5
247 2 2 8.4 0 0 0 0 1 5
250 2 2.6 8.4 0 0 0 0 1 5
251 2 2.8 8.4 0 0 0 0 1 5
284 2 2.6 8.6 0 0 0 0 1 5
285 2 2.8 8.6 0 0 0 0 1 5
350 2 2.2 9 0 0 0 0 1 5
349 2 2 9 0 0 0 0 1 5
317 2 2.4 8.8 0 0 0 0 1 5
316 2 2.2 8.8 0 0 0 0 1 5
315 2 2 8.8 0 0 0 0 1 5
351 2 2.4 9 0 0 0 0 1 5
318 2 2.6 8.8 0 0 0 0 1 5
319 2 2.8 8.8 0 0 0 0 1 5
352 2 2.6 9 0 0 0 0 1 5
353 2 2.8 9 0 0 0 0 1 5
384 2 2.2 9.2 0 0 0 0 1 5
418 2 2.2 9.4 0 0 0 0 1 5
383 2 2 9.2 0 0 0 0 1 5
417 2 2 9.4 0 0 0 0 1 5
385 2 2.4 9.2 0 0 0 0 1 5
419 2 2.4 9.4 0 0 0 0 1 5
386 2 2.6 9.2 0 0 0 0 1 5
387 2 2.8 9.2 0 0 0 0 1 5
421 2 2.8 9.4 0 0 0 0 1 5
420 2 2.6 9.4 0 0 0 0 1 5
4865 1 1.78859 0.730074 0.02 0 0 0 1 2
4878 1 1.8125 0.935026 0.02 0 0 0 1 2
4879 1 1.79218 1.13418 0.02 0 0 0 1 2
4945 1 1.75586 2.99621 0.02 0 0 0 1 2
4963 1 1.78767 3.38149 0.02 0 0 0 1 2
4896 1 1.74647 1.32832 0.02 0 0 0 1 2
4897 1 1.72111 1.52127 0.02 0 0 0 1 2
5070 1 1.69141 6.38626 0.02 0 1.09253e-06 -2.49427e-06 1 2
4898 1 1.71039 1.71271 0.02 0 0 0 1 2
4914 1 1.68821 2.09299 0.02 0 0 0 1 2
4913 1 1.69392 1.90235 0.02 0 0 0 1 2
4927 1 1.68577 2.28195 0.02 0 0 0 1 2
4943 1 1.69678 2.64036 0.02 0 0 0 1 2
5056 1 1.69103 6.0091 0.02 0 1.3098e-11 -4.39359e-11 1 2
4944 1 1.69284 2.8171 0.02 0 0 0 1 2
5084 1 1.73396 6.76272 0.02 0 -0.00162966 0.000534053 1 2
5041 1 1.69474 5.61046 0.02 0 0 0 1 2
5039 1 1.70935 5.40353 0.02 0 0 0 1 2
4962 1 1.75132 3.18701 0.02 0 0 0 1 2
5082 1 1.72962 6.57346 0.02 0 -3.70592e-05 -3.2973e-06 1 2
4978 1 1.69728 3.77943 0.02 0 0 0 1 2
4994 1 1.72935 4.16123 0.02 0 0 0 1 2
4992 1 1.69698 3.97068 0.02 0 0 0 1 2
5068 1 1.70138 6.1991 0.02 0 1.55171e-08 -4.9397e-08 1 2
5009 1 1.75378 4.55042 0.02 0 0 0 1 2
5007 1 1.74875 4.3547 0.02 0 0 0 1 2
4847 1 1.65917 0.320533 0.02 0 0 0 1 2
4849 1 1.65483 0.105539 0.02 0 0 0 1 2
4863 1 1.65214 0.528996 0.02 0 0 0 1 2
5054 1 1.65964 5.80954 0.02 0 0 0 1 2
4928 1 1.66701 2.46409 0.02 0 0 0 1 2
4976 1 1.63705 3.59067 0.02 0 0 0 1 2
4862 1 1.59076 0.728702 0.02 0 0 0 1 2
5021 1 1.57556 5.1407 0.02 0 0 0 1 2
5004 1 1.54946 4.35183 0.02 0 0 0 1 2
4876 1 1.61061 0.925911 0.02 0 0 0 1 2
4877 1 1.58814 1.12143 0.02 0 0 0 1 2
4895 1 1.54364 1.31688 0.02 0 0 0 1 2
5005 1 1.54714 4.55067 0.02 0 0 0 1 2
5022 1 1.58093 4.94279 0.02 0 0 0 1 2
5006 1 1.59104 4.7463 0.02 0 0 0 1 2
4960 1 1.54949 3.19806 0.02 0 0 0 1 2
4961 1 1.58779 3.39618 0.02 0 0 0 1 2
5081 1 1.53625 6.73857 0.02 0 -5.67212e-05 2.15499e-05 1 2
4988 1 1.4925 3.95088 0.02 0 0 0 1 2
4975 1 1.48167 3.75439 0.02 0 0 0 1 2
4990 1 1.52345 4.15098 0.02 0 0 0 1 2
5079 1 1.53095 6.55154 0.02 0 -6.37813e-08 7.55661e-09 1 2
4893 1 1.51645 1.51418 0.02 0 0 0 1 2
4894 1 1.50696 1.71282 0.02 0 0 0 1 2
5035 1 1.53483 5.34326 0.02 0 0 0 1 2
5065 1 1.4926 6.17564 0.02 0 0 0 1 2
4911 1 1.48225 1.90792 0.02 0 0 0 1 2
4912 1 1.48954 2.10177 0.02 0 0 0 1 2
5067 1 1.48697 6.36341 0.02 0 0 0 1 2
5037 1 1.50774 5.56701 0.02 0 0 0 1 2
5051 1 1.47295 5.7821 0.02 0 0 0 1 2
5053 1 1.48316 5.98504 0.02 0 0 0 1 2
4942 1 1.5418 2.99988 0.02 0 0 0 1 2
4941 1 1.48366 2.80866 0.02 0 0 0 1 2
1583 2 3.2 -9.6 0 0 0 0 1 5
1582 2 3 -9.6 0 0 0 0 1 5
1549 2 3.2 -9.8 0 0 0 0 1 5
1548 2 3 -9.8 0 0 0 0 1 5
1515 2 3.2 -10 0 0 0 0 1 5
1514 2 3 -10 0 0 0 0 1 5
1584 2 3.4 -9.6 0 0 0 0 1 5
1550 2 3.4 -9.8 0 0 0 0 1 5
1516 2 3.4 -10 0 0 0 0 1 5
1586 2 3.8 -9.6 0 0 0 0 1 5
1585 2 3.6 -9.6 0 0 0 0 1 5
1552 2 3.8 -9.8 0 0 0 0 1 5
1551 2 3.6 -9.8 0 0 0 0 1 5
1518 2 3.8 -10 0 0 0 0 1 5
1517 2 3.6 -10 0 0 0 0 1 5
1588 2 4.2 -9.6 0 0 0 0 1 5
1587 2 4 -9.6 0 0 0 0 1 5
1554 2 4.2 -9.8 0 0 0 0 1 5
1553 2 4 -9.8 0 0 0 0 1 5
1520 2 4.2 -10 0 0 0 0 1 5
1519 2 4 -10 0 0 0 0 1 5
1616 2 3 -9.4 0 0 0 0 1 5
1617 2 3.2 -9.4 0 0 0 0 1 5
1651 2 3.2 -9.2 0 0 0 0 1 5
1650 2 3 -9.2 0 0 0 0 1 5
1652 2 3.4 -9.2 0 0 0 0 1 5
1618 2 3.4 -9.4 0 0 0 0 1 5
1653 2 3.6 -9.2 0 0 0 0 1 5
1654 2 3.8 -9.2 0 0 0 0 1 5
1620 2 3.8 -9.4 0 0 0 0 1 5
1619 2 3.6 -9.4 0 0 0 0 1 5
1622 2 4.2 -9.4 0 0 0 0 1 5
1655 2 4 -9.2 0 0 0 0 1 5
1656 2 4.2 -9.2 0 0 0 0 1 5
1621 2 4 -9.4 0 0 0 0 1 5
1719 2 3.2 -8.8 0 0 0 0 1 5
1718 2 3 -8.8 0 0 0 0 1 5
1685 2 3.2 -9 0 0 0 0 1 5
1684 2 3 -9 0 0 0 0 1 5
1686 2 3.4 -9 0 0 0 0 1 5
1720 2 3.4 -8.8 0 0 0 0 1 5
1687 2 3.6 -9 0 0 0 0 1 5
1688 2 3.8 -9 0 0 0 0 1 5
1721 2 3.6 -8.8 0 0 0 0 1 5
1722 2 3.8 -8.8 0 0 0 0 1 5
1689 2 4 -9 0 0 0 0 1 5
1690 2 4.2 -9 0 0 0 0 1 5
1723 2 4 -8.8 0 0 0 0 1 5
1724 2 4.2 -8.8 0 0 0 0 1 5
1752 2 3 -8.6 0 0 0 0 1 5
1753 2 3.2 -8.6 0 0 0 0 1 5
1786 2 3 -8.4 0 0 0 0 1 5
1787 2 3.2 -8.4 0 0 0 0 1 5
1754 2 3.4 -8.6 0 0 0 0 1 5
1788 2 3.4 -8.4 0 0 0 0 1 5
1755 2 3.6 -8.6 0 0 0 0 1 5
1756 2 3.8 -8.6 0 0 0 0 1 5
1789 2 3.6 -8.4 0 0 0 0 1 5
1790 2 3.8 -8.4 0 0 0 0 1 5
1757 2 4 -8.6 0 0 0 0 1 5
1758 2 4.2 -8.6 0 0 0 0 1 5
1791 2 4 -8.4 0 0 0 0 1 5
1792 2 4.2 -8.4 0 0 0 0 1 5
1820 2 3 -8.2 0 0 0 0 1 5
1821 2 3.2 -8.2 0 0 0 0 1 5
1854 2 3 -8 0 0 0 0 1 5
1855 2 3.2 -8 0 0 0 0 1 5
1822 2 3.4 -8.2 0 0 0 0 1 5
1856 2 3.4 -8 0 0 0 0 1 5
1823 2 3.6 -8.2 0 0 0 0 1 5
1824 2 3.8 -8.2 0 0 0 0 1 5
1857 2 3.6 -8 0 0 0 0 1 5
1858 2 3.8 -8 0 0 0 0 1 5
1825 2 4 -8.2 0 0 0 0 1 5
1826 2 4.2 -8.2 0 0 0 0 1 5
1859 2 4 -8 0 0 0 0 1 5
1860 2 4.2 -8 0 0 0 0 1 5
1888 2 3 -7.8 0 0 0 0 1 5
1889 2 3.2 -7.8 0 0 0 0 1 5
1922 2 3 -7.6 0 0 0 0 1 5
1923 2 3.2 -7.6 0 0 0 0 1 5
1956 2 3 -7.4 0 0 0 0 1.01169 5
1957 2 3.2 -7.4 0 0 0 0 1.00338 5
1890 2 3.4 -7.8 0 0 0 0 1 5
1924 2 3.4 -7.6 0 0 0 0 1 5
1958 2 3.4 -7.4 0 0 0 0 1.00116 5
1891 2 3.6 -7.8 0 0 0 0 1 5
1892 2 3.8 -7.8 0 0 0 0 1 5
1925 2 3.6 -7.6 0 0 0 0 1 5
1926 2 3.8 -7.6 0 0 0 0 1 5
1959 2 3.6 -7.4 0 0 0 0 0.996974 5
1960 2 3.8 -7.4 0 0 0 0 1.00031 5
1893 2 4 -7.8 0 0 0 0 1 5
1894 2 4.2 -7.8 0 0 0 0 1 5
1927 2 4 -7.6 0 0 0 0 1 5
1928 2 4.2 -7.6 0 0 0 0 1 5
1961 2 4 -7.4 0 0 0 0 1.00309 5
1962 2 4.2 -7.4 0 0 0 0 0.995603 5
1990 2 3 -7.2 0 0 0 0 1.00971 5
1991 2 3.2 -7.2 0 0 0 0 1.00545 5
2024 2 3 -7 0 0 0 0 1.00822 5
2025 2 3.2 -7 0 0 0 0 1.00518 5
1992 2 3.4 -7.2 0 0 0 0 1.0009 5
2026 2 3.4 -7 0 0 0 0 1.00105 5
1993 2 3.6 -7.2 0 0 0 0 0.999007 5
1994 2 3.8 -7.2 0 0 0 0 1.00017 5
2027 2 3.6 -7 0 0 0 0 0.999727 5
2028 2 3.8 -7 0 0 0 0 1.00017 5
1995 2 4 -7.2 0 0 0 0 1.00062 5
1996 2 4.2 -7.2 0 0 0 0 0.997067 5
2029 2 4 -7 0 0 0 0 1.00022 5
2030 2 4.2 -7 0 0 0 0 0.997076 5
4717 1 3.63461 -6.74572 0.02 0 -0.00337429 -0.000339136 1 2
4719 1 3.62812 -6.56407 0.02 0 -3.3978e-05 0.000258824 1 2
4716 1 3.43519 -6.57535 0.02 0 0.000217593 0.000440128 1 2
4714 1 3.41892 -6.76661 0.02 0 -0.00295733 -0.000342404 1 2
4723 1 4.03494 -6.56288 0.0188427 0 4.06064e-05 0.000460393 1 2
4721 1 3.96717 -6.74604 0.0161382 0 -0.00208044 -0.000530903 1 2
4718 1 3.80962 -6.75043 0.0165208 0 -0.00148287 -0.000320634 1 2
4720 1 3.83297 -6.56481 0.019514 0 -4.5739e-05 0.000422111 1 2
4724 1 4.22476 -6.56544 0.0191669 0 -4.43932e-05 0.000613961 1 2
4722 1 4.11062 -6.75916 0.0158795 0 -0.00260597 -0.00051362 1 2
4725 1 4.28031 -6.73676 0.0166592 0 -0.00163118 -0.000168849 1 2
4593 1 3.96437 -0.401333 0.02 0 -1.16041e-18 -2.35032e-19 1 2
4594 1 3.9386 -0.191329 0.02 0 -2.27685e-19 -3.46191e-20 1 2
4664 1 3.21302 -2.0009 0.02 0 -2.18026e-21 8.33118e-23 1 2
4762 1 3.20237 -5.39266 0.02 0 -1.68087e-12 -1.17107e-15 1 2
4733 1 3.65762 -6.37882 0.02 0 5.31168e-05 0.000139052 1 2