ITEM: TIMESTEP
24000
ITEM: NUMBER OF ATOMS
1179
ITEM: BOX BOUNDS ff ff pp
0.0000000000000000e+00 4.4000000000000004e+00
-1.0000000000000000e+01 1.0000000000000000e+01
-2.0000000000000000e-02 2.0000000000000000e-02
ITEM: ATOMS id type x y vx vy fx fy c_den c_phase
1509 2 2 -10 0 0 0 0 1 5
1510 2 2.2 -10 0 0 0 0 1 5
1511 2 2.4 -10 0 0 0 0 1 5
1543 2 2 -9.8 0 0 0 0 1 5
1544 2 2.2 -9.8 0 0 0 0 1 5
1545 2 2.4 -9.8 0 0 0 0 1 5
1577 2 2 -9.6 0 0 0 0 1 5
1578 2 2.2 -9.6 0 0 0 0 1 5
1579 2 2.4 -9.6 0 0 0 0 1 5
1512 2 2.6 -10 0 0 0 0 1 5
1513 2 2.8 -10 0 0 0 0 1 5
1546 2 2.6 -9.8 0 0 0 0 1 5
1547 2 2.8 -9.8 0 0 0 0 1 5
1580 2 2.6 -9.6 0 0 0 0 1 5
1581 2 2.8 -9.6 0 0 0 0 1 5
1645 2 2 -9.2 0 0 0 0 1 5
1646 2 2.2 -9.2 0 0 0 0 1 5
1647 2 2.4 -9.2 0 0 0 0 1 5
1613 2 2.4 -9.4 0 0 0 0 1 5
1612 2 2.2 -9.4 0 0 0 0 1 5
1611 2 2 -9.4 0 0 0 0 1 5
1648 2 2.6 -9.2 0 0 0 0 1 5
1649 2 2.8 -9.2 0 0 0 0 1 5
1615 2 2.8 -9.4 0 0 0 0 1 5
1614 2 2.6 -9.4 0 0 0 0 1 5
1679 2 2 -9 0 0 0 0 1 5
1680 2 2.2 -9 0 0 0 0 1 5
1681 2 2.4 -9 0 0 0 0 1 5
1713 2 2 -8.8 0 0 0 0 1 5
1714 2 2.2 -8.8 0 0 0 0 1 5
1715 2 2.4 -8.8 0 0 0 0 1 5
1682 2 2.6 -9 0 0 0 0 1 5
1683 2 2.8 -9 0 0 0 0 1 5
1716 2 2.6 -8.8 0 0 0 0 1 5
1717 2 2.8 -8.8 0 0 0 0 1 5
1783 2 2.4 -8.4 0 0 0 0 1 5
1782 2 2.2 -8.4 0 0 0 0 1 5
1781 2 2 -8.4 0 0 0 0 1 5
1747 2 2 -8.6 0 0 0 0 1 5
1748 2 2.2 -8.6 0 0 0 0 1 5
1749 2 2.4 -8.6 0 0 0 0 1 5
1785 2 2.8 -8.4 0 0 0 0 1 5
1784 2 2.6 -8.4 0 0 0 0 1 5
1750 2 2.6 -8.6 0 0 0 0 1 5
1751 2 2.8 -8.6 0 0 0 0 1 5
1851 2 2.4 -8 0 0 0 0 1 5
1850 2 2.2 -8 0 0 0 0 1 5
1849 2 2 -8 0 0 0 0 1 5
1817 2 2.4 -8.2 0 0 0 0 1 5
1816 2 2.2 -8.2 0 0 0 0 1 5
1815 2 2 -8.2 0 0 0 0 1 5
1853 2 2.8 -8 0 0 0 0 1 5
1852 2 2.6 -8 0 0 0 0 1 5
1819 2 2.8 -8.2 0 0 0 0 1 5
1818 2 2.6 -8.2 0 0 0 0 1 5
1953 2 2.4 -7.4 0 0 0 0 1.00626 5
1952 2 2.2 -7.4 0 0 0 0 0.9996 5
1951 2 2 -7.4 0 0 0 0 0.999437 5
1919 2 2.4 -7.6 0 0 0 0 1 5
1918 2 2.2 -7.6 0 0 0 0 1 5
1917 2 2 -7.6 0 0 0 0 1 5
1885 2 2.4 -7.8 0 0 0 0 1 5
1884 2 2.2 -7.8 0 0 0 0 1 5
1883 2 2 -7.8 0 0 0 0 1 5
1955 2 2.8 -7.4 0 0 0 0 0.991724 5
1954 2 2.6 -7.4 0 0 0 0 0.999888 5
1921 2 2.8 -7.6 0 0 0 0 1 5
1920 2 2.6 -7.6 0 0 0 0 1 5
1887 2 2.8 -7.8 0 0 0 0 1 5
1886 2 2.6 -7.8 0 0 0 0 1 5
2021 2 2.4 -7 0 0 0 0 1.00011 5
2020 2 2.2 -7 0 0 0 0 0.9998 5
2019 2 2 -7 0 0 0 0 1.00133 5
1987 2 2.4 -7.2 0 0 0 0 1.00093 5
1986 2 2.2 -7.2 0 0 0 0 0.99974 5
1985 2 2 -7.2 0 0 0 0 1.00094 5
2023 2 2.8 -7 0 0 0 0 0.998961 5
2022 2 2.6 -7 0 0 0 0 0.999714 5
1989 2 2.8 -7.2 0 0 0 0 0.998236 5
1988 2 2.6 -7.2 0 0 0 0 0.999687 5
3178 1 2.19369 -6.75328 0.02 0 -0.00322512 -0.000514349 1 2
3180 1 2.21781 -6.5679 0.02 0 0.000193105 0.000557535 1 2
3177 1 1.99703 -6.73563 0.02 0 -0.00210598 -0.00016435 1 2
3179 1 2.01296 -6.55292 0.02 0 0.000328184 0.000677847 1 2
3176 1 1.8102 -6.56879 0.02 0 -5.39452e-05 0.000182063 1 2
3184 1 2.62982 -6.58096 0.02 0 2.06355e-05 0.000493224 1 2
3183 1 2.43091 -6.56301 0.02 0 0.000169505 0.000599866 1 2
3182 1 2.59818 -6.76867 0.02 0 -0.00321181 -0.00054942 1 2
3181 1 2.39193 -6.73604 0.02 0 -0.00246067 -0.000560583 1 2
3187 1 2.82808 -6.55022 0.02 0 0.000153937 0.000416641 1 2
3185 1 2.80654 -6.73157 0.02 0 -0.0020837 -0.000414799 1 2
3075 1 1.65649 -0.314496 0.02 0 0 0 1 2
3189 1 1.63962 -6.37653 0.02 0 2.70041e-06 4.4969e-07 1 2
3193 1 2.23232 -6.38198 0.02 0 9.80615e-05 0.00016489 1 2
3195 1 2.19377 -6.19033 0.02 0 6.17253e-06 1.22488e-05 1 2
3192 1 2.03588 -6.36413 0.02 0 5.53672e-05 0.00012904 1 2
3194 1 1.99193 -6.1736 0.02 0 1.95724e-06 3.70451e-06 1 2
3191 1 1.84012 -6.37813 0.02 0 1.1217e-05 6.95363e-05 1 2
3198 1 2.39557 -6.1913 0.02 0 7.15414e-06 1.39997e-05 1 2
3199 1 2.60406 -6.20515 0.02 0 8.86208e-06 1.67547e-05 1 2
3197 1 2.62706 -6.39143 0.02 0 0.000114571 0.000150525 1 2
3196 1 2.4288 -6.38001 0.02 0 0.000102474 0.000151706 1 2
3202 1 2.83001 -6.18795 0.02 0 6.77164e-06 1.19965e-05 1 2
3200 1 2.8217 -6.36654 0.02 0 9.01575e-05 0.000115801 1 2
3074 1 1.62822 -0.114362 0.02 0 0 0 1 2
3267 1 1.62688 -4.21847 0.02 0 0 0 1 2
3209 1 2.19768 -5.81115 0.02 0 4.54342e-11 1.56815e-10 1 2
3207 1 2.20125 -6.00104 0.02 0 4.88622e-08 1.35636e-07 1 2
3206 1 1.98362 -5.9881 0.02 0 1.02866e-08 2.6454e-08 1 2
3208 1 1.99129 -5.80404 0.02 0 1.31477e-11 4.09877e-11 1 2
3212 1 2.40421 -5.81359 0.02 0 6.69018e-11 2.17269e-10 1 2
3210 1 2.41454 -6.003 0.02 0 4.57036e-08 1.17243e-07 1 2
3214 1 2.64587 -5.66559 0.02 0 0 0 1 2
3213 1 2.61977 -5.84316 0.02 0 2.11196e-10 5.50752e-10 1 2
3211 1 2.62541 -6.0243 0.02 0 1.05734e-07 2.6663e-07 1 2
3218 1 2.8565 -5.66211 0.02 0 0 0 1 2
3215 1 2.82814 -6.00969 0.02 0 6.90058e-08 1.33601e-07 1 2
3217 1 2.86826 -5.83787 0.02 0 3.46485e-10 6.0295e-10 1 2
3220 1 1.63726 -5.38583 0.02 0 0 0 1 2
3224 1 2.22603 -5.61815 0.02 0 0 0 1 2
3226 1 2.24637 -5.42229 0.02 0 0 0 1 2
3231 1 2.28982 -5.22877 0.02 0 0 0 1 2
3223 1 2.01659 -5.61945 0.02 0 0 0 1 2
3225 1 2.03976 -5.43257 0.02 0 0 0 1 2
3227 1 2.07921 -5.24437 0.02 0 0 0 1 2
3221 1 1.81352 -5.59899 0.02 0 0 0 1 2
3222 1 1.8384 -5.40026 0.02 0 0 0 1 2
3230 1 2.65072 -5.47912 0.02 0 0 0 1 2
3233 1 2.70293 -5.29448 0.02 0 0 0 1 2
3228 1 2.43497 -5.62533 0.02 0 0 0 1 2
3229 1 2.44843 -5.43244 0.02 0 0 0 1 2
3232 1 2.50066 -5.24749 0.02 0 0 0 1 2
3234 1 2.86949 -5.48168 0.02 0 0 0 1 2
3235 1 2.91142 -5.3009 0.02 0 0 0 1 2
3244 1 2.28924 -5.03441 0.02 0 0 0 1 2
3243 1 2.13024 -4.85503 0.02 0 0 0 1 2
3242 1 2.08323 -5.04988 0.02 0 0 0 1 2
3239 1 1.8754 -5.20589 0.02 0 0 0 1 2
3240 1 1.88198 -5.00972 0.02 0 0 0 1 2
3241 1 1.92395 -4.82157 0.02 0 0 0 1 2
3247 1 2.54463 -4.87165 0.02 0 0 0 1 2
3248 1 2.70722 -5.09969 0.02 0 0 0 1 2
3245 1 2.33898 -4.84467 0.02 0 0 0 1 2
3246 1 2.4971 -5.05747 0.02 0 0 0 1 2
3249 1 2.74192 -4.90537 0.02 0 -2.45144e-28 -3.56996e-28 1 2
3251 1 2.94267 -4.92468 0.02 0 0 0 1 2
3250 1 2.9178 -5.11353 0.02 0 0 0 1 2
3259 1 2.27546 -4.45609 0.02 0 0 0 1 2
3256 1 2.0944 -4.65561 0.02 0 0 0 1 2
3257 1 2.0739 -4.4529 0.02 0 0 0 1 2
3254 1 1.88774 -4.62864 0.02 0 0 0 1 2
3255 1 1.87455 -4.43154 0.02 0 0 0 1 2
3262 1 2.68946 -4.50463 0.02 0 -3.70428e-24 -1.36204e-24 1 2
3263 1 2.70939 -4.70114 0.02 0 -2.78181e-25 -2.43275e-25 1 2
3258 1 2.29696 -4.65095 0.02 0 0 0 1 2
3261 1 2.48118 -4.47854 0.02 0 -4.24726e-26 -9.46996e-27 1 2
3260 1 2.504 -4.67538 0.02 0 -1.26843e-27 -7.49912e-28 1 2
3219 1 1.61721 -5.58567 0.02 0 0 0 1 2
3265 1 2.89873 -4.53126 0.02 0 -1.16586e-23 -3.1967e-24 1 2
3264 1 2.90938 -4.72887 0.02 0 -4.01478e-25 -2.43191e-25 1 2
3273 1 2.19582 -4.06986 0.02 0 0 0 1 2
3271 1 2.23738 -4.26254 0.02 0 0 0 1 2
3270 1 2.03385 -4.24787 0.02 0 0 0 1 2
3272 1 1.98495 -4.04595 0.02 0 0 0 1 2
3269 1 1.83051 -4.23312 0.02 0 0 0 1 2
3276 1 2.40414 -4.08037 0.02 0 0 0 1 2
3275 1 2.64838 -4.30878 0.02 0 -4.15196e-24 4.45874e-25 1 2
3277 1 2.60917 -4.11004 0.02 0 -5.03372e-25 2.71705e-25 1 2
3274 1 2.4429 -4.27983 0.02 0 -1.18493e-26 1.38231e-27 1 2
3281 1 2.74847 -3.93693 0.02 0 -1.6963e-25 2.03936e-25 1 2
3282 1 2.96262 -3.96157 0.02 0 -3.76923e-23 -3.53624e-24 1 2
3279 1 2.81523 -4.13072 0.02 0 -6.62275e-24 4.93617e-24 1 2
3278 1 2.85244 -4.33223 0.02 0 -3.28649e-23 5.30463e-24 1 2
3175 1 1.60952 -6.55978 0.02 0 -4.29392e-06 -2.40423e-06 1 2
3286 1 2.13009 -3.87894 0.02 0 0 0 1 2
3288 1 2.1279 -3.67917 0.02 0 0 0 1 2
3287 1 1.93472 -3.61387 0.02 0 0 0 1 2
3285 1 1.93799 -3.82989 0.02 0 0 0 1 2
3294 1 2.5181 -3.52538 0.02 0 0 0 1 2
3292 1 2.54598 -3.7156 0.02 0 0 0 1 2
3293 1 2.30721 -3.49603 0.02 0 0 0 1 2
3290 1 2.54104 -3.90873 0.02 0 -8.76152e-30 7.48305e-30 1 2
3291 1 2.33449 -3.68926 0.02 0 0 0 1 2
3289 1 2.33397 -3.8842 0.02 0 0 0 1 2
3297 1 2.73519 -3.55933 0.02 0 0 0 1 2
3295 1 2.7602 -3.74724 0.02 0 -9.18583e-30 1.6212e-29 1 2
3298 1 2.95253 -3.58325 0.02 0 -4.52426e-25 4.86532e-27 1 2
3296 1 2.97356 -3.77083 0.02 0 -1.07658e-22 -8.73623e-25 1 2
3307 1 2.27811 -3.09739 0.02 0 0 0 1 2
3301 1 2.10536 -3.47352 0.02 0 0 0 1 2
3304 1 2.104 -3.2637 0.02 0 0 0 1 2
3303 1 1.91855 -3.1789 0.02 0 0 0 1 2
3302 1 1.91862 -3.39236 0.02 0 0 0 1 2
3306 1 2.51034 -3.33433 0.02 0 0 0 1 2
3305 1 2.30284 -3.30042 0.02 0 0 0 1 2
3309 1 2.67211 -3.17598 0.02 0 0 0 1 2
3308 1 2.47274 -3.13507 0.02 0 0 0 1 2
3310 1 2.72546 -3.37192 0.02 0 0 0 1 2
3311 1 2.95236 -3.3959 0.02 0 0 0 1 2
3312 1 2.87518 -3.21298 0.02 0 0 0 1 2
3171 1 2.09058 -3.04285 0.02 0 0 0 1 2
3168 1 2.09875 -2.82939 0.02 0 0 0 1 2
3167 1 2.10526 -2.61946 0.02 0 0 0 1 2
3170 1 1.90397 -2.96783 0.02 0 0 0 1 2
3169 1 1.90754 -2.76422 0.02 0 0 0 1 2
3164 1 2.2962 -2.69522 0.02 0 0 0 1 2
3161 1 2.69064 -2.78421 0.02 0 0 0 1 2
3162 1 2.69304 -2.98138 0.02 0 0 0 1 2
3165 1 2.4913 -2.93657 0.02 0 0 0 1 2
3163 1 2.49324 -2.73523 0.02 0 0 0 1 2
3166 1 2.2909 -2.89647 0.02 0 0 0 1 2
3160 1 2.89761 -3.01868 0.02 0 0 0 1 2
3159 1 2.89087 -2.82192 0.02 0 0 0 1 2
3158 1 2.89337 -2.62142 0.02 0 0 0 1 2
3149 1 2.29056 -2.28018 0.02 0 0 0 1 2
3153 1 2.10342 -2.41286 0.02 0 0 0 1 2
3152 1 2.10527 -2.20648 0.02 0 0 0 1 2
3154 1 1.9042 -2.36315 0.02 0 0 0 1 2
3155 1 1.91048 -2.56319 0.02 0 0 0 1 2
3151 1 2.29829 -2.49111 0.02 0 0 0 1 2
3150 1 2.49644 -2.53231 0.02 0 0 0 1 2
3146 1 2.67301 -2.37639 0.02 0 0 0 1 2
3147 1 2.69368 -2.58452 0.02 0 0 0 1 2
3148 1 2.48163 -2.32488 0.02 0 0 0 1 2
3143 1 2.85512 -2.21109 0.02 0 0 0 1 2
3145 1 2.86389 -2.41858 0.02 0 0 0 1 2
3237 1 1.67716 -4.99345 0.02 0 0 0 1 2
3238 1 1.71037 -4.80394 0.02 0 0 0 1 2
3132 1 2.28707 -1.8504 0.02 0 0 0 1 2
3134 1 2.27264 -2.05429 0.02 0 0 0 1 2
3135 1 2.08821 -1.79973 0.02 0 0 0 1 2
3137 1 2.07801 -2.00032 0.02 0 0 0 1 2
3138 1 1.87666 -1.96891 0.02 0 0 0 1 2
3139 1 1.90555 -2.16607 0.02 0 0 0 1 2
3136 1 1.88357 -1.77545 0.02 0 0 0 1 2
3131 1 2.48125 -1.91765 0.02 0 0 0 1 2
3133 1 2.46025 -2.11851 0.02 0 0 0 1 2
3130 1 2.65776 -2.16946 0.02 0 0 0 1 2
3129 1 2.67768 -1.97137 0.02 0 0 0 1 2
3128 1 2.67294 -1.76874 0.02 0 0 0 1 2
3127 1 2.87016 -2.00359 0.02 0 0 0 1 2
3236 1 1.67244 -5.18892 0.02 0 0 0 1 2
3125 1 2.8647 -1.78553 0.02 0 0 0 1 2
3253 1 1.67256 -4.41611 0.02 0 0 0 1 2
3116 1 2.28551 -1.65068 0.02 0 0 0 1 2
3119 1 2.08723 -1.59823 0.02 0 0 0 1 2
3117 1 2.10301 -1.40049 0.02 0 0 0 1 2
3118 1 1.89912 -1.38137 0.02 0 0 0 1 2
3120 1 1.88799 -1.58116 0.02 0 0 0 1 2
3115 1 2.48208 -1.71069 0.02 0 0 0 1 2
3113 1 2.50328 -1.5075 0.02 0 0 0 1 2
3114 1 2.30496 -1.457 0.02 0 0 0 1 2
3111 1 2.68838 -1.34964 0.02 0 0 0 1 2
3112 1 2.69369 -1.56411 0.02 0 0 0 1 2
3110 1 2.88421 -1.56535 0.02 0 0 0 1 2
3109 1 2.88126 -1.35301 0.02 0 0 0 1 2
3103 1 2.09516 -0.998532 0.02 0 0 0 1 2
3105 1 2.10185 -1.20089 0.02 0 0 0 1 2
3106 1 1.90173 -1.17986 0.02 0 0 0 1 2
3104 1 1.8963 -0.97562 0.02 0 0 0 1 2
3102 1 2.29984 -1.25907 0.02 0 0 0 1 2
3101 1 2.49812 -1.29962 0.02 0 0 0 1 2
3097 1 2.67188 -1.12526 0.02 0 0 0 1 2
3096 1 2.6623 -0.901264 0.02 0 0 0 1 2
3099 1 2.48572 -1.09013 0.02 0 0 0 1 2
3098 1 2.47299 -0.878956 0.02 0 0 0 1 2
3100 1 2.29151 -1.05584 0.02 0 0 0 1 2
3093 1 2.85139 -0.93144 0.02 0 0 0 1 2
3252 1 1.6802 -4.61251 0.02 0 0 0 1 2
3090 1 1.69759 -0.511003 0.02 0 0 0 1 2
3095 1 2.85667 -1.14299 0.02 0 0 0 1 2
3085 1 2.28079 -0.849358 0.02 0 0 0 1 2
3084 1 2.26799 -0.639103 0.02 0 0 0 1 2
3088 1 2.08723 -0.792507 0.02 0 0 0 1 2
3086 1 2.084 -0.578435 0.02 0 0 0 1 2
3089 1 1.8915 -0.771323 0.02 0 0 0 1 2
3087 1 1.89431 -0.565154 0.02 0 0 0 1 2
3082 1 2.43232 -0.443907 0.02 0 0 0 1 2
3080 1 2.62461 -0.473851 0.02 0 0 0 1 2
3081 1 2.64389 -0.685757 0.02 0 0 0 1 2
3083 1 2.45568 -0.661033 0.02 0 0 0 1 2
3108 1 1.7051 -1.10797 0.02 0 0 0 1 2
3107 1 1.69887 -0.907127 0.02 0 0 0 1 2
3077 1 2.82014 -0.513537 0.02 0 0 0 1 2
3079 1 2.83636 -0.722222 0.02 0 0 0 1 2
3068 1 2.24096 -0.420077 0.02 0 0 0 1 2
3069 1 2.20528 -0.199263 0.02 0 0 0 1 2
3070 1 2.01908 -0.140142 0.02 0 0 0 1 2
3072 1 2.05149 -0.358881 0.02 0 0 0 1 2
3071 1 1.82737 -0.152625 0.02 0 0 0 1 2
3073 1 1.85933 -0.356455 0.02 0 0 0 1 2
3062 1 2.73923 -0.0865354 0.02 0 0 0 1 2
3063 1 2.76773 -0.30017 0.02 0 0 0 1 2
3066 1 2.39114 -0.224811 0.02 0 0 0 1 2
3065 1 2.57775 -0.255692 0.02 0 0 0 1 2
3064 1 2.36181 -0.00442981 0.02 0 0 0 1 2
3067 1 2.55031 -0.0379554 0.02 0 0 0 1 2
3060 1 2.93055 -0.115834 0.02 0 0 0 1 2
3061 1 2.96054 -0.326468 0.02 0 0 0 1 2
3174 1 1.79659 -6.75993 0.02 0 -0.00456689 -0.00152417 1 2
3190 1 1.78905 -6.18885 0.02 0 2.99815e-07 2.16239e-07 1 2
3204 1 1.77618 -5.99591 0.02 0 4.36371e-09 3.13391e-09 1 2
3205 1 1.78869 -5.79861 0.02 0 0 0 1 2
3268 1 1.78899 -4.03014 0.02 0 0 0 1 2
3283 1 1.75005 -3.81852 0.02 0 0 0 1 2
3284 1 1.74651 -3.60455 0.02 0 0 0 1 2
3091 1 1.69749 -0.707446 0.02 0 0 0 1 2
3121 1 1.70375 -1.31101 0.02 0 0 0 1 2
3123 1 1.68126 -1.73196 0.02 0 0 0 1 2
3141 1 1.70094 -2.14214 0.02 0 0 0 1 2
3140 1 1.67706 -1.93796 0.02 0 0 0 1 2
3157 1 1.7137 -2.54458 0.02 0 0 0 1 2
3156 1 1.70227 -2.34122 0.02 0 0 0 1 2
3172 1 1.71048 -2.75075 0.02 0 0 0 1 2
3173 1 1.7098 -2.96044 0.02 0 0 0 1 2
3299 1 1.72848 -3.39246 0.02 0 0 0 1 2
3300 1 1.72833 -3.17752 0.02 0 0 0 1 2
3122 1 1.70029 -1.52107 0.02 0 0 0 1 2
3064 1 2.16783 0.23308 0.02 0 0 0 1 2
3065 1 2.17447 0.0223507 0.02 0 0 0 1 2
3062 1 1.98406 0.0724965 0.02 0 0 0 1 2
3063 1 1.97608 0.280002 0.02 0 0 0 1 2
3068 1 2.56086 0.372473 0.02 0 0 0 1 2
3067 1 2.55024 0.169145 0.02 0 0 0 1 2
3066 1 2.35935 0.211316 0.02 0 0 0 1 2
3069 1 2.36563 0.418928 0.02 0 0 0 1 2
3071 1 2.75205 0.334404 0.02 0 0 0 1 2
3070 1 2.74255 0.123621 0.02 0 0 0 1 2
3072 1 2.93492 0.0941657 0.02 0 0 0 1 2
3073 1 2.94032 0.308275 0.02 0 0 0 1 2
3079 1 2.16674 0.438466 0.02 0 0 0 1 2
3080 1 2.18741 0.837608 0.02 0 0 0 1 2
3078 1 2.15011 0.641213 0.02 0 0 0 1 2
3076 1 1.96642 0.481996 0.02 0 0 0 1 2
3077 1 1.95756 0.685826 0.02 0 0 0 1 2
3083 1 2.54346 0.578065 0.02 0 0 0 1 2
3081 1 2.34761 0.623512 0.02 0 0 0 1 2
3082 1 2.39251 0.816101 0.02 0 0 0 1 2
3084 1 2.58662 0.777596 0.02 0 0 0 1 2
3086 1 2.77655 0.763505 0.02 0 0 0 1 2
3085 1 2.73725 0.551312 0.02 0 0 0 1 2
3088 1 2.96394 0.731216 0.02 0 0 0 1 2
3087 1 2.92663 0.52511 0.02 0 0 0 1 2
3098 1 2.24567 1.25083 0.02 0 0 0 1 2
3097 1 2.20727 1.03842 0.02 0 0 0 1 2
3094 1 2.02025 1.08613 0.02 0 0 0 1 2
3096 1 2.06023 1.28632 0.02 0 0 0 1 2
3092 1 1.98802 0.884588 0.02 0 0 0 1 2
3093 1 1.82484 1.09277 0.02 0 0 0 1 2
3095 1 1.85909 1.28998 0.02 0 0 0 1 2
3100 1 2.42711 1.21394 0.02 0 0 0 1 2
3099 1 2.4017 1.01292 0.02 0 0 0 1 2
3102 1 2.61495 1.19611 0.02 0 0 0 1 2
3101 1 2.59846 0.985554 0.02 0 0 0 1 2
3170 1 1.64796 3.16089 0.02 0 0 0 1 2
3090 1 1.65313 1.27685 0.02 0 0 0 1 2
3103 1 2.79443 0.971508 0.02 0 0 0 1 2
3104 1 2.80469 1.17579 0.02 0 0 0 1 2
3112 1 2.16245 1.6776 0.02 0 0 0 1 2
3110 1 2.11436 1.48088 0.02 0 0 0 1 2
3111 1 1.95368 1.67257 0.02 0 0 0 1 2
3109 1 1.91465 1.48123 0.02 0 0 0 1 2
3116 1 2.54283 1.6326 0.02 0 0 0 1 2
3117 1 2.66152 1.40425 0.02 0 0 0 1 2
3115 1 2.36342 1.68355 0.02 0 0 0 1 2
3113 1 2.30176 1.47828 0.02 0 0 0 1 2
3114 1 2.47352 1.41863 0.02 0 0 0 1 2
3119 1 2.72601 1.60495 0.02 0 0 0 1 2
3120 1 2.91051 1.56881 0.02 0 0 0 1 2
3089 1 1.62728 1.07701 0.02 0 0 0 1 2
3118 1 2.85602 1.37096 0.02 0 0 0 1 2
3126 1 2.19445 2.05706 0.02 0 0 0 1 2
3127 1 2.20738 1.86993 0.02 0 0 0 1 2
3124 1 1.99861 1.85816 0.02 0 0 0 1 2
3125 1 1.98281 2.04562 0.02 0 0 0 1 2
3131 1 2.64775 2.05065 0.02 0 0 0 1 2
3128 1 2.40401 1.88295 0.02 0 0 0 1 2
3130 1 2.59179 1.85058 0.02 0 0 0 1 2
3129 1 2.4361 2.06902 0.02 0 0 0 1 2
3132 1 2.77444 1.80749 0.02 0 0 0 1 2
3133 1 2.96068 1.77663 0.02 0 0 0 1 2
3184 1 1.65443 3.54804 0.02 0 0 0 1 2
3134 1 2.84158 2.00232 0.02 0 0 0 1 2
3143 1 2.25549 2.22749 0.02 0 0 0 1 2
3144 1 2.21817 2.40205 0.02 0 0 0 1 2
3142 1 2.18492 2.58048 0.02 0 0 0 1 2
3139 1 2.01699 2.22749 0.02 0 0 0 1 2
3140 1 1.98567 2.4033 0.02 0 0 0 1 2
3141 1 1.97158 2.58381 0.02 0 0 0 1 2
3148 1 2.66648 2.24802 0.02 0 0 0 1 2
3149 1 2.67598 2.44175 0.02 0 0 0 1 2
3147 1 2.39122 2.60748 0.02 0 0 0 1 2
3146 1 2.45943 2.43811 0.02 0 0 0 1 2
3145 1 2.46117 2.25492 0.02 0 0 0 1 2
3151 1 2.87732 2.40662 0.02 0 0 0 1 2
3150 1 2.86302 2.20428 0.02 0 0 0 1 2
3237 1 1.66634 4.93785 0.02 0 0 0 1 2
3256 1 1.67617 5.37435 0.02 0 0 0 1 2
3154 1 2.83831 2.60728 0.02 0 0 0 1 2
3163 1 2.28454 2.96713 0.02 0 0 0 1 2
3159 1 2.08608 2.94817 0.02 0 0 0 1 2
3160 1 2.14371 2.76421 0.02 0 0 0 1 2
3157 1 1.91555 2.75989 0.02 0 0 0 1 2
3158 1 1.88888 2.94667 0.02 0 0 0 1 2
3161 1 2.36367 2.79101 0.02 0 0 0 1 2
3162 1 2.58614 2.80636 0.02 0 0 0 1 2
3165 1 2.61431 2.62248 0.02 0 0 0 1 2
3164 1 2.5051 2.97185 0.02 0 0 0 1 2
3168 1 2.75849 2.98639 0.02 0 0 0 1 2
3220 1 1.67527 4.48606 0.02 0 0 0 1 2
3166 1 2.79451 2.79927 0.02 0 0 0 1 2
3221 1 1.67782 4.71315 0.02 0 0 0 1 2
3176 1 2.26365 3.31714 0.02 0 0 0 1 2
3173 1 2.08969 3.13863 0.02 0 0 0 1 2
3175 1 2.06036 3.32702 0.02 0 0 0 1 2
3174 1 1.86434 3.32717 0.02 0 0 0 1 2
3172 1 1.86296 3.13641 0.02 0 0 0 1 2
3178 1 2.56509 3.1459 0.02 0 0 0 1 2
3177 1 2.33669 3.14711 0.02 0 0 0 1 2
3179 1 2.49481 3.32024 0.02 0 0 0 1 2
3182 1 2.71868 3.37002 0.02 0 0 0 1 2
3180 1 2.76015 3.18095 0.02 0 0 0 1 2
3183 1 2.93895 3.35893 0.02 0 0 0 1 2
3181 1 2.957 3.15817 0.02 0 -3.63808e-25 -2.84225e-25 1 2
3188 1 2.08851 3.51835 0.02 0 0 0 1 2
3190 1 2.12881 3.70997 0.02 0 0 0 1 2
3191 1 2.11512 3.90791 0.02 0 0 0 1 2
3189 1 1.93001 3.71568 0.02 0 0 0 1 2
3187 1 1.87454 3.52417 0.02 0 0 0 1 2
3194 1 2.31901 3.71006 0.02 0 0 0 1 2
3192 1 2.29665 3.5067 0.02 0 0 0 1 2
3196 1 2.67888 3.5681 0.02 0 0 0 1 2
3197 1 2.68607 3.77684 0.02 0 0 0 1 2
3195 1 2.50343 3.72604 0.02 0 0 0 1 2
3193 1 2.49326 3.51062 0.02 0 0 0 1 2
3199 1 2.8734 3.76805 0.02 0 0 0 1 2
3198 1 2.87223 3.55257 0.02 0 0 0 1 2
3257 1 1.67951 5.57818 0.02 0 0 0 1 2
3107 1 1.7065 1.47043 0.02 0 0 0 1 2
3209 1 2.25827 4.33991 0.02 0 0 0 1 2
3206 1 2.10622 4.11088 0.02 0 0 0 1 2
3208 1 2.07268 4.32326 0.02 0 0 0 1 2
3207 1 1.87967 4.31636 0.02 0 0 0 1 2
3205 1 1.91156 4.11818 0.02 0 0 0 1 2
3204 1 1.9146 3.91662 0.02 0 0 0 1 2
3212 1 2.29582 4.13074 0.02 0 0 0 1 2
3210 1 2.311 3.92094 0.02 0 0 0 1 2
3213 1 2.48135 4.1593 0.02 0 0 0 1 2
3214 1 2.66706 4.18741 0.02 0 0 0 1 2
3215 1 2.68794 3.98109 0.02 0 0 0 1 2
3211 1 2.49996 3.94528 0.02 0 0 0 1 2
3217 1 2.85687 4.20411 0.02 0 0 0 1 2
3216 1 2.87373 3.99047 0.02 0 0 0 1 2
3202 1 1.71147 4.08785 0.02 0 0 0 1 2
3203 1 1.68197 4.2803 0.02 0 0 0 1 2
3227 1 2.21545 4.77584 0.02 0 0 0 1 2
3226 1 2.22917 4.55417 0.02 0 0 0 1 2
3223 1 2.0441 4.53979 0.02 0 0 0 1 2
3225 1 2.0337 4.75752 0.02 0 0 0 1 2
3224 1 1.85489 4.73643 0.02 0 0 0 1 2
3222 1 1.85839 4.52044 0.02 0 0 0 1 2
3229 1 2.41578 4.58592 0.02 0 0 0 1 2
3228 1 2.44014 4.37314 0.02 0 0 0 1 2
3231 1 2.6253 4.3955 0.02 0 0 0 1 2
3230 1 2.61234 4.59976 0.02 0 0 0 1 2
3236 1 2.80616 4.78084 0.02 0 0 0 1 2
3233 1 2.82056 4.59309 0.02 0 0 0 1 2
3232 1 2.8197 4.40109 0.02 0 0 0 1 2
3156 1 1.69219 2.76998 0.02 0 0 0 1 2
3155 1 1.69111 2.9663 0.02 0 0 0 1 2
3243 1 2.21903 4.99551 0.02 0 0 0 1 2
3244 1 2.23927 5.20262 0.02 0 0 0 1 2
3240 1 2.03185 4.97123 0.02 0 0 0 1 2
3242 1 2.04302 5.1837 0.02 0 0 0 1 2
3241 1 1.85298 5.17761 0.02 0 0 0 1 2
3239 1 1.8467 4.96182 0.02 0 0 0 1 2
3246 1 2.41083 4.99763 0.02 0 0 0 1 2
3245 1 2.40259 4.79243 0.02 0 0 0 1 2
3249 1 2.60962 4.99646 0.02 0 0 0 1 2
3250 1 2.64386 5.19056 0.02 0 0 0 1 2
3247 1 2.4402 5.19836 0.02 0 0 0 1 2
3248 1 2.60021 4.79891 0.02 0 0 0 1 2
3253 1 2.84615 5.15875 0.02 0 0 0 1 2
3252 1 2.81575 4.96929 0.02 0 0 0 1 2
3273 1 1.7078 5.98859 0.02 0 0 0 1 2
3171 1 1.67188 3.3575 0.02 0 0 0 1 2
3185 1 1.70811 3.89884 0.02 0 0 0 1 2
3263 1 2.26091 5.60241 0.02 0 0 0 1 2
3262 1 2.25519 5.40415 0.02 0 0 0 1 2
3261 1 2.0633 5.59439 0.02 0 0 0 1 2
3259 1 2.06001 5.39038 0.02 0 0 0 1 2
3260 1 1.87 5.60387 0.02 0 0 0 1 2
3258 1 1.86772 5.39255 0.02 0 0 0 1 2
3266 1 2.6452 5.39064 0.02 0 0 0 1 2
3265 1 2.45925 5.60023 0.02 0 0 0 1 2
3264 1 2.45035 5.39931 0.02 0 0 0 1 2
3267 1 2.65609 5.59191 0.02 0 0 0 1 2
3272 1 1.6752 5.78453 0.02 0 0 0 1 2
3186 1 1.72232 3.71725 0.02 0 0 0 1 2
3268 1 2.83919 5.3575 0.02 0 0 0 1 2
3269 1 2.85027 5.56144 0.02 0 0 0 1 2
3278 1 2.26992 5.79528 0.02 0 1.46256e-11 -7.93007e-11 1 2
3277 1 2.10667 5.98973 0.02 0 2.63059e-08 -1.08311e-07 1 2
3275 1 2.06675 5.79532 0.02 0 2.5017e-11 -1.43034e-10 1 2
3276 1 1.90716 6.00627 0.02 0 1.70994e-08 -5.78161e-08 1 2
3274 1 1.87016 5.80865 0.02 0 1.70692e-12 -5.84483e-12 1 2
3281 1 2.51078 5.9891 0.02 0 2.81392e-08 -1.12581e-07 1 2
3284 1 2.71276 5.98339 0.02 0 2.08673e-08 -7.73698e-08 1 2
3282 1 2.67701 5.79062 0.02 0 1.26817e-11 -6.87129e-11 1 2
3279 1 2.47677 5.79627 0.02 0 1.48806e-11 -7.46133e-11 1 2
3280 1 2.30874 5.98378 0.02 0 2.81844e-08 -1.1827e-07 1 2
3238 1 1.66631 5.16469 0.02 0 0 0 1 2
3285 1 2.91287 5.97079 0.02 0 5.39898e-09 -7.81513e-08 1 2
3283 1 2.86886 5.76708 0.02 0 7.13538e-13 -1.53652e-11 1 2
3292 1 2.1713 6.36566 0.02 0 8.66654e-05 -0.000124601 1 2
3290 1 2.12292 6.18222 0.02 0 4.46574e-06 -1.20337e-05 1 2
3291 1 1.96411 6.38513 0.02 0 9.34036e-05 -0.000144411 1 2
3289 1 1.92354 6.20065 0.02 0 3.13537e-06 -6.99769e-06 1 2
3294 1 2.53803 6.17858 0.02 0 5.85894e-06 -1.23906e-05 1 2
3295 1 2.37323 6.36361 0.02 0 9.71425e-05 -0.000133194 1 2
3296 1 2.57168 6.36755 0.02 0 9.29679e-05 -0.000120799 1 2
3293 1 2.32865 6.17411 0.02 0 5.3172e-06 -1.26615e-05 1 2
3297 1 2.746 6.17052 0.02 0 5.5423e-06 -1.01348e-05 1 2
3299 1 2.77456 6.35499 0.02 0 8.4042e-05 -0.000102506 1 2
3298 1 2.94735 6.16899 0.02 0 8.68013e-06 -1.18679e-05 1 2
3300 1 2.97503 6.36567 0.02 0 0.000156962 -0.000178015 1 2
3306 1 2.18562 6.72972 0.02 0 -0.00232957 0.000380719 1 2
3304 1 2.19228 6.54948 0.02 0 0.000247163 -0.000478627 1 2
3305 1 1.98975 6.7551 0.02 0 -0.00313731 0.000321588 1 2
3303 1 1.98998 6.56765 0.02 0 0.00048951 -0.000681598 1 2
3309 1 2.38786 6.74701 0.02 0 -0.00285886 0.000465234 1 2
3307 1 2.38783 6.55834 0.02 0 0.00022039 -0.000391279 1 2
3308 1 2.57738 6.56244 0.02 0 0.000160704 -0.000412028 1 2
3310 1 2.59482 6.75488 0.02 0 -0.00316343 0.00044518 1 2
3312 1 2.76841 6.53892 0.02 0 0.000249732 -0.000399994 1 2
3311 1 2.97634 6.75466 0.02 0 -0.0017746 0.000268911 1 2
3313 1 2.96614 6.55918 0.02 0 0.00050652 -0.000515725 1 2
3314 1 2.78757 6.71968 0.02 0 -0.00198711 0.000340917 1 2
9 2 2 7 0 0 0 0 1.00081 5
10 2 2.2 7 0 0 0 0 0.999201 5
11 2 2.4 7 0 0 0 0 1.00031 5
43 2 2 7.2 0 0 0 0 0.999902 5
44 2 2.2 7.2 0 0 0 0 0.998738 5
45 2 2.4 7.2 0 0 0 0 1.00115 5
12 2 2.6 7 0 0 0 0 0.999461 5
47 2 2.8 7.2 0 0 0 0 1.00001 5
46 2 2.6 7.2 0 0 0 0 0.998888 5
13 2 2.8 7 0 0 0 0 0.999505 5
112 2 2.2 7.6 0 0 0 0 1 5
113 2 2.4 7.6 0 0 0 0 1 5
79 2 2.4 7.4 0 0 0 0 0.99992 5
78 2 2.2 7.4 0 0 0 0 0.998331 5
147 2 2.4 7.8 0 0 0 0 1 5
146 2 2.2 7.8 0 0 0 0 1 5
145 2 2 7.8 0 0 0 0 1 5
77 2 2 7.4 0 0 0 0 0.999238 5
111 2 2 7.6 0 0 0 0 1 5
114 2 2.6 7.6 0 0 0 0 1 5
81 2 2.8 7.4 0 0 0 0 1.00552 5
115 2 2.8 7.6 0 0 0 0 1 5
80 2 2.6 7.4 0 0 0 0 0.999687 5
149 2 2.8 7.8 0 0 0 0 1 5
148 2 2.6 7.8 0 0 0 0 1 5
179 2 2 8 0 0 0 0 1 5
180 2 2.2 8 0 0 0 0 1 5
181 2 2.4 8 0 0 0 0 1 5
213 2 2 8.2 0 0 0 0 1 5
214 2 2.2 8.2 0 0 0 0 1 5
215 2 2.4 8.2 0 0 0 0 1 5
182 2 2.6 8 0 0 0 0 1 5
183 2 2.8 8 0 0 0 0 1 5
216 2 2.6 8.2 0 0 0 0 1 5
217 2 2.8 8.2 0 0 0 0 1 5
282 2 2.2 8.6 0 0 0 0 1 5
281 2 2 8.6 0 0 0 0 1 5
249 2 2.4 8.4 0 0 0 0 1 5
248 2 2.2 8.4 0 0 0 0 1 5
247 2 2 8.4 0 0 0 0 1 5
283 2 2.4 8.6 0 0 0 0 1 5
285 2 2.8 8.6 0 0 0 0 1 5
284 2 2.6 8.6 0 0 0 0 1 5
251 2 2.8 8.4 0 0 0 0 1 5
250 2 2.6 8.4 0 0 0 0 1 5
351 2 2.4 9 0 0 0 0 1 5
315 2 2 8.8 0 0 0 0 1 5
316 2 2.2 8.8 0 0 0 0 1 5
317 2 2.4 8.8 0 0 0 0 1 5
349 2 2 9 0 0 0 0 1 5
350 2 2.2 9 0 0 0 0 1 5
352 2 2.6 9 0 0 0 0 1 5
319 2 2.8 8.8 0 0 0 0 1 5
318 2 2.6 8.8 0 0 0 0 1 5
353 2 2.8 9 0 0 0 0 1 5
417 2 2 9.4 0 0 0 0 1 5
418 2 2.2 9.4 0 0 0 0 1 5
419 2 2.4 9.4 0 0 0 0 1 5
383 2 2 9.2 0 0 0 0 1 5
384 2 2.2 9.2 0 0 0 0 1 5
385 2 2.4 9.2 0 0 0 0 1 5
421 2 2.8 9.4 0 0 0 0 1 5
420 2 2.6 9.4 0 0 0 0 1 5
387 2 2.8 9.2 0 0 0 0 1 5
386 2 2.6 9.2 0 0 0 0 1 5
452 2 2.2 9.6 0 0 0 0 1 5
453 2 2.4 9.6 0 0 0 0 1 5
485 2 2 9.8 0 0 0 0 1 5
486 2 2.2 9.8 0 0 0 0 1 5
487 2 2.4 9.8 0 0 0 0 1 5
451 2 2 9.6 0 0 0 0 1 5
454 2 2.6 9.6 0 0 0 0 1 5
455 2 2.8 9.6 0 0 0 0 1 5
488 2 2.6 9.8 0 0 0 0 1 5
489 2 2.8 9.8 0 0 0 0 1 5
3060 1 1.78228 0.259957 0.02 0 0 0 1 2
3301 1 1.78773 6.56823 0.02 0 -0.000112274 2.23465e-05 1 2
3302 1 1.78738 6.75255 0.02 0 -0.00605254 0.00228965 1 2
3288 1 1.75252 6.38573 0.02 0 -1.86382e-08 4.75771e-09 1 2
3061 1 1.79255 0.052024 0.02 0 0 0 1 2
3074 1 1.77028 0.469286 0.02 0 0 0 1 2
3075 1 1.76386 0.680704 0.02 0 0 0 1 2
3091 1 1.7875 0.88943 0.02 0 0 0 1 2
3108 1 1.74617 1.66421 0.02 0 0 0 1 2
3122 1 1.77911 1.85191 0.02 0 0 0 1 2
3123 1 1.78036 2.04173 0.02 0 0 0 1 2
3138 1 1.78438 2.22821 0.02 0 0 0 1 2
3137 1 1.74742 2.58999 0.02 0 0 0 1 2
3136 1 1.76013 2.40818 0.02 0 0 0 1 2
3287 1 1.72855 6.19047 0.02 0 0 0 1 2
1583 2 3.2 -9.6 0 0 0 0 1 5
1582 2 3 -9.6 0 0 0 0 1 5
1549 2 3.2 -9.8 0 0 0 0 1 5
1548 2 3 -9.8 0 0 0 0 1 5
1515 2 3.2 -10 0 0 0 0 1 5
1514 2 3 -10 0 0 0 0 1 5
1584 2 3.4 -9.6 0 0 0 0 1 5
1550 2 3.4 -9.8 0 0 0 0 1 5
1516 2 3.4 -10 0 0 0 0 1 5
1586 2 3.8 -9.6 0 0 0 0 1 5
1585 2 3.6 -9.6 0 0 0 0 1 5
1552 2 3.8 -9.8 0 0 0 0 1 5
1551 2 3.6 -9.8 0 0 0 0 1 5
1518 2 3.8 -10 0 0 0 0 1 5
1517 2 3.6 -10 0 0 0 0 1 5
1588 2 4.2 -9.6 0 0 0 0 1 5
1587 2 4 -9.6 0 0 0 0 1 5
1554 2 4.2 -9.8 0 0 0 0 1 5
1553 2 4 -9.8 0 0 0 0 1 5
1520 2 4.2 -10 0 0 0 0 1 5
1519 2 4 -10 0 0 0 0 1 5
1616 2 3 -9.4 0 0 0 0 1 5
1617 2 3.2 -9.4 0 0 0 0 1 5
1651 2 3.2 -9.2 0 0 0 0 1 5
1650 2 3 -9.2 0 0 0 0 1 5
1652 2 3.4 -9.2 0 0 0 0 1 5
1618 2 3.4 -9.4 0 0 0 0 1 5
1653 2 3.6 -9.2 0 0 0 0 1 5
1654 2 3.8 -9.2 0 0 0 0 1 5
1620 2 3.8 -9.4 0 0 0 0 1 5
1619 2 3.6 -9.4 0 0 0 0 1 5
1622 2 4.2 -9.4 0 0 0 0 1 5
1655 2 4 -9.2 0 0 0 0 1 5
1656 2 4.2 -9.2 0 0 0 0 1 5
1621 2 4 -9.4 0 0 0 0 1 5
1719 2 3.2 -8.8 0 0 0 0 1 5
1718 2 3 -8.8 0 0 0 0 1 5
1685 2 3.2 -9 0 0 0 0 1 5
1684 2 3 -9 0 0 0 0 1 5
1686 2 3.4 -9 0 0 0 0 1 5
1720 2 3.4 -8.8 0 0 0 0 1 5
1687 2 3.6 -9 0 0 0 0 1 5
1688 2 3.8 -9 0 0 0 0 1 5
1721 2 3.6 -8.8 0 0 0 0 1 5
1722 2 3.8 -8.8 0 0 0 0 1 5
1689 2 4 -9 0 0 0 0 1 5
1690 2 4.2 -9 0 0 0 0 1 5
1723 2 4 -8.8 0 0 0 0 1 5
1724 2 4.2 -8.8 0 0 0 0 1 5
1752 2 3 -8.6 0 0 0 0 1 5
1753 2 3.2 -8.6 0 0 0 0 1 5
1786 2 3 -8.4 0 0 0 0 1 5
1787 2 3.2 -8.4 0 0 0 0 1 5
1754 2 3.4 -8.6 0 0 0 0 1 5
1788 2 3.4 -8.4 0 0 0 0 1 5
1755 2 3.6 -8.6 0 0 0 0 1 5
1756 2 3.8 -8.6 0 0 0 0 1 5
1789 2 3.6 -8.4 0 0 0 0 1 5
1790 2 3.8 -8.4 0 0 0 0 1 5
1757 2 4 -8.6 0 0 0 0 1 5
1758 2 4.2 -8.6 0 0 0 0 1 5
1791 2 4 -8.4 0 0 0 0 1 5
1792 2 4.2 -8.4 0 0 0 0 1 5
1820 2 3 -8.2 0 0 0 0 1 5
1821 2 3.2 -8.2 0 0 0 0 1 5
1854 2 3 -8 0 0 0 0 1 5
1855 2 3.2 -8 0 0 0 0 1 5
1822 2 3.4 -8.2 0 0 0 0 1 5
1856 2 3.4 -8 0 0 0 0 1 5
1823 2 3.6 -8.2 0 0 0 0 1 5
1824 2 3.8 -8.2 0 0 0 0 1 5
1857 2 3.6 -8 0 0 0 0 1 5
1858 2 3.8 -8 0 0 0 0 1 5
1825 2 4 -8.2 0 0 0 0 1 5
1826 2 4.2 -8.2 0 0 0 0 1 5
1859 2 4 -8 0 0 0 0 1 5
1860 2 4.2 -8 0 0 0 0 1 5
1888 2 3 -7.8 0 0 0 0 1 5
1889 2 3.2 -7.8 0 0 0 0 1 5
1922 2 3 -7.6 0 0 0 0 1 5
1923 2 3.2 -7.6 0 0 0 0 1 5
1956 2 3 -7.4 0 0 0 0 1.00015 5
1957 2 3.2 -7.4 0 0 0 0 0.988931 5
1890 2 3.4 -7.8 0 0 0 0 1 5
1924 2 3.4 -7.6 0 0 0 0 1 5
1958 2 3.4 -7.4 0 0 0 0 1.01409 5
1891 2 3.6 -7.8 0 0 0 0 1 5
1892 2 3.8 -7.8 0 0 0 0 1 5
1925 2 3.6 -7.6 0 0 0 0 1 5
1926 2 3.8 -7.6 0 0 0 0 1 5
1959 2 3.6 -7.4 0 0 0 0 1.00157 5
1960 2 3.8 -7.4 0 0 0 0 1.00401 5
1893 2 4 -7.8 0 0 0 0 1 5
1894 2 4.2 -7.8 0 0 0 0 1 5
1927 2 4 -7.6 0 0 0 0 1 5
1928 2 4.2 -7.6 0 0 0 0 1 5
1961 2 4 -7.4 0 0 0 0 0.998126 5
1962 2 4.2 -7.4 0 0 0 0 1.00173 5
1990 2 3 -7.2 0 0 0 0 0.997545 5
1991 2 3.2 -7.2 0 0 0 0 0.989032 5
2024 2 3 -7 0 0 0 0 0.996622 5
2025 2 3.2 -7 0 0 0 0 0.990541 5
1992 2 3.4 -7.2 0 0 0 0 1.01285 5
2026 2 3.4 -7 0 0 0 0 1.01049 5
1993 2 3.6 -7.2 0 0 0 0 1.00355 5
1994 2 3.8 -7.2 0 0 0 0 1.00053 5
2027 2 3.6 -7 0 0 0 0 1.00418 5
2028 2 3.8 -7 0 0 0 0 1.00066 5
1995 2 4 -7.2 0 0 0 0 1.00064 5
1996 2 4.2 -7.2 0 0 0 0 0.998653 5
2029 2 4 -7 0 0 0 0 1.00072 5
2030 2 4.2 -7 0 0 0 0 0.998545 5
2921 1 3.66046 -6.55585 0.02 0 -0.000151226 0.000193289 1 2
2922 1 3.62507 -6.74131 0.02 0 -0.00376726 -0.000231847 1 2
2926 1 4.03553 -6.56092 0.0188565 0 5.41367e-05 0.000455577 1 2
2924 1 3.95588 -6.75405 0.0159766 0 -0.00194179 -0.00042249 1 2
2925 1 3.85617 -6.55059 0.0195264 0 9.7329e-05 0.000464954 1 2
2923 1 3.8026 -6.73288 0.0170056 0 -0.000687552 -0.000202106 1 2
2929 1 4.21942 -6.5457 0.0192171 0 -0.000121064 0.000455621 1 2
2927 1 4.12166 -6.73507 0.0166413 0 -0.00264763 -0.000604823 1 2
2931 1 4.42565 -6.72408 0.0170317 0 -0.000838235 -6.11066e-05 1 2
2928 1 4.25997 -6.74316 0.0162407 0 -0.00269806 -0.000487423 1 2
2930 1 4.39839 -6.54895 0.0191173 0 0.000265533 0.000720588 1 2
2813 1 3.74312 -0.347981 0.02 0 1.65714e-19 5.43767e-21 1 2
2832 1 4.41676 -0.94471 0.02 0 -8.39946e-18 -1.02109e-19 1 2
2936 1 3.61885 -6.37194 0.02 0 -4.60419e-05 -4.57904e-06 1 2
2935 1 3.67481 -6.18665 0.02 0 -9.60179e-06 5.55154e-06 1 2
2940 1 4.06706 -6.16039 0.0198423 0 -1.82292e-05 1.57697e-05 1 2
2938 1 4.03323 -6.36328 0.0195508 0 8.63322e-05 0.000134142 1 2
2939 1 3.87625 -6.18267 0.0199183 0 -4.78183e-06 2.16876e-05 1 2
2937 1 3.8265 -6.3674 0.0198634 0 5.89572e-05 0.000137752 1 2
2941 1 4.22716 -6.35019 0.0194505 0 7.2579e-05 0.000138419 1 2
2943 1 4.25551 -6.14888 0.0197035 0 2.70183e-05 1.77486e-05 1 2
2942 1 4.41609 -6.34812 0.019354 0 0.000146872 0.00020989 1 2
2944 1 4.44297 -6.14239 0.0196528 0 2.56283e-05 2.47428e-05 1 2
2819 1 4.40779 -0.520835 0.02 0 2.15196e-17 -3.29571e-18 1 2
2820 1 4.42357 -0.729174 0.02 0 6.04611e-18 -5.75842e-19 1 2
2951 1 3.7343 -5.80658 0.0199992 0 -6.31512e-07 4.76362e-07 1 2
2949 1 3.68513 -5.99723 0.02 0 -4.56462e-06 3.1874e-07 1 2
2954 1 4.11998 -5.75045 0.02 0 -3.41014e-06 7.71272e-07 1 2
2953 1 4.07925 -5.95423 0.0199855 0 -1.89669e-05 1.76617e-06 1 2
2952 1 3.92808 -5.77274 0.0199962 0 -1.22482e-06 2.96449e-07 1 2
2950 1 3.88693 -5.98398 0.0199768 0 -5.31157e-06 1.0604e-06 1 2
3126 1 3.05808 -1.96684 0.02 0 0 0 1 2
2957 1 4.31072 -5.73937 0.0199999 0 -6.3894e-06 1.74672e-06 1 2
2955 1 4.27202 -5.94497 0.0199707 0 -2.86163e-05 2.13897e-07 1 2
2823 1 4.00136 -0.522502 0.02 0 6.09488e-19 1.099e-19 1 2