ITEM: TIMESTEP
31000
ITEM: NUMBER OF ATOMS
1390
ITEM: BOX BOUNDS ff ff pp
0.0000000000000000e+00 4.4000000000000004e+00
-1.0000000000000000e+01 1.0000000000000000e+01
-2.0000000000000000e-02 2.0000000000000000e-02
ITEM: ATOMS id type x y vx vy fx fy c_den c_phase
3623 1 0.611338 -6.76992 0.02 0 0 0 1 2
3624 1 0.423175 -6.58073 0.02 0 0 0 1 2
3625 1 0.634377 -6.58688 0.02 0 0 0 1 2
3626 1 0.830284 -6.75274 0.02 0 0 0 1 2
3628 1 0.838011 -6.56746 0.02 0 0 0 1 2
3627 1 1.0396 -6.73947 0.02 0 0 0 1 2
3629 1 1.03634 -6.55685 0.02 0 0 0 1 2
3736 1 1.23809 -6.74787 0.02 0 0 0 1 2
3738 1 1.2365 -6.55697 0.02 0 0 0 1 2
3737 1 1.43089 -6.7403 0.02 0 -2.87808e-07 -2.51326e-07 1 2
3739 1 1.43991 -6.5555 0.02 0 9.82955e-10 2.59553e-08 1 2
3699 1 1.23772 -1.129 0.02 0 0 0 1 2
3679 1 1.48207 -0.153058 0.02 0 0 0 1 2
3698 1 1.1993 -0.921676 0.02 0 0 0 1 2
3704 1 1.45063 -1.37223 0.02 0 0 0 1 2
3630 1 0.458697 -6.40681 0.02 0 0 0 1 2
3631 1 0.485179 -6.22242 0.02 0 0 0 1 2
3632 1 0.663344 -6.40373 0.02 0 0 0 1 2
3633 1 0.693031 -6.21248 0.02 0 0 0 1 2
3634 1 0.866603 -6.37967 0.02 0 0 0 1 2
3635 1 0.905282 -6.19565 0.02 0 0 0 1 2
3744 1 1.27787 -6.36827 0.02 0 0 0 1 2
3746 1 1.33921 -6.18388 0.02 0 0 0 1 2
3747 1 1.12365 -6.19087 0.02 0 0 0 1 2
3748 1 1.07236 -6.37223 0.02 0 0 0 1 2
3745 1 1.48363 -6.37473 0.02 0 2.39544e-09 1.69312e-08 1 2
3571 1 0.553915 -0.372384 0.02 0 0 0 1 2
3576 1 0.589962 -0.587345 0.02 0 0 0 1 2
3568 1 0.87908 -0.0736053 0.02 0 0 0 1 2
3636 1 0.520587 -6.03472 0.02 0 0 0 1 2
3637 1 0.556467 -5.84117 0.02 0 0 0 1 2
3638 1 0.726475 -6.01924 0.02 0 0 0 1 2
3639 1 0.751199 -5.81749 0.02 0 0 0 1 2
3640 1 0.936574 -6.01437 0.02 0 0 0 1 2
3641 1 0.945359 -5.82674 0.02 0 0 0 1 2
3752 1 1.35047 -5.99117 0.02 0 0 0 1 2
3753 1 1.33565 -5.79328 0.02 0 0 0 1 2
3754 1 1.14843 -6.00636 0.02 0 0 0 1 2
3755 1 1.14073 -5.81326 0.02 0 0 0 1 2
3705 1 1.43381 -1.59513 0.02 0 0 0 1 2
3566 1 0.924549 -0.279581 0.02 0 0 0 1 2
3567 1 0.67969 -0.0803597 0.02 0 0 0 1 2
3575 1 0.790607 -0.721559 0.02 0 0 0 1 2
3642 1 0.554492 -5.6389 0.02 0 0 0 1 2
3643 1 0.549157 -5.43396 0.02 0 0 0 1 2
3644 1 0.588202 -5.23189 0.02 0 0 0 1 2
3645 1 0.751743 -5.61599 0.02 0 0 0 1 2
3646 1 0.747149 -5.4168 0.02 0 0 0 1 2
3650 1 0.784494 -5.21823 0.02 0 0 0 1 2
3647 1 0.956356 -5.63481 0.02 0 0 0 1 2
3648 1 0.946973 -5.4444 0.02 0 0 0 1 2
3649 1 0.979134 -5.25215 0.02 0 0 0 1 2
3760 1 1.36049 -5.5913 0.02 0 0 0 1 2
3761 1 1.35126 -5.38986 0.02 0 0 0 1 2
3762 1 1.15207 -5.42149 0.02 0 0 0 1 2
3763 1 1.16181 -5.61669 0.02 0 0 0 1 2
3764 1 1.17407 -5.21784 0.02 0 0 0 1 2
3709 1 1.08286 -1.57733 0.02 0 0 0 1 2
3708 1 1.2584 -1.55919 0.02 0 0 0 1 2
3687 1 1.5027 -0.553847 0.02 0 0 0 1 2
3707 1 1.076 -1.35274 0.02 0 0 0 1 2
3651 1 0.564017 -5.03379 0.02 0 0 0 1 2
3652 1 0.565141 -4.83933 0.02 0 0 0 1 2
3653 1 0.775115 -5.0226 0.02 0 0 0 1 2
3654 1 0.768875 -4.82892 0.02 0 0 0 1 2
3655 1 0.982816 -5.05423 0.02 0 0 0 1 2
3656 1 0.971773 -4.85734 0.02 0 0 0 1 2
3769 1 1.36613 -5.18566 0.02 0 0 0 1 2
3770 1 1.37645 -4.98438 0.02 0 0 0 1 2
3771 1 1.37043 -4.78992 0.02 0 0 0 1 2
3772 1 1.16855 -4.80652 0.02 0 0 0 1 2
3773 1 1.18019 -5.0103 0.02 0 0 0 1 2
3706 1 1.26424 -1.33809 0.02 0 0 0 1 2
3589 1 0.905856 -1.60129 0.02 0 0 0 1 2
3574 1 0.753096 -0.490861 0.02 0 0 0 1 2
3691 1 1.16156 -0.709913 0.02 0 0 0 1 2
3657 1 0.562234 -4.64125 0.02 0 0 0 1 2
3658 1 0.572442 -4.44228 0.02 0 0 0 1 2
3659 1 0.768364 -4.63613 0.02 0 0 0 1 2
3660 1 0.779659 -4.44357 0.02 0 0 0 1 2
3661 1 0.978239 -4.65796 0.02 0 0 0 1 2
3662 1 0.98079 -4.45934 0.02 0 0 0 1 2
3779 1 1.37173 -4.41899 0.02 0 0 0 1 2
3780 1 1.17163 -4.40798 0.02 0 0 0 1 2
3781 1 1.18969 -4.60761 0.02 0 0 0 1 2
3778 1 1.4101 -4.60371 0.02 0 0 0 1 2
3592 1 0.533627 -1.58822 0.02 0 0 0 1 2
3690 1 1.35693 -0.749101 0.02 0 0 0 1 2
3580 1 1.00905 -0.924705 0.02 0 0 0 1 2
3591 1 0.49282 -1.38585 0.02 0 0 0 1 2
3689 1 1.12178 -0.494397 0.02 0 0 0 1 2
3663 1 0.551722 -4.23847 0.02 0 0 0 1 2
3664 1 0.554181 -4.02919 0.02 0 0 0 1 2
3665 1 0.748847 -4.24977 0.02 0 0 0 1 2
3666 1 0.749237 -4.05169 0.02 0 0 0 1 2
3667 1 0.95078 -4.25389 0.02 0 0 0 1 2
3668 1 0.941636 -4.0439 0.02 0 0 0 1 2
3787 1 1.13049 -4.01124 0.02 0 0 0 1 2
3788 1 1.15069 -4.21227 0.02 0 0 0 1 2
3789 1 1.36733 -4.2273 0.02 0 0 0 1 2
3790 1 1.32771 -4.03811 0.02 0 0 0 1 2
3688 1 1.3098 -0.538252 0.02 0 0 0 1 2
3590 1 0.722982 -1.62077 0.02 0 0 0 1 2
3588 1 0.69372 -1.41162 0.02 0 0 0 1 2
3573 1 0.973351 -0.71216 0.02 0 0 0 1 2
3697 1 1.39871 -0.953623 0.02 0 0 0 1 2
3669 1 0.546094 -3.81677 0.02 0 0 0 1 2
3670 1 0.550076 -3.5978 0.02 0 0 0 1 2
3671 1 0.737591 -3.85087 0.02 0 0 0 1 2
3672 1 0.735687 -3.64617 0.02 0 0 0 1 2
3673 1 0.92959 -3.82931 0.02 0 0 0 1 2
3674 1 0.923571 -3.61592 0.02 0 0 0 1 2
3796 1 1.12031 -3.80562 0.02 0 0 0 1 2
3797 1 1.31397 -3.83523 0.02 0 0 0 1 2
3798 1 1.29932 -3.62338 0.02 0 0 0 1 2
3800 1 1.11119 -3.59621 0.02 0 0 0 1 2
3799 1 1.47695 -3.55166 0.02 0 0 0 1 2
3801 1 1.49552 -3.76427 0.02 0 0 0 1 2
3696 1 1.4371 -1.15842 0.02 0 0 0 1 2
3579 1 1.04391 -1.13847 0.02 0 0 0 1 2
3617 1 0.882174 -3.1875 0.02 0 0 0 1 2
3619 1 0.702794 -3.21574 0.02 0 0 0 1 2
3620 1 0.716742 -3.43454 0.02 0 0 0 1 2
3621 1 0.529621 -3.14391 0.02 0 0 0 1 2
3622 1 0.533618 -3.3728 0.02 0 0 0 1 2
3616 1 1.06594 -3.17336 0.02 0 0 0 1 2
3618 1 0.903118 -3.40386 0.02 0 0 0 1 2
3804 1 1.28118 -3.40602 0.02 0 0 0 1 2
3806 1 1.252 -3.19077 0.02 0 0 0 1 2
3808 1 1.09087 -3.38537 0.02 0 0 0 1 2
3805 1 1.46496 -3.34347 0.02 0 0 0 1 2
3807 1 1.43321 -3.13949 0.02 0 0 0 1 2
3569 1 0.730233 -0.279188 0.02 0 0 0 1 2
3586 1 0.477603 -1.18097 0.02 0 0 0 1 2
3683 1 1.11941 -0.288944 0.02 0 0 0 1 2
3585 1 0.449697 -0.97904 0.02 0 0 0 1 2
3682 1 1.31719 -0.331528 0.02 0 0 0 1 2
3610 1 0.852481 -2.74263 0.02 0 0 0 1 2
3611 1 0.874912 -2.96695 0.02 0 0 0 1 2
3612 1 0.676481 -2.72777 0.02 0 0 0 1 2
3613 1 0.696993 -2.97591 0.02 0 0 0 1 2
3614 1 0.494062 -2.72388 0.02 0 0 0 1 2
3615 1 0.519729 -2.92742 0.02 0 0 0 1 2
3608 1 1.03678 -2.76044 0.02 0 0 0 1 2
3609 1 1.05987 -2.9649 0.02 0 0 0 1 2
3733 1 1.22181 -2.7379 0.02 0 0 0 1 2
3735 1 1.24416 -2.96546 0.02 0 0 0 1 2
3572 1 0.93597 -0.497279 0.02 0 0 0 1 2
3584 1 0.671319 -1.20827 0.02 0 0 0 1 2
3578 1 0.424163 -0.77638 0.02 0 0 0 1 2
3583 1 0.858589 -1.17441 0.02 0 0 0 1 2
3732 1 1.40394 -2.71578 0.02 0 0 0 1 2
3734 1 1.42465 -2.92908 0.02 0 0 0 1 2
3602 1 0.817573 -2.29317 0.02 0 0 0 1 2
3603 1 0.85825 -2.51656 0.02 0 0 0 1 2
3604 1 0.643604 -2.23608 0.02 0 0 0 1 2
3605 1 0.685158 -2.47537 0.02 0 0 0 1 2
3606 1 0.475024 -2.30563 0.02 0 0 0 1 2
3607 1 0.513193 -2.51928 0.02 0 0 0 1 2
3600 1 1.03048 -2.54769 0.02 0 0 0 1 2
3601 1 0.990094 -2.28323 0.02 0 0 0 1 2
3724 1 1.33177 -2.25982 0.02 0 0 0 1 2
3725 1 1.1601 -2.29092 0.02 0 0 0 1 2
3726 1 1.37309 -2.49502 0.02 0 0 0 1 2
3727 1 1.1988 -2.50471 0.02 0 0 0 1 2
3582 1 0.646378 -1.00188 0.02 0 0 0 1 2
3721 1 1.51146 -2.25267 0.02 0 0 0 1 2
3577 1 0.618342 -0.796888 0.02 0 0 0 1 2
3587 1 0.88807 -1.38626 0.02 0 0 0 1 2
3594 1 0.751885 -1.8337 0.02 0 0 0 1 2
3596 1 0.781837 -2.05646 0.02 0 0 0 1 2
3597 1 0.602339 -2.01454 0.02 0 0 0 1 2
3598 1 0.564211 -1.79996 0.02 0 0 0 1 2
3599 1 0.435221 -2.08011 0.02 0 0 0 1 2
3593 1 0.933435 -1.82247 0.02 0 0 0 1 2
3595 1 0.956435 -2.0475 0.02 0 0 0 1 2
3716 1 1.28023 -1.79905 0.02 0 0 0 1 2
3717 1 1.10807 -1.80931 0.02 0 0 0 1 2
3718 1 1.29964 -2.03153 0.02 0 0 0 1 2
3719 1 1.12814 -2.05314 0.02 0 0 0 1 2
3681 1 1.07917 -0.0862266 0.02 0 0 0 1 2
3581 1 0.827387 -0.952754 0.02 0 0 0 1 2
3680 1 1.28218 -0.126323 0.02 0 0 0 1 2
3570 1 0.502474 -0.16898 0.02 0 0 0 1 2
3714 1 1.47796 -2.03651 0.02 0 0 0 1 2
3715 1 1.45673 -1.81653 0.02 0 0 0 1 2
3566 1 0.451315 0.248542 0.02 0 0 0 1 2
3567 1 0.457354 0.0361407 0.02 0 0 0 1 2
3568 1 0.643877 0.117407 0.02 0 0 0 1 2
3569 1 0.640611 0.319237 0.02 0 0 0 1 2
3570 1 0.845682 0.124572 0.02 0 0 0 1 2
3571 1 0.84655 0.317902 0.02 0 0 0 1 2
3572 1 1.04994 0.11313 0.02 0 0 0 1 2
3573 1 1.05822 0.304659 0.02 0 0 0 1 2
3680 1 1.25292 0.0728882 0.02 0 0 0 1 2
3681 1 1.27277 0.263441 0.02 0 0 0 1 2
3682 1 1.47545 0.424518 0.02 0 0 0 1 2
3683 1 1.48392 0.239767 0.02 0 0 0 1 2
3684 1 1.45538 0.0483522 0.02 0 0 0 1 2
3671 1 1.04502 6.36456 0.02 0 0 0 1 2
3669 1 1.02 6.16008 0.02 0 0 0 1 2
3670 1 0.855614 6.39175 0.02 0 0 0 1 2
3574 1 0.440728 0.462919 0.02 0 0 0 1 2
3575 1 0.428514 0.669742 0.02 0 0 0 1 2
3576 1 0.42836 0.863721 0.02 0 0 0 1 2
3577 1 0.628237 0.518918 0.02 0 0 0 1 2
3578 1 0.640276 0.70789 0.02 0 0 0 1 2
3579 1 0.826452 0.510413 0.02 0 0 0 1 2
3580 1 0.866959 0.693252 0.02 0 0 0 1 2
3581 1 1.03079 0.494776 0.02 0 0 0 1 2
3688 1 1.24507 0.449729 0.02 0 0 0 1 2
3689 1 1.09713 0.667725 0.02 0 0 0 1 2
3690 1 1.31102 0.621961 0.02 0 0 0 1 2
3691 1 1.09402 0.847608 0.02 0 0 0 1 2
3692 1 1.32756 0.803929 0.02 0 0 0 1 2
3660 1 0.800072 5.78227 0.02 0 0 0 1 2
3810 1 1.23402 6.555 0.02 0 0 0 1 2
3659 1 0.619324 5.98183 0.02 0 0 0 1 2
3678 1 1.03091 6.5602 0.02 0 0 0 1 2
3582 1 0.421672 1.054 0.02 0 0 0 1 2
3583 1 0.574487 1.24917 0.02 0 0 0 1 2
3584 1 0.871213 0.873854 0.02 0 0 0 1 2
3585 1 0.649255 0.88935 0.02 0 0 0 1 2
3586 1 0.636327 1.07154 0.02 0 0 0 1 2
3587 1 0.799748 1.2351 0.02 0 0 0 1 2
3588 1 0.856884 1.05708 0.02 0 0 0 1 2
3589 1 1.03437 1.21251 0.02 0 0 0 1 2
3697 1 1.07398 1.03141 0.02 0 0 0 1 2
3698 1 1.28669 0.986432 0.02 0 0 0 1 2
3699 1 1.26612 1.17548 0.02 0 0 0 1 2
3700 1 1.51062 0.949962 0.02 0 0 0 1 2
3701 1 1.47811 1.13114 0.02 0 0 0 1 2
3676 1 1.02998 6.74883 0.02 0 0 0 1 2
3668 1 0.831512 6.19205 0.02 0 0 0 1 2
3667 1 0.661365 6.37889 0.02 0 0 0 1 2
3590 1 0.592554 1.43261 0.02 0 0 0 1 2
3591 1 0.589139 1.61539 0.02 0 0 0 1 2
3592 1 0.804667 1.41749 0.02 0 0 0 1 2
3593 1 0.829102 1.59427 0.02 0 0 0 1 2
3594 1 1.01143 1.39351 0.02 0 0 0 1 2
3706 1 1.23392 1.35443 0.02 0 0 0 1 2
3707 1 1.08366 1.55601 0.02 0 0 0 1 2
3708 1 1.12832 1.72759 0.02 0 0 0 1 2
3709 1 1.31626 1.51303 0.02 0 0 0 1 2
3710 1 1.34629 1.69123 0.02 0 0 0 1 2
3705 1 1.4839 1.30888 0.02 0 0 0 1 2
3658 1 0.612571 5.77292 0.02 0 0 0 1 2
3657 1 0.42786 5.96719 0.02 0 0 0 1 2
3679 1 0.828921 6.58075 0.02 0 0 0 1 2
3677 1 0.829378 6.7702 0.02 0 0 0 1 2
3595 1 0.439148 1.795 0.02 0 0 0 1 2
3596 1 0.482245 2.08906 0.02 0 0 0 1 2
3597 1 0.610559 1.94073 0.02 0 0 0 1 2
3598 1 0.687317 1.77422 0.02 0 0 0 1 2
3599 1 0.719293 2.10225 0.02 0 0 0 1 2
3601 1 0.868849 1.93421 0.02 0 0 0 1 2
3600 1 0.913035 1.75512 0.02 0 0 0 1 2
3602 1 0.92948 2.11399 0.02 0 0 0 1 2
3715 1 1.10404 1.90837 0.02 0 0 0 1 2
3716 1 1.13419 2.09036 0.02 0 0 0 1 2
3717 1 1.34136 2.05599 0.02 0 0 0 1 2
3718 1 1.32899 1.87315 0.02 0 0 0 1 2
3656 1 0.424131 5.75729 0.02 0 0 0 1 2
3804 1 1.23959 6.36678 0.02 0 0 0 1 2
3675 1 0.630659 6.56344 0.02 0 0 0 1 2
3674 1 0.622264 6.74797 0.02 0 0 0 1 2
3603 1 0.435466 2.4591 0.02 0 0 0 1 2
3604 1 0.463918 2.27317 0.02 0 0 0 1 2
3605 1 0.669866 2.28594 0.02 0 0 0 1 2
3606 1 0.656029 2.47229 0.02 0 0 0 1 2
3607 1 0.886017 2.29933 0.02 0 0 0 1 2
3608 1 0.870894 2.48497 0.02 0 0 0 1 2
3723 1 1.10932 2.27783 0.02 0 0 0 1 2
3724 1 1.08299 2.46478 0.02 0 0 0 1 2
3725 1 1.33298 2.24256 0.02 0 0 0 1 2
3726 1 1.29685 2.42845 0.02 0 0 0 1 2
3727 1 1.38243 2.59735 0.02 0 0 0 1 2
3789 1 1.33701 5.59984 0.02 0 0 0 1 2
3788 1 1.1454 5.54493 0.02 0 0 0 1 2
3797 1 1.39715 5.99306 0.02 0 0 0 1 2
3673 1 0.4386 6.56326 0.02 0 0 0 1 2
3672 1 0.420565 6.75255 0.02 0 0 0 1 2
3796 1 1.1948 5.97267 0.02 0 0 0 1 2
3609 1 0.470733 2.64545 0.02 0 0 0 1 2
3610 1 0.531833 2.82219 0.02 0 0 0 1 2
3611 1 0.521218 3.00191 0.02 0 0 0 1 2
3612 1 0.690471 2.65627 0.02 0 0 0 1 2
3613 1 0.76059 2.82932 0.02 0 0 0 1 2
3614 1 0.760261 3.00882 0.02 0 0 0 1 2
3615 1 0.923043 2.66182 0.02 0 0 0 1 2
3616 1 0.983121 2.8347 0.02 0 0 0 1 2
3617 1 1.00459 3.0143 0.02 0 0 0 1 2
3734 1 1.15614 2.63585 0.02 0 0 0 1 2
3735 1 1.1948 2.8168 0.02 0 0 0 1 2
3736 1 1.23005 3.00089 0.02 0 0 0 1 2
3737 1 1.39846 2.78422 0.02 0 0 0 1 2
3738 1 1.44458 2.97012 0.02 0 0 0 1 2
3795 1 1.36749 5.79873 0.02 0 0 0 1 2
3666 1 0.636063 6.18478 0.02 0 0 0 1 2
3794 1 1.17339 5.76449 0.02 0 0 0 1 2
3618 1 0.437413 3.36529 0.02 0 0 0 1 2
3619 1 0.604757 3.16672 0.02 0 0 0 1 2
3620 1 0.845681 3.17288 0.02 0 0 0 1 2
3621 1 0.655861 3.34295 0.02 0 0 0 1 2
3622 1 0.878005 3.35522 0.02 0 0 0 1 2
3742 1 1.07239 3.18752 0.02 0 0 0 1 2
3743 1 1.2918 3.17991 0.02 0 0 0 1 2
3744 1 1.10912 3.36707 0.02 0 0 0 1 2
3745 1 1.33566 3.36309 0.02 0 0 0 1 2
3746 1 1.50667 3.1495 0.02 0 0 0 1 2
3665 1 0.460563 6.37046 0.02 0 0 0 1 2
3787 1 1.32841 5.39758 0.02 0 0 0 1 2
3812 1 1.22553 6.73939 0.02 0 0 0 1 2
3623 1 0.499272 3.54263 0.02 0 0 0 1 2
3624 1 0.526591 3.73126 0.02 0 0 0 1 2
3625 1 0.720311 3.52106 0.02 0 0 0 1 2
3626 1 0.726433 3.71117 0.02 0 0 0 1 2
3628 1 0.750447 3.90922 0.02 0 0 0 1 2
3627 1 0.929063 3.71823 0.02 0 0 0 1 2
3629 1 0.950981 3.53048 0.02 0 0 0 1 2
3750 1 1.17746 3.54172 0.02 0 0 0 1 2
3751 1 1.13937 3.72344 0.02 0 0 0 1 2
3752 1 1.35567 3.74323 0.02 0 0 0 1 2
3753 1 1.149 3.91281 0.02 0 0 0 1 2
3754 1 1.38513 3.55161 0.02 0 0 0 1 2
3786 1 1.13992 5.32898 0.02 0 0 0 1 2
3663 1 0.999711 5.95318 0.02 0 0 0 1 2
3655 1 0.950774 5.54934 0.02 0 0 0 1 2
3811 1 1.43597 6.56166 0.02 0 1.68237e-09 -2.44942e-08 1 2
3630 1 0.544928 3.92393 0.02 0 0 0 1 2
3631 1 0.566362 4.11878 0.02 0 0 0 1 2
3632 1 0.563714 4.32089 0.02 0 0 0 1 2
3634 1 0.758199 4.11408 0.02 0 0 0 1 2
3636 1 0.75768 4.32413 0.02 0 0 0 1 2
3633 1 0.949835 3.91581 0.02 0 0 0 1 2
3635 1 0.947547 4.12341 0.02 0 0 0 1 2
3637 1 0.949882 4.33224 0.02 0 0 0 1 2
3759 1 1.34512 3.94075 0.02 0 0 0 1 2
3760 1 1.14008 4.10894 0.02 0 0 0 1 2
3761 1 1.33522 4.14407 0.02 0 0 0 1 2
3762 1 1.14483 4.30914 0.02 0 0 0 1 2
3661 1 0.984872 5.74641 0.02 0 0 0 1 2
3653 1 0.945715 5.35231 0.02 0 0 0 1 2
3654 1 0.759888 5.56899 0.02 0 0 0 1 2
3805 1 1.43962 6.37525 0.02 0 1.94699e-10 -3.56558e-09 1 2
3652 1 0.750814 5.3574 0.02 0 0 0 1 2
3803 1 1.41211 6.18518 0.02 0 0 0 1 2
3638 1 0.560476 4.52537 0.02 0 0 0 1 2
3639 1 0.575633 4.7331 0.02 0 0 0 1 2
3640 1 0.750315 4.53451 0.02 0 0 0 1 2
3642 1 0.768533 4.74438 0.02 0 0 0 1 2
3641 1 0.939328 4.5421 0.02 0 0 0 1 2
3643 1 0.962772 4.74783 0.02 0 0 0 1 2
3769 1 1.33821 4.34974 0.02 0 0 0 1 2
3770 1 1.1296 4.51034 0.02 0 0 0 1 2
3771 1 1.32273 4.5587 0.02 0 0 0 1 2
3772 1 1.15668 4.7137 0.02 0 0 0 1 2
3773 1 1.3495 4.77088 0.02 0 0 0 1 2
3774 1 1.51151 4.51268 0.02 0 0 0 1 2
3664 1 0.44272 6.17155 0.02 0 0 0 1 2
3651 1 0.570468 5.56371 0.02 0 0 0 1 2
3813 1 1.42085 6.74625 0.02 0 -1.91038e-07 1.81067e-07 1 2
3644 1 0.550531 4.93808 0.02 0 0 0 1 2
3645 1 0.561436 5.14618 0.02 0 0 0 1 2
3646 1 0.748637 4.94668 0.02 0 0 0 1 2
3648 1 0.754692 5.14967 0.02 0 0 0 1 2
3647 1 0.950615 4.94967 0.02 0 0 0 1 2
3649 1 0.949186 5.15223 0.02 0 0 0 1 2
3778 1 1.15389 4.9146 0.02 0 0 0 1 2
3779 1 1.34622 4.98104 0.02 0 0 0 1 2
3780 1 1.1415 5.11544 0.02 0 0 0 1 2
3781 1 1.32542 5.19051 0.02 0 0 0 1 2
3650 1 0.558948 5.35448 0.02 0 0 0 1 2
3662 1 0.811016 5.99069 0.02 0 0 0 1 2
3802 1 1.21328 6.17196 0.02 0 0 0 1 2
1509 2 2 -10 0 0 0 0 1 5
1510 2 2.2 -10 0 0 0 0 1 5
1511 2 2.4 -10 0 0 0 0 1 5
1543 2 2 -9.8 0 0 0 0 1 5
1544 2 2.2 -9.8 0 0 0 0 1 5
1545 2 2.4 -9.8 0 0 0 0 1 5
1577 2 2 -9.6 0 0 0 0 1 5
1578 2 2.2 -9.6 0 0 0 0 1 5
1579 2 2.4 -9.6 0 0 0 0 1 5
1512 2 2.6 -10 0 0 0 0 1 5
1513 2 2.8 -10 0 0 0 0 1 5
1546 2 2.6 -9.8 0 0 0 0 1 5
1547 2 2.8 -9.8 0 0 0 0 1 5
1580 2 2.6 -9.6 0 0 0 0 1 5
1581 2 2.8 -9.6 0 0 0 0 1 5
1645 2 2 -9.2 0 0 0 0 1 5
1646 2 2.2 -9.2 0 0 0 0 1 5
1647 2 2.4 -9.2 0 0 0 0 1 5
1613 2 2.4 -9.4 0 0 0 0 1 5
1612 2 2.2 -9.4 0 0 0 0 1 5
1611 2 2 -9.4 0 0 0 0 1 5
1648 2 2.6 -9.2 0 0 0 0 1 5
1649 2 2.8 -9.2 0 0 0 0 1 5
1615 2 2.8 -9.4 0 0 0 0 1 5
1614 2 2.6 -9.4 0 0 0 0 1 5
1679 2 2 -9 0 0 0 0 1 5
1680 2 2.2 -9 0 0 0 0 1 5
1681 2 2.4 -9 0 0 0 0 1 5
1713 2 2 -8.8 0 0 0 0 1 5
1714 2 2.2 -8.8 0 0 0 0 1 5
1715 2 2.4 -8.8 0 0 0 0 1 5
1682 2 2.6 -9 0 0 0 0 1 5
1683 2 2.8 -9 0 0 0 0 1 5
1716 2 2.6 -8.8 0 0 0 0 1 5
1717 2 2.8 -8.8 0 0 0 0 1 5
1783 2 2.4 -8.4 0 0 0 0 1 5
1782 2 2.2 -8.4 0 0 0 0 1 5
1781 2 2 -8.4 0 0 0 0 1 5
1747 2 2 -8.6 0 0 0 0 1 5
1748 2 2.2 -8.6 0 0 0 0 1 5
1749 2 2.4 -8.6 0 0 0 0 1 5
1785 2 2.8 -8.4 0 0 0 0 1 5
1784 2 2.6 -8.4 0 0 0 0 1 5
1750 2 2.6 -8.6 0 0 0 0 1 5
1751 2 2.8 -8.6 0 0 0 0 1 5
1851 2 2.4 -8 0 0 0 0 1 5
1850 2 2.2 -8 0 0 0 0 1 5
1849 2 2 -8 0 0 0 0 1 5
1817 2 2.4 -8.2 0 0 0 0 1 5
1816 2 2.2 -8.2 0 0 0 0 1 5
1815 2 2 -8.2 0 0 0 0 1 5
1853 2 2.8 -8 0 0 0 0 1 5
1852 2 2.6 -8 0 0 0 0 1 5
1819 2 2.8 -8.2 0 0 0 0 1 5
1818 2 2.6 -8.2 0 0 0 0 1 5
1953 2 2.4 -7.4 0 0 0 0 1.00224 5
1952 2 2.2 -7.4 0 0 0 0 1.01346 5
1951 2 2 -7.4 0 0 0 0 0.992585 5
1919 2 2.4 -7.6 0 0 0 0 1 5
1918 2 2.2 -7.6 0 0 0 0 1 5
1917 2 2 -7.6 0 0 0 0 1 5
1885 2 2.4 -7.8 0 0 0 0 1 5
1884 2 2.2 -7.8 0 0 0 0 1 5
1883 2 2 -7.8 0 0 0 0 1 5
1955 2 2.8 -7.4 0 0 0 0 1.00084 5
1954 2 2.6 -7.4 0 0 0 0 1.00048 5
1921 2 2.8 -7.6 0 0 0 0 1 5
1920 2 2.6 -7.6 0 0 0 0 1 5
1887 2 2.8 -7.8 0 0 0 0 1 5
1886 2 2.6 -7.8 0 0 0 0 1 5
2021 2 2.4 -7 0 0 0 0 1.00503 5
2020 2 2.2 -7 0 0 0 0 1.00902 5
2019 2 2 -7 0 0 0 0 0.994412 5
1987 2 2.4 -7.2 0 0 0 0 1.00439 5
1986 2 2.2 -7.2 0 0 0 0 1.01116 5
1985 2 2 -7.2 0 0 0 0 0.992851 5
2023 2 2.8 -7 0 0 0 0 0.999905 5
2022 2 2.6 -7 0 0 0 0 1.00055 5
1989 2 2.8 -7.2 0 0 0 0 0.999832 5
1988 2 2.6 -7.2 0 0 0 0 0.999872 5
3424 1 2.63191 -6.74071 0.02 0 -0.00212554 -0.000286889 1 2
3427 1 2.6198 -6.54387 0.02 0 0.000387496 0.000388882 1 2
3423 1 2.43987 -6.74606 0.02 0 -0.00312285 -0.000117155 1 2
3426 1 2.43683 -6.55135 0.02 0 -0.000528839 -9.00642e-05 1 2
3425 1 2.82212 -6.73853 0.02 0 -0.00254614 -0.000490994 1 2
3428 1 2.79639 -6.52885 0.02 0 0.000297395 0.00042436 1 2
3703 1 1.61593 -1.57383 0.02 0 0 0 1 2
3431 1 2.97577 -6.545 0.02 0 0.000251998 0.000488393 1 2
3722 1 1.72627 -2.42565 0.02 0 0 0 1 2
3694 1 1.82993 -1.15988 0.02 0 0 0 1 2
3441 1 2.62608 -6.3224 0.02 0 8.42798e-05 8.82527e-05 1 2
3440 1 2.45072 -6.34641 0.02 0 3.45211e-05 2.00505e-05 1 2
3439 1 2.47339 -6.12486 0.02 0 2.65336e-06 2.68865e-06 1 2
3443 1 2.81571 -6.10319 0.02 0 1.26288e-06 3.03681e-06 1 2
3442 1 2.801 -6.31438 0.02 0 5.4788e-05 7.37968e-05 1 2
3444 1 2.97809 -6.33691 0.02 0 5.68501e-05 8.47294e-05 1 2
3701 1 1.6407 -1.36153 0.02 0 0 0 1 2
3730 1 1.79137 -2.84534 0.02 0 0 0 1 2
3728 1 1.77212 -2.63629 0.02 0 0 0 1 2
3454 1 2.64058 -6.08372 0.02 0 1.29613e-06 2.49583e-06 1 2
3456 1 2.64154 -5.86482 0.02 0 1.28092e-10 2.27609e-10 1 2
3459 1 2.6604 -5.65753 0.02 0 2.11921e-17 2.08788e-16 1 2
3458 1 2.47153 -5.65275 0.02 0 8.13679e-19 1.27195e-18 1 2
3455 1 2.46521 -5.88435 0.02 0 1.36358e-10 1.43586e-10 1 2
3457 1 2.8233 -5.88612 0.02 0 4.12176e-11 3.54794e-10 1 2
3711 1 1.63588 -1.78915 0.02 0 0 0 1 2
3693 1 1.59863 -0.951258 0.02 0 0 0 1 2
3460 1 2.85293 -5.67751 0.02 0 6.47413e-17 6.86665e-16 1 2
3692 1 1.79911 -0.955712 0.02 0 0 0 1 2
3702 1 1.80455 -1.56828 0.02 0 0 0 1 2
3474 1 2.69336 -5.24018 0.02 0 0 0 1 2
3472 1 2.65905 -5.44879 0.02 0 0 0 1 2
3471 1 2.46944 -5.43905 0.02 0 0 0 1 2
3473 1 2.49903 -5.23868 0.02 0 0 0 1 2
3731 1 1.60716 -2.89028 0.02 0 0 0 1 2
3713 1 1.65666 -2.00435 0.02 0 0 0 1 2
3475 1 2.84781 -5.46651 0.02 0 0 0 1 2
3476 1 2.88177 -5.25901 0.02 0 0 0 1 2
3700 1 1.83529 -1.36475 0.02 0 0 0 1 2
3712 1 1.8394 -2.00514 0.02 0 0 0 1 2
3491 1 2.73573 -4.83616 0.02 0 0 0 1 2
3490 1 2.66319 -5.03322 0.02 0 0 0 1 2
3489 1 2.52866 -4.84852 0.02 0 0 0 1 2
3488 1 2.46499 -5.04164 0.02 0 0 0 1 2
3720 1 1.69501 -2.21565 0.02 0 0 0 1 2
3493 1 2.9343 -4.85573 0.02 0 -2.38602e-29 -6.62328e-29 1 2
3492 1 2.86072 -5.0493 0.02 0 0 0 1 2
3794 1 1.75902 -4.12093 0.02 0 0 0 1 2
3729 1 1.5869 -2.67692 0.02 0 0 0 1 2
3710 1 1.81933 -1.78273 0.02 0 0 0 1 2
3504 1 2.7365 -4.62936 0.02 0 0 0 1 2
3505 1 2.56315 -4.447 0.02 0 0 0 1 2
3503 1 2.54394 -4.65256 0.02 0 0 0 1 2
3506 1 2.75846 -4.42274 0.02 0 0 0 1 2
3507 1 2.92831 -4.6478 0.02 0 -4.18653e-28 -7.05982e-28 1 2
3509 1 2.95222 -4.44355 0.02 0 -2.90993e-27 7.42876e-27 1 2
3791 1 1.77393 -4.31968 0.02 0 0 0 1 2
3676 1 1.68456 -0.171225 0.02 0 0 0 1 2
3813 1 1.80411 -3.05434 0.02 0 0 0 1 2
3519 1 2.55549 -4.03087 0.02 0 0 0 1 2
3517 1 2.57402 -4.23977 0.02 0 0 0 1 2
3518 1 2.76643 -4.21592 0.02 0 0 0 1 2
3520 1 2.75127 -4.01238 0.02 0 0 0 1 2
3521 1 2.95809 -4.23733 0.02 0 -8.34001e-32 3.25645e-31 1 2
3523 1 2.9508 -4.03445 0.02 0 0 0 1 2
3677 1 1.72643 -0.363371 0.02 0 0 0 1 2
3783 1 1.78755 -4.72603 0.02 0 0 0 1 2
3534 1 2.48712 -3.61902 0.02 0 0 0 1 2
3532 1 2.52671 -3.823 0.02 0 0 0 1 2
3533 1 2.72097 -3.81161 0.02 0 0 0 1 2
3535 1 2.69293 -3.61431 0.02 0 0 0 1 2
3536 1 2.92251 -3.83683 0.02 0 0 0 1 2
3538 1 2.90024 -3.64041 0.02 0 -2.46044e-25 -2.13113e-25 1 2
3803 1 1.66586 -3.52375 0.02 0 0 0 1 2
3777 1 1.76198 -4.92841 0.02 0 0 0 1 2
3675 1 1.85823 -0.0370844 0.02 0 0 0 1 2
3812 1 1.62058 -3.10623 0.02 0 0 0 1 2
3811 1 1.84118 -3.25804 0.02 0 0 0 1 2
3550 1 2.41657 -3.22195 0.02 0 0 0 1 2
3551 1 2.61245 -3.22105 0.02 0 -1.59841e-24 -3.15006e-25 1 2
3549 1 2.65843 -3.4196 0.02 0 -1.15795e-25 -7.61668e-26 1 2
3548 1 2.45396 -3.42201 0.02 0 0 0 1 2
3553 1 2.81842 -3.25259 0.02 0 -1.50576e-22 -7.11365e-23 1 2
3552 1 2.77499 -3.05461 0.02 0 -2.69647e-22 -2.5939e-23 1 2
3802 1 1.6844 -3.73182 0.02 0 0 0 1 2
3810 1 1.65564 -3.31355 0.02 0 0 0 1 2
3554 1 2.8681 -3.44577 0.02 0 -1.95982e-23 -1.28438e-23 1 2
3809 1 1.85331 -3.46296 0.02 0 0 0 1 2
3685 1 1.75809 -0.755384 0.02 0 0 0 1 2
3419 1 2.71925 -2.61866 0.02 0 -1.77435e-23 4.35931e-24 1 2
3422 1 2.58313 -3.01297 0.02 0 -3.53561e-24 1.15808e-25 1 2
3421 1 2.55816 -2.8055 0.02 0 -2.60888e-24 -1.00772e-26 1 2
3420 1 2.74665 -2.8411 0.02 0 -1.73316e-22 5.91034e-24 1 2
3418 1 2.96413 -3.02855 0.02 0 -1.19068e-20 -1.24956e-21 1 2
3417 1 2.93321 -2.81783 0.02 0 -7.40624e-21 9.60847e-22 1 2
3415 1 2.90686 -2.61135 0.02 0 -1.96591e-21 4.15628e-22 1 2
3776 1 1.74886 -5.1382 0.02 0 0 0 1 2
3795 1 1.71841 -3.92735 0.02 0 0 0 1 2
3695 1 1.63355 -1.15374 0.02 0 0 0 1 2
3786 1 1.80491 -4.51845 0.02 0 0 0 1 2
3405 1 2.52592 -2.40127 0.02 0 -6.19982e-26 -1.86829e-27 1 2
3402 1 2.69881 -2.21184 0.02 0 -3.92785e-24 4.87719e-25 1 2
3404 1 2.73396 -2.41029 0.02 0 -2.03767e-23 -3.51991e-25 1 2
3403 1 2.49606 -2.20505 0.02 0 -4.22471e-28 -3.52844e-29 1 2
3406 1 2.53212 -2.60028 0.02 0 -7.21748e-26 -2.3877e-27 1 2
3399 1 2.89994 -2.21393 0.02 0 -1.00484e-21 1.58849e-22 1 2
3400 1 2.93907 -2.41304 0.02 0 -2.46884e-21 -4.69853e-23 1 2
3684 1 1.70381 -0.555943 0.02 0 0 0 1 2
3768 1 1.74346 -5.34795 0.02 0 0 0 1 2
3329 1 2.80829 -0.354571 0.02 0 0 0 1 2
3387 1 2.83647 -2.01811 0.02 0 -7.14875e-23 3.13398e-23 1 2
3386 1 2.81631 -1.82425 0.02 0 -7.67872e-24 -4.33871e-25 1 2
3389 1 2.40084 -1.81365 0.02 0 0 0 1 2
3390 1 2.62688 -2.02069 0.02 0 -1.1236e-26 1.19962e-27 1 2
3388 1 2.60764 -1.82838 0.02 0 -4.94992e-27 -2.36935e-28 1 2
3391 1 2.4203 -2.00946 0.02 0 0 0 1 2
3743 1 1.85906 -6.56898 0.02 0 -0.00058744 0.000135924 1 2
3741 1 1.82568 -6.75011 0.02 0 -0.00195933 -0.000605835 1 2
3784 1 1.61328 -4.574 0.02 0 0 0 1 2
3742 1 1.65064 -6.56028 0.02 0 -1.64177e-06 2.67377e-05 1 2
3374 1 2.80844 -1.62853 0.02 0 -7.28807e-24 5.141e-25 1 2
3376 1 2.44023 -1.43462 0.02 0 0 0 1 2
3377 1 2.60488 -1.63476 0.02 0 -9.44286e-27 6.54676e-28 1 2
3375 1 2.64644 -1.44149 0.02 0 -1.94983e-26 1.54596e-27 1 2
3372 1 2.85195 -1.43736 0.02 0 -9.73605e-24 2.00515e-24 1 2
3740 1 1.62488 -6.74105 0.02 0 -0.000148609 -0.000101142 1 2
3330 1 2.53451 -0.164303 0.02 0 0 0 1 2
3767 1 1.74524 -5.55776 0.02 0 0 0 1 2
3759 1 1.72484 -5.76887 0.02 0 -1.98775e-18 5.86417e-18 1 2
3357 1 2.60871 -0.871762 0.02 0 0 0 1 2
3358 1 2.62102 -1.05789 0.02 0 0 0 1 2
3360 1 2.63079 -1.2473 0.02 0 -5.49377e-29 1.9407e-29 1 2
3359 1 2.4073 -1.05303 0.02 0 0 0 1 2
3361 1 2.426 -1.2436 0.02 0 0 0 1 2
3356 1 2.83797 -1.2477 0.02 0 -7.80334e-25 4.07632e-25 1 2
3354 1 2.82536 -0.879765 0.02 0 0 0 1 2
3355 1 2.84095 -1.06301 0.02 0 -1.362e-26 1.35795e-26 1 2
3750 1 1.68975 -6.37712 0.02 0 1.13402e-06 8.96365e-06 1 2
3758 1 1.73794 -5.97428 0.02 0 -1.57931e-10 1.24435e-09 1 2
3751 1 1.73987 -6.18031 0.02 0 -7.91708e-08 3.83604e-07 1 2
3328 1 2.78405 -0.178949 0.02 0 0 0 1 2
3331 1 2.5885 -0.337865 0.02 0 0 0 1 2
3327 1 2.79188 -0.00100826 0.02 0 0 0 1 2
3341 1 2.78274 -0.701701 0.02 0 0 0 1 2
3340 1 2.84157 -0.532055 0.02 0 0 0 1 2
3342 1 2.60784 -0.518612 0.02 0 0 0 1 2
3343 1 2.55263 -0.692423 0.02 0 0 0 1 2
3678 1 1.51878 -0.354053 0.02 0 0 0 1 2
3749 1 1.54465 -6.19169 0.02 0 9.74434e-11 4.8622e-10 1 2
3756 1 1.5306 -5.79598 0.02 0 0 0 1 2
3757 1 1.54717 -5.99602 0.02 0 0 0 1 2
3765 1 1.55594 -5.59471 0.02 0 0 0 1 2
3766 1 1.54998 -5.39389 0.02 0 0 0 1 2
3686 1 1.55661 -0.751709 0.02 0 0 0 1 2
3774 1 1.55977 -5.19123 0.02 0 0 0 1 2
3775 1 1.57118 -4.9831 0.02 0 0 0 1 2
3782 1 1.58024 -4.77674 0.02 0 0 0 1 2
3785 1 1.57453 -4.37613 0.02 0 0 0 1 2
3792 1 1.51913 -3.97293 0.02 0 0 0 1 2
3793 1 1.56541 -4.17216 0.02 0 0 0 1 2
3723 1 1.54843 -2.46631 0.02 0 0 0 1 2
3317 1 2.73087 0.175954 0.02 0 0 0 1 2
3315 1 2.52022 0.204196 0.02 0 0 0 1 2
3316 1 2.59604 0.384557 0.02 0 0 0 1 2
3318 1 2.57567 0.0129896 0.02 0 0 0 1 2
3319 1 2.80857 0.345641 0.02 0 -2.03537e-26 -2.36186e-26 1 2
3320 1 2.96546 0.178308 0.02 0 -2.85642e-30 -7.86199e-30 1 2
3800 1 1.59983 5.99245 0.02 0 0 0 1 2
3809 1 1.82771 6.35177 0.02 0 -3.11234e-06 -1.72171e-05 1 2
3799 1 1.75886 5.78068 0.02 0 0 0 1 2
3330 1 2.60254 0.57837 0.02 0 -1.52099e-26 -4.69171e-27 1 2
3332 1 2.62714 0.774756 0.02 0 -4.73397e-25 -5.8854e-26 1 2
3331 1 2.42485 0.789319 0.02 0 0 0 1 2
3334 1 2.82273 0.729299 0.02 0 -5.02871e-23 -1.28052e-23 1 2
3333 1 2.80396 0.534418 0.02 0 -2.51402e-24 -1.65458e-24 1 2
3806 1 1.61423 6.18629 0.02 0 4.09512e-11 -1.07351e-10 1 2
3808 1 1.63702 6.37887 0.02 0 6.27042e-08 -2.62984e-06 1 2
3807 1 1.81903 6.1625 0.02 0 4.84175e-08 -1.82978e-07 1 2
3801 1 1.79896 5.97293 0.02 0 2.37635e-10 -4.5891e-10 1 2
3346 1 2.595 0.975685 0.02 0 -2.44794e-25 1.55416e-26 1 2
3347 1 2.55916 1.17683 0.02 0 -1.10264e-26 1.21415e-27 1 2
3348 1 2.75506 1.14765 0.02 0 -7.09577e-24 1.91259e-24 1 2
3349 1 2.7963 0.936337 0.02 0 -3.88755e-23 3.99542e-25 1 2
3814 1 1.63501 6.56866 0.02 0 -3.30223e-06 -2.15916e-05 1 2
3351 1 2.94413 1.19622 0.02 0 -5.70518e-22 2.00461e-22 1 2
3793 1 1.73007 5.58291 0.02 0 0 0 1 2
3768 1 1.72952 4.34147 0.02 0 0 0 1 2
3363 1 2.58655 1.56786 0.02 0 0 0 1 2
3362 1 2.57192 1.37483 0.02 0 0 0 1 2
3364 1 2.77308 1.36257 0.02 0 -4.79418e-25 3.64426e-25 1 2
3365 1 2.79708 1.56248 0.02 0 -6.62986e-29 8.57678e-29 1 2
3739 1 1.60113 2.76489 0.02 0 0 0 1 2
3816 1 1.61743 6.75932 0.02 0 -0.000200654 0.000137863 1 2
3815 1 1.83428 6.5434 0.02 0 -0.000209261 -0.000159403 1 2
3741 1 1.80526 2.73639 0.02 0 0 0 1 2
3376 1 2.41454 1.94621 0.02 0 0 0 1 2
3377 1 2.6364 1.94221 0.02 0 0 0 1 2
3379 1 2.65726 2.12294 0.02 0 0 0 1 2
3375 1 2.58569 1.75982 0.02 0 0 0 1 2
3378 1 2.43665 2.13505 0.02 0 0 0 1 2
3380 1 2.79301 1.75845 0.02 0 0 0 1 2
3791 1 1.71118 5.37901 0.02 0 0 0 1 2
3730 1 1.61071 2.57379 0.02 0 0 0 1 2
3382 1 2.87327 1.93387 0.02 0 0 0 1 2
3384 1 2.87255 2.11742 0.02 0 0 0 1 2
3785 1 1.7096 5.17388 0.02 0 0 0 1 2
454 2 2.6 9.6 0 0 0 0 1 5
455 2 2.8 9.6 0 0 0 0 1 5
3817 1 1.81132 6.72759 0.02 0 -0.00140942 0.000356371 1 2
3396 1 2.64922 2.49861 0.02 0 0 0 1 2
3395 1 2.65713 2.30854 0.02 0 0 0 1 2
3394 1 2.44779 2.3268 0.02 0 0 0 1 2
3397 1 2.44439 2.52306 0.02 0 0 0 1 2
3783 1 1.72455 4.97065 0.02 0 0 0 1 2
3777 1 1.7202 4.76373 0.02 0 0 0 1 2
3398 1 2.8708 2.30393 0.02 0 -2.92839e-34 -2.89384e-34 1 2
3400 1 2.85841 2.49342 0.02 0 0 0 1 2
488 2 2.6 9.8 0 0 0 0 1 5
489 2 2.8 9.8 0 0 0 0 1 5
3409 1 2.45279 2.71578 0.02 0 0 0 1 2
3411 1 2.51651 2.90315 0.02 0 0 0 1 2
3412 1 2.71236 2.88205 0.02 0 0 0 1 2
3410 1 2.66485 2.68963 0.02 0 0 0 1 2
3775 1 1.70094 4.55142 0.02 0 0 0 1 2
3415 1 2.90483 2.89051 0.02 0 0 0 1 2
3413 1 2.87542 2.68675 0.02 0 0 0 1 2
3747 1 1.72412 3.12186 0.02 0 0 0 1 2
452 2 2.2 9.6 0 0 0 0 1 5
453 2 2.4 9.6 0 0 0 0 1 5
3425 1 2.72577 3.08945 0.02 0 0 0 1 2
3423 1 2.53128 3.09972 0.02 0 0 0 1 2
3424 1 2.54802 3.29669 0.02 0 0 0 1 2
3426 1 2.73998 3.30158 0.02 0 0 0 1 2
3427 1 2.91522 3.10179 0.02 0 0 0 1 2
3429 1 2.9266 3.31379 0.02 0 0 0 1 2
3740 1 1.66224 2.94579 0.02 0 0 0 1 2
3704 1 1.72472 1.27633 0.02 0 0 0 1 2
485 2 2 9.8 0 0 0 0 1 5
451 2 2 9.6 0 0 0 0 1 5
3442 1 2.73835 3.50843 0.02 0 0 0 1 2
3441 1 2.72021 3.71155 0.02 0 0 0 1 2
3440 1 2.52874 3.7084 0.02 0 0 0 1 2
3439 1 2.54411 3.49899 0.02 0 0 0 1 2
3703 1 1.69135 1.09719 0.02 0 0 0 1 2
3443 1 2.92533 3.54104 0.02 0 0 0 1 2
3445 1 2.90007 3.76402 0.02 0 0 0 1 2
3687 1 1.65797 0.027076 0.02 0 0 0 1 2
486 2 2.2 9.8 0 0 0 0 1 5
487 2 2.4 9.8 0 0 0 0 1 5
3459 1 2.70829 4.34281 0.02 0 -1.66701e-26 -1.66787e-26 1 2
3458 1 2.68611 4.1269 0.02 0 0 0 1 2
3455 1 2.6795 3.9149 0.02 0 0 0 1 2
3457 1 2.49786 4.14092 0.02 0 0 0 1 2
3456 1 2.48908 3.9248 0.02 0 0 0 1 2
3686 1 1.70804 0.390141 0.02 0 0 0 1 2
3685 1 1.69694 0.209048 0.02 0 0 0 1 2
3460 1 2.86479 3.97811 0.02 0 0 0 1 2
3462 1 2.87376 4.19164 0.02 0 -1.74638e-28 -4.44838e-28 1 2
386 2 2.6 9.2 0 0 0 0 1 5
3733 1 1.82802 2.54765 0.02 0 0 0 1 2
3473 1 2.4871 4.77037 0.02 0 -4.57143e-26 -6.04616e-28 1 2
3470 1 2.51647 4.35424 0.02 0 0 0 1 2
3471 1 2.48291 4.5638 0.02 0 -6.88342e-28 -1.23843e-28 1 2
3474 1 2.68686 4.75637 0.02 0 -8.33729e-24 -9.98118e-25 1 2
3472 1 2.67863 4.54974 0.02 0 -1.20633e-24 -6.12112e-25 1 2
3721 1 1.75458 1.84173 0.02 0 0 0 1 2
3475 1 2.90069 4.40013 0.02 0 -2.13176e-23 -2.02423e-23 1 2
3477 1 2.87103 4.59867 0.02 0 -2.93631e-22 -1.37988e-22 1 2
3714 1 1.76613 1.65156 0.02 0 0 0 1 2
421 2 2.8 9.4 0 0 0 0 1 5
420 2 2.6 9.4 0 0 0 0 1 5
3486 1 2.48974 4.97924 0.02 0 -2.98423e-26 1.75892e-27 1 2
3488 1 2.52502 5.17867 0.02 0 -1.89119e-26 3.58855e-27 1 2
3489 1 2.72221 5.17123 0.02 0 -1.44023e-23 4.80552e-24 1 2
3487 1 2.67877 4.96035 0.02 0 -1.33234e-23 7.48556e-25 1 2
3713 1 1.73327 1.4617 0.02 0 0 0 1 2
3490 1 2.89884 4.79151 0.02 0 -1.28602e-21 -3.37431e-22 1 2
3494 1 2.92078 5.17948 0.02 0 -9.11727e-22 5.18064e-22 1 2