ITEM: TIMESTEP
49000
ITEM: NUMBER OF ATOMS
1178
ITEM: BOX BOUNDS ff ff pp
0.0000000000000000e+00 4.4000000000000004e+00
-1.0000000000000000e+01 1.0000000000000000e+01
-2.0000000000000000e-02 2.0000000000000000e-02
ITEM: ATOMS id type x y vx vy fx fy c_den c_phase
1509 2 2 -10 0 0 0 0 1 5
1510 2 2.2 -10 0 0 0 0 1 5
1511 2 2.4 -10 0 0 0 0 1 5
1543 2 2 -9.8 0 0 0 0 1 5
1544 2 2.2 -9.8 0 0 0 0 1 5
1545 2 2.4 -9.8 0 0 0 0 1 5
1577 2 2 -9.6 0 0 0 0 1 5
1578 2 2.2 -9.6 0 0 0 0 1 5
1579 2 2.4 -9.6 0 0 0 0 1 5
1512 2 2.6 -10 0 0 0 0 1 5
1513 2 2.8 -10 0 0 0 0 1 5
1546 2 2.6 -9.8 0 0 0 0 1 5
1547 2 2.8 -9.8 0 0 0 0 1 5
1580 2 2.6 -9.6 0 0 0 0 1 5
1581 2 2.8 -9.6 0 0 0 0 1 5
1645 2 2 -9.2 0 0 0 0 1 5
1646 2 2.2 -9.2 0 0 0 0 1 5
1647 2 2.4 -9.2 0 0 0 0 1 5
1613 2 2.4 -9.4 0 0 0 0 1 5
1612 2 2.2 -9.4 0 0 0 0 1 5
1611 2 2 -9.4 0 0 0 0 1 5
1648 2 2.6 -9.2 0 0 0 0 1 5
1649 2 2.8 -9.2 0 0 0 0 1 5
1615 2 2.8 -9.4 0 0 0 0 1 5
1614 2 2.6 -9.4 0 0 0 0 1 5
1679 2 2 -9 0 0 0 0 1 5
1680 2 2.2 -9 0 0 0 0 1 5
1681 2 2.4 -9 0 0 0 0 1 5
1713 2 2 -8.8 0 0 0 0 1 5
1714 2 2.2 -8.8 0 0 0 0 1 5
1715 2 2.4 -8.8 0 0 0 0 1 5
1682 2 2.6 -9 0 0 0 0 1 5
1683 2 2.8 -9 0 0 0 0 1 5
1716 2 2.6 -8.8 0 0 0 0 1 5
1717 2 2.8 -8.8 0 0 0 0 1 5
1783 2 2.4 -8.4 0 0 0 0 1 5
1782 2 2.2 -8.4 0 0 0 0 1 5
1781 2 2 -8.4 0 0 0 0 1 5
1747 2 2 -8.6 0 0 0 0 1 5
1748 2 2.2 -8.6 0 0 0 0 1 5
1749 2 2.4 -8.6 0 0 0 0 1 5
1785 2 2.8 -8.4 0 0 0 0 1 5
1784 2 2.6 -8.4 0 0 0 0 1 5
1750 2 2.6 -8.6 0 0 0 0 1 5
1751 2 2.8 -8.6 0 0 0 0 1 5
1851 2 2.4 -8 0 0 0 0 1 5
1850 2 2.2 -8 0 0 0 0 1 5
1849 2 2 -8 0 0 0 0 1 5
1817 2 2.4 -8.2 0 0 0 0 1 5
1816 2 2.2 -8.2 0 0 0 0 1 5
1815 2 2 -8.2 0 0 0 0 1 5
1853 2 2.8 -8 0 0 0 0 1 5
1852 2 2.6 -8 0 0 0 0 1 5
1819 2 2.8 -8.2 0 0 0 0 1 5
1818 2 2.6 -8.2 0 0 0 0 1 5
1953 2 2.4 -7.4 0 0 0 0 0.999628 5
1952 2 2.2 -7.4 0 0 0 0 1.00042 5
1951 2 2 -7.4 0 0 0 0 0.999496 5
1919 2 2.4 -7.6 0 0 0 0 1 5
1918 2 2.2 -7.6 0 0 0 0 1 5
1917 2 2 -7.6 0 0 0 0 1 5
1885 2 2.4 -7.8 0 0 0 0 1 5
1884 2 2.2 -7.8 0 0 0 0 1 5
1883 2 2 -7.8 0 0 0 0 1 5
1955 2 2.8 -7.4 0 0 0 0 1.00071 5
1954 2 2.6 -7.4 0 0 0 0 1.0004 5
1921 2 2.8 -7.6 0 0 0 0 1 5
1920 2 2.6 -7.6 0 0 0 0 1 5
1887 2 2.8 -7.8 0 0 0 0 1 5
1886 2 2.6 -7.8 0 0 0 0 1 5
2021 2 2.4 -7 0 0 0 0 0.999912 5
2020 2 2.2 -7 0 0 0 0 0.999996 5
2019 2 2 -7 0 0 0 0 1.00162 5
1987 2 2.4 -7.2 0 0 0 0 1.00016 5
1986 2 2.2 -7.2 0 0 0 0 1.0004 5
1985 2 2 -7.2 0 0 0 0 1.00153 5
2023 2 2.8 -7 0 0 0 0 0.999229 5
2022 2 2.6 -7 0 0 0 0 1.0001 5
1989 2 2.8 -7.2 0 0 0 0 0.99917 5
1988 2 2.6 -7.2 0 0 0 0 1.00022 5
4448 1 2.18641 -6.74133 0.02 0 -0.00298699 -0.000644769 1 2
4450 1 2.22421 -6.56709 0.02 0 0.000155717 0.000630099 1 2
4445 1 2.01689 -6.5542 0.02 0 4.60959e-05 0.000419145 1 2
4443 1 1.99112 -6.74203 0.02 0 -0.00329221 -0.000655485 1 2
4442 1 1.80221 -6.72835 0.02 0 -0.00180025 -0.000479205 1 2
4444 1 1.81682 -6.54477 0.02 0 5.92039e-05 0.000193178 1 2
4451 1 2.42813 -6.5739 0.02 0 9.96454e-05 0.000561629 1 2
4449 1 2.3931 -6.75491 0.02 0 -0.00294495 -0.000574106 1 2
4452 1 2.60731 -6.74948 0.02 0 -0.00268661 -0.000507982 1 2
4454 1 2.62288 -6.56093 0.02 0 0.00011857 0.000383076 1 2
4447 1 1.62433 -6.54926 0.02 0 5.07494e-05 3.98892e-05 1 2
4462 1 1.62798 -6.16727 0.02 0 2.87581e-08 4.71913e-08 1 2
4455 1 2.81661 -6.56947 0.02 0 0.000159093 0.000337542 1 2
4453 1 2.81354 -6.75696 0.02 0 -0.00262929 -0.00047876 1 2
4464 1 2.23644 -6.38798 0.02 0 9.98776e-05 0.00017691 1 2
4466 1 2.24721 -6.20569 0.02 0 7.30216e-06 1.62959e-05 1 2
4459 1 2.03776 -6.36705 0.02 0 4.27905e-05 0.000111583 1 2
4461 1 2.03092 -6.1805 0.02 0 1.63286e-06 4.98174e-06 1 2
4458 1 1.83468 -6.35816 0.02 0 1.23795e-05 4.15654e-05 1 2
4460 1 1.82668 -6.16827 0.02 0 9.24876e-08 7.30908e-07 1 2
4470 1 2.66281 -6.17307 0.02 0 4.50161e-06 1.11928e-05 1 2
4468 1 2.64166 -6.36843 0.02 0 8.36509e-05 0.000131618 1 2
4467 1 2.46159 -6.20353 0.02 0 8.04527e-06 1.79584e-05 1 2
4465 1 2.43881 -6.38895 0.02 0 0.000111845 0.000170077 1 2
4469 1 2.83781 -6.37843 0.02 0 9.84858e-05 0.000140315 1 2
4471 1 2.85694 -6.18053 0.02 0 5.63439e-06 1.30028e-05 1 2
4463 1 1.62579 -6.35803 0.02 0 3.68689e-06 4.14628e-06 1 2
4424 1 1.63726 -2.20819 0.02 0 0 0 1 2
4480 1 2.2342 -6.02123 0.02 0 8.60762e-08 2.43875e-07 1 2
4482 1 2.28893 -5.83465 0.02 0 1.15967e-10 6.226e-10 1 2
4479 1 2.08848 -5.80453 0.02 0 1.0202e-11 1.00416e-10 1 2
4475 1 2.03268 -5.99115 0.02 0 9.89476e-09 4.98559e-08 1 2
4476 1 1.88089 -5.79188 0.02 0 3.60642e-13 3.99477e-12 1 2
4474 1 1.82866 -5.97613 0.02 0 3.41902e-10 5.47516e-09 1 2
4486 1 2.69129 -5.78216 0.02 0 5.18898e-12 3.72974e-11 1 2
4483 1 2.49022 -5.817 0.02 0 5.37992e-11 3.17214e-10 1 2
4484 1 2.64404 -5.97957 0.02 0 1.72473e-08 5.4221e-08 1 2
4481 1 2.44081 -6.01537 0.02 0 7.02605e-08 1.96648e-07 1 2
4485 1 2.84807 -5.98166 0.02 0 2.11999e-08 6.27955e-08 1 2
4478 1 1.62715 -5.9733 0.02 0 3.41893e-11 7.32027e-11 1 2
4487 1 2.88724 -5.78539 0.02 0 2.06504e-11 6.92056e-11 1 2
4494 1 2.10926 -5.60748 0.02 0 0 0 1 2
4495 1 2.13322 -5.40396 0.02 0 0 0 1 2
4489 1 1.90434 -5.6044 0.02 0 0 0 1 2
4490 1 1.93287 -5.41529 0.02 0 0 0 1 2
4491 1 1.94207 -5.22133 0.02 0 0 0 1 2
4501 1 2.7073 -5.58229 0.02 0 0 0 1 2
4499 1 2.50692 -5.61718 0.02 0 0 0 1 2
4500 1 2.51918 -5.4152 0.02 0 0 0 1 2
4496 1 2.30661 -5.63729 0.02 0 0 0 1 2
4497 1 2.32498 -5.43333 0.02 0 0 0 1 2
4498 1 2.32919 -5.22014 0.02 0 0 0 1 2
4503 1 2.7152 -5.38278 0.02 0 0 0 1 2
4504 1 2.91329 -5.38236 0.02 0 0 0 1 2
4502 1 2.90761 -5.58288 0.02 0 0 0 1 2
4512 1 2.16745 -4.97468 0.02 0 0 0 1 2
4511 1 2.14085 -5.19341 0.02 0 0 0 1 2
4507 1 1.97863 -5.02224 0.02 0 0 0 1 2
4509 1 2.00023 -4.81151 0.02 0 0 0 1 2
4508 1 1.8068 -4.81527 0.02 0 0 0 1 2
4517 1 2.55679 -4.80991 0.02 0 0 0 1 2
4516 1 2.54332 -5.012 0.02 0 0 0 1 2
4515 1 2.52292 -5.21254 0.02 0 0 0 1 2
4513 1 2.35182 -5.00283 0.02 0 0 0 1 2
4519 1 2.75174 -4.78311 0.02 0 0 0 1 2
4518 1 2.74265 -4.98686 0.02 0 0 0 1 2
4514 1 2.72581 -5.18545 0.02 0 0 0 1 2
4521 1 2.94139 -4.98294 0.02 0 0 0 1 2
4520 1 2.9313 -5.18123 0.02 0 0 0 1 2
4530 1 2.22586 -4.54848 0.02 0 0 0 1 2
4528 1 2.18923 -4.76001 0.02 0 0 0 1 2
4526 1 2.03327 -4.59713 0.02 0 0 0 1 2
4527 1 2.06091 -4.38967 0.02 0 0 0 1 2
4524 1 1.84006 -4.61129 0.02 0 0 0 1 2
4522 1 1.85983 -4.40831 0.02 0 0 0 1 2
4531 1 2.41218 -4.55111 0.02 0 0 0 1 2
4529 1 2.37331 -4.77678 0.02 0 0 0 1 2
4533 1 2.62934 -4.38599 0.02 0 0 0 1 2
4532 1 2.59006 -4.60301 0.02 0 0 0 1 2
4537 1 2.97159 -4.57507 0.02 0 -1.37635e-22 -5.12356e-24 1 2
4536 1 2.94917 -4.78034 0.02 0 0 0 1 2
4535 1 2.81626 -4.36233 0.02 0 0 0 1 2
4534 1 2.77985 -4.5737 0.02 0 0 0 1 2
4406 1 1.62701 -1.98574 0.02 0 0 0 1 2
4545 1 2.25511 -4.3374 0.02 0 0 0 1 2
4547 1 2.22825 -4.13658 0.02 0 0 0 1 2
4548 1 2.22739 -3.94058 0.02 0 0 0 1 2
4541 1 2.02373 -3.99137 0.02 0 0 0 1 2
4544 1 2.03495 -4.19118 0.02 0 0 0 1 2
4540 1 1.81681 -4.01236 0.02 0 0 0 1 2
4539 1 1.83586 -4.20972 0.02 0 0 0 1 2
4550 1 2.43245 -3.93346 0.02 0 0 0 1 2
4549 1 2.42855 -4.13331 0.02 0 0 0 1 2
4552 1 2.62759 -3.94622 0.02 0 0 0 1 2
4551 1 2.62357 -4.1624 0.02 0 0 0 1 2
4546 1 2.44801 -4.33832 0.02 0 0 0 1 2
4554 1 2.81998 -3.95647 0.02 0 0 0 1 2
4553 1 2.81869 -4.15889 0.02 0 0 0 1 2
4575 1 1.61948 -3.0552 0.02 0 0 0 1 2
4510 1 1.61048 -4.80548 0.02 0 0 0 1 2
4561 1 2.15199 -3.7622 0.02 0 0 0 1 2
4562 1 2.12717 -3.57442 0.02 0 0 0 1 2
4559 1 1.94731 -3.80935 0.02 0 0 0 1 2
4560 1 1.91638 -3.61938 0.02 0 0 0 1 2
4566 1 2.54291 -3.53875 0.02 0 0 0 1 2
4565 1 2.57086 -3.73758 0.02 0 0 0 1 2
4564 1 2.33681 -3.54964 0.02 0 0 0 1 2
4563 1 2.36395 -3.74314 0.02 0 0 0 1 2
4568 1 2.74937 -3.5508 0.02 0 0 0 1 2
4567 1 2.77191 -3.75222 0.02 0 0 0 1 2
4570 1 2.95699 -3.529 0.02 0 0 0 1 2
4569 1 2.96926 -3.72582 0.02 0 0 0 1 2
4577 1 2.13889 -3.38246 0.02 0 0 0 1 2
4578 1 2.08955 -3.19995 0.02 0 0 0 1 2
4574 1 1.87335 -3.24471 0.02 0 0 0 1 2
4573 1 1.93242 -3.42684 0.02 0 0 0 1 2
4576 1 1.82038 -3.05525 0.02 0 0 0 1 2
4582 1 2.51109 -3.14923 0.02 0 0 0 1 2
4581 1 2.55469 -3.34314 0.02 0 0 0 1 2
4580 1 2.30379 -3.16536 0.02 0 0 0 1 2
4579 1 2.34562 -3.35457 0.02 0 0 0 1 2
4583 1 2.76211 -3.35206 0.02 0 0 0 1 2
4584 1 2.71552 -3.15422 0.02 0 0 0 1 2
4586 1 2.96781 -3.33605 0.02 0 0 0 1 2
4585 1 2.91601 -3.14203 0.02 0 0 0 1 2
4436 1 2.22508 -2.98586 0.02 0 0 0 1 2
4434 1 2.1648 -2.79318 0.02 0 0 0 1 2
4437 1 2.0193 -3.02181 0.02 0 0 0 1 2
4440 1 1.97544 -2.82524 0.02 0 0 0 1 2
4438 1 1.90653 -2.62038 0.02 0 0 0 1 2
4430 1 2.56721 -2.76691 0.02 0 0 0 1 2
4433 1 2.3623 -2.77504 0.02 0 0 0 1 2
4432 1 2.64626 -2.95831 0.02 0 0 0 1 2
4435 1 2.43599 -2.96179 0.02 0 0 0 1 2
4429 1 2.77778 -2.7644 0.02 0 0 0 1 2
4431 1 2.85292 -2.94962 0.02 0 0 0 1 2
4391 1 1.72917 -1.58117 0.02 0 0 0 1 2
4342 1 1.60152 -0.140001 0.02 0 0 0 1 2
4418 1 2.23902 -2.39228 0.02 0 0 0 1 2
4417 1 2.20359 -2.1985 0.02 0 0 0 1 2
4420 1 2.09574 -2.59703 0.02 0 0 0 1 2
4421 1 2.04151 -2.39934 0.02 0 0 0 1 2
4422 1 2.00522 -2.19833 0.02 0 0 0 1 2
4425 1 1.85444 -2.39988 0.02 0 0 0 1 2
4423 1 1.81616 -2.18323 0.02 0 0 0 1 2
4415 1 2.41034 -2.19579 0.02 0 0 0 1 2
4416 1 2.44324 -2.38451 0.02 0 0 0 1 2
4411 1 2.62526 -2.20534 0.02 0 0 0 1 2
4413 1 2.49869 -2.57488 0.02 0 0 0 1 2
4412 1 2.65431 -2.39279 0.02 0 0 0 1 2
4414 1 2.70988 -2.57926 0.02 0 0 0 1 2
4419 1 2.29457 -2.58456 0.02 0 0 0 1 2
4408 1 2.92803 -2.59153 0.02 0 0 0 1 2
4409 1 2.84019 -2.21277 0.02 0 0 0 1 2
4410 1 2.86825 -2.40347 0.02 0 0 0 1 2
4542 1 1.63206 -4.23899 0.02 0 0 0 1 2
4401 1 2.21874 -2.00586 0.02 0 0 0 1 2
4400 1 2.18512 -1.81632 0.02 0 0 0 1 2
4402 1 2.01402 -1.99908 0.02 0 0 0 1 2
4403 1 1.97763 -1.80384 0.02 0 0 0 1 2
4405 1 1.8162 -1.97392 0.02 0 0 0 1 2
4398 1 2.39331 -1.81661 0.02 0 0 0 1 2
4399 1 2.42457 -2.00624 0.02 0 0 0 1 2
4397 1 2.62773 -2.01502 0.02 0 0 0 1 2
4396 1 2.60267 -1.8232 0.02 0 0 0 1 2
4395 1 2.82948 -2.01891 0.02 0 0 0 1 2
4394 1 2.81003 -1.82315 0.02 0 0 0 1 2
4525 1 1.64344 -4.60871 0.02 0 0 0 1 2
4523 1 1.64674 -4.42187 0.02 0 0 0 1 2
4387 1 2.17003 -1.62905 0.02 0 0 0 1 2
4386 1 2.10216 -1.44746 0.02 0 0 0 1 2
4388 1 1.90216 -1.42554 0.02 0 0 0 1 2
4389 1 1.94225 -1.61772 0.02 0 0 0 1 2
4384 1 2.30845 -1.44186 0.02 0 0 0 1 2
4382 1 2.51706 -1.44569 0.02 0 0 0 1 2
4385 1 2.38723 -1.62676 0.02 0 0 0 1 2
4383 1 2.59991 -1.63123 0.02 0 0 0 1 2
4380 1 2.72977 -1.44814 0.02 0 0 0 1 2
4381 1 2.80862 -1.62745 0.02 0 0 0 1 2
4378 1 2.96142 -1.45478 0.02 0 0 0 1 2
4543 1 1.61095 -4.05469 0.02 0 0 0 1 2
4372 1 2.16183 -1.06354 0.02 0 0 0 1 2
4373 1 2.12926 -1.25432 0.02 0 0 0 1 2
4374 1 1.95477 -1.03692 0.02 0 0 0 1 2
4375 1 1.92629 -1.23072 0.02 0 0 0 1 2
4370 1 2.37813 -1.06298 0.02 0 0 0 1 2
4364 1 2.57737 -0.887841 0.02 0 0 0 1 2
4367 1 2.59709 -1.07802 0.02 0 0 0 1 2
4371 1 2.33787 -1.24933 0.02 0 0 0 1 2
4369 1 2.37365 -0.870875 0.02 0 0 0 1 2
4368 1 2.55239 -1.25891 0.02 0 0 0 1 2
4366 1 2.77862 -1.27068 0.02 0 0 0 1 2
4446 1 1.61144 -6.75162 0.02 0 -0.00080553 -0.000607021 1 2
4363 1 2.78543 -0.89668 0.02 0 0 0 1 2
4558 1 1.71061 -3.64157 0.02 0 0 0 1 2
4572 1 1.71735 -3.4454 0.02 0 0 0 1 2
4365 1 2.81034 -1.08603 0.02 0 0 0 1 2
4353 1 2.18427 -0.671329 0.02 0 0 0 1 2
4354 1 2.17103 -0.869466 0.02 0 0 0 1 2
4352 1 2.1753 -0.468318 0.02 0 0 0 1 2
4356 1 1.98078 -0.638546 0.02 0 0 0 1 2
4357 1 1.9709 -0.839322 0.02 0 0 0 1 2
4355 1 1.97966 -0.43497 0.02 0 0 0 1 2
4350 1 2.37598 -0.487256 0.02 0 0 0 1 2
4349 1 2.60541 -0.696222 0.02 0 0 0 1 2
4347 1 2.58415 -0.502385 0.02 0 0 0 1 2
4351 1 2.39409 -0.679469 0.02 0 0 0 1 2
4348 1 2.81788 -0.707188 0.02 0 0 0 1 2
4346 1 2.79223 -0.515065 0.02 0 0 0 1 2
4390 1 1.70883 -1.37585 0.02 0 0 0 1 2
4571 1 1.66245 -3.25437 0.02 0 0 0 1 2
4338 1 2.18063 -0.0512313 0.02 0 0 0 1 2
4337 1 2.20331 -0.262404 0.02 0 0 0 1 2
4339 1 2.00947 -0.232612 0.02 0 0 0 1 2
4340 1 1.98271 -0.0243134 0.02 0 0 0 1 2
4341 1 1.81183 -0.183256 0.02 0 0 0 1 2
4333 1 2.58028 -0.105633 0.02 0 0 0 1 2
4334 1 2.59671 -0.305252 0.02 0 0 0 1 2
4335 1 2.39877 -0.29198 0.02 0 0 0 1 2
4336 1 2.37811 -0.0896709 0.02 0 0 0 1 2
4329 1 2.98492 -0.14686 0.02 0 0 0 1 2
4332 1 2.79582 -0.318491 0.02 0 0 0 1 2
4439 1 1.72125 -2.64892 0.02 0 0 0 1 2
4331 1 2.78201 -0.117902 0.02 0 0 0 1 2
4505 1 1.73929 -5.2108 0.02 0 0 0 1 2
4506 1 1.78184 -5.01593 0.02 0 0 0 1 2
4343 1 1.78532 -0.380407 0.02 0 0 0 1 2
4359 1 1.77542 -0.780303 0.02 0 0 0 1 2
4358 1 1.77876 -0.578615 0.02 0 0 0 1 2
4377 1 1.73157 -1.17546 0.02 0 0 0 1 2
4376 1 1.75539 -0.977961 0.02 0 0 0 1 2
4557 1 1.73324 -3.83444 0.02 0 0 0 1 2
4441 1 1.78582 -2.85229 0.02 0 0 0 1 2
4404 1 1.76372 -1.77757 0.02 0 0 0 1 2
4477 1 1.66848 -5.78448 0.02 0 0 0 1 2
4492 1 1.7276 -5.4058 0.02 0 0 0 1 2
4426 1 1.6789 -2.4387 0.02 0 0 0 1 2
4493 1 1.69526 -5.5962 0.02 0 0 0 1 2
4334 1 2.17298 0.154281 0.02 0 0 0 1 2
4335 1 2.18433 0.354554 0.02 0 0 0 1 2
4332 1 1.97378 0.179162 0.02 0 0 0 1 2
4333 1 1.98485 0.379808 0.02 0 0 0 1 2
4338 1 2.56423 0.09354 0.02 0 0 0 1 2
4339 1 2.57114 0.294969 0.02 0 0 0 1 2
4336 1 2.36808 0.11543 0.02 0 0 0 1 2
4337 1 2.37768 0.32366 0.02 0 0 0 1 2
4340 1 2.76216 0.0851755 0.02 0 0 0 1 2
4341 1 2.76425 0.291321 0.02 0 0 0 1 2
4343 1 2.95394 0.254133 0.02 0 0 0 1 2
4342 1 2.96012 0.050094 0.02 0 0 0 1 2
4348 1 2.15266 0.552322 0.02 0 0 0 1 2
4349 1 2.13015 0.745396 0.02 0 0 0 1 2
4346 1 1.94295 0.577932 0.02 0 0 0 1 2
4347 1 1.92333 0.771232 0.02 0 0 0 1 2
4351 1 2.33073 0.748652 0.02 0 0 0 1 2
4350 1 2.35218 0.538528 0.02 0 0 0 1 2
4353 1 2.52658 0.705228 0.02 0 0 0 1 2
4352 1 2.5449 0.49984 0.02 0 0 0 1 2
4355 1 2.72186 0.709487 0.02 0 0 0 1 2
4354 1 2.73819 0.500181 0.02 0 0 0 1 2
4356 1 2.92971 0.464844 0.02 0 0 0 1 2
4357 1 2.91235 0.674089 0.02 0 0 0 1 2
4362 1 2.10142 0.936412 0.02 0 0 0 1 2
4363 1 2.14722 1.12348 0.02 0 0 0 1 2
4360 1 1.88392 0.96105 0.02 0 0 0 1 2
4361 1 1.93992 1.14254 0.02 0 0 0 1 2
4365 1 2.3492 1.15042 0.02 0 0 0 1 2
4364 1 2.31566 0.950652 0.02 0 0 0 1 2
4367 1 2.54426 1.10662 0.02 0 0 0 1 2
4366 1 2.51768 0.907465 0.02 0 0 0 1 2
4369 1 2.73658 1.12931 0.02 0 0 0 1 2
4368 1 2.71779 0.917908 0.02 0 0 0 1 2
4371 1 2.92454 1.09562 0.02 0 0 0 1 2
4370 1 2.90952 0.883859 0.02 0 0 0 1 2
4378 1 2.18832 1.72369 0.02 0 0 0 1 2
4376 1 2.13289 1.31769 0.02 0 0 0 1 2
4377 1 2.14863 1.51741 0.02 0 0 0 1 2
4375 1 1.95802 1.53796 0.02 0 0 0 1 2
4374 1 1.93022 1.337 0.02 0 0 0 1 2
4380 1 2.34329 1.56056 0.02 0 0 0 1 2
4379 1 2.33271 1.35396 0.02 0 0 0 1 2
4382 1 2.52983 1.523 0.02 0 0 0 1 2
4381 1 2.52785 1.31297 0.02 0 0 0 1 2
4383 1 2.71853 1.3439 0.02 0 0 0 1 2
4384 1 2.71451 1.56316 0.02 0 0 0 1 2
4385 1 2.9087 1.30974 0.02 0 0 0 1 2
4386 1 2.89851 1.52271 0.02 0 0 0 1 2
4394 1 2.22899 2.17052 0.02 0 0 0 1 2
4393 1 2.18649 1.94201 0.02 0 0 0 1 2
4391 1 2.00549 1.74929 0.02 0 0 0 1 2
4392 1 2.00443 1.97177 0.02 0 0 0 1 2
4388 1 1.82651 1.79528 0.02 0 0 0 1 2
4390 1 1.8224 2.0128 0.02 0 0 0 1 2
4398 1 2.56094 1.97688 0.02 0 0 0 1 2
4397 1 2.55347 1.74332 0.02 0 0 0 1 2
4396 1 2.37231 1.97746 0.02 0 0 0 1 2
4395 1 2.37218 1.7735 0.02 0 0 0 1 2
4400 1 2.74584 1.98888 0.02 0 0 0 1 2
4399 1 2.7334 1.78268 0.02 0 0 0 1 2
4402 1 2.93314 1.9695 0.02 0 0 0 1 2
4401 1 2.91388 1.74223 0.02 0 0 0 1 2
4409 1 2.2653 2.39488 0.02 0 0 0 1 2
4413 1 2.09024 2.60699 0.02 0 0 0 1 2
4407 1 2.04582 2.18115 0.02 0 0 0 1 2
4408 1 2.07892 2.39251 0.02 0 0 0 1 2
4406 1 1.89163 2.43725 0.02 0 0 0 1 2
4404 1 1.86559 2.22687 0.02 0 0 0 1 2
4410 1 2.41799 2.17673 0.02 0 0 0 1 2
4415 1 2.63355 2.44048 0.02 0 0 0 1 2
4414 1 2.60377 2.21278 0.02 0 0 0 1 2
4412 1 2.46473 2.60414 0.02 0 0 0 1 2
4411 1 2.45119 2.38468 0.02 0 0 0 1 2
4566 1 1.60919 6.56644 0.02 0 4.98731e-05 -1.95766e-05 1 2
4417 1 2.815 2.3939 0.02 0 0 0 1 2
4416 1 2.78676 2.18797 0.02 0 0 0 1 2
4418 1 2.97007 2.20008 0.02 0 0 0 1 2
4425 1 2.27822 2.6105 0.02 0 0 0 1 2
4427 1 2.2693 2.81867 0.02 0 0 0 1 2
4429 1 2.26001 3.02366 0.02 0 0 0 1 2
4426 1 2.0785 2.82491 0.02 0 0 0 1 2
4428 1 2.06505 3.03706 0.02 0 0 0 1 2
4422 1 1.88357 2.85207 0.02 0 0 0 1 2
4424 1 1.90429 2.64782 0.02 0 0 0 1 2
4431 1 2.65219 2.64989 0.02 0 0 0 1 2
4432 1 2.64683 2.8491 0.02 0 0 0 1 2
4430 1 2.45741 2.82624 0.02 0 0 0 1 2
4434 1 2.83713 2.83595 0.02 0 0 0 1 2
4433 1 2.83907 2.61128 0.02 0 0 0 1 2
4549 1 1.60162 6.19141 0.02 0 3.4244e-08 -1.72626e-08 1 2
4499 1 1.64429 4.79559 0.02 0 0 0 1 2
4443 1 2.27678 3.22864 0.02 0 0 0 1 2
4442 1 2.08294 3.2414 0.02 0 0 0 1 2
4444 1 2.07794 3.43516 0.02 0 0 0 1 2
4439 1 1.88274 3.24491 0.02 0 0 0 1 2
4441 1 1.85846 3.43299 0.02 0 0 0 1 2
4437 1 1.8666 3.05042 0.02 0 0 0 1 2
4450 1 2.50297 3.45978 0.02 0 0 0 1 2
4445 1 2.29546 3.42999 0.02 0 0 0 1 2
4448 1 2.64823 3.04529 0.02 0 0 0 1 2
4449 1 2.66337 3.24633 0.02 0 0 0 1 2
4451 1 2.69886 3.45548 0.02 0 0 0 1 2
4447 1 2.47004 3.2563 0.02 0 0 0 1 2
4446 1 2.45357 3.04434 0.02 0 0 0 1 2
4453 1 2.85448 3.2854 0.02 0 0 0 1 2
4452 1 2.84126 3.06404 0.02 0 0 0 1 2
4503 1 1.62715 5.19263 0.02 0 0 0 1 2
4501 1 1.60433 4.99298 0.02 0 0 0 1 2
4462 1 2.08472 3.80114 0.02 0 0 0 1 2
4460 1 2.12486 3.61791 0.02 0 0 0 1 2
4459 1 1.88334 3.80814 0.02 0 0 0 1 2
4457 1 1.90272 3.61602 0.02 0 0 0 1 2
4466 1 2.49893 3.86068 0.02 0 0 0 1 2
4463 1 2.29767 3.81965 0.02 0 0 0 1 2
4461 1 2.33062 3.62564 0.02 0 0 0 1 2
4464 1 2.52854 3.66321 0.02 0 0 0 1 2
4467 1 2.69812 3.87781 0.02 0 0 0 1 2
4465 1 2.72139 3.6685 0.02 0 0 0 1 2
4469 1 2.90762 3.71986 0.02 0 0 0 1 2
4468 1 2.88902 3.5065 0.02 0 0 0 1 2
4474 1 2.12524 3.98731 0.02 0 0 0 1 2
4476 1 2.13213 4.17843 0.02 0 0 0 1 2
4471 1 1.91917 4.00404 0.02 0 0 0 1 2
4473 1 1.92568 4.19986 0.02 0 0 0 1 2
4477 1 2.32866 4.22398 0.02 0 0 0 1 2
4475 1 2.32973 4.02143 0.02 0 0 0 1 2
4480 1 2.52401 4.25918 0.02 0 0 0 1 2
4478 1 2.53307 4.06035 0.02 0 0 0 1 2
4481 1 2.72234 4.2876 0.02 0 0 0 1 2
4479 1 2.73196 4.08762 0.02 0 0 0 1 2
4483 1 2.93102 4.11934 0.02 0 0 0 1 2
4484 1 2.92305 4.31538 0.02 0 0 0 1 2
4482 1 2.89476 3.92059 0.02 0 0 0 1 2
4492 1 2.2771 4.62187 0.02 0 0 0 1 2
4489 1 2.09537 4.371 0.02 0 0 0 1 2
4491 1 2.08765 4.57457 0.02 0 0 0 1 2
4486 1 1.89134 4.3972 0.02 0 0 0 1 2
4488 1 1.89776 4.60099 0.02 0 0 0 1 2
4494 1 2.49098 4.45476 0.02 0 0 0 1 2
4493 1 2.47632 4.65183 0.02 0 0 0 1 2
4495 1 2.6947 4.47893 0.02 0 0 0 1 2
4496 1 2.68573 4.66737 0.02 0 0 0 1 2
4490 1 2.29194 4.4219 0.02 0 0 0 1 2
4498 1 2.89539 4.69355 0.02 0 0 0 1 2
4497 1 2.90561 4.50525 0.02 0 0 0 1 2
4509 1 2.23178 5.00598 0.02 0 0 0 1 2
4510 1 2.24288 5.19964 0.02 0 0 0 1 2
4508 1 2.23946 4.81292 0.02 0 0 0 1 2
4507 1 2.03082 5.18495 0.02 0 0 0 1 2
4505 1 2.0436 4.78934 0.02 0 0 0 1 2
4506 1 2.02333 4.9913 0.02 0 0 0 1 2
4504 1 1.82607 5.18677 0.02 0 0 0 1 2
4500 1 1.84505 4.80019 0.02 0 0 0 1 2
4502 1 1.81139 4.99288 0.02 0 0 0 1 2
4511 1 2.44323 4.84548 0.02 0 0 0 1 2
4512 1 2.43969 5.03984 0.02 0 0 0 1 2
4514 1 2.6474 5.03902 0.02 0 0 0 1 2
4513 1 2.65439 4.85077 0.02 0 0 0 1 2
4515 1 2.84879 5.073 0.02 0 0 0 1 2
4440 1 1.64835 3.40474 0.02 0 0 0 1 2
4516 1 2.87227 4.88111 0.02 0 0 0 1 2
4523 1 2.27475 5.39909 0.02 0 0 0 1 2
4524 1 2.11924 5.57021 0.02 0 0 0 1 2
4522 1 2.07367 5.37633 0.02 0 0 0 1 2
4519 1 1.87421 5.38358 0.02 0 0 0 1 2
4521 1 1.91963 5.58154 0.02 0 0 0 1 2
4526 1 2.45332 5.23268 0.02 0 0 0 1 2
4527 1 2.47205 5.42911 0.02 0 0 0 1 2
4531 1 2.52183 5.62877 0.02 0 0 0 1 2
4530 1 2.66804 5.44192 0.02 0 0 0 1 2
4528 1 2.65863 5.23543 0.02 0 0 0 1 2
4525 1 2.32111 5.60564 0.02 0 0 0 1 2
4532 1 2.86137 5.48151 0.02 0 0 0 1 2
4529 1 2.85852 5.27991 0.02 0 0 0 1 2
4539 1 2.19403 5.95144 0.02 0 5.29289e-09 -1.55204e-08 1 2
4537 1 2.15263 5.76251 0.02 0 2.70807e-12 -8.99585e-12 1 2
4536 1 1.99321 5.96756 0.02 0 3.05684e-09 -9.17418e-09 1 2
4534 1 1.94368 5.77654 0.02 0 1.9986e-13 -5.6537e-13 1 2
4542 1 2.5668 5.83482 0.02 0 1.20635e-10 -3.45951e-10 1 2
4540 1 2.39714 6.00148 0.02 0 6.32649e-08 -1.71734e-07 1 2
4544 1 2.60317 6.03553 0.02 0 1.47291e-07 -3.69579e-07 1 2
4538 1 2.36638 5.80416 0.02 0 4.72432e-12 -1.33307e-11 1 2
4543 1 2.76187 5.87476 0.02 0 1.33722e-09 -3.50728e-09 1 2
4541 1 2.71481 5.66205 0.02 0 0 0 1 2
4546 1 2.90986 5.68375 0.02 0 0 0 1 2
4389 1 1.63208 2.02352 0.02 0 0 0 1 2
4547 1 2.95809 5.88292 0.02 0 5.17974e-09 -9.97755e-09 1 2
4545 1 2.81525 6.0702 0.02 0 4.68322e-07 -9.89761e-07 1 2
4556 1 2.17848 6.33825 0.02 0 5.58382e-05 -9.49159e-05 1 2
4554 1 2.19671 6.14498 0.02 0 2.38984e-06 -5.09351e-06 1 2
4551 1 1.99479 6.16131 0.02 0 1.17709e-06 -2.49123e-06 1 2
4553 1 1.97929 6.35336 0.02 0 3.72173e-05 -5.88526e-05 1 2
4558 1 2.60647 6.22433 0.02 0 1.15144e-05 -2.03131e-05 1 2
4560 1 2.59321 6.40429 0.02 0 0.000134379 -0.000198971 1 2
4557 1 2.38052 6.37453 0.02 0 0.000102537 -0.000154294 1 2
4555 1 2.39999 6.19133 0.02 0 6.76799e-06 -1.20927e-05 1 2
4387 1 1.63924 1.81475 0.02 0 0 0 1 2
4559 1 2.81077 6.25524 0.02 0 2.02188e-05 -3.49295e-05 1 2
4561 1 2.82954 6.42969 0.02 0 0.000175194 -0.000231367 1 2
4570 1 2.16513 6.73063 0.02 0 -0.00278192 0.000580856 1 2
4571 1 2.19893 6.53483 0.02 0 0.000218253 -0.0005573 1 2
4568 1 2.00663 6.54487 0.02 0 9.63491e-05 -0.000425141 1 2
4563 1 1.98285 6.7398 0.02 0 -0.00325646 0.000617117 1 2
4567 1 1.81211 6.55691 0.02 0 3.71242e-05 -0.000205046 1 2
4572 1 2.39874 6.55855 0.02 0 0.000255607 -0.000677935 1 2
4575 1 2.61399 6.57859 0.02 0 0.000177234 -0.000744074 1 2
4569 1 2.34771 6.7393 0.02 0 -0.00281977 0.000621565 1 2
4574 1 2.54104 6.74258 0.02 0 -0.00294698 0.000727789 1 2
4573 1 2.7562 6.77232 0.02 0 -0.00297029 0.000743522 1 2
4576 1 2.81869 6.6016 0.02 0 9.12567e-05 -0.000744078 1 2
4565 1 1.59966 6.74959 0.02 0 -0.000671464 0.000577401 1 2
4518 1 1.67654 5.3891 0.02 0 0 0 1 2
9 2 2 7 0 0 0 0 1.00079 5
10 2 2.2 7 0 0 0 0 0.999684 5
11 2 2.4 7 0 0 0 0 1.00014 5
43 2 2 7.2 0 0 0 0 1.00004 5
44 2 2.2 7.2 0 0 0 0 0.999734 5
45 2 2.4 7.2 0 0 0 0 1.00071 5
47 2 2.8 7.2 0 0 0 0 0.999948 5
13 2 2.8 7 0 0 0 0 0.99963 5
46 2 2.6 7.2 0 0 0 0 1.00218 5
12 2 2.6 7 0 0 0 0 1.00075 5
77 2 2 7.4 0 0 0 0 0.998841 5
79 2 2.4 7.4 0 0 0 0 0.999045 5
145 2 2 7.8 0 0 0 0 1 5
113 2 2.4 7.6 0 0 0 0 1 5
112 2 2.2 7.6 0 0 0 0 1 5
146 2 2.2 7.8 0 0 0 0 1 5
111 2 2 7.6 0 0 0 0 1 5
147 2 2.4 7.8 0 0 0 0 1 5
78 2 2.2 7.4 0 0 0 0 1.00022 5
81 2 2.8 7.4 0 0 0 0 0.997631 5
114 2 2.6 7.6 0 0 0 0 1 5
148 2 2.6 7.8 0 0 0 0 1 5
149 2 2.8 7.8 0 0 0 0 1 5
80 2 2.6 7.4 0 0 0 0 1.00723 5
115 2 2.8 7.6 0 0 0 0 1 5
215 2 2.4 8.2 0 0 0 0 1 5
214 2 2.2 8.2 0 0 0 0 1 5
213 2 2 8.2 0 0 0 0 1 5
181 2 2.4 8 0 0 0 0 1 5
180 2 2.2 8 0 0 0 0 1 5
179 2 2 8 0 0 0 0 1 5
217 2 2.8 8.2 0 0 0 0 1 5
216 2 2.6 8.2 0 0 0 0 1 5
183 2 2.8 8 0 0 0 0 1 5
182 2 2.6 8 0 0 0 0 1 5
282 2 2.2 8.6 0 0 0 0 1 5
283 2 2.4 8.6 0 0 0 0 1 5
247 2 2 8.4 0 0 0 0 1 5
248 2 2.2 8.4 0 0 0 0 1 5
249 2 2.4 8.4 0 0 0 0 1 5
281 2 2 8.6 0 0 0 0 1 5
250 2 2.6 8.4 0 0 0 0 1 5
251 2 2.8 8.4 0 0 0 0 1 5
284 2 2.6 8.6 0 0 0 0 1 5
285 2 2.8 8.6 0 0 0 0 1 5
349 2 2 9 0 0 0 0 1 5
317 2 2.4 8.8 0 0 0 0 1 5
316 2 2.2 8.8 0 0 0 0 1 5
315 2 2 8.8 0 0 0 0 1 5
351 2 2.4 9 0 0 0 0 1 5
350 2 2.2 9 0 0 0 0 1 5
318 2 2.6 8.8 0 0 0 0 1 5
319 2 2.8 8.8 0 0 0 0 1 5
352 2 2.6 9 0 0 0 0 1 5
353 2 2.8 9 0 0 0 0 1 5
384 2 2.2 9.2 0 0 0 0 1 5
419 2 2.4 9.4 0 0 0 0 1 5
417 2 2 9.4 0 0 0 0 1 5
385 2 2.4 9.2 0 0 0 0 1 5
418 2 2.2 9.4 0 0 0 0 1 5
383 2 2 9.2 0 0 0 0 1 5
421 2 2.8 9.4 0 0 0 0 1 5
387 2 2.8 9.2 0 0 0 0 1 5
386 2 2.6 9.2 0 0 0 0 1 5
420 2 2.6 9.4 0 0 0 0 1 5
485 2 2 9.8 0 0 0 0 1 5
451 2 2 9.6 0 0 0 0 1 5
486 2 2.2 9.8 0 0 0 0 1 5
487 2 2.4 9.8 0 0 0 0 1 5
452 2 2.2 9.6 0 0 0 0 1 5
453 2 2.4 9.6 0 0 0 0 1 5
454 2 2.6 9.6 0 0 0 0 1 5
455 2 2.8 9.6 0 0 0 0 1 5
488 2 2.6 9.8 0 0 0 0 1 5
489 2 2.8 9.8 0 0 0 0 1 5
4329 1 1.77266 0.215718 0.02 0 0 0 1 2
4564 1 1.79361 6.74641 0.02 0 -0.00211099 0.000671118 1 2
4330 1 1.78212 0.410446 0.02 0 0 0 1 2
4331 1 1.7806 0.0181136 0.02 0 0 0 1 2
4372 1 1.73603 1.3839 0.02 0 0 0 1 2
4552 1 1.78428 6.36436 0.02 0 1.49271e-05 -1.56449e-05 1 2
4550 1 1.79611 6.16314 0.02 0 8.82347e-08 -1.48721e-07 1 2
4535 1 1.79139 5.96439 0.02 0 1.74754e-10 -2.40551e-10 1 2
4533 1 1.7337 5.7758 0.02 0 0 0 1 2
4373 1 1.77637 1.58908 0.02 0 0 0 1 2
4344 1 1.72968 0.600763 0.02 0 0 0 1 2
4345 1 1.71441 0.794556 0.02 0 0 0 1 2
4358 1 1.67947 0.991407 0.02 0 0 0 1 2
4359 1 1.73112 1.1823 0.02 0 0 0 1 2
4487 1 1.7027 4.59867 0.02 0 0 0 1 2
4485 1 1.6886 4.39626 0.02 0 0 0 1 2
4470 1 1.71805 3.99119 0.02 0 0 0 1 2
4472 1 1.72393 4.19558 0.02 0 0 0 1 2
4456 1 1.67511 3.59391 0.02 0 0 0 1 2
4458 1 1.68979 3.7867 0.02 0 0 0 1 2
4438 1 1.67193 3.21643 0.02 0 0 0 1 2
4520 1 1.71671 5.58312 0.02 0 0 0 1 2
4423 1 1.6679 3.02259 0.02 0 0 0 1 2
4420 1 1.71305 2.63014 0.02 0 0 0 1 2
4421 1 1.6809 2.827 0.02 0 0 0 1 2
4405 1 1.69207 2.4293 0.02 0 0 0 1 2
4403 1 1.67612 2.22749 0.02 0 0 0 1 2
1583 2 3.2 -9.6 0 0 0 0 1 5
1582 2 3 -9.6 0 0 0 0 1 5
1549 2 3.2 -9.8 0 0 0 0 1 5
1548 2 3 -9.8 0 0 0 0 1 5
1515 2 3.2 -10 0 0 0 0 1 5
1514 2 3 -10 0 0 0 0 1 5
1584 2 3.4 -9.6 0 0 0 0 1 5
1550 2 3.4 -9.8 0 0 0 0 1 5
1516 2 3.4 -10 0 0 0 0 1 5
1586 2 3.8 -9.6 0 0 0 0 1 5
1585 2 3.6 -9.6 0 0 0 0 1 5
1552 2 3.8 -9.8 0 0 0 0 1 5
1551 2 3.6 -9.8 0 0 0 0 1 5
1518 2 3.8 -10 0 0 0 0 1 5
1517 2 3.6 -10 0 0 0 0 1 5
1588 2 4.2 -9.6 0 0 0 0 1 5
1587 2 4 -9.6 0 0 0 0 1 5
1554 2 4.2 -9.8 0 0 0 0 1 5
1553 2 4 -9.8 0 0 0 0 1 5
1520 2 4.2 -10 0 0 0 0 1 5
1519 2 4 -10 0 0 0 0 1 5
1616 2 3 -9.4 0 0 0 0 1 5
1617 2 3.2 -9.4 0 0 0 0 1 5
1651 2 3.2 -9.2 0 0 0 0 1 5
1650 2 3 -9.2 0 0 0 0 1 5
1652 2 3.4 -9.2 0 0 0 0 1 5
1618 2 3.4 -9.4 0 0 0 0 1 5
1653 2 3.6 -9.2 0 0 0 0 1 5
1654 2 3.8 -9.2 0 0 0 0 1 5
1620 2 3.8 -9.4 0 0 0 0 1 5
1619 2 3.6 -9.4 0 0 0 0 1 5
1622 2 4.2 -9.4 0 0 0 0 1 5
1655 2 4 -9.2 0 0 0 0 1 5
1656 2 4.2 -9.2 0 0 0 0 1 5
1621 2 4 -9.4 0 0 0 0 1 5
1719 2 3.2 -8.8 0 0 0 0 1 5
1718 2 3 -8.8 0 0 0 0 1 5
1685 2 3.2 -9 0 0 0 0 1 5
1684 2 3 -9 0 0 0 0 1 5
1686 2 3.4 -9 0 0 0 0 1 5
1720 2 3.4 -8.8 0 0 0 0 1 5
1687 2 3.6 -9 0 0 0 0 1 5
1688 2 3.8 -9 0 0 0 0 1 5
1721 2 3.6 -8.8 0 0 0 0 1 5
1722 2 3.8 -8.8 0 0 0 0 1 5
1689 2 4 -9 0 0 0 0 1 5
1690 2 4.2 -9 0 0 0 0 1 5
1723 2 4 -8.8 0 0 0 0 1 5
1724 2 4.2 -8.8 0 0 0 0 1 5
1752 2 3 -8.6 0 0 0 0 1 5
1753 2 3.2 -8.6 0 0 0 0 1 5
1786 2 3 -8.4 0 0 0 0 1 5
1787 2 3.2 -8.4 0 0 0 0 1 5
1754 2 3.4 -8.6 0 0 0 0 1 5
1788 2 3.4 -8.4 0 0 0 0 1 5
1755 2 3.6 -8.6 0 0 0 0 1 5
1756 2 3.8 -8.6 0 0 0 0 1 5
1789 2 3.6 -8.4 0 0 0 0 1 5
1790 2 3.8 -8.4 0 0 0 0 1 5
1757 2 4 -8.6 0 0 0 0 1 5
1758 2 4.2 -8.6 0 0 0 0 1 5
1791 2 4 -8.4 0 0 0 0 1 5
1792 2 4.2 -8.4 0 0 0 0 1 5
1820 2 3 -8.2 0 0 0 0 1 5
1821 2 3.2 -8.2 0 0 0 0 1 5
1854 2 3 -8 0 0 0 0 1 5
1855 2 3.2 -8 0 0 0 0 1 5
1822 2 3.4 -8.2 0 0 0 0 1 5
1856 2 3.4 -8 0 0 0 0 1 5
1823 2 3.6 -8.2 0 0 0 0 1 5
1824 2 3.8 -8.2 0 0 0 0 1 5
1857 2 3.6 -8 0 0 0 0 1 5
1858 2 3.8 -8 0 0 0 0 1 5
1825 2 4 -8.2 0 0 0 0 1 5
1826 2 4.2 -8.2 0 0 0 0 1 5
1859 2 4 -8 0 0 0 0 1 5
1860 2 4.2 -8 0 0 0 0 1 5
1888 2 3 -7.8 0 0 0 0 1 5
1889 2 3.2 -7.8 0 0 0 0 1 5
1922 2 3 -7.6 0 0 0 0 1 5
1923 2 3.2 -7.6 0 0 0 0 1 5
1956 2 3 -7.4 0 0 0 0 0.994437 5
1957 2 3.2 -7.4 0 0 0 0 0.990115 5
1890 2 3.4 -7.8 0 0 0 0 1 5
1924 2 3.4 -7.6 0 0 0 0 1 5
1958 2 3.4 -7.4 0 0 0 0 1 5
1891 2 3.6 -7.8 0 0 0 0 1 5
1892 2 3.8 -7.8 0 0 0 0 1 5
1925 2 3.6 -7.6 0 0 0 0 1 5
1926 2 3.8 -7.6 0 0 0 0 1 5
1959 2 3.6 -7.4 0 0 0 0 1.00671 5
1960 2 3.8 -7.4 0 0 0 0 0.999928 5
1893 2 4 -7.8 0 0 0 0 1 5
1894 2 4.2 -7.8 0 0 0 0 1 5
1927 2 4 -7.6 0 0 0 0 1 5
1928 2 4.2 -7.6 0 0 0 0 1 5
1961 2 4 -7.4 0 0 0 0 0.999016 5
1962 2 4.2 -7.4 0 0 0 0 1.00244 5
1990 2 3 -7.2 0 0 0 0 0.995319 5
1991 2 3.2 -7.2 0 0 0 0 0.989329 5
2024 2 3 -7 0 0 0 0 0.995599 5
2025 2 3.2 -7 0 0 0 0 0.989165 5
1992 2 3.4 -7.2 0 0 0 0 1.00513 5
2026 2 3.4 -7 0 0 0 0 1.00098 5
1993 2 3.6 -7.2 0 0 0 0 1.0075 5
1994 2 3.8 -7.2 0 0 0 0 1.00283 5
2027 2 3.6 -7 0 0 0 0 1.00782 5
2028 2 3.8 -7 0 0 0 0 1.00356 5
1995 2 4 -7.2 0 0 0 0 1.00115 5
1996 2 4.2 -7.2 0 0 0 0 0.999541 5
2029 2 4 -7 0 0 0 0 1.0015 5
2030 2 4.2 -7 0 0 0 0 0.998845 5
4189 1 3.7476 -6.5613 0.0196335 0 -0.00111424 -0.000241868 1 2
4193 1 4.13154 -6.55789 0.0197428 0 -0.000390537 0.000314688 1 2
4190 1 3.93834 -6.74376 0.0160947 0 -0.00199141 -0.000136696 1 2
4192 1 3.93782 -6.55905 0.0193247 0 8.37517e-05 0.000169662 1 2
4188 1 3.77248 -6.74338 0.0159444 0 -0.00182369 -3.46206e-05 1 2
4191 1 4.09333 -6.73868 0.0159923 0 -0.002542 -0.000456697 1 2
4195 1 4.35623 -6.76082 0.0124164 0 -0.00101816 -7.35131e-05 1 2
4428 1 3.06231 -2.9734 0.02 0 -1.09429e-20 7.00483e-22 1 2
4194 1 4.23949 -6.73962 0.0150569 0 -0.00281191 -0.000475264 1 2
4196 1 4.32455 -6.54776 0.01984 0 -0.000525444 0.000526531 1 2
4105 1 3.67151 -0.689049 0.02 0 -8.11455e-19 -3.30601e-19 1 2
4113 1 4.29281 -1.12456 0.02 0 -1.01914e-18 -9.29047e-20 1 2
4203 1 3.60427 -6.14001 0.02 0 -6.63588e-06 -3.08372e-06 1 2
4208 1 4.16404 -6.17868 0.02 0 1.40316e-05 3.03726e-05 1 2
4205 1 3.98408 -6.37279 0.0198883 0 0.000151013 0.000201505 1 2
4207 1 3.97072 -6.17854 0.0199967 0 1.67137e-05 3.56881e-05 1 2
4202 1 3.78089 -6.37302 0.0199837 0 -4.91838e-05 5.40574e-05 1 2
4204 1 3.78327 -6.17699 0.0199997 0 -6.25922e-06 7.74662e-06 1 2
4206 1 4.18203 -6.37301 0.0199999 0 2.81665e-05 0.000216305 1 2
4120 1 3.67315 -0.880388 0.02 0 -1.08758e-18 7.90536e-20 1 2
4111 1 4.28521 -0.914924 0.02 0 -3.81581e-18 -6.55752e-19 1 2
4211 1 4.36118 -6.15582 0.02 0 2.50812e-05 4.06414e-05 1 2
4209 1 4.37106 -6.34968 0.02 0 -6.34556e-05 0.000300486 1 2
4217 1 3.6393 -5.9255 0.02 0 7.90235e-07 4.44059e-07 1 2
4218 1 3.64518 -5.71264 0.02 0 4.29558e-08 3.82151e-08 1 2
4223 1 4.02118 -5.77886 0.02 0 1.45665e-07 3.52686e-07 1 2
4221 1 4.00834 -5.98028 0.02 0 1.63406e-06 4.14243e-06 1 2
4219 1 3.82005 -5.97061 0.02 0 1.27315e-06 2.52486e-06 1 2
4220 1 3.8297 -5.7563 0.02 0 8.97779e-08 2.00863e-07 1 2
4222 1 4.19744 -5.97288 0.02 0 2.1919e-06 3.83094e-06 1 2
4224 1 4.21912 -5.76461 0.02 0 2.51239e-07 3.59129e-07 1 2
4121 1 3.67688 -1.06698 0.02 0 -1.21404e-18 2.05131e-20 1 2
4225 1 4.39139 -5.96398 0.02 0 2.63551e-06 5.27315e-06 1 2
4227 1 4.41948 -5.77335 0.02 0 6.51921e-07 5.3981e-07 1 2
4096 1 4.44727 -0.51103 0.02 0 -3.75867e-18 1.30293e-19 1 2
4234 1 3.72022 -5.3037 0.02 0 -1.82703e-11 2.66735e-11 1 2
4233 1 3.69651 -5.50855 0.02 0 7.93827e-10 1.01182e-09 1 2
4239 1 4.09778 -5.36188 0.02 0 -2.91364e-10 4.70161e-10 1 2