ITEM: TIMESTEP
6000
ITEM: NUMBER OF ATOMS
1637
ITEM: BOX BOUNDS ff ff pp
0.0000000000000000e+00 4.4000000000000004e+00
-1.0000000000000000e+01 1.0000000000000000e+01
-2.0000000000000000e-02 2.0000000000000000e-02
ITEM: ATOMS id type x y vx vy fx fy c_den c_phase
2400 1 0.445797 -6.58047 0.02 0 0 0 1 2
2401 1 0.418808 -6.75534 0.02 0 0 0 1 2
2402 1 0.62252 -6.7545 0.02 0 0 0 1 2
2403 1 0.821336 -6.73795 0.02 0 0 0 1 2
2404 1 0.662215 -6.57021 0.02 0 0 0 1 2
2405 1 0.86837 -6.55898 0.02 0 0 0 1 2
2406 1 1.01891 -6.75641 0.02 0 0 0 1 2
2407 1 1.21568 -6.75355 0.02 0 0 0 1 2
2408 1 1.06466 -6.56659 0.02 0 0 0 1 2
2409 1 1.26011 -6.56457 0.02 0 0 0 1 2
2410 1 1.41439 -6.74256 0.02 0 -9.15518e-08 -1.01325e-07 1 2
2324 1 1.2857 -1.16744 0.02 0 0 0 1 2
2412 1 1.45461 -6.56 0.02 0 5.52159e-09 3.25094e-08 1 2
2323 1 1.25248 -0.964751 0.02 0 0 0 1 2
2291 1 1.45875 -0.365805 0.02 0 0 0 1 2
2290 1 1.4355 -0.15 0.02 0 0 0 1 2
2416 1 0.463083 -6.2288 0.02 0 0 0 1 2
2417 1 0.472572 -6.4079 0.02 0 0 0 1 2
2418 1 0.674942 -6.38721 0.02 0 0 0 1 2
2419 1 0.684983 -6.20378 0.02 0 0 0 1 2
2420 1 0.882266 -6.3754 0.02 0 0 0 1 2
2421 1 0.895382 -6.18987 0.02 0 0 0 1 2
2422 1 1.0865 -6.37705 0.02 0 0 0 1 2
2423 1 1.09877 -6.184 0.02 0 0 0 1 2
2424 1 1.28512 -6.37392 0.02 0 0 0 1 2
2425 1 1.30466 -6.18589 0.02 0 0 0 1 2
2426 1 1.48541 -6.37283 0.02 0 1.2335e-09 6.3007e-09 1 2
2310 1 1.08878 -0.49582 0.02 0 0 0 1 2
2428 1 1.51092 -6.18342 0.02 0 1.8112e-11 1.06028e-10 1 2
2309 1 1.28344 -0.757755 0.02 0 0 0 1 2
2430 1 0.438645 -5.85696 0.02 0 0 0 1 2
2431 1 0.458586 -6.0486 0.02 0 0 0 1 2
2432 1 0.664151 -6.01867 0.02 0 0 0 1 2
2433 1 0.62834 -5.82533 0.02 0 0 0 1 2
2434 1 0.824063 -5.81429 0.02 0 0 0 1 2
2435 1 0.872165 -6.00318 0.02 0 0 0 1 2
2436 1 1.07975 -5.99131 0.02 0 0 0 1 2
2437 1 1.02801 -5.80594 0.02 0 0 0 1 2
2438 1 1.24787 -5.81645 0.02 0 0 0 1 2
2439 1 1.2866 -5.99936 0.02 0 0 0 1 2
2440 1 1.49084 -5.99235 0.02 0 0 0 1 2
2308 1 1.2811 -0.538324 0.02 0 0 0 1 2
2442 1 1.46418 -5.80089 0.02 0 0 0 1 2
2317 1 0.466991 -0.695724 0.02 0 0 0 1 2
2444 1 0.450061 -5.64953 0.02 0 0 0 1 2
2445 1 0.644484 -5.62334 0.02 0 0 0 1 2
2446 1 0.45136 -5.44144 0.02 0 0 0 1 2
2447 1 0.644639 -5.41999 0.02 0 0 0 1 2
2448 1 0.441907 -5.23262 0.02 0 0 0 1 2
2449 1 0.843644 -5.61653 0.02 0 0 0 1 2
2450 1 0.839837 -5.41725 0.02 0 0 0 1 2
2451 1 0.821178 -5.21795 0.02 0 0 0 1 2
2452 1 1.04476 -5.61413 0.02 0 0 0 1 2
2453 1 1.24388 -5.63003 0.02 0 0 0 1 2
2454 1 1.03505 -5.41546 0.02 0 0 0 1 2
2455 1 1.23268 -5.43551 0.02 0 0 0 1 2
2456 1 1.21468 -5.2373 0.02 0 0 0 1 2
2457 1 1.43655 -5.60063 0.02 0 0 0 1 2
2334 1 0.507976 -1.26707 0.02 0 0 0 1 2
2459 1 1.42225 -5.38976 0.02 0 0 0 1 2
2333 1 0.707893 -1.29234 0.02 0 0 0 1 2
2332 1 0.484043 -1.07209 0.02 0 0 0 1 2
2331 1 0.690242 -1.09279 0.02 0 0 0 1 2
2463 1 0.628091 -5.2099 0.02 0 0 0 1 2
2464 1 0.423683 -5.01823 0.02 0 0 0 1 2
2465 1 0.607798 -4.99268 0.02 0 0 0 1 2
2466 1 0.794696 -5.01454 0.02 0 0 0 1 2
2467 1 0.774471 -4.80046 0.02 0 0 0 1 2
2468 1 1.01743 -5.21275 0.02 0 0 0 1 2
2469 1 0.98605 -5.00858 0.02 0 0 0 1 2
2470 1 1.1779 -5.03372 0.02 0 0 0 1 2
2471 1 0.967939 -4.8102 0.02 0 0 0 1 2
2472 1 1.16821 -4.82078 0.02 0 0 0 1 2
2475 1 1.36099 -4.97252 0.02 0 0 0 1 2
2473 1 1.39884 -5.1777 0.02 0 0 0 1 2
2330 1 0.477967 -0.880323 0.02 0 0 0 1 2
2344 1 0.955665 -1.52449 0.02 0 0 0 1 2
2343 1 1.16184 -1.53732 0.02 0 0 0 1 2
2316 1 0.689395 -0.701356 0.02 0 0 0 1 2
2315 1 0.489834 -0.514518 0.02 0 0 0 1 2
2313 1 0.895104 -0.722022 0.02 0 0 0 1 2
2481 1 0.585834 -4.77962 0.02 0 0 0 1 2
2482 1 0.413706 -4.57803 0.02 0 0 0 1 2
2483 1 0.604288 -4.57054 0.02 0 0 0 1 2
2484 1 0.796226 -4.58634 0.02 0 0 0 1 2
2485 1 0.45398 -4.3673 0.02 0 0 0 1 2
2486 1 0.653402 -4.36807 0.02 0 0 0 1 2
2487 1 0.848681 -4.37825 0.02 0 0 0 1 2
2488 1 0.992152 -4.61794 0.02 0 0 0 1 2
2489 1 1.19931 -4.61468 0.02 0 0 0 1 2
2490 1 1.03921 -4.42856 0.02 0 0 0 1 2
2491 1 1.2355 -4.40519 0.02 0 0 0 1 2
2492 1 1.37202 -4.77562 0.02 0 0 0 1 2
2493 1 1.40642 -4.58164 0.02 0 0 0 1 2
2329 1 0.677332 -0.894216 0.02 0 0 0 1 2
2495 1 1.42973 -4.3802 0.02 0 0 0 1 2
2326 1 0.872721 -0.927203 0.02 0 0 0 1 2
2296 1 1.07388 -0.295322 0.02 0 0 0 1 2
2294 1 1.05314 -0.094678 0.02 0 0 0 1 2
2499 1 0.479622 -4.16107 0.02 0 0 0 1 2
2500 1 0.676205 -4.16298 0.02 0 0 0 1 2
2501 1 0.497125 -3.95057 0.02 0 0 0 1 2
2502 1 0.688534 -3.95576 0.02 0 0 0 1 2
2503 1 0.872457 -4.17021 0.02 0 0 0 1 2
2504 1 0.881455 -3.95995 0.02 0 0 0 1 2
2505 1 1.06521 -4.22906 0.02 0 0 0 1 2
2506 1 1.26044 -4.18899 0.02 0 0 0 1 2
2507 1 1.0685 -4.02536 0.02 0 0 0 1 2
2508 1 1.25628 -3.97051 0.02 0 0 0 1 2
2509 1 1.4562 -4.17813 0.02 0 0 0 1 2
2342 1 0.908428 -1.32959 0.02 0 0 0 1 2
2511 1 1.44589 -3.97397 0.02 0 0 0 1 2
2341 1 1.10897 -1.33421 0.02 0 0 0 1 2
2293 1 1.26935 -0.31991 0.02 0 0 0 1 2
2292 1 1.24679 -0.10337 0.02 0 0 0 1 2
2515 1 0.520721 -3.73477 0.02 0 0 0 1 2
2516 1 0.522421 -3.51789 0.02 0 0 0 1 2
2517 1 0.710939 -3.74794 0.02 0 0 0 1 2
2518 1 0.71004 -3.53709 0.02 0 0 0 1 2
2519 1 0.902621 -3.75053 0.02 0 0 0 1 2
2520 1 0.898999 -3.53879 0.02 0 0 0 1 2
2521 1 1.08615 -3.8147 0.02 0 0 0 1 2
2522 1 1.08407 -3.59192 0.02 0 0 0 1 2
2523 1 1.26491 -3.74165 0.02 0 0 0 1 2
2524 1 1.26715 -3.52636 0.02 0 0 0 1 2
2525 1 1.45449 -3.77151 0.02 0 0 0 1 2
2325 1 1.06575 -0.904502 0.02 0 0 0 1 2
2527 1 1.46099 -3.56777 0.02 0 0 0 1 2
2314 1 0.69334 -0.507391 0.02 0 0 0 1 2
2301 1 0.465825 -0.329982 0.02 0 0 0 1 2
2300 1 0.675044 -0.308611 0.02 0 0 0 1 2
2531 1 0.51446 -3.30217 0.02 0 0 0 1 2
2532 1 0.700413 -3.32282 0.02 0 0 0 1 2
2533 1 0.525681 -3.09498 0.02 0 0 0 1 2
2534 1 0.719864 -3.11224 0.02 0 0 0 1 2
2535 1 0.888054 -3.3262 0.02 0 0 0 1 2
2536 1 0.911503 -3.11655 0.02 0 0 0 1 2
2537 1 1.074 -3.36956 0.02 0 0 0 1 2
2538 1 1.09816 -3.15141 0.02 0 0 0 1 2
2539 1 1.2625 -3.31864 0.02 0 0 0 1 2
2540 1 1.29022 -3.11366 0.02 0 0 0 1 2
2299 1 0.472287 -0.141758 0.02 0 0 0 1 2
2541 1 1.45472 -3.36362 0.02 0 0 0 1 2
2311 1 0.891903 -0.517524 0.02 0 0 0 1 2
2543 1 1.48023 -3.16288 0.02 0 0 0 1 2
2322 1 1.48472 -1.16418 0.02 0 0 0 1 2
2298 1 0.668726 -0.102094 0.02 0 0 0 1 2
2395 1 0.727511 -2.7013 0.02 0 0 0 1 2
2396 1 0.52794 -2.69006 0.02 0 0 0 1 2
2397 1 0.715634 -2.9059 0.02 0 0 0 1 2
2398 1 0.517975 -2.89186 0.02 0 0 0 1 2
2389 1 1.31507 -2.71423 0.02 0 0 0 1 2
2390 1 1.29619 -2.9109 0.02 0 0 0 1 2
2391 1 1.11766 -2.7223 0.02 0 0 0 1 2
2392 1 1.10319 -2.93583 0.02 0 0 0 1 2
2393 1 0.924404 -2.70335 0.02 0 0 0 1 2
2394 1 0.911957 -2.90797 0.02 0 0 0 1 2
2321 1 1.45298 -0.967041 0.02 0 0 0 1 2
2386 1 1.51173 -2.75416 0.02 0 0 0 1 2
2306 1 1.47159 -0.574605 0.02 0 0 0 1 2
2388 1 1.48776 -2.95758 0.02 0 0 0 1 2
2379 1 0.88548 -2.50191 0.02 0 0 0 1 2
2380 1 0.840762 -2.30053 0.02 0 0 0 1 2
2381 1 0.647336 -2.27951 0.02 0 0 0 1 2
2382 1 0.454803 -2.27668 0.02 0 0 0 1 2
2383 1 0.495201 -2.48392 0.02 0 0 0 1 2
2384 1 0.687724 -2.49402 0.02 0 0 0 1 2
2375 1 1.28769 -2.51716 0.02 0 0 0 1 2
2376 1 1.24757 -2.32364 0.02 0 0 0 1 2
2377 1 1.04118 -2.31522 0.02 0 0 0 1 2
2378 1 1.08741 -2.51435 0.02 0 0 0 1 2
2297 1 0.875684 -0.312394 0.02 0 0 0 1 2
2295 1 0.859804 -0.106487 0.02 0 0 0 1 2
2346 1 0.966624 -1.7222 0.02 0 0 0 1 2
2328 1 0.892472 -1.12903 0.02 0 0 0 1 2
2372 1 1.45639 -2.3414 0.02 0 0 0 1 2
2327 1 1.08763 -1.12377 0.02 0 0 0 1 2
2374 1 1.48652 -2.54567 0.02 0 0 0 1 2
2362 1 0.81473 -1.89697 0.02 0 0 0 1 2
2363 1 0.837265 -2.09908 0.02 0 0 0 1 2
2364 1 0.616736 -1.86633 0.02 0 0 0 1 2
2365 1 0.419554 -1.87308 0.02 0 0 0 1 2
2366 1 0.633646 -2.07103 0.02 0 0 0 1 2
2367 1 0.429304 -2.07675 0.02 0 0 0 1 2
2354 1 1.37542 -1.75619 0.02 0 0 0 1 2
2358 1 1.24728 -2.12962 0.02 0 0 0 1 2
2359 1 1.22527 -1.93408 0.02 0 0 0 1 2
2360 1 1.01829 -1.92107 0.02 0 0 0 1 2
2361 1 1.04288 -2.11789 0.02 0 0 0 1 2
2312 1 1.09512 -0.698459 0.02 0 0 0 1 2
2307 1 1.48115 -0.773748 0.02 0 0 0 1 2
2340 1 1.36647 -1.56022 0.02 0 0 0 1 2
2345 1 1.1687 -1.73756 0.02 0 0 0 1 2
2356 1 1.43493 -1.94749 0.02 0 0 0 1 2
2357 1 1.45056 -2.1438 0.02 0 0 0 1 2
2347 1 0.741507 -1.4917 0.02 0 0 0 1 2
2348 1 0.533256 -1.46594 0.02 0 0 0 1 2
2349 1 0.766193 -1.68959 0.02 0 0 0 1 2
2350 1 0.563079 -1.66502 0.02 0 0 0 1 2
2338 1 1.31346 -1.36505 0.02 0 0 0 1 2
2286 1 0.491474 0.270665 0.02 0 0 0 1 2
2287 1 0.671621 0.336851 0.02 0 0 0 1 2
2288 1 0.490784 0.0560054 0.02 0 0 0 1 2
2289 1 0.671012 0.118798 0.02 0 0 0 1 2
2291 1 0.859172 0.320533 0.02 0 0 0 1 2
2293 1 0.854826 0.105539 0.02 0 0 0 1 2
2290 1 1.04223 0.107583 0.02 0 0 0 1 2
2292 1 1.04669 0.312641 0.02 0 0 0 1 2
2294 1 1.2325 0.337272 0.02 0 0 0 1 2
2295 1 1.23107 0.116355 0.02 0 0 0 1 2
2296 1 1.41253 0.287368 0.02 0 0 0 1 2
2297 1 1.41447 0.0680014 0.02 0 0 0 1 2
2499 1 1.05628 5.83848 0.02 0 0 0 1 2
2498 1 0.859641 5.80954 0.02 0 0 0 1 2
2529 1 1.14228 6.74606 0.02 0 0 0 1 2
2528 1 0.933963 6.76272 0.02 0 0 0 1 2
2302 1 0.471843 0.488378 0.02 0 0 0 1 2
2303 1 0.654766 0.544272 0.02 0 0 0 1 2
2304 1 0.409259 0.705152 0.02 0 0 0 1 2
2305 1 0.593856 0.743507 0.02 0 0 0 1 2
2306 1 0.790756 0.728702 0.02 0 0 0 1 2
2307 1 0.852137 0.528996 0.02 0 0 0 1 2
2308 1 1.04547 0.523799 0.02 0 0 0 1 2
2309 1 0.98859 0.730074 0.02 0 0 0 1 2
2310 1 1.18505 0.744519 0.02 0 0 0 1 2
2311 1 1.23594 0.547152 0.02 0 0 0 1 2
2312 1 1.42224 0.508407 0.02 0 0 0 1 2
2313 1 1.38585 0.729522 0.02 0 0 0 1 2
2501 1 1.10203 6.02331 0.02 0 0 0 1 2
2497 1 0.683156 5.98504 0.02 0 0 0 1 2
2527 1 1.12488 6.56304 0.02 0 0 0 1 2
2526 1 0.929621 6.57346 0.02 0 0 0 1 2
2318 1 0.602636 0.941402 0.02 0 0 0 1 2
2319 1 0.580543 1.13505 0.02 0 0 0 1 2
2320 1 0.810614 0.925911 0.02 0 0 0 1 2
2321 1 0.788137 1.12143 0.02 0 0 0 1 2
2322 1 1.0125 0.935026 0.02 0 0 0 1 2
2323 1 0.992177 1.13418 0.02 0 0 0 1 2
2324 1 1.21181 0.942347 0.02 0 0 0 1 2
2325 1 1.19863 1.13869 0.02 0 0 0 1 2
2326 1 1.40684 0.934024 0.02 0 0 0 1 2
2327 1 1.41182 1.13047 0.02 0 0 0 1 2
2496 1 0.475482 5.95702 0.02 0 0 0 1 2
2491 1 1.47781 5.60025 0.02 0 0 0 1 2
2495 1 0.672945 5.7821 0.02 0 0 0 1 2
2525 1 0.736245 6.73857 0.02 0 0 0 1 2
2490 1 1.50421 5.40185 0.02 0 0 0 1 2
2524 1 0.551615 6.73003 0.02 0 0 0 1 2
2334 1 0.536527 1.32777 0.02 0 0 0 1 2
2335 1 0.514267 1.52478 0.02 0 0 0 1 2
2336 1 0.504107 1.72167 0.02 0 0 0 1 2
2337 1 0.716454 1.51418 0.02 0 0 0 1 2
2338 1 0.706959 1.71282 0.02 0 0 0 1 2
2339 1 0.743642 1.31688 0.02 0 0 0 1 2
2340 1 0.946466 1.32832 0.02 0 0 0 1 2
2341 1 0.921111 1.52127 0.02 0 0 0 1 2
2342 1 0.91039 1.71271 0.02 0 0 0 1 2
2343 1 1.11319 1.72513 0.02 0 0 0 1 2
2344 1 1.14934 1.33266 0.02 0 0 0 1 2
2345 1 1.12892 1.52876 0.02 0 0 0 1 2
2346 1 1.35805 1.31601 0.02 0 0 0 1 2
2347 1 1.33895 1.50616 0.02 0 0 0 1 2
2348 1 1.31521 1.69926 0.02 0 0 0 1 2
2489 1 1.29848 5.44829 0.02 0 0 0 1 2
2488 1 1.31273 5.24183 0.02 0 0 0 1 2
2513 1 1.11462 6.20609 0.02 0 0 0 1 2
2523 1 0.730954 6.55154 0.02 0 0 0 1 2
2353 1 0.470862 1.91195 0.02 0 0 0 1 2
2354 1 0.48281 2.10066 0.02 0 0 0 1 2
2355 1 0.682253 1.90792 0.02 0 0 0 1 2
2356 1 0.689541 2.10177 0.02 0 0 0 1 2
2358 1 0.888206 2.09299 0.02 0 0 0 1 2
2357 1 0.89392 1.90235 0.02 0 0 0 1 2
2359 1 1.10326 1.92009 0.02 0 0 0 1 2
2360 1 1.08765 2.11413 0.02 0 0 0 1 2
2361 1 1.30829 1.89614 0.02 0 0 0 1 2
2362 1 1.29062 2.09454 0.02 0 0 0 1 2
2363 1 1.51322 1.87263 0.02 0 0 0 1 2
2364 1 1.49384 2.06691 0.02 0 0 0 1 2
2512 1 0.901376 6.1991 0.02 0 0 0 1 2
2511 1 0.686973 6.36341 0.02 0 0 0 1 2
2367 1 0.423671 2.27614 0.02 0 0 0 1 2
2368 1 0.431245 2.4548 0.02 0 0 0 1 2
2369 1 0.649828 2.28563 0.02 0 0 0 1 2
2370 1 0.663367 2.46684 0.02 0 0 0 1 2
2371 1 0.885765 2.28195 0.02 0 0 0 1 2
2372 1 0.867009 2.46409 0.02 0 0 0 1 2
2373 1 1.11084 2.30172 0.02 0 0 0 1 2
2374 1 1.08156 2.48427 0.02 0 0 0 1 2
2375 1 1.31994 2.28888 0.02 0 0 0 1 2
2376 1 1.31332 2.48033 0.02 0 0 0 1 2
2487 1 1.28709 5.64948 0.02 0 0 0 1 2
2486 1 1.08941 5.64819 0.02 0 0 0 1 2
2522 1 0.533508 6.53654 0.02 0 0 0 1 2
2510 1 0.485277 6.34367 0.02 0 0 0 1 2
2381 1 0.399669 2.63076 0.02 0 0 0 1 2
2382 1 0.621057 2.63956 0.02 0 0 0 1 2
2383 1 0.437527 2.80986 0.02 0 0 0 1 2
2384 1 0.531961 2.97258 0.02 0 0 0 1 2
2385 1 0.683661 2.80866 0.02 0 0 0 1 2
2386 1 0.741795 2.99988 0.02 0 0 0 1 2
2387 1 0.896781 2.64036 0.02 0 0 0 1 2
2388 1 0.892842 2.8171 0.02 0 0 0 1 2
2389 1 0.955859 2.99621 0.02 0 0 0 1 2
2390 1 1.11566 2.82876 0.02 0 0 0 1 2
2391 1 1.15254 2.65315 0.02 0 0 0 1 2
2392 1 1.16695 3.01138 0.02 0 0 0 1 2
2393 1 1.36763 2.66497 0.02 0 0 0 1 2
2394 1 1.35394 2.85047 0.02 0 0 0 1 2
2395 1 1.36799 3.03992 0.02 0 0 0 1 2
2485 1 0.89474 5.61046 0.02 0 0 0 1 2
2484 1 1.09642 5.45106 0.02 0 0 0 1 2
2483 1 0.909353 5.40353 0.02 0 0 0 1 2
2509 1 0.6926 6.17564 0.02 0 0 0 1 2
2482 1 1.12727 5.25393 0.02 0 0 0 1 2
2481 1 0.707737 5.56701 0.02 0 0 0 1 2
2402 1 0.544505 3.16345 0.02 0 0 0 1 2
2403 1 0.58262 3.35953 0.02 0 0 0 1 2
2404 1 0.74949 3.19806 0.02 0 0 0 1 2
2405 1 0.787792 3.39618 0.02 0 0 0 1 2
2406 1 0.951319 3.18701 0.02 0 0 0 1 2
2407 1 0.987667 3.38149 0.02 0 0 0 1 2
2408 1 1.16034 3.20444 0.02 0 0 0 1 2
2409 1 1.19102 3.39844 0.02 0 0 0 1 2
2410 1 1.37733 3.22764 0.02 0 0 0 1 2
2411 1 1.39771 3.4148 0.02 0 0 0 1 2
2494 1 0.489138 5.75532 0.02 0 0 0 1 2
2500 1 0.891032 6.0091 0.02 0 0 0 1 2
2480 1 0.51674 5.55378 0.02 0 0 0 1 2
2532 1 1.32346 6.56971 0.02 0 0 0 1 2
2416 1 0.418592 3.55811 0.02 0 0 0 1 2
2417 1 0.626671 3.55836 0.02 0 0 0 1 2
2418 1 0.471702 3.7432 0.02 0 0 0 1 2
2419 1 0.681674 3.75439 0.02 0 0 0 1 2
2420 1 0.837046 3.59067 0.02 0 0 0 1 2
2421 1 1.04013 3.57987 0.02 0 0 0 1 2
2422 1 0.897282 3.77943 0.02 0 0 0 1 2
2423 1 1.10614 3.7745 0.02 0 0 0 1 2
2424 1 1.24727 3.59397 0.02 0 0 0 1 2
2426 1 1.31568 3.78488 0.02 0 0 0 1 2
2425 1 1.45885 3.59964 0.02 0 0 0 1 2
2479 1 0.734829 5.34326 0.02 0 0 0 1 2
2508 1 0.488312 6.14981 0.02 0 0 0 1 2
2505 1 1.50826 5.98727 0.02 0 0 0 1 2
2531 1 1.35223 6.745 0.02 0 -6.59001e-14 7.86851e-14 1 2
2431 1 0.489753 3.93519 0.02 0 0 0 1 2
2432 1 0.6925 3.95088 0.02 0 0 0 1 2
2433 1 0.523819 4.13251 0.02 0 0 0 1 2
2434 1 0.723447 4.15098 0.02 0 0 0 1 2
2435 1 0.553386 4.33685 0.02 0 0 0 1 2
2436 1 0.896982 3.97068 0.02 0 0 0 1 2
2437 1 1.10385 3.9719 0.02 0 0 0 1 2
2438 1 0.929346 4.16123 0.02 0 0 0 1 2
2439 1 1.13496 4.17176 0.02 0 0 0 1 2
2440 1 1.30871 3.97949 0.02 0 0 0 1 2
2442 1 1.3385 4.17466 0.02 0 0 0 1 2
2478 1 0.548954 5.35095 0.02 0 0 0 1 2
2502 1 1.26873 5.83904 0.02 0 0 0 1 2
2518 1 1.32143 6.39243 0.02 0 0 0 1 2
2516 1 1.32005 6.20958 0.02 0 0 0 1 2
2446 1 0.543225 4.54315 0.02 0 0 0 1 2
2447 1 0.58722 4.73823 0.02 0 0 0 1 2
2448 1 0.74946 4.35183 0.02 0 0 0 1 2
2449 1 0.747145 4.55067 0.02 0 0 0 1 2
2450 1 0.791044 4.7463 0.02 0 0 0 1 2
2451 1 0.948753 4.3547 0.02 0 0 0 1 2
2452 1 1.14562 4.37884 0.02 0 0 0 1 2
2453 1 0.953782 4.55042 0.02 0 0 0 1 2
2454 1 1.15479 4.59118 0.02 0 0 0 1 2
2455 1 0.987457 4.7499 0.02 0 0 0 1 2
2456 1 1.34127 4.37456 0.02 0 0 0 1 2
2458 1 1.34891 4.57757 0.02 0 0 0 1 2
2504 1 1.31132 6.0222 0.02 0 0 0 1 2
2503 1 1.48585 5.79748 0.02 0 0 0 1 2
2474 1 1.49183 5.19178 0.02 0 0 0 1 2
2515 1 1.09969 6.38403 0.02 0 0 0 1 2
2514 1 0.891405 6.38626 0.02 0 0 0 1 2
2463 1 0.579941 4.93604 0.02 0 0 0 1 2
2464 1 0.582328 5.14001 0.02 0 0 0 1 2
2465 1 0.775563 5.1407 0.02 0 0 0 1 2
2466 1 0.780929 4.94279 0.02 0 0 0 1 2
2467 1 1.1653 4.82086 0.02 0 0 0 1 2
2468 1 0.977217 4.96189 0.02 0 0 0 1 2
2469 1 1.15455 5.04089 0.02 0 0 0 1 2
2470 1 0.956792 5.18165 0.02 0 0 0 1 2
2471 1 1.34521 4.78906 0.02 0 0 0 1 2
2472 1 1.33927 5.01453 0.02 0 0 0 1 2
1501 2 2.7996 -10 0.02 0 0 0 1 5
1535 2 2.7996 -9.8 0.02 0 0 0 1 5
1569 2 2.7996 -9.6 0.02 0 0 0 1 5
1509 2 2 -10 0 0 0 0 1 5
1510 2 2.2 -10 0 0 0 0 1 5
1511 2 2.4 -10 0 0 0 0 1 5
1543 2 2 -9.8 0 0 0 0 1 5
1544 2 2.2 -9.8 0 0 0 0 1 5
1545 2 2.4 -9.8 0 0 0 0 1 5
1577 2 2 -9.6 0 0 0 0 1 5
1578 2 2.2 -9.6 0 0 0 0 1 5
1579 2 2.4 -9.6 0 0 0 0 1 5
2355 1 1.63962 -1.97973 0.02 0 0 0 1 2
2370 1 1.65386 -2.17957 0.02 0 0 0 1 2
2542 1 1.6507 -3.38541 0.02 0 0 0 1 2
2303 1 1.85992 -0.791499 0.02 0 0 0 1 2
2302 1 1.84775 -0.570425 0.02 0 0 0 1 2
2318 1 1.85833 -0.996149 0.02 0 0 0 1 2
1512 2 2.6 -10 0 0 0 0 1 5
1513 2 2.8 -10 0 0 0 0 1 5
1546 2 2.6 -9.8 0 0 0 0 1 5
1547 2 2.8 -9.8 0 0 0 0 1 5
1580 2 2.6 -9.6 0 0 0 0 1 5
1581 2 2.8 -9.6 0 0 0 0 1 5
1603 2 2.7996 -9.4 0.02 0 0 0 1 5
1637 2 2.7996 -9.2 0.02 0 0 0 1 5
1645 2 2 -9.2 0 0 0 0 1 5
1646 2 2.2 -9.2 0 0 0 0 1 5
1647 2 2.4 -9.2 0 0 0 0 1 5
1613 2 2.4 -9.4 0 0 0 0 1 5
1612 2 2.2 -9.4 0 0 0 0 1 5
1611 2 2 -9.4 0 0 0 0 1 5
2526 1 1.65274 -3.7928 0.02 0 0 0 1 2
2512 1 1.64067 -3.99372 0.02 0 0 0 1 2
2352 1 1.8376 -1.99265 0.02 0 0 0 1 2
2369 1 1.86039 -2.40026 0.02 0 0 0 1 2
1648 2 2.6 -9.2 0 0 0 0 1 5
1649 2 2.8 -9.2 0 0 0 0 1 5
1615 2 2.8 -9.4 0 0 0 0 1 5
1614 2 2.6 -9.4 0 0 0 0 1 5
1705 2 2.7996 -8.8 0.02 0 0 0 1 5
1671 2 2.7996 -9 0.02 0 0 0 1 5
1679 2 2 -9 0 0 0 0 1 5
1680 2 2.2 -9 0 0 0 0 1 5
1681 2 2.4 -9 0 0 0 0 1 5
1713 2 2 -8.8 0 0 0 0 1 5
1714 2 2.2 -8.8 0 0 0 0 1 5
1715 2 2.4 -8.8 0 0 0 0 1 5
2510 1 1.65309 -4.1987 0.02 0 0 0 1 2
2496 1 1.6259 -4.39955 0.02 0 0 0 1 2
2368 1 1.85499 -2.19767 0.02 0 0 0 1 2
2545 1 1.84587 -3.42199 0.02 0 0 0 1 2
1682 2 2.6 -9 0 0 0 0 1 5
1683 2 2.8 -9 0 0 0 0 1 5
1716 2 2.6 -8.8 0 0 0 0 1 5
1717 2 2.8 -8.8 0 0 0 0 1 5
1739 2 2.7996 -8.6 0.02 0 0 0 1 5
1773 2 2.7996 -8.4 0.02 0 0 0 1 5
1783 2 2.4 -8.4 0 0 0 0 1 5
1782 2 2.2 -8.4 0 0 0 0 1 5
1781 2 2 -8.4 0 0 0 0 1 5
1747 2 2 -8.6 0 0 0 0 1 5
1748 2 2.2 -8.6 0 0 0 0 1 5
1749 2 2.4 -8.6 0 0 0 0 1 5
2494 1 1.61023 -4.59884 0.02 0 0 0 1 2
2474 1 1.59201 -5.19849 0.02 0 0 0 1 2
2399 1 1.85765 -3.21512 0.02 0 0 0 1 2
2530 1 1.84947 -3.62798 0.02 0 0 0 1 2
1785 2 2.8 -8.4 0 0 0 0 1 5
1784 2 2.6 -8.4 0 0 0 0 1 5
1750 2 2.6 -8.6 0 0 0 0 1 5
1751 2 2.8 -8.6 0 0 0 0 1 5
1807 2 2.7996 -8.2 0.02 0 0 0 1 5
1841 2 2.7996 -8 0.02 0 0 0 1 5
1851 2 2.4 -8 0 0 0 0 1 5
1850 2 2.2 -8 0 0 0 0 1 5
1849 2 2 -8 0 0 0 0 1 5
1817 2 2.4 -8.2 0 0 0 0 1 5
1816 2 2.2 -8.2 0 0 0 0 1 5
1815 2 2 -8.2 0 0 0 0 1 5
2288 1 1.6495 -0.32819 0.02 0 0 0 1 2
2289 1 1.62811 -0.131593 0.02 0 0 0 1 2
2529 1 1.85991 -3.82732 0.02 0 0 0 1 2
2514 1 1.83731 -4.02126 0.02 0 0 0 1 2
1853 2 2.8 -8 0 0 0 0 1 5
1852 2 2.6 -8 0 0 0 0 1 5
1819 2 2.8 -8.2 0 0 0 0 1 5
1818 2 2.6 -8.2 0 0 0 0 1 5
1875 2 2.7996 -7.8 0.02 0 0 0 1 5
1909 2 2.7996 -7.6 0.02 0 0 0 1 5
1943 2 2.7996 -7.4 0.02 0 0 0 0.997515 5
1953 2 2.4 -7.4 0 0 0 0 1.00246 5
1952 2 2.2 -7.4 0 0 0 0 1.01092 5
1951 2 2 -7.4 0 0 0 0 0.992079 5
1919 2 2.4 -7.6 0 0 0 0 1 5
1918 2 2.2 -7.6 0 0 0 0 1 5
1917 2 2 -7.6 0 0 0 0 1 5
1885 2 2.4 -7.8 0 0 0 0 1 5
1884 2 2.2 -7.8 0 0 0 0 1 5
1883 2 2 -7.8 0 0 0 0 1 5
2460 1 1.61368 -5.40561 0.02 0 0 0 1 2
2458 1 1.62883 -5.61078 0.02 0 0 0 1 2
2413 1 1.64501 -6.56034 0.02 0 -2.4863e-07 2.9353e-05 1 2
2513 1 1.85179 -4.22092 0.02 0 0 0 1 2
2498 1 1.82357 -4.41893 0.02 0 0 0 1 2
2286 1 1.82075 -0.125197 0.02 0 0 0 1 2
1955 2 2.8 -7.4 0 0 0 0 0.997534 5
1954 2 2.6 -7.4 0 0 0 0 1.00079 5
1921 2 2.8 -7.6 0 0 0 0 1 5
1920 2 2.6 -7.6 0 0 0 0 1 5
1887 2 2.8 -7.8 0 0 0 0 1 5
1886 2 2.6 -7.8 0 0 0 0 1 5
1977 2 2.7996 -7.2 0.02 0 0 0 0.998455 5
2011 2 2.7996 -7 0.02 0 0 0 0.998778 5
2021 2 2.4 -7 0 0 0 0 1.00357 5
2020 2 2.2 -7 0 0 0 0 1.00786 5
2019 2 2 -7 0 0 0 0 0.994236 5
1987 2 2.4 -7.2 0 0 0 0 1.00383 5
1986 2 2.2 -7.2 0 0 0 0 1.00924 5
1985 2 2 -7.2 0 0 0 0 0.99245 5
2411 1 1.61287 -6.75576 0.02 0 -0.000142504 -0.000103475 1 2
2427 1 1.68522 -6.36822 0.02 0 8.85569e-07 6.8806e-06 1 2
2287 1 1.83944 -0.344474 0.02 0 0 0 1 2
2497 1 1.81489 -4.61546 0.02 0 0 0 1 2
2023 2 2.8 -7 0 0 0 0 0.99878 5
2022 2 2.6 -7 0 0 0 0 0.999413 5
1989 2 2.8 -7.2 0 0 0 0 0.998457 5
1988 2 2.6 -7.2 0 0 0 0 0.999638 5
2157 1 2.41371 -6.73915 0.02 0 -0.0027912 -0.000435738 1 2
2160 1 2.63519 -6.57535 0.02 0 0.000279509 0.00038002 1 2
2158 1 2.61892 -6.76661 0.02 0 -0.00183727 -0.000461206 1 2
2159 1 2.44751 -6.55076 0.02 0 0.000100902 0.000140312 1 2
2161 1 2.83461 -6.74572 0.02 0 -0.000948898 -0.000260606 1 2
2163 1 2.82812 -6.56407 0.02 0 0.000149821 0.000214664 1 2
2076 1 2.48052 -1.20811 0.02 0 0 0 1 2
2072 1 2.66198 -1.02554 0.02 0 -5.52061e-26 -1.7532e-26 1 2
2462 1 1.8068 -5.38987 0.02 0 0 0 1 2
2461 1 1.82206 -5.59358 0.02 0 0 0 1 2
2176 1 2.69165 -6.17475 0.02 0 6.82023e-06 1.29344e-05 1 2
2175 1 2.66276 -6.37801 0.02 0 0.000127561 0.00014586 1 2
2173 1 2.4674 -6.35963 0.02 0 8.1206e-05 5.5887e-05 1 2
2174 1 2.4987 -6.17071 0.02 0 6.93038e-06 7.39816e-06 1 2
2087 1 2.9015 -1.46824 0.02 0 -2.99412e-22 5.12067e-23 1 2
2336 1 1.7152 -1.37324 0.02 0 0 0 1 2
2177 1 2.85762 -6.37882 0.02 0 8.01252e-05 0.000105789 1 2
2179 1 2.88304 -6.18522 0.02 0 5.02868e-06 1.15116e-05 1 2
2335 1 1.75699 -1.5817 0.02 0 0 0 1 2
2415 1 1.83714 -6.57482 0.02 0 -0.000416771 9.34546e-05 1 2
2192 1 2.67604 -5.77559 0.02 0 6.4925e-12 2.1579e-11 1 2
2191 1 2.68972 -5.97299 0.02 0 1.47859e-08 4.40631e-08 1 2
2190 1 2.47906 -5.78431 0.02 0 6.22918e-12 9.56056e-12 1 2
2189 1 2.4898 -5.9796 0.02 0 5.21078e-08 6.71192e-08 1 2
2373 1 1.68355 -2.57643 0.02 0 0 0 1 2
2371 1 1.65988 -2.37639 0.02 0 0 0 1 2
2193 1 2.88614 -5.98699 0.02 0 1.47533e-08 6.62472e-08 1 2
2194 1 2.87113 -5.78504 0.02 0 8.52686e-12 3.49518e-11 1 2
2414 1 1.81338 -6.76076 0.02 0 -0.00180468 -0.000520876 1 2
2040 1 2.94801 -0.202375 0.02 0 -6.49437e-21 1.82002e-22 1 2
2205 1 2.42573 -5.58762 0.02 0 -2.37559e-28 -4.94166e-29 1 2
2206 1 2.40237 -5.39266 0.02 0 -6.62635e-28 1.89559e-28 1 2
2208 1 2.63142 -5.58573 0.02 0 -5.75235e-24 -4.57598e-25 1 2
2207 1 2.60929 -5.39695 0.02 0 -2.68217e-24 2.03573e-25 1 2
2211 1 2.81951 -5.39695 0.02 0 -2.78403e-21 -8.66784e-23 1 2
2209 1 2.83975 -5.58705 0.02 0 -2.22899e-21 -4.95995e-22 1 2
2089 1 2.91138 -1.6947 0.02 0 -6.08019e-22 3.54208e-24 1 2
2429 1 1.71568 -6.17861 0.02 0 -5.35303e-08 2.42317e-07 1 2
2059 1 2.42432 -0.609091 0.02 0 0 0 1 2
2060 1 2.44472 -0.808962 0.02 0 0 0 1 2
2222 1 2.44851 -4.83834 0.02 0 -4.70493e-28 -9.53379e-29 1 2
2221 1 2.60583 -5.20967 0.02 0 -5.2109e-25 7.49736e-26 1 2
2223 1 2.62812 -5.02856 0.02 0 -9.82375e-25 -9.16924e-26 1 2
2224 1 2.67138 -4.85148 0.02 0 -2.23867e-24 1.60479e-25 1 2
2225 1 2.82586 -5.21235 0.02 0 -2.89337e-21 3.51068e-22 1 2
2319 1 1.65897 -0.9547 0.02 0 0 0 1 2
2320 1 1.67914 -1.16392 0.02 0 0 0 1 2
2227 1 2.89388 -4.85243 0.02 0 -1.73721e-21 5.07344e-22 1 2
2226 1 2.85611 -5.03345 0.02 0 -2.63698e-21 5.32936e-22 1 2
2387 1 1.68182 -2.97456 0.02 0 0 0 1 2
2039 1 2.97233 -0.411655 0.02 0 -7.7803e-21 -1.05094e-21 1 2
2351 1 1.78831 -1.78827 0.02 0 0 0 1 2
2041 1 2.78094 -0.418584 0.02 0 -1.75499e-22 -1.34898e-23 1 2
2238 1 2.44067 -4.65017 0.02 0 0 0 1 2
2239 1 2.445 -4.462 0.02 0 -3.41945e-30 -2.31627e-31 1 2
2241 1 2.67274 -4.48385 0.02 0 -1.52867e-24 5.10787e-26 1 2
2240 1 2.64512 -4.66649 0.02 0 -6.31814e-25 -3.67604e-26 1 2
2385 1 1.7108 -2.77688 0.02 0 0 0 1 2
2243 1 2.90933 -4.49172 0.02 0 -1.30243e-21 -5.3275e-23 1 2
2242 1 2.85368 -4.66888 0.02 0 -3.43824e-22 2.06266e-23 1 2
2480 1 1.79563 -4.80654 0.02 0 0 0 1 2
2042 1 2.7597 -0.204515 0.02 0 -1.46017e-22 -1.06587e-24 1 2
2252 1 2.46068 -4.27373 0.02 0 -3.50927e-29 2.75393e-30 1 2
2253 1 2.47105 -4.08309 0.02 0 -1.89918e-30 3.95658e-31 1 2
2255 1 2.68871 -4.11551 0.02 0 -3.75931e-25 1.14156e-25 1 2
2258 1 2.69739 -3.92505 0.02 0 -1.00505e-28 9.61051e-29 1 2
2254 1 2.66428 -4.3006 0.02 0 -8.19373e-25 1.53472e-25 1 2
2544 1 1.67114 -3.17954 0.02 0 0 0 1 2
2528 1 1.6571 -3.59027 0.02 0 0 0 1 2
2259 1 2.89467 -3.92102 0.02 0 -1.14015e-23 1.0861e-23 1 2
2257 1 2.90478 -4.11797 0.02 0 -2.98879e-22 1.42202e-22 1 2
2256 1 2.87241 -4.3071 0.02 0 -5.31446e-22 7.08157e-23 1 2
2305 1 1.67413 -0.741933 0.02 0 0 0 1 2
2043 1 2.57136 -0.196512 0.02 0 -1.93009e-24 -2.74376e-26 1 2
2044 1 2.58964 -0.406124 0.02 0 -1.72011e-24 9.48982e-26 1 2
2058 1 2.64372 -0.819929 0.02 0 -5.66074e-25 -1.18151e-25 1 2
2273 1 2.44567 -3.68365 0.02 0 0 0 1 2
2272 1 2.49796 -3.89073 0.02 0 0 0 1 2
2275 1 2.64849 -3.72616 0.02 0 -5.13902e-31 -1.4316e-31 1 2
2274 1 2.6245 -3.52888 0.02 0 -2.23698e-27 -5.41394e-28 1 2
2277 1 2.8262 -3.52264 0.02 0 -5.40336e-24 -2.08407e-24 1 2
2075 1 2.4616 -1.00736 0.02 0 0 0 1 2
2441 1 1.69577 -5.99012 0.02 0 -3.16637e-10 1.4461e-09 1 2
2276 1 2.84805 -3.72231 0.02 0 -5.36451e-25 -3.78792e-25 1 2
2056 1 2.62221 -0.613201 0.02 0 -1.31552e-24 -7.88424e-26 1 2
2057 1 2.84318 -0.832632 0.02 0 -6.32435e-23 -2.24094e-23 1 2
2156 1 2.43146 -3.47088 0.02 0 0 0 1 2
2155 1 2.43213 -3.25575 0.02 0 0 0 1 2
2152 1 2.62942 -3.13149 0.02 0 -8.44757e-26 5.88309e-27 1 2
2154 1 2.62445 -3.33168 0.02 0 -3.67812e-26 -4.38188e-27 1 2
2151 1 2.81902 -3.1147 0.02 0 -1.22749e-23 1.96177e-24 1 2
2153 1 2.83124 -3.32346 0.02 0 -1.69564e-23 -1.20253e-24 1 2
2092 1 2.53799 -1.62282 0.02 0 0 0 1 2
2091 1 2.51995 -1.41351 0.02 0 0 0 1 2
2055 1 2.81616 -0.628898 0.02 0 -1.49892e-22 -2.60376e-23 1 2
2073 1 2.87126 -1.24415 0.02 0 -2.2249e-23 1.30269e-23 1 2
2137 1 2.83754 -2.90633 0.02 0 -2.10588e-24 1.27249e-24 1 2
2134 1 2.64692 -2.68472 0.02 0 0 0 1 2
2135 1 2.83531 -2.7004 0.02 0 -8.1591e-27 1.01681e-26 1 2
2139 1 2.45943 -2.62755 0.02 0 0 0 1 2
2141 1 2.45495 -3.0408 0.02 0 0 0 1 2
2140 1 2.47046 -2.83279 0.02 0 0 0 1 2
2138 1 2.64809 -2.91284 0.02 0 -9.94823e-27 3.97391e-27 1 2
2071 1 2.85926 -1.03504 0.02 0 -4.18589e-24 -2.53074e-24 1 2
2304 1 1.66144 -0.530511 0.02 0 0 0 1 2
2090 1 2.72772 -1.64492 0.02 0 -1.00204e-23 1.22485e-25 1 2
2088 1 2.71621 -1.43509 0.02 0 -3.54407e-24 2.68254e-25 1 2
2120 1 2.82174 -2.49265 0.02 0 0 0 1 2
2118 1 2.8157 -2.28702 0.02 0 -3.97292e-25 -2.79666e-25 1 2
2122 1 2.62098 -2.25416 0.02 0 0 0 1 2
2121 1 2.63001 -2.46414 0.02 0 0 0 1 2
2124 1 2.43691 -2.4215 0.02 0 0 0 1 2
2123 1 2.42972 -2.21217 0.02 0 0 0 1 2
2443 1 1.67718 -5.80157 0.02 0 0 0 1 2
2074 1 2.67783 -1.23077 0.02 0 -4.36228e-26 1.52215e-26 1 2
2102 1 2.9567 -1.9211 0.02 0 -8.26417e-22 -1.74709e-22 1 2
2478 1 1.78917 -5.19128 0.02 0 0 0 1 2
2105 1 2.80078 -2.07835 0.02 0 -1.11236e-23 -3.26599e-24 1 2
2107 1 2.60619 -2.04609 0.02 0 0 0 1 2
2106 1 2.5794 -1.83614 0.02 0 0 0 1 2
2108 1 2.41302 -2.0009 0.02 0 0 0 1 2
2103 1 2.77091 -1.86398 0.02 0 -1.97252e-23 -2.72873e-24 1 2
2479 1 1.75434 -4.99634 0.02 0 0 0 1 2
2476 1 1.55626 -4.99144 0.02 0 0 0 1 2
2477 1 1.58193 -4.7929 0.02 0 0 0 1 2
2339 1 1.56359 -1.57395 0.02 0 0 0 1 2
2337 1 1.51665 -1.36783 0.02 0 0 0 1 2
2353 1 1.58601 -1.77807 0.02 0 0 0 1 2
2032 1 2.58566 0.224259 0.02 0 -3.8022e-24 -1.98124e-25 1 2
2031 1 2.55073 0.0152087 0.02 0 -4.60233e-25 1.84926e-26 1 2
2033 1 2.77888 0.216003 0.02 0 -2.83993e-22 -3.77858e-23 1 2
2034 1 2.77364 0.424276 0.02 0 -4.99486e-22 -9.32357e-24 1 2
2035 1 2.73938 0.00901173 0.02 0 -5.60477e-23 1.25812e-24 1 2
2037 1 2.96583 0.243059 0.02 0 -1.0166e-20 -1.5166e-21 1 2
2036 1 2.92775 0.0146403 0.02 0 -3.66016e-21 1.69871e-23 1 2
2493 1 1.71131 5.41416 0.02 0 0 0 1 2
2462 1 1.74946 4.58883 0.02 0 0 0 1 2
2461 1 1.74702 4.3903 0.02 0 0 0 1 2
2413 1 1.60524 3.40293 0.02 0 0 0 1 2
2049 1 2.59334 0.853529 0.02 0 -4.16308e-24 -1.91571e-25 1 2
2048 1 2.5857 0.645737 0.02 0 -4.37588e-24 2.33741e-25 1 2
2047 1 2.58277 0.434965 0.02 0 -1.07673e-23 1.52101e-25 1 2
2050 1 2.77812 0.634414 0.02 0 -3.49761e-22 4.71333e-23 1 2
2051 1 2.78461 0.848641 0.02 0 -3.05765e-22 -1.8435e-23 1 2
2052 1 2.96206 0.465903 0.02 0 -1.45458e-20 1.13533e-22 1 2
2053 1 2.96613 0.683296 0.02 0 -1.04559e-20 1.14208e-21 1 2
2445 1 1.74628 4.19345 0.02 0 0 0 1 2
2444 1 1.72847 3.99767 0.02 0 0 0 1 2
2412 1 1.59153 3.20956 0.02 0 0 0 1 2
2064 1 2.58121 1.26198 0.02 0 -4.50683e-24 -2.17254e-26 1 2
2063 1 2.57938 1.05801 0.02 0 -7.70267e-24 -3.64102e-25 1 2
2065 1 2.77139 1.06422 0.02 0 -3.97305e-22 -1.97939e-23 1 2
2066 1 2.77002 1.27921 0.02 0 -2.50622e-22 3.21741e-23 1 2
2069 1 2.95689 1.29997 0.02 0 -7.88797e-21 1.68595e-21 1 2
2067 1 2.97307 0.88937 0.02 0 -1.16119e-20 -1.07108e-21 1 2
2068 1 2.9614 1.09195 0.02 0 -1.30821e-20 7.72877e-23 1 2
2401 1 1.77611 3.00181 0.02 0 0 0 1 2
2400 1 1.79445 2.80981 0.02 0 0 0 1 2
2082 1 2.72716 1.48506 0.02 0 -1.75246e-23 6.70795e-24 1 2
2081 1 2.53986 1.66141 0.02 0 0 0 1 2
2080 1 2.53356 1.46151 0.02 0 -1.15237e-25 5.98802e-27 1 2
2083 1 2.75224 1.68567 0.02 0 -8.43776e-25 7.32767e-25 1 2
2085 1 2.96541 1.70509 0.02 0 -5.70419e-23 6.50816e-23 1 2
2084 1 2.92212 1.50668 0.02 0 -1.07812e-21 5.8987e-22 1 2
2399 1 1.78792 2.62061 0.02 0 0 0 1 2
2492 1 1.67224 5.6108 0.02 0 0 0 1 2
454 2 2.6 9.6 0 0 0 0 1 5
2095 1 2.55623 2.04403 0.02 0 0 0 1 2
2094 1 2.57843 1.85478 0.02 0 0 0 1 2
2097 1 2.77618 2.07045 0.02 0 -8.76359e-30 -6.25704e-30 1 2
2096 1 2.78797 1.8791 0.02 0 -2.81527e-29 4.15939e-29 1 2
2330 1 1.61642 1.1014 0.02 0 0 0 1 2
2328 1 1.59711 0.898345 0.02 0 0 0 1 2
2430 1 1.85899 3.59134 0.02 0 0 0 1 2
2415 1 1.81062 3.39198 0.02 0 0 0 1 2
2114 1 2.64089 2.60767 0.02 0 -1.66641e-26 -1.82734e-27 1 2
2112 1 2.64401 2.41719 0.02 0 -2.6819e-28 -1.02885e-28 1 2
2110 1 2.60847 2.22999 0.02 0 0 0 1 2
2108 1 2.42199 2.39441 0.02 0 0 0 1 2
2109 1 2.43548 2.5827 0.02 0 0 0 1 2
2111 1 2.82837 2.26125 0.02 0 -5.87522e-26 -5.03069e-26 1 2
2315 1 1.61063 0.478725 0.02 0 0 0 1 2
2477 1 1.70981 5.00813 0.02 0 0 0 1 2
2113 1 2.86044 2.45268 0.02 0 -4.46976e-24 -2.19126e-24 1 2
2414 1 1.79733 3.19534 0.02 0 0 0 1 2
455 2 2.8 9.6 0 0 0 0 1 5
2123 1 2.42237 2.77537 0.02 0 0 0 1 2
2127 1 2.6293 2.80212 0.02 0 -2.31881e-26 -1.3749e-27 1 2
2125 1 2.60584 2.99882 0.02 0 -1.63795e-27 1.34849e-28 1 2
2124 1 2.40628 2.96941 0.02 0 0 0 1 2
2129 1 2.80362 3.03534 0.02 0 -2.67363e-24 1.30017e-25 1 2
2128 1 2.83193 2.83916 0.02 0 -1.18427e-23 8.30947e-25 1 2
2476 1 1.71865 4.79343 0.02 0 0 0 1 2
2299 1 1.60528 0.0658033 0.02 0 0 0 1 2
2126 1 2.84552 2.64459 0.02 0 -1.3026e-23 -1.59238e-24 1 2
2332 1 1.81192 1.07569 0.02 0 0 0 1 2
488 2 2.6 9.8 0 0 0 0 1 5
2316 1 1.80912 0.484546 0.02 0 0 0 1 2
2143 1 2.40359 3.16915 0.02 0 0 0 1 2
2144 1 2.41265 3.37484 0.02 0 -1.74077e-34 -1.69486e-35 1 2
2146 1 2.60659 3.40503 0.02 0 -6.95064e-26 -8.99842e-27 1 2
2145 1 2.60243 3.20054 0.02 0 -1.25924e-26 -1.80555e-27 1 2
2148 1 2.79963 3.43993 0.02 0 -2.43088e-22 -8.60444e-23 1 2