ITEM: TIMESTEP
60000
ITEM: NUMBER OF ATOMS
1033
ITEM: BOX BOUNDS ff ff pp
0.0000000000000000e+00 4.4000000000000004e+00
-1.0000000000000000e+01 1.0000000000000000e+01
-2.0000000000000000e-02 2.0000000000000000e-02
ITEM: ATOMS id type x y vx vy fx fy c_den c_phase
1509 2 2 -10 0 0 0 0 1 5
1510 2 2.2 -10 0 0 0 0 1 5
1511 2 2.4 -10 0 0 0 0 1 5
1543 2 2 -9.8 0 0 0 0 1 5
1544 2 2.2 -9.8 0 0 0 0 1 5
1545 2 2.4 -9.8 0 0 0 0 1 5
1577 2 2 -9.6 0 0 0 0 1 5
1578 2 2.2 -9.6 0 0 0 0 1 5
1579 2 2.4 -9.6 0 0 0 0 1 5
1512 2 2.6 -10 0 0 0 0 1 5
1513 2 2.8 -10 0 0 0 0 1 5
1546 2 2.6 -9.8 0 0 0 0 1 5
1547 2 2.8 -9.8 0 0 0 0 1 5
1580 2 2.6 -9.6 0 0 0 0 1 5
1581 2 2.8 -9.6 0 0 0 0 1 5
1645 2 2 -9.2 0 0 0 0 1 5
1646 2 2.2 -9.2 0 0 0 0 1 5
1647 2 2.4 -9.2 0 0 0 0 1 5
1613 2 2.4 -9.4 0 0 0 0 1 5
1612 2 2.2 -9.4 0 0 0 0 1 5
1611 2 2 -9.4 0 0 0 0 1 5
1648 2 2.6 -9.2 0 0 0 0 1 5
1649 2 2.8 -9.2 0 0 0 0 1 5
1615 2 2.8 -9.4 0 0 0 0 1 5
1614 2 2.6 -9.4 0 0 0 0 1 5
1679 2 2 -9 0 0 0 0 1 5
1680 2 2.2 -9 0 0 0 0 1 5
1681 2 2.4 -9 0 0 0 0 1 5
1713 2 2 -8.8 0 0 0 0 1 5
1714 2 2.2 -8.8 0 0 0 0 1 5
1715 2 2.4 -8.8 0 0 0 0 1 5
1682 2 2.6 -9 0 0 0 0 1 5
1683 2 2.8 -9 0 0 0 0 1 5
1716 2 2.6 -8.8 0 0 0 0 1 5
1717 2 2.8 -8.8 0 0 0 0 1 5
1783 2 2.4 -8.4 0 0 0 0 1 5
1782 2 2.2 -8.4 0 0 0 0 1 5
1781 2 2 -8.4 0 0 0 0 1 5
1747 2 2 -8.6 0 0 0 0 1 5
1748 2 2.2 -8.6 0 0 0 0 1 5
1749 2 2.4 -8.6 0 0 0 0 1 5
1785 2 2.8 -8.4 0 0 0 0 1 5
1784 2 2.6 -8.4 0 0 0 0 1 5
1750 2 2.6 -8.6 0 0 0 0 1 5
1751 2 2.8 -8.6 0 0 0 0 1 5
1851 2 2.4 -8 0 0 0 0 1 5
1850 2 2.2 -8 0 0 0 0 1 5
1849 2 2 -8 0 0 0 0 1 5
1817 2 2.4 -8.2 0 0 0 0 1 5
1816 2 2.2 -8.2 0 0 0 0 1 5
1815 2 2 -8.2 0 0 0 0 1 5
1853 2 2.8 -8 0 0 0 0 1 5
1852 2 2.6 -8 0 0 0 0 1 5
1819 2 2.8 -8.2 0 0 0 0 1 5
1818 2 2.6 -8.2 0 0 0 0 1 5
1953 2 2.4 -7.4 0 0 0 0 0.998494 5
1952 2 2.2 -7.4 0 0 0 0 1.00071 5
1951 2 2 -7.4 0 0 0 0 1.00124 5
1919 2 2.4 -7.6 0 0 0 0 1 5
1918 2 2.2 -7.6 0 0 0 0 1 5
1917 2 2 -7.6 0 0 0 0 1 5
1885 2 2.4 -7.8 0 0 0 0 1 5
1884 2 2.2 -7.8 0 0 0 0 1 5
1883 2 2 -7.8 0 0 0 0 1 5
1955 2 2.8 -7.4 0 0 0 0 1.00015 5
1954 2 2.6 -7.4 0 0 0 0 1.00117 5
1921 2 2.8 -7.6 0 0 0 0 1 5
1920 2 2.6 -7.6 0 0 0 0 1 5
1887 2 2.8 -7.8 0 0 0 0 1 5
1886 2 2.6 -7.8 0 0 0 0 1 5
2021 2 2.4 -7 0 0 0 0 0.999868 5
2020 2 2.2 -7 0 0 0 0 0.99995 5
2019 2 2 -7 0 0 0 0 1.00473 5
1987 2 2.4 -7.2 0 0 0 0 0.999803 5
1986 2 2.2 -7.2 0 0 0 0 0.999193 5
1985 2 2 -7.2 0 0 0 0 1.00421 5
2023 2 2.8 -7 0 0 0 0 0.999645 5
2022 2 2.6 -7 0 0 0 0 1.00051 5
1989 2 2.8 -7.2 0 0 0 0 0.999242 5
1988 2 2.6 -7.2 0 0 0 0 1.00102 5
4958 1 2.22252 -6.7545 0.02 0 -0.00235421 -0.000448029 1 2
4960 1 2.26221 -6.57021 0.02 0 0.000370603 0.000679597 1 2
4957 1 2.01881 -6.75534 0.02 0 -0.00448733 -0.000610348 1 2
4956 1 2.0458 -6.58047 0.02 0 -0.000102127 0.000144954 1 2
4964 1 2.66466 -6.56659 0.02 0 0.000133044 0.000551743 1 2
4962 1 2.61891 -6.75641 0.02 0 -0.0029508 -0.000603415 1 2
4959 1 2.42134 -6.73795 0.02 0 -0.00236219 -0.000566575 1 2
4961 1 2.46837 -6.55898 0.02 0 0.000196236 0.00059231 1 2
4963 1 2.81568 -6.75355 0.02 0 -0.00294853 -0.000590889 1 2
4883 1 2.68763 -1.12377 0.02 0 0 0 1 2
4906 1 2.16308 -1.66502 0.02 0 0 0 1 2
4965 1 2.86011 -6.56457 0.02 0 0.00011339 0.000550701 1 2
4868 1 2.69512 -0.698459 0.02 0 0 0 1 2
4869 1 2.4951 -0.722022 0.02 0 0 0 1 2
4974 1 2.27494 -6.38721 0.02 0 0.000152425 0.000193176 1 2
4975 1 2.28498 -6.20378 0.02 0 1.07953e-05 1.90687e-05 1 2
4973 1 2.07257 -6.4079 0.02 0 0.000161892 0.000131549 1 2
4972 1 2.06308 -6.2288 0.02 0 8.13008e-06 8.9493e-06 1 2
4978 1 2.6865 -6.37705 0.02 0 9.43211e-05 0.000156702 1 2
4977 1 2.49538 -6.18987 0.02 0 6.20436e-06 1.39651e-05 1 2
4976 1 2.48227 -6.3754 0.02 0 9.67806e-05 0.000158363 1 2
4979 1 2.69877 -6.184 0.02 0 5.46245e-06 1.28762e-05 1 2
4888 1 2.08404 -1.07209 0.02 0 0 0 1 2
4879 1 2.85248 -0.964751 0.02 0 0 0 1 2
4981 1 2.90466 -6.18589 0.02 0 5.83892e-06 1.40483e-05 1 2
4980 1 2.88512 -6.37392 0.02 0 8.92635e-05 0.000150704 1 2
4867 1 2.4919 -0.517524 0.02 0 0 0 1 2
4890 1 2.10798 -1.26707 0.02 0 0 0 1 2
4988 1 2.26415 -6.01867 0.02 0 1.27962e-07 2.51047e-07 1 2
4989 1 2.22834 -5.82533 0.02 0 2.59799e-10 7.60671e-10 1 2
4986 1 2.03864 -5.85696 0.02 0 0 0 1 2
4987 1 2.05859 -6.0486 0.02 0 8.5998e-08 1.41949e-07 1 2
4992 1 2.67975 -5.99131 0.02 0 2.86464e-08 8.72661e-08 1 2
4993 1 2.62801 -5.80594 0.02 0 3.94686e-11 1.54466e-10 1 2
4990 1 2.42406 -5.81429 0.02 0 7.57291e-11 2.93121e-10 1 2
4991 1 2.47217 -6.00318 0.02 0 4.77365e-08 1.14621e-07 1 2
4886 1 2.07797 -0.880323 0.02 0 0 0 1 2
4889 1 2.30789 -1.29234 0.02 0 0 0 1 2
4995 1 2.8866 -5.99936 0.02 0 3.34468e-08 1.18875e-07 1 2
4994 1 2.84787 -5.81645 0.02 0 6.8405e-11 2.30962e-10 1 2
4887 1 2.29024 -1.09279 0.02 0 0 0 1 2
4848 1 2.84679 -0.10337 0.02 0 0 0 1 2
5001 1 2.24448 -5.62334 0.02 0 0 0 1 2
5003 1 2.24464 -5.41999 0.02 0 0 0 1 2
5000 1 2.05006 -5.64953 0.02 0 0 0 1 2
5002 1 2.05136 -5.44144 0.02 0 0 0 1 2
5004 1 2.04191 -5.23262 0.02 0 0 0 1 2
5008 1 2.64476 -5.61413 0.02 0 0 0 1 2
5010 1 2.63505 -5.41546 0.02 0 0 0 1 2
5005 1 2.44364 -5.61653 0.02 0 0 0 1 2
5006 1 2.43984 -5.41725 0.02 0 0 0 1 2
5007 1 2.42118 -5.21795 0.02 0 0 0 1 2
5012 1 2.81468 -5.2373 0.02 0 0 0 1 2
5011 1 2.83268 -5.43551 0.02 0 0 0 1 2
4904 1 2.13326 -1.46594 0.02 0 0 0 1 2
4885 1 2.27733 -0.894216 0.02 0 0 0 1 2
5009 1 2.84388 -5.63003 0.02 0 0 0 1 2
4866 1 2.68878 -0.49582 0.02 0 0 0 1 2
4873 1 2.06699 -0.695724 0.02 0 0 0 1 2
5019 1 2.22809 -5.2099 0.02 0 0 0 1 2
5021 1 2.2078 -4.99268 0.02 0 0 0 1 2
5020 1 2.02368 -5.01823 0.02 0 0 0 1 2
5024 1 2.61743 -5.21275 0.02 0 0 0 1 2
5025 1 2.58605 -5.00858 0.02 0 0 0 1 2
5027 1 2.56794 -4.8102 0.02 0 0 0 1 2
5022 1 2.3947 -5.01454 0.02 0 0 0 1 2
5023 1 2.37447 -4.80046 0.02 0 0 0 1 2
5028 1 2.76821 -4.82078 0.02 0 0 0 1 2
5026 1 2.7779 -5.03372 0.02 0 0 0 1 2
4900 1 2.55567 -1.52449 0.02 0 0 0 1 2
5031 1 2.96099 -4.97252 0.02 0 0 0 1 2
4880 1 2.8857 -1.16744 0.02 0 0 0 1 2
4871 1 2.08983 -0.514518 0.02 0 0 0 1 2
4872 1 2.2894 -0.701356 0.02 0 0 0 1 2
5042 1 2.2534 -4.36807 0.02 0 0 0 1 2
5039 1 2.20429 -4.57054 0.02 0 0 0 1 2
5041 1 2.05398 -4.3673 0.02 0 0 0 1 2
5038 1 2.01371 -4.57803 0.02 0 0 0 1 2
5037 1 2.18583 -4.77962 0.02 0 0 0 1 2
5046 1 2.63921 -4.42856 0.02 0 0 0 1 2
5044 1 2.59215 -4.61794 0.02 0 0 0 1 2
5043 1 2.44868 -4.37825 0.02 0 0 0 1 2
5040 1 2.39623 -4.58634 0.02 0 0 0 1 2
5045 1 2.79931 -4.61468 0.02 0 0 0 1 2
4902 1 2.56662 -1.7222 0.02 0 0 0 1 2
4914 1 2.84728 -2.12962 0.02 0 0 0 1 2
5047 1 2.8355 -4.40519 0.02 0 0 0 1 2
4915 1 2.82527 -1.93408 0.02 0 0 0 1 2
4870 1 2.29334 -0.507391 0.02 0 0 0 1 2
4864 1 2.8811 -0.538324 0.02 0 0 0 1 2
5056 1 2.27621 -4.16298 0.02 0 0 0 1 2
5058 1 2.28853 -3.95576 0.02 0 0 0 1 2
5055 1 2.07962 -4.16107 0.02 0 0 0 1 2
5057 1 2.09712 -3.95057 0.02 0 0 0 1 2
5061 1 2.66521 -4.22906 0.02 0 0 0 1 2
5063 1 2.6685 -4.02536 0.02 0 0 0 1 2
5059 1 2.47246 -4.17021 0.02 0 0 0 1 2
5060 1 2.48146 -3.95995 0.02 0 0 0 1 2
4881 1 2.66575 -0.904502 0.02 0 0 0 1 2
4884 1 2.49247 -1.12903 0.02 0 0 0 1 2
5064 1 2.85628 -3.97051 0.02 0 0 0 1 2
5062 1 2.86044 -4.18899 0.02 0 0 0 1 2
4894 1 2.91346 -1.36505 0.02 0 0 0 1 2
4849 1 2.86935 -0.31991 0.02 0 0 0 1 2
5074 1 2.31004 -3.53709 0.02 0 0 0 1 2
5073 1 2.31094 -3.74794 0.02 0 0 0 1 2
5071 1 2.12072 -3.73477 0.02 0 0 0 1 2
5072 1 2.12242 -3.51789 0.02 0 0 0 1 2
5077 1 2.68615 -3.8147 0.02 0 0 0 1 2
5078 1 2.68407 -3.59192 0.02 0 0 0 1 2
5075 1 2.50262 -3.75053 0.02 0 0 0 1 2
5076 1 2.499 -3.53879 0.02 0 0 0 1 2
5080 1 2.86715 -3.52636 0.02 0 0 0 1 2
5079 1 2.86491 -3.74165 0.02 0 0 0 1 2
4918 1 2.41473 -1.89697 0.02 0 0 0 1 2
4897 1 2.70897 -1.33421 0.02 0 0 0 1 2
4851 1 2.4598 -0.106487 0.02 0 0 0 1 2
4853 1 2.47568 -0.312394 0.02 0 0 0 1 2
5090 1 2.31986 -3.11224 0.02 0 0 0 1 2
5088 1 2.30041 -3.32282 0.02 0 0 0 1 2
5089 1 2.12568 -3.09498 0.02 0 0 0 1 2
5087 1 2.11446 -3.30217 0.02 0 0 0 1 2
5093 1 2.674 -3.36956 0.02 0 0 0 1 2
5091 1 2.48805 -3.3262 0.02 0 0 0 1 2
5092 1 2.5115 -3.11655 0.02 0 0 0 1 2
5094 1 2.69816 -3.15141 0.02 0 0 0 1 2
5096 1 2.89022 -3.11366 0.02 0 0 0 1 2
5095 1 2.8625 -3.31864 0.02 0 0 0 1 2
4899 1 2.76184 -1.53732 0.02 0 0 0 1 2
4901 1 2.7687 -1.73756 0.02 0 0 0 1 2
4850 1 2.65314 -0.094678 0.02 0 0 0 1 2
4852 1 2.67388 -0.295322 0.02 0 0 0 1 2
4951 1 2.32751 -2.7013 0.02 0 0 0 1 2
4953 1 2.31563 -2.9059 0.02 0 0 0 1 2
4954 1 2.11798 -2.89186 0.02 0 0 0 1 2
4952 1 2.12794 -2.69006 0.02 0 0 0 1 2
4950 1 2.51196 -2.90797 0.02 0 0 0 1 2
4949 1 2.5244 -2.70335 0.02 0 0 0 1 2
4948 1 2.70319 -2.93583 0.02 0 0 0 1 2
4947 1 2.71766 -2.7223 0.02 0 0 0 1 2
4946 1 2.89619 -2.9109 0.02 0 0 0 1 2
4882 1 2.47272 -0.927203 0.02 0 0 0 1 2
4903 1 2.34151 -1.4917 0.02 0 0 0 1 2
4945 1 2.91507 -2.71423 0.02 0 0 0 1 2
4857 1 2.06582 -0.329982 0.02 0 0 0 1 2
4854 1 2.26873 -0.102094 0.02 0 0 0 1 2
4938 1 2.0548 -2.27668 0.02 0 0 0 1 2
4940 1 2.28772 -2.49402 0.02 0 0 0 1 2
4937 1 2.24734 -2.27951 0.02 0 0 0 1 2
4939 1 2.0952 -2.48392 0.02 0 0 0 1 2
4934 1 2.68741 -2.51435 0.02 0 0 0 1 2
4933 1 2.64118 -2.31522 0.02 0 0 0 1 2
4935 1 2.48548 -2.50191 0.02 0 0 0 1 2
4936 1 2.44076 -2.30053 0.02 0 0 0 1 2
4932 1 2.84757 -2.32364 0.02 0 0 0 1 2
4931 1 2.88769 -2.51716 0.02 0 0 0 1 2
4905 1 2.36619 -1.68959 0.02 0 0 0 1 2
4898 1 2.50843 -1.32959 0.02 0 0 0 1 2
4856 1 2.27504 -0.308611 0.02 0 0 0 1 2
4855 1 2.07229 -0.141758 0.02 0 0 0 1 2
4865 1 2.88344 -0.757755 0.02 0 0 0 1 2
4923 1 2.0293 -2.07675 0.02 0 0 0 1 2
4921 1 2.01955 -1.87308 0.02 0 0 0 1 2
4922 1 2.23365 -2.07103 0.02 0 0 0 1 2
4920 1 2.21674 -1.86633 0.02 0 0 0 1 2
4917 1 2.64288 -2.11789 0.02 0 0 0 1 2
4916 1 2.61829 -1.92107 0.02 0 0 0 1 2
4919 1 2.43726 -2.09908 0.02 0 0 0 1 2
4843 1 2.27162 0.336851 0.02 0 0 0 1 2
4845 1 2.27101 0.118798 0.02 0 0 0 1 2
4844 1 2.09078 0.0560054 0.02 0 0 0 1 2
4842 1 2.09147 0.270665 0.02 0 0 0 1 2
4846 1 2.64223 0.107583 0.02 0 0 0 1 2
4848 1 2.64669 0.312641 0.02 0 0 0 1 2
4847 1 2.45917 0.320533 0.02 0 0 0 1 2
4849 1 2.45483 0.105539 0.02 0 0 0 1 2
4851 1 2.83107 0.116355 0.02 0 0 0 1 2
4850 1 2.8325 0.337272 0.02 0 0 0 1 2
180 2 2.2 8 0 0 0 0 1 5
181 2 2.4 8 0 0 0 0 1 5
420 2 2.6 9.4 0 0 0 0 1 5
421 2 2.8 9.4 0 0 0 0 1 5
4860 1 2.00926 0.705152 0.02 0 0 0 1 2
4859 1 2.25477 0.544272 0.02 0 0 0 1 2
4858 1 2.07184 0.488378 0.02 0 0 0 1 2
4861 1 2.19386 0.743507 0.02 0 0 0 1 2
4864 1 2.64547 0.523799 0.02 0 0 0 1 2
4865 1 2.58859 0.730074 0.02 0 0 0 1 2
4863 1 2.45214 0.528996 0.02 0 0 0 1 2
4862 1 2.39076 0.728702 0.02 0 0 0 1 2
4866 1 2.78505 0.744519 0.02 0 0 0 1 2
213 2 2 8.2 0 0 0 0 1 5
214 2 2.2 8.2 0 0 0 0 1 5
4867 1 2.83594 0.547152 0.02 0 0 0 1 2
387 2 2.8 9.2 0 0 0 0 1 5
386 2 2.6 9.2 0 0 0 0 1 5
4874 1 2.20264 0.941402 0.02 0 0 0 1 2
4875 1 2.18054 1.13505 0.02 0 0 0 1 2
4878 1 2.6125 0.935026 0.02 0 0 0 1 2
4879 1 2.59218 1.13418 0.02 0 0 0 1 2
4876 1 2.41061 0.925911 0.02 0 0 0 1 2
4877 1 2.38814 1.12143 0.02 0 0 0 1 2
4881 1 2.79863 1.13869 0.02 0 0 0 1 2
4880 1 2.81181 0.942347 0.02 0 0 0 1 2
215 2 2.4 8.2 0 0 0 0 1 5
149 2 2.8 7.8 0 0 0 0 1 5
419 2 2.4 9.4 0 0 0 0 1 5
385 2 2.4 9.2 0 0 0 0 1 5
417 2 2 9.4 0 0 0 0 1 5
4893 1 2.31645 1.51418 0.02 0 0 0 1 2
4894 1 2.30696 1.71282 0.02 0 0 0 1 2
4891 1 2.11427 1.52478 0.02 0 0 0 1 2
4892 1 2.10411 1.72167 0.02 0 0 0 1 2
4890 1 2.13653 1.32777 0.02 0 0 0 1 2
4896 1 2.54647 1.32832 0.02 0 0 0 1 2
4897 1 2.52111 1.52127 0.02 0 0 0 1 2
4898 1 2.51039 1.71271 0.02 0 0 0 1 2
4895 1 2.34364 1.31688 0.02 0 0 0 1 2
4899 1 2.71319 1.72513 0.02 0 0 0 1 2
4900 1 2.74934 1.33266 0.02 0 0 0 1 2
4901 1 2.72892 1.52876 0.02 0 0 0 1 2
4903 1 2.93895 1.50616 0.02 0 0 0 1 2
4902 1 2.95805 1.31601 0.02 0 0 0 1 2
4904 1 2.91521 1.69926 0.02 0 0 0 1 2
353 2 2.8 9 0 0 0 0 1 5
352 2 2.6 9 0 0 0 0 1 5
4911 1 2.28225 1.90792 0.02 0 0 0 1 2
4912 1 2.28954 2.10177 0.02 0 0 0 1 2
4909 1 2.07086 1.91195 0.02 0 0 0 1 2
4910 1 2.08281 2.10066 0.02 0 0 0 1 2
4916 1 2.68765 2.11413 0.02 0 0 0 1 2
4914 1 2.48821 2.09299 0.02 0 0 0 1 2
4913 1 2.49392 1.90235 0.02 0 0 0 1 2
4915 1 2.70326 1.92009 0.02 0 0 0 1 2
248 2 2.2 8.4 0 0 0 0 1 5
4918 1 2.89062 2.09454 0.02 0 0 0 1 2
4917 1 2.90829 1.89614 0.02 0 0 0 1 2
319 2 2.8 8.8 0 0 0 0 1 5
489 2 2.8 9.8 0 0 0 0 1 5
4923 1 2.02367 2.27614 0.02 0 0 0 1 2
4924 1 2.03124 2.4548 0.02 0 0 0 1 2
4926 1 2.26337 2.46684 0.02 0 0 0 1 2
4925 1 2.24983 2.28563 0.02 0 0 0 1 2
4930 1 2.68156 2.48427 0.02 0 0 0 1 2
4927 1 2.48577 2.28195 0.02 0 0 0 1 2
4928 1 2.46701 2.46409 0.02 0 0 0 1 2
4929 1 2.71084 2.30172 0.02 0 0 0 1 2
4932 1 2.91332 2.48033 0.02 0 0 0 1 2
4931 1 2.91994 2.28888 0.02 0 0 0 1 2
318 2 2.6 8.8 0 0 0 0 1 5
351 2 2.4 9 0 0 0 0 1 5
4937 1 1.99967 2.63076 0.02 0 0 0 1 2
4939 1 2.03753 2.80986 0.02 0 0 0 1 2
4941 1 2.28366 2.80866 0.02 0 0 0 1 2
4938 1 2.22106 2.63956 0.02 0 0 0 1 2
4940 1 2.13196 2.97258 0.02 0 0 0 1 2
4945 1 2.55586 2.99621 0.02 0 0 0 1 2
4943 1 2.49678 2.64036 0.02 0 0 0 1 2
4944 1 2.49284 2.8171 0.02 0 0 0 1 2
4942 1 2.3418 2.99988 0.02 0 0 0 1 2
4948 1 2.76695 3.01138 0.02 0 0 0 1 2
4947 1 2.75254 2.65315 0.02 0 0 0 1 2
4946 1 2.71566 2.82876 0.02 0 0 0 1 2
148 2 2.6 7.8 0 0 0 0 1 5
4950 1 2.95394 2.85047 0.02 0 0 0 1 2
114 2 2.6 7.6 0 0 0 0 1 5
315 2 2 8.8 0 0 0 0 1 5
316 2 2.2 8.8 0 0 0 0 1 5
383 2 2 9.2 0 0 0 0 1 5
4959 1 2.18262 3.35953 0.02 0 0 0 1 2
4958 1 2.14451 3.16345 0.02 0 0 0 1 2
4963 1 2.58767 3.38149 0.02 0 0 0 1 2
4962 1 2.55132 3.18701 0.02 0 0 0 1 2
4960 1 2.34949 3.19806 0.02 0 0 0 1 2
4961 1 2.38779 3.39618 0.02 0 0 0 1 2
4965 1 2.79102 3.39844 0.02 0 0 0 1 2
4964 1 2.76034 3.20444 0.02 0 0 0 1 2
81 2 2.8 7.4 0 0 0 0 0.997811 5
115 2 2.8 7.6 0 0 0 0 1 5
418 2 2.2 9.4 0 0 0 0 1 5
384 2 2.2 9.2 0 0 0 0 1 5
4972 1 2.01859 3.55811 0.02 0 0 0 1 2
4974 1 2.0717 3.7432 0.02 0 0 0 1 2
4975 1 2.28167 3.75439 0.02 0 0 0 1 2
4973 1 2.22667 3.55836 0.02 0 0 0 1 2
4977 1 2.64013 3.57987 0.02 0 0 0 1 2
4978 1 2.49728 3.77943 0.02 0 0 0 1 2
4976 1 2.43705 3.59067 0.02 0 0 0 1 2
4979 1 2.70614 3.7745 0.02 0 0 0 1 2
183 2 2.8 8 0 0 0 0 1 5
4980 1 2.84727 3.59397 0.02 0 0 0 1 2
4982 1 2.91568 3.78488 0.02 0 0 0 1 2
317 2 2.4 8.8 0 0 0 0 1 5
488 2 2.6 9.8 0 0 0 0 1 5
4989 1 2.12382 4.13251 0.02 0 0 0 1 2
4988 1 2.2925 3.95088 0.02 0 0 0 1 2
4990 1 2.32345 4.15098 0.02 0 0 0 1 2
4987 1 2.08975 3.93519 0.02 0 0 0 1 2
4991 1 2.15339 4.33685 0.02 0 0 0 1 2
4994 1 2.52935 4.16123 0.02 0 0 0 1 2
4992 1 2.49698 3.97068 0.02 0 0 0 1 2
4995 1 2.73496 4.17176 0.02 0 0 0 1 2
4993 1 2.70385 3.9719 0.02 0 0 0 1 2
4998 1 2.9385 4.17466 0.02 0 0 0 1 2
4996 1 2.90871 3.97949 0.02 0 0 0 1 2
349 2 2 9 0 0 0 0 1 5
350 2 2.2 9 0 0 0 0 1 5
5003 1 2.18722 4.73823 0.02 0 0 0 1 2
5002 1 2.14322 4.54315 0.02 0 0 0 1 2
5011 1 2.58746 4.7499 0.02 0 0 0 1 2
5009 1 2.55378 4.55042 0.02 0 0 0 1 2
5007 1 2.54875 4.3547 0.02 0 0 0 1 2
5004 1 2.34946 4.35183 0.02 0 0 0 1 2
5005 1 2.34714 4.55067 0.02 0 0 0 1 2
5006 1 2.39104 4.7463 0.02 0 0 0 1 2
5008 1 2.74562 4.37884 0.02 0 0 0 1 2
5010 1 2.75479 4.59118 0.02 0 0 0 1 2
5014 1 2.94891 4.57757 0.02 0 0 0 1 2
5012 1 2.94127 4.37456 0.02 0 0 0 1 2
285 2 2.8 8.6 0 0 0 0 1 5
284 2 2.6 8.6 0 0 0 0 1 5
251 2 2.8 8.4 0 0 0 0 1 5
5020 1 2.18233 5.14001 0.02 0 0 0 1 2
5019 1 2.17994 4.93604 0.02 0 0 0 1 2
5024 1 2.57722 4.96189 0.02 0 0 0 1 2
5026 1 2.55679 5.18165 0.02 0 0 0 1 2
5021 1 2.37556 5.1407 0.02 0 0 0 1 2
5022 1 2.38093 4.94279 0.02 0 0 0 1 2
5023 1 2.7653 4.82086 0.02 0 0 0 1 2
5025 1 2.75455 5.04089 0.02 0 0 0 1 2
5027 1 2.94521 4.78906 0.02 0 0 0 1 2
5028 1 2.93927 5.01453 0.02 0 0 0 1 2
216 2 2.6 8.2 0 0 0 0 1 5
250 2 2.6 8.4 0 0 0 0 1 5
455 2 2.8 9.6 0 0 0 0 1 5
454 2 2.6 9.6 0 0 0 0 1 5
5036 1 2.11674 5.55378 0.02 0 0 0 1 2
5035 1 2.33483 5.34326 0.02 0 0 0 1 2
5037 1 2.30774 5.56701 0.02 0 0 0 1 2
5034 1 2.14895 5.35095 0.02 0 0 0 1 2
5042 1 2.68941 5.64819 0.02 0 0 0 1 2
5041 1 2.49474 5.61046 0.02 0 0 0 1 2
5039 1 2.50935 5.40353 0.02 0 0 0 1 2
5040 1 2.69642 5.45106 0.02 0 0 0 1 2
5038 1 2.72727 5.25393 0.02 0 0 0 1 2
5044 1 2.91273 5.24183 0.02 0 0 0 1 2
5045 1 2.89848 5.44829 0.02 0 0 0 1 2
5043 1 2.88709 5.64948 0.02 0 0 0 1 2
217 2 2.8 8.2 0 0 0 0 1 5
182 2 2.6 8 0 0 0 0 1 5
453 2 2.4 9.6 0 0 0 0 1 5
452 2 2.2 9.6 0 0 0 0 1 5
5052 1 2.07548 5.95702 0.02 0 0 0 1 2
5050 1 2.08914 5.75532 0.02 0 1.57592e-13 -3.70884e-13 1 2
5051 1 2.27295 5.7821 0.02 0 5.47232e-12 -1.32821e-11 1 2
5053 1 2.28316 5.98504 0.02 0 5.77391e-08 -1.71765e-07 1 2
5055 1 2.65628 5.83848 0.02 0 2.09006e-10 -6.79198e-10 1 2
5056 1 2.49103 6.0091 0.02 0 7.42206e-08 -2.28083e-07 1 2
5054 1 2.45964 5.80954 0.02 0 3.03401e-11 -9.72111e-11 1 2
5057 1 2.70203 6.02331 0.02 0 9.62616e-08 -2.59918e-07 1 2
5058 1 2.86873 5.83904 0.02 0 1.94523e-10 -6.20649e-10 1 2
5060 1 2.91132 6.0222 0.02 0 1.01486e-07 -2.65896e-07 1 2
247 2 2 8.4 0 0 0 0 1 5
179 2 2 8 0 0 0 0 1 5
487 2 2.4 9.8 0 0 0 0 1 5
486 2 2.2 9.8 0 0 0 0 1 5
5066 1 2.08528 6.34367 0.02 0 -5.65635e-08 1.13969e-08 1 2
5064 1 2.08831 6.14981 0.02 0 6.26984e-10 -4.13915e-10 1 2
5065 1 2.2926 6.17564 0.02 0 7.53637e-06 -1.42209e-05 1 2
5067 1 2.28697 6.36341 0.02 0 0.000127857 -0.000157771 1 2
5070 1 2.49141 6.38626 0.02 0 0.000140494 -0.000182002 1 2
5068 1 2.50138 6.1991 0.02 0 9.45902e-06 -1.66342e-05 1 2
5069 1 2.71462 6.20609 0.02 0 8.9743e-06 -1.6161e-05 1 2
5071 1 2.69969 6.38403 0.02 0 0.000111131 -0.000147619 1 2
5072 1 2.92005 6.20958 0.02 0 9.60818e-06 -1.66855e-05 1 2
5074 1 2.92143 6.39243 0.02 0 0.000115307 -0.000147338 1 2
283 2 2.4 8.6 0 0 0 0 1 5
282 2 2.2 8.6 0 0 0 0 1 5
451 2 2 9.6 0 0 0 0 1 5
485 2 2 9.8 0 0 0 0 1 5
5081 1 2.33625 6.73857 0.02 0 -0.00221895 0.000292593 1 2
5079 1 2.33095 6.55154 0.02 0 0.000434378 -0.000491561 1 2
5080 1 2.15161 6.73003 0.02 0 -0.00342133 0.000180672 1 2
5078 1 2.13351 6.53654 0.02 0 -0.000415244 9.38943e-05 1 2
5084 1 2.53396 6.76272 0.02 0 -0.00300065 0.000394874 1 2
5082 1 2.52962 6.57346 0.02 0 0.00021154 -0.000412003 1 2
5083 1 2.72488 6.56304 0.02 0 0.000133705 -0.000378413 1 2
5085 1 2.74228 6.74606 0.02 0 -0.00270802 0.000452429 1 2
5088 1 2.92346 6.56971 0.02 0 0.000141859 -0.00043507 1 2
5087 1 2.95223 6.745 0.02 0 -0.0028742 0.000499449 1 2
281 2 2 8.6 0 0 0 0 1 5
249 2 2.4 8.4 0 0 0 0 1 5
9 2 2 7 0 0 0 0 1.00932 5
10 2 2.2 7 0 0 0 0 1.00327 5
11 2 2.4 7 0 0 0 0 1.001 5
43 2 2 7.2 0 0 0 0 1.00907 5
44 2 2.2 7.2 0 0 0 0 1.0031 5
45 2 2.4 7.2 0 0 0 0 1.00193 5
47 2 2.8 7.2 0 0 0 0 0.999374 5
12 2 2.6 7 0 0 0 0 0.999634 5
46 2 2.6 7.2 0 0 0 0 0.999287 5
13 2 2.8 7 0 0 0 0 0.999738 5
147 2 2.4 7.8 0 0 0 0 1 5
78 2 2.2 7.4 0 0 0 0 1.00078 5
77 2 2 7.4 0 0 0 0 1.00817 5
79 2 2.4 7.4 0 0 0 0 1.00615 5
145 2 2 7.8 0 0 0 0 1 5
113 2 2.4 7.6 0 0 0 0 1 5
112 2 2.2 7.6 0 0 0 0 1 5
146 2 2.2 7.8 0 0 0 0 1 5
111 2 2 7.6 0 0 0 0 1 5
80 2 2.6 7.4 0 0 0 0 0.996437 5
1583 2 3.2 -9.6 0 0 0 0 1 5
1582 2 3 -9.6 0 0 0 0 1 5
1549 2 3.2 -9.8 0 0 0 0 1 5
1548 2 3 -9.8 0 0 0 0 1 5
1515 2 3.2 -10 0 0 0 0 1 5
1514 2 3 -10 0 0 0 0 1 5
1584 2 3.4 -9.6 0 0 0 0 1 5
1550 2 3.4 -9.8 0 0 0 0 1 5
1516 2 3.4 -10 0 0 0 0 1 5
1586 2 3.8 -9.6 0 0 0 0 1 5
1585 2 3.6 -9.6 0 0 0 0 1 5
1552 2 3.8 -9.8 0 0 0 0 1 5
1551 2 3.6 -9.8 0 0 0 0 1 5
1518 2 3.8 -10 0 0 0 0 1 5
1517 2 3.6 -10 0 0 0 0 1 5
1588 2 4.2 -9.6 0 0 0 0 1 5
1587 2 4 -9.6 0 0 0 0 1 5
1554 2 4.2 -9.8 0 0 0 0 1 5
1553 2 4 -9.8 0 0 0 0 1 5
1520 2 4.2 -10 0 0 0 0 1 5
1519 2 4 -10 0 0 0 0 1 5
1616 2 3 -9.4 0 0 0 0 1 5
1617 2 3.2 -9.4 0 0 0 0 1 5
1651 2 3.2 -9.2 0 0 0 0 1 5
1650 2 3 -9.2 0 0 0 0 1 5
1652 2 3.4 -9.2 0 0 0 0 1 5
1618 2 3.4 -9.4 0 0 0 0 1 5
1653 2 3.6 -9.2 0 0 0 0 1 5
1654 2 3.8 -9.2 0 0 0 0 1 5
1620 2 3.8 -9.4 0 0 0 0 1 5
1619 2 3.6 -9.4 0 0 0 0 1 5
1622 2 4.2 -9.4 0 0 0 0 1 5
1655 2 4 -9.2 0 0 0 0 1 5
1656 2 4.2 -9.2 0 0 0 0 1 5
1621 2 4 -9.4 0 0 0 0 1 5
1719 2 3.2 -8.8 0 0 0 0 1 5
1718 2 3 -8.8 0 0 0 0 1 5
1685 2 3.2 -9 0 0 0 0 1 5
1684 2 3 -9 0 0 0 0 1 5
1686 2 3.4 -9 0 0 0 0 1 5
1720 2 3.4 -8.8 0 0 0 0 1 5
1687 2 3.6 -9 0 0 0 0 1 5
1688 2 3.8 -9 0 0 0 0 1 5
1721 2 3.6 -8.8 0 0 0 0 1 5
1722 2 3.8 -8.8 0 0 0 0 1 5
1689 2 4 -9 0 0 0 0 1 5
1690 2 4.2 -9 0 0 0 0 1 5
1723 2 4 -8.8 0 0 0 0 1 5
1724 2 4.2 -8.8 0 0 0 0 1 5
1752 2 3 -8.6 0 0 0 0 1 5
1753 2 3.2 -8.6 0 0 0 0 1 5
1786 2 3 -8.4 0 0 0 0 1 5
1787 2 3.2 -8.4 0 0 0 0 1 5
1754 2 3.4 -8.6 0 0 0 0 1 5
1788 2 3.4 -8.4 0 0 0 0 1 5
1755 2 3.6 -8.6 0 0 0 0 1 5
1756 2 3.8 -8.6 0 0 0 0 1 5
1789 2 3.6 -8.4 0 0 0 0 1 5
1790 2 3.8 -8.4 0 0 0 0 1 5
1757 2 4 -8.6 0 0 0 0 1 5
1758 2 4.2 -8.6 0 0 0 0 1 5
1791 2 4 -8.4 0 0 0 0 1 5
1792 2 4.2 -8.4 0 0 0 0 1 5
1820 2 3 -8.2 0 0 0 0 1 5
1821 2 3.2 -8.2 0 0 0 0 1 5
1854 2 3 -8 0 0 0 0 1 5
1855 2 3.2 -8 0 0 0 0 1 5
1822 2 3.4 -8.2 0 0 0 0 1 5
1856 2 3.4 -8 0 0 0 0 1 5
1823 2 3.6 -8.2 0 0 0 0 1 5
1824 2 3.8 -8.2 0 0 0 0 1 5
1857 2 3.6 -8 0 0 0 0 1 5
1858 2 3.8 -8 0 0 0 0 1 5
1825 2 4 -8.2 0 0 0 0 1 5
1826 2 4.2 -8.2 0 0 0 0 1 5
1859 2 4 -8 0 0 0 0 1 5
1860 2 4.2 -8 0 0 0 0 1 5
1888 2 3 -7.8 0 0 0 0 1 5
1889 2 3.2 -7.8 0 0 0 0 1 5
1922 2 3 -7.6 0 0 0 0 1 5
1923 2 3.2 -7.6 0 0 0 0 1 5
1956 2 3 -7.4 0 0 0 0 0.999925 5
1957 2 3.2 -7.4 0 0 0 0 1.00101 5
1890 2 3.4 -7.8 0 0 0 0 1 5
1924 2 3.4 -7.6 0 0 0 0 1 5
1958 2 3.4 -7.4 0 0 0 0 1.0005 5
1891 2 3.6 -7.8 0 0 0 0 1 5
1892 2 3.8 -7.8 0 0 0 0 1 5
1925 2 3.6 -7.6 0 0 0 0 1 5
1926 2 3.8 -7.6 0 0 0 0 1 5
1959 2 3.6 -7.4 0 0 0 0 0.988897 5
1960 2 3.8 -7.4 0 0 0 0 1.00559 5
1893 2 4 -7.8 0 0 0 0 1 5
1894 2 4.2 -7.8 0 0 0 0 1 5
1927 2 4 -7.6 0 0 0 0 1 5
1928 2 4.2 -7.6 0 0 0 0 1 5
1961 2 4 -7.4 0 0 0 0 1.00372 5
1962 2 4.2 -7.4 0 0 0 0 0.996161 5
1990 2 3 -7.2 0 0 0 0 1.00002 5
1991 2 3.2 -7.2 0 0 0 0 1.00101 5
2024 2 3 -7 0 0 0 0 0.999989 5
2025 2 3.2 -7 0 0 0 0 1.0002 5
1992 2 3.4 -7.2 0 0 0 0 0.997188 5
2026 2 3.4 -7 0 0 0 0 0.996534 5
1993 2 3.6 -7.2 0 0 0 0 0.990104 5
1994 2 3.8 -7.2 0 0 0 0 1.00709 5
2027 2 3.6 -7 0 0 0 0 0.992185 5
2028 2 3.8 -7 0 0 0 0 1.00619 5
1995 2 4 -7.2 0 0 0 0 1.0026 5
1996 2 4.2 -7.2 0 0 0 0 0.999201 5
2029 2 4 -7 0 0 0 0 1.00281 5
2030 2 4.2 -7 0 0 0 0 0.999422 5
4970 1 3.41338 -6.76076 0.02 0 -0.00236933 -0.00050597 1 2
4971 1 3.43714 -6.57482 0.02 0 0.000501964 0.000912972 1 2
4713 1 3.93594 -6.73915 0.0133215 0 -0.00131818 -0.000527431 1 2
4715 1 4.02783 -6.55076 0.016105 0 7.46516e-05 7.37489e-06 1 2
4716 1 4.20361 -6.57535 0.0166916 0 -0.000625711 0.000257158 1 2
4714 1 4.08472 -6.76661 0.0130202 0 -0.00233176 -0.000262667 1 2
4717 1 4.26875 -6.74572 0.0138822 0 -0.00262304 -0.000429371 1 2
4719 1 4.38677 -6.56407 0.0163869 0 0.000667471 0.00102401 1 2
4718 1 4.40319 -6.75043 0.0134555 0 -0.0011912 -2.73051e-05 1 2
4909 1 3.18601 -1.77807 0.02 0 0 0 1 2
4911 1 3.23962 -1.97973 0.02 0 0 0 1 2
4730 1 4.09221 -6.17071 0.0161703 0 0.000447487 3.71575e-05 1 2
4729 1 4.05859 -6.35963 0.0164594 0 -4.23291e-05 -2.73818e-05 1 2
4732 1 4.28509 -6.17475 0.0162694 0 0.000671415 -7.60824e-06 1 2
4731 1 4.25186 -6.37801 0.016265 0 0.000342492 0.000206746 1 2
4878 1 3.08472 -1.16418 0.02 0 0 0 1 2
4877 1 3.05298 -0.967041 0.02 0 0 0 1 2
4876 1 3.27914 -1.16392 0.02 0 0 0 1 2
5068 1 3.24067 -3.99372 0.02 0 0 0 1 2
4746 1 4.07861 -5.78431 0.0199177 0 -0.000136206 -1.6912e-05 1 2
4745 1 4.08715 -5.9796 0.0194321 0 -0.000806227 9.34005e-05 1 2
4747 1 4.28733 -5.97299 0.0188406 0 0.000133215 4.76789e-06 1 2
4748 1 4.27558 -5.77559 0.0199164 0 -5.48415e-05 2.77364e-05 1 2
4913 1 3.05056 -2.1438 0.02 0 0 0 1 2
4930 1 3.08652 -2.54567 0.02 0 0 0 1 2
4875 1 3.25897 -0.9547 0.02 0 0 0 1 2
4892 1 3.3152 -1.37324 0.02 0 0 0 1 2
5017 1 3.42206 -5.59358 0.02 0 -8.62058e-08 1.46761e-08 1 2
5018 1 3.4068 -5.38987 0.02 0 -3.92745e-08 -7.06687e-10 1 2
4762 1 4.0023 -5.39266 0.0199353 0 -3.51603e-06 -1.93387e-06 1 2
4761 1 4.0255 -5.58762 0.0199085 0 -3.02494e-06 -2.024e-06 1 2
4763 1 4.20922 -5.39695 0.0199335 0 7.93058e-06 3.2907e-06 1 2
4764 1 4.23121 -5.58573 0.0199237 0 9.15915e-06 2.45851e-05 1 2
4928 1 3.05639 -2.3414 0.02 0 0 0 1 2
4767 1 4.41945 -5.39695 0.0199516 0 -2.31747e-06 1.00536e-05 1 2
5050 1 3.21023 -4.59884 0.02 0 0 0 1 2
4861 1 3.27413 -0.741933 0.02 0 0 0 1 2
5034 1 3.38917 -5.19128 0.02 0 -1.17436e-09 3.41561e-11 1 2
5036 1 3.39563 -4.80654 0.02 0 -6.77341e-11 5.71901e-12 1 2
5035 1 3.35434 -4.99634 0.02 0 0 0 1 2
4778 1 4.04851 -4.83834 0.0199968 0 -1.13326e-06 -3.07858e-07 1 2
4780 1 4.27138 -4.85148 0.0199979 0 -6.47357e-07 5.15696e-07 1 2
4777 1 4.20581 -5.20967 0.0199569 0 3.4792e-06 7.31734e-07 1 2
4779 1 4.22812 -5.02856 0.0199941 0 -3.67667e-06 -4.06702e-07 1 2
4944 1 3.08776 -2.95758 0.02 0 0 0 1 2
5099 1 3.08023 -3.16288 0.02 0 0 0 1 2
4781 1 4.42586 -5.21235 0.0199893 0 -6.15266e-06 5.63916e-07 1 2
4860 1 3.26144 -0.530511 0.02 0 0 0 1 2
4927 1 3.25988 -2.37639 0.02 0 0 0 1 2
4597 1 4.38094 -0.418584 0.02 0 -1.19595e-17 7.27508e-18 1 2
5053 1 3.41489 -4.61546 0.02 0 -2.00885e-10 1.10383e-11 1 2
5054 1 3.42357 -4.41893 0.02 0 -1.59084e-10 9.59168e-12 1 2
4794 1 4.04067 -4.65017 0.0199982 0 -1.80149e-07 -2.70902e-08 1 2
4795 1 4.045 -4.462 0.0199986 0 -8.76869e-08 -2.15005e-08 1 2
4797 1 4.27274 -4.48385 0.0199985 0 9.6337e-08 6.4597e-08 1 2
4796 1 4.24512 -4.66649 0.0199982 0 4.08447e-07 2.41045e-07 1 2
4895 1 3.16359 -1.57395 0.02 0 0 0 1 2
5097 1 3.05472 -3.36362 0.02 0 0 0 1 2
4893 1 3.11665 -1.36783 0.02 0 0 0 1 2
4929 1 3.28355 -2.57643 0.02 0 -1.37356e-18 1.68845e-18 1 2
5069 1 3.45179 -4.22092 0.02 0 -3.77582e-10 1.59676e-11 1 2
5070 1 3.43731 -4.02126 0.02 0 -2.47907e-11 1.08195e-12 1 2
4809 1 4.07105 -4.08309 0.0199993 0 -3.31255e-08 1.25773e-08 1 2
4808 1 4.06068 -4.27373 0.0199987 0 6.88349e-08 5.5274e-09 1 2
4811 1 4.28871 -4.11551 0.0199993 0 3.75086e-08 -1.4698e-08 1 2
4810 1 4.26428 -4.3006 0.0199987 0 1.05956e-07 1.16002e-08 1 2
4942 1 3.11173 -2.75416 0.02 0 0 0 1 2
5083 1 3.06099 -3.56777 0.02 0 0 0 1 2
5081 1 3.05449 -3.77151 0.02 0 0 0 1 2
4814 1 4.29739 -3.92505 0.0199999 0 -7.20032e-08 -1.39875e-09 1 2
5052 1 3.2259 -4.39955 0.02 0 0 0 1 2
4926 1 3.25386 -2.17957 0.02 0 0 0 1 2
4941 1 3.3108 -2.77688 0.02 0 0 0 1 2
5086 1 3.44947 -3.62798 0.02 0 -6.29714e-11 -1.46423e-12 1 2
5085 1 3.45991 -3.82732 0.02 0 -5.43722e-11 -1.86627e-12 1 2
4828 1 4.09796 -3.89073 0.0199999 0 -1.12781e-07 -8.18252e-09 1 2
4829 1 4.04567 -3.68365 0.0199999 0 -5.22348e-09 -2.42735e-09 1 2
4831 1 4.24849 -3.72616 0.0199999 0 1.29526e-08 1.64678e-08 1 2
4830 1 4.2245 -3.52888 0.0199999 0 6.09285e-09 4.06139e-09 1 2
4863 1 3.08115 -0.773748 0.02 0 0 0 1 2
4833 1 4.4262 -3.52264 0.02 0 -1.32337e-09 7.35875e-09 1 2
5033 1 3.18193 -4.7929 0.02 0 0 0 1 2
4943 1 3.28182 -2.97456 0.02 0 0 0 1 2
5101 1 3.44587 -3.42199 0.02 0 -5.11461e-11 -8.36876e-13 1 2
4955 1 3.45765 -3.21512 0.02 0 -1.27974e-10 -3.12628e-11 1 2
4711 1 4.03213 -3.25575 0.02 0 -3.06629e-09 -3.58461e-10 1 2
4712 1 4.03146 -3.47088 0.0199999 0 -3.40369e-09 -3.10102e-10 1 2
4708 1 4.22942 -3.13149 0.02 0 3.45084e-09 5.33543e-10 1 2
4710 1 4.22445 -3.33168 0.02 0 2.27451e-09 4.25404e-10 1 2
4707 1 4.41902 -3.1147 0.02 0 -1.54461e-09 2.0551e-12 1 2
5065 1 3.0562 -4.17813 0.02 0 0 0 1 2
5030 1 3.19201 -5.19849 0.02 0 0 0 1 2
5100 1 3.27114 -3.17954 0.02 0 0 0 1 2
4696 1 4.07046 -2.83279 0.02 0 -3.36794e-09 6.6103e-10 1 2
4697 1 4.05495 -3.0408 0.02 0 2.36784e-09 1.5808e-10 1 2
4695 1 4.05943 -2.62755 0.02 0 -2.56088e-09 -1.99491e-10 1 2
4694 1 4.24809 -2.91284 0.02 0 2.228e-09 -6.61207e-10 1 2
4690 1 4.24692 -2.68472 0.02 0 -2.16053e-09 -1.02708e-10 1 2
5067 1 3.04589 -3.97397 0.02 0 0 0 1 2
4862 1 3.07159 -0.574605 0.02 0 0 0 1 2
5014 1 3.22883 -5.61078 0.02 0 0 0 1 2
5016 1 3.21368 -5.40561 0.02 0 0 0 1 2
4925 1 3.46039 -2.40026 0.02 0 -7.38322e-12 1.88408e-12 1 2
4924 1 3.45499 -2.19767 0.02 0 -3.54423e-12 -1.02353e-13 1 2
4680 1 4.03691 -2.4215 0.02 0 -5.46744e-11 -3.26231e-11 1 2
4679 1 4.02972 -2.21217 0.02 0 -7.84372e-11 -1.26475e-11 1 2
4677 1 4.23001 -2.46414 0.02 0 3.46886e-10 3.71077e-10 1 2
4678 1 4.22098 -2.25416 0.02 0 1.32454e-10 6.04646e-11 1 2
4674 1 4.4157 -2.28702 0.02 0 9.94998e-11 1.05623e-10 1 2
4676 1 4.42174 -2.49265 0.02 0 -9.09029e-11 5.93181e-10 1 2
4845 1 3.22811 -0.131593 0.02 0 0 0 1 2
4967 1 3.21287 -6.75576 0.02 0 -0.00286919 -0.000620963 1 2
4907 1 3.38831 -1.78827 0.02 0 -4.83558e-15 -8.10155e-17 1 2
4908 1 3.4376 -1.99265 0.02 0 -2.19026e-12 -1.97346e-13 1 2
4664 1 4.01302 -2.0009 0.02 0 -3.33129e-11 -4.34713e-11 1 2
4663 1 4.20619 -2.04609 0.02 0 9.39153e-11 5.72121e-12 1 2
4662 1 4.1794 -1.83614 0.02 0 1.69433e-10 8.9368e-12 1 2
4661 1 4.40078 -2.07835 0.02 0 -3.71713e-11 8.95774e-12 1 2
5032 1 3.15626 -4.99144 0.02 0 0 0 1 2
4659 1 4.37091 -1.86398 0.02 0 -4.83031e-11 -8.00147e-12 1 2
4969 1 3.24501 -6.56034 0.02 0 0.000277965 0.000571383 1 2
4598 1 4.3597 -0.204515 0.02 0 -5.63914e-17 1.34492e-18 1 2
4599 1 4.17136 -0.196512 0.02 0 9.09913e-18 2.50949e-18 1 2
4891 1 3.35699 -1.5817 0.02 0 -1.00924e-23 -8.59482e-24 1 2
4648 1 4.13799 -1.62282 0.02 0 1.10119e-10 3.03063e-12 1 2
4647 1 4.11995 -1.41351 0.02 0 -1.66215e-10 -1.58987e-11 1 2
5098 1 3.2507 -3.38541 0.02 0 0 0 1 2
5084 1 3.2571 -3.59027 0.02 0 0 0 1 2
4644 1 4.31621 -1.43509 0.02 0 2.53662e-11 1.51694e-12 1 2
4646 1 4.32772 -1.64492 0.02 0 -1.39139e-10 2.91419e-12 1 2
5013 1 3.03655 -5.60063 0.02 0 0 0 1 2
4984 1 3.11092 -6.18342 0.02 0 5.96397e-06 1.45942e-05 1 2
4874 1 3.45833 -0.996149 0.02 0 -3.57443e-16 1.2731e-16 1 2
4630 1 4.27783 -1.23077 0.02 0 4.329e-11 2.494e-11 1 2
4628 1 4.26198 -1.02554 0.02 0 5.15831e-12 4.34629e-12 1 2
4631 1 4.0616 -1.00736 0.02 0 -1.22217e-13 -2.13973e-14 1 2
4632 1 4.08052 -1.20811 0.02 0 -1.60899e-11 -2.38145e-12 1 2
4847 1 3.05875 -0.365805 0.02 0 0 0 1 2
4998 1 3.06418 -5.80089 0.02 0 2.93454e-11 9.19689e-11 1 2
5082 1 3.25274 -3.7928 0.02 0 0 0 1 2
5066 1 3.25309 -4.1987 0.02 0 0 0 1 2
4858 1 3.44775 -0.570425 0.02 0 -8.9884e-19 -1.90474e-20 1 2
4859 1 3.45992 -0.791499 0.02 0 -4.05659e-18 2.20923e-19 1 2
4614 1 4.24372 -0.819929 0.02 0 8.91668e-14 2.62986e-13 1 2
4612 1 4.22221 -0.613201 0.02 0 9.05358e-16 2.658e-15 1 2
4616 1 4.04472 -0.808962 0.02 0 -7.21679e-17 -4.76173e-17 1 2
4615 1 4.02432 -0.609091 0.02 0 -4.69297e-17 -2.78793e-17 1 2
4996 1 3.09084 -5.99235 0.02 0 2.5959e-08 1.03124e-07 1 2
4611 1 4.41616 -0.628898 0.02 0 -4.83755e-15 6.9006e-15 1 2
4997 1 3.29577 -5.99012 0.02 0 1.662e-08 1.41653e-07 1 2