ITEM: TIMESTEP
12000
ITEM: NUMBER OF ATOMS
1393
ITEM: BOX BOUNDS ff ff pp
0.0000000000000000e+00 4.4000000000000004e+00
-1.0000000000000000e+01 1.0000000000000000e+01
-2.0000000000000000e-02 2.0000000000000000e-02
ITEM: ATOMS id type x y vx vy fx fy c_den c_phase
2658 1 0.801879 -6.75103 0.02 0 0 0 1 2
2660 1 0.807382 -6.56461 0.02 0 0 0 1 2
2659 1 0.998001 -6.76478 0.02 0 0 0 1 2
2661 1 1.00799 -6.57203 0.02 0 0 0 1 2
2662 1 1.19364 -6.72967 0.02 0 0 0 1 2
2664 1 1.21949 -6.55761 0.02 0 -4.72782e-14 -1.66409e-14 1 2
2663 1 1.39776 -6.77955 0.02 0 -1.41774e-06 -1.22436e-06 1 2
2665 1 1.41839 -6.58151 0.02 0 3.04164e-09 4.23821e-08 1 2
2604 1 1.12041 -1.4745 0.02 0 0 0 1 2
2606 1 1.08749 -1.66249 0.02 0 0 0 1 2
2575 1 1.09314 -0.744506 0.02 0 0 0 1 2
2577 1 0.882636 -0.755088 0.02 0 0 0 1 2
2674 1 0.822645 -6.37867 0.02 0 0 0 1 2
2675 1 0.828631 -6.19455 0.02 0 0 0 1 2
2676 1 1.02075 -6.38701 0.02 0 0 0 1 2
2677 1 1.05753 -6.20618 0.02 0 0 0 1 2
2678 1 1.22927 -6.38021 0.02 0 0 0 1 2
2680 1 1.27547 -6.19941 0.02 0 0 0 1 2
2679 1 1.43284 -6.38326 0.02 0 4.8397e-10 5.75093e-09 1 2
2681 1 1.47806 -6.18549 0.02 0 7.2176e-12 5.19159e-11 1 2
2603 1 1.3241 -1.44213 0.02 0 0 0 1 2
2576 1 0.852044 -0.565146 0.02 0 0 0 1 2
2553 1 1.45943 -0.0796097 0.02 0 0 0 1 2
2690 1 0.836774 -6.01156 0.02 0 0 0 1 2
2691 1 0.849411 -5.82135 0.02 0 0 0 1 2
2692 1 1.04081 -6.02146 0.02 0 0 0 1 2
2693 1 1.05668 -5.82821 0.02 0 0 0 1 2
2694 1 1.24489 -6.01249 0.02 0 0 0 1 2
2696 1 1.2685 -5.82207 0.02 0 0 0 1 2
2695 1 1.45044 -5.99312 0.02 0 0 0 1 2
2697 1 1.48417 -5.80529 0.02 0 0 0 1 2
2607 1 0.909653 -1.47339 0.02 0 0 0 1 2
2573 1 1.05535 -0.55326 0.02 0 0 0 1 2
2705 1 0.887735 -5.62226 0.02 0 0 0 1 2
2706 1 0.903143 -5.41693 0.02 0 0 0 1 2
2707 1 1.07627 -5.62507 0.02 0 0 0 1 2
2708 1 1.09141 -5.40769 0.02 0 0 0 1 2
2709 1 1.26666 -5.62812 0.02 0 0 0 1 2
2710 1 1.27833 -5.42473 0.02 0 0 0 1 2
2711 1 1.46533 -5.61507 0.02 0 0 0 1 2
2712 1 1.47022 -5.41754 0.02 0 0 0 1 2
2608 1 0.882049 -1.6625 0.02 0 0 0 1 2
2572 1 1.2577 -0.531385 0.02 0 0 0 1 2
2720 1 0.895062 -5.21247 0.02 0 0 0 1 2
2721 1 0.901481 -5.00595 0.02 0 0 0 1 2
2722 1 0.906151 -4.79264 0.02 0 0 0 1 2
2723 1 1.08436 -5.19237 0.02 0 0 0 1 2
2724 1 1.08794 -4.97876 0.02 0 0 0 1 2
2725 1 1.27194 -5.21301 0.02 0 0 0 1 2
2726 1 1.27599 -5.00124 0.02 0 0 0 1 2
2727 1 1.2799 -4.79077 0.02 0 0 0 1 2
2728 1 1.463 -5.21522 0.02 0 0 0 1 2
2729 1 1.46512 -5.00797 0.02 0 0 0 1 2
2730 1 1.46701 -4.79197 0.02 0 0 0 1 2
2586 1 1.27241 -0.897504 0.02 0 0 0 1 2
2588 1 1.34724 -1.06708 0.02 0 0 0 1 2
2554 1 1.45734 -0.275458 0.02 0 0 0 1 2
2740 1 0.931023 -4.56671 0.02 0 0 0 1 2
2741 1 1.09152 -4.76728 0.02 0 0 0 1 2
2742 1 1.11847 -4.56208 0.02 0 0 0 1 2
2745 1 1.12538 -4.3542 0.02 0 0 0 1 2
2743 1 1.30699 -4.58159 0.02 0 0 0 1 2
2744 1 1.30834 -4.36739 0.02 0 0 0 1 2
2590 1 1.32406 -1.2545 0.02 0 0 0 1 2
2748 1 1.4914 -4.56698 0.02 0 0 0 1 2
2587 1 1.04902 -0.932889 0.02 0 0 0 1 2
2589 1 1.13498 -1.10321 0.02 0 0 0 1 2
2556 1 1.03826 -0.165014 0.02 0 0 0 1 2
2756 1 0.945979 -4.33566 0.02 0 0 0 1 2
2757 1 0.933517 -4.11035 0.02 0 0 0 1 2
2758 1 1.1193 -4.14028 0.02 0 0 0 1 2
2761 1 1.12337 -3.93002 0.02 0 0 0 1 2
2759 1 1.30752 -4.15041 0.02 0 0 0 1 2
2760 1 1.31997 -3.93899 0.02 0 0 0 1 2
2763 1 1.48857 -4.3411 0.02 0 0 0 1 2
2617 1 1.37221 -1.8133 0.02 0 0 0 1 2
2591 1 1.10252 -1.28735 0.02 0 0 0 1 2
2559 1 0.825508 -0.183937 0.02 0 0 0 1 2
2555 1 1.25118 -0.150124 0.02 0 0 0 1 2
2773 1 0.92661 -3.90146 0.02 0 0 0 1 2
2774 1 0.962327 -3.70395 0.02 0 0 0 1 2
2775 1 0.944324 -3.50919 0.02 0 0 0 1 2
2776 1 1.16267 -3.72787 0.02 0 0 0 1 2
2777 1 1.15121 -3.52483 0.02 0 0 0 1 2
2779 1 1.35368 -3.52944 0.02 0 0 0 1 2
2778 1 1.36004 -3.73352 0.02 0 0 0 1 2
2558 1 1.04088 -0.358137 0.02 0 0 0 1 2
2618 1 1.15434 -1.83786 0.02 0 0 0 1 2
2560 1 0.832031 -0.374342 0.02 0 0 0 1 2
2571 1 1.46034 -0.469058 0.02 0 0 0 1 2
2788 1 0.90401 -3.32091 0.02 0 0 0 1 2
2789 1 0.880387 -3.13344 0.02 0 0 0 1 2
2790 1 1.11727 -3.32802 0.02 0 0 0 1 2
2791 1 1.09398 -3.13712 0.02 0 0 0 1 2
2792 1 1.32373 -3.32974 0.02 0 0 0 1 2
2793 1 1.30581 -3.13265 0.02 0 0 0 1 2
2620 1 1.12354 -2.0199 0.02 0 0 0 1 2
2621 1 0.925931 -1.84793 0.02 0 0 0 1 2
2622 1 0.914324 -2.03422 0.02 0 0 0 1 2
2593 1 0.905178 -1.10874 0.02 0 0 0 1 2
2656 1 0.85828 -2.75815 0.02 0 0 0 1 2
2652 1 1.27313 -2.74438 0.02 0 0 0 1 2
2654 1 1.06818 -2.76179 0.02 0 0 0 1 2
2655 1 1.09896 -2.94882 0.02 0 0 0 1 2
2657 1 0.884477 -2.94538 0.02 0 0 0 1 2
2653 1 1.30959 -2.93779 0.02 0 0 0 1 2
2594 1 0.885124 -1.28906 0.02 0 0 0 1 2
2592 1 0.825847 -0.938433 0.02 0 0 0 1 2
2650 1 1.47565 -2.74972 0.02 0 0 0 1 2
2619 1 1.34069 -1.99759 0.02 0 0 0 1 2
2643 1 0.855026 -2.57124 0.02 0 0 0 1 2
2637 1 1.15424 -2.20027 0.02 0 0 0 1 2
2638 1 1.21666 -2.37455 0.02 0 0 0 1 2
2640 1 1.07556 -2.57231 0.02 0 0 0 1 2
2641 1 0.998472 -2.39668 0.02 0 0 0 1 2
2642 1 0.934273 -2.22121 0.02 0 0 0 1 2
2639 1 1.28939 -2.55211 0.02 0 0 0 1 2
2605 1 1.30052 -1.63365 0.02 0 0 0 1 2
2574 1 1.30615 -0.714121 0.02 0 0 0 1 2
2557 1 1.25075 -0.340669 0.02 0 0 0 1 2
2636 1 1.37796 -2.1794 0.02 0 0 0 1 2
2635 1 1.43091 -2.36322 0.02 0 0 0 1 2
2546 1 0.83008 0.00784958 0.02 0 0 0 1 2
2547 1 0.826542 0.20342 0.02 0 0 0 1 2
2548 1 0.809028 0.400532 0.02 0 0 0 1 2
2549 1 1.01219 0.420223 0.02 0 0 0 1 2
2550 1 1.03646 0.0290292 0.02 0 0 0 1 2
2551 1 1.24326 0.0421228 0.02 0 0 0 1 2
2552 1 1.03035 0.22482 0.02 0 0 0 1 2
2553 1 1.23332 0.24089 0.02 0 0 0 1 2
2554 1 1.44246 0.115019 0.02 0 0 0 1 2
2555 1 1.43066 0.311885 0.02 0 0 0 1 2
2757 1 1.14316 5.66704 0.02 0 0 0 1 2
2758 1 1.15205 5.85877 0.02 0 0 0 1 2
2564 1 0.977134 0.61472 0.02 0 0 0 1 2
2565 1 0.963039 0.81746 0.02 0 0 0 1 2
2566 1 1.21097 0.443733 0.02 0 0 0 1 2
2567 1 1.17558 0.64725 0.02 0 0 0 1 2
2568 1 1.15175 0.853684 0.02 0 0 0 1 2
2569 1 1.40138 0.507445 0.02 0 0 0 1 2
2570 1 1.36893 0.70355 0.02 0 0 0 1 2
2756 1 0.946456 6.03867 0.02 0 0 0 1 2
2761 1 1.36065 6.01458 0.02 0 0 0 1 2
2788 1 1.35141 6.55907 0.02 0 -5.85184e-11 2.45022e-11 1 2
2785 1 0.801268 6.77591 0.02 0 0 0 1 2
2579 1 0.854171 1.23142 0.02 0 0 0 1 2
2580 1 0.920923 1.02477 0.02 0 0 0 1 2
2581 1 1.11091 1.05738 0.02 0 0 0 1 2
2583 1 1.04682 1.25293 0.02 0 0 0 1 2
2585 1 1.24198 1.29651 0.02 0 0 0 1 2
2582 1 1.30076 1.10144 0.02 0 0 0 1 2
2584 1 1.34099 0.902173 0.02 0 0 0 1 2
2586 1 1.45254 1.2933 0.02 0 0 0 1 2
2728 1 1.12871 5.05475 0.02 0 0 0 1 2
2726 1 1.13181 4.84638 0.02 0 0 0 1 2
2725 1 0.942758 4.89028 0.02 0 0 0 1 2
2760 1 1.15374 6.04612 0.02 0 0 0 1 2
2595 1 0.823865 1.44734 0.02 0 0 0 1 2
2596 1 0.8001 1.6641 0.02 0 0 0 1 2
2597 1 1.01427 1.45538 0.02 0 0 0 1 2
2598 1 0.991525 1.66266 0.02 0 0 0 1 2
2599 1 1.2051 1.49772 0.02 0 0 0 1 2
2600 1 1.18579 1.7002 0.02 0 0 0 1 2
2601 1 1.3873 1.67923 0.02 0 0 0 1 2
2602 1 1.40792 1.48293 0.02 0 0 0 1 2
2759 1 1.35182 5.82122 0.02 0 0 0 1 2
2724 1 0.931105 5.09763 0.02 0 0 0 1 2
2739 1 0.952248 5.4855 0.02 0 0 0 1 2
2740 1 0.947461 5.29293 0.02 0 0 0 1 2
2612 1 0.806569 1.88342 0.02 0 0 0 1 2
2613 1 0.851909 2.12947 0.02 0 0 0 1 2
2614 1 0.991297 1.87355 0.02 0 0 0 1 2
2615 1 1.18521 1.90348 0.02 0 0 0 1 2
2616 1 1.02776 2.08216 0.02 0 0 0 1 2
2617 1 1.21657 2.11354 0.02 0 0 0 1 2
2618 1 1.38559 1.87619 0.02 0 0 0 1 2
2619 1 1.40293 2.07661 0.02 0 0 0 1 2
2741 1 1.14787 5.26002 0.02 0 0 0 1 2
2743 1 1.15114 5.46734 0.02 0 0 0 1 2
2727 1 1.33029 4.83495 0.02 0 0 0 1 2
2790 1 1.39226 6.73942 0.02 0 -1.8717e-07 8.72099e-08 1 2
2629 1 0.896483 2.38837 0.02 0 0 0 1 2
2630 1 1.05703 2.29507 0.02 0 0 0 1 2
2631 1 1.06903 2.53955 0.02 0 0 0 1 2
2632 1 1.23996 2.33175 0.02 0 0 0 1 2
2633 1 1.24299 2.54629 0.02 0 0 0 1 2
2634 1 1.42037 2.28862 0.02 0 0 0 1 2
2635 1 1.42149 2.51709 0.02 0 0 0 1 2
2742 1 1.34764 5.22476 0.02 0 0 0 1 2
2744 1 1.34522 5.42278 0.02 0 0 0 1 2
2729 1 1.32968 5.03095 0.02 0 0 0 1 2
2784 1 0.950558 6.55864 0.02 0 0 0 1 2
2644 1 0.907145 2.61673 0.02 0 0 0 1 2
2645 1 0.951822 2.80835 0.02 0 0 0 1 2
2646 1 1.00009 3.01271 0.02 0 0 0 1 2
2647 1 1.12986 2.80179 0.02 0 0 0 1 2
2648 1 1.18253 3.02991 0.02 0 0 0 1 2
2649 1 1.29674 2.74907 0.02 0 0 0 1 2
2650 1 1.35084 2.96908 0.02 0 0 0 1 2
2651 1 1.47643 2.73941 0.02 0 0 0 1 2
2773 1 1.3483 6.20081 0.02 0 0 0 1 2
2754 1 0.926151 5.67034 0.02 0 0 0 1 2
2755 1 0.944724 5.85482 0.02 0 0 0 1 2
2786 1 1.0006 6.73547 0.02 0 0 0 1 2
2660 1 0.817231 3.0467 0.02 0 0 0 1 2
2661 1 0.819857 3.25923 0.02 0 0 0 1 2
2662 1 0.856112 3.45817 0.02 0 0 0 1 2
2663 1 1.00614 3.22992 0.02 0 0 0 1 2
2664 1 1.19461 3.24171 0.02 0 0 0 1 2
2665 1 1.05385 3.4397 0.02 0 0 0 1 2
2666 1 1.25089 3.44286 0.02 0 0 0 1 2
2667 1 1.37663 3.20139 0.02 0 0 0 1 2
2668 1 1.44055 3.40885 0.02 0 0 0 1 2
2774 1 1.12628 6.40299 0.02 0 0 0 1 2
2745 1 1.34481 5.62374 0.02 0 0 0 1 2
2775 1 1.33905 6.37972 0.02 0 0 0 1 2
2787 1 1.15787 6.58209 0.02 0 0 0 1 2
2677 1 0.854567 3.65904 0.02 0 0 0 1 2
2678 1 0.878018 3.8584 0.02 0 0 0 1 2
2679 1 1.04831 3.64525 0.02 0 0 0 1 2
2680 1 1.2445 3.64778 0.02 0 0 0 1 2
2681 1 1.08347 3.84484 0.02 0 0 0 1 2
2682 1 1.29021 3.84482 0.02 0 0 0 1 2
2683 1 1.44013 3.61791 0.02 0 0 0 1 2
2772 1 1.12777 6.22473 0.02 0 0 0 1 2
2685 1 1.48862 3.81358 0.02 0 0 0 1 2
2712 1 1.36739 4.43731 0.02 0 0 0 1 2
2789 1 1.20003 6.77117 0.02 0 -1.18875e-15 1.8769e-15 1 2
2693 1 0.928164 4.0541 0.02 0 0 0 1 2
2694 1 0.908691 4.26103 0.02 0 0 0 1 2
2695 1 1.12596 4.04207 0.02 0 0 0 1 2
2697 1 1.10309 4.2461 0.02 0 0 0 1 2
2696 1 1.32184 4.04592 0.02 0 0 0 1 2
2698 1 1.30361 4.24647 0.02 0 0 0 1 2
2711 1 1.32697 4.63595 0.02 0 0 0 1 2
2770 1 0.889683 6.20677 0.02 0 0 0 1 2
2710 1 1.1255 4.64373 0.02 0 0 0 1 2
2771 1 0.917552 6.38119 0.02 0 0 0 1 2
2707 1 0.929698 4.67827 0.02 0 0 0 1 2
2708 1 0.962026 4.46434 0.02 0 0 0 1 2
2709 1 1.16274 4.44368 0.02 0 0 0 1 2
1509 2 2 -10 0 0 0 0 1 5
1510 2 2.2 -10 0 0 0 0 1 5
1511 2 2.4 -10 0 0 0 0 1 5
1543 2 2 -9.8 0 0 0 0 1 5
1544 2 2.2 -9.8 0 0 0 0 1 5
1545 2 2.4 -9.8 0 0 0 0 1 5
1577 2 2 -9.6 0 0 0 0 1 5
1578 2 2.2 -9.6 0 0 0 0 1 5
1579 2 2.4 -9.6 0 0 0 0 1 5
1512 2 2.6 -10 0 0 0 0 1 5
1513 2 2.8 -10 0 0 0 0 1 5
1546 2 2.6 -9.8 0 0 0 0 1 5
1547 2 2.8 -9.8 0 0 0 0 1 5
1580 2 2.6 -9.6 0 0 0 0 1 5
1581 2 2.8 -9.6 0 0 0 0 1 5
1645 2 2 -9.2 0 0 0 0 1 5
1646 2 2.2 -9.2 0 0 0 0 1 5
1647 2 2.4 -9.2 0 0 0 0 1 5
1613 2 2.4 -9.4 0 0 0 0 1 5
1612 2 2.2 -9.4 0 0 0 0 1 5
1611 2 2 -9.4 0 0 0 0 1 5
1648 2 2.6 -9.2 0 0 0 0 1 5
1649 2 2.8 -9.2 0 0 0 0 1 5
1615 2 2.8 -9.4 0 0 0 0 1 5
1614 2 2.6 -9.4 0 0 0 0 1 5
1679 2 2 -9 0 0 0 0 1 5
1680 2 2.2 -9 0 0 0 0 1 5
1681 2 2.4 -9 0 0 0 0 1 5
1713 2 2 -8.8 0 0 0 0 1 5
1714 2 2.2 -8.8 0 0 0 0 1 5
1715 2 2.4 -8.8 0 0 0 0 1 5
1682 2 2.6 -9 0 0 0 0 1 5
1683 2 2.8 -9 0 0 0 0 1 5
1716 2 2.6 -8.8 0 0 0 0 1 5
1717 2 2.8 -8.8 0 0 0 0 1 5
1783 2 2.4 -8.4 0 0 0 0 1 5
1782 2 2.2 -8.4 0 0 0 0 1 5
1781 2 2 -8.4 0 0 0 0 1 5
1747 2 2 -8.6 0 0 0 0 1 5
1748 2 2.2 -8.6 0 0 0 0 1 5
1749 2 2.4 -8.6 0 0 0 0 1 5
1785 2 2.8 -8.4 0 0 0 0 1 5
1784 2 2.6 -8.4 0 0 0 0 1 5
1750 2 2.6 -8.6 0 0 0 0 1 5
1751 2 2.8 -8.6 0 0 0 0 1 5
1851 2 2.4 -8 0 0 0 0 1 5
1850 2 2.2 -8 0 0 0 0 1 5
1849 2 2 -8 0 0 0 0 1 5
1817 2 2.4 -8.2 0 0 0 0 1 5
1816 2 2.2 -8.2 0 0 0 0 1 5
1815 2 2 -8.2 0 0 0 0 1 5
1853 2 2.8 -8 0 0 0 0 1 5
1852 2 2.6 -8 0 0 0 0 1 5
1819 2 2.8 -8.2 0 0 0 0 1 5
1818 2 2.6 -8.2 0 0 0 0 1 5
1953 2 2.4 -7.4 0 0 0 0 0.98923 5
1952 2 2.2 -7.4 0 0 0 0 0.998654 5
1951 2 2 -7.4 0 0 0 0 1.00108 5
1919 2 2.4 -7.6 0 0 0 0 1 5
1918 2 2.2 -7.6 0 0 0 0 1 5
1917 2 2 -7.6 0 0 0 0 1 5
1885 2 2.4 -7.8 0 0 0 0 1 5
1884 2 2.2 -7.8 0 0 0 0 1 5
1883 2 2 -7.8 0 0 0 0 1 5
1955 2 2.8 -7.4 0 0 0 0 1.00113 5
1954 2 2.6 -7.4 0 0 0 0 1.01274 5
1921 2 2.8 -7.6 0 0 0 0 1 5
1920 2 2.6 -7.6 0 0 0 0 1 5
1887 2 2.8 -7.8 0 0 0 0 1 5
1886 2 2.6 -7.8 0 0 0 0 1 5
2021 2 2.4 -7 0 0 0 0 0.989517 5
2020 2 2.2 -7 0 0 0 0 0.995581 5
2019 2 2 -7 0 0 0 0 1.00151 5
1987 2 2.4 -7.2 0 0 0 0 0.988715 5
1986 2 2.2 -7.2 0 0 0 0 0.995587 5
1985 2 2 -7.2 0 0 0 0 1.00186 5
2023 2 2.8 -7 0 0 0 0 1.00451 5
2022 2 2.6 -7 0 0 0 0 1.00843 5
1989 2 2.8 -7.2 0 0 0 0 1.00399 5
1988 2 2.6 -7.2 0 0 0 0 1.01054 5
2672 1 2.01327 -6.56871 0.02 0 3.62164e-05 0.000269991 1 2
2670 1 2.0136 -6.7694 0.02 0 -0.00373624 -0.000677354 1 2
2671 1 2.22513 -6.75794 0.02 0 -0.00200046 -0.000300792 1 2
2673 1 2.20244 -6.57403 0.02 0 0.000355396 0.000535838 1 2
2401 1 2.81881 -6.75534 0.02 0 -0.00276618 -0.000330948 1 2
2614 1 1.58725 -1.82671 0.02 0 0 0 1 2
2633 1 1.70488 -2.5705 0.02 0 0 0 1 2
2400 1 2.8458 -6.58047 0.02 0 -0.000244183 9.51575e-05 1 2
2613 1 1.80184 -1.82556 0.02 0 0 0 1 2
2301 1 2.86582 -0.329982 0.02 0 0 0 1 2
2686 1 2.01983 -6.37339 0.02 0 4.98762e-05 8.8682e-05 1 2
2689 1 2.24995 -6.19007 0.02 0 3.86496e-06 2.53719e-05 1 2
2687 1 2.22738 -6.38819 0.02 0 9.34392e-05 0.00020178 1 2
2688 1 2.06381 -6.18031 0.02 0 2.46552e-06 9.89668e-06 1 2
2685 1 1.87049 -6.16162 0.02 0 2.90168e-07 2.23942e-06 1 2
2632 1 1.64525 -2.37971 0.02 0 0 0 1 2
2567 1 1.69706 -0.642088 0.02 0 0 0 1 2
2417 1 2.87257 -6.4079 0.02 0 0.000141747 0.000111697 1 2
2416 1 2.86308 -6.2288 0.02 0 7.47314e-06 8.19011e-06 1 2
2648 1 1.67813 -2.76321 0.02 0 0 0 1 2
2564 1 1.66647 -0.437431 0.02 0 0 0 1 2
2704 1 2.08445 -5.7827 0.02 0 1.93576e-11 7.92255e-11 1 2
2702 1 2.06333 -5.9826 0.02 0 1.52744e-08 6.92834e-08 1 2
2703 1 2.25675 -5.96801 0.02 0 5.55007e-08 9.6923e-08 1 2
2699 1 1.86135 -5.96557 0.02 0 9.41767e-10 1.08941e-08 1 2
2701 1 1.88762 -5.7706 0.02 0 2.09322e-13 1.59743e-12 1 2
2765 1 1.684 -4.14303 0.02 0 0 0 1 2
2630 1 1.6011 -2.19311 0.02 0 0 0 1 2
2430 1 2.83864 -5.85696 0.02 0 0 0 1 2
2431 1 2.85859 -6.0486 0.02 0 8.16963e-08 1.35286e-07 1 2
2615 1 1.78408 -2.0155 0.02 0 0 0 1 2
2299 1 2.87229 -0.141758 0.02 0 0 0 1 2
2718 1 2.05093 -5.3784 0.02 0 0 0 1 2
2719 1 2.25255 -5.35989 0.02 0 0 0 1 2
2717 1 2.07557 -5.57908 0.02 0 0 0 1 2
2714 1 1.87319 -5.57637 0.02 0 0 0 1 2
2716 1 1.85451 -5.37873 0.02 0 0 0 1 2
2751 1 1.67154 -4.35647 0.02 0 0 0 1 2
2749 1 1.67781 -4.56602 0.02 0 0 0 1 2
2444 1 2.85006 -5.64953 0.02 0 0 0 1 2
2446 1 2.85136 -5.44144 0.02 0 0 0 1 2
2448 1 2.84191 -5.23262 0.02 0 0 0 1 2
2549 1 1.85393 -0.162154 0.02 0 0 0 1 2
2629 1 1.81604 -2.20415 0.02 0 0 0 1 2
2747 1 1.84375 -4.7645 0.02 0 0 0 1 2
2738 1 2.03576 -4.78802 0.02 0 0 0 1 2
2736 1 2.04222 -4.98615 0.02 0 0 0 1 2
2739 1 2.23255 -4.78313 0.02 0 0 0 1 2
2737 1 2.24388 -4.98078 0.02 0 0 0 1 2
2735 1 2.05779 -5.18093 0.02 0 0 0 1 2
2732 1 1.8536 -5.17698 0.02 0 0 0 1 2
2464 1 2.82368 -5.01823 0.02 0 0 0 1 2
2682 1 1.62577 -6.39432 0.02 0 7.16714e-08 2.2068e-06 1 2
2668 1 1.61689 -6.58016 0.02 0 -6.33143e-06 -3.94211e-07 1 2
2734 1 1.84598 -4.97307 0.02 0 0 0 1 2
2683 1 1.82216 -6.35838 0.02 0 4.8371e-06 1.28817e-05 1 2
2754 1 2.05158 -4.38169 0.02 0 0 0 1 2
2755 1 2.2495 -4.38719 0.02 0 0 0 1 2
2753 1 2.25046 -4.58362 0.02 0 0 0 1 2
2752 1 2.05727 -4.58755 0.02 0 0 0 1 2
2750 1 1.86759 -4.55533 0.02 0 0 0 1 2
2482 1 2.81371 -4.57803 0.02 0 0 0 1 2
2746 1 1.65319 -4.77382 0.02 0 0 0 1 2
2666 1 1.61903 -6.76313 0.02 0 -0.00043412 -0.000133899 1 2
2485 1 2.85398 -4.3673 0.02 0 0 0 1 2
2782 1 1.75592 -3.73377 0.02 0 0 0 1 2
2669 1 1.81931 -6.55034 0.02 0 -2.30811e-05 6.50805e-05 1 2
2550 1 1.86221 -0.358352 0.02 0 0 0 1 2
2771 1 2.26538 -4.19435 0.02 0 0 0 1 2
2772 1 2.10592 -3.97478 0.02 0 0 0 1 2
2770 1 2.06655 -4.17616 0.02 0 0 0 1 2
2762 1 1.86039 -4.34635 0.02 0 0 0 1 2
2766 1 1.8755 -4.14135 0.02 0 0 0 1 2
2769 1 1.91128 -3.94175 0.02 0 0 0 1 2
2733 1 1.65408 -4.98309 0.02 0 0 0 1 2
2731 1 1.65643 -5.19114 0.02 0 0 0 1 2
2499 1 2.87962 -4.16107 0.02 0 0 0 1 2
2501 1 2.89712 -3.95057 0.02 0 0 0 1 2
2548 1 2.0618 -0.360565 0.02 0 0 0 1 2
2547 1 2.06114 -0.151373 0.02 0 0 0 1 2
2787 1 2.15908 -3.57567 0.02 0 0 0 1 2
2786 1 2.14832 -3.77646 0.02 0 0 0 1 2
2784 1 1.95375 -3.74421 0.02 0 0 0 1 2
2785 1 1.95888 -3.54584 0.02 0 0 0 1 2
2584 1 1.73285 -1.25908 0.02 0 0 0 1 2
2582 1 1.73929 -1.05563 0.02 0 0 0 1 2
2515 1 2.92072 -3.73477 0.02 0 0 0 1 2
2516 1 2.92242 -3.51789 0.02 0 0 0 1 2
2546 1 2.25153 -0.297234 0.02 0 0 0 1 2
2715 1 1.66223 -5.39761 0.02 0 0 0 1 2
2801 1 2.14057 -3.17797 0.02 0 0 0 1 2
2799 1 1.932 -3.16312 0.02 0 0 0 1 2
2798 1 1.96444 -3.35298 0.02 0 0 0 1 2
2800 1 2.16988 -3.37646 0.02 0 0 0 1 2
2599 1 1.72908 -1.45502 0.02 0 0 0 1 2
2713 1 1.66939 -5.5998 0.02 0 0 0 1 2
2533 1 2.92568 -3.09498 0.02 0 -9.5787e-31 -3.79994e-30 1 2
2531 1 2.91446 -3.30217 0.02 0 0 0 1 2
2700 1 1.68772 -5.79812 0.02 0 0 0 1 2
2315 1 2.88983 -0.514518 0.02 0 -8.56114e-26 4.99587e-26 1 2
2644 1 2.09587 -2.77955 0.02 0 0 0 1 2
2646 1 1.94349 -2.97062 0.02 0 0 0 1 2
2645 1 2.14401 -2.9776 0.02 0 0 0 1 2
2647 1 1.88557 -2.78166 0.02 0 0 0 1 2
2601 1 1.72847 -1.64589 0.02 0 0 0 1 2
2649 1 1.73232 -2.95514 0.02 0 0 0 1 2
2398 1 2.91798 -2.89186 0.02 0 -8.51761e-30 -8.04581e-30 1 2
2396 1 2.92794 -2.69006 0.02 0 -6.69509e-25 -2.59352e-25 1 2
2317 1 2.86699 -0.695724 0.02 0 -4.58186e-24 1.83127e-24 1 2
2627 1 2.11236 -2.58029 0.02 0 0 0 1 2
2626 1 2.05883 -2.38317 0.02 0 0 0 1 2
2624 1 2.02047 -2.18617 0.02 0 0 0 1 2
2625 1 2.26347 -2.38971 0.02 0 0 0 1 2
2623 1 2.22069 -2.19044 0.02 0 0 0 1 2
2628 1 1.91138 -2.58908 0.02 0 0 0 1 2
2631 1 1.85602 -2.39606 0.02 0 0 0 1 2
2382 1 2.8548 -2.27668 0.02 0 -2.79263e-23 -6.99113e-24 1 2
2698 1 1.65784 -5.99713 0.02 0 6.8603e-11 9.60923e-10 1 2
2684 1 1.67345 -6.19539 0.02 0 4.02813e-08 3.11239e-07 1 2
2383 1 2.8952 -2.48392 0.02 0 -9.75339e-24 -2.44669e-24 1 2
2667 1 1.81907 -6.73379 0.02 0 -0.00217074 -0.000495311 1 2
2565 1 1.87858 -0.55788 0.02 0 0 0 1 2
2612 1 1.99721 -1.9925 0.02 0 0 0 1 2
2611 1 2.2052 -1.98573 0.02 0 0 0 1 2
2610 1 2.00257 -1.79509 0.02 0 0 0 1 2
2609 1 2.19667 -1.78013 0.02 0 0 0 1 2
2365 1 2.81955 -1.87308 0.02 0 -3.00644e-22 2.47181e-23 1 2
2561 1 2.26485 -0.711689 0.02 0 0 0 1 2
2562 1 2.07672 -0.567091 0.02 0 0 0 1 2
2367 1 2.8293 -2.07675 0.02 0 -5.93722e-23 -6.48921e-24 1 2
2552 1 1.67183 -0.0351019 0.02 0 0 0 1 2
2767 1 1.71367 -3.93464 0.02 0 0 0 1 2
2598 1 1.93738 -1.60677 0.02 0 0 0 1 2
2597 1 2.1433 -1.58039 0.02 0 0 0 1 2
2595 1 2.12859 -1.38132 0.02 0 0 0 1 2
2596 1 1.92977 -1.40796 0.02 0 0 0 1 2
2563 1 2.08548 -0.778283 0.02 0 0 0 1 2
2348 1 2.93326 -1.46594 0.02 0 -1.21887e-20 -7.76453e-22 1 2
2569 1 1.71129 -0.850583 0.02 0 0 0 1 2
2797 1 1.72404 -3.14724 0.02 0 0 0 1 2
2566 1 1.89333 -0.767769 0.02 0 0 0 1 2
2578 1 2.11317 -0.980999 0.02 0 0 0 1 2
2580 1 2.11706 -1.18142 0.02 0 0 0 1 2
2581 1 1.92428 -1.20028 0.02 0 0 0 1 2
2579 1 1.92072 -0.982393 0.02 0 0 0 1 2
2332 1 2.88404 -1.07209 0.02 0 -1.91174e-21 2.1798e-22 1 2
2334 1 2.90798 -1.26707 0.02 0 -7.06904e-21 8.12244e-23 1 2
2330 1 2.87797 -0.880323 0.02 0 -2.44702e-22 6.90092e-23 1 2
2796 1 1.74888 -3.33858 0.02 0 0 0 1 2
2551 1 1.65795 -0.234756 0.02 0 0 0 1 2
2783 1 1.75733 -3.53307 0.02 0 0 0 1 2
2568 1 1.50209 -0.65809 0.02 0 0 0 1 2
2602 1 1.51633 -1.64028 0.02 0 0 0 1 2
2583 1 1.54457 -1.04387 0.02 0 0 0 1 2
2585 1 1.5332 -1.24562 0.02 0 0 0 1 2
2764 1 1.49548 -4.12554 0.02 0 0 0 1 2
2616 1 1.5631 -2.01135 0.02 0 0 0 1 2
2768 1 1.51804 -3.91968 0.02 0 0 0 1 2
2780 1 1.55844 -3.71775 0.02 0 0 0 1 2
2781 1 1.55558 -3.51801 0.02 0 0 0 1 2
2794 1 1.53258 -3.32568 0.02 0 0 0 1 2
2795 1 1.51523 -3.13511 0.02 0 0 0 1 2
2570 1 1.5023 -0.853378 0.02 0 0 0 1 2
2651 1 1.52004 -2.9438 0.02 0 0 0 1 2
2600 1 1.52588 -1.44478 0.02 0 0 0 1 2
2634 1 1.49704 -2.55343 0.02 0 0 0 1 2
2563 1 2.09085 0.420778 0.02 0 0 0 1 2
2562 1 2.07379 0.235866 0.02 0 0 0 1 2
2561 1 2.10986 0.0509173 0.02 0 0 0 1 2
2558 1 1.85129 0.202356 0.02 0 0 0 1 2
2559 1 1.87282 0.387585 0.02 0 0 0 1 2
2560 1 1.90251 0.0241716 0.02 0 0 0 1 2
2686 1 1.67915 3.77574 0.02 0 0 0 1 2
2654 1 1.69805 2.88047 0.02 0 0 0 1 2
2288 1 2.89078 0.0560054 0.02 0 -1.68254e-25 -1.14961e-25 1 2
2286 1 2.89147 0.270665 0.02 0 -4.81043e-23 -1.45216e-23 1 2
489 2 2.8 9.8 0 0 0 0 1 5
488 2 2.6 9.8 0 0 0 0 1 5
2575 1 2.01401 0.590992 0.02 0 0 0 1 2
2578 1 2.21689 0.646045 0.02 0 0 0 1 2
2577 1 2.17658 0.831594 0.02 0 0 0 1 2
2576 1 1.97354 0.772484 0.02 0 0 0 1 2
2304 1 2.80926 0.705152 0.02 0 -1.29069e-22 2.93758e-23 1 2
2653 1 1.64292 2.66214 0.02 0 0 0 1 2
2302 1 2.87184 0.488378 0.02 0 -2.43972e-22 -3.0772e-23 1 2
2713 1 1.56733 4.4106 0.02 0 0 0 1 2
2687 1 1.82086 3.57214 0.02 0 0 0 1 2
455 2 2.8 9.6 0 0 0 0 1 5
2594 1 2.10503 1.1955 0.02 0 0 0 1 2
2593 1 2.14865 1.01638 0.02 0 0 0 1 2
2592 1 1.94564 0.958466 0.02 0 0 0 1 2
2591 1 1.90211 1.14393 0.02 0 0 0 1 2
2684 1 1.6303 3.56692 0.02 0 0 0 1 2
2670 1 1.62161 3.35279 0.02 0 0 0 1 2
2672 1 1.80336 3.34758 0.02 0 0 0 1 2
2655 1 1.8311 2.69538 0.02 0 0 0 1 2
2611 1 2.01836 1.72508 0.02 0 0 0 1 2
2610 1 2.0667 1.55295 0.02 0 0 0 1 2
2609 1 2.10339 1.37766 0.02 0 0 0 1 2
2606 1 1.84723 1.51302 0.02 0 0 0 1 2
2608 1 1.88581 1.33254 0.02 0 0 0 1 2
2747 1 1.74638 5.36919 0.02 0 0 0 1 2
2763 1 1.7482 5.77898 0.02 0 0 0 1 2
2335 1 2.91427 1.52478 0.02 0 -3.09147e-21 -6.78254e-22 1 2
2336 1 2.90411 1.72167 0.02 0 -6.04894e-21 -8.0299e-22 1 2
2334 1 2.93653 1.32777 0.02 0 -1.07478e-21 -3.67547e-22 1 2
2749 1 1.73556 5.57455 0.02 0 0 0 1 2
454 2 2.6 9.6 0 0 0 0 1 5
2625 1 1.9968 2.09034 0.02 0 0 0 1 2
2624 1 2.04346 1.90731 0.02 0 0 0 1 2
2628 1 2.25003 1.80044 0.02 0 0 0 1 2
2627 1 2.19797 2.16866 0.02 0 0 0 1 2
2626 1 2.24336 1.98762 0.02 0 0 0 1 2
2603 1 1.66663 1.32449 0.02 0 0 0 1 2
2590 1 1.69763 1.1398 0.02 0 0 0 1 2
2353 1 2.87086 1.91195 0.02 0 -5.22489e-21 -1.86243e-22 1 2
2354 1 2.88281 2.10066 0.02 0 -3.37177e-21 -5.81838e-23 1 2
451 2 2 9.6 0 0 0 0 1 5
487 2 2.4 9.8 0 0 0 0 1 5
2640 1 1.99148 2.28879 0.02 0 0 0 1 2
2643 1 2.17921 2.55818 0.02 0 0 0 1 2
2641 1 2.18133 2.3612 0.02 0 0 0 1 2
2642 1 1.98316 2.49675 0.02 0 0 0 1 2
2367 1 2.82367 2.27614 0.02 0 -1.69219e-21 -1.77215e-22 1 2
2368 1 2.83124 2.4548 0.02 0 -1.56127e-21 -1.23399e-23 1 2
2557 1 1.64892 0.337657 0.02 0 0 0 1 2
2556 1 1.64702 0.150107 0.02 0 0 0 1 2
486 2 2.2 9.8 0 0 0 0 1 5
485 2 2 9.8 0 0 0 0 1 5
2657 1 2.01829 2.71345 0.02 0 0 0 1 2
2659 1 2.21078 2.76365 0.02 0 0 0 1 2
2658 1 2.07122 2.93293 0.02 0 0 0 1 2
2656 1 1.8816 2.91442 0.02 0 0 0 1 2
2381 1 2.79967 2.63076 0.02 0 -5.11759e-22 9.8905e-23 1 2
2383 1 2.83753 2.80986 0.02 0 -1.9605e-22 7.75036e-23 1 2
2777 1 1.75528 6.18731 0.02 0 2.87859e-08 -1.42482e-07 1 2
2637 1 1.59732 2.45639 0.02 0 0 0 1 2
2384 1 2.93196 2.97258 0.02 0 -2.37133e-22 2.14183e-23 1 2
2765 1 1.75568 5.98486 0.02 0 1.1726e-11 -5.29806e-10 1 2
453 2 2.4 9.6 0 0 0 0 1 5
452 2 2.2 9.6 0 0 0 0 1 5
2675 1 2.12146 3.14204 0.02 0 0 0 1 2
2676 1 2.17576 3.34932 0.02 0 0 0 1 2
2674 1 1.9857 3.33398 0.02 0 0 0 1 2
2673 1 1.92482 3.12632 0.02 0 0 0 1 2
2636 1 1.6081 2.25311 0.02 0 0 0 1 2
2402 1 2.94451 3.16345 0.02 0 -3.88826e-23 -1.52083e-24 1 2
2732 1 1.74793 4.97452 0.02 0 0 0 1 2
2639 1 1.78992 2.48301 0.02 0 0 0 1 2
2689 1 2.00716 3.54855 0.02 0 0 0 1 2
2692 1 2.25582 3.75162 0.02 0 0 0 1 2
2691 1 2.20065 3.55443 0.02 0 0 0 1 2
2690 1 2.06182 3.76289 0.02 0 0 0 1 2
2688 1 1.87219 3.77951 0.02 0 0 0 1 2
2416 1 2.81859 3.55811 0.02 0 -6.53234e-24 -2.66389e-24 1 2
2418 1 2.8717 3.7432 0.02 0 -4.88872e-22 -1.33645e-22 1 2
2794 1 1.77241 6.74849 0.02 0 -0.00192974 0.000568168 1 2
2621 1 1.59647 2.05637 0.02 0 0 0 1 2
2638 1 1.79935 2.27668 0.02 0 0 0 1 2
421 2 2.8 9.4 0 0 0 0 1 5
2704 1 2.09807 3.97181 0.02 0 0 0 1 2
2706 1 2.12855 4.16938 0.02 0 0 0 1 2
2705 1 1.91795 4.17837 0.02 0 0 0 1 2
2703 1 1.90176 3.98166 0.02 0 0 0 1 2
2433 1 2.92382 4.13251 0.02 0 -6.61043e-21 4.26087e-22 1 2
2779 1 1.75796 6.38264 0.02 0 3.24602e-06 -7.5151e-06 1 2
2734 1 1.7539 5.16916 0.02 0 0 0 1 2
2431 1 2.88975 3.93519 0.02 0 -2.70456e-21 -6.09634e-23 1 2
2435 1 2.95339 4.33685 0.02 0 -4.4481e-21 1.20466e-21 1 2
420 2 2.6 9.4 0 0 0 0 1 5
2722 1 1.9294 4.76933 0.02 0 0 0 1 2
2723 1 2.1356 4.75688 0.02 0 0 0 1 2
2721 1 2.14183 4.56173 0.02 0 0 0 1 2
2720 1 1.93892 4.57285 0.02 0 0 0 1 2
2718 1 1.96679 4.37209 0.02 0 0 0 1 2
2719 1 2.1656 4.36378 0.02 0 0 0 1 2
2620 1 1.60208 1.86922 0.02 0 0 0 1 2
2446 1 2.94322 4.54315 0.02 0 -2.14387e-22 1.00246e-22 1 2
2717 1 1.72739 4.77922 0.02 0 0 0 1 2
2716 1 1.73359 4.58199 0.02 0 0 0 1 2
2623 1 1.8255 1.88107 0.02 0 0 0 1 2
2737 1 1.9628 5.14928 0.02 0 0 0 1 2
2735 1 1.96013 4.95941 0.02 0 0 0 1 2
2738 1 2.17368 5.14235 0.02 0 0 0 1 2
2736 1 2.16947 4.94833 0.02 0 0 0 1 2
2793 1 1.57868 6.74047 0.02 0 -0.000148754 5.68066e-05 1 2
2605 1 1.59194 1.68446 0.02 0 0 0 1 2
2622 1 1.79501 2.07208 0.02 0 0 0 1 2
2607 1 1.80086 1.69305 0.02 0 0 0 1 2
2753 1 2.1206 5.54369 0.02 0 0 0 1 2
2751 1 2.14756 5.33895 0.02 0 0 0 1 2
2752 1 1.92645 5.54397 0.02 0 0 0 1 2
2750 1 1.94693 5.34307 0.02 0 0 0 1 2
2480 1 2.91674 5.55378 0.02 0 -1.51105e-22 1.10166e-22 1 2
2714 1 1.76801 4.38407 0.02 0 0 0 1 2
2702 1 1.70998 4.19141 0.02 0 0 0 1 2
2478 1 2.94895 5.35095 0.02 0 -1.84872e-21 3.41965e-22 1 2
387 2 2.8 9.2 0 0 0 0 1 5
386 2 2.6 9.2 0 0 0 0 1 5
2767 1 2.13547 5.74842 0.02 0 5.30595e-13 -3.3286e-12 1 2
2769 1 2.12315 5.95808 0.02 0 9.36949e-09 -2.7981e-08 1 2
2766 1 1.94132 5.74899 0.02 0 1.1672e-14 -3.71058e-14 1 2
2768 1 1.93948 5.95839 0.02 0 5.95046e-10 -1.72916e-09 1 2
2496 1 2.87548 5.95702 0.02 0 -5.17673e-28 7.014e-28 1 2
2494 1 2.88914 5.75532 0.02 0 1.50017e-13 -3.53057e-13 1 2
2589 1 1.73767 0.949846 0.02 0 0 0 1 2
2792 1 1.75339 6.56689 0.02 0 -3.02663e-05 -2.581e-05 1 2
419 2 2.4 9.4 0 0 0 0 1 5
385 2 2.4 9.2 0 0 0 0 1 5
2780 1 1.94465 6.17296 0.02 0 8.76617e-07 -1.7643e-06 1 2
2781 1 2.13076 6.16495 0.02 0 4.62768e-06 -1.02538e-05 1 2
2783 1 2.13318 6.37479 0.02 0 0.000144366 -0.000187501 1 2
2782 1 1.94844 6.38007 0.02 0 4.15636e-05 -7.29818e-05 1 2
2510 1 2.88528 6.34367 0.02 0 -4.6031e-08 9.12009e-09 1 2
2508 1 2.88831 6.14981 0.02 0 5.96785e-10 -3.93979e-10 1 2
2573 1 1.76876 0.757192 0.02 0 0 0 1 2
2574 1 1.80422 0.565334 0.02 0 0 0 1 2
417 2 2 9.4 0 0 0 0 1 5
418 2 2.2 9.4 0 0 0 0 1 5
2798 1 2.18013 6.76559 0.02 0 -0.00184592 0.000278302 1 2
2796 1 2.1658 6.57399 0.02 0 0.000668733 -0.000666914 1 2
2797 1 1.97196 6.75492 0.02 0 -0.0035579 0.000709777 1 2
2795 1 1.96461 6.57015 0.02 0 4.10656e-05 -0.000276743 1 2
2700 1 1.70598 3.98652 0.02 0 0 0 1 2
2671 1 1.73785 3.11445 0.02 0 0 0 1 2
2524 1 2.95161 6.73003 0.02 0 -0.00305722 0.000144403 1 2
2522 1 2.93351 6.53654 0.02 0 -0.000410812 9.21814e-05 1 2
9 2 2 7 0 0 0 0 1.00096 5
10 2 2.2 7 0 0 0 0 0.995006 5
11 2 2.4 7 0 0 0 0 0.985946 5
43 2 2 7.2 0 0 0 0 1.00148 5
44 2 2.2 7.2 0 0 0 0 0.995773 5
45 2 2.4 7.2 0 0 0 0 0.985905 5
12 2 2.6 7 0 0 0 0 1.00438 5
13 2 2.8 7 0 0 0 0 1.0091 5
46 2 2.6 7.2 0 0 0 0 1.00463 5
47 2 2.8 7.2 0 0 0 0 1.00882 5
79 2 2.4 7.4 0 0 0 0 0.986048 5
78 2 2.2 7.4 0 0 0 0 0.998727 5
77 2 2 7.4 0 0 0 0 1.00051 5
111 2 2 7.6 0 0 0 0 1 5
112 2 2.2 7.6 0 0 0 0 1 5
113 2 2.4 7.6 0 0 0 0 1 5
147 2 2.4 7.8 0 0 0 0 1 5
146 2 2.2 7.8 0 0 0 0 1 5
145 2 2 7.8 0 0 0 0 1 5
81 2 2.8 7.4 0 0 0 0 1.00791 5
115 2 2.8 7.6 0 0 0 0 1 5
80 2 2.6 7.4 0 0 0 0 1 5
149 2 2.8 7.8 0 0 0 0 1 5
148 2 2.6 7.8 0 0 0 0 1 5
114 2 2.6 7.6 0 0 0 0 1 5
179 2 2 8 0 0 0 0 1 5
180 2 2.2 8 0 0 0 0 1 5
181 2 2.4 8 0 0 0 0 1 5
213 2 2 8.2 0 0 0 0 1 5
214 2 2.2 8.2 0 0 0 0 1 5
215 2 2.4 8.2 0 0 0 0 1 5
182 2 2.6 8 0 0 0 0 1 5
183 2 2.8 8 0 0 0 0 1 5
216 2 2.6 8.2 0 0 0 0 1 5
217 2 2.8 8.2 0 0 0 0 1 5
247 2 2 8.4 0 0 0 0 1 5
283 2 2.4 8.6 0 0 0 0 1 5
282 2 2.2 8.6 0 0 0 0 1 5
281 2 2 8.6 0 0 0 0 1 5
249 2 2.4 8.4 0 0 0 0 1 5
248 2 2.2 8.4 0 0 0 0 1 5
285 2 2.8 8.6 0 0 0 0 1 5
284 2 2.6 8.6 0 0 0 0 1 5
251 2 2.8 8.4 0 0 0 0 1 5
250 2 2.6 8.4 0 0 0 0 1 5
350 2 2.2 9 0 0 0 0 1 5
351 2 2.4 9 0 0 0 0 1 5
315 2 2 8.8 0 0 0 0 1 5
316 2 2.2 8.8 0 0 0 0 1 5
317 2 2.4 8.8 0 0 0 0 1 5
349 2 2 9 0 0 0 0 1 5
353 2 2.8 9 0 0 0 0 1 5
352 2 2.6 9 0 0 0 0 1 5
319 2 2.8 8.8 0 0 0 0 1 5
318 2 2.6 8.8 0 0 0 0 1 5
384 2 2.2 9.2 0 0 0 0 1 5
383 2 2 9.2 0 0 0 0 1 5
2571 1 1.60463 0.519094 0.02 0 0 0 1 2
2572 1 1.57217 0.71005 0.02 0 0 0 1 2
2604 1 1.62015 1.50145 0.02 0 0 0 1 2
2748 1 1.54241 5.60256 0.02 0 0 0 1 2
2587 1 1.54079 0.905063 0.02 0 0 0 1 2
2733 1 1.55128 5.20571 0.02 0 0 0 1 2
2764 1 1.56243 5.99317 0.02 0 5.75236e-13 -2.28748e-11 1 2
2588 1 1.50105 1.10115 0.02 0 0 0 1 2
2776 1 1.55574 6.18323 0.02 0 2.35511e-11 -8.16264e-10 1 2
2762 1 1.55099 5.79945 0.02 0 0 0 1 2
2778 1 1.55608 6.36815 0.02 0 7.27971e-10 -6.32666e-09 1 2
2791 1 1.54878 6.55119 0.02 0 -1.43068e-07 -9.9533e-09 1 2
2652 1 1.53084 2.95073 0.02 0 0 0 1 2
2669 1 1.55625 3.15582 0.02 0 0 0 1 2
2730 1 1.52997 4.81574 0.02 0 0 0 1 2
2715 1 1.52994 4.61454 0.02 0 0 0 1 2
2746 1 1.54605 5.4032 0.02 0 0 0 1 2
2731 1 1.53858 5.01149 0.02 0 0 0 1 2
2699 1 1.51417 4.01428 0.02 0 0 0 1 2
2701 1 1.50677 4.21783 0.02 0 0 0 1 2
1583 2 3.2 -9.6 0 0 0 0 1 5
1582 2 3 -9.6 0 0 0 0 1 5
1549 2 3.2 -9.8 0 0 0 0 1 5
1548 2 3 -9.8 0 0 0 0 1 5
1515 2 3.2 -10 0 0 0 0 1 5
1514 2 3 -10 0 0 0 0 1 5
1584 2 3.4 -9.6 0 0 0 0 1 5
1550 2 3.4 -9.8 0 0 0 0 1 5
1516 2 3.4 -10 0 0 0 0 1 5
1586 2 3.8 -9.6 0 0 0 0 1 5
1585 2 3.6 -9.6 0 0 0 0 1 5
1552 2 3.8 -9.8 0 0 0 0 1 5
1551 2 3.6 -9.8 0 0 0 0 1 5
1518 2 3.8 -10 0 0 0 0 1 5
1517 2 3.6 -10 0 0 0 0 1 5
1588 2 4.2 -9.6 0 0 0 0 1 5
1587 2 4 -9.6 0 0 0 0 1 5
1554 2 4.2 -9.8 0 0 0 0 1 5
1553 2 4 -9.8 0 0 0 0 1 5
1520 2 4.2 -10 0 0 0 0 1 5
1519 2 4 -10 0 0 0 0 1 5
1616 2 3 -9.4 0 0 0 0 1 5
1617 2 3.2 -9.4 0 0 0 0 1 5
1651 2 3.2 -9.2 0 0 0 0 1 5
1650 2 3 -9.2 0 0 0 0 1 5
1652 2 3.4 -9.2 0 0 0 0 1 5
1618 2 3.4 -9.4 0 0 0 0 1 5
1653 2 3.6 -9.2 0 0 0 0 1 5
1654 2 3.8 -9.2 0 0 0 0 1 5
1620 2 3.8 -9.4 0 0 0 0 1 5
1619 2 3.6 -9.4 0 0 0 0 1 5
1622 2 4.2 -9.4 0 0 0 0 1 5
1655 2 4 -9.2 0 0 0 0 1 5
1656 2 4.2 -9.2 0 0 0 0 1 5
1621 2 4 -9.4 0 0 0 0 1 5
1719 2 3.2 -8.8 0 0 0 0 1 5
1718 2 3 -8.8 0 0 0 0 1 5
1685 2 3.2 -9 0 0 0 0 1 5
1684 2 3 -9 0 0 0 0 1 5
1686 2 3.4 -9 0 0 0 0 1 5
1720 2 3.4 -8.8 0 0 0 0 1 5
1687 2 3.6 -9 0 0 0 0 1 5
1688 2 3.8 -9 0 0 0 0 1 5
1721 2 3.6 -8.8 0 0 0 0 1 5
1722 2 3.8 -8.8 0 0 0 0 1 5
1689 2 4 -9 0 0 0 0 1 5
1690 2 4.2 -9 0 0 0 0 1 5
1723 2 4 -8.8 0 0 0 0 1 5
1724 2 4.2 -8.8 0 0 0 0 1 5
1752 2 3 -8.6 0 0 0 0 1 5
1753 2 3.2 -8.6 0 0 0 0 1 5
1786 2 3 -8.4 0 0 0 0 1 5
1787 2 3.2 -8.4 0 0 0 0 1 5