ITEM: TIMESTEP
13000
ITEM: NUMBER OF ATOMS
1302
ITEM: BOX BOUNDS ff ff pp
0.0000000000000000e+00 4.4000000000000004e+00
-1.0000000000000000e+01 1.0000000000000000e+01
-2.0000000000000000e-02 2.0000000000000000e-02
ITEM: ATOMS id type x y vx vy fx fy c_den c_phase
2658 1 1.20188 -6.75103 0.02 0 0 0 1 2
2660 1 1.20738 -6.56461 0.02 0 -4.02984e-13 -5.33661e-14 1 2
2659 1 1.398 -6.76478 0.02 0 -1.5844e-06 -8.10941e-07 1 2
2661 1 1.40799 -6.57203 0.02 0 -3.60756e-10 1.2453e-08 1 2
2641 1 1.39847 -2.39668 0.02 0 0 0 1 2
2592 1 1.22585 -0.938433 0.02 0 0 0 1 2
2558 1 1.44088 -0.358137 0.02 0 0 0 1 2
2594 1 1.28512 -1.28906 0.02 0 0 0 1 2
2674 1 1.22264 -6.37867 0.02 0 0 0 1 2
2675 1 1.22863 -6.19455 0.02 0 0 0 1 2
2676 1 1.42075 -6.38701 0.02 0 3.00064e-10 3.15775e-09 1 2
2677 1 1.45753 -6.20618 0.02 0 1.53266e-11 1.16707e-10 1 2
2593 1 1.30518 -1.10874 0.02 0 0 0 1 2
2654 1 1.46818 -2.76179 0.02 0 0 0 1 2
2690 1 1.23677 -6.01156 0.02 0 0 0 1 2
2691 1 1.24941 -5.82135 0.02 0 0 0 1 2
2692 1 1.44081 -6.02146 0.02 0 0 0 1 2
2693 1 1.45668 -5.82821 0.02 0 0 0 1 2
2642 1 1.33427 -2.22121 0.02 0 0 0 1 2
2608 1 1.28205 -1.6625 0.02 0 0 0 1 2
2705 1 1.28773 -5.62226 0.02 0 0 0 1 2
2706 1 1.30314 -5.41693 0.02 0 0 0 1 2
2657 1 1.28448 -2.94538 0.02 0 0 0 1 2
2656 1 1.25828 -2.75815 0.02 0 0 0 1 2
2607 1 1.30965 -1.47339 0.02 0 0 0 1 2
2577 1 1.28264 -0.755088 0.02 0 0 0 1 2
2720 1 1.29506 -5.21247 0.02 0 0 0 1 2
2721 1 1.30148 -5.00595 0.02 0 0 0 1 2
2722 1 1.30615 -4.79264 0.02 0 0 0 1 2
2789 1 1.28039 -3.13344 0.02 0 0 0 1 2
2788 1 1.30401 -3.32091 0.02 0 0 0 1 2
2587 1 1.44902 -0.932889 0.02 0 0 0 1 2
2560 1 1.23203 -0.374342 0.02 0 0 0 1 2
2622 1 1.31432 -2.03422 0.02 0 0 0 1 2
2740 1 1.33102 -4.56671 0.02 0 0 0 1 2
2556 1 1.43826 -0.165014 0.02 0 0 0 1 2
2576 1 1.25204 -0.565146 0.02 0 0 0 1 2
2643 1 1.25503 -2.57124 0.02 0 0 0 1 2
2559 1 1.22551 -0.183937 0.02 0 0 0 1 2
2621 1 1.32593 -1.84793 0.02 0 0 0 1 2
2757 1 1.33352 -4.11035 0.02 0 0 0 1 2
2756 1 1.34598 -4.33566 0.02 0 0 0 1 2
2775 1 1.34432 -3.50919 0.02 0 0 0 1 2
2774 1 1.36233 -3.70395 0.02 0 0 0 1 2
2573 1 1.45535 -0.55326 0.02 0 0 0 1 2
2773 1 1.32661 -3.90146 0.02 0 0 0 1 2
2546 1 1.23008 0.00784958 0.02 0 0 0 1 2
2547 1 1.22654 0.20342 0.02 0 0 0 1 2
2548 1 1.20903 0.400532 0.02 0 0 0 1 2
2549 1 1.41219 0.420223 0.02 0 0 0 1 2
2550 1 1.43646 0.0290292 0.02 0 0 0 1 2
2739 1 1.35225 5.4855 0.02 0 0 0 1 2
2552 1 1.43035 0.22482 0.02 0 0 0 1 2
2725 1 1.34276 4.89028 0.02 0 0 0 1 2
2564 1 1.37713 0.61472 0.02 0 0 0 1 2
2565 1 1.36304 0.81746 0.02 0 0 0 1 2
2708 1 1.36203 4.46434 0.02 0 0 0 1 2
2707 1 1.3297 4.67827 0.02 0 0 0 1 2
2754 1 1.32615 5.67034 0.02 0 0 0 1 2
2665 1 1.45385 3.4397 0.02 0 0 0 1 2
2677 1 1.25457 3.65904 0.02 0 0 0 1 2
2579 1 1.25417 1.23142 0.02 0 0 0 1 2
2580 1 1.32092 1.02477 0.02 0 0 0 1 2
2663 1 1.40614 3.22992 0.02 0 0 0 1 2
2583 1 1.44682 1.25293 0.02 0 0 0 1 2
2662 1 1.25611 3.45817 0.02 0 0 0 1 2
2771 1 1.31755 6.38119 0.02 0 0 0 1 2
2755 1 1.34472 5.85482 0.02 0 0 0 1 2
2595 1 1.22387 1.44734 0.02 0 0 0 1 2
2596 1 1.2001 1.6641 0.02 0 0 0 1 2
2597 1 1.41427 1.45538 0.02 0 0 0 1 2
2598 1 1.39153 1.66266 0.02 0 0 0 1 2
2694 1 1.30869 4.26103 0.02 0 0 0 1 2
2693 1 1.32816 4.0541 0.02 0 0 0 1 2
2786 1 1.4006 6.73547 0.02 0 -5.21163e-07 2.01745e-07 1 2
2784 1 1.35056 6.55864 0.02 0 -2.34095e-11 5.03248e-12 1 2
2612 1 1.20657 1.88342 0.02 0 0 0 1 2
2613 1 1.25191 2.12947 0.02 0 0 0 1 2
2614 1 1.3913 1.87355 0.02 0 0 0 1 2
2661 1 1.21986 3.25923 0.02 0 0 0 1 2
2616 1 1.42776 2.08216 0.02 0 0 0 1 2
2660 1 1.21723 3.0467 0.02 0 0 0 1 2
2678 1 1.27802 3.8584 0.02 0 0 0 1 2
2785 1 1.20127 6.77591 0.02 0 -3.81386e-14 1.91818e-14 1 2
2629 1 1.29648 2.38837 0.02 0 0 0 1 2
2630 1 1.45703 2.29507 0.02 0 0 0 1 2
2631 1 1.46903 2.53955 0.02 0 0 0 1 2
2724 1 1.33111 5.09763 0.02 0 0 0 1 2
2740 1 1.34746 5.29293 0.02 0 0 0 1 2
2756 1 1.34646 6.03867 0.02 0 0 0 1 2
2770 1 1.28968 6.20677 0.02 0 0 0 1 2
2644 1 1.30714 2.61673 0.02 0 0 0 1 2
2645 1 1.35182 2.80835 0.02 0 0 0 1 2
2646 1 1.40009 3.01271 0.02 0 0 0 1 2
2679 1 1.44831 3.64525 0.02 0 0 0 1 2
1509 2 2 -10 0 0 0 0 1 5
1510 2 2.2 -10 0 0 0 0 1 5
1511 2 2.4 -10 0 0 0 0 1 5
1543 2 2 -9.8 0 0 0 0 1 5
1544 2 2.2 -9.8 0 0 0 0 1 5
1545 2 2.4 -9.8 0 0 0 0 1 5
1577 2 2 -9.6 0 0 0 0 1 5
1578 2 2.2 -9.6 0 0 0 0 1 5
1579 2 2.4 -9.6 0 0 0 0 1 5
1512 2 2.6 -10 0 0 0 0 1 5
1513 2 2.8 -10 0 0 0 0 1 5
1546 2 2.6 -9.8 0 0 0 0 1 5
1547 2 2.8 -9.8 0 0 0 0 1 5
1580 2 2.6 -9.6 0 0 0 0 1 5
1581 2 2.8 -9.6 0 0 0 0 1 5
1645 2 2 -9.2 0 0 0 0 1 5
1646 2 2.2 -9.2 0 0 0 0 1 5
1647 2 2.4 -9.2 0 0 0 0 1 5
1613 2 2.4 -9.4 0 0 0 0 1 5
1612 2 2.2 -9.4 0 0 0 0 1 5
1611 2 2 -9.4 0 0 0 0 1 5
1648 2 2.6 -9.2 0 0 0 0 1 5
1649 2 2.8 -9.2 0 0 0 0 1 5
1615 2 2.8 -9.4 0 0 0 0 1 5
1614 2 2.6 -9.4 0 0 0 0 1 5
1679 2 2 -9 0 0 0 0 1 5
1680 2 2.2 -9 0 0 0 0 1 5
1681 2 2.4 -9 0 0 0 0 1 5
1713 2 2 -8.8 0 0 0 0 1 5
1714 2 2.2 -8.8 0 0 0 0 1 5
1715 2 2.4 -8.8 0 0 0 0 1 5
1682 2 2.6 -9 0 0 0 0 1 5
1683 2 2.8 -9 0 0 0 0 1 5
1716 2 2.6 -8.8 0 0 0 0 1 5
1717 2 2.8 -8.8 0 0 0 0 1 5
1783 2 2.4 -8.4 0 0 0 0 1 5
1782 2 2.2 -8.4 0 0 0 0 1 5
1781 2 2 -8.4 0 0 0 0 1 5
1747 2 2 -8.6 0 0 0 0 1 5
1748 2 2.2 -8.6 0 0 0 0 1 5
1749 2 2.4 -8.6 0 0 0 0 1 5
1785 2 2.8 -8.4 0 0 0 0 1 5
1784 2 2.6 -8.4 0 0 0 0 1 5
1750 2 2.6 -8.6 0 0 0 0 1 5
1751 2 2.8 -8.6 0 0 0 0 1 5
1851 2 2.4 -8 0 0 0 0 1 5
1850 2 2.2 -8 0 0 0 0 1 5
1849 2 2 -8 0 0 0 0 1 5
1817 2 2.4 -8.2 0 0 0 0 1 5
1816 2 2.2 -8.2 0 0 0 0 1 5
1815 2 2 -8.2 0 0 0 0 1 5
1853 2 2.8 -8 0 0 0 0 1 5
1852 2 2.6 -8 0 0 0 0 1 5
1819 2 2.8 -8.2 0 0 0 0 1 5
1818 2 2.6 -8.2 0 0 0 0 1 5
1953 2 2.4 -7.4 0 0 0 0 1.00087 5
1952 2 2.2 -7.4 0 0 0 0 0.997497 5
1951 2 2 -7.4 0 0 0 0 0.999011 5
1919 2 2.4 -7.6 0 0 0 0 1 5
1918 2 2.2 -7.6 0 0 0 0 1 5
1917 2 2 -7.6 0 0 0 0 1 5
1885 2 2.4 -7.8 0 0 0 0 1 5
1884 2 2.2 -7.8 0 0 0 0 1 5
1883 2 2 -7.8 0 0 0 0 1 5
1955 2 2.8 -7.4 0 0 0 0 0.989987 5
1954 2 2.6 -7.4 0 0 0 0 0.99908 5
1921 2 2.8 -7.6 0 0 0 0 1 5
1920 2 2.6 -7.6 0 0 0 0 1 5
1887 2 2.8 -7.8 0 0 0 0 1 5
1886 2 2.6 -7.8 0 0 0 0 1 5
2021 2 2.4 -7 0 0 0 0 0.999825 5
2020 2 2.2 -7 0 0 0 0 0.999401 5
2019 2 2 -7 0 0 0 0 1.00016 5
1987 2 2.4 -7.2 0 0 0 0 1.00076 5
1986 2 2.2 -7.2 0 0 0 0 0.999317 5
1985 2 2 -7.2 0 0 0 0 0.998746 5
2023 2 2.8 -7 0 0 0 0 0.990641 5
2022 2 2.6 -7 0 0 0 0 0.996315 5
1989 2 2.8 -7.2 0 0 0 0 0.98969 5
1988 2 2.6 -7.2 0 0 0 0 0.99653 5
2668 1 2.01689 -6.58016 0.02 0 -6.91487e-05 0.000309889 1 2
2666 1 2.01903 -6.76313 0.02 0 -0.0041435 -0.000571086 1 2
2669 1 2.21931 -6.55034 0.02 0 0.000197621 0.000397867 1 2
2667 1 2.21907 -6.73379 0.02 0 -0.00253049 -0.000409046 1 2
2672 1 2.41327 -6.56871 0.02 0 0.000274273 0.000434987 1 2
2670 1 2.4136 -6.7694 0.02 0 -0.00291359 -0.000517055 1 2
2671 1 2.62513 -6.75794 0.02 0 -0.00192875 -0.000286973 1 2
2673 1 2.60244 -6.57403 0.02 0 0.000359624 0.000447355 1 2
2617 1 1.77221 -1.8133 0.02 0 0 0 1 2
2546 1 2.65153 -0.297234 0.02 0 -1.65053e-24 -1.49735e-25 1 2
2685 1 2.27049 -6.16162 0.02 0 3.65286e-06 1.0133e-05 1 2
2682 1 2.02577 -6.39432 0.02 0 5.21649e-05 9.41297e-05 1 2
2683 1 2.22216 -6.35838 0.02 0 7.98224e-05 0.000111638 1 2
2684 1 2.07345 -6.19539 0.02 0 3.45735e-06 1.3325e-05 1 2
2679 1 1.83284 -6.38326 0.02 0 6.10462e-06 4.28821e-05 1 2
2681 1 1.87806 -6.18549 0.02 0 6.25596e-07 3.82278e-06 1 2
2686 1 2.41983 -6.37339 0.02 0 0.000113391 0.000146507 1 2
2689 1 2.64995 -6.19007 0.02 0 5.33272e-06 2.40083e-05 1 2
2687 1 2.62738 -6.38819 0.02 0 0.000115409 0.000185641 1 2
2688 1 2.46381 -6.18031 0.02 0 6.42146e-06 1.47699e-05 1 2
2547 1 2.46114 -0.151373 0.02 0 0 0 1 2
2548 1 2.4618 -0.360565 0.02 0 0 0 1 2
2699 1 2.26135 -5.96557 0.02 0 1.57827e-08 5.33517e-08 1 2
2701 1 2.28762 -5.7706 0.02 0 2.47133e-12 1.75915e-11 1 2
2700 1 2.08772 -5.79812 0.02 0 2.18244e-11 1.90171e-10 1 2
2698 1 2.05784 -5.99713 0.02 0 1.10185e-08 8.56992e-08 1 2
2695 1 1.85044 -5.99312 0.02 0 1.01116e-09 1.58002e-08 1 2
2697 1 1.88417 -5.80529 0.02 0 3.35161e-12 3.68905e-11 1 2
2704 1 2.48445 -5.7827 0.02 0 1.91862e-11 6.35835e-11 1 2
2702 1 2.46333 -5.9826 0.02 0 3.00979e-08 8.93862e-08 1 2
2703 1 2.65675 -5.96801 0.02 0 4.49535e-08 8.42597e-08 1 2
2554 1 1.85734 -0.275458 0.02 0 0 0 1 2
2553 1 1.85943 -0.0796097 0.02 0 0 0 1 2
2714 1 2.27319 -5.57637 0.02 0 0 0 1 2
2716 1 2.25451 -5.37873 0.02 0 0 0 1 2
2715 1 2.06223 -5.39761 0.02 0 0 0 1 2
2713 1 2.06939 -5.5998 0.02 0 0 0 1 2
2711 1 1.86533 -5.61507 0.02 0 0 0 1 2
2712 1 1.87022 -5.41754 0.02 0 0 0 1 2
2718 1 2.45093 -5.3784 0.02 0 0 0 1 2
2719 1 2.65255 -5.35989 0.02 0 0 0 1 2
2717 1 2.47557 -5.57908 0.02 0 0 0 1 2
2551 1 2.05795 -0.234756 0.02 0 0 0 1 2
2552 1 2.07183 -0.0351019 0.02 0 0 0 1 2
2550 1 2.26221 -0.358352 0.02 0 0 0 1 2
2732 1 2.2536 -5.17698 0.02 0 0 0 1 2
2734 1 2.24598 -4.97307 0.02 0 0 0 1 2
2733 1 2.05408 -4.98309 0.02 0 0 0 1 2
2731 1 2.05643 -5.19114 0.02 0 0 0 1 2
2728 1 1.863 -5.21522 0.02 0 0 0 1 2
2729 1 1.86512 -5.00797 0.02 0 0 0 1 2
2730 1 1.86701 -4.79197 0.02 0 0 0 1 2
2738 1 2.43576 -4.78802 0.02 0 0 0 1 2
2736 1 2.44222 -4.98615 0.02 0 0 0 1 2
2739 1 2.63255 -4.78313 0.02 0 0 0 1 2
2737 1 2.64388 -4.98078 0.02 0 0 0 1 2
2735 1 2.45779 -5.18093 0.02 0 0 0 1 2
2549 1 2.25393 -0.162154 0.02 0 0 0 1 2
2751 1 2.07154 -4.35647 0.02 0 0 0 1 2
2749 1 2.07781 -4.56602 0.02 0 0 0 1 2
2747 1 2.24375 -4.7645 0.02 0 0 0 1 2
2750 1 2.26759 -4.55533 0.02 0 0 0 1 2
2746 1 2.05319 -4.77382 0.02 0 0 0 1 2
2748 1 1.8914 -4.56698 0.02 0 0 0 1 2
2754 1 2.45158 -4.38169 0.02 0 0 0 1 2
2755 1 2.6495 -4.38719 0.02 0 0 0 1 2
2753 1 2.65046 -4.58362 0.02 0 0 0 1 2
2752 1 2.45727 -4.58755 0.02 0 0 0 1 2
2636 1 1.77796 -2.1794 0.02 0 0 0 1 2
2563 1 2.48548 -0.778283 0.02 0 0 0 1 2
2765 1 2.084 -4.14303 0.02 0 0 0 1 2
2762 1 2.26039 -4.34635 0.02 0 0 0 1 2
2766 1 2.2755 -4.14135 0.02 0 0 0 1 2
2769 1 2.31128 -3.94175 0.02 0 0 0 1 2
2767 1 2.11367 -3.93464 0.02 0 0 0 1 2
2768 1 1.91804 -3.91968 0.02 0 0 0 1 2
2764 1 1.89548 -4.12554 0.02 0 0 0 1 2
2763 1 1.88857 -4.3411 0.02 0 0 0 1 2
2771 1 2.66538 -4.19435 0.02 0 0 0 1 2
2772 1 2.50592 -3.97478 0.02 0 0 0 1 2
2770 1 2.46655 -4.17616 0.02 0 0 0 1 2
2562 1 2.47672 -0.567091 0.02 0 0 0 1 2
2782 1 2.15592 -3.73377 0.02 0 0 0 1 2
2781 1 1.95558 -3.51801 0.02 0 0 0 1 2
2780 1 1.95844 -3.71775 0.02 0 0 0 1 2
2783 1 2.15733 -3.53307 0.02 0 0 0 1 2
2787 1 2.55908 -3.57567 0.02 0 0 0 1 2
2786 1 2.54832 -3.77646 0.02 0 0 0 1 2
2784 1 2.35375 -3.74421 0.02 0 0 0 1 2
2785 1 2.35888 -3.54584 0.02 0 0 0 1 2
2795 1 1.91523 -3.13511 0.02 0 0 0 1 2
2794 1 1.93258 -3.32568 0.02 0 0 0 1 2
2797 1 2.12404 -3.14724 0.02 0 0 0 1 2
2796 1 2.14888 -3.33858 0.02 0 0 0 1 2
2801 1 2.54057 -3.17797 0.02 0 0 0 1 2
2799 1 2.332 -3.16312 0.02 0 0 0 1 2
2798 1 2.36444 -3.35298 0.02 0 0 0 1 2
2800 1 2.56988 -3.37646 0.02 0 0 0 1 2
2648 1 2.07813 -2.76321 0.02 0 0 0 1 2
2651 1 1.92004 -2.9438 0.02 0 0 0 1 2
2647 1 2.28557 -2.78166 0.02 0 0 0 1 2
2649 1 2.13232 -2.95514 0.02 0 0 0 1 2
2650 1 1.87565 -2.74972 0.02 0 0 0 1 2
2644 1 2.49587 -2.77955 0.02 0 0 0 1 2
2646 1 2.34349 -2.97062 0.02 0 0 0 1 2
2645 1 2.54401 -2.9776 0.02 0 0 0 1 2
2633 1 2.10488 -2.5705 0.02 0 0 0 1 2
2632 1 2.04525 -2.37971 0.02 0 0 0 1 2
2630 1 2.0011 -2.19311 0.02 0 0 0 1 2
2629 1 2.21604 -2.20415 0.02 0 0 0 1 2
2634 1 1.89704 -2.55343 0.02 0 0 0 1 2
2628 1 2.31138 -2.58908 0.02 0 0 0 1 2
2631 1 2.25602 -2.39606 0.02 0 0 0 1 2
2635 1 1.83091 -2.36322 0.02 0 0 0 1 2
2627 1 2.51236 -2.58029 0.02 0 0 0 1 2
2626 1 2.45883 -2.38317 0.02 0 0 0 1 2
2624 1 2.42047 -2.18617 0.02 0 0 0 1 2
2625 1 2.66347 -2.38971 0.02 0 -2.33427e-23 4.30796e-24 1 2
2623 1 2.62069 -2.19044 0.02 0 -1.21218e-24 -7.75073e-26 1 2
2561 1 2.66485 -0.711689 0.02 0 -8.18845e-26 -1.43192e-27 1 2
2614 1 1.98725 -1.82671 0.02 0 0 0 1 2
2613 1 2.20184 -1.82556 0.02 0 0 0 1 2
2615 1 2.18408 -2.0155 0.02 0 0 0 1 2
2616 1 1.9631 -2.01135 0.02 0 0 0 1 2
2612 1 2.39721 -1.9925 0.02 0 0 0 1 2
2611 1 2.6052 -1.98573 0.02 0 -5.23789e-24 -5.68772e-25 1 2
2610 1 2.40257 -1.79509 0.02 0 0 0 1 2
2609 1 2.59667 -1.78013 0.02 0 -4.42491e-24 -2.67404e-25 1 2
2778 1 1.76004 -3.73352 0.02 0 0 0 1 2
2571 1 1.86034 -0.469058 0.02 0 0 0 1 2
2600 1 1.92588 -1.44478 0.02 0 0 0 1 2
2599 1 2.12908 -1.45502 0.02 0 0 0 1 2
2601 1 2.12847 -1.64589 0.02 0 0 0 1 2
2602 1 1.91633 -1.64028 0.02 0 0 0 1 2
2598 1 2.33738 -1.60677 0.02 0 0 0 1 2
2597 1 2.5433 -1.58039 0.02 0 0 0 1 2
2595 1 2.52859 -1.38132 0.02 0 0 0 1 2
2596 1 2.32977 -1.40796 0.02 0 0 0 1 2
2584 1 2.13285 -1.25908 0.02 0 0 0 1 2
2582 1 2.13929 -1.05563 0.02 0 0 0 1 2
2583 1 1.94457 -1.04387 0.02 0 0 0 1 2
2585 1 1.9332 -1.24562 0.02 0 0 0 1 2
2578 1 2.51317 -0.980999 0.02 0 0 0 1 2
2580 1 2.51706 -1.18142 0.02 0 0 0 1 2
2581 1 2.32428 -1.20028 0.02 0 0 0 1 2
2579 1 2.32072 -0.982393 0.02 0 0 0 1 2
2568 1 1.90209 -0.65809 0.02 0 0 0 1 2
2566 1 2.29333 -0.767769 0.02 0 0 0 1 2
2567 1 2.09706 -0.642088 0.02 0 0 0 1 2
2564 1 2.06647 -0.437431 0.02 0 0 0 1 2
2570 1 1.9023 -0.853378 0.02 0 0 0 1 2
2565 1 2.27858 -0.55788 0.02 0 0 0 1 2
2569 1 2.11129 -0.850583 0.02 0 0 0 1 2
2663 1 1.79776 -6.77955 0.02 0 -0.00292206 -0.00102765 1 2
2665 1 1.81839 -6.58151 0.02 0 -0.000116862 0.000213891 1 2
2743 1 1.70699 -4.58159 0.02 0 0 0 1 2
2744 1 1.70834 -4.36739 0.02 0 0 0 1 2
2759 1 1.70752 -4.15041 0.02 0 0 0 1 2
2760 1 1.71997 -3.93899 0.02 0 0 0 1 2
2574 1 1.70615 -0.714121 0.02 0 0 0 1 2
2779 1 1.75368 -3.52944 0.02 0 0 0 1 2
2792 1 1.72373 -3.32974 0.02 0 0 0 1 2
2793 1 1.70581 -3.13265 0.02 0 0 0 1 2
2653 1 1.70959 -2.93779 0.02 0 0 0 1 2
2639 1 1.68939 -2.55211 0.02 0 0 0 1 2
2619 1 1.74069 -1.99759 0.02 0 0 0 1 2
2590 1 1.72406 -1.2545 0.02 0 0 0 1 2
2588 1 1.74724 -1.06708 0.02 0 0 0 1 2
2603 1 1.7241 -1.44213 0.02 0 0 0 1 2
2605 1 1.70052 -1.63365 0.02 0 0 0 1 2
2664 1 1.61949 -6.55761 0.02 0 -1.19394e-06 2.02616e-05 1 2
2555 1 1.65118 -0.150124 0.02 0 0 0 1 2
2678 1 1.62927 -6.38021 0.02 0 3.8721e-07 4.25769e-06 1 2
2680 1 1.67547 -6.19941 0.02 0 5.37355e-08 3.45416e-07 1 2
2694 1 1.64489 -6.01249 0.02 0 6.96767e-11 1.43589e-09 1 2
2696 1 1.6685 -5.82207 0.02 0 0 0 1 2
2709 1 1.66666 -5.62812 0.02 0 0 0 1 2
2710 1 1.67833 -5.42473 0.02 0 0 0 1 2
2725 1 1.67194 -5.21301 0.02 0 0 0 1 2
2726 1 1.67599 -5.00124 0.02 0 0 0 1 2
2727 1 1.6799 -4.79077 0.02 0 0 0 1 2
2586 1 1.67241 -0.897504 0.02 0 0 0 1 2
2572 1 1.6577 -0.531385 0.02 0 0 0 1 2
2652 1 1.67313 -2.74438 0.02 0 0 0 1 2
2557 1 1.65075 -0.340669 0.02 0 0 0 1 2
2638 1 1.61666 -2.37455 0.02 0 0 0 1 2
2662 1 1.59364 -6.72967 0.02 0 -0.00016037 -6.1039e-05 1 2
2618 1 1.55434 -1.83786 0.02 0 0 0 1 2
2776 1 1.56267 -3.72787 0.02 0 0 0 1 2
2777 1 1.55121 -3.52483 0.02 0 0 0 1 2
2637 1 1.55424 -2.20027 0.02 0 0 0 1 2
2606 1 1.48749 -1.66249 0.02 0 0 0 1 2
2589 1 1.53498 -1.10321 0.02 0 0 0 1 2
2655 1 1.49896 -2.94882 0.02 0 0 0 1 2
2604 1 1.52041 -1.4745 0.02 0 0 0 1 2
2707 1 1.47627 -5.62507 0.02 0 0 0 1 2
2708 1 1.49141 -5.40769 0.02 0 0 0 1 2
2620 1 1.52354 -2.0199 0.02 0 0 0 1 2
2591 1 1.50252 -1.28735 0.02 0 0 0 1 2
2723 1 1.48436 -5.19237 0.02 0 0 0 1 2
2791 1 1.49398 -3.13712 0.02 0 0 0 1 2
2790 1 1.51727 -3.32802 0.02 0 0 0 1 2
2724 1 1.48794 -4.97876 0.02 0 0 0 1 2
2741 1 1.49152 -4.76728 0.02 0 0 0 1 2
2742 1 1.51847 -4.56208 0.02 0 0 0 1 2
2745 1 1.52538 -4.3542 0.02 0 0 0 1 2
2758 1 1.5193 -4.14028 0.02 0 0 0 1 2
2640 1 1.47556 -2.57231 0.02 0 0 0 1 2
2761 1 1.52337 -3.93002 0.02 0 0 0 1 2
2575 1 1.49314 -0.744506 0.02 0 0 0 1 2
2558 1 2.25129 0.202356 0.02 0 0 0 1 2
2559 1 2.27282 0.387585 0.02 0 0 0 1 2
2560 1 2.30251 0.0241716 0.02 0 0 0 1 2
2557 1 2.04892 0.337657 0.02 0 0 0 1 2
2556 1 2.04702 0.150107 0.02 0 0 0 1 2
2554 1 1.84246 0.115019 0.02 0 0 0 1 2
2555 1 1.83066 0.311885 0.02 0 0 0 1 2
2563 1 2.49085 0.420778 0.02 0 0 0 1 2
2562 1 2.47379 0.235866 0.02 0 0 0 1 2
2561 1 2.50986 0.0509173 0.02 0 0 0 1 2
454 2 2.6 9.6 0 0 0 0 1 5
2573 1 2.16876 0.757192 0.02 0 0 0 1 2
2574 1 2.20422 0.565334 0.02 0 0 0 1 2
2571 1 2.00463 0.519094 0.02 0 0 0 1 2
2572 1 1.97217 0.71005 0.02 0 0 0 1 2
2575 1 2.41401 0.590992 0.02 0 0 0 1 2
2578 1 2.61689 0.646045 0.02 0 -1.74129e-23 2.68279e-24 1 2
2577 1 2.57658 0.831594 0.02 0 -3.21947e-25 -9.48174e-28 1 2
2576 1 2.37354 0.772484 0.02 0 0 0 1 2
2761 1 1.76065 6.01458 0.02 0 1.93667e-10 -6.33586e-09 1 2
455 2 2.8 9.6 0 0 0 0 1 5
2591 1 2.30211 1.14393 0.02 0 0 0 1 2
2590 1 2.09763 1.1398 0.02 0 0 0 1 2
2589 1 2.13767 0.949846 0.02 0 0 0 1 2
2588 1 1.90105 1.10115 0.02 0 0 0 1 2
2587 1 1.94079 0.905063 0.02 0 0 0 1 2
2586 1 1.85254 1.2933 0.02 0 0 0 1 2
2594 1 2.50503 1.1955 0.02 0 0 0 1 2
2593 1 2.54865 1.01638 0.02 0 0 0 1 2
2592 1 2.34564 0.958466 0.02 0 0 0 1 2
2606 1 2.24723 1.51302 0.02 0 0 0 1 2
2608 1 2.28581 1.33254 0.02 0 0 0 1 2
2603 1 2.06663 1.32449 0.02 0 0 0 1 2
2605 1 1.99194 1.68446 0.02 0 0 0 1 2
2607 1 2.20086 1.69305 0.02 0 0 0 1 2
2604 1 2.02015 1.50145 0.02 0 0 0 1 2
2611 1 2.41836 1.72508 0.02 0 0 0 1 2
2610 1 2.4667 1.55295 0.02 0 0 0 1 2
2609 1 2.50339 1.37766 0.02 0 0 0 1 2
2621 1 1.99647 2.05637 0.02 0 0 0 1 2
2620 1 2.00208 1.86922 0.02 0 0 0 1 2
2623 1 2.2255 1.88107 0.02 0 0 0 1 2
2622 1 2.19501 2.07208 0.02 0 0 0 1 2
2625 1 2.3968 2.09034 0.02 0 0 0 1 2
2624 1 2.44346 1.90731 0.02 0 0 0 1 2
2628 1 2.65003 1.80044 0.02 0 -1.39516e-23 4.35321e-24 1 2
2627 1 2.59797 2.16866 0.02 0 -7.039e-29 -6.66763e-30 1 2
2626 1 2.64336 1.98762 0.02 0 -6.51823e-24 -4.69968e-26 1 2
488 2 2.6 9.8 0 0 0 0 1 5
489 2 2.8 9.8 0 0 0 0 1 5
2637 1 1.99732 2.45639 0.02 0 0 0 1 2
2636 1 2.0081 2.25311 0.02 0 0 0 1 2
2639 1 2.18992 2.48301 0.02 0 0 0 1 2
2638 1 2.19935 2.27668 0.02 0 0 0 1 2
2640 1 2.39148 2.28879 0.02 0 0 0 1 2
2643 1 2.57921 2.55818 0.02 0 -2.83683e-28 1.574e-29 1 2
2641 1 2.58133 2.3612 0.02 0 -4.45975e-28 -3.82023e-29 1 2
2642 1 2.38316 2.49675 0.02 0 0 0 1 2
452 2 2.2 9.6 0 0 0 0 1 5
453 2 2.4 9.6 0 0 0 0 1 5
2654 1 2.09805 2.88047 0.02 0 0 0 1 2
2653 1 2.04292 2.66214 0.02 0 0 0 1 2
2655 1 2.2311 2.69538 0.02 0 0 0 1 2
2656 1 2.2816 2.91442 0.02 0 0 0 1 2
2652 1 1.93084 2.95073 0.02 0 0 0 1 2
2651 1 1.87643 2.73941 0.02 0 0 0 1 2
2657 1 2.41829 2.71345 0.02 0 0 0 1 2
2659 1 2.61078 2.76365 0.02 0 -7.43296e-32 -5.07001e-33 1 2
2658 1 2.47122 2.93293 0.02 0 0 0 1 2
2712 1 1.76739 4.43731 0.02 0 0 0 1 2
485 2 2 9.8 0 0 0 0 1 5
2670 1 2.02161 3.35279 0.02 0 0 0 1 2
2672 1 2.20336 3.34758 0.02 0 0 0 1 2
2669 1 1.95625 3.15582 0.02 0 0 0 1 2
2671 1 2.13785 3.11445 0.02 0 0 0 1 2
2668 1 1.84055 3.40885 0.02 0 0 0 1 2
2675 1 2.52146 3.14204 0.02 0 0 0 1 2
2676 1 2.57576 3.34932 0.02 0 0 0 1 2
2674 1 2.3857 3.33398 0.02 0 0 0 1 2
2673 1 2.32482 3.12632 0.02 0 0 0 1 2
2686 1 2.07915 3.77574 0.02 0 0 0 1 2
2687 1 2.22086 3.57214 0.02 0 0 0 1 2
2684 1 2.0303 3.56692 0.02 0 0 0 1 2
2688 1 2.27219 3.77951 0.02 0 0 0 1 2
2683 1 1.84013 3.61791 0.02 0 0 0 1 2
2685 1 1.88862 3.81358 0.02 0 0 0 1 2
2689 1 2.40716 3.54855 0.02 0 0 0 1 2
2692 1 2.65582 3.75162 0.02 0 -2.32151e-24 -5.6064e-25 1 2
2691 1 2.60065 3.55443 0.02 0 0 0 1 2
2690 1 2.46182 3.76289 0.02 0 0 0 1 2
2667 1 1.77663 3.20139 0.02 0 0 0 1 2
486 2 2.2 9.8 0 0 0 0 1 5
2701 1 1.90677 4.21783 0.02 0 0 0 1 2
2699 1 1.91417 4.01428 0.02 0 0 0 1 2
2703 1 2.30176 3.98166 0.02 0 0 0 1 2
2702 1 2.10998 4.19141 0.02 0 0 0 1 2
2700 1 2.10598 3.98652 0.02 0 0 0 1 2
2704 1 2.49807 3.97181 0.02 0 0 0 1 2
2706 1 2.52855 4.16938 0.02 0 0 0 1 2
2705 1 2.31795 4.17837 0.02 0 0 0 1 2
487 2 2.4 9.8 0 0 0 0 1 5
2713 1 1.96733 4.4106 0.02 0 0 0 1 2
2715 1 1.92994 4.61454 0.02 0 0 0 1 2
2717 1 2.12739 4.77922 0.02 0 0 0 1 2
2716 1 2.13359 4.58199 0.02 0 0 0 1 2
2714 1 2.16801 4.38407 0.02 0 0 0 1 2
2722 1 2.3294 4.76933 0.02 0 0 0 1 2
2723 1 2.5356 4.75688 0.02 0 0 0 1 2
2721 1 2.54183 4.56173 0.02 0 0 0 1 2
2720 1 2.33892 4.57285 0.02 0 0 0 1 2
2718 1 2.36679 4.37209 0.02 0 0 0 1 2
2719 1 2.5656 4.36378 0.02 0 0 0 1 2
2731 1 1.93858 5.01149 0.02 0 0 0 1 2
2730 1 1.92997 4.81574 0.02 0 0 0 1 2
2732 1 2.14793 4.97452 0.02 0 0 0 1 2
2734 1 2.1539 5.16916 0.02 0 0 0 1 2
2733 1 1.95128 5.20571 0.02 0 0 0 1 2
2737 1 2.3628 5.14928 0.02 0 0 0 1 2
2735 1 2.36013 4.95941 0.02 0 0 0 1 2
2738 1 2.57368 5.14235 0.02 0 0 0 1 2
2736 1 2.56947 4.94833 0.02 0 0 0 1 2
2747 1 2.14638 5.36919 0.02 0 0 0 1 2
2746 1 1.94605 5.4032 0.02 0 0 0 1 2
2749 1 2.13556 5.57455 0.02 0 0 0 1 2
2748 1 1.94241 5.60256 0.02 0 0 0 1 2
2753 1 2.5206 5.54369 0.02 0 0 0 1 2
2751 1 2.54756 5.33895 0.02 0 0 0 1 2
2752 1 2.32645 5.54397 0.02 0 0 0 1 2
2750 1 2.34693 5.34307 0.02 0 0 0 1 2
2763 1 2.1482 5.77898 0.02 0 7.66448e-12 -2.33973e-11 1 2
2765 1 2.15568 5.98486 0.02 0 1.96486e-08 -5.30979e-08 1 2
2762 1 1.95099 5.79945 0.02 0 9.76725e-14 -2.63862e-13 1 2
2764 1 1.96243 5.99317 0.02 0 4.04251e-09 -3.21103e-08 1 2
2767 1 2.53547 5.74842 0.02 0 5.42155e-13 -3.13075e-12 1 2
2769 1 2.52315 5.95808 0.02 0 1.23065e-08 -3.04737e-08 1 2
2766 1 2.34132 5.74899 0.02 0 6.68913e-13 -2.12651e-12 1 2
2768 1 2.33948 5.95839 0.02 0 9.72867e-09 -2.32498e-08 1 2
451 2 2 9.6 0 0 0 0 1 5
386 2 2.6 9.2 0 0 0 0 1 5
2777 1 2.15528 6.18731 0.02 0 4.51824e-06 -8.54319e-06 1 2
2779 1 2.15796 6.38264 0.02 0 8.87289e-05 -0.000140207 1 2
2778 1 1.95608 6.36815 0.02 0 3.0954e-05 -6.78909e-05 1 2
2776 1 1.95574 6.18323 0.02 0 9.5394e-07 -2.81572e-06 1 2
2780 1 2.34465 6.17296 0.02 0 5.77146e-06 -1.03168e-05 1 2
2781 1 2.53076 6.16495 0.02 0 6.96136e-06 -1.23852e-05 1 2
2783 1 2.53318 6.37479 0.02 0 0.000190086 -0.000198729 1 2
2782 1 2.34844 6.38007 0.02 0 0.000131045 -0.000162623 1 2
387 2 2.8 9.2 0 0 0 0 1 5
420 2 2.6 9.4 0 0 0 0 1 5
2794 1 2.17241 6.74849 0.02 0 -0.00321283 0.000518291 1 2
2791 1 1.94878 6.55119 0.02 0 7.74415e-05 -0.000324846 1 2
2793 1 1.97868 6.74047 0.02 0 -0.00343534 0.000671128 1 2
2792 1 2.15339 6.56689 0.02 0 0.000193469 -0.000500052 1 2
2798 1 2.58013 6.76559 0.02 0 -0.00175347 0.000293292 1 2
2796 1 2.5658 6.57399 0.02 0 0.000673056 -0.00059407 1 2
2797 1 2.37196 6.75492 0.02 0 -0.0028496 0.000511292 1 2
2795 1 2.36461 6.57015 0.02 0 0.000271156 -0.000460229 1 2
9 2 2 7 0 0 0 0 1.00161 5
10 2 2.2 7 0 0 0 0 1.00009 5
11 2 2.4 7 0 0 0 0 0.999449 5
43 2 2 7.2 0 0 0 0 1.0016 5
44 2 2.2 7.2 0 0 0 0 1.00053 5
45 2 2.4 7.2 0 0 0 0 1.0004 5
12 2 2.6 7 0 0 0 0 0.995544 5
13 2 2.8 7 0 0 0 0 0.987257 5
46 2 2.6 7.2 0 0 0 0 0.996352 5
47 2 2.8 7.2 0 0 0 0 0.987128 5
79 2 2.4 7.4 0 0 0 0 1.00059 5
78 2 2.2 7.4 0 0 0 0 0.999731 5
77 2 2 7.4 0 0 0 0 0.999873 5
111 2 2 7.6 0 0 0 0 1 5
112 2 2.2 7.6 0 0 0 0 1 5
113 2 2.4 7.6 0 0 0 0 1 5
147 2 2.4 7.8 0 0 0 0 1 5
146 2 2.2 7.8 0 0 0 0 1 5
145 2 2 7.8 0 0 0 0 1 5
81 2 2.8 7.4 0 0 0 0 0.987239 5
115 2 2.8 7.6 0 0 0 0 1 5
80 2 2.6 7.4 0 0 0 0 0.998837 5
149 2 2.8 7.8 0 0 0 0 1 5
148 2 2.6 7.8 0 0 0 0 1 5
114 2 2.6 7.6 0 0 0 0 1 5
179 2 2 8 0 0 0 0 1 5
180 2 2.2 8 0 0 0 0 1 5
181 2 2.4 8 0 0 0 0 1 5
213 2 2 8.2 0 0 0 0 1 5
214 2 2.2 8.2 0 0 0 0 1 5
215 2 2.4 8.2 0 0 0 0 1 5
182 2 2.6 8 0 0 0 0 1 5
183 2 2.8 8 0 0 0 0 1 5
216 2 2.6 8.2 0 0 0 0 1 5
217 2 2.8 8.2 0 0 0 0 1 5
247 2 2 8.4 0 0 0 0 1 5
283 2 2.4 8.6 0 0 0 0 1 5
282 2 2.2 8.6 0 0 0 0 1 5
281 2 2 8.6 0 0 0 0 1 5
249 2 2.4 8.4 0 0 0 0 1 5
248 2 2.2 8.4 0 0 0 0 1 5
285 2 2.8 8.6 0 0 0 0 1 5
284 2 2.6 8.6 0 0 0 0 1 5
251 2 2.8 8.4 0 0 0 0 1 5
250 2 2.6 8.4 0 0 0 0 1 5
350 2 2.2 9 0 0 0 0 1 5
351 2 2.4 9 0 0 0 0 1 5
315 2 2 8.8 0 0 0 0 1 5
316 2 2.2 8.8 0 0 0 0 1 5
317 2 2.4 8.8 0 0 0 0 1 5
349 2 2 9 0 0 0 0 1 5
353 2 2.8 9 0 0 0 0 1 5
352 2 2.6 9 0 0 0 0 1 5
319 2 2.8 8.8 0 0 0 0 1 5
318 2 2.6 8.8 0 0 0 0 1 5
419 2 2.4 9.4 0 0 0 0 1 5
385 2 2.4 9.2 0 0 0 0 1 5
417 2 2 9.4 0 0 0 0 1 5
418 2 2.2 9.4 0 0 0 0 1 5
384 2 2.2 9.2 0 0 0 0 1 5
383 2 2 9.2 0 0 0 0 1 5
421 2 2.8 9.4 0 0 0 0 1 5
2569 1 1.80138 0.507445 0.02 0 0 0 1 2
2570 1 1.76893 0.70355 0.02 0 0 0 1 2
2601 1 1.7873 1.67923 0.02 0 0 0 1 2
2602 1 1.80792 1.48293 0.02 0 0 0 1 2
2618 1 1.78559 1.87619 0.02 0 0 0 1 2
2790 1 1.79226 6.73942 0.02 0 -0.00189008 0.000532139 1 2
2619 1 1.80293 2.07661 0.02 0 0 0 1 2
2634 1 1.82037 2.28862 0.02 0 0 0 1 2
2635 1 1.82149 2.51709 0.02 0 0 0 1 2
2582 1 1.70076 1.10144 0.02 0 0 0 1 2
2584 1 1.74099 0.902173 0.02 0 0 0 1 2
2788 1 1.75141 6.55907 0.02 0 7.77326e-06 -8.41403e-05 1 2
2759 1 1.75182 5.82122 0.02 0 6.50818e-15 -3.18281e-13 1 2
2775 1 1.73905 6.37972 0.02 0 4.27264e-06 -1.18765e-05 1 2
2649 1 1.69674 2.74907 0.02 0 0 0 1 2
2650 1 1.75084 2.96908 0.02 0 0 0 1 2
2682 1 1.69021 3.84482 0.02 0 0 0 1 2
2696 1 1.72184 4.04592 0.02 0 0 0 1 2
2698 1 1.70361 4.24647 0.02 0 0 0 1 2
2745 1 1.74481 5.62374 0.02 0 0 0 1 2
2744 1 1.74522 5.42278 0.02 0 0 0 1 2
2742 1 1.74764 5.22476 0.02 0 0 0 1 2
2711 1 1.72697 4.63595 0.02 0 0 0 1 2
2773 1 1.7483 6.20081 0.02 0 4.50166e-08 -1.49455e-07 1 2
2727 1 1.73029 4.83495 0.02 0 0 0 1 2
2729 1 1.72968 5.03095 0.02 0 0 0 1 2
2551 1 1.64326 0.0421228 0.02 0 0 0 1 2
2553 1 1.63332 0.24089 0.02 0 0 0 1 2
2585 1 1.64198 1.29651 0.02 0 0 0 1 2
2617 1 1.61657 2.11354 0.02 0 0 0 1 2
2632 1 1.63996 2.33175 0.02 0 0 0 1 2
2633 1 1.64299 2.54629 0.02 0 0 0 1 2
2666 1 1.65089 3.44286 0.02 0 0 0 1 2
2680 1 1.6445 3.64778 0.02 0 0 0 1 2
2566 1 1.61097 0.443733 0.02 0 0 0 1 2
2567 1 1.57558 0.64725 0.02 0 0 0 1 2
2709 1 1.56274 4.44368 0.02 0 0 0 1 2
2568 1 1.55175 0.853684 0.02 0 0 0 1 2
2743 1 1.55114 5.46734 0.02 0 0 0 1 2
2789 1 1.60003 6.77117 0.02 0 -0.000352647 0.000187046 1 2
2787 1 1.55787 6.58209 0.02 0 -9.79218e-07 1.39674e-09 1 2
2599 1 1.6051 1.49772 0.02 0 0 0 1 2
2600 1 1.58579 1.7002 0.02 0 0 0 1 2
2615 1 1.58521 1.90348 0.02 0 0 0 1 2
2757 1 1.54316 5.66704 0.02 0 0 0 1 2
2760 1 1.55374 6.04612 0.02 0 0 0 1 2
2648 1 1.58253 3.02991 0.02 0 0 0 1 2
2758 1 1.55205 5.85877 0.02 0 0 0 1 2
2664 1 1.59461 3.24171 0.02 0 0 0 1 2
2741 1 1.54787 5.26002 0.02 0 0 0 1 2
2697 1 1.50309 4.2461 0.02 0 0 0 1 2
2774 1 1.52628 6.40299 0.02 0 1.76534e-09 -4.04675e-09 1 2
2695 1 1.52596 4.04207 0.02 0 0 0 1 2
2581 1 1.51091 1.05738 0.02 0 0 0 1 2
2726 1 1.53181 4.84638 0.02 0 0 0 1 2
2681 1 1.48347 3.84484 0.02 0 0 0 1 2
2728 1 1.52871 5.05475 0.02 0 0 0 1 2
2710 1 1.5255 4.64373 0.02 0 0 0 1 2
2772 1 1.52777 6.22473 0.02 0 4.97996e-11 -1.69316e-10 1 2
2647 1 1.52986 2.80179 0.02 0 0 0 1 2
1583 2 3.2 -9.6 0 0 0 0 1 5
1582 2 3 -9.6 0 0 0 0 1 5
1549 2 3.2 -9.8 0 0 0 0 1 5
1548 2 3 -9.8 0 0 0 0 1 5
1515 2 3.2 -10 0 0 0 0 1 5
1514 2 3 -10 0 0 0 0 1 5
1584 2 3.4 -9.6 0 0 0 0 1 5
1550 2 3.4 -9.8 0 0 0 0 1 5
1516 2 3.4 -10 0 0 0 0 1 5
1586 2 3.8 -9.6 0 0 0 0 1 5
1585 2 3.6 -9.6 0 0 0 0 1 5
1552 2 3.8 -9.8 0 0 0 0 1 5
1551 2 3.6 -9.8 0 0 0 0 1 5
1518 2 3.8 -10 0 0 0 0 1 5
1517 2 3.6 -10 0 0 0 0 1 5
1588 2 4.2 -9.6 0 0 0 0 1 5
1587 2 4 -9.6 0 0 0 0 1 5
1554 2 4.2 -9.8 0 0 0 0 1 5
1553 2 4 -9.8 0 0 0 0 1 5
1520 2 4.2 -10 0 0 0 0 1 5
1519 2 4 -10 0 0 0 0 1 5
1616 2 3 -9.4 0 0 0 0 1 5
1617 2 3.2 -9.4 0 0 0 0 1 5
1651 2 3.2 -9.2 0 0 0 0 1 5
1650 2 3 -9.2 0 0 0 0 1 5
1652 2 3.4 -9.2 0 0 0 0 1 5
1618 2 3.4 -9.4 0 0 0 0 1 5
1653 2 3.6 -9.2 0 0 0 0 1 5
1654 2 3.8 -9.2 0 0 0 0 1 5
1620 2 3.8 -9.4 0 0 0 0 1 5
1619 2 3.6 -9.4 0 0 0 0 1 5
1622 2 4.2 -9.4 0 0 0 0 1 5
1655 2 4 -9.2 0 0 0 0 1 5
1656 2 4.2 -9.2 0 0 0 0 1 5
1621 2 4 -9.4 0 0 0 0 1 5
1719 2 3.2 -8.8 0 0 0 0 1 5
1718 2 3 -8.8 0 0 0 0 1 5
1685 2 3.2 -9 0 0 0 0 1 5
1684 2 3 -9 0 0 0 0 1 5
1686 2 3.4 -9 0 0 0 0 1 5
1720 2 3.4 -8.8 0 0 0 0 1 5
1687 2 3.6 -9 0 0 0 0 1 5
1688 2 3.8 -9 0 0 0 0 1 5
1721 2 3.6 -8.8 0 0 0 0 1 5
1722 2 3.8 -8.8 0 0 0 0 1 5
1689 2 4 -9 0 0 0 0 1 5
1690 2 4.2 -9 0 0 0 0 1 5
1723 2 4 -8.8 0 0 0 0 1 5
1724 2 4.2 -8.8 0 0 0 0 1 5
1752 2 3 -8.6 0 0 0 0 1 5
1753 2 3.2 -8.6 0 0 0 0 1 5
1786 2 3 -8.4 0 0 0 0 1 5
1787 2 3.2 -8.4 0 0 0 0 1 5
1754 2 3.4 -8.6 0 0 0 0 1 5
1788 2 3.4 -8.4 0 0 0 0 1 5
1755 2 3.6 -8.6 0 0 0 0 1 5
1756 2 3.8 -8.6 0 0 0 0 1 5
1789 2 3.6 -8.4 0 0 0 0 1 5
1790 2 3.8 -8.4 0 0 0 0 1 5
1757 2 4 -8.6 0 0 0 0 1 5
1758 2 4.2 -8.6 0 0 0 0 1 5
1791 2 4 -8.4 0 0 0 0 1 5
1792 2 4.2 -8.4 0 0 0 0 1 5
1820 2 3 -8.2 0 0 0 0 1 5
1821 2 3.2 -8.2 0 0 0 0 1 5
1854 2 3 -8 0 0 0 0 1 5
1855 2 3.2 -8 0 0 0 0 1 5
1822 2 3.4 -8.2 0 0 0 0 1 5
1856 2 3.4 -8 0 0 0 0 1 5
1823 2 3.6 -8.2 0 0 0 0 1 5
1824 2 3.8 -8.2 0 0 0 0 1 5
1857 2 3.6 -8 0 0 0 0 1 5
1858 2 3.8 -8 0 0 0 0 1 5
1825 2 4 -8.2 0 0 0 0 1 5
1826 2 4.2 -8.2 0 0 0 0 1 5
1859 2 4 -8 0 0 0 0 1 5
1860 2 4.2 -8 0 0 0 0 1 5
1888 2 3 -7.8 0 0 0 0 1 5
1889 2 3.2 -7.8 0 0 0 0 1 5
1922 2 3 -7.6 0 0 0 0 1 5
1923 2 3.2 -7.6 0 0 0 0 1 5
1956 2 3 -7.4 0 0 0 0 1.01275 5
1957 2 3.2 -7.4 0 0 0 0 1.00113 5
1890 2 3.4 -7.8 0 0 0 0 1 5
1924 2 3.4 -7.6 0 0 0 0 1 5
1958 2 3.4 -7.4 0 0 0 0 1.00073 5
1891 2 3.6 -7.8 0 0 0 0 1 5
1892 2 3.8 -7.8 0 0 0 0 1 5
1925 2 3.6 -7.6 0 0 0 0 1 5
1926 2 3.8 -7.6 0 0 0 0 1 5
1959 2 3.6 -7.4 0 0 0 0 0.999479 5
1960 2 3.8 -7.4 0 0 0 0 1.00059 5
1893 2 4 -7.8 0 0 0 0 1 5
1894 2 4.2 -7.8 0 0 0 0 1 5
1927 2 4 -7.6 0 0 0 0 1 5
1928 2 4.2 -7.6 0 0 0 0 1 5
1961 2 4 -7.4 0 0 0 0 0.998364 5
1962 2 4.2 -7.4 0 0 0 0 1.00381 5
1990 2 3 -7.2 0 0 0 0 1.01066 5
1991 2 3.2 -7.2 0 0 0 0 1.00405 5
2024 2 3 -7 0 0 0 0 1.00865 5
2025 2 3.2 -7 0 0 0 0 1.00461 5
1992 2 3.4 -7.2 0 0 0 0 0.999677 5
2026 2 3.4 -7 0 0 0 0 1.00047 5
1993 2 3.6 -7.2 0 0 0 0 0.999841 5
1994 2 3.8 -7.2 0 0 0 0 1.00088 5
2027 2 3.6 -7 0 0 0 0 0.999979 5
2028 2 3.8 -7 0 0 0 0 1.00084 5
1995 2 4 -7.2 0 0 0 0 1.00184 5
1996 2 4.2 -7.2 0 0 0 0 1.00115 5
2029 2 4 -7 0 0 0 0 1.00225 5
2030 2 4.2 -7 0 0 0 0 1.00025 5
2405 1 3.66837 -6.55898 0.02 0 -9.40885e-06 0.000535226 1 2
2403 1 3.62134 -6.73795 0.02 0 -0.00307139 -0.000573799 1 2
2404 1 3.46221 -6.57021 0.02 0 0.000235805 0.000550502 1 2
2402 1 3.42252 -6.7545 0.02 0 -0.00261537 -0.000434162 1 2
2406 1 3.7971 -6.75641 0.0163782 0 -0.00183775 -0.000402447 1 2
2409 1 4.0458 -6.56457 0.0186641 0 3.8867e-05 0.000464536 1 2
2407 1 3.95469 -6.75355 0.0159598 0 -0.00246011 -0.000461242 1 2
2408 1 3.86089 -6.56659 0.0194272 0 -7.35648e-05 0.000454019 1 2
2410 1 4.11512 -6.74256 0.0163212 0 -0.00337819 -0.000601518 1 2
2412 1 4.2318 -6.56 0.0189556 0 -4.9446e-05 0.000579923 1 2
2411 1 4.25161 -6.75576 0.0156689 0 -0.00327261 9.3771e-06 1 2
2297 1 3.67568 -0.312394 0.02 0 4.73485e-21 -2.49542e-20 1 2
2414 1 4.374 -6.76076 0.0155187 0 -0.0024014 3.37581e-05 1 2
2365 1 3.21955 -1.87308 0.02 0 -4.01752e-19 1.41882e-20 1 2