ITEM: TIMESTEP
59000
ITEM: NUMBER OF ATOMS
1179
ITEM: BOX BOUNDS ff ff pp
0.0000000000000000e+00 4.4000000000000004e+00
-1.0000000000000000e+01 1.0000000000000000e+01
-2.0000000000000000e-02 2.0000000000000000e-02
ITEM: ATOMS id type x y vx vy fx fy c_den c_phase
1509 2 2 -10 0 0 0 0 1 5
1510 2 2.2 -10 0 0 0 0 1 5
1511 2 2.4 -10 0 0 0 0 1 5
1543 2 2 -9.8 0 0 0 0 1 5
1544 2 2.2 -9.8 0 0 0 0 1 5
1545 2 2.4 -9.8 0 0 0 0 1 5
1577 2 2 -9.6 0 0 0 0 1 5
1578 2 2.2 -9.6 0 0 0 0 1 5
1579 2 2.4 -9.6 0 0 0 0 1 5
1512 2 2.6 -10 0 0 0 0 1 5
1513 2 2.8 -10 0 0 0 0 1 5
1546 2 2.6 -9.8 0 0 0 0 1 5
1547 2 2.8 -9.8 0 0 0 0 1 5
1580 2 2.6 -9.6 0 0 0 0 1 5
1581 2 2.8 -9.6 0 0 0 0 1 5
1645 2 2 -9.2 0 0 0 0 1 5
1646 2 2.2 -9.2 0 0 0 0 1 5
1647 2 2.4 -9.2 0 0 0 0 1 5
1613 2 2.4 -9.4 0 0 0 0 1 5
1612 2 2.2 -9.4 0 0 0 0 1 5
1611 2 2 -9.4 0 0 0 0 1 5
1648 2 2.6 -9.2 0 0 0 0 1 5
1649 2 2.8 -9.2 0 0 0 0 1 5
1615 2 2.8 -9.4 0 0 0 0 1 5
1614 2 2.6 -9.4 0 0 0 0 1 5
1679 2 2 -9 0 0 0 0 1 5
1680 2 2.2 -9 0 0 0 0 1 5
1681 2 2.4 -9 0 0 0 0 1 5
1713 2 2 -8.8 0 0 0 0 1 5
1714 2 2.2 -8.8 0 0 0 0 1 5
1715 2 2.4 -8.8 0 0 0 0 1 5
1682 2 2.6 -9 0 0 0 0 1 5
1683 2 2.8 -9 0 0 0 0 1 5
1716 2 2.6 -8.8 0 0 0 0 1 5
1717 2 2.8 -8.8 0 0 0 0 1 5
1783 2 2.4 -8.4 0 0 0 0 1 5
1782 2 2.2 -8.4 0 0 0 0 1 5
1781 2 2 -8.4 0 0 0 0 1 5
1747 2 2 -8.6 0 0 0 0 1 5
1748 2 2.2 -8.6 0 0 0 0 1 5
1749 2 2.4 -8.6 0 0 0 0 1 5
1785 2 2.8 -8.4 0 0 0 0 1 5
1784 2 2.6 -8.4 0 0 0 0 1 5
1750 2 2.6 -8.6 0 0 0 0 1 5
1751 2 2.8 -8.6 0 0 0 0 1 5
1851 2 2.4 -8 0 0 0 0 1 5
1850 2 2.2 -8 0 0 0 0 1 5
1849 2 2 -8 0 0 0 0 1 5
1817 2 2.4 -8.2 0 0 0 0 1 5
1816 2 2.2 -8.2 0 0 0 0 1 5
1815 2 2 -8.2 0 0 0 0 1 5
1853 2 2.8 -8 0 0 0 0 1 5
1852 2 2.6 -8 0 0 0 0 1 5
1819 2 2.8 -8.2 0 0 0 0 1 5
1818 2 2.6 -8.2 0 0 0 0 1 5
1953 2 2.4 -7.4 0 0 0 0 1.00011 5
1952 2 2.2 -7.4 0 0 0 0 1.00125 5
1951 2 2 -7.4 0 0 0 0 0.999191 5
1919 2 2.4 -7.6 0 0 0 0 1 5
1918 2 2.2 -7.6 0 0 0 0 1 5
1917 2 2 -7.6 0 0 0 0 1 5
1885 2 2.4 -7.8 0 0 0 0 1 5
1884 2 2.2 -7.8 0 0 0 0 1 5
1883 2 2 -7.8 0 0 0 0 1 5
1955 2 2.8 -7.4 0 0 0 0 1.00101 5
1954 2 2.6 -7.4 0 0 0 0 0.999917 5
1921 2 2.8 -7.6 0 0 0 0 1 5
1920 2 2.6 -7.6 0 0 0 0 1 5
1887 2 2.8 -7.8 0 0 0 0 1 5
1886 2 2.6 -7.8 0 0 0 0 1 5
2021 2 2.4 -7 0 0 0 0 0.999356 5
2020 2 2.2 -7 0 0 0 0 1.00026 5
2019 2 2 -7 0 0 0 0 1.00129 5
1987 2 2.4 -7.2 0 0 0 0 0.999003 5
1986 2 2.2 -7.2 0 0 0 0 1.00076 5
1985 2 2 -7.2 0 0 0 0 1.00098 5
2023 2 2.8 -7 0 0 0 0 1.0002 5
2022 2 2.6 -7 0 0 0 0 0.999925 5
1989 2 2.8 -7.2 0 0 0 0 1.00101 5
1988 2 2.6 -7.2 0 0 0 0 0.999976 5
4964 1 2.26466 -6.56659 0.02 0 0.000155737 0.000607275 1 2
4962 1 2.21891 -6.75641 0.02 0 -0.00325668 -0.000652487 1 2
4959 1 2.02134 -6.73795 0.02 0 -0.00331835 -0.000793601 1 2
4961 1 2.06837 -6.55898 0.02 0 8.36188e-05 0.000613499 1 2
4958 1 1.82252 -6.7545 0.02 0 -0.00258235 -0.000804486 1 2
4960 1 1.86221 -6.57021 0.02 0 9.17971e-06 0.000413145 1 2
4968 1 2.65461 -6.56 0.02 0 0.000147339 0.000543648 1 2
4963 1 2.41568 -6.75355 0.02 0 -0.00291292 -0.000601271 1 2
4966 1 2.61439 -6.74256 0.02 0 -0.00260552 -0.000603036 1 2
4965 1 2.46011 -6.56457 0.02 0 0.000153384 0.000583125 1 2
4969 1 2.84501 -6.56034 0.02 0 0.00027966 0.000571645 1 2
4967 1 2.81287 -6.75576 0.02 0 -0.00286279 -0.000626281 1 2
4957 1 1.61881 -6.75534 0.02 0 -0.000632526 -0.00049676 1 2
4923 1 1.6293 -2.07675 0.02 0 0 0 1 2
4978 1 2.2865 -6.37705 0.02 0 0.00010042 0.000170693 1 2
4977 1 2.09538 -6.18987 0.02 0 3.07822e-06 9.87727e-06 1 2
4976 1 2.08227 -6.3754 0.02 0 5.71766e-05 0.000137965 1 2
4974 1 1.87494 -6.38721 0.02 0 2.0718e-05 7.69891e-05 1 2
4975 1 1.88498 -6.20378 0.02 0 5.07395e-07 3.75863e-06 1 2
4982 1 2.68541 -6.37283 0.02 0 9.52973e-05 0.000160509 1 2
4984 1 2.71092 -6.18342 0.02 0 5.99432e-06 1.46276e-05 1 2
4981 1 2.50466 -6.18589 0.02 0 6.17246e-06 1.45611e-05 1 2
4980 1 2.48512 -6.37392 0.02 0 9.57673e-05 0.000157774 1 2
4979 1 2.29877 -6.184 0.02 0 5.84303e-06 1.38311e-05 1 2
4983 1 2.88522 -6.36822 0.02 0 0.000126461 0.000178186 1 2
4985 1 2.91568 -6.17861 0.02 0 5.63798e-06 1.92221e-05 1 2
4992 1 2.27975 -5.99131 0.02 0 3.19479e-08 9.68827e-08 1 2
4993 1 2.22801 -5.80594 0.02 0 4.95775e-11 1.94157e-10 1 2
4990 1 2.02406 -5.81429 0.02 0 3.69893e-11 1.43184e-10 1 2
4991 1 2.07217 -6.00318 0.02 0 2.07179e-08 5.93369e-08 1 2
4988 1 1.86415 -6.01867 0.02 0 1.29787e-09 6.42231e-09 1 2
4989 1 1.82834 -5.82533 0.02 0 8.74773e-14 2.56127e-13 1 2
4996 1 2.69084 -5.99235 0.02 0 2.60157e-08 1.03241e-07 1 2
4998 1 2.66418 -5.80089 0.02 0 2.93525e-11 9.19909e-11 1 2
4995 1 2.4866 -5.99936 0.02 0 3.50624e-08 1.22554e-07 1 2
4994 1 2.44787 -5.81645 0.02 0 6.92621e-11 2.33675e-10 1 2
4999 1 2.87718 -5.80157 0.02 0 1.9977e-11 9.17742e-11 1 2
4997 1 2.89577 -5.99012 0.02 0 1.66269e-08 1.41641e-07 1 2
5008 1 2.24476 -5.61413 0.02 0 0 0 1 2
5010 1 2.23505 -5.41546 0.02 0 0 0 1 2
5005 1 2.04364 -5.61653 0.02 0 0 0 1 2
5006 1 2.03984 -5.41725 0.02 0 0 0 1 2
5007 1 2.02118 -5.21795 0.02 0 0 0 1 2
5001 1 1.84448 -5.62334 0.02 0 0 0 1 2
5003 1 1.84464 -5.41999 0.02 0 0 0 1 2
5012 1 2.41468 -5.2373 0.02 0 0 0 1 2
5011 1 2.43268 -5.43551 0.02 0 0 0 1 2
5015 1 2.62225 -5.38976 0.02 0 0 0 1 2
5013 1 2.63655 -5.60063 0.02 0 0 0 1 2
5009 1 2.44388 -5.63003 0.02 0 0 0 1 2
5016 1 2.81368 -5.40561 0.02 0 0 0 1 2
5014 1 2.82883 -5.61078 0.02 0 0 0 1 2
4921 1 1.61955 -1.87308 0.02 0 0 0 1 2
4986 1 1.63864 -5.85696 0.02 0 0 0 1 2
5024 1 2.21743 -5.21275 0.02 0 0 0 1 2
5025 1 2.18605 -5.00858 0.02 0 0 0 1 2
5027 1 2.16794 -4.8102 0.02 0 0 0 1 2
5022 1 1.9947 -5.01454 0.02 0 0 0 1 2
5023 1 1.97447 -4.80046 0.02 0 0 0 1 2
5019 1 1.82809 -5.2099 0.02 0 0 0 1 2
5021 1 1.8078 -4.99268 0.02 0 0 0 1 2
5028 1 2.36821 -4.82078 0.02 0 0 0 1 2
5026 1 2.3779 -5.03372 0.02 0 0 0 1 2
5029 1 2.59884 -5.1777 0.02 0 0 0 1 2
5031 1 2.56099 -4.97252 0.02 0 0 0 1 2
5032 1 2.75626 -4.99144 0.02 0 0 0 1 2
4987 1 1.65859 -6.0486 0.02 0 4.01641e-09 6.62951e-09 1 2
5030 1 2.79201 -5.19849 0.02 0 0 0 1 2
5035 1 2.95434 -4.99634 0.02 0 0 0 1 2
5000 1 1.65006 -5.64953 0.02 0 0 0 1 2
5033 1 2.78193 -4.7929 0.02 0 0 0 1 2
5046 1 2.23921 -4.42856 0.02 0 0 0 1 2
5044 1 2.19215 -4.61794 0.02 0 0 0 1 2
5043 1 2.04868 -4.37825 0.02 0 0 0 1 2
5040 1 1.99623 -4.58634 0.02 0 0 0 1 2
5042 1 1.8534 -4.36807 0.02 0 0 0 1 2
5039 1 1.80429 -4.57054 0.02 0 0 0 1 2
5045 1 2.39931 -4.61468 0.02 0 0 0 1 2
5051 1 2.62973 -4.3802 0.02 0 0 0 1 2
5049 1 2.60642 -4.58164 0.02 0 0 0 1 2
5047 1 2.4355 -4.40519 0.02 0 0 0 1 2
5048 1 2.57202 -4.77562 0.02 0 0 0 1 2
5052 1 2.8259 -4.39955 0.02 0 0 0 1 2
5050 1 2.81023 -4.59884 0.02 0 0 0 1 2
5002 1 1.65136 -5.44144 0.02 0 0 0 1 2
5004 1 1.64191 -5.23262 0.02 0 0 0 1 2
5061 1 2.26521 -4.22906 0.02 0 0 0 1 2
5063 1 2.2685 -4.02536 0.02 0 0 0 1 2
5059 1 2.07246 -4.17021 0.02 0 0 0 1 2
5060 1 2.08146 -3.95995 0.02 0 0 0 1 2
5056 1 1.87621 -4.16298 0.02 0 0 0 1 2
5058 1 1.88853 -3.95576 0.02 0 0 0 1 2
5067 1 2.64589 -3.97397 0.02 0 0 0 1 2
5065 1 2.6562 -4.17813 0.02 0 0 0 1 2
5064 1 2.45628 -3.97051 0.02 0 0 0 1 2
5062 1 2.46044 -4.18899 0.02 0 0 0 1 2
5068 1 2.84067 -3.99372 0.02 0 0 0 1 2
5066 1 2.85309 -4.1987 0.02 0 0 0 1 2
5020 1 1.62368 -5.01823 0.02 0 0 0 1 2
4938 1 1.6548 -2.27668 0.02 0 0 0 1 2
5077 1 2.28615 -3.8147 0.02 0 0 0 1 2
5078 1 2.28407 -3.59192 0.02 0 0 0 1 2
5075 1 2.10262 -3.75053 0.02 0 0 0 1 2
5076 1 2.099 -3.53879 0.02 0 0 0 1 2
5074 1 1.91004 -3.53709 0.02 0 0 0 1 2
5073 1 1.91094 -3.74794 0.02 0 0 0 1 2
5080 1 2.46715 -3.52636 0.02 0 0 0 1 2
5079 1 2.46491 -3.74165 0.02 0 0 0 1 2
5081 1 2.65449 -3.77151 0.02 0 0 0 1 2
5083 1 2.66099 -3.56777 0.02 0 0 0 1 2
5082 1 2.85274 -3.7928 0.02 0 0 0 1 2
5084 1 2.8571 -3.59027 0.02 0 0 0 1 2
5041 1 1.65398 -4.3673 0.02 0 0 0 1 2
5055 1 1.67962 -4.16107 0.02 0 0 0 1 2
5093 1 2.274 -3.36956 0.02 0 0 0 1 2
5091 1 2.08805 -3.3262 0.02 0 0 0 1 2
5092 1 2.1115 -3.11655 0.02 0 0 0 1 2
5090 1 1.91986 -3.11224 0.02 0 0 0 1 2
5088 1 1.90041 -3.32282 0.02 0 0 0 1 2
5096 1 2.49022 -3.11366 0.02 0 0 0 1 2
5095 1 2.4625 -3.31864 0.02 0 0 0 1 2
5097 1 2.65472 -3.36362 0.02 0 0 0 1 2
5099 1 2.68023 -3.16288 0.02 0 0 0 1 2
5094 1 2.29816 -3.15141 0.02 0 0 0 1 2
5098 1 2.8507 -3.38541 0.02 0 0 0 1 2
5100 1 2.87114 -3.17954 0.02 0 0 0 1 2
5038 1 1.61371 -4.57803 0.02 0 0 0 1 2
5071 1 1.72072 -3.73477 0.02 0 0 0 1 2
4950 1 2.11196 -2.90797 0.02 0 0 0 1 2
4949 1 2.1244 -2.70335 0.02 0 0 0 1 2
4951 1 1.92751 -2.7013 0.02 0 0 0 1 2
4953 1 1.91563 -2.9059 0.02 0 0 0 1 2
4948 1 2.30319 -2.93583 0.02 0 0 0 1 2
4946 1 2.49619 -2.9109 0.02 0 0 0 1 2
4947 1 2.31766 -2.7223 0.02 0 0 0 1 2
4942 1 2.71173 -2.75416 0.02 0 0 0 1 2
4944 1 2.68776 -2.95758 0.02 0 0 0 1 2
4945 1 2.51507 -2.71423 0.02 0 0 0 1 2
4943 1 2.88182 -2.97456 0.02 0 0 0 1 2
4941 1 2.9108 -2.77688 0.02 0 0 0 1 2
4934 1 2.28741 -2.51435 0.02 0 0 0 1 2
4933 1 2.24118 -2.31522 0.02 0 0 0 1 2
4935 1 2.08548 -2.50191 0.02 0 0 0 1 2
4936 1 2.04076 -2.30053 0.02 0 0 0 1 2
4940 1 1.88772 -2.49402 0.02 0 0 0 1 2
4937 1 1.84734 -2.27951 0.02 0 0 0 1 2
4932 1 2.44757 -2.32364 0.02 0 0 0 1 2
4931 1 2.48769 -2.51716 0.02 0 0 0 1 2
4928 1 2.65639 -2.3414 0.02 0 0 0 1 2
4930 1 2.68652 -2.54567 0.02 0 0 0 1 2
4926 1 2.85386 -2.17957 0.02 0 0 0 1 2
4929 1 2.88355 -2.57643 0.02 0 0 0 1 2
4927 1 2.85988 -2.37639 0.02 0 0 0 1 2
5072 1 1.72242 -3.51789 0.02 0 0 0 1 2
4956 1 1.6458 -6.58047 0.02 0 0.000136366 9.91065e-05 1 2
4917 1 2.24288 -2.11789 0.02 0 0 0 1 2
4916 1 2.21829 -1.92107 0.02 0 0 0 1 2
4919 1 2.03726 -2.09908 0.02 0 0 0 1 2
4918 1 2.01473 -1.89697 0.02 0 0 0 1 2
4922 1 1.83365 -2.07103 0.02 0 0 0 1 2
4920 1 1.81674 -1.86633 0.02 0 0 0 1 2
4912 1 2.63493 -1.94749 0.02 0 0 0 1 2
4914 1 2.44728 -2.12962 0.02 0 0 0 1 2
4915 1 2.42527 -1.93408 0.02 0 0 0 1 2
4913 1 2.65056 -2.1438 0.02 0 0 0 1 2
4910 1 2.57542 -1.75619 0.02 0 0 0 1 2
4911 1 2.83962 -1.97973 0.02 0 0 0 1 2
4909 1 2.78601 -1.77807 0.02 0 0 0 1 2
4954 1 1.71798 -2.89186 0.02 0 0 0 1 2
4952 1 1.72794 -2.69006 0.02 0 0 0 1 2
4900 1 2.15567 -1.52449 0.02 0 0 0 1 2
4902 1 2.16662 -1.7222 0.02 0 0 0 1 2
4898 1 2.10843 -1.32959 0.02 0 0 0 1 2
4905 1 1.96619 -1.68959 0.02 0 0 0 1 2
4903 1 1.94151 -1.4917 0.02 0 0 0 1 2
4901 1 2.3687 -1.73756 0.02 0 0 0 1 2
4896 1 2.56647 -1.56022 0.02 0 0 0 1 2
4894 1 2.51346 -1.36505 0.02 0 0 0 1 2
4899 1 2.36184 -1.53732 0.02 0 0 0 1 2
4897 1 2.30897 -1.33421 0.02 0 0 0 1 2
4893 1 2.71665 -1.36783 0.02 0 0 0 1 2
4895 1 2.76359 -1.57395 0.02 0 0 0 1 2
4892 1 2.9152 -1.37324 0.02 0 0 0 1 2
4891 1 2.95699 -1.5817 0.02 0 0 0 1 2
4883 1 2.28763 -1.12377 0.02 0 0 0 1 2
4881 1 2.26575 -0.904502 0.02 0 0 0 1 2
4884 1 2.09247 -1.12903 0.02 0 0 0 1 2
4882 1 2.07272 -0.927203 0.02 0 0 0 1 2
4885 1 1.87733 -0.894216 0.02 0 0 0 1 2
4887 1 1.89024 -1.09279 0.02 0 0 0 1 2
4889 1 1.90789 -1.29234 0.02 0 0 0 1 2
4880 1 2.4857 -1.16744 0.02 0 0 0 1 2
4879 1 2.45248 -0.964751 0.02 0 0 0 1 2
4878 1 2.68472 -1.16418 0.02 0 0 0 1 2
4877 1 2.65298 -0.967041 0.02 0 0 0 1 2
5089 1 1.72568 -3.09498 0.02 0 0 0 1 2
4875 1 2.85897 -0.9547 0.02 0 0 0 1 2
4876 1 2.87914 -1.16392 0.02 0 0 0 1 2
4866 1 2.28878 -0.49582 0.02 0 0 0 1 2
4867 1 2.0919 -0.517524 0.02 0 0 0 1 2
4869 1 2.0951 -0.722022 0.02 0 0 0 1 2
4870 1 1.89334 -0.507391 0.02 0 0 0 1 2
4872 1 1.8894 -0.701356 0.02 0 0 0 1 2
4868 1 2.29512 -0.698459 0.02 0 0 0 1 2
4862 1 2.67159 -0.574605 0.02 0 0 0 1 2
4863 1 2.68115 -0.773748 0.02 0 0 0 1 2
4864 1 2.4811 -0.538324 0.02 0 0 0 1 2
4865 1 2.48344 -0.757755 0.02 0 0 0 1 2
5087 1 1.71446 -3.30217 0.02 0 0 0 1 2
5057 1 1.69712 -3.95057 0.02 0 0 0 1 2
4861 1 2.87413 -0.741933 0.02 0 0 0 1 2
4860 1 2.86144 -0.530511 0.02 0 0 0 1 2
4852 1 2.27388 -0.295322 0.02 0 0 0 1 2
4850 1 2.25314 -0.094678 0.02 0 0 0 1 2
4853 1 2.07568 -0.312394 0.02 0 0 0 1 2
4851 1 2.0598 -0.106487 0.02 0 0 0 1 2
4856 1 1.87504 -0.308611 0.02 0 0 0 1 2
4854 1 1.86873 -0.102094 0.02 0 0 0 1 2
4849 1 2.46935 -0.31991 0.02 0 0 0 1 2
4848 1 2.44679 -0.10337 0.02 0 0 0 1 2
4847 1 2.65875 -0.365805 0.02 0 0 0 1 2
4846 1 2.6355 -0.15 0.02 0 0 0 1 2
4844 1 2.8495 -0.32819 0.02 0 0 0 1 2
4845 1 2.82811 -0.131593 0.02 0 0 0 1 2
4939 1 1.6952 -2.48392 0.02 0 0 0 1 2
4857 1 1.66582 -0.329982 0.02 0 0 0 1 2
5037 1 1.78583 -4.77962 0.02 0 0 0 1 2
4906 1 1.76308 -1.66502 0.02 0 0 0 1 2
4904 1 1.73326 -1.46594 0.02 0 0 0 1 2
4972 1 1.66308 -6.2288 0.02 0 8.6198e-07 1.03832e-06 1 2
4871 1 1.68983 -0.514518 0.02 0 0 0 1 2
4886 1 1.67797 -0.880323 0.02 0 0 0 1 2
4890 1 1.70798 -1.26707 0.02 0 0 0 1 2
4888 1 1.68404 -1.07209 0.02 0 0 0 1 2
4873 1 1.66699 -0.695724 0.02 0 0 0 1 2
4855 1 1.67229 -0.141758 0.02 0 0 0 1 2
4973 1 1.67257 -6.4079 0.02 0 2.92063e-05 2.85334e-05 1 2
4846 1 2.24223 0.107583 0.02 0 0 0 1 2
4848 1 2.24669 0.312641 0.02 0 0 0 1 2
4847 1 2.05917 0.320533 0.02 0 0 0 1 2
4849 1 2.05483 0.105539 0.02 0 0 0 1 2
4843 1 1.87162 0.336851 0.02 0 0 0 1 2
4845 1 1.87101 0.118798 0.02 0 0 0 1 2
4851 1 2.43107 0.116355 0.02 0 0 0 1 2
4850 1 2.4325 0.337272 0.02 0 0 0 1 2
4853 1 2.61447 0.0680014 0.02 0 0 0 1 2
4852 1 2.61253 0.287368 0.02 0 0 0 1 2
4855 1 2.80528 0.0658033 0.02 0 0 0 1 2
4854 1 2.79955 0.26968 0.02 0 0 0 1 2
4937 1 1.59967 2.63076 0.02 0 0 0 1 2
4860 1 1.60926 0.705152 0.02 0 0 0 1 2
4864 1 2.24547 0.523799 0.02 0 0 0 1 2
4865 1 2.18859 0.730074 0.02 0 0 0 1 2
4863 1 2.05214 0.528996 0.02 0 0 0 1 2
4862 1 1.99076 0.728702 0.02 0 0 0 1 2
4859 1 1.85477 0.544272 0.02 0 0 0 1 2
4866 1 2.38505 0.744519 0.02 0 0 0 1 2
4869 1 2.58585 0.729522 0.02 0 0 0 1 2
4868 1 2.62224 0.508407 0.02 0 0 0 1 2
4867 1 2.43594 0.547152 0.02 0 0 0 1 2
4870 1 2.77759 0.691172 0.02 0 0 0 1 2
4939 1 1.63753 2.80986 0.02 0 0 0 1 2
4871 1 2.81063 0.478725 0.02 0 0 0 1 2
4873 1 2.97485 0.677999 0.02 0 0 0 1 2
4878 1 2.2125 0.935026 0.02 0 0 0 1 2
4879 1 2.19218 1.13418 0.02 0 0 0 1 2
4876 1 2.01061 0.925911 0.02 0 0 0 1 2
4877 1 1.98814 1.12143 0.02 0 0 0 1 2
4874 1 1.80264 0.941402 0.02 0 0 0 1 2
4881 1 2.39863 1.13869 0.02 0 0 0 1 2
4883 1 2.61182 1.13047 0.02 0 0 0 1 2
4882 1 2.60684 0.934024 0.02 0 0 0 1 2
4880 1 2.41181 0.942347 0.02 0 0 0 1 2
4885 1 2.77783 1.29598 0.02 0 0 0 1 2
4886 1 2.81642 1.1014 0.02 0 0 0 1 2
4884 1 2.79711 0.898345 0.02 0 0 0 1 2
4923 1 1.62367 2.27614 0.02 0 0 0 1 2
4924 1 1.63124 2.4548 0.02 0 0 0 1 2
4972 1 1.61859 3.55811 0.02 0 0 0 1 2
4896 1 2.14647 1.32832 0.02 0 0 0 1 2
4897 1 2.12111 1.52127 0.02 0 0 0 1 2
4898 1 2.11039 1.71271 0.02 0 0 0 1 2
4895 1 1.94364 1.31688 0.02 0 0 0 1 2
4893 1 1.91645 1.51418 0.02 0 0 0 1 2
4894 1 1.90696 1.71282 0.02 0 0 0 1 2
4903 1 2.53895 1.50616 0.02 0 0 0 1 2
4902 1 2.55805 1.31601 0.02 0 0 0 1 2
4904 1 2.51521 1.69926 0.02 0 0 0 1 2
4899 1 2.31319 1.72513 0.02 0 0 0 1 2
4900 1 2.34934 1.33266 0.02 0 0 0 1 2
4901 1 2.32892 1.52876 0.02 0 0 0 1 2
4906 1 2.7193 1.67815 0.02 0 0 0 1 2
4905 1 2.7478 1.48571 0.02 0 0 0 1 2
4908 1 2.95106 1.48068 0.02 0 0 0 1 2
4907 1 2.92232 1.68009 0.02 0 0 0 1 2
4916 1 2.28765 2.11413 0.02 0 0 0 1 2
4914 1 2.08821 2.09299 0.02 0 0 0 1 2
4913 1 2.09392 1.90235 0.02 0 0 0 1 2
4911 1 1.88225 1.90792 0.02 0 0 0 1 2
4912 1 1.88954 2.10177 0.02 0 0 0 1 2
4920 1 2.69384 2.06691 0.02 0 0 0 1 2
4918 1 2.49062 2.09454 0.02 0 0 0 1 2
4917 1 2.50829 1.89614 0.02 0 0 0 1 2
4915 1 2.30326 1.92009 0.02 0 0 0 1 2
4919 1 2.71322 1.87263 0.02 0 0 0 1 2
4922 1 2.90168 2.064 0.02 0 0 0 1 2
4921 1 2.92156 1.87325 0.02 0 0 0 1 2
4930 1 2.28156 2.48427 0.02 0 0 0 1 2
4927 1 2.08577 2.28195 0.02 0 0 0 1 2
4928 1 2.06701 2.46409 0.02 0 0 0 1 2
4926 1 1.86337 2.46684 0.02 0 0 0 1 2
4925 1 1.84983 2.28563 0.02 0 0 0 1 2
4929 1 2.31084 2.30172 0.02 0 0 0 1 2
4932 1 2.51332 2.48033 0.02 0 0 0 1 2
4931 1 2.51994 2.28888 0.02 0 0 0 1 2
4934 1 2.73089 2.45005 0.02 0 0 0 1 2
4933 1 2.72437 2.25853 0.02 0 0 0 1 2
4936 1 2.949 2.43803 0.02 0 0 0 1 2
4935 1 2.93473 2.25155 0.02 0 0 0 1 2
4945 1 2.15586 2.99621 0.02 0 0 0 1 2
4943 1 2.09678 2.64036 0.02 0 0 0 1 2
4944 1 2.09284 2.8171 0.02 0 0 0 1 2
4942 1 1.9418 2.99988 0.02 0 0 0 1 2
4941 1 1.88366 2.80866 0.02 0 0 0 1 2
4938 1 1.82106 2.63956 0.02 0 0 0 1 2
4948 1 2.36695 3.01138 0.02 0 0 0 1 2
4947 1 2.35254 2.65315 0.02 0 0 0 1 2
4946 1 2.31566 2.82876 0.02 0 0 0 1 2
4951 1 2.56799 3.03992 0.02 0 0 0 1 2
4950 1 2.55394 2.85047 0.02 0 0 0 1 2
4949 1 2.56763 2.66497 0.02 0 0 0 1 2
4953 1 2.76879 3.01719 0.02 0 0 0 1 2
4952 1 2.77412 2.63626 0.02 0 0 0 1 2
4957 1 2.97611 3.00181 0.02 0 0 0 1 2
5050 1 1.68914 5.75532 0.02 0 0 0 1 2
4909 1 1.67086 1.91195 0.02 0 0 0 1 2
4954 1 2.78062 2.82655 0.02 0 0 0 1 2
4963 1 2.18767 3.38149 0.02 0 0 0 1 2
4962 1 2.15132 3.18701 0.02 0 0 0 1 2
4960 1 1.94949 3.19806 0.02 0 0 0 1 2
4961 1 1.98779 3.39618 0.02 0 0 0 1 2
4967 1 2.59771 3.4148 0.02 0 0 0 1 2
4966 1 2.57733 3.22764 0.02 0 0 0 1 2
4965 1 2.39102 3.39844 0.02 0 0 0 1 2
4964 1 2.36034 3.20444 0.02 0 0 0 1 2
4969 1 2.80524 3.40293 0.02 0 0 0 1 2
4968 1 2.79153 3.20956 0.02 0 0 0 1 2
4910 1 1.68281 2.10066 0.02 0 0 0 1 2
4891 1 1.71427 1.52478 0.02 0 0 0 1 2
4977 1 2.24013 3.57987 0.02 0 0 0 1 2
4978 1 2.09728 3.77943 0.02 0 0 0 1 2
4976 1 2.03705 3.59067 0.02 0 0 0 1 2
4975 1 1.88167 3.75439 0.02 0 0 0 1 2
4973 1 1.82667 3.55836 0.02 0 0 0 1 2
4979 1 2.30614 3.7745 0.02 0 0 0 1 2
4981 1 2.65885 3.59964 0.02 0 0 0 1 2
4980 1 2.44727 3.59397 0.02 0 0 0 1 2
4982 1 2.51568 3.78488 0.02 0 0 0 1 2
4983 1 2.7223 3.78818 0.02 0 0 0 1 2
4892 1 1.70411 1.72167 0.02 0 0 0 1 2
4985 1 2.91987 3.7989 0.02 0 0 0 1 2
4984 1 2.86352 3.59667 0.02 0 0 0 1 2
4994 1 2.12935 4.16123 0.02 0 0 0 1 2
4992 1 2.09698 3.97068 0.02 0 0 0 1 2
4988 1 1.8925 3.95088 0.02 0 0 0 1 2
4990 1 1.92345 4.15098 0.02 0 0 0 1 2
4995 1 2.33496 4.17176 0.02 0 0 0 1 2
4993 1 2.30385 3.9719 0.02 0 0 0 1 2
4998 1 2.5385 4.17466 0.02 0 0 0 1 2
4996 1 2.50871 3.97949 0.02 0 0 0 1 2
4999 1 2.74333 4.17477 0.02 0 0 0 1 2
4997 1 2.7175 3.98174 0.02 0 0 0 1 2
5001 1 2.94628 4.19345 0.02 0 0 0 1 2
5000 1 2.92847 3.99767 0.02 0 0 0 1 2
5011 1 2.18746 4.7499 0.02 0 0 0 1 2
5009 1 2.15378 4.55042 0.02 0 0 0 1 2
5007 1 2.14875 4.3547 0.02 0 0 0 1 2
5004 1 1.94946 4.35183 0.02 0 0 0 1 2
5005 1 1.94714 4.55067 0.02 0 0 0 1 2
5006 1 1.99104 4.7463 0.02 0 0 0 1 2
5014 1 2.54891 4.57757 0.02 0 0 0 1 2
5012 1 2.54127 4.37456 0.02 0 0 0 1 2
5008 1 2.34562 4.37884 0.02 0 0 0 1 2
5010 1 2.35479 4.59118 0.02 0 0 0 1 2
5016 1 2.7306 4.77076 0.02 0 0 0 1 2
5015 1 2.74919 4.56951 0.02 0 0 0 1 2
5013 1 2.74209 4.37143 0.02 0 0 0 1 2
5018 1 2.94946 4.58883 0.02 0 0 0 1 2
5017 1 2.94702 4.3903 0.02 0 0 0 1 2
5024 1 2.17722 4.96189 0.02 0 0 0 1 2
5026 1 2.15679 5.18165 0.02 0 0 0 1 2
5021 1 1.97556 5.1407 0.02 0 0 0 1 2
5022 1 1.98093 4.94279 0.02 0 0 0 1 2
5023 1 2.3653 4.82086 0.02 0 0 0 1 2
5027 1 2.54521 4.78906 0.02 0 0 0 1 2
5028 1 2.53927 5.01453 0.02 0 0 0 1 2
5030 1 2.69183 5.19178 0.02 0 0 0 1 2
5025 1 2.35455 5.04089 0.02 0 0 0 1 2
5029 1 2.72385 4.97859 0.02 0 0 0 1 2
5033 1 2.90981 5.00813 0.02 0 0 0 1 2
5032 1 2.91865 4.79343 0.02 0 0 0 1 2
5031 1 2.87836 5.21627 0.02 0 0 0 1 2
5042 1 2.28941 5.64819 0.02 0 0 0 1 2
5041 1 2.09474 5.61046 0.02 0 0 0 1 2
5039 1 2.10935 5.40353 0.02 0 0 0 1 2
5035 1 1.93483 5.34326 0.02 0 0 0 1 2
5037 1 1.90774 5.56701 0.02 0 0 0 1 2
5044 1 2.51273 5.24183 0.02 0 0 0 1 2
5045 1 2.49848 5.44829 0.02 0 0 0 1 2
5043 1 2.48709 5.64948 0.02 0 0 0 1 2
5047 1 2.67781 5.60025 0.02 0 0 0 1 2
5046 1 2.70421 5.40185 0.02 0 0 0 1 2
5040 1 2.29642 5.45106 0.02 0 0 0 1 2
5038 1 2.32727 5.25393 0.02 0 0 0 1 2
5049 1 2.91131 5.41416 0.02 0 0 0 1 2
5048 1 2.87224 5.6108 0.02 0 0 0 1 2
5055 1 2.25628 5.83848 0.02 0 2.55787e-10 -8.35096e-10 1 2
5056 1 2.09103 6.0091 0.02 0 5.37153e-08 -1.75302e-07 1 2
5054 1 2.05964 5.80954 0.02 0 1.69441e-11 -5.45684e-11 1 2
5051 1 1.87295 5.7821 0.02 0 0 0 1 2
5053 1 1.88316 5.98504 0.02 0 6.25807e-09 -1.88212e-08 1 2
5057 1 2.30203 6.02331 0.02 0 1.10009e-07 -2.96786e-07 1 2
5058 1 2.46873 5.83904 0.02 0 1.96735e-10 -6.27185e-10 1 2
5060 1 2.51132 6.0222 0.02 0 1.04329e-07 -2.72906e-07 1 2
5061 1 2.70826 5.98727 0.02 0 3.12699e-08 -7.57819e-08 1 2
5059 1 2.68585 5.79748 0.02 0 3.40047e-11 -1.11184e-10 1 2
5062 1 2.89661 5.8067 0.02 0 9.1913e-11 -2.08887e-10 1 2
5063 1 2.90766 6.00258 0.02 0 7.67544e-08 -1.56165e-07 1 2
5070 1 2.09141 6.38626 0.02 0 0.000114068 -0.000183715 1 2
5068 1 2.10138 6.1991 0.02 0 5.52243e-06 -1.19249e-05 1 2
5065 1 1.8926 6.17564 0.02 0 1.08928e-06 -2.55467e-06 1 2
5067 1 1.88697 6.36341 0.02 0 5.77878e-05 -0.000107851 1 2
5072 1 2.52005 6.20958 0.02 0 1.00328e-05 -1.73006e-05 1 2
5074 1 2.52143 6.39243 0.02 0 0.000121331 -0.00015345 1 2
5069 1 2.31462 6.20609 0.02 0 9.64124e-06 -1.78905e-05 1 2
5071 1 2.29969 6.38403 0.02 0 0.000121419 -0.000166982 1 2
5073 1 2.7192 6.1839 0.02 0 6.73603e-06 -1.16284e-05 1 2
5075 1 2.72182 6.38198 0.02 0 0.00012218 -0.00015363 1 2
5076 1 2.91608 6.20038 0.02 0 1.46286e-05 -2.03603e-05 1 2
5077 1 2.91385 6.40005 0.02 0 0.000233114 -0.000220592 1 2
5084 1 2.13396 6.76272 0.02 0 -0.00357272 0.000486979 1 2
5082 1 2.12962 6.57346 0.02 0 0.000232156 -0.000484198 1 2
5081 1 1.93625 6.73857 0.02 0 -0.00306073 0.000563068 1 2
5079 1 1.93095 6.55154 0.02 0 0.000467009 -0.000591601 1 2
5088 1 2.52346 6.56971 0.02 0 0.000167968 -0.000456436 1 2
5087 1 2.55223 6.745 0.02 0 -0.00284433 0.000506283 1 2
5083 1 2.32488 6.56304 0.02 0 0.000192884 -0.000442253 1 2
5085 1 2.34228 6.74606 0.02 0 -0.00269692 0.000463087 1 2
5086 1 2.7602 6.76717 0.02 0 -0.00292079 0.000550251 1 2
5089 1 2.73197 6.57557 0.02 0 0.000185071 -0.000451032 1 2
5090 1 2.97701 6.76409 0.02 0 -0.00167827 0.000275306 1 2
5091 1 2.93813 6.58361 0.02 0 0.000555298 -0.000640567 1 2
9 2 2 7 0 0 0 0 1.00217 5
10 2 2.2 7 0 0 0 0 0.999274 5
11 2 2.4 7 0 0 0 0 0.999386 5
43 2 2 7.2 0 0 0 0 1.00287 5
44 2 2.2 7.2 0 0 0 0 0.998863 5
45 2 2.4 7.2 0 0 0 0 0.999031 5
47 2 2.8 7.2 0 0 0 0 1.00024 5
12 2 2.6 7 0 0 0 0 1.00078 5
46 2 2.6 7.2 0 0 0 0 1.00177 5
13 2 2.8 7 0 0 0 0 0.999696 5
147 2 2.4 7.8 0 0 0 0 1 5
78 2 2.2 7.4 0 0 0 0 0.995924 5
77 2 2 7.4 0 0 0 0 1.00697 5
79 2 2.4 7.4 0 0 0 0 0.997753 5
145 2 2 7.8 0 0 0 0 1 5
113 2 2.4 7.6 0 0 0 0 1 5
112 2 2.2 7.6 0 0 0 0 1 5
146 2 2.2 7.8 0 0 0 0 1 5
111 2 2 7.6 0 0 0 0 1 5
80 2 2.6 7.4 0 0 0 0 1.00489 5
115 2 2.8 7.6 0 0 0 0 1 5
81 2 2.8 7.4 0 0 0 0 0.998521 5
114 2 2.6 7.6 0 0 0 0 1 5
148 2 2.6 7.8 0 0 0 0 1 5
149 2 2.8 7.8 0 0 0 0 1 5
215 2 2.4 8.2 0 0 0 0 1 5
214 2 2.2 8.2 0 0 0 0 1 5
213 2 2 8.2 0 0 0 0 1 5
181 2 2.4 8 0 0 0 0 1 5
180 2 2.2 8 0 0 0 0 1 5
179 2 2 8 0 0 0 0 1 5
182 2 2.6 8 0 0 0 0 1 5
217 2 2.8 8.2 0 0 0 0 1 5
216 2 2.6 8.2 0 0 0 0 1 5
183 2 2.8 8 0 0 0 0 1 5
248 2 2.2 8.4 0 0 0 0 1 5
249 2 2.4 8.4 0 0 0 0 1 5
281 2 2 8.6 0 0 0 0 1 5
282 2 2.2 8.6 0 0 0 0 1 5
283 2 2.4 8.6 0 0 0 0 1 5
247 2 2 8.4 0 0 0 0 1 5
250 2 2.6 8.4 0 0 0 0 1 5
251 2 2.8 8.4 0 0 0 0 1 5
284 2 2.6 8.6 0 0 0 0 1 5
285 2 2.8 8.6 0 0 0 0 1 5
350 2 2.2 9 0 0 0 0 1 5
349 2 2 9 0 0 0 0 1 5
317 2 2.4 8.8 0 0 0 0 1 5
316 2 2.2 8.8 0 0 0 0 1 5
315 2 2 8.8 0 0 0 0 1 5
351 2 2.4 9 0 0 0 0 1 5
318 2 2.6 8.8 0 0 0 0 1 5
319 2 2.8 8.8 0 0 0 0 1 5
352 2 2.6 9 0 0 0 0 1 5
353 2 2.8 9 0 0 0 0 1 5
384 2 2.2 9.2 0 0 0 0 1 5
418 2 2.2 9.4 0 0 0 0 1 5
383 2 2 9.2 0 0 0 0 1 5
417 2 2 9.4 0 0 0 0 1 5
385 2 2.4 9.2 0 0 0 0 1 5
419 2 2.4 9.4 0 0 0 0 1 5
386 2 2.6 9.2 0 0 0 0 1 5
387 2 2.8 9.2 0 0 0 0 1 5
421 2 2.8 9.4 0 0 0 0 1 5
420 2 2.6 9.4 0 0 0 0 1 5
485 2 2 9.8 0 0 0 0 1 5
451 2 2 9.6 0 0 0 0 1 5
486 2 2.2 9.8 0 0 0 0 1 5
487 2 2.4 9.8 0 0 0 0 1 5
452 2 2.2 9.6 0 0 0 0 1 5
453 2 2.4 9.6 0 0 0 0 1 5
454 2 2.6 9.6 0 0 0 0 1 5
455 2 2.8 9.6 0 0 0 0 1 5
488 2 2.6 9.8 0 0 0 0 1 5
489 2 2.8 9.8 0 0 0 0 1 5
4861 1 1.79386 0.743507 0.02 0 0 0 1 2
5080 1 1.75161 6.73003 0.02 0 -0.00396398 0.00191218 1 2
5078 1 1.73351 6.53654 0.02 0 -2.84512e-05 6.02218e-06 1 2
4875 1 1.78054 1.13505 0.02 0 0 0 1 2
4890 1 1.73653 1.32777 0.02 0 0 0 1 2
4940 1 1.73196 2.97258 0.02 0 0 0 1 2
4959 1 1.78262 3.35953 0.02 0 0 0 1 2
4958 1 1.74451 3.16345 0.02 0 0 0 1 2
5034 1 1.74895 5.35095 0.02 0 0 0 1 2
5019 1 1.77994 4.93604 0.02 0 0 0 1 2
5020 1 1.78233 5.14001 0.02 0 0 0 1 2
5002 1 1.74322 4.54315 0.02 0 0 0 1 2
5003 1 1.78722 4.73823 0.02 0 0 0 1 2
4991 1 1.75339 4.33685 0.02 0 0 0 1 2
4842 1 1.69147 0.270665 0.02 0 0 0 1 2
4987 1 1.68975 3.93519 0.02 0 0 0 1 2
4844 1 1.69078 0.0560054 0.02 0 0 0 1 2
4974 1 1.6717 3.7432 0.02 0 0 0 1 2
4989 1 1.72382 4.13251 0.02 0 0 0 1 2
5036 1 1.71674 5.55378 0.02 0 0 0 1 2
4858 1 1.67184 0.488378 0.02 0 0 0 1 2
5064 1 1.68831 6.14981 0.02 0 0 0 1 2
5052 1 1.67548 5.95702 0.02 0 0 0 1 2
5066 1 1.68528 6.34367 0.02 0 0 0 1 2
1583 2 3.2 -9.6 0 0 0 0 1 5
1582 2 3 -9.6 0 0 0 0 1 5
1549 2 3.2 -9.8 0 0 0 0 1 5
1548 2 3 -9.8 0 0 0 0 1 5
1515 2 3.2 -10 0 0 0 0 1 5
1514 2 3 -10 0 0 0 0 1 5
1584 2 3.4 -9.6 0 0 0 0 1 5
1550 2 3.4 -9.8 0 0 0 0 1 5
1516 2 3.4 -10 0 0 0 0 1 5
1586 2 3.8 -9.6 0 0 0 0 1 5
1585 2 3.6 -9.6 0 0 0 0 1 5
1552 2 3.8 -9.8 0 0 0 0 1 5
1551 2 3.6 -9.8 0 0 0 0 1 5
1518 2 3.8 -10 0 0 0 0 1 5
1517 2 3.6 -10 0 0 0 0 1 5
1588 2 4.2 -9.6 0 0 0 0 1 5
1587 2 4 -9.6 0 0 0 0 1 5
1554 2 4.2 -9.8 0 0 0 0 1 5
1553 2 4 -9.8 0 0 0 0 1 5
1520 2 4.2 -10 0 0 0 0 1 5
1519 2 4 -10 0 0 0 0 1 5
1616 2 3 -9.4 0 0 0 0 1 5
1617 2 3.2 -9.4 0 0 0 0 1 5
1651 2 3.2 -9.2 0 0 0 0 1 5
1650 2 3 -9.2 0 0 0 0 1 5
1652 2 3.4 -9.2 0 0 0 0 1 5
1618 2 3.4 -9.4 0 0 0 0 1 5
1653 2 3.6 -9.2 0 0 0 0 1 5
1654 2 3.8 -9.2 0 0 0 0 1 5
1620 2 3.8 -9.4 0 0 0 0 1 5
1619 2 3.6 -9.4 0 0 0 0 1 5
1622 2 4.2 -9.4 0 0 0 0 1 5
1655 2 4 -9.2 0 0 0 0 1 5
1656 2 4.2 -9.2 0 0 0 0 1 5
1621 2 4 -9.4 0 0 0 0 1 5
1719 2 3.2 -8.8 0 0 0 0 1 5
1718 2 3 -8.8 0 0 0 0 1 5
1685 2 3.2 -9 0 0 0 0 1 5
1684 2 3 -9 0 0 0 0 1 5
1686 2 3.4 -9 0 0 0 0 1 5
1720 2 3.4 -8.8 0 0 0 0 1 5
1687 2 3.6 -9 0 0 0 0 1 5
1688 2 3.8 -9 0 0 0 0 1 5
1721 2 3.6 -8.8 0 0 0 0 1 5
1722 2 3.8 -8.8 0 0 0 0 1 5
1689 2 4 -9 0 0 0 0 1 5
1690 2 4.2 -9 0 0 0 0 1 5
1723 2 4 -8.8 0 0 0 0 1 5
1724 2 4.2 -8.8 0 0 0 0 1 5
1752 2 3 -8.6 0 0 0 0 1 5
1753 2 3.2 -8.6 0 0 0 0 1 5
1786 2 3 -8.4 0 0 0 0 1 5
1787 2 3.2 -8.4 0 0 0 0 1 5
1754 2 3.4 -8.6 0 0 0 0 1 5
1788 2 3.4 -8.4 0 0 0 0 1 5
1755 2 3.6 -8.6 0 0 0 0 1 5
1756 2 3.8 -8.6 0 0 0 0 1 5
1789 2 3.6 -8.4 0 0 0 0 1 5
1790 2 3.8 -8.4 0 0 0 0 1 5
1757 2 4 -8.6 0 0 0 0 1 5
1758 2 4.2 -8.6 0 0 0 0 1 5
1791 2 4 -8.4 0 0 0 0 1 5
1792 2 4.2 -8.4 0 0 0 0 1 5
1820 2 3 -8.2 0 0 0 0 1 5
1821 2 3.2 -8.2 0 0 0 0 1 5
1854 2 3 -8 0 0 0 0 1 5
1855 2 3.2 -8 0 0 0 0 1 5
1822 2 3.4 -8.2 0 0 0 0 1 5
1856 2 3.4 -8 0 0 0 0 1 5
1823 2 3.6 -8.2 0 0 0 0 1 5
1824 2 3.8 -8.2 0 0 0 0 1 5
1857 2 3.6 -8 0 0 0 0 1 5
1858 2 3.8 -8 0 0 0 0 1 5
1825 2 4 -8.2 0 0 0 0 1 5
1826 2 4.2 -8.2 0 0 0 0 1 5
1859 2 4 -8 0 0 0 0 1 5
1860 2 4.2 -8 0 0 0 0 1 5
1888 2 3 -7.8 0 0 0 0 1 5
1889 2 3.2 -7.8 0 0 0 0 1 5
1922 2 3 -7.6 0 0 0 0 1 5
1923 2 3.2 -7.6 0 0 0 0 1 5
1956 2 3 -7.4 0 0 0 0 1.0005 5
1957 2 3.2 -7.4 0 0 0 0 0.988876 5
1890 2 3.4 -7.8 0 0 0 0 1 5
1924 2 3.4 -7.6 0 0 0 0 1 5
1958 2 3.4 -7.4 0 0 0 0 1.01374 5
1891 2 3.6 -7.8 0 0 0 0 1 5
1892 2 3.8 -7.8 0 0 0 0 1 5
1925 2 3.6 -7.6 0 0 0 0 1 5
1926 2 3.8 -7.6 0 0 0 0 1 5
1959 2 3.6 -7.4 0 0 0 0 1.00404 5
1960 2 3.8 -7.4 0 0 0 0 0.999801 5
1893 2 4 -7.8 0 0 0 0 1 5
1894 2 4.2 -7.8 0 0 0 0 1 5
1927 2 4 -7.6 0 0 0 0 1 5
1928 2 4.2 -7.6 0 0 0 0 1 5
1961 2 4 -7.4 0 0 0 0 1.00044 5
1962 2 4.2 -7.4 0 0 0 0 0.999408 5
1990 2 3 -7.2 0 0 0 0 0.997189 5
1991 2 3.2 -7.2 0 0 0 0 0.988757 5
2024 2 3 -7 0 0 0 0 0.996524 5
2025 2 3.2 -7 0 0 0 0 0.990138 5
1992 2 3.4 -7.2 0 0 0 0 1.01144 5
2026 2 3.4 -7 0 0 0 0 1.00947 5
1993 2 3.6 -7.2 0 0 0 0 1.00405 5
1994 2 3.8 -7.2 0 0 0 0 1.00051 5
2027 2 3.6 -7 0 0 0 0 1.00411 5
2028 2 3.8 -7 0 0 0 0 1.00096 5
1995 2 4 -7.2 0 0 0 0 1.00146 5
1996 2 4.2 -7.2 0 0 0 0 0.99988 5
2029 2 4 -7 0 0 0 0 1.00184 5
2030 2 4.2 -7 0 0 0 0 0.999464 5
4713 1 3.61371 -6.73915 0.02 0 -0.00356735 -0.000340199 1 2
4715 1 3.64751 -6.55076 0.02 0 2.55815e-05 0.000135905 1 2
4717 1 3.97304 -6.74572 0.0161115 0 -0.00221724 -0.000427205 1 2
4719 1 4.01692 -6.56407 0.018877 0 -9.88493e-05 0.000342701 1 2
4716 1 3.83227 -6.57535 0.0194449 0 5.77641e-06 0.000428512 1 2
4714 1 3.794 -6.76661 0.0158138 0 -0.00104304 -0.000256114 1 2
4718 1 4.12203 -6.75043 0.0160445 0 -0.00334162 -0.000664816 1 2
4720 1 4.21349 -6.56481 0.0191047 0 -0.00019351 0.000515925 1 2
4723 1 4.41029 -6.56288 0.0191128 0 -0.000186874 0.00117735 1 2
4721 1 4.27026 -6.74604 0.0160869 0 -0.00358146 -0.000589067 1 2
4598 1 3.9597 -0.204515 0.02 0 7.16576e-19 -1.73625e-19 1 2
4722 1 4.39106 -6.75916 0.0155939 0 -0.00205697 -0.000152717 1 2
4600 1 3.78964 -0.406124 0.02 0 -6.00797e-18 2.76339e-19 1 2
4730 1 3.6987 -6.17071 0.02 0 2.44963e-06 1.29771e-05 1 2
4729 1 3.6674 -6.35963 0.02 0 5.76632e-05 6.28769e-05 1 2
4733 1 4.05478 -6.37882 0.0196688 0 -3.68542e-06 0.00016652 1 2
4735 1 4.08238 -6.18522 0.0199374 0 -3.15753e-05 2.79522e-05 1 2
4732 1 3.89151 -6.17475 0.0199474 0 -1.89093e-06 2.10853e-05 1 2
4731 1 3.86232 -6.37801 0.0198297 0 7.68416e-05 0.000162617 1 2
4737 1 4.43017 -6.37185 0.0193138 0 0.000510722 0.000559624 1 2
4859 1 3.05992 -0.791499 0.02 0 -1.69703e-21 -3.94906e-23 1 2
4736 1 4.27632 -6.18093 0.0198121 0 6.83079e-06 3.25292e-05 1 2
4734 1 4.24535 -6.37692 0.0193454 0 0.000192243 0.000244532 1 2
4599 1 3.77136 -0.196512 0.02 0 1.78315e-18 -1.26238e-19 1 2
4624 1 4.44898 -1.26074 0.02 0 -4.74654e-17 4.72166e-22 1 2
4746 1 3.67906 -5.78431 0.02 0 -3.31723e-07 -3.31774e-08 1 2
4745 1 3.6898 -5.9796 0.02 0 -2.08378e-06 4.23242e-07 1 2
4749 1 4.08603 -5.98699 0.0199995 0 -1.24725e-05 4.44413e-07 1 2
4750 1 4.0711 -5.78504 0.0199999 0 -1.1053e-06 1.44532e-07 1 2
4747 1 3.88969 -5.97299 0.0199928 0 -2.51506e-06 6.69028e-07 1 2
4748 1 3.87603 -5.77559 0.0199996 0 -5.02956e-07 -6.11899e-09 1 2
4874 1 3.05833 -0.996149 0.02 0 -8.58983e-22 2.25338e-22 1 2
4925 1 3.06039 -2.40026 0.02 0 0 0 1 2
4751 1 4.26586 -5.78886 0.0199998 0 -1.5487e-06 1.53789e-06 1 2
4752 1 4.28222 -5.9853 0.019985 0 -1.08856e-05 2.47671e-06 1 2
4607 1 4.3964 -0.615255 0.02 0 -3.30922e-18 9.10878e-19 1 2
4608 1 4.43343 -0.829479 0.02 0 3.598e-17 5.67087e-19 1 2
4762 1 3.60237 -5.39266 0.02 0 -9.1537e-09 -5.34532e-12 1 2
4761 1 3.62573 -5.58762 0.02 0 -2.75539e-08 -4.91906e-10 1 2