ITEM: TIMESTEP
23000
ITEM: NUMBER OF ATOMS
1304
ITEM: BOX BOUNDS ff ff pp
0.0000000000000000e+00 4.4000000000000004e+00
-1.0000000000000000e+01 1.0000000000000000e+01
-2.0000000000000000e-02 2.0000000000000000e-02
ITEM: ATOMS id type x y vx vy fx fy c_den c_phase
3175 1 1.20952 -6.55978 0.02 0 -8.93517e-13 -3.45772e-13 1 2
3174 1 1.39659 -6.75993 0.02 0 -2.40449e-06 -2.49319e-06 1 2
3176 1 1.4102 -6.56879 0.02 0 3.9225e-09 1.7132e-08 1 2
3123 1 1.28126 -1.73196 0.02 0 0 0 1 2
3107 1 1.29887 -0.907127 0.02 0 0 0 1 2
3071 1 1.42737 -0.152625 0.02 0 0 0 1 2
3121 1 1.30375 -1.31101 0.02 0 0 0 1 2
3189 1 1.23962 -6.37653 0.02 0 0 0 1 2
3190 1 1.38905 -6.18885 0.02 0 0 0 1 2
3191 1 1.44012 -6.37813 0.02 0 5.54402e-10 4.46189e-09 1 2
3108 1 1.3051 -1.10797 0.02 0 0 0 1 2
3156 1 1.30227 -2.34122 0.02 0 0 0 1 2
3173 1 1.3098 -2.96044 0.02 0 0 0 1 2
3204 1 1.37618 -5.99591 0.02 0 0 0 1 2
3205 1 1.38869 -5.79861 0.02 0 0 0 1 2
3157 1 1.3137 -2.54458 0.02 0 0 0 1 2
3172 1 1.31048 -2.75075 0.02 0 0 0 1 2
3073 1 1.45933 -0.356455 0.02 0 0 0 1 2
3075 1 1.25649 -0.314496 0.02 0 0 0 1 2
3219 1 1.21721 -5.58567 0.02 0 0 0 1 2
3220 1 1.23726 -5.38583 0.02 0 0 0 1 2
3221 1 1.41352 -5.59899 0.02 0 0 0 1 2
3222 1 1.4384 -5.40026 0.02 0 0 0 1 2
3300 1 1.32833 -3.17752 0.02 0 0 0 1 2
3122 1 1.30029 -1.52107 0.02 0 0 0 1 2
3140 1 1.27706 -1.93796 0.02 0 0 0 1 2
3236 1 1.27244 -5.18892 0.02 0 0 0 1 2
3237 1 1.27716 -4.99345 0.02 0 0 0 1 2
3238 1 1.31037 -4.80394 0.02 0 0 0 1 2
3299 1 1.32848 -3.39246 0.02 0 0 0 1 2
3090 1 1.29759 -0.511003 0.02 0 0 0 1 2
3091 1 1.29749 -0.707446 0.02 0 0 0 1 2
3141 1 1.30094 -2.14214 0.02 0 0 0 1 2
3284 1 1.34651 -3.60455 0.02 0 0 0 1 2
3252 1 1.2802 -4.61251 0.02 0 0 0 1 2
3253 1 1.27256 -4.41611 0.02 0 0 0 1 2
3283 1 1.35005 -3.81852 0.02 0 0 0 1 2
3074 1 1.22822 -0.114362 0.02 0 0 0 1 2
3269 1 1.43051 -4.23312 0.02 0 0 0 1 2
3268 1 1.38899 -4.03014 0.02 0 0 0 1 2
3267 1 1.22688 -4.21847 0.02 0 0 0 1 2
3060 1 1.38228 0.259957 0.02 0 0 0 1 2
3061 1 1.39255 0.052024 0.02 0 0 0 1 2
3221 1 1.27782 4.71315 0.02 0 0 0 1 2
3220 1 1.27527 4.48606 0.02 0 0 0 1 2
3302 1 1.38738 6.75255 0.02 0 -2.31319e-06 1.70769e-06 1 2
3185 1 1.30811 3.89884 0.02 0 0 0 1 2
3074 1 1.37028 0.469286 0.02 0 0 0 1 2
3075 1 1.36386 0.680704 0.02 0 0 0 1 2
3184 1 1.25443 3.54804 0.02 0 0 0 1 2
3224 1 1.45489 4.73643 0.02 0 0 0 1 2
3222 1 1.45839 4.52044 0.02 0 0 0 1 2
3203 1 1.28197 4.2803 0.02 0 0 0 1 2
3301 1 1.38773 6.56823 0.02 0 -1.48634e-11 -4.90579e-11 1 2
3089 1 1.22728 1.07701 0.02 0 0 0 1 2
3090 1 1.25313 1.27685 0.02 0 0 0 1 2
3091 1 1.3875 0.88943 0.02 0 0 0 1 2
3202 1 1.31147 4.08785 0.02 0 0 0 1 2
3093 1 1.42484 1.09277 0.02 0 0 0 1 2
3241 1 1.45298 5.17761 0.02 0 0 0 1 2
3095 1 1.45909 1.28998 0.02 0 0 0 1 2
3239 1 1.4467 4.96182 0.02 0 0 0 1 2
3273 1 1.3078 5.98859 0.02 0 0 0 1 2
3107 1 1.3065 1.47043 0.02 0 0 0 1 2
3108 1 1.34617 1.66421 0.02 0 0 0 1 2
3174 1 1.46434 3.32717 0.02 0 0 0 1 2
3257 1 1.27951 5.57818 0.02 0 0 0 1 2
3272 1 1.2752 5.78453 0.02 0 0 0 1 2
3256 1 1.27617 5.37435 0.02 0 0 0 1 2
3122 1 1.37911 1.85191 0.02 0 0 0 1 2
3123 1 1.38036 2.04173 0.02 0 0 0 1 2
3258 1 1.46772 5.39255 0.02 0 0 0 1 2
3172 1 1.46296 3.13641 0.02 0 0 0 1 2
3171 1 1.27188 3.3575 0.02 0 0 0 1 2
3288 1 1.35252 6.38573 0.02 0 0 0 1 2
3136 1 1.36013 2.40818 0.02 0 0 0 1 2
3137 1 1.34742 2.58999 0.02 0 0 0 1 2
3138 1 1.38438 2.22821 0.02 0 0 0 1 2
3238 1 1.26631 5.16469 0.02 0 0 0 1 2
3170 1 1.24796 3.16089 0.02 0 0 0 1 2
3186 1 1.32232 3.71725 0.02 0 0 0 1 2
3287 1 1.32855 6.19047 0.02 0 0 0 1 2
3274 1 1.47016 5.80865 0.02 0 0 0 1 2
3155 1 1.29111 2.9663 0.02 0 0 0 1 2
3156 1 1.29219 2.76998 0.02 0 0 0 1 2
3260 1 1.47 5.60387 0.02 0 0 0 1 2
3237 1 1.26634 4.93785 0.02 0 0 0 1 2
1509 2 2 -10 0 0 0 0 1 5
1510 2 2.2 -10 0 0 0 0 1 5
1511 2 2.4 -10 0 0 0 0 1 5
1543 2 2 -9.8 0 0 0 0 1 5
1544 2 2.2 -9.8 0 0 0 0 1 5
1545 2 2.4 -9.8 0 0 0 0 1 5
1577 2 2 -9.6 0 0 0 0 1 5
1578 2 2.2 -9.6 0 0 0 0 1 5
1579 2 2.4 -9.6 0 0 0 0 1 5
1512 2 2.6 -10 0 0 0 0 1 5
1513 2 2.8 -10 0 0 0 0 1 5
1546 2 2.6 -9.8 0 0 0 0 1 5
1547 2 2.8 -9.8 0 0 0 0 1 5
1580 2 2.6 -9.6 0 0 0 0 1 5
1581 2 2.8 -9.6 0 0 0 0 1 5
1645 2 2 -9.2 0 0 0 0 1 5
1646 2 2.2 -9.2 0 0 0 0 1 5
1647 2 2.4 -9.2 0 0 0 0 1 5
1613 2 2.4 -9.4 0 0 0 0 1 5
1612 2 2.2 -9.4 0 0 0 0 1 5
1611 2 2 -9.4 0 0 0 0 1 5
1648 2 2.6 -9.2 0 0 0 0 1 5
1649 2 2.8 -9.2 0 0 0 0 1 5
1615 2 2.8 -9.4 0 0 0 0 1 5
1614 2 2.6 -9.4 0 0 0 0 1 5
1679 2 2 -9 0 0 0 0 1 5
1680 2 2.2 -9 0 0 0 0 1 5
1681 2 2.4 -9 0 0 0 0 1 5
1713 2 2 -8.8 0 0 0 0 1 5
1714 2 2.2 -8.8 0 0 0 0 1 5
1715 2 2.4 -8.8 0 0 0 0 1 5
1682 2 2.6 -9 0 0 0 0 1 5
1683 2 2.8 -9 0 0 0 0 1 5
1716 2 2.6 -8.8 0 0 0 0 1 5
1717 2 2.8 -8.8 0 0 0 0 1 5
1783 2 2.4 -8.4 0 0 0 0 1 5
1782 2 2.2 -8.4 0 0 0 0 1 5
1781 2 2 -8.4 0 0 0 0 1 5
1747 2 2 -8.6 0 0 0 0 1 5
1748 2 2.2 -8.6 0 0 0 0 1 5
1749 2 2.4 -8.6 0 0 0 0 1 5
1785 2 2.8 -8.4 0 0 0 0 1 5
1784 2 2.6 -8.4 0 0 0 0 1 5
1750 2 2.6 -8.6 0 0 0 0 1 5
1751 2 2.8 -8.6 0 0 0 0 1 5
1851 2 2.4 -8 0 0 0 0 1 5
1850 2 2.2 -8 0 0 0 0 1 5
1849 2 2 -8 0 0 0 0 1 5
1817 2 2.4 -8.2 0 0 0 0 1 5
1816 2 2.2 -8.2 0 0 0 0 1 5
1815 2 2 -8.2 0 0 0 0 1 5
1853 2 2.8 -8 0 0 0 0 1 5
1852 2 2.6 -8 0 0 0 0 1 5
1819 2 2.8 -8.2 0 0 0 0 1 5
1818 2 2.6 -8.2 0 0 0 0 1 5
1953 2 2.4 -7.4 0 0 0 0 0.991046 5
1952 2 2.2 -7.4 0 0 0 0 0.99988 5
1951 2 2 -7.4 0 0 0 0 1.00689 5
1919 2 2.4 -7.6 0 0 0 0 1 5
1918 2 2.2 -7.6 0 0 0 0 1 5
1917 2 2 -7.6 0 0 0 0 1 5
1885 2 2.4 -7.8 0 0 0 0 1 5
1884 2 2.2 -7.8 0 0 0 0 1 5
1883 2 2 -7.8 0 0 0 0 1 5
1955 2 2.8 -7.4 0 0 0 0 0.988926 5
1954 2 2.6 -7.4 0 0 0 0 1.00015 5
1921 2 2.8 -7.6 0 0 0 0 1 5
1920 2 2.6 -7.6 0 0 0 0 1 5
1887 2 2.8 -7.8 0 0 0 0 1 5
1886 2 2.6 -7.8 0 0 0 0 1 5
2021 2 2.4 -7 0 0 0 0 0.998634 5
2020 2 2.2 -7 0 0 0 0 0.999512 5
2019 2 2 -7 0 0 0 0 1.00165 5
1987 2 2.4 -7.2 0 0 0 0 0.997879 5
1986 2 2.2 -7.2 0 0 0 0 0.999463 5
1985 2 2 -7.2 0 0 0 0 1.00226 5
2023 2 2.8 -7 0 0 0 0 0.990402 5
2022 2 2.6 -7 0 0 0 0 0.996539 5
1989 2 2.8 -7.2 0 0 0 0 0.989004 5
1988 2 2.6 -7.2 0 0 0 0 0.997499 5
3184 1 2.22982 -6.58096 0.02 0 1.03323e-05 0.000530624 1 2
3183 1 2.03091 -6.56301 0.02 0 4.469e-05 0.000581821 1 2
3182 1 2.19818 -6.76867 0.02 0 -0.00352981 -0.00059992 1 2
3181 1 1.99193 -6.73604 0.02 0 -0.00327827 -0.000775493 1 2
3187 1 2.42808 -6.55022 0.02 0 0.000194119 0.000450144 1 2
3185 1 2.40654 -6.73157 0.02 0 -0.00202378 -0.000409119 1 2
3188 1 2.63255 -6.56511 0.02 0 6.35102e-05 0.000596498 1 2
3186 1 2.60272 -6.74733 0.02 0 -0.00226023 -0.000543947 1 2
3062 1 2.33923 -0.0865354 0.02 0 0 0 1 2
3063 1 2.36773 -0.30017 0.02 0 0 0 1 2
3198 1 1.99557 -6.1913 0.02 0 2.08247e-06 4.57805e-06 1 2
3199 1 2.20406 -6.20515 0.02 0 8.30151e-06 1.67732e-05 1 2
3197 1 2.22706 -6.39143 0.02 0 0.000114767 0.000160094 1 2
3196 1 2.0288 -6.38001 0.02 0 4.74742e-05 0.000108344 1 2
3193 1 1.83232 -6.38198 0.02 0 7.97563e-06 4.8947e-05 1 2
3202 1 2.43001 -6.18795 0.02 0 7.30015e-06 1.29271e-05 1 2
3200 1 2.4217 -6.36654 0.02 0 9.7947e-05 0.000125462 1 2
3203 1 2.65468 -6.19302 0.02 0 8.25922e-06 2.13342e-05 1 2
3201 1 2.61645 -6.375 0.02 0 0.000140075 0.000159832 1 2
3273 1 1.79582 -4.06986 0.02 0 0 0 1 2
3060 1 2.53055 -0.115834 0.02 0 0 0 1 2
3212 1 2.00421 -5.81359 0.02 0 1.44807e-11 4.72071e-11 1 2
3210 1 2.01454 -6.003 0.02 0 1.33869e-08 3.58365e-08 1 2
3214 1 2.24587 -5.66559 0.02 0 0 0 1 2
3213 1 2.21977 -5.84316 0.02 0 2.75044e-10 7.19068e-10 1 2
3211 1 2.22541 -6.0243 0.02 0 1.13025e-07 2.85909e-07 1 2
3218 1 2.4565 -5.66211 0.02 0 0 0 1 2
3215 1 2.42814 -6.00969 0.02 0 7.38393e-08 1.42821e-07 1 2
3217 1 2.46826 -5.83787 0.02 0 3.56452e-10 6.15483e-10 1 2
3216 1 2.63653 -6.01202 0.02 0 4.29529e-07 4.71969e-07 1 2
3061 1 2.56054 -0.326468 0.02 0 0 0 1 2
3230 1 2.25072 -5.47912 0.02 0 0 0 1 2
3233 1 2.30293 -5.29448 0.02 0 0 0 1 2
3228 1 2.03497 -5.62533 0.02 0 0 0 1 2
3229 1 2.04843 -5.43244 0.02 0 0 0 1 2
3232 1 2.10066 -5.24749 0.02 0 0 0 1 2
3224 1 1.82603 -5.61815 0.02 0 0 0 1 2
3226 1 1.84637 -5.42229 0.02 0 0 0 1 2
3231 1 1.88982 -5.22877 0.02 0 0 0 1 2
3234 1 2.46949 -5.48168 0.02 0 0 0 1 2
3235 1 2.51142 -5.3009 0.02 0 0 0 1 2
3247 1 2.14463 -4.87165 0.02 0 0 0 1 2
3248 1 2.30722 -5.09969 0.02 0 0 0 1 2
3245 1 1.93898 -4.84467 0.02 0 0 0 1 2
3246 1 2.0971 -5.05747 0.02 0 0 0 1 2
3244 1 1.88924 -5.03441 0.02 0 0 0 1 2
3249 1 2.34192 -4.90537 0.02 0 0 0 1 2
3251 1 2.54267 -4.92468 0.02 0 0 0 1 2
3250 1 2.5178 -5.11353 0.02 0 0 0 1 2
3262 1 2.28946 -4.50463 0.02 0 0 0 1 2
3263 1 2.30939 -4.70114 0.02 0 0 0 1 2
3258 1 1.89696 -4.65095 0.02 0 0 0 1 2
3261 1 2.08118 -4.47854 0.02 0 0 0 1 2
3260 1 2.104 -4.67538 0.02 0 0 0 1 2
3259 1 1.87546 -4.45609 0.02 0 0 0 1 2
3266 1 2.65573 -4.35019 0.02 0 0 0 1 2
3265 1 2.49873 -4.53126 0.02 0 0 0 1 2
3264 1 2.50938 -4.72887 0.02 0 0 0 1 2
3276 1 2.00414 -4.08037 0.02 0 0 0 1 2
3275 1 2.24838 -4.30878 0.02 0 0 0 1 2
3277 1 2.20917 -4.11004 0.02 0 0 0 1 2
3274 1 2.0429 -4.27983 0.02 0 0 0 1 2
3271 1 1.83738 -4.26254 0.02 0 0 0 1 2
3281 1 2.34847 -3.93693 0.02 0 0 0 1 2
3282 1 2.56262 -3.96157 0.02 0 0 0 1 2
3279 1 2.41523 -4.13072 0.02 0 0 0 1 2
3278 1 2.45244 -4.33223 0.02 0 0 0 1 2
3280 1 2.62044 -4.15401 0.02 0 0 0 1 2
3068 1 1.84096 -0.420077 0.02 0 0 0 1 2
3066 1 1.99114 -0.224811 0.02 0 0 0 1 2
3294 1 2.1181 -3.52538 0.02 0 0 0 1 2
3292 1 2.14598 -3.7156 0.02 0 0 0 1 2
3293 1 1.90721 -3.49603 0.02 0 0 0 1 2
3290 1 2.14104 -3.90873 0.02 0 0 0 1 2
3291 1 1.93449 -3.68926 0.02 0 0 0 1 2
3289 1 1.93397 -3.8842 0.02 0 0 0 1 2
3297 1 2.33519 -3.55933 0.02 0 0 0 1 2
3295 1 2.3602 -3.74724 0.02 0 0 0 1 2
3298 1 2.55253 -3.58325 0.02 0 0 0 1 2
3296 1 2.57356 -3.77083 0.02 0 0 0 1 2
3069 1 1.80528 -0.199263 0.02 0 0 0 1 2
3065 1 2.17775 -0.255692 0.02 0 0 0 1 2
3306 1 2.11034 -3.33433 0.02 0 0 0 1 2
3305 1 1.90284 -3.30042 0.02 0 0 0 1 2
3309 1 2.27211 -3.17598 0.02 0 0 0 1 2
3308 1 2.07274 -3.13507 0.02 0 0 0 1 2
3307 1 1.87811 -3.09739 0.02 0 0 0 1 2
3310 1 2.32546 -3.37192 0.02 0 0 0 1 2
3311 1 2.55236 -3.3959 0.02 0 -1.12732e-30 -1.812e-31 1 2
3312 1 2.47518 -3.21298 0.02 0 0 0 1 2
3209 1 1.79768 -5.81115 0.02 0 0 0 1 2
3164 1 1.8962 -2.69522 0.02 0 0 0 1 2
3161 1 2.29064 -2.78421 0.02 0 0 0 1 2
3162 1 2.29304 -2.98138 0.02 0 0 0 1 2
3165 1 2.0913 -2.93657 0.02 0 0 0 1 2
3163 1 2.09324 -2.73523 0.02 0 0 0 1 2
3166 1 1.8909 -2.89647 0.02 0 0 0 1 2
3160 1 2.49761 -3.01868 0.02 0 0 0 1 2
3159 1 2.49087 -2.82192 0.02 0 0 0 1 2
3158 1 2.49337 -2.62142 0.02 0 0 0 1 2
3151 1 1.89829 -2.49111 0.02 0 0 0 1 2
3150 1 2.09644 -2.53231 0.02 0 0 0 1 2
3146 1 2.27301 -2.37639 0.02 0 0 0 1 2
3147 1 2.29368 -2.58452 0.02 0 0 0 1 2
3148 1 2.08163 -2.32488 0.02 0 0 0 1 2
3149 1 1.89056 -2.28018 0.02 0 0 0 1 2
3143 1 2.45512 -2.21109 0.02 0 0 0 1 2
3145 1 2.46389 -2.41858 0.02 0 0 0 1 2
3144 1 2.65209 -2.39151 0.02 0 -1.60246e-23 4.68106e-24 1 2
3142 1 2.64926 -2.17895 0.02 0 -1.56472e-24 2.0905e-25 1 2
3064 1 1.96181 -0.00442981 0.02 0 0 0 1 2
3131 1 2.08125 -1.91765 0.02 0 0 0 1 2
3133 1 2.06025 -2.11851 0.02 0 0 0 1 2
3130 1 2.25776 -2.16946 0.02 0 0 0 1 2
3129 1 2.27768 -1.97137 0.02 0 0 0 1 2
3128 1 2.27294 -1.76874 0.02 0 0 0 1 2
3132 1 1.88707 -1.8504 0.02 0 0 0 1 2
3134 1 1.87264 -2.05429 0.02 0 0 0 1 2
3127 1 2.47016 -2.00359 0.02 0 0 0 1 2
3126 1 2.65808 -1.96684 0.02 0 -1.08283e-24 -1.44221e-25 1 2
3125 1 2.4647 -1.78553 0.02 0 0 0 1 2
3124 1 2.65524 -1.76142 0.02 0 -2.21825e-23 -7.69807e-24 1 2
3067 1 2.15031 -0.0379554 0.02 0 0 0 1 2
3078 1 2.63476 -0.739652 0.02 0 -1.91717e-24 -1.494e-25 1 2
3115 1 2.08208 -1.71069 0.02 0 0 0 1 2
3113 1 2.10328 -1.5075 0.02 0 0 0 1 2
3114 1 1.90496 -1.457 0.02 0 0 0 1 2
3111 1 2.28838 -1.34964 0.02 0 0 0 1 2
3112 1 2.29369 -1.56411 0.02 0 0 0 1 2
3116 1 1.88551 -1.65068 0.02 0 0 0 1 2
3110 1 2.48421 -1.56535 0.02 0 0 0 1 2
3109 1 2.48126 -1.35301 0.02 0 0 0 1 2
3076 1 2.61534 -0.534831 0.02 0 -1.69502e-25 -9.26201e-27 1 2
3077 1 2.42014 -0.513537 0.02 0 0 0 1 2
3102 1 1.89984 -1.25907 0.02 0 0 0 1 2
3101 1 2.09812 -1.29962 0.02 0 0 0 1 2
3097 1 2.27188 -1.12526 0.02 0 0 0 1 2
3096 1 2.2623 -0.901264 0.02 0 0 0 1 2
3099 1 2.08572 -1.09013 0.02 0 0 0 1 2
3098 1 2.07299 -0.878956 0.02 0 0 0 1 2
3100 1 1.89151 -1.05584 0.02 0 0 0 1 2
3093 1 2.45139 -0.93144 0.02 0 0 0 1 2
3094 1 2.64613 -1.15024 0.02 0 -3.67215e-24 1.05369e-24 1 2
3092 1 2.64547 -0.942931 0.02 0 -1.02207e-24 4.0705e-26 1 2
3095 1 2.45667 -1.14299 0.02 0 0 0 1 2
3079 1 2.43636 -0.722222 0.02 0 0 0 1 2
3085 1 1.88079 -0.849358 0.02 0 0 0 1 2
3084 1 1.86799 -0.639103 0.02 0 0 0 1 2
3082 1 2.03232 -0.443907 0.02 0 0 0 1 2
3080 1 2.22461 -0.473851 0.02 0 0 0 1 2
3081 1 2.24389 -0.685757 0.02 0 0 0 1 2
3083 1 2.05568 -0.661033 0.02 0 0 0 1 2
3178 1 1.79369 -6.75328 0.02 0 -0.00221783 -0.000667237 1 2
3180 1 1.81781 -6.5679 0.02 0 -5.81169e-05 0.000222708 1 2
3195 1 1.79377 -6.19033 0.02 0 8.17185e-08 1.92833e-07 1 2
3207 1 1.80125 -6.00104 0.02 0 4.01786e-10 1.15536e-09 1 2
3243 1 1.73024 -4.85503 0.02 0 0 0 1 2
3256 1 1.6944 -4.65561 0.02 0 0 0 1 2
3088 1 1.68723 -0.792507 0.02 0 0 0 1 2
3286 1 1.73009 -3.87894 0.02 0 0 0 1 2
3086 1 1.684 -0.578435 0.02 0 0 0 1 2
3288 1 1.7279 -3.67917 0.02 0 0 0 1 2
3301 1 1.70536 -3.47352 0.02 0 0 0 1 2
3304 1 1.704 -3.2637 0.02 0 0 0 1 2
3171 1 1.69058 -3.04285 0.02 0 0 0 1 2
3103 1 1.69516 -0.998532 0.02 0 0 0 1 2
3105 1 1.70185 -1.20089 0.02 0 0 0 1 2
3168 1 1.69875 -2.82939 0.02 0 0 0 1 2
3167 1 1.70526 -2.61946 0.02 0 0 0 1 2
3153 1 1.70342 -2.41286 0.02 0 0 0 1 2
3119 1 1.68723 -1.59823 0.02 0 0 0 1 2
3152 1 1.70527 -2.20648 0.02 0 0 0 1 2
3117 1 1.70301 -1.40049 0.02 0 0 0 1 2
3135 1 1.68821 -1.79973 0.02 0 0 0 1 2
3070 1 1.61908 -0.140142 0.02 0 0 0 1 2
3192 1 1.63588 -6.36413 0.02 0 4.22064e-07 4.05905e-06 1 2
3072 1 1.65149 -0.358881 0.02 0 0 0 1 2
3137 1 1.67801 -2.00032 0.02 0 0 0 1 2
3223 1 1.61659 -5.61945 0.02 0 0 0 1 2
3225 1 1.63976 -5.43257 0.02 0 0 0 1 2
3227 1 1.67921 -5.24437 0.02 0 0 0 1 2
3242 1 1.68323 -5.04988 0.02 0 0 0 1 2
3257 1 1.6739 -4.4529 0.02 0 0 0 1 2
3270 1 1.63385 -4.24787 0.02 0 0 0 1 2
3177 1 1.59703 -6.73563 0.02 0 -0.000182128 -6.55959e-05 1 2
3179 1 1.61296 -6.55292 0.02 0 -7.44886e-07 1.44375e-05 1 2
3194 1 1.59193 -6.1736 0.02 0 6.96524e-12 1.82127e-11 1 2
3206 1 1.58362 -5.9881 0.02 0 0 0 1 2
3208 1 1.59129 -5.80404 0.02 0 0 0 1 2
3272 1 1.58495 -4.04595 0.02 0 0 0 1 2
3118 1 1.49912 -1.38137 0.02 0 0 0 1 2
3120 1 1.48799 -1.58116 0.02 0 0 0 1 2
3138 1 1.47666 -1.96891 0.02 0 0 0 1 2
3139 1 1.50555 -2.16607 0.02 0 0 0 1 2
3170 1 1.50397 -2.96783 0.02 0 0 0 1 2
3136 1 1.48357 -1.77545 0.02 0 0 0 1 2
3106 1 1.50173 -1.17986 0.02 0 0 0 1 2
3104 1 1.4963 -0.97562 0.02 0 0 0 1 2
3303 1 1.51855 -3.1789 0.02 0 0 0 1 2
3302 1 1.51862 -3.39236 0.02 0 0 0 1 2
3239 1 1.4754 -5.20589 0.02 0 0 0 1 2
3240 1 1.48198 -5.00972 0.02 0 0 0 1 2
3241 1 1.52395 -4.82157 0.02 0 0 0 1 2
3089 1 1.4915 -0.771323 0.02 0 0 0 1 2
3287 1 1.53472 -3.61387 0.02 0 0 0 1 2
3285 1 1.53799 -3.82989 0.02 0 0 0 1 2
3254 1 1.48774 -4.62864 0.02 0 0 0 1 2
3255 1 1.47455 -4.43154 0.02 0 0 0 1 2
3154 1 1.5042 -2.36315 0.02 0 0 0 1 2
3169 1 1.50754 -2.76422 0.02 0 0 0 1 2
3155 1 1.51048 -2.56319 0.02 0 0 0 1 2
3087 1 1.49431 -0.565154 0.02 0 0 0 1 2
3068 1 2.16086 0.372473 0.02 0 0 0 1 2
3067 1 2.15024 0.169145 0.02 0 0 0 1 2
3066 1 1.95935 0.211316 0.02 0 0 0 1 2
3069 1 1.96563 0.418928 0.02 0 0 0 1 2
3071 1 2.35205 0.334404 0.02 0 0 0 1 2
3070 1 2.34255 0.123621 0.02 0 0 0 1 2
3072 1 2.53492 0.0941657 0.02 0 0 0 1 2
3073 1 2.54032 0.308275 0.02 0 0 0 1 2
3083 1 2.14346 0.578065 0.02 0 0 0 1 2
3081 1 1.94761 0.623512 0.02 0 0 0 1 2
3082 1 1.99251 0.816101 0.02 0 0 0 1 2
3084 1 2.18662 0.777596 0.02 0 0 0 1 2
3086 1 2.37655 0.763505 0.02 0 0 0 1 2
3085 1 2.33725 0.551312 0.02 0 0 0 1 2
3088 1 2.56394 0.731216 0.02 0 0 0 1 2
3087 1 2.52663 0.52511 0.02 0 0 0 1 2
3100 1 2.02711 1.21394 0.02 0 0 0 1 2
3099 1 2.0017 1.01292 0.02 0 0 0 1 2
3102 1 2.21495 1.19611 0.02 0 0 0 1 2
3101 1 2.19846 0.985554 0.02 0 0 0 1 2
3098 1 1.84567 1.25083 0.02 0 0 0 1 2
3105 1 2.5894 0.935581 0.02 0 0 0 1 2
3106 1 2.59788 1.13784 0.02 0 -7.41704e-25 -7.43541e-27 1 2
3103 1 2.39443 0.971508 0.02 0 0 0 1 2
3104 1 2.40469 1.17579 0.02 0 0 0 1 2
454 2 2.6 9.6 0 0 0 0 1 5
3116 1 2.14283 1.6326 0.02 0 0 0 1 2
3117 1 2.26152 1.40425 0.02 0 0 0 1 2
3115 1 1.96342 1.68355 0.02 0 0 0 1 2
3113 1 1.90176 1.47828 0.02 0 0 0 1 2
3114 1 2.07352 1.41863 0.02 0 0 0 1 2
3119 1 2.32601 1.60495 0.02 0 0 0 1 2
3120 1 2.51051 1.56881 0.02 0 0 0 1 2
3121 1 2.65409 1.32935 0.02 0 -1.5487e-22 -2.46759e-23 1 2
3118 1 2.45602 1.37096 0.02 0 0 0 1 2
455 2 2.8 9.6 0 0 0 0 1 5
3131 1 2.24775 2.05065 0.02 0 0 0 1 2
3128 1 2.00401 1.88295 0.02 0 0 0 1 2
3130 1 2.19179 1.85058 0.02 0 0 0 1 2
3129 1 2.0361 2.06902 0.02 0 0 0 1 2
3133 1 2.56068 1.77663 0.02 0 0 0 1 2
3132 1 2.37444 1.80749 0.02 0 0 0 1 2
3135 1 2.63204 1.98035 0.02 0 -8.16741e-27 -1.60494e-28 1 2
3134 1 2.44158 2.00232 0.02 0 0 0 1 2
3148 1 2.26648 2.24802 0.02 0 0 0 1 2
3149 1 2.27598 2.44175 0.02 0 0 0 1 2
3147 1 1.99122 2.60748 0.02 0 0 0 1 2
3146 1 2.05943 2.43811 0.02 0 0 0 1 2
3145 1 2.06117 2.25492 0.02 0 0 0 1 2
3143 1 1.85549 2.22749 0.02 0 0 0 1 2
3151 1 2.47732 2.40662 0.02 0 0 0 1 2
3150 1 2.46302 2.20428 0.02 0 0 0 1 2
3152 1 2.64717 2.58754 0.02 0 -2.21545e-22 2.92017e-23 1 2
3153 1 2.65756 2.18585 0.02 0 -1.88103e-22 -4.33779e-23 1 2
3154 1 2.43831 2.60728 0.02 0 0 0 1 2
3243 1 1.81903 4.99551 0.02 0 0 0 1 2
488 2 2.6 9.8 0 0 0 0 1 5
3161 1 1.96367 2.79101 0.02 0 0 0 1 2
3162 1 2.18614 2.80636 0.02 0 0 0 1 2
3165 1 2.21431 2.62248 0.02 0 0 0 1 2
3164 1 2.1051 2.97185 0.02 0 0 0 1 2
3163 1 1.88454 2.96713 0.02 0 0 0 1 2
3168 1 2.35849 2.98639 0.02 0 0 0 1 2
3169 1 2.58874 2.9698 0.02 0 -1.17605e-24 1.28164e-26 1 2
3166 1 2.39451 2.79927 0.02 0 0 0 1 2
3167 1 2.60397 2.77967 0.02 0 -3.1975e-23 -1.3064e-24 1 2
3227 1 1.81545 4.77584 0.02 0 0 0 1 2
3178 1 2.16509 3.1459 0.02 0 0 0 1 2
3177 1 1.93669 3.14711 0.02 0 0 0 1 2
3179 1 2.09481 3.32024 0.02 0 0 0 1 2
3176 1 1.86365 3.31714 0.02 0 0 0 1 2
3182 1 2.31868 3.37002 0.02 0 0 0 1 2
3183 1 2.53895 3.35893 0.02 0 0 0 1 2
3180 1 2.36015 3.18095 0.02 0 0 0 1 2
3181 1 2.557 3.15817 0.02 0 0 0 1 2
3194 1 1.91901 3.71006 0.02 0 0 0 1 2
3192 1 1.89665 3.5067 0.02 0 0 0 1 2
3196 1 2.27888 3.5681 0.02 0 0 0 1 2
3197 1 2.28607 3.77684 0.02 0 0 0 1 2
3195 1 2.10343 3.72604 0.02 0 0 0 1 2
3193 1 2.09326 3.51062 0.02 0 0 0 1 2
3199 1 2.4734 3.76805 0.02 0 0 0 1 2
3198 1 2.47223 3.55257 0.02 0 0 0 1 2
3201 1 2.65993 3.79721 0.02 0 0 0 1 2
3200 1 2.66389 3.59154 0.02 0 0 0 1 2
489 2 2.8 9.8 0 0 0 0 1 5
452 2 2.2 9.6 0 0 0 0 1 5
3212 1 1.89582 4.13074 0.02 0 0 0 1 2
3210 1 1.911 3.92094 0.02 0 0 0 1 2
3213 1 2.08135 4.1593 0.02 0 0 0 1 2
3214 1 2.26706 4.18741 0.02 0 0 0 1 2
3215 1 2.28794 3.98109 0.02 0 0 0 1 2
3211 1 2.09996 3.94528 0.02 0 0 0 1 2
3209 1 1.85827 4.33991 0.02 0 0 0 1 2
3217 1 2.45687 4.20411 0.02 0 0 0 1 2
3216 1 2.47373 3.99047 0.02 0 0 0 1 2
3219 1 2.65629 4.00875 0.02 0 0 0 1 2
3218 1 2.6468 4.21737 0.02 0 0 0 1 2
453 2 2.4 9.6 0 0 0 0 1 5
3144 1 1.81817 2.40205 0.02 0 0 0 1 2
3229 1 2.01578 4.58592 0.02 0 0 0 1 2
3228 1 2.04014 4.37314 0.02 0 0 0 1 2
3231 1 2.2253 4.3955 0.02 0 0 0 1 2
3230 1 2.21234 4.59976 0.02 0 0 0 1 2
3226 1 1.82917 4.55417 0.02 0 0 0 1 2
3236 1 2.40616 4.78084 0.02 0 0 0 1 2
3233 1 2.42056 4.59309 0.02 0 0 0 1 2
3232 1 2.4197 4.40109 0.02 0 0 0 1 2
3235 1 2.63047 4.60964 0.02 0 0 0 1 2
3234 1 2.62508 4.41614 0.02 0 0 0 1 2
485 2 2 9.8 0 0 0 0 1 5
486 2 2.2 9.8 0 0 0 0 1 5
3246 1 2.01083 4.99763 0.02 0 0 0 1 2
3245 1 2.00259 4.79243 0.02 0 0 0 1 2
3249 1 2.20962 4.99646 0.02 0 0 0 1 2
3250 1 2.24386 5.19056 0.02 0 0 0 1 2
3247 1 2.0402 5.19836 0.02 0 0 0 1 2
3248 1 2.20021 4.79891 0.02 0 0 0 1 2
3244 1 1.83927 5.20262 0.02 0 0 0 1 2
3253 1 2.44615 5.15875 0.02 0 0 0 1 2
3252 1 2.41575 4.96929 0.02 0 0 0 1 2
3255 1 2.64994 5.18429 0.02 0 0 0 1 2
3254 1 2.6335 4.99169 0.02 0 0 0 1 2
3251 1 2.61732 4.80107 0.02 0 0 0 1 2
487 2 2.4 9.8 0 0 0 0 1 5
451 2 2 9.6 0 0 0 0 1 5
421 2 2.8 9.4 0 0 0 0 1 5
3266 1 2.2452 5.39064 0.02 0 0 0 1 2
3265 1 2.05925 5.60023 0.02 0 0 0 1 2
3264 1 2.05035 5.39931 0.02 0 0 0 1 2
3267 1 2.25609 5.59191 0.02 0 0 0 1 2
3263 1 1.86091 5.60241 0.02 0 0 0 1 2
3262 1 1.85519 5.40415 0.02 0 0 0 1 2
3271 1 2.6508 5.57779 0.02 0 0 0 1 2
3270 1 2.63602 5.38035 0.02 0 0 0 1 2
3268 1 2.43919 5.3575 0.02 0 0 0 1 2
3269 1 2.45027 5.56144 0.02 0 0 0 1 2
420 2 2.6 9.4 0 0 0 0 1 5
387 2 2.8 9.2 0 0 0 0 1 5
3281 1 2.11078 5.9891 0.02 0 2.42848e-08 -1.0415e-07 1 2
3284 1 2.31276 5.98339 0.02 0 2.28675e-08 -8.48665e-08 1 2
3282 1 2.27701 5.79062 0.02 0 1.35985e-11 -7.30719e-11 1 2
3279 1 2.07677 5.79627 0.02 0 1.60203e-11 -8.72111e-11 1 2
3280 1 1.90874 5.98378 0.02 0 5.51664e-09 -2.68468e-08 1 2
3278 1 1.86992 5.79528 0.02 0 1.41023e-13 -7.99325e-13 1 2
3286 1 2.66146 5.77675 0.02 0 -8.68123e-11 -9.83172e-11 1 2
3285 1 2.51287 5.97079 0.02 0 5.53721e-09 -7.90271e-08 1 2
3283 1 2.46886 5.76708 0.02 0 7.20595e-13 -1.54006e-11 1 2
386 2 2.6 9.2 0 0 0 0 1 5
3294 1 2.13803 6.17858 0.02 0 4.28616e-06 -1.04248e-05 1 2
3295 1 1.97323 6.36361 0.02 0 3.38467e-05 -5.89166e-05 1 2
3296 1 2.17168 6.36755 0.02 0 8.09396e-05 -0.000119054 1 2
3293 1 1.92865 6.17411 0.02 0 1.06558e-06 -3.14291e-06 1 2
3297 1 2.346 6.17052 0.02 0 5.86935e-06 -1.09638e-05 1 2
3298 1 2.54735 6.16899 0.02 0 9.01284e-06 -1.21352e-05 1 2
3300 1 2.57503 6.36567 0.02 0 0.000164077 -0.000182216 1 2
3299 1 2.37456 6.35499 0.02 0 9.07553e-05 -0.000111932 1 2
3309 1 1.98786 6.74701 0.02 0 -0.00341791 0.000584706 1 2
3307 1 1.98783 6.55834 0.02 0 1.25208e-06 -0.000195088 1 2
3308 1 2.17738 6.56244 0.02 0 0.000143234 -0.000450256 1 2
3310 1 2.19482 6.75488 0.02 0 -0.0034663 0.000489018 1 2
3312 1 2.36841 6.53892 0.02 0 0.000289117 -0.000442659 1 2
3311 1 2.57634 6.75466 0.02 0 -0.0017922 0.000280233 1 2
3313 1 2.56614 6.55918 0.02 0 0.000544558 -0.000534413 1 2
3314 1 2.38757 6.71968 0.02 0 -0.00193688 0.000333434 1 2
9 2 2 7 0 0 0 0 1.00191 5
10 2 2.2 7 0 0 0 0 0.999155 5
11 2 2.4 7 0 0 0 0 0.999211 5
43 2 2 7.2 0 0 0 0 1.00218 5
44 2 2.2 7.2 0 0 0 0 0.998485 5
45 2 2.4 7.2 0 0 0 0 0.999737 5
12 2 2.6 7 0 0 0 0 0.996108 5
47 2 2.8 7.2 0 0 0 0 0.987155 5
46 2 2.6 7.2 0 0 0 0 0.997262 5
13 2 2.8 7 0 0 0 0 0.987385 5
112 2 2.2 7.6 0 0 0 0 1 5
113 2 2.4 7.6 0 0 0 0 1 5
79 2 2.4 7.4 0 0 0 0 1.00536 5
78 2 2.2 7.4 0 0 0 0 0.999662 5
147 2 2.4 7.8 0 0 0 0 1 5
146 2 2.2 7.8 0 0 0 0 1 5
145 2 2 7.8 0 0 0 0 1 5
77 2 2 7.4 0 0 0 0 0.999849 5
111 2 2 7.6 0 0 0 0 1 5
114 2 2.6 7.6 0 0 0 0 1 5
81 2 2.8 7.4 0 0 0 0 0.987185 5
115 2 2.8 7.6 0 0 0 0 1 5
80 2 2.6 7.4 0 0 0 0 0.998645 5
149 2 2.8 7.8 0 0 0 0 1 5
148 2 2.6 7.8 0 0 0 0 1 5
179 2 2 8 0 0 0 0 1 5
180 2 2.2 8 0 0 0 0 1 5
181 2 2.4 8 0 0 0 0 1 5
213 2 2 8.2 0 0 0 0 1 5
214 2 2.2 8.2 0 0 0 0 1 5
215 2 2.4 8.2 0 0 0 0 1 5
182 2 2.6 8 0 0 0 0 1 5
183 2 2.8 8 0 0 0 0 1 5
216 2 2.6 8.2 0 0 0 0 1 5
217 2 2.8 8.2 0 0 0 0 1 5
282 2 2.2 8.6 0 0 0 0 1 5
281 2 2 8.6 0 0 0 0 1 5
249 2 2.4 8.4 0 0 0 0 1 5
248 2 2.2 8.4 0 0 0 0 1 5
247 2 2 8.4 0 0 0 0 1 5
283 2 2.4 8.6 0 0 0 0 1 5
285 2 2.8 8.6 0 0 0 0 1 5
284 2 2.6 8.6 0 0 0 0 1 5
251 2 2.8 8.4 0 0 0 0 1 5
250 2 2.6 8.4 0 0 0 0 1 5
351 2 2.4 9 0 0 0 0 1 5
315 2 2 8.8 0 0 0 0 1 5
316 2 2.2 8.8 0 0 0 0 1 5
317 2 2.4 8.8 0 0 0 0 1 5
349 2 2 9 0 0 0 0 1 5
350 2 2.2 9 0 0 0 0 1 5
352 2 2.6 9 0 0 0 0 1 5
319 2 2.8 8.8 0 0 0 0 1 5
318 2 2.6 8.8 0 0 0 0 1 5
353 2 2.8 9 0 0 0 0 1 5
417 2 2 9.4 0 0 0 0 1 5
418 2 2.2 9.4 0 0 0 0 1 5
419 2 2.4 9.4 0 0 0 0 1 5
383 2 2 9.2 0 0 0 0 1 5
384 2 2.2 9.2 0 0 0 0 1 5
385 2 2.4 9.2 0 0 0 0 1 5
3064 1 1.76783 0.23308 0.02 0 0 0 1 2
3065 1 1.77447 0.0223507 0.02 0 0 0 1 2
3079 1 1.76674 0.438466 0.02 0 0 0 1 2
3080 1 1.78741 0.837608 0.02 0 0 0 1 2
3097 1 1.80727 1.03842 0.02 0 0 0 1 2
3306 1 1.78562 6.72972 0.02 0 -0.00163174 0.000384347 1 2
3304 1 1.79228 6.54948 0.02 0 -2.38865e-05 -7.60625e-05 1 2
3292 1 1.7713 6.36566 0.02 0 3.30466e-06 -6.83773e-06 1 2
3112 1 1.76245 1.6776 0.02 0 0 0 1 2
3126 1 1.79445 2.05706 0.02 0 0 0 1 2
3127 1 1.80738 1.86993 0.02 0 0 0 1 2
3142 1 1.78492 2.58048 0.02 0 0 0 1 2
3078 1 1.75011 0.641213 0.02 0 0 0 1 2
3290 1 1.72292 6.18222 0.02 0 3.89517e-08 -1.37513e-07 1 2
3110 1 1.71436 1.48088 0.02 0 0 0 1 2
3159 1 1.68608 2.94817 0.02 0 0 0 1 2
3160 1 1.74371 2.76421 0.02 0 0 0 1 2
3173 1 1.68969 3.13863 0.02 0 0 0 1 2
3188 1 1.68851 3.51835 0.02 0 0 0 1 2
3190 1 1.72881 3.70997 0.02 0 0 0 1 2
3191 1 1.71512 3.90791 0.02 0 0 0 1 2
3206 1 1.70622 4.11088 0.02 0 0 0 1 2
3277 1 1.70667 5.98973 0.02 0 1.01447e-10 -5.08718e-10 1 2
3094 1 1.62025 1.08613 0.02 0 0 0 1 2
3096 1 1.66023 1.28632 0.02 0 0 0 1 2
3240 1 1.63185 4.97123 0.02 0 0 0 1 2
3139 1 1.61699 2.22749 0.02 0 0 0 1 2
3261 1 1.6633 5.59439 0.02 0 0 0 1 2
3175 1 1.66036 3.32702 0.02 0 0 0 1 2
3275 1 1.66675 5.79532 0.02 0 0 0 1 2
3259 1 1.66001 5.39038 0.02 0 0 0 1 2
3223 1 1.6441 4.53979 0.02 0 0 0 1 2
3208 1 1.67268 4.32326 0.02 0 0 0 1 2
3225 1 1.6337 4.75752 0.02 0 0 0 1 2
3242 1 1.64302 5.1837 0.02 0 0 0 1 2
3062 1 1.58406 0.0724965 0.02 0 0 0 1 2
3063 1 1.57608 0.280002 0.02 0 0 0 1 2
3305 1 1.58975 6.7551 0.02 0 -0.000233084 7.515e-05 1 2
3076 1 1.56642 0.481996 0.02 0 0 0 1 2
3077 1 1.55756 0.685826 0.02 0 0 0 1 2
3303 1 1.58998 6.56765 0.02 0 -1.84434e-06 -2.43651e-07 1 2
3092 1 1.58802 0.884588 0.02 0 0 0 1 2
3111 1 1.55368 1.67257 0.02 0 0 0 1 2
3291 1 1.56411 6.38513 0.02 0 -1.99803e-10 -9.41932e-12 1 2
3124 1 1.59861 1.85816 0.02 0 0 0 1 2
3125 1 1.58281 2.04562 0.02 0 0 0 1 2
3140 1 1.58567 2.4033 0.02 0 0 0 1 2
3141 1 1.57158 2.58381 0.02 0 0 0 1 2
3207 1 1.47967 4.31636 0.02 0 0 0 1 2
3205 1 1.51156 4.11818 0.02 0 0 0 1 2
3204 1 1.5146 3.91662 0.02 0 0 0 1 2
3276 1 1.50716 6.00627 0.02 0 0 0 1 2
3109 1 1.51465 1.48123 0.02 0 0 0 1 2
3189 1 1.53001 3.71568 0.02 0 0 0 1 2
3289 1 1.52354 6.20065 0.02 0 4.19544e-12 -1.24613e-11 1 2
3187 1 1.47454 3.52417 0.02 0 0 0 1 2
3157 1 1.51555 2.75989 0.02 0 0 0 1 2
3158 1 1.48888 2.94667 0.02 0 0 0 1 2
1583 2 3.2 -9.6 0 0 0 0 1 5
1582 2 3 -9.6 0 0 0 0 1 5
1549 2 3.2 -9.8 0 0 0 0 1 5
1548 2 3 -9.8 0 0 0 0 1 5
1515 2 3.2 -10 0 0 0 0 1 5
1514 2 3 -10 0 0 0 0 1 5
1584 2 3.4 -9.6 0 0 0 0 1 5
1550 2 3.4 -9.8 0 0 0 0 1 5
1516 2 3.4 -10 0 0 0 0 1 5
1586 2 3.8 -9.6 0 0 0 0 1 5
1585 2 3.6 -9.6 0 0 0 0 1 5
1552 2 3.8 -9.8 0 0 0 0 1 5
1551 2 3.6 -9.8 0 0 0 0 1 5
1518 2 3.8 -10 0 0 0 0 1 5
1517 2 3.6 -10 0 0 0 0 1 5
1588 2 4.2 -9.6 0 0 0 0 1 5
1587 2 4 -9.6 0 0 0 0 1 5
1554 2 4.2 -9.8 0 0 0 0 1 5
1553 2 4 -9.8 0 0 0 0 1 5
1520 2 4.2 -10 0 0 0 0 1 5
1519 2 4 -10 0 0 0 0 1 5
1616 2 3 -9.4 0 0 0 0 1 5
1617 2 3.2 -9.4 0 0 0 0 1 5
1651 2 3.2 -9.2 0 0 0 0 1 5
1650 2 3 -9.2 0 0 0 0 1 5
1652 2 3.4 -9.2 0 0 0 0 1 5
1618 2 3.4 -9.4 0 0 0 0 1 5
1653 2 3.6 -9.2 0 0 0 0 1 5
1654 2 3.8 -9.2 0 0 0 0 1 5
1620 2 3.8 -9.4 0 0 0 0 1 5
1619 2 3.6 -9.4 0 0 0 0 1 5
1622 2 4.2 -9.4 0 0 0 0 1 5
1655 2 4 -9.2 0 0 0 0 1 5
1656 2 4.2 -9.2 0 0 0 0 1 5
1621 2 4 -9.4 0 0 0 0 1 5
1719 2 3.2 -8.8 0 0 0 0 1 5
1718 2 3 -8.8 0 0 0 0 1 5
1685 2 3.2 -9 0 0 0 0 1 5
1684 2 3 -9 0 0 0 0 1 5
1686 2 3.4 -9 0 0 0 0 1 5
1720 2 3.4 -8.8 0 0 0 0 1 5
1687 2 3.6 -9 0 0 0 0 1 5
1688 2 3.8 -9 0 0 0 0 1 5
1721 2 3.6 -8.8 0 0 0 0 1 5
1722 2 3.8 -8.8 0 0 0 0 1 5
1689 2 4 -9 0 0 0 0 1 5
1690 2 4.2 -9 0 0 0 0 1 5
1723 2 4 -8.8 0 0 0 0 1 5
1724 2 4.2 -8.8 0 0 0 0 1 5
1752 2 3 -8.6 0 0 0 0 1 5
1753 2 3.2 -8.6 0 0 0 0 1 5
1786 2 3 -8.4 0 0 0 0 1 5
1787 2 3.2 -8.4 0 0 0 0 1 5
1754 2 3.4 -8.6 0 0 0 0 1 5
1788 2 3.4 -8.4 0 0 0 0 1 5
1755 2 3.6 -8.6 0 0 0 0 1 5
1756 2 3.8 -8.6 0 0 0 0 1 5
1789 2 3.6 -8.4 0 0 0 0 1 5
1790 2 3.8 -8.4 0 0 0 0 1 5
1757 2 4 -8.6 0 0 0 0 1 5
1758 2 4.2 -8.6 0 0 0 0 1 5
1791 2 4 -8.4 0 0 0 0 1 5
1792 2 4.2 -8.4 0 0 0 0 1 5
1820 2 3 -8.2 0 0 0 0 1 5
1821 2 3.2 -8.2 0 0 0 0 1 5
1854 2 3 -8 0 0 0 0 1 5
1855 2 3.2 -8 0 0 0 0 1 5
1822 2 3.4 -8.2 0 0 0 0 1 5
1856 2 3.4 -8 0 0 0 0 1 5
1823 2 3.6 -8.2 0 0 0 0 1 5
1824 2 3.8 -8.2 0 0 0 0 1 5
1857 2 3.6 -8 0 0 0 0 1 5
1858 2 3.8 -8 0 0 0 0 1 5
1825 2 4 -8.2 0 0 0 0 1 5
1826 2 4.2 -8.2 0 0 0 0 1 5
1859 2 4 -8 0 0 0 0 1 5
1860 2 4.2 -8 0 0 0 0 1 5
1888 2 3 -7.8 0 0 0 0 1 5
1889 2 3.2 -7.8 0 0 0 0 1 5
1922 2 3 -7.6 0 0 0 0 1 5
1923 2 3.2 -7.6 0 0 0 0 1 5
1956 2 3 -7.4 0 0 0 0 1.01235 5
1957 2 3.2 -7.4 0 0 0 0 1.00138 5
1890 2 3.4 -7.8 0 0 0 0 1 5
1924 2 3.4 -7.6 0 0 0 0 1 5
1958 2 3.4 -7.4 0 0 0 0 1.00119 5
1891 2 3.6 -7.8 0 0 0 0 1 5
1892 2 3.8 -7.8 0 0 0 0 1 5
1925 2 3.6 -7.6 0 0 0 0 1 5
1926 2 3.8 -7.6 0 0 0 0 1 5
1959 2 3.6 -7.4 0 0 0 0 1.00116 5
1960 2 3.8 -7.4 0 0 0 0 0.998082 5
1893 2 4 -7.8 0 0 0 0 1 5
1894 2 4.2 -7.8 0 0 0 0 1 5
1927 2 4 -7.6 0 0 0 0 1 5
1928 2 4.2 -7.6 0 0 0 0 1 5
1961 2 4 -7.4 0 0 0 0 0.998036 5
1962 2 4.2 -7.4 0 0 0 0 1.00216 5
1990 2 3 -7.2 0 0 0 0 1.0112 5
1991 2 3.2 -7.2 0 0 0 0 1.00363 5
2024 2 3 -7 0 0 0 0 1.00922 5
2025 2 3.2 -7 0 0 0 0 1.00451 5
1992 2 3.4 -7.2 0 0 0 0 1.00134 5
2026 2 3.4 -7 0 0 0 0 1.0013 5
1993 2 3.6 -7.2 0 0 0 0 1.00037 5
1994 2 3.8 -7.2 0 0 0 0 0.999063 5
2027 2 3.6 -7 0 0 0 0 1.00018 5
2028 2 3.8 -7 0 0 0 0 0.999848 5
1995 2 4 -7.2 0 0 0 0 1.00204 5
1996 2 4.2 -7.2 0 0 0 0 1.00019 5
2029 2 4 -7 0 0 0 0 1.00177 5
2030 2 4.2 -7 0 0 0 0 0.999277 5
2926 1 3.6478 -6.56092 0.02 0 1.47106e-05 0.00047278 1 2
2924 1 3.61797 -6.75405 0.02 0 -0.0037104 -0.000477729 1 2
2925 1 3.45902 -6.55059 0.02 0 0.000305121 0.000562073 1 2
2923 1 3.42072 -6.73288 0.02 0 -0.00205469 -0.000360574 1 2
2931 1 4.11526 -6.72408 0.0168227 0 -0.00294779 -0.000696104 1 2
2928 1 3.95301 -6.74316 0.0162209 0 -0.00214123 -0.00043466 1 2
2930 1 4.02007 -6.54895 0.0188951 0 7.4513e-05 0.000464377 1 2
2929 1 3.83627 -6.5457 0.0195724 0 -2.22409e-05 0.000431335 1 2
2927 1 3.79763 -6.73507 0.0170077 0 -0.00124862 -0.000225494 1 2
2933 1 4.2109 -6.54144 0.0192607 0 -0.000140042 0.000512219 1 2
3045 1 4.37346 -6.75322 0.0151837 0 -0.0019163 -0.000127739 1 2
2934 1 4.39443 -6.57579 0.0190923 0 -0.000103915 0.00111241 1 2
2932 1 4.23051 -6.75776 0.0152619 0 -0.00336381 -0.00045064 1 2
2920 1 3.21697 -3.32049 0.02 0 -4.17413e-20 -3.03879e-20 1 2
3019 1 3.20767 -3.89035 0.02 0 -8.79524e-25 -3.20209e-24 1 2