ITEM: TIMESTEP
30000
ITEM: NUMBER OF ATOMS
1015
ITEM: BOX BOUNDS ff ff pp
0.0000000000000000e+00 4.4000000000000004e+00
-1.0000000000000000e+01 1.0000000000000000e+01
-2.0000000000000000e-02 2.0000000000000000e-02
ITEM: ATOMS id type x y vx vy fx fy c_den c_phase
1509 2 2 -10 0 0 0 0 1 5
1510 2 2.2 -10 0 0 0 0 1 5
1511 2 2.4 -10 0 0 0 0 1 5
1543 2 2 -9.8 0 0 0 0 1 5
1544 2 2.2 -9.8 0 0 0 0 1 5
1545 2 2.4 -9.8 0 0 0 0 1 5
1577 2 2 -9.6 0 0 0 0 1 5
1578 2 2.2 -9.6 0 0 0 0 1 5
1579 2 2.4 -9.6 0 0 0 0 1 5
1512 2 2.6 -10 0 0 0 0 1 5
1513 2 2.8 -10 0 0 0 0 1 5
1546 2 2.6 -9.8 0 0 0 0 1 5
1547 2 2.8 -9.8 0 0 0 0 1 5
1580 2 2.6 -9.6 0 0 0 0 1 5
1581 2 2.8 -9.6 0 0 0 0 1 5
1645 2 2 -9.2 0 0 0 0 1 5
1646 2 2.2 -9.2 0 0 0 0 1 5
1647 2 2.4 -9.2 0 0 0 0 1 5
1613 2 2.4 -9.4 0 0 0 0 1 5
1612 2 2.2 -9.4 0 0 0 0 1 5
1611 2 2 -9.4 0 0 0 0 1 5
1648 2 2.6 -9.2 0 0 0 0 1 5
1649 2 2.8 -9.2 0 0 0 0 1 5
1615 2 2.8 -9.4 0 0 0 0 1 5
1614 2 2.6 -9.4 0 0 0 0 1 5
1679 2 2 -9 0 0 0 0 1 5
1680 2 2.2 -9 0 0 0 0 1 5
1681 2 2.4 -9 0 0 0 0 1 5
1713 2 2 -8.8 0 0 0 0 1 5
1714 2 2.2 -8.8 0 0 0 0 1 5
1715 2 2.4 -8.8 0 0 0 0 1 5
1682 2 2.6 -9 0 0 0 0 1 5
1683 2 2.8 -9 0 0 0 0 1 5
1716 2 2.6 -8.8 0 0 0 0 1 5
1717 2 2.8 -8.8 0 0 0 0 1 5
1783 2 2.4 -8.4 0 0 0 0 1 5
1782 2 2.2 -8.4 0 0 0 0 1 5
1781 2 2 -8.4 0 0 0 0 1 5
1747 2 2 -8.6 0 0 0 0 1 5
1748 2 2.2 -8.6 0 0 0 0 1 5
1749 2 2.4 -8.6 0 0 0 0 1 5
1785 2 2.8 -8.4 0 0 0 0 1 5
1784 2 2.6 -8.4 0 0 0 0 1 5
1750 2 2.6 -8.6 0 0 0 0 1 5
1751 2 2.8 -8.6 0 0 0 0 1 5
1851 2 2.4 -8 0 0 0 0 1 5
1850 2 2.2 -8 0 0 0 0 1 5
1849 2 2 -8 0 0 0 0 1 5
1817 2 2.4 -8.2 0 0 0 0 1 5
1816 2 2.2 -8.2 0 0 0 0 1 5
1815 2 2 -8.2 0 0 0 0 1 5
1853 2 2.8 -8 0 0 0 0 1 5
1852 2 2.6 -8 0 0 0 0 1 5
1819 2 2.8 -8.2 0 0 0 0 1 5
1818 2 2.6 -8.2 0 0 0 0 1 5
1953 2 2.4 -7.4 0 0 0 0 1.00083 5
1952 2 2.2 -7.4 0 0 0 0 1.00044 5
1951 2 2 -7.4 0 0 0 0 1.00243 5
1919 2 2.4 -7.6 0 0 0 0 1 5
1918 2 2.2 -7.6 0 0 0 0 1 5
1917 2 2 -7.6 0 0 0 0 1 5
1885 2 2.4 -7.8 0 0 0 0 1 5
1884 2 2.2 -7.8 0 0 0 0 1 5
1883 2 2 -7.8 0 0 0 0 1 5
1955 2 2.8 -7.4 0 0 0 0 0.999869 5
1954 2 2.6 -7.4 0 0 0 0 1.0005 5
1921 2 2.8 -7.6 0 0 0 0 1 5
1920 2 2.6 -7.6 0 0 0 0 1 5
1887 2 2.8 -7.8 0 0 0 0 1 5
1886 2 2.6 -7.8 0 0 0 0 1 5
2021 2 2.4 -7 0 0 0 0 0.999762 5
2020 2 2.2 -7 0 0 0 0 1.00036 5
2019 2 2 -7 0 0 0 0 1.00527 5
1987 2 2.4 -7.2 0 0 0 0 0.99972 5
1986 2 2.2 -7.2 0 0 0 0 0.999658 5
1985 2 2 -7.2 0 0 0 0 1.00463 5
2023 2 2.8 -7 0 0 0 0 1.00006 5
2022 2 2.6 -7 0 0 0 0 0.999836 5
1989 2 2.8 -7.2 0 0 0 0 1.00003 5
1988 2 2.6 -7.2 0 0 0 0 0.999684 5
3424 1 2.23191 -6.74071 0.02 0 -0.00191542 -0.000267513 1 2
3427 1 2.2198 -6.54387 0.02 0 0.000476995 0.000505717 1 2
3423 1 2.03987 -6.74606 0.02 0 -0.00468915 -0.000363777 1 2
3426 1 2.03683 -6.55135 0.02 0 -0.000488688 -9.60322e-05 1 2
3429 1 2.61073 -6.73888 0.02 0 -0.00278152 -0.000501772 1 2
3431 1 2.57577 -6.545 0.02 0 0.000261719 0.000495385 1 2
3425 1 2.42212 -6.73853 0.02 0 -0.00246074 -0.000491274 1 2
3428 1 2.39639 -6.52885 0.02 0 0.000337524 0.000462915 1 2
3432 1 2.76548 -6.54222 0.02 0 0.000249714 0.000477746 1 2
3430 1 2.7972 -6.73265 0.02 0 -0.00260812 -0.000488404 1 2
3374 1 2.40844 -1.62853 0.02 0 0 0 1 2
3372 1 2.45195 -1.43736 0.02 0 0 0 1 2
3352 1 2.65663 -1.08063 0.02 0 0 0 1 2
3336 1 2.87856 -0.566926 0.02 0 -6.01668e-25 -2.29807e-25 1 2
3441 1 2.22608 -6.3224 0.02 0 8.4063e-05 9.16038e-05 1 2
3440 1 2.05072 -6.34641 0.02 0 3.56698e-05 2.13606e-05 1 2
3439 1 2.07339 -6.12486 0.02 0 2.65405e-06 2.69081e-06 1 2
3444 1 2.57809 -6.33691 0.02 0 5.78234e-05 8.57157e-05 1 2
3446 1 2.59594 -6.12551 0.02 0 1.87532e-06 4.3696e-06 1 2
3443 1 2.41571 -6.10319 0.02 0 1.29487e-06 3.12021e-06 1 2
3442 1 2.401 -6.31438 0.02 0 5.56579e-05 7.62714e-05 1 2
3447 1 2.78309 -6.14134 0.02 0 2.51557e-06 5.52635e-06 1 2
3445 1 2.7594 -6.34124 0.02 0 6.39313e-05 9.70987e-05 1 2
3371 1 2.65189 -1.46735 0.02 0 0 0 1 2
3448 1 2.94549 -6.37765 0.02 0 0.000102249 0.000150459 1 2
3330 1 2.13451 -0.164303 0.02 0 0 0 1 2
3331 1 2.1885 -0.337865 0.02 0 0 0 1 2
3454 1 2.24058 -6.08372 0.02 0 1.25462e-06 2.44123e-06 1 2
3456 1 2.24154 -5.86482 0.02 0 1.49857e-10 2.65811e-10 1 2
3459 1 2.2604 -5.65753 0.02 0 2.15209e-17 2.12027e-16 1 2
3458 1 2.07153 -5.65275 0.02 0 9.47363e-19 1.48093e-18 1 2
3455 1 2.06521 -5.88435 0.02 0 1.51497e-10 1.58112e-10 1 2
3463 1 2.64518 -5.719 0.02 0 3.43983e-14 3.02938e-13 1 2
3461 1 2.60759 -5.91883 0.02 0 7.27974e-10 3.72272e-09 1 2
3457 1 2.4233 -5.88612 0.02 0 4.49574e-11 3.60685e-10 1 2
3460 1 2.45293 -5.67751 0.02 0 6.49188e-17 6.87262e-16 1 2
3462 1 2.80013 -5.94538 0.02 0 2.27449e-09 1.45209e-08 1 2
3373 1 2.60812 -1.66161 0.02 0 0 0 1 2
3376 1 2.04023 -1.43462 0.02 0 0 0 1 2
3464 1 2.84297 -5.75573 0.02 0 5.76924e-13 3.31983e-12 1 2
3337 1 2.87448 -0.747209 0.02 0 0 0 1 2
3353 1 2.64904 -1.27092 0.02 0 0 0 1 2
3474 1 2.29336 -5.24018 0.02 0 0 0 1 2
3472 1 2.25905 -5.44879 0.02 0 0 0 1 2
3471 1 2.06944 -5.43905 0.02 0 0 0 1 2
3473 1 2.09903 -5.23868 0.02 0 0 0 1 2
3477 1 2.63391 -5.50683 0.02 0 0 0 1 2
3479 1 2.66573 -5.29204 0.02 0 0 0 1 2
3475 1 2.44781 -5.46651 0.02 0 0 0 1 2
3476 1 2.48177 -5.25901 0.02 0 0 0 1 2
3478 1 2.82424 -5.55952 0.02 0 0 0 1 2
3377 1 2.20488 -1.63476 0.02 0 0 0 1 2
3375 1 2.24644 -1.44149 0.02 0 0 0 1 2
3480 1 2.84211 -5.35989 0.02 0 0 0 1 2
3341 1 2.38274 -0.701701 0.02 0 0 0 1 2
3340 1 2.44157 -0.532055 0.02 0 0 0 1 2
3339 1 2.62449 -0.717509 0.02 0 0 0 1 2
3491 1 2.33573 -4.83616 0.02 0 0 0 1 2
3490 1 2.26319 -5.03322 0.02 0 0 0 1 2
3489 1 2.12866 -4.84852 0.02 0 0 0 1 2
3488 1 2.06499 -5.04164 0.02 0 0 0 1 2
3494 1 2.66074 -5.08279 0.02 0 0 0 1 2
3493 1 2.5343 -4.85573 0.02 0 0 0 1 2
3492 1 2.46072 -5.0493 0.02 0 0 0 1 2
3496 1 2.72757 -4.89185 0.02 0 0 0 1 2
3357 1 2.20871 -0.871762 0.02 0 0 0 1 2
3358 1 2.22102 -1.05789 0.02 0 0 0 1 2
3360 1 2.23079 -1.2473 0.02 0 0 0 1 2
3497 1 2.9073 -4.95526 0.02 0 0 0 1 2
3495 1 2.85872 -5.15353 0.02 0 0 0 1 2
3322 1 2.85054 -0.380287 0.02 0 -1.60994e-24 -1.3392e-25 1 2
3359 1 2.0073 -1.05303 0.02 0 0 0 1 2
3504 1 2.3365 -4.62936 0.02 0 0 0 1 2
3505 1 2.16315 -4.447 0.02 0 0 0 1 2
3503 1 2.14394 -4.65256 0.02 0 0 0 1 2
3507 1 2.52831 -4.6478 0.02 0 0 0 1 2
3509 1 2.55222 -4.44355 0.02 0 0 0 1 2
3506 1 2.35846 -4.42274 0.02 0 0 0 1 2
3510 1 2.74393 -4.48888 0.02 0 0 0 1 2
3508 1 2.72196 -4.68828 0.02 0 0 0 1 2
3512 1 2.93491 -4.52488 0.02 0 0 0 1 2
3511 1 2.91543 -4.73594 0.02 0 0 0 1 2
3361 1 2.026 -1.2436 0.02 0 0 0 1 2
3326 1 2.63044 -0.366715 0.02 0 0 0 1 2
3325 1 2.62248 -0.186694 0.02 0 0 0 1 2
3321 1 2.84281 -0.191014 0.02 0 -1.78661e-24 -6.07303e-26 1 2
3519 1 2.15549 -4.03087 0.02 0 0 0 1 2
3517 1 2.17402 -4.23977 0.02 0 0 0 1 2
3521 1 2.55809 -4.23733 0.02 0 0 0 1 2
3523 1 2.5508 -4.03445 0.02 0 0 0 1 2
3518 1 2.36643 -4.21592 0.02 0 0 0 1 2
3520 1 2.35127 -4.01238 0.02 0 0 0 1 2
3524 1 2.74525 -4.07203 0.02 0 0 0 1 2
3522 1 2.74515 -4.28241 0.02 0 0 0 1 2
3526 1 2.93499 -4.1015 0.02 0 0 0 1 2
3525 1 2.93321 -4.31103 0.02 0 0 0 1 2
3348 1 2.85474 -0.926657 0.02 0 0 0 1 2
3323 1 2.81031 -0.00163552 0.02 0 -1.05219e-25 1.0454e-26 1 2
3328 1 2.38405 -0.178949 0.02 0 0 0 1 2
3534 1 2.08712 -3.61902 0.02 0 0 0 1 2
3532 1 2.12671 -3.823 0.02 0 0 0 1 2
3533 1 2.32097 -3.81161 0.02 0 0 0 1 2
3535 1 2.29293 -3.61431 0.02 0 0 0 1 2
3536 1 2.52251 -3.83683 0.02 0 0 0 1 2
3538 1 2.50024 -3.64041 0.02 0 0 0 1 2
3539 1 2.69887 -3.65783 0.02 0 0 0 1 2
3537 1 2.72502 -3.86495 0.02 0 0 0 1 2
3543 1 2.89145 -3.69232 0.02 0 0 0 1 2
3349 1 2.86676 -1.11332 0.02 0 0 0 1 2
3342 1 2.20784 -0.518612 0.02 0 0 0 1 2
3541 1 2.923 -3.89529 0.02 0 0 0 1 2
3540 1 2.85902 -3.48357 0.02 0 0 0 1 2
3338 1 2.66659 -0.545805 0.02 0 0 0 1 2
3329 1 2.40829 -0.354571 0.02 0 0 0 1 2
3550 1 2.01657 -3.22195 0.02 0 0 0 1 2
3551 1 2.21245 -3.22105 0.02 0 0 0 1 2
3549 1 2.25843 -3.4196 0.02 0 0 0 1 2
3548 1 2.05396 -3.42201 0.02 0 0 0 1 2
3555 1 2.66715 -3.44779 0.02 0 0 0 1 2
3556 1 2.61655 -3.23968 0.02 0 0 0 1 2
3553 1 2.41842 -3.25259 0.02 0 0 0 1 2
3554 1 2.4681 -3.44577 0.02 0 0 0 1 2
3552 1 2.37499 -3.05461 0.02 0 0 0 1 2
3557 1 2.81308 -3.27042 0.02 0 0 0 1 2
3558 1 2.75895 -3.06132 0.02 0 0 0 1 2
3324 1 2.60201 -0.00544743 0.02 0 0 0 1 2
3369 1 2.85685 -1.48823 0.02 0 -7.58515e-26 2.54029e-26 1 2
3350 1 2.86045 -1.30026 0.02 0 0 0 1 2
3343 1 2.15263 -0.692423 0.02 0 0 0 1 2
3419 1 2.31925 -2.61866 0.02 0 0 0 1 2
3422 1 2.18313 -3.01297 0.02 0 0 0 1 2
3421 1 2.15816 -2.8055 0.02 0 0 0 1 2
3418 1 2.56413 -3.02855 0.02 0 0 0 1 2
3417 1 2.53321 -2.81783 0.02 0 0 0 1 2
3415 1 2.50686 -2.61135 0.02 0 0 0 1 2
3420 1 2.34665 -2.8411 0.02 0 0 0 1 2
3416 1 2.72644 -2.85338 0.02 0 0 0 1 2
3414 1 2.70079 -2.64639 0.02 0 0 0 1 2
3410 1 2.90322 -2.63352 0.02 0 0 0 1 2
3413 1 2.95269 -3.02388 0.02 0 0 0 1 2
3412 1 2.9213 -2.82677 0.02 0 0 0 1 2
3356 1 2.43797 -1.2477 0.02 0 0 0 1 2
3354 1 2.42536 -0.879765 0.02 0 0 0 1 2
3405 1 2.12592 -2.40127 0.02 0 0 0 1 2
3402 1 2.29881 -2.21184 0.02 0 0 0 1 2
3404 1 2.33396 -2.41029 0.02 0 0 0 1 2
3403 1 2.09606 -2.20505 0.02 0 0 0 1 2
3406 1 2.13212 -2.60028 0.02 0 0 0 1 2
3399 1 2.49994 -2.21393 0.02 0 0 0 1 2
3400 1 2.53907 -2.41304 0.02 0 0 0 1 2
3398 1 2.70622 -2.24572 0.02 0 0 0 1 2
3401 1 2.74026 -2.44696 0.02 0 0 0 1 2
3397 1 2.94563 -2.44523 0.02 0 0 0 1 2
3395 1 2.91343 -2.25355 0.02 0 0 0 1 2
3355 1 2.44095 -1.06301 0.02 0 0 0 1 2
3351 1 2.64226 -0.894518 0.02 0 0 0 1 2
3389 1 2.00084 -1.81365 0.02 0 0 0 1 2
3390 1 2.22688 -2.02069 0.02 0 0 0 1 2
3388 1 2.20764 -1.82838 0.02 0 0 0 1 2
3391 1 2.0203 -2.00946 0.02 0 0 0 1 2
3384 1 2.62816 -1.85627 0.02 0 0 0 1 2
3385 1 2.65012 -2.04849 0.02 0 0 0 1 2
3386 1 2.41631 -1.82425 0.02 0 0 0 1 2
3387 1 2.43647 -2.01811 0.02 0 0 0 1 2
3382 1 2.85916 -2.06309 0.02 0 -3.85235e-33 -2.46757e-33 1 2
3383 1 2.84017 -1.86976 0.02 0 -3.72612e-26 -1.10672e-26 1 2
3327 1 2.39188 -0.00100826 0.02 0 0 0 1 2
3370 1 2.81066 -1.67585 0.02 0 -3.43824e-26 6.14843e-28 1 2
3317 1 2.33087 0.175954 0.02 0 0 0 1 2
3315 1 2.12022 0.204196 0.02 0 0 0 1 2
3316 1 2.19604 0.384557 0.02 0 0 0 1 2
3318 1 2.17567 0.0129896 0.02 0 0 0 1 2
3320 1 2.56546 0.178308 0.02 0 0 0 1 2
3321 1 2.61065 0.370658 0.02 0 0 0 1 2
3319 1 2.40857 0.345641 0.02 0 0 0 1 2
3323 1 2.80207 0.397128 0.02 0 -2.18192e-32 1.23389e-32 1 2
3322 1 2.78269 0.191836 0.02 0 -3.43016e-27 7.13576e-28 1 2
114 2 2.6 7.6 0 0 0 0 1 5
81 2 2.8 7.4 0 0 0 0 0.998984 5
418 2 2.2 9.4 0 0 0 0 1 5
417 2 2 9.4 0 0 0 0 1 5
3330 1 2.20254 0.57837 0.02 0 0 0 1 2
3332 1 2.22714 0.774756 0.02 0 0 0 1 2
3331 1 2.02485 0.789319 0.02 0 0 0 1 2
3335 1 2.60442 0.575485 0.02 0 0 0 1 2
3336 1 2.60538 0.79305 0.02 0 0 0 1 2
3334 1 2.42273 0.729299 0.02 0 0 0 1 2
3333 1 2.40396 0.534418 0.02 0 0 0 1 2
3338 1 2.79298 0.818836 0.02 0 -5.03058e-30 -2.06311e-30 1 2
3337 1 2.79408 0.609715 0.02 0 0 0 1 2
115 2 2.8 7.6 0 0 0 0 1 5
80 2 2.6 7.4 0 0 0 0 1.00411 5
149 2 2.8 7.8 0 0 0 0 1 5
384 2 2.2 9.2 0 0 0 0 1 5
383 2 2 9.2 0 0 0 0 1 5
3346 1 2.195 0.975685 0.02 0 0 0 1 2
3347 1 2.15916 1.17683 0.02 0 0 0 1 2
3350 1 2.58373 1.00126 0.02 0 0 0 1 2
3351 1 2.54413 1.19622 0.02 0 0 0 1 2
3348 1 2.35506 1.14765 0.02 0 0 0 1 2
3349 1 2.3963 0.936337 0.02 0 0 0 1 2
3353 1 2.7877 1.01873 0.02 0 -5.79789e-28 -8.915e-29 1 2
3352 1 2.75065 1.20755 0.02 0 -3.96281e-28 -3.09631e-29 1 2
148 2 2.6 7.8 0 0 0 0 1 5
78 2 2.2 7.4 0 0 0 0 0.999883 5
385 2 2.4 9.2 0 0 0 0 1 5
352 2 2.6 9 0 0 0 0 1 5
319 2 2.8 8.8 0 0 0 0 1 5
3363 1 2.18655 1.56786 0.02 0 0 0 1 2
3362 1 2.17192 1.37483 0.02 0 0 0 1 2
3366 1 2.58587 1.3854 0.02 0 0 0 1 2
3367 1 2.61147 1.56958 0.02 0 0 0 1 2
3364 1 2.37308 1.36257 0.02 0 0 0 1 2
3365 1 2.39708 1.56248 0.02 0 0 0 1 2
3368 1 2.80863 1.39229 0.02 0 -4.3151e-26 4.41791e-27 1 2
3369 1 2.82878 1.57633 0.02 0 -4.25992e-26 8.39083e-27 1 2
147 2 2.4 7.8 0 0 0 0 1 5
283 2 2.4 8.6 0 0 0 0 1 5
489 2 2.8 9.8 0 0 0 0 1 5
488 2 2.6 9.8 0 0 0 0 1 5
3376 1 2.01454 1.94621 0.02 0 0 0 1 2
3377 1 2.2364 1.94221 0.02 0 0 0 1 2
3379 1 2.25726 2.12294 0.02 0 0 0 1 2
3375 1 2.18569 1.75982 0.02 0 0 0 1 2
3378 1 2.03665 2.13505 0.02 0 0 0 1 2
3385 1 2.68941 2.11891 0.02 0 0 0 1 2
3381 1 2.6102 1.75526 0.02 0 0 0 1 2
3382 1 2.47327 1.93387 0.02 0 0 0 1 2
3384 1 2.47255 2.11742 0.02 0 0 0 1 2
3380 1 2.39301 1.75845 0.02 0 0 0 1 2
3383 1 2.69747 1.93002 0.02 0 0 0 1 2
282 2 2.2 8.6 0 0 0 0 1 5
3390 1 2.91035 2.13023 0.02 0 0 0 1 2
3388 1 2.91346 1.94466 0.02 0 0 0 1 2
3386 1 2.83825 1.76097 0.02 0 -1.33009e-34 6.73197e-35 1 2
315 2 2 8.8 0 0 0 0 1 5
316 2 2.2 8.8 0 0 0 0 1 5
455 2 2.8 9.6 0 0 0 0 1 5
3396 1 2.24922 2.49861 0.02 0 0 0 1 2
3395 1 2.25713 2.30854 0.02 0 0 0 1 2
3394 1 2.04779 2.3268 0.02 0 0 0 1 2
3397 1 2.04439 2.52306 0.02 0 0 0 1 2
3399 1 2.67664 2.31244 0.02 0 0 0 1 2
3401 1 2.66857 2.51007 0.02 0 0 0 1 2
3398 1 2.4708 2.30393 0.02 0 0 0 1 2
3400 1 2.45841 2.49342 0.02 0 0 0 1 2
281 2 2 8.6 0 0 0 0 1 5
249 2 2.4 8.4 0 0 0 0 1 5
3403 1 2.87781 2.50674 0.02 0 0 0 1 2
3402 1 2.88047 2.31437 0.02 0 0 0 1 2
454 2 2.6 9.6 0 0 0 0 1 5
487 2 2.4 9.8 0 0 0 0 1 5
3409 1 2.05279 2.71578 0.02 0 0 0 1 2
3411 1 2.11651 2.90315 0.02 0 0 0 1 2
3412 1 2.31236 2.88205 0.02 0 0 0 1 2
3410 1 2.26485 2.68963 0.02 0 0 0 1 2
3414 1 2.67869 2.71003 0.02 0 0 0 1 2
3415 1 2.50483 2.89051 0.02 0 0 0 1 2
3413 1 2.47542 2.68675 0.02 0 0 0 1 2
3416 1 2.69454 2.91807 0.02 0 0 0 1 2
248 2 2.2 8.4 0 0 0 0 1 5
182 2 2.6 8 0 0 0 0 1 5
3418 1 2.88091 2.91763 0.02 0 0 0 1 2
3417 1 2.87805 2.70476 0.02 0 0 0 1 2
486 2 2.2 9.8 0 0 0 0 1 5
451 2 2 9.6 0 0 0 0 1 5
3425 1 2.32577 3.08945 0.02 0 0 0 1 2
3423 1 2.13128 3.09972 0.02 0 0 0 1 2
3424 1 2.14802 3.29669 0.02 0 0 0 1 2
3427 1 2.51522 3.10179 0.02 0 0 0 1 2
3429 1 2.5266 3.31379 0.02 0 0 0 1 2
3426 1 2.33998 3.30158 0.02 0 0 0 1 2
3430 1 2.6992 3.37425 0.02 0 0 0 1 2
3428 1 2.698 3.13353 0.02 0 0 0 1 2
183 2 2.8 8 0 0 0 0 1 5
216 2 2.6 8.2 0 0 0 0 1 5
3432 1 2.8822 3.36904 0.02 0 0 0 1 2
3431 1 2.87462 3.15493 0.02 0 0 0 1 2
318 2 2.6 8.8 0 0 0 0 1 5
485 2 2 9.8 0 0 0 0 1 5
3442 1 2.33835 3.50843 0.02 0 0 0 1 2
3441 1 2.32021 3.71155 0.02 0 0 0 1 2
3440 1 2.12874 3.7084 0.02 0 0 0 1 2
3439 1 2.14411 3.49899 0.02 0 0 0 1 2
3446 1 2.68605 3.79492 0.02 0 0 0 1 2
3443 1 2.52533 3.54104 0.02 0 0 0 1 2
3445 1 2.50007 3.76402 0.02 0 0 0 1 2
3444 1 2.70961 3.59079 0.02 0 0 0 1 2
217 2 2.8 8.2 0 0 0 0 1 5
181 2 2.4 8 0 0 0 0 1 5
3448 1 2.90043 3.57702 0.02 0 0 0 1 2
3447 1 2.87789 3.78411 0.02 0 0 0 1 2
453 2 2.4 9.6 0 0 0 0 1 5
452 2 2.2 9.6 0 0 0 0 1 5
3459 1 2.30829 4.34281 0.02 0 0 0 1 2
3458 1 2.28611 4.1269 0.02 0 0 0 1 2
3455 1 2.2795 3.9149 0.02 0 0 0 1 2
3457 1 2.09786 4.14092 0.02 0 0 0 1 2
3456 1 2.08908 3.9248 0.02 0 0 0 1 2
3461 1 2.65961 3.99241 0.02 0 0 0 1 2
3463 1 2.66974 4.19056 0.02 0 0 0 1 2
3460 1 2.46479 3.97811 0.02 0 0 0 1 2
3462 1 2.47376 4.19164 0.02 0 0 0 1 2
3465 1 2.86958 4.19379 0.02 0 0 0 1 2
3464 1 2.86089 3.99109 0.02 0 0 0 1 2
213 2 2 8.2 0 0 0 0 1 5
214 2 2.2 8.2 0 0 0 0 1 5
387 2 2.8 9.2 0 0 0 0 1 5
420 2 2.6 9.4 0 0 0 0 1 5
3473 1 2.0871 4.77037 0.02 0 0 0 1 2
3470 1 2.11647 4.35424 0.02 0 0 0 1 2
3471 1 2.08291 4.5638 0.02 0 0 0 1 2
3474 1 2.28686 4.75637 0.02 0 0 0 1 2
3472 1 2.27863 4.54974 0.02 0 0 0 1 2
3478 1 2.67247 4.59395 0.02 0 0 0 1 2
3475 1 2.50069 4.40013 0.02 0 0 0 1 2
3477 1 2.47103 4.59867 0.02 0 0 0 1 2
3476 1 2.69743 4.39142 0.02 0 0 0 1 2
3480 1 2.89157 4.39746 0.02 0 0 0 1 2
3479 1 2.8773 4.59645 0.02 0 0 0 1 2
215 2 2.4 8.2 0 0 0 0 1 5
179 2 2 8 0 0 0 0 1 5
421 2 2.8 9.4 0 0 0 0 1 5
386 2 2.6 9.2 0 0 0 0 1 5
3486 1 2.08974 4.97924 0.02 0 0 0 1 2
3488 1 2.12502 5.17867 0.02 0 0 0 1 2
3489 1 2.32221 5.17123 0.02 0 0 0 1 2
3487 1 2.27877 4.96035 0.02 0 0 0 1 2
3493 1 2.67273 4.99091 0.02 0 0 0 1 2
3490 1 2.49884 4.79151 0.02 0 0 0 1 2
3494 1 2.52078 5.17948 0.02 0 0 0 1 2
3492 1 2.47089 4.98375 0.02 0 0 0 1 2
3491 1 2.70938 4.79204 0.02 0 0 0 1 2
3495 1 2.71743 5.19605 0.02 0 0 0 1 2
3496 1 2.87944 4.97531 0.02 0 0 0 1 2
3498 1 2.9172 4.78818 0.02 0 0 0 1 2
3500 1 2.90802 5.16561 0.02 0 0 0 1 2
180 2 2.2 8 0 0 0 0 1 5
317 2 2.4 8.8 0 0 0 0 1 5
349 2 2 9 0 0 0 0 1 5
419 2 2.4 9.4 0 0 0 0 1 5
3504 1 2.12199 5.36944 0.02 0 0 0 1 2
3505 1 2.33604 5.3719 0.02 0 0 0 1 2
3506 1 2.13869 5.56057 0.02 0 0 0 1 2
3510 1 2.53976 5.56976 0.02 0 0 0 1 2
3508 1 2.5458 5.37556 0.02 0 0 0 1 2
3507 1 2.34057 5.56919 0.02 0 0 0 1 2
3509 1 2.7515 5.39607 0.02 0 0 0 1 2
3511 1 2.73946 5.59251 0.02 0 0 0 1 2
3512 1 2.94665 5.36629 0.02 0 0 0 1 2
3514 1 2.93734 5.57151 0.02 0 0 0 1 2
350 2 2.2 9 0 0 0 0 1 5
285 2 2.8 8.6 0 0 0 0 1 5
3520 1 2.16229 5.96109 0.02 0 1.92558e-08 -3.04665e-08 1 2
3518 1 2.15186 5.7584 0.02 0 0 0 1 2
3524 1 2.55507 5.96059 0.02 0 8.30131e-09 -2.5267e-08 1 2
3522 1 2.54698 5.76649 0.02 0 3.87372e-12 -1.3991e-11 1 2
3521 1 2.35536 5.96894 0.02 0 1.27438e-08 -3.63137e-08 1 2
3519 1 2.34895 5.76924 0.02 0 6.85306e-12 -2.00141e-11 1 2
3523 1 2.74613 5.78818 0.02 0 6.18423e-12 -2.04799e-11 1 2
3525 1 2.75789 5.98164 0.02 0 2.55101e-08 -8.09801e-08 1 2
3528 1 2.9538 5.97788 0.02 0 1.51939e-08 -4.67532e-08 1 2
3526 1 2.94185 5.77466 0.02 0 6.62397e-12 -2.34336e-11 1 2
284 2 2.6 8.6 0 0 0 0 1 5
251 2 2.8 8.4 0 0 0 0 1 5
3532 1 2.0032 6.17157 0.02 0 0 0 1 2
3533 1 2.18388 6.16841 0.02 0 2.19585e-05 -3.03722e-05 1 2
3535 1 2.18684 6.37308 0.02 0 0.000532851 -0.00028638 1 2
3537 1 2.55439 6.15436 0.02 0 3.56841e-06 -7.77381e-06 1 2
3539 1 2.57759 6.34999 0.02 0 7.61203e-05 -0.000101164 1 2
3536 1 2.38248 6.36768 0.02 0 0.000185014 -0.000159251 1 2
3534 1 2.36736 6.17056 0.02 0 9.34196e-06 -1.52475e-05 1 2
3540 1 2.77205 6.37171 0.02 0 9.37279e-05 -0.000127007 1 2
3538 1 2.74692 6.17538 0.02 0 5.12213e-06 -1.06736e-05 1 2
146 2 2.2 7.8 0 0 0 0 1 5
3541 1 2.94222 6.17815 0.02 0 5.3604e-06 -1.14114e-05 1 2
250 2 2.6 8.4 0 0 0 0 1 5
247 2 2 8.4 0 0 0 0 1 5
3547 1 2.01144 6.57228 0.02 0 -0.00150033 0.000634507 1 2
3548 1 2.20272 6.56745 0.02 0 0.000936136 -4.93227e-05 1 2
3550 1 2.19771 6.75825 0.02 0 -0.00322507 0.000125299 1 2
3552 1 2.58757 6.5425 0.02 0 0.000216399 -0.000363852 1 2
3554 1 2.58968 6.73064 0.02 0 -0.00238308 0.000371733 1 2
3549 1 2.39398 6.55802 0.02 0 0.000347294 -0.000374502 1 2
3551 1 2.3978 6.74497 0.02 0 -0.002411 0.000231835 1 2
3553 1 2.78433 6.564 0.02 0 0.000186753 -0.00039793 1 2
3555 1 2.78086 6.75379 0.02 0 -0.00297379 0.000408344 1 2
145 2 2 7.8 0 0 0 0 1 5
77 2 2 7.4 0 0 0 0 1.01145 5
353 2 2.8 9 0 0 0 0 1 5
351 2 2.4 9 0 0 0 0 1 5
9 2 2 7 0 0 0 0 1.01 5
10 2 2.2 7 0 0 0 0 1.00332 5
11 2 2.4 7 0 0 0 0 0.999737 5
43 2 2 7.2 0 0 0 0 1.01159 5
44 2 2.2 7.2 0 0 0 0 1.00258 5
45 2 2.4 7.2 0 0 0 0 0.998617 5
13 2 2.8 7 0 0 0 0 1.00029 5
46 2 2.6 7.2 0 0 0 0 1.00078 5
12 2 2.6 7 0 0 0 0 1.00034 5
47 2 2.8 7.2 0 0 0 0 1.00052 5
79 2 2.4 7.4 0 0 0 0 0.999018 5
113 2 2.4 7.6 0 0 0 0 1 5
112 2 2.2 7.6 0 0 0 0 1 5
111 2 2 7.6 0 0 0 0 1 5
1583 2 3.2 -9.6 0 0 0 0 1 5
1582 2 3 -9.6 0 0 0 0 1 5
1549 2 3.2 -9.8 0 0 0 0 1 5
1548 2 3 -9.8 0 0 0 0 1 5
1515 2 3.2 -10 0 0 0 0 1 5
1514 2 3 -10 0 0 0 0 1 5
1584 2 3.4 -9.6 0 0 0 0 1 5
1550 2 3.4 -9.8 0 0 0 0 1 5
1516 2 3.4 -10 0 0 0 0 1 5
1586 2 3.8 -9.6 0 0 0 0 1 5
1585 2 3.6 -9.6 0 0 0 0 1 5
1552 2 3.8 -9.8 0 0 0 0 1 5
1551 2 3.6 -9.8 0 0 0 0 1 5
1518 2 3.8 -10 0 0 0 0 1 5
1517 2 3.6 -10 0 0 0 0 1 5
1588 2 4.2 -9.6 0 0 0 0 1 5
1587 2 4 -9.6 0 0 0 0 1 5
1554 2 4.2 -9.8 0 0 0 0 1 5
1553 2 4 -9.8 0 0 0 0 1 5
1520 2 4.2 -10 0 0 0 0 1 5
1519 2 4 -10 0 0 0 0 1 5
1616 2 3 -9.4 0 0 0 0 1 5
1617 2 3.2 -9.4 0 0 0 0 1 5
1651 2 3.2 -9.2 0 0 0 0 1 5
1650 2 3 -9.2 0 0 0 0 1 5
1652 2 3.4 -9.2 0 0 0 0 1 5
1618 2 3.4 -9.4 0 0 0 0 1 5
1653 2 3.6 -9.2 0 0 0 0 1 5
1654 2 3.8 -9.2 0 0 0 0 1 5
1620 2 3.8 -9.4 0 0 0 0 1 5
1619 2 3.6 -9.4 0 0 0 0 1 5
1622 2 4.2 -9.4 0 0 0 0 1 5
1655 2 4 -9.2 0 0 0 0 1 5
1656 2 4.2 -9.2 0 0 0 0 1 5
1621 2 4 -9.4 0 0 0 0 1 5
1719 2 3.2 -8.8 0 0 0 0 1 5
1718 2 3 -8.8 0 0 0 0 1 5
1685 2 3.2 -9 0 0 0 0 1 5
1684 2 3 -9 0 0 0 0 1 5
1686 2 3.4 -9 0 0 0 0 1 5
1720 2 3.4 -8.8 0 0 0 0 1 5
1687 2 3.6 -9 0 0 0 0 1 5
1688 2 3.8 -9 0 0 0 0 1 5
1721 2 3.6 -8.8 0 0 0 0 1 5
1722 2 3.8 -8.8 0 0 0 0 1 5
1689 2 4 -9 0 0 0 0 1 5
1690 2 4.2 -9 0 0 0 0 1 5
1723 2 4 -8.8 0 0 0 0 1 5
1724 2 4.2 -8.8 0 0 0 0 1 5
1752 2 3 -8.6 0 0 0 0 1 5
1753 2 3.2 -8.6 0 0 0 0 1 5
1786 2 3 -8.4 0 0 0 0 1 5
1787 2 3.2 -8.4 0 0 0 0 1 5
1754 2 3.4 -8.6 0 0 0 0 1 5
1788 2 3.4 -8.4 0 0 0 0 1 5
1755 2 3.6 -8.6 0 0 0 0 1 5
1756 2 3.8 -8.6 0 0 0 0 1 5
1789 2 3.6 -8.4 0 0 0 0 1 5
1790 2 3.8 -8.4 0 0 0 0 1 5
1757 2 4 -8.6 0 0 0 0 1 5
1758 2 4.2 -8.6 0 0 0 0 1 5
1791 2 4 -8.4 0 0 0 0 1 5
1792 2 4.2 -8.4 0 0 0 0 1 5
1820 2 3 -8.2 0 0 0 0 1 5
1821 2 3.2 -8.2 0 0 0 0 1 5
1854 2 3 -8 0 0 0 0 1 5
1855 2 3.2 -8 0 0 0 0 1 5
1822 2 3.4 -8.2 0 0 0 0 1 5
1856 2 3.4 -8 0 0 0 0 1 5
1823 2 3.6 -8.2 0 0 0 0 1 5
1824 2 3.8 -8.2 0 0 0 0 1 5
1857 2 3.6 -8 0 0 0 0 1 5
1858 2 3.8 -8 0 0 0 0 1 5
1825 2 4 -8.2 0 0 0 0 1 5
1826 2 4.2 -8.2 0 0 0 0 1 5
1859 2 4 -8 0 0 0 0 1 5
1860 2 4.2 -8 0 0 0 0 1 5
1888 2 3 -7.8 0 0 0 0 1 5
1889 2 3.2 -7.8 0 0 0 0 1 5
1922 2 3 -7.6 0 0 0 0 1 5
1923 2 3.2 -7.6 0 0 0 0 1 5
1956 2 3 -7.4 0 0 0 0 1.0009 5
1957 2 3.2 -7.4 0 0 0 0 0.999417 5
1890 2 3.4 -7.8 0 0 0 0 1 5
1924 2 3.4 -7.6 0 0 0 0 1 5
1958 2 3.4 -7.4 0 0 0 0 0.998859 5
1891 2 3.6 -7.8 0 0 0 0 1 5
1892 2 3.8 -7.8 0 0 0 0 1 5
1925 2 3.6 -7.6 0 0 0 0 1 5
1926 2 3.8 -7.6 0 0 0 0 1 5
1959 2 3.6 -7.4 0 0 0 0 0.987311 5
1960 2 3.8 -7.4 0 0 0 0 1.00559 5
1893 2 4 -7.8 0 0 0 0 1 5
1894 2 4.2 -7.8 0 0 0 0 1 5
1927 2 4 -7.6 0 0 0 0 1 5
1928 2 4.2 -7.6 0 0 0 0 1 5
1961 2 4 -7.4 0 0 0 0 1.00113 5
1962 2 4.2 -7.4 0 0 0 0 0.998664 5
1990 2 3 -7.2 0 0 0 0 1.0012 5
1991 2 3.2 -7.2 0 0 0 0 1.00056 5
2024 2 3 -7 0 0 0 0 1.00057 5
2025 2 3.2 -7 0 0 0 0 0.999818 5
1992 2 3.4 -7.2 0 0 0 0 0.996139 5
2026 2 3.4 -7 0 0 0 0 0.99557 5
1993 2 3.6 -7.2 0 0 0 0 0.987287 5
1994 2 3.8 -7.2 0 0 0 0 1.00506 5
2027 2 3.6 -7 0 0 0 0 0.9882 5
2028 2 3.8 -7 0 0 0 0 1.0036 5
1995 2 4 -7.2 0 0 0 0 1.00204 5
1996 2 4.2 -7.2 0 0 0 0 0.999864 5
2029 2 4 -7 0 0 0 0 1.00251 5
2030 2 4.2 -7 0 0 0 0 0.999973 5
3438 1 3.38478 -6.57252 0.02 0 0.000430888 0.000470924 1 2
3437 1 3.3805 -6.75403 0.02 0 -0.00185904 -0.000337289 1 2
3175 1 3.98782 -6.55978 0.016657 0 -0.000662383 -0.000348835 1 2
3176 1 4.17592 -6.56879 0.0181345 0 -0.00131643 -0.000167337 1 2
3174 1 4.05039 -6.75993 0.0103168 0 -0.00078159 4.41108e-05 1 2
3177 1 4.23689 -6.73563 0.0124243 0 -0.0015546 -0.000193334 1 2
3179 1 4.37095 -6.55292 0.0167217 0 7.16198e-05 0.000366374 1 2
3367 1 3.22955 -1.68718 0.02 0 -3.91581e-22 1.18405e-23 1 2
3178 1 4.35966 -6.75328 0.0112048 0 -0.000691764 -4.37408e-05 1 2
3070 1 4.41908 -0.140142 0.02 0 -1.23762e-18 -4.24668e-20 1 2
3561 1 3.1845 -3.26538 0.02 0 0 0 1 2
3453 1 3.37196 -6.21492 0.02 0 1.65126e-05 2.25328e-05 1 2
3452 1 3.37648 -6.39636 0.02 0 0.000216844 0.000186883 1 2
3189 1 4.03158 -6.37653 0.0179819 0 0.000163509 -0.000123683 1 2
3191 1 4.23083 -6.37813 0.0182987 0 -9.89143e-05 0.000109434 1 2
3190 1 4.1844 -6.18885 0.0180102 0 0.000122608 5.15739e-05 1 2
3192 1 4.42532 -6.36413 0.0179862 0 7.53078e-05 0.000240243 1 2
3194 1 4.38759 -6.1736 0.0179136 0 0.000425028 9.65202e-05 1 2
3546 1 3.22294 -3.48262 0.02 0 0 0 1 2
3317 1 3.24454 -0.133578 0.02 0 -2.06461e-21 5.29642e-22 1 2
3470 1 3.4107 -5.82321 0.02 0 -2.39325e-09 4.26265e-10 1 2
3469 1 3.38612 -6.0226 0.02 0 1.07227e-07 2.94993e-07 1 2
3204 1 4.17351 -5.99591 0.0185636 0 0.000113174 1.99454e-05 1 2
3205 1 4.18831 -5.79861 0.0198916 0 -0.000217043 -3.41371e-05 1 2
3206 1 4.38229 -5.9881 0.0194258 0 -0.000165462 4.84994e-06 1 2
3208 1 4.39082 -5.80404 0.0199424 0 -5.85426e-05 -1.0815e-05 1 2
3482 1 3.22955 -5.62473 0.02 0 0 0 1 2
3484 1 3.2205 -5.42502 0.02 0 0 0 1 2
3486 1 3.43105 -5.62458 0.02 0 -1.70926e-07 -4.56429e-09 1 2
3487 1 3.41969 -5.42685 0.02 0 -6.19264e-08 -1.33045e-08 1 2
3219 1 4.01707 -5.58567 0.0198821 0 -3.23703e-05 -5.49685e-06 1 2
3220 1 4.03719 -5.38583 0.0199037 0 -7.16157e-06 -7.34763e-07 1 2
3222 1 4.23833 -5.40026 0.0199018 0 1.21165e-05 5.62933e-06 1 2
3221 1 4.21333 -5.59899 0.0198942 0 -3.25804e-06 8.03488e-06 1 2
3380 1 3.05061 -1.89012 0.02 0 -1.85752e-23 -8.46758e-24 1 2
3223 1 4.41629 -5.61945 0.0199192 0 9.61833e-05 6.77866e-05 1 2
3381 1 3.07151 -2.08206 0.02 0 -9.13245e-25 -8.49813e-25 1 2
3466 1 3.1879 -6.01992 0.02 0 8.59691e-08 2.24814e-07 1 2
3332 1 3.29612 -0.543963 0.02 0 -8.80539e-22 -2.62361e-22 1 2
3333 1 3.30927 -0.743731 0.02 0 -3.19087e-23 -1.52961e-23 1 2
3238 1 4.11037 -4.80394 0.0199991 0 -1.20925e-05 -5.41315e-07 1 2
3236 1 4.07239 -5.18892 0.0199076 0 3.71809e-06 9.24201e-07 1 2
3237 1 4.07714 -4.99345 0.01994 0 3.62328e-06 5.89032e-07 1 2
3239 1 4.27536 -5.20589 0.0199136 0 8.83359e-06 1.37507e-06 1 2
3240 1 4.28197 -5.00972 0.0199665 0 -2.79314e-06 -8.99073e-07 1 2
3394 1 3.12284 -2.27334 0.02 0 -1.25832e-28 -1.87551e-28 1 2
3366 1 3.06559 -1.5099 0.02 0 -3.00111e-23 1.25782e-23 1 2
3241 1 4.32395 -4.82157 0.0199999 0 -7.44063e-07 -1.6952e-07 1 2
3468 1 3.22019 -5.8254 0.02 0 7.54592e-11 4.94663e-10 1 2
3345 1 3.27226 -1.12914 0.02 0 -9.36965e-26 7.35426e-26 1 2
3252 1 4.0802 -4.61251 0.02 0 -2.37989e-06 -3.6482e-07 1 2
3253 1 4.07256 -4.41611 0.02 0 -3.43725e-08 -7.74815e-09 1 2
3254 1 4.28774 -4.62864 0.02 0 3.62712e-06 1.73961e-06 1 2
3255 1 4.27455 -4.43154 0.02 0 8.16083e-07 5.26234e-07 1 2
3365 1 3.07321 -1.31831 0.02 0 -1.86646e-24 1.6202e-24 1 2
3559 1 3.03845 -3.4404 0.02 0 0 0 1 2
3344 1 3.28317 -0.937006 0.02 0 -3.09769e-26 -2.52094e-26 1 2
3363 1 3.28459 -1.31904 0.02 0 -1.79537e-23 8.6433e-24 1 2
3530 1 3.46345 -4.16644 0.02 0 -6.69334e-12 1.63757e-12 1 2
3531 1 3.45973 -3.93897 0.02 0 -8.26111e-14 4.66221e-15 1 2
3267 1 4.02688 -4.21847 0.02 0 -6.50559e-12 -7.13406e-11 1 2
3269 1 4.23051 -4.23312 0.02 0 2.1499e-08 4.50237e-08 1 2
3268 1 4.18899 -4.03014 0.02 0 5.80184e-10 8.13026e-10 1 2
3272 1 4.38495 -4.04595 0.02 0 -1.06296e-09 1.89182e-09 1 2
3544 1 3.07483 -3.66781 0.02 0 0 0 1 2
3436 1 3.1837 -6.5675 0.02 0 0.000204941 0.000417514 1 2
3434 1 3.17755 -6.75088 0.02 0 -0.00276396 -0.000484075 1 2
3547 1 3.43397 -3.69071 0.02 0 0 0 1 2
3283 1 4.15005 -3.81852 0.02 0 2.38155e-10 7.85759e-12 1 2
3284 1 4.14651 -3.60455 0.02 0 -3.73715e-10 -1.87545e-11 1 2
3396 1 3.14663 -2.47108 0.02 0 0 0 1 2
3411 1 3.12273 -2.86136 0.02 0 0 0 1 2
3287 1 4.33472 -3.61387 0.02 0 6.36919e-11 1.86609e-12 1 2
3285 1 4.33799 -3.82989 0.02 0 -2.03423e-10 5.92226e-12 1 2
3320 1 3.05871 -0.36101 0.02 0 -4.78206e-22 -5.67516e-23 1 2
3074 1 4.02822 -0.114362 0.02 0 -9.31484e-19 3.88414e-20 1 2
3364 1 3.28272 -1.50576 0.02 0 -1.98424e-22 5.58276e-23 1 2
3563 1 3.41009 -3.47057 0.02 0 0 0 1 2
3565 1 3.36515 -3.05966 0.02 0 0 0 1 2
3564 1 3.37515 -3.263 0.02 0 0 0 1 2
3300 1 4.12833 -3.17752 0.02 0 -1.05572e-13 -1.43409e-14 1 2
3299 1 4.12848 -3.39246 0.02 0 -2.8321e-11 -3.51718e-12 1 2
3409 1 3.11096 -2.66426 0.02 0 0 0 1 2
3562 1 3.16321 -3.05797 0.02 0 0 0 1 2
3303 1 4.31855 -3.1789 0.02 0 8.91218e-12 6.06036e-12 1 2
3302 1 4.31862 -3.39236 0.02 0 7.17251e-11 3.83603e-11 1 2
3378 1 3.28147 -2.0601 0.02 0 -1.35243e-23 -7.79547e-24 1 2
3379 1 3.25894 -1.87261 0.02 0 -1.70767e-22 -4.98572e-23 1 2
3408 1 3.32238 -2.85882 0.02 0 0 0 1 2
3407 1 3.31655 -2.65703 0.02 0 0 0 1 2
3173 1 4.1098 -2.96044 0.02 0 -3.54202e-17 -5.30055e-18 1 2
3172 1 4.11048 -2.75075 0.02 0 2.93151e-18 3.26748e-20 1 2
3347 1 3.07034 -1.12269 0.02 0 -2.94536e-29 3.93372e-29 1 2
3346 1 3.07073 -0.927547 0.02 0 -6.76131e-33 -9.03948e-33 1 2
3542 1 3.10968 -3.89978 0.02 0 0 0 1 2
3170 1 4.30397 -2.96783 0.02 0 2.46108e-13 2.76141e-13 1 2
3169 1 4.30754 -2.76422 0.02 0 9.15489e-16 1.17303e-15 1 2
3545 1 3.25412 -3.7064 0.02 0 0 0 1 2
3528 1 3.28725 -4.18255 0.02 0 0 0 1 2
3392 1 3.34485 -2.45564 0.02 0 0 0 1 2
3393 1 3.31947 -2.25202 0.02 0 -5.92213e-26 -4.65615e-26 1 2
3156 1 4.10227 -2.34122 0.02 0 -7.10232e-18 -3.12998e-19 1 2
3157 1 4.1137 -2.54458 0.02 0 -1.04075e-17 4.01783e-19 1 2
3527 1 3.11779 -4.12694 0.02 0 0 0 1 2
3515 1 3.11519 -4.35893 0.02 0 0 0 1 2
3154 1 4.3042 -2.36315 0.02 0 -9.52512e-19 5.88786e-20 1 2
3155 1 4.31048 -2.56319 0.02 0 1.18281e-17 3.97379e-19 1 2
3529 1 3.28504 -3.93522 0.02 0 0 0 1 2
3514 1 3.30466 -4.62064 0.02 0 0 0 1 2
3140 1 4.07706 -1.93796 0.02 0 1.88696e-18 -3.28578e-26 1 2
3141 1 4.10094 -2.14214 0.02 0 1.22034e-18 -4.5437e-21 1 2
3138 1 4.27666 -1.96891 0.02 0 -2.4825e-18 2.33549e-19 1 2
3136 1 4.28357 -1.77545 0.02 0 4.40652e-18 -3.07155e-19 1 2
3516 1 3.29678 -4.40594 0.02 0 0 0 1 2
3500 1 3.28545 -5.03037 0.02 0 0 0 1 2
3139 1 4.30555 -2.16607 0.02 0 3.88813e-18 8.66927e-19 1 2
3319 1 3.04838 -0.165193 0.02 0 -4.13231e-22 5.04578e-23 1 2
3501 1 3.10256 -4.79501 0.02 0 0 0 1 2
3362 1 3.44672 -1.68786 0.02 0 8.44703e-22 -1.33146e-23 1 2
3120 1 4.28799 -1.58116 0.02 0 2.97184e-18 -4.17567e-20 1 2
3122 1 4.10029 -1.52107 0.02 0 6.32836e-19 8.40782e-20 1 2
3121 1 4.10375 -1.31101 0.02 0 -9.28777e-18 2.81325e-19 1 2
3123 1 4.08126 -1.73196 0.02 0 -5.22178e-18 -6.3827e-20 1 2
3502 1 3.29801 -4.82684 0.02 0 -1.19037e-13 1.00409e-13 1 2
3318 1 3.25972 -0.340589 0.02 0 -3.185e-21 1.39102e-22 1 2
3118 1 4.29912 -1.38137 0.02 0 4.95312e-18 -6.10245e-19 1 2
3513 1 3.11765 -4.58327 0.02 0 0 0 1 2
3499 1 3.09314 -5.0012 0.02 0 0 0 1 2
3107 1 4.09887 -0.907127 0.02 0 -2.5044e-18 -1.09663e-19 1 2
3108 1 4.1051 -1.10797 0.02 0 6.86567e-19 -1.19086e-20 1 2
3485 1 3.27102 -5.22984 0.02 0 0 0 1 2
3106 1 4.30173 -1.17986 0.02 0 2.40446e-18 5.94802e-19 1 2
3104 1 4.2963 -0.97562 0.02 0 1.3825e-18 -5.24564e-21 1 2
3075 1 4.05649 -0.314496 0.02 0 -3.34237e-19 1.41887e-19 1 2
3451 1 3.17124 -6.20886 0.02 0 9.39365e-06 1.56274e-05 1 2
3498 1 3.06496 -5.1961 0.02 0 0 0 1 2
3089 1 4.2915 -0.771323 0.02 0 7.77607e-19 2.06789e-19 1 2
3087 1 4.29431 -0.565154 0.02 0 7.28184e-19 -7.13144e-20 1 2
3090 1 4.09759 -0.511003 0.02 0 2.18736e-18 -2.04232e-19 1 2
3091 1 4.09749 -0.707446 0.02 0 -4.59761e-19 -1.9265e-19 1 2
3334 1 3.09055 -0.55092 0.02 0 -1.93052e-22 -9.56631e-23 1 2
3335 1 3.09985 -0.74004 0.02 0 -7.9444e-24 -7.30651e-24 1 2
3071 1 4.22737 -0.152625 0.02 0 1.90039e-18 -3.42005e-19 1 2
3073 1 4.25933 -0.356455 0.02 0 -1.37625e-18 1.68352e-19 1 2