ITEM: TIMESTEP
53000
ITEM: NUMBER OF ATOMS
1298
ITEM: BOX BOUNDS ff ff pp
0.0000000000000000e+00 4.4000000000000004e+00
-1.0000000000000000e+01 1.0000000000000000e+01
-2.0000000000000000e-02 2.0000000000000000e-02
ITEM: ATOMS id type x y vx vy fx fy c_den c_phase
4713 1 1.21371 -6.73915 0.02 0 0 0 1 2
4715 1 1.24751 -6.55076 0.02 0 -3.87109e-12 -3.59587e-13 1 2
4714 1 1.41892 -6.76661 0.02 0 -2.80411e-06 -1.74677e-06 1 2
4716 1 1.43519 -6.57535 0.02 0 1.1671e-08 1.0763e-07 1 2
4628 1 1.46198 -1.02554 0.02 0 0 0 1 2
4631 1 1.2616 -1.00736 0.02 0 0 0 1 2
4729 1 1.2674 -6.35963 0.02 0 0 0 1 2
4730 1 1.2987 -6.17071 0.02 0 0 0 1 2
4731 1 1.46276 -6.37801 0.02 0 3.60121e-09 2.34968e-08 1 2
4599 1 1.37136 -0.196512 0.02 0 0 0 1 2
4632 1 1.28052 -1.20811 0.02 0 0 0 1 2
4694 1 1.44809 -2.91284 0.02 0 0 0 1 2
4745 1 1.2898 -5.9796 0.02 0 0 0 1 2
4746 1 1.27906 -5.78431 0.02 0 0 0 1 2
4697 1 1.25495 -3.0408 0.02 0 0 0 1 2
4695 1 1.25943 -2.62755 0.02 0 0 0 1 2
4696 1 1.27046 -2.83279 0.02 0 0 0 1 2
4690 1 1.44692 -2.68472 0.02 0 0 0 1 2
4761 1 1.22573 -5.58762 0.02 0 0 0 1 2
4762 1 1.20237 -5.39266 0.02 0 0 0 1 2
4763 1 1.40929 -5.39695 0.02 0 0 0 1 2
4764 1 1.43142 -5.58573 0.02 0 0 0 1 2
4648 1 1.33799 -1.62282 0.02 0 0 0 1 2
4647 1 1.31995 -1.41351 0.02 0 0 0 1 2
4778 1 1.24851 -4.83834 0.02 0 0 0 1 2
4777 1 1.40583 -5.20967 0.02 0 0 0 1 2
4779 1 1.42812 -5.02856 0.02 0 0 0 1 2
4780 1 1.47138 -4.85148 0.02 0 0 0 1 2
4679 1 1.22972 -2.21217 0.02 0 0 0 1 2
4662 1 1.3794 -1.83614 0.02 0 0 0 1 2
4614 1 1.44372 -0.819929 0.02 0 0 0 1 2
4794 1 1.24067 -4.65017 0.02 0 0 0 1 2
4795 1 1.245 -4.462 0.02 0 0 0 1 2
4796 1 1.44512 -4.66649 0.02 0 0 0 1 2
4710 1 1.42445 -3.33168 0.02 0 0 0 1 2
4663 1 1.40619 -2.04609 0.02 0 0 0 1 2
4616 1 1.24472 -0.808962 0.02 0 0 0 1 2
4808 1 1.26068 -4.27373 0.02 0 0 0 1 2
4809 1 1.27105 -4.08309 0.02 0 0 0 1 2
4810 1 1.46428 -4.3006 0.02 0 0 0 1 2
4678 1 1.42098 -2.25416 0.02 0 0 0 1 2
4680 1 1.23691 -2.4215 0.02 0 0 0 1 2
4708 1 1.42942 -3.13149 0.02 0 0 0 1 2
4612 1 1.42221 -0.613201 0.02 0 0 0 1 2
4615 1 1.22432 -0.609091 0.02 0 0 0 1 2
4829 1 1.24567 -3.68365 0.02 0 0 0 1 2
4828 1 1.29796 -3.89073 0.02 0 0 0 1 2
4830 1 1.4245 -3.52888 0.02 0 0 0 1 2
4831 1 1.44849 -3.72616 0.02 0 0 0 1 2
4600 1 1.38964 -0.406124 0.02 0 0 0 1 2
4664 1 1.21302 -2.0009 0.02 0 0 0 1 2
4711 1 1.23213 -3.25575 0.02 0 0 0 1 2
4712 1 1.23146 -3.47088 0.02 0 0 0 1 2
4677 1 1.43001 -2.46414 0.02 0 0 0 1 2
4587 1 1.35073 0.0152087 0.02 0 0 0 1 2
4588 1 1.38566 0.224259 0.02 0 0 0 1 2
4745 1 1.35795 4.39304 0.02 0 0 0 1 2
4746 1 1.34558 4.58718 0.02 0 0 0 1 2
4783 1 1.45482 5.63138 0.02 0 0 0 1 2
4762 1 1.27057 5.19135 0.02 0 0 0 1 2
4826 1 1.35816 6.58449 0.02 0 -1.40866e-10 5.09246e-11 1 2
4603 1 1.38277 0.434965 0.02 0 0 0 1 2
4604 1 1.3857 0.645737 0.02 0 0 0 1 2
4605 1 1.39334 0.853529 0.02 0 0 0 1 2
4747 1 1.31825 4.78246 0.02 0 0 0 1 2
4716 1 1.25012 3.58294 0.02 0 0 0 1 2
4717 1 1.28339 3.789 0.02 0 0 0 1 2
4780 1 1.46565 5.2438 0.02 0 0 0 1 2
4619 1 1.37938 1.05801 0.02 0 0 0 1 2
4620 1 1.38121 1.26198 0.02 0 0 0 1 2
4702 1 1.40659 3.40503 0.02 0 0 0 1 2
4732 1 1.31964 4.19723 0.02 0 0 0 1 2
4825 1 1.4114 6.76472 0.02 0 -4.55615e-06 4.13011e-06 1 2
4798 1 1.31992 6.03142 0.02 0 0 0 1 2
4731 1 1.31036 3.99507 0.02 0 0 0 1 2
4636 1 1.33356 1.46151 0.02 0 0 0 1 2
4637 1 1.33986 1.66141 0.02 0 0 0 1 2
4701 1 1.40243 3.20054 0.02 0 0 0 1 2
4700 1 1.21265 3.37484 0.02 0 0 0 1 2
4797 1 1.28367 5.83395 0.02 0 0 0 1 2
4699 1 1.20359 3.16915 0.02 0 0 0 1 2
4650 1 1.37843 1.85478 0.02 0 0 0 1 2
4651 1 1.35623 2.04403 0.02 0 0 0 1 2
4718 1 1.4518 3.61296 0.02 0 0 0 1 2
4778 1 1.25963 5.62531 0.02 0 0 0 1 2
4812 1 1.34419 6.4045 0.02 0 0 0 1 2
4811 1 1.32577 6.22219 0.02 0 0 0 1 2
4664 1 1.22199 2.39441 0.02 0 0 0 1 2
4665 1 1.23548 2.5827 0.02 0 0 0 1 2
4666 1 1.40847 2.22999 0.02 0 0 0 1 2
4777 1 1.28939 5.40931 0.02 0 0 0 1 2
4668 1 1.44401 2.41719 0.02 0 0 0 1 2
4761 1 1.2885 4.9823 0.02 0 0 0 1 2
4670 1 1.44089 2.60767 0.02 0 0 0 1 2
4679 1 1.22237 2.77537 0.02 0 0 0 1 2
4680 1 1.20628 2.96941 0.02 0 0 0 1 2
4681 1 1.40584 2.99882 0.02 0 0 0 1 2
4683 1 1.4293 2.80212 0.02 0 0 0 1 2
1509 2 2 -10 0 0 0 0 1 5
1510 2 2.2 -10 0 0 0 0 1 5
1511 2 2.4 -10 0 0 0 0 1 5
1543 2 2 -9.8 0 0 0 0 1 5
1544 2 2.2 -9.8 0 0 0 0 1 5
1545 2 2.4 -9.8 0 0 0 0 1 5
1577 2 2 -9.6 0 0 0 0 1 5
1578 2 2.2 -9.6 0 0 0 0 1 5
1579 2 2.4 -9.6 0 0 0 0 1 5
1512 2 2.6 -10 0 0 0 0 1 5
1513 2 2.8 -10 0 0 0 0 1 5
1546 2 2.6 -9.8 0 0 0 0 1 5
1547 2 2.8 -9.8 0 0 0 0 1 5
1580 2 2.6 -9.6 0 0 0 0 1 5
1581 2 2.8 -9.6 0 0 0 0 1 5
1645 2 2 -9.2 0 0 0 0 1 5
1646 2 2.2 -9.2 0 0 0 0 1 5
1647 2 2.4 -9.2 0 0 0 0 1 5
1613 2 2.4 -9.4 0 0 0 0 1 5
1612 2 2.2 -9.4 0 0 0 0 1 5
1611 2 2 -9.4 0 0 0 0 1 5
1648 2 2.6 -9.2 0 0 0 0 1 5
1649 2 2.8 -9.2 0 0 0 0 1 5
1615 2 2.8 -9.4 0 0 0 0 1 5
1614 2 2.6 -9.4 0 0 0 0 1 5
1679 2 2 -9 0 0 0 0 1 5
1680 2 2.2 -9 0 0 0 0 1 5
1681 2 2.4 -9 0 0 0 0 1 5
1713 2 2 -8.8 0 0 0 0 1 5
1714 2 2.2 -8.8 0 0 0 0 1 5
1715 2 2.4 -8.8 0 0 0 0 1 5
1682 2 2.6 -9 0 0 0 0 1 5
1683 2 2.8 -9 0 0 0 0 1 5
1716 2 2.6 -8.8 0 0 0 0 1 5
1717 2 2.8 -8.8 0 0 0 0 1 5
1783 2 2.4 -8.4 0 0 0 0 1 5
1782 2 2.2 -8.4 0 0 0 0 1 5
1781 2 2 -8.4 0 0 0 0 1 5
1747 2 2 -8.6 0 0 0 0 1 5
1748 2 2.2 -8.6 0 0 0 0 1 5
1749 2 2.4 -8.6 0 0 0 0 1 5
1785 2 2.8 -8.4 0 0 0 0 1 5
1784 2 2.6 -8.4 0 0 0 0 1 5
1750 2 2.6 -8.6 0 0 0 0 1 5
1751 2 2.8 -8.6 0 0 0 0 1 5
1851 2 2.4 -8 0 0 0 0 1 5
1850 2 2.2 -8 0 0 0 0 1 5
1849 2 2 -8 0 0 0 0 1 5
1817 2 2.4 -8.2 0 0 0 0 1 5
1816 2 2.2 -8.2 0 0 0 0 1 5
1815 2 2 -8.2 0 0 0 0 1 5
1853 2 2.8 -8 0 0 0 0 1 5
1852 2 2.6 -8 0 0 0 0 1 5
1819 2 2.8 -8.2 0 0 0 0 1 5
1818 2 2.6 -8.2 0 0 0 0 1 5
1953 2 2.4 -7.4 0 0 0 0 0.9952 5
1952 2 2.2 -7.4 0 0 0 0 1.00153 5
1951 2 2 -7.4 0 0 0 0 1.00104 5
1919 2 2.4 -7.6 0 0 0 0 1 5
1918 2 2.2 -7.6 0 0 0 0 1 5
1917 2 2 -7.6 0 0 0 0 1 5
1885 2 2.4 -7.8 0 0 0 0 1 5
1884 2 2.2 -7.8 0 0 0 0 1 5
1883 2 2 -7.8 0 0 0 0 1 5
1955 2 2.8 -7.4 0 0 0 0 0.990266 5
1954 2 2.6 -7.4 0 0 0 0 1.00129 5
1921 2 2.8 -7.6 0 0 0 0 1 5
1920 2 2.6 -7.6 0 0 0 0 1 5
1887 2 2.8 -7.8 0 0 0 0 1 5
1886 2 2.6 -7.8 0 0 0 0 1 5
2021 2 2.4 -7 0 0 0 0 0.998563 5
2020 2 2.2 -7 0 0 0 0 0.999333 5
2019 2 2 -7 0 0 0 0 1.0014 5
1987 2 2.4 -7.2 0 0 0 0 0.998098 5
1986 2 2.2 -7.2 0 0 0 0 0.999353 5
1985 2 2 -7.2 0 0 0 0 1.00134 5
2023 2 2.8 -7 0 0 0 0 0.991554 5
2022 2 2.6 -7 0 0 0 0 0.996701 5
1989 2 2.8 -7.2 0 0 0 0 0.990474 5
1988 2 2.6 -7.2 0 0 0 0 0.99757 5
4724 1 2.24774 -6.56544 0.02 0 0.000150857 0.000511907 1 2
4721 1 2.02654 -6.74604 0.02 0 -0.00343937 -0.000674969 1 2
4722 1 2.22585 -6.75916 0.02 0 -0.00333688 -0.000558371 1 2
4723 1 2.04728 -6.56288 0.02 0 6.21023e-05 0.000485308 1 2
4718 1 1.83309 -6.75043 0.02 0 -0.00262647 -0.000592833 1 2
4720 1 1.83566 -6.56481 0.02 0 -5.71988e-05 7.60588e-05 1 2
4728 1 2.63569 -6.55023 0.02 0 0.000353643 0.000505608 1 2
4726 1 2.62387 -6.74294 0.02 0 -0.00206535 -0.000377494 1 2
4727 1 2.44608 -6.55608 0.02 0 0.000218898 0.000515867 1 2
4725 1 2.42203 -6.73676 0.02 0 -0.00223955 -0.00051818 1 2
4610 1 1.80732 -0.618916 0.02 0 0 0 1 2
4660 1 1.79085 -2.13736 0.02 0 0 0 1 2
4740 1 2.26488 -6.181 0.02 0 5.28863e-06 1.13915e-05 1 2
4738 1 2.22567 -6.37314 0.02 0 0.000100068 0.000139255 1 2
4739 1 2.07065 -6.16748 0.02 0 1.50616e-06 5.22006e-06 1 2
4737 1 2.03793 -6.37185 0.02 0 4.84813e-05 8.93476e-05 1 2
4734 1 1.85026 -6.37692 0.02 0 8.55113e-06 3.77969e-05 1 2
4736 1 1.87755 -6.18093 0.02 0 3.63829e-07 2.95275e-06 1 2
4744 1 2.65311 -6.15293 0.02 0 2.22946e-06 1.02742e-05 1 2
4742 1 2.615 -6.35117 0.02 0 0.000113432 0.000132288 1 2
4741 1 2.41943 -6.36836 0.02 0 0.000104212 0.000126329 1 2
4743 1 2.46005 -6.17118 0.02 0 4.85759e-06 1.00078e-05 1 2
4590 1 2.52764 -0.130901 0.02 0 -1.08578e-26 -2.9772e-28 1 2
4588 1 2.34881 -0.370969 0.02 0 0 0 1 2
4754 1 2.26435 -5.98631 0.02 0 2.17486e-08 7.13234e-08 1 2
4756 1 2.25968 -5.78722 0.02 0 1.48016e-11 6.59464e-11 1 2
4753 1 2.07354 -5.96034 0.02 0 2.46974e-09 1.78794e-08 1 2
4755 1 2.06109 -5.75899 0.02 0 6.22985e-13 8.60647e-12 1 2
4751 1 1.8659 -5.78886 0.02 0 1.68543e-13 6.46677e-12 1 2
4752 1 1.88244 -5.9853 0.02 0 1.91495e-09 2.34028e-08 1 2
4760 1 2.65855 -5.75702 0.02 0 7.94102e-12 1.44227e-11 1 2
4758 1 2.65282 -5.95431 0.02 0 4.29197e-09 2.82745e-08 1 2
4757 1 2.45822 -5.97154 0.02 0 1.09938e-08 3.50105e-08 1 2
4759 1 2.45888 -5.77485 0.02 0 7.53852e-12 2.94464e-11 1 2
4589 1 2.32451 -0.167125 0.02 0 0 0 1 2
4587 1 2.54713 -0.318944 0.02 0 -4.44965e-27 -5.67428e-28 1 2
4772 1 2.27537 -5.40096 0.02 0 0 0 1 2
4770 1 2.24579 -5.58955 0.02 0 0 0 1 2
4771 1 2.04613 -5.38031 0.02 0 0 0 1 2
4769 1 2.04445 -5.5651 0.02 0 0 0 1 2
4766 1 1.84336 -5.59168 0.02 0 0 0 1 2
4768 1 1.83012 -5.39862 0.02 0 0 0 1 2
4773 1 2.45138 -5.5831 0.02 0 0 0 1 2
4775 1 2.32335 -5.2199 0.02 0 0 0 1 2
4774 1 2.50177 -5.40162 0.02 0 0 0 1 2
4776 1 2.53428 -5.21781 0.02 0 0 0 1 2
4790 1 2.30539 -5.03303 0.02 0 0 0 1 2
4786 1 1.91325 -4.85376 0.02 0 0 0 1 2
4788 1 2.08983 -5.02973 0.02 0 0 0 1 2
4787 1 2.10448 -5.21105 0.02 0 0 0 1 2
4789 1 2.12842 -4.84693 0.02 0 0 0 1 2
4784 1 1.85816 -5.21635 0.02 0 0 0 1 2
4785 1 1.87611 -5.03667 0.02 0 0 0 1 2
4791 1 2.34545 -4.85207 0.02 0 0 0 1 2
4792 1 2.52273 -5.0319 0.02 0 0 0 1 2
4793 1 2.56845 -4.85434 0.02 0 0 0 1 2
4658 1 1.7567 -1.9211 0.02 0 0 0 1 2
4801 1 1.94606 -4.50233 0.02 0 0 0 1 2
4803 1 2.159 -4.48365 0.02 0 0 0 1 2
4802 1 2.11631 -4.66598 0.02 0 0 0 1 2
4800 1 1.87376 -4.67305 0.02 0 0 0 1 2
4806 1 2.6004 -4.67763 0.02 0 -3.47153e-31 -3.28552e-32 1 2
4805 1 2.36597 -4.49409 0.02 0 0 0 1 2
4804 1 2.35849 -4.67505 0.02 0 0 0 1 2
4807 1 2.56958 -4.50029 0.02 0 -2.15841e-28 -2.08216e-29 1 2
4592 1 2.1293 -0.170696 0.02 0 0 0 1 2
4593 1 1.96437 -0.401333 0.02 0 0 0 1 2
4817 1 1.91323 -4.13064 0.02 0 0 0 1 2
4822 1 2.29279 -3.93179 0.02 0 0 0 1 2
4819 1 2.12151 -4.11233 0.02 0 0 0 1 2
4821 1 2.09057 -3.92273 0.02 0 0 0 1 2
4818 1 2.09875 -4.30065 0.02 0 0 0 1 2
4816 1 1.88229 -4.32272 0.02 0 0 0 1 2
4820 1 1.89024 -3.93088 0.02 0 0 0 1 2
4824 1 2.33066 -4.12772 0.02 0 0 0 1 2
4823 1 2.32564 -4.31213 0.02 0 0 0 1 2
4827 1 2.49459 -3.95743 0.02 0 0 0 1 2
4826 1 2.54864 -4.13913 0.02 0 -1.53899e-27 -2.53852e-28 1 2
4825 1 2.56061 -4.31783 0.02 0 -7.05978e-30 -6.25418e-31 1 2
4673 1 1.81213 -2.3438 0.02 0 0 0 1 2
4594 1 1.9386 -0.191329 0.02 0 0 0 1 2
4838 1 2.04302 -3.54809 0.02 0 0 0 1 2
4836 1 2.04845 -3.73604 0.02 0 0 0 1 2
4837 1 2.25874 -3.73478 0.02 0 0 0 1 2
4839 1 2.25644 -3.54144 0.02 0 0 0 1 2
4834 1 1.83118 -3.52872 0.02 0 0 0 1 2
4835 1 1.84685 -3.72594 0.02 0 0 0 1 2
4841 1 2.46565 -3.57722 0.02 0 0 0 1 2
4840 1 2.47163 -3.76644 0.02 0 0 0 1 2
4704 1 2.05675 -3.36021 0.02 0 0 0 1 2
4702 1 2.01538 -3.17037 0.02 0 0 0 1 2
4701 1 2.22109 -3.15337 0.02 0 0 0 1 2
4703 1 2.26199 -3.34695 0.02 0 0 0 1 2
4705 1 1.84305 -3.33918 0.02 0 0 0 1 2
4698 1 2.62811 -3.18414 0.02 0 -2.49382e-24 7.0446e-25 1 2
4700 1 2.46379 -3.38146 0.02 0 0 0 1 2
4699 1 2.42628 -3.17868 0.02 0 0 0 1 2
4595 1 1.77233 -0.411655 0.02 0 0 0 1 2
4591 1 2.15471 -0.383144 0.02 0 0 0 1 2
4688 1 2.03261 -2.9752 0.02 0 0 0 1 2
4686 1 2.01766 -2.77288 0.02 0 0 0 1 2
4687 1 2.23525 -2.95815 0.02 0 0 0 1 2
4685 1 2.20692 -2.756 0.02 0 0 0 1 2
4692 1 1.83116 -2.95325 0.02 0 0 0 1 2
4689 1 1.82638 -2.75172 0.02 0 0 0 1 2
4683 1 2.63744 -2.9818 0.02 0 -3.54776e-24 -8.07261e-26 1 2
4684 1 2.44019 -2.98033 0.02 0 0 0 1 2
4682 1 2.40059 -2.78375 0.02 0 0 0 1 2
4681 1 2.58943 -2.76838 0.02 0 -3.53508e-30 1.50412e-31 1 2
4672 1 2.00449 -2.55829 0.02 0 0 0 1 2
4670 1 2.00598 -2.34155 0.02 0 0 0 1 2
4671 1 2.1945 -2.55237 0.02 0 0 0 1 2
4669 1 2.20313 -2.35355 0.02 0 0 0 1 2
4668 1 2.38923 -2.58323 0.02 0 0 0 1 2
4666 1 2.3973 -2.37813 0.02 0 0 0 1 2
4667 1 2.57526 -2.54253 0.02 0 0 0 1 2
4665 1 2.57016 -2.30904 0.02 0 -7.44455e-27 -6.22116e-28 1 2
4604 1 2.40154 -0.782001 0.02 0 0 0 1 2
4603 1 2.37077 -0.577099 0.02 0 0 0 1 2
4657 1 1.97441 -2.11748 0.02 0 0 0 1 2
4654 1 2.11121 -1.93371 0.02 0 0 0 1 2
4656 1 2.16 -2.153 0.02 0 0 0 1 2
4655 1 1.9347 -1.88565 0.02 0 0 0 1 2
4653 1 2.29309 -1.95318 0.02 0 0 0 1 2
4649 1 2.63882 -1.84906 0.02 0 -3.26791e-32 7.36276e-33 1 2
4650 1 2.46427 -1.89427 0.02 0 0 0 1 2
4652 1 2.35262 -2.16444 0.02 0 0 0 1 2
4651 1 2.52744 -2.1014 0.02 0 0 0 1 2
4601 1 2.55878 -0.514055 0.02 0 0 0 1 2
4641 1 2.07949 -1.70098 0.02 0 0 0 1 2
4637 1 2.24529 -1.50825 0.02 0 0 0 1 2
4639 1 2.06528 -1.47825 0.02 0 0 0 1 2
4638 1 2.26091 -1.733 0.02 0 0 0 1 2
4640 1 1.88312 -1.45769 0.02 0 0 0 1 2
4642 1 1.89394 -1.6724 0.02 0 0 0 1 2
4635 1 2.41886 -1.45199 0.02 0 0 0 1 2
4636 1 2.43452 -1.67593 0.02 0 0 0 1 2
4634 1 2.60417 -1.61635 0.02 0 0 0 1 2
4633 1 2.58288 -1.37464 0.02 0 0 0 1 2
4621 1 2.23471 -1.28045 0.02 0 0 0 1 2
4622 1 2.22709 -1.05121 0.02 0 0 0 1 2
4624 1 2.04898 -1.26074 0.02 0 0 0 1 2
4623 1 2.04327 -1.04626 0.02 0 0 0 1 2
4626 1 1.85996 -1.24399 0.02 0 0 0 1 2
4625 1 1.85381 -1.03348 0.02 0 0 0 1 2
4618 1 2.58655 -1.14477 0.02 0 0 0 1 2
4617 1 2.58385 -0.925982 0.02 0 0 0 1 2
4619 1 2.40522 -0.999003 0.02 0 0 0 1 2
4620 1 2.41124 -1.2208 0.02 0 0 0 1 2
4605 1 2.2183 -0.821662 0.02 0 0 0 1 2
4606 1 2.18218 -0.598796 0.02 0 0 0 1 2
4607 1 1.9964 -0.615255 0.02 0 0 0 1 2
4608 1 2.03343 -0.829479 0.02 0 0 0 1 2
4609 1 1.84128 -0.826347 0.02 0 0 0 1 2
4602 1 2.58676 -0.71437 0.02 0 0 0 1 2
4706 1 1.81135 -3.14803 0.02 0 0 0 1 2
4675 1 1.81379 -2.54709 0.02 0 0 0 1 2
4749 1 1.68614 -5.98699 0.02 0 1.35016e-10 1.26305e-09 1 2
4783 1 1.69388 -4.85243 0.02 0 0 0 1 2
4799 1 1.70933 -4.49172 0.02 0 0 0 1 2
4813 1 1.70478 -4.11797 0.02 0 0 0 1 2
4815 1 1.69467 -3.92102 0.02 0 0 0 1 2
4596 1 1.74801 -0.202375 0.02 0 0 0 1 2
4643 1 1.7015 -1.46824 0.02 0 0 0 1 2
4645 1 1.71138 -1.6947 0.02 0 0 0 1 2
4717 1 1.63461 -6.74572 0.02 0 -0.000414035 -0.000129177 1 2
4719 1 1.62812 -6.56407 0.02 0 -4.84846e-06 -4.37672e-07 1 2
4627 1 1.65926 -1.03504 0.02 0 0 0 1 2
4733 1 1.65762 -6.37882 0.02 0 4.52746e-07 6.40496e-06 1 2
4735 1 1.68304 -6.18522 0.02 0 3.58029e-08 2.91625e-07 1 2
4629 1 1.67126 -1.24415 0.02 0 0 0 1 2
4611 1 1.61616 -0.628898 0.02 0 0 0 1 2
4750 1 1.67113 -5.78504 0.02 0 0 0 1 2
4765 1 1.63975 -5.58705 0.02 0 0 0 1 2
4767 1 1.61951 -5.39695 0.02 0 0 0 1 2
4781 1 1.62586 -5.21235 0.02 0 0 0 1 2
4782 1 1.65611 -5.03345 0.02 0 0 0 1 2
4798 1 1.65368 -4.66888 0.02 0 0 0 1 2
4613 1 1.64318 -0.832632 0.02 0 0 0 1 2
4812 1 1.67241 -4.3071 0.02 0 0 0 1 2
4832 1 1.64805 -3.72231 0.02 0 0 0 1 2
4833 1 1.6262 -3.52264 0.02 0 0 0 1 2
4707 1 1.61902 -3.1147 0.02 0 0 0 1 2
4674 1 1.6157 -2.28702 0.02 0 0 0 1 2
4676 1 1.62174 -2.49265 0.02 0 0 0 1 2
4709 1 1.63124 -3.32346 0.02 0 0 0 1 2
4693 1 1.63754 -2.90633 0.02 0 0 0 1 2
4691 1 1.63531 -2.7004 0.02 0 0 0 1 2
4661 1 1.60078 -2.07835 0.02 0 0 0 1 2
4659 1 1.57091 -1.86398 0.02 0 0 0 1 2
4597 1 1.58094 -0.418584 0.02 0 0 0 1 2
4598 1 1.5597 -0.204515 0.02 0 0 0 1 2
4732 1 1.49165 -6.17475 0.02 0 2.65612e-11 1.66433e-10 1 2
4646 1 1.52772 -1.64492 0.02 0 0 0 1 2
4747 1 1.48972 -5.97299 0.02 0 0 0 1 2
4748 1 1.47604 -5.77559 0.02 0 0 0 1 2
4644 1 1.51621 -1.43509 0.02 0 0 0 1 2
4630 1 1.47783 -1.23077 0.02 0 0 0 1 2
4797 1 1.47274 -4.48385 0.02 0 0 0 1 2
4811 1 1.48871 -4.11551 0.02 0 0 0 1 2
4814 1 1.49739 -3.92505 0.02 0 0 0 1 2
4601 1 2.31171 0.0351082 0.02 0 0 0 1 2
4598 1 2.11441 0.0415298 0.02 0 0 0 1 2
4597 1 2.14725 0.260252 0.02 0 0 0 1 2
4594 1 1.91703 0.0139935 0.02 0 0 0 1 2
4595 1 1.95611 0.213481 0.02 0 0 0 1 2
4596 1 1.95051 0.417667 0.02 0 0 0 1 2
4600 1 2.54333 0.248268 0.02 0 0 0 1 2
4599 1 2.34114 0.23525 0.02 0 0 0 1 2
4602 1 2.52128 0.0565639 0.02 0 0 0 1 2
4612 1 2.12908 0.689725 0.02 0 0 0 1 2
4613 1 1.96023 0.868113 0.02 0 0 0 1 2
4610 1 2.13652 0.478881 0.02 0 0 0 1 2
4611 1 1.94772 0.632968 0.02 0 0 0 1 2
4616 1 2.31972 0.657818 0.02 0 0 0 1 2
4614 1 2.32568 0.442989 0.02 0 0 0 1 2
4615 1 2.52185 0.443638 0.02 0 0 0 1 2
4617 1 2.51163 0.644073 0.02 0 0 0 1 2
4618 1 2.52595 0.852158 0.02 0 0 0 1 2
4629 1 2.15124 0.888006 0.02 0 0 0 1 2
4628 1 2.13936 1.29024 0.02 0 0 0 1 2
4630 1 1.94726 1.30394 0.02 0 0 0 1 2
4626 1 1.95117 1.09204 0.02 0 0 0 1 2
4627 1 2.14009 1.08696 0.02 0 0 0 1 2
4633 1 2.33274 1.29444 0.02 0 0 0 1 2
4635 1 2.52688 1.28015 0.02 0 0 0 1 2
4632 1 2.33062 1.08721 0.02 0 0 0 1 2
4631 1 2.34097 0.87288 0.02 0 0 0 1 2
4634 1 2.51734 1.07091 0.02 0 0 0 1 2
454 2 2.6 9.6 0 0 0 0 1 5
4644 1 2.12653 1.49143 0.02 0 0 0 1 2
4642 1 1.9208 1.50485 0.02 0 0 0 1 2
4643 1 1.97851 1.69224 0.02 0 0 0 1 2
4645 1 2.19146 1.67867 0.02 0 0 0 1 2
4648 1 2.54621 1.47698 0.02 0 0 0 1 2
4646 1 2.33656 1.49215 0.02 0 0 0 1 2
4649 1 2.60953 1.66255 0.02 0 -8.65072e-25 7.1852e-26 1 2
4647 1 2.40379 1.67673 0.02 0 0 0 1 2
4657 1 2.00079 2.07554 0.02 0 0 0 1 2
4656 1 2.0064 1.8822 0.02 0 0 0 1 2
4659 1 2.21168 2.06194 0.02 0 0 0 1 2
4658 1 2.21513 1.86944 0.02 0 0 0 1 2
4663 1 2.63264 2.04473 0.02 0 -1.34253e-23 -3.99647e-24 1 2
4662 1 2.64321 1.85304 0.02 0 -3.24337e-23 8.13143e-25 1 2
4661 1 2.42112 2.05093 0.02 0 0 0 1 2
4660 1 2.42976 1.86411 0.02 0 0 0 1 2
455 2 2.8 9.6 0 0 0 0 1 5
488 2 2.6 9.8 0 0 0 0 1 5
4675 1 2.26033 2.25117 0.02 0 0 0 1 2
4676 1 2.27126 2.44706 0.02 0 0 0 1 2
4674 1 2.07206 2.46162 0.02 0 0 0 1 2
4672 1 2.05346 2.2647 0.02 0 0 0 1 2
4671 1 1.84547 2.28011 0.02 0 0 0 1 2
4673 1 1.86962 2.4728 0.02 0 0 0 1 2
4678 1 2.46993 2.42432 0.02 0 0 0 1 2
4677 1 2.47274 2.23351 0.02 0 0 0 1 2
489 2 2.8 9.8 0 0 0 0 1 5
4692 1 2.02056 3.04037 0.02 0 0 0 1 2
4693 1 2.27922 2.64228 0.02 0 0 0 1 2
4689 1 2.03953 2.85041 0.02 0 0 0 1 2
4688 1 2.06862 2.65746 0.02 0 0 0 1 2
4691 1 2.23615 3.03093 0.02 0 0 0 1 2
4690 1 2.24311 2.83725 0.02 0 0 0 1 2
4686 1 1.85563 2.6637 0.02 0 0 0 1 2
4687 1 1.8352 2.85568 0.02 0 0 0 1 2
4694 1 2.48891 2.61868 0.02 0 0 0 1 2
4696 1 2.44902 3.00747 0.02 0 0 0 1 2
4695 1 2.44646 2.81327 0.02 0 0 0 1 2
4698 1 2.66022 3.00384 0.02 0 -2.52915e-24 5.31345e-26 1 2
4697 1 2.65033 2.81092 0.02 0 -5.68671e-25 1.74879e-25 1 2
485 2 2 9.8 0 0 0 0 1 5
451 2 2 9.6 0 0 0 0 1 5
4709 1 1.99474 3.41402 0.02 0 0 0 1 2
4708 1 2.01605 3.22709 0.02 0 0 0 1 2
4711 1 2.21161 3.41416 0.02 0 0 0 1 2
4710 1 2.22567 3.22198 0.02 0 0 0 1 2
4713 1 2.42023 3.39011 0.02 0 0 0 1 2
4712 1 2.43655 3.19848 0.02 0 0 0 1 2
4715 1 2.64603 3.19619 0.02 0 -1.42796e-25 7.16363e-27 1 2
4714 1 2.63105 3.39049 0.02 0 0 0 1 2
486 2 2.2 9.8 0 0 0 0 1 5
487 2 2.4 9.8 0 0 0 0 1 5
4725 1 2.08851 3.78237 0.02 0 0 0 1 2
4723 1 2.06261 3.59356 0.02 0 0 0 1 2
4726 1 2.26761 3.605 0.02 0 0 0 1 2
4727 1 2.30408 3.79564 0.02 0 0 0 1 2
4722 1 1.86031 3.63092 0.02 0 0 0 1 2
4724 1 1.88144 3.82453 0.02 0 0 0 1 2
4729 1 2.50867 3.78013 0.02 0 0 0 1 2
4728 1 2.46546 3.58233 0.02 0 0 0 1 2
4730 1 2.66317 3.59267 0.02 0 0 0 1 2
452 2 2.2 9.6 0 0 0 0 1 5
453 2 2.4 9.6 0 0 0 0 1 5
4739 1 1.91437 4.21997 0.02 0 0 0 1 2
4740 1 2.10663 4.16658 0.02 0 0 0 1 2
4737 1 1.90249 4.01862 0.02 0 0 0 1 2
4738 1 2.10668 3.97069 0.02 0 0 0 1 2
4741 1 2.30507 4.17791 0.02 0 0 0 1 2
4743 1 2.52823 3.97931 0.02 0 0 0 1 2
4742 1 2.31938 3.98501 0.02 0 0 0 1 2
4744 1 2.50369 4.17872 0.02 0 0 0 1 2
4755 1 2.10617 4.59842 0.02 0 0 0 1 2
4752 1 1.92865 4.43165 0.02 0 0 0 1 2
4753 1 2.10768 4.37551 0.02 0 0 0 1 2
4754 1 1.92606 4.65198 0.02 0 0 0 1 2
4756 1 2.26458 4.78249 0.02 0 0 0 1 2
4757 1 2.29811 4.37631 0.02 0 0 0 1 2
4758 1 2.29542 4.57729 0.02 0 0 0 1 2
4760 1 2.48499 4.60329 0.02 0 0 0 1 2
4759 1 2.49037 4.38771 0.02 0 0 0 1 2
421 2 2.8 9.4 0 0 0 0 1 5
4768 1 2.08516 4.83342 0.02 0 0 0 1 2
4770 1 2.06605 5.04537 0.02 0 0 0 1 2
4767 1 1.89757 4.86501 0.02 0 0 0 1 2
4771 1 2.25571 5.00509 0.02 0 0 0 1 2
4769 1 1.87036 5.07323 0.02 0 0 0 1 2
4773 1 2.44383 5.02659 0.02 0 0 0 1 2
4772 1 2.45062 4.81643 0.02 0 0 0 1 2
4776 1 2.65036 5.21138 0.02 0 -1.24706e-24 -2.24262e-25 1 2
4775 1 2.63259 5.00179 0.02 0 -2.03254e-24 2.37039e-26 1 2
4774 1 2.6453 4.80064 0.02 0 -5.96891e-24 1.6123e-24 1 2
4707 1 1.79374 3.44129 0.02 0 0 0 1 2
387 2 2.8 9.2 0 0 0 0 1 5
386 2 2.6 9.2 0 0 0 0 1 5
4788 1 2.09301 5.44626 0.02 0 0 0 1 2
4789 1 2.10178 5.64281 0.02 0 0 0 1 2
4786 1 2.08082 5.24663 0.02 0 0 0 1 2
4793 1 2.30631 5.63775 0.02 0 0 0 1 2
4792 1 2.29262 5.43734 0.02 0 0 0 1 2
4791 1 2.27046 5.2257 0.02 0 0 0 1 2
4787 1 1.88887 5.46271 0.02 0 0 0 1 2
4785 1 1.88265 5.27131 0.02 0 0 0 1 2
4790 1 1.88836 5.64708 0.02 0 0 0 1 2
4796 1 2.50754 5.63177 0.02 0 0 0 1 2
4795 1 2.49222 5.43171 0.02 0 0 0 1 2
4794 1 2.45985 5.23146 0.02 0 0 0 1 2
420 2 2.6 9.4 0 0 0 0 1 5
4805 1 1.92985 6.01262 0.02 0 1.44742e-08 -4.97378e-08 1 2
4804 1 2.11474 5.8373 0.02 0 1.73207e-10 -6.65751e-10 1 2
4806 1 2.14803 6.02674 0.02 0 1.12511e-07 -3.39689e-07 1 2
4803 1 1.9067 5.82959 0.02 0 1.63136e-12 -6.56493e-12 1 2
4807 1 2.31833 5.83416 0.02 0 3.03414e-10 -1.00085e-09 1 2
4810 1 2.57391 6.01525 0.02 0 2.27725e-07 -3.14821e-07 1 2
4809 1 2.35936 6.02306 0.02 0 1.2336e-07 -2.77144e-07 1 2
4808 1 2.5212 5.82955 0.02 0 3.56936e-10 -6.71785e-10 1 2
4818 1 2.17383 6.21412 0.02 0 8.84592e-06 -1.64047e-05 1 2
4819 1 1.97031 6.37702 0.02 0 3.99608e-05 -7.64911e-05 1 2
4820 1 2.16425 6.40804 0.02 0 0.000135778 -0.000203655 1 2
4817 1 1.96067 6.19252 0.02 0 1.45703e-06 -3.05856e-06 1 2
4824 1 2.56697 6.3837 0.02 0 0.000173096 -0.000196073 1 2
4823 1 2.35779 6.38682 0.02 0 0.000135015 -0.000182235 1 2
4822 1 2.60207 6.20108 0.02 0 1.49303e-05 -2.19492e-05 1 2
4821 1 2.39148 6.20568 0.02 0 1.03861e-05 -1.69773e-05 1 2
4706 1 1.80614 3.24229 0.02 0 0 0 1 2
4833 1 1.97915 6.5618 0.02 0 6.2645e-05 -0.000361423 1 2
4832 1 1.9895 6.7412 0.02 0 -0.00355531 0.000631387 1 2
4834 1 2.18782 6.59218 0.02 0 1.06335e-05 -0.000403269 1 2
4831 1 2.20621 6.77622 0.02 0 -0.00355274 0.000503106 1 2
4838 1 2.59407 6.56445 0.02 0 0.000512165 -0.000589159 1 2
4836 1 2.41875 6.74923 0.02 0 -0.00237355 0.00051145 1 2
4837 1 2.39086 6.56796 0.02 0 0.000216345 -0.000422956 1 2
4835 1 2.61951 6.74602 0.02 0 -0.00197561 0.000293218 1 2
4705 1 1.80759 3.04792 0.02 0 0 0 1 2
4816 1 1.77112 6.37171 0.02 0 4.03792e-06 -8.84324e-06 1 2
9 2 2 7 0 0 0 0 1.00166 5
10 2 2.2 7 0 0 0 0 0.999961 5
11 2 2.4 7 0 0 0 0 0.998583 5
43 2 2 7.2 0 0 0 0 1.00242 5
44 2 2.2 7.2 0 0 0 0 1.00025 5
45 2 2.4 7.2 0 0 0 0 0.997601 5
12 2 2.6 7 0 0 0 0 0.996244 5
46 2 2.6 7.2 0 0 0 0 0.996749 5
13 2 2.8 7 0 0 0 0 0.991198 5
47 2 2.8 7.2 0 0 0 0 0.989958 5
113 2 2.4 7.6 0 0 0 0 1 5
145 2 2 7.8 0 0 0 0 1 5
79 2 2.4 7.4 0 0 0 0 0.994791 5
77 2 2 7.4 0 0 0 0 1.00705 5
78 2 2.2 7.4 0 0 0 0 1.00042 5
147 2 2.4 7.8 0 0 0 0 1 5
111 2 2 7.6 0 0 0 0 1 5
146 2 2.2 7.8 0 0 0 0 1 5
112 2 2.2 7.6 0 0 0 0 1 5
148 2 2.6 7.8 0 0 0 0 1 5
114 2 2.6 7.6 0 0 0 0 1 5
81 2 2.8 7.4 0 0 0 0 0.9897 5
115 2 2.8 7.6 0 0 0 0 1 5
80 2 2.6 7.4 0 0 0 0 1.00062 5
149 2 2.8 7.8 0 0 0 0 1 5
179 2 2 8 0 0 0 0 1 5
180 2 2.2 8 0 0 0 0 1 5
181 2 2.4 8 0 0 0 0 1 5
213 2 2 8.2 0 0 0 0 1 5
214 2 2.2 8.2 0 0 0 0 1 5
215 2 2.4 8.2 0 0 0 0 1 5
183 2 2.8 8 0 0 0 0 1 5
216 2 2.6 8.2 0 0 0 0 1 5
217 2 2.8 8.2 0 0 0 0 1 5
182 2 2.6 8 0 0 0 0 1 5
281 2 2 8.6 0 0 0 0 1 5
249 2 2.4 8.4 0 0 0 0 1 5
248 2 2.2 8.4 0 0 0 0 1 5
247 2 2 8.4 0 0 0 0 1 5
283 2 2.4 8.6 0 0 0 0 1 5
282 2 2.2 8.6 0 0 0 0 1 5
285 2 2.8 8.6 0 0 0 0 1 5
284 2 2.6 8.6 0 0 0 0 1 5
251 2 2.8 8.4 0 0 0 0 1 5
250 2 2.6 8.4 0 0 0 0 1 5
351 2 2.4 9 0 0 0 0 1 5
315 2 2 8.8 0 0 0 0 1 5
316 2 2.2 8.8 0 0 0 0 1 5
317 2 2.4 8.8 0 0 0 0 1 5
349 2 2 9 0 0 0 0 1 5
350 2 2.2 9 0 0 0 0 1 5
353 2 2.8 9 0 0 0 0 1 5
352 2 2.6 9 0 0 0 0 1 5
319 2 2.8 8.8 0 0 0 0 1 5
318 2 2.6 8.8 0 0 0 0 1 5
385 2 2.4 9.2 0 0 0 0 1 5
418 2 2.2 9.4 0 0 0 0 1 5
383 2 2 9.2 0 0 0 0 1 5
384 2 2.2 9.2 0 0 0 0 1 5
419 2 2.4 9.4 0 0 0 0 1 5
417 2 2 9.4 0 0 0 0 1 5
4593 1 1.76583 0.243059 0.02 0 0 0 1 2
4608 1 1.76206 0.465903 0.02 0 0 0 1 2
4609 1 1.76613 0.683296 0.02 0 0 0 1 2
4625 1 1.75689 1.29997 0.02 0 0 0 1 2
4827 1 1.79621 6.75439 0.02 0 -0.00241838 0.000681767 1 2
4830 1 1.77279 6.55988 0.02 0 -2.76626e-05 -3.56253e-05 1 2
4623 1 1.77307 0.88937 0.02 0 0 0 1 2
4624 1 1.7614 1.09195 0.02 0 0 0 1 2
4641 1 1.76541 1.70509 0.02 0 0 0 1 2
4654 1 1.79824 1.89882 0.02 0 0 0 1 2
4655 1 1.78981 2.09218 0.02 0 0 0 1 2
4592 1 1.72775 0.0146403 0.02 0 0 0 1 2
4814 1 1.74456 6.1851 0.02 0 5.24466e-08 -1.9206e-07 1 2
4640 1 1.72212 1.50668 0.02 0 0 0 1 2
4800 1 1.69377 5.81132 0.02 0 0 0 1 2
4802 1 1.71901 5.99766 0.02 0 5.43487e-11 -1.94528e-10 1 2
4736 1 1.72097 4.25642 0.02 0 0 0 1 2
4782 1 1.68502 5.44311 0.02 0 0 0 1 2
4734 1 1.70376 4.0519 0.02 0 0 0 1 2
4749 1 1.74473 4.46491 0.02 0 0 0 1 2
4751 1 1.73315 4.66681 0.02 0 0 0 1 2
4764 1 1.70405 4.86415 0.02 0 0 0 1 2
4667 1 1.62837 2.26125 0.02 0 0 0 1 2
4669 1 1.66044 2.45268 0.02 0 0 0 1 2
4766 1 1.67264 5.05907 0.02 0 0 0 1 2
4682 1 1.64552 2.64459 0.02 0 0 0 1 2
4684 1 1.63193 2.83916 0.02 0 0 0 1 2
4784 1 1.66523 5.62895 0.02 0 0 0 1 2
4719 1 1.65631 3.64472 0.02 0 0 0 1 2
4721 1 1.68024 3.84819 0.02 0 0 0 1 2
4779 1 1.67455 5.25264 0.02 0 0 0 1 2
4589 1 1.57888 0.216003 0.02 0 0 0 1 2
4590 1 1.57364 0.424276 0.02 0 0 0 1 2
4606 1 1.57812 0.634414 0.02 0 0 0 1 2
4748 1 1.55432 4.43607 0.02 0 0 0 1 2
4607 1 1.58461 0.848641 0.02 0 0 0 1 2
4828 1 1.60708 6.72909 0.02 0 -0.00020906 7.02865e-05 1 2
4829 1 1.56117 6.5555 0.02 0 -2.47309e-07 -1.80019e-07 1 2
4621 1 1.57139 1.06422 0.02 0 0 0 1 2
4622 1 1.57002 1.27921 0.02 0 0 0 1 2
4815 1 1.56323 6.37909 0.02 0 1.15911e-08 -2.79343e-08 1 2
4639 1 1.55224 1.68567 0.02 0 0 0 1 2
4652 1 1.58797 1.8791 0.02 0 0 0 1 2
4653 1 1.57618 2.07045 0.02 0 0 0 1 2
4685 1 1.60362 3.03534 0.02 0 0 0 1 2
4703 1 1.6025 3.23538 0.02 0 0 0 1 2
4704 1 1.59963 3.43993 0.02 0 0 0 1 2
4591 1 1.53938 0.00901173 0.02 0 0 0 1 2
4801 1 1.51855 6.01246 0.02 0 0 0 1 2
4799 1 1.4839 5.82225 0.02 0 0 0 1 2
4735 1 1.52233 4.22758 0.02 0 0 0 1 2
4733 1 1.50602 4.02299 0.02 0 0 0 1 2
4781 1 1.4826 5.4397 0.02 0 0 0 1 2
4638 1 1.52716 1.48506 0.02 0 0 0 1 2
4750 1 1.53774 4.64357 0.02 0 0 0 1 2
4813 1 1.53353 6.20041 0.02 0 1.00726e-10 -3.65704e-10 1 2
4720 1 1.48112 3.8167 0.02 0 0 0 1 2
4763 1 1.50794 4.84671 0.02 0 0 0 1 2
4765 1 1.47544 5.04711 0.02 0 0 0 1 2
1583 2 3.2 -9.6 0 0 0 0 1 5
1582 2 3 -9.6 0 0 0 0 1 5
1549 2 3.2 -9.8 0 0 0 0 1 5
1548 2 3 -9.8 0 0 0 0 1 5
1515 2 3.2 -10 0 0 0 0 1 5
1514 2 3 -10 0 0 0 0 1 5
1584 2 3.4 -9.6 0 0 0 0 1 5
1550 2 3.4 -9.8 0 0 0 0 1 5
1516 2 3.4 -10 0 0 0 0 1 5
1586 2 3.8 -9.6 0 0 0 0 1 5
1585 2 3.6 -9.6 0 0 0 0 1 5
1552 2 3.8 -9.8 0 0 0 0 1 5
1551 2 3.6 -9.8 0 0 0 0 1 5
1518 2 3.8 -10 0 0 0 0 1 5
1517 2 3.6 -10 0 0 0 0 1 5
1588 2 4.2 -9.6 0 0 0 0 1 5
1587 2 4 -9.6 0 0 0 0 1 5
1554 2 4.2 -9.8 0 0 0 0 1 5
1553 2 4 -9.8 0 0 0 0 1 5
1520 2 4.2 -10 0 0 0 0 1 5
1519 2 4 -10 0 0 0 0 1 5
1616 2 3 -9.4 0 0 0 0 1 5
1617 2 3.2 -9.4 0 0 0 0 1 5
1651 2 3.2 -9.2 0 0 0 0 1 5
1650 2 3 -9.2 0 0 0 0 1 5
1652 2 3.4 -9.2 0 0 0 0 1 5
1618 2 3.4 -9.4 0 0 0 0 1 5
1653 2 3.6 -9.2 0 0 0 0 1 5
1654 2 3.8 -9.2 0 0 0 0 1 5
1620 2 3.8 -9.4 0 0 0 0 1 5
1619 2 3.6 -9.4 0 0 0 0 1 5
1622 2 4.2 -9.4 0 0 0 0 1 5
1655 2 4 -9.2 0 0 0 0 1 5
1656 2 4.2 -9.2 0 0 0 0 1 5
1621 2 4 -9.4 0 0 0 0 1 5
1719 2 3.2 -8.8 0 0 0 0 1 5
1718 2 3 -8.8 0 0 0 0 1 5
1685 2 3.2 -9 0 0 0 0 1 5
1684 2 3 -9 0 0 0 0 1 5
1686 2 3.4 -9 0 0 0 0 1 5
1720 2 3.4 -8.8 0 0 0 0 1 5
1687 2 3.6 -9 0 0 0 0 1 5
1688 2 3.8 -9 0 0 0 0 1 5
1721 2 3.6 -8.8 0 0 0 0 1 5
1722 2 3.8 -8.8 0 0 0 0 1 5
1689 2 4 -9 0 0 0 0 1 5
1690 2 4.2 -9 0 0 0 0 1 5
1723 2 4 -8.8 0 0 0 0 1 5
1724 2 4.2 -8.8 0 0 0 0 1 5
1752 2 3 -8.6 0 0 0 0 1 5
1753 2 3.2 -8.6 0 0 0 0 1 5
1786 2 3 -8.4 0 0 0 0 1 5
1787 2 3.2 -8.4 0 0 0 0 1 5
1754 2 3.4 -8.6 0 0 0 0 1 5
1788 2 3.4 -8.4 0 0 0 0 1 5
1755 2 3.6 -8.6 0 0 0 0 1 5
1756 2 3.8 -8.6 0 0 0 0 1 5
1789 2 3.6 -8.4 0 0 0 0 1 5
1790 2 3.8 -8.4 0 0 0 0 1 5
1757 2 4 -8.6 0 0 0 0 1 5
1758 2 4.2 -8.6 0 0 0 0 1 5
1791 2 4 -8.4 0 0 0 0 1 5
1792 2 4.2 -8.4 0 0 0 0 1 5
1820 2 3 -8.2 0 0 0 0 1 5
1821 2 3.2 -8.2 0 0 0 0 1 5
1854 2 3 -8 0 0 0 0 1 5
1855 2 3.2 -8 0 0 0 0 1 5
1822 2 3.4 -8.2 0 0 0 0 1 5
1856 2 3.4 -8 0 0 0 0 1 5
1823 2 3.6 -8.2 0 0 0 0 1 5
1824 2 3.8 -8.2 0 0 0 0 1 5
1857 2 3.6 -8 0 0 0 0 1 5
1858 2 3.8 -8 0 0 0 0 1 5
1825 2 4 -8.2 0 0 0 0 1 5
1826 2 4.2 -8.2 0 0 0 0 1 5
1859 2 4 -8 0 0 0 0 1 5
1860 2 4.2 -8 0 0 0 0 1 5
1888 2 3 -7.8 0 0 0 0 1 5
1889 2 3.2 -7.8 0 0 0 0 1 5
1922 2 3 -7.6 0 0 0 0 1 5
1923 2 3.2 -7.6 0 0 0 0 1 5
1956 2 3 -7.4 0 0 0 0 1.01184 5
1957 2 3.2 -7.4 0 0 0 0 1.00064 5
1890 2 3.4 -7.8 0 0 0 0 1 5
1924 2 3.4 -7.6 0 0 0 0 1 5
1958 2 3.4 -7.4 0 0 0 0 0.996906 5
1891 2 3.6 -7.8 0 0 0 0 1 5
1892 2 3.8 -7.8 0 0 0 0 1 5
1925 2 3.6 -7.6 0 0 0 0 1 5
1926 2 3.8 -7.6 0 0 0 0 1 5
1959 2 3.6 -7.4 0 0 0 0 0.999603 5
1960 2 3.8 -7.4 0 0 0 0 1.00255 5
1893 2 4 -7.8 0 0 0 0 1 5
1894 2 4.2 -7.8 0 0 0 0 1 5
1927 2 4 -7.6 0 0 0 0 1 5
1928 2 4.2 -7.6 0 0 0 0 1 5
1961 2 4 -7.4 0 0 0 0 0.999172 5
1962 2 4.2 -7.4 0 0 0 0 1.00067 5
1990 2 3 -7.2 0 0 0 0 1.01063 5
1991 2 3.2 -7.2 0 0 0 0 1.00263 5
2024 2 3 -7 0 0 0 0 1.00861 5
2025 2 3.2 -7 0 0 0 0 1.00378 5
1992 2 3.4 -7.2 0 0 0 0 0.999817 5
2026 2 3.4 -7 0 0 0 0 1.00051 5
1993 2 3.6 -7.2 0 0 0 0 1.00041 5
1994 2 3.8 -7.2 0 0 0 0 1.00067 5
2027 2 3.6 -7 0 0 0 0 1.00008 5
2028 2 3.8 -7 0 0 0 0 1.00037 5
1995 2 4 -7.2 0 0 0 0 1.00095 5
1996 2 4.2 -7.2 0 0 0 0 0.997937 5
2029 2 4 -7 0 0 0 0 1.00062 5
2030 2 4.2 -7 0 0 0 0 0.997422 5
4445 1 3.61689 -6.5542 0.02 0 6.69919e-05 0.000464381 1 2
4443 1 3.59112 -6.74203 0.02 0 -0.00337427 -0.000457541 1 2
4442 1 3.40221 -6.72835 0.02 0 -0.00185265 -0.000229434 1 2
4444 1 3.41682 -6.54477 0.02 0 0.000300015 0.000418249 1 2
4449 1 3.9353 -6.75491 0.0157759 0 -0.00209687 -0.000505207 1 2
4451 1 4.01542 -6.5739 0.0185966 0 -2.86643e-06 0.000442139 1 2
4448 1 3.77267 -6.74133 0.0168028 0 -0.0015153 -0.000391571 1 2
4450 1 3.82173 -6.56709 0.0194444 0 -6.08443e-05 0.000462261 1 2
4452 1 4.1026 -6.74948 0.0158021 0 -0.00265057 -0.000543415 1 2
4454 1 4.20225 -6.56093 0.0190044 0 -0.000178148 0.000502189 1 2
4575 1 3.21948 -3.0552 0.02 0 -1.41841e-19 2.11173e-20 1 2
4349 1 4.20541 -0.696222 0.02 0 4.85358e-18 -4.57943e-19 1 2
4453 1 4.247 -6.75696 0.0150798 0 -0.00265301 -0.000274179 1 2
4455 1 4.38271 -6.56947 0.0189144 0 -0.000711065 0.000973116 1 2