ITEM: TIMESTEP
39000
ITEM: NUMBER OF ATOMS
1168
ITEM: BOX BOUNDS ff ff pp
0.0000000000000000e+00 4.4000000000000004e+00
-1.0000000000000000e+01 1.0000000000000000e+01
-2.0000000000000000e-02 2.0000000000000000e-02
ITEM: ATOMS id type x y vx vy fx fy c_den c_phase
1509 2 2 -10 0 0 0 0 1 5
1510 2 2.2 -10 0 0 0 0 1 5
1511 2 2.4 -10 0 0 0 0 1 5
1543 2 2 -9.8 0 0 0 0 1 5
1544 2 2.2 -9.8 0 0 0 0 1 5
1545 2 2.4 -9.8 0 0 0 0 1 5
1577 2 2 -9.6 0 0 0 0 1 5
1578 2 2.2 -9.6 0 0 0 0 1 5
1579 2 2.4 -9.6 0 0 0 0 1 5
1512 2 2.6 -10 0 0 0 0 1 5
1513 2 2.8 -10 0 0 0 0 1 5
1546 2 2.6 -9.8 0 0 0 0 1 5
1547 2 2.8 -9.8 0 0 0 0 1 5
1580 2 2.6 -9.6 0 0 0 0 1 5
1581 2 2.8 -9.6 0 0 0 0 1 5
1645 2 2 -9.2 0 0 0 0 1 5
1646 2 2.2 -9.2 0 0 0 0 1 5
1647 2 2.4 -9.2 0 0 0 0 1 5
1613 2 2.4 -9.4 0 0 0 0 1 5
1612 2 2.2 -9.4 0 0 0 0 1 5
1611 2 2 -9.4 0 0 0 0 1 5
1648 2 2.6 -9.2 0 0 0 0 1 5
1649 2 2.8 -9.2 0 0 0 0 1 5
1615 2 2.8 -9.4 0 0 0 0 1 5
1614 2 2.6 -9.4 0 0 0 0 1 5
1679 2 2 -9 0 0 0 0 1 5
1680 2 2.2 -9 0 0 0 0 1 5
1681 2 2.4 -9 0 0 0 0 1 5
1713 2 2 -8.8 0 0 0 0 1 5
1714 2 2.2 -8.8 0 0 0 0 1 5
1715 2 2.4 -8.8 0 0 0 0 1 5
1682 2 2.6 -9 0 0 0 0 1 5
1683 2 2.8 -9 0 0 0 0 1 5
1716 2 2.6 -8.8 0 0 0 0 1 5
1717 2 2.8 -8.8 0 0 0 0 1 5
1783 2 2.4 -8.4 0 0 0 0 1 5
1782 2 2.2 -8.4 0 0 0 0 1 5
1781 2 2 -8.4 0 0 0 0 1 5
1747 2 2 -8.6 0 0 0 0 1 5
1748 2 2.2 -8.6 0 0 0 0 1 5
1749 2 2.4 -8.6 0 0 0 0 1 5
1785 2 2.8 -8.4 0 0 0 0 1 5
1784 2 2.6 -8.4 0 0 0 0 1 5
1750 2 2.6 -8.6 0 0 0 0 1 5
1751 2 2.8 -8.6 0 0 0 0 1 5
1851 2 2.4 -8 0 0 0 0 1 5
1850 2 2.2 -8 0 0 0 0 1 5
1849 2 2 -8 0 0 0 0 1 5
1817 2 2.4 -8.2 0 0 0 0 1 5
1816 2 2.2 -8.2 0 0 0 0 1 5
1815 2 2 -8.2 0 0 0 0 1 5
1853 2 2.8 -8 0 0 0 0 1 5
1852 2 2.6 -8 0 0 0 0 1 5
1819 2 2.8 -8.2 0 0 0 0 1 5
1818 2 2.6 -8.2 0 0 0 0 1 5
1953 2 2.4 -7.4 0 0 0 0 0.997859 5
1952 2 2.2 -7.4 0 0 0 0 0.999811 5
1951 2 2 -7.4 0 0 0 0 0.999811 5
1919 2 2.4 -7.6 0 0 0 0 1 5
1918 2 2.2 -7.6 0 0 0 0 1 5
1917 2 2 -7.6 0 0 0 0 1 5
1885 2 2.4 -7.8 0 0 0 0 1 5
1884 2 2.2 -7.8 0 0 0 0 1 5
1883 2 2 -7.8 0 0 0 0 1 5
1955 2 2.8 -7.4 0 0 0 0 0.999378 5
1954 2 2.6 -7.4 0 0 0 0 1.00546 5
1921 2 2.8 -7.6 0 0 0 0 1 5
1920 2 2.6 -7.6 0 0 0 0 1 5
1887 2 2.8 -7.8 0 0 0 0 1 5
1886 2 2.6 -7.8 0 0 0 0 1 5
2021 2 2.4 -7 0 0 0 0 0.999066 5
2020 2 2.2 -7 0 0 0 0 0.999098 5
2019 2 2 -7 0 0 0 0 1.00197 5
1987 2 2.4 -7.2 0 0 0 0 0.998215 5
1986 2 2.2 -7.2 0 0 0 0 0.998615 5
1985 2 2 -7.2 0 0 0 0 1.00204 5
2023 2 2.8 -7 0 0 0 0 0.999371 5
2022 2 2.6 -7 0 0 0 0 1.00039 5
1989 2 2.8 -7.2 0 0 0 0 0.999741 5
1988 2 2.6 -7.2 0 0 0 0 1.00125 5
3949 1 2.20071 -6.76677 0.02 0 -0.00337859 -0.000567409 1 2
3951 1 2.22268 -6.57855 0.02 0 6.86002e-05 0.000540932 1 2
3948 1 2.02426 -6.57855 0.02 0 0.000493349 0.000955009 1 2
3946 1 1.98756 -6.76349 0.02 0 -0.0033963 -0.000695386 1 2
3947 1 1.81947 -6.57221 0.02 0 0.000556372 0.000581829 1 2
3955 1 2.61975 -6.56058 0.02 0 0.000158423 0.000519371 1 2
3953 1 2.5949 -6.7407 0.02 0 -0.00262663 -0.000553274 1 2
3950 1 2.40499 -6.74921 0.02 0 -0.00269919 -0.000441668 1 2
3952 1 2.41786 -6.55859 0.02 0 0.000171339 0.000425661 1 2
3849 1 1.63155 -0.774498 0.02 0 0 0 1 2
4050 1 1.62504 -3.65388 0.02 0 0 0 1 2
3954 1 2.78986 -6.76847 0.02 0 -0.00280375 -0.000586083 1 2
3956 1 2.81268 -6.576 0.02 0 0.000156784 0.00047893 1 2
3963 1 2.20749 -6.38915 0.02 0 0.000123287 0.000160259 1 2
3965 1 2.22266 -6.18855 0.02 0 6.61758e-06 1.24846e-05 1 2
3962 1 2.01696 -6.21801 0.02 0 5.82277e-06 1.0578e-05 1 2
3960 1 2.00148 -6.39862 0.02 0 0.000136299 0.000192728 1 2
3969 1 2.63347 -6.20222 0.02 0 8.07086e-06 1.57909e-05 1 2
3967 1 2.61061 -6.38259 0.02 0 0.000106931 0.00014079 1 2
3966 1 2.42627 -6.18143 0.02 0 6.2087e-06 1.23068e-05 1 2
3964 1 2.40551 -6.36834 0.02 0 0.000103279 0.000128073 1 2
3973 1 1.63506 -6.03328 0.02 0 0 0 1 2
3908 1 1.64466 -2.27621 0.02 0 0 0 1 2
3970 1 2.8422 -6.20607 0.02 0 1.12035e-05 2.05515e-05 1 2
3968 1 2.82428 -6.38716 0.02 0 0.000115018 0.000161409 1 2
3981 1 2.27007 -5.803 0.02 0 2.6004e-11 1.89885e-10 1 2
3979 1 2.21696 -5.99289 0.02 0 3.88775e-08 9.42574e-08 1 2
3975 1 2.01904 -6.02704 0.02 0 4.38741e-08 1.3138e-07 1 2
3978 1 2.06359 -5.82346 0.02 0 6.21465e-11 5.69441e-10 1 2
3974 1 1.82673 -6.03474 0.02 0 8.142e-09 3.59664e-08 1 2
3977 1 1.86843 -5.82876 0.02 0 1.85222e-11 9.33132e-11 1 2
3982 1 2.48004 -5.8133 0.02 0 3.8523e-11 1.90026e-10 1 2
3985 1 2.68959 -5.8406 0.02 0 1.41513e-10 7.52712e-10 1 2
3987 1 2.70378 -5.65807 0.02 0 0 0 1 2
3983 1 2.63824 -6.01828 0.02 0 7.81806e-08 2.47639e-07 1 2
3980 1 2.42538 -5.99456 0.02 0 3.12683e-08 8.50364e-08 1 2
3988 1 2.92534 -5.67806 0.02 0 -5.60961e-18 4.55155e-18 1 2
3986 1 2.90737 -5.85757 0.02 0 9.43542e-11 1.89083e-09 1 2
3984 1 2.86072 -6.02829 0.02 0 1.87001e-07 4.3143e-07 1 2
3996 1 2.27786 -5.61019 0.02 0 0 0 1 2
3995 1 2.11407 -5.41859 0.02 0 0 0 1 2
3998 1 2.14937 -5.22191 0.02 0 0 0 1 2
3994 1 2.07924 -5.62036 0.02 0 0 0 1 2
3990 1 1.88838 -5.61698 0.02 0 0 0 1 2
3992 1 1.91907 -5.40365 0.02 0 0 0 1 2
4000 1 2.48589 -5.62586 0.02 0 0 0 1 2
3999 1 2.35089 -5.23061 0.02 0 0 0 1 2
3997 1 2.32042 -5.42183 0.02 0 0 0 1 2
4003 1 2.55748 -5.25608 0.02 0 0 0 1 2
4001 1 2.52835 -5.44246 0.02 0 0 0 1 2
4004 1 2.76788 -5.28876 0.02 0 0 0 1 2
4002 1 2.73222 -5.47541 0.02 0 0 0 1 2
4006 1 2.9771 -5.30587 0.02 0 0 0 1 2
4005 1 2.9408 -5.49466 0.02 0 0 0 1 2
4012 1 2.18182 -5.02613 0.02 0 0 0 1 2
4013 1 2.15746 -4.82709 0.02 0 0 0 1 2
4009 1 1.95485 -5.19276 0.02 0 0 0 1 2
4010 1 1.97698 -4.99109 0.02 0 0 0 1 2
4011 1 1.95708 -4.79402 0.02 0 0 0 1 2
4015 1 2.35826 -4.84437 0.02 0 0 0 1 2
4017 1 2.56169 -4.87111 0.02 0 0 0 1 2
4014 1 2.38917 -5.04029 0.02 0 0 0 1 2
4016 1 2.59268 -5.06783 0.02 0 0 0 1 2
4019 1 2.76244 -4.88531 0.02 0 0 0 1 2
4021 1 2.97957 -5.11052 0.02 0 0 0 1 2
4020 1 2.95976 -4.90344 0.02 0 0 0 1 2
4018 1 2.78746 -5.0919 0.02 0 0 0 1 2
4026 1 2.18541 -4.62877 0.02 0 0 0 1 2
4027 1 2.14329 -4.43103 0.02 0 0 0 1 2
4024 1 1.98574 -4.60119 0.02 0 0 0 1 2
4025 1 1.93362 -4.41435 0.02 0 0 0 1 2
4029 1 2.3501 -4.44736 0.02 0 0 0 1 2
4031 1 2.55306 -4.46549 0.02 0 0 0 1 2
4030 1 2.57174 -4.67057 0.02 0 0 0 1 2
4028 1 2.38072 -4.64625 0.02 0 0 0 1 2
4033 1 2.75031 -4.46046 0.02 0 0 0 1 2
4032 1 2.76054 -4.67466 0.02 0 0 0 1 2
4035 1 2.94516 -4.49581 0.02 0 0 0 1 2
4034 1 2.95189 -4.69896 0.02 0 0 0 1 2
4040 1 2.15605 -4.24028 0.02 0 0 0 1 2
4041 1 2.17358 -4.04539 0.02 0 0 0 1 2
4037 1 1.94372 -4.22496 0.02 0 0 0 1 2
4039 1 1.97724 -4.03552 0.02 0 0 0 1 2
4045 1 2.56441 -4.06866 0.02 0 0 0 1 2
4044 1 2.57451 -4.26689 0.02 0 0 0 1 2
4043 1 2.36764 -4.05749 0.02 0 0 0 1 2
4042 1 2.36727 -4.25491 0.02 0 0 0 1 2
4047 1 2.76469 -4.04623 0.02 0 0 0 1 2
4046 1 2.77412 -4.25285 0.02 0 0 0 1 2
4049 1 2.96213 -4.09365 0.02 0 0 0 1 2
4048 1 2.96902 -4.29575 0.02 0 0 0 1 2
4056 1 2.23361 -3.64838 0.02 0 0 0 1 2
4055 1 2.19696 -3.84635 0.02 0 0 0 1 2
4054 1 2.03406 -3.64771 0.02 0 0 0 1 2
4052 1 1.99295 -3.84076 0.02 0 0 0 1 2
4053 1 1.83021 -3.63802 0.02 0 0 0 1 2
4058 1 2.42928 -3.65665 0.02 0 0 0 1 2
4057 1 2.39699 -3.85732 0.02 0 0 0 1 2
4059 1 2.59559 -3.86973 0.02 0 0 0 1 2
4060 1 2.62384 -3.66825 0.02 0 0 0 1 2
4063 1 2.97877 -3.89314 0.02 0 0 0 1 2
3847 1 1.60508 -0.560608 0.02 0 0 0 1 2
4062 1 2.81516 -3.62939 0.02 0 0 0 1 2
4061 1 2.79238 -3.83821 0.02 0 0 0 1 2
3934 1 2.20612 -3.062 0.02 0 0 0 1 2
3937 1 2.19012 -3.25733 0.02 0 0 0 1 2
3938 1 2.18831 -3.45244 0.02 0 0 0 1 2
3942 1 1.98232 -3.45411 0.02 0 0 0 1 2
3941 1 1.98322 -3.26052 0.02 0 0 0 1 2
3939 1 2.00061 -3.06801 0.02 0 0 0 1 2
3936 1 2.39426 -3.45599 0.02 0 0 0 1 2
3935 1 2.39269 -3.25767 0.02 0 0 0 1 2
3933 1 2.40748 -3.05992 0.02 0 0 0 1 2
3932 1 2.59894 -3.46906 0.02 0 0 0 1 2
3931 1 2.59358 -3.27232 0.02 0 0 0 1 2
3928 1 2.60479 -3.07265 0.02 0 0 0 1 2
3861 1 1.68812 -0.985548 0.02 0 0 0 1 2
3926 1 2.98547 -3.27024 0.02 0 0 0 1 2
3877 1 1.72061 -1.36587 0.02 0 0 0 1 2
3930 1 2.7976 -3.42534 0.02 0 0 0 1 2
3929 1 2.79156 -3.22306 0.02 0 0 0 1 2
3920 1 2.16533 -2.87093 0.02 0 0 0 1 2
3918 1 2.12381 -2.68142 0.02 0 0 0 1 2
3923 1 1.95651 -2.87607 0.02 0 0 0 1 2
3922 1 1.91966 -2.68115 0.02 0 0 0 1 2
3919 1 2.37813 -2.86829 0.02 0 0 0 1 2
3917 1 2.33359 -2.68272 0.02 0 0 0 1 2
3914 1 2.5457 -2.68608 0.02 0 0 0 1 2
3915 1 2.59099 -2.87434 0.02 0 0 0 1 2
3912 1 2.75287 -2.6413 0.02 0 0 0 1 2
3911 1 2.98417 -2.84058 0.02 0 0 0 1 2
3910 1 2.9609 -2.62369 0.02 0 0 0 1 2
3916 1 2.79927 -3.02198 0.02 0 0 0 1 2
3913 1 2.79129 -2.8269 0.02 0 0 0 1 2
3905 1 2.11765 -2.49051 0.02 0 0 0 1 2
3904 1 2.0738 -2.30636 0.02 0 0 0 1 2
3907 1 1.90702 -2.4854 0.02 0 0 0 1 2
3906 1 1.85374 -2.29621 0.02 0 0 0 1 2
3901 1 2.53594 -2.49394 0.02 0 0 0 1 2
3900 1 2.5144 -2.30128 0.02 0 0 0 1 2
3902 1 2.302 -2.30994 0.02 0 0 0 1 2
3903 1 2.32763 -2.49506 0.02 0 0 0 1 2
3898 1 2.71255 -2.25436 0.02 0 0 0 1 2
3899 1 2.73607 -2.44987 0.02 0 0 0 1 2
3897 1 2.93241 -2.42162 0.02 0 0 0 1 2
3896 1 2.90941 -2.21807 0.02 0 0 0 1 2
3890 1 2.23064 -2.1371 0.02 0 0 0 1 2
3889 1 2.22163 -1.95147 0.02 0 0 0 1 2
3887 1 2.18462 -1.76484 0.02 0 0 0 1 2
3891 1 2.00867 -1.93585 0.02 0 0 0 1 2
3892 1 2.01284 -2.12404 0.02 0 0 0 1 2
3893 1 1.96728 -1.75137 0.02 0 0 0 1 2
3895 1 1.80238 -2.10566 0.02 0 0 0 1 2
3886 1 2.45215 -2.118 0.02 0 0 0 1 2
3883 1 2.61616 -1.8738 0.02 0 0 0 1 2
3885 1 2.65715 -2.06621 0.02 0 0 0 1 2
3888 1 2.42329 -1.92667 0.02 0 0 0 1 2
3884 1 2.8559 -2.02337 0.02 0 0 0 1 2
3882 1 2.80777 -1.82483 0.02 0 0 0 1 2
3909 1 1.6992 -2.47715 0.02 0 0 0 1 2
3989 1 1.6974 -5.62887 0.02 0 0 0 1 2
3871 1 2.15808 -1.37784 0.02 0 0 0 1 2
3873 1 2.18021 -1.5728 0.02 0 0 0 1 2
3875 1 1.97699 -1.56384 0.02 0 0 0 1 2
3876 1 1.93978 -1.3795 0.02 0 0 0 1 2
3867 1 2.5668 -1.47817 0.02 0 0 0 1 2
3869 1 2.58283 -1.67801 0.02 0 0 0 1 2
3870 1 2.35905 -1.32082 0.02 0 0 0 1 2
3874 1 2.38852 -1.72907 0.02 0 0 0 1 2
3872 1 2.3728 -1.52383 0.02 0 0 0 1 2
3866 1 2.7559 -1.41185 0.02 0 0 0 1 2
3868 1 2.77414 -1.62017 0.02 0 0 0 1 2
3865 1 2.95878 -1.55154 0.02 0 0 0 1 2
3864 1 2.93513 -1.33541 0.02 0 0 0 1 2
3856 1 2.27112 -0.926641 0.02 0 0 0 1 2
3859 1 2.14439 -1.18336 0.02 0 0 0 1 2
3857 1 2.08816 -0.988747 0.02 0 0 0 1 2
3862 1 1.93515 -1.19427 0.02 0 0 0 1 2
3860 1 1.89112 -1.00662 0.02 0 0 0 1 2
3858 1 2.33539 -1.11965 0.02 0 0 0 1 2
3855 1 2.55218 -1.2746 0.02 0 0 0 1 2
3853 1 2.52305 -1.06612 0.02 0 0 0 1 2
3852 1 2.69908 -0.984807 0.02 0 0 0 1 2
3854 1 2.72965 -1.19935 0.02 0 0 0 1 2
3851 1 2.87336 -0.898944 0.02 0 0 0 1 2
3850 1 2.89896 -1.11672 0.02 0 0 0 1 2
3843 1 2.21018 -0.730977 0.02 0 0 0 1 2
3842 1 2.1673 -0.527642 0.02 0 0 0 1 2
3844 1 2.02499 -0.788933 0.02 0 0 0 1 2
3845 1 1.98341 -0.584138 0.02 0 0 0 1 2
3848 1 1.83064 -0.811747 0.02 0 0 0 1 2
3839 1 2.45424 -0.867583 0.02 0 0 0 1 2
3838 1 2.63159 -0.789936 0.02 0 0 0 1 2
3837 1 2.58281 -0.592202 0.02 0 0 0 1 2
3841 1 2.35332 -0.469224 0.02 0 0 0 1 2
3840 1 2.39669 -0.668099 0.02 0 0 0 1 2
3836 1 2.77231 -0.512167 0.02 0 0 0 1 2
3991 1 1.72226 -5.42296 0.02 0 0 0 1 2
3921 1 1.71736 -2.67636 0.02 0 0 0 1 2
3832 1 2.96406 -0.449534 0.02 0 0 0 1 2
3835 1 2.81111 -0.705365 0.02 0 0 0 1 2
3827 1 2.13274 -0.317833 0.02 0 0 0 1 2
3826 1 2.11433 -0.104643 0.02 0 0 0 1 2
3828 1 1.95128 -0.378772 0.02 0 0 0 1 2
3829 1 1.93084 -0.173337 0.02 0 0 0 1 2
3823 1 2.7285 -0.320927 0.02 0 0 0 1 2
3821 1 2.53982 -0.395697 0.02 0 0 0 1 2
3820 1 2.69039 -0.123525 0.02 0 0 0 1 2
3822 1 2.50493 -0.195535 0.02 0 0 0 1 2
3825 1 2.31947 -0.268647 0.02 0 0 0 1 2
3824 1 2.30477 -0.0631203 0.02 0 0 0 1 2
3818 1 2.91652 -0.249702 0.02 0 0 0 1 2
3819 1 2.87283 -0.0478893 0.02 0 0 0 1 2
3945 1 1.78573 -6.74459 0.02 0 -0.00518495 -0.00223906 1 2
3830 1 1.74113 -0.162903 0.02 0 0 0 1 2
3831 1 1.76507 -0.39204 0.02 0 0 0 1 2
3959 1 1.77746 -6.40575 0.02 0 -2.31816e-07 -6.94486e-08 1 2
3961 1 1.79885 -6.22649 0.02 0 6.44201e-07 1.24466e-06 1 2
3846 1 1.79382 -0.609046 0.02 0 0 0 1 2
3993 1 1.75553 -5.22229 0.02 0 0 0 1 2
4007 1 1.77275 -5.02463 0.02 0 0 0 1 2
4008 1 1.75755 -4.82859 0.02 0 0 0 1 2
3878 1 1.76298 -1.54983 0.02 0 0 0 1 2
3879 1 1.74901 -1.73465 0.02 0 0 0 1 2
3894 1 1.78845 -1.91774 0.02 0 0 0 1 2
4023 1 1.73769 -4.42558 0.02 0 0 0 1 2
4022 1 1.7824 -4.62705 0.02 0 0 0 1 2
4036 1 1.73721 -4.22232 0.02 0 0 0 1 2
3924 1 1.74774 -2.87178 0.02 0 0 0 1 2
3943 1 1.77202 -3.2515 0.02 0 0 0 1 2
3940 1 1.79074 -3.06197 0.02 0 0 0 1 2
3944 1 1.77781 -3.44445 0.02 0 0 0 1 2
4038 1 1.77575 -4.02713 0.02 0 0 0 1 2
4051 1 1.78754 -3.83201 0.02 0 0 0 1 2
3863 1 1.71372 -1.17967 0.02 0 0 0 1 2
3976 1 1.67429 -5.83368 0.02 0 0 0 1 2
3825 1 2.28508 0.353606 0.02 0 0 0 1 2
3822 1 2.103 0.10449 0.02 0 0 0 1 2
3823 1 2.09706 0.316871 0.02 0 0 0 1 2
3820 1 1.91248 0.0324508 0.02 0 0 0 1 2
3821 1 1.91359 0.238999 0.02 0 0 0 1 2
3828 1 2.67573 0.297915 0.02 0 0 0 1 2
3829 1 2.67756 0.0870193 0.02 0 0 0 1 2
3830 1 2.49125 0.0123139 0.02 0 0 0 1 2
3827 1 2.46492 0.428482 0.02 0 0 0 1 2
3826 1 2.4861 0.221767 0.02 0 0 0 1 2
3824 1 2.29694 0.14424 0.02 0 0 0 1 2
3832 1 2.8725 0.353552 0.02 0 0 0 1 2
3831 1 2.86801 0.154943 0.02 0 0 0 1 2
3840 1 2.25942 0.56827 0.02 0 0 0 1 2
3841 1 2.22527 0.780362 0.02 0 0 0 1 2
3838 1 2.04036 0.740464 0.02 0 0 0 1 2
3839 1 2.07395 0.527935 0.02 0 0 0 1 2
3835 1 1.8931 0.447051 0.02 0 0 0 1 2
3836 1 1.86729 0.655296 0.02 0 0 0 1 2
3837 1 1.82346 0.866201 0.02 0 0 0 1 2
3844 1 2.64667 0.503287 0.02 0 0 0 1 2
3842 1 2.40855 0.841408 0.02 0 0 0 1 2
3843 1 2.44024 0.636197 0.02 0 0 0 1 2
3845 1 2.6225 0.711247 0.02 0 0 0 1 2
3847 1 2.81847 0.74091 0.02 0 0 0 1 2
3846 1 2.83886 0.546765 0.02 0 0 0 1 2
3979 1 1.6085 4.361 0.02 0 0 0 1 2
3945 1 1.5998 3.7317 0.02 0 0 0 1 2
3855 1 2.18709 0.987355 0.02 0 0 0 1 2
3856 1 2.14803 1.19029 0.02 0 0 0 1 2
3853 1 1.95552 1.15445 0.02 0 0 0 1 2
3854 1 1.9988 0.94982 0.02 0 0 0 1 2
3858 1 2.37214 1.04555 0.02 0 0 0 1 2
3860 1 2.55728 1.11411 0.02 0 0 0 1 2
3857 1 2.33822 1.24909 0.02 0 0 0 1 2
3859 1 2.59322 0.914402 0.02 0 0 0 1 2
3862 1 2.75731 1.12443 0.02 0 0 0 1 2
3861 1 2.79515 0.933529 0.02 0 0 0 1 2
3864 1 2.95682 1.14977 0.02 0 0 0 1 2
4027 1 1.6555 5.7614 0.02 0 0 0 1 2
3869 1 2.13222 1.39328 0.02 0 0 0 1 2
3870 1 2.10038 1.59163 0.02 0 0 0 1 2
3867 1 1.90357 1.5575 0.02 0 0 0 1 2
3868 1 1.93331 1.35841 0.02 0 0 0 1 2
3878 1 2.69315 1.6938 0.02 0 0 0 1 2
3876 1 2.52751 1.51012 0.02 0 0 0 1 2
3874 1 2.53047 1.31259 0.02 0 0 0 1 2
3871 1 2.32769 1.45325 0.02 0 0 0 1 2
3873 1 2.48663 1.70407 0.02 0 0 0 1 2
3872 1 2.29264 1.65109 0.02 0 0 0 1 2
3877 1 2.74099 1.50942 0.02 0 0 0 1 2
3875 1 2.73363 1.31735 0.02 0 0 0 1 2
3879 1 2.90518 1.73253 0.02 0 0 0 1 2
3881 1 2.94895 1.54741 0.02 0 0 0 1 2
3880 1 2.93652 1.34912 0.02 0 0 0 1 2
3890 1 2.2742 2.0556 0.02 0 0 0 1 2
3887 1 2.10194 1.79638 0.02 0 0 0 1 2
3889 1 2.0785 1.99756 0.02 0 0 0 1 2
3884 1 1.90398 1.7605 0.02 0 0 0 1 2
3885 1 1.88083 1.95782 0.02 0 0 0 1 2
3886 1 1.91841 2.16205 0.02 0 0 0 1 2
3893 1 2.70043 1.8863 0.02 0 0 0 1 2
3894 1 2.69139 2.08168 0.02 0 0 0 1 2
3892 1 2.49729 1.90075 0.02 0 0 0 1 2
3888 1 2.2958 1.85706 0.02 0 0 0 1 2
3891 1 2.47739 2.09225 0.02 0 0 0 1 2
3896 1 2.91965 2.10998 0.02 0 0 0 1 2
3895 1 2.89936 1.92355 0.02 0 0 0 1 2
3903 1 2.1599 2.60106 0.02 0 0 0 1 2
3901 1 2.12088 2.20644 0.02 0 0 0 1 2
3902 1 2.1152 2.40235 0.02 0 0 0 1 2
3900 1 1.94953 2.56123 0.02 0 0 0 1 2
3899 1 1.91414 2.36092 0.02 0 0 0 1 2
3905 1 2.31842 2.44255 0.02 0 0 0 1 2
3907 1 2.52998 2.4568 0.02 0 0 0 1 2
3906 1 2.56224 2.27066 0.02 0 0 0 1 2
3904 1 2.33558 2.25388 0.02 0 0 0 1 2
3909 1 2.74835 2.45162 0.02 0 0 0 1 2
3908 1 2.77754 2.26424 0.02 0 0 0 1 2
3911 1 2.96608 2.46193 0.02 0 0 0 1 2
3850 1 1.62354 0.878538 0.02 0 0 0 1 2
3917 1 2.20539 2.79067 0.02 0 0 0 1 2
3918 1 2.21862 2.98307 0.02 0 0 0 1 2
3916 1 2.01364 2.94837 0.02 0 0 0 1 2
3915 1 1.98623 2.75552 0.02 0 0 0 1 2
3914 1 1.81053 2.92807 0.02 0 0 0 1 2
3921 1 2.42482 3.00202 0.02 0 0 0 1 2
3920 1 2.42512 2.81234 0.02 0 0 0 1 2
3919 1 2.38042 2.62794 0.02 0 0 0 1 2
3924 1 2.63794 3.00905 0.02 0 0 0 1 2
3923 1 2.64066 2.82233 0.02 0 0 0 1 2
3922 1 2.60319 2.63653 0.02 0 0 0 1 2
3927 1 2.86117 3.00989 0.02 0 0 0 1 2
3897 1 1.71905 2.31584 0.02 0 0 0 1 2
3926 1 2.85077 2.82201 0.02 0 0 0 1 2
3925 1 2.81998 2.63402 0.02 0 0 0 1 2
4060 1 1.60592 6.73619 0.02 0 -0.000511525 0.000330194 1 2
3936 1 2.26529 3.17459 0.02 0 0 0 1 2
3935 1 2.10627 3.32877 0.02 0 0 0 1 2
3934 1 2.04555 3.14301 0.02 0 0 0 1 2
3933 1 1.89169 3.32658 0.02 0 0 0 1 2
3932 1 1.8372 3.12945 0.02 0 0 0 1 2
3938 1 2.48988 3.18734 0.02 0 0 0 1 2
3937 1 2.34377 3.35276 0.02 0 0 0 1 2
3939 1 2.56838 3.36887 0.02 0 0 0 1 2
3940 1 2.71249 3.18551 0.02 0 0 0 1 2
3941 1 2.78427 3.36398 0.02 0 0 0 1 2
4061 1 1.62163 6.54613 0.02 0 4.76094e-05 -3.20617e-05 1 2
3942 1 2.93682 3.18899 0.02 0 0 0 1 2
3952 1 2.26442 3.89242 0.02 0 0 0 1 2
3950 1 2.15673 3.51237 0.02 0 0 0 1 2
3951 1 2.20765 3.70319 0.02 0 0 0 1 2
3948 1 1.95168 3.52476 0.02 0 0 0 1 2
3949 1 2.00452 3.72431 0.02 0 0 0 1 2
3947 1 1.87472 3.90666 0.02 0 0 0 1 2
3954 1 2.43396 3.72892 0.02 0 0 0 1 2
3953 1 2.36573 3.54201 0.02 0 0 0 1 2
3955 1 2.576 3.56052 0.02 0 0 0 1 2
3956 1 2.66278 3.73891 0.02 0 0 0 1 2
3958 1 2.88467 3.72623 0.02 0 0 0 1 2
3957 1 2.79043 3.55293 0.02 0 0 0 1 2
4029 1 1.65631 5.95148 0.02 0 1.4651e-10 -3.00893e-10 1 2
3968 1 2.19243 4.32461 0.02 0 0 0 1 2
3966 1 2.13134 4.12896 0.02 0 0 0 1 2
3965 1 2.07227 3.92769 0.02 0 0 0 1 2
3964 1 1.99254 4.32724 0.02 0 0 0 1 2
3963 1 1.93328 4.11699 0.02 0 0 0 1 2
3969 1 2.3882 4.28555 0.02 0 0 0 1 2
3973 1 2.53826 4.11917 0.02 0 0 0 1 2
3970 1 2.46726 3.92225 0.02 0 0 0 1 2
3967 1 2.32524 4.09157 0.02 0 0 0 1 2
3972 1 2.66907 3.93074 0.02 0 0 0 1 2
3975 1 2.5919 4.32136 0.02 0 0 0 1 2
3974 1 2.74743 4.11587 0.02 0 0 0 1 2
3971 1 2.87641 3.91626 0.02 0 0 0 1 2
3976 1 2.78823 4.31238 0.02 0 0 0 1 2
3978 1 2.98333 4.30473 0.02 0 0 0 1 2
3977 1 2.95331 4.10482 0.02 0 0 0 1 2
3987 1 2.27406 4.73178 0.02 0 0 0 1 2
3985 1 2.2286 4.52537 0.02 0 0 0 1 2
3986 1 2.08036 4.73412 0.02 0 0 0 1 2
3984 1 2.03097 4.53266 0.02 0 0 0 1 2
3983 1 1.87597 4.71589 0.02 0 0 0 1 2
3981 1 1.83077 4.51509 0.02 0 0 0 1 2
3988 1 2.42164 4.48471 0.02 0 0 0 1 2
3989 1 2.46024 4.6878 0.02 0 0 0 1 2
3992 1 2.64427 4.75966 0.02 0 0 0 1 2
3990 1 2.61827 4.5335 0.02 0 0 0 1 2
3993 1 2.82411 4.73345 0.02 0 0 0 1 2
3991 1 2.8061 4.51831 0.02 0 0 0 1 2
3930 1 1.63322 3.11108 0.02 0 0 0 1 2
3912 1 1.61007 2.90933 0.02 0 0 0 1 2
4003 1 2.2896 5.18161 0.02 0 0 0 1 2
4000 1 2.11398 4.94053 0.02 0 0 0 1 2
4001 1 2.10778 5.14856 0.02 0 0 0 1 2
3998 1 1.92161 4.91452 0.02 0 0 0 1 2
3999 1 1.92227 5.12546 0.02 0 0 0 1 2
4004 1 2.4761 4.89802 0.02 0 0 0 1 2
4005 1 2.46497 5.13092 0.02 0 0 0 1 2
4002 1 2.29915 4.95411 0.02 0 0 0 1 2
4006 1 2.63813 4.99884 0.02 0 0 0 1 2
4008 1 2.63451 5.21573 0.02 0 0 0 1 2
4009 1 2.81686 5.21515 0.02 0 0 0 1 2
4007 1 2.81147 4.96807 0.02 0 0 0 1 2
4047 1 1.63965 6.3475 0.02 0 6.34155e-06 -6.53173e-06 1 2
4010 1 2.98575 4.93068 0.02 0 0 0 1 2
4018 1 2.27432 5.39802 0.02 0 0 0 1 2
4019 1 2.27229 5.60227 0.02 0 0 0 1 2
4016 1 2.08985 5.35518 0.02 0 0 0 1 2
4017 1 2.08045 5.56236 0.02 0 0 0 1 2
4014 1 1.90141 5.34701 0.02 0 0 0 1 2
4015 1 1.88494 5.55932 0.02 0 0 0 1 2
4021 1 2.45747 5.61574 0.02 0 0 0 1 2
4020 1 2.45428 5.3707 0.02 0 0 0 1 2
4024 1 2.64302 5.63052 0.02 0 0 0 1 2
4022 1 2.6293 5.4263 0.02 0 0 0 1 2
4023 1 2.81578 5.44482 0.02 0 0 0 1 2
4044 1 1.61987 6.14269 0.02 0 1.05419e-08 -1.44876e-08 1 2
3980 1 1.64233 4.56926 0.02 0 0 0 1 2
4033 1 2.24783 5.80575 0.02 0 3.28828e-11 -1.39864e-10 1 2
4035 1 2.22218 6.01133 0.02 0 6.41825e-08 -1.61849e-07 1 2
4032 1 2.05572 5.7628 0.02 0 6.16574e-13 -1.02247e-11 1 2
4031 1 2.03716 5.96394 0.02 0 2.12761e-09 -1.57556e-08 1 2
4028 1 1.85861 5.7669 0.02 0 1.62438e-13 -2.7425e-12 1 2
4030 1 1.84719 5.97745 0.02 0 7.98139e-10 -9.57196e-09 1 2
4040 1 2.6079 6.02609 0.02 0 1.18546e-07 -3.64159e-07 1 2
4038 1 2.63868 5.83202 0.02 0 1.62284e-10 -4.64465e-10 1 2
4036 1 2.41246 6.03374 0.02 0 1.51212e-07 -4.14919e-07 1 2
4034 1 2.44009 5.83143 0.02 0 1.48659e-10 -4.16697e-10 1 2
3882 1 1.68971 1.89352 0.02 0 0 0 1 2
3931 1 1.68036 3.30937 0.02 0 0 0 1 2
4037 1 2.83223 5.65885 0.02 0 0 0 1 2
4039 1 2.84372 5.85364 0.02 0 4.86978e-10 -1.2235e-09 1 2
4041 1 2.81105 6.038 0.02 0 1.74501e-07 -5.12086e-07 1 2
4052 1 2.23143 6.39542 0.02 0 0.000112191 -0.00016178 1 2
4050 1 2.19909 6.20704 0.02 0 8.45227e-06 -1.63044e-05 1 2
4049 1 2.02895 6.36713 0.02 0 3.94125e-05 -8.43216e-05 1 2
4046 1 2.00153 6.16667 0.02 0 1.29031e-06 -2.79855e-06 1 2
4048 1 1.83257 6.38201 0.02 0 1.32088e-05 -4.34467e-05 1 2
4045 1 1.80845 6.18323 0.02 0 1.09111e-07 -2.04808e-07 1 2
4054 1 2.62097 6.21556 0.02 0 1.07699e-05 -2.18079e-05 1 2
4053 1 2.43881 6.40823 0.02 0 0.000144486 -0.000191642 1 2
4051 1 2.40829 6.22574 0.02 0 1.33653e-05 -2.47895e-05 1 2
4056 1 2.65164 6.39628 0.02 0 0.000125972 -0.000160841 1 2
3883 1 1.72057 2.10896 0.02 0 0 0 1 2
3866 1 1.71242 1.68879 0.02 0 0 0 1 2
4057 1 2.86401 6.39197 0.02 0 0.000107373 -0.000165485 1 2
4055 1 2.84131 6.21544 0.02 0 1.13065e-05 -2.11998e-05 1 2
4068 1 2.23266 6.57318 0.02 0 0.000140287 -0.000533227 1 2
4067 1 2.2136 6.75198 0.02 0 -0.00313884 0.000511316 1 2
4065 1 2.01629 6.55738 0.02 0 7.06261e-05 -0.000309169 1 2
4062 1 2.01672 6.74289 0.02 0 -0.00337214 0.000522039 1 2
4063 1 1.81095 6.75598 0.02 0 -0.00255998 0.000677626 1 2
4064 1 1.81438 6.5706 0.02 0 -3.62723e-05 -8.08072e-05 1 2
4069 1 2.46256 6.58197 0.02 0 0.000102738 -0.000658087 1 2
4066 1 2.41424 6.75189 0.02 0 -0.00283836 0.000666828 1 2
4071 1 2.62925 6.7635 0.02 0 -0.00312243 0.000580266 1 2
4072 1 2.66725 6.5775 0.02 0 5.73043e-05 -0.00049837 1 2
4073 1 2.87453 6.56733 0.02 0 4.06559e-05 -0.000547422 1 2
4070 1 2.8332 6.74129 0.02 0 -0.00209632 0.000465525 1 2
3865 1 1.71451 1.48144 0.02 0 0 0 1 2
9 2 2 7 0 0 0 0 1.00127 5
10 2 2.2 7 0 0 0 0 0.999975 5
11 2 2.4 7 0 0 0 0 0.999878 5
43 2 2 7.2 0 0 0 0 1.00082 5
44 2 2.2 7.2 0 0 0 0 1.00022 5
45 2 2.4 7.2 0 0 0 0 1.00029 5
47 2 2.8 7.2 0 0 0 0 0.998244 5
13 2 2.8 7 0 0 0 0 0.998919 5
46 2 2.6 7.2 0 0 0 0 0.999881 5
12 2 2.6 7 0 0 0 0 0.999835 5
77 2 2 7.4 0 0 0 0 1.00001 5
145 2 2 7.8 0 0 0 0 1 5
146 2 2.2 7.8 0 0 0 0 1 5
79 2 2.4 7.4 0 0 0 0 1.00072 5
113 2 2.4 7.6 0 0 0 0 1 5
112 2 2.2 7.6 0 0 0 0 1 5
111 2 2 7.6 0 0 0 0 1 5
147 2 2.4 7.8 0 0 0 0 1 5
78 2 2.2 7.4 0 0 0 0 1.00085 5
115 2 2.8 7.6 0 0 0 0 1 5
81 2 2.8 7.4 0 0 0 0 0.9955 5
114 2 2.6 7.6 0 0 0 0 1 5
148 2 2.6 7.8 0 0 0 0 1 5
149 2 2.8 7.8 0 0 0 0 1 5
80 2 2.6 7.4 0 0 0 0 1.00165 5
215 2 2.4 8.2 0 0 0 0 1 5
214 2 2.2 8.2 0 0 0 0 1 5
213 2 2 8.2 0 0 0 0 1 5
181 2 2.4 8 0 0 0 0 1 5
180 2 2.2 8 0 0 0 0 1 5
179 2 2 8 0 0 0 0 1 5
217 2 2.8 8.2 0 0 0 0 1 5
216 2 2.6 8.2 0 0 0 0 1 5
183 2 2.8 8 0 0 0 0 1 5
182 2 2.6 8 0 0 0 0 1 5
282 2 2.2 8.6 0 0 0 0 1 5
283 2 2.4 8.6 0 0 0 0 1 5
247 2 2 8.4 0 0 0 0 1 5
248 2 2.2 8.4 0 0 0 0 1 5
249 2 2.4 8.4 0 0 0 0 1 5
281 2 2 8.6 0 0 0 0 1 5
250 2 2.6 8.4 0 0 0 0 1 5
251 2 2.8 8.4 0 0 0 0 1 5
284 2 2.6 8.6 0 0 0 0 1 5
285 2 2.8 8.6 0 0 0 0 1 5
351 2 2.4 9 0 0 0 0 1 5
350 2 2.2 9 0 0 0 0 1 5
349 2 2 9 0 0 0 0 1 5
317 2 2.4 8.8 0 0 0 0 1 5
316 2 2.2 8.8 0 0 0 0 1 5
315 2 2 8.8 0 0 0 0 1 5
353 2 2.8 9 0 0 0 0 1 5
318 2 2.6 8.8 0 0 0 0 1 5
319 2 2.8 8.8 0 0 0 0 1 5
352 2 2.6 9 0 0 0 0 1 5
418 2 2.2 9.4 0 0 0 0 1 5
417 2 2 9.4 0 0 0 0 1 5
384 2 2.2 9.2 0 0 0 0 1 5
419 2 2.4 9.4 0 0 0 0 1 5
383 2 2 9.2 0 0 0 0 1 5
385 2 2.4 9.2 0 0 0 0 1 5
420 2 2.6 9.4 0 0 0 0 1 5
421 2 2.8 9.4 0 0 0 0 1 5
387 2 2.8 9.2 0 0 0 0 1 5
386 2 2.6 9.2 0 0 0 0 1 5
485 2 2 9.8 0 0 0 0 1 5
451 2 2 9.6 0 0 0 0 1 5
486 2 2.2 9.8 0 0 0 0 1 5
487 2 2.4 9.8 0 0 0 0 1 5
452 2 2.2 9.6 0 0 0 0 1 5
453 2 2.4 9.6 0 0 0 0 1 5
454 2 2.6 9.6 0 0 0 0 1 5
455 2 2.8 9.6 0 0 0 0 1 5
488 2 2.6 9.8 0 0 0 0 1 5
489 2 2.8 9.8 0 0 0 0 1 5
3851 1 1.77553 1.07228 0.02 0 0 0 1 2
3852 1 1.746 1.27862 0.02 0 0 0 1 2
3898 1 1.74686 2.52459 0.02 0 0 0 1 2
3913 1 1.77619 2.72732 0.02 0 0 0 1 2
3946 1 1.79784 3.7045 0.02 0 0 0 1 2
3944 1 1.74639 3.50414 0.02 0 0 0 1 2
3961 1 1.73437 4.11684 0.02 0 0 0 1 2
3962 1 1.79499 4.31184 0.02 0 0 0 1 2
3997 1 1.73355 4.96872 0.02 0 0 0 1 2
3996 1 1.73905 5.17829 0.02 0 0 0 1 2
3818 1 1.71961 0.0581515 0.02 0 0 0 1 2
3982 1 1.68179 4.76921 0.02 0 0 0 1 2
3819 1 1.72049 0.271338 0.02 0 0 0 1 2
3833 1 1.69394 0.476635 0.02 0 0 0 1 2
4013 1 1.6845 5.57366 0.02 0 0 0 1 2
3960 1 1.67925 3.92208 0.02 0 0 0 1 2
4012 1 1.70707 5.38007 0.02 0 0 0 1 2
3834 1 1.67307 0.679911 0.02 0 0 0 1 2
1583 2 3.2 -9.6 0 0 0 0 1 5
1582 2 3 -9.6 0 0 0 0 1 5
1549 2 3.2 -9.8 0 0 0 0 1 5
1548 2 3 -9.8 0 0 0 0 1 5
1515 2 3.2 -10 0 0 0 0 1 5
1514 2 3 -10 0 0 0 0 1 5
1584 2 3.4 -9.6 0 0 0 0 1 5
1550 2 3.4 -9.8 0 0 0 0 1 5
1516 2 3.4 -10 0 0 0 0 1 5
1586 2 3.8 -9.6 0 0 0 0 1 5
1585 2 3.6 -9.6 0 0 0 0 1 5
1552 2 3.8 -9.8 0 0 0 0 1 5
1551 2 3.6 -9.8 0 0 0 0 1 5
1518 2 3.8 -10 0 0 0 0 1 5
1517 2 3.6 -10 0 0 0 0 1 5
1588 2 4.2 -9.6 0 0 0 0 1 5
1587 2 4 -9.6 0 0 0 0 1 5
1554 2 4.2 -9.8 0 0 0 0 1 5
1553 2 4 -9.8 0 0 0 0 1 5
1520 2 4.2 -10 0 0 0 0 1 5
1519 2 4 -10 0 0 0 0 1 5
1616 2 3 -9.4 0 0 0 0 1 5
1617 2 3.2 -9.4 0 0 0 0 1 5
1651 2 3.2 -9.2 0 0 0 0 1 5
1650 2 3 -9.2 0 0 0 0 1 5
1652 2 3.4 -9.2 0 0 0 0 1 5
1618 2 3.4 -9.4 0 0 0 0 1 5
1653 2 3.6 -9.2 0 0 0 0 1 5
1654 2 3.8 -9.2 0 0 0 0 1 5
1620 2 3.8 -9.4 0 0 0 0 1 5
1619 2 3.6 -9.4 0 0 0 0 1 5
1622 2 4.2 -9.4 0 0 0 0 1 5
1655 2 4 -9.2 0 0 0 0 1 5
1656 2 4.2 -9.2 0 0 0 0 1 5
1621 2 4 -9.4 0 0 0 0 1 5
1719 2 3.2 -8.8 0 0 0 0 1 5
1718 2 3 -8.8 0 0 0 0 1 5
1685 2 3.2 -9 0 0 0 0 1 5
1684 2 3 -9 0 0 0 0 1 5
1686 2 3.4 -9 0 0 0 0 1 5
1720 2 3.4 -8.8 0 0 0 0 1 5
1687 2 3.6 -9 0 0 0 0 1 5
1688 2 3.8 -9 0 0 0 0 1 5
1721 2 3.6 -8.8 0 0 0 0 1 5
1722 2 3.8 -8.8 0 0 0 0 1 5
1689 2 4 -9 0 0 0 0 1 5
1690 2 4.2 -9 0 0 0 0 1 5
1723 2 4 -8.8 0 0 0 0 1 5
1724 2 4.2 -8.8 0 0 0 0 1 5
1752 2 3 -8.6 0 0 0 0 1 5
1753 2 3.2 -8.6 0 0 0 0 1 5
1786 2 3 -8.4 0 0 0 0 1 5
1787 2 3.2 -8.4 0 0 0 0 1 5
1754 2 3.4 -8.6 0 0 0 0 1 5
1788 2 3.4 -8.4 0 0 0 0 1 5
1755 2 3.6 -8.6 0 0 0 0 1 5
1756 2 3.8 -8.6 0 0 0 0 1 5
1789 2 3.6 -8.4 0 0 0 0 1 5
1790 2 3.8 -8.4 0 0 0 0 1 5
1757 2 4 -8.6 0 0 0 0 1 5
1758 2 4.2 -8.6 0 0 0 0 1 5
1791 2 4 -8.4 0 0 0 0 1 5
1792 2 4.2 -8.4 0 0 0 0 1 5
1820 2 3 -8.2 0 0 0 0 1 5
1821 2 3.2 -8.2 0 0 0 0 1 5
1854 2 3 -8 0 0 0 0 1 5
1855 2 3.2 -8 0 0 0 0 1 5
1822 2 3.4 -8.2 0 0 0 0 1 5
1856 2 3.4 -8 0 0 0 0 1 5
1823 2 3.6 -8.2 0 0 0 0 1 5
1824 2 3.8 -8.2 0 0 0 0 1 5
1857 2 3.6 -8 0 0 0 0 1 5
1858 2 3.8 -8 0 0 0 0 1 5
1825 2 4 -8.2 0 0 0 0 1 5
1826 2 4.2 -8.2 0 0 0 0 1 5
1859 2 4 -8 0 0 0 0 1 5
1860 2 4.2 -8 0 0 0 0 1 5
1888 2 3 -7.8 0 0 0 0 1 5
1889 2 3.2 -7.8 0 0 0 0 1 5
1922 2 3 -7.6 0 0 0 0 1 5
1923 2 3.2 -7.6 0 0 0 0 1 5
1956 2 3 -7.4 0 0 0 0 0.997192 5
1957 2 3.2 -7.4 0 0 0 0 0.988525 5
1890 2 3.4 -7.8 0 0 0 0 1 5
1924 2 3.4 -7.6 0 0 0 0 1 5
1958 2 3.4 -7.4 0 0 0 0 1 5
1891 2 3.6 -7.8 0 0 0 0 1 5
1892 2 3.8 -7.8 0 0 0 0 1 5
1925 2 3.6 -7.6 0 0 0 0 1 5
1926 2 3.8 -7.6 0 0 0 0 1 5
1959 2 3.6 -7.4 0 0 0 0 1.00656 5
1960 2 3.8 -7.4 0 0 0 0 0.999629 5
1893 2 4 -7.8 0 0 0 0 1 5
1894 2 4.2 -7.8 0 0 0 0 1 5
1927 2 4 -7.6 0 0 0 0 1 5
1928 2 4.2 -7.6 0 0 0 0 1 5
1961 2 4 -7.4 0 0 0 0 0.997927 5
1962 2 4.2 -7.4 0 0 0 0 1.00206 5
1990 2 3 -7.2 0 0 0 0 0.994918 5
1991 2 3.2 -7.2 0 0 0 0 0.988005 5
2024 2 3 -7 0 0 0 0 0.995076 5
2025 2 3.2 -7 0 0 0 0 0.988003 5
1992 2 3.4 -7.2 0 0 0 0 1.00716 5
2026 2 3.4 -7 0 0 0 0 1.00218 5
1993 2 3.6 -7.2 0 0 0 0 1.00697 5
1994 2 3.8 -7.2 0 0 0 0 1.00218 5
2027 2 3.6 -7 0 0 0 0 1.00663 5
2028 2 3.8 -7 0 0 0 0 1.00309 5
1995 2 4 -7.2 0 0 0 0 1.00055 5
1996 2 4.2 -7.2 0 0 0 0 0.99959 5
2029 2 4 -7 0 0 0 0 1.00151 5
2030 2 4.2 -7 0 0 0 0 0.999361 5
3624 1 3.62318 -6.58073 0.02 0 -0.00224144 -0.00051203 1 2
3626 1 3.96492 -6.75274 0.0158731 0 -0.00207571 -0.000327495 1 2
3628 1 4.02572 -6.56746 0.0188351 0 3.45729e-05 0.000362075 1 2
3625 1 3.83093 -6.58688 0.0193719 0 -0.000145917 9.70571e-05 1 2
3623 1 3.78474 -6.76992 0.0151762 0 -0.00169779 -4.30575e-05 1 2
3629 1 4.21611 -6.55685 0.0190845 0 -0.00018812 0.000513612 1 2
3627 1 4.13557 -6.73947 0.0163674 0 -0.00283929 -0.000636794 1 2
3738 1 4.40267 -6.55697 0.0189524 0 0.000917972 0.00124456 1 2
3736 1 4.27411 -6.74787 0.0159624 0 -0.00304525 -0.000522262 1 2
3570 1 3.70247 -0.16898 0.02 0 -1.68324e-18 -1.82101e-19 1 2
3737 1 4.42132 -6.7403 0.0163307 0 -0.00117545 -2.85119e-05 1 2
3691 1 4.36156 -0.709913 0.02 0 -1.13544e-17 1.20661e-18 1 2
3630 1 3.6587 -6.40681 0.02 0 0.000258791 0.00014685 1 2
3631 1 3.68518 -6.22242 0.02 0 3.98687e-05 4.05211e-05 1 2
3635 1 4.10446 -6.19565 0.0199289 0 -2.78741e-05 3.51565e-05 1 2
3634 1 4.06349 -6.37967 0.0196611 0 3.97076e-05 0.00017784 1 2
3633 1 3.89283 -6.21248 0.0199331 0 1.70309e-05 5.19806e-05 1 2
3632 1 3.86275 -6.40373 0.0198121 0 0.000265414 0.000286268 1 2
3573 1 4.17335 -0.71216 0.02 0 6.87965e-18 1.03885e-18 1 2
3834 1 3.05915 -0.848233 0.02 0 0 0 1 2
3747 1 4.32208 -6.19087 0.0198215 0 -9.44608e-08 3.68659e-05 1 2
3748 1 4.26707 -6.37223 0.0193006 0 0.000231885 0.000237355 1 2
3709 1 4.28286 -1.57733 0.02 0 -8.64986e-18 6.32561e-19 1 2
3636 1 3.72058 -6.03472 0.0199981 0 9.75365e-07 3.30628e-06 1 2
3637 1 3.75647 -5.84117 0.0199998 0 -1.97023e-07 4.9583e-07 1 2
3640 1 4.1364 -6.01437 0.0199989 0 -1.47518e-05 3.31067e-06 1 2
3641 1 4.14533 -5.82674 0.02 0 -1.64702e-06 8.75021e-07 1 2
3638 1 3.92641 -6.01924 0.0199862 0 -3.34909e-06 3.03671e-06 1 2
3639 1 3.95119 -5.81749 0.0199989 0 -8.75134e-07 3.68768e-07 1 2
3578 1 3.62416 -0.77638 0.02 0 -1.68929e-18 4.33575e-20 1 2
3574 1 3.9531 -0.490861 0.02 0 -1.22492e-19 -3.62677e-20 1 2
3754 1 4.34808 -6.00636 0.0199922 0 -1.30024e-05 2.24659e-06 1 2
3755 1 4.34067 -5.81326 0.02 0 1.89233e-07 2.14785e-06 1 2
3707 1 4.276 -1.35274 0.02 0 4.16501e-18 -5.67564e-19 1 2
3643 1 3.74916 -5.43396 0.02 0 -4.34229e-09 -1.31638e-09 1 2
3642 1 3.75449 -5.6389 0.02 0 -8.15844e-08 2.22842e-08 1 2
3647 1 4.15635 -5.63481 0.02 0 8.60668e-08 3.30065e-07 1 2
3649 1 4.17913 -5.25215 0.02 0 3.59818e-09 5.8917e-09 1 2
3648 1 4.14697 -5.4444 0.02 0 3.49501e-08 4.90935e-08 1 2
3650 1 3.98449 -5.21823 0.02 0 1.26465e-09 3.06674e-09 1 2