ITEM: TIMESTEP
32000
ITEM: NUMBER OF ATOMS
1372
ITEM: BOX BOUNDS ff ff pp
0.0000000000000000e+00 4.4000000000000004e+00
-1.0000000000000000e+01 1.0000000000000000e+01
-2.0000000000000000e-02 2.0000000000000000e-02
ITEM: ATOMS id type x y vx vy fx fy c_den c_phase
3624 1 0.823175 -6.58073 0.02 0 0 0 1 2
3623 1 1.01134 -6.76992 0.02 0 0 0 1 2
3625 1 1.03438 -6.58688 0.02 0 0 0 1 2
3626 1 1.23028 -6.75274 0.02 0 -9.10195e-11 -3.05528e-11 1 2
3628 1 1.23801 -6.56746 0.02 0 -2.12418e-14 -7.11476e-15 1 2
3627 1 1.4396 -6.73947 0.02 0 -2.65133e-06 -1.35255e-06 1 2
3629 1 1.43634 -6.55685 0.02 0 -1.17984e-09 -5.35588e-10 1 2
3582 1 1.04638 -1.00188 0.02 0 0 0 1 2
3583 1 1.25859 -1.17441 0.02 0 0 0 1 2
3573 1 1.37335 -0.71216 0.02 0 0 0 1 2
3595 1 1.35644 -2.0475 0.02 0 0 0 1 2
3630 1 0.858697 -6.40681 0.02 0 0 0 1 2
3631 1 0.885179 -6.22242 0.02 0 0 0 1 2
3632 1 1.06334 -6.40373 0.02 0 0 0 1 2
3633 1 1.09303 -6.21248 0.02 0 0 0 1 2
3634 1 1.2666 -6.37967 0.02 0 0 0 1 2
3635 1 1.30528 -6.19565 0.02 0 0 0 1 2
3584 1 1.07132 -1.20827 0.02 0 0 0 1 2
3593 1 1.33343 -1.82247 0.02 0 0 0 1 2
3598 1 0.964211 -1.79996 0.02 0 0 0 1 2
3748 1 1.47236 -6.37223 0.02 0 2.42389e-09 2.87008e-08 1 2
3636 1 0.920587 -6.03472 0.02 0 0 0 1 2
3637 1 0.956467 -5.84117 0.02 0 0 0 1 2
3638 1 1.12647 -6.01924 0.02 0 0 0 1 2
3639 1 1.1512 -5.81749 0.02 0 0 0 1 2
3640 1 1.33657 -6.01437 0.02 0 0 0 1 2
3641 1 1.34536 -5.82674 0.02 0 0 0 1 2
3597 1 1.00234 -2.01454 0.02 0 0 0 1 2
3577 1 1.01834 -0.796888 0.02 0 0 0 1 2
3596 1 1.18184 -2.05646 0.02 0 0 0 1 2
3594 1 1.15189 -1.8337 0.02 0 0 0 1 2
3642 1 0.954492 -5.6389 0.02 0 0 0 1 2
3643 1 0.949157 -5.43396 0.02 0 0 0 1 2
3644 1 0.988202 -5.23189 0.02 0 0 0 1 2
3645 1 1.15174 -5.61599 0.02 0 0 0 1 2
3646 1 1.14715 -5.4168 0.02 0 0 0 1 2
3650 1 1.18449 -5.21823 0.02 0 0 0 1 2
3647 1 1.35636 -5.63481 0.02 0 0 0 1 2
3648 1 1.34697 -5.4444 0.02 0 0 0 1 2
3649 1 1.37913 -5.25215 0.02 0 0 0 1 2
3572 1 1.33597 -0.497279 0.02 0 0 0 1 2
3574 1 1.1531 -0.490861 0.02 0 0 0 1 2
3599 1 0.835221 -2.08011 0.02 0 0 0 1 2
3568 1 1.27908 -0.0736053 0.02 0 0 0 1 2
3588 1 1.09372 -1.41162 0.02 0 0 0 1 2
3651 1 0.964017 -5.03379 0.02 0 0 0 1 2
3652 1 0.965141 -4.83933 0.02 0 0 0 1 2
3653 1 1.17511 -5.0226 0.02 0 0 0 1 2
3654 1 1.16887 -4.82892 0.02 0 0 0 1 2
3655 1 1.38282 -5.05423 0.02 0 0 0 1 2
3656 1 1.37177 -4.85734 0.02 0 0 0 1 2
3575 1 1.19061 -0.721559 0.02 0 0 0 1 2
3681 1 1.47917 -0.0862266 0.02 0 0 0 1 2
3576 1 0.989962 -0.587345 0.02 0 0 0 1 2
3590 1 1.12298 -1.62077 0.02 0 0 0 1 2
3591 1 0.89282 -1.38585 0.02 0 0 0 1 2
3657 1 0.962234 -4.64125 0.02 0 0 0 1 2
3658 1 0.972442 -4.44228 0.02 0 0 0 1 2
3659 1 1.16836 -4.63613 0.02 0 0 0 1 2
3660 1 1.17966 -4.44357 0.02 0 0 0 1 2
3661 1 1.37824 -4.65796 0.02 0 0 0 1 2
3662 1 1.38079 -4.45934 0.02 0 0 0 1 2
3578 1 0.824163 -0.77638 0.02 0 0 0 1 2
3592 1 0.933627 -1.58822 0.02 0 0 0 1 2
3589 1 1.30586 -1.60129 0.02 0 0 0 1 2
3586 1 0.877603 -1.18097 0.02 0 0 0 1 2
3663 1 0.951722 -4.23847 0.02 0 0 0 1 2
3664 1 0.954181 -4.02919 0.02 0 0 0 1 2
3665 1 1.14885 -4.24977 0.02 0 0 0 1 2
3666 1 1.14924 -4.05169 0.02 0 0 0 1 2
3667 1 1.35078 -4.25389 0.02 0 0 0 1 2
3668 1 1.34164 -4.0439 0.02 0 0 0 1 2
3580 1 1.40905 -0.924705 0.02 0 0 0 1 2
3601 1 1.39009 -2.28323 0.02 0 0 0 1 2
3579 1 1.44391 -1.13847 0.02 0 0 0 1 2
3570 1 0.902474 -0.16898 0.02 0 0 0 1 2
3669 1 0.946094 -3.81677 0.02 0 0 0 1 2
3670 1 0.950076 -3.5978 0.02 0 0 0 1 2
3671 1 1.13759 -3.85087 0.02 0 0 0 1 2
3672 1 1.13569 -3.64617 0.02 0 0 0 1 2
3673 1 1.32959 -3.82931 0.02 0 0 0 1 2
3674 1 1.32357 -3.61592 0.02 0 0 0 1 2
3600 1 1.43048 -2.54769 0.02 0 0 0 1 2
3571 1 0.953915 -0.372384 0.02 0 0 0 1 2
3581 1 1.22739 -0.952754 0.02 0 0 0 1 2
3607 1 0.913193 -2.51928 0.02 0 0 0 1 2
3617 1 1.28217 -3.1875 0.02 0 0 0 1 2
3619 1 1.10279 -3.21574 0.02 0 0 0 1 2
3620 1 1.11674 -3.43454 0.02 0 0 0 1 2
3621 1 0.929621 -3.14391 0.02 0 0 0 1 2
3622 1 0.933618 -3.3728 0.02 0 0 0 1 2
3618 1 1.30312 -3.40386 0.02 0 0 0 1 2
3616 1 1.46594 -3.17336 0.02 0 0 0 1 2
3585 1 0.849697 -0.97904 0.02 0 0 0 1 2
3707 1 1.476 -1.35274 0.02 0 0 0 1 2
3808 1 1.49087 -3.38537 0.02 0 0 0 1 2
3569 1 1.13023 -0.279188 0.02 0 0 0 1 2
3610 1 1.25248 -2.74263 0.02 0 0 0 1 2
3611 1 1.27491 -2.96695 0.02 0 0 0 1 2
3612 1 1.07648 -2.72777 0.02 0 0 0 1 2
3613 1 1.09699 -2.97591 0.02 0 0 0 1 2
3614 1 0.894062 -2.72388 0.02 0 0 0 1 2
3615 1 0.919729 -2.92742 0.02 0 0 0 1 2
3608 1 1.43678 -2.76044 0.02 0 0 0 1 2
3609 1 1.45987 -2.9649 0.02 0 0 0 1 2
3587 1 1.28807 -1.38626 0.02 0 0 0 1 2
3709 1 1.48286 -1.57733 0.02 0 0 0 1 2
3567 1 1.07969 -0.0803597 0.02 0 0 0 1 2
3566 1 1.32455 -0.279581 0.02 0 0 0 1 2
3602 1 1.21757 -2.29317 0.02 0 0 0 1 2
3603 1 1.25825 -2.51656 0.02 0 0 0 1 2
3604 1 1.0436 -2.23608 0.02 0 0 0 1 2
3605 1 1.08516 -2.47537 0.02 0 0 0 1 2
3606 1 0.875024 -2.30563 0.02 0 0 0 1 2
3566 1 0.851315 0.248542 0.02 0 0 0 1 2
3567 1 0.857354 0.0361407 0.02 0 0 0 1 2
3568 1 1.04388 0.117407 0.02 0 0 0 1 2
3569 1 1.04061 0.319237 0.02 0 0 0 1 2
3570 1 1.24568 0.124572 0.02 0 0 0 1 2
3571 1 1.24655 0.317902 0.02 0 0 0 1 2
3572 1 1.44994 0.11313 0.02 0 0 0 1 2
3573 1 1.45822 0.304659 0.02 0 0 0 1 2
3650 1 0.958948 5.35448 0.02 0 0 0 1 2
3674 1 1.02226 6.74797 0.02 0 0 0 1 2
3574 1 0.840728 0.462919 0.02 0 0 0 1 2
3575 1 0.828514 0.669742 0.02 0 0 0 1 2
3576 1 0.82836 0.863721 0.02 0 0 0 1 2
3577 1 1.02824 0.518918 0.02 0 0 0 1 2
3578 1 1.04028 0.70789 0.02 0 0 0 1 2
3579 1 1.22645 0.510413 0.02 0 0 0 1 2
3580 1 1.26696 0.693252 0.02 0 0 0 1 2
3581 1 1.43079 0.494776 0.02 0 0 0 1 2
3658 1 1.01257 5.77292 0.02 0 0 0 1 2
3661 1 1.38487 5.74641 0.02 0 0 0 1 2
3679 1 1.22892 6.58075 0.02 0 -3.95448e-13 1.49246e-13 1 2
3691 1 1.49402 0.847608 0.02 0 0 0 1 2
3672 1 0.820565 6.75255 0.02 0 0 0 1 2
3582 1 0.821672 1.054 0.02 0 0 0 1 2
3583 1 0.974487 1.24917 0.02 0 0 0 1 2
3584 1 1.27121 0.873854 0.02 0 0 0 1 2
3585 1 1.04925 0.88935 0.02 0 0 0 1 2
3586 1 1.03633 1.07154 0.02 0 0 0 1 2
3587 1 1.19975 1.2351 0.02 0 0 0 1 2
3588 1 1.25688 1.05708 0.02 0 0 0 1 2
3589 1 1.43437 1.21251 0.02 0 0 0 1 2
3697 1 1.47398 1.03141 0.02 0 0 0 1 2
3659 1 1.01932 5.98183 0.02 0 0 0 1 2
3660 1 1.20007 5.78227 0.02 0 0 0 1 2
3590 1 0.992554 1.43261 0.02 0 0 0 1 2
3591 1 0.989139 1.61539 0.02 0 0 0 1 2
3592 1 1.20467 1.41749 0.02 0 0 0 1 2
3593 1 1.2291 1.59427 0.02 0 0 0 1 2
3594 1 1.41143 1.39351 0.02 0 0 0 1 2
3665 1 0.860563 6.37046 0.02 0 0 0 1 2
3707 1 1.48366 1.55601 0.02 0 0 0 1 2
3647 1 1.35061 4.94967 0.02 0 0 0 1 2
3673 1 0.8386 6.56326 0.02 0 0 0 1 2
3677 1 1.22938 6.7702 0.02 0 -2.98437e-10 1.39067e-10 1 2
3595 1 0.839148 1.795 0.02 0 0 0 1 2
3596 1 0.882245 2.08906 0.02 0 0 0 1 2
3597 1 1.01056 1.94073 0.02 0 0 0 1 2
3598 1 1.08732 1.77422 0.02 0 0 0 1 2
3599 1 1.11929 2.10225 0.02 0 0 0 1 2
3601 1 1.26885 1.93421 0.02 0 0 0 1 2
3600 1 1.31304 1.75512 0.02 0 0 0 1 2
3602 1 1.32948 2.11399 0.02 0 0 0 1 2
3648 1 1.15469 5.14967 0.02 0 0 0 1 2
3646 1 1.14864 4.94668 0.02 0 0 0 1 2
3675 1 1.03066 6.56344 0.02 0 0 0 1 2
3662 1 1.21102 5.99069 0.02 0 0 0 1 2
3603 1 0.835466 2.4591 0.02 0 0 0 1 2
3604 1 0.863918 2.27317 0.02 0 0 0 1 2
3605 1 1.06987 2.28594 0.02 0 0 0 1 2
3606 1 1.05603 2.47229 0.02 0 0 0 1 2
3607 1 1.28602 2.29933 0.02 0 0 0 1 2
3608 1 1.27089 2.48497 0.02 0 0 0 1 2
3645 1 0.961436 5.14618 0.02 0 0 0 1 2
3724 1 1.48299 2.46478 0.02 0 0 0 1 2
3669 1 1.42 6.16008 0.02 0 0 0 1 2
3656 1 0.824131 5.75729 0.02 0 0 0 1 2
3663 1 1.39971 5.95318 0.02 0 0 0 1 2
3609 1 0.870733 2.64545 0.02 0 0 0 1 2
3610 1 0.931833 2.82219 0.02 0 0 0 1 2
3611 1 0.921218 3.00191 0.02 0 0 0 1 2
3612 1 1.09047 2.65627 0.02 0 0 0 1 2
3613 1 1.16059 2.82932 0.02 0 0 0 1 2
3614 1 1.16026 3.00882 0.02 0 0 0 1 2
3615 1 1.32304 2.66182 0.02 0 0 0 1 2
3616 1 1.38312 2.8347 0.02 0 0 0 1 2
3617 1 1.40459 3.0143 0.02 0 0 0 1 2
3644 1 0.950531 4.93808 0.02 0 0 0 1 2
3651 1 0.970468 5.56371 0.02 0 0 0 1 2
3652 1 1.15081 5.3574 0.02 0 0 0 1 2
3676 1 1.42998 6.74883 0.02 0 -2.41695e-06 1.19689e-06 1 2
3678 1 1.43091 6.5602 0.02 0 -1.09105e-09 -5.09846e-09 1 2
3618 1 0.837413 3.36529 0.02 0 0 0 1 2
3619 1 1.00476 3.16672 0.02 0 0 0 1 2
3620 1 1.24568 3.17288 0.02 0 0 0 1 2
3621 1 1.05586 3.34295 0.02 0 0 0 1 2
3622 1 1.27801 3.35522 0.02 0 0 0 1 2
3742 1 1.47239 3.18752 0.02 0 0 0 1 2
3657 1 0.82786 5.96719 0.02 0 0 0 1 2
3649 1 1.34919 5.15223 0.02 0 0 0 1 2
3671 1 1.44502 6.36456 0.02 0 3.149e-10 -8.74027e-09 1 2
3623 1 0.899272 3.54263 0.02 0 0 0 1 2
3624 1 0.926591 3.73126 0.02 0 0 0 1 2
3625 1 1.12031 3.52106 0.02 0 0 0 1 2
3626 1 1.12643 3.71117 0.02 0 0 0 1 2
3628 1 1.15045 3.90922 0.02 0 0 0 1 2
3627 1 1.32906 3.71823 0.02 0 0 0 1 2
3629 1 1.35098 3.53048 0.02 0 0 0 1 2
3654 1 1.15989 5.56899 0.02 0 0 0 1 2
3664 1 0.84272 6.17155 0.02 0 0 0 1 2
3653 1 1.34571 5.35231 0.02 0 0 0 1 2
3670 1 1.25561 6.39175 0.02 0 0 0 1 2
3655 1 1.35077 5.54934 0.02 0 0 0 1 2
3630 1 0.944928 3.92393 0.02 0 0 0 1 2
3631 1 0.966362 4.11878 0.02 0 0 0 1 2
3632 1 0.963714 4.32089 0.02 0 0 0 1 2
3634 1 1.1582 4.11408 0.02 0 0 0 1 2
3636 1 1.15768 4.32413 0.02 0 0 0 1 2
3633 1 1.34984 3.91581 0.02 0 0 0 1 2
3635 1 1.34755 4.12341 0.02 0 0 0 1 2
3637 1 1.34988 4.33224 0.02 0 0 0 1 2
3666 1 1.03606 6.18478 0.02 0 0 0 1 2
3668 1 1.23151 6.19205 0.02 0 0 0 1 2
3667 1 1.06137 6.37889 0.02 0 0 0 1 2
3643 1 1.36277 4.74783 0.02 0 0 0 1 2
3638 1 0.960476 4.52537 0.02 0 0 0 1 2
3639 1 0.975633 4.7331 0.02 0 0 0 1 2
3640 1 1.15031 4.53451 0.02 0 0 0 1 2
3642 1 1.16853 4.74438 0.02 0 0 0 1 2
3641 1 1.33933 4.5421 0.02 0 0 0 1 2
1509 2 2 -10 0 0 0 0 1 5
1510 2 2.2 -10 0 0 0 0 1 5
1511 2 2.4 -10 0 0 0 0 1 5
1543 2 2 -9.8 0 0 0 0 1 5
1544 2 2.2 -9.8 0 0 0 0 1 5
1545 2 2.4 -9.8 0 0 0 0 1 5
1577 2 2 -9.6 0 0 0 0 1 5
1578 2 2.2 -9.6 0 0 0 0 1 5
1579 2 2.4 -9.6 0 0 0 0 1 5
1512 2 2.6 -10 0 0 0 0 1 5
1513 2 2.8 -10 0 0 0 0 1 5
1546 2 2.6 -9.8 0 0 0 0 1 5
1547 2 2.8 -9.8 0 0 0 0 1 5
1580 2 2.6 -9.6 0 0 0 0 1 5
1581 2 2.8 -9.6 0 0 0 0 1 5
1645 2 2 -9.2 0 0 0 0 1 5
1646 2 2.2 -9.2 0 0 0 0 1 5
1647 2 2.4 -9.2 0 0 0 0 1 5
1613 2 2.4 -9.4 0 0 0 0 1 5
1612 2 2.2 -9.4 0 0 0 0 1 5
1611 2 2 -9.4 0 0 0 0 1 5
1648 2 2.6 -9.2 0 0 0 0 1 5
1649 2 2.8 -9.2 0 0 0 0 1 5
1615 2 2.8 -9.4 0 0 0 0 1 5
1614 2 2.6 -9.4 0 0 0 0 1 5
1679 2 2 -9 0 0 0 0 1 5
1680 2 2.2 -9 0 0 0 0 1 5
1681 2 2.4 -9 0 0 0 0 1 5
1713 2 2 -8.8 0 0 0 0 1 5
1714 2 2.2 -8.8 0 0 0 0 1 5
1715 2 2.4 -8.8 0 0 0 0 1 5
1682 2 2.6 -9 0 0 0 0 1 5
1683 2 2.8 -9 0 0 0 0 1 5
1716 2 2.6 -8.8 0 0 0 0 1 5
1717 2 2.8 -8.8 0 0 0 0 1 5
1783 2 2.4 -8.4 0 0 0 0 1 5
1782 2 2.2 -8.4 0 0 0 0 1 5
1781 2 2 -8.4 0 0 0 0 1 5
1747 2 2 -8.6 0 0 0 0 1 5
1748 2 2.2 -8.6 0 0 0 0 1 5
1749 2 2.4 -8.6 0 0 0 0 1 5
1785 2 2.8 -8.4 0 0 0 0 1 5
1784 2 2.6 -8.4 0 0 0 0 1 5
1750 2 2.6 -8.6 0 0 0 0 1 5
1751 2 2.8 -8.6 0 0 0 0 1 5
1851 2 2.4 -8 0 0 0 0 1 5
1850 2 2.2 -8 0 0 0 0 1 5
1849 2 2 -8 0 0 0 0 1 5
1817 2 2.4 -8.2 0 0 0 0 1 5
1816 2 2.2 -8.2 0 0 0 0 1 5
1815 2 2 -8.2 0 0 0 0 1 5
1853 2 2.8 -8 0 0 0 0 1 5
1852 2 2.6 -8 0 0 0 0 1 5
1819 2 2.8 -8.2 0 0 0 0 1 5
1818 2 2.6 -8.2 0 0 0 0 1 5
1953 2 2.4 -7.4 0 0 0 0 0.989275 5
1952 2 2.2 -7.4 0 0 0 0 1.00149 5
1951 2 2 -7.4 0 0 0 0 1.00146 5
1919 2 2.4 -7.6 0 0 0 0 1 5
1918 2 2.2 -7.6 0 0 0 0 1 5
1917 2 2 -7.6 0 0 0 0 1 5
1885 2 2.4 -7.8 0 0 0 0 1 5
1884 2 2.2 -7.8 0 0 0 0 1 5
1883 2 2 -7.8 0 0 0 0 1 5
1955 2 2.8 -7.4 0 0 0 0 1.00224 5
1954 2 2.6 -7.4 0 0 0 0 1.01345 5
1921 2 2.8 -7.6 0 0 0 0 1 5
1920 2 2.6 -7.6 0 0 0 0 1 5
1887 2 2.8 -7.8 0 0 0 0 1 5
1886 2 2.6 -7.8 0 0 0 0 1 5
2021 2 2.4 -7 0 0 0 0 0.989817 5
2020 2 2.2 -7 0 0 0 0 0.996811 5
2019 2 2 -7 0 0 0 0 1.00131 5
1987 2 2.4 -7.2 0 0 0 0 0.988994 5
1986 2 2.2 -7.2 0 0 0 0 0.997616 5
1985 2 2 -7.2 0 0 0 0 1.00146 5
2023 2 2.8 -7 0 0 0 0 1.00503 5
2022 2 2.6 -7 0 0 0 0 1.00796 5
1989 2 2.8 -7.2 0 0 0 0 1.00439 5
1988 2 2.6 -7.2 0 0 0 0 1.01058 5
3743 1 2.25906 -6.56898 0.02 0 0.000457421 0.0010522 1 2
3741 1 2.22568 -6.75011 0.02 0 -0.00255713 -0.000655569 1 2
3742 1 2.05064 -6.56028 0.02 0 0.000165928 0.000537722 1 2
3740 1 2.02488 -6.74105 0.02 0 -0.00322187 -0.000723277 1 2
3716 1 1.68023 -1.79905 0.02 0 0 0 1 2
3727 1 1.5988 -2.50471 0.02 0 0 0 1 2
3423 1 2.83987 -6.74606 0.02 0 -0.00316255 -0.000126455 1 2
3426 1 2.83683 -6.55135 0.02 0 -0.0005304 -9.13046e-05 1 2
3696 1 1.8371 -1.15842 0.02 0 0 0 1 2
3697 1 1.79871 -0.953623 0.02 0 0 0 1 2
3750 1 2.08975 -6.37712 0.02 0 7.24817e-05 0.00017576 1 2
3751 1 2.13987 -6.18031 0.02 0 -2.19067e-06 1.74987e-05 1 2
3749 1 1.94465 -6.19169 0.02 0 1.72611e-06 6.47681e-06 1 2
3745 1 1.88363 -6.37473 0.02 0 1.75885e-05 7.56294e-05 1 2
3698 1 1.5993 -0.921676 0.02 0 0 0 1 2
3440 1 2.85072 -6.34641 0.02 0 3.45544e-05 2.00468e-05 1 2
3439 1 2.87339 -6.12486 0.02 0 2.65261e-06 2.68789e-06 1 2
3705 1 1.83381 -1.59513 0.02 0 0 0 1 2
3734 1 1.82465 -2.92908 0.02 0 0 0 1 2
3757 1 1.94717 -5.99602 0.02 0 1.32178e-08 6.69517e-08 1 2
3759 1 2.12484 -5.76887 0.02 0 -7.47579e-12 2.76888e-11 1 2
3758 1 2.13794 -5.97428 0.02 0 -1.03848e-08 9.14762e-08 1 2
3756 1 1.9306 -5.79598 0.02 0 2.41734e-12 3.70244e-11 1 2
3718 1 1.69964 -2.03153 0.02 0 0 0 1 2
3708 1 1.6584 -1.55919 0.02 0 0 0 1 2
3735 1 1.64416 -2.96546 0.02 0 0 0 1 2
3458 1 2.87153 -5.65275 0.02 0 8.13658e-19 1.27192e-18 1 2
3455 1 2.86521 -5.88435 0.02 0 1.36344e-10 1.43569e-10 1 2
3732 1 1.80394 -2.71578 0.02 0 0 0 1 2
3807 1 1.83321 -3.13949 0.02 0 0 0 1 2
3766 1 1.94998 -5.39389 0.02 0 0 0 1 2
3765 1 1.95594 -5.59471 0.02 0 0 0 1 2
3768 1 2.14346 -5.34795 0.02 0 0 0 1 2
3767 1 2.14524 -5.55776 0.02 0 0 0 1 2
3706 1 1.66424 -1.33809 0.02 0 0 0 1 2
3806 1 1.652 -3.19077 0.02 0 0 0 1 2
3471 1 2.86944 -5.43905 0.02 0 0 0 1 2
3473 1 2.89903 -5.23868 0.02 0 0 0 1 2
3733 1 1.62181 -2.7379 0.02 0 0 0 1 2
3778 1 1.8101 -4.60371 0.02 0 0 0 1 2
3775 1 1.97118 -4.9831 0.02 0 0 0 1 2
3774 1 1.95977 -5.19123 0.02 0 0 0 1 2
3777 1 2.16198 -4.92841 0.02 0 0 0 1 2
3776 1 2.14886 -5.1382 0.02 0 0 0 1 2
3726 1 1.77309 -2.49502 0.02 0 0 0 1 2
3804 1 1.68118 -3.40602 0.02 0 0 0 1 2
3489 1 2.92866 -4.84852 0.02 0 -1.02246e-26 1.55043e-26 1 2
3488 1 2.86499 -5.04164 0.02 0 0 0 1 2
3330 1 2.93451 -0.164303 0.02 0 -5.56993e-21 -8.28007e-22 1 2
3785 1 1.97453 -4.37613 0.02 0 0 0 1 2
3782 1 1.98024 -4.77674 0.02 0 0 0 1 2
3783 1 2.18755 -4.72603 0.02 0 0 0 1 2
3786 1 2.20491 -4.51845 0.02 0 0 0 1 2
3784 1 2.01328 -4.574 0.02 0 0 0 1 2
3724 1 1.73177 -2.25982 0.02 0 0 0 1 2
3781 1 1.58969 -4.60761 0.02 0 0 0 1 2
3503 1 2.94394 -4.65256 0.02 0 -1.7902e-23 -9.20192e-24 1 2
3797 1 1.71397 -3.83523 0.02 0 0 0 1 2
3793 1 1.96541 -4.17216 0.02 0 0 0 1 2
3792 1 1.91913 -3.97293 0.02 0 0 0 1 2
3794 1 2.15902 -4.12093 0.02 0 0 0 1 2
3791 1 2.17393 -4.31968 0.02 0 0 0 1 2
3795 1 2.11841 -3.92735 0.02 0 0 0 1 2
3519 1 2.95549 -4.03087 0.02 0 -2.55629e-20 -2.94614e-21 1 2
3780 1 1.57163 -4.40798 0.02 0 0 0 1 2
3790 1 1.72771 -4.03811 0.02 0 0 0 1 2
3789 1 1.76733 -4.2273 0.02 0 0 0 1 2
3803 1 2.06586 -3.52375 0.02 0 0 0 1 2
3802 1 2.0844 -3.73182 0.02 0 0 0 1 2
3799 1 1.87695 -3.55166 0.02 0 0 0 1 2
3801 1 1.89552 -3.76427 0.02 0 0 0 1 2
3534 1 2.88712 -3.61902 0.02 0 -3.8477e-21 2.41665e-22 1 2
3532 1 2.92671 -3.823 0.02 0 -1.69198e-20 -5.25826e-22 1 2
3779 1 1.77173 -4.41899 0.02 0 0 0 1 2
3798 1 1.69932 -3.62338 0.02 0 0 0 1 2
3770 1 1.77645 -4.98438 0.02 0 0 0 1 2
3813 1 2.20411 -3.05434 0.02 0 0 0 1 2
3812 1 2.02058 -3.10623 0.02 0 0 0 1 2
3811 1 2.24118 -3.25804 0.02 0 0 0 1 2
3810 1 2.05564 -3.31355 0.02 0 0 0 1 2
3809 1 2.25331 -3.46296 0.02 0 0 0 1 2
3805 1 1.86496 -3.34347 0.02 0 0 0 1 2
3550 1 2.81657 -3.22195 0.02 0 -2.5758e-22 3.73678e-23 1 2
3773 1 1.58019 -5.0103 0.02 0 0 0 1 2
3680 1 1.68218 -0.126323 0.02 0 0 0 1 2
3548 1 2.85396 -3.42201 0.02 0 -4.65071e-22 4.10187e-23 1 2
3739 1 1.83991 -6.5555 0.02 0 -2.42383e-05 0.000129849 1 2
3737 1 1.83089 -6.7403 0.02 0 -0.00225605 -0.000564446 1 2
3679 1 1.88207 -0.153058 0.02 0 0 0 1 2
3730 1 2.19137 -2.84534 0.02 0 0 0 1 2
3728 1 2.17212 -2.63629 0.02 0 0 0 1 2
3731 1 2.00716 -2.89028 0.02 0 0 0 1 2
3729 1 1.9869 -2.67692 0.02 0 0 0 1 2
3771 1 1.77043 -4.78992 0.02 0 0 0 1 2
3772 1 1.56855 -4.80652 0.02 0 0 0 1 2
3421 1 2.95816 -2.8055 0.02 0 -8.46685e-22 1.995e-22 1 2
3769 1 1.76613 -5.18566 0.02 0 0 0 1 2
3678 1 1.91878 -0.354053 0.02 0 0 0 1 2
3723 1 1.94843 -2.46631 0.02 0 0 0 1 2
3722 1 2.12627 -2.42565 0.02 0 0 0 1 2
3720 1 2.09501 -2.21565 0.02 0 0 0 1 2
3721 1 1.91146 -2.25267 0.02 0 0 0 1 2
3405 1 2.92592 -2.40127 0.02 0 -1.58397e-21 -6.64001e-23 1 2
3744 1 1.67787 -6.36827 0.02 0 1.03742e-06 9.38864e-06 1 2
3761 1 1.75126 -5.38986 0.02 0 0 0 1 2
3403 1 2.89606 -2.20505 0.02 0 -2.97029e-22 4.93137e-23 1 2
3406 1 2.93212 -2.60028 0.02 0 -6.91543e-22 -1.72595e-22 1 2
3675 1 2.25823 -0.0370844 0.02 0 0 0 1 2
3711 1 2.03588 -1.78915 0.02 0 0 0 1 2
3713 1 2.05666 -2.00435 0.02 0 0 0 1 2
3712 1 2.2394 -2.00514 0.02 0 0 0 1 2
3710 1 2.21933 -1.78273 0.02 0 0 0 1 2
3715 1 1.85673 -1.81653 0.02 0 0 0 1 2
3714 1 1.87796 -2.03651 0.02 0 0 0 1 2
3389 1 2.80084 -1.81365 0.02 0 -4.12278e-26 -1.62401e-26 1 2
3391 1 2.8203 -2.00946 0.02 0 -1.35947e-25 4.37709e-26 1 2
3676 1 2.08456 -0.171225 0.02 0 0 0 1 2
3343 1 2.95263 -0.692423 0.02 0 -2.25851e-22 3.44958e-23 1 2
3764 1 1.57407 -5.21784 0.02 0 0 0 1 2
3699 1 1.63772 -1.129 0.02 0 0 0 1 2
3703 1 2.01593 -1.57383 0.02 0 0 0 1 2
3701 1 2.0407 -1.36153 0.02 0 0 0 1 2
3702 1 2.20455 -1.56828 0.02 0 0 0 1 2
3700 1 2.23529 -1.36475 0.02 0 0 0 1 2
3704 1 1.85063 -1.37223 0.02 0 0 0 1 2
3736 1 1.63809 -6.74787 0.02 0 -0.00043816 -0.000157157 1 2
3376 1 2.84023 -1.43462 0.02 0 -1.17815e-23 -1.56941e-24 1 2
3760 1 1.76049 -5.5913 0.02 0 0 0 1 2
3738 1 1.6365 -6.55697 0.02 0 -4.3053e-06 -4.46504e-07 1 2
3677 1 2.12643 -0.363371 0.02 0 0 0 1 2
3694 1 2.22993 -1.15988 0.02 0 0 0 1 2
3693 1 1.99863 -0.951258 0.02 0 0 0 1 2
3692 1 2.19911 -0.955712 0.02 0 0 0 1 2
3695 1 2.03355 -1.15374 0.02 0 0 0 1 2
3359 1 2.8073 -1.05303 0.02 0 -3.53311e-24 6.2656e-25 1 2
3753 1 1.73565 -5.79328 0.02 0 0 0 1 2
3690 1 1.75693 -0.749101 0.02 0 0 0 1 2
3752 1 1.75047 -5.99117 0.02 0 4.8149e-10 2.32251e-09 1 2
3361 1 2.826 -1.2436 0.02 0 -2.95776e-24 1.94872e-25 1 2
3687 1 1.9027 -0.553847 0.02 0 0 0 1 2
3684 1 2.10381 -0.555943 0.02 0 0 0 1 2
3685 1 2.15809 -0.755384 0.02 0 0 0 1 2
3686 1 1.95661 -0.751709 0.02 0 0 0 1 2
3682 1 1.71719 -0.331528 0.02 0 0 0 1 2
3746 1 1.73921 -6.18388 0.02 0 9.50199e-08 4.15818e-07 1 2
3688 1 1.7098 -0.538252 0.02 0 0 0 1 2
3683 1 1.51941 -0.288944 0.02 0 0 0 1 2
3719 1 1.52814 -2.05314 0.02 0 0 0 1 2
3689 1 1.52178 -0.494397 0.02 0 0 0 1 2
3747 1 1.52365 -6.19087 0.02 0 1.74983e-10 1.13958e-09 1 2
3691 1 1.56156 -0.709913 0.02 0 0 0 1 2
3754 1 1.54843 -6.00636 0.02 0 0 0 1 2
3755 1 1.54073 -5.81326 0.02 0 0 0 1 2
3762 1 1.55207 -5.42149 0.02 0 0 0 1 2
3763 1 1.56181 -5.61669 0.02 0 0 0 1 2
3787 1 1.53049 -4.01124 0.02 0 0 0 1 2
3717 1 1.50807 -1.80931 0.02 0 0 0 1 2
3725 1 1.5601 -2.29092 0.02 0 0 0 1 2
3788 1 1.55069 -4.21227 0.02 0 0 0 1 2
3796 1 1.52031 -3.80562 0.02 0 0 0 1 2
3800 1 1.51119 -3.59621 0.02 0 0 0 1 2
3687 1 2.05797 0.027076 0.02 0 0 0 1 2
3686 1 2.10804 0.390141 0.02 0 0 0 1 2
3685 1 2.09694 0.209048 0.02 0 0 0 1 2
3682 1 1.87545 0.424518 0.02 0 0 0 1 2
3683 1 1.88392 0.239767 0.02 0 0 0 1 2
3684 1 1.85538 0.0483522 0.02 0 0 0 1 2
3795 1 1.76749 5.79873 0.02 0 0 0 1 2
3315 1 2.92022 0.204196 0.02 0 -2.04428e-20 7.71486e-22 1 2
3810 1 1.63402 6.555 0.02 0 -3.39172e-06 -1.3989e-05 1 2
3802 1 1.61328 6.17196 0.02 0 6.50504e-11 -2.0098e-10 1 2
3803 1 1.81211 6.18518 0.02 0 1.30697e-07 -3.12055e-07 1 2
3696 1 2.18754 0.741419 0.02 0 0 0 1 2
3694 1 2.13063 0.568264 0.02 0 0 0 1 2
3693 1 1.91995 0.602217 0.02 0 0 0 1 2
3695 1 1.96807 0.778231 0.02 0 0 0 1 2
3750 1 1.57746 3.54172 0.02 0 0 0 1 2
3736 1 1.63005 3.00089 0.02 0 0 0 1 2
3331 1 2.82485 0.789319 0.02 0 -2.88272e-21 9.09384e-24 1 2
3805 1 1.83962 6.37525 0.02 0 7.43331e-06 -3.10234e-05 1 2
3797 1 1.79715 5.99306 0.02 0 5.82555e-10 -1.96724e-09 1 2
3704 1 2.12472 1.27633 0.02 0 0 0 1 2
3703 1 2.09135 1.09719 0.02 0 0 0 1 2
3702 1 2.15837 0.923653 0.02 0 0 0 1 2
3700 1 1.91062 0.949962 0.02 0 0 0 1 2
3701 1 1.87811 1.13114 0.02 0 0 0 1 2
3735 1 1.5948 2.8168 0.02 0 0 0 1 2
3347 1 2.95916 1.17683 0.02 0 -3.97052e-22 1.9e-24 1 2
3787 1 1.72841 5.39758 0.02 0 0 0 1 2
3754 1 1.78513 3.55161 0.02 0 0 0 1 2
3714 1 2.16613 1.65156 0.02 0 0 0 1 2
3713 1 2.13327 1.4617 0.02 0 0 0 1 2
3711 1 1.92736 1.48195 0.02 0 0 0 1 2
3712 1 1.95935 1.66694 0.02 0 0 0 1 2
3705 1 1.8839 1.30888 0.02 0 0 0 1 2
3812 1 1.62553 6.73939 0.02 0 -0.000319137 0.000114871 1 2
3794 1 1.57339 5.76449 0.02 0 0 0 1 2
3738 1 1.84458 2.97012 0.02 0 0 0 1 2
3737 1 1.79846 2.78422 0.02 0 0 0 1 2
3721 1 2.15458 1.84173 0.02 0 0 0 1 2
3722 1 2.17636 2.02384 0.02 0 0 0 1 2
3719 1 1.94493 1.8571 0.02 0 0 0 1 2
3720 1 1.95471 2.04436 0.02 0 0 0 1 2
3376 1 2.81454 1.94621 0.02 0 -3.97111e-22 -4.18303e-23 1 2
3743 1 1.6918 3.17991 0.02 0 0 0 1 2
3726 1 1.69685 2.42845 0.02 0 0 0 1 2
3706 1 1.63392 1.35443 0.02 0 0 0 1 2
3378 1 2.83665 2.13505 0.02 0 -1.70266e-22 4.63048e-23 1 2
3811 1 1.83597 6.56166 0.02 0 -5.12209e-05 -0.000166321 1 2
489 2 2.8 9.8 0 0 0 0 1 5
488 2 2.6 9.8 0 0 0 0 1 5
3730 1 2.01071 2.57379 0.02 0 0 0 1 2
3733 1 2.22802 2.54765 0.02 0 0 0 1 2
3729 1 1.92021 2.41041 0.02 0 0 0 1 2
3732 1 2.1642 2.37968 0.02 0 0 0 1 2
3731 1 2.17093 2.20367 0.02 0 0 0 1 2
3728 1 1.95437 2.22989 0.02 0 0 0 1 2
3804 1 1.63959 6.36678 0.02 0 1.27296e-07 -2.7483e-06 1 2
3699 1 1.66612 1.17548 0.02 0 0 0 1 2
3394 1 2.84779 2.3268 0.02 0 -8.5479e-24 4.00869e-24 1 2
3397 1 2.84439 2.52306 0.02 0 -8.04349e-25 -2.94527e-25 1 2
455 2 2.8 9.6 0 0 0 0 1 5
454 2 2.6 9.6 0 0 0 0 1 5
3739 1 2.00113 2.76489 0.02 0 0 0 1 2
3741 1 2.20526 2.73639 0.02 0 0 0 1 2
3740 1 2.06224 2.94579 0.02 0 0 0 1 2
3409 1 2.85279 2.71578 0.02 0 -3.28378e-23 -2.98252e-24 1 2
3411 1 2.91651 2.90315 0.02 0 -2.60879e-22 -9.82612e-24 1 2
3789 1 1.73701 5.59984 0.02 0 0 0 1 2
3698 1 1.68669 0.986432 0.02 0 0 0 1 2
487 2 2.4 9.8 0 0 0 0 1 5
486 2 2.2 9.8 0 0 0 0 1 5
3747 1 2.12412 3.12186 0.02 0 0 0 1 2
3748 1 1.94503 3.33611 0.02 0 0 0 1 2
3749 1 2.15108 3.30852 0.02 0 0 0 1 2
3746 1 1.90667 3.1495 0.02 0 0 0 1 2
3779 1 1.74622 4.98104 0.02 0 0 0 1 2
3423 1 2.93128 3.09972 0.02 0 -3.36129e-21 -7.80824e-22 1 2
3424 1 2.94802 3.29669 0.02 0 -2.05912e-20 -3.12847e-21 1 2
3781 1 1.72542 5.19051 0.02 0 0 0 1 2
3757 1 1.96866 3.72591 0.02 0 0 0 1 2
3755 1 1.98424 3.52891 0.02 0 0 0 1 2
3758 1 2.16965 3.70801 0.02 0 0 0 1 2
3756 1 2.17907 3.5025 0.02 0 0 0 1 2
3773 1 1.7495 4.77088 0.02 0 0 0 1 2
3771 1 1.72273 4.5587 0.02 0 0 0 1 2
3440 1 2.92874 3.7084 0.02 0 -3.08235e-20 8.73982e-22 1 2
3439 1 2.94411 3.49899 0.02 0 -4.7683e-20 -2.99065e-21 1 2
451 2 2 9.6 0 0 0 0 1 5
3768 1 2.12952 4.34147 0.02 0 0 0 1 2
3767 1 1.93484 4.31048 0.02 0 0 0 1 2
3765 1 1.93337 4.11372 0.02 0 0 0 1 2
3764 1 1.94314 3.91869 0.02 0 0 0 1 2
3766 1 2.13063 4.13137 0.02 0 0 0 1 2
3763 1 2.13831 3.91852 0.02 0 0 0 1 2
3769 1 1.73821 4.34974 0.02 0 0 0 1 2
3688 1 1.64507 0.449729 0.02 0 0 0 1 2
3681 1 1.67277 0.263441 0.02 0 0 0 1 2
3457 1 2.89786 4.14092 0.02 0 -4.37971e-22 1.69452e-22 1 2
3456 1 2.88908 3.9248 0.02 0 -7.67763e-21 1.16455e-21 1 2
485 2 2 9.8 0 0 0 0 1 5
453 2 2.4 9.6 0 0 0 0 1 5
3777 1 2.1202 4.76373 0.02 0 0 0 1 2
3775 1 2.10094 4.55142 0.02 0 0 0 1 2
3776 1 1.93375 4.72408 0.02 0 0 0 1 2
3774 1 1.91151 4.51268 0.02 0 0 0 1 2
3473 1 2.8871 4.77037 0.02 0 -6.91578e-24 -3.0544e-24 1 2
3470 1 2.91647 4.35424 0.02 0 -8.97174e-24 5.30303e-24 1 2
3471 1 2.88291 4.5638 0.02 0 -1.12039e-29 -1.55333e-29 1 2
3680 1 1.65292 0.0728882 0.02 0 0 0 1 2
3717 1 1.74136 2.05599 0.02 0 0 0 1 2
452 2 2.2 9.6 0 0 0 0 1 5
387 2 2.8 9.2 0 0 0 0 1 5
3784 1 1.91645 5.1643 0.02 0 0 0 1 2
3782 1 1.93553 4.94548 0.02 0 0 0 1 2
3785 1 2.1096 5.17388 0.02 0 0 0 1 2
3783 1 2.12455 4.97065 0.02 0 0 0 1 2
3486 1 2.88974 4.97924 0.02 0 -4.26277e-22 -7.56487e-23 1 2
3488 1 2.92502 5.17867 0.02 0 -1.39967e-21 2.59957e-23 1 2
3761 1 1.73522 4.14407 0.02 0 0 0 1 2
3710 1 1.74629 1.69123 0.02 0 0 0 1 2
420 2 2.6 9.4 0 0 0 0 1 5
421 2 2.8 9.4 0 0 0 0 1 5
3793 1 2.13007 5.58291 0.02 0 0 0 1 2
3791 1 2.11118 5.37901 0.02 0 0 0 1 2
3790 1 1.9204 5.37889 0.02 0 0 0 1 2
3792 1 1.93318 5.58885 0.02 0 0 0 1 2
3504 1 2.92199 5.36944 0.02 0 -6.56503e-22 1.02009e-22 1 2
3759 1 1.74512 3.94075 0.02 0 0 0 1 2
3506 1 2.93869 5.56057 0.02 0 -5.89928e-22 1.64981e-22 1 2
3752 1 1.75567 3.74323 0.02 0 0 0 1 2
3800 1 1.99983 5.99245 0.02 0 1.41542e-08 -4.19012e-08 1 2
3799 1 2.15886 5.78068 0.02 0 3.48771e-11 -9.79983e-11 1 2
3801 1 2.19896 5.97293 0.02 0 3.72349e-08 -6.57284e-08 1 2
3798 1 1.96301 5.79372 0.02 0 5.87718e-12 -2.4474e-11 1 2
3796 1 1.5948 5.97267 0.02 0 0 0 1 2
3518 1 2.95186 5.7584 0.02 0 -4.61031e-23 2.29471e-23 1 2
3745 1 1.73566 3.36309 0.02 0 0 0 1 2
3725 1 1.73298 2.24256 0.02 0 0 0 1 2
3809 1 2.22771 6.35177 0.02 0 0.000112647 -0.000141523 1 2
3806 1 2.01423 6.18629 0.02 0 2.48414e-06 -4.93229e-06 1 2
3808 1 2.03702 6.37887 0.02 0 5.65057e-05 -9.76096e-05 1 2
3807 1 2.21903 6.1625 0.02 0 7.39844e-06 -1.08569e-05 1 2
3532 1 2.8032 6.17157 0.02 0 9.01573e-11 -3.69979e-12 1 2
3709 1 1.71626 1.51303 0.02 0 0 0 1 2
3692 1 1.72756 0.803929 0.02 0 0 0 1 2
3813 1 1.82085 6.74625 0.02 0 -0.00234668 0.000704183 1 2
3718 1 1.72899 1.87315 0.02 0 0 0 1 2
3814 1 2.03501 6.56866 0.02 0 5.84671e-05 -0.000427628 1 2
3816 1 2.01743 6.75932 0.02 0 -0.00331711 0.000697676 1 2
3815 1 2.23428 6.5434 0.02 0 0.000132966 -0.000643987 1 2
3817 1 2.21132 6.72759 0.02 0 -0.00206206 0.000573972 1 2
3547 1 2.81144 6.57228 0.02 0 -0.00146982 0.000614714 1 2
3690 1 1.71102 0.621961 0.02 0 0 0 1 2
384 2 2.2 9.2 0 0 0 0 1 5
3727 1 1.78243 2.59735 0.02 0 0 0 1 2
386 2 2.6 9.2 0 0 0 0 1 5
9 2 2 7 0 0 0 0 1.00051 5
10 2 2.2 7 0 0 0 0 0.994657 5
11 2 2.4 7 0 0 0 0 0.987948 5
43 2 2 7.2 0 0 0 0 1.0002 5
44 2 2.2 7.2 0 0 0 0 0.993891 5
45 2 2.4 7.2 0 0 0 0 0.988011 5
47 2 2.8 7.2 0 0 0 0 1.01129 5
13 2 2.8 7 0 0 0 0 1.00977 5
46 2 2.6 7.2 0 0 0 0 1.00954 5
12 2 2.6 7 0 0 0 0 1.00249 5
78 2 2.2 7.4 0 0 0 0 0.990385 5
147 2 2.4 7.8 0 0 0 0 1 5
111 2 2 7.6 0 0 0 0 1 5
112 2 2.2 7.6 0 0 0 0 1 5
113 2 2.4 7.6 0 0 0 0 1 5
79 2 2.4 7.4 0 0 0 0 0.989329 5
146 2 2.2 7.8 0 0 0 0 1 5
145 2 2 7.8 0 0 0 0 1 5
77 2 2 7.4 0 0 0 0 1.0012 5
114 2 2.6 7.6 0 0 0 0 1 5
81 2 2.8 7.4 0 0 0 0 1.01115 5
115 2 2.8 7.6 0 0 0 0 1 5
80 2 2.6 7.4 0 0 0 0 1 5
149 2 2.8 7.8 0 0 0 0 1 5
148 2 2.6 7.8 0 0 0 0 1 5
181 2 2.4 8 0 0 0 0 1 5
213 2 2 8.2 0 0 0 0 1 5
214 2 2.2 8.2 0 0 0 0 1 5
215 2 2.4 8.2 0 0 0 0 1 5
179 2 2 8 0 0 0 0 1 5
180 2 2.2 8 0 0 0 0 1 5
182 2 2.6 8 0 0 0 0 1 5
183 2 2.8 8 0 0 0 0 1 5
216 2 2.6 8.2 0 0 0 0 1 5
217 2 2.8 8.2 0 0 0 0 1 5
283 2 2.4 8.6 0 0 0 0 1 5
282 2 2.2 8.6 0 0 0 0 1 5
281 2 2 8.6 0 0 0 0 1 5
249 2 2.4 8.4 0 0 0 0 1 5
248 2 2.2 8.4 0 0 0 0 1 5
247 2 2 8.4 0 0 0 0 1 5
285 2 2.8 8.6 0 0 0 0 1 5
284 2 2.6 8.6 0 0 0 0 1 5
251 2 2.8 8.4 0 0 0 0 1 5
250 2 2.6 8.4 0 0 0 0 1 5
315 2 2 8.8 0 0 0 0 1 5
316 2 2.2 8.8 0 0 0 0 1 5
317 2 2.4 8.8 0 0 0 0 1 5
349 2 2 9 0 0 0 0 1 5
350 2 2.2 9 0 0 0 0 1 5
351 2 2.4 9 0 0 0 0 1 5
352 2 2.6 9 0 0 0 0 1 5
319 2 2.8 8.8 0 0 0 0 1 5
318 2 2.6 8.8 0 0 0 0 1 5
353 2 2.8 9 0 0 0 0 1 5
419 2 2.4 9.4 0 0 0 0 1 5
385 2 2.4 9.2 0 0 0 0 1 5
383 2 2 9.2 0 0 0 0 1 5
418 2 2.2 9.4 0 0 0 0 1 5
417 2 2 9.4 0 0 0 0 1 5
3786 1 1.53992 5.32898 0.02 0 0 0 1 2
3689 1 1.49713 0.667725 0.02 0 0 0 1 2
3778 1 1.55389 4.9146 0.02 0 0 0 1 2
3788 1 1.5454 5.54493 0.02 0 0 0 1 2
3780 1 1.5415 5.11544 0.02 0 0 0 1 2
3708 1 1.52832 1.72759 0.02 0 0 0 1 2
3715 1 1.50404 1.90837 0.02 0 0 0 1 2
3716 1 1.53419 2.09036 0.02 0 0 0 1 2
3723 1 1.50932 2.27783 0.02 0 0 0 1 2
3734 1 1.55614 2.63585 0.02 0 0 0 1 2
3744 1 1.50912 3.36707 0.02 0 0 0 1 2
3751 1 1.53937 3.72344 0.02 0 0 0 1 2
3753 1 1.549 3.91281 0.02 0 0 0 1 2
3772 1 1.55668 4.7137 0.02 0 0 0 1 2
3760 1 1.54008 4.10894 0.02 0 0 0 1 2
3770 1 1.5296 4.51034 0.02 0 0 0 1 2
3762 1 1.54483 4.30914 0.02 0 0 0 1 2
1583 2 3.2 -9.6 0 0 0 0 1 5
1582 2 3 -9.6 0 0 0 0 1 5
1549 2 3.2 -9.8 0 0 0 0 1 5
1548 2 3 -9.8 0 0 0 0 1 5
1515 2 3.2 -10 0 0 0 0 1 5
1514 2 3 -10 0 0 0 0 1 5
1584 2 3.4 -9.6 0 0 0 0 1 5
1550 2 3.4 -9.8 0 0 0 0 1 5
1516 2 3.4 -10 0 0 0 0 1 5
1586 2 3.8 -9.6 0 0 0 0 1 5
1585 2 3.6 -9.6 0 0 0 0 1 5
1552 2 3.8 -9.8 0 0 0 0 1 5
1551 2 3.6 -9.8 0 0 0 0 1 5
1518 2 3.8 -10 0 0 0 0 1 5
1517 2 3.6 -10 0 0 0 0 1 5
1588 2 4.2 -9.6 0 0 0 0 1 5
1587 2 4 -9.6 0 0 0 0 1 5
1554 2 4.2 -9.8 0 0 0 0 1 5
1553 2 4 -9.8 0 0 0 0 1 5
1520 2 4.2 -10 0 0 0 0 1 5
1519 2 4 -10 0 0 0 0 1 5
1616 2 3 -9.4 0 0 0 0 1 5
1617 2 3.2 -9.4 0 0 0 0 1 5
1651 2 3.2 -9.2 0 0 0 0 1 5
1650 2 3 -9.2 0 0 0 0 1 5
1652 2 3.4 -9.2 0 0 0 0 1 5
1618 2 3.4 -9.4 0 0 0 0 1 5
1653 2 3.6 -9.2 0 0 0 0 1 5
1654 2 3.8 -9.2 0 0 0 0 1 5
1620 2 3.8 -9.4 0 0 0 0 1 5
1619 2 3.6 -9.4 0 0 0 0 1 5
1622 2 4.2 -9.4 0 0 0 0 1 5
1655 2 4 -9.2 0 0 0 0 1 5
1656 2 4.2 -9.2 0 0 0 0 1 5
1621 2 4 -9.4 0 0 0 0 1 5
1719 2 3.2 -8.8 0 0 0 0 1 5
1718 2 3 -8.8 0 0 0 0 1 5
1685 2 3.2 -9 0 0 0 0 1 5
1684 2 3 -9 0 0 0 0 1 5
1686 2 3.4 -9 0 0 0 0 1 5
1720 2 3.4 -8.8 0 0 0 0 1 5
1687 2 3.6 -9 0 0 0 0 1 5
1688 2 3.8 -9 0 0 0 0 1 5
1721 2 3.6 -8.8 0 0 0 0 1 5
1722 2 3.8 -8.8 0 0 0 0 1 5
1689 2 4 -9 0 0 0 0 1 5
1690 2 4.2 -9 0 0 0 0 1 5
1723 2 4 -8.8 0 0 0 0 1 5
1724 2 4.2 -8.8 0 0 0 0 1 5
1752 2 3 -8.6 0 0 0 0 1 5
1753 2 3.2 -8.6 0 0 0 0 1 5
1786 2 3 -8.4 0 0 0 0 1 5
1787 2 3.2 -8.4 0 0 0 0 1 5
1754 2 3.4 -8.6 0 0 0 0 1 5
1788 2 3.4 -8.4 0 0 0 0 1 5
1755 2 3.6 -8.6 0 0 0 0 1 5
1756 2 3.8 -8.6 0 0 0 0 1 5
1789 2 3.6 -8.4 0 0 0 0 1 5
1790 2 3.8 -8.4 0 0 0 0 1 5
1757 2 4 -8.6 0 0 0 0 1 5
1758 2 4.2 -8.6 0 0 0 0 1 5
1791 2 4 -8.4 0 0 0 0 1 5
1792 2 4.2 -8.4 0 0 0 0 1 5
1820 2 3 -8.2 0 0 0 0 1 5
1821 2 3.2 -8.2 0 0 0 0 1 5
1854 2 3 -8 0 0 0 0 1 5
1855 2 3.2 -8 0 0 0 0 1 5
1822 2 3.4 -8.2 0 0 0 0 1 5
1856 2 3.4 -8 0 0 0 0 1 5
1823 2 3.6 -8.2 0 0 0 0 1 5
1824 2 3.8 -8.2 0 0 0 0 1 5
1857 2 3.6 -8 0 0 0 0 1 5
1858 2 3.8 -8 0 0 0 0 1 5
1825 2 4 -8.2 0 0 0 0 1 5
1826 2 4.2 -8.2 0 0 0 0 1 5
1859 2 4 -8 0 0 0 0 1 5
1860 2 4.2 -8 0 0 0 0 1 5
1888 2 3 -7.8 0 0 0 0 1 5
1889 2 3.2 -7.8 0 0 0 0 1 5