ITEM: TIMESTEP
37000
ITEM: NUMBER OF ATOMS
1378
ITEM: BOX BOUNDS ff ff pp
0.0000000000000000e+00 4.4000000000000004e+00
-1.0000000000000000e+01 1.0000000000000000e+01
-2.0000000000000000e-02 2.0000000000000000e-02
ITEM: ATOMS id type x y vx vy fx fy c_den c_phase
3945 1 0.985728 -6.74459 0.02 0 0 0 1 2
3946 1 1.18756 -6.76349 0.02 0 0 0 1 2
3947 1 1.01947 -6.57221 0.02 0 0 0 1 2
3948 1 1.22426 -6.57855 0.02 0 -8.00935e-13 -2.844e-13 1 2
3949 1 1.40071 -6.76677 0.02 0 -1.23398e-06 -8.74935e-07 1 2
3892 1 1.21284 -2.12404 0.02 0 0 0 1 2
3951 1 1.42268 -6.57855 0.02 0 1.81934e-09 3.40641e-08 1 2
3871 1 1.35808 -1.37784 0.02 0 0 0 1 2
3891 1 1.20867 -1.93585 0.02 0 0 0 1 2
3873 1 1.38021 -1.5728 0.02 0 0 0 1 2
3959 1 0.977463 -6.40575 0.02 0 0 0 1 2
3960 1 1.20148 -6.39862 0.02 0 0 0 1 2
3961 1 0.998846 -6.22649 0.02 0 0 0 1 2
3962 1 1.21696 -6.21801 0.02 0 0 0 1 2
3963 1 1.40749 -6.38915 0.02 0 2.06139e-11 1.17286e-09 1 2
3876 1 1.13978 -1.3795 0.02 0 0 0 1 2
3965 1 1.42266 -6.18855 0.02 0 1.2515e-12 2.88421e-11 1 2
3877 1 0.920609 -1.36587 0.02 0 0 0 1 2
3862 1 1.13515 -1.19427 0.02 0 0 0 1 2
3860 1 1.09112 -1.00662 0.02 0 0 0 1 2
3973 1 0.835064 -6.03328 0.02 0 0 0 1 2
3974 1 1.02673 -6.03474 0.02 0 0 0 1 2
3975 1 1.21904 -6.02704 0.02 0 0 0 1 2
3976 1 0.874285 -5.83368 0.02 0 0 0 1 2
3977 1 1.06843 -5.82876 0.02 0 0 0 1 2
3978 1 1.26359 -5.82346 0.02 0 0 0 1 2
3979 1 1.41696 -5.99289 0.02 0 0 0 1 2
3878 1 0.962978 -1.54983 0.02 0 0 0 1 2
3981 1 1.47007 -5.803 0.02 0 0 0 1 2
3863 1 0.913719 -1.17967 0.02 0 0 0 1 2
3826 1 1.31433 -0.104643 0.02 0 0 0 1 2
3989 1 0.897395 -5.62887 0.02 0 0 0 1 2
3990 1 1.08838 -5.61698 0.02 0 0 0 1 2
3991 1 0.922261 -5.42296 0.02 0 0 0 1 2
3992 1 1.11907 -5.40365 0.02 0 0 0 1 2
3993 1 0.955528 -5.22229 0.02 0 0 0 1 2
3994 1 1.27924 -5.62036 0.02 0 0 0 1 2
3995 1 1.31407 -5.41859 0.02 0 0 0 1 2
3998 1 1.34937 -5.22191 0.02 0 0 0 1 2
3996 1 1.47786 -5.61019 0.02 0 0 0 1 2
3857 1 1.28816 -0.988747 0.02 0 0 0 1 2
3905 1 1.31765 -2.49051 0.02 0 0 0 1 2
3859 1 1.34439 -1.18336 0.02 0 0 0 1 2
3844 1 1.22499 -0.788933 0.02 0 0 0 1 2
3845 1 1.18341 -0.584138 0.02 0 0 0 1 2
4007 1 0.972754 -5.02463 0.02 0 0 0 1 2
4008 1 0.957546 -4.82859 0.02 0 0 0 1 2
4009 1 1.15485 -5.19276 0.02 0 0 0 1 2
4010 1 1.17698 -4.99109 0.02 0 0 0 1 2
4011 1 1.15708 -4.79402 0.02 0 0 0 1 2
4012 1 1.38182 -5.02613 0.02 0 0 0 1 2
4013 1 1.35746 -4.82709 0.02 0 0 0 1 2
3879 1 0.949008 -1.73465 0.02 0 0 0 1 2
3909 1 0.899195 -2.47715 0.02 0 0 0 1 2
3846 1 0.993821 -0.609046 0.02 0 0 0 1 2
3828 1 1.15128 -0.378772 0.02 0 0 0 1 2
4022 1 0.982401 -4.62705 0.02 0 0 0 1 2
4023 1 0.93769 -4.42558 0.02 0 0 0 1 2
4024 1 1.18574 -4.60119 0.02 0 0 0 1 2
4025 1 1.13362 -4.41435 0.02 0 0 0 1 2
4027 1 1.34329 -4.43103 0.02 0 0 0 1 2
4026 1 1.38541 -4.62877 0.02 0 0 0 1 2
3875 1 1.17699 -1.56384 0.02 0 0 0 1 2
3907 1 1.10702 -2.4854 0.02 0 0 0 1 2
3848 1 1.03064 -0.811747 0.02 0 0 0 1 2
3847 1 0.805078 -0.560608 0.02 0 0 0 1 2
4036 1 0.937206 -4.22232 0.02 0 0 0 1 2
4037 1 1.14372 -4.22496 0.02 0 0 0 1 2
4038 1 0.975751 -4.02713 0.02 0 0 0 1 2
4039 1 1.17724 -4.03552 0.02 0 0 0 1 2
4040 1 1.35605 -4.24028 0.02 0 0 0 1 2
4041 1 1.37358 -4.04539 0.02 0 0 0 1 2
3889 1 1.42163 -1.95147 0.02 0 0 0 1 2
3887 1 1.38462 -1.76484 0.02 0 0 0 1 2
3849 1 0.83155 -0.774498 0.02 0 0 0 1 2
3856 1 1.47112 -0.926641 0.02 0 0 0 1 2
4050 1 0.825041 -3.65388 0.02 0 0 0 1 2
4051 1 0.987535 -3.83201 0.02 0 0 0 1 2
4052 1 1.19295 -3.84076 0.02 0 0 0 1 2
4053 1 1.03021 -3.63802 0.02 0 0 0 1 2
4054 1 1.23406 -3.64771 0.02 0 0 0 1 2
4055 1 1.39696 -3.84635 0.02 0 0 0 1 2
4056 1 1.43361 -3.64838 0.02 0 0 0 1 2
3861 1 0.888116 -0.985548 0.02 0 0 0 1 2
3890 1 1.43064 -2.1371 0.02 0 0 0 1 2
3829 1 1.13084 -0.173337 0.02 0 0 0 1 2
3830 1 0.941129 -0.162903 0.02 0 0 0 1 2
3939 1 1.20061 -3.06801 0.02 0 0 0 1 2
3940 1 0.990739 -3.06197 0.02 0 0 0 1 2
3941 1 1.18322 -3.26052 0.02 0 0 0 1 2
3942 1 1.18232 -3.45411 0.02 0 0 0 1 2
3943 1 0.972018 -3.2515 0.02 0 0 0 1 2
3944 1 0.977814 -3.44445 0.02 0 0 0 1 2
3843 1 1.41018 -0.730977 0.02 0 0 0 1 2
3934 1 1.40612 -3.062 0.02 0 0 0 1 2
3895 1 1.00238 -2.10566 0.02 0 0 0 1 2
3894 1 0.988455 -1.91774 0.02 0 0 0 1 2
3937 1 1.39012 -3.25733 0.02 0 0 0 1 2
3938 1 1.38831 -3.45244 0.02 0 0 0 1 2
3831 1 0.965069 -0.39204 0.02 0 0 0 1 2
3827 1 1.33274 -0.317833 0.02 0 0 0 1 2
3906 1 1.05374 -2.29621 0.02 0 0 0 1 2
3921 1 0.91736 -2.67636 0.02 0 0 0 1 2
3922 1 1.11966 -2.68115 0.02 0 0 0 1 2
3923 1 1.15651 -2.87607 0.02 0 0 0 1 2
3924 1 0.947742 -2.87178 0.02 0 0 0 1 2
3918 1 1.32381 -2.68142 0.02 0 0 0 1 2
3904 1 1.2738 -2.30636 0.02 0 0 0 1 2
3908 1 0.844656 -2.27621 0.02 0 0 0 1 2
3893 1 1.16728 -1.75137 0.02 0 0 0 1 2
3920 1 1.36533 -2.87093 0.02 0 0 0 1 2
3842 1 1.3673 -0.527642 0.02 0 0 0 1 2
3818 1 0.919613 0.0581515 0.02 0 0 0 1 2
3819 1 0.92049 0.271338 0.02 0 0 0 1 2
3820 1 1.11248 0.0324508 0.02 0 0 0 1 2
3821 1 1.11359 0.238999 0.02 0 0 0 1 2
3822 1 1.303 0.10449 0.02 0 0 0 1 2
3823 1 1.29706 0.316871 0.02 0 0 0 1 2
4000 1 1.31398 4.94053 0.02 0 0 0 1 2
3825 1 1.48508 0.353606 0.02 0 0 0 1 2
4035 1 1.42218 6.01133 0.02 0 0 0 1 2
4017 1 1.28045 5.56236 0.02 0 0 0 1 2
4016 1 1.28985 5.35518 0.02 0 0 0 1 2
3833 1 0.893938 0.476635 0.02 0 0 0 1 2
3834 1 0.873069 0.679911 0.02 0 0 0 1 2
3835 1 1.0931 0.447051 0.02 0 0 0 1 2
3836 1 1.06729 0.655296 0.02 0 0 0 1 2
3837 1 1.02346 0.866201 0.02 0 0 0 1 2
3838 1 1.24036 0.740464 0.02 0 0 0 1 2
3839 1 1.27395 0.527935 0.02 0 0 0 1 2
3840 1 1.45942 0.56827 0.02 0 0 0 1 2
3841 1 1.42527 0.780362 0.02 0 0 0 1 2
4012 1 0.907071 5.38007 0.02 0 0 0 1 2
4028 1 1.05861 5.7669 0.02 0 0 0 1 2
4013 1 0.884503 5.57366 0.02 0 0 0 1 2
3850 1 0.823538 0.878538 0.02 0 0 0 1 2
3851 1 0.975532 1.07228 0.02 0 0 0 1 2
3852 1 0.946005 1.27862 0.02 0 0 0 1 2
3853 1 1.15552 1.15445 0.02 0 0 0 1 2
3854 1 1.1988 0.94982 0.02 0 0 0 1 2
3856 1 1.34803 1.19029 0.02 0 0 0 1 2
3855 1 1.38709 0.987355 0.02 0 0 0 1 2
3999 1 1.12227 5.12546 0.02 0 0 0 1 2
4014 1 1.10141 5.34701 0.02 0 0 0 1 2
4049 1 1.22895 6.36713 0.02 0 0 0 1 2
4067 1 1.4136 6.75198 0.02 0 -1.49683e-06 7.7294e-07 1 2
3865 1 0.914507 1.48144 0.02 0 0 0 1 2
3866 1 0.912416 1.68879 0.02 0 0 0 1 2
3867 1 1.10357 1.5575 0.02 0 0 0 1 2
3868 1 1.13331 1.35841 0.02 0 0 0 1 2
3869 1 1.33222 1.39328 0.02 0 0 0 1 2
3870 1 1.30038 1.59163 0.02 0 0 0 1 2
3998 1 1.12161 4.91452 0.02 0 0 0 1 2
3872 1 1.49264 1.65109 0.02 0 0 0 1 2
4030 1 1.04719 5.97745 0.02 0 0 0 1 2
4045 1 1.00845 6.18323 0.02 0 0 0 1 2
4046 1 1.20153 6.16667 0.02 0 0 0 1 2
3882 1 0.889708 1.89352 0.02 0 0 0 1 2
3883 1 0.920571 2.10896 0.02 0 0 0 1 2
3884 1 1.10398 1.7605 0.02 0 0 0 1 2
3885 1 1.08083 1.95782 0.02 0 0 0 1 2
3886 1 1.11841 2.16205 0.02 0 0 0 1 2
3889 1 1.2785 1.99756 0.02 0 0 0 1 2
3887 1 1.30194 1.79638 0.02 0 0 0 1 2
3997 1 0.933551 4.96872 0.02 0 0 0 1 2
3890 1 1.4742 2.0556 0.02 0 0 0 1 2
4031 1 1.23716 5.96394 0.02 0 0 0 1 2
4032 1 1.25572 5.7628 0.02 0 0 0 1 2
3897 1 0.919045 2.31584 0.02 0 0 0 1 2
3898 1 0.946863 2.52459 0.02 0 0 0 1 2
3899 1 1.11414 2.36092 0.02 0 0 0 1 2
3900 1 1.14953 2.56123 0.02 0 0 0 1 2
3901 1 1.32088 2.20644 0.02 0 0 0 1 2
3902 1 1.3152 2.40235 0.02 0 0 0 1 2
3903 1 1.3599 2.60106 0.02 0 0 0 1 2
3996 1 0.939052 5.17829 0.02 0 0 0 1 2
4062 1 1.21672 6.74289 0.02 0 -2.97639e-15 4.50088e-15 1 2
4048 1 1.03257 6.38201 0.02 0 0 0 1 2
4044 1 0.819867 6.14269 0.02 0 0 0 1 2
3912 1 0.810068 2.90933 0.02 0 0 0 1 2
3913 1 0.976193 2.72732 0.02 0 0 0 1 2
3914 1 1.01053 2.92807 0.02 0 0 0 1 2
3915 1 1.18623 2.75552 0.02 0 0 0 1 2
3916 1 1.21364 2.94837 0.02 0 0 0 1 2
3917 1 1.40539 2.79067 0.02 0 0 0 1 2
3918 1 1.41862 2.98307 0.02 0 0 0 1 2
4003 1 1.4896 5.18161 0.02 0 0 0 1 2
4063 1 1.01095 6.75598 0.02 0 0 0 1 2
4015 1 1.08494 5.55932 0.02 0 0 0 1 2
4068 1 1.43266 6.57318 0.02 0 -8.16927e-10 -4.3359e-08 1 2
4027 1 0.8555 5.7614 0.02 0 0 0 1 2
4065 1 1.21629 6.55738 0.02 0 0 0 1 2
3930 1 0.833221 3.11108 0.02 0 0 0 1 2
3931 1 0.880365 3.30937 0.02 0 0 0 1 2
3932 1 1.0372 3.12945 0.02 0 0 0 1 2
3933 1 1.09169 3.32658 0.02 0 0 0 1 2
3934 1 1.24555 3.14301 0.02 0 0 0 1 2
3935 1 1.30627 3.32877 0.02 0 0 0 1 2
3936 1 1.46529 3.17459 0.02 0 0 0 1 2
4052 1 1.43143 6.39542 0.02 0 3.17118e-10 -5.92355e-09 1 2
4029 1 0.856307 5.95148 0.02 0 0 0 1 2
4047 1 0.839654 6.3475 0.02 0 0 0 1 2
3945 1 0.799797 3.7317 0.02 0 0 0 1 2
3944 1 0.946391 3.50414 0.02 0 0 0 1 2
3946 1 0.997836 3.7045 0.02 0 0 0 1 2
3947 1 1.07472 3.90666 0.02 0 0 0 1 2
3948 1 1.15168 3.52476 0.02 0 0 0 1 2
3949 1 1.20452 3.72431 0.02 0 0 0 1 2
3950 1 1.35673 3.51237 0.02 0 0 0 1 2
3951 1 1.40765 3.70319 0.02 0 0 0 1 2
3952 1 1.46442 3.89242 0.02 0 0 0 1 2
4019 1 1.47229 5.60227 0.02 0 0 0 1 2
4060 1 0.805917 6.73619 0.02 0 0 0 1 2
4050 1 1.39909 6.20704 0.02 0 0 0 1 2
3960 1 0.879246 3.92208 0.02 0 0 0 1 2
3961 1 0.934374 4.11684 0.02 0 0 0 1 2
3962 1 0.994994 4.31184 0.02 0 0 0 1 2
3963 1 1.13328 4.11699 0.02 0 0 0 1 2
3964 1 1.19254 4.32724 0.02 0 0 0 1 2
3965 1 1.27227 3.92769 0.02 0 0 0 1 2
3966 1 1.33134 4.12896 0.02 0 0 0 1 2
4001 1 1.30778 5.14856 0.02 0 0 0 1 2
3968 1 1.39243 4.32461 0.02 0 0 0 1 2
4061 1 0.821632 6.54613 0.02 0 0 0 1 2
4018 1 1.47432 5.39802 0.02 0 0 0 1 2
4033 1 1.44783 5.80575 0.02 0 0 0 1 2
4064 1 1.01438 6.5706 0.02 0 0 0 1 2
3979 1 0.808502 4.361 0.02 0 0 0 1 2
3980 1 0.842332 4.56926 0.02 0 0 0 1 2
3981 1 1.03077 4.51509 0.02 0 0 0 1 2
3982 1 0.881786 4.76921 0.02 0 0 0 1 2
3983 1 1.07597 4.71589 0.02 0 0 0 1 2
3984 1 1.23097 4.53266 0.02 0 0 0 1 2
3986 1 1.28036 4.73412 0.02 0 0 0 1 2
3985 1 1.4286 4.52537 0.02 0 0 0 1 2
3987 1 1.47406 4.73178 0.02 0 0 0 1 2
1509 2 2 -10 0 0 0 0 1 5
1510 2 2.2 -10 0 0 0 0 1 5
1511 2 2.4 -10 0 0 0 0 1 5
1543 2 2 -9.8 0 0 0 0 1 5
1544 2 2.2 -9.8 0 0 0 0 1 5
1545 2 2.4 -9.8 0 0 0 0 1 5
1577 2 2 -9.6 0 0 0 0 1 5
1578 2 2.2 -9.6 0 0 0 0 1 5
1579 2 2.4 -9.6 0 0 0 0 1 5
1512 2 2.6 -10 0 0 0 0 1 5
1513 2 2.8 -10 0 0 0 0 1 5
1546 2 2.6 -9.8 0 0 0 0 1 5
1547 2 2.8 -9.8 0 0 0 0 1 5
1580 2 2.6 -9.6 0 0 0 0 1 5
1581 2 2.8 -9.6 0 0 0 0 1 5
1645 2 2 -9.2 0 0 0 0 1 5
1646 2 2.2 -9.2 0 0 0 0 1 5
1647 2 2.4 -9.2 0 0 0 0 1 5
1613 2 2.4 -9.4 0 0 0 0 1 5
1612 2 2.2 -9.4 0 0 0 0 1 5
1611 2 2 -9.4 0 0 0 0 1 5
1648 2 2.6 -9.2 0 0 0 0 1 5
1649 2 2.8 -9.2 0 0 0 0 1 5
1615 2 2.8 -9.4 0 0 0 0 1 5
1614 2 2.6 -9.4 0 0 0 0 1 5
1679 2 2 -9 0 0 0 0 1 5
1680 2 2.2 -9 0 0 0 0 1 5
1681 2 2.4 -9 0 0 0 0 1 5
1713 2 2 -8.8 0 0 0 0 1 5
1714 2 2.2 -8.8 0 0 0 0 1 5
1715 2 2.4 -8.8 0 0 0 0 1 5
1682 2 2.6 -9 0 0 0 0 1 5
1683 2 2.8 -9 0 0 0 0 1 5
1716 2 2.6 -8.8 0 0 0 0 1 5
1717 2 2.8 -8.8 0 0 0 0 1 5
1783 2 2.4 -8.4 0 0 0 0 1 5
1782 2 2.2 -8.4 0 0 0 0 1 5
1781 2 2 -8.4 0 0 0 0 1 5
1747 2 2 -8.6 0 0 0 0 1 5
1748 2 2.2 -8.6 0 0 0 0 1 5
1749 2 2.4 -8.6 0 0 0 0 1 5
1785 2 2.8 -8.4 0 0 0 0 1 5
1784 2 2.6 -8.4 0 0 0 0 1 5
1750 2 2.6 -8.6 0 0 0 0 1 5
1751 2 2.8 -8.6 0 0 0 0 1 5
1851 2 2.4 -8 0 0 0 0 1 5
1850 2 2.2 -8 0 0 0 0 1 5
1849 2 2 -8 0 0 0 0 1 5
1817 2 2.4 -8.2 0 0 0 0 1 5
1816 2 2.2 -8.2 0 0 0 0 1 5
1815 2 2 -8.2 0 0 0 0 1 5
1853 2 2.8 -8 0 0 0 0 1 5
1852 2 2.6 -8 0 0 0 0 1 5
1819 2 2.8 -8.2 0 0 0 0 1 5
1818 2 2.6 -8.2 0 0 0 0 1 5
1953 2 2.4 -7.4 0 0 0 0 0.987447 5
1952 2 2.2 -7.4 0 0 0 0 0.996535 5
1951 2 2 -7.4 0 0 0 0 0.999221 5
1919 2 2.4 -7.6 0 0 0 0 1 5
1918 2 2.2 -7.6 0 0 0 0 1 5
1917 2 2 -7.6 0 0 0 0 1 5
1885 2 2.4 -7.8 0 0 0 0 1 5
1884 2 2.2 -7.8 0 0 0 0 1 5
1883 2 2 -7.8 0 0 0 0 1 5
1955 2 2.8 -7.4 0 0 0 0 1.01192 5
1954 2 2.6 -7.4 0 0 0 0 1 5
1921 2 2.8 -7.6 0 0 0 0 1 5
1920 2 2.6 -7.6 0 0 0 0 1 5
1887 2 2.8 -7.8 0 0 0 0 1 5
1886 2 2.6 -7.8 0 0 0 0 1 5
2021 2 2.4 -7 0 0 0 0 0.986547 5
2020 2 2.2 -7 0 0 0 0 0.994145 5
2019 2 2 -7 0 0 0 0 1.00062 5
1987 2 2.4 -7.2 0 0 0 0 0.986731 5
1986 2 2.2 -7.2 0 0 0 0 0.99373 5
1985 2 2 -7.2 0 0 0 0 1.00046 5
2023 2 2.8 -7 0 0 0 0 1.00996 5
2022 2 2.6 -7 0 0 0 0 1.00202 5
1989 2 2.8 -7.2 0 0 0 0 1.01192 5
1988 2 2.6 -7.2 0 0 0 0 1.00757 5
3958 1 2.19751 -6.55361 0.02 0 0.000170949 0.00040671 1 2
3957 1 2.19368 -6.74592 0.02 0 -0.0019146 -0.000457946 1 2
3954 1 1.98986 -6.76847 0.02 0 -0.0036543 -0.000830513 1 2
3956 1 2.01268 -6.576 0.02 0 -3.58029e-05 0.000419111 1 2
3624 1 2.82318 -6.58073 0.02 0 -0.00210436 -0.00035883 1 2
3919 1 1.57813 -2.86829 0.02 0 0 0 1 2
3839 1 1.65424 -0.867583 0.02 0 0 0 1 2
3838 1 1.83159 -0.789936 0.02 0 0 0 1 2
3837 1 1.78281 -0.592202 0.02 0 0 0 1 2
3972 1 2.25084 -6.19175 0.02 0 2.74052e-05 3.90201e-05 1 2
3971 1 2.24448 -6.37166 0.02 0 1.80521e-05 0.000247259 1 2
3970 1 2.0422 -6.20607 0.02 0 4.36189e-06 1.2284e-05 1 2
3968 1 2.02428 -6.38716 0.02 0 5.3962e-05 0.000118204 1 2
3630 1 2.8587 -6.40681 0.02 0 0.00029451 0.000148842 1 2
3886 1 1.65215 -2.118 0.02 0 0 0 1 2
4000 1 1.68589 -5.62586 0.02 0 0 0 1 2
3631 1 2.88518 -6.22242 0.02 0 4.11885e-05 3.45008e-05 1 2
3571 1 2.95392 -0.372384 0.02 0 -2.32877e-23 -9.24561e-24 1 2
3982 1 1.68004 -5.8133 0.02 0 0 0 1 2
3988 1 2.12534 -5.67806 0.02 0 0 0 1 2
3986 1 2.10737 -5.85757 0.02 0 -1.58017e-10 2.24003e-09 1 2
3984 1 2.06072 -6.02829 0.02 0 8.2607e-08 3.1369e-07 1 2
3985 1 1.88959 -5.8406 0.02 0 1.31344e-11 9.586e-11 1 2
3987 1 1.90378 -5.65807 0.02 0 0 0 1 2
3867 1 1.7668 -1.47817 0.02 0 0 0 1 2
3636 1 2.92059 -6.03472 0.02 0 8.32558e-07 9.94715e-07 1 2
3637 1 2.95647 -5.84117 0.02 0 1.44723e-09 1.83525e-09 1 2
3901 1 1.73594 -2.49394 0.02 0 0 0 1 2
4004 1 1.96788 -5.28876 0.02 0 0 0 1 2
4002 1 1.93222 -5.47541 0.02 0 0 0 1 2
4006 1 2.1771 -5.30587 0.02 0 0 0 1 2
4005 1 2.1408 -5.49466 0.02 0 0 0 1 2
3936 1 1.59426 -3.45599 0.02 0 0 0 1 2
3643 1 2.94916 -5.43396 0.02 0 -2.42806e-20 -8.94977e-21 1 2
3642 1 2.95449 -5.6389 0.02 0 -1.17345e-22 -1.51043e-22 1 2
3900 1 1.7144 -2.30128 0.02 0 0 0 1 2
3914 1 1.7457 -2.68608 0.02 0 0 0 1 2
3869 1 1.78283 -1.67801 0.02 0 0 0 1 2
4019 1 1.96244 -4.88531 0.02 0 0 0 1 2
4021 1 2.17957 -5.11052 0.02 0 0 0 1 2
4020 1 2.15976 -4.90344 0.02 0 0 0 1 2
4018 1 1.98746 -5.0919 0.02 0 0 0 1 2
3935 1 1.59269 -3.25767 0.02 0 0 0 1 2
3933 1 1.60748 -3.05992 0.02 0 0 0 1 2
3883 1 1.81616 -1.8738 0.02 0 0 0 1 2
3855 1 1.75218 -1.2746 0.02 0 0 0 1 2
4033 1 1.95031 -4.46046 0.02 0 0 0 1 2
4032 1 1.96054 -4.67466 0.02 0 0 0 1 2
4035 1 2.14516 -4.49581 0.02 0 0 0 1 2
4034 1 2.15189 -4.69896 0.02 0 0 0 1 2
4058 1 1.62928 -3.65665 0.02 0 0 0 1 2
4057 1 1.59699 -3.85732 0.02 0 0 0 1 2
3853 1 1.72305 -1.06612 0.02 0 0 0 1 2
3915 1 1.79099 -2.87434 0.02 0 0 0 1 2
4047 1 1.96469 -4.04623 0.02 0 0 0 1 2
4046 1 1.97412 -4.25285 0.02 0 0 0 1 2
4049 1 2.16213 -4.09365 0.02 0 0 0 1 2
4048 1 2.16902 -4.29575 0.02 0 0 0 1 2
3663 1 2.95172 -4.23847 0.02 0 -1.79389e-21 3.02184e-22 1 2
3664 1 2.95418 -4.02919 0.02 0 -4.51793e-21 -1.29767e-21 1 2
4045 1 1.76441 -4.06866 0.02 0 0 0 1 2
4044 1 1.77451 -4.26689 0.02 0 0 0 1 2
4063 1 2.17877 -3.89314 0.02 0 0 0 1 2
4064 1 2.20324 -3.68647 0.02 0 0 0 1 2
4062 1 2.01516 -3.62939 0.02 0 0 0 1 2
4061 1 1.99238 -3.83821 0.02 0 0 0 1 2
3669 1 2.94609 -3.81677 0.02 0 -1.18146e-20 -2.24902e-22 1 2
3670 1 2.95008 -3.5978 0.02 0 -8.87553e-21 6.07072e-22 1 2
4031 1 1.75306 -4.46549 0.02 0 0 0 1 2
4030 1 1.77174 -4.67057 0.02 0 0 0 1 2
3927 1 2.19294 -3.47713 0.02 0 0 0 1 2
3926 1 2.18547 -3.27024 0.02 0 0 0 1 2
3925 1 2.19153 -3.05959 0.02 0 0 0 1 2
3930 1 1.9976 -3.42534 0.02 0 0 0 1 2
3929 1 1.99156 -3.22306 0.02 0 0 0 1 2
3622 1 2.93362 -3.3728 0.02 0 -1.84054e-21 4.49253e-22 1 2
4017 1 1.76169 -4.87111 0.02 0 0 0 1 2
4003 1 1.75748 -5.25608 0.02 0 0 0 1 2
3621 1 2.92962 -3.14391 0.02 0 -4.82525e-22 -8.9234e-23 1 2
4001 1 1.72835 -5.44246 0.02 0 0 0 1 2
3570 1 2.90247 -0.16898 0.02 0 -7.8453e-23 -2.01142e-23 1 2
3912 1 1.95287 -2.6413 0.02 0 0 0 1 2
3911 1 2.18417 -2.84058 0.02 0 0 0 1 2
3910 1 2.1609 -2.62369 0.02 0 0 0 1 2
3916 1 1.99927 -3.02198 0.02 0 0 0 1 2
3913 1 1.99129 -2.8269 0.02 0 0 0 1 2
3822 1 1.70493 -0.195535 0.02 0 0 0 1 2
3983 1 1.83824 -6.01828 0.02 0 1.93334e-09 3.29497e-08 1 2
3614 1 2.89406 -2.72388 0.02 0 -3.28908e-21 -1.05403e-22 1 2
3615 1 2.91973 -2.92742 0.02 0 -2.27691e-21 -4.05477e-22 1 2
3820 1 1.89039 -0.123525 0.02 0 0 0 1 2
3819 1 2.07283 -0.0478893 0.02 0 0 0 1 2
3899 1 1.93607 -2.44987 0.02 0 0 0 1 2
3897 1 2.13241 -2.42162 0.02 0 0 0 1 2
3896 1 2.10941 -2.21807 0.02 0 0 0 1 2
3898 1 1.91255 -2.25436 0.02 0 0 0 1 2
3969 1 1.83347 -6.20222 0.02 0 2.21625e-07 2.17175e-06 1 2
3967 1 1.81061 -6.38259 0.02 0 6.17959e-06 2.58009e-05 1 2
3606 1 2.87502 -2.30563 0.02 0 -3.14608e-22 6.70531e-23 1 2
3607 1 2.91319 -2.51928 0.02 0 -3.19479e-21 1.59295e-22 1 2
3932 1 1.79894 -3.46906 0.02 0 0 0 1 2
3823 1 1.9285 -0.320927 0.02 0 0 0 1 2
3884 1 2.0559 -2.02337 0.02 0 0 0 1 2
3882 1 2.00777 -1.82483 0.02 0 0 0 1 2
3880 1 2.19234 -1.75658 0.02 0 0 0 1 2
3881 1 2.24122 -1.956 0.02 0 0 0 1 2
3885 1 1.85715 -2.06621 0.02 0 0 0 1 2
3931 1 1.79358 -3.27232 0.02 0 0 0 1 2
3888 1 1.62329 -1.92667 0.02 0 0 0 1 2
3599 1 2.83522 -2.08011 0.02 0 -1.35344e-23 3.31551e-25 1 2
4043 1 1.56764 -4.05749 0.02 0 0 0 1 2
3821 1 1.73982 -0.395697 0.02 0 0 0 1 2
3865 1 2.15878 -1.55154 0.02 0 0 0 1 2
3866 1 1.9559 -1.41185 0.02 0 0 0 1 2
3868 1 1.97414 -1.62017 0.02 0 0 0 1 2
3864 1 2.13513 -1.33541 0.02 0 0 0 1 2
4059 1 1.79559 -3.86973 0.02 0 0 0 1 2
3955 1 1.81975 -6.56058 0.02 0 -3.61326e-05 0.000219355 1 2
3591 1 2.89282 -1.38585 0.02 0 -1.36306e-21 -1.34814e-22 1 2
3592 1 2.93363 -1.58822 0.02 0 -2.23001e-21 -2.96618e-22 1 2
3818 1 2.11652 -0.249702 0.02 0 0 0 1 2
3578 1 2.82416 -0.77638 0.02 0 -2.18168e-22 7.12413e-23 1 2
3851 1 2.07336 -0.898944 0.02 0 0 0 1 2
3854 1 1.92965 -1.19935 0.02 0 0 0 1 2
3850 1 2.09896 -1.11672 0.02 0 0 0 1 2
3852 1 1.89908 -0.984807 0.02 0 0 0 1 2
3928 1 1.80479 -3.07265 0.02 0 0 0 1 2
3586 1 2.8776 -1.18097 0.02 0 -1.06901e-21 -6.79726e-23 1 2
3953 1 1.7949 -6.7407 0.02 0 -0.00200604 -0.000648439 1 2
4042 1 1.56727 -4.25491 0.02 0 0 0 1 2
3585 1 2.8497 -0.97904 0.02 0 -5.14193e-22 -1.4722e-23 1 2
4028 1 1.58072 -4.64625 0.02 0 0 0 1 2
3834 1 2.25915 -0.848233 0.02 0 0 0 1 2
3833 1 2.20355 -0.650311 0.02 0 0 0 1 2
3832 1 2.16406 -0.449534 0.02 0 0 0 1 2
3836 1 1.97231 -0.512167 0.02 0 0 0 1 2
3835 1 2.01111 -0.705365 0.02 0 0 0 1 2
4060 1 1.82384 -3.66825 0.02 0 0 0 1 2
4016 1 1.79268 -5.06783 0.02 0 0 0 1 2
3950 1 1.60499 -6.74921 0.02 0 -0.000268751 -0.000101896 1 2
3952 1 1.61786 -6.55859 0.02 0 -2.03675e-06 1.74568e-05 1 2
3840 1 1.59669 -0.668099 0.02 0 0 0 1 2
3872 1 1.5728 -1.52383 0.02 0 0 0 1 2
3964 1 1.60551 -6.36834 0.02 0 3.6584e-09 8.19601e-08 1 2
3874 1 1.58852 -1.72907 0.02 0 0 0 1 2
3966 1 1.62627 -6.18143 0.02 0 2.2833e-09 5.52095e-08 1 2
3980 1 1.62538 -5.99456 0.02 0 3.85687e-12 2.16582e-10 1 2
4014 1 1.58917 -5.04029 0.02 0 0 0 1 2
3870 1 1.55905 -1.32082 0.02 0 0 0 1 2
3825 1 1.51947 -0.268647 0.02 0 0 0 1 2
3824 1 1.50477 -0.0631203 0.02 0 0 0 1 2
3903 1 1.52763 -2.49506 0.02 0 0 0 1 2
3902 1 1.502 -2.30994 0.02 0 0 0 1 2
3997 1 1.52042 -5.42183 0.02 0 0 0 1 2
3999 1 1.55089 -5.23061 0.02 0 0 0 1 2
4015 1 1.55826 -4.84437 0.02 0 0 0 1 2
4029 1 1.5501 -4.44736 0.02 0 0 0 1 2
3841 1 1.55332 -0.469224 0.02 0 0 0 1 2
3858 1 1.53539 -1.11965 0.02 0 0 0 1 2
3917 1 1.53359 -2.68272 0.02 0 0 0 1 2
3832 1 2.0725 0.353552 0.02 0 0 0 1 2
3831 1 2.06801 0.154943 0.02 0 0 0 1 2
3828 1 1.87573 0.297915 0.02 0 0 0 1 2
3829 1 1.87756 0.0870193 0.02 0 0 0 1 2
4021 1 1.65747 5.61574 0.02 0 0 0 1 2
4020 1 1.65428 5.3707 0.02 0 0 0 1 2
3567 1 2.85735 0.0361407 0.02 0 -9.51147e-23 -9.86817e-24 1 2
3566 1 2.85131 0.248542 0.02 0 -3.53436e-23 3.44705e-24 1 2
489 2 2.8 9.8 0 0 0 0 1 5
488 2 2.6 9.8 0 0 0 0 1 5
3847 1 2.01847 0.74091 0.02 0 0 0 1 2
3846 1 2.03886 0.546765 0.02 0 0 0 1 2
3848 1 2.24009 0.55315 0.02 0 0 0 1 2
3849 1 2.21802 0.754952 0.02 0 0 0 1 2
3844 1 1.84667 0.503287 0.02 0 0 0 1 2
3988 1 1.62164 4.48471 0.02 0 0 0 1 2
4004 1 1.6761 4.89802 0.02 0 0 0 1 2
3574 1 2.84073 0.462919 0.02 0 -7.26206e-25 2.84376e-25 1 2
3575 1 2.82851 0.669742 0.02 0 -1.96903e-25 -8.69504e-26 1 2
3576 1 2.82836 0.863721 0.02 0 -6.04583e-24 -1.32835e-24 1 2
4040 1 1.8079 6.02609 0.02 0 2.92156e-09 -1.14456e-08 1 2
455 2 2.8 9.6 0 0 0 0 1 5
3862 1 1.95731 1.12443 0.02 0 0 0 1 2
3861 1 1.99515 0.933529 0.02 0 0 0 1 2
3864 1 2.15682 1.14977 0.02 0 0 0 1 2
3863 1 2.19929 0.955365 0.02 0 0 0 1 2
3582 1 2.82167 1.054 0.02 0 -3.53688e-23 6.77213e-24 1 2
4005 1 1.66497 5.13092 0.02 0 0 0 1 2
3989 1 1.66024 4.6878 0.02 0 0 0 1 2
3969 1 1.5882 4.28555 0.02 0 0 0 1 2
4054 1 1.82097 6.21556 0.02 0 4.25308e-07 -9.95681e-07 1 2
454 2 2.6 9.6 0 0 0 0 1 5
453 2 2.4 9.6 0 0 0 0 1 5
3879 1 2.10518 1.73253 0.02 0 0 0 1 2
3877 1 1.94099 1.50942 0.02 0 0 0 1 2
3875 1 1.93363 1.31735 0.02 0 0 0 1 2
3881 1 2.14895 1.54741 0.02 0 0 0 1 2
3880 1 2.13652 1.34912 0.02 0 0 0 1 2
3878 1 1.89315 1.6938 0.02 0 0 0 1 2
3954 1 1.63396 3.72892 0.02 0 0 0 1 2
3953 1 1.56573 3.54201 0.02 0 0 0 1 2
4038 1 1.83868 5.83202 0.02 0 1.19796e-16 -3.42862e-16 1 2
4024 1 1.84302 5.63052 0.02 0 0 0 1 2
3896 1 2.11965 2.10998 0.02 0 0 0 1 2
3895 1 2.09936 1.92355 0.02 0 0 0 1 2
3893 1 1.90043 1.8863 0.02 0 0 0 1 2
3894 1 1.89139 2.08168 0.02 0 0 0 1 2
3595 1 2.83915 1.795 0.02 0 -1.3174e-22 -2.4922e-23 1 2
4053 1 1.63881 6.40823 0.02 0 5.56425e-07 -6.82978e-06 1 2
3973 1 1.73826 4.11917 0.02 0 0 0 1 2
3921 1 1.62482 3.00202 0.02 0 0 0 1 2
3596 1 2.88225 2.08906 0.02 0 -2.77339e-22 4.43707e-23 1 2
452 2 2.2 9.6 0 0 0 0 1 5
3909 1 1.94835 2.45162 0.02 0 0 0 1 2
3908 1 1.97754 2.26424 0.02 0 0 0 1 2
3911 1 2.16608 2.46193 0.02 0 0 0 1 2
3910 1 2.20888 2.28053 0.02 0 0 0 1 2
3603 1 2.83547 2.4591 0.02 0 -5.72302e-28 2.9626e-28 1 2
3970 1 1.66726 3.92225 0.02 0 0 0 1 2
3938 1 1.68988 3.18734 0.02 0 0 0 1 2
3604 1 2.86392 2.27317 0.02 0 -2.28771e-23 9.81238e-24 1 2
487 2 2.4 9.8 0 0 0 0 1 5
486 2 2.2 9.8 0 0 0 0 1 5
3927 1 2.06117 3.00989 0.02 0 0 0 1 2
3929 1 2.26146 2.82685 0.02 0 0 0 1 2
3926 1 2.05077 2.82201 0.02 0 0 0 1 2
3925 1 2.01998 2.63402 0.02 0 0 0 1 2
3928 1 2.24112 2.63978 0.02 0 0 0 1 2
3609 1 2.87073 2.64545 0.02 0 -6.5249e-26 -5.76918e-26 1 2
4069 1 1.66256 6.58197 0.02 0 -1.36216e-07 -7.945e-05 1 2
3611 1 2.92122 3.00191 0.02 0 -1.91016e-21 -4.69689e-22 1 2
3610 1 2.93183 2.82219 0.02 0 -8.42052e-23 -6.26989e-23 1 2
3955 1 1.776 3.56052 0.02 0 0 0 1 2
3939 1 1.76838 3.36887 0.02 0 0 0 1 2
3941 1 1.98427 3.36398 0.02 0 0 0 1 2
3943 1 2.19316 3.3779 0.02 0 0 0 1 2
3942 1 2.13682 3.18899 0.02 0 0 0 1 2
3940 1 1.91249 3.18551 0.02 0 0 0 1 2
3618 1 2.83741 3.36529 0.02 0 -9.59508e-21 -1.24417e-21 1 2
3920 1 1.62512 2.81234 0.02 0 0 0 1 2
3892 1 1.69729 1.90075 0.02 0 0 0 1 2
451 2 2 9.6 0 0 0 0 1 5
485 2 2 9.8 0 0 0 0 1 5
3958 1 2.08467 3.72623 0.02 0 0 0 1 2
3957 1 1.99043 3.55293 0.02 0 0 0 1 2
3959 1 2.22412 3.56471 0.02 0 0 0 1 2
3956 1 1.86278 3.73891 0.02 0 0 0 1 2
3624 1 2.92659 3.73126 0.02 0 -2.3794e-20 2.23067e-21 1 2
3623 1 2.89927 3.54263 0.02 0 -1.58986e-20 1.18615e-21 1 2
3907 1 1.72998 2.4568 0.02 0 0 0 1 2
3906 1 1.76224 2.27066 0.02 0 0 0 1 2
3876 1 1.72751 1.51012 0.02 0 0 0 1 2
3971 1 2.07641 3.91626 0.02 0 0 0 1 2
3974 1 1.94743 4.11587 0.02 0 0 0 1 2
3976 1 1.98823 4.31238 0.02 0 0 0 1 2
3978 1 2.18333 4.30473 0.02 0 0 0 1 2
3977 1 2.15331 4.10482 0.02 0 0 0 1 2
3972 1 1.86907 3.93074 0.02 0 0 0 1 2
3630 1 2.94493 3.92393 0.02 0 -2.48219e-20 3.08536e-21 1 2
3919 1 1.58042 2.62794 0.02 0 0 0 1 2
3858 1 1.57214 1.04555 0.02 0 0 0 1 2
3874 1 1.73047 1.31259 0.02 0 0 0 1 2
3860 1 1.75728 1.11411 0.02 0 0 0 1 2
3993 1 2.02411 4.73345 0.02 0 0 0 1 2
3991 1 2.0061 4.51831 0.02 0 0 0 1 2
3994 1 2.19589 4.51124 0.02 0 0 0 1 2
3995 1 2.20938 4.72035 0.02 0 0 0 1 2
3638 1 2.96048 4.52537 0.02 0 -8.6274e-23 4.23268e-23 1 2
4066 1 1.61424 6.75189 0.02 0 -0.000318143 0.000163918 1 2
3975 1 1.7919 4.32136 0.02 0 0 0 1 2
4071 1 1.82925 6.7635 0.02 0 -0.00274972 0.000861532 1 2
4009 1 2.01686 5.21515 0.02 0 0 0 1 2
4007 1 2.01147 4.96807 0.02 0 0 0 1 2
4011 1 2.18939 5.14926 0.02 0 0 0 1 2
4010 1 2.18575 4.93068 0.02 0 0 0 1 2
3644 1 2.95053 4.93808 0.02 0 0 0 1 2
3842 1 1.60855 0.841408 0.02 0 0 0 1 2
3924 1 1.83794 3.00905 0.02 0 0 0 1 2
3923 1 1.84066 2.82233 0.02 0 0 0 1 2
4023 1 2.01578 5.44482 0.02 0 0 0 1 2
4025 1 2.18942 5.36979 0.02 0 0 0 1 2
4026 1 2.20962 5.58605 0.02 0 0 0 1 2
4051 1 1.60829 6.22574 0.02 0 1.90342e-10 -5.12309e-10 1 2
3650 1 2.95895 5.35448 0.02 0 -7.71741e-18 3.77884e-18 1 2
3922 1 1.80319 2.63653 0.02 0 0 0 1 2
3859 1 1.79322 0.914402 0.02 0 0 0 1 2
4043 1 2.22576 5.99016 0.02 0 6.25238e-08 -1.54551e-07 1 2
4042 1 2.24076 5.79369 0.02 0 6.53274e-11 -1.43934e-10 1 2
4037 1 2.03223 5.65885 0.02 0 0 0 1 2
4039 1 2.04372 5.85364 0.02 0 1.7104e-10 -4.29745e-10 1 2
4041 1 2.01105 6.038 0.02 0 7.696e-08 -2.52304e-07 1 2
3656 1 2.82413 5.75729 0.02 0 0 0 1 2
3657 1 2.82786 5.96719 0.02 0 0 0 1 2
4036 1 1.61246 6.03374 0.02 0 0 0 1 2
3843 1 1.64024 0.636197 0.02 0 0 0 1 2
4022 1 1.8293 5.4263 0.02 0 0 0 1 2
4006 1 1.83813 4.99884 0.02 0 0 0 1 2
4059 1 2.2649 6.35552 0.02 0 -7.81673e-05 -0.000268703 1 2
4058 1 2.25537 6.17183 0.02 0 7.15655e-06 -1.4532e-05 1 2
4057 1 2.06401 6.39197 0.02 0 5.5514e-05 -0.000135729 1 2
4055 1 2.04131 6.21544 0.02 0 4.969e-06 -1.07303e-05 1 2
4056 1 1.85164 6.39628 0.02 0 8.9692e-06 -3.7924e-05 1 2
3664 1 2.84272 6.17155 0.02 0 7.71299e-07 -8.66611e-07 1 2
3891 1 1.67739 2.09225 0.02 0 0 0 1 2
3873 1 1.68663 1.70407 0.02 0 0 0 1 2
3665 1 2.86056 6.37046 0.02 0 7.73202e-05 -5.89396e-05 1 2
4008 1 1.83451 5.21573 0.02 0 0 0 1 2
386 2 2.6 9.2 0 0 0 0 1 5
4073 1 2.07453 6.56733 0.02 0 -1.90855e-05 -0.000602999 1 2
4070 1 2.0332 6.74129 0.02 0 -0.00282587 0.00061507 1 2
4074 1 2.22676 6.74069 0.02 0 -0.00185057 0.000272565 1 2
4072 1 1.86725 6.5775 0.02 0 -9.12277e-05 -0.00037561 1 2
3672 1 2.82057 6.75255 0.02 0 -0.00291908 0.000236766 1 2
3830 1 1.69125 0.0123139 0.02 0 0 0 1 2
3827 1 1.66492 0.428482 0.02 0 0 0 1 2
3673 1 2.8386 6.56326 0.02 0 -0.00029157 -4.17232e-05 1 2
3992 1 1.84427 4.75966 0.02 0 0 0 1 2
3990 1 1.81827 4.5335 0.02 0 0 0 1 2
9 2 2 7 0 0 0 0 1.00011 5
10 2 2.2 7 0 0 0 0 0.996032 5
11 2 2.4 7 0 0 0 0 0.99034 5
43 2 2 7.2 0 0 0 0 0.999172 5
44 2 2.2 7.2 0 0 0 0 0.996654 5
45 2 2.4 7.2 0 0 0 0 0.990025 5
47 2 2.8 7.2 0 0 0 0 1.00387 5
13 2 2.8 7 0 0 0 0 1.00457 5
46 2 2.6 7.2 0 0 0 0 1.0113 5
12 2 2.6 7 0 0 0 0 1.00902 5
77 2 2 7.4 0 0 0 0 0.996298 5
145 2 2 7.8 0 0 0 0 1 5
146 2 2.2 7.8 0 0 0 0 1 5
79 2 2.4 7.4 0 0 0 0 0.990278 5
113 2 2.4 7.6 0 0 0 0 1 5
112 2 2.2 7.6 0 0 0 0 1 5
111 2 2 7.6 0 0 0 0 1 5
147 2 2.4 7.8 0 0 0 0 1 5
78 2 2.2 7.4 0 0 0 0 1.00108 5
115 2 2.8 7.6 0 0 0 0 1 5
81 2 2.8 7.4 0 0 0 0 1.00118 5
114 2 2.6 7.6 0 0 0 0 1 5
148 2 2.6 7.8 0 0 0 0 1 5
149 2 2.8 7.8 0 0 0 0 1 5
80 2 2.6 7.4 0 0 0 0 1.01261 5
215 2 2.4 8.2 0 0 0 0 1 5
214 2 2.2 8.2 0 0 0 0 1 5
213 2 2 8.2 0 0 0 0 1 5
181 2 2.4 8 0 0 0 0 1 5
180 2 2.2 8 0 0 0 0 1 5
179 2 2 8 0 0 0 0 1 5
217 2 2.8 8.2 0 0 0 0 1 5
216 2 2.6 8.2 0 0 0 0 1 5
183 2 2.8 8 0 0 0 0 1 5
182 2 2.6 8 0 0 0 0 1 5
282 2 2.2 8.6 0 0 0 0 1 5
283 2 2.4 8.6 0 0 0 0 1 5
247 2 2 8.4 0 0 0 0 1 5
248 2 2.2 8.4 0 0 0 0 1 5
249 2 2.4 8.4 0 0 0 0 1 5
281 2 2 8.6 0 0 0 0 1 5
250 2 2.6 8.4 0 0 0 0 1 5
251 2 2.8 8.4 0 0 0 0 1 5
284 2 2.6 8.6 0 0 0 0 1 5
285 2 2.8 8.6 0 0 0 0 1 5
351 2 2.4 9 0 0 0 0 1 5
350 2 2.2 9 0 0 0 0 1 5
349 2 2 9 0 0 0 0 1 5
317 2 2.4 8.8 0 0 0 0 1 5
316 2 2.2 8.8 0 0 0 0 1 5
315 2 2 8.8 0 0 0 0 1 5
353 2 2.8 9 0 0 0 0 1 5
318 2 2.6 8.8 0 0 0 0 1 5
319 2 2.8 8.8 0 0 0 0 1 5
352 2 2.6 9 0 0 0 0 1 5
383 2 2 9.2 0 0 0 0 1 5
385 2 2.4 9.2 0 0 0 0 1 5
419 2 2.4 9.4 0 0 0 0 1 5
384 2 2.2 9.2 0 0 0 0 1 5
417 2 2 9.4 0 0 0 0 1 5
418 2 2.2 9.4 0 0 0 0 1 5
387 2 2.8 9.2 0 0 0 0 1 5
421 2 2.8 9.4 0 0 0 0 1 5
420 2 2.6 9.4 0 0 0 0 1 5
3845 1 1.8225 0.711247 0.02 0 0 0 1 2
3826 1 1.6861 0.221767 0.02 0 0 0 1 2
4034 1 1.64009 5.83143 0.02 0 3.96858e-20 -1.50029e-17 1 2
3824 1 1.49694 0.14424 0.02 0 0 0 1 2
3857 1 1.53822 1.24909 0.02 0 0 0 1 2
3871 1 1.52769 1.45325 0.02 0 0 0 1 2
3888 1 1.4958 1.85706 0.02 0 0 0 1 2
3904 1 1.53558 2.25388 0.02 0 0 0 1 2
3905 1 1.51842 2.44255 0.02 0 0 0 1 2
4002 1 1.49915 4.95411 0.02 0 0 0 1 2
3937 1 1.54377 3.35276 0.02 0 0 0 1 2
3967 1 1.52524 4.09157 0.02 0 0 0 1 2
1583 2 3.2 -9.6 0 0 0 0 1 5
1582 2 3 -9.6 0 0 0 0 1 5
1549 2 3.2 -9.8 0 0 0 0 1 5
1548 2 3 -9.8 0 0 0 0 1 5
1515 2 3.2 -10 0 0 0 0 1 5
1514 2 3 -10 0 0 0 0 1 5
1584 2 3.4 -9.6 0 0 0 0 1 5
1550 2 3.4 -9.8 0 0 0 0 1 5
1516 2 3.4 -10 0 0 0 0 1 5
1586 2 3.8 -9.6 0 0 0 0 1 5
1585 2 3.6 -9.6 0 0 0 0 1 5
1552 2 3.8 -9.8 0 0 0 0 1 5
1551 2 3.6 -9.8 0 0 0 0 1 5
1518 2 3.8 -10 0 0 0 0 1 5
1517 2 3.6 -10 0 0 0 0 1 5
1588 2 4.2 -9.6 0 0 0 0 1 5
1587 2 4 -9.6 0 0 0 0 1 5
1554 2 4.2 -9.8 0 0 0 0 1 5
1553 2 4 -9.8 0 0 0 0 1 5
1520 2 4.2 -10 0 0 0 0 1 5
1519 2 4 -10 0 0 0 0 1 5
1616 2 3 -9.4 0 0 0 0 1 5
1617 2 3.2 -9.4 0 0 0 0 1 5
1651 2 3.2 -9.2 0 0 0 0 1 5
1650 2 3 -9.2 0 0 0 0 1 5
1652 2 3.4 -9.2 0 0 0 0 1 5
1618 2 3.4 -9.4 0 0 0 0 1 5
1653 2 3.6 -9.2 0 0 0 0 1 5
1654 2 3.8 -9.2 0 0 0 0 1 5
1620 2 3.8 -9.4 0 0 0 0 1 5
1619 2 3.6 -9.4 0 0 0 0 1 5
1622 2 4.2 -9.4 0 0 0 0 1 5
1655 2 4 -9.2 0 0 0 0 1 5
1656 2 4.2 -9.2 0 0 0 0 1 5
1621 2 4 -9.4 0 0 0 0 1 5
1719 2 3.2 -8.8 0 0 0 0 1 5
1718 2 3 -8.8 0 0 0 0 1 5
1685 2 3.2 -9 0 0 0 0 1 5
1684 2 3 -9 0 0 0 0 1 5
1686 2 3.4 -9 0 0 0 0 1 5
1720 2 3.4 -8.8 0 0 0 0 1 5
1687 2 3.6 -9 0 0 0 0 1 5
1688 2 3.8 -9 0 0 0 0 1 5
1721 2 3.6 -8.8 0 0 0 0 1 5
1722 2 3.8 -8.8 0 0 0 0 1 5
1689 2 4 -9 0 0 0 0 1 5
1690 2 4.2 -9 0 0 0 0 1 5
1723 2 4 -8.8 0 0 0 0 1 5
1724 2 4.2 -8.8 0 0 0 0 1 5
1752 2 3 -8.6 0 0 0 0 1 5
1753 2 3.2 -8.6 0 0 0 0 1 5
1786 2 3 -8.4 0 0 0 0 1 5
1787 2 3.2 -8.4 0 0 0 0 1 5
1754 2 3.4 -8.6 0 0 0 0 1 5
1788 2 3.4 -8.4 0 0 0 0 1 5
1755 2 3.6 -8.6 0 0 0 0 1 5
1756 2 3.8 -8.6 0 0 0 0 1 5
1789 2 3.6 -8.4 0 0 0 0 1 5
1790 2 3.8 -8.4 0 0 0 0 1 5
1757 2 4 -8.6 0 0 0 0 1 5
1758 2 4.2 -8.6 0 0 0 0 1 5
1791 2 4 -8.4 0 0 0 0 1 5
1792 2 4.2 -8.4 0 0 0 0 1 5
1820 2 3 -8.2 0 0 0 0 1 5
1821 2 3.2 -8.2 0 0 0 0 1 5
1854 2 3 -8 0 0 0 0 1 5
1855 2 3.2 -8 0 0 0 0 1 5
1822 2 3.4 -8.2 0 0 0 0 1 5
1856 2 3.4 -8 0 0 0 0 1 5
1823 2 3.6 -8.2 0 0 0 0 1 5
1824 2 3.8 -8.2 0 0 0 0 1 5
1857 2 3.6 -8 0 0 0 0 1 5
1858 2 3.8 -8 0 0 0 0 1 5
1825 2 4 -8.2 0 0 0 0 1 5
1826 2 4.2 -8.2 0 0 0 0 1 5