ITEM: TIMESTEP
52000
ITEM: NUMBER OF ATOMS
1389
ITEM: BOX BOUNDS ff ff pp
0.0000000000000000e+00 4.4000000000000004e+00
-1.0000000000000000e+01 1.0000000000000000e+01
-2.0000000000000000e-02 2.0000000000000000e-02
ITEM: ATOMS id type x y vx vy fx fy c_den c_phase
4713 1 0.813714 -6.73915 0.02 0 0 0 1 2
4715 1 0.847509 -6.55076 0.02 0 0 0 1 2
4714 1 1.01892 -6.76661 0.02 0 0 0 1 2
4716 1 1.03519 -6.57535 0.02 0 0 0 1 2
4717 1 1.23461 -6.74572 0.02 0 -6.67691e-21 -8.26047e-21 1 2
4719 1 1.22812 -6.56407 0.02 0 -4.57207e-13 -1.59503e-13 1 2
4718 1 1.43309 -6.75043 0.02 0 -2.77547e-06 -1.55702e-06 1 2
4720 1 1.43566 -6.56481 0.02 0 -6.17979e-10 1.87255e-08 1 2
4647 1 0.919952 -1.41351 0.02 0 0 0 1 2
4616 1 0.844718 -0.808962 0.02 0 0 0 1 2
4610 1 1.40732 -0.618916 0.02 0 0 0 1 2
4729 1 0.867402 -6.35963 0.02 0 0 0 1 2
4730 1 0.898697 -6.17071 0.02 0 0 0 1 2
4731 1 1.06276 -6.37801 0.02 0 0 0 1 2
4732 1 1.09165 -6.17475 0.02 0 0 0 1 2
4733 1 1.25762 -6.37882 0.02 0 0 0 1 2
4735 1 1.28304 -6.18522 0.02 0 0 0 1 2
4734 1 1.45026 -6.37692 0.02 0 5.85829e-10 1.3919e-08 1 2
4736 1 1.47755 -6.18093 0.02 0 2.60862e-11 3.39639e-10 1 2
4648 1 0.937993 -1.62282 0.02 0 0 0 1 2
4599 1 0.971357 -0.196512 0.02 0 0 0 1 2
4613 1 1.24318 -0.832632 0.02 0 0 0 1 2
4745 1 0.889805 -5.9796 0.02 0 0 0 1 2
4746 1 0.87906 -5.78431 0.02 0 0 0 1 2
4747 1 1.08972 -5.97299 0.02 0 0 0 1 2
4748 1 1.07604 -5.77559 0.02 0 0 0 1 2
4749 1 1.28614 -5.98699 0.02 0 0 0 1 2
4750 1 1.27113 -5.78504 0.02 0 0 0 1 2
4751 1 1.4659 -5.78886 0.02 0 0 0 1 2
4752 1 1.48244 -5.9853 0.02 0 0 0 1 2
4626 1 1.45996 -1.24399 0.02 0 0 0 1 2
4625 1 1.45381 -1.03348 0.02 0 0 0 1 2
4761 1 0.825729 -5.58762 0.02 0 0 0 1 2
4762 1 0.802373 -5.39266 0.02 0 0 0 1 2
4763 1 1.00929 -5.39695 0.02 0 0 0 1 2
4764 1 1.03142 -5.58573 0.02 0 0 0 1 2
4765 1 1.23975 -5.58705 0.02 0 0 0 1 2
4767 1 1.21951 -5.39695 0.02 0 0 0 1 2
4766 1 1.44336 -5.59168 0.02 0 0 0 1 2
4768 1 1.43012 -5.39862 0.02 0 0 0 1 2
4627 1 1.25926 -1.03504 0.02 0 0 0 1 2
4628 1 1.06198 -1.02554 0.02 0 0 0 1 2
4660 1 1.39085 -2.13736 0.02 0 0 0 1 2
4778 1 0.848509 -4.83834 0.02 0 0 0 1 2
4777 1 1.00583 -5.20967 0.02 0 0 0 1 2
4779 1 1.02812 -5.02856 0.02 0 0 0 1 2
4780 1 1.07138 -4.85148 0.02 0 0 0 1 2
4781 1 1.22586 -5.21235 0.02 0 0 0 1 2
4782 1 1.25611 -5.03345 0.02 0 0 0 1 2
4783 1 1.29388 -4.85243 0.02 0 0 0 1 2
4784 1 1.45816 -5.21635 0.02 0 0 0 1 2
4785 1 1.47611 -5.03667 0.02 0 0 0 1 2
4663 1 1.00619 -2.04609 0.02 0 0 0 1 2
4629 1 1.27126 -1.24415 0.02 0 0 0 1 2
4630 1 1.07783 -1.23077 0.02 0 0 0 1 2
4609 1 1.44128 -0.826347 0.02 0 0 0 1 2
4794 1 0.840672 -4.65017 0.02 0 0 0 1 2
4795 1 0.844998 -4.462 0.02 0 0 0 1 2
4796 1 1.04512 -4.66649 0.02 0 0 0 1 2
4797 1 1.07274 -4.48385 0.02 0 0 0 1 2
4798 1 1.25368 -4.66888 0.02 0 0 0 1 2
4799 1 1.30933 -4.49172 0.02 0 0 0 1 2
4800 1 1.47376 -4.67305 0.02 0 0 0 1 2
4662 1 0.9794 -1.83614 0.02 0 0 0 1 2
4643 1 1.3015 -1.46824 0.02 0 0 0 1 2
4614 1 1.04372 -0.819929 0.02 0 0 0 1 2
4808 1 0.860684 -4.27373 0.02 0 0 0 1 2
4809 1 0.871052 -4.08309 0.02 0 0 0 1 2
4810 1 1.06428 -4.3006 0.02 0 0 0 1 2
4811 1 1.08871 -4.11551 0.02 0 0 0 1 2
4812 1 1.27241 -4.3071 0.02 0 0 0 1 2
4814 1 1.09739 -3.92505 0.02 0 0 0 1 2
4813 1 1.30478 -4.11797 0.02 0 0 0 1 2
4815 1 1.29467 -3.92102 0.02 0 0 0 1 2
4816 1 1.48229 -4.32272 0.02 0 0 0 1 2
4661 1 1.20078 -2.07835 0.02 0 0 0 1 2
4632 1 0.880517 -1.20811 0.02 0 0 0 1 2
4611 1 1.21616 -0.628898 0.02 0 0 0 1 2
4820 1 1.49024 -3.93088 0.02 0 0 0 1 2
4631 1 0.861601 -1.00736 0.02 0 0 0 1 2
4829 1 0.845671 -3.68365 0.02 0 0 0 1 2
4828 1 0.897963 -3.89073 0.02 0 0 0 1 2
4830 1 1.0245 -3.52888 0.02 0 0 0 1 2
4831 1 1.04849 -3.72616 0.02 0 0 0 1 2
4832 1 1.24805 -3.72231 0.02 0 0 0 1 2
4833 1 1.2262 -3.52264 0.02 0 0 0 1 2
4834 1 1.43118 -3.52872 0.02 0 0 0 1 2
4835 1 1.44685 -3.72594 0.02 0 0 0 1 2
4598 1 1.1597 -0.204515 0.02 0 0 0 1 2
4640 1 1.48312 -1.45769 0.02 0 0 0 1 2
4711 1 0.832133 -3.25575 0.02 0 0 0 1 2
4712 1 0.831462 -3.47088 0.02 0 0 0 1 2
4707 1 1.21902 -3.1147 0.02 0 0 0 1 2
4708 1 1.02942 -3.13149 0.02 0 0 0 1 2
4709 1 1.23124 -3.32346 0.02 0 0 0 1 2
4710 1 1.02445 -3.33168 0.02 0 0 0 1 2
4645 1 1.31138 -1.6947 0.02 0 0 0 1 2
4642 1 1.49394 -1.6724 0.02 0 0 0 1 2
4705 1 1.44305 -3.33918 0.02 0 0 0 1 2
4706 1 1.41135 -3.14803 0.02 0 0 0 1 2
4612 1 1.02221 -0.613201 0.02 0 0 0 1 2
4695 1 0.859427 -2.62755 0.02 0 0 0 1 2
4697 1 0.854954 -3.0408 0.02 0 0 0 1 2
4690 1 1.04692 -2.68472 0.02 0 0 0 1 2
4691 1 1.23531 -2.7004 0.02 0 0 0 1 2
4693 1 1.23754 -2.90633 0.02 0 0 0 1 2
4694 1 1.04809 -2.91284 0.02 0 0 0 1 2
4696 1 0.870456 -2.83279 0.02 0 0 0 1 2
4646 1 1.12772 -1.64492 0.02 0 0 0 1 2
4644 1 1.11621 -1.43509 0.02 0 0 0 1 2
4689 1 1.42638 -2.75172 0.02 0 0 0 1 2
4692 1 1.43116 -2.95325 0.02 0 0 0 1 2
4595 1 1.37233 -0.411655 0.02 0 0 0 1 2
4600 1 0.989643 -0.406124 0.02 0 0 0 1 2
4679 1 0.829722 -2.21217 0.02 0 0 0 1 2
4680 1 0.836914 -2.4215 0.02 0 0 0 1 2
4674 1 1.2157 -2.28702 0.02 0 0 0 1 2
4676 1 1.22174 -2.49265 0.02 0 0 0 1 2
4677 1 1.03001 -2.46414 0.02 0 0 0 1 2
4678 1 1.02098 -2.25416 0.02 0 0 0 1 2
4615 1 0.82432 -0.609091 0.02 0 0 0 1 2
4659 1 1.17091 -1.86398 0.02 0 0 0 1 2
4673 1 1.41213 -2.3438 0.02 0 0 0 1 2
4675 1 1.41379 -2.54709 0.02 0 0 0 1 2
4597 1 1.18094 -0.418584 0.02 0 0 0 1 2
4596 1 1.34801 -0.202375 0.02 0 0 0 1 2
4664 1 0.813016 -2.0009 0.02 0 0 0 1 2
4658 1 1.3567 -1.9211 0.02 0 0 0 1 2
4587 1 0.950729 0.0152087 0.02 0 0 0 1 2
4588 1 0.985661 0.224259 0.02 0 0 0 1 2
4589 1 1.17888 0.216003 0.02 0 0 0 1 2
4590 1 1.17364 0.424276 0.02 0 0 0 1 2
4591 1 1.13938 0.00901173 0.02 0 0 0 1 2
4592 1 1.32775 0.0146403 0.02 0 0 0 1 2
4593 1 1.36583 0.243059 0.02 0 0 0 1 2
4787 1 1.48887 5.46271 0.02 0 0 0 1 2
4769 1 1.47036 5.07323 0.02 0 0 0 1 2
4785 1 1.48265 5.27131 0.02 0 0 0 1 2
4825 1 1.0114 6.76472 0.02 0 0 0 1 2
4779 1 1.27455 5.25264 0.02 0 0 0 1 2
4603 1 0.982773 0.434965 0.02 0 0 0 1 2
4604 1 0.985701 0.645737 0.02 0 0 0 1 2
4605 1 0.993336 0.853529 0.02 0 0 0 1 2
4606 1 1.17812 0.634414 0.02 0 0 0 1 2
4607 1 1.18461 0.848641 0.02 0 0 0 1 2
4608 1 1.36206 0.465903 0.02 0 0 0 1 2
4609 1 1.36613 0.683296 0.02 0 0 0 1 2
4816 1 1.37112 6.37171 0.02 0 0 0 1 2
4765 1 1.07544 5.04711 0.02 0 0 0 1 2
4763 1 1.10794 4.84671 0.02 0 0 0 1 2
4762 1 0.870568 5.19135 0.02 0 0 0 1 2
4619 1 0.979383 1.05801 0.02 0 0 0 1 2
4620 1 0.981214 1.26198 0.02 0 0 0 1 2
4621 1 1.17139 1.06422 0.02 0 0 0 1 2
4622 1 1.17002 1.27921 0.02 0 0 0 1 2
4625 1 1.35689 1.29997 0.02 0 0 0 1 2
4623 1 1.37307 0.88937 0.02 0 0 0 1 2
4624 1 1.3614 1.09195 0.02 0 0 0 1 2
4761 1 0.888501 4.9823 0.02 0 0 0 1 2
4811 1 0.925774 6.22219 0.02 0 0 0 1 2
4812 1 0.944189 6.4045 0.02 0 0 0 1 2
4813 1 1.13353 6.20041 0.02 0 0 0 1 2
4766 1 1.27264 5.05907 0.02 0 0 0 1 2
4636 1 0.933559 1.46151 0.02 0 0 0 1 2
4637 1 0.939861 1.66141 0.02 0 0 0 1 2
4638 1 1.12716 1.48506 0.02 0 0 0 1 2
4639 1 1.15224 1.68567 0.02 0 0 0 1 2
4640 1 1.32212 1.50668 0.02 0 0 0 1 2
4641 1 1.36541 1.70509 0.02 0 0 0 1 2
4764 1 1.30405 4.86415 0.02 0 0 0 1 2
4780 1 1.06565 5.2438 0.02 0 0 0 1 2
4815 1 1.16323 6.37909 0.02 0 0 0 1 2
4830 1 1.37279 6.55988 0.02 0 -1.81838e-10 6.67633e-11 1 2
4650 1 0.97843 1.85478 0.02 0 0 0 1 2
4651 1 0.956231 2.04403 0.02 0 0 0 1 2
4652 1 1.18797 1.8791 0.02 0 0 0 1 2
4653 1 1.17618 2.07045 0.02 0 0 0 1 2
4654 1 1.39824 1.89882 0.02 0 0 0 1 2
4655 1 1.38981 2.09218 0.02 0 0 0 1 2
4781 1 1.0826 5.4397 0.02 0 0 0 1 2
4777 1 0.889395 5.40931 0.02 0 0 0 1 2
4782 1 1.28502 5.44311 0.02 0 0 0 1 2
4783 1 1.05482 5.63138 0.02 0 0 0 1 2
4664 1 0.821991 2.39441 0.02 0 0 0 1 2
4665 1 0.835484 2.5827 0.02 0 0 0 1 2
4666 1 1.00847 2.22999 0.02 0 0 0 1 2
4667 1 1.22837 2.26125 0.02 0 0 0 1 2
4668 1 1.04401 2.41719 0.02 0 0 0 1 2
4669 1 1.26044 2.45268 0.02 0 0 0 1 2
4670 1 1.04089 2.60767 0.02 0 0 0 1 2
4671 1 1.44547 2.28011 0.02 0 0 0 1 2
4797 1 0.883669 5.83395 0.02 0 0 0 1 2
4673 1 1.46962 2.4728 0.02 0 0 0 1 2
4798 1 0.919918 6.03142 0.02 0 0 0 1 2
4679 1 0.822365 2.77537 0.02 0 0 0 1 2
4680 1 0.806275 2.96941 0.02 0 0 0 1 2
4681 1 1.00584 2.99882 0.02 0 0 0 1 2
4682 1 1.24552 2.64459 0.02 0 0 0 1 2
4683 1 1.0293 2.80212 0.02 0 0 0 1 2
4684 1 1.23193 2.83916 0.02 0 0 0 1 2
4685 1 1.20362 3.03534 0.02 0 0 0 1 2
4686 1 1.45563 2.6637 0.02 0 0 0 1 2
4687 1 1.4352 2.85568 0.02 0 0 0 1 2
4799 1 1.0839 5.82225 0.02 0 0 0 1 2
4801 1 1.11855 6.01246 0.02 0 0 0 1 2
4784 1 1.26523 5.62895 0.02 0 0 0 1 2
4827 1 1.39621 6.75439 0.02 0 -5.88539e-07 3.08094e-07 1 2
4829 1 1.16117 6.5555 0.02 0 0 0 1 2
4699 1 0.803589 3.16915 0.02 0 0 0 1 2
4700 1 0.812647 3.37484 0.02 0 0 0 1 2
4701 1 1.00243 3.20054 0.02 0 0 0 1 2
4702 1 1.00659 3.40503 0.02 0 0 0 1 2
4703 1 1.2025 3.23538 0.02 0 0 0 1 2
4704 1 1.19963 3.43993 0.02 0 0 0 1 2
4705 1 1.40759 3.04792 0.02 0 0 0 1 2
4706 1 1.40614 3.24229 0.02 0 0 0 1 2
4707 1 1.39374 3.44129 0.02 0 0 0 1 2
4778 1 0.859629 5.62531 0.02 0 0 0 1 2
4802 1 1.31901 5.99766 0.02 0 0 0 1 2
4828 1 1.20708 6.72909 0.02 0 -2.08928e-12 2.00225e-12 1 2
4826 1 0.958159 6.58449 0.02 0 0 0 1 2
4716 1 0.85012 3.58294 0.02 0 0 0 1 2
4717 1 0.883388 3.789 0.02 0 0 0 1 2
4718 1 1.0518 3.61296 0.02 0 0 0 1 2
4719 1 1.25631 3.64472 0.02 0 0 0 1 2
4720 1 1.08112 3.8167 0.02 0 0 0 1 2
4721 1 1.28024 3.84819 0.02 0 0 0 1 2
4722 1 1.46031 3.63092 0.02 0 0 0 1 2
4800 1 1.29377 5.81132 0.02 0 0 0 1 2
4724 1 1.48144 3.82453 0.02 0 0 0 1 2
4790 1 1.48836 5.64708 0.02 0 0 0 1 2
4731 1 0.910361 3.99507 0.02 0 0 0 1 2
4732 1 0.919636 4.19723 0.02 0 0 0 1 2
4733 1 1.10602 4.02299 0.02 0 0 0 1 2
4735 1 1.12233 4.22758 0.02 0 0 0 1 2
4734 1 1.30376 4.0519 0.02 0 0 0 1 2
4736 1 1.32097 4.25642 0.02 0 0 0 1 2
4751 1 1.33315 4.66681 0.02 0 0 0 1 2
4814 1 1.34456 6.1851 0.02 0 0 0 1 2
4749 1 1.34473 4.46491 0.02 0 0 0 1 2
4750 1 1.13774 4.64357 0.02 0 0 0 1 2
4745 1 0.957946 4.39304 0.02 0 0 0 1 2
4746 1 0.945584 4.58718 0.02 0 0 0 1 2
4747 1 0.918253 4.78246 0.02 0 0 0 1 2
4748 1 1.15432 4.43607 0.02 0 0 0 1 2
1509 2 2 -10 0 0 0 0 1 5
1510 2 2.2 -10 0 0 0 0 1 5
1511 2 2.4 -10 0 0 0 0 1 5
1543 2 2 -9.8 0 0 0 0 1 5
1544 2 2.2 -9.8 0 0 0 0 1 5
1545 2 2.4 -9.8 0 0 0 0 1 5
1577 2 2 -9.6 0 0 0 0 1 5
1578 2 2.2 -9.6 0 0 0 0 1 5
1579 2 2.4 -9.6 0 0 0 0 1 5
1512 2 2.6 -10 0 0 0 0 1 5
1513 2 2.8 -10 0 0 0 0 1 5
1546 2 2.6 -9.8 0 0 0 0 1 5
1547 2 2.8 -9.8 0 0 0 0 1 5
1580 2 2.6 -9.6 0 0 0 0 1 5
1581 2 2.8 -9.6 0 0 0 0 1 5
1645 2 2 -9.2 0 0 0 0 1 5
1646 2 2.2 -9.2 0 0 0 0 1 5
1647 2 2.4 -9.2 0 0 0 0 1 5
1613 2 2.4 -9.4 0 0 0 0 1 5
1612 2 2.2 -9.4 0 0 0 0 1 5
1611 2 2 -9.4 0 0 0 0 1 5
1648 2 2.6 -9.2 0 0 0 0 1 5
1649 2 2.8 -9.2 0 0 0 0 1 5
1615 2 2.8 -9.4 0 0 0 0 1 5
1614 2 2.6 -9.4 0 0 0 0 1 5
1679 2 2 -9 0 0 0 0 1 5
1680 2 2.2 -9 0 0 0 0 1 5
1681 2 2.4 -9 0 0 0 0 1 5
1713 2 2 -8.8 0 0 0 0 1 5
1714 2 2.2 -8.8 0 0 0 0 1 5
1715 2 2.4 -8.8 0 0 0 0 1 5
1682 2 2.6 -9 0 0 0 0 1 5
1683 2 2.8 -9 0 0 0 0 1 5
1716 2 2.6 -8.8 0 0 0 0 1 5
1717 2 2.8 -8.8 0 0 0 0 1 5
1783 2 2.4 -8.4 0 0 0 0 1 5
1782 2 2.2 -8.4 0 0 0 0 1 5
1781 2 2 -8.4 0 0 0 0 1 5
1747 2 2 -8.6 0 0 0 0 1 5
1748 2 2.2 -8.6 0 0 0 0 1 5
1749 2 2.4 -8.6 0 0 0 0 1 5
1785 2 2.8 -8.4 0 0 0 0 1 5
1784 2 2.6 -8.4 0 0 0 0 1 5
1750 2 2.6 -8.6 0 0 0 0 1 5
1751 2 2.8 -8.6 0 0 0 0 1 5
1851 2 2.4 -8 0 0 0 0 1 5
1850 2 2.2 -8 0 0 0 0 1 5
1849 2 2 -8 0 0 0 0 1 5
1817 2 2.4 -8.2 0 0 0 0 1 5
1816 2 2.2 -8.2 0 0 0 0 1 5
1815 2 2 -8.2 0 0 0 0 1 5
1853 2 2.8 -8 0 0 0 0 1 5
1852 2 2.6 -8 0 0 0 0 1 5
1819 2 2.8 -8.2 0 0 0 0 1 5
1818 2 2.6 -8.2 0 0 0 0 1 5
1953 2 2.4 -7.4 0 0 0 0 0.989646 5
1952 2 2.2 -7.4 0 0 0 0 1.00137 5
1951 2 2 -7.4 0 0 0 0 0.99645 5
1919 2 2.4 -7.6 0 0 0 0 1 5
1918 2 2.2 -7.6 0 0 0 0 1 5
1917 2 2 -7.6 0 0 0 0 1 5
1885 2 2.4 -7.8 0 0 0 0 1 5
1884 2 2.2 -7.8 0 0 0 0 1 5
1883 2 2 -7.8 0 0 0 0 1 5
1955 2 2.8 -7.4 0 0 0 0 1.00064 5
1954 2 2.6 -7.4 0 0 0 0 1.01183 5
1921 2 2.8 -7.6 0 0 0 0 1 5
1920 2 2.6 -7.6 0 0 0 0 1 5
1887 2 2.8 -7.8 0 0 0 0 1 5
1886 2 2.6 -7.8 0 0 0 0 1 5
2021 2 2.4 -7 0 0 0 0 0.990805 5
2020 2 2.2 -7 0 0 0 0 0.996522 5
2019 2 2 -7 0 0 0 0 1.00022 5
1987 2 2.4 -7.2 0 0 0 0 0.989799 5
1986 2 2.2 -7.2 0 0 0 0 0.997317 5
1985 2 2 -7.2 0 0 0 0 0.999453 5
2023 2 2.8 -7 0 0 0 0 1.00368 5
2022 2 2.6 -7 0 0 0 0 1.00845 5
1989 2 2.8 -7.2 0 0 0 0 1.00258 5
1988 2 2.6 -7.2 0 0 0 0 1.01057 5
4728 1 2.23569 -6.55023 0.02 0 0.00036074 0.000547523 1 2
4726 1 2.22387 -6.74294 0.02 0 -0.00215027 -0.000375289 1 2
4727 1 2.04608 -6.55608 0.02 0 8.61203e-05 0.000481484 1 2
4725 1 2.02203 -6.73676 0.02 0 -0.00304028 -0.000687023 1 2
4724 1 1.84774 -6.56544 0.02 0 -5.88222e-05 0.000217456 1 2
4446 1 2.81144 -6.75162 0.02 0 -0.00321187 -0.000172616 1 2
4657 1 1.57441 -2.11748 0.02 0 0 0 1 2
4672 1 1.60449 -2.55829 0.02 0 0 0 1 2
4447 1 2.82433 -6.54926 0.02 0 -0.000357916 2.43552e-05 1 2
4605 1 1.8183 -0.821662 0.02 0 0 0 1 2
4606 1 1.78218 -0.598796 0.02 0 0 0 1 2
4744 1 2.25311 -6.15293 0.02 0 1.77948e-06 1.05911e-05 1 2
4742 1 2.215 -6.35117 0.02 0 9.81316e-05 0.000135926 1 2
4741 1 2.01943 -6.36836 0.02 0 4.7655e-05 7.3338e-05 1 2
4743 1 2.06005 -6.17118 0.02 0 1.70777e-06 5.15875e-06 1 2
4740 1 1.86488 -6.181 0.02 0 1.79878e-07 1.54347e-06 1 2
4462 1 2.82798 -6.16727 0.02 0 4.75224e-07 6.3409e-07 1 2
4641 1 1.67949 -1.70098 0.02 0 0 0 1 2
4670 1 1.60598 -2.34155 0.02 0 0 0 1 2
4463 1 2.82579 -6.35803 0.02 0 1.09221e-05 1.12778e-05 1 2
4621 1 1.83471 -1.28045 0.02 0 0 0 1 2
4622 1 1.82709 -1.05121 0.02 0 0 0 1 2
4760 1 2.25855 -5.75702 0.02 0 9.23707e-12 1.56976e-11 1 2
4758 1 2.25282 -5.95431 0.02 0 5.26362e-09 3.12228e-08 1 2
4757 1 2.05822 -5.97154 0.02 0 3.36318e-09 2.15109e-08 1 2
4759 1 2.05888 -5.77485 0.02 0 4.74226e-12 2.87155e-11 1 2
4754 1 1.86435 -5.98631 0.02 0 6.97981e-10 1.04389e-08 1 2
4756 1 1.85968 -5.78722 0.02 0 3.98205e-13 5.57272e-12 1 2
4704 1 1.65675 -3.36021 0.02 0 0 0 1 2
4688 1 1.63261 -2.9752 0.02 0 0 0 1 2
4478 1 2.82715 -5.9733 0.02 0 1.91525e-09 4.10921e-09 1 2
4477 1 2.86848 -5.78448 0.02 0 1.37278e-11 3.10763e-11 1 2
4637 1 1.84529 -1.50825 0.02 0 0 0 1 2
4671 1 1.7945 -2.55237 0.02 0 0 0 1 2
4773 1 2.05138 -5.5831 0.02 0 0 0 1 2
4775 1 1.92335 -5.2199 0.02 0 0 0 1 2
4774 1 2.10177 -5.40162 0.02 0 0 0 1 2
4776 1 2.13428 -5.21781 0.02 0 0 0 1 2
4772 1 1.87537 -5.40096 0.02 0 0 0 1 2
4654 1 1.71121 -1.93371 0.02 0 0 0 1 2
4656 1 1.76 -2.153 0.02 0 0 0 1 2
4493 1 2.89526 -5.5962 0.02 0 0 0 1 2
4492 1 2.9276 -5.4058 0.02 0 -3.93312e-22 -7.28463e-22 1 2
4591 1 1.75471 -0.383144 0.02 0 0 0 1 2
4686 1 1.61766 -2.77288 0.02 0 0 0 1 2
4791 1 1.94545 -4.85207 0.02 0 0 0 1 2
4792 1 2.12273 -5.0319 0.02 0 0 0 1 2
4793 1 2.16845 -4.85434 0.02 0 0 0 1 2
4790 1 1.90539 -5.03303 0.02 0 0 0 1 2
4510 1 2.81048 -4.80548 0.02 0 -5.58184e-26 -2.64615e-26 1 2
4702 1 1.61538 -3.17037 0.02 0 0 0 1 2
4505 1 2.93929 -5.2108 0.02 0 -3.14894e-18 -1.43259e-18 1 2
4607 1 1.5964 -0.615255 0.02 0 0 0 1 2
4669 1 1.80313 -2.35355 0.02 0 0 0 1 2
4687 1 1.83525 -2.95815 0.02 0 0 0 1 2
4806 1 2.2004 -4.67763 0.02 0 0 0 1 2
4805 1 1.96597 -4.49409 0.02 0 0 0 1 2
4804 1 1.95849 -4.67505 0.02 0 0 0 1 2
4807 1 2.16958 -4.50029 0.02 0 0 0 1 2
4639 1 1.66528 -1.47825 0.02 0 0 0 1 2
4838 1 1.64302 -3.54809 0.02 0 0 0 1 2
4525 1 2.84344 -4.60871 0.02 0 -3.47059e-24 -9.7386e-25 1 2
4523 1 2.84674 -4.42187 0.02 0 -1.34496e-23 -7.5261e-25 1 2
4685 1 1.80692 -2.756 0.02 0 0 0 1 2
4608 1 1.63343 -0.829479 0.02 0 0 0 1 2
4824 1 1.93066 -4.12772 0.02 0 0 0 1 2
4823 1 1.92564 -4.31213 0.02 0 0 0 1 2
4827 1 2.09459 -3.95743 0.02 0 0 0 1 2
4826 1 2.14864 -4.13913 0.02 0 0 0 1 2
4825 1 2.16061 -4.31783 0.02 0 0 0 1 2
4822 1 1.89279 -3.93179 0.02 0 0 0 1 2
4543 1 2.81095 -4.05469 0.02 0 -1.54954e-23 -1.32854e-24 1 2
4721 1 1.62654 -6.74604 0.02 0 -0.000328738 -0.000138981 1 2
4836 1 1.64845 -3.73604 0.02 0 0 0 1 2
4542 1 2.83206 -4.23899 0.02 0 -6.72936e-24 1.13654e-24 1 2
4701 1 1.82109 -3.15337 0.02 0 0 0 1 2
4770 1 1.84579 -5.58955 0.02 0 0 0 1 2
4841 1 2.06565 -3.57722 0.02 0 0 0 1 2
4840 1 2.07163 -3.76644 0.02 0 0 0 1 2
4837 1 1.85874 -3.73478 0.02 0 0 0 1 2
4839 1 1.85644 -3.54144 0.02 0 0 0 1 2
4819 1 1.72151 -4.11233 0.02 0 0 0 1 2
4557 1 2.93324 -3.83444 0.02 0 -2.72755e-21 -4.0176e-22 1 2
4558 1 2.91061 -3.64157 0.02 0 -6.61035e-21 -4.18174e-22 1 2
4803 1 1.759 -4.48365 0.02 0 0 0 1 2
4698 1 2.22811 -3.18414 0.02 0 0 0 1 2
4700 1 2.06379 -3.38146 0.02 0 0 0 1 2
4699 1 2.02628 -3.17868 0.02 0 0 0 1 2
4703 1 1.86199 -3.34695 0.02 0 0 0 1 2
4575 1 2.81948 -3.0552 0.02 0 -6.06722e-24 2.78138e-24 1 2
4821 1 1.69057 -3.92273 0.02 0 0 0 1 2
4802 1 1.71631 -4.66598 0.02 0 0 0 1 2
4788 1 1.68983 -5.02973 0.02 0 0 0 1 2
4572 1 2.91735 -3.4454 0.02 0 -3.65236e-21 4.34334e-22 1 2
4571 1 2.86245 -3.25437 0.02 0 -1.35823e-22 4.33811e-23 1 2
4738 1 1.82567 -6.37314 0.02 0 6.28701e-06 1.13537e-05 1 2
4683 1 2.23744 -2.9818 0.02 0 0 0 1 2
4684 1 2.04019 -2.98033 0.02 0 0 0 1 2
4682 1 2.00059 -2.78375 0.02 0 0 0 1 2
4681 1 2.18943 -2.76838 0.02 0 0 0 1 2
4787 1 1.70448 -5.21105 0.02 0 0 0 1 2
4789 1 1.72842 -4.84693 0.02 0 0 0 1 2
4439 1 2.92125 -2.64892 0.02 0 0 0 1 2
4722 1 1.82585 -6.75916 0.02 0 -0.00251892 -0.000725303 1 2
4587 1 2.14713 -0.318944 0.02 0 0 0 1 2
4668 1 1.98923 -2.58323 0.02 0 0 0 1 2
4666 1 1.9973 -2.37813 0.02 0 0 0 1 2
4667 1 2.17526 -2.54253 0.02 0 0 0 1 2
4665 1 2.17016 -2.30904 0.02 0 0 0 1 2
4424 1 2.83726 -2.20819 0.02 0 -1.36208e-27 -4.6477e-28 1 2
4426 1 2.8789 -2.4387 0.02 0 0 0 1 2
4818 1 1.69875 -4.30065 0.02 0 0 0 1 2
4771 1 1.64613 -5.38031 0.02 0 0 0 1 2
4589 1 1.92451 -0.167125 0.02 0 0 0 1 2
4588 1 1.94881 -0.370969 0.02 0 0 0 1 2
4342 1 2.80152 -0.140001 0.02 0 -7.73836e-22 2.32763e-23 1 2
4649 1 2.23882 -1.84906 0.02 0 0 0 1 2
4650 1 2.06427 -1.89427 0.02 0 0 0 1 2
4652 1 1.95262 -2.16444 0.02 0 0 0 1 2
4651 1 2.12744 -2.1014 0.02 0 0 0 1 2
4653 1 1.89309 -1.95318 0.02 0 0 0 1 2
4769 1 1.64445 -5.5651 0.02 0 0 0 1 2
4624 1 1.64898 -1.26074 0.02 0 0 0 1 2
4406 1 2.82701 -1.98574 0.02 0 0 0 1 2
4592 1 1.7293 -0.170696 0.02 0 0 0 1 2
4623 1 1.64327 -1.04626 0.02 0 0 0 1 2
4635 1 2.01886 -1.45199 0.02 0 0 0 1 2
4636 1 2.03452 -1.67593 0.02 0 0 0 1 2
4634 1 2.20417 -1.61635 0.02 0 0 0 1 2
4633 1 2.18288 -1.37464 0.02 0 0 0 1 2
4638 1 1.86091 -1.733 0.02 0 0 0 1 2
4755 1 1.66109 -5.75899 0.02 0 0 0 1 2
4390 1 2.90883 -1.37585 0.02 0 -1.09832e-22 2.59815e-23 1 2
4602 1 2.18676 -0.71437 0.02 0 0 0 1 2
4391 1 2.92917 -1.58117 0.02 0 -2.66668e-22 6.63445e-24 1 2
4590 1 2.12764 -0.130901 0.02 0 0 0 1 2
4618 1 2.18655 -1.14477 0.02 0 0 0 1 2
4617 1 2.18385 -0.925982 0.02 0 0 0 1 2
4619 1 2.00522 -0.999003 0.02 0 0 0 1 2
4620 1 2.01124 -1.2208 0.02 0 0 0 1 2
4601 1 2.15878 -0.514055 0.02 0 0 0 1 2
4377 1 2.93157 -1.17546 0.02 0 -1.04658e-24 5.24956e-25 1 2
4376 1 2.95539 -0.977961 0.02 0 -1.20219e-26 -7.30385e-27 1 2
4604 1 2.00154 -0.782001 0.02 0 0 0 1 2
4603 1 1.97077 -0.577099 0.02 0 0 0 1 2
4723 1 1.64728 -6.56288 0.02 0 -3.74221e-06 3.43601e-05 1 2
4737 1 1.63793 -6.37185 0.02 0 8.86374e-08 2.19653e-06 1 2
4739 1 1.67065 -6.16748 0.02 0 8.59116e-09 1.29767e-07 1 2
4753 1 1.67354 -5.96034 0.02 0 1.2826e-11 2.88512e-10 1 2
4593 1 1.56437 -0.401333 0.02 0 0 0 1 2
4594 1 1.5386 -0.191329 0.02 0 0 0 1 2
4786 1 1.51325 -4.85376 0.02 0 0 0 1 2
4801 1 1.54606 -4.50233 0.02 0 0 0 1 2
4817 1 1.51323 -4.13064 0.02 0 0 0 1 2
4655 1 1.5347 -1.88565 0.02 0 0 0 1 2
4600 1 2.14333 0.248268 0.02 0 0 0 1 2
4599 1 1.94114 0.23525 0.02 0 0 0 1 2
4602 1 2.12128 0.0565639 0.02 0 0 0 1 2
4601 1 1.91171 0.0351082 0.02 0 0 0 1 2
4709 1 1.59474 3.41402 0.02 0 0 0 1 2
4708 1 1.61605 3.22709 0.02 0 0 0 1 2
4692 1 1.62056 3.04037 0.02 0 0 0 1 2
4711 1 1.81161 3.41416 0.02 0 0 0 1 2
4710 1 1.82567 3.22198 0.02 0 0 0 1 2
4616 1 1.91972 0.657818 0.02 0 0 0 1 2
4614 1 1.92568 0.442989 0.02 0 0 0 1 2
4615 1 2.12185 0.443638 0.02 0 0 0 1 2
4617 1 2.11163 0.644073 0.02 0 0 0 1 2
4618 1 2.12595 0.852158 0.02 0 0 0 1 2
4755 1 1.70617 4.59842 0.02 0 0 0 1 2
4344 1 2.92968 0.600763 0.02 0 -1.28845e-21 3.78416e-23 1 2
4345 1 2.91441 0.794556 0.02 0 -2.75834e-22 6.77932e-23 1 2
4804 1 1.71474 5.8373 0.02 0 0 0 1 2
4633 1 1.93274 1.29444 0.02 0 0 0 1 2
4635 1 2.12688 1.28015 0.02 0 0 0 1 2
4632 1 1.93062 1.08721 0.02 0 0 0 1 2
4631 1 1.94097 0.87288 0.02 0 0 0 1 2
4634 1 2.11734 1.07091 0.02 0 0 0 1 2
4788 1 1.69301 5.44626 0.02 0 0 0 1 2
4358 1 2.87947 0.991407 0.02 0 -9.90348e-23 -3.06869e-23 1 2
4359 1 2.93112 1.1823 0.02 0 -1.75315e-21 -2.5673e-22 1 2
4806 1 1.74803 6.02674 0.02 0 3.71388e-10 -1.18932e-09 1 2
489 2 2.8 9.8 0 0 0 0 1 5
4648 1 2.14621 1.47698 0.02 0 0 0 1 2
4646 1 1.93656 1.49215 0.02 0 0 0 1 2
4649 1 2.20953 1.66255 0.02 0 0 0 1 2
4647 1 2.00379 1.67673 0.02 0 0 0 1 2
4753 1 1.70768 4.37551 0.02 0 0 0 1 2
4372 1 2.93603 1.3839 0.02 0 -3.84256e-21 1.8437e-22 1 2
4833 1 1.57915 6.5618 0.02 0 -9.53927e-07 -1.56367e-08 1 2
4740 1 1.70663 4.16658 0.02 0 0 0 1 2
4663 1 2.23264 2.04473 0.02 0 0 0 1 2
4662 1 2.24321 1.85304 0.02 0 0 0 1 2
4661 1 2.02112 2.05093 0.02 0 0 0 1 2
4660 1 2.02976 1.86411 0.02 0 0 0 1 2
4832 1 1.5895 6.7412 0.02 0 -0.000180304 5.74124e-05 1 2
4657 1 1.60079 2.07554 0.02 0 0 0 1 2
4389 1 2.83208 2.02352 0.02 0 -2.56095e-24 -8.29811e-25 1 2
4387 1 2.83924 1.81475 0.02 0 -3.85849e-23 7.97317e-24 1 2
4834 1 1.78782 6.59218 0.02 0 -0.000109871 -8.54435e-06 1 2
4831 1 1.80621 6.77622 0.02 0 -0.00288187 0.000858596 1 2
4678 1 2.06993 2.42432 0.02 0 0 0 1 2
4677 1 2.07274 2.23351 0.02 0 0 0 1 2
4675 1 1.86033 2.25117 0.02 0 0 0 1 2
4676 1 1.87126 2.44706 0.02 0 0 0 1 2
4403 1 2.87612 2.22749 0.02 0 -1.43159e-22 -1.95708e-23 1 2
4405 1 2.89207 2.4293 0.02 0 -5.72623e-22 1.44758e-23 1 2
4789 1 1.70178 5.64281 0.02 0 0 0 1 2
4786 1 1.68082 5.24663 0.02 0 0 0 1 2
488 2 2.6 9.8 0 0 0 0 1 5
455 2 2.8 9.6 0 0 0 0 1 5
454 2 2.6 9.6 0 0 0 0 1 5
4694 1 2.08891 2.61868 0.02 0 0 0 1 2
4696 1 2.04902 3.00747 0.02 0 0 0 1 2
4695 1 2.04646 2.81327 0.02 0 0 0 1 2
4698 1 2.26022 3.00384 0.02 0 0 0 1 2
4697 1 2.25033 2.81092 0.02 0 0 0 1 2
4693 1 1.87922 2.64228 0.02 0 0 0 1 2
4421 1 2.8809 2.827 0.02 0 -9.66666e-23 9.27464e-24 1 2
4420 1 2.91305 2.63014 0.02 0 -6.56782e-22 2.81269e-23 1 2
4423 1 2.8679 3.02259 0.02 0 -4.86698e-22 -1.3552e-22 1 2
4768 1 1.68516 4.83342 0.02 0 0 0 1 2
4738 1 1.70668 3.97069 0.02 0 0 0 1 2
453 2 2.4 9.6 0 0 0 0 1 5
452 2 2.2 9.6 0 0 0 0 1 5
4713 1 2.02023 3.39011 0.02 0 0 0 1 2
4712 1 2.03655 3.19848 0.02 0 0 0 1 2
4715 1 2.24603 3.19619 0.02 0 0 0 1 2
4714 1 2.23105 3.39049 0.02 0 0 0 1 2
4770 1 1.66605 5.04537 0.02 0 0 0 1 2
4725 1 1.68851 3.78237 0.02 0 0 0 1 2
4723 1 1.66261 3.59356 0.02 0 0 0 1 2
4438 1 2.87193 3.21643 0.02 0 -2.22097e-21 -3.60475e-22 1 2
4440 1 2.84835 3.40474 0.02 0 -3.67159e-21 -6.60318e-23 1 2
487 2 2.4 9.8 0 0 0 0 1 5
486 2 2.2 9.8 0 0 0 0 1 5
4729 1 2.10867 3.78013 0.02 0 0 0 1 2
4728 1 2.06546 3.58233 0.02 0 0 0 1 2
4730 1 2.26317 3.59267 0.02 0 0 0 1 2
4726 1 1.86761 3.605 0.02 0 0 0 1 2
4727 1 1.90408 3.79564 0.02 0 0 0 1 2
4689 1 1.63953 2.85041 0.02 0 0 0 1 2
4644 1 1.72653 1.49143 0.02 0 0 0 1 2
4458 1 2.88979 3.7867 0.02 0 -1.75029e-21 4.77489e-22 1 2
4456 1 2.87511 3.59391 0.02 0 -3.84031e-21 5.41243e-22 1 2
451 2 2 9.6 0 0 0 0 1 5
4743 1 2.12823 3.97931 0.02 0 0 0 1 2
4742 1 1.91938 3.98501 0.02 0 0 0 1 2
4744 1 2.10369 4.17872 0.02 0 0 0 1 2
4741 1 1.90507 4.17791 0.02 0 0 0 1 2
4629 1 1.75124 0.888006 0.02 0 0 0 1 2
4628 1 1.73936 1.29024 0.02 0 0 0 1 2
4470 1 2.91805 3.99119 0.02 0 -1.07647e-22 5.07632e-23 1 2
4472 1 2.92393 4.19558 0.02 0 -1.05169e-27 4.01689e-27 1 2
4760 1 2.08499 4.60329 0.02 0 0 0 1 2
4759 1 2.09037 4.38771 0.02 0 0 0 1 2
4756 1 1.86458 4.78249 0.02 0 0 0 1 2
4757 1 1.89811 4.37631 0.02 0 0 0 1 2
4758 1 1.89542 4.57729 0.02 0 0 0 1 2
4688 1 1.66862 2.65746 0.02 0 0 0 1 2
4674 1 1.67206 2.46162 0.02 0 0 0 1 2
4487 1 2.9027 4.59867 0.02 0 0 0 1 2
4485 1 2.8886 4.39626 0.02 0 0 0 1 2
485 2 2 9.8 0 0 0 0 1 5
420 2 2.6 9.4 0 0 0 0 1 5
4773 1 2.04383 5.02659 0.02 0 0 0 1 2
4772 1 2.05062 4.81643 0.02 0 0 0 1 2
4776 1 2.25036 5.21138 0.02 0 0 0 1 2
4775 1 2.23259 5.00179 0.02 0 0 0 1 2
4774 1 2.2453 4.80064 0.02 0 0 0 1 2
4771 1 1.85571 5.00509 0.02 0 0 0 1 2
4501 1 2.80433 4.99298 0.02 0 0 0 1 2
4499 1 2.84429 4.79559 0.02 0 0 0 1 2
4503 1 2.82715 5.19263 0.02 0 0 0 1 2
4656 1 1.6064 1.8822 0.02 0 0 0 1 2
4672 1 1.65346 2.2647 0.02 0 0 0 1 2
4643 1 1.57851 1.69224 0.02 0 0 0 1 2
4691 1 1.83615 3.03093 0.02 0 0 0 1 2
386 2 2.6 9.2 0 0 0 0 1 5
4690 1 1.84311 2.83725 0.02 0 0 0 1 2
4796 1 2.10754 5.63177 0.02 0 0 0 1 2
4795 1 2.09222 5.43171 0.02 0 0 0 1 2
4794 1 2.05985 5.23146 0.02 0 0 0 1 2
4793 1 1.90631 5.63775 0.02 0 0 0 1 2
4792 1 1.89262 5.43734 0.02 0 0 0 1 2
4791 1 1.87046 5.2257 0.02 0 0 0 1 2
4520 1 2.91671 5.58312 0.02 0 0 0 1 2
4612 1 1.72908 0.689725 0.02 0 0 0 1 2
4818 1 1.77383 6.21412 0.02 0 9.98064e-08 -2.62319e-07 1 2
4518 1 2.87654 5.3891 0.02 0 0 0 1 2
387 2 2.8 9.2 0 0 0 0 1 5
4807 1 1.91833 5.83416 0.02 0 1.6674e-11 -5.58373e-11 1 2
4810 1 2.17391 6.01525 0.02 0 2.10008e-07 -3.01248e-07 1 2
4809 1 1.95936 6.02306 0.02 0 1.82457e-08 -4.9844e-08 1 2
4808 1 2.1212 5.82955 0.02 0 3.8089e-10 -7.17718e-10 1 2
4819 1 1.57031 6.37702 0.02 0 1.97571e-09 -4.2147e-09 1 2
4533 1 2.9337 5.7758 0.02 0 -1.23987e-21 1.15538e-21 1 2
4659 1 1.81168 2.06194 0.02 0 0 0 1 2
4627 1 1.74009 1.08696 0.02 0 0 0 1 2
4824 1 2.16697 6.3837 0.02 0 0.000137237 -0.000196748 1 2
4823 1 1.95779 6.38682 0.02 0 4.66657e-05 -9.38744e-05 1 2
4822 1 2.20207 6.20108 0.02 0 1.20759e-05 -2.07033e-05 1 2
4821 1 1.99148 6.20568 0.02 0 2.35836e-06 -4.45386e-06 1 2
4549 1 2.80162 6.19141 0.02 0 9.57296e-08 -4.95137e-08 1 2
4610 1 1.73652 0.478881 0.02 0 0 0 1 2
4820 1 1.76425 6.40804 0.02 0 5.20738e-06 -1.04813e-05 1 2
4658 1 1.81513 1.86944 0.02 0 0 0 1 2
4645 1 1.79146 1.67867 0.02 0 0 0 1 2
4838 1 2.19407 6.56445 0.02 0 0.000570405 -0.000681654 1 2
4836 1 2.01875 6.74923 0.02 0 -0.00332017 0.000717233 1 2
4837 1 1.99086 6.56796 0.02 0 8.76515e-05 -0.000409611 1 2
4835 1 2.21951 6.74602 0.02 0 -0.00207474 0.000295494 1 2
4566 1 2.80919 6.56644 0.02 0 -0.00026375 0.000138879 1 2
4565 1 2.79966 6.74959 0.02 0 -0.00293954 0.000266785 1 2
4598 1 1.71441 0.0415298 0.02 0 0 0 1 2
4597 1 1.74725 0.260252 0.02 0 0 0 1 2
421 2 2.8 9.4 0 0 0 0 1 5
385 2 2.4 9.2 0 0 0 0 1 5
9 2 2 7 0 0 0 0 1.00001 5
10 2 2.2 7 0 0 0 0 0.995831 5
11 2 2.4 7 0 0 0 0 0.990173 5
43 2 2 7.2 0 0 0 0 0.998883 5
44 2 2.2 7.2 0 0 0 0 0.996247 5
45 2 2.4 7.2 0 0 0 0 0.98903 5
12 2 2.6 7 0 0 0 0 1.00886 5
46 2 2.6 7.2 0 0 0 0 1.01075 5
13 2 2.8 7 0 0 0 0 1.00398 5
47 2 2.8 7.2 0 0 0 0 1.0033 5
113 2 2.4 7.6 0 0 0 0 1 5
145 2 2 7.8 0 0 0 0 1 5
79 2 2.4 7.4 0 0 0 0 0.988878 5
77 2 2 7.4 0 0 0 0 0.996108 5
78 2 2.2 7.4 0 0 0 0 1.00062 5
147 2 2.4 7.8 0 0 0 0 1 5
111 2 2 7.6 0 0 0 0 1 5
146 2 2.2 7.8 0 0 0 0 1 5
112 2 2.2 7.6 0 0 0 0 1 5
148 2 2.6 7.8 0 0 0 0 1 5
114 2 2.6 7.6 0 0 0 0 1 5
81 2 2.8 7.4 0 0 0 0 1.00006 5
115 2 2.8 7.6 0 0 0 0 1 5
80 2 2.6 7.4 0 0 0 0 1.01173 5
149 2 2.8 7.8 0 0 0 0 1 5
179 2 2 8 0 0 0 0 1 5
180 2 2.2 8 0 0 0 0 1 5
181 2 2.4 8 0 0 0 0 1 5
213 2 2 8.2 0 0 0 0 1 5
214 2 2.2 8.2 0 0 0 0 1 5
215 2 2.4 8.2 0 0 0 0 1 5
183 2 2.8 8 0 0 0 0 1 5
216 2 2.6 8.2 0 0 0 0 1 5
217 2 2.8 8.2 0 0 0 0 1 5
182 2 2.6 8 0 0 0 0 1 5
281 2 2 8.6 0 0 0 0 1 5
249 2 2.4 8.4 0 0 0 0 1 5
248 2 2.2 8.4 0 0 0 0 1 5
247 2 2 8.4 0 0 0 0 1 5
283 2 2.4 8.6 0 0 0 0 1 5
282 2 2.2 8.6 0 0 0 0 1 5
285 2 2.8 8.6 0 0 0 0 1 5
284 2 2.6 8.6 0 0 0 0 1 5
251 2 2.8 8.4 0 0 0 0 1 5
250 2 2.6 8.4 0 0 0 0 1 5
351 2 2.4 9 0 0 0 0 1 5
315 2 2 8.8 0 0 0 0 1 5
316 2 2.2 8.8 0 0 0 0 1 5
317 2 2.4 8.8 0 0 0 0 1 5
349 2 2 9 0 0 0 0 1 5
350 2 2.2 9 0 0 0 0 1 5
353 2 2.8 9 0 0 0 0 1 5
352 2 2.6 9 0 0 0 0 1 5
319 2 2.8 8.8 0 0 0 0 1 5
318 2 2.6 8.8 0 0 0 0 1 5
418 2 2.2 9.4 0 0 0 0 1 5
383 2 2 9.2 0 0 0 0 1 5
384 2 2.2 9.2 0 0 0 0 1 5
419 2 2.4 9.4 0 0 0 0 1 5
417 2 2 9.4 0 0 0 0 1 5
4594 1 1.51703 0.0139935 0.02 0 0 0 1 2
4595 1 1.55611 0.213481 0.02 0 0 0 1 2
4596 1 1.55051 0.417667 0.02 0 0 0 1 2
4611 1 1.54772 0.632968 0.02 0 0 0 1 2
4817 1 1.56067 6.19252 0.02 0 1.61418e-11 -5.2223e-11 1 2
4613 1 1.56023 0.868113 0.02 0 0 0 1 2
4626 1 1.55117 1.09204 0.02 0 0 0 1 2
4630 1 1.54726 1.30394 0.02 0 0 0 1 2
4642 1 1.5208 1.50485 0.02 0 0 0 1 2
4767 1 1.49757 4.86501 0.02 0 0 0 1 2
4737 1 1.50249 4.01862 0.02 0 0 0 1 2
4754 1 1.52606 4.65198 0.02 0 0 0 1 2
4803 1 1.5067 5.82959 0.02 0 0 0 1 2
4752 1 1.52865 4.43165 0.02 0 0 0 1 2
4739 1 1.51437 4.21997 0.02 0 0 0 1 2
4805 1 1.52985 6.01262 0.02 0 0 0 1 2
1583 2 3.2 -9.6 0 0 0 0 1 5
1582 2 3 -9.6 0 0 0 0 1 5
1549 2 3.2 -9.8 0 0 0 0 1 5
1548 2 3 -9.8 0 0 0 0 1 5
1515 2 3.2 -10 0 0 0 0 1 5
1514 2 3 -10 0 0 0 0 1 5
1584 2 3.4 -9.6 0 0 0 0 1 5
1550 2 3.4 -9.8 0 0 0 0 1 5
1516 2 3.4 -10 0 0 0 0 1 5
1586 2 3.8 -9.6 0 0 0 0 1 5
1585 2 3.6 -9.6 0 0 0 0 1 5
1552 2 3.8 -9.8 0 0 0 0 1 5
1551 2 3.6 -9.8 0 0 0 0 1 5
1518 2 3.8 -10 0 0 0 0 1 5
1517 2 3.6 -10 0 0 0 0 1 5
1588 2 4.2 -9.6 0 0 0 0 1 5
1587 2 4 -9.6 0 0 0 0 1 5
1554 2 4.2 -9.8 0 0 0 0 1 5
1553 2 4 -9.8 0 0 0 0 1 5
1520 2 4.2 -10 0 0 0 0 1 5
1519 2 4 -10 0 0 0 0 1 5
1616 2 3 -9.4 0 0 0 0 1 5
1617 2 3.2 -9.4 0 0 0 0 1 5
1651 2 3.2 -9.2 0 0 0 0 1 5
1650 2 3 -9.2 0 0 0 0 1 5
1652 2 3.4 -9.2 0 0 0 0 1 5
1618 2 3.4 -9.4 0 0 0 0 1 5
1653 2 3.6 -9.2 0 0 0 0 1 5
1654 2 3.8 -9.2 0 0 0 0 1 5
1620 2 3.8 -9.4 0 0 0 0 1 5
1619 2 3.6 -9.4 0 0 0 0 1 5
1622 2 4.2 -9.4 0 0 0 0 1 5
1655 2 4 -9.2 0 0 0 0 1 5
1656 2 4.2 -9.2 0 0 0 0 1 5
1621 2 4 -9.4 0 0 0 0 1 5
1719 2 3.2 -8.8 0 0 0 0 1 5
1718 2 3 -8.8 0 0 0 0 1 5
1685 2 3.2 -9 0 0 0 0 1 5
1684 2 3 -9 0 0 0 0 1 5
1686 2 3.4 -9 0 0 0 0 1 5
1720 2 3.4 -8.8 0 0 0 0 1 5
1687 2 3.6 -9 0 0 0 0 1 5
1688 2 3.8 -9 0 0 0 0 1 5
1721 2 3.6 -8.8 0 0 0 0 1 5
1722 2 3.8 -8.8 0 0 0 0 1 5
1689 2 4 -9 0 0 0 0 1 5
1690 2 4.2 -9 0 0 0 0 1 5
1723 2 4 -8.8 0 0 0 0 1 5
1724 2 4.2 -8.8 0 0 0 0 1 5
1752 2 3 -8.6 0 0 0 0 1 5
1753 2 3.2 -8.6 0 0 0 0 1 5
1786 2 3 -8.4 0 0 0 0 1 5
1787 2 3.2 -8.4 0 0 0 0 1 5
1754 2 3.4 -8.6 0 0 0 0 1 5
1788 2 3.4 -8.4 0 0 0 0 1 5
1755 2 3.6 -8.6 0 0 0 0 1 5
1756 2 3.8 -8.6 0 0 0 0 1 5
1789 2 3.6 -8.4 0 0 0 0 1 5
1790 2 3.8 -8.4 0 0 0 0 1 5
1757 2 4 -8.6 0 0 0 0 1 5
1758 2 4.2 -8.6 0 0 0 0 1 5
1791 2 4 -8.4 0 0 0 0 1 5