ITEM: TIMESTEP
56000
ITEM: NUMBER OF ATOMS
1421
ITEM: BOX BOUNDS ff ff pp
0.0000000000000000e+00 4.4000000000000004e+00
-1.0000000000000000e+01 1.0000000000000000e+01
-2.0000000000000000e-02 2.0000000000000000e-02
ITEM: ATOMS id type x y vx vy fx fy c_den c_phase
4956 1 0.445797 -6.58047 0.02 0 0 0 1 2
4957 1 0.418808 -6.75534 0.02 0 0 0 1 2
4958 1 0.62252 -6.7545 0.02 0 0 0 1 2
4959 1 0.821336 -6.73795 0.02 0 0 0 1 2
4960 1 0.662215 -6.57021 0.02 0 0 0 1 2
4961 1 0.86837 -6.55898 0.02 0 0 0 1 2
4962 1 1.01891 -6.75641 0.02 0 0 0 1 2
4963 1 1.21568 -6.75355 0.02 0 0 0 1 2
4964 1 1.06466 -6.56659 0.02 0 0 0 1 2
4965 1 1.26011 -6.56457 0.02 0 0 0 1 2
4966 1 1.41439 -6.74256 0.02 0 -9.17917e-08 -1.00903e-07 1 2
4880 1 1.2857 -1.16744 0.02 0 0 0 1 2
4968 1 1.45461 -6.56 0.02 0 5.52128e-09 3.25076e-08 1 2
4879 1 1.25248 -0.964751 0.02 0 0 0 1 2
4847 1 1.45875 -0.365805 0.02 0 0 0 1 2
4846 1 1.4355 -0.15 0.02 0 0 0 1 2
4972 1 0.463083 -6.2288 0.02 0 0 0 1 2
4973 1 0.472572 -6.4079 0.02 0 0 0 1 2
4974 1 0.674942 -6.38721 0.02 0 0 0 1 2
4975 1 0.684983 -6.20378 0.02 0 0 0 1 2
4976 1 0.882266 -6.3754 0.02 0 0 0 1 2
4977 1 0.895382 -6.18987 0.02 0 0 0 1 2
4978 1 1.0865 -6.37705 0.02 0 0 0 1 2
4979 1 1.09877 -6.184 0.02 0 0 0 1 2
4980 1 1.28512 -6.37392 0.02 0 0 0 1 2
4981 1 1.30466 -6.18589 0.02 0 0 0 1 2
4982 1 1.48541 -6.37283 0.02 0 1.23343e-09 6.30034e-09 1 2
4866 1 1.08878 -0.49582 0.02 0 0 0 1 2
4984 1 1.51092 -6.18342 0.02 0 1.8111e-11 1.06022e-10 1 2
4865 1 1.28344 -0.757755 0.02 0 0 0 1 2
4986 1 0.438645 -5.85696 0.02 0 0 0 1 2
4987 1 0.458586 -6.0486 0.02 0 0 0 1 2
4988 1 0.664151 -6.01867 0.02 0 0 0 1 2
4989 1 0.62834 -5.82533 0.02 0 0 0 1 2
4990 1 0.824063 -5.81429 0.02 0 0 0 1 2
4991 1 0.872165 -6.00318 0.02 0 0 0 1 2
4992 1 1.07975 -5.99131 0.02 0 0 0 1 2
4993 1 1.02801 -5.80594 0.02 0 0 0 1 2
4994 1 1.24787 -5.81645 0.02 0 0 0 1 2
4995 1 1.2866 -5.99936 0.02 0 0 0 1 2
4996 1 1.49084 -5.99235 0.02 0 0 0 1 2
4864 1 1.2811 -0.538324 0.02 0 0 0 1 2
4998 1 1.46418 -5.80089 0.02 0 0 0 1 2
4873 1 0.466991 -0.695724 0.02 0 0 0 1 2
5000 1 0.450061 -5.64953 0.02 0 0 0 1 2
5001 1 0.644484 -5.62334 0.02 0 0 0 1 2
5002 1 0.45136 -5.44144 0.02 0 0 0 1 2
5003 1 0.644639 -5.41999 0.02 0 0 0 1 2
5004 1 0.441907 -5.23262 0.02 0 0 0 1 2
5005 1 0.843644 -5.61653 0.02 0 0 0 1 2
5006 1 0.839837 -5.41725 0.02 0 0 0 1 2
5007 1 0.821178 -5.21795 0.02 0 0 0 1 2
5008 1 1.04476 -5.61413 0.02 0 0 0 1 2
5009 1 1.24388 -5.63003 0.02 0 0 0 1 2
5010 1 1.03505 -5.41546 0.02 0 0 0 1 2
5011 1 1.23268 -5.43551 0.02 0 0 0 1 2
5012 1 1.21468 -5.2373 0.02 0 0 0 1 2
5013 1 1.43655 -5.60063 0.02 0 0 0 1 2
4890 1 0.507976 -1.26707 0.02 0 0 0 1 2
5015 1 1.42225 -5.38976 0.02 0 0 0 1 2
4889 1 0.707893 -1.29234 0.02 0 0 0 1 2
4888 1 0.484043 -1.07209 0.02 0 0 0 1 2
4887 1 0.690242 -1.09279 0.02 0 0 0 1 2
5019 1 0.628091 -5.2099 0.02 0 0 0 1 2
5020 1 0.423683 -5.01823 0.02 0 0 0 1 2
5021 1 0.607798 -4.99268 0.02 0 0 0 1 2
5022 1 0.794696 -5.01454 0.02 0 0 0 1 2
5023 1 0.774471 -4.80046 0.02 0 0 0 1 2
5024 1 1.01743 -5.21275 0.02 0 0 0 1 2
5025 1 0.98605 -5.00858 0.02 0 0 0 1 2
5026 1 1.1779 -5.03372 0.02 0 0 0 1 2
5027 1 0.967939 -4.8102 0.02 0 0 0 1 2
5028 1 1.16821 -4.82078 0.02 0 0 0 1 2
5031 1 1.36099 -4.97252 0.02 0 0 0 1 2
5029 1 1.39884 -5.1777 0.02 0 0 0 1 2
4886 1 0.477967 -0.880323 0.02 0 0 0 1 2
4900 1 0.955665 -1.52449 0.02 0 0 0 1 2
4899 1 1.16184 -1.53732 0.02 0 0 0 1 2
4872 1 0.689395 -0.701356 0.02 0 0 0 1 2
4871 1 0.489834 -0.514518 0.02 0 0 0 1 2
4869 1 0.895104 -0.722022 0.02 0 0 0 1 2
5037 1 0.585834 -4.77962 0.02 0 0 0 1 2
5038 1 0.413706 -4.57803 0.02 0 0 0 1 2
5039 1 0.604288 -4.57054 0.02 0 0 0 1 2
5040 1 0.796226 -4.58634 0.02 0 0 0 1 2
5041 1 0.45398 -4.3673 0.02 0 0 0 1 2
5042 1 0.653402 -4.36807 0.02 0 0 0 1 2
5043 1 0.848681 -4.37825 0.02 0 0 0 1 2
5044 1 0.992152 -4.61794 0.02 0 0 0 1 2
5045 1 1.19931 -4.61468 0.02 0 0 0 1 2
5046 1 1.03921 -4.42856 0.02 0 0 0 1 2
5047 1 1.2355 -4.40519 0.02 0 0 0 1 2
5048 1 1.37202 -4.77562 0.02 0 0 0 1 2
5049 1 1.40642 -4.58164 0.02 0 0 0 1 2
4885 1 0.677332 -0.894216 0.02 0 0 0 1 2
5051 1 1.42973 -4.3802 0.02 0 0 0 1 2
4882 1 0.872721 -0.927203 0.02 0 0 0 1 2
4852 1 1.07388 -0.295322 0.02 0 0 0 1 2
4850 1 1.05314 -0.094678 0.02 0 0 0 1 2
5055 1 0.479622 -4.16107 0.02 0 0 0 1 2
5056 1 0.676205 -4.16298 0.02 0 0 0 1 2
5057 1 0.497125 -3.95057 0.02 0 0 0 1 2
5058 1 0.688534 -3.95576 0.02 0 0 0 1 2
5059 1 0.872457 -4.17021 0.02 0 0 0 1 2
5060 1 0.881455 -3.95995 0.02 0 0 0 1 2
5061 1 1.06521 -4.22906 0.02 0 0 0 1 2
5062 1 1.26044 -4.18899 0.02 0 0 0 1 2
5063 1 1.0685 -4.02536 0.02 0 0 0 1 2
5064 1 1.25628 -3.97051 0.02 0 0 0 1 2
5065 1 1.4562 -4.17813 0.02 0 0 0 1 2
4898 1 0.908428 -1.32959 0.02 0 0 0 1 2
5067 1 1.44589 -3.97397 0.02 0 0 0 1 2
4897 1 1.10897 -1.33421 0.02 0 0 0 1 2
4849 1 1.26935 -0.31991 0.02 0 0 0 1 2
4848 1 1.24679 -0.10337 0.02 0 0 0 1 2
5071 1 0.520721 -3.73477 0.02 0 0 0 1 2
5072 1 0.522421 -3.51789 0.02 0 0 0 1 2
5073 1 0.710939 -3.74794 0.02 0 0 0 1 2
5074 1 0.71004 -3.53709 0.02 0 0 0 1 2
5075 1 0.902621 -3.75053 0.02 0 0 0 1 2
5076 1 0.898999 -3.53879 0.02 0 0 0 1 2
5077 1 1.08615 -3.8147 0.02 0 0 0 1 2
5078 1 1.08407 -3.59192 0.02 0 0 0 1 2
5079 1 1.26491 -3.74165 0.02 0 0 0 1 2
5080 1 1.26715 -3.52636 0.02 0 0 0 1 2
5081 1 1.45449 -3.77151 0.02 0 0 0 1 2
4881 1 1.06575 -0.904502 0.02 0 0 0 1 2
5083 1 1.46099 -3.56777 0.02 0 0 0 1 2
4870 1 0.69334 -0.507391 0.02 0 0 0 1 2
4857 1 0.465825 -0.329982 0.02 0 0 0 1 2
4856 1 0.675044 -0.308611 0.02 0 0 0 1 2
5087 1 0.51446 -3.30217 0.02 0 0 0 1 2
5088 1 0.700413 -3.32282 0.02 0 0 0 1 2
5089 1 0.525681 -3.09498 0.02 0 0 0 1 2
5090 1 0.719864 -3.11224 0.02 0 0 0 1 2
5091 1 0.888054 -3.3262 0.02 0 0 0 1 2
5092 1 0.911503 -3.11655 0.02 0 0 0 1 2
5093 1 1.074 -3.36956 0.02 0 0 0 1 2
5094 1 1.09816 -3.15141 0.02 0 0 0 1 2
5095 1 1.2625 -3.31864 0.02 0 0 0 1 2
5096 1 1.29022 -3.11366 0.02 0 0 0 1 2
4855 1 0.472287 -0.141758 0.02 0 0 0 1 2
5097 1 1.45472 -3.36362 0.02 0 0 0 1 2
4867 1 0.891903 -0.517524 0.02 0 0 0 1 2
5099 1 1.48023 -3.16288 0.02 0 0 0 1 2
4878 1 1.48472 -1.16418 0.02 0 0 0 1 2
4854 1 0.668726 -0.102094 0.02 0 0 0 1 2
4951 1 0.727511 -2.7013 0.02 0 0 0 1 2
4952 1 0.52794 -2.69006 0.02 0 0 0 1 2
4953 1 0.715634 -2.9059 0.02 0 0 0 1 2
4954 1 0.517975 -2.89186 0.02 0 0 0 1 2
4945 1 1.31507 -2.71423 0.02 0 0 0 1 2
4946 1 1.29619 -2.9109 0.02 0 0 0 1 2
4947 1 1.11766 -2.7223 0.02 0 0 0 1 2
4948 1 1.10319 -2.93583 0.02 0 0 0 1 2
4949 1 0.924404 -2.70335 0.02 0 0 0 1 2
4950 1 0.911957 -2.90797 0.02 0 0 0 1 2
4877 1 1.45298 -0.967041 0.02 0 0 0 1 2
4942 1 1.51173 -2.75416 0.02 0 0 0 1 2
4862 1 1.47159 -0.574605 0.02 0 0 0 1 2
4944 1 1.48776 -2.95758 0.02 0 0 0 1 2
4935 1 0.88548 -2.50191 0.02 0 0 0 1 2
4936 1 0.840762 -2.30053 0.02 0 0 0 1 2
4937 1 0.647336 -2.27951 0.02 0 0 0 1 2
4938 1 0.454803 -2.27668 0.02 0 0 0 1 2
4939 1 0.495201 -2.48392 0.02 0 0 0 1 2
4940 1 0.687724 -2.49402 0.02 0 0 0 1 2
4931 1 1.28769 -2.51716 0.02 0 0 0 1 2
4932 1 1.24757 -2.32364 0.02 0 0 0 1 2
4933 1 1.04118 -2.31522 0.02 0 0 0 1 2
4934 1 1.08741 -2.51435 0.02 0 0 0 1 2
4853 1 0.875684 -0.312394 0.02 0 0 0 1 2
4851 1 0.859804 -0.106487 0.02 0 0 0 1 2
4902 1 0.966624 -1.7222 0.02 0 0 0 1 2
4884 1 0.892472 -1.12903 0.02 0 0 0 1 2
4928 1 1.45639 -2.3414 0.02 0 0 0 1 2
4883 1 1.08763 -1.12377 0.02 0 0 0 1 2
4930 1 1.48652 -2.54567 0.02 0 0 0 1 2
4918 1 0.81473 -1.89697 0.02 0 0 0 1 2
4919 1 0.837265 -2.09908 0.02 0 0 0 1 2
4920 1 0.616736 -1.86633 0.02 0 0 0 1 2
4921 1 0.419554 -1.87308 0.02 0 0 0 1 2
4922 1 0.633646 -2.07103 0.02 0 0 0 1 2
4923 1 0.429304 -2.07675 0.02 0 0 0 1 2
4910 1 1.37542 -1.75619 0.02 0 0 0 1 2
4914 1 1.24728 -2.12962 0.02 0 0 0 1 2
4915 1 1.22527 -1.93408 0.02 0 0 0 1 2
4916 1 1.01829 -1.92107 0.02 0 0 0 1 2
4917 1 1.04288 -2.11789 0.02 0 0 0 1 2
4868 1 1.09512 -0.698459 0.02 0 0 0 1 2
4863 1 1.48115 -0.773748 0.02 0 0 0 1 2
4896 1 1.36647 -1.56022 0.02 0 0 0 1 2
4901 1 1.1687 -1.73756 0.02 0 0 0 1 2
4912 1 1.43493 -1.94749 0.02 0 0 0 1 2
4913 1 1.45056 -2.1438 0.02 0 0 0 1 2
4903 1 0.741507 -1.4917 0.02 0 0 0 1 2
4904 1 0.533256 -1.46594 0.02 0 0 0 1 2
4905 1 0.766193 -1.68959 0.02 0 0 0 1 2
4906 1 0.563079 -1.66502 0.02 0 0 0 1 2
4894 1 1.31346 -1.36505 0.02 0 0 0 1 2
4842 1 0.491474 0.270665 0.02 0 0 0 1 2
4843 1 0.671621 0.336851 0.02 0 0 0 1 2
4844 1 0.490784 0.0560054 0.02 0 0 0 1 2
4845 1 0.671012 0.118798 0.02 0 0 0 1 2
4847 1 0.859172 0.320533 0.02 0 0 0 1 2
4849 1 0.854826 0.105539 0.02 0 0 0 1 2
4846 1 1.04223 0.107583 0.02 0 0 0 1 2
4848 1 1.04669 0.312641 0.02 0 0 0 1 2
4850 1 1.2325 0.337272 0.02 0 0 0 1 2
4851 1 1.23107 0.116355 0.02 0 0 0 1 2
4852 1 1.41253 0.287368 0.02 0 0 0 1 2
4853 1 1.41447 0.0680014 0.02 0 0 0 1 2
5055 1 1.05628 5.83848 0.02 0 0 0 1 2
5054 1 0.859641 5.80954 0.02 0 0 0 1 2
5085 1 1.14228 6.74606 0.02 0 0 0 1 2
5084 1 0.933963 6.76272 0.02 0 0 0 1 2
4858 1 0.471843 0.488378 0.02 0 0 0 1 2
4859 1 0.654766 0.544272 0.02 0 0 0 1 2
4860 1 0.409259 0.705152 0.02 0 0 0 1 2
4861 1 0.593856 0.743507 0.02 0 0 0 1 2
4862 1 0.790756 0.728702 0.02 0 0 0 1 2
4863 1 0.852137 0.528996 0.02 0 0 0 1 2
4864 1 1.04547 0.523799 0.02 0 0 0 1 2
4865 1 0.98859 0.730074 0.02 0 0 0 1 2
4866 1 1.18505 0.744519 0.02 0 0 0 1 2
4867 1 1.23594 0.547152 0.02 0 0 0 1 2
4868 1 1.42224 0.508407 0.02 0 0 0 1 2
4869 1 1.38585 0.729522 0.02 0 0 0 1 2
5057 1 1.10203 6.02331 0.02 0 0 0 1 2
5053 1 0.683156 5.98504 0.02 0 0 0 1 2
5083 1 1.12488 6.56304 0.02 0 0 0 1 2
5082 1 0.929621 6.57346 0.02 0 0 0 1 2
4874 1 0.602636 0.941402 0.02 0 0 0 1 2
4875 1 0.580543 1.13505 0.02 0 0 0 1 2
4876 1 0.810614 0.925911 0.02 0 0 0 1 2
4877 1 0.788137 1.12143 0.02 0 0 0 1 2
4878 1 1.0125 0.935026 0.02 0 0 0 1 2
4879 1 0.992177 1.13418 0.02 0 0 0 1 2
4880 1 1.21181 0.942347 0.02 0 0 0 1 2
4881 1 1.19863 1.13869 0.02 0 0 0 1 2
4882 1 1.40684 0.934024 0.02 0 0 0 1 2
4883 1 1.41182 1.13047 0.02 0 0 0 1 2
5052 1 0.475482 5.95702 0.02 0 0 0 1 2
5047 1 1.47781 5.60025 0.02 0 0 0 1 2
5051 1 0.672945 5.7821 0.02 0 0 0 1 2
5081 1 0.736245 6.73857 0.02 0 0 0 1 2
5046 1 1.50421 5.40185 0.02 0 0 0 1 2
5080 1 0.551615 6.73003 0.02 0 0 0 1 2
4890 1 0.536527 1.32777 0.02 0 0 0 1 2
4891 1 0.514267 1.52478 0.02 0 0 0 1 2
4892 1 0.504107 1.72167 0.02 0 0 0 1 2
4893 1 0.716454 1.51418 0.02 0 0 0 1 2
4894 1 0.706959 1.71282 0.02 0 0 0 1 2
4895 1 0.743642 1.31688 0.02 0 0 0 1 2
4896 1 0.946466 1.32832 0.02 0 0 0 1 2
4897 1 0.921111 1.52127 0.02 0 0 0 1 2
4898 1 0.91039 1.71271 0.02 0 0 0 1 2
4899 1 1.11319 1.72513 0.02 0 0 0 1 2
4900 1 1.14934 1.33266 0.02 0 0 0 1 2
4901 1 1.12892 1.52876 0.02 0 0 0 1 2
4902 1 1.35805 1.31601 0.02 0 0 0 1 2
4903 1 1.33895 1.50616 0.02 0 0 0 1 2
4904 1 1.31521 1.69926 0.02 0 0 0 1 2
5045 1 1.29848 5.44829 0.02 0 0 0 1 2
5044 1 1.31273 5.24183 0.02 0 0 0 1 2
5069 1 1.11462 6.20609 0.02 0 0 0 1 2
5079 1 0.730954 6.55154 0.02 0 0 0 1 2
4909 1 0.470862 1.91195 0.02 0 0 0 1 2
4910 1 0.48281 2.10066 0.02 0 0 0 1 2
4911 1 0.682253 1.90792 0.02 0 0 0 1 2
4912 1 0.689541 2.10177 0.02 0 0 0 1 2
4914 1 0.888206 2.09299 0.02 0 0 0 1 2
4913 1 0.89392 1.90235 0.02 0 0 0 1 2
4915 1 1.10326 1.92009 0.02 0 0 0 1 2
4916 1 1.08765 2.11413 0.02 0 0 0 1 2
4917 1 1.30829 1.89614 0.02 0 0 0 1 2
4918 1 1.29062 2.09454 0.02 0 0 0 1 2
4919 1 1.51322 1.87263 0.02 0 0 0 1 2
4920 1 1.49384 2.06691 0.02 0 0 0 1 2
5068 1 0.901376 6.1991 0.02 0 0 0 1 2
5067 1 0.686973 6.36341 0.02 0 0 0 1 2
4923 1 0.423671 2.27614 0.02 0 0 0 1 2
4924 1 0.431245 2.4548 0.02 0 0 0 1 2
4925 1 0.649828 2.28563 0.02 0 0 0 1 2
4926 1 0.663367 2.46684 0.02 0 0 0 1 2
4927 1 0.885765 2.28195 0.02 0 0 0 1 2
4928 1 0.867009 2.46409 0.02 0 0 0 1 2
4929 1 1.11084 2.30172 0.02 0 0 0 1 2
4930 1 1.08156 2.48427 0.02 0 0 0 1 2
4931 1 1.31994 2.28888 0.02 0 0 0 1 2
4932 1 1.31332 2.48033 0.02 0 0 0 1 2
5043 1 1.28709 5.64948 0.02 0 0 0 1 2
5042 1 1.08941 5.64819 0.02 0 0 0 1 2
5078 1 0.533508 6.53654 0.02 0 0 0 1 2
5066 1 0.485277 6.34367 0.02 0 0 0 1 2
4937 1 0.399669 2.63076 0.02 0 0 0 1 2
4938 1 0.621057 2.63956 0.02 0 0 0 1 2
4939 1 0.437527 2.80986 0.02 0 0 0 1 2
4940 1 0.531961 2.97258 0.02 0 0 0 1 2
4941 1 0.683661 2.80866 0.02 0 0 0 1 2
4942 1 0.741795 2.99988 0.02 0 0 0 1 2
4943 1 0.896781 2.64036 0.02 0 0 0 1 2
4944 1 0.892842 2.8171 0.02 0 0 0 1 2
4945 1 0.955859 2.99621 0.02 0 0 0 1 2
4946 1 1.11566 2.82876 0.02 0 0 0 1 2
4947 1 1.15254 2.65315 0.02 0 0 0 1 2
4948 1 1.16695 3.01138 0.02 0 0 0 1 2
4949 1 1.36763 2.66497 0.02 0 0 0 1 2
4950 1 1.35394 2.85047 0.02 0 0 0 1 2
4951 1 1.36799 3.03992 0.02 0 0 0 1 2
5041 1 0.89474 5.61046 0.02 0 0 0 1 2
5040 1 1.09642 5.45106 0.02 0 0 0 1 2
5039 1 0.909353 5.40353 0.02 0 0 0 1 2
5065 1 0.6926 6.17564 0.02 0 0 0 1 2
5038 1 1.12727 5.25393 0.02 0 0 0 1 2
5037 1 0.707737 5.56701 0.02 0 0 0 1 2
4958 1 0.544505 3.16345 0.02 0 0 0 1 2
4959 1 0.58262 3.35953 0.02 0 0 0 1 2
4960 1 0.74949 3.19806 0.02 0 0 0 1 2
4961 1 0.787792 3.39618 0.02 0 0 0 1 2
4962 1 0.951319 3.18701 0.02 0 0 0 1 2
4963 1 0.987667 3.38149 0.02 0 0 0 1 2
4964 1 1.16034 3.20444 0.02 0 0 0 1 2
4965 1 1.19102 3.39844 0.02 0 0 0 1 2
4966 1 1.37733 3.22764 0.02 0 0 0 1 2
4967 1 1.39771 3.4148 0.02 0 0 0 1 2
5050 1 0.489138 5.75532 0.02 0 0 0 1 2
5056 1 0.891032 6.0091 0.02 0 0 0 1 2
5036 1 0.51674 5.55378 0.02 0 0 0 1 2
5088 1 1.32346 6.56971 0.02 0 0 0 1 2
4972 1 0.418592 3.55811 0.02 0 0 0 1 2
4973 1 0.626671 3.55836 0.02 0 0 0 1 2
4974 1 0.471702 3.7432 0.02 0 0 0 1 2
4975 1 0.681674 3.75439 0.02 0 0 0 1 2
4976 1 0.837046 3.59067 0.02 0 0 0 1 2
4977 1 1.04013 3.57987 0.02 0 0 0 1 2
4978 1 0.897282 3.77943 0.02 0 0 0 1 2
4979 1 1.10614 3.7745 0.02 0 0 0 1 2
4980 1 1.24727 3.59397 0.02 0 0 0 1 2
4982 1 1.31568 3.78488 0.02 0 0 0 1 2
4981 1 1.45885 3.59964 0.02 0 0 0 1 2
5035 1 0.734829 5.34326 0.02 0 0 0 1 2
5064 1 0.488312 6.14981 0.02 0 0 0 1 2
5061 1 1.50826 5.98727 0.02 0 0 0 1 2
5087 1 1.35223 6.745 0.02 0 -6.59084e-14 7.86718e-14 1 2
4987 1 0.489753 3.93519 0.02 0 0 0 1 2
4988 1 0.6925 3.95088 0.02 0 0 0 1 2
4989 1 0.523819 4.13251 0.02 0 0 0 1 2
4990 1 0.723447 4.15098 0.02 0 0 0 1 2
4991 1 0.553386 4.33685 0.02 0 0 0 1 2
4992 1 0.896982 3.97068 0.02 0 0 0 1 2
4993 1 1.10385 3.9719 0.02 0 0 0 1 2
4994 1 0.929346 4.16123 0.02 0 0 0 1 2
4995 1 1.13496 4.17176 0.02 0 0 0 1 2
4996 1 1.30871 3.97949 0.02 0 0 0 1 2
4998 1 1.3385 4.17466 0.02 0 0 0 1 2
5034 1 0.548954 5.35095 0.02 0 0 0 1 2
5058 1 1.26873 5.83904 0.02 0 0 0 1 2
5074 1 1.32143 6.39243 0.02 0 0 0 1 2
5072 1 1.32005 6.20958 0.02 0 0 0 1 2
5002 1 0.543225 4.54315 0.02 0 0 0 1 2
5003 1 0.58722 4.73823 0.02 0 0 0 1 2
5004 1 0.74946 4.35183 0.02 0 0 0 1 2
5005 1 0.747145 4.55067 0.02 0 0 0 1 2
5006 1 0.791044 4.7463 0.02 0 0 0 1 2
5007 1 0.948753 4.3547 0.02 0 0 0 1 2
5008 1 1.14562 4.37884 0.02 0 0 0 1 2
5009 1 0.953782 4.55042 0.02 0 0 0 1 2
5010 1 1.15479 4.59118 0.02 0 0 0 1 2
5011 1 0.987457 4.7499 0.02 0 0 0 1 2
5012 1 1.34127 4.37456 0.02 0 0 0 1 2
5014 1 1.34891 4.57757 0.02 0 0 0 1 2
5060 1 1.31132 6.0222 0.02 0 0 0 1 2
5059 1 1.48585 5.79748 0.02 0 0 0 1 2
5030 1 1.49183 5.19178 0.02 0 0 0 1 2
5071 1 1.09969 6.38403 0.02 0 0 0 1 2
5070 1 0.891405 6.38626 0.02 0 0 0 1 2
5019 1 0.579941 4.93604 0.02 0 0 0 1 2
5020 1 0.582328 5.14001 0.02 0 0 0 1 2
5021 1 0.775563 5.1407 0.02 0 0 0 1 2
5022 1 0.780929 4.94279 0.02 0 0 0 1 2
5023 1 1.1653 4.82086 0.02 0 0 0 1 2
5024 1 0.977217 4.96189 0.02 0 0 0 1 2
5025 1 1.15455 5.04089 0.02 0 0 0 1 2
5026 1 0.956792 5.18165 0.02 0 0 0 1 2
5027 1 1.34521 4.78906 0.02 0 0 0 1 2
5028 1 1.33927 5.01453 0.02 0 0 0 1 2
1509 2 2 -10 0 0 0 0 1 5
1510 2 2.2 -10 0 0 0 0 1 5
1511 2 2.4 -10 0 0 0 0 1 5
1543 2 2 -9.8 0 0 0 0 1 5
1544 2 2.2 -9.8 0 0 0 0 1 5
1545 2 2.4 -9.8 0 0 0 0 1 5
1577 2 2 -9.6 0 0 0 0 1 5
1578 2 2.2 -9.6 0 0 0 0 1 5
1579 2 2.4 -9.6 0 0 0 0 1 5
1512 2 2.6 -10 0 0 0 0 1 5
1513 2 2.8 -10 0 0 0 0 1 5
1546 2 2.6 -9.8 0 0 0 0 1 5
1547 2 2.8 -9.8 0 0 0 0 1 5
1580 2 2.6 -9.6 0 0 0 0 1 5
1581 2 2.8 -9.6 0 0 0 0 1 5
1645 2 2 -9.2 0 0 0 0 1 5
1646 2 2.2 -9.2 0 0 0 0 1 5
1647 2 2.4 -9.2 0 0 0 0 1 5
1613 2 2.4 -9.4 0 0 0 0 1 5
1612 2 2.2 -9.4 0 0 0 0 1 5
1611 2 2 -9.4 0 0 0 0 1 5
1648 2 2.6 -9.2 0 0 0 0 1 5
1649 2 2.8 -9.2 0 0 0 0 1 5
1615 2 2.8 -9.4 0 0 0 0 1 5
1614 2 2.6 -9.4 0 0 0 0 1 5
1679 2 2 -9 0 0 0 0 1 5
1680 2 2.2 -9 0 0 0 0 1 5
1681 2 2.4 -9 0 0 0 0 1 5
1713 2 2 -8.8 0 0 0 0 1 5
1714 2 2.2 -8.8 0 0 0 0 1 5
1715 2 2.4 -8.8 0 0 0 0 1 5
1682 2 2.6 -9 0 0 0 0 1 5
1683 2 2.8 -9 0 0 0 0 1 5
1716 2 2.6 -8.8 0 0 0 0 1 5
1717 2 2.8 -8.8 0 0 0 0 1 5
1783 2 2.4 -8.4 0 0 0 0 1 5
1782 2 2.2 -8.4 0 0 0 0 1 5
1781 2 2 -8.4 0 0 0 0 1 5
1747 2 2 -8.6 0 0 0 0 1 5
1748 2 2.2 -8.6 0 0 0 0 1 5
1749 2 2.4 -8.6 0 0 0 0 1 5
1785 2 2.8 -8.4 0 0 0 0 1 5
1784 2 2.6 -8.4 0 0 0 0 1 5
1750 2 2.6 -8.6 0 0 0 0 1 5
1751 2 2.8 -8.6 0 0 0 0 1 5
1851 2 2.4 -8 0 0 0 0 1 5
1850 2 2.2 -8 0 0 0 0 1 5
1849 2 2 -8 0 0 0 0 1 5
1817 2 2.4 -8.2 0 0 0 0 1 5
1816 2 2.2 -8.2 0 0 0 0 1 5
1815 2 2 -8.2 0 0 0 0 1 5
1853 2 2.8 -8 0 0 0 0 1 5
1852 2 2.6 -8 0 0 0 0 1 5
1819 2 2.8 -8.2 0 0 0 0 1 5
1818 2 2.6 -8.2 0 0 0 0 1 5
1953 2 2.4 -7.4 0 0 0 0 1.00335 5
1952 2 2.2 -7.4 0 0 0 0 1.01169 5
1951 2 2 -7.4 0 0 0 0 0.99208 5
1919 2 2.4 -7.6 0 0 0 0 1 5
1918 2 2.2 -7.6 0 0 0 0 1 5
1917 2 2 -7.6 0 0 0 0 1 5
1885 2 2.4 -7.8 0 0 0 0 1 5
1884 2 2.2 -7.8 0 0 0 0 1 5
1883 2 2 -7.8 0 0 0 0 1 5
1955 2 2.8 -7.4 0 0 0 0 0.996824 5
1954 2 2.6 -7.4 0 0 0 0 1.00114 5
1921 2 2.8 -7.6 0 0 0 0 1 5
1920 2 2.6 -7.6 0 0 0 0 1 5
1887 2 2.8 -7.8 0 0 0 0 1 5
1886 2 2.6 -7.8 0 0 0 0 1 5
2021 2 2.4 -7 0 0 0 0 1.00508 5
2020 2 2.2 -7 0 0 0 0 1.00898 5
2019 2 2 -7 0 0 0 0 0.994292 5
1987 2 2.4 -7.2 0 0 0 0 1.00538 5
1986 2 2.2 -7.2 0 0 0 0 1.01017 5
1985 2 2 -7.2 0 0 0 0 0.99246 5
2023 2 2.8 -7 0 0 0 0 0.999741 5
2022 2 2.6 -7 0 0 0 0 1.00074 5
1989 2 2.8 -7.2 0 0 0 0 0.998993 5
1988 2 2.6 -7.2 0 0 0 0 1.00066 5
4714 1 2.61892 -6.76661 0.02 0 -0.00291864 -0.000353565 1 2
4716 1 2.63519 -6.57535 0.02 0 0.000206429 0.000439573 1 2
4715 1 2.44751 -6.55076 0.02 0 0.000149707 0.000154072 1 2
4713 1 2.41371 -6.73915 0.02 0 -0.00242611 -0.00046159 1 2
4717 1 2.83461 -6.74572 0.02 0 -0.00247662 -0.000365234 1 2
4719 1 2.82812 -6.56407 0.02 0 0.000123875 0.000289501 1 2
4911 1 1.63962 -1.97973 0.02 0 0 0 1 2
4926 1 1.65386 -2.17957 0.02 0 0 0 1 2
4859 1 1.85992 -0.791499 0.02 0 0 0 1 2
4858 1 1.84775 -0.570425 0.02 0 0 0 1 2
4732 1 2.69165 -6.17475 0.02 0 7.21521e-06 1.42725e-05 1 2
4731 1 2.66276 -6.37801 0.02 0 0.00013181 0.000161387 1 2
4730 1 2.4987 -6.17071 0.02 0 7.28875e-06 7.78069e-06 1 2
4729 1 2.4674 -6.35963 0.02 0 8.54329e-05 5.8775e-05 1 2
5098 1 1.6507 -3.38541 0.02 0 0 0 1 2
4892 1 1.7152 -1.37324 0.02 0 0 0 1 2
4733 1 2.85762 -6.37882 0.02 0 9.40714e-05 0.000140793 1 2
4735 1 2.88304 -6.18522 0.02 0 6.00142e-06 1.46875e-05 1 2
4595 1 2.97233 -0.411655 0.02 0 -1.40708e-20 6.28333e-22 1 2
4874 1 1.85833 -0.996149 0.02 0 0 0 1 2
4747 1 2.68972 -5.97299 0.02 0 1.57864e-08 4.91305e-08 1 2
4748 1 2.67604 -5.77559 0.02 0 6.78965e-12 2.33624e-11 1 2
4746 1 2.47906 -5.78431 0.02 0 6.49662e-12 9.97103e-12 1 2
4745 1 2.4898 -5.9796 0.02 0 5.49311e-08 7.0762e-08 1 2
4929 1 1.68355 -2.57643 0.02 0 0 0 1 2
4927 1 1.65988 -2.37639 0.02 0 0 0 1 2
4749 1 2.88614 -5.98699 0.02 0 1.80915e-08 8.60896e-08 1 2
4750 1 2.87113 -5.78504 0.02 0 9.91967e-12 4.16891e-11 1 2
4596 1 2.94801 -0.202375 0.02 0 -6.65767e-21 8.75488e-22 1 2
4908 1 1.8376 -1.99265 0.02 0 0 0 1 2
4763 1 2.60929 -5.39695 0.02 0 -1.7302e-24 1.08046e-25 1 2
4764 1 2.63142 -5.58573 0.02 0 -5.17234e-25 -1.65146e-25 1 2
4761 1 2.42573 -5.58762 0.02 0 -1.58372e-28 -3.29444e-29 1 2
4762 1 2.40237 -5.39266 0.02 0 -4.41809e-28 1.26381e-28 1 2
4765 1 2.83975 -5.58705 0.02 0 -5.61234e-22 -2.88805e-22 1 2
4767 1 2.81951 -5.39695 0.02 0 -1.34642e-21 -5.23417e-23 1 2
5082 1 1.65274 -3.7928 0.02 0 0 0 1 2
5068 1 1.64067 -3.99372 0.02 0 0 0 1 2
4925 1 1.86039 -2.40026 0.02 0 0 0 1 2
4924 1 1.85499 -2.19767 0.02 0 0 0 1 2
4777 1 2.60583 -5.20967 0.02 0 -2.61702e-25 6.51445e-26 1 2
4779 1 2.62812 -5.02856 0.02 0 -3.83489e-26 9.43877e-27 1 2
4780 1 2.67138 -4.85148 0.02 0 -3.22023e-27 2.83998e-27 1 2
4778 1 2.44851 -4.83834 0.02 0 0 0 1 2
4781 1 2.82586 -5.21235 0.02 0 -7.47565e-22 2.84721e-22 1 2
4875 1 1.65897 -0.9547 0.02 0 0 0 1 2
4876 1 1.67914 -1.16392 0.02 0 0 0 1 2
4783 1 2.89388 -4.85243 0.02 0 -2.75913e-25 4.2561e-25 1 2
4782 1 2.85611 -5.03345 0.02 0 -8.47029e-23 7.27285e-23 1 2
4943 1 1.68182 -2.97456 0.02 0 0 0 1 2
4891 1 1.75699 -1.5817 0.02 0 0 0 1 2
4907 1 1.78831 -1.78827 0.02 0 0 0 1 2
4597 1 2.78094 -0.418584 0.02 0 -2.84888e-22 1.12113e-23 1 2
4797 1 2.67274 -4.48385 0.02 0 0 0 1 2
4796 1 2.64512 -4.66649 0.02 0 -5.27889e-33 6.77473e-33 1 2
4795 1 2.445 -4.462 0.02 0 0 0 1 2
4794 1 2.44067 -4.65017 0.02 0 0 0 1 2
4941 1 1.7108 -2.77688 0.02 0 0 0 1 2
4799 1 2.90933 -4.49172 0.02 0 -2.38205e-31 -7.36265e-31 1 2
4798 1 2.85368 -4.66888 0.02 0 -7.5408e-29 2.02821e-28 1 2
5036 1 1.79563 -4.80654 0.02 0 0 0 1 2
4598 1 2.7597 -0.204515 0.02 0 -1.30305e-22 4.33383e-24 1 2
4808 1 2.46068 -4.27373 0.02 0 0 0 1 2
4811 1 2.68871 -4.11551 0.02 0 0 0 1 2
4814 1 2.69739 -3.92505 0.02 0 0 0 1 2
4810 1 2.66428 -4.3006 0.02 0 0 0 1 2
4809 1 2.47105 -4.08309 0.02 0 0 0 1 2
5100 1 1.67114 -3.17954 0.02 0 0 0 1 2
5084 1 1.6571 -3.59027 0.02 0 0 0 1 2
4813 1 2.90478 -4.11797 0.02 0 0 0 1 2
4815 1 2.89467 -3.92102 0.02 0 0 0 1 2
4812 1 2.87241 -4.3071 0.02 0 -2.26868e-29 -3.4685e-29 1 2
4861 1 1.67413 -0.741933 0.02 0 0 0 1 2
4599 1 2.57136 -0.196512 0.02 0 -1.67223e-24 -1.70017e-26 1 2
4600 1 2.58964 -0.406124 0.02 0 -2.09828e-24 1.71079e-25 1 2
5101 1 1.84587 -3.42199 0.02 0 0 0 1 2
4829 1 2.44567 -3.68365 0.02 0 0 0 1 2
4831 1 2.64849 -3.72616 0.02 0 0 0 1 2
4830 1 2.6245 -3.52888 0.02 0 0 0 1 2
4828 1 2.49796 -3.89073 0.02 0 0 0 1 2
4833 1 2.8262 -3.52264 0.02 0 0 0 1 2
5066 1 1.65309 -4.1987 0.02 0 0 0 1 2
5052 1 1.6259 -4.39955 0.02 0 0 0 1 2
4832 1 2.84805 -3.72231 0.02 0 0 0 1 2
4955 1 1.85765 -3.21512 0.02 0 0 0 1 2
5086 1 1.84947 -3.62798 0.02 0 0 0 1 2
4712 1 2.43146 -3.47088 0.02 0 0 0 1 2
4711 1 2.43213 -3.25575 0.02 0 0 0 1 2
4708 1 2.62942 -3.13149 0.02 0 0 0 1 2
4710 1 2.62445 -3.33168 0.02 0 0 0 1 2
4707 1 2.81902 -3.1147 0.02 0 0 0 1 2
4709 1 2.83124 -3.32346 0.02 0 0 0 1 2
5050 1 1.61023 -4.59884 0.02 0 0 0 1 2
5030 1 1.59201 -5.19849 0.02 0 0 0 1 2
5085 1 1.85991 -3.82732 0.02 0 0 0 1 2
5070 1 1.83731 -4.02126 0.02 0 0 0 1 2
4696 1 2.47046 -2.83279 0.02 0 0 0 1 2
4695 1 2.45943 -2.62755 0.02 0 0 0 1 2
4697 1 2.45495 -3.0408 0.02 0 0 0 1 2
4694 1 2.64809 -2.91284 0.02 0 0 0 1 2
4690 1 2.64692 -2.68472 0.02 0 0 0 1 2
4693 1 2.83754 -2.90633 0.02 0 0 0 1 2
4691 1 2.83531 -2.7004 0.02 0 -7.90864e-29 -1.36419e-28 1 2
4844 1 1.6495 -0.32819 0.02 0 0 0 1 2
4845 1 1.62811 -0.131593 0.02 0 0 0 1 2
5069 1 1.85179 -4.22092 0.02 0 0 0 1 2
5054 1 1.82357 -4.41893 0.02 0 0 0 1 2
4679 1 2.42972 -2.21217 0.02 0 0 0 1 2
4677 1 2.63001 -2.46414 0.02 0 -1.73745e-26 -9.79282e-27 1 2
4678 1 2.62098 -2.25416 0.02 0 -1.72977e-24 -3.80109e-25 1 2
4680 1 2.43691 -2.4215 0.02 0 0 0 1 2
4674 1 2.8157 -2.28702 0.02 0 -6.85398e-23 -3.07842e-23 1 2
4676 1 2.82174 -2.49265 0.02 0 -3.31429e-24 -3.34299e-24 1 2
5016 1 1.61368 -5.40561 0.02 0 0 0 1 2
5014 1 1.62883 -5.61078 0.02 0 0 0 1 2
4842 1 1.82075 -0.125197 0.02 0 0 0 1 2
4843 1 1.83944 -0.344474 0.02 0 0 0 1 2
4664 1 2.41302 -2.0009 0.02 0 0 0 1 2
4663 1 2.60619 -2.04609 0.02 0 -1.83921e-24 2.71668e-25 1 2
4662 1 2.5794 -1.83614 0.02 0 -1.34664e-25 2.30452e-26 1 2
4661 1 2.80078 -2.07835 0.02 0 -1.74078e-22 -1.05316e-23 1 2
4659 1 2.77091 -1.86398 0.02 0 -8.00816e-23 1.59727e-23 1 2
4969 1 1.64501 -6.56034 0.02 0 -2.57324e-07 2.93611e-05 1 2
5035 1 1.75434 -4.99634 0.02 0 0 0 1 2
5034 1 1.78917 -5.19128 0.02 0 0 0 1 2
4967 1 1.61287 -6.75576 0.02 0 -0.000142684 -0.000103006 1 2
4658 1 2.9567 -1.9211 0.02 0 -2.89682e-21 1.81492e-22 1 2
4648 1 2.53799 -1.62282 0.02 0 -9.42867e-28 1.51261e-28 1 2
4647 1 2.51995 -1.41351 0.02 0 0 0 1 2
4644 1 2.71621 -1.43509 0.02 0 -4.33019e-24 2.1364e-25 1 2
4646 1 2.72772 -1.64492 0.02 0 -3.96932e-24 -5.19645e-25 1 2
4643 1 2.9015 -1.46824 0.02 0 -1.53248e-22 7.84315e-24 1 2
4860 1 1.66144 -0.530511 0.02 0 0 0 1 2
4983 1 1.68522 -6.36822 0.02 0 8.85519e-07 6.88021e-06 1 2
5053 1 1.81489 -4.61546 0.02 0 0 0 1 2
4999 1 1.67718 -5.80157 0.02 0 0 0 1 2
4645 1 2.91138 -1.6947 0.02 0 -4.62413e-22 1.41691e-22 1 2
4632 1 2.48052 -1.20811 0.02 0 0 0 1 2
4631 1 2.4616 -1.00736 0.02 0 0 0 1 2
4628 1 2.66198 -1.02554 0.02 0 -7.53676e-25 -2.38665e-25 1 2
4630 1 2.67783 -1.23077 0.02 0 -4.17829e-26 1.45331e-26 1 2
4997 1 1.69577 -5.99012 0.02 0 -3.16619e-10 1.44601e-09 1 2
4985 1 1.71568 -6.17861 0.02 0 -5.35273e-08 2.42303e-07 1 2
5018 1 1.8068 -5.38987 0.02 0 0 0 1 2
5017 1 1.82206 -5.59358 0.02 0 0 0 1 2
4627 1 2.85926 -1.03504 0.02 0 -1.18431e-22 -5.97781e-23 1 2
4629 1 2.87126 -1.24415 0.02 0 -1.77793e-23 7.13799e-24 1 2
4612 1 2.62221 -0.613201 0.02 0 -5.25902e-24 2.16842e-25 1 2
4616 1 2.44472 -0.808962 0.02 0 0 0 1 2
4615 1 2.42432 -0.609091 0.02 0 0 0 1 2
4614 1 2.64372 -0.819929 0.02 0 -3.63228e-24 -6.28419e-25 1 2
4611 1 2.81616 -0.628898 0.02 0 -6.58012e-22 -3.22018e-23 1 2
4613 1 2.84318 -0.832632 0.02 0 -5.11773e-22 -1.15483e-22 1 2
4970 1 1.81338 -6.76076 0.02 0 -0.00181418 -0.000514681 1 2
4971 1 1.83714 -6.57482 0.02 0 -0.000418515 9.36959e-05 1 2
5032 1 1.55626 -4.99144 0.02 0 0 0 1 2
5033 1 1.58193 -4.7929 0.02 0 0 0 1 2
4895 1 1.56359 -1.57395 0.02 0 0 0 1 2
4893 1 1.51665 -1.36783 0.02 0 0 0 1 2
4909 1 1.58601 -1.77807 0.02 0 0 0 1 2
4587 1 2.55073 0.0152087 0.02 0 -4.35068e-25 1.47615e-26 1 2
4588 1 2.58566 0.224259 0.02 0 -3.42393e-24 -1.51212e-25 1 2
4589 1 2.77888 0.216003 0.02 0 -2.53137e-22 -2.77664e-23 1 2
4590 1 2.77364 0.424276 0.02 0 -3.42258e-22 5.74062e-24 1 2
4591 1 2.73938 0.00901173 0.02 0 -5.06365e-23 7.89642e-26 1 2
4593 1 2.96583 0.243059 0.02 0 -8.1749e-21 -5.36154e-22 1 2
4592 1 2.92775 0.0146403 0.02 0 -3.19198e-21 -9.1229e-23 1 2
5049 1 1.71131 5.41416 0.02 0 0 0 1 2
5018 1 1.74946 4.58883 0.02 0 0 0 1 2
5017 1 1.74702 4.3903 0.02 0 0 0 1 2
454 2 2.6 9.6 0 0 0 0 1 5
4603 1 2.58277 0.434965 0.02 0 -8.81987e-24 1.91141e-25 1 2
4604 1 2.5857 0.645737 0.02 0 -1.23772e-24 1.87868e-25 1 2
4605 1 2.59334 0.853529 0.02 0 -1.46257e-24 -2.39756e-25 1 2
4606 1 2.77812 0.634414 0.02 0 -1.43045e-22 4.28299e-23 1 2
4607 1 2.78461 0.848641 0.02 0 -1.25647e-22 -3.83384e-23 1 2
4608 1 2.96206 0.465903 0.02 0 -8.46888e-21 6.61551e-22 1 2
4609 1 2.96613 0.683296 0.02 0 -4.26817e-21 7.64223e-22 1 2
5001 1 1.74628 4.19345 0.02 0 0 0 1 2
5000 1 1.72847 3.99767 0.02 0 0 0 1 2
455 2 2.8 9.6 0 0 0 0 1 5
4620 1 2.58121 1.26198 0.02 0 -4.50683e-24 -2.17254e-26 1 2
4619 1 2.57938 1.05801 0.02 0 -7.41331e-24 -3.9674e-25 1 2
4621 1 2.77139 1.06422 0.02 0 -3.70929e-22 -2.89699e-23 1 2
4622 1 2.77002 1.27921 0.02 0 -2.50098e-22 3.18983e-23 1 2
4625 1 2.95689 1.29997 0.02 0 -7.84497e-21 1.65575e-21 1 2
4623 1 2.97307 0.88937 0.02 0 -6.42175e-21 -2.15674e-21 1 2
4624 1 2.9614 1.09195 0.02 0 -1.18904e-20 -5.43714e-22 1 2
4957 1 1.77611 3.00181 0.02 0 0 0 1 2
4956 1 1.79445 2.80981 0.02 0 0 0 1 2
4638 1 2.72716 1.48506 0.02 0 -1.75246e-23 6.70795e-24 1 2
4637 1 2.53986 1.66141 0.02 0 0 0 1 2
4636 1 2.53356 1.46151 0.02 0 -1.15237e-25 5.98802e-27 1 2
4639 1 2.75224 1.68567 0.02 0 -8.43776e-25 7.32767e-25 1 2
4641 1 2.96541 1.70509 0.02 0 -5.70419e-23 6.50816e-23 1 2
4640 1 2.92212 1.50668 0.02 0 -1.07782e-21 5.89568e-22 1 2
5048 1 1.67224 5.6108 0.02 0 0 0 1 2
4955 1 1.78792 2.62061 0.02 0 0 0 1 2
488 2 2.6 9.8 0 0 0 0 1 5
4651 1 2.55623 2.04403 0.02 0 0 0 1 2
4650 1 2.57843 1.85478 0.02 0 0 0 1 2
4652 1 2.78797 1.8791 0.02 0 -2.81527e-29 4.15939e-29 1 2
4653 1 2.77618 2.07045 0.02 0 -8.76359e-30 -6.25704e-30 1 2
4969 1 1.60524 3.40293 0.02 0 0 0 1 2
4968 1 1.59153 3.20956 0.02 0 0 0 1 2
4986 1 1.85899 3.59134 0.02 0 0 0 1 2
4971 1 1.81062 3.39198 0.02 0 0 0 1 2
4670 1 2.64089 2.60767 0.02 0 -1.66641e-26 -1.82734e-27 1 2
4668 1 2.64401 2.41719 0.02 0 -2.6819e-28 -1.02885e-28 1 2
4666 1 2.60847 2.22999 0.02 0 0 0 1 2
4664 1 2.42199 2.39441 0.02 0 0 0 1 2
4665 1 2.43548 2.5827 0.02 0 0 0 1 2
4667 1 2.82837 2.26125 0.02 0 -5.87522e-26 -5.03069e-26 1 2
4886 1 1.61642 1.1014 0.02 0 0 0 1 2
5033 1 1.70981 5.00813 0.02 0 0 0 1 2
4669 1 2.86044 2.45268 0.02 0 -4.46976e-24 -2.19126e-24 1 2
489 2 2.8 9.8 0 0 0 0 1 5
4970 1 1.79733 3.19534 0.02 0 0 0 1 2
4683 1 2.6293 2.80212 0.02 0 -2.31881e-26 -1.3749e-27 1 2
4681 1 2.60584 2.99882 0.02 0 -1.26246e-27 2.61223e-28 1 2
4679 1 2.42237 2.77537 0.02 0 0 0 1 2
4680 1 2.40628 2.96941 0.02 0 0 0 1 2
4684 1 2.83193 2.83916 0.02 0 -1.1645e-23 9.1903e-25 1 2
4685 1 2.80362 3.03534 0.02 0 -1.54244e-24 5.74923e-25 1 2
5032 1 1.71865 4.79343 0.02 0 0 0 1 2
4884 1 1.59711 0.898345 0.02 0 0 0 1 2
4682 1 2.84552 2.64459 0.02 0 -1.3026e-23 -1.59237e-24 1 2
4888 1 1.81192 1.07569 0.02 0 0 0 1 2
4872 1 1.80912 0.484546 0.02 0 0 0 1 2
485 2 2 9.8 0 0 0 0 1 5
4699 1 2.40359 3.16915 0.02 0 0 0 1 2
4700 1 2.41265 3.37484 0.02 0 -1.74077e-34 -1.69486e-35 1 2
4702 1 2.60659 3.40503 0.02 0 -3.13997e-26 -9.75549e-27 1 2
4701 1 2.60243 3.20054 0.02 0 -1.87785e-27 -6.30062e-28 1 2
4703 1 2.8025 3.23538 0.02 0 -8.86209e-24 -6.48742e-24 1 2
4704 1 2.79963 3.43993 0.02 0 -2.11067e-22 -7.76961e-23 1 2
4871 1 1.61063 0.478725 0.02 0 0 0 1 2
4855 1 1.60528 0.0658033 0.02 0 0 0 1 2
4854 1 1.59955 0.26968 0.02 0 0 0 1 2
4856 1 1.7986 0.0854231 0.02 0 0 0 1 2
418 2 2.2 9.4 0 0 0 0 1 5
4720 1 2.68112 3.8167 0.02 0 -3.23577e-23 2.60008e-26 1 2
4718 1 2.6518 3.61296 0.02 0 -5.27274e-24 -4.16599e-25 1 2
4717 1 2.48339 3.789 0.02 0 -1.07706e-25 5.72291e-27 1 2
4716 1 2.45012 3.58294 0.02 0 -1.55937e-27 7.5454e-29 1 2
5031 1 1.67836 5.21627 0.02 0 0 0 1 2
5062 1 1.69661 5.8067 0.02 0 0 0 1 2
4719 1 2.85631 3.64472 0.02 0 -2.44635e-21 -5.14774e-22 1 2
4721 1 2.88024 3.84819 0.02 0 -6.25738e-21 -2.49391e-22 1 2
451 2 2 9.6 0 0 0 0 1 5
383 2 2 9.2 0 0 0 0 1 5
4732 1 2.51964 4.19723 0.02 0 -6.53401e-25 4.2557e-26 1 2
4735 1 2.72233 4.22758 0.02 0 -8.30628e-23 9.28144e-24 1 2
4733 1 2.70602 4.02299 0.02 0 -7.28396e-23 1.46079e-24 1 2